Protein in water t=   0.00000 step= 0
325713
    1DC5    H5T    1   5.299   5.380   3.171
    1DC5    O5'    2   5.374   5.320   3.178
    1DC5    C5'    3   5.492   5.386   3.117
    1DC5   H5'1    4   5.467   5.420   3.017
    1DC5   H5'2    5   5.577   5.319   3.121
    1DC5    C4'    6   5.530   5.515   3.191
    1DC5    H4'    7   5.629   5.543   3.156
    1DC5    O4'    8   5.438   5.619   3.161
    1DC5    C1'    9   5.429   5.685   3.279
    1DC5    H1'   10   5.523   5.739   3.296
    1DC5     N1   11   5.323   5.785   3.269
    1DC5     C6   12   5.188   5.758   3.291
    1DC5     H6   13   5.165   5.658   3.324
    1DC5     C5   14   5.094   5.854   3.301
    1DC5     H5   15   4.994   5.824   3.329
    1DC5     C4   16   5.141   5.982   3.263
    1DC5     N4   17   5.056   6.077   3.258
    1DC5    H41   18   5.078   6.174   3.242
    1DC5    H42   19   4.965   6.044   3.288
    1DC5     N3   20   5.267   6.014   3.243
    1DC5     C2   21   5.358   5.916   3.250
    1DC5     O2   22   5.474   5.958   3.230
    1DC5    C3'   23   5.522   5.499   3.349
    1DC5    H3'   24   5.500   5.398   3.382
    1DC5    C2'   25   5.411   5.584   3.400
    1DC5   H2'1   26   5.318   5.528   3.402
    1DC5   H2'2   27   5.441   5.627   3.496
    1DC5    O3'   28   5.651   5.546   3.385
    2DG       P   29   5.762   5.457   3.456
    2DG     O1P   30   5.810   5.357   3.358
    2DG     O2P   31   5.725   5.419   3.590
    2DG     O5'   32   5.863   5.580   3.467
    2DG     C5'   33   5.934   5.634   3.361
    2DG    H5'1   34   5.875   5.637   3.269
    2DG    H5'2   35   6.023   5.572   3.354
    2DG     C4'   36   5.992   5.777   3.383
    2DG     H4'   37   6.071   5.789   3.309
    2DG     O4'   38   5.897   5.881   3.368
    2DG     C1'   39   5.867   5.949   3.491
    2DG     H1'   40   5.903   6.052   3.488
    2DG      N9   41   5.713   5.956   3.502
    2DG      C8   42   5.627   5.857   3.539
    2DG      H8   43   5.655   5.754   3.549
    2DG      N7   44   5.498   5.901   3.552
    2DG      C5   45   5.512   6.039   3.529
    2DG      C6   46   5.413   6.146   3.537
    2DG      O6   47   5.291   6.144   3.536
    2DG      N1   48   5.465   6.270   3.531
    2DG      H1   49   5.406   6.351   3.517
    2DG      C2   50   5.602   6.294   3.519
    2DG      N2   51   5.632   6.418   3.497
    2DG     H21   52   5.556   6.484   3.503
    2DG     H22   53   5.726   6.447   3.477
    2DG      N3   54   5.695   6.202   3.490
    2DG      C4   55   5.641   6.073   3.507
    2DG     C3'   56   6.052   5.803   3.520
    2DG     H3'   57   6.087   5.705   3.552
    2DG     C2'   58   5.943   5.871   3.597
    2DG    H2'1   59   5.873   5.801   3.642
    2DG    H2'2   60   5.987   5.937   3.671
    2DG     O3'   61   6.161   5.893   3.499
    3DC       P   62   6.274   5.912   3.613
    3DC     O1P   63   6.400   5.956   3.541
    3DC     O2P   64   6.284   5.795   3.700
    3DC     O5'   65   6.214   6.042   3.686
    3DC     C5'   66   6.186   6.159   3.605
    3DC    H5'1   67   6.140   6.125   3.512
    3DC    H5'2   68   6.274   6.213   3.570
    3DC     C4'   69   6.101   6.253   3.687
    3DC     H4'   70   6.086   6.345   3.631
    3DC     O4'   71   5.979   6.189   3.704
    3DC     C1'   72   5.904   6.260   3.801
    3DC     H1'   73   5.881   6.362   3.770
    3DC      N1   74   5.779   6.194   3.832
    3DC      C6   75   5.772   6.060   3.862
    3DC      H6   76   5.856   5.993   3.853
    3DC      C5   77   5.654   6.009   3.902
    3DC      H5   78   5.648   5.906   3.934
    3DC      C4   79   5.548   6.093   3.918
    3DC      N4   80   5.430   6.047   3.942
    3DC     H41   81   5.363   6.122   3.931
    3DC     H42   82   5.406   5.951   3.962
    3DC      N3   83   5.552   6.223   3.886
    3DC      C2   84   5.670   6.277   3.846
    3DC      O2   85   5.670   6.400   3.823
    3DC     C3'   86   6.142   6.292   3.832
    3DC     H3'   87   6.219   6.223   3.865
    3DC     C2'   88   6.009   6.282   3.915
    3DC    H2'1   89   6.020   6.195   3.979
    3DC    H2'2   90   5.979   6.375   3.964
    3DC     O3'   91   6.200   6.425   3.835
    4DA       P   92   6.264   6.482   3.970
    4DA     O1P   93   6.317   6.362   4.044
    4DA     O2P   94   6.359   6.586   3.932
    4DA     O5'   95   6.152   6.547   4.049
    4DA     C5'   96   6.066   6.642   3.988
    4DA    H5'1   97   6.032   6.601   3.892
    4DA    H5'2   98   6.120   6.731   3.958
    4DA     C4'   99   5.944   6.682   4.080
    4DA     H4'  100   5.906   6.779   4.049
    4DA     O4'  101   5.834   6.587   4.058
    4DA     C1'  102   5.803   6.544   4.185
    4DA     H1'  103   5.730   6.616   4.223
    4DA      N9  104   5.733   6.415   4.185
    4DA      C8  105   5.787   6.288   4.216
    4DA      H8  106   5.889   6.273   4.250
    4DA      N7  107   5.690   6.201   4.226
    4DA      C5  108   5.570   6.274   4.205
    4DA      C6  109   5.435   6.246   4.211
    4DA      N6  110   5.382   6.128   4.233
    4DA     H61  111   5.293   6.118   4.186
    4DA     H62  112   5.450   6.054   4.241
    4DA      N1  113   5.343   6.344   4.187
    4DA      C2  114   5.387   6.463   4.170
    4DA      H2  115   5.316   6.544   4.163
    4DA      N3  116   5.510   6.507   4.163
    4DA      C4  117   5.599   6.405   4.187
    4DA     C3'  118   5.981   6.694   4.227
    4DA     H3'  119   6.090   6.700   4.234
    4DA     C2'  120   5.930   6.557   4.271
    4DA    H2'1  121   6.006   6.481   4.251
    4DA    H2'2  122   5.911   6.552   4.378
    4DA     O3'  123   5.901   6.788   4.295
    5DT       P  124   5.970   6.887   4.397
    5DT     O1P  125   6.047   6.991   4.323
    5DT     O2P  126   6.036   6.810   4.505
    5DT     O5'  127   5.843   6.958   4.462
    5DT     C5'  128   5.755   7.039   4.375
    5DT    H5'1  129   5.772   7.015   4.270
    5DT    H5'2  130   5.784   7.143   4.388
    5DT     C4'  131   5.606   7.022   4.409
    5DT     H4'  132   5.546   7.089   4.347
    5DT     O4'  133   5.575   6.888   4.374
    5DT     C1'  134   5.507   6.827   4.480
    5DT     H1'  135   5.402   6.852   4.470
    5DT      N1  136   5.509   6.678   4.477
    5DT      C6  137   5.625   6.614   4.513
    5DT      H6  138   5.719   6.667   4.517
    5DT      C5  139   5.626   6.475   4.530
    5DT      C7  140   5.754   6.408   4.570
    5DT     H71  141   5.731   6.330   4.642
    5DT     H72  142   5.792   6.361   4.480
    5DT     H73  143   5.833   6.467   4.616
    5DT      C4  144   5.499   6.401   4.516
    5DT      O4  145   5.484   6.279   4.530
    5DT      N3  146   5.388   6.471   4.478
    5DT      H3  147   5.300   6.427   4.455
    5DT      C2  148   5.386   6.608   4.455
    5DT      O2  149   5.287   6.666   4.409
    5DT     C3'  150   5.568   7.040   4.560
    5DT     H3'  151   5.650   7.089   4.610
    5DT     C2'  152   5.561   6.895   4.607
    5DT    H2'1  153   5.657   6.851   4.636
    5DT    H2'2  154   5.495   6.872   4.691
    5DT     O3'  155   5.448   7.115   4.553
    6DG       P  156   5.336   7.139   4.665
    6DG     O1P  157   5.261   7.260   4.632
    6DG     O2P  158   5.414   7.146   4.791
    6DG     O5'  159   5.231   7.014   4.678
    6DG     C5'  160   5.117   7.012   4.589
    6DG    H5'1  161   5.139   6.951   4.502
    6DG    H5'2  162   5.099   7.110   4.545
    6DG     C4'  163   4.980   6.972   4.645
    6DG     H4'  164   4.898   7.006   4.582
    6DG     O4'  165   4.978   6.834   4.664
    6DG     C1'  166   4.955   6.808   4.804
    6DG     H1'  167   4.849   6.787   4.820
    6DG      N9  168   5.041   6.690   4.831
    6DG      C8  169   5.175   6.687   4.817
    6DG      H8  170   5.227   6.777   4.790
    6DG      N7  171   5.233   6.568   4.837
    6DG      C5  172   5.123   6.481   4.858
    6DG      C6  173   5.101   6.336   4.868
    6DG      O6  174   5.173   6.238   4.884
    6DG      N1  175   4.967   6.304   4.875
    6DG      H1  176   4.941   6.208   4.896
    6DG      C2  177   4.865   6.386   4.884
    6DG      N2  178   4.746   6.342   4.898
    6DG     H21  179   4.723   6.244   4.906
    6DG     H22  180   4.669   6.407   4.896
    6DG      N3  181   4.882   6.514   4.873
    6DG      C4  182   5.013   6.557   4.862
    6DG     C3'  183   4.959   7.036   4.780
    6DG     H3'  184   5.026   7.122   4.787
    6DG     C2'  185   4.998   6.932   4.880
    6DG    H2'1  186   5.105   6.931   4.902
    6DG    H2'2  187   4.931   6.935   4.966
    6DG     O3'  188   4.827   7.076   4.790
    7DT       P  189   4.768   7.166   4.911
    7DT     O1P  190   4.676   7.260   4.841
    7DT     O2P  191   4.881   7.220   4.989
    7DT     O5'  192   4.683   7.059   5.007
    7DT     C5'  193   4.589   6.965   4.957
    7DT    H5'1  194   4.631   6.925   4.864
    7DT    H5'2  195   4.487   6.999   4.937
    7DT     C4'  196   4.573   6.846   5.046
    7DT     H4'  197   4.489   6.784   5.016
    7DT     O4'  198   4.693   6.771   5.046
    7DT     C1'  199   4.708   6.722   5.174
    7DT     H1'  200   4.632   6.649   5.203
    7DT      N1  201   4.847   6.674   5.192
    7DT      C6  202   4.962   6.756   5.191
    7DT      H6  203   4.955   6.862   5.172
    7DT      C5  204   5.087   6.705   5.184
    7DT      C7  205   5.207   6.800   5.184
    7DT     H71  206   5.263   6.791   5.091
    7DT     H72  207   5.175   6.902   5.207
    7DT     H73  208   5.264   6.768   5.271
    7DT      C4  209   5.107   6.560   5.194
    7DT      O4  210   5.210   6.496   5.190
    7DT      N3  211   4.992   6.486   5.205
    7DT      H3  212   4.997   6.385   5.196
    7DT      C2  213   4.866   6.540   5.210
    7DT      O2  214   4.776   6.458   5.222
    7DT     C3'  215   4.544   6.882   5.198
    7DT     H3'  216   4.517   6.987   5.213
    7DT     C2'  217   4.678   6.839   5.261
    7DT    H2'1  218   4.754   6.917   5.253
    7DT    H2'2  219   4.665   6.809   5.365
    7DT     O3'  220   4.442   6.794   5.238
    8DG       P  221   4.356   6.805   5.383
    8DG     O1P  222   4.222   6.861   5.348
    8DG     O2P  223   4.440   6.864   5.489
    8DG     O5'  224   4.330   6.656   5.425
    8DG     C5'  225   4.249   6.561   5.356
    8DG    H5'1  226   4.287   6.551   5.254
    8DG    H5'2  227   4.144   6.589   5.350
    8DG     C4'  228   4.245   6.426   5.417
    8DG     H4'  229   4.163   6.370   5.372
    8DG     O4'  230   4.361   6.351   5.382
    8DG     C1'  231   4.419   6.337   5.512
    8DG     H1'  232   4.417   6.232   5.541
    8DG      N9  233   4.565   6.375   5.504
    8DG      C8  234   4.620   6.499   5.526
    8DG      H8  235   4.547   6.578   5.531
    8DG      N7  236   4.751   6.505   5.514
    8DG      C5  237   4.782   6.371   5.509
    8DG      C6  238   4.918   6.313   5.519
    8DG      O6  239   5.025   6.361   5.519
    8DG      N1  240   4.910   6.178   5.541
    8DG      H1  241   4.992   6.122   5.560
    8DG      C2  242   4.797   6.102   5.545
    8DG      N2  243   4.809   5.979   5.566
    8DG     H21  244   4.901   5.938   5.579
    8DG     H22  245   4.732   5.915   5.574
    8DG      N3  246   4.674   6.151   5.521
    8DG      C4  247   4.674   6.288   5.512
    8DG     C3'  248   4.195   6.421   5.560
    8DG     H3'  249   4.140   6.511   5.588
    8DG     C2'  250   4.338   6.403   5.624
    8DG    H2'1  251   4.377   6.502   5.648
    8DG    H2'2  252   4.324   6.338   5.710
    8DG     O3'  253   4.109   6.309   5.580
    9DC       P  254   4.031   6.278   5.718
    9DC     O1P  255   3.908   6.200   5.689
    9DC     O2P  256   4.020   6.403   5.791
    9DC     O5'  257   4.131   6.182   5.799
    9DC     C5'  258   4.172   6.058   5.745
    9DC    H5'1  259   4.182   6.071   5.637
    9DC    H5'2  260   4.088   5.990   5.758
    9DC     C4'  261   4.299   5.997   5.804
    9DC     H4'  262   4.300   5.893   5.771
    9DC     O4'  263   4.414   6.072   5.776
    9DC     C1'  264   4.500   6.063   5.891
    9DC     H1'  265   4.549   5.966   5.899
    9DC      N1  266   4.596   6.169   5.889
    9DC      C6  267   4.555   6.300   5.874
    9DC      H6  268   4.449   6.322   5.877
    9DC      C5  269   4.643   6.402   5.860
    9DC      H5  270   4.617   6.506   5.849
    9DC      C4  271   4.778   6.366   5.851
    9DC      N4  272   4.866   6.457   5.833
    9DC     H41  273   4.965   6.436   5.841
    9DC     H42  274   4.838   6.554   5.821
    9DC      N3  275   4.828   6.247   5.856
    9DC      C2  276   4.737   6.145   5.876
    9DC      O2  277   4.786   6.035   5.885
    9DC     C3'  278   4.287   5.997   5.956
    9DC     H3'  279   4.191   6.033   5.993
    9DC     C2'  280   4.404   6.077   6.007
    9DC    H2'1  281   4.365   6.178   6.022
    9DC    H2'2  282   4.460   6.049   6.096
    9DC     O3'  283   4.306   5.867   6.003
   10DG       P  284   4.260   5.821   6.152
   10DG     O1P  285   4.219   5.677   6.141
   10DG     O2P  286   4.170   5.919   6.215
   10DG     O5'  287   4.400   5.841   6.229
   10DG     C5'  288   4.501   5.743   6.204
   10DG    H5'1  289   4.509   5.721   6.098
   10DG    H5'2  290   4.478   5.651   6.258
   10DG     C4'  291   4.634   5.785   6.251
   10DG     H4'  292   4.713   5.713   6.231
   10DG     O4'  293   4.657   5.912   6.174
   10DG     C1'  294   4.772   5.963   6.232
   10DG     H1'  295   4.855   5.903   6.195
   10DG      N9  296   4.807   6.107   6.219
   10DG      C8  297   4.721   6.208   6.199
   10DG      H8  298   4.616   6.185   6.211
   10DG      N7  299   4.778   6.323   6.184
   10DG      C5  300   4.918   6.295   6.183
   10DG      C6  301   5.040   6.368   6.162
   10DG      O6  302   5.052   6.486   6.133
   10DG      N1  303   5.155   6.295   6.165
   10DG      H1  304   5.238   6.349   6.186
   10DG      C2  305   5.157   6.164   6.190
   10DG      N2  306   5.275   6.108   6.182
   10DG     H21  307   5.357   6.166   6.193
   10DG     H22  308   5.287   6.009   6.200
   10DG      N3  309   5.053   6.084   6.208
   10DG      C4  310   4.934   6.156   6.199
   10DG     C3'  311   4.638   5.832   6.389
   10DG     H3'  312   4.558   5.902   6.412
   10DG     C2'  313   4.766   5.915   6.379
   10DG    H2'1  314   4.756   6.000   6.446
   10DG    H2'2  315   4.860   5.866   6.405
   10DG     O3'  316   4.642   5.719   6.480
   11DT       P  317   4.691   5.721   6.630
   11DT     O1P  318   4.654   5.591   6.685
   11DT     O2P  319   4.636   5.843   6.688
   11DT     O5'  320   4.843   5.731   6.637
   11DT     C5'  321   4.926   5.648   6.561
   11DT    H5'1  322   4.893   5.649   6.458
   11DT    H5'2  323   4.907   5.550   6.604
   11DT     C4'  324   5.071   5.687   6.576
   11DT     H4'  325   5.129   5.615   6.517
   11DT     O4'  326   5.093   5.819   6.526
   11DT     C1'  327   5.166   5.895   6.618
   11DT     H1'  328   5.271   5.874   6.598
   11DT      N1  329   5.125   6.043   6.602
   11DT      C6  330   4.989   6.078   6.615
   11DT      H6  331   4.918   6.006   6.655
   11DT      C5  332   4.946   6.204   6.594
   11DT      C7  333   4.797   6.236   6.609
   11DT     H71  334   4.755   6.296   6.528
   11DT     H72  335   4.731   6.150   6.622
   11DT     H73  336   4.785   6.297   6.698
   11DT      C4  337   5.040   6.307   6.546
   11DT      O4  338   5.005   6.420   6.507
   11DT      N3  339   5.171   6.266   6.544
   11DT      H3  340   5.242   6.335   6.524
   11DT      C2  341   5.216   6.141   6.576
   11DT      O2  342   5.339   6.125   6.589
   11DT     C3'  343   5.123   5.686   6.717
   11DT     H3'  344   5.045   5.639   6.777
   11DT     C2'  345   5.133   5.831   6.749
   11DT    H2'1  346   5.038   5.860   6.795
   11DT    H2'2  347   5.211   5.859   6.820
   11DT     O3'  348   5.248   5.622   6.710
   12DA       P  349   5.323   5.578   6.844
   12DA     O1P  350   5.418   5.469   6.812
   12DA     O2P  351   5.217   5.555   6.941
   12DA     O5'  352   5.406   5.716   6.874
   12DA     C5'  353   5.534   5.733   6.825
   12DA    H5'1  354   5.537   5.735   6.716
   12DA    H5'2  355   5.589   5.644   6.856
   12DA     C4'  356   5.602   5.857   6.896
   12DA     H4'  357   5.706   5.874   6.870
   12DA     O4'  358   5.533   5.977   6.851
   12DA     C1'  359   5.485   6.052   6.963
   12DA     H1'  360   5.565   6.115   7.003
   12DA      N9  361   5.361   6.127   6.930
   12DA      C8  362   5.229   6.104   6.969
   12DA      H8  363   5.202   6.008   7.011
   12DA      N7  364   5.150   6.207   6.948
   12DA      C5  365   5.238   6.307   6.889
   12DA      C6  366   5.220   6.435   6.843
   12DA      N6  367   5.109   6.502   6.822
   12DA     H61  368   5.105   6.580   6.758
   12DA     H62  369   5.024   6.474   6.870
   12DA      N1  370   5.328   6.506   6.794
   12DA      C2  371   5.445   6.452   6.797
   12DA      H2  372   5.520   6.520   6.760
   12DA      N3  373   5.482   6.330   6.843
   12DA      C4  374   5.367   6.260   6.889
   12DA     C3'  375   5.583   5.855   7.052
   12DA     H3'  376   5.556   5.759   7.096
   12DA     C2'  377   5.465   5.949   7.072
   12DA    H2'1  378   5.386   5.876   7.052
   12DA    H2'2  379   5.459   6.003   7.167
   12DA     O3'  380   5.692   5.924   7.116
   13DT       P  381   5.734   5.897   7.277
   13DT     O1P  382   5.817   5.769   7.275
   13DT     O2P  383   5.621   5.914   7.365
   13DT     O5'  384   5.829   6.021   7.296
   13DT     C5'  385   5.929   6.057   7.194
   13DT    H5'1  386   5.910   6.025   7.091
   13DT    H5'2  387   6.024   6.017   7.230
   13DT     C4'  388   5.922   6.210   7.186
   13DT     H4'  389   5.986   6.249   7.108
   13DT     O4'  390   5.789   6.248   7.145
   13DT     C1'  391   5.769   6.377   7.201
   13DT     H1'  392   5.827   6.458   7.156
   13DT      N1  393   5.627   6.403   7.201
   13DT      C6  394   5.536   6.306   7.250
   13DT      H6  395   5.568   6.210   7.289
   13DT      C5  396   5.400   6.331   7.249
   13DT      C7  397   5.299   6.233   7.294
   13DT     H71  398   5.225   6.214   7.216
   13DT     H72  399   5.343   6.140   7.330
   13DT     H73  400   5.250   6.273   7.383
   13DT      C4  401   5.343   6.450   7.191
   13DT      O4  402   5.227   6.479   7.163
   13DT      N3  403   5.437   6.537   7.152
   13DT      H3  404   5.404   6.629   7.127
   13DT      C2  405   5.573   6.520   7.138
   13DT      O2  406   5.645   6.604   7.085
   13DT     C3'  407   5.944   6.280   7.320
   13DT     H3'  408   5.962   6.204   7.396
   13DT     C2'  409   5.816   6.354   7.341
   13DT    H2'1  410   5.749   6.284   7.392
   13DT    H2'2  411   5.831   6.445   7.400
   13DT     O3'  412   6.050   6.378   7.313
   14DA       P  413   6.204   6.332   7.312
   14DA     O1P  414   6.240   6.280   7.178
   14DA     O2P  415   6.216   6.246   7.438
   14DA     O5'  416   6.293   6.469   7.323
   14DA     C5'  417   6.280   6.555   7.437
   14DA    H5'1  418   6.376   6.545   7.489
   14DA    H5'2  419   6.205   6.517   7.506
   14DA     C4'  420   6.254   6.703   7.406
   14DA     H4'  421   6.313   6.732   7.319
   14DA     O4'  422   6.107   6.716   7.381
   14DA     C1'  423   6.048   6.792   7.491
   14DA     H1'  424   6.033   6.892   7.451
   14DA      N9  425   5.918   6.728   7.522
   14DA      C8  426   5.901   6.616   7.599
   14DA      H8  427   5.981   6.557   7.642
   14DA      N7  428   5.780   6.579   7.615
   14DA      C5  429   5.713   6.665   7.525
   14DA      C6  430   5.576   6.676   7.481
   14DA      N6  431   5.475   6.592   7.509
   14DA     H61  432   5.390   6.613   7.458
   14DA     H62  433   5.483   6.511   7.568
   14DA      N1  434   5.537   6.774   7.402
   14DA      C2  435   5.631   6.856   7.360
   14DA      H2  436   5.595   6.929   7.289
   14DA      N3  437   5.764   6.863   7.388
   14DA      C4  438   5.795   6.767   7.476
   14DA     C3'  439   6.283   6.796   7.520
   14DA     H3'  440   6.369   6.758   7.575
   14DA     C2'  441   6.152   6.786   7.601
   14DA    H2'1  442   6.157   6.693   7.658
   14DA    H2'2  443   6.152   6.872   7.667
   14DA     O3'  444   6.314   6.921   7.463
   15DT       P  445   6.374   7.030   7.548
   15DT     O1P  446   6.486   7.093   7.475
   15DT     O2P  447   6.399   6.979   7.680
   15DT     O5'  448   6.248   7.126   7.566
   15DT     C5'  449   6.195   7.203   7.459
   15DT    H5'1  450   6.199   7.146   7.366
   15DT    H5'2  451   6.262   7.288   7.450
   15DT     C4'  452   6.048   7.248   7.470
   15DT     H4'  453   6.021   7.291   7.374
   15DT     O4'  454   5.969   7.133   7.498
   15DT     C1'  455   5.844   7.179   7.549
   15DT     H1'  456   5.767   7.207   7.478
   15DT      N1  457   5.795   7.075   7.645
   15DT      C6  458   5.884   7.017   7.732
   15DT      H6  459   5.986   7.053   7.737
   15DT      C5  460   5.846   6.911   7.804
   15DT      C7  461   5.954   6.843   7.895
   15DT     H71  462   5.934   6.867   7.999
   15DT     H72  463   5.932   6.736   7.887
   15DT     H73  464   6.056   6.874   7.871
   15DT      C4  465   5.715   6.853   7.806
   15DT      O4  466   5.678   6.751   7.863
   15DT      N3  467   5.630   6.918   7.712
   15DT      H3  468   5.535   6.884   7.710
   15DT      C2  469   5.661   7.035   7.639
   15DT      O2  470   5.574   7.099   7.577
   15DT     C3'  471   6.024   7.349   7.583
   15DT     H3'  472   6.099   7.327   7.659
   15DT     C2'  473   5.890   7.308   7.626
   15DT    H2'1  474   5.888   7.283   7.732
   15DT    H2'2  475   5.819   7.387   7.603
   15DT     O3'  476   6.031   7.487   7.531
   16DA       P  477   6.048   7.621   7.623
   16DA     O1P  478   6.076   7.738   7.539
   16DA     O2P  479   6.148   7.586   7.730
   16DA     O5'  480   5.902   7.621   7.685
   16DA     C5'  481   5.796   7.677   7.610
   16DA    H5'1  482   5.791   7.618   7.519
   16DA    H5'2  483   5.817   7.775   7.568
   16DA     C4'  484   5.657   7.699   7.670
   16DA     H4'  485   5.581   7.735   7.600
   16DA     O4'  486   5.603   7.573   7.700
   16DA     C1'  487   5.568   7.562   7.832
   16DA     H1'  488   5.465   7.595   7.849
   16DA      N9  489   5.585   7.420   7.870
   16DA      C8  490   5.704   7.357   7.911
   16DA      H8  491   5.798   7.410   7.919
   16DA      N7  492   5.691   7.231   7.940
   16DA      C5  493   5.552   7.218   7.922
   16DA      C6  494   5.462   7.116   7.949
   16DA      N6  495   5.500   7.003   8.009
   16DA     H61  496   5.430   6.932   8.024
   16DA     H62  497   5.597   6.982   8.026
   16DA      N1  498   5.330   7.126   7.936
   16DA      C2  499   5.283   7.238   7.894
   16DA      H2  500   5.180   7.238   7.863
   16DA      N3  501   5.350   7.342   7.855
   16DA      C4  502   5.486   7.322   7.878
   16DA     C3'  503   5.664   7.782   7.797
   16DA     H3'  504   5.767   7.818   7.790
   16DA     C2'  505   5.651   7.665   7.898
   16DA    H2'1  506   5.755   7.636   7.908
   16DA    H2'2  507   5.616   7.697   7.997
   16DA     O3'  508   5.572   7.884   7.793
   17DC       P  509   5.557   7.983   7.912
   17DC     O1P  510   5.500   8.103   7.864
   17DC     O2P  511   5.690   7.992   7.979
   17DC     O5'  512   5.461   7.902   8.004
   17DC     C5'  513   5.327   7.869   7.958
   17DC    H5'1  514   5.332   7.831   7.856
   17DC    H5'2  515   5.257   7.953   7.951
   17DC     C4'  516   5.268   7.758   8.045
   17DC     H4'  517   5.173   7.722   8.007
   17DC     O4'  518   5.350   7.645   8.058
   17DC     C1'  519   5.295   7.570   8.167
   17DC     H1'  520   5.203   7.527   8.129
   17DC      N1  521   5.384   7.459   8.221
   17DC      C6  522   5.517   7.471   8.207
   17DC      H6  523   5.559   7.559   8.160
   17DC      C5  524   5.599   7.368   8.249
   17DC      H5  525   5.704   7.386   8.237
   17DC      C4  526   5.536   7.248   8.292
   17DC      N4  527   5.611   7.153   8.338
   17DC     H41  528   5.548   7.079   8.367
   17DC     H42  529   5.698   7.174   8.385
   17DC      N3  530   5.409   7.235   8.294
   17DC      C2  531   5.328   7.339   8.253
   17DC      O2  532   5.205   7.317   8.253
   17DC     C3'  533   5.239   7.799   8.191
   17DC     H3'  534   5.313   7.873   8.220
   17DC     C2'  535   5.265   7.673   8.274
   17DC    H2'1  536   5.353   7.692   8.335
   17DC    H2'2  537   5.181   7.642   8.335
   17DC     O3'  538   5.112   7.843   8.211
   18DA       P  539   5.073   7.927   8.344
   18DA     O1P  540   4.965   8.017   8.314
   18DA     O2P  541   5.201   7.992   8.391
   18DA     O5'  542   5.029   7.809   8.440
   18DA     C5'  543   4.913   7.734   8.414
   18DA    H5'1  544   4.923   7.677   8.322
   18DA    H5'2  545   4.830   7.803   8.398
   18DA     C4'  546   4.883   7.624   8.516
   18DA     H4'  547   4.784   7.580   8.508
   18DA     O4'  548   4.976   7.512   8.495
   18DA     C1'  549   5.015   7.460   8.619
   18DA     H1'  550   4.949   7.377   8.645
   18DA      N9  551   5.160   7.423   8.611
   18DA      C8  552   5.273   7.502   8.591
   18DA      H8  553   5.260   7.607   8.568
   18DA      N7  554   5.381   7.438   8.613
   18DA      C5  555   5.344   7.309   8.656
   18DA      C6  556   5.413   7.189   8.698
   18DA      N6  557   5.547   7.167   8.705
   18DA     H61  558   5.587   7.080   8.738
   18DA     H62  559   5.599   7.243   8.664
   18DA      N1  560   5.342   7.084   8.743
   18DA      C2  561   5.212   7.097   8.750
   18DA      H2  562   5.166   7.009   8.793
   18DA      N3  563   5.134   7.203   8.711
   18DA      C4  564   5.208   7.302   8.659
   18DA     C3'  565   4.899   7.668   8.662
   18DA     H3'  566   4.927   7.770   8.686
   18DA     C2'  567   5.003   7.577   8.720
   18DA    H2'1  568   5.097   7.631   8.727
   18DA    H2'2  569   4.977   7.550   8.822
   18DA     O3'  570   4.771   7.651   8.718
   19DT       P  571   4.742   7.686   8.867
   19DT     O1P  572   4.600   7.725   8.868
   19DT     O2P  573   4.834   7.788   8.924
   19DT     O5'  574   4.767   7.550   8.943
   19DT     C5'  575   4.707   7.424   8.899
   19DT    H5'1  576   4.726   7.401   8.794
   19DT    H5'2  577   4.599   7.437   8.906
   19DT     C4'  578   4.749   7.305   8.988
   19DT     H4'  579   4.702   7.212   8.956
   19DT     O4'  580   4.887   7.281   8.974
   19DT     C1'  581   4.954   7.261   9.091
   19DT     H1'  582   4.938   7.155   9.111
   19DT      N1  583   5.100   7.302   9.070
   19DT      C6  584   5.132   7.437   9.029
   19DT      H6  585   5.058   7.514   9.014
   19DT      C5  586   5.263   7.465   8.997
   19DT      C7  587   5.308   7.606   8.960
   19DT     H71  588   5.293   7.633   8.856
   19DT     H72  589   5.262   7.680   9.026
   19DT     H73  590   5.415   7.614   8.982
   19DT      C4  591   5.368   7.358   9.003
   19DT      O4  592   5.477   7.364   8.950
   19DT      N3  593   5.323   7.243   9.051
   19DT      H3  594   5.396   7.180   9.081
   19DT      C2  595   5.195   7.203   9.083
   19DT      O2  596   5.170   7.088   9.126
   19DT     C3'  597   4.738   7.331   9.140
   19DT     H3'  598   4.677   7.412   9.181
   19DT     C2'  599   4.873   7.354   9.189
   19DT    H2'1  600   4.897   7.460   9.185
   19DT    H2'2  601   4.889   7.313   9.289
   19DT     O3'  602   4.686   7.207   9.188
   20DT       P  603   4.644   7.177   9.343
   20DT     O1P  604   4.549   7.061   9.342
   20DT     O2P  605   4.599   7.302   9.408
   20DT     O5'  606   4.773   7.133   9.424
   20DT     C5'  607   4.829   7.007   9.402
   20DT    H5'1  608   4.856   6.998   9.297
   20DT    H5'2  609   4.753   6.936   9.434
   20DT     C4'  610   4.956   6.982   9.484
   20DT     H4'  611   4.980   6.876   9.493
   20DT     O4'  612   5.062   7.049   9.419
   20DT     C1'  613   5.153   7.098   9.519
   20DT     H1'  614   5.214   7.013   9.549
   20DT      N1  615   5.235   7.205   9.456
   20DT      C6  616   5.172   7.322   9.417
   20DT      H6  617   5.065   7.324   9.427
   20DT      C5  618   5.246   7.424   9.369
   20DT      C7  619   5.187   7.563   9.353
   20DT     H71  620   5.080   7.558   9.372
   20DT     H72  621   5.229   7.643   9.413
   20DT     H73  622   5.199   7.592   9.249
   20DT      C4  623   5.393   7.410   9.343
   20DT      O4  624   5.470   7.479   9.280
   20DT      N3  625   5.444   7.290   9.387
   20DT      H3  626   5.544   7.281   9.374
   20DT      C2  627   5.375   7.187   9.447
   20DT      O2  628   5.436   7.086   9.477
   20DT     C3'  629   4.958   7.041   9.631
   20DT     H3'  630   4.858   7.079   9.653
   20DT     C2'  631   5.065   7.155   9.630
   20DT    H2'1  632   5.022   7.254   9.619
   20DT    H2'2  633   5.124   7.153   9.721
   20DT     O3'  634   4.996   6.923   9.711
   21DG       P  635   5.022   6.927   9.875
   21DG     O1P  636   4.967   6.804   9.941
   21DG     O2P  637   4.980   7.063   9.919
   21DG     O5'  638   5.176   6.925   9.885
   21DG     C5'  639   5.253   6.828   9.813
   21DG    H5'1  640   5.218   6.834   9.710
   21DG    H5'2  641   5.234   6.730   9.858
   21DG     C4'  642   5.409   6.843   9.819
   21DG     H4'  643   5.459   6.759   9.769
   21DG     O4'  644   5.439   6.970   9.758
   21DG     C1'  645   5.572   6.994   9.793
   21DG     H1'  646   5.640   6.929   9.737
   21DG      N9  647   5.614   7.128   9.757
   21DG      C8  648   5.523   7.224   9.719
   21DG      H8  649   5.416   7.212   9.719
   21DG      N7  650   5.585   7.331   9.688
   21DG      C5  651   5.722   7.302   9.692
   21DG      C6  652   5.835   7.380   9.650
   21DG      O6  653   5.832   7.489   9.607
   21DG      N1  654   5.950   7.302   9.661
   21DG      H1  655   6.035   7.345   9.628
   21DG      C2  656   5.954   7.173   9.691
   21DG      N2  657   6.075   7.114   9.684
   21DG     H21  658   6.155   7.173   9.670
   21DG     H22  659   6.088   7.021   9.722
   21DG      N3  660   5.856   7.102   9.748
   21DG      C4  661   5.744   7.172   9.738
   21DG     C3'  662   5.458   6.856   9.962
   21DG     H3'  663   5.377   6.893  10.025
   21DG     C2'  664   5.575   6.960   9.940
   21DG    H2'1  665   5.544   7.044  10.002
   21DG    H2'2  666   5.675   6.929   9.970
   21DG     O3'  667   5.511   6.742  10.028
   22DT       P  668   5.548   6.746  10.186
   22DT     O1P  669   5.557   6.604  10.232
   22DT     O2P  670   5.448   6.837  10.250
   22DT     O5'  671   5.690   6.816  10.201
   22DT     C5'  672   5.806   6.735  10.164
   22DT    H5'1  673   5.808   6.705  10.059
   22DT    H5'2  674   5.797   6.647  10.227
   22DT     C4'  675   5.923   6.817  10.197
   22DT     H4'  676   6.014   6.757  10.192
   22DT     O4'  677   5.940   6.928  10.108
   22DT     C1'  678   6.023   7.022  10.173
   22DT     H1'  679   6.124   6.986  10.155
   22DT      N1  680   5.987   7.155  10.105
   22DT      C6  681   5.854   7.199  10.109
   22DT      H6  682   5.778   7.134  10.150
   22DT      C5  683   5.827   7.322  10.055
   22DT      C7  684   5.684   7.355  10.046
   22DT     H71  685   5.618   7.268  10.045
   22DT     H72  686   5.653   7.418  10.129
   22DT     H73  687   5.655   7.413   9.958
   22DT      C4  688   5.926   7.405   9.991
   22DT      O4  689   5.897   7.515   9.937
   22DT      N3  690   6.057   7.356   9.998
   22DT      H3  691   6.129   7.423   9.975
   22DT      C2  692   6.088   7.228  10.049
   22DT      O2  693   6.205   7.197  10.047
   22DT     C3'  694   5.915   6.883  10.336
   22DT     H3'  695   5.811   6.911  10.355
   22DT     C2'  696   5.995   7.012  10.321
   22DT    H2'1  697   5.929   7.087  10.364
   22DT    H2'2  698   6.084   7.021  10.383
   22DT     O3'  699   5.958   6.787  10.428
   23DA       P  700   5.991   6.822  10.586
   23DA     O1P  701   5.993   6.692  10.657
   23DA     O2P  702   5.900   6.932  10.624
   23DA     O5'  703   6.144   6.885  10.580
   23DA     C5'  704   6.244   6.817  10.507
   23DA    H5'1  705   6.213   6.815  10.403
   23DA    H5'2  706   6.267   6.717  10.543
   23DA     C4'  707   6.379   6.888  10.503
   23DA     H4'  708   6.441   6.825  10.439
   23DA     O4'  709   6.372   7.017  10.437
   23DA     C1'  710   6.359   7.118  10.537
   23DA     H1'  711   6.453   7.174  10.535
   23DA      N9  712   6.241   7.198  10.507
   23DA      C8  713   6.119   7.207  10.568
   23DA      H8  714   6.086   7.134  10.640
   23DA      N7  715   6.037   7.297  10.516
   23DA      C5  716   6.113   7.363  10.415
   23DA      C6  717   6.095   7.477  10.330
   23DA      N6  718   5.984   7.538  10.315
   23DA     H61  719   5.985   7.612  10.247
   23DA     H62  720   5.902   7.511  10.368
   23DA      N1  721   6.196   7.510  10.243
   23DA      C2  722   6.308   7.443  10.252
   23DA      H2  723   6.384   7.484  10.187
   23DA      N3  724   6.341   7.344  10.333
   23DA      C4  725   6.238   7.304  10.414
   23DA     C3'  726   6.421   6.905  10.644
   23DA     H3'  727   6.386   6.827  10.711
   23DA     C2'  728   6.362   7.054  10.672
   23DA    H2'1  729   6.259   7.042  10.705
   23DA    H2'2  730   6.418   7.115  10.743
   23DA     O3'  731   6.566   6.898  10.647
   24DC       P  732   6.660   6.974  10.748
   24DC     O1P  733   6.787   6.897  10.733
   24DC     O2P  734   6.588   6.978  10.876
   24DC     O5'  735   6.680   7.113  10.681
   24DC     C5'  736   6.747   7.130  10.551
   24DC    H5'1  737   6.687   7.083  10.473
   24DC    H5'2  738   6.843   7.079  10.562
   24DC     C4'  739   6.767   7.276  10.510
   24DC     H4'  740   6.829   7.291  10.422
   24DC     O4'  741   6.640   7.339  10.495
   24DC     C1'  742   6.635   7.458  10.573
   24DC     H1'  743   6.680   7.533  10.508
   24DC      N1  744   6.492   7.486  10.610
   24DC      C6  745   6.438   7.438  10.728
   24DC      H6  746   6.500   7.383  10.796
   24DC      C5  747   6.307   7.461  10.764
   24DC      H5  748   6.265   7.419  10.854
   24DC      C4  749   6.236   7.557  10.684
   24DC      N4  750   6.106   7.582  10.705
   24DC     H41  751   6.062   7.636  10.632
   24DC     H42  752   6.055   7.538  10.781
   24DC      N3  753   6.289   7.612  10.576
   24DC      C2  754   6.415   7.580  10.535
   24DC      O2  755   6.457   7.628  10.431
   24DC     C3'  756   6.844   7.353  10.624
   24DC     H3'  757   6.882   7.278  10.693
   24DC     C2'  758   6.733   7.435  10.689
   24DC    H2'1  759   6.687   7.363  10.757
   24DC    H2'2  760   6.778   7.526  10.728
   24DC     O3'  761   6.951   7.436  10.575
   25DG       P  762   7.050   7.506  10.674
   25DG     O1P  763   7.181   7.462  10.629
   25DG     O2P  764   7.017   7.487  10.819
   25DG     O5'  765   7.022   7.658  10.635
   25DG     C5'  766   7.081   7.722  10.520
   25DG    H5'1  767   7.021   7.686  10.436
   25DG    H5'2  768   7.187   7.712  10.500
   25DG     C4'  769   7.053   7.875  10.534
   25DG     H4'  770   7.094   7.917  10.443
   25DG     O4'  771   6.913   7.903  10.539
   25DG     C1'  772   6.875   7.981  10.661
   25DG     H1'  773   6.871   8.087  10.638
   25DG      N9  774   6.753   7.930  10.723
   25DG      C8  775   6.735   7.813  10.794
   25DG      H8  776   6.807   7.734  10.811
   25DG      N7  777   6.609   7.783  10.812
   25DG      C5  778   6.544   7.887  10.756
   25DG      C6  779   6.403   7.918  10.748
   25DG      O6  780   6.310   7.850  10.793
   25DG      N1  781   6.370   8.041  10.696
   25DG      H1  782   6.275   8.071  10.709
   25DG      C2  783   6.462   8.125  10.649
   25DG      N2  784   6.417   8.238  10.607
   25DG     H21  785   6.318   8.259  10.605
   25DG     H22  786   6.490   8.307  10.604
   25DG      N3  787   6.595   8.101  10.651
   25DG      C4  788   6.630   7.981  10.703
   25DG     C3'  789   7.112   7.951  10.657
   25DG     H3'  790   7.195   7.895  10.702
   25DG     C2'  791   7.000   7.957  10.751
   25DG    H2'1  792   6.998   7.861  10.803
   25DG    H2'2  793   7.009   8.038  10.823
   25DG     O3'  794   7.150   8.078  10.624
   26DC       P  795   7.234   8.179  10.725
   26DC     O1P  796   7.323   8.264  10.647
   26DC     O2P  797   7.290   8.101  10.834
   26DC     O5'  798   7.121   8.274  10.781
   26DC     C5'  799   7.049   8.355  10.693
   26DC    H5'1  800   7.002   8.296  10.614
   26DC    H5'2  801   7.119   8.428  10.653
   26DC     C4'  802   6.931   8.429  10.761
   26DC     H4'  803   6.891   8.509  10.699
   26DC     O4'  804   6.838   8.322  10.787
   26DC     C1'  805   6.797   8.334  10.924
   26DC     H1'  806   6.720   8.410  10.934
   26DC      N1  807   6.738   8.205  10.971
   26DC      C6  808   6.814   8.098  11.019
   26DC      H6  809   6.921   8.100  11.007
   26DC      C5  810   6.750   8.002  11.094
   26DC      H5  811   6.795   7.911  11.131
   26DC      C4  812   6.607   8.012  11.106
   26DC      N4  813   6.538   7.931  11.183
   26DC     H41  814   6.440   7.935  11.158
   26DC     H42  815   6.578   7.854  11.235
   26DC      N3  816   6.531   8.108  11.054
   26DC      C2  817   6.597   8.203  10.978
   26DC      O2  818   6.529   8.302  10.943
   26DC     C3'  819   6.967   8.492  10.900
   26DC     H3'  820   7.075   8.502  10.906
   26DC     C2'  821   6.903   8.399  11.006
   26DC    H2'1  822   6.976   8.324  11.037
   26DC    H2'2  823   6.862   8.451  11.092
   26DC     O3'  824   6.902   8.618  10.891
   27DA       P  825   6.953   8.757  10.953
   27DA     O1P  826   7.036   8.823  10.851
   27DA     O2P  827   7.002   8.747  11.092
   27DA     O5'  828   6.822   8.835  10.962
   27DA     C5'  829   6.746   8.877  10.852
   27DA    H5'1  830   6.727   8.795  10.783
   27DA    H5'2  831   6.805   8.954  10.802
   27DA     C4'  832   6.618   8.948  10.900
   27DA     H4'  833   6.597   9.012  10.814
   27DA     O4'  834   6.509   8.859  10.923
   27DA     C1'  835   6.499   8.850  11.063
   27DA     H1'  836   6.399   8.890  11.082
   27DA      N9  837   6.509   8.706  11.099
   27DA      C8  838   6.626   8.635  11.133
   27DA      H8  839   6.728   8.657  11.104
   27DA      N7  840   6.595   8.517  11.178
   27DA      C5  841   6.458   8.524  11.203
   27DA      C6  842   6.368   8.440  11.269
   27DA      N6  843   6.395   8.317  11.313
   27DA     H61  844   6.323   8.262  11.356
   27DA     H62  845   6.487   8.276  11.300
   27DA      N1  846   6.243   8.477  11.284
   27DA      C2  847   6.202   8.592  11.229
   27DA      H2  848   6.097   8.614  11.242
   27DA      N3  849   6.276   8.681  11.162
   27DA      C4  850   6.405   8.639  11.156
   27DA     C3'  851   6.638   9.044  11.021
   27DA     H3'  852   6.744   9.071  11.022
   27DA     C2'  853   6.600   8.941  11.131
   27DA    H2'1  854   6.692   8.889  11.157
   27DA    H2'2  855   6.563   8.990  11.221
   27DA     O3'  856   6.555   9.155  11.026
   28DT       P  857   6.553   9.262  11.140
   28DT     O1P  858   6.488   9.386  11.082
   28DT     O2P  859   6.694   9.275  11.196
   28DT     O5'  860   6.462   9.212  11.261
   28DT     C5'  861   6.325   9.191  11.239
   28DT    H5'1  862   6.301   9.136  11.148
   28DT    H5'2  863   6.272   9.286  11.230
   28DT     C4'  864   6.261   9.110  11.356
   28DT     H4'  865   6.154   9.120  11.339
   28DT     O4'  866   6.317   8.977  11.360
   28DT     C1'  867   6.284   8.919  11.483
   28DT     H1'  868   6.179   8.892  11.481
   28DT      N1  869   6.366   8.804  11.523
   28DT      C6  870   6.502   8.806  11.494
   28DT      H6  871   6.542   8.903  11.469
   28DT      C5  872   6.571   8.695  11.493
   28DT      C7  873   6.719   8.711  11.482
   28DT     H71  874   6.760   8.641  11.555
   28DT     H72  875   6.747   8.694  11.379
   28DT     H73  876   6.740   8.815  11.505
   28DT      C4  877   6.517   8.579  11.562
   28DT      O4  878   6.581   8.476  11.599
   28DT      N3  879   6.380   8.589  11.592
   28DT      H3  880   6.334   8.503  11.620
   28DT      C2  881   6.304   8.696  11.580
   28DT      O2  882   6.189   8.692  11.618
   28DT     C3'  883   6.299   9.159  11.499
   28DT     H3'  884   6.398   9.204  11.497
   28DT     C2'  885   6.307   9.032  11.584
   28DT    H2'1  886   6.408   9.024  11.625
   28DT    H2'2  887   6.233   9.032  11.664
   28DT     O3'  888   6.205   9.247  11.553
   29DA       P  889   6.206   9.317  11.701
   29DA     O1P  890   6.128   9.443  11.695
   29DA     O2P  891   6.337   9.316  11.761
   29DA     O5'  892   6.113   9.217  11.780
   29DA     C5'  893   5.984   9.200  11.733
   29DA    H5'1  894   5.995   9.128  11.652
   29DA    H5'2  895   5.941   9.293  11.698
   29DA     C4'  896   5.903   9.129  11.841
   29DA     H4'  897   5.800   9.125  11.808
   29DA     O4'  898   5.943   8.995  11.855
   29DA     C1'  899   6.014   8.980  11.977
   29DA     H1'  900   5.951   8.907  12.028
   29DA      N9  901   6.146   8.925  11.956
   29DA      C8  902   6.265   8.992  11.928
   29DA      H8  903   6.274   9.100  11.929
   29DA      N7  904   6.368   8.909  11.924
   29DA      C5  905   6.309   8.786  11.944
   29DA      C6  906   6.353   8.651  11.937
   29DA      N6  907   6.482   8.615  11.911
   29DA     H61  908   6.499   8.519  11.937
   29DA     H62  909   6.552   8.687  11.920
   29DA      N1  910   6.278   8.548  11.970
   29DA      C2  911   6.150   8.572  11.993
   29DA      H2  912   6.088   8.490  12.027
   29DA      N3  913   6.088   8.691  11.998
   29DA      C4  914   6.177   8.796  11.970
   29DA     C3'  915   5.908   9.198  11.979
   29DA     H3'  916   5.942   9.302  11.976
   29DA     C2'  917   6.015   9.118  12.050
   29DA    H2'1  918   6.108   9.172  12.031
   29DA    H2'2  919   6.006   9.119  12.158
   29DA     O3'  920   5.783   9.193  12.044
   30DT       P  921   5.768   9.198  12.201
   30DT     O1P  922   5.630   9.239  12.237
   30DT     O2P  923   5.879   9.281  12.258
   30DT     O5'  924   5.794   9.053  12.250
   30DT     C5'  925   5.713   8.939  12.205
   30DT    H5'1  926   5.725   8.935  12.097
   30DT    H5'2  927   5.608   8.961  12.223
   30DT     C4'  928   5.758   8.809  12.272
   30DT     H4'  929   5.682   8.733  12.251
   30DT     O4'  930   5.888   8.767  12.236
   30DT     C1'  931   5.957   8.741  12.356
   30DT     H1'  932   5.932   8.640  12.387
   30DT      N1  933   6.107   8.757  12.321
   30DT      C6  934   6.163   8.882  12.299
   30DT      H6  935   6.099   8.969  12.300
   30DT      C5  936   6.294   8.897  12.267
   30DT      C7  937   6.348   9.040  12.236
   30DT     H71  938   6.396   9.038  12.138
   30DT     H72  939   6.270   9.116  12.232
   30DT     H73  940   6.424   9.066  12.310
   30DT      C4  941   6.378   8.780  12.248
   30DT      O4  942   6.499   8.774  12.215
   30DT      N3  943   6.320   8.658  12.279
   30DT      H3  944   6.372   8.572  12.275
   30DT      C2  945   6.189   8.641  12.317
   30DT      O2  946   6.139   8.531  12.335
   30DT     C3'  947   5.756   8.821  12.426
   30DT     H3'  948   5.708   8.915  12.449
   30DT     C2'  949   5.909   8.832  12.462
   30DT    H2'1  950   5.936   8.936  12.449
   30DT    H2'2  951   5.941   8.792  12.559
   30DT     O3'  952   5.686   8.711  12.483
   31DG       P  953   5.662   8.700  12.635
   31DG     O1P  954   5.551   8.613  12.670
   31DG     O2P  955   5.658   8.838  12.697
   31DG     O5'  956   5.796   8.625  12.676
   31DG     C5'  957   5.826   8.496  12.637
   31DG    H5'1  958   5.846   8.493  12.530
   31DG    H5'2  959   5.743   8.426  12.651
   31DG     C4'  960   5.946   8.437  12.712
   31DG     H4'  961   5.943   8.329  12.701
   31DG     O4'  962   6.067   8.490  12.648
   31DG     C1'  963   6.170   8.508  12.740
   31DG     H1'  964   6.215   8.411  12.758
   31DG      N9  965   6.267   8.604  12.677
   31DG      C8  966   6.233   8.737  12.641
   31DG      H8  967   6.136   8.782  12.658
   31DG      N7  968   6.329   8.795  12.579
   31DG      C5  969   6.430   8.701  12.590
   31DG      C6  970   6.569   8.719  12.554
   31DG      O6  971   6.626   8.818  12.509
   31DG      N1  972   6.649   8.613  12.582
   31DG      H1  973   6.741   8.611  12.542
   31DG      C2  974   6.605   8.497  12.638
   31DG      N2  975   6.695   8.407  12.668
   31DG     H21  976   6.788   8.411  12.629
   31DG     H22  977   6.661   8.322  12.710
   31DG      N3  978   6.479   8.475  12.678
   31DG      C4  979   6.392   8.578  12.645
   31DG     C3'  980   5.963   8.475  12.858
   31DG     H3'  981   5.889   8.541  12.904
   31DG     C2'  982   6.084   8.566  12.851
   31DG    H2'1  983   6.054   8.669  12.831
   31DG    H2'2  984   6.133   8.578  12.947
   31DG     O3'  985   5.977   8.367  12.943
   32DC3      P  986   6.012   8.370  13.093
   32DC3    O1P  987   5.948   8.251  13.149
   32DC3    O2P  988   5.974   8.503  13.146
   32DC3    O5'  989   6.174   8.341  13.111
   32DC3    C5'  990   6.239   8.247  13.029
   32DC3   H5'1  991   6.220   8.278  12.926
   32DC3   H5'2  992   6.194   8.150  13.049
   32DC3    C4'  993   6.393   8.235  13.051
   32DC3    H4'  994   6.443   8.147  13.010
   32DC3    O4'  995   6.461   8.343  12.992
   32DC3    C1'  996   6.537   8.400  13.085
   32DC3    H1'  997   6.635   8.353  13.080
   32DC3     N1  998   6.541   8.538  13.040
   32DC3     C6  999   6.427   8.611  13.043
   32DC3     H6 1000   6.335   8.585  13.094
   32DC3     C5 1001   6.426   8.723  12.966
   32DC3     H5 1002   6.340   8.789  12.966
   32DC3     C4 1003   6.547   8.758  12.900
   32DC3     N4 1004   6.562   8.862  12.829
   32DC3    H41 1005   6.659   8.874  12.805
   32DC3    H42 1006   6.491   8.933  12.820
   32DC3     N3 1007   6.667   8.696  12.915
   32DC3     C2 1008   6.669   8.585  12.990
   32DC3     O2 1009   6.771   8.520  12.998
   32DC3    C3' 1010   6.421   8.241  13.202
   32DC3    H3' 1011   6.328   8.227  13.258
   32DC3    C2' 1012   6.482   8.375  13.229
   32DC3   H2'1 1013   6.415   8.455  13.258
   32DC3   H2'2 1014   6.575   8.365  13.285
   32DC3    O3' 1015   6.518   8.145  13.242
   32DC3    H3T 1016   6.511   8.128  13.336
   33DG5    H5T 1017   7.813   8.794  12.753
   33DG5    O5' 1018   7.734   8.782  12.701
   33DG5    C5' 1019   7.710   8.648  12.699
   33DG5   H5'1 1020   7.709   8.611  12.802
   33DG5   H5'2 1021   7.790   8.601  12.642
   33DG5    C4' 1022   7.580   8.611  12.626
   33DG5    H4' 1023   7.567   8.504  12.639
   33DG5    O4' 1024   7.465   8.679  12.680
   33DG5    C1' 1025   7.380   8.691  12.574
   33DG5    H1' 1026   7.349   8.587  12.560
   33DG5     N9 1027   7.257   8.770  12.595
   33DG5     C8 1028   7.240   8.903  12.573
   33DG5     H8 1029   7.322   8.960  12.531
   33DG5     N7 1030   7.130   8.950  12.618
   33DG5     C5 1031   7.062   8.840  12.680
   33DG5     C6 1032   6.936   8.823  12.745
   33DG5     O6 1033   6.845   8.898  12.776
   33DG5     N1 1034   6.912   8.691  12.772
   33DG5     H1 1035   6.825   8.677  12.821
   33DG5     C2 1036   6.994   8.589  12.761
   33DG5     N2 1037   6.955   8.479  12.820
   33DG5    H21 1038   6.863   8.480  12.862
   33DG5    H22 1039   7.022   8.403  12.824
   33DG5     N3 1040   7.113   8.597  12.698
   33DG5     C4 1041   7.138   8.726  12.655
   33DG5    C3' 1042   7.583   8.639  12.475
   33DG5    H3' 1043   7.677   8.680  12.439
   33DG5    C2' 1044   7.473   8.742  12.463
   33DG5   H2'1 1045   7.508   8.844  12.475
   33DG5   H2'2 1046   7.422   8.733  12.367
   33DG5    O3' 1047   7.543   8.538  12.387
   34DC       P 1048   7.648   8.436  12.341
   34DC     O1P 1049   7.745   8.410  12.449
   34DC     O2P 1050   7.702   8.471  12.207
   34DC     O5' 1051   7.568   8.299  12.330
   34DC     C5' 1052   7.513   8.246  12.453
   34DC    H5'1 1053   7.531   8.303  12.544
   34DC    H5'2 1054   7.556   8.147  12.467
   34DC     C4' 1055   7.361   8.217  12.449
   34DC     H4' 1056   7.335   8.154  12.534
   34DC     O4' 1057   7.282   8.338  12.465
   34DC     C1' 1058   7.163   8.331  12.379
   34DC     H1' 1059   7.092   8.266  12.430
   34DC      N1 1060   7.103   8.466  12.361
   34DC      C6 1061   7.154   8.573  12.297
   34DC      H6 1062   7.246   8.566  12.240
   34DC      C5 1063   7.090   8.691  12.297
   34DC      H5 1064   7.130   8.775  12.242
   34DC      C4 1065   6.975   8.703  12.371
   34DC      N4 1066   6.904   8.821  12.368
   34DC     H41 1067   6.817   8.818  12.419
   34DC     H42 1068   6.915   8.887  12.292
   34DC      N3 1069   6.918   8.604  12.446
   34DC      C2 1070   6.985   8.481  12.440
   34DC      O2 1071   6.926   8.395  12.504
   34DC     C3' 1072   7.307   8.159  12.316
   34DC     H3' 1073   7.386   8.133  12.245
   34DC     C2' 1074   7.222   8.268  12.253
   34DC    H2'1 1075   7.284   8.332  12.191
   34DC    H2'2 1076   7.145   8.226  12.189
   34DC     O3' 1077   7.225   8.053  12.347
   35DA       P 1078   7.209   7.926  12.260
   35DA     O1P 1079   7.312   7.822  12.298
   35DA     O2P 1080   7.193   7.976  12.121
   35DA     O5' 1081   7.063   7.875  12.302
   35DA     C5' 1082   7.046   7.816  12.429
   35DA    H5'1 1083   7.091   7.877  12.507
   35DA    H5'2 1084   7.085   7.715  12.422
   35DA     C4' 1085   6.897   7.813  12.474
   35DA     H4' 1086   6.893   7.757  12.567
   35DA     O4' 1087   6.845   7.943  12.491
   35DA     C1' 1088   6.739   7.973  12.401
   35DA     H1' 1089   6.641   7.971  12.449
   35DA      N9 1090   6.755   8.115  12.353
   35DA      C8 1091   6.862   8.166  12.285
   35DA      H8 1092   6.954   8.114  12.266
   35DA      N7 1093   6.847   8.291  12.245
   35DA      C5 1094   6.718   8.320  12.293
   35DA      C6 1095   6.635   8.437  12.288
   35DA      N6 1096   6.664   8.548  12.231
   35DA     H61 1097   6.595   8.622  12.223
   35DA     H62 1098   6.749   8.564  12.179
   35DA      N1 1099   6.509   8.440  12.334
   35DA      C2 1100   6.464   8.325  12.386
   35DA      H2 1101   6.361   8.327  12.421
   35DA      N3 1102   6.527   8.207  12.400
   35DA      C4 1103   6.657   8.213  12.350
   35DA     C3' 1104   6.801   7.750  12.369
   35DA     H3' 1105   6.862   7.692  12.299
   35DA     C2' 1106   6.743   7.869  12.290
   35DA    H2'1 1107   6.820   7.896  12.218
   35DA    H2'2 1108   6.647   7.849  12.243
   35DA     O3' 1109   6.698   7.672  12.429
   36DT       P 1110   6.585   7.590  12.358
   36DT     O1P 1111   6.549   7.481  12.447
   36DT     O2P 1112   6.631   7.555  12.225
   36DT     O5' 1113   6.459   7.691  12.335
   36DT     C5' 1114   6.406   7.751  12.445
   36DT    H5'1 1115   6.472   7.833  12.470
   36DT    H5'2 1116   6.396   7.681  12.528
   36DT     C4' 1117   6.267   7.815  12.421
   36DT     H4' 1118   6.215   7.822  12.517
   36DT     O4' 1119   6.288   7.950  12.368
   36DT     C1' 1120   6.235   7.969  12.235
   36DT     H1' 1121   6.142   8.022  12.257
   36DT      N1 1122   6.317   8.060  12.145
   36DT      C6 1123   6.436   8.019  12.094
   36DT      H6 1124   6.474   7.919  12.105
   36DT      C5 1125   6.520   8.104  12.029
   36DT      C7 1126   6.659   8.063  11.983
   36DT     H71 1127   6.722   8.109  12.059
   36DT     H72 1128   6.682   7.956  11.987
   36DT     H73 1129   6.679   8.103  11.883
   36DT      C4 1130   6.473   8.240  12.010
   36DT      O4 1131   6.539   8.332  11.967
   36DT      N3 1132   6.351   8.277  12.062
   36DT      H3 1133   6.324   8.374  12.047
   36DT      C2 1134   6.273   8.196  12.136
   36DT      O2 1135   6.183   8.246  12.205
   36DT     C3' 1136   6.173   7.747  12.317
   36DT     H3' 1137   6.201   7.642  12.310
   36DT     C2' 1138   6.209   7.826  12.191
   36DT    H2'1 1139   6.294   7.779  12.141
   36DT    H2'2 1140   6.125   7.830  12.121
   36DT     O3' 1141   6.034   7.749  12.350
   37DA       P 1142   5.911   7.699  12.253
   37DA     O1P 1143   5.798   7.662  12.343
   37DA     O2P 1144   5.966   7.601  12.161
   37DA     O5' 1145   5.887   7.840  12.184
   37DA     C5' 1146   5.826   7.951  12.243
   37DA    H5'1 1147   5.899   7.992  12.313
   37DA    H5'2 1148   5.741   7.931  12.307
   37DA     C4' 1149   5.783   8.051  12.135
   37DA     H4' 1150   5.721   8.129  12.179
   37DA     O4' 1151   5.906   8.107  12.088
   37DA     C1' 1152   5.901   8.092  11.949
   37DA     H1' 1153   5.861   8.188  11.916
   37DA      N9 1154   6.037   8.086  11.890
   37DA      C8 1155   6.123   7.981  11.880
   37DA      H8 1156   6.089   7.889  11.924
   37DA      N7 1157   6.235   8.013  11.822
   37DA      C5 1158   6.213   8.144  11.778
   37DA      C6 1159   6.287   8.232  11.696
   37DA      N6 1160   6.399   8.212  11.633
   37DA     H61 1161   6.438   8.289  11.581
   37DA     H62 1162   6.449   8.125  11.638
   37DA      N1 1163   6.232   8.354  11.665
   37DA      C2 1164   6.113   8.379  11.713
   37DA      H2 1165   6.076   8.477  11.687
   37DA      N3 1166   6.038   8.312  11.801
   37DA      C4 1167   6.094   8.193  11.823
   37DA     C3' 1168   5.697   7.992  12.021
   37DA     H3' 1169   5.666   7.889  12.037
   37DA     C2' 1170   5.797   7.995  11.896
   37DA    H2'1 1171   5.835   7.894  11.886
   37DA    H2'2 1172   5.744   8.023  11.805
   37DA     O3' 1173   5.581   8.077  12.017
   38DT       P 1174   5.452   8.043  11.933
   38DT     O1P 1175   5.338   8.103  12.005
   38DT     O2P 1176   5.440   7.902  11.902
   38DT     O5' 1177   5.481   8.121  11.797
   38DT     C5' 1178   5.475   8.264  11.798
   38DT    H5'1 1179   5.549   8.289  11.873
   38DT    H5'2 1180   5.370   8.282  11.820
   38DT     C4' 1181   5.507   8.332  11.662
   38DT     H4' 1182   5.473   8.435  11.672
   38DT     O4' 1183   5.649   8.335  11.636
   38DT     C1' 1184   5.673   8.306  11.507
   38DT     H1' 1185   5.661   8.397  11.450
   38DT      N1 1186   5.812   8.252  11.483
   38DT      C6 1187   5.848   8.123  11.499
   38DT      H6 1188   5.774   8.066  11.553
   38DT      C5 1189   5.968   8.071  11.475
   38DT      C7 1190   5.994   7.920  11.501
   38DT     H71 1191   6.024   7.877  11.406
   38DT     H72 1192   6.076   7.907  11.571
   38DT     H73 1193   5.900   7.876  11.536
   38DT      C4 1194   6.073   8.160  11.428
   38DT      O4 1195   6.189   8.128  11.401
   38DT      N3 1196   6.037   8.298  11.416
   38DT      H3 1197   6.104   8.358  11.370
   38DT      C2 1198   5.909   8.350  11.438
   38DT      O2 1199   5.878   8.466  11.424
   38DT     C3' 1200   5.439   8.282  11.535
   38DT     H3' 1201   5.367   8.210  11.573
   38DT     C2' 1202   5.557   8.209  11.469
   38DT    H2'1 1203   5.565   8.108  11.508
   38DT    H2'2 1204   5.526   8.205  11.364
   38DT     O3' 1205   5.375   8.386  11.468
   39DG       P 1206   5.291   8.356  11.331
   39DG     O1P 1207   5.210   8.479  11.312
   39DG     O2P 1208   5.220   8.227  11.351
   39DG     O5' 1209   5.398   8.341  11.210
   39DG     C5' 1210   5.457   8.458  11.158
   39DG    H5'1 1211   5.492   8.527  11.235
   39DG    H5'2 1212   5.378   8.511  11.104
   39DG     C4' 1213   5.577   8.421  11.067
   39DG     H4' 1214   5.616   8.516  11.031
   39DG     O4' 1215   5.688   8.352  11.135
   39DG     C1' 1216   5.743   8.274  11.032
   39DG     H1' 1217   5.790   8.345  10.965
   39DG      N9 1218   5.849   8.181  11.076
   39DG      C8 1219   5.834   8.050  11.132
   39DG      H8 1220   5.742   7.999  11.157
   39DG      N7 1221   5.945   7.990  11.149
   39DG      C5 1222   6.048   8.077  11.104
   39DG      C6 1223   6.191   8.061  11.094
   39DG      O6 1224   6.259   7.964  11.122
   39DG      N1 1225   6.251   8.173  11.041
   39DG      H1 1226   6.352   8.176  11.042
   39DG      C2 1227   6.179   8.281  10.991
   39DG      N2 1228   6.257   8.383  10.944
   39DG     H21 1229   6.354   8.357  10.938
   39DG     H22 1230   6.202   8.464  10.917
   39DG      N3 1231   6.049   8.298  10.999
   39DG      C4 1232   5.988   8.195  11.055
   39DG     C3' 1233   5.537   8.326  10.953
   39DG     H3' 1234   5.431   8.299  10.956
   39DG     C2' 1235   5.630   8.203  10.967
   39DG    H2'1 1236   5.576   8.142  11.040
   39DG    H2'2 1237   5.658   8.154  10.874
   39DG     O3' 1238   5.556   8.381  10.819
   40DC       P 1239   5.457   8.473  10.746
   40DC     O1P 1240   5.392   8.563  10.841
   40DC     O2P 1241   5.375   8.389  10.658
   40DC     O5' 1242   5.533   8.572  10.641
   40DC     C5' 1243   5.623   8.671  10.689
   40DC    H5'1 1244   5.627   8.672  10.798
   40DC    H5'2 1245   5.582   8.768  10.659
   40DC     C4' 1246   5.758   8.651  10.629
   40DC     H4' 1247   5.818   8.741  10.641
   40DC     O4' 1248   5.819   8.541  10.699
   40DC     C1' 1249   5.893   8.467  10.605
   40DC     H1' 1250   5.984   8.521  10.580
   40DC      N1 1251   5.930   8.327  10.660
   40DC      C6 1252   5.829   8.235  10.675
   40DC      H6 1253   5.729   8.269  10.652
   40DC      C5 1254   5.870   8.119  10.729
   40DC      H5 1255   5.796   8.043  10.747
   40DC      C4 1256   6.008   8.094  10.739
   40DC      N4 1257   6.051   7.987  10.796
   40DC     H41 1258   6.150   7.971  10.806
   40DC     H42 1259   5.988   7.911  10.818
   40DC      N3 1260   6.104   8.170  10.700
   40DC      C2 1261   6.063   8.289  10.656
   40DC      O2 1262   6.151   8.368  10.620
   40DC     C3' 1263   5.766   8.618  10.483
   40DC     H3' 1264   5.671   8.631  10.430
   40DC     C2' 1265   5.816   8.474  10.474
   40DC    H2'1 1266   5.733   8.404  10.475
   40DC    H2'2 1267   5.892   8.456  10.398
   40DC     O3' 1268   5.854   8.710  10.435
   41DG       P 1269   5.872   8.744  10.281
   41DG     O1P 1270   5.950   8.865  10.270
   41DG     O2P 1271   5.733   8.740  10.223
   41DG     O5' 1272   5.954   8.620  10.227
   41DG     C5' 1273   6.090   8.602  10.254
   41DG    H5'1 1274   6.107   8.601  10.362
   41DG    H5'2 1275   6.142   8.688  10.212
   41DG     C4' 1276   6.138   8.469  10.178
   41DG     H4' 1277   6.239   8.491  10.143
   41DG     O4' 1278   6.133   8.357  10.268
   41DG     C1' 1279   6.059   8.254  10.200
   41DG     H1' 1280   6.115   8.194  10.128
   41DG      N9 1281   5.996   8.147  10.285
   41DG      C8 1282   5.865   8.129  10.330
   41DG      H8 1283   5.778   8.184  10.299
   41DG      N7 1284   5.845   8.017  10.394
   41DG      C5 1285   5.976   7.967  10.409
   41DG      C6 1286   6.021   7.842  10.464
   41DG      O6 1287   5.956   7.756  10.523
   41DG      N1 1288   6.161   7.832  10.465
   41DG      H1 1289   6.202   7.766  10.528
   41DG      C2 1290   6.242   7.929  10.426
   41DG      N2 1291   6.365   7.896  10.433
   41DG     H21 1292   6.384   7.797  10.447
   41DG     H22 1293   6.427   7.955  10.380
   41DG      N3 1294   6.206   8.029  10.346
   41DG      C4 1295   6.068   8.043  10.343
   41DG     C3' 1296   6.051   8.432  10.054
   41DG     H3' 1297   5.990   8.515  10.018
   41DG     C2' 1298   5.958   8.329  10.113
   41DG    H2'1 1299   5.886   8.370  10.184
   41DG    H2'2 1300   5.914   8.267  10.034
   41DG     O3' 1301   6.114   8.360   9.946
   42DT       P 1302   6.202   8.450   9.845
   42DT     O1P 1303   6.223   8.589   9.902
   42DT     O2P 1304   6.141   8.430   9.708
   42DT     O5' 1305   6.340   8.379   9.840
   42DT     C5' 1306   6.445   8.380   9.944
   42DT    H5'1 1307   6.402   8.431  10.031
   42DT    H5'2 1308   6.535   8.430   9.911
   42DT     C4' 1309   6.500   8.235   9.975
   42DT     H4' 1310   6.580   8.236  10.050
   42DT     O4' 1311   6.389   8.167  10.033
   42DT     C1' 1312   6.406   8.031  10.001
   42DT     H1' 1313   6.486   7.993  10.065
   42DT      N1 1314   6.278   7.958  10.023
   42DT      C6 1315   6.160   7.997   9.971
   42DT      H6 1316   6.162   8.078   9.899
   42DT      C5 1317   6.040   7.938  10.005
   42DT      C7 1318   5.913   7.987   9.942
   42DT     H71 1319   5.876   7.932   9.856
   42DT     H72 1320   5.835   8.005  10.017
   42DT     H73 1321   5.927   8.080   9.888
   42DT      C4 1322   6.045   7.822  10.092
   42DT      O4 1323   5.951   7.761  10.143
   42DT      N3 1324   6.173   7.770  10.118
   42DT      H3 1325   6.178   7.682  10.168
   42DT      C2 1326   6.288   7.836  10.091
   42DT      O2 1327   6.392   7.784  10.126
   42DT     C3' 1328   6.540   8.147   9.855
   42DT     H3' 1329   6.523   8.203   9.763
   42DT     C2' 1330   6.451   8.029   9.851
   42DT    H2'1 1331   6.370   8.031   9.778
   42DT    H2'2 1332   6.512   7.941   9.828
   42DT     O3' 1333   6.676   8.101   9.854
   43DA       P 1334   6.791   8.192   9.801
   43DA     O1P 1335   6.838   8.271   9.915
   43DA     O2P 1336   6.743   8.262   9.684
   43DA     O5' 1337   6.890   8.067   9.759
   43DA     C5' 1338   6.883   8.002   9.635
   43DA    H5'1 1339   6.978   8.025   9.586
   43DA    H5'2 1340   6.801   8.048   9.581
   43DA     C4' 1341   6.868   7.847   9.641
   43DA     H4' 1342   6.946   7.797   9.699
   43DA     O4' 1343   6.738   7.819   9.691
   43DA     C1' 1344   6.671   7.725   9.618
   43DA     H1' 1345   6.711   7.633   9.661
   43DA      N9 1346   6.521   7.735   9.622
   43DA      C8 1347   6.430   7.809   9.548
   43DA      H8 1348   6.457   7.872   9.463
   43DA      N7 1349   6.308   7.794   9.586
   43DA      C5 1350   6.319   7.703   9.695
   43DA      C6 1351   6.220   7.655   9.785
   43DA      N6 1352   6.092   7.686   9.791
   43DA     H61 1353   6.041   7.620   9.847
   43DA     H62 1354   6.052   7.748   9.722
   43DA      N1 1355   6.251   7.561   9.870
   43DA      C2 1356   6.373   7.520   9.871
   43DA      H2 1357   6.400   7.445   9.945
   43DA      N3 1358   6.481   7.566   9.805
   43DA      C4 1359   6.446   7.664   9.717
   43DA     C3' 1360   6.869   7.785   9.500
   43DA     H3' 1361   6.903   7.857   9.425
   43DA     C2' 1362   6.722   7.748   9.478
   43DA    H2'1 1363   6.672   7.828   9.425
   43DA    H2'2 1364   6.716   7.659   9.415
   43DA     O3' 1365   6.954   7.677   9.502
   44DC       P 1366   7.001   7.589   9.376
   44DC     O1P 1367   7.143   7.556   9.402
   44DC     O2P 1368   6.954   7.669   9.257
   44DC     O5' 1369   6.912   7.458   9.373
   44DC     C5' 1370   6.910   7.370   9.485
   44DC    H5'1 1371   6.913   7.431   9.575
   44DC    H5'2 1372   6.995   7.305   9.463
   44DC     C4' 1373   6.770   7.291   9.486
   44DC     H4' 1374   6.775   7.214   9.563
   44DC     O4' 1375   6.663   7.377   9.519
   44DC     C1' 1376   6.545   7.321   9.467
   44DC     H1' 1377   6.515   7.228   9.516
   44DC      N1 1378   6.423   7.406   9.483
   44DC      C6 1379   6.397   7.511   9.395
   44DC      H6 1380   6.484   7.553   9.345
   44DC      C5 1381   6.271   7.561   9.382
   44DC      H5 1382   6.253   7.639   9.310
   44DC      C4 1383   6.169   7.512   9.466
   44DC      N4 1384   6.053   7.564   9.445
   44DC     H41 1385   5.978   7.533   9.505
   44DC     H42 1386   6.057   7.650   9.393
   44DC      N3 1387   6.190   7.419   9.553
   44DC      C2 1388   6.311   7.354   9.556
   44DC      O2 1389   6.314   7.262   9.634
   44DC     C3' 1390   6.722   7.232   9.349
   44DC     H3' 1391   6.788   7.256   9.266
   44DC     C2' 1392   6.577   7.280   9.327
   44DC    H2'1 1393   6.583   7.368   9.262
   44DC    H2'2 1394   6.503   7.206   9.296
   44DC     O3' 1395   6.735   7.095   9.367
   45DA       P 1396   6.688   6.990   9.258
   45DA     O1P 1397   6.768   6.871   9.289
   45DA     O2P 1398   6.706   7.052   9.130
   45DA     O5' 1399   6.532   6.959   9.292
   45DA     C5' 1400   6.486   6.912   9.419
   45DA    H5'1 1401   6.503   6.987   9.497
   45DA    H5'2 1402   6.541   6.822   9.447
   45DA     C4' 1403   6.334   6.881   9.429
   45DA     H4' 1404   6.314   6.821   9.518
   45DA     O4' 1405   6.253   7.000   9.428
   45DA     C1' 1406   6.148   6.975   9.335
   45DA     H1' 1407   6.073   6.913   9.384
   45DA      N9 1408   6.082   7.102   9.292
   45DA      C8 1409   6.134   7.192   9.201
   45DA      H8 1410   6.229   7.180   9.150
   45DA      N7 1411   6.057   7.297   9.184
   45DA      C5 1412   5.946   7.266   9.262
   45DA      C6 1413   5.818   7.326   9.285
   45DA      N6 1414   5.776   7.440   9.237
   45DA     H61 1415   5.676   7.451   9.246
   45DA     H62 1416   5.826   7.490   9.165
   45DA      N1 1417   5.729   7.267   9.363
   45DA      C2 1418   5.760   7.148   9.416
   45DA      H2 1419   5.677   7.098   9.465
   45DA      N3 1420   5.870   7.074   9.401
   45DA      C4 1421   5.957   7.143   9.320
   45DA     C3' 1422   6.301   6.799   9.306
   45DA     H3' 1423   6.386   6.755   9.253
   45DA     C2' 1424   6.218   6.896   9.225
   45DA    H2'1 1425   6.282   6.967   9.173
   45DA    H2'2 1426   6.155   6.840   9.156
   45DA     O3' 1427   6.211   6.687   9.336
   46DA       P 1428   6.242   6.534   9.287
   46DA     O1P 1429   6.321   6.473   9.396
   46DA     O2P 1430   6.288   6.529   9.151
   46DA     O5' 1431   6.092   6.470   9.289
   46DA     C5' 1432   6.028   6.444   9.418
   46DA    H5'1 1433   6.051   6.520   9.492
   46DA    H5'2 1434   6.055   6.350   9.467
   46DA     C4' 1435   5.880   6.452   9.399
   46DA     H4' 1436   5.830   6.422   9.491
   46DA     O4' 1437   5.838   6.585   9.380
   46DA     C1' 1438   5.745   6.603   9.278
   46DA     H1' 1439   5.644   6.594   9.317
   46DA      N9 1440   5.775   6.743   9.219
   46DA      C8 1441   5.884   6.779   9.147
   46DA      H8 1442   5.973   6.717   9.140
   46DA      N7 1443   5.875   6.901   9.089
   46DA      C5 1444   5.745   6.940   9.119
   46DA      C6 1445   5.660   7.052   9.085
   46DA      N6 1446   5.701   7.140   8.993
   46DA     H61 1447   5.628   7.196   8.952
   46DA     H62 1448   5.793   7.129   8.951
   46DA      N1 1449   5.534   7.057   9.135
   46DA      C2 1450   5.494   6.960   9.208
   46DA      H2 1451   5.393   6.954   9.247
   46DA      N3 1452   5.562   6.854   9.256
   46DA      C4 1453   5.690   6.847   9.203
   46DA     C3' 1454   5.833   6.372   9.274
   46DA     H3' 1455   5.909   6.319   9.216
   46DA     C2' 1456   5.773   6.485   9.187
   46DA    H2'1 1457   5.854   6.512   9.119
   46DA    H2'2 1458   5.683   6.447   9.138
   46DA     O3' 1459   5.748   6.268   9.328
   47DT       P 1460   5.667   6.172   9.237
   47DT     O1P 1461   5.613   6.056   9.312
   47DT     O2P 1462   5.745   6.148   9.111
   47DT     O5' 1463   5.542   6.265   9.195
   47DT     C5' 1464   5.447   6.305   9.290
   47DT    H5'1 1465   5.489   6.370   9.366
   47DT    H5'2 1466   5.397   6.222   9.341
   47DT     C4' 1467   5.335   6.387   9.224
   47DT     H4' 1468   5.260   6.399   9.302
   47DT     O4' 1469   5.382   6.515   9.179
   47DT     C1' 1470   5.331   6.545   9.052
   47DT     H1' 1471   5.233   6.588   9.074
   47DT      N1 1472   5.423   6.636   8.981
   47DT      C6 1473   5.549   6.597   8.935
   47DT      H6 1474   5.595   6.501   8.951
   47DT      C5 1475   5.620   6.680   8.859
   47DT      C7 1476   5.759   6.626   8.813
   47DT     H71 1477   5.733   6.526   8.777
   47DT     H72 1478   5.793   6.691   8.732
   47DT     H73 1479   5.833   6.636   8.892
   47DT      C4 1480   5.571   6.816   8.832
   47DT      O4 1481   5.639   6.904   8.786
   47DT      N3 1482   5.448   6.845   8.877
   47DT      H3 1483   5.395   6.921   8.837
   47DT      C2 1484   5.372   6.765   8.954
   47DT      O2 1485   5.257   6.806   8.983
   47DT     C3' 1486   5.277   6.325   9.102
   47DT     H3' 1487   5.317   6.225   9.084
   47DT     C2' 1488   5.331   6.405   8.987
   47DT    H2'1 1489   5.432   6.367   8.971
   47DT    H2'2 1490   5.258   6.400   8.906
   47DT     O3' 1491   5.126   6.312   9.104
   48DG       P 1492   5.034   6.256   8.985
   48DG     O1P 1493   4.909   6.211   9.043
   48DG     O2P 1494   5.116   6.168   8.900
   48DG     O5' 1495   5.001   6.379   8.911
   48DG     C5' 1496   4.911   6.480   8.964
   48DG    H5'1 1497   4.967   6.535   9.040
   48DG    H5'2 1498   4.823   6.435   9.008
   48DG     C4' 1499   4.864   6.572   8.857
   48DG     H4' 1500   4.794   6.640   8.906
   48DG     O4' 1501   4.977   6.649   8.814
   48DG     C1' 1502   4.971   6.670   8.676
   48DG     H1' 1503   4.898   6.748   8.652
   48DG      N9 1504   5.104   6.713   8.631
   48DG      C8 1505   5.223   6.644   8.638
   48DG      H8 1506   5.227   6.549   8.690
   48DG      N7 1507   5.326   6.701   8.579
   48DG      C5 1508   5.268   6.813   8.522
   48DG      C6 1509   5.328   6.915   8.442
   48DG      O6 1510   5.441   6.926   8.402
   48DG      N1 1511   5.244   7.011   8.401
   48DG      H1 1512   5.289   7.085   8.348
   48DG      C2 1513   5.109   7.001   8.419
   48DG      N2 1514   5.041   7.095   8.360
   48DG     H21 1515   5.093   7.153   8.296
   48DG     H22 1516   4.945   7.105   8.389
   48DG      N3 1517   5.046   6.909   8.499
   48DG      C4 1518   5.133   6.821   8.549
   48DG     C3' 1519   4.806   6.505   8.728
   48DG     H3' 1520   4.778   6.400   8.740
   48DG     C2' 1521   4.921   6.529   8.630
   48DG    H2'1 1522   4.998   6.454   8.646
   48DG    H2'2 1523   4.885   6.540   8.527
   48DG     O3' 1524   4.707   6.592   8.675
   49DT       P 1525   4.606   6.552   8.562
   49DT     O1P 1526   4.494   6.504   8.640
   49DT     O2P 1527   4.668   6.470   8.462
   49DT     O5' 1528   4.586   6.689   8.499
   49DT     C5' 1529   4.691   6.771   8.446
   49DT    H5'1 1530   4.775   6.716   8.402
   49DT    H5'2 1531   4.736   6.828   8.527
   49DT     C4' 1532   4.652   6.868   8.328
   49DT     H4' 1533   4.589   6.946   8.370
   49DT     O4' 1534   4.777   6.917   8.275
   49DT     C1' 1535   4.795   6.866   8.144
   49DT     H1' 1536   4.755   6.944   8.079
   49DT      N1 1537   4.935   6.830   8.120
   49DT      C6 1538   4.993   6.717   8.176
   49DT      H6 1539   4.937   6.641   8.227
   49DT      C5 1540   5.126   6.691   8.171
   49DT      C7 1541   5.194   6.567   8.232
   49DT     H71 1542   5.112   6.508   8.273
   49DT     H72 1543   5.241   6.512   8.151
   49DT     H73 1544   5.265   6.597   8.309
   49DT      C4 1545   5.212   6.791   8.104
   49DT      O4 1546   5.334   6.780   8.091
   49DT      N3 1547   5.150   6.902   8.050
   49DT      H3 1548   5.204   6.973   8.003
   49DT      C2 1549   5.011   6.923   8.053
   49DT      O2 1550   4.966   7.029   8.014
   49DT     C3' 1551   4.570   6.806   8.215
   49DT     H3' 1552   4.495   6.734   8.248
   49DT     C2' 1553   4.690   6.749   8.130
   49DT    H2'1 1554   4.727   6.661   8.183
   49DT    H2'2 1555   4.664   6.724   8.027
   49DT     O3' 1556   4.497   6.907   8.152
   50DA       P 1557   4.405   6.885   8.022
   50DA     O1P 1558   4.307   6.992   8.005
   50DA     O2P 1559   4.354   6.745   8.023
   50DA     O5' 1560   4.507   6.892   7.900
   50DA     C5' 1561   4.559   7.013   7.864
   50DA    H5'1 1562   4.606   7.053   7.954
   50DA    H5'2 1563   4.485   7.086   7.832
   50DA     C4' 1564   4.672   7.007   7.757
   50DA     H4' 1565   4.680   7.108   7.715
   50DA     O4' 1566   4.794   6.959   7.808
   50DA     C1' 1567   4.843   6.870   7.712
   50DA     H1' 1568   4.883   6.927   7.628
   50DA      N9 1569   4.954   6.782   7.766
   50DA      C8 1570   4.949   6.650   7.812
   50DA      H8 1571   4.855   6.613   7.852
   50DA      N7 1572   5.067   6.600   7.835
   50DA      C5 1573   5.158   6.701   7.787
   50DA      C6 1574   5.300   6.713   7.773
   50DA      N6 1575   5.396   6.629   7.812
   50DA     H61 1576   5.490   6.664   7.817
   50DA     H62 1577   5.371   6.564   7.885
   50DA      N1 1578   5.355   6.817   7.720
   50DA      C2 1579   5.280   6.919   7.692
   50DA      H2 1580   5.325   7.014   7.666
   50DA      N3 1581   5.145   6.931   7.701
   50DA      C4 1582   5.089   6.812   7.750
   50DA     C3' 1583   4.630   6.915   7.644
   50DA     H3' 1584   4.524   6.893   7.648
   50DA     C2' 1585   4.725   6.794   7.655
   50DA    H2'1 1586   4.695   6.725   7.734
   50DA    H2'2 1587   4.742   6.752   7.556
   50DA     O3' 1588   4.667   6.974   7.528
   51DT       P 1589   4.568   6.980   7.401
   51DT     O1P 1590   4.437   7.034   7.441
   51DT     O2P 1591   4.574   6.857   7.321
   51DT     O5' 1592   4.643   7.094   7.320
   51DT     C5' 1593   4.686   7.216   7.382
   51DT    H5'1 1594   4.664   7.213   7.489
   51DT    H5'2 1595   4.617   7.289   7.340
   51DT     C4' 1596   4.842   7.258   7.369
   51DT     H4' 1597   4.860   7.354   7.416
   51DT     O4' 1598   4.920   7.155   7.424
   51DT     C1' 1599   5.039   7.136   7.346
   51DT     H1' 1600   5.116   7.207   7.374
   51DT      N1 1601   5.080   6.995   7.354
   51DT      C6 1602   4.986   6.893   7.341
   51DT      H6 1603   4.883   6.919   7.323
   51DT      C5 1604   5.027   6.762   7.353
   51DT      C7 1605   4.921   6.654   7.350
   51DT     H71 1606   4.833   6.694   7.299
   51DT     H72 1607   4.968   6.576   7.290
   51DT     H73 1608   4.898   6.623   7.452
   51DT      C4 1609   5.165   6.730   7.387
   51DT      O4 1610   5.213   6.625   7.425
   51DT      N3 1611   5.247   6.838   7.385
   51DT      H3 1612   5.342   6.815   7.410
   51DT      C2 1613   5.218   6.969   7.371
   51DT      O2 1614   5.301   7.057   7.369
   51DT     C3' 1615   4.885   7.276   7.222
   51DT     H3' 1616   4.801   7.246   7.159
   51DT     C2' 1617   4.992   7.174   7.204
   51DT    H2'1 1618   4.935   7.096   7.154
   51DT    H2'2 1619   5.070   7.217   7.142
   51DT     O3' 1620   4.923   7.408   7.194
   52DA       P 1621   4.924   7.462   7.035
   52DA     O1P 1622   4.876   7.605   7.039
   52DA     O2P 1623   4.863   7.367   6.940
   52DA     O5' 1624   5.080   7.463   7.001
   52DA     C5' 1625   5.175   7.552   7.052
   52DA    H5'1 1626   5.176   7.540   7.160
   52DA    H5'2 1627   5.150   7.654   7.022
   52DA     C4' 1628   5.317   7.518   7.000
   52DA     H4' 1629   5.386   7.581   7.057
   52DA     O4' 1630   5.344   7.382   7.031
   52DA     C1' 1631   5.352   7.302   6.913
   52DA     H1' 1632   5.458   7.281   6.905
   52DA      N9 1633   5.268   7.174   6.925
   52DA      C8 1634   5.132   7.164   6.911
   52DA      H8 1635   5.071   7.251   6.891
   52DA      N7 1636   5.086   7.042   6.931
   52DA      C5 1637   5.199   6.969   6.969
   52DA      C6 1638   5.216   6.837   7.015
   52DA      N6 1639   5.121   6.747   7.028
   52DA     H61 1640   5.145   6.654   7.058
   52DA     H62 1641   5.026   6.771   7.002
   52DA      N1 1642   5.336   6.792   7.051
   52DA      C2 1643   5.437   6.881   7.043
   52DA      H2 1644   5.538   6.850   7.065
   52DA      N3 1645   5.436   7.007   6.998
   52DA      C4 1646   5.311   7.049   6.965
   52DA     C3' 1647   5.330   7.532   6.849
   52DA     H3' 1648   5.256   7.604   6.812
   52DA     C2' 1649   5.303   7.392   6.801
   52DA    H2'1 1650   5.197   7.378   6.780
   52DA    H2'2 1651   5.368   7.361   6.719
   52DA     O3' 1652   5.466   7.574   6.812
   53DT       P 1653   5.526   7.586   6.661
   53DT     O1P 1654   5.625   7.695   6.664
   53DT     O2P 1655   5.416   7.593   6.560
   53DT     O5' 1656   5.599   7.458   6.636
   53DT     C5' 1657   5.702   7.394   6.724
   53DT    H5'1 1658   5.658   7.420   6.820
   53DT    H5'2 1659   5.799   7.438   6.703
   53DT     C4' 1660   5.705   7.239   6.719
   53DT     H4' 1661   5.764   7.201   6.802
   53DT     O4' 1662   5.578   7.187   6.724
   53DT     C1' 1663   5.602   7.057   6.683
   53DT     H1' 1664   5.664   6.999   6.751
   53DT      N1 1665   5.475   6.980   6.658
   53DT      C6 1666   5.364   7.049   6.617
   53DT      H6 1667   5.371   7.155   6.596
   53DT      C5 1668   5.245   6.986   6.603
   53DT      C7 1669   5.131   7.056   6.541
   53DT     H71 1670   5.111   6.986   6.460
   53DT     H72 1671   5.048   7.067   6.612
   53DT     H73 1672   5.152   7.156   6.505
   53DT      C4 1673   5.237   6.842   6.640
   53DT      O4 1674   5.137   6.771   6.639
   53DT      N3 1675   5.349   6.782   6.681
   53DT      H3 1676   5.335   6.692   6.725
   53DT      C2 1677   5.473   6.841   6.676
   53DT      O2 1678   5.574   6.771   6.688
   53DT     C3' 1679   5.747   7.205   6.572
   53DT     H3' 1680   5.703   7.269   6.495
   53DT     C2' 1681   5.689   7.065   6.564
   53DT    H2'1 1682   5.631   7.064   6.472
   53DT    H2'2 1683   5.761   6.983   6.563
   53DT     O3' 1684   5.885   7.204   6.556
   54DA       P 1685   5.957   7.207   6.411
   54DA     O1P 1686   6.099   7.234   6.446
   54DA     O2P 1687   5.889   7.298   6.312
   54DA     O5' 1688   5.935   7.053   6.357
   54DA     C5' 1689   6.023   6.956   6.404
   54DA    H5'1 1690   6.053   6.971   6.507
   54DA    H5'2 1691   6.115   6.973   6.348
   54DA     C4' 1692   5.974   6.811   6.377
   54DA     H4' 1693   6.038   6.739   6.427
   54DA     O4' 1694   5.838   6.786   6.412
   54DA     C1' 1695   5.765   6.740   6.298
   54DA     H1' 1696   5.796   6.636   6.286
   54DA      N9 1697   5.618   6.755   6.308
   54DA      C8 1698   5.531   6.850   6.258
   54DA      H8 1699   5.552   6.940   6.203
   54DA      N7 1700   5.405   6.820   6.281
   54DA      C5 1701   5.412   6.692   6.347
   54DA      C6 1702   5.324   6.593   6.398
   54DA      N6 1703   5.195   6.595   6.395
   54DA     H61 1704   5.132   6.536   6.447
   54DA     H62 1705   5.164   6.673   6.339
   54DA      N1 1706   5.365   6.487   6.469
   54DA      C2 1707   5.499   6.480   6.489
   54DA      H2 1708   5.530   6.391   6.541
   54DA      N3 1709   5.594   6.567   6.453
   54DA      C4 1710   5.540   6.668   6.377
   54DA     C3' 1711   5.982   6.790   6.221
   54DA     H3' 1712   6.042   6.862   6.166
   54DA     C2' 1713   5.833   6.811   6.182
   54DA    H2'1 1714   5.808   6.916   6.167
   54DA    H2'2 1715   5.816   6.769   6.083
   54DA     O3' 1716   6.019   6.658   6.192
   55DC       P 1717   6.179   6.618   6.191
   55DC     O1P 1718   6.228   6.614   6.326
   55DC     O2P 1719   6.246   6.695   6.090
   55DC     O5' 1720   6.169   6.470   6.137
   55DC     C5' 1721   6.133   6.362   6.222
   55DC    H5'1 1722   6.133   6.398   6.324
   55DC    H5'2 1723   6.211   6.286   6.228
   55DC     C4' 1724   5.998   6.304   6.190
   55DC     H4' 1725   5.986   6.216   6.254
   55DC     O4' 1726   5.880   6.381   6.205
   55DC     C1' 1727   5.783   6.301   6.138
   55DC     H1' 1728   5.768   6.218   6.207
   55DC      N1 1729   5.659   6.383   6.116
   55DC      C6 1730   5.663   6.501   6.045
   55DC      H6 1731   5.758   6.547   6.019
   55DC      C5 1732   5.554   6.576   6.023
   55DC      H5 1733   5.561   6.671   5.972
   55DC      C4 1734   5.435   6.514   6.061
   55DC      N4 1735   5.323   6.576   6.039
   55DC     H41 1736   5.238   6.530   6.067
   55DC     H42 1737   5.317   6.671   6.006
   55DC      N3 1738   5.421   6.402   6.120
   55DC      C2 1739   5.535   6.330   6.150
   55DC      O2 1740   5.523   6.223   6.210
   55DC     C3' 1741   5.988   6.255   6.042
   55DC     H3' 1742   6.027   6.330   5.973
   55DC     C2' 1743   5.839   6.243   6.008
   55DC    H2'1 1744   5.803   6.308   5.928
   55DC    H2'2 1745   5.805   6.139   6.004
   55DC     O3' 1746   6.056   6.134   6.030
   56DG       P 1747   6.082   6.073   5.885
   56DG     O1P 1748   6.173   5.959   5.905
   56DG     O2P 1749   6.120   6.178   5.787
   56DG     O5' 1750   5.945   6.012   5.833
   56DG     C5' 1751   5.897   5.889   5.893
   56DG    H5'1 1752   5.901   5.898   6.001
   56DG    H5'2 1753   5.964   5.810   5.860
   56DG     C4' 1754   5.759   5.864   5.848
   56DG     H4' 1755   5.726   5.762   5.866
   56DG     O4' 1756   5.660   5.957   5.893
   56DG     C1' 1757   5.581   5.990   5.778
   56DG     H1' 1758   5.517   5.903   5.768
   56DG      N9 1759   5.512   6.123   5.800
   56DG      C8 1760   5.554   6.251   5.773
   56DG      H8 1761   5.659   6.266   5.754
   56DG      N7 1762   5.462   6.343   5.772
   56DG      C5 1763   5.352   6.277   5.810
   56DG      C6 1764   5.214   6.315   5.833
   56DG      O6 1765   5.156   6.425   5.829
   56DG      N1 1766   5.130   6.208   5.854
   56DG      H1 1767   5.032   6.231   5.860
   56DG      C2 1768   5.170   6.079   5.864
   56DG      N2 1769   5.072   5.993   5.886
   56DG     H21 1770   4.977   6.025   5.895
   56DG     H22 1771   5.091   5.894   5.885
   56DG      N3 1772   5.295   6.034   5.850
   56DG      C4 1773   5.381   6.138   5.813
   56DG     C3' 1774   5.755   5.867   5.697
   56DG     H3' 1775   5.853   5.860   5.648
   56DG     C2' 1776   5.676   5.995   5.660
   56DG    H2'1 1777   5.727   6.092   5.658
   56DG    H2'2 1778   5.613   5.983   5.571
   56DG     O3' 1779   5.672   5.757   5.641
   57DC       P 1780   5.735   5.623   5.609
   57DC     O1P 1781   5.802   5.571   5.732
   57DC     O2P 1782   5.817   5.635   5.491
   57DC     O5' 1783   5.603   5.544   5.562
   57DC     C5' 1784   5.528   5.469   5.655
   57DC    H5'1 1785   5.541   5.499   5.758
   57DC    H5'2 1786   5.553   5.363   5.652
   57DC     C4' 1787   5.377   5.475   5.633
   57DC     H4' 1788   5.341   5.393   5.697
   57DC     O4' 1789   5.340   5.606   5.664
   57DC     C1' 1790   5.242   5.656   5.563
   57DC     H1' 1791   5.145   5.623   5.599
   57DC      N1 1792   5.255   5.799   5.554
   57DC      C6 1793   5.364   5.863   5.502
   57DC      H6 1794   5.444   5.796   5.476
   57DC      C5 1795   5.365   5.997   5.482
   57DC      H5 1796   5.447   6.055   5.441
   57DC      C4 1797   5.251   6.071   5.512
   57DC      N4 1798   5.249   6.203   5.507
   57DC     H41 1799   5.163   6.254   5.518
   57DC     H42 1800   5.331   6.259   5.486
   57DC      N3 1801   5.141   6.007   5.558
   57DC      C2 1802   5.149   5.878   5.586
   57DC      O2 1803   5.043   5.826   5.618
   57DC     C3' 1804   5.319   5.440   5.491
   57DC     H3' 1805   5.393   5.391   5.426
   57DC     C2' 1806   5.281   5.577   5.438
   57DC    H2'1 1807   5.372   5.613   5.389
   57DC    H2'2 1808   5.191   5.564   5.379
   57DC     O3' 1809   5.200   5.364   5.521
   58DA       P 1810   5.151   5.234   5.435
   58DA     O1P 1811   5.047   5.157   5.504
   58DA     O2P 1812   5.266   5.156   5.388
   58DA     O5' 1813   5.082   5.303   5.305
   58DA     C5' 1814   4.955   5.370   5.315
   58DA    H5'1 1815   4.951   5.421   5.411
   58DA    H5'2 1816   4.882   5.288   5.320
   58DA     C4' 1817   4.919   5.466   5.212
   58DA     H4' 1818   4.811   5.478   5.198
   58DA     O4' 1819   4.991   5.586   5.245
   58DA     C1' 1820   5.026   5.655   5.123
   58DA     H1' 1821   4.936   5.692   5.075
   58DA      N9 1822   5.111   5.775   5.153
   58DA      C8 1823   5.247   5.784   5.145
   58DA      H8 1824   5.314   5.701   5.125
   58DA      N7 1825   5.295   5.906   5.173
   58DA      C5 1826   5.180   5.980   5.181
   58DA      C6 1827   5.155   6.120   5.188
   58DA      N6 1828   5.246   6.212   5.198
   58DA     H61 1829   5.216   6.309   5.204
   58DA     H62 1830   5.344   6.200   5.215
   58DA      N1 1831   5.034   6.167   5.196
   58DA      C2 1832   4.935   6.080   5.184
   58DA      H2 1833   4.837   6.122   5.202
   58DA      N3 1834   4.945   5.948   5.176
   58DA      C4 1835   5.071   5.905   5.169
   58DA     C3' 1836   4.985   5.436   5.074
   58DA     H3' 1837   5.029   5.337   5.065
   58DA     C2' 1838   5.087   5.543   5.048
   58DA    H2'1 1839   5.188   5.516   5.082
   58DA    H2'2 1840   5.104   5.566   4.943
   58DA     O3' 1841   4.879   5.454   4.980
   59DC       P 1842   4.762   5.344   4.936
   59DC     O1P 1843   4.721   5.274   5.061
   59DC     O2P 1844   4.813   5.259   4.823
   59DC     O5' 1845   4.639   5.431   4.885
   59DC     C5' 1846   4.542   5.484   4.978
   59DC    H5'1 1847   4.590   5.493   5.075
   59DC    H5'2 1848   4.455   5.420   4.993
   59DC     C4' 1849   4.491   5.626   4.940
   59DC     H4' 1850   4.411   5.666   5.003
   59DC     O4' 1851   4.600   5.720   4.969
   59DC     C1' 1852   4.634   5.791   4.851
   59DC     H1' 1853   4.567   5.876   4.844
   59DC      N1 1854   4.778   5.830   4.835
   59DC      C6 1855   4.877   5.743   4.792
   59DC      H6 1856   4.850   5.645   4.758
   59DC      C5 1857   5.010   5.790   4.785
   59DC      H5 1858   5.086   5.725   4.746
   59DC      C4 1859   5.034   5.917   4.832
   59DC      N4 1860   5.156   5.962   4.831
   59DC     H41 1861   5.165   6.056   4.868
   59DC     H42 1862   5.231   5.924   4.776
   59DC      N3 1863   4.940   6.000   4.876
   59DC      C2 1864   4.811   5.954   4.881
   59DC      O2 1865   4.727   6.022   4.940
   59DC     C3' 1866   4.455   5.646   4.792
   59DC     H3' 1867   4.445   5.554   4.735
   59DC     C2' 1868   4.586   5.704   4.735
   59DC    H2'1 1869   4.655   5.627   4.700
   59DC    H2'2 1870   4.574   5.766   4.646
   59DC     O3' 1871   4.341   5.735   4.784
   60DA       P 1872   4.291   5.807   4.651
   60DA     O1P 1873   4.148   5.836   4.668
   60DA     O2P 1874   4.334   5.734   4.534
   60DA     O5' 1875   4.375   5.945   4.648
   60DA     C5' 1876   4.355   6.054   4.727
   60DA    H5'1 1877   4.401   6.041   4.824
   60DA    H5'2 1878   4.252   6.075   4.756
   60DA     C4' 1879   4.425   6.181   4.677
   60DA     H4' 1880   4.412   6.273   4.734
   60DA     O4' 1881   4.562   6.162   4.681
   60DA     C1' 1882   4.622   6.234   4.579
   60DA     H1' 1883   4.628   6.340   4.606
   60DA      N9 1884   4.757   6.176   4.560
   60DA      C8 1885   4.793   6.044   4.565
   60DA      H8 1886   4.723   5.961   4.575
   60DA      N7 1887   4.922   6.023   4.563
   60DA      C5 1888   4.976   6.150   4.550
   60DA      C6 1889   5.109   6.207   4.539
   60DA      N6 1890   5.218   6.136   4.529
   60DA     H61 1891   5.306   6.186   4.526
   60DA     H62 1892   5.214   6.035   4.534
   60DA      N1 1893   5.134   6.334   4.520
   60DA      C2 1894   5.030   6.417   4.531
   60DA      H2 1895   5.041   6.520   4.501
   60DA      N3 1896   4.901   6.383   4.546
   60DA      C4 1897   4.879   6.247   4.552
   60DA     C3' 1898   4.395   6.216   4.528
   60DA     H3' 1899   4.322   6.146   4.488
   60DA     C2' 1900   4.536   6.209   4.463
   60DA    H2'1 1901   4.546   6.106   4.428
   60DA    H2'2 1902   4.548   6.279   4.380
   60DA     O3' 1903   4.341   6.345   4.530
   61DT       P 1904   4.293   6.405   4.390
   61DT     O1P 1905   4.197   6.516   4.413
   61DT     O2P 1906   4.258   6.288   4.303
   61DT     O5' 1907   4.417   6.470   4.320
   61DT     C5' 1908   4.472   6.597   4.350
   61DT    H5'1 1909   4.491   6.612   4.456
   61DT    H5'2 1910   4.399   6.672   4.318
   61DT     C4' 1911   4.596   6.622   4.276
   61DT     H4' 1912   4.634   6.724   4.288
   61DT     O4' 1913   4.704   6.532   4.299
   61DT     C1' 1914   4.793   6.530   4.189
   61DT     H1' 1915   4.861   6.614   4.210
   61DT      N1 1916   4.868   6.397   4.183
   61DT      C6 1917   4.810   6.279   4.143
   61DT      H6 1918   4.705   6.284   4.121
   61DT      C5 1919   4.873   6.161   4.134
   61DT      C7 1920   4.792   6.048   4.076
   61DT     H71 1921   4.848   6.003   3.994
   61DT     H72 1922   4.781   5.964   4.145
   61DT     H73 1923   4.697   6.075   4.028
   61DT      C4 1924   5.015   6.159   4.168
   61DT      O4 1925   5.095   6.058   4.167
   61DT      N3 1926   5.068   6.281   4.200
   61DT      H3 1927   5.169   6.289   4.203
   61DT      C2 1928   5.001   6.402   4.207
   61DT      O2 1929   5.056   6.503   4.235
   61DT     C3' 1930   4.570   6.626   4.126
   61DT     H3' 1931   4.485   6.562   4.099
   61DT     C2' 1932   4.706   6.572   4.068
   61DT    H2'1 1933   4.682   6.483   4.011
   61DT    H2'2 1934   4.760   6.646   4.008
   61DT     O3' 1935   4.546   6.764   4.082
   62DG       P 1936   4.461   6.775   3.942
   62DG     O1P 1937   4.388   6.904   3.947
   62DG     O2P 1938   4.381   6.658   3.903
   62DG     O5' 1939   4.583   6.796   3.836
   62DG     C5' 1940   4.664   6.912   3.844
   62DG    H5'1 1941   4.691   6.926   3.949
   62DG    H5'2 1942   4.618   6.999   3.799
   62DG     C4' 1943   4.804   6.889   3.766
   62DG     H4' 1944   4.868   6.977   3.778
   62DG     O4' 1945   4.887   6.788   3.821
   62DG     C1' 1946   4.917   6.699   3.723
   62DG     H1' 1947   5.001   6.736   3.664
   62DG      N9 1948   4.952   6.564   3.775
   62DG      C8 1949   4.864   6.461   3.797
   62DG      H8 1950   4.759   6.481   3.780
   62DG      N7 1951   4.917   6.343   3.827
   62DG      C5 1952   5.054   6.375   3.819
   62DG      C6 1953   5.174   6.296   3.839
   62DG      O6 1954   5.184   6.180   3.866
   62DG      N1 1955   5.292   6.369   3.829
   62DG      H1 1956   5.374   6.315   3.851
   62DG      C2 1957   5.299   6.497   3.795
   62DG      N2 1958   5.412   6.559   3.794
   62DG     H21 1959   5.495   6.511   3.826
   62DG     H22 1960   5.423   6.657   3.774
   62DG      N3 1961   5.196   6.573   3.767
   62DG      C4 1962   5.077   6.510   3.788
   62DG     C3' 1963   4.782   6.847   3.620
   62DG     H3' 1964   4.679   6.862   3.586
   62DG     C2' 1965   4.798   6.698   3.626
   62DG    H2'1 1966   4.707   6.657   3.671
   62DG    H2'2 1967   4.819   6.637   3.538
   62DG     O3' 1968   4.873   6.902   3.535
   63DC       P 1969   4.843   7.025   3.434
   63DC     O1P 1970   4.776   7.126   3.518
   63DC     O2P 1971   4.770   6.973   3.310
   63DC     O5' 1972   4.986   7.066   3.390
   63DC     C5' 1973   5.074   7.120   3.493
   63DC    H5'1 1974   5.042   7.089   3.592
   63DC    H5'2 1975   5.072   7.229   3.485
   63DC     C4' 1976   5.216   7.061   3.472
   63DC     H4' 1977   5.284   7.116   3.537
   63DC     O4' 1978   5.223   6.921   3.524
   63DC     C1' 1979   5.284   6.844   3.426
   63DC     H1' 1980   5.392   6.855   3.441
   63DC      N1 1981   5.230   6.706   3.422
   63DC      C6 1982   5.095   6.680   3.397
   63DC      H6 1983   5.027   6.762   3.378
   63DC      C5 1984   5.048   6.552   3.400
   63DC      H5 1985   4.942   6.532   3.391
   63DC      C4 1986   5.142   6.451   3.428
   63DC      N4 1987   5.106   6.327   3.447
   63DC     H41 1988   5.181   6.269   3.483
   63DC     H42 1989   5.011   6.303   3.424
   63DC      N3 1990   5.269   6.477   3.467
   63DC      C2 1991   5.311   6.603   3.460
   63DC      O2 1992   5.430   6.614   3.478
   63DC     C3' 1993   5.252   7.067   3.329
   63DC     H3' 1994   5.188   7.123   3.261
   63DC     C2' 1995   5.243   6.917   3.299
   63DC    H2'1 1996   5.143   6.885   3.271
   63DC    H2'2 1997   5.326   6.896   3.231
   63DC     O3' 1998   5.384   7.113   3.326
   64DG3      P 1999   5.431   7.181   3.186
   64DG3    O1P 2000   5.518   7.296   3.223
   64DG3    O2P 2001   5.315   7.209   3.097
   64DG3    O5' 2002   5.517   7.066   3.119
   64DG3    C5' 2003   5.633   7.017   3.178
   64DG3   H5'1 2004   5.624   7.006   3.286
   64DG3   H5'2 2005   5.701   7.097   3.149
   64DG3    C4' 2006   5.687   6.887   3.118
   64DG3    H4' 2007   5.779   6.865   3.171
   64DG3    O4' 2008   5.584   6.792   3.150
   64DG3    C1' 2009   5.563   6.715   3.035
   64DG3    H1' 2010   5.637   6.635   3.036
   64DG3     N9 2011   5.430   6.653   3.052
   64DG3     C8 2012   5.304   6.688   3.009
   64DG3     H8 2013   5.283   6.777   2.952
   64DG3     N7 2014   5.208   6.600   3.036
   64DG3     C5 2015   5.281   6.491   3.085
   64DG3     C6 2016   5.245   6.359   3.115
   64DG3     O6 2017   5.137   6.305   3.107
   64DG3     N1 2018   5.351   6.281   3.150
   64DG3     H1 2019   5.336   6.192   3.196
   64DG3     C2 2020   5.481   6.328   3.157
   64DG3     N2 2021   5.565   6.236   3.199
   64DG3    H21 2022   5.538   6.140   3.217
   64DG3    H22 2023   5.662   6.262   3.206
   64DG3     N3 2024   5.521   6.446   3.119
   64DG3     C4 2025   5.420   6.525   3.091
   64DG3    C3' 2026   5.697   6.891   2.962
   64DG3    H3' 2027   5.693   6.993   2.922
   64DG3    C2' 2028   5.576   6.808   2.911
   64DG3   H2'1 2029   5.480   6.859   2.910
   64DG3   H2'2 2030   5.594   6.760   2.815
   64DG3    O3' 2031   5.808   6.827   2.910
   64DG3    H3T 2032   5.885   6.882   2.924
   65SOL     OW 2033   6.314   7.402   8.998
   65SOL    HW1 2034   6.345   7.341   8.930
   65SOL    HW2 2035   6.229   7.367   9.024
   66SOL     OW 2036  13.053   8.473   0.765
   66SOL    HW1 2037  12.962   8.472   0.737
   66SOL    HW2 2038  13.049   8.499   0.857
   67SOL     OW 2039   4.777  14.165  11.025
   67SOL    HW1 2040   4.688  14.196  11.042
   67SOL    HW2 2041   4.827  14.194  11.101
   68SOL     OW 2042  14.462   1.956   4.540
   68SOL    HW1 2043  14.478   1.971   4.446
   68SOL    HW2 2044  14.440   2.043   4.574
   69SOL     OW 2045   2.488   0.521  11.073
   69SOL    HW1 2046   2.474   0.485  10.986
   69SOL    HW2 2047   2.425   0.476  11.129
   70SOL     OW 2048   4.654   1.018  12.550
   70SOL    HW1 2049   4.591   0.987  12.615
   70SOL    HW2 2050   4.729   1.048  12.601
   71SOL     OW 2051   5.229  14.284   8.344
   71SOL    HW1 2052   5.254  14.354   8.284
   71SOL    HW2 2053   5.140  14.306   8.371
   72SOL     OW 2054   4.397   5.148  12.552
   72SOL    HW1 2055   4.391   5.092  12.475
   72SOL    HW2 2056   4.457   5.102  12.610
   73SOL     OW 2057  10.264   7.818   1.745
   73SOL    HW1 2058  10.326   7.883   1.777
   73SOL    HW2 2059  10.186   7.830   1.799
   74SOL     OW 2060   7.170   3.007   5.966
   74SOL    HW1 2061   7.257   3.041   5.988
   74SOL    HW2 2062   7.175   2.988   5.872
   75SOL     OW 2063   5.398   2.532   3.588
   75SOL    HW1 2064   5.359   2.486   3.663
   75SOL    HW2 2065   5.440   2.463   3.536
   76SOL     OW 2066  13.303   1.409   3.014
   76SOL    HW1 2067  13.306   1.345   3.085
   76SOL    HW2 2068  13.229   1.381   2.959
   77SOL     OW 2069   4.248   5.179  10.204
   77SOL    HW1 2070   4.311   5.108  10.192
   77SOL    HW2 2071   4.166   5.144  10.169
   78SOL     OW 2072   4.841   2.212   7.552
   78SOL    HW1 2073   4.845   2.278   7.621
   78SOL    HW2 2074   4.932   2.186   7.537
   79SOL     OW 2075   4.358   1.478  14.128
   79SOL    HW1 2076   4.276   1.479  14.079
   79SOL    HW2 2077   4.333   1.457  14.218
   80SOL     OW 2078   4.263   5.625   2.881
   80SOL    HW1 2079   4.246   5.689   2.813
   80SOL    HW2 2080   4.186   5.569   2.882
   81SOL     OW 2081   7.435   8.230   7.656
   81SOL    HW1 2082   7.445   8.319   7.689
   81SOL    HW2 2083   7.459   8.174   7.730
   82SOL     OW 2084  11.028   7.262  10.690
   82SOL    HW1 2085  11.065   7.351  10.688
   82SOL    HW2 2086  11.044   7.228  10.602
   83SOL     OW 2087  12.593  13.252   0.437
   83SOL    HW1 2088  12.523  13.317   0.431
   83SOL    HW2 2089  12.659  13.282   0.375
   84SOL     OW 2090  11.174  10.427   9.660
   84SOL    HW1 2091  11.087  10.389   9.648
   84SOL    HW2 2092  11.160  10.497   9.724
   85SOL     OW 2093   4.029  12.474  11.016
   85SOL    HW1 2094   4.036  12.390  11.063
   85SOL    HW2 2095   4.112  12.482  10.968
   86SOL     OW 2096   3.199   9.094   4.703
   86SOL    HW1 2097   3.209   9.189   4.706
   86SOL    HW2 2098   3.270   9.064   4.647
   87SOL     OW 2099   2.522  11.057   5.441
   87SOL    HW1 2100   2.519  11.084   5.533
   87SOL    HW2 2101   2.449  10.996   5.432
   88SOL     OW 2102   3.942   0.204   2.187
   88SOL    HW1 2103   3.997   0.164   2.119
   88SOL    HW2 2104   3.888   0.132   2.219
   89SOL     OW 2105   2.556  10.764   4.237
   89SOL    HW1 2106   2.483  10.718   4.278
   89SOL    HW2 2107   2.630  10.750   4.296
   90SOL     OW 2108  10.147  13.038  10.453
   90SOL    HW1 2109  10.141  13.127  10.419
   90SOL    HW2 2110  10.100  12.985  10.388
   91SOL     OW 2111  12.631   1.221   8.233
   91SOL    HW1 2112  12.666   1.138   8.266
   91SOL    HW2 2113  12.691   1.246   8.163
   92SOL     OW 2114  10.713   1.683   3.168
   92SOL    HW1 2115  10.699   1.637   3.086
   92SOL    HW2 2116  10.733   1.773   3.143
   93SOL     OW 2117  11.103   1.124  10.491
   93SOL    HW1 2118  11.067   1.041  10.459
   93SOL    HW2 2119  11.114   1.177  10.412
   94SOL     OW 2120   1.804  12.950   6.987
   94SOL    HW1 2121   1.767  12.911   7.067
   94SOL    HW2 2122   1.893  12.974   7.012
   95SOL     OW 2123  11.369  10.452   0.623
   95SOL    HW1 2124  11.446  10.421   0.671
   95SOL    HW2 2125  11.379  10.547   0.619
   96SOL     OW 2126  12.049   7.522   0.184
   96SOL    HW1 2127  12.062   7.612   0.155
   96SOL    HW2 2128  11.960   7.520   0.219
   97SOL     OW 2129   5.883   8.146   1.034
   97SOL    HW1 2130   5.829   8.074   1.000
   97SOL    HW2 2131   5.886   8.209   0.962
   98SOL     OW 2132   7.557   0.620   5.953
   98SOL    HW1 2133   7.536   0.540   5.905
   98SOL    HW2 2134   7.477   0.640   6.001
   99SOL     OW 2135  12.943   1.976   0.059
   99SOL    HW1 2136  12.905   2.058   0.029
   99SOL    HW2 2137  12.882   1.944   0.126
  100SOL     OW 2138   4.120   0.996   8.568
  100SOL    HW1 2139   4.044   0.944   8.594
  100SOL    HW2 2140   4.110   1.078   8.617
  101SOL     OW 2141   0.764  12.320   8.480
  101SOL    HW1 2142   0.682  12.339   8.434
  101SOL    HW2 2143   0.822  12.288   8.411
  102SOL     OW 2144  14.548   0.104  13.227
  102SOL    HW1 2145  14.599   0.036  13.272
  102SOL    HW2 2146  14.587   0.110  13.140
  103SOL     OW 2147   2.013   8.756   0.294
  103SOL    HW1 2148   1.970   8.831   0.253
  103SOL    HW2 2149   2.015   8.689   0.226
  104SOL     OW 2150   9.468   6.647   3.412
  104SOL    HW1 2151   9.438   6.673   3.499
  104SOL    HW2 2152   9.498   6.728   3.371
  105SOL     OW 2153   9.369   4.367   2.781
  105SOL    HW1 2154   9.296   4.411   2.738
  105SOL    HW2 2155   9.328   4.307   2.843
  106SOL     OW 2156   7.093   4.460   5.943
  106SOL    HW1 2157   7.133   4.384   5.984
  106SOL    HW2 2158   7.144   4.535   5.974
  107SOL     OW 2159  10.368   8.617   2.952
  107SOL    HW1 2160  10.301   8.568   2.903
  107SOL    HW2 2161  10.351   8.595   3.043
  108SOL     OW 2162  13.866  12.906  14.176
  108SOL    HW1 2163  13.883  12.852  14.253
  108SOL    HW2 2164  13.785  12.953  14.197
  109SOL     OW 2165  11.400   9.865  10.067
  109SOL    HW1 2166  11.332   9.798  10.073
  109SOL    HW2 2167  11.482   9.815  10.058
  110SOL     OW 2168   5.156   8.958  10.259
  110SOL    HW1 2169   5.204   8.882  10.290
  110SOL    HW2 2170   5.078   8.961  10.315
  111SOL     OW 2171  12.838  12.829   2.312
  111SOL    HW1 2172  12.852  12.922   2.298
  111SOL    HW2 2173  12.876  12.787   2.235
  112SOL     OW 2174   4.544   1.358  10.507
  112SOL    HW1 2175   4.562   1.431  10.447
  112SOL    HW2 2176   4.479   1.393  10.568
  113SOL     OW 2177   6.149   7.224   0.990
  113SOL    HW1 2178   6.192   7.274   1.059
  113SOL    HW2 2179   6.215   7.161   0.962
  114SOL     OW 2180  10.509   0.320   3.738
  114SOL    HW1 2181  10.541   0.247   3.685
  114SOL    HW2 2182  10.505   0.394   3.677
  115SOL     OW 2183  10.904   8.529  11.717
  115SOL    HW1 2184  10.869   8.591  11.652
  115SOL    HW2 2185  10.891   8.443  11.678
  116SOL     OW 2186   6.362  10.387   9.110
  116SOL    HW1 2187   6.282  10.401   9.059
  116SOL    HW2 2188   6.429  10.369   9.044
  117SOL     OW 2189  10.310   1.160   0.004
  117SOL    HW1 2190  10.234   1.210  14.852
  117SOL    HW2 2191  10.345   1.209   0.078
  118SOL     OW 2192  10.390   2.922   0.002
  118SOL    HW1 2193  10.348   3.008  14.871
  118SOL    HW2 2194  10.319   2.859  14.864
  119SOL     OW 2195  10.900   4.861   7.901
  119SOL    HW1 2196  10.833   4.812   7.852
  119SOL    HW2 2197  10.909   4.813   7.983
  120SOL     OW 2198  14.391   6.020  13.333
  120SOL    HW1 2199  14.406   6.068  13.251
  120SOL    HW2 2200  14.296   6.013  13.339
  121SOL     OW 2201   4.932   1.650  12.624
  121SOL    HW1 2202   4.889   1.592  12.688
  121SOL    HW2 2203   4.949   1.593  12.549
  122SOL     OW 2204   9.831  13.622   3.570
  122SOL    HW1 2205   9.867  13.676   3.499
  122SOL    HW2 2206   9.859  13.666   3.650
  123SOL     OW 2207  11.367   4.296   8.231
  123SOL    HW1 2208  11.404   4.213   8.201
  123SOL    HW2 2209  11.298   4.271   8.291
  124SOL     OW 2210   1.915   1.595   8.987
  124SOL    HW1 2211   1.893   1.519   8.932
  124SOL    HW2 2212   1.976   1.646   8.934
  125SOL     OW 2213   2.158  14.346  12.992
  125SOL    HW1 2214   2.102  14.415  12.955
  125SOL    HW2 2215   2.130  14.266  12.948
  126SOL     OW 2216  14.805   7.258   9.348
  126SOL    HW1 2217  14.816   7.330   9.410
  126SOL    HW2 2218  14.814   7.299   9.262
  127SOL     OW 2219   8.018   6.089  14.844
  127SOL    HW1 2220   7.933   6.121  14.872
  127SOL    HW2 2221   8.031   6.126  14.756
  128SOL     OW 2222  14.380   3.703   5.292
  128SOL    HW1 2223  14.356   3.786   5.253
  128SOL    HW2 2224  14.337   3.637   5.237
  129SOL     OW 2225   3.136   4.406  14.735
  129SOL    HW1 2226   3.087   4.488  14.739
  129SOL    HW2 2227   3.080   4.346  14.685
  130SOL     OW 2228   0.449  14.305   2.309
  130SOL    HW1 2229   0.425  14.396   2.293
  130SOL    HW2 2230   0.513  14.308   2.380
  131SOL     OW 2231   6.279   5.620  13.247
  131SOL    HW1 2232   6.190   5.616  13.212
  131SOL    HW2 2233   6.268   5.648  13.337
  132SOL     OW 2234   8.137   1.420   4.004
  132SOL    HW1 2235   8.070   1.425   4.073
  132SOL    HW2 2236   8.220   1.419   4.052
  133SOL     OW 2237   0.179   6.091   5.344
  133SOL    HW1 2238   0.184   6.053   5.256
  133SOL    HW2 2239   0.263   6.137   5.354
  134SOL     OW 2240  14.257   4.177   5.678
  134SOL    HW1 2241  14.315   4.188   5.602
  134SOL    HW2 2242  14.199   4.254   5.675
  135SOL     OW 2243   0.984   2.331   2.609
  135SOL    HW1 2244   0.987   2.302   2.518
  135SOL    HW2 2245   0.976   2.427   2.603
  136SOL     OW 2246   1.318  11.034   6.770
  136SOL    HW1 2247   1.230  10.998   6.783
  136SOL    HW2 2248   1.352  10.986   6.695
  137SOL     OW 2249  13.721   3.130  11.101
  137SOL    HW1 2250  13.672   3.201  11.060
  137SOL    HW2 2251  13.812   3.148  11.079
  138SOL     OW 2252  11.129   4.099   1.015
  138SOL    HW1 2253  11.037   4.074   1.030
  138SOL    HW2 2254  11.125   4.193   0.995
  139SOL     OW 2255   1.743  11.774  10.147
  139SOL    HW1 2256   1.781  11.843  10.202
  139SOL    HW2 2257   1.759  11.693  10.196
  140SOL     OW 2258  12.725   5.291  10.224
  140SOL    HW1 2259  12.653   5.232  10.201
  140SOL    HW2 2260  12.792   5.233  10.260
  141SOL     OW 2261   1.451   9.017   9.261
  141SOL    HW1 2262   1.503   9.092   9.291
  141SOL    HW2 2263   1.516   8.957   9.222
  142SOL     OW 2264   8.830   6.229  10.905
  142SOL    HW1 2265   8.736   6.242  10.891
  142SOL    HW2 2266   8.836   6.181  10.987
  143SOL     OW 2267  13.829   4.618   5.010
  143SOL    HW1 2268  13.753   4.649   4.961
  143SOL    HW2 2269  13.816   4.652   5.099
  144SOL     OW 2270   4.790   9.006   3.975
  144SOL    HW1 2271   4.731   8.982   3.904
  144SOL    HW2 2272   4.732   9.018   4.051
  145SOL     OW 2273  10.120  12.692  11.972
  145SOL    HW1 2274  10.185  12.758  11.947
  145SOL    HW2 2275  10.127  12.625  11.905
  146SOL     OW 2276  14.604   4.226   1.292
  146SOL    HW1 2277  14.680   4.168   1.295
  146SOL    HW2 2278  14.637   4.306   1.250
  147SOL     OW 2279  12.784   7.052   5.242
  147SOL    HW1 2280  12.862   7.100   5.268
  147SOL    HW2 2281  12.764   6.996   5.317
  148SOL     OW 2282   0.458  12.932   3.219
  148SOL    HW1 2283   0.524  13.000   3.220
  148SOL    HW2 2284   0.378  12.975   3.248
  149SOL     OW 2285   5.451   6.110  14.728
  149SOL    HW1 2286   5.466   6.203  14.708
  149SOL    HW2 2287   5.526   6.065  14.690
  150SOL     OW 2288  12.580  10.906  12.287
  150SOL    HW1 2289  12.580  10.931  12.379
  150SOL    HW2 2290  12.664  10.937  12.253
  151SOL     OW 2291   5.232  12.589   9.682
  151SOL    HW1 2292   5.270  12.564   9.598
  151SOL    HW2 2293   5.180  12.513   9.708
  152SOL     OW 2294   5.720  10.640  12.610
  152SOL    HW1 2295   5.783  10.590  12.557
  152SOL    HW2 2296   5.771  10.669  12.686
  153SOL     OW 2297   1.391   8.126   5.490
  153SOL    HW1 2298   1.358   8.179   5.563
  153SOL    HW2 2299   1.327   8.138   5.420
  154SOL     OW 2300   8.202   1.406   1.447
  154SOL    HW1 2301   8.152   1.405   1.529
  154SOL    HW2 2302   8.180   1.491   1.408
  155SOL     OW 2303   1.807   0.883  12.510
  155SOL    HW1 2304   1.719   0.881  12.472
  155SOL    HW2 2305   1.865   0.863  12.436
  156SOL     OW 2306   8.561   7.799  12.463
  156SOL    HW1 2307   8.587   7.868  12.402
  156SOL    HW2 2308   8.624   7.805  12.535
  157SOL     OW 2309   9.827   4.207   7.210
  157SOL    HW1 2310   9.857   4.281   7.263
  157SOL    HW2 2311   9.771   4.157   7.269
  158SOL     OW 2312   3.637   8.428   8.789
  158SOL    HW1 2313   3.675   8.345   8.820
  158SOL    HW2 2314   3.677   8.442   8.703
  159SOL     OW 2315   5.877   7.724   6.592
  159SOL    HW1 2316   5.790   7.727   6.633
  159SOL    HW2 2317   5.893   7.631   6.578
  160SOL     OW 2318  11.735  13.309  13.688
  160SOL    HW1 2319  11.759  13.402  13.684
  160SOL    HW2 2320  11.659  13.306  13.746
  161SOL     OW 2321   5.735   7.829   6.351
  161SOL    HW1 2322   5.799   7.796   6.415
  161SOL    HW2 2323   5.766   7.796   6.267
  162SOL     OW 2324   3.705   0.853  10.517
  162SOL    HW1 2325   3.706   0.914  10.443
  162SOL    HW2 2326   3.656   0.898  10.585
  163SOL     OW 2327   9.356   2.165  10.942
  163SOL    HW1 2328   9.297   2.109  10.993
  163SOL    HW2 2329   9.395   2.106  10.877
  164SOL     OW 2330   3.137   7.713   0.984
  164SOL    HW1 2331   3.124   7.658   1.061
  164SOL    HW2 2332   3.197   7.782   1.013
  165SOL     OW 2333  12.769   8.345   3.621
  165SOL    HW1 2334  12.736   8.435   3.615
  165SOL    HW2 2335  12.756   8.321   3.713
  166SOL     OW 2336   6.316   1.556   0.664
  166SOL    HW1 2337   6.389   1.597   0.711
  166SOL    HW2 2338   6.243   1.617   0.676
  167SOL     OW 2339   3.883   9.593   7.526
  167SOL    HW1 2340   3.826   9.577   7.601
  167SOL    HW2 2341   3.840   9.665   7.478
  168SOL     OW 2342  10.749   4.089   7.501
  168SOL    HW1 2343  10.771   3.997   7.487
  168SOL    HW2 2344  10.760   4.129   7.415
  169SOL     OW 2345   2.000   5.007   4.616
  169SOL    HW1 2346   1.995   4.942   4.686
  169SOL    HW2 2347   2.040   5.084   4.657
  170SOL     OW 2348   7.192   5.672  12.174
  170SOL    HW1 2349   7.168   5.762  12.149
  170SOL    HW2 2350   7.156   5.661  12.261
  171SOL     OW 2351  12.348   2.546   6.090
  171SOL    HW1 2352  12.369   2.458   6.057
  171SOL    HW2 2353  12.271   2.532   6.146
  172SOL     OW 2354  13.010   8.922   5.036
  172SOL    HW1 2355  12.968   8.905   4.952
  172SOL    HW2 2356  13.097   8.955   5.014
  173SOL     OW 2357   2.681   4.508   1.354
  173SOL    HW1 2358   2.694   4.590   1.306
  173SOL    HW2 2359   2.587   4.506   1.373
  174SOL     OW 2360   2.427   9.169   8.126
  174SOL    HW1 2361   2.385   9.089   8.094
  174SOL    HW2 2362   2.519   9.146   8.134
  175SOL     OW 2363   9.907  10.024   1.861
  175SOL    HW1 2364   9.903   9.949   1.802
  175SOL    HW2 2365   9.831  10.077   1.838
  176SOL     OW 2366  13.010   9.049   6.754
  176SOL    HW1 2367  12.967   9.076   6.836
  176SOL    HW2 2368  12.945   9.067   6.686
  177SOL     OW 2369   1.594   1.243  10.784
  177SOL    HW1 2370   1.555   1.328  10.759
  177SOL    HW2 2371   1.525   1.200  10.835
  178SOL     OW 2372   9.453   1.054  12.232
  178SOL    HW1 2373   9.365   1.089  12.219
  178SOL    HW2 2374   9.448   0.963  12.201
  179SOL     OW 2375   0.464  12.999   7.699
  179SOL    HW1 2376   0.464  13.076   7.756
  179SOL    HW2 2377   0.484  13.034   7.612
  180SOL     OW 2378  11.892   5.664   6.600
  180SOL    HW1 2379  11.929   5.712   6.526
  180SOL    HW2 2380  11.962   5.663   6.665
  181SOL     OW 2381   2.326   9.427   8.062
  181SOL    HW1 2382   2.354   9.432   7.971
  181SOL    HW2 2383   2.362   9.345   8.095
  182SOL     OW 2384   2.493   6.916  12.312
  182SOL    HW1 2385   2.428   6.849  12.330
  182SOL    HW2 2386   2.454   6.997  12.344
  183SOL     OW 2387   0.567   0.215   2.823
  183SOL    HW1 2388   0.503   0.145   2.837
  183SOL    HW2 2389   0.648   0.181   2.861
  184SOL     OW 2390   6.701  11.755  11.784
  184SOL    HW1 2391   6.704  11.673  11.736
  184SOL    HW2 2392   6.651  11.735  11.864
  185SOL     OW 2393   1.624   2.787  14.603
  185SOL    HW1 2394   1.692   2.834  14.651
  185SOL    HW2 2395   1.550   2.781  14.663
  186SOL     OW 2396   2.491  10.860  11.717
  186SOL    HW1 2397   2.460  10.895  11.633
  186SOL    HW2 2398   2.580  10.831  11.700
  187SOL     OW 2399   3.876   4.861   9.935
  187SOL    HW1 2400   3.858   4.775   9.898
  187SOL    HW2 2401   3.838   4.923   9.872
  188SOL     OW 2402   1.771  10.355  11.980
  188SOL    HW1 2403   1.725  10.434  11.952
  188SOL    HW2 2404   1.755  10.349  12.074
  189SOL     OW 2405   6.788  10.148  14.118
  189SOL    HW1 2406   6.702  10.106  14.106
  189SOL    HW2 2407   6.840  10.116  14.044
  190SOL     OW 2408   9.076  12.255  12.399
  190SOL    HW1 2409   8.997  12.264  12.345
  190SOL    HW2 2410   9.094  12.161  12.398
  191SOL     OW 2411   8.330   7.658   6.696
  191SOL    HW1 2412   8.316   7.701   6.781
  191SOL    HW2 2413   8.388   7.585   6.716
  192SOL     OW 2414   1.864  11.713  12.816
  192SOL    HW1 2415   1.947  11.714  12.864
  192SOL    HW2 2416   1.798  11.727  12.884
  193SOL     OW 2417   4.647   2.937  10.345
  193SOL    HW1 2418   4.640   2.845  10.318
  193SOL    HW2 2419   4.720   2.972  10.293
  194SOL     OW 2420   5.926   1.077   8.756
  194SOL    HW1 2421   5.850   1.122   8.793
  194SOL    HW2 2422   5.970   1.038   8.831
  195SOL     OW 2423   8.555   4.825  12.495
  195SOL    HW1 2424   8.513   4.910  12.482
  195SOL    HW2 2425   8.482   4.763  12.501
  196SOL     OW 2426   2.369  10.928   8.357
  196SOL    HW1 2427   2.451  10.919   8.309
  196SOL    HW2 2428   2.302  10.896   8.296
  197SOL     OW 2429   6.282   9.124  13.565
  197SOL    HW1 2430   6.355   9.065  13.586
  197SOL    HW2 2431   6.282   9.129  13.469
  198SOL     OW 2432   8.821   5.181   1.354
  198SOL    HW1 2433   8.774   5.261   1.378
  198SOL    HW2 2434   8.913   5.207   1.354
  199SOL     OW 2435   0.721  13.499   0.665
  199SOL    HW1 2436   0.721  13.489   0.760
  199SOL    HW2 2437   0.810  13.527   0.644
  200SOL     OW 2438   1.987   0.892   9.749
  200SOL    HW1 2439   1.938   0.921   9.826
  200SOL    HW2 2440   1.926   0.904   9.676
  201SOL     OW 2441   6.456   3.151   4.349
  201SOL    HW1 2442   6.376   3.102   4.366
  201SOL    HW2 2443   6.425   3.236   4.317
  202SOL     OW 2444  14.524  11.581   7.242
  202SOL    HW1 2445  14.574  11.604   7.163
  202SOL    HW2 2446  14.493  11.665   7.276
  203SOL     OW 2447   0.374   4.045   9.709
  203SOL    HW1 2448   0.353   4.025   9.800
  203SOL    HW2 2449   0.449   3.988   9.689
  204SOL     OW 2450   3.011   4.237   2.109
  204SOL    HW1 2451   3.057   4.191   2.039
  204SOL    HW2 2452   3.055   4.321   2.116
  205SOL     OW 2453  13.923  11.581  11.519
  205SOL    HW1 2454  13.836  11.616  11.539
  205SOL    HW2 2455  13.923  11.569  11.424
  206SOL     OW 2456   1.894   2.469  12.486
  206SOL    HW1 2457   1.927   2.536  12.427
  206SOL    HW2 2458   1.877   2.393  12.430
  207SOL     OW 2459   9.277   6.744  12.083
  207SOL    HW1 2460   9.252   6.675  12.144
  207SOL    HW2 2461   9.371   6.730  12.069
  208SOL     OW 2462   9.070   8.180  11.463
  208SOL    HW1 2463   9.029   8.246  11.407
  208SOL    HW2 2464   8.997   8.132  11.501
  209SOL     OW 2465  13.476   5.658  12.702
  209SOL    HW1 2466  13.510   5.579  12.743
  209SOL    HW2 2467  13.554   5.704  12.671
  210SOL     OW 2468   8.297  12.036   3.907
  210SOL    HW1 2469   8.204  12.011   3.904
  210SOL    HW2 2470   8.315  12.050   4.000
  211SOL     OW 2471   8.714   0.617   1.619
  211SOL    HW1 2472   8.778   0.660   1.561
  211SOL    HW2 2473   8.756   0.535   1.644
  212SOL     OW 2474  13.788   7.379  13.415
  212SOL    HW1 2475  13.831   7.464  13.407
  212SOL    HW2 2476  13.836   7.323  13.353
  213SOL     OW 2477   9.676  13.739   1.886
  213SOL    HW1 2478   9.721  13.671   1.936
  213SOL    HW2 2479   9.669  13.703   1.798
  214SOL     OW 2480   2.291   5.864   4.064
  214SOL    HW1 2481   2.238   5.798   4.108
  214SOL    HW2 2482   2.362   5.883   4.126
  215SOL     OW 2483   2.764  13.916   0.616
  215SOL    HW1 2484   2.777  14.006   0.585
  215SOL    HW2 2485   2.852  13.881   0.625
  216SOL     OW 2486   6.874   6.514   6.654
  216SOL    HW1 2487   6.784   6.533   6.626
  216SOL    HW2 2488   6.864   6.456   6.730
  217SOL     OW 2489  13.362  12.953   3.459
  217SOL    HW1 2490  13.429  13.013   3.426
  217SOL    HW2 2491  13.300  12.944   3.386
  218SOL     OW 2492   5.832   1.861   4.989
  218SOL    HW1 2493   5.874   1.917   5.054
  218SOL    HW2 2494   5.748   1.838   5.029
  219SOL     OW 2495   7.345  13.673  11.432
  219SOL    HW1 2496   7.360  13.629  11.516
  219SOL    HW2 2497   7.391  13.620  11.368
  220SOL     OW 2498   1.809  11.101  11.275
  220SOL    HW1 2499   1.777  11.143  11.355
  220SOL    HW2 2500   1.795  11.008  11.290
  221SOL     OW 2501   7.173   8.737  11.580
  221SOL    HW1 2502   7.246   8.735  11.641
  221SOL    HW2 2503   7.105   8.685  11.624
  222SOL     OW 2504   9.593   8.483  10.502
  222SOL    HW1 2505   9.565   8.572  10.525
  222SOL    HW2 2506   9.596   8.483  10.406
  223SOL     OW 2507   4.317  10.074   6.666
  223SOL    HW1 2508   4.229  10.051   6.637
  223SOL    HW2 2509   4.351  10.131   6.597
  224SOL     OW 2510   7.265   6.136   6.446
  224SOL    HW1 2511   7.210   6.211   6.421
  224SOL    HW2 2512   7.316   6.168   6.521
  225SOL     OW 2513   3.381   3.240   1.672
  225SOL    HW1 2514   3.368   3.151   1.639
  225SOL    HW2 2515   3.350   3.236   1.763
  226SOL     OW 2516   0.207  12.588   6.606
  226SOL    HW1 2517   0.153  12.518   6.569
  226SOL    HW2 2518   0.145  12.649   6.644
  227SOL     OW 2519   0.460  10.170   1.006
  227SOL    HW1 2520   0.462  10.150   0.912
  227SOL    HW2 2521   0.472  10.265   1.010
  228SOL     OW 2522   1.996   1.513   4.662
  228SOL    HW1 2523   2.016   1.419   4.660
  228SOL    HW2 2524   2.001   1.536   4.755
  229SOL     OW 2525  13.240   2.931   2.567
  229SOL    HW1 2526  13.283   2.953   2.649
  229SOL    HW2 2527  13.194   3.011   2.541
  230SOL     OW 2528   9.533  12.951   6.673
  230SOL    HW1 2529   9.461  12.977   6.731
  230SOL    HW2 2530   9.584  13.031   6.662
  231SOL     OW 2531   2.650   4.970   3.235
  231SOL    HW1 2532   2.649   4.996   3.328
  231SOL    HW2 2533   2.571   5.011   3.198
  232SOL     OW 2534   2.647   1.428  11.533
  232SOL    HW1 2535   2.678   1.456  11.619
  232SOL    HW2 2536   2.577   1.490  11.512
  233SOL     OW 2537   4.561  14.803   4.068
  233SOL    HW1 2538   4.625  14.859   4.113
  233SOL    HW2 2539   4.561  14.835   3.978
  234SOL     OW 2540   8.884   3.634   9.853
  234SOL    HW1 2541   8.931   3.718   9.858
  234SOL    HW2 2542   8.809   3.651   9.796
  235SOL     OW 2543   0.033  12.294   8.528
  235SOL    HW1 2544   0.079  12.365   8.573
  235SOL    HW2 2545  14.834  12.335   8.487
  236SOL     OW 2546   2.381  11.986  10.284
  236SOL    HW1 2547   2.421  12.005  10.369
  236SOL    HW2 2548   2.418  11.901  10.259
  237SOL     OW 2549   3.067   8.951  14.698
  237SOL    HW1 2550   3.041   9.030  14.745
  237SOL    HW2 2551   3.054   8.880  14.761
  238SOL     OW 2552   4.803  10.842   3.508
  238SOL    HW1 2553   4.716  10.823   3.546
  238SOL    HW2 2554   4.797  10.809   3.419
  239SOL     OW 2555  12.702   3.824   4.157
  239SOL    HW1 2556  12.707   3.735   4.191
  239SOL    HW2 2557  12.628   3.864   4.203
  240SOL     OW 2558   7.228  14.303  12.772
  240SOL    HW1 2559   7.297  14.364  12.743
  240SOL    HW2 2560   7.230  14.232  12.708
  241SOL     OW 2561   4.602  12.821  11.265
  241SOL    HW1 2562   4.578  12.735  11.231
  241SOL    HW2 2563   4.666  12.802  11.334
  242SOL     OW 2564   5.803   1.040   3.412
  242SOL    HW1 2565   5.843   1.049   3.325
  242SOL    HW2 2566   5.876   1.044   3.473
  243SOL     OW 2567   7.816  12.067  14.054
  243SOL    HW1 2568   7.876  12.076  13.980
  243SOL    HW2 2569   7.752  12.137  14.041
  244SOL     OW 2570  10.464   8.372   5.182
  244SOL    HW1 2571  10.552   8.403   5.202
  244SOL    HW2 2572  10.431   8.337   5.265
  245SOL     OW 2573  10.156   7.340   7.576
  245SOL    HW1 2574  10.111   7.261   7.605
  245SOL    HW2 2575  10.151   7.400   7.651
  246SOL     OW 2576  12.900   1.383  10.183
  246SOL    HW1 2577  12.843   1.451  10.220
  246SOL    HW2 2578  12.883   1.387  10.089
  247SOL     OW 2579  14.314   8.970   8.654
  247SOL    HW1 2580  14.341   8.931   8.737
  247SOL    HW2 2581  14.226   8.937   8.639
  248SOL     OW 2582  10.455   7.548  14.363
  248SOL    HW1 2583  10.416   7.502  14.437
  248SOL    HW2 2584  10.541   7.575  14.394
  249SOL     OW 2585   5.481   0.329   0.008
  249SOL    HW1 2586   5.478   0.421  14.860
  249SOL    HW2 2587   5.422   0.286  14.823
  250SOL     OW 2588   5.480  11.858  13.668
  250SOL    HW1 2589   5.488  11.763  13.652
  250SOL    HW2 2590   5.405  11.885  13.615
  251SOL     OW 2591   3.103   4.102   0.416
  251SOL    HW1 2592   3.064   4.170   0.361
  251SOL    HW2 2593   3.197   4.106   0.397
  252SOL     OW 2594  13.309  12.732  11.689
  252SOL    HW1 2595  13.347  12.698  11.608
  252SOL    HW2 2596  13.328  12.666  11.754
  253SOL     OW 2597   5.929   1.266   5.794
  253SOL    HW1 2598   5.907   1.255   5.701
  253SOL    HW2 2599   6.009   1.319   5.793
  254SOL     OW 2600  11.062   3.613  14.309
  254SOL    HW1 2601  10.985   3.629  14.254
  254SOL    HW2 2602  11.029   3.619  14.398
  255SOL     OW 2603   7.981  14.037  14.363
  255SOL    HW1 2604   7.925  14.114  14.374
  255SOL    HW2 2605   8.066  14.073  14.338
  256SOL     OW 2606   2.098   4.520   3.474
  256SOL    HW1 2607   2.013   4.479   3.459
  256SOL    HW2 2608   2.157   4.476   3.414
  257SOL     OW 2609  13.536   1.319   6.530
  257SOL    HW1 2610  13.566   1.278   6.612
  257SOL    HW2 2611  13.545   1.413   6.546
  258SOL     OW 2612  13.010   7.731   5.204
  258SOL    HW1 2613  13.027   7.639   5.185
  258SOL    HW2 2614  13.089   7.762   5.248
  259SOL     OW 2615   8.687   0.755   8.443
  259SOL    HW1 2616   8.657   0.676   8.398
  259SOL    HW2 2617   8.609   0.789   8.487
  260SOL     OW 2618   3.154  11.696   8.820
  260SOL    HW1 2619   3.098  11.668   8.892
  260SOL    HW2 2620   3.100  11.688   8.742
  261SOL     OW 2621  10.759   0.092   1.740
  261SOL    HW1 2622  10.683   0.137   1.703
  261SOL    HW2 2623  10.793   0.154   1.805
  262SOL     OW 2624   0.319   8.657   5.988
  262SOL    HW1 2625   0.292   8.685   5.900
  262SOL    HW2 2626   0.354   8.569   5.976
  263SOL     OW 2627   2.484  13.094   8.644
  263SOL    HW1 2628   2.417  13.131   8.701
  263SOL    HW2 2629   2.563  13.144   8.665
  264SOL     OW 2630   1.026   9.958  12.274
  264SOL    HW1 2631   1.038  10.032  12.333
  264SOL    HW2 2632   1.080   9.978  12.198
  265SOL     OW 2633   8.870   6.635   1.967
  265SOL    HW1 2634   8.926   6.614   2.042
  265SOL    HW2 2635   8.908   6.715   1.930
  266SOL     OW 2636  10.926   3.760   9.116
  266SOL    HW1 2637  10.840   3.791   9.089
  266SOL    HW2 2638  10.912   3.670   9.143
  267SOL     OW 2639   1.565   3.280   6.737
  267SOL    HW1 2640   1.657   3.301   6.722
  267SOL    HW2 2641   1.519   3.363   6.722
  268SOL     OW 2642   6.030  10.827   2.671
  268SOL    HW1 2643   5.986  10.795   2.592
  268SOL    HW2 2644   6.105  10.769   2.682
  269SOL     OW 2645  12.897   2.114   8.285
  269SOL    HW1 2646  12.849   2.154   8.357
  269SOL    HW2 2647  12.935   2.188   8.238
  270SOL     OW 2648  12.693   2.316   0.858
  270SOL    HW1 2649  12.669   2.394   0.807
  270SOL    HW2 2650  12.744   2.351   0.931
  271SOL     OW 2651  13.259   0.387   6.233
  271SOL    HW1 2652  13.333   0.408   6.175
  271SOL    HW2 2653  13.236   0.470   6.273
  272SOL     OW 2654  11.174  13.762   3.374
  272SOL    HW1 2655  11.172  13.671   3.402
  272SOL    HW2 2656  11.210  13.759   3.285
  273SOL     OW 2657   4.296   7.451   6.506
  273SOL    HW1 2658   4.371   7.469   6.562
  273SOL    HW2 2659   4.240   7.527   6.515
  274SOL     OW 2660   9.937   5.859   0.475
  274SOL    HW1 2661   9.860   5.912   0.494
  274SOL    HW2 2662   9.911   5.805   0.400
  275SOL     OW 2663   6.499  11.203  10.709
  275SOL    HW1 2664   6.583  11.245  10.728
  275SOL    HW2 2665   6.437  11.276  10.705
  276SOL     OW 2666   9.102   8.083  13.846
  276SOL    HW1 2667   9.119   8.129  13.928
  276SOL    HW2 2668   9.079   7.994  13.874
  277SOL     OW 2669  10.861  14.177   0.496
  277SOL    HW1 2670  10.866  14.165   0.401
  277SOL    HW2 2671  10.801  14.109   0.526
  278SOL     OW 2672  14.425  12.189  10.653
  278SOL    HW1 2673  14.465  12.136  10.722
  278SOL    HW2 2674  14.418  12.129  10.579
  279SOL     OW 2675  14.367   2.314   8.636
  279SOL    HW1 2676  14.348   2.406   8.617
  279SOL    HW2 2677  14.442   2.317   8.695
  280SOL     OW 2678  10.048   9.849  11.204
  280SOL    HW1 2679  10.122   9.907  11.222
  280SOL    HW2 2680   9.972   9.894  11.240
  281SOL     OW 2681   0.760   6.439   4.948
  281SOL    HW1 2682   0.856   6.446   4.952
  281SOL    HW2 2683   0.729   6.492   5.022
  282SOL     OW 2684  14.484   4.959   2.145
  282SOL    HW1 2685  14.565   4.940   2.098
  282SOL    HW2 2686  14.504   5.040   2.194
  283SOL     OW 2687  14.696   0.060   6.877
  283SOL    HW1 2688  14.784   0.026   6.889
  283SOL    HW2 2689  14.689   0.076   6.783
  284SOL     OW 2690   9.780   4.470  11.971
  284SOL    HW1 2691   9.740   4.556  11.980
  284SOL    HW2 2692   9.859   4.475  12.024
  285SOL     OW 2693   5.464   3.929   9.175
  285SOL    HW1 2694   5.495   3.959   9.090
  285SOL    HW2 2695   5.511   3.984   9.238
  286SOL     OW 2696  14.834   7.327   6.161
  286SOL    HW1 2697  14.757   7.292   6.117
  286SOL    HW2 2698  14.874   7.386   6.097
  287SOL     OW 2699   6.489  11.673   2.546
  287SOL    HW1 2700   6.439  11.739   2.593
  287SOL    HW2 2701   6.442  11.660   2.464
  288SOL     OW 2702   6.925   7.888   6.453
  288SOL    HW1 2703   6.835   7.876   6.483
  288SOL    HW2 2704   6.964   7.800   6.460
  289SOL     OW 2705  13.930  10.151  12.252
  289SOL    HW1 2706  14.019  10.153  12.287
  289SOL    HW2 2707  13.905  10.058  12.255
  290SOL     OW 2708   2.298   4.885  10.401
  290SOL    HW1 2709   2.262   4.810  10.448
  290SOL    HW2 2710   2.243   4.959  10.427
  291SOL     OW 2711   2.007  11.552   1.221
  291SOL    HW1 2712   2.099  11.569   1.241
  291SOL    HW2 2713   2.008  11.472   1.169
  292SOL     OW 2714   6.317  14.834   4.507
  292SOL    HW1 2715   6.408  14.846   4.534
  292SOL    HW2 2716   6.283   0.046   4.497
  293SOL     OW 2717   3.969  10.070   4.452
  293SOL    HW1 2718   3.932   9.983   4.439
  293SOL    HW2 2719   4.054  10.068   4.408
  294SOL     OW 2720  14.095  12.354  14.501
  294SOL    HW1 2721  14.182  12.372  14.465
  294SOL    HW2 2722  14.078  12.427  14.561
  295SOL     OW 2723  11.409  14.761   9.208
  295SOL    HW1 2724  11.382  14.820   9.138
  295SOL    HW2 2725  11.459  14.693   9.164
  296SOL     OW 2726   9.897   2.625   8.077
  296SOL    HW1 2727   9.813   2.608   8.120
  296SOL    HW2 2728   9.906   2.720   8.080
  297SOL     OW 2729   8.039   8.342  13.847
  297SOL    HW1 2730   8.046   8.263  13.900
  297SOL    HW2 2731   7.946   8.345  13.821
  298SOL     OW 2732   1.818   2.236   1.275
  298SOL    HW1 2733   1.845   2.292   1.347
  298SOL    HW2 2734   1.740   2.191   1.308
  299SOL     OW 2735   2.336   3.596   6.143
  299SOL    HW1 2736   2.324   3.654   6.068
  299SOL    HW2 2737   2.250   3.590   6.183
  300SOL     OW 2738   2.417  10.803  10.974
  300SOL    HW1 2739   2.453  10.714  10.982
  300SOL    HW2 2740   2.347  10.794  10.909
  301SOL     OW 2741   4.644   6.781  13.951
  301SOL    HW1 2742   4.591   6.724  13.895
  301SOL    HW2 2743   4.624   6.870  13.921
  302SOL     OW 2744   8.080  12.267   4.375
  302SOL    HW1 2745   8.174  12.269   4.392
  302SOL    HW2 2746   8.040  12.262   4.461
  303SOL     OW 2747   5.707  11.876   2.434
  303SOL    HW1 2748   5.624  11.861   2.390
  303SOL    HW2 2749   5.683  11.899   2.524
  304SOL     OW 2750   0.200   3.239   5.938
  304SOL    HW1 2751   0.155   3.323   5.951
  304SOL    HW2 2752   0.173   3.186   6.013
  305SOL     OW 2753   0.666   3.720   9.995
  305SOL    HW1 2754   0.759   3.711  10.015
  305SOL    HW2 2755   0.644   3.641   9.946
  306SOL     OW 2756   1.375   7.568  10.747
  306SOL    HW1 2757   1.364   7.485  10.700
  306SOL    HW2 2758   1.434   7.619  10.693
  307SOL     OW 2759   7.961   8.815  12.864
  307SOL    HW1 2760   8.016   8.755  12.914
  307SOL    HW2 2761   8.020   8.882  12.831
  308SOL     OW 2762   2.803  12.720  11.865
  308SOL    HW1 2763   2.833  12.755  11.949
  308SOL    HW2 2764   2.791  12.797  11.810
  309SOL     OW 2765   3.698   6.183   4.190
  309SOL    HW1 2766   3.745   6.266   4.196
  309SOL    HW2 2767   3.711   6.142   4.275
  310SOL     OW 2768   2.312   0.445   3.519
  310SOL    HW1 2769   2.247   0.497   3.470
  310SOL    HW2 2770   2.291   0.462   3.611
  311SOL     OW 2771   0.119   3.455   7.724
  311SOL    HW1 2772   0.070   3.494   7.796
  311SOL    HW2 2773   0.079   3.491   7.645
  312SOL     OW 2774   5.003   3.761   6.622
  312SOL    HW1 2775   4.953   3.729   6.547
  312SOL    HW2 2776   4.942   3.818   6.669
  313SOL     OW 2777   1.140  12.136  11.137
  313SOL    HW1 2778   1.221  12.116  11.091
  313SOL    HW2 2779   1.168  12.169  11.222
  314SOL     OW 2780   3.041  11.486   3.647
  314SOL    HW1 2781   3.086  11.556   3.600
  314SOL    HW2 2782   3.109  11.423   3.668
  315SOL     OW 2783  14.098   1.470   0.359
  315SOL    HW1 2784  14.023   1.411   0.362
  315SOL    HW2 2785  14.146   1.444   0.280
  316SOL     OW 2786   0.120   4.531  11.939
  316SOL    HW1 2787   0.188   4.599  11.945
  316SOL    HW2 2788   0.149   4.463  12.000
  317SOL     OW 2789   7.865   4.284   1.335
  317SOL    HW1 2790   7.787   4.319   1.379
  317SOL    HW2 2791   7.895   4.214   1.394
  318SOL     OW 2792   3.794   5.109   5.403
  318SOL    HW1 2793   3.785   5.160   5.483
  318SOL    HW2 2794   3.812   5.174   5.335
  319SOL     OW 2795   3.242   1.610   7.525
  319SOL    HW1 2796   3.308   1.619   7.457
  319SOL    HW2 2797   3.168   1.567   7.483
  320SOL     OW 2798   4.047  10.993   5.810
  320SOL    HW1 2799   4.014  11.082   5.797
  320SOL    HW2 2800   3.972  10.945   5.845
  321SOL     OW 2801   1.869   8.211   2.272
  321SOL    HW1 2802   1.820   8.231   2.352
  321SOL    HW2 2803   1.960   8.234   2.293
  322SOL     OW 2804   4.423   0.796   9.049
  322SOL    HW1 2805   4.360   0.848   9.100
  322SOL    HW2 2806   4.433   0.715   9.099
  323SOL     OW 2807  14.673   8.412   2.819
  323SOL    HW1 2808  14.648   8.502   2.839
  323SOL    HW2 2809  14.756   8.419   2.771
  324SOL     OW 2810  11.950   4.977  10.925
  324SOL    HW1 2811  11.894   5.049  10.953
  324SOL    HW2 2812  11.916   4.954  10.838
  325SOL     OW 2813  13.542   5.329  13.676
  325SOL    HW1 2814  13.560   5.291  13.591
  325SOL    HW2 2815  13.629   5.347  13.713
  326SOL     OW 2816   3.158   9.244   9.292
  326SOL    HW1 2817   3.248   9.210   9.299
  326SOL    HW2 2818   3.112   9.203   9.365
  327SOL     OW 2819   3.796  11.903  14.045
  327SOL    HW1 2820   3.726  11.878  13.984
  327SOL    HW2 2821   3.758  11.976  14.096
  328SOL     OW 2822  12.956   0.605   7.140
  328SOL    HW1 2823  12.967   0.697   7.162
  328SOL    HW2 2824  12.996   0.596   7.053
  329SOL     OW 2825   7.169   5.687  13.700
  329SOL    HW1 2826   7.123   5.705  13.782
  329SOL    HW2 2827   7.200   5.597  13.709
  330SOL     OW 2828   4.988   1.890  13.017
  330SOL    HW1 2829   4.982   1.854  13.105
  330SOL    HW2 2830   4.907   1.940  13.005
  331SOL     OW 2831   6.380   5.832  11.654
  331SOL    HW1 2832   6.315   5.838  11.724
  331SOL    HW2 2833   6.334   5.786  11.583
  332SOL     OW 2834   9.328  13.350  14.538
  332SOL    HW1 2835   9.256  13.324  14.479
  332SOL    HW2 2836   9.388  13.399  14.481
  333SOL     OW 2837  11.821   4.784   2.334
  333SOL    HW1 2838  11.783   4.715   2.389
  333SOL    HW2 2839  11.773   4.863   2.358
  334SOL     OW 2840   5.615   5.730   8.755
  334SOL    HW1 2841   5.569   5.779   8.823
  334SOL    HW2 2842   5.546   5.695   8.700
  335SOL     OW 2843   1.127   4.251  13.146
  335SOL    HW1 2844   1.185   4.237  13.221
  335SOL    HW2 2845   1.084   4.166  13.133
  336SOL     OW 2846   7.772   8.623   3.224
  336SOL    HW1 2847   7.863   8.651   3.224
  336SOL    HW2 2848   7.758   8.587   3.136
  337SOL     OW 2849   1.435   3.673  14.329
  337SOL    HW1 2850   1.402   3.763  14.332
  337SOL    HW2 2851   1.444   3.648  14.421
  338SOL     OW 2852  13.785  10.575  11.340
  338SOL    HW1 2853  13.743  10.558  11.425
  338SOL    HW2 2854  13.843  10.650  11.356
  339SOL     OW 2855   6.944   0.341  13.466
  339SOL    HW1 2856   6.893   0.410  13.508
  339SOL    HW2 2857   7.025   0.384  13.438
  340SOL     OW 2858   4.921   1.066  11.570
  340SOL    HW1 2859   4.924   0.975  11.599
  340SOL    HW2 2860   4.919   1.117  11.651
  341SOL     OW 2861   8.319  11.727  10.529
  341SOL    HW1 2862   8.401  11.729  10.578
  341SOL    HW2 2863   8.317  11.810  10.481
  342SOL     OW 2864   1.550   0.503  11.365
  342SOL    HW1 2865   1.575   0.481  11.275
  342SOL    HW2 2866   1.632   0.526  11.407
  343SOL     OW 2867   6.518   7.246  14.061
  343SOL    HW1 2868   6.552   7.330  14.092
  343SOL    HW2 2869   6.564   7.231  13.978
  344SOL     OW 2870   6.949  14.402   5.745
  344SOL    HW1 2871   6.923  14.400   5.838
  344SOL    HW2 2872   6.867  14.388   5.697
  345SOL     OW 2873   7.072   5.493   4.531
  345SOL    HW1 2874   7.067   5.520   4.623
  345SOL    HW2 2875   7.164   5.466   4.520
  346SOL     OW 2876   3.838  12.810  14.735
  346SOL    HW1 2877   3.892  12.746  14.688
  346SOL    HW2 2878   3.889  12.833  14.812
  347SOL     OW 2879  10.707   2.209  10.739
  347SOL    HW1 2880  10.634   2.210  10.676
  347SOL    HW2 2881  10.702   2.295  10.782
  348SOL     OW 2882  11.163   4.706   1.943
  348SOL    HW1 2883  11.248   4.674   1.973
  348SOL    HW2 2884  11.109   4.709   2.022
  349SOL     OW 2885  10.155  11.361   9.007
  349SOL    HW1 2886  10.190  11.425   8.945
  349SOL    HW2 2887  10.227  11.300   9.022
  350SOL     OW 2888  12.255  14.288  10.004
  350SOL    HW1 2889  12.214  14.256  10.085
  350SOL    HW2 2890  12.288  14.375  10.027
  351SOL     OW 2891   8.584   1.615   1.338
  351SOL    HW1 2892   8.599   1.703   1.374
  351SOL    HW2 2893   8.557   1.630   1.247
  352SOL     OW 2894  13.840   1.546   5.968
  352SOL    HW1 2895  13.768   1.491   5.938
  352SOL    HW2 2896  13.876   1.584   5.888
  353SOL     OW 2897   9.611  13.538   4.871
  353SOL    HW1 2898   9.516  13.546   4.863
  353SOL    HW2 2899   9.627  13.538   4.966
  354SOL     OW 2900  13.018   3.455   8.316
  354SOL    HW1 2901  12.932   3.419   8.338
  354SOL    HW2 2902  13.067   3.452   8.398
  355SOL     OW 2903   4.862  12.270   1.991
  355SOL    HW1 2904   4.922  12.243   2.060
  355SOL    HW2 2905   4.826  12.354   2.021
  356SOL     OW 2906   1.342  13.317  14.673
  356SOL    HW1 2907   1.311  13.290  14.760
  356SOL    HW2 2908   1.273  13.375  14.640
  357SOL     OW 2909   8.482   5.536   5.031
  357SOL    HW1 2910   8.567   5.491   5.036
  357SOL    HW2 2911   8.503   5.624   5.003
  358SOL     OW 2912  12.039   8.983   3.497
  358SOL    HW1 2913  11.994   8.971   3.581
  358SOL    HW2 2914  12.105   8.914   3.496
  359SOL     OW 2915  14.828   1.036  10.144
  359SOL    HW1 2916   0.033   1.082  10.122
  359SOL    HW2 2917  14.770   1.053  10.069
  360SOL     OW 2918   8.612   5.040   2.760
  360SOL    HW1 2919   8.621   5.123   2.715
  360SOL    HW2 2920   8.695   4.994   2.742
  361SOL     OW 2921   8.347  11.774   3.141
  361SOL    HW1 2922   8.258  11.791   3.111
  361SOL    HW2 2923   8.354  11.679   3.145
  362SOL     OW 2924  14.853   9.848   3.685
  362SOL    HW1 2925   0.031   9.918   3.721
  362SOL    HW2 2926  14.770   9.891   3.662
  363SOL     OW 2927  10.588  12.001  12.486
  363SOL    HW1 2928  10.527  11.999  12.560
  363SOL    HW2 2929  10.614  12.093  12.479
  364SOL     OW 2930   8.569   3.526   4.171
  364SOL    HW1 2931   8.606   3.535   4.259
  364SOL    HW2 2932   8.477   3.504   4.187
  365SOL     OW 2933   7.482   2.084  12.271
  365SOL    HW1 2934   7.457   2.128  12.190
  365SOL    HW2 2935   7.459   1.992  12.257
  366SOL     OW 2936   8.636   2.572   6.633
  366SOL    HW1 2937   8.729   2.596   6.630
  366SOL    HW2 2938   8.603   2.595   6.546
  367SOL     OW 2939   4.993  13.793   8.869
  367SOL    HW1 2940   4.926  13.734   8.833
  367SOL    HW2 2941   5.041  13.739   8.932
  368SOL     OW 2942  10.634   4.947  14.837
  368SOL    HW1 2943  10.590   4.862  14.837
  368SOL    HW2 2944  10.727   4.926  14.834
  369SOL     OW 2945   2.224   8.699  13.374
  369SOL    HW1 2946   2.305   8.651  13.357
  369SOL    HW2 2947   2.212   8.755  13.298
  370SOL     OW 2948   2.043   0.450   2.309
  370SOL    HW1 2949   2.041   0.355   2.298
  370SOL    HW2 2950   2.081   0.464   2.395
  371SOL     OW 2951   4.953   5.923  13.350
  371SOL    HW1 2952   4.902   5.911  13.429
  371SOL    HW2 2953   4.963   5.835  13.313
  372SOL     OW 2954   2.324   0.958  14.181
  372SOL    HW1 2955   2.242   0.981  14.224
  372SOL    HW2 2956   2.339   1.029  14.118
  373SOL     OW 2957   9.739   6.682  10.989
  373SOL    HW1 2958   9.767   6.612  10.931
  373SOL    HW2 2959   9.693   6.638  11.060
  374SOL     OW 2960   6.326   7.077   4.048
  374SOL    HW1 2961   6.342   7.047   4.138
  374SOL    HW2 2962   6.410   7.066   4.003
  375SOL     OW 2963   6.428   7.464  13.648
  375SOL    HW1 2964   6.398   7.526  13.582
  375SOL    HW2 2965   6.349   7.416  13.674
  376SOL     OW 2966   8.380  12.107   4.167
  376SOL    HW1 2967   8.472  12.084   4.183
  376SOL    HW2 2968   8.353  12.154   4.245
  377SOL     OW 2969  13.554   7.418  13.215
  377SOL    HW1 2970  13.630   7.403  13.270
  377SOL    HW2 2971  13.509   7.334  13.213
  378SOL     OW 2972  14.440   9.509   6.134
  378SOL    HW1 2973  14.479   9.596   6.126
  378SOL    HW2 2974  14.450   9.470   6.047
  379SOL     OW 2975  12.563   7.607   9.990
  379SOL    HW1 2976  12.538   7.639  10.077
  379SOL    HW2 2977  12.639   7.659   9.966
  380SOL     OW 2978  12.279   0.357   3.432
  380SOL    HW1 2979  12.373   0.355   3.413
  380SOL    HW2 2980  12.271   0.322   3.520
  381SOL     OW 2981   4.973   4.737   3.664
  381SOL    HW1 2982   4.973   4.796   3.740
  381SOL    HW2 2983   5.018   4.787   3.596
  382SOL     OW 2984   9.526   8.297   4.665
  382SOL    HW1 2985   9.593   8.263   4.605
  382SOL    HW2 2986   9.528   8.237   4.740
  383SOL     OW 2987  10.061   6.999   7.031
  383SOL    HW1 2988  10.104   7.083   7.016
  383SOL    HW2 2989  10.108   6.938   6.975
  384SOL     OW 2990   9.693  10.021   0.866
  384SOL    HW1 2991   9.708  10.077   0.790
  384SOL    HW2 2992   9.732  10.069   0.939
  385SOL     OW 2993   5.366   6.802   1.471
  385SOL    HW1 2994   5.408   6.886   1.492
  385SOL    HW2 2995   5.401   6.780   1.384
  386SOL     OW 2996  11.407  14.705  14.043
  386SOL    HW1 2997  11.489  14.670  14.077
  386SOL    HW2 2998  11.378  14.767  14.110
  387SOL     OW 2999   4.786   1.583   7.148
  387SOL    HW1 3000   4.762   1.657   7.204
  387SOL    HW2 3001   4.772   1.614   7.059
  388SOL     OW 3002   4.930  14.631   4.650
  388SOL    HW1 3003   5.011  14.582   4.631
  388SOL    HW2 3004   4.908  14.608   4.740
  389SOL     OW 3005   4.266   0.006   1.295
  389SOL    HW1 3006   4.175  14.855   1.310
  389SOL    HW2 3007   4.314  14.800   1.287
  390SOL     OW 3008   9.547  10.634  12.304
  390SOL    HW1 3009   9.627  10.678  12.332
  390SOL    HW2 3010   9.477  10.679  12.351
  391SOL     OW 3011   3.855  10.715   9.620
  391SOL    HW1 3012   3.845  10.622   9.638
  391SOL    HW2 3013   3.947  10.733   9.638
  392SOL     OW 3014   6.121   3.417   9.129
  392SOL    HW1 3015   6.180   3.459   9.066
  392SOL    HW2 3016   6.044   3.474   9.130
  393SOL     OW 3017   9.730   4.259   2.421
  393SOL    HW1 3018   9.778   4.340   2.438
  393SOL    HW2 3019   9.646   4.272   2.464
  394SOL     OW 3020  10.880   1.580   7.889
  394SOL    HW1 3021  10.897   1.486   7.887
  394SOL    HW2 3022  10.886   1.605   7.981
  395SOL     OW 3023  11.975  14.009   5.394
  395SOL    HW1 3024  11.945  13.945   5.329
  395SOL    HW2 3025  11.898  14.023   5.450
  396SOL     OW 3026   9.067   4.453  10.179
  396SOL    HW1 3027   9.151   4.427  10.140
  396SOL    HW2 3028   9.042   4.378  10.233
  397SOL     OW 3029   1.637  10.076  14.670
  397SOL    HW1 3030   1.710  10.031  14.626
  397SOL    HW2 3031   1.568  10.080  14.603
  398SOL     OW 3032   2.183   9.238  14.302
  398SOL    HW1 3033   2.213   9.163  14.250
  398SOL    HW2 3034   2.210   9.218  14.392
  399SOL     OW 3035   6.674   4.139   7.017
  399SOL    HW1 3036   6.764   4.110   7.001
  399SOL    HW2 3037   6.675   4.170   7.108
  400SOL     OW 3038   4.102   1.435  14.686
  400SOL    HW1 3039   4.007   1.430  14.670
  400SOL    HW2 3040   4.120   1.364  14.747
  401SOL     OW 3041   9.306   4.114  10.213
  401SOL    HW1 3042   9.371   4.131  10.281
  401SOL    HW2 3043   9.260   4.035  10.243
  402SOL     OW 3044   0.399   9.851  11.550
  402SOL    HW1 3045   0.491   9.829  11.540
  402SOL    HW2 3046   0.390   9.876  11.642
  403SOL     OW 3047   7.453   1.587  14.180
  403SOL    HW1 3048   7.460   1.668  14.130
  403SOL    HW2 3049   7.534   1.583  14.230
  404SOL     OW 3050   0.841   6.024   1.757
  404SOL    HW1 3051   0.920   6.034   1.704
  404SOL    HW2 3052   0.844   6.097   1.819
  405SOL     OW 3053   7.443  10.603   6.618
  405SOL    HW1 3054   7.356  10.640   6.626
  405SOL    HW2 3055   7.441  10.523   6.672
  406SOL     OW 3056  10.440  10.828   7.744
  406SOL    HW1 3057  10.509  10.890   7.721
  406SOL    HW2 3058  10.428  10.774   7.666
  407SOL     OW 3059   7.911   0.606   4.936
  407SOL    HW1 3060   7.940   0.588   5.025
  407SOL    HW2 3061   7.837   0.665   4.946
  408SOL     OW 3062   1.619  12.674  13.825
  408SOL    HW1 3063   1.678  12.733  13.872
  408SOL    HW2 3064   1.619  12.594  13.878
  409SOL     OW 3065   5.985   7.823  12.634
  409SOL    HW1 3066   6.014   7.778  12.555
  409SOL    HW2 3067   5.890   7.826  12.627
  410SOL     OW 3068   1.457   2.022  12.823
  410SOL    HW1 3069   1.530   2.058  12.772
  410SOL    HW2 3070   1.383   2.021  12.763
  411SOL     OW 3071   8.902   7.018   9.677
  411SOL    HW1 3072   8.935   7.108   9.681
  411SOL    HW2 3073   8.950   6.971   9.745
  412SOL     OW 3074   5.823   8.177  12.502
  412SOL    HW1 3075   5.912   8.148  12.521
  412SOL    HW2 3076   5.832   8.230  12.422
  413SOL     OW 3077   1.641   2.344   6.386
  413SOL    HW1 3078   1.595   2.357   6.304
  413SOL    HW2 3079   1.679   2.256   6.379
  414SOL     OW 3080   1.997  14.293  10.681
  414SOL    HW1 3081   1.982  14.305  10.587
  414SOL    HW2 3082   1.990  14.381  10.718
  415SOL     OW 3083   4.582  13.020   4.037
  415SOL    HW1 3084   4.616  13.029   4.126
  415SOL    HW2 3085   4.511  12.957   4.045
  416SOL     OW 3086   2.436   1.610   5.422
  416SOL    HW1 3087   2.526   1.587   5.396
  416SOL    HW2 3088   2.441   1.703   5.444
  417SOL     OW 3089   3.709   3.401   3.303
  417SOL    HW1 3090   3.769   3.407   3.378
  417SOL    HW2 3091   3.630   3.446   3.334
  418SOL     OW 3092   8.285   3.259  14.168
  418SOL    HW1 3093   8.270   3.175  14.125
  418SOL    HW2 3094   8.272   3.242  14.261
  419SOL     OW 3095  14.644   7.733  13.760
  419SOL    HW1 3096  14.550   7.719  13.766
  419SOL    HW2 3097  14.657   7.824  13.786
  420SOL     OW 3098   2.595  13.393   6.103
  420SOL    HW1 3099   2.621  13.368   6.191
  420SOL    HW2 3100   2.558  13.481   6.112
  421SOL     OW 3101   5.607   3.567   6.800
  421SOL    HW1 3102   5.662   3.642   6.777
  421SOL    HW2 3103   5.563   3.594   6.881
  422SOL     OW 3104   0.513   8.551   2.613
  422SOL    HW1 3105   0.424   8.552   2.579
  422SOL    HW2 3106   0.534   8.643   2.630
  423SOL     OW 3107   6.318   9.702   3.229
  423SOL    HW1 3108   6.352   9.790   3.247
  423SOL    HW2 3109   6.392   9.644   3.249
  424SOL     OW 3110  12.410   7.365  14.030
  424SOL    HW1 3111  12.340   7.355  13.965
  424SOL    HW2 3112  12.474   7.298  14.008
  425SOL     OW 3113   4.047  14.841   5.930
  425SOL    HW1 3114   4.072   0.057   5.937
  425SOL    HW2 3115   4.007  14.820   6.014
  426SOL     OW 3116   6.479  11.537   8.473
  426SOL    HW1 3117   6.555  11.486   8.444
  426SOL    HW2 3118   6.416  11.530   8.401
  427SOL     OW 3119   5.276   3.698  12.005
  427SOL    HW1 3120   5.246   3.607  12.010
  427SOL    HW2 3121   5.209   3.748  12.051
  428SOL     OW 3122   6.226   7.734   2.726
  428SOL    HW1 3123   6.186   7.689   2.800
  428SOL    HW2 3124   6.217   7.672   2.653
  429SOL     OW 3125   2.285   9.280   8.360
  429SOL    HW1 3126   2.338   9.248   8.287
  429SOL    HW2 3127   2.199   9.297   8.322
  430SOL     OW 3128  12.718  12.471   4.660
  430SOL    HW1 3129  12.682  12.399   4.608
  430SOL    HW2 3130  12.812  12.457   4.660
  431SOL     OW 3131   8.180   6.076  12.967
  431SOL    HW1 3132   8.134   5.993  12.978
  431SOL    HW2 3133   8.241   6.060  12.895
  432SOL     OW 3134   9.254  12.025   8.225
  432SOL    HW1 3135   9.205  11.962   8.171
  432SOL    HW2 3136   9.271  11.979   8.307
  433SOL     OW 3137  10.538   0.438  11.899
  433SOL    HW1 3138  10.625   0.478  11.901
  433SOL    HW2 3139  10.497   0.474  11.820
  434SOL     OW 3140   6.600  13.144   3.198
  434SOL    HW1 3141   6.569  13.117   3.112
  434SOL    HW2 3142   6.668  13.209   3.180
  435SOL     OW 3143   4.240   7.652   2.294
  435SOL    HW1 3144   4.177   7.675   2.226
  435SOL    HW2 3145   4.187   7.643   2.373
  436SOL     OW 3146  12.459   7.576   6.998
  436SOL    HW1 3147  12.475   7.580   7.092
  436SOL    HW2 3148  12.545   7.590   6.958
  437SOL     OW 3149  13.323   6.570   7.854
  437SOL    HW1 3150  13.386   6.641   7.842
  437SOL    HW2 3151  13.376   6.492   7.865
  438SOL     OW 3152  12.100  13.717   9.673
  438SOL    HW1 3153  12.187  13.680   9.691
  438SOL    HW2 3154  12.112  13.812   9.683
  439SOL     OW 3155   5.751   5.453   0.618
  439SOL    HW1 3156   5.677   5.423   0.566
  439SOL    HW2 3157   5.797   5.516   0.562
  440SOL     OW 3158   8.895   6.940  13.206
  440SOL    HW1 3159   8.846   7.001  13.261
  440SOL    HW2 3160   8.833   6.868  13.190
  441SOL     OW 3161   6.203   4.927   3.989
  441SOL    HW1 3162   6.185   4.857   3.927
  441SOL    HW2 3163   6.294   4.951   3.972
  442SOL     OW 3164  13.925  12.906  11.787
  442SOL    HW1 3165  13.923  12.853  11.866
  442SOL    HW2 3166  14.007  12.955  11.792
  443SOL     OW 3167   9.546   5.943  10.566
  443SOL    HW1 3168   9.464   5.951  10.519
  443SOL    HW2 3169   9.601   6.013  10.532
  444SOL     OW 3170   7.661   1.010   6.798
  444SOL    HW1 3171   7.599   0.941   6.773
  444SOL    HW2 3172   7.699   0.978   6.880
  445SOL     OW 3173  11.229   0.117   8.759
  445SOL    HW1 3174  11.232   0.185   8.691
  445SOL    HW2 3175  11.254   0.036   8.714
  446SOL     OW 3176   4.378   8.565  10.003
  446SOL    HW1 3177   4.306   8.504  10.020
  446SOL    HW2 3178   4.426   8.567  10.086
  447SOL     OW 3179   8.746  10.699   3.686
  447SOL    HW1 3180   8.835  10.714   3.655
  447SOL    HW2 3181   8.757  10.643   3.763
  448SOL     OW 3182  12.191   1.222  10.434
  448SOL    HW1 3183  12.119   1.263  10.386
  448SOL    HW2 3184  12.251   1.190  10.366
  449SOL     OW 3185   3.052  11.132   7.049
  449SOL    HW1 3186   3.021  11.117   6.960
  449SOL    HW2 3187   2.973  11.151   7.099
  450SOL     OW 3188   3.572   6.113   7.462
  450SOL    HW1 3189   3.591   6.076   7.376
  450SOL    HW2 3190   3.617   6.198   7.462
  451SOL     OW 3191   0.294   2.842  11.765
  451SOL    HW1 3192   0.276   2.851  11.671
  451SOL    HW2 3193   0.388   2.859  11.773
  452SOL     OW 3194   9.150   7.465   3.758
  452SOL    HW1 3195   9.091   7.396   3.731
  452SOL    HW2 3196   9.105   7.509   3.830
  453SOL     OW 3197   6.741   7.523   2.285
  453SOL    HW1 3198   6.826   7.562   2.261
  453SOL    HW2 3199   6.702   7.586   2.345
  454SOL     OW 3200  11.380  13.682   4.139
  454SOL    HW1 3201  11.357  13.758   4.193
  454SOL    HW2 3202  11.315  13.681   4.070
  455SOL     OW 3203   0.160   7.334  13.225
  455SOL    HW1 3204   0.134   7.349  13.316
  455SOL    HW2 3205   0.129   7.245  13.205
  456SOL     OW 3206   4.670   2.722   8.157
  456SOL    HW1 3207   4.701   2.811   8.142
  456SOL    HW2 3208   4.595   2.712   8.098
  457SOL     OW 3209   0.829   5.805   6.842
  457SOL    HW1 3210   0.818   5.884   6.789
  457SOL    HW2 3211   0.866   5.836   6.924
  458SOL     OW 3212   1.595  14.588   2.863
  458SOL    HW1 3213   1.502  14.613   2.859
  458SOL    HW2 3214   1.623  14.613   2.951
  459SOL     OW 3215   8.561   8.956   5.938
  459SOL    HW1 3216   8.474   8.985   5.908
  459SOL    HW2 3217   8.577   9.009   6.016
  460SOL     OW 3218   2.198   3.050   2.776
  460SOL    HW1 3219   2.119   3.073   2.728
  460SOL    HW2 3220   2.211   3.124   2.836
  461SOL     OW 3221   6.572  11.530   4.988
  461SOL    HW1 3222   6.645  11.475   4.960
  461SOL    HW2 3223   6.613  11.612   5.014
  462SOL     OW 3224   6.070   3.720  12.011
  462SOL    HW1 3225   6.124   3.751  11.937
  462SOL    HW2 3226   5.995   3.678  11.969
  463SOL     OW 3227   7.260  13.152   9.597
  463SOL    HW1 3228   7.321  13.224   9.614
  463SOL    HW2 3229   7.297  13.107   9.521
  464SOL     OW 3230   7.726  10.760   2.418
  464SOL    HW1 3231   7.783  10.713   2.480
  464SOL    HW2 3232   7.779  10.768   2.339
  465SOL     OW 3233   9.638  11.359   7.288
  465SOL    HW1 3234   9.721  11.360   7.334
  465SOL    HW2 3235   9.575  11.327   7.353
  466SOL     OW 3236  12.645  12.199   7.545
  466SOL    HW1 3237  12.693  12.279   7.568
  466SOL    HW2 3238  12.599  12.222   7.464
  467SOL     OW 3239   4.303   2.452   1.476
  467SOL    HW1 3240   4.362   2.524   1.498
  467SOL    HW2 3241   4.271   2.473   1.388
  468SOL     OW 3242   1.810   8.287  14.367
  468SOL    HW1 3243   1.845   8.237  14.293
  468SOL    HW2 3244   1.719   8.306  14.342
  469SOL     OW 3245   9.165   5.980  14.410
  469SOL    HW1 3246   9.154   5.965  14.504
  469SOL    HW2 3247   9.233   6.048  14.405
  470SOL     OW 3248  14.225   8.968   2.003
  470SOL    HW1 3249  14.222   8.900   2.071
  470SOL    HW2 3250  14.295   9.027   2.031
  471SOL     OW 3251   8.814   4.460   1.754
  471SOL    HW1 3252   8.831   4.528   1.820
  471SOL    HW2 3253   8.849   4.497   1.673
  472SOL     OW 3254  10.616   3.089   7.008
  472SOL    HW1 3255  10.525   3.108   6.984
  472SOL    HW2 3256  10.613   3.000   7.044
  473SOL     OW 3257   5.842   2.429   1.049
  473SOL    HW1 3258   5.925   2.431   1.097
  473SOL    HW2 3259   5.864   2.392   0.964
  474SOL     OW 3260   2.350  14.481  13.658
  474SOL    HW1 3261   2.403  14.538  13.602
  474SOL    HW2 3262   2.401  14.400  13.664
  475SOL     OW 3263  13.048   3.082   3.283
  475SOL    HW1 3264  13.120   3.025   3.310
  475SOL    HW2 3265  13.064   3.164   3.329
  476SOL     OW 3266   4.425   2.758  11.154
  476SOL    HW1 3267   4.467   2.786  11.073
  476SOL    HW2 3268   4.332   2.748  11.131
  477SOL     OW 3269   4.340   8.478  11.172
  477SOL    HW1 3270   4.426   8.436  11.162
  477SOL    HW2 3271   4.354   8.569  11.146
  478SOL     OW 3272   7.323  10.170   0.035
  478SOL    HW1 3273   7.276  10.160  14.829
  478SOL    HW2 3274   7.331  10.265   0.047
  479SOL     OW 3275   8.914  13.948   8.837
  479SOL    HW1 3276   8.858  13.874   8.814
  479SOL    HW2 3277   8.982  13.949   8.769
  480SOL     OW 3278   7.942   2.755  11.297
  480SOL    HW1 3279   7.880   2.818  11.262
  480SOL    HW2 3280   7.927   2.675  11.246
  481SOL     OW 3281   1.165   8.536   1.478
  481SOL    HW1 3282   1.238   8.594   1.455
  481SOL    HW2 3283   1.115   8.584   1.543
  482SOL     OW 3284   1.866   9.929   0.772
  482SOL    HW1 3285   1.852   9.844   0.813
  482SOL    HW2 3286   1.944   9.964   0.816
  483SOL     OW 3287   9.855   7.021  11.599
  483SOL    HW1 3288   9.762   7.037  11.584
  483SOL    HW2 3289   9.873   7.061  11.684
  484SOL     OW 3290   7.074   8.710   3.551
  484SOL    HW1 3291   7.039   8.661   3.625
  484SOL    HW2 3292   7.061   8.652   3.476
  485SOL     OW 3293   5.387   4.208   0.877
  485SOL    HW1 3294   5.340   4.239   0.955
  485SOL    HW2 3295   5.463   4.266   0.870
  486SOL     OW 3296   4.141   3.845   7.652
  486SOL    HW1 3297   4.201   3.851   7.578
  486SOL    HW2 3298   4.054   3.853   7.612
  487SOL     OW 3299   3.010   5.612   1.754
  487SOL    HW1 3300   2.919   5.581   1.752
  487SOL    HW2 3301   3.051   5.570   1.678
  488SOL     OW 3302  12.229  13.981  10.900
  488SOL    HW1 3303  12.157  13.921  10.919
  488SOL    HW2 3304  12.296  13.961  10.965
  489SOL     OW 3305   2.395   5.359   6.967
  489SOL    HW1 3306   2.356   5.272   6.971
  489SOL    HW2 3307   2.482   5.348   7.004
  490SOL     OW 3308   7.757   3.966   4.761
  490SOL    HW1 3309   7.777   3.909   4.836
  490SOL    HW2 3310   7.720   3.907   4.696
  491SOL     OW 3311   9.074   2.317   0.310
  491SOL    HW1 3312   9.041   2.342   0.223
  491SOL    HW2 3313   9.051   2.225   0.319
  492SOL     OW 3314  12.009  11.798  14.078
  492SOL    HW1 3315  12.027  11.862  14.009
  492SOL    HW2 3316  11.938  11.744  14.042
  493SOL     OW 3317  12.809   2.529  13.343
  493SOL    HW1 3318  12.716   2.546  13.326
  493SOL    HW2 3319  12.850   2.615  13.341
  494SOL     OW 3320   5.661   4.776   7.714
  494SOL    HW1 3321   5.706   4.735   7.641
  494SOL    HW2 3322   5.726   4.780   7.784
  495SOL     OW 3323  13.962  13.289  13.182
  495SOL    HW1 3324  14.000  13.316  13.098
  495SOL    HW2 3325  13.912  13.365  13.211
  496SOL     OW 3326  11.372   8.191   9.285
  496SOL    HW1 3327  11.374   8.229   9.373
  496SOL    HW2 3328  11.280   8.196   9.259
  497SOL     OW 3329  12.323   7.546   2.269
  497SOL    HW1 3330  12.282   7.460   2.260
  497SOL    HW2 3331  12.328   7.560   2.363
  498SOL     OW 3332   9.998  13.642  12.566
  498SOL    HW1 3333  10.024  13.556  12.600
  498SOL    HW2 3334  10.055  13.704  12.611
  499SOL     OW 3335   8.594  13.479  13.449
  499SOL    HW1 3336   8.517  13.447  13.404
  499SOL    HW2 3337   8.599  13.572  13.426
  500SOL     OW 3338   3.015   0.875   6.680
  500SOL    HW1 3339   3.051   0.810   6.619
  500SOL    HW2 3340   3.091   0.909   6.726
  501SOL     OW 3341  10.328   3.988   9.974
  501SOL    HW1 3342  10.310   4.009   9.882
  501SOL    HW2 3343  10.387   4.058  10.003
  502SOL     OW 3344   3.667  12.957   2.164
  502SOL    HW1 3345   3.660  12.930   2.256
  502SOL    HW2 3346   3.617  12.891   2.116
  503SOL     OW 3347   2.781   4.623   1.591
  503SOL    HW1 3348   2.735   4.706   1.585
  503SOL    HW2 3349   2.770   4.583   1.505
  504SOL     OW 3350   5.262   8.439   9.291
  504SOL    HW1 3351   5.285   8.425   9.199
  504SOL    HW2 3352   5.345   8.433   9.338
  505SOL     OW 3353  12.487   6.652   8.921
  505SOL    HW1 3354  12.514   6.641   8.830
  505SOL    HW2 3355  12.566   6.683   8.965
  506SOL     OW 3356  11.516  10.473  10.798
  506SOL    HW1 3357  11.524  10.379  10.818
  506SOL    HW2 3358  11.441  10.502  10.850
  507SOL     OW 3359   3.269   0.990   7.742
  507SOL    HW1 3360   3.270   0.937   7.663
  507SOL    HW2 3361   3.177   0.992   7.769
  508SOL     OW 3362   3.686   1.251   3.143
  508SOL    HW1 3363   3.766   1.285   3.183
  508SOL    HW2 3364   3.692   1.156   3.154
  509SOL     OW 3365  11.445   6.435   2.691
  509SOL    HW1 3366  11.475   6.440   2.782
  509SOL    HW2 3367  11.374   6.499   2.686
  510SOL     OW 3368   8.024   2.950   3.908
  510SOL    HW1 3369   8.006   3.012   3.979
  510SOL    HW2 3370   7.940   2.937   3.865
  511SOL     OW 3371   6.720  13.475   9.768
  511SOL    HW1 3372   6.679  13.435   9.845
  511SOL    HW2 3373   6.700  13.568   9.776
  512SOL     OW 3374   8.394  13.145   4.372
  512SOL    HW1 3375   8.419  13.221   4.320
  512SOL    HW2 3376   8.329  13.100   4.318
  513SOL     OW 3377  10.880   2.961   6.456
  513SOL    HW1 3378  10.856   3.029   6.393
  513SOL    HW2 3379  10.852   2.879   6.415
  514SOL     OW 3380   4.107   6.578   0.497
  514SOL    HW1 3381   4.034   6.561   0.558
  514SOL    HW2 3382   4.136   6.492   0.469
  515SOL     OW 3383   8.163  10.401   2.584
  515SOL    HW1 3384   8.114  10.483   2.579
  515SOL    HW2 3385   8.189  10.395   2.676
  516SOL     OW 3386  13.844  14.183   8.129
  516SOL    HW1 3387  13.913  14.130   8.168
  516SOL    HW2 3388  13.888  14.238   8.065
  517SOL     OW 3389   8.415   9.374  13.708
  517SOL    HW1 3390   8.494   9.320  13.705
  517SOL    HW2 3391   8.406   9.408  13.619
  518SOL     OW 3392  12.530  13.559  13.407
  518SOL    HW1 3393  12.478  13.601  13.475
  518SOL    HW2 3394  12.529  13.466  13.429
  519SOL     OW 3395  10.940   9.739  12.664
  519SOL    HW1 3396  10.869   9.744  12.600
  519SOL    HW2 3397  10.953   9.829  12.693
  520SOL     OW 3398   8.926   8.375  14.372
  520SOL    HW1 3399   8.919   8.449  14.312
  520SOL    HW2 3400   8.885   8.405  14.453
  521SOL     OW 3401   6.566  13.479   0.927
  521SOL    HW1 3402   6.567  13.574   0.937
  521SOL    HW2 3403   6.643  13.449   0.976
  522SOL     OW 3404   1.590   1.970   8.405
  522SOL    HW1 3405   1.560   2.060   8.390
  522SOL    HW2 3406   1.682   1.979   8.429
  523SOL     OW 3407   0.131  14.036   0.428
  523SOL    HW1 3408   0.150  14.093   0.353
  523SOL    HW2 3409   0.081  13.963   0.390
  524SOL     OW 3410   5.633   6.284  13.684
  524SOL    HW1 3411   5.684   6.231  13.623
  524SOL    HW2 3412   5.546   6.290  13.644
  525SOL     OW 3413   1.850   1.441  14.354
  525SOL    HW1 3414   1.795   1.492  14.295
  525SOL    HW2 3415   1.936   1.441  14.313
  526SOL     OW 3416   8.742   0.060   7.966
  526SOL    HW1 3417   8.681   0.036   8.035
  526SOL    HW2 3418   8.739   0.156   7.963
  527SOL     OW 3419   8.597  11.143   0.420
  527SOL    HW1 3420   8.665  11.087   0.382
  527SOL    HW2 3421   8.607  11.133   0.514
  528SOL     OW 3422  11.312   8.254   3.773
  528SOL    HW1 3423  11.280   8.311   3.704
  528SOL    HW2 3424  11.386   8.302   3.812
  529SOL     OW 3425   4.205  14.791  10.511
  529SOL    HW1 3426   4.199  14.836  10.595
  529SOL    HW2 3427   4.242  14.857  10.452
  530SOL     OW 3428   2.238   7.928   7.280
  530SOL    HW1 3429   2.268   7.891   7.362
  530SOL    HW2 3430   2.187   8.005   7.306
  531SOL     OW 3431   2.942   7.856   4.529
  531SOL    HW1 3432   3.012   7.879   4.590
  531SOL    HW2 3433   2.955   7.916   4.455
  532SOL     OW 3434   6.224  14.591   4.039
  532SOL    HW1 3435   6.236  14.659   3.973
  532SOL    HW2 3436   6.210  14.639   4.121
  533SOL     OW 3437  14.121   5.583   3.017
  533SOL    HW1 3438  14.108   5.495   2.982
  533SOL    HW2 3439  14.039   5.604   3.062
  534SOL     OW 3440   0.306   9.628   9.869
  534SOL    HW1 3441   0.264   9.594   9.949
  534SOL    HW2 3442   0.233   9.646   9.810
  535SOL     OW 3443   3.805   3.131  14.224
  535SOL    HW1 3444   3.785   3.054  14.170
  535SOL    HW2 3445   3.830   3.094  14.309
  536SOL     OW 3446   4.167   6.303   1.252
  536SOL    HW1 3447   4.184   6.296   1.158
  536SOL    HW2 3448   4.131   6.391   1.263
  537SOL     OW 3449   5.251   8.919   4.551
  537SOL    HW1 3450   5.276   8.861   4.623
  537SOL    HW2 3451   5.238   8.860   4.477
  538SOL     OW 3452   1.672  12.682  10.137
  538SOL    HW1 3453   1.708  12.600  10.173
  538SOL    HW2 3454   1.583  12.687  10.173
  539SOL     OW 3455  10.911   5.534   9.302
  539SOL    HW1 3456  10.984   5.519   9.363
  539SOL    HW2 3457  10.952   5.566   9.222
  540SOL     OW 3458   9.847   5.366  11.753
  540SOL    HW1 3459   9.889   5.325  11.678
  540SOL    HW2 3460   9.905   5.349  11.827
  541SOL     OW 3461  10.738  11.790   1.326
  541SOL    HW1 3462  10.820  11.747   1.304
  541SOL    HW2 3463  10.746  11.877   1.288
  542SOL     OW 3464   7.297   9.570   7.073
  542SOL    HW1 3465   7.231   9.558   7.004
  542SOL    HW2 3466   7.245   9.584   7.153
  543SOL     OW 3467   2.539  13.523   2.050
  543SOL    HW1 3468   2.525  13.517   1.956
  543SOL    HW2 3469   2.617  13.578   2.059
  544SOL     OW 3470   6.906  11.962  14.685
  544SOL    HW1 3471   6.947  11.992  14.766
  544SOL    HW2 3472   6.950  11.879  14.666
  545SOL     OW 3473   8.502   8.735   7.015
  545SOL    HW1 3474   8.440   8.808   7.011
  545SOL    HW2 3475   8.496   8.695   6.928
  546SOL     OW 3476   8.699   4.144  11.897
  546SOL    HW1 3477   8.655   4.112  11.818
  546SOL    HW2 3478   8.634   4.198  11.941
  547SOL     OW 3479   5.585  11.909  10.266
  547SOL    HW1 3480   5.503  11.883  10.226
  547SOL    HW2 3481   5.648  11.842  10.239
  548SOL     OW 3482   0.327  13.563  14.393
  548SOL    HW1 3483   0.331  13.639  14.451
  548SOL    HW2 3484   0.374  13.591  14.314
  549SOL     OW 3485  12.115   0.775   2.742
  549SOL    HW1 3486  12.155   0.827   2.673
  549SOL    HW2 3487  12.173   0.787   2.818
  550SOL     OW 3488   9.307   6.035   8.020
  550SOL    HW1 3489   9.304   5.981   7.942
  550SOL    HW2 3490   9.241   5.997   8.079
  551SOL     OW 3491  14.658   0.922   8.868
  551SOL    HW1 3492  14.634   0.991   8.806
  551SOL    HW2 3493  14.689   0.969   8.945
  552SOL     OW 3494  13.162   1.286   9.186
  552SOL    HW1 3495  13.190   1.376   9.205
  552SOL    HW2 3496  13.222   1.257   9.117
  553SOL     OW 3497  10.820  10.992  10.152
  553SOL    HW1 3498  10.739  11.021  10.109
  553SOL    HW2 3499  10.792  10.919  10.208
  554SOL     OW 3500  13.525  10.829   0.988
  554SOL    HW1 3501  13.572  10.863   1.064
  554SOL    HW2 3502  13.594  10.791   0.933
  555SOL     OW 3503   3.922   2.967   6.632
  555SOL    HW1 3504   3.828   2.961   6.614
  555SOL    HW2 3505   3.952   3.039   6.576
  556SOL     OW 3506   1.965   1.635   4.948
  556SOL    HW1 3507   1.872   1.623   4.967
  556SOL    HW2 3508   2.003   1.548   4.953
  557SOL     OW 3509   0.979  13.794  12.670
  557SOL    HW1 3510   0.995  13.725  12.735
  557SOL    HW2 3511   1.064  13.808  12.629
  558SOL     OW 3512   4.743  12.291  11.332
  558SOL    HW1 3513   4.664  12.245  11.361
  558SOL    HW2 3514   4.720  12.329  11.248
  559SOL     OW 3515   3.029   0.264  12.580
  559SOL    HW1 3516   2.958   0.325  12.558
  559SOL    HW2 3517   3.098   0.321  12.616
  560SOL     OW 3518   7.816   8.839   9.584
  560SOL    HW1 3519   7.789   8.825   9.493
  560SOL    HW2 3520   7.739   8.815   9.636
  561SOL     OW 3521   9.511  14.079   5.912
  561SOL    HW1 3522   9.434  14.101   5.859
  561SOL    HW2 3523   9.542  13.996   5.876
  562SOL     OW 3524   4.132  14.047   0.304
  562SOL    HW1 3525   4.090  14.128   0.332
  562SOL    HW2 3526   4.217  14.046   0.348
  563SOL     OW 3527   6.106   3.105   1.165
  563SOL    HW1 3528   6.145   3.191   1.182
  563SOL    HW2 3529   6.016   3.124   1.139
  564SOL     OW 3530   8.410   9.136  12.798
  564SOL    HW1 3531   8.371   9.071  12.740
  564SOL    HW2 3532   8.334   9.182  12.835
  565SOL     OW 3533   1.706   5.798   0.727
  565SOL    HW1 3534   1.786   5.773   0.772
  565SOL    HW2 3535   1.684   5.723   0.672
  566SOL     OW 3536   1.322  12.496   8.494
  566SOL    HW1 3537   1.305  12.434   8.423
  566SOL    HW2 3538   1.235  12.527   8.520
  567SOL     OW 3539   4.407   0.486   2.858
  567SOL    HW1 3540   4.315   0.508   2.871
  567SOL    HW2 3541   4.433   0.443   2.940
  568SOL     OW 3542   2.665   0.611   5.885
  568SOL    HW1 3543   2.683   0.614   5.791
  568SOL    HW2 3544   2.643   0.520   5.902
  569SOL     OW 3545   8.855  10.248   6.660
  569SOL    HW1 3546   8.879  10.169   6.613
  569SOL    HW2 3547   8.899  10.319   6.613
  570SOL     OW 3548  14.411  10.826  14.495
  570SOL    HW1 3549  14.394  10.834  14.589
  570SOL    HW2 3550  14.354  10.754  14.466
  571SOL     OW 3551  10.839   2.827  13.007
  571SOL    HW1 3552  10.859   2.774  13.085
  571SOL    HW2 3553  10.874   2.913  13.028
  572SOL     OW 3554   6.425   2.842   9.657
  572SOL    HW1 3555   6.434   2.860   9.751
  572SOL    HW2 3556   6.339   2.801   9.649
  573SOL     OW 3557   7.613   4.638  10.391
  573SOL    HW1 3558   7.638   4.724  10.424
  573SOL    HW2 3559   7.547   4.656  10.323
  574SOL     OW 3560   4.002   3.145   6.445
  574SOL    HW1 3561   4.066   3.211   6.472
  574SOL    HW2 3562   3.976   3.170   6.357
  575SOL     OW 3563  14.030   2.983  11.445
  575SOL    HW1 3564  14.037   3.078  11.433
  575SOL    HW2 3565  13.950   2.958  11.399
  576SOL     OW 3566   7.119  10.100   7.736
  576SOL    HW1 3567   7.061  10.174   7.754
  576SOL    HW2 3568   7.097  10.072   7.648
  577SOL     OW 3569  10.846   8.678  11.489
  577SOL    HW1 3570  10.903   8.622  11.435
  577SOL    HW2 3571  10.877   8.767  11.472
  578SOL     OW 3572  14.804   2.527   6.387
  578SOL    HW1 3573  14.732   2.499   6.330
  578SOL    HW2 3574  14.810   2.621   6.373
  579SOL     OW 3575   0.904   7.406   3.893
  579SOL    HW1 3576   0.940   7.323   3.860
  579SOL    HW2 3577   0.823   7.418   3.843
  580SOL     OW 3578  13.130   6.980   9.660
  580SOL    HW1 3579  13.084   7.060   9.632
  580SOL    HW2 3580  13.104   6.914   9.596
  581SOL     OW 3581   9.489  13.178  13.958
  581SOL    HW1 3582   9.448  13.259  13.988
  581SOL    HW2 3583   9.551  13.206  13.891
  582SOL     OW 3584  12.702  11.654  11.214
  582SOL    HW1 3585  12.760  11.729  11.224
  582SOL    HW2 3586  12.713  11.603  11.294
  583SOL     OW 3587   4.821  13.871   5.799
  583SOL    HW1 3588   4.895  13.907   5.750
  583SOL    HW2 3589   4.758  13.846   5.732
  584SOL     OW 3590   4.199  10.731   9.841
  584SOL    HW1 3591   4.215  10.740   9.935
  584SOL    HW2 3592   4.263  10.789   9.800
  585SOL     OW 3593   2.058   3.596   3.750
  585SOL    HW1 3594   2.086   3.684   3.775
  585SOL    HW2 3595   2.004   3.609   3.673
  586SOL     OW 3596  12.402   7.114  11.391
  586SOL    HW1 3597  12.395   7.204  11.359
  586SOL    HW2 3598  12.402   7.061  11.312
  587SOL     OW 3599   5.268   4.487   3.791
  587SOL    HW1 3600   5.195   4.529   3.835
  587SOL    HW2 3601   5.345   4.538   3.818
  588SOL     OW 3602   4.521   3.113   7.012
  588SOL    HW1 3603   4.513   3.194   7.062
  588SOL    HW2 3604   4.589   3.063   7.057
  589SOL     OW 3605   7.172   2.652   0.470
  589SOL    HW1 3606   7.263   2.668   0.497
  589SOL    HW2 3607   7.178   2.639   0.376
  590SOL     OW 3608   4.242   4.201  12.835
  590SOL    HW1 3609   4.209   4.112  12.842
  590SOL    HW2 3610   4.170   4.256  12.866
  591SOL     OW 3611   0.454   3.318   0.295
  591SOL    HW1 3612   0.361   3.318   0.271
  591SOL    HW2 3613   0.455   3.326   0.390
  592SOL     OW 3614  14.269   0.646   1.959
  592SOL    HW1 3615  14.194   0.700   1.985
  592SOL    HW2 3616  14.234   0.588   1.891
  593SOL     OW 3617   9.468   2.967   4.217
  593SOL    HW1 3618   9.487   3.031   4.286
  593SOL    HW2 3619   9.395   3.006   4.169
  594SOL     OW 3620  12.839   6.095   3.357
  594SOL    HW1 3621  12.862   6.096   3.450
  594SOL    HW2 3622  12.812   6.004   3.341
  595SOL     OW 3623   7.180   2.418   3.901
  595SOL    HW1 3624   7.242   2.475   3.855
  595SOL    HW2 3625   7.114   2.479   3.936
  596SOL     OW 3626  12.024   8.233  10.071
  596SOL    HW1 3627  11.970   8.160  10.040
  596SOL    HW2 3628  12.017   8.229  10.166
  597SOL     OW 3629  10.448   4.006  14.834
  597SOL    HW1 3630  10.366   3.975  14.794
  597SOL    HW2 3631  10.464   4.091  14.792
  598SOL     OW 3632  10.545   1.460   9.940
  598SOL    HW1 3633  10.595   1.382   9.964
  598SOL    HW2 3634  10.455   1.439   9.965
  599SOL     OW 3635  12.862   6.568  13.029
  599SOL    HW1 3636  12.913   6.620  12.967
  599SOL    HW2 3637  12.861   6.620  13.109
  600SOL     OW 3638  14.203  13.407   4.455
  600SOL    HW1 3639  14.229  13.322   4.418
  600SOL    HW2 3640  14.266  13.469   4.417
  601SOL     OW 3641   9.181  11.348  14.272
  601SOL    HW1 3642   9.199  11.341  14.365
  601SOL    HW2 3643   9.086  11.362  14.267
  602SOL     OW 3644   8.406   2.803  14.194
  602SOL    HW1 3645   8.400   2.893  14.226
  602SOL    HW2 3646   8.344   2.753  14.248
  603SOL     OW 3647   8.823  14.803   0.835
  603SOL    HW1 3648   8.865  14.725   0.871
  603SOL    HW2 3649   8.879  14.829   0.762
  604SOL     OW 3650  10.509   6.899   3.615
  604SOL    HW1 3651  10.525   6.981   3.661
  604SOL    HW2 3652  10.595   6.875   3.580
  605SOL     OW 3653   4.766   2.412  11.945
  605SOL    HW1 3654   4.798   2.329  11.908
  605SOL    HW2 3655   4.744   2.465  11.868
  606SOL     OW 3656  13.339   9.241   5.149
  606SOL    HW1 3657  13.371   9.329   5.128
  606SOL    HW2 3658  13.417   9.186   5.141
  607SOL     OW 3659   9.250  14.195  11.143
  607SOL    HW1 3660   9.216  14.206  11.054
  607SOL    HW2 3661   9.173  14.202  11.199
  608SOL     OW 3662   6.383  13.883   2.661
  608SOL    HW1 3663   6.300  13.921   2.691
  608SOL    HW2 3664   6.366  13.856   2.570
  609SOL     OW 3665   8.013  11.914   3.614
  609SOL    HW1 3666   7.969  11.881   3.535
  609SOL    HW2 3667   7.960  11.989   3.641
  610SOL     OW 3668  11.826  10.117   7.914
  610SOL    HW1 3669  11.891  10.076   7.857
  610SOL    HW2 3670  11.876  10.181   7.965
  611SOL     OW 3671  10.904   3.085   2.608
  611SOL    HW1 3672  10.843   3.038   2.552
  611SOL    HW2 3673  10.915   3.170   2.565
  612SOL     OW 3674  10.088  11.895   4.771
  612SOL    HW1 3675  10.114  11.901   4.863
  612SOL    HW2 3676  10.055  11.983   4.750
  613SOL     OW 3677   4.808  13.003   5.389
  613SOL    HW1 3678   4.852  12.929   5.431
  613SOL    HW2 3679   4.880  13.062   5.365
  614SOL     OW 3680   4.279  14.587   4.638
  614SOL    HW1 3681   4.306  14.497   4.619
  614SOL    HW2 3682   4.186  14.580   4.662
  615SOL     OW 3683  11.221   6.373  14.206
  615SOL    HW1 3684  11.235   6.410  14.294
  615SOL    HW2 3685  11.283   6.300  14.201
  616SOL     OW 3686   2.639  12.655   1.301
  616SOL    HW1 3687   2.732  12.640   1.314
  616SOL    HW2 3688   2.598  12.572   1.323
  617SOL     OW 3689   7.963  13.355   5.305
  617SOL    HW1 3690   8.058  13.362   5.305
  617SOL    HW2 3691   7.938  13.358   5.213
  618SOL     OW 3692  14.140   3.999   4.627
  618SOL    HW1 3693  14.181   4.042   4.552
  618SOL    HW2 3694  14.158   4.057   4.701
  619SOL     OW 3695  14.172   1.245  12.954
  619SOL    HW1 3696  14.082   1.251  12.986
  619SOL    HW2 3697  14.166   1.189  12.877
  620SOL     OW 3698   8.897   4.532   1.206
  620SOL    HW1 3699   8.939   4.602   1.155
  620SOL    HW2 3700   8.805   4.535   1.180
  621SOL     OW 3701  10.375   2.365   3.657
  621SOL    HW1 3702  10.359   2.450   3.698
  621SOL    HW2 3703  10.372   2.302   3.730
  622SOL     OW 3704   6.322  10.258   3.744
  622SOL    HW1 3705   6.412  10.291   3.737
  622SOL    HW2 3706   6.331  10.173   3.786
  623SOL     OW 3707  12.126  11.190   8.897
  623SOL    HW1 3708  12.046  11.199   8.846
  623SOL    HW2 3709  12.107  11.236   8.979
  624SOL     OW 3710  13.758  12.029  10.030
  624SOL    HW1 3711  13.781  12.036   9.938
  624SOL    HW2 3712  13.705  12.107  10.048
  625SOL     OW 3713  11.615  10.696   9.733
  625SOL    HW1 3714  11.708  10.676   9.738
  625SOL    HW2 3715  11.574  10.613   9.709
  626SOL     OW 3716   8.571   1.252  13.984
  626SOL    HW1 3717   8.537   1.180  13.931
  626SOL    HW2 3718   8.529   1.241  14.070
  627SOL     OW 3719   8.678   2.082  12.748
  627SOL    HW1 3720   8.638   2.155  12.701
  627SOL    HW2 3721   8.770   2.085  12.722
  628SOL     OW 3722   8.766   2.417  11.616
  628SOL    HW1 3723   8.721   2.484  11.667
  628SOL    HW2 3724   8.735   2.334  11.654
  629SOL     OW 3725  10.622   3.328   6.306
  629SOL    HW1 3726  10.645   3.380   6.383
  629SOL    HW2 3727  10.602   3.393   6.239
  630SOL     OW 3728   2.181  11.305  11.839
  630SOL    HW1 3729   2.177  11.400  11.838
  630SOL    HW2 3730   2.257  11.284  11.783
  631SOL     OW 3731  10.765   2.980  13.447
  631SOL    HW1 3732  10.855   2.990  13.418
  631SOL    HW2 3733  10.725   3.065  13.431
  632SOL     OW 3734   9.448   3.596   3.044
  632SOL    HW1 3735   9.443   3.686   3.076
  632SOL    HW2 3736   9.356   3.570   3.030
  633SOL     OW 3737   5.579  13.214   5.647
  633SOL    HW1 3738   5.528  13.178   5.720
  633SOL    HW2 3739   5.631  13.284   5.686
  634SOL     OW 3740  12.028  11.800   1.994
  634SOL    HW1 3741  12.027  11.896   1.997
  634SOL    HW2 3742  12.121  11.777   1.988
  635SOL     OW 3743   0.976   8.081  10.905
  635SOL    HW1 3744   1.058   8.075  10.953
  635SOL    HW2 3745   0.980   8.008  10.843
  636SOL     OW 3746   9.061  11.518   9.644
  636SOL    HW1 3747   9.096  11.548   9.560
  636SOL    HW2 3748   9.138  11.495   9.696
  637SOL     OW 3749  14.391  11.341   2.732
  637SOL    HW1 3750  14.417  11.403   2.665
  637SOL    HW2 3751  14.295  11.340   2.729
  638SOL     OW 3752   3.731  12.560  10.459
  638SOL    HW1 3753   3.677  12.493  10.501
  638SOL    HW2 3754   3.812  12.560  10.510
  639SOL     OW 3755  13.755   2.208   5.783
  639SOL    HW1 3756  13.715   2.275   5.839
  639SOL    HW2 3757  13.693   2.135   5.785
  640SOL     OW 3758  11.832  14.314   4.706
  640SOL    HW1 3759  11.778  14.236   4.713
  640SOL    HW2 3760  11.773  14.382   4.672
  641SOL     OW 3761   5.278  11.276   2.475
  641SOL    HW1 3762   5.233  11.354   2.444
  641SOL    HW2 3763   5.370  11.293   2.458
  642SOL     OW 3764   8.843   3.836   9.130
  642SOL    HW1 3765   8.933   3.837   9.163
  642SOL    HW2 3766   8.789   3.854   9.207
  643SOL     OW 3767   6.334  13.916   8.964
  643SOL    HW1 3768   6.329  13.828   8.927
  643SOL    HW2 3769   6.253  13.926   9.014
  644SOL     OW 3770  12.587  13.148  11.018
  644SOL    HW1 3771  12.584  13.236  10.980
  644SOL    HW2 3772  12.495  13.120  11.022
  645SOL     OW 3773   6.899  13.572  12.265
  645SOL    HW1 3774   6.952  13.638  12.222
  645SOL    HW2 3775   6.895  13.499  12.203
  646SOL     OW 3776  14.662   5.971   8.799
  646SOL    HW1 3777  14.650   5.915   8.722
  646SOL    HW2 3778  14.626   5.920   8.872
  647SOL     OW 3779   5.370   9.052   7.005
  647SOL    HW1 3780   5.439   9.000   6.964
  647SOL    HW2 3781   5.288   9.011   6.976
  648SOL     OW 3782   9.745   6.646  12.264
  648SOL    HW1 3783   9.782   6.563  12.293
  648SOL    HW2 3784   9.679   6.668  12.329
  649SOL     OW 3785  14.773   4.888   8.160
  649SOL    HW1 3786  14.801   4.979   8.173
  649SOL    HW2 3787  14.847   4.847   8.115
  650SOL     OW 3788   5.962  11.343  12.207
  650SOL    HW1 3789   5.898  11.395  12.158
  650SOL    HW2 3790   5.910  11.297  12.273
  651SOL     OW 3791   7.285   6.257   3.926
  651SOL    HW1 3792   7.201   6.214   3.945
  651SOL    HW2 3793   7.283   6.336   3.979
  652SOL     OW 3794   1.962   1.484  14.843
  652SOL    HW1 3795   1.963   1.436  14.760
  652SOL    HW2 3796   1.973   1.418   0.034
  653SOL     OW 3797   7.091   5.325  10.976
  653SOL    HW1 3798   7.161   5.305  11.038
  653SOL    HW2 3799   7.019   5.268  11.002
  654SOL     OW 3800   0.501  13.262  12.489
  654SOL    HW1 3801   0.457  13.325  12.546
  654SOL    HW2 3802   0.594  13.286  12.496
  655SOL     OW 3803   2.870   4.293   3.260
  655SOL    HW1 3804   2.797   4.354   3.247
  655SOL    HW2 3805   2.834   4.207   3.239
  656SOL     OW 3806   6.907   7.858   7.443
  656SOL    HW1 3807   6.904   7.807   7.362
  656SOL    HW2 3808   6.870   7.800   7.509
  657SOL     OW 3809   5.527  14.654   3.592
  657SOL    HW1 3810   5.617  14.675   3.618
  657SOL    HW2 3811   5.502  14.582   3.649
  658SOL     OW 3812   4.628   6.846  14.408
  658SOL    HW1 3813   4.666   6.804  14.331
  658SOL    HW2 3814   4.535   6.823  14.404
  659SOL     OW 3815   5.195   0.120   4.027
  659SOL    HW1 3816   5.145   0.041   4.045
  659SOL    HW2 3817   5.270   0.090   3.975
  660SOL     OW 3818  13.452   9.203   2.514
  660SOL    HW1 3819  13.541   9.214   2.483
  660SOL    HW2 3820  13.461   9.160   2.599
  661SOL     OW 3821   7.281  14.141  12.091
  661SOL    HW1 3822   7.341  14.073  12.062
  661SOL    HW2 3823   7.252  14.184  12.011
  662SOL     OW 3824   9.303  11.191   2.967
  662SOL    HW1 3825   9.256  11.108   2.958
  662SOL    HW2 3826   9.395  11.166   2.959
  663SOL     OW 3827  11.635   5.365   7.439
  663SOL    HW1 3828  11.692   5.378   7.363
  663SOL    HW2 3829  11.550   5.401   7.412
  664SOL     OW 3830   5.142  13.162   4.391
  664SOL    HW1 3831   5.198  13.116   4.453
  664SOL    HW2 3832   5.181  13.249   4.384
  665SOL     OW 3833   2.458  10.684   1.664
  665SOL    HW1 3834   2.477  10.720   1.751
  665SOL    HW2 3835   2.543  10.656   1.631
  666SOL     OW 3836   8.824   4.899   5.393
  666SOL    HW1 3837   8.761   4.828   5.380
  666SOL    HW2 3838   8.880   4.868   5.465
  667SOL     OW 3839   4.497  12.895   2.688
  667SOL    HW1 3840   4.541  12.847   2.619
  667SOL    HW2 3841   4.488  12.832   2.760
  668SOL     OW 3842  13.253   3.671  10.521
  668SOL    HW1 3843  13.174   3.725  10.525
  668SOL    HW2 3844  13.324   3.731  10.542
  669SOL     OW 3845   7.164   5.810   8.415
  669SOL    HW1 3846   7.226   5.828   8.345
  669SOL    HW2 3847   7.129   5.723   8.395
  670SOL     OW 3848   2.934   3.738   6.137
  670SOL    HW1 3849   2.943   3.818   6.189
  670SOL    HW2 3850   2.909   3.768   6.050
  671SOL     OW 3851   3.448   0.570   8.610
  671SOL    HW1 3852   3.499   0.648   8.588
  671SOL    HW2 3853   3.510   0.498   8.602
  672SOL     OW 3854   3.890   2.842   2.335
  672SOL    HW1 3855   3.951   2.882   2.272
  672SOL    HW2 3856   3.829   2.792   2.281
  673SOL     OW 3857   1.505   1.585   2.492
  673SOL    HW1 3858   1.434   1.633   2.449
  673SOL    HW2 3859   1.584   1.632   2.467
  674SOL     OW 3860   5.817  14.050   8.927
  674SOL    HW1 3861   5.743  14.071   8.870
  674SOL    HW2 3862   5.879  14.003   8.871
  675SOL     OW 3863   5.439  11.076   1.661
  675SOL    HW1 3864   5.489  11.083   1.743
  675SOL    HW2 3865   5.409  11.165   1.644
  676SOL     OW 3866   4.284   9.624   3.667
  676SOL    HW1 3867   4.328   9.665   3.593
  676SOL    HW2 3868   4.328   9.540   3.678
  677SOL     OW 3869   5.118   8.268   7.154
  677SOL    HW1 3870   5.030   8.295   7.129
  677SOL    HW2 3871   5.159   8.242   7.071
  678SOL     OW 3872  11.883   5.850   5.030
  678SOL    HW1 3873  11.792   5.874   5.017
  678SOL    HW2 3874  11.906   5.888   5.115
  679SOL     OW 3875   2.204   3.649   0.768
  679SOL    HW1 3876   2.200   3.745   0.774
  679SOL    HW2 3877   2.113   3.620   0.776
  680SOL     OW 3878   3.911   8.769  11.525
  680SOL    HW1 3879   3.881   8.833  11.460
  680SOL    HW2 3880   3.933   8.692  11.473
  681SOL     OW 3881   7.871   5.667   9.893
  681SOL    HW1 3882   7.908   5.669   9.981
  681SOL    HW2 3883   7.832   5.753   9.882
  682SOL     OW 3884   6.546   5.044   1.354
  682SOL    HW1 3885   6.512   4.955   1.367
  682SOL    HW2 3886   6.522   5.066   1.264
  683SOL     OW 3887   2.263   5.887   2.085
  683SOL    HW1 3888   2.286   5.795   2.073
  683SOL    HW2 3889   2.279   5.927   1.999
  684SOL     OW 3890   7.484   0.861  10.557
  684SOL    HW1 3891   7.558   0.819  10.513
  684SOL    HW2 3892   7.412   0.853  10.495
  685SOL     OW 3893   0.703   3.667   2.787
  685SOL    HW1 3894   0.662   3.670   2.701
  685SOL    HW2 3895   0.778   3.727   2.780
  686SOL     OW 3896   1.714   2.897   8.980
  686SOL    HW1 3897   1.689   2.983   9.015
  686SOL    HW2 3898   1.668   2.834   9.035
  687SOL     OW 3899   5.065   3.726  11.134
  687SOL    HW1 3900   5.068   3.679  11.051
  687SOL    HW2 3901   4.995   3.790  11.124
  688SOL     OW 3902   0.946   9.244  11.975
  688SOL    HW1 3903   0.926   9.151  11.983
  688SOL    HW2 3904   0.984   9.253  11.887
  689SOL     OW 3905   1.466   4.531   6.440
  689SOL    HW1 3906   1.514   4.533   6.522
  689SOL    HW2 3907   1.492   4.610   6.393
  690SOL     OW 3908   2.552   6.046   1.772
  690SOL    HW1 3909   2.518   6.083   1.853
  690SOL    HW2 3910   2.618   5.983   1.799
  691SOL     OW 3911   1.300   3.595  12.588
  691SOL    HW1 3912   1.236   3.525  12.573
  691SOL    HW2 3913   1.384   3.555  12.567
  692SOL     OW 3914  13.423  10.289   0.478
  692SOL    HW1 3915  13.328  10.274   0.482
  692SOL    HW2 3916  13.460  10.201   0.470
  693SOL     OW 3917   0.165   8.092  14.652
  693SOL    HW1 3918   0.182   8.144  14.574
  693SOL    HW2 3919   0.238   8.031  14.657
  694SOL     OW 3920   7.579   5.524   3.834
  694SOL    HW1 3921   7.648   5.530   3.768
  694SOL    HW2 3922   7.528   5.446   3.810
  695SOL     OW 3923  10.939  10.318   7.220
  695SOL    HW1 3924  11.017  10.264   7.213
  695SOL    HW2 3925  10.905  10.300   7.308
  696SOL     OW 3926   8.979  10.601   8.454
  696SOL    HW1 3927   9.022  10.524   8.490
  696SOL    HW2 3928   8.890  10.597   8.488
  697SOL     OW 3929   2.340   0.647   1.042
  697SOL    HW1 3930   2.309   0.727   1.084
  697SOL    HW2 3931   2.279   0.579   1.071
  698SOL     OW 3932   6.692   5.749   9.231
  698SOL    HW1 3933   6.737   5.820   9.185
  698SOL    HW2 3934   6.728   5.751   9.320
  699SOL     OW 3935   8.772   8.650   8.396
  699SOL    HW1 3936   8.724   8.733   8.397
  699SOL    HW2 3937   8.728   8.598   8.328
  700SOL     OW 3938   7.691   6.406   5.656
  700SOL    HW1 3939   7.674   6.335   5.594
  700SOL    HW2 3940   7.612   6.460   5.652
  701SOL     OW 3941   4.347   1.418  10.720
  701SOL    HW1 3942   4.364   1.334  10.762
  701SOL    HW2 3943   4.253   1.417  10.702
  702SOL     OW 3944   0.011   6.072   4.953
  702SOL    HW1 3945   0.012   5.987   4.997
  702SOL    HW2 3946   0.043   6.054   4.864
  703SOL     OW 3947   4.827   0.231  12.367
  703SOL    HW1 3948   4.864   0.271  12.445
  703SOL    HW2 3949   4.843   0.137  12.378
  704SOL     OW 3950   6.076  10.849   1.162
  704SOL    HW1 3951   6.150  10.827   1.219
  704SOL    HW2 3952   6.022  10.908   1.214
  705SOL     OW 3953  11.340   8.896   1.561
  705SOL    HW1 3954  11.357   8.931   1.474
  705SOL    HW2 3955  11.249   8.866   1.558
  706SOL     OW 3956   5.859  13.099   9.077
  706SOL    HW1 3957   5.874  13.139   8.992
  706SOL    HW2 3958   5.912  13.150   9.138
  707SOL     OW 3959  13.026  13.445   5.932
  707SOL    HW1 3960  13.008  13.537   5.913
  707SOL    HW2 3961  13.062  13.410   5.851
  708SOL     OW 3962   1.062   6.799   0.797
  708SOL    HW1 3963   1.055   6.876   0.741
  708SOL    HW2 3964   1.024   6.728   0.745
  709SOL     OW 3965  12.153   9.773   7.332
  709SOL    HW1 3966  12.206   9.805   7.405
  709SOL    HW2 3967  12.126   9.685   7.359
  710SOL     OW 3968   6.748  13.661   1.955
  710SOL    HW1 3969   6.706  13.745   1.938
  710SOL    HW2 3970   6.685  13.614   2.011
  711SOL     OW 3971   3.696  14.790   4.792
  711SOL    HW1 3972   3.746  14.853   4.845
  711SOL    HW2 3973   3.693  14.711   4.846
  712SOL     OW 3974  14.604   3.284   0.426
  712SOL    HW1 3975  14.558   3.363   0.397
  712SOL    HW2 3976  14.550   3.248   0.496
  713SOL     OW 3977   6.570   1.263   6.315
  713SOL    HW1 3978   6.622   1.216   6.249
  713SOL    HW2 3979   6.507   1.313   6.263
  714SOL     OW 3980   1.203   6.854   3.822
  714SOL    HW1 3981   1.139   6.913   3.782
  714SOL    HW2 3982   1.187   6.861   3.916
  715SOL     OW 3983   3.718   2.616   3.804
  715SOL    HW1 3984   3.780   2.689   3.808
  715SOL    HW2 3985   3.736   2.575   3.720
  716SOL     OW 3986   6.745   9.171   3.188
  716SOL    HW1 3987   6.737   9.256   3.230
  716SOL    HW2 3988   6.830   9.138   3.217
  717SOL     OW 3989   3.421   2.680   2.788
  717SOL    HW1 3990   3.471   2.608   2.749
  717SOL    HW2 3991   3.487   2.746   2.809
  718SOL     OW 3992  11.002   0.296   9.173
  718SOL    HW1 3993  11.010   0.391   9.181
  718SOL    HW2 3994  11.069   0.262   9.232
  719SOL     OW 3995   0.884   0.983   0.973
  719SOL    HW1 3996   0.951   1.026   1.027
  719SOL    HW2 3997   0.802   1.000   1.018
  720SOL     OW 3998   4.305  13.783   4.397
  720SOL    HW1 3999   4.270  13.830   4.473
  720SOL    HW2 4000   4.280  13.838   4.322
  721SOL     OW 4001   7.941  11.812  13.440
  721SOL    HW1 4002   8.008  11.839  13.376
  721SOL    HW2 4003   7.990  11.797  13.521
  722SOL     OW 4004  13.289   5.901   1.744
  722SOL    HW1 4005  13.210   5.858   1.777
  722SOL    HW2 4006  13.257   5.980   1.700
  723SOL     OW 4007   4.163  11.130   3.583
  723SOL    HW1 4008   4.255  11.146   3.605
  723SOL    HW2 4009   4.139  11.052   3.633
  724SOL     OW 4010  11.705   8.541  13.252
  724SOL    HW1 4011  11.721   8.494  13.170
  724SOL    HW2 4012  11.646   8.612  13.227
  725SOL     OW 4013   9.741   7.968  10.722
  725SOL    HW1 4014   9.777   7.910  10.655
  725SOL    HW2 4015   9.663   8.006  10.682
  726SOL     OW 4016   2.048   0.496  12.450
  726SOL    HW1 4017   1.997   0.445  12.512
  726SOL    HW2 4018   2.059   0.581  12.491
  727SOL     OW 4019   7.121   3.076   0.225
  727SOL    HW1 4020   7.090   3.094   0.136
  727SOL    HW2 4021   7.167   3.156   0.250
  728SOL     OW 4022   9.076  13.038   5.523
  728SOL    HW1 4023   9.135  13.035   5.448
  728SOL    HW2 4024   9.116  12.979   5.587
  729SOL     OW 4025  13.660   8.854   0.501
  729SOL    HW1 4026  13.592   8.909   0.462
  729SOL    HW2 4027  13.697   8.909   0.570
  730SOL     OW 4028  10.249  13.472  12.762
  730SOL    HW1 4029  10.222  13.563  12.774
  730SOL    HW2 4030  10.297  13.472  12.679
  731SOL     OW 4031   0.686  12.177   9.500
  731SOL    HW1 4032   0.704  12.269   9.522
  731SOL    HW2 4033   0.772  12.141   9.477
  732SOL     OW 4034  13.826  11.921   0.763
  732SOL    HW1 4035  13.834  11.969   0.846
  732SOL    HW2 4036  13.811  11.830   0.789
  733SOL     OW 4037   4.807   6.457  14.160
  733SOL    HW1 4038   4.886   6.407  14.142
  733SOL    HW2 4039   4.743   6.392  14.188
  734SOL     OW 4040   5.235   8.725   1.434
  734SOL    HW1 4041   5.170   8.692   1.373
  734SOL    HW2 4042   5.309   8.666   1.426
  735SOL     OW 4043   4.721  14.005   1.365
  735SOL    HW1 4044   4.762  14.007   1.451
  735SOL    HW2 4045   4.661  13.931   1.368
  736SOL     OW 4046   1.960   2.689  14.214
  736SOL    HW1 4047   1.945   2.619  14.151
  736SOL    HW2 4048   2.054   2.705  14.210
  737SOL     OW 4049   0.849  10.275  11.063
  737SOL    HW1 4050   0.921  10.213  11.078
  737SOL    HW2 4051   0.792  10.263  11.139
  738SOL     OW 4052   5.235   0.063   8.928
  738SOL    HW1 4053   5.212  14.854   8.965
  738SOL    HW2 4054   5.322   0.050   8.889
  739SOL     OW 4055   1.138  12.278   2.713
  739SOL    HW1 4056   1.130  12.219   2.638
  739SOL    HW2 4057   1.050  12.284   2.749
  740SOL     OW 4058   8.241   0.761   0.177
  740SOL    HW1 4059   8.326   0.755   0.220
  740SOL    HW2 4060   8.197   0.679   0.199
  741SOL     OW 4061  10.803   1.315   8.527
  741SOL    HW1 4062  10.833   1.234   8.569
  741SOL    HW2 4063  10.873   1.337   8.465
  742SOL     OW 4064   0.699   0.382   3.162
  742SOL    HW1 4065   0.737   0.298   3.134
  742SOL    HW2 4066   0.626   0.396   3.102
  743SOL     OW 4067   1.518  12.018   1.523
  743SOL    HW1 4068   1.606  11.996   1.553
  743SOL    HW2 4069   1.459  11.968   1.579
  744SOL     OW 4070   7.876   2.323  11.318
  744SOL    HW1 4071   7.845   2.384  11.252
  744SOL    HW2 4072   7.970   2.342  11.327
  745SOL     OW 4073  11.462   9.540  13.428
  745SOL    HW1 4074  11.546   9.565  13.466
  745SOL    HW2 4075  11.482   9.461  13.378
  746SOL     OW 4076   6.243   7.647   5.151
  746SOL    HW1 4077   6.292   7.581   5.103
  746SOL    HW2 4078   6.192   7.598   5.215
  747SOL     OW 4079   7.187  12.473   7.910
  747SOL    HW1 4080   7.253  12.438   7.849
  747SOL    HW2 4081   7.113  12.497   7.854
  748SOL     OW 4082   7.898  11.150   6.293
  748SOL    HW1 4083   7.960  11.132   6.364
  748SOL    HW2 4084   7.850  11.068   6.283
  749SOL     OW 4085   7.452   9.133  12.050
  749SOL    HW1 4086   7.375   9.189  12.039
  749SOL    HW2 4087   7.472   9.102  11.961
  750SOL     OW 4088   8.388   6.682   7.122
  750SOL    HW1 4089   8.449   6.733   7.070
  750SOL    HW2 4090   8.377   6.600   7.073
  751SOL     OW 4091  13.356   6.975  12.183
  751SOL    HW1 4092  13.306   7.022  12.116
  751SOL    HW2 4093  13.367   7.039  12.253
  752SOL     OW 4094  14.010   4.399   5.329
  752SOL    HW1 4095  14.058   4.425   5.250
  752SOL    HW2 4096  13.942   4.340   5.297
  753SOL     OW 4097   1.896   3.537   5.058
  753SOL    HW1 4098   1.805   3.520   5.081
  753SOL    HW2 4099   1.931   3.451   5.034
  754SOL     OW 4100   2.796   5.098  12.823
  754SOL    HW1 4101   2.737   5.171  12.808
  754SOL    HW2 4102   2.819   5.067  12.735
  755SOL     OW 4103   4.254   0.185   5.040
  755SOL    HW1 4104   4.222   0.103   5.002
  755SOL    HW2 4105   4.328   0.159   5.095
  756SOL     OW 4106   1.657   3.783  13.261
  756SOL    HW1 4107   1.603   3.830  13.197
  756SOL    HW2 4108   1.746   3.791  13.227
  757SOL     OW 4109  14.336   4.471   5.390
  757SOL    HW1 4110  14.250   4.513   5.381
  757SOL    HW2 4111  14.371   4.506   5.472
  758SOL     OW 4112   7.359   9.022   1.187
  758SOL    HW1 4113   7.311   8.941   1.172
  758SOL    HW2 4114   7.390   9.049   1.100
  759SOL     OW 4115   7.884   5.282   5.721
  759SOL    HW1 4116   7.842   5.269   5.636
  759SOL    HW2 4117   7.868   5.374   5.742
  760SOL     OW 4118  14.225   8.934  11.269
  760SOL    HW1 4119  14.270   9.015  11.244
  760SOL    HW2 4120  14.291   8.885  11.319
  761SOL     OW 4121  11.873  14.762  12.990
  761SOL    HW1 4122  11.960  14.782  13.024
  761SOL    HW2 4123  11.882  14.676  12.950
  762SOL     OW 4124  10.727   6.964  14.105
  762SOL    HW1 4125  10.759   7.011  14.028
  762SOL    HW2 4126  10.797   6.903  14.126
  763SOL     OW 4127   4.170   4.864   6.852
  763SOL    HW1 4128   4.081   4.829   6.857
  763SOL    HW2 4129   4.162   4.955   6.882
  764SOL     OW 4130   9.115  10.091   5.727
  764SOL    HW1 4131   9.173  10.163   5.752
  764SOL    HW2 4132   9.064  10.073   5.806
  765SOL     OW 4133   0.139   1.545   8.618
  765SOL    HW1 4134   0.079   1.572   8.688
  765SOL    HW2 4135   0.183   1.467   8.652
  766SOL     OW 4136   9.510   4.442   8.229
  766SOL    HW1 4137   9.427   4.412   8.266
  766SOL    HW2 4138   9.559   4.477   8.304
  767SOL     OW 4139   8.218  14.034   6.027
  767SOL    HW1 4140   8.285  14.098   6.054
  767SOL    HW2 4141   8.264  13.976   5.966
  768SOL     OW 4142   3.053   4.988   1.713
  768SOL    HW1 4143   3.003   4.953   1.639
  768SOL    HW2 4144   2.986   5.010   1.778
  769SOL     OW 4145  12.965   3.648   6.565
  769SOL    HW1 4146  12.951   3.607   6.479
  769SOL    HW2 4147  12.889   3.705   6.577
  770SOL     OW 4148   7.962  13.810   3.832
  770SOL    HW1 4149   7.955  13.828   3.738
  770SOL    HW2 4150   7.912  13.729   3.844
  771SOL     OW 4151   1.585   2.866   8.686
  771SOL    HW1 4152   1.659   2.887   8.743
  771SOL    HW2 4153   1.565   2.775   8.705
  772SOL     OW 4154   7.169   4.276  14.856
  772SOL    HW1 4155   7.097   4.218   0.005
  772SOL    HW2 4156   7.141   4.363   0.008
  773SOL     OW 4157   5.323   4.512  12.637
  773SOL    HW1 4158   5.310   4.595  12.590
  773SOL    HW2 4159   5.279   4.446  12.583
  774SOL     OW 4160  14.398   6.747   4.335
  774SOL    HW1 4161  14.342   6.790   4.271
  774SOL    HW2 4162  14.477   6.800   4.337
  775SOL     OW 4163  10.857  14.751   6.495
  775SOL    HW1 4164  10.825  14.664   6.469
  775SOL    HW2 4165  10.940  14.733   6.538
  776SOL     OW 4166   7.292  14.424   4.747
  776SOL    HW1 4167   7.295  14.490   4.816
  776SOL    HW2 4168   7.384  14.407   4.727
  777SOL     OW 4169   8.279  10.693  11.740
  777SOL    HW1 4170   8.314  10.610  11.706
  777SOL    HW2 4171   8.326  10.760  11.691
  778SOL     OW 4172   4.111  12.621   6.965
  778SOL    HW1 4173   4.021  12.607   6.994
  778SOL    HW2 4174   4.107  12.698   6.909
  779SOL     OW 4175  14.525   4.555   3.171
  779SOL    HW1 4176  14.610   4.516   3.147
  779SOL    HW2 4177  14.460   4.491   3.142
  780SOL     OW 4178   9.977   0.739   0.334
  780SOL    HW1 4179   9.997   0.720   0.426
  780SOL    HW2 4180  10.023   0.821   0.316
  781SOL     OW 4181   1.926  10.610  11.297
  781SOL    HW1 4182   1.840  10.645  11.272
  781SOL    HW2 4183   1.983  10.687  11.301
  782SOL     OW 4184   8.538   6.457  14.717
  782SOL    HW1 4185   8.587   6.536  14.738
  782SOL    HW2 4186   8.525   6.462  14.622
  783SOL     OW 4187   1.812   8.563   0.974
  783SOL    HW1 4188   1.819   8.473   0.944
  783SOL    HW2 4189   1.721   8.573   1.001
  784SOL     OW 4190   4.534   3.260   9.512
  784SOL    HW1 4191   4.543   3.341   9.562
  784SOL    HW2 4192   4.619   3.217   9.521
  785SOL     OW 4193   8.628   3.509   6.318
  785SOL    HW1 4194   8.569   3.513   6.393
  785SOL    HW2 4195   8.577   3.465   6.250
  786SOL     OW 4196   5.045   5.367   7.003
  786SOL    HW1 4197   5.089   5.449   6.985
  786SOL    HW2 4198   5.096   5.326   7.073
  787SOL     OW 4199   2.218   9.596   8.980
  787SOL    HW1 4200   2.170   9.559   8.906
  787SOL    HW2 4201   2.308   9.605   8.947
  788SOL     OW 4202  14.056   9.393   1.624
  788SOL    HW1 4203  14.129   9.407   1.684
  788SOL    HW2 4204  13.998   9.468   1.638
  789SOL     OW 4205  12.062   9.695   0.279
  789SOL    HW1 4206  11.975   9.709   0.316
  789SOL    HW2 4207  12.122   9.728   0.346
  790SOL     OW 4208   7.016   5.717  10.973
  790SOL    HW1 4209   7.002   5.811  10.964
  790SOL    HW2 4210   7.020   5.685  10.883
  791SOL     OW 4211   7.629  12.283  10.224
  791SOL    HW1 4212   7.610  12.366  10.179
  791SOL    HW2 4213   7.677  12.232  10.159
  792SOL     OW 4214  12.416  11.461   8.346
  792SOL    HW1 4215  12.489  11.484   8.404
  792SOL    HW2 4216  12.420  11.525   8.275
  793SOL     OW 4217   1.657   1.606   3.147
  793SOL    HW1 4218   1.736   1.628   3.197
  793SOL    HW2 4219   1.668   1.515   3.123
  794SOL     OW 4220   3.877  13.518   4.132
  794SOL    HW1 4221   3.885  13.574   4.209
  794SOL    HW2 4222   3.803  13.460   4.153
  795SOL     OW 4223   8.548   2.177  10.760
  795SOL    HW1 4224   8.622   2.237  10.757
  795SOL    HW2 4225   8.548   2.134  10.675
  796SOL     OW 4226  12.414   5.330  12.701
  796SOL    HW1 4227  12.341   5.391  12.712
  796SOL    HW2 4228  12.431   5.297  12.789
  797SOL     OW 4229   7.173   1.149   2.264
  797SOL    HW1 4230   7.244   1.211   2.245
  797SOL    HW2 4231   7.217   1.075   2.306
  798SOL     OW 4232   3.136   8.679   0.374
  798SOL    HW1 4233   3.079   8.679   0.451
  798SOL    HW2 4234   3.109   8.602   0.325
  799SOL     OW 4235  13.316  10.645   6.784
  799SOL    HW1 4236  13.290  10.628   6.693
  799SOL    HW2 4237  13.235  10.639   6.834
  800SOL     OW 4238   1.424   0.710  10.391
  800SOL    HW1 4239   1.450   0.759  10.469
  800SOL    HW2 4240   1.503   0.710  10.336
  801SOL     OW 4241   5.146   5.071   6.532
  801SOL    HW1 4242   5.223   5.127   6.515
  801SOL    HW2 4243   5.091   5.124   6.590
  802SOL     OW 4244   0.132  10.883   5.805
  802SOL    HW1 4245   0.163  10.820   5.740
  802SOL    HW2 4246   0.082  10.830   5.868
  803SOL     OW 4247  13.610  12.674   3.265
  803SOL    HW1 4248  13.609  12.769   3.278
  803SOL    HW2 4249  13.702  12.650   3.276
  804SOL     OW 4250   9.675   7.721   3.296
  804SOL    HW1 4251   9.749   7.771   3.331
  804SOL    HW2 4252   9.710   7.679   3.217
  805SOL     OW 4253   5.372   9.569  14.638
  805SOL    HW1 4254   5.458   9.536  14.663
  805SOL    HW2 4255   5.383   9.598  14.547
  806SOL     OW 4256   5.902   2.858   6.472
  806SOL    HW1 4257   5.985   2.896   6.501
  806SOL    HW2 4258   5.864   2.821   6.551
  807SOL     OW 4259  10.209  13.981   8.116
  807SOL    HW1 4260  10.165  14.060   8.083
  807SOL    HW2 4261  10.198  13.986   8.211
  808SOL     OW 4262  14.321   2.576  11.002
  808SOL    HW1 4263  14.398   2.589  10.947
  808SOL    HW2 4264  14.320   2.482  11.020
  809SOL     OW 4265  14.464  13.151   0.933
  809SOL    HW1 4266  14.397  13.127   0.869
  809SOL    HW2 4267  14.462  13.081   0.998
  810SOL     OW 4268   2.949  13.512  11.061
  810SOL    HW1 4269   2.875  13.572  11.060
  810SOL    HW2 4270   2.910  13.425  11.064
  811SOL     OW 4271   1.123   0.233   2.503
  811SOL    HW1 4272   1.089   0.313   2.544
  811SOL    HW2 4273   1.151   0.261   2.416
  812SOL     OW 4274  10.338   0.595   1.502
  812SOL    HW1 4275  10.302   0.681   1.477
  812SOL    HW2 4276  10.369   0.557   1.419
  813SOL     OW 4277  14.509   3.909  13.002
  813SOL    HW1 4278  14.583   3.970  13.003
  813SOL    HW2 4279  14.445   3.951  12.945
  814SOL     OW 4280   4.216   0.717  11.240
  814SOL    HW1 4281   4.159   0.784  11.278
  814SOL    HW2 4282   4.302   0.735  11.279
  815SOL     OW 4283   6.493   8.771   0.170
  815SOL    HW1 4284   6.478   8.848   0.116
  815SOL    HW2 4285   6.523   8.704   0.108
  816SOL     OW 4286  13.284   3.846  14.481
  816SOL    HW1 4287  13.298   3.876  14.391
  816SOL    HW2 4288  13.318   3.756  14.481
  817SOL     OW 4289  14.491  14.326   6.568
  817SOL    HW1 4290  14.529  14.399   6.618
  817SOL    HW2 4291  14.458  14.368   6.488
  818SOL     OW 4292   3.039   8.840   4.451
  818SOL    HW1 4293   3.135   8.833   4.447
  818SOL    HW2 4294   3.017   8.903   4.383
  819SOL     OW 4295   8.581   7.119   4.755
  819SOL    HW1 4296   8.530   7.054   4.707
  819SOL    HW2 4297   8.651   7.068   4.797
  820SOL     OW 4298   8.296  11.011   0.823
  820SOL    HW1 4299   8.289  11.093   0.872
  820SOL    HW2 4300   8.366  10.963   0.867
  821SOL     OW 4301   1.311   6.405   4.226
  821SOL    HW1 4302   1.396   6.368   4.249
  821SOL    HW2 4303   1.331   6.490   4.186
  822SOL     OW 4304  10.263   6.289   4.137
  822SOL    HW1 4305  10.239   6.268   4.047
  822SOL    HW2 4306  10.359   6.293   4.136
  823SOL     OW 4307  10.824  13.996   8.396
  823SOL    HW1 4308  10.820  13.955   8.483
  823SOL    HW2 4309  10.825  13.922   8.335
  824SOL     OW 4310   0.768   9.058   4.858
  824SOL    HW1 4311   0.768   9.072   4.763
  824SOL    HW2 4312   0.681   9.025   4.878
  825SOL     OW 4313   3.343  10.703   4.368
  825SOL    HW1 4314   3.413  10.731   4.427
  825SOL    HW2 4315   3.288  10.646   4.422
  826SOL     OW 4316  13.203   3.873   6.815
  826SOL    HW1 4317  13.205   3.798   6.756
  826SOL    HW2 4318  13.147   3.937   6.770
  827SOL     OW 4319   3.557  11.309   8.481
  827SOL    HW1 4320   3.547  11.302   8.576
  827SOL    HW2 4321   3.575  11.402   8.465
  828SOL     OW 4322   7.685   4.173  10.199
  828SOL    HW1 4323   7.637   4.217  10.270
  828SOL    HW2 4324   7.619   4.117  10.157
  829SOL     OW 4325   4.904  13.374   2.175
  829SOL    HW1 4326   4.861  13.320   2.109
  829SOL    HW2 4327   4.865  13.461   2.165
  830SOL     OW 4328   5.754   5.466  14.573
  830SOL    HW1 4329   5.787   5.554  14.553
  830SOL    HW2 4330   5.784   5.449  14.662
  831SOL     OW 4331  10.361   1.029   3.616
  831SOL    HW1 4332  10.326   0.944   3.589
  831SOL    HW2 4333  10.297   1.092   3.584
  832SOL     OW 4334   6.646   1.748   7.776
  832SOL    HW1 4335   6.618   1.759   7.685
  832SOL    HW2 4336   6.733   1.709   7.769
  833SOL     OW 4337  11.868  13.953   6.519
  833SOL    HW1 4338  11.945  13.927   6.569
  833SOL    HW2 4339  11.890  13.929   6.429
  834SOL     OW 4340   7.501  13.593  12.773
  834SOL    HW1 4341   7.412  13.620  12.749
  834SOL    HW2 4342   7.491  13.503  12.802
  835SOL     OW 4343   4.997  12.736  13.366
  835SOL    HW1 4344   5.027  12.690  13.287
  835SOL    HW2 4345   5.077  12.770  13.405
  836SOL     OW 4346   8.669   1.734   9.014
  836SOL    HW1 4347   8.756   1.719   8.978
  836SOL    HW2 4348   8.685   1.775   9.099
  837SOL     OW 4349   1.424  11.972  10.475
  837SOL    HW1 4350   1.346  11.965  10.421
  837SOL    HW2 4351   1.482  11.903  10.444
  838SOL     OW 4352   0.532  14.209   9.794
  838SOL    HW1 4353   0.590  14.137   9.768
  838SOL    HW2 4354   0.444  14.179   9.768
  839SOL     OW 4355  14.628   8.855   1.751
  839SOL    HW1 4356  14.667   8.908   1.820
  839SOL    HW2 4357  14.694   8.788   1.732
  840SOL     OW 4358   0.498   2.917   5.499
  840SOL    HW1 4359   0.574   2.930   5.442
  840SOL    HW2 4360   0.497   2.823   5.517
  841SOL     OW 4361   4.505   5.432  12.005
  841SOL    HW1 4362   4.568   5.362  12.024
  841SOL    HW2 4363   4.556   5.512  12.012
  842SOL     OW 4364  13.013   1.254  11.598
  842SOL    HW1 4365  12.933   1.272  11.548
  842SOL    HW2 4366  13.067   1.202  11.538
  843SOL     OW 4367   4.170   5.466  11.962
  843SOL    HW1 4368   4.217   5.389  11.932
  843SOL    HW2 4369   4.078   5.447  11.944
  844SOL     OW 4370   2.944   2.449   2.156
  844SOL    HW1 4371   3.000   2.520   2.186
  844SOL    HW2 4372   2.961   2.442   2.063
  845SOL     OW 4373  14.318   3.149   7.448
  845SOL    HW1 4374  14.276   3.216   7.394
  845SOL    HW2 4375  14.398   3.192   7.481
  846SOL     OW 4376   5.780  11.100   3.173
  846SOL    HW1 4377   5.872  11.112   3.197
  846SOL    HW2 4378   5.760  11.174   3.116
  847SOL     OW 4379   2.267   0.365   7.356
  847SOL    HW1 4380   2.244   0.454   7.384
  847SOL    HW2 4381   2.278   0.373   7.261
  848SOL     OW 4382  10.889   2.517   0.012
  848SOL    HW1 4383  10.905   2.598  14.840
  848SOL    HW2 4384  10.916   2.536   0.102
  849SOL     OW 4385  10.372   7.575   7.711
  849SOL    HW1 4386  10.428   7.547   7.639
  849SOL    HW2 4387  10.347   7.665   7.689
  850SOL     OW 4388   7.299   5.959   3.127
  850SOL    HW1 4389   7.251   5.929   3.050
  850SOL    HW2 4390   7.231   5.988   3.188
  851SOL     OW 4391   3.406   4.221   2.929
  851SOL    HW1 4392   3.473   4.197   2.865
  851SOL    HW2 4393   3.357   4.292   2.887
  852SOL     OW 4394   8.930   5.280  10.671
  852SOL    HW1 4395   9.003   5.222  10.650
  852SOL    HW2 4396   8.966   5.368  10.659
  853SOL     OW 4397  10.057  12.144   2.708
  853SOL    HW1 4398   9.999  12.117   2.637
  853SOL    HW2 4399  10.000  12.147   2.785
  854SOL     OW 4400  14.312  13.124   1.252
  854SOL    HW1 4401  14.364  13.205   1.259
  854SOL    HW2 4402  14.316  13.086   1.339
  855SOL     OW 4403   8.939   2.285   3.903
  855SOL    HW1 4404   8.948   2.229   3.980
  855SOL    HW2 4405   8.903   2.367   3.938
  856SOL     OW 4406   0.457  12.298  14.863
  856SOL    HW1 4407   0.521  12.235  14.831
  856SOL    HW2 4408   0.449  12.362  14.792
  857SOL     OW 4409   3.471  13.764   4.207
  857SOL    HW1 4410   3.391  13.815   4.200
  857SOL    HW2 4411   3.457  13.688   4.152
  858SOL     OW 4412   4.799   8.289   9.954
  858SOL    HW1 4413   4.841   8.367   9.989
  858SOL    HW2 4414   4.860   8.258   9.887
  859SOL     OW 4415   6.306   2.665   8.483
  859SOL    HW1 4416   6.266   2.625   8.560
  859SOL    HW2 4417   6.397   2.681   8.508
  860SOL     OW 4418   9.347   4.840   5.853
  860SOL    HW1 4419   9.334   4.788   5.773
  860SOL    HW2 4420   9.362   4.776   5.922
  861SOL     OW 4421  11.344  10.706  12.150
  861SOL    HW1 4422  11.273  10.652  12.115
  861SOL    HW2 4423  11.303  10.790  12.169
  862SOL     OW 4424  12.779  14.873  13.032
  862SOL    HW1 4425  12.770   0.074  12.977
  862SOL    HW2 4426  12.828   0.027  13.109
  863SOL     OW 4427   8.946  13.973   7.248
  863SOL    HW1 4428   8.855  13.963   7.220
  863SOL    HW2 4429   8.941  13.979   7.344
  864SOL     OW 4430  13.816   4.617  10.731
  864SOL    HW1 4431  13.857   4.567  10.801
  864SOL    HW2 4432  13.759   4.553  10.686
  865SOL     OW 4433   8.025   0.914   3.692
  865SOL    HW1 4434   7.931   0.910   3.675
  865SOL    HW2 4435   8.041   0.845   3.756
  866SOL     OW 4436   1.347   2.029   1.501
  866SOL    HW1 4437   1.431   1.993   1.529
  866SOL    HW2 4438   1.329   2.099   1.564
  867SOL     OW 4439   1.606  14.071  11.027
  867SOL    HW1 4440   1.651  13.987  11.038
  867SOL    HW2 4441   1.616  14.091  10.933
  868SOL     OW 4442   9.557   1.261  14.486
  868SOL    HW1 4443   9.529   1.334  14.540
  868SOL    HW2 4444   9.643   1.286  14.454
  869SOL     OW 4445   4.310   3.169   5.845
  869SOL    HW1 4446   4.384   3.144   5.899
  869SOL    HW2 4447   4.243   3.104   5.864
  870SOL     OW 4448   1.893  13.184   4.770
  870SOL    HW1 4449   1.969  13.138   4.735
  870SOL    HW2 4450   1.828  13.116   4.787
  871SOL     OW 4451  14.585  11.040   4.953
  871SOL    HW1 4452  14.552  11.095   5.024
  871SOL    HW2 4453  14.619  10.962   4.997
  872SOL     OW 4454   6.607   1.621   6.311
  872SOL    HW1 4455   6.582   1.561   6.382
  872SOL    HW2 4456   6.666   1.684   6.353
  873SOL     OW 4457   5.682   6.465  10.427
  873SOL    HW1 4458   5.634   6.499  10.351
  873SOL    HW2 4459   5.616   6.452  10.494
  874SOL     OW 4460   6.968  10.026  14.566
  874SOL    HW1 4461   6.910  10.022  14.490
  874SOL    HW2 4462   6.958   9.941  14.609
  875SOL     OW 4463   1.718  12.029   2.343
  875SOL    HW1 4464   1.813  12.023   2.350
  875SOL    HW2 4465   1.703  12.084   2.266
  876SOL     OW 4466   7.040   7.179   3.347
  876SOL    HW1 4467   7.062   7.101   3.398
  876SOL    HW2 4468   6.959   7.211   3.385
  877SOL     OW 4469   3.199  12.001   8.362
  877SOL    HW1 4470   3.231  11.911   8.354
  877SOL    HW2 4471   3.168  12.023   8.274
  878SOL     OW 4472  11.969   5.603   8.948
  878SOL    HW1 4473  12.011   5.682   8.982
  878SOL    HW2 4474  11.894   5.589   9.005
  879SOL     OW 4475   6.737  12.872  14.509
  879SOL    HW1 4476   6.763  12.829  14.428
  879SOL    HW2 4477   6.774  12.818  14.579
  880SOL     OW 4478   6.437  10.071  12.859
  880SOL    HW1 4479   6.490  10.069  12.939
  880SOL    HW2 4480   6.441   9.982  12.825
  881SOL     OW 4481   8.463   1.689   3.150
  881SOL    HW1 4482   8.417   1.681   3.067
  881SOL    HW2 4483   8.533   1.624   3.146
  882SOL     OW 4484   0.494   7.641   7.035
  882SOL    HW1 4485   0.404   7.613   7.018
  882SOL    HW2 4486   0.539   7.627   6.952
  883SOL     OW 4487   1.907  13.063   0.917
  883SOL    HW1 4488   1.865  13.148   0.933
  883SOL    HW2 4489   1.879  13.008   0.990
  884SOL     OW 4490  12.066  10.487   6.742
  884SOL    HW1 4491  12.119  10.565   6.759
  884SOL    HW2 4492  11.998  10.489   6.810
  885SOL     OW 4493  12.895   7.322   3.953
  885SOL    HW1 4494  12.810   7.289   3.923
  885SOL    HW2 4495  12.954   7.247   3.946
  886SOL     OW 4496  10.879  10.487  10.262
  886SOL    HW1 4497  10.903  10.463  10.351
  886SOL    HW2 4498  10.783  10.492  10.264
  887SOL     OW 4499   5.122   0.881   9.050
  887SOL    HW1 4500   5.121   0.972   9.021
  887SOL    HW2 4501   5.214   0.855   9.042
  888SOL     OW 4502  14.867   7.580   0.139
  888SOL    HW1 4503   0.022   7.633   0.212
  888SOL    HW2 4504  14.816   7.510   0.180
  889SOL     OW 4505  11.613  11.643  14.424
  889SOL    HW1 4506  11.559  11.714  14.390
  889SOL    HW2 4507  11.698  11.654  14.381
  890SOL     OW 4508   0.893  10.968   4.873
  890SOL    HW1 4509   0.902  10.917   4.954
  890SOL    HW2 4510   0.925  10.910   4.804
  891SOL     OW 4511   8.168   4.444   9.656
  891SOL    HW1 4512   8.099   4.379   9.645
  891SOL    HW2 4513   8.209   4.450   9.570
  892SOL     OW 4514   5.462   7.437   5.154
  892SOL    HW1 4515   5.411   7.439   5.073
  892SOL    HW2 4516   5.414   7.377   5.211
  893SOL     OW 4517   3.388   2.957   7.082
  893SOL    HW1 4518   3.333   2.896   7.034
  893SOL    HW2 4519   3.338   3.038   7.085
  894SOL     OW 4520   9.677  10.004   8.193
  894SOL    HW1 4521   9.646   9.971   8.109
  894SOL    HW2 4522   9.710  10.091   8.174
  895SOL     OW 4523   5.662   8.528   5.166
  895SOL    HW1 4524   5.690   8.437   5.171
  895SOL    HW2 4525   5.691   8.567   5.248
  896SOL     OW 4526   1.656   9.742   3.323
  896SOL    HW1 4527   1.627   9.676   3.387
  896SOL    HW2 4528   1.593   9.813   3.333
  897SOL     OW 4529   4.789  11.752   0.474
  897SOL    HW1 4530   4.854  11.822   0.470
  897SOL    HW2 4531   4.836  11.677   0.511
  898SOL     OW 4532  10.774   1.684   9.165
  898SOL    HW1 4533  10.767   1.615   9.231
  898SOL    HW2 4534  10.684   1.714   9.151
  899SOL     OW 4535   2.352   9.222   0.618
  899SOL    HW1 4536   2.258   9.211   0.631
  899SOL    HW2 4537   2.360   9.270   0.536
  900SOL     OW 4538   5.239  10.738   2.783
  900SOL    HW1 4539   5.307  10.759   2.719
  900SOL    HW2 4540   5.190  10.667   2.742
  901SOL     OW 4541   1.667  10.595   3.338
  901SOL    HW1 4542   1.677  10.683   3.376
  901SOL    HW2 4543   1.745  10.584   3.283
  902SOL     OW 4544  14.831   8.621   4.921
  902SOL    HW1 4545  14.743   8.656   4.930
  902SOL    HW2 4546  14.820   8.526   4.918
  903SOL     OW 4547   6.176   2.171  11.448
  903SOL    HW1 4548   6.174   2.090  11.397
  903SOL    HW2 4549   6.236   2.228  11.400
  904SOL     OW 4550  13.094   8.755  13.388
  904SOL    HW1 4551  13.067   8.668  13.357
  904SOL    HW2 4552  13.017   8.810  13.377
  905SOL     OW 4553  10.236   4.397   0.560
  905SOL    HW1 4554  10.298   4.375   0.630
  905SOL    HW2 4555  10.196   4.314   0.536
  906SOL     OW 4556  14.775  10.043  13.592
  906SOL    HW1 4557  14.809  10.107  13.654
  906SOL    HW2 4558  14.854  10.004  13.553
  907SOL     OW 4559   1.727   8.494  11.102
  907SOL    HW1 4560   1.734   8.413  11.152
  907SOL    HW2 4561   1.767   8.560  11.158
  908SOL     OW 4562   0.870  10.541   5.389
  908SOL    HW1 4563   0.790  10.539   5.337
  908SOL    HW2 4564   0.855  10.611   5.453
  909SOL     OW 4565   4.115   4.016   6.446
  909SOL    HW1 4566   4.095   3.922   6.446
  909SOL    HW2 4567   4.095   4.044   6.535
  910SOL     OW 4568   1.908  12.893  12.710
  910SOL    HW1 4569   1.965  12.819  12.690
  910SOL    HW2 4570   1.967  12.968  12.721
  911SOL     OW 4571  14.495   1.593   7.507
  911SOL    HW1 4572  14.557   1.587   7.580
  911SOL    HW2 4573  14.445   1.673   7.524
  912SOL     OW 4574   3.063  12.152   1.598
  912SOL    HW1 4575   3.090  12.082   1.657
  912SOL    HW2 4576   3.030  12.221   1.655
  913SOL     OW 4577  12.786   3.565   5.894
  913SOL    HW1 4578  12.796   3.643   5.949
  913SOL    HW2 4579  12.852   3.575   5.826
  914SOL     OW 4580   5.260  14.721   2.792
  914SOL    HW1 4581   5.321  14.648   2.800
  914SOL    HW2 4582   5.211  14.702   2.711
  915SOL     OW 4583   3.402   2.360   8.846
  915SOL    HW1 4584   3.443   2.322   8.768
  915SOL    HW2 4585   3.396   2.287   8.908
  916SOL     OW 4586  11.574  11.714  11.227
  916SOL    HW1 4587  11.505  11.781  11.228
  916SOL    HW2 4588  11.527  11.632  11.213
  917SOL     OW 4589  13.659   9.255   6.788
  917SOL    HW1 4590  13.572   9.285   6.815
  917SOL    HW2 4591  13.708   9.245   6.869
  918SOL     OW 4592   5.218  11.917   2.197
  918SOL    HW1 4593   5.160  11.935   2.271
  918SOL    HW2 4594   5.160  11.884   2.128
  919SOL     OW 4595  13.317  13.415  11.706
  919SOL    HW1 4596  13.257  13.479  11.669
  919SOL    HW2 4597  13.399  13.429  11.659
  920SOL     OW 4598   5.782  12.710   2.320
  920SOL    HW1 4599   5.741  12.794   2.337
  920SOL    HW2 4600   5.808  12.679   2.407
  921SOL     OW 4601   0.338   4.643   6.178
  921SOL    HW1 4602   0.350   4.662   6.084
  921SOL    HW2 4603   0.291   4.560   6.180
  922SOL     OW 4604  14.402   3.067   8.386
  922SOL    HW1 4605  14.350   3.049   8.465
  922SOL    HW2 4606  14.468   3.130   8.415
  923SOL     OW 4607   3.468   1.028  11.222
  923SOL    HW1 4608   3.383   1.012  11.261
  923SOL    HW2 4609   3.449   1.073  11.140
  924SOL     OW 4610   3.936  10.128   0.189
  924SOL    HW1 4611   3.926  10.222   0.172
  924SOL    HW2 4612   3.969  10.092   0.106
  925SOL     OW 4613   8.373  14.793   5.584
  925SOL    HW1 4614   8.418   0.001   5.587
  925SOL    HW2 4615   8.417  14.744   5.514
  926SOL     OW 4616   5.800   1.548  10.068
  926SOL    HW1 4617   5.870   1.520  10.009
  926SOL    HW2 4618   5.726   1.492  10.046
  927SOL     OW 4619  14.303   8.189   9.107
  927SOL    HW1 4620  14.293   8.282   9.086
  927SOL    HW2 4621  14.383   8.184   9.158
  928SOL     OW 4622  14.157   5.387  12.747
  928SOL    HW1 4623  14.139   5.439  12.826
  928SOL    HW2 4624  14.197   5.449  12.687
  929SOL     OW 4625   5.511   9.896   7.228
  929SOL    HW1 4626   5.561   9.854   7.297
  929SOL    HW2 4627   5.515   9.834   7.155
  930SOL     OW 4628   5.816  14.796   9.475
  930SOL    HW1 4629   5.788  14.763   9.389
  930SOL    HW2 4630   5.865  14.876   9.455
  931SOL     OW 4631   3.090   3.056   4.426
  931SOL    HW1 4632   3.103   2.996   4.352
  931SOL    HW2 4633   3.140   3.017   4.497
  932SOL     OW 4634  12.528  13.605  12.304
  932SOL    HW1 4635  12.609  13.595  12.353
  932SOL    HW2 4636  12.463  13.557  12.356
  933SOL     OW 4637  11.036  14.737   2.138
  933SOL    HW1 4638  11.101  14.714   2.204
  933SOL    HW2 4639  11.080  14.801   2.083
  934SOL     OW 4640   9.828   1.978   3.662
  934SOL    HW1 4641   9.780   2.004   3.741
  934SOL    HW2 4642   9.804   1.887   3.649
  935SOL     OW 4643  12.903   9.450  10.440
  935SOL    HW1 4644  12.847   9.480  10.511
  935SOL    HW2 4645  12.867   9.492  10.362
  936SOL     OW 4646   3.356   5.257  14.539
  936SOL    HW1 4647   3.440   5.297  14.561
  936SOL    HW2 4648   3.353   5.257  14.444
  937SOL     OW 4649   9.604   2.457  10.088
  937SOL    HW1 4650   9.661   2.519  10.043
  937SOL    HW2 4651   9.580   2.393  10.020
  938SOL     OW 4652  10.262   9.209   3.599
  938SOL    HW1 4653  10.321   9.135   3.612
  938SOL    HW2 4654  10.254   9.217   3.504
  939SOL     OW 4655   5.391  11.260   3.526
  939SOL    HW1 4656   5.375  11.171   3.559
  939SOL    HW2 4657   5.415  11.247   3.435
  940SOL     OW 4658  13.461   0.697   6.300
  940SOL    HW1 4659  13.402   0.744   6.241
  940SOL    HW2 4660  13.403   0.658   6.366
  941SOL     OW 4661  12.997  10.259  13.025
  941SOL    HW1 4662  12.913  10.269  13.069
  941SOL    HW2 4663  12.975  10.240  12.934
  942SOL     OW 4664  13.064  11.536  10.284
  942SOL    HW1 4665  13.024  11.532  10.197
  942SOL    HW2 4666  13.130  11.467  10.283
  943SOL     OW 4667   9.304   4.871   7.682
  943SOL    HW1 4668   9.374   4.818   7.721
  943SOL    HW2 4669   9.235   4.871   7.748
  944SOL     OW 4670   5.284   7.637   0.472
  944SOL    HW1 4671   5.241   7.619   0.555
  944SOL    HW2 4672   5.215   7.629   0.407
  945SOL     OW 4673   3.201   1.253   4.568
  945SOL    HW1 4674   3.284   1.230   4.525
  945SOL    HW2 4675   3.138   1.191   4.533
  946SOL     OW 4676  11.849  10.070  14.524
  946SOL    HW1 4677  11.819  10.093  14.612
  946SOL    HW2 4678  11.944  10.062  14.533
  947SOL     OW 4679  10.687   2.389   3.602
  947SOL    HW1 4680  10.732   2.306   3.620
  947SOL    HW2 4681  10.608   2.386   3.656
  948SOL     OW 4682  13.422   2.774   6.094
  948SOL    HW1 4683  13.408   2.849   6.036
  948SOL    HW2 4684  13.334   2.739   6.108
  949SOL     OW 4685   9.758   8.395   5.856
  949SOL    HW1 4686   9.740   8.471   5.910
  949SOL    HW2 4687   9.812   8.338   5.911
  950SOL     OW 4688   8.898  12.557  12.848
  950SOL    HW1 4689   8.837  12.490  12.880
  950SOL    HW2 4690   8.843  12.624  12.809
  951SOL     OW 4691  10.480   4.168   8.883
  951SOL    HW1 4692  10.504   4.236   8.946
  951SOL    HW2 4693  10.392   4.141   8.909
  952SOL     OW 4694   7.048  13.460  11.900
  952SOL    HW1 4695   6.964  13.502  11.918
  952SOL    HW2 4696   7.025  13.373  11.869
  953SOL     OW 4697   1.802   3.033  10.462
  953SOL    HW1 4698   1.823   3.090  10.388
  953SOL    HW2 4699   1.796   2.946  10.425
  954SOL     OW 4700  14.282  11.777   7.148
  954SOL    HW1 4701  14.261  11.754   7.058
  954SOL    HW2 4702  14.376  11.796   7.147
  955SOL     OW 4703   7.129  13.600  11.141
  955SOL    HW1 4704   7.222  13.610  11.121
  955SOL    HW2 4705   7.084  13.651  11.074
  956SOL     OW 4706  11.119   5.510  11.634
  956SOL    HW1 4707  11.143   5.575  11.568
  956SOL    HW2 4708  11.101   5.431  11.583
  957SOL     OW 4709   1.092   7.962  14.290
  957SOL    HW1 4710   1.022   7.938  14.352
  957SOL    HW2 4711   1.157   8.007  14.344
  958SOL     OW 4712   6.832   7.341   5.573
  958SOL    HW1 4713   6.793   7.265   5.531
  958SOL    HW2 4714   6.835   7.319   5.666
  959SOL     OW 4715   2.540  13.914   3.800
  959SOL    HW1 4716   2.447  13.896   3.813
  959SOL    HW2 4717   2.543  13.995   3.750
  960SOL     OW 4718  12.585   4.585   3.705
  960SOL    HW1 4719  12.675   4.551   3.704
  960SOL    HW2 4720  12.596   4.680   3.715
  961SOL     OW 4721   9.705   8.740   9.880
  961SOL    HW1 4722   9.656   8.805   9.830
  961SOL    HW2 4723   9.691   8.658   9.833
  962SOL     OW 4724  11.782  14.833   8.073
  962SOL    HW1 4725  11.714   0.020   8.049
  962SOL    HW2 4726  11.863  14.872   8.039
  963SOL     OW 4727  11.205   2.032  14.267
  963SOL    HW1 4728  11.272   1.987  14.216
  963SOL    HW2 4729  11.122   2.001  14.231
  964SOL     OW 4730   5.887   7.007  12.205
  964SOL    HW1 4731   5.921   7.094  12.181
  964SOL    HW2 4732   5.868   7.013  12.298
  965SOL     OW 4733  13.459  14.623   6.748
  965SOL    HW1 4734  13.532  14.566   6.722
  965SOL    HW2 4735  13.434  14.590   6.835
  966SOL     OW 4736   6.425   6.816  12.482
  966SOL    HW1 4737   6.367   6.748  12.447
  966SOL    HW2 4738   6.403   6.894  12.432
  967SOL     OW 4739   5.480   6.483  11.783
  967SOL    HW1 4740   5.495   6.413  11.846
  967SOL    HW2 4741   5.403   6.454  11.733
  968SOL     OW 4742   3.630   0.946  10.163
  968SOL    HW1 4743   3.610   0.904  10.079
  968SOL    HW2 4744   3.724   0.965  10.159
  969SOL     OW 4745  14.364   1.208   4.264
  969SOL    HW1 4746  14.337   1.260   4.339
  969SOL    HW2 4747  14.452   1.240   4.243
  970SOL     OW 4748  12.069   3.756  12.581
  970SOL    HW1 4749  12.000   3.746  12.516
  970SOL    HW2 4750  12.150   3.763  12.529
  971SOL     OW 4751  11.000   9.005   2.396
  971SOL    HW1 4752  10.949   8.927   2.417
  971SOL    HW2 4753  10.936   9.077   2.399
  972SOL     OW 4754  10.978   5.956  14.044
  972SOL    HW1 4755  11.056   6.011  14.041
  972SOL    HW2 4756  10.954   5.953  14.136
  973SOL     OW 4757   1.663   8.819   9.214
  973SOL    HW1 4758   1.731   8.873   9.175
  973SOL    HW2 4759   1.672   8.734   9.170
  974SOL     OW 4760  10.436   0.060   0.505
  974SOL    HW1 4761  10.506  14.872   0.518
  974SOL    HW2 4762  10.418   0.057   0.411
  975SOL     OW 4763   7.941   4.428   2.862
  975SOL    HW1 4764   7.959   4.487   2.788
  975SOL    HW2 4765   7.868   4.375   2.832
  976SOL     OW 4766  13.899  14.133  12.598
  976SOL    HW1 4767  13.953  14.178  12.532
  976SOL    HW2 4768  13.853  14.065  12.550
  977SOL     OW 4769   0.952  12.594   8.342
  977SOL    HW1 4770   0.997  12.537   8.404
  977SOL    HW2 4771   0.913  12.534   8.278
  978SOL     OW 4772  11.694   7.320  11.344
  978SOL    HW1 4773  11.711   7.234  11.306
  978SOL    HW2 4774  11.602   7.316  11.370
  979SOL     OW 4775  10.524   3.064   6.240
  979SOL    HW1 4776  10.552   3.155   6.235
  979SOL    HW2 4777  10.492   3.054   6.330
  980SOL     OW 4778  10.273   9.077  10.594
  980SOL    HW1 4779  10.242   8.997  10.552
  980SOL    HW2 4780  10.208   9.096  10.662
  981SOL     OW 4781   9.927   9.242   0.935
  981SOL    HW1 4782   9.899   9.333   0.932
  981SOL    HW2 4783   9.848   9.191   0.918
  982SOL     OW 4784   9.842   2.057   3.942
  982SOL    HW1 4785   9.803   1.970   3.933
  982SOL    HW2 4786   9.935   2.039   3.956
  983SOL     OW 4787   7.352  10.893  13.032
  983SOL    HW1 4788   7.353  10.870  13.125
  983SOL    HW2 4789   7.280  10.955  13.023
  984SOL     OW 4790  10.329   9.894   8.851
  984SOL    HW1 4791  10.318   9.800   8.863
  984SOL    HW2 4792  10.240   9.928   8.843
  985SOL     OW 4793   4.505   4.142   8.256
  985SOL    HW1 4794   4.495   4.148   8.161
  985SOL    HW2 4795   4.419   4.113   8.287
  986SOL     OW 4796  13.034   8.842   2.874
  986SOL    HW1 4797  13.079   8.761   2.848
  986SOL    HW2 4798  12.986   8.868   2.796
  987SOL     OW 4799   7.339  12.883   3.083
  987SOL    HW1 4800   7.355  12.929   3.000
  987SOL    HW2 4801   7.260  12.924   3.118
  988SOL     OW 4802  11.413   1.595  14.661
  988SOL    HW1 4803  11.421   1.667  14.598
  988SOL    HW2 4804  11.496   1.594  14.708
  989SOL     OW 4805   1.878   7.872   0.623
  989SOL    HW1 4806   1.924   7.886   0.705
  989SOL    HW2 4807   1.817   7.800   0.641
  990SOL     OW 4808   8.289   1.633   8.740
  990SOL    HW1 4809   8.213   1.653   8.795
  990SOL    HW2 4810   8.339   1.569   8.791
  991SOL     OW 4811   9.991  11.762  12.388
  991SOL    HW1 4812  10.025  11.850  12.374
  991SOL    HW2 4813   9.901  11.776  12.417
  992SOL     OW 4814   0.367   9.428  14.251
  992SOL    HW1 4815   0.338   9.376  14.326
  992SOL    HW2 4816   0.388   9.363  14.184
  993SOL     OW 4817   0.774  10.213   7.696
  993SOL    HW1 4818   0.853  10.158   7.696
  993SOL    HW2 4819   0.703  10.151   7.712
  994SOL     OW 4820   9.424  14.402   7.749
  994SOL    HW1 4821   9.362  14.450   7.804
  994SOL    HW2 4822   9.462  14.468   7.692
  995SOL     OW 4823  10.118   1.114  12.127
  995SOL    HW1 4824  10.174   1.041  12.101
  995SOL    HW2 4825  10.166   1.158  12.197
  996SOL     OW 4826  14.826   3.719   7.728
  996SOL    HW1 4827   0.019   3.783   7.743
  996SOL    HW2 4828  14.813   3.676   7.813
  997SOL     OW 4829   9.765  13.225   3.250
  997SOL    HW1 4830   9.730  13.154   3.195
  997SOL    HW2 4831   9.762  13.190   3.339
  998SOL     OW 4832  12.725   0.420  11.847
  998SOL    HW1 4833  12.673   0.347  11.812
  998SOL    HW2 4834  12.754   0.390  11.933
  999SOL     OW 4835   3.290   5.742   3.292
  999SOL    HW1 4836   3.330   5.734   3.379
  999SOL    HW2 4837   3.309   5.659   3.249
 1000SOL     OW 4838   2.144   9.273   7.916
 1000SOL    HW1 4839   2.177   9.335   7.981
 1000SOL    HW2 4840   2.222   9.225   7.887
 1001SOL     OW 4841  14.215   3.873   5.135
 1001SOL    HW1 4842  14.143   3.880   5.071
 1001SOL    HW2 4843  14.293   3.899   5.086
 1002SOL     OW 4844   6.379   3.722   7.121
 1002SOL    HW1 4845   6.290   3.751   7.140
 1002SOL    HW2 4846   6.424   3.800   7.089
 1003SOL     OW 4847  12.156   0.227   4.350
 1003SOL    HW1 4848  12.087   0.287   4.322
 1003SOL    HW2 4849  12.144   0.149   4.296
 1004SOL     OW 4850  10.858   4.071  14.708
 1004SOL    HW1 4851  10.934   4.112  14.666
 1004SOL    HW2 4852  10.820   4.141  14.761
 1005SOL     OW 4853   6.147   8.908  14.231
 1005SOL    HW1 4854   6.080   8.957  14.183
 1005SOL    HW2 4855   6.110   8.820  14.239
 1006SOL     OW 4856  12.108  10.720   1.884
 1006SOL    HW1 4857  12.053  10.786   1.841
 1006SOL    HW2 4858  12.091  10.731   1.977
 1007SOL     OW 4859  12.985   8.588  14.798
 1007SOL    HW1 4860  13.004   8.558   0.010
 1007SOL    HW2 4861  13.065   8.631  14.769
 1008SOL     OW 4862   6.899   2.490  10.632
 1008SOL    HW1 4863   6.828   2.542  10.595
 1008SOL    HW2 4864   6.899   2.409  10.580
 1009SOL     OW 4865   9.930   8.706   8.137
 1009SOL    HW1 4866  10.020   8.685   8.161
 1009SOL    HW2 4867   9.897   8.755   8.213
 1010SOL     OW 4868   0.446   6.144   5.498
 1010SOL    HW1 4869   0.464   6.054   5.526
 1010SOL    HW2 4870   0.529   6.176   5.464
 1011SOL     OW 4871   3.382   6.091   4.336
 1011SOL    HW1 4872   3.316   6.042   4.385
 1011SOL    HW2 4873   3.372   6.061   4.246
 1012SOL     OW 4874   4.583   9.495   3.912
 1012SOL    HW1 4875   4.672   9.494   3.946
 1012SOL    HW2 4876   4.593   9.499   3.817
 1013SOL     OW 4877  13.413   0.359   9.225
 1013SOL    HW1 4878  13.342   0.395   9.172
 1013SOL    HW2 4879  13.372   0.342   9.310
 1014SOL     OW 4880   8.911   3.949  11.728
 1014SOL    HW1 4881   8.994   3.921  11.767
 1014SOL    HW2 4882   8.890   4.031  11.774
 1015SOL     OW 4883  11.710   2.687   0.071
 1015SOL    HW1 4884  11.695   2.726  14.861
 1015SOL    HW2 4885  11.703   2.593   0.056
 1016SOL     OW 4886   3.882  13.581   0.458
 1016SOL    HW1 4887   3.834  13.653   0.417
 1016SOL    HW2 4888   3.970  13.587   0.420
 1017SOL     OW 4889   0.413   4.699   3.908
 1017SOL    HW1 4890   0.463   4.750   3.844
 1017SOL    HW2 4891   0.407   4.756   3.985
 1018SOL     OW 4892   0.472   0.034   9.086
 1018SOL    HW1 4893   0.428  14.836   9.129
 1018SOL    HW2 4894   0.417   0.109   9.107
 1019SOL     OW 4895   9.795   5.409   1.744
 1019SOL    HW1 4896   9.820   5.383   1.655
 1019SOL    HW2 4897   9.872   5.391   1.797
 1020SOL     OW 4898   5.948  11.572   1.375
 1020SOL    HW1 4899   6.007  11.497   1.377
 1020SOL    HW2 4900   5.952  11.609   1.463
 1021SOL     OW 4901   1.918   8.407   5.982
 1021SOL    HW1 4902   2.006   8.371   5.985
 1021SOL    HW2 4903   1.928   8.492   5.938
 1022SOL     OW 4904  12.726   0.409   4.646
 1022SOL    HW1 4905  12.747   0.316   4.647
 1022SOL    HW2 4906  12.802   0.452   4.685
 1023SOL     OW 4907   5.151   6.964  11.106
 1023SOL    HW1 4908   5.191   6.928  11.026
 1023SOL    HW2 4909   5.108   6.889  11.147
 1024SOL     OW 4910  11.137   6.803   1.171
 1024SOL    HW1 4911  11.178   6.733   1.223
 1024SOL    HW2 4912  11.052   6.767   1.146
 1025SOL     OW 4913   5.710   4.200   1.453
 1025SOL    HW1 4914   5.774   4.136   1.422
 1025SOL    HW2 4915   5.631   4.182   1.402
 1026SOL     OW 4916   2.600  12.785  13.930
 1026SOL    HW1 4917   2.617  12.879  13.927
 1026SOL    HW2 4918   2.565  12.769  14.018
 1027SOL     OW 4919  12.383   3.237  14.754
 1027SOL    HW1 4920  12.325   3.305  14.720
 1027SOL    HW2 4921  12.465   3.283  14.774
 1028SOL     OW 4922  11.817   8.695   7.526
 1028SOL    HW1 4923  11.832   8.609   7.564
 1028SOL    HW2 4924  11.730   8.720   7.558
 1029SOL     OW 4925  11.675   5.873   8.294
 1029SOL    HW1 4926  11.699   5.917   8.376
 1029SOL    HW2 4927  11.591   5.913   8.269
 1030SOL     OW 4928   1.955  10.899  10.994
 1030SOL    HW1 4929   2.017  10.860  10.932
 1030SOL    HW2 4930   1.873  10.905  10.946
 1031SOL     OW 4931   6.087   1.049  14.087
 1031SOL    HW1 4932   6.085   0.960  14.122
 1031SOL    HW2 4933   6.104   1.105  14.163
 1032SOL     OW 4934   1.499   6.501   6.039
 1032SOL    HW1 4935   1.432   6.434   6.053
 1032SOL    HW2 4936   1.456   6.567   5.984
 1033SOL     OW 4937  13.974   6.084   0.412
 1033SOL    HW1 4938  13.911   6.031   0.363
 1033SOL    HW2 4939  13.989   6.160   0.356
 1034SOL     OW 4940   4.886   3.717  10.433
 1034SOL    HW1 4941   4.883   3.643  10.494
 1034SOL    HW2 4942   4.980   3.732  10.419
 1035SOL     OW 4943   0.678   6.272   5.441
 1035SOL    HW1 4944   0.751   6.271   5.380
 1035SOL    HW2 4945   0.689   6.352   5.491
 1036SOL     OW 4946   7.833   6.740   5.080
 1036SOL    HW1 4947   7.890   6.663   5.075
 1036SOL    HW2 4948   7.746   6.706   5.057
 1037SOL     OW 4949   2.608   6.176   7.341
 1037SOL    HW1 4950   2.522   6.162   7.300
 1037SOL    HW2 4951   2.588   6.185   7.434
 1038SOL     OW 4952   3.236   8.788   2.421
 1038SOL    HW1 4953   3.246   8.883   2.413
 1038SOL    HW2 4954   3.157   8.776   2.473
 1039SOL     OW 4955  14.635  13.487   2.365
 1039SOL    HW1 4956  14.656  13.394   2.374
 1039SOL    HW2 4957  14.719  13.531   2.361
 1040SOL     OW 4958   4.075   1.422   6.773
 1040SOL    HW1 4959   4.123   1.347   6.739
 1040SOL    HW2 4960   4.037   1.390   6.855
 1041SOL     OW 4961   2.976  10.226  14.603
 1041SOL    HW1 4962   2.983  10.261  14.692
 1041SOL    HW2 4963   2.888  10.252  14.574
 1042SOL     OW 4964   3.769   6.766   2.339
 1042SOL    HW1 4965   3.698   6.706   2.362
 1042SOL    HW2 4966   3.744   6.850   2.377
 1043SOL     OW 4967   1.590  13.932  10.777
 1043SOL    HW1 4968   1.565  13.875  10.850
 1043SOL    HW2 4969   1.508  13.968  10.745
 1044SOL     OW 4970  13.070   2.690   9.922
 1044SOL    HW1 4971  13.114   2.766   9.885
 1044SOL    HW2 4972  13.009   2.662   9.854
 1045SOL     OW 4973  11.598   5.596  12.401
 1045SOL    HW1 4974  11.508   5.569  12.384
 1045SOL    HW2 4975  11.593   5.690  12.415
 1046SOL     OW 4976   6.283   6.381   4.318
 1046SOL    HW1 4977   6.295   6.401   4.225
 1046SOL    HW2 4978   6.220   6.310   4.319
 1047SOL     OW 4979   5.889   7.245  13.390
 1047SOL    HW1 4980   5.869   7.189  13.466
 1047SOL    HW2 4981   5.809   7.241  13.337
 1048SOL     OW 4982  11.257   6.143   1.118
 1048SOL    HW1 4983  11.192   6.173   1.055
 1048SOL    HW2 4984  11.206   6.109   1.192
 1049SOL     OW 4985  14.327  14.402   9.324
 1049SOL    HW1 4986  14.369  14.316   9.329
 1049SOL    HW2 4987  14.360  14.450   9.400
 1050SOL     OW 4988   4.261   0.493   2.108
 1050SOL    HW1 4989   4.238   0.403   2.084
 1050SOL    HW2 4990   4.206   0.548   2.052
 1051SOL     OW 4991   0.626  10.966   1.491
 1051SOL    HW1 4992   0.657  10.990   1.579
 1051SOL    HW2 4993   0.531  10.972   1.497
 1052SOL     OW 4994   9.546   4.224   3.217
 1052SOL    HW1 4995   9.496   4.276   3.280
 1052SOL    HW2 4996   9.634   4.217   3.255
 1053SOL     OW 4997   5.098   3.088  14.282
 1053SOL    HW1 4998   5.130   3.177  14.264
 1053SOL    HW2 4999   5.082   3.088  14.376
 1054SOL     OW 5000   3.314   7.648   1.332
 1054SOL    HW1 5001   3.247   7.690   1.385
 1054SOL    HW2 5002   3.265   7.597   1.268
 1055SOL     OW 5003   4.942   4.723   1.157
 1055SOL    HW1 5004   4.899   4.808   1.155
 1055SOL    HW2 5005   5.029   4.740   1.120
 1056SOL     OW 5006   7.122   3.792   6.267
 1056SOL    HW1 5007   7.097   3.782   6.359
 1056SOL    HW2 5008   7.050   3.843   6.229
 1057SOL     OW 5009  14.437  12.760  13.422
 1057SOL    HW1 5010  14.484  12.779  13.503
 1057SOL    HW2 5011  14.497  12.787  13.353
 1058SOL     OW 5012   8.724  12.849  13.057
 1058SOL    HW1 5013   8.733  12.861  12.963
 1058SOL    HW2 5014   8.644  12.896  13.080
 1059SOL     OW 5015   6.432  13.072   1.844
 1059SOL    HW1 5016   6.381  12.991   1.846
 1059SOL    HW2 5017   6.419  13.111   1.931
 1060SOL     OW 5018   1.332  12.468   2.654
 1060SOL    HW1 5019   1.261  12.530   2.639
 1060SOL    HW2 5020   1.289  12.389   2.688
 1061SOL     OW 5021   0.618   9.861  13.408
 1061SOL    HW1 5022   0.546   9.802  13.429
 1061SOL    HW2 5023   0.609   9.877  13.314
 1062SOL     OW 5024   2.035  12.017   5.350
 1062SOL    HW1 5025   1.968  12.049   5.290
 1062SOL    HW2 5026   1.994  11.944   5.397
 1063SOL     OW 5027  12.447  14.202  10.321
 1063SOL    HW1 5028  12.513  14.271  10.320
 1063SOL    HW2 5029  12.496  14.122  10.340
 1064SOL     OW 5030   3.453  12.414   1.180
 1064SOL    HW1 5031   3.497  12.333   1.206
 1064SOL    HW2 5032   3.488  12.433   1.093
 1065SOL     OW 5033   0.723  13.170  10.942
 1065SOL    HW1 5034   0.775  13.233  10.992
 1065SOL    HW2 5035   0.759  13.085  10.965
 1066SOL     OW 5036   5.128  10.721   3.301
 1066SOL    HW1 5037   5.171  10.699   3.219
 1066SOL    HW2 5038   5.102  10.812   3.291
 1067SOL     OW 5039   6.419   6.558   0.003
 1067SOL    HW1 5040   6.481   6.625   0.032
 1067SOL    HW2 5041   6.345   6.566   0.064
 1068SOL     OW 5042   4.298   2.506  12.089
 1068SOL    HW1 5043   4.259   2.479  12.172
 1068SOL    HW2 5044   4.391   2.520  12.109
 1069SOL     OW 5045  13.619   6.556   0.695
 1069SOL    HW1 5046  13.676   6.525   0.624
 1069SOL    HW2 5047  13.536   6.512   0.679
 1070SOL     OW 5048  10.788  12.045  13.851
 1070SOL    HW1 5049  10.822  12.109  13.789
 1070SOL    HW2 5050  10.741  11.981  13.798
 1071SOL     OW 5051   6.937   5.725  12.531
 1071SOL    HW1 5052   6.893   5.747  12.449
 1071SOL    HW2 5053   6.873   5.748  12.599
 1072SOL     OW 5054  10.547   0.379   4.537
 1072SOL    HW1 5055  10.511   0.454   4.585
 1072SOL    HW2 5056  10.614   0.417   4.480
 1073SOL     OW 5057  12.357  14.279   8.181
 1073SOL    HW1 5058  12.306  14.218   8.234
 1073SOL    HW2 5059  12.447  14.268   8.211
 1074SOL     OW 5060   7.596   7.502  13.315
 1074SOL    HW1 5061   7.680   7.545  13.333
 1074SOL    HW2 5062   7.587   7.437  13.385
 1075SOL     OW 5063   5.309  11.974  12.286
 1075SOL    HW1 5064   5.362  11.910  12.238
 1075SOL    HW2 5065   5.236  11.923  12.322
 1076SOL     OW 5066   8.423   1.664   0.856
 1076SOL    HW1 5067   8.457   1.600   0.919
 1076SOL    HW2 5068   8.456   1.748   0.887
 1077SOL     OW 5069  11.858  13.866   0.423
 1077SOL    HW1 5070  11.861  13.879   0.329
 1077SOL    HW2 5071  11.943  13.897   0.455
 1078SOL     OW 5072   0.553   1.881   7.663
 1078SOL    HW1 5073   0.492   1.854   7.594
 1078SOL    HW2 5074   0.608   1.804   7.678
 1079SOL     OW 5075  12.816   4.306  11.927
 1079SOL    HW1 5076  12.883   4.355  11.880
 1079SOL    HW2 5077  12.865   4.249  11.987
 1080SOL     OW 5078  13.390  12.310   2.366
 1080SOL    HW1 5079  13.336  12.388   2.350
 1080SOL    HW2 5080  13.462  12.343   2.421
 1081SOL     OW 5081   6.688   6.527  13.783
 1081SOL    HW1 5082   6.600   6.540  13.747
 1081SOL    HW2 5083   6.746   6.529  13.707
 1082SOL     OW 5084  12.408  12.104  12.199
 1082SOL    HW1 5085  12.343  12.045  12.161
 1082SOL    HW2 5086  12.376  12.192  12.178
 1083SOL     OW 5087   2.345  12.976   0.805
 1083SOL    HW1 5088   2.313  12.896   0.848
 1083SOL    HW2 5089   2.342  12.956   0.712
 1084SOL     OW 5090   0.350  12.168   8.472
 1084SOL    HW1 5091   0.265  12.209   8.490
 1084SOL    HW2 5092   0.382  12.143   8.559
 1085SOL     OW 5093   8.477   5.088   0.013
 1085SOL    HW1 5094   8.469   5.140   0.093
 1085SOL    HW2 5095   8.555   5.123  14.846
 1086SOL     OW 5096   9.772  12.651  10.956
 1086SOL    HW1 5097   9.858  12.681  10.984
 1086SOL    HW2 5098   9.751  12.705  10.880
 1087SOL     OW 5099   7.436   0.001   6.029
 1087SOL    HW1 5100   7.502  14.839   5.971
 1087SOL    HW2 5101   7.399  14.802   6.076
 1088SOL     OW 5102   0.959  10.388  12.084
 1088SOL    HW1 5103   0.944  10.482  12.069
 1088SOL    HW2 5104   1.042  10.385  12.132
 1089SOL     OW 5105   0.789   6.257   2.568
 1089SOL    HW1 5106   0.763   6.335   2.617
 1089SOL    HW2 5107   0.706   6.213   2.547
 1090SOL     OW 5108  10.652   9.025  11.891
 1090SOL    HW1 5109  10.560   9.018  11.916
 1090SOL    HW2 5110  10.653   9.091  11.821
 1091SOL     OW 5111   7.542  13.652   6.290
 1091SOL    HW1 5112   7.556  13.713   6.218
 1091SOL    HW2 5113   7.616  13.591   6.285
 1092SOL     OW 5114  14.223   9.088   0.013
 1092SOL    HW1 5115  14.207   8.995  14.874
 1092SOL    HW2 5116  14.266   9.091   0.099
 1093SOL     OW 5117  11.686   2.478  14.673
 1093SOL    HW1 5118  11.670   2.456  14.765
 1093SOL    HW2 5119  11.769   2.434  14.652
 1094SOL     OW 5120   1.055   5.289   1.606
 1094SOL    HW1 5121   1.026   5.376   1.631
 1094SOL    HW2 5122   0.986   5.231   1.637
 1095SOL     OW 5123   7.257   0.359   3.293
 1095SOL    HW1 5124   7.311   0.283   3.269
 1095SOL    HW2 5125   7.274   0.372   3.386
 1096SOL     OW 5126   5.421  14.508   0.410
 1096SOL    HW1 5127   5.362  14.559   0.466
 1096SOL    HW2 5128   5.370  14.431   0.384
 1097SOL     OW 5129   2.523   7.127  14.371
 1097SOL    HW1 5130   2.570   7.068  14.311
 1097SOL    HW2 5131   2.476   7.187  14.313
 1098SOL     OW 5132   1.293   3.345   9.166
 1098SOL    HW1 5133   1.262   3.294   9.091
 1098SOL    HW2 5134   1.230   3.417   9.173
 1099SOL     OW 5135   2.976  11.769   9.399
 1099SOL    HW1 5136   2.883  11.790   9.398
 1099SOL    HW2 5137   3.019  11.850   9.429
 1100SOL     OW 5138   5.213  11.756   9.777
 1100SOL    HW1 5139   5.151  11.701   9.730
 1100SOL    HW2 5140   5.171  11.772   9.862
 1101SOL     OW 5141   3.489   3.715   8.061
 1101SOL    HW1 5142   3.443   3.642   8.019
 1101SOL    HW2 5143   3.542   3.753   7.991
 1102SOL     OW 5144   7.625   3.759   5.713
 1102SOL    HW1 5145   7.617   3.809   5.794
 1102SOL    HW2 5146   7.622   3.825   5.643
 1103SOL     OW 5147   7.907   2.141   5.428
 1103SOL    HW1 5148   7.838   2.128   5.363
 1103SOL    HW2 5149   7.975   2.190   5.381
 1104SOL     OW 5150  11.927  11.536   6.289
 1104SOL    HW1 5151  11.847  11.491   6.264
 1104SOL    HW2 5152  11.997  11.488   6.245
 1105SOL     OW 5153  10.311  12.937  12.550
 1105SOL    HW1 5154  10.296  12.843  12.541
 1105SOL    HW2 5155  10.404  12.944  12.571
 1106SOL     OW 5156   2.111  11.561  11.752
 1106SOL    HW1 5157   2.063  11.614  11.689
 1106SOL    HW2 5158   2.203  11.572  11.728
 1107SOL     OW 5159   8.467  11.374  12.527
 1107SOL    HW1 5160   8.445  11.292  12.571
 1107SOL    HW2 5161   8.563  11.373  12.521
 1108SOL     OW 5162   6.188  10.236   5.484
 1108SOL    HW1 5163   6.175  10.199   5.397
 1108SOL    HW2 5164   6.212  10.327   5.468
 1109SOL     OW 5165   4.234   6.771   4.919
 1109SOL    HW1 5166   4.281   6.699   4.962
 1109SOL    HW2 5167   4.255   6.761   4.826
 1110SOL     OW 5168  13.946  10.001  12.639
 1110SOL    HW1 5169  13.887  10.073  12.615
 1110SOL    HW2 5170  14.014  10.043  12.692
 1111SOL     OW 5171  12.658  14.128  11.767
 1111SOL    HW1 5172  12.716  14.068  11.720
 1111SOL    HW2 5173  12.604  14.168  11.698
 1112SOL     OW 5174  12.215   8.342  12.685
 1112SOL    HW1 5175  12.206   8.319  12.593
 1112SOL    HW2 5176  12.223   8.437  12.686
 1113SOL     OW 5177  12.931   4.157   5.050
 1113SOL    HW1 5178  12.854   4.189   5.098
 1113SOL    HW2 5179  12.971   4.236   5.014
 1114SOL     OW 5180   7.979   2.643   8.628
 1114SOL    HW1 5181   7.956   2.732   8.654
 1114SOL    HW2 5182   8.068   2.631   8.661
 1115SOL     OW 5183  11.627   3.912  12.346
 1115SOL    HW1 5184  11.573   3.948  12.275
 1115SOL    HW2 5185  11.583   3.943  12.426
 1116SOL     OW 5186   3.351   8.546  14.539
 1116SOL    HW1 5187   3.367   8.594  14.621
 1116SOL    HW2 5188   3.267   8.581  14.508
 1117SOL     OW 5189  14.395   8.331  11.037
 1117SOL    HW1 5190  14.433   8.415  11.010
 1117SOL    HW2 5191  14.449   8.303  11.111
 1118SOL     OW 5192   4.529  13.908  10.965
 1118SOL    HW1 5193   4.544  14.000  10.986
 1118SOL    HW2 5194   4.605  13.863  11.001
 1119SOL     OW 5195  13.138   4.780   2.956
 1119SOL    HW1 5196  13.217   4.728   2.945
 1119SOL    HW2 5197  13.162   4.867   2.925
 1120SOL     OW 5198  13.690  11.787   5.421
 1120SOL    HW1 5199  13.713  11.821   5.335
 1120SOL    HW2 5200  13.723  11.697   5.421
 1121SOL     OW 5201   4.343   8.985   3.459
 1121SOL    HW1 5202   4.282   9.047   3.500
 1121SOL    HW2 5203   4.400   9.040   3.406
 1122SOL     OW 5204  11.542   9.178  13.592
 1122SOL    HW1 5205  11.632   9.194  13.620
 1122SOL    HW2 5206  11.533   9.230  13.512
 1123SOL     OW 5207   9.382  11.361  10.795
 1123SOL    HW1 5208   9.446  11.388  10.861
 1123SOL    HW2 5209   9.415  11.276  10.763
 1124SOL     OW 5210  14.144  10.607  12.028
 1124SOL    HW1 5211  14.067  10.564  11.991
 1124SOL    HW2 5212  14.203  10.535  12.051
 1125SOL     OW 5213   7.949   8.712   2.045
 1125SOL    HW1 5214   7.940   8.766   2.123
 1125SOL    HW2 5215   7.886   8.642   2.056
 1126SOL     OW 5216  11.274   6.060  14.375
 1126SOL    HW1 5217  11.297   6.119  14.447
 1126SOL    HW2 5218  11.179   6.069  14.366
 1127SOL     OW 5219   7.546   8.597  11.511
 1127SOL    HW1 5220   7.566   8.687  11.488
 1127SOL    HW2 5221   7.476   8.571  11.452
 1128SOL     OW 5222   4.470  13.334  14.592
 1128SOL    HW1 5223   4.450  13.386  14.669
 1128SOL    HW2 5224   4.493  13.399  14.525
 1129SOL     OW 5225  12.144  11.555   9.584
 1129SOL    HW1 5226  12.119  11.498   9.656
 1129SOL    HW2 5227  12.234  11.580   9.604
 1130SOL     OW 5228  14.656  14.041   1.916
 1130SOL    HW1 5229  14.748  14.023   1.897
 1130SOL    HW2 5230  14.608  14.005   1.841
 1131SOL     OW 5231   9.591  12.494  14.649
 1131SOL    HW1 5232   9.578  12.562  14.583
 1131SOL    HW2 5233   9.672  12.518  14.693
 1132SOL     OW 5234   8.413   6.972  11.669
 1132SOL    HW1 5235   8.375   6.984  11.756
 1132SOL    HW2 5236   8.347   7.005  11.609
 1133SOL     OW 5237   3.116   5.881   1.668
 1133SOL    HW1 5238   3.158   5.949   1.721
 1133SOL    HW2 5239   3.070   5.826   1.732
 1134SOL     OW 5240   1.005   0.244   2.874
 1134SOL    HW1 5241   1.056   0.292   2.940
 1134SOL    HW2 5242   1.058   0.166   2.856
 1135SOL     OW 5243   4.940  14.352  13.437
 1135SOL    HW1 5244   4.968  14.413  13.505
 1135SOL    HW2 5245   4.957  14.398  13.355
 1136SOL     OW 5246  10.177   1.746   3.322
 1136SOL    HW1 5247  10.104   1.684   3.321
 1136SOL    HW2 5248  10.252   1.697   3.290
 1137SOL     OW 5249  11.472  12.256  13.182
 1137SOL    HW1 5250  11.542  12.199  13.215
 1137SOL    HW2 5251  11.467  12.235  13.088
 1138SOL     OW 5252   4.409   5.673   9.442
 1138SOL    HW1 5253   4.392   5.640   9.354
 1138SOL    HW2 5254   4.368   5.759   9.444
 1139SOL     OW 5255   5.219   6.673   9.423
 1139SOL    HW1 5256   5.295   6.723   9.451
 1139SOL    HW2 5257   5.198   6.708   9.336
 1140SOL     OW 5258   0.427   3.507   0.826
 1140SOL    HW1 5259   0.432   3.579   0.763
 1140SOL    HW2 5260   0.367   3.444   0.786
 1141SOL     OW 5261   6.902  12.346   3.196
 1141SOL    HW1 5262   6.940  12.425   3.233
 1141SOL    HW2 5263   6.825  12.328   3.250
 1142SOL     OW 5264   6.842   7.626   8.409
 1142SOL    HW1 5265   6.795   7.679   8.473
 1142SOL    HW2 5266   6.923   7.600   8.452
 1143SOL     OW 5267  10.579  14.345   4.624
 1143SOL    HW1 5268  10.647  14.412   4.631
 1143SOL    HW2 5269  10.595  14.303   4.539
 1144SOL     OW 5270   1.080   2.855  13.547
 1144SOL    HW1 5271   1.151   2.919  13.544
 1144SOL    HW2 5272   1.123   2.772  13.564
 1145SOL     OW 5273   0.772   5.674   0.909
 1145SOL    HW1 5274   0.842   5.614   0.935
 1145SOL    HW2 5275   0.724   5.691   0.991
 1146SOL     OW 5276  13.583  13.796   9.020
 1146SOL    HW1 5277  13.598  13.750   9.102
 1146SOL    HW2 5278  13.564  13.727   8.956
 1147SOL     OW 5279  11.844   7.338  14.732
 1147SOL    HW1 5280  11.845   7.432  14.750
 1147SOL    HW2 5281  11.909   7.301  14.791
 1148SOL     OW 5282   2.674  12.247   2.345
 1148SOL    HW1 5283   2.716  12.280   2.265
 1148SOL    HW2 5284   2.580  12.258   2.328
 1149SOL     OW 5285   6.529   8.602  14.827
 1149SOL    HW1 5286   6.543   8.584  14.734
 1149SOL    HW2 5287   6.470   8.533  14.856
 1150SOL     OW 5288   3.475   6.824  14.396
 1150SOL    HW1 5289   3.452   6.853  14.484
 1150SOL    HW2 5290   3.570   6.832  14.393
 1151SOL     OW 5291   8.474  12.415   7.858
 1151SOL    HW1 5292   8.538  12.379   7.918
 1151SOL    HW2 5293   8.419  12.341   7.834
 1152SOL     OW 5294   7.576   0.321  13.275
 1152SOL    HW1 5295   7.557   0.254  13.210
 1152SOL    HW2 5296   7.570   0.275  13.359
 1153SOL     OW 5297  10.398  10.889  10.850
 1153SOL    HW1 5298  10.491  10.875  10.832
 1153SOL    HW2 5299  10.395  10.917  10.941
 1154SOL     OW 5300   5.415   5.402   1.256
 1154SOL    HW1 5301   5.350   5.449   1.204
 1154SOL    HW2 5302   5.364   5.338   1.305
 1155SOL     OW 5303  12.115   7.964  14.787
 1155SOL    HW1 5304  12.034   7.934  14.745
 1155SOL    HW2 5305  12.102   8.058  14.800
 1156SOL     OW 5306  11.076  13.398  11.681
 1156SOL    HW1 5307  11.011  13.379  11.613
 1156SOL    HW2 5308  11.155  13.354  11.651
 1157SOL     OW 5309   6.397  10.893  12.113
 1157SOL    HW1 5310   6.328  10.829  12.094
 1157SOL    HW2 5311   6.473  10.839  12.135
 1158SOL     OW 5312   4.171  14.401   4.275
 1158SOL    HW1 5313   4.128  14.368   4.354
 1158SOL    HW2 5314   4.110  14.467   4.242
 1159SOL     OW 5315   7.867   3.956   6.830
 1159SOL    HW1 5316   7.952   3.942   6.789
 1159SOL    HW2 5317   7.848   3.873   6.875
 1160SOL     OW 5318  13.504   2.832  11.421
 1160SOL    HW1 5319  13.503   2.809  11.328
 1160SOL    HW2 5320  13.442   2.772  11.462
 1161SOL     OW 5321   8.984   9.432   1.870
 1161SOL    HW1 5322   9.045   9.496   1.907
 1161SOL    HW2 5323   9.036   9.381   1.809
 1162SOL     OW 5324   1.513   1.540   9.350
 1162SOL    HW1 5325   1.490   1.519   9.440
 1162SOL    HW2 5326   1.603   1.572   9.355
 1163SOL     OW 5327   5.883   5.222   1.160
 1163SOL    HW1 5328   5.921   5.241   1.246
 1163SOL    HW2 5329   5.876   5.126   1.158
 1164SOL     OW 5330   4.836   4.688   8.383
 1164SOL    HW1 5331   4.845   4.702   8.289
 1164SOL    HW2 5332   4.882   4.605   8.399
 1165SOL     OW 5333  14.206   5.452  10.396
 1165SOL    HW1 5334  14.150   5.387  10.353
 1165SOL    HW2 5335  14.244   5.502  10.324
 1166SOL     OW 5336  14.189   9.532   2.380
 1166SOL    HW1 5337  14.237   9.614   2.369
 1166SOL    HW2 5338  14.253   9.464   2.360
 1167SOL     OW 5339   4.480   1.945  14.202
 1167SOL    HW1 5340   4.487   2.039  14.218
 1167SOL    HW2 5341   4.566   1.909  14.227
 1168SOL     OW 5342   5.250  10.812  10.874
 1168SOL    HW1 5343   5.189  10.741  10.855
 1168SOL    HW2 5344   5.196  10.881  10.914
 1169SOL     OW 5345   6.976  11.211   1.685
 1169SOL    HW1 5346   6.884  11.187   1.670
 1169SOL    HW2 5347   6.996  11.174   1.771
 1170SOL     OW 5348   7.464   2.592   4.205
 1170SOL    HW1 5349   7.402   2.520   4.211
 1170SOL    HW2 5350   7.413   2.670   4.228
 1171SOL     OW 5351  11.528   8.592  14.762
 1171SOL    HW1 5352  11.462   8.558  14.822
 1171SOL    HW2 5353  11.527   8.532  14.687
 1172SOL     OW 5354   2.185   1.763  14.522
 1172SOL    HW1 5355   2.243   1.837  14.504
 1172SOL    HW2 5356   2.242   1.687  14.517
 1173SOL     OW 5357  13.512   1.046   3.973
 1173SOL    HW1 5358  13.472   1.100   3.904
 1173SOL    HW2 5359  13.531   0.962   3.930
 1174SOL     OW 5360  14.449  10.770   0.688
 1174SOL    HW1 5361  14.534  10.769   0.645
 1174SOL    HW2 5362  14.386  10.784   0.618
 1175SOL     OW 5363   4.892   7.052   3.082
 1175SOL    HW1 5364   4.845   7.028   3.163
 1175SOL    HW2 5365   4.834   7.022   3.012
 1176SOL     OW 5366   4.038  12.889  10.162
 1176SOL    HW1 5367   4.123  12.848  10.178
 1176SOL    HW2 5368   4.035  12.961  10.224
 1177SOL     OW 5369   5.093   9.988   5.013
 1177SOL    HW1 5370   5.116   9.999   4.921
 1177SOL    HW2 5371   5.175  10.003   5.060
 1178SOL     OW 5372   5.608   7.035   4.928
 1178SOL    HW1 5373   5.591   6.948   4.965
 1178SOL    HW2 5374   5.540   7.047   4.862
 1179SOL     OW 5375  13.545   9.410  12.651
 1179SOL    HW1 5376  13.560   9.475  12.719
 1179SOL    HW2 5377  13.524   9.461  12.573
 1180SOL     OW 5378   3.438  13.786   0.288
 1180SOL    HW1 5379   3.500  13.856   0.308
 1180SOL    HW2 5380   3.468  13.712   0.340
 1181SOL     OW 5381   8.344  11.589  12.963
 1181SOL    HW1 5382   8.313  11.553  12.881
 1181SOL    HW2 5383   8.362  11.513  13.018
 1182SOL     OW 5384  10.376   4.171   1.221
 1182SOL    HW1 5385  10.438   4.103   1.249
 1182SOL    HW2 5386  10.431   4.248   1.204
 1183SOL     OW 5387   1.958   5.347   4.830
 1183SOL    HW1 5388   1.935   5.366   4.921
 1183SOL    HW2 5389   2.051   5.327   4.832
 1184SOL     OW 5390  10.394   7.359   2.623
 1184SOL    HW1 5391  10.315   7.346   2.676
 1184SOL    HW2 5392  10.390   7.290   2.558
 1185SOL     OW 5393   4.513  10.691   8.100
 1185SOL    HW1 5394   4.577  10.759   8.078
 1185SOL    HW2 5395   4.479  10.716   8.186
 1186SOL     OW 5396  13.672   7.074   8.300
 1186SOL    HW1 5397  13.615   7.106   8.369
 1186SOL    HW2 5398  13.743   7.029   8.346
 1187SOL     OW 5399   7.818  10.055  13.962
 1187SOL    HW1 5400   7.743  10.085  13.911
 1187SOL    HW2 5401   7.796  10.076  14.053
 1188SOL     OW 5402   0.569  12.005  13.528
 1188SOL    HW1 5403   0.529  12.086  13.560
 1188SOL    HW2 5404   0.572  12.015  13.433
 1189SOL     OW 5405  10.121  14.584  13.794
 1189SOL    HW1 5406  10.134  14.572  13.888
 1189SOL    HW2 5407  10.170  14.664  13.773
 1190SOL     OW 5408   2.755   2.982  12.639
 1190SOL    HW1 5409   2.737   2.985  12.733
 1190SOL    HW2 5410   2.744   2.890  12.616
 1191SOL     OW 5411   0.537  11.242  11.981
 1191SOL    HW1 5412   0.462  11.200  12.023
 1191SOL    HW2 5413   0.568  11.177  11.918
 1192SOL     OW 5414  10.027   5.143   8.077
 1192SOL    HW1 5415  10.108   5.190   8.058
 1192SOL    HW2 5416   9.960   5.212   8.083
 1193SOL     OW 5417   6.929  12.039  14.287
 1193SOL    HW1 5418   7.001  12.064  14.344
 1193SOL    HW2 5419   6.911  12.117  14.234
 1194SOL     OW 5420   4.096   1.719   4.884
 1194SOL    HW1 5421   4.185   1.687   4.869
 1194SOL    HW2 5422   4.106   1.788   4.949
 1195SOL     OW 5423  12.882  10.484   6.462
 1195SOL    HW1 5424  12.941  10.511   6.391
 1195SOL    HW2 5425  12.840  10.405   6.429
 1196SOL     OW 5426   5.414   4.495   1.911
 1196SOL    HW1 5427   5.490   4.485   1.968
 1196SOL    HW2 5428   5.339   4.480   1.968
 1197SOL     OW 5429  11.726   5.541   0.173
 1197SOL    HW1 5430  11.707   5.632   0.195
 1197SOL    HW2 5431  11.814   5.542   0.136
 1198SOL     OW 5432   0.800   3.148   3.214
 1198SOL    HW1 5433   0.892   3.124   3.221
 1198SOL    HW2 5434   0.753   3.072   3.247
 1199SOL     OW 5435   2.373  13.494   5.286
 1199SOL    HW1 5436   2.346  13.428   5.350
 1199SOL    HW2 5437   2.316  13.569   5.304
 1200SOL     OW 5438  12.925   8.402   5.931
 1200SOL    HW1 5439  12.906   8.465   5.861
 1200SOL    HW2 5440  12.862   8.424   6.000
 1201SOL     OW 5441  13.407  10.858   0.716
 1201SOL    HW1 5442  13.396  10.798   0.789
 1201SOL    HW2 5443  13.460  10.930   0.752
 1202SOL     OW 5444   6.317   9.196  10.008
 1202SOL    HW1 5445   6.375   9.272   9.995
 1202SOL    HW2 5446   6.358   9.147  10.080
 1203SOL     OW 5447  11.340  10.608  14.529
 1203SOL    HW1 5448  11.383  10.611  14.443
 1203SOL    HW2 5449  11.269  10.545  14.519
 1204SOL     OW 5450  11.540  12.065   9.055
 1204SOL    HW1 5451  11.486  12.088   9.130
 1204SOL    HW2 5452  11.607  12.006   9.092
 1205SOL     OW 5453   0.124   1.971   8.673
 1205SOL    HW1 5454   0.201   1.945   8.623
 1205SOL    HW2 5455   0.107   1.896   8.730
 1206SOL     OW 5456   0.226   6.747   8.312
 1206SOL    HW1 5457   0.316   6.760   8.282
 1206SOL    HW2 5458   0.172   6.770   8.236
 1207SOL     OW 5459   2.961   6.116   1.581
 1207SOL    HW1 5460   3.022   6.045   1.561
 1207SOL    HW2 5461   2.874   6.076   1.571
 1208SOL     OW 5462  12.865   7.430   2.540
 1208SOL    HW1 5463  12.782   7.448   2.584
 1208SOL    HW2 5464  12.859   7.338   2.516
 1209SOL     OW 5465  13.838   5.764   6.804
 1209SOL    HW1 5466  13.918   5.813   6.783
 1209SOL    HW2 5467  13.868   5.676   6.827
 1210SOL     OW 5468   7.428  12.467   2.186
 1210SOL    HW1 5469   7.385  12.402   2.242
 1210SOL    HW2 5470   7.506  12.494   2.235
 1211SOL     OW 5471  10.241   4.894  13.316
 1211SOL    HW1 5472  10.335   4.884  13.297
 1211SOL    HW2 5473  10.197   4.856  13.239
 1212SOL     OW 5474  14.438  14.566  12.413
 1212SOL    HW1 5475  14.511  14.587  12.354
 1212SOL    HW2 5476  14.405  14.482  12.381
 1213SOL     OW 5477   3.832  13.347  10.549
 1213SOL    HW1 5478   3.753  13.379  10.593
 1213SOL    HW2 5479   3.811  13.352  10.456
 1214SOL     OW 5480  13.680   2.125  14.319
 1214SOL    HW1 5481  13.701   2.137  14.412
 1214SOL    HW2 5482  13.752   2.168  14.273
 1215SOL     OW 5483   2.482   9.922  14.870
 1215SOL    HW1 5484   2.568   9.960   0.011
 1215SOL    HW2 5485   2.501   9.831  14.846
 1216SOL     OW 5486  10.845  12.355   3.374
 1216SOL    HW1 5487  10.826  12.286   3.309
 1216SOL    HW2 5488  10.917  12.405   3.335
 1217SOL     OW 5489  13.902  10.155  13.677
 1217SOL    HW1 5490  13.916  10.225  13.741
 1217SOL    HW2 5491  13.918  10.196  13.592
 1218SOL     OW 5492  13.179   5.147  13.269
 1218SOL    HW1 5493  13.133   5.231  13.259
 1218SOL    HW2 5494  13.169   5.105  13.183
 1219SOL     OW 5495   3.127   5.592  14.020
 1219SOL    HW1 5496   3.122   5.553  14.108
 1219SOL    HW2 5497   3.189   5.664  14.029
 1220SOL     OW 5498   3.632  14.060  10.414
 1220SOL    HW1 5499   3.536  14.061  10.406
 1220SOL    HW2 5500   3.648  14.076  10.507
 1221SOL     OW 5501   3.480   6.720   2.480
 1221SOL    HW1 5502   3.494   6.813   2.497
 1221SOL    HW2 5503   3.538   6.675   2.542
 1222SOL     OW 5504   2.209  12.275   3.749
 1222SOL    HW1 5505   2.131  12.249   3.699
 1222SOL    HW2 5506   2.186  12.257   3.840
 1223SOL     OW 5507   8.692   3.104   0.455
 1223SOL    HW1 5508   8.660   3.046   0.525
 1223SOL    HW2 5509   8.655   3.067   0.375
 1224SOL     OW 5510   9.410   3.973  14.800
 1224SOL    HW1 5511   9.410   3.931   0.010
 1224SOL    HW2 5512   9.332   4.028  14.801
 1225SOL     OW 5513   6.954   9.975   7.950
 1225SOL    HW1 5514   7.018  10.018   7.893
 1225SOL    HW2 5515   6.879   9.957   7.893
 1226SOL     OW 5516   7.668  11.955  12.272
 1226SOL    HW1 5517   7.639  11.936  12.183
 1226SOL    HW2 5518   7.684  11.869  12.311
 1227SOL     OW 5519   8.455   9.504   0.187
 1227SOL    HW1 5520   8.526   9.477   0.129
 1227SOL    HW2 5521   8.462   9.445   0.262
 1228SOL     OW 5522   3.039   1.801   2.969
 1228SOL    HW1 5523   2.988   1.825   3.047
 1228SOL    HW2 5524   2.973   1.786   2.901
 1229SOL     OW 5525  12.288   9.383   5.182
 1229SOL    HW1 5526  12.252   9.324   5.116
 1229SOL    HW2 5527  12.347   9.329   5.234
 1230SOL     OW 5528  11.558  12.179  12.900
 1230SOL    HW1 5529  11.651  12.169  12.921
 1230SOL    HW2 5530  11.557  12.232  12.820
 1231SOL     OW 5531  10.195  11.702  12.942
 1231SOL    HW1 5532  10.144  11.781  12.957
 1231SOL    HW2 5533  10.235  11.714  12.856
 1232SOL     OW 5534   5.744  11.602   6.679
 1232SOL    HW1 5535   5.817  11.611   6.740
 1232SOL    HW2 5536   5.686  11.538   6.720
 1233SOL     OW 5537   0.103   0.296   5.995
 1233SOL    HW1 5538   0.128   0.389   5.991
 1233SOL    HW2 5539   0.019   0.296   6.042
 1234SOL     OW 5540   3.395   6.996   7.807
 1234SOL    HW1 5541   3.427   6.914   7.771
 1234SOL    HW2 5542   3.396   7.057   7.733
 1235SOL     OW 5543   5.288  13.304   1.863
 1235SOL    HW1 5544   5.232  13.321   1.939
 1235SOL    HW2 5545   5.281  13.382   1.809
 1236SOL     OW 5546   2.893   0.026   5.113
 1236SOL    HW1 5547   2.871  14.809   5.112
 1236SOL    HW2 5548   2.937   0.040   5.028
 1237SOL     OW 5549   4.005   3.557   2.365
 1237SOL    HW1 5550   3.934   3.614   2.392
 1237SOL    HW2 5551   4.071   3.565   2.434
 1238SOL     OW 5552   5.983  12.694   4.759
 1238SOL    HW1 5553   6.024  12.614   4.726
 1238SOL    HW2 5554   5.901  12.701   4.710
 1239SOL     OW 5555   0.111  11.721   3.645
 1239SOL    HW1 5556   0.151  11.656   3.704
 1239SOL    HW2 5557   0.059  11.669   3.584
 1240SOL     OW 5558  10.112   4.141   0.495
 1240SOL    HW1 5559  10.016   4.140   0.495
 1240SOL    HW2 5560  10.137   4.063   0.545
 1241SOL     OW 5561   2.539   0.186  14.516
 1241SOL    HW1 5562   2.463   0.190  14.573
 1241SOL    HW2 5563   2.612   0.216  14.570
 1242SOL     OW 5564  11.902   0.972  12.667
 1242SOL    HW1 5565  11.960   0.898  12.648
 1242SOL    HW2 5566  11.843   0.976  12.592
 1243SOL     OW 5567   7.892   4.173  13.597
 1243SOL    HW1 5568   7.865   4.224  13.520
 1243SOL    HW2 5569   7.851   4.087  13.583
 1244SOL     OW 5570  11.263   1.391   7.351
 1244SOL    HW1 5571  11.212   1.455   7.301
 1244SOL    HW2 5572  11.212   1.377   7.431
 1245SOL     OW 5573   3.482   3.138   4.278
 1245SOL    HW1 5574   3.457   3.183   4.359
 1245SOL    HW2 5575   3.451   3.195   4.208
 1246SOL     OW 5576   6.239   9.407  12.926
 1246SOL    HW1 5577   6.180   9.338  12.958
 1246SOL    HW2 5578   6.195   9.443  12.849
 1247SOL     OW 5579   6.976   5.607   5.906
 1247SOL    HW1 5580   6.917   5.661   5.960
 1247SOL    HW2 5581   6.922   5.579   5.832
 1248SOL     OW 5582  13.646  12.846  11.907
 1248SOL    HW1 5583  13.584  12.911  11.873
 1248SOL    HW2 5584  13.611  12.762  11.877
 1249SOL     OW 5585   3.714   5.166   3.977
 1249SOL    HW1 5586   3.780   5.224   4.014
 1249SOL    HW2 5587   3.639   5.222   3.960
 1250SOL     OW 5588  11.520   4.779  14.226
 1250SOL    HW1 5589  11.476   4.694  14.229
 1250SOL    HW2 5590  11.587   4.769  14.157
 1251SOL     OW 5591   8.089   4.612   8.878
 1251SOL    HW1 5592   8.140   4.548   8.828
 1251SOL    HW2 5593   8.026   4.647   8.815
 1252SOL     OW 5594   7.666  14.093   1.196
 1252SOL    HW1 5595   7.725  14.102   1.271
 1252SOL    HW2 5596   7.659  13.998   1.183
 1253SOL     OW 5597  12.753  11.297   9.246
 1253SOL    HW1 5598  12.800  11.297   9.329
 1253SOL    HW2 5599  12.814  11.258   9.184
 1254SOL     OW 5600   6.497  13.311  10.259
 1254SOL    HW1 5601   6.441  13.235  10.248
 1254SOL    HW2 5602   6.585  13.276  10.269
 1255SOL     OW 5603   6.950   2.287   7.821
 1255SOL    HW1 5604   6.885   2.261   7.755
 1255SOL    HW2 5605   6.931   2.232   7.897
 1256SOL     OW 5606  11.402   4.844  10.945
 1256SOL    HW1 5607  11.424   4.856  11.038
 1256SOL    HW2 5608  11.453   4.768  10.918
 1257SOL     OW 5609  11.403   9.490   5.197
 1257SOL    HW1 5610  11.363   9.576   5.209
 1257SOL    HW2 5611  11.392   9.471   5.103
 1258SOL     OW 5612  10.289  13.162  12.365
 1258SOL    HW1 5613  10.262  13.231  12.425
 1258SOL    HW2 5614  10.294  13.083  12.419
 1259SOL     OW 5615  11.462   2.224   7.873
 1259SOL    HW1 5616  11.378   2.199   7.912
 1259SOL    HW2 5617  11.521   2.153   7.897
 1260SOL     OW 5618   4.202   7.103   8.225
 1260SOL    HW1 5619   4.224   7.049   8.150
 1260SOL    HW2 5620   4.211   7.193   8.194
 1261SOL     OW 5621   8.990   0.750  11.230
 1261SOL    HW1 5622   8.948   0.669  11.261
 1261SOL    HW2 5623   8.974   0.814  11.300
 1262SOL     OW 5624   8.492   4.470  13.894
 1262SOL    HW1 5625   8.432   4.430  13.832
 1262SOL    HW2 5626   8.508   4.558  13.859
 1263SOL     OW 5627  12.054   6.746   1.761
 1263SOL    HW1 5628  12.055   6.651   1.762
 1263SOL    HW2 5629  12.040   6.770   1.670
 1264SOL     OW 5630   8.440   8.435  11.173
 1264SOL    HW1 5631   8.513   8.470  11.225
 1264SOL    HW2 5632   8.371   8.501  11.180
 1265SOL     OW 5633  10.348  12.993   6.421
 1265SOL    HW1 5634  10.434  12.952   6.425
 1265SOL    HW2 5635  10.349  13.044   6.340
 1266SOL     OW 5636  10.129   5.456   7.849
 1266SOL    HW1 5637  10.156   5.488   7.763
 1266SOL    HW2 5638  10.073   5.525   7.884
 1267SOL     OW 5639   8.203   7.097   8.100
 1267SOL    HW1 5640   8.181   7.156   8.028
 1267SOL    HW2 5641   8.229   7.155   8.172
 1268SOL     OW 5642   7.690   5.143   0.044
 1268SOL    HW1 5643   7.598   5.171   0.051
 1268SOL    HW2 5644   7.733   5.183   0.120
 1269SOL     OW 5645  12.826   5.687  12.559
 1269SOL    HW1 5646  12.848   5.776  12.585
 1269SOL    HW2 5647  12.841   5.685  12.465
 1270SOL     OW 5648  12.363  10.129   3.753
 1270SOL    HW1 5649  12.394  10.186   3.824
 1270SOL    HW2 5650  12.299  10.182   3.706
 1271SOL     OW 5651   3.829   9.940   4.100
 1271SOL    HW1 5652   3.852   9.999   4.028
 1271SOL    HW2 5653   3.752   9.892   4.069
 1272SOL     OW 5654  12.712   1.561   7.976
 1272SOL    HW1 5655  12.670   1.616   8.043
 1272SOL    HW2 5656  12.646   1.549   7.909
 1273SOL     OW 5657   0.741   2.953  13.461
 1273SOL    HW1 5658   0.744   2.929  13.554
 1273SOL    HW2 5659   0.678   3.024  13.456
 1274SOL     OW 5660  10.030   7.050   8.573
 1274SOL    HW1 5661  10.054   7.138   8.604
 1274SOL    HW2 5662  10.110   6.998   8.584
 1275SOL     OW 5663   6.762   1.550   3.288
 1275SOL    HW1 5664   6.730   1.585   3.205
 1275SOL    HW2 5665   6.817   1.620   3.324
 1276SOL     OW 5666   3.644   3.222   9.499
 1276SOL    HW1 5667   3.557   3.207   9.535
 1276SOL    HW2 5668   3.651   3.318   9.494
 1277SOL     OW 5669   6.639   1.617   5.863
 1277SOL    HW1 5670   6.565   1.673   5.886
 1277SOL    HW2 5671   6.716   1.670   5.884
 1278SOL     OW 5672   9.416  13.953   8.242
 1278SOL    HW1 5673   9.386  13.984   8.328
 1278SOL    HW2 5674   9.467  14.026   8.207
 1279SOL     OW 5675   7.885  10.965   5.327
 1279SOL    HW1 5676   7.916  10.875   5.315
 1279SOL    HW2 5677   7.794  10.955   5.355
 1280SOL     OW 5678   3.942   6.268   9.230
 1280SOL    HW1 5679   4.020   6.322   9.213
 1280SOL    HW2 5680   3.905   6.252   9.143
 1281SOL     OW 5681   0.288  13.612   6.059
 1281SOL    HW1 5682   0.203  13.655   6.073
 1281SOL    HW2 5683   0.336  13.674   6.004
 1282SOL     OW 5684   3.773  14.240   9.967
 1282SOL    HW1 5685   3.686  14.222  10.004
 1282SOL    HW2 5686   3.811  14.153   9.952
 1283SOL     OW 5687   7.250   1.284   1.901
 1283SOL    HW1 5688   7.200   1.361   1.927
 1283SOL    HW2 5689   7.341   1.313   1.901
 1284SOL     OW 5690  14.849   4.914   7.045
 1284SOL    HW1 5691   0.035   4.935   7.115
 1284SOL    HW2 5692   0.014   4.946   6.965
 1285SOL     OW 5693  10.261  10.394   8.545
 1285SOL    HW1 5694  10.245  10.342   8.624
 1285SOL    HW2 5695  10.249  10.485   8.573
 1286SOL     OW 5696   2.593   4.502   0.116
 1286SOL    HW1 5697   2.507   4.519   0.155
 1286SOL    HW2 5698   2.601   4.407   0.117
 1287SOL     OW 5699   8.046   8.505   0.048
 1287SOL    HW1 5700   8.107   8.577   0.058
 1287SOL    HW2 5701   8.101   8.427   0.042
 1288SOL     OW 5702  12.378   5.036   7.252
 1288SOL    HW1 5703  12.341   5.031   7.164
 1288SOL    HW2 5704  12.306   5.011   7.310
 1289SOL     OW 5705  12.035   7.332  10.069
 1289SOL    HW1 5706  11.964   7.394  10.088
 1289SOL    HW2 5707  12.105   7.386  10.033
 1290SOL     OW 5708   5.224  14.246   0.701
 1290SOL    HW1 5709   5.155  14.208   0.755
 1290SOL    HW2 5710   5.213  14.341   0.712
 1291SOL     OW 5711  13.409   3.025   9.498
 1291SOL    HW1 5712  13.361   2.954   9.540
 1291SOL    HW2 5713  13.442   3.077   9.571
 1292SOL     OW 5714   4.544   3.819   9.516
 1292SOL    HW1 5715   4.598   3.772   9.580
 1292SOL    HW2 5716   4.508   3.751   9.460
 1293SOL     OW 5717   5.209   0.128  11.743
 1293SOL    HW1 5718   5.288   0.079  11.719
 1293SOL    HW2 5719   5.175   0.161  11.660
 1294SOL     OW 5720  13.927  11.564   4.472
 1294SOL    HW1 5721  13.955  11.536   4.559
 1294SOL    HW2 5722  13.833  11.545   4.470
 1295SOL     OW 5723   2.535   8.339   6.867
 1295SOL    HW1 5724   2.461   8.390   6.900
 1295SOL    HW2 5725   2.612   8.388   6.896
 1296SOL     OW 5726   7.189   0.895   8.375
 1296SOL    HW1 5727   7.284   0.885   8.373
 1296SOL    HW2 5728   7.159   0.858   8.292
 1297SOL     OW 5729  13.480   2.777  14.594
 1297SOL    HW1 5730  13.446   2.864  14.571
 1297SOL    HW2 5731  13.536   2.753  14.520
 1298SOL     OW 5732   2.276   5.301  13.279
 1298SOL    HW1 5733   2.197   5.326  13.231
 1298SOL    HW2 5734   2.246   5.285  13.369
 1299SOL     OW 5735   5.445  12.076  12.965
 1299SOL    HW1 5736   5.365  12.101  13.012
 1299SOL    HW2 5737   5.454  12.142  12.896
 1300SOL     OW 5738   7.905  11.406   7.054
 1300SOL    HW1 5739   7.918  11.438   6.965
 1300SOL    HW2 5740   7.877  11.484   7.102
 1301SOL     OW 5741   8.900   2.344  12.043
 1301SOL    HW1 5742   8.976   2.357  11.986
 1301SOL    HW2 5743   8.839   2.413  12.017
 1302SOL     OW 5744  10.597   6.509  13.082
 1302SOL    HW1 5745  10.597   6.499  12.986
 1302SOL    HW2 5746  10.529   6.575  13.099
 1303SOL     OW 5747   3.057   1.438  12.855
 1303SOL    HW1 5748   3.063   1.403  12.944
 1303SOL    HW2 5749   3.033   1.362  12.801
 1304SOL     OW 5750   0.560   8.322   3.846
 1304SOL    HW1 5751   0.542   8.340   3.754
 1304SOL    HW2 5752   0.502   8.381   3.894
 1305SOL     OW 5753  10.137   8.039   5.577
 1305SOL    HW1 5754  10.124   7.945   5.565
 1305SOL    HW2 5755  10.110   8.055   5.667
 1306SOL     OW 5756   6.100  10.098  13.794
 1306SOL    HW1 5757   6.017  10.065  13.759
 1306SOL    HW2 5758   6.130  10.162  13.729
 1307SOL     OW 5759  13.724  11.223  12.027
 1307SOL    HW1 5760  13.649  11.198  12.080
 1307SOL    HW2 5761  13.706  11.184  11.941
 1308SOL     OW 5762   5.325   1.342   2.979
 1308SOL    HW1 5763   5.389   1.273   2.999
 1308SOL    HW2 5764   5.244   1.294   2.961
 1309SOL     OW 5765   1.885  13.387   0.694
 1309SOL    HW1 5766   1.803  13.339   0.705
 1309SOL    HW2 5767   1.862  13.478   0.714
 1310SOL     OW 5768   9.719   8.869  10.648
 1310SOL    HW1 5769   9.748   8.807  10.714
 1310SOL    HW2 5770   9.781   8.942  10.655
 1311SOL     OW 5771   3.288   1.677  13.664
 1311SOL    HW1 5772   3.284   1.707  13.755
 1311SOL    HW2 5773   3.202   1.698  13.628
 1312SOL     OW 5774   1.652   7.134   5.309
 1312SOL    HW1 5775   1.612   7.067   5.364
 1312SOL    HW2 5776   1.578   7.177   5.265
 1313SOL     OW 5777   6.887   9.607  10.629
 1313SOL    HW1 5778   6.971   9.652  10.628
 1313SOL    HW2 5779   6.908   9.517  10.655
 1314SOL     OW 5780  10.835   8.332   8.370
 1314SOL    HW1 5781  10.757   8.280   8.351
 1314SOL    HW2 5782  10.878   8.342   8.285
 1315SOL     OW 5783   2.671   5.331  12.744
 1315SOL    HW1 5784   2.752   5.363  12.703
 1315SOL    HW2 5785   2.649   5.398  12.808
 1316SOL     OW 5786   1.972   4.288   6.358
 1316SOL    HW1 5787   2.049   4.344   6.347
 1316SOL    HW2 5788   1.957   4.251   6.271
 1317SOL     OW 5789  10.185   5.283  11.171
 1317SOL    HW1 5790  10.123   5.354  11.186
 1317SOL    HW2 5791  10.173   5.261  11.078
 1318SOL     OW 5792   2.347  13.943  10.886
 1318SOL    HW1 5793   2.354  14.029  10.845
 1318SOL    HW2 5794   2.332  13.883  10.812
 1319SOL     OW 5795   3.401   8.246  13.835
 1319SOL    HW1 5796   3.440   8.264  13.920
 1319SOL    HW2 5797   3.307   8.259  13.848
 1320SOL     OW 5798   5.265   3.227   9.450
 1320SOL    HW1 5799   5.230   3.203   9.536
 1320SOL    HW2 5800   5.279   3.143   9.406
 1321SOL     OW 5801   4.578   9.529  10.043
 1321SOL    HW1 5802   4.642   9.600  10.048
 1321SOL    HW2 5803   4.503   9.566   9.997
 1322SOL     OW 5804   0.073   1.258  12.860
 1322SOL    HW1 5805   0.002   1.221  12.912
 1322SOL    HW2 5806   0.146   1.267  12.920
 1323SOL     OW 5807  14.148   2.633  10.767
 1323SOL    HW1 5808  14.143   2.542  10.737
 1323SOL    HW2 5809  14.204   2.630  10.844
 1324SOL     OW 5810  11.687  11.972   2.667
 1324SOL    HW1 5811  11.645  11.951   2.583
 1324SOL    HW2 5812  11.617  12.013   2.719
 1325SOL     OW 5813   5.156   4.865  13.282
 1325SOL    HW1 5814   5.195   4.809  13.349
 1325SOL    HW2 5815   5.122   4.940  13.330
 1326SOL     OW 5816  11.714  10.735   7.628
 1326SOL    HW1 5817  11.658  10.671   7.671
 1326SOL    HW2 5818  11.656  10.781   7.567
 1327SOL     OW 5819  12.457  14.305  13.535
 1327SOL    HW1 5820  12.455  14.390  13.490
 1327SOL    HW2 5821  12.370  14.268  13.519
 1328SOL     OW 5822  13.624  10.535   7.390
 1328SOL    HW1 5823  13.681  10.521   7.314
 1328SOL    HW2 5824  13.667  10.605   7.439
 1329SOL     OW 5825   6.888  13.929  12.993
 1329SOL    HW1 5826   6.825  13.923  13.065
 1329SOL    HW2 5827   6.971  13.901  13.032
 1330SOL     OW 5828   6.133   3.556   1.030
 1330SOL    HW1 5829   6.084   3.601   0.961
 1330SOL    HW2 5830   6.210   3.521   0.986
 1331SOL     OW 5831  11.681   4.137   9.266
 1331SOL    HW1 5832  11.659   4.115   9.357
 1331SOL    HW2 5833  11.672   4.054   9.219
 1332SOL     OW 5834  11.583   4.560  12.732
 1332SOL    HW1 5835  11.544   4.643  12.704
 1332SOL    HW2 5836  11.612   4.577  12.822
 1333SOL     OW 5837   1.110   7.951   5.612
 1333SOL    HW1 5838   1.147   7.882   5.556
 1333SOL    HW2 5839   1.038   7.987   5.561
 1334SOL     OW 5840  14.054  11.618  11.183
 1334SOL    HW1 5841  14.032  11.546  11.242
 1334SOL    HW2 5842  14.025  11.588  11.097
 1335SOL     OW 5843  13.254  13.791   2.920
 1335SOL    HW1 5844  13.316  13.801   2.992
 1335SOL    HW2 5845  13.293  13.841   2.848
 1336SOL     OW 5846   2.108   4.461  10.341
 1336SOL    HW1 5847   2.142   4.374  10.364
 1336SOL    HW2 5848   2.125   4.469  10.247
 1337SOL     OW 5849   6.906   7.817   3.400
 1337SOL    HW1 5850   6.849   7.891   3.378
 1337SOL    HW2 5851   6.988   7.836   3.355
 1338SOL     OW 5852  11.927   9.127   8.121
 1338SOL    HW1 5853  11.909   9.106   8.029
 1338SOL    HW2 5854  12.003   9.184   8.119
 1339SOL     OW 5855   3.216   0.684  13.079
 1339SOL    HW1 5856   3.139   0.694  13.023
 1339SOL    HW2 5857   3.242   0.593  13.067
 1340SOL     OW 5858  14.419   6.779  13.895
 1340SOL    HW1 5859  14.357   6.826  13.950
 1340SOL    HW2 5860  14.505   6.808  13.926
 1341SOL     OW 5861  12.170  12.772  11.328
 1341SOL    HW1 5862  12.189  12.682  11.302
 1341SOL    HW2 5863  12.246  12.822  11.299
 1342SOL     OW 5864   4.070   4.032  11.714
 1342SOL    HW1 5865   4.120   4.070  11.786
 1342SOL    HW2 5866   4.130   3.969  11.674
 1343SOL     OW 5867   3.853  12.616  11.560
 1343SOL    HW1 5868   3.862  12.533  11.606
 1343SOL    HW2 5869   3.936  12.626  11.513
 1344SOL     OW 5870   7.010  10.815  10.443
 1344SOL    HW1 5871   7.061  10.812  10.524
 1344SOL    HW2 5872   6.942  10.880  10.460
 1345SOL     OW 5873   8.557   9.336  10.520
 1345SOL    HW1 5874   8.619   9.323  10.448
 1345SOL    HW2 5875   8.611   9.361  10.595
 1346SOL     OW 5876   5.095   0.414   3.020
 1346SOL    HW1 5877   5.182   0.387   2.991
 1346SOL    HW2 5878   5.078   0.361   3.098
 1347SOL     OW 5879   3.821   2.866  11.270
 1347SOL    HW1 5880   3.750   2.808  11.242
 1347SOL    HW2 5881   3.778   2.948  11.293
 1348SOL     OW 5882   2.903   8.239  10.380
 1348SOL    HW1 5883   2.908   8.300  10.306
 1348SOL    HW2 5884   2.977   8.180  10.367
 1349SOL     OW 5885  11.261  12.229  11.651
 1349SOL    HW1 5886  11.199  12.223  11.578
 1349SOL    HW2 5887  11.223  12.294  11.709
 1350SOL     OW 5888   4.088   6.577  11.310
 1350SOL    HW1 5889   4.140   6.617  11.240
 1350SOL    HW2 5890   4.124   6.615  11.390
 1351SOL     OW 5891   7.392   3.646   0.956
 1351SOL    HW1 5892   7.467   3.588   0.948
 1351SOL    HW2 5893   7.420   3.728   0.915
 1352SOL     OW 5894   6.437   3.303   4.995
 1352SOL    HW1 5895   6.396   3.219   5.017
 1352SOL    HW2 5896   6.529   3.280   4.978
 1353SOL     OW 5897   4.447   3.559   4.813
 1353SOL    HW1 5898   4.375   3.496   4.821
 1353SOL    HW2 5899   4.523   3.512   4.848
 1354SOL     OW 5900   7.592   1.630   8.368
 1354SOL    HW1 5901   7.642   1.706   8.340
 1354SOL    HW2 5902   7.647   1.555   8.343
 1355SOL     OW 5903  11.642   7.394   9.319
 1355SOL    HW1 5904  11.732   7.366   9.332
 1355SOL    HW2 5905  11.589   7.321   9.351
 1356SOL     OW 5906  14.478   6.241  10.485
 1356SOL    HW1 5907  14.514   6.290  10.410
 1356SOL    HW2 5908  14.491   6.149  10.461
 1357SOL     OW 5909   9.235   3.948   8.428
 1357SOL    HW1 5910   9.305   3.969   8.367
 1357SOL    HW2 5911   9.278   3.898   8.497
 1358SOL     OW 5912   3.843   9.534   0.290
 1358SOL    HW1 5913   3.816   9.474   0.220
 1358SOL    HW2 5914   3.909   9.590   0.249
 1359SOL     OW 5915   0.338  11.841   2.258
 1359SOL    HW1 5916   0.283  11.830   2.180
 1359SOL    HW2 5917   0.329  11.934   2.280
 1360SOL     OW 5918   1.023  13.280   6.766
 1360SOL    HW1 5919   1.078  13.354   6.793
 1360SOL    HW2 5920   0.950  13.279   6.829
 1361SOL     OW 5921   9.552   2.082   1.438
 1361SOL    HW1 5922   9.472   2.079   1.385
 1361SOL    HW2 5923   9.597   2.161   1.409
 1362SOL     OW 5924  12.909  12.430   9.345
 1362SOL    HW1 5925  12.933  12.348   9.388
 1362SOL    HW2 5926  12.959  12.497   9.391
 1363SOL     OW 5927  11.881   2.601  14.094
 1363SOL    HW1 5928  11.964   2.629  14.057
 1363SOL    HW2 5929  11.904   2.556  14.175
 1364SOL     OW 5930   8.249   5.353   0.555
 1364SOL    HW1 5931   8.234   5.411   0.481
 1364SOL    HW2 5932   8.161   5.332   0.587
 1365SOL     OW 5933   7.846  12.192  14.716
 1365SOL    HW1 5934   7.855  12.264  14.653
 1365SOL    HW2 5935   7.925  12.197  14.769
 1366SOL     OW 5936   8.612   5.174   7.071
 1366SOL    HW1 5937   8.526   5.166   7.113
 1366SOL    HW2 5938   8.665   5.224   7.134
 1367SOL     OW 5939  11.691   6.242   2.928
 1367SOL    HW1 5940  11.618   6.301   2.909
 1367SOL    HW2 5941  11.685   6.173   2.862
 1368SOL     OW 5942   8.048   8.078  14.826
 1368SOL    HW1 5943   8.090   8.112   0.028
 1368SOL    HW2 5944   8.098   7.998  14.805
 1369SOL     OW 5945  12.945  13.013   2.903
 1369SOL    HW1 5946  13.041  13.009   2.906
 1369SOL    HW2 5947  12.917  12.986   2.990
 1370SOL     OW 5948  10.534   4.606  13.738
 1370SOL    HW1 5949  10.574   4.582  13.822
 1370SOL    HW2 5950  10.598   4.663  13.696
 1371SOL     OW 5951  13.482  13.264   9.882
 1371SOL    HW1 5952  13.550  13.277   9.948
 1371SOL    HW2 5953  13.404  13.242   9.933
 1372SOL     OW 5954   3.026   4.868   1.446
 1372SOL    HW1 5955   3.100   4.914   1.405
 1372SOL    HW2 5956   3.037   4.777   1.419
 1373SOL     OW 5957  12.836  13.659  13.699
 1373SOL    HW1 5958  12.809  13.570  13.676
 1373SOL    HW2 5959  12.909  13.678  13.639
 1374SOL     OW 5960   6.821  10.186   8.365
 1374SOL    HW1 5961   6.762  10.116   8.340
 1374SOL    HW2 5962   6.848  10.227   8.283
 1375SOL     OW 5963   5.550   0.268   9.663
 1375SOL    HW1 5964   5.484   0.243   9.728
 1375SOL    HW2 5965   5.568   0.187   9.615
 1376SOL     OW 5966   1.745   0.826  10.821
 1376SOL    HW1 5967   1.808   0.898  10.818
 1376SOL    HW2 5968   1.684   0.850  10.891
 1377SOL     OW 5969  11.168   2.224   1.066
 1377SOL    HW1 5970  11.235   2.158   1.085
 1377SOL    HW2 5971  11.213   2.286   1.008
 1378SOL     OW 5972  13.371   1.282   9.007
 1378SOL    HW1 5973  13.391   1.320   9.093
 1378SOL    HW2 5974  13.427   1.330   8.946
 1379SOL     OW 5975   9.049  11.809   5.198
 1379SOL    HW1 5976   8.981  11.753   5.161
 1379SOL    HW2 5977   9.124  11.750   5.211
 1380SOL     OW 5978   9.161   4.803   4.949
 1380SOL    HW1 5979   9.084   4.798   4.893
 1380SOL    HW2 5980   9.203   4.885   4.925
 1381SOL     OW 5981   4.297  13.530   3.751
 1381SOL    HW1 5982   4.348  13.610   3.737
 1381SOL    HW2 5983   4.357  13.459   3.728
 1382SOL     OW 5984   3.640  10.098   1.031
 1382SOL    HW1 5985   3.623  10.052   1.113
 1382SOL    HW2 5986   3.595  10.046   0.965
 1383SOL     OW 5987   2.598  13.034   3.431
 1383SOL    HW1 5988   2.570  13.039   3.523
 1383SOL    HW2 5989   2.517  13.013   3.383
 1384SOL     OW 5990  14.476   2.608   4.060
 1384SOL    HW1 5991  14.409   2.576   4.120
 1384SOL    HW2 5992  14.472   2.703   4.069
 1385SOL     OW 5993   3.173   2.406  12.653
 1385SOL    HW1 5994   3.212   2.393  12.567
 1385SOL    HW2 5995   3.243   2.447  12.704
 1386SOL     OW 5996   3.953   5.654  13.822
 1386SOL    HW1 5997   4.037   5.659  13.866
 1386SOL    HW2 5998   3.945   5.738  13.776
 1387SOL     OW 5999   4.023  12.718  13.408
 1387SOL    HW1 6000   4.066  12.635  13.425
 1387SOL    HW2 6001   3.968  12.702  13.331
 1388SOL     OW 6002   6.620  11.703  13.297
 1388SOL    HW1 6003   6.547  11.724  13.355
 1388SOL    HW2 6004   6.689  11.765  13.322
 1389SOL     OW 6005  13.678   8.873   6.996
 1389SOL    HW1 6006  13.744   8.906   6.935
 1389SOL    HW2 6007  13.598   8.920   6.973
 1390SOL     OW 6008   9.491   9.229   4.898
 1390SOL    HW1 6009   9.470   9.312   4.857
 1390SOL    HW2 6010   9.432   9.166   4.857
 1391SOL     OW 6011   8.687   5.463  12.744
 1391SOL    HW1 6012   8.775   5.478  12.710
 1391SOL    HW2 6013   8.635   5.535  12.707
 1392SOL     OW 6014   8.991  13.072   8.439
 1392SOL    HW1 6015   9.078  13.085   8.475
 1392SOL    HW2 6016   8.932  13.117   8.500
 1393SOL     OW 6017   8.113   3.867  14.853
 1393SOL    HW1 6018   8.196   3.834  14.820
 1393SOL    HW2 6019   8.082   3.798   0.036
 1394SOL     OW 6020   7.898   8.579  11.109
 1394SOL    HW1 6021   7.823   8.598  11.052
 1394SOL    HW2 6022   7.935   8.665  11.128
 1395SOL     OW 6023   8.280   6.006  12.467
 1395SOL    HW1 6024   8.221   6.080  12.483
 1395SOL    HW2 6025   8.222   5.933  12.446
 1396SOL     OW 6026  10.218  10.833   3.522
 1396SOL    HW1 6027  10.156  10.845   3.594
 1396SOL    HW2 6028  10.304  10.846   3.563
 1397SOL     OW 6029  11.616  10.775  13.800
 1397SOL    HW1 6030  11.603  10.827  13.721
 1397SOL    HW2 6031  11.711  10.772  13.812
 1398SOL     OW 6032   7.848   8.437  11.808
 1398SOL    HW1 6033   7.884   8.416  11.894
 1398SOL    HW2 6034   7.765   8.392  11.805
 1399SOL     OW 6035   7.733  13.640   5.230
 1399SOL    HW1 6036   7.798  13.679   5.288
 1399SOL    HW2 6037   7.774  13.558   5.200
 1400SOL     OW 6038   6.517  10.427   3.550
 1400SOL    HW1 6039   6.577  10.353   3.565
 1400SOL    HW2 6040   6.487  10.416   3.460
 1401SOL     OW 6041  13.782   2.442   7.883
 1401SOL    HW1 6042  13.839   2.385   7.831
 1401SOL    HW2 6043  13.741   2.500   7.818
 1402SOL     OW 6044  13.154   5.161  14.573
 1402SOL    HW1 6045  13.063   5.192  14.570
 1402SOL    HW2 6046  13.204   5.232  14.533
 1403SOL     OW 6047  10.047   5.088  13.083
 1403SOL    HW1 6048   9.963   5.100  13.040
 1403SOL    HW2 6049  10.063   4.994  13.080
 1404SOL     OW 6050  11.874  11.891   6.208
 1404SOL    HW1 6051  11.839  11.804   6.227
 1404SOL    HW2 6052  11.964  11.888   6.239
 1405SOL     OW 6053  14.468  11.929   2.106
 1405SOL    HW1 6054  14.387  11.893   2.070
 1405SOL    HW2 6055  14.481  11.881   2.189
 1406SOL     OW 6056   4.535  14.700  11.273
 1406SOL    HW1 6057   4.440  14.688  11.274
 1406SOL    HW2 6058   4.547  14.792  11.248
 1407SOL     OW 6059  14.071   9.220  10.083
 1407SOL    HW1 6060  14.096   9.135  10.048
 1407SOL    HW2 6061  14.151   9.272  10.078
 1408SOL     OW 6062   8.684   1.111  13.443
 1408SOL    HW1 6063   8.666   1.052  13.517
 1408SOL    HW2 6064   8.779   1.128  13.449
 1409SOL     OW 6065  10.426   6.193  14.459
 1409SOL    HW1 6066  10.501   6.134  14.448
 1409SOL    HW2 6067  10.421   6.241  14.375
 1410SOL     OW 6068  13.550  12.291  10.571
 1410SOL    HW1 6069  13.611  12.250  10.632
 1410SOL    HW2 6070  13.584  12.269  10.484
 1411SOL     OW 6071   2.871  13.688  11.861
 1411SOL    HW1 6072   2.780  13.669  11.839
 1411SOL    HW2 6073   2.914  13.603  11.864
 1412SOL     OW 6074   7.153  13.505   7.708
 1412SOL    HW1 6075   7.088  13.494   7.777
 1412SOL    HW2 6076   7.193  13.590   7.724
 1413SOL     OW 6077   1.061   4.808   0.561
 1413SOL    HW1 6078   0.990   4.783   0.503
 1413SOL    HW2 6079   1.019   4.828   0.645
 1414SOL     OW 6080   8.626   1.691   5.306
 1414SOL    HW1 6081   8.689   1.763   5.313
 1414SOL    HW2 6082   8.541   1.734   5.311
 1415SOL     OW 6083  13.765   8.961  12.749
 1415SOL    HW1 6084  13.848   9.003  12.769
 1415SOL    HW2 6085  13.700   9.013  12.797
 1416SOL     OW 6086  13.099   2.211   3.213
 1416SOL    HW1 6087  13.094   2.167   3.298
 1416SOL    HW2 6088  13.136   2.145   3.155
 1417SOL     OW 6089   8.559  11.936   4.599
 1417SOL    HW1 6090   8.587  11.891   4.520
 1417SOL    HW2 6091   8.553  11.867   4.665
 1418SOL     OW 6092   1.637   8.527   2.397
 1418SOL    HW1 6093   1.600   8.464   2.336
 1418SOL    HW2 6094   1.664   8.601   2.342
 1419SOL     OW 6095   3.191   3.746  12.052
 1419SOL    HW1 6096   3.141   3.720  12.129
 1419SOL    HW2 6097   3.248   3.816  12.083
 1420SOL     OW 6098   2.910  11.831  13.726
 1420SOL    HW1 6099   2.862  11.885  13.663
 1420SOL    HW2 6100   2.932  11.891  13.797
 1421SOL     OW 6101   5.705   7.275   2.846
 1421SOL    HW1 6102   5.619   7.239   2.824
 1421SOL    HW2 6103   5.768   7.211   2.812
 1422SOL     OW 6104  11.475  13.332   1.634
 1422SOL    HW1 6105  11.483  13.326   1.539
 1422SOL    HW2 6106  11.386  13.302   1.653
 1423SOL     OW 6107  14.803  13.042  11.118
 1423SOL    HW1 6108  14.709  13.023  11.127
 1423SOL    HW2 6109  14.841  12.958  11.092
 1424SOL     OW 6110   4.100   4.987   7.608
 1424SOL    HW1 6111   4.189   4.987   7.642
 1424SOL    HW2 6112   4.100   5.054   7.540
 1425SOL     OW 6113   1.065  13.243   9.204
 1425SOL    HW1 6114   1.042  13.172   9.145
 1425SOL    HW2 6115   1.088  13.200   9.286
 1426SOL     OW 6116   7.265   0.672   0.768
 1426SOL    HW1 6117   7.288   0.581   0.750
 1426SOL    HW2 6118   7.349   0.719   0.767
 1427SOL     OW 6119   7.909   4.470   7.231
 1427SOL    HW1 6120   7.867   4.555   7.243
 1427SOL    HW2 6121   7.850   4.408   7.275
 1428SOL     OW 6122   9.801  11.876   1.025
 1428SOL    HW1 6123   9.750  11.956   1.030
 1428SOL    HW2 6124   9.792  11.836   1.111
 1429SOL     OW 6125   0.465   0.946   2.747
 1429SOL    HW1 6126   0.554   0.973   2.724
 1429SOL    HW2 6127   0.463   0.852   2.730
 1430SOL     OW 6128  14.397   2.204   4.644
 1430SOL    HW1 6129  14.375   2.194   4.737
 1430SOL    HW2 6130  14.316   2.231   4.603
 1431SOL     OW 6131   9.252  10.501   0.467
 1431SOL    HW1 6132   9.259  10.459   0.553
 1431SOL    HW2 6133   9.343  10.512   0.439
 1432SOL     OW 6134   8.180   9.980   1.078
 1432SOL    HW1 6135   8.132   9.902   1.052
 1432SOL    HW2 6136   8.272   9.957   1.066
 1433SOL     OW 6137   3.942   1.639   9.588
 1433SOL    HW1 6138   3.970   1.718   9.634
 1433SOL    HW2 6139   4.010   1.623   9.523
 1434SOL     OW 6140   2.137   6.349  13.520
 1434SOL    HW1 6141   2.222   6.323  13.554
 1434SOL    HW2 6142   2.081   6.272  13.532
 1435SOL     OW 6143   9.914   9.688   6.058
 1435SOL    HW1 6144   9.872   9.625   6.116
 1435SOL    HW2 6145   9.988   9.722   6.107
 1436SOL     OW 6146   1.688   8.020   8.193
 1436SOL    HW1 6147   1.675   8.098   8.245
 1436SOL    HW2 6148   1.652   7.949   8.246
 1437SOL     OW 6149   0.565  10.063  10.362
 1437SOL    HW1 6150   0.513  10.096  10.289
 1437SOL    HW2 6151   0.655  10.062  10.329
 1438SOL     OW 6152   8.949   5.569   9.173
 1438SOL    HW1 6153   8.983   5.480   9.168
 1438SOL    HW2 6154   8.911   5.576   9.260
 1439SOL     OW 6155   6.258  12.399   0.226
 1439SOL    HW1 6156   6.196  12.330   0.202
 1439SOL    HW2 6157   6.228  12.429   0.312
 1440SOL     OW 6158  10.447  10.332   2.615
 1440SOL    HW1 6159  10.479  10.335   2.705
 1440SOL    HW2 6160  10.507  10.273   2.569
 1441SOL     OW 6161  14.062   3.788   6.517
 1441SOL    HW1 6162  14.126   3.718   6.530
 1441SOL    HW2 6163  13.981   3.742   6.493
 1442SOL     OW 6164  13.378   7.602   8.453
 1442SOL    HW1 6165  13.322   7.623   8.528
 1442SOL    HW2 6166  13.320   7.606   8.377
 1443SOL     OW 6167   8.771   4.571   0.121
 1443SOL    HW1 6168   8.828   4.570   0.044
 1443SOL    HW2 6169   8.688   4.607   0.088
 1444SOL     OW 6170   9.531  13.730   5.245
 1444SOL    HW1 6171   9.442  13.756   5.219
 1444SOL    HW2 6172   9.570  13.810   5.280
 1445SOL     OW 6173   9.970  14.086   7.155
 1445SOL    HW1 6174  10.022  14.050   7.084
 1445SOL    HW2 6175   9.890  14.033   7.156
 1446SOL     OW 6176   7.077   4.165   1.553
 1446SOL    HW1 6177   7.092   4.079   1.514
 1446SOL    HW2 6178   7.035   4.216   1.484
 1447SOL     OW 6179  14.156   3.005   8.563
 1447SOL    HW1 6180  14.159   2.939   8.494
 1447SOL    HW2 6181  14.102   2.965   8.631
 1448SOL     OW 6182   3.918  14.846   3.724
 1448SOL    HW1 6183   3.898   0.040   3.786
 1448SOL    HW2 6184   4.008  14.861   3.698
 1449SOL     OW 6185  14.206   4.909   9.666
 1449SOL    HW1 6186  14.194   4.892   9.760
 1449SOL    HW2 6187  14.273   4.847   9.639
 1450SOL     OW 6188   4.837   7.848   9.679
 1450SOL    HW1 6189   4.931   7.841   9.665
 1450SOL    HW2 6190   4.800   7.863   9.592
 1451SOL     OW 6191  13.429  11.489   7.892
 1451SOL    HW1 6192  13.515  11.453   7.913
 1451SOL    HW2 6193  13.385  11.418   7.845
 1452SOL     OW 6194   7.000   4.076  12.410
 1452SOL    HW1 6195   7.056   4.144  12.448
 1452SOL    HW2 6196   7.002   4.005  12.474
 1453SOL     OW 6197  12.006   4.726  11.235
 1453SOL    HW1 6198  11.967   4.698  11.318
 1453SOL    HW2 6199  12.097   4.744  11.256
 1454SOL     OW 6200  10.371   5.912   5.940
 1454SOL    HW1 6201  10.433   5.843   5.965
 1454SOL    HW2 6202  10.394   5.932   5.849
 1455SOL     OW 6203   5.459   6.612  14.474
 1455SOL    HW1 6204   5.415   6.683  14.427
 1455SOL    HW2 6205   5.388   6.564  14.518
 1456SOL     OW 6206  10.697   1.639   6.629
 1456SOL    HW1 6207  10.630   1.705   6.649
 1456SOL    HW2 6208  10.657   1.584   6.562
 1457SOL     OW 6209   5.331   6.841  13.195
 1457SOL    HW1 6210   5.283   6.826  13.276
 1457SOL    HW2 6211   5.396   6.770  13.192
 1458SOL     OW 6212   3.988   8.663   5.992
 1458SOL    HW1 6213   3.923   8.726   5.962
 1458SOL    HW2 6214   4.028   8.704   6.069
 1459SOL     OW 6215   3.650  13.227  13.197
 1459SOL    HW1 6216   3.690  13.290  13.257
 1459SOL    HW2 6217   3.708  13.150  13.202
 1460SOL     OW 6218   2.605   4.314  13.785
 1460SOL    HW1 6219   2.672   4.358  13.837
 1460SOL    HW2 6220   2.651   4.242  13.743
 1461SOL     OW 6221   0.326  11.279   4.103
 1461SOL    HW1 6222   0.406  11.232   4.127
 1461SOL    HW2 6223   0.277  11.216   4.049
 1462SOL     OW 6224   8.633   4.868   8.489
 1462SOL    HW1 6225   8.727   4.887   8.493
 1462SOL    HW2 6226   8.614   4.819   8.569
 1463SOL     OW 6227   6.676   6.256  13.624
 1463SOL    HW1 6228   6.747   6.253  13.687
 1463SOL    HW2 6229   6.642   6.345  13.630
 1464SOL     OW 6230  10.051   0.511   8.122
 1464SOL    HW1 6231   9.964   0.546   8.102
 1464SOL    HW2 6232  10.047   0.493   8.216
 1465SOL     OW 6233   4.496   4.041   6.645
 1465SOL    HW1 6234   4.490   4.114   6.583
 1465SOL    HW2 6235   4.502   3.963   6.590
 1466SOL     OW 6236  13.538   6.448   4.356
 1466SOL    HW1 6237  13.588   6.383   4.405
 1466SOL    HW2 6238  13.538   6.526   4.412
 1467SOL     OW 6239   4.714   2.912  10.842
 1467SOL    HW1 6240   4.701   2.896  10.935
 1467SOL    HW2 6241   4.626   2.924  10.807
 1468SOL     OW 6242   6.089   6.079  14.522
 1468SOL    HW1 6243   6.040   6.036  14.452
 1468SOL    HW2 6244   6.134   6.152  14.478
 1469SOL     OW 6245   3.033   4.336   0.286
 1469SOL    HW1 6246   2.957   4.392   0.300
 1469SOL    HW2 6247   3.091   4.387   0.229
 1470SOL     OW 6248   9.502   7.953   7.218
 1470SOL    HW1 6249   9.452   7.879   7.251
 1470SOL    HW2 6250   9.550   7.986   7.294
 1471SOL     OW 6251   8.376   4.818   3.388
 1471SOL    HW1 6252   8.402   4.727   3.377
 1471SOL    HW2 6253   8.285   4.821   3.359
 1472SOL     OW 6254   4.823  12.387  10.751
 1472SOL    HW1 6255   4.888  12.455  10.764
 1472SOL    HW2 6256   4.874  12.307  10.740
 1473SOL     OW 6257   0.308   5.735   2.460
 1473SOL    HW1 6258   0.235   5.770   2.510
 1473SOL    HW2 6259   0.318   5.796   2.387
 1474SOL     OW 6260   0.531  13.733  10.256
 1474SOL    HW1 6261   0.505  13.645  10.285
 1474SOL    HW2 6262   0.451  13.770  10.219
 1475SOL     OW 6263   1.700   5.951   8.179
 1475SOL    HW1 6264   1.769   5.890   8.204
 1475SOL    HW2 6265   1.690   6.008   8.256
 1476SOL     OW 6266  14.270  12.502  11.554
 1476SOL    HW1 6267  14.331  12.454  11.611
 1476SOL    HW2 6268  14.233  12.569  11.611
 1477SOL     OW 6269   1.022   7.668  13.534
 1477SOL    HW1 6270   0.940   7.633  13.500
 1477SOL    HW2 6271   1.086   7.598  13.522
 1478SOL     OW 6272   8.420   6.086   4.105
 1478SOL    HW1 6273   8.382   6.026   4.041
 1478SOL    HW2 6274   8.498   6.121   4.062
 1479SOL     OW 6275  11.406   9.011   3.328
 1479SOL    HW1 6276  11.349   9.088   3.336
 1479SOL    HW2 6277  11.423   8.984   3.418
 1480SOL     OW 6278   5.038   3.507   4.301
 1480SOL    HW1 6279   5.109   3.570   4.311
 1480SOL    HW2 6280   5.031   3.464   4.386
 1481SOL     OW 6281  11.203   4.174   7.137
 1481SOL    HW1 6282  11.280   4.215   7.177
 1481SOL    HW2 6283  11.191   4.093   7.188
 1482SOL     OW 6284   5.299   2.393   8.127
 1482SOL    HW1 6285   5.256   2.458   8.072
 1482SOL    HW2 6286   5.390   2.421   8.132
 1483SOL     OW 6287   2.583  11.375   9.086
 1483SOL    HW1 6288   2.533  11.400   9.008
 1483SOL    HW2 6289   2.657  11.324   9.051
 1484SOL     OW 6290   6.978   4.880   8.676
 1484SOL    HW1 6291   6.944   4.885   8.587
 1484SOL    HW2 6292   6.960   4.790   8.704
 1485SOL     OW 6293   4.532   4.808  14.004
 1485SOL    HW1 6294   4.587   4.780  13.931
 1485SOL    HW2 6295   4.539   4.904  14.004
 1486SOL     OW 6296   0.829  10.874   9.738
 1486SOL    HW1 6297   0.831  10.924   9.657
 1486SOL    HW2 6298   0.782  10.794   9.716
 1487SOL     OW 6299   1.871   6.074   3.454
 1487SOL    HW1 6300   1.934   6.073   3.382
 1487SOL    HW2 6301   1.892   5.995   3.505
 1488SOL     OW 6302  11.040   5.882   6.009
 1488SOL    HW1 6303  11.036   5.932   6.091
 1488SOL    HW2 6304  11.129   5.896   5.976
 1489SOL     OW 6305  10.830  13.156  10.129
 1489SOL    HW1 6306  10.767  13.218  10.092
 1489SOL    HW2 6307  10.777  13.088  10.169
 1490SOL     OW 6308   1.064  12.106   8.528
 1490SOL    HW1 6309   1.007  12.140   8.459
 1490SOL    HW2 6310   1.137  12.065   8.482
 1491SOL     OW 6311  12.069  13.281   4.187
 1491SOL    HW1 6312  12.013  13.357   4.201
 1491SOL    HW2 6313  12.088  13.283   4.093
 1492SOL     OW 6314   1.510   8.392  10.898
 1492SOL    HW1 6315   1.555   8.445  10.963
 1492SOL    HW2 6316   1.553   8.415  10.815
 1493SOL     OW 6317   0.401  11.247   3.745
 1493SOL    HW1 6318   0.324  11.207   3.784
 1493SOL    HW2 6319   0.387  11.342   3.754
 1494SOL     OW 6320   6.331   7.209  11.237
 1494SOL    HW1 6321   6.374   7.137  11.190
 1494SOL    HW2 6322   6.240   7.207  11.206
 1495SOL     OW 6323   7.938   5.755   3.784
 1495SOL    HW1 6324   7.846   5.781   3.798
 1495SOL    HW2 6325   7.947   5.754   3.688
 1496SOL     OW 6326   6.705  11.077   4.059
 1496SOL    HW1 6327   6.757  11.035   3.991
 1496SOL    HW2 6328   6.627  11.110   4.013
 1497SOL     OW 6329   8.329   9.476  13.999
 1497SOL    HW1 6330   8.287   9.448  13.917
 1497SOL    HW2 6331   8.315   9.402  14.058
 1498SOL     OW 6332   6.535   7.872   7.977
 1498SOL    HW1 6333   6.516   7.950   7.925
 1498SOL    HW2 6334   6.453   7.822   7.978
 1499SOL     OW 6335  14.695  10.743  11.208
 1499SOL    HW1 6336  14.680  10.745  11.303
 1499SOL    HW2 6337  14.772  10.797  11.194
 1500SOL     OW 6338   4.931   3.767  13.363
 1500SOL    HW1 6339   4.880   3.820  13.425
 1500SOL    HW2 6340   5.018   3.761  13.403
 1501SOL     OW 6341   1.520   2.674  11.311
 1501SOL    HW1 6342   1.597   2.731  11.303
 1501SOL    HW2 6343   1.517   2.650  11.403
 1502SOL     OW 6344   7.042  10.718   0.188
 1502SOL    HW1 6345   7.041  10.814   0.179
 1502SOL    HW2 6346   7.109  10.701   0.254
 1503SOL     OW 6347   9.569   0.999   4.836
 1503SOL    HW1 6348   9.496   1.053   4.866
 1503SOL    HW2 6349   9.630   1.061   4.796
 1504SOL     OW 6350  11.359  13.875   0.950
 1504SOL    HW1 6351  11.318  13.941   1.008
 1504SOL    HW2 6352  11.285  13.828   0.912
 1505SOL     OW 6353   5.219   9.575   4.468
 1505SOL    HW1 6354   5.175   9.626   4.536
 1505SOL    HW2 6355   5.231   9.637   4.396
 1506SOL     OW 6356  11.487  13.142   0.433
 1506SOL    HW1 6357  11.503  13.162   0.341
 1506SOL    HW2 6358  11.574  13.136   0.472
 1507SOL     OW 6359   2.940  14.310  11.099
 1507SOL    HW1 6360   2.961  14.376  11.165
 1507SOL    HW2 6361   3.020  14.258  11.090
 1508SOL     OW 6362  12.782   2.120   7.799
 1508SOL    HW1 6363  12.871   2.119   7.766
 1508SOL    HW2 6364  12.763   2.028   7.819
 1509SOL     OW 6365  11.490   3.388   5.821
 1509SOL    HW1 6366  11.460   3.442   5.748
 1509SOL    HW2 6367  11.585   3.401   5.824
 1510SOL     OW 6368   2.083   4.748   7.215
 1510SOL    HW1 6369   2.136   4.827   7.224
 1510SOL    HW2 6370   2.018   4.770   7.149
 1511SOL     OW 6371   7.770  10.969  11.315
 1511SOL    HW1 6372   7.842  10.938  11.260
 1511SOL    HW2 6373   7.723  10.889  11.341
 1512SOL     OW 6374   3.053   5.343   6.514
 1512SOL    HW1 6375   3.052   5.436   6.536
 1512SOL    HW2 6376   3.086   5.340   6.424
 1513SOL     OW 6377   5.694   6.100  13.932
 1513SOL    HW1 6378   5.738   6.167  13.879
 1513SOL    HW2 6379   5.611   6.141  13.957
 1514SOL     OW 6380   4.682   9.279  10.659
 1514SOL    HW1 6381   4.634   9.281  10.577
 1514SOL    HW2 6382   4.758   9.335  10.645
 1515SOL     OW 6383  13.008   4.413  13.741
 1515SOL    HW1 6384  12.932   4.442  13.792
 1515SOL    HW2 6385  13.082   4.462  13.776
 1516SOL     OW 6386   6.637  14.390   2.666
 1516SOL    HW1 6387   6.598  14.474   2.690
 1516SOL    HW2 6388   6.564  14.339   2.630
 1517SOL     OW 6389   6.417   2.928   9.930
 1517SOL    HW1 6390   6.481   2.877   9.979
 1517SOL    HW2 6391   6.371   2.980   9.996
 1518SOL     OW 6392   8.887  11.128   5.143
 1518SOL    HW1 6393   8.805  11.176   5.132
 1518SOL    HW2 6394   8.861  11.036   5.146
 1519SOL     OW 6395  11.721  13.411   2.670
 1519SOL    HW1 6396  11.651  13.432   2.731
 1519SOL    HW2 6397  11.767  13.337   2.710
 1520SOL     OW 6398   9.696   3.144   2.071
 1520SOL    HW1 6399   9.667   3.064   2.028
 1520SOL    HW2 6400   9.631   3.210   2.046
 1521SOL     OW 6401   2.887  14.230  10.541
 1521SOL    HW1 6402   2.853  14.232  10.630
 1521SOL    HW2 6403   2.910  14.138  10.526
 1522SOL     OW 6404   4.886  12.838  13.714
 1522SOL    HW1 6405   4.799  12.854  13.678
 1522SOL    HW2 6406   4.945  12.845  13.640
 1523SOL     OW 6407   9.146   2.568   7.356
 1523SOL    HW1 6408   9.192   2.498   7.402
 1523SOL    HW2 6409   9.099   2.525   7.286
 1524SOL     OW 6410  10.949   0.674   9.747
 1524SOL    HW1 6411  10.948   0.581   9.725
 1524SOL    HW2 6412  10.990   0.716   9.672
 1525SOL     OW 6413  10.963   6.914  12.210
 1525SOL    HW1 6414  10.952   6.863  12.290
 1525SOL    HW2 6415  10.894   6.981  12.215
 1526SOL     OW 6416   8.246   4.704  11.696
 1526SOL    HW1 6417   8.304   4.729  11.767
 1526SOL    HW2 6418   8.219   4.787  11.656
 1527SOL     OW 6419   0.291   9.307   1.015
 1527SOL    HW1 6420   0.217   9.249   1.034
 1527SOL    HW2 6421   0.252   9.395   1.015
 1528SOL     OW 6422   2.078   7.866   6.538
 1528SOL    HW1 6423   2.104   7.860   6.446
 1528SOL    HW2 6424   2.020   7.942   6.542
 1529SOL     OW 6425  11.644  11.395  13.593
 1529SOL    HW1 6426  11.615  11.330  13.530
 1529SOL    HW2 6427  11.707  11.349  13.648
 1530SOL     OW 6428   4.625  14.778  12.033
 1530SOL    HW1 6429   4.624  14.837  11.958
 1530SOL    HW2 6430   4.541  14.792  12.076
 1531SOL     OW 6431   4.086   2.279   0.458
 1531SOL    HW1 6432   4.150   2.223   0.413
 1531SOL    HW2 6433   4.139   2.347   0.499
 1532SOL     OW 6434  13.906  14.669   6.345
 1532SOL    HW1 6435  13.873  14.740   6.289
 1532SOL    HW2 6436  13.905  14.706   6.433
 1533SOL     OW 6437   2.931  14.623   2.185
 1533SOL    HW1 6438   2.960  14.549   2.131
 1533SOL    HW2 6439   2.969  14.605   2.271
 1534SOL     OW 6440  11.728   9.214   3.373
 1534SOL    HW1 6441  11.805   9.241   3.423
 1534SOL    HW2 6442  11.694   9.138   3.421
 1535SOL     OW 6443   8.571  12.285   8.499
 1535SOL    HW1 6444   8.654  12.239   8.510
 1535SOL    HW2 6445   8.513  12.246   8.564
 1536SOL     OW 6446   1.819  11.319  14.153
 1536SOL    HW1 6447   1.866  11.403  14.159
 1536SOL    HW2 6448   1.885  11.258  14.121
 1537SOL     OW 6449   7.446   7.870   4.581
 1537SOL    HW1 6450   7.417   7.894   4.669
 1537SOL    HW2 6451   7.520   7.811   4.595
 1538SOL     OW 6452   9.902  13.313   3.567
 1538SOL    HW1 6453   9.856  13.396   3.560
 1538SOL    HW2 6454   9.839  13.248   3.535
 1539SOL     OW 6455   2.284   0.759   8.922
 1539SOL    HW1 6456   2.265   0.752   9.016
 1539SOL    HW2 6457   2.311   0.850   8.910
 1540SOL     OW 6458   5.527   7.147   3.572
 1540SOL    HW1 6459   5.506   7.150   3.479
 1540SOL    HW2 6460   5.604   7.090   3.578
 1541SOL     OW 6461   9.095   0.374   5.406
 1541SOL    HW1 6462   9.089   0.445   5.470
 1541SOL    HW2 6463   9.133   0.414   5.328
 1542SOL     OW 6464   4.192   0.842  13.870
 1542SOL    HW1 6465   4.133   0.899  13.920
 1542SOL    HW2 6466   4.234   0.901  13.807
 1543SOL     OW 6467   4.075   3.527   0.062
 1543SOL    HW1 6468   4.163   3.566   0.062
 1543SOL    HW2 6469   4.022   3.589   0.112
 1544SOL     OW 6470   8.280   5.702  12.211
 1544SOL    HW1 6471   8.223   5.743  12.276
 1544SOL    HW2 6472   8.366   5.743  12.226
 1545SOL     OW 6473  14.320  14.667   8.731
 1545SOL    HW1 6474  14.342  14.596   8.671
 1545SOL    HW2 6475  14.364  14.643   8.813
 1546SOL     OW 6476   4.552   0.837  12.726
 1546SOL    HW1 6477   4.568   0.763  12.669
 1546SOL    HW2 6478   4.457   0.836  12.741
 1547SOL     OW 6479   3.586  10.715   8.763
 1547SOL    HW1 6480   3.641  10.769   8.705
 1547SOL    HW2 6481   3.576  10.632   8.716
 1548SOL     OW 6482   3.771   7.675  11.606
 1548SOL    HW1 6483   3.754   7.604  11.544
 1548SOL    HW2 6484   3.684   7.708  11.629
 1549SOL     OW 6485   1.666  11.674  13.097
 1549SOL    HW1 6486   1.723  11.701  13.170
 1549SOL    HW2 6487   1.647  11.755  13.051
 1550SOL     OW 6488   8.776   1.494  11.030
 1550SOL    HW1 6489   8.834   1.474  10.956
 1550SOL    HW2 6490   8.695   1.446  11.011
 1551SOL     OW 6491  12.535   0.493  14.221
 1551SOL    HW1 6492  12.492   0.442  14.152
 1551SOL    HW2 6493  12.606   0.539  14.176
 1552SOL     OW 6494   6.286  11.135   2.785
 1552SOL    HW1 6495   6.379  11.126   2.768
 1552SOL    HW2 6496   6.259  11.209   2.730
 1553SOL     OW 6497   2.620   4.223  10.335
 1553SOL    HW1 6498   2.573   4.212  10.417
 1553SOL    HW2 6499   2.582   4.303  10.297
 1554SOL     OW 6500   7.500   5.517   4.679
 1554SOL    HW1 6501   7.563   5.476   4.620
 1554SOL    HW2 6502   7.525   5.486   4.766
 1555SOL     OW 6503   3.861  10.085  11.970
 1555SOL    HW1 6504   3.888  10.148  11.903
 1555SOL    HW2 6505   3.841  10.139  12.046
 1556SOL     OW 6506   7.617   4.203  13.139
 1556SOL    HW1 6507   7.556   4.255  13.087
 1556SOL    HW2 6508   7.685   4.175  13.078
 1557SOL     OW 6509   8.290  13.135  11.351
 1557SOL    HW1 6510   8.297  13.043  11.379
 1557SOL    HW2 6511   8.221  13.135  11.285
 1558SOL     OW 6512  13.955   4.354  11.584
 1558SOL    HW1 6513  14.015   4.361  11.659
 1558SOL    HW2 6514  14.000   4.400  11.514
 1559SOL     OW 6515  12.850   5.269  11.541
 1559SOL    HW1 6516  12.893   5.339  11.591
 1559SOL    HW2 6517  12.843   5.303  11.452
 1560SOL     OW 6518   2.389   8.206   7.260
 1560SOL    HW1 6519   2.356   8.219   7.349
 1560SOL    HW2 6520   2.352   8.122   7.233
 1561SOL     OW 6521  14.442   5.654   0.562
 1561SOL    HW1 6522  14.405   5.626   0.479
 1561SOL    HW2 6523  14.405   5.742   0.577
 1562SOL     OW 6524  13.864   0.793   8.385
 1562SOL    HW1 6525  13.904   0.869   8.426
 1562SOL    HW2 6526  13.814   0.751   8.456
 1563SOL     OW 6527  12.844   7.330  10.995
 1563SOL    HW1 6528  12.785   7.263  11.029
 1563SOL    HW2 6529  12.789   7.386  10.941
 1564SOL     OW 6530   3.066  12.342   8.514
 1564SOL    HW1 6531   3.095  12.321   8.425
 1564SOL    HW2 6532   3.141  12.386   8.554
 1565SOL     OW 6533  14.870   7.868   3.838
 1565SOL    HW1 6534   0.034   7.822   3.764
 1565SOL    HW2 6535  14.778   7.877   3.814
 1566SOL     OW 6536   3.717   0.041   7.551
 1566SOL    HW1 6537   3.752  14.828   7.557
 1566SOL    HW2 6538   3.716   0.071   7.642
 1567SOL     OW 6539  12.996  14.557   6.361
 1567SOL    HW1 6540  12.988  14.475   6.311
 1567SOL    HW2 6541  13.085  14.555   6.396
 1568SOL     OW 6542   5.973  12.258  10.163
 1568SOL    HW1 6543   5.984  12.351  10.183
 1568SOL    HW2 6544   5.935  12.257  10.075
 1569SOL     OW 6545   1.385  13.931   4.478
 1569SOL    HW1 6546   1.370  13.873   4.553
 1569SOL    HW2 6547   1.427  13.875   4.413
 1570SOL     OW 6548   5.842   8.999   7.211
 1570SOL    HW1 6549   5.783   8.924   7.216
 1570SOL    HW2 6550   5.841   9.025   7.118
 1571SOL     OW 6551  14.684   0.930   6.940
 1571SOL    HW1 6552  14.759   0.873   6.957
 1571SOL    HW2 6553  14.722   1.011   6.905
 1572SOL     OW 6554   0.407   0.913   4.375
 1572SOL    HW1 6555   0.500   0.900   4.352
 1572SOL    HW2 6556   0.408   0.934   4.468
 1573SOL     OW 6557   4.482   4.561  11.979
 1573SOL    HW1 6558   4.547   4.519  11.924
 1573SOL    HW2 6559   4.399   4.544  11.936
 1574SOL     OW 6560   0.713   7.197   4.994
 1574SOL    HW1 6561   0.655   7.237   4.929
 1574SOL    HW2 6562   0.797   7.241   4.983
 1575SOL     OW 6563  11.830   0.658  10.928
 1575SOL    HW1 6564  11.910   0.672  10.878
 1575SOL    HW2 6565  11.814   0.742  10.971
 1576SOL     OW 6566   9.188  10.154   7.004
 1576SOL    HW1 6567   9.111  10.207   7.023
 1576SOL    HW2 6568   9.153  10.067   6.985
 1577SOL     OW 6569  12.758   3.034   9.724
 1577SOL    HW1 6570  12.747   3.084   9.805
 1577SOL    HW2 6571  12.759   2.943   9.752
 1578SOL     OW 6572  11.126  10.171  13.698
 1578SOL    HW1 6573  11.049  10.192  13.646
 1578SOL    HW2 6574  11.125  10.075  13.705
 1579SOL     OW 6575   1.780   6.380   5.881
 1579SOL    HW1 6576   1.851   6.435   5.914
 1579SOL    HW2 6577   1.700   6.431   5.898
 1580SOL     OW 6578  12.020  11.308   0.652
 1580SOL    HW1 6579  12.114  11.304   0.670
 1580SOL    HW2 6580  12.000  11.402   0.646
 1581SOL     OW 6581   6.740   1.112   1.980
 1581SOL    HW1 6582   6.710   1.202   1.965
 1581SOL    HW2 6583   6.787   1.089   1.900
 1582SOL     OW 6584  11.492   1.351  14.823
 1582SOL    HW1 6585  11.460   1.289  14.758
 1582SOL    HW2 6586  11.421   1.415  14.831
 1583SOL     OW 6587  11.286  10.196  12.147
 1583SOL    HW1 6588  11.362  10.254  12.153
 1583SOL    HW2 6589  11.263  10.179  12.239
 1584SOL     OW 6590   8.809  14.800  12.422
 1584SOL    HW1 6591   8.778  14.849  12.498
 1584SOL    HW2 6592   8.745  14.729  12.411
 1585SOL     OW 6593   5.500   1.962   4.938
 1585SOL    HW1 6594   5.517   1.883   4.989
 1585SOL    HW2 6595   5.510   1.935   4.847
 1586SOL     OW 6596   8.615   1.842   2.243
 1586SOL    HW1 6597   8.646   1.918   2.292
 1586SOL    HW2 6598   8.609   1.873   2.152
 1587SOL     OW 6599  10.376   6.388   2.479
 1587SOL    HW1 6600  10.436   6.339   2.423
 1587SOL    HW2 6601  10.415   6.474   2.488
 1588SOL     OW 6602  14.419   9.331   4.898
 1588SOL    HW1 6603  14.450   9.330   4.807
 1588SOL    HW2 6604  14.444   9.245   4.933
 1589SOL     OW 6605   5.200   8.864   8.290
 1589SOL    HW1 6606   5.294   8.869   8.308
 1589SOL    HW2 6607   5.163   8.939   8.336
 1590SOL     OW 6608   3.631   3.214   2.547
 1590SOL    HW1 6609   3.583   3.213   2.629
 1590SOL    HW2 6610   3.701   3.278   2.561
 1591SOL     OW 6611   6.495  14.738  10.486
 1591SOL    HW1 6612   6.555  14.806  10.456
 1591SOL    HW2 6613   6.552  14.668  10.518
 1592SOL     OW 6614  11.695  12.358  11.854
 1592SOL    HW1 6615  11.626  12.381  11.916
 1592SOL    HW2 6616  11.650  12.313  11.783
 1593SOL     OW 6617   6.839   7.242   5.201
 1593SOL    HW1 6618   6.761   7.295   5.218
 1593SOL    HW2 6619   6.849   7.189   5.280
 1594SOL     OW 6620   8.777  12.442  14.301
 1594SOL    HW1 6621   8.770  12.391  14.221
 1594SOL    HW2 6622   8.841  12.395  14.354
 1595SOL     OW 6623   4.898   1.030   2.147
 1595SOL    HW1 6624   4.865   1.065   2.230
 1595SOL    HW2 6625   4.973   1.086   2.126
 1596SOL     OW 6626   0.909  11.287   6.438
 1596SOL    HW1 6627   0.934  11.301   6.346
 1596SOL    HW2 6628   0.975  11.335   6.488
 1597SOL     OW 6629   8.337   4.883   5.784
 1597SOL    HW1 6630   8.288   4.963   5.768
 1597SOL    HW2 6631   8.309   4.856   5.872
 1598SOL     OW 6632  14.509  12.721   9.891
 1598SOL    HW1 6633  14.438  12.698   9.830
 1598SOL    HW2 6634  14.566  12.645   9.891
 1599SOL     OW 6635  14.118   8.565   8.202
 1599SOL    HW1 6636  14.183   8.578   8.272
 1599SOL    HW2 6637  14.046   8.519   8.245
 1600SOL     OW 6638   8.544   9.538   9.102
 1600SOL    HW1 6639   8.498   9.582   9.173
 1600SOL    HW2 6640   8.612   9.487   9.145
 1601SOL     OW 6641   9.835   1.972   4.578
 1601SOL    HW1 6642   9.888   1.987   4.500
 1601SOL    HW2 6643   9.807   2.060   4.605
 1602SOL     OW 6644   0.757   9.334  10.155
 1602SOL    HW1 6645   0.763   9.279  10.232
 1602SOL    HW2 6646   0.766   9.423  10.188
 1603SOL     OW 6647   0.260   8.489   7.296
 1603SOL    HW1 6648   0.247   8.408   7.246
 1603SOL    HW2 6649   0.224   8.557   7.240
 1604SOL     OW 6650   3.035  14.810   7.634
 1604SOL    HW1 6651   3.037  14.805   7.538
 1604SOL    HW2 6652   3.037  14.719   7.663
 1605SOL     OW 6653  14.617  10.036  12.230
 1605SOL    HW1 6654  14.643  10.127  12.218
 1605SOL    HW2 6655  14.595  10.029  12.323
 1606SOL     OW 6656   0.307  12.184   3.496
 1606SOL    HW1 6657   0.273  12.203   3.408
 1606SOL    HW2 6658   0.300  12.089   3.504
 1607SOL     OW 6659   6.496   6.700   0.599
 1607SOL    HW1 6660   6.508   6.725   0.507
 1607SOL    HW2 6661   6.580   6.720   0.640
 1608SOL     OW 6662   3.566   4.373  12.625
 1608SOL    HW1 6663   3.598   4.434  12.559
 1608SOL    HW2 6664   3.611   4.398  12.705
 1609SOL     OW 6665   8.280   9.847  10.122
 1609SOL    HW1 6666   8.245   9.841  10.034
 1609SOL    HW2 6667   8.295   9.756  10.148
 1610SOL     OW 6668  10.653  11.148  13.520
 1610SOL    HW1 6669  10.703  11.126  13.599
 1610SOL    HW2 6670  10.687  11.088  13.453
 1611SOL     OW 6671   1.327   3.759  13.801
 1611SOL    HW1 6672   1.252   3.779  13.745
 1611SOL    HW2 6673   1.297   3.688  13.857
 1612SOL     OW 6674   5.292   3.394  12.061
 1612SOL    HW1 6675   5.309   3.393  12.155
 1612SOL    HW2 6676   5.374   3.367  12.021
 1613SOL     OW 6677   9.947  12.263  12.441
 1613SOL    HW1 6678  10.042  12.268  12.454
 1613SOL    HW2 6679   9.917  12.198  12.505
 1614SOL     OW 6680  13.027   7.408  11.187
 1614SOL    HW1 6681  12.959   7.389  11.122
 1614SOL    HW2 6682  13.087   7.468  11.143
 1615SOL     OW 6683   8.348   9.927  14.734
 1615SOL    HW1 6684   8.404   9.970  14.670
 1615SOL    HW2 6685   8.277   9.888  14.681
 1616SOL     OW 6686   8.146   3.826   4.004
 1616SOL    HW1 6687   8.192   3.816   3.921
 1616SOL    HW2 6688   8.187   3.762   4.062
 1617SOL     OW 6689  13.518   0.463   8.134
 1617SOL    HW1 6690  13.538   0.519   8.209
 1617SOL    HW2 6691  13.573   0.386   8.146
 1618SOL     OW 6692  11.476  10.592  14.283
 1618SOL    HW1 6693  11.421  10.626  14.212
 1618SOL    HW2 6694  11.447  10.501  14.293
 1619SOL     OW 6695   4.363   2.977   6.230
 1619SOL    HW1 6696   4.441   2.922   6.222
 1619SOL    HW2 6697   4.396   3.067   6.227
 1620SOL     OW 6698  12.337   6.272  11.871
 1620SOL    HW1 6699  12.277   6.346  11.873
 1620SOL    HW2 6700  12.284   6.198  11.843
 1621SOL     OW 6701   3.478   1.698  10.043
 1621SOL    HW1 6702   3.532   1.776  10.050
 1621SOL    HW2 6703   3.462   1.688   9.949
 1622SOL     OW 6704   4.170   5.093   8.803
 1622SOL    HW1 6705   4.257   5.061   8.826
 1622SOL    HW2 6706   4.118   5.079   8.883
 1623SOL     OW 6707   2.749   4.105   8.852
 1623SOL    HW1 6708   2.693   4.060   8.789
 1623SOL    HW2 6709   2.776   4.185   8.807
 1624SOL     OW 6710  12.799   6.257   9.637
 1624SOL    HW1 6711  12.785   6.343   9.676
 1624SOL    HW2 6712  12.891   6.237   9.656
 1625SOL     OW 6713  12.394   1.715   9.465
 1625SOL    HW1 6714  12.349   1.709   9.549
 1625SOL    HW2 6715  12.341   1.663   9.405
 1626SOL     OW 6716   3.378  11.434   4.261
 1626SOL    HW1 6717   3.343  11.375   4.328
 1626SOL    HW2 6718   3.334  11.408   4.180
 1627SOL     OW 6719   3.108   5.918  11.907
 1627SOL    HW1 6720   3.173   5.926  11.977
 1627SOL    HW2 6721   3.140   5.848  11.852
 1628SOL     OW 6722   6.256   9.657  10.700
 1628SOL    HW1 6723   6.311   9.586  10.733
 1628SOL    HW2 6724   6.182   9.613  10.660
 1629SOL     OW 6725   5.324   0.188  12.019
 1629SOL    HW1 6726   5.247   0.183  12.076
 1629SOL    HW2 6727   5.290   0.167  11.932
 1630SOL     OW 6728   5.712   7.490   7.283
 1630SOL    HW1 6729   5.800   7.476   7.247
 1630SOL    HW2 6730   5.681   7.570   7.240
 1631SOL     OW 6731   7.824   2.431   7.651
 1631SOL    HW1 6732   7.758   2.397   7.590
 1631SOL    HW2 6733   7.890   2.362   7.656
 1632SOL     OW 6734   0.287   9.044   5.287
 1632SOL    HW1 6735   0.365   9.059   5.341
 1632SOL    HW2 6736   0.283   8.949   5.276
 1633SOL     OW 6737  12.467   6.384   0.125
 1633SOL    HW1 6738  12.557   6.362   0.104
 1633SOL    HW2 6739  12.414   6.332   0.064
 1634SOL     OW 6740   2.710  10.004   0.723
 1634SOL    HW1 6741   2.713   9.999   0.819
 1634SOL    HW2 6742   2.678   9.918   0.696
 1635SOL     OW 6743   1.752   8.688   7.071
 1635SOL    HW1 6744   1.706   8.771   7.085
 1635SOL    HW2 6745   1.791   8.696   6.984
 1636SOL     OW 6746  11.252   2.436   5.018
 1636SOL    HW1 6747  11.245   2.499   5.090
 1636SOL    HW2 6748  11.305   2.365   5.053
 1637SOL     OW 6749   7.612   4.416   8.741
 1637SOL    HW1 6750   7.700   4.442   8.767
 1637SOL    HW2 6751   7.598   4.331   8.783
 1638SOL     OW 6752   2.068   6.635   8.791
 1638SOL    HW1 6753   2.083   6.729   8.783
 1638SOL    HW2 6754   2.156   6.598   8.805
 1639SOL     OW 6755   0.951  11.674   5.945
 1639SOL    HW1 6756   1.011  11.600   5.951
 1639SOL    HW2 6757   0.884  11.655   6.011
 1640SOL     OW 6758   3.934  10.729   4.199
 1640SOL    HW1 6759   3.886  10.808   4.221
 1640SOL    HW2 6760   3.978  10.750   4.116
 1641SOL     OW 6761   7.686   0.091  11.653
 1641SOL    HW1 6762   7.773   0.067  11.619
 1641SOL    HW2 6763   7.634   0.012  11.642
 1642SOL     OW 6764  13.603  13.448  11.963
 1642SOL    HW1 6765  13.631  13.508  12.033
 1642SOL    HW2 6766  13.534  13.496  11.917
 1643SOL     OW 6767   1.471   5.176   3.482
 1643SOL    HW1 6768   1.472   5.093   3.531
 1643SOL    HW2 6769   1.562   5.189   3.455
 1644SOL     OW 6770   8.103   0.324  10.636
 1644SOL    HW1 6771   8.178   0.372  10.601
 1644SOL    HW2 6772   8.135   0.234  10.647
 1645SOL     OW 6773   8.605   4.203  13.326
 1645SOL    HW1 6774   8.551   4.125  13.339
 1645SOL    HW2 6775   8.559   4.272  13.373
 1646SOL     OW 6776  12.542  11.126   0.439
 1646SOL    HW1 6777  12.469  11.181   0.412
 1646SOL    HW2 6778  12.502  11.043   0.464
 1647SOL     OW 6779  13.439   2.440   4.735
 1647SOL    HW1 6780  13.366   2.445   4.797
 1647SOL    HW2 6781  13.435   2.523   4.686
 1648SOL     OW 6782  13.669  10.160  10.034
 1648SOL    HW1 6783  13.722  10.083  10.014
 1648SOL    HW2 6784  13.731  10.222  10.072
 1649SOL     OW 6785   9.760  10.705   1.301
 1649SOL    HW1 6786   9.675  10.662   1.291
 1649SOL    HW2 6787   9.748  10.764   1.375
 1650SOL     OW 6788  12.705   5.644   6.630
 1650SOL    HW1 6789  12.799   5.652   6.614
 1650SOL    HW2 6790  12.684   5.554   6.603
 1651SOL     OW 6791   5.183   7.104  11.336
 1651SOL    HW1 6792   5.263   7.089  11.387
 1651SOL    HW2 6793   5.187   7.041  11.265
 1652SOL     OW 6794   4.341   1.212   1.275
 1652SOL    HW1 6795   4.372   1.302   1.275
 1652SOL    HW2 6796   4.357   1.181   1.186
 1653SOL     OW 6797   7.028  11.427   1.219
 1653SOL    HW1 6798   7.096  11.389   1.275
 1653SOL    HW2 6799   7.048  11.521   1.217
 1654SOL     OW 6800   1.915   6.224  11.220
 1654SOL    HW1 6801   1.992   6.277  11.243
 1654SOL    HW2 6802   1.880   6.196  11.305
 1655SOL     OW 6803   9.708  13.258   0.948
 1655SOL    HW1 6804   9.740  13.219   0.867
 1655SOL    HW2 6805   9.613  13.251   0.943
 1656SOL     OW 6806  12.636  11.798   4.667
 1656SOL    HW1 6807  12.633  11.861   4.739
 1656SOL    HW2 6808  12.692  11.839   4.601
 1657SOL     OW 6809   7.978   8.153  11.468
 1657SOL    HW1 6810   7.894   8.114  11.490
 1657SOL    HW2 6811   7.967   8.183  11.377
 1658SOL     OW 6812  10.116   9.741   9.142
 1658SOL    HW1 6813  10.050   9.802   9.175
 1658SOL    HW2 6814  10.193   9.758   9.195
 1659SOL     OW 6815   8.258   2.210   0.717
 1659SOL    HW1 6816   8.313   2.288   0.709
 1659SOL    HW2 6817   8.178   2.232   0.669
 1660SOL     OW 6818   0.183   5.742   7.744
 1660SOL    HW1 6819   0.091   5.737   7.717
 1660SOL    HW2 6820   0.181   5.778   7.832
 1661SOL     OW 6821   8.084  12.320   7.111
 1661SOL    HW1 6822   8.100  12.394   7.171
 1661SOL    HW2 6823   7.989  12.319   7.099
 1662SOL     OW 6824   2.731   5.983   1.473
 1662SOL    HW1 6825   2.679   5.909   1.503
 1662SOL    HW2 6826   2.667   6.050   1.450
 1663SOL     OW 6827  12.942   5.602   2.070
 1663SOL    HW1 6828  12.974   5.633   2.155
 1663SOL    HW2 6829  12.988   5.657   2.006
 1664SOL     OW 6830   7.998   6.109   1.224
 1664SOL    HW1 6831   8.021   6.045   1.158
 1664SOL    HW2 6832   7.912   6.081   1.256
 1665SOL     OW 6833   8.593   2.949   0.639
 1665SOL    HW1 6834   8.537   2.970   0.714
 1665SOL    HW2 6835   8.614   2.856   0.651
 1666SOL     OW 6836  13.947   7.062   4.662
 1666SOL    HW1 6837  13.960   7.129   4.729
 1666SOL    HW2 6838  13.883   7.101   4.602
 1667SOL     OW 6839   6.284   4.073  10.928
 1667SOL    HW1 6840   6.367   4.107  10.963
 1667SOL    HW2 6841   6.277   4.110  10.841
 1668SOL     OW 6842  11.598   1.658   1.284
 1668SOL    HW1 6843  11.614   1.678   1.192
 1668SOL    HW2 6844  11.536   1.585   1.283
 1669SOL     OW 6845  13.976   6.189  13.783
 1669SOL    HW1 6846  13.993   6.155  13.695
 1669SOL    HW2 6847  13.992   6.283  13.776
 1670SOL     OW 6848   1.941   2.703   3.718
 1670SOL    HW1 6849   2.007   2.771   3.705
 1670SOL    HW2 6850   1.858   2.746   3.699
 1671SOL     OW 6851  13.513  11.383   7.186
 1671SOL    HW1 6852  13.526  11.476   7.200
 1671SOL    HW2 6853  13.586  11.356   7.130
 1672SOL     OW 6854  11.248   9.984   3.868
 1672SOL    HW1 6855  11.172  10.042   3.875
 1672SOL    HW2 6856  11.237   9.921   3.940
 1673SOL     OW 6857   0.669   2.592   4.153
 1673SOL    HW1 6858   0.599   2.657   4.163
 1673SOL    HW2 6859   0.638   2.516   4.203
 1674SOL     OW 6860   4.809   9.765  10.535
 1674SOL    HW1 6861   4.888   9.814  10.513
 1674SOL    HW2 6862   4.749   9.831  10.570
 1675SOL     OW 6863   0.253  10.072   6.568
 1675SOL    HW1 6864   0.325  10.020   6.604
 1675SOL    HW2 6865   0.214  10.015   6.501
 1676SOL     OW 6866   3.331   1.318   9.553
 1676SOL    HW1 6867   3.319   1.223   9.552
 1676SOL    HW2 6868   3.425   1.331   9.541
 1677SOL     OW 6869  11.983  13.893   1.597
 1677SOL    HW1 6870  11.966  13.918   1.688
 1677SOL    HW2 6871  12.014  13.974   1.556
 1678SOL     OW 6872  13.281   9.580   8.064
 1678SOL    HW1 6873  13.335   9.649   8.102
 1678SOL    HW2 6874  13.337   9.537   8.000
 1679SOL     OW 6875   4.847   0.360  10.130
 1679SOL    HW1 6876   4.821   0.434  10.075
 1679SOL    HW2 6877   4.765   0.314  10.148
 1680SOL     OW 6878   2.702   4.590   2.548
 1680SOL    HW1 6879   2.777   4.591   2.488
 1680SOL    HW2 6880   2.652   4.668   2.525
 1681SOL     OW 6881  10.917   0.306   3.943
 1681SOL    HW1 6882  10.998   0.343   3.980
 1681SOL    HW2 6883  10.944   0.221   3.908
 1682SOL     OW 6884  11.092   6.860  14.577
 1682SOL    HW1 6885  11.090   6.821  14.664
 1682SOL    HW2 6886  11.125   6.791  14.520
 1683SOL     OW 6887   4.253  11.297   1.999
 1683SOL    HW1 6888   4.224  11.209   1.975
 1683SOL    HW2 6889   4.337  11.283   2.044
 1684SOL     OW 6890   9.288   2.732  10.688
 1684SOL    HW1 6891   9.295   2.642  10.654
 1684SOL    HW2 6892   9.267   2.785  10.612
 1685SOL     OW 6893   3.672   0.506   0.289
 1685SOL    HW1 6894   3.590   0.480   0.248
 1685SOL    HW2 6895   3.729   0.429   0.283
 1686SOL     OW 6896  13.937  13.929   0.841
 1686SOL    HW1 6897  14.000  14.000   0.848
 1686SOL    HW2 6898  13.862  13.957   0.893
 1687SOL     OW 6899  12.895   7.561   0.495
 1687SOL    HW1 6900  12.906   7.478   0.449
 1687SOL    HW2 6901  12.838   7.540   0.569
 1688SOL     OW 6902  11.825   9.937   9.046
 1688SOL    HW1 6903  11.803   9.845   9.035
 1688SOL    HW2 6904  11.864   9.963   8.962
 1689SOL     OW 6905  12.595   1.526  14.354
 1689SOL    HW1 6906  12.606   1.537  14.260
 1689SOL    HW2 6907  12.674   1.480  14.382
 1690SOL     OW 6908   7.970   3.970  11.640
 1690SOL    HW1 6909   7.920   4.047  11.668
 1690SOL    HW2 6910   7.991   3.987  11.548
 1691SOL     OW 6911   8.642   7.759   9.789
 1691SOL    HW1 6912   8.635   7.692   9.721
 1691SOL    HW2 6913   8.715   7.731   9.844
 1692SOL     OW 6914  13.428  13.127   0.532
 1692SOL    HW1 6915  13.418  13.151   0.440
 1692SOL    HW2 6916  13.466  13.204   0.573
 1693SOL     OW 6917   9.062   8.412   8.980
 1693SOL    HW1 6918   8.998   8.347   9.007
 1693SOL    HW2 6919   9.041   8.431   8.889
 1694SOL     OW 6920  13.299  13.284   8.393
 1694SOL    HW1 6921  13.239  13.233   8.448
 1694SOL    HW2 6922  13.329  13.223   8.326
 1695SOL     OW 6923  12.227   5.661  13.853
 1695SOL    HW1 6924  12.283   5.618  13.917
 1695SOL    HW2 6925  12.210   5.747  13.889
 1696SOL     OW 6926   2.378   3.168   2.132
 1696SOL    HW1 6927   2.288   3.155   2.162
 1696SOL    HW2 6928   2.376   3.254   2.090
 1697SOL     OW 6929  14.873   8.519   9.594
 1697SOL    HW1 6930   0.044   8.440   9.569
 1697SOL    HW2 6931  14.825   8.544   9.515
 1698SOL     OW 6932   5.431  12.537   5.436
 1698SOL    HW1 6933   5.461  12.447   5.421
 1698SOL    HW2 6934   5.348  12.527   5.482
 1699SOL     OW 6935  13.086  11.448  11.555
 1699SOL    HW1 6936  12.997  11.452  11.591
 1699SOL    HW2 6937  13.141  11.490  11.621
 1700SOL     OW 6938  11.834  13.647   7.313
 1700SOL    HW1 6939  11.791  13.687   7.388
 1700SOL    HW2 6940  11.831  13.553   7.330
 1701SOL     OW 6941  13.313   5.775   0.789
 1701SOL    HW1 6942  13.269   5.779   0.705
 1701SOL    HW2 6943  13.279   5.696   0.831
 1702SOL     OW 6944   3.850   3.103  13.006
 1702SOL    HW1 6945   3.832   3.197  13.005
 1702SOL    HW2 6946   3.908   3.089  12.931
 1703SOL     OW 6947   4.903   1.425   6.379
 1703SOL    HW1 6948   4.869   1.377   6.454
 1703SOL    HW2 6949   4.848   1.503   6.373
 1704SOL     OW 6950   6.881  12.973   8.424
 1704SOL    HW1 6951   6.822  12.936   8.489
 1704SOL    HW2 6952   6.889  12.905   8.357
 1705SOL     OW 6953  14.378  10.904  13.432
 1705SOL    HW1 6954  14.365  10.919  13.526
 1705SOL    HW2 6955  14.464  10.862  13.425
 1706SOL     OW 6956  11.770  12.347   5.966
 1706SOL    HW1 6957  11.848  12.296   5.987
 1706SOL    HW2 6958  11.698  12.284   5.973
 1707SOL     OW 6959   1.158   6.261  11.860
 1707SOL    HW1 6960   1.230   6.299  11.911
 1707SOL    HW2 6961   1.151   6.317  11.784
 1708SOL     OW 6962   5.458   1.296   6.350
 1708SOL    HW1 6963   5.432   1.278   6.440
 1708SOL    HW2 6964   5.491   1.212   6.317
 1709SOL     OW 6965  12.180  12.441   5.042
 1709SOL    HW1 6966  12.238  12.502   5.088
 1709SOL    HW2 6967  12.168  12.479   4.955
 1710SOL     OW 6968  11.266   1.215   5.378
 1710SOL    HW1 6969  11.318   1.209   5.298
 1710SOL    HW2 6970  11.312   1.278   5.433
 1711SOL     OW 6971   3.545   3.502   6.339
 1711SOL    HW1 6972   3.603   3.432   6.371
 1711SOL    HW2 6973   3.582   3.528   6.255
 1712SOL     OW 6974  12.838   8.898   4.102
 1712SOL    HW1 6975  12.788   8.956   4.045
 1712SOL    HW2 6976  12.909   8.866   4.047
 1713SOL     OW 6977   7.618  11.567   2.385
 1713SOL    HW1 6978   7.544  11.516   2.417
 1713SOL    HW2 6979   7.585  11.613   2.308
 1714SOL     OW 6980   7.625  10.384  12.356
 1714SOL    HW1 6981   7.629  10.291  12.376
 1714SOL    HW2 6982   7.664  10.392  12.269
 1715SOL     OW 6983   5.283   1.855   2.824
 1715SOL    HW1 6984   5.249   1.878   2.738
 1715SOL    HW2 6985   5.285   1.760   2.825
 1716SOL     OW 6986   0.192  13.390   6.959
 1716SOL    HW1 6987   0.115  13.413   6.907
 1716SOL    HW2 6988   0.163  13.318   7.015
 1717SOL     OW 6989  13.902   6.991   2.433
 1717SOL    HW1 6990  13.848   7.011   2.509
 1717SOL    HW2 6991  13.897   7.070   2.379
 1718SOL     OW 6992   0.341   0.744   9.231
 1718SOL    HW1 6993   0.382   0.674   9.179
 1718SOL    HW2 6994   0.302   0.698   9.305
 1719SOL     OW 6995   5.688  14.488   3.883
 1719SOL    HW1 6996   5.728  14.481   3.796
 1719SOL    HW2 6997   5.643  14.405   3.896
 1720SOL     OW 6998  14.153   2.030   9.163
 1720SOL    HW1 6999  14.118   1.984   9.239
 1720SOL    HW2 7000  14.079   2.079   9.127
 1721SOL     OW 7001  11.688   1.452   3.745
 1721SOL    HW1 7002  11.684   1.401   3.664
 1721SOL    HW2 7003  11.761   1.413   3.794
 1722SOL     OW 7004  10.559   7.020   7.861
 1722SOL    HW1 7005  10.645   6.996   7.896
 1722SOL    HW2 7006  10.561   7.116   7.856
 1723SOL     OW 7007   0.426   7.319   1.821
 1723SOL    HW1 7008   0.381   7.266   1.754
 1723SOL    HW2 7009   0.362   7.328   1.891
 1724SOL     OW 7010   7.189   6.255   1.956
 1724SOL    HW1 7011   7.151   6.341   1.937
 1724SOL    HW2 7012   7.127   6.193   1.919
 1725SOL     OW 7013  13.393  11.093  13.330
 1725SOL    HW1 7014  13.483  11.121  13.312
 1725SOL    HW2 7015  13.391  11.000  13.306
 1726SOL     OW 7016   5.207   9.840   7.413
 1726SOL    HW1 7017   5.224   9.927   7.448
 1726SOL    HW2 7018   5.158   9.855   7.332
 1727SOL     OW 7019  12.939   0.904   5.570
 1727SOL    HW1 7020  12.924   0.836   5.505
 1727SOL    HW2 7021  13.033   0.901   5.587
 1728SOL     OW 7022   2.547   0.982  10.186
 1728SOL    HW1 7023   2.542   0.991  10.281
 1728SOL    HW2 7024   2.636   0.948  10.170
 1729SOL     OW 7025  10.549   3.116  11.427
 1729SOL    HW1 7026  10.538   3.084  11.516
 1729SOL    HW2 7027  10.460   3.123  11.392
 1730SOL     OW 7028   2.215   5.556   7.132
 1730SOL    HW1 7029   2.146   5.581   7.071
 1730SOL    HW2 7030   2.262   5.486   7.088
 1731SOL     OW 7031   8.452   8.997   7.889
 1731SOL    HW1 7032   8.443   9.023   7.980
 1731SOL    HW2 7033   8.546   8.980   7.879
 1732SOL     OW 7034   8.127   4.704   1.449
 1732SOL    HW1 7035   8.135   4.621   1.496
 1732SOL    HW2 7036   8.033   4.720   1.444
 1733SOL     OW 7037  12.179  11.880   4.872
 1733SOL    HW1 7038  12.213  11.933   4.799
 1733SOL    HW2 7039  12.249  11.817   4.890
 1734SOL     OW 7040   0.602   2.763  13.064
 1734SOL    HW1 7041   0.530   2.731  13.119
 1734SOL    HW2 7042   0.679   2.715  13.094
 1735SOL     OW 7043  12.245   0.579   1.286
 1735SOL    HW1 7044  12.322   0.631   1.310
 1735SOL    HW2 7045  12.256   0.496   1.332
 1736SOL     OW 7046   3.133   8.942   1.821
 1736SOL    HW1 7047   3.182   8.861   1.836
 1736SOL    HW2 7048   3.198   9.011   1.830
 1737SOL     OW 7049   9.809  14.667  10.012
 1737SOL    HW1 7050   9.714  14.662  10.012
 1737SOL    HW2 7051   9.833  14.684  10.103
 1738SOL     OW 7052  13.928  11.787  13.708
 1738SOL    HW1 7053  13.992  11.746  13.766
 1738SOL    HW2 7054  13.968  11.870  13.682
 1739SOL     OW 7055  11.139   2.996   6.490
 1739SOL    HW1 7056  11.158   3.048   6.412
 1739SOL    HW2 7057  11.044   2.979   6.485
 1740SOL     OW 7058   5.230  13.071   8.600
 1740SOL    HW1 7059   5.200  13.154   8.563
 1740SOL    HW2 7060   5.277  13.096   8.679
 1741SOL     OW 7061   7.136   7.945   0.927
 1741SOL    HW1 7062   7.192   7.911   0.857
 1741SOL    HW2 7063   7.068   7.996   0.881
 1742SOL     OW 7064   3.783  12.443   1.539
 1742SOL    HW1 7065   3.735  12.363   1.561
 1742SOL    HW2 7066   3.787  12.492   1.621
 1743SOL     OW 7067   3.460   1.318   4.218
 1743SOL    HW1 7068   3.527   1.308   4.150
 1743SOL    HW2 7069   3.377   1.316   4.171
 1744SOL     OW 7070  10.425  14.756  13.167
 1744SOL    HW1 7071  10.470  14.840  13.155
 1744SOL    HW2 7072  10.407  14.751  13.261
 1745SOL     OW 7073  14.753   7.336  14.112
 1745SOL    HW1 7074  14.699   7.392  14.167
 1745SOL    HW2 7075  14.820   7.394  14.076
 1746SOL     OW 7076   8.239   8.819   3.159
 1746SOL    HW1 7077   8.227   8.902   3.205
 1746SOL    HW2 7078   8.269   8.844   3.071
 1747SOL     OW 7079  11.620   5.920   7.211
 1747SOL    HW1 7080  11.543   5.957   7.168
 1747SOL    HW2 7081  11.619   5.958   7.299
 1748SOL     OW 7082   7.620  12.170  10.506
 1748SOL    HW1 7083   7.601  12.264  10.513
 1748SOL    HW2 7084   7.616  12.152  10.412
 1749SOL     OW 7085  14.241   8.675   6.418
 1749SOL    HW1 7086  14.192   8.705   6.494
 1749SOL    HW2 7087  14.176   8.669   6.348
 1750SOL     OW 7088   1.015   7.939   6.551
 1750SOL    HW1 7089   1.070   7.999   6.500
 1750SOL    HW2 7090   1.003   7.983   6.635
 1751SOL     OW 7091   0.114   6.810   8.599
 1751SOL    HW1 7092   0.159   6.868   8.537
 1751SOL    HW2 7093   0.094   6.731   8.548
 1752SOL     OW 7094   1.620  12.935   5.280
 1752SOL    HW1 7095   1.547  12.996   5.264
 1752SOL    HW2 7096   1.695  12.992   5.297
 1753SOL     OW 7097   8.910  14.038   3.582
 1753SOL    HW1 7098   8.864  13.995   3.509
 1753SOL    HW2 7099   8.859  14.015   3.659
 1754SOL     OW 7100  12.563   4.848   0.465
 1754SOL    HW1 7101  12.553   4.780   0.531
 1754SOL    HW2 7102  12.475   4.864   0.432
 1755SOL     OW 7103   4.217   7.092  10.978
 1755SOL    HW1 7104   4.311   7.077  10.969
 1755SOL    HW2 7105   4.209   7.152  11.052
 1756SOL     OW 7106   1.436  10.112  11.810
 1756SOL    HW1 7107   1.433  10.059  11.889
 1756SOL    HW2 7108   1.428  10.049  11.738
 1757SOL     OW 7109  12.405  10.755   7.466
 1757SOL    HW1 7110  12.448  10.674   7.492
 1757SOL    HW2 7111  12.437  10.773   7.378
 1758SOL     OW 7112   0.091  10.128   8.975
 1758SOL    HW1 7113  14.873  10.116   8.976
 1758SOL    HW2 7114   0.115  10.117   8.883
 1759SOL     OW 7115   8.491   9.731   4.943
 1759SOL    HW1 7116   8.439   9.653   4.965
 1759SOL    HW2 7117   8.579   9.711   4.975
 1760SOL     OW 7118   5.164  12.458   0.287
 1760SOL    HW1 7119   5.165  12.362   0.282
 1760SOL    HW2 7120   5.214  12.478   0.367
 1761SOL     OW 7121   5.274   0.931   8.083
 1761SOL    HW1 7122   5.358   0.896   8.112
 1761SOL    HW2 7123   5.210   0.865   8.112
 1762SOL     OW 7124   2.928   1.868  11.087
 1762SOL    HW1 7125   2.902   1.921  11.163
 1762SOL    HW2 7126   2.915   1.926  11.012
 1763SOL     OW 7127   1.300   0.014   1.205
 1763SOL    HW1 7128   1.257   0.094   1.174
 1763SOL    HW2 7129   1.281   0.012   1.299
 1764SOL     OW 7130   6.514  13.950   4.170
 1764SOL    HW1 7131   6.509  13.857   4.190
 1764SOL    HW2 7132   6.586  13.983   4.223
 1765SOL     OW 7133   4.783   4.002   9.594
 1765SOL    HW1 7134   4.851   4.029   9.532
 1765SOL    HW2 7135   4.701   4.017   9.548
 1766SOL     OW 7136  14.323  12.184   3.788
 1766SOL    HW1 7137  14.275  12.260   3.823
 1766SOL    HW2 7138  14.333  12.203   3.695
 1767SOL     OW 7139   1.441   5.057   7.587
 1767SOL    HW1 7140   1.452   5.130   7.648
 1767SOL    HW2 7141   1.349   5.031   7.598
 1768SOL     OW 7142  11.575   3.809   9.376
 1768SOL    HW1 7143  11.598   3.801   9.468
 1768SOL    HW2 7144  11.651   3.773   9.329
 1769SOL     OW 7145   3.143   7.667   3.654
 1769SOL    HW1 7146   3.066   7.692   3.706
 1769SOL    HW2 7147   3.198   7.745   3.654
 1770SOL     OW 7148  14.287   7.472  12.708
 1770SOL    HW1 7149  14.231   7.403  12.745
 1770SOL    HW2 7150  14.315   7.524  12.783
 1771SOL     OW 7151  12.613   8.910  13.678
 1771SOL    HW1 7152  12.701   8.900  13.643
 1771SOL    HW2 7153  12.605   9.003  13.699
 1772SOL     OW 7154  10.297   8.425   8.134
 1772SOL    HW1 7155  10.388   8.403   8.153
 1772SOL    HW2 7156  10.251   8.341   8.134
 1773SOL     OW 7157   4.404   6.743   1.596
 1773SOL    HW1 7158   4.447   6.820   1.634
 1773SOL    HW2 7159   4.345   6.780   1.530
 1774SOL     OW 7160   7.966  14.542   5.527
 1774SOL    HW1 7161   7.973  14.637   5.529
 1774SOL    HW2 7162   7.872  14.525   5.533
 1775SOL     OW 7163   7.232   8.661   2.744
 1775SOL    HW1 7164   7.262   8.752   2.747
 1775SOL    HW2 7165   7.175   8.651   2.820
 1776SOL     OW 7166  10.379   8.080   7.124
 1776SOL    HW1 7167  10.328   8.113   7.050
 1776SOL    HW2 7168  10.349   7.990   7.136
 1777SOL     OW 7169   0.906   1.652   1.898
 1777SOL    HW1 7170   0.970   1.723   1.895
 1777SOL    HW2 7171   0.943   1.584   1.842
 1778SOL     OW 7172   8.551   2.619   6.374
 1778SOL    HW1 7173   8.532   2.599   6.282
 1778SOL    HW2 7174   8.472   2.665   6.405
 1779SOL     OW 7175   6.215   8.590  13.972
 1779SOL    HW1 7176   6.279   8.650  13.934
 1779SOL    HW2 7177   6.137   8.643  13.985
 1780SOL     OW 7178  12.982   7.155   1.806
 1780SOL    HW1 7179  12.980   7.091   1.876
 1780SOL    HW2 7180  12.895   7.196   1.809
 1781SOL     OW 7181  13.496   0.840   1.663
 1781SOL    HW1 7182  13.473   0.767   1.720
 1781SOL    HW2 7183  13.435   0.833   1.589
 1782SOL     OW 7184   4.218  11.596   8.773
 1782SOL    HW1 7185   4.126  11.610   8.792
 1782SOL    HW2 7186   4.260  11.587   8.859
 1783SOL     OW 7187   2.626  12.100   1.266
 1783SOL    HW1 7188   2.676  12.156   1.326
 1783SOL    HW2 7189   2.674  12.017   1.265
 1784SOL     OW 7190   9.305  14.821   3.712
 1784SOL    HW1 7191   9.215  14.836   3.683
 1784SOL    HW2 7192   9.325  14.732   3.684
 1785SOL     OW 7193  13.854  10.167   7.596
 1785SOL    HW1 7194  13.915  10.193   7.526
 1785SOL    HW2 7195  13.908  10.119   7.658
 1786SOL     OW 7196   0.680   0.617  10.611
 1786SOL    HW1 7197   0.701   0.699  10.655
 1786SOL    HW2 7198   0.760   0.593  10.565
 1787SOL     OW 7199   6.374   7.558   3.773
 1787SOL    HW1 7200   6.469   7.557   3.783
 1787SOL    HW2 7201   6.345   7.634   3.823
 1788SOL     OW 7202   9.624  10.194   3.103
 1788SOL    HW1 7203   9.694  10.258   3.087
 1788SOL    HW2 7204   9.543  10.242   3.084
 1789SOL     OW 7205   4.711   3.088   8.360
 1789SOL    HW1 7206   4.677   3.050   8.279
 1789SOL    HW2 7207   4.773   3.155   8.331
 1790SOL     OW 7208  11.675  11.780   8.452
 1790SOL    HW1 7209  11.589  11.814   8.428
 1790SOL    HW2 7210  11.661  11.687   8.468
 1791SOL     OW 7211  14.621  11.580   5.654
 1791SOL    HW1 7212  14.635  11.600   5.746
 1791SOL    HW2 7213  14.653  11.490   5.644
 1792SOL     OW 7214   1.964   6.556   5.955
 1792SOL    HW1 7215   1.962   6.564   6.051
 1792SOL    HW2 7216   2.014   6.632   5.926
 1793SOL     OW 7217  10.350   5.116   0.461
 1793SOL    HW1 7218  10.280   5.155   0.409
 1793SOL    HW2 7219  10.429   5.128   0.408
 1794SOL     OW 7220   3.604  11.066   5.902
 1794SOL    HW1 7221   3.614  11.154   5.865
 1794SOL    HW2 7222   3.690  11.046   5.940
 1795SOL     OW 7223   7.192  13.653   1.469
 1795SOL    HW1 7224   7.128  13.719   1.495
 1795SOL    HW2 7225   7.176  13.579   1.527
 1796SOL     OW 7226  11.693  10.238  14.392
 1796SOL    HW1 7227  11.684  10.190  14.309
 1796SOL    HW2 7228  11.726  10.172  14.454
 1797SOL     OW 7229   2.722  12.902  11.547
 1797SOL    HW1 7230   2.668  12.980  11.537
 1797SOL    HW2 7231   2.807  12.927  11.510
 1798SOL     OW 7232  12.097   9.219  11.819
 1798SOL    HW1 7233  12.147   9.263  11.750
 1798SOL    HW2 7234  12.164   9.186  11.879
 1799SOL     OW 7235   9.965  12.579   6.486
 1799SOL    HW1 7236  10.043  12.558   6.538
 1799SOL    HW2 7237   9.949  12.672   6.504
 1800SOL     OW 7238   7.936  12.781   6.098
 1800SOL    HW1 7239   8.008  12.718   6.101
 1800SOL    HW2 7240   7.924  12.800   6.005
 1801SOL     OW 7241   4.398  11.460  11.930
 1801SOL    HW1 7242   4.413  11.441  12.023
 1801SOL    HW2 7243   4.468  11.414  11.885
 1802SOL     OW 7244  10.251   8.074  11.064
 1802SOL    HW1 7245  10.269   8.057  10.971
 1802SOL    HW2 7246  10.204   8.158  11.064
 1803SOL     OW 7247   5.541  12.096   4.168
 1803SOL    HW1 7248   5.450  12.082   4.192
 1803SOL    HW2 7249   5.539  12.168   4.105
 1804SOL     OW 7250   4.900  13.304   6.524
 1804SOL    HW1 7251   4.929  13.266   6.608
 1804SOL    HW2 7252   4.809  13.277   6.517
 1805SOL     OW 7253   8.653  13.870   8.513
 1805SOL    HW1 7254   8.658  13.963   8.531
 1805SOL    HW2 7255   8.598  13.834   8.583
 1806SOL     OW 7256   8.189   7.579   8.678
 1806SOL    HW1 7257   8.282   7.578   8.656
 1806SOL    HW2 7258   8.165   7.671   8.674
 1807SOL     OW 7259   4.285  13.426   6.482
 1807SOL    HW1 7260   4.332  13.504   6.511
 1807SOL    HW2 7261   4.352  13.371   6.441
 1808SOL     OW 7262  14.861   3.774   6.159
 1808SOL    HW1 7263  14.826   3.843   6.102
 1808SOL    HW2 7264   0.077   3.795   6.169
 1809SOL     OW 7265  13.969  14.036   3.524
 1809SOL    HW1 7266  13.994  14.121   3.559
 1809SOL    HW2 7267  14.053  13.991   3.508
 1810SOL     OW 7268   4.283  12.305  13.729
 1810SOL    HW1 7269   4.376  12.326  13.740
 1810SOL    HW2 7270   4.283  12.211  13.712
 1811SOL     OW 7271   1.452   1.501   9.940
 1811SOL    HW1 7272   1.358   1.516   9.950
 1811SOL    HW2 7273   1.491   1.588   9.942
 1812SOL     OW 7274   6.305   4.464   5.237
 1812SOL    HW1 7275   6.268   4.385   5.275
 1812SOL    HW2 7276   6.230   4.524   5.227
 1813SOL     OW 7277   0.591   4.058   6.635
 1813SOL    HW1 7278   0.570   4.116   6.562
 1813SOL    HW2 7279   0.523   3.991   6.633
 1814SOL     OW 7280   5.354   0.295   1.026
 1814SOL    HW1 7281   5.379   0.286   1.118
 1814SOL    HW2 7282   5.262   0.270   1.024
 1815SOL     OW 7283  11.959   5.359  10.608
 1815SOL    HW1 7284  11.887   5.296  10.616
 1815SOL    HW2 7285  11.938   5.427  10.671
 1816SOL     OW 7286   7.072   2.444  13.358
 1816SOL    HW1 7287   7.053   2.474  13.269
 1816SOL    HW2 7288   7.002   2.481  13.411
 1817SOL     OW 7289  10.094   0.014   6.985
 1817SOL    HW1 7290  10.132  14.827   7.046
 1817SOL    HW2 7291  10.000   0.012   7.003
 1818SOL     OW 7292   4.925  12.851   5.556
 1818SOL    HW1 7293   4.944  12.867   5.649
 1818SOL    HW2 7294   4.931  12.756   5.546
 1819SOL     OW 7295   4.483   8.357  12.048
 1819SOL    HW1 7296   4.579   8.354  12.059
 1819SOL    HW2 7297   4.449   8.310  12.125
 1820SOL     OW 7298  14.366   9.104   5.748
 1820SOL    HW1 7299  14.335   9.025   5.703
 1820SOL    HW2 7300  14.412   9.072   5.825
 1821SOL     OW 7301  12.155   9.556  11.651
 1821SOL    HW1 7302  12.188   9.472  11.619
 1821SOL    HW2 7303  12.088   9.581  11.588
 1822SOL     OW 7304  12.622  14.445   8.445
 1822SOL    HW1 7305  12.618  14.454   8.540
 1822SOL    HW2 7306  12.714  14.459   8.424
 1823SOL     OW 7307  13.452   4.240   8.172
 1823SOL    HW1 7308  13.357   4.230   8.169
 1823SOL    HW2 7309  13.479   4.183   8.244
 1824SOL     OW 7310   5.733  10.627   1.192
 1824SOL    HW1 7311   5.753  10.575   1.270
 1824SOL    HW2 7312   5.640  10.648   1.201
 1825SOL     OW 7313  10.415   9.854   9.799
 1825SOL    HW1 7314  10.384   9.892   9.881
 1825SOL    HW2 7315  10.495   9.808   9.823
 1826SOL     OW 7316  11.850   1.661   3.433
 1826SOL    HW1 7317  11.926   1.697   3.389
 1826SOL    HW2 7318  11.886   1.607   3.503
 1827SOL     OW 7319  13.629   7.912   3.388
 1827SOL    HW1 7320  13.612   7.968   3.313
 1827SOL    HW2 7321  13.567   7.941   3.455
 1828SOL     OW 7322   9.038   1.617   2.865
 1828SOL    HW1 7323   9.036   1.712   2.855
 1828SOL    HW2 7324   9.098   1.602   2.938
 1829SOL     OW 7325  11.255   6.617   4.592
 1829SOL    HW1 7326  11.232   6.698   4.547
 1829SOL    HW2 7327  11.188   6.607   4.660
 1830SOL     OW 7328   7.187  13.780  14.305
 1830SOL    HW1 7329   7.182  13.721  14.231
 1830SOL    HW2 7330   7.241  13.853  14.274
 1831SOL     OW 7331  13.362   3.675  12.667
 1831SOL    HW1 7332  13.362   3.591  12.712
 1831SOL    HW2 7333  13.323   3.736  12.729
 1832SOL     OW 7334   8.516   5.779   1.598
 1832SOL    HW1 7335   8.477   5.734   1.523
 1832SOL    HW2 7336   8.568   5.711   1.642
 1833SOL     OW 7337   9.109   8.187   7.870
 1833SOL    HW1 7338   9.092   8.276   7.837
 1833SOL    HW2 7339   9.089   8.192   7.963
 1834SOL     OW 7340   9.215  11.291   6.580
 1834SOL    HW1 7341   9.154  11.263   6.648
 1834SOL    HW2 7342   9.160  11.309   6.504
 1835SOL     OW 7343   7.109   9.082   8.335
 1835SOL    HW1 7344   7.015   9.068   8.345
 1835SOL    HW2 7345   7.145   8.995   8.320
 1836SOL     OW 7346   4.413  10.821   4.228
 1836SOL    HW1 7347   4.442  10.731   4.215
 1836SOL    HW2 7348   4.332  10.813   4.278
 1837SOL     OW 7349   3.631  11.580   6.123
 1837SOL    HW1 7350   3.562  11.588   6.058
 1837SOL    HW2 7351   3.604  11.638   6.194
 1838SOL     OW 7352   2.353   6.348   3.542
 1838SOL    HW1 7353   2.305   6.417   3.497
 1838SOL    HW2 7354   2.433   6.337   3.491
 1839SOL     OW 7355   0.620   8.460   5.310
 1839SOL    HW1 7356   0.611   8.375   5.354
 1839SOL    HW2 7357   0.552   8.459   5.243
 1840SOL     OW 7358  12.315  12.793  10.438
 1840SOL    HW1 7359  12.312  12.849  10.360
 1840SOL    HW2 7360  12.238  12.818  10.488
 1841SOL     OW 7361  13.523   0.528   0.210
 1841SOL    HW1 7362  13.445   0.517   0.264
 1841SOL    HW2 7363  13.535   0.443   0.167
 1842SOL     OW 7364   2.525   8.498   2.636
 1842SOL    HW1 7365   2.563   8.506   2.548
 1842SOL    HW2 7366   2.579   8.556   2.691
 1843SOL     OW 7367   2.504   9.707  11.158
 1843SOL    HW1 7368   2.517   9.650  11.233
 1843SOL    HW2 7369   2.422   9.753  11.176
 1844SOL     OW 7370   8.482   6.503   2.434
 1844SOL    HW1 7371   8.428   6.554   2.373
 1844SOL    HW2 7372   8.522   6.568   2.492
 1845SOL     OW 7373   0.964   0.495   3.235
 1845SOL    HW1 7374   0.871   0.476   3.221
 1845SOL    HW2 7375   0.976   0.483   3.330
 1846SOL     OW 7376   3.809   6.430   4.241
 1846SOL    HW1 7377   3.875   6.498   4.256
 1846SOL    HW2 7378   3.733   6.459   4.291
 1847SOL     OW 7379   2.053  11.259  12.109
 1847SOL    HW1 7380   2.049  11.281  12.016
 1847SOL    HW2 7381   1.963  11.234  12.132
 1848SOL     OW 7382   1.302   1.595   8.396
 1848SOL    HW1 7383   1.296   1.519   8.455
 1848SOL    HW2 7384   1.392   1.627   8.409
 1849SOL     OW 7385   8.175   3.732   1.589
 1849SOL    HW1 7386   8.263   3.710   1.561
 1849SOL    HW2 7387   8.133   3.647   1.605
 1850SOL     OW 7388   5.911  11.687   7.508
 1850SOL    HW1 7389   5.855  11.625   7.462
 1850SOL    HW2 7390   5.942  11.747   7.439
 1851SOL     OW 7391  14.064   1.594  12.408
 1851SOL    HW1 7392  14.031   1.679  12.439
 1851SOL    HW2 7393  13.990   1.556  12.360
 1852SOL     OW 7394   3.504   8.363   6.608
 1852SOL    HW1 7395   3.581   8.309   6.591
 1852SOL    HW2 7396   3.483   8.403   6.524
 1853SOL     OW 7397   0.184   4.165   8.307
 1853SOL    HW1 7398   0.243   4.236   8.333
 1853SOL    HW2 7399   0.186   4.166   8.211
 1854SOL     OW 7400  10.634   1.880   4.765
 1854SOL    HW1 7401  10.556   1.866   4.710
 1854SOL    HW2 7402  10.625   1.969   4.798
 1855SOL     OW 7403   9.134   5.672   2.296
 1855SOL    HW1 7404   9.129   5.728   2.219
 1855SOL    HW2 7405   9.046   5.635   2.304
 1856SOL     OW 7406   5.337   0.613   3.176
 1856SOL    HW1 7407   5.343   0.706   3.196
 1856SOL    HW2 7408   5.288   0.576   3.250
 1857SOL     OW 7409   9.753   9.988  11.914
 1857SOL    HW1 7410   9.814  10.051  11.874
 1857SOL    HW2 7411   9.783   9.979  12.004
 1858SOL     OW 7412   6.276   4.120  11.971
 1858SOL    HW1 7413   6.231   4.190  12.017
 1858SOL    HW2 7414   6.229   4.041  11.995
 1859SOL     OW 7415   8.384   1.911   5.003
 1859SOL    HW1 7416   8.455   1.858   4.968
 1859SOL    HW2 7417   8.394   1.907   5.098
 1860SOL     OW 7418   6.679   9.306  12.279
 1860SOL    HW1 7419   6.766   9.293  12.241
 1860SOL    HW2 7420   6.618   9.285  12.208
 1861SOL     OW 7421   5.753   0.304  10.196
 1861SOL    HW1 7422   5.803   0.284  10.275
 1861SOL    HW2 7423   5.726   0.395  10.207
 1862SOL     OW 7424  13.346   0.037   4.983
 1862SOL    HW1 7425  13.309  14.828   5.006
 1862SOL    HW2 7426  13.270   0.092   4.964
 1863SOL     OW 7427   3.465   1.520   7.721
 1863SOL    HW1 7428   3.429   1.434   7.699
 1863SOL    HW2 7429   3.464   1.568   7.639
 1864SOL     OW 7430   6.927   9.836   0.602
 1864SOL    HW1 7431   7.020   9.831   0.625
 1864SOL    HW2 7432   6.894   9.748   0.616
 1865SOL     OW 7433   4.747   2.226   8.160
 1865SOL    HW1 7434   4.802   2.303   8.147
 1865SOL    HW2 7435   4.660   2.255   8.132
 1866SOL     OW 7436   3.997   1.819   1.176
 1866SOL    HW1 7437   4.086   1.817   1.142
 1866SOL    HW2 7438   3.942   1.793   1.103
 1867SOL     OW 7439  13.481  10.499   3.724
 1867SOL    HW1 7440  13.507  10.481   3.814
 1867SOL    HW2 7441  13.409  10.438   3.707
 1868SOL     OW 7442   7.609   2.969   3.474
 1868SOL    HW1 7443   7.610   2.874   3.470
 1868SOL    HW2 7444   7.645   2.997   3.389
 1869SOL     OW 7445   8.851   2.636  10.330
 1869SOL    HW1 7446   8.756   2.642  10.326
 1869SOL    HW2 7447   8.868   2.558  10.383
 1870SOL     OW 7448   1.278  12.693   9.839
 1870SOL    HW1 7449   1.210  12.761   9.833
 1870SOL    HW2 7450   1.359  12.741   9.855
 1871SOL     OW 7451   1.247   9.757  12.709
 1871SOL    HW1 7452   1.336   9.728  12.691
 1871SOL    HW2 7453   1.205   9.682  12.751
 1872SOL     OW 7454  14.077   8.817   8.672
 1872SOL    HW1 7455  14.054   8.831   8.764
 1872SOL    HW2 7456  14.084   8.722   8.663
 1873SOL     OW 7457   8.949   3.808   2.172
 1873SOL    HW1 7458   8.972   3.784   2.262
 1873SOL    HW2 7459   9.019   3.868   2.145
 1874SOL     OW 7460  10.279  13.167  11.452
 1874SOL    HW1 7461  10.231  13.189  11.531
 1874SOL    HW2 7462  10.255  13.076  11.433
 1875SOL     OW 7463   0.870   9.278  13.842
 1875SOL    HW1 7464   0.912   9.218  13.903
 1875SOL    HW2 7465   0.934   9.347  13.827
 1876SOL     OW 7466  10.877   4.272   1.221
 1876SOL    HW1 7467  10.819   4.265   1.297
 1876SOL    HW2 7468  10.944   4.335   1.248
 1877SOL     OW 7469   3.981   9.246   1.950
 1877SOL    HW1 7470   3.914   9.186   1.984
 1877SOL    HW2 7471   4.063   9.198   1.960
 1878SOL     OW 7472   7.751   2.337   6.282
 1878SOL    HW1 7473   7.836   2.312   6.246
 1878SOL    HW2 7474   7.742   2.429   6.257
 1879SOL     OW 7475  12.167  10.244   6.677
 1879SOL    HW1 7476  12.137  10.331   6.706
 1879SOL    HW2 7477  12.187  10.256   6.584
 1880SOL     OW 7478   8.639   7.937   5.502
 1880SOL    HW1 7479   8.577   7.990   5.553
 1880SOL    HW2 7480   8.711   7.997   5.482
 1881SOL     OW 7481   4.304   7.463  10.534
 1881SOL    HW1 7482   4.290   7.441  10.442
 1881SOL    HW2 7483   4.399   7.459  10.545
 1882SOL     OW 7484  14.788   4.138   8.697
 1882SOL    HW1 7485  14.849   4.207   8.723
 1882SOL    HW2 7486  14.821   4.108   8.612
 1883SOL     OW 7487  13.336   1.070   0.209
 1883SOL    HW1 7488  13.393   1.020   0.268
 1883SOL    HW2 7489  13.324   1.154   0.253
 1884SOL     OW 7490   9.541   0.027   8.112
 1884SOL    HW1 7491   9.489   0.082   8.170
 1884SOL    HW2 7492   9.550  14.820   8.158
 1885SOL     OW 7493   2.203   5.100   5.907
 1885SOL    HW1 7494   2.120   5.074   5.868
 1885SOL    HW2 7495   2.229   5.026   5.961
 1886SOL     OW 7496  13.908  12.168   2.399
 1886SOL    HW1 7497  14.003  12.181   2.393
 1886SOL    HW2 7498  13.897  12.073   2.392
 1887SOL     OW 7499   5.564   0.445   7.278
 1887SOL    HW1 7500   5.568   0.461   7.183
 1887SOL    HW2 7501   5.606   0.360   7.290
 1888SOL     OW 7502   2.490   8.464   4.339
 1888SOL    HW1 7503   2.502   8.477   4.433
 1888SOL    HW2 7504   2.487   8.369   4.328
 1889SOL     OW 7505   7.461   6.961   0.443
 1889SOL    HW1 7506   7.552   6.935   0.459
 1889SOL    HW2 7507   7.417   6.880   0.417
 1890SOL     OW 7508  12.380   7.926  14.318
 1890SOL    HW1 7509  12.421   7.953  14.236
 1890SOL    HW2 7510  12.386   7.830  14.317
 1891SOL     OW 7511  12.261   0.923   1.430
 1891SOL    HW1 7512  12.206   0.876   1.493
 1891SOL    HW2 7513  12.256   1.014   1.457
 1892SOL     OW 7514   9.906  10.370   7.784
 1892SOL    HW1 7515   9.896  10.396   7.875
 1892SOL    HW2 7516   9.999  10.349   7.774
 1893SOL     OW 7517   3.945  11.593   5.200
 1893SOL    HW1 7518   3.992  11.614   5.281
 1893SOL    HW2 7519   3.871  11.653   5.198
 1894SOL     OW 7520   2.210   6.080   5.027
 1894SOL    HW1 7521   2.162   6.087   5.110
 1894SOL    HW2 7522   2.146   6.105   4.961
 1895SOL     OW 7523  13.082   4.940   9.302
 1895SOL    HW1 7524  13.159   4.883   9.303
 1895SOL    HW2 7525  13.087   4.987   9.219
 1896SOL     OW 7526  13.579   6.888   2.601
 1896SOL    HW1 7527  13.574   6.983   2.613
 1896SOL    HW2 7528  13.492   6.862   2.571
 1897SOL     OW 7529  11.737  10.149  14.739
 1897SOL    HW1 7530  11.646  10.177  14.736
 1897SOL    HW2 7531  11.751  10.122  14.830
 1898SOL     OW 7532   3.690   7.461   3.587
 1898SOL    HW1 7533   3.753   7.392   3.607
 1898SOL    HW2 7534   3.679   7.455   3.492
 1899SOL     OW 7535   6.076  11.196   3.608
 1899SOL    HW1 7536   6.017  11.251   3.557
 1899SOL    HW2 7537   6.146  11.256   3.637
 1900SOL     OW 7538  13.167   1.260  10.380
 1900SOL    HW1 7539  13.154   1.334  10.440
 1900SOL    HW2 7540  13.259   1.264  10.356
 1901SOL     OW 7541   8.879   0.816  12.317
 1901SOL    HW1 7542   8.916   0.786  12.400
 1901SOL    HW2 7543   8.955   0.828  12.259
 1902SOL     OW 7544  11.474   8.624   9.823
 1902SOL    HW1 7545  11.472   8.536   9.785
 1902SOL    HW2 7546  11.388   8.660   9.804
 1903SOL     OW 7547   8.298   6.819   5.926
 1903SOL    HW1 7548   8.240   6.744   5.934
 1903SOL    HW2 7549   8.284   6.870   6.005
 1904SOL     OW 7550   7.796   1.490   2.212
 1904SOL    HW1 7551   7.872   1.503   2.269
 1904SOL    HW2 7552   7.834   1.466   2.127
 1905SOL     OW 7553  14.180   5.062   3.974
 1905SOL    HW1 7554  14.113   4.995   3.964
 1905SOL    HW2 7555  14.224   5.065   3.889
 1906SOL     OW 7556   6.581   6.126  10.276
 1906SOL    HW1 7557   6.488   6.144  10.288
 1906SOL    HW2 7558   6.616   6.207  10.238
 1907SOL     OW 7559   1.026   7.396   9.647
 1907SOL    HW1 7560   1.025   7.301   9.658
 1907SOL    HW2 7561   1.116   7.421   9.667
 1908SOL     OW 7562   9.367   9.846  13.176
 1908SOL    HW1 7563   9.333   9.906  13.242
 1908SOL    HW2 7564   9.356   9.892  13.093
 1909SOL     OW 7565   0.737   2.074   4.708
 1909SOL    HW1 7566   0.651   2.082   4.666
 1909SOL    HW2 7567   0.758   2.163   4.737
 1910SOL     OW 7568  10.345  11.768   7.579
 1910SOL    HW1 7569  10.364  11.685   7.535
 1910SOL    HW2 7570  10.289  11.744   7.653
 1911SOL     OW 7571  10.609   2.610   9.626
 1911SOL    HW1 7572  10.562   2.602   9.543
 1911SOL    HW2 7573  10.675   2.540   9.622
 1912SOL     OW 7574   4.368  14.257   8.981
 1912SOL    HW1 7575   4.340  14.167   8.966
 1912SOL    HW2 7576   4.455  14.249   9.020
 1913SOL     OW 7577  10.844  11.064   7.013
 1913SOL    HW1 7578  10.765  11.072   7.066
 1913SOL    HW2 7579  10.812  11.033   6.928
 1914SOL     OW 7580   3.128   0.370   3.591
 1914SOL    HW1 7581   3.087   0.327   3.665
 1914SOL    HW2 7582   3.196   0.426   3.629
 1915SOL     OW 7583   3.250   0.614  10.543
 1915SOL    HW1 7584   3.208   0.700  10.531
 1915SOL    HW2 7585   3.335   0.624  10.500
 1916SOL     OW 7586   1.721  13.142   9.738
 1916SOL    HW1 7587   1.786  13.072   9.734
 1916SOL    HW2 7588   1.716  13.176   9.648
 1917SOL     OW 7589   0.626   4.714   9.558
 1917SOL    HW1 7590   0.717   4.711   9.531
 1917SOL    HW2 7591   0.582   4.766   9.491
 1918SOL     OW 7592   2.272   7.713  11.061
 1918SOL    HW1 7593   2.246   7.805  11.058
 1918SOL    HW2 7594   2.344   7.710  11.124
 1919SOL     OW 7595   8.864   7.851   8.378
 1919SOL    HW1 7596   8.847   7.784   8.312
 1919SOL    HW2 7597   8.903   7.804   8.451
 1920SOL     OW 7598   9.519   4.798   8.600
 1920SOL    HW1 7599   9.566   4.781   8.519
 1920SOL    HW2 7600   9.528   4.718   8.651
 1921SOL     OW 7601  11.295   2.265   1.733
 1921SOL    HW1 7602  11.206   2.287   1.760
 1921SOL    HW2 7603  11.349   2.336   1.768
 1922SOL     OW 7604  12.556   1.700   8.134
 1922SOL    HW1 7605  12.465   1.714   8.107
 1922SOL    HW2 7606  12.553   1.695   8.230
 1923SOL     OW 7607  11.401  12.613   3.603
 1923SOL    HW1 7608  11.491  12.594   3.630
 1923SOL    HW2 7609  11.397  12.709   3.599
 1924SOL     OW 7610  11.580   0.366   6.549
 1924SOL    HW1 7611  11.668   0.402   6.561
 1924SOL    HW2 7612  11.594   0.275   6.523
 1925SOL     OW 7613   3.667  10.058  11.597
 1925SOL    HW1 7614   3.649  10.064  11.504
 1925SOL    HW2 7615   3.633   9.973  11.624
 1926SOL     OW 7616   7.700   1.551   7.649
 1926SOL    HW1 7617   7.633   1.510   7.703
 1926SOL    HW2 7618   7.780   1.547   7.702
 1927SOL     OW 7619   7.542  13.038   9.813
 1927SOL    HW1 7620   7.550  12.947   9.787
 1927SOL    HW2 7621   7.448  13.055   9.814
 1928SOL     OW 7622   6.988   2.962   9.210
 1928SOL    HW1 7623   6.947   3.043   9.239
 1928SOL    HW2 7624   6.993   2.908   9.289
 1929SOL     OW 7625   4.696  11.378  10.786
 1929SOL    HW1 7626   4.631  11.406  10.722
 1929SOL    HW2 7627   4.679  11.432  10.863
 1930SOL     OW 7628   1.812   1.607  10.610
 1930SOL    HW1 7629   1.881   1.669  10.587
 1930SOL    HW2 7630   1.825   1.534  10.550
 1931SOL     OW 7631   3.785   3.466   7.245
 1931SOL    HW1 7632   3.764   3.493   7.334
 1931SOL    HW2 7633   3.745   3.380   7.236
 1932SOL     OW 7634   5.593  11.986   1.153
 1932SOL    HW1 7635   5.670  11.998   1.098
 1932SOL    HW2 7636   5.523  11.963   1.093
 1933SOL     OW 7637   8.085  11.605   1.965
 1933SOL    HW1 7638   8.097  11.541   2.035
 1933SOL    HW2 7639   8.170  11.649   1.959
 1934SOL     OW 7640   4.123   6.735  14.277
 1934SOL    HW1 7641   4.039   6.759  14.238
 1934SOL    HW2 7642   4.125   6.640  14.273
 1935SOL     OW 7643   9.960   0.470   6.977
 1935SOL    HW1 7644   9.987   0.521   6.901
 1935SOL    HW2 7645   9.865   0.478   6.978
 1936SOL     OW 7646  11.879  13.464   1.535
 1936SOL    HW1 7647  11.954  13.524   1.536
 1936SOL    HW2 7648  11.862  13.448   1.442
 1937SOL     OW 7649   9.140   7.465   8.325
 1937SOL    HW1 7650   9.088   7.391   8.294
 1937SOL    HW2 7651   9.230   7.431   8.330
 1938SOL     OW 7652   0.891  13.831  10.170
 1938SOL    HW1 7653   0.962  13.871  10.120
 1938SOL    HW2 7654   0.934  13.797  10.249
 1939SOL     OW 7655   7.276   1.863  10.436
 1939SOL    HW1 7656   7.344   1.814  10.390
 1939SOL    HW2 7657   7.252   1.807  10.510
 1940SOL     OW 7658  12.959   1.709  12.349
 1940SOL    HW1 7659  12.908   1.702  12.430
 1940SOL    HW2 7660  12.946   1.625  12.305
 1941SOL     OW 7661   0.983  13.309   9.772
 1941SOL    HW1 7662   1.048  13.242   9.749
 1941SOL    HW2 7663   1.017  13.348   9.853
 1942SOL     OW 7664   2.090   4.072  12.969
 1942SOL    HW1 7665   2.129   4.017  12.901
 1942SOL    HW2 7666   2.006   4.031  12.988
 1943SOL     OW 7667   9.772   0.753  13.545
 1943SOL    HW1 7668   9.810   0.808  13.614
 1943SOL    HW2 7669   9.734   0.814  13.483
 1944SOL     OW 7670  11.407   3.671   6.728
 1944SOL    HW1 7671  11.356   3.749   6.708
 1944SOL    HW2 7672  11.494   3.704   6.751
 1945SOL     OW 7673  14.423   2.920  13.602
 1945SOL    HW1 7674  14.399   2.840  13.555
 1945SOL    HW2 7675  14.405   2.990  13.540
 1946SOL     OW 7676  11.632  13.737   0.913
 1946SOL    HW1 7677  11.538  13.753   0.900
 1946SOL    HW2 7678  11.670  13.824   0.919
 1947SOL     OW 7679   1.675  13.412   2.119
 1947SOL    HW1 7680   1.695  13.323   2.091
 1947SOL    HW2 7681   1.581  13.422   2.106
 1948SOL     OW 7682  13.029  13.812   6.382
 1948SOL    HW1 7683  13.085  13.782   6.454
 1948SOL    HW2 7684  12.945  13.769   6.398
 1949SOL     OW 7685  13.862   2.675  12.296
 1949SOL    HW1 7686  13.942   2.668  12.348
 1949SOL    HW2 7687  13.792   2.655  12.358
 1950SOL     OW 7688   1.152   4.598  11.903
 1950SOL    HW1 7689   1.065   4.601  11.863
 1950SOL    HW2 7690   1.187   4.513  11.877
 1951SOL     OW 7691  13.694   5.339   1.163
 1951SOL    HW1 7692  13.730   5.413   1.212
 1951SOL    HW2 7693  13.681   5.374   1.074
 1952SOL     OW 7694   6.529  11.941  12.922
 1952SOL    HW1 7695   6.554  11.871  12.861
 1952SOL    HW2 7696   6.608  11.995  12.929
 1953SOL     OW 7697   6.088  14.524  12.583
 1953SOL    HW1 7698   6.181  14.534  12.601
 1953SOL    HW2 7699   6.057  14.463  12.650
 1954SOL     OW 7700   3.188   9.324  11.405
 1954SOL    HW1 7701   3.156   9.348  11.492
 1954SOL    HW2 7702   3.193   9.407  11.358
 1955SOL     OW 7703  12.864   4.284   8.434
 1955SOL    HW1 7704  12.819   4.315   8.355
 1955SOL    HW2 7705  12.796   4.281   8.500
 1956SOL     OW 7706   0.270   9.567   5.813
 1956SOL    HW1 7707   0.262   9.481   5.772
 1956SOL    HW2 7708   0.303   9.550   5.900
 1957SOL     OW 7709   7.434  10.999   2.615
 1957SOL    HW1 7710   7.350  11.021   2.656
 1957SOL    HW2 7711   7.418  10.917   2.569
 1958SOL     OW 7712  12.722  14.694   5.770
 1958SOL    HW1 7713  12.690  14.628   5.832
 1958SOL    HW2 7714  12.652  14.758   5.765
 1959SOL     OW 7715   1.041  13.977   9.528
 1959SOL    HW1 7716   0.946  13.987   9.529
 1959SOL    HW2 7717   1.064  13.978   9.435
 1960SOL     OW 7718  11.093   5.757   0.127
 1960SOL    HW1 7719  11.017   5.706   0.099
 1960SOL    HW2 7720  11.123   5.714   0.207
 1961SOL     OW 7721   5.847   1.217   4.718
 1961SOL    HW1 7722   5.779   1.173   4.666
 1961SOL    HW2 7723   5.929   1.193   4.677
 1962SOL     OW 7724   6.810   1.592   4.782
 1962SOL    HW1 7725   6.871   1.564   4.851
 1962SOL    HW2 7726   6.737   1.531   4.788
 1963SOL     OW 7727   8.398   8.070   0.049
 1963SOL    HW1 7728   8.468   8.102   0.107
 1963SOL    HW2 7729   8.442   8.049  14.843
 1964SOL     OW 7730   2.157   0.210  11.186
 1964SOL    HW1 7731   2.184   0.132  11.234
 1964SOL    HW2 7732   2.215   0.212  11.110
 1965SOL     OW 7733   7.024  12.802  13.260
 1965SOL    HW1 7734   6.996  12.711  13.258
 1965SOL    HW2 7735   6.964  12.847  13.199
 1966SOL     OW 7736   6.263  10.105   7.412
 1966SOL    HW1 7737   6.250  10.037   7.345
 1966SOL    HW2 7738   6.302  10.059   7.486
 1967SOL     OW 7739   8.397   0.453   8.049
 1967SOL    HW1 7740   8.409   0.502   7.968
 1967SOL    HW2 7741   8.303   0.435   8.054
 1968SOL     OW 7742   0.454  10.129   9.178
 1968SOL    HW1 7743   0.512  10.206   9.176
 1968SOL    HW2 7744   0.462  10.096   9.267
 1969SOL     OW 7745   5.022   5.707   9.138
 1969SOL    HW1 7746   4.953   5.654   9.178
 1969SOL    HW2 7747   4.977   5.786   9.109
 1970SOL     OW 7748   0.870   3.176  12.556
 1970SOL    HW1 7749   0.919   3.257  12.561
 1970SOL    HW2 7750   0.789   3.199  12.510
 1971SOL     OW 7751  14.175   1.661   6.264
 1971SOL    HW1 7752  14.166   1.566   6.277
 1971SOL    HW2 7753  14.111   1.699   6.324
 1972SOL     OW 7754   9.744   3.957   3.039
 1972SOL    HW1 7755   9.798   4.035   3.049
 1972SOL    HW2 7756   9.670   3.971   3.099
 1973SOL     OW 7757   8.249  11.969   9.467
 1973SOL    HW1 7758   8.288  11.998   9.385
 1973SOL    HW2 7759   8.285  11.881   9.482
 1974SOL     OW 7760  10.025   5.728  10.491
 1974SOL    HW1 7761   9.947   5.677  10.468
 1974SOL    HW2 7762  10.096   5.664  10.492
 1975SOL     OW 7763  10.650  10.055  12.169
 1975SOL    HW1 7764  10.643   9.965  12.136
 1975SOL    HW2 7765  10.693  10.045  12.254
 1976SOL     OW 7766  12.949   2.544   3.992
 1976SOL    HW1 7767  12.965   2.637   4.010
 1976SOL    HW2 7768  12.993   2.529   3.908
 1977SOL     OW 7769  14.396   3.300  10.347
 1977SOL    HW1 7770  14.484   3.267  10.364
 1977SOL    HW2 7771  14.341   3.221  10.344
 1978SOL     OW 7772   0.175   4.103   8.038
 1978SOL    HW1 7773   0.214   4.040   7.977
 1978SOL    HW2 7774   0.181   4.187   7.992
 1979SOL     OW 7775   7.504  13.016  14.271
 1979SOL    HW1 7776   7.469  13.088  14.218
 1979SOL    HW2 7777   7.583  13.051  14.310
 1980SOL     OW 7778   8.355   3.835   8.064
 1980SOL    HW1 7779   8.324   3.914   8.107
 1980SOL    HW2 7780   8.412   3.794   8.129
 1981SOL     OW 7781   4.877   9.357  11.503
 1981SOL    HW1 7782   4.845   9.428  11.560
 1981SOL    HW2 7783   4.797   9.316  11.470
 1982SOL     OW 7784  14.104   2.080   4.354
 1982SOL    HW1 7785  14.160   2.004   4.359
 1982SOL    HW2 7786  14.016   2.047   4.373
 1983SOL     OW 7787   6.941   9.141   6.973
 1983SOL    HW1 7788   6.951   9.050   6.946
 1983SOL    HW2 7789   7.012   9.156   7.036
 1984SOL     OW 7790  13.734   5.006  13.825
 1984SOL    HW1 7791  13.809   5.051  13.863
 1984SOL    HW2 7792  13.757   4.992  13.733
 1985SOL     OW 7793   9.022  14.566  10.982
 1985SOL    HW1 7794   8.973  14.539  11.060
 1985SOL    HW2 7795   8.954  14.577  10.915
 1986SOL     OW 7796  13.676   1.866   7.760
 1986SOL    HW1 7797  13.583   1.882   7.747
 1986SOL    HW2 7798  13.686   1.771   7.749
 1987SOL     OW 7799  12.171   8.508   4.692
 1987SOL    HW1 7800  12.156   8.580   4.631
 1987SOL    HW2 7801  12.153   8.429   4.640
 1988SOL     OW 7802   6.708  11.112   4.959
 1988SOL    HW1 7803   6.715  11.115   5.054
 1988SOL    HW2 7804   6.663  11.029   4.941
 1989SOL     OW 7805   1.639   4.313   1.544
 1989SOL    HW1 7806   1.612   4.280   1.630
 1989SOL    HW2 7807   1.733   4.293   1.539
 1990SOL     OW 7808  11.442  12.226  13.671
 1990SOL    HW1 7809  11.468  12.308  13.714
 1990SOL    HW2 7810  11.520  12.198  13.623
 1991SOL     OW 7811  12.250  13.279  13.946
 1991SOL    HW1 7812  12.170  13.231  13.966
 1991SOL    HW2 7813  12.233  13.322  13.863
 1992SOL     OW 7814  12.730   9.544   1.008
 1992SOL    HW1 7815  12.807   9.492   0.985
 1992SOL    HW2 7816  12.691   9.568   0.924
 1993SOL     OW 7817   9.957   1.388   9.983
 1993SOL    HW1 7818   9.949   1.336  10.063
 1993SOL    HW2 7819  10.019   1.340   9.929
 1994SOL     OW 7820   1.448   5.446  14.161
 1994SOL    HW1 7821   1.383   5.485  14.104
 1994SOL    HW2 7822   1.403   5.434  14.245
 1995SOL     OW 7823  12.005   9.929   7.794
 1995SOL    HW1 7824  12.073   9.897   7.853
 1995SOL    HW2 7825  11.994   9.859   7.730
 1996SOL     OW 7826  10.946   8.812  10.426
 1996SOL    HW1 7827  10.901   8.893  10.449
 1996SOL    HW2 7828  10.962   8.768  10.509
 1997SOL     OW 7829  10.854   5.934  10.446
 1997SOL    HW1 7830  10.878   5.885  10.525
 1997SOL    HW2 7831  10.777   5.888  10.412
 1998SOL     OW 7832  13.414  13.376   6.012
 1998SOL    HW1 7833  13.351  13.306   5.997
 1998SOL    HW2 7834  13.455  13.392   5.927
 1999SOL     OW 7835   8.703   8.265   5.542
 1999SOL    HW1 7836   8.608   8.276   5.543
 1999SOL    HW2 7837   8.738   8.354   5.543
 2000SOL     OW 7838   0.395  13.122   1.973
 2000SOL    HW1 7839   0.395  13.065   2.050
 2000SOL    HW2 7840   0.485  13.154   1.967
 2001SOL     OW 7841  13.387   9.006   1.627
 2001SOL    HW1 7842  13.292   8.995   1.620
 2001SOL    HW2 7843  13.404   9.095   1.595
 2002SOL     OW 7844   0.618   4.768   8.336
 2002SOL    HW1 7845   0.693   4.752   8.280
 2002SOL    HW2 7846   0.580   4.850   8.303
 2003SOL     OW 7847   9.570   8.130  12.822
 2003SOL    HW1 7848   9.484   8.113  12.785
 2003SOL    HW2 7849   9.580   8.065  12.892
 2004SOL     OW 7850   3.798  10.951   6.047
 2004SOL    HW1 7851   3.847  11.001   6.113
 2004SOL    HW2 7852   3.803  10.860   6.078
 2005SOL     OW 7853   0.981  11.205  14.308
 2005SOL    HW1 7854   0.968  11.237  14.397
 2005SOL    HW2 7855   1.075  11.185  14.304
 2006SOL     OW 7856   4.702   0.147  11.605
 2006SOL    HW1 7857   4.679   0.201  11.529
 2006SOL    HW2 7858   4.635   0.079  11.609
 2007SOL     OW 7859   4.684   9.118   5.263
 2007SOL    HW1 7860   4.675   9.067   5.344
 2007SOL    HW2 7861   4.774   9.152   5.266
 2008SOL     OW 7862   0.337   4.382   8.373
 2008SOL    HW1 7863   0.350   4.393   8.467
 2008SOL    HW2 7864   0.425   4.372   8.337
 2009SOL     OW 7865  11.576   8.213   3.467
 2009SOL    HW1 7866  11.498   8.157   3.474
 2009SOL    HW2 7867  11.646   8.161   3.505
 2010SOL     OW 7868  11.205  12.942  14.062
 2010SOL    HW1 7869  11.288  12.977  14.096
 2010SOL    HW2 7870  11.218  12.938  13.967
 2011SOL     OW 7871  10.948   2.266   8.381
 2011SOL    HW1 7872  10.945   2.315   8.463
 2011SOL    HW2 7873  10.857   2.247   8.361
 2012SOL     OW 7874  12.020   2.580  13.724
 2012SOL    HW1 7875  11.994   2.602  13.635
 2012SOL    HW2 7876  12.043   2.663  13.764
 2013SOL     OW 7877   1.766   4.187   2.038
 2013SOL    HW1 7878   1.793   4.185   2.129
 2013SOL    HW2 7879   1.688   4.131   2.034
 2014SOL     OW 7880   7.704   7.140  11.560
 2014SOL    HW1 7881   7.797   7.162  11.564
 2014SOL    HW2 7882   7.677   7.165  11.471
 2015SOL     OW 7883   1.072   7.287   6.693
 2015SOL    HW1 7884   1.143   7.249   6.746
 2015SOL    HW2 7885   1.092   7.261   6.603
 2016SOL     OW 7886   9.549  10.065   1.221
 2016SOL    HW1 7887   9.634  10.020   1.228
 2016SOL    HW2 7888   9.561  10.146   1.271
 2017SOL     OW 7889  11.618  12.679   3.914
 2017SOL    HW1 7890  11.630  12.589   3.944
 2017SOL    HW2 7891  11.542  12.710   3.962
 2018SOL     OW 7892   2.969  14.609  11.452
 2018SOL    HW1 7893   2.995  14.632  11.541
 2018SOL    HW2 7894   2.880  14.642  11.444
 2019SOL     OW 7895  11.503   8.962   5.576
 2019SOL    HW1 7896  11.536   8.882   5.617
 2019SOL    HW2 7897  11.494   9.024   5.648
 2020SOL     OW 7898   6.840   6.650   9.156
 2020SOL    HW1 7899   6.799   6.725   9.197
 2020SOL    HW2 7900   6.770   6.587   9.144
 2021SOL     OW 7901  10.321   1.346   9.093
 2021SOL    HW1 7902  10.313   1.250   9.093
 2021SOL    HW2 7903  10.266   1.375   9.166
 2022SOL     OW 7904   1.083   0.809   0.690
 2022SOL    HW1 7905   1.127   0.754   0.626
 2022SOL    HW2 7906   1.132   0.891   0.691
 2023SOL     OW 7907  13.147  12.981   4.205
 2023SOL    HW1 7908  13.088  13.022   4.269
 2023SOL    HW2 7909  13.186  13.054   4.158
 2024SOL     OW 7910   6.266   7.697  13.534
 2024SOL    HW1 7911   6.281   7.692  13.440
 2024SOL    HW2 7912   6.203   7.768  13.545
 2025SOL     OW 7913  12.351   1.919   9.296
 2025SOL    HW1 7914  12.384   1.875   9.374
 2025SOL    HW2 7915  12.286   1.859   9.260
 2026SOL     OW 7916   2.722   0.139   6.394
 2026SOL    HW1 7917   2.754   0.106   6.310
 2026SOL    HW2 7918   2.794   0.125   6.455
 2027SOL     OW 7919  12.611  10.262   9.223
 2027SOL    HW1 7920  12.527  10.216   9.218
 2027SOL    HW2 7921  12.664  10.223   9.154
 2028SOL     OW 7922   3.278  10.517   1.411
 2028SOL    HW1 7923   3.281  10.503   1.316
 2028SOL    HW2 7924   3.370  10.519   1.438
 2029SOL     OW 7925  14.150  11.144   1.447
 2029SOL    HW1 7926  14.124  11.052   1.457
 2029SOL    HW2 7927  14.234  11.141   1.401
 2030SOL     OW 7928   4.525  14.346   3.702
 2030SOL    HW1 7929   4.541  14.439   3.687
 2030SOL    HW2 7930   4.483  14.343   3.788
 2031SOL     OW 7931  14.033   8.813   2.630
 2031SOL    HW1 7932  14.038   8.754   2.554
 2031SOL    HW2 7933  14.124   8.841   2.644
 2032SOL     OW 7934  11.367   6.431   0.213
 2032SOL    HW1 7935  11.300   6.413   0.147
 2032SOL    HW2 7936  11.443   6.379   0.185
 2033SOL     OW 7937   6.265   6.709  13.826
 2033SOL    HW1 7938   6.333   6.722  13.892
 2033SOL    HW2 7939   6.188   6.682  13.877
 2034SOL     OW 7940   4.701   5.026   8.393
 2034SOL    HW1 7941   4.660   4.962   8.336
 2034SOL    HW2 7942   4.795   5.011   8.384
 2035SOL     OW 7943   5.323   2.550   2.679
 2035SOL    HW1 7944   5.405   2.530   2.635
 2035SOL    HW2 7945   5.345   2.616   2.744
 2036SOL     OW 7946   9.892  10.541   1.496
 2036SOL    HW1 7947   9.845  10.580   1.423
 2036SOL    HW2 7948   9.957  10.607   1.521
 2037SOL     OW 7949   3.377  12.229   4.314
 2037SOL    HW1 7950   3.299  12.175   4.302
 2037SOL    HW2 7951   3.352  12.315   4.280
 2038SOL     OW 7952  11.278   9.395  13.584
 2038SOL    HW1 7953  11.356   9.440  13.553
 2038SOL    HW2 7954  11.286   9.397  13.680
 2039SOL     OW 7955   8.014   0.029   5.228
 2039SOL    HW1 7956   8.022  14.819   5.268
 2039SOL    HW2 7957   8.099   0.045   5.187
 2040SOL     OW 7958   2.620   5.917  13.260
 2040SOL    HW1 7959   2.573   5.926  13.177
 2040SOL    HW2 7960   2.557   5.874  13.319
 2041SOL     OW 7961  11.361   4.947  14.370
 2041SOL    HW1 7962  11.365   5.026  14.316
 2041SOL    HW2 7963  11.415   4.883  14.325
 2042SOL     OW 7964   7.270   8.308   6.361
 2042SOL    HW1 7965   7.202   8.245   6.386
 2042SOL    HW2 7966   7.231   8.394   6.377
 2043SOL     OW 7967   9.189   0.480   4.714
 2043SOL    HW1 7968   9.126   0.422   4.672
 2043SOL    HW2 7969   9.137   0.557   4.739
 2044SOL     OW 7970  14.372   5.255  10.141
 2044SOL    HW1 7971  14.382   5.214  10.055
 2044SOL    HW2 7972  14.318   5.332  10.125
 2045SOL     OW 7973   3.629   9.651  13.939
 2045SOL    HW1 7974   3.565   9.681  13.875
 2045SOL    HW2 7975   3.681   9.729  13.960
 2046SOL     OW 7976   5.944   2.970   8.485
 2046SOL    HW1 7977   5.979   2.883   8.465
 2046SOL    HW2 7978   5.870   2.979   8.425
 2047SOL     OW 7979   5.346   9.054  12.446
 2047SOL    HW1 7980   5.351   8.959  12.452
 2047SOL    HW2 7981   5.269   9.077  12.498
 2048SOL     OW 7982   2.588  13.208   8.218
 2048SOL    HW1 7983   2.567  13.217   8.125
 2048SOL    HW2 7984   2.679  13.179   8.219
 2049SOL     OW 7985   3.735   3.388   1.021
 2049SOL    HW1 7986   3.744   3.301   0.981
 2049SOL    HW2 7987   3.666   3.377   1.086
 2050SOL     OW 7988  11.306   0.632   8.759
 2050SOL    HW1 7989  11.307   0.666   8.670
 2050SOL    HW2 7990  11.242   0.561   8.757
 2051SOL     OW 7991  11.572   2.188   0.799
 2051SOL    HW1 7992  11.608   2.107   0.761
 2051SOL    HW2 7993  11.484   2.163   0.828
 2052SOL     OW 7994   7.216   8.488   5.796
 2052SOL    HW1 7995   7.191   8.471   5.887
 2052SOL    HW2 7996   7.291   8.431   5.781
 2053SOL     OW 7997   1.353   4.475   1.194
 2053SOL    HW1 7998   1.378   4.392   1.235
 2053SOL    HW2 7999   1.301   4.449   1.118
 2054SOL     OW 8000   4.130   4.302   4.693
 2054SOL    HW1 8001   4.124   4.394   4.720
 2054SOL    HW2 8002   4.215   4.295   4.650
 2055SOL     OW 8003   4.757  11.116   6.526
 2055SOL    HW1 8004   4.784  11.191   6.579
 2055SOL    HW2 8005   4.800  11.130   6.442
 2056SOL     OW 8006   2.956   2.756   9.950
 2056SOL    HW1 8007   2.958   2.683  10.013
 2056SOL    HW2 8008   3.046   2.763   9.919
 2057SOL     OW 8009  13.569   6.734  12.836
 2057SOL    HW1 8010  13.498   6.677  12.867
 2057SOL    HW2 8011  13.637   6.673  12.807
 2058SOL     OW 8012   5.644  13.489  11.340
 2058SOL    HW1 8013   5.661  13.519  11.250
 2058SOL    HW2 8014   5.642  13.393  11.333
 2059SOL     OW 8015  11.713   2.485   7.731
 2059SOL    HW1 8016  11.617   2.482   7.735
 2059SOL    HW2 8017  11.732   2.511   7.641
 2060SOL     OW 8018   5.096  13.801   2.034
 2060SOL    HW1 8019   5.167  13.778   2.095
 2060SOL    HW2 8020   5.121  13.760   1.952
 2061SOL     OW 8021   9.528   7.037   6.995
 2061SOL    HW1 8022   9.439   7.015   7.021
 2061SOL    HW2 8023   9.517   7.097   6.922
 2062SOL     OW 8024  11.303   7.201  13.153
 2062SOL    HW1 8025  11.354   7.282  13.160
 2062SOL    HW2 8026  11.360   7.133  13.190
 2063SOL     OW 8027   5.585   3.302   5.026
 2063SOL    HW1 8028   5.636   3.228   4.993
 2063SOL    HW2 8029   5.496   3.287   4.994
 2064SOL     OW 8030   4.900   5.254   8.577
 2064SOL    HW1 8031   4.915   5.163   8.601
 2064SOL    HW2 8032   4.977   5.278   8.525
 2065SOL     OW 8033   3.508   5.888   0.475
 2065SOL    HW1 8034   3.597   5.857   0.462
 2065SOL    HW2 8035   3.458   5.810   0.499
 2066SOL     OW 8036   4.952   2.671   0.271
 2066SOL    HW1 8037   4.944   2.764   0.248
 2066SOL    HW2 8038   4.979   2.628   0.190
 2067SOL     OW 8039   0.504   6.552   7.619
 2067SOL    HW1 8040   0.454   6.554   7.537
 2067SOL    HW2 8041   0.594   6.570   7.593
 2068SOL     OW 8042   2.157   5.626   6.078
 2068SOL    HW1 8043   2.235   5.671   6.047
 2068SOL    HW2 8044   2.136   5.564   6.009
 2069SOL     OW 8045   7.633   8.906   0.978
 2069SOL    HW1 8046   7.646   8.998   1.000
 2069SOL    HW2 8047   7.712   8.862   1.010
 2070SOL     OW 8048  12.368  13.127  12.247
 2070SOL    HW1 8049  12.313  13.072  12.303
 2070SOL    HW2 8050  12.335  13.112  12.158
 2071SOL     OW 8051  11.841   0.058  14.549
 2071SOL    HW1 8052  11.860   0.078  14.457
 2071SOL    HW2 8053  11.902  14.865  14.572
 2072SOL     OW 8054   1.327   0.862   6.805
 2072SOL    HW1 8055   1.323   0.921   6.730
 2072SOL    HW2 8056   1.421   0.848   6.819
 2073SOL     OW 8057  13.938   4.530  10.973
 2073SOL    HW1 8058  13.985   4.540  11.056
 2073SOL    HW2 8059  13.860   4.480  10.996
 2074SOL     OW 8060  10.980   0.058   8.853
 2074SOL    HW1 8061  10.985  14.852   8.805
 2074SOL    HW2 8062  11.069   0.091   8.853
 2075SOL     OW 8063  11.881  12.931   7.948
 2075SOL    HW1 8064  11.857  12.838   7.960
 2075SOL    HW2 8065  11.975  12.929   7.929
 2076SOL     OW 8066   3.874   4.002   6.818
 2076SOL    HW1 8067   3.806   3.938   6.839
 2076SOL    HW2 8068   3.951   3.949   6.798
 2077SOL     OW 8069   6.107  12.176   1.436
 2077SOL    HW1 8070   6.128  12.268   1.450
 2077SOL    HW2 8071   6.173  12.145   1.375
 2078SOL     OW 8072  13.579   3.307  10.634
 2078SOL    HW1 8073  13.537   3.234  10.589
 2078SOL    HW2 8074  13.667   3.275  10.656
 2079SOL     OW 8075   6.835   0.806   4.597
 2079SOL    HW1 8076   6.918   0.759   4.599
 2079SOL    HW2 8077   6.787   0.769   4.523
 2080SOL     OW 8078   4.344   1.820   3.575
 2080SOL    HW1 8079   4.280   1.831   3.504
 2080SOL    HW2 8080   4.373   1.909   3.595
 2081SOL     OW 8081   0.161   1.173   1.261
 2081SOL    HW1 8082   0.119   1.086   1.261
 2081SOL    HW2 8083   0.095   1.231   1.223
 2082SOL     OW 8084   1.982   5.709   9.182
 2082SOL    HW1 8085   2.047   5.708   9.252
 2082SOL    HW2 8086   1.970   5.802   9.162
 2083SOL     OW 8087   0.494  13.887   0.423
 2083SOL    HW1 8088   0.539  13.848   0.498
 2083SOL    HW2 8089   0.460  13.970   0.456
 2084SOL     OW 8090   6.738   3.294   5.418
 2084SOL    HW1 8091   6.716   3.373   5.468
 2084SOL    HW2 8092   6.719   3.222   5.478
 2085SOL     OW 8093   6.735   3.664   5.516
 2085SOL    HW1 8094   6.725   3.744   5.567
 2085SOL    HW2 8095   6.709   3.594   5.575
 2086SOL     OW 8096   0.184  11.278   8.940
 2086SOL    HW1 8097   0.197  11.372   8.926
 2086SOL    HW2 8098   0.095  11.262   8.909
 2087SOL     OW 8099  10.314   5.444   5.384
 2087SOL    HW1 8100  10.360   5.486   5.457
 2087SOL    HW2 8101  10.244   5.393   5.427
 2088SOL     OW 8102  10.021   8.784   2.949
 2088SOL    HW1 8103  10.007   8.692   2.930
 2088SOL    HW2 8104   9.968   8.801   3.027
 2089SOL     OW 8105  10.165  12.017   0.196
 2089SOL    HW1 8106  10.092  11.996   0.137
 2089SOL    HW2 8107  10.237  12.040   0.137
 2090SOL     OW 8108   8.440   6.547  10.431
 2090SOL    HW1 8109   8.357   6.535  10.477
 2090SOL    HW2 8110   8.482   6.461  10.435
 2091SOL     OW 8111   9.904  14.700   7.440
 2091SOL    HW1 8112   9.937  14.790   7.440
 2091SOL    HW2 8113   9.983  14.646   7.443
 2092SOL     OW 8114   4.048   7.245   0.284
 2092SOL    HW1 8115   4.082   7.333   0.266
 2092SOL    HW2 8116   3.962   7.245   0.242
 2093SOL     OW 8117  13.177  11.600   1.940
 2093SOL    HW1 8118  13.125  11.593   1.859
 2093SOL    HW2 8119  13.261  11.561   1.917
 2094SOL     OW 8120  11.303   5.548  11.242
 2094SOL    HW1 8121  11.390   5.519  11.213
 2094SOL    HW2 8122  11.265   5.473  11.286
 2095SOL     OW 8123   2.748  13.435   0.550
 2095SOL    HW1 8124   2.777  13.444   0.460
 2095SOL    HW2 8125   2.828  13.424   0.601
 2096SOL     OW 8126   7.480   0.884  14.847
 2096SOL    HW1 8127   7.467   0.794  14.816
 2096SOL    HW2 8128   7.396   0.927  14.831
 2097SOL     OW 8129   9.708   1.442   6.392
 2097SOL    HW1 8130   9.791   1.434   6.438
 2097SOL    HW2 8131   9.728   1.492   6.314
 2098SOL     OW 8132   6.613   4.023  14.527
 2098SOL    HW1 8133   6.608   4.089  14.457
 2098SOL    HW2 8134   6.533   3.972  14.518
 2099SOL     OW 8135   5.592   8.050   0.859
 2099SOL    HW1 8136   5.600   7.981   0.924
 2099SOL    HW2 8137   5.504   8.085   0.871
 2100SOL     OW 8138   5.858  12.966  12.639
 2100SOL    HW1 8139   5.896  12.880  12.626
 2100SOL    HW2 8140   5.777  12.965  12.589
 2101SOL     OW 8141   6.025  14.581  14.686
 2101SOL    HW1 8142   5.992  14.509  14.633
 2101SOL    HW2 8143   5.946  14.623  14.721
 2102SOL     OW 8144   0.309  14.111   5.048
 2102SOL    HW1 8145   0.258  14.047   5.097
 2102SOL    HW2 8146   0.288  14.195   5.089
 2103SOL     OW 8147   8.068  10.728   8.595
 2103SOL    HW1 8148   8.157  10.694   8.584
 2103SOL    HW2 8149   8.019  10.655   8.633
 2104SOL     OW 8150  11.496   3.410  12.003
 2104SOL    HW1 8151  11.415   3.384  12.048
 2104SOL    HW2 8152  11.566   3.369  12.054
 2105SOL     OW 8153   5.684  11.424  13.132
 2105SOL    HW1 8154   5.693  11.349  13.074
 2105SOL    HW2 8155   5.774  11.446  13.157
 2106SOL     OW 8156   9.559   0.194   0.139
 2106SOL    HW1 8157   9.610   0.128   0.187
 2106SOL    HW2 8158   9.624   0.238   0.084
 2107SOL     OW 8159  10.132   3.008  13.155
 2107SOL    HW1 8160  10.118   3.100  13.131
 2107SOL    HW2 8161  10.225   3.003  13.176
 2108SOL     OW 8162   8.370   0.322  11.700
 2108SOL    HW1 8163   8.446   0.272  11.671
 2108SOL    HW2 8164   8.397   0.414  11.692
 2109SOL     OW 8165   3.324   9.482   8.231
 2109SOL    HW1 8166   3.320   9.557   8.172
 2109SOL    HW2 8167   3.288   9.409   8.180
 2110SOL     OW 8168  10.438   2.650  11.218
 2110SOL    HW1 8169  10.362   2.705  11.241
 2110SOL    HW2 8170  10.487   2.702  11.155
 2111SOL     OW 8171   7.029   2.793   4.961
 2111SOL    HW1 8172   6.966   2.794   5.033
 2111SOL    HW2 8173   7.106   2.751   4.998
 2112SOL     OW 8174   6.909  14.169   7.052
 2112SOL    HW1 8175   6.833  14.226   7.050
 2112SOL    HW2 8176   6.885  14.098   7.111
 2113SOL     OW 8177   0.507   1.732   9.241
 2113SOL    HW1 8178   0.560   1.786   9.298
 2113SOL    HW2 8179   0.418   1.767   9.251
 2114SOL     OW 8180   7.017  14.273   8.812
 2114SOL    HW1 8181   6.938  14.249   8.860
 2114SOL    HW2 8182   7.065  14.331   8.872
 2115SOL     OW 8183  10.368   0.707   0.715
 2115SOL    HW1 8184  10.460   0.696   0.693
 2115SOL    HW2 8185  10.344   0.791   0.676
 2116SOL     OW 8186  10.738   7.335   3.786
 2116SOL    HW1 8187  10.649   7.364   3.768
 2116SOL    HW2 8188  10.789   7.365   3.710
 2117SOL     OW 8189   5.453   9.408   1.154
 2117SOL    HW1 8190   5.371   9.362   1.139
 2117SOL    HW2 8191   5.435   9.498   1.124
 2118SOL     OW 8192   6.767   6.675   0.736
 2118SOL    HW1 8193   6.765   6.754   0.790
 2118SOL    HW2 8194   6.786   6.605   0.797
 2119SOL     OW 8195   7.311  12.026   3.349
 2119SOL    HW1 8196   7.342  12.092   3.411
 2119SOL    HW2 8197   7.294  11.949   3.403
 2120SOL     OW 8198   4.104  13.176   0.417
 2120SOL    HW1 8199   4.173  13.197   0.480
 2120SOL    HW2 8200   4.034  13.237   0.437
 2121SOL     OW 8201  11.413   7.542   6.477
 2121SOL    HW1 8202  11.432   7.609   6.411
 2121SOL    HW2 8203  11.336   7.497   6.444
 2122SOL     OW 8204   2.166   3.347   6.512
 2122SOL    HW1 8205   2.259   3.366   6.530
 2122SOL    HW2 8206   2.159   3.252   6.521
 2123SOL     OW 8207  11.925  14.040   7.497
 2123SOL    HW1 8208  11.995  14.100   7.523
 2123SOL    HW2 8209  11.941  14.024   7.404
 2124SOL     OW 8210   9.182  13.377  11.352
 2124SOL    HW1 8211   9.133  13.304  11.389
 2124SOL    HW2 8212   9.132  13.404  11.276
 2125SOL     OW 8213   9.112   8.984   9.439
 2125SOL    HW1 8214   9.031   8.963   9.393
 2125SOL    HW2 8215   9.182   8.965   9.376
 2126SOL     OW 8216  12.768  12.759  14.588
 2126SOL    HW1 8217  12.727  12.845  14.584
 2126SOL    HW2 8218  12.714  12.704  14.532
 2127SOL     OW 8219   7.669  11.363  13.595
 2127SOL    HW1 8220   7.738  11.313  13.551
 2127SOL    HW2 8221   7.597  11.302  13.605
 2128SOL     OW 8222   4.030   0.660  14.511
 2128SOL    HW1 8223   3.996   0.571  14.518
 2128SOL    HW2 8224   4.021   0.697  14.599
 2129SOL     OW 8225   2.099   8.887  12.833
 2129SOL    HW1 8226   2.051   8.880  12.916
 2129SOL    HW2 8227   2.144   8.803  12.824
 2130SOL     OW 8228   3.343   0.683   3.156
 2130SOL    HW1 8229   3.377   0.607   3.108
 2130SOL    HW2 8230   3.378   0.673   3.244
 2131SOL     OW 8231   8.242   4.809   6.031
 2131SOL    HW1 8232   8.322   4.810   6.082
 2131SOL    HW2 8233   8.178   4.855   6.085
 2132SOL     OW 8234   1.892  10.720   2.410
 2132SOL    HW1 8235   1.857  10.788   2.352
 2132SOL    HW2 8236   1.961  10.678   2.359
 2133SOL     OW 8237   7.204  11.915   6.762
 2133SOL    HW1 8238   7.214  11.928   6.856
 2133SOL    HW2 8239   7.136  11.847   6.754
 2134SOL     OW 8240   2.267  11.499   5.783
 2134SOL    HW1 8241   2.243  11.438   5.713
 2134SOL    HW2 8242   2.360  11.485   5.796
 2135SOL     OW 8243   9.479   1.922   4.966
 2135SOL    HW1 8244   9.433   1.934   4.884
 2135SOL    HW2 8245   9.570   1.907   4.940
 2136SOL     OW 8246  12.116   4.457   8.727
 2136SOL    HW1 8247  12.206   4.456   8.759
 2136SOL    HW2 8248  12.123   4.441   8.633
 2137SOL     OW 8249  12.910   1.231   8.672
 2137SOL    HW1 8250  12.986   1.265   8.720
 2137SOL    HW2 8251  12.897   1.143   8.706
 2138SOL     OW 8252   8.572   5.461  14.228
 2138SOL    HW1 8253   8.508   5.391  14.217
 2138SOL    HW2 8254   8.641   5.424  14.283
 2139SOL     OW 8255  14.148   5.779   1.512
 2139SOL    HW1 8256  14.208   5.849   1.539
 2139SOL    HW2 8257  14.134   5.793   1.419
 2140SOL     OW 8258   9.527   2.443   8.423
 2140SOL    HW1 8259   9.510   2.368   8.479
 2140SOL    HW2 8260   9.492   2.418   8.338
 2141SOL     OW 8261   7.598   2.955  11.891
 2141SOL    HW1 8262   7.693   2.961  11.890
 2141SOL    HW2 8263   7.580   2.874  11.939
 2142SOL     OW 8264   4.808   1.039   1.875
 2142SOL    HW1 8265   4.821   1.130   1.849
 2142SOL    HW2 8266   4.817   1.040   1.970
 2143SOL     OW 8267  12.570   3.825  12.848
 2143SOL    HW1 8268  12.645   3.803  12.903
 2143SOL    HW2 8269  12.605   3.828  12.759
 2144SOL     OW 8270   9.191   6.818  14.736
 2144SOL    HW1 8271   9.145   6.884  14.684
 2144SOL    HW2 8272   9.223   6.866  14.812
 2145SOL     OW 8273  10.351   4.401   4.102
 2145SOL    HW1 8274  10.318   4.332   4.160
 2145SOL    HW2 8275  10.299   4.479   4.124
 2146SOL     OW 8276   8.702  12.103  12.890
 2146SOL    HW1 8277   8.697  12.066  12.978
 2146SOL    HW2 8278   8.620  12.080  12.848
 2147SOL     OW 8279   4.445   4.470   6.625
 2147SOL    HW1 8280   4.540   4.461   6.638
 2147SOL    HW2 8281   4.426   4.413   6.551
 2148SOL     OW 8282   2.033   4.670   4.591
 2148SOL    HW1 8283   2.058   4.698   4.679
 2148SOL    HW2 8284   1.950   4.714   4.574
 2149SOL     OW 8285   6.245   1.618   4.546
 2149SOL    HW1 8286   6.280   1.681   4.483
 2149SOL    HW2 8287   6.152   1.640   4.551
 2150SOL     OW 8288  10.844   6.988  13.854
 2150SOL    HW1 8289  10.782   6.993  13.782
 2150SOL    HW2 8290  10.918   7.041  13.825
 2151SOL     OW 8291   0.167  11.541  11.965
 2151SOL    HW1 8292   0.141  11.451  11.946
 2151SOL    HW2 8293   0.084  11.589  11.971
 2152SOL     OW 8294   4.129   7.618  13.198
 2152SOL    HW1 8295   4.054   7.671  13.170
 2152SOL    HW2 8296   4.147   7.561  13.122
 2153SOL     OW 8297  12.413   6.877  12.994
 2153SOL    HW1 8298  12.395   6.926  12.914
 2153SOL    HW2 8299  12.501   6.842  12.981
 2154SOL     OW 8300   4.357  10.458   8.201
 2154SOL    HW1 8301   4.366  10.377   8.252
 2154SOL    HW2 8302   4.411  10.443   8.123
 2155SOL     OW 8303  14.314  11.789   5.367
 2155SOL    HW1 8304  14.323  11.851   5.439
 2155SOL    HW2 8305  14.342  11.705   5.405
 2156SOL     OW 8306   4.663  14.875  14.642
 2156SOL    HW1 8307   4.581   0.040  14.669
 2156SOL    HW2 8308   4.708   0.066  14.590
 2157SOL     OW 8309   5.837   1.073   0.772
 2157SOL    HW1 8310   5.837   0.978   0.763
 2157SOL    HW2 8311   5.753   1.100   0.734
 2158SOL     OW 8312   9.839  11.955   7.358
 2158SOL    HW1 8313   9.914  11.976   7.413
 2158SOL    HW2 8314   9.859  11.996   7.274
 2159SOL     OW 8315   2.369   2.141   7.722
 2159SOL    HW1 8316   2.308   2.146   7.796
 2159SOL    HW2 8317   2.453   2.169   7.758
 2160SOL     OW 8318   6.224   3.686  10.490
 2160SOL    HW1 8319   6.210   3.693  10.584
 2160SOL    HW2 8320   6.280   3.761  10.468
 2161SOL     OW 8321   3.058   8.275  12.158
 2161SOL    HW1 8322   3.122   8.344  12.146
 2161SOL    HW2 8323   3.048   8.267  12.253
 2162SOL     OW 8324   4.346  13.890   4.881
 2162SOL    HW1 8325   4.435  13.862   4.906
 2162SOL    HW2 8326   4.288  13.833   4.932
 2163SOL     OW 8327   4.049   7.495   3.786
 2163SOL    HW1 8328   4.079   7.556   3.720
 2163SOL    HW2 8329   3.953   7.501   3.784
 2164SOL     OW 8330   4.158  12.434   2.158
 2164SOL    HW1 8331   4.219  12.383   2.105
 2164SOL    HW2 8332   4.071  12.401   2.134
 2165SOL     OW 8333  10.105   9.369  12.217
 2165SOL    HW1 8334  10.192   9.409  12.224
 2165SOL    HW2 8335  10.050   9.438  12.180
 2166SOL     OW 8336   0.601   8.452  12.536
 2166SOL    HW1 8337   0.605   8.357  12.545
 2166SOL    HW2 8338   0.508   8.471  12.525
 2167SOL     OW 8339   3.871  12.537   0.744
 2167SOL    HW1 8340   3.927  12.463   0.723
 2167SOL    HW2 8341   3.930  12.601   0.784
 2168SOL     OW 8342  13.522   1.231   9.464
 2168SOL    HW1 8343  13.542   1.168   9.395
 2168SOL    HW2 8344  13.601   1.232   9.519
 2169SOL     OW 8345  14.837  14.021  13.669
 2169SOL    HW1 8346  14.794  14.019  13.583
 2169SOL    HW2 8347  14.867  14.112  13.678
 2170SOL     OW 8348  10.116   4.276  12.111
 2170SOL    HW1 8349  10.113   4.284  12.016
 2170SOL    HW2 8350  10.084   4.361  12.143
 2171SOL     OW 8351   2.556   6.249   4.656
 2171SOL    HW1 8352   2.589   6.242   4.566
 2171SOL    HW2 8353   2.630   6.222   4.711
 2172SOL     OW 8354  12.111   4.024  10.809
 2172SOL    HW1 8355  12.020   4.012  10.785
 2172SOL    HW2 8356  12.112   4.104  10.861
 2173SOL     OW 8357   9.985  11.805   5.138
 2173SOL    HW1 8358   9.899  11.835   5.108
 2173SOL    HW2 8359  10.047  11.846   5.078
 2174SOL     OW 8360   5.160  10.982   1.725
 2174SOL    HW1 8361   5.216  11.058   1.713
 2174SOL    HW2 8362   5.095  11.010   1.790
 2175SOL     OW 8363   5.246   6.411  11.673
 2175SOL    HW1 8364   5.195   6.418  11.754
 2175SOL    HW2 8365   5.207   6.475  11.614
 2176SOL     OW 8366   9.501   8.224   2.050
 2176SOL    HW1 8367   9.491   8.201   1.958
 2176SOL    HW2 8368   9.496   8.319   2.052
 2177SOL     OW 8369  13.909   8.114   1.929
 2177SOL    HW1 8370  14.003   8.105   1.946
 2177SOL    HW2 8371  13.904   8.133   1.835
 2178SOL     OW 8372  14.506   1.750  11.428
 2178SOL    HW1 8373  14.418   1.786  11.438
 2178SOL    HW2 8374  14.562   1.808  11.480
 2179SOL     OW 8375  11.381   3.263   2.472
 2179SOL    HW1 8376  11.370   3.206   2.547
 2179SOL    HW2 8377  11.395   3.350   2.509
 2180SOL     OW 8378   8.458   5.047   6.055
 2180SOL    HW1 8379   8.375   5.074   6.093
 2180SOL    HW2 8380   8.524   5.082   6.115
 2181SOL     OW 8381  13.083   5.007  12.115
 2181SOL    HW1 8382  13.120   5.042  12.034
 2181SOL    HW2 8383  13.038   5.081  12.155
 2182SOL     OW 8384  12.754   9.731   3.937
 2182SOL    HW1 8385  12.685   9.689   3.988
 2182SOL    HW2 8386  12.752   9.822   3.965
 2183SOL     OW 8387  14.607   1.270   9.918
 2183SOL    HW1 8388  14.540   1.339   9.921
 2183SOL    HW2 8389  14.642   1.267  10.007
 2184SOL     OW 8390   6.890   1.412   1.228
 2184SOL    HW1 8391   6.954   1.443   1.292
 2184SOL    HW2 8392   6.906   1.318   1.220
 2185SOL     OW 8393   5.360   1.696   7.750
 2185SOL    HW1 8394   5.302   1.771   7.763
 2185SOL    HW2 8395   5.447   1.735   7.741
 2186SOL     OW 8396   2.868  14.480   0.497
 2186SOL    HW1 8397   2.819  14.507   0.576
 2186SOL    HW2 8398   2.830  14.533   0.427
 2187SOL     OW 8399   5.349   9.536  12.190
 2187SOL    HW1 8400   5.418   9.491  12.140
 2187SOL    HW2 8401   5.269   9.521  12.140
 2188SOL     OW 8402   4.955   1.835   5.411
 2188SOL    HW1 8403   4.882   1.893   5.389
 2188SOL    HW2 8404   4.982   1.863   5.499
 2189SOL     OW 8405  11.926   0.840  11.847
 2189SOL    HW1 8406  11.902   0.933  11.838
 2189SOL    HW2 8407  11.960   0.816  11.761
 2190SOL     OW 8408   5.515   3.337  10.561
 2190SOL    HW1 8409   5.591   3.392  10.579
 2190SOL    HW2 8410   5.504   3.343  10.466
 2191SOL     OW 8411   7.610   1.130  13.652
 2191SOL    HW1 8412   7.534   1.128  13.593
 2191SOL    HW2 8413   7.576   1.166  13.734
 2192SOL     OW 8414   8.042  10.995   9.504
 2192SOL    HW1 8415   8.012  10.995   9.595
 2192SOL    HW2 8416   8.119  10.939   9.505
 2193SOL     OW 8417   2.970   2.933  10.767
 2193SOL    HW1 8418   2.955   2.958  10.676
 2193SOL    HW2 8419   2.894   2.968  10.814
 2194SOL     OW 8420   6.992  14.022   6.375
 2194SOL    HW1 8421   7.046  14.047   6.300
 2194SOL    HW2 8422   7.032  13.941   6.407
 2195SOL     OW 8423   8.335  13.105  14.266
 2195SOL    HW1 8424   8.245  13.091  14.294
 2195SOL    HW2 8425   8.327  13.155  14.184
 2196SOL     OW 8426   6.225   0.288   8.021
 2196SOL    HW1 8427   6.245   0.349   8.092
 2196SOL    HW2 8428   6.233   0.342   7.942
 2197SOL     OW 8429  12.750  13.272  14.827
 2197SOL    HW1 8430  12.841  13.273  14.799
 2197SOL    HW2 8431  12.711  13.347  14.782
 2198SOL     OW 8432   8.147   3.996   7.758
 2198SOL    HW1 8433   8.128   4.088   7.737
 2198SOL    HW2 8434   8.126   3.988   7.851
 2199SOL     OW 8435   8.160   9.273  13.782
 2199SOL    HW1 8436   8.182   9.199  13.839
 2199SOL    HW2 8437   8.242   9.293  13.737
 2200SOL     OW 8438   0.106   5.446   7.905
 2200SOL    HW1 8439   0.130   5.503   7.978
 2200SOL    HW2 8440   0.125   5.498   7.827
 2201SOL     OW 8441   3.051   5.503   7.205
 2201SOL    HW1 8442   3.035   5.436   7.140
 2201SOL    HW2 8443   3.144   5.524   7.195
 2202SOL     OW 8444   9.207  14.811   8.674
 2202SOL    HW1 8445   9.245  14.744   8.618
 2202SOL    HW2 8446   9.260  14.809   8.754
 2203SOL     OW 8447   4.568   5.550  12.970
 2203SOL    HW1 8448   4.620   5.595  13.038
 2203SOL    HW2 8449   4.616   5.567  12.889
 2204SOL     OW 8450   4.251   4.855   9.015
 2204SOL    HW1 8451   4.217   4.936   9.052
 2204SOL    HW2 8452   4.292   4.881   8.932
 2205SOL     OW 8453   7.903  10.035   8.832
 2205SOL    HW1 8454   7.817  10.034   8.790
 2205SOL    HW2 8455   7.908   9.952   8.878
 2206SOL     OW 8456   3.089  14.855   1.000
 2206SOL    HW1 8457   3.144  14.777   1.005
 2206SOL    HW2 8458   3.001  14.822   0.983
 2207SOL     OW 8459  10.560  10.374   1.534
 2207SOL    HW1 8460  10.558  10.310   1.606
 2207SOL    HW2 8461  10.532  10.324   1.457
 2208SOL     OW 8462   9.684   1.511   5.386
 2208SOL    HW1 8463   9.712   1.462   5.463
 2208SOL    HW2 8464   9.763   1.518   5.332
 2209SOL     OW 8465   2.374   8.259  14.234
 2209SOL    HW1 8466   2.435   8.330  14.217
 2209SOL    HW2 8467   2.423   8.197  14.288
 2210SOL     OW 8468   9.997   4.937   0.039
 2210SOL    HW1 8469   9.955   5.022   0.054
 2210SOL    HW2 8470  10.052   4.924   0.117
 2211SOL     OW 8471   7.808   7.275   0.094
 2211SOL    HW1 8472   7.841   7.211   0.157
 2211SOL    HW2 8473   7.713   7.261   0.094
 2212SOL     OW 8474   3.440  10.599   0.332
 2212SOL    HW1 8475   3.510  10.621   0.394
 2212SOL    HW2 8476   3.472  10.519   0.289
 2213SOL     OW 8477   5.575   7.139   5.737
 2213SOL    HW1 8478   5.666   7.125   5.763
 2213SOL    HW2 8479   5.537   7.193   5.806
 2214SOL     OW 8480   7.201  12.393  12.928
 2214SOL    HW1 8481   7.228  12.476  12.888
 2214SOL    HW2 8482   7.275  12.334  12.911
 2215SOL     OW 8483   9.008   5.175   6.885
 2215SOL    HW1 8484   9.078   5.218   6.836
 2215SOL    HW2 8485   8.929   5.222   6.859
 2216SOL     OW 8486   0.706   6.882  14.517
 2216SOL    HW1 8487   0.619   6.920  14.526
 2216SOL    HW2 8488   0.695   6.809  14.457
 2217SOL     OW 8489   5.305  10.545  10.105
 2217SOL    HW1 8490   5.344  10.630  10.127
 2217SOL    HW2 8491   5.373  10.499  10.056
 2218SOL     OW 8492   2.663   0.093   7.550
 2218SOL    HW1 8493   2.752   0.126   7.563
 2218SOL    HW2 8494   2.610   0.141   7.613
 2219SOL     OW 8495   0.529   1.314   5.945
 2219SOL    HW1 8496   0.555   1.222   5.945
 2219SOL    HW2 8497   0.478   1.325   6.025
 2220SOL     OW 8498  14.392   0.106   0.734
 2220SOL    HW1 8499  14.309   0.135   0.697
 2220SOL    HW2 8500  14.435   0.057   0.663
 2221SOL     OW 8501   0.950   8.457  11.913
 2221SOL    HW1 8502   0.924   8.460  11.821
 2221SOL    HW2 8503   0.873   8.423  11.959
 2222SOL     OW 8504  11.119   3.573   8.810
 2222SOL    HW1 8505  11.112   3.506   8.742
 2222SOL    HW2 8506  11.121   3.525   8.892
 2223SOL     OW 8507   5.332   9.626  12.755
 2223SOL    HW1 8508   5.268   9.560  12.782
 2223SOL    HW2 8509   5.301   9.656  12.670
 2224SOL     OW 8510  10.104  13.202  14.537
 2224SOL    HW1 8511  10.180  13.230  14.486
 2224SOL    HW2 8512  10.066  13.130  14.488
 2225SOL     OW 8513  10.319   2.174   5.036
 2225SOL    HW1 8514  10.399   2.221   5.059
 2225SOL    HW2 8515  10.314   2.103   5.100
 2226SOL     OW 8516   9.243   6.185  10.645
 2226SOL    HW1 8517   9.278   6.096  10.648
 2226SOL    HW2 8518   9.156   6.175  10.606
 2227SOL     OW 8519  13.881   1.057   0.081
 2227SOL    HW1 8520  13.968   1.020   0.080
 2227SOL    HW2 8521  13.880   1.118   0.007
 2228SOL     OW 8522   9.848   9.557   7.581
 2228SOL    HW1 8523   9.788   9.494   7.620
 2228SOL    HW2 8524   9.792   9.627   7.547
 2229SOL     OW 8525   1.027  10.234   5.574
 2229SOL    HW1 8526   1.014  10.148   5.534
 2229SOL    HW2 8527   0.940  10.261   5.602
 2230SOL     OW 8528  14.188   9.348  11.701
 2230SOL    HW1 8529  14.101   9.382  11.721
 2230SOL    HW2 8530  14.237   9.423  11.668
 2231SOL     OW 8531  12.310   4.726   9.173
 2231SOL    HW1 8532  12.388   4.699   9.124
 2231SOL    HW2 8533  12.312   4.822   9.171
 2232SOL     OW 8534  14.727  11.471   0.778
 2232SOL    HW1 8535  14.748  11.377   0.780
 2232SOL    HW2 8536  14.700  11.487   0.687
 2233SOL     OW 8537   0.847   1.446   4.094
 2233SOL    HW1 8538   0.846   1.357   4.130
 2233SOL    HW2 8539   0.936   1.457   4.059
 2234SOL     OW 8540  10.865  14.741   3.364
 2234SOL    HW1 8541  10.855  14.727   3.458
 2234SOL    HW2 8542  10.902  14.659   3.332
 2235SOL     OW 8543  12.544   6.305  11.368
 2235SOL    HW1 8544  12.530   6.330  11.277
 2235SOL    HW2 8545  12.521   6.382  11.419
 2236SOL     OW 8546   9.197  13.171   7.112
 2236SOL    HW1 8547   9.246  13.101   7.155
 2236SOL    HW2 8548   9.111  13.132   7.094
 2237SOL     OW 8549   7.812   0.648  14.540
 2237SOL    HW1 8550   7.877   0.708  14.502
 2237SOL    HW2 8551   7.793   0.586  14.469
 2238SOL     OW 8552  10.159   8.291   7.491
 2238SOL    HW1 8553  10.090   8.289   7.425
 2238SOL    HW2 8554  10.115   8.275   7.574
 2239SOL     OW 8555   6.129   2.536  14.746
 2239SOL    HW1 8556   6.184   2.460  14.766
 2239SOL    HW2 8557   6.121   2.534  14.651
 2240SOL     OW 8558   8.819   0.606  13.997
 2240SOL    HW1 8559   8.776   0.612  14.082
 2240SOL    HW2 8560   8.895   0.550  14.012
 2241SOL     OW 8561   9.818   6.078   5.516
 2241SOL    HW1 8562   9.888   6.014   5.511
 2241SOL    HW2 8563   9.847   6.142   5.581
 2242SOL     OW 8564   3.922  10.167  10.114
 2242SOL    HW1 8565   3.854  10.233  10.123
 2242SOL    HW2 8566   3.882  10.086  10.143
 2243SOL     OW 8567   7.034   6.369   4.731
 2243SOL    HW1 8568   6.994   6.431   4.669
 2243SOL    HW2 8569   7.100   6.324   4.679
 2244SOL     OW 8570   6.385  10.669   8.677
 2244SOL    HW1 8571   6.479  10.685   8.683
 2244SOL    HW2 8572   6.377  10.574   8.686
 2245SOL     OW 8573   2.920  13.659   6.475
 2245SOL    HW1 8574   2.997  13.717   6.476
 2245SOL    HW2 8575   2.930  13.608   6.394
 2246SOL     OW 8576   8.570   9.906   9.378
 2246SOL    HW1 8577   8.504   9.911   9.308
 2246SOL    HW2 8578   8.580   9.997   9.408
 2247SOL     OW 8579  12.505  11.567   8.064
 2247SOL    HW1 8580  12.421  11.522   8.058
 2247SOL    HW2 8581  12.500  11.638   8.000
 2248SOL     OW 8582  12.907  12.787   8.034
 2248SOL    HW1 8583  12.833  12.805   7.976
 2248SOL    HW2 8584  12.923  12.694   8.024
 2249SOL     OW 8585  12.535   4.163   9.125
 2249SOL    HW1 8586  12.443   4.182   9.143
 2249SOL    HW2 8587  12.537   4.067   9.115
 2250SOL     OW 8588   3.605   7.088  13.285
 2250SOL    HW1 8589   3.676   7.051  13.232
 2250SOL    HW2 8590   3.624   7.182  13.288
 2251SOL     OW 8591   6.173  14.727   8.103
 2251SOL    HW1 8592   6.125  14.803   8.136
 2251SOL    HW2 8593   6.256  14.729   8.150
 2252SOL     OW 8594  11.812   8.568   8.453
 2252SOL    HW1 8595  11.759   8.506   8.502
 2252SOL    HW2 8596  11.815   8.533   8.364
 2253SOL     OW 8597   4.778  13.098   3.686
 2253SOL    HW1 8598   4.702  13.052   3.649
 2253SOL    HW2 8599   4.741  13.158   3.750
 2254SOL     OW 8600   9.659   7.085  10.059
 2254SOL    HW1 8601   9.622   7.163  10.099
 2254SOL    HW2 8602   9.730   7.118  10.003
 2255SOL     OW 8603   7.385   5.836  11.204
 2255SOL    HW1 8604   7.352   5.922  11.177
 2255SOL    HW2 8605   7.330   5.812  11.279
 2256SOL     OW 8606  13.278   6.929  12.672
 2256SOL    HW1 8607  13.351   6.944  12.612
 2256SOL    HW2 8608  13.317   6.929  12.759
 2257SOL     OW 8609   3.863  10.536   1.219
 2257SOL    HW1 8610   3.907  10.532   1.304
 2257SOL    HW2 8611   3.901  10.613   1.176
 2258SOL     OW 8612   1.861  10.936   3.068
 2258SOL    HW1 8613   1.776  10.894   3.080
 2258SOL    HW2 8614   1.843  11.007   3.005
 2259SOL     OW 8615  13.576  11.849   0.412
 2259SOL    HW1 8616  13.584  11.753   0.412
 2259SOL    HW2 8617  13.666  11.881   0.425
 2260SOL     OW 8618  10.609   4.749  10.024
 2260SOL    HW1 8619  10.694   4.792  10.035
 2260SOL    HW2 8620  10.601   4.691  10.099
 2261SOL     OW 8621  12.996  11.402   6.474
 2261SOL    HW1 8622  13.000  11.399   6.570
 2261SOL    HW2 8623  12.993  11.495   6.453
 2262SOL     OW 8624   0.295   5.491   9.030
 2262SOL    HW1 8625   0.283   5.434   8.954
 2262SOL    HW2 8626   0.382   5.470   9.063
 2263SOL     OW 8627   2.839   1.302   4.801
 2263SOL    HW1 8628   2.788   1.284   4.880
 2263SOL    HW2 8629   2.828   1.225   4.746
 2264SOL     OW 8630   3.261   9.804  10.518
 2264SOL    HW1 8631   3.329   9.864  10.550
 2264SOL    HW2 8632   3.179   9.842  10.549
 2265SOL     OW 8633   3.485  12.600   1.360
 2265SOL    HW1 8634   3.471  12.530   1.296
 2265SOL    HW2 8635   3.416  12.585   1.426
 2266SOL     OW 8636   7.051  10.562  10.314
 2266SOL    HW1 8637   7.016  10.491  10.367
 2266SOL    HW2 8638   7.007  10.640  10.347
 2267SOL     OW 8639  10.514   3.900  10.641
 2267SOL    HW1 8640  10.569   3.840  10.592
 2267SOL    HW2 8641  10.426   3.887  10.607
 2268SOL     OW 8642  11.699   5.565   9.079
 2268SOL    HW1 8643  11.729   5.568   9.170
 2268SOL    HW2 8644  11.700   5.657   9.051
 2269SOL     OW 8645   5.696  13.997   3.711
 2269SOL    HW1 8646   5.748  14.064   3.666
 2269SOL    HW2 8647   5.724  13.914   3.671
 2270SOL     OW 8648  12.747   2.486  12.027
 2270SOL    HW1 8649  12.653   2.478  12.011
 2270SOL    HW2 8650  12.769   2.574  11.997
 2271SOL     OW 8651   1.507   6.801   1.379
 2271SOL    HW1 8652   1.527   6.712   1.350
 2271SOL    HW2 8653   1.499   6.851   1.299
 2272SOL     OW 8654  11.075   1.316   7.539
 2272SOL    HW1 8655  10.993   1.337   7.496
 2272SOL    HW2 8656  11.053   1.244   7.599
 2273SOL     OW 8657  14.834   1.229   6.003
 2273SOL    HW1 8658  14.762   1.204   5.945
 2273SOL    HW2 8659  14.806   1.311   6.043
 2274SOL     OW 8660   6.467  13.142  12.762
 2274SOL    HW1 8661   6.409  13.155  12.687
 2274SOL    HW2 8662   6.419  13.081  12.819
 2275SOL     OW 8663   7.656   0.560  10.084
 2275SOL    HW1 8664   7.681   0.549   9.993
 2275SOL    HW2 8665   7.731   0.603  10.125
 2276SOL     OW 8666  11.581  11.893   5.358
 2276SOL    HW1 8667  11.564  11.934   5.443
 2276SOL    HW2 8668  11.669  11.921   5.334
 2277SOL     OW 8669   0.555  10.061   7.334
 2277SOL    HW1 8670   0.621  10.010   7.382
 2277SOL    HW2 8671   0.523  10.124   7.398
 2278SOL     OW 8672  13.635   8.422   7.077
 2278SOL    HW1 8673  13.616   8.502   7.027
 2278SOL    HW2 8674  13.603   8.351   7.022
 2279SOL     OW 8675   2.012  10.823   3.999
 2279SOL    HW1 8676   2.028  10.917   3.996
 2279SOL    HW2 8677   2.098  10.783   3.991
 2280SOL     OW 8678  10.262   2.929  10.820
 2280SOL    HW1 8679  10.287   2.837  10.808
 2280SOL    HW2 8680  10.343   2.978  10.806
 2281SOL     OW 8681  12.332   7.940  12.632
 2281SOL    HW1 8682  12.375   7.872  12.686
 2281SOL    HW2 8683  12.404   7.994  12.601
 2282SOL     OW 8684   9.717  10.741   2.466
 2282SOL    HW1 8685   9.644  10.702   2.512
 2282SOL    HW2 8686   9.781  10.761   2.534
 2283SOL     OW 8687   0.591   3.727   7.307
 2283SOL    HW1 8688   0.570   3.731   7.213
 2283SOL    HW2 8689   0.528   3.786   7.348
 2284SOL     OW 8690   3.499   7.909   8.162
 2284SOL    HW1 8691   3.457   7.845   8.104
 2284SOL    HW2 8692   3.553   7.963   8.104
 2285SOL     OW 8693   3.753   0.138  11.324
 2285SOL    HW1 8694   3.675   0.194  11.320
 2285SOL    HW2 8695   3.814   0.186  11.380
 2286SOL     OW 8696   7.425   3.251   1.295
 2286SOL    HW1 8697   7.502   3.211   1.333
 2286SOL    HW2 8698   7.450   3.343   1.282
 2287SOL     OW 8699  13.397  13.608   3.867
 2287SOL    HW1 8700  13.329  13.540   3.858
 2287SOL    HW2 8701  13.403  13.623   3.962
 2288SOL     OW 8702   3.471   4.052   4.092
 2288SOL    HW1 8703   3.448   4.101   4.013
 2288SOL    HW2 8704   3.387   4.033   4.133
 2289SOL     OW 8705   7.737   1.571   4.425
 2289SOL    HW1 8706   7.772   1.650   4.385
 2289SOL    HW2 8707   7.642   1.580   4.416
 2290SOL     OW 8708   1.805  12.136   3.221
 2290SOL    HW1 8709   1.778  12.220   3.258
 2290SOL    HW2 8710   1.780  12.071   3.286
 2291SOL     OW 8711  14.419   1.171  10.153
 2291SOL    HW1 8712  14.494   1.219  10.188
 2291SOL    HW2 8713  14.393   1.112  10.224
 2292SOL     OW 8714   0.084   5.758   2.601
 2292SOL    HW1 8715   0.059   5.787   2.689
 2292SOL    HW2 8716   0.012   5.787   2.545
 2293SOL     OW 8717  10.055  12.340  10.110
 2293SOL    HW1 8718  10.006  12.259  10.102
 2293SOL    HW2 8719   9.988  12.407  10.123
 2294SOL     OW 8720  13.817   7.100   7.648
 2294SOL    HW1 8721  13.797   7.007   7.661
 2294SOL    HW2 8722  13.802   7.116   7.555
 2295SOL     OW 8723   4.397   3.889  14.868
 2295SOL    HW1 8724   4.332   3.904  14.799
 2295SOL    HW2 8725   4.383   3.799   0.020
 2296SOL     OW 8726   4.890  13.296   7.722
 2296SOL    HW1 8727   4.904  13.225   7.659
 2296SOL    HW2 8728   4.801  13.326   7.706
 2297SOL     OW 8729   5.873   1.096   2.912
 2297SOL    HW1 8730   5.904   1.026   2.855
 2297SOL    HW2 8731   5.888   1.176   2.861
 2298SOL     OW 8732  10.772   6.055   0.636
 2298SOL    HW1 8733  10.800   6.029   0.724
 2298SOL    HW2 8734  10.728   5.977   0.601
 2299SOL     OW 8735  11.554   5.522  14.389
 2299SOL    HW1 8736  11.508   5.599  14.356
 2299SOL    HW2 8737  11.494   5.484  14.453
 2300SOL     OW 8738   0.852  12.856  13.172
 2300SOL    HW1 8739   0.889  12.944  13.163
 2300SOL    HW2 8740   0.923  12.804  13.208
 2301SOL     OW 8741  12.172  14.442   8.947
 2301SOL    HW1 8742  12.101  14.482   8.897
 2301SOL    HW2 8743  12.246  14.501   8.936
 2302SOL     OW 8744  10.934   1.620   3.325
 2302SOL    HW1 8745  10.895   1.573   3.399
 2302SOL    HW2 8746  10.860   1.641   3.268
 2303SOL     OW 8747   8.962  13.817  10.225
 2303SOL    HW1 8748   8.994  13.853  10.143
 2303SOL    HW2 8749   8.867  13.827  10.220
 2304SOL     OW 8750   0.901   4.766   2.206
 2304SOL    HW1 8751   0.968   4.798   2.266
 2304SOL    HW2 8752   0.915   4.671   2.202
 2305SOL     OW 8753   1.778  12.021  10.284
 2305SOL    HW1 8754   1.747  12.046  10.196
 2305SOL    HW2 8755   1.701  12.032  10.340
 2306SOL     OW 8756   8.452   7.051   9.278
 2306SOL    HW1 8757   8.361   7.021   9.275
 2306SOL    HW2 8758   8.476   7.045   9.370
 2307SOL     OW 8759   2.899   2.217   1.849
 2307SOL    HW1 8760   2.891   2.239   1.942
 2307SOL    HW2 8761   2.848   2.285   1.805
 2308SOL     OW 8762   2.193   4.638   6.703
 2308SOL    HW1 8763   2.239   4.557   6.681
 2308SOL    HW2 8764   2.157   4.623   6.790
 2309SOL     OW 8765  10.599  12.283   8.455
 2309SOL    HW1 8766  10.676  12.256   8.405
 2309SOL    HW2 8767  10.601  12.229   8.534
 2310SOL     OW 8768  10.904   1.775  13.928
 2310SOL    HW1 8769  10.973   1.824  13.882
 2310SOL    HW2 8770  10.839   1.756  13.861
 2311SOL     OW 8771  10.762   5.715   3.247
 2311SOL    HW1 8772  10.725   5.648   3.189
 2311SOL    HW2 8773  10.686   5.763   3.280
 2312SOL     OW 8774   7.919   8.187  11.965
 2312SOL    HW1 8775   7.889   8.131  12.037
 2312SOL    HW2 8776   7.937   8.126  11.893
 2313SOL     OW 8777   1.797   5.869  10.673
 2313SOL    HW1 8778   1.705   5.889  10.691
 2313SOL    HW2 8779   1.830   5.829  10.753
 2314SOL     OW 8780  13.543   3.466   4.696
 2314SOL    HW1 8781  13.580   3.554   4.688
 2314SOL    HW2 8782  13.464   3.478   4.748
 2315SOL     OW 8783   6.898   3.368  13.577
 2315SOL    HW1 8784   6.874   3.402  13.491
 2315SOL    HW2 8785   6.994   3.367  13.577
 2316SOL     OW 8786  13.881  10.459   6.057
 2316SOL    HW1 8787  13.856  10.429   5.969
 2316SOL    HW2 8788  13.845  10.392   6.115
 2317SOL     OW 8789   4.437  13.967   0.565
 2317SOL    HW1 8790   4.419  13.885   0.520
 2317SOL    HW2 8791   4.428  14.034   0.497
 2318SOL     OW 8792   6.837   2.424  10.964
 2318SOL    HW1 8793   6.842   2.347  11.021
 2318SOL    HW2 8794   6.777   2.398  10.894
 2319SOL     OW 8795   5.560  10.899   6.538
 2319SOL    HW1 8796   5.512  10.879   6.618
 2319SOL    HW2 8797   5.547  10.822   6.482
 2320SOL     OW 8798   4.425   6.463  11.583
 2320SOL    HW1 8799   4.488   6.515  11.635
 2320SOL    HW2 8800   4.412   6.383  11.635
 2321SOL     OW 8801   9.384   6.549   4.732
 2321SOL    HW1 8802   9.306   6.584   4.688
 2321SOL    HW2 8803   9.453   6.553   4.666
 2322SOL     OW 8804  12.793   4.185   1.925
 2322SOL    HW1 8805  12.716   4.232   1.893
 2322SOL    HW2 8806  12.771   4.093   1.914
 2323SOL     OW 8807   9.301   2.187  14.124
 2323SOL    HW1 8808   9.359   2.163  14.051
 2323SOL    HW2 8809   9.282   2.104  14.167
 2324SOL     OW 8810   0.261  11.226  13.973
 2324SOL    HW1 8811   0.331  11.291  13.977
 2324SOL    HW2 8812   0.304  11.143  13.994
 2325SOL     OW 8813   9.658  11.378   2.972
 2325SOL    HW1 8814   9.719  11.373   3.045
 2325SOL    HW2 8815   9.639  11.286   2.951
 2326SOL     OW 8816   3.805   2.088   4.603
 2326SOL    HW1 8817   3.715   2.110   4.628
 2326SOL    HW2 8818   3.819   2.000   4.639
 2327SOL     OW 8819   2.783   6.040   6.201
 2327SOL    HW1 8820   2.750   6.130   6.199
 2327SOL    HW2 8821   2.874   6.048   6.230
 2328SOL     OW 8822   4.614  12.842   7.970
 2328SOL    HW1 8823   4.534  12.799   7.999
 2328SOL    HW2 8824   4.591  12.880   7.885
 2329SOL     OW 8825   8.054   6.095  13.674
 2329SOL    HW1 8826   8.134   6.082  13.724
 2329SOL    HW2 8827   8.084   6.105  13.583
 2330SOL     OW 8828   0.053   2.699  12.819
 2330SOL    HW1 8829   0.103   2.779  12.833
 2330SOL    HW2 8830   0.057   2.685  12.724
 2331SOL     OW 8831   4.100   2.487   4.762
 2331SOL    HW1 8832   4.113   2.398   4.794
 2331SOL    HW2 8833   4.071   2.475   4.671
 2332SOL     OW 8834   3.805  10.869   3.948
 2332SOL    HW1 8835   3.781  10.777   3.941
 2332SOL    HW2 8836   3.823  10.897   3.858
 2333SOL     OW 8837   3.875  10.898  13.658
 2333SOL    HW1 8838   3.827  10.978  13.681
 2333SOL    HW2 8839   3.854  10.884  13.565
 2334SOL     OW 8840  13.086   6.719   6.166
 2334SOL    HW1 8841  13.148   6.771   6.116
 2334SOL    HW2 8842  13.060   6.649   6.106
 2335SOL     OW 8843   6.034   1.998   9.214
 2335SOL    HW1 8844   6.104   2.058   9.191
 2335SOL    HW2 8845   6.052   1.919   9.162
 2336SOL     OW 8846  11.259  11.388  13.559
 2336SOL    HW1 8847  11.322  11.448  13.598
 2336SOL    HW2 8848  11.239  11.326  13.628
 2337SOL     OW 8849   4.533   2.446   1.751
 2337SOL    HW1 8850   4.493   2.375   1.802
 2337SOL    HW2 8851   4.465   2.513   1.747
 2338SOL     OW 8852   8.478   5.168   2.204
 2338SOL    HW1 8853   8.530   5.088   2.203
 2338SOL    HW2 8854   8.419   5.159   2.129
 2339SOL     OW 8855   2.398  12.768   3.073
 2339SOL    HW1 8856   2.322  12.712   3.061
 2339SOL    HW2 8857   2.388  12.802   3.162
 2340SOL     OW 8858   2.002   7.689   9.658
 2340SOL    HW1 8859   2.092   7.657   9.667
 2340SOL    HW2 8860   1.949   7.609   9.653
 2341SOL     OW 8861  12.985  13.661   1.047
 2341SOL    HW1 8862  12.972  13.581   1.097
 2341SOL    HW2 8863  12.929  13.726   1.091
 2342SOL     OW 8864   6.927  14.371   3.825
 2342SOL    HW1 8865   6.922  14.451   3.878
 2342SOL    HW2 8866   7.010  14.379   3.778
 2343SOL     OW 8867   1.205   4.466   5.818
 2343SOL    HW1 8868   1.285   4.448   5.769
 2343SOL    HW2 8869   1.161   4.535   5.767
 2344SOL     OW 8870  14.745   2.506   4.115
 2344SOL    HW1 8871  14.758   2.488   4.208
 2344SOL    HW2 8872  14.661   2.553   4.111
 2345SOL     OW 8873   2.441   0.364  11.514
 2345SOL    HW1 8874   2.481   0.298  11.571
 2345SOL    HW2 8875   2.439   0.443  11.567
 2346SOL     OW 8876   6.451   5.205  12.120
 2346SOL    HW1 8877   6.535   5.250  12.126
 2346SOL    HW2 8878   6.385   5.274  12.119
 2347SOL     OW 8879   1.404   0.076   0.076
 2347SOL    HW1 8880   1.357   0.053   0.156
 2347SOL    HW2 8881   1.424  14.868   0.035
 2348SOL     OW 8882   6.147  10.785  10.039
 2348SOL    HW1 8883   6.086  10.717  10.067
 2348SOL    HW2 8884   6.145  10.850  10.110
 2349SOL     OW 8885   9.525   5.235  12.261
 2349SOL    HW1 8886   9.574   5.264  12.184
 2349SOL    HW2 8887   9.464   5.307  12.278
 2350SOL     OW 8888   4.800  12.216   0.456
 2350SOL    HW1 8889   4.706  12.226   0.441
 2350SOL    HW2 8890   4.823  12.289   0.514
 2351SOL     OW 8891  10.946  11.338  14.567
 2351SOL    HW1 8892  10.993  11.267  14.521
 2351SOL    HW2 8893  10.920  11.398  14.497
 2352SOL     OW 8894   1.807  14.783   0.089
 2352SOL    HW1 8895   1.865  14.805   0.162
 2352SOL    HW2 8896   1.757  14.863   0.073
 2353SOL     OW 8897  13.087   0.662  14.373
 2353SOL    HW1 8898  13.021   0.731  14.373
 2353SOL    HW2 8899  13.120   0.660  14.284
 2354SOL     OW 8900   0.609  14.315  10.271
 2354SOL    HW1 8901   0.640  14.225  10.261
 2354SOL    HW2 8902   0.553  14.330  10.195
 2355SOL     OW 8903   3.574  12.899   1.452
 2355SOL    HW1 8904   3.535  12.936   1.531
 2355SOL    HW2 8905   3.584  12.806   1.472
 2356SOL     OW 8906   9.246   8.235   2.922
 2356SOL    HW1 8907   9.240   8.245   2.827
 2356SOL    HW2 8908   9.338   8.219   2.939
 2357SOL     OW 8909   0.761  12.534  10.367
 2357SOL    HW1 8910   0.796  12.579  10.443
 2357SOL    HW2 8911   0.679  12.578  10.348
 2358SOL     OW 8912   3.079  13.410  10.160
 2358SOL    HW1 8913   3.035  13.341  10.111
 2358SOL    HW2 8914   3.088  13.375  10.248
 2359SOL     OW 8915  11.168   9.629   5.769
 2359SOL    HW1 8916  11.076   9.637   5.742
 2359SOL    HW2 8917  11.169   9.659   5.860
 2360SOL     OW 8918   4.122   8.556  10.354
 2360SOL    HW1 8919   4.118   8.464  10.382
 2360SOL    HW2 8920   4.214   8.581  10.367
 2361SOL     OW 8921  13.531  14.357   9.865
 2361SOL    HW1 8922  13.577  14.441   9.859
 2361SOL    HW2 8923  13.518  14.344   9.959
 2362SOL     OW 8924   6.519  10.291  10.727
 2362SOL    HW1 8925   6.472  10.214  10.758
 2362SOL    HW2 8926   6.452  10.358  10.718
 2363SOL     OW 8927  12.039   0.409  11.591
 2363SOL    HW1 8928  12.081   0.473  11.534
 2363SOL    HW2 8929  12.089   0.328  11.576
 2364SOL     OW 8930   7.787  10.651   6.261
 2364SOL    HW1 8931   7.869  10.659   6.310
 2364SOL    HW2 8932   7.796  10.568   6.213
 2365SOL     OW 8933  13.059   5.677   9.470
 2365SOL    HW1 8934  13.149   5.700   9.495
 2365SOL    HW2 8935  13.063   5.665   9.375
 2366SOL     OW 8936   7.859   6.455  11.320
 2366SOL    HW1 8937   7.863   6.550  11.328
 2366SOL    HW2 8938   7.767   6.433  11.336
 2367SOL     OW 8939   8.111  12.472   7.934
 2367SOL    HW1 8940   8.117  12.495   7.841
 2367SOL    HW2 8941   8.135  12.379   7.936
 2368SOL     OW 8942  13.830   7.205   2.249
 2368SOL    HW1 8943  13.782   7.288   2.253
 2368SOL    HW2 8944  13.765   7.140   2.224
 2369SOL     OW 8945   9.147  12.519   9.361
 2369SOL    HW1 8946   9.190  12.482   9.285
 2369SOL    HW2 8947   9.170  12.612   9.358
 2370SOL     OW 8948  11.078  10.569  14.718
 2370SOL    HW1 8949  11.001  10.553  14.664
 2370SOL    HW2 8950  11.143  10.605  14.658
 2371SOL     OW 8951   5.479   9.806   9.255
 2371SOL    HW1 8952   5.467   9.756   9.174
 2371SOL    HW2 8953   5.559   9.857   9.240
 2372SOL     OW 8954  11.215  11.753   8.393
 2372SOL    HW1 8955  11.154  11.794   8.331
 2372SOL    HW2 8956  11.174  11.767   8.479
 2373SOL     OW 8957   8.075  12.932   9.250
 2373SOL    HW1 8958   8.038  12.893   9.329
 2373SOL    HW2 8959   8.051  12.872   9.180
 2374SOL     OW 8960  13.008   9.933   6.707
 2374SOL    HW1 8961  13.102   9.948   6.701
 2374SOL    HW2 8962  12.990   9.932   6.801
 2375SOL     OW 8963   3.169   0.494  10.950
 2375SOL    HW1 8964   3.158   0.578  10.993
 2375SOL    HW2 8965   3.115   0.433  11.001
 2376SOL     OW 8966   0.577  10.401   4.982
 2376SOL    HW1 8967   0.592  10.323   4.928
 2376SOL    HW2 8968   0.550  10.468   4.920
 2377SOL     OW 8969  11.098  12.643   1.158
 2377SOL    HW1 8970  11.131  12.622   1.071
 2377SOL    HW2 8971  11.174  12.628   1.216
 2378SOL     OW 8972  13.314   5.452  13.059
 2378SOL    HW1 8973  13.257   5.486  12.990
 2378SOL    HW2 8974  13.378   5.522  13.073
 2379SOL     OW 8975   8.861   8.966  14.773
 2379SOL    HW1 8976   8.914   8.886  14.767
 2379SOL    HW2 8977   8.772   8.934  14.790
 2380SOL     OW 8978   3.705   3.951  10.290
 2380SOL    HW1 8979   3.767   3.918  10.354
 2380SOL    HW2 8980   3.620   3.920  10.321
 2381SOL     OW 8981  10.847   7.497   3.589
 2381SOL    HW1 8982  10.894   7.535   3.515
 2381SOL    HW2 8983  10.773   7.556   3.603
 2382SOL     OW 8984  10.100   7.173   4.292
 2382SOL    HW1 8985  10.055   7.165   4.208
 2382SOL    HW2 8986  10.101   7.267   4.310
 2383SOL     OW 8987   2.699   9.968   0.343
 2383SOL    HW1 8988   2.624   9.909   0.352
 2383SOL    HW2 8989   2.661  10.054   0.326
 2384SOL     OW 8990   5.365   1.502   5.257
 2384SOL    HW1 8991   5.373   1.540   5.345
 2384SOL    HW2 8992   5.284   1.539   5.223
 2385SOL     OW 8993   5.398   0.815   4.147
 2385SOL    HW1 8994   5.393   0.720   4.158
 2385SOL    HW2 8995   5.338   0.835   4.075
 2386SOL     OW 8996  10.055   4.720   9.254
 2386SOL    HW1 8997  10.132   4.664   9.263
 2386SOL    HW2 8998  10.055   4.746   9.162
 2387SOL     OW 8999  13.589  11.534  13.146
 2387SOL    HW1 9000  13.534  11.600  13.189
 2387SOL    HW2 9001  13.528  11.472  13.107
 2388SOL     OW 9002   5.345   0.768   8.466
 2388SOL    HW1 9003   5.327   0.860   8.445
 2388SOL    HW2 9004   5.438   0.757   8.445
 2389SOL     OW 9005  12.259  11.260   8.666
 2389SOL    HW1 9006  12.305  11.341   8.685
 2389SOL    HW2 9007  12.217  11.235   8.748
 2390SOL     OW 9008   2.252   1.373   5.825
 2390SOL    HW1 9009   2.162   1.389   5.796
 2390SOL    HW2 9010   2.249   1.386   5.920
 2391SOL     OW 9011   1.572  11.159   4.807
 2391SOL    HW1 9012   1.603  11.074   4.777
 2391SOL    HW2 9013   1.480  11.161   4.781
 2392SOL     OW 9014  13.613   4.871  11.757
 2392SOL    HW1 9015  13.699   4.846  11.792
 2392SOL    HW2 9016  13.551   4.847  11.826
 2393SOL     OW 9017  12.144   3.866   5.829
 2393SOL    HW1 9018  12.149   3.959   5.809
 2393SOL    HW2 9019  12.050   3.849   5.840
 2394SOL     OW 9020  13.993   0.000  13.838
 2394SOL    HW1 9021  13.901  14.866  13.811
 2394SOL    HW2 9022  13.988   0.018  13.932
 2395SOL     OW 9023   7.705   0.257   3.140
 2395SOL    HW1 9024   7.688   0.163   3.150
 2395SOL    HW2 9025   7.681   0.277   3.050
 2396SOL     OW 9026   3.769   2.646  10.321
 2396SOL    HW1 9027   3.706   2.674  10.254
 2396SOL    HW2 9028   3.808   2.728  10.352
 2397SOL     OW 9029   5.273  14.276   6.974
 2397SOL    HW1 9030   5.251  14.275   7.067
 2397SOL    HW2 9031   5.345  14.339   6.967
 2398SOL     OW 9032  10.142  10.125  10.218
 2398SOL    HW1 9033  10.092  10.047  10.242
 2398SOL    HW2 9034  10.078  10.196  10.221
 2399SOL     OW 9035  11.036   0.655   3.793
 2399SOL    HW1 9036  10.953   0.626   3.832
 2399SOL    HW2 9037  11.037   0.750   3.809
 2400SOL     OW 9038   9.593   2.999   2.292
 2400SOL    HW1 9039   9.612   2.908   2.270
 2400SOL    HW2 9040   9.607   3.047   2.211
 2401SOL     OW 9041   7.720   3.306   7.670
 2401SOL    HW1 9042   7.665   3.267   7.602
 2401SOL    HW2 9043   7.676   3.284   7.752
 2402SOL     OW 9044   5.268  10.739   7.303
 2402SOL    HW1 9045   5.286  10.785   7.221
 2402SOL    HW2 9046   5.352  10.702   7.328
 2403SOL     OW 9047   0.834  12.985   5.986
 2403SOL    HW1 9048   0.886  13.049   6.034
 2403SOL    HW2 9049   0.844  12.904   6.037
 2404SOL     OW 9050  10.734  14.859   9.425
 2404SOL    HW1 9051  10.823   0.006   9.397
 2404SOL    HW2 9052  10.695  14.818   9.348
 2405SOL     OW 9053   1.273   1.790   8.943
 2405SOL    HW1 9054   1.362   1.818   8.921
 2405SOL    HW2 9055   1.278   1.757   9.032
 2406SOL     OW 9056   1.598  11.700   6.474
 2406SOL    HW1 9057   1.596  11.698   6.378
 2406SOL    HW2 9058   1.664  11.635   6.498
 2407SOL     OW 9059  12.820  11.377   9.502
 2407SOL    HW1 9060  12.799  11.461   9.544
 2407SOL    HW2 9061  12.787  11.311   9.563
 2408SOL     OW 9062  14.156   1.968   0.385
 2408SOL    HW1 9063  14.104   1.979   0.305
 2408SOL    HW2 9064  14.171   1.873   0.390
 2409SOL     OW 9065   9.429   0.000  11.042
 2409SOL    HW1 9066   9.495   0.042  10.987
 2409SOL    HW2 9067   9.402   0.069  11.103
 2410SOL     OW 9068  12.255  12.892   4.662
 2410SOL    HW1 9069  12.172  12.910   4.618
 2410SOL    HW2 9070  12.247  12.935   4.747
 2411SOL     OW 9071  14.384   9.331  13.942
 2411SOL    HW1 9072  14.399   9.337  13.848
 2411SOL    HW2 9073  14.428   9.408  13.978
 2412SOL     OW 9074   2.423   4.209  14.435
 2412SOL    HW1 9075   2.485   4.183  14.502
 2412SOL    HW2 9076   2.338   4.209  14.478
 2413SOL     OW 9077   6.569  14.637   6.833
 2413SOL    HW1 9078   6.505  14.609   6.898
 2413SOL    HW2 9079   6.651  14.595   6.860
 2414SOL     OW 9080   4.967  12.022   7.915
 2414SOL    HW1 9081   5.031  12.080   7.956
 2414SOL    HW2 9082   5.005  11.935   7.922
 2415SOL     OW 9083   2.262   5.014   3.620
 2415SOL    HW1 9084   2.309   4.969   3.550
 2415SOL    HW2 9085   2.330   5.038   3.683
 2416SOL     OW 9086  11.637  12.654   9.279
 2416SOL    HW1 9087  11.687  12.592   9.226
 2416SOL    HW2 9088  11.694  12.730   9.289
 2417SOL     OW 9089   6.700   2.227  12.996
 2417SOL    HW1 9090   6.704   2.141  13.037
 2417SOL    HW2 9091   6.664   2.211  12.909
 2418SOL     OW 9092   9.942   9.709   0.765
 2418SOL    HW1 9093  10.012   9.681   0.707
 2418SOL    HW2 9094   9.929   9.801   0.745
 2419SOL     OW 9095  13.143  13.421   6.214
 2419SOL    HW1 9096  13.162  13.338   6.257
 2419SOL    HW2 9097  13.113  13.396   6.127
 2420SOL     OW 9098   2.264   7.399   5.803
 2420SOL    HW1 9099   2.314   7.378   5.882
 2420SOL    HW2 9100   2.270   7.494   5.797
 2421SOL     OW 9101   8.791   3.036   6.481
 2421SOL    HW1 9102   8.882   3.035   6.450
 2421SOL    HW2 9103   8.747   3.099   6.425
 2422SOL     OW 9104  11.859  10.523   8.954
 2422SOL    HW1 9105  11.924  10.588   8.978
 2422SOL    HW2 9106  11.902  10.439   8.971
 2423SOL     OW 9107  13.921   5.370  14.729
 2423SOL    HW1 9108  13.882   5.383  14.643
 2423SOL    HW2 9109  14.011   5.403  14.720
 2424SOL     OW 9110   4.462   7.563   7.387
 2424SOL    HW1 9111   4.536   7.521   7.344
 2424SOL    HW2 9112   4.397   7.574   7.319
 2425SOL     OW 9113   6.665   8.962  10.360
 2425SOL    HW1 9114   6.755   8.969  10.328
 2425SOL    HW2 9115   6.631   8.882  10.320
 2426SOL     OW 9116   6.334   5.731  13.521
 2426SOL    HW1 9117   6.413   5.759  13.476
 2426SOL    HW2 9118   6.365   5.671  13.589
 2427SOL     OW 9119  10.484   1.291  12.306
 2427SOL    HW1 9120  10.526   1.358  12.253
 2427SOL    HW2 9121  10.545   1.275  12.378
 2428SOL     OW 9122   1.255   7.321   1.129
 2428SOL    HW1 9123   1.331   7.367   1.165
 2428SOL    HW2 9124   1.182   7.347   1.185
 2429SOL     OW 9125   6.594  13.490  12.676
 2429SOL    HW1 9126   6.630  13.498  12.765
 2429SOL    HW2 9127   6.671  13.500  12.619
 2430SOL     OW 9128  10.853  10.929   9.107
 2430SOL    HW1 9129  10.851  10.890   9.020
 2430SOL    HW2 9130  10.942  10.963   9.115
 2431SOL     OW 9131   1.168   4.364   3.793
 2431SOL    HW1 9132   1.148   4.337   3.882
 2431SOL    HW2 9133   1.118   4.445   3.780
 2432SOL     OW 9134   2.487  11.397  11.289
 2432SOL    HW1 9135   2.486  11.355  11.203
 2432SOL    HW2 9136   2.579  11.420  11.303
 2433SOL     OW 9137  12.636  13.218  14.009
 2433SOL    HW1 9138  12.578  13.142  13.997
 2433SOL    HW2 9139  12.576  13.291  14.025
 2434SOL     OW 9140  13.422   7.176  13.216
 2434SOL    HW1 9141  13.336   7.168  13.258
 2434SOL    HW2 9142  13.470   7.098  13.244
 2435SOL     OW 9143   3.031   2.922   5.704
 2435SOL    HW1 9144   3.000   2.868   5.632
 2435SOL    HW2 9145   2.953   2.963   5.740
 2436SOL     OW 9146   4.211   5.748   1.017
 2436SOL    HW1 9147   4.178   5.838   1.019
 2436SOL    HW2 9148   4.270   5.745   0.942
 2437SOL     OW 9149   0.375   6.688   3.401
 2437SOL    HW1 9150   0.291   6.730   3.416
 2437SOL    HW2 9151   0.438   6.760   3.397
 2438SOL     OW 9152  14.082   9.808   2.068
 2438SOL    HW1 9153  14.088   9.777   1.978
 2438SOL    HW2 9154  14.080   9.904   2.060
 2439SOL     OW 9155  14.658  11.561   8.805
 2439SOL    HW1 9156  14.751  11.565   8.784
 2439SOL    HW2 9157  14.615  11.602   8.730
 2440SOL     OW 9158   0.621   8.735   8.236
 2440SOL    HW1 9159   0.525   8.740   8.242
 2440SOL    HW2 9160   0.645   8.668   8.300
 2441SOL     OW 9161   3.621   8.221  14.047
 2441SOL    HW1 9162   3.709   8.244  14.016
 2441SOL    HW2 9163   3.635   8.189  14.136
 2442SOL     OW 9164  12.358   2.942   6.308
 2442SOL    HW1 9165  12.313   3.013   6.263
 2442SOL    HW2 9166  12.301   2.921   6.382
 2443SOL     OW 9167   8.998   5.993   9.790
 2443SOL    HW1 9168   9.081   5.996   9.837
 2443SOL    HW2 9169   8.975   6.085   9.776
 2444SOL     OW 9170   1.067  13.091  11.209
 2444SOL    HW1 9171   1.005  13.032  11.165
 2444SOL    HW2 9172   1.153  13.057  11.185
 2445SOL     OW 9173  11.980   8.541  12.601
 2445SOL    HW1 9174  12.063   8.589  12.598
 2445SOL    HW2 9175  11.994   8.465  12.545
 2446SOL     OW 9176   2.778   5.989   3.600
 2446SOL    HW1 9177   2.868   5.962   3.581
 2446SOL    HW2 9178   2.742   6.015   3.515
 2447SOL     OW 9179   9.534  14.454  11.590
 2447SOL    HW1 9180   9.492  14.379  11.634
 2447SOL    HW2 9181   9.520  14.527  11.650
 2448SOL     OW 9182   1.307   4.116   4.577
 2448SOL    HW1 9183   1.237   4.138   4.638
 2448SOL    HW2 9184   1.365   4.058   4.627
 2449SOL     OW 9185  14.439   9.011   2.935
 2449SOL    HW1 9186  14.422   9.098   2.971
 2449SOL    HW2 9187  14.360   8.961   2.954
 2450SOL     OW 9188   1.497   9.313   3.252
 2450SOL    HW1 9189   1.564   9.354   3.308
 2450SOL    HW2 9190   1.547   9.274   3.180
 2451SOL     OW 9191  14.583   3.212   7.831
 2451SOL    HW1 9192  14.571   3.239   7.741
 2451SOL    HW2 9193  14.542   3.125   7.836
 2452SOL     OW 9194  10.648  13.232   8.103
 2452SOL    HW1 9195  10.725  13.275   8.141
 2452SOL    HW2 9196  10.577  13.294   8.114
 2453SOL     OW 9197   2.276  12.944   4.819
 2453SOL    HW1 9198   2.328  12.930   4.899
 2453SOL    HW2 9199   2.218  12.867   4.815
 2454SOL     OW 9200  10.322   5.696  12.071
 2454SOL    HW1 9201  10.276   5.650  12.002
 2454SOL    HW2 9202  10.286   5.660  12.152
 2455SOL     OW 9203   7.330   3.752   3.505
 2455SOL    HW1 9204   7.286   3.823   3.458
 2455SOL    HW2 9205   7.297   3.758   3.595
 2456SOL     OW 9206   6.847   1.037  13.671
 2456SOL    HW1 9207   6.905   1.107  13.704
 2456SOL    HW2 9208   6.842   0.974  13.743
 2457SOL     OW 9209   5.454   3.728   1.116
 2457SOL    HW1 9210   5.450   3.671   1.193
 2457SOL    HW2 9211   5.383   3.791   1.130
 2458SOL     OW 9212   9.532  11.109   0.459
 2458SOL    HW1 9213   9.609  11.067   0.498
 2458SOL    HW2 9214   9.460  11.086   0.518
 2459SOL     OW 9215  13.864   3.082   0.509
 2459SOL    HW1 9216  13.839   3.083   0.417
 2459SOL    HW2 9217  13.897   2.994   0.525
 2460SOL     OW 9218   1.479   8.444   3.827
 2460SOL    HW1 9219   1.394   8.471   3.792
 2460SOL    HW2 9220   1.484   8.351   3.809
 2461SOL     OW 9221   8.297   1.577   6.476
 2461SOL    HW1 9222   8.367   1.512   6.474
 2461SOL    HW2 9223   8.342   1.661   6.472
 2462SOL     OW 9224   8.004   2.952   0.615
 2462SOL    HW1 9225   7.923   2.941   0.665
 2462SOL    HW2 9226   8.069   2.978   0.680
 2463SOL     OW 9227  12.468   1.337   5.782
 2463SOL    HW1 9228  12.417   1.327   5.863
 2463SOL    HW2 9229  12.411   1.305   5.713
 2464SOL     OW 9230   1.413   2.733   7.806
 2464SOL    HW1 9231   1.398   2.763   7.716
 2464SOL    HW2 9232   1.329   2.745   7.850
 2465SOL     OW 9233  12.529   5.749   7.582
 2465SOL    HW1 9234  12.596   5.709   7.526
 2465SOL    HW2 9235  12.506   5.831   7.537
 2466SOL     OW 9236   1.180   3.811   1.189
 2466SOL    HW1 9237   1.157   3.863   1.266
 2466SOL    HW2 9238   1.100   3.809   1.136
 2467SOL     OW 9239   8.509   4.815   4.847
 2467SOL    HW1 9240   8.476   4.764   4.773
 2467SOL    HW2 9241   8.527   4.901   4.811
 2468SOL     OW 9242   1.393  12.011  10.972
 2468SOL    HW1 9243   1.345  12.050  10.899
 2468SOL    HW2 9244   1.387  11.916  10.957
 2469SOL     OW 9245   1.817  11.282   5.922
 2469SOL    HW1 9246   1.757  11.207   5.924
 2469SOL    HW2 9247   1.874  11.268   5.999
 2470SOL     OW 9248   6.464   3.322   7.605
 2470SOL    HW1 9249   6.542   3.303   7.658
 2470SOL    HW2 9250   6.391   3.285   7.654
 2471SOL     OW 9251   9.827   9.461   4.290
 2471SOL    HW1 9252   9.813   9.548   4.253
 2471SOL    HW2 9253   9.785   9.463   4.375
 2472SOL     OW 9254   4.993   2.096   8.560
 2472SOL    HW1 9255   4.972   2.108   8.653
 2472SOL    HW2 9256   4.909   2.110   8.516
 2473SOL     OW 9257   2.161   5.539   4.640
 2473SOL    HW1 9258   2.134   5.525   4.731
 2473SOL    HW2 9259   2.254   5.513   4.638
 2474SOL     OW 9260   7.501   8.692   6.373
 2474SOL    HW1 9261   7.541   8.740   6.301
 2474SOL    HW2 9262   7.555   8.613   6.383
 2475SOL     OW 9263   5.816   9.320   3.536
 2475SOL    HW1 9264   5.746   9.263   3.505
 2475SOL    HW2 9265   5.833   9.380   3.464
 2476SOL     OW 9266   1.876   6.814  12.717
 2476SOL    HW1 9267   1.956   6.856  12.746
 2476SOL    HW2 9268   1.865   6.739  12.775
 2477SOL     OW 9269   8.193  10.236   4.492
 2477SOL    HW1 9270   8.174  10.157   4.542
 2477SOL    HW2 9271   8.159  10.217   4.404
 2478SOL     OW 9272  11.683  10.133  10.322
 2478SOL    HW1 9273  11.604  10.079  10.332
 2478SOL    HW2 9274  11.713  10.115  10.233
 2479SOL     OW 9275  12.457   5.596  12.938
 2479SOL    HW1 9276  12.379   5.577  12.886
 2479SOL    HW2 9277  12.519   5.633  12.875
 2480SOL     OW 9278   8.817   9.504   3.760
 2480SOL    HW1 9279   8.864   9.468   3.834
 2480SOL    HW2 9280   8.863   9.470   3.683
 2481SOL     OW 9281  13.701   5.137   7.973
 2481SOL    HW1 9282  13.759   5.069   7.940
 2481SOL    HW2 9283  13.750   5.178   8.044
 2482SOL     OW 9284   8.354   2.784   2.057
 2482SOL    HW1 9285   8.307   2.717   2.105
 2482SOL    HW2 9286   8.416   2.735   2.002
 2483SOL     OW 9287   9.775   0.810  11.279
 2483SOL    HW1 9288   9.822   0.834  11.199
 2483SOL    HW2 9289   9.843   0.797  11.344
 2484SOL     OW 9290  13.376  11.268   4.191
 2484SOL    HW1 9291  13.441  11.223   4.137
 2484SOL    HW2 9292  13.406  11.359   4.195
 2485SOL     OW 9293   5.523   1.899   0.727
 2485SOL    HW1 9294   5.541   1.880   0.635
 2485SOL    HW2 9295   5.473   1.824   0.758
 2486SOL     OW 9296   2.360   0.645   7.886
 2486SOL    HW1 9297   2.319   0.636   7.973
 2486SOL    HW2 9298   2.342   0.561   7.843
 2487SOL     OW 9299   0.217   2.846   2.339
 2487SOL    HW1 9300   0.191   2.778   2.277
 2487SOL    HW2 9301   0.291   2.890   2.297
 2488SOL     OW 9302  14.855   7.440   6.941
 2488SOL    HW1 9303   0.054   7.484   6.902
 2488SOL    HW2 9304  14.789   7.437   6.872
 2489SOL     OW 9305   2.836  14.062   6.740
 2489SOL    HW1 9306   2.881  14.121   6.680
 2489SOL    HW2 9307   2.870  14.086   6.827
 2490SOL     OW 9308  13.669  10.384  14.073
 2490SOL    HW1 9309  13.755  10.428  14.075
 2490SOL    HW2 9310  13.643  10.387  13.981
 2491SOL     OW 9311   4.466  13.076  12.318
 2491SOL    HW1 9312   4.392  13.103  12.373
 2491SOL    HW2 9313   4.435  12.997  12.275
 2492SOL     OW 9314   7.934   5.567   4.847
 2492SOL    HW1 9315   7.904   5.598   4.933
 2492SOL    HW2 9316   7.953   5.647   4.798
 2493SOL     OW 9317   1.338   7.214  11.231
 2493SOL    HW1 9318   1.308   7.163  11.155
 2493SOL    HW2 9319   1.331   7.153  11.304
 2494SOL     OW 9320   8.151   0.827   2.200
 2494SOL    HW1 9321   8.100   0.908   2.197
 2494SOL    HW2 9322   8.189   0.826   2.287
 2495SOL     OW 9323   5.633   7.675   1.033
 2495SOL    HW1 9324   5.671   7.665   1.120
 2495SOL    HW2 9325   5.569   7.604   1.026
 2496SOL     OW 9326   7.783   1.158   3.915
 2496SOL    HW1 9327   7.733   1.175   3.835
 2496SOL    HW2 9328   7.768   1.065   3.932
 2497SOL     OW 9329   7.684  11.693  13.011
 2497SOL    HW1 9330   7.707  11.738  12.929
 2497SOL    HW2 9331   7.753  11.717  13.072
 2498SOL     OW 9332   6.145  10.126   0.496
 2498SOL    HW1 9333   6.219  10.065   0.503
 2498SOL    HW2 9334   6.134  10.140   0.402
 2499SOL     OW 9335  13.566  10.309   8.877
 2499SOL    HW1 9336  13.646  10.296   8.927
 2499SOL    HW2 9337  13.501  10.335   8.943
 2500SOL     OW 9338   8.476   0.281  11.316
 2500SOL    HW1 9339   8.409   0.305  11.252
 2500SOL    HW2 9340   8.556   0.272  11.265
 2501SOL     OW 9341   8.907  12.929   2.034
 2501SOL    HW1 9342   8.953  13.001   1.992
 2501SOL    HW2 9343   8.822  12.966   2.060
 2502SOL     OW 9344  11.497   6.397  11.376
 2502SOL    HW1 9345  11.475   6.321  11.431
 2502SOL    HW2 9346  11.589   6.414  11.396
 2503SOL     OW 9347   2.454  11.456   7.895
 2503SOL    HW1 9348   2.482  11.541   7.861
 2503SOL    HW2 9349   2.533  11.419   7.934
 2504SOL     OW 9350   1.721   6.079   8.468
 2504SOL    HW1 9351   1.696   6.071   8.560
 2504SOL    HW2 9352   1.816   6.076   8.468
 2505SOL     OW 9353   6.552   2.838  11.163
 2505SOL    HW1 9354   6.531   2.751  11.196
 2505SOL    HW2 9355   6.543   2.896  11.238
 2506SOL     OW 9356   6.971   2.477   0.189
 2506SOL    HW1 9357   6.896   2.467   0.130
 2506SOL    HW2 9358   6.938   2.531   0.261
 2507SOL     OW 9359   5.075  10.512   3.500
 2507SOL    HW1 9360   5.063  10.433   3.449
 2507SOL    HW2 9361   5.114  10.575   3.439
 2508SOL     OW 9362  10.319   5.477  13.638
 2508SOL    HW1 9363  10.303   5.392  13.680
 2508SOL    HW2 9364  10.340   5.455  13.547
 2509SOL     OW 9365  10.272  10.856   3.143
 2509SOL    HW1 9366  10.211  10.800   3.095
 2509SOL    HW2 9367  10.217  10.900   3.208
 2510SOL     OW 9368   4.831   4.791  10.926
 2510SOL    HW1 9369   4.861   4.794  11.016
 2510SOL    HW2 9370   4.736   4.782  10.932
 2511SOL     OW 9371   9.085   6.974   5.236
 2511SOL    HW1 9372   9.127   6.918   5.301
 2511SOL    HW2 9373   9.008   7.009   5.282
 2512SOL     OW 9374   6.969   0.011   7.263
 2512SOL    HW1 9375   7.028   0.046   7.196
 2512SOL    HW2 9376   7.009   0.036   7.346
 2513SOL     OW 9377   9.655   2.700   8.783
 2513SOL    HW1 9378   9.631   2.608   8.770
 2513SOL    HW2 9379   9.723   2.698   8.851
 2514SOL     OW 9380   1.957   9.956   1.586
 2514SOL    HW1 9381   1.934   9.877   1.537
 2514SOL    HW2 9382   1.901   9.954   1.663
 2515SOL     OW 9383   7.961  12.247   0.159
 2515SOL    HW1 9384   7.976  12.324   0.214
 2515SOL    HW2 9385   7.921  12.183   0.217
 2516SOL     OW 9386   3.944   1.545   6.220
 2516SOL    HW1 9387   4.013   1.611   6.214
 2516SOL    HW2 9388   3.981   1.467   6.181
 2517SOL     OW 9389   7.527  11.580   0.112
 2517SOL    HW1 9390   7.570  11.641   0.052
 2517SOL    HW2 9391   7.579  11.499   0.105
 2518SOL     OW 9392  13.411   1.591   9.604
 2518SOL    HW1 9393  13.380   1.594   9.694
 2518SOL    HW2 9394  13.332   1.575   9.552
 2519SOL     OW 9395   5.194   6.925  10.179
 2519SOL    HW1 9396   5.203   7.003  10.233
 2519SOL    HW2 9397   5.280   6.883  10.182
 2520SOL     OW 9398   8.806   0.601  10.682
 2520SOL    HW1 9399   8.866   0.555  10.742
 2520SOL    HW2 9400   8.852   0.600  10.598
 2521SOL     OW 9401   2.382  10.041  13.502
 2521SOL    HW1 9402   2.338  10.121  13.529
 2521SOL    HW2 9403   2.475  10.061  13.513
 2522SOL     OW 9404   4.875   0.104   1.531
 2522SOL    HW1 9405   4.929   0.060   1.465
 2522SOL    HW2 9406   4.910   0.193   1.536
 2523SOL     OW 9407   6.745   2.318  10.005
 2523SOL    HW1 9408   6.771   2.238  10.051
 2523SOL    HW2 9409   6.827   2.367   9.995
 2524SOL     OW 9410   3.846   8.183   7.320
 2524SOL    HW1 9411   3.920   8.125   7.302
 2524SOL    HW2 9412   3.884   8.255   7.371
 2525SOL     OW 9413  12.349   0.068   5.483
 2525SOL    HW1 9414  12.338   0.053   5.576
 2525SOL    HW2 9415  12.313  14.865   5.442
 2526SOL     OW 9416   9.564   6.261   8.429
 2526SOL    HW1 9417   9.576   6.289   8.339
 2526SOL    HW2 9418   9.574   6.341   8.481
 2527SOL     OW 9419   0.631   2.410  13.479
 2527SOL    HW1 9420   0.645   2.381  13.389
 2527SOL    HW2 9421   0.632   2.506  13.473
 2528SOL     OW 9422  13.694   7.304   9.898
 2528SOL    HW1 9423  13.777   7.255   9.898
 2528SOL    HW2 9424  13.637   7.252   9.955
 2529SOL     OW 9425  12.328   0.827  11.021
 2529SOL    HW1 9426  12.280   0.850  10.942
 2529SOL    HW2 9427  12.315   0.732  11.030
 2530SOL     OW 9428   3.928  13.239   8.416
 2530SOL    HW1 9429   4.012  13.199   8.439
 2530SOL    HW2 9430   3.952  13.321   8.372
 2531SOL     OW 9431   9.390   8.418   8.567
 2531SOL    HW1 9432   9.349   8.502   8.545
 2531SOL    HW2 9433   9.409   8.378   8.483
 2532SOL     OW 9434   0.183   0.918  13.666
 2532SOL    HW1 9435   0.248   0.922  13.596
 2532SOL    HW2 9436   0.115   0.859  13.632
 2533SOL     OW 9437   1.979  13.571   9.962
 2533SOL    HW1 9438   1.889  13.602   9.968
 2533SOL    HW2 9439   1.987  13.505  10.031
 2534SOL     OW 9440  13.116   9.861   7.786
 2534SOL    HW1 9441  13.098   9.782   7.734
 2534SOL    HW2 9442  13.133   9.929   7.721
 2535SOL     OW 9443  11.083   4.671   0.986
 2535SOL    HW1 9444  11.060   4.721   0.908
 2535SOL    HW2 9445  11.169   4.705   1.012
 2536SOL     OW 9446   2.868   1.942   3.541
 2536SOL    HW1 9447   2.949   1.988   3.520
 2536SOL    HW2 9448   2.803   1.978   3.481
 2537SOL     OW 9449  10.095   3.293  10.612
 2537SOL    HW1 9450  10.124   3.224  10.553
 2537SOL    HW2 9451  10.114   3.259  10.700
 2538SOL     OW 9452   7.842   8.340   8.764
 2538SOL    HW1 9453   7.906   8.341   8.835
 2538SOL    HW2 9454   7.822   8.433   8.749
 2539SOL     OW 9455   8.979  14.500  11.620
 2539SOL    HW1 9456   9.036  14.544  11.558
 2539SOL    HW2 9457   9.026  14.420  11.643
 2540SOL     OW 9458  11.485   0.098   0.832
 2540SOL    HW1 9459  11.436   0.181   0.828
 2540SOL    HW2 9460  11.541   0.100   0.755
 2541SOL     OW 9461   7.055   4.490   6.742
 2541SOL    HW1 9462   7.136   4.500   6.793
 2541SOL    HW2 9463   7.017   4.409   6.775
 2542SOL     OW 9464  13.997   2.558  14.194
 2542SOL    HW1 9465  14.072   2.525  14.145
 2542SOL    HW2 9466  13.977   2.643  14.154
 2543SOL     OW 9467   3.272  10.795   0.297
 2543SOL    HW1 9468   3.263  10.817   0.204
 2543SOL    HW2 9469   3.351  10.741   0.302
 2544SOL     OW 9470  12.996   2.752   4.395
 2544SOL    HW1 9471  12.914   2.772   4.348
 2544SOL    HW2 9472  13.011   2.659   4.378
 2545SOL     OW 9473   9.660   5.988   9.459
 2545SOL    HW1 9474   9.726   6.018   9.396
 2545SOL    HW2 9475   9.688   5.899   9.482
 2546SOL     OW 9476   2.503  11.271   0.260
 2546SOL    HW1 9477   2.459  11.335   0.317
 2546SOL    HW2 9478   2.585  11.251   0.305
 2547SOL     OW 9479   7.671   6.816   5.937
 2547SOL    HW1 9480   7.712   6.837   5.852
 2547SOL    HW2 9481   7.596   6.761   5.915
 2548SOL     OW 9482   1.540  12.235   4.014
 2548SOL    HW1 9483   1.467  12.253   3.955
 2548SOL    HW2 9484   1.556  12.141   4.005
 2549SOL     OW 9485   2.189   1.436   4.204
 2549SOL    HW1 9486   2.169   1.471   4.291
 2549SOL    HW2 9487   2.284   1.437   4.200
 2550SOL     OW 9488   6.171   4.945   1.129
 2550SOL    HW1 9489   6.165   4.856   1.095
 2550SOL    HW2 9490   6.174   5.001   1.052
 2551SOL     OW 9491   8.193  14.752  13.242
 2551SOL    HW1 9492   8.121  14.733  13.302
 2551SOL    HW2 9493   8.265  14.781  13.299
 2552SOL     OW 9494   3.323  11.170   7.123
 2552SOL    HW1 9495   3.233  11.167   7.092
 2552SOL    HW2 9496   3.322  11.117   7.203
 2553SOL     OW 9497   0.234  14.417  13.050
 2553SOL    HW1 9498   0.230  14.325  13.076
 2553SOL    HW2 9499   0.160  14.458  13.095
 2554SOL     OW 9500   9.712  13.306   4.623
 2554SOL    HW1 9501   9.793  13.338   4.663
 2554SOL    HW2 9502   9.741  13.257   4.546
 2555SOL     OW 9503   7.811   1.853   4.433
 2555SOL    HW1 9504   7.890   1.880   4.479
 2555SOL    HW2 9505   7.744   1.916   4.458
 2556SOL     OW 9506  14.745  13.007   5.616
 2556SOL    HW1 9507  14.768  12.920   5.585
 2556SOL    HW2 9508  14.821  13.061   5.595
 2557SOL     OW 9509  14.503   9.504  10.127
 2557SOL    HW1 9510  14.489   9.595  10.152
 2557SOL    HW2 9511  14.491   9.455  10.209
 2558SOL     OW 9512  10.335   5.279   6.822
 2558SOL    HW1 9513  10.294   5.234   6.747
 2558SOL    HW2 9514  10.376   5.356   6.784
 2559SOL     OW 9515  14.404  10.901   1.651
 2559SOL    HW1 9516  14.444  10.906   1.564
 2559SOL    HW2 9517  14.408  10.991   1.684
 2560SOL     OW 9518  12.488   7.711   0.091
 2560SOL    HW1 9519  12.476   7.649   0.163
 2560SOL    HW2 9520  12.404   7.758   0.086
 2561SOL     OW 9521  13.671   0.378   5.470
 2561SOL    HW1 9522  13.748   0.400   5.522
 2561SOL    HW2 9523  13.620   0.318   5.526
 2562SOL     OW 9524  11.783  10.369   3.191
 2562SOL    HW1 9525  11.696  10.366   3.151
 2562SOL    HW2 9526  11.767  10.395   3.282
 2563SOL     OW 9527   7.559   4.445  11.920
 2563SOL    HW1 9528   7.482   4.486  11.883
 2563SOL    HW2 9529   7.592   4.388  11.851
 2564SOL     OW 9530   5.598   6.328   9.717
 2564SOL    HW1 9531   5.533   6.398   9.712
 2564SOL    HW2 9532   5.580   6.284   9.800
 2565SOL     OW 9533  10.535   5.166  13.440
 2565SOL    HW1 9534  10.491   5.251  13.453
 2565SOL    HW2 9535  10.488   5.106  13.497
 2566SOL     OW 9536  12.749   6.276   6.187
 2566SOL    HW1 9537  12.829   6.296   6.139
 2566SOL    HW2 9538  12.777   6.274   6.279
 2567SOL     OW 9539   3.310   1.604  10.833
 2567SOL    HW1 9540   3.401   1.609  10.803
 2567SOL    HW2 9541   3.304   1.671  10.900
 2568SOL     OW 9542  13.472   9.627  14.712
 2568SOL    HW1 9543  13.511   9.565  14.651
 2568SOL    HW2 9544  13.403   9.577  14.756
 2569SOL     OW 9545   2.970  14.102   8.091
 2569SOL    HW1 9546   2.913  14.042   8.139
 2569SOL    HW2 9547   2.946  14.189   8.124
 2570SOL     OW 9548   8.779   6.619  12.788
 2570SOL    HW1 9549   8.688   6.589  12.794
 2570SOL    HW2 9550   8.793   6.630  12.694
 2571SOL     OW 9551  11.272  13.845   4.343
 2571SOL    HW1 9552  11.348  13.851   4.401
 2571SOL    HW2 9553  11.238  13.935   4.339
 2572SOL     OW 9554  14.463  11.544   8.518
 2572SOL    HW1 9555  14.409  11.581   8.448
 2572SOL    HW2 9556  14.405  11.484   8.564
 2573SOL     OW 9557   6.065   4.263   6.846
 2573SOL    HW1 9558   6.068   4.335   6.782
 2573SOL    HW2 9559   6.014   4.298   6.919
 2574SOL     OW 9560  11.628   4.031   7.308
 2574SOL    HW1 9561  11.544   4.072   7.330
 2574SOL    HW2 9562  11.606   3.939   7.290
 2575SOL     OW 9563  14.747  13.682  12.401
 2575SOL    HW1 9564  14.724  13.686  12.308
 2575SOL    HW2 9565  14.787  13.596  12.412
 2576SOL     OW 9566  10.144   4.088   1.541
 2576SOL    HW1 9567  10.144   4.119   1.631
 2576SOL    HW2 9568  10.107   4.000   1.546
 2577SOL     OW 9569   6.216   8.778   5.571
 2577SOL    HW1 9570   6.227   8.792   5.477
 2577SOL    HW2 9571   6.302   8.749   5.601
 2578SOL     OW 9572   4.308   6.620   8.807
 2578SOL    HW1 9573   4.370   6.590   8.740
 2578SOL    HW2 9574   4.335   6.710   8.826
 2579SOL     OW 9575   5.758   5.920   8.597
 2579SOL    HW1 9576   5.707   5.881   8.668
 2579SOL    HW2 9577   5.693   5.940   8.529
 2580SOL     OW 9578   3.220   8.299  14.307
 2580SOL    HW1 9579   3.185   8.375  14.354
 2580SOL    HW2 9580   3.279   8.336  14.242
 2581SOL     OW 9581   6.547   6.649  13.165
 2581SOL    HW1 9582   6.591   6.664  13.249
 2581SOL    HW2 9583   6.533   6.737  13.129
 2582SOL     OW 9584  11.309  13.286   7.693
 2582SOL    HW1 9585  11.256  13.360   7.724
 2582SOL    HW2 9586  11.354  13.320   7.615
 2583SOL     OW 9587   7.216  12.483  13.194
 2583SOL    HW1 9588   7.308  12.506  13.181
 2583SOL    HW2 9589   7.192  12.433  13.115
 2584SOL     OW 9590   0.523   0.992  10.946
 2584SOL    HW1 9591   0.519   1.080  10.908
 2584SOL    HW2 9592   0.432   0.967  10.958
 2585SOL     OW 9593   0.025   7.319   7.730
 2585SOL    HW1 9594  14.866   7.258   7.665
 2585SOL    HW2 9595  14.825   7.368   7.760
 2586SOL     OW 9596   1.674   4.431   4.610
 2586SOL    HW1 9597   1.617   4.495   4.567
 2586SOL    HW2 9598   1.760   4.445   4.569
 2587SOL     OW 9599   3.328  14.563  14.276
 2587SOL    HW1 9600   3.409  14.614  14.269
 2587SOL    HW2 9601   3.345  14.483  14.227
 2588SOL     OW 9602   6.491   4.138   2.668
 2588SOL    HW1 9603   6.520   4.143   2.576
 2588SOL    HW2 9604   6.427   4.067   2.669
 2589SOL     OW 9605  10.511   5.212   5.689
 2589SOL    HW1 9606  10.435   5.153   5.687
 2589SOL    HW2 9607  10.477   5.296   5.658
 2590SOL     OW 9608   9.757  13.201   0.198
 2590SOL    HW1 9609   9.802  13.118   0.182
 2590SOL    HW2 9610   9.696  13.210   0.125
 2591SOL     OW 9611  10.806   6.411  14.589
 2591SOL    HW1 9612  10.759   6.492  14.609
 2591SOL    HW2 9613  10.813   6.410  14.493
 2592SOL     OW 9614   8.127   3.582   6.713
 2592SOL    HW1 9615   8.089   3.523   6.778
 2592SOL    HW2 9616   8.058   3.592   6.647
 2593SOL     OW 9617   9.354  12.182  12.980
 2593SOL    HW1 9618   9.357  12.118  13.051
 2593SOL    HW2 9619   9.275  12.160  12.931
 2594SOL     OW 9620  13.764   3.521   7.125
 2594SOL    HW1 9621  13.778   3.520   7.030
 2594SOL    HW2 9622  13.798   3.607   7.153
 2595SOL     OW 9623   2.720   9.490   3.186
 2595SOL    HW1 9624   2.764   9.554   3.241
 2595SOL    HW2 9625   2.760   9.501   3.100
 2596SOL     OW 9626   5.776   3.816  11.962
 2596SOL    HW1 9627   5.689   3.792  11.996
 2596SOL    HW2 9628   5.808   3.881  12.025
 2597SOL     OW 9629   0.790  14.112  10.245
 2597SOL    HW1 9630   0.794  14.040  10.183
 2597SOL    HW2 9631   0.863  14.170  10.221
 2598SOL     OW 9632   0.720   5.245  11.273
 2598SOL    HW1 9633   0.778   5.318  11.252
 2598SOL    HW2 9634   0.659   5.240  11.199
 2599SOL     OW 9635  14.192   8.390   9.490
 2599SOL    HW1 9636  14.196   8.307   9.442
 2599SOL    HW2 9637  14.279   8.399   9.529
 2600SOL     OW 9638   6.932   1.198   1.444
 2600SOL    HW1 9639   6.985   1.187   1.523
 2600SOL    HW2 9640   6.963   1.129   1.385
 2601SOL     OW 9641   5.200   3.833   1.717
 2601SOL    HW1 9642   5.135   3.889   1.759
 2601SOL    HW2 9643   5.272   3.827   1.779
 2602SOL     OW 9644   3.184  10.180   8.035
 2602SOL    HW1 9645   3.240  10.193   8.112
 2602SOL    HW2 9646   3.176  10.085   8.027
 2603SOL     OW 9647   2.124  11.588   5.981
 2603SOL    HW1 9648   2.170  11.562   5.901
 2603SOL    HW2 9649   2.136  11.514   6.041
 2604SOL     OW 9650   8.388  13.497   5.696
 2604SOL    HW1 9651   8.316  13.438   5.719
 2604SOL    HW2 9652   8.419  13.464   5.611
 2605SOL     OW 9653   3.662  10.656  11.748
 2605SOL    HW1 9654   3.594  10.606  11.703
 2605SOL    HW2 9655   3.699  10.594  11.811
 2606SOL     OW 9656   5.090   3.966  12.252
 2606SOL    HW1 9657   5.041   4.044  12.229
 2606SOL    HW2 9658   5.130   3.988  12.337
 2607SOL     OW 9659   9.001  13.239  11.968
 2607SOL    HW1 9660   9.004  13.333  11.986
 2607SOL    HW2 9661   9.093  13.213  11.964
 2608SOL     OW 9662   3.496   1.403   5.115
 2608SOL    HW1 9663   3.535   1.381   5.031
 2608SOL    HW2 9664   3.570   1.412   5.174
 2609SOL     OW 9665  13.114   3.583   3.271
 2609SOL    HW1 9666  13.188   3.603   3.330
 2609SOL    HW2 9667  13.140   3.621   3.187
 2610SOL     OW 9668  13.368   0.823   5.562
 2610SOL    HW1 9669  13.450   0.773   5.559
 2610SOL    HW2 9670  13.365   0.870   5.479
 2611SOL     OW 9671   8.118  10.650   0.140
 2611SOL    HW1 9672   8.043  10.701   0.171
 2611SOL    HW2 9673   8.184  10.660   0.209
 2612SOL     OW 9674   1.243   1.400   9.072
 2612SOL    HW1 9675   1.263   1.322   9.123
 2612SOL    HW2 9676   1.157   1.383   9.033
 2613SOL     OW 9677   7.614   8.459   6.457
 2613SOL    HW1 9678   7.600   8.367   6.436
 2613SOL    HW2 9679   7.579   8.469   6.545
 2614SOL     OW 9680   1.380   0.655   7.554
 2614SOL    HW1 9681   1.305   0.646   7.495
 2614SOL    HW2 9682   1.413   0.744   7.538
 2615SOL     OW 9683   4.774   7.245   8.035
 2615SOL    HW1 9684   4.829   7.317   8.004
 2615SOL    HW2 9685   4.834   7.173   8.050
 2616SOL     OW 9686   4.648   5.819   9.142
 2616SOL    HW1 9687   4.723   5.869   9.108
 2616SOL    HW2 9688   4.683   5.730   9.153
 2617SOL     OW 9689   9.219  10.368   6.700
 2617SOL    HW1 9690   9.299  10.420   6.686
 2617SOL    HW2 9691   9.247  10.294   6.753
 2618SOL     OW 9692   3.059  10.019   4.833
 2618SOL    HW1 9693   3.054  10.049   4.924
 2618SOL    HW2 9694   3.077   9.926   4.839
 2619SOL     OW 9695   6.817   4.465  10.979
 2619SOL    HW1 9696   6.754   4.407  10.937
 2619SOL    HW2 9697   6.837   4.531  10.912
 2620SOL     OW 9698   2.807   6.032  14.620
 2620SOL    HW1 9699   2.749   5.967  14.579
 2620SOL    HW2 9700   2.771   6.116  14.593
 2621SOL     OW 9701   5.498   7.278  12.349
 2621SOL    HW1 9702   5.405   7.259  12.361
 2621SOL    HW2 9703   5.500   7.361  12.301
 2622SOL     OW 9704   3.342   5.662   0.544
 2622SOL    HW1 9705   3.333   5.634   0.635
 2622SOL    HW2 9706   3.261   5.631   0.502
 2623SOL     OW 9707   5.867   4.190   6.217
 2623SOL    HW1 9708   5.922   4.231   6.150
 2623SOL    HW2 9709   5.791   4.247   6.223
 2624SOL     OW 9710  10.510   3.133   5.219
 2624SOL    HW1 9711  10.542   3.093   5.138
 2624SOL    HW2 9712  10.509   3.227   5.200
 2625SOL     OW 9713   3.097   8.685   7.509
 2625SOL    HW1 9714   3.181   8.646   7.535
 2625SOL    HW2 9715   3.121   8.768   7.468
 2626SOL     OW 9716  11.990  10.251   7.076
 2626SOL    HW1 9717  11.931  10.184   7.111
 2626SOL    HW2 9718  12.076  10.227   7.109
 2627SOL     OW 9719   4.728   5.078   5.896
 2627SOL    HW1 9720   4.650   5.069   5.841
 2627SOL    HW2 9721   4.753   4.988   5.917
 2628SOL     OW 9722   6.148   5.438  11.138
 2628SOL    HW1 9723   6.236   5.434  11.101
 2628SOL    HW2 9724   6.091   5.409  11.067
 2629SOL     OW 9725  14.797   2.921   8.825
 2629SOL    HW1 9726  14.729   2.892   8.886
 2629SOL    HW2 9727  14.793   3.017   8.829
 2630SOL     OW 9728   9.647  11.497   7.568
 2630SOL    HW1 9729   9.723  11.548   7.542
 2630SOL    HW2 9730   9.573  11.538   7.523
 2631SOL     OW 9731   7.300   2.693   1.736
 2631SOL    HW1 9732   7.220   2.663   1.780
 2631SOL    HW2 9733   7.297   2.651   1.650
 2632SOL     OW 9734  12.855   4.450   4.043
 2632SOL    HW1 9735  12.859   4.361   4.079
 2632SOL    HW2 9736  12.767   4.481   4.065
 2633SOL     OW 9737   1.450   7.008  13.058
 2633SOL    HW1 9738   1.509   7.081  13.038
 2633SOL    HW2 9739   1.385   7.046  13.117
 2634SOL     OW 9740   0.004   4.758   7.594
 2634SOL    HW1 9741  14.855   4.848   7.618
 2634SOL    HW2 9742   0.000   4.710   7.676
 2635SOL     OW 9743   1.542   5.174   5.925
 2635SOL    HW1 9744   1.493   5.204   5.848
 2635SOL    HW2 9745   1.618   5.233   5.929
 2636SOL     OW 9746   2.738   8.883   2.413
 2636SOL    HW1 9747   2.646   8.867   2.394
 2636SOL    HW2 9748   2.780   8.797   2.406
 2637SOL     OW 9749   9.429   5.813  14.627
 2637SOL    HW1 9750   9.520   5.800  14.652
 2637SOL    HW2 9751   9.413   5.906  14.641
 2638SOL     OW 9752   3.908   4.490  11.239
 2638SOL    HW1 9753   3.847   4.547  11.192
 2638SOL    HW2 9754   3.881   4.402  11.214
 2639SOL     OW 9755  12.079   7.569   4.741
 2639SOL    HW1 9756  12.116   7.645   4.786
 2639SOL    HW2 9757  12.125   7.566   4.657
 2640SOL     OW 9758   4.990  11.855   4.191
 2640SOL    HW1 9759   4.953  11.902   4.117
 2640SOL    HW2 9760   5.043  11.786   4.151
 2641SOL     OW 9761   3.541   4.957   1.955
 2641SOL    HW1 9762   3.461   4.912   1.929
 2641SOL    HW2 9763   3.582   4.983   1.873
 2642SOL     OW 9764   3.569   7.578  12.079
 2642SOL    HW1 9765   3.655   7.613  12.056
 2642SOL    HW2 9766   3.513   7.656  12.086
 2643SOL     OW 9767   0.815   3.209   6.745
 2643SOL    HW1 9768   0.797   3.260   6.666
 2643SOL    HW2 9769   0.879   3.143   6.717
 2644SOL     OW 9770   9.593  14.366  12.448
 2644SOL    HW1 9771   9.588  14.327  12.535
 2644SOL    HW2 9772   9.517  14.330  12.401
 2645SOL     OW 9773   0.241   8.091   5.270
 2645SOL    HW1 9774   0.184   8.027   5.227
 2645SOL    HW2 9775   0.330   8.061   5.251
 2646SOL     OW 9776   2.411   8.834  12.104
 2646SOL    HW1 9777   2.505   8.846  12.089
 2646SOL    HW2 9778   2.392   8.886  12.182
 2647SOL     OW 9779  12.596  11.593   8.742
 2647SOL    HW1 9780  12.504  11.616   8.729
 2647SOL    HW2 9781  12.641  11.676   8.756
 2648SOL     OW 9782  13.832   7.646   4.702
 2648SOL    HW1 9783  13.797   7.734   4.688
 2648SOL    HW2 9784  13.857   7.615   4.615
 2649SOL     OW 9785   9.646   5.006  13.974
 2649SOL    HW1 9786   9.574   4.954  13.939
 2649SOL    HW2 9787   9.725   4.961  13.944
 2650SOL     OW 9788   1.808   8.875  10.105
 2650SOL    HW1 9789   1.813   8.828  10.188
 2650SOL    HW2 9790   1.899   8.879  10.075
 2651SOL     OW 9791  10.286   6.647   7.880
 2651SOL    HW1 9792  10.305   6.715   7.815
 2651SOL    HW2 9793  10.206   6.677   7.924
 2652SOL     OW 9794   7.563  12.765   9.766
 2652SOL    HW1 9795   7.659  12.771   9.768
 2652SOL    HW2 9796   7.541  12.709   9.840
 2653SOL     OW 9797  12.541   7.319   3.354
 2653SOL    HW1 9798  12.595   7.241   3.361
 2653SOL    HW2 9799  12.571   7.362   3.274
 2654SOL     OW 9800   5.722  11.773   3.219
 2654SOL    HW1 9801   5.808  11.772   3.260
 2654SOL    HW2 9802   5.720  11.854   3.169
 2655SOL     OW 9803   6.788   9.798  11.737
 2655SOL    HW1 9804   6.712   9.822  11.789
 2655SOL    HW2 9805   6.787   9.859  11.664
 2656SOL     OW 9806  10.559   1.576  12.469
 2656SOL    HW1 9807  10.473   1.606  12.441
 2656SOL    HW2 9808  10.596   1.651  12.516
 2657SOL     OW 9809  13.583   3.012  10.627
 2657SOL    HW1 9810  13.628   3.009  10.712
 2657SOL    HW2 9811  13.642   2.965  10.567
 2658SOL     OW 9812   7.868  10.632   5.868
 2658SOL    HW1 9813   7.926  10.566   5.904
 2658SOL    HW2 9814   7.905  10.651   5.781
 2659SOL     OW 9815   8.405  12.077   2.201
 2659SOL    HW1 9816   8.341  12.145   2.180
 2659SOL    HW2 9817   8.362  12.023   2.268
 2660SOL     OW 9818  12.978  10.459  13.416
 2660SOL    HW1 9819  13.015  10.414  13.341
 2660SOL    HW2 9820  12.884  10.440  13.411
 2661SOL     OW 9821  11.619   8.714   1.480
 2661SOL    HW1 9822  11.652   8.734   1.568
 2661SOL    HW2 9823  11.671   8.639   1.452
 2662SOL     OW 9824   4.127   8.382   3.783
 2662SOL    HW1 9825   4.073   8.307   3.757
 2662SOL    HW2 9826   4.149   8.365   3.874
 2663SOL     OW 9827  11.479   0.664   3.516
 2663SOL    HW1 9828  11.538   0.733   3.544
 2663SOL    HW2 9829  11.504   0.645   3.426
 2664SOL     OW 9830   2.308  14.824   8.152
 2664SOL    HW1 9831   2.270  14.829   8.064
 2664SOL    HW2 9832   2.292  14.734   8.180
 2665SOL     OW 9833   9.835   0.192   1.609
 2665SOL    HW1 9834   9.808   0.101   1.594
 2665SOL    HW2 9835   9.930   0.190   1.604
 2666SOL     OW 9836   2.007   7.927   1.294
 2666SOL    HW1 9837   2.004   7.833   1.280
 2666SOL    HW2 9838   2.022   7.936   1.389
 2667SOL     OW 9839   2.256   2.769   5.220
 2667SOL    HW1 9840   2.162   2.765   5.237
 2667SOL    HW2 9841   2.266   2.732   5.133
 2668SOL     OW 9842   6.494  12.742   2.026
 2668SOL    HW1 9843   6.586  12.764   2.032
 2668SOL    HW2 9844   6.493  12.650   1.997
 2669SOL     OW 9845  13.289   9.459   0.011
 2669SOL    HW1 9846  13.351   9.390  14.865
 2669SOL    HW2 9847  13.206   9.431  14.847
 2670SOL     OW 9848   1.026   3.306   2.129
 2670SOL    HW1 9849   0.992   3.384   2.173
 2670SOL    HW2 9850   1.023   3.237   2.196
 2671SOL     OW 9851  10.273   5.411   9.205
 2671SOL    HW1 9852  10.317   5.357   9.270
 2671SOL    HW2 9853  10.197   5.360   9.178
 2672SOL     OW 9854   2.619   1.598  12.039
 2672SOL    HW1 9855   2.636   1.508  12.011
 2672SOL    HW2 9856   2.638   1.598  12.132
 2673SOL     OW 9857  12.500   9.278  10.659
 2673SOL    HW1 9858  12.516   9.303  10.568
 2673SOL    HW2 9859  12.510   9.182  10.660
 2674SOL     OW 9860  14.709  10.616  14.457
 2674SOL    HW1 9861  14.784  10.666  14.424
 2674SOL    HW2 9862  14.670  10.674  14.523
 2675SOL     OW 9863   1.998   7.292   4.145
 2675SOL    HW1 9864   2.079   7.307   4.098
 2675SOL    HW2 9865   2.025   7.260   4.231
 2676SOL     OW 9866  10.972  12.530   0.772
 2676SOL    HW1 9867  11.064  12.504   0.772
 2676SOL    HW2 9868  10.950  12.537   0.679
 2677SOL     OW 9869   7.451   3.146   3.621
 2677SOL    HW1 9870   7.507   3.074   3.594
 2677SOL    HW2 9871   7.372   3.104   3.656
 2678SOL     OW 9872   0.481  11.697   6.765
 2678SOL    HW1 9873   0.447  11.737   6.845
 2678SOL    HW2 9874   0.404  11.658   6.723
 2679SOL     OW 9875   8.887   6.277   2.871
 2679SOL    HW1 9876   8.816   6.281   2.807
 2679SOL    HW2 9877   8.926   6.190   2.858
 2680SOL     OW 9878   5.276  10.671  14.765
 2680SOL    HW1 9879   5.354  10.641  14.720
 2680SOL    HW2 9880   5.288  10.643  14.856
 2681SOL     OW 9881   7.489   0.375   5.238
 2681SOL    HW1 9882   7.401   0.405   5.214
 2681SOL    HW2 9883   7.541   0.386   5.159
 2682SOL     OW 9884   4.366   1.089   6.884
 2682SOL    HW1 9885   4.371   1.172   6.931
 2682SOL    HW2 9886   4.341   1.113   6.795
 2683SOL     OW 9887  11.282  10.397   4.489
 2683SOL    HW1 9888  11.302  10.355   4.573
 2683SOL    HW2 9889  11.311  10.487   4.500
 2684SOL     OW 9890   3.304   3.691   2.366
 2684SOL    HW1 9891   3.323   3.602   2.396
 2684SOL    HW2 9892   3.211   3.689   2.344
 2685SOL     OW 9893   4.672   8.298  14.512
 2685SOL    HW1 9894   4.755   8.320  14.470
 2685SOL    HW2 9895   4.632   8.233  14.453
 2686SOL     OW 9896   7.541   9.040   7.818
 2686SOL    HW1 9897   7.525   9.048   7.912
 2686SOL    HW2 9898   7.617   9.096   7.802
 2687SOL     OW 9899  13.536   4.041   2.673
 2687SOL    HW1 9900  13.609   4.104   2.672
 2687SOL    HW2 9901  13.460   4.092   2.644
 2688SOL     OW 9902  11.273  11.918  10.598
 2688SOL    HW1 9903  11.362  11.891  10.575
 2688SOL    HW2 9904  11.281  12.012  10.615
 2689SOL     OW 9905   1.607  13.976   7.173
 2689SOL    HW1 9906   1.632  14.067   7.191
 2689SOL    HW2 9907   1.659  13.952   7.097
 2690SOL     OW 9908   8.796   3.431   1.330
 2690SOL    HW1 9909   8.747   3.364   1.281
 2690SOL    HW2 9910   8.855   3.469   1.265
 2691SOL     OW 9911   1.098   6.302   1.803
 2691SOL    HW1 9912   1.146   6.370   1.757
 2691SOL    HW2 9913   1.166   6.246   1.842
 2692SOL     OW 9914   8.638  13.192  11.886
 2692SOL    HW1 9915   8.615  13.103  11.913
 2692SOL    HW2 9916   8.727  13.204  11.920
 2693SOL     OW 9917   4.032   0.301   9.129
 2693SOL    HW1 9918   3.972   0.301   9.203
 2693SOL    HW2 9919   3.999   0.232   9.071
 2694SOL     OW 9920   1.747  12.584   6.877
 2694SOL    HW1 9921   1.828  12.576   6.927
 2694SOL    HW2 9922   1.679  12.555   6.938
 2695SOL     OW 9923   7.820   9.890   1.404
 2695SOL    HW1 9924   7.845   9.890   1.496
 2695SOL    HW2 9925   7.883   9.832   1.362
 2696SOL     OW 9926   7.537  10.708   6.081
 2696SOL    HW1 9927   7.595  10.709   6.158
 2696SOL    HW2 9928   7.488  10.790   6.087
 2697SOL     OW 9929  13.067  11.620   3.487
 2697SOL    HW1 9930  12.984  11.665   3.471
 2697SOL    HW2 9931  13.062  11.594   3.579
 2698SOL     OW 9932  11.020   8.319  14.094
 2698SOL    HW1 9933  11.099   8.267  14.080
 2698SOL    HW2 9934  10.968   8.268  14.156
 2699SOL     OW 9935  12.647   1.664   3.359
 2699SOL    HW1 9936  12.567   1.645   3.310
 2699SOL    HW2 9937  12.631   1.626   3.446
 2700SOL     OW 9938   0.445   4.390   6.632
 2700SOL    HW1 9939   0.424   4.311   6.582
 2700SOL    HW2 9940   0.372   4.450   6.613
 2701SOL     OW 9941   5.640   1.526   3.534
 2701SOL    HW1 9942   5.689   1.452   3.568
 2701SOL    HW2 9943   5.556   1.489   3.508
 2702SOL     OW 9944   2.988  13.768   0.611
 2702SOL    HW1 9945   3.080  13.753   0.590
 2702SOL    HW2 9946   2.950  13.680   0.619
 2703SOL     OW 9947   7.871  12.523   5.053
 2703SOL    HW1 9948   7.954  12.551   5.092
 2703SOL    HW2 9949   7.896  12.464   4.982
 2704SOL     OW 9950  11.046   0.097   7.313
 2704SOL    HW1 9951  10.956   0.094   7.347
 2704SOL    HW2 9952  11.063   0.008   7.283
 2705SOL     OW 9953   3.140   8.311   7.153
 2705SOL    HW1 9954   3.171   8.324   7.242
 2705SOL    HW2 9955   3.214   8.336   7.098
 2706SOL     OW 9956   0.326   8.732   3.897
 2706SOL    HW1 9957   0.246   8.776   3.865
 2706SOL    HW2 9958   0.354   8.786   3.971
 2707SOL     OW 9959   4.864  13.418  13.497
 2707SOL    HW1 9960   4.881  13.339  13.548
 2707SOL    HW2 9961   4.948  13.463  13.495
 2708SOL     OW 9962  13.506   6.562   0.121
 2708SOL    HW1 9963  13.427   6.508   0.118
 2708SOL    HW2 9964  13.500   6.618   0.043
 2709SOL     OW 9965   6.099   2.792  11.786
 2709SOL    HW1 9966   6.162   2.864  11.796
 2709SOL    HW2 9967   6.019   2.835  11.757
 2710SOL     OW 9968  14.678  14.282   4.548
 2710SOL    HW1 9969  14.677  14.330   4.465
 2710SOL    HW2 9970  14.716  14.197   4.526
 2711SOL     OW 9971   2.617   2.518   2.256
 2711SOL    HW1 9972   2.625   2.435   2.209
 2711SOL    HW2 9973   2.682   2.575   2.215
 2712SOL     OW 9974   3.960   2.605   9.131
 2712SOL    HW1 9975   3.890   2.616   9.066
 2712SOL    HW2 9976   4.006   2.688   9.131
 2713SOL     OW 9977  12.738  12.398  13.467
 2713SOL    HW1 9978  12.721  12.489  13.495
 2713SOL    HW2 9979  12.676  12.383  13.396
 2714SOL     OW 9980   8.897   2.336  13.712
 2714SOL    HW1 9981   8.914   2.353  13.619
 2714SOL    HW2 9982   8.905   2.241  13.721
 2715SOL     OW 9983  11.493  13.685  13.280
 2715SOL    HW1 9984  11.471  13.600  13.242
 2715SOL    HW2 9985  11.517  13.666  13.370
 2716SOL     OW 9986  12.249   6.426   4.140
 2716SOL    HW1 9987  12.285   6.338   4.127
 2716SOL    HW2 9988  12.290   6.479   4.071
 2717SOL     OW 9989  14.431   9.758   7.263
 2717SOL    HW1 9990  14.368   9.706   7.313
 2717SOL    HW2 9991  14.428   9.722   7.175
 2718SOL     OW 9992   3.945   3.425   3.493
 2718SOL    HW1 9993   3.999   3.504   3.491
 2718SOL    HW2 9994   4.008   3.354   3.480
 2719SOL     OW 9995   5.307  13.880   6.999
 2719SOL    HW1 9996   5.235  13.830   7.036
 2719SOL    HW2 9997   5.265  13.959   6.963
 2720SOL     OW 9998   2.822  13.716   6.915
 2720SOL    HW1 9999   2.776  13.642   6.953
 2720SOL    HW210000   2.753  13.776   6.886
 2721SOL     OW10001   6.384   0.828   5.782
 2721SOL    HW110002   6.353   0.745   5.745
 2721SOL    HW210003   6.441   0.802   5.854
 2722SOL     OW10004   3.164   3.554   3.728
 2722SOL    HW110005   3.108   3.477   3.740
 2722SOL    HW210006   3.228   3.527   3.662
 2723SOL     OW10007   1.747   5.729  14.504
 2723SOL    HW110008   1.765   5.770  14.588
 2723SOL    HW210009   1.654   5.742  14.490
 2724SOL     OW10010   2.640   0.903  13.118
 2724SOL    HW110011   2.698   0.972  13.085
 2724SOL    HW210012   2.678   0.822  13.083
 2725SOL     OW10013   8.054  11.887   0.166
 2725SOL    HW110014   8.053  11.967   0.220
 2725SOL    HW210015   7.993  11.828   0.210
 2726SOL     OW10016   5.985   3.835   4.863
 2726SOL    HW110017   6.047   3.807   4.796
 2726SOL    HW210018   5.965   3.926   4.840
 2727SOL     OW10019   5.292   9.685   0.135
 2727SOL    HW110020   5.270   9.605   0.182
 2727SOL    HW210021   5.380   9.670   0.101
 2728SOL     OW10022   9.090   4.516   3.261
 2728SOL    HW110023   9.095   4.600   3.307
 2728SOL    HW210024   9.002   4.514   3.224
 2729SOL     OW10025  13.825   8.065  13.984
 2729SOL    HW110026  13.840   8.155  13.953
 2729SOL    HW210027  13.888   8.053  14.055
 2730SOL     OW10028  11.597  14.372  11.784
 2730SOL    HW110029  11.538  14.447  11.777
 2730SOL    HW210030  11.677  14.409  11.823
 2731SOL     OW10031   5.185   3.310  11.157
 2731SOL    HW110032   5.214   3.314  11.065
 2731SOL    HW210033   5.264   3.289  11.206
 2732SOL     OW10034   1.224  12.513   0.932
 2732SOL    HW110035   1.149  12.562   0.900
 2732SOL    HW210036   1.296  12.537   0.873
 2733SOL     OW10037  12.448   7.736  12.437
 2733SOL    HW110038  12.514   7.709  12.501
 2733SOL    HW210039  12.368   7.693  12.466
 2734SOL     OW10040   8.756   8.898   4.528
 2734SOL    HW110041   8.752   8.824   4.468
 2734SOL    HW210042   8.757   8.975   4.471
 2735SOL     OW10043  11.311  13.733   2.401
 2735SOL    HW110044  11.401  13.763   2.391
 2735SOL    HW210045  11.318  13.638   2.411
 2736SOL     OW10046   6.347   9.126   0.573
 2736SOL    HW110047   6.327   9.208   0.619
 2736SOL    HW210048   6.317   9.057   0.632
 2737SOL     OW10049   3.051   8.240   8.849
 2737SOL    HW110050   3.120   8.226   8.913
 2737SOL    HW210051   3.025   8.152   8.822
 2738SOL     OW10052  13.188   8.174   7.981
 2738SOL    HW110053  13.233   8.190   7.898
 2738SOL    HW210054  13.258   8.179   8.047
 2739SOL     OW10055   1.503   0.884   8.797
 2739SOL    HW110056   1.452   0.851   8.723
 2739SOL    HW210057   1.543   0.965   8.764
 2740SOL     OW10058   1.364   7.676  13.971
 2740SOL    HW110059   1.276   7.709  13.950
 2740SOL    HW210060   1.361   7.658  14.065
 2741SOL     OW10061  14.196   5.235   3.580
 2741SOL    HW110062  14.164   5.325   3.589
 2741SOL    HW210063  14.126   5.182   3.619
 2742SOL     OW10064   9.049  12.544   3.186
 2742SOL    HW110065   9.122  12.483   3.171
 2742SOL    HW210066   9.010  12.556   3.100
 2743SOL     OW10067   9.639  10.767   5.549
 2743SOL    HW110068   9.648  10.673   5.564
 2743SOL    HW210069   9.704  10.787   5.482
 2744SOL     OW10070   5.969   5.167   4.710
 2744SOL    HW110071   5.936   5.256   4.720
 2744SOL    HW210072   5.973   5.153   4.616
 2745SOL     OW10073   9.407  11.200  12.937
 2745SOL    HW110074   9.326  11.167  12.899
 2745SOL    HW210075   9.420  11.149  13.016
 2746SOL     OW10076   6.070   5.228  13.208
 2746SOL    HW110077   6.074   5.319  13.235
 2746SOL    HW210078   6.047   5.180  13.287
 2747SOL     OW10079  13.970   9.860  11.202
 2747SOL    HW110080  13.958   9.842  11.295
 2747SOL    HW210081  13.964   9.774  11.160
 2748SOL     OW10082  10.479  10.787  11.349
 2748SOL    HW110083  10.498  10.865  11.401
 2748SOL    HW210084  10.448  10.722  11.412
 2749SOL     OW10085  10.276   4.304   8.327
 2749SOL    HW110086  10.188   4.317   8.291
 2749SOL    HW210087  10.295   4.385   8.374
 2750SOL     OW10088  11.600   5.613  10.803
 2750SOL    HW110089  11.558   5.691  10.839
 2750SOL    HW210090  11.665   5.646  10.741
 2751SOL     OW10091  13.604   0.889   3.592
 2751SOL    HW110092  13.608   0.872   3.498
 2751SOL    HW210093  13.512   0.913   3.608
 2752SOL     OW10094   0.890   7.171  13.453
 2752SOL    HW110095   0.814   7.126  13.416
 2752SOL    HW210096   0.854   7.245  13.500
 2753SOL     OW10097   4.405  13.670  14.407
 2753SOL    HW110098   4.405  13.766  14.401
 2753SOL    HW210099   4.317  13.644  14.378
 2754SOL     OW10100   4.707   2.170   0.197
 2754SOL    HW110101   4.716   2.179   0.102
 2754SOL    HW210102   4.641   2.235   0.221
 2755SOL     OW10103   9.149   4.946   1.909
 2755SOL    HW110104   9.081   4.964   1.843
 2755SOL    HW210105   9.123   4.999   1.984
 2756SOL     OW10106  10.263   7.458   8.329
 2756SOL    HW110107  10.229   7.468   8.418
 2756SOL    HW210108  10.206   7.393   8.289
 2757SOL     OW10109   4.038  14.111   3.589
 2757SOL    HW110110   3.949  14.116   3.625
 2757SOL    HW210111   4.081  14.189   3.622
 2758SOL     OW10112   1.886   1.443   8.746
 2758SOL    HW110113   1.941   1.454   8.669
 2758SOL    HW210114   1.878   1.348   8.756
 2759SOL     OW10115  13.002   0.407  10.512
 2759SOL    HW110116  13.004   0.464  10.589
 2759SOL    HW210117  12.917   0.363  10.516
 2760SOL     OW10118   4.433   3.601   3.840
 2760SOL    HW110119   4.528   3.604   3.851
 2760SOL    HW210120   4.399   3.576   3.926
 2761SOL     OW10121  10.351  10.316   9.857
 2761SOL    HW110122  10.447  10.311   9.860
 2761SOL    HW210123  10.332  10.365   9.777
 2762SOL     OW10124   8.200   7.072   3.022
 2762SOL    HW110125   8.176   7.165   3.029
 2762SOL    HW210126   8.147   7.029   3.090
 2763SOL     OW10127   6.106  11.645   9.998
 2763SOL    HW110128   6.069  11.563  10.032
 2763SOL    HW210129   6.043  11.674   9.932
 2764SOL     OW10130   9.389   6.290   2.729
 2764SOL    HW110131   9.474   6.296   2.685
 2764SOL    HW210132   9.339   6.226   2.678
 2765SOL     OW10133   7.196   5.069   5.840
 2765SOL    HW110134   7.101   5.064   5.833
 2765SOL    HW210135   7.218   5.159   5.817
 2766SOL     OW10136  11.255   7.195   4.816
 2766SOL    HW110137  11.284   7.286   4.814
 2766SOL    HW210138  11.184   7.191   4.751
 2767SOL     OW10139  13.144   9.556   7.803
 2767SOL    HW110140  13.181   9.606   7.875
 2767SOL    HW210141  13.220   9.526   7.753
 2768SOL     OW10142   7.185   8.356   8.625
 2768SOL    HW110143   7.092   8.377   8.627
 2768SOL    HW210144   7.217   8.380   8.712
 2769SOL     OW10145   1.032  12.221   4.470
 2769SOL    HW110146   0.946  12.253   4.495
 2769SOL    HW210147   1.055  12.158   4.537
 2770SOL     OW10148   7.274   4.061   2.569
 2770SOL    HW110149   7.341   4.086   2.634
 2770SOL    HW210150   7.323   4.012   2.503
 2771SOL     OW10151   7.355   6.798  14.421
 2771SOL    HW110152   7.448   6.790  14.400
 2771SOL    HW210153   7.325   6.708  14.431
 2772SOL     OW10154   0.995   2.577   9.077
 2772SOL    HW110155   1.053   2.650   9.097
 2772SOL    HW210156   1.023   2.507   9.136
 2773SOL     OW10157   8.364   7.102   8.875
 2773SOL    HW110158   8.271   7.094   8.895
 2773SOL    HW210159   8.388   7.190   8.905
 2774SOL     OW10160   9.508   3.993   5.092
 2774SOL    HW110161   9.468   3.907   5.091
 2774SOL    HW210162   9.448   4.048   5.142
 2775SOL     OW10163  12.786   5.542   7.866
 2775SOL    HW110164  12.763   5.602   7.936
 2775SOL    HW210165  12.836   5.473   7.909
 2776SOL     OW10166   2.969  11.140   5.983
 2776SOL    HW110167   3.029  11.084   5.933
 2776SOL    HW210168   2.888  11.140   5.931
 2777SOL     OW10169  13.564   0.525   4.269
 2777SOL    HW110170  13.646   0.489   4.238
 2777SOL    HW210171  13.588   0.608   4.310
 2778SOL     OW10172   5.254  14.564   6.212
 2778SOL    HW110173   5.195  14.502   6.256
 2778SOL    HW210174   5.221  14.650   6.238
 2779SOL     OW10175  12.825  10.774  11.637
 2779SOL    HW110176  12.845  10.682  11.649
 2779SOL    HW210177  12.815  10.785  11.543
 2780SOL     OW10178  10.560  10.374   2.874
 2780SOL    HW110179  10.580  10.339   2.961
 2780SOL    HW210180  10.617  10.449   2.864
 2781SOL     OW10181   6.038   0.453  11.831
 2781SOL    HW110182   6.029   0.443  11.736
 2781SOL    HW210183   6.125   0.417  11.850
 2782SOL     OW10184   7.196   7.103   5.597
 2782SOL    HW110185   7.199   7.163   5.672
 2782SOL    HW210186   7.186   7.160   5.521
 2783SOL     OW10187   2.571  11.676   0.534
 2783SOL    HW110188   2.570  11.766   0.568
 2783SOL    HW210189   2.620  11.682   0.452
 2784SOL     OW10190   6.712  14.722  13.771
 2784SOL    HW110191   6.713  14.813  13.741
 2784SOL    HW210192   6.804  14.695  13.769
 2785SOL     OW10193  10.978  14.002   9.566
 2785SOL    HW110194  10.956  14.095   9.557
 2785SOL    HW210195  11.069  13.996   9.536
 2786SOL     OW10196   3.365   3.788  12.671
 2786SOL    HW110197   3.319   3.866  12.702
 2786SOL    HW210198   3.300   3.741  12.618
 2787SOL     OW10199   2.520   9.690  10.419
 2787SOL    HW110200   2.583   9.684  10.348
 2787SOL    HW210201   2.560   9.642  10.492
 2788SOL     OW10202  13.828  11.497  13.270
 2788SOL    HW110203  13.747  11.504  13.219
 2788SOL    HW210204  13.800  11.464  13.355
 2789SOL     OW10205  10.954  13.475   5.669
 2789SOL    HW110206  11.038  13.520   5.674
 2789SOL    HW210207  10.907  13.504   5.748
 2790SOL     OW10208  12.325   5.449  12.147
 2790SOL    HW110209  12.235   5.481  12.147
 2790SOL    HW210210  12.376   5.523  12.114
 2791SOL     OW10211   4.733   6.226  13.911
 2791SOL    HW110212   4.645   6.200  13.939
 2791SOL    HW210213   4.785   6.146  13.919
 2792SOL     OW10214   6.801  14.363   0.242
 2792SOL    HW110215   6.717  14.368   0.289
 2792SOL    HW210216   6.779  14.385   0.152
 2793SOL     OW10217   9.836  11.110   3.027
 2793SOL    HW110218   9.830  11.032   3.082
 2793SOL    HW210219   9.746  11.127   2.999
 2794SOL     OW10220  11.332  13.571  14.737
 2794SOL    HW110221  11.246  13.598  14.770
 2794SOL    HW210222  11.335  13.477  14.751
 2795SOL     OW10223   0.709   6.533   5.553
 2795SOL    HW110224   0.690   6.621   5.523
 2795SOL    HW210225   0.763   6.545   5.631
 2796SOL     OW10226   3.277   1.936   5.197
 2796SOL    HW110227   3.312   2.015   5.158
 2796SOL    HW210228   3.339   1.914   5.267
 2797SOL     OW10229  10.586   9.200   0.866
 2797SOL    HW110230  10.516   9.263   0.847
 2797SOL    HW210231  10.565   9.124   0.812
 2798SOL     OW10232   4.891  13.807  14.238
 2798SOL    HW110233   4.803  13.842  14.221
 2798SOL    HW210234   4.944  13.839  14.165
 2799SOL     OW10235  13.197  11.691  14.585
 2799SOL    HW110236  13.255  11.733  14.648
 2799SOL    HW210237  13.124  11.752  14.575
 2800SOL     OW10238  12.305   1.163   5.628
 2800SOL    HW110239  12.238   1.176   5.695
 2800SOL    HW210240  12.303   1.069   5.611
 2801SOL     OW10241   3.749   6.656   1.630
 2801SOL    HW110242   3.810   6.654   1.704
 2801SOL    HW210243   3.783   6.592   1.568
 2802SOL     OW10244   0.442  12.768   5.046
 2802SOL    HW110245   0.391  12.687   5.038
 2802SOL    HW210246   0.390  12.823   5.104
 2803SOL     OW10247   5.977  11.927   1.619
 2803SOL    HW110248   5.971  11.972   1.703
 2803SOL    HW210249   6.038  11.981   1.568
 2804SOL     OW10250   0.541   7.902  10.865
 2804SOL    HW110251   0.563   7.987  10.825
 2804SOL    HW210252   0.541   7.841  10.792
 2805SOL     OW10253   9.204   8.849   1.087
 2805SOL    HW110254   9.257   8.885   1.158
 2805SOL    HW210255   9.267   8.810   1.028
 2806SOL     OW10256   3.409   3.083   9.833
 2806SOL    HW110257   3.400   3.116   9.744
 2806SOL    HW210258   3.500   3.057   9.840
 2807SOL     OW10259  14.316   3.528   1.209
 2807SOL    HW110260  14.347   3.579   1.134
 2807SOL    HW210261  14.244   3.476   1.173
 2808SOL     OW10262  13.698   2.784  12.080
 2808SOL    HW110263  13.610   2.800  12.114
 2808SOL    HW210264  13.749   2.758  12.157
 2809SOL     OW10265   2.539   4.848  11.640
 2809SOL    HW110266   2.588   4.791  11.581
 2809SOL    HW210267   2.515   4.793  11.714
 2810SOL     OW10268   7.717   6.869  10.428
 2810SOL    HW110269   7.717   6.833  10.340
 2810SOL    HW210270   7.797   6.835  10.469
 2811SOL     OW10271  10.484   0.550  13.385
 2811SOL    HW110272  10.429   0.622  13.355
 2811SOL    HW210273  10.506   0.573  13.475
 2812SOL     OW10274   1.972   6.123   1.699
 2812SOL    HW110275   1.881   6.150   1.686
 2812SOL    HW210276   1.998   6.165   1.781
 2813SOL     OW10277  11.144   3.355   3.197
 2813SOL    HW110278  11.059   3.315   3.179
 2813SOL    HW210279  11.154   3.351   3.292
 2814SOL     OW10280   8.988  10.871   0.920
 2814SOL    HW110281   8.972  10.791   0.971
 2814SOL    HW210282   8.925  10.867   0.848
 2815SOL     OW10283  10.715  13.918  12.561
 2815SOL    HW110284  10.738  13.896  12.651
 2815SOL    HW210285  10.673  14.003  12.567
 2816SOL     OW10286  10.290   9.553   1.345
 2816SOL    HW110287  10.278   9.472   1.395
 2816SOL    HW210288  10.201   9.576   1.316
 2817SOL     OW10289  10.721  12.765   0.655
 2817SOL    HW110290  10.687  12.684   0.616
 2817SOL    HW210291  10.733  12.744   0.747
 2818SOL     OW10292  13.519  10.913   2.338
 2818SOL    HW110293  13.584  10.971   2.378
 2818SOL    HW210294  13.558  10.887   2.255
 2819SOL     OW10295   6.960  10.170   7.524
 2819SOL    HW110296   6.986  10.255   7.490
 2819SOL    HW210297   6.866  10.164   7.505
 2820SOL     OW10298   6.345  10.387   6.449
 2820SOL    HW110299   6.352  10.305   6.497
 2820SOL    HW210300   6.360  10.455   6.514
 2821SOL     OW10301   4.135   8.980   2.509
 2821SOL    HW110302   4.147   8.900   2.457
 2821SOL    HW210303   4.147   9.051   2.446
 2822SOL     OW10304   8.678   9.872   7.572
 2822SOL    HW110305   8.625   9.906   7.643
 2822SOL    HW210306   8.700   9.949   7.519
 2823SOL     OW10307   0.262   2.034  10.958
 2823SOL    HW110308   0.293   2.100  11.020
 2823SOL    HW210309   0.224   2.085  10.886
 2824SOL     OW10310   9.510   3.721   7.753
 2824SOL    HW110311   9.543   3.651   7.697
 2824SOL    HW210312   9.583   3.740   7.813
 2825SOL     OW10313  12.456  13.955   1.599
 2825SOL    HW110314  12.475  13.884   1.539
 2825SOL    HW210315  12.432  13.912   1.681
 2826SOL     OW10316   9.737  13.824  14.362
 2826SOL    HW110317   9.787  13.895  14.322
 2826SOL    HW210318   9.788  13.746  14.344
 2827SOL     OW10319   2.817  12.264   1.747
 2827SOL    HW110320   2.772  12.233   1.668
 2827SOL    HW210321   2.815  12.360   1.739
 2828SOL     OW10322  12.470   2.865   0.828
 2828SOL    HW110323  12.520   2.819   0.761
 2828SOL    HW210324  12.396   2.904   0.781
 2829SOL     OW10325   8.704   0.181  14.804
 2829SOL    HW110326   8.655   0.257  14.838
 2829SOL    HW210327   8.637   0.123  14.769
 2830SOL     OW10328  13.867   6.356   9.386
 2830SOL    HW110329  13.791   6.369   9.330
 2830SOL    HW210330  13.832   6.359   9.475
 2831SOL     OW10331   5.608   2.374   4.781
 2831SOL    HW110332   5.680   2.423   4.819
 2831SOL    HW210333   5.613   2.287   4.821
 2832SOL     OW10334   9.669   0.243   9.478
 2832SOL    HW110335   9.755   0.214   9.511
 2832SOL    HW210336   9.656   0.329   9.518
 2833SOL     OW10337   7.410   4.549  11.501
 2833SOL    HW110338   7.473   4.619  11.515
 2833SOL    HW210339   7.330   4.581  11.542
 2834SOL     OW10340   5.779   7.113  11.854
 2834SOL    HW110341   5.771   7.018  11.857
 2834SOL    HW210342   5.870   7.130  11.881
 2835SOL     OW10343  13.291   6.878  10.396
 2835SOL    HW110344  13.323   6.790  10.412
 2835SOL    HW210345  13.344   6.911  10.324
 2836SOL     OW10346  10.651  13.776  11.411
 2836SOL    HW110347  10.712  13.805  11.478
 2836SOL    HW210348  10.673  13.827  11.334
 2837SOL     OW10349   8.479   0.035   1.702
 2837SOL    HW110350   8.386   0.048   1.722
 2837SOL    HW210351   8.518   0.121   1.712
 2838SOL     OW10352   2.815   1.959   0.561
 2838SOL    HW110353   2.796   2.022   0.492
 2838SOL    HW210354   2.761   1.987   0.635
 2839SOL     OW10355   9.568   5.707   7.855
 2839SOL    HW110356   9.510   5.772   7.817
 2839SOL    HW210357   9.608   5.751   7.930
 2840SOL     OW10358   5.454  13.370   7.879
 2840SOL    HW110359   5.443  13.443   7.819
 2840SOL    HW210360   5.426  13.293   7.829
 2841SOL     OW10361   2.359  10.751  12.165
 2841SOL    HW110362   2.390  10.806  12.093
 2841SOL    HW210363   2.293  10.804  12.209
 2842SOL     OW10364   7.612   4.606   9.892
 2842SOL    HW110365   7.608   4.584   9.985
 2842SOL    HW210366   7.525   4.587   9.859
 2843SOL     OW10367   6.840   2.138   8.444
 2843SOL    HW110368   6.926   2.113   8.412
 2843SOL    HW210369   6.827   2.085   8.523
 2844SOL     OW10370   4.435   6.013   6.675
 2844SOL    HW110371   4.515   5.960   6.666
 2844SOL    HW210372   4.415   6.041   6.586
 2845SOL     OW10373   2.192  14.486   3.460
 2845SOL    HW110374   2.284  14.508   3.448
 2845SOL    HW210375   2.156  14.560   3.509
 2846SOL     OW10376  12.894   9.419   7.893
 2846SOL    HW110377  12.975   9.461   7.863
 2846SOL    HW210378  12.834   9.492   7.909
 2847SOL     OW10379   2.665   0.263   6.727
 2847SOL    HW110380   2.581   0.217   6.718
 2847SOL    HW210381   2.702   0.262   6.638
 2848SOL     OW10382   3.820  12.832   4.478
 2848SOL    HW110383   3.757  12.899   4.504
 2848SOL    HW210384   3.905  12.868   4.503
 2849SOL     OW10385   7.092   4.796   7.554
 2849SOL    HW110386   7.156   4.794   7.626
 2849SOL    HW210387   7.098   4.709   7.515
 2850SOL     OW10388   7.529  10.082   6.366
 2850SOL    HW110389   7.559  10.127   6.287
 2850SOL    HW210390   7.494   9.999   6.335
 2851SOL     OW10391  13.030   5.149   3.588
 2851SOL    HW110392  12.974   5.221   3.616
 2851SOL    HW210393  13.026   5.151   3.492
 2852SOL     OW10394   7.688   2.989   1.238
 2852SOL    HW110395   7.677   3.039   1.319
 2852SOL    HW210396   7.780   3.000   1.215
 2853SOL     OW10397   2.495   4.806  12.003
 2853SOL    HW110398   2.416   4.822  12.055
 2853SOL    HW210399   2.465   4.759  11.925
 2854SOL     OW10400  12.686   2.644   8.486
 2854SOL    HW110401  12.766   2.696   8.481
 2854SOL    HW210402  12.615   2.708   8.475
 2855SOL     OW10403  12.689  10.917   7.859
 2855SOL    HW110404  12.716  10.922   7.951
 2855SOL    HW210405  12.593  10.920   7.862
 2856SOL     OW10406   7.442   0.435  14.134
 2856SOL    HW110407   7.372   0.421  14.071
 2856SOL    HW210408   7.413   0.510  14.186
 2857SOL     OW10409   7.375   8.510   9.692
 2857SOL    HW110410   7.470   8.517   9.697
 2857SOL    HW210411   7.356   8.419   9.715
 2858SOL     OW10412   9.623   6.669   6.494
 2858SOL    HW110413   9.579   6.716   6.423
 2858SOL    HW210414   9.610   6.724   6.571
 2859SOL     OW10415   4.424   1.822   1.667
 2859SOL    HW110416   4.361   1.822   1.596
 2859SOL    HW210417   4.442   1.729   1.684
 2860SOL     OW10418   3.501   7.436   9.180
 2860SOL    HW110419   3.586   7.476   9.160
 2860SOL    HW210420   3.500   7.355   9.129
 2861SOL     OW10421   0.076   5.279   9.188
 2861SOL    HW110422   0.054   5.323   9.106
 2861SOL    HW210423   0.160   5.236   9.171
 2862SOL     OW10424  13.132   7.199   3.086
 2862SOL    HW110425  13.198   7.130   3.095
 2862SOL    HW210426  13.121   7.209   2.991
 2863SOL     OW10427  13.779   6.100  14.598
 2863SOL    HW110428  13.770   6.113  14.504
 2863SOL    HW210429  13.872   6.081  14.611
 2864SOL     OW10430   0.847   8.418   7.757
 2864SOL    HW110431   0.826   8.367   7.835
 2864SOL    HW210432   0.938   8.397   7.739
 2865SOL     OW10433   4.727   3.011   7.151
 2865SOL    HW110434   4.788   2.954   7.104
 2865SOL    HW210435   4.720   2.973   7.238
 2866SOL     OW10436  11.782   6.739   9.419
 2866SOL    HW110437  11.874   6.762   9.404
 2866SOL    HW210438  11.752   6.803   9.483
 2867SOL     OW10439  11.360   2.104  13.070
 2867SOL    HW110440  11.387   2.169  13.134
 2867SOL    HW210441  11.404   2.129  12.989
 2868SOL     OW10442   8.098  12.304  11.724
 2868SOL    HW110443   8.175  12.259  11.759
 2868SOL    HW210444   8.025  12.267  11.773
 2869SOL     OW10445   5.489   6.339   7.650
 2869SOL    HW110446   5.395   6.354   7.660
 2869SOL    HW210447   5.498   6.245   7.636
 2870SOL     OW10448   5.892   8.960  12.758
 2870SOL    HW110449   5.907   9.032  12.698
 2870SOL    HW210450   5.803   8.931  12.741
 2871SOL     OW10451   4.134   4.483   5.786
 2871SOL    HW110452   4.094   4.399   5.806
 2871SOL    HW210453   4.212   4.487   5.842
 2872SOL     OW10454   3.938  11.284  14.676
 2872SOL    HW110455   3.989  11.287  14.596
 2872SOL    HW210456   3.960  11.365  14.723
 2873SOL     OW10457   4.737   1.029   8.395
 2873SOL    HW110458   4.710   1.049   8.305
 2873SOL    HW210459   4.711   0.938   8.407
 2874SOL     OW10460   7.695  14.743   0.829
 2874SOL    HW110461   7.725  14.819   0.780
 2874SOL    HW210462   7.694  14.772   0.920
 2875SOL     OW10463   3.169   4.606   2.955
 2875SOL    HW110464   3.189   4.669   3.024
 2875SOL    HW210465   3.111   4.542   2.996
 2876SOL     OW10466  10.570   8.916  12.287
 2876SOL    HW110467  10.632   8.981  12.254
 2876SOL    HW210468  10.585   8.838  12.233
 2877SOL     OW10469  10.241   5.141  14.757
 2877SOL    HW110470  10.195   5.223  14.738
 2877SOL    HW210471  10.242   5.093  14.674
 2878SOL     OW10472   7.515   4.041   7.516
 2878SOL    HW110473   7.488   4.056   7.606
 2878SOL    HW210474   7.608   4.018   7.521
 2879SOL     OW10475   2.991  10.589  12.978
 2879SOL    HW110476   2.966  10.614  12.889
 2879SOL    HW210477   3.078  10.549  12.968
 2880SOL     OW10478   8.706  10.839   6.091
 2880SOL    HW110479   8.648  10.784   6.143
 2880SOL    HW210480   8.793  10.819   6.123
 2881SOL     OW10481   8.309   3.030  10.625
 2881SOL    HW110482   8.333   2.951  10.673
 2881SOL    HW210483   8.234   3.003  10.571
 2882SOL     OW10484   7.926   2.241   6.583
 2882SOL    HW110485   7.886   2.180   6.644
 2882SOL    HW210486   7.878   2.323   6.596
 2883SOL     OW10487   4.758   1.595  11.319
 2883SOL    HW110488   4.796   1.634  11.398
 2883SOL    HW210489   4.695   1.660  11.288
 2884SOL     OW10490  14.553   9.179   2.602
 2884SOL    HW110491  14.474   9.233   2.610
 2884SOL    HW210492  14.597   9.212   2.524
 2885SOL     OW10493  10.499   1.216   6.367
 2885SOL    HW110494  10.527   1.127   6.385
 2885SOL    HW210495  10.414   1.208   6.324
 2886SOL     OW10496  13.141  11.822  10.801
 2886SOL    HW110497  13.189  11.740  10.792
 2886SOL    HW210498  13.058  11.807  10.756
 2887SOL     OW10499   3.382   0.214   4.905
 2887SOL    HW110500   3.436   0.210   4.984
 2887SOL    HW210501   3.333   0.296   4.914
 2888SOL     OW10502  11.306   6.055   4.123
 2888SOL    HW110503  11.219   6.018   4.136
 2888SOL    HW210504  11.303   6.096   4.036
 2889SOL     OW10505   0.057   7.565  11.268
 2889SOL    HW110506   0.110   7.637  11.235
 2889SOL    HW210507  14.871   7.546  11.198
 2890SOL     OW10508   4.343  14.352  13.143
 2890SOL    HW110509   4.258  14.351  13.100
 2890SOL    HW210510   4.325  14.327  13.233
 2891SOL     OW10511  10.430   5.173  11.011
 2891SOL    HW110512  10.348   5.205  11.047
 2891SOL    HW210513  10.497   5.229  11.049
 2892SOL     OW10514   1.812   6.880   1.323
 2892SOL    HW110515   1.864   6.958   1.304
 2892SOL    HW210516   1.797   6.839   1.238
 2893SOL     OW10517   0.154  11.617   5.695
 2893SOL    HW110518   0.130  11.650   5.782
 2893SOL    HW210519   0.249  11.610   5.697
 2894SOL     OW10520   1.854  14.547  14.601
 2894SOL    HW110521   1.810  14.554  14.685
 2894SOL    HW210522   1.946  14.565  14.621
 2895SOL     OW10523   4.570   8.517   5.611
 2895SOL    HW110524   4.595   8.558   5.694
 2895SOL    HW210525   4.530   8.588   5.561
 2896SOL     OW10526  10.349  13.667   1.949
 2896SOL    HW110527  10.299  13.707   1.877
 2896SOL    HW210528  10.356  13.575   1.924
 2897SOL     OW10529   1.528   8.451   9.848
 2897SOL    HW110530   1.458   8.410   9.900
 2897SOL    HW210531   1.565   8.518   9.906
 2898SOL     OW10532  10.701   2.496  13.342
 2898SOL    HW110533  10.755   2.474  13.418
 2898SOL    HW210534  10.612   2.505  13.378
 2899SOL     OW10535   9.404  10.855   5.689
 2899SOL    HW110536   9.462  10.810   5.627
 2899SOL    HW210537   9.319  10.812   5.677
 2900SOL     OW10538   7.059   0.929  10.290
 2900SOL    HW110539   7.007   1.006  10.266
 2900SOL    HW210540   7.048   0.921  10.384
 2901SOL     OW10541   8.931  13.876  13.436
 2901SOL    HW110542   8.985  13.848  13.362
 2901SOL    HW210543   8.935  13.802  13.497
 2902SOL     OW10544  12.066   2.784   2.237
 2902SOL    HW110545  12.087   2.869   2.199
 2902SOL    HW210546  12.147   2.756   2.280
 2903SOL     OW10547  14.044   8.340   6.079
 2903SOL    HW110548  13.975   8.329   6.014
 2903SOL    HW210549  14.108   8.272   6.057
 2904SOL     OW10550   3.511   4.780   9.920
 2904SOL    HW110551   3.521   4.874   9.929
 2904SOL    HW210552   3.533   4.745  10.007
 2905SOL     OW10553   9.190  11.868  12.115
 2905SOL    HW110554   9.233  11.946  12.079
 2905SOL    HW210555   9.131  11.903  12.182
 2906SOL     OW10556   8.131   4.210   0.748
 2906SOL    HW110557   8.105   4.302   0.742
 2906SOL    HW210558   8.084   4.176   0.824
 2907SOL     OW10559  14.448  12.523   7.555
 2907SOL    HW110560  14.406  12.443   7.588
 2907SOL    HW210561  14.382  12.591   7.568
 2908SOL     OW10562   8.488   4.828  10.243
 2908SOL    HW110563   8.426   4.771  10.197
 2908SOL    HW210564   8.453   4.833  10.332
 2909SOL     OW10565  14.712   0.099   6.526
 2909SOL    HW110566  14.749   0.183   6.500
 2909SOL    HW210567  14.696   0.053   6.444
 2910SOL     OW10568   0.145   7.265  11.162
 2910SOL    HW110569   0.061   7.245  11.121
 2910SOL    HW210570   0.140   7.358  11.183
 2911SOL     OW10571   8.049  12.674   4.187
 2911SOL    HW110572   7.998  12.598   4.161
 2911SOL    HW210573   8.017  12.696   4.275
 2912SOL     OW10574   2.307  10.190  10.688
 2912SOL    HW110575   2.324  10.229  10.602
 2912SOL    HW210576   2.285  10.264  10.744
 2913SOL     OW10577   2.934   0.841  11.668
 2913SOL    HW110578   2.999   0.771  11.671
 2913SOL    HW210579   2.850   0.797  11.682
 2914SOL     OW10580  14.590  13.276  12.754
 2914SOL    HW110581  14.589  13.181  12.743
 2914SOL    HW210582  14.527  13.308  12.690
 2915SOL     OW10583  14.289  11.785   4.488
 2915SOL    HW110584  14.312  11.877   4.472
 2915SOL    HW210585  14.257  11.754   4.403
 2916SOL     OW10586  10.505   3.776   6.900
 2916SOL    HW110587  10.601   3.781   6.895
 2916SOL    HW210588  10.477   3.867   6.910
 2917SOL     OW10589   4.290  13.381   9.975
 2917SOL    HW110590   4.359  13.328   9.935
 2917SOL    HW210591   4.334  13.464   9.998
 2918SOL     OW10592   2.656   4.108  14.593
 2918SOL    HW110593   2.698   4.088  14.677
 2918SOL    HW210594   2.690   4.041  14.533
 2919SOL     OW10595  11.994  13.186   8.764
 2919SOL    HW110596  12.004  13.161   8.673
 2919SOL    HW210597  12.078  13.165   8.805
 2920SOL     OW10598  14.426   5.916   8.034
 2920SOL    HW110599  14.436   6.003   7.997
 2920SOL    HW210600  14.400   5.861   7.960
 2921SOL     OW10601  10.514   0.336   8.654
 2921SOL    HW110602  10.435   0.389   8.647
 2921SOL    HW210603  10.555   0.364   8.736
 2922SOL     OW10604   3.147  13.207   7.640
 2922SOL    HW110605   3.131  13.247   7.725
 2922SOL    HW210606   3.147  13.113   7.657
 2923SOL     OW10607   6.271   7.858   6.996
 2923SOL    HW110608   6.206   7.798   6.960
 2923SOL    HW210609   6.353   7.835   6.951
 2924SOL     OW10610   3.580   7.553   2.005
 2924SOL    HW110611   3.648   7.590   2.061
 2924SOL    HW210612   3.621   7.545   1.919
 2925SOL     OW10613   7.127   0.622   6.921
 2925SOL    HW110614   7.045   0.575   6.931
 2925SOL    HW210615   7.179   0.597   6.997
 2926SOL     OW10616   1.714   5.121   9.356
 2926SOL    HW110617   1.755   5.133   9.442
 2926SOL    HW210618   1.787   5.124   9.294
 2927SOL     OW10619  12.131  12.610   2.448
 2927SOL    HW110620  12.121  12.515   2.447
 2927SOL    HW210621  12.103  12.638   2.360
 2928SOL     OW10622   0.182   3.228  10.059
 2928SOL    HW110623   0.206   3.203  10.148
 2928SOL    HW210624   0.196   3.148  10.008
 2929SOL     OW10625   4.676   7.119  10.433
 2929SOL    HW110626   4.580   7.113  10.440
 2929SOL    HW210627   4.708   7.072  10.510
 2930SOL     OW10628   1.643  12.219  14.838
 2930SOL    HW110629   1.643  12.295   0.020
 2930SOL    HW210630   1.735  12.200  14.823
 2931SOL     OW10631  10.297   1.854   8.264
 2931SOL    HW110632  10.319   1.765   8.238
 2931SOL    HW210633  10.203   1.851   8.284
 2932SOL     OW10634   2.410   8.216  14.818
 2932SOL    HW110635   2.482   8.225  14.755
 2932SOL    HW210636   2.367   8.134  14.794
 2933SOL     OW10637   4.226   8.349  14.815
 2933SOL    HW110638   4.203   8.355   0.031
 2933SOL    HW210639   4.320   8.335  14.814
 2934SOL     OW10640   4.811   6.738   1.137
 2934SOL    HW110641   4.885   6.689   1.173
 2934SOL    HW210642   4.848   6.785   1.063
 2935SOL     OW10643  11.252   9.479  14.420
 2935SOL    HW110644  11.248   9.384  14.405
 2935SOL    HW210645  11.273   9.516  14.334
 2936SOL     OW10646  14.504  10.386   2.905
 2936SOL    HW110647  14.549  10.471   2.904
 2936SOL    HW210648  14.424  10.401   2.856
 2937SOL     OW10649   4.937   2.601  10.234
 2937SOL    HW110650   5.014   2.649  10.264
 2937SOL    HW210651   4.893   2.574  10.315
 2938SOL     OW10652  10.161  10.294  11.204
 2938SOL    HW110653  10.140  10.201  11.211
 2938SOL    HW210654  10.122  10.334  11.281
 2939SOL     OW10655  12.849  12.307  13.694
 2939SOL    HW110656  12.843  12.383  13.752
 2939SOL    HW210657  12.802  12.334  13.615
 2940SOL     OW10658   9.587  13.015  11.813
 2940SOL    HW110659   9.645  12.961  11.867
 2940SOL    HW210660   9.622  13.104  11.824
 2941SOL     OW10661   7.218  10.584   9.598
 2941SOL    HW110662   7.205  10.493   9.622
 2941SOL    HW210663   7.130  10.623   9.602
 2942SOL     OW10664   0.534  12.626  14.521
 2942SOL    HW110665   0.523  12.583  14.436
 2942SOL    HW210666   0.573  12.711  14.500
 2943SOL     OW10667  13.655  11.214  13.350
 2943SOL    HW110668  13.714  11.236  13.422
 2943SOL    HW210669  13.706  11.231  13.271
 2944SOL     OW10670   4.535  12.166  11.447
 2944SOL    HW110671   4.500  12.247  11.409
 2944SOL    HW210672   4.458  12.115  11.472
 2945SOL     OW10673   4.691  14.162   9.636
 2945SOL    HW110674   4.710  14.231   9.572
 2945SOL    HW210675   4.765  14.165   9.697
 2946SOL     OW10676   2.652  11.567  10.676
 2946SOL    HW110677   2.719  11.600  10.616
 2946SOL    HW210678   2.666  11.617  10.756
 2947SOL     OW10679  14.804  14.839  10.060
 2947SOL    HW110680  14.779  14.836  10.152
 2947SOL    HW210681  14.727  14.808  10.013
 2948SOL     OW10682   0.375   4.760   5.914
 2948SOL    HW110683   0.304   4.706   5.878
 2948SOL    HW210684   0.349   4.850   5.894
 2949SOL     OW10685   7.755  14.266  10.193
 2949SOL    HW110686   7.691  14.254  10.123
 2949SOL    HW210687   7.789  14.354  10.180
 2950SOL     OW10688  11.239   4.896   2.942
 2950SOL    HW110689  11.286   4.914   3.023
 2950SOL    HW210690  11.147   4.909   2.964
 2951SOL     OW10691   2.315   3.902   6.173
 2951SOL    HW110692   2.373   3.949   6.114
 2951SOL    HW210693   2.369   3.882   6.249
 2952SOL     OW10694   4.156   6.179   2.950
 2952SOL    HW110695   4.179   6.105   2.894
 2952SOL    HW210696   4.145   6.141   3.037
 2953SOL     OW10697   2.097   9.146   8.932
 2953SOL    HW110698   2.094   9.238   8.908
 2953SOL    HW210699   2.006   9.117   8.928
 2954SOL     OW10700   7.801  13.877   1.590
 2954SOL    HW110701   7.802  13.789   1.627
 2954SOL    HW210702   7.851  13.870   1.509
 2955SOL     OW10703   9.693  10.447   8.875
 2955SOL    HW110704   9.784  10.478   8.875
 2955SOL    HW210705   9.681  10.411   8.787
 2956SOL     OW10706   3.505  13.811   3.113
 2956SOL    HW110707   3.502  13.716   3.099
 2956SOL    HW210708   3.598  13.830   3.127
 2957SOL     OW10709   9.883  11.762   3.402
 2957SOL    HW110710   9.835  11.844   3.417
 2957SOL    HW210711   9.965  11.791   3.363
 2958SOL     OW10712   1.154   5.957   7.202
 2958SOL    HW110713   1.188   6.046   7.193
 2958SOL    HW210714   1.193   5.925   7.283
 2959SOL     OW10715   9.905   1.021   3.590
 2959SOL    HW110716   9.887   0.958   3.659
 2959SOL    HW210717   9.818   1.047   3.557
 2960SOL     OW10718   0.323   0.579   7.730
 2960SOL    HW110719   0.264   0.594   7.804
 2960SOL    HW210720   0.273   0.524   7.669
 2961SOL     OW10721   6.470   2.059   5.566
 2961SOL    HW110722   6.452   1.996   5.635
 2961SOL    HW210723   6.545   2.024   5.519
 2962SOL     OW10724   6.504   1.046  13.986
 2962SOL    HW110725   6.413   1.055  13.955
 2962SOL    HW210726   6.548   0.999  13.916
 2963SOL     OW10727   8.570   3.923   8.367
 2963SOL    HW110728   8.495   3.880   8.408
 2963SOL    HW210729   8.637   3.855   8.363
 2964SOL     OW10730  13.440   3.019   5.936
 2964SOL    HW110731  13.379   3.060   5.997
 2964SOL    HW210732  13.392   3.014   5.853
 2965SOL     OW10733   5.628  12.355  13.112
 2965SOL    HW110734   5.658  12.284  13.055
 2965SOL    HW210735   5.704  12.375  13.167
 2966SOL     OW10736   2.781   2.351  10.524
 2966SOL    HW110737   2.844   2.282  10.502
 2966SOL    HW210738   2.715   2.308  10.578
 2967SOL     OW10739  10.674  11.166  14.611
 2967SOL    HW110740  10.660  11.077  14.643
 2967SOL    HW210741  10.740  11.202  14.671
 2968SOL     OW10742   0.896   1.750   5.199
 2968SOL    HW110743   0.953   1.746   5.275
 2968SOL    HW210744   0.882   1.843   5.183
 2969SOL     OW10745  12.130  12.743   8.381
 2969SOL    HW110746  12.086  12.690   8.315
 2969SOL    HW210747  12.145  12.683   8.454
 2970SOL     OW10748   2.325   4.466   6.082
 2970SOL    HW110749   2.328   4.467   5.987
 2970SOL    HW210750   2.348   4.555   6.108
 2971SOL     OW10751   5.448  14.875   2.004
 2971SOL    HW110752   5.387  14.866   1.931
 2971SOL    HW210753   5.518  14.813   1.985
 2972SOL     OW10754   9.638  13.618  10.428
 2972SOL    HW110755   9.685  13.622  10.511
 2972SOL    HW210756   9.649  13.704  10.389
 2973SOL     OW10757   2.321  10.241   0.423
 2973SOL    HW110758   2.249  10.302   0.439
 2973SOL    HW210759   2.365  10.234   0.508
 2974SOL     OW10760   7.324   7.028   0.675
 2974SOL    HW110761   7.380   7.099   0.706
 2974SOL    HW210762   7.362   7.002   0.592
 2975SOL     OW10763  12.915  14.218   6.875
 2975SOL    HW110764  12.863  14.177   6.805
 2975SOL    HW210765  12.852  14.272   6.923
 2976SOL     OW10766   7.717   6.783   0.707
 2976SOL    HW110767   7.797   6.748   0.668
 2976SOL    HW210768   7.748   6.832   0.784
 2977SOL     OW10769  11.239  12.681   1.923
 2977SOL    HW110770  11.166  12.625   1.951
 2977SOL    HW210771  11.226  12.763   1.970
 2978SOL     OW10772   3.832   8.989   0.350
 2978SOL    HW110773   3.813   8.940   0.270
 2978SOL    HW210774   3.757   8.973   0.407
 2979SOL     OW10775  13.452   5.701   7.857
 2979SOL    HW110776  13.445   5.707   7.953
 2979SOL    HW210777  13.463   5.608   7.840
 2980SOL     OW10778  10.079   1.669   0.155
 2980SOL    HW110779  10.064   1.759   0.125
 2980SOL    HW210780  10.174   1.658   0.150
 2981SOL     OW10781   3.122   3.184   5.594
 2981SOL    HW110782   3.127   3.157   5.503
 2981SOL    HW210783   3.111   3.103   5.643
 2982SOL     OW10784   1.009   1.374   7.568
 2982SOL    HW110785   1.012   1.362   7.663
 2982SOL    HW210786   0.916   1.369   7.546
 2983SOL     OW10787  12.549   6.924   2.893
 2983SOL    HW110788  12.625   6.981   2.878
 2983SOL    HW210789  12.584   6.850   2.942
 2984SOL     OW10790   4.264   6.020  11.542
 2984SOL    HW110791   4.329   5.958  11.577
 2984SOL    HW210792   4.268   6.094  11.602
 2985SOL     OW10793   1.410   1.391   1.250
 2985SOL    HW110794   1.400   1.404   1.156
 2985SOL    HW210795   1.386   1.300   1.265
 2986SOL     OW10796  10.811  12.704  11.345
 2986SOL    HW110797  10.791  12.651  11.268
 2986SOL    HW210798  10.786  12.793  11.321
 2987SOL     OW10799   2.822  13.073  12.216
 2987SOL    HW110800   2.906  13.097  12.177
 2987SOL    HW210801   2.800  13.147  12.273
 2988SOL     OW10802   4.266   4.738   1.043
 2988SOL    HW110803   4.317   4.668   1.084
 2988SOL    HW210804   4.195   4.692   0.997
 2989SOL     OW10805   4.144   2.782  11.630
 2989SOL    HW110806   4.147   2.746  11.719
 2989SOL    HW210807   4.217   2.739  11.584
 2990SOL     OW10808  12.967  10.061   0.512
 2990SOL    HW110809  12.908  10.130   0.543
 2990SOL    HW210810  13.006  10.025   0.591
 2991SOL     OW10811  10.222   8.486   4.356
 2991SOL    HW110812  10.291   8.454   4.414
 2991SOL    HW210813  10.153   8.420   4.362
 2992SOL     OW10814   5.635   4.771   1.752
 2992SOL    HW110815   5.635   4.797   1.845
 2992SOL    HW210816   5.637   4.854   1.705
 2993SOL     OW10817   4.907   8.098   6.927
 2993SOL    HW110818   4.879   8.137   6.844
 2993SOL    HW210819   5.003   8.100   6.923
 2994SOL     OW10820   6.408  14.644  12.274
 2994SOL    HW110821   6.443  14.696  12.201
 2994SOL    HW210822   6.325  14.609  12.241
 2995SOL     OW10823  13.847   7.489   6.298
 2995SOL    HW110824  13.917   7.548   6.323
 2995SOL    HW210825  13.881   7.401   6.316
 2996SOL     OW10826   1.590   9.632   1.718
 2996SOL    HW110827   1.612   9.552   1.670
 2996SOL    HW210828   1.656   9.636   1.787
 2997SOL     OW10829  13.173   6.343   2.787
 2997SOL    HW110830  13.095   6.290   2.803
 2997SOL    HW210831  13.152   6.395   2.710
 2998SOL     OW10832  12.408   2.380  13.155
 2998SOL    HW110833  12.468   2.452  13.171
 2998SOL    HW210834  12.457   2.301  13.179
 2999SOL     OW10835   5.830   4.368  11.445
 2999SOL    HW110836   5.924   4.369  11.426
 2999SOL    HW210837   5.818   4.438  11.509
 3000SOL     OW10838   5.578   6.716  11.623
 3000SOL    HW110839   5.634   6.741  11.696
 3000SOL    HW210840   5.509   6.663  11.662
 3001SOL     OW10841   8.914   9.874   1.140
 3001SOL    HW110842   8.897   9.827   1.222
 3001SOL    HW210843   8.828   9.881   1.099
 3002SOL     OW10844  10.685  13.892   2.059
 3002SOL    HW110845  10.624  13.865   2.128
 3002SOL    HW210846  10.749  13.821   2.054
 3003SOL     OW10847   6.847   0.014  12.260
 3003SOL    HW110848   6.933   0.051  12.283
 3003SOL    HW210849   6.847  14.805  12.302
 3004SOL     OW10850  14.661   7.016  10.677
 3004SOL    HW110851  14.630   7.088  10.622
 3004SOL    HW210852  14.747   7.045  10.708
 3005SOL     OW10853   7.524  11.306   6.437
 3005SOL    HW110854   7.537  11.400   6.448
 3005SOL    HW210855   7.548  11.289   6.346
 3006SOL     OW10856  14.303   8.687  12.411
 3006SOL    HW110857  14.286   8.774  12.375
 3006SOL    HW210858  14.236   8.632  12.372
 3007SOL     OW10859   1.261   3.245  12.680
 3007SOL    HW110860   1.349   3.279  12.700
 3007SOL    HW210861   1.272   3.150  12.683
 3008SOL     OW10862  11.104   0.471   6.759
 3008SOL    HW110863  11.163   0.396   6.767
 3008SOL    HW210864  11.152   0.544   6.798
 3009SOL     OW10865  11.791  11.071   5.174
 3009SOL    HW110866  11.736  11.044   5.248
 3009SOL    HW210867  11.738  11.134   5.126
 3010SOL     OW10868  12.411   2.052   7.621
 3010SOL    HW110869  12.433   2.052   7.714
 3010SOL    HW210870  12.478   2.107   7.581
 3011SOL     OW10871   4.154   2.229   5.511
 3011SOL    HW110872   4.220   2.160   5.519
 3011SOL    HW210873   4.203   2.311   5.524
 3012SOL     OW10874   7.210  12.763  11.327
 3012SOL    HW110875   7.137  12.754  11.388
 3012SOL    HW210876   7.174  12.811  11.253
 3013SOL     OW10877   5.717   4.602   6.224
 3013SOL    HW110878   5.753   4.631   6.308
 3013SOL    HW210879   5.676   4.680   6.186
 3014SOL     OW10880   8.538   2.741   9.348
 3014SOL    HW110881   8.535   2.832   9.377
 3014SOL    HW210882   8.605   2.700   9.403
 3015SOL     OW10883   4.426   8.346   3.386
 3015SOL    HW110884   4.468   8.429   3.408
 3015SOL    HW210885   4.414   8.349   3.291
 3016SOL     OW10886   8.004   6.664   3.533
 3016SOL    HW110887   8.044   6.669   3.620
 3016SOL    HW210888   8.079   6.661   3.473
 3017SOL     OW10889  12.522   0.705  13.138
 3017SOL    HW110890  12.515   0.610  13.125
 3017SOL    HW210891  12.433   0.732  13.162
 3018SOL     OW10892   0.855   0.947   5.769
 3018SOL    HW110893   0.920   0.912   5.830
 3018SOL    HW210894   0.893   0.934   5.682
 3019SOL     OW10895  14.162  12.420  10.932
 3019SOL    HW110896  14.187  12.359  11.001
 3019SOL    HW210897  14.237  12.421  10.873
 3020SOL     OW10898   0.230   5.253   1.797
 3020SOL    HW110899   0.143   5.221   1.821
 3020SOL    HW210900   0.288   5.214   1.863
 3021SOL     OW10901   1.067  14.535   5.321
 3021SOL    HW110902   1.139  14.574   5.370
 3021SOL    HW210903   1.074  14.441   5.339
 3022SOL     OW10904   7.891  10.570   4.185
 3022SOL    HW110905   7.880  10.525   4.101
 3022SOL    HW210906   7.982  10.551   4.210
 3023SOL     OW10907  11.235  10.963  12.194
 3023SOL    HW110908  11.212  11.040  12.247
 3023SOL    HW210909  11.256  10.999  12.108
 3024SOL     OW10910   1.802  12.216   8.101
 3024SOL    HW110911   1.808  12.159   8.024
 3024SOL    HW210912   1.760  12.161   8.167
 3025SOL     OW10913  13.414   7.837  11.945
 3025SOL    HW110914  13.338   7.801  11.991
 3025SOL    HW210915  13.446   7.906  12.003
 3026SOL     OW10916   3.471   4.111   5.160
 3026SOL    HW110917   3.544   4.145   5.212
 3026SOL    HW210918   3.454   4.179   5.095
 3027SOL     OW10919  10.039   4.348   1.927
 3027SOL    HW110920  10.066   4.382   1.842
 3027SOL    HW210921   9.993   4.421   1.968
 3028SOL     OW10922  14.243  13.960   9.942
 3028SOL    HW110923  14.237  13.960   9.846
 3028SOL    HW210924  14.187  13.888   9.969
 3029SOL     OW10925  12.184   2.460   9.870
 3029SOL    HW110926  12.155   2.497   9.954
 3029SOL    HW210927  12.130   2.382   9.858
 3030SOL     OW10928   4.535   7.350  14.689
 3030SOL    HW110929   4.526   7.263  14.726
 3030SOL    HW210930   4.455   7.396  14.714
 3031SOL     OW10931  13.098   4.090   9.414
 3031SOL    HW110932  13.179   4.090   9.465
 3031SOL    HW210933  13.110   4.159   9.349
 3032SOL     OW10934   3.250   4.402   2.781
 3032SOL    HW110935   3.240   4.472   2.845
 3032SOL    HW210936   3.253   4.447   2.697
 3033SOL     OW10937   9.230  12.556  10.538
 3033SOL    HW110938   9.255  12.579  10.628
 3033SOL    HW210939   9.221  12.461  10.539
 3034SOL     OW10940   1.957   6.600  13.805
 3034SOL    HW110941   1.922   6.687  13.823
 3034SOL    HW210942   1.952   6.592  13.709
 3035SOL     OW10943   5.664   6.030  10.004
 3035SOL    HW110944   5.752   6.063   9.988
 3035SOL    HW210945   5.678   5.953  10.061
 3036SOL     OW10946  10.424   1.412   2.483
 3036SOL    HW110947  10.419   1.506   2.467
 3036SOL    HW210948  10.334   1.386   2.503
 3037SOL     OW10949  11.645  14.663   8.666
 3037SOL    HW110950  11.740  14.663   8.652
 3037SOL    HW210951  11.619  14.571   8.657
 3038SOL     OW10952   6.528  14.410  10.270
 3038SOL    HW110953   6.578  14.331  10.290
 3038SOL    HW210954   6.445  14.398  10.316
 3039SOL     OW10955  13.694   1.181   3.350
 3039SOL    HW110956  13.615   1.235   3.349
 3039SOL    HW210957  13.722   1.181   3.442
 3040SOL     OW10958  11.719  12.830  10.770
 3040SOL    HW110959  11.769  12.799  10.695
 3040SOL    HW210960  11.715  12.754  10.829
 3041SOL     OW10961   2.439  14.653   2.652
 3041SOL    HW110962   2.435  14.629   2.745
 3041SOL    HW210963   2.533  14.657   2.633
 3042SOL     OW10964   9.822   2.409   9.169
 3042SOL    HW110965   9.755   2.474   9.188
 3042SOL    HW210966   9.804   2.381   9.079
 3043SOL     OW10967  10.626  13.507   3.616
 3043SOL    HW110968  10.640  13.594   3.578
 3043SOL    HW210969  10.532  13.501   3.629
 3044SOL     OW10970   5.975   5.232  11.820
 3044SOL    HW110971   6.006   5.150  11.859
 3044SOL    HW210972   6.025   5.240  11.738
 3045SOL     OW10973  14.825  12.050  14.071
 3045SOL    HW110974   0.036  12.089  14.071
 3045SOL    HW210975  14.793  12.064  13.982
 3046SOL     OW10976   0.986   7.156   4.950
 3046SOL    HW110977   1.073   7.195   4.947
 3046SOL    HW210978   0.999   7.069   4.988
 3047SOL     OW10979   7.831   0.898  14.755
 3047SOL    HW110980   7.760   0.951  14.718
 3047SOL    HW210981   7.787   0.826  14.799
 3048SOL     OW10982  12.015  13.198   6.582
 3048SOL    HW110983  12.037  13.289   6.599
 3048SOL    HW210984  11.941  13.180   6.641
 3049SOL     OW10985   7.478  13.148   4.162
 3049SOL    HW110986   7.419  13.074   4.146
 3049SOL    HW210987   7.509  13.135   4.251
 3050SOL     OW10988   8.637  14.829   1.042
 3050SOL    HW110989   8.627  14.743   1.082
 3050SOL    HW210990   8.687  14.813   0.962
 3051SOL     OW10991   2.475   8.252   9.267
 3051SOL    HW110992   2.407   8.294   9.214
 3051SOL    HW210993   2.427   8.199   9.331
 3052SOL     OW10994  11.754   1.386   7.645
 3052SOL    HW110995  11.829   1.430   7.605
 3052SOL    HW210996  11.722   1.448   7.710
 3053SOL     OW10997   7.469   9.706   4.339
 3053SOL    HW110998   7.527   9.746   4.404
 3053SOL    HW210999   7.457   9.774   4.272
 3054SOL     OW11000   5.958  13.935  14.223
 3054SOL    HW111001   6.010  14.012  14.202
 3054SOL    HW211002   6.011  13.861  14.193
 3055SOL     OW11003   5.740  10.069   2.833
 3055SOL    HW111004   5.689  10.029   2.903
 3055SOL    HW211005   5.805  10.003   2.809
 3056SOL     OW11006   0.938   2.004  11.856
 3056SOL    HW111007   0.899   2.072  11.801
 3056SOL    HW211008   0.953   1.931  11.795
 3057SOL     OW11009   8.610   9.767   9.991
 3057SOL    HW111010   8.607   9.789   9.898
 3057SOL    HW211011   8.696   9.798  10.020
 3058SOL     OW11012   5.371   0.457   4.609
 3058SOL    HW111013   5.360   0.396   4.682
 3058SOL    HW211014   5.452   0.505   4.628
 3059SOL     OW11015  13.831   4.352   1.515
 3059SOL    HW111016  13.925   4.354   1.534
 3059SOL    HW211017  13.811   4.440   1.484
 3060SOL     OW11018  11.408   7.744   4.715
 3060SOL    HW111019  11.493   7.745   4.760
 3060SOL    HW211020  11.360   7.817   4.752
 3061SOL     OW11021   6.203  13.284   6.737
 3061SOL    HW111022   6.179  13.331   6.817
 3061SOL    HW211023   6.133  13.220   6.725
 3062SOL     OW11024  13.332   1.427   5.568
 3062SOL    HW111025  13.323   1.392   5.656
 3062SOL    HW211026  13.284   1.366   5.512
 3063SOL     OW11027  10.379   9.484  14.398
 3063SOL    HW111028  10.432   9.470  14.476
 3063SOL    HW211029  10.310   9.418  14.404
 3064SOL     OW11030  11.565   7.613  11.586
 3064SOL    HW111031  11.580   7.523  11.614
 3064SOL    HW211032  11.625   7.665  11.640
 3065SOL     OW11033  11.690   7.885   9.488
 3065SOL    HW111034  11.722   7.833   9.414
 3065SOL    HW211035  11.701   7.976   9.459
 3066SOL     OW11036   1.946   6.945   1.804
 3066SOL    HW111037   2.022   6.899   1.839
 3066SOL    HW211038   1.937   6.912   1.714
 3067SOL     OW11039  13.574   9.301   3.967
 3067SOL    HW111040  13.522   9.273   3.892
 3067SOL    HW211041  13.519   9.365   4.012
 3068SOL     OW11042  10.165  14.348  10.791
 3068SOL    HW111043  10.132  14.262  10.765
 3068SOL    HW211044  10.254  14.352  10.756
 3069SOL     OW11045   8.571  11.172  11.071
 3069SOL    HW111046   8.561  11.190  11.164
 3069SOL    HW211047   8.481  11.163  11.039
 3070SOL     OW11048  13.680   4.360  10.867
 3070SOL    HW111049  13.689   4.355  10.962
 3070SOL    HW211050  13.627   4.284  10.844
 3071SOL     OW11051   7.277   9.913   5.241
 3071SOL    HW111052   7.322   9.890   5.322
 3071SOL    HW211053   7.323   9.864   5.173
 3072SOL     OW11054   1.853   9.388  12.590
 3072SOL    HW111055   1.945   9.373  12.569
 3072SOL    HW211056   1.805   9.331  12.529
 3073SOL     OW11057   2.744   6.384   7.223
 3073SOL    HW111058   2.693   6.310   7.257
 3073SOL    HW211059   2.723   6.386   7.129
 3074SOL     OW11060   1.127   2.235   4.712
 3074SOL    HW111061   1.111   2.190   4.629
 3074SOL    HW211062   1.056   2.298   4.720
 3075SOL     OW11063   0.446  12.335   3.133
 3075SOL    HW111064   0.468  12.409   3.077
 3075SOL    HW211065   0.351  12.343   3.147
 3076SOL     OW11066  12.864  11.854  13.893
 3076SOL    HW111067  12.954  11.867  13.863
 3076SOL    HW211068  12.825  11.942  13.887
 3077SOL     OW11069   1.301  11.255   7.666
 3077SOL    HW111070   1.276  11.274   7.757
 3077SOL    HW211071   1.396  11.248   7.668
 3078SOL     OW11072   2.952   8.316   0.931
 3078SOL    HW111073   2.908   8.390   0.972
 3078SOL    HW211074   2.891   8.243   0.940
 3079SOL     OW11075  14.800  11.708   0.585
 3079SOL    HW111076  14.749  11.650   0.527
 3079SOL    HW211077  14.789  11.795   0.547
 3080SOL     OW11078   5.146  13.843   8.117
 3080SOL    HW111079   5.223  13.899   8.106
 3080SOL    HW211080   5.086  13.872   8.047
 3081SOL     OW11081   5.268  10.229  10.223
 3081SOL    HW111082   5.197  10.239  10.160
 3081SOL    HW211083   5.318  10.154  10.191
 3082SOL     OW11084   6.328   5.186   7.540
 3082SOL    HW111085   6.330   5.100   7.498
 3082SOL    HW211086   6.420   5.211   7.547
 3083SOL     OW11087  10.460   3.543   0.538
 3083SOL    HW111088  10.480   3.545   0.632
 3083SOL    HW211089  10.511   3.615   0.501
 3084SOL     OW11090   0.096   6.667  12.660
 3084SOL    HW111091   0.025   6.686  12.720
 3084SOL    HW211092   0.056   6.670  12.573
 3085SOL     OW11093   1.239   8.560   8.037
 3085SOL    HW111094   1.313   8.579   8.094
 3085SOL    HW211095   1.251   8.468   8.012
 3086SOL     OW11096  13.305   8.024  13.626
 3086SOL    HW111097  13.396   8.053  13.630
 3086SOL    HW211098  13.309   7.937  13.585
 3087SOL     OW11099  10.265   6.802   8.322
 3087SOL    HW111100  10.293   6.873   8.265
 3087SOL    HW211101  10.341   6.744   8.329
 3088SOL     OW11102   8.059  13.159   9.095
 3088SOL    HW111103   7.966  13.185   9.092
 3088SOL    HW211104   8.061  13.083   9.153
 3089SOL     OW11105  10.044   7.602   4.928
 3089SOL    HW111106  10.033   7.614   4.834
 3089SOL    HW211107   9.959   7.569   4.958
 3090SOL     OW11108  11.330   0.688   1.315
 3090SOL    HW111109  11.330   0.612   1.372
 3090SOL    HW211110  11.418   0.691   1.278
 3091SOL     OW11111  14.651  13.947  13.452
 3091SOL    HW111112  14.616  13.904  13.374
 3091SOL    HW211113  14.726  13.997  13.420
 3092SOL     OW11114  11.480   9.931   7.046
 3092SOL    HW111115  11.568   9.928   7.084
 3092SOL    HW211116  11.422   9.947   7.121
 3093SOL     OW11117   9.152   1.866   8.591
 3093SOL    HW111118   9.223   1.836   8.648
 3093SOL    HW211119   9.094   1.915   8.648
 3094SOL     OW11120  11.486  11.397  11.719
 3094SOL    HW111121  11.407  11.348  11.740
 3094SOL    HW211122  11.456  11.469  11.663
 3095SOL     OW11123   5.349   2.058  13.710
 3095SOL    HW111124   5.337   2.138  13.660
 3095SOL    HW211125   5.330   1.987  13.648
 3096SOL     OW11126   2.961   2.976  13.064
 3096SOL    HW111127   3.002   3.039  13.005
 3096SOL    HW211128   2.988   3.003  13.152
 3097SOL     OW11129  12.254  10.720   5.736
 3097SOL    HW111130  12.298  10.689   5.656
 3097SOL    HW211131  12.297  10.804   5.755
 3098SOL     OW11132   2.544   0.025  13.028
 3098SOL    HW111133   2.634   0.058  13.031
 3098SOL    HW211134   2.503   0.061  13.107
 3099SOL     OW11135   4.843  11.531  11.427
 3099SOL    HW111136   4.803  11.598  11.483
 3099SOL    HW211137   4.804  11.545  11.341
 3100SOL     OW11138   5.315   9.000  13.936
 3100SOL    HW111139   5.401   9.038  13.949
 3100SOL    HW211140   5.278   9.048  13.862
 3101SOL     OW11141  13.471  14.225   6.033
 3101SOL    HW111142  13.511  14.142   6.060
 3101SOL    HW211143  13.544  14.286   6.028
 3102SOL     OW11144   8.668   8.412   6.645
 3102SOL    HW111145   8.613   8.484   6.615
 3102SOL    HW211146   8.621   8.375   6.719
 3103SOL     OW11147   4.259  14.611   2.787
 3103SOL    HW111148   4.293  14.700   2.802
 3103SOL    HW211149   4.166  14.624   2.770
 3104SOL     OW11150   1.879   0.764   4.216
 3104SOL    HW111151   1.918   0.851   4.231
 3104SOL    HW211152   1.924   0.731   4.139
 3105SOL     OW11153   8.734   1.954   3.099
 3105SOL    HW111154   8.795   2.015   3.140
 3105SOL    HW211155   8.771   1.868   3.115
 3106SOL     OW11156  11.313   0.203  13.477
 3106SOL    HW111157  11.294   0.111  13.461
 3106SOL    HW211158  11.379   0.225  13.411
 3107SOL     OW11159  11.479  10.676   6.483
 3107SOL    HW111160  11.459  10.583   6.488
 3107SOL    HW211161  11.541  10.691   6.555
 3108SOL     OW11162   5.883   2.619   6.342
 3108SOL    HW111163   5.884   2.682   6.415
 3108SOL    HW211164   5.965   2.572   6.350
 3109SOL     OW11165   9.445   9.802   9.548
 3109SOL    HW111166   9.363   9.841   9.517
 3109SOL    HW211167   9.469   9.854   9.624
 3110SOL     OW11168  10.541  11.437   4.125
 3110SOL    HW111169  10.622  11.408   4.082
 3110SOL    HW211170  10.529  11.376   4.197
 3111SOL     OW11171   3.144   7.644   9.829
 3111SOL    HW111172   3.234   7.619   9.807
 3111SOL    HW211173   3.141   7.644   9.925
 3112SOL     OW11174  14.382   1.910  12.046
 3112SOL    HW111175  14.476   1.915  12.062
 3112SOL    HW211176  14.354   1.834  12.098
 3113SOL     OW11177   7.572   5.465   4.235
 3113SOL    HW111178   7.643   5.446   4.296
 3113SOL    HW211179   7.604   5.538   4.182
 3114SOL     OW11180  10.455  12.867   1.902
 3114SOL    HW111181  10.416  12.826   1.824
 3114SOL    HW211182  10.490  12.794   1.952
 3115SOL     OW11183   3.051   5.458   3.131
 3115SOL    HW111184   3.045   5.416   3.045
 3115SOL    HW211185   2.968   5.440   3.173
 3116SOL     OW11186   5.368  13.479   9.219
 3116SOL    HW111187   5.402  13.488   9.309
 3116SOL    HW211188   5.332  13.565   9.198
 3117SOL     OW11189   8.844   3.364  12.539
 3117SOL    HW111190   8.929   3.399  12.513
 3117SOL    HW211191   8.790   3.371  12.460
 3118SOL     OW11192   5.010   7.637   6.677
 3118SOL    HW111193   4.984   7.706   6.616
 3118SOL    HW211194   5.021   7.682   6.761
 3119SOL     OW11195  12.741   7.136   1.018
 3119SOL    HW111196  12.731   7.123   1.112
 3119SOL    HW211197  12.756   7.230   1.008
 3120SOL     OW11198  12.389   6.893   6.241
 3120SOL    HW111199  12.360   6.902   6.150
 3120SOL    HW211200  12.310   6.869   6.289
 3121SOL     OW11201   1.173   8.105   5.310
 3121SOL    HW111202   1.156   8.197   5.289
 3121SOL    HW211203   1.107   8.084   5.376
 3122SOL     OW11204  12.441  14.779  10.728
 3122SOL    HW111205  12.459  14.733  10.646
 3122SOL    HW211206  12.366  14.734  10.765
 3123SOL     OW11207   8.694  14.569   0.531
 3123SOL    HW111208   8.665  14.486   0.494
 3123SOL    HW211209   8.613  14.617   0.550
 3124SOL     OW11210   3.555   7.526   6.573
 3124SOL    HW111211   3.586   7.441   6.543
 3124SOL    HW211212   3.462   7.513   6.594
 3125SOL     OW11213   3.854  10.590   9.287
 3125SOL    HW111214   3.880  10.652   9.219
 3125SOL    HW211215   3.923  10.597   9.353
 3126SOL     OW11216   7.820   7.347   8.002
 3126SOL    HW111217   7.860   7.328   7.917
 3126SOL    HW211218   7.768   7.426   7.986
 3127SOL     OW11219   2.518   1.656   4.652
 3127SOL    HW111220   2.578   1.729   4.636
 3127SOL    HW211221   2.439   1.696   4.688
 3128SOL     OW11222   7.092   1.499   4.011
 3128SOL    HW111223   7.089   1.526   4.103
 3128SOL    HW211224   7.001   1.499   3.983
 3129SOL     OW11225   1.804   4.909   8.367
 3129SOL    HW111226   1.788   5.003   8.364
 3129SOL    HW211227   1.719   4.870   8.385
 3130SOL     OW11228  11.929   2.008   2.786
 3130SOL    HW111229  11.931   2.041   2.876
 3130SOL    HW211230  11.843   1.968   2.776
 3131SOL     OW11231   2.067  11.054   8.235
 3131SOL    HW111232   2.143  11.105   8.264
 3131SOL    HW211233   2.104  10.973   8.200
 3132SOL     OW11234   8.410   8.088   5.584
 3132SOL    HW111235   8.357   8.008   5.587
 3132SOL    HW211236   8.381   8.133   5.504
 3133SOL     OW11237   0.012  10.747   3.429
 3133SOL    HW111238   0.057  10.726   3.511
 3133SOL    HW211239  14.797  10.760   3.454
 3134SOL     OW11240   1.609  11.262  10.171
 3134SOL    HW111241   1.573  11.339  10.127
 3134SOL    HW211242   1.540  11.195  10.162
 3135SOL     OW11243  14.239   6.508   9.009
 3135SOL    HW111244  14.335   6.510   9.009
 3135SOL    HW211245  14.217   6.416   8.996
 3136SOL     OW11246   2.970   8.618   5.542
 3136SOL    HW111247   2.891   8.669   5.520
 3136SOL    HW211248   2.937   8.545   5.595
 3137SOL     OW11249  13.810   1.025  11.723
 3137SOL    HW111250  13.898   0.987  11.725
 3137SOL    HW211251  13.751   0.950  11.723
 3138SOL     OW11252   6.700   2.256   2.970
 3138SOL    HW111253   6.647   2.244   3.049
 3138SOL    HW211254   6.680   2.345   2.941
 3139SOL     OW11255   2.331   5.110   4.616
 3139SOL    HW111256   2.347   5.015   4.619
 3139SOL    HW211257   2.379   5.140   4.539
 3140SOL     OW11258  11.247  10.961  13.527
 3140SOL    HW111259  11.216  11.027  13.589
 3140SOL    HW211260  11.185  10.889  13.536
 3141SOL     OW11261   9.884   1.907  13.163
 3141SOL    HW111262   9.955   1.921  13.227
 3141SOL    HW211263   9.888   1.814  13.144
 3142SOL     OW11264   5.079   1.844   5.161
 3142SOL    HW111265   5.016   1.834   5.233
 3142SOL    HW211266   5.099   1.937   5.159
 3143SOL     OW11267  10.322   4.693   7.096
 3143SOL    HW111268  10.384   4.634   7.054
 3143SOL    HW211269  10.326   4.774   7.045
 3144SOL     OW11270   6.802  13.296   7.044
 3144SOL    HW111271   6.739  13.229   7.071
 3144SOL    HW211272   6.813  13.351   7.121
 3145SOL     OW11273   2.735  12.961  11.986
 3145SOL    HW111274   2.778  13.040  11.954
 3145SOL    HW211275   2.739  12.968  12.081
 3146SOL     OW11276   4.797   7.624   1.358
 3146SOL    HW111277   4.788   7.708   1.404
 3146SOL    HW211278   4.707   7.595   1.345
 3147SOL     OW11279   0.821  12.933  10.270
 3147SOL    HW111280   0.729  12.936  10.297
 3147SOL    HW211281   0.822  12.876  10.194
 3148SOL     OW11282   1.924   0.925  11.412
 3148SOL    HW111283   1.847   0.979  11.429
 3148SOL    HW211284   1.998   0.983  11.433
 3149SOL     OW11285   0.760   9.895   2.434
 3149SOL    HW111286   0.696   9.881   2.364
 3149SOL    HW211287   0.794   9.983   2.418
 3150SOL     OW11288   5.710  12.088   8.534
 3150SOL    HW111289   5.659  12.042   8.468
 3150SOL    HW211290   5.646  12.114   8.601
 3151SOL     OW11291   9.614  10.676   4.784
 3151SOL    HW111292   9.530  10.637   4.760
 3151SOL    HW211293   9.593  10.737   4.854
 3152SOL     OW11294   2.459   8.479   0.812
 3152SOL    HW111295   2.380   8.497   0.761
 3152SOL    HW211296   2.440   8.395   0.855
 3153SOL     OW11297  11.969   4.521   3.500
 3153SOL    HW111298  11.902   4.477   3.553
 3153SOL    HW211299  12.031   4.556   3.564
 3154SOL     OW11300  11.369   7.928  12.819
 3154SOL    HW111301  11.317   8.008  12.823
 3154SOL    HW211302  11.418   7.927  12.901
 3155SOL     OW11303   5.635  14.814   9.195
 3155SOL    HW111304   5.618   0.031   9.181
 3155SOL    HW211305   5.647  14.778   9.107
 3156SOL     OW11306  13.347   8.437   5.204
 3156SOL    HW111307  13.319   8.517   5.248
 3156SOL    HW211308  13.344   8.459   5.110
 3157SOL     OW11309  10.476   2.371   9.176
 3157SOL    HW111310  10.460   2.284   9.139
 3157SOL    HW211311  10.390   2.413   9.177
 3158SOL     OW11312   1.037   9.132   6.041
 3158SOL    HW111313   1.001   9.060   6.093
 3158SOL    HW211314   1.106   9.169   6.095
 3159SOL     OW11315   1.485   9.385   5.030
 3159SOL    HW111316   1.421   9.434   5.080
 3159SOL    HW211317   1.494   9.433   4.948
 3160SOL     OW11318  14.365   5.509   1.385
 3160SOL    HW111319  14.376   5.478   1.475
 3160SOL    HW211320  14.278   5.479   1.359
 3161SOL     OW11321   4.852   1.544  10.809
 3161SOL    HW111322   4.865   1.453  10.838
 3161SOL    HW211323   4.922   1.593  10.853
 3162SOL     OW11324   6.615   7.391   5.235
 3162SOL    HW111325   6.569   7.438   5.166
 3162SOL    HW211326   6.624   7.454   5.306
 3163SOL     OW11327   6.846   9.981   4.142
 3163SOL    HW111328   6.872  10.028   4.221
 3163SOL    HW211329   6.760   9.945   4.163
 3164SOL     OW11330  10.666  13.186  11.857
 3164SOL    HW111331  10.677  13.219  11.947
 3164SOL    HW211332  10.721  13.108  11.854
 3165SOL     OW11333   8.071   2.380  10.968
 3165SOL    HW111334   8.085   2.314  11.036
 3165SOL    HW211335   8.134   2.358  10.899
 3166SOL     OW11336   5.053  11.685  12.625
 3166SOL    HW111337   5.057  11.592  12.603
 3166SOL    HW211338   4.984  11.691  12.691
 3167SOL     OW11339   3.325  11.350  14.311
 3167SOL    HW111340   3.352  11.406  14.238
 3167SOL    HW211341   3.327  11.262  14.275
 3168SOL     OW11342   6.668   1.289   3.783
 3168SOL    HW111343   6.647   1.226   3.852
 3168SOL    HW211344   6.752   1.259   3.747
 3169SOL     OW11345  13.487   7.460  14.357
 3169SOL    HW111346  13.458   7.477  14.267
 3169SOL    HW211347  13.583   7.455  14.350
 3170SOL     OW11348   9.205  12.229   2.926
 3170SOL    HW111349   9.258  12.308   2.939
 3170SOL    HW211350   9.159  12.217   3.009
 3171SOL     OW11351   3.436   4.552  12.895
 3171SOL    HW111352   3.404   4.519  12.979
 3171SOL    HW211353   3.362   4.540  12.835
 3172SOL     OW11354   4.930   4.180  13.641
 3172SOL    HW111355   4.850   4.210  13.684
 3172SOL    HW211356   4.984   4.145  13.712
 3173SOL     OW11357  11.603   8.026   5.678
 3173SOL    HW111358  11.671   8.070   5.627
 3173SOL    HW211359  11.580   8.089   5.747
 3174SOL     OW11360   4.546  11.517  12.699
 3174SOL    HW111361   4.625  11.462  12.698
 3174SOL    HW211362   4.489  11.480  12.632
 3175SOL     OW11363   4.807   7.751   7.724
 3175SOL    HW111364   4.830   7.778   7.635
 3175SOL    HW211365   4.890   7.753   7.772
 3176SOL     OW11366   1.295  12.975   8.313
 3176SOL    HW111367   1.282  12.935   8.399
 3176SOL    HW211368   1.233  12.930   8.255
 3177SOL     OW11369   0.306   2.554   1.054
 3177SOL    HW111370   0.236   2.518   1.000
 3177SOL    HW211371   0.314   2.492   1.127
 3178SOL     OW11372   1.729   8.253   3.558
 3178SOL    HW111373   1.794   8.284   3.622
 3178SOL    HW211374   1.771   8.267   3.473
 3179SOL     OW11375   0.697   0.073  13.354
 3179SOL    HW111376   0.671   0.143  13.414
 3179SOL    HW211377   0.703   0.116  13.269
 3180SOL     OW11378  14.322  11.824  14.849
 3180SOL    HW111379  14.234  11.824   0.010
 3180SOL    HW211380  14.380  11.837   0.047
 3181SOL     OW11381   9.177   7.939   8.795
 3181SOL    HW111382   9.266   7.966   8.817
 3181SOL    HW211383   9.149   7.887   8.871
 3182SOL     OW11384   6.842   0.767  13.012
 3182SOL    HW111385   6.899   0.690  13.011
 3182SOL    HW211386   6.781   0.751  13.085
 3183SOL     OW11387   7.692   7.123   3.114
 3183SOL    HW111388   7.603   7.087   3.106
 3183SOL    HW211389   7.679   7.218   3.122
 3184SOL     OW11390   8.735  12.172   0.905
 3184SOL    HW111391   8.702  12.096   0.857
 3184SOL    HW211392   8.703  12.247   0.855
 3185SOL     OW11393   1.993   5.359  12.192
 3185SOL    HW111394   2.020   5.267  12.193
 3185SOL    HW211395   2.029   5.393  12.110
 3186SOL     OW11396  13.776  13.278   0.500
 3186SOL    HW111397  13.689  13.266   0.460
 3186SOL    HW211398  13.786  13.202   0.558
 3187SOL     OW11399   7.865  14.693  12.578
 3187SOL    HW111400   7.825  14.668  12.495
 3187SOL    HW211401   7.916  14.616  12.604
 3188SOL     OW11402   4.793   6.011   0.260
 3188SOL    HW111403   4.851   6.037   0.331
 3188SOL    HW211404   4.816   5.920   0.242
 3189SOL     OW11405  11.827   0.013  13.720
 3189SOL    HW111406  11.778  14.812  13.750
 3189SOL    HW211407  11.914  14.856  13.699
 3190SOL     OW11408   5.291  14.127   9.554
 3190SOL    HW111409   5.380  14.157   9.536
 3190SOL    HW211410   5.241  14.151   9.476
 3191SOL     OW11411   1.178   8.763   6.732
 3191SOL    HW111412   1.261   8.779   6.688
 3191SOL    HW211413   1.200   8.704   6.803
 3192SOL     OW11414   5.621   1.654   5.629
 3192SOL    HW111415   5.548   1.676   5.687
 3192SOL    HW211416   5.579   1.629   5.547
 3193SOL     OW11417  11.870  11.545   8.958
 3193SOL    HW111418  11.825  11.606   9.018
 3193SOL    HW211419  11.961  11.546   8.988
 3194SOL     OW11420   3.715  13.202   7.511
 3194SOL    HW111421   3.797  13.161   7.483
 3194SOL    HW211422   3.648  13.164   7.454
 3195SOL     OW11423   8.688   9.081   4.184
 3195SOL    HW111424   8.614   9.024   4.206
 3195SOL    HW211425   8.655   9.170   4.198
 3196SOL     OW11426   6.616   4.675   6.983
 3196SOL    HW111427   6.685   4.610   6.973
 3196SOL    HW211428   6.662   4.754   7.010
 3197SOL     OW11429  13.494   1.201   3.704
 3197SOL    HW111430  13.579   1.183   3.664
 3197SOL    HW211431  13.430   1.166   3.642
 3198SOL     OW11432  10.188  14.818   4.861
 3198SOL    HW111433  10.268  14.803   4.810
 3198SOL    HW211434  10.124  14.848   4.796
 3199SOL     OW11435   1.340   9.187   2.435
 3199SOL    HW111436   1.275   9.194   2.366
 3199SOL    HW211437   1.395   9.265   2.424
 3200SOL     OW11438  10.838   0.731   5.854
 3200SOL    HW111439  10.761   0.776   5.819
 3200SOL    HW211440  10.820   0.721   5.947
 3201SOL     OW11441   2.249   1.692  10.048
 3201SOL    HW111442   2.312   1.692   9.976
 3201SOL    HW211443   2.255   1.603  10.085
 3202SOL     OW11444   2.049  13.385   6.320
 3202SOL    HW111445   1.954  13.392   6.309
 3202SOL    HW211446   2.082  13.360   6.233
 3203SOL     OW11447   6.151   3.821   3.367
 3203SOL    HW111448   6.180   3.875   3.294
 3203SOL    HW211449   6.179   3.870   3.445
 3204SOL     OW11450   4.047   9.437  12.912
 3204SOL    HW111451   4.062   9.423  13.005
 3204SOL    HW211452   3.982   9.507  12.908
 3205SOL     OW11453   9.448   2.296  13.236
 3205SOL    HW111454   9.473   2.369  13.294
 3205SOL    HW211455   9.467   2.218  13.287
 3206SOL     OW11456  12.746   3.780   7.648
 3206SOL    HW111457  12.709   3.863   7.676
 3206SOL    HW211458  12.820   3.765   7.707
 3207SOL     OW11459  11.816   5.644  12.863
 3207SOL    HW111460  11.893   5.697  12.841
 3207SOL    HW211461  11.850   5.572  12.916
 3208SOL     OW11462   3.141   8.270   0.740
 3208SOL    HW111463   3.073   8.284   0.805
 3208SOL    HW211464   3.184   8.189   0.769
 3209SOL     OW11465   7.614  14.182   1.855
 3209SOL    HW111466   7.626  14.191   1.760
 3209SOL    HW211467   7.605  14.272   1.887
 3210SOL     OW11468   6.756   9.376  10.372
 3210SOL    HW111469   6.671   9.345  10.342
 3210SOL    HW211470   6.819   9.324  10.323
 3211SOL     OW11471  14.153   8.926   8.220
 3211SOL    HW111472  14.220   8.991   8.242
 3211SOL    HW211473  14.100   8.918   8.299
 3212SOL     OW11474   7.753   5.969  13.076
 3212SOL    HW111475   7.793   5.923  13.001
 3212SOL    HW211476   7.659   5.958  13.063
 3213SOL     OW11477   3.390   2.696  10.726
 3213SOL    HW111478   3.405   2.696  10.632
 3213SOL    HW211479   3.468   2.737  10.763
 3214SOL     OW11480   5.002  12.288   0.920
 3214SOL    HW111481   5.041  12.372   0.944
 3214SOL    HW211482   4.915  12.289   0.959
 3215SOL     OW11483   1.647   1.101   1.310
 3215SOL    HW111484   1.651   1.145   1.395
 3215SOL    HW211485   1.598   1.021   1.327
 3216SOL     OW11486  12.865  14.588   9.252
 3216SOL    HW111487  12.833  14.501   9.229
 3216SOL    HW211488  12.940  14.603   9.194
 3217SOL     OW11489  11.709   3.213  12.964
 3217SOL    HW111490  11.614   3.205  12.954
 3217SOL    HW211491  11.725   3.187  13.055
 3218SOL     OW11492   7.603   9.597   9.222
 3218SOL    HW111493   7.546   9.522   9.235
 3218SOL    HW211494   7.602   9.643   9.306
 3219SOL     OW11495  12.895  11.058   6.956
 3219SOL    HW111496  12.851  11.022   6.879
 3219SOL    HW211497  12.985  11.073   6.927
 3220SOL     OW11498   5.161   0.698   8.794
 3220SOL    HW111499   5.102   0.664   8.862
 3220SOL    HW211500   5.115   0.774   8.758
 3221SOL     OW11501   4.231  12.147   7.372
 3221SOL    HW111502   4.139  12.175   7.377
 3221SOL    HW211503   4.227  12.051   7.371
 3222SOL     OW11504   9.298   4.522   8.922
 3222SOL    HW111505   9.275   4.431   8.904
 3222SOL    HW211506   9.242   4.573   8.863
 3223SOL     OW11507   9.378  12.868  12.087
 3223SOL    HW111508   9.467  12.860  12.052
 3223SOL    HW211509   9.333  12.790  12.055
 3224SOL     OW11510  10.670   6.892  11.893
 3224SOL    HW111511  10.655   6.827  11.825
 3224SOL    HW211512  10.629   6.856  11.971
 3225SOL     OW11513   2.341   8.397   1.836
 3225SOL    HW111514   2.415   8.349   1.873
 3225SOL    HW211515   2.280   8.330   1.807
 3226SOL     OW11516  13.720  12.625  10.908
 3226SOL    HW111517  13.681  12.540  10.888
 3226SOL    HW211518  13.806  12.623  10.866
 3227SOL     OW11519  14.055   4.352   0.299
 3227SOL    HW111520  14.013   4.366   0.384
 3227SOL    HW211521  13.988   4.373   0.235
 3228SOL     OW11522   1.490   5.810  14.458
 3228SOL    HW111523   1.513   5.861  14.380
 3228SOL    HW211524   1.417   5.755  14.430
 3229SOL     OW11525  10.917   6.851   9.031
 3229SOL    HW111526  10.832   6.896   9.026
 3229SOL    HW211527  10.952   6.877   9.116
 3230SOL     OW11528  11.057   3.745   6.586
 3230SOL    HW111529  11.138   3.785   6.620
 3230SOL    HW211530  11.088   3.675   6.528
 3231SOL     OW11531  13.048   9.632   7.214
 3231SOL    HW111532  13.057   9.607   7.306
 3231SOL    HW211533  13.114   9.699   7.200
 3232SOL     OW11534   8.486   1.194  12.918
 3232SOL    HW111535   8.436   1.121  12.954
 3232SOL    HW211536   8.497   1.255  12.991
 3233SOL     OW11537   8.928  14.517   6.205
 3233SOL    HW111538   8.964  14.432   6.232
 3233SOL    HW211539   8.971  14.535   6.121
 3234SOL     OW11540   6.959   2.892  13.910
 3234SOL    HW111541   6.909   2.972  13.895
 3234SOL    HW211542   7.019   2.888  13.835
 3235SOL     OW11543   1.354  11.376   3.280
 3235SOL    HW111544   1.421  11.413   3.222
 3235SOL    HW211545   1.335  11.290   3.242
 3236SOL     OW11546   2.418  12.116   2.613
 3236SOL    HW111547   2.386  12.206   2.602
 3236SOL    HW211548   2.491  12.124   2.675
 3237SOL     OW11549  11.590   5.819  10.124
 3237SOL    HW111550  11.556   5.819  10.213
 3237SOL    HW211551  11.525   5.770  10.073
 3238SOL     OW11552  12.374   3.498   0.973
 3238SOL    HW111553  12.447   3.441   0.952
 3238SOL    HW211554  12.414   3.584   0.986
 3239SOL     OW11555  10.788  10.323   3.672
 3239SOL    HW111556  10.723  10.273   3.622
 3239SOL    HW211557  10.764  10.309   3.763
 3240SOL     OW11558   9.375  10.686   8.211
 3240SOL    HW111559   9.298  10.701   8.156
 3240SOL    HW211560   9.349  10.718   8.297
 3241SOL     OW11561  12.469   2.540   6.662
 3241SOL    HW111562  12.503   2.511   6.746
 3241SOL    HW211563  12.397   2.480   6.642
 3242SOL     OW11564   0.231  11.209   9.803
 3242SOL    HW111565   0.253  11.189   9.894
 3242SOL    HW211566   0.179  11.289   9.808
 3243SOL     OW11567   3.155   7.982   7.008
 3243SOL    HW111568   3.062   7.969   6.991
 3243SOL    HW211569   3.170   7.940   7.093
 3244SOL     OW11570  10.157   5.318   8.486
 3244SOL    HW111571  10.229   5.299   8.426
 3244SOL    HW211572  10.105   5.385   8.441
 3245SOL     OW11573  10.593   7.123   3.312
 3245SOL    HW111574  10.654   7.194   3.293
 3245SOL    HW211575  10.539   7.155   3.384
 3246SOL     OW11576   8.316   2.179   3.937
 3246SOL    HW111577   8.411   2.167   3.940
 3246SOL    HW211578   8.280   2.093   3.957
 3247SOL     OW11579   0.809   2.195  12.565
 3247SOL    HW111580   0.713   2.199  12.564
 3247SOL    HW211581   0.833   2.164  12.478
 3248SOL     OW11582   5.105   3.006   4.331
 3248SOL    HW111583   5.122   3.077   4.269
 3248SOL    HW211584   5.072   2.934   4.278
 3249SOL     OW11585  13.768   7.873  14.528
 3249SOL    HW111586  13.767   7.861  14.433
 3249SOL    HW211587  13.703   7.941  14.544
 3250SOL     OW11588  12.308  10.762   3.602
 3250SOL    HW111589  12.393  10.801   3.582
 3250SOL    HW211590  12.288  10.791   3.691
 3251SOL     OW11591   8.375   5.402  10.786
 3251SOL    HW111592   8.369   5.311  10.815
 3251SOL    HW211593   8.286   5.435  10.789
 3252SOL     OW11594  11.017   0.995   5.981
 3252SOL    HW111595  11.083   1.062   5.996
 3252SOL    HW211596  10.938   1.027   6.025
 3253SOL     OW11597  14.493   9.213  14.686
 3253SOL    HW111598  14.401   9.198  14.664
 3253SOL    HW211599  14.493   9.228  14.780
 3254SOL     OW11600   8.113  11.809   9.777
 3254SOL    HW111601   8.204  11.779   9.789
 3254SOL    HW211602   8.114  11.901   9.805
 3255SOL     OW11603   7.430   3.270  10.875
 3255SOL    HW111604   7.514   3.301  10.908
 3255SOL    HW211605   7.409   3.329  10.804
 3256SOL     OW11606   5.897  12.525  14.607
 3256SOL    HW111607   5.892  12.607  14.655
 3256SOL    HW211608   5.975  12.482  14.642
 3257SOL     OW11609  10.865   9.915  10.110
 3257SOL    HW111610  10.889  10.007  10.122
 3257SOL    HW211611  10.923   9.885  10.039
 3258SOL     OW11612   7.987   3.840  12.353
 3258SOL    HW111613   7.903   3.808  12.320
 3258SOL    HW211614   8.026   3.888  12.279
 3259SOL     OW11615   0.179   0.931   3.636
 3259SOL    HW111616   0.165   1.018   3.674
 3259SOL    HW211617   0.273   0.917   3.641
 3260SOL     OW11618   2.409  12.814   9.092
 3260SOL    HW111619   2.423  12.730   9.048
 3260SOL    HW211620   2.489  12.864   9.074
 3261SOL     OW11621   0.231  11.572   2.088
 3261SOL    HW111622   0.198  11.602   2.003
 3261SOL    HW211623   0.316  11.616   2.098
 3262SOL     OW11624   9.396   4.837   1.824
 3262SOL    HW111625   9.407   4.901   1.753
 3262SOL    HW211626   9.305   4.848   1.852
 3263SOL     OW11627   9.238   0.737   2.003
 3263SOL    HW111628   9.266   0.825   2.027
 3263SOL    HW211629   9.268   0.725   1.913
 3264SOL     OW11630  12.627   4.288  13.078
 3264SOL    HW111631  12.665   4.255  13.159
 3264SOL    HW211632  12.566   4.220  13.049
 3265SOL     OW11633   2.183   0.413  10.968
 3265SOL    HW111634   2.261   0.377  10.927
 3265SOL    HW211635   2.175   0.502  10.931
 3266SOL     OW11636   2.872  11.248  13.066
 3266SOL    HW111637   2.893  11.190  13.139
 3266SOL    HW211638   2.828  11.323  13.106
 3267SOL     OW11639  13.792   3.702   3.449
 3267SOL    HW111640  13.796   3.785   3.402
 3267SOL    HW211641  13.857   3.710   3.519
 3268SOL     OW11642   8.306  10.105  13.937
 3268SOL    HW111643   8.379  10.167  13.945
 3268SOL    HW211644   8.228  10.157  13.957
 3269SOL     OW11645   9.868  11.007   6.909
 3269SOL    HW111646   9.827  11.054   6.981
 3269SOL    HW211647   9.801  10.947   6.877
 3270SOL     OW11648   9.766   8.653   1.669
 3270SOL    HW111649   9.761   8.559   1.654
 3270SOL    HW211650   9.690   8.673   1.724
 3271SOL     OW11651   6.943  10.390   2.643
 3271SOL    HW111652   6.976  10.437   2.719
 3271SOL    HW211653   6.943  10.298   2.669
 3272SOL     OW11654   0.514   5.890   5.592
 3272SOL    HW111655   0.597   5.847   5.615
 3272SOL    HW211656   0.461   5.820   5.554
 3273SOL     OW11657   6.140  12.600   7.288
 3273SOL    HW111658   6.210  12.540   7.315
 3273SOL    HW211659   6.165  12.627   7.199
 3274SOL     OW11660  10.991   2.153  11.174
 3274SOL    HW111661  10.977   2.078  11.116
 3274SOL    HW211662  10.970   2.120  11.261
 3275SOL     OW11663   9.002   1.308   2.544
 3275SOL    HW111664   9.064   1.380   2.552
 3275SOL    HW211665   9.030   1.245   2.611
 3276SOL     OW11666  10.526  11.469   8.237
 3276SOL    HW111667  10.535  11.509   8.323
 3276SOL    HW211668  10.596  11.404   8.234
 3277SOL     OW11669  13.527   7.987  12.134
 3277SOL    HW111670  13.480   8.048  12.191
 3277SOL    HW211671  13.615   8.023  12.129
 3278SOL     OW11672   3.305   8.857   0.261
 3278SOL    HW111673   3.240   8.815   0.316
 3278SOL    HW211674   3.259   8.876   0.179
 3279SOL     OW11675   4.452   5.932   3.581
 3279SOL    HW111676   4.517   5.892   3.638
 3279SOL    HW211677   4.437   5.867   3.512
 3280SOL     OW11678   2.095  10.554  11.046
 3280SOL    HW111679   2.130  10.493  11.112
 3280SOL    HW211680   2.002  10.561  11.068
 3281SOL     OW11681   8.331  11.977   2.831
 3281SOL    HW111682   8.350  12.029   2.753
 3281SOL    HW211683   8.368  12.028   2.903
 3282SOL     OW11684   5.427   8.161   9.014
 3282SOL    HW111685   5.428   8.106   9.092
 3282SOL    HW211686   5.497   8.127   8.959
 3283SOL     OW11687   0.375   9.936   3.660
 3283SOL    HW111688   0.312   9.865   3.647
 3283SOL    HW211689   0.456   9.903   3.621
 3284SOL     OW11690   7.483   0.891   5.154
 3284SOL    HW111691   7.443   0.851   5.077
 3284SOL    HW211692   7.522   0.818   5.202
 3285SOL     OW11693   5.868   7.475  12.528
 3285SOL    HW111694   5.847   7.553  12.478
 3285SOL    HW211695   5.902   7.508  12.611
 3286SOL     OW11696  14.363  12.569   1.991
 3286SOL    HW111697  14.366  12.510   1.916
 3286SOL    HW211698  14.423  12.640   1.968
 3287SOL     OW11699   2.391   3.852  12.955
 3287SOL    HW111700   2.474   3.893  12.931
 3287SOL    HW211701   2.356   3.907  13.025
 3288SOL     OW11702   0.870   1.666   1.421
 3288SOL    HW111703   0.951   1.643   1.466
 3288SOL    HW211704   0.884   1.637   1.331
 3289SOL     OW11705   1.156   1.777  14.707
 3289SOL    HW111706   1.122   1.865  14.692
 3289SOL    HW211707   1.245   1.780  14.670
 3290SOL     OW11708   0.187  13.975  12.613
 3290SOL    HW111709   0.179  13.950  12.521
 3290SOL    HW211710   0.247  14.049  12.613
 3291SOL     OW11711   2.542   2.345   2.979
 3291SOL    HW111712   2.492   2.335   2.897
 3291SOL    HW211713   2.476   2.367   3.044
 3292SOL     OW11714   3.555  10.792   4.953
 3292SOL    HW111715   3.530  10.715   4.902
 3292SOL    HW211716   3.650  10.786   4.962
 3293SOL     OW11717  14.793  13.038   1.053
 3293SOL    HW111718  14.774  13.035   0.959
 3293SOL    HW211719  14.745  12.962   1.088
 3294SOL     OW11720   3.407  12.785   1.134
 3294SOL    HW111721   3.493  12.793   1.093
 3294SOL    HW211722   3.424  12.749   1.221
 3295SOL     OW11723  10.937   5.590   5.189
 3295SOL    HW111724  10.893   5.505   5.182
 3295SOL    HW211725  10.870   5.649   5.225
 3296SOL     OW11726  12.643   5.091   8.630
 3296SOL    HW111727  12.672   5.103   8.539
 3296SOL    HW211728  12.687   5.161   8.679
 3297SOL     OW11729   2.646   3.040   0.024
 3297SOL    HW111730   2.644   2.947   0.048
 3297SOL    HW211731   2.576   3.079   0.077
 3298SOL     OW11732   1.195  13.382  14.028
 3298SOL    HW111733   1.161  13.466  14.059
 3298SOL    HW211734   1.159  13.373  13.940
 3299SOL     OW11735  13.390   9.950   2.687
 3299SOL    HW111736  13.429   9.894   2.621
 3299SOL    HW211737  13.334  10.010   2.638
 3300SOL     OW11738   6.622   7.165   2.878
 3300SOL    HW111739   6.531   7.137   2.883
 3300SOL    HW211740   6.629   7.211   2.794
 3301SOL     OW11741   3.603   4.845  11.527
 3301SOL    HW111742   3.604   4.829  11.432
 3301SOL    HW211743   3.646   4.769  11.565
 3302SOL     OW11744   9.992  13.874   2.694
 3302SOL    HW111745  10.005  13.872   2.599
 3302SOL    HW211746   9.920  13.936   2.707
 3303SOL     OW11747   1.065   8.853   8.679
 3303SOL    HW111748   1.091   8.913   8.609
 3303SOL    HW211749   1.107   8.888   8.757
 3304SOL     OW11750   0.080   0.160   0.008
 3304SOL    HW111751   0.117   0.209  14.811
 3304SOL    HW211752   0.149   0.099   0.033
 3305SOL     OW11753   0.710  13.785   3.347
 3305SOL    HW111754   0.638  13.847   3.360
 3305SOL    HW211755   0.698  13.753   3.258
 3306SOL     OW11756   2.124   6.645   5.596
 3306SOL    HW111757   2.083   6.660   5.681
 3306SOL    HW211758   2.200   6.703   5.595
 3307SOL     OW11759   5.448   5.090   3.970
 3307SOL    HW111760   5.394   5.151   4.021
 3307SOL    HW211761   5.508   5.053   4.034
 3308SOL     OW11762   7.589   8.509  10.999
 3308SOL    HW111763   7.654   8.440  10.986
 3308SOL    HW211764   7.580   8.550  10.914
 3309SOL     OW11765   2.333  14.712  13.069
 3309SOL    HW111766   2.381  14.791  13.096
 3309SOL    HW211767   2.241  14.738  13.075
 3310SOL     OW11768   3.295   7.359   6.601
 3310SOL    HW111769   3.204   7.385   6.590
 3310SOL    HW211770   3.323   7.330   6.514
 3311SOL     OW11771   4.397   5.807   0.810
 3311SOL    HW111772   4.480   5.814   0.858
 3311SOL    HW211773   4.417   5.748   0.737
 3312SOL     OW11774   9.986   0.456   0.681
 3312SOL    HW111775  10.006   0.545   0.649
 3312SOL    HW211776  10.064   0.431   0.730
 3313SOL     OW11777   8.152   5.257  10.962
 3313SOL    HW111778   8.203   5.318  11.016
 3313SOL    HW211779   8.081   5.310  10.926
 3314SOL     OW11780  14.387   2.584   1.792
 3314SOL    HW111781  14.332   2.634   1.853
 3314SOL    HW211782  14.461   2.642   1.774
 3315SOL     OW11783  14.492  12.229   2.791
 3315SOL    HW111784  14.478  12.183   2.708
 3315SOL    HW211785  14.502  12.159   2.856
 3316SOL     OW11786  14.113   8.144  14.244
 3316SOL    HW111787  14.040   8.112  14.298
 3316SOL    HW211788  14.109   8.091  14.165
 3317SOL     OW11789   3.299   8.707   9.923
 3317SOL    HW111790   3.305   8.707  10.019
 3317SOL    HW211791   3.356   8.635   9.896
 3318SOL     OW11792  12.471   3.957   1.751
 3318SOL    HW111793  12.461   4.002   1.667
 3318SOL    HW211794  12.415   3.880   1.743
 3319SOL     OW11795  12.942  14.183  13.801
 3319SOL    HW111796  12.931  14.276  13.784
 3319SOL    HW211797  13.020  14.177  13.856
 3320SOL     OW11798   7.261   4.954   9.049
 3320SOL    HW111799   7.188   5.001   9.089
 3320SOL    HW211800   7.337   5.009   9.067
 3321SOL     OW11801   0.438   6.349   2.793
 3321SOL    HW111802   0.382   6.330   2.868
 3321SOL    HW211803   0.490   6.269   2.782
 3322SOL     OW11804   2.915   2.285   3.903
 3322SOL    HW111805   2.930   2.212   3.963
 3322SOL    HW211806   2.965   2.358   3.940
 3323SOL     OW11807   2.852   7.549  11.757
 3323SOL    HW111808   2.854   7.503  11.841
 3323SOL    HW211809   2.856   7.642  11.780
 3324SOL     OW11810  12.196  10.465   7.841
 3324SOL    HW111811  12.224  10.444   7.752
 3324SOL    HW211812  12.256  10.533   7.871
 3325SOL     OW11813   0.426  12.512   6.841
 3325SOL    HW111814   0.486  12.496   6.769
 3325SOL    HW211815   0.341  12.525   6.800
 3326SOL     OW11816  12.546  12.174   0.890
 3326SOL    HW111817  12.489  12.164   0.814
 3326SOL    HW211818  12.521  12.101   0.948
 3327SOL     OW11819  14.840   3.165  12.178
 3327SOL    HW111820  14.780   3.108  12.226
 3327SOL    HW211821   0.028   3.193  12.244
 3328SOL     OW11822  10.614   1.279   2.172
 3328SOL    HW111823  10.580   1.368   2.160
 3328SOL    HW211824  10.559   1.224   2.115
 3329SOL     OW11825   7.618  12.213  12.403
 3329SOL    HW111826   7.602  12.293  12.352
 3329SOL    HW211827   7.643  12.148  12.337
 3330SOL     OW11828   1.030   7.098  12.133
 3330SOL    HW111829   1.032   7.011  12.171
 3330SOL    HW211830   0.937   7.122  12.132
 3331SOL     OW11831   3.940  12.079  12.257
 3331SOL    HW111832   3.989  12.136  12.198
 3331SOL    HW211833   3.881  12.137  12.304
 3332SOL     OW11834   4.959  13.186  12.898
 3332SOL    HW111835   5.023  13.164  12.830
 3332SOL    HW211836   5.000  13.256  12.948
 3333SOL     OW11837   5.563   1.255  11.763
 3333SOL    HW111838   5.613   1.179  11.792
 3333SOL    HW211839   5.555   1.246  11.669
 3334SOL     OW11840   3.094   3.207   4.053
 3334SOL    HW111841   3.096   3.112   4.042
 3334SOL    HW211842   3.182   3.235   4.029
 3335SOL     OW11843   9.790   3.031   9.876
 3335SOL    HW111844   9.859   3.096   9.864
 3335SOL    HW211845   9.784   3.019   9.970
 3336SOL     OW11846  10.476   7.472  11.443
 3336SOL    HW111847  10.519   7.557  11.445
 3336SOL    HW211848  10.411   7.479  11.373
 3337SOL     OW11849   1.633  13.534  10.831
 3337SOL    HW111850   1.685  13.532  10.751
 3337SOL    HW211851   1.551  13.576  10.805
 3338SOL     OW11852   4.340   2.230   7.610
 3338SOL    HW111853   4.256   2.224   7.656
 3338SOL    HW211854   4.378   2.143   7.617
 3339SOL     OW11855   1.947   3.295   4.999
 3339SOL    HW111856   1.910   3.211   4.972
 3339SOL    HW211857   2.033   3.273   5.035
 3340SOL     OW11858  10.314  12.077   8.820
 3340SOL    HW111859  10.224  12.106   8.839
 3340SOL    HW211860  10.344  12.037   8.902
 3341SOL     OW11861  11.099  11.251   7.908
 3341SOL    HW111862  11.053  11.220   7.829
 3341SOL    HW211863  11.189  11.266   7.878
 3342SOL     OW11864   4.215  10.160   0.620
 3342SOL    HW111865   4.154  10.184   0.551
 3342SOL    HW211866   4.165  10.172   0.701
 3343SOL     OW11867   2.725  13.309   5.103
 3343SOL    HW111868   2.745  13.236   5.045
 3343SOL    HW211869   2.707  13.269   5.187
 3344SOL     OW11870   3.491   9.645   3.190
 3344SOL    HW111871   3.476   9.554   3.218
 3344SOL    HW211872   3.425   9.695   3.238
 3345SOL     OW11873   1.380  13.012   2.158
 3345SOL    HW111874   1.450  12.968   2.206
 3345SOL    HW211875   1.396  12.990   2.066
 3346SOL     OW11876   0.604   4.828  11.286
 3346SOL    HW111877   0.624   4.799  11.375
 3346SOL    HW211878   0.542   4.764  11.253
 3347SOL     OW11879  13.642   1.220  14.053
 3347SOL    HW111880  13.669   1.165  14.127
 3347SOL    HW211881  13.670   1.308  14.078
 3348SOL     OW11882   6.969   9.350  10.652
 3348SOL    HW111883   7.003   9.352  10.562
 3348SOL    HW211884   6.895   9.289  10.648
 3349SOL     OW11885   3.347   8.367   5.385
 3349SOL    HW111886   3.424   8.354   5.330
 3349SOL    HW211887   3.273   8.367   5.323
 3350SOL     OW11888   6.100   4.778   3.184
 3350SOL    HW111889   6.022   4.805   3.233
 3350SOL    HW211890   6.149   4.858   3.171
 3351SOL     OW11891   2.649   1.276   6.550
 3351SOL    HW111892   2.687   1.188   6.556
 3351SOL    HW211893   2.608   1.279   6.464
 3352SOL     OW11894  10.271   6.445   6.309
 3352SOL    HW111895  10.229   6.486   6.385
 3352SOL    HW211896  10.360   6.427   6.338
 3353SOL     OW11897   4.601   7.931   8.670
 3353SOL    HW111898   4.671   7.980   8.627
 3353SOL    HW211899   4.611   7.952   8.763
 3354SOL     OW11900  11.786   4.042   4.107
 3354SOL    HW111901  11.733   3.966   4.129
 3354SOL    HW211902  11.791   4.041   4.011
 3355SOL     OW11903  13.064  10.373   9.562
 3355SOL    HW111904  13.004  10.446   9.546
 3355SOL    HW211905  13.009  10.295   9.560
 3356SOL     OW11906   9.988  10.814  10.775
 3356SOL    HW111907  10.064  10.767  10.808
 3356SOL    HW211908  10.013  10.841  10.687
 3357SOL     OW11909  11.877   7.086  13.610
 3357SOL    HW111910  11.934   7.122  13.542
 3357SOL    HW211911  11.801   7.144  13.612
 3358SOL     OW11912   6.913   3.304  14.279
 3358SOL    HW111913   6.821   3.322  14.299
 3358SOL    HW211914   6.938   3.236  14.341
 3359SOL     OW11915   3.198  12.320   2.819
 3359SOL    HW111916   3.112  12.297   2.855
 3359SOL    HW211917   3.258  12.255   2.855
 3360SOL     OW11918   2.787   5.090   7.110
 3360SOL    HW111919   2.836   5.044   7.178
 3360SOL    HW211920   2.839   5.079   7.030
 3361SOL     OW11921   9.499   4.858   4.013
 3361SOL    HW111922   9.432   4.818   4.070
 3361SOL    HW211923   9.465   4.844   3.924
 3362SOL     OW11924   5.065  11.492   9.696
 3362SOL    HW111925   4.975  11.525   9.694
 3362SOL    HW211926   5.073  11.439   9.616
 3363SOL     OW11927  11.290   9.837   2.377
 3363SOL    HW111928  11.347   9.846   2.454
 3363SOL    HW211929  11.293   9.923   2.335
 3364SOL     OW11930   8.357   5.468  11.842
 3364SOL    HW111931   8.393   5.554  11.865
 3364SOL    HW211932   8.295   5.486  11.771
 3365SOL     OW11933   7.760  11.025   3.091
 3365SOL    HW111934   7.844  11.051   3.128
 3365SOL    HW211935   7.776  11.013   2.998
 3366SOL     OW11936   6.667   8.004   6.593
 3366SOL    HW111937   6.591   8.012   6.535
 3366SOL    HW211938   6.718   8.083   6.578
 3367SOL     OW11939  11.977   3.818  14.691
 3367SOL    HW111940  11.960   3.729  14.721
 3367SOL    HW211941  12.001   3.809  14.599
 3368SOL     OW11942   7.882  13.684  10.460
 3368SOL    HW111943   7.812  13.677  10.395
 3368SOL    HW211944   7.856  13.757  10.516
 3369SOL     OW11945   4.135  13.561   6.302
 3369SOL    HW111946   4.200  13.520   6.359
 3369SOL    HW211947   4.054  13.558   6.352
 3370SOL     OW11948   4.378   1.090   0.161
 3370SOL    HW111949   4.429   1.156   0.208
 3370SOL    HW211950   4.356   1.132   0.078
 3371SOL     OW11951   2.210   4.194  14.641
 3371SOL    HW111952   2.143   4.255  14.612
 3371SOL    HW211953   2.172   4.150  14.717
 3372SOL     OW11954   4.012   3.077   7.416
 3372SOL    HW111955   4.016   2.989   7.378
 3372SOL    HW211956   3.931   3.077   7.467
 3373SOL     OW11957   4.524   4.471  11.133
 3373SOL    HW111958   4.601   4.455  11.188
 3373SOL    HW211959   4.529   4.564  11.111
 3374SOL     OW11960   4.805  12.184   6.212
 3374SOL    HW111961   4.770  12.125   6.278
 3374SOL    HW211962   4.768  12.152   6.130
 3375SOL     OW11963   4.872  14.152   0.460
 3375SOL    HW111964   4.881  14.075   0.404
 3375SOL    HW211965   4.959  14.190   0.462
 3376SOL     OW11966  12.101   1.773   1.129
 3376SOL    HW111967  12.022   1.742   1.084
 3376SOL    HW211968  12.139   1.694   1.167
 3377SOL     OW11969   3.120   1.546  14.133
 3377SOL    HW111970   3.059   1.618  14.115
 3377SOL    HW211971   3.159   1.569  14.217
 3378SOL     OW11972   2.737   3.324   1.937
 3378SOL    HW111973   2.754   3.361   2.024
 3378SOL    HW211974   2.754   3.397   1.877
 3379SOL     OW11975  12.392  14.208  13.062
 3379SOL    HW111976  12.486  14.193  13.074
 3379SOL    HW211977  12.353  14.122  13.070
 3380SOL     OW11978   5.893  14.469   1.074
 3380SOL    HW111979   5.955  14.408   1.113
 3380SOL    HW211980   5.808  14.446   1.112
 3381SOL     OW11981   4.985  13.926   5.590
 3381SOL    HW111982   4.959  13.990   5.524
 3381SOL    HW211983   5.030  13.858   5.541
 3382SOL     OW11984   6.114  13.779  10.679
 3382SOL    HW111985   6.149  13.733  10.603
 3382SOL    HW211986   6.020  13.760  10.677
 3383SOL     OW11987   4.049   9.423   7.948
 3383SOL    HW111988   4.133   9.442   7.907
 3383SOL    HW211989   4.045   9.327   7.951
 3384SOL     OW11990   5.967  10.184   7.488
 3384SOL    HW111991   6.042  10.129   7.511
 3384SOL    HW211992   5.893  10.123   7.486
 3385SOL     OW11993   1.737   0.503   6.138
 3385SOL    HW111994   1.766   0.578   6.191
 3385SOL    HW211995   1.658   0.472   6.181
 3386SOL     OW11996  10.959   2.362   6.950
 3386SOL    HW111997  11.006   2.445   6.940
 3386SOL    HW211998  10.958   2.347   7.044
 3387SOL     OW11999   4.106  12.411   4.246
 3387SOL    HW112000   4.134  12.348   4.313
 3387SOL    HW212001   4.093  12.492   4.294
 3388SOL     OW12002   9.768  11.313   3.435
 3388SOL    HW112003   9.776  11.220   3.416
 3388SOL    HW212004   9.678  11.335   3.410
 3389SOL     OW12005   2.009  12.986   0.682
 3389SOL    HW112006   1.992  12.895   0.709
 3389SOL    HW212007   1.970  13.039   0.752
 3390SOL     OW12008   0.793   1.232   7.772
 3390SOL    HW112009   0.883   1.199   7.766
 3390SOL    HW212010   0.763   1.201   7.858
 3391SOL     OW12011   4.079  13.758   1.794
 3391SOL    HW112012   3.987  13.758   1.766
 3391SOL    HW212013   4.093  13.845   1.831
 3392SOL     OW12014  14.730   5.698  10.715
 3392SOL    HW112015  14.734   5.794  10.710
 3392SOL    HW212016  14.655   5.680  10.773
 3393SOL     OW12017  13.353   9.932  13.462
 3393SOL    HW112018  13.388   9.843  13.466
 3393SOL    HW212019  13.423   9.987  13.496
 3394SOL     OW12020   9.689   3.481   9.147
 3394SOL    HW112021   9.751   3.473   9.219
 3394SOL    HW212022   9.712   3.410   9.087
 3395SOL     OW12023   0.108   9.888   6.448
 3395SOL    HW112024   0.088   9.809   6.499
 3395SOL    HW212025   0.131   9.855   6.361
 3396SOL     OW12026  11.080   3.920   5.425
 3396SOL    HW112027  11.062   3.882   5.339
 3396SOL    HW212028  11.056   3.852   5.487
 3397SOL     OW12029  14.822   7.287  14.601
 3397SOL    HW112030  14.763   7.212  14.602
 3397SOL    HW212031  14.764   7.362  14.589
 3398SOL     OW12032  10.854   5.030   9.656
 3398SOL    HW112033  10.933   5.067   9.616
 3398SOL    HW212034  10.782   5.082   9.619
 3399SOL     OW12035  10.650  10.928  14.113
 3399SOL    HW112036  10.641  11.020  14.138
 3399SOL    HW212037  10.660  10.882  14.197
 3400SOL     OW12038  12.704   6.065  11.103
 3400SOL    HW112039  12.784   6.018  11.079
 3400SOL    HW212040  12.724   6.157  11.084
 3401SOL     OW12041  14.683  13.767  13.836
 3401SOL    HW112042  14.673  13.672  13.842
 3401SOL    HW212043  14.593  13.799  13.830
 3402SOL     OW12044   8.862   1.038   9.239
 3402SOL    HW112045   8.769   1.062   9.237
 3402SOL    HW212046   8.906   1.106   9.188
 3403SOL     OW12047  11.900   5.418   7.597
 3403SOL    HW112048  11.805   5.423   7.583
 3403SOL    HW212049  11.922   5.501   7.639
 3404SOL     OW12050  13.730   5.893   7.848
 3404SOL    HW112051  13.742   5.940   7.930
 3404SOL    HW212052  13.673   5.819   7.871
 3405SOL     OW12053   5.141   2.946  11.399
 3405SOL    HW112054   5.085   2.946  11.476
 3405SOL    HW212055   5.088   2.987  11.330
 3406SOL     OW12056   7.464   0.249  14.718
 3406SOL    HW112057   7.436   0.299  14.795
 3406SOL    HW212058   7.517   0.178  14.754
 3407SOL     OW12059  11.081  14.567   4.550
 3407SOL    HW112060  11.085  14.654   4.591
 3407SOL    HW212061  11.129  14.578   4.468
 3408SOL     OW12062   6.366   5.274   7.189
 3408SOL    HW112063   6.379   5.369   7.193
 3408SOL    HW212064   6.291   5.258   7.247
 3409SOL     OW12065  10.914  10.275   5.582
 3409SOL    HW112066  10.953  10.361   5.574
 3409SOL    HW212067  10.930  10.249   5.673
 3410SOL     OW12068   3.076   7.894   7.666
 3410SOL    HW112069   3.150   7.950   7.642
 3410SOL    HW212070   3.108   7.842   7.740
 3411SOL     OW12071   0.548   3.743   7.054
 3411SOL    HW112072   0.568   3.836   7.055
 3411SOL    HW212073   0.504   3.728   6.970
 3412SOL     OW12074   3.703   0.645   9.176
 3412SOL    HW112075   3.725   0.633   9.083
 3412SOL    HW212076   3.613   0.615   9.183
 3413SOL     OW12077   8.328  10.292   5.706
 3413SOL    HW112078   8.267  10.365   5.696
 3413SOL    HW212079   8.411  10.333   5.731
 3414SOL     OW12080   5.068   2.392  12.147
 3414SOL    HW112081   5.163   2.378  12.153
 3414SOL    HW212082   5.044   2.353  12.063
 3415SOL     OW12083  12.420  14.655   1.569
 3415SOL    HW112084  12.428  14.648   1.664
 3415SOL    HW212085  12.465  14.578   1.536
 3416SOL     OW12086   2.275   2.371   9.290
 3416SOL    HW112087   2.286   2.321   9.209
 3416SOL    HW212088   2.215   2.442   9.266
 3417SOL     OW12089  13.391  11.839   1.720
 3417SOL    HW112090  13.319  11.782   1.745
 3417SOL    HW212091  13.393  11.908   1.787
 3418SOL     OW12092   7.445   9.870   1.906
 3418SOL    HW112093   7.540   9.859   1.911
 3418SOL    HW212094   7.432   9.934   1.836
 3419SOL     OW12095   6.712  12.655   4.952
 3419SOL    HW112096   6.694  12.746   4.928
 3419SOL    HW212097   6.655  12.603   4.895
 3420SOL     OW12098  13.333   5.689  11.032
 3420SOL    HW112099  13.292   5.704  10.948
 3420SOL    HW212100  13.280   5.738  11.095
 3421SOL     OW12101  13.947   9.655  10.370
 3421SOL    HW112102  14.023   9.669  10.426
 3421SOL    HW212103  13.976   9.677  10.282
 3422SOL     OW12104   5.536  14.057   8.863
 3422SOL    HW112105   5.532  14.001   8.785
 3422SOL    HW212106   5.463  14.028   8.917
 3423SOL     OW12107   1.030  10.975   4.246
 3423SOL    HW112108   0.954  11.003   4.296
 3423SOL    HW212109   1.023  10.879   4.244
 3424SOL     OW12110   0.849   8.241  13.777
 3424SOL    HW112111   0.809   8.251  13.863
 3424SOL    HW212112   0.878   8.330  13.754
 3425SOL     OW12113   8.881   2.987   6.991
 3425SOL    HW112114   8.813   3.038   6.946
 3425SOL    HW212115   8.940   3.052   7.027
 3426SOL     OW12116  12.351   7.926  14.652
 3426SOL    HW112117  12.265   7.937  14.694
 3426SOL    HW212118  12.368   8.009  14.609
 3427SOL     OW12119   9.501  14.365   2.524
 3427SOL    HW112120   9.514  14.445   2.574
 3427SOL    HW212121   9.584  14.351   2.478
 3428SOL     OW12122   9.311  10.939   9.722
 3428SOL    HW112123   9.263  10.893   9.791
 3428SOL    HW212124   9.253  10.936   9.646
 3429SOL     OW12125   5.047   4.137   5.398
 3429SOL    HW112126   5.106   4.212   5.401
 3429SOL    HW212127   5.087   4.072   5.455
 3430SOL     OW12128  10.563  11.159   2.253
 3430SOL    HW112129  10.645  11.199   2.284
 3430SOL    HW212130  10.565  11.172   2.158
 3431SOL     OW12131   0.705  11.083   3.263
 3431SOL    HW112132   0.704  11.145   3.191
 3431SOL    HW212133   0.725  11.135   3.341
 3432SOL     OW12134  12.923   9.092   4.289
 3432SOL    HW112135  12.907   9.018   4.230
 3432SOL    HW212136  12.869   9.163   4.253
 3433SOL     OW12137  13.535   5.354   0.511
 3433SOL    HW112138  13.598   5.426   0.505
 3433SOL    HW212139  13.487   5.370   0.592
 3434SOL     OW12140   9.635  12.280   5.947
 3434SOL    HW112141   9.718  12.246   5.913
 3434SOL    HW212142   9.596  12.207   5.995
 3435SOL     OW12143   8.915  11.007  13.078
 3435SOL    HW112144   9.006  11.024  13.102
 3435SOL    HW212145   8.902  11.056  12.997
 3436SOL     OW12146  10.362   8.339  12.279
 3436SOL    HW112147  10.341   8.261  12.331
 3436SOL    HW212148  10.399   8.305  12.198
 3437SOL     OW12149   6.454  12.803   2.695
 3437SOL    HW112150   6.513  12.730   2.714
 3437SOL    HW212151   6.367  12.770   2.717
 3438SOL     OW12152   9.194  14.340   0.392
 3438SOL    HW112153   9.289  14.349   0.383
 3438SOL    HW212154   9.158  14.417   0.350
 3439SOL     OW12155  14.694   1.138   8.021
 3439SOL    HW112156  14.682   1.079   8.096
 3439SOL    HW212157  14.648   1.218   8.046
 3440SOL     OW12158  10.743   6.779   2.482
 3440SOL    HW112159  10.764   6.796   2.574
 3440SOL    HW212160  10.828   6.767   2.440
 3441SOL     OW12161   7.049   4.983   1.198
 3441SOL    HW112162   7.000   4.988   1.280
 3441SOL    HW212163   7.086   5.071   1.186
 3442SOL     OW12164   2.219   6.897  13.164
 3442SOL    HW112165   2.180   6.818  13.126
 3442SOL    HW212166   2.277   6.930  13.095
 3443SOL     OW12167   6.029   3.951   0.140
 3443SOL    HW112168   6.024   4.046   0.150
 3443SOL    HW212169   6.003   3.916   0.225
 3444SOL     OW12170   8.772  10.218  14.526
 3444SOL    HW112171   8.679  10.197  14.518
 3444SOL    HW212172   8.791  10.276  14.453
 3445SOL     OW12173   9.007   4.317   4.464
 3445SOL    HW112174   9.000   4.344   4.373
 3445SOL    HW212175   9.092   4.273   4.470
 3446SOL     OW12176  10.174   8.851   5.619
 3446SOL    HW112177  10.221   8.860   5.702
 3446SOL    HW212178  10.173   8.940   5.583
 3447SOL     OW12179  14.713   6.206   2.527
 3447SOL    HW112180  14.696   6.297   2.501
 3447SOL    HW212181  14.700   6.156   2.446
 3448SOL     OW12182   2.462   2.752   6.440
 3448SOL    HW112183   2.438   2.665   6.410
 3448SOL    HW212184   2.402   2.811   6.395
 3449SOL     OW12185  11.871   6.472   2.953
 3449SOL    HW112186  11.844   6.561   2.932
 3449SOL    HW212187  11.803   6.417   2.915
 3450SOL     OW12188  11.920  14.666  11.790
 3450SOL    HW112189  11.843  14.616  11.819
 3450SOL    HW212190  11.907  14.754  11.826
 3451SOL     OW12191   1.790  10.473  10.157
 3451SOL    HW112192   1.785  10.510  10.069
 3451SOL    HW212193   1.730  10.398  10.156
 3452SOL     OW12194   1.282   6.246   7.835
 3452SOL    HW112195   1.199   6.199   7.833
 3452SOL    HW212196   1.325   6.215   7.915
 3453SOL     OW12197   1.679   9.005  13.158
 3453SOL    HW112198   1.621   8.935  13.188
 3453SOL    HW212199   1.748   8.961  13.109
 3454SOL     OW12200   3.420   5.361   5.010
 3454SOL    HW112201   3.507   5.327   4.985
 3454SOL    HW212202   3.439   5.433   5.070
 3455SOL     OW12203   3.574   8.198  11.634
 3455SOL    HW112204   3.612   8.139  11.700
 3455SOL    HW212205   3.632   8.274  11.634
 3456SOL     OW12206   2.249   6.636   2.564
 3456SOL    HW112207   2.173   6.691   2.583
 3456SOL    HW212208   2.316   6.697   2.534
 3457SOL     OW12209   9.366  14.032   5.159
 3457SOL    HW112210   9.295  14.097   5.164
 3457SOL    HW212211   9.428  14.070   5.097
 3458SOL     OW12212   1.343   5.482   4.180
 3458SOL    HW112213   1.314   5.444   4.096
 3458SOL    HW212214   1.431   5.448   4.192
 3459SOL     OW12215  11.400   5.067  12.979
 3459SOL    HW112216  11.423   5.158  12.962
 3459SOL    HW212217  11.479   5.018  12.958
 3460SOL     OW12218  10.005   8.692   4.498
 3460SOL    HW112219  10.090   8.657   4.471
 3460SOL    HW212220   9.941   8.633   4.458
 3461SOL     OW12221  11.561   8.448   2.041
 3461SOL    HW112222  11.550   8.358   2.009
 3461SOL    HW212223  11.639   8.445   2.096
 3462SOL     OW12224   2.465  14.511   2.881
 3462SOL    HW112225   2.528  14.440   2.896
 3462SOL    HW212226   2.463  14.559   2.964
 3463SOL     OW12227  14.212   9.743   3.184
 3463SOL    HW112228  14.287   9.779   3.136
 3463SOL    HW212229  14.157   9.705   3.116
 3464SOL     OW12230   7.595   5.139   0.744
 3464SOL    HW112231   7.544   5.069   0.703
 3464SOL    HW212232   7.612   5.108   0.833
 3465SOL     OW12233   4.418   4.193  12.138
 3465SOL    HW112234   4.427   4.282  12.172
 3465SOL    HW212235   4.412   4.137  12.216
 3466SOL     OW12236  10.765   3.843  12.620
 3466SOL    HW112237  10.779   3.764  12.567
 3466SOL    HW212238  10.843   3.896  12.603
 3467SOL     OW12239  13.636  12.530  14.665
 3467SOL    HW112240  13.715  12.487  14.631
 3467SOL    HW212241  13.666  12.617  14.692
 3468SOL     OW12242  10.461   1.584  14.518
 3468SOL    HW112243  10.422   1.530  14.587
 3468SOL    HW212244  10.490   1.521  14.452
 3469SOL     OW12245   9.969   6.819   6.348
 3469SOL    HW112246   9.941   6.857   6.431
 3469SOL    HW212247  10.015   6.890   6.303
 3470SOL     OW12248   1.888   1.182   7.700
 3470SOL    HW112249   1.822   1.114   7.684
 3470SOL    HW212250   1.940   1.183   7.620
 3471SOL     OW12251  10.527   0.838   1.111
 3471SOL    HW112252  10.488   0.751   1.103
 3471SOL    HW212253  10.460   0.897   1.077
 3472SOL     OW12254   7.111  10.205   4.105
 3472SOL    HW112255   7.184  10.219   4.045
 3472SOL    HW212256   7.036  10.247   4.062
 3473SOL     OW12257  12.744  10.209   8.980
 3473SOL    HW112258  12.681  10.223   8.909
 3473SOL    HW212259  12.803  10.284   8.975
 3474SOL     OW12260  13.578  12.782  14.448
 3474SOL    HW112261  13.589  12.780  14.543
 3474SOL    HW212262  13.613  12.867  14.422
 3475SOL     OW12263   8.847   2.688   8.639
 3475SOL    HW112264   8.876   2.599   8.619
 3475SOL    HW212265   8.852   2.733   8.555
 3476SOL     OW12266   6.337   2.973   7.377
 3476SOL    HW112267   6.304   2.960   7.466
 3476SOL    HW212268   6.395   3.049   7.385
 3477SOL     OW12269   9.716  12.446   7.676
 3477SOL    HW112270   9.643  12.439   7.614
 3477SOL    HW212271   9.693  12.522   7.731
 3478SOL     OW12272   4.797   3.099  10.142
 3478SOL    HW112273   4.707   3.129  10.158
 3478SOL    HW212274   4.851   3.157  10.196
 3479SOL     OW12275   8.772   5.250   6.770
 3479SOL    HW112276   8.743   5.335   6.735
 3479SOL    HW212277   8.699   5.191   6.751
 3480SOL     OW12278   6.823   5.690  14.145
 3480SOL    HW112279   6.894   5.718  14.203
 3480SOL    HW212280   6.743   5.718  14.189
 3481SOL     OW12281   0.393   1.438  13.360
 3481SOL    HW112282   0.434   1.412  13.277
 3481SOL    HW212283   0.459   1.415  13.426
 3482SOL     OW12284   1.247   0.402   0.436
 3482SOL    HW112285   1.180   0.345   0.397
 3482SOL    HW212286   1.329   0.372   0.398
 3483SOL     OW12287   7.224   5.961   0.132
 3483SOL    HW112288   7.203   6.033   0.072
 3483SOL    HW212289   7.161   5.972   0.204
 3484SOL     OW12290   1.333   3.340   0.510
 3484SOL    HW112291   1.248   3.357   0.550
 3484SOL    HW212292   1.395   3.339   0.583
 3485SOL     OW12293   0.900   2.510  12.562
 3485SOL    HW112294   0.861   2.427  12.590
 3485SOL    HW212295   0.828   2.557  12.519
 3486SOL     OW12296   2.595  11.803   1.944
 3486SOL    HW112297   2.671  11.791   1.887
 3486SOL    HW212298   2.632  11.810   2.032
 3487SOL     OW12299   5.801   6.180   2.101
 3487SOL    HW112300   5.729   6.129   2.137
 3487SOL    HW212301   5.769   6.211   2.016
 3488SOL     OW12302   0.774  14.426   3.860
 3488SOL    HW112303   0.775  14.473   3.777
 3488SOL    HW212304   0.682  14.403   3.873
 3489SOL     OW12305   5.331  12.123   6.702
 3489SOL    HW112306   5.383  12.053   6.743
 3489SOL    HW212307   5.395  12.192   6.683
 3490SOL     OW12308   1.585  13.826   0.013
 3490SOL    HW112309   1.496  13.849  14.863
 3490SOL    HW212310   1.637  13.903  14.866
 3491SOL     OW12311  10.940   2.979   5.659
 3491SOL    HW112312  11.022   3.026   5.676
 3491SOL    HW212313  10.962   2.914   5.593
 3492SOL     OW12314   1.270   6.403   5.131
 3492SOL    HW112315   1.262   6.314   5.165
 3492SOL    HW212316   1.242   6.459   5.203
 3493SOL     OW12317  10.180   1.578   0.678
 3493SOL    HW112318  10.176   1.600   0.585
 3493SOL    HW212319  10.272   1.588   0.701
 3494SOL     OW12320   9.166   3.446   1.458
 3494SOL    HW112321   9.252   3.414   1.483
 3494SOL    HW212322   9.113   3.439   1.537
 3495SOL     OW12323  11.007  14.734  10.026
 3495SOL    HW112324  11.074  14.666  10.029
 3495SOL    HW212325  10.939  14.698   9.968
 3496SOL     OW12326  13.433  14.199  10.628
 3496SOL    HW112327  13.483  14.165  10.703
 3496SOL    HW212328  13.353  14.146  10.627
 3497SOL     OW12329  11.712  10.946  10.299
 3497SOL    HW112330  11.774  10.882  10.334
 3497SOL    HW212331  11.673  10.988  10.376
 3498SOL     OW12332  10.655   3.715   1.900
 3498SOL    HW112333  10.689   3.675   1.819
 3498SOL    HW212334  10.725   3.704   1.963
 3499SOL     OW12335   6.727   9.860  12.359
 3499SOL    HW112336   6.709   9.809  12.438
 3499SOL    HW212337   6.702   9.949  12.381
 3500SOL     OW12338   0.061   0.671   0.720
 3500SOL    HW112339   0.040   0.761   0.743
 3500SOL    HW212340   0.126   0.644   0.786
 3501SOL     OW12341   2.946  12.142  14.536
 3501SOL    HW112342   2.982  12.228  14.515
 3501SOL    HW212343   2.882  12.126  14.467
 3502SOL     OW12344   3.770  11.184   7.646
 3502SOL    HW112345   3.770  11.172   7.741
 3502SOL    HW212346   3.853  11.229   7.627
 3503SOL     OW12347  11.028  14.293  13.175
 3503SOL    HW112348  10.938  14.264  13.188
 3503SOL    HW212349  11.030  14.382  13.211
 3504SOL     OW12350   2.948   6.227   7.150
 3504SOL    HW112351   2.904   6.311   7.164
 3504SOL    HW212352   3.024   6.230   7.207
 3505SOL     OW12353  14.325   8.521  14.123
 3505SOL    HW112354  14.344   8.492  14.034
 3505SOL    HW212355  14.248   8.578  14.113
 3506SOL     OW12356  13.947   4.555  12.723
 3506SOL    HW112357  13.853   4.564  12.732
 3506SOL    HW212358  13.972   4.494  12.792
 3507SOL     OW12359  10.613   2.998   0.848
 3507SOL    HW112360  10.564   3.023   0.769
 3507SOL    HW212361  10.689   3.056   0.849
 3508SOL     OW12362  11.332   3.347   8.843
 3508SOL    HW112363  11.304   3.400   8.769
 3508SOL    HW212364  11.282   3.266   8.834
 3509SOL     OW12365   1.527   2.018   9.474
 3509SOL    HW112366   1.440   2.044   9.503
 3509SOL    HW212367   1.563   2.097   9.434
 3510SOL     OW12368   5.352   1.065   5.721
 3510SOL    HW112369   5.305   0.993   5.679
 3510SOL    HW212370   5.346   1.138   5.660
 3511SOL     OW12371  12.448  14.612  11.696
 3511SOL    HW112372  12.491  14.561  11.765
 3511SOL    HW212373  12.355  14.606  11.715
 3512SOL     OW12374   4.180   5.754   3.112
 3512SOL    HW112375   4.224   5.707   3.041
 3512SOL    HW212376   4.169   5.688   3.181
 3513SOL     OW12377  10.295   8.784   5.228
 3513SOL    HW112378  10.243   8.785   5.309
 3513SOL    HW212379  10.266   8.862   5.181
 3514SOL     OW12380   5.363   7.874   5.512
 3514SOL    HW112381   5.399   7.796   5.470
 3514SOL    HW212382   5.403   7.947   5.466
 3515SOL     OW12383  10.443  11.453   9.367
 3515SOL    HW112384  10.393  11.385   9.412
 3515SOL    HW212385  10.527  11.412   9.347
 3516SOL     OW12386   7.255   6.772  10.421
 3516SOL    HW112387   7.193   6.750  10.351
 3516SOL    HW212388   7.253   6.696  10.480
 3517SOL     OW12389   7.766  11.163   0.705
 3517SOL    HW112390   7.800  11.158   0.616
 3517SOL    HW212391   7.768  11.257   0.726
 3518SOL     OW12392   4.437  14.003  13.590
 3518SOL    HW112393   4.351  13.963  13.595
 3518SOL    HW212394   4.487  13.963  13.662
 3519SOL     OW12395   3.636  11.987   7.447
 3519SOL    HW112396   3.637  11.901   7.489
 3519SOL    HW212397   3.591  11.973   7.363
 3520SOL     OW12398  13.531   1.817   2.535
 3520SOL    HW112399  13.519   1.796   2.627
 3520SOL    HW212400  13.444   1.846   2.505
 3521SOL     OW12401   1.290  12.832   2.587
 3521SOL    HW112402   1.312  12.770   2.517
 3521SOL    HW212403   1.367  12.889   2.593
 3522SOL     OW12404   3.667   4.281  10.670
 3522SOL    HW112405   3.700   4.310  10.755
 3522SOL    HW212406   3.742   4.290  10.611
 3523SOL     OW12407   5.413  12.297   6.248
 3523SOL    HW112408   5.321  12.287   6.272
 3523SOL    HW212409   5.457  12.223   6.290
 3524SOL     OW12410   4.990  13.821  11.449
 3524SOL    HW112411   4.995  13.909  11.487
 3524SOL    HW212412   5.075  13.809  11.407
 3525SOL     OW12413   0.326   3.774   4.902
 3525SOL    HW112414   0.293   3.822   4.826
 3525SOL    HW212415   0.389   3.712   4.867
 3526SOL     OW12416   9.406  13.996  11.275
 3526SOL    HW112417   9.349  14.051  11.221
 3526SOL    HW212418   9.494  14.010  11.240
 3527SOL     OW12419  11.230   0.379   7.074
 3527SOL    HW112420  11.220   0.468   7.042
 3527SOL    HW212421  11.315   0.379   7.118
 3528SOL     OW12422  12.948   5.968  12.056
 3528SOL    HW112423  13.032   5.935  12.023
 3528SOL    HW212424  12.883   5.907  12.022
 3529SOL     OW12425   6.802  13.596   0.373
 3529SOL    HW112426   6.885  13.574   0.331
 3529SOL    HW212427   6.821  13.594   0.467
 3530SOL     OW12428  12.674  10.568  13.435
 3530SOL    HW112429  12.595  10.558  13.489
 3530SOL    HW212430  12.728  10.631  13.483
 3531SOL     OW12431   7.442  13.994  12.657
 3531SOL    HW112432   7.491  14.064  12.700
 3531SOL    HW212433   7.371  13.974  12.718
 3532SOL     OW12434   9.354   5.700  12.039
 3532SOL    HW112435   9.281   5.761  12.028
 3532SOL    HW212436   9.422   5.735  11.982
 3533SOL     OW12437   4.156   1.586   9.405
 3533SOL    HW112438   4.217   1.514   9.388
 3533SOL    HW212439   4.116   1.603   9.319
 3534SOL     OW12440   7.551   6.281   4.396
 3534SOL    HW112441   7.576   6.366   4.359
 3534SOL    HW212442   7.477   6.252   4.342
 3535SOL     OW12443  10.701   7.652   8.401
 3535SOL    HW112444  10.752   7.577   8.372
 3535SOL    HW212445  10.612   7.634   8.372
 3536SOL     OW12446  11.421   5.957  11.385
 3536SOL    HW112447  11.428   6.034  11.441
 3536SOL    HW212448  11.487   5.897  11.418
 3537SOL     OW12449   5.291   4.438   7.335
 3537SOL    HW112450   5.321   4.370   7.274
 3537SOL    HW212451   5.215   4.400   7.378
 3538SOL     OW12452   8.261   3.717  10.883
 3538SOL    HW112453   8.349   3.726  10.847
 3538SOL    HW212454   8.214   3.793  10.851
 3539SOL     OW12455  13.943  13.801   7.834
 3539SOL    HW112456  14.003  13.812   7.908
 3539SOL    HW212457  13.893  13.723   7.855
 3540SOL     OW12458  14.061   8.976   4.734
 3540SOL    HW112459  14.105   9.040   4.791
 3540SOL    HW212460  14.131   8.920   4.703
 3541SOL     OW12461   1.723   3.320   7.048
 3541SOL    HW112462   1.690   3.401   7.086
 3541SOL    HW212463   1.758   3.345   6.962
 3542SOL     OW12464   3.331   9.520   2.007
 3542SOL    HW112465   3.263   9.542   1.943
 3542SOL    HW212466   3.363   9.434   1.980
 3543SOL     OW12467   7.615  11.352   1.570
 3543SOL    HW112468   7.570  11.336   1.488
 3543SOL    HW212469   7.550  11.333   1.638
 3544SOL     OW12470   7.583  14.599   0.354
 3544SOL    HW112471   7.621  14.671   0.303
 3544SOL    HW212472   7.637  14.523   0.331
 3545SOL     OW12473   5.263  13.089  11.972
 3545SOL    HW112474   5.224  13.156  12.029
 3545SOL    HW212475   5.282  13.016  12.031
 3546SOL     OW12476   6.171  13.148   6.473
 3546SOL    HW112477   6.187  13.204   6.548
 3546SOL    HW212478   6.248  13.091   6.468
 3547SOL     OW12479   9.242   4.078   7.040
 3547SOL    HW112480   9.216   3.990   7.013
 3547SOL    HW212481   9.313   4.100   6.979
 3548SOL     OW12482   9.293  13.447   1.613
 3548SOL    HW112483   9.248  13.384   1.557
 3548SOL    HW212484   9.377  13.405   1.634
 3549SOL     OW12485   8.362  12.845   7.643
 3549SOL    HW112486   8.394  12.918   7.696
 3549SOL    HW212487   8.383  12.767   7.696
 3550SOL     OW12488   2.687   7.270   9.879
 3550SOL    HW112489   2.643   7.273   9.794
 3550SOL    HW212490   2.616   7.260   9.942
 3551SOL     OW12491  13.510   1.104   1.682
 3551SOL    HW112492  13.510   1.008   1.683
 3551SOL    HW212493  13.518   1.128   1.774
 3552SOL     OW12494   5.543  13.843   0.757
 3552SOL    HW112495   5.459  13.836   0.711
 3552SOL    HW212496   5.542  13.771   0.820
 3553SOL     OW12497  10.594   7.853   4.304
 3553SOL    HW112498  10.686   7.826   4.310
 3553SOL    HW212499  10.594   7.943   4.334
 3554SOL     OW12500   7.818   2.955  10.290
 3554SOL    HW112501   7.769   2.938  10.370
 3554SOL    HW212502   7.843   2.868  10.258
 3555SOL     OW12503   4.916   8.682   7.818
 3555SOL    HW112504   4.900   8.772   7.847
 3555SOL    HW212505   4.980   8.647   7.880
 3556SOL     OW12506   6.598   0.569  14.833
 3556SOL    HW112507   6.634   0.562  14.745
 3556SOL    HW212508   6.510   0.604  14.821
 3557SOL     OW12509   9.751  13.524  14.090
 3557SOL    HW112510   9.761  13.610  14.049
 3557SOL    HW212511   9.757  13.541  14.184
 3558SOL     OW12512   6.353   2.615   1.292
 3558SOL    HW112513   6.419   2.549   1.270
 3558SOL    HW212514   6.377   2.691   1.238
 3559SOL     OW12515  11.563  11.673   4.102
 3559SOL    HW112516  11.537  11.746   4.158
 3559SOL    HW212517  11.525  11.693   4.016
 3560SOL     OW12518   0.315   4.419   9.678
 3560SOL    HW112519   0.384   4.469   9.722
 3560SOL    HW212520   0.302   4.342   9.734
 3561SOL     OW12521  11.069  13.870  11.406
 3561SOL    HW112522  11.055  13.844  11.315
 3561SOL    HW212523  10.999  13.826  11.454
 3562SOL     OW12524  14.497   9.945   0.589
 3562SOL    HW112525  14.441   9.868   0.590
 3562SOL    HW212526  14.474   9.991   0.508
 3563SOL     OW12527   7.899   1.731   1.428
 3563SOL    HW112528   7.902   1.636   1.418
 3563SOL    HW212529   7.955   1.765   1.358
 3564SOL     OW12530   7.865   1.664  13.071
 3564SOL    HW112531   7.910   1.606  13.009
 3564SOL    HW212532   7.844   1.607  13.145
 3565SOL     OW12533   0.096  14.567   5.379
 3565SOL    HW112534   0.056  14.621   5.311
 3565SOL    HW212535   0.093  14.621   5.457
 3566SOL     OW12536   8.454   3.721   0.482
 3566SOL    HW112537   8.535   3.773   0.489
 3566SOL    HW212538   8.482   3.639   0.442
 3567SOL     OW12539   5.147   1.029   7.785
 3567SOL    HW112540   5.107   1.093   7.844
 3567SOL    HW212541   5.213   0.985   7.838
 3568SOL     OW12542   9.623   0.890  13.362
 3568SOL    HW112543   9.589   0.976  13.385
 3568SOL    HW212544   9.602   0.880  13.269
 3569SOL     OW12545   3.748  12.197   0.543
 3569SOL    HW112546   3.762  12.118   0.595
 3569SOL    HW212547   3.792  12.178   0.460
 3570SOL     OW12548   8.289   7.430  13.921
 3570SOL    HW112549   8.254   7.479  13.846
 3570SOL    HW212550   8.220   7.367  13.943
 3571SOL     OW12551   8.600  11.790   1.510
 3571SOL    HW112552   8.594  11.862   1.572
 3571SOL    HW212553   8.596  11.831   1.424
 3572SOL     OW12554  10.143   4.215  12.987
 3572SOL    HW112555  10.175   4.265  13.063
 3572SOL    HW212556  10.221   4.172  12.952
 3573SOL     OW12557  12.155   0.031   6.682
 3573SOL    HW112558  12.081   0.003   6.628
 3573SOL    HW212559  12.134   0.001   6.770
 3574SOL     OW12560  12.798   3.770  12.268
 3574SOL    HW112561  12.841   3.770  12.353
 3574SOL    HW212562  12.866   3.800  12.207
 3575SOL     OW12563   6.966  11.766  11.573
 3575SOL    HW112564   6.935  11.677  11.556
 3575SOL    HW212565   6.945  11.814  11.493
 3576SOL     OW12566   6.066   6.402   1.157
 3576SOL    HW112567   6.115   6.431   1.234
 3576SOL    HW212568   6.116   6.327   1.124
 3577SOL     OW12569  12.701   4.251   3.439
 3577SOL    HW112570  12.751   4.172   3.416
 3577SOL    HW212571  12.721   4.267   3.531
 3578SOL     OW12572   5.078   6.031  10.220
 3578SOL    HW112573   5.127   6.059  10.143
 3578SOL    HW212574   5.079   6.106  10.278
 3579SOL     OW12575   4.189  11.530  11.222
 3579SOL    HW112576   4.224  11.553  11.136
 3579SOL    HW212577   4.264  11.532  11.280
 3580SOL     OW12578   4.243   8.822  11.428
 3580SOL    HW112579   4.285   8.787  11.349
 3580SOL    HW212580   4.247   8.750  11.491
 3581SOL     OW12581  13.923  12.693   1.481
 3581SOL    HW112582  13.914  12.788   1.480
 3581SOL    HW212583  13.995  12.676   1.542
 3582SOL     OW12584  11.240   5.757  13.512
 3582SOL    HW112585  11.308   5.816  13.479
 3582SOL    HW212586  11.221   5.699  13.439
 3583SOL     OW12587  11.830   6.067  14.721
 3583SOL    HW112588  11.889   6.008  14.675
 3583SOL    HW212589  11.878   6.094  14.799
 3584SOL     OW12590   4.188   2.240   7.245
 3584SOL    HW112591   4.258   2.178   7.269
 3584SOL    HW212592   4.117   2.218   7.305
 3585SOL     OW12593   1.806   3.733   7.955
 3585SOL    HW112594   1.876   3.672   7.934
 3585SOL    HW212595   1.743   3.723   7.883
 3586SOL     OW12596   3.791   6.002   5.868
 3586SOL    HW112597   3.772   6.095   5.881
 3586SOL    HW212598   3.831   5.998   5.781
 3587SOL     OW12599   8.144   5.965   3.769
 3587SOL    HW112600   8.085   5.890   3.773
 3587SOL    HW212601   8.206   5.951   3.840
 3588SOL     OW12602  14.428   8.244   3.144
 3588SOL    HW112603  14.355   8.301   3.118
 3588SOL    HW212604  14.499   8.305   3.163
 3589SOL     OW12605   6.676   5.602  10.479
 3589SOL    HW112606   6.742   5.532  10.479
 3589SOL    HW212607   6.672   5.631  10.388
 3590SOL     OW12608   1.280   0.123   0.367
 3590SOL    HW112609   1.237   0.061   0.425
 3590SOL    HW212610   1.208   0.175   0.329
 3591SOL     OW12611   4.557   7.913  11.490
 3591SOL    HW112612   4.536   7.983  11.552
 3591SOL    HW212613   4.651   7.926  11.471
 3592SOL     OW12614   5.963   6.793   8.447
 3592SOL    HW112615   5.882   6.825   8.486
 3592SOL    HW212616   5.984   6.714   8.498
 3593SOL     OW12617  11.207   2.753  11.701
 3593SOL    HW112618  11.129   2.781  11.747
 3593SOL    HW212619  11.229   2.668  11.739
 3594SOL     OW12620   9.270   0.627   6.509
 3594SOL    HW112621   9.184   0.615   6.549
 3594SOL    HW212622   9.323   0.555   6.543
 3595SOL     OW12623   8.190   8.206   6.563
 3595SOL    HW112624   8.214   8.205   6.470
 3595SOL    HW212625   8.248   8.143   6.604
 3596SOL     OW12626   0.331   3.730   6.888
 3596SOL    HW112627   0.320   3.723   6.982
 3596SOL    HW212628   0.273   3.662   6.852
 3597SOL     OW12629   5.645  14.166  10.737
 3597SOL    HW112630   5.642  14.073  10.762
 3597SOL    HW212631   5.720  14.172  10.678
 3598SOL     OW12632   0.703  11.920   2.500
 3598SOL    HW112633   0.628  11.862   2.512
 3598SOL    HW212634   0.761  11.873   2.440
 3599SOL     OW12635   5.277   0.174  11.178
 3599SOL    HW112636   5.283   0.240  11.109
 3599SOL    HW212637   5.279   0.225  11.259
 3600SOL     OW12638  10.334   3.043  12.524
 3600SOL    HW112639  10.275   3.008  12.591
 3600SOL    HW212640  10.358   3.129  12.556
 3601SOL     OW12641   7.149  10.915  12.708
 3601SOL    HW112642   7.224  10.954  12.663
 3601SOL    HW212643   7.080  10.914  12.643
 3602SOL     OW12644   3.041  12.072  14.773
 3602SOL    HW112645   3.136  12.081  14.759
 3602SOL    HW212646   3.002  12.090  14.687
 3603SOL     OW12647   0.919  13.987   6.860
 3603SOL    HW112648   0.853  13.936   6.814
 3603SOL    HW212649   0.985  13.923   6.887
 3604SOL     OW12650   5.249   3.440   4.704
 3604SOL    HW112651   5.328   3.479   4.666
 3604SOL    HW212652   5.268   3.431   4.797
 3605SOL     OW12653  10.193   0.612  13.520
 3605SOL    HW112654  10.190   0.533  13.466
 3605SOL    HW212655  10.277   0.606  13.566
 3606SOL     OW12656  13.126   0.429   9.109
 3606SOL    HW112657  13.069   0.446   9.035
 3606SOL    HW212658  13.075   0.372   9.167
 3607SOL     OW12659   7.036   3.097  14.463
 3607SOL    HW112660   6.963   3.039  14.441
 3607SOL    HW212661   7.094   3.093  14.387
 3608SOL     OW12662   7.976  10.715   5.269
 3608SOL    HW112663   8.037  10.680   5.203
 3608SOL    HW212664   7.923  10.641   5.295
 3609SOL     OW12665   5.476  12.281   4.385
 3609SOL    HW112666   5.483  12.373   4.359
 3609SOL    HW212667   5.516  12.233   4.312
 3610SOL     OW12668  13.285  12.974   2.124
 3610SOL    HW112669  13.219  12.906   2.108
 3610SOL    HW212670  13.237  13.057   2.114
 3611SOL     OW12671  11.449  12.312   8.957
 3611SOL    HW112672  11.445  12.381   9.023
 3611SOL    HW212673  11.482  12.235   9.004
 3612SOL     OW12674   6.780   5.034  11.581
 3612SOL    HW112675   6.836   5.028  11.659
 3612SOL    HW212676   6.842   5.040  11.508
 3613SOL     OW12677  10.569   0.846   1.899
 3613SOL    HW112678  10.558   0.756   1.867
 3613SOL    HW212679  10.485   0.866   1.941
 3614SOL     OW12680   6.177   2.687   9.686
 3614SOL    HW112681   6.089   2.710   9.654
 3614SOL    HW212682   6.169   2.689   9.781
 3615SOL     OW12683   0.490   7.902   3.089
 3615SOL    HW112684   0.451   7.960   3.155
 3615SOL    HW212685   0.567   7.864   3.133
 3616SOL     OW12686   5.614   5.968   2.080
 3616SOL    HW112687   5.612   5.897   2.145
 3616SOL    HW212688   5.531   6.013   2.092
 3617SOL     OW12689  10.518   8.041   3.363
 3617SOL    HW112690  10.612   8.050   3.375
 3617SOL    HW212691  10.495   8.111   3.301
 3618SOL     OW12692   9.297   7.706   5.898
 3618SOL    HW112693   9.220   7.651   5.913
 3618SOL    HW212694   9.355   7.686   5.971
 3619SOL     OW12695   0.551  13.926  14.491
 3619SOL    HW112696   0.512  13.856  14.542
 3619SOL    HW212697   0.575  13.992  14.556
 3620SOL     OW12698   9.461  14.457   8.461
 3620SOL    HW112699   9.430  14.391   8.523
 3620SOL    HW212700   9.550  14.478   8.489
 3621SOL     OW12701  12.357  13.604   9.762
 3621SOL    HW112702  12.407  13.523   9.757
 3621SOL    HW212703  12.379  13.650   9.681
 3622SOL     OW12704   4.600   5.211   0.543
 3622SOL    HW112705   4.590   5.287   0.486
 3622SOL    HW212706   4.511   5.181   0.559
 3623SOL     OW12707  10.616  12.062   8.188
 3623SOL    HW112708  10.630  12.106   8.104
 3623SOL    HW212709  10.703  12.059   8.227
 3624SOL     OW12710   9.085  14.370  10.517
 3624SOL    HW112711   9.148  14.438  10.493
 3624SOL    HW212712   9.003  14.397  10.477
 3625SOL     OW12713   8.757   2.029  11.857
 3625SOL    HW112714   8.779   2.022  11.765
 3625SOL    HW212715   8.721   2.117  11.867
 3626SOL     OW12716   3.408   6.524   2.306
 3626SOL    HW112717   3.450   6.585   2.368
 3626SOL    HW212718   3.480   6.493   2.251
 3627SOL     OW12719   9.270   2.030  13.396
 3627SOL    HW112720   9.322   2.025  13.317
 3627SOL    HW212721   9.219   1.948  13.397
 3628SOL     OW12722   0.559   1.963   1.020
 3628SOL    HW112723   0.628   1.941   1.083
 3628SOL    HW212724   0.508   1.883   1.010
 3629SOL     OW12725   6.488   3.202  11.785
 3629SOL    HW112726   6.479   3.295  11.761
 3629SOL    HW212727   6.499   3.157  11.701
 3630SOL     OW12728  13.096  10.573  11.647
 3630SOL    HW112729  13.064  10.555  11.736
 3630SOL    HW212730  13.030  10.534  11.590
 3631SOL     OW12731   3.354   6.755   5.043
 3631SOL    HW112732   3.274   6.721   5.004
 3631SOL    HW212733   3.367   6.702   5.122
 3632SOL     OW12734   3.053  11.376   0.217
 3632SOL    HW112735   3.030  11.468   0.204
 3632SOL    HW212736   2.974  11.335   0.251
 3633SOL     OW12737   0.044   2.682   3.169
 3633SOL    HW112738   0.084   2.722   3.246
 3633SOL    HW212739   0.117   2.673   3.107
 3634SOL     OW12740  14.717   9.982   7.664
 3634SOL    HW112741  14.711   9.910   7.727
 3634SOL    HW212742  14.644   9.968   7.604
 3635SOL     OW12743  12.511   0.402   6.286
 3635SOL    HW112744  12.555   0.484   6.261
 3635SOL    HW212745  12.421   0.414   6.256
 3636SOL     OW12746  11.872   7.644   4.191
 3636SOL    HW112747  11.920   7.575   4.236
 3636SOL    HW212748  11.814   7.598   4.130
 3637SOL     OW12749   4.575   0.934   7.333
 3637SOL    HW112750   4.524   1.014   7.320
 3637SOL    HW212751   4.665   0.960   7.314
 3638SOL     OW12752   9.250  11.771  11.663
 3638SOL    HW112753   9.160  11.798  11.683
 3638SOL    HW212754   9.284  11.738  11.746
 3639SOL     OW12755  11.429  12.691   6.749
 3639SOL    HW112756  11.371  12.764   6.771
 3639SOL    HW212757  11.372  12.615   6.746
 3640SOL     OW12758   1.734   8.443   5.681
 3640SOL    HW112759   1.679   8.460   5.758
 3640SOL    HW212760   1.812   8.497   5.695
 3641SOL     OW12761   8.858   4.607  10.062
 3641SOL    HW112762   8.936   4.582  10.111
 3641SOL    HW212763   8.794   4.539  10.083
 3642SOL     OW12764   7.802   0.080   9.062
 3642SOL    HW112765   7.793   0.075   8.967
 3642SOL    HW212766   7.788   0.172   9.083
 3643SOL     OW12767  11.009  11.195   6.411
 3643SOL    HW112768  10.953  11.196   6.489
 3643SOL    HW212769  11.006  11.285   6.378
 3644SOL     OW12770   5.179   7.261  12.655
 3644SOL    HW112771   5.254   7.202  12.666
 3644SOL    HW212772   5.190   7.327  12.723
 3645SOL     OW12773   3.554   0.508   8.318
 3645SOL    HW112774   3.512   0.451   8.383
 3645SOL    HW212775   3.567   0.451   8.242
 3646SOL     OW12776  11.161  10.167  11.008
 3646SOL    HW112777  11.069  10.186  10.995
 3646SOL    HW212778  11.200  10.177  10.921
 3647SOL     OW12779  10.690   7.547   1.572
 3647SOL    HW112780  10.642   7.526   1.492
 3647SOL    HW212781  10.622   7.573   1.635
 3648SOL     OW12782   3.998   8.333   6.698
 3648SOL    HW112783   3.958   8.384   6.628
 3648SOL    HW212784   4.035   8.398   6.757
 3649SOL     OW12785   5.742   9.300   8.548
 3649SOL    HW112786   5.768   9.379   8.500
 3649SOL    HW212787   5.816   9.280   8.604
 3650SOL     OW12788   7.740  11.156   1.880
 3650SOL    HW112789   7.828  11.117   1.887
 3650SOL    HW212790   7.745  11.237   1.931
 3651SOL     OW12791   3.447   2.169  11.272
 3651SOL    HW112792   3.534   2.139  11.298
 3651SOL    HW212793   3.387   2.109  11.317
 3652SOL     OW12794   8.003   3.938   5.973
 3652SOL    HW112795   8.065   3.995   5.927
 3652SOL    HW212796   7.918   3.958   5.935
 3653SOL     OW12797  14.484  14.530   7.087
 3653SOL    HW112798  14.496  14.617   7.048
 3653SOL    HW212799  14.520  14.539   7.176
 3654SOL     OW12800  13.819   4.606   3.580
 3654SOL    HW112801  13.765   4.654   3.643
 3654SOL    HW212802  13.808   4.654   3.497
 3655SOL     OW12803  12.759   5.838   5.670
 3655SOL    HW112804  12.672   5.803   5.688
 3655SOL    HW212805  12.809   5.762   5.638
 3656SOL     OW12806   8.293   8.325  10.814
 3656SOL    HW112807   8.202   8.355  10.818
 3656SOL    HW212808   8.322   8.323  10.905
 3657SOL     OW12809   9.304   1.162   1.754
 3657SOL    HW112810   9.308   1.083   1.808
 3657SOL    HW212811   9.369   1.221   1.791
 3658SOL     OW12812   0.803   4.417   0.557
 3658SOL    HW112813   0.747   4.359   0.610
 3658SOL    HW212814   0.838   4.360   0.490
 3659SOL     OW12815  11.845   9.388  11.873
 3659SOL    HW112816  11.773   9.325  11.868
 3659SOL    HW212817  11.918   9.344  11.829
 3660SOL     OW12818  13.027   4.246   1.701
 3660SOL    HW112819  12.942   4.287   1.688
 3660SOL    HW212820  13.059   4.283   1.784
 3661SOL     OW12821  11.956   7.719  13.214
 3661SOL    HW112822  11.956   7.771  13.134
 3661SOL    HW212823  12.043   7.730  13.250
 3662SOL     OW12824   6.113   6.855  13.190
 3662SOL    HW112825   6.104   6.931  13.247
 3662SOL    HW212826   6.186   6.805  13.226
 3663SOL     OW12827   7.823   6.420   7.657
 3663SOL    HW112828   7.912   6.387   7.667
 3663SOL    HW212829   7.788   6.374   7.581
 3664SOL     OW12830   4.960  13.130   7.477
 3664SOL    HW112831   4.894  13.085   7.529
 3664SOL    HW212832   4.934  13.116   7.386
 3665SOL     OW12833   7.375   4.591  12.842
 3665SOL    HW112834   7.440   4.656  12.815
 3665SOL    HW212835   7.303   4.603  12.780
 3666SOL     OW12836  10.418   3.878   5.342
 3666SOL    HW112837  10.355   3.937   5.301
 3666SOL    HW212838  10.469   3.935   5.401
 3667SOL     OW12839   7.906   5.009   1.421
 3667SOL    HW112840   7.984   5.052   1.384
 3667SOL    HW212841   7.885   4.940   1.358
 3668SOL     OW12842  14.029   9.939   7.374
 3668SOL    HW112843  13.995   9.857   7.411
 3668SOL    HW212844  13.960   9.969   7.315
 3669SOL     OW12845   6.888  14.106   7.859
 3669SOL    HW112846   6.885  14.026   7.910
 3669SOL    HW212847   6.970  14.149   7.887
 3670SOL     OW12848   9.894   7.496   0.106
 3670SOL    HW112849   9.835   7.421   0.098
 3670SOL    HW212850   9.912   7.503   0.199
 3671SOL     OW12851   4.552  11.816   9.542
 3671SOL    HW112852   4.528  11.872   9.617
 3671SOL    HW212853   4.596  11.875   9.481
 3672SOL     OW12854   0.602   6.166  11.078
 3672SOL    HW112855   0.681   6.129  11.116
 3672SOL    HW212856   0.537   6.096  11.086
 3673SOL     OW12857   5.175  13.651  11.280
 3673SOL    HW112858   5.086  13.636  11.249
 3673SOL    HW212859   5.231  13.618  11.210
 3674SOL     OW12860   1.020  13.768  10.685
 3674SOL    HW112861   1.049  13.677  10.670
 3674SOL    HW212862   1.078  13.800  10.755
 3675SOL     OW12863  12.875   2.862   1.139
 3675SOL    HW112864  12.799   2.916   1.159
 3675SOL    HW212865  12.948   2.906   1.181
 3676SOL     OW12866   8.969   6.841   4.650
 3676SOL    HW112867   8.953   6.857   4.743
 3676SOL    HW212868   8.888   6.801   4.618
 3677SOL     OW12869   0.554   5.585   2.867
 3677SOL    HW112870   0.641   5.613   2.837
 3677SOL    HW212871   0.572   5.519   2.934
 3678SOL     OW12872   1.373  10.728   2.548
 3678SOL    HW112873   1.380  10.818   2.580
 3678SOL    HW212874   1.303  10.732   2.482
 3679SOL     OW12875   9.017   0.349  11.581
 3679SOL    HW112876   9.061   0.417  11.632
 3679SOL    HW212877   8.928   0.345  11.617
 3680SOL     OW12878   4.203   4.021   6.730
 3680SOL    HW112879   4.296   4.044   6.722
 3680SOL    HW212880   4.202   3.950   6.794
 3681SOL     OW12881  11.693   3.137  14.502
 3681SOL    HW112882  11.670   3.072  14.568
 3681SOL    HW212883  11.609   3.164  14.464
 3682SOL     OW12884   1.694   3.294   3.703
 3682SOL    HW112885   1.756   3.244   3.650
 3682SOL    HW212886   1.739   3.307   3.787
 3683SOL     OW12887   4.048  12.808   5.605
 3683SOL    HW112888   3.956  12.808   5.633
 3683SOL    HW212889   4.045  12.833   5.513
 3684SOL     OW12890   0.662  11.661   9.102
 3684SOL    HW112891   0.581  11.634   9.058
 3684SOL    HW212892   0.732  11.626   9.047
 3685SOL     OW12893  14.226  13.005   1.005
 3685SOL    HW112894  14.258  13.052   1.082
 3685SOL    HW212895  14.180  13.071   0.954
 3686SOL     OW12896   2.103  13.164   9.408
 3686SOL    HW112897   2.081  13.223   9.479
 3686SOL    HW212898   2.096  13.076   9.445
 3687SOL     OW12899   5.541  10.206  12.241
 3687SOL    HW112900   5.460  10.156  12.235
 3687SOL    HW212901   5.537  10.267  12.167
 3688SOL     OW12902   9.795   3.608  10.771
 3688SOL    HW112903   9.769   3.517  10.788
 3688SOL    HW212904   9.844   3.603  10.688
 3689SOL     OW12905   8.325   8.846  10.064
 3689SOL    HW112906   8.418   8.824  10.054
 3689SOL    HW212907   8.287   8.826   9.979
 3690SOL     OW12908   2.195  12.084   9.948
 3690SOL    HW112909   2.109  12.086   9.906
 3690SOL    HW212910   2.255  12.114   9.880
 3691SOL     OW12911   5.652   1.691  11.293
 3691SOL    HW112912   5.708   1.745  11.348
 3691SOL    HW212913   5.577   1.747  11.273
 3692SOL     OW12914   6.124   3.213  12.996
 3692SOL    HW112915   6.061   3.273  12.955
 3692SOL    HW212916   6.069   3.149  13.042
 3693SOL     OW12917  14.420   0.308   7.623
 3693SOL    HW112918  14.444   0.244   7.556
 3693SOL    HW212919  14.462   0.276   7.703
 3694SOL     OW12920   5.475  14.251   9.383
 3694SOL    HW112921   5.562  14.281   9.412
 3694SOL    HW212922   5.431  14.330   9.352
 3695SOL     OW12923   2.011   1.300  12.316
 3695SOL    HW112924   1.928   1.254  12.303
 3695SOL    HW212925   1.987   1.379  12.364
 3696SOL     OW12926  13.301   9.368  12.119
 3696SOL    HW112927  13.267   9.399  12.035
 3696SOL    HW212928  13.394   9.390  12.117
 3697SOL     OW12929  11.246  10.949   4.959
 3697SOL    HW112930  11.340  10.953   4.978
 3697SOL    HW212931  11.224  10.856   4.963
 3698SOL     OW12932   0.739  13.002   3.725
 3698SOL    HW112933   0.745  13.032   3.635
 3698SOL    HW212934   0.721  12.909   3.718
 3699SOL     OW12935  11.248   5.883   3.356
 3699SOL    HW112936  11.253   5.965   3.308
 3699SOL    HW212937  11.178   5.834   3.313
 3700SOL     OW12938   4.534   1.750   1.260
 3700SOL    HW112939   4.480   1.756   1.182
 3700SOL    HW212940   4.534   1.839   1.297
 3701SOL     OW12941  12.161   3.916   5.303
 3701SOL    HW112942  12.124   3.881   5.384
 3701SOL    HW212943  12.091   3.970   5.266
 3702SOL     OW12944  13.305  13.569   4.591
 3702SOL    HW112945  13.363  13.497   4.567
 3702SOL    HW212946  13.346  13.609   4.668
 3703SOL     OW12947   6.762   7.275   4.573
 3703SOL    HW112948   6.812   7.347   4.533
 3703SOL    HW212949   6.692   7.319   4.621
 3704SOL     OW12950   8.665   2.091   7.836
 3704SOL    HW112951   8.604   2.017   7.840
 3704SOL    HW212952   8.722   2.070   7.761
 3705SOL     OW12953   1.511  13.630   6.210
 3705SOL    HW112954   1.460  13.702   6.175
 3705SOL    HW212955   1.464  13.604   6.290
 3706SOL     OW12956   9.419  13.191   7.351
 3706SOL    HW112957   9.330  13.191   7.385
 3706SOL    HW212958   9.422  13.265   7.290
 3707SOL     OW12959   8.016   9.228   5.680
 3707SOL    HW112960   8.073   9.247   5.606
 3707SOL    HW212961   7.938   9.281   5.665
 3708SOL     OW12962   7.563   1.085   4.161
 3708SOL    HW112963   7.520   1.052   4.082
 3708SOL    HW212964   7.517   1.165   4.183
 3709SOL     OW12965  14.836   4.665   4.431
 3709SOL    HW112966   0.031   4.688   4.491
 3709SOL    HW212967  14.796   4.588   4.471
 3710SOL     OW12968   2.517  14.132   1.701
 3710SOL    HW112969   2.434  14.087   1.687
 3710SOL    HW212970   2.574  14.067   1.742
 3711SOL     OW12971   0.250  11.633   6.535
 3711SOL    HW112972   0.189  11.680   6.592
 3711SOL    HW212973   0.193  11.580   6.479
 3712SOL     OW12974   0.580   8.599   4.242
 3712SOL    HW112975   0.530   8.535   4.292
 3712SOL    HW212976   0.566   8.682   4.288
 3713SOL     OW12977   6.965   1.440   5.670
 3713SOL    HW112978   7.003   1.364   5.715
 3713SOL    HW212979   6.936   1.498   5.740
 3714SOL     OW12980  12.545  10.198   8.809
 3714SOL    HW112981  12.559  10.284   8.769
 3714SOL    HW212982  12.475  10.159   8.758
 3715SOL     OW12983  14.592  10.252   8.420
 3715SOL    HW112984  14.628  10.170   8.387
 3715SOL    HW212985  14.646  10.320   8.380
 3716SOL     OW12986   1.302   7.976   6.745
 3716SOL    HW112987   1.309   8.054   6.689
 3716SOL    HW212988   1.283   8.010   6.832
 3717SOL     OW12989  12.783  12.975  13.786
 3717SOL    HW112990  12.772  12.939  13.874
 3717SOL    HW212991  12.777  13.070  13.799
 3718SOL     OW12992   0.227  11.515   7.806
 3718SOL    HW112993   0.171  11.522   7.884
 3718SOL    HW212994   0.308  11.476   7.839
 3719SOL     OW12995   5.592  14.610   8.731
 3719SOL    HW112996   5.535  14.679   8.696
 3719SOL    HW212997   5.544  14.529   8.715
 3720SOL     OW12998   4.988   9.158   8.035
 3720SOL    HW112999   4.987   9.204   7.951
 3720SOL    HW213000   4.897   9.161   8.064
 3721SOL     OW13001  11.906  14.357   5.286
 3721SOL    HW113002  11.914  14.373   5.192
 3721SOL    HW213003  11.813  14.341   5.301
 3722SOL     OW13004   9.609   4.370   6.742
 3722SOL    HW113005   9.679   4.316   6.706
 3722SOL    HW213006   9.588   4.432   6.672
 3723SOL     OW13007   0.983   2.978  11.068
 3723SOL    HW113008   1.048   2.914  11.099
 3723SOL    HW213009   0.945   2.937  10.990
 3724SOL     OW13010   5.558   0.061   9.473
 3724SOL    HW113011   5.583   0.047   9.382
 3724SOL    HW213012   5.600  14.866   9.521
 3725SOL     OW13013   6.315  11.828   8.251
 3725SOL    HW113014   6.265  11.746   8.258
 3725SOL    HW213015   6.318  11.861   8.341
 3726SOL     OW13016   2.575   3.685  14.527
 3726SOL    HW113017   2.480   3.685  14.513
 3726SOL    HW213018   2.608   3.757  14.473
 3727SOL     OW13019  13.967   5.192  11.152
 3727SOL    HW113020  14.054   5.152  11.163
 3727SOL    HW213021  13.969   5.269  11.210
 3728SOL     OW13022   6.486   0.210  10.269
 3728SOL    HW113023   6.480   0.290  10.321
 3728SOL    HW213024   6.398   0.198  10.234
 3729SOL     OW13025   9.233   5.106  14.699
 3729SOL    HW113026   9.198   5.108  14.788
 3729SOL    HW213027   9.201   5.187  14.659
 3730SOL     OW13028   9.310   3.779   9.344
 3730SOL    HW113029   9.387   3.836   9.351
 3730SOL    HW213030   9.332   3.719   9.272
 3731SOL     OW13031   1.845   6.617   2.811
 3731SOL    HW113032   1.853   6.568   2.730
 3731SOL    HW213033   1.914   6.582   2.868
 3732SOL     OW13034  11.456   1.220   8.591
 3732SOL    HW113035  11.474   1.313   8.581
 3732SOL    HW213036  11.369   1.215   8.628
 3733SOL     OW13037   4.173   1.695   7.409
 3733SOL    HW113038   4.237   1.744   7.461
 3733SOL    HW213039   4.164   1.612   7.454
 3734SOL     OW13040  10.363  10.595   2.484
 3734SOL    HW113041  10.418  10.525   2.519
 3734SOL    HW213042  10.299  10.550   2.429
 3735SOL     OW13043  12.770   5.455   5.997
 3735SOL    HW113044  12.691   5.427   6.044
 3735SOL    HW213045  12.736   5.497   5.917
 3736SOL     OW13046   4.429  12.695  14.597
 3736SOL    HW113047   4.483  12.740  14.532
 3736SOL    HW213048   4.483  12.692  14.676
 3737SOL     OW13049   0.215   8.102   4.403
 3737SOL    HW113050   0.148   8.143   4.458
 3737SOL    HW213051   0.193   8.009   4.403
 3738SOL     OW13052   7.630   1.898  10.142
 3738SOL    HW113053   7.541   1.862  10.142
 3738SOL    HW213054   7.681   1.836  10.194
 3739SOL     OW13055   7.540   8.387  13.080
 3739SOL    HW113056   7.600   8.443  13.129
 3739SOL    HW213057   7.467   8.372  13.140
 3740SOL     OW13058   0.784   9.764  10.472
 3740SOL    HW113059   0.878   9.784  10.468
 3740SOL    HW213060   0.767   9.747  10.565
 3741SOL     OW13061   8.612   8.180   8.239
 3741SOL    HW113062   8.674   8.236   8.193
 3741SOL    HW213063   8.527   8.223   8.228
 3742SOL     OW13064  13.660   6.322  13.048
 3742SOL    HW113065  13.694   6.412  13.051
 3742SOL    HW213066  13.628   6.312  12.958
 3743SOL     OW13067   4.218   0.511   6.932
 3743SOL    HW113068   4.223   0.537   7.024
 3743SOL    HW213069   4.219   0.594   6.884
 3744SOL     OW13070   5.290   5.995   8.998
 3744SOL    HW113071   5.236   6.058   8.950
 3744SOL    HW213072   5.311   5.927   8.933
 3745SOL     OW13073  12.503   6.433   1.734
 3745SOL    HW113074  12.421   6.439   1.784
 3745SOL    HW213075  12.493   6.353   1.681
 3746SOL     OW13076   7.970   4.273   9.671
 3746SOL    HW113077   7.998   4.187   9.700
 3746SOL    HW213078   7.936   4.315   9.751
 3747SOL     OW13079  14.312   2.040  11.766
 3747SOL    HW113080  14.239   2.015  11.711
 3747SOL    HW213081  14.329   1.963  11.821
 3748SOL     OW13082   5.635   8.087   8.842
 3748SOL    HW113083   5.685   8.157   8.799
 3748SOL    HW213084   5.666   8.006   8.801
 3749SOL     OW13085   2.188   7.523   5.283
 3749SOL    HW113086   2.259   7.461   5.294
 3749SOL    HW213087   2.137   7.489   5.210
 3750SOL     OW13088  14.471   1.522  11.609
 3750SOL    HW113089  14.479   1.582  11.535
 3750SOL    HW213090  14.408   1.456  11.580
 3751SOL     OW13091   6.163  11.321   5.019
 3751SOL    HW113092   6.219  11.394   5.044
 3751SOL    HW213093   6.139  11.339   4.928
 3752SOL     OW13094  11.275  11.957  14.478
 3752SOL    HW113095  11.266  11.957  14.573
 3752SOL    HW213096  11.270  11.865  14.453
 3753SOL     OW13097   3.730   9.022   7.499
 3753SOL    HW113098   3.770   9.101   7.537
 3753SOL    HW213099   3.723   9.041   7.406
 3754SOL     OW13100   1.278   2.992   5.457
 3754SOL    HW113101   1.294   3.013   5.549
 3754SOL    HW213102   1.213   2.921   5.460
 3755SOL     OW13103   5.801   2.313   8.346
 3755SOL    HW113104   5.739   2.270   8.288
 3755SOL    HW213105   5.747   2.366   8.404
 3756SOL     OW13106  11.939   8.771  11.448
 3756SOL    HW113107  11.870   8.706  11.463
 3756SOL    HW213108  11.907   8.851  11.490
 3757SOL     OW13109   8.226   9.785  12.670
 3757SOL    HW113110   8.264   9.726  12.735
 3757SOL    HW213111   8.282   9.775  12.593
 3758SOL     OW13112   4.200   5.475  12.684
 3758SOL    HW113113   4.200   5.384  12.713
 3758SOL    HW213114   4.115   5.510  12.713
 3759SOL     OW13115   0.874   7.395   2.324
 3759SOL    HW113116   0.886   7.300   2.326
 3759SOL    HW213117   0.795   7.410   2.377
 3760SOL     OW13118   2.218   9.935   0.056
 3760SOL    HW113119   2.218   9.882   0.136
 3760SOL    HW213120   2.306   9.923   0.020
 3761SOL     OW13121  10.295   8.089  12.402
 3761SOL    HW113122  10.322   8.000  12.381
 3761SOL    HW213123  10.264   8.085  12.492
 3762SOL     OW13124   9.937  10.164   8.164
 3762SOL    HW113125   9.928  10.087   8.107
 3762SOL    HW213126   9.932  10.128   8.253
 3763SOL     OW13127   8.883   9.902  10.594
 3763SOL    HW113128   8.792   9.928  10.606
 3763SOL    HW213129   8.881   9.845  10.517
 3764SOL     OW13130  13.816   0.157   3.206
 3764SOL    HW113131  13.907   0.143   3.178
 3764SOL    HW213132  13.778   0.069   3.208
 3765SOL     OW13133   3.294  11.330   9.448
 3765SOL    HW113134   3.365  11.373   9.399
 3765SOL    HW213135   3.327  11.242   9.465
 3766SOL     OW13136   8.288   5.964   6.223
 3766SOL    HW113137   8.347   5.994   6.292
 3766SOL    HW213138   8.327   5.999   6.142
 3767SOL     OW13139   5.574   3.387   8.565
 3767SOL    HW113140   5.519   3.461   8.590
 3767SOL    HW213141   5.623   3.366   8.645
 3768SOL     OW13142  10.760   9.461   6.911
 3768SOL    HW113143  10.729   9.552   6.910
 3768SOL    HW213144  10.774   9.440   6.819
 3769SOL     OW13145   6.502   0.645   7.178
 3769SOL    HW113146   6.493   0.554   7.150
 3769SOL    HW213147   6.570   0.681   7.121
 3770SOL     OW13148   8.802   1.233   5.456
 3770SOL    HW113149   8.773   1.307   5.403
 3770SOL    HW213150   8.743   1.162   5.431
 3771SOL     OW13151   9.246  12.728  10.059
 3771SOL    HW113152   9.199  12.662  10.108
 3771SOL    HW213153   9.239  12.700   9.967
 3772SOL     OW13154   3.933   6.409   5.119
 3772SOL    HW113155   3.926   6.340   5.184
 3772SOL    HW213156   3.844   6.422   5.087
 3773SOL     OW13157   7.596   7.037   1.360
 3773SOL    HW113158   7.648   7.011   1.435
 3773SOL    HW213159   7.645   7.109   1.320
 3774SOL     OW13160   9.872   8.954  13.132
 3774SOL    HW113161   9.925   9.011  13.189
 3774SOL    HW213162   9.789   8.944  13.180
 3775SOL     OW13163   7.968   0.723  12.825
 3775SOL    HW113164   8.004   0.662  12.889
 3775SOL    HW213165   7.876   0.731  12.848
 3776SOL     OW13166   2.702   6.882   3.123
 3776SOL    HW113167   2.736   6.833   3.048
 3776SOL    HW213168   2.779   6.897   3.179
 3777SOL     OW13169   1.076   3.660   7.480
 3777SOL    HW113170   1.008   3.595   7.465
 3777SOL    HW213171   1.097   3.694   7.392
 3778SOL     OW13172  10.137   7.136   1.160
 3778SOL    HW113173  10.217   7.180   1.189
 3778SOL    HW213174  10.093   7.110   1.241
 3779SOL     OW13175  11.483   6.732   3.035
 3779SOL    HW113176  11.475   6.804   2.972
 3779SOL    HW213177  11.408   6.741   3.092
 3780SOL     OW13178   0.138   7.055   4.345
 3780SOL    HW113179   0.048   7.049   4.377
 3780SOL    HW213180   0.165   6.964   4.333
 3781SOL     OW13181  12.183  10.580   7.572
 3781SOL    HW113182  12.254  10.632   7.534
 3781SOL    HW213183  12.134  10.642   7.625
 3782SOL     OW13184   7.448   7.045   3.040
 3782SOL    HW113185   7.388   7.080   3.106
 3782SOL    HW213186   7.395   7.040   2.961
 3783SOL     OW13187   8.353   4.855  14.836
 3783SOL    HW113188   8.380   4.945  14.852
 3783SOL    HW213189   8.274   4.843   0.014
 3784SOL     OW13190   6.461  11.911  12.046
 3784SOL    HW113191   6.419  11.987  12.087
 3784SOL    HW213192   6.554  11.924  12.061
 3785SOL     OW13193   0.092  10.346   3.610
 3785SOL    HW113194   0.029  10.358   3.681
 3785SOL    HW213195   0.157  10.415   3.623
 3786SOL     OW13196   4.092  14.445  14.193
 3786SOL    HW113197   4.043  14.364  14.179
 3786SOL    HW213198   4.167  14.439  14.135
 3787SOL     OW13199   8.272  12.517   4.626
 3787SOL    HW113200   8.329  12.555   4.693
 3787SOL    HW213201   8.332  12.497   4.553
 3788SOL     OW13202  14.553  14.367   3.524
 3788SOL    HW113203  14.459  14.363   3.537
 3788SOL    HW213204  14.574  14.461   3.531
 3789SOL     OW13205  12.218   6.031  11.784
 3789SOL    HW113206  12.298   5.981  11.767
 3789SOL    HW213207  12.184   5.996  11.866
 3790SOL     OW13208   6.417   3.526   1.324
 3790SOL    HW113209   6.426   3.618   1.299
 3790SOL    HW213210   6.478   3.515   1.397
 3791SOL     OW13211   5.737   3.756   2.422
 3791SOL    HW113212   5.727   3.741   2.516
 3791SOL    HW213213   5.655   3.726   2.384
 3792SOL     OW13214   1.976  13.114  11.723
 3792SOL    HW113215   2.069  13.122  11.740
 3792SOL    HW213216   1.951  13.196  11.681
 3793SOL     OW13217  12.376   9.170   3.348
 3793SOL    HW113218  12.423   9.146   3.428
 3793SOL    HW213219  12.351   9.261   3.361
 3794SOL     OW13220  13.907   2.989  11.993
 3794SOL    HW113221  13.815   2.969  12.010
 3794SOL    HW213222  13.918   2.971  11.899
 3795SOL     OW13223   3.434  13.825  10.742
 3795SOL    HW113224   3.471  13.783  10.819
 3795SOL    HW213225   3.370  13.887  10.776
 3796SOL     OW13226   2.033   3.425   4.549
 3796SOL    HW113227   2.104   3.451   4.608
 3796SOL    HW213228   2.063   3.342   4.511
 3797SOL     OW13229  13.262  13.658   0.623
 3797SOL    HW113230  13.217  13.739   0.650
 3797SOL    HW213231  13.355  13.681   0.624
 3798SOL     OW13232   7.827  10.276   9.078
 3798SOL    HW113233   7.858  10.186   9.084
 3798SOL    HW213234   7.751  10.279   9.136
 3799SOL     OW13235   3.279   2.179   3.701
 3799SOL    HW113236   3.214   2.249   3.704
 3799SOL    HW213237   3.298   2.159   3.792
 3800SOL     OW13238  13.566   5.165   4.387
 3800SOL    HW113239  13.515   5.171   4.305
 3800SOL    HW213240  13.501   5.147   4.454
 3801SOL     OW13241  10.576   1.956   9.566
 3801SOL    HW113242  10.539   1.951   9.654
 3801SOL    HW213243  10.572   1.866   9.533
 3802SOL     OW13244   5.709   4.936  10.420
 3802SOL    HW113245   5.650   4.978  10.483
 3802SOL    HW213246   5.707   4.994  10.344
 3803SOL     OW13247   3.322   2.539   3.039
 3803SOL    HW113248   3.363   2.580   2.963
 3803SOL    HW213249   3.267   2.470   3.002
 3804SOL     OW13250  13.506  12.421   0.015
 3804SOL    HW113251  13.415  12.394   0.031
 3804SOL    HW213252  13.502  12.471  14.810
 3805SOL     OW13253   7.794  13.559   2.946
 3805SOL    HW113254   7.746  13.602   3.017
 3805SOL    HW213255   7.858  13.503   2.990
 3806SOL     OW13256   5.450   1.889   4.659
 3806SOL    HW113257   5.440   1.802   4.621
 3806SOL    HW213258   5.507   1.936   4.598
 3807SOL     OW13259   2.540   9.558  11.991
 3807SOL    HW113260   2.609   9.624  11.994
 3807SOL    HW213261   2.509   9.559  11.900
 3808SOL     OW13262  13.405   7.458   9.649
 3808SOL    HW113263  13.338   7.411   9.698
 3808SOL    HW213264  13.369   7.468   9.561
 3809SOL     OW13265   0.714   7.448  10.878
 3809SOL    HW113266   0.653   7.390  10.925
 3809SOL    HW213267   0.760   7.496  10.947
 3810SOL     OW13268  11.698   9.417   5.255
 3810SOL    HW113269  11.605   9.427   5.235
 3810SOL    HW213270  11.704   9.334   5.301
 3811SOL     OW13271   5.961  11.882   9.434
 3811SOL    HW113272   5.931  11.795   9.407
 3811SOL    HW213273   5.943  11.885   9.528
 3812SOL     OW13274   3.286   4.609   1.105
 3812SOL    HW113275   3.316   4.591   1.016
 3812SOL    HW213276   3.314   4.532   1.155
 3813SOL     OW13277   4.020  11.794   5.965
 3813SOL    HW113278   3.938  11.811   5.919
 3813SOL    HW213279   3.993  11.759   6.050
 3814SOL     OW13280   6.946   7.479  14.832
 3814SOL    HW113281   6.913   7.518  14.751
 3814SOL    HW213282   6.965   7.388  14.809
 3815SOL     OW13283  10.772   4.235   0.564
 3815SOL    HW113284  10.692   4.278   0.596
 3815SOL    HW213285  10.798   4.176   0.634
 3816SOL     OW13286   1.906   3.342  14.202
 3816SOL    HW113287   1.969   3.325  14.272
 3816SOL    HW213288   1.845   3.406  14.239
 3817SOL     OW13289  13.289   5.679   6.444
 3817SOL    HW113290  13.355   5.630   6.395
 3817SOL    HW213291  13.228   5.711   6.376
 3818SOL     OW13292   9.330   1.186  14.018
 3818SOL    HW113293   9.296   1.167  14.106
 3818SOL    HW213294   9.411   1.235  14.035
 3819SOL     OW13295   5.344   7.088  14.589
 3819SOL    HW113296   5.374   7.137  14.513
 3819SOL    HW213297   5.300   7.011  14.552
 3820SOL     OW13298   1.778  12.001   1.643
 3820SOL    HW113299   1.832  11.944   1.589
 3820SOL    HW213300   1.822  12.003   1.728
 3821SOL     OW13301  13.511  10.627   4.189
 3821SOL    HW113302  13.539  10.544   4.227
 3821SOL    HW213303  13.422  10.611   4.159
 3822SOL     OW13304   0.106  10.062  11.151
 3822SOL    HW113305   0.105  10.131  11.218
 3822SOL    HW213306   0.194  10.067  11.113
 3823SOL     OW13307  13.107  12.244  13.683
 3823SOL    HW113308  13.170  12.245  13.611
 3823SOL    HW213309  13.028  12.284  13.646
 3824SOL     OW13310  12.309   2.813   1.907
 3824SOL    HW113311  12.353   2.898   1.913
 3824SOL    HW213312  12.318   2.775   1.995
 3825SOL     OW13313   2.101   0.370   0.824
 3825SOL    HW113314   2.152   0.393   0.901
 3825SOL    HW213315   2.115   0.276   0.812
 3826SOL     OW13316   8.083   5.272   4.528
 3826SOL    HW113317   7.989   5.263   4.512
 3826SOL    HW213318   8.119   5.187   4.504
 3827SOL     OW13319  14.132  12.058   8.657
 3827SOL    HW113320  14.199  12.059   8.588
 3827SOL    HW213321  14.128  11.967   8.685
 3828SOL     OW13322  13.630  14.523   0.827
 3828SOL    HW113323  13.622  14.617   0.839
 3828SOL    HW213324  13.724  14.506   0.824
 3829SOL     OW13325   8.016   5.754   8.964
 3829SOL    HW113326   8.090   5.696   8.982
 3829SOL    HW213327   8.055   5.831   8.922
 3830SOL     OW13328   2.841   8.737   4.851
 3830SOL    HW113329   2.906   8.793   4.808
 3830SOL    HW213330   2.773   8.724   4.784
 3831SOL     OW13331   0.939  14.738   1.076
 3831SOL    HW113332   1.004  14.736   1.147
 3831SOL    HW213333   0.895  14.654   1.081
 3832SOL     OW13334  14.049   3.815  11.772
 3832SOL    HW113335  14.099   3.889  11.737
 3832SOL    HW213336  13.964   3.821  11.730
 3833SOL     OW13337  13.510   0.489   2.511
 3833SOL    HW113338  13.502   0.562   2.572
 3833SOL    HW213339  13.420   0.473   2.481
 3834SOL     OW13340   9.803   9.753   9.543
 3834SOL    HW113341   9.732   9.804   9.504
 3834SOL    HW213342   9.833   9.696   9.472
 3835SOL     OW13343   2.643   6.411   1.342
 3835SOL    HW113344   2.639   6.357   1.262
 3835SOL    HW213345   2.615   6.352   1.412
 3836SOL     OW13346  14.475   5.554   5.714
 3836SOL    HW113347  14.473   5.629   5.774
 3836SOL    HW213348  14.540   5.578   5.648
 3837SOL     OW13349   8.756  14.180  10.140
 3837SOL    HW113350   8.772  14.221  10.055
 3837SOL    HW213351   8.822  14.218  10.198
 3838SOL     OW13352  14.583  11.907   4.422
 3838SOL    HW113353  14.503  11.939   4.379
 3838SOL    HW213354  14.654  11.936   4.365
 3839SOL     OW13355  12.557   9.368  14.300
 3839SOL    HW113356  12.515   9.412  14.225
 3839SOL    HW213357  12.527   9.278  14.294
 3840SOL     OW13358   9.383   8.331   2.429
 3840SOL    HW113359   9.300   8.293   2.457
 3840SOL    HW213360   9.375   8.339   2.333
 3841SOL     OW13361  10.568   7.785  11.687
 3841SOL    HW113362  10.569   7.729  11.609
 3841SOL    HW213363  10.478   7.817  11.692
 3842SOL     OW13364   3.510  14.855   9.406
 3842SOL    HW113365   3.488  14.858   9.313
 3842SOL    HW213366   3.532  14.763   9.422
 3843SOL     OW13367   7.586   9.333   9.609
 3843SOL    HW113368   7.493   9.311   9.623
 3843SOL    HW213369   7.595   9.422   9.644
 3844SOL     OW13370  14.664   0.252   4.074
 3844SOL    HW113371  14.642   0.322   4.011
 3844SOL    HW213372  14.754   0.270   4.100
 3845SOL     OW13373   1.745   3.608  13.571
 3845SOL    HW113374   1.731   3.571  13.658
 3845SOL    HW213375   1.722   3.700  13.579
 3846SOL     OW13376  12.004  14.670   5.480
 3846SOL    HW113377  11.960  14.669   5.565
 3846SOL    HW213378  11.945  14.621   5.422
 3847SOL     OW13379   7.782  10.884   9.882
 3847SOL    HW113380   7.860  10.935   9.861
 3847SOL    HW213381   7.792  10.803   9.833
 3848SOL     OW13382  11.920  13.686  12.517
 3848SOL    HW113383  11.832  13.685  12.555
 3848SOL    HW213384  11.914  13.747  12.444
 3849SOL     OW13385   3.052  10.682  11.626
 3849SOL    HW113386   2.983  10.743  11.652
 3849SOL    HW213387   3.119  10.737  11.584
 3850SOL     OW13388  13.923   7.306  10.440
 3850SOL    HW113389  13.890   7.249  10.510
 3850SOL    HW213390  13.870   7.283  10.364
 3851SOL     OW13391  11.898   9.774  13.085
 3851SOL    HW113392  11.961   9.702  13.091
 3851SOL    HW213393  11.936   9.833  13.019
 3852SOL     OW13394   8.340  14.187   4.976
 3852SOL    HW113395   8.272  14.188   5.044
 3852SOL    HW213396   8.378  14.100   4.982
 3853SOL     OW13397   6.864  12.781   5.217
 3853SOL    HW113398   6.811  12.859   5.235
 3853SOL    HW213399   6.856  12.767   5.123
 3854SOL     OW13400  11.051  10.654   1.478
 3854SOL    HW113401  11.135  10.680   1.439
 3854SOL    HW213402  11.075  10.595   1.549
 3855SOL     OW13403  12.067   5.177  13.939
 3855SOL    HW113404  12.053   5.082  13.931
 3855SOL    HW213405  12.012   5.215  13.871
 3856SOL     OW13406   0.409   6.669   4.194
 3856SOL    HW113407   0.328   6.690   4.241
 3856SOL    HW213408   0.476   6.721   4.238
 3857SOL     OW13409   7.786  11.577   3.060
 3857SOL    HW113410   7.697  11.612   3.062
 3857SOL    HW213411   7.838  11.644   3.105
 3858SOL     OW13412   7.161   1.410   0.443
 3858SOL    HW113413   7.251   1.436   0.459
 3858SOL    HW213414   7.156   1.319   0.471
 3859SOL     OW13415   6.830   8.819   8.073
 3859SOL    HW113416   6.828   8.914   8.081
 3859SOL    HW213417   6.762   8.788   8.131
 3860SOL     OW13418  11.113   1.723  13.437
 3860SOL    HW113419  11.113   1.819  13.430
 3860SOL    HW213420  11.065   1.693  13.361
 3861SOL     OW13421  14.237   2.004   9.854
 3861SOL    HW113422  14.188   2.000   9.771
 3861SOL    HW213423  14.186   1.950   9.914
 3862SOL     OW13424   6.036   8.631   3.118
 3862SOL    HW113425   6.114   8.609   3.067
 3862SOL    HW213426   5.968   8.573   3.083
 3863SOL     OW13427   2.422  10.177   6.216
 3863SOL    HW113428   2.461  10.259   6.187
 3863SOL    HW213429   2.328  10.187   6.202
 3864SOL     OW13430  11.574   0.780   5.169
 3864SOL    HW113431  11.543   0.849   5.110
 3864SOL    HW213432  11.496   0.728   5.188
 3865SOL     OW13433   1.583  14.476   7.346
 3865SOL    HW113434   1.629  14.424   7.412
 3865SOL    HW213435   1.646  14.542   7.318
 3866SOL     OW13436  10.665   5.588   9.352
 3866SOL    HW113437  10.633   5.534   9.424
 3866SOL    HW213438  10.758   5.565   9.344
 3867SOL     OW13439   3.407  14.042  11.705
 3867SOL    HW113440   3.364  14.107  11.760
 3867SOL    HW213441   3.487  14.085  11.675
 3868SOL     OW13442   8.355   1.073   4.969
 3868SOL    HW113443   8.289   1.135   5.002
 3868SOL    HW213444   8.348   1.079   4.874
 3869SOL     OW13445  11.132  10.631   6.543
 3869SOL    HW113446  11.070  10.617   6.614
 3869SOL    HW213447  11.211  10.585   6.571
 3870SOL     OW13448   5.406   9.813   1.098
 3870SOL    HW113449   5.385   9.742   1.159
 3870SOL    HW213450   5.469   9.868   1.145
 3871SOL     OW13451  12.905   5.728  12.307
 3871SOL    HW113452  12.950   5.700  12.227
 3871SOL    HW213453  12.816   5.746  12.279
 3872SOL     OW13454  12.583  10.411   8.621
 3872SOL    HW113455  12.502  10.403   8.570
 3872SOL    HW213456  12.607  10.503   8.614
 3873SOL     OW13457   9.590   3.966  11.948
 3873SOL    HW113458   9.632   4.047  11.979
 3873SOL    HW213459   9.498   3.989  11.939
 3874SOL     OW13460  10.403   5.730   7.906
 3874SOL    HW113461  10.325   5.703   7.953
 3874SOL    HW213462  10.439   5.649   7.870
 3875SOL     OW13463  10.439   0.404   2.895
 3875SOL    HW113464  10.430   0.311   2.873
 3875SOL    HW213465  10.459   0.446   2.812
 3876SOL     OW13466  13.382   2.542   3.738
 3876SOL    HW113467  13.424   2.514   3.819
 3876SOL    HW213468  13.380   2.463   3.683
 3877SOL     OW13469  11.268   3.668   3.354
 3877SOL    HW113470  11.356   3.637   3.331
 3877SOL    HW213471  11.227   3.592   3.395
 3878SOL     OW13472   3.664   5.223  10.314
 3878SOL    HW113473   3.619   5.147  10.350
 3878SOL    HW213474   3.712   5.189  10.239
 3879SOL     OW13475  13.327   2.849   9.983
 3879SOL    HW113476  13.262   2.850  10.052
 3879SOL    HW213477  13.287   2.896   9.910
 3880SOL     OW13478   1.684   4.079   2.736
 3880SOL    HW113479   1.773   4.071   2.702
 3880SOL    HW213480   1.688   4.044   2.824
 3881SOL     OW13481   1.526   6.699   0.879
 3881SOL    HW113482   1.437   6.728   0.898
 3881SOL    HW213483   1.515   6.622   0.824
 3882SOL     OW13484   7.822   5.501   0.407
 3882SOL    HW113485   7.785   5.538   0.327
 3882SOL    HW213486   7.906   5.546   0.418
 3883SOL     OW13487   2.397   1.422   3.257
 3883SOL    HW113488   2.441   1.437   3.341
 3883SOL    HW213489   2.417   1.500   3.205
 3884SOL     OW13490   2.280  14.478   3.793
 3884SOL    HW113491   2.341  14.406   3.807
 3884SOL    HW213492   2.194  14.435   3.787
 3885SOL     OW13493   4.177  12.255   4.513
 3885SOL    HW113494   4.222  12.198   4.575
 3885SOL    HW213495   4.242  12.321   4.489
 3886SOL     OW13496  13.281   6.377   3.058
 3886SOL    HW113497  13.323   6.293   3.077
 3886SOL    HW213498  13.219   6.358   2.988
 3887SOL     OW13499   6.845  11.444   3.066
 3887SOL    HW113500   6.797  11.478   2.990
 3887SOL    HW213501   6.777  11.423   3.130
 3888SOL     OW13502   2.937  13.909   0.920
 3888SOL    HW113503   2.918  14.002   0.912
 3888SOL    HW213504   3.012  13.895   0.863
 3889SOL     OW13505  11.696   1.007  12.842
 3889SOL    HW113506  11.636   0.935  12.821
 3889SOL    HW213507  11.764   1.002  12.775
 3890SOL     OW13508  12.952   3.272  12.483
 3890SOL    HW113509  12.930   3.179  12.488
 3890SOL    HW213510  12.868   3.315  12.466
 3891SOL     OW13511   5.608   5.238   1.122
 3891SOL    HW113512   5.558   5.319   1.127
 3891SOL    HW213513   5.700   5.266   1.130
 3892SOL     OW13514   1.288   7.520   3.190
 3892SOL    HW113515   1.232   7.445   3.213
 3892SOL    HW213516   1.296   7.569   3.271
 3893SOL     OW13517   2.472  14.223   3.417
 3893SOL    HW113518   2.391  14.184   3.450
 3893SOL    HW213519   2.511  14.266   3.493
 3894SOL     OW13520   3.852   7.918   2.715
 3894SOL    HW113521   3.808   7.905   2.630
 3894SOL    HW213522   3.787   7.963   2.769
 3895SOL     OW13523  14.573   3.863   1.508
 3895SOL    HW113524  14.639   3.795   1.522
 3895SOL    HW213525  14.592   3.929   1.574
 3896SOL     OW13526   2.511  10.760  10.160
 3896SOL    HW113527   2.427  10.716  10.175
 3896SOL    HW213528   2.552  10.710  10.090
 3897SOL     OW13529   2.759   9.922   4.727
 3897SOL    HW113530   2.821   9.993   4.738
 3897SOL    HW213531   2.711   9.944   4.647
 3898SOL     OW13532   6.770   7.229  13.154
 3898SOL    HW113533   6.761   7.244  13.248
 3898SOL    HW213534   6.684   7.251  13.118
 3899SOL     OW13535  10.182   5.933  12.519
 3899SOL    HW113536  10.272   5.932  12.550
 3899SOL    HW213537  10.129   5.910  12.595
 3900SOL     OW13538   6.315   9.095   3.771
 3900SOL    HW113539   6.263   9.053   3.702
 3900SOL    HW213540   6.405   9.087   3.740
 3901SOL     OW13541   2.611   4.516  11.118
 3901SOL    HW113542   2.646   4.484  11.201
 3901SOL    HW213543   2.689   4.544  11.068
 3902SOL     OW13544  11.977  10.561  12.448
 3902SOL    HW113545  11.996  10.627  12.515
 3902SOL    HW213546  11.881  10.557  12.445
 3903SOL     OW13547   8.169   9.089   5.287
 3903SOL    HW113548   8.219   9.165   5.258
 3903SOL    HW213549   8.095   9.084   5.227
 3904SOL     OW13550   4.156  10.625   8.109
 3904SOL    HW113551   4.229  10.586   8.157
 3904SOL    HW213552   4.179  10.614   8.017
 3905SOL     OW13553   1.510   9.156   7.224
 3905SOL    HW113554   1.542   9.216   7.292
 3905SOL    HW213555   1.432   9.199   7.189
 3906SOL     OW13556   1.441   0.403   1.714
 3906SOL    HW113557   1.423   0.330   1.773
 3906SOL    HW213558   1.452   0.479   1.771
 3907SOL     OW13559  12.427   7.294   1.872
 3907SOL    HW113560  12.416   7.241   1.792
 3907SOL    HW213561  12.399   7.382   1.846
 3908SOL     OW13562   3.725   0.991  10.919
 3908SOL    HW113563   3.675   0.993  10.837
 3908SOL    HW213564   3.730   1.083  10.946
 3909SOL     OW13565   9.741   3.794   3.997
 3909SOL    HW113566   9.753   3.833   3.910
 3909SOL    HW213567   9.708   3.706   3.979
 3910SOL     OW13568   6.398   9.810  13.024
 3910SOL    HW113569   6.439   9.816  12.937
 3910SOL    HW213570   6.471   9.816  13.085
 3911SOL     OW13571   4.812   1.225  11.321
 3911SOL    HW113572   4.857   1.168  11.384
 3911SOL    HW213573   4.731   1.251  11.365
 3912SOL     OW13574   2.126  12.018   4.549
 3912SOL    HW113575   2.081  11.972   4.620
 3912SOL    HW213576   2.117  11.961   4.473
 3913SOL     OW13577   5.040   6.316  14.431
 3913SOL    HW113578   5.062   6.351  14.345
 3913SOL    HW213579   5.047   6.221  14.421
 3914SOL     OW13580  13.585   3.978   8.723
 3914SOL    HW113581  13.564   3.885   8.720
 3914SOL    HW213582  13.502   4.022   8.704
 3915SOL     OW13583  13.672   3.683   7.723
 3915SOL    HW113584  13.735   3.740   7.680
 3915SOL    HW213585  13.592   3.736   7.731
 3916SOL     OW13586   8.830  10.784  14.545
 3916SOL    HW113587   8.853  10.696  14.576
 3916SOL    HW213588   8.815  10.834  14.624
 3917SOL     OW13589  10.632   1.795  10.722
 3917SOL    HW113590  10.725   1.788  10.706
 3917SOL    HW213591  10.624   1.868  10.784
 3918SOL     OW13592  12.096   3.071   0.233
 3918SOL    HW113593  12.191   3.063   0.228
 3918SOL    HW213594  12.064   3.030   0.153
 3919SOL     OW13595   2.435   6.220  10.727
 3919SOL    HW113596   2.462   6.168  10.651
 3919SOL    HW213597   2.437   6.311  10.697
 3920SOL     OW13598  10.263   6.184  14.085
 3920SOL    HW113599  10.200   6.137  14.139
 3920SOL    HW213600  10.281   6.124  14.012
 3921SOL     OW13601  10.829  13.411   8.185
 3921SOL    HW113602  10.843  13.486   8.126
 3921SOL    HW213603  10.785  13.449   8.261
 3922SOL     OW13604  12.380   1.178  11.394
 3922SOL    HW113605  12.306   1.142  11.443
 3922SOL    HW213606  12.446   1.198  11.460
 3923SOL     OW13607  13.798  13.390   0.907
 3923SOL    HW113608  13.810  13.468   0.853
 3923SOL    HW213609  13.767  13.424   0.991
 3924SOL     OW13610   7.175  12.973  12.630
 3924SOL    HW113611   7.268  12.994  12.627
 3924SOL    HW213612   7.145  13.007  12.714
 3925SOL     OW13613   9.234  11.656  10.334
 3925SOL    HW113614   9.152  11.606  10.336
 3925SOL    HW213615   9.296  11.598  10.291
 3926SOL     OW13616  13.415   9.900   0.563
 3926SOL    HW113617  13.334   9.859   0.532
 3926SOL    HW213618  13.420   9.876   0.655
 3927SOL     OW13619   1.868  14.135   4.545
 3927SOL    HW113620   1.895  14.214   4.591
 3927SOL    HW213621   1.889  14.151   4.453
 3928SOL     OW13622   0.484   3.251  10.635
 3928SOL    HW113623   0.470   3.322  10.572
 3928SOL    HW213624   0.404   3.250  10.688
 3929SOL     OW13625   1.837  10.333   6.863
 3929SOL    HW113626   1.797  10.419   6.858
 3929SOL    HW213627   1.796  10.283   6.792
 3930SOL     OW13628   8.734   5.543   0.362
 3930SOL    HW113629   8.773   5.620   0.320
 3930SOL    HW213630   8.692   5.495   0.291
 3931SOL     OW13631   5.442   9.622  10.574
 3931SOL    HW113632   5.470   9.645  10.662
 3931SOL    HW213633   5.413   9.531  10.580
 3932SOL     OW13634   2.151   6.654  10.852
 3932SOL    HW113635   2.140   6.692  10.940
 3932SOL    HW213636   2.068   6.610  10.834
 3933SOL     OW13637  12.244   4.379   3.051
 3933SOL    HW113638  12.320   4.436   3.035
 3933SOL    HW213639  12.262   4.338   3.136
 3934SOL     OW13640   1.720  11.688   3.296
 3934SOL    HW113641   1.732  11.645   3.211
 3934SOL    HW213642   1.635  11.731   3.289
 3935SOL     OW13643   2.677  13.996   9.502
 3935SOL    HW113644   2.583  14.017   9.499
 3935SOL    HW213645   2.684  13.927   9.568
 3936SOL     OW13646  13.681  10.736  13.361
 3936SOL    HW113647  13.637  10.667  13.410
 3936SOL    HW213648  13.772  10.732  13.391
 3937SOL     OW13649   4.858   2.296  12.526
 3937SOL    HW113650   4.834   2.241  12.601
 3937SOL    HW213651   4.953   2.289  12.521
 3938SOL     OW13652   3.575   0.085  13.365
 3938SOL    HW113653   3.533   0.162  13.404
 3938SOL    HW213654   3.669   0.101  13.373
 3939SOL     OW13655  12.245  14.860  13.501
 3939SOL    HW113656  12.177  14.792  13.506
 3939SOL    HW213657  12.214   0.042  13.431
 3940SOL     OW13658   6.237  11.691   9.588
 3940SOL    HW113659   6.270  11.665   9.674
 3940SOL    HW213660   6.254  11.615   9.531
 3941SOL     OW13661  10.379  12.670  11.094
 3941SOL    HW113662  10.313  12.650  11.160
 3941SOL    HW213663  10.374  12.764  11.081
 3942SOL     OW13664   3.410   7.200   7.982
 3942SOL    HW113665   3.413   7.130   7.917
 3942SOL    HW213666   3.480   7.178   8.044
 3943SOL     OW13667   6.308  11.695  11.663
 3943SOL    HW113668   6.347  11.779  11.686
 3943SOL    HW213669   6.261  11.668  11.742
 3944SOL     OW13670   1.050  11.632  13.820
 3944SOL    HW113671   1.091  11.608  13.903
 3944SOL    HW213672   1.089  11.716  13.798
 3945SOL     OW13673   5.873   1.779   6.319
 3945SOL    HW113674   5.810   1.825   6.375
 3945SOL    HW213675   5.883   1.836   6.243
 3946SOL     OW13676   4.037   8.050   1.462
 3946SOL    HW113677   4.130   8.036   1.444
 3946SOL    HW213678   4.012   8.121   1.404
 3947SOL     OW13679  12.939   0.641   5.021
 3947SOL    HW113680  13.001   0.712   5.034
 3947SOL    HW213681  12.861   0.666   5.071
 3948SOL     OW13682   9.647   0.487  14.369
 3948SOL    HW113683   9.562   0.518  14.339
 3948SOL    HW213684   9.698   0.475  14.288
 3949SOL     OW13685  10.585  10.792   0.166
 3949SOL    HW113686  10.609  10.884   0.171
 3949SOL    HW213687  10.654  10.752   0.113
 3950SOL     OW13688  12.701   6.200   1.001
 3950SOL    HW113689  12.681   6.267   1.066
 3950SOL    HW213690  12.773   6.237   0.949
 3951SOL     OW13691   8.607   7.633   7.461
 3951SOL    HW113692   8.521   7.633   7.502
 3951SOL    HW213693   8.611   7.551   7.412
 3952SOL     OW13694   8.486  10.192  14.530
 3952SOL    HW113695   8.467  10.282  14.557
 3952SOL    HW213696   8.418  10.172  14.465
 3953SOL     OW13697  13.930  13.212  12.545
 3953SOL    HW113698  13.978  13.253  12.474
 3953SOL    HW213699  13.980  13.132  12.565
 3954SOL     OW13700   9.509   3.851   3.172
 3954SOL    HW113701   9.444   3.889   3.230
 3954SOL    HW213702   9.589   3.846   3.225
 3955SOL     OW13703  11.228   5.394   1.719
 3955SOL    HW113704  11.143   5.437   1.728
 3955SOL    HW213705  11.249   5.403   1.626
 3956SOL     OW13706   2.754   3.209   8.281
 3956SOL    HW113707   2.771   3.283   8.340
 3956SOL    HW213708   2.828   3.150   8.295
 3957SOL     OW13709   2.009   4.569   9.659
 3957SOL    HW113710   2.029   4.566   9.752
 3957SOL    HW213711   1.917   4.544   9.653
 3958SOL     OW13712   6.077  10.070   4.378
 3958SOL    HW113713   5.983  10.057   4.361
 3958SOL    HW213714   6.089  10.165   4.369
 3959SOL     OW13715   5.545   8.135   3.885
 3959SOL    HW113716   5.541   8.200   3.955
 3959SOL    HW213717   5.469   8.079   3.899
 3960SOL     OW13718   5.354  11.503   7.544
 3960SOL    HW113719   5.446  11.525   7.530
 3960SOL    HW213720   5.318  11.581   7.586
 3961SOL     OW13721   5.138   9.093   1.713
 3961SOL    HW113722   5.220   9.139   1.732
 3961SOL    HW213723   5.140   9.016   1.770
 3962SOL     OW13724   3.706  10.617  13.848
 3962SOL    HW113725   3.719  10.563  13.926
 3962SOL    HW213726   3.661  10.560  13.786
 3963SOL     OW13727  13.775   7.867   9.878
 3963SOL    HW113728  13.753   7.781   9.914
 3963SOL    HW213729  13.716   7.878   9.804
 3964SOL     OW13730   3.139   3.468   5.666
 3964SOL    HW113731   3.155   3.512   5.583
 3964SOL    HW213732   3.145   3.375   5.645
 3965SOL     OW13733   8.364  13.481   3.908
 3965SOL    HW113734   8.449  13.500   3.869
 3965SOL    HW213735   8.302  13.537   3.861
 3966SOL     OW13736  10.243   4.424  14.279
 3966SOL    HW113737  10.310   4.375  14.327
 3966SOL    HW213738  10.270   4.418  14.187
 3967SOL     OW13739  13.025   0.009   2.921
 3967SOL    HW113740  12.932  14.867   2.909
 3967SOL    HW213741  13.027   0.086   2.978
 3968SOL     OW13742   8.742  11.280   4.712
 3968SOL    HW113743   8.826  11.235   4.705
 3968SOL    HW213744   8.693  11.229   4.776
 3969SOL     OW13745   7.430   9.863   2.690
 3969SOL    HW113746   7.402   9.886   2.779
 3969SOL    HW213747   7.383   9.781   2.672
 3970SOL     OW13748   5.218   0.359  12.671
 3970SOL    HW113749   5.237   0.452  12.659
 3970SOL    HW213750   5.149   0.340  12.608
 3971SOL     OW13751   3.786  11.004  11.179
 3971SOL    HW113752   3.874  11.020  11.213
 3971SOL    HW213753   3.780  11.058  11.101
 3972SOL     OW13754   3.321  11.735  14.689
 3972SOL    HW113755   3.315  11.819  14.734
 3972SOL    HW213756   3.261  11.743  14.614
 3973SOL     OW13757   6.349   7.896   5.370
 3973SOL    HW113758   6.438   7.922   5.394
 3973SOL    HW213759   6.355   7.801   5.355
 3974SOL     OW13760  11.472  12.810   4.099
 3974SOL    HW113761  11.524  12.867   4.156
 3974SOL    HW213762  11.428  12.871   4.040
 3975SOL     OW13763   4.416   3.191   3.599
 3975SOL    HW113764   4.332   3.193   3.553
 3975SOL    HW213765   4.454   3.277   3.582
 3976SOL     OW13766   6.851  14.299  10.038
 3976SOL    HW113767   6.758  14.320  10.028
 3976SOL    HW213768   6.859  14.210  10.002
 3977SOL     OW13769   4.967   8.250   1.705
 3977SOL    HW113770   5.025   8.227   1.778
 3977SOL    HW213771   4.887   8.280   1.747
 3978SOL     OW13772  12.104   7.911   9.474
 3978SOL    HW113773  12.052   7.831   9.478
 3978SOL    HW213774  12.176   7.895   9.535
 3979SOL     OW13775   9.193   0.347   1.445
 3979SOL    HW113776   9.287   0.366   1.440
 3979SOL    HW213777   9.158   0.415   1.504
 3980SOL     OW13778   6.044   8.053   8.410
 3980SOL    HW113779   5.975   8.077   8.349
 3980SOL    HW213780   6.046   7.957   8.408
 3981SOL     OW13781   8.980   8.473  13.214
 3981SOL    HW113782   8.933   8.544  13.170
 3981SOL    HW213783   9.062   8.465  13.165
 3982SOL     OW13784  10.785   8.274   9.374
 3982SOL    HW113785  10.857   8.296   9.434
 3982SOL    HW213786  10.811   8.314   9.291
 3983SOL     OW13787   5.083  11.255   7.238
 3983SOL    HW113788   5.120  11.247   7.326
 3983SOL    HW213789   5.046  11.169   7.220
 3984SOL     OW13790   9.874   4.587  10.208
 3984SOL    HW113791   9.871   4.656  10.141
 3984SOL    HW213792   9.862   4.506  10.158
 3985SOL     OW13793   5.246   7.501  12.826
 3985SOL    HW113794   5.222   7.590  12.801
 3985SOL    HW213795   5.224   7.496  12.919
 3986SOL     OW13796  10.058   7.651   6.388
 3986SOL    HW113797   9.973   7.652   6.344
 3986SOL    HW213798  10.049   7.585   6.456
 3987SOL     OW13799   2.022   8.107   7.963
 3987SOL    HW113800   2.095   8.055   7.929
 3987SOL    HW213801   1.945   8.073   7.918
 3988SOL     OW13802   0.287  11.484   1.263
 3988SOL    HW113803   0.310  11.391   1.265
 3988SOL    HW213804   0.239  11.499   1.344
 3989SOL     OW13805   0.864  11.519   8.992
 3989SOL    HW113806   0.942  11.568   8.966
 3989SOL    HW213807   0.892  11.427   8.991
 3990SOL     OW13808   1.975   0.173   2.079
 3990SOL    HW113809   1.932   0.121   2.011
 3990SOL    HW213810   2.064   0.186   2.046
 3991SOL     OW13811   6.446  13.188   9.852
 3991SOL    HW113812   6.452  13.121   9.920
 3991SOL    HW213813   6.513  13.163   9.788
 3992SOL     OW13814   7.804  12.467   2.077
 3992SOL    HW113815   7.778  12.495   1.989
 3992SOL    HW213816   7.812  12.372   2.070
 3993SOL     OW13817   8.877  13.872   9.960
 3993SOL    HW113818   8.883  13.803   9.894
 3993SOL    HW213819   8.791  13.861   9.999
 3994SOL     OW13820  13.603   9.921   5.270
 3994SOL    HW113821  13.551   9.927   5.350
 3994SOL    HW213822  13.544   9.953   5.201
 3995SOL     OW13823  12.097   8.488  10.083
 3995SOL    HW113824  12.104   8.539  10.002
 3995SOL    HW213825  12.064   8.403  10.055
 3996SOL     OW13826  12.335   6.811   9.290
 3996SOL    HW113827  12.410   6.827   9.348
 3996SOL    HW213828  12.342   6.880   9.223
 3997SOL     OW13829   6.876   2.434   4.560
 3997SOL    HW113830   6.793   2.400   4.593
 3997SOL    HW213831   6.920   2.470   4.637
 3998SOL     OW13832   5.314   7.603  11.581
 3998SOL    HW113833   5.366   7.547  11.523
 3998SOL    HW213834   5.347   7.584  11.669
 3999SOL     OW13835   3.601   7.087   9.454
 3999SOL    HW113836   3.661   7.018   9.423
 3999SOL    HW213837   3.597   7.074   9.549
 4000SOL     OW13838   6.147   8.672   7.265
 4000SOL    HW113839   6.139   8.660   7.359
 4000SOL    HW213840   6.231   8.719   7.254
 4001SOL     OW13841   6.944   8.085   7.189
 4001SOL    HW113842   7.014   8.132   7.235
 4001SOL    HW213843   6.978   7.996   7.178
 4002SOL     OW13844   6.419   4.629  13.331
 4002SOL    HW113845   6.333   4.657  13.362
 4002SOL    HW213846   6.426   4.667  13.243
 4003SOL     OW13847   4.383   6.376  13.930
 4003SOL    HW113848   4.446   6.436  13.890
 4003SOL    HW213849   4.393   6.389  14.024
 4004SOL     OW13850  12.577   0.844  14.257
 4004SOL    HW113851  12.504   0.816  14.202
 4004SOL    HW213852  12.537   0.864  14.342
 4005SOL     OW13853  12.510  12.696   6.359
 4005SOL    HW113854  12.473  12.650   6.435
 4005SOL    HW213855  12.444  12.683   6.290
 4006SOL     OW13856   8.455   0.936   3.705
 4006SOL    HW113857   8.367   0.970   3.688
 4006SOL    HW213858   8.491   0.917   3.618
 4007SOL     OW13859   5.436   9.792   8.723
 4007SOL    HW113860   5.343   9.778   8.704
 4007SOL    HW213861   5.481   9.752   8.648
 4008SOL     OW13862  14.249   0.652   1.253
 4008SOL    HW113863  14.298   0.734   1.260
 4008SOL    HW213864  14.259   0.626   1.161
 4009SOL     OW13865  10.629  13.776   3.773
 4009SOL    HW113866  10.583  13.829   3.839
 4009SOL    HW213867  10.567  13.771   3.700
 4010SOL     OW13868  14.711  13.102  11.503
 4010SOL    HW113869  14.728  13.144  11.588
 4010SOL    HW213870  14.790  13.118  11.453
 4011SOL     OW13871   1.718   5.982  13.402
 4011SOL    HW113872   1.705   5.998  13.495
 4011SOL    HW213873   1.670   6.052  13.358
 4012SOL     OW13874   2.057   1.375   4.924
 4012SOL    HW113875   2.152   1.383   4.930
 4012SOL    HW213876   2.043   1.292   4.878
 4013SOL     OW13877   3.006  12.804   4.186
 4013SOL    HW113878   2.961  12.760   4.258
 4013SOL    HW213879   2.994  12.897   4.204
 4014SOL     OW13880   7.793   4.677   6.493
 4014SOL    HW113881   7.763   4.767   6.501
 4014SOL    HW213882   7.731   4.636   6.433
 4015SOL     OW13883   2.525   3.186   1.132
 4015SOL    HW113884   2.544   3.242   1.058
 4015SOL    HW213885   2.440   3.217   1.165
 4016SOL     OW13886  14.024  10.592   7.363
 4016SOL    HW113887  14.094  10.657   7.368
 4016SOL    HW213888  13.960  10.620   7.429
 4017SOL     OW13889   3.721  14.326   6.692
 4017SOL    HW113890   3.761  14.308   6.607
 4017SOL    HW213891   3.707  14.239   6.730
 4018SOL     OW13892   9.010   6.139   7.253
 4018SOL    HW113893   8.969   6.166   7.171
 4018SOL    HW213894   8.963   6.189   7.321
 4019SOL     OW13895  13.118   4.253   6.333
 4019SOL    HW113896  13.185   4.310   6.297
 4019SOL    HW213897  13.150   4.231   6.420
 4020SOL     OW13898   1.766   3.960   6.583
 4020SOL    HW113899   1.781   3.904   6.660
 4020SOL    HW213900   1.842   4.017   6.580
 4021SOL     OW13901   3.256  11.456  12.663
 4021SOL    HW113902   3.271  11.511  12.740
 4021SOL    HW213903   3.175  11.408  12.683
 4022SOL     OW13904   4.484  12.566  12.192
 4022SOL    HW113905   4.573  12.598  12.207
 4022SOL    HW213906   4.471  12.500  12.259
 4023SOL     OW13907  10.249   6.087   5.505
 4023SOL    HW113908  10.190   6.161   5.492
 4023SOL    HW213909  10.234   6.030   5.430
 4024SOL     OW13910   7.051   3.924   2.656
 4024SOL    HW113911   6.991   3.883   2.594
 4024SOL    HW213912   7.108   3.978   2.601
 4025SOL     OW13913   1.179  13.619   9.618
 4025SOL    HW113914   1.096  13.581   9.592
 4025SOL    HW213915   1.242  13.547   9.610
 4026SOL     OW13916   3.282   6.115   3.000
 4026SOL    HW113917   3.284   6.099   2.906
 4026SOL    HW213918   3.374   6.117   3.027
 4027SOL     OW13919   2.786   9.252   2.473
 4027SOL    HW113920   2.876   9.220   2.481
 4027SOL    HW213921   2.739   9.182   2.428
 4028SOL     OW13922   8.075  13.104   4.742
 4028SOL    HW113923   8.036  13.162   4.676
 4028SOL    HW213924   8.132  13.162   4.794
 4029SOL     OW13925   0.432   0.226   5.806
 4029SOL    HW113926   0.417   0.170   5.882
 4029SOL    HW213927   0.399   0.174   5.732
 4030SOL     OW13928  12.273  10.848  11.698
 4030SOL    HW113929  12.309  10.867  11.612
 4030SOL    HW213930  12.235  10.761  11.690
 4031SOL     OW13931   6.271   7.702   5.703
 4031SOL    HW113932   6.364   7.687   5.686
 4031SOL    HW213933   6.233   7.614   5.702
 4032SOL     OW13934   5.266   9.570   7.354
 4032SOL    HW113935   5.248   9.656   7.390
 4032SOL    HW213936   5.185   9.545   7.310
 4033SOL     OW13937   9.110   0.346   1.178
 4033SOL    HW113938   9.102   0.254   1.153
 4033SOL    HW213939   9.130   0.344   1.271
 4034SOL     OW13940  12.518   9.534  13.400
 4034SOL    HW113941  12.575   9.567  13.331
 4034SOL    HW213942  12.506   9.442  13.379
 4035SOL     OW13943   6.023   2.432   5.426
 4035SOL    HW113944   5.951   2.369   5.422
 4035SOL    HW213945   6.101   2.381   5.404
 4036SOL     OW13946   2.039   8.006   1.572
 4036SOL    HW113947   2.131   7.998   1.596
 4036SOL    HW213948   2.036   8.079   1.511
 4037SOL     OW13949   6.518   2.606   9.439
 4037SOL    HW113950   6.502   2.670   9.369
 4037SOL    HW213951   6.513   2.658   9.519
 4038SOL     OW13952  12.759  14.243   0.692
 4038SOL    HW113953  12.840  14.214   0.734
 4038SOL    HW213954  12.692  14.183   0.726
 4039SOL     OW13955   6.805   5.425   0.256
 4039SOL    HW113956   6.735   5.490   0.259
 4039SOL    HW213957   6.883   5.475   0.234
 4040SOL     OW13958   2.482   7.121   5.970
 4040SOL    HW113959   2.458   7.064   5.897
 4040SOL    HW213960   2.573   7.098   5.990
 4041SOL     OW13961   3.529   5.137   6.645
 4041SOL    HW113962   3.520   5.225   6.608
 4041SOL    HW213963   3.589   5.092   6.586
 4042SOL     OW13964  14.460  13.857   5.763
 4042SOL    HW113965  14.520  13.912   5.813
 4042SOL    HW213966  14.408  13.811   5.829
 4043SOL     OW13967   7.710   3.484   2.135
 4043SOL    HW113968   7.638   3.501   2.074
 4043SOL    HW213969   7.775   3.436   2.083
 4044SOL     OW13970  13.578  12.179  13.704
 4044SOL    HW113971  13.661  12.165  13.749
 4044SOL    HW213972  13.588  12.132  13.621
 4045SOL     OW13973   6.123   0.128  13.129
 4045SOL    HW113974   6.048   0.163  13.179
 4045SOL    HW213975   6.196   0.184  13.155
 4046SOL     OW13976  13.066  13.808   7.310
 4046SOL    HW113977  13.040  13.819   7.402
 4046SOL    HW213978  13.083  13.897   7.279
 4047SOL     OW13979   0.973  12.973   2.071
 4047SOL    HW113980   1.029  12.930   2.135
 4047SOL    HW213981   1.006  13.063   2.067
 4048SOL     OW13982  14.650   9.215  14.428
 4048SOL    HW113983  14.592   9.283  14.392
 4048SOL    HW213984  14.604   9.184  14.506
 4049SOL     OW13985   6.156  12.939   0.386
 4049SOL    HW113986   6.102  12.926   0.464
 4049SOL    HW213987   6.144  12.858   0.336
 4050SOL     OW13988  13.450   2.559   3.422
 4050SOL    HW113989  13.392   2.488   3.398
 4050SOL    HW213990  13.424   2.632   3.366
 4051SOL     OW13991   9.676   1.397   4.930
 4051SOL    HW113992   9.742   1.466   4.929
 4051SOL    HW213993   9.659   1.381   5.023
 4052SOL     OW13994  12.293   0.414   4.035
 4052SOL    HW113995  12.308   0.321   4.019
 4052SOL    HW213996  12.369   0.442   4.087
 4053SOL     OW13997   1.537   8.864   0.803
 4053SOL    HW113998   1.579   8.943   0.768
 4053SOL    HW213999   1.579   8.849   0.888
 4054SOL     OW14000  13.820   8.834  10.638
 4054SOL    HW114001  13.862   8.911  10.678
 4054SOL    HW214002  13.794   8.864  10.550
 4055SOL     OW14003  13.599   8.287  10.564
 4055SOL    HW114004  13.629   8.347  10.632
 4055SOL    HW214005  13.602   8.338  10.483
 4056SOL     OW14006  14.642  10.316   9.875
 4056SOL    HW114007  14.614  10.225   9.868
 4056SOL    HW214008  14.724  10.312   9.924
 4057SOL     OW14009   3.798   7.398  12.645
 4057SOL    HW114010   3.767   7.307  12.645
 4057SOL    HW214011   3.849   7.406  12.564
 4058SOL     OW14012  10.236   1.803  10.506
 4058SOL    HW114013  10.162   1.819  10.448
 4058SOL    HW214014  10.199   1.806  10.594
 4059SOL     OW14015   9.581  10.118  10.630
 4059SOL    HW114016   9.572  10.162  10.714
 4059SOL    HW214017   9.553  10.028  10.647
 4060SOL     OW14018   6.843  11.111   8.615
 4060SOL    HW114019   6.908  11.083   8.551
 4060SOL    HW214020   6.894  11.153   8.685
 4061SOL     OW14021  12.364   6.487   4.386
 4061SOL    HW114022  12.423   6.558   4.359
 4061SOL    HW214023  12.305   6.476   4.310
 4062SOL     OW14024  12.344   3.994   0.230
 4062SOL    HW114025  12.273   3.974   0.291
 4062SOL    HW214026  12.403   3.919   0.236
 4063SOL     OW14027  10.100   3.540   1.559
 4063SOL    HW114028  10.062   3.583   1.636
 4063SOL    HW214029  10.106   3.610   1.493
 4064SOL     OW14030   2.775   1.411   2.640
 4064SOL    HW114031   2.863   1.439   2.615
 4064SOL    HW214032   2.742   1.363   2.564
 4065SOL     OW14033   8.394   8.919   3.698
 4065SOL    HW114034   8.383   8.883   3.786
 4065SOL    HW214035   8.473   8.877   3.665
 4066SOL     OW14036   0.192  13.424  14.870
 4066SOL    HW114037   0.161  13.502   0.040
 4066SOL    HW214038   0.151  13.351   0.039
 4067SOL     OW14039  13.459   4.498   0.929
 4067SOL    HW114040  13.416   4.582   0.914
 4067SOL    HW214041  13.481   4.499   1.022
 4068SOL     OW14042   9.370  14.799  12.840
 4068SOL    HW114043   9.317  14.719  12.846
 4068SOL    HW214044   9.319  14.866  12.885
 4069SOL     OW14045   2.051  11.249   2.789
 4069SOL    HW114046   2.024  11.211   2.872
 4069SOL    HW214047   2.014  11.190   2.723
 4070SOL     OW14048   6.753   3.105  12.516
 4070SOL    HW114049   6.687   3.092  12.448
 4070SOL    HW214050   6.732   3.190  12.554
 4071SOL     OW14051  11.159   7.704   4.918
 4071SOL    HW114052  11.168   7.799   4.915
 4071SOL    HW214053  11.141   7.684   5.010
 4072SOL     OW14054  12.341   9.286   0.130
 4072SOL    HW114055  12.280   9.355   0.103
 4072SOL    HW214056  12.326   9.216   0.067
 4073SOL     OW14057  11.249   4.595   1.461
 4073SOL    HW114058  11.203   4.656   1.518
 4073SOL    HW214059  11.315   4.555   1.517
 4074SOL     OW14060   2.262   9.877   5.841
 4074SOL    HW114061   2.303   9.960   5.815
 4074SOL    HW214062   2.280   9.870   5.935
 4075SOL     OW14063  10.833   0.477  10.171
 4075SOL    HW114064  10.832   0.509  10.080
 4075SOL    HW214065  10.804   0.386  10.164
 4076SOL     OW14066   7.058   4.938  10.190
 4076SOL    HW114067   7.047   4.883  10.112
 4076SOL    HW214068   6.971   4.976  10.205
 4077SOL     OW14069   2.903   9.360   1.601
 4077SOL    HW114070   2.894   9.292   1.534
 4077SOL    HW214071   2.857   9.436   1.565
 4078SOL     OW14072  11.434  11.704  14.840
 4078SOL    HW114073  11.518  11.686  14.799
 4078SOL    HW214074  11.392  11.618  14.848
 4079SOL     OW14075  13.581   2.208   5.367
 4079SOL    HW114076  13.567   2.259   5.447
 4079SOL    HW214077  13.532   2.256   5.299
 4080SOL     OW14078  10.342   9.945   5.603
 4080SOL    HW114079  10.385   9.902   5.528
 4080SOL    HW214080  10.286   9.877   5.641
 4081SOL     OW14081   9.955  12.136  12.693
 4081SOL    HW114082  10.027  12.195  12.713
 4081SOL    HW214083   9.887  12.158  12.757
 4082SOL     OW14084  13.666   1.815   4.953
 4082SOL    HW114085  13.728   1.850   4.889
 4082SOL    HW214086  13.587   1.867   4.942
 4083SOL     OW14087   5.568  13.832  14.621
 4083SOL    HW114088   5.659  13.820  14.648
 4083SOL    HW214089   5.573  13.886  14.542
 4084SOL     OW14090   6.644   5.664   5.297
 4084SOL    HW114091   6.709   5.701   5.357
 4084SOL    HW214092   6.615   5.584   5.341
 4085SOL     OW14093  14.472   4.993  12.510
 4085SOL    HW114094  14.484   4.924  12.445
 4085SOL    HW214095  14.528   4.967  12.584
 4086SOL     OW14096  14.377   3.099   8.811
 4086SOL    HW114097  14.391   3.005   8.824
 4086SOL    HW214098  14.299   3.104   8.756
 4087SOL     OW14099  11.417  10.331  14.341
 4087SOL    HW114100  11.510  10.311  14.342
 4087SOL    HW214101  11.379  10.277  14.410
 4088SOL     OW14102  10.625   7.843   6.185
 4088SOL    HW114103  10.573   7.907   6.233
 4088SOL    HW214104  10.561   7.782   6.149
 4089SOL     OW14105   1.502  14.015   8.569
 4089SOL    HW114106   1.585  14.059   8.550
 4089SOL    HW214107   1.503  14.001   8.664
 4090SOL     OW14108  14.015   2.098  10.818
 4090SOL    HW114109  14.083   2.157  10.786
 4090SOL    HW214110  13.983   2.053  10.740
 4091SOL     OW14111   9.869  12.450   5.263
 4091SOL    HW114112   9.835  12.406   5.341
 4091SOL    HW214113   9.925  12.520   5.298
 4092SOL     OW14114   4.741   3.583  10.214
 4092SOL    HW114115   4.697   3.662  10.182
 4092SOL    HW214116   4.780   3.610  10.297
 4093SOL     OW14117   7.311   9.653  10.151
 4093SOL    HW114118   7.374   9.631  10.220
 4093SOL    HW214119   7.239   9.592  10.163
 4094SOL     OW14120   1.923   2.869   6.863
 4094SOL    HW114121   1.877   2.848   6.944
 4094SOL    HW214122   2.007   2.905   6.893
 4095SOL     OW14123   3.059   6.930   5.876
 4095SOL    HW114124   3.050   6.935   5.971
 4095SOL    HW214125   2.992   6.868   5.849
 4096SOL     OW14126   2.752   4.104   9.107
 4096SOL    HW114127   2.780   4.195   9.120
 4096SOL    HW214128   2.763   4.089   9.013
 4097SOL     OW14129   5.205   9.333   3.181
 4097SOL    HW114130   5.145   9.328   3.256
 4097SOL    HW214131   5.149   9.358   3.107
 4098SOL     OW14132   3.582   1.497  12.872
 4098SOL    HW114133   3.669   1.534  12.858
 4098SOL    HW214134   3.525   1.574  12.881
 4099SOL     OW14135   6.259   2.555  12.787
 4099SOL    HW114136   6.223   2.470  12.810
 4099SOL    HW214137   6.199   2.588  12.719
 4100SOL     OW14138  11.631   3.631  12.691
 4100SOL    HW114139  11.594   3.710  12.731
 4100SOL    HW214140  11.695   3.663  12.628
 4101SOL     OW14141  11.429   4.908   6.486
 4101SOL    HW114142  11.357   4.845   6.475
 4101SOL    HW214143  11.420   4.939   6.576
 4102SOL     OW14144   6.205   5.304   8.386
 4102SOL    HW114145   6.183   5.352   8.306
 4102SOL    HW214146   6.127   5.311   8.441
 4103SOL     OW14147   5.945   6.127   2.576
 4103SOL    HW114148   6.013   6.103   2.640
 4103SOL    HW214149   5.907   6.207   2.610
 4104SOL     OW14150   5.549   0.099   0.709
 4104SOL    HW114151   5.630   0.149   0.713
 4104SOL    HW214152   5.536   0.067   0.799
 4105SOL     OW14153  14.131  10.255  11.745
 4105SOL    HW114154  14.142  10.253  11.840
 4105SOL    HW214155  14.193  10.321  11.715
 4106SOL     OW14156  14.381  10.982  12.380
 4106SOL    HW114157  14.422  11.051  12.329
 4106SOL    HW214158  14.296  11.018  12.407
 4107SOL     OW14159   3.131   1.750   3.349
 4107SOL    HW114160   3.203   1.800   3.311
 4107SOL    HW214161   3.052   1.787   3.309
 4108SOL     OW14162  12.169  12.466   1.404
 4108SOL    HW114163  12.096  12.426   1.451
 4108SOL    HW214164  12.175  12.554   1.440
 4109SOL     OW14165   1.830  11.385  11.784
 4109SOL    HW114166   1.864  11.303  11.749
 4109SOL    HW214167   1.906  11.442  11.792
 4110SOL     OW14168   6.387   7.422  11.396
 4110SOL    HW114169   6.335   7.494  11.361
 4110SOL    HW214170   6.372   7.349  11.335
 4111SOL     OW14171   5.337   8.829   9.865
 4111SOL    HW114172   5.353   8.841   9.771
 4111SOL    HW214173   5.313   8.917   9.896
 4112SOL     OW14174   7.878  13.098   6.129
 4112SOL    HW114175   7.843  13.014   6.100
 4112SOL    HW214176   7.833  13.118   6.210
 4113SOL     OW14177   6.332   8.925   8.168
 4113SOL    HW114178   6.305   8.835   8.185
 4113SOL    HW214179   6.388   8.948   8.241
 4114SOL     OW14180  11.301   2.471   0.008
 4114SOL    HW114181  11.210   2.445   0.020
 4114SOL    HW214182  11.343   2.454   0.093
 4115SOL     OW14183   8.702   6.495  13.909
 4115SOL    HW114184   8.753   6.441  13.969
 4115SOL    HW214185   8.675   6.436  13.839
 4116SOL     OW14186  11.363   7.282   3.077
 4116SOL    HW114187  11.337   7.192   3.056
 4116SOL    HW214188  11.280   7.331   3.077
 4117SOL     OW14189   1.515   6.270  12.357
 4117SOL    HW114190   1.589   6.243  12.410
 4117SOL    HW214191   1.458   6.318  12.416
 4118SOL     OW14192   4.922  10.526   6.746
 4118SOL    HW114193   4.840  10.490   6.711
 4118SOL    HW214194   4.959  10.454   6.798
 4119SOL     OW14195   7.305  11.456   5.910
 4119SOL    HW114196   7.348  11.431   5.828
 4119SOL    HW214197   7.357  11.530   5.943
 4120SOL     OW14198   8.376  11.002   6.262
 4120SOL    HW114199   8.408  10.945   6.192
 4120SOL    HW214200   8.283  11.012   6.243
 4121SOL     OW14201   6.770  14.529   5.285
 4121SOL    HW114202   6.803  14.561   5.369
 4121SOL    HW214203   6.674  14.532   5.294
 4122SOL     OW14204   3.736   6.308   8.455
 4122SOL    HW114205   3.675   6.320   8.382
 4122SOL    HW214206   3.818   6.345   8.423
 4123SOL     OW14207   9.982  11.455   3.913
 4123SOL    HW114208   9.945  11.442   3.826
 4123SOL    HW214209   9.944  11.538   3.943
 4124SOL     OW14210   4.573  13.012   0.429
 4124SOL    HW114211   4.587  13.095   0.383
 4124SOL    HW214212   4.549  13.038   0.518
 4125SOL     OW14213   1.201   9.886   6.508
 4125SOL    HW114214   1.114   9.848   6.493
 4125SOL    HW214215   1.188   9.946   6.581
 4126SOL     OW14216   4.173   6.509   6.458
 4126SOL    HW114217   4.105   6.574   6.443
 4126SOL    HW214218   4.211   6.534   6.543
 4127SOL     OW14219  10.637   0.109  14.124
 4127SOL    HW114220  10.658   0.038  14.184
 4127SOL    HW214221  10.543   0.125  14.136
 4128SOL     OW14222   2.791   7.804  13.158
 4128SOL    HW114223   2.761   7.732  13.214
 4128SOL    HW214224   2.712   7.831  13.111
 4129SOL     OW14225  14.362   0.097   8.907
 4129SOL    HW114226  14.357   0.064   8.817
 4129SOL    HW214227  14.281   0.068   8.948
 4130SOL     OW14228   9.592   7.955   1.448
 4130SOL    HW114229   9.652   8.017   1.407
 4130SOL    HW214230   9.505   7.980   1.418
 4131SOL     OW14231   7.673   4.049   6.141
 4131SOL    HW114232   7.670   4.135   6.100
 4131SOL    HW214233   7.588   4.009   6.118
 4132SOL     OW14234   4.936   0.893   5.236
 4132SOL    HW114235   4.878   0.969   5.223
 4132SOL    HW214236   5.024   0.927   5.219
 4133SOL     OW14237   0.986   0.149   5.440
 4133SOL    HW114238   1.001   0.238   5.471
 4133SOL    HW214239   0.945   0.159   5.354
 4134SOL     OW14240   1.688   4.537  14.757
 4134SOL    HW114241   1.770   4.586  14.744
 4134SOL    HW214242   1.666   4.551  14.849
 4135SOL     OW14243   5.776   2.407  11.744
 4135SOL    HW114244   5.716   2.474  11.778
 4135SOL    HW214245   5.852   2.456  11.713
 4136SOL     OW14246   3.054  11.806  12.870
 4136SOL    HW114247   3.070  11.899  12.887
 4136SOL    HW214248   2.959  11.799  12.864
 4137SOL     OW14249   0.122  10.826   8.896
 4137SOL    HW114250   0.087  10.861   8.814
 4137SOL    HW214251   0.193  10.886   8.919
 4138SOL     OW14252   9.848   8.053   3.814
 4138SOL    HW114253   9.844   8.050   3.909
 4138SOL    HW214254   9.831   7.963   3.786
 4139SOL     OW14255   6.110   9.751  13.946
 4139SOL    HW114256   6.173   9.684  13.972
 4139SOL    HW214257   6.162   9.817  13.901
 4140SOL     OW14258   1.022  10.232   7.849
 4140SOL    HW114259   1.035  10.139   7.871
 4140SOL    HW214260   1.059  10.242   7.761
 4141SOL     OW14261   5.208  12.595   7.883
 4141SOL    HW114262   5.149  12.561   7.950
 4141SOL    HW214263   5.296  12.578   7.916
 4142SOL     OW14264   2.002   2.474   5.454
 4142SOL    HW114265   2.096   2.476   5.435
 4142SOL    HW214266   1.962   2.513   5.376
 4143SOL     OW14267  10.768   6.382   9.871
 4143SOL    HW114268  10.688   6.367   9.921
 4143SOL    HW214269  10.743   6.448   9.806
 4144SOL     OW14270   1.819  11.788   7.602
 4144SOL    HW114271   1.736  11.753   7.569
 4144SOL    HW214272   1.869  11.711   7.627
 4145SOL     OW14273  10.046   1.459  12.360
 4145SOL    HW114274  10.033   1.509  12.440
 4145SOL    HW214275   9.958   1.436  12.331
 4146SOL     OW14276  14.531   0.216   1.600
 4146SOL    HW114277  14.462   0.231   1.536
 4146SOL    HW214278  14.519   0.126   1.629
 4147SOL     OW14279   8.020  13.614   2.567
 4147SOL    HW114280   7.968  13.630   2.488
 4147SOL    HW214281   7.958  13.621   2.639
 4148SOL     OW14282   7.244   8.685  10.534
 4148SOL    HW114283   7.325   8.682  10.585
 4148SOL    HW214284   7.259   8.624  10.461
 4149SOL     OW14285   7.650   4.025   5.605
 4149SOL    HW114286   7.605   4.097   5.650
 4149SOL    HW214287   7.692   4.066   5.530
 4150SOL     OW14288  14.263   0.243  12.094
 4150SOL    HW114289  14.203   0.170  12.079
 4150SOL    HW214290  14.349   0.210  12.068
 4151SOL     OW14291   1.340   3.470   3.676
 4151SOL    HW114292   1.426   3.513   3.680
 4151SOL    HW214293   1.278   3.542   3.659
 4152SOL     OW14294   3.348   9.423  13.242
 4152SOL    HW114295   3.383   9.511  13.256
 4152SOL    HW214296   3.283   9.413  13.311
 4153SOL     OW14297  10.923   0.151   6.211
 4153SOL    HW114298  10.846   0.195   6.247
 4153SOL    HW214299  10.946   0.204   6.134
 4154SOL     OW14300   7.921   4.018   2.903
 4154SOL    HW114301   7.949   4.102   2.939
 4154SOL    HW214302   7.985   3.998   2.835
 4155SOL     OW14303   0.863   3.482  14.552
 4155SOL    HW114304   0.818   3.554  14.595
 4155SOL    HW214305   0.939   3.523  14.509
 4156SOL     OW14306   0.037  12.595  14.268
 4156SOL    HW114307   0.107  12.640  14.221
 4156SOL    HW214308  14.836  12.648  14.252
 4157SOL     OW14309  14.467   4.231   2.254
 4157SOL    HW114310  14.561   4.248   2.242
 4157SOL    HW214311  14.430   4.244   2.167
 4158SOL     OW14312   6.456  11.997   1.106
 4158SOL    HW114313   6.420  11.909   1.103
 4158SOL    HW214314   6.509  12.004   1.026
 4159SOL     OW14315   8.412   9.897   7.303
 4159SOL    HW114316   8.370   9.827   7.354
 4159SOL    HW214317   8.481   9.930   7.362
 4160SOL     OW14318   1.866   5.272  10.820
 4160SOL    HW114319   1.912   5.333  10.762
 4160SOL    HW214320   1.930   5.202  10.837
 4161SOL     OW14321   6.754  11.592   6.894
 4161SOL    HW114322   6.755  11.665   6.957
 4161SOL    HW214323   6.699  11.526   6.935
 4162SOL     OW14324   1.032   3.705   5.922
 4162SOL    HW114325   1.001   3.705   5.831
 4162SOL    HW214326   0.954   3.717   5.975
 4163SOL     OW14327   5.956   2.959   0.266
 4163SOL    HW114328   5.863   2.971   0.288
 4163SOL    HW214329   5.960   2.873   0.226
 4164SOL     OW14330   8.445   4.882  11.875
 4164SOL    HW114331   8.411   4.825  11.944
 4164SOL    HW214332   8.539   4.886  11.892
 4165SOL     OW14333   6.316  10.438  12.620
 4165SOL    HW114334   6.405  10.403  12.627
 4165SOL    HW214335   6.261  10.371  12.661
 4166SOL     OW14336  13.212  12.399  13.373
 4166SOL    HW114337  13.157  12.470  13.341
 4166SOL    HW214338  13.300  12.438  13.378
 4167SOL     OW14339   3.530   8.953   1.684
 4167SOL    HW114340   3.457   8.912   1.637
 4167SOL    HW214341   3.608   8.929   1.635
 4168SOL     OW14342  11.251   4.248   3.876
 4168SOL    HW114343  11.172   4.291   3.908
 4168SOL    HW214344  11.321   4.310   3.894
 4169SOL     OW14345   4.268   3.144  13.761
 4169SOL    HW114346   4.232   3.056  13.775
 4169SOL    HW214347   4.281   3.179  13.849
 4170SOL     OW14348   2.736   6.005   2.944
 4170SOL    HW114349   2.688   6.081   2.977
 4170SOL    HW214350   2.820   6.008   2.990
 4171SOL     OW14351  10.256  12.355   4.892
 4171SOL    HW114352  10.330  12.305   4.927
 4171SOL    HW214353  10.180  12.318   4.936
 4172SOL     OW14354   4.415   8.408   1.736
 4172SOL    HW114355   4.468   8.433   1.661
 4172SOL    HW214356   4.344   8.355   1.699
 4173SOL     OW14357   8.284  13.925  10.755
 4173SOL    HW114358   8.290  13.919  10.851
 4173SOL    HW214359   8.310  13.838  10.725
 4174SOL     OW14360   3.977  13.940  13.988
 4174SOL    HW114361   4.054  13.915  13.936
 4174SOL    HW214362   3.982  13.887  14.067
 4175SOL     OW14363   1.118   7.958  14.756
 4175SOL    HW114364   1.191   8.016  14.775
 4175SOL    HW214365   1.144   7.873  14.793
 4176SOL     OW14366  10.419   2.353   1.242
 4176SOL    HW114367  10.515   2.352   1.231
 4176SOL    HW214368  10.399   2.443   1.268
 4177SOL     OW14369  14.520   0.046  12.527
 4177SOL    HW114370  14.451   0.007  12.579
 4177SOL    HW214371  14.571  14.848  12.494
 4178SOL     OW14372  14.159   6.055  14.335
 4178SOL    HW114373  14.189   6.138  14.372
 4178SOL    HW214374  14.075   6.075  14.295
 4179SOL     OW14375  11.678   6.703   6.333
 4179SOL    HW114376  11.625   6.746   6.401
 4179SOL    HW214377  11.641   6.615   6.327
 4180SOL     OW14378   3.087   7.626   2.570
 4180SOL    HW114379   3.144   7.558   2.604
 4180SOL    HW214380   3.083   7.608   2.476
 4181SOL     OW14381   5.193   2.461  12.940
 4181SOL    HW114382   5.141   2.403  12.996
 4181SOL    HW214383   5.229   2.526  13.000
 4182SOL     OW14384   5.550   0.184   1.635
 4182SOL    HW114385   5.461   0.206   1.607
 4182SOL    HW214386   5.573   0.108   1.582
 4183SOL     OW14387   8.076   5.866  14.407
 4183SOL    HW114388   8.097   5.855  14.500
 4183SOL    HW214389   8.155   5.840  14.361
 4184SOL     OW14390   2.156  10.766  10.856
 4184SOL    HW114391   2.146  10.687  10.908
 4184SOL    HW214392   2.097  10.753  10.781
 4185SOL     OW14393   2.945   1.082   7.404
 4185SOL    HW114394   2.926   1.105   7.495
 4185SOL    HW214395   2.922   1.161   7.354
 4186SOL     OW14396   3.208   2.913   9.876
 4186SOL    HW114397   3.282   2.969   9.853
 4186SOL    HW214398   3.145   2.972   9.918
 4187SOL     OW14399   5.203  13.683   4.558
 4187SOL    HW114400   5.193  13.618   4.628
 4187SOL    HW214401   5.114  13.703   4.532
 4188SOL     OW14402   7.932   4.939   9.607
 4188SOL    HW114403   7.867   4.909   9.671
 4188SOL    HW214404   7.884   4.944   9.524
 4189SOL     OW14405   4.755  10.561   5.415
 4189SOL    HW114406   4.806  10.591   5.489
 4189SOL    HW214407   4.666  10.554   5.448
 4190SOL     OW14408   5.558   4.960   5.191
 4190SOL    HW114409   5.566   4.903   5.267
 4190SOL    HW214410   5.481   4.927   5.144
 4191SOL     OW14411   6.820   1.852   7.513
 4191SOL    HW114412   6.821   1.757   7.513
 4191SOL    HW214413   6.882   1.877   7.444
 4192SOL     OW14414  11.935   8.837   9.578
 4192SOL    HW114415  11.925   8.743   9.564
 4192SOL    HW214416  11.900   8.876   9.498
 4193SOL     OW14417  10.204  14.255  14.267
 4193SOL    HW114418  10.271  14.271  14.201
 4193SOL    HW214419  10.182  14.342  14.301
 4194SOL     OW14420   0.524   8.757  12.512
 4194SOL    HW114421   0.532   8.691  12.581
 4194SOL    HW214422   0.432   8.784  12.516
 4195SOL     OW14423   4.938  12.023   6.921
 4195SOL    HW114424   4.874  12.023   6.992
 4195SOL    HW214425   4.925  12.108   6.878
 4196SOL     OW14426  11.551  12.456   4.487
 4196SOL    HW114427  11.631  12.494   4.525
 4196SOL    HW214428  11.513  12.528   4.437
 4197SOL     OW14429   7.173   6.633   6.133
 4197SOL    HW114430   7.200   6.698   6.069
 4197SOL    HW214431   7.087   6.604   6.103
 4198SOL     OW14432   0.069   5.499  11.000
 4198SOL    HW114433   0.095   5.590  10.993
 4198SOL    HW214434   0.014   5.495  11.078
 4199SOL     OW14435   2.819   0.231   2.210
 4199SOL    HW114436   2.907   0.251   2.242
 4199SOL    HW214437   2.833   0.163   2.144
 4200SOL     OW14438   1.060   4.772  11.336
 4200SOL    HW114439   1.016   4.856  11.324
 4200SOL    HW214440   1.023   4.716  11.267
 4201SOL     OW14441   8.376   9.491   8.524
 4201SOL    HW114442   8.297   9.531   8.487
 4201SOL    HW214443   8.443   9.559   8.515
 4202SOL     OW14444   0.622  11.792   7.503
 4202SOL    HW114445   0.618  11.697   7.498
 4202SOL    HW214446   0.704  11.815   7.460
 4203SOL     OW14447   7.227   3.689   8.363
 4203SOL    HW114448   7.153   3.702   8.303
 4203SOL    HW214449   7.188   3.699   8.450
 4204SOL     OW14450  13.645  11.987  14.424
 4204SOL    HW114451  13.611  11.898  14.414
 4204SOL    HW214452  13.613  12.016  14.509
 4205SOL     OW14453  12.270   0.916   7.654
 4205SOL    HW114454  12.183   0.951   7.672
 4205SOL    HW214455  12.275   0.909   7.559
 4206SOL     OW14456   6.497   6.738   8.130
 4206SOL    HW114457   6.569   6.681   8.103
 4206SOL    HW214458   6.443   6.747   8.052
 4207SOL     OW14459   5.428   5.460  12.782
 4207SOL    HW114460   5.459   5.517  12.712
 4207SOL    HW214461   5.426   5.373  12.742
 4208SOL     OW14462   0.061   0.392   1.353
 4208SOL    HW114463   0.101   0.471   1.317
 4208SOL    HW214464   0.093   0.388   1.443
 4209SOL     OW14465  10.779   7.730  11.852
 4209SOL    HW114466  10.719   7.766  11.786
 4209SOL    HW214467  10.798   7.641  11.821
 4210SOL     OW14468   4.316   8.221   7.532
 4210SOL    HW114469   4.311   8.289   7.600
 4210SOL    HW214470   4.235   8.232   7.482
 4211SOL     OW14471  13.231   3.667   1.164
 4211SOL    HW114472  13.295   3.736   1.147
 4211SOL    HW214473  13.268   3.589   1.124
 4212SOL     OW14474   9.895   0.472   6.402
 4212SOL    HW114475   9.899   0.541   6.469
 4212SOL    HW214476   9.844   0.511   6.331
 4213SOL     OW14477   0.218   8.517   8.230
 4213SOL    HW114478   0.191   8.593   8.281
 4213SOL    HW214479   0.225   8.549   8.140
 4214SOL     OW14480   8.895   7.325  10.071
 4214SOL    HW114481   8.809   7.359  10.098
 4214SOL    HW214482   8.954   7.400  10.081
 4215SOL     OW14483   0.745   8.351   3.320
 4215SOL    HW114484   0.691   8.426   3.343
 4215SOL    HW214485   0.708   8.278   3.370
 4216SOL     OW14486  14.552   0.431  11.661
 4216SOL    HW114487  14.460   0.404  11.670
 4216SOL    HW214488  14.589   0.367  11.600
 4217SOL     OW14489  12.528   1.148  14.318
 4217SOL    HW114490  12.504   1.055  14.318
 4217SOL    HW214491  12.493   1.182  14.400
 4218SOL     OW14492   7.501   6.163   7.630
 4218SOL    HW114493   7.440   6.234   7.652
 4218SOL    HW214494   7.489   6.150   7.536
 4219SOL     OW14495   0.948   1.430   9.338
 4219SOL    HW114496   0.869   1.469   9.376
 4219SOL    HW214497   0.986   1.501   9.286
 4220SOL     OW14498   4.831  12.814   0.842
 4220SOL    HW114499   4.849  12.882   0.777
 4220SOL    HW214500   4.847  12.856   0.926
 4221SOL     OW14501   7.056  14.753   6.477
 4221SOL    HW114502   6.969  14.723   6.504
 4221SOL    HW214503   7.054  14.748   6.382
 4222SOL     OW14504   9.118   7.679   2.549
 4222SOL    HW114505   9.081   7.704   2.464
 4222SOL    HW214506   9.179   7.609   2.529
 4223SOL     OW14507  14.721  14.135   0.951
 4223SOL    HW114508  14.740  14.085   0.872
 4223SOL    HW214509  14.775  14.095   1.019
 4224SOL     OW14510   6.093   0.007   7.774
 4224SOL    HW114511   6.048  14.848   7.851
 4224SOL    HW214512   6.181   0.029   7.806
 4225SOL     OW14513   6.174   5.253   3.937
 4225SOL    HW114514   6.246   5.295   3.983
 4225SOL    HW214515   6.161   5.306   3.858
 4226SOL     OW14516   6.280  10.380   8.177
 4226SOL    HW114517   6.350  10.379   8.112
 4226SOL    HW214518   6.317  10.337   8.254
 4227SOL     OW14519   5.021  11.409   2.111
 4227SOL    HW114520   5.039  11.460   2.031
 4227SOL    HW214521   5.047  11.320   2.088
 4228SOL     OW14522   3.819  12.870   6.692
 4228SOL    HW114523   3.737  12.852   6.738
 4228SOL    HW214524   3.798  12.858   6.599
 4229SOL     OW14525   5.556  14.097   6.352
 4229SOL    HW114526   5.530  14.100   6.260
 4229SOL    HW214527   5.556  14.004   6.374
 4230SOL     OW14528  11.946   7.549   6.927
 4230SOL    HW114529  11.913   7.484   6.990
 4230SOL    HW214530  11.935   7.633   6.972
 4231SOL     OW14531   1.755   1.900  12.966
 4231SOL    HW114532   1.786   1.991  12.961
 4231SOL    HW214533   1.800   1.855  12.895
 4232SOL     OW14534  13.561   8.338  11.341
 4232SOL    HW114535  13.620   8.319  11.268
 4232SOL    HW214536  13.524   8.424  11.319
 4233SOL     OW14537  12.590   3.642  11.640
 4233SOL    HW114538  12.507   3.613  11.603
 4233SOL    HW214539  12.566   3.694  11.717
 4234SOL     OW14540   7.386   1.315   8.889
 4234SOL    HW114541   7.323   1.386   8.906
 4234SOL    HW214542   7.399   1.318   8.795
 4235SOL     OW14543   0.738   2.458   6.788
 4235SOL    HW114544   0.656   2.409   6.787
 4235SOL    HW214545   0.711   2.549   6.775
 4236SOL     OW14546   4.347  11.610  10.085
 4236SOL    HW114547   4.381  11.539  10.030
 4236SOL    HW214548   4.265  11.575  10.120
 4237SOL     OW14549  12.232   3.129   4.689
 4237SOL    HW114550  12.168   3.173   4.746
 4237SOL    HW214551  12.179   3.066   4.639
 4238SOL     OW14552   8.964  12.048   1.717
 4238SOL    HW114553   8.874  12.038   1.686
 4238SOL    HW214554   8.959  12.033   1.811
 4239SOL     OW14555   6.564   4.069   6.386
 4239SOL    HW114556   6.659   4.068   6.389
 4239SOL    HW214557   6.538   4.132   6.453
 4240SOL     OW14558   1.023  11.767   6.378
 4240SOL    HW114559   0.973  11.771   6.460
 4240SOL    HW214560   0.961  11.731   6.314
 4241SOL     OW14561   8.285   5.778  14.255
 4241SOL    HW114562   8.305   5.739  14.169
 4241SOL    HW214563   8.364   5.827  14.277
 4242SOL     OW14564  12.463   9.178  11.728
 4242SOL    HW114565  12.533   9.143  11.672
 4242SOL    HW214566  12.479   9.139  11.814
 4243SOL     OW14567  11.239  14.869   3.398
 4243SOL    HW114568  11.153   0.002   3.439
 4243SOL    HW214569  11.301   0.015   3.467
 4244SOL     OW14570   5.787   0.673  11.225
 4244SOL    HW114571   5.747   0.664  11.312
 4244SOL    HW214572   5.718   0.710  11.171
 4245SOL     OW14573   5.359  10.173  14.518
 4245SOL    HW114574   5.395  10.127  14.594
 4245SOL    HW214575   5.421  10.156  14.447
 4246SOL     OW14576   9.771  14.455   1.783
 4246SOL    HW114577   9.836  14.439   1.852
 4246SOL    HW214578   9.687  14.451   1.828
 4247SOL     OW14579   7.022  11.710   1.190
 4247SOL    HW114580   6.957  11.753   1.134
 4247SOL    HW214581   7.005  11.744   1.277
 4248SOL     OW14582  10.995  10.534  10.995
 4248SOL    HW114583  11.056  10.463  11.016
 4248SOL    HW214584  10.964  10.515  10.907
 4249SOL     OW14585   5.024  13.762   5.939
 4249SOL    HW114586   5.085  13.808   5.882
 4249SOL    HW214587   4.937  13.791   5.910
 4250SOL     OW14588   7.187  13.515   8.622
 4250SOL    HW114589   7.243  13.592   8.630
 4250SOL    HW214590   7.099  13.550   8.609
 4251SOL     OW14591   3.001  12.318   5.870
 4251SOL    HW114592   3.007  12.290   5.778
 4251SOL    HW214593   2.995  12.414   5.864
 4252SOL     OW14594   7.987   1.863  14.072
 4252SOL    HW114595   7.936   1.808  14.012
 4252SOL    HW214596   8.032   1.801  14.129
 4253SOL     OW14597   8.657   6.302   6.658
 4253SOL    HW114598   8.627   6.275   6.745
 4253SOL    HW214599   8.582   6.348   6.621
 4254SOL     OW14600  11.017  12.081  11.197
 4254SOL    HW114601  11.067  12.014  11.244
 4254SOL    HW214602  10.956  12.033  11.142
 4255SOL     OW14603   0.971   2.098   3.146
 4255SOL    HW114604   0.961   2.009   3.111
 4255SOL    HW214605   1.025   2.088   3.224
 4256SOL     OW14606   7.982   7.145  14.517
 4256SOL    HW114607   7.981   7.205  14.591
 4256SOL    HW214608   7.929   7.189  14.450
 4257SOL     OW14609  14.126   9.661   3.725
 4257SOL    HW114610  14.077   9.695   3.651
 4257SOL    HW214611  14.092   9.710   3.801
 4258SOL     OW14612  10.848  12.260   4.670
 4258SOL    HW114613  10.758  12.287   4.649
 4258SOL    HW214614  10.889  12.339   4.706
 4259SOL     OW14615   7.396  11.358   5.681
 4259SOL    HW114616   7.490  11.351   5.661
 4259SOL    HW214617   7.352  11.326   5.603
 4260SOL     OW14618   0.895  11.490   4.196
 4260SOL    HW114619   0.948  11.411   4.189
 4260SOL    HW214620   0.879  11.517   4.106
 4261SOL     OW14621   6.876   6.640  13.616
 4261SOL    HW114622   6.954   6.675  13.575
 4261SOL    HW214623   6.865   6.691  13.696
 4262SOL     OW14624   1.629   4.829   8.913
 4262SOL    HW114625   1.632   4.855   8.821
 4262SOL    HW214626   1.701   4.766   8.922
 4263SOL     OW14627   2.081   8.535   9.204
 4263SOL    HW114628   2.141   8.571   9.269
 4263SOL    HW214629   2.030   8.609   9.173
 4264SOL     OW14630   1.695   7.798  10.632
 4264SOL    HW114631   1.724   7.720  10.678
 4264SOL    HW214632   1.631   7.766  10.568
 4265SOL     OW14633  14.687   6.268   3.264
 4265SOL    HW114634  14.766   6.292   3.314
 4265SOL    HW214635  14.651   6.352   3.236
 4266SOL     OW14636   5.745   0.397   9.535
 4266SOL    HW114637   5.680   0.345   9.582
 4266SOL    HW214638   5.697   0.438   9.464
 4267SOL     OW14639   3.229   9.430   5.301
 4267SOL    HW114640   3.172   9.376   5.354
 4267SOL    HW214641   3.228   9.516   5.344
 4268SOL     OW14642   9.348   5.356  14.021
 4268SOL    HW114643   9.437   5.325  14.002
 4268SOL    HW214644   9.361   5.419  14.092
 4269SOL     OW14645   6.527   1.864   1.285
 4269SOL    HW114646   6.568   1.932   1.339
 4269SOL    HW214647   6.557   1.781   1.322
 4270SOL     OW14648   8.855  11.254   8.879
 4270SOL    HW114649   8.779  11.277   8.826
 4270SOL    HW214650   8.858  11.158   8.877
 4271SOL     OW14651   2.261   7.409   9.474
 4271SOL    HW114652   2.342   7.420   9.425
 4271SOL    HW214653   2.200   7.471   9.436
 4272SOL     OW14654   6.879   4.367   7.524
 4272SOL    HW114655   6.910   4.276   7.522
 4272SOL    HW214656   6.900   4.398   7.612
 4273SOL     OW14657   3.921   2.732  13.699
 4273SOL    HW114658   3.829   2.761  13.693
 4273SOL    HW214659   3.971   2.802  13.659
 4274SOL     OW14660   0.375  13.013   1.545
 4274SOL    HW114661   0.326  13.089   1.576
 4274SOL    HW214662   0.404  13.038   1.458
 4275SOL     OW14663  13.636   4.172   3.822
 4275SOL    HW114664  13.589   4.254   3.810
 4275SOL    HW214665  13.608   4.118   3.748
 4276SOL     OW14666   1.867   4.564   7.240
 4276SOL    HW114667   1.954   4.604   7.236
 4276SOL    HW214668   1.861   4.513   7.159
 4277SOL     OW14669   7.924   4.586  10.638
 4277SOL    HW114670   7.976   4.661  10.668
 4277SOL    HW214671   7.835   4.607  10.665
 4278SOL     OW14672  13.738   6.958   5.369
 4278SOL    HW114673  13.769   6.876   5.407
 4278SOL    HW214674  13.648   6.967   5.401
 4279SOL     OW14675   8.531   4.672   9.365
 4279SOL    HW114676   8.587   4.600   9.393
 4279SOL    HW214677   8.506   4.649   9.275
 4280SOL     OW14678   8.319   2.803   3.682
 4280SOL    HW114679   8.298   2.896   3.670
 4280SOL    HW214680   8.277   2.780   3.765
 4281SOL     OW14681  14.650   9.342   1.026
 4281SOL    HW114682  14.644   9.289   1.105
 4281SOL    HW214683  14.710   9.294   0.969
 4282SOL     OW14684  10.014   2.064  12.799
 4282SOL    HW114685  10.106   2.074  12.823
 4282SOL    HW214686   9.971   2.038  12.880
 4283SOL     OW14687  14.855  14.238  14.363
 4283SOL    HW114688  14.828  14.152  14.331
 4283SOL    HW214689   0.051  14.264  14.305
 4284SOL     OW14690  12.237   9.206   9.169
 4284SOL    HW114691  12.271   9.123   9.203
 4284SOL    HW214692  12.143   9.191   9.160
 4285SOL     OW14693   9.808   4.733   2.576
 4285SOL    HW114694   9.837   4.660   2.632
 4285SOL    HW214695   9.741   4.694   2.519
 4286SOL     OW14696   5.985  12.930   8.506
 4286SOL    HW114697   5.979  12.853   8.449
 4286SOL    HW214698   6.073  12.925   8.543
 4287SOL     OW14699   1.199   0.649   0.517
 4287SOL    HW114700   1.283   0.692   0.504
 4287SOL    HW214701   1.212   0.559   0.487
 4288SOL     OW14702  11.150   4.724   6.052
 4288SOL    HW114703  11.098   4.677   5.987
 4288SOL    HW214704  11.134   4.817   6.033
 4289SOL     OW14705  11.523   5.870   4.096
 4289SOL    HW114706  11.444   5.922   4.081
 4289SOL    HW214707  11.594   5.926   4.067
 4290SOL     OW14708   2.128   6.496  12.690
 4290SOL    HW114709   2.184   6.573  12.695
 4290SOL    HW214710   2.179   6.426  12.732
 4291SOL     OW14711   9.966   3.480   8.959
 4291SOL    HW114712   9.903   3.410   8.942
 4291SOL    HW214713   9.933   3.523   9.038
 4292SOL     OW14714  11.846  14.025   4.485
 4292SOL    HW114715  11.893  14.109   4.493
 4292SOL    HW214716  11.801  14.014   4.568
 4293SOL     OW14717  12.419   5.588   4.405
 4293SOL    HW114718  12.447   5.614   4.318
 4293SOL    HW214719  12.366   5.661   4.437
 4294SOL     OW14720   5.873   4.121   4.264
 4294SOL    HW114721   5.920   4.174   4.328
 4294SOL    HW214722   5.793   4.095   4.309
 4295SOL     OW14723  13.374   5.732   4.324
 4295SOL    HW114724  13.366   5.812   4.376
 4295SOL    HW214725  13.468   5.722   4.308
 4296SOL     OW14726  10.857  12.625   5.408
 4296SOL    HW114727  10.770  12.590   5.429
 4296SOL    HW214728  10.905  12.550   5.373
 4297SOL     OW14729  11.013   6.624   6.963
 4297SOL    HW114730  11.106   6.626   6.985
 4297SOL    HW214731  10.973   6.685   7.026
 4298SOL     OW14732   8.868  13.787   4.256
 4298SOL    HW114733   8.962  13.788   4.240
 4298SOL    HW214734   8.860  13.782   4.352
 4299SOL     OW14735   2.928   7.503  12.184
 4299SOL    HW114736   2.860   7.496  12.118
 4299SOL    HW214737   3.008   7.476  12.139
 4300SOL     OW14738   9.624  11.210   2.640
 4300SOL    HW114739   9.617  11.157   2.561
 4300SOL    HW214740   9.571  11.288   2.621
 4301SOL     OW14741   3.291   0.494   3.791
 4301SOL    HW114742   3.221   0.515   3.852
 4301SOL    HW214743   3.298   0.571   3.734
 4302SOL     OW14744  14.381  10.016   8.869
 4302SOL    HW114745  14.454   9.988   8.814
 4302SOL    HW214746  14.396  10.110   8.882
 4303SOL     OW14747   2.915   6.460   1.346
 4303SOL    HW114748   2.925   6.451   1.441
 4303SOL    HW214749   2.825   6.434   1.329
 4304SOL     OW14750  11.674   3.786   8.705
 4304SOL    HW114751  11.610   3.788   8.776
 4304SOL    HW214752  11.659   3.703   8.662
 4305SOL     OW14753   6.372   0.899   7.122
 4305SOL    HW114754   6.430   0.828   7.150
 4305SOL    HW214755   6.429   0.977   7.118
 4306SOL     OW14756   7.995  13.705   4.686
 4306SOL    HW114757   8.090  13.698   4.676
 4306SOL    HW214758   7.971  13.779   4.630
 4307SOL     OW14759  10.299   8.585   3.409
 4307SOL    HW114760  10.346   8.519   3.460
 4307SOL    HW214761  10.363   8.655   3.396
 4308SOL     OW14762  12.823   7.146  10.231
 4308SOL    HW114763  12.911   7.166  10.262
 4308SOL    HW214764  12.794   7.225  10.185
 4309SOL     OW14765   5.516   3.329  14.377
 4309SOL    HW114766   5.553   3.264  14.438
 4309SOL    HW214767   5.508   3.408  14.429
 4310SOL     OW14768  14.347  12.717   2.309
 4310SOL    HW114769  14.274  12.713   2.248
 4310SOL    HW214770  14.308  12.746   2.391
 4311SOL     OW14771   4.674  10.939   3.801
 4311SOL    HW114772   4.690  10.860   3.852
 4311SOL    HW214773   4.761  10.974   3.782
 4312SOL     OW14774   0.377  10.286   5.771
 4312SOL    HW114775   0.302  10.234   5.802
 4312SOL    HW214776   0.443  10.277   5.840
 4313SOL     OW14777  10.277   3.093  11.404
 4313SOL    HW114778  10.223   3.075  11.328
 4313SOL    HW214779  10.219   3.138  11.465
 4314SOL     OW14780   4.416  14.178   9.690
 4314SOL    HW114781   4.441  14.198   9.781
 4314SOL    HW214782   4.499  14.174   9.643
 4315SOL     OW14783  12.686   9.952   0.807
 4315SOL    HW114784  12.766  10.003   0.822
 4315SOL    HW214785  12.698   9.913   0.720
 4316SOL     OW14786   8.372   7.444   7.323
 4316SOL    HW114787   8.363   7.361   7.276
 4316SOL    HW214788   8.432   7.496   7.269
 4317SOL     OW14789   6.925  11.539  11.080
 4317SOL    HW114790   6.859  11.515  11.144
 4317SOL    HW214791   6.992  11.471  11.088
 4318SOL     OW14792  10.688   5.836   9.550
 4318SOL    HW114793  10.622   5.784   9.503
 4318SOL    HW214794  10.660   5.833   9.642
 4319SOL     OW14795  14.602   4.022   0.331
 4319SOL    HW114796  14.536   4.073   0.379
 4319SOL    HW214797  14.683   4.072   0.341
 4320SOL     OW14798   6.667   8.319   4.775
 4320SOL    HW114799   6.700   8.266   4.848
 4320SOL    HW214800   6.619   8.256   4.720
 4321SOL     OW14801   7.588  13.078   4.430
 4321SOL    HW114802   7.541  13.139   4.487
 4321SOL    HW214803   7.560  12.991   4.460
 4322SOL     OW14804  14.663   9.551   9.293
 4322SOL    HW114805  14.751   9.521   9.270
 4322SOL    HW214806  14.619   9.563   9.209
 4323SOL     OW14807   0.189   1.912  10.637
 4323SOL    HW114808   0.143   1.834  10.607
 4323SOL    HW214809   0.125   1.959  10.691
 4324SOL     OW14810   7.812   1.390   5.290
 4324SOL    HW114811   7.725   1.350   5.287
 4324SOL    HW214812   7.871   1.317   5.309
 4325SOL     OW14813   5.863   8.232   5.402
 4325SOL    HW114814   5.810   8.273   5.470
 4325SOL    HW214815   5.890   8.148   5.441
 4326SOL     OW14816  14.255  14.634  14.639
 4326SOL    HW114817  14.242  14.727  14.658
 4326SOL    HW214818  14.338  14.631  14.592
 4327SOL     OW14819   8.200  11.189  13.474
 4327SOL    HW114820   8.168  11.120  13.417
 4327SOL    HW214821   8.215  11.146  13.558
 4328SOL     OW14822   9.759  12.377  10.191
 4328SOL    HW114823   9.699  12.327  10.135
 4328SOL    HW214824   9.701  12.423  10.252
 4329SOL     OW14825   7.169  12.731   4.031
 4329SOL    HW114826   7.076  12.713   4.044
 4329SOL    HW214827   7.214  12.658   4.072
 4330SOL     OW14828   0.204   6.563   2.939
 4330SOL    HW114829   0.195   6.471   2.964
 4330SOL    HW214830   0.280   6.593   2.988
 4331SOL     OW14831   5.299   3.252   9.932
 4331SOL    HW114832   5.269   3.221   9.846
 4331SOL    HW214833   5.291   3.347   9.927
 4332SOL     OW14834  14.421   9.507   3.161
 4332SOL    HW114835  14.458   9.464   3.238
 4332SOL    HW214836  14.497   9.522   3.104
 4333SOL     OW14837   2.477   1.585   1.369
 4333SOL    HW114838   2.566   1.596   1.402
 4333SOL    HW214839   2.424   1.644   1.423
 4334SOL     OW14840   9.833  12.904   1.231
 4334SOL    HW114841   9.854  12.897   1.138
 4334SOL    HW214842   9.915  12.932   1.272
 4335SOL     OW14843  12.687  13.342   3.005
 4335SOL    HW114844  12.759  13.343   2.942
 4335SOL    HW214845  12.714  13.277   3.070
 4336SOL     OW14846  10.498  13.870   2.267
 4336SOL    HW114847  10.411  13.852   2.231
 4336SOL    HW214848  10.499  13.964   2.283
 4337SOL     OW14849  13.597   2.208   2.525
 4337SOL    HW114850  13.574   2.173   2.612
 4337SOL    HW214851  13.671   2.266   2.542
 4338SOL     OW14852  10.842  10.425  12.616
 4338SOL    HW114853  10.766  10.410  12.673
 4338SOL    HW214854  10.917  10.427  12.676
 4339SOL     OW14855   1.785   5.179  13.446
 4339SOL    HW114856   1.702   5.202  13.489
 4339SOL    HW214857   1.849   5.177  13.517
 4340SOL     OW14858  12.369  12.908  11.221
 4340SOL    HW114859  12.393  12.997  11.198
 4340SOL    HW214860  12.416  12.853  11.158
 4341SOL     OW14861   5.662   1.013   0.352
 4341SOL    HW114862   5.620   1.011   0.267
 4341SOL    HW214863   5.738   0.956   0.343
 4342SOL     OW14864  11.472   4.888   6.798
 4342SOL    HW114865  11.531   4.929   6.862
 4342SOL    HW214866  11.431   4.816   6.846
 4343SOL     OW14867   0.459   2.059  10.449
 4343SOL    HW114868   0.410   2.033  10.527
 4343SOL    HW214869   0.406   2.028  10.376
 4344SOL     OW14870   3.388   2.282   3.970
 4344SOL    HW114871   3.474   2.265   4.008
 4344SOL    HW214872   3.336   2.205   3.991
 4345SOL     OW14873   0.177   0.583   4.897
 4345SOL    HW114874   0.114   0.653   4.915
 4345SOL    HW214875   0.203   0.596   4.806
 4346SOL     OW14876  14.063   1.294   7.902
 4346SOL    HW114877  14.041   1.209   7.939
 4346SOL    HW214878  13.996   1.309   7.835
 4347SOL     OW14879   7.143   9.482  14.559
 4347SOL    HW114880   7.072   9.439  14.606
 4347SOL    HW214881   7.118   9.476  14.467
 4348SOL     OW14882   4.824   0.270  10.448
 4348SOL    HW114883   4.881   0.337  10.484
 4348SOL    HW214884   4.883   0.204  10.412
 4349SOL     OW14885  13.713   5.608   3.486
 4349SOL    HW114886  13.664   5.575   3.410
 4349SOL    HW214887  13.662   5.681   3.519
 4350SOL     OW14888   5.497  14.057   0.959
 4350SOL    HW114889   5.500  13.974   0.911
 4350SOL    HW214890   5.404  14.072   0.974
 4351SOL     OW14891   9.232   3.028   1.316
 4351SOL    HW114892   9.255   2.975   1.392
 4351SOL    HW214893   9.290   3.104   1.322
 4352SOL     OW14894  10.891   6.004   4.923
 4352SOL    HW114895  10.830   5.946   4.968
 4352SOL    HW214896  10.950   6.035   4.991
 4353SOL     OW14897  13.382   8.205  11.794
 4353SOL    HW114898  13.306   8.216  11.851
 4353SOL    HW214899  13.370   8.120  11.753
 4354SOL     OW14900   9.726   1.516   1.777
 4354SOL    HW114901   9.746   1.544   1.867
 4354SOL    HW214902   9.757   1.589   1.723
 4355SOL     OW14903   8.280   3.650   4.154
 4355SOL    HW114904   8.263   3.566   4.112
 4355SOL    HW214905   8.246   3.639   4.243
 4356SOL     OW14906   9.343   3.592   0.492
 4356SOL    HW114907   9.340   3.520   0.555
 4356SOL    HW214908   9.434   3.596   0.463
 4357SOL     OW14909   4.981  10.430  10.432
 4357SOL    HW114910   4.968  10.438  10.337
 4357SOL    HW214911   5.076  10.436  10.443
 4358SOL     OW14912  12.307   2.449  12.688
 4358SOL    HW114913  12.264   2.380  12.739
 4358SOL    HW214914  12.327   2.517  12.752
 4359SOL     OW14915   7.137   4.741   2.646
 4359SOL    HW114916   7.122   4.678   2.717
 4359SOL    HW214917   7.056   4.739   2.595
 4360SOL     OW14918   6.797   6.908   1.672
 4360SOL    HW114919   6.765   6.907   1.581
 4360SOL    HW214920   6.729   6.864   1.722
 4361SOL     OW14921   7.109   6.783  12.774
 4361SOL    HW114922   7.108   6.817  12.864
 4361SOL    HW214923   7.029   6.733  12.766
 4362SOL     OW14924   5.218   7.316   7.586
 4362SOL    HW114925   5.137   7.294   7.632
 4362SOL    HW214926   5.192   7.389   7.528
 4363SOL     OW14927   7.397   0.618  14.781
 4363SOL    HW114928   7.492   0.607  14.777
 4363SOL    HW214929   7.369   0.555  14.847
 4364SOL     OW14930  13.077   1.466  13.241
 4364SOL    HW114931  13.014   1.496  13.175
 4364SOL    HW214932  13.023   1.447  13.318
 4365SOL     OW14933   8.322   0.205   4.700
 4365SOL    HW114934   8.304   0.294   4.670
 4365SOL    HW214935   8.236   0.169   4.719
 4366SOL     OW14936   1.989   0.099  14.611
 4366SOL    HW114937   1.901   0.061  14.617
 4366SOL    HW214938   1.974   0.191  14.592
 4367SOL     OW14939   4.078   5.931   2.436
 4367SOL    HW114940   4.158   5.924   2.384
 4367SOL    HW214941   4.010   5.892   2.381
 4368SOL     OW14942   3.249   6.848   1.917
 4368SOL    HW114943   3.224   6.813   2.003
 4368SOL    HW214944   3.168   6.884   1.881
 4369SOL     OW14945  10.547   3.689   8.129
 4369SOL    HW114946  10.471   3.743   8.106
 4369SOL    HW214947  10.512   3.600   8.137
 4370SOL     OW14948   3.476   4.884  14.034
 4370SOL    HW114949   3.484   4.922  14.121
 4370SOL    HW214950   3.496   4.791  14.047
 4371SOL     OW14951   4.884   5.809  11.949
 4371SOL    HW114952   4.938   5.765  12.016
 4371SOL    HW214953   4.878   5.900  11.979
 4372SOL     OW14954  13.354   7.541  12.670
 4372SOL    HW114955  13.351   7.574  12.760
 4372SOL    HW214956  13.447   7.534  12.650
 4373SOL     OW14957   4.041   1.621   6.609
 4373SOL    HW114958   3.960   1.609   6.558
 4373SOL    HW214959   4.052   1.540   6.657
 4374SOL     OW14960   3.894   6.262   2.828
 4374SOL    HW114961   3.875   6.204   2.755
 4374SOL    HW214962   3.975   6.228   2.866
 4375SOL     OW14963  11.846  14.847   0.602
 4375SOL    HW114964  11.870  14.867   0.692
 4375SOL    HW214965  11.881  14.760   0.586
 4376SOL     OW14966  13.769   9.282   8.131
 4376SOL    HW114967  13.770   9.205   8.074
 4376SOL    HW214968  13.710   9.258   8.202
 4377SOL     OW14969   6.731   6.305   0.747
 4377SOL    HW114970   6.686   6.362   0.685
 4377SOL    HW214971   6.791   6.364   0.794
 4378SOL     OW14972   3.116   5.228  13.549
 4378SOL    HW114973   3.069   5.302  13.510
 4378SOL    HW214974   3.151   5.180  13.474
 4379SOL     OW14975   9.035   1.461   5.712
 4379SOL    HW114976   9.055   1.466   5.806
 4379SOL    HW214977   9.117   1.434   5.671
 4380SOL     OW14978  13.110  11.185   1.075
 4380SOL    HW114979  13.182  11.209   1.134
 4380SOL    HW214980  13.153  11.170   0.991
 4381SOL     OW14981   6.372   4.416   2.358
 4381SOL    HW114982   6.457   4.430   2.316
 4381SOL    HW214983   6.330   4.349   2.305
 4382SOL     OW14984  14.112   4.058   4.008
 4382SOL    HW114985  14.112   3.964   3.989
 4382SOL    HW214986  14.044   4.094   3.952
 4383SOL     OW14987   8.174   0.542   4.864
 4383SOL    HW114988   8.221   0.540   4.947
 4383SOL    HW214989   8.082   0.553   4.888
 4384SOL     OW14990   2.540   1.546   9.646
 4384SOL    HW114991   2.593   1.474   9.611
 4384SOL    HW214992   2.589   1.625   9.622
 4385SOL     OW14993   7.322  10.595   1.793
 4385SOL    HW114994   7.338  10.540   1.717
 4385SOL    HW214995   7.376  10.557   1.862
 4386SOL     OW14996  11.159   5.745   6.340
 4386SOL    HW114997  11.080   5.793   6.317
 4386SOL    HW214998  11.128   5.660   6.371
 4387SOL     OW14999  10.171   3.413   0.138
 4387SOL    HW115000  10.142   3.399   0.228
 4387SOL    HW215001  10.182   3.508   0.132
 4388SOL     OW15002   8.567   1.732   4.873
 4388SOL    HW115003   8.555   1.637   4.870
 4388SOL    HW215004   8.557   1.761   4.782
 4389SOL     OW15005  12.838  12.127   0.499
 4389SOL    HW115006  12.893  12.114   0.576
 4389SOL    HW215007  12.884  12.194   0.448
 4390SOL     OW15008  14.871   4.991  11.959
 4390SOL    HW115009  14.849   4.957  11.872
 4390SOL    HW215010  14.786   5.000  12.003
 4391SOL     OW15011   5.723  11.323   6.696
 4391SOL    HW115012   5.804  11.283   6.728
 4391SOL    HW215013   5.732  11.323   6.601
 4392SOL     OW15014   4.066   7.113  12.039
 4392SOL    HW115015   4.160   7.131  12.039
 4392SOL    HW215016   4.039   7.127  12.129
 4393SOL     OW15017   4.620  13.972   9.441
 4393SOL    HW115018   4.554  13.918   9.484
 4393SOL    HW215019   4.651  14.031   9.509
 4394SOL     OW15020   7.065  11.673   4.353
 4394SOL    HW115021   7.048  11.757   4.396
 4394SOL    HW215022   6.986  11.657   4.300
 4395SOL     OW15023   5.693   7.494   2.515
 4395SOL    HW115024   5.657   7.549   2.445
 4395SOL    HW215025   5.618   7.448   2.551
 4396SOL     OW15026  14.347   2.665   9.443
 4396SOL    HW115027  14.274   2.616   9.405
 4396SOL    HW215028  14.307   2.747   9.474
 4397SOL     OW15029   3.309   6.580   1.484
 4397SOL    HW115030   3.318   6.552   1.575
 4397SOL    HW215031   3.389   6.630   1.467
 4398SOL     OW15032   6.162   5.406   8.817
 4398SOL    HW115033   6.069   5.408   8.840
 4398SOL    HW215034   6.207   5.402   8.901
 4399SOL     OW15035  10.354   2.487  13.716
 4399SOL    HW115036  10.418   2.455  13.779
 4399SOL    HW215037  10.407   2.525  13.646
 4400SOL     OW15038  13.216   3.983  10.111
 4400SOL    HW115039  13.235   4.035  10.189
 4400SOL    HW215040  13.137   3.934  10.133
 4401SOL     OW15041   0.948  10.489   1.479
 4401SOL    HW115042   1.026  10.460   1.431
 4401SOL    HW215043   0.947  10.584   1.469
 4402SOL     OW15044   5.778  12.553  12.757
 4402SOL    HW115045   5.777  12.578  12.850
 4402SOL    HW215046   5.694  12.582  12.723
 4403SOL     OW15047   1.774   6.758   4.319
 4403SOL    HW115048   1.789   6.790   4.407
 4403SOL    HW215049   1.739   6.669   4.331
 4404SOL     OW15050   4.709  12.035   2.693
 4404SOL    HW115051   4.760  11.970   2.740
 4404SOL    HW215052   4.665  12.086   2.761
 4405SOL     OW15053  14.520   4.056   4.185
 4405SOL    HW115054  14.519   4.150   4.203
 4405SOL    HW215055  14.461   4.019   4.251
 4406SOL     OW15056   8.390   9.986   9.164
 4406SOL    HW115057   8.410   9.955   9.076
 4406SOL    HW215058   8.294   9.990   9.166
 4407SOL     OW15059  10.545  12.646   6.974
 4407SOL    HW115060  10.530  12.589   6.898
 4407SOL    HW215061  10.528  12.590   7.049
 4408SOL     OW15062  13.866   8.382   9.217
 4408SOL    HW115063  13.858   8.330   9.137
 4408SOL    HW215064  13.905   8.465   9.189
 4409SOL     OW15065  11.029   0.314  10.998
 4409SOL    HW115066  11.066   0.385  11.052
 4409SOL    HW215067  10.939   0.306  11.028
 4410SOL     OW15068   2.846  12.751  10.049
 4410SOL    HW115069   2.900  12.681  10.084
 4410SOL    HW215070   2.867  12.753   9.956
 4411SOL     OW15071   6.081   0.800   3.166
 4411SOL    HW115072   6.052   0.867   3.228
 4411SOL    HW215073   6.173   0.823   3.148
 4412SOL     OW15074   3.161   5.979   8.580
 4412SOL    HW115075   3.227   6.046   8.598
 4412SOL    HW215076   3.090   6.026   8.536
 4413SOL     OW15077  12.276  13.493   6.724
 4413SOL    HW115078  12.302  13.406   6.695
 4413SOL    HW215079  12.332  13.552   6.673
 4414SOL     OW15080   7.978   3.418   6.922
 4414SOL    HW115081   7.996   3.459   7.007
 4414SOL    HW215082   7.885   3.395   6.926
 4415SOL     OW15083   1.496   3.795   4.366
 4415SOL    HW115084   1.538   3.713   4.339
 4415SOL    HW215085   1.563   3.840   4.418
 4416SOL     OW15086  11.188   0.877   7.164
 4416SOL    HW115087  11.155   0.957   7.205
 4416SOL    HW215088  11.133   0.807   7.200
 4417SOL     OW15089   8.218   4.973  11.586
 4417SOL    HW115090   8.307   4.948  11.560
 4417SOL    HW215091   8.226   5.065  11.612
 4418SOL     OW15092   0.740   8.261  13.470
 4418SOL    HW115093   0.768   8.259  13.561
 4418SOL    HW215094   0.721   8.354  13.453
 4419SOL     OW15095   3.247   2.183   1.942
 4419SOL    HW115096   3.205   2.132   1.873
 4419SOL    HW215097   3.211   2.271   1.931
 4420SOL     OW15098  12.524  11.611  13.667
 4420SOL    HW115099  12.432  11.636  13.662
 4420SOL    HW215100  12.562  11.644  13.586
 4421SOL     OW15101   4.714   3.803   6.084
 4421SOL    HW115102   4.686   3.838   5.999
 4421SOL    HW215103   4.638   3.756   6.118
 4422SOL     OW15104  10.832   6.964  14.629
 4422SOL    HW115105  10.916   6.927  14.603
 4422SOL    HW215106  10.779   6.962  14.549
 4423SOL     OW15107   4.411   0.590  12.018
 4423SOL    HW115108   4.343   0.529  11.991
 4423SOL    HW215109   4.366   0.674  12.030
 4424SOL     OW15110   7.743   0.080   8.791
 4424SOL    HW115111   7.752  14.862   8.781
 4424SOL    HW215112   7.773   0.116   8.708
 4425SOL     OW15113   4.962   7.873   4.373
 4425SOL    HW115114   4.994   7.798   4.324
 4425SOL    HW215115   4.888   7.905   4.322
 4426SOL     OW15116   8.022   0.111   7.458
 4426SOL    HW115117   7.990   0.065   7.380
 4426SOL    HW215118   7.970   0.191   7.461
 4427SOL     OW15119  11.979   6.586   7.692
 4427SOL    HW115120  11.912   6.650   7.669
 4427SOL    HW215121  11.933   6.502   7.692
 4428SOL     OW15122   0.045   7.369  13.479
 4428SOL    HW115123   0.005   7.450  13.511
 4428SOL    HW215124   0.068   7.320  13.558
 4429SOL     OW15125   7.073   8.522   3.335
 4429SOL    HW115126   7.035   8.527   3.247
 4429SOL    HW215127   7.022   8.454   3.378
 4430SOL     OW15128   4.853  14.258   6.170
 4430SOL    HW115129   4.858  14.184   6.109
 4430SOL    HW215130   4.804  14.325   6.123
 4431SOL     OW15131   3.387   6.965   5.193
 4431SOL    HW115132   3.475   6.997   5.215
 4431SOL    HW215133   3.403   6.896   5.128
 4432SOL     OW15134   7.400  13.438   8.374
 4432SOL    HW115135   7.485  13.481   8.376
 4432SOL    HW215136   7.380  13.420   8.466
 4433SOL     OW15137   0.332  13.017   5.509
 4433SOL    HW115138   0.275  12.947   5.539
 4433SOL    HW215139   0.389  13.036   5.584
 4434SOL     OW15140   4.828  13.650   2.965
 4434SOL    HW115141   4.777  13.577   3.000
 4434SOL    HW215142   4.781  13.677   2.886
 4435SOL     OW15143   6.217  12.771   9.807
 4435SOL    HW115144   6.276  12.738   9.875
 4435SOL    HW215145   6.272  12.774   9.728
 4436SOL     OW15146   7.389   5.417  11.319
 4436SOL    HW115147   7.326   5.407  11.248
 4436SOL    HW215148   7.338   5.451  11.393
 4437SOL     OW15149   1.916   9.813  10.978
 4437SOL    HW115150   1.969   9.796  10.900
 4437SOL    HW215151   1.922   9.732  11.029
 4438SOL     OW15152  10.915   9.003   3.404
 4438SOL    HW115153  10.976   9.016   3.476
 4438SOL    HW215154  10.841   9.061   3.425
 4439SOL     OW15155   2.235   7.246   2.554
 4439SOL    HW115156   2.253   7.213   2.642
 4439SOL    HW215157   2.254   7.340   2.558
 4440SOL     OW15158  11.589   6.302   3.985
 4440SOL    HW115159  11.682   6.300   4.008
 4440SOL    HW215160  11.579   6.229   3.924
 4441SOL     OW15161   8.553   9.872  13.975
 4441SOL    HW115162   8.565   9.777  13.980
 4441SOL    HW215163   8.499   9.893  14.051
 4442SOL     OW15164   1.352   8.556   9.290
 4442SOL    HW115165   1.353   8.638   9.241
 4442SOL    HW215166   1.414   8.569   9.361
 4443SOL     OW15167   5.571  10.089  12.512
 4443SOL    HW115168   5.505  10.034  12.555
 4443SOL    HW215169   5.544  10.091  12.420
 4444SOL     OW15170  12.048   6.187  13.108
 4444SOL    HW115171  12.107   6.186  13.183
 4444SOL    HW215172  12.103   6.164  13.034
 4445SOL     OW15173   0.652   4.393  12.606
 4445SOL    HW115174   0.666   4.298  12.607
 4445SOL    HW215175   0.722   4.428  12.662
 4446SOL     OW15176   7.986   0.598   4.360
 4446SOL    HW115177   7.924   0.550   4.415
 4446SOL    HW215178   7.997   0.683   4.403
 4447SOL     OW15179   9.753   8.859  10.175
 4447SOL    HW115180   9.795   8.926  10.121
 4447SOL    HW215181   9.779   8.776  10.134
 4448SOL     OW15182  10.173  13.269   9.830
 4448SOL    HW115183  10.132  13.279   9.916
 4448SOL    HW215184  10.249  13.327   9.832
 4449SOL     OW15185  13.429   2.134   0.040
 4449SOL    HW115186  13.442   2.210   0.098
 4449SOL    HW215187  13.440   2.170  14.828
 4450SOL     OW15188   5.552   0.959   8.167
 4450SOL    HW115189   5.576   1.039   8.120
 4450SOL    HW215190   5.530   0.988   8.255
 4451SOL     OW15191   5.514  10.633   7.383
 4451SOL    HW115192   5.502  10.542   7.413
 4451SOL    HW215193   5.535  10.625   7.290
 4452SOL     OW15194   1.695   1.344  11.015
 4452SOL    HW115195   1.669   1.358  10.924
 4452SOL    HW215196   1.726   1.429  11.045
 4453SOL     OW15197   0.335   0.930   2.997
 4453SOL    HW115198   0.363   0.938   2.906
 4453SOL    HW215199   0.246   0.895   2.991
 4454SOL     OW15200   7.669   6.812   7.188
 4454SOL    HW115201   7.728   6.772   7.124
 4454SOL    HW215202   7.624   6.881   7.139
 4455SOL     OW15203   2.576   4.545   7.346
 4455SOL    HW115204   2.604   4.624   7.392
 4455SOL    HW215205   2.636   4.477   7.375
 4456SOL     OW15206   5.743   8.733   1.864
 4456SOL    HW115207   5.763   8.817   1.904
 4456SOL    HW215208   5.721   8.676   1.938
 4457SOL     OW15209  10.224   0.494   0.459
 4457SOL    HW115210  10.266   0.549   0.525
 4457SOL    HW215211  10.143   0.464   0.500
 4458SOL     OW15212   3.949   6.350  11.942
 4458SOL    HW115213   3.901   6.413  11.888
 4458SOL    HW215214   3.885   6.322  12.008
 4459SOL     OW15215   1.222  13.759  14.453
 4459SOL    HW115216   1.314  13.744  14.432
 4459SOL    HW215217   1.223  13.819  14.527
 4460SOL     OW15218   4.949  11.695   0.094
 4460SOL    HW115219   5.015  11.721   0.030
 4460SOL    HW215220   4.875  11.753   0.077
 4461SOL     OW15221   0.076   4.663   3.865
 4461SOL    HW115222   0.009   4.638   3.929
 4461SOL    HW215223   0.126   4.732   3.910
 4462SOL     OW15224   1.814   7.489   4.208
 4462SOL    HW115225   1.894   7.437   4.204
 4462SOL    HW215226   1.813   7.525   4.297
 4463SOL     OW15227  10.583  13.094  13.245
 4463SOL    HW115228  10.618  13.030  13.184
 4463SOL    HW215229  10.604  13.059  13.332
 4464SOL     OW15230  14.549   2.587   9.875
 4464SOL    HW115231  14.527   2.679   9.892
 4464SOL    HW215232  14.468   2.549   9.842
 4465SOL     OW15233   3.877  10.312   4.473
 4465SOL    HW115234   3.930  10.233   4.465
 4465SOL    HW215235   3.821  10.296   4.549
 4466SOL     OW15236   3.269   2.021  14.133
 4466SOL    HW115237   3.337   2.025  14.200
 4466SOL    HW215238   3.270   2.108  14.093
 4467SOL     OW15239   0.796  12.414   8.172
 4467SOL    HW115240   0.746  12.339   8.141
 4467SOL    HW215241   0.873  12.418   8.115
 4468SOL     OW15242   9.965  14.230   5.372
 4468SOL    HW115243  10.050  14.200   5.340
 4468SOL    HW215244   9.912  14.151   5.376
 4469SOL     OW15245   1.695  13.936  14.516
 4469SOL    HW115246   1.785  13.959  14.496
 4469SOL    HW215247   1.642  14.005  14.476
 4470SOL     OW15248   4.330   7.811   6.785
 4470SOL    HW115249   4.271   7.812   6.861
 4470SOL    HW215250   4.285   7.754   6.722
 4471SOL     OW15251   5.425   0.772  13.443
 4471SOL    HW115252   5.498   0.756  13.503
 4471SOL    HW215253   5.414   0.689  13.396
 4472SOL     OW15254   1.616   6.629   2.173
 4472SOL    HW115255   1.614   6.537   2.147
 4472SOL    HW215256   1.570   6.675   2.102
 4473SOL     OW15257   7.514   3.112   0.224
 4473SOL    HW115258   7.579   3.044   0.207
 4473SOL    HW215259   7.551   3.192   0.187
 4474SOL     OW15260   7.487   5.896   0.695
 4474SOL    HW115261   7.523   5.875   0.780
 4474SOL    HW215262   7.396   5.921   0.713
 4475SOL     OW15263   9.882   0.172   9.735
 4475SOL    HW115264   9.900   0.263   9.759
 4475SOL    HW215265   9.790   0.159   9.759
 4476SOL     OW15266   8.855  13.403   3.192
 4476SOL    HW115267   8.778  13.442   3.151
 4476SOL    HW215268   8.836  13.405   3.285
 4477SOL     OW15269   6.609   7.720   1.334
 4477SOL    HW115270   6.610   7.757   1.422
 4477SOL    HW215271   6.598   7.795   1.275
 4478SOL     OW15272  11.612   1.715  13.300
 4478SOL    HW115273  11.536   1.723  13.242
 4478SOL    HW215274  11.578   1.737  13.386
 4479SOL     OW15275  13.295  11.507   4.670
 4479SOL    HW115276  13.329  11.590   4.637
 4479SOL    HW215277  13.246  11.531   4.748
 4480SOL     OW15278   2.058  10.429   7.025
 4480SOL    HW115279   2.015  10.452   7.107
 4480SOL    HW215280   1.991  10.383   6.974
 4481SOL     OW15281   6.290   0.181   4.001
 4481SOL    HW115282   6.232   0.222   3.936
 4481SOL    HW215283   6.260   0.216   4.085
 4482SOL     OW15284  12.624   4.472  12.050
 4482SOL    HW115285  12.689   4.435  11.991
 4482SOL    HW215286  12.662   4.463  12.137
 4483SOL     OW15287  11.877   0.945  13.181
 4483SOL    HW115288  11.863   1.017  13.120
 4483SOL    HW215289  11.884   0.987  13.267
 4484SOL     OW15290   9.396   0.323   4.554
 4484SOL    HW115291   9.339   0.372   4.613
 4484SOL    HW215292   9.481   0.367   4.561
 4485SOL     OW15293   1.560  11.188   2.431
 4485SOL    HW115294   1.638  11.157   2.386
 4485SOL    HW215295   1.537  11.269   2.386
 4486SOL     OW15296   6.843   9.963   9.899
 4486SOL    HW115297   6.915  10.011   9.940
 4486SOL    HW215298   6.816   9.899   9.964
 4487SOL     OW15299   9.503   1.858   4.259
 4487SOL    HW115300   9.527   1.782   4.205
 4487SOL    HW215301   9.556   1.848   4.338
 4488SOL     OW15302  10.086  12.499   9.315
 4488SOL    HW115303  10.120  12.524   9.229
 4488SOL    HW215304  10.151  12.533   9.377
 4489SOL     OW15305  13.908   5.944   6.317
 4489SOL    HW115306  13.999   5.919   6.332
 4489SOL    HW215307  13.911   6.000   6.239
 4490SOL     OW15308  11.017   0.580   1.354
 4490SOL    HW115309  10.971   0.496   1.361
 4490SOL    HW215310  10.951   0.641   1.322
 4491SOL     OW15311   4.734   8.877  12.093
 4491SOL    HW115312   4.655   8.841  12.053
 4491SOL    HW215313   4.789   8.800  12.110
 4492SOL     OW15314  12.921   1.115   1.512
 4492SOL    HW115315  12.961   1.034   1.481
 4492SOL    HW215316  12.980   1.184   1.481
 4493SOL     OW15317   0.023   5.020   5.480
 4493SOL    HW115318   0.102   4.966   5.476
 4493SOL    HW215319   0.025   5.058   5.568
 4494SOL     OW15320  10.045  10.395  11.440
 4494SOL    HW115321   9.952  10.389  11.462
 4494SOL    HW215322  10.058  10.487  11.416
 4495SOL     OW15323   7.074   9.385   9.751
 4495SOL    HW115324   7.151   9.442   9.746
 4495SOL    HW215325   7.098   9.318   9.815
 4496SOL     OW15326  12.676   6.160   9.936
 4496SOL    HW115327  12.597   6.178   9.987
 4496SOL    HW215328  12.647   6.102   9.866
 4497SOL     OW15329   3.700  13.213   6.171
 4497SOL    HW115330   3.760  13.279   6.205
 4497SOL    HW215331   3.714  13.136   6.227
 4498SOL     OW15332   0.730   5.120   3.465
 4498SOL    HW115333   0.782   5.196   3.492
 4498SOL    HW215334   0.791   5.046   3.471
 4499SOL     OW15335  13.764   4.300   6.154
 4499SOL    HW115336  13.835   4.236   6.142
 4499SOL    HW215337  13.742   4.328   6.065
 4500SOL     OW15338   5.159   0.690   5.519
 4500SOL    HW115339   5.071   0.719   5.496
 4500SOL    HW215340   5.214   0.767   5.505
 4501SOL     OW15341   4.034   7.231   9.132
 4501SOL    HW115342   4.128   7.219   9.117
 4501SOL    HW215343   4.004   7.284   9.058
 4502SOL     OW15344  14.308   2.238   9.127
 4502SOL    HW115345  14.267   2.153   9.141
 4502SOL    HW215346  14.310   2.278   9.214
 4503SOL     OW15347   7.321   5.154   0.340
 4503SOL    HW115348   7.350   5.067   0.366
 4503SOL    HW215349   7.387   5.184   0.278
 4504SOL     OW15350  12.601   9.110   4.728
 4504SOL    HW115351  12.571   9.201   4.735
 4504SOL    HW215352  12.640   9.104   4.640
 4505SOL     OW15353  11.570   8.451   7.253
 4505SOL    HW115354  11.485   8.441   7.210
 4505SOL    HW215355  11.633   8.419   7.189
 4506SOL     OW15356  14.545  12.228   8.643
 4506SOL    HW115357  14.491  12.168   8.593
 4506SOL    HW215358  14.587  12.284   8.577
 4507SOL     OW15359   4.462   1.257   4.088
 4507SOL    HW115360   4.415   1.285   4.010
 4507SOL    HW215361   4.438   1.165   4.099
 4508SOL     OW15362   0.995  14.041   1.609
 4508SOL    HW115363   0.934  14.052   1.683
 4508SOL    HW215364   0.973  13.954   1.574
 4509SOL     OW15365   3.139  11.082  10.498
 4509SOL    HW115366   3.139  11.137  10.419
 4509SOL    HW215367   3.047  11.073  10.521
 4510SOL     OW15368  10.848   3.723   1.208
 4510SOL    HW115369  10.894   3.766   1.280
 4510SOL    HW215370  10.835   3.633   1.238
 4511SOL     OW15371  12.720   4.029  13.843
 4511SOL    HW115372  12.796   4.080  13.872
 4511SOL    HW215373  12.670   4.013  13.923
 4512SOL     OW15374   6.406   3.979  13.426
 4512SOL    HW115375   6.322   4.021  13.407
 4512SOL    HW215376   6.406   3.967  13.521
 4513SOL     OW15377  14.749   9.211   9.069
 4513SOL    HW115378  14.753   9.266   9.147
 4513SOL    HW215379  14.787   9.127   9.096
 4514SOL     OW15380   9.265  10.087  13.271
 4514SOL    HW115381   9.249  10.178  13.296
 4514SOL    HW215382   9.214  10.075  13.191
 4515SOL     OW15383   2.756   6.207   2.167
 4515SOL    HW115384   2.795   6.230   2.251
 4515SOL    HW215385   2.825   6.161   2.120
 4516SOL     OW15386   9.025   5.032   2.127
 4516SOL    HW115387   9.062   5.110   2.085
 4516SOL    HW215388   8.939   5.021   2.084
 4517SOL     OW15389   1.287  13.795  12.775
 4517SOL    HW115390   1.279  13.882  12.736
 4517SOL    HW215391   1.275  13.810  12.869
 4518SOL     OW15392   8.895   2.943  14.464
 4518SOL    HW115393   8.816   2.896  14.435
 4518SOL    HW215394   8.947   2.876  14.509
 4519SOL     OW15395   1.687  14.559  14.831
 4519SOL    HW115396   1.733  14.609   0.022
 4519SOL    HW215397   1.617  14.514   0.002
 4520SOL     OW15398   2.849  12.918   7.252
 4520SOL    HW115399   2.812  12.998   7.289
 4520SOL    HW215400   2.788  12.849   7.277
 4521SOL     OW15401   9.162   3.660   1.315
 4521SOL    HW115402   9.161   3.577   1.364
 4521SOL    HW215403   9.102   3.645   1.242
 4522SOL     OW15404   4.425   8.122  13.450
 4522SOL    HW115405   4.503   8.177  13.462
 4522SOL    HW215406   4.460   8.036  13.424
 4523SOL     OW15407   1.356   6.681  12.664
 4523SOL    HW115408   1.405   6.763  12.673
 4523SOL    HW215409   1.420   6.619  12.630
 4524SOL     OW15410   4.011   7.205   7.343
 4524SOL    HW115411   3.966   7.190   7.259
 4524SOL    HW215412   4.025   7.118   7.379
 4525SOL     OW15413   8.197   7.521  14.194
 4525SOL    HW115414   8.232   7.447  14.145
 4525SOL    HW215415   8.120   7.548  14.145
 4526SOL     OW15416   9.932  11.099   4.283
 4526SOL    HW115417   9.897  11.022   4.326
 4526SOL    HW215418  10.010  11.122   4.334
 4527SOL     OW15419   6.221   7.099  11.781
 4527SOL    HW115420   6.146   7.158  11.776
 4527SOL    HW215421   6.296   7.154  11.760
 4528SOL     OW15422   0.484  14.710   9.555
 4528SOL    HW115423   0.515  14.637   9.608
 4528SOL    HW215424   0.538  14.785   9.582
 4529SOL     OW15425  10.444  11.712   8.641
 4529SOL    HW115426  10.448  11.627   8.597
 4529SOL    HW215427  10.460  11.693   8.733
 4530SOL     OW15428   4.214   6.608   7.437
 4530SOL    HW115429   4.246   6.691   7.403
 4530SOL    HW215430   4.254   6.541   7.381
 4531SOL     OW15431   9.829   5.029  14.218
 4531SOL    HW115432   9.735   5.019  14.209
 4531SOL    HW215433   9.866   4.988  14.140
 4532SOL     OW15434   8.276   5.510  13.246
 4532SOL    HW115435   8.232   5.471  13.170
 4532SOL    HW215436   8.347   5.562  13.209
 4533SOL     OW15437  12.320   8.879   1.747
 4533SOL    HW115438  12.271   8.797   1.739
 4533SOL    HW215439  12.302   8.909   1.836
 4534SOL     OW15440  12.456  14.645   0.604
 4534SOL    HW115441  12.527  14.628   0.666
 4534SOL    HW215442  12.499  14.649   0.519
 4535SOL     OW15443   9.141   4.407  12.703
 4535SOL    HW115444   9.176   4.371  12.621
 4535SOL    HW215445   9.053   4.436  12.680
 4536SOL     OW15446  13.686  11.028   4.691
 4536SOL    HW115447  13.697  10.977   4.771
 4536SOL    HW215448  13.767  11.014   4.642
 4537SOL     OW15449   5.068  11.127   4.525
 4537SOL    HW115450   5.155  11.151   4.559
 4537SOL    HW215451   5.068  11.159   4.435
 4538SOL     OW15452   8.522   1.525   9.807
 4538SOL    HW115453   8.461   1.536   9.881
 4538SOL    HW215454   8.604   1.497   9.849
 4539SOL     OW15455   3.579   8.365  13.217
 4539SOL    HW115456   3.539   8.283  13.246
 4539SOL    HW215457   3.642   8.387  13.286
 4540SOL     OW15458   2.922  10.552  10.525
 4540SOL    HW115459   2.975  10.473  10.514
 4540SOL    HW215460   2.841  10.532  10.479
 4541SOL     OW15461  11.819   5.345  14.301
 4541SOL    HW115462  11.751   5.295  14.345
 4541SOL    HW215463  11.815   5.317  14.210
 4542SOL     OW15464   0.389   5.848   3.645
 4542SOL    HW115465   0.465   5.800   3.677
 4542SOL    HW215466   0.316   5.814   3.697
 4543SOL     OW15467   6.751  13.704  10.438
 4543SOL    HW115468   6.816  13.766  10.403
 4543SOL    HW215469   6.667  13.738  10.407
 4544SOL     OW15470   7.357   2.564   2.560
 4544SOL    HW115471   7.266   2.535   2.567
 4544SOL    HW215472   7.395   2.506   2.493
 4545SOL     OW15473   6.069   1.976   0.809
 4545SOL    HW115474   6.092   2.009   0.896
 4545SOL    HW215475   5.975   1.961   0.813
 4546SOL     OW15476   8.712  11.167   2.253
 4546SOL    HW115477   8.785  11.123   2.208
 4546SOL    HW215478   8.639  11.105   2.246
 4547SOL     OW15479   8.468   6.601   7.900
 4547SOL    HW115480   8.397   6.577   7.841
 4547SOL    HW215481   8.438   6.575   7.987
 4548SOL     OW15482  12.496  11.779   6.382
 4548SOL    HW115483  12.430  11.720   6.345
 4548SOL    HW215484  12.468  11.792   6.472
 4549SOL     OW15485   7.004   7.549   6.169
 4549SOL    HW115486   7.079   7.577   6.117
 4549SOL    HW215487   7.009   7.600   6.249
 4550SOL     OW15488   1.226   5.675   0.141
 4550SOL    HW115489   1.169   5.609   0.181
 4550SOL    HW215490   1.199   5.678   0.049
 4551SOL     OW15491  13.656   3.421  10.284
 4551SOL    HW115492  13.563   3.400  10.293
 4551SOL    HW215493  13.700   3.347  10.325
 4552SOL     OW15494   6.700   7.356   9.883
 4552SOL    HW115495   6.738   7.358   9.795
 4552SOL    HW215496   6.629   7.421   9.879
 4553SOL     OW15497   7.862  14.058  10.933
 4553SOL    HW115498   7.915  14.092  11.005
 4553SOL    HW215499   7.909  14.086  10.854
 4554SOL     OW15500   8.617   1.448   2.442
 4554SOL    HW115501   8.570   1.531   2.434
 4554SOL    HW215502   8.704   1.465   2.405
 4555SOL     OW15503  13.916  14.475   6.572
 4555SOL    HW115504  13.985  14.443   6.631
 4555SOL    HW215505  13.964  14.510   6.497
 4556SOL     OW15506   9.147   9.755   2.229
 4556SOL    HW115507   9.228   9.766   2.281
 4556SOL    HW215508   9.116   9.844   2.215
 4557SOL     OW15509   2.815   1.571  14.583
 4557SOL    HW115510   2.885   1.507  14.597
 4557SOL    HW215511   2.816   1.626  14.661
 4558SOL     OW15512   3.969  12.289   4.033
 4558SOL    HW115513   3.878  12.313   4.055
 4558SOL    HW215514   4.021  12.325   4.105
 4559SOL     OW15515  12.268  12.526  11.234
 4559SOL    HW115516  12.196  12.466  11.212
 4559SOL    HW215517  12.295  12.562  11.149
 4560SOL     OW15518   8.723   7.891   1.716
 4560SOL    HW115519   8.684   7.805   1.702
 4560SOL    HW215520   8.682   7.947   1.650
 4561SOL     OW15521  13.406   8.420   3.302
 4561SOL    HW115522  13.486   8.388   3.344
 4561SOL    HW215523  13.363   8.474   3.369
 4562SOL     OW15524  14.008   6.641   3.592
 4562SOL    HW115525  13.989   6.584   3.517
 4562SOL    HW215526  13.984   6.728   3.562
 4563SOL     OW15527  11.582  11.997   7.948
 4563SOL    HW115528  11.616  11.948   8.023
 4563SOL    HW215529  11.522  11.936   7.905
 4564SOL     OW15530   9.300   6.029   9.249
 4564SOL    HW115531   9.257   6.078   9.319
 4564SOL    HW215532   9.229   5.979   9.208
 4565SOL     OW15533  14.268   5.258   6.894
 4565SOL    HW115534  14.342   5.234   6.838
 4565SOL    HW215535  14.297   5.336   6.940
 4566SOL     OW15536   8.773   1.570   5.646
 4566SOL    HW115537   8.842   1.504   5.643
 4566SOL    HW215538   8.813   1.644   5.692
 4567SOL     OW15539  12.676  10.254   0.832
 4567SOL    HW115540  12.627  10.198   0.892
 4567SOL    HW215541  12.689  10.336   0.880
 4568SOL     OW15542   2.973   5.428   5.560
 4568SOL    HW115543   2.984   5.386   5.645
 4568SOL    HW215544   3.062   5.449   5.531
 4569SOL     OW15545   0.272   2.923   0.550
 4569SOL    HW115546   0.211   2.858   0.585
 4569SOL    HW215547   0.215   2.990   0.511
 4570SOL     OW15548   0.889   2.815  12.835
 4570SOL    HW115549   0.851   2.853  12.914
 4570SOL    HW215550   0.973   2.859  12.825
 4571SOL     OW15551  14.733   6.769  14.569
 4571SOL    HW115552  14.756   6.723  14.649
 4571SOL    HW215553  14.638   6.759  14.561
 4572SOL     OW15554   8.509   7.257  12.605
 4572SOL    HW115555   8.462   7.180  12.571
 4572SOL    HW215556   8.580   7.220  12.658
 4573SOL     OW15557   1.322   5.413   2.002
 4573SOL    HW115558   1.345   5.333   1.956
 4573SOL    HW215559   1.329   5.390   2.095
 4574SOL     OW15560   1.225   3.084   7.764
 4574SOL    HW115561   1.154   3.148   7.759
 4574SOL    HW215562   1.304   3.137   7.764
 4575SOL     OW15563  14.830   6.234   9.556
 4575SOL    HW115564   0.001   6.263   9.479
 4575SOL    HW215565  14.748   6.284   9.554
 4576SOL     OW15566   3.973   2.548   8.607
 4576SOL    HW115567   3.880   2.532   8.621
 4576SOL    HW215568   3.976   2.631   8.559
 4577SOL     OW15569  11.828   4.434   5.211
 4577SOL    HW115570  11.803   4.360   5.157
 4577SOL    HW215571  11.772   4.506   5.180
 4578SOL     OW15572   2.554   0.428  12.338
 4578SOL    HW115573   2.557   0.519  12.365
 4578SOL    HW215574   2.466   0.398  12.364
 4579SOL     OW15575   8.669   9.171  12.836
 4579SOL    HW115576   8.649   9.083  12.868
 4579SOL    HW215577   8.586   9.204  12.803
 4580SOL     OW15578   3.534   1.533   8.001
 4580SOL    HW115579   3.463   1.509   8.060
 4580SOL    HW215580   3.493   1.535   7.914
 4581SOL     OW15581  10.960   0.992   0.584
 4581SOL    HW115582  10.892   0.998   0.517
 4581SOL    HW215583  10.977   1.083   0.609
 4582SOL     OW15584   8.564   8.203  13.503
 4582SOL    HW115585   8.658   8.192  13.497
 4582SOL    HW215586   8.548   8.223  13.596
 4583SOL     OW15587   4.876  11.438   1.092
 4583SOL    HW115588   4.874  11.481   1.177
 4583SOL    HW215589   4.951  11.477   1.047
 4584SOL     OW15590   4.187   1.970   2.515
 4584SOL    HW115591   4.119   1.939   2.574
 4584SOL    HW215592   4.251   1.898   2.512
 4585SOL     OW15593  13.380   1.962   6.763
 4585SOL    HW115594  13.337   2.034   6.810
 4585SOL    HW215595  13.413   2.002   6.683
 4586SOL     OW15596   9.508   7.340   0.692
 4586SOL    HW115597   9.461   7.403   0.637
 4586SOL    HW215598   9.548   7.394   0.761
 4587SOL     OW15599   9.514  11.979  14.413
 4587SOL    HW115600   9.595  11.933  14.434
 4587SOL    HW215601   9.504  12.043  14.484
 4588SOL     OW15602   2.668   4.728   2.830
 4588SOL    HW115603   2.674   4.655   2.770
 4588SOL    HW215604   2.609   4.698   2.899
 4589SOL     OW15605   6.223   6.613   1.424
 4589SOL    HW115606   6.284   6.652   1.361
 4589SOL    HW215607   6.231   6.519   1.409
 4590SOL     OW15608   8.212   3.683  11.696
 4590SOL    HW115609   8.276   3.710  11.630
 4590SOL    HW215610   8.236   3.592  11.716
 4591SOL     OW15611  12.118   6.353  12.328
 4591SOL    HW115612  12.139   6.270  12.371
 4591SOL    HW215613  12.039   6.383  12.372
 4592SOL     OW15614   0.062  14.148   7.650
 4592SOL    HW115615   0.017  14.225   7.614
 4592SOL    HW215616   0.021  14.135   7.735
 4593SOL     OW15617   0.419   3.951   7.353
 4593SOL    HW115618   0.344   3.892   7.340
 4593SOL    HW215619   0.409   4.017   7.285
 4594SOL     OW15620   8.607   8.895  10.687
 4594SOL    HW115621   8.628   8.964  10.751
 4594SOL    HW215622   8.552   8.834  10.736
 4595SOL     OW15623  14.201  13.084  14.510
 4595SOL    HW115624  14.174  13.133  14.433
 4595SOL    HW215625  14.294  13.068  14.497
 4596SOL     OW15626   3.599  11.752  13.929
 4596SOL    HW115627   3.630  11.662  13.938
 4596SOL    HW215628   3.513  11.744  13.888
 4597SOL     OW15629  10.092  13.037   8.768
 4597SOL    HW115630  10.156  13.013   8.700
 4597SOL    HW215631  10.146  13.063   8.842
 4598SOL     OW15632  14.236   2.928   8.055
 4598SOL    HW115633  14.215   2.995   7.991
 4598SOL    HW215634  14.166   2.864   8.047
 4599SOL     OW15635   3.863   2.294   7.323
 4599SOL    HW115636   3.805   2.330   7.257
 4599SOL    HW215637   3.831   2.204   7.337
 4600SOL     OW15638   6.234   2.120   5.843
 4600SOL    HW115639   6.210   2.132   5.751
 4600SOL    HW215640   6.319   2.164   5.851
 4601SOL     OW15641  10.011  14.552   5.388
 4601SOL    HW115642   9.952  14.508   5.449
 4601SOL    HW215643  10.053  14.481   5.339
 4602SOL     OW15644   2.609   8.760  10.344
 4602SOL    HW115645   2.572   8.724  10.263
 4602SOL    HW215646   2.624   8.683  10.400
 4603SOL     OW15647  11.614   6.281   0.566
 4603SOL    HW115648  11.661   6.278   0.650
 4603SOL    HW215649  11.522   6.270   0.590
 4604SOL     OW15650  12.703   1.227  10.789
 4604SOL    HW115651  12.734   1.233  10.879
 4604SOL    HW215652  12.751   1.296  10.743
 4605SOL     OW15653   3.393   4.491   6.606
 4605SOL    HW115654   3.406   4.583   6.582
 4605SOL    HW215655   3.407   4.490   6.701
 4606SOL     OW15656   4.410   7.296   0.833
 4606SOL    HW115657   4.486   7.353   0.831
 4606SOL    HW215658   4.337   7.355   0.855
 4607SOL     OW15659  10.278   4.902  12.885
 4607SOL    HW115660  10.352   4.903  12.946
 4607SOL    HW215661  10.304   4.839  12.817
 4608SOL     OW15662  10.460  10.832  13.955
 4608SOL    HW115663  10.406  10.769  14.002
 4608SOL    HW215664  10.529  10.856  14.016
 4609SOL     OW15665   8.773   3.478   8.294
 4609SOL    HW115666   8.841   3.467   8.227
 4609SOL    HW215667   8.746   3.569   8.286
 4610SOL     OW15668   9.737   4.257   5.779
 4610SOL    HW115669   9.803   4.268   5.711
 4610SOL    HW215670   9.672   4.198   5.741
 4611SOL     OW15671  12.519  14.522  13.390
 4611SOL    HW115672  12.531  14.590  13.456
 4611SOL    HW215673  12.500  14.571  13.310
 4612SOL     OW15674   1.933   9.697  13.393
 4612SOL    HW115675   1.999   9.629  13.381
 4612SOL    HW215676   1.983   9.779  13.393
 4613SOL     OW15677   4.334  10.660  11.638
 4613SOL    HW115678   4.309  10.744  11.675
 4613SOL    HW215679   4.397  10.682  11.569
 4614SOL     OW15680   2.109  10.716  12.459
 4614SOL    HW115681   2.166  10.645  12.430
 4614SOL    HW215682   2.020  10.681  12.451
 4615SOL     OW15683   5.200  14.230   8.005
 4615SOL    HW115684   5.246  14.175   7.941
 4615SOL    HW215685   5.269  14.286   8.042
 4616SOL     OW15686   8.231   9.288   2.508
 4616SOL    HW115687   8.218   9.263   2.599
 4616SOL    HW215688   8.314   9.337   2.508
 4617SOL     OW15689   4.252  13.480   1.250
 4617SOL    HW115690   4.164  13.443   1.257
 4617SOL    HW215691   4.286  13.482   1.339
 4618SOL     OW15692  14.230   5.793   6.022
 4618SOL    HW115693  14.152   5.785   6.078
 4618SOL    HW215694  14.202   5.759   5.937
 4619SOL     OW15695   5.337   3.617   0.687
 4619SOL    HW115696   5.423   3.632   0.726
 4619SOL    HW215697   5.277   3.617   0.762
 4620SOL     OW15698  11.008   8.699   2.109
 4620SOL    HW115699  11.030   8.788   2.082
 4620SOL    HW215700  11.018   8.647   2.029
 4621SOL     OW15701  14.434   5.567  13.217
 4621SOL    HW115702  14.509   5.552  13.160
 4621SOL    HW215703  14.448   5.507  13.291
 4622SOL     OW15704   8.275   5.238   3.790
 4622SOL    HW115705   8.327   5.317   3.778
 4622SOL    HW215706   8.191   5.258   3.749
 4623SOL     OW15707  11.498  12.344  14.140
 4623SOL    HW115708  11.422  12.288  14.123
 4623SOL    HW215709  11.558  12.289  14.190
 4624SOL     OW15710   5.913   1.811   5.679
 4624SOL    HW115711   5.821   1.816   5.653
 4624SOL    HW215712   5.961   1.853   5.607
 4625SOL     OW15713   9.822   3.049  10.176
 4625SOL    HW115714   9.753   2.983  10.187
 4625SOL    HW215715   9.896   3.016  10.226
 4626SOL     OW15716  10.643  14.839   2.151
 4626SOL    HW115717  10.633   0.035   2.213
 4626SOL    HW215718  10.565  14.845   2.095
 4627SOL     OW15719   9.619  12.738   6.819
 4627SOL    HW115720   9.594  12.814   6.766
 4627SOL    HW215721   9.714  12.744   6.825
 4628SOL     OW15722   9.364   7.369   7.060
 4628SOL    HW115723   9.312   7.302   7.016
 4628SOL    HW215724   9.373   7.338   7.150
 4629SOL     OW15725   9.863   2.657   6.942
 4629SOL    HW115726   9.956   2.634   6.950
 4629SOL    HW215727   9.836   2.619   6.858
 4630SOL     OW15728   1.496   0.544   4.908
 4630SOL    HW115729   1.565   0.561   4.843
 4630SOL    HW215730   1.417   0.532   4.856
 4631SOL     OW15731   1.692  12.928   9.056
 4631SOL    HW115732   1.721  12.837   9.050
 4631SOL    HW215733   1.597  12.922   9.058
 4632SOL     OW15734   2.737   1.208   5.025
 4632SOL    HW115735   2.702   1.120   5.038
 4632SOL    HW215736   2.694   1.262   5.091
 4633SOL     OW15737   6.096  10.902   7.686
 4633SOL    HW115738   6.191  10.910   7.679
 4633SOL    HW215739   6.082  10.816   7.724
 4634SOL     OW15740  14.523  11.985   2.923
 4634SOL    HW115741  14.498  11.956   3.011
 4634SOL    HW215742  14.619  11.980   2.924
 4635SOL     OW15743   1.581   6.952   7.266
 4635SOL    HW115744   1.531   6.874   7.289
 4635SOL    HW215745   1.616   6.984   7.349
 4636SOL     OW15746  11.845  14.108   9.084
 4636SOL    HW115747  11.782  14.162   9.037
 4636SOL    HW215748  11.807  14.096   9.171
 4637SOL     OW15749  11.296   7.754  13.855
 4637SOL    HW115750  11.225   7.718  13.802
 4637SOL    HW215751  11.259   7.762  13.943
 4638SOL     OW15752   4.724   9.188   8.054
 4638SOL    HW115753   4.685   9.240   8.123
 4638SOL    HW215754   4.650   9.143   8.013
 4639SOL     OW15755  14.127  12.018   4.032
 4639SOL    HW115756  14.068  12.084   4.068
 4639SOL    HW215757  14.107  12.018   3.938
 4640SOL     OW15758   7.457   3.039  14.730
 4640SOL    HW115759   7.458   3.062  14.823
 4640SOL    HW215760   7.373   3.073  14.698
 4641SOL     OW15761  14.518   9.430   9.513
 4641SOL    HW115762  14.471   9.491   9.570
 4641SOL    HW215763  14.572   9.486   9.457
 4642SOL     OW15764   0.826   5.209   8.178
 4642SOL    HW115765   0.828   5.167   8.263
 4642SOL    HW215766   0.739   5.250   8.173
 4643SOL     OW15767  11.899   6.418   0.236
 4643SOL    HW115768  11.838   6.362   0.283
 4643SOL    HW215769  11.986   6.392   0.268
 4644SOL     OW15770   5.362   3.360   1.137
 4644SOL    HW115771   5.370   3.436   1.195
 4644SOL    HW215772   5.453   3.340   1.112
 4645SOL     OW15773   5.482  13.149   2.298
 4645SOL    HW115774   5.418  13.125   2.365
 4645SOL    HW215775   5.506  13.239   2.318
 4646SOL     OW15776   0.167   4.299   6.826
 4646SOL    HW115777   0.136   4.300   6.916
 4646SOL    HW215778   0.166   4.391   6.799
 4647SOL     OW15779   4.857   5.211   7.995
 4647SOL    HW115780   4.934   5.155   8.003
 4647SOL    HW215781   4.814   5.205   8.080
 4648SOL     OW15782   4.254   6.349  10.474
 4648SOL    HW115783   4.197   6.386  10.407
 4648SOL    HW215784   4.321   6.301  10.425
 4649SOL     OW15785   4.011   9.376   9.093
 4649SOL    HW115786   4.034   9.417   9.177
 4649SOL    HW215787   4.028   9.282   9.108
 4650SOL     OW15788   8.109   6.934   5.109
 4650SOL    HW115789   8.196   6.969   5.124
 4650SOL    HW215790   8.058   7.008   5.076
 4651SOL     OW15791   9.942  12.181   3.865
 4651SOL    HW115792   9.953  12.091   3.835
 4651SOL    HW215793  10.005  12.191   3.936
 4652SOL     OW15794  11.856   1.623   8.262
 4652SOL    HW115795  11.889   1.551   8.208
 4652SOL    HW215796  11.771   1.645   8.224
 4653SOL     OW15797   5.647   8.408   1.962
 4653SOL    HW115798   5.740   8.405   1.939
 4653SOL    HW215799   5.612   8.324   1.934
 4654SOL     OW15800   3.220   1.150   7.390
 4654SOL    HW115801   3.128   1.125   7.377
 4654SOL    HW215802   3.240   1.208   7.316
 4655SOL     OW15803  14.243   6.308  14.436
 4655SOL    HW115804  14.200   6.297  14.521
 4655SOL    HW215805  14.238   6.402  14.419
 4656SOL     OW15806   6.391  11.414  14.049
 4656SOL    HW115807   6.307  11.383  14.015
 4656SOL    HW215808   6.436  11.450  13.973
 4657SOL     OW15809   6.833   8.048  12.859
 4657SOL    HW115810   6.867   8.062  12.770
 4657SOL    HW215811   6.749   8.095  12.860
 4658SOL     OW15812  13.377   5.285  10.879
 4658SOL    HW115813  13.292   5.329  10.872
 4658SOL    HW215814  13.440   5.355  10.895
 4659SOL     OW15815   9.317   8.467   6.794
 4659SOL    HW115816   9.240   8.457   6.739
 4659SOL    HW215817   9.290   8.434   6.880
 4660SOL     OW15818  12.586   3.712   2.960
 4660SOL    HW115819  12.566   3.725   2.867
 4660SOL    HW215820  12.644   3.784   2.983
 4661SOL     OW15821   6.414   6.273  13.927
 4661SOL    HW115822   6.358   6.306  13.856
 4661SOL    HW215823   6.456   6.195  13.891
 4662SOL     OW15824  14.652  12.607   3.417
 4662SOL    HW115825  14.679  12.694   3.446
 4662SOL    HW215826  14.729  12.552   3.433
 4663SOL     OW15827  13.317  14.574   0.643
 4663SOL    HW115828  13.297  14.645   0.582
 4663SOL    HW215829  13.387  14.525   0.600
 4664SOL     OW15830   4.498   7.738   2.212
 4664SOL    HW115831   4.413   7.694   2.216
 4664SOL    HW215832   4.521   7.753   2.304
 4665SOL     OW15833   8.233   7.308   2.542
 4665SOL    HW115834   8.246   7.238   2.606
 4665SOL    HW215835   8.316   7.312   2.494
 4666SOL     OW15836   3.892   1.146   7.276
 4666SOL    HW115837   3.844   1.064   7.262
 4666SOL    HW215838   3.929   1.166   7.190
 4667SOL     OW15839  14.319   2.344  12.926
 4667SOL    HW115840  14.255   2.302  12.868
 4667SOL    HW215841  14.372   2.271  12.958
 4668SOL     OW15842   6.554   4.110   7.301
 4668SOL    HW115843   6.476   4.067   7.265
 4668SOL    HW215844   6.528   4.139   7.388
 4669SOL     OW15845   1.487  11.188  13.460
 4669SOL    HW115846   1.453  11.273  13.488
 4669SOL    HW215847   1.504  11.198  13.366
 4670SOL     OW15848   7.810   0.445  11.845
 4670SOL    HW115849   7.891   0.495  11.837
 4670SOL    HW215850   7.783   0.429  11.755
 4671SOL     OW15851   4.716   8.168   6.169
 4671SOL    HW115852   4.683   8.082   6.141
 4671SOL    HW215853   4.679   8.181   6.256
 4672SOL     OW15854   7.687  10.852   7.568
 4672SOL    HW115855   7.740  10.772   7.571
 4672SOL    HW215856   7.699  10.886   7.480
 4673SOL     OW15857   2.954   3.663  11.777
 4673SOL    HW115858   2.947   3.758  11.766
 4673SOL    HW215859   2.915   3.627  11.698
 4674SOL     OW15860   0.780  12.773   0.182
 4674SOL    HW115861   0.833  12.819   0.117
 4674SOL    HW215862   0.844  12.723   0.233
 4675SOL     OW15863   4.364   3.903  11.663
 4675SOL    HW115864   4.442   3.898  11.607
 4675SOL    HW215865   4.398   3.910  11.752
 4676SOL     OW15866   8.312   1.615  13.652
 4676SOL    HW115867   8.308   1.520  13.638
 4676SOL    HW215868   8.325   1.651  13.564
 4677SOL     OW15869  12.923   7.733   5.928
 4677SOL    HW115870  12.947   7.653   5.881
 4677SOL    HW215871  12.853   7.706   5.987
 4678SOL     OW15872   5.944   3.600   5.507
 4678SOL    HW115873   5.886   3.545   5.561
 4678SOL    HW215874   5.885   3.644   5.446
 4679SOL     OW15875  12.238  14.259   6.789
 4679SOL    HW115876  12.184  14.181   6.802
 4679SOL    HW215877  12.286  14.270   6.872
 4680SOL     OW15878   1.793   8.310   4.396
 4680SOL    HW115879   1.843   8.328   4.317
 4680SOL    HW215880   1.798   8.214   4.405
 4681SOL     OW15881   8.454   5.373   1.595
 4681SOL    HW115882   8.365   5.342   1.582
 4681SOL    HW215883   8.470   5.361   1.689
 4682SOL     OW15884   6.706   4.353   1.035
 4682SOL    HW115885   6.786   4.405   1.045
 4682SOL    HW215886   6.713   4.314   0.948
 4683SOL     OW15887  12.368  13.880   7.322
 4683SOL    HW115888  12.425  13.828   7.266
 4683SOL    HW215889  12.382  13.844   7.410
 4684SOL     OW15890   2.077   0.825   2.005
 4684SOL    HW115891   2.100   0.735   2.026
 4684SOL    HW215892   2.162   0.869   1.994
 4685SOL     OW15893   6.821   0.028   7.878
 4685SOL    HW115894   6.795  14.849   7.804
 4685SOL    HW215895   6.836   0.114   7.839
 4686SOL     OW15896   3.754  13.904  11.607
 4686SOL    HW115897   3.671  13.863  11.633
 4686SOL    HW215898   3.736  13.998  11.612
 4687SOL     OW15899   0.240  10.781  10.561
 4687SOL    HW115900   0.200  10.712  10.508
 4687SOL    HW215901   0.166  10.827  10.600
 4688SOL     OW15902  13.090   2.298  10.539
 4688SOL    HW115903  13.090   2.202  10.543
 4688SOL    HW215904  13.042   2.319  10.459
 4689SOL     OW15905   5.671   3.890   6.475
 4689SOL    HW115906   5.576   3.883   6.478
 4689SOL    HW215907   5.694   3.872   6.384
 4690SOL     OW15908  14.550  13.942   2.861
 4690SOL    HW115909  14.625  13.920   2.805
 4690SOL    HW215910  14.509  13.858   2.880
 4691SOL     OW15911  14.325   6.054   4.398
 4691SOL    HW115912  14.247   6.051   4.341
 4691SOL    HW215913  14.398   6.068   4.338
 4692SOL     OW15914  12.680   6.829   1.814
 4692SOL    HW115915  12.744   6.858   1.749
 4692SOL    HW215916  12.708   6.741   1.839
 4693SOL     OW15917   9.871   3.735  11.703
 4693SOL    HW115918   9.813   3.739  11.779
 4693SOL    HW215919   9.956   3.764  11.735
 4694SOL     OW15920  14.285   7.986   9.975
 4694SOL    HW115921  14.373   7.962   9.948
 4694SOL    HW215922  14.259   8.054   9.913
 4695SOL     OW15923   8.569   5.866   5.472
 4695SOL    HW115924   8.483   5.892   5.504
 4695SOL    HW215925   8.565   5.770   5.466
 4696SOL     OW15926   1.089  11.198  12.864
 4696SOL    HW115927   1.067  11.161  12.949
 4696SOL    HW215928   1.184  11.210  12.866
 4697SOL     OW15929   4.015  10.224   0.806
 4697SOL    HW115930   3.990  10.188   0.891
 4697SOL    HW215931   4.004  10.318   0.816
 4698SOL     OW15932   4.327   7.168   9.131
 4698SOL    HW115933   4.347   7.123   9.213
 4698SOL    HW215934   4.407   7.218   9.112
 4699SOL     OW15935   5.190   6.434  12.814
 4699SOL    HW115936   5.173   6.526  12.795
 4699SOL    HW215937   5.170   6.388  12.733
 4700SOL     OW15938   9.041   3.734   4.536
 4700SOL    HW115939   8.963   3.782   4.506
 4700SOL    HW215940   9.006   3.652   4.572
 4701SOL     OW15941   5.770  13.396   1.281
 4701SOL    HW115942   5.824  13.432   1.351
 4701SOL    HW215943   5.820  13.411   1.201
 4702SOL     OW15944   7.458  11.694   2.197
 4702SOL    HW115945   7.423  11.760   2.138
 4702SOL    HW215946   7.418  11.713   2.282
 4703SOL     OW15947   3.599   1.182   6.251
 4703SOL    HW115948   3.522   1.187   6.307
 4703SOL    HW215949   3.618   1.274   6.229
 4704SOL     OW15950  13.585   3.411   3.740
 4704SOL    HW115951  13.615   3.325   3.707
 4704SOL    HW215952  13.608   3.411   3.832
 4705SOL     OW15953   1.965  13.036   9.685
 4705SOL    HW115954   2.006  12.959   9.726
 4705SOL    HW215955   2.028  13.107   9.700
 4706SOL     OW15956   3.962   5.268   9.792
 4706SOL    HW115957   4.053   5.261   9.764
 4706SOL    HW215958   3.953   5.358   9.823
 4707SOL     OW15959   4.076  10.204  11.736
 4707SOL    HW115960   4.126  10.280  11.703
 4707SOL    HW215961   3.997  10.203  11.683
 4708SOL     OW15962   9.610   8.887  12.537
 4708SOL    HW115963   9.674   8.895  12.608
 4708SOL    HW215964   9.545   8.825  12.570
 4709SOL     OW15965  12.554  13.549   4.434
 4709SOL    HW115966  12.494  13.551   4.509
 4709SOL    HW215967  12.502  13.509   4.363
 4710SOL     OW15968   1.202  12.796   1.092
 4710SOL    HW115969   1.120  12.756   1.064
 4710SOL    HW215970   1.263  12.723   1.100
 4711SOL     OW15971   3.570  11.588   4.883
 4711SOL    HW115972   3.594  11.496   4.897
 4711SOL    HW215973   3.547  11.593   4.790
 4712SOL     OW15974  13.721   8.456   9.441
 4712SOL    HW115975  13.778   8.452   9.518
 4712SOL    HW215976  13.780   8.442   9.367
 4713SOL     OW15977  12.241  12.325   9.410
 4713SOL    HW115978  12.242  12.275   9.491
 4713SOL    HW215979  12.328  12.312   9.373
 4714SOL     OW15980  11.369   5.867   6.234
 4714SOL    HW115981  11.323   5.817   6.302
 4714SOL    HW215982  11.359   5.814   6.155
 4715SOL     OW15983   7.150   6.744   5.842
 4715SOL    HW115984   7.060   6.764   5.865
 4715SOL    HW215985   7.144   6.688   5.765
 4716SOL     OW15986   0.287   1.259  13.696
 4716SOL    HW115987   0.379   1.241  13.715
 4716SOL    HW215988   0.244   1.254  13.781
 4717SOL     OW15989   2.827   2.260  11.734
 4717SOL    HW115990   2.790   2.332  11.683
 4717SOL    HW215991   2.785   2.182  11.698
 4718SOL     OW15992   1.192   2.527  14.099
 4718SOL    HW115993   1.157   2.438  14.089
 4718SOL    HW215994   1.120   2.577  14.136
 4719SOL     OW15995  13.080   3.991   2.769
 4719SOL    HW115996  13.006   3.977   2.828
 4719SOL    HW215997  13.044   3.984   2.681
 4720SOL     OW15998   0.827   0.109  11.426
 4720SOL    HW115999   0.780   0.033  11.392
 4720SOL    HW216000   0.839   0.090  11.519
 4721SOL     OW16001   3.678   2.077   3.615
 4721SOL    HW116002   3.730   2.014   3.566
 4721SOL    HW216003   3.646   2.029   3.691
 4722SOL     OW16004  11.190   6.766   4.011
 4722SOL    HW116005  11.242   6.837   3.974
 4722SOL    HW216006  11.252   6.695   4.023
 4723SOL     OW16007   5.016   7.644  10.056
 4723SOL    HW116008   5.038   7.693  10.135
 4723SOL    HW216009   4.924   7.664  10.041
 4724SOL     OW16010  11.827  14.101  10.437
 4724SOL    HW116011  11.890  14.044  10.392
 4724SOL    HW216012  11.879  14.144  10.505
 4725SOL     OW16013  12.899   3.346  12.856
 4725SOL    HW116014  12.925   3.433  12.824
 4725SOL    HW216015  12.982   3.302  12.874
 4726SOL     OW16016   3.746   8.021   7.769
 4726SOL    HW116017   3.736   8.060   7.682
 4726SOL    HW216018   3.823   8.065   7.806
 4727SOL     OW16019   8.115  14.563   7.271
 4727SOL    HW116020   8.066  14.497   7.221
 4727SOL    HW216021   8.066  14.644   7.257
 4728SOL     OW16022   7.920   8.700  10.731
 4728SOL    HW116023   7.898   8.748  10.650
 4728SOL    HW216024   7.972   8.626  10.701
 4729SOL     OW16025   0.347   2.543   3.477
 4729SOL    HW116026   0.359   2.451   3.452
 4729SOL    HW216027   0.431   2.584   3.459
 4730SOL     OW16028   2.150   4.202  14.258
 4730SOL    HW116029   2.186   4.128  14.210
 4730SOL    HW216030   2.175   4.278  14.205
 4731SOL     OW16031  11.509   8.434   1.563
 4731SOL    HW116032  11.501   8.527   1.542
 4731SOL    HW216033  11.456   8.390   1.496
 4732SOL     OW16034   9.154   4.479   0.966
 4732SOL    HW116035   9.078   4.513   0.919
 4732SOL    HW216036   9.118   4.426   1.037
 4733SOL     OW16037   5.435   9.790   9.909
 4733SOL    HW116038   5.454   9.878   9.943
 4733SOL    HW216039   5.439   9.733   9.985
 4734SOL     OW16040   4.344  14.789  12.962
 4734SOL    HW116041   4.331  14.828  12.875
 4734SOL    HW216042   4.257  14.791  13.002
 4735SOL     OW16043  11.669  12.373   0.422
 4735SOL    HW116044  11.733  12.443   0.411
 4735SOL    HW216045  11.606  12.408   0.486
 4736SOL     OW16046   9.692   8.701   8.565
 4736SOL    HW116047   9.648   8.706   8.650
 4736SOL    HW216048   9.716   8.792   8.545
 4737SOL     OW16049  14.015  14.668   8.731
 4737SOL    HW116050  14.104  14.677   8.765
 4737SOL    HW216051  13.960  14.663   8.809
 4738SOL     OW16052   7.917   1.265   7.323
 4738SOL    HW116053   7.844   1.277   7.383
 4738SOL    HW216054   7.975   1.340   7.341
 4739SOL     OW16055   0.644   4.822   1.231
 4739SOL    HW116056   0.680   4.841   1.144
 4739SOL    HW216057   0.616   4.907   1.264
 4740SOL     OW16058  14.712  14.405  11.290
 4740SOL    HW116059  14.803  14.392  11.262
 4740SOL    HW216060  14.714  14.484  11.343
 4741SOL     OW16061   3.130   7.194   4.172
 4741SOL    HW116062   3.161   7.257   4.237
 4741SOL    HW216063   3.196   7.124   4.172
 4742SOL     OW16064   2.962   6.973   7.263
 4742SOL    HW116065   3.008   6.902   7.307
 4742SOL    HW216066   2.968   6.952   7.170
 4743SOL     OW16067   6.820   4.157   7.259
 4743SOL    HW116068   6.842   4.229   7.318
 4743SOL    HW216069   6.735   4.125   7.291
 4744SOL     OW16070   0.136   3.326   8.627
 4744SOL    HW116071   0.072   3.394   8.648
 4744SOL    HW216072   0.101   3.247   8.669
 4745SOL     OW16073   2.980  11.605   3.185
 4745SOL    HW116074   3.011  11.604   3.276
 4745SOL    HW216075   3.022  11.528   3.145
 4746SOL     OW16076  14.292  11.580   3.746
 4746SOL    HW116077  14.366  11.640   3.740
 4746SOL    HW216078  14.269  11.560   3.655
 4747SOL     OW16079   9.893  13.339   7.561
 4747SOL    HW116080   9.882  13.425   7.601
 4747SOL    HW216081   9.809  13.322   7.517
 4748SOL     OW16082  14.563   7.767  11.727
 4748SOL    HW116083  14.599   7.809  11.649
 4748SOL    HW216084  14.630   7.781  11.794
 4749SOL     OW16085   3.602   7.119   3.406
 4749SOL    HW116086   3.540   7.047   3.392
 4749SOL    HW216087   3.635   7.139   3.318
 4750SOL     OW16088   9.324   5.030   4.900
 4750SOL    HW116089   9.363   5.051   4.985
 4750SOL    HW216090   9.356   5.098   4.841
 4751SOL     OW16091   5.421  11.797   4.682
 4751SOL    HW116092   5.391  11.785   4.593
 4751SOL    HW216093   5.348  11.842   4.726
 4752SOL     OW16094   7.743  14.767   2.249
 4752SOL    HW116095   7.672  14.785   2.311
 4752SOL    HW216096   7.717  14.814   2.169
 4753SOL     OW16097   2.750  10.090  12.799
 4753SOL    HW116098   2.777  10.044  12.878
 4753SOL    HW216099   2.688  10.031  12.757
 4754SOL     OW16100   9.611   2.931   1.942
 4754SOL    HW116101   9.518   2.913   1.951
 4754SOL    HW216102   9.654   2.846   1.950
 4755SOL     OW16103   8.433  11.312   5.976
 4755SOL    HW116104   8.464  11.401   5.956
 4755SOL    HW216105   8.452  11.301   6.069
 4756SOL     OW16106   1.869   7.281  10.952
 4756SOL    HW116107   1.955   7.323  10.944
 4756SOL    HW216108   1.811   7.334  10.897
 4757SOL     OW16109   5.110   6.815   9.231
 4757SOL    HW116110   5.181   6.835   9.170
 4757SOL    HW216111   5.081   6.901   9.264
 4758SOL     OW16112   9.569   4.945  12.914
 4758SOL    HW116113   9.518   4.882  12.862
 4758SOL    HW216114   9.522   5.027  12.904
 4759SOL     OW16115   8.459   6.347   7.662
 4759SOL    HW116116   8.497   6.342   7.749
 4759SOL    HW216117   8.385   6.407   7.672
 4760SOL     OW16118  12.866   3.090   8.312
 4760SOL    HW116119  12.887   3.170   8.359
 4760SOL    HW216120  12.826   3.033   8.378
 4761SOL     OW16121   1.212  11.220  14.090
 4761SOL    HW116122   1.244  11.245  14.176
 4761SOL    HW216123   1.274  11.154  14.059
 4762SOL     OW16124  13.161  10.554   5.502
 4762SOL    HW116125  13.127  10.643   5.502
 4762SOL    HW216126  13.251  10.562   5.534
 4763SOL     OW16127   0.332   1.031  13.225
 4763SOL    HW116128   0.318   1.104  13.164
 4763SOL    HW216129   0.299   1.064  13.308
 4764SOL     OW16130   6.368   1.329   8.142
 4764SOL    HW116131   6.332   1.409   8.104
 4764SOL    HW216132   6.321   1.258   8.098
 4765SOL     OW16133   5.093   3.118   2.160
 4765SOL    HW116134   5.021   3.057   2.146
 4765SOL    HW216135   5.171   3.067   2.136
 4766SOL     OW16136   5.383  11.807  10.464
 4766SOL    HW116137   5.406  11.720  10.431
 4766SOL    HW216138   5.414  11.867  10.396
 4767SOL     OW16139   5.099  14.813   9.411
 4767SOL    HW116140   5.159   0.008   9.388
 4767SOL    HW216141   5.058  14.790   9.328
 4768SOL     OW16142  14.141   6.051   7.057
 4768SOL    HW116143  14.219   6.035   7.004
 4768SOL    HW216144  14.147   5.989   7.129
 4769SOL     OW16145   5.237   9.705  14.042
 4769SOL    HW116146   5.315   9.739  13.999
 4769SOL    HW216147   5.239   9.611  14.027
 4770SOL     OW16148  13.406   5.139   0.459
 4770SOL    HW116149  13.325   5.163   0.506
 4770SOL    HW216150  13.463   5.215   0.470
 4771SOL     OW16151   3.843   3.591  12.060
 4771SOL    HW116152   3.884   3.657  12.005
 4771SOL    HW216153   3.856   3.623  12.149
 4772SOL     OW16154   3.712   2.425   6.536
 4772SOL    HW116155   3.794   2.425   6.587
 4772SOL    HW216156   3.729   2.483   6.462
 4773SOL     OW16157  12.718   5.926   8.626
 4773SOL    HW116158  12.723   5.998   8.563
 4773SOL    HW216159  12.684   5.852   8.576
 4774SOL     OW16160  13.898   7.779  14.215
 4774SOL    HW116161  13.957   7.854  14.212
 4774SOL    HW216162  13.948   7.709  14.257
 4775SOL     OW16163  14.794   3.961  13.520
 4775SOL    HW116164  14.743   4.023  13.468
 4775SOL    HW216165  14.736   3.935  13.591
 4776SOL     OW16166   9.316   6.934   6.452
 4776SOL    HW116167   9.273   6.929   6.537
 4776SOL    HW216168   9.370   7.014   6.457
 4777SOL     OW16169   3.251  10.475  14.224
 4777SOL    HW116170   3.231  10.558  14.181
 4777SOL    HW216171   3.239  10.492  14.317
 4778SOL     OW16172   3.268  12.462   6.318
 4778SOL    HW116173   3.298  12.416   6.396
 4778SOL    HW216174   3.277  12.555   6.339
 4779SOL     OW16175   6.677   5.671   3.431
 4779SOL    HW116176   6.648   5.668   3.340
 4779SOL    HW216177   6.601   5.643   3.481
 4780SOL     OW16178  11.093   2.703   2.793
 4780SOL    HW116179  11.027   2.695   2.725
 4780SOL    HW216180  11.173   2.666   2.754
 4781SOL     OW16181  14.642   0.063  12.975
 4781SOL    HW116182  14.671   0.107  12.894
 4781SOL    HW216183  14.604  14.857  12.945
 4782SOL     OW16184   4.762  11.801  14.499
 4782SOL    HW116185   4.845  11.800  14.450
 4782SOL    HW216186   4.734  11.709  14.498
 4783SOL     OW16187  12.952   6.733  10.087
 4783SOL    HW116188  12.866   6.730  10.129
 4783SOL    HW216189  12.992   6.814  10.120
 4784SOL     OW16190   9.586   1.402   8.173
 4784SOL    HW116191   9.572   1.478   8.117
 4784SOL    HW216192   9.599   1.330   8.113
 4785SOL     OW16193  10.294   5.007  12.126
 4785SOL    HW116194  10.385   5.038  12.121
 4785SOL    HW216195  10.301   4.912  12.116
 4786SOL     OW16196  13.212   1.166   7.473
 4786SOL    HW116197  13.122   1.193   7.458
 4786SOL    HW216198  13.260   1.202   7.398
 4787SOL     OW16199   6.203   3.501  12.419
 4787SOL    HW116200   6.149   3.566  12.374
 4787SOL    HW216201   6.274   3.483  12.356
 4788SOL     OW16202   5.647   8.877   3.486
 4788SOL    HW116203   5.709   8.931   3.534
 4788SOL    HW216204   5.567   8.879   3.538
 4789SOL     OW16205   6.154   2.983   9.329
 4789SOL    HW116206   6.157   3.063   9.277
 4789SOL    HW216207   6.093   2.926   9.282
 4790SOL     OW16208  10.528   3.945   9.347
 4790SOL    HW116209  10.447   3.943   9.295
 4790SOL    HW216210  10.514   4.015   9.410
 4791SOL     OW16211   8.978   5.986  12.143
 4791SOL    HW116212   8.969   5.905  12.193
 4791SOL    HW216213   9.050   6.033  12.185
 4792SOL     OW16214   3.350   6.639   1.757
 4792SOL    HW116215   3.294   6.709   1.789
 4792SOL    HW216216   3.378   6.593   1.836
 4793SOL     OW16217  14.323   3.128   3.452
 4793SOL    HW116218  14.374   3.070   3.506
 4793SOL    HW216219  14.325   3.212   3.497
 4794SOL     OW16220   9.288   5.055  10.537
 4794SOL    HW116221   9.299   4.978  10.481
 4794SOL    HW216222   9.323   5.128  10.485
 4795SOL     OW16223   2.845  11.386  12.214
 4795SOL    HW116224   2.783  11.326  12.255
 4795SOL    HW216225   2.820  11.473  12.246
 4796SOL     OW16226  14.145   4.359  13.375
 4796SOL    HW116227  14.149   4.404  13.291
 4796SOL    HW216228  14.117   4.270  13.354
 4797SOL     OW16229   2.556   9.872   7.263
 4797SOL    HW116230   2.512   9.803   7.313
 4797SOL    HW216231   2.604   9.824   7.195
 4798SOL     OW16232  13.085  10.121   0.763
 4798SOL    HW116233  13.141  10.179   0.813
 4798SOL    HW216234  13.114  10.033   0.787
 4799SOL     OW16235  14.447   1.351   1.953
 4799SOL    HW116236  14.371   1.294   1.964
 4799SOL    HW216237  14.510   1.320   2.018
 4800SOL     OW16238   9.502  10.050   3.820
 4800SOL    HW116239   9.588  10.036   3.781
 4800SOL    HW216240   9.451  10.092   3.751
 4801SOL     OW16241   6.574   6.400  14.496
 4801SOL    HW116242   6.605   6.359  14.577
 4801SOL    HW216243   6.649   6.448  14.463
 4802SOL     OW16244  12.680  13.639   7.482
 4802SOL    HW116245  12.660  13.611   7.571
 4802SOL    HW216246  12.712  13.560   7.438
 4803SOL     OW16247  14.201   2.440   8.353
 4803SOL    HW116248  14.269   2.377   8.329
 4803SOL    HW216249  14.248   2.514   8.390
 4804SOL     OW16250   0.852   6.376   6.283
 4804SOL    HW116251   0.881   6.333   6.363
 4804SOL    HW216252   0.890   6.322   6.213
 4805SOL     OW16253  14.566   3.140  14.179
 4805SOL    HW116254  14.647   3.091  14.196
 4805SOL    HW216255  14.591   3.205  14.112
 4806SOL     OW16256   5.952   1.634  13.576
 4806SOL    HW116257   6.037   1.647  13.617
 4806SOL    HW216258   5.890   1.633  13.649
 4807SOL     OW16259   6.366   4.887   3.166
 4807SOL    HW116260   6.346   4.926   3.081
 4807SOL    HW216261   6.461   4.873   3.165
 4808SOL     OW16262  12.487  14.505  14.312
 4808SOL    HW116263  12.503  14.435  14.248
 4808SOL    HW216264  12.424  14.467  14.374
 4809SOL     OW16265  11.527   5.466   3.757
 4809SOL    HW116266  11.614   5.495   3.728
 4809SOL    HW216267  11.472   5.475   3.679
 4810SOL     OW16268   6.926  13.435  10.749
 4810SOL    HW116269   7.013  13.428  10.710
 4810SOL    HW216270   6.926  13.521  10.791
 4811SOL     OW16271   1.719   5.491  10.996
 4811SOL    HW116272   1.648   5.428  11.008
 4811SOL    HW216273   1.781   5.447  10.938
 4812SOL     OW16274   3.809   4.132   2.186
 4812SOL    HW116275   3.866   4.059   2.210
 4812SOL    HW216276   3.868   4.199   2.152
 4813SOL     OW16277  11.309  14.160   0.046
 4813SOL    HW116278  11.349  14.193  14.842
 4813SOL    HW216279  11.351  14.208   0.117
 4814SOL     OW16280   0.973   3.953  12.320
 4814SOL    HW116281   0.917   3.883  12.286
 4814SOL    HW216282   1.012   3.992  12.242
 4815SOL     OW16283   1.104  12.087   3.111
 4815SOL    HW116284   1.128  12.114   3.199
 4815SOL    HW216285   1.175  12.119   3.056
 4816SOL     OW16286  13.225  10.554  12.997
 4816SOL    HW116287  13.202  10.613  12.924
 4816SOL    HW216288  13.148  10.497  13.006
 4817SOL     OW16289   9.466   4.527   4.703
 4817SOL    HW116290   9.383   4.478   4.707
 4817SOL    HW216291   9.517   4.481   4.637
 4818SOL     OW16292   3.943  12.105   7.428
 4818SOL    HW116293   3.982  12.089   7.514
 4818SOL    HW216294   3.925  12.017   7.393
 4819SOL     OW16295   7.591   3.385   0.736
 4819SOL    HW116296   7.644   3.306   0.723
 4819SOL    HW216297   7.540   3.393   0.656
 4820SOL     OW16298   0.282   6.782   2.762
 4820SOL    HW116299   0.246   6.714   2.820
 4820SOL    HW216300   0.330   6.733   2.695
 4821SOL     OW16301  13.987   1.904   3.199
 4821SOL    HW116302  13.980   1.980   3.258
 4821SOL    HW216303  13.993   1.943   3.111
 4822SOL     OW16304   8.007  11.823  11.226
 4822SOL    HW116305   8.036  11.757  11.165
 4822SOL    HW216306   8.052  11.903  11.199
 4823SOL     OW16307  10.203   0.348  10.302
 4823SOL    HW116308  10.184   0.385  10.388
 4823SOL    HW216309  10.158   0.264  10.301
 4824SOL     OW16310   4.498   7.859   0.638
 4824SOL    HW116311   4.489   7.892   0.548
 4824SOL    HW216312   4.462   7.929   0.693
 4825SOL     OW16313   8.110   6.212  14.352
 4825SOL    HW116314   8.039   6.186  14.294
 4825SOL    HW216315   8.190   6.194  14.302
 4826SOL     OW16316   5.046   7.310  10.695
 4826SOL    HW116317   5.039   7.215  10.689
 4826SOL    HW216318   5.024   7.330  10.786
 4827SOL     OW16319   1.127   1.438  11.947
 4827SOL    HW116320   1.057   1.377  11.925
 4827SOL    HW216321   1.135   1.494  11.870
 4828SOL     OW16322   5.273   1.139   5.058
 4828SOL    HW116323   5.189   1.181   5.040
 4828SOL    HW216324   5.312   1.126   4.972
 4829SOL     OW16325   0.727   8.694   7.053
 4829SOL    HW116326   0.679   8.765   7.010
 4829SOL    HW216327   0.711   8.708   7.146
 4830SOL     OW16328   2.205   1.051   5.887
 4830SOL    HW116329   2.239   1.013   5.806
 4830SOL    HW216330   2.264   1.124   5.906
 4831SOL     OW16331   4.566   3.362  13.422
 4831SOL    HW116332   4.495   3.320  13.469
 4831SOL    HW216333   4.559   3.328  13.333
 4832SOL     OW16334   6.429  13.785  13.547
 4832SOL    HW116335   6.460  13.708  13.595
 4832SOL    HW216336   6.502  13.846  13.551
 4833SOL     OW16337  11.486  11.477   8.190
 4833SOL    HW116338  11.562  11.524   8.222
 4833SOL    HW216339  11.523  11.401   8.144
 4834SOL     OW16340   7.752  12.886  12.327
 4834SOL    HW116341   7.841  12.873  12.294
 4834SOL    HW216342   7.758  12.960  12.387
 4835SOL     OW16343   2.636   6.320  10.943
 4835SOL    HW116344   2.594   6.402  10.968
 4835SOL    HW216345   2.650   6.328  10.848
 4836SOL     OW16346   4.273   8.789   7.811
 4836SOL    HW116347   4.254   8.841   7.889
 4836SOL    HW216348   4.235   8.703   7.830
 4837SOL     OW16349  11.103   6.440   8.783
 4837SOL    HW116350  11.023   6.444   8.837
 4837SOL    HW216351  11.096   6.514   8.723
 4838SOL     OW16352  12.264   9.381   3.941
 4838SOL    HW116353  12.310   9.441   4.000
 4838SOL    HW216354  12.176   9.376   3.977
 4839SOL     OW16355   2.717   9.469   0.603
 4839SOL    HW116356   2.660   9.450   0.677
 4839SOL    HW216357   2.804   9.479   0.642
 4840SOL     OW16358  12.740   0.484   4.380
 4840SOL    HW116359  12.767   0.576   4.388
 4840SOL    HW216360  12.711   0.460   4.468
 4841SOL     OW16361   1.328   1.639   9.180
 4841SOL    HW116362   1.331   1.553   9.138
 4841SOL    HW216363   1.397   1.636   9.246
 4842SOL     OW16364  10.688   6.041  10.781
 4842SOL    HW116365  10.769   6.007  10.820
 4842SOL    HW216366  10.637   5.963  10.761
 4843SOL     OW16367   2.863  12.470   9.630
 4843SOL    HW116368   2.932  12.404   9.623
 4843SOL    HW216369   2.793  12.439   9.574
 4844SOL     OW16370   2.700   8.667  13.889
 4844SOL    HW116371   2.745   8.642  13.969
 4844SOL    HW216372   2.660   8.586  13.857
 4845SOL     OW16373   4.562   1.682   0.036
 4845SOL    HW116374   4.641   1.628   0.050
 4845SOL    HW216375   4.502   1.654   0.105
 4846SOL     OW16376   7.793  12.879   4.274
 4846SOL    HW116377   7.800  12.974   4.281
 4846SOL    HW216378   7.839  12.846   4.351
 4847SOL     OW16379  12.584  10.471   0.062
 4847SOL    HW116380  12.558  10.404  14.875
 4847SOL    HW216381  12.613  10.422   0.138
 4848SOL     OW16382   9.050   7.961   2.522
 4848SOL    HW116383   9.069   7.871   2.548
 4848SOL    HW216384   8.956   7.961   2.502
 4849SOL     OW16385   5.078   3.052   6.175
 4849SOL    HW116386   5.049   3.108   6.247
 4849SOL    HW216387   5.137   2.988   6.216
 4850SOL     OW16388   2.924  11.754   2.764
 4850SOL    HW116389   2.986  11.684   2.743
 4850SOL    HW216390   2.978  11.829   2.785
 4851SOL     OW16391  10.815   3.047   9.185
 4851SOL    HW116392  10.835   2.955   9.198
 4851SOL    HW216393  10.899   3.087   9.163
 4852SOL     OW16394  14.379   2.328   4.186
 4852SOL    HW116395  14.324   2.253   4.160
 4852SOL    HW216396  14.469   2.298   4.170
 4853SOL     OW16397   3.718   8.230   6.534
 4853SOL    HW116398   3.741   8.230   6.441
 4853SOL    HW216399   3.771   8.161   6.573
 4854SOL     OW16400  10.513   4.973   6.509
 4854SOL    HW116401  10.561   4.921   6.573
 4854SOL    HW216402  10.571   5.047   6.490
 4855SOL     OW16403   3.458   2.088  14.594
 4855SOL    HW116404   3.395   2.160  14.598
 4855SOL    HW216405   3.542   2.129  14.614
 4856SOL     OW16406  11.422   0.495   6.144
 4856SOL    HW116407  11.510   0.507   6.180
 4856SOL    HW216408  11.386   0.421   6.192
 4857SOL     OW16409   7.576  10.621   5.213
 4857SOL    HW116410   7.663  10.604   5.247
 4857SOL    HW216411   7.567  10.561   5.138
 4858SOL     OW16412  11.359   1.478  13.301
 4858SOL    HW116413  11.336   1.468  13.394
 4858SOL    HW216414  11.410   1.399  13.281
 4859SOL     OW16415  12.981   1.869  12.120
 4859SOL    HW116416  12.991   1.957  12.158
 4859SOL    HW216417  12.955   1.814  12.194
 4860SOL     OW16418  13.035   5.254   2.254
 4860SOL    HW116419  13.031   5.286   2.164
 4860SOL    HW216420  13.114   5.293   2.289
 4861SOL     OW16421  10.669   0.791  10.367
 4861SOL    HW116422  10.600   0.727  10.385
 4861SOL    HW216423  10.626   0.859  10.315
 4862SOL     OW16424   8.192   0.729   7.987
 4862SOL    HW116425   8.108   0.724   8.033
 4862SOL    HW216426   8.176   0.683   7.904
 4863SOL     OW16427  14.578  12.699  13.105
 4863SOL    HW116428  14.664  12.717  13.140
 4863SOL    HW216429  14.584  12.724  13.012
 4864SOL     OW16430   0.521  14.060  12.990
 4864SOL    HW116431   0.562  13.974  12.995
 4864SOL    HW216432   0.461  14.053  12.916
 4865SOL     OW16433  14.322  10.856  13.681
 4865SOL    HW116434  14.403  10.810  13.703
 4865SOL    HW216435  14.328  10.939  13.727
 4866SOL     OW16436  12.532  12.332   2.130
 4866SOL    HW116437  12.533  12.246   2.088
 4866SOL    HW216438  12.623  12.360   2.130
 4867SOL     OW16439   2.918   1.535  12.183
 4867SOL    HW116440   2.893   1.597  12.114
 4867SOL    HW216441   3.010   1.555  12.201
 4868SOL     OW16442  12.935  10.435   0.525
 4868SOL    HW116443  12.900  10.524   0.530
 4868SOL    HW216444  12.862  10.379   0.553
 4869SOL     OW16445  10.939  14.097   4.168
 4869SOL    HW116446  10.866  14.158   4.161
 4869SOL    HW216447  10.995  14.117   4.093
 4870SOL     OW16448   9.658  12.971  14.566
 4870SOL    HW116449   9.649  12.887  14.521
 4870SOL    HW216450   9.753  12.987  14.568
 4871SOL     OW16451   7.619  13.482   2.492
 4871SOL    HW116452   7.529  13.511   2.507
 4871SOL    HW216453   7.611  13.390   2.468
 4872SOL     OW16454   9.909  11.513   7.649
 4872SOL    HW116455   9.915  11.572   7.724
 4872SOL    HW216456   9.836  11.454   7.670
 4873SOL     OW16457  10.178   0.859   9.610
 4873SOL    HW116458  10.118   0.824   9.676
 4873SOL    HW216459  10.262   0.818   9.630
 4874SOL     OW16460  10.437  12.835  13.870
 4874SOL    HW116461  10.416  12.904  13.932
 4874SOL    HW216462  10.475  12.765  13.923
 4875SOL     OW16463  12.296  10.857   9.202
 4875SOL    HW116464  12.216  10.908   9.203
 4875SOL    HW216465  12.344  10.888   9.125
 4876SOL     OW16466   9.622   3.256   0.923
 4876SOL    HW116467   9.715   3.263   0.898
 4876SOL    HW216468   9.585   3.196   0.860
 4877SOL     OW16469  11.309   8.621  10.270
 4877SOL    HW116470  11.318   8.546  10.211
 4877SOL    HW216471  11.217   8.646  10.265
 4878SOL     OW16472   5.678  10.550  14.383
 4878SOL    HW116473   5.766  10.515  14.368
 4878SOL    HW216474   5.655  10.595  14.302
 4879SOL     OW16475  10.077   1.494   5.116
 4879SOL    HW116476  10.083   1.412   5.068
 4879SOL    HW216477  10.156   1.542   5.091
 4880SOL     OW16478   0.040   8.863  10.015
 4880SOL    HW116479   0.020   8.774  10.044
 4880SOL    HW216480  14.872   8.872   9.931
 4881SOL     OW16481  13.661   8.673   2.039
 4881SOL    HW116482  13.661   8.661   2.134
 4881SOL    HW216483  13.569   8.666   2.013
 4882SOL     OW16484   1.448  12.675   1.439
 4882SOL    HW116485   1.440  12.657   1.345
 4882SOL    HW216486   1.361  12.708   1.465
 4883SOL     OW16487   5.144  12.247   4.265
 4883SOL    HW116488   5.167  12.154   4.264
 4883SOL    HW216489   5.049  12.248   4.256
 4884SOL     OW16490   9.100   4.516  12.957
 4884SOL    HW116491   9.117   4.464  12.878
 4884SOL    HW216492   9.032   4.578  12.931
 4885SOL     OW16493   9.457   4.344  13.078
 4885SOL    HW116494   9.421   4.312  12.996
 4885SOL    HW216495   9.394   4.316  13.145
 4886SOL     OW16496  12.619   6.450   4.016
 4886SOL    HW116497  12.597   6.367   4.059
 4886SOL    HW216498  12.677   6.495   4.079
 4887SOL     OW16499   6.724   0.987  10.050
 4887SOL    HW116500   6.698   1.018  10.137
 4887SOL    HW216501   6.713   0.892  10.054
 4888SOL     OW16502   9.586  11.782  13.664
 4888SOL    HW116503   9.598  11.765  13.571
 4888SOL    HW216504   9.672  11.768  13.702
 4889SOL     OW16505  11.235   0.901  14.349
 4889SOL    HW116506  11.233   0.846  14.427
 4889SOL    HW216507  11.290   0.853  14.287
 4890SOL     OW16508   0.161   8.247   6.532
 4890SOL    HW116509   0.105   8.324   6.533
 4890SOL    HW216510   0.145   8.204   6.616
 4891SOL     OW16511   7.367   0.797  11.538
 4891SOL    HW116512   7.407   0.767  11.619
 4891SOL    HW216513   7.306   0.866  11.565
 4892SOL     OW16514  12.964   5.992   4.448
 4892SOL    HW116515  12.963   5.897   4.459
 4892SOL    HW216516  12.893   6.009   4.385
 4893SOL     OW16517  11.826   2.818   3.591
 4893SOL    HW116518  11.788   2.825   3.503
 4893SOL    HW216519  11.762   2.860   3.648
 4894SOL     OW16520  14.490   5.641  14.492
 4894SOL    HW116521  14.465   5.711  14.552
 4894SOL    HW216522  14.535   5.577  14.548
 4895SOL     OW16523   4.992  13.225   9.838
 4895SOL    HW116524   5.076  13.267   9.819
 4895SOL    HW216525   5.001  13.191   9.927
 4896SOL     OW16526  13.235   9.721   4.633
 4896SOL    HW116527  13.161   9.662   4.647
 4896SOL    HW216528  13.203   9.806   4.664
 4897SOL     OW16529  12.841   4.461   8.210
 4897SOL    HW116530  12.813   4.530   8.150
 4897SOL    HW216531  12.928   4.487   8.239
 4898SOL     OW16532   0.746   2.213  10.958
 4898SOL    HW116533   0.654   2.203  10.983
 4898SOL    HW216534   0.772   2.297  10.995
 4899SOL     OW16535   6.730   7.667   3.160
 4899SOL    HW116536   6.754   7.712   3.241
 4899SOL    HW216537   6.785   7.588   3.160
 4900SOL     OW16538   1.606   1.271   3.485
 4900SOL    HW116539   1.671   1.339   3.506
 4900SOL    HW216540   1.588   1.284   3.392
 4901SOL     OW16541   1.965   8.243   5.465
 4901SOL    HW116542   1.899   8.301   5.426
 4901SOL    HW216543   2.039   8.248   5.404
 4902SOL     OW16544  12.094  11.561   7.414
 4902SOL    HW116545  12.066  11.470   7.404
 4902SOL    HW216546  12.014  11.607   7.440
 4903SOL     OW16547   7.604   9.113  11.148
 4903SOL    HW116548   7.596   9.021  11.121
 4903SOL    HW216549   7.520   9.152  11.122
 4904SOL     OW16550  11.321   9.174   9.320
 4904SOL    HW116551  11.376   9.134   9.252
 4904SOL    HW216552  11.362   9.260   9.335
 4905SOL     OW16553  12.191   7.243   8.932
 4905SOL    HW116554  12.121   7.263   8.869
 4905SOL    HW216555  12.257   7.197   8.881
 4906SOL     OW16556   0.200  12.494  11.526
 4906SOL    HW116557   0.112  12.478  11.494
 4906SOL    HW216558   0.251  12.514  11.448
 4907SOL     OW16559   5.800   2.509   4.969
 4907SOL    HW116560   5.849   2.522   4.888
 4907SOL    HW216561   5.867   2.499   5.036
 4908SOL     OW16562  13.601   2.732   2.586
 4908SOL    HW116563  13.569   2.649   2.552
 4908SOL    HW216564  13.568   2.798   2.524
 4909SOL     OW16565   6.978   3.178  10.808
 4909SOL    HW116566   6.919   3.117  10.764
 4909SOL    HW216567   7.034   3.212  10.738
 4910SOL     OW16568   0.488  12.398   3.910
 4910SOL    HW116569   0.484  12.488   3.877
 4910SOL    HW216570   0.506  12.407   4.004
 4911SOL     OW16571   0.424   0.881   1.232
 4911SOL    HW116572   0.360   0.911   1.297
 4911SOL    HW216573   0.378   0.889   1.148
 4912SOL     OW16574  10.712   5.529  13.870
 4912SOL    HW116575  10.742   5.603  13.816
 4912SOL    HW216576  10.617   5.526  13.855
 4913SOL     OW16577   4.433   9.725   1.404
 4913SOL    HW116578   4.366   9.740   1.337
 4913SOL    HW216579   4.501   9.791   1.386
 4914SOL     OW16580  14.151   5.545   8.617
 4914SOL    HW116581  14.115   5.575   8.701
 4914SOL    HW216582  14.244   5.566   8.621
 4915SOL     OW16583   0.136   2.880  10.179
 4915SOL    HW116584   0.106   2.789  10.187
 4915SOL    HW216585   0.177   2.884  10.093
 4916SOL     OW16586   7.330   9.276   1.300
 4916SOL    HW116587   7.297   9.276   1.390
 4916SOL    HW216588   7.292   9.197   1.262
 4917SOL     OW16589   4.812   6.429  13.743
 4917SOL    HW116590   4.770   6.374  13.809
 4917SOL    HW216591   4.901   6.443  13.775
 4918SOL     OW16592   1.297   7.322   2.951
 4918SOL    HW116593   1.381   7.276   2.960
 4918SOL    HW216594   1.305   7.398   3.009
 4919SOL     OW16595   7.518  12.525  14.096
 4919SOL    HW116596   7.429  12.495  14.111
 4919SOL    HW216597   7.531  12.596  14.159
 4920SOL     OW16598   8.001   0.479   5.947
 4920SOL    HW116599   8.072   0.438   5.899
 4920SOL    HW216600   7.995   0.429   6.028
 4921SOL     OW16601   7.083   9.614   0.401
 4921SOL    HW116602   7.023   9.677   0.360
 4921SOL    HW216603   7.170   9.643   0.373
 4922SOL     OW16604  13.534   2.703   9.422
 4922SOL    HW116605  13.527   2.709   9.518
 4922SOL    HW216606  13.628   2.693   9.406
 4923SOL     OW16607   6.707   9.756  11.215
 4923SOL    HW116608   6.631   9.771  11.158
 4923SOL    HW216609   6.704   9.663  11.235
 4924SOL     OW16610   0.142  11.374  11.175
 4924SOL    HW116611   0.171  11.329  11.096
 4924SOL    HW216612   0.139  11.466  11.151
 4925SOL     OW16613  13.215   3.119  13.974
 4925SOL    HW116614  13.191   3.043  14.028
 4925SOL    HW216615  13.309   3.107  13.958
 4926SOL     OW16616   1.858  12.079   2.960
 4926SOL    HW116617   1.909  12.159   2.944
 4926SOL    HW216618   1.815  12.095   3.044
 4927SOL     OW16619  10.285  11.854  11.869
 4927SOL    HW116620  10.322  11.842  11.956
 4927SOL    HW216621  10.230  11.932  11.877
 4928SOL     OW16622   4.163  11.267   9.015
 4928SOL    HW116623   4.109  11.227   9.083
 4928SOL    HW216624   4.137  11.223   8.934
 4929SOL     OW16625   5.136  14.385   2.763
 4929SOL    HW116626   5.059  14.328   2.770
 4929SOL    HW216627   5.117  14.443   2.689
 4930SOL     OW16628   1.730   8.000   5.222
 4930SOL    HW116629   1.771   7.941   5.285
 4930SOL    HW216630   1.703   8.076   5.273
 4931SOL     OW16631   5.285   0.492   8.390
 4931SOL    HW116632   5.268   0.579   8.426
 4931SOL    HW216633   5.348   0.507   8.319
 4932SOL     OW16634   9.929   5.374  10.604
 4932SOL    HW116635   9.896   5.365  10.514
 4932SOL    HW216636  10.005   5.432  10.596
 4933SOL     OW16637   1.734  12.736  10.487
 4933SOL    HW116638   1.771  12.676  10.421
 4933SOL    HW216639   1.711  12.680  10.560
 4934SOL     OW16640   9.249  11.332   0.925
 4934SOL    HW116641   9.168  11.286   0.948
 4934SOL    HW216642   9.296  11.270   0.868
 4935SOL     OW16643   1.166  11.923  10.368
 4935SOL    HW116644   1.106  11.954  10.435
 4935SOL    HW216645   1.168  11.994  10.303
 4936SOL     OW16646   9.136  12.518  10.300
 4936SOL    HW116647   9.050  12.509  10.341
 4936SOL    HW216648   9.191  12.555  10.370
 4937SOL     OW16649   1.974   3.306   3.616
 4937SOL    HW116650   2.038   3.330   3.549
 4937SOL    HW216651   2.003   3.352   3.695
 4938SOL     OW16652   7.533   9.953  13.264
 4938SOL    HW116653   7.462   9.913  13.314
 4938SOL    HW216654   7.544   9.896  13.188
 4939SOL     OW16655   7.400   4.237  14.553
 4939SOL    HW116656   7.314   4.218  14.591
 4939SOL    HW216657   7.404   4.332  14.549
 4940SOL     OW16658   7.354   6.171   4.275
 4940SOL    HW116659   7.367   6.081   4.302
 4940SOL    HW216660   7.266   6.173   4.238
 4941SOL     OW16661   0.030  11.777   4.771
 4941SOL    HW116662  14.840  11.825   4.721
 4941SOL    HW216663   0.066  11.842   4.831
 4942SOL     OW16664  12.290   7.537  10.172
 4942SOL    HW116665  12.349   7.612  10.177
 4942SOL    HW216666  12.267   7.531  10.080
 4943SOL     OW16667  10.299   7.313   2.143
 4943SOL    HW116668  10.272   7.225   2.171
 4943SOL    HW216669  10.360   7.297   2.070
 4944SOL     OW16670  13.956   8.659  13.270
 4944SOL    HW116671  13.942   8.635  13.178
 4944SOL    HW216672  13.878   8.627  13.315
 4945SOL     OW16673   0.751  12.116   0.630
 4945SOL    HW116674   0.774  12.041   0.575
 4945SOL    HW216675   0.818  12.115   0.699
 4946SOL     OW16676   8.280   0.959   2.967
 4946SOL    HW116677   8.268   0.923   3.054
 4946SOL    HW216678   8.323   1.043   2.981
 4947SOL     OW16679  11.070   3.591  13.896
 4947SOL    HW116680  11.106   3.674  13.926
 4947SOL    HW216681  10.976   3.607  13.889
 4948SOL     OW16682   6.084  14.733   5.956
 4948SOL    HW116683   6.135  14.662   5.995
 4948SOL    HW216684   6.147  14.804   5.944
 4949SOL     OW16685   2.926  11.458  11.027
 4949SOL    HW116686   2.938  11.452  11.122
 4949SOL    HW216687   2.856  11.396  11.008
 4950SOL     OW16688  14.490   5.120   4.076
 4950SOL    HW116689  14.480   5.215   4.067
 4950SOL    HW216690  14.410   5.083   4.038
 4951SOL     OW16691  12.183   9.294  13.419
 4951SOL    HW116692  12.120   9.259  13.356
 4951SOL    HW216693  12.267   9.287  13.375
 4952SOL     OW16694   7.484  12.484  12.021
 4952SOL    HW116695   7.476  12.487  12.116
 4952SOL    HW216696   7.578  12.477  12.005
 4953SOL     OW16697   4.624   3.891   0.237
 4953SOL    HW116698   4.694   3.948   0.204
 4953SOL    HW216699   4.670   3.824   0.288
 4954SOL     OW16700   6.589   8.935   6.966
 4954SOL    HW116701   6.614   8.926   7.058
 4954SOL    HW216702   6.544   8.853   6.945
 4955SOL     OW16703   2.640  11.307  14.605
 4955SOL    HW116704   2.575  11.237  14.613
 4955SOL    HW216705   2.676  11.296  14.517
 4956SOL     OW16706   2.061   1.411   6.730
 4956SOL    HW116707   2.116   1.349   6.778
 4956SOL    HW216708   2.115   1.489   6.720
 4957SOL     OW16709  10.784   5.835   6.233
 4957SOL    HW116710  10.853   5.893   6.265
 4957SOL    HW216711  10.724   5.826   6.307
 4958SOL     OW16712   3.368  10.273   6.509
 4958SOL    HW116713   3.448  10.278   6.457
 4958SOL    HW216714   3.353  10.179   6.521
 4959SOL     OW16715   1.003  14.247   3.921
 4959SOL    HW116716   1.015  14.207   3.835
 4959SOL    HW216717   0.961  14.331   3.902
 4960SOL     OW16718  11.693   5.639   8.089
 4960SOL    HW116719  11.619   5.651   8.030
 4960SOL    HW216720  11.682   5.708   8.156
 4961SOL     OW16721   5.714  11.383   1.241
 4961SOL    HW116722   5.770  11.459   1.254
 4961SOL    HW216723   5.702  11.347   1.328
 4962SOL     OW16724   1.515   8.436  13.604
 4962SOL    HW116725   1.549   8.365  13.550
 4962SOL    HW216726   1.428   8.455  13.569
 4963SOL     OW16727  10.886   7.935   2.082
 4963SOL    HW116728  10.965   7.923   2.030
 4963SOL    HW216729  10.902   8.014   2.133
 4964SOL     OW16730   2.581  13.637   4.235
 4964SOL    HW116731   2.496  13.623   4.193
 4964SOL    HW216732   2.617  13.713   4.190
 4965SOL     OW16733   3.406   9.333  10.406
 4965SOL    HW116734   3.451   9.345  10.489
 4965SOL    HW216735   3.404   9.238  10.393
 4966SOL     OW16736   0.179  10.491  10.468
 4966SOL    HW116737   0.084  10.488  10.474
 4966SOL    HW216738   0.210  10.460  10.553
 4967SOL     OW16739   7.785   0.833   6.117
 4967SOL    HW116740   7.838   0.805   6.042
 4967SOL    HW216741   7.809   0.924   6.130
 4968SOL     OW16742   3.093   1.186   6.998
 4968SOL    HW116743   3.090   1.196   6.903
 4968SOL    HW216744   3.041   1.259   7.031
 4969SOL     OW16745   1.686  11.945  12.652
 4969SOL    HW116746   1.619  11.891  12.610
 4969SOL    HW216747   1.764  11.889  12.653
 4970SOL     OW16748   2.175   4.248   7.717
 4970SOL    HW116749   2.149   4.159   7.740
 4970SOL    HW216750   2.157   4.300   7.795
 4971SOL     OW16751   0.739  10.660   6.858
 4971SOL    HW116752   0.731  10.568   6.833
 4971SOL    HW216753   0.722  10.709   6.777
 4972SOL     OW16754   4.698   2.462  11.444
 4972SOL    HW116755   4.696   2.518  11.521
 4972SOL    HW216756   4.713   2.374  11.478
 4973SOL     OW16757  12.713   9.498   8.275
 4973SOL    HW116758  12.683   9.494   8.365
 4973SOL    HW216759  12.792   9.443   8.274
 4974SOL     OW16760  12.663  11.659  12.939
 4974SOL    HW116761  12.740  11.646  12.993
 4974SOL    HW216762  12.621  11.572  12.937
 4975SOL     OW16763   3.500  14.532   5.390
 4975SOL    HW116764   3.474  14.624   5.385
 4975SOL    HW216765   3.424  14.484   5.358
 4976SOL     OW16766   0.989   4.778   4.542
 4976SOL    HW116767   0.895   4.785   4.525
 4976SOL    HW216768   1.023   4.723   4.471
 4977SOL     OW16769   6.380  10.687  13.774
 4977SOL    HW116770   6.421  10.769  13.804
 4977SOL    HW216771   6.376  10.696  13.679
 4978SOL     OW16772   5.240   4.826   1.725
 4978SOL    HW116773   5.264   4.761   1.659
 4978SOL    HW216774   5.205   4.900   1.675
 4979SOL     OW16775   5.726   8.137   1.366
 4979SOL    HW116776   5.631   8.144   1.377
 4979SOL    HW216777   5.746   8.198   1.295
 4980SOL     OW16778   4.209   6.026  12.196
 4980SOL    HW116779   4.240   6.103  12.149
 4980SOL    HW216780   4.122   6.051  12.227
 4981SOL     OW16781   7.394   7.429  12.655
 4981SOL    HW116782   7.407   7.335  12.642
 4981SOL    HW216783   7.467   7.455  12.712
 4982SOL     OW16784   9.039   9.675  10.460
 4982SOL    HW116785   8.982   9.621  10.515
 4982SOL    HW216786   8.979   9.718  10.399
 4983SOL     OW16787   4.418   5.737   2.603
 4983SOL    HW116788   4.509   5.747   2.633
 4983SOL    HW216789   4.395   5.824   2.569
 4984SOL     OW16790  11.364   0.470   5.829
 4984SOL    HW116791  11.363   0.558   5.866
 4984SOL    HW216792  11.437   0.426   5.873
 4985SOL     OW16793   8.347   0.951   9.575
 4985SOL    HW116794   8.282   0.988   9.633
 4985SOL    HW216795   8.315   0.969   9.487
 4986SOL     OW16796   0.513   9.688   0.262
 4986SOL    HW116797   0.422   9.685   0.294
 4986SOL    HW216798   0.557   9.618   0.309
 4987SOL     OW16799   8.085   9.229   3.474
 4987SOL    HW116800   8.002   9.277   3.486
 4987SOL    HW216801   8.061   9.154   3.420
 4988SOL     OW16802   7.501   6.442  12.103
 4988SOL    HW116803   7.460   6.471  12.022
 4988SOL    HW216804   7.589   6.414  12.077
 4989SOL     OW16805   3.198  14.186   8.623
 4989SOL    HW116806   3.159  14.110   8.581
 4989SOL    HW216807   3.135  14.257   8.607
 4990SOL     OW16808   9.551   4.779   3.042
 4990SOL    HW116809   9.498   4.714   2.995
 4990SOL    HW216810   9.566   4.848   2.977
 4991SOL     OW16811   7.185  14.272  13.051
 4991SOL    HW116812   7.108  14.329  13.063
 4991SOL    HW216813   7.182  14.247  12.959
 4992SOL     OW16814  11.738   5.882   4.406
 4992SOL    HW116815  11.675   5.887   4.335
 4992SOL    HW216816  11.822   5.868   4.363
 4993SOL     OW16817   4.199   3.895   4.187
 4993SOL    HW116818   4.271   3.849   4.231
 4993SOL    HW216819   4.124   3.837   4.198
 4994SOL     OW16820   2.545  14.620   0.992
 4994SOL    HW116821   2.517  14.529   0.980
 4994SOL    HW216822   2.493  14.651   1.066
 4995SOL     OW16823   2.535   9.033   5.838
 4995SOL    HW116824   2.549   9.126   5.821
 4995SOL    HW216825   2.492   9.000   5.759
 4996SOL     OW16826   8.320   8.916  13.404
 4996SOL    HW116827   8.277   8.916  13.489
 4996SOL    HW216828   8.258   8.872  13.346
 4997SOL     OW16829   2.449   8.060   0.639
 4997SOL    HW116830   2.388   8.102   0.579
 4997SOL    HW216831   2.521   8.030   0.584
 4998SOL     OW16832  10.960   4.240   1.645
 4998SOL    HW116833  11.007   4.183   1.583
 4998SOL    HW216834  11.027   4.297   1.681
 4999SOL     OW16835   3.495   6.304   9.677
 4999SOL    HW116836   3.521   6.263   9.595
 4999SOL    HW216837   3.570   6.291   9.735
 5000SOL     OW16838   8.584   4.150   6.069
 5000SOL    HW116839   8.536   4.092   6.010
 5000SOL    HW216840   8.624   4.091   6.133
 5001SOL     OW16841   6.260   0.021  12.906
 5001SOL    HW116842   6.186   0.076  12.931
 5001SOL    HW216843   6.336   0.080  12.911
 5002SOL     OW16844   4.422   5.569   9.821
 5002SOL    HW116845   4.477   5.574   9.743
 5002SOL    HW216846   4.464   5.628   9.884
 5003SOL     OW16847  10.008  12.983  11.877
 5003SOL    HW116848  10.074  12.921  11.907
 5003SOL    HW216849   9.970  13.018  11.958
 5004SOL     OW16850  13.771   2.184   3.413
 5004SOL    HW116851  13.764   2.277   3.389
 5004SOL    HW216852  13.709   2.174   3.485
 5005SOL     OW16853  12.610  13.998   2.639
 5005SOL    HW116854  12.601  14.020   2.546
 5005SOL    HW216855  12.524  14.017   2.676
 5006SOL     OW16856   7.605  12.645  11.827
 5006SOL    HW116857   7.527  12.611  11.870
 5006SOL    HW216858   7.649  12.568  11.790
 5007SOL     OW16859  12.554   8.160   8.012
 5007SOL    HW116860  12.503   8.118   8.082
 5007SOL    HW216861  12.597   8.087   7.967
 5008SOL     OW16862   6.931  12.091  13.400
 5008SOL    HW116863   7.015  12.056  13.370
 5008SOL    HW216864   6.897  12.139  13.325
 5009SOL     OW16865   5.557   1.989  13.871
 5009SOL    HW116866   5.497   2.023  13.804
 5009SOL    HW216867   5.572   1.898  13.846
 5010SOL     OW16868   0.105   9.315  10.986
 5010SOL    HW116869   0.158   9.386  10.949
 5010SOL    HW216870   0.078   9.347  11.071
 5011SOL     OW16871   5.412   3.827   6.802
 5011SOL    HW116872   5.484   3.788   6.851
 5011SOL    HW216873   5.389   3.761   6.737
 5012SOL     OW16874   2.941  12.847   8.098
 5012SOL    HW116875   2.891  12.909   8.045
 5012SOL    HW216876   3.014  12.898   8.133
 5013SOL     OW16877  10.879  13.208   1.719
 5013SOL    HW116878  10.901  13.200   1.626
 5013SOL    HW216879  10.872  13.118   1.750
 5014SOL     OW16880  14.481  11.139   6.080
 5014SOL    HW116881  14.442  11.168   6.163
 5014SOL    HW216882  14.476  11.216   6.023
 5015SOL     OW16883   7.352   7.791   9.004
 5015SOL    HW116884   7.285   7.784   9.072
 5015SOL    HW216885   7.311   7.843   8.936
 5016SOL     OW16886   6.867  13.162   5.628
 5016SOL    HW116887   6.822  13.238   5.592
 5016SOL    HW216888   6.799  13.094   5.634
 5017SOL     OW16889  13.324  12.345   3.138
 5017SOL    HW116890  13.366  12.277   3.190
 5017SOL    HW216891  13.395  12.388   3.091
 5018SOL     OW16892   6.466   8.087   1.702
 5018SOL    HW116893   6.482   8.013   1.760
 5018SOL    HW216894   6.480   8.164   1.756
 5019SOL     OW16895   3.994   3.617   3.177
 5019SOL    HW116896   4.023   3.534   3.138
 5019SOL    HW216897   3.947   3.662   3.106
 5020SOL     OW16898  14.297   1.923  14.772
 5020SOL    HW116899  14.257   1.934  14.858
 5020SOL    HW216900  14.279   2.005  14.726
 5021SOL     OW16901  10.444   7.432   4.191
 5021SOL    HW116902  10.402   7.422   4.276
 5021SOL    HW216903  10.444   7.526   4.175
 5022SOL     OW16904  14.412   7.871  12.085
 5022SOL    HW116905  14.407   7.920  12.167
 5022SOL    HW216906  14.436   7.936  12.019
 5023SOL     OW16907   9.672   1.935  13.936
 5023SOL    HW116908   9.620   1.858  13.960
 5023SOL    HW216909   9.762   1.909  13.955
 5024SOL     OW16910  12.132  12.565   8.575
 5024SOL    HW116911  12.050  12.516   8.570
 5024SOL    HW216912  12.197  12.500   8.602
 5025SOL     OW16913  10.384   7.499  12.169
 5025SOL    HW116914  10.364   7.558  12.097
 5025SOL    HW216915  10.323   7.426  12.158
 5026SOL     OW16916   9.413   0.344   8.832
 5026SOL    HW116917   9.425   0.415   8.894
 5026SOL    HW216918   9.423   0.264   8.884
 5027SOL     OW16919   0.648   2.769   1.799
 5027SOL    HW116920   0.689   2.853   1.817
 5027SOL    HW216921   0.631   2.769   1.705
 5028SOL     OW16922  13.594   9.256   8.335
 5028SOL    HW116923  13.508   9.298   8.343
 5028SOL    HW216924  13.627   9.252   8.425
 5029SOL     OW16925   7.304  13.953   1.785
 5029SOL    HW116926   7.284  14.029   1.840
 5029SOL    HW216927   7.341  13.990   1.705
 5030SOL     OW16928   2.755   4.650   8.821
 5030SOL    HW116929   2.757   4.686   8.909
 5030SOL    HW216930   2.680   4.692   8.779
 5031SOL     OW16931  14.601   7.857   7.329
 5031SOL    HW116932  14.686   7.890   7.302
 5031SOL    HW216933  14.538   7.912   7.282
 5032SOL     OW16934   7.551   0.239  10.989
 5032SOL    HW116935   7.520   0.313  11.042
 5032SOL    HW216936   7.475   0.213  10.937
 5033SOL     OW16937   1.442   2.752   0.920
 5033SOL    HW116938   1.444   2.734   0.827
 5033SOL    HW216939   1.508   2.694   0.958
 5034SOL     OW16940  10.038  11.079   7.431
 5034SOL    HW116941  10.067  11.039   7.513
 5034SOL    HW216942   9.971  11.020   7.397
 5035SOL     OW16943   1.425   3.793   2.999
 5035SOL    HW116944   1.332   3.768   3.001
 5035SOL    HW216945   1.427   3.882   3.035
 5036SOL     OW16946   4.109   8.265   7.154
 5036SOL    HW116947   4.028   8.276   7.104
 5036SOL    HW216948   4.123   8.351   7.195
 5037SOL     OW16949   5.015  13.101  11.167
 5037SOL    HW116950   4.979  13.152  11.240
 5037SOL    HW216951   5.110  13.104  11.181
 5038SOL     OW16952  12.799   0.719   3.309
 5038SOL    HW116953  12.821   0.626   3.311
 5038SOL    HW216954  12.781   0.737   3.217
 5039SOL     OW16955  11.688  14.406  14.409
 5039SOL    HW116956  11.680  14.311  14.402
 5039SOL    HW216957  11.650  14.428  14.494
 5040SOL     OW16958  13.089  14.586  11.298
 5040SOL    HW116959  13.175  14.605  11.336
 5040SOL    HW216960  13.028  14.595  11.371
 5041SOL     OW16961   9.177  11.460   7.884
 5041SOL    HW116962   9.257  11.490   7.842
 5041SOL    HW216963   9.124  11.539   7.896
 5042SOL     OW16964   7.433   6.316  12.352
 5042SOL    HW116965   7.436   6.373  12.275
 5042SOL    HW216966   7.521   6.280  12.360
 5043SOL     OW16967   5.747   9.687   6.689
 5043SOL    HW116968   5.785   9.756   6.635
 5043SOL    HW216969   5.728   9.730   6.773
 5044SOL     OW16970  14.614   6.555  13.523
 5044SOL    HW116971  14.694   6.568  13.575
 5044SOL    HW216972  14.555   6.624  13.552
 5045SOL     OW16973   5.178   5.025   3.747
 5045SOL    HW116974   5.103   5.026   3.807
 5045SOL    HW216975   5.205   5.116   3.740
 5046SOL     OW16976  14.252   8.675  11.570
 5046SOL    HW116977  14.296   8.748  11.526
 5046SOL    HW216978  14.201   8.715  11.640
 5047SOL     OW16979   7.798  11.120  10.233
 5047SOL    HW116980   7.893  11.119  10.222
 5047SOL    HW216981   7.784  11.138  10.326
 5048SOL     OW16982   9.426  14.770   8.944
 5048SOL    HW116983   9.364  14.840   8.964
 5048SOL    HW216984   9.507  14.815   8.921
 5049SOL     OW16985  14.412   5.039   7.195
 5049SOL    HW116986  14.363   4.996   7.266
 5049SOL    HW216987  14.476   4.973   7.168
 5050SOL     OW16988   7.759  13.706  12.730
 5050SOL    HW116989   7.674  13.669  12.755
 5050SOL    HW216990   7.766  13.687  12.636
 5051SOL     OW16991  11.428   7.178   3.940
 5051SOL    HW116992  11.335   7.170   3.959
 5051SOL    HW216993  11.460   7.241   4.005
 5052SOL     OW16994   3.463   5.383   5.480
 5052SOL    HW116995   3.492   5.366   5.570
 5052SOL    HW216996   3.398   5.315   5.464
 5053SOL     OW16997  13.007  12.171   7.946
 5053SOL    HW116998  12.924  12.217   7.958
 5053SOL    HW216999  13.073  12.240   7.957
 5054SOL     OW17000   5.656  13.458   3.259
 5054SOL    HW117001   5.724  13.436   3.323
 5054SOL    HW217002   5.626  13.373   3.226
 5055SOL     OW17003   5.482  14.754   5.221
 5055SOL    HW117004   5.464  14.662   5.201
 5055SOL    HW217005   5.577  14.759   5.228
 5056SOL     OW17006  14.111  12.765   1.947
 5056SOL    HW117007  14.090  12.672   1.938
 5056SOL    HW217008  14.203  12.771   1.921
 5057SOL     OW17009  12.683   6.130  12.181
 5057SOL    HW117010  12.681   6.106  12.088
 5057SOL    HW217011  12.592   6.150  12.202
 5058SOL     OW17012   0.867   2.674   3.217
 5058SOL    HW117013   0.917   2.665   3.298
 5058SOL    HW217014   0.803   2.742   3.236
 5059SOL     OW17015   5.754   4.593   9.059
 5059SOL    HW117016   5.666   4.619   9.030
 5059SOL    HW217017   5.751   4.600   9.154
 5060SOL     OW17018   3.223   3.371  11.790
 5060SOL    HW117019   3.140   3.363  11.838
 5060SOL    HW217020   3.253   3.460  11.810
 5061SOL     OW17021  14.360   2.345   5.383
 5061SOL    HW117022  14.447   2.362   5.348
 5061SOL    HW217023  14.321   2.432   5.395
 5062SOL     OW17024  13.298   2.665  13.852
 5062SOL    HW117025  13.384   2.642  13.817
 5062SOL    HW217026  13.253   2.708  13.779
 5063SOL     OW17027   6.365   9.830  12.118
 5063SOL    HW117028   6.455   9.801  12.134
 5063SOL    HW217029   6.343   9.792  12.033
 5064SOL     OW17030  14.010  11.423   3.835
 5064SOL    HW117031  14.040  11.357   3.897
 5064SOL    HW217032  14.091  11.457   3.795
 5065SOL     OW17033  11.576   4.010   8.533
 5065SOL    HW117034  11.617   3.960   8.603
 5065SOL    HW217035  11.649   4.035   8.476
 5066SOL     OW17036  10.032   1.855   8.428
 5066SOL    HW117037   9.945   1.850   8.466
 5066SOL    HW217038  10.047   1.948   8.413
 5067SOL     OW17039   2.997  14.167   2.200
 5067SOL    HW117040   3.027  14.245   2.155
 5067SOL    HW217041   2.918  14.196   2.247
 5068SOL     OW17042  14.858   8.725   6.155
 5068SOL    HW117043   0.076   8.743   6.151
 5068SOL    HW217044  14.817   8.807   6.127
 5069SOL     OW17045   4.606   5.660   0.921
 5069SOL    HW117046   4.545   5.609   0.974
 5069SOL    HW217047   4.629   5.735   0.976
 5070SOL     OW17048   0.230   5.763   3.860
 5070SOL    HW117049   0.153   5.770   3.917
 5070SOL    HW217050   0.255   5.671   3.865
 5071SOL     OW17051   5.633   2.313   3.278
 5071SOL    HW117052   5.727   2.331   3.283
 5071SOL    HW217053   5.595   2.390   3.236
 5072SOL     OW17054   5.917   0.657   4.661
 5072SOL    HW117055   5.953   0.663   4.572
 5072SOL    HW217056   5.881   0.568   4.666
 5073SOL     OW17057   9.360  13.307   8.022
 5073SOL    HW117058   9.312  13.239   8.069
 5073SOL    HW217059   9.309  13.387   8.036
 5074SOL     OW17060   9.685  13.159   6.596
 5074SOL    HW117061   9.659  13.245   6.564
 5074SOL    HW217062   9.781  13.161   6.598
 5075SOL     OW17063   5.200  12.109   5.252
 5075SOL    HW117064   5.233  12.067   5.172
 5075SOL    HW217065   5.272  12.166   5.281
 5076SOL     OW17066   8.733  14.865  13.919
 5076SOL    HW117067   8.816  14.822  13.939
 5076SOL    HW217068   8.687  14.870  14.002
 5077SOL     OW17069  14.664   7.499  10.728
 5077SOL    HW117070  14.688   7.413  10.763
 5077SOL    HW217071  14.594   7.530  10.785
 5078SOL     OW17072  13.459   9.930   7.655
 5078SOL    HW117073  13.409   9.950   7.576
 5078SOL    HW217074  13.547   9.962   7.636
 5079SOL     OW17075   2.646   5.398   0.978
 5079SOL    HW117076   2.706   5.465   1.011
 5079SOL    HW217077   2.625   5.426   0.889
 5080SOL     OW17078   1.673   4.193   1.066
 5080SOL    HW117079   1.674   4.137   0.988
 5080SOL    HW217080   1.723   4.144   1.131
 5081SOL     OW17081  11.862   0.843  14.846
 5081SOL    HW117082  11.777   0.845   0.014
 5081SOL    HW217083  11.902   0.927  14.866
 5082SOL     OW17084   7.109  12.675   5.263
 5082SOL    HW117085   7.027  12.725   5.267
 5082SOL    HW217086   7.175  12.735   5.297
 5083SOL     OW17087   5.125   6.052   2.921
 5083SOL    HW117088   5.093   6.141   2.907
 5083SOL    HW217089   5.139   6.046   3.015
 5084SOL     OW17090   3.607   2.108   1.017
 5084SOL    HW117091   3.514   2.104   1.040
 5084SOL    HW217092   3.653   2.081   1.096
 5085SOL     OW17093   6.838  13.538  10.127
 5085SOL    HW117094   6.869  13.469  10.068
 5085SOL    HW217095   6.879  13.518  10.211
 5086SOL     OW17096   2.986   0.655  12.122
 5086SOL    HW117097   3.034   0.573  12.129
 5086SOL    HW217098   2.894   0.629  12.118
 5087SOL     OW17099   0.769  12.137  10.647
 5087SOL    HW117100   0.787  12.129  10.741
 5087SOL    HW217101   0.685  12.183  10.643
 5088SOL     OW17102  11.984   0.781  12.994
 5088SOL    HW117103  11.928   0.828  13.057
 5088SOL    HW217104  12.033   0.851  12.950
 5089SOL     OW17105   9.813   3.761   9.559
 5089SOL    HW117106   9.737   3.713   9.594
 5089SOL    HW217107   9.775   3.836   9.513
 5090SOL     OW17108  13.571   7.157   7.269
 5090SOL    HW117109  13.479   7.137   7.250
 5090SOL    HW217110  13.586   7.241   7.226
 5091SOL     OW17111   6.991  10.837   9.406
 5091SOL    HW117112   6.902  10.862   9.380
 5091SOL    HW217113   6.979  10.759   9.460
 5092SOL     OW17114   6.159  11.812   4.324
 5092SOL    HW117115   6.121  11.734   4.284
 5092SOL    HW217116   6.083  11.863   4.353
 5093SOL     OW17117  10.457   2.600   6.009
 5093SOL    HW117118  10.459   2.505   6.016
 5093SOL    HW217119  10.418   2.630   6.091
 5094SOL     OW17120  10.569   5.148   4.721
 5094SOL    HW117121  10.516   5.122   4.797
 5094SOL    HW217122  10.506   5.171   4.654
 5095SOL     OW17123  11.155   5.420   9.437
 5095SOL    HW117124  11.189   5.457   9.519
 5095SOL    HW217125  11.229   5.424   9.377
 5096SOL     OW17126   8.117   3.644  13.532
 5096SOL    HW117127   8.022   3.649  13.549
 5096SOL    HW217128   8.130   3.557  13.495
 5097SOL     OW17129  11.569   6.774   8.402
 5097SOL    HW117130  11.619   6.743   8.478
 5097SOL    HW217131  11.589   6.711   8.333
 5098SOL     OW17132   6.246  14.435  10.966
 5098SOL    HW117133   6.252  14.403  11.056
 5098SOL    HW217134   6.182  14.377  10.925
 5099SOL     OW17135  12.557   2.340   1.667
 5099SOL    HW117136  12.537   2.433   1.655
 5099SOL    HW217137  12.506   2.314   1.744
 5100SOL     OW17138   3.484  10.851   3.539
 5100SOL    HW117139   3.514  10.942   3.537
 5100SOL    HW217140   3.565  10.799   3.530
 5101SOL     OW17141   8.703   4.444  11.577
 5101SOL    HW117142   8.689   4.516  11.638
 5101SOL    HW217143   8.782   4.401  11.609
 5102SOL     OW17144  11.438  14.046  13.582
 5102SOL    HW117145  11.417  14.005  13.498
 5102SOL    HW217146  11.356  14.085  13.611
 5103SOL     OW17147   9.471   4.974  10.748
 5103SOL    HW117148   9.391   5.000  10.703
 5103SOL    HW217149   9.472   5.027  10.828
 5104SOL     OW17150  13.602   9.811  13.207
 5104SOL    HW117151  13.599   9.770  13.294
 5104SOL    HW217152  13.690   9.792  13.175
 5105SOL     OW17153   4.433   8.927  14.538
 5105SOL    HW117154   4.488   8.992  14.493
 5105SOL    HW217155   4.490   8.850  14.548
 5106SOL     OW17156  13.560   9.627   1.241
 5106SOL    HW117157  13.539   9.641   1.149
 5106SOL    HW217158  13.647   9.586   1.240
 5107SOL     OW17159   8.311  12.364   4.084
 5107SOL    HW117160   8.307  12.273   4.115
 5107SOL    HW217161   8.257  12.364   4.005
 5108SOL     OW17162  10.772   0.432  14.783
 5108SOL    HW117163  10.721   0.495  14.834
 5108SOL    HW217164  10.847   0.411  14.839
 5109SOL     OW17165  10.973  11.383   4.949
 5109SOL    HW117166  11.025  11.355   4.873
 5109SOL    HW217167  11.027  11.359   5.024
 5110SOL     OW17168  12.636   3.303   1.213
 5110SOL    HW117169  12.677   3.389   1.220
 5110SOL    HW217170  12.544   3.322   1.196
 5111SOL     OW17171  10.559   4.048   5.495
 5111SOL    HW117172  10.553   4.111   5.567
 5111SOL    HW217173  10.651   4.020   5.495
 5112SOL     OW17174  14.327   8.211   6.129
 5112SOL    HW117175  14.351   8.297   6.164
 5112SOL    HW217176  14.369   8.148   6.187
 5113SOL     OW17177  12.318  14.415  14.759
 5113SOL    HW117178  12.287  14.330  14.727
 5113SOL    HW217179  12.410  14.419  14.732
 5114SOL     OW17180   9.694  10.986  10.694
 5114SOL    HW117181   9.742  10.980  10.611
 5114SOL    HW217182   9.749  11.040  10.750
 5115SOL     OW17183  10.823   2.144   2.187
 5115SOL    HW117184  10.868   2.196   2.121
 5115SOL    HW217185  10.873   2.063   2.192
 5116SOL     OW17186   4.160  14.325  10.621
 5116SOL    HW117187   4.159  14.413  10.582
 5116SOL    HW217188   4.152  14.266  10.546
 5117SOL     OW17189  12.684   6.564   1.873
 5117SOL    HW117190  12.692   6.523   1.959
 5117SOL    HW217191  12.621   6.509   1.826
 5118SOL     OW17192   7.437   3.855   9.875
 5118SOL    HW117193   7.408   3.919   9.810
 5118SOL    HW217194   7.520   3.889   9.906
 5119SOL     OW17195  13.610   5.910  12.946
 5119SOL    HW117196  13.522   5.915  12.984
 5119SOL    HW217197  13.666   5.888  13.020
 5120SOL     OW17198  10.523   2.344   8.822
 5120SOL    HW117199  10.597   2.369   8.878
 5120SOL    HW217200  10.469   2.423   8.817
 5121SOL     OW17201  10.992  14.540   9.348
 5121SOL    HW117202  10.991  14.604   9.419
 5121SOL    HW217203  10.934  14.577   9.282
 5122SOL     OW17204  10.257   4.911   3.012
 5122SOL    HW117205  10.175   4.956   3.032
 5122SOL    HW217206  10.240   4.863   2.932
 5123SOL     OW17207   8.371  12.190   7.522
 5123SOL    HW117208   8.278  12.205   7.509
 5123SOL    HW217209   8.380  12.173   7.616
 5124SOL     OW17210   1.425   3.861   5.423
 5124SOL    HW117211   1.488   3.869   5.494
 5124SOL    HW217212   1.373   3.942   5.427
 5125SOL     OW17213   4.850   5.177  14.593
 5125SOL    HW117214   4.902   5.192  14.672
 5125SOL    HW217215   4.914   5.167  14.523
 5126SOL     OW17216   8.379  10.197  11.442
 5126SOL    HW117217   8.322  10.224  11.370
 5126SOL    HW217218   8.319  10.164  11.509
 5127SOL     OW17219   3.026   4.884  11.992
 5127SOL    HW117220   2.938   4.914  11.969
 5127SOL    HW217221   3.075   4.888  11.909
 5128SOL     OW17222  11.681   3.046   6.635
 5128SOL    HW117223  11.695   3.139   6.620
 5128SOL    HW217224  11.731   3.027   6.715
 5129SOL     OW17225  12.528   4.805  12.954
 5129SOL    HW117226  12.570   4.803  12.868
 5129SOL    HW217227  12.530   4.897  12.980
 5130SOL     OW17228  10.735   9.366   8.874
 5130SOL    HW117229  10.703   9.366   8.784
 5130SOL    HW217230  10.752   9.273   8.894
 5131SOL     OW17231   0.242  12.578  14.850
 5131SOL    HW117232   0.279  12.537   0.051
 5131SOL    HW217233   0.281  12.532  14.776
 5132SOL     OW17234  12.535   9.901   8.575
 5132SOL    HW117235  12.575   9.861   8.652
 5132SOL    HW217236  12.491   9.829   8.531
 5133SOL     OW17237  10.342   7.574  11.705
 5133SOL    HW117238  10.325   7.490  11.750
 5133SOL    HW217239  10.425   7.560  11.660
 5134SOL     OW17240   3.796   1.905  12.477
 5134SOL    HW117241   3.830   1.817  12.491
 5134SOL    HW217242   3.863   1.949  12.425
 5135SOL     OW17243   4.223   9.706   7.766
 5135SOL    HW117244   4.304   9.740   7.804
 5135SOL    HW217245   4.153   9.741   7.821
 5136SOL     OW17246   8.317   8.301  14.118
 5136SOL    HW117247   8.316   8.394  14.093
 5136SOL    HW217248   8.389   8.294  14.180
 5137SOL     OW17249  10.104  11.884   3.339
 5137SOL    HW117250  10.099  11.979   3.339
 5137SOL    HW217251  10.172  11.863   3.275
 5138SOL     OW17252  13.157   3.110   2.299
 5138SOL    HW117253  13.133   3.170   2.228
 5138SOL    HW217254  13.102   3.033   2.285
 5139SOL     OW17255   9.717   6.076  10.270
 5139SOL    HW117256   9.792   6.027  10.302
 5139SOL    HW217257   9.748   6.167  10.266
 5140SOL     OW17258  14.403  11.549   5.473
 5140SOL    HW117259  14.485  11.539   5.522
 5140SOL    HW217260  14.339  11.498   5.523
 5141SOL     OW17261   0.311   9.681   0.852
 5141SOL    HW117262   0.314   9.711   0.761
 5141SOL    HW217263   0.394   9.709   0.890
 5142SOL     OW17264  11.798  13.648   2.573
 5142SOL    HW117265  11.757  13.572   2.614
 5142SOL    HW217266  11.745  13.665   2.496
 5143SOL     OW17267  13.236   7.686   0.249
 5143SOL    HW117268  13.321   7.680   0.294
 5143SOL    HW217269  13.258   7.703   0.158
 5144SOL     OW17270  13.300   4.689   7.326
 5144SOL    HW117271  13.374   4.741   7.294
 5144SOL    HW217272  13.223   4.739   7.300
 5145SOL     OW17273   2.570   5.661  12.324
 5145SOL    HW117274   2.546   5.633  12.412
 5145SOL    HW217275   2.654   5.706  12.335
 5146SOL     OW17276  14.426   1.996   2.485
 5146SOL    HW117277  14.353   2.048   2.518
 5146SOL    HW217278  14.504   2.042   2.518
 5147SOL     OW17279  13.445   8.611  10.667
 5147SOL    HW117280  13.516   8.547  10.664
 5147SOL    HW217281  13.403   8.604  10.581
 5148SOL     OW17282   6.478  10.420   7.814
 5148SOL    HW117283   6.467  10.478   7.889
 5148SOL    HW217284   6.451  10.473   7.739
 5149SOL     OW17285   0.706   6.418  13.634
 5149SOL    HW117286   0.679   6.507  13.655
 5149SOL    HW217287   0.793   6.410  13.673
 5150SOL     OW17288   0.802   9.428   2.892
 5150SOL    HW117289   0.875   9.454   2.835
 5150SOL    HW217290   0.750   9.368   2.838
 5151SOL     OW17291  14.609   1.705   7.176
 5151SOL    HW117292  14.663   1.676   7.250
 5151SOL    HW217293  14.636   1.650   7.103
 5152SOL     OW17294   1.467  10.819  11.457
 5152SOL    HW117295   1.382  10.782  11.481
 5152SOL    HW217296   1.520  10.744  11.432
 5153SOL     OW17297  13.733   1.744   7.460
 5153SOL    HW117298  13.800   1.794   7.508
 5153SOL    HW217299  13.771   1.656   7.451
 5154SOL     OW17300   7.816   2.351  10.118
 5154SOL    HW117301   7.751   2.283  10.100
 5154SOL    HW217302   7.899   2.315  10.086
 5155SOL     OW17303   5.610   8.430  12.913
 5155SOL    HW117304   5.653   8.361  12.863
 5155SOL    HW217305   5.614   8.507  12.855
 5156SOL     OW17306   1.453   1.487   6.980
 5156SOL    HW117307   1.362   1.464   6.999
 5156SOL    HW217308   1.482   1.536   7.056
 5157SOL     OW17309   9.499   9.489   4.250
 5157SOL    HW117310   9.449   9.541   4.187
 5157SOL    HW217311   9.590   9.497   4.222
 5158SOL     OW17312   1.178  13.932   6.238
 5158SOL    HW117313   1.272  13.919   6.229
 5158SOL    HW217314   1.156  13.893   6.323
 5159SOL     OW17315   7.126  14.821  13.406
 5159SOL    HW117316   7.168  14.817  13.319
 5159SOL    HW217317   7.143  14.735  13.444
 5160SOL     OW17318  13.793   1.351  13.791
 5160SOL    HW117319  13.713   1.380  13.747
 5160SOL    HW217320  13.804   1.414  13.862
 5161SOL     OW17321   7.380   0.243   9.529
 5161SOL    HW117322   7.387   0.193   9.611
 5161SOL    HW217323   7.327   0.187   9.472
 5162SOL     OW17324   0.735   0.697  13.096
 5162SOL    HW117325   0.656   0.746  13.120
 5162SOL    HW217326   0.724   0.612  13.138
 5163SOL     OW17327   0.483  14.452  11.157
 5163SOL    HW117328   0.540  14.468  11.082
 5163SOL    HW217329   0.414  14.396  11.124
 5164SOL     OW17330  12.985  10.605   5.831
 5164SOL    HW117331  12.963  10.557   5.911
 5164SOL    HW217332  13.056  10.663   5.858
 5165SOL     OW17333   0.004   2.373   9.190
 5165SOL    HW117334  14.871   2.453   9.240
 5165SOL    HW217335   0.056   2.315   9.246
 5166SOL     OW17336  13.442   2.833   4.932
 5166SOL    HW117337  13.374   2.776   4.968
 5166SOL    HW217338  13.393   2.900   4.884
 5167SOL     OW17339   1.621   8.870   1.076
 5167SOL    HW117340   1.590   8.897   1.162
 5167SOL    HW217341   1.675   8.943   1.045
 5168SOL     OW17342  13.621   1.370   2.752
 5168SOL    HW117343  13.701   1.353   2.701
 5168SOL    HW217344  13.551   1.364   2.688
 5169SOL     OW17345   5.313  10.990  12.069
 5169SOL    HW117346   5.369  11.055  12.027
 5169SOL    HW217347   5.240  11.040  12.104
 5170SOL     OW17348   3.139  10.021   3.991
 5170SOL    HW117349   3.150  10.037   3.897
 5170SOL    HW217350   3.177   9.934   4.005
 5171SOL     OW17351   2.161   2.278  10.661
 5171SOL    HW117352   2.249   2.296  10.692
 5171SOL    HW217353   2.112   2.358  10.681
 5172SOL     OW17354  14.078   2.384   7.253
 5172SOL    HW117355  14.033   2.327   7.316
 5172SOL    HW217356  14.113   2.323   7.187
 5173SOL     OW17357   5.359   9.864   8.109
 5173SOL    HW117358   5.267   9.858   8.133
 5173SOL    HW217359   5.403   9.891   8.190
 5174SOL     OW17360   4.789   0.670   3.833
 5174SOL    HW117361   4.830   0.726   3.899
 5174SOL    HW217362   4.779   0.585   3.876
 5175SOL     OW17363  11.758  10.342   1.276
 5175SOL    HW117364  11.811  10.269   1.243
 5175SOL    HW217365  11.696  10.300   1.337
 5176SOL     OW17366   9.683   9.755  10.922
 5176SOL    HW117367   9.658   9.751  10.830
 5176SOL    HW217368   9.612   9.710  10.969
 5177SOL     OW17369  13.085  12.052   3.165
 5177SOL    HW117370  12.997  12.074   3.197
 5177SOL    HW217371  13.104  12.119   3.099
 5178SOL     OW17372  13.054   6.011   2.948
 5178SOL    HW117373  13.029   5.944   3.011
 5178SOL    HW217374  13.031   6.094   2.990
 5179SOL     OW17375   5.534  13.601   5.521
 5179SOL    HW117376   5.513  13.694   5.532
 5179SOL    HW217377   5.508  13.561   5.604
 5180SOL     OW17378   7.654   6.399   5.027
 5180SOL    HW117379   7.678   6.330   5.090
 5180SOL    HW217380   7.601   6.354   4.962
 5181SOL     OW17381   9.394   1.970   3.094
 5181SOL    HW117382   9.425   1.994   3.007
 5181SOL    HW217383   9.348   2.048   3.126
 5182SOL     OW17384   7.846   2.324   1.738
 5182SOL    HW117385   7.805   2.258   1.793
 5182SOL    HW217386   7.912   2.365   1.795
 5183SOL     OW17387   3.485   4.538   2.390
 5183SOL    HW117388   3.413   4.592   2.355
 5183SOL    HW217389   3.555   4.601   2.408
 5184SOL     OW17390   5.742   5.222   1.447
 5184SOL    HW117391   5.824   5.241   1.494
 5184SOL    HW217392   5.697   5.306   1.442
 5185SOL     OW17393  12.042   3.702   2.919
 5185SOL    HW117394  12.029   3.792   2.947
 5185SOL    HW217395  12.115   3.670   2.974
 5186SOL     OW17396   3.397   4.164   7.155
 5186SOL    HW117397   3.325   4.122   7.203
 5186SOL    HW217398   3.363   4.177   7.067
 5187SOL     OW17399   7.171   5.226   3.135
 5187SOL    HW117400   7.226   5.155   3.102
 5187SOL    HW217401   7.086   5.186   3.152
 5188SOL     OW17402   4.847   2.535  11.224
 5188SOL    HW117403   4.863   2.624  11.255
 5188SOL    HW217404   4.782   2.500  11.285
 5189SOL     OW17405   2.129  14.250   6.259
 5189SOL    HW117406   2.137  14.155   6.247
 5189SOL    HW217407   2.208  14.286   6.219
 5190SOL     OW17408  13.707   3.786   6.765
 5190SOL    HW117409  13.724   3.705   6.717
 5190SOL    HW217410  13.614   3.783   6.786
 5191SOL     OW17411   8.580   3.271   2.104
 5191SOL    HW117412   8.587   3.286   2.010
 5191SOL    HW217413   8.558   3.356   2.141
 5192SOL     OW17414   1.335  11.305   3.900
 5192SOL    HW117415   1.343  11.241   3.829
 5192SOL    HW217416   1.382  11.264   3.973
 5193SOL     OW17417  11.522   7.209  10.476
 5193SOL    HW117418  11.433   7.240  10.493
 5193SOL    HW217419  11.510   7.123  10.436
 5194SOL     OW17420   7.604   8.257   8.163
 5194SOL    HW117421   7.511   8.262   8.142
 5194SOL    HW217422   7.608   8.209   8.245
 5195SOL     OW17423   0.293  13.104  10.995
 5195SOL    HW117424   0.305  13.023  11.044
 5195SOL    HW217425   0.382  13.138  10.982
 5196SOL     OW17426   0.396   6.687  14.029
 5196SOL    HW117427   0.380   6.709  14.121
 5196SOL    HW217428   0.311   6.659  13.996
 5197SOL     OW17429   2.730   5.437   5.412
 5197SOL    HW117430   2.780   5.480   5.343
 5197SOL    HW217431   2.788   5.438   5.488
 5198SOL     OW17432   8.512   4.432   8.097
 5198SOL    HW117433   8.556   4.511   8.066
 5198SOL    HW217434   8.468   4.398   8.019
 5199SOL     OW17435   3.132  14.501   4.676
 5199SOL    HW117436   3.189  14.480   4.602
 5199SOL    HW217437   3.193  14.526   4.746
 5200SOL     OW17438  12.267  11.227   0.449
 5200SOL    HW117439  12.233  11.171   0.379
 5200SOL    HW217440  12.207  11.302   0.451
 5201SOL     OW17441   0.842   3.933  13.289
 5201SOL    HW117442   0.809   4.023  13.289
 5201SOL    HW217443   0.887   3.924  13.204
 5202SOL     OW17444   7.429   3.129   5.163
 5202SOL    HW117445   7.381   3.212   5.172
 5202SOL    HW217446   7.515   3.155   5.132
 5203SOL     OW17447   7.453   2.904  10.361
 5203SOL    HW117448   7.429   2.823  10.315
 5203SOL    HW217449   7.384   2.966  10.335
 5204SOL     OW17450   8.826  11.249   2.499
 5204SOL    HW117451   8.921  11.240   2.490
 5204SOL    HW217452   8.792  11.228   2.412
 5205SOL     OW17453   6.236  12.606   7.666
 5205SOL    HW117454   6.312  12.660   7.643
 5205SOL    HW217455   6.161  12.654   7.630
 5206SOL     OW17456  12.719  14.558   0.028
 5206SOL    HW117457  12.680  14.556   0.116
 5206SOL    HW217458  12.704  14.648  14.874
 5207SOL     OW17459   2.732   7.514  14.246
 5207SOL    HW117460   2.721   7.517  14.341
 5207SOL    HW217461   2.764   7.425  14.228
 5208SOL     OW17462   1.369  14.230  13.773
 5208SOL    HW117463   1.328  14.206  13.690
 5208SOL    HW217464   1.317  14.303  13.806
 5209SOL     OW17465   1.343   1.480  14.824
 5209SOL    HW117466   1.292   1.486   0.028
 5209SOL    HW217467   1.315   1.398  14.784
 5210SOL     OW17468   4.283   1.810  10.921
 5210SOL    HW117469   4.255   1.719  10.934
 5210SOL    HW217470   4.344   1.806  10.848
 5211SOL     OW17471  10.922   4.646   0.334
 5211SOL    HW117472  10.980   4.638   0.258
 5211SOL    HW217473  10.908   4.741   0.344
 5212SOL     OW17474   2.618   4.418  10.727
 5212SOL    HW117475   2.559   4.397  10.654
 5212SOL    HW217476   2.575   4.382  10.804
 5213SOL     OW17477  13.803   5.645   8.545
 5213SOL    HW117478  13.885   5.679   8.509
 5213SOL    HW217479  13.818   5.644   8.640
 5214SOL     OW17480   3.165   4.356   3.377
 5214SOL    HW117481   3.085   4.326   3.333
 5214SOL    HW217482   3.146   4.348   3.470
 5215SOL     OW17483   5.878   9.792  14.736
 5215SOL    HW117484   5.907   9.883  14.748
 5215SOL    HW217485   5.809   9.797  14.670
 5216SOL     OW17486   4.667   8.802   7.250
 5216SOL    HW117487   4.755   8.783   7.219
 5216SOL    HW217488   4.649   8.734   7.315
 5217SOL     OW17489   9.709   9.862   8.433
 5217SOL    HW117490   9.730   9.781   8.385
 5217SOL    HW217491   9.742   9.932   8.376
 5218SOL     OW17492   7.695  13.585   7.072
 5218SOL    HW117493   7.736  13.659   7.116
 5218SOL    HW217494   7.702  13.513   7.134
 5219SOL     OW17495   8.193   3.505   8.207
 5219SOL    HW117496   8.241   3.510   8.289
 5219SOL    HW217497   8.137   3.427   8.216
 5220SOL     OW17498   9.437   6.691   4.270
 5220SOL    HW117499   9.357   6.661   4.313
 5220SOL    HW217500   9.483   6.741   4.337
 5221SOL     OW17501   9.719   4.050   1.016
 5221SOL    HW117502   9.748   4.117   0.954
 5221SOL    HW217503   9.790   3.986   1.018
 5222SOL     OW17504  13.207  13.902   0.757
 5222SOL    HW117505  13.219  13.992   0.787
 5222SOL    HW217506  13.215  13.849   0.836
 5223SOL     OW17507   3.610  10.979   9.771
 5223SOL    HW117508   3.679  10.928   9.814
 5223SOL    HW217509   3.566  10.916   9.713
 5224SOL     OW17510   1.872   1.381   7.298
 5224SOL    HW117511   1.843   1.306   7.247
 5224SOL    HW217512   1.908   1.442   7.233
 5225SOL     OW17513   1.248   5.949   7.892
 5225SOL    HW117514   1.294   5.864   7.890
 5225SOL    HW217515   1.178   5.939   7.828
 5226SOL     OW17516   0.289   1.978   0.115
 5226SOL    HW117517   0.269   2.068   0.142
 5226SOL    HW217518   0.362   1.952   0.173
 5227SOL     OW17519   1.746   9.608  10.574
 5227SOL    HW117520   1.823   9.659  10.548
 5227SOL    HW217521   1.717   9.648  10.655
 5228SOL     OW17522  11.330   0.750  10.542
 5228SOL    HW117523  11.242   0.736  10.507
 5228SOL    HW217524  11.360   0.831  10.501
 5229SOL     OW17525  12.349   5.411   5.705
 5229SOL    HW117526  12.291   5.418   5.629
 5229SOL    HW217527  12.424   5.362   5.673
 5230SOL     OW17528   8.966   6.273   3.790
 5230SOL    HW117529   9.023   6.253   3.865
 5230SOL    HW217530   9.026   6.287   3.717
 5231SOL     OW17531   6.864  13.081  12.171
 5231SOL    HW117532   6.956  13.107  12.181
 5231SOL    HW217533   6.823  13.106  12.254
 5232SOL     OW17534   3.535   5.608   9.503
 5232SOL    HW117535   3.534   5.698   9.471
 5232SOL    HW217536   3.473   5.607   9.576
 5233SOL     OW17537   7.689   8.831   7.121
 5233SOL    HW117538   7.643   8.755   7.086
 5233SOL    HW217539   7.726   8.874   7.043
 5234SOL     OW17540   8.011   2.031   1.204
 5234SOL    HW117541   7.998   1.937   1.187
 5234SOL    HW217542   7.932   2.058   1.250
 5235SOL     OW17543   0.917   1.713   0.078
 5235SOL    HW117544   0.898   1.797   0.120
 5235SOL    HW217545   0.928   1.652   0.151
 5236SOL     OW17546   7.364   8.944   1.777
 5236SOL    HW117547   7.282   8.965   1.820
 5236SOL    HW217548   7.410   9.028   1.770
 5237SOL     OW17549   5.207   7.212  14.177
 5237SOL    HW117550   5.153   7.133  14.177
 5237SOL    HW217551   5.219   7.232  14.084
 5238SOL     OW17552   6.585  14.690   3.151
 5238SOL    HW117553   6.641  14.734   3.215
 5238SOL    HW217554   6.638  14.619   3.118
 5239SOL     OW17555   0.372   8.938  13.039
 5239SOL    HW117556   0.432   8.876  12.998
 5239SOL    HW217557   0.313   8.883  13.091
 5240SOL     OW17558   4.962   6.113   7.344
 5240SOL    HW117559   4.999   6.179   7.285
 5240SOL    HW217560   4.931   6.043   7.287
 5241SOL     OW17561   4.478   9.692  12.070
 5241SOL    HW117562   4.403   9.686  12.128
 5241SOL    HW217563   4.448   9.653  11.988
 5242SOL     OW17564   6.200   1.682   3.416
 5242SOL    HW117565   6.105   1.693   3.426
 5242SOL    HW217566   6.210   1.598   3.372
 5243SOL     OW17567   4.419   3.524   0.250
 5243SOL    HW117568   4.368   3.447   0.275
 5243SOL    HW217569   4.507   3.506   0.283
 5244SOL     OW17570  11.553   5.218   3.916
 5244SOL    HW117571  11.648   5.228   3.923
 5244SOL    HW217572  11.526   5.288   3.856
 5245SOL     OW17573   2.399  10.567   7.109
 5245SOL    HW117574   2.365  10.500   7.168
 5245SOL    HW217575   2.321  10.606   7.069
 5246SOL     OW17576   4.858   5.288   7.609
 5246SOL    HW117577   4.826   5.334   7.686
 5246SOL    HW217578   4.916   5.351   7.566
 5247SOL     OW17579  10.316  13.474   5.160
 5247SOL    HW117580  10.328  13.436   5.072
 5247SOL    HW217581  10.381  13.544   5.164
 5248SOL     OW17582   4.790   4.093   7.522
 5248SOL    HW117583   4.754   4.116   7.608
 5248SOL    HW217584   4.860   4.031   7.541
 5249SOL     OW17585  11.429   2.883   3.057
 5249SOL    HW117586  11.448   2.876   2.964
 5249SOL    HW217587  11.476   2.962   3.085
 5250SOL     OW17588   8.617   0.872   8.970
 5250SOL    HW117589   8.596   0.965   8.967
 5250SOL    HW217590   8.646   0.850   8.882
 5251SOL     OW17591  12.061   6.742   7.265
 5251SOL    HW117592  12.130   6.792   7.310
 5251SOL    HW217593  12.088   6.651   7.274
 5252SOL     OW17594   1.714   3.843   6.060
 5252SOL    HW117595   1.683   3.753   6.061
 5252SOL    HW217596   1.727   3.866   6.152
 5253SOL     OW17597  12.667   2.078   8.985
 5253SOL    HW117598  12.598   2.132   9.024
 5253SOL    HW217599  12.688   2.122   8.902
 5254SOL     OW17600   1.107   9.195   1.511
 5254SOL    HW117601   1.015   9.209   1.533
 5254SOL    HW217602   1.108   9.115   1.458
 5255SOL     OW17603   6.494   6.990   4.861
 5255SOL    HW117604   6.460   7.061   4.808
 5255SOL    HW217605   6.543   7.034   4.931
 5256SOL     OW17606   2.200   9.909   3.890
 5256SOL    HW117607   2.276   9.922   3.833
 5256SOL    HW217608   2.146   9.846   3.843
 5257SOL     OW17609   6.238   2.930  14.297
 5257SOL    HW117610   6.213   3.021  14.307
 5257SOL    HW217611   6.230   2.893  14.385
 5258SOL     OW17612   5.944   3.529   3.515
 5258SOL    HW117613   5.911   3.602   3.463
 5258SOL    HW217614   5.987   3.471   3.451
 5259SOL     OW17615   8.044   6.685   7.959
 5259SOL    HW117616   8.117   6.728   8.004
 5259SOL    HW217617   8.029   6.739   7.881
 5260SOL     OW17618  13.592  11.773   8.855
 5260SOL    HW117619  13.661  11.816   8.905
 5260SOL    HW217620  13.512  11.790   8.905
 5261SOL     OW17621   1.681   6.403  11.428
 5261SOL    HW117622   1.771   6.370  11.437
 5261SOL    HW217623   1.684   6.491  11.466
 5262SOL     OW17624  12.433   9.349  11.109
 5262SOL    HW117625  12.502   9.348  11.175
 5262SOL    HW217626  12.460   9.283  11.045
 5263SOL     OW17627   8.996   0.610   6.630
 5263SOL    HW117628   8.958   0.603   6.542
 5263SOL    HW217629   8.938   0.670   6.677
 5264SOL     OW17630   5.251   5.828  14.220
 5264SOL    HW117631   5.213   5.811  14.306
 5264SOL    HW217632   5.188   5.790  14.158
 5265SOL     OW17633   9.933   0.092  11.828
 5265SOL    HW117634   9.955  14.876  11.818
 5265SOL    HW217635  10.017   0.138  11.830
 5266SOL     OW17636   4.396   2.660   7.998
 5266SOL    HW117637   4.326   2.596   7.987
 5266SOL    HW217638   4.443   2.659   7.914
 5267SOL     OW17639   6.498   7.492   0.475
 5267SOL    HW117640   6.560   7.434   0.520
 5267SOL    HW217641   6.553   7.561   0.438
 5268SOL     OW17642   6.586  12.221  10.900
 5268SOL    HW117643   6.595  12.140  10.850
 5268SOL    HW217644   6.578  12.192  10.991
 5269SOL     OW17645  10.985   0.070   8.432
 5269SOL    HW117646  11.035  14.867   8.451
 5269SOL    HW217647  11.051   0.132   8.400
 5270SOL     OW17648  14.215   9.352   2.921
 5270SOL    HW117649  14.295   9.300   2.936
 5270SOL    HW217650  14.145   9.297   2.955
 5271SOL     OW17651   3.685   7.710  12.640
 5271SOL    HW117652   3.734   7.649  12.585
 5271SOL    HW217653   3.617   7.745  12.584
 5272SOL     OW17654   8.014   8.372   9.000
 5272SOL    HW117655   8.050   8.340   9.083
 5272SOL    HW217656   8.051   8.460   8.990
 5273SOL     OW17657   1.092   9.157  13.621
 5273SOL    HW117658   1.184   9.163  13.596
 5273SOL    HW217659   1.084   9.072  13.664
 5274SOL     OW17660   0.803   4.694   8.142
 5274SOL    HW117661   0.818   4.728   8.054
 5274SOL    HW217662   0.884   4.650   8.166
 5275SOL     OW17663  10.353  14.383   8.036
 5275SOL    HW117664  10.431  14.342   8.073
 5275SOL    HW217665  10.386  14.452   7.978
 5276SOL     OW17666   5.044   5.057   3.510
 5276SOL    HW117667   5.107   5.021   3.572
 5276SOL    HW217668   4.982   5.105   3.564
 5277SOL     OW17669   4.988  11.273   1.455
 5277SOL    HW117670   4.970  11.366   1.445
 5277SOL    HW217671   5.060  11.255   1.395
 5278SOL     OW17672  10.713   1.517   9.404
 5278SOL    HW117673  10.673   1.583   9.461
 5278SOL    HW217674  10.739   1.447   9.463
 5279SOL     OW17675   2.660   5.790   8.543
 5279SOL    HW117676   2.719   5.852   8.584
 5279SOL    HW217677   2.696   5.704   8.564
 5280SOL     OW17678   5.136   5.035   2.832
 5280SOL    HW117679   5.077   5.107   2.810
 5280SOL    HW217680   5.136   5.032   2.928
 5281SOL     OW17681  13.326  10.875   2.647
 5281SOL    HW117682  13.316  10.920   2.563
 5281SOL    HW217683  13.418  10.888   2.671
 5282SOL     OW17684  12.983   7.930   6.252
 5282SOL    HW117685  12.975   7.835   6.244
 5282SOL    HW217686  12.982   7.947   6.346
 5283SOL     OW17687   1.711  12.684   1.140
 5283SOL    HW117688   1.719  12.599   1.183
 5283SOL    HW217689   1.698  12.663   1.048
 5284SOL     OW17690   0.225   6.958   7.449
 5284SOL    HW117691   0.175   6.923   7.375
 5284SOL    HW217692   0.209   6.897   7.520
 5285SOL     OW17693  11.656   9.222  14.595
 5285SOL    HW117694  11.607   9.300  14.571
 5285SOL    HW217695  11.654   9.167  14.517
 5286SOL     OW17696   6.844   7.107   4.861
 5286SOL    HW117697   6.784   7.127   4.790
 5286SOL    HW217698   6.804   7.033   4.907
 5287SOL     OW17699   1.371  10.984   8.253
 5287SOL    HW117700   1.379  11.078   8.266
 5287SOL    HW217701   1.276  10.968   8.250
 5288SOL     OW17702   0.574   5.678  12.024
 5288SOL    HW117703   0.618   5.642  12.100
 5288SOL    HW217704   0.626   5.755  12.000
 5289SOL     OW17705   7.349   3.147   4.774
 5289SOL    HW117706   7.267   3.171   4.731
 5289SOL    HW217707   7.403   3.111   4.704
 5290SOL     OW17708  12.649   3.569   5.181
 5290SOL    HW117709  12.684   3.655   5.157
 5290SOL    HW217710  12.670   3.560   5.274
 5291SOL     OW17711   6.113  13.397   7.011
 5291SOL    HW117712   6.138  13.401   7.103
 5291SOL    HW217713   6.057  13.320   7.005
 5292SOL     OW17714  11.650  13.200  12.742
 5292SOL    HW117715  11.734  13.172  12.707
 5292SOL    HW217716  11.671  13.266  12.808
 5293SOL     OW17717  10.443   5.849  13.802
 5293SOL    HW117718  10.406   5.831  13.715
 5293SOL    HW217719  10.488   5.768  13.826
 5294SOL     OW17720   3.142   8.427   5.170
 5294SOL    HW117721   3.131   8.427   5.075
 5294SOL    HW217722   3.056   8.449   5.205
 5295SOL     OW17723   8.163   9.493   6.021
 5295SOL    HW117724   8.091   9.431   6.019
 5295SOL    HW217725   8.132   9.569   5.972
 5296SOL     OW17726   6.072   7.789   9.253
 5296SOL    HW117727   6.023   7.712   9.224
 5296SOL    HW217728   6.127   7.812   9.178
 5297SOL     OW17729   8.616   2.172   3.907
 5297SOL    HW117730   8.630   2.266   3.895
 5297SOL    HW217731   8.626   2.158   4.002
 5298SOL     OW17732   6.198   4.129  13.304
 5298SOL    HW117733   6.152   4.169  13.230
 5298SOL    HW217734   6.269   4.190  13.324
 5299SOL     OW17735  10.997   2.042   6.509
 5299SOL    HW117736  10.907   2.072   6.506
 5299SOL    HW217737  10.992   1.955   6.549
 5300SOL     OW17738   4.411   2.459   3.634
 5300SOL    HW117739   4.318   2.481   3.626
 5300SOL    HW217740   4.432   2.418   3.550
 5301SOL     OW17741  12.938   5.289   0.113
 5301SOL    HW117742  12.941   5.285   0.208
 5301SOL    HW217743  12.974   5.205   0.084
 5302SOL     OW17744   1.846  11.818   9.874
 5302SOL    HW117745   1.816  11.770   9.951
 5302SOL    HW217746   1.879  11.901   9.909
 5303SOL     OW17747   3.882  11.233   3.796
 5303SOL    HW117748   3.830  11.231   3.876
 5303SOL    HW217749   3.945  11.304   3.809
 5304SOL     OW17750   8.605  13.931   3.119
 5304SOL    HW117751   8.557  13.902   3.042
 5304SOL    HW217752   8.667  13.995   3.085
 5305SOL     OW17753   2.733   9.521   7.920
 5305SOL    HW117754   2.661   9.549   7.863
 5305SOL    HW217755   2.752   9.432   7.891
 5306SOL     OW17756   8.397   8.254  13.270
 5306SOL    HW117757   8.454   8.240  13.346
 5306SOL    HW217758   8.324   8.306  13.304
 5307SOL     OW17759  14.230   5.617  10.183
 5307SOL    HW117760  14.165   5.578  10.126
 5307SOL    HW217761  14.228   5.710  10.162
 5308SOL     OW17762  14.144  12.346   6.771
 5308SOL    HW117763  14.050  12.361   6.766
 5308SOL    HW217764  14.183  12.425   6.733
 5309SOL     OW17765   7.915   0.024  13.233
 5309SOL    HW117766   7.904   0.067  13.148
 5309SOL    HW217767   7.892  14.809  13.217
 5310SOL     OW17768  10.601   7.949  14.429
 5310SOL    HW117769  10.681   7.899  14.413
 5310SOL    HW217770  10.536   7.912  14.369
 5311SOL     OW17771   7.673  10.527   1.493
 5311SOL    HW117772   7.738  10.553   1.559
 5311SOL    HW217773   7.724  10.486   1.424
 5312SOL     OW17774  12.565  14.242  11.158
 5312SOL    HW117775  12.516  14.307  11.107
 5312SOL    HW217776  12.654  14.248  11.126
 5313SOL     OW17777  14.006   6.053  11.473
 5313SOL    HW117778  14.040   6.133  11.513
 5313SOL    HW217779  13.918   6.043  11.509
 5314SOL     OW17780   8.245   1.720   2.045
 5314SOL    HW117781   8.284   1.778   2.110
 5314SOL    HW217782   8.203   1.651   2.097
 5315SOL     OW17783   7.081  10.845  12.281
 5315SOL    HW117784   7.072  10.933  12.245
 5315SOL    HW217785   7.125  10.795  12.213
 5316SOL     OW17786   7.542  12.487   8.810
 5316SOL    HW117787   7.575  12.528   8.730
 5316SOL    HW217788   7.472  12.546   8.839
 5317SOL     OW17789   0.715  13.759   3.075
 5317SOL    HW117790   0.684  13.836   3.028
 5317SOL    HW217791   0.697  13.686   3.016
 5318SOL     OW17792  12.631   8.612  13.436
 5318SOL    HW117793  12.599   8.549  13.372
 5318SOL    HW217794  12.625   8.567  13.520
 5319SOL     OW17795   8.476   9.388   7.119
 5319SOL    HW117796   8.534   9.349   7.185
 5319SOL    HW217797   8.388   9.376   7.156
 5320SOL     OW17798  12.671   2.583   6.208
 5320SOL    HW117799  12.603   2.591   6.275
 5320SOL    HW217800  12.625   2.597   6.125
 5321SOL     OW17801  14.172   4.550   3.391
 5321SOL    HW117802  14.218   4.616   3.443
 5321SOL    HW217803  14.123   4.600   3.326
 5322SOL     OW17804   2.816   7.374   2.246
 5322SOL    HW117805   2.909   7.395   2.244
 5322SOL    HW217806   2.772   7.459   2.234
 5323SOL     OW17807   4.152   7.666   9.087
 5323SOL    HW117808   4.234   7.624   9.063
 5323SOL    HW217809   4.179   7.742   9.140
 5324SOL     OW17810   9.754   8.704   3.848
 5324SOL    HW117811   9.786   8.615   3.836
 5324SOL    HW217812   9.831   8.755   3.872
 5325SOL     OW17813   7.013  13.943  12.509
 5325SOL    HW117814   6.947  13.947  12.440
 5325SOL    HW217815   7.093  13.917  12.464
 5326SOL     OW17816   1.103   4.245   9.600
 5326SOL    HW117817   1.154   4.168   9.577
 5326SOL    HW217818   1.137   4.315   9.545
 5327SOL     OW17819   6.390  11.141  12.271
 5327SOL    HW117820   6.383  11.071  12.206
 5327SOL    HW217821   6.348  11.217  12.230
 5328SOL     OW17822   9.966  11.931   3.768
 5328SOL    HW117823   9.893  11.957   3.713
 5328SOL    HW217824  10.015  11.869   3.714
 5329SOL     OW17825   7.266  14.583  11.961
 5329SOL    HW117826   7.315  14.548  12.035
 5329SOL    HW217827   7.251  14.507  11.904
 5330SOL     OW17828  12.833  10.020   3.202
 5330SOL    HW117829  12.859  10.110   3.221
 5330SOL    HW217830  12.766  10.028   3.133
 5331SOL     OW17831   5.705   9.226   0.142
 5331SOL    HW117832   5.616   9.198   0.119
 5331SOL    HW217833   5.730   9.168   0.214
 5332SOL     OW17834   1.482  10.853   4.932
 5332SOL    HW117835   1.512  10.831   4.844
 5332SOL    HW217836   1.516  10.783   4.987
 5333SOL     OW17837   3.112   4.075  12.293
 5333SOL    HW117838   3.161   4.118  12.222
 5333SOL    HW217839   3.122   4.133  12.368
 5334SOL     OW17840   3.419  12.598   4.704
 5334SOL    HW117841   3.359  12.534   4.667
 5334SOL    HW217842   3.370  12.680   4.705
 5335SOL     OW17843   6.798   9.251  13.846
 5335SOL    HW117844   6.800   9.171  13.794
 5335SOL    HW217845   6.882   9.293  13.829
 5336SOL     OW17846   1.889  13.574   8.779
 5336SOL    HW117847   1.830  13.577   8.855
 5336SOL    HW217848   1.841  13.618   8.709
 5337SOL     OW17849   4.265   2.174   9.277
 5337SOL    HW117850   4.343   2.228   9.294
 5337SOL    HW217851   4.209   2.230   9.224
 5338SOL     OW17852   9.675   3.890   1.614
 5338SOL    HW117853   9.639   3.952   1.552
 5338SOL    HW217854   9.732   3.943   1.671
 5339SOL     OW17855   6.133  14.726   1.367
 5339SOL    HW117856   6.141  14.639   1.328
 5339SOL    HW217857   6.220  14.746   1.400
 5340SOL     OW17858   3.435   7.171   0.354
 5340SOL    HW117859   3.400   7.158   0.443
 5340SOL    HW217860   3.362   7.210   0.305
 5341SOL     OW17861   2.747   3.972   1.125
 5341SOL    HW117862   2.799   3.992   1.047
 5341SOL    HW217863   2.811   3.942   1.190
 5342SOL     OW17864  13.769  12.186  10.748
 5342SOL    HW117865  13.774  12.095  10.718
 5342SOL    HW217866  13.806  12.183  10.837
 5343SOL     OW17867   5.605   5.195   7.374
 5343SOL    HW117868   5.595   5.105   7.405
 5343SOL    HW217869   5.532   5.207   7.313
 5344SOL     OW17870   7.034   3.065   1.812
 5344SOL    HW117871   6.977   3.141   1.811
 5344SOL    HW217872   7.013   3.018   1.732
 5345SOL     OW17873   9.235  13.740   0.967
 5345SOL    HW117874   9.181  13.819   0.973
 5345SOL    HW217875   9.212  13.690   1.045
 5346SOL     OW17876  12.790  13.678   1.534
 5346SOL    HW117877  12.764  13.596   1.575
 5346SOL    HW217878  12.828  13.730   1.605
 5347SOL     OW17879  11.761   9.505   9.093
 5347SOL    HW117880  11.678   9.505   9.045
 5347SOL    HW217881  11.747   9.443   9.165
 5348SOL     OW17882   5.424   7.867  14.064
 5348SOL    HW117883   5.382   7.913  14.137
 5348SOL    HW217884   5.410   7.924  13.988
 5349SOL     OW17885   1.557   3.398   5.955
 5349SOL    HW117886   1.633   3.440   5.994
 5349SOL    HW217887   1.546   3.442   5.871
 5350SOL     OW17888  13.626   8.096  10.961
 5350SOL    HW117889  13.586   8.044  11.031
 5350SOL    HW217890  13.656   8.175  11.005
 5351SOL     OW17891   2.288  12.674  11.829
 5351SOL    HW117892   2.288  12.600  11.767
 5351SOL    HW217893   2.365  12.725  11.805
 5352SOL     OW17894  10.998   4.702   3.918
 5352SOL    HW117895  11.061   4.666   3.856
 5352SOL    HW217896  10.995   4.639   3.989
 5353SOL     OW17897   4.274   1.570  13.255
 5353SOL    HW117898   4.316   1.566  13.341
 5353SOL    HW217899   4.264   1.479  13.229
 5354SOL     OW17900   1.113  12.655   2.704
 5354SOL    HW117901   1.145  12.742   2.682
 5354SOL    HW217902   1.025  12.651   2.665
 5355SOL     OW17903   1.190   1.473   2.764
 5355SOL    HW117904   1.220   1.397   2.814
 5355SOL    HW217905   1.138   1.436   2.693
 5356SOL     OW17906  11.964   8.800  11.868
 5356SOL    HW117907  11.943   8.707  11.856
 5356SOL    HW217908  11.922   8.843  11.794
 5357SOL     OW17909  11.303   9.614   1.831
 5357SOL    HW117910  11.256   9.683   1.876
 5357SOL    HW217911  11.337   9.655   1.751
 5358SOL     OW17912   7.771   6.918   3.261
 5358SOL    HW117913   7.740   6.835   3.224
 5358SOL    HW217914   7.707   6.983   3.231
 5359SOL     OW17915   9.176   5.999   3.102
 5359SOL    HW117916   9.227   6.077   3.078
 5359SOL    HW217917   9.086   6.031   3.109
 5360SOL     OW17918   0.051   3.163  13.836
 5360SOL    HW117919   0.042   3.154  13.931
 5360SOL    HW217920  14.843   3.133  13.801
 5361SOL     OW17921  14.593   9.493  11.907
 5361SOL    HW117922  14.545   9.565  11.948
 5361SOL    HW217923  14.685   9.513  11.922
 5362SOL     OW17924   1.093   2.742  11.811
 5362SOL    HW117925   1.107   2.836  11.820
 5362SOL    HW217926   1.145   2.717  11.735
 5363SOL     OW17927   0.986   3.537   8.532
 5363SOL    HW117928   0.910   3.524   8.476
 5363SOL    HW217929   1.035   3.454   8.526
 5364SOL     OW17930   2.984   1.754  12.028
 5364SOL    HW117931   2.941   1.816  11.970
 5364SOL    HW217932   3.076   1.754  12.000
 5365SOL     OW17933   3.449  11.319   1.240
 5365SOL    HW117934   3.467  11.385   1.307
 5365SOL    HW217935   3.386  11.361   1.182
 5366SOL     OW17936   7.271   7.896  13.104
 5366SOL    HW117937   7.215   7.958  13.152
 5366SOL    HW217938   7.262   7.814  13.152
 5367SOL     OW17939   0.726   8.122   9.049
 5367SOL    HW117940   0.731   8.148   8.957
 5367SOL    HW217941   0.731   8.204   9.098
 5368SOL     OW17942  14.833   7.313   0.898
 5368SOL    HW117943  14.752   7.357   0.923
 5368SOL    HW217944   0.009   7.311   0.979
 5369SOL     OW17945   2.116  12.586   5.879
 5369SOL    HW117946   2.033  12.602   5.835
 5369SOL    HW217947   2.091  12.551   5.965
 5370SOL     OW17948  10.359   3.974  13.269
 5370SOL    HW117949  10.414   4.009  13.339
 5370SOL    HW217950  10.277   4.024  13.277
 5371SOL     OW17951   1.279  13.594   4.596
 5371SOL    HW117952   1.366  13.562   4.574
 5371SOL    HW217953   1.251  13.540   4.670
 5372SOL     OW17954   8.491  10.730  12.756
 5372SOL    HW117955   8.523  10.812  12.793
 5372SOL    HW217956   8.450  10.755  12.673
 5373SOL     OW17957  13.656   4.326   2.414
 5373SOL    HW117958  13.684   4.417   2.414
 5373SOL    HW217959  13.694   4.289   2.494
 5374SOL     OW17960  11.491   3.282  11.762
 5374SOL    HW117961  11.501   3.331  11.845
 5374SOL    HW217962  11.409   3.234  11.773
 5375SOL     OW17963  11.795   3.533   2.288
 5375SOL    HW117964  11.726   3.594   2.314
 5375SOL    HW217965  11.771   3.450   2.329
 5376SOL     OW17966  10.208  13.667   8.826
 5376SOL    HW117967  10.192  13.743   8.882
 5376SOL    HW217968  10.258  13.607   8.881
 5377SOL     OW17969   1.476   8.528   7.432
 5377SOL    HW117970   1.463   8.618   7.462
 5377SOL    HW217971   1.512   8.537   7.344
 5378SOL     OW17972   6.293   4.961   1.884
 5378SOL    HW117973   6.204   4.995   1.883
 5378SOL    HW217974   6.348   5.035   1.858
 5379SOL     OW17975   2.400   9.312   9.949
 5379SOL    HW117976   2.485   9.324   9.990
 5379SOL    HW217977   2.367   9.230   9.987
 5380SOL     OW17978   6.811  10.414   5.350
 5380SOL    HW117979   6.776  10.474   5.416
 5380SOL    HW217980   6.896  10.450   5.327
 5381SOL     OW17981   6.908   9.401  12.141
 5381SOL    HW117982   6.913   9.338  12.069
 5381SOL    HW217983   6.855   9.472  12.106
 5382SOL     OW17984   3.335   9.611   3.571
 5382SOL    HW117985   3.425   9.623   3.541
 5382SOL    HW217986   3.297   9.547   3.511
 5383SOL     OW17987  11.009   7.662   5.968
 5383SOL    HW117988  10.916   7.680   5.955
 5383SOL    HW217989  11.051   7.702   5.892
 5384SOL     OW17990  10.529   4.889  11.195
 5384SOL    HW117991  10.521   4.952  11.267
 5384SOL    HW217992  10.468   4.921  11.129
 5385SOL     OW17993   2.674   5.554   7.247
 5385SOL    HW117994   2.609   5.600   7.300
 5385SOL    HW217995   2.730   5.624   7.213
 5386SOL     OW17996  14.557   1.586   0.840
 5386SOL    HW117997  14.478   1.595   0.786
 5386SOL    HW217998  14.562   1.670   0.887
 5387SOL     OW17999   7.850   7.774   9.599
 5387SOL    HW118000   7.830   7.787   9.692
 5387SOL    HW218001   7.897   7.690   9.597
 5388SOL     OW18002   1.767   6.444   9.517
 5388SOL    HW118003   1.786   6.476   9.605
 5388SOL    HW218004   1.780   6.519   9.460
 5389SOL     OW18005  10.945  10.905  11.612
 5389SOL    HW118006  10.887  10.840  11.653
 5389SOL    HW218007  10.886  10.974  11.582
 5390SOL     OW18008   2.157   0.076  14.198
 5390SOL    HW118009   2.168   0.075  14.293
 5390SOL    HW218010   2.201   0.156  14.170
 5391SOL     OW18011   2.820   5.501   0.585
 5391SOL    HW118012   2.880   5.572   0.562
 5391SOL    HW218013   2.737   5.545   0.604
 5392SOL     OW18014  11.937   8.861   6.734
 5392SOL    HW118015  11.919   8.817   6.817
 5392SOL    HW218016  12.032   8.863   6.728
 5393SOL     OW18017   8.812   7.051   1.364
 5393SOL    HW118018   8.759   6.973   1.381
 5393SOL    HW218019   8.754   7.110   1.317
 5394SOL     OW18020   2.637   7.548   6.300
 5394SOL    HW118021   2.637   7.549   6.204
 5394SOL    HW218022   2.655   7.457   6.323
 5395SOL     OW18023   0.826   7.270  12.385
 5395SOL    HW118024   0.800   7.228  12.303
 5395SOL    HW218025   0.744   7.294  12.427
 5396SOL     OW18026   7.193  10.378   0.383
 5396SOL    HW118027   7.113  10.405   0.338
 5396SOL    HW218028   7.262  10.428   0.340
 5397SOL     OW18029  10.801  10.731  10.986
 5397SOL    HW118030  10.888  10.691  10.989
 5397SOL    HW218031  10.800  10.779  10.904
 5398SOL     OW18032   3.939   2.179   6.968
 5398SOL    HW118033   3.997   2.138   7.032
 5398SOL    HW218034   3.873   2.224   7.020
 5399SOL     OW18035   0.460   5.279  13.318
 5399SOL    HW118036   0.483   5.257  13.409
 5399SOL    HW218037   0.520   5.351  13.295
 5400SOL     OW18038   4.553   3.595   5.152
 5400SOL    HW118039   4.607   3.672   5.171
 5400SOL    HW218040   4.612   3.521   5.167
 5401SOL     OW18041  12.285  13.756   2.617
 5401SOL    HW118042  12.202  13.711   2.631
 5401SOL    HW218043  12.261  13.841   2.581
 5402SOL     OW18044   0.388   6.538   5.514
 5402SOL    HW118045   0.373   6.607   5.578
 5402SOL    HW218046   0.478   6.509   5.531
 5403SOL     OW18047  11.902  14.236   3.863
 5403SOL    HW118048  11.954  14.166   3.824
 5403SOL    HW218049  11.967  14.301   3.889
 5404SOL     OW18050  12.314   3.739   4.894
 5404SOL    HW118051  12.327   3.734   4.989
 5404SOL    HW218052  12.219   3.744   4.883
 5405SOL     OW18053   2.734   4.500   4.346
 5405SOL    HW118054   2.722   4.511   4.251
 5405SOL    HW218055   2.717   4.587   4.382
 5406SOL     OW18056   5.095   5.695   2.197
 5406SOL    HW118057   5.012   5.669   2.237
 5406SOL    HW218058   5.088   5.665   2.106
 5407SOL     OW18059   4.848  13.804  12.010
 5407SOL    HW118060   4.793  13.794  11.931
 5407SOL    HW218061   4.934  13.771  11.984
 5408SOL     OW18062  12.614  12.309  13.989
 5408SOL    HW118063  12.623  12.281  14.080
 5408SOL    HW218064  12.578  12.232  13.944
 5409SOL     OW18065   7.314   9.458  12.819
 5409SOL    HW118066   7.276   9.495  12.899
 5409SOL    HW218067   7.369   9.386  12.849
 5410SOL     OW18068  12.297   8.289   9.495
 5410SOL    HW118069  12.340   8.210   9.525
 5410SOL    HW218070  12.242   8.261   9.422
 5411SOL     OW18071   2.762   0.481   4.340
 5411SOL    HW118072   2.747   0.548   4.407
 5411SOL    HW218073   2.680   0.432   4.335
 5412SOL     OW18074  10.761  13.078   7.910
 5412SOL    HW118075  10.687  13.113   7.961
 5412SOL    HW218076  10.815  13.155   7.891
 5413SOL     OW18077   7.273   5.121  10.065
 5413SOL    HW118078   7.295   5.041  10.113
 5413SOL    HW218079   7.244   5.091   9.979
 5414SOL     OW18080  13.063   9.379  14.759
 5414SOL    HW118081  13.091   9.402  14.670
 5414SOL    HW218082  12.991   9.439  14.778
 5415SOL     OW18083  14.317  13.779   5.975
 5415SOL    HW118084  14.300  13.736   6.059
 5415SOL    HW218085  14.299  13.872   5.993
 5416SOL     OW18086   5.288   9.301   1.477
 5416SOL    HW118087   5.225   9.314   1.548
 5416SOL    HW218088   5.278   9.379   1.422
 5417SOL     OW18089   0.523  11.925  11.925
 5417SOL    HW118090   0.470  11.848  11.905
 5417SOL    HW218091   0.520  11.978  11.846
 5418SOL     OW18092  11.612   6.051   2.707
 5418SOL    HW118093  11.634   6.019   2.620
 5418SOL    HW218094  11.519   6.075   2.702
 5419SOL     OW18095   5.379  13.604   0.287
 5419SOL    HW118096   5.322  13.537   0.251
 5419SOL    HW218097   5.406  13.570   0.373
 5420SOL     OW18098  12.950  14.170   7.864
 5420SOL    HW118099  12.907  14.239   7.915
 5420SOL    HW218100  13.035  14.158   7.905
 5421SOL     OW18101   5.083   4.696   0.757
 5421SOL    HW118102   5.026   4.623   0.732
 5421SOL    HW218103   5.043   4.773   0.716
 5422SOL     OW18104   7.470   2.456  11.388
 5422SOL    HW118105   7.504   2.546  11.385
 5422SOL    HW218106   7.383   2.464  11.428
 5423SOL     OW18107   1.256   9.242   6.157
 5423SOL    HW118108   1.245   9.334   6.181
 5423SOL    HW218109   1.281   9.199   6.238
 5424SOL     OW18110   0.492  14.326  10.724
 5424SOL    HW118111   0.408  14.339  10.768
 5424SOL    HW218112   0.493  14.233  10.700
 5425SOL     OW18113   9.672   8.933   9.693
 5425SOL    HW118114   9.703   8.984   9.618
 5425SOL    HW218115   9.750   8.891   9.727
 5426SOL     OW18116  14.539   0.658  12.135
 5426SOL    HW118117  14.486   0.648  12.056
 5426SOL    HW218118  14.609   0.717  12.109
 5427SOL     OW18119  10.518   1.359   3.520
 5427SOL    HW118120  10.445   1.371   3.460
 5427SOL    HW218121  10.576   1.297   3.476
 5428SOL     OW18122   1.546  11.484   9.026
 5428SOL    HW118123   1.629  11.436   9.030
 5428SOL    HW218124   1.513  11.482   9.116
 5429SOL     OW18125   7.112  13.479   1.652
 5429SOL    HW118126   7.026  13.460   1.617
 5429SOL    HW218127   7.104  13.466   1.746
 5430SOL     OW18128  11.175   2.070   0.493
 5430SOL    HW118129  11.085   2.055   0.521
 5430SOL    HW218130  11.201   2.150   0.537
 5431SOL     OW18131   5.335  12.773   7.548
 5431SOL    HW118132   5.321  12.774   7.643
 5431SOL    HW218133   5.297  12.855   7.517
 5432SOL     OW18134  11.654  14.346   4.048
 5432SOL    HW118135  11.628  14.302   3.967
 5432SOL    HW218136  11.736  14.304   4.072
 5433SOL     OW18137  12.501   0.598  13.436
 5433SOL    HW118138  12.455   0.516  13.420
 5433SOL    HW218139  12.436   0.654  13.478
 5434SOL     OW18140  12.617   5.630   2.516
 5434SOL    HW118141  12.545   5.639   2.453
 5434SOL    HW218142  12.666   5.554   2.486
 5435SOL     OW18143   3.440  11.526   0.708
 5435SOL    HW118144   3.382  11.589   0.666
 5435SOL    HW218145   3.388  11.445   0.714
 5436SOL     OW18146   9.924   4.677  14.821
 5436SOL    HW118147   9.839   4.656  14.861
 5436SOL    HW218148   9.963   4.741   0.003
 5437SOL     OW18149   8.837   5.010   7.118
 5437SOL    HW118150   8.778   5.082   7.097
 5437SOL    HW218151   8.919   5.054   7.144
 5438SOL     OW18152  12.503   8.954   9.704
 5438SOL    HW118153  12.476   8.975   9.794
 5438SOL    HW218154  12.506   9.038   9.659
 5439SOL     OW18155   6.584   3.972   4.385
 5439SOL    HW118156   6.523   3.899   4.392
 5439SOL    HW218157   6.528   4.050   4.385
 5440SOL     OW18158  11.750  14.615   6.154
 5440SOL    HW118159  11.673  14.610   6.097
 5440SOL    HW218160  11.795  14.532   6.139
 5441SOL     OW18161   2.415   5.488   4.617
 5441SOL    HW118162   2.449   5.485   4.528
 5441SOL    HW218163   2.481   5.442   4.669
 5442SOL     OW18164  12.757  13.224  12.293
 5442SOL    HW118165  12.817  13.226  12.219
 5442SOL    HW218166  12.710  13.141  12.284
 5443SOL     OW18167   3.229   2.578  12.004
 5443SOL    HW118168   3.191   2.551  12.088
 5443SOL    HW218169   3.155   2.583  11.944
 5444SOL     OW18170   8.401   4.824   2.722
 5444SOL    HW118171   8.452   4.905   2.711
 5444SOL    HW218172   8.329   4.832   2.659
 5445SOL     OW18173   2.431  14.225   4.945
 5445SOL    HW118174   2.482  14.177   5.010
 5445SOL    HW218175   2.493  14.286   4.906
 5446SOL     OW18176  13.076  10.838   1.561
 5446SOL    HW118177  13.113  10.856   1.475
 5446SOL    HW218178  13.147  10.858   1.623
 5447SOL     OW18179   4.460   7.091   4.117
 5447SOL    HW118180   4.407   7.166   4.092
 5447SOL    HW218181   4.444   7.027   4.047
 5448SOL     OW18182   9.893   7.144   6.637
 5448SOL    HW118183   9.921   7.052   6.638
 5448SOL    HW218184   9.818   7.145   6.578
 5449SOL     OW18185   5.147  10.653  13.301
 5449SOL    HW118186   5.236  10.650  13.265
 5449SOL    HW218187   5.156  10.698  13.385
 5450SOL     OW18188   9.172  14.066  14.425
 5450SOL    HW118189   9.169  14.106  14.512
 5450SOL    HW218190   9.087  14.023  14.416
 5451SOL     OW18191  12.712   9.497   0.397
 5451SOL    HW118192  12.786   9.544   0.359
 5451SOL    HW218193  12.660   9.470   0.321
 5452SOL     OW18194   4.570   0.981   5.425
 5452SOL    HW118195   4.479   0.970   5.397
 5452SOL    HW218196   4.577   0.929   5.505
 5453SOL     OW18197   2.055  12.781  14.493
 5453SOL    HW118198   2.101  12.700  14.473
 5453SOL    HW218199   1.971  12.754  14.530
 5454SOL     OW18200   2.599   6.638  10.473
 5454SOL    HW118201   2.527   6.592  10.517
 5454SOL    HW218202   2.635   6.695  10.540
 5455SOL     OW18203   5.582   6.082   6.459
 5455SOL    HW118204   5.502   6.074   6.511
 5455SOL    HW218205   5.551   6.088   6.368
 5456SOL     OW18206   8.398   3.399   3.800
 5456SOL    HW118207   8.398   3.339   3.725
 5456SOL    HW218208   8.470   3.459   3.782
 5457SOL     OW18209   8.885  10.526   7.931
 5457SOL    HW118210   8.970  10.536   7.975
 5457SOL    HW218211   8.857  10.615   7.912
 5458SOL     OW18212   6.786   2.095   0.007
 5458SOL    HW118213   6.731   2.076  14.807
 5458SOL    HW218214   6.758   2.032   0.073
 5459SOL     OW18215   3.644   9.923  13.693
 5459SOL    HW118216   3.681   9.901  13.779
 5459SOL    HW218217   3.713   9.901  13.631
 5460SOL     OW18218  13.141  12.702   1.288
 5460SOL    HW118219  13.208  12.747   1.237
 5460SOL    HW218220  13.188  12.664   1.362
 5461SOL     OW18221   4.874   0.549  12.810
 5461SOL    HW118222   4.921   0.614  12.758
 5461SOL    HW218223   4.864   0.590  12.896
 5462SOL     OW18224   4.860  14.162   9.273
 5462SOL    HW118225   4.811  14.109   9.336
 5462SOL    HW218226   4.880  14.101   9.201
 5463SOL     OW18227   5.140  13.074  12.254
 5463SOL    HW118228   5.185  12.993  12.228
 5463SOL    HW218229   5.088  13.097  12.177
 5464SOL     OW18230   6.776  12.368   6.995
 5464SOL    HW118231   6.787  12.378   6.900
 5464SOL    HW218232   6.838  12.430   7.033
 5465SOL     OW18233   9.067   3.116   7.920
 5465SOL    HW118234   9.159   3.120   7.945
 5465SOL    HW218235   9.068   3.118   7.824
 5466SOL     OW18236   8.533   6.287  10.892
 5466SOL    HW118237   8.546   6.351  10.962
 5466SOL    HW218238   8.534   6.338  10.811
 5467SOL     OW18239  13.130  13.094  10.553
 5467SOL    HW118240  13.123  13.006  10.517
 5467SOL    HW218241  13.210  13.092  10.606
 5468SOL     OW18242   2.277   9.022  10.289
 5468SOL    HW118243   2.297   8.951  10.349
 5468SOL    HW218244   2.249   9.094  10.346
 5469SOL     OW18245  13.324   7.358  13.572
 5469SOL    HW118246  13.274   7.421  13.624
 5469SOL    HW218247  13.263   7.329  13.504
 5470SOL     OW18248   4.594   8.156  13.174
 5470SOL    HW118249   4.632   8.162  13.262
 5470SOL    HW218250   4.619   8.069  13.143
 5471SOL     OW18251   7.050  10.457   4.489
 5471SOL    HW118252   7.140  10.433   4.469
 5471SOL    HW218253   6.999  10.422   4.416
 5472SOL     OW18254   1.623  14.263   4.782
 5472SOL    HW118255   1.548  14.224   4.828
 5472SOL    HW218256   1.587  14.341   4.740
 5473SOL     OW18257   7.207   1.451   3.740
 5473SOL    HW118258   7.134   1.430   3.682
 5473SOL    HW218259   7.165   1.483   3.821
 5474SOL     OW18260  13.829  12.926   0.873
 5474SOL    HW118261  13.764  12.894   0.935
 5474SOL    HW218262  13.870  13.001   0.917
 5475SOL     OW18263  13.540  11.169   7.571
 5475SOL    HW118264  13.542  11.264   7.565
 5475SOL    HW218265  13.499  11.151   7.656
 5476SOL     OW18266   4.321  11.793   0.065
 5476SOL    HW118267   4.243  11.801   0.010
 5476SOL    HW218268   4.366  11.877   0.056
 5477SOL     OW18269   1.378  10.265   0.687
 5477SOL    HW118270   1.329  10.343   0.661
 5477SOL    HW218271   1.467  10.281   0.656
 5478SOL     OW18272  12.356  10.899   2.733
 5478SOL    HW118273  12.280  10.848   2.703
 5478SOL    HW218274  12.393  10.845   2.804
 5479SOL     OW18275  11.261  14.784  11.338
 5479SOL    HW118276  11.331  14.848  11.334
 5479SOL    HW218277  11.211  14.808  11.415
 5480SOL     OW18278   4.527  13.326  14.154
 5480SOL    HW118279   4.434  13.337  14.138
 5480SOL    HW218280   4.560  13.414  14.173
 5481SOL     OW18281   4.525   3.816   7.506
 5481SOL    HW118282   4.617   3.805   7.529
 5481SOL    HW218283   4.489   3.868   7.578
 5482SOL     OW18284  12.727   1.228  13.759
 5482SOL    HW118285  12.730   1.145  13.712
 5482SOL    HW218286  12.731   1.203  13.851
 5483SOL     OW18287  10.261   7.260  12.139
 5483SOL    HW118288  10.340   7.226  12.181
 5483SOL    HW218289  10.195   7.260  12.209
 5484SOL     OW18290   2.463   3.537  12.379
 5484SOL    HW118291   2.393   3.539  12.445
 5484SOL    HW218292   2.423   3.495  12.303
 5485SOL     OW18293   5.987   0.905   6.945
 5485SOL    HW118294   5.906   0.872   6.985
 5485SOL    HW218295   6.056   0.881   7.006
 5486SOL     OW18296   1.273   9.809   6.265
 5486SOL    HW118297   1.267   9.840   6.355
 5486SOL    HW218298   1.327   9.874   6.220
 5487SOL     OW18299   9.924  14.750   4.917
 5487SOL    HW118300  10.018  14.743   4.899
 5487SOL    HW218301   9.910  14.843   4.934
 5488SOL     OW18302  10.703  12.546   8.770
 5488SOL    HW118303  10.777  12.492   8.742
 5488SOL    HW218304  10.744  12.621   8.814
 5489SOL     OW18305   9.627   0.731   5.201
 5489SOL    HW118306   9.701   0.716   5.142
 5489SOL    HW218307   9.600   0.821   5.185
 5490SOL     OW18308  14.051   7.233   8.280
 5490SOL    HW118309  14.139   7.205   8.257
 5490SOL    HW218310  14.009   7.155   8.317
 5491SOL     OW18311   9.584   4.149   0.041
 5491SOL    HW118312   9.546   4.095  14.848
 5491SOL    HW218313   9.512   4.163   0.103
 5492SOL     OW18314  10.016   8.513   2.928
 5492SOL    HW118315  10.077   8.483   2.995
 5492SOL    HW218316   9.991   8.433   2.881
 5493SOL     OW18317  13.327  11.247   7.776
 5493SOL    HW118318  13.325  11.155   7.804
 5493SOL    HW218319  13.240  11.264   7.742
 5494SOL     OW18320   6.330   3.555   0.648
 5494SOL    HW118321   6.294   3.523   0.731
 5494SOL    HW218322   6.419   3.581   0.670
 5495SOL     OW18323   7.694  14.591  11.423
 5495SOL    HW118324   7.747  14.516  11.452
 5495SOL    HW218325   7.680  14.576  11.330
 5496SOL     OW18326  12.933   7.890  13.989
 5496SOL    HW118327  12.958   7.978  14.019
 5496SOL    HW218328  12.838   7.888  13.997
 5497SOL     OW18329  10.505   0.102   4.580
 5497SOL    HW118330  10.533   0.188   4.547
 5497SOL    HW218331  10.412   0.097   4.559
 5498SOL     OW18332   9.572   8.165  13.945
 5498SOL    HW118333   9.619   8.082  13.956
 5498SOL    HW218334   9.552   8.193  14.034
 5499SOL     OW18335   9.945   0.299   5.686
 5499SOL    HW118336   9.989   0.300   5.601
 5499SOL    HW218337   9.972   0.217   5.727
 5500SOL     OW18338   5.116   2.229   7.480
 5500SOL    HW118339   5.161   2.269   7.406
 5500SOL    HW218340   5.095   2.302   7.538
 5501SOL     OW18341   4.859   3.202  12.690
 5501SOL    HW118342   4.921   3.263  12.730
 5501SOL    HW218343   4.773   3.232  12.721
 5502SOL     OW18344  11.835   0.092   4.395
 5502SOL    HW118345  11.928   0.070   4.406
 5502SOL    HW218346  11.801   0.025   4.336
 5503SOL     OW18347   5.860  10.806   4.745
 5503SOL    HW118348   5.793  10.748   4.708
 5503SOL    HW218349   5.829  10.827   4.833
 5504SOL     OW18350   7.260   5.066   1.850
 5504SOL    HW118351   7.348   5.036   1.825
 5504SOL    HW218352   7.202   5.023   1.788
 5505SOL     OW18353   1.771  12.908   8.138
 5505SOL    HW118354   1.676  12.904   8.150
 5505SOL    HW218355   1.800  12.818   8.156
 5506SOL     OW18356   1.459   4.077   7.073
 5506SOL    HW118357   1.446   4.035   6.988
 5506SOL    HW218358   1.381   4.132   7.084
 5507SOL     OW18359   2.730  14.292  12.668
 5507SOL    HW118360   2.741  14.251  12.754
 5507SOL    HW218361   2.793  14.363  12.666
 5508SOL     OW18362   3.952  11.778   8.242
 5508SOL    HW118363   4.012  11.767   8.169
 5508SOL    HW218364   4.006  11.761   8.320
 5509SOL     OW18365   3.349   8.923   3.061
 5509SOL    HW118366   3.298   8.956   2.988
 5509SOL    HW218367   3.369   9.000   3.114
 5510SOL     OW18368   3.147   6.743  11.092
 5510SOL    HW118369   3.069   6.710  11.046
 5510SOL    HW218370   3.216   6.680  11.070
 5511SOL     OW18371  13.998  14.746   3.865
 5511SOL    HW118372  13.998  14.766   3.958
 5511SOL    HW218373  13.991  14.651   3.860
 5512SOL     OW18374   2.136   2.507   8.518
 5512SOL    HW118375   2.192   2.583   8.503
 5512SOL    HW218376   2.065   2.540   8.573
 5513SOL     OW18377   9.273   6.436   2.280
 5513SOL    HW118378   9.212   6.447   2.352
 5513SOL    HW218379   9.322   6.357   2.302
 5514SOL     OW18380  11.060  11.229   2.463
 5514SOL    HW118381  11.071  11.155   2.522
 5514SOL    HW218382  11.026  11.299   2.519
 5515SOL     OW18383   8.515   8.520  13.738
 5515SOL    HW118384   8.610   8.532  13.734
 5515SOL    HW218385   8.503   8.428  13.760
 5516SOL     OW18386  12.138   8.946   0.430
 5516SOL    HW118387  12.184   8.868   0.398
 5516SOL    HW218388  12.202   9.017   0.418
 5517SOL     OW18389   3.980   8.900   2.149
 5517SOL    HW118390   4.014   8.868   2.065
 5517SOL    HW218391   3.984   8.825   2.207
 5518SOL     OW18392   5.976   3.974  13.095
 5518SOL    HW118393   6.006   4.049  13.044
 5518SOL    HW218394   5.896   4.004  13.137
 5519SOL     OW18395   5.204   7.891   6.890
 5519SOL    HW118396   5.115   7.859   6.903
 5519SOL    HW218397   5.222   7.877   6.797
 5520SOL     OW18398   2.172   5.294   4.083
 5520SOL    HW118399   2.078   5.289   4.068
 5520SOL    HW218400   2.206   5.347   4.010
 5521SOL     OW18401  14.166   1.394   6.314
 5521SOL    HW118402  14.239   1.332   6.324
 5521SOL    HW218403  14.091   1.340   6.291
 5522SOL     OW18404   3.468   0.725   5.826
 5522SOL    HW118405   3.431   0.784   5.759
 5522SOL    HW218406   3.415   0.645   5.819
 5523SOL     OW18407   5.522  14.552  13.983
 5523SOL    HW118408   5.484  14.598  13.909
 5523SOL    HW218409   5.613  14.535  13.956
 5524SOL     OW18410   9.674  14.251   7.154
 5524SOL    HW118411   9.762  14.215   7.160
 5524SOL    HW218412   9.632  14.225   7.236
 5525SOL     OW18413   6.841  10.599  14.071
 5525SOL    HW118414   6.780  10.661  14.030
 5525SOL    HW218415   6.798  10.573  14.152
 5526SOL     OW18416   1.333   0.160   4.913
 5526SOL    HW118417   1.271   0.147   4.985
 5526SOL    HW218418   1.412   0.194   4.955
 5527SOL     OW18419   1.770  10.560   4.151
 5527SOL    HW118420   1.681  10.585   4.173
 5527SOL    HW218421   1.778  10.470   4.183
 5528SOL     OW18422  13.852  13.932   6.746
 5528SOL    HW118423  13.775  13.895   6.703
 5528SOL    HW218424  13.925  13.877   6.718
 5529SOL     OW18425   8.254  11.202   9.783
 5529SOL    HW118426   8.215  11.220   9.869
 5529SOL    HW218427   8.308  11.125   9.797
 5530SOL     OW18428   2.085  11.811  12.946
 5530SOL    HW118429   2.141  11.808  12.869
 5530SOL    HW218430   2.066  11.904  12.959
 5531SOL     OW18431   5.498   5.948  14.293
 5531SOL    HW118432   5.573   5.908  14.249
 5531SOL    HW218433   5.423   5.894  14.267
 5532SOL     OW18434   6.945   9.234   3.519
 5532SOL    HW118435   6.870   9.176   3.537
 5532SOL    HW218436   7.022   9.179   3.537
 5533SOL     OW18437   5.125  13.144   5.596
 5533SOL    HW118438   5.070  13.205   5.645
 5533SOL    HW218439   5.201  13.195   5.570
 5534SOL     OW18440   4.272   8.767  14.726
 5534SOL    HW118441   4.315   8.695  14.681
 5534SOL    HW218442   4.276   8.840  14.664
 5535SOL     OW18443   3.246   2.175   4.543
 5535SOL    HW118444   3.185   2.129   4.601
 5535SOL    HW218445   3.320   2.197   4.600
 5536SOL     OW18446   9.795   9.100  13.743
 5536SOL    HW118447   9.775   9.070  13.832
 5536SOL    HW218448   9.788   9.196  13.749
 5537SOL     OW18449   8.960   0.148   2.564
 5537SOL    HW118450   8.870   0.118   2.566
 5537SOL    HW218451   8.963   0.211   2.492
 5538SOL     OW18452   2.572   4.671   3.155
 5538SOL    HW118453   2.479   4.661   3.134
 5538SOL    HW218454   2.586   4.766   3.159
 5539SOL     OW18455   7.607   4.493  10.124
 5539SOL    HW118456   7.686   4.547  10.133
 5539SOL    HW218457   7.591   4.460  10.213
 5540SOL     OW18458   4.796   9.779   0.270
 5540SOL    HW118459   4.722   9.726   0.303
 5540SOL    HW218460   4.805   9.753   0.179
 5541SOL     OW18461  10.198   3.638   5.257
 5541SOL    HW118462  10.232   3.714   5.209
 5541SOL    HW218463  10.276   3.588   5.282
 5542SOL     OW18464   3.351   0.390   2.207
 5542SOL    HW118465   3.401   0.367   2.128
 5542SOL    HW218466   3.388   0.335   2.276
 5543SOL     OW18467   1.441   1.699  12.602
 5543SOL    HW118468   1.384   1.649  12.660
 5543SOL    HW218469   1.395   1.699  12.518
 5544SOL     OW18470   5.975   6.729   0.941
 5544SOL    HW118471   5.983   6.700   0.851
 5544SOL    HW218472   5.933   6.656   0.986
 5545SOL     OW18473   4.730  13.206  10.926
 5545SOL    HW118474   4.654  13.215  10.983
 5545SOL    HW218475   4.803  13.236  10.980
 5546SOL     OW18476   1.580   6.110   1.105
 5546SOL    HW118477   1.493   6.121   1.145
 5546SOL    HW218478   1.617   6.199   1.105
 5547SOL     OW18479   1.246  12.086   3.438
 5547SOL    HW118480   1.336  12.073   3.468
 5547SOL    HW218481   1.200  12.007   3.464
 5548SOL     OW18482   3.363   1.224   6.006
 5548SOL    HW118483   3.413   1.173   6.069
 5548SOL    HW218484   3.272   1.205   6.027
 5549SOL     OW18485   3.425  12.885   5.133
 5549SOL    HW118486   3.362  12.865   5.201
 5549SOL    HW218487   3.430  12.805   5.081
 5550SOL     OW18488   3.119   9.347   1.294
 5550SOL    HW118489   3.040   9.296   1.277
 5550SOL    HW218490   3.103   9.389   1.379
 5551SOL     OW18491   3.186   2.122  12.831
 5551SOL    HW118492   3.144   2.111  12.746
 5551SOL    HW218493   3.173   2.038  12.875
 5552SOL     OW18494  13.934   3.675   1.125
 5552SOL    HW118495  14.026   3.657   1.104
 5552SOL    HW218496  13.893   3.691   1.040
 5553SOL     OW18497  14.722   1.600   1.260
 5553SOL    HW118498  14.743   1.667   1.325
 5553SOL    HW218499  14.668   1.646   1.195
 5554SOL     OW18500   0.305  11.567   4.008
 5554SOL    HW118501   0.372  11.599   4.069
 5554SOL    HW218502   0.286  11.478   4.038
 5555SOL     OW18503  14.631  10.877   3.036
 5555SOL    HW118504  14.722  10.850   3.046
 5555SOL    HW218505  14.627  10.919   2.951
 5556SOL     OW18506   9.984   2.330   3.353
 5556SOL    HW118507  10.057   2.271   3.335
 5556SOL    HW218508  10.008   2.372   3.435
 5557SOL     OW18509   8.866   5.135  12.838
 5557SOL    HW118510   8.820   5.056  12.810
 5557SOL    HW218511   8.935   5.147  12.773
 5558SOL     OW18512  10.598   8.454   4.226
 5558SOL    HW118513  10.546   8.447   4.306
 5558SOL    HW218514  10.684   8.421   4.251
 5559SOL     OW18515   2.957  13.373   4.348
 5559SOL    HW118516   2.902  13.383   4.271
 5559SOL    HW218517   2.905  13.410   4.419
 5560SOL     OW18518  12.274  11.194  14.238
 5560SOL    HW118519  12.199  11.135  14.242
 5560SOL    HW218520  12.348  11.138  14.214
 5561SOL     OW18521   7.970  14.305   6.409
 5561SOL    HW118522   8.040  14.241   6.396
 5561SOL    HW218523   7.971  14.359   6.330
 5562SOL     OW18524   3.885  14.609   0.523
 5562SOL    HW118525   3.890  14.574   0.434
 5562SOL    HW218526   3.839  14.541   0.572
 5563SOL     OW18527   6.182  11.769   7.726
 5563SOL    HW118528   6.238  11.847   7.731
 5563SOL    HW218529   6.093  11.803   7.740
 5564SOL     OW18530   5.375  10.739  11.888
 5564SOL    HW118531   5.307  10.674  11.907
 5564SOL    HW218532   5.350  10.815  11.940
 5565SOL     OW18533   3.252   7.892   1.971
 5565SOL    HW118534   3.306   7.855   1.902
 5565SOL    HW218535   3.182   7.939   1.925
 5566SOL     OW18536   5.830   9.893  12.150
 5566SOL    HW118537   5.876   9.853  12.224
 5566SOL    HW218538   5.787   9.821  12.105
 5567SOL     OW18539   5.335  10.241   5.757
 5567SOL    HW118540   5.357  10.149   5.772
 5567SOL    HW218541   5.247  10.251   5.793
 5568SOL     OW18542   9.399  13.516   1.999
 5568SOL    HW118543   9.403  13.595   2.054
 5568SOL    HW218544   9.425  13.546   1.912
 5569SOL     OW18545   7.772  11.941   6.443
 5569SOL    HW118546   7.849  11.916   6.391
 5569SOL    HW218547   7.757  12.033   6.422
 5570SOL     OW18548   6.050   3.587   6.299
 5570SOL    HW118549   6.051   3.647   6.224
 5570SOL    HW218550   6.052   3.644   6.376
 5571SOL     OW18551   3.028   4.019   5.234
 5571SOL    HW118552   3.023   3.923   5.236
 5571SOL    HW218553   2.938   4.047   5.250
 5572SOL     OW18554   4.993   3.628   4.927
 5572SOL    HW118555   4.928   3.558   4.916
 5572SOL    HW218556   5.004   3.664   4.839
 5573SOL     OW18557   4.392   6.788   7.115
 5573SOL    HW118558   4.474   6.811   7.159
 5573SOL    HW218559   4.407   6.807   7.023
 5574SOL     OW18560  11.372   5.539  10.456
 5574SOL    HW118561  11.406   5.451  10.438
 5574SOL    HW218562  11.317   5.529  10.534
 5575SOL     OW18563  11.645   6.582   6.754
 5575SOL    HW118564  11.611   6.670   6.771
 5575SOL    HW218565  11.575   6.539   6.704
 5576SOL     OW18566   0.353   4.188   7.181
 5576SOL    HW118567   0.262   4.214   7.166
 5576SOL    HW218568   0.394   4.195   7.095
 5577SOL     OW18569   4.850   1.785  10.335
 5577SOL    HW118570   4.897   1.771  10.417
 5577SOL    HW218571   4.919   1.807  10.272
 5578SOL     OW18572  14.457   0.968   4.161
 5578SOL    HW118573  14.543   0.968   4.202
 5578SOL    HW218574  14.412   1.042   4.201
 5579SOL     OW18575  14.689   1.811   2.875
 5579SOL    HW118576  14.689   1.733   2.931
 5579SOL    HW218577  14.723   1.881   2.931
 5580SOL     OW18578   7.432   7.741  14.076
 5580SOL    HW118579   7.367   7.797  14.035
 5580SOL    HW218580   7.383   7.666  14.109
 5581SOL     OW18581   5.662  14.373   7.204
 5581SOL    HW118582   5.648  14.437   7.274
 5581SOL    HW218583   5.579  14.325   7.199
 5582SOL     OW18584   6.603   1.789  13.007
 5582SOL    HW118585   6.601   1.878  13.043
 5582SOL    HW218586   6.582   1.733  13.082
 5583SOL     OW18587  12.355   7.879   4.383
 5583SOL    HW118588  12.351   7.856   4.475
 5583SOL    HW218589  12.399   7.805   4.341
 5584SOL     OW18590   8.902   1.193   7.274
 5584SOL    HW118591   8.937   1.268   7.225
 5584SOL    HW218592   8.876   1.229   7.358
 5585SOL     OW18593   6.792   7.970  10.271
 5585SOL    HW118594   6.821   7.938  10.357
 5585SOL    HW218595   6.723   8.033  10.291
 5586SOL     OW18596  11.005   6.859  14.264
 5586SOL    HW118597  11.100   6.870  14.267
 5586SOL    HW218598  10.990   6.773  14.303
 5587SOL     OW18599   1.340   2.298  14.200
 5587SOL    HW118600   1.387   2.365  14.250
 5587SOL    HW218601   1.317   2.342  14.118
 5588SOL     OW18602   3.964  14.580   4.159
 5588SOL    HW118603   4.002  14.665   4.138
 5588SOL    HW218604   3.925  14.592   4.246
 5589SOL     OW18605   7.693   7.043   1.070
 5589SOL    HW118606   7.695   7.125   1.119
 5589SOL    HW218607   7.606   7.041   1.029
 5590SOL     OW18608   1.226   9.040   0.211
 5590SOL    HW118609   1.214   8.978   0.283
 5590SOL    HW218610   1.291   9.103   0.243
 5591SOL     OW18611   0.384   7.883   0.120
 5591SOL    HW118612   0.460   7.830   0.145
 5591SOL    HW218613   0.353   7.921   0.202
 5592SOL     OW18614   5.435   9.394   3.431
 5592SOL    HW118615   5.357   9.356   3.472
 5592SOL    HW218616   5.499   9.323   3.430
 5593SOL     OW18617   6.165  13.823   8.643
 5593SOL    HW118618   6.185  13.796   8.733
 5593SOL    HW218619   6.148  13.741   8.597
 5594SOL     OW18620  10.770   5.253   5.768
 5594SOL    HW118621  10.761   5.293   5.855
 5594SOL    HW218622  10.680   5.237   5.739
 5595SOL     OW18623  11.516  10.290  13.511
 5595SOL    HW118624  11.581  10.358  13.528
 5595SOL    HW218625  11.444  10.337  13.469
 5596SOL     OW18626   6.913   4.556   8.737
 5596SOL    HW118627   6.911   4.590   8.827
 5596SOL    HW218628   6.822   4.541   8.715
 5597SOL     OW18629  12.612   2.238   1.950
 5597SOL    HW118630  12.707   2.229   1.941
 5597SOL    HW218631  12.579   2.149   1.953
 5598SOL     OW18632   9.268   4.259   8.270
 5598SOL    HW118633   9.216   4.271   8.191
 5598SOL    HW218634   9.315   4.177   8.256
 5599SOL     OW18635   7.518   8.915   2.714
 5599SOL    HW118636   7.502   9.009   2.725
 5599SOL    HW218637   7.523   8.903   2.619
 5600SOL     OW18638   8.074  14.684   3.875
 5600SOL    HW118639   7.984  14.715   3.885
 5600SOL    HW218640   8.079  14.654   3.784
 5601SOL     OW18641  12.588  14.616   0.373
 5601SOL    HW118642  12.670  14.666   0.378
 5601SOL    HW218643  12.614  14.526   0.394
 5602SOL     OW18644   0.405   4.326   7.405
 5602SOL    HW118645   0.416   4.259   7.473
 5602SOL    HW218646   0.384   4.276   7.326
 5603SOL     OW18647   8.750   9.979   3.926
 5603SOL    HW118648   8.757   9.890   3.890
 5603SOL    HW218649   8.741   9.965   4.021
 5604SOL     OW18650  10.738   8.806  11.159
 5604SOL    HW118651  10.658   8.793  11.210
 5604SOL    HW218652  10.794   8.861  11.214
 5605SOL     OW18653   2.767   6.779   9.425
 5605SOL    HW118654   2.678   6.754   9.449
 5605SOL    HW218655   2.796   6.710   9.365
 5606SOL     OW18656  10.306   2.669   4.295
 5606SOL    HW118657  10.345   2.739   4.243
 5606SOL    HW218658  10.380   2.625   4.336
 5607SOL     OW18659   4.308   7.175   3.368
 5607SOL    HW118660   4.320   7.087   3.405
 5607SOL    HW218661   4.363   7.175   3.289
 5608SOL     OW18662   7.143   9.748   2.180
 5608SOL    HW118663   7.197   9.825   2.165
 5608SOL    HW218664   7.166   9.689   2.108
 5609SOL     OW18665   0.601   6.774   5.516
 5609SOL    HW118666   0.576   6.777   5.424
 5609SOL    HW218667   0.640   6.860   5.533
 5610SOL     OW18668   8.365   2.445  13.431
 5610SOL    HW118669   8.441   2.399  13.394
 5610SOL    HW218670   8.346   2.398  13.512
 5611SOL     OW18671   1.719  11.558   5.240
 5611SOL    HW118672   1.624  11.566   5.235
 5611SOL    HW218673   1.741  11.591   5.327
 5612SOL     OW18674   6.274  10.969   3.221
 5612SOL    HW118675   6.305  10.893   3.172
 5612SOL    HW218676   6.308  10.957   3.309
 5613SOL     OW18677   4.124   8.405  13.123
 5613SOL    HW118678   4.217   8.390  13.105
 5613SOL    HW218679   4.098   8.329  13.175
 5614SOL     OW18680   7.857   9.566   2.042
 5614SOL    HW118681   7.824   9.478   2.027
 5614SOL    HW218682   7.870   9.571   2.137
 5615SOL     OW18683   1.740  13.348  11.383
 5615SOL    HW118684   1.770  13.265  11.347
 5615SOL    HW218685   1.687  13.386  11.314
 5616SOL     OW18686   2.785   8.228   2.911
 5616SOL    HW118687   2.764   8.136   2.898
 5616SOL    HW218688   2.713   8.261   2.965
 5617SOL     OW18689  13.627   5.330   2.730
 5617SOL    HW118690  13.616   5.250   2.678
 5617SOL    HW218691  13.554   5.386   2.703
 5618SOL     OW18692   0.822  13.281   8.848
 5618SOL    HW118693   0.875  13.203   8.833
 5618SOL    HW218694   0.739  13.262   8.805
 5619SOL     OW18695   0.796   9.925   1.004
 5619SOL    HW118696   0.885   9.960   0.999
 5619SOL    HW218697   0.746   9.976   0.941
 5620SOL     OW18698  13.889  14.407   0.809
 5620SOL    HW118699  13.924  14.323   0.839
 5620SOL    HW218700  13.874  14.394   0.715
 5621SOL     OW18701   4.079  10.628  14.379
 5621SOL    HW118702   4.125  10.544  14.369
 5621SOL    HW218703   4.079  10.665  14.291
 5622SOL     OW18704  14.222   3.745   8.171
 5622SOL    HW118705  14.288   3.725   8.237
 5622SOL    HW218706  14.265   3.729   8.087
 5623SOL     OW18707   1.783   2.110  14.694
 5623SOL    HW118708   1.713   2.119  14.759
 5623SOL    HW218709   1.787   2.196  14.651
 5624SOL     OW18710   2.887   1.962  11.901
 5624SOL    HW118711   2.794   1.949  11.919
 5624SOL    HW218712   2.900   2.056  11.911
 5625SOL     OW18713  13.574   2.960   4.612
 5625SOL    HW118714  13.633   2.928   4.681
 5625SOL    HW218715  13.632   2.974   4.537
 5626SOL     OW18716  13.054  11.087  12.251
 5626SOL    HW118717  13.076  11.161  12.308
 5626SOL    HW218718  13.025  11.019  12.312
 5627SOL     OW18719   3.614   9.988   2.234
 5627SOL    HW118720   3.562   9.969   2.156
 5627SOL    HW218721   3.696  10.025   2.200
 5628SOL     OW18722   9.267  14.741  14.086
 5628SOL    HW118723   9.343  14.762  14.140
 5628SOL    HW218724   9.305  14.705  14.005
 5629SOL     OW18725  10.652   2.996   5.033
 5629SOL    HW118726  10.698   2.935   4.975
 5629SOL    HW218727  10.708   3.073   5.036
 5630SOL     OW18728   6.510   3.273   7.103
 5630SOL    HW118729   6.455   3.290   7.026
 5630SOL    HW218730   6.530   3.180   7.099
 5631SOL     OW18731   9.061   1.646   4.119
 5631SOL    HW118732   9.147   1.637   4.162
 5631SOL    HW218733   9.075   1.610   4.031
 5632SOL     OW18734   8.741   9.396   8.661
 5632SOL    HW118735   8.709   9.398   8.571
 5632SOL    HW218736   8.721   9.308   8.692
 5633SOL     OW18737  12.171   4.726   8.059
 5633SOL    HW118738  12.086   4.704   8.021
 5633SOL    HW218739  12.234   4.705   7.991
 5634SOL     OW18740   4.696  11.735   9.006
 5634SOL    HW118741   4.662  11.755   9.093
 5634SOL    HW218742   4.696  11.640   9.001
 5635SOL     OW18743   4.755   4.376  11.476
 5635SOL    HW118744   4.703   4.316  11.422
 5635SOL    HW218745   4.774   4.450  11.419
 5636SOL     OW18746   9.074   7.381   7.979
 5636SOL    HW118747   9.130   7.309   8.007
 5636SOL    HW218748   9.124   7.460   7.999
 5637SOL     OW18749   7.497  10.008   2.158
 5637SOL    HW118750   7.557  10.062   2.106
 5637SOL    HW218751   7.449   9.956   2.093
 5638SOL     OW18752   3.252  12.777  12.409
 5638SOL    HW118753   3.318  12.831  12.453
 5638SOL    HW218754   3.188  12.840  12.375
 5639SOL     OW18755  11.053   7.177   9.303
 5639SOL    HW118756  11.007   7.168   9.387
 5639SOL    HW218757  11.075   7.088   9.277
 5640SOL     OW18758  12.793  10.369  13.170
 5640SOL    HW118759  12.758  10.280  13.172
 5640SOL    HW218760  12.718  10.425  13.190
 5641SOL     OW18761   6.765   6.922   3.197
 5641SOL    HW118762   6.689   6.893   3.146
 5641SOL    HW218763   6.759   7.018   3.196
 5642SOL     OW18764   2.705   8.074  12.403
 5642SOL    HW118765   2.642   8.053  12.334
 5642SOL    HW218766   2.691   8.006  12.470
 5643SOL     OW18767   5.960   8.696   7.576
 5643SOL    HW118768   5.871   8.676   7.603
 5643SOL    HW218769   5.969   8.790   7.588
 5644SOL     OW18770  10.650  13.025   2.502
 5644SOL    HW118771  10.625  12.967   2.430
 5644SOL    HW218772  10.639  13.113   2.467
 5645SOL     OW18773   8.027   7.441   6.641
 5645SOL    HW118774   8.000   7.509   6.703
 5645SOL    HW218775   8.098   7.481   6.591
 5646SOL     OW18776   8.968  13.453   9.872
 5646SOL    HW118777   9.017  13.379   9.835
 5646SOL    HW218778   8.941  13.423   9.959
 5647SOL     OW18779   6.142   9.537  11.961
 5647SOL    HW118780   6.125   9.503  11.873
 5647SOL    HW218781   6.077   9.494  12.016
 5648SOL     OW18782   5.989  11.146   6.715
 5648SOL    HW118783   6.005  11.112   6.627
 5648SOL    HW218784   5.945  11.074   6.761
 5649SOL     OW18785   6.522  13.733  14.413
 5649SOL    HW118786   6.522  13.776  14.498
 5649SOL    HW218787   6.433  13.747  14.379
 5650SOL     OW18788   1.661   2.289   4.095
 5650SOL    HW118789   1.622   2.278   4.008
 5650SOL    HW218790   1.753   2.264   4.083
 5651SOL     OW18791   3.458  12.785   9.117
 5651SOL    HW118792   3.487  12.875   9.104
 5651SOL    HW218793   3.536  12.732   9.099
 5652SOL     OW18794   6.145  13.280   6.200
 5652SOL    HW118795   6.117  13.240   6.282
 5652SOL    HW218796   6.226  13.235   6.178
 5653SOL     OW18797   4.130   0.563  10.334
 5653SOL    HW118798   4.187   0.630  10.295
 5653SOL    HW218799   4.060   0.613  10.375
 5654SOL     OW18800   9.841  13.058   6.899
 5654SOL    HW118801   9.753  13.092   6.918
 5654SOL    HW218802   9.891  13.079   6.978
 5655SOL     OW18803   5.041  14.543  14.051
 5655SOL    HW118804   5.086  14.465  14.084
 5655SOL    HW218805   4.950  14.532  14.079
 5656SOL     OW18806   8.459  14.168  14.365
 5656SOL    HW118807   8.536  14.206  14.323
 5656SOL    HW218808   8.405  14.243  14.389
 5657SOL     OW18809   0.187   0.373   5.324
 5657SOL    HW118810   0.272   0.379   5.281
 5657SOL    HW218811   0.128   0.425   5.270
 5658SOL     OW18812  13.617   6.364   3.117
 5658SOL    HW118813  13.609   6.393   3.208
 5658SOL    HW218814  13.650   6.274   3.124
 5659SOL     OW18815   1.208   6.647   7.285
 5659SOL    HW118816   1.188   6.573   7.342
 5659SOL    HW218817   1.122   6.679   7.256
 5660SOL     OW18818   5.016   5.211  14.806
 5660SOL    HW118819   5.096   5.165  14.779
 5660SOL    HW218820   5.040   5.304  14.803
 5661SOL     OW18821   5.288   8.387   6.619
 5661SOL    HW118822   5.345   8.397   6.542
 5661SOL    HW218823   5.343   8.342   6.683
 5662SOL     OW18824   9.420   3.826   6.439
 5662SOL    HW118825   9.440   3.784   6.355
 5662SOL    HW218826   9.386   3.912   6.415
 5663SOL     OW18827  13.461   4.015   1.434
 5663SOL    HW118828  13.409   3.981   1.507
 5663SOL    HW218829  13.469   4.108   1.451
 5664SOL     OW18830  10.380   8.760   7.981
 5664SOL    HW118831  10.370   8.694   7.912
 5664SOL    HW218832  10.474   8.779   7.982
 5665SOL     OW18833  12.207  14.603  12.900
 5665SOL    HW118834  12.300  14.617  12.884
 5665SOL    HW218835  12.163  14.647  12.827
 5666SOL     OW18836  12.741   3.600  11.025
 5666SOL    HW118837  12.701   3.549  10.954
 5666SOL    HW218838  12.703   3.562  11.105
 5667SOL     OW18839   1.344   6.690   6.912
 5667SOL    HW118840   1.368   6.713   7.002
 5667SOL    HW218841   1.335   6.774   6.867
 5668SOL     OW18842  13.297   6.686   9.627
 5668SOL    HW118843  13.317   6.766   9.579
 5668SOL    HW218844  13.343   6.696   9.711
 5669SOL     OW18845   4.437   1.720   6.083
 5669SOL    HW118846   4.461   1.639   6.039
 5669SOL    HW218847   4.461   1.705   6.175
 5670SOL     OW18848   6.655   9.916   8.669
 5670SOL    HW118849   6.612   9.854   8.727
 5670SOL    HW218850   6.675   9.866   8.590
 5671SOL     OW18851  13.490   4.444   2.661
 5671SOL    HW118852  13.460   4.504   2.593
 5671SOL    HW218853  13.466   4.357   2.627
 5672SOL     OW18854   4.610   4.503   9.729
 5672SOL    HW118855   4.659   4.473   9.806
 5672SOL    HW218856   4.584   4.423   9.684
 5673SOL     OW18857   4.468   3.876  10.035
 5673SOL    HW118858   4.512   3.888  10.119
 5673SOL    HW218859   4.515   3.934   9.974
 5674SOL     OW18860  13.033  11.509   7.206
 5674SOL    HW118861  13.049  11.603   7.196
 5674SOL    HW218862  13.049  11.472   7.119
 5675SOL     OW18863   4.332   3.153   4.779
 5675SOL    HW118864   4.351   3.114   4.864
 5675SOL    HW218865   4.316   3.246   4.798
 5676SOL     OW18866   6.313  12.664   0.834
 5676SOL    HW118867   6.348  12.650   0.922
 5676SOL    HW218868   6.218  12.658   0.845
 5677SOL     OW18869   8.410   3.249   8.376
 5677SOL    HW118870   8.412   3.339   8.410
 5677SOL    HW218871   8.470   3.201   8.432
 5678SOL     OW18872   2.012  13.540   1.045
 5678SOL    HW118873   2.092  13.572   1.003
 5678SOL    HW218874   1.958  13.619   1.055
 5679SOL     OW18875   5.767   7.700   9.760
 5679SOL    HW118876   5.784   7.697   9.854
 5679SOL    HW218877   5.813   7.624   9.725
 5680SOL     OW18878  12.556   1.979   1.952
 5680SOL    HW118879  12.616   1.915   1.991
 5680SOL    HW218880  12.572   1.973   1.858
 5681SOL     OW18881   5.957   0.979   7.773
 5681SOL    HW118882   5.927   1.070   7.771
 5681SOL    HW218883   5.878   0.927   7.761
 5682SOL     OW18884   9.394   7.201   4.335
 5682SOL    HW118885   9.448   7.213   4.257
 5682SOL    HW218886   9.320   7.148   4.305
 5683SOL     OW18887   4.022   6.032   5.096
 5683SOL    HW118888   3.997   5.982   5.174
 5683SOL    HW218889   4.067   5.969   5.040
 5684SOL     OW18890   7.728   3.907   6.428
 5684SOL    HW118891   7.732   3.981   6.368
 5684SOL    HW218892   7.667   3.935   6.496
 5685SOL     OW18893  12.048   1.628  12.579
 5685SOL    HW118894  12.017   1.632  12.669
 5685SOL    HW218895  12.017   1.543  12.547
 5686SOL     OW18896  12.016   5.341  11.552
 5686SOL    HW118897  12.095   5.393  11.535
 5686SOL    HW218898  12.018   5.273  11.485
 5687SOL     OW18899   2.463   9.784   7.985
 5687SOL    HW118900   2.475   9.860   8.042
 5687SOL    HW218901   2.505   9.712   8.032
 5688SOL     OW18902   1.706   6.215  10.096
 5688SOL    HW118903   1.622   6.170  10.101
 5688SOL    HW218904   1.741   6.192  10.009
 5689SOL     OW18905  10.785   0.467  11.065
 5689SOL    HW118906  10.773   0.531  11.134
 5689SOL    HW218907  10.799   0.519  10.986
 5690SOL     OW18908  13.495  12.494   0.869
 5690SOL    HW118909  13.558  12.432   0.833
 5690SOL    HW218910  13.489  12.471   0.962
 5691SOL     OW18911  13.630   6.003  12.698
 5691SOL    HW118912  13.657   5.927  12.647
 5691SOL    HW218913  13.629   5.972  12.789
 5692SOL     OW18914   2.645  11.742   8.048
 5692SOL    HW118915   2.653  11.701   8.133
 5692SOL    HW218916   2.735  11.749   8.016
 5693SOL     OW18917  14.757  11.397   3.254
 5693SOL    HW118918  14.756  11.457   3.328
 5693SOL    HW218919  14.848  11.400   3.222
 5694SOL     OW18920   6.487   1.271  13.076
 5694SOL    HW118921   6.461   1.354  13.037
 5694SOL    HW218922   6.411   1.244  13.128
 5695SOL     OW18923  11.917   0.072   5.791
 5695SOL    HW118924  11.968   0.116   5.723
 5695SOL    HW218925  11.937   0.120   5.871
 5696SOL     OW18926   4.085   9.137   7.985
 5696SOL    HW118927   3.991   9.120   7.978
 5696SOL    HW218928   4.122   9.056   8.020
 5697SOL     OW18929  11.930   7.335  13.836
 5697SOL    HW118930  11.856   7.394  13.820
 5697SOL    HW218931  11.889   7.249  13.849
 5698SOL     OW18932   9.332   1.332   0.572
 5698SOL    HW118933   9.390   1.314   0.647
 5698SOL    HW218934   9.286   1.412   0.595
 5699SOL     OW18935  14.780   0.958   5.162
 5699SOL    HW118936  14.733   0.992   5.239
 5699SOL    HW218937  14.720   0.973   5.089
 5700SOL     OW18938   7.548   3.584   9.083
 5700SOL    HW118939   7.598   3.503   9.071
 5700SOL    HW218940   7.528   3.587   9.176
 5701SOL     OW18941   9.054   8.457   5.368
 5701SOL    HW118942   9.017   8.466   5.280
 5701SOL    HW218943   8.983   8.481   5.427
 5702SOL     OW18944  11.407  11.606  10.191
 5702SOL    HW118945  11.430  11.698  10.178
 5702SOL    HW218946  11.483  11.557  10.160
 5703SOL     OW18947   3.640   2.482   2.724
 5703SOL    HW118948   3.632   2.497   2.630
 5703SOL    HW218949   3.726   2.441   2.735
 5704SOL     OW18950   6.702   5.289  12.173
 5704SOL    HW118951   6.761   5.319  12.104
 5704SOL    HW218952   6.760   5.260  12.244
 5705SOL     OW18953   1.876   2.616   5.725
 5705SOL    HW118954   1.884   2.535   5.674
 5705SOL    HW218955   1.884   2.685   5.660
 5706SOL     OW18956   9.480   0.831  11.533
 5706SOL    HW118957   9.512   0.742  11.516
 5706SOL    HW218958   9.466   0.868  11.446
 5707SOL     OW18959  14.620   0.241   3.131
 5707SOL    HW118960  14.600   0.298   3.057
 5707SOL    HW218961  14.548   0.255   3.193
 5708SOL     OW18962   0.602  11.625   5.493
 5708SOL    HW118963   0.694  11.649   5.481
 5708SOL    HW218964   0.561  11.644   5.409
 5709SOL     OW18965  11.761   8.936   2.893
 5709SOL    HW118966  11.752   9.000   2.963
 5709SOL    HW218967  11.737   8.852   2.933
 5710SOL     OW18968  11.770   4.578   0.763
 5710SOL    HW118969  11.686   4.574   0.718
 5710SOL    HW218970  11.798   4.669   0.753
 5711SOL     OW18971   7.474  12.968  10.279
 5711SOL    HW118972   7.512  13.005  10.200
 5711SOL    HW218973   7.543  12.977  10.345
 5712SOL     OW18974   1.180   7.259   6.430
 5712SOL    HW118975   1.180   7.253   6.335
 5712SOL    HW218976   1.253   7.202   6.457
 5713SOL     OW18977   0.878   3.995   9.946
 5713SOL    HW118978   0.943   4.062   9.925
 5713SOL    HW218979   0.929   3.924   9.986
 5714SOL     OW18980   6.747   8.094  11.500
 5714SOL    HW118981   6.839   8.108  11.524
 5714SOL    HW218982   6.732   8.152  11.426
 5715SOL     OW18983   2.137   5.078   6.550
 5715SOL    HW118984   2.139   5.025   6.630
 5715SOL    HW218985   2.061   5.045   6.502
 5716SOL     OW18986  12.270   5.798  12.652
 5716SOL    HW118987  12.287   5.876  12.599
 5716SOL    HW218988  12.175   5.786  12.647
 5717SOL     OW18989   1.887   3.047   3.617
 5717SOL    HW118990   1.919   3.137   3.608
 5717SOL    HW218991   1.959   3.001   3.661
 5718SOL     OW18992   4.714  11.385  14.052
 5718SOL    HW118993   4.769  11.403  14.129
 5718SOL    HW218994   4.742  11.449  13.987
 5719SOL     OW18995   8.824   8.693   7.431
 5719SOL    HW118996   8.861   8.760   7.373
 5719SOL    HW218997   8.861   8.611   7.400
 5720SOL     OW18998  12.824   2.013  10.139
 5720SOL    HW118999  12.795   2.098  10.108
 5720SOL    HW219000  12.842   2.027  10.232
 5721SOL     OW19001   8.722   4.840  10.631
 5721SOL    HW119002   8.717   4.838  10.536
 5721SOL    HW219003   8.675   4.761  10.659
 5722SOL     OW19004   4.854   0.753  10.839
 5722SOL    HW119005   4.767   0.779  10.870
 5722SOL    HW219006   4.857   0.781  10.748
 5723SOL     OW19007   3.766   2.435   4.902
 5723SOL    HW119008   3.804   2.479   4.825
 5723SOL    HW219009   3.702   2.498   4.936
 5724SOL     OW19010   4.150  13.818   7.042
 5724SOL    HW119011   4.119  13.889   7.099
 5724SOL    HW219012   4.102  13.741   7.072
 5725SOL     OW19013   1.499  13.194   0.926
 5725SOL    HW119014   1.466  13.115   0.883
 5725SOL    HW219015   1.473  13.184   1.018
 5726SOL     OW19016   3.284   9.408   0.071
 5726SOL    HW119017   3.201   9.451   0.052
 5726SOL    HW219018   3.349   9.461   0.026
 5727SOL     OW19019   8.451  14.711   2.692
 5727SOL    HW119020   8.446  14.699   2.597
 5727SOL    HW219021   8.520  14.650   2.720
 5728SOL     OW19022   2.116   9.942  13.378
 5728SOL    HW119023   2.050   9.988  13.430
 5728SOL    HW219024   2.198   9.956  13.425
 5729SOL     OW19025   5.319  14.737   3.877
 5729SOL    HW119026   5.273  14.798   3.819
 5729SOL    HW219027   5.283  14.651   3.854
 5730SOL     OW19028   3.132  10.797   5.615
 5730SOL    HW119029   3.071  10.786   5.689
 5730SOL    HW219030   3.103  10.732   5.551
 5731SOL     OW19031   5.933   5.641   8.004
 5731SOL    HW119032   5.904   5.720   7.958
 5731SOL    HW219033   5.939   5.575   7.935
 5732SOL     OW19034   2.621   8.435   7.696
 5732SOL    HW119035   2.706   8.431   7.652
 5732SOL    HW219036   2.600   8.343   7.716
 5733SOL     OW19037  10.016   0.445  11.526
 5733SOL    HW119038   9.977   0.483  11.604
 5733SOL    HW219039   9.976   0.494  11.454
 5734SOL     OW19040   0.061   7.601   8.317
 5734SOL    HW119041   0.107   7.604   8.400
 5734SOL    HW219042  14.844   7.609   8.340
 5735SOL     OW19043   1.401   9.257  13.471
 5735SOL    HW119044   1.405   9.344  13.430
 5735SOL    HW219045   1.368   9.200  13.402
 5736SOL     OW19046   0.557   2.834   5.033
 5736SOL    HW119047   0.518   2.850   4.947
 5736SOL    HW219048   0.643   2.876   5.029
 5737SOL     OW19049  10.542   1.103  11.100
 5737SOL    HW119050  10.539   1.007  11.091
 5737SOL    HW219051  10.562   1.135  11.012
 5738SOL     OW19052   1.317   7.124  14.652
 5738SOL    HW119053   1.242   7.166  14.610
 5738SOL    HW219054   1.370   7.092  14.579
 5739SOL     OW19055  13.936  13.217   3.825
 5739SOL    HW119056  13.890  13.298   3.847
 5739SOL    HW219057  13.959  13.227   3.733
 5740SOL     OW19058   5.076   9.782  11.471
 5740SOL    HW119059   5.129   9.718  11.518
 5740SOL    HW219060   5.095   9.865  11.515
 5741SOL     OW19061   8.605   4.890   5.705
 5741SOL    HW119062   8.532   4.867   5.762
 5741SOL    HW219063   8.669   4.819   5.717
 5742SOL     OW19064   4.259   9.846   2.880
 5742SOL    HW119065   4.225   9.931   2.852
 5742SOL    HW219066   4.206   9.823   2.956
 5743SOL     OW19067   8.215   5.322  14.467
 5743SOL    HW119068   8.290   5.266  14.484
 5743SOL    HW219069   8.140   5.262  14.464
 5744SOL     OW19070   3.866  10.066   7.163
 5744SOL    HW119071   3.921  10.055   7.086
 5744SOL    HW219072   3.875  10.159   7.186
 5745SOL     OW19073  14.703   4.999   3.996
 5745SOL    HW119074  14.646   5.065   4.036
 5745SOL    HW219075  14.745   4.956   4.071
 5746SOL     OW19076  11.437  13.030  14.262
 5746SOL    HW119077  11.397  12.949  14.292
 5746SOL    HW219078  11.393  13.099  14.312
 5747SOL     OW19079   9.770   2.344   0.946
 5747SOL    HW119080   9.777   2.332   1.040
 5747SOL    HW219081   9.830   2.280   0.908
 5748SOL     OW19082  14.258  10.074   7.429
 5748SOL    HW119083  14.187  10.012   7.444
 5748SOL    HW219084  14.216  10.160   7.436
 5749SOL     OW19085   0.868  13.191  12.232
 5749SOL    HW119086   0.805  13.119  12.239
 5749SOL    HW219087   0.949  13.155  12.270
 5750SOL     OW19088   9.553   6.293   4.628
 5750SOL    HW119089   9.623   6.311   4.691
 5750SOL    HW219090   9.586   6.221   4.575
 5751SOL     OW19091   6.746  13.909  14.037
 5751SOL    HW119092   6.760  13.878  14.127
 5751SOL    HW219093   6.713  13.999  14.048
 5752SOL     OW19094  12.405   0.724   3.303
 5752SOL    HW119095  12.352   0.723   3.383
 5752SOL    HW219096  12.453   0.807   3.308
 5753SOL     OW19097   8.578   5.611   5.447
 5753SOL    HW119098   8.590   5.539   5.510
 5753SOL    HW219099   8.488   5.598   5.415
 5754SOL     OW19100   9.828   3.510  10.434
 5754SOL    HW119101   9.919   3.526  10.461
 5754SOL    HW219102   9.835   3.440  10.368
 5755SOL     OW19103   1.990  11.596  11.319
 5755SOL    HW119104   2.051  11.525  11.304
 5755SOL    HW219105   1.940  11.602  11.237
 5756SOL     OW19106   4.981  10.711   1.182
 5756SOL    HW119107   5.063  10.693   1.228
 5756SOL    HW219108   5.003  10.782   1.121
 5757SOL     OW19109   3.265   5.110   8.785
 5757SOL    HW119110   3.326   5.088   8.855
 5757SOL    HW219111   3.286   5.201   8.762
 5758SOL     OW19112   7.256  11.969   5.509
 5758SOL    HW119113   7.267  11.895   5.448
 5758SOL    HW219114   7.292  12.044   5.461
 5759SOL     OW19115  12.340   1.871   3.557
 5759SOL    HW119116  12.265   1.811   3.559
 5759SOL    HW219117  12.358   1.890   3.649
 5760SOL     OW19118   9.789   4.248  12.668
 5760SOL    HW119119   9.845   4.280  12.738
 5760SOL    HW219120   9.742   4.325  12.636
 5761SOL     OW19121   9.401   9.897  10.640
 5761SOL    HW119122   9.388   9.841  10.717
 5761SOL    HW219123   9.316   9.939  10.626
 5762SOL     OW19124  10.480  11.902   2.652
 5762SOL    HW119125  10.497  11.888   2.746
 5762SOL    HW219126  10.437  11.821   2.623
 5763SOL     OW19127  11.598   3.313   0.584
 5763SOL    HW119128  11.516   3.343   0.624
 5763SOL    HW219129  11.633   3.390   0.540
 5764SOL     OW19130  11.923  12.761  10.504
 5764SOL    HW119131  11.986  12.785  10.436
 5764SOL    HW219132  11.840  12.798  10.473
 5765SOL     OW19133  10.562  13.419   5.651
 5765SOL    HW119134  10.506  13.352   5.612
 5765SOL    HW219135  10.541  13.416   5.744
 5766SOL     OW19136  11.000   2.810  13.878
 5766SOL    HW119137  11.019   2.747  13.809
 5766SOL    HW219138  10.940   2.872  13.838
 5767SOL     OW19139  14.462  13.428   6.495
 5767SOL    HW119140  14.555  13.412   6.507
 5767SOL    HW219141  14.444  13.396   6.406
 5768SOL     OW19142   1.921   1.501  13.606
 5768SOL    HW119143   1.987   1.463  13.547
 5768SOL    HW219144   1.865   1.553  13.548
 5769SOL     OW19145   1.905  13.797   6.193
 5769SOL    HW119146   1.824  13.848   6.188
 5769SOL    HW219147   1.893  13.727   6.129
 5770SOL     OW19148  12.535   4.362   2.136
 5770SOL    HW119149  12.493   4.376   2.051
 5770SOL    HW219150  12.509   4.274   2.162
 5771SOL     OW19151   4.010   4.216   0.020
 5771SOL    HW119152   3.942   4.283   0.009
 5771SOL    HW219153   4.060   4.245   0.097
 5772SOL     OW19154   9.208   7.825   5.192
 5772SOL    HW119155   9.205   7.801   5.284
 5772SOL    HW219156   9.219   7.921   5.192
 5773SOL     OW19157   6.694   6.650   0.277
 5773SOL    HW119158   6.619   6.709   0.273
 5773SOL    HW219159   6.683   6.593   0.201
 5774SOL     OW19160  11.261  13.200   7.410
 5774SOL    HW119161  11.316  13.149   7.469
 5774SOL    HW219162  11.308  13.284   7.401
 5775SOL     OW19163  11.133   4.116   9.824
 5775SOL    HW119164  11.119   4.022   9.827
 5775SOL    HW219165  11.226   4.126   9.802
 5776SOL     OW19166   1.501   3.480  10.673
 5776SOL    HW119167   1.414   3.445  10.654
 5776SOL    HW219168   1.542   3.492  10.587
 5777SOL     OW19169  13.095   2.141  11.922
 5777SOL    HW119170  13.165   2.206  11.917
 5777SOL    HW219171  13.081   2.129  12.016
 5778SOL     OW19172   7.489  13.470  12.163
 5778SOL    HW119173   7.578  13.433  12.163
 5778SOL    HW219174   7.456  13.453  12.252
 5779SOL     OW19175   8.569  10.259   3.248
 5779SOL    HW119176   8.605  10.338   3.208
 5779SOL    HW219177   8.610  10.187   3.200
 5780SOL     OW19178   6.817   4.028   6.471
 5780SOL    HW119179   6.780   4.026   6.559
 5780SOL    HW219180   6.855   3.940   6.459
 5781SOL     OW19181   4.949   7.388   6.331
 5781SOL    HW119182   4.921   7.422   6.416
 5781SOL    HW219183   4.955   7.293   6.344
 5782SOL     OW19184   5.871   4.267   4.023
 5782SOL    HW119185   5.964   4.252   4.004
 5782SOL    HW219186   5.852   4.211   4.098
 5783SOL     OW19187   4.395   6.553   2.768
 5783SOL    HW119188   4.382   6.543   2.674
 5783SOL    HW219189   4.489   6.540   2.780
 5784SOL     OW19190  11.590   1.986   3.895
 5784SOL    HW119191  11.558   2.075   3.878
 5784SOL    HW219192  11.686   1.995   3.896
 5785SOL     OW19193   0.213   6.424   7.518
 5785SOL    HW119194   0.197   6.517   7.499
 5785SOL    HW219195   0.170   6.409   7.602
 5786SOL     OW19196   2.722   9.167  10.269
 5786SOL    HW119197   2.763   9.146  10.185
 5786SOL    HW219198   2.736   9.089  10.323
 5787SOL     OW19199   5.020   1.981   9.676
 5787SOL    HW119200   4.942   1.999   9.728
 5787SOL    HW219201   5.080   2.053   9.696
 5788SOL     OW19202  10.815  10.880   7.854
 5788SOL    HW119203  10.866  10.949   7.897
 5788SOL    HW219204  10.777  10.829   7.926
 5789SOL     OW19205   2.307  12.661  12.960
 5789SOL    HW119206   2.243  12.716  13.005
 5789SOL    HW219207   2.285  12.572  12.987
 5790SOL     OW19208  11.578   1.216   9.792
 5790SOL    HW119209  11.561   1.265   9.872
 5790SOL    HW219210  11.511   1.148   9.790
 5791SOL     OW19211   8.925   0.294   7.496
 5791SOL    HW119212   8.938   0.359   7.427
 5791SOL    HW219213   8.839   0.256   7.478
 5792SOL     OW19214  12.680   0.477   3.939
 5792SOL    HW119215  12.756   0.451   3.887
 5792SOL    HW219216  12.690   0.429   4.021
 5793SOL     OW19217  11.314  11.807   6.389
 5793SOL    HW119218  11.336  11.794   6.481
 5793SOL    HW219219  11.234  11.859   6.391
 5794SOL     OW19220  12.355   2.159   1.382
 5794SOL    HW119221  12.324   2.189   1.296
 5794SOL    HW219222  12.443   2.196   1.390
 5795SOL     OW19223   3.385   5.689  13.802
 5795SOL    HW119224   3.375   5.674  13.896
 5795SOL    HW219225   3.480   5.701  13.790
 5796SOL     OW19226   0.794   0.960   6.103
 5796SOL    HW119227   0.863   1.019   6.133
 5796SOL    HW219228   0.769   0.992   6.017
 5797SOL     OW19229   3.756   9.944  10.747
 5797SOL    HW119230   3.786  10.029  10.778
 5797SOL    HW219231   3.662   9.957  10.729
 5798SOL     OW19232  10.462  12.288   1.301
 5798SOL    HW119233  10.418  12.207   1.275
 5798SOL    HW219234  10.428  12.354   1.241
 5799SOL     OW19235   4.115   7.535   1.505
 5799SOL    HW119236   4.191   7.503   1.553
 5799SOL    HW219237   4.105   7.626   1.533
 5800SOL     OW19238   0.024  10.383   1.706
 5800SOL    HW119239   0.055  10.359   1.794
 5800SOL    HW219240   0.100  10.423   1.664
 5801SOL     OW19241   3.359  13.192   4.333
 5801SOL    HW119242   3.446  13.177   4.369
 5801SOL    HW219243   3.366  13.276   4.287
 5802SOL     OW19244  13.056  12.293   0.443
 5802SOL    HW119245  13.035  12.351   0.516
 5802SOL    HW219246  13.061  12.351   0.367
 5803SOL     OW19247  12.980  14.736  11.096
 5803SOL    HW119248  12.911  14.677  11.068
 5803SOL    HW219249  13.037  14.683  11.151
 5804SOL     OW19250   3.820  13.436   4.422
 5804SOL    HW119251   3.915  13.437   4.407
 5804SOL    HW219252   3.785  13.386   4.348
 5805SOL     OW19253  11.489   7.640   0.670
 5805SOL    HW119254  11.421   7.702   0.693
 5805SOL    HW219255  11.501   7.586   0.748
 5806SOL     OW19256   8.420   9.473   4.771
 5806SOL    HW119257   8.449   9.520   4.693
 5806SOL    HW219258   8.500   9.435   4.808
 5807SOL     OW19259  11.260   9.087   8.775
 5807SOL    HW119260  11.165   9.076   8.782
 5807SOL    HW219261  11.271   9.175   8.740
 5808SOL     OW19262   1.791   7.967   3.275
 5808SOL    HW119263   1.713   8.021   3.285
 5808SOL    HW219264   1.785   7.931   3.187
 5809SOL     OW19265   3.248  10.223   3.571
 5809SOL    HW119266   3.269  10.256   3.484
 5809SOL    HW219267   3.273  10.294   3.630
 5810SOL     OW19268  12.239   6.324   5.627
 5810SOL    HW119269  12.278   6.265   5.692
 5810SOL    HW219270  12.276   6.410   5.648
 5811SOL     OW19271   7.024   8.961   8.985
 5811SOL    HW119272   6.979   9.002   8.911
 5811SOL    HW219273   6.953   8.923   9.038
 5812SOL     OW19274  10.895   1.311   7.875
 5812SOL    HW119275  10.946   1.243   7.919
 5812SOL    HW219276  10.851   1.266   7.803
 5813SOL     OW19277  12.440  12.517   1.629
 5813SOL    HW119278  12.475  12.464   1.557
 5813SOL    HW219279  12.419  12.453   1.697
 5814SOL     OW19280   6.922  14.294   3.366
 5814SOL    HW119281   6.897  14.356   3.435
 5814SOL    HW219282   7.017  14.286   3.375
 5815SOL     OW19283   8.746  13.135   4.469
 5815SOL    HW119284   8.782  13.047   4.474
 5815SOL    HW219285   8.708  13.140   4.381
 5816SOL     OW19286   8.057   8.461  10.905
 5816SOL    HW119287   7.991   8.398  10.875
 5816SOL    HW219288   8.015   8.507  10.978
 5817SOL     OW19289   4.027   4.943   2.857
 5817SOL    HW119290   4.030   4.913   2.948
 5817SOL    HW219291   3.960   4.888   2.816
 5818SOL     OW19292   7.359   6.173  10.860
 5818SOL    HW119293   7.315   6.216  10.787
 5818SOL    HW219294   7.424   6.116  10.818
 5819SOL     OW19295   2.792   9.886  12.445
 5819SOL    HW119296   2.772   9.800  12.411
 5819SOL    HW219297   2.808   9.940  12.368
 5820SOL     OW19298  11.071  10.499  13.665
 5820SOL    HW119299  11.132  10.463  13.730
 5820SOL    HW219300  10.987  10.503  13.711
 5821SOL     OW19301  13.794   5.136   1.317
 5821SOL    HW119302  13.790   5.149   1.222
 5821SOL    HW219303  13.802   5.042   1.328
 5822SOL     OW19304  10.965   3.981   2.443
 5822SOL    HW119305  10.982   3.999   2.535
 5822SOL    HW219306  10.873   3.953   2.440
 5823SOL     OW19307   2.575  12.275  11.139
 5823SOL    HW119308   2.610  12.338  11.201
 5823SOL    HW219309   2.615  12.192  11.163
 5824SOL     OW19310   6.921   1.995  11.863
 5824SOL    HW119311   6.974   2.050  11.921
 5824SOL    HW219312   6.985   1.946  11.811
 5825SOL     OW19313   0.820   8.837   3.303
 5825SOL    HW119314   0.825   8.927   3.335
 5825SOL    HW219315   0.901   8.824   3.254
 5826SOL     OW19316   0.508   8.967   0.978
 5826SOL    HW119317   0.521   8.872   0.973
 5826SOL    HW219318   0.502   8.985   1.071
 5827SOL     OW19319   8.037   1.966   3.693
 5827SOL    HW119320   8.001   1.944   3.779
 5827SOL    HW219321   8.109   1.904   3.680
 5828SOL     OW19322  13.860   2.765   5.091
 5828SOL    HW119323  13.852   2.671   5.103
 5828SOL    HW219324  13.800   2.803   5.155
 5829SOL     OW19325   1.648   2.201  13.993
 5829SOL    HW119326   1.584   2.135  14.020
 5829SOL    HW219327   1.721   2.150  13.958
 5830SOL     OW19328   4.352  13.476   3.360
 5830SOL    HW119329   4.374  13.569   3.362
 5830SOL    HW219330   4.332  13.459   3.268
 5831SOL     OW19331   2.915   0.253  11.085
 5831SOL    HW119332   2.860   0.294  11.152
 5831SOL    HW219333   2.887   0.294  11.003
 5832SOL     OW19334   3.239   7.666   4.328
 5832SOL    HW119335   3.261   7.758   4.318
 5832SOL    HW219336   3.162   7.653   4.273
 5833SOL     OW19337   8.934  13.473   1.882
 5833SOL    HW119338   8.933  13.430   1.967
 5833SOL    HW219339   9.026  13.495   1.867
 5834SOL     OW19340   5.446   8.475  10.381
 5834SOL    HW119341   5.378   8.529  10.341
 5834SOL    HW219342   5.421   8.468  10.473
 5835SOL     OW19343   4.625   5.393   6.505
 5835SOL    HW119344   4.663   5.335   6.571
 5835SOL    HW219345   4.613   5.476   6.551
 5836SOL     OW19346   1.040   9.626  11.446
 5836SOL    HW119347   1.115   9.573  11.472
 5836SOL    HW219348   1.022   9.680  11.523
 5837SOL     OW19349   0.886   4.452   2.665
 5837SOL    HW119350   0.965   4.486   2.707
 5837SOL    HW219351   0.827   4.431   2.737
 5838SOL     OW19352   3.786   5.580  12.127
 5838SOL    HW119353   3.745   5.617  12.049
 5838SOL    HW219354   3.857   5.640  12.148
 5839SOL     OW19355   3.501   9.650   7.217
 5839SOL    HW119356   3.506   9.741   7.190
 5839SOL    HW219357   3.593   9.623   7.227
 5840SOL     OW19358  12.827   0.415   1.784
 5840SOL    HW119359  12.915   0.394   1.753
 5840SOL    HW219360  12.833   0.507   1.811
 5841SOL     OW19361  12.744  14.290   7.116
 5841SOL    HW119362  12.738  14.194   7.120
 5841SOL    HW219363  12.811  14.312   7.181
 5842SOL     OW19364   6.905  11.566  12.482
 5842SOL    HW119365   6.940  11.477  12.491
 5842SOL    HW219366   6.960  11.619  12.539
 5843SOL     OW19367   9.160   2.345  10.322
 5843SOL    HW119368   9.165   2.261  10.366
 5843SOL    HW219369   9.235   2.346  10.262
 5844SOL     OW19370  12.355   5.012   2.352
 5844SOL    HW119371  12.340   5.011   2.257
 5844SOL    HW219372  12.283   4.961   2.388
 5845SOL     OW19373  10.507   5.434   6.084
 5845SOL    HW119374  10.496   5.519   6.043
 5845SOL    HW219375  10.584   5.396   6.041
 5846SOL     OW19376   4.944   2.010  12.218
 5846SOL    HW119377   4.965   2.054  12.301
 5846SOL    HW219378   5.028   1.996  12.176
 5847SOL     OW19379  13.653  10.065   6.127
 5847SOL    HW119380  13.605   9.998   6.176
 5847SOL    HW219381  13.744  10.033   6.126
 5848SOL     OW19382   5.835   2.519   2.946
 5848SOL    HW119383   5.786   2.442   2.973
 5848SOL    HW219384   5.779   2.593   2.971
 5849SOL     OW19385  10.889   7.266   6.028
 5849SOL    HW119386  10.824   7.314   5.976
 5849SOL    HW219387  10.953   7.234   5.964
 5850SOL     OW19388   8.884  13.695   9.383
 5850SOL    HW119389   8.826  13.619   9.371
 5850SOL    HW219390   8.961  13.659   9.427
 5851SOL     OW19391  11.502   9.701   1.128
 5851SOL    HW119392  11.467   9.783   1.093
 5851SOL    HW219393  11.440   9.634   1.100
 5852SOL     OW19394  12.951  13.533  11.328
 5852SOL    HW119395  12.862  13.515  11.357
 5852SOL    HW219396  12.945  13.536  11.232
 5853SOL     OW19397   4.952  13.296  11.351
 5853SOL    HW119398   4.913  13.218  11.392
 5853SOL    HW219399   5.041  13.300  11.387
 5854SOL     OW19400   1.274   0.555   9.874
 5854SOL    HW119401   1.188   0.530   9.839
 5854SOL    HW219402   1.319   0.595   9.799
 5855SOL     OW19403  10.497   5.678  11.705
 5855SOL    HW119404  10.465   5.597  11.663
 5855SOL    HW219405  10.579   5.697  11.660
 5856SOL     OW19406   0.823   6.628   8.372
 5856SOL    HW119407   0.769   6.687   8.424
 5856SOL    HW219408   0.817   6.543   8.417
 5857SOL     OW19409   7.188   3.406   6.125
 5857SOL    HW119410   7.194   3.501   6.113
 5857SOL    HW219411   7.269   3.381   6.168
 5858SOL     OW19412   1.953   4.899  13.917
 5858SOL    HW119413   1.991   4.873  13.832
 5858SOL    HW219414   2.024   4.946  13.961
 5859SOL     OW19415   1.307   2.714   6.207
 5859SOL    HW119416   1.354   2.751   6.133
 5859SOL    HW219417   1.261   2.639   6.171
 5860SOL     OW19418  12.778  12.371   0.295
 5860SOL    HW119419  12.725  12.353   0.373
 5860SOL    HW219420  12.718  12.413   0.234
 5861SOL     OW19421   7.307   6.344  13.702
 5861SOL    HW119422   7.338   6.268  13.652
 5861SOL    HW219423   7.231   6.375  13.653
 5862SOL     OW19424   8.388   4.614  10.091
 5862SOL    HW119425   8.387   4.533  10.040
 5862SOL    HW219426   8.325   4.671  10.046
 5863SOL     OW19427   2.426   4.622  11.777
 5863SOL    HW119428   2.433   4.599  11.684
 5863SOL    HW219429   2.442   4.540  11.823
 5864SOL     OW19430   3.465   6.029   8.327
 5864SOL    HW119431   3.510   5.962   8.275
 5864SOL    HW219432   3.378   6.035   8.288
 5865SOL     OW19433   5.390  13.498   3.341
 5865SOL    HW119434   5.476  13.471   3.308
 5865SOL    HW219435   5.378  13.447   3.421
 5866SOL     OW19436  14.278   6.591   2.331
 5866SOL    HW119437  14.224   6.512   2.332
 5866SOL    HW219438  14.262   6.629   2.245
 5867SOL     OW19439   9.009  12.387  11.501
 5867SOL    HW119440   8.981  12.312  11.554
 5867SOL    HW219441   9.056  12.443  11.563
 5868SOL     OW19442   8.454   2.162  13.331
 5868SOL    HW119443   8.415   2.102  13.268
 5868SOL    HW219444   8.438   2.122  13.417
 5869SOL     OW19445   7.577   8.809  13.020
 5869SOL    HW119446   7.492   8.847  13.042
 5869SOL    HW219447   7.616   8.871  12.958
 5870SOL     OW19448  13.288   1.702   8.449
 5870SOL    HW119449  13.203   1.673   8.481
 5870SOL    HW219450  13.269   1.780   8.397
 5871SOL     OW19451   8.751  11.398   5.708
 5871SOL    HW119452   8.783  11.313   5.679
 5871SOL    HW219453   8.672  11.413   5.656
 5872SOL     OW19454   4.574   0.560   3.221
 5872SOL    HW119455   4.598   0.643   3.181
 5872SOL    HW219456   4.654   0.532   3.266
 5873SOL     OW19457   7.384   8.236   4.616
 5873SOL    HW119458   7.470   8.263   4.649
 5873SOL    HW219459   7.386   8.257   4.523
 5874SOL     OW19460  13.485  14.453  14.865
 5874SOL    HW119461  13.436  14.482   0.065
 5874SOL    HW219462  13.570  14.498  14.872
 5875SOL     OW19463  10.366   3.363  10.881
 5875SOL    HW119464  10.379   3.366  10.975
 5875SOL    HW219465  10.286   3.312  10.869
 5876SOL     OW19466  11.162  12.557   8.081
 5876SOL    HW119467  11.232  12.571   8.145
 5876SOL    HW219468  11.179  12.621   8.012
 5877SOL     OW19469  12.302  11.331  10.250
 5877SOL    HW119470  12.304  11.269  10.323
 5877SOL    HW219471  12.301  11.417  10.293
 5878SOL     OW19472   9.001  10.875   2.347
 5878SOL    HW119473   8.935  10.809   2.368
 5878SOL    HW219474   8.996  10.937   2.420
 5879SOL     OW19475   2.740  13.192   3.967
 5879SOL    HW119476   2.784  13.121   3.920
 5879SOL    HW219477   2.693  13.149   4.038
 5880SOL     OW19478   3.086  14.093   5.109
 5880SOL    HW119479   3.075  14.070   5.017
 5880SOL    HW219480   3.047  14.019   5.156
 5881SOL     OW19481   7.712  13.366  10.365
 5881SOL    HW119482   7.742  13.277  10.348
 5881SOL    HW219483   7.663  13.390  10.287
 5882SOL     OW19484   6.871  13.427   1.575
 5882SOL    HW119485   6.858  13.397   1.485
 5882SOL    HW219486   6.784  13.419   1.616
 5883SOL     OW19487  14.075  13.483   7.741
 5883SOL    HW119488  14.161  13.444   7.725
 5883SOL    HW219489  14.082  13.523   7.827
 5884SOL     OW19490   1.232   4.835  11.580
 5884SOL    HW119491   1.166   4.865  11.517
 5884SOL    HW219492   1.257   4.748  11.549
 5885SOL     OW19493   7.826  12.984  13.474
 5885SOL    HW119494   7.874  12.991  13.557
 5885SOL    HW219495   7.759  12.918  13.492
 5886SOL     OW19496   9.738  11.837   9.395
 5886SOL    HW119497   9.811  11.891   9.366
 5886SOL    HW219498   9.703  11.882   9.471
 5887SOL     OW19499   0.987  11.801   4.979
 5887SOL    HW119500   0.912  11.796   4.920
 5887SOL    HW219501   0.949  11.815   5.066
 5888SOL     OW19502  14.220  11.404  10.613
 5888SOL    HW119503  14.156  11.470  10.638
 5888SOL    HW219504  14.303  11.439  10.644
 5889SOL     OW19505   2.806   0.840   9.210
 5889SOL    HW119506   2.883   0.783   9.207
 5889SOL    HW219507   2.821   0.903   9.140
 5890SOL     OW19508  13.009   1.042   5.099
 5890SOL    HW119509  12.936   1.086   5.055
 5890SOL    HW219510  12.987   1.045   5.192
 5891SOL     OW19511   0.918  14.080   9.866
 5891SOL    HW119512   0.856  14.048   9.801
 5891SOL    HW219513   0.971  14.003   9.888
 5892SOL     OW19514  10.047   6.712   3.828
 5892SOL    HW119515  10.121   6.752   3.783
 5892SOL    HW219516  10.038   6.762   3.909
 5893SOL     OW19517   3.492   6.298   0.322
 5893SOL    HW119518   3.408   6.341   0.309
 5893SOL    HW219519   3.492   6.225   0.261
 5894SOL     OW19520   7.686   9.863  13.654
 5894SOL    HW119521   7.684   9.949  13.612
 5894SOL    HW219522   7.770   9.861  13.700
 5895SOL     OW19523   4.822  14.269   1.974
 5895SOL    HW119524   4.797  14.276   2.066
 5895SOL    HW219525   4.874  14.189   1.969
 5896SOL     OW19526  12.964  11.515   4.315
 5896SOL    HW119527  12.892  11.512   4.252
 5896SOL    HW219528  13.026  11.449   4.284
 5897SOL     OW19529   9.709   7.920  13.954
 5897SOL    HW119530   9.725   7.973  14.033
 5897SOL    HW219531   9.794   7.917  13.910
 5898SOL     OW19532   4.288   7.521  14.740
 5898SOL    HW119533   4.233   7.505  14.664
 5898SOL    HW219534   4.254   7.603  14.778
 5899SOL     OW19535  10.185   9.872   7.257
 5899SOL    HW119536  10.126   9.798   7.267
 5899SOL    HW219537  10.258   9.838   7.205
 5900SOL     OW19538   4.575   4.706   4.848
 5900SOL    HW119539   4.609   4.620   4.824
 5900SOL    HW219540   4.646   4.747   4.897
 5901SOL     OW19541   7.432  11.294   0.934
 5901SOL    HW119542   7.499  11.340   0.983
 5901SOL    HW219543   7.437  11.204   0.966
 5902SOL     OW19544   4.999   3.921  14.212
 5902SOL    HW119545   4.956   3.983  14.152
 5902SOL    HW219546   5.083   3.901  14.170
 5903SOL     OW19547   3.084  12.076   7.651
 5903SOL    HW119548   3.096  12.051   7.560
 5903SOL    HW219549   3.170  12.107   7.679
 5904SOL     OW19550   6.158   9.509   0.514
 5904SOL    HW119551   6.161   9.596   0.474
 5904SOL    HW219552   6.065   9.493   0.530
 5905SOL     OW19553   8.512   8.497  10.714
 5905SOL    HW119554   8.478   8.580  10.748
 5905SOL    HW219555   8.451   8.431  10.748
 5906SOL     OW19556   9.065   7.973   3.648
 5906SOL    HW119557   9.094   7.881   3.645
 5906SOL    HW219558   9.146   8.023   3.659
 5907SOL     OW19559   7.844  11.936   9.909
 5907SOL    HW119560   7.929  11.973   9.887
 5907SOL    HW219561   7.865  11.864   9.969
 5908SOL     OW19562   0.074   7.581  11.762
 5908SOL    HW119563   0.056   7.621  11.677
 5908SOL    HW219564   0.167   7.598  11.778
 5909SOL     OW19565   5.212  14.653  12.343
 5909SOL    HW119566   5.295  14.700  12.341
 5909SOL    HW219567   5.235  14.565  12.372
 5910SOL     OW19568   2.091   0.632   9.804
 5910SOL    HW119569   2.162   0.630   9.741
 5910SOL    HW219570   2.047   0.716   9.788
 5911SOL     OW19571   8.452  13.796  13.994
 5911SOL    HW119572   8.477  13.858  14.062
 5911SOL    HW219573   8.358  13.809  13.982
 5912SOL     OW19574   5.579   2.948   8.769
 5912SOL    HW119575   5.669   2.925   8.746
 5912SOL    HW219576   5.588   3.028   8.822
 5913SOL     OW19577   0.036  11.061   7.277
 5913SOL    HW119578   0.091  11.058   7.356
 5913SOL    HW219579   0.023  10.969   7.254
 5914SOL     OW19580  10.225   7.634   2.814
 5914SOL    HW119581  10.321   7.632   2.811
 5914SOL    HW219582  10.204   7.718   2.854
 5915SOL     OW19583   6.529   4.979   3.618
 5915SOL    HW119584   6.504   4.905   3.562
 5915SOL    HW219585   6.503   4.952   3.706
 5916SOL     OW19586   6.093  14.541  10.275
 5916SOL    HW119587   6.143  14.527  10.194
 5916SOL    HW219588   6.096  14.636  10.288
 5917SOL     OW19589   5.432  10.660   8.171
 5917SOL    HW119590   5.353  10.699   8.209
 5917SOL    HW219591   5.401  10.580   8.128
 5918SOL     OW19592   2.559   7.871   2.401
 5918SOL    HW119593   2.520   7.855   2.486
 5918SOL    HW219594   2.653   7.870   2.417
 5919SOL     OW19595   5.721   2.095  11.805
 5919SOL    HW119596   5.627   2.074  11.807
 5919SOL    HW219597   5.726   2.187  11.829
 5920SOL     OW19598   1.604   5.822  10.076
 5920SOL    HW119599   1.640   5.768  10.145
 5920SOL    HW219600   1.542   5.880  10.120
 5921SOL     OW19601   1.815  13.092   5.346
 5921SOL    HW119602   1.779  13.096   5.435
 5921SOL    HW219603   1.898  13.046   5.356
 5922SOL     OW19604   7.573   4.372  14.350
 5922SOL    HW119605   7.481   4.377  14.327
 5922SOL    HW219606   7.618   4.425  14.285
 5923SOL     OW19607   4.626   5.748  13.229
 5923SOL    HW119608   4.692   5.761  13.161
 5923SOL    HW219609   4.639   5.821  13.289
 5924SOL     OW19610   3.300  14.356  13.271
 5924SOL    HW119611   3.374  14.416  13.274
 5924SOL    HW219612   3.238  14.391  13.336
 5925SOL     OW19613  12.820  12.117  13.893
 5925SOL    HW119614  12.768  12.183  13.940
 5925SOL    HW219615  12.839  12.158  13.808
 5926SOL     OW19616   7.009   9.862   0.916
 5926SOL    HW119617   6.914   9.856   0.923
 5926SOL    HW219618   7.025   9.868   0.821
 5927SOL     OW19619  12.949  14.217   4.480
 5927SOL    HW119620  12.948  14.261   4.395
 5927SOL    HW219621  12.871  14.161   4.479
 5928SOL     OW19622   3.610  11.579   8.456
 5928SOL    HW119623   3.577  11.591   8.367
 5928SOL    HW219624   3.699  11.615   8.453
 5929SOL     OW19625   5.719  10.387   9.122
 5929SOL    HW119626   5.770  10.394   9.041
 5929SOL    HW219627   5.702  10.477   9.148
 5930SOL     OW19628  14.572   4.876   7.034
 5930SOL    HW119629  14.525   4.812   6.980
 5930SOL    HW219630  14.663   4.849   7.030
 5931SOL     OW19631   1.943  14.683  13.762
 5931SOL    HW119632   2.014  14.620  13.747
 5931SOL    HW219633   1.918  14.669  13.853
 5932SOL     OW19634  14.470   9.966  12.593
 5932SOL    HW119635  14.435   9.981  12.680
 5932SOL    HW219636  14.434   9.882  12.566
 5933SOL     OW19637   7.038   6.070   1.744
 5933SOL    HW119638   6.943   6.081   1.747
 5933SOL    HW219639   7.061   6.080   1.651
 5934SOL     OW19640  10.322  14.283  10.560
 5934SOL    HW119641  10.411  14.249  10.550
 5934SOL    HW219642  10.303  14.325  10.476
 5935SOL     OW19643  10.874  10.242  13.605
 5935SOL    HW119644  10.795  10.208  13.647
 5935SOL    HW219645  10.868  10.337  13.615
 5936SOL     OW19646  14.434  12.285  11.297
 5936SOL    HW119647  14.451  12.191  11.304
 5936SOL    HW219648  14.354  12.291  11.246
 5937SOL     OW19649   7.414   4.895   0.358
 5937SOL    HW119650   7.331   4.866   0.321
 5937SOL    HW219651   7.431   4.835   0.430
 5938SOL     OW19652   4.299  12.042  13.445
 5938SOL    HW119653   4.393  12.025  13.443
 5938SOL    HW219654   4.288  12.120  13.391
 5939SOL     OW19655  11.135  10.944   8.867
 5939SOL    HW119656  11.096  11.002   8.803
 5939SOL    HW219657  11.083  10.864   8.862
 5940SOL     OW19658  12.064   1.647  12.156
 5940SOL    HW119659  12.032   1.568  12.114
 5940SOL    HW219660  12.147   1.621  12.196
 5941SOL     OW19661   6.712   0.910  10.307
 5941SOL    HW119662   6.747   0.831  10.267
 5941SOL    HW219663   6.625   0.885  10.338
 5942SOL     OW19664  12.383   2.738  11.270
 5942SOL    HW119665  12.399   2.774  11.183
 5942SOL    HW219666  12.441   2.662  11.276
 5943SOL     OW19667  12.117   0.449  14.347
 5943SOL    HW119668  12.176   0.507  14.298
 5943SOL    HW219669  12.176   0.392  14.396
 5944SOL     OW19670   4.954  11.073   8.929
 5944SOL    HW119671   5.041  11.051   8.962
 5944SOL    HW219672   4.912  11.121   9.000
 5945SOL     OW19673   0.827  13.647   6.241
 5945SOL    HW119674   0.844  13.663   6.148
 5945SOL    HW219675   0.852  13.728   6.285
 5946SOL     OW19676   1.970   3.298   5.493
 5946SOL    HW119677   2.045   3.287   5.435
 5946SOL    HW219678   1.895   3.301   5.434
 5947SOL     OW19679  11.001   6.690   7.450
 5947SOL    HW119680  10.987   6.712   7.358
 5947SOL    HW219681  10.981   6.596   7.457
 5948SOL     OW19682   8.197   4.196  14.614
 5948SOL    HW119683   8.210   4.104  14.588
 5948SOL    HW219684   8.285   4.234  14.609
 5949SOL     OW19685  11.651   0.905   0.331
 5949SOL    HW119686  11.728   0.927   0.382
 5949SOL    HW219687  11.589   0.870   0.395
 5950SOL     OW19688   7.419   9.794   3.725
 5950SOL    HW119689   7.422   9.819   3.632
 5950SOL    HW219690   7.329   9.762   3.737
 5951SOL     OW19691   9.883   9.207   5.435
 5951SOL    HW119692   9.917   9.132   5.387
 5951SOL    HW219693   9.925   9.283   5.394
 5952SOL     OW19694  14.777   8.546   3.597
 5952SOL    HW119695  14.761   8.520   3.687
 5952SOL    HW219696  14.713   8.496   3.546
 5953SOL     OW19697  14.064   4.408   2.308
 5953SOL    HW119698  14.007   4.336   2.280
 5953SOL    HW219699  14.105   4.438   2.227
 5954SOL     OW19700  14.019  12.068   6.887
 5954SOL    HW119701  14.040  12.143   6.943
 5954SOL    HW219702  14.084  12.003   6.910
 5955SOL     OW19703   0.286  10.379   0.573
 5955SOL    HW119704   0.283  10.284   0.566
 5955SOL    HW219705   0.370  10.397   0.617
 5956SOL     OW19706  13.417   9.708   2.461
 5956SOL    HW119707  13.397   9.630   2.408
 5956SOL    HW219708  13.382   9.781   2.410
 5957SOL     OW19709   7.346   1.405  11.840
 5957SOL    HW119710   7.317   1.481  11.789
 5957SOL    HW219711   7.269   1.349  11.846
 5958SOL     OW19712  13.990   8.705   8.004
 5958SOL    HW119713  13.923   8.735   8.065
 5958SOL    HW219714  14.043   8.644   8.055
 5959SOL     OW19715   7.063   3.772   4.176
 5959SOL    HW119716   7.136   3.790   4.235
 5959SOL    HW219717   6.988   3.818   4.214
 5960SOL     OW19718  13.098  14.247   0.203
 5960SOL    HW119719  13.004  14.231   0.197
 5960SOL    HW219720  13.116  14.309   0.132
 5961SOL     OW19721   4.797   8.195   2.779
 5961SOL    HW119722   4.778   8.285   2.805
 5961SOL    HW219723   4.878   8.173   2.825
 5962SOL     OW19724   4.425  11.148   3.613
 5962SOL    HW119725   4.487  11.173   3.544
 5962SOL    HW219726   4.471  11.168   3.694
 5963SOL     OW19727  11.776  11.048  12.186
 5963SOL    HW119728  11.711  10.998  12.236
 5963SOL    HW219729  11.733  11.065  12.102
 5964SOL     OW19730  10.315  11.167   9.858
 5964SOL    HW119731  10.278  11.094   9.809
 5964SOL    HW219732  10.297  11.147   9.950
 5965SOL     OW19733  14.488   2.700  10.283
 5965SOL    HW119734  14.487   2.723  10.376
 5965SOL    HW219735  14.430   2.764  10.241
 5966SOL     OW19736   5.828  13.512  13.485
 5966SOL    HW119737   5.772  13.509  13.407
 5966SOL    HW219738   5.767  13.512  13.558
 5967SOL     OW19739  11.947   9.126   4.980
 5967SOL    HW119740  11.924   9.219   4.970
 5967SOL    HW219741  11.984   9.120   5.068
 5968SOL     OW19742   0.437   7.000  12.679
 5968SOL    HW119743   0.352   7.016  12.720
 5968SOL    HW219744   0.458   6.909  12.703
 5969SOL     OW19745   1.677  11.390   2.149
 5969SOL    HW119746   1.716  11.435   2.074
 5969SOL    HW219747   1.739  11.320   2.171
 5970SOL     OW19748   4.826   3.953   8.277
 5970SOL    HW119749   4.795   3.888   8.213
 5970SOL    HW219750   4.845   4.030   8.225
 5971SOL     OW19751   5.795   0.366   0.315
 5971SOL    HW119752   5.870   0.321   0.276
 5971SOL    HW219753   5.719   0.327   0.273
 5972SOL     OW19754   3.307  13.730  13.630
 5972SOL    HW119755   3.346  13.783  13.699
 5972SOL    HW219756   3.304  13.788  13.554
 5973SOL     OW19757   5.354  10.857  14.494
 5973SOL    HW119758   5.407  10.795  14.545
 5973SOL    HW219759   5.305  10.906  14.560
 5974SOL     OW19760   4.359  13.965  14.687
 5974SOL    HW119761   4.455  13.972  14.688
 5974SOL    HW219762   4.342  13.873  14.707
 5975SOL     OW19763   9.163  10.440   8.025
 5975SOL    HW119764   9.211  10.358   8.015
 5975SOL    HW219765   9.139  10.443   8.117
 5976SOL     OW19766   1.417   4.945   8.078
 5976SOL    HW119767   1.466   4.920   8.156
 5976SOL    HW219768   1.482   4.941   8.007
 5977SOL     OW19769  11.780   2.384  13.965
 5977SOL    HW119770  11.810   2.468  14.001
 5977SOL    HW219771  11.694   2.403  13.928
 5978SOL     OW19772  13.778   9.201   9.297
 5978SOL    HW119773  13.781   9.118   9.251
 5978SOL    HW219774  13.796   9.267   9.230
 5979SOL     OW19775  10.279   6.158  11.931
 5979SOL    HW119776  10.256   6.249  11.909
 5979SOL    HW219777  10.348   6.135  11.869
 5980SOL     OW19778  13.610   1.608  12.286
 5980SOL    HW119779  13.624   1.659  12.366
 5980SOL    HW219780  13.518   1.584  12.288
 5981SOL     OW19781   8.873  12.010   6.467
 5981SOL    HW119782   8.922  12.052   6.537
 5981SOL    HW219783   8.788  11.991   6.505
 5982SOL     OW19784   0.439   7.210   9.096
 5982SOL    HW119785   0.501   7.138   9.095
 5982SOL    HW219786   0.354   7.168   9.111
 5983SOL     OW19787  13.169   7.210  12.810
 5983SOL    HW119788  13.241   7.273  12.818
 5983SOL    HW219789  13.208   7.126  12.836
 5984SOL     OW19790   8.669   7.726   4.985
 5984SOL    HW119791   8.759   7.693   4.979
 5984SOL    HW219792   8.655   7.739   5.079
 5985SOL     OW19793   4.222   5.836   8.366
 5985SOL    HW119794   4.246   5.895   8.438
 5985SOL    HW219795   4.205   5.894   8.292
 5986SOL     OW19796   2.654   7.689   7.477
 5986SOL    HW119797   2.630   7.722   7.564
 5986SOL    HW219798   2.750   7.688   7.477
 5987SOL     OW19799   0.941   7.739   5.264
 5987SOL    HW119800   0.981   7.659   5.296
 5987SOL    HW219801   0.956   7.738   5.170
 5988SOL     OW19802   7.622  13.265   2.330
 5988SOL    HW119803   7.713  13.237   2.328
 5988SOL    HW219804   7.591  13.253   2.240
 5989SOL     OW19805  10.570  14.807   3.229
 5989SOL    HW119806  10.611  14.860   3.297
 5989SOL    HW219807  10.610  14.721   3.237
 5990SOL     OW19808  11.170   2.547   6.983
 5990SOL    HW119809  11.178   2.506   7.070
 5990SOL    HW219810  11.232   2.499   6.928
 5991SOL     OW19811   5.553   9.565   7.327
 5991SOL    HW119812   5.571   9.472   7.315
 5991SOL    HW219813   5.457   9.570   7.337
 5992SOL     OW19814   6.976   1.899   0.219
 5992SOL    HW119815   6.882   1.878   0.212
 5992SOL    HW219816   7.010   1.833   0.280
 5993SOL     OW19817  13.177   1.168  13.230
 5993SOL    HW119818  13.251   1.205  13.278
 5993SOL    HW219819  13.112   1.238  13.230
 5994SOL     OW19820   7.142   3.641   2.446
 5994SOL    HW119821   7.052   3.629   2.477
 5994SOL    HW219822   7.190   3.568   2.484
 5995SOL     OW19823   3.699   9.029  13.211
 5995SOL    HW119824   3.742   8.948  13.184
 5995SOL    HW219825   3.664   9.065  13.129
 5996SOL     OW19826   7.629   6.216  11.666
 5996SOL    HW119827   7.687   6.162  11.720
 5996SOL    HW219828   7.549   6.164  11.658
 5997SOL     OW19829   7.778   8.240  14.118
 5997SOL    HW119830   7.735   8.320  14.089
 5997SOL    HW219831   7.834   8.267  14.191
 5998SOL     OW19832  10.909   9.989   8.431
 5998SOL    HW119833  11.000  10.018   8.438
 5998SOL    HW219834  10.908   9.932   8.355
 5999SOL     OW19835   6.603   2.656  10.046
 5999SOL    HW119836   6.686   2.684  10.007
 5999SOL    HW219837   6.626   2.581  10.101
 6000SOL     OW19838   5.309   0.527  13.035
 6000SOL    HW119839   5.241   0.460  13.036
 6000SOL    HW219840   5.375   0.494  12.975
 6001SOL     OW19841   1.660   5.959  12.901
 6001SOL    HW119842   1.616   5.884  12.942
 6001SOL    HW219843   1.687   5.926  12.815
 6002SOL     OW19844   6.099   1.580   8.828
 6002SOL    HW119845   6.185   1.558   8.863
 6002SOL    HW219846   6.055   1.496   8.816
 6003SOL     OW19847   5.210   9.562   3.402
 6003SOL    HW119848   5.255   9.622   3.344
 6003SOL    HW219849   5.277   9.500   3.430
 6004SOL     OW19850   6.549   8.260   2.348
 6004SOL    HW119851   6.462   8.254   2.310
 6004SOL    HW219852   6.548   8.339   2.401
 6005SOL     OW19853   5.035   8.528   0.662
 6005SOL    HW119854   4.964   8.464   0.666
 6005SOL    HW219855   5.114   8.475   0.650
 6006SOL     OW19856  12.437   9.068  13.445
 6006SOL    HW119857  12.456   8.994  13.386
 6006SOL    HW219858  12.417   9.027  13.529
 6007SOL     OW19859   3.459   8.869   2.680
 6007SOL    HW119860   3.381   8.868   2.735
 6007SOL    HW219861   3.494   8.780   2.685
 6008SOL     OW19862   5.205   1.579   2.469
 6008SOL    HW119863   5.203   1.672   2.446
 6008SOL    HW219864   5.272   1.542   2.412
 6009SOL     OW19865   2.484  12.312   1.534
 6009SOL    HW119866   2.532  12.375   1.586
 6009SOL    HW219867   2.481  12.351   1.446
 6010SOL     OW19868  12.884  10.033  13.338
 6010SOL    HW119869  12.976  10.044  13.361
 6010SOL    HW219870  12.878  10.066  13.248
 6011SOL     OW19871   8.681  12.116   2.814
 6011SOL    HW119872   8.670  12.190   2.873
 6011SOL    HW219873   8.668  12.039   2.869
 6012SOL     OW19874   6.375   4.812  10.225
 6012SOL    HW119875   6.445   4.794  10.288
 6012SOL    HW219876   6.416   4.799  10.140
 6013SOL     OW19877   5.553  12.328   0.600
 6013SOL    HW119878   5.589  12.395   0.659
 6013SOL    HW219879   5.519  12.260   0.659
 6014SOL     OW19880  10.292  12.909  11.915
 6014SOL    HW119881  10.262  12.969  11.984
 6014SOL    HW219882  10.320  12.966  11.844
 6015SOL     OW19883  12.873   2.875   0.009
 6015SOL    HW119884  12.915   2.830   0.082
 6015SOL    HW219885  12.874   2.811  14.814
 6016SOL     OW19886   1.287   4.910   0.429
 6016SOL    HW119887   1.215   4.862   0.469
 6016SOL    HW219888   1.348   4.842   0.401
 6017SOL     OW19889   3.680   5.847   3.764
 6017SOL    HW119890   3.727   5.834   3.847
 6017SOL    HW219891   3.696   5.939   3.743
 6018SOL     OW19892  12.656   3.194   9.921
 6018SOL    HW119893  12.586   3.250   9.888
 6018SOL    HW219894  12.620   3.156  10.002
 6019SOL     OW19895   4.165  13.951   6.417
 6019SOL    HW119896   4.237  13.907   6.373
 6019SOL    HW219897   4.205  14.030   6.455
 6020SOL     OW19898   5.339   5.475   0.821
 6020SOL    HW119899   5.313   5.499   0.732
 6020SOL    HW219900   5.431   5.499   0.826
 6021SOL     OW19901   7.654   0.992  10.819
 6021SOL    HW119902   7.683   0.976  10.729
 6021SOL    HW219903   7.736   0.995  10.870
 6022SOL     OW19904   6.040   6.055  10.902
 6022SOL    HW119905   6.133   6.033  10.895
 6022SOL    HW219906   6.000   5.979  10.942
 6023SOL     OW19907   1.177  14.177   1.139
 6023SOL    HW119908   1.258  14.129   1.122
 6023SOL    HW219909   1.199  14.268   1.119
 6024SOL     OW19910  10.773   8.610   8.292
 6024SOL    HW119911  10.838   8.615   8.222
 6024SOL    HW219912  10.789   8.525   8.334
 6025SOL     OW19913   6.432   7.168  13.264
 6025SOL    HW119914   6.385   7.164  13.181
 6025SOL    HW219915   6.502   7.104  13.255
 6026SOL     OW19916  11.036   3.162   9.115
 6026SOL    HW119917  11.089   3.157   9.036
 6026SOL    HW219918  11.097   3.192   9.183
 6027SOL     OW19919  11.753  11.544   4.257
 6027SOL    HW119920  11.663  11.561   4.229
 6027SOL    HW219921  11.766  11.603   4.331
 6028SOL     OW19922   5.578   6.587   8.482
 6028SOL    HW119923   5.612   6.644   8.413
 6028SOL    HW219924   5.490   6.620   8.500
 6029SOL     OW19925  12.884   7.175   9.932
 6029SOL    HW119926  12.913   7.248   9.878
 6029SOL    HW219927  12.850   7.216  10.012
 6030SOL     OW19928   5.501   1.901  11.497
 6030SOL    HW119929   5.477   1.850  11.420
 6030SOL    HW219930   5.469   1.850  11.571
 6031SOL     OW19931   7.511   5.797   8.738
 6031SOL    HW119932   7.507   5.712   8.783
 6031SOL    HW219933   7.496   5.861   8.807
 6032SOL     OW19934   8.438  11.580   9.316
 6032SOL    HW119935   8.380  11.637   9.365
 6032SOL    HW219936   8.380  11.514   9.277
 6033SOL     OW19937  11.823   6.807  10.805
 6033SOL    HW119938  11.764   6.829  10.877
 6033SOL    HW219939  11.853   6.718  10.825
 6034SOL     OW19940   9.329  14.482  14.614
 6034SOL    HW119941   9.237  14.498  14.593
 6034SOL    HW219942   9.378  14.543  14.558
 6035SOL     OW19943   0.486  13.171   1.308
 6035SOL    HW119944   0.499  13.259   1.345
 6035SOL    HW219945   0.489  13.185   1.213
 6036SOL     OW19946   4.585   9.331   4.341
 6036SOL    HW119947   4.633   9.284   4.410
 6036SOL    HW219948   4.499   9.290   4.341
 6037SOL     OW19949  11.573  10.378   6.402
 6037SOL    HW119950  11.663  10.409   6.409
 6037SOL    HW219951  11.568  10.302   6.461
 6038SOL     OW19952   3.185   2.878   1.884
 6038SOL    HW119953   3.096   2.910   1.902
 6038SOL    HW219954   3.216   2.845   1.969
 6039SOL     OW19955   0.216  11.623   8.411
 6039SOL    HW119956   0.242  11.691   8.473
 6039SOL    HW219957   0.235  11.541   8.456
 6040SOL     OW19958   0.346   5.710   1.993
 6040SOL    HW119959   0.380   5.678   1.910
 6040SOL    HW219960   0.391   5.794   2.007
 6041SOL     OW19961   9.921  11.574   9.378
 6041SOL    HW119962   9.970  11.591   9.298
 6041SOL    HW219963   9.831  11.600   9.358
 6042SOL     OW19964   2.285   0.430   7.761
 6042SOL    HW119965   2.236   0.463   7.685
 6042SOL    HW219966   2.314   0.343   7.735
 6043SOL     OW19967   3.908   1.525   7.127
 6043SOL    HW119968   3.861   1.482   7.056
 6043SOL    HW219969   3.857   1.505   7.205
 6044SOL     OW19970   3.142   6.555   2.953
 6044SOL    HW119971   3.075   6.563   3.021
 6044SOL    HW219972   3.212   6.613   2.983
 6045SOL     OW19973   1.588   2.146   2.009
 6045SOL    HW119974   1.640   2.210   1.961
 6045SOL    HW219975   1.602   2.168   2.101
 6046SOL     OW19976  10.782  14.473   6.509
 6046SOL    HW119977  10.806  14.498   6.599
 6046SOL    HW219978  10.853  14.415   6.481
 6047SOL     OW19979   9.438  12.180   6.596
 6047SOL    HW119980   9.449  12.272   6.572
 6047SOL    HW219981   9.360  12.179   6.652
 6048SOL     OW19982   7.163   4.075  12.941
 6048SOL    HW119983   7.211   4.095  12.861
 6048SOL    HW219984   7.198   4.136  13.006
 6049SOL     OW19985  13.094   1.368   0.862
 6049SOL    HW119986  13.189   1.380   0.866
 6049SOL    HW219987  13.081   1.273   0.867
 6050SOL     OW19988   6.255  13.172   1.304
 6050SOL    HW119989   6.209  13.240   1.255
 6050SOL    HW219990   6.278  13.213   1.388
 6051SOL     OW19991   5.901   9.463   0.486
 6051SOL    HW119992   5.891   9.486   0.578
 6051SOL    HW219993   5.812   9.457   0.452
 6052SOL     OW19994   4.593   2.832   6.191
 6052SOL    HW119995   4.582   2.798   6.102
 6052SOL    HW219996   4.683   2.864   6.193
 6053SOL     OW19997   4.370  13.719   1.677
 6053SOL    HW119998   4.323  13.641   1.706
 6053SOL    HW219999   4.305  13.771   1.630
 6054SOL     OW20000  11.976  13.168  13.626
 6054SOL    HW120001  12.038  13.240  13.636
 6054SOL    HW220002  11.891  13.206  13.645
 6055SOL     OW20003  12.832   5.546   4.132
 6055SOL    HW120004  12.884   5.519   4.208
 6055SOL    HW220005  12.745   5.563   4.167
 6056SOL     OW20006   6.710   8.217   0.168
 6056SOL    HW120007   6.660   8.253   0.095
 6056SOL    HW220008   6.800   8.212   0.135
 6057SOL     OW20009   0.927  13.212  10.491
 6057SOL    HW120010   0.922  13.271  10.566
 6057SOL    HW220011   0.939  13.125  10.530
 6058SOL     OW20012  13.928   3.448   4.956
 6058SOL    HW120013  13.952   3.386   5.025
 6058SOL    HW220014  13.864   3.401   4.903
 6059SOL     OW20015  12.339   5.133  13.399
 6059SOL    HW120016  12.433   5.116  13.386
 6059SOL    HW220017  12.303   5.140  13.311
 6060SOL     OW20018   1.081   3.458   2.814
 6060SOL    HW120019   1.081   3.370   2.778
 6060SOL    HW220020   0.988   3.477   2.829
 6061SOL     OW20021   1.345   3.804  10.084
 6061SOL    HW120022   1.301   3.866  10.142
 6061SOL    HW220023   1.342   3.721  10.131
 6062SOL     OW20024   9.728  14.051  10.256
 6062SOL    HW120025   9.660  14.118  10.261
 6062SOL    HW220026   9.737  14.019  10.346
 6063SOL     OW20027   2.598   3.454   6.775
 6063SOL    HW120028   2.668   3.493   6.723
 6063SOL    HW220029   2.643   3.393   6.833
 6064SOL     OW20030  14.334   5.904   0.594
 6064SOL    HW120031  14.328   6.000   0.592
 6064SOL    HW220032  14.243   5.874   0.585
 6065SOL     OW20033   6.205  10.631  12.981
 6065SOL    HW120034   6.218  10.695  13.051
 6065SOL    HW220035   6.277  10.649  12.920
 6066SOL     OW20036  14.160   8.895   3.319
 6066SOL    HW120037  14.172   8.820   3.261
 6066SOL    HW220038  14.183   8.863   3.406
 6067SOL     OW20039  12.129   4.392  11.926
 6067SOL    HW120040  12.200   4.359  11.981
 6067SOL    HW220041  12.095   4.467  11.973
 6068SOL     OW20042  10.173  12.111  13.680
 6068SOL    HW120043  10.268  12.103  13.672
 6068SOL    HW220044  10.138  12.051  13.614
 6069SOL     OW20045   1.164   6.139  14.080
 6069SOL    HW120046   1.199   6.080  14.014
 6069SOL    HW220047   1.130   6.214  14.031
 6070SOL     OW20048  14.279   9.049   2.452
 6070SOL    HW120049  14.226   9.085   2.523
 6070SOL    HW220050  14.362   9.026   2.493
 6071SOL     OW20051   8.909   8.929   8.302
 6071SOL    HW120052   8.822   8.892   8.288
 6071SOL    HW220053   8.896   8.996   8.369
 6072SOL     OW20054  12.094  10.519   1.647
 6072SOL    HW120055  12.126  10.530   1.737
 6072SOL    HW220056  12.174  10.510   1.595
 6073SOL     OW20057  10.989   5.672   4.939
 6073SOL    HW120058  11.046   5.748   4.952
 6073SOL    HW220059  10.987   5.630   5.025
 6074SOL     OW20060   2.402  12.911  12.000
 6074SOL    HW120061   2.496  12.908  11.983
 6074SOL    HW220062   2.383  12.827  12.043
 6075SOL     OW20063   3.406   6.518   6.054
 6075SOL    HW120064   3.480   6.578   6.065
 6075SOL    HW220065   3.397   6.476   6.139
 6076SOL     OW20066  10.012  13.362   2.771
 6076SOL    HW120067  10.085  13.304   2.794
 6076SOL    HW220068  10.023  13.438   2.829
 6077SOL     OW20069   2.036   4.950   8.149
 6077SOL    HW120070   2.058   4.860   8.127
 6077SOL    HW220071   1.974   4.943   8.221
 6078SOL     OW20072   7.128  13.483   6.419
 6078SOL    HW120073   7.173  13.564   6.392
 6078SOL    HW220074   7.099  13.502   6.508
 6079SOL     OW20075   3.135   9.226  14.287
 6079SOL    HW120076   3.107   9.315  14.267
 6079SOL    HW220077   3.080   9.171  14.230
 6080SOL     OW20078  14.102   0.098   1.200
 6080SOL    HW120079  14.154   0.035   1.151
 6080SOL    HW220080  14.102   0.065   1.290
 6081SOL     OW20081   4.723   5.104   7.245
 6081SOL    HW120082   4.749   5.149   7.164
 6081SOL    HW220083   4.725   5.011   7.221
 6082SOL     OW20084   7.979   9.742   7.400
 6082SOL    HW120085   8.011   9.678   7.463
 6082SOL    HW220086   8.005   9.708   7.315
 6083SOL     OW20087   0.153   3.847   3.225
 6083SOL    HW120088   0.153   3.801   3.309
 6083SOL    HW220089   0.125   3.781   3.162
 6084SOL     OW20090   2.769   1.682   0.991
 6084SOL    HW120091   2.793   1.705   1.081
 6084SOL    HW220092   2.836   1.620   0.964
 6085SOL     OW20093  11.784  10.971  13.562
 6085SOL    HW120094  11.702  10.923  13.551
 6085SOL    HW220095  11.852  10.907  13.540
 6086SOL     OW20096   5.673   0.223   3.636
 6086SOL    HW120097   5.767   0.242   3.636
 6086SOL    HW220098   5.653   0.204   3.544
 6087SOL     OW20099   5.143   2.533   7.440
 6087SOL    HW120100   5.078   2.594   7.476
 6087SOL    HW220101   5.214   2.532   7.504
 6088SOL     OW20102   8.345  14.031   5.308
 6088SOL    HW120103   8.332  13.948   5.262
 6088SOL    HW220104   8.293  14.095   5.257
 6089SOL     OW20105  13.136   5.215   6.724
 6089SOL    HW120106  13.129   5.151   6.652
 6089SOL    HW220107  13.224   5.202   6.759
 6090SOL     OW20108   6.388   4.459  12.973
 6090SOL    HW120109   6.328   4.428  12.905
 6090SOL    HW220110   6.463   4.400  12.967
 6091SOL     OW20111  12.819   7.999   9.238
 6091SOL    HW120112  12.828   8.076   9.294
 6091SOL    HW220113  12.874   7.933   9.281
 6092SOL     OW20114   0.278  13.514   7.865
 6092SOL    HW120115   0.197  13.468   7.844
 6092SOL    HW220116   0.333  13.501   7.788
 6093SOL     OW20117   6.562   8.518   7.805
 6093SOL    HW120118   6.587   8.477   7.888
 6093SOL    HW220119   6.481   8.475   7.780
 6094SOL     OW20120  12.942   3.430   6.297
 6094SOL    HW120121  12.850   3.402   6.289
 6094SOL    HW220122  12.992   3.348   6.294
 6095SOL     OW20123  12.450   9.956   4.874
 6095SOL    HW120124  12.412   9.990   4.793
 6095SOL    HW220125  12.375   9.924   4.925
 6096SOL     OW20126   1.115   5.579   2.956
 6096SOL    HW120127   1.185   5.635   2.990
 6096SOL    HW220128   1.093   5.617   2.871
 6097SOL     OW20129  10.687   2.438  10.929
 6097SOL    HW120130  10.682   2.387  11.009
 6097SOL    HW220131  10.777   2.470  10.927
 6098SOL     OW20132   3.987  13.961   2.483
 6098SOL    HW120133   4.062  14.021   2.483
 6098SOL    HW220134   4.017  13.886   2.432
 6099SOL     OW20135   8.967   1.777  13.473
 6099SOL    HW120136   8.967   1.747  13.383
 6099SOL    HW220137   8.963   1.873  13.467
 6100SOL     OW20138   4.231   3.040   1.774
 6100SOL    HW120139   4.256   2.974   1.710
 6100SOL    HW220140   4.199   2.990   1.849
 6101SOL     OW20141   2.862   0.300   4.644
 6101SOL    HW120142   2.913   0.367   4.597
 6101SOL    HW220143   2.885   0.314   4.736
 6102SOL     OW20144   8.287  14.455  14.742
 6102SOL    HW120145   8.359  14.467  14.680
 6102SOL    HW220146   8.259  14.365  14.729
 6103SOL     OW20147   9.675  14.182   0.994
 6103SOL    HW120148   9.631  14.200   0.911
 6103SOL    HW220149   9.693  14.089   0.992
 6104SOL     OW20150   4.351   1.165  10.831
 6104SOL    HW120151   4.313   1.187  10.917
 6104SOL    HW220152   4.316   1.079  10.811
 6105SOL     OW20153  11.819  14.576   4.868
 6105SOL    HW120154  11.809  14.598   4.776
 6105SOL    HW220155  11.779  14.650   4.914
 6106SOL     OW20156   6.030   6.092   1.706
 6106SOL    HW120157   6.085   6.027   1.663
 6106SOL    HW220158   6.087   6.169   1.715
 6107SOL     OW20159  12.673  14.735   7.583
 6107SOL    HW120160  12.655  14.665   7.521
 6107SOL    HW220161  12.654  14.815   7.535
 6108SOL     OW20162  10.654   1.667   1.365
 6108SOL    HW120163  10.680   1.579   1.339
 6108SOL    HW220164  10.576   1.686   1.311
 6109SOL     OW20165   6.998  13.806   2.564
 6109SOL    HW120166   7.010  13.752   2.486
 6109SOL    HW220167   6.974  13.743   2.633
 6110SOL     OW20168  11.115  14.196  12.385
 6110SOL    HW120169  11.203  14.182  12.419
 6110SOL    HW220170  11.086  14.277  12.426
 6111SOL     OW20171   4.202  11.529   4.109
 6111SOL    HW120172   4.159  11.455   4.150
 6111SOL    HW220173   4.270  11.556   4.171
 6112SOL     OW20174  13.428   5.606   3.121
 6112SOL    HW120175  13.481   5.578   3.046
 6112SOL    HW220176  13.474   5.571   3.197
 6113SOL     OW20177  12.933  13.792   9.278
 6113SOL    HW120178  13.013  13.777   9.327
 6113SOL    HW220179  12.951  13.870   9.225
 6114SOL     OW20180  13.225   7.412  13.934
 6114SOL    HW120181  13.310   7.382  13.903
 6114SOL    HW220182  13.245   7.483  13.996
 6115SOL     OW20183   0.325   9.232  14.462
 6115SOL    HW120184   0.351   9.276  14.543
 6115SOL    HW220185   0.348   9.140  14.476
 6116SOL     OW20186   1.906   2.023   7.288
 6116SOL    HW120187   1.832   2.079   7.310
 6116SOL    HW220188   1.868   1.935   7.279
 6117SOL     OW20189  13.433  10.270  12.173
 6117SOL    HW120190  13.519  10.254  12.211
 6117SOL    HW220191  13.371  10.237  12.238
 6118SOL     OW20192   9.146   7.015   2.469
 6118SOL    HW120193   9.189   6.967   2.539
 6118SOL    HW220194   9.068   7.053   2.510
 6119SOL     OW20195  13.476   6.842   3.659
 6119SOL    HW120196  13.509   6.905   3.595
 6119SOL    HW220197  13.496   6.880   3.744
 6120SOL     OW20198  10.091  11.714  12.122
 6120SOL    HW120199  10.178  11.750  12.139
 6120SOL    HW220200  10.042  11.730  12.203
 6121SOL     OW20201  12.983  11.808   2.022
 6121SOL    HW120202  13.022  11.870   2.083
 6121SOL    HW220203  13.052  11.745   2.002
 6122SOL     OW20204   8.498   3.276   4.504
 6122SOL    HW120205   8.481   3.191   4.545
 6122SOL    HW220206   8.466   3.340   4.567
 6123SOL     OW20207  12.532  13.046   6.073
 6123SOL    HW120208  12.546  13.113   6.005
 6123SOL    HW220209  12.437  13.032   6.073
 6124SOL     OW20210   9.851   7.734   1.701
 6124SOL    HW120211   9.762   7.768   1.687
 6124SOL    HW220212   9.901   7.766   1.626
 6125SOL     OW20213  12.733   5.596  11.721
 6125SOL    HW120214  12.776   5.511  11.713
 6125SOL    HW220215  12.692   5.610  11.635
 6126SOL     OW20216   5.877   6.085   5.341
 6126SOL    HW120217   5.936   6.070   5.415
 6126SOL    HW220218   5.849   6.176   5.349
 6127SOL     OW20219   9.597   9.944   2.973
 6127SOL    HW120220   9.592  10.021   3.030
 6127SOL    HW220221   9.611   9.870   3.033
 6128SOL     OW20222   6.730   0.517   6.408
 6128SOL    HW120223   6.813   0.533   6.451
 6128SOL    HW220224   6.665   0.560   6.463
 6129SOL     OW20225   8.187   3.567   9.887
 6129SOL    HW120226   8.234   3.580   9.969
 6129SOL    HW220227   8.185   3.472   9.876
 6130SOL     OW20228   7.004   4.183   9.805
 6130SOL    HW120229   7.036   4.103   9.764
 6130SOL    HW220230   6.918   4.198   9.766
 6131SOL     OW20231   1.532   6.568   7.596
 6131SOL    HW120232   1.601   6.579   7.662
 6131SOL    HW220233   1.450   6.568   7.647
 6132SOL     OW20234   1.145  12.200   3.989
 6132SOL    HW120235   1.108  12.162   4.069
 6132SOL    HW220236   1.159  12.125   3.931
 6133SOL     OW20237  10.277  10.671  10.781
 6133SOL    HW120238  10.321  10.749  10.816
 6133SOL    HW220239  10.280  10.608  10.853
 6134SOL     OW20240   6.781  11.733   9.993
 6134SOL    HW120241   6.844  11.678  10.039
 6134SOL    HW220242   6.750  11.679   9.921
 6135SOL     OW20243  11.805   1.550  13.414
 6135SOL    HW120244  11.728   1.580  13.366
 6135SOL    HW220245  11.862   1.511  13.348
 6136SOL     OW20246   0.736   7.573  11.761
 6136SOL    HW120247   0.668   7.522  11.805
 6136SOL    HW220248   0.781   7.509  11.705
 6137SOL     OW20249  12.491  10.338   3.903
 6137SOL    HW120250  12.569  10.384   3.871
 6137SOL    HW220251  12.418  10.394   3.876
 6138SOL     OW20252   5.286  13.377   5.986
 6138SOL    HW120253   5.203  13.420   6.006
 6138SOL    HW220254   5.316  13.343   6.071
 6139SOL     OW20255   3.380   3.709   2.114
 6139SOL    HW120256   3.433   3.712   2.194
 6139SOL    HW220257   3.333   3.792   2.114
 6140SOL     OW20258  13.961  14.676  10.930
 6140SOL    HW120259  13.981  14.768  10.910
 6140SOL    HW220260  13.959  14.633  10.845
 6141SOL     OW20261  10.281   4.864   8.944
 6141SOL    HW120262  10.338   4.911   8.882
 6141SOL    HW220263  10.326   4.871   9.028
 6142SOL     OW20264   4.418   6.407   0.527
 6142SOL    HW120265   4.423   6.490   0.574
 6142SOL    HW220266   4.487   6.353   0.566
 6143SOL     OW20267   1.661   5.508  12.395
 6143SOL    HW120268   1.565   5.501  12.400
 6143SOL    HW220269   1.693   5.424  12.427
 6144SOL     OW20270   7.454   0.988   4.551
 6144SOL    HW120271   7.393   0.935   4.604
 6144SOL    HW220272   7.412   1.074   4.546
 6145SOL     OW20273   7.735   6.003  10.321
 6145SOL    HW120274   7.778   5.992  10.237
 6145SOL    HW220275   7.807   6.016  10.383
 6146SOL     OW20276   1.936  10.066   7.031
 6146SOL    HW120277   1.988  10.146   7.032
 6146SOL    HW220278   1.921  10.047   6.939
 6147SOL     OW20279  11.174   8.451   0.907
 6147SOL    HW120280  11.256   8.424   0.949
 6147SOL    HW220281  11.148   8.530   0.954
 6148SOL     OW20282  12.176   5.473   8.229
 6148SOL    HW120283  12.175   5.533   8.304
 6148SOL    HW220284  12.127   5.397   8.258
 6149SOL     OW20285   1.336   1.836   3.706
 6149SOL    HW120286   1.352   1.858   3.797
 6149SOL    HW220287   1.254   1.882   3.684
 6150SOL     OW20288   1.577   1.170   0.662
 6150SOL    HW120289   1.632   1.121   0.723
 6150SOL    HW220290   1.596   1.262   0.680
 6151SOL     OW20291   2.087  13.921   9.211
 6151SOL    HW120292   2.060  13.938   9.301
 6151SOL    HW220293   2.162  13.861   9.220
 6152SOL     OW20294   1.158  13.508   2.780
 6152SOL    HW120295   1.227  13.556   2.825
 6152SOL    HW220296   1.174  13.416   2.803
 6153SOL     OW20297   9.699  13.574   0.561
 6153SOL    HW120298   9.681  13.534   0.646
 6153SOL    HW220299   9.710  13.500   0.501
 6154SOL     OW20300   7.302   0.033   5.327
 6154SOL    HW120301   7.300  14.815   5.341
 6154SOL    HW220302   7.391   0.052   5.296
 6155SOL     OW20303   4.643  13.433   1.296
 6155SOL    HW120304   4.595  13.468   1.371
 6155SOL    HW220305   4.630  13.497   1.226
 6156SOL     OW20306   3.067  12.970  10.585
 6156SOL    HW120307   3.100  12.960  10.496
 6156SOL    HW220308   2.980  13.008  10.575
 6157SOL     OW20309   6.177   0.367  10.919
 6157SOL    HW120310   6.120   0.315  10.975
 6157SOL    HW220311   6.119   0.431  10.878
 6158SOL     OW20312   7.831   9.369   3.535
 6158SOL    HW120313   7.799   9.311   3.604
 6158SOL    HW220314   7.837   9.454   3.578
 6159SOL     OW20315   9.786  14.701   4.423
 6159SOL    HW120316   9.838  14.781   4.429
 6159SOL    HW220317   9.695  14.730   4.426
 6160SOL     OW20318   2.047  11.708   5.103
 6160SOL    HW120319   1.999  11.665   5.032
 6160SOL    HW220320   1.985  11.707   5.176
 6161SOL     OW20321  12.558   9.270  11.342
 6161SOL    HW120322  12.512   9.204  11.395
 6161SOL    HW220323  12.634   9.224  11.307
 6162SOL     OW20324   2.639  12.572   0.455
 6162SOL    HW120325   2.639  12.655   0.407
 6162SOL    HW220326   2.728  12.538   0.444
 6163SOL     OW20327   3.275   3.260   7.781
 6163SOL    HW120328   3.235   3.185   7.825
 6163SOL    HW220329   3.206   3.326   7.778
 6164SOL     OW20330   9.276  12.471   9.102
 6164SOL    HW120331   9.204  12.417   9.071
 6164SOL    HW220332   9.340  12.469   9.030
 6165SOL     OW20333  14.064   8.185   6.928
 6165SOL    HW120334  13.991   8.134   6.892
 6165SOL    HW220335  14.084   8.248   6.859
 6166SOL     OW20336  13.582  11.918   9.669
 6166SOL    HW120337  13.534  11.847   9.713
 6166SOL    HW220338  13.589  11.889   9.578
 6167SOL     OW20339   4.225   5.072   2.717
 6167SOL    HW120340   4.244   4.998   2.660
 6167SOL    HW220341   4.133   5.060   2.742
 6168SOL     OW20342   1.798   8.366  11.740
 6168SOL    HW120343   1.800   8.271  11.731
 6168SOL    HW220344   1.737   8.382  11.813
 6169SOL     OW20345   1.898  12.237  12.297
 6169SOL    HW120346   1.864  12.282  12.374
 6169SOL    HW220347   1.961  12.173  12.333
 6170SOL     OW20348  10.499  12.815   3.645
 6170SOL    HW120349  10.439  12.757   3.598
 6170SOL    HW220350  10.560  12.755   3.689
 6171SOL     OW20351   4.232   3.458   6.094
 6171SOL    HW120352   4.196   3.385   6.044
 6171SOL    HW220353   4.237   3.531   6.032
 6172SOL     OW20354   2.602   7.376   4.551
 6172SOL    HW120355   2.612   7.467   4.580
 6172SOL    HW220356   2.691   7.347   4.534
 6173SOL     OW20357   7.223   2.895  13.093
 6173SOL    HW120358   7.276   2.833  13.143
 6173SOL    HW220359   7.280   2.923  13.022
 6174SOL     OW20360   6.618   8.260   4.041
 6174SOL    HW120361   6.636   8.245   4.133
 6174SOL    HW220362   6.529   8.297   4.039
 6175SOL     OW20363  11.989  14.577  13.838
 6175SOL    HW120364  11.951  14.506  13.787
 6175SOL    HW220365  12.068  14.540  13.876
 6176SOL     OW20366   0.531   5.838   0.329
 6176SOL    HW120367   0.608   5.895   0.328
 6176SOL    HW220368   0.534   5.792   0.245
 6177SOL     OW20369  13.953   7.875   0.975
 6177SOL    HW120370  13.938   7.968   0.962
 6177SOL    HW220371  13.953   7.864   1.071
 6178SOL     OW20372   8.705   2.215   5.270
 6178SOL    HW120373   8.790   2.256   5.282
 6178SOL    HW220374   8.651   2.282   5.229
 6179SOL     OW20375   4.537   2.454  11.064
 6179SOL    HW120376   4.629   2.437  11.086
 6179SOL    HW220377   4.491   2.446  11.148
 6180SOL     OW20378   6.677   5.335   2.325
 6180SOL    HW120379   6.672   5.425   2.359
 6180SOL    HW220380   6.759   5.301   2.361
 6181SOL     OW20381   6.892   7.016   9.767
 6181SOL    HW120382   6.915   7.103   9.735
 6181SOL    HW220383   6.974   6.981   9.801
 6182SOL     OW20384   2.049   9.560   6.533
 6182SOL    HW120385   2.128   9.518   6.499
 6182SOL    HW220386   2.081   9.639   6.577
 6183SOL     OW20387  11.074  13.675   4.283
 6183SOL    HW120388  11.016  13.729   4.228
 6183SOL    HW220389  11.145  13.734   4.308
 6184SOL     OW20390   5.513   4.598   4.472
 6184SOL    HW120391   5.455   4.629   4.541
 6184SOL    HW220392   5.497   4.656   4.398
 6185SOL     OW20393   0.352   5.862  14.382
 6185SOL    HW120394   0.289   5.790  14.381
 6185SOL    HW220395   0.363   5.885  14.289
 6186SOL     OW20396  11.604  12.636  14.792
 6186SOL    HW120397  11.538  12.658  14.727
 6186SOL    HW220398  11.686  12.630  14.742
 6187SOL     OW20399   3.056   6.376  10.868
 6187SOL    HW120400   3.146   6.400  10.846
 6187SOL    HW220401   3.006   6.389  10.787
 6188SOL     OW20402   7.295   1.697   7.762
 6188SOL    HW120403   7.220   1.657   7.718
 6188SOL    HW220404   7.297   1.787   7.729
 6189SOL     OW20405   2.226   3.898   2.958
 6189SOL    HW120406   2.280   3.898   2.879
 6189SOL    HW220407   2.289   3.905   3.030
 6190SOL     OW20408  11.043  10.991   4.465
 6190SOL    HW120409  11.009  10.928   4.401
 6190SOL    HW220410  11.025  10.951   4.550
 6191SOL     OW20411   0.450   0.642   9.015
 6191SOL    HW120412   0.395   0.718   8.996
 6191SOL    HW220413   0.539   0.678   9.018
 6192SOL     OW20414   1.053   9.037   2.740
 6192SOL    HW120415   0.960   9.062   2.742
 6192SOL    HW220416   1.095   9.095   2.804
 6193SOL     OW20417   4.353   0.857  10.777
 6193SOL    HW120418   4.301   0.784  10.810
 6193SOL    HW220419   4.365   0.838  10.684
 6194SOL     OW20420   2.162   6.310  14.292
 6194SOL    HW120421   2.236   6.259  14.258
 6194SOL    HW220422   2.116   6.249  14.350
 6195SOL     OW20423  13.673   9.480   4.665
 6195SOL    HW120424  13.678   9.536   4.743
 6195SOL    HW220425  13.594   9.427   4.679
 6196SOL     OW20426   0.659   3.328   7.405
 6196SOL    HW120427   0.591   3.362   7.347
 6196SOL    HW220428   0.620   3.331   7.492
 6197SOL     OW20429  11.313   8.837   8.702
 6197SOL    HW120430  11.290   8.922   8.738
 6197SOL    HW220431  11.290   8.843   8.609
 6198SOL     OW20432  10.367   7.245   1.231
 6198SOL    HW120433  10.443   7.285   1.190
 6198SOL    HW220434  10.339   7.308   1.297
 6199SOL     OW20435  12.792   6.945   3.930
 6199SOL    HW120436  12.711   6.919   3.974
 6199SOL    HW220437  12.840   6.864   3.918
 6200SOL     OW20438   8.002   9.096   4.156
 6200SOL    HW120439   8.063   9.084   4.083
 6200SOL    HW220440   7.920   9.122   4.114
 6201SOL     OW20441   2.685   5.396  12.442
 6201SOL    HW120442   2.640   5.312  12.446
 6201SOL    HW220443   2.656   5.443  12.520
 6202SOL     OW20444  12.070   0.746   3.198
 6202SOL    HW120445  12.007   0.736   3.127
 6202SOL    HW220446  12.025   0.802   3.262
 6203SOL     OW20447  12.171  13.054   3.276
 6203SOL    HW120448  12.182  13.111   3.352
 6203SOL    HW220449  12.176  13.113   3.201
 6204SOL     OW20450   3.885   0.585   7.308
 6204SOL    HW120451   3.974   0.584   7.342
 6204SOL    HW220452   3.851   0.671   7.332
 6205SOL     OW20453  10.341   3.250  11.721
 6205SOL    HW120454  10.367   3.308  11.792
 6205SOL    HW220455  10.415   3.190  11.711
 6206SOL     OW20456   0.442   8.788   2.100
 6206SOL    HW120457   0.420   8.715   2.158
 6206SOL    HW220458   0.502   8.842   2.151
 6207SOL     OW20459  12.460   1.531   3.168
 6207SOL    HW120460  12.539   1.484   3.194
 6207SOL    HW220461  12.390   1.466   3.175
 6208SOL     OW20462   1.787   8.094   9.977
 6208SOL    HW120463   1.843   8.168   9.956
 6208SOL    HW220464   1.810   8.028   9.911
 6209SOL     OW20465   5.334   2.832  13.406
 6209SOL    HW120466   5.255   2.841  13.458
 6209SOL    HW220467   5.376   2.753  13.441
 6210SOL     OW20468   0.054  10.015   1.388
 6210SOL    HW120469  14.875  10.009   1.310
 6210SOL    HW220470   0.067  10.109   1.399
 6211SOL     OW20471   3.245  12.197   7.840
 6211SOL    HW120472   3.302  12.173   7.913
 6211SOL    HW220473   3.285  12.275   7.803
 6212SOL     OW20474   4.865   1.215   0.837
 6212SOL    HW120475   4.900   1.214   0.926
 6212SOL    HW220476   4.942   1.226   0.781
 6213SOL     OW20477  14.478   0.733   1.800
 6213SOL    HW120478  14.432   0.728   1.884
 6213SOL    HW220479  14.501   0.642   1.780
 6214SOL     OW20480   5.813   9.171  13.139
 6214SOL    HW120481   5.796   9.240  13.203
 6214SOL    HW220482   5.729   9.157  13.096
 6215SOL     OW20483   2.936   2.588   7.792
 6215SOL    HW120484   2.871   2.632   7.736
 6215SOL    HW220485   2.982   2.660   7.834
 6216SOL     OW20486   1.674   9.688   3.817
 6216SOL    HW120487   1.722   9.616   3.776
 6216SOL    HW220488   1.632   9.733   3.744
 6217SOL     OW20489   2.227   5.140   7.041
 6217SOL    HW120490   2.177   5.163   7.119
 6217SOL    HW220491   2.166   5.090   6.987
 6218SOL     OW20492   0.969   4.345   6.469
 6218SOL    HW120493   0.989   4.304   6.553
 6218SOL    HW220494   0.873   4.351   6.468
 6219SOL     OW20495  13.948   4.834  14.728
 6219SOL    HW120496  13.900   4.910  14.694
 6219SOL    HW220497  13.898   4.807  14.806
 6220SOL     OW20498   9.870   9.034   4.070
 6220SOL    HW120499   9.892   9.084   3.991
 6220SOL    HW220500   9.876   8.942   4.042
 6221SOL     OW20501   2.986   0.674   2.378
 6221SOL    HW120502   3.033   0.704   2.456
 6221SOL    HW220503   2.981   0.752   2.322
 6222SOL     OW20504   6.491   1.757   6.077
 6222SOL    HW120505   6.495   1.713   6.162
 6222SOL    HW220506   6.400   1.786   6.068
 6223SOL     OW20507   3.515  12.900   3.480
 6223SOL    HW120508   3.594  12.866   3.439
 6223SOL    HW220509   3.470  12.822   3.513
 6224SOL     OW20510  13.795   0.131  13.370
 6224SOL    HW120511  13.810   0.167  13.457
 6224SOL    HW220512  13.700   0.128  13.362
 6225SOL     OW20513   4.588   0.593   1.003
 6225SOL    HW120514   4.520   0.658   0.982
 6225SOL    HW220515   4.542   0.509   1.001
 6226SOL     OW20516   1.712  11.031   6.018
 6226SOL    HW120517   1.694  11.028   6.112
 6226SOL    HW220518   1.658  10.961   5.982
 6227SOL     OW20519  12.698   7.681   8.121
 6227SOL    HW120520  12.665   7.762   8.083
 6227SOL    HW220521  12.620   7.626   8.131
 6228SOL     OW20522   9.398   4.512   2.191
 6228SOL    HW120523   9.375   4.443   2.254
 6228SOL    HW220524   9.335   4.500   2.120
 6229SOL     OW20525   6.417   0.522   3.757
 6229SOL    HW120526   6.459   0.527   3.671
 6229SOL    HW220527   6.440   0.435   3.790
 6230SOL     OW20528   3.408  10.912  13.576
 6230SOL    HW120529   3.330  10.894  13.627
 6230SOL    HW220530   3.462  10.833  13.587
 6231SOL     OW20531  11.278  12.708   5.705
 6231SOL    HW120532  11.287  12.793   5.750
 6231SOL    HW220533  11.187  12.706   5.677
 6232SOL     OW20534   8.341   4.737   8.712
 6232SOL    HW120535   8.361   4.658   8.661
 6232SOL    HW220536   8.361   4.714   8.802
 6233SOL     OW20537   3.800  10.301  11.640
 6233SOL    HW120538   3.768  10.345  11.718
 6233SOL    HW220539   3.746  10.222  11.633
 6234SOL     OW20540   9.213  14.842   9.303
 6234SOL    HW120541   9.140  14.873   9.357
 6234SOL    HW220542   9.266   0.044   9.287
 6235SOL     OW20543  13.342   3.003  14.243
 6235SOL    HW120544  13.377   3.001  14.333
 6235SOL    HW220545  13.262   2.950  14.247
 6236SOL     OW20546   5.865  14.455   2.927
 6236SOL    HW120547   5.816  14.423   3.003
 6236SOL    HW220548   5.818  14.534   2.900
 6237SOL     OW20549  12.096  14.079   8.138
 6237SOL    HW120550  12.107  14.073   8.233
 6237SOL    HW220551  12.005  14.107   8.126
 6238SOL     OW20552   4.220  13.438  10.739
 6238SOL    HW120553   4.229  13.521  10.787
 6238SOL    HW220554   4.249  13.459  10.650
 6239SOL     OW20555  14.820   1.949  10.771
 6239SOL    HW120556  14.744   1.978  10.722
 6239SOL    HW220557  14.822   1.854  10.759
 6240SOL     OW20558   2.837  10.311   1.637
 6240SOL    HW120559   2.766  10.266   1.591
 6240SOL    HW220560   2.829  10.403   1.609
 6241SOL     OW20561   0.964   1.837   3.073
 6241SOL    HW120562   0.893   1.793   3.120
 6241SOL    HW220563   1.016   1.766   3.036
 6242SOL     OW20564  13.246   1.621   2.749
 6242SOL    HW120565  13.208   1.545   2.793
 6242SOL    HW220566  13.234   1.603   2.656
 6243SOL     OW20567   3.995   9.407   6.420
 6243SOL    HW120568   4.011   9.455   6.502
 6243SOL    HW220569   4.043   9.325   6.430
 6244SOL     OW20570  10.586   2.846  13.259
 6244SOL    HW120571  10.657   2.882  13.312
 6244SOL    HW220572  10.618   2.849  13.169
 6245SOL     OW20573   1.047   5.273   6.887
 6245SOL    HW120574   1.038   5.364   6.913
 6245SOL    HW220575   1.139   5.253   6.900
 6246SOL     OW20576   9.227   5.466  12.048
 6246SOL    HW120577   9.268   5.436  12.129
 6246SOL    HW220578   9.267   5.551  12.032
 6247SOL     OW20579   8.991   7.207  14.206
 6247SOL    HW120580   8.916   7.220  14.148
 6247SOL    HW220581   9.020   7.295  14.228
 6248SOL     OW20582   2.510  12.169   4.821
 6248SOL    HW120583   2.512  12.244   4.881
 6248SOL    HW220584   2.427  12.126   4.838
 6249SOL     OW20585   6.416   0.412   0.904
 6249SOL    HW120586   6.405   0.415   0.809
 6249SOL    HW220587   6.350   0.348   0.933
 6250SOL     OW20588   2.001  13.497   6.823
 6250SOL    HW120589   2.017  13.536   6.737
 6250SOL    HW220590   1.968  13.409   6.804
 6251SOL     OW20591   8.265  14.340  11.886
 6251SOL    HW120592   8.215  14.395  11.825
 6251SOL    HW220593   8.348  14.323  11.841
 6252SOL     OW20594   8.453   7.439  14.799
 6252SOL    HW120595   8.522   7.394  14.847
 6252SOL    HW220596   8.497   7.476  14.722
 6253SOL     OW20597   3.996   2.500  14.116
 6253SOL    HW120598   4.061   2.570  14.116
 6253SOL    HW220599   3.917   2.539  14.078
 6254SOL     OW20600   8.546   4.471   9.113
 6254SOL    HW120601   8.512   4.387   9.082
 6254SOL    HW220602   8.560   4.523   9.033
 6255SOL     OW20603   7.654   2.260   0.268
 6255SOL    HW120604   7.682   2.333   0.212
 6255SOL    HW220605   7.735   2.217   0.293
 6256SOL     OW20606   7.211  11.162   3.648
 6256SOL    HW120607   7.169  11.107   3.713
 6256SOL    HW220608   7.171  11.136   3.565
 6257SOL     OW20609  11.274   2.620   7.829
 6257SOL    HW120610  11.345   2.635   7.891
 6257SOL    HW220611  11.195   2.623   7.883
 6258SOL     OW20612  10.530   9.049  13.505
 6258SOL    HW120613  10.549   8.959  13.477
 6258SOL    HW220614  10.490   9.090  13.428
 6259SOL     OW20615   3.334  11.875   8.913
 6259SOL    HW120616   3.270  11.823   8.864
 6259SOL    HW220617   3.378  11.928   8.847
 6260SOL     OW20618  14.422   2.007   0.501
 6260SOL    HW120619  14.446   1.938   0.439
 6260SOL    HW220620  14.328   2.017   0.490
 6261SOL     OW20621   5.685   4.554   6.569
 6261SOL    HW120622   5.685   4.636   6.618
 6261SOL    HW220623   5.610   4.562   6.510
 6262SOL     OW20624  14.618   5.407   9.116
 6262SOL    HW120625  14.578   5.345   9.176
 6262SOL    HW220626  14.636   5.484   9.170
 6263SOL     OW20627   3.600  14.365   1.756
 6263SOL    HW120628   3.652  14.416   1.694
 6263SOL    HW220629   3.517  14.348   1.710
 6264SOL     OW20630   7.271   4.735   1.465
 6264SOL    HW120631   7.286   4.779   1.381
 6264SOL    HW220632   7.277   4.805   1.530
 6265SOL     OW20633   2.604  12.613  12.955
 6265SOL    HW120634   2.592  12.706  12.938
 6265SOL    HW220635   2.694  12.595  12.928
 6266SOL     OW20636  10.465   7.226  13.877
 6266SOL    HW120637  10.511   7.269  13.949
 6266SOL    HW220638  10.391   7.283  13.858
 6267SOL     OW20639  14.825   8.485   1.004
 6267SOL    HW120640  14.832   8.533   1.086
 6267SOL    HW220641  14.753   8.423   1.018
 6268SOL     OW20642   4.578   0.573  13.501
 6268SOL    HW120643   4.660   0.584  13.453
 6268SOL    HW220644   4.582   0.637  13.572
 6269SOL     OW20645   4.720   7.051  11.918
 6269SOL    HW120646   4.815   7.039  11.926
 6269SOL    HW220647   4.710   7.141  11.888
 6270SOL     OW20648   0.555   8.982   6.071
 6270SOL    HW120649   0.469   9.025   6.070
 6270SOL    HW220650   0.547   8.915   6.138
 6271SOL     OW20651   0.997   7.876  11.220
 6271SOL    HW120652   1.073   7.892  11.164
 6271SOL    HW220653   1.034   7.849  11.304
 6272SOL     OW20654  12.202  14.784   6.274
 6272SOL    HW120655  12.192   0.002   6.263
 6272SOL    HW220656  12.293  14.767   6.251
 6273SOL     OW20657   4.402  12.975   7.043
 6273SOL    HW120658   4.426  12.985   6.951
 6273SOL    HW220659   4.464  12.912   7.078
 6274SOL     OW20660   3.764  12.829  10.142
 6274SOL    HW120661   3.744  12.878  10.222
 6274SOL    HW220662   3.855  12.852  10.123
 6275SOL     OW20663   5.395   3.101   9.202
 6275SOL    HW120664   5.486   3.112   9.175
 6275SOL    HW220665   5.356   3.188   9.193
 6276SOL     OW20666  13.316  10.426   6.285
 6276SOL    HW120667  13.391  10.467   6.329
 6276SOL    HW220668  13.302  10.344   6.332
 6277SOL     OW20669   1.730   1.502   1.637
 6277SOL    HW120670   1.731   1.433   1.571
 6277SOL    HW220671   1.641   1.537   1.634
 6278SOL     OW20672   3.435   0.759   4.433
 6278SOL    HW120673   3.504   0.811   4.473
 6278SOL    HW220674   3.455   0.760   4.340
 6279SOL     OW20675   0.009  13.174   7.048
 6279SOL    HW120676  14.811  13.146   6.995
 6279SOL    HW220677   0.075  13.105   7.037
 6280SOL     OW20678   2.128   7.626  12.874
 6280SOL    HW120679   2.034   7.624  12.892
 6280SOL    HW220680   2.153   7.533  12.872
 6281SOL     OW20681  10.462   6.525  11.892
 6281SOL    HW120682  10.451   6.588  11.963
 6281SOL    HW220683  10.375   6.486  11.880
 6282SOL     OW20684  14.858   1.136   6.875
 6282SOL    HW120685  14.862   1.212   6.933
 6282SOL    HW220686   0.047   1.154   6.807
 6283SOL     OW20687  14.630   0.497   7.602
 6283SOL    HW120688  14.601   0.580   7.565
 6283SOL    HW220689  14.552   0.441   7.601
 6284SOL     OW20690   6.780  12.493  14.588
 6284SOL    HW120691   6.703  12.503  14.644
 6284SOL    HW220692   6.825  12.416  14.623
 6285SOL     OW20693  13.515   1.651   5.489
 6285SOL    HW120694  13.458   1.580   5.518
 6285SOL    HW220695  13.491   1.665   5.397
 6286SOL     OW20696  14.418   8.383  10.603
 6286SOL    HW120697  14.432   8.409  10.694
 6286SOL    HW220698  14.323   8.377  10.594
 6287SOL     OW20699   1.539   0.306   2.108
 6287SOL    HW120700   1.493   0.310   2.192
 6287SOL    HW220701   1.629   0.330   2.128
 6288SOL     OW20702   0.572   1.340  10.159
 6288SOL    HW120703   0.496   1.290  10.128
 6288SOL    HW220704   0.547   1.431  10.147
 6289SOL     OW20705   0.596   5.371   8.205
 6289SOL    HW120706   0.631   5.446   8.253
 6289SOL    HW220707   0.550   5.320   8.271
 6290SOL     OW20708   7.380   6.100  11.734
 6290SOL    HW120709   7.287   6.096  11.709
 6290SOL    HW220710   7.384   6.055  11.818
 6291SOL     OW20711  11.575   5.400   1.746
 6291SOL    HW120712  11.599   5.422   1.656
 6291SOL    HW220713  11.657   5.373   1.786
 6292SOL     OW20714  12.834   1.539   3.008
 6292SOL    HW120715  12.795   1.626   3.015
 6292SOL    HW220716  12.829   1.517   2.915
 6293SOL     OW20717   9.947  12.084  11.183
 6293SOL    HW120718   9.940  12.178  11.200
 6293SOL    HW220719  10.019  12.056  11.240
 6294SOL     OW20720   2.465   1.351   1.103
 6294SOL    HW120721   2.538   1.333   1.162
 6294SOL    HW220722   2.435   1.264   1.074
 6295SOL     OW20723  12.874   5.012   7.233
 6295SOL    HW120724  12.859   5.080   7.298
 6295SOL    HW220725  12.791   4.965   7.227
 6296SOL     OW20726   8.489   1.148   6.014
 6296SOL    HW120727   8.412   1.201   6.031
 6296SOL    HW220728   8.463   1.059   6.038
 6297SOL     OW20729   8.916   7.282  11.469
 6297SOL    HW120730   8.964   7.321  11.543
 6297SOL    HW220731   8.824   7.293  11.493
 6298SOL     OW20732  12.303   4.870   4.932
 6298SOL    HW120733  12.281   4.851   4.841
 6298SOL    HW220734  12.243   4.816   4.984
 6299SOL     OW20735   7.936   4.060  13.899
 6299SOL    HW120736   7.854   4.013  13.914
 6299SOL    HW220737   7.910   4.152  13.895
 6300SOL     OW20738   8.402   5.567   8.216
 6300SOL    HW120739   8.393   5.477   8.246
 6300SOL    HW220740   8.471   5.604   8.272
 6301SOL     OW20741   9.986   9.809  14.127
 6301SOL    HW120742   9.923   9.842  14.063
 6301SOL    HW220743  10.009   9.885  14.180
 6302SOL     OW20744   1.325  11.790   5.076
 6302SOL    HW120745   1.313  11.871   5.125
 6302SOL    HW220746   1.265  11.728   5.117
 6303SOL     OW20747   4.007   6.354  10.008
 6303SOL    HW120748   3.924   6.399  10.017
 6303SOL    HW220749   4.072   6.424  10.001
 6304SOL     OW20750   2.351  14.071   7.219
 6304SOL    HW120751   2.278  14.129   7.241
 6304SOL    HW220752   2.325  13.986   7.254
 6305SOL     OW20753  10.149   8.191   5.006
 6305SOL    HW120754  10.134   8.117   4.947
 6305SOL    HW220755  10.216   8.243   4.962
 6306SOL     OW20756   5.245   3.876  14.128
 6306SOL    HW120757   5.271   3.908  14.215
 6306SOL    HW220758   5.318   3.900  14.071
 6307SOL     OW20759  10.252  11.281   2.724
 6307SOL    HW120760  10.256  11.252   2.815
 6307SOL    HW220761  10.237  11.201   2.674
 6308SOL     OW20762   8.713  13.633  10.736
 6308SOL    HW120763   8.721  13.584  10.818
 6308SOL    HW220764   8.682  13.569  10.673
 6309SOL     OW20765   4.259  10.573   3.775
 6309SOL    HW120766   4.315  10.497   3.756
 6309SOL    HW220767   4.170  10.542   3.757
 6310SOL     OW20768  14.734   4.893   1.589
 6310SOL    HW120769  14.692   4.874   1.673
 6310SOL    HW220770  14.823   4.920   1.613
 6311SOL     OW20771   4.279   7.097  11.757
 6311SOL    HW120772   4.317   7.057  11.835
 6311SOL    HW220773   4.346   7.158  11.726
 6312SOL     OW20774   7.386   0.787  13.693
 6312SOL    HW120775   7.480   0.801  13.680
 6312SOL    HW220776   7.346   0.810  13.609
 6313SOL     OW20777   6.110  10.849   4.464
 6313SOL    HW120778   6.058  10.834   4.384
 6313SOL    HW220779   6.199  10.864   4.432
 6314SOL     OW20780   2.387   6.242   1.000
 6314SOL    HW120781   2.424   6.331   1.006
 6314SOL    HW220782   2.351   6.226   1.087
 6315SOL     OW20783   9.764   8.859   5.552
 6315SOL    HW120784   9.829   8.791   5.569
 6315SOL    HW220785   9.681   8.811   5.544
 6316SOL     OW20786   3.979   7.356   2.259
 6316SOL    HW120787   4.025   7.399   2.331
 6316SOL    HW220788   3.969   7.265   2.287
 6317SOL     OW20789   0.487   8.150   6.112
 6317SOL    HW120790   0.503   8.190   6.027
 6317SOL    HW220791   0.452   8.221   6.166
 6318SOL     OW20792   1.043   9.265  11.733
 6318SOL    HW120793   1.134   9.286  11.715
 6318SOL    HW220794   1.029   9.179  11.693
 6319SOL     OW20795  13.575   4.632   6.001
 6319SOL    HW120796  13.641   4.693   6.035
 6319SOL    HW220797  13.492   4.676   6.018
 6320SOL     OW20798   5.831  14.222   3.616
 6320SOL    HW120799   5.838  14.316   3.598
 6320SOL    HW220800   5.876  14.211   3.700
 6321SOL     OW20801   0.200   8.905   2.016
 6321SOL    HW120802   0.267   8.845   2.049
 6321SOL    HW220803   0.181   8.962   2.090
 6322SOL     OW20804   7.292  12.897   6.477
 6322SOL    HW120805   7.355  12.910   6.407
 6322SOL    HW220806   7.318  12.960   6.545
 6323SOL     OW20807   2.383  10.432   8.789
 6323SOL    HW120808   2.412  10.342   8.774
 6323SOL    HW220809   2.456  10.473   8.836
 6324SOL     OW20810  12.871   2.624   9.732
 6324SOL    HW120811  12.799   2.603   9.672
 6324SOL    HW220812  12.949   2.628   9.676
 6325SOL     OW20813   0.309   1.176   2.822
 6325SOL    HW120814   0.354   1.092   2.809
 6325SOL    HW220815   0.233   1.154   2.876
 6326SOL     OW20816   9.994   7.221   7.314
 6326SOL    HW120817  10.036   7.147   7.358
 6326SOL    HW220818   9.901   7.207   7.328
 6327SOL     OW20819   6.129   1.820   4.126
 6327SOL    HW120820   6.175   1.877   4.065
 6327SOL    HW220821   6.155   1.732   4.101
 6328SOL     OW20822   8.892  11.607   0.266
 6328SOL    HW120823   8.902  11.527   0.317
 6328SOL    HW220824   8.978  11.619   0.224
 6329SOL     OW20825   4.514   2.556   4.060
 6329SOL    HW120826   4.532   2.521   3.973
 6329SOL    HW220827   4.421   2.579   4.057
 6330SOL     OW20828   0.110   2.052  14.778
 6330SOL    HW120829   0.194   2.066  14.734
 6330SOL    HW220830   0.133   2.043  14.870
 6331SOL     OW20831  10.831   6.357   3.081
 6331SOL    HW120832  10.823   6.294   3.153
 6331SOL    HW220833  10.811   6.442   3.121
 6332SOL     OW20834   1.718   4.263  11.465
 6332SOL    HW120835   1.686   4.246  11.553
 6332SOL    HW220836   1.644   4.240  11.408
 6333SOL     OW20837   2.578   0.814   7.950
 6333SOL    HW120838   2.524   0.739   7.924
 6333SOL    HW220839   2.515   0.877   7.986
 6334SOL     OW20840   6.660  11.366   4.101
 6334SOL    HW120841   6.663  11.270   4.096
 6334SOL    HW220842   6.575  11.385   4.140
 6335SOL     OW20843   6.843   3.184   9.205
 6335SOL    HW120844   6.841   3.247   9.133
 6335SOL    HW220845   6.756   3.189   9.244
 6336SOL     OW20846  12.712  11.928   4.045
 6336SOL    HW120847  12.793  11.878   4.038
 6336SOL    HW220848  12.646  11.863   4.070
 6337SOL     OW20849   6.390  13.411  14.147
 6337SOL    HW120850   6.309  13.431  14.100
 6337SOL    HW220851   6.449  13.482  14.124
 6338SOL     OW20852  14.248   2.114   7.425
 6338SOL    HW120853  14.248   2.173   7.501
 6338SOL    HW220854  14.157   2.091   7.412
 6339SOL     OW20855  11.573  11.112   7.720
 6339SOL    HW120856  11.636  11.077   7.657
 6339SOL    HW220857  11.574  11.206   7.705
 6340SOL     OW20858   5.823   5.332   2.563
 6340SOL    HW120859   5.866   5.412   2.593
 6340SOL    HW220860   5.836   5.333   2.468
 6341SOL     OW20861  11.805   7.090  12.850
 6341SOL    HW120862  11.872   7.025  12.829
 6341SOL    HW220863  11.853   7.171  12.866
 6342SOL     OW20864   8.127   0.658   6.519
 6342SOL    HW120865   8.119   0.569   6.553
 6342SOL    HW220866   8.194   0.700   6.573
 6343SOL     OW20867  11.323   3.303   1.743
 6343SOL    HW120868  11.287   3.238   1.803
 6343SOL    HW220869  11.276   3.289   1.661
 6344SOL     OW20870  13.642   2.237  11.750
 6344SOL    HW120871  13.668   2.164  11.806
 6344SOL    HW220872  13.621   2.197  11.665
 6345SOL     OW20873   2.502   7.077   9.237
 6345SOL    HW120874   2.591   7.087   9.271
 6345SOL    HW220875   2.445   7.103   9.309
 6346SOL     OW20876  14.534   3.902   8.196
 6346SOL    HW120877  14.505   3.820   8.236
 6346SOL    HW220878  14.455   3.940   8.159
 6347SOL     OW20879   0.828   7.944  11.583
 6347SOL    HW120880   0.794   7.922  11.669
 6347SOL    HW220881   0.920   7.914  11.585
 6348SOL     OW20882   9.121  12.858   3.640
 6348SOL    HW120883   9.033  12.855   3.603
 6348SOL    HW220884   9.132  12.950   3.667
 6349SOL     OW20885   3.703  12.133  13.819
 6349SOL    HW120886   3.685  12.182  13.899
 6349SOL    HW220887   3.625  12.147  13.765
 6350SOL     OW20888   8.391   1.887  10.743
 6350SOL    HW120889   8.442   1.811  10.772
 6350SOL    HW220890   8.327   1.851  10.682
 6351SOL     OW20891   7.086   7.550   7.228
 6351SOL    HW120892   7.059   7.463   7.197
 6351SOL    HW220893   7.127   7.533   7.313
 6352SOL     OW20894   7.661  13.902   1.856
 6352SOL    HW120895   7.703  13.893   1.770
 6352SOL    HW220896   7.632  13.993   1.859
 6353SOL     OW20897  12.471  13.559  13.678
 6353SOL    HW120898  12.489  13.480  13.728
 6353SOL    HW220899  12.493  13.631  13.738
 6354SOL     OW20900   1.307  12.108   0.320
 6354SOL    HW120901   1.236  12.110   0.255
 6354SOL    HW220902   1.323  12.015   0.335
 6355SOL     OW20903  13.713   4.654   1.828
 6355SOL    HW120904  13.639   4.705   1.860
 6355SOL    HW220905  13.725   4.681   1.737
 6356SOL     OW20906   8.073  12.253   9.300
 6356SOL    HW120907   8.003  12.317   9.302
 6356SOL    HW220908   8.077  12.218   9.389
 6357SOL     OW20909  12.353   6.076  12.552
 6357SOL    HW120910  12.380   6.164  12.576
 6357SOL    HW220911  12.433   6.031  12.528
 6358SOL     OW20912   4.789  14.141  13.560
 6358SOL    HW120913   4.830  14.065  13.518
 6358SOL    HW220914   4.838  14.216  13.526
 6359SOL     OW20915   9.839  11.932   6.616
 6359SOL    HW120916   9.879  12.010   6.656
 6359SOL    HW220917   9.766  11.967   6.564
 6360SOL     OW20918  13.906   7.720   0.061
 6360SOL    HW120919  13.970   7.656   0.028
 6360SOL    HW220920  13.846   7.668   0.115
 6361SOL     OW20921   3.929   7.343  13.198
 6361SOL    HW120922   3.995   7.275  13.209
 6361SOL    HW220923   3.886   7.322  13.115
 6362SOL     OW20924  12.973   0.000  10.701
 6362SOL    HW120925  12.997   0.032  10.788
 6362SOL    HW220926  12.902   0.059  10.673
 6363SOL     OW20927   0.359   0.615   3.253
 6363SOL    HW120928   0.288   0.662   3.296
 6363SOL    HW220929   0.434   0.626   3.312
 6364SOL     OW20930  10.553   4.743  14.456
 6364SOL    HW120931  10.483   4.790  14.411
 6364SOL    HW220932  10.624   4.737  14.392
 6365SOL     OW20933   5.146   8.616  10.932
 6365SOL    HW120934   5.235   8.584  10.924
 6365SOL    HW220935   5.100   8.549  10.982
 6366SOL     OW20936  12.964   9.422   9.261
 6366SOL    HW120937  12.966   9.516   9.279
 6366SOL    HW220938  12.871   9.403   9.246
 6367SOL     OW20939  14.071  13.382  10.190
 6367SOL    HW120940  14.008  13.393  10.119
 6367SOL    HW220941  14.096  13.289  10.186
 6368SOL     OW20942   3.303   8.841  14.389
 6368SOL    HW120943   3.348   8.914  14.347
 6368SOL    HW220944   3.362   8.814  14.459
 6369SOL     OW20945   6.588   3.087   8.606
 6369SOL    HW120946   6.636   3.151   8.658
 6369SOL    HW220947   6.635   3.004   8.619
 6370SOL     OW20948   7.101   5.505   8.411
 6370SOL    HW120949   7.120   5.438   8.477
 6370SOL    HW220950   7.027   5.554   8.447
 6371SOL     OW20951   8.309  10.622  10.291
 6371SOL    HW120952   8.255  10.701  10.289
 6371SOL    HW220953   8.304  10.587  10.203
 6372SOL     OW20954   5.654  14.098   7.069
 6372SOL    HW120955   5.576  14.144   7.099
 6372SOL    HW220956   5.725  14.160   7.084
 6373SOL     OW20957   5.478   2.423  10.338
 6373SOL    HW120958   5.387   2.392  10.344
 6373SOL    HW220959   5.472   2.505  10.291
 6374SOL     OW20960   1.953   7.443  13.512
 6374SOL    HW120961   1.858   7.444  13.523
 6374SOL    HW220962   1.968   7.382  13.439
 6375SOL     OW20963  10.486   8.846   1.520
 6375SOL    HW120964  10.489   8.918   1.457
 6375SOL    HW220965  10.463   8.769   1.467
 6376SOL     OW20966   4.301   7.973   8.801
 6376SOL    HW120967   4.284   7.888   8.760
 6376SOL    HW220968   4.359   7.952   8.875
 6377SOL     OW20969   0.386  11.789  11.385
 6377SOL    HW120970   0.478  11.817  11.381
 6377SOL    HW220971   0.367  11.759  11.296
 6378SOL     OW20972  13.662   4.599  13.348
 6378SOL    HW120973  13.646   4.652  13.270
 6378SOL    HW220974  13.733   4.645  13.394
 6379SOL     OW20975  12.445  12.346   8.435
 6379SOL    HW120976  12.459  12.373   8.344
 6379SOL    HW220977  12.351  12.357   8.450
 6380SOL     OW20978   7.379   7.860   6.721
 6380SOL    HW120979   7.386   7.800   6.796
 6380SOL    HW220980   7.462   7.907   6.720
 6381SOL     OW20981   9.812   6.676   4.667
 6381SOL    HW120982   9.756   6.723   4.728
 6381SOL    HW220983   9.889   6.652   4.718
 6382SOL     OW20984   1.567   5.681   9.719
 6382SOL    HW120985   1.660   5.680   9.696
 6382SOL    HW220986   1.545   5.774   9.724
 6383SOL     OW20987   2.139   2.517  10.047
 6383SOL    HW120988   2.217   2.566  10.021
 6383SOL    HW220989   2.084   2.581  10.092
 6384SOL     OW20990  14.372   2.620   6.822
 6384SOL    HW120991  14.382   2.609   6.727
 6384SOL    HW220992  14.460   2.605   6.857
 6385SOL     OW20993  10.059   0.049   7.361
 6385SOL    HW120994   9.994   0.101   7.313
 6385SOL    HW220995  10.116   0.114   7.402
 6386SOL     OW20996   9.657  13.670  11.558
 6386SOL    HW120997   9.641  13.635  11.471
 6386SOL    HW220998   9.738  13.721  11.549
 6387SOL     OW20999  12.689   1.611   4.554
 6387SOL    HW121000  12.784   1.622   4.560
 6387SOL    HW221001  12.655   1.700   4.559
 6388SOL     OW21002   5.847   3.207   8.218
 6388SOL    HW121003   5.775   3.264   8.191
 6388SOL    HW221004   5.804   3.134   8.264
 6389SOL     OW21005   5.124   0.579  10.246
 6389SOL    HW121006   5.041   0.614  10.212
 6389SOL    HW221007   5.119   0.485  10.227
 6390SOL     OW21008   2.752  11.072  11.262
 6390SOL    HW121009   2.695  11.115  11.199
 6390SOL    HW221010   2.839  11.108  11.244
 6391SOL     OW21011   6.854   6.434   9.707
 6391SOL    HW121012   6.792   6.406   9.774
 6391SOL    HW221013   6.846   6.368   9.638
 6392SOL     OW21014   0.798   5.999   2.202
 6392SOL    HW121015   0.754   5.963   2.279
 6392SOL    HW221016   0.752   6.081   2.184
 6393SOL     OW21017   9.560  10.589  10.327
 6393SOL    HW121018   9.577  10.563  10.417
 6393SOL    HW221019   9.503  10.665  10.333
 6394SOL     OW21020   1.611   0.041   2.185
 6394SOL    HW121021   1.580   0.131   2.172
 6394SOL    HW221022   1.684   0.050   2.245
 6395SOL     OW21023   0.614  14.256   7.289
 6395SOL    HW121024   0.592  14.176   7.336
 6395SOL    HW221025   0.538  14.273   7.233
 6396SOL     OW21026  11.761   0.823  13.992
 6396SOL    HW121027  11.807   0.741  13.974
 6396SOL    HW221028  11.762   0.830  14.087
 6397SOL     OW21029   1.862  12.460   4.647
 6397SOL    HW121030   1.778  12.436   4.687
 6397SOL    HW221031   1.892  12.380   4.603
 6398SOL     OW21032  14.309   9.674  10.264
 6398SOL    HW121033  14.275   9.763  10.276
 6398SOL    HW221034  14.234   9.625  10.228
 6399SOL     OW21035   6.753  11.028  13.611
 6399SOL    HW121036   6.807  10.972  13.667
 6399SOL    HW221037   6.797  11.114  13.615
 6400SOL     OW21038  11.671   7.959   8.974
 6400SOL    HW121039  11.647   7.867   8.964
 6400SOL    HW221040  11.707   7.984   8.889
 6401SOL     OW21041  13.165  11.350   8.475
 6401SOL    HW121042  13.207  11.272   8.440
 6401SOL    HW221043  13.237  11.412   8.487
 6402SOL     OW21044   6.093  10.890   1.531
 6402SOL    HW121045   6.067  10.803   1.501
 6402SOL    HW221046   6.177  10.905   1.488
 6403SOL     OW21047   5.420   4.244   2.677
 6403SOL    HW121048   5.496   4.291   2.642
 6403SOL    HW221049   5.442   4.152   2.669
 6404SOL     OW21050   9.603   3.517   6.940
 6404SOL    HW121051   9.652   3.598   6.951
 6404SOL    HW221052   9.583   3.515   6.846
 6405SOL     OW21053   4.967   2.431   3.548
 6405SOL    HW121054   5.007   2.407   3.464
 6405SOL    HW221055   5.041   2.457   3.603
 6406SOL     OW21056   0.555  13.070   5.302
 6406SOL    HW121057   0.532  13.012   5.229
 6406SOL    HW221058   0.471  13.096   5.340
 6407SOL     OW21059  12.090  12.121   8.632
 6407SOL    HW121060  12.111  12.041   8.681
 6407SOL    HW221061  12.058  12.089   8.548
 6408SOL     OW21062   4.204  11.645   5.027
 6408SOL    HW121063   4.154  11.594   4.963
 6408SOL    HW221064   4.160  11.629   5.111
 6409SOL     OW21065   5.149   4.331  12.339
 6409SOL    HW121066   5.224   4.344  12.281
 6409SOL    HW221067   5.167   4.248  12.384
 6410SOL     OW21068   6.616   3.912   9.624
 6410SOL    HW121069   6.578   3.831   9.590
 6410SOL    HW221070   6.673   3.883   9.696
 6411SOL     OW21071  11.110   8.542   7.773
 6411SOL    HW121072  11.086   8.450   7.765
 6411SOL    HW221073  11.026   8.588   7.782
 6412SOL     OW21074   5.100   2.674  13.541
 6412SOL    HW121075   5.115   2.581  13.524
 6412SOL    HW221076   5.046   2.676  13.620
 6413SOL     OW21077   9.107  11.546   4.224
 6413SOL    HW121078   9.128  11.594   4.304
 6413SOL    HW221079   9.191  11.517   4.191
 6414SOL     OW21080   2.583   6.223   8.077
 6414SOL    HW121081   2.497   6.185   8.063
 6414SOL    HW221082   2.614   6.183   8.158
 6415SOL     OW21083   7.621   6.940  13.184
 6415SOL    HW121084   7.692   6.981  13.234
 6415SOL    HW221085   7.638   6.846  13.190
 6416SOL     OW21086  14.729   1.707  13.358
 6416SOL    HW121087  14.715   1.754  13.440
 6416SOL    HW221088  14.765   1.623  13.383
 6417SOL     OW21089   6.008   5.260   7.552
 6417SOL    HW121090   6.076   5.312   7.595
 6417SOL    HW221091   6.007   5.291   7.462
 6418SOL     OW21092   9.862   6.467   0.064
 6418SOL    HW121093   9.801   6.429   0.002
 6418SOL    HW221094   9.862   6.561   0.043
 6419SOL     OW21095  10.215  11.311   4.824
 6419SOL    HW121096  10.149  11.243   4.832
 6419SOL    HW221097  10.298  11.263   4.819
 6420SOL     OW21098   3.522   1.345   5.506
 6420SOL    HW121099   3.556   1.370   5.592
 6420SOL    HW221100   3.469   1.419   5.477
 6421SOL     OW21101   7.832   1.409   6.554
 6421SOL    HW121102   7.908   1.466   6.562
 6421SOL    HW221103   7.789   1.414   6.639
 6422SOL     OW21104   1.023   4.861   3.427
 6422SOL    HW121105   0.977   4.840   3.509
 6422SOL    HW221106   0.964   4.832   3.358
 6423SOL     OW21107   6.806   8.024   2.390
 6423SOL    HW121108   6.812   8.056   2.300
 6423SOL    HW221109   6.712   8.026   2.409
 6424SOL     OW21110  12.111   4.477  12.697
 6424SOL    HW121111  12.196   4.505  12.732
 6424SOL    HW221112  12.132   4.408  12.634
 6425SOL     OW21113  12.976  10.789   9.583
 6425SOL    HW121114  12.971  10.739   9.502
 6425SOL    HW221115  12.893  10.771   9.628
 6426SOL     OW21116   7.745   8.339   1.623
 6426SOL    HW121117   7.686   8.402   1.665
 6426SOL    HW221118   7.760   8.272   1.689
 6427SOL     OW21119   7.395   3.592   6.452
 6427SOL    HW121120   7.366   3.578   6.542
 6427SOL    HW221121   7.436   3.509   6.427
 6428SOL     OW21122   2.849   8.113   0.084
 6428SOL    HW121123   2.921   8.139   0.026
 6428SOL    HW221124   2.892   8.068   0.157
 6429SOL     OW21125  14.162   5.400   4.591
 6429SOL    HW121126  14.082   5.348   4.598
 6429SOL    HW221127  14.216   5.354   4.527
 6430SOL     OW21128   1.777   3.674  11.334
 6430SOL    HW121129   1.758   3.591  11.378
 6430SOL    HW221130   1.862   3.660  11.292
 6431SOL     OW21131   6.035   9.207   0.418
 6431SOL    HW121132   5.999   9.293   0.436
 6431SOL    HW221133   6.128   9.224   0.399
 6432SOL     OW21134  12.142   2.202  10.670
 6432SOL    HW121135  12.137   2.241  10.758
 6432SOL    HW221136  12.235   2.197  10.652
 6433SOL     OW21137  13.816  13.585   1.769
 6433SOL    HW121138  13.875  13.512   1.752
 6433SOL    HW221139  13.863  13.662   1.738
 6434SOL     OW21140   4.655  11.404   9.531
 6434SOL    HW121141   4.621  11.485   9.568
 6434SOL    HW221142   4.709  11.431   9.457
 6435SOL     OW21143  10.160   9.514   4.912
 6435SOL    HW121144  10.179   9.501   5.004
 6435SOL    HW221145  10.219   9.584   4.885
 6436SOL     OW21146   0.257   4.629   1.165
 6436SOL    HW121147   0.342   4.586   1.181
 6436SOL    HW221148   0.229   4.595   1.080
 6437SOL     OW21149   0.325  14.062   6.105
 6437SOL    HW121150   0.347  14.028   6.018
 6437SOL    HW221151   0.407  14.100   6.137
 6438SOL     OW21152   9.875   8.068   8.812
 6438SOL    HW121153   9.822   8.060   8.890
 6438SOL    HW221154   9.813   8.088   8.742
 6439SOL     OW21155  12.690  13.671  11.553
 6439SOL    HW121156  12.668  13.762  11.534
 6439SOL    HW221157  12.729  13.673  11.641
 6440SOL     OW21158  10.835  12.529   6.635
 6440SOL    HW121159  10.799  12.459   6.690
 6440SOL    HW221160  10.819  12.499   6.546
 6441SOL     OW21161   4.142   8.568   9.620
 6441SOL    HW121162   4.103   8.631   9.559
 6441SOL    HW221163   4.211   8.526   9.570
 6442SOL     OW21164  11.756  13.996   4.742
 6442SOL    HW121165  11.733  13.903   4.740
 6442SOL    HW221166  11.718  14.028   4.824
 6443SOL     OW21167   8.140   2.708   4.246
 6443SOL    HW121168   8.069   2.669   4.196
 6443SOL    HW221169   8.114   2.799   4.258
 6444SOL     OW21170  10.875  12.728   2.126
 6444SOL    HW121171  10.922  12.673   2.063
 6444SOL    HW221172  10.930  12.727   2.204
 6445SOL     OW21173   9.790   8.864   4.638
 6445SOL    HW121174   9.739   8.806   4.694
 6445SOL    HW221175   9.880   8.834   4.648
 6446SOL     OW21176   4.246  13.949   4.612
 6446SOL    HW121177   4.305  13.937   4.686
 6446SOL    HW221178   4.161  13.966   4.652
 6447SOL     OW21179   0.727  10.358  10.136
 6447SOL    HW121180   0.743  10.271  10.099
 6447SOL    HW221181   0.814  10.399  10.140
 6448SOL     OW21182   8.811  14.161  11.104
 6448SOL    HW121183   8.861  14.080  11.107
 6448SOL    HW221184   8.870  14.224  11.062
 6449SOL     OW21185   1.107   4.066  11.683
 6449SOL    HW121186   1.171   4.128  11.646
 6449SOL    HW221187   1.159   3.989  11.705
 6450SOL     OW21188   5.134   4.107   6.901
 6450SOL    HW121189   5.059   4.152   6.941
 6450SOL    HW221190   5.207   4.167   6.913
 6451SOL     OW21191   2.852   1.620  12.851
 6451SOL    HW121192   2.825   1.639  12.941
 6451SOL    HW221193   2.915   1.548  12.860
 6452SOL     OW21194   7.132   9.335   3.320
 6452SOL    HW121195   7.076   9.307   3.392
 6452SOL    HW221196   7.083   9.404   3.276
 6453SOL     OW21197  11.084  11.783   8.643
 6453SOL    HW121198  11.027  11.717   8.682
 6453SOL    HW221199  11.024  11.851   8.613
 6454SOL     OW21200   2.047   4.487  12.408
 6454SOL    HW121201   2.107   4.484  12.482
 6454SOL    HW221202   2.103   4.480  12.330
 6455SOL     OW21203  13.690  10.697  14.372
 6455SOL    HW121204  13.769  10.750  14.383
 6455SOL    HW221205  13.618  10.760  14.380
 6456SOL     OW21206   9.229  14.460   5.856
 6456SOL    HW121207   9.285  14.525   5.813
 6456SOL    HW221208   9.218  14.493   5.945
 6457SOL     OW21209   6.524   4.026  12.838
 6457SOL    HW121210   6.567   3.991  12.760
 6457SOL    HW221211   6.469   3.955  12.870
 6458SOL     OW21212   4.993   2.541  13.197
 6458SOL    HW121213   4.997   2.447  13.180
 6458SOL    HW221214   4.940   2.576  13.125
 6459SOL     OW21215   7.476   0.255   1.521
 6459SOL    HW121216   7.413   0.327   1.527
 6459SOL    HW221217   7.552   0.292   1.475
 6460SOL     OW21218   3.973   7.113   5.292
 6460SOL    HW121219   4.050   7.101   5.348
 6460SOL    HW221220   3.992   7.061   5.214
 6461SOL     OW21221   9.713   5.027  12.290
 6461SOL    HW121222   9.657   5.104  12.305
 6461SOL    HW221223   9.783   5.060  12.234
 6462SOL     OW21224   0.018  13.618   6.904
 6462SOL    HW121225   0.078  13.588   6.836
 6462SOL    HW221226   0.055  13.702   6.932
 6463SOL     OW21227  14.550   2.965   7.093
 6463SOL    HW121228  14.567   2.972   6.999
 6463SOL    HW221229  14.600   2.888   7.120
 6464SOL     OW21230  12.730   9.083   6.625
 6464SOL    HW121231  12.733   9.125   6.539
 6464SOL    HW221232  12.637   9.084   6.649
 6465SOL     OW21233   2.053   5.612  12.296
 6465SOL    HW121234   2.140   5.617  12.257
 6465SOL    HW221235   2.043   5.519  12.318
 6466SOL     OW21236   5.927   0.166  13.538
 6466SOL    HW121237   5.918   0.211  13.622
 6466SOL    HW221238   5.867   0.212  13.479
 6467SOL     OW21239  14.395   2.943   5.693
 6467SOL    HW121240  14.404   2.855   5.657
 6467SOL    HW221241  14.456   2.945   5.767
 6468SOL     OW21242   2.602   9.595   4.377
 6468SOL    HW121243   2.646   9.662   4.324
 6468SOL    HW221244   2.570   9.642   4.454
 6469SOL     OW21245   5.410   4.235   8.063
 6469SOL    HW121246   5.354   4.160   8.085
 6469SOL    HW221247   5.362   4.280   7.992
 6470SOL     OW21248   1.622   1.559  14.747
 6470SOL    HW121249   1.645   1.470  14.719
 6470SOL    HW221250   1.530   1.552  14.773
 6471SOL     OW21251   5.748   2.885   4.351
 6471SOL    HW121252   5.770   2.870   4.259
 6471SOL    HW221253   5.681   2.953   4.349
 6472SOL     OW21254   9.424  11.662   7.364
 6472SOL    HW121255   9.369  11.739   7.373
 6472SOL    HW221256   9.409  11.632   7.275
 6473SOL     OW21257  13.714   0.761   6.282
 6473SOL    HW121258  13.637   0.711   6.308
 6473SOL    HW221259  13.767   0.766   6.361
 6474SOL     OW21260   9.587   8.174  10.259
 6474SOL    HW121261   9.505   8.208  10.295
 6474SOL    HW221262   9.612   8.104  10.318
 6475SOL     OW21263   6.583   0.533   9.062
 6475SOL    HW121264   6.516   0.477   9.100
 6475SOL    HW221265   6.536   0.587   8.999
 6476SOL     OW21266  10.839   7.638   1.828
 6476SOL    HW121267  10.783   7.604   1.759
 6476SOL    HW221268  10.789   7.709   1.868
 6477SOL     OW21269  10.204   2.438  11.066
 6477SOL    HW121270  10.167   2.415  10.980
 6477SOL    HW221271  10.163   2.522  11.088
 6478SOL     OW21272   7.684  14.380   3.211
 6478SOL    HW121273   7.678  14.284   3.212
 6478SOL    HW221274   7.595  14.409   3.231
 6479SOL     OW21275   3.704  10.418   7.043
 6479SOL    HW121276   3.723  10.442   6.953
 6479SOL    HW221277   3.788  10.420   7.088
 6480SOL     OW21278   5.157  12.506   2.446
 6480SOL    HW121279   5.105  12.585   2.437
 6480SOL    HW221280   5.247  12.534   2.429
 6481SOL     OW21281   1.098   7.357  12.231
 6481SOL    HW121282   1.021   7.375  12.176
 6481SOL    HW221283   1.108   7.262  12.227
 6482SOL     OW21284  10.329   4.322  12.281
 6482SOL    HW121285  10.279   4.251  12.240
 6482SOL    HW221286  10.350   4.381  12.209
 6483SOL     OW21287   9.235   1.831   1.529
 6483SOL    HW121288   9.207   1.746   1.563
 6483SOL    HW221289   9.327   1.818   1.504
 6484SOL     OW21290  12.448   2.301   3.395
 6484SOL    HW121291  12.539   2.331   3.395
 6484SOL    HW221292  12.433   2.272   3.485
 6485SOL     OW21293  13.378  10.782   0.139
 6485SOL    HW121294  13.340  10.741   0.217
 6485SOL    HW221295  13.322  10.858   0.122
 6486SOL     OW21296  13.768   5.824  10.747
 6486SOL    HW121297  13.685   5.836  10.793
 6486SOL    HW221298  13.817   5.762  10.801
 6487SOL     OW21299  10.170  14.158   2.023
 6487SOL    HW121300  10.188  14.233   2.079
 6487SOL    HW221301  10.170  14.194   1.934
 6488SOL     OW21302  13.349   4.084  14.555
 6488SOL    HW121303  13.338   3.990  14.563
 6488SOL    HW221304  13.268   4.114  14.512
 6489SOL     OW21305   6.909   5.356   0.922
 6489SOL    HW121306   6.990   5.397   0.950
 6489SOL    HW221307   6.937   5.275   0.877
 6490SOL     OW21308   4.612   3.477   9.244
 6490SOL    HW121309   4.586   3.451   9.155
 6490SOL    HW221310   4.656   3.400   9.280
 6491SOL     OW21311  12.398   6.894   5.406
 6491SOL    HW121312  12.489   6.899   5.433
 6491SOL    HW221313  12.386   6.971   5.349
 6492SOL     OW21314   7.964  10.346  14.315
 6492SOL    HW121315   7.929  10.332  14.403
 6492SOL    HW221316   8.057  10.324  14.322
 6493SOL     OW21317   6.822  11.457   3.854
 6493SOL    HW121318   6.912  11.486   3.842
 6493SOL    HW221319   6.804  11.474   3.946
 6494SOL     OW21320  13.869   5.703   2.430
 6494SOL    HW121321  13.852   5.775   2.491
 6494SOL    HW221322  13.907   5.746   2.353
 6495SOL     OW21323  13.503   5.226   7.440
 6495SOL    HW121324  13.526   5.318   7.429
 6495SOL    HW221325  13.576   5.189   7.490
 6496SOL     OW21326  14.223   9.800   9.616
 6496SOL    HW121327  14.240   9.706   9.615
 6496SOL    HW221328  14.247   9.829   9.528
 6497SOL     OW21329  10.715   3.870   8.032
 6497SOL    HW121330  10.658   3.802   8.069
 6497SOL    HW221331  10.709   3.943   8.093
 6498SOL     OW21332   3.023   6.623   4.490
 6498SOL    HW121333   2.956   6.616   4.422
 6498SOL    HW221334   3.056   6.533   4.501
 6499SOL     OW21335   9.167  13.433   2.798
 6499SOL    HW121336   9.213  13.351   2.816
 6499SOL    HW221337   9.172  13.482   2.881
 6500SOL     OW21338   7.250   8.056  13.366
 6500SOL    HW121339   7.342   8.032  13.355
 6500SOL    HW221340   7.253   8.146  13.401
 6501SOL     OW21341   7.211  13.027   6.962
 6501SOL    HW121342   7.252  13.098   6.913
 6501SOL    HW221343   7.221  13.052   7.054
 6502SOL     OW21344   8.623   2.016   2.863
 6502SOL    HW121345   8.530   1.995   2.863
 6502SOL    HW221346   8.656   1.977   2.944
 6503SOL     OW21347  11.703   7.746  12.403
 6503SOL    HW121348  11.700   7.744  12.499
 6503SOL    HW221349  11.615   7.720  12.376
 6504SOL     OW21350   7.097   3.156  13.049
 6504SOL    HW121351   7.113   3.070  13.089
 6504SOL    HW221352   7.027   3.140  12.986
 6505SOL     OW21353  11.911   1.023  10.300
 6505SOL    HW121354  11.851   1.096  10.318
 6505SOL    HW221355  11.862   0.945  10.327
 6506SOL     OW21356   4.242   8.648   2.712
 6506SOL    HW121357   4.170   8.623   2.770
 6506SOL    HW221358   4.266   8.737   2.740
 6507SOL     OW21359   2.990   1.701  13.124
 6507SOL    HW121360   2.940   1.643  13.182
 6507SOL    HW221361   3.081   1.691  13.154
 6508SOL     OW21362   0.405   1.469  14.282
 6508SOL    HW121363   0.384   1.379  14.260
 6508SOL    HW221364   0.500   1.468  14.298
 6509SOL     OW21365  12.733   5.481   5.746
 6509SOL    HW121366  12.765   5.546   5.683
 6509SOL    HW221367  12.649   5.452   5.710
 6510SOL     OW21368   9.592   0.029  12.276
 6510SOL    HW121369   9.655   0.021  12.347
 6510SOL    HW221370   9.506   0.023  12.319
 6511SOL     OW21371   5.762  13.933   0.257
 6511SOL    HW121372   5.719  13.848   0.251
 6511SOL    HW221373   5.722  13.984   0.186
 6512SOL     OW21374  12.841   1.004   4.593
 6512SOL    HW121375  12.772   0.976   4.532
 6512SOL    HW221376  12.803   1.078   4.640
 6513SOL     OW21377   3.708   7.182   2.482
 6513SOL    HW121378   3.802   7.196   2.489
 6513SOL    HW221379   3.672   7.268   2.464
 6514SOL     OW21380   5.709  13.589  10.087
 6514SOL    HW121381   5.643  13.555  10.147
 6514SOL    HW221382   5.710  13.528  10.014
 6515SOL     OW21383   3.741  11.393  11.520
 6515SOL    HW121384   3.748  11.302  11.550
 6515SOL    HW221385   3.795  11.397  11.441
 6516SOL     OW21386  13.250   8.123  13.271
 6516SOL    HW121387  13.165   8.151  13.237
 6516SOL    HW221388  13.231   8.089  13.359
 6517SOL     OW21389  14.729   0.819  14.803
 6517SOL    HW121390  14.788   0.822  14.728
 6517SOL    HW221391  14.646   0.853  14.770
 6518SOL     OW21392   9.868   2.322  11.023
 6518SOL    HW121393   9.805   2.254  11.048
 6518SOL    HW221394   9.853   2.393  11.085
 6519SOL     OW21395   8.336  12.262   0.770
 6519SOL    HW121396   8.431  12.257   0.759
 6519SOL    HW221397   8.323  12.333   0.833
 6520SOL     OW21398   9.001   7.934  14.305
 6520SOL    HW121399   9.045   7.854  14.276
 6520SOL    HW221400   9.030   7.947  14.395
 6521SOL     OW21401   8.305  11.860   5.151
 6521SOL    HW121402   8.302  11.771   5.115
 6521SOL    HW221403   8.384  11.898   5.113
 6522SOL     OW21404  13.226   8.247   4.747
 6522SOL    HW121405  13.261   8.158   4.750
 6522SOL    HW221406  13.146   8.243   4.799
 6523SOL     OW21407   7.608   9.401   5.092
 6523SOL    HW121408   7.585   9.461   5.164
 6523SOL    HW221409   7.530   9.347   5.080
 6524SOL     OW21410   1.241  12.342   5.456
 6524SOL    HW121411   1.161  12.343   5.509
 6524SOL    HW221412   1.234  12.418   5.399
 6525SOL     OW21413  10.610  13.658   5.946
 6525SOL    HW121414  10.608  13.632   6.038
 6525SOL    HW221415  10.557  13.738   5.943
 6526SOL     OW21416   9.820   1.180  13.915
 6526SOL    HW121417   9.910   1.162  13.940
 6526SOL    HW221418   9.791   1.248  13.977
 6527SOL     OW21419   8.961   2.018   8.718
 6527SOL    HW121420   8.998   2.101   8.748
 6527SOL    HW221421   8.905   2.042   8.644
 6528SOL     OW21422   0.584   1.538   5.174
 6528SOL    HW121423   0.608   1.570   5.261
 6528SOL    HW221424   0.613   1.447   5.173
 6529SOL     OW21425   6.498   8.543   9.055
 6529SOL    HW121426   6.425   8.605   9.065
 6529SOL    HW221427   6.492   8.486   9.132
 6530SOL     OW21428   9.485   8.238  12.516
 6530SOL    HW121429   9.570   8.280  12.505
 6530SOL    HW221430   9.505   8.149  12.547
 6531SOL     OW21431   8.724   5.886   7.835
 6531SOL    HW121432   8.662   5.936   7.889
 6531SOL    HW221433   8.683   5.801   7.823
 6532SOL     OW21434  10.114   2.496   3.532
 6532SOL    HW121435  10.098   2.492   3.626
 6532SOL    HW221436  10.209   2.485   3.523
 6533SOL     OW21437   0.064   3.284   2.297
 6533SOL    HW121438   0.148   3.271   2.341
 6533SOL    HW221439   0.066   3.225   2.222
 6534SOL     OW21440   7.141   1.119   0.173
 6534SOL    HW121441   7.164   1.129   0.265
 6534SOL    HW221442   7.153   1.207   0.136
 6535SOL     OW21443  10.748   1.197   1.091
 6535SOL    HW121444  10.758   1.142   1.013
 6535SOL    HW221445  10.747   1.134   1.163
 6536SOL     OW21446   6.636   4.219   1.417
 6536SOL    HW121447   6.629   4.268   1.335
 6536SOL    HW221448   6.553   4.173   1.425
 6537SOL     OW21449  10.350  10.466   0.378
 6537SOL    HW121450  10.370  10.540   0.321
 6537SOL    HW221451  10.326  10.396   0.317
 6538SOL     OW21452  10.059   9.070   3.730
 6538SOL    HW121453   9.991   9.133   3.756
 6538SOL    HW221454  10.109   9.115   3.662
 6539SOL     OW21455  10.959   1.638   0.869
 6539SOL    HW121456  10.896   1.568   0.853
 6539SOL    HW221457  10.931   1.677   0.952
 6540SOL     OW21458   2.712   0.326  10.887
 6540SOL    HW121459   2.749   0.382  10.819
 6540SOL    HW221460   2.712   0.238  10.849
 6541SOL     OW21461   1.253  13.878   6.712
 6541SOL    HW121462   1.348  13.867   6.704
 6541SOL    HW221463   1.242  13.933   6.789
 6542SOL     OW21464  11.742  10.402   5.422
 6542SOL    HW121465  11.827  10.427   5.385
 6542SOL    HW221466  11.707  10.483   5.459
 6543SOL     OW21467   3.679   6.636   0.684
 6543SOL    HW121468   3.642   6.690   0.614
 6543SOL    HW221469   3.679   6.547   0.649
 6544SOL     OW21470  10.402   3.413   3.773
 6544SOL    HW121471  10.388   3.332   3.822
 6544SOL    HW221472  10.439   3.473   3.838
 6545SOL     OW21473   3.751   2.829   9.576
 6545SOL    HW121474   3.793   2.914   9.563
 6545SOL    HW221475   3.722   2.831   9.667
 6546SOL     OW21476   4.977   0.825   1.806
 6546SOL    HW121477   4.905   0.795   1.862
 6546SOL    HW221478   4.977   0.921   1.817
 6547SOL     OW21479   9.514   9.289  13.871
 6547SOL    HW121480   9.434   9.317  13.827
 6547SOL    HW221481   9.583   9.306  13.808
 6548SOL     OW21482   9.422   3.003  12.504
 6548SOL    HW121483   9.335   3.043  12.512
 6548SOL    HW221484   9.481   3.077  12.489
 6549SOL     OW21485   0.833  12.511   5.044
 6549SOL    HW121486   0.769  12.463   5.096
 6549SOL    HW221487   0.914  12.460   5.053
 6550SOL     OW21488   6.081   7.160   8.290
 6550SOL    HW121489   6.088   7.255   8.290
 6550SOL    HW221490   6.029   7.140   8.212
 6551SOL     OW21491   9.938   4.607   1.963
 6551SOL    HW121492   9.874   4.623   2.032
 6551SOL    HW221493   9.901   4.650   1.886
 6552SOL     OW21494  14.331  10.427  13.341
 6552SOL    HW121495  14.386  10.394  13.412
 6552SOL    HW221496  14.254  10.463  13.385
 6553SOL     OW21497  14.653  13.186   5.035
 6553SOL    HW121498  14.675  13.115   5.096
 6553SOL    HW221499  14.635  13.261   5.092
 6554SOL     OW21500   1.574   4.974   2.314
 6554SOL    HW121501   1.656   5.012   2.280
 6554SOL    HW221502   1.510   4.991   2.245
 6555SOL     OW21503   6.103   0.456   5.412
 6555SOL    HW121504   6.154   0.383   5.446
 6555SOL    HW221505   6.031   0.467   5.475
 6556SOL     OW21506  12.431   0.352   1.364
 6556SOL    HW121507  12.466   0.263   1.370
 6556SOL    HW221508  12.423   0.380   1.455
 6557SOL     OW21509   1.972  13.701  11.855
 6557SOL    HW121510   2.015  13.782  11.884
 6557SOL    HW221511   2.043  13.647  11.821
 6558SOL     OW21512   5.637  13.176   6.397
 6558SOL    HW121513   5.597  13.263   6.396
 6558SOL    HW221514   5.695  13.175   6.320
 6559SOL     OW21515   9.809   8.855   4.973
 6559SOL    HW121516   9.771   8.943   4.967
 6559SOL    HW221517   9.738   8.800   5.006
 6560SOL     OW21518   1.671  12.048   5.646
 6560SOL    HW121519   1.730  11.984   5.685
 6560SOL    HW221520   1.728  12.121   5.622
 6561SOL     OW21521   7.097   1.640   0.277
 6561SOL    HW121522   7.118   1.704   0.345
 6561SOL    HW221523   7.091   1.556   0.323
 6562SOL     OW21524   4.346  12.942   6.385
 6562SOL    HW121525   4.372  12.911   6.472
 6562SOL    HW221526   4.395  12.887   6.324
 6563SOL     OW21527  13.402   7.223  14.644
 6563SOL    HW121528  13.371   7.248  14.731
 6563SOL    HW221529  13.344   7.152  14.617
 6564SOL     OW21530   6.791  12.230   4.186
 6564SOL    HW121531   6.753  12.147   4.213
 6564SOL    HW221532   6.719  12.293   4.192
 6565SOL     OW21533   3.705   7.754   8.277
 6565SOL    HW121534   3.777   7.811   8.252
 6565SOL    HW221535   3.626   7.803   8.254
 6566SOL     OW21536  14.782   8.029  14.727
 6566SOL    HW121537  14.731   8.097  14.684
 6566SOL    HW221538  14.873   8.049  14.704
 6567SOL     OW21539   9.806   5.247  10.826
 6567SOL    HW121540   9.715   5.274  10.817
 6567SOL    HW221541   9.850   5.283  10.749
 6568SOL     OW21542   4.705  12.985   6.226
 6568SOL    HW121543   4.753  13.054   6.272
 6568SOL    HW221544   4.763  12.908   6.232
 6569SOL     OW21545  14.507   2.570   4.895
 6569SOL    HW121546  14.443   2.579   4.825
 6569SOL    HW221547  14.561   2.649   4.888
 6570SOL     OW21548   1.272   8.824  10.864
 6570SOL    HW121549   1.347   8.833  10.923
 6570SOL    HW221550   1.286   8.892  10.797
 6571SOL     OW21551   1.561  13.571  14.038
 6571SOL    HW121552   1.505  13.542  14.110
 6571SOL    HW221553   1.509  13.558  13.959
 6572SOL     OW21554   5.630   3.647   3.042
 6572SOL    HW121555   5.618   3.726   3.095
 6572SOL    HW221556   5.715   3.660   3.000
 6573SOL     OW21557  14.015   1.825   0.684
 6573SOL    HW121558  13.961   1.861   0.613
 6573SOL    HW221559  14.010   1.730   0.672
 6574SOL     OW21560   1.450   3.502   1.075
 6574SOL    HW121561   1.524   3.442   1.068
 6574SOL    HW221562   1.405   3.475   1.155
 6575SOL     OW21563   5.801  14.362  12.646
 6575SOL    HW121564   5.893  14.345  12.624
 6575SOL    HW221565   5.762  14.275  12.652
 6576SOL     OW21566  10.666   0.938   9.580
 6576SOL    HW121567  10.724   0.979   9.515
 6576SOL    HW221568  10.598   1.004   9.596
 6577SOL     OW21569  13.605   8.360   1.824
 6577SOL    HW121570  13.515   8.336   1.848
 6577SOL    HW221571  13.596   8.445   1.781
 6578SOL     OW21572   3.450  13.942  10.079
 6578SOL    HW121573   3.457  14.037  10.073
 6578SOL    HW221574   3.404  13.915   9.999
 6579SOL     OW21575   8.534   9.238   8.895
 6579SOL    HW121576   8.614   9.268   8.938
 6579SOL    HW221577   8.464   9.289   8.936
 6580SOL     OW21578   4.664   1.803   3.431
 6580SOL    HW121579   4.682   1.756   3.512
 6580SOL    HW221580   4.749   1.807   3.387
 6581SOL     OW21581   9.810  12.114   7.701
 6581SOL    HW121582   9.762  12.094   7.620
 6581SOL    HW221583   9.884  12.167   7.672
 6582SOL     OW21584  13.841   7.563   5.184
 6582SOL    HW121585  13.838   7.469   5.166
 6582SOL    HW221586  13.933   7.581   5.203
 6583SOL     OW21587   6.002   3.131   5.991
 6583SOL    HW121588   5.971   3.050   6.031
 6583SOL    HW221589   6.052   3.104   5.915
 6584SOL     OW21590   6.779   4.756   3.118
 6584SOL    HW121591   6.734   4.839   3.132
 6584SOL    HW221592   6.709   4.695   3.092
 6585SOL     OW21593   4.194   5.437  14.045
 6585SOL    HW121594   4.187   5.425  14.139
 6585SOL    HW221595   4.244   5.518  14.035
 6586SOL     OW21596   5.559   0.923   3.319
 6586SOL    HW121597   5.585   0.936   3.228
 6586SOL    HW221598   5.634   0.956   3.370
 6587SOL     OW21599   7.591  12.794   6.497
 6587SOL    HW121600   7.559  12.830   6.415
 6587SOL    HW221601   7.547  12.710   6.506
 6588SOL     OW21602   7.735   1.589   7.196
 6588SOL    HW121603   7.729   1.657   7.130
 6588SOL    HW221604   7.719   1.507   7.149
 6589SOL     OW21605   4.664   4.227   2.875
 6589SOL    HW121606   4.754   4.198   2.891
 6589SOL    HW221607   4.663   4.318   2.904
 6590SOL     OW21608  13.293  14.264   3.710
 6590SOL    HW121609  13.242  14.322   3.653
 6590SOL    HW221610  13.351  14.216   3.650
 6591SOL     OW21611   6.469  13.957   5.243
 6591SOL    HW121612   6.407  13.956   5.171
 6591SOL    HW221613   6.485  13.865   5.263
 6592SOL     OW21614   3.466  10.405   1.598
 6592SOL    HW121615   3.390  10.403   1.657
 6592SOL    HW221616   3.452  10.332   1.538
 6593SOL     OW21617  10.196  10.728   5.314
 6593SOL    HW121618  10.260  10.799   5.319
 6593SOL    HW221619  10.222  10.667   5.383
 6594SOL     OW21620  11.031   9.689  10.662
 6594SOL    HW121621  11.040   9.654  10.750
 6594SOL    HW221622  10.997   9.616  10.610
 6595SOL     OW21623   4.560   1.944   6.786
 6595SOL    HW121624   4.606   2.007   6.731
 6595SOL    HW221625   4.501   1.997   6.840
 6596SOL     OW21626   4.634   1.020   8.144
 6596SOL    HW121627   4.542   1.046   8.150
 6596SOL    HW221628   4.661   1.046   8.056
 6597SOL     OW21629  11.392   4.140   1.124
 6597SOL    HW121630  11.363   4.060   1.081
 6597SOL    HW221631  11.312   4.185   1.149
 6598SOL     OW21632   0.011   4.563   2.611
 6598SOL    HW121633   0.032   4.648   2.572
 6598SOL    HW221634   0.068   4.558   2.688
 6599SOL     OW21635   4.643  13.694  13.046
 6599SOL    HW121636   4.642  13.718  13.139
 6599SOL    HW221637   4.586  13.759  13.005
 6600SOL     OW21638   0.379   3.243   9.648
 6600SOL    HW121639   0.308   3.270   9.707
 6600SOL    HW221640   0.337   3.233   9.563
 6601SOL     OW21641   7.339  14.822  14.448
 6601SOL    HW121642   7.281   0.010  14.488
 6601SOL    HW221643   7.399  14.874  14.394
 6602SOL     OW21644  12.829   7.804   6.772
 6602SOL    HW121645  12.890   7.840   6.836
 6602SOL    HW221646  12.781   7.737   6.820
 6603SOL     OW21647   4.916   5.086   5.117
 6603SOL    HW121648   4.848   5.144   5.151
 6603SOL    HW221649   4.917   5.104   5.023
 6604SOL     OW21650  10.337   8.564   6.947
 6604SOL    HW121651  10.374   8.548   6.860
 6604SOL    HW221652  10.314   8.657   6.946
 6605SOL     OW21653   6.455  11.908  11.748
 6605SOL    HW121654   6.457  11.885  11.840
 6605SOL    HW221655   6.545  11.894  11.718
 6606SOL     OW21656   0.539   6.770  12.507
 6606SOL    HW121657   0.500   6.842  12.458
 6606SOL    HW221658   0.465   6.723  12.545
 6607SOL     OW21659   2.377   3.454  10.578
 6607SOL    HW121660   2.424   3.537  10.572
 6607SOL    HW221661   2.363   3.428  10.488
 6608SOL     OW21662   4.896   4.274   8.914
 6608SOL    HW121663   4.867   4.261   8.824
 6608SOL    HW221664   4.991   4.267   8.910
 6609SOL     OW21665  11.647   3.140   1.648
 6609SOL    HW121666  11.693   3.076   1.704
 6609SOL    HW221667  11.584   3.182   1.706
 6610SOL     OW21668   6.839   8.164   3.159
 6610SOL    HW121669   6.893   8.119   3.094
 6610SOL    HW221670   6.811   8.095   3.219
 6611SOL     OW21671   2.357   4.423  13.402
 6611SOL    HW121672   2.403   4.428  13.485
 6611SOL    HW221673   2.266   4.444  13.423
 6612SOL     OW21674  12.120   1.060  14.653
 6612SOL    HW121675  12.167   1.005  14.590
 6612SOL    HW221676  12.057   1.109  14.600
 6613SOL     OW21677  13.683   9.977  10.432
 6613SOL    HW121678  13.649   9.957  10.345
 6613SOL    HW221679  13.697   9.891  10.473
 6614SOL     OW21680   6.526  11.925  14.126
 6614SOL    HW121681   6.488  11.863  14.188
 6614SOL    HW221682   6.602  11.962  14.172
 6615SOL     OW21683  10.929   7.852   1.117
 6615SOL    HW121684  10.907   7.778   1.173
 6615SOL    HW221685  10.847   7.901   1.108
 6616SOL     OW21686  14.865  11.219   4.564
 6616SOL    HW121687   0.025  11.303   4.593
 6616SOL    HW221688  14.772  11.236   4.551
 6617SOL     OW21689   3.416   9.690   6.579
 6617SOL    HW121690   3.422   9.709   6.673
 6617SOL    HW221691   3.392   9.597   6.575
 6618SOL     OW21692  14.650   5.577   9.316
 6618SOL    HW121693  14.679   5.518   9.385
 6618SOL    HW221694  14.567   5.612   9.348
 6619SOL     OW21695   0.152  14.780  11.372
 6619SOL    HW121696   0.136  14.812  11.283
 6619SOL    HW221697   0.247  14.777  11.380
 6620SOL     OW21698   4.769   5.169   5.559
 6620SOL    HW121699   4.779   5.253   5.603
 6620SOL    HW221700   4.858   5.139   5.543
 6621SOL     OW21701   3.369   6.162  11.968
 6621SOL    HW121702   3.435   6.109  11.923
 6621SOL    HW221703   3.336   6.107  12.038
 6622SOL     OW21704   1.529   5.278  10.680
 6622SOL    HW121705   1.543   5.363  10.723
 6622SOL    HW221706   1.434   5.265  10.684
 6623SOL     OW21707  11.100   4.570  10.518
 6623SOL    HW121708  11.184   4.575  10.565
 6623SOL    HW221709  11.110   4.495  10.460
 6624SOL     OW21710   0.344  13.805   9.900
 6624SOL    HW121711   0.429  13.763   9.889
 6624SOL    HW221712   0.309  13.768   9.981
 6625SOL     OW21713   2.049   3.517   5.833
 6625SOL    HW121714   2.117   3.569   5.877
 6625SOL    HW221715   1.988   3.495   5.903
 6626SOL     OW21716   8.500  12.677   7.425
 6626SOL    HW121717   8.584  12.686   7.378
 6626SOL    HW221718   8.526  12.663   7.516
 6627SOL     OW21719   1.816   7.789   7.688
 6627SOL    HW121720   1.778   7.855   7.631
 6627SOL    HW221721   1.840   7.838   7.768
 6628SOL     OW21722  14.873   5.596  11.713
 6628SOL    HW121723   0.054   5.535  11.759
 6628SOL    HW221724  14.844   5.658  11.780
 6629SOL     OW21725  14.495   1.819   6.934
 6629SOL    HW121726  14.551   1.756   6.887
 6629SOL    HW221727  14.511   1.800   7.026
 6630SOL     OW21728  11.509  14.078   5.621
 6630SOL    HW121729  11.471  14.101   5.706
 6630SOL    HW221730  11.480  14.148   5.562
 6631SOL     OW21731  14.098   3.651   7.084
 6631SOL    HW121732  14.031   3.696   7.033
 6631SOL    HW221733  14.111   3.568   7.038
 6632SOL     OW21734   1.400   6.709   0.332
 6632SOL    HW121735   1.481   6.674   0.368
 6632SOL    HW221736   1.416   6.717   0.238
 6633SOL     OW21737  10.858  11.688   8.934
 6633SOL    HW121738  10.936  11.652   8.977
 6633SOL    HW221739  10.813  11.612   8.898
 6634SOL     OW21740  13.605   0.025   7.493
 6634SOL    HW121741  13.633   0.058   7.578
 6634SOL    HW221742  13.575  14.812   7.511
 6635SOL     OW21743   2.573   6.034   8.725
 6635SOL    HW121744   2.485   6.052   8.690
 6635SOL    HW221745   2.628   6.104   8.690
 6636SOL     OW21746   3.785   7.654   2.566
 6636SOL    HW121747   3.825   7.608   2.492
 6636SOL    HW221748   3.751   7.734   2.528
 6637SOL     OW21749   6.068   2.672   7.336
 6637SOL    HW121750   6.064   2.615   7.260
 6637SOL    HW221751   6.037   2.757   7.304
 6638SOL     OW21752  13.446   2.760   6.865
 6638SOL    HW121753  13.444   2.672   6.901
 6638SOL    HW221754  13.456   2.748   6.771
 6639SOL     OW21755  13.834   3.102  12.864
 6639SOL    HW121756  13.810   3.189  12.897
 6639SOL    HW221757  13.917   3.116  12.819
 6640SOL     OW21758   9.029   3.363  10.613
 6640SOL    HW121759   8.976   3.439  10.635
 6640SOL    HW221760   8.985   3.323  10.539
 6641SOL     OW21761  11.267   6.842   4.433
 6641SOL    HW121762  11.325   6.912   4.464
 6641SOL    HW221763  11.327   6.778   4.395
 6642SOL     OW21764   4.795   5.981   3.315
 6642SOL    HW121765   4.776   5.909   3.254
 6642SOL    HW221766   4.774   5.945   3.402
 6643SOL     OW21767  13.586   5.270  14.711
 6643SOL    HW121768  13.556   5.184  14.739
 6643SOL    HW221769  13.567   5.328  14.785
 6644SOL     OW21770   2.322   5.862   3.584
 6644SOL    HW121771   2.273   5.929   3.632
 6644SOL    HW221772   2.404   5.853   3.632
 6645SOL     OW21773   5.288   1.469   0.860
 6645SOL    HW121774   5.334   1.540   0.814
 6645SOL    HW221775   5.322   1.472   0.949
 6646SOL     OW21776  12.722  12.209   6.376
 6646SOL    HW121777  12.630  12.219   6.400
 6646SOL    HW221778  12.765  12.186   6.459
 6647SOL     OW21779  12.988   9.837   0.735
 6647SOL    HW121780  12.894   9.833   0.754
 6647SOL    HW221781  13.003   9.769   0.670
 6648SOL     OW21782   3.625   5.637   0.738
 6648SOL    HW121783   3.581   5.555   0.761
 6648SOL    HW221784   3.653   5.624   0.648
 6649SOL     OW21785   8.090   7.844   5.207
 6649SOL    HW121786   8.057   7.800   5.285
 6649SOL    HW221787   8.145   7.779   5.164
 6650SOL     OW21788   1.614   5.100   8.686
 6650SOL    HW121789   1.635   5.181   8.640
 6650SOL    HW221790   1.695   5.077   8.733
 6651SOL     OW21791  12.539  13.426  11.080
 6651SOL    HW121792  12.490  13.438  11.161
 6651SOL    HW221793  12.483  13.464  11.012
 6652SOL     OW21794  11.157  14.240  11.003
 6652SOL    HW121795  11.248  14.268  10.994
 6652SOL    HW221796  11.155  14.151  10.966
 6653SOL     OW21797   4.178  14.293  13.874
 6653SOL    HW121798   4.151  14.271  13.785
 6653SOL    HW221799   4.203  14.209  13.913
 6654SOL     OW21800   2.102   9.938   8.480
 6654SOL    HW121801   2.177   9.945   8.421
 6654SOL    HW221802   2.038  10.000   8.446
 6655SOL     OW21803   3.373  14.828   4.776
 6655SOL    HW121804   3.466  14.837   4.800
 6655SOL    HW221805   3.337   0.040   4.786
 6656SOL     OW21806  11.031  12.249   1.872
 6656SOL    HW121807  11.016  12.155   1.867
 6656SOL    HW221808  11.096  12.266   1.804
 6657SOL     OW21809   7.701   3.951  13.292
 6657SOL    HW121810   7.620   3.996  13.269
 6657SOL    HW221811   7.721   3.898  13.215
 6658SOL     OW21812  14.846  12.137   3.799
 6658SOL    HW121813   0.065  12.149   3.803
 6658SOL    HW221814  14.812  12.226   3.785
 6659SOL     OW21815  13.143   1.874  11.048
 6659SOL    HW121816  13.132   1.792  11.000
 6659SOL    HW221817  13.196   1.929  10.990
 6660SOL     OW21818  12.557  11.497   3.666
 6660SOL    HW121819  12.527  11.422   3.615
 6660SOL    HW221820  12.494  11.504   3.738
 6661SOL     OW21821   2.540   7.913  13.415
 6661SOL    HW121822   2.633   7.935  13.404
 6661SOL    HW221823   2.538   7.851  13.487
 6662SOL     OW21824  13.728   5.022   0.723
 6662SOL    HW121825  13.707   4.935   0.755
 6662SOL    HW221826  13.648   5.073   0.735
 6663SOL     OW21827  13.946   1.101   9.844
 6663SOL    HW121828  13.983   1.186   9.819
 6663SOL    HW221829  14.005   1.037   9.805
 6664SOL     OW21830  14.448  13.357   0.397
 6664SOL    HW121831  14.506  13.401   0.458
 6664SOL    HW221832  14.363  13.355   0.441
 6665SOL     OW21833   5.817   9.708   3.152
 6665SOL    HW121834   5.897   9.659   3.136
 6665SOL    HW221835   5.843   9.777   3.213
 6666SOL     OW21836  14.451   8.040   2.948
 6666SOL    HW121837  14.396   7.961   2.951
 6666SOL    HW221838  14.425   8.090   3.024
 6667SOL     OW21839   3.926   8.539  11.333
 6667SOL    HW121840   3.977   8.462  11.358
 6667SOL    HW221841   3.984   8.590  11.276
 6668SOL     OW21842  13.628   3.839   9.974
 6668SOL    HW121843  13.575   3.760   9.965
 6668SOL    HW221844  13.654   3.861   9.884
 6669SOL     OW21845  10.330  13.578   4.778
 6669SOL    HW121846  10.292  13.619   4.856
 6669SOL    HW221847  10.264  13.594   4.709
 6670SOL     OW21848  11.362  12.119  10.071
 6670SOL    HW121849  11.415  12.094   9.996
 6670SOL    HW221850  11.295  12.176  10.035
 6671SOL     OW21851  12.524   2.493   0.699
 6671SOL    HW121852  12.494   2.568   0.648
 6671SOL    HW221853  12.469   2.494   0.777
 6672SOL     OW21854  11.097  14.414   4.059
 6672SOL    HW121855  11.071  14.426   4.150
 6672SOL    HW221856  11.180  14.461   4.052
 6673SOL     OW21857   3.953   1.824   1.616
 6673SOL    HW121858   3.980   1.797   1.703
 6673SOL    HW221859   3.954   1.920   1.618
 6674SOL     OW21860   2.727   2.528   4.904
 6674SOL    HW121861   2.646   2.477   4.909
 6674SOL    HW221862   2.739   2.544   4.811
 6675SOL     OW21863   1.922   2.222   4.074
 6675SOL    HW121864   2.006   2.211   4.119
 6675SOL    HW221865   1.924   2.158   4.003
 6676SOL     OW21866  10.406   7.970   7.451
 6676SOL    HW121867  10.311   7.963   7.437
 6676SOL    HW221868  10.444   7.953   7.364
 6677SOL     OW21869   4.676   9.951   3.858
 6677SOL    HW121870   4.582   9.972   3.857
 6677SOL    HW221871   4.715  10.016   3.799
 6678SOL     OW21872   6.003   9.557   3.772
 6678SOL    HW121873   5.935   9.516   3.825
 6678SOL    HW221874   6.075   9.494   3.772
 6679SOL     OW21875   6.975   6.489  14.778
 6679SOL    HW121876   7.049   6.549  14.769
 6679SOL    HW221877   6.982   6.431  14.702
 6680SOL     OW21878   6.712   5.094   8.282
 6680SOL    HW121879   6.771   5.164   8.256
 6680SOL    HW221880   6.629   5.138   8.301
 6681SOL     OW21881  12.413  14.623  11.208
 6681SOL    HW121882  12.442  14.574  11.285
 6681SOL    HW221883  12.363  14.559  11.157
 6682SOL     OW21884   2.769   8.270   5.393
 6682SOL    HW121885   2.694   8.302   5.443
 6682SOL    HW221886   2.839   8.262   5.458
 6683SOL     OW21887   4.854   0.621  14.174
 6683SOL    HW121888   4.812   0.543  14.139
 6683SOL    HW221889   4.918   0.587  14.238
 6684SOL     OW21890   8.693   7.074  14.309
 6684SOL    HW121891   8.643   7.106  14.234
 6684SOL    HW221892   8.626   7.040  14.369
 6685SOL     OW21893   5.224   7.419  14.508
 6685SOL    HW121894   5.188   7.365  14.578
 6685SOL    HW221895   5.269   7.358  14.450
 6686SOL     OW21896  12.853   4.956   6.215
 6686SOL    HW121897  12.761   4.980   6.204
 6686SOL    HW221898  12.874   4.904   6.138
 6687SOL     OW21899   1.628   7.720   3.358
 6687SOL    HW121900   1.657   7.808   3.381
 6687SOL    HW221901   1.543   7.711   3.402
 6688SOL     OW21902   0.639  12.349  12.507
 6688SOL    HW121903   0.660  12.257  12.487
 6688SOL    HW221904   0.612  12.387  12.424
 6689SOL     OW21905   4.267  13.452  14.107
 6689SOL    HW121906   4.196  13.394  14.135
 6689SOL    HW221907   4.238  13.539  14.134
 6690SOL     OW21908   8.080   3.184   5.538
 6690SOL    HW121909   8.093   3.246   5.466
 6690SOL    HW221910   8.066   3.100   5.494
 6691SOL     OW21911   2.237   2.924   9.088
 6691SOL    HW121912   2.172   2.874   9.039
 6691SOL    HW221913   2.187   2.987   9.139
 6692SOL     OW21914   5.124   3.597   5.448
 6692SOL    HW121915   5.150   3.677   5.403
 6692SOL    HW221916   5.175   3.596   5.529
 6693SOL     OW21917  10.357   4.139   0.826
 6693SOL    HW121918  10.385   4.230   0.827
 6693SOL    HW221919  10.269   4.141   0.863
 6694SOL     OW21920   9.436  14.790   9.627
 6694SOL    HW121921   9.374  14.862   9.623
 6694SOL    HW221922   9.487  14.797   9.546
 6695SOL     OW21923   5.050   0.463  13.167
 6695SOL    HW121924   5.012   0.547  13.143
 6695SOL    HW221925   5.031   0.406  13.092
 6696SOL     OW21926   3.070   2.637   8.809
 6696SOL    HW121927   3.159   2.663   8.786
 6696SOL    HW221928   3.054   2.558   8.758
 6697SOL     OW21929  11.049  11.957   6.393
 6697SOL    HW121930  11.056  12.017   6.468
 6697SOL    HW221931  11.120  11.984   6.334
 6698SOL     OW21932  12.150  11.808   2.557
 6698SOL    HW121933  12.088  11.842   2.494
 6698SOL    HW221934  12.132  11.857   2.638
 6699SOL     OW21935   3.501   3.583   1.249
 6699SOL    HW121936   3.534   3.493   1.251
 6699SOL    HW221937   3.407   3.574   1.266
 6700SOL     OW21938  11.646   7.221  13.592
 6700SOL    HW121939  11.609   7.307  13.571
 6700SOL    HW221940  11.572   7.171  13.627
 6701SOL     OW21941   6.966  11.126   4.823
 6701SOL    HW121942   6.998  11.039   4.797
 6701SOL    HW221943   6.880  11.109   4.863
 6702SOL     OW21944  12.055  10.395   8.263
 6702SOL    HW121945  11.980  10.376   8.321
 6702SOL    HW221946  12.051  10.489   8.248
 6703SOL     OW21947   4.586   7.099  11.165
 6703SOL    HW121948   4.665   7.046  11.156
 6703SOL    HW221949   4.597   7.144  11.249
 6704SOL     OW21950   7.563   5.973   4.938
 6704SOL    HW121951   7.635   6.036   4.938
 6704SOL    HW221952   7.580   5.918   4.861
 6705SOL     OW21953  12.450   7.022   1.108
 6705SOL    HW121954  12.539   7.001   1.136
 6705SOL    HW221955  12.396   6.950   1.142
 6706SOL     OW21956  10.094   3.022   1.455
 6706SOL    HW121957  10.069   2.978   1.536
 6706SOL    HW221958  10.128   3.107   1.482
 6707SOL     OW21959   3.845  12.627   1.114
 6707SOL    HW121960   3.914  12.691   1.099
 6707SOL    HW221961   3.803  12.654   1.195
 6708SOL     OW21962   5.389  13.581  12.128
 6708SOL    HW121963   5.429  13.585  12.041
 6708SOL    HW221964   5.352  13.493  12.132
 6709SOL     OW21965   1.065   2.412  13.705
 6709SOL    HW121966   1.011   2.332  13.704
 6709SOL    HW221967   1.077   2.431  13.798
 6710SOL     OW21968   6.803   2.284   5.415
 6710SOL    HW121969   6.772   2.241   5.335
 6710SOL    HW221970   6.803   2.377   5.393
 6711SOL     OW21971   5.339  14.517  14.155
 6711SOL    HW121972   5.325  14.610  14.173
 6711SOL    HW221973   5.399  14.516  14.081
 6712SOL     OW21974   9.067   7.859  10.943
 6712SOL    HW121975   9.052   7.943  10.987
 6712SOL    HW221976   8.983   7.836  10.904
 6713SOL     OW21977  13.950   6.344   4.472
 6713SOL    HW121978  13.870   6.337   4.524
 6713SOL    HW221979  14.008   6.276   4.507
 6714SOL     OW21980   7.597   3.118  11.114
 6714SOL    HW121981   7.605   3.083  11.203
 6714SOL    HW221982   7.505   3.105  11.092
 6715SOL     OW21983   0.710   3.837   3.325
 6715SOL    HW121984   0.801   3.826   3.354
 6715SOL    HW221985   0.711   3.809   3.233
 6716SOL     OW21986  13.904   1.666   3.101
 6716SOL    HW121987  13.935   1.734   3.161
 6716SOL    HW221988  13.879   1.713   3.022
 6717SOL     OW21989   9.556   2.826  11.565
 6717SOL    HW121990   9.578   2.733  11.575
 6717SOL    HW221991   9.609   2.855  11.491
 6718SOL     OW21992  14.627   3.176   7.263
 6718SOL    HW121993  14.722   3.182   7.250
 6718SOL    HW221994  14.602   3.096   7.217
 6719SOL     OW21995   5.372  14.245  12.874
 6719SOL    HW121996   5.381  14.182  12.946
 6719SOL    HW221997   5.305  14.207  12.818
 6720SOL     OW21998  10.591   8.223   6.326
 6720SOL    HW121999  10.641   8.257   6.252
 6720SOL    HW222000  10.656   8.203   6.393
 6721SOL     OW22001  10.301   8.719   7.533
 6721SOL    HW122002  10.231   8.785   7.526
 6721SOL    HW222003  10.382   8.770   7.523
 6722SOL     OW22004  11.483  14.311   4.875
 6722SOL    HW122005  11.496  14.358   4.793
 6722SOL    HW222006  11.399  14.267   4.864
 6723SOL     OW22007   2.506   6.794   9.176
 6723SOL    HW122008   2.434   6.840   9.133
 6723SOL    HW222009   2.585   6.831   9.136
 6724SOL     OW22010   7.759  11.761  11.392
 6724SOL    HW122011   7.687  11.751  11.455
 6724SOL    HW222012   7.756  11.682  11.339
 6725SOL     OW22013  12.399   5.632   5.167
 6725SOL    HW122014  12.424   5.602   5.079
 6725SOL    HW222015  12.458   5.705   5.185
 6726SOL     OW22016   5.547   1.602  11.513
 6726SOL    HW122017   5.608   1.641  11.451
 6726SOL    HW222018   5.533   1.513  11.480
 6727SOL     OW22019  10.318   8.042   1.943
 6727SOL    HW122020  10.239   8.006   1.984
 6727SOL    HW222021  10.360   8.092   2.012
 6728SOL     OW22022  12.734  14.793  12.639
 6728SOL    HW122023  12.785  14.757  12.712
 6728SOL    HW222024  12.654  14.826  12.679
 6729SOL     OW22025   3.271   0.849  10.314
 6729SOL    HW122026   3.263   0.941  10.289
 6729SOL    HW222027   3.183   0.814  10.305
 6730SOL     OW22028   9.991   0.806  11.430
 6730SOL    HW122029  10.032   0.889  11.406
 6730SOL    HW222030  10.064   0.748  11.448
 6731SOL     OW22031   2.133   3.356   9.195
 6731SOL    HW122032   2.092   3.270   9.203
 6731SOL    HW222033   2.205   3.355   9.258
 6732SOL     OW22034  14.833   6.811   5.959
 6732SOL    HW122035  14.791   6.859   5.888
 6732SOL    HW222036  14.827   6.869   6.035
 6733SOL     OW22037   8.955   5.058   2.552
 6733SOL    HW122038   8.983   5.016   2.633
 6733SOL    HW222039   8.886   5.119   2.579
 6734SOL     OW22040   9.810   0.991  12.393
 6734SOL    HW122041   9.812   0.993  12.297
 6734SOL    HW222042   9.801   0.898  12.415
 6735SOL     OW22043   3.428   3.380  10.123
 6735SOL    HW122044   3.469   3.466  10.126
 6735SOL    HW222045   3.381   3.372  10.206
 6736SOL     OW22046  13.714  11.569   5.251
 6736SOL    HW122047  13.674  11.624   5.184
 6736SOL    HW222048  13.780  11.518   5.204
 6737SOL     OW22049   1.277  10.343  12.027
 6737SOL    HW122050   1.315  10.424  12.060
 6737SOL    HW222051   1.299  10.341  11.934
 6738SOL     OW22052   8.075  12.097  11.219
 6738SOL    HW122053   8.079  12.120  11.126
 6738SOL    HW222054   8.152  12.138  11.257
 6739SOL     OW22055   5.195  10.042   6.840
 6739SOL    HW122056   5.233  10.116   6.888
 6739SOL    HW222057   5.166  10.080   6.757
 6740SOL     OW22058   2.560  13.331   7.942
 6740SOL    HW122059   2.502  13.255   7.949
 6740SOL    HW222060   2.501  13.406   7.937
 6741SOL     OW22061  13.358   9.399   1.796
 6741SOL    HW122062  13.282   9.397   1.738
 6741SOL    HW222063  13.430   9.425   1.738
 6742SOL     OW22064  13.795   8.993   9.121
 6742SOL    HW122065  13.717   8.956   9.081
 6742SOL    HW222066  13.838   8.918   9.163
 6743SOL     OW22067   8.871  12.754   5.281
 6743SOL    HW122068   8.880  12.832   5.226
 6743SOL    HW222069   8.792  12.770   5.333
 6744SOL     OW22070   5.269  10.961  11.324
 6744SOL    HW122071   5.252  10.896  11.256
 6744SOL    HW222072   5.360  10.987  11.309
 6745SOL     OW22073  11.726   6.041  12.786
 6745SOL    HW122074  11.677   6.094  12.723
 6745SOL    HW222075  11.750   6.102  12.856
 6746SOL     OW22076   5.578   3.786   5.871
 6746SOL    HW122077   5.603   3.878   5.880
 6746SOL    HW222078   5.625   3.741   5.941
 6747SOL     OW22079  13.122  12.675  13.311
 6747SOL    HW122080  13.174  12.744  13.271
 6747SOL    HW222081  13.040  12.717  13.335
 6748SOL     OW22082   3.164  10.056   5.783
 6748SOL    HW122083   3.093  10.041   5.845
 6748SOL    HW222084   3.125  10.113   5.716
 6749SOL     OW22085  13.490   4.116   6.218
 6749SOL    HW122086  13.450   4.202   6.201
 6749SOL    HW222087  13.555   4.133   6.286
 6750SOL     OW22088   4.507  10.907  11.943
 6750SOL    HW122089   4.590  10.883  11.901
 6750SOL    HW222090   4.484  10.830  11.994
 6751SOL     OW22091  13.297   7.778   9.983
 6751SOL    HW122092  13.329   7.727   9.908
 6751SOL    HW222093  13.357   7.852   9.988
 6752SOL     OW22094  14.371  10.252   3.868
 6752SOL    HW122095  14.445  10.200   3.838
 6752SOL    HW222096  14.294  10.201   3.843
 6753SOL     OW22097  13.160   2.724   8.370
 6753SOL    HW122098  13.134   2.771   8.290
 6753SOL    HW222099  13.256   2.728   8.369
 6754SOL     OW22100   4.737   2.557   7.463
 6754SOL    HW122101   4.690   2.634   7.431
 6754SOL    HW222102   4.722   2.490   7.397
 6755SOL     OW22103   0.902  10.827   2.061
 6755SOL    HW122104   0.889  10.763   2.132
 6755SOL    HW222105   0.870  10.783   1.983
 6756SOL     OW22106  13.858  12.949  12.835
 6756SOL    HW122107  13.766  12.975  12.837
 6756SOL    HW222108  13.895  12.988  12.914
 6757SOL     OW22109  12.767  14.505  11.387
 6757SOL    HW122110  12.798  14.415  11.389
 6757SOL    HW222111  12.814  14.549  11.457
 6758SOL     OW22112  11.839   8.619   5.873
 6758SOL    HW122113  11.921   8.569   5.873
 6758SOL    HW222114  11.814   8.624   5.965
 6759SOL     OW22115   1.898   3.369  12.239
 6759SOL    HW122116   1.834   3.298  12.234
 6759SOL    HW222117   1.857   3.432  12.299
 6760SOL     OW22118   6.124   8.812   5.045
 6760SOL    HW122119   6.177   8.753   5.099
 6760SOL    HW222120   6.043   8.764   5.029
 6761SOL     OW22121   5.623   3.462   1.870
 6761SOL    HW122122   5.639   3.390   1.932
 6761SOL    HW222123   5.567   3.423   1.803
 6762SOL     OW22124   5.828   7.297  14.869
 6762SOL    HW122125   5.830   7.207  14.838
 6762SOL    HW222126   5.907   7.337  14.833
 6763SOL     OW22127  11.553   3.707  13.117
 6763SOL    HW122128  11.581   3.642  13.052
 6763SOL    HW222129  11.541   3.658  13.198
 6764SOL     OW22130   2.719   6.457  12.774
 6764SOL    HW122131   2.694   6.425  12.687
 6764SOL    HW222132   2.648   6.429  12.831
 6765SOL     OW22133   8.042   8.002   7.381
 6765SOL    HW122134   8.093   8.056   7.442
 6765SOL    HW222135   8.001   8.065   7.321
 6766SOL     OW22136   5.415  10.621   2.020
 6766SOL    HW122137   5.454  10.597   2.104
 6766SOL    HW222138   5.482  10.675   1.977
 6767SOL     OW22139   4.578   9.312   8.232
 6767SOL    HW122140   4.488   9.326   8.260
 6767SOL    HW222141   4.629   9.310   8.312
 6768SOL     OW22142   2.221  11.110   2.326
 6768SOL    HW122143   2.301  11.069   2.359
 6768SOL    HW222144   2.251  11.191   2.285
 6769SOL     OW22145   4.037   2.502   1.818
 6769SOL    HW122146   3.971   2.450   1.864
 6769SOL    HW222147   4.065   2.447   1.745
 6770SOL     OW22148   7.811  11.944   9.296
 6770SOL    HW122149   7.771  12.025   9.264
 6770SOL    HW222150   7.780  11.936   9.386
 6771SOL     OW22151   1.119   0.049   6.800
 6771SOL    HW122152   1.045   0.086   6.849
 6771SOL    HW222153   1.176   0.014   6.868
 6772SOL     OW22154  10.447   9.056   6.726
 6772SOL    HW122155  10.472   9.004   6.803
 6772SOL    HW222156  10.377   9.005   6.685
 6773SOL     OW22157   6.337   8.418   0.031
 6773SOL    HW122158   6.265   8.355   0.035
 6773SOL    HW222159   6.414   8.365   0.012
 6774SOL     OW22160   0.972  13.408  13.181
 6774SOL    HW122161   0.923  13.399  13.099
 6774SOL    HW222162   1.061  13.428  13.154
 6775SOL     OW22163   2.924  14.639  12.345
 6775SOL    HW122164   2.936  14.609  12.435
 6775SOL    HW222165   2.859  14.579  12.308
 6776SOL     OW22166   5.831   8.601   0.160
 6776SOL    HW122167   5.850   8.555   0.242
 6776SOL    HW222168   5.904   8.578   0.102
 6777SOL     OW22169   6.505  11.175   6.330
 6777SOL    HW122170   6.539  11.242   6.390
 6777SOL    HW222171   6.410  11.183   6.337
 6778SOL     OW22172   6.745  13.720   1.024
 6778SOL    HW122173   6.700  13.728   1.109
 6778SOL    HW222174   6.827  13.675   1.045
 6779SOL     OW22175  10.202  14.276   8.426
 6779SOL    HW122176  10.138  14.287   8.496
 6779SOL    HW222177  10.189  14.352   8.369
 6780SOL     OW22178  11.340   5.793   7.201
 6780SOL    HW122179  11.316   5.806   7.293
 6780SOL    HW222180  11.384   5.708   7.199
 6781SOL     OW22181   7.788   9.268  14.453
 6781SOL    HW122182   7.699   9.250  14.483
 6781SOL    HW222183   7.833   9.184  14.461
 6782SOL     OW22184   2.734   1.252  12.850
 6782SOL    HW122185   2.676   1.300  12.789
 6782SOL    HW222186   2.814   1.237  12.799
 6783SOL     OW22187   8.112   2.447   2.676
 6783SOL    HW122188   8.135   2.533   2.640
 6783SOL    HW222189   8.056   2.467   2.751
 6784SOL     OW22190   8.840   1.473  11.295
 6784SOL    HW122191   8.828   1.490  11.202
 6784SOL    HW222192   8.753   1.488  11.333
 6785SOL     OW22193   0.801  10.850   6.374
 6785SOL    HW122194   0.841  10.765   6.361
 6785SOL    HW222195   0.772  10.850   6.465
 6786SOL     OW22196   0.216  11.299   4.366
 6786SOL    HW122197   0.177  11.223   4.409
 6786SOL    HW222198   0.241  11.267   4.279
 6787SOL     OW22199  14.648   6.530   0.405
 6787SOL    HW122200  14.675   6.439   0.414
 6787SOL    HW222201  14.695   6.576   0.474
 6788SOL     OW22202   5.664  11.086   2.416
 6788SOL    HW122203   5.687  11.105   2.507
 6788SOL    HW222204   5.747  11.061   2.375
 6789SOL     OW22205  13.824  14.020  14.753
 6789SOL    HW122206  13.760  14.085  14.784
 6789SOL    HW222207  13.809  14.015  14.658
 6790SOL     OW22208   4.911   3.951   9.297
 6790SOL    HW122209   4.877   3.991   9.217
 6790SOL    HW222210   4.863   3.868   9.305
 6791SOL     OW22211  14.606   9.990   4.901
 6791SOL    HW122212  14.579  10.078   4.875
 6791SOL    HW222213  14.685  10.004   4.953
 6792SOL     OW22214   4.856  10.864  13.498
 6792SOL    HW122215   4.768  10.901  13.507
 6792SOL    HW222216   4.879  10.878  13.407
 6793SOL     OW22217  13.323   6.629  10.846
 6793SOL    HW122218  13.303   6.628  10.939
 6793SOL    HW222219  13.276   6.706  10.812
 6794SOL     OW22220  10.301   0.299   1.907
 6794SOL    HW122221  10.264   0.303   1.818
 6794SOL    HW222222  10.282   0.386   1.944
 6795SOL     OW22223   8.954   9.371   0.691
 6795SOL    HW122224   9.017   9.362   0.762
 6795SOL    HW222225   8.948   9.283   0.653
 6796SOL     OW22226   2.858   7.898  10.006
 6796SOL    HW122227   2.832   7.956  10.077
 6796SOL    HW222228   2.881   7.816  10.049
 6797SOL     OW22229   7.807   0.523  10.465
 6797SOL    HW122230   7.897   0.537  10.435
 6797SOL    HW222231   7.811   0.444  10.519
 6798SOL     OW22232   6.933   8.932  11.285
 6798SOL    HW122233   6.971   8.878  11.215
 6798SOL    HW222234   6.942   9.022  11.253
 6799SOL     OW22235   4.836  12.932   1.114
 6799SOL    HW122236   4.908  12.971   1.164
 6799SOL    HW222237   4.821  12.847   1.156
 6800SOL     OW22238   3.381   9.343   5.760
 6800SOL    HW122239   3.420   9.263   5.795
 6800SOL    HW222240   3.295   9.315   5.727
 6801SOL     OW22241  10.592   3.582   6.147
 6801SOL    HW122242  10.536   3.646   6.106
 6801SOL    HW222243  10.680   3.619   6.141
 6802SOL     OW22244   6.811   1.405  10.213
 6802SOL    HW122245   6.819   1.313  10.239
 6802SOL    HW222246   6.729   1.435  10.253
 6803SOL     OW22247   4.178  10.979   7.397
 6803SOL    HW122248   4.100  11.003   7.447
 6803SOL    HW222249   4.179  11.040   7.323
 6804SOL     OW22250   7.447  10.358   7.438
 6804SOL    HW122251   7.504  10.322   7.506
 6804SOL    HW222252   7.468  10.451   7.436
 6805SOL     OW22253   2.975  13.272   8.816
 6805SOL    HW122254   3.034  13.284   8.891
 6805SOL    HW222255   3.032  13.245   8.744
 6806SOL     OW22256  10.851  13.488   5.421
 6806SOL    HW122257  10.882  13.479   5.511
 6806SOL    HW222258  10.843  13.582   5.406
 6807SOL     OW22259   3.850   7.511   2.808
 6807SOL    HW122260   3.789   7.437   2.810
 6807SOL    HW222261   3.851   7.539   2.716
 6808SOL     OW22262   5.680   7.169  10.948
 6808SOL    HW122263   5.660   7.080  10.919
 6808SOL    HW222264   5.756   7.195  10.895
 6809SOL     OW22265   5.318   7.235   0.308
 6809SOL    HW122266   5.225   7.237   0.285
 6809SOL    HW222267   5.327   7.156   0.362
 6810SOL     OW22268  11.731   6.286   9.295
 6810SOL    HW122269  11.747   6.193   9.311
 6810SOL    HW222270  11.672   6.313   9.365
 6811SOL     OW22271  10.763   4.260   7.878
 6811SOL    HW122272  10.681   4.264   7.928
 6811SOL    HW222273  10.750   4.322   7.806
 6812SOL     OW22274   5.021   1.482  14.103
 6812SOL    HW122275   5.069   1.517  14.178
 6812SOL    HW222276   5.080   1.494  14.029
 6813SOL     OW22277   5.131  10.902   7.682
 6813SOL    HW122278   5.134  10.955   7.602
 6813SOL    HW222279   5.189  10.948   7.743
 6814SOL     OW22280  12.163   8.527  11.201
 6814SOL    HW122281  12.139   8.459  11.139
 6814SOL    HW222282  12.095   8.593  11.192
 6815SOL     OW22283   6.861  10.187   0.598
 6815SOL    HW122284   6.802  10.262   0.604
 6815SOL    HW222285   6.813  10.116   0.641
 6816SOL     OW22286   2.125   3.956   1.742
 6816SOL    HW122287   2.217   3.964   1.767
 6816SOL    HW222288   2.083   4.035   1.776
 6817SOL     OW22289  14.101   4.761   5.123
 6817SOL    HW122290  14.192   4.783   5.142
 6817SOL    HW222291  14.054   4.843   5.137
 6818SOL     OW22292  11.708   3.654   0.749
 6818SOL    HW122293  11.775   3.599   0.791
 6818SOL    HW222294  11.744   3.743   0.752
 6819SOL     OW22295   9.891  10.573  13.524
 6819SOL    HW122296   9.953  10.502  13.514
 6819SOL    HW222297   9.945  10.650  13.540
 6820SOL     OW22298  12.670   0.566   2.225
 6820SOL    HW122299  12.699   0.523   2.145
 6820SOL    HW222300  12.677   0.499   2.293
 6821SOL     OW22301   9.414   7.308   9.887
 6821SOL    HW122302   9.471   7.272   9.819
 6821SOL    HW222303   9.429   7.403   9.883
 6822SOL     OW22304   0.188   1.257   7.091
 6822SOL    HW122305   0.207   1.301   7.173
 6822SOL    HW222306   0.159   1.327   7.032
 6823SOL     OW22307  11.823   5.785   2.290
 6823SOL    HW122308  11.815   5.714   2.354
 6823SOL    HW222309  11.795   5.747   2.207
 6824SOL     OW22310   4.329   6.205   0.250
 6824SOL    HW122311   4.348   6.271   0.183
 6824SOL    HW222312   4.309   6.125   0.200
 6825SOL     OW22313  13.211  13.821  13.194
 6825SOL    HW122314  13.121  13.788  13.199
 6825SOL    HW222315  13.224  13.865  13.278
 6826SOL     OW22316  10.130   5.385  12.460
 6826SOL    HW122317  10.120   5.327  12.384
 6826SOL    HW222318  10.160   5.328  12.530
 6827SOL     OW22319   0.609   2.374   3.936
 6827SOL    HW122320   0.541   2.429   3.975
 6827SOL    HW222321   0.653   2.431   3.873
 6828SOL     OW22322   7.484   8.745   0.554
 6828SOL    HW122323   7.522   8.729   0.640
 6828SOL    HW222324   7.439   8.829   0.564
 6829SOL     OW22325   9.021   9.568   8.815
 6829SOL    HW122326   9.071   9.573   8.897
 6829SOL    HW222327   8.931   9.551   8.843
 6830SOL     OW22328  13.583  10.986   3.629
 6830SOL    HW122329  13.615  10.923   3.694
 6830SOL    HW222330  13.573  11.067   3.679
 6831SOL     OW22331  14.567   4.293   7.943
 6831SOL    HW122332  14.602   4.286   8.032
 6831SOL    HW222333  14.631   4.249   7.889
 6832SOL     OW22334  13.926   5.762   0.884
 6832SOL    HW122335  13.854   5.794   0.831
 6832SOL    HW222336  13.967   5.841   0.920
 6833SOL     OW22337   3.546   5.044   0.725
 6833SOL    HW122338   3.592   4.961   0.719
 6833SOL    HW222339   3.535   5.058   0.819
 6834SOL     OW22340  11.600   6.037   9.585
 6834SOL    HW122341  11.517   5.994   9.607
 6834SOL    HW222342  11.575   6.119   9.543
 6835SOL     OW22343  11.757  11.081   4.423
 6835SOL    HW122344  11.664  11.102   4.436
 6835SOL    HW222345  11.795  11.085   4.510
 6836SOL     OW22346   0.886   8.659   4.135
 6836SOL    HW122347   0.832   8.580   4.140
 6836SOL    HW222348   0.940   8.646   4.057
 6837SOL     OW22349   5.206   1.745  12.594
 6837SOL    HW122350   5.224   1.657  12.561
 6837SOL    HW222351   5.113   1.744  12.617
 6838SOL     OW22352   0.262   9.434   6.713
 6838SOL    HW122353   0.346   9.403   6.678
 6838SOL    HW222354   0.285   9.478   6.794
 6839SOL     OW22355   9.648  11.405   7.830
 6839SOL    HW122356   9.632  11.438   7.742
 6839SOL    HW222357   9.713  11.336   7.819
 6840SOL     OW22358   5.772  12.600   5.444
 6840SOL    HW122359   5.750  12.534   5.379
 6840SOL    HW222360   5.864  12.620   5.428
 6841SOL     OW22361  12.068   1.192  12.632
 6841SOL    HW122362  11.978   1.163  12.652
 6841SOL    HW222363  12.097   1.237  12.712
 6842SOL     OW22364   4.895   3.567  10.918
 6842SOL    HW122365   4.844   3.550  10.998
 6842SOL    HW222366   4.861   3.505  10.854
 6843SOL     OW22367   8.763  13.719   2.432
 6843SOL    HW122368   8.774  13.799   2.484
 6843SOL    HW222369   8.674  13.724   2.399
 6844SOL     OW22370   5.230   1.078   3.705
 6844SOL    HW122371   5.177   0.999   3.699
 6844SOL    HW222372   5.172   1.148   3.676
 6845SOL     OW22373   1.256   5.336   9.176
 6845SOL    HW122374   1.177   5.284   9.167
 6845SOL    HW222375   1.289   5.316   9.264
 6846SOL     OW22376  11.540   3.894  10.976
 6846SOL    HW122377  11.613   3.931  10.927
 6846SOL    HW222378  11.567   3.899  11.068
 6847SOL     OW22379   0.575   1.851   6.467
 6847SOL    HW122380   0.555   1.853   6.561
 6847SOL    HW222381   0.504   1.900   6.426
 6848SOL     OW22382   8.694  12.167   5.959
 6848SOL    HW122383   8.730  12.198   6.042
 6848SOL    HW222384   8.737  12.083   5.944
 6849SOL     OW22385  14.834   7.115  10.977
 6849SOL    HW122386  14.831   7.196  10.926
 6849SOL    HW222387   0.018   7.059  10.929
 6850SOL     OW22388   2.054   3.389  13.174
 6850SOL    HW122389   2.059   3.481  13.199
 6850SOL    HW222390   2.003   3.347  13.243
 6851SOL     OW22391   4.034   7.987   8.896
 6851SOL    HW122392   4.128   7.991   8.881
 6851SOL    HW222393   3.997   7.951   8.815
 6852SOL     OW22394   8.449   9.050   2.913
 6852SOL    HW122395   8.498   9.133   2.917
 6852SOL    HW222396   8.499   8.997   2.850
 6853SOL     OW22397   5.320   9.920  14.396
 6853SOL    HW122398   5.310   9.941  14.489
 6853SOL    HW222399   5.305   9.825  14.391
 6854SOL     OW22400   0.184  13.637  13.822
 6854SOL    HW122401   0.148  13.667  13.738
 6854SOL    HW222402   0.274  13.613  13.802
 6855SOL     OW22403   4.729   4.743   6.666
 6855SOL    HW122404   4.813   4.757   6.622
 6855SOL    HW222405   4.723   4.648   6.676
 6856SOL     OW22406   2.474   7.959  12.227
 6856SOL    HW122407   2.435   7.922  12.149
 6856SOL    HW222408   2.467   7.891  12.293
 6857SOL     OW22409  12.857   8.091   0.545
 6857SOL    HW122410  12.953   8.087   0.550
 6857SOL    HW222411  12.833   8.165   0.601
 6858SOL     OW22412   8.182   7.350   3.039
 6858SOL    HW122413   8.107   7.329   3.094
 6858SOL    HW222414   8.152   7.422   2.983
 6859SOL     OW22415   3.046   1.230   6.001
 6859SOL    HW122416   3.022   1.262   6.087
 6859SOL    HW222417   3.008   1.142   5.996
 6860SOL     OW22418  12.975   1.213   2.048
 6860SOL    HW122419  13.066   1.192   2.029
 6860SOL    HW222420  12.951   1.152   2.119
 6861SOL     OW22421   8.705   7.489   5.962
 6861SOL    HW122422   8.751   7.522   6.039
 6861SOL    HW222423   8.763   7.422   5.927
 6862SOL     OW22424   8.085   4.057   3.458
 6862SOL    HW122425   8.031   4.110   3.400
 6862SOL    HW222426   8.174   4.087   3.442
 6863SOL     OW22427  13.998  12.735   0.162
 6863SOL    HW122428  13.942  12.658   0.171
 6863SOL    HW222429  14.020  12.738   0.069
 6864SOL     OW22430  14.041   4.288   6.089
 6864SOL    HW122431  14.133   4.288   6.064
 6864SOL    HW222432  14.040   4.256   6.179
 6865SOL     OW22433   9.692  13.137  13.003
 6865SOL    HW122434   9.749  13.062  13.019
 6865SOL    HW222435   9.681  13.140  12.908
 6866SOL     OW22436   2.915   3.060   7.278
 6866SOL    HW122437   2.963   2.978   7.293
 6866SOL    HW222438   2.873   3.048   7.193
 6867SOL     OW22439  13.062  11.332   7.750
 6867SOL    HW122440  12.974  11.354   7.779
 6867SOL    HW222441  13.049  11.279   7.671
 6868SOL     OW22442  12.631   2.901  12.129
 6868SOL    HW122443  12.610   2.871  12.040
 6868SOL    HW222444  12.704   2.962  12.117
 6869SOL     OW22445   8.256  13.912   1.942
 6869SOL    HW122446   8.217  13.907   2.029
 6869SOL    HW222447   8.348  13.935   1.958
 6870SOL     OW22448   7.423   8.962   7.149
 6870SOL    HW122449   7.516   8.946   7.129
 6870SOL    HW222450   7.389   8.877   7.175
 6871SOL     OW22451   9.998  13.759  10.724
 6871SOL    HW122452  10.028  13.850  10.725
 6871SOL    HW222453  10.039  13.719  10.801
 6872SOL     OW22454   9.352  12.993   3.028
 6872SOL    HW122455   9.327  13.048   3.103
 6872SOL    HW222456   9.319  12.906   3.050
 6873SOL     OW22457  13.149  10.261   9.825
 6873SOL    HW122458  13.142  10.243   9.732
 6873SOL    HW222459  13.064  10.235   9.861
 6874SOL     OW22460   8.153   4.368   5.670
 6874SOL    HW122461   8.179   4.441   5.614
 6874SOL    HW222462   8.165   4.401   5.759
 6875SOL     OW22463  10.940   9.220   1.322
 6875SOL    HW122464  10.889   9.288   1.277
 6875SOL    HW222465  11.028   9.257   1.329
 6876SOL     OW22466   2.484   1.882   9.613
 6876SOL    HW122467   2.451   1.960   9.569
 6876SOL    HW222468   2.524   1.915   9.694
 6877SOL     OW22469   5.840   5.346  12.484
 6877SOL    HW122470   5.857   5.277  12.420
 6877SOL    HW222471   5.847   5.302  12.569
 6878SOL     OW22472   4.617   7.591   3.974
 6878SOL    HW122473   4.622   7.495   3.978
 6878SOL    HW222474   4.542   7.614   4.029
 6879SOL     OW22475   4.910   4.356  12.231
 6879SOL    HW122476   4.897   4.281  12.173
 6879SOL    HW222477   5.000   4.348  12.262
 6880SOL     OW22478  10.387  14.351   3.480
 6880SOL    HW122479  10.344  14.332   3.397
 6880SOL    HW222480  10.345  14.291   3.543
 6881SOL     OW22481   6.876   0.391   3.029
 6881SOL    HW122482   6.960   0.424   3.062
 6881SOL    HW222483   6.896   0.355   2.943
 6882SOL     OW22484   2.977   9.676   6.915
 6882SOL    HW122485   2.982   9.584   6.889
 6882SOL    HW222486   2.899   9.683   6.969
 6883SOL     OW22487   7.892   7.542   3.033
 6883SOL    HW122488   7.960   7.556   2.967
 6883SOL    HW222489   7.939   7.527   3.115
 6884SOL     OW22490   3.357   1.881   9.244
 6884SOL    HW122491   3.394   1.960   9.205
 6884SOL    HW222492   3.288   1.913   9.302
 6885SOL     OW22493  13.975  10.755   5.746
 6885SOL    HW122494  13.891  10.756   5.791
 6885SOL    HW222495  13.952  10.766   5.653
 6886SOL     OW22496  13.982   9.556   6.247
 6886SOL    HW122497  13.956   9.552   6.155
 6886SOL    HW222498  14.024   9.472   6.265
 6887SOL     OW22499   4.659   9.178  13.615
 6887SOL    HW122500   4.652   9.153  13.523
 6887SOL    HW222501   4.579   9.228  13.633
 6888SOL     OW22502  12.339   6.688   6.735
 6888SOL    HW122503  12.433   6.707   6.741
 6888SOL    HW222504  12.300   6.772   6.710
 6889SOL     OW22505   4.282  11.134   9.635
 6889SOL    HW122506   4.259  11.224   9.613
 6889SOL    HW222507   4.201  11.084   9.626
 6890SOL     OW22508   1.719  10.596  11.867
 6890SOL    HW122509   1.631  10.631  11.875
 6890SOL    HW222510   1.774  10.672  11.848
 6891SOL     OW22511   1.335  11.877  13.983
 6891SOL    HW122512   1.249  11.910  14.009
 6891SOL    HW222513   1.394  11.905  14.053
 6892SOL     OW22514   9.627   3.497  12.748
 6892SOL    HW122515   9.699   3.435  12.733
 6892SOL    HW222516   9.592   3.515  12.661
 6893SOL     OW22517   8.069   4.533  12.464
 6893SOL    HW122518   8.076   4.545  12.370
 6893SOL    HW222519   7.990   4.582  12.489
 6894SOL     OW22520  10.610  10.341   6.075
 6894SOL    HW122521  10.547  10.290   6.126
 6894SOL    HW222522  10.655  10.395   6.139
 6895SOL     OW22523  11.226  12.110   8.646
 6895SOL    HW122524  11.165  12.172   8.685
 6895SOL    HW222525  11.255  12.055   8.718
 6896SOL     OW22526   6.463   9.551   5.178
 6896SOL    HW122527   6.434   9.492   5.248
 6896SOL    HW222528   6.498   9.628   5.223
 6897SOL     OW22529   2.734  14.846  14.707
 6897SOL    HW122530   2.678  14.803  14.642
 6897SOL    HW222531   2.823  14.825  14.679
 6898SOL     OW22532   8.605   2.644  14.583
 6898SOL    HW122533   8.664   2.595  14.527
 6898SOL    HW222534   8.584   2.723  14.532
 6899SOL     OW22535   0.244   0.373   7.101
 6899SOL    HW122536   0.332   0.393   7.070
 6899SOL    HW222537   0.228   0.436   7.172
 6900SOL     OW22538   0.825  13.727   4.617
 6900SOL    HW122539   0.913  13.731   4.581
 6900SOL    HW222540   0.769  13.761   4.547
 6901SOL     OW22541  13.303  13.780   3.438
 6901SOL    HW122542  13.307  13.786   3.533
 6901SOL    HW222543  13.394  13.790   3.410
 6902SOL     OW22544   1.304   9.224  14.769
 6902SOL    HW122545   1.218   9.185  14.786
 6902SOL    HW222546   1.322   9.202  14.677
 6903SOL     OW22547   8.684  10.642   8.580
 6903SOL    HW122548   8.633  10.625   8.659
 6903SOL    HW222549   8.646  10.722   8.543
 6904SOL     OW22550   3.732   9.991   7.843
 6904SOL    HW122551   3.684   9.939   7.778
 6904SOL    HW222552   3.744   9.931   7.916
 6905SOL     OW22553   8.356  14.313   2.437
 6905SOL    HW122554   8.440  14.292   2.477
 6905SOL    HW222555   8.328  14.393   2.480
 6906SOL     OW22556   3.200   3.965   1.260
 6906SOL    HW122557   3.252   3.895   1.301
 6906SOL    HW222558   3.250   3.989   1.183
 6907SOL     OW22559   2.890   4.745   6.661
 6907SOL    HW122560   2.820   4.779   6.717
 6907SOL    HW222561   2.851   4.741   6.573
 6908SOL     OW22562   7.287   1.460   4.402
 6908SOL    HW122563   7.205   1.425   4.367
 6908SOL    HW222564   7.298   1.417   4.487
 6909SOL     OW22565   8.909   2.289   7.539
 6909SOL    HW122566   8.884   2.303   7.447
 6909SOL    HW222567   8.945   2.374   7.567
 6910SOL     OW22568  13.212   6.760   0.235
 6910SOL    HW122569  13.157   6.716   0.170
 6910SOL    HW222570  13.185   6.852   0.231
 6911SOL     OW22571  11.435   9.899  14.363
 6911SOL    HW122572  11.375   9.961  14.323
 6911SOL    HW222573  11.472   9.850  14.290
 6912SOL     OW22574  12.862   0.752   4.378
 6912SOL    HW122575  12.790   0.814   4.388
 6912SOL    HW222576  12.917   0.792   4.310
 6913SOL     OW22577  11.823   2.655   6.797
 6913SOL    HW122578  11.793   2.593   6.864
 6913SOL    HW222579  11.848   2.733   6.847
 6914SOL     OW22580   5.465  11.197  12.522
 6914SOL    HW122581   5.494  11.118  12.567
 6914SOL    HW222582   5.438  11.257  12.593
 6915SOL     OW22583   4.508   0.472   1.418
 6915SOL    HW122584   4.495   0.379   1.437
 6915SOL    HW222585   4.558   0.473   1.337
 6916SOL     OW22586  13.617   7.209   6.084
 6916SOL    HW122587  13.563   7.285   6.065
 6916SOL    HW222588  13.595   7.186   6.174
 6917SOL     OW22589   0.309   6.763   6.948
 6917SOL    HW122590   0.355   6.834   6.993
 6917SOL    HW222591   0.299   6.796   6.858
 6918SOL     OW22592   2.655  12.863   8.508
 6918SOL    HW122593   2.616  12.917   8.577
 6918SOL    HW222594   2.589  12.796   8.490
 6919SOL     OW22595   5.694  13.542  13.253
 6919SOL    HW122596   5.632  13.608  13.222
 6919SOL    HW222597   5.778  13.567  13.215
 6920SOL     OW22598   6.251   7.408   5.694
 6920SOL    HW122599   6.199   7.332   5.720
 6920SOL    HW222600   6.341   7.383   5.714
 6921SOL     OW22601   9.926   1.928   1.822
 6921SOL    HW122602   9.982   1.989   1.870
 6921SOL    HW222603   9.871   1.984   1.767
 6922SOL     OW22604   3.802   4.365   2.594
 6922SOL    HW122605   3.803   4.294   2.530
 6922SOL    HW222606   3.869   4.426   2.564
 6923SOL     OW22607   1.585   9.044   8.961
 6923SOL    HW122608   1.528   9.084   8.896
 6923SOL    HW222609   1.619   9.118   9.012
 6924SOL     OW22610  10.858   4.670   3.058
 6924SOL    HW122611  10.930   4.702   3.112
 6924SOL    HW222612  10.874   4.707   2.972
 6925SOL     OW22613   1.651  14.024   0.958
 6925SOL    HW122614   1.633  14.012   0.865
 6925SOL    HW222615   1.707  14.101   0.962
 6926SOL     OW22616   3.473  10.987   6.948
 6926SOL    HW122617   3.511  10.938   7.021
 6926SOL    HW222618   3.440  11.067   6.989
 6927SOL     OW22619   1.219   8.869   8.921
 6927SOL    HW122620   1.177   8.874   9.007
 6927SOL    HW222621   1.302   8.825   8.937
 6928SOL     OW22622   7.856   8.945  12.075
 6928SOL    HW122623   7.818   8.857  12.073
 6928SOL    HW222624   7.921   8.945  12.004
 6929SOL     OW22625  13.981   7.573  11.234
 6929SOL    HW122626  14.005   7.512  11.164
 6929SOL    HW222627  13.987   7.659  11.193
 6930SOL     OW22628   0.104  12.108  13.472
 6930SOL    HW122629   0.069  12.153  13.396
 6930SOL    HW222630   0.167  12.169  13.510
 6931SOL     OW22631   1.379  11.416   0.976
 6931SOL    HW122632   1.287  11.440   0.966
 6931SOL    HW222633   1.384  11.377   1.064
 6932SOL     OW22634   5.352  10.648  13.899
 6932SOL    HW122635   5.319  10.737  13.881
 6932SOL    HW222636   5.326  10.630  13.989
 6933SOL     OW22637   9.394  13.270   2.947
 6933SOL    HW122638   9.392  13.178   2.971
 6933SOL    HW222639   9.486  13.289   2.929
 6934SOL     OW22640  13.312   1.446   6.366
 6934SOL    HW122641  13.278   1.373   6.314
 6934SOL    HW222642  13.363   1.404   6.435
 6935SOL     OW22643  12.971   4.202   0.221
 6935SOL    HW122644  13.008   4.143   0.156
 6935SOL    HW222645  13.025   4.280   0.217
 6936SOL     OW22646   5.142   9.580   4.061
 6936SOL    HW122647   5.153   9.667   4.024
 6936SOL    HW222648   5.229   9.555   4.092
 6937SOL     OW22649   3.149   8.188   1.699
 6937SOL    HW122650   3.240   8.166   1.721
 6937SOL    HW222651   3.147   8.283   1.700
 6938SOL     OW22652   0.855   7.162   1.180
 6938SOL    HW122653   0.911   7.195   1.250
 6938SOL    HW222654   0.793   7.104   1.224
 6939SOL     OW22655  13.415   8.944  14.730
 6939SOL    HW122656  13.488   8.971  14.787
 6939SOL    HW222657  13.363   8.886  14.786
 6940SOL     OW22658  13.532   6.018  10.424
 6940SOL    HW122659  13.584   5.942  10.450
 6940SOL    HW222660  13.584   6.093  10.451
 6941SOL     OW22661  13.436   0.027   2.171
 6941SOL    HW122662  13.481   0.068   2.245
 6941SOL    HW222663  13.418  14.814   2.201
 6942SOL     OW22664  12.951  13.187  11.635
 6942SOL    HW122665  12.968  13.237  11.556
 6942SOL    HW222666  12.943  13.096  11.606
 6943SOL     OW22667  12.455   2.416  13.582
 6943SOL    HW122668  12.465   2.471  13.659
 6943SOL    HW222669  12.363   2.423  13.558
 6944SOL     OW22670   1.980  11.172  13.084
 6944SOL    HW122671   1.967  11.267  13.084
 6944SOL    HW222672   2.048  11.157  13.019
 6945SOL     OW22673   5.100   6.030  14.486
 6945SOL    HW122674   5.107   5.941  14.451
 6945SOL    HW222675   5.153   6.029  14.566
 6946SOL     OW22676  14.003   9.732  13.231
 6946SOL    HW122677  14.082   9.737  13.283
 6946SOL    HW222678  13.999   9.816  13.185
 6947SOL     OW22679  11.365   1.688  10.930
 6947SOL    HW122680  11.273   1.692  10.958
 6947SOL    HW222681  11.389   1.596  10.942
 6948SOL     OW22682  13.048   3.130   0.833
 6948SOL    HW122683  13.040   3.167   0.920
 6948SOL    HW222684  13.008   3.195   0.775
 6949SOL     OW22685   3.353   7.092   8.524
 6949SOL    HW122686   3.436   7.051   8.549
 6949SOL    HW222687   3.314   7.119   8.607
 6950SOL     OW22688   3.930   7.839  11.441
 6950SOL    HW122689   3.862   7.815  11.504
 6950SOL    HW222690   3.891   7.823  11.356
 6951SOL     OW22691  12.492   6.935  13.707
 6951SOL    HW122692  12.556   6.930  13.778
 6951SOL    HW222693  12.410   6.956  13.750
 6952SOL     OW22694  10.439   9.033   3.080
 6952SOL    HW122695  10.368   9.044   3.016
 6952SOL    HW222696  10.459   8.939   3.077
 6953SOL     OW22697  11.196  14.596  11.936
 6953SOL    HW122698  11.191  14.569  11.844
 6953SOL    HW222699  11.266  14.543  11.973
 6954SOL     OW22700   2.589  10.844   9.680
 6954SOL    HW122701   2.536  10.775   9.720
 6954SOL    HW222702   2.530  10.886   9.617
 6955SOL     OW22703   8.344   3.869   8.817
 6955SOL    HW122704   8.321   3.943   8.873
 6955SOL    HW222705   8.308   3.891   8.731
 6956SOL     OW22706  13.628   3.629  13.923
 6956SOL    HW122707  13.679   3.548  13.932
 6956SOL    HW222708  13.602   3.631  13.831
 6957SOL     OW22709   2.540   8.352  12.529
 6957SOL    HW122710   2.581   8.361  12.443
 6957SOL    HW222711   2.613   8.333  12.588
 6958SOL     OW22712  10.143   4.214  10.126
 6958SOL    HW122713  10.235   4.239  10.130
 6958SOL    HW222714  10.123   4.210  10.032
 6959SOL     OW22715  11.844   2.505   4.793
 6959SOL    HW122716  11.829   2.525   4.700
 6959SOL    HW222717  11.800   2.576   4.840
 6960SOL     OW22718   8.384   7.248   1.632
 6960SOL    HW122719   8.441   7.171   1.620
 6960SOL    HW222720   8.296   7.212   1.635
 6961SOL     OW22721   0.004  13.320  13.042
 6961SOL    HW122722   0.095  13.326  13.012
 6961SOL    HW222723  14.835  13.388  12.993
 6962SOL     OW22724  12.158   6.900   1.479
 6962SOL    HW122725  12.072   6.900   1.521
 6962SOL    HW222726  12.157   6.824   1.421
 6963SOL     OW22727   2.007  12.180   9.419
 6963SOL    HW122728   1.951  12.103   9.408
 6963SOL    HW222729   2.089  12.144   9.454
 6964SOL     OW22730  10.336  12.478  13.797
 6964SOL    HW122731  10.298  12.449  13.880
 6964SOL    HW222732  10.392  12.552  13.820
 6965SOL     OW22733   5.480   5.310   3.622
 6965SOL    HW122734   5.566   5.348   3.604
 6965SOL    HW222735   5.449   5.357   3.700
 6966SOL     OW22736  10.938   5.039  12.552
 6966SOL    HW122737  10.970   5.002  12.634
 6966SOL    HW222738  10.984   5.123  12.543
 6967SOL     OW22739   2.170   6.468  11.098
 6967SOL    HW122740   2.196   6.413  11.172
 6967SOL    HW222741   2.225   6.438  11.026
 6968SOL     OW22742  13.132  10.273   4.124
 6968SOL    HW122743  13.177  10.325   4.191
 6968SOL    HW222744  13.040  10.296   4.134
 6969SOL     OW22745  11.950   8.891   7.637
 6969SOL    HW122746  11.909   8.807   7.614
 6969SOL    HW222747  12.023   8.900   7.576
 6970SOL     OW22748   7.351  10.297  14.478
 6970SOL    HW122749   7.317  10.213  14.510
 6970SOL    HW222750   7.299  10.315  14.400
 6971SOL     OW22751   2.392   4.610   0.900
 6971SOL    HW122752   2.427   4.538   0.953
 6971SOL    HW222753   2.305   4.626   0.936
 6972SOL     OW22754   1.489  10.112  13.950
 6972SOL    HW122755   1.471  10.037  14.006
 6972SOL    HW222756   1.467  10.188  14.003
 6973SOL     OW22757  14.119  13.844  13.709
 6973SOL    HW122758  14.213  13.863  13.711
 6973SOL    HW222759  14.113  13.751  13.732
 6974SOL     OW22760   4.591  10.088   6.086
 6974SOL    HW122761   4.579   9.996   6.110
 6974SOL    HW222762   4.558  10.093   5.996
 6975SOL     OW22763   9.892   6.561   6.529
 6975SOL    HW122764   9.815   6.600   6.487
 6975SOL    HW222765   9.855   6.504   6.597
 6976SOL     OW22766   8.933  11.796  12.673
 6976SOL    HW122767   8.975  11.775  12.590
 6976SOL    HW222768   8.919  11.891  12.669
 6977SOL     OW22769   2.266   1.573   8.655
 6977SOL    HW122770   2.259   1.557   8.749
 6977SOL    HW222771   2.297   1.663   8.648
 6978SOL     OW22772  10.850   9.893   4.774
 6978SOL    HW122773  10.801   9.932   4.846
 6978SOL    HW222774  10.874   9.806   4.806
 6979SOL     OW22775   7.332  10.865   4.719
 6979SOL    HW122776   7.240  10.853   4.695
 6979SOL    HW222777   7.360  10.942   4.670
 6980SOL     OW22778  11.870  11.947   6.968
 6980SOL    HW122779  11.856  11.969   6.876
 6980SOL    HW222780  11.957  11.980   6.989
 6981SOL     OW22781   3.867   7.731   1.868
 6981SOL    HW122782   3.948   7.772   1.836
 6981SOL    HW222783   3.828   7.692   1.790
 6982SOL     OW22784   9.267   7.908   6.423
 6982SOL    HW122785   9.338   7.966   6.451
 6982SOL    HW222786   9.269   7.835   6.486
 6983SOL     OW22787   7.834   6.821   7.627
 6983SOL    HW122788   7.780   6.860   7.695
 6983SOL    HW222789   7.798   6.856   7.545
 6984SOL     OW22790   4.274  10.492   4.694
 6984SOL    HW122791   4.289  10.405   4.657
 6984SOL    HW222792   4.343  10.546   4.655
 6985SOL     OW22793   5.489  13.290   2.923
 6985SOL    HW122794   5.571  13.291   2.873
 6985SOL    HW222795   5.432  13.353   2.878
 6986SOL     OW22796   3.092  11.483   1.738
 6986SOL    HW122797   3.005  11.517   1.719
 6986SOL    HW222798   3.111  11.515   1.827
 6987SOL     OW22799   6.286  13.093  11.626
 6987SOL    HW122800   6.262  13.097  11.718
 6987SOL    HW222801   6.369  13.045  11.625
 6988SOL     OW22802  14.738   9.999   5.459
 6988SOL    HW122803  14.756  10.059   5.531
 6988SOL    HW222804  14.694   9.925   5.500
 6989SOL     OW22805  10.997   6.630   2.576
 6989SOL    HW122806  11.055   6.571   2.625
 6989SOL    HW222807  10.934   6.661   2.641
 6990SOL     OW22808   3.616   7.898   9.959
 6990SOL    HW122809   3.602   7.838  10.032
 6990SOL    HW222810   3.695   7.946   9.982
 6991SOL     OW22811   6.106   6.967   2.103
 6991SOL    HW122812   6.056   6.940   2.026
 6991SOL    HW222813   6.192   6.992   2.069
 6992SOL     OW22814   8.177   3.351  10.225
 6992SOL    HW122815   8.217   3.265  10.215
 6992SOL    HW222816   8.229   3.393  10.294
 6993SOL     OW22817  11.091   0.280   9.523
 6993SOL    HW122818  11.157   0.313   9.462
 6993SOL    HW222819  11.116   0.189   9.538
 6994SOL     OW22820  13.934   1.295   1.597
 6994SOL    HW122821  13.902   1.374   1.553
 6994SOL    HW222822  13.870   1.228   1.574
 6995SOL     OW22823   2.183  10.276   9.599
 6995SOL    HW122824   2.239  10.319   9.535
 6995SOL    HW222825   2.172  10.187   9.565
 6996SOL     OW22826   1.921   3.888   9.411
 6996SOL    HW122827   1.855   3.820   9.418
 6996SOL    HW222828   1.888   3.959   9.467
 6997SOL     OW22829   4.672   2.326   4.350
 6997SOL    HW122830   4.613   2.297   4.280
 6997SOL    HW222831   4.678   2.421   4.338
 6998SOL     OW22832  13.016  14.469  12.154
 6998SOL    HW122833  13.023  14.404  12.224
 6998SOL    HW222834  13.107  14.488  12.131
 6999SOL     OW22835   8.610   7.084   2.584
 6999SOL    HW122836   8.594   7.110   2.675
 6999SOL    HW222837   8.590   6.990   2.582
 7000SOL     OW22838   9.495   8.417  14.742
 7000SOL    HW122839   9.492   8.433  14.836
 7000SOL    HW222840   9.583   8.443  14.716
 7001SOL     OW22841   1.458   0.443   5.680
 7001SOL    HW122842   1.407   0.403   5.609
 7001SOL    HW222843   1.549   0.440   5.650
 7002SOL     OW22844   7.507  11.720  13.628
 7002SOL    HW122845   7.504  11.747  13.536
 7002SOL    HW222846   7.423  11.747  13.664
 7003SOL     OW22847   9.193  11.748  14.577
 7003SOL    HW122848   9.275  11.699  14.576
 7003SOL    HW222849   9.133  11.697  14.522
 7004SOL     OW22850   7.182  14.392   3.737
 7004SOL    HW122851   7.256  14.389   3.798
 7004SOL    HW222852   7.179  14.304   3.698
 7005SOL     OW22853  12.464  13.007  14.045
 7005SOL    HW122854  12.438  13.027  13.955
 7005SOL    HW222855  12.534  12.943  14.036
 7006SOL     OW22856   7.387   5.340   0.784
 7006SOL    HW122857   7.461   5.284   0.760
 7006SOL    HW222858   7.334   5.344   0.705
 7007SOL     OW22859   2.226   2.459  14.426
 7007SOL    HW122860   2.148   2.436  14.374
 7007SOL    HW222861   2.266   2.374  14.448
 7008SOL     OW22862   0.692  13.857  10.432
 7008SOL    HW122863   0.638  13.819  10.362
 7008SOL    HW222864   0.746  13.922  10.387
 7009SOL     OW22865  11.503  14.569  10.667
 7009SOL    HW122866  11.484  14.663  10.673
 7009SOL    HW222867  11.545  14.558  10.582
 7010SOL     OW22868   9.321   2.968   3.046
 7010SOL    HW122869   9.375   2.988   2.970
 7010SOL    HW222870   9.236   3.008   3.027
 7011SOL     OW22871   6.801   6.883   0.967
 7011SOL    HW122872   6.840   6.967   0.991
 7011SOL    HW222873   6.819   6.825   1.041
 7012SOL     OW22874   4.574   6.311   1.178
 7012SOL    HW122875   4.627   6.285   1.254
 7012SOL    HW222876   4.526   6.232   1.154
 7013SOL     OW22877  12.851  10.657  12.263
 7013SOL    HW122878  12.863  10.584  12.202
 7013SOL    HW222879  12.758  10.654  12.286
 7014SOL     OW22880   5.922   2.539  14.222
 7014SOL    HW122881   5.948   2.612  14.166
 7014SOL    HW222882   5.947   2.461  14.173
 7015SOL     OW22883  12.898   9.899   6.282
 7015SOL    HW122884  12.930   9.853   6.359
 7015SOL    HW222885  12.805   9.915   6.300
 7016SOL     OW22886   2.748  11.227   5.552
 7016SOL    HW122887   2.794  11.311   5.549
 7016SOL    HW222888   2.797  11.171   5.491
 7017SOL     OW22889   9.873  11.595   6.397
 7017SOL    HW122890   9.911  11.682   6.414
 7017SOL    HW222891   9.787  11.613   6.361
 7018SOL     OW22892   0.105   5.050   0.342
 7018SOL    HW122893   0.151   5.020   0.264
 7018SOL    HW222894   0.014   5.026   0.326
 7019SOL     OW22895   9.885   8.317  14.182
 7019SOL    HW122896   9.825   8.378  14.138
 7019SOL    HW222897   9.955   8.302  14.118
 7020SOL     OW22898  13.818   3.813  14.587
 7020SOL    HW122899  13.746   3.760  14.551
 7020SOL    HW222900  13.882   3.817  14.516
 7021SOL     OW22901   8.121   9.944   3.858
 7021SOL    HW122902   8.032   9.934   3.892
 7021SOL    HW222903   8.178   9.928   3.933
 7022SOL     OW22904   6.518  13.155  14.031
 7022SOL    HW122905   6.515  13.244  14.066
 7022SOL    HW222906   6.551  13.102  14.104
 7023SOL     OW22907  10.316  14.844  11.551
 7023SOL    HW122908  10.361   0.027  11.490
 7023SOL    HW222909  10.387  14.795  11.593
 7024SOL     OW22910  11.065  11.856   9.421
 7024SOL    HW122911  11.056  11.851   9.516
 7024SOL    HW222912  11.070  11.765   9.393
 7025SOL     OW22913   9.005   0.025   1.843
 7025SOL    HW122914   9.070  14.836   1.817
 7025SOL    HW222915   9.031   0.104   1.796
 7026SOL     OW22916   5.238   6.437   7.617
 7026SOL    HW122917   5.162   6.382   7.632
 7026SOL    HW222918   5.210   6.500   7.551
 7027SOL     OW22919  10.960   9.494  13.814
 7027SOL    HW122920  11.008   9.541  13.746
 7027SOL    HW222921  11.020   9.492  13.889
 7028SOL     OW22922  12.836  10.399   6.086
 7028SOL    HW122923  12.805  10.313   6.114
 7028SOL    HW222924  12.903  10.423   6.151
 7029SOL     OW22925   2.713   5.585   1.707
 7029SOL    HW122926   2.734   5.509   1.654
 7029SOL    HW222927   2.634   5.561   1.754
 7030SOL     OW22928   3.701   9.125  10.414
 7030SOL    HW122929   3.731   9.178  10.340
 7030SOL    HW222930   3.765   9.054  10.419
 7031SOL     OW22931   0.301   1.094   2.039
 7031SOL    HW122932   0.391   1.100   2.008
 7031SOL    HW222933   0.300   1.145   2.120
 7032SOL     OW22934  11.038   6.498   8.360
 7032SOL    HW122935  10.984   6.564   8.404
 7032SOL    HW222936  10.975   6.442   8.316
 7033SOL     OW22937   0.182   2.345   6.169
 7033SOL    HW122938   0.094   2.354   6.133
 7033SOL    HW222939   0.169   2.313   6.258
 7034SOL     OW22940   9.307   5.533   0.521
 7034SOL    HW122941   9.329   5.611   0.572
 7034SOL    HW222942   9.361   5.463   0.559
 7035SOL     OW22943  13.545   9.422  13.092
 7035SOL    HW122944  13.550   9.489  13.024
 7035SOL    HW222945  13.636   9.411  13.120
 7036SOL     OW22946  13.358   2.017  10.704
 7036SOL    HW122947  13.394   2.105  10.706
 7036SOL    HW222948  13.423   1.963  10.749
 7037SOL     OW22949   1.215   6.261   8.309
 7037SOL    HW122950   1.184   6.336   8.258
 7037SOL    HW222951   1.294   6.293   8.353
 7038SOL     OW22952   2.128   4.877  11.611
 7038SOL    HW122953   2.159   4.963  11.584
 7038SOL    HW222954   2.093   4.838  11.531
 7039SOL     OW22955  12.013   6.839   8.385
 7039SOL    HW122956  12.029   6.803   8.297
 7039SOL    HW222957  12.042   6.770   8.445
 7040SOL     OW22958   7.066   4.953   4.989
 7040SOL    HW122959   7.141   4.998   5.027
 7040SOL    HW222960   7.103   4.883   4.936
 7041SOL     OW22961   2.325  11.179   2.763
 7041SOL    HW122962   2.241  11.221   2.778
 7041SOL    HW222963   2.324  11.101   2.818
 7042SOL     OW22964   6.506  10.240   9.375
 7042SOL    HW122965   6.532  10.332   9.371
 7042SOL    HW222966   6.491  10.215   9.284
 7043SOL     OW22967   7.084   4.576  10.079
 7043SOL    HW122968   7.148   4.574  10.150
 7043SOL    HW222969   7.003   4.542  10.118
 7044SOL     OW22970  10.250  12.370   7.530
 7044SOL    HW122971  10.230  12.463   7.540
 7044SOL    HW222972  10.341  12.368   7.500
 7045SOL     OW22973   1.040   5.610  11.773
 7045SOL    HW122974   1.056   5.546  11.704
 7045SOL    HW222975   0.956   5.582  11.811
 7046SOL     OW22976   2.040   2.758  13.884
 7046SOL    HW122977   2.017   2.668  13.860
 7046SOL    HW222978   1.981   2.813  13.831
 7047SOL     OW22979   9.553   2.186  10.656
 7047SOL    HW122980   9.506   2.140  10.586
 7047SOL    HW222981   9.599   2.117  10.704
 7048SOL     OW22982   4.568   9.864   8.678
 7048SOL    HW122983   4.476   9.891   8.669
 7048SOL    HW222984   4.564   9.785   8.733
 7049SOL     OW22985   5.555   9.058   2.961
 7049SOL    HW122986   5.482   9.059   2.898
 7049SOL    HW222987   5.513   9.060   3.046
 7050SOL     OW22988  11.358   4.572  10.584
 7050SOL    HW122989  11.402   4.521  10.517
 7050SOL    HW222990  11.380   4.528  10.666
 7051SOL     OW22991  14.566   7.320  10.952
 7051SOL    HW122992  14.474   7.296  10.943
 7051SOL    HW222993  14.586   7.307  11.044
 7052SOL     OW22994  12.027   1.852   6.620
 7052SOL    HW122995  12.081   1.894   6.552
 7052SOL    HW222996  12.046   1.758   6.610
 7053SOL     OW22997   8.253  11.549   0.900
 7053SOL    HW122998   8.256  11.580   0.809
 7053SOL    HW222999   8.336  11.504   0.913
 7054SOL     OW23000   2.485  14.287   0.918
 7054SOL    HW123001   2.530  14.271   0.834
 7054SOL    HW223002   2.487  14.202   0.962
 7055SOL     OW23003  11.085   1.720   4.790
 7055SOL    HW123004  11.005   1.695   4.837
 7055SOL    HW223005  11.057   1.731   4.700
 7056SOL     OW23006   8.061   1.769  10.158
 7056SOL    HW123007   7.990   1.732  10.210
 7056SOL    HW223008   8.121   1.807  10.223
 7057SOL     OW23009  10.558   4.792  14.043
 7057SOL    HW123010  10.597   4.706  14.028
 7057SOL    HW223011  10.615   4.833  14.108
 7058SOL     OW23012   3.555   3.219  11.992
 7058SOL    HW123013   3.547   3.314  11.986
 7058SOL    HW223014   3.519   3.186  11.910
 7059SOL     OW23015   6.241   2.272   0.649
 7059SOL    HW123016   6.277   2.350   0.608
 7059SOL    HW223017   6.204   2.221   0.577
 7060SOL     OW23018   5.099   7.800  13.591
 7060SOL    HW123019   5.101   7.742  13.514
 7060SOL    HW223020   5.061   7.882  13.559
 7061SOL     OW23021   9.894   7.617   2.394
 7061SOL    HW123022   9.854   7.559   2.459
 7061SOL    HW223023   9.890   7.567   2.312
 7062SOL     OW23024   1.170  13.549  10.928
 7062SOL    HW123025   1.218  13.540  11.010
 7062SOL    HW223026   1.135  13.461  10.910
 7063SOL     OW23027   9.465   0.701  14.396
 7063SOL    HW123028   9.527   0.733  14.330
 7063SOL    HW223029   9.400   0.771  14.404
 7064SOL     OW23030   0.747   1.045   5.436
 7064SOL    HW123031   0.787   1.117   5.485
 7064SOL    HW223032   0.694   0.999   5.501
 7065SOL     OW23033   7.221  12.599  13.796
 7065SOL    HW123034   7.219  12.559  13.883
 7065SOL    HW223035   7.139  12.572  13.755
 7066SOL     OW23036  13.984   7.004   4.087
 7066SOL    HW123037  13.966   6.977   3.997
 7066SOL    HW223038  14.073   7.038   4.085
 7067SOL     OW23039  14.487  11.133   6.608
 7067SOL    HW123040  14.488  11.225   6.581
 7067SOL    HW223041  14.578  11.113   6.628
 7068SOL     OW23042   8.900   9.955  11.317
 7068SOL    HW123043   8.978   9.903  11.334
 7068SOL    HW223044   8.887  10.007  11.397
 7069SOL     OW23045  13.187   6.983   7.379
 7069SOL    HW123046  13.212   6.891   7.367
 7069SOL    HW223047  13.142   6.985   7.464
 7070SOL     OW23048  12.535   8.531   0.927
 7070SOL    HW123049  12.454   8.580   0.909
 7070SOL    HW223050  12.539   8.525   1.023
 7071SOL     OW23051   5.331   6.684   0.308
 7071SOL    HW123052   5.241   6.683   0.277
 7071SOL    HW223053   5.380   6.636   0.242
 7072SOL     OW23054   3.345  11.815   7.982
 7072SOL    HW123055   3.304  11.741   8.028
 7072SOL    HW223056   3.289  11.830   7.906
 7073SOL     OW23057   8.701   1.445   5.919
 7073SOL    HW123058   8.622   1.499   5.918
 7073SOL    HW223059   8.694   1.392   5.840
 7074SOL     OW23060   0.517  10.746  10.867
 7074SOL    HW123061   0.446  10.739  10.932
 7074SOL    HW223062   0.585  10.687  10.899
 7075SOL     OW23063   1.675  14.780   5.416
 7075SOL    HW123064   1.759  14.785   5.461
 7075SOL    HW223065   1.629  14.707   5.458
 7076SOL     OW23066  13.085   0.381   1.657
 7076SOL    HW123067  13.112   0.312   1.596
 7076SOL    HW223068  13.147   0.452   1.640
 7077SOL     OW23069   3.103   4.658  13.915
 7077SOL    HW123070   3.127   4.745  13.949
 7077SOL    HW223071   3.178   4.603  13.938
 7078SOL     OW23072  12.651   4.033   3.090
 7078SOL    HW123073  12.628   4.126   3.092
 7078SOL    HW223074  12.586   3.991   3.146
 7079SOL     OW23075   1.572   4.663  10.503
 7079SOL    HW123076   1.566   4.654  10.408
 7079SOL    HW223077   1.662   4.639  10.524
 7080SOL     OW23078   2.239  12.732   2.780
 7080SOL    HW123079   2.194  12.786   2.845
 7080SOL    HW223080   2.172  12.708   2.717
 7081SOL     OW23081   0.223   7.652   2.340
 7081SOL    HW123082   0.237   7.742   2.371
 7081SOL    HW223083   0.255   7.653   2.250
 7082SOL     OW23084  13.719   6.949   6.235
 7082SOL    HW123085  13.747   7.036   6.265
 7082SOL    HW223086  13.623   6.954   6.236
 7083SOL     OW23087   4.962   0.937   5.914
 7083SOL    HW123088   4.972   1.016   5.861
 7083SOL    HW223089   5.040   0.934   5.969
 7084SOL     OW23090   2.378   0.665  10.643
 7084SOL    HW123091   2.430   0.671  10.563
 7084SOL    HW223092   2.368   0.755  10.673
 7085SOL     OW23093  10.686  13.023   8.739
 7085SOL    HW123094  10.736  13.072   8.673
 7085SOL    HW223095  10.613  12.985   8.689
 7086SOL     OW23096   8.613   1.760  14.731
 7086SOL    HW123097   8.626   1.665  14.720
 7086SOL    HW223098   8.552   1.784  14.662
 7087SOL     OW23099   6.507   7.563   2.647
 7087SOL    HW123100   6.514   7.471   2.624
 7087SOL    HW223101   6.422   7.571   2.690
 7088SOL     OW23102   7.017   6.019   1.469
 7088SOL    HW123103   6.955   6.042   1.400
 7088SOL    HW223104   7.083   5.965   1.425
 7089SOL     OW23105   4.823   1.262  10.109
 7089SOL    HW123106   4.891   1.326  10.085
 7089SOL    HW223107   4.851   1.181  10.066
 7090SOL     OW23108  12.180   7.566   9.900
 7090SOL    HW123109  12.094   7.534   9.873
 7090SOL    HW223110  12.196   7.642   9.843
 7091SOL     OW23111  10.039  14.402   9.417
 7091SOL    HW123112   9.962  14.458   9.425
 7091SOL    HW223113  10.035  14.344   9.492
 7092SOL     OW23114  14.326   7.319   3.078
 7092SOL    HW123115  14.286   7.402   3.053
 7092SOL    HW223116  14.338   7.272   2.995
 7093SOL     OW23117   3.811   3.877   4.822
 7093SOL    HW123118   3.778   3.954   4.777
 7093SOL    HW223119   3.848   3.910   4.904
 7094SOL     OW23120  14.052   7.105  13.661
 7094SOL    HW123121  14.008   7.076  13.582
 7094SOL    HW223122  14.143   7.116  13.636
 7095SOL     OW23123   0.668  11.294   2.644
 7095SOL    HW123124   0.623  11.315   2.726
 7095SOL    HW223125   0.609  11.234   2.599
 7096SOL     OW23126   1.005  12.806   6.846
 7096SOL    HW123127   1.033  12.755   6.769
 7096SOL    HW223128   1.080  12.864   6.863
 7097SOL     OW23129   3.095   2.697   9.584
 7097SOL    HW123130   3.175   2.749   9.595
 7097SOL    HW223131   3.117   2.613   9.623
 7098SOL     OW23132   6.021   5.150   5.054
 7098SOL    HW123133   5.977   5.172   5.136
 7098SOL    HW223134   6.085   5.220   5.042
 7099SOL     OW23135  11.763  12.718   6.019
 7099SOL    HW123136  11.854  12.724   5.989
 7099SOL    HW223137  11.770  12.705   6.114
 7100SOL     OW23138   2.574   3.868  10.968
 7100SOL    HW123139   2.513   3.941  10.977
 7100SOL    HW223140   2.551   3.810  11.041
 7101SOL     OW23141  11.003   2.418   8.132
 7101SOL    HW123142  10.965   2.383   8.213
 7101SOL    HW223143  11.096   2.394   8.137
 7102SOL     OW23144   2.043   5.218   3.636
 7102SOL    HW123145   2.096   5.286   3.596
 7102SOL    HW223146   2.105   5.148   3.658
 7103SOL     OW23147   3.557   7.821  11.783
 7103SOL    HW123148   3.512   7.814  11.867
 7103SOL    HW223149   3.489   7.803  11.718
 7104SOL     OW23150   8.074  10.345  11.860
 7104SOL    HW123151   7.980  10.364  11.854
 7104SOL    HW223152   8.088  10.320  11.951
 7105SOL     OW23153  11.321   0.301  10.819
 7105SOL    HW123154  11.300   0.292  10.912
 7105SOL    HW223155  11.416   0.313  10.817
 7106SOL     OW23156   0.389   0.649  11.234
 7106SOL    HW123157   0.440   0.589  11.289
 7106SOL    HW223158   0.439   0.653  11.152
 7107SOL     OW23159   0.811   0.732   3.566
 7107SOL    HW123160   0.860   0.812   3.584
 7107SOL    HW223161   0.877   0.663   3.564
 7108SOL     OW23162   9.280  12.355  14.459
 7108SOL    HW123163   9.314  12.355  14.548
 7108SOL    HW223164   9.314  12.436  14.420
 7109SOL     OW23165   3.035   1.174  14.793
 7109SOL    HW123166   3.019   1.083  14.817
 7109SOL    HW223167   3.047   1.218   0.001
 7110SOL     OW23168   7.786   5.838   8.667
 7110SOL    HW123169   7.765   5.800   8.582
 7110SOL    HW223170   7.704   5.832   8.717
 7111SOL     OW23171   3.849   7.716  10.567
 7111SOL    HW123172   3.892   7.791  10.608
 7111SOL    HW223173   3.921   7.660  10.538
 7112SOL     OW23174   1.513   0.066   8.687
 7112SOL    HW123175   1.600   0.028   8.677
 7112SOL    HW223176   1.506   0.129   8.616
 7113SOL     OW23177   4.609   4.500   9.253
 7113SOL    HW123178   4.628   4.549   9.174
 7113SOL    HW223179   4.515   4.480   9.247
 7114SOL     OW23180   9.328  13.587   2.995
 7114SOL    HW123181   9.246  13.595   3.044
 7114SOL    HW223182   9.350  13.494   3.000
 7115SOL     OW23183   1.681   9.387  10.785
 7115SOL    HW123184   1.689   9.432  10.701
 7115SOL    HW223185   1.738   9.435  10.845
 7116SOL     OW23186   5.371   1.256  10.423
 7116SOL    HW123187   5.322   1.225  10.499
 7116SOL    HW223188   5.415   1.336  10.452
 7117SOL     OW23189   6.144   2.489   6.008
 7117SOL    HW123190   6.174   2.501   5.917
 7117SOL    HW223191   6.057   2.528   6.010
 7118SOL     OW23192   9.284   1.267   7.350
 7118SOL    HW123193   9.240   1.217   7.282
 7118SOL    HW223194   9.356   1.210   7.379
 7119SOL     OW23195   1.663  12.914  12.618
 7119SOL    HW123196   1.748  12.899  12.659
 7119SOL    HW223197   1.638  13.001  12.646
 7120SOL     OW23198   1.213   8.016   1.660
 7120SOL    HW123199   1.207   8.098   1.611
 7120SOL    HW223200   1.264   8.038   1.738
 7121SOL     OW23201   9.435  13.296  11.152
 7121SOL    HW123202   9.507  13.278  11.212
 7121SOL    HW223203   9.371  13.227  11.170
 7122SOL     OW23204  14.796   1.476   6.111
 7122SOL    HW123205  14.704   1.499   6.101
 7122SOL    HW223206  14.844   1.555   6.085
 7123SOL     OW23207   8.992   6.977   5.803
 7123SOL    HW123208   8.948   7.026   5.733
 7123SOL    HW223209   9.073   6.944   5.763
 7124SOL     OW23210   1.852  10.192  11.296
 7124SOL    HW123211   1.800  10.119  11.260
 7124SOL    HW223212   1.929  10.196  11.240
 7125SOL     OW23213   3.263   5.847   0.943
 7125SOL    HW123214   3.233   5.855   1.033
 7125SOL    HW223215   3.270   5.937   0.912
 7126SOL     OW23216   4.440   1.491   3.364
 7126SOL    HW123217   4.433   1.396   3.355
 7126SOL    HW223218   4.382   1.526   3.297
 7127SOL     OW23219   1.695  13.237   5.856
 7127SOL    HW123220   1.600  13.240   5.840
 7127SOL    HW223221   1.726  13.324   5.832
 7128SOL     OW23222   2.518  13.318   3.806
 7128SOL    HW123223   2.459  13.275   3.867
 7128SOL    HW223224   2.588  13.354   3.861
 7129SOL     OW23225  13.065   2.940   1.726
 7129SOL    HW123226  13.156   2.925   1.751
 7129SOL    HW223227  13.015   2.920   1.805
 7130SOL     OW23228   4.848   7.359   5.884
 7130SOL    HW123229   4.899   7.358   5.966
 7130SOL    HW223230   4.774   7.301   5.902
 7131SOL     OW23231  11.452  12.754   9.093
 7131SOL    HW123232  11.509  12.720   9.163
 7131SOL    HW223233  11.407  12.828   9.133
 7132SOL     OW23234   2.791   7.824  13.973
 7132SOL    HW123235   2.748   7.876  13.905
 7132SOL    HW223236   2.731   7.752  13.990
 7133SOL     OW23237   0.655   4.411   3.979
 7133SOL    HW123238   0.623   4.498   3.956
 7133SOL    HW223239   0.724   4.427   4.042
 7134SOL     OW23240   5.158  12.146   0.317
 7134SOL    HW123241   5.167  12.153   0.412
 7134SOL    HW223242   5.169  12.053   0.299
 7135SOL     OW23243   3.978   5.630   4.705
 7135SOL    HW123244   3.907   5.679   4.747
 7135SOL    HW223245   4.053   5.691   4.706
 7136SOL     OW23246   9.108   3.444   1.809
 7136SOL    HW123247   9.014   3.446   1.791
 7136SOL    HW223248   9.133   3.353   1.794
 7137SOL     OW23249   5.332  14.523   3.157
 7137SOL    HW123250   5.254  14.471   3.138
 7137SOL    HW223251   5.365  14.548   3.070
 7138SOL     OW23252   4.209  13.241   4.638
 7138SOL    HW123253   4.144  13.197   4.692
 7138SOL    HW223254   4.161  13.314   4.597
 7139SOL     OW23255  14.224  14.838  11.519
 7139SOL    HW123256  14.168  14.764  11.544
 7139SOL    HW223257  14.296  14.797  11.469
 7140SOL     OW23258   1.712   0.156   9.130
 7140SOL    HW123259   1.792   0.106   9.118
 7140SOL    HW223260   1.652   0.121   9.063
 7141SOL     OW23261   1.683   7.220  14.640
 7141SOL    HW123262   1.620   7.255  14.577
 7141SOL    HW223263   1.629   7.175  14.705
 7142SOL     OW23264  13.448  10.788  10.502
 7142SOL    HW123265  13.367  10.813  10.547
 7142SOL    HW223266  13.421  10.717  10.444
 7143SOL     OW23267  11.446  11.030  12.452
 7143SOL    HW123268  11.399  11.113  12.448
 7143SOL    HW223269  11.528  11.051  12.497
 7144SOL     OW23270   0.674   0.886  11.160
 7144SOL    HW123271   0.690   0.795  11.137
 7144SOL    HW223272   0.635   0.924  11.081
 7145SOL     OW23273   9.566   6.196   2.001
 7145SOL    HW123274   9.605   6.162   2.081
 7145SOL    HW223275   9.531   6.119   1.957
 7146SOL     OW23276   3.779   5.608  14.018
 7146SOL    HW123277   3.766   5.697  14.050
 7146SOL    HW223278   3.841   5.617  13.945
 7147SOL     OW23279   1.112  12.702   8.759
 7147SOL    HW123280   1.091  12.647   8.835
 7147SOL    HW223281   1.078  12.788   8.782
 7148SOL     OW23282   6.277   4.243  11.251
 7148SOL    HW123283   6.244   4.157  11.277
 7148SOL    HW223284   6.200   4.299  11.252
 7149SOL     OW23285  10.613   2.816   6.303
 7149SOL    HW123286  10.545   2.760   6.265
 7149SOL    HW223287  10.589   2.904   6.276
 7150SOL     OW23288   4.321   4.246  12.574
 7150SOL    HW123289   4.290   4.254  12.664
 7150SOL    HW223290   4.308   4.153  12.553
 7151SOL     OW23291   3.179  10.833   9.666
 7151SOL    HW123292   3.113  10.777   9.707
 7151SOL    HW223293   3.262  10.788   9.681
 7152SOL     OW23294   9.680  11.261  12.364
 7152SOL    HW123295   9.649  11.347  12.337
 7152SOL    HW223296   9.747  11.278  12.430
 7153SOL     OW23297   9.871   0.839   3.823
 7153SOL    HW123298   9.903   0.807   3.907
 7153SOL    HW223299   9.790   0.790   3.807
 7154SOL     OW23300   8.223  10.255   5.116
 7154SOL    HW123301   8.227  10.160   5.109
 7154SOL    HW223302   8.156  10.281   5.052
 7155SOL     OW23303   8.729   6.763  10.188
 7155SOL    HW123304   8.735   6.858  10.180
 7155SOL    HW223305   8.687   6.749  10.273
 7156SOL     OW23306   1.422   3.411  12.979
 7156SOL    HW123307   1.353   3.478  12.987
 7156SOL    HW223308   1.503   3.461  12.970
 7157SOL     OW23309   8.669   0.576   2.918
 7157SOL    HW123310   8.640   0.664   2.940
 7157SOL    HW223311   8.600   0.543   2.860
 7158SOL     OW23312   6.776  14.854  14.139
 7158SOL    HW123313   6.855  14.843  14.193
 7158SOL    HW223314   6.735   0.057  14.172
 7159SOL     OW23315  12.620   4.330   5.862
 7159SOL    HW123316  12.561   4.261   5.893
 7159SOL    HW223317  12.639   4.306   5.772
 7160SOL     OW23318   4.590   4.225   3.296
 7160SOL    HW123319   4.629   4.166   3.231
 7160SOL    HW223320   4.612   4.313   3.265
 7161SOL     OW23321   7.587   4.508   2.684
 7161SOL    HW123322   7.581   4.541   2.773
 7161SOL    HW223323   7.499   4.518   2.648
 7162SOL     OW23324   1.102   2.206  13.030
 7162SOL    HW123325   1.078   2.113  13.026
 7162SOL    HW223326   1.089   2.238  12.941
 7163SOL     OW23327   5.809  10.118   5.232
 7163SOL    HW123328   5.714  10.118   5.218
 7163SOL    HW223329   5.834  10.211   5.228
 7164SOL     OW23330   8.740   5.340   0.977
 7164SOL    HW123331   8.677   5.413   0.978
 7164SOL    HW223332   8.700   5.275   0.919
 7165SOL     OW23333  13.146  14.279   2.093
 7165SOL    HW123334  13.137  14.273   1.998
 7165SOL    HW223335  13.222  14.223   2.113
 7166SOL     OW23336   1.646   4.238   5.043
 7166SOL    HW123337   1.581   4.187   5.091
 7166SOL    HW223338   1.730   4.200   5.070
 7167SOL     OW23339   9.417   3.830   8.964
 7167SOL    HW123340   9.435   3.778   9.042
 7167SOL    HW223341   9.440   3.773   8.891
 7168SOL     OW23342   9.822  11.000   5.083
 7168SOL    HW123343   9.766  10.970   5.155
 7168SOL    HW223344   9.842  10.921   5.033
 7169SOL     OW23345  12.362   9.919  12.918
 7169SOL    HW123346  12.347   9.834  12.957
 7169SOL    HW223347  12.321   9.914  12.831
 7170SOL     OW23348   1.421   2.873   8.430
 7170SOL    HW123349   1.480   2.901   8.500
 7170SOL    HW223350   1.434   2.778   8.425
 7171SOL     OW23351   4.480   7.804  14.645
 7171SOL    HW123352   4.397   7.850  14.656
 7171SOL    HW223353   4.459   7.711  14.652
 7172SOL     OW23354  12.858  13.277   0.756
 7172SOL    HW123355  12.898  13.363   0.753
 7172SOL    HW223356  12.764  13.294   0.751
 7173SOL     OW23357   3.231  14.202  11.934
 7173SOL    HW123358   3.196  14.251  11.860
 7173SOL    HW223359   3.300  14.258  11.969
 7174SOL     OW23360   3.301  11.249  14.736
 7174SOL    HW123361   3.275  11.308  14.666
 7174SOL    HW223362   3.343  11.306  14.801
 7175SOL     OW23363   5.108  14.691   8.741
 7175SOL    HW123364   5.122  14.686   8.836
 7175SOL    HW223365   5.190  14.724   8.706
 7176SOL     OW23366  11.544   7.096  13.183
 7176SOL    HW123367  11.545   7.003  13.203
 7176SOL    HW223368  11.631   7.127  13.209
 7177SOL     OW23369  10.367   6.389  14.224
 7177SOL    HW123370  10.423   6.417  14.151
 7177SOL    HW223371  10.312   6.321  14.186
 7178SOL     OW23372   4.046   0.355   8.042
 7178SOL    HW123373   4.123   0.337   7.988
 7178SOL    HW223374   4.062   0.443   8.078
 7179SOL     OW23375   6.699   7.711  11.311
 7179SOL    HW123376   6.642   7.647  11.353
 7179SOL    HW223377   6.691   7.694  11.217
 7180SOL     OW23378   7.000   1.562   2.892
 7180SOL    HW123379   6.963   1.604   2.814
 7180SOL    HW223380   7.079   1.518   2.860
 7181SOL     OW23381   8.070   3.758  10.272
 7181SOL    HW123382   8.077   3.839  10.221
 7181SOL    HW223383   7.976   3.744  10.283
 7182SOL     OW23384  10.472   8.566   7.236
 7182SOL    HW123385  10.414   8.641   7.252
 7182SOL    HW223386  10.412   8.493   7.224
 7183SOL     OW23387   7.082  12.744   7.199
 7183SOL    HW123388   7.007  12.773   7.146
 7183SOL    HW223389   7.159  12.775   7.149
 7184SOL     OW23390   5.215   2.636   8.053
 7184SOL    HW123391   5.274   2.659   8.125
 7184SOL    HW223392   5.134   2.682   8.073
 7185SOL     OW23393  14.001   6.324   1.412
 7185SOL    HW123394  13.929   6.319   1.349
 7185SOL    HW223395  14.059   6.251   1.388
 7186SOL     OW23396   1.103   4.062  12.787
 7186SOL    HW123397   1.125   4.015  12.707
 7186SOL    HW223398   1.153   4.143  12.782
 7187SOL     OW23399   5.715   2.068   3.384
 7187SOL    HW123400   5.633   2.108   3.412
 7187SOL    HW223401   5.738   2.114   3.303
 7188SOL     OW23402  14.868  12.529  11.369
 7188SOL    HW123403  14.777  12.517  11.396
 7188SOL    HW223404   0.005  12.624  11.367
 7189SOL     OW23405   4.940   8.768   7.275
 7189SOL    HW123406   5.031   8.739   7.284
 7189SOL    HW223407   4.913   8.790   7.364
 7190SOL     OW23408  14.062   9.714   7.758
 7190SOL    HW123409  14.079   9.697   7.666
 7190SOL    HW223410  14.047   9.627   7.796
 7191SOL     OW23411   9.154   3.543   7.925
 7191SOL    HW123412   9.206   3.487   7.867
 7191SOL    HW223413   9.218   3.581   7.985
 7192SOL     OW23414   2.716   9.875   5.060
 7192SOL    HW123415   2.737   9.967   5.070
 7192SOL    HW223416   2.642   9.861   5.120
 7193SOL     OW23417   3.132  11.035  12.621
 7193SOL    HW123418   3.193  11.085  12.675
 7193SOL    HW223419   3.107  11.095  12.550
 7194SOL     OW23420   7.124  11.895   5.134
 7194SOL    HW123421   7.111  11.873   5.041
 7194SOL    HW223422   7.131  11.990   5.135
 7195SOL     OW23423  13.507  13.924   7.414
 7195SOL    HW123424  13.570  13.860   7.447
 7195SOL    HW223425  13.446  13.872   7.361
 7196SOL     OW23426   7.165   1.190   3.846
 7196SOL    HW123427   7.239   1.252   3.845
 7196SOL    HW223428   7.169   1.150   3.933
 7197SOL     OW23429   4.537   1.617  12.981
 7197SOL    HW123430   4.535   1.606  12.885
 7197SOL    HW223431   4.492   1.539  13.014
 7198SOL     OW23432  14.743   8.906   1.262
 7198SOL    HW123433  14.722   8.817   1.236
 7198SOL    HW223434  14.686   8.924   1.337
 7199SOL     OW23435   2.779   3.071  14.214
 7199SOL    HW123436   2.702   3.114  14.252
 7199SOL    HW223437   2.838   3.058  14.288
 7200SOL     OW23438   8.706  14.300   7.153
 7200SOL    HW123439   8.779  14.288   7.213
 7200SOL    HW223440   8.632  14.321   7.209
 7201SOL     OW23441   8.886   6.952   3.655
 7201SOL    HW123442   8.971   6.945   3.696
 7201SOL    HW223443   8.823   6.930   3.724
 7202SOL     OW23444   8.981   4.107  11.110
 7202SOL    HW123445   8.899   4.141  11.145
 7202SOL    HW223446   8.979   4.013  11.131
 7203SOL     OW23447  11.230  12.523  13.607
 7203SOL    HW123448  11.208  12.446  13.660
 7203SOL    HW223449  11.145  12.563  13.586
 7204SOL     OW23450   7.088  10.260   6.047
 7204SOL    HW123451   7.093  10.196   6.118
 7204SOL    HW223452   7.026  10.221   5.984
 7205SOL     OW23453  13.199   0.495   9.417
 7205SOL    HW123454  13.174   0.436   9.346
 7205SOL    HW223455  13.197   0.440   9.495
 7206SOL     OW23456   4.221  13.970   2.275
 7206SOL    HW123457   4.256  13.984   2.187
 7206SOL    HW223458   4.196  13.877   2.276
 7207SOL     OW23459  10.898   7.411  13.933
 7207SOL    HW123460  10.882   7.438  13.843
 7207SOL    HW223461  10.823   7.447  13.982
 7208SOL     OW23462   8.178   5.737  14.651
 7208SOL    HW123463   8.170   5.642  14.637
 7208SOL    HW223464   8.105   5.759  14.709
 7209SOL     OW23465   1.590   7.492   1.771
 7209SOL    HW123466   1.535   7.470   1.846
 7209SOL    HW223467   1.562   7.432   1.702
 7210SOL     OW23468   6.456   9.498   7.083
 7210SOL    HW123469   6.433   9.406   7.067
 7210SOL    HW223470   6.533   9.493   7.141
 7211SOL     OW23471   7.214   2.253  14.509
 7211SOL    HW123472   7.146   2.283  14.570
 7211SOL    HW223473   7.262   2.332  14.487
 7212SOL     OW23474   8.185   2.170   9.365
 7212SOL    HW123475   8.108   2.126   9.403
 7212SOL    HW223476   8.238   2.098   9.329
 7213SOL     OW23477   9.716   8.432  13.012
 7213SOL    HW123478   9.805   8.419  12.979
 7213SOL    HW223479   9.726   8.437  13.107
 7214SOL     OW23480   5.454   0.405   1.877
 7214SOL    HW123481   5.402   0.381   1.800
 7214SOL    HW223482   5.416   0.354   1.948
 7215SOL     OW23483  12.924  13.812   7.552
 7215SOL    HW123484  12.878  13.896   7.542
 7215SOL    HW223485  12.854  13.748   7.560
 7216SOL     OW23486  14.103  10.219  10.995
 7216SOL    HW123487  14.063  10.306  10.991
 7216SOL    HW223488  14.036  10.163  11.034
 7217SOL     OW23489   1.479   4.275  11.605
 7217SOL    HW123490   1.452   4.294  11.695
 7217SOL    HW223491   1.454   4.184  11.591
 7218SOL     OW23492  13.220   3.529   0.729
 7218SOL    HW123493  13.298   3.490   0.690
 7218SOL    HW223494  13.159   3.456   0.738
 7219SOL     OW23495  14.148   5.035   1.622
 7219SOL    HW123496  14.116   5.118   1.587
 7219SOL    HW223497  14.180   5.057   1.710
 7220SOL     OW23498   6.565  13.562  10.120
 7220SOL    HW123499   6.658  13.551  10.140
 7220SOL    HW223500   6.523  13.484  10.157
 7221SOL     OW23501   9.883   0.709   6.587
 7221SOL    HW123502   9.844   0.772   6.648
 7221SOL    HW223503   9.930   0.764   6.524
 7222SOL     OW23504  14.822  10.728   7.241
 7222SOL    HW123505  14.846  10.648   7.193
 7222SOL    HW223506  14.731  10.714   7.266
 7223SOL     OW23507   0.183   0.586  12.754
 7223SOL    HW123508   0.109   0.636  12.787
 7223SOL    HW223509   0.150   0.497  12.746
 7224SOL     OW23510   8.902   7.599   4.863
 7224SOL    HW123511   8.979   7.628   4.911
 7224SOL    HW223512   8.926   7.512   4.829
 7225SOL     OW23513  13.312   0.484   5.052
 7225SOL    HW123514  13.401   0.519   5.061
 7225SOL    HW223515  13.265   0.518   5.129
 7226SOL     OW23516   3.698  12.422   5.202
 7226SOL    HW123517   3.783  12.387   5.178
 7226SOL    HW223518   3.717  12.487   5.270
 7227SOL     OW23519   6.340   2.683   0.182
 7227SOL    HW123520   6.366   2.729   0.261
 7227SOL    HW223521   6.422   2.647   0.147
 7228SOL     OW23522   9.088  12.646   4.544
 7228SOL    HW123523   9.088  12.704   4.621
 7228SOL    HW223524   9.175  12.658   4.506
 7229SOL     OW23525   2.931  13.800   2.752
 7229SOL    HW123526   2.896  13.768   2.835
 7229SOL    HW223527   3.003  13.740   2.732
 7230SOL     OW23528   0.747   7.158   3.277
 7230SOL    HW123529   0.834   7.136   3.245
 7230SOL    HW223530   0.691   7.088   3.245
 7231SOL     OW23531  11.649  13.619   6.386
 7231SOL    HW123532  11.570  13.646   6.431
 7231SOL    HW223533  11.619  13.567   6.312
 7232SOL     OW23534  11.003   7.991   3.567
 7232SOL    HW123535  11.079   7.937   3.588
 7232SOL    HW223536  11.031   8.081   3.586
 7233SOL     OW23537   6.968   4.186  14.524
 7233SOL    HW123538   6.974   4.131  14.446
 7233SOL    HW223539   7.010   4.268  14.500
 7234SOL     OW23540  10.780  14.517   4.586
 7234SOL    HW123541  10.830  14.539   4.664
 7234SOL    HW223542  10.769  14.600   4.540
 7235SOL     OW23543   9.782  13.816   6.550
 7235SOL    HW123544   9.782  13.791   6.643
 7235SOL    HW223545   9.870  13.849   6.534
 7236SOL     OW23546  14.267  10.713   2.284
 7236SOL    HW123547  14.298  10.787   2.337
 7236SOL    HW223548  14.244  10.646   2.349
 7237SOL     OW23549   5.725   1.288   2.609
 7237SOL    HW123550   5.756   1.378   2.601
 7237SOL    HW223551   5.667   1.288   2.685
 7238SOL     OW23552   8.574  14.289   2.560
 7238SOL    HW123553   8.530  14.295   2.645
 7238SOL    HW223554   8.634  14.363   2.558
 7239SOL     OW23555   5.178   3.901  11.684
 7239SOL    HW123556   5.246   3.833  11.683
 7239SOL    HW223557   5.167   3.926  11.592
 7240SOL     OW23558   2.462   0.788   6.748
 7240SOL    HW123559   2.434   0.762   6.835
 7240SOL    HW223560   2.518   0.865   6.762
 7241SOL     OW23561   1.183   5.858   1.882
 7241SOL    HW123562   1.156   5.769   1.903
 7241SOL    HW223563   1.173   5.906   1.965
 7242SOL     OW23564   5.730   8.584  13.177
 7242SOL    HW123565   5.703   8.618  13.091
 7242SOL    HW223566   5.819   8.553  13.163
 7243SOL     OW23567   4.845  11.943   1.023
 7243SOL    HW123568   4.868  11.860   1.066
 7243SOL    HW223569   4.796  11.916   0.944
 7244SOL     OW23570   6.158  12.010  14.699
 7244SOL    HW123571   6.164  12.037  14.791
 7244SOL    HW223572   6.210  11.930  14.695
 7245SOL     OW23573  11.866  13.934  12.327
 7245SOL    HW123574  11.954  13.965  12.302
 7245SOL    HW223575  11.828  13.902  12.246
 7246SOL     OW23576   9.850   3.673   3.672
 7246SOL    HW123577   9.924   3.678   3.611
 7246SOL    HW223578   9.836   3.763   3.701
 7247SOL     OW23579   7.482  14.776  11.609
 7247SOL    HW123580   7.413  14.807  11.667
 7247SOL    HW223581   7.437  14.746  11.530
 7248SOL     OW23582   4.415   5.736   7.795
 7248SOL    HW123583   4.437   5.803   7.860
 7248SOL    HW223584   4.320   5.745   7.784
 7249SOL     OW23585   3.138  13.786   3.364
 7249SOL    HW123586   3.076  13.839   3.413
 7249SOL    HW223587   3.163  13.840   3.289
 7250SOL     OW23588  10.036   8.599   4.075
 7250SOL    HW123589  10.042   8.553   4.158
 7250SOL    HW223590   9.962   8.659   4.086
 7251SOL     OW23591   7.903  11.253   6.652
 7251SOL    HW123592   7.813  11.249   6.682
 7251SOL    HW223593   7.929  11.161   6.643
 7252SOL     OW23594   1.500   2.393  13.881
 7252SOL    HW123595   1.538   2.324  13.935
 7252SOL    HW223596   1.441   2.347  13.821
 7253SOL     OW23597   5.937   5.161   9.131
 7253SOL    HW123598   5.949   5.255   9.120
 7253SOL    HW223599   5.960   5.123   9.046
 7254SOL     OW23600   7.695   2.500  10.920
 7254SOL    HW123601   7.695   2.559  10.845
 7254SOL    HW223602   7.604   2.470  10.927
 7255SOL     OW23603   3.683   2.973   0.506
 7255SOL    HW123604   3.697   2.881   0.482
 7255SOL    HW223605   3.749   3.021   0.455
 7256SOL     OW23606  11.958   0.389  13.102
 7256SOL    HW123607  11.935   0.383  13.009
 7256SOL    HW223608  12.053   0.403  13.102
 7257SOL     OW23609  11.094   4.454   0.072
 7257SOL    HW123610  11.014   4.474   0.025
 7257SOL    HW223611  11.080   4.367   0.110
 7258SOL     OW23612  13.747   0.334  11.151
 7258SOL    HW123613  13.738   0.405  11.087
 7258SOL    HW223614  13.841   0.323  11.162
 7259SOL     OW23615   4.055   6.652   5.876
 7259SOL    HW123616   4.022   6.570   5.839
 7259SOL    HW223617   4.147   6.654   5.852
 7260SOL     OW23618   8.814   2.367   7.277
 7260SOL    HW123619   8.765   2.300   7.229
 7260SOL    HW223620   8.827   2.437   7.213
 7261SOL     OW23621  10.311   6.692  12.594
 7261SOL    HW123622  10.302   6.787  12.608
 7261SOL    HW223623  10.404   6.680  12.573
 7262SOL     OW23624   8.022  13.077   3.682
 7262SOL    HW123625   7.948  13.024   3.652
 7262SOL    HW223626   8.064  13.024   3.749
 7263SOL     OW23627   7.457   2.579   5.272
 7263SOL    HW123628   7.471   2.673   5.258
 7263SOL    HW223629   7.537   2.538   5.241
 7264SOL     OW23630  14.055   3.781   4.000
 7264SOL    HW123631  14.105   3.744   4.073
 7264SOL    HW223632  14.068   3.718   3.929
 7265SOL     OW23633   3.625  14.093   8.800
 7265SOL    HW123634   3.592  14.167   8.749
 7265SOL    HW223635   3.702  14.128   8.846
 7266SOL     OW23636   9.047   6.503   7.170
 7266SOL    HW123637   9.113   6.526   7.105
 7266SOL    HW223638   9.095   6.499   7.253
 7267SOL     OW23639  14.712   7.564  13.131
 7267SOL    HW123640  14.723   7.517  13.049
 7267SOL    HW223641  14.623   7.544  13.159
 7268SOL     OW23642  11.095  13.072   2.998
 7268SOL    HW123643  11.031  13.142   2.982
 7268SOL    HW223644  11.073  13.039   3.085
 7269SOL     OW23645   8.701  11.654   5.771
 7269SOL    HW123646   8.745  11.583   5.725
 7269SOL    HW223647   8.667  11.613   5.851
 7270SOL     OW23648   1.628   3.343  11.238
 7270SOL    HW123649   1.717   3.361  11.270
 7270SOL    HW223650   1.642   3.294  11.157
 7271SOL     OW23651   6.424  14.613  11.343
 7271SOL    HW123652   6.372  14.629  11.422
 7271SOL    HW223653   6.503  14.570  11.375
 7272SOL     OW23654  14.185  12.330  12.282
 7272SOL    HW123655  14.229  12.365  12.359
 7272SOL    HW223656  14.152  12.245  12.311
 7273SOL     OW23657   4.436  10.586   0.065
 7273SOL    HW123658   4.510  10.554   0.014
 7273SOL    HW223659   4.359  10.554   0.019
 7274SOL     OW23660  14.672   1.514  12.723
 7274SOL    HW123661  14.703   1.575  12.656
 7274SOL    HW223662  14.595   1.556  12.760
 7275SOL     OW23663  11.521  10.332   3.112
 7275SOL    HW123664  11.530  10.240   3.136
 7275SOL    HW223665  11.465  10.331   3.034
 7276SOL     OW23666   2.834   2.727   1.899
 7276SOL    HW123667   2.793   2.725   1.812
 7276SOL    HW223668   2.760   2.731   1.960
 7277SOL     OW23669   6.558   4.395   2.155
 7277SOL    HW123670   6.634   4.355   2.112
 7277SOL    HW223671   6.521   4.453   2.088
 7278SOL     OW23672  13.576   1.903  10.829
 7278SOL    HW123673  13.597   1.911  10.736
 7278SOL    HW223674  13.639   1.960  10.873
 7279SOL     OW23675   4.557  12.888   5.269
 7279SOL    HW123676   4.640  12.916   5.308
 7279SOL    HW223677   4.560  12.922   5.180
 7280SOL     OW23678   9.457   6.529   0.756
 7280SOL    HW123679   9.419   6.597   0.811
 7280SOL    HW223680   9.540   6.507   0.798
 7281SOL     OW23681  11.565   8.852  13.000
 7281SOL    HW123682  11.479   8.867  12.962
 7281SOL    HW223683  11.550   8.853  13.094
 7282SOL     OW23684  11.133   0.946  13.621
 7282SOL    HW123685  11.155   1.013  13.556
 7282SOL    HW223686  11.218   0.916  13.654
 7283SOL     OW23687  13.282   2.467  12.995
 7283SOL    HW123688  13.299   2.409  13.069
 7283SOL    HW223689  13.353   2.450  12.934
 7284SOL     OW23690   9.263   5.601   0.094
 7284SOL    HW123691   9.247   5.576   0.003
 7284SOL    HW223692   9.204   5.545   0.144
 7285SOL     OW23693   2.681  10.900   0.767
 7285SOL    HW123694   2.761  10.915   0.716
 7285SOL    HW223695   2.682  10.806   0.784
 7286SOL     OW23696  12.691  13.982   9.556
 7286SOL    HW123697  12.624  14.049   9.569
 7286SOL    HW223698  12.756  14.001   9.624
 7287SOL     OW23699   7.904   9.019  14.531
 7287SOL    HW123700   7.856   8.941  14.504
 7287SOL    HW223701   7.970   9.031  14.462
 7288SOL     OW23702   4.799   0.864  12.082
 7288SOL    HW123703   4.789   0.906  12.168
 7288SOL    HW223704   4.775   0.932  12.019
 7289SOL     OW23705   4.123   3.881   7.906
 7289SOL    HW123706   4.128   3.854   7.815
 7289SOL    HW223707   4.109   3.975   7.903
 7290SOL     OW23708   2.340   9.126   6.678
 7290SOL    HW123709   2.344   9.172   6.594
 7290SOL    HW223710   2.262   9.160   6.721
 7291SOL     OW23711   1.708   0.259   7.179
 7291SOL    HW123712   1.684   0.195   7.112
 7291SOL    HW223713   1.771   0.316   7.136
 7292SOL     OW23714   3.903   5.640  12.591
 7292SOL    HW123715   3.828   5.694  12.564
 7292SOL    HW223716   3.878   5.551  12.569
 7293SOL     OW23717   7.447   0.529   4.451
 7293SOL    HW123718   7.437   0.618   4.417
 7293SOL    HW223719   7.425   0.473   4.377
 7294SOL     OW23720   5.379   4.300  14.353
 7294SOL    HW123721   5.462   4.273  14.312
 7294SOL    HW223722   5.349   4.222  14.399
 7295SOL     OW23723  11.495   2.935  13.717
 7295SOL    HW123724  11.588   2.936  13.739
 7295SOL    HW223725  11.456   2.998  13.777
 7296SOL     OW23726  12.423  14.017  11.095
 7296SOL    HW123727  12.486  14.088  11.109
 7296SOL    HW223728  12.368  14.018  11.173
 7297SOL     OW23729  10.553   9.931   3.779
 7297SOL    HW123730  10.496  10.006   3.766
 7297SOL    HW223731  10.527   9.869   3.711
 7298SOL     OW23732   3.482   6.510   2.998
 7298SOL    HW123733   3.475   6.437   2.936
 7298SOL    HW223734   3.573   6.508   3.027
 7299SOL     OW23735   9.095   3.101   7.366
 7299SOL    HW123736   9.054   3.170   7.314
 7299SOL    HW223737   9.038   3.025   7.353
 7300SOL     OW23738  12.221  13.749  12.484
 7300SOL    HW123739  12.191  13.722  12.397
 7300SOL    HW223740  12.264  13.672  12.520
 7301SOL     OW23741  11.468   9.438  11.281
 7301SOL    HW123742  11.492   9.388  11.358
 7301SOL    HW223743  11.500   9.527  11.299
 7302SOL     OW23744   3.279   8.257   2.878
 7302SOL    HW123745   3.276   8.260   2.974
 7302SOL    HW223746   3.190   8.280   2.850
 7303SOL     OW23747   1.855   4.336   8.224
 7303SOL    HW123748   1.933   4.390   8.218
 7303SOL    HW223749   1.846   4.297   8.137
 7304SOL     OW23750   3.057   0.985  13.445
 7304SOL    HW123751   3.061   0.889  13.453
 7304SOL    HW223752   3.081   1.017  13.531
 7305SOL     OW23753   4.043   2.869   5.354
 7305SOL    HW123754   4.020   2.814   5.429
 7305SOL    HW223755   3.994   2.950   5.368
 7306SOL     OW23756   4.019  12.278   2.543
 7306SOL    HW123757   3.982  12.231   2.618
 7306SOL    HW223758   3.944  12.318   2.500
 7307SOL     OW23759   2.465  10.789  14.625
 7307SOL    HW123760   2.396  10.811  14.563
 7307SOL    HW223761   2.537  10.756  14.571
 7308SOL     OW23762   1.605   8.235   1.966
 7308SOL    HW123763   1.653   8.201   1.890
 7308SOL    HW223764   1.628   8.176   2.038
 7309SOL     OW23765   0.022   3.621   4.772
 7309SOL    HW123766  14.861   3.627   4.860
 7309SOL    HW223767   0.026   3.712   4.742
 7310SOL     OW23768  12.165   2.001   9.955
 7310SOL    HW123769  12.121   2.084   9.940
 7310SOL    HW223770  12.095   1.935   9.953
 7311SOL     OW23771  10.645   7.155   0.601
 7311SOL    HW123772  10.684   7.138   0.515
 7311SOL    HW223773  10.608   7.071   0.628
 7312SOL     OW23774   3.116  13.168  14.476
 7312SOL    HW123775   3.187  13.223  14.442
 7312SOL    HW223776   3.039  13.195  14.426
 7313SOL     OW23777   1.730   6.556  10.415
 7313SOL    HW123778   1.639   6.548  10.444
 7313SOL    HW223779   1.778   6.492  10.468
 7314SOL     OW23780   4.798   3.689   9.303
 7314SOL    HW123781   4.802   3.655   9.393
 7314SOL    HW223782   4.721   3.647   9.266
 7315SOL     OW23783   2.352   3.166   4.739
 7315SOL    HW123784   2.398   3.196   4.661
 7315SOL    HW223785   2.413   3.105   4.780
 7316SOL     OW23786  11.352   3.691  11.703
 7316SOL    HW123787  11.292   3.763  11.721
 7316SOL    HW223788  11.295   3.616  11.687
 7317SOL     OW23789  11.603   7.999   6.439
 7317SOL    HW123790  11.698   8.006   6.447
 7317SOL    HW223791  11.580   7.918   6.485
 7318SOL     OW23792   5.886  13.500  12.539
 7318SOL    HW123793   5.797  13.534  12.545
 7318SOL    HW223794   5.926  13.550  12.467
 7319SOL     OW23795  13.860  13.893   4.993
 7319SOL    HW123796  13.869  13.987   5.010
 7319SOL    HW223797  13.947  13.857   5.006
 7320SOL     OW23798   7.491   5.932   5.783
 7320SOL    HW123799   7.475   5.948   5.691
 7320SOL    HW223800   7.404   5.930   5.823
 7321SOL     OW23801   3.760   1.231   0.506
 7321SOL    HW123802   3.743   1.177   0.428
 7321SOL    HW223803   3.673   1.262   0.532
 7322SOL     OW23804   0.364   4.872   1.066
 7322SOL    HW123805   0.385   4.929   1.140
 7322SOL    HW223806   0.343   4.787   1.105
 7323SOL     OW23807   5.881   3.811   0.312
 7323SOL    HW123808   5.884   3.741   0.378
 7323SOL    HW223809   5.864   3.765   0.229
 7324SOL     OW23810   5.614   0.270  13.145
 7324SOL    HW123811   5.560   0.195  13.168
 7324SOL    HW223812   5.567   0.345  13.181
 7325SOL     OW23813   8.116   6.286   7.077
 7325SOL    HW123814   8.022   6.304   7.077
 7325SOL    HW223815   8.157   6.373   7.073
 7326SOL     OW23816   0.284   1.925  12.871
 7326SOL    HW123817   0.274   2.002  12.927
 7326SOL    HW223818   0.336   1.864  12.924
 7327SOL     OW23819   2.772  13.438   4.136
 7327SOL    HW123820   2.682  13.461   4.157
 7327SOL    HW223821   2.767  13.354   4.092
 7328SOL     OW23822   2.436  10.320   8.128
 7328SOL    HW123823   2.520  10.334   8.085
 7328SOL    HW223824   2.389  10.403   8.116
 7329SOL     OW23825   3.568   7.308   5.436
 7329SOL    HW123826   3.656   7.303   5.475
 7329SOL    HW223827   3.517   7.357   5.500
 7330SOL     OW23828  11.499  12.994  11.033
 7330SOL    HW123829  11.470  13.004  10.942
 7330SOL    HW223830  11.509  13.084  11.065
 7331SOL     OW23831   9.938  11.622   4.558
 7331SOL    HW123832   9.857  11.644   4.511
 7331SOL    HW223833   9.914  11.627   4.650
 7332SOL     OW23834   5.820  13.123  14.670
 7332SOL    HW123835   5.846  13.098  14.758
 7332SOL    HW223836   5.902  13.145  14.626
 7333SOL     OW23837   5.293   2.752   4.494
 7333SOL    HW123838   5.372   2.793   4.528
 7333SOL    HW223839   5.221   2.799   4.538
 7334SOL     OW23840  11.009   1.019   4.795
 7334SOL    HW123841  10.969   1.084   4.738
 7334SOL    HW223842  11.085   0.988   4.747
 7335SOL     OW23843   8.900   2.994  13.116
 7335SOL    HW123844   8.832   3.034  13.062
 7335SOL    HW223845   8.907   3.052  13.192
 7336SOL     OW23846   3.864   3.457  12.727
 7336SOL    HW123847   3.954   3.425  12.723
 7336SOL    HW223848   3.819   3.410  12.658
 7337SOL     OW23849   7.755  10.230  10.622
 7337SOL    HW123850   7.672  10.212  10.578
 7337SOL    HW223851   7.822  10.208  10.557
 7338SOL     OW23852   6.323  10.434   9.561
 7338SOL    HW123853   6.395  10.373   9.544
 7338SOL    HW223854   6.356  10.491   9.630
 7339SOL     OW23855  13.667   1.785  12.811
 7339SOL    HW123856  13.617   1.818  12.886
 7339SOL    HW223857  13.732   1.726  12.850
 7340SOL     OW23858  13.222   0.997  11.719
 7340SOL    HW123859  13.296   0.939  11.700
 7340SOL    HW223860  13.255   1.058  11.784
 7341SOL     OW23861   4.252  10.287   0.226
 7341SOL    HW123862   4.311  10.297   0.301
 7341SOL    HW223863   4.210  10.372   0.217
 7342SOL     OW23864   3.748  14.157  11.875
 7342SOL    HW123865   3.811  14.092  11.905
 7342SOL    HW223866   3.779  14.181  11.787
 7343SOL     OW23867  14.850   1.527   0.607
 7343SOL    HW123868  14.827   1.618   0.627
 7343SOL    HW223869   0.066   1.531   0.582
 7344SOL     OW23870   9.514  11.825   0.441
 7344SOL    HW123871   9.446  11.867   0.494
 7344SOL    HW223872   9.484  11.735   0.430
 7345SOL     OW23873   5.961  11.538  14.192
 7345SOL    HW123874   5.872  11.517  14.218
 7345SOL    HW223875   5.961  11.633  14.179
 7346SOL     OW23876   0.585   4.081   5.240
 7346SOL    HW123877   0.558   4.173   5.243
 7346SOL    HW223878   0.512   4.034   5.280
 7347SOL     OW23879   8.013   4.417  13.219
 7347SOL    HW123880   8.029   4.438  13.127
 7347SOL    HW223881   8.077   4.349  13.241
 7348SOL     OW23882   6.310  11.466   1.569
 7348SOL    HW123883   6.261  11.403   1.622
 7348SOL    HW223884   6.299  11.550   1.614
 7349SOL     OW23885  12.761   1.348   1.211
 7349SOL    HW123886  12.772   1.405   1.286
 7349SOL    HW223887  12.777   1.404   1.135
 7350SOL     OW23888  13.690  12.416   4.532
 7350SOL    HW123889  13.773  12.406   4.485
 7350SOL    HW223890  13.703  12.490   4.590
 7351SOL     OW23891  10.920  14.479   6.215
 7351SOL    HW123892  10.846  14.537   6.231
 7351SOL    HW223893  10.920  14.418   6.290
 7352SOL     OW23894   0.838   2.222   8.817
 7352SOL    HW123895   0.796   2.307   8.828
 7352SOL    HW223896   0.827   2.179   8.902
 7353SOL     OW23897  10.763   6.065   7.682
 7353SOL    HW123898  10.742   5.984   7.728
 7353SOL    HW223899  10.858   6.072   7.690
 7354SOL     OW23900   6.853  10.325   6.322
 7354SOL    HW123901   6.942  10.351   6.345
 7354SOL    HW223902   6.808  10.315   6.406
 7355SOL     OW23903   5.141  13.526   8.034
 7355SOL    HW123904   5.161  13.442   7.993
 7355SOL    HW223905   5.225  13.559   8.064
 7356SOL     OW23906   4.407   2.386  12.605
 7356SOL    HW123907   4.474   2.347  12.662
 7356SOL    HW223908   4.451   2.462  12.566
 7357SOL     OW23909  14.770   0.597   4.124
 7357SOL    HW123910  14.750   0.667   4.185
 7357SOL    HW223911  14.762   0.637   4.037
 7358SOL     OW23912  14.238  10.640   6.551
 7358SOL    HW123913  14.262  10.728   6.582
 7358SOL    HW223914  14.166  10.654   6.491
 7359SOL     OW23915   1.860   4.569   5.152
 7359SOL    HW123916   1.855   4.474   5.156
 7359SOL    HW223917   1.780   4.599   5.197
 7360SOL     OW23918  13.137   5.643   9.879
 7360SOL    HW123919  13.051   5.643   9.837
 7360SOL    HW223920  13.146   5.732   9.914
 7361SOL     OW23921  12.631   2.775   3.349
 7361SOL    HW123922  12.694   2.735   3.289
 7361SOL    HW223923  12.633   2.720   3.427
 7362SOL     OW23924  11.788   5.153   5.025
 7362SOL    HW123925  11.751   5.184   4.942
 7362SOL    HW223926  11.831   5.230   5.062
 7363SOL     OW23927   8.147   1.568   9.904
 7363SOL    HW123928   8.216   1.513   9.941
 7363SOL    HW223929   8.079   1.570   9.971
 7364SOL     OW23930  11.302   7.507   5.275
 7364SOL    HW123931  11.381   7.474   5.232
 7364SOL    HW223932  11.333   7.550   5.354
 7365SOL     OW23933  11.493   5.475  13.365
 7365SOL    HW123934  11.516   5.432  13.447
 7365SOL    HW223935  11.461   5.404  13.309
 7366SOL     OW23936   3.667   0.548  11.383
 7366SOL    HW123937   3.647   0.558  11.290
 7366SOL    HW223938   3.582   0.533  11.425
 7367SOL     OW23939   5.053   5.135   4.787
 7367SOL    HW123940   5.035   5.045   4.816
 7367SOL    HW223941   4.969   5.179   4.795
 7368SOL     OW23942   5.946   5.101  12.886
 7368SOL    HW123943   6.022   5.100  12.943
 7368SOL    HW223944   5.951   5.186  12.841
 7369SOL     OW23945   6.863  11.515   4.635
 7369SOL    HW123946   6.842  11.442   4.576
 7369SOL    HW223947   6.817  11.590   4.597
 7370SOL     OW23948  12.047  13.298  10.475
 7370SOL    HW123949  12.099  13.379  10.472
 7370SOL    HW223950  12.076  13.253  10.554
 7371SOL     OW23951  12.550   2.918   4.219
 7371SOL    HW123952  12.568   3.008   4.192
 7371SOL    HW223953  12.501   2.928   4.301
 7372SOL     OW23954   3.659   7.282  11.646
 7372SOL    HW123955   3.709   7.334  11.584
 7372SOL    HW223956   3.588   7.244  11.594
 7373SOL     OW23957   1.845   0.307  13.577
 7373SOL    HW123958   1.840   0.231  13.635
 7373SOL    HW223959   1.892   0.373  13.627
 7374SOL     OW23960   3.514  11.050  14.467
 7374SOL    HW123961   3.552  11.122  14.518
 7374SOL    HW223962   3.494  11.088  14.382
 7375SOL     OW23963   3.069  14.691   4.304
 7375SOL    HW123964   2.975  14.674   4.293
 7375SOL    HW223965   3.073  14.781   4.336
 7376SOL     OW23966   5.383   0.088  13.007
 7376SOL    HW123967   5.424   0.004  13.026
 7376SOL    HW223968   5.438   0.128  12.939
 7377SOL     OW23969   0.080   6.102   7.581
 7377SOL    HW123970  14.868   6.069   7.598
 7377SOL    HW223971   0.121   6.034   7.529
 7378SOL     OW23972  10.015  14.168   8.021
 7378SOL    HW123973   9.998  14.155   7.927
 7378SOL    HW223974   9.930  14.156   8.063
 7379SOL     OW23975   2.588   1.780  14.851
 7379SOL    HW123976   2.661   1.751   0.030
 7379SOL    HW223977   2.581   1.874  14.867
 7380SOL     OW23978   5.244   6.020  13.967
 7380SOL    HW123979   5.200   6.015  13.882
 7380SOL    HW223980   5.296   5.940  13.972
 7381SOL     OW23981   6.064   5.860  12.144
 7381SOL    HW123982   6.024   5.921  12.206
 7381SOL    HW223983   5.990   5.826  12.094
 7382SOL     OW23984  13.894   7.681  12.009
 7382SOL    HW123985  13.801   7.679  11.984
 7382SOL    HW223986  13.909   7.771  12.036
 7383SOL     OW23987   0.125  11.273   1.435
 7383SOL    HW123988   0.208  11.271   1.483
 7383SOL    HW223989   0.085  11.188   1.452
 7384SOL     OW23990  12.456   8.852  11.739
 7384SOL    HW123991  12.485   8.903  11.664
 7384SOL    HW223992  12.424   8.770  11.702
 7385SOL     OW23993   7.689  10.334  12.662
 7385SOL    HW123994   7.650  10.275  12.597
 7385SOL    HW223995   7.779  10.303  12.671
 7386SOL     OW23996   8.560   4.504  13.210
 7386SOL    HW123997   8.481   4.529  13.257
 7386SOL    HW223998   8.604   4.586  13.191
 7387SOL     OW23999   6.466   8.420   9.290
 7387SOL    HW124000   6.460   8.515   9.298
 7387SOL    HW224001   6.500   8.391   9.375
 7388SOL     OW24002   4.220   8.268  10.393
 7388SOL    HW124003   4.217   8.178  10.362
 7388SOL    HW224004   4.286   8.267  10.462
 7389SOL     OW24005   0.696   0.711   5.495
 7389SOL    HW124006   0.662   0.657   5.424
 7389SOL    HW224007   0.626   0.774   5.513
 7390SOL     OW24008   9.037   4.571   6.503
 7390SOL    HW124009   9.128   4.596   6.518
 7390SOL    HW224010   9.030   4.483   6.539
 7391SOL     OW24011   0.499   3.435  14.172
 7391SOL    HW124012   0.545   3.475  14.246
 7391SOL    HW224013   0.416   3.483  14.167
 7392SOL     OW24014  12.703  11.678  10.757
 7392SOL    HW124015  12.682  11.763  10.797
 7392SOL    HW224016  12.787  11.653  10.796
 7393SOL     OW24017  12.408   4.463  12.714
 7393SOL    HW124018  12.418   4.483  12.621
 7393SOL    HW224019  12.428   4.369  12.720
 7394SOL     OW24020   0.959   6.294   7.881
 7394SOL    HW124021   0.951   6.317   7.974
 7394SOL    HW224022   0.917   6.367   7.835
 7395SOL     OW24023   0.579  14.504   6.575
 7395SOL    HW124024   0.660  14.457   6.556
 7395SOL    HW224025   0.519  14.478   6.506
 7396SOL     OW24026   3.579   2.570   4.006
 7396SOL    HW124027   3.626   2.571   3.922
 7396SOL    HW224028   3.645   2.544   4.070
 7397SOL     OW24029   6.282  13.209   7.737
 7397SOL    HW124030   6.210  13.231   7.678
 7397SOL    HW224031   6.290  13.286   7.795
 7398SOL     OW24032   9.844   5.104   7.863
 7398SOL    HW124033   9.809   5.019   7.891
 7398SOL    HW224034   9.895   5.135   7.938
 7399SOL     OW24035   1.526  12.097   4.923
 7399SOL    HW124036   1.532  12.140   5.008
 7399SOL    HW224037   1.564  12.010   4.938
 7400SOL     OW24038   0.109   4.501  13.735
 7400SOL    HW124039   0.160   4.468  13.661
 7400SOL    HW224040   0.026   4.453  13.730
 7401SOL     OW24041  14.000   6.033   1.053
 7401SOL    HW124042  14.049   6.115   1.044
 7401SOL    HW224043  13.910   6.060   1.068
 7402SOL     OW24044   8.617  13.875  10.815
 7402SOL    HW124045   8.524  13.896  10.805
 7402SOL    HW224046   8.629  13.795  10.765
 7403SOL     OW24047   6.777  12.021  10.736
 7403SOL    HW124048   6.838  12.011  10.809
 7403SOL    HW224049   6.699  11.972  10.762
 7404SOL     OW24050  10.891   7.960   6.224
 7404SOL    HW124051  10.848   7.927   6.145
 7404SOL    HW224052  10.822   7.959   6.290
 7405SOL     OW24053   4.590   2.648  14.141
 7405SOL    HW124054   4.582   2.624  14.049
 7405SOL    HW224055   4.518   2.709  14.156
 7406SOL     OW24056  14.018  13.634  13.343
 7406SOL    HW124057  13.996  13.625  13.250
 7406SOL    HW224058  13.965  13.567  13.387
 7407SOL     OW24059  12.807   0.284  14.518
 7407SOL    HW124060  12.802   0.271  14.613
 7407SOL    HW224061  12.849   0.370  14.507
 7408SOL     OW24062   3.525   9.312  12.779
 7408SOL    HW124063   3.587   9.245  12.749
 7408SOL    HW224064   3.442   9.288  12.739
 7409SOL     OW24065   8.907   3.199  11.441
 7409SOL    HW124066   8.831   3.186  11.498
 7409SOL    HW224067   8.948   3.279  11.472
 7410SOL     OW24068   2.100   2.001  10.734
 7410SOL    HW124069   2.108   2.008  10.829
 7410SOL    HW224070   2.131   2.085  10.701
 7411SOL     OW24071   0.719  13.354   9.722
 7411SOL    HW124072   0.676  13.270   9.705
 7411SOL    HW224073   0.805  13.330   9.756
 7412SOL     OW24074  10.250   8.745   0.526
 7412SOL    HW124075  10.327   8.701   0.489
 7412SOL    HW224076  10.200   8.675   0.568
 7413SOL     OW24077  14.790  14.279  12.594
 7413SOL    HW124078  14.798  14.212  12.662
 7413SOL    HW224079  14.724  14.339  12.629
 7414SOL     OW24080   7.827   1.831   9.962
 7414SOL    HW124081   7.907   1.806  10.010
 7414SOL    HW224082   7.767   1.862  10.029
 7415SOL     OW24083   4.442   8.697   0.758
 7415SOL    HW124084   4.518   8.644   0.783
 7415SOL    HW224085   4.470   8.745   0.680
 7416SOL     OW24086  12.497  11.594  12.452
 7416SOL    HW124087  12.457  11.681  12.440
 7416SOL    HW224088  12.483  11.549  12.369
 7417SOL     OW24089   6.582   1.022   1.389
 7417SOL    HW124090   6.612   1.113   1.397
 7417SOL    HW224091   6.591   1.002   1.296
 7418SOL     OW24092   2.459   0.380   4.689
 7418SOL    HW124093   2.506   0.344   4.614
 7418SOL    HW224094   2.394   0.314   4.711
 7419SOL     OW24095   5.651   5.045  14.826
 7419SOL    HW124096   5.736   5.051  14.869
 7419SOL    HW224097   5.667   5.080  14.738
 7420SOL     OW24098  13.345   0.341   7.966
 7420SOL    HW124099  13.405   0.400   8.012
 7420SOL    HW224100  13.290   0.304   8.036
 7421SOL     OW24101   3.084  10.277   2.315
 7421SOL    HW124102   3.126  10.354   2.277
 7421SOL    HW224103   3.128  10.265   2.399
 7422SOL     OW24104   0.521  10.183   1.741
 7422SOL    HW124105   0.604  10.164   1.697
 7422SOL    HW224106   0.546  10.200   1.832
 7423SOL     OW24107  13.652  14.519   3.175
 7423SOL    HW124108  13.656  14.550   3.085
 7423SOL    HW224109  13.623  14.595   3.226
 7424SOL     OW24110   3.018   1.725  11.485
 7424SOL    HW124111   3.007   1.812  11.523
 7424SOL    HW224112   2.938   1.710  11.434
 7425SOL     OW24113   7.144   3.244   8.225
 7425SOL    HW124114   7.166   3.282   8.140
 7425SOL    HW224115   7.055   3.211   8.214
 7426SOL     OW24116   1.752   5.989   6.647
 7426SOL    HW124117   1.832   5.969   6.695
 7426SOL    HW224118   1.737   6.082   6.664
 7427SOL     OW24119   1.006   9.145   1.188
 7427SOL    HW124120   0.957   9.186   1.260
 7427SOL    HW224121   1.097   9.144   1.219
 7428SOL     OW24122   6.709  12.531   7.484
 7428SOL    HW124123   6.616  12.549   7.491
 7428SOL    HW224124   6.721  12.498   7.394
 7429SOL     OW24125   0.575   4.615   4.222
 7429SOL    HW124126   0.655   4.566   4.238
 7429SOL    HW224127   0.603   4.691   4.172
 7430SOL     OW24128   1.526   2.094  12.445
 7430SOL    HW124129   1.597   2.071  12.385
 7430SOL    HW224130   1.571   2.124  12.524
 7431SOL     OW24131   3.349  12.044  14.514
 7431SOL    HW124132   3.290  12.100  14.463
 7431SOL    HW224133   3.420  12.022  14.453
 7432SOL     OW24134   4.356  14.165   1.262
 7432SOL    HW124135   4.408  14.209   1.195
 7432SOL    HW224136   4.290  14.116   1.212
 7433SOL     OW24137  10.456  13.494   0.264
 7433SOL    HW124138  10.451  13.538   0.349
 7433SOL    HW224139  10.550  13.491   0.245
 7434SOL     OW24140   3.170  14.797   9.216
 7434SOL    HW124141   3.145  14.706   9.199
 7434SOL    HW224142   3.262  14.801   9.190
 7435SOL     OW24143   3.997   9.109   6.470
 7435SOL    HW124144   4.017   9.083   6.559
 7435SOL    HW224145   3.996   9.027   6.420
 7436SOL     OW24146  11.599   6.004   3.128
 7436SOL    HW124147  11.620   5.974   3.040
 7436SOL    HW224148  11.569   5.925   3.174
 7437SOL     OW24149  13.314  11.518   0.535
 7437SOL    HW124150  13.352  11.487   0.453
 7437SOL    HW224151  13.389  11.533   0.592
 7438SOL     OW24152   7.268   7.006   7.625
 7438SOL    HW124153   7.342   6.950   7.646
 7438SOL    HW224154   7.199   6.977   7.685
 7439SOL     OW24155  13.746  10.553  12.404
 7439SOL    HW124156  13.652  10.542  12.420
 7439SOL    HW224157  13.788  10.493  12.464
 7440SOL     OW24158   5.907  14.003   9.693
 7440SOL    HW124159   5.826  13.973   9.652
 7440SOL    HW224160   5.968  14.013   9.620
 7441SOL     OW24161   0.604   5.008   2.039
 7441SOL    HW124162   0.699   5.014   2.031
 7441SOL    HW224163   0.590   4.941   2.106
 7442SOL     OW24164   0.290   1.491   5.945
 7442SOL    HW124165   0.355   1.541   5.895
 7442SOL    HW224166   0.282   1.408   5.897
 7443SOL     OW24167   9.886  13.465   0.159
 7443SOL    HW124168   9.955  13.529   0.180
 7443SOL    HW224169   9.890  13.402   0.231
 7444SOL     OW24170   4.496  10.612   3.052
 7444SOL    HW124171   4.578  10.571   3.025
 7444SOL    HW224172   4.484  10.684   2.991
 7445SOL     OW24173   9.209   5.761   4.721
 7445SOL    HW124174   9.201   5.855   4.701
 7445SOL    HW224175   9.243   5.759   4.811
 7446SOL     OW24176   9.592   0.216   0.527
 7446SOL    HW124177   9.619   0.302   0.561
 7446SOL    HW224178   9.658   0.195   0.461
 7447SOL     OW24179   9.181   9.310   2.057
 7447SOL    HW124180   9.174   9.266   2.142
 7447SOL    HW224181   9.127   9.258   1.998
 7448SOL     OW24182   9.919   3.751   5.567
 7448SOL    HW124183   9.848   3.694   5.597
 7448SOL    HW224184   9.908   3.831   5.619
 7449SOL     OW24185  12.388   2.135   0.583
 7449SOL    HW124186  12.326   2.200   0.616
 7449SOL    HW224187  12.447   2.118   0.657
 7450SOL     OW24188   0.940   9.377   0.575
 7450SOL    HW124189   0.933   9.365   0.481
 7450SOL    HW224190   0.850   9.371   0.607
 7451SOL     OW24191  12.574   1.745   1.504
 7451SOL    HW124192  12.545   1.663   1.544
 7451SOL    HW224193  12.504   1.768   1.443
 7452SOL     OW24194   1.637   8.907   7.217
 7452SOL    HW124195   1.709   8.969   7.204
 7452SOL    HW224196   1.560   8.963   7.232
 7453SOL     OW24197   1.231   3.720   3.771
 7453SOL    HW124198   1.313   3.759   3.801
 7453SOL    HW224199   1.231   3.735   3.676
 7454SOL     OW24200   8.391   6.670  13.372
 7454SOL    HW124201   8.467   6.727  13.374
 7454SOL    HW224202   8.330   6.713  13.311
 7455SOL     OW24203  10.015   3.866  11.907
 7455SOL    HW124204   9.996   3.907  11.992
 7455SOL    HW224205  10.081   3.922  11.867
 7456SOL     OW24206   2.107   1.396  10.797
 7456SOL    HW124207   2.135   1.435  10.880
 7456SOL    HW224208   2.160   1.439  10.731
 7457SOL     OW24209   7.480   6.218   6.183
 7457SOL    HW124210   7.420   6.146   6.203
 7457SOL    HW224211   7.567   6.180   6.193
 7458SOL     OW24212  12.967   4.117  11.518
 7458SOL    HW124213  12.935   4.028  11.501
 7458SOL    HW224214  13.062   4.109  11.516
 7459SOL     OW24215  12.995   0.103   7.547
 7459SOL    HW124216  12.949   0.181   7.515
 7459SOL    HW224217  12.973   0.099   7.640
 7460SOL     OW24218   3.668   6.345  13.552
 7460SOL    HW124219   3.717   6.417  13.591
 7460SOL    HW224220   3.695   6.344  13.460
 7461SOL     OW24221   7.962   5.563   2.288
 7461SOL    HW124222   8.007   5.640   2.323
 7461SOL    HW224223   7.898   5.598   2.227
 7462SOL     OW24224   7.283  10.289  10.189
 7462SOL    HW124225   7.371  10.319  10.164
 7462SOL    HW224226   7.283  10.291  10.285
 7463SOL     OW24227   4.839   3.009   8.917
 7463SOL    HW124228   4.873   3.009   8.827
 7463SOL    HW224229   4.748   2.983   8.909
 7464SOL     OW24230   8.868  14.806   9.601
 7464SOL    HW124231   8.776  14.786   9.582
 7464SOL    HW224232   8.917  14.734   9.562
 7465SOL     OW24233   7.235  12.614   3.776
 7465SOL    HW124234   7.308  12.659   3.733
 7465SOL    HW224235   7.198  12.679   3.836
 7466SOL     OW24236   9.420  13.462  10.937
 7466SOL    HW124237   9.367  13.540  10.956
 7466SOL    HW224238   9.389  13.396  10.999
 7467SOL     OW24239   9.714   2.605   3.501
 7467SOL    HW124240   9.803   2.621   3.469
 7467SOL    HW224241   9.659   2.661   3.446
 7468SOL     OW24242   3.442  10.090   8.556
 7468SOL    HW124243   3.412  10.012   8.602
 7468SOL    HW224244   3.535  10.097   8.577
 7469SOL     OW24245  12.019  14.151   1.572
 7469SOL    HW124246  11.934  14.148   1.529
 7469SOL    HW224247  12.068  14.216   1.522
 7470SOL     OW24248   8.931   5.262  14.814
 7470SOL    HW124249   8.964   5.344  14.777
 7470SOL    HW224250   9.000   5.232  14.873
 7471SOL     OW24251   5.145   4.211  11.957
 7471SOL    HW124252   5.077   4.146  11.941
 7471SOL    HW224253   5.207   4.167  12.016
 7472SOL     OW24254   4.804   2.230   6.892
 7472SOL    HW124255   4.777   2.284   6.967
 7472SOL    HW224256   4.822   2.144   6.930
 7473SOL     OW24257  14.631  14.421   9.165
 7473SOL    HW124258  14.639  14.453   9.255
 7473SOL    HW224259  14.717  14.387   9.143
 7474SOL     OW24260   9.387   2.687   3.091
 7474SOL    HW124261   9.450   2.682   3.162
 7474SOL    HW224262   9.353   2.776   3.096
 7475SOL     OW24263   4.922   1.358   5.106
 7475SOL    HW124264   4.841   1.398   5.072
 7475SOL    HW224265   4.892   1.285   5.160
 7476SOL     OW24266   9.561   6.180   7.408
 7476SOL    HW124267   9.590   6.211   7.322
 7476SOL    HW224268   9.474   6.144   7.392
 7477SOL     OW24269   6.443   5.248   3.636
 7477SOL    HW124270   6.411   5.294   3.559
 7477SOL    HW224271   6.461   5.159   3.605
 7478SOL     OW24272   7.945  11.780  10.119
 7478SOL    HW124273   8.040  11.781  10.113
 7478SOL    HW224274   7.925  11.837  10.194
 7479SOL     OW24275   4.741   6.724  14.202
 7479SOL    HW124276   4.749   6.632  14.176
 7479SOL    HW224277   4.688   6.764  14.134
 7480SOL     OW24278   7.785  11.247  12.361
 7480SOL    HW124279   7.744  11.161  12.363
 7480SOL    HW224280   7.744  11.295  12.433
 7481SOL     OW24281  13.434   0.828  12.368
 7481SOL    HW124282  13.417   0.820  12.462
 7481SOL    HW224283  13.359   0.879  12.335
 7482SOL     OW24284  10.120   4.158   3.673
 7482SOL    HW124285  10.079   4.207   3.602
 7482SOL    HW224286  10.191   4.110   3.630
 7483SOL     OW24287   5.355   5.202   6.843
 7483SOL    HW124288   5.273   5.181   6.797
 7483SOL    HW224289   5.354   5.297   6.850
 7484SOL     OW24290   3.583   9.446   6.778
 7484SOL    HW124291   3.612   9.367   6.824
 7484SOL    HW224292   3.636   9.516   6.815
 7485SOL     OW24293   7.487  14.237   2.673
 7485SOL    HW124294   7.423  14.301   2.643
 7485SOL    HW224295   7.445  14.152   2.660
 7486SOL     OW24296   8.643  14.264  14.192
 7486SOL    HW124297   8.667  14.278  14.101
 7486SOL    HW224298   8.630  14.352  14.228
 7487SOL     OW24299  14.809   4.991  11.471
 7487SOL    HW124300  14.732   4.966  11.420
 7487SOL    HW224301  14.860   5.046  11.412
 7488SOL     OW24302   2.224   2.299  10.227
 7488SOL    HW124303   2.163   2.302  10.301
 7488SOL    HW224304   2.197   2.371  10.170
 7489SOL     OW24305   9.193   3.703  12.253
 7489SOL    HW124306   9.160   3.792  12.240
 7489SOL    HW224307   9.287   3.714  12.267
 7490SOL     OW24308   8.559  12.968   4.936
 7490SOL    HW124309   8.513  12.900   4.887
 7490SOL    HW224310   8.581  13.034   4.870
 7491SOL     OW24311  10.484   1.350   7.067
 7491SOL    HW124312  10.470   1.423   7.006
 7491SOL    HW224313  10.518   1.280   7.012
 7492SOL     OW24314   4.643   5.298  13.943
 7492SOL    HW124315   4.725   5.275  13.900
 7492SOL    HW224316   4.607   5.215  13.974
 7493SOL     OW24317   6.465  12.012   7.100
 7493SOL    HW124318   6.499  12.037   7.014
 7493SOL    HW224319   6.448  11.919   7.094
 7494SOL     OW24320   9.183  12.681   3.834
 7494SOL    HW124321   9.224  12.615   3.778
 7494SOL    HW224322   9.164  12.754   3.775
 7495SOL     OW24323   1.275   7.979   9.787
 7495SOL    HW124324   1.317   8.024   9.860
 7495SOL    HW224325   1.344   7.969   9.721
 7496SOL     OW24326   5.258   8.339   2.813
 7496SOL    HW124327   5.333   8.292   2.776
 7496SOL    HW224328   5.208   8.273   2.860
 7497SOL     OW24329  12.768  13.852   5.429
 7497SOL    HW124330  12.830  13.795   5.383
 7497SOL    HW224331  12.819  13.930   5.451
 7498SOL     OW24332  11.542   1.035   7.849
 7498SOL    HW124333  11.634   1.058   7.837
 7498SOL    HW224334  11.494   1.106   7.807
 7499SOL     OW24335   6.715   5.211   0.100
 7499SOL    HW124336   6.724   5.254   0.014
 7499SOL    HW224337   6.764   5.268   0.160
 7500SOL     OW24338   9.306   3.229   4.093
 7500SOL    HW124339   9.267   3.144   4.071
 7500SOL    HW224340   9.375   3.241   4.027
 7501SOL     OW24341   7.021  13.614   4.239
 7501SOL    HW124342   7.045  13.705   4.222
 7501SOL    HW224343   7.104  13.571   4.260
 7502SOL     OW24344   3.937   7.242   6.623
 7502SOL    HW124345   3.889   7.178   6.674
 7502SOL    HW224346   3.918   7.219   6.532
 7503SOL     OW24347   9.704   1.650   2.454
 7503SOL    HW124348   9.628   1.659   2.396
 7503SOL    HW224349   9.687   1.713   2.525
 7504SOL     OW24350   3.402  12.108  10.047
 7504SOL    HW124351   3.366  12.177  10.102
 7504SOL    HW224352   3.463  12.061  10.104
 7505SOL     OW24353  11.253  14.442  10.468
 7505SOL    HW124354  11.257  14.366  10.526
 7505SOL    HW224355  11.228  14.515  10.525
 7506SOL     OW24356   7.300   1.728   6.492
 7506SOL    HW124357   7.255   1.693   6.569
 7506SOL    HW224358   7.327   1.651   6.443
 7507SOL     OW24359   4.814   6.463  12.151
 7507SOL    HW124360   4.817   6.398  12.221
 7507SOL    HW224361   4.777   6.416  12.076
 7508SOL     OW24362   7.569  10.670   9.058
 7508SOL    HW124363   7.646  10.655   9.113
 7508SOL    HW224364   7.605  10.685   8.970
 7509SOL     OW24365  11.861   6.352   2.293
 7509SOL    HW124366  11.925   6.401   2.344
 7509SOL    HW224367  11.909   6.319   2.217
 7510SOL     OW24368   8.907   4.613  13.748
 7510SOL    HW124369   8.888   4.684  13.686
 7510SOL    HW224370   9.000   4.595  13.736
 7511SOL     OW24371   3.321   5.558   1.700
 7511SOL    HW124372   3.393   5.516   1.652
 7511SOL    HW224373   3.285   5.488   1.755
 7512SOL     OW24374  12.761  13.177   3.581
 7512SOL    HW124375  12.785  13.156   3.671
 7512SOL    HW224376  12.815  13.254   3.559
 7513SOL     OW24377  12.848  14.069   8.626
 7513SOL    HW124378  12.754  14.050   8.621
 7513SOL    HW224379  12.881  14.009   8.694
 7514SOL     OW24380   8.208  13.627   8.406
 7514SOL    HW124381   8.260  13.671   8.339
 7514SOL    HW224382   8.130  13.597   8.360
 7515SOL     OW24383   1.107  11.447   0.916
 7515SOL    HW124384   1.048  11.374   0.937
 7515SOL    HW224385   1.073  11.521   0.967
 7516SOL     OW24386   1.025   2.307  10.022
 7516SOL    HW124387   1.072   2.369   9.966
 7516SOL    HW224388   1.035   2.344  10.110
 7517SOL     OW24389  12.586  14.466  12.862
 7517SOL    HW124390  12.655  14.399  12.857
 7517SOL    HW224391  12.612  14.520  12.937
 7518SOL     OW24392  13.673   8.193   5.332
 7518SOL    HW124393  13.629   8.276   5.311
 7518SOL    HW224394  13.672   8.189   5.428
 7519SOL     OW24395  10.019   8.140   5.839
 7519SOL    HW124396  10.003   8.144   5.933
 7519SOL    HW224397   9.968   8.064   5.809
 7520SOL     OW24398   8.667   1.334   4.154
 7520SOL    HW124399   8.721   1.412   4.143
 7520SOL    HW224400   8.593   1.347   4.095
 7521SOL     OW24401  11.384   9.535  12.404
 7521SOL    HW124402  11.405   9.627  12.391
 7521SOL    HW224403  11.304   9.521  12.354
 7522SOL     OW24404   1.158   2.770  11.173
 7522SOL    HW124405   1.194   2.833  11.235
 7522SOL    HW224406   1.221   2.698  11.171
 7523SOL     OW24407   3.874   9.077  10.678
 7523SOL    HW124408   3.961   9.048  10.703
 7523SOL    HW224409   3.887   9.166  10.644
 7524SOL     OW24410  11.389   5.596   3.966
 7524SOL    HW124411  11.436   5.677   3.946
 7524SOL    HW224412  11.418   5.534   3.899
 7525SOL     OW24413   2.711   1.700   0.207
 7525SOL    HW124414   2.772   1.649   0.260
 7525SOL    HW224415   2.624   1.668   0.232
 7526SOL     OW24416   5.978  12.107   3.144
 7526SOL    HW124417   5.960  12.193   3.105
 7526SOL    HW224418   6.035  12.065   3.079
 7527SOL     OW24419   1.626   0.890  14.417
 7527SOL    HW124420   1.576   0.953  14.468
 7527SOL    HW224421   1.673   0.944  14.352
 7528SOL     OW24422  12.793   5.330   1.366
 7528SOL    HW124423  12.702   5.302   1.371
 7528SOL    HW224424  12.844   5.249   1.359
 7529SOL     OW24425   1.117  11.454   6.526
 7529SOL    HW124426   1.194  11.476   6.474
 7529SOL    HW224427   1.128  11.501   6.608
 7530SOL     OW24428   5.943  13.330   1.712
 7530SOL    HW124429   6.032  13.348   1.743
 7530SOL    HW224430   5.903  13.280   1.783
 7531SOL     OW24431  11.169   7.626  13.473
 7531SOL    HW124432  11.212   7.541  13.462
 7531SOL    HW224433  11.236   7.690  13.448
 7532SOL     OW24434   9.088   9.789   8.313
 7532SOL    HW124435   9.057   9.741   8.236
 7532SOL    HW224436   9.072   9.881   8.292
 7533SOL     OW24437  12.554   0.318   6.541
 7533SOL    HW124438  12.532   0.381   6.472
 7533SOL    HW224439  12.643   0.342   6.568
 7534SOL     OW24440   5.896   3.599   7.683
 7534SOL    HW124441   5.887   3.537   7.611
 7534SOL    HW224442   5.886   3.685   7.642
 7535SOL     OW24443   3.017   2.947  14.066
 7535SOL    HW124444   2.949   2.924  14.129
 7535SOL    HW224445   3.029   3.041  14.076
 7536SOL     OW24446   4.349   7.845   9.878
 7536SOL    HW124447   4.417   7.801   9.826
 7536SOL    HW224448   4.286   7.877   9.813
 7537SOL     OW24449   1.545  13.800  13.750
 7537SOL    HW124450   1.469  13.844  13.710
 7537SOL    HW224451   1.516  13.710  13.764
 7538SOL     OW24452   3.513   0.862   6.486
 7538SOL    HW124453   3.438   0.921   6.477
 7538SOL    HW224454   3.518   0.818   6.401
 7539SOL     OW24455   7.044  12.214   0.245
 7539SOL    HW124456   6.953  12.244   0.250
 7539SOL    HW224457   7.045  12.134   0.296
 7540SOL     OW24458   4.550  14.824   3.224
 7540SOL    HW124459   4.466  14.779   3.220
 7540SOL    HW224460   4.613  14.755   3.245
 7541SOL     OW24461   2.538   7.757  12.386
 7541SOL    HW124462   2.593   7.688  12.349
 7541SOL    HW224463   2.490   7.714  12.457
 7542SOL     OW24464   6.205   9.057  14.492
 7542SOL    HW124465   6.155   9.139  14.498
 7542SOL    HW224466   6.198   9.032  14.400
 7543SOL     OW24467  12.267   9.393   8.299
 7543SOL    HW124468  12.287   9.485   8.287
 7543SOL    HW224469  12.190   9.392   8.356
 7544SOL     OW24470  12.885   6.534   0.240
 7544SOL    HW124471  12.794   6.555   0.219
 7544SOL    HW224472  12.935   6.571   0.168
 7545SOL     OW24473   0.481   2.262  12.131
 7545SOL    HW124474   0.489   2.170  12.155
 7545SOL    HW224475   0.537   2.271  12.054
 7546SOL     OW24476   5.090  10.039  13.022
 7546SOL    HW124477   5.139  10.122  13.027
 7546SOL    HW224478   5.132   9.991  12.951
 7547SOL     OW24479   5.082  13.566   9.369
 7547SOL    HW124480   5.173  13.536   9.370
 7547SOL    HW224481   5.055  13.563   9.460
 7548SOL     OW24482   0.398   2.702   1.288
 7548SOL    HW124483   0.484   2.675   1.256
 7548SOL    HW224484   0.338   2.683   1.216
 7549SOL     OW24485   3.125  11.630   3.420
 7549SOL    HW124486   3.204  11.584   3.390
 7549SOL    HW224487   3.152  11.721   3.429
 7550SOL     OW24488   4.788   4.973   7.826
 7550SOL    HW124489   4.880   4.966   7.852
 7550SOL    HW224490   4.757   5.054   7.868
 7551SOL     OW24491   4.160   0.463  12.140
 7551SOL    HW124492   4.092   0.467  12.208
 7551SOL    HW224493   4.241   0.487  12.185
 7552SOL     OW24494  11.607   1.030  11.408
 7552SOL    HW124495  11.696   0.998  11.422
 7552SOL    HW224496  11.555   0.951  11.397
 7553SOL     OW24497  10.875   3.977   7.059
 7553SOL    HW124498  10.866   3.952   6.967
 7553SOL    HW224499  10.868   3.895   7.107
 7554SOL     OW24500   5.104   9.473   7.125
 7554SOL    HW124501   5.106   9.424   7.042
 7554SOL    HW224502   5.018   9.514   7.127
 7555SOL     OW24503   8.666   0.907  11.350
 7555SOL    HW124504   8.733   0.944  11.407
 7555SOL    HW224505   8.593   0.886  11.408
 7556SOL     OW24506   2.171  12.625   3.057
 7556SOL    HW124507   2.124  12.708   3.059
 7556SOL    HW224508   2.105  12.560   3.033
 7557SOL     OW24509   9.803   0.292   1.848
 7557SOL    HW124510   9.801   0.254   1.760
 7557SOL    HW224511   9.713   0.319   1.864
 7558SOL     OW24512   8.381  12.547   0.156
 7558SOL    HW124513   8.363  12.458   0.123
 7558SOL    HW224514   8.440  12.533   0.230
 7559SOL     OW24515  10.345   6.983  12.698
 7559SOL    HW124516  10.298   7.042  12.640
 7559SOL    HW224517  10.281   6.959  12.765
 7560SOL     OW24518   7.967   0.338   6.171
 7560SOL    HW124519   7.899   0.389   6.214
 7560SOL    HW224520   7.931   0.249   6.165
 7561SOL     OW24521   7.111  13.216  12.812
 7561SOL    HW124522   7.023  13.237  12.782
 7561SOL    HW224523   7.130  13.281  12.879
 7562SOL     OW24524   0.505   6.269   1.732
 7562SOL    HW124525   0.523   6.175   1.735
 7562SOL    HW224526   0.461   6.288   1.815
 7563SOL     OW24527   1.037   8.045   2.856
 7563SOL    HW124528   1.080   8.080   2.934
 7563SOL    HW224529   0.995   8.121   2.816
 7564SOL     OW24530   5.993  10.113   3.811
 7564SOL    HW124531   5.966  10.119   3.903
 7564SOL    HW224532   6.031  10.025   3.804
 7565SOL     OW24533   1.733   7.077   6.127
 7565SOL    HW124534   1.823   7.051   6.146
 7565SOL    HW224535   1.700   7.114   6.209
 7566SOL     OW24536   3.644   6.489  10.282
 7566SOL    HW124537   3.693   6.422  10.329
 7566SOL    HW224538   3.676   6.572  10.317
 7567SOL     OW24539   3.787   0.638   1.057
 7567SOL    HW124540   3.744   0.667   0.977
 7567SOL    HW224541   3.853   0.705   1.074
 7568SOL     OW24542  13.831   3.201  10.625
 7568SOL    HW124543  13.811   3.191  10.532
 7568SOL    HW224544  13.857   3.292  10.635
 7569SOL     OW24545  11.320  13.978   8.843
 7569SOL    HW124546  11.413  13.995   8.830
 7569SOL    HW224547  11.317  13.911   8.911
 7570SOL     OW24548  10.272   3.326   9.518
 7570SOL    HW124549  10.353   3.370   9.491
 7570SOL    HW224550  10.240   3.377   9.592
 7571SOL     OW24551   6.417   6.037   5.995
 7571SOL    HW124552   6.418   6.133   6.004
 7571SOL    HW224553   6.330   6.017   5.961
 7572SOL     OW24554   0.703   6.293   2.164
 7572SOL    HW124555   0.679   6.376   2.122
 7572SOL    HW224556   0.744   6.319   2.246
 7573SOL     OW24557   1.089   4.903   8.172
 7573SOL    HW124558   1.159   4.862   8.222
 7573SOL    HW224559   1.013   4.901   8.230
 7574SOL     OW24560  14.587   1.454   9.693
 7574SOL    HW124561  14.523   1.392   9.658
 7574SOL    HW224562  14.619   1.413   9.773
 7575SOL     OW24563   4.889  11.812  10.614
 7575SOL    HW124564   4.806  11.800  10.661
 7575SOL    HW224565   4.877  11.765  10.531
 7576SOL     OW24566   1.600   4.371   5.598
 7576SOL    HW124567   1.615   4.307   5.529
 7576SOL    HW224568   1.530   4.427   5.564
 7577SOL     OW24569   8.339   5.988   5.584
 7577SOL    HW124570   8.268   5.930   5.612
 7577SOL    HW224571   8.301   6.041   5.515
 7578SOL     OW24572  11.416   4.662   2.307
 7578SOL    HW124573  11.362   4.689   2.382
 7578SOL    HW224574  11.502   4.700   2.325
 7579SOL     OW24575   5.455   5.370   7.984
 7579SOL    HW124576   5.411   5.451   8.012
 7579SOL    HW224577   5.543   5.399   7.959
 7580SOL     OW24578   1.120   5.004   7.053
 7580SOL    HW124579   1.158   5.015   6.966
 7580SOL    HW224580   1.026   4.992   7.037
 7581SOL     OW24581  12.824  13.511  12.451
 7581SOL    HW124582  12.881  13.519  12.375
 7581SOL    HW224583  12.832  13.420  12.479
 7582SOL     OW24584   8.872  10.276   5.178
 7582SOL    HW124585   8.957  10.307   5.211
 7582SOL    HW224586   8.874  10.182   5.194
 7583SOL     OW24587   5.003   3.408   3.350
 7583SOL    HW124588   4.929   3.369   3.396
 7583SOL    HW224589   5.055   3.450   3.418
 7584SOL     OW24590   5.079  14.285   4.754
 7584SOL    HW124591   5.025  14.252   4.683
 7584SOL    HW224592   5.165  14.299   4.715
 7585SOL     OW24593   7.738   7.642   4.823
 7585SOL    HW124594   7.823   7.675   4.852
 7585SOL    HW224595   7.675   7.698   4.868
 7586SOL     OW24596   0.981   2.120   0.602
 7586SOL    HW124597   0.893   2.139   0.635
 7586SOL    HW224598   1.017   2.058   0.665
 7587SOL     OW24599   5.071   7.962   3.547
 7587SOL    HW124600   5.165   7.968   3.559
 7587SOL    HW224601   5.033   7.992   3.630
 7588SOL     OW24602   0.122   4.147  13.572
 7588SOL    HW124603   0.041   4.116  13.530
 7588SOL    HW224604   0.139   4.083  13.641
 7589SOL     OW24605   2.983   3.970  14.372
 7589SOL    HW124606   3.005   3.923  14.292
 7589SOL    HW224607   2.963   4.059  14.343
 7590SOL     OW24608  14.094   3.873  11.125
 7590SOL    HW124609  14.190   3.876  11.124
 7590SOL    HW224610  14.070   3.929  11.198
 7591SOL     OW24611  10.618  13.574  12.641
 7591SOL    HW124612  10.556  13.643  12.663
 7591SOL    HW224613  10.684  13.616  12.586
 7592SOL     OW24614   6.647  13.959   6.097
 7592SOL    HW124615   6.604  13.902   6.033
 7592SOL    HW224616   6.713  13.903   6.138
 7593SOL     OW24617  11.456   4.392  10.394
 7593SOL    HW124618  11.493   4.314  10.435
 7593SOL    HW224619  11.507   4.404  10.314
 7594SOL     OW24620   2.884   3.245   5.485
 7594SOL    HW124621   2.946   3.235   5.557
 7594SOL    HW224622   2.876   3.157   5.448
 7595SOL     OW24623   3.569   9.791   3.480
 7595SOL    HW124624   3.478   9.820   3.476
 7595SOL    HW224625   3.619   9.863   3.441
 7596SOL     OW24626  14.085   1.667   5.221
 7596SOL    HW124627  14.019   1.735   5.237
 7596SOL    HW224628  14.069   1.638   5.131
 7597SOL     OW24629   8.800   8.323  10.965
 7597SOL    HW124630   8.844   8.363  10.891
 7597SOL    HW224631   8.817   8.381  11.039
 7598SOL     OW24632   2.008  10.371  14.633
 7598SOL    HW124633   1.931  10.423  14.655
 7598SOL    HW224634   2.062  10.373  14.711
 7599SOL     OW24635  13.712   5.100   7.560
 7599SOL    HW124636  13.703   5.008   7.533
 7599SOL    HW224637  13.806   5.111   7.575
 7600SOL     OW24638   1.415   9.571  13.864
 7600SOL    HW124639   1.340   9.629  13.852
 7600SOL    HW224640   1.394   9.493  13.813
 7601SOL     OW24641   9.714   3.329  13.761
 7601SOL    HW124642   9.759   3.245  13.775
 7601SOL    HW224643   9.784   3.389  13.736
 7602SOL     OW24644  13.229   4.407   3.011
 7602SOL    HW124645  13.292   4.477   2.992
 7602SOL    HW224646  13.197   4.380   2.925
 7603SOL     OW24647  11.824  12.836   6.701
 7603SOL    HW124648  11.870  12.758   6.669
 7603SOL    HW224649  11.743  12.839   6.650
 7604SOL     OW24650  11.397   2.388   0.993
 7604SOL    HW124651  11.394   2.476   1.032
 7604SOL    HW224652  11.477   2.349   1.027
 7605SOL     OW24653   0.495  12.496   4.518
 7605SOL    HW124654   0.451  12.413   4.496
 7605SOL    HW224655   0.433  12.564   4.491
 7606SOL     OW24656   9.545   2.919   3.811
 7606SOL    HW124657   9.568   2.933   3.902
 7606SOL    HW224658   9.608   2.971   3.761
 7607SOL     OW24659   0.941   8.838   0.416
 7607SOL    HW124660   1.037   8.841   0.416
 7607SOL    HW224661   0.914   8.922   0.452
 7608SOL     OW24662  11.392  10.952   2.947
 7608SOL    HW124663  11.481  10.977   2.923
 7608SOL    HW224664  11.358  11.026   2.997
 7609SOL     OW24665   2.884  10.810  11.084
 7609SOL    HW124666   2.864  10.870  11.012
 7609SOL    HW224667   2.881  10.723  11.044
 7610SOL     OW24668   3.949  12.521  13.662
 7610SOL    HW124669   3.960  12.432  13.696
 7610SOL    HW224670   3.966  12.578  13.737
 7611SOL     OW24671   3.267   3.216   3.481
 7611SOL    HW124672   3.226   3.253   3.403
 7611SOL    HW224673   3.197   3.167   3.524
 7612SOL     OW24674   1.774   1.517   8.025
 7612SOL    HW124675   1.791   1.483   7.937
 7612SOL    HW224676   1.718   1.593   8.011
 7613SOL     OW24677  12.800   7.784   5.045
 7613SOL    HW124678  12.880   7.790   5.097
 7613SOL    HW224679  12.748   7.860   5.071
 7614SOL     OW24680   8.162   4.057   4.149
 7614SOL    HW124681   8.164   3.968   4.113
 7614SOL    HW224682   8.112   4.108   4.085
 7615SOL     OW24683  14.154   2.077  12.358
 7615SOL    HW124684  14.248   2.068  12.344
 7615SOL    HW224685  14.121   2.121  12.280
 7616SOL     OW24686   3.765  11.384  10.691
 7616SOL    HW124687   3.735  11.426  10.771
 7616SOL    HW224688   3.794  11.456  10.635
 7617SOL     OW24689  13.834  11.129  12.781
 7617SOL    HW124690  13.742  11.104  12.781
 7617SOL    HW224691  13.873  11.077  12.711
 7618SOL     OW24692  14.027  13.521   5.910
 7618SOL    HW124693  14.046  13.469   5.988
 7618SOL    HW224694  13.974  13.462   5.855
 7619SOL     OW24695   6.234   3.332   1.223
 7619SOL    HW124696   6.258   3.421   1.250
 7619SOL    HW224697   6.235   3.335   1.128
 7620SOL     OW24698   7.711  10.122   5.517
 7620SOL    HW124699   7.713  10.217   5.528
 7620SOL    HW224700   7.769  10.105   5.442
 7621SOL     OW24701  11.228  13.174   1.635
 7621SOL    HW124702  11.214  13.255   1.586
 7621SOL    HW224703  11.188  13.106   1.581
 7622SOL     OW24704   2.374   1.662   8.110
 7622SOL    HW124705   2.420   1.591   8.155
 7622SOL    HW224706   2.321   1.618   8.043
 7623SOL     OW24707   1.168   5.742  14.730
 7623SOL    HW124708   1.126   5.661  14.700
 7623SOL    HW224709   1.116   5.812  14.690
 7624SOL     OW24710  14.287  10.047   8.028
 7624SOL    HW124711  14.357  10.016   8.085
 7624SOL    HW224712  14.331  10.092   7.956
 7625SOL     OW24713  13.388   9.126  13.393
 7625SOL    HW124714  13.443   9.055  13.358
 7625SOL    HW224715  13.310   9.124  13.339
 7626SOL     OW24716   5.669   0.112  12.585
 7626SOL    HW124717   5.591   0.093  12.534
 7626SOL    HW224718   5.721   0.170  12.529
 7627SOL     OW24719   5.027   8.620  11.428
 7627SOL    HW124720   5.103   8.577  11.391
 7627SOL    HW224721   4.959   8.552  11.430
 7628SOL     OW24722   4.197   3.775  14.317
 7628SOL    HW124723   4.186   3.700  14.259
 7628SOL    HW224724   4.120   3.774  14.373
 7629SOL     OW24725   1.922   4.805   0.278
 7629SOL    HW124726   1.917   4.861   0.201
 7629SOL    HW224727   2.014   4.780   0.284
 7630SOL     OW24728   6.018  13.142  12.478
 7630SOL    HW124729   5.950  13.142  12.411
 7630SOL    HW224730   5.990  13.076  12.541
 7631SOL     OW24731   8.484   5.694   6.178
 7631SOL    HW124732   8.398   5.700   6.219
 7631SOL    HW224733   8.507   5.601   6.184
 7632SOL     OW24734   9.069  13.000   9.769
 7632SOL    HW124735   9.014  12.946   9.825
 7632SOL    HW224736   9.159  12.977   9.794
 7633SOL     OW24737   3.561  12.282   4.811
 7633SOL    HW124738   3.517  12.286   4.726
 7633SOL    HW224739   3.629  12.349   4.806
 7634SOL     OW24740   1.641   8.353  12.722
 7634SOL    HW124741   1.551   8.374  12.696
 7634SOL    HW224742   1.694   8.420  12.679
 7635SOL     OW24743   5.844  12.196   1.541
 7635SOL    HW124744   5.777  12.135   1.510
 7635SOL    HW224745   5.917  12.183   1.481
 7636SOL     OW24746   6.461   2.065   6.140
 7636SOL    HW124747   6.464   2.134   6.074
 7636SOL    HW224748   6.404   1.998   6.103
 7637SOL     OW24749   2.765   3.166   9.705
 7637SOL    HW124750   2.859   3.165   9.690
 7637SOL    HW224751   2.748   3.087   9.757
 7638SOL     OW24752   5.373  10.050   7.787
 7638SOL    HW124753   5.351   9.992   7.860
 7638SOL    HW224754   5.443  10.106   7.820
 7639SOL     OW24755  14.595   0.418   2.827
 7639SOL    HW124756  14.590   0.514   2.835
 7639SOL    HW224757  14.555   0.399   2.742
 7640SOL     OW24758   7.415  14.875   7.116
 7640SOL    HW124759   7.337   0.018   7.064
 7640SOL    HW224760   7.397   0.035   7.202
 7641SOL     OW24761  11.212   3.899  11.845
 7641SOL    HW124762  11.182   3.949  11.769
 7641SOL    HW224763  11.132   3.877  11.892
 7642SOL     OW24764   8.162   2.875   7.708
 7642SOL    HW124765   8.227   2.879   7.779
 7642SOL    HW224766   8.078   2.866   7.753
 7643SOL     OW24767   4.473  14.445   8.344
 7643SOL    HW124768   4.567  14.447   8.363
 7643SOL    HW224769   4.465  14.491   8.260
 7644SOL     OW24770   8.165  14.812  12.188
 7644SOL    HW124771   8.158  14.789  12.280
 7644SOL    HW224772   8.215   0.017  12.187
 7645SOL     OW24773  13.964   2.512   8.504
 7645SOL    HW124774  14.022   2.554   8.440
 7645SOL    HW224775  14.016   2.439   8.538
 7646SOL     OW24776  12.797   6.901  12.843
 7646SOL    HW124777  12.808   6.983  12.794
 7646SOL    HW224778  12.726   6.855  12.797
 7647SOL     OW24779  10.005  13.049  13.987
 7647SOL    HW124780   9.965  12.975  13.943
 7647SOL    HW224781  10.049  13.011  14.063
 7648SOL     OW24782  12.346  10.800   8.335
 7648SOL    HW124783  12.280  10.865   8.309
 7648SOL    HW224784  12.422  10.852   8.360
 7649SOL     OW24785  10.856   3.563   2.453
 7649SOL    HW124786  10.938   3.604   2.427
 7649SOL    HW224787  10.797   3.580   2.379
 7650SOL     OW24788   0.109  13.704   1.314
 7650SOL    HW124789   0.034  13.707   1.255
 7650SOL    HW224790   0.185  13.698   1.256
 7651SOL     OW24791  13.962  13.356   3.589
 7651SOL    HW124792  14.037  13.407   3.620
 7651SOL    HW224793  14.001  13.275   3.555
 7652SOL     OW24794   1.864   2.159   2.747
 7652SOL    HW124795   1.936   2.219   2.765
 7652SOL    HW224796   1.856   2.159   2.651
 7653SOL     OW24797   5.253  11.742   4.434
 7653SOL    HW124798   5.249  11.683   4.358
 7653SOL    HW224799   5.165  11.779   4.440
 7654SOL     OW24800   8.586   8.590   0.189
 7654SOL    HW124801   8.606   8.558   0.276
 7654SOL    HW224802   8.535   8.669   0.203
 7655SOL     OW24803   2.997   6.724  13.487
 7655SOL    HW124804   2.920   6.753  13.438
 7655SOL    HW224805   3.001   6.630  13.472
 7656SOL     OW24806   3.774   1.356   6.952
 7656SOL    HW124807   3.757   1.266   6.980
 7656SOL    HW224808   3.780   1.352   6.857
 7657SOL     OW24809   1.331  14.608   7.445
 7657SOL    HW124810   1.423  14.595   7.424
 7657SOL    HW224811   1.319  14.703   7.439
 7658SOL     OW24812   2.002   5.787   2.640
 7658SOL    HW124813   2.038   5.742   2.716
 7658SOL    HW224814   2.037   5.739   2.565
 7659SOL     OW24815   7.967  12.235  13.145
 7659SOL    HW124816   8.056  12.231  13.181
 7659SOL    HW224817   7.921  12.295  13.204
 7660SOL     OW24818   7.065   5.443   6.714
 7660SOL    HW124819   7.051   5.358   6.674
 7660SOL    HW224820   7.151   5.436   6.757
 7661SOL     OW24821   3.972   1.059   5.827
 7661SOL    HW124822   4.060   1.042   5.796
 7661SOL    HW224823   3.968   1.154   5.837
 7662SOL     OW24824   7.586   2.879   3.979
 7662SOL    HW124825   7.623   2.867   4.066
 7662SOL    HW224826   7.528   2.955   3.987
 7663SOL     OW24827   5.135   2.521  11.243
 7663SOL    HW124828   5.153   2.435  11.282
 7663SOL    HW224829   5.044   2.517  11.215
 7664SOL     OW24830   7.799  13.574   3.697
 7664SOL    HW124831   7.764  13.485   3.694
 7664SOL    HW224832   7.788  13.601   3.788
 7665SOL     OW24833   8.190   8.775   1.061
 7665SOL    HW124834   8.141   8.847   1.022
 7665SOL    HW224835   8.132   8.699   1.052
 7666SOL     OW24836   3.675   7.064  12.852
 7666SOL    HW124837   3.649   7.095  12.766
 7666SOL    HW224838   3.623   6.984  12.866
 7667SOL     OW24839  12.161   1.735   2.084
 7667SOL    HW124840  12.107   1.731   2.163
 7667SOL    HW224841  12.142   1.654   2.037
 7668SOL     OW24842   9.677   8.511   4.984
 7668SOL    HW124843   9.724   8.578   5.034
 7668SOL    HW224844   9.685   8.538   4.893
 7669SOL     OW24845   0.420  13.663   9.055
 7669SOL    HW124846   0.451  13.722   8.986
 7669SOL    HW224847   0.327  13.650   9.035
 7670SOL     OW24848   1.070   6.331   2.097
 7670SOL    HW124849   1.129   6.277   2.045
 7670SOL    HW224850   0.983   6.297   2.077
 7671SOL     OW24851  14.242  14.792  13.766
 7671SOL    HW124852  14.147  14.794  13.777
 7671SOL    HW224853  14.276  14.808  13.854
 7672SOL     OW24854   8.408   8.545   8.594
 7672SOL    HW124855   8.429   8.555   8.687
 7672SOL    HW224856   8.490   8.514   8.554
 7673SOL     OW24857   4.017  13.564   8.746
 7673SOL    HW124858   4.041  13.613   8.668
 7673SOL    HW224859   4.065  13.482   8.739
 7674SOL     OW24860   9.734  10.131   2.778
 7674SOL    HW124861   9.829  10.130   2.793
 7674SOL    HW224862   9.698  10.076   2.847
 7675SOL     OW24863   0.131  10.552  13.795
 7675SOL    HW124864   0.152  10.468  13.836
 7675SOL    HW224865   0.141  10.617  13.865
 7676SOL     OW24866   3.902  11.657  11.131
 7676SOL    HW124867   3.996  11.664  11.117
 7676SOL    HW224868   3.893  11.611  11.214
 7677SOL     OW24869   8.077   6.295   2.799
 7677SOL    HW124870   8.171   6.280   2.795
 7677SOL    HW224871   8.045   6.274   2.711
 7678SOL     OW24872  10.817   3.551  10.714
 7678SOL    HW124873  10.743   3.489  10.719
 7678SOL    HW224874  10.895   3.495  10.718
 7679SOL     OW24875   4.198   6.320   7.867
 7679SOL    HW124876   4.263   6.336   7.799
 7679SOL    HW224877   4.239   6.351   7.948
 7680SOL     OW24878  12.189   4.099  14.120
 7680SOL    HW124879  12.231   4.141  14.045
 7680SOL    HW224880  12.136   4.167  14.160
 7681SOL     OW24881   2.581  10.961   8.189
 7681SOL    HW124882   2.662  10.931   8.149
 7681SOL    HW224883   2.562  11.045   8.147
 7682SOL     OW24884  13.029   0.644   2.988
 7682SOL    HW124885  13.096   0.710   3.007
 7682SOL    HW224886  13.068   0.561   3.017
 7683SOL     OW24887   7.450   7.420  14.206
 7683SOL    HW124888   7.504   7.405  14.129
 7683SOL    HW224889   7.459   7.340  14.257
 7684SOL     OW24890   6.826  12.719   5.483
 7684SOL    HW124891   6.854  12.716   5.392
 7684SOL    HW224892   6.868  12.643   5.524
 7685SOL     OW24893  14.409   5.684   2.113
 7685SOL    HW124894  14.495   5.701   2.152
 7685SOL    HW224895  14.415   5.719   2.024
 7686SOL     OW24896   5.807  12.125   3.620
 7686SOL    HW124897   5.896  12.155   3.634
 7686SOL    HW224898   5.797  12.120   3.525
 7687SOL     OW24899   3.225   9.528   4.856
 7687SOL    HW124900   3.301   9.547   4.911
 7687SOL    HW224901   3.251   9.452   4.804
 7688SOL     OW24902   6.149   3.763   7.465
 7688SOL    HW124903   6.140   3.668   7.473
 7688SOL    HW224904   6.240   3.776   7.440
 7689SOL     OW24905  14.265  10.411   3.270
 7689SOL    HW124906  14.240  10.371   3.187
 7689SOL    HW224907  14.291  10.500   3.247
 7690SOL     OW24908  10.542   9.560   6.083
 7690SOL    HW124909  10.464   9.543   6.029
 7690SOL    HW224910  10.507   9.593   6.165
 7691SOL     OW24911   6.840   4.520   9.299
 7691SOL    HW124912   6.910   4.579   9.273
 7691SOL    HW224913   6.788   4.507   9.220
 7692SOL     OW24914  13.124   6.079   6.854
 7692SOL    HW124915  13.055   6.143   6.838
 7692SOL    HW224916  13.129   6.028   6.773
 7693SOL     OW24917   8.813   1.651   4.962
 7693SOL    HW124918   8.784   1.564   4.991
 7693SOL    HW224919   8.739   1.685   4.911
 7694SOL     OW24920   5.910   9.884   9.994
 7694SOL    HW124921   5.854   9.960  10.009
 7694SOL    HW224922   5.851   9.809   9.998
 7695SOL     OW24923   7.146   6.889  14.105
 7695SOL    HW124924   7.218   6.829  14.084
 7695SOL    HW224925   7.176   6.974  14.073
 7696SOL     OW24926   6.236  11.254   4.022
 7696SOL    HW124927   6.329  11.230   4.022
 7696SOL    HW224928   6.223  11.304   3.942
 7697SOL     OW24929   4.721  10.186   1.458
 7697SOL    HW124930   4.694  10.178   1.549
 7697SOL    HW224931   4.817  10.187   1.461
 7698SOL     OW24932   8.262   7.650   9.427
 7698SOL    HW124933   8.231   7.622   9.513
 7698SOL    HW224934   8.226   7.586   9.366
 7699SOL     OW24935   0.526   2.624   7.557
 7699SOL    HW124936   0.466   2.694   7.582
 7699SOL    HW224937   0.528   2.565   7.633
 7700SOL     OW24938   7.582   0.963   3.194
 7700SOL    HW124939   7.612   1.053   3.206
 7700SOL    HW224940   7.486   0.969   3.198
 7701SOL     OW24941  13.063   9.117   5.604
 7701SOL    HW124942  13.146   9.132   5.649
 7701SOL    HW224943  13.082   9.132   5.512
 7702SOL     OW24944   3.506   0.688   4.168
 7702SOL    HW124945   3.475   0.752   4.104
 7702SOL    HW224946   3.468   0.605   4.139
 7703SOL     OW24947   9.857   0.051   0.372
 7703SOL    HW124948   9.788  14.873   0.334
 7703SOL    HW224949   9.882   0.007   0.453
 7704SOL     OW24950   1.602  12.938   0.466
 7704SOL    HW124951   1.516  12.896   0.477
 7704SOL    HW224952   1.634  12.906   0.382
 7705SOL     OW24953   3.940   0.140   2.910
 7705SOL    HW124954   3.923   0.060   2.960
 7705SOL    HW224955   3.891   0.129   2.829
 7706SOL     OW24956  13.942   4.363  10.541
 7706SOL    HW124957  13.990   4.421  10.482
 7706SOL    HW224958  13.857   4.406  10.554
 7707SOL     OW24959   0.493   4.279   0.157
 7707SOL    HW124960   0.519   4.207   0.216
 7707SOL    HW224961   0.551   4.351   0.181
 7708SOL     OW24962   1.194  14.184  14.471
 7708SOL    HW124963   1.233  14.166  14.385
 7708SOL    HW224964   1.224  14.273  14.492
 7709SOL     OW24965  14.795  14.701   2.996
 7709SOL    HW124966  14.739  14.654   2.935
 7709SOL    HW224967  14.736  14.728   3.067
 7710SOL     OW24968   6.274   8.882   4.797
 7710SOL    HW124969   6.332   8.958   4.792
 7710SOL    HW224970   6.238   8.885   4.885
 7711SOL     OW24971   9.761   8.351   2.938
 7711SOL    HW124972   9.777   8.324   2.848
 7711SOL    HW224973   9.693   8.291   2.969
 7712SOL     OW24974   3.922   4.405  10.233
 7712SOL    HW124975   3.869   4.369  10.161
 7712SOL    HW224976   4.012   4.387  10.208
 7713SOL     OW24977   5.843   0.608   3.517
 7713SOL    HW124978   5.811   0.597   3.606
 7713SOL    HW224979   5.764   0.620   3.464
 7714SOL     OW24980  11.265   5.519   1.424
 7714SOL    HW124981  11.297   5.570   1.498
 7714SOL    HW224982  11.255   5.582   1.353
 7715SOL     OW24983   9.528   6.757   2.938
 7715SOL    HW124984   9.454   6.781   2.994
 7715SOL    HW224985   9.545   6.835   2.886
 7716SOL     OW24986   1.667   1.677   1.985
 7716SOL    HW124987   1.608   1.718   2.049
 7716SOL    HW224988   1.637   1.586   1.980
 7717SOL     OW24989   2.145   2.238   7.157
 7717SOL    HW124990   2.049   2.236   7.159
 7717SOL    HW224991   2.169   2.184   7.081
 7718SOL     OW24992   6.159   7.531   2.523
 7718SOL    HW124993   6.202   7.483   2.452
 7718SOL    HW224994   6.184   7.484   2.602
 7719SOL     OW24995   1.307   4.737  10.108
 7719SOL    HW124996   1.219   4.774  10.101
 7719SOL    HW224997   1.354   4.772  10.033
 7720SOL     OW24998   1.929   6.805   0.672
 7720SOL    HW124999   1.846   6.779   0.632
 7720SOL    HW225000   1.969   6.864   0.609
 7721SOL     OW25001   8.738   8.770   6.610
 7721SOL    HW125002   8.689   8.849   6.632
 7721SOL    HW225003   8.714   8.753   6.518
 7722SOL     OW25004  13.067   0.931   0.226
 7722SOL    HW125005  13.151   0.963   0.195
 7722SOL    HW225006  13.060   0.962   0.316
 7723SOL     OW25007   9.591  13.850   6.365
 7723SOL    HW125008   9.674  13.847   6.413
 7723SOL    HW225009   9.580  13.761   6.332
 7724SOL     OW25010  11.576  11.343   5.750
 7724SOL    HW125011  11.531  11.263   5.779
 7724SOL    HW225012  11.650  11.311   5.699
 7725SOL     OW25013   9.861  10.083   9.949
 7725SOL    HW125014   9.943  10.091   9.900
 7725SOL    HW225015   9.794  10.069   9.882
 7726SOL     OW25016   7.180  14.383   0.488
 7726SOL    HW125017   7.252  14.444   0.468
 7726SOL    HW225018   7.213  14.333   0.563
 7727SOL     OW25019   2.034   6.519  14.067
 7727SOL    HW125020   2.096   6.446  14.075
 7727SOL    HW225021   2.008   6.519  13.975
 7728SOL     OW25022  12.073   2.199  10.247
 7728SOL    HW125023  12.049   2.273  10.192
 7728SOL    HW225024  12.068   2.232  10.336
 7729SOL     OW25025  10.527   2.943   8.422
 7729SOL    HW125026  10.620   2.919   8.415
 7729SOL    HW225027  10.509   2.941   8.516
 7730SOL     OW25028  11.507   3.684  11.468
 7730SOL    HW125029  11.585   3.736  11.488
 7730SOL    HW225030  11.461   3.675  11.551
 7731SOL     OW25031   4.826   3.559   8.823
 7731SOL    HW125032   4.831   3.472   8.862
 7731SOL    HW225033   4.886   3.612   8.876
 7732SOL     OW25034   7.889   6.342  13.743
 7732SOL    HW125035   7.984   6.346  13.734
 7732SOL    HW225036   7.856   6.377  13.660
 7733SOL     OW25037  12.871  12.197   1.420
 7733SOL    HW125038  12.962  12.227   1.424
 7733SOL    HW225039  12.821  12.276   1.397
 7734SOL     OW25040   9.099  10.865  13.803
 7734SOL    HW125041   9.023  10.807  13.794
 7734SOL    HW225042   9.172  10.806  13.819
 7735SOL     OW25043  13.865   8.354   4.897
 7735SOL    HW125044  13.937   8.360   4.960
 7735SOL    HW225045  13.802   8.420   4.925
 7736SOL     OW25046  12.168   7.882  11.728
 7736SOL    HW125047  12.235   7.949  11.711
 7736SOL    HW225048  12.145   7.895  11.820
 7737SOL     OW25049  14.386   7.569   6.529
 7737SOL    HW125050  14.435   7.494   6.495
 7737SOL    HW225051  14.453   7.637   6.542
 7738SOL     OW25052  11.056   7.126   6.526
 7738SOL    HW125053  10.995   7.194   6.556
 7738SOL    HW225054  11.057   7.136   6.431
 7739SOL     OW25055   6.115   8.053   5.925
 7739SOL    HW125056   6.187   8.038   5.864
 7739SOL    HW225057   6.146   8.018   6.008
 7740SOL     OW25058   9.720  14.429   9.395
 7740SOL    HW125059   9.740  14.337   9.409
 7740SOL    HW225060   9.677  14.457   9.476
 7741SOL     OW25061   9.176   2.849   9.152
 7741SOL    HW125062   9.207   2.794   9.224
 7741SOL    HW225063   9.121   2.915   9.194
 7742SOL     OW25064   2.114   6.754   5.857
 7742SOL    HW125065   2.205   6.732   5.874
 7742SOL    HW225066   2.101   6.839   5.899
 7743SOL     OW25067   5.607   2.251   2.728
 7743SOL    HW125068   5.672   2.208   2.673
 7743SOL    HW225069   5.580   2.328   2.677
 7744SOL     OW25070   6.098   4.900   6.706
 7744SOL    HW125071   6.150   4.823   6.728
 7744SOL    HW225072   6.161   4.971   6.700
 7745SOL     OW25073   0.030   4.335  14.382
 7745SOL    HW125074  14.873   4.327  14.293
 7745SOL    HW225075   0.112   4.285  14.381
 7746SOL     OW25076   0.339   3.091   7.220
 7746SOL    HW125077   0.358   3.134   7.303
 7746SOL    HW225078   0.414   3.111   7.164
 7747SOL     OW25079  11.852   1.993   8.534
 7747SOL    HW125080  11.846   2.004   8.629
 7747SOL    HW225081  11.803   2.066   8.497
 7748SOL     OW25082   5.438   0.861   2.247
 7748SOL    HW125083   5.485   0.825   2.172
 7748SOL    HW225084   5.347   0.832   2.234
 7749SOL     OW25085   9.399   1.808  12.646
 7749SOL    HW125086   9.471   1.813  12.583
 7749SOL    HW225087   9.395   1.895  12.685
 7750SOL     OW25088   5.343   2.492   5.363
 7750SOL    HW125089   5.428   2.511   5.402
 7750SOL    HW225090   5.328   2.565   5.302
 7751SOL     OW25091   6.221   4.653  12.103
 7751SOL    HW125092   6.171   4.730  12.076
 7751SOL    HW225093   6.250   4.614  12.021
 7752SOL     OW25094   6.505   8.848  10.555
 7752SOL    HW125095   6.553   8.909  10.499
 7752SOL    HW225096   6.444   8.903  10.603
 7753SOL     OW25097  11.582   6.196  11.735
 7753SOL    HW125098  11.506   6.180  11.679
 7753SOL    HW225099  11.547   6.236  11.814
 7754SOL     OW25100  13.470   3.999  11.094
 7754SOL    HW125101  13.450   3.986  11.002
 7754SOL    HW225102  13.544   3.940  11.111
 7755SOL     OW25103   0.121  14.490   3.015
 7755SOL    HW125104   0.191  14.556   3.021
 7755SOL    HW225105   0.042  14.541   2.996
 7756SOL     OW25106   3.609   1.594  14.526
 7756SOL    HW125107   3.647   1.534  14.462
 7756SOL    HW225108   3.535   1.545  14.562
 7757SOL     OW25109  10.025   1.230   6.099
 7757SOL    HW125110   9.987   1.265   6.179
 7757SOL    HW225111  10.005   1.296   6.032
 7758SOL     OW25112  11.863   5.853   5.958
 7758SOL    HW125113  11.799   5.782   5.970
 7758SOL    HW225114  11.900   5.866   6.045
 7759SOL     OW25115  10.294  10.859   7.037
 7759SOL    HW125116  10.202  10.874   7.056
 7759SOL    HW225117  10.335  10.847   7.123
 7760SOL     OW25118   8.052   5.721   2.971
 7760SOL    HW125119   8.004   5.665   3.032
 7760SOL    HW225120   7.984   5.772   2.927
 7761SOL     OW25121  13.726   1.671   2.396
 7761SOL    HW125122  13.660   1.728   2.434
 7761SOL    HW225123  13.778   1.728   2.339
 7762SOL     OW25124   9.762   4.658   5.316
 7762SOL    HW125125   9.739   4.666   5.223
 7762SOL    HW225126   9.833   4.720   5.328
 7763SOL     OW25127  13.602  12.036   1.314
 7763SOL    HW125128  13.666  11.998   1.253
 7763SOL    HW225129  13.563  11.960   1.358
 7764SOL     OW25130   2.785   8.963   6.432
 7764SOL    HW125131   2.769   8.910   6.510
 7764SOL    HW225132   2.723   8.929   6.368
 7765SOL     OW25133   0.763  12.637   8.720
 7765SOL    HW125134   0.775  12.543   8.737
 7765SOL    HW225135   0.723  12.671   8.800
 7766SOL     OW25136   7.667   7.035   8.883
 7766SOL    HW125137   7.706   7.017   8.798
 7766SOL    HW225138   7.681   6.956   8.934
 7767SOL     OW25139   8.336   3.002  14.400
 7767SOL    HW125140   8.259   2.976  14.450
 7767SOL    HW225141   8.354   3.092  14.428
 7768SOL     OW25142   2.290   6.297   6.411
 7768SOL    HW125143   2.339   6.248   6.345
 7768SOL    HW225144   2.210   6.245   6.426
 7769SOL     OW25145  14.632   6.378   8.394
 7769SOL    HW125146  14.684   6.369   8.474
 7769SOL    HW225147  14.580   6.457   8.408
 7770SOL     OW25148   2.067   5.788  13.771
 7770SOL    HW125149   2.069   5.793  13.866
 7770SOL    HW225150   2.137   5.727  13.748
 7771SOL     OW25151  12.266  11.393  11.899
 7771SOL    HW125152  12.200  11.333  11.865
 7771SOL    HW225153  12.299  11.351  11.979
 7772SOL     OW25154   8.029   5.206   9.575
 7772SOL    HW125155   8.001   5.115   9.565
 7772SOL    HW225156   7.957   5.257   9.538
 7773SOL     OW25157   1.773   4.642   3.099
 7773SOL    HW125158   1.783   4.639   3.004
 7773SOL    HW225159   1.827   4.716   3.127
 7774SOL     OW25160  13.200  10.107   3.546
 7774SOL    HW125161  13.283  10.064   3.567
 7774SOL    HW225162  13.154  10.045   3.491
 7775SOL     OW25163   9.545  11.647  14.364
 7775SOL    HW125164   9.508  11.603  14.440
 7775SOL    HW225165   9.552  11.739  14.390
 7776SOL     OW25166  12.983  13.547  12.213
 7776SOL    HW125167  13.061  13.514  12.258
 7776SOL    HW225168  13.017  13.588  12.133
 7777SOL     OW25169  13.219   7.558   2.919
 7777SOL    HW125170  13.255   7.647   2.915
 7777SOL    HW225171  13.148   7.558   2.855
 7778SOL     OW25172   1.195   9.031   8.508
 7778SOL    HW125173   1.275   8.991   8.542
 7778SOL    HW225174   1.217   9.059   8.420
 7779SOL     OW25175   0.083   8.826   7.424
 7779SOL    HW125176   0.061   8.758   7.488
 7779SOL    HW225177   0.036   8.800   7.345
 7780SOL     OW25178   1.712   5.252   8.962
 7780SOL    HW125179   1.631   5.297   8.986
 7780SOL    HW225180   1.781   5.302   9.004
 7781SOL     OW25181   4.819  12.755  10.725
 7781SOL    HW125182   4.759  12.681  10.733
 7781SOL    HW225183   4.833  12.784  10.815
 7782SOL     OW25184   8.704  11.340   4.462
 7782SOL    HW125185   8.708  11.321   4.556
 7782SOL    HW225186   8.724  11.256   4.420
 7783SOL     OW25187  10.196  11.000  14.075
 7783SOL    HW125188  10.262  10.936  14.102
 7783SOL    HW225189  10.240  11.085  14.085
 7784SOL     OW25190   2.109   1.470  14.281
 7784SOL    HW125191   2.083   1.483  14.190
 7784SOL    HW225192   2.165   1.545  14.301
 7785SOL     OW25193   3.008   1.811  14.152
 7785SOL    HW125194   3.055   1.894  14.159
 7785SOL    HW225195   3.001   1.795  14.058
 7786SOL     OW25196   4.146   7.563   5.288
 7786SOL    HW125197   4.076   7.498   5.282
 7786SOL    HW225198   4.130   7.623   5.215
 7787SOL     OW25199  10.890  14.736   8.176
 7787SOL    HW125200  10.939  14.790   8.114
 7787SOL    HW225201  10.955  14.680   8.217
 7788SOL     OW25202   6.269  11.361  12.613
 7788SOL    HW125203   6.267  11.335  12.704
 7788SOL    HW225204   6.339  11.308  12.574
 7789SOL     OW25205  10.089   8.428  12.066
 7789SOL    HW125206   9.994   8.422  12.077
 7789SOL    HW225207  10.113   8.345  12.024
 7790SOL     OW25208   0.618   5.673   6.955
 7790SOL    HW125209   0.682   5.744   6.945
 7790SOL    HW225210   0.569   5.695   7.033
 7791SOL     OW25211  12.388   4.987  11.936
 7791SOL    HW125212  12.466   5.023  11.894
 7791SOL    HW225213  12.368   4.908  11.886
 7792SOL     OW25214   3.716  14.468   5.201
 7792SOL    HW125215   3.665  14.435   5.127
 7792SOL    HW225216   3.652  14.481   5.271
 7793SOL     OW25217  14.481   1.246   5.204
 7793SOL    HW125218  14.534   1.245   5.124
 7793SOL    HW225219  14.462   1.153   5.220
 7794SOL     OW25220   8.265   5.110   8.945
 7794SOL    HW125221   8.179   5.149   8.961
 7794SOL    HW225222   8.325   5.184   8.945
 7795SOL     OW25223   7.781   2.837  13.752
 7795SOL    HW125224   7.743   2.890  13.822
 7795SOL    HW225225   7.837   2.775  13.797
 7796SOL     OW25226   2.189   0.418   1.088
 7796SOL    HW125227   2.139   0.437   1.167
 7796SOL    HW225228   2.242   0.341   1.111
 7797SOL     OW25229  13.044   4.194   5.953
 7797SOL    HW125230  13.019   4.119   6.006
 7797SOL    HW225231  12.983   4.194   5.880
 7798SOL     OW25232  13.782   4.206   4.767
 7798SOL    HW125233  13.773   4.221   4.862
 7798SOL    HW225234  13.868   4.242   4.746
 7799SOL     OW25235  10.170   5.584   7.392
 7799SOL    HW125236  10.124   5.644   7.334
 7799SOL    HW225237  10.247   5.557   7.342
 7800SOL     OW25238   1.150  13.423   3.619
 7800SOL    HW125239   1.117  13.344   3.577
 7800SOL    HW225240   1.245  13.417   3.610
 7801SOL     OW25241   9.909   2.446  13.861
 7801SOL    HW125242   9.876   2.376  13.919
 7801SOL    HW225243   9.966   2.400  13.799
 7802SOL     OW25244   2.810   1.807   2.816
 7802SOL    HW125245   2.729   1.760   2.798
 7802SOL    HW225246   2.864   1.792   2.738
 7803SOL     OW25247   4.824  11.584   3.451
 7803SOL    HW125248   4.738  11.547   3.430
 7803SOL    HW225249   4.832  11.660   3.394
 7804SOL     OW25250   5.413   1.787   5.733
 7804SOL    HW125251   5.393   1.880   5.744
 7804SOL    HW225252   5.399   1.750   5.820
 7805SOL     OW25253  11.214  10.929  14.439
 7805SOL    HW125254  11.190  10.999  14.379
 7805SOL    HW225255  11.189  10.849  14.394
 7806SOL     OW25256   3.845   6.749   0.900
 7806SOL    HW125257   3.797   6.735   0.982
 7806SOL    HW225258   3.804   6.689   0.838
 7807SOL     OW25259   8.276  12.220   5.770
 7807SOL    HW125260   8.363  12.261   5.774
 7807SOL    HW225261   8.291  12.137   5.726
 7808SOL     OW25262   0.099  11.958   7.388
 7808SOL    HW125263   0.036  11.920   7.450
 7808SOL    HW225264   0.174  11.898   7.390
 7809SOL     OW25265  13.883   3.143   1.556
 7809SOL    HW125266  13.858   3.153   1.465
 7809SOL    HW225267  13.902   3.232   1.587
 7810SOL     OW25268  14.660   7.588   6.784
 7810SOL    HW125269  14.748   7.623   6.767
 7810SOL    HW225270  14.656   7.508   6.732
 7811SOL     OW25271   8.634   0.337   0.876
 7811SOL    HW125272   8.714   0.285   0.865
 7811SOL    HW225273   8.665   0.422   0.907
 7812SOL     OW25274   0.763   9.708  10.775
 7812SOL    HW125275   0.778   9.615  10.788
 7812SOL    HW225276   0.692   9.729  10.836
 7813SOL     OW25277   2.433   4.491   2.613
 7813SOL    HW125278   2.529   4.490   2.612
 7813SOL    HW225279   2.409   4.507   2.521
 7814SOL     OW25280   4.179   6.364   4.054
 7814SOL    HW125281   4.262   6.378   4.008
 7814SOL    HW225282   4.203   6.352   4.145
 7815SOL     OW25283   8.634  12.505  14.550
 7815SOL    HW125284   8.645  12.412  14.570
 7815SOL    HW225285   8.613  12.508  14.457
 7816SOL     OW25286   8.364   3.677  13.962
 7816SOL    HW125287   8.455   3.695  13.941
 7816SOL    HW225288   8.316   3.753  13.928
 7817SOL     OW25289  14.167  10.170   7.721
 7817SOL    HW125290  14.237  10.118   7.682
 7817SOL    HW225291  14.107  10.105   7.759
 7818SOL     OW25292   1.203   3.959  13.529
 7818SOL    HW125293   1.134   3.930  13.589
 7818SOL    HW225294   1.220   3.883  13.474
 7819SOL     OW25295   4.160   0.264  14.374
 7819SOL    HW125296   4.200   0.351  14.379
 7819SOL    HW225297   4.093   0.273  14.306
 7820SOL     OW25298  13.958  10.966   4.607
 7820SOL    HW125299  14.047  10.941   4.580
 7820SOL    HW225300  13.968  11.053   4.646
 7821SOL     OW25301   3.593   4.338  14.685
 7821SOL    HW125302   3.553   4.252  14.676
 7821SOL    HW225303   3.535   4.397  14.637
 7822SOL     OW25304   2.784   6.708   7.334
 7822SOL    HW125305   2.879   6.708   7.318
 7822SOL    HW225306   2.765   6.618   7.360
 7823SOL     OW25307   3.836   1.591  11.472
 7823SOL    HW125308   3.870   1.641  11.546
 7823SOL    HW225309   3.809   1.507  11.510
 7824SOL     OW25310   1.605   7.847   8.945
 7824SOL    HW125311   1.648   7.877   8.865
 7824SOL    HW225312   1.513   7.865   8.931
 7825SOL     OW25313   3.971   2.591   5.817
 7825SOL    HW125314   3.901   2.532   5.788
 7825SOL    HW225315   4.041   2.533   5.847
 7826SOL     OW25316   1.699   7.540   7.006
 7826SOL    HW125317   1.750   7.557   7.085
 7826SOL    HW225318   1.690   7.625   6.964
 7827SOL     OW25319   9.973   5.359   2.304
 7827SOL    HW125320   9.947   5.327   2.218
 7827SOL    HW225321  10.011   5.445   2.287
 7828SOL     OW25322  13.667   4.768   7.750
 7828SOL    HW125323  13.577   4.792   7.772
 7828SOL    HW225324  13.675   4.677   7.780
 7829SOL     OW25325   3.230  13.227   6.670
 7829SOL    HW125326   3.167  13.168   6.711
 7829SOL    HW225327   3.242  13.297   6.735
 7830SOL     OW25328   0.232   1.565   9.926
 7830SOL    HW125329   0.242   1.473   9.901
 7830SOL    HW225330   0.276   1.613   9.856
 7831SOL     OW25331   3.113  11.511  14.302
 7831SOL    HW125332   3.028  11.509  14.257
 7831SOL    HW225333   3.151  11.425  14.286
 7832SOL     OW25334   3.732   6.446   0.298
 7832SOL    HW125335   3.705   6.537   0.294
 7832SOL    HW225336   3.655   6.396   0.271
 7833SOL     OW25337  14.181  12.882   9.925
 7833SOL    HW125338  14.105  12.824   9.919
 7833SOL    HW225339  14.245  12.831   9.975
 7834SOL     OW25340   3.575  12.595   8.592
 7834SOL    HW125341   3.540  12.611   8.680
 7834SOL    HW225342   3.666  12.625   8.596
 7835SOL     OW25343   3.066   8.503   9.534
 7835SOL    HW125344   3.056   8.471   9.444
 7835SOL    HW225345   3.044   8.596   9.529
 7836SOL     OW25346  10.747   7.692  14.435
 7836SOL    HW125347  10.785   7.660  14.517
 7836SOL    HW225348  10.810   7.756  14.403
 7837SOL     OW25349   2.088   1.034  14.249
 7837SOL    HW125350   2.042   1.108  14.208
 7837SOL    HW225351   2.034   0.958  14.229
 7838SOL     OW25352  11.955   9.671   8.998
 7838SOL    HW125353  11.899   9.601   9.030
 7838SOL    HW225354  11.989   9.639   8.914
 7839SOL     OW25355  11.889  10.024   5.449
 7839SOL    HW125356  11.877  10.118   5.462
 7839SOL    HW225357  11.806   9.995   5.411
 7840SOL     OW25358  12.376  11.735   7.159
 7840SOL    HW125359  12.442  11.720   7.092
 7840SOL    HW225360  12.292  11.730   7.112
 7841SOL     OW25361  11.392   2.323   7.419
 7841SOL    HW125362  11.329   2.251   7.422
 7841SOL    HW225363  11.395   2.356   7.509
 7842SOL     OW25364   2.847  11.290   6.879
 7842SOL    HW125365   2.919  11.281   6.817
 7842SOL    HW225366   2.872  11.364   6.934
 7843SOL     OW25367  12.350   7.972   1.256
 7843SOL    HW125368  12.265   7.937   1.282
 7843SOL    HW225369  12.412   7.931   1.317
 7844SOL     OW25370  12.185  14.815  12.127
 7844SOL    HW125371  12.163  14.771  12.044
 7844SOL    HW225372  12.253  14.760  12.166
 7845SOL     OW25373   9.566   4.590   8.005
 7845SOL    HW125374   9.660   4.579   7.991
 7845SOL    HW225375   9.550   4.549   8.090
 7846SOL     OW25376  14.828   2.829  10.916
 7846SOL    HW125377  14.736   2.834  10.891
 7846SOL    HW225378  14.834   2.752  10.972
 7847SOL     OW25379   8.237   4.190   9.431
 7847SOL    HW125380   8.323   4.231   9.428
 7847SOL    HW225381   8.240   4.136   9.510
 7848SOL     OW25382   0.690  11.238   7.217
 7848SOL    HW125383   0.757  11.226   7.150
 7848SOL    HW225384   0.702  11.328   7.247
 7849SOL     OW25385   4.305   4.063   3.987
 7849SOL    HW125386   4.311   4.010   3.908
 7849SOL    HW225387   4.234   4.024   4.037
 7850SOL     OW25388  10.144  12.655  12.393
 7850SOL    HW125389  10.169  12.599  12.319
 7850SOL    HW225390  10.227  12.670  12.439
 7851SOL     OW25391  14.039   5.942   7.350
 7851SOL    HW125392  13.996   5.877   7.294
 7851SOL    HW225393  13.978   5.955   7.423
 7852SOL     OW25394   9.579   0.330   2.456
 7852SOL    HW125395   9.504   0.271   2.459
 7852SOL    HW225396   9.596   0.352   2.548
 7853SOL     OW25397   7.355   8.883   2.938
 7853SOL    HW125398   7.422   8.893   3.006
 7853SOL    HW225399   7.402   8.894   2.855
 7854SOL     OW25400   1.532   6.141   9.257
 7854SOL    HW125401   1.605   6.197   9.231
 7854SOL    HW225402   1.569   6.079   9.320
 7855SOL     OW25403   8.385  14.370  12.344
 7855SOL    HW125404   8.381  14.308  12.271
 7855SOL    HW225405   8.316  14.343  12.403
 7856SOL     OW25406   4.344  10.933   0.547
 7856SOL    HW125407   4.287  10.943   0.624
 7856SOL    HW225408   4.288  10.891   0.482
 7857SOL     OW25409   3.430   2.436   3.738
 7857SOL    HW125410   3.522   2.442   3.712
 7857SOL    HW225411   3.432   2.388   3.821
 7858SOL     OW25412  12.365   6.956  12.710
 7858SOL    HW125413  12.445   6.944  12.659
 7858SOL    HW225414  12.315   7.021  12.661
 7859SOL     OW25415  11.171  11.298   7.440
 7859SOL    HW125416  11.174  11.372   7.500
 7859SOL    HW225417  11.206  11.332   7.357
 7860SOL     OW25418   1.440   8.894   4.640
 7860SOL    HW125419   1.489   8.878   4.560
 7860SOL    HW225420   1.496   8.952   4.692
 7861SOL     OW25421   8.146   8.054  10.677
 7861SOL    HW125422   8.107   8.131  10.717
 7861SOL    HW225423   8.101   8.045  10.593
 7862SOL     OW25424   9.996   6.132   6.765
 7862SOL    HW125425   9.948   6.049   6.768
 7862SOL    HW225426  10.024   6.139   6.674
 7863SOL     OW25427   9.656  10.186   4.628
 7863SOL    HW125428   9.600  10.208   4.702
 7863SOL    HW225429   9.708  10.111   4.658
 7864SOL     OW25430   2.994   8.700   8.791
 7864SOL    HW125431   3.071   8.643   8.792
 7864SOL    HW225432   2.969   8.709   8.883
 7865SOL     OW25433  14.405   1.622   2.926
 7865SOL    HW125434  14.347   1.611   2.850
 7865SOL    HW225435  14.361   1.686   2.981
 7866SOL     OW25436   3.159  11.597  12.234
 7866SOL    HW125437   3.123  11.520  12.190
 7866SOL    HW225438   3.242  11.614  12.189
 7867SOL     OW25439  13.820  14.382   5.181
 7867SOL    HW125440  13.837  14.475   5.198
 7867SOL    HW225441  13.798  14.346   5.267
 7868SOL     OW25442   6.349  11.067   8.725
 7868SOL    HW125443   6.350  11.112   8.809
 7868SOL    HW225444   6.419  11.108   8.674
 7869SOL     OW25445   1.703  13.329  14.008
 7869SOL    HW125446   1.684  13.312  13.915
 7869SOL    HW225447   1.681  13.421  14.020
 7870SOL     OW25448   9.892   2.051   9.100
 7870SOL    HW125449   9.974   2.007   9.122
 7870SOL    HW225450   9.859   2.084   9.183
 7871SOL     OW25451   1.034  11.890   0.209
 7871SOL    HW125452   1.032  11.892   0.305
 7871SOL    HW225453   1.086  11.812   0.187
 7872SOL     OW25454   1.509   2.459  10.363
 7872SOL    HW125455   1.472   2.408  10.436
 7872SOL    HW225456   1.443   2.454  10.294
 7873SOL     OW25457   1.616   9.959  13.141
 7873SOL    HW125458   1.711   9.958  13.154
 7873SOL    HW225459   1.591  10.050  13.152
 7874SOL     OW25460   0.213   9.727  13.208
 7874SOL    HW125461   0.235   9.645  13.253
 7874SOL    HW225462   0.261   9.723  13.125
 7875SOL     OW25463  13.938  10.335  13.881
 7875SOL    HW125464  13.956  10.277  13.956
 7875SOL    HW225465  14.021  10.336  13.833
 7876SOL     OW25466   7.204   6.697   6.838
 7876SOL    HW125467   7.126   6.747   6.862
 7876SOL    HW225468   7.275   6.738   6.888
 7877SOL     OW25469  13.356  14.483   0.255
 7877SOL    HW125470  13.397  14.566   0.280
 7877SOL    HW225471  13.378  14.422   0.326
 7878SOL     OW25472   5.409  12.454  12.929
 7878SOL    HW125473   5.404  12.379  12.988
 7878SOL    HW225474   5.483  12.436  12.872
 7879SOL     OW25475  14.391   5.315   8.188
 7879SOL    HW125476  14.466   5.273   8.230
 7879SOL    HW225477  14.431   5.380   8.129
 7880SOL     OW25478  10.056   9.152  13.458
 7880SOL    HW125479  10.074   9.200  13.377
 7880SOL    HW225480  10.117   9.187  13.522
 7881SOL     OW25481   5.959  10.445   7.696
 7881SOL    HW125482   5.894  10.488   7.641
 7881SOL    HW225483   5.909  10.380   7.745
 7882SOL     OW25484   3.914  12.326   2.110
 7882SOL    HW125485   3.831  12.366   2.085
 7882SOL    HW225486   3.903  12.233   2.089
 7883SOL     OW25487   9.414   6.933   3.331
 7883SOL    HW125488   9.371   6.920   3.246
 7883SOL    HW225489   9.419   7.028   3.342
 7884SOL     OW25490  14.550   6.723  14.328
 7884SOL    HW125491  14.498   6.650  14.294
 7884SOL    HW225492  14.509   6.746  14.411
 7885SOL     OW25493  12.558  12.637  10.627
 7885SOL    HW125494  12.623  12.582  10.671
 7885SOL    HW225495  12.548  12.597  10.541
 7886SOL     OW25496   4.140   8.601  14.160
 7886SOL    HW125497   4.102   8.650  14.087
 7886SOL    HW225498   4.170   8.668  14.221
 7887SOL     OW25499  14.507   3.850   6.220
 7887SOL    HW125500  14.558   3.892   6.152
 7887SOL    HW225501  14.432   3.811   6.174
 7888SOL     OW25502   9.267  10.270   5.258
 7888SOL    HW125503   9.185  10.298   5.297
 7888SOL    HW225504   9.317  10.232   5.330
 7889SOL     OW25505  10.382   3.719  12.428
 7889SOL    HW125506  10.426   3.747  12.508
 7889SOL    HW225507  10.412   3.780  12.361
 7890SOL     OW25508   9.452   6.451   3.237
 7890SOL    HW125509   9.477   6.524   3.293
 7890SOL    HW225510   9.412   6.493   3.160
 7891SOL     OW25511  10.280  10.387   8.986
 7891SOL    HW125512  10.291  10.334   8.907
 7891SOL    HW225513  10.221  10.335   9.042
 7892SOL     OW25514  10.234  13.061   5.553
 7892SOL    HW125515  10.248  13.088   5.463
 7892SOL    HW225516  10.155  13.008   5.551
 7893SOL     OW25517  11.577   1.321   1.488
 7893SOL    HW125518  11.667   1.296   1.467
 7893SOL    HW225519  11.573   1.317   1.583
 7894SOL     OW25520   1.366  14.204   9.871
 7894SOL    HW125521   1.371  14.138   9.802
 7894SOL    HW225522   1.397  14.284   9.830
 7895SOL     OW25523  14.389   1.182   8.006
 7895SOL    HW125524  14.428   1.181   7.918
 7895SOL    HW225525  14.384   1.090   8.031
 7896SOL     OW25526   0.753  13.900   4.433
 7896SOL    HW125527   0.695  13.946   4.494
 7896SOL    HW225528   0.794  13.970   4.383
 7897SOL     OW25529  12.222   4.411  14.819
 7897SOL    HW125530  12.168   4.460  14.757
 7897SOL    HW225531  12.161   4.383   0.010
 7898SOL     OW25532  11.630   7.201  14.638
 7898SOL    HW125533  11.708   7.253  14.659
 7898SOL    HW225534  11.636   7.125  14.696
 7899SOL     OW25535  10.364   6.948   6.337
 7899SOL    HW125536  10.283   6.946   6.389
 7899SOL    HW225537  10.354   6.877   6.274
 7900SOL     OW25538   4.380   7.940   8.011
 7900SOL    HW125539   4.367   8.029   8.044
 7900SOL    HW225540   4.459   7.945   7.958
 7901SOL     OW25541   9.351  12.539  13.844
 7901SOL    HW125542   9.357  12.445  13.863
 7901SOL    HW225543   9.375  12.581  13.926
 7902SOL     OW25544  13.715  14.447  12.636
 7902SOL    HW125545  13.733  14.435  12.729
 7902SOL    HW225546  13.650  14.517  12.633
 7903SOL     OW25547  12.057   1.090   6.101
 7903SOL    HW125548  12.109   1.151   6.153
 7903SOL    HW225549  12.119   1.021   6.075
 7904SOL     OW25550   2.932  13.176   0.128
 7904SOL    HW125551   2.976  13.200   0.047
 7904SOL    HW225552   2.873  13.104   0.103
 7905SOL     OW25553   7.820   7.800   6.173
 7905SOL    HW125554   7.768   7.877   6.152
 7905SOL    HW225555   7.784   7.769   6.256
 7906SOL     OW25556   2.486  10.664  12.376
 7906SOL    HW125557   2.451  10.716  12.303
 7906SOL    HW225558   2.579  10.687  12.379
 7907SOL     OW25559   0.020   2.197   7.048
 7907SOL    HW125560  14.801   2.206   7.055
 7907SOL    HW225561   0.037   2.105   7.067
 7908SOL     OW25562  14.713  10.362  14.405
 7908SOL    HW125563  14.636  10.322  14.446
 7908SOL    HW225564  14.710  10.453  14.432
 7909SOL     OW25565   5.693   1.998  11.220
 7909SOL    HW125566   5.726   2.050  11.147
 7909SOL    HW225567   5.759   1.929  11.231
 7910SOL     OW25568  13.660  10.921  11.825
 7910SOL    HW125569  13.651  11.014  11.803
 7910SOL    HW225570  13.571  10.886  11.820
 7911SOL     OW25571   1.920   1.810  12.754
 7911SOL    HW125572   1.948   1.901  12.745
 7911SOL    HW225573   1.856   1.798  12.683
 7912SOL     OW25574  13.696   7.868   0.859
 7912SOL    HW125575  13.779   7.839   0.897
 7912SOL    HW225576  13.638   7.881   0.935
 7913SOL     OW25577   2.291  10.565  14.629
 7913SOL    HW125578   2.270  10.510  14.705
 7913SOL    HW225579   2.346  10.635  14.665
 7914SOL     OW25580   9.033   7.636   8.508
 7914SOL    HW125581   9.076   7.560   8.467
 7914SOL    HW225582   8.941   7.611   8.515
 7915SOL     OW25583   3.009  11.055   2.945
 7915SOL    HW125584   3.052  11.140   2.954
 7915SOL    HW225585   2.994  11.045   2.851
 7916SOL     OW25586   6.968   8.590  14.050
 7916SOL    HW125587   6.922   8.668  14.081
 7916SOL    HW225588   6.932   8.574  13.963
 7917SOL     OW25589  10.700  11.831  12.293
 7917SOL    HW125590  10.666  11.874  12.372
 7917SOL    HW225591  10.622  11.794  12.251
 7918SOL     OW25592  12.041   5.014   4.844
 7918SOL    HW125593  12.094   5.083   4.883
 7918SOL    HW225594  11.993   4.976   4.917
 7919SOL     OW25595  11.365  10.041   1.494
 7919SOL    HW125596  11.444  10.029   1.547
 7919SOL    HW225597  11.329  10.125   1.523
 7920SOL     OW25598   9.683   7.972   6.975
 7920SOL    HW125599   9.644   7.999   7.058
 7920SOL    HW225600   9.628   8.015   6.909
 7921SOL     OW25601   2.176   3.115   6.316
 7921SOL    HW125602   2.112   3.089   6.383
 7921SOL    HW225603   2.216   3.033   6.288
 7922SOL     OW25604   1.046  13.391   4.634
 7922SOL    HW125605   1.094  13.408   4.715
 7922SOL    HW225606   1.114  13.382   4.567
 7923SOL     OW25607   5.809  13.325  13.090
 7923SOL    HW125608   5.773  13.324  13.002
 7923SOL    HW225609   5.774  13.405  13.130
 7924SOL     OW25610   0.606   2.283  11.436
 7924SOL    HW125611   0.526   2.315  11.397
 7924SOL    HW225612   0.580   2.203  11.482
 7925SOL     OW25613   2.977  12.365  14.169
 7925SOL    HW125614   2.923  12.295  14.205
 7925SOL    HW225615   2.990  12.426  14.242
 7926SOL     OW25616   4.297  11.330  12.885
 7926SOL    HW125617   4.345  11.254  12.852
 7926SOL    HW225618   4.209  11.319  12.850
 7927SOL     OW25619   2.984  14.749  12.889
 7927SOL    HW125620   2.990  14.821  12.826
 7927SOL    HW225621   2.892  14.723  12.886
 7928SOL     OW25622  13.596   8.354   5.835
 7928SOL    HW125623  13.504   8.358   5.809
 7928SOL    HW225624  13.603   8.413   5.910
 7929SOL     OW25625   3.234   8.918   7.429
 7929SOL    HW125626   3.222   8.897   7.336
 7929SOL    HW225627   3.329   8.917   7.441
 7930SOL     OW25628  10.199   3.095   0.210
 7930SOL    HW125629  10.165   3.055   0.130
 7930SOL    HW225630  10.201   3.189   0.191
 7931SOL     OW25631  10.162   7.826   2.537
 7931SOL    HW125632  10.080   7.803   2.581
 7931SOL    HW225633  10.177   7.755   2.475
 7932SOL     OW25634  12.824   9.193   0.079
 7932SOL    HW125635  12.751   9.131   0.073
 7932SOL    HW225636  12.829   9.232  14.868
 7933SOL     OW25637  11.732   3.839  10.497
 7933SOL    HW125638  11.654   3.804  10.455
 7933SOL    HW225639  11.801   3.776  10.477
 7934SOL     OW25640  13.687   2.946  10.878
 7934SOL    HW125641  13.767   2.897  10.899
 7934SOL    HW225642  13.685   3.016  10.944
 7935SOL     OW25643   1.154   0.916   1.151
 7935SOL    HW125644   1.228   0.889   1.205
 7935SOL    HW225645   1.145   0.847   1.086
 7936SOL     OW25646   6.804  14.566  12.022
 7936SOL    HW125647   6.763  14.513  12.091
 7936SOL    HW225648   6.751  14.646  12.019
 7937SOL     OW25649   6.175  11.257  13.968
 7937SOL    HW125650   6.215  11.242  13.882
 7937SOL    HW225651   6.205  11.183  14.021
 7938SOL     OW25652   0.946   1.034   7.265
 7938SOL    HW125653   1.027   1.038   7.213
 7938SOL    HW225654   0.885   0.985   7.209
 7939SOL     OW25655  13.098   5.419   7.688
 7939SOL    HW125656  13.163   5.357   7.656
 7939SOL    HW225657  13.068   5.465   7.609
 7940SOL     OW25658   0.051   6.402   4.189
 7940SOL    HW125659   0.056   6.407   4.285
 7940SOL    HW225660   0.040   6.309   4.170
 7941SOL     OW25661   3.076  10.752   2.049
 7941SOL    HW125662   3.081  10.763   1.954
 7941SOL    HW225663   3.001  10.694   2.062
 7942SOL     OW25664   7.367   6.902   5.647
 7942SOL    HW125665   7.307   6.972   5.622
 7942SOL    HW225666   7.318   6.821   5.630
 7943SOL     OW25667   2.667  12.098   4.607
 7943SOL    HW125668   2.728  12.031   4.635
 7943SOL    HW225669   2.618  12.121   4.686
 7944SOL     OW25670  12.229   0.604   8.929
 7944SOL    HW125671  12.155   0.641   8.879
 7944SOL    HW225672  12.192   0.585   9.015
 7945SOL     OW25673   4.044  14.698   1.895
 7945SOL    HW125674   3.983  14.634   1.860
 7945SOL    HW225675   4.119  14.647   1.926
 7946SOL     OW25676   1.381   5.136   0.608
 7946SOL    HW125677   1.334   5.160   0.688
 7946SOL    HW225678   1.314   5.098   0.551
 7947SOL     OW25679   7.840  14.203   9.284
 7947SOL    HW125680   7.874  14.237   9.201
 7947SOL    HW225681   7.749  14.181   9.265
 7948SOL     OW25682   7.696   4.073   3.199
 7948SOL    HW125683   7.726   3.983   3.188
 7948SOL    HW225684   7.677   4.080   3.293
 7949SOL     OW25685  10.458   8.547  14.607
 7949SOL    HW125686  10.440   8.503  14.524
 7949SOL    HW225687  10.520   8.617  14.584
 7950SOL     OW25688  13.102   7.838  13.318
 7950SOL    HW125689  13.139   7.834  13.230
 7950SOL    HW225690  13.009   7.859  13.305
 7951SOL     OW25691   8.552   2.714   1.878
 7951SOL    HW125692   8.638   2.754   1.864
 7951SOL    HW225693   8.554   2.634   1.825
 7952SOL     OW25694   1.502   1.279   2.034
 7952SOL    HW125695   1.512   1.307   1.943
 7952SOL    HW225696   1.413   1.244   2.038
 7953SOL     OW25697   8.483   1.603   3.868
 7953SOL    HW125698   8.466   1.694   3.847
 7953SOL    HW225699   8.501   1.603   3.963
 7954SOL     OW25700  14.601   6.671   9.897
 7954SOL    HW125701  14.564   6.758   9.881
 7954SOL    HW225702  14.524   6.614   9.906
 7955SOL     OW25703   4.388   3.803   6.206
 7955SOL    HW125704   4.427   3.879   6.163
 7955SOL    HW225705   4.332   3.764   6.138
 7956SOL     OW25706   2.162  12.077   1.551
 7956SOL    HW125707   2.162  12.143   1.621
 7956SOL    HW225708   2.130  11.998   1.593
 7957SOL     OW25709  10.502   3.111   9.499
 7957SOL    HW125710  10.531   3.145   9.414
 7957SOL    HW225711  10.441   3.040   9.477
 7958SOL     OW25712   2.417   5.021   3.042
 7958SOL    HW125713   2.479   5.053   2.976
 7958SOL    HW225714   2.346   4.982   2.990
 7959SOL     OW25715   4.262   7.734   0.418
 7959SOL    HW125716   4.269   7.697   0.506
 7959SOL    HW225717   4.352   7.757   0.394
 7960SOL     OW25718   1.165   7.616   7.884
 7960SOL    HW125719   1.143   7.549   7.820
 7960SOL    HW225720   1.255   7.597   7.910
 7961SOL     OW25721   4.907  13.200  10.719
 7961SOL    HW125722   4.851  13.181  10.794
 7961SOL    HW225723   4.853  13.254  10.661
 7962SOL     OW25724   1.433   2.870   4.507
 7962SOL    HW125725   1.364   2.821   4.552
 7962SOL    HW225726   1.455   2.941   4.568
 7963SOL     OW25727   7.828   7.876   2.474
 7963SOL    HW125728   7.748   7.884   2.423
 7963SOL    HW225729   7.804   7.908   2.561
 7964SOL     OW25730   2.412   5.283  12.671
 7964SOL    HW125731   2.394   5.314  12.582
 7964SOL    HW225732   2.505   5.298  12.683
 7965SOL     OW25733   9.279  12.993   2.480
 7965SOL    HW125734   9.219  13.068   2.482
 7965SOL    HW225735   9.269  12.952   2.566
 7966SOL     OW25736   5.421  13.072   1.562
 7966SOL    HW125737   5.445  12.989   1.602
 7966SOL    HW225738   5.328  13.083   1.584
 7967SOL     OW25739   9.423  12.273   9.293
 7967SOL    HW125740   9.405  12.343   9.230
 7967SOL    HW225741   9.507  12.296   9.332
 7968SOL     OW25742   5.212   5.651   2.645
 7968SOL    HW125743   5.295   5.649   2.597
 7968SOL    HW225744   5.237   5.665   2.736
 7969SOL     OW25745   9.337   0.666   7.323
 7969SOL    HW125746   9.384   0.685   7.404
 7969SOL    HW225747   9.372   0.727   7.259
 7970SOL     OW25748   2.742  10.493   5.899
 7970SOL    HW125749   2.775  10.451   5.979
 7970SOL    HW225750   2.777  10.440   5.828
 7971SOL     OW25751   9.857   8.261  10.204
 7971SOL    HW125752   9.769   8.224  10.204
 7971SOL    HW225753   9.887   8.249  10.294
 7972SOL     OW25754  12.843   5.626   8.199
 7972SOL    HW125755  12.785   5.564   8.244
 7972SOL    HW225756  12.786   5.700   8.176
 7973SOL     OW25757   0.337   6.016   8.604
 7973SOL    HW125758   0.310   6.026   8.513
 7973SOL    HW225759   0.260   5.981   8.649
 7974SOL     OW25760   6.883   5.292  12.780
 7974SOL    HW125761   6.822   5.351  12.735
 7974SOL    HW225762   6.827   5.224  12.817
 7975SOL     OW25763   7.431  10.754   9.270
 7975SOL    HW125764   7.412  10.660   9.277
 7975SOL    HW225765   7.466  10.764   9.181
 7976SOL     OW25766   9.608   3.317   8.804
 7976SOL    HW125767   9.620   3.317   8.709
 7976SOL    HW225768   9.514   3.299   8.816
 7977SOL     OW25769   0.508   8.032   5.278
 7977SOL    HW125770   0.530   7.940   5.289
 7977SOL    HW225771   0.524   8.050   5.186
 7978SOL     OW25772   7.402   2.041   1.789
 7978SOL    HW125773   7.459   1.983   1.840
 7978SOL    HW225774   7.462   2.096   1.739
 7979SOL     OW25775   8.580   2.325   6.465
 7979SOL    HW125776   8.591   2.384   6.539
 7979SOL    HW225777   8.551   2.382   6.393
 7980SOL     OW25778  11.812  13.553   8.947
 7980SOL    HW125779  11.836  13.575   9.037
 7980SOL    HW225780  11.882  13.494   8.918
 7981SOL     OW25781   7.918  14.824   7.254
 7981SOL    HW125782   7.888  14.748   7.305
 7981SOL    HW225783   7.843  14.846   7.198
 7982SOL     OW25784   1.633  10.177  14.293
 7982SOL    HW125785   1.719  10.154  14.256
 7982SOL    HW225786   1.583  10.096  14.286
 7983SOL     OW25787   2.166   5.649  12.543
 7983SOL    HW125788   2.103   5.645  12.471
 7983SOL    HW225789   2.220   5.726  12.524
 7984SOL     OW25790  11.110   2.734  11.444
 7984SOL    HW125791  11.141   2.726  11.534
 7984SOL    HW225792  11.024   2.777  11.452
 7985SOL     OW25793  12.903   5.275  14.569
 7985SOL    HW125794  12.903   5.308  14.659
 7985SOL    HW225795  12.934   5.349  14.516
 7986SOL     OW25796  12.595   5.241  14.514
 7986SOL    HW125797  12.688   5.239  14.537
 7986SOL    HW225798  12.572   5.333  14.515
 7987SOL     OW25799   3.891  12.497   9.768
 7987SOL    HW125800   3.805  12.508   9.808
 7987SOL    HW225801   3.921  12.586   9.750
 7988SOL     OW25802   2.547   6.144   7.640
 7988SOL    HW125803   2.467   6.092   7.631
 7988SOL    HW225804   2.567   6.140   7.734
 7989SOL     OW25805   9.141  10.541   9.236
 7989SOL    HW125806   9.130  10.635   9.222
 7989SOL    HW225807   9.052  10.506   9.229
 7990SOL     OW25808   5.069  13.586  12.413
 7990SOL    HW125809   5.042  13.545  12.331
 7990SOL    HW225810   5.064  13.515  12.477
 7991SOL     OW25811  11.305   6.020  10.640
 7991SOL    HW125812  11.370   5.956  10.668
 7991SOL    HW225813  11.247   5.973  10.581
 7992SOL     OW25814   8.575   2.979  12.935
 7992SOL    HW125815   8.549   3.009  12.848
 7992SOL    HW225816   8.623   2.898  12.920
 7993SOL     OW25817   5.259   7.785  12.308
 7993SOL    HW125818   5.205   7.756  12.235
 7993SOL    HW225819   5.306   7.706  12.336
 7994SOL     OW25820   5.598  11.255   0.204
 7994SOL    HW125821   5.681  11.213   0.226
 7994SOL    HW225822   5.543  11.184   0.172
 7995SOL     OW25823   1.933   4.230   6.793
 7995SOL    HW125824   1.923   4.223   6.699
 7995SOL    HW225825   2.023   4.204   6.810
 7996SOL     OW25826  11.925   3.847   9.548
 7996SOL    HW125827  12.004   3.803   9.580
 7996SOL    HW225828  11.853   3.801   9.590
 7997SOL     OW25829  10.693   8.853   7.305
 7997SOL    HW125830  10.751   8.778   7.313
 7997SOL    HW225831  10.660   8.849   7.215
 7998SOL     OW25832  11.123  10.051   4.418
 7998SOL    HW125833  11.126  10.070   4.512
 7998SOL    HW225834  11.042  10.092   4.388
 7999SOL     OW25835  12.374   1.450  12.202
 7999SOL    HW125836  12.433   1.408  12.265
 7999SOL    HW225837  12.419   1.531  12.178
 8000SOL     OW25838   5.663   0.580   8.588
 8000SOL    HW125839   5.729   0.510   8.587
 8000SOL    HW225840   5.634   0.587   8.497
 8001SOL     OW25841  11.346   0.027  12.848
 8001SOL    HW125842  11.390  14.824  12.819
 8001SOL    HW225843  11.372   0.094  12.784
 8002SOL     OW25844   2.927   1.162   0.291
 8002SOL    HW125845   3.004   1.139   0.342
 8002SOL    HW225846   2.856   1.167   0.356
 8003SOL     OW25847  13.707   5.595   0.486
 8003SOL    HW125848  13.757   5.529   0.438
 8003SOL    HW225849  13.661   5.645   0.418
 8004SOL     OW25850   3.589   1.426   2.423
 8004SOL    HW125851   3.649   1.437   2.349
 8004SOL    HW225852   3.572   1.332   2.425
 8005SOL     OW25853  14.177  14.153  11.069
 8005SOL    HW125854  14.202  14.154  10.976
 8005SOL    HW225855  14.150  14.063  11.086
 8006SOL     OW25856   5.914   3.473   7.412
 8006SOL    HW125857   5.989   3.458   7.469
 8006SOL    HW225858   5.863   3.392   7.417
 8007SOL     OW25859   2.843   5.000  14.458
 8007SOL    HW125860   2.762   5.026  14.416
 8007SOL    HW225861   2.896   4.963  14.387
 8008SOL     OW25862   0.008   6.850   1.375
 8008SOL    HW125863   0.033   6.940   1.353
 8008SOL    HW225864  14.840   6.817   1.298
 8009SOL     OW25865   4.543   5.020   7.587
 8009SOL    HW125866   4.624   5.059   7.622
 8009SOL    HW225867   4.528   5.067   7.505
 8010SOL     OW25868  12.120  11.850  12.041
 8010SOL    HW125869  12.201  11.800  12.056
 8010SOL    HW225870  12.099  11.833  11.950
 8011SOL     OW25871   1.574   2.967  11.286
 8011SOL    HW125872   1.569   3.059  11.310
 8011SOL    HW225873   1.663   2.955  11.252
 8012SOL     OW25874   5.870  14.815  12.316
 8012SOL    HW125875   5.889  14.774  12.400
 8012SOL    HW225876   5.939   0.004  12.305
 8013SOL     OW25877   7.268   8.734   6.504
 8013SOL    HW125878   7.339   8.708   6.446
 8013SOL    HW225879   7.199   8.670   6.487
 8014SOL     OW25880   1.082   8.527  13.211
 8014SOL    HW125881   1.089   8.482  13.296
 8014SOL    HW225882   1.136   8.474  13.152
 8015SOL     OW25883   0.370   5.908  10.544
 8015SOL    HW125884   0.380   5.969  10.617
 8015SOL    HW225885   0.389   5.960  10.466
 8016SOL     OW25886   8.538   0.214   8.189
 8016SOL    HW125887   8.529   0.276   8.261
 8016SOL    HW225888   8.535   0.268   8.110
 8017SOL     OW25889   2.393  13.198   9.640
 8017SOL    HW125890   2.405  13.190   9.545
 8017SOL    HW225891   2.479  13.177   9.677
 8018SOL     OW25892   0.488   9.633  11.783
 8018SOL    HW125893   0.569   9.653  11.829
 8018SOL    HW225894   0.515   9.579  11.709
 8019SOL     OW25895  10.810   3.011   2.875
 8019SOL    HW125896  10.735   3.057   2.911
 8019SOL    HW225897  10.823   3.049   2.788
 8020SOL     OW25898   2.443   2.356  10.373
 8020SOL    HW125899   2.352   2.331  10.353
 8020SOL    HW225900   2.474   2.287  10.433
 8021SOL     OW25901   5.339   4.927   2.399
 8021SOL    HW125902   5.432   4.946   2.409
 8021SOL    HW225903   5.302   5.009   2.365
 8022SOL     OW25904  10.718   9.178   3.516
 8022SOL    HW125905  10.641   9.235   3.508
 8022SOL    HW225906  10.788   9.237   3.546
 8023SOL     OW25907   8.109  11.878  14.353
 8023SOL    HW125908   8.183  11.836  14.311
 8023SOL    HW225909   8.096  11.829  14.435
 8024SOL     OW25910   4.828   2.579   4.938
 8024SOL    HW125911   4.921   2.601   4.924
 8024SOL    HW225912   4.803   2.530   4.860
 8025SOL     OW25913   3.138  12.592   7.681
 8025SOL    HW125914   3.055  12.561   7.644
 8025SOL    HW225915   3.118  12.607   7.774
 8026SOL     OW25916   4.331   8.772   2.325
 8026SOL    HW125917   4.391   8.782   2.399
 8026SOL    HW225918   4.257   8.724   2.361
 8027SOL     OW25919  10.149   9.243   1.929
 8027SOL    HW125920  10.124   9.159   1.890
 8027SOL    HW225921  10.195   9.290   1.859
 8028SOL     OW25922   6.846   4.537   7.316
 8028SOL    HW125923   6.836   4.482   7.394
 8028SOL    HW225924   6.905   4.607   7.343
 8029SOL     OW25925  14.142   2.983   2.197
 8029SOL    HW125926  14.176   3.044   2.132
 8029SOL    HW225927  14.120   3.037   2.273
 8030SOL     OW25928  12.276  10.846  12.911
 8030SOL    HW125929  12.351  10.816  12.963
 8030SOL    HW225930  12.314  10.871  12.827
 8031SOL     OW25931   0.692   1.979  11.221
 8031SOL    HW125932   0.784   1.957  11.234
 8031SOL    HW225933   0.690   2.074  11.219
 8032SOL     OW25934  12.470  13.220   1.420
 8032SOL    HW125935  12.427  13.182   1.343
 8032SOL    HW225936  12.492  13.145   1.475
 8033SOL     OW25937   0.624   6.526  14.041
 8033SOL    HW125938   0.556   6.593  14.042
 8033SOL    HW225939   0.591   6.459  13.982
 8034SOL     OW25940   8.847  14.063   9.776
 8034SOL    HW125941   8.824  13.996   9.711
 8034SOL    HW225942   8.871  14.014   9.854
 8035SOL     OW25943  13.180   5.489   6.824
 8035SOL    HW125944  13.241   5.527   6.760
 8035SOL    HW225945  13.179   5.396   6.803
 8036SOL     OW25946  10.506   7.635  14.666
 8036SOL    HW125947  10.572   7.567  14.654
 8036SOL    HW225948  10.557   7.716  14.674
 8037SOL     OW25949   5.705   1.942   6.464
 8037SOL    HW125950   5.760   2.020   6.467
 8037SOL    HW225951   5.621   1.973   6.430
 8038SOL     OW25952   4.201   3.318   1.203
 8038SOL    HW125953   4.109   3.339   1.221
 8038SOL    HW225954   4.199   3.228   1.169
 8039SOL     OW25955   8.596   6.815  14.573
 8039SOL    HW125956   8.671   6.786  14.521
 8039SOL    HW225957   8.609   6.774  14.659
 8040SOL     OW25958   5.587   5.762  10.993
 8040SOL    HW125959   5.625   5.842  11.028
 8040SOL    HW225960   5.637   5.744  10.914
 8041SOL     OW25961  13.380   7.451   6.504
 8041SOL    HW125962  13.415   7.415   6.586
 8041SOL    HW225963  13.290   7.474   6.524
 8042SOL     OW25964   0.983   5.388  11.050
 8042SOL    HW125965   1.053   5.369  11.113
 8042SOL    HW225966   1.001   5.477  11.020
 8043SOL     OW25967   7.613  14.520  13.385
 8043SOL    HW125968   7.550  14.548  13.319
 8043SOL    HW225969   7.689  14.490  13.335
 8044SOL     OW25970  11.226   2.366   3.567
 8044SOL    HW125971  11.217   2.391   3.475
 8044SOL    HW225972  11.200   2.274   3.569
 8045SOL     OW25973  11.417   5.227   1.403
 8045SOL    HW125974  11.328   5.259   1.409
 8045SOL    HW225975  11.472   5.302   1.426
 8046SOL     OW25976   9.904  11.680   4.827
 8046SOL    HW125977   9.965  11.743   4.788
 8046SOL    HW225978   9.951  11.644   4.902
 8047SOL     OW25979   8.908   6.792   4.115
 8047SOL    HW125980   8.987   6.835   4.082
 8047SOL    HW225981   8.869   6.855   4.174
 8048SOL     OW25982   7.553  14.434   4.698
 8048SOL    HW125983   7.631  14.482   4.671
 8048SOL    HW225984   7.585  14.366   4.758
 8049SOL     OW25985  14.394   9.584   5.694
 8049SOL    HW125986  14.477   9.537   5.683
 8049SOL    HW225987  14.392   9.605   5.788
 8050SOL     OW25988  14.875   6.937  10.065
 8050SOL    HW125989  14.853   6.846  10.086
 8050SOL    HW225990   0.009   6.937   9.970
 8051SOL     OW25991  12.714   6.409   3.757
 8051SOL    HW125992  12.682   6.427   3.845
 8051SOL    HW225993  12.665   6.331   3.729
 8052SOL     OW25994  12.870   6.556   9.304
 8052SOL    HW125995  12.948   6.593   9.261
 8052SOL    HW225996  12.900   6.532   9.391
 8053SOL     OW25997   9.918  12.694  12.125
 8053SOL    HW125998   9.922  12.612  12.174
 8053SOL    HW225999   9.987  12.688  12.060
 8054SOL     OW26000   2.511   8.235  10.345
 8054SOL    HW126001   2.434   8.247  10.291
 8054SOL    HW226002   2.482   8.178  10.417
 8055SOL     OW26003  11.391  14.518   2.234
 8055SOL    HW126004  11.408  14.450   2.299
 8055SOL    HW226005  11.409  14.475   2.150
 8056SOL     OW26006   1.111  14.695   3.839
 8056SOL    HW126007   1.089  14.788   3.847
 8056SOL    HW226008   1.205  14.692   3.855
 8057SOL     OW26009   1.085  10.328   9.809
 8057SOL    HW126010   1.035  10.396   9.855
 8057SOL    HW226011   1.020  10.264   9.781
 8058SOL     OW26012   2.401  13.408   4.884
 8058SOL    HW126013   2.340  13.435   4.953
 8058SOL    HW226014   2.353  13.342   4.834
 8059SOL     OW26015   0.597   2.988   8.969
 8059SOL    HW126016   0.636   2.906   8.999
 8059SOL    HW226017   0.666   3.054   8.981
 8060SOL     OW26018   1.117  13.931  10.013
 8060SOL    HW126019   1.194  13.973  10.051
 8060SOL    HW226020   1.148  13.847   9.980
 8061SOL     OW26021   5.104   2.484   2.815
 8061SOL    HW126022   5.192   2.507   2.784
 8061SOL    HW226023   5.067   2.567   2.845
 8062SOL     OW26024   8.510   3.373   1.851
 8062SOL    HW126025   8.555   3.381   1.767
 8062SOL    HW226026   8.521   3.459   1.892
 8063SOL     OW26027   7.062  12.903   9.109
 8063SOL    HW126028   7.035  12.962   9.039
 8063SOL    HW226029   7.008  12.825   9.097
 8064SOL     OW26030  12.898  10.815   5.694
 8064SOL    HW126031  12.821  10.825   5.750
 8064SOL    HW226032  12.920  10.722   5.699
 8065SOL     OW26033  12.294   0.507   8.687
 8065SOL    HW126034  12.272   0.526   8.778
 8065SOL    HW226035  12.380   0.547   8.674
 8066SOL     OW26036   0.426   2.065   5.703
 8066SOL    HW126037   0.423   2.031   5.614
 8066SOL    HW226038   0.516   2.092   5.717
 8067SOL     OW26039   1.001  14.281   5.465
 8067SOL    HW126040   1.007  14.295   5.559
 8067SOL    HW226041   0.918  14.234   5.452
 8068SOL     OW26042  11.707  13.580   4.408
 8068SOL    HW126043  11.619  13.549   4.385
 8068SOL    HW226044  11.758  13.569   4.328
 8069SOL     OW26045  11.718  11.303  14.870
 8069SOL    HW126046  11.772  11.380  14.849
 8069SOL    HW226047  11.666  11.289  14.791
 8070SOL     OW26048   1.519   3.878   7.848
 8070SOL    HW126049   1.463   3.905   7.775
 8070SOL    HW226050   1.590   3.942   7.849
 8071SOL     OW26051   0.463  10.074   6.145
 8071SOL    HW126052   0.491  10.106   6.231
 8071SOL    HW226053   0.371  10.098   6.139
 8072SOL     OW26054   4.923   5.950   7.138
 8072SOL    HW126055   4.997   5.897   7.109
 8072SOL    HW226056   4.855   5.935   7.074
 8073SOL     OW26057   9.801   9.562  11.132
 8073SOL    HW126058   9.805   9.611  11.050
 8073SOL    HW226059   9.834   9.475  11.109
 8074SOL     OW26060   0.068   6.050   0.691
 8074SOL    HW126061   0.067   6.017   0.781
 8074SOL    HW226062   0.093   5.974   0.639
 8075SOL     OW26063  12.516   9.624   4.058
 8075SOL    HW126064  12.534   9.577   4.139
 8075SOL    HW226065  12.462   9.699   4.084
 8076SOL     OW26066   4.360  13.933   7.902
 8076SOL    HW126067   4.382  13.841   7.915
 8076SOL    HW226068   4.321  13.961   7.985
 8077SOL     OW26069   0.584   1.844   5.334
 8077SOL    HW126070   0.631   1.766   5.362
 8077SOL    HW226071   0.652   1.909   5.317
 8078SOL     OW26072   8.956   1.599   0.820
 8078SOL    HW126073   9.044   1.571   0.793
 8078SOL    HW226074   8.919   1.522   0.863
 8079SOL     OW26075  11.259  12.608  11.243
 8079SOL    HW126076  11.186  12.546  11.234
 8079SOL    HW226077  11.276  12.637  11.153
 8080SOL     OW26078  13.953  11.894   2.106
 8080SOL    HW126079  13.902  11.974   2.092
 8080SOL    HW226080  13.891  11.823   2.088
 8081SOL     OW26081   5.363   0.661   6.482
 8081SOL    HW126082   5.431   0.727   6.466
 8081SOL    HW226083   5.346   0.622   6.396
 8082SOL     OW26084   2.348  14.457  13.204
 8082SOL    HW126085   2.341  14.544  13.163
 8082SOL    HW226086   2.314  14.397  13.138
 8083SOL     OW26087   8.182  14.287  13.333
 8083SOL    HW126088   8.200  14.355  13.398
 8083SOL    HW226089   8.258  14.290  13.274
 8084SOL     OW26090   1.707  14.529  13.970
 8084SOL    HW126091   1.765  14.569  14.035
 8084SOL    HW226092   1.738  14.439  13.962
 8085SOL     OW26093   0.204   4.810   2.092
 8085SOL    HW126094   0.111   4.791   2.088
 8085SOL    HW226095   0.222   4.863   2.015
 8086SOL     OW26096   8.753   2.937   1.464
 8086SOL    HW126097   8.794   2.886   1.533
 8086SOL    HW226098   8.824   2.954   1.401
 8087SOL     OW26099   2.130  14.115   8.779
 8087SOL    HW126100   2.127  14.021   8.798
 8087SOL    HW226101   2.041  14.136   8.750
 8088SOL     OW26102  14.647  11.227   8.610
 8088SOL    HW126103  14.553  11.227   8.594
 8088SOL    HW226104  14.667  11.136   8.634
 8089SOL     OW26105   0.256  11.207   7.464
 8089SOL    HW126106   0.303  11.237   7.386
 8089SOL    HW226107   0.170  11.248   7.458
 8090SOL     OW26108  11.303   3.840   4.801
 8090SOL    HW126109  11.317   3.921   4.752
 8090SOL    HW226110  11.301   3.771   4.734
 8091SOL     OW26111  10.849   7.951   8.897
 8091SOL    HW126112  10.797   7.907   8.964
 8091SOL    HW226113  10.784   7.984   8.834
 8092SOL     OW26114  11.729   5.387   6.560
 8092SOL    HW126115  11.730   5.480   6.540
 8092SOL    HW226116  11.817   5.367   6.592
 8093SOL     OW26117   3.933   2.593  10.603
 8093SOL    HW126118   3.947   2.542  10.683
 8093SOL    HW226119   3.975   2.541  10.534
 8094SOL     OW26120  12.565   0.465  11.366
 8094SOL    HW126121  12.581   0.388  11.420
 8094SOL    HW226122  12.585   0.436  11.276
 8095SOL     OW26123   7.119   1.521   9.238
 8095SOL    HW126124   7.054   1.452   9.251
 8095SOL    HW226125   7.069   1.602   9.245
 8096SOL     OW26126   4.826   7.889   4.962
 8096SOL    HW126127   4.749   7.835   4.945
 8096SOL    HW226128   4.808   7.928   5.048
 8097SOL     OW26129   0.361  13.831  13.233
 8097SOL    HW126130   0.446  13.864  13.261
 8097SOL    HW226131   0.303  13.848  13.306
 8098SOL     OW26132   9.908   5.602   8.942
 8098SOL    HW126133   9.989   5.551   8.949
 8098SOL    HW226134   9.871   5.576   8.857
 8099SOL     OW26135   3.443   6.240  13.261
 8099SOL    HW126136   3.534   6.219  13.238
 8099SOL    HW226137   3.395   6.160  13.243
 8100SOL     OW26138  10.162   5.337   1.306
 8100SOL    HW126139  10.207   5.252   1.302
 8100SOL    HW226140  10.228   5.398   1.336
 8101SOL     OW26141  10.095   3.138   7.636
 8101SOL    HW126142  10.178   3.092   7.653
 8101SOL    HW226143  10.122   3.229   7.619
 8102SOL     OW26144   8.592   6.848  13.360
 8102SOL    HW126145   8.572   6.938  13.337
 8102SOL    HW226146   8.616   6.851  13.453
 8103SOL     OW26147  10.931   7.759   9.788
 8103SOL    HW126148  10.873   7.725   9.856
 8103SOL    HW226149  10.992   7.816   9.835
 8104SOL     OW26150   6.195   0.500   2.532
 8104SOL    HW126151   6.140   0.573   2.505
 8104SOL    HW226152   6.156   0.423   2.490
 8105SOL     OW26153   0.436  13.359   6.538
 8105SOL    HW126154   0.399  13.394   6.457
 8105SOL    HW226155   0.526  13.335   6.514
 8106SOL     OW26156  13.588   6.411   9.791
 8106SOL    HW126157  13.643   6.336   9.769
 8106SOL    HW226158  13.558   6.395   9.880
 8107SOL     OW26159   6.424  11.146  13.126
 8107SOL    HW126160   6.347  11.197  13.151
 8107SOL    HW226161   6.471  11.201  13.065
 8108SOL     OW26162  13.295   4.066   5.928
 8108SOL    HW126163  13.338   4.140   5.971
 8108SOL    HW226164  13.204   4.095   5.917
 8109SOL     OW26165   9.574   1.924   9.687
 8109SOL    HW126166   9.621   1.877   9.618
 8109SOL    HW226167   9.638   1.933   9.758
 8110SOL     OW26168   9.486  12.612   4.208
 8110SOL    HW126169   9.527  12.681   4.260
 8110SOL    HW226170   9.438  12.659   4.139
 8111SOL     OW26171   2.929   7.996   9.354
 8111SOL    HW126172   2.965   7.920   9.400
 8111SOL    HW226173   2.885   8.046   9.423
 8112SOL     OW26174   7.446  10.776  11.692
 8112SOL    HW126175   7.386  10.850  11.699
 8112SOL    HW226176   7.419  10.730  11.614
 8113SOL     OW26177   0.597  12.616  14.794
 8113SOL    HW126178   0.542  12.693  14.805
 8113SOL    HW226179   0.599  12.602  14.699
 8114SOL     OW26180   6.888  12.926  10.499
 8114SOL    HW126181   6.896  13.012  10.540
 8114SOL    HW226182   6.917  12.865  10.566
 8115SOL     OW26183   6.612   2.395  10.427
 8115SOL    HW126184   6.666   2.473  10.413
 8115SOL    HW226185   6.544   2.423  10.488
 8116SOL     OW26186   5.691   9.592   0.982
 8116SOL    HW126187   5.740   9.671   1.005
 8116SOL    HW226188   5.609   9.624   0.945
 8117SOL     OW26189   0.893   2.795  11.507
 8117SOL    HW126190   0.823   2.815  11.445
 8117SOL    HW226191   0.919   2.881  11.542
 8118SOL     OW26192   5.061   4.058  10.910
 8118SOL    HW126193   5.017   4.048  10.825
 8118SOL    HW226194   5.149   4.022  10.896
 8119SOL     OW26195   4.799   5.107   9.372
 8119SOL    HW126196   4.752   5.160   9.436
 8119SOL    HW226197   4.863   5.058   9.424
 8120SOL     OW26198   7.045  11.458   1.834
 8120SOL    HW126199   7.029  11.379   1.783
 8120SOL    HW226200   7.072  11.426   1.920
 8121SOL     OW26201  11.774   2.712  10.458
 8121SOL    HW126202  11.766   2.688  10.366
 8121SOL    HW226203  11.831   2.789  10.458
 8122SOL     OW26204   1.206   6.035  10.064
 8122SOL    HW126205   1.171   6.082  10.140
 8122SOL    HW226206   1.301   6.041  10.074
 8123SOL     OW26207  10.752   8.003   7.842
 8123SOL    HW126208  10.727   7.919   7.802
 8123SOL    HW226209  10.730   8.068   7.775
 8124SOL     OW26210   6.836   2.814  11.047
 8124SOL    HW126211   6.761   2.814  11.107
 8124SOL    HW226212   6.799   2.785  10.963
 8125SOL     OW26213   6.394  11.334  11.767
 8125SOL    HW126214   6.355  11.266  11.822
 8125SOL    HW226215   6.389  11.298  11.678
 8126SOL     OW26216   1.634   9.307   4.394
 8126SOL    HW126217   1.704   9.334   4.455
 8126SOL    HW226218   1.676   9.311   4.308
 8127SOL     OW26219  10.055   0.400   2.918
 8127SOL    HW126220  10.093   0.312   2.909
 8127SOL    HW226221  10.040   0.429   2.829
 8128SOL     OW26222  11.017   6.757   1.454
 8128SOL    HW126223  10.941   6.782   1.506
 8128SOL    HW226224  10.980   6.716   1.376
 8129SOL     OW26225   0.502   6.068   9.808
 8129SOL    HW126226   0.447   6.021   9.870
 8129SOL    HW226227   0.553   6.000   9.764
 8130SOL     OW26228  14.646   2.041   6.814
 8130SOL    HW126229  14.727   2.033   6.764
 8130SOL    HW226230  14.590   1.972   6.780
 8131SOL     OW26231   8.186   2.830  12.051
 8131SOL    HW126232   8.170   2.915  12.093
 8131SOL    HW226233   8.142   2.767  12.108
 8132SOL     OW26234   4.133   4.230  11.318
 8132SOL    HW126235   4.145   4.317  11.279
 8132SOL    HW226236   4.128   4.246  11.412
 8133SOL     OW26237   2.821   0.379   3.929
 8133SOL    HW126238   2.839   0.418   4.014
 8133SOL    HW226239   2.731   0.346   3.937
 8134SOL     OW26240  12.694   4.964  11.092
 8134SOL    HW126241  12.729   4.905  11.158
 8134SOL    HW226242  12.731   5.049  11.113
 8135SOL     OW26243   8.999  10.976   1.302
 8135SOL    HW126244   8.914  11.015   1.281
 8135SOL    HW226245   9.059  11.010   1.236
 8136SOL     OW26246   7.926  12.225   7.795
 8136SOL    HW126247   7.979  12.232   7.874
 8136SOL    HW226248   7.836  12.216   7.827
 8137SOL     OW26249   3.989   9.356   4.547
 8137SOL    HW126250   4.040   9.349   4.628
 8137SOL    HW226251   4.012   9.442   4.511
 8138SOL     OW26252  12.759   2.786  14.593
 8138SOL    HW126253  12.715   2.871  14.584
 8138SOL    HW226254  12.820   2.783  14.518
 8139SOL     OW26255   6.227   6.206  10.130
 8139SOL    HW126256   6.166   6.279  10.135
 8139SOL    HW226257   6.179   6.137  10.084
 8140SOL     OW26258  10.884   3.586   4.975
 8140SOL    HW126259  10.886   3.631   4.891
 8140SOL    HW226260  10.804   3.534   4.972
 8141SOL     OW26261   7.612   5.919   6.156
 8141SOL    HW126262   7.601   5.832   6.193
 8141SOL    HW226263   7.523   5.951   6.142
 8142SOL     OW26264   0.680   0.018   9.685
 8142SOL    HW126265   0.738  14.851   9.747
 8142SOL    HW226266   0.656   0.100   9.727
 8143SOL     OW26267   6.343  10.603   9.277
 8143SOL    HW126268   6.413  10.571   9.334
 8143SOL    HW226269   6.339  10.540   9.206
 8144SOL     OW26270  14.294   0.324  11.838
 8144SOL    HW126271  14.261   0.243  11.799
 8144SOL    HW226272  14.295   0.306  11.932
 8145SOL     OW26273  13.007   4.932   4.905
 8145SOL    HW126274  12.945   4.949   4.834
 8145SOL    HW226275  13.038   4.843   4.890
 8146SOL     OW26276   5.000   2.790   8.072
 8146SOL    HW126277   4.973   2.832   8.154
 8146SOL    HW226278   5.035   2.862   8.019
 8147SOL     OW26279   0.567   1.962   3.028
 8147SOL    HW126280   0.551   1.869   3.016
 8147SOL    HW226281   0.511   2.005   2.963
 8148SOL     OW26282  11.492   9.930  13.869
 8148SOL    HW126283  11.466  10.011  13.825
 8148SOL    HW226284  11.583   9.945  13.897
 8149SOL     OW26285  12.235  13.903   6.783
 8149SOL    HW126286  12.312  13.936   6.830
 8149SOL    HW226287  12.161  13.951   6.821
 8150SOL     OW26288   7.725   9.689  11.460
 8150SOL    HW126289   7.741   9.757  11.394
 8150SOL    HW226290   7.630   9.684  11.467
 8151SOL     OW26291  11.199   0.109   2.122
 8151SOL    HW126292  11.287   0.096   2.086
 8151SOL    HW226293  11.181   0.202   2.109
 8152SOL     OW26294  10.020  13.754   5.427
 8152SOL    HW126295   9.981  13.713   5.504
 8152SOL    HW226296   9.952  13.815   5.396
 8153SOL     OW26297   0.651  13.516   2.976
 8153SOL    HW126298   0.700  13.451   2.926
 8153SOL    HW226299   0.666  13.493   3.067
 8154SOL     OW26300  13.399   3.900   1.186
 8154SOL    HW126301  13.452   3.954   1.128
 8154SOL    HW226302  13.400   3.946   1.270
 8155SOL     OW26303   3.836   7.748   4.962
 8155SOL    HW126304   3.796   7.827   4.926
 8155SOL    HW226305   3.822   7.755   5.057
 8156SOL     OW26306  10.513   8.388   9.238
 8156SOL    HW126307  10.534   8.299   9.210
 8156SOL    HW226308  10.585   8.412   9.297
 8157SOL     OW26309   3.314  11.888  11.308
 8157SOL    HW126310   3.315  11.983  11.325
 8157SOL    HW226311   3.405  11.861  11.317
 8158SOL     OW26312  13.775   6.190  11.057
 8158SOL    HW126313  13.845   6.179  10.993
 8158SOL    HW226314  13.811   6.250  11.122
 8159SOL     OW26315  10.914   9.951  10.659
 8159SOL    HW126316  10.921   9.947  10.563
 8159SOL    HW226317  10.942   9.865  10.689
 8160SOL     OW26318   8.888   4.543   6.873
 8160SOL    HW126319   8.829   4.617   6.888
 8160SOL    HW226320   8.962   4.559   6.930
 8161SOL     OW26321   9.745  12.930   5.726
 8161SOL    HW126322   9.744  12.903   5.634
 8161SOL    HW226323   9.670  12.990   5.735
 8162SOL     OW26324  13.236   2.192   7.546
 8162SOL    HW126325  13.293   2.154   7.479
 8162SOL    HW226326  13.296   2.235   7.606
 8163SOL     OW26327   9.589   0.841  14.188
 8163SOL    HW126328   9.602   0.817  14.096
 8163SOL    HW226329   9.646   0.916  14.202
 8164SOL     OW26330   9.681  14.443   6.195
 8164SOL    HW126331   9.588  14.462   6.181
 8164SOL    HW226332   9.693  14.353   6.166
 8165SOL     OW26333  14.649  13.364  11.064
 8165SOL    HW126334  14.738  13.343  11.039
 8165SOL    HW226335  14.598  13.286  11.043
 8166SOL     OW26336   0.237   7.648   8.828
 8166SOL    HW126337   0.324   7.682   8.851
 8166SOL    HW226338   0.213   7.593   8.902
 8167SOL     OW26339  14.101  11.254  12.977
 8167SOL    HW126340  14.017  11.255  12.932
 8167SOL    HW226341  14.089  11.311  13.053
 8168SOL     OW26342  12.749   0.706   9.888
 8168SOL    HW126343  12.837   0.722   9.920
 8168SOL    HW226344  12.698   0.686   9.967
 8169SOL     OW26345   0.734   6.577   7.243
 8169SOL    HW126346   0.776   6.616   7.166
 8169SOL    HW226347   0.649   6.547   7.211
 8170SOL     OW26348   9.943   7.070   4.508
 8170SOL    HW126349   9.974   7.096   4.421
 8170SOL    HW226350   9.848   7.078   4.504
 8171SOL     OW26351  13.524   3.399   9.859
 8171SOL    HW126352  13.568   3.358   9.933
 8171SOL    HW226353  13.586   3.465   9.828
 8172SOL     OW26354   7.316  13.393  10.225
 8172SOL    HW126355   7.292  13.412  10.134
 8172SOL    HW226356   7.299  13.300  10.235
 8173SOL     OW26357  14.679  10.750   0.553
 8173SOL    HW126358  14.691  10.797   0.471
 8173SOL    HW226359  14.752  10.778   0.608
 8174SOL     OW26360  13.992  12.434   6.062
 8174SOL    HW126361  13.956  12.501   6.004
 8174SOL    HW226362  14.087  12.449   6.059
 8175SOL     OW26363   0.086  12.046   5.188
 8175SOL    HW126364   0.080  12.049   5.092
 8175SOL    HW226365   0.169  12.089   5.209
 8176SOL     OW26366  11.328  12.014  13.790
 8176SOL    HW126367  11.295  11.978  13.707
 8176SOL    HW226368  11.380  12.090  13.764
 8177SOL     OW26369  10.469   5.725  14.845
 8177SOL    HW126370  10.469   5.810  14.801
 8177SOL    HW226371  10.523   5.738   0.046
 8178SOL     OW26372  12.682   1.961  10.572
 8178SOL    HW126373  12.629   1.965  10.651
 8178SOL    HW226374  12.650   1.884  10.525
 8179SOL     OW26375   0.703   2.703   5.366
 8179SOL    HW126376   0.775   2.667   5.419
 8179SOL    HW226377   0.746   2.738   5.288
 8180SOL     OW26378   1.282   3.452   0.836
 8180SOL    HW126379   1.325   3.470   0.920
 8180SOL    HW226380   1.192   3.429   0.860
 8181SOL     OW26381  12.356   5.164   5.516
 8181SOL    HW126382  12.443   5.165   5.556
 8181SOL    HW226383  12.363   5.226   5.443
 8182SOL     OW26384   1.445   5.576   6.537
 8182SOL    HW126385   1.497   5.646   6.577
 8182SOL    HW226386   1.444   5.506   6.603
 8183SOL     OW26387   9.713  12.906  10.830
 8183SOL    HW126388   9.627  12.875  10.858
 8183SOL    HW226389   9.715  12.997  10.857
 8184SOL     OW26390  13.719  10.402   5.241
 8184SOL    HW126391  13.763  10.331   5.287
 8184SOL    HW226392  13.721  10.376   5.149
 8185SOL     OW26393  12.672  11.179   1.784
 8185SOL    HW126394  12.701  11.096   1.747
 8185SOL    HW226395  12.632  11.226   1.710
 8186SOL     OW26396  13.507  13.630   6.907
 8186SOL    HW126397  13.563  13.632   6.830
 8186SOL    HW226398  13.515  13.717   6.945
 8187SOL     OW26399  14.010   2.671  12.530
 8187SOL    HW126400  14.086   2.729  12.539
 8187SOL    HW226401  14.023   2.604  12.596
 8188SOL     OW26402  14.789   6.952   3.341
 8188SOL    HW126403  14.812   6.979   3.430
 8188SOL    HW226404  14.834   7.015   3.285
 8189SOL     OW26405  14.115   2.872   5.819
 8189SOL    HW126406  14.054   2.945   5.807
 8189SOL    HW226407  14.201   2.913   5.817
 8190SOL     OW26408  14.173   5.138  11.447
 8190SOL    HW126409  14.093   5.100  11.482
 8190SOL    HW226410  14.143   5.209  11.390
 8191SOL     OW26411   9.555  13.746   0.394
 8191SOL    HW126412   9.571  13.713   0.482
 8191SOL    HW226413   9.552  13.667   0.340
 8192SOL     OW26414   6.784  10.819   8.279
 8192SOL    HW126415   6.713  10.842   8.339
 8192SOL    HW226416   6.773  10.878   8.205
 8193SOL     OW26417  10.279  11.051   5.834
 8193SOL    HW126418  10.247  11.048   5.744
 8193SOL    HW226419  10.370  11.080   5.825
 8194SOL     OW26420   9.155  14.770  13.250
 8194SOL    HW126421   9.156  14.760  13.345
 8194SOL    HW226422   9.072  14.732  13.223
 8195SOL     OW26423   4.231   1.390   5.344
 8195SOL    HW126424   4.162   1.456   5.340
 8195SOL    HW226425   4.290   1.412   5.272
 8196SOL     OW26426   7.482   5.737  12.267
 8196SOL    HW126427   7.388   5.722  12.283
 8196SOL    HW226428   7.486   5.826  12.231
 8197SOL     OW26429   0.456  13.079   4.885
 8197SOL    HW126430   0.404  12.999   4.886
 8197SOL    HW226431   0.392  13.150   4.884
 8198SOL     OW26432   4.492   2.754   3.755
 8198SOL    HW126433   4.543   2.673   3.764
 8198SOL    HW226434   4.421   2.745   3.818
 8199SOL     OW26435  11.219   7.174   9.631
 8199SOL    HW126436  11.153   7.224   9.582
 8199SOL    HW226437  11.228   7.221   9.714
 8200SOL     OW26438   2.887   0.267  11.754
 8200SOL    HW126439   2.810   0.302  11.799
 8200SOL    HW226440   2.872   0.173  11.751
 8201SOL     OW26441   3.571  14.080  12.879
 8201SOL    HW126442   3.548  14.140  12.808
 8201SOL    HW226443   3.611  14.005  12.835
 8202SOL     OW26444   7.736   0.497  12.280
 8202SOL    HW126445   7.794   0.422  12.290
 8202SOL    HW226446   7.774   0.564  12.337
 8203SOL     OW26447   6.612  14.158   2.994
 8203SOL    HW126448   6.639  14.095   2.927
 8203SOL    HW226449   6.679  14.149   3.062
 8204SOL     OW26450   6.280  13.777  14.675
 8204SOL    HW126451   6.322  13.758  14.759
 8204SOL    HW226452   6.192  13.739  14.683
 8205SOL     OW26453  11.310   6.733  14.414
 8205SOL    HW126454  11.330   6.758  14.324
 8205SOL    HW226455  11.390   6.691  14.445
 8206SOL     OW26456   9.883   0.810   0.863
 8206SOL    HW126457   9.919   0.899   0.867
 8206SOL    HW226458   9.898   0.775   0.951
 8207SOL     OW26459   5.468  14.088   0.474
 8207SOL    HW126460   5.526  14.116   0.545
 8207SOL    HW226461   5.400  14.036   0.518
 8208SOL     OW26462   4.767  12.061   5.341
 8208SOL    HW126463   4.732  11.990   5.395
 8208SOL    HW226464   4.792  12.129   5.404
 8209SOL     OW26465   1.207   2.512   6.703
 8209SOL    HW126466   1.279   2.507   6.641
 8209SOL    HW226467   1.139   2.454   6.666
 8210SOL     OW26468  12.727   0.012   0.437
 8210SOL    HW126469  12.803   0.069   0.428
 8210SOL    HW226470  12.654   0.064   0.403
 8211SOL     OW26471   2.454   8.654   9.178
 8211SOL    HW126472   2.492   8.710   9.109
 8211SOL    HW226473   2.509   8.670   9.255
 8212SOL     OW26474  14.733   1.437   3.567
 8212SOL    HW126475  14.713   1.343   3.565
 8212SOL    HW226476  14.790   1.451   3.491
 8213SOL     OW26477   4.191   1.675  14.533
 8213SOL    HW126478   4.267   1.624  14.560
 8213SOL    HW226479   4.226   1.742  14.475
 8214SOL     OW26480   2.828   9.307  11.612
 8214SOL    HW126481   2.833   9.253  11.533
 8214SOL    HW226482   2.735   9.323  11.626
 8215SOL     OW26483  13.204   9.167   7.839
 8215SOL    HW126484  13.248   9.194   7.919
 8215SOL    HW226485  13.212   9.243   7.781
 8216SOL     OW26486  14.204   1.154   4.037
 8216SOL    HW126487  14.135   1.220   4.044
 8216SOL    HW226488  14.251   1.160   4.120
 8217SOL     OW26489  12.538   1.838  13.336
 8217SOL    HW126490  12.568   1.863  13.423
 8217SOL    HW226491  12.590   1.761  13.314
 8218SOL     OW26492   8.654  13.895   0.853
 8218SOL    HW126493   8.746  13.882   0.829
 8218SOL    HW226494   8.650  13.873   0.946
 8219SOL     OW26495   5.663  11.423  10.518
 8219SOL    HW126496   5.574  11.406  10.549
 8219SOL    HW226497   5.717  11.363  10.570
 8220SOL     OW26498   7.067   2.407   1.781
 8220SOL    HW126499   7.014   2.331   1.805
 8220SOL    HW226500   7.138   2.372   1.728
 8221SOL     OW26501   5.711   8.519   1.387
 8221SOL    HW126502   5.774   8.514   1.459
 8221SOL    HW226503   5.761   8.494   1.309
 8222SOL     OW26504   3.803  11.375   2.342
 8222SOL    HW126505   3.891  11.365   2.307
 8222SOL    HW226506   3.805  11.328   2.426
 8223SOL     OW26507   0.609  10.514   7.225
 8223SOL    HW126508   0.661  10.578   7.175
 8223SOL    HW226509   0.523  10.555   7.235
 8224SOL     OW26510   5.567  12.773  10.150
 8224SOL    HW126511   5.575  12.868  10.159
 8224SOL    HW226512   5.476  12.754  10.172
 8225SOL     OW26513   5.345   3.806   9.360
 8225SOL    HW126514   5.401   3.747   9.410
 8225SOL    HW226515   5.396   3.827   9.282
 8226SOL     OW26516  11.450   6.939   7.409
 8226SOL    HW126517  11.424   6.849   7.429
 8226SOL    HW226518  11.541   6.931   7.381
 8227SOL     OW26519  12.558  11.439   9.112
 8227SOL    HW126520  12.617  11.395   9.172
 8227SOL    HW226521  12.599  11.525   9.097
 8228SOL     OW26522  11.052   2.766   6.836
 8228SOL    HW126523  10.988   2.790   6.903
 8228SOL    HW226524  11.119   2.718   6.884
 8229SOL     OW26525   6.135  12.913   3.546
 8229SOL    HW126526   6.158  12.832   3.593
 8229SOL    HW226527   6.202  12.976   3.572
 8230SOL     OW26528  13.023   8.347   4.926
 8230SOL    HW126529  13.028   8.442   4.932
 8230SOL    HW226530  13.052   8.316   5.012
 8231SOL     OW26531   3.198  12.642   7.029
 8231SOL    HW126532   3.220  12.667   7.118
 8231SOL    HW226533   3.266  12.579   7.004
 8232SOL     OW26534  11.807   6.881   5.177
 8232SOL    HW126535  11.718   6.910   5.200
 8232SOL    HW226536  11.844   6.851   5.260
 8233SOL     OW26537   0.152   0.544  13.880
 8233SOL    HW126538   0.072   0.555  13.932
 8233SOL    HW226539   0.223   0.561  13.942
 8234SOL     OW26540   3.629   2.497   2.416
 8234SOL    HW126541   3.717   2.472   2.387
 8234SOL    HW226542   3.585   2.413   2.433
 8235SOL     OW26543  10.707   5.256   0.427
 8235SOL    HW126544  10.645   5.236   0.357
 8235SOL    HW226545  10.779   5.195   0.415
 8236SOL     OW26546   5.203  12.466  11.518
 8236SOL    HW126547   5.110  12.443  11.514
 8236SOL    HW226548   5.204  12.561  11.531
 8237SOL     OW26549   1.248   3.195  12.225
 8237SOL    HW126550   1.232   3.221  12.135
 8237SOL    HW226551   1.189   3.121  12.240
 8238SOL     OW26552   7.460  10.548   9.899
 8238SOL    HW126553   7.517  10.569   9.973
 8238SOL    HW226554   7.371  10.559   9.933
 8239SOL     OW26555   4.488   8.214   1.906
 8239SOL    HW126556   4.526   8.266   1.977
 8239SOL    HW226557   4.472   8.276   1.836
 8240SOL     OW26558  12.308   2.429   0.452
 8240SOL    HW126559  12.360   2.350   0.466
 8240SOL    HW226560  12.231   2.399   0.404
 8241SOL     OW26561  13.697  14.625  14.800
 8241SOL    HW126562  13.780  14.577  14.795
 8241SOL    HW226563  13.718  14.713  14.770
 8242SOL     OW26564   5.717  11.586   3.858
 8242SOL    HW126565   5.730  11.556   3.947
 8242SOL    HW226566   5.679  11.674   3.868
 8243SOL     OW26567   2.476   2.730   7.980
 8243SOL    HW126568   2.491   2.813   8.024
 8243SOL    HW226569   2.518   2.741   7.894
 8244SOL     OW26570   5.414  14.195   0.084
 8244SOL    HW126571   5.326  14.163   0.066
 8244SOL    HW226572   5.406  14.290   0.079
 8245SOL     OW26573   8.346   5.550   2.411
 8245SOL    HW126574   8.289   5.625   2.428
 8245SOL    HW226575   8.341   5.496   2.490
 8246SOL     OW26576  13.131   9.615   5.009
 8246SOL    HW126577  13.076   9.654   4.941
 8246SOL    HW226578  13.107   9.522   5.009
 8247SOL     OW26579  12.848   2.524  14.580
 8247SOL    HW126580  12.844   2.488  14.491
 8247SOL    HW226581  12.791   2.600  14.577
 8248SOL     OW26582   7.751   7.845   6.744
 8248SOL    HW126583   7.736   7.833   6.838
 8248SOL    HW226584   7.706   7.927   6.723
 8249SOL     OW26585  10.270   9.783  13.774
 8249SOL    HW126586  10.292   9.795  13.866
 8249SOL    HW226587  10.316   9.853  13.729
 8250SOL     OW26588   8.697  10.291  13.132
 8250SOL    HW126589   8.745  10.374  13.133
 8250SOL    HW226590   8.611  10.313  13.095
 8251SOL     OW26591   2.368   9.298   1.196
 8251SOL    HW126592   2.393   9.292   1.288
 8251SOL    HW226593   2.429   9.240   1.150
 8252SOL     OW26594  13.066   6.642   2.946
 8252SOL    HW126595  13.046   6.691   2.866
 8252SOL    HW226596  13.161   6.640   2.949
 8253SOL     OW26597   6.798   9.585   9.533
 8253SOL    HW126598   6.803   9.536   9.615
 8253SOL    HW226599   6.732   9.653   9.550
 8254SOL     OW26600  12.672   4.574   5.252
 8254SOL    HW126601  12.762   4.562   5.221
 8254SOL    HW226602  12.679   4.636   5.324
 8255SOL     OW26603   4.073   4.530   0.231
 8255SOL    HW126604   4.163   4.506   0.211
 8255SOL    HW226605   4.071   4.625   0.221
 8256SOL     OW26606   5.940   7.998   3.199
 8256SOL    HW126607   6.018   8.048   3.221
 8256SOL    HW226608   5.914   8.031   3.113
 8257SOL     OW26609   3.101  12.924   7.747
 8257SOL    HW126610   3.098  12.834   7.779
 8257SOL    HW226611   3.031  12.929   7.682
 8258SOL     OW26612  10.529  11.751  12.737
 8258SOL    HW126613  10.514  11.822  12.801
 8258SOL    HW226614  10.513  11.671  12.787
 8259SOL     OW26615   2.467  11.726  12.634
 8259SOL    HW126616   2.530  11.798  12.626
 8259SOL    HW226617   2.505  11.654  12.583
 8260SOL     OW26618   9.172   7.596  11.541
 8260SOL    HW126619   9.212   7.683  11.541
 8260SOL    HW226620   9.221   7.547  11.474
 8261SOL     OW26621   2.500   5.123   8.753
 8261SOL    HW126622   2.520   5.213   8.779
 8261SOL    HW226623   2.407   5.123   8.734
 8262SOL     OW26624  13.581   7.519  12.977
 8262SOL    HW126625  13.590   7.470  13.059
 8262SOL    HW226626  13.666   7.510  12.935
 8263SOL     OW26627   9.257   7.800   8.568
 8263SOL    HW126628   9.233   7.860   8.639
 8263SOL    HW226629   9.176   7.753   8.548
 8264SOL     OW26630   7.120  11.964   2.426
 8264SOL    HW126631   7.065  11.915   2.488
 8264SOL    HW226632   7.207  11.963   2.465
 8265SOL     OW26633   5.604   6.090  13.248
 8265SOL    HW126634   5.650   6.073  13.330
 8265SOL    HW226635   5.564   6.176  13.260
 8266SOL     OW26636   7.539   8.274   8.994
 8266SOL    HW126637   7.562   8.366   8.980
 8266SOL    HW226638   7.623   8.228   8.997
 8267SOL     OW26639   3.846  10.104  12.493
 8267SOL    HW126640   3.805  10.045  12.429
 8267SOL    HW226641   3.899  10.163  12.439
 8268SOL     OW26642  11.141   6.306   9.044
 8268SOL    HW126643  11.144   6.352   8.960
 8268SOL    HW226644  11.123   6.215   9.020
 8269SOL     OW26645  13.719   1.744   8.113
 8269SOL    HW126646  13.630   1.725   8.084
 8269SOL    HW226647  13.735   1.683   8.185
 8270SOL     OW26648   2.814   6.080   2.692
 8270SOL    HW126649   2.790   6.029   2.769
 8270SOL    HW226650   2.746   6.061   2.628
 8271SOL     OW26651   4.710  11.276   4.811
 8271SOL    HW126652   4.639  11.224   4.848
 8271SOL    HW226653   4.667  11.356   4.780
 8272SOL     OW26654  13.332  11.365  10.282
 8272SOL    HW126655  13.373  11.442  10.320
 8272SOL    HW226656  13.360  11.292  10.338
 8273SOL     OW26657  13.925   8.984  12.285
 8273SOL    HW126658  13.941   8.961  12.377
 8273SOL    HW226659  13.977   9.063  12.271
 8274SOL     OW26660   5.602  12.872   5.757
 8274SOL    HW126661   5.608  12.802   5.823
 8274SOL    HW226662   5.536  12.932   5.791
 8275SOL     OW26663   8.342   5.020   8.679
 8275SOL    HW126664   8.316   5.043   8.769
 8275SOL    HW226665   8.374   4.930   8.686
 8276SOL     OW26666   8.186  10.739   6.255
 8276SOL    HW126667   8.216  10.749   6.345
 8276SOL    HW226668   8.155  10.649   6.249
 8277SOL     OW26669   5.824   1.909   0.136
 8277SOL    HW126670   5.903   1.937   0.090
 8277SOL    HW226671   5.841   1.930   0.228
 8278SOL     OW26672  13.037   8.795   0.249
 8278SOL    HW126673  12.948   8.806   0.281
 8278SOL    HW226674  13.043   8.703   0.223
 8279SOL     OW26675   8.250  12.113   3.271
 8279SOL    HW126676   8.203  12.048   3.324
 8279SOL    HW226677   8.285  12.175   3.335
 8280SOL     OW26678  14.523   3.600   9.093
 8280SOL    HW126679  14.470   3.545   9.035
 8280SOL    HW226680  14.541   3.544   9.169
 8281SOL     OW26681   5.695   4.017   7.072
 8281SOL    HW126682   5.700   3.984   7.162
 8281SOL    HW226683   5.775   4.068   7.060
 8282SOL     OW26684  10.804   2.114   9.520
 8282SOL    HW126685  10.879   2.068   9.558
 8282SOL    HW226686  10.733   2.050   9.521
 8283SOL     OW26687   2.032  13.391   3.626
 8283SOL    HW126688   2.113  13.438   3.607
 8283SOL    HW226689   1.997  13.368   3.540
 8284SOL     OW26690   8.027   2.950  10.067
 8284SOL    HW126691   8.086   2.890  10.112
 8284SOL    HW226692   7.985   3.000  10.137
 8285SOL     OW26693   7.811   1.003   1.173
 8285SOL    HW126694   7.844   0.931   1.226
 8285SOL    HW226695   7.829   0.976   1.083
 8286SOL     OW26696   3.534   9.689   2.545
 8286SOL    HW126697   3.483   9.744   2.604
 8286SOL    HW226698   3.522   9.728   2.458
 8287SOL     OW26699  12.565   0.988   4.123
 8287SOL    HW126700  12.568   0.917   4.058
 8287SOL    HW226701  12.608   0.951   4.201
 8288SOL     OW26702  11.422   0.582   4.183
 8288SOL    HW126703  11.351   0.631   4.142
 8288SOL    HW226704  11.502   0.626   4.156
 8289SOL     OW26705   5.000   8.217   9.759
 8289SOL    HW126706   5.009   8.161   9.682
 8289SOL    HW226707   5.032   8.303   9.731
 8290SOL     OW26708  11.475   9.792  12.364
 8290SOL    HW126709  11.533   9.786  12.440
 8290SOL    HW226710  11.503   9.871  12.319
 8291SOL     OW26711   8.387  13.692  10.650
 8291SOL    HW126712   8.404  13.693  10.556
 8291SOL    HW226713   8.318  13.627  10.660
 8292SOL     OW26714   4.874   6.459   6.956
 8292SOL    HW126715   4.786   6.494   6.939
 8292SOL    HW226716   4.863   6.406   7.035
 8293SOL     OW26717  12.533   9.143   5.633
 8293SOL    HW126718  12.489   9.103   5.557
 8293SOL    HW226719  12.625   9.121   5.620
 8294SOL     OW26720   9.945  14.280   9.671
 8294SOL    HW126721   9.852  14.266   9.655
 8294SOL    HW226722   9.978  14.193   9.695
 8295SOL     OW26723   2.669   9.598  10.956
 8295SOL    HW126724   2.668   9.643  10.871
 8295SOL    HW226725   2.579   9.607  10.988
 8296SOL     OW26726   7.132   9.532  10.482
 8296SOL    HW126727   7.197   9.466  10.507
 8296SOL    HW226728   7.107   9.506  10.393
 8297SOL     OW26729   1.111   1.685   2.559
 8297SOL    HW126730   1.083   1.761   2.610
 8297SOL    HW226731   1.128   1.617   2.623
 8298SOL     OW26732   5.493   1.559   0.331
 8298SOL    HW126733   5.540   1.624   0.279
 8298SOL    HW226734   5.511   1.475   0.288
 8299SOL     OW26735   8.451  13.898   2.433
 8299SOL    HW126736   8.455  13.818   2.485
 8299SOL    HW226737   8.377  13.885   2.373
 8300SOL     OW26738  11.288  13.467   2.444
 8300SOL    HW126739  11.256  13.377   2.440
 8300SOL    HW226740  11.383  13.458   2.452
 8301SOL     OW26741  11.804   0.411   6.775
 8301SOL    HW126742  11.725   0.465   6.781
 8301SOL    HW226743  11.828   0.413   6.682
 8302SOL     OW26744   3.678  14.833  10.028
 8302SOL    HW126745   3.710  14.812   9.940
 8302SOL    HW226746   3.593  14.875  10.013
 8303SOL     OW26747   2.778   9.410   9.491
 8303SOL    HW126748   2.722   9.420   9.569
 8303SOL    HW226749   2.831   9.333   9.509
 8304SOL     OW26750   6.365   1.482  14.122
 8304SOL    HW126751   6.430   1.512  14.058
 8304SOL    HW226752   6.372   1.543  14.195
 8305SOL     OW26753  13.106  14.524  12.940
 8305SOL    HW126754  13.169  14.546  12.871
 8305SOL    HW226755  13.128  14.584  13.011
 8306SOL     OW26756  11.759   8.383  11.668
 8306SOL    HW126757  11.704   8.306  11.663
 8306SOL    HW226758  11.843   8.356  11.630
 8307SOL     OW26759   2.439   6.980  13.018
 8307SOL    HW126760   2.462   7.064  13.058
 8307SOL    HW226761   2.522   6.937  13.001
 8308SOL     OW26762   2.129   5.973  13.022
 8308SOL    HW126763   2.098   5.903  12.964
 8308SOL    HW226764   2.054   5.993  13.078
 8309SOL     OW26765   8.493   3.752  10.755
 8309SOL    HW126766   8.535   3.680  10.707
 8309SOL    HW226767   8.565   3.808  10.783
 8310SOL     OW26768   5.399   4.485   4.090
 8310SOL    HW126769   5.492   4.484   4.067
 8310SOL    HW226770   5.366   4.400   4.063
 8311SOL     OW26771  14.640   6.228   1.125
 8311SOL    HW126772  14.725   6.271   1.113
 8311SOL    HW226773  14.645   6.152   1.067
 8312SOL     OW26774   4.741   7.792  14.568
 8312SOL    HW126775   4.647   7.802  14.584
 8312SOL    HW226776   4.779   7.875  14.597
 8313SOL     OW26777   7.808   1.688  10.265
 8313SOL    HW126778   7.807   1.602  10.223
 8313SOL    HW226779   7.850   1.672  10.350
 8314SOL     OW26780  13.039   3.583   7.445
 8314SOL    HW126781  13.097   3.531   7.501
 8314SOL    HW226782  12.953   3.543   7.455
 8315SOL     OW26783  11.836   9.735   0.409
 8315SOL    HW126784  11.791   9.701   0.487
 8315SOL    HW226785  11.766   9.775   0.357
 8316SOL     OW26786  10.375   9.340   1.497
 8316SOL    HW126787  10.429   9.403   1.544
 8316SOL    HW226788  10.436   9.272   1.469
 8317SOL     OW26789  14.018   7.563  11.525
 8317SOL    HW126790  14.005   7.469  11.513
 8317SOL    HW226791  13.993   7.602  11.441
 8318SOL     OW26792   5.065  14.795  10.891
 8318SOL    HW126793   4.994  14.802  10.827
 8318SOL    HW226794   5.142  14.772  10.839
 8319SOL     OW26795  11.795   0.824  10.409
 8319SOL    HW126796  11.832   0.777  10.483
 8319SOL    HW226797  11.718   0.772  10.384
 8320SOL     OW26798   0.985  10.065   7.593
 8320SOL    HW126799   1.058  10.079   7.533
 8320SOL    HW226800   1.014   9.995   7.652
 8321SOL     OW26801  13.205   1.208   2.314
 8321SOL    HW126802  13.177   1.138   2.373
 8321SOL    HW226803  13.125   1.259   2.298
 8322SOL     OW26804  11.824   2.801   8.555
 8322SOL    HW126805  11.756   2.784   8.490
 8322SOL    HW226806  11.781   2.787   8.639
 8323SOL     OW26807   6.330   5.181   1.596
 8323SOL    HW126808   6.327   5.259   1.541
 8323SOL    HW226809   6.408   5.134   1.566
 8324SOL     OW26810   7.416   2.896   4.898
 8324SOL    HW126811   7.507   2.878   4.876
 8324SOL    HW226812   7.403   2.987   4.872
 8325SOL     OW26813   7.609   0.891   9.917
 8325SOL    HW126814   7.522   0.931   9.914
 8325SOL    HW226815   7.626   0.877  10.010
 8326SOL     OW26816   5.060   5.365   6.420
 8326SOL    HW126817   5.107   5.354   6.503
 8326SOL    HW226818   5.006   5.287   6.412
 8327SOL     OW26819  11.610  11.775  14.022
 8327SOL    HW126820  11.688  11.719  14.023
 8327SOL    HW226821  11.643  11.862  14.046
 8328SOL     OW26822   3.156  11.870  12.621
 8328SOL    HW126823   3.160  11.834  12.709
 8328SOL    HW226824   3.212  11.947  12.623
 8329SOL     OW26825  14.121  12.460   7.421
 8329SOL    HW126826  14.069  12.383   7.398
 8329SOL    HW226827  14.208  12.425   7.441
 8330SOL     OW26828   9.252   6.560  12.259
 8330SOL    HW126829   9.309   6.489  12.289
 8330SOL    HW226830   9.238   6.613  12.338
 8331SOL     OW26831  11.564  10.019   8.194
 8331SOL    HW126832  11.563  10.056   8.282
 8331SOL    HW226833  11.508   9.942   8.199
 8332SOL     OW26834   1.663   4.135  13.886
 8332SOL    HW126835   1.624   4.048  13.880
 8332SOL    HW226836   1.688   4.157  13.796
 8333SOL     OW26837   9.247   7.860   2.986
 8333SOL    HW126838   9.342   7.869   2.977
 8333SOL    HW226839   9.219   7.811   2.909
 8334SOL     OW26840  13.831   6.781  13.790
 8334SOL    HW126841  13.752   6.733  13.764
 8334SOL    HW226842  13.903   6.726  13.760
 8335SOL     OW26843   7.958   0.957   1.434
 8335SOL    HW126844   7.959   0.963   1.530
 8335SOL    HW226845   8.003   0.875   1.415
 8336SOL     OW26846   2.949   0.212   6.831
 8336SOL    HW126847   2.990   0.294   6.806
 8336SOL    HW226848   2.863   0.214   6.790
 8337SOL     OW26849   7.145   9.552   6.818
 8337SOL    HW126850   7.055   9.557   6.847
 8337SOL    HW226851   7.147   9.476   6.759
 8338SOL     OW26852   2.592  10.812   6.467
 8338SOL    HW126853   2.580  10.906   6.453
 8338SOL    HW226854   2.548  10.795   6.551
 8339SOL     OW26855   2.356   4.057  11.061
 8339SOL    HW126856   2.292   4.031  11.127
 8339SOL    HW226857   2.409   4.124  11.104
 8340SOL     OW26858  13.806  11.922   2.516
 8340SOL    HW126859  13.750  11.909   2.593
 8340SOL    HW226860  13.832  11.834   2.489
 8341SOL     OW26861  14.871   7.934  11.087
 8341SOL    HW126862  14.829   7.898  11.009
 8341SOL    HW226863   0.069   7.876  11.103
 8342SOL     OW26864   9.451   1.666   9.720
 8342SOL    HW126865   9.525   1.616   9.753
 8342SOL    HW226866   9.481   1.757   9.720
 8343SOL     OW26867  12.051   5.091   7.990
 8343SOL    HW126868  12.017   5.022   7.934
 8343SOL    HW226869  12.027   5.172   7.945
 8344SOL     OW26870   1.910   6.890  13.862
 8344SOL    HW126871   1.983   6.952  13.852
 8344SOL    HW226872   1.883   6.900  13.953
 8345SOL     OW26873   2.761  13.797   6.209
 8345SOL    HW126874   2.783  13.889   6.226
 8345SOL    HW226875   2.698  13.774   6.278
 8346SOL     OW26876  11.500   2.365   8.107
 8346SOL    HW126877  11.508   2.318   8.024
 8346SOL    HW226878  11.590   2.370   8.141
 8347SOL     OW26879  11.496   2.734  14.222
 8347SOL    HW126880  11.555   2.800  14.185
 8347SOL    HW226881  11.504   2.745  14.317
 8348SOL     OW26882   1.221  11.417  12.310
 8348SOL    HW126883   1.136  11.396  12.349
 8348SOL    HW226884   1.274  11.448  12.384
 8349SOL     OW26885   2.906  14.653   9.191
 8349SOL    HW126886   2.838  14.678   9.253
 8349SOL    HW226887   2.900  14.558   9.185
 8350SOL     OW26888   3.415  13.990  13.084
 8350SOL    HW126889   3.467  14.010  13.007
 8350SOL    HW226890   3.324  13.998  13.055
 8351SOL     OW26891   9.465   1.967  12.364
 8351SOL    HW126892   9.542   1.928  12.404
 8351SOL    HW226893   9.399   1.966  12.433
 8352SOL     OW26894   2.245   5.496  14.537
 8352SOL    HW126895   2.153   5.468  14.535
 8352SOL    HW226896   2.271   5.496  14.445
 8353SOL     OW26897  11.382   6.201  11.570
 8353SOL    HW126898  11.347   6.276  11.618
 8353SOL    HW226899  11.324   6.128  11.593
 8354SOL     OW26900   5.789   7.402  12.165
 8354SOL    HW126901   5.713   7.418  12.221
 8354SOL    HW226902   5.842   7.481  12.174
 8355SOL     OW26903   4.041   8.818  11.947
 8355SOL    HW126904   3.956   8.803  11.905
 8355SOL    HW226905   4.099   8.752  11.907
 8356SOL     OW26906  12.466   0.075   3.269
 8356SOL    HW126907  12.377   0.057   3.239
 8356SOL    HW226908  12.469   0.040   3.358
 8357SOL     OW26909  11.912  10.022   4.995
 8357SOL    HW126910  11.826  10.033   4.954
 8357SOL    HW226911  11.911   9.932   5.028
 8358SOL     OW26912   9.963  14.507   6.827
 8358SOL    HW126913  10.038  14.512   6.768
 8358SOL    HW226914  10.000  14.473   6.909
 8359SOL     OW26915   1.590   0.346   1.230
 8359SOL    HW126916   1.613   0.333   1.322
 8359SOL    HW226917   1.624   0.269   1.185
 8360SOL     OW26918   7.900   9.438   0.054
 8360SOL    HW126919   7.987   9.448   0.094
 8360SOL    HW226920   7.884   9.522   0.011
 8361SOL     OW26921   7.356   6.305  10.595
 8361SOL    HW126922   7.427   6.338  10.649
 8361SOL    HW226923   7.397   6.239  10.539
 8362SOL     OW26924   8.762   3.512   0.667
 8362SOL    HW126925   8.705   3.582   0.699
 8362SOL    HW226926   8.704   3.457   0.615
 8363SOL     OW26927   9.200   7.805   3.926
 8363SOL    HW126928   9.137   7.837   3.861
 8363SOL    HW226929   9.275   7.776   3.874
 8364SOL     OW26930   3.707  11.027  12.070
 8364SOL    HW126931   3.641  11.065  12.011
 8364SOL    HW226932   3.715  11.091  12.141
 8365SOL     OW26933   9.858  12.059   9.170
 8365SOL    HW126934   9.803  12.093   9.100
 8365SOL    HW226935   9.947  12.060   9.134
 8366SOL     OW26936   5.508  12.813   4.513
 8366SOL    HW126937   5.418  12.812   4.545
 8366SOL    HW226938   5.500  12.830   4.420
 8367SOL     OW26939   9.511   9.795   4.822
 8367SOL    HW126940   9.559   9.870   4.856
 8367SOL    HW226941   9.514   9.730   4.892
 8368SOL     OW26942   1.868  14.101   5.438
 8368SOL    HW126943   1.828  14.067   5.357
 8368SOL    HW226944   1.794  14.132   5.489
 8369SOL     OW26945   3.264   1.612   4.304
 8369SOL    HW126946   3.249   1.607   4.210
 8369SOL    HW226947   3.192   1.562   4.343
 8370SOL     OW26948   0.167   7.635   9.492
 8370SOL    HW126949   0.172   7.723   9.529
 8370SOL    HW226950   0.076   7.609   9.502
 8371SOL     OW26951  14.301   4.535   1.091
 8371SOL    HW126952  14.334   4.599   1.154
 8371SOL    HW226953  14.216   4.508   1.125
 8372SOL     OW26954  11.427  13.798   5.655
 8372SOL    HW126955  11.436  13.893   5.640
 8372SOL    HW226956  11.380  13.766   5.577
 8373SOL     OW26957  12.807  13.867   2.839
 8373SOL    HW126958  12.839  13.899   2.755
 8373SOL    HW226959  12.730  13.815   2.818
 8374SOL     OW26960  13.122   3.806   1.588
 8374SOL    HW126961  13.196   3.805   1.649
 8374SOL    HW226962  13.141   3.879   1.529
 8375SOL     OW26963   8.873  11.888   4.981
 8375SOL    HW126964   8.932  11.926   4.916
 8375SOL    HW226965   8.890  11.939   5.061
 8376SOL     OW26966  11.771  12.541  10.641
 8376SOL    HW126967  11.750  12.489  10.563
 8376SOL    HW226968  11.810  12.621  10.606
 8377SOL     OW26969   3.448   5.682   7.351
 8377SOL    HW126970   3.517   5.721   7.298
 8377SOL    HW226971   3.386   5.645   7.288
 8378SOL     OW26972  14.101   6.871   9.866
 8378SOL    HW126973  14.080   6.829   9.950
 8378SOL    HW226974  14.042   6.829   9.803
 8379SOL     OW26975   8.823  10.546   3.943
 8379SOL    HW126976   8.731  10.522   3.957
 8379SOL    HW226977   8.860  10.549   4.031
 8380SOL     OW26978   2.432   8.570  12.211
 8380SOL    HW126979   2.348   8.562  12.255
 8380SOL    HW226980   2.425   8.651  12.159
 8381SOL     OW26981   9.075   9.624   6.426
 8381SOL    HW126982   8.991   9.660   6.399
 8381SOL    HW226983   9.137   9.653   6.360
 8382SOL     OW26984   3.288   8.018   2.418
 8382SOL    HW126985   3.346   7.995   2.490
 8382SOL    HW226986   3.283   7.939   2.364
 8383SOL     OW26987   2.873  12.012  13.359
 8383SOL    HW126988   2.855  11.919  13.344
 8383SOL    HW226989   2.962  12.015  13.394
 8384SOL     OW26990   9.463   9.581   0.418
 8384SOL    HW126991   9.476   9.671   0.385
 8384SOL    HW226992   9.399   9.543   0.358
 8385SOL     OW26993   2.796   9.639  11.737
 8385SOL    HW126994   2.880   9.676  11.713
 8385SOL    HW226995   2.818   9.559  11.786
 8386SOL     OW26996  14.145  10.833  13.318
 8386SOL    HW126997  14.227  10.851  13.363
 8386SOL    HW226998  14.165  10.847  13.225
 8387SOL     OW26999   0.048   3.105   5.276
 8387SOL    HW127000   0.114   3.063   5.332
 8387SOL    HW227001   0.057   3.199   5.295
 8388SOL     OW27002   4.691   4.718   0.857
 8388SOL    HW127003   4.601   4.740   0.834
 8388SOL    HW227004   4.693   4.717   0.953
 8389SOL     OW27005   7.785  14.042   3.915
 8389SOL    HW127006   7.848  13.974   3.938
 8389SOL    HW227007   7.760  14.022   3.825
 8390SOL     OW27008   2.337  14.085   7.526
 8390SOL    HW127009   2.284  14.137   7.466
 8390SOL    HW227010   2.426  14.091   7.491
 8391SOL     OW27011   6.010   0.777   9.455
 8391SOL    HW127012   6.027   0.861   9.498
 8391SOL    HW227013   5.976   0.720   9.525
 8392SOL     OW27014   0.398   7.783  14.420
 8392SOL    HW127015   0.384   7.717  14.488
 8392SOL    HW227016   0.330   7.765  14.355
 8393SOL     OW27017   8.251   4.280   6.344
 8393SOL    HW127018   8.236   4.196   6.299
 8393SOL    HW227019   8.290   4.336   6.277
 8394SOL     OW27020   7.644   8.651   2.737
 8394SOL    HW127021   7.587   8.574   2.730
 8394SOL    HW227022   7.583   8.725   2.737
 8395SOL     OW27023  10.994   8.832   4.213
 8395SOL    HW127024  11.054   8.759   4.232
 8395SOL    HW227025  10.909   8.803   4.246
 8396SOL     OW27026   8.736   3.348   2.976
 8396SOL    HW127027   8.832   3.347   2.982
 8396SOL    HW227028   8.708   3.394   3.055
 8397SOL     OW27029   1.605   8.350   4.852
 8397SOL    HW127030   1.512   8.356   4.875
 8397SOL    HW227031   1.619   8.422   4.792
 8398SOL     OW27032  13.375   6.530  12.848
 8398SOL    HW127033  13.325   6.523  12.930
 8398SOL    HW227034  13.309   6.550  12.782
 8399SOL     OW27035   0.406  13.041   7.389
 8399SOL    HW127036   0.354  12.968   7.354
 8399SOL    HW227037   0.346  13.115   7.391
 8400SOL     OW27038   4.586   1.014   2.469
 8400SOL    HW127039   4.497   0.980   2.481
 8400SOL    HW227040   4.599   1.073   2.543
 8401SOL     OW27041  13.002   0.100   5.824
 8401SOL    HW127042  13.022   0.105   5.730
 8401SOL    HW227043  13.051   0.172   5.863
 8402SOL     OW27044   4.449   8.333   8.246
 8402SOL    HW127045   4.451   8.429   8.239
 8402SOL    HW227046   4.500   8.303   8.171
 8403SOL     OW27047  13.703   9.161   6.307
 8403SOL    HW127048  13.731   9.217   6.379
 8403SOL    HW227049  13.623   9.120   6.339
 8404SOL     OW27050   9.834  10.326   2.459
 8404SOL    HW127051   9.870  10.362   2.540
 8404SOL    HW227052   9.862  10.234   2.459
 8405SOL     OW27053   0.660   3.589  10.353
 8405SOL    HW127054   0.656   3.672  10.401
 8405SOL    HW227055   0.739   3.596  10.300
 8406SOL     OW27056  11.398  11.433  12.035
 8406SOL    HW127057  11.413  11.469  11.948
 8406SOL    HW227058  11.480  11.450  12.082
 8407SOL     OW27059   5.778   3.880   4.207
 8407SOL    HW127060   5.837   3.955   4.207
 8407SOL    HW227061   5.690   3.918   4.213
 8408SOL     OW27062  12.799   8.163   5.884
 8408SOL    HW127063  12.839   8.084   5.921
 8408SOL    HW227064  12.857   8.234   5.910
 8409SOL     OW27065   2.122  10.792   1.383
 8409SOL    HW127066   2.167  10.800   1.467
 8409SOL    HW227067   2.176  10.842   1.322
 8410SOL     OW27068   7.152  11.178  14.042
 8410SOL    HW127069   7.155  11.129  13.959
 8410SOL    HW227070   7.231  11.150  14.089
 8411SOL     OW27071   8.780   1.337   1.646
 8411SOL    HW127072   8.702   1.341   1.591
 8411SOL    HW227073   8.802   1.244   1.651
 8412SOL     OW27074   4.375   6.374  14.229
 8412SOL    HW127075   4.295   6.403  14.273
 8412SOL    HW227076   4.428   6.454  14.220
 8413SOL     OW27077  13.363   4.778   9.905
 8413SOL    HW127078  13.442   4.727   9.886
 8413SOL    HW227079  13.321   4.790   9.820
 8414SOL     OW27080  13.718   5.818  13.165
 8414SOL    HW127081  13.804   5.789  13.137
 8414SOL    HW227082  13.735   5.872  13.242
 8415SOL     OW27083   0.863   5.003   1.406
 8415SOL    HW127084   0.819   4.938   1.461
 8415SOL    HW227085   0.892   4.953   1.329
 8416SOL     OW27086   3.034  13.806   9.639
 8416SOL    HW127087   3.010  13.885   9.590
 8416SOL    HW227088   3.074  13.839   9.719
 8417SOL     OW27089   7.303   1.250   9.936
 8417SOL    HW127090   7.208   1.239   9.947
 8417SOL    HW227091   7.323   1.207   9.853
 8418SOL     OW27092  12.642   0.571   2.599
 8418SOL    HW127093  12.555   0.589   2.636
 8418SOL    HW227094  12.698   0.556   2.675
 8419SOL     OW27095   7.018   7.120   1.073
 8419SOL    HW127096   7.031   7.076   0.988
 8419SOL    HW227097   6.934   7.165   1.065
 8420SOL     OW27098   1.402   6.652   0.057
 8420SOL    HW127099   1.469   6.586   0.042
 8420SOL    HW227100   1.416   6.716  14.864
 8421SOL     OW27101  12.411   9.485   9.777
 8421SOL    HW127102  12.350   9.503   9.705
 8421SOL    HW227103  12.443   9.572   9.803
 8422SOL     OW27104   9.103   5.124   6.389
 8422SOL    HW127105   9.091   5.062   6.317
 8422SOL    HW227106   9.022   5.120   6.439
 8423SOL     OW27107  10.410  12.977  10.422
 8423SOL    HW127108  10.432  13.042  10.356
 8423SOL    HW227109  10.315  12.984  10.431
 8424SOL     OW27110  13.090  12.948   8.813
 8424SOL    HW127111  13.144  12.870   8.828
 8424SOL    HW227112  13.133  13.017   8.863
 8425SOL     OW27113   9.339   8.727   5.720
 8425SOL    HW127114   9.411   8.710   5.660
 8425SOL    HW227115   9.371   8.795   5.779
 8426SOL     OW27116   3.316  13.609   7.872
 8426SOL    HW127117   3.238  13.631   7.821
 8426SOL    HW227118   3.295  13.634   7.962
 8427SOL     OW27119   9.972   3.188   3.141
 8427SOL    HW127120  10.056   3.143   3.149
 8427SOL    HW227121   9.928   3.143   3.069
 8428SOL     OW27122  12.935  12.701   2.101
 8428SOL    HW127123  12.976  12.615   2.110
 8428SOL    HW227124  12.969  12.735   2.018
 8429SOL     OW27125   4.743   4.779   4.153
 8429SOL    HW127126   4.713   4.867   4.178
 8429SOL    HW227127   4.688   4.755   4.078
 8430SOL     OW27128  10.498   1.472   7.509
 8430SOL    HW127129  10.555   1.456   7.434
 8430SOL    HW227130  10.557   1.475   7.584
 8431SOL     OW27131  12.732   9.633   7.919
 8431SOL    HW127132  12.680   9.684   7.857
 8431SOL    HW227133  12.712   9.671   8.004
 8432SOL     OW27134   6.552   0.638   7.905
 8432SOL    HW127135   6.609   0.715   7.913
 8432SOL    HW227136   6.497   0.657   7.830
 8433SOL     OW27137   4.601  11.573  14.404
 8433SOL    HW127138   4.534  11.509  14.427
 8433SOL    HW227139   4.664  11.525  14.350
 8434SOL     OW27140  10.941   2.372  14.252
 8434SOL    HW127141  11.020   2.353  14.303
 8434SOL    HW227142  10.971   2.430  14.182
 8435SOL     OW27143   2.690  12.888  12.372
 8435SOL    HW127144   2.595  12.905  12.377
 8435SOL    HW227145   2.725  12.965  12.327
 8436SOL     OW27146   6.305   4.707  11.668
 8436SOL    HW127147   6.242   4.645  11.706
 8436SOL    HW227148   6.349   4.658  11.600
 8437SOL     OW27149   3.488   1.612  12.088
 8437SOL    HW127150   3.448   1.673  12.026
 8437SOL    HW227151   3.558   1.662  12.130
 8438SOL     OW27152  13.373  13.704   2.245
 8438SOL    HW127153  13.384  13.611   2.268
 8438SOL    HW227154  13.336  13.703   2.157
 8439SOL     OW27155   0.410  12.103  12.915
 8439SOL    HW127156   0.333  12.112  12.859
 8439SOL    HW227157   0.455  12.187  12.906
 8440SOL     OW27158  10.611   2.266   8.558
 8440SOL    HW127159  10.594   2.292   8.649
 8440SOL    HW227160  10.612   2.170   8.560
 8441SOL     OW27161   0.672   7.201   1.556
 8441SOL    HW127162   0.652   7.166   1.469
 8441SOL    HW227163   0.703   7.126   1.606
 8442SOL     OW27164   1.571   1.575   8.987
 8442SOL    HW127165   1.586   1.623   9.069
 8442SOL    HW227166   1.624   1.623   8.922
 8443SOL     OW27167  11.210   4.986   2.416
 8443SOL    HW127168  11.255   5.056   2.463
 8443SOL    HW227169  11.227   5.005   2.324
 8444SOL     OW27170  14.060  11.476   9.441
 8444SOL    HW127171  14.015  11.490   9.357
 8444SOL    HW227172  14.142  11.523   9.432
 8445SOL     OW27173   7.335  11.660   8.395
 8445SOL    HW127174   7.275  11.607   8.343
 8445SOL    HW227175   7.322  11.630   8.485
 8446SOL     OW27176   7.696   2.937   1.794
 8446SOL    HW127177   7.747   2.950   1.874
 8446SOL    HW227178   7.756   2.893   1.735
 8447SOL     OW27179  14.636   3.208   5.606
 8447SOL    HW127180  14.593   3.131   5.567
 8447SOL    HW227181  14.602   3.282   5.556
 8448SOL     OW27182  11.626   6.509   2.208
 8448SOL    HW127183  11.643   6.475   2.120
 8448SOL    HW227184  11.698   6.473   2.261
 8449SOL     OW27185  10.681   9.890   3.260
 8449SOL    HW127186  10.690   9.800   3.293
 8449SOL    HW227187  10.734   9.943   3.320
 8450SOL     OW27188   0.849   4.337   8.440
 8450SOL    HW127189   0.907   4.277   8.394
 8450SOL    HW227190   0.823   4.289   8.519
 8451SOL     OW27191  13.117  11.832   5.798
 8451SOL    HW127192  13.050  11.885   5.842
 8451SOL    HW227193  13.068  11.760   5.757
 8452SOL     OW27194   4.017  12.311   0.814
 8452SOL    HW127195   4.004  12.216   0.816
 8452SOL    HW227196   4.067  12.330   0.892
 8453SOL     OW27197  14.043   9.575  12.405
 8453SOL    HW127198  13.971   9.522  12.439
 8453SOL    HW227199  14.076   9.622  12.482
 8454SOL     OW27200  10.384  12.327  11.303
 8454SOL    HW127201  10.449  12.258  11.287
 8454SOL    HW227202  10.303  12.293  11.265
 8455SOL     OW27203   9.497   9.090  13.476
 8455SOL    HW127204   9.422   9.070  13.532
 8455SOL    HW227205   9.526   9.177  13.504
 8456SOL     OW27206  14.629  10.638   2.885
 8456SOL    HW127207  14.722  10.655   2.867
 8456SOL    HW227208  14.603  10.710   2.942
 8457SOL     OW27209   3.046   2.555   6.856
 8457SOL    HW127210   3.107   2.519   6.791
 8457SOL    HW227211   2.994   2.618   6.807
 8458SOL     OW27212  12.989   0.090   5.221
 8458SOL    HW127213  13.065   0.102   5.165
 8458SOL    HW227214  13.003   0.005   5.263
 8459SOL     OW27215  10.753   6.519   3.552
 8459SOL    HW127216  10.741   6.512   3.647
 8459SOL    HW227217  10.846   6.504   3.538
 8460SOL     OW27218   6.441  10.621   0.808
 8460SOL    HW127219   6.526  10.619   0.765
 8460SOL    HW227220   6.451  10.684   0.880
 8461SOL     OW27221   9.178   9.731   0.486
 8461SOL    HW127222   9.128   9.770   0.414
 8461SOL    HW227223   9.261   9.779   0.487
 8462SOL     OW27224   1.734  13.184  11.039
 8462SOL    HW127225   1.655  13.141  11.072
 8462SOL    HW227226   1.720  13.277  11.056
 8463SOL     OW27227   4.316   5.352  10.532
 8463SOL    HW127228   4.346   5.429  10.580
 8463SOL    HW227229   4.396   5.311  10.500
 8464SOL     OW27230  13.911   4.573   9.709
 8464SOL    HW127231  14.004   4.575   9.686
 8464SOL    HW227232  13.910   4.590   9.804
 8465SOL     OW27233   3.073  14.371  11.347
 8465SOL    HW127234   3.030  14.451  11.378
 8465SOL    HW227235   3.166  14.387  11.361
 8466SOL     OW27236   9.132  11.893  10.426
 8466SOL    HW127237   9.169  11.806  10.413
 8466SOL    HW227238   9.195  11.952  10.385
 8467SOL     OW27239   6.462  14.588  14.255
 8467SOL    HW127240   6.504  14.612  14.338
 8467SOL    HW227241   6.530  14.541  14.206
 8468SOL     OW27242   4.467   8.048  11.052
 8468SOL    HW127243   4.402   8.041  11.122
 8468SOL    HW227244   4.550   8.029  11.095
 8469SOL     OW27245   9.195  13.102  14.796
 8469SOL    HW127246   9.231  13.017  14.770
 8469SOL    HW227247   9.270  13.161  14.795
 8470SOL     OW27248  10.095   1.121   8.564
 8470SOL    HW127249  10.066   1.113   8.473
 8470SOL    HW227250  10.020   1.159   8.609
 8471SOL     OW27251  14.371   2.021   3.590
 8471SOL    HW127252  14.457   2.062   3.578
 8471SOL    HW227253  14.313   2.094   3.614
 8472SOL     OW27254  10.618   0.024   7.150
 8472SOL    HW127255  10.524   0.010   7.146
 8472SOL    HW227256  10.650   0.004   7.062
 8473SOL     OW27257  14.341   4.715   2.240
 8473SOL    HW127258  14.351   4.810   2.232
 8473SOL    HW227259  14.392   4.692   2.317
 8474SOL     OW27260   0.151   5.395   7.578
 8474SOL    HW127261   0.223   5.394   7.641
 8474SOL    HW227262   0.172   5.468   7.519
 8475SOL     OW27263   7.263  10.667   7.209
 8475SOL    HW127264   7.293  10.581   7.179
 8475SOL    HW227265   7.170  10.654   7.230
 8476SOL     OW27266  14.045  12.454  13.855
 8476SOL    HW127267  13.959  12.488  13.880
 8476SOL    HW227268  14.030  12.412  13.770
 8477SOL     OW27269  10.599   5.029  12.692
 8477SOL    HW127270  10.569   5.120  12.686
 8477SOL    HW227271  10.641   5.024  12.778
 8478SOL     OW27272   8.627  11.322   2.921
 8478SOL    HW127273   8.657  11.412   2.911
 8478SOL    HW227274   8.595  11.297   2.834
 8479SOL     OW27275   8.384   7.452   1.470
 8479SOL    HW127276   8.418   7.426   1.385
 8479SOL    HW227277   8.372   7.370   1.517
 8480SOL     OW27278  10.820  10.924   3.251
 8480SOL    HW127279  10.782  10.840   3.279
 8480SOL    HW227280  10.845  10.967   3.333
 8481SOL     OW27281   7.805   5.801   2.392
 8481SOL    HW127282   7.744   5.843   2.452
 8481SOL    HW227283   7.847   5.873   2.345
 8482SOL     OW27284   4.998  10.199  13.284
 8482SOL    HW127285   4.972  10.140  13.354
 8482SOL    HW227286   5.067  10.153  13.237
 8483SOL     OW27287  10.738   9.204   0.546
 8483SOL    HW127288  10.702   9.293   0.540
 8483SOL    HW227289  10.797   9.197   0.471
 8484SOL     OW27290   4.624   9.501   6.376
 8484SOL    HW127291   4.530   9.518   6.368
 8484SOL    HW227292   4.665   9.574   6.330
 8485SOL     OW27293   5.813   9.477   1.872
 8485SOL    HW127294   5.719   9.486   1.858
 8485SOL    HW227295   5.842   9.421   1.799
 8486SOL     OW27296   7.928  11.124   2.520
 8486SOL    HW127297   7.907  11.205   2.473
 8486SOL    HW227298   7.845  11.077   2.526
 8487SOL     OW27299   5.103  12.279   6.544
 8487SOL    HW127300   5.191  12.312   6.562
 8487SOL    HW227301   5.065  12.343   6.485
 8488SOL     OW27302   1.548   5.831   2.045
 8488SOL    HW127303   1.506   5.891   1.984
 8488SOL    HW227304   1.528   5.744   2.012
 8489SOL     OW27305  14.756   4.250   3.423
 8489SOL    HW127306  14.849   4.232   3.407
 8489SOL    HW227307  14.750   4.261   3.518
 8490SOL     OW27308   5.364   5.241   6.491
 8490SOL    HW127309   5.357   5.337   6.499
 8490SOL    HW227310   5.419   5.228   6.414
 8491SOL     OW27311   7.660   3.393  11.018
 8491SOL    HW127312   7.715   3.456  11.065
 8491SOL    HW227313   7.691   3.308  11.048
 8492SOL     OW27314   5.545  10.988   5.021
 8492SOL    HW127315   5.463  10.960   4.980
 8492SOL    HW227316   5.591  11.036   4.952
 8493SOL     OW27317   4.846   5.614  13.846
 8493SOL    HW127318   4.907   5.684  13.825
 8493SOL    HW227319   4.766   5.636  13.798
 8494SOL     OW27320  11.381   0.293  13.731
 8494SOL    HW127321  11.346   0.300  13.642
 8494SOL    HW227322  11.399   0.199  13.742
 8495SOL     OW27323   7.571  10.852   8.695
 8495SOL    HW127324   7.577  10.817   8.606
 8495SOL    HW227325   7.593  10.779   8.752
 8496SOL     OW27326   6.528   6.226   7.190
 8496SOL    HW127327   6.540   6.190   7.102
 8496SOL    HW227328   6.438   6.258   7.191
 8497SOL     OW27329   5.857  14.160  14.808
 8497SOL    HW127330   5.781  14.106  14.832
 8497SOL    HW227331   5.848  14.238  14.862
 8498SOL     OW27332   8.567   4.360   3.562
 8498SOL    HW127333   8.607   4.279   3.590
 8498SOL    HW227334   8.640   4.421   3.551
 8499SOL     OW27335  13.254   4.755  14.357
 8499SOL    HW127336  13.299   4.805  14.425
 8499SOL    HW227337  13.174   4.724  14.398
 8500SOL     OW27338  12.820  11.264   3.732
 8500SOL    HW127339  12.916  11.259   3.741
 8500SOL    HW227340  12.787  11.190   3.782
 8501SOL     OW27341  14.708   1.030   9.328
 8501SOL    HW127342  14.774   1.058   9.391
 8501SOL    HW227343  14.692   0.938   9.349
 8502SOL     OW27344  13.663   4.699   3.771
 8502SOL    HW127345  13.732   4.693   3.837
 8502SOL    HW227346  13.613   4.777   3.795
 8503SOL     OW27347  11.488   5.276  12.437
 8503SOL    HW127348  11.490   5.325  12.354
 8503SOL    HW227349  11.522   5.190  12.415
 8504SOL     OW27350   2.558  10.181   2.272
 8504SOL    HW127351   2.495  10.250   2.294
 8504SOL    HW227352   2.637  10.204   2.321
 8505SOL     OW27353   1.493   2.394   7.622
 8505SOL    HW127354   1.414   2.381   7.674
 8505SOL    HW227355   1.462   2.402   7.532
 8506SOL     OW27356   0.719   7.817   8.363
 8506SOL    HW127357   0.771   7.868   8.300
 8506SOL    HW227358   0.669   7.756   8.309
 8507SOL     OW27359   9.636   2.343   5.164
 8507SOL    HW127360   9.710   2.325   5.222
 8507SOL    HW227361   9.571   2.387   5.220
 8508SOL     OW27362   4.745  13.913   8.414
 8508SOL    HW127363   4.803  13.854   8.365
 8508SOL    HW227364   4.702  13.965   8.346
 8509SOL     OW27365  14.016   0.756  11.301
 8509SOL    HW127366  14.010   0.709  11.218
 8509SOL    HW227367  13.965   0.703  11.362
 8510SOL     OW27368  13.952   1.244   5.088
 8510SOL    HW127369  14.045   1.235   5.066
 8510SOL    HW227370  13.912   1.278   5.008
 8511SOL     OW27371  13.081  14.628   9.613
 8511SOL    HW127372  13.097  14.681   9.691
 8511SOL    HW227373  12.988  14.609   9.615
 8512SOL     OW27374   4.261  11.258   2.530
 8512SOL    HW127375   4.272  11.175   2.575
 8512SOL    HW227376   4.213  11.313   2.592
 8513SOL     OW27377   8.831  12.865   1.665
 8513SOL    HW127378   8.866  12.776   1.660
 8513SOL    HW227379   8.909  12.920   1.673
 8514SOL     OW27380   7.036   2.419  12.557
 8514SOL    HW127381   6.950   2.454  12.580
 8514SOL    HW227382   7.097   2.488  12.583
 8515SOL     OW27383  12.469   2.661   1.346
 8515SOL    HW127384  12.494   2.631   1.433
 8515SOL    HW227385  12.520   2.606   1.286
 8516SOL     OW27386   7.276  10.230  11.411
 8516SOL    HW127387   7.309  10.311  11.372
 8516SOL    HW227388   7.181  10.237  11.405
 8517SOL     OW27389  11.625   7.268   4.220
 8517SOL    HW127390  11.629   7.356   4.181
 8517SOL    HW227391  11.688   7.271   4.292
 8518SOL     OW27392   2.019   4.223  10.739
 8518SOL    HW127393   1.991   4.164  10.670
 8518SOL    HW227394   2.085   4.280  10.699
 8519SOL     OW27395  10.956   3.446   5.734
 8519SOL    HW127396  10.980   3.521   5.788
 8519SOL    HW227397  10.861   3.439   5.744
 8520SOL     OW27398   1.741   1.821   0.466
 8520SOL    HW127399   1.730   1.869   0.383
 8520SOL    HW227400   1.819   1.768   0.452
 8521SOL     OW27401   8.266  12.689  11.969
 8521SOL    HW127402   8.296  12.611  11.922
 8521SOL    HW227403   8.279  12.668  12.061
 8522SOL     OW27404  12.828   5.854  10.571
 8522SOL    HW127405  12.788   5.931  10.612
 8522SOL    HW227406  12.913   5.884  10.540
 8523SOL     OW27407   3.655  13.916   1.939
 8523SOL    HW127408   3.587  13.858   1.974
 8523SOL    HW227409   3.638  14.000   1.982
 8524SOL     OW27410  12.602  11.304  14.241
 8524SOL    HW127411  12.546  11.378  14.221
 8524SOL    HW227412  12.691  11.341  14.242
 8525SOL     OW27413   3.250   1.352   7.232
 8525SOL    HW127414   3.341   1.372   7.253
 8525SOL    HW227415   3.199   1.417   7.281
 8526SOL     OW27416   2.591   7.094   0.525
 8526SOL    HW127417   2.578   7.042   0.605
 8526SOL    HW227418   2.529   7.057   0.462
 8527SOL     OW27419   8.560   6.010   8.019
 8527SOL    HW127420   8.464   6.001   8.022
 8527SOL    HW227421   8.574   6.103   7.999
 8528SOL     OW27422  12.868  12.179   0.021
 8528SOL    HW127423  12.871  12.264  14.852
 8528SOL    HW227424  12.777  12.172   0.051
 8529SOL     OW27425  13.623   4.757   1.270
 8529SOL    HW127426  13.545   4.793   1.226
 8529SOL    HW227427  13.683   4.832   1.275
 8530SOL     OW27428  13.576  13.439  11.623
 8530SOL    HW127429  13.574  13.534  11.617
 8530SOL    HW227430  13.631  13.420  11.699
 8531SOL     OW27431   9.741  12.091   5.316
 8531SOL    HW127432   9.760  12.090   5.222
 8531SOL    HW227433   9.658  12.137   5.323
 8532SOL     OW27434  14.536   7.365  11.860
 8532SOL    HW127435  14.595   7.325  11.797
 8532SOL    HW227436  14.585   7.438  11.896
 8533SOL     OW27437  10.083   2.311   8.975
 8533SOL    HW127438   9.996   2.326   9.010
 8533SOL    HW227439  10.097   2.217   8.982
 8534SOL     OW27440   7.091   6.364   6.320
 8534SOL    HW127441   7.097   6.357   6.224
 8534SOL    HW227442   7.033   6.439   6.335
 8535SOL     OW27443   9.443   2.177  14.702
 8535SOL    HW127444   9.468   2.091  14.669
 8535SOL    HW227445   9.407   2.223  14.626
 8536SOL     OW27446  14.572   2.619   0.305
 8536SOL    HW127447  14.649   2.624   0.362
 8536SOL    HW227448  14.608   2.625   0.216
 8537SOL     OW27449   5.611  14.565   4.748
 8537SOL    HW127450   5.568  14.512   4.681
 8537SOL    HW227451   5.704  14.560   4.726
 8538SOL     OW27452  11.436   5.432   0.089
 8538SOL    HW127453  11.403   5.490   0.157
 8538SOL    HW227454  11.531   5.445   0.090
 8539SOL     OW27455  12.519  12.436   8.691
 8539SOL    HW127456  12.545  12.403   8.605
 8539SOL    HW227457  12.428  12.408   8.701
 8540SOL     OW27458   3.367   5.862   1.527
 8540SOL    HW127459   3.389   5.953   1.542
 8540SOL    HW227460   3.285   5.849   1.575
 8541SOL     OW27461   3.144   6.481   3.923
 8541SOL    HW127462   3.124   6.572   3.901
 8541SOL    HW227463   3.156   6.481   4.018
 8542SOL     OW27464  13.869   2.717   0.973
 8542SOL    HW127465  13.797   2.701   0.912
 8542SOL    HW227466  13.940   2.750   0.917
 8543SOL     OW27467  14.735  10.111   6.827
 8543SOL    HW127468  14.702  10.077   6.911
 8543SOL    HW227469  14.812  10.057   6.808
 8544SOL     OW27470   9.189   9.738   4.433
 8544SOL    HW127471   9.205   9.723   4.526
 8544SOL    HW227472   9.203   9.832   4.421
 8545SOL     OW27473   6.201   1.135  12.030
 8545SOL    HW127474   6.124   1.189  12.013
 8545SOL    HW227475   6.231   1.108  11.943
 8546SOL     OW27476   6.696  12.853   3.039
 8546SOL    HW127477   6.601  12.853   3.049
 8546SOL    HW227478   6.728  12.810   3.119
 8547SOL     OW27479  13.685   5.138  11.105
 8547SOL    HW127480  13.779   5.138  11.089
 8547SOL    HW227481  13.650   5.199  11.040
 8548SOL     OW27482   0.567   8.511   3.427
 8548SOL    HW127483   0.499   8.514   3.494
 8548SOL    HW227484   0.562   8.597   3.384
 8549SOL     OW27485  13.577  10.077  11.105
 8549SOL    HW127486  13.542  10.042  11.187
 8549SOL    HW227487  13.499  10.093  11.051
 8550SOL     OW27488  14.494   2.106   9.012
 8550SOL    HW127489  14.571   2.133   9.063
 8550SOL    HW227490  14.431   2.177   9.025
 8551SOL     OW27491   8.299   1.337   8.937
 8551SOL    HW127492   8.366   1.405   8.941
 8551SOL    HW227493   8.346   1.255   8.952
 8552SOL     OW27494  14.177   5.960  10.655
 8552SOL    HW127495  14.228   5.970  10.736
 8552SOL    HW227496  14.176   5.865  10.639
 8553SOL     OW27497   9.144  14.835   3.278
 8553SOL    HW127498   9.122   0.041   3.320
 8553SOL    HW227499   9.120  14.847   3.186
 8554SOL     OW27500  11.022   2.257   3.837
 8554SOL    HW127501  11.041   2.227   3.926
 8554SOL    HW227502  11.089   2.323   3.819
 8555SOL     OW27503  12.112   6.431   2.687
 8555SOL    HW127504  12.038   6.381   2.722
 8555SOL    HW227505  12.100   6.426   2.592
 8556SOL     OW27506   1.759   4.745   7.651
 8556SOL    HW127507   1.797   4.803   7.586
 8556SOL    HW227508   1.823   4.675   7.661
 8557SOL     OW27509  12.835  10.912  13.013
 8557SOL    HW127510  12.917  10.867  13.030
 8557SOL    HW227511  12.841  10.993  13.064
 8558SOL     OW27512  12.564  10.181   9.937
 8558SOL    HW127513  12.591  10.250   9.877
 8558SOL    HW227514  12.527  10.227  10.012
 8559SOL     OW27515   4.642  10.107   2.686
 8559SOL    HW127516   4.634  10.038   2.620
 8559SOL    HW227517   4.598  10.070   2.763
 8560SOL     OW27518   2.209  10.550   5.377
 8560SOL    HW127519   2.255  10.568   5.295
 8560SOL    HW227520   2.266  10.586   5.444
 8561SOL     OW27521   7.463  14.308  12.341
 8561SOL    HW127522   7.403  14.328  12.269
 8561SOL    HW227523   7.430  14.226  12.378
 8562SOL     OW27524  10.445   0.597   1.750
 8562SOL    HW127525  10.415   0.613   1.661
 8562SOL    HW227526  10.541   0.597   1.743
 8563SOL     OW27527  12.528   0.017   5.773
 8563SOL    HW127528  12.439   0.050   5.784
 8563SOL    HW227529  12.564   0.067   5.700
 8564SOL     OW27530  10.128  13.037   5.826
 8564SOL    HW127531  10.167  13.095   5.892
 8564SOL    HW227532  10.142  13.082   5.743
 8565SOL     OW27533  12.040   8.377  14.005
 8565SOL    HW127534  12.059   8.407  14.093
 8565SOL    HW227535  12.097   8.301  13.993
 8566SOL     OW27536  13.815   6.326  14.327
 8566SOL    HW127537  13.722   6.315  14.346
 8566SOL    HW227538  13.838   6.251  14.273
 8567SOL     OW27539  10.610   8.123   4.069
 8567SOL    HW127540  10.696   8.123   4.027
 8567SOL    HW227541  10.560   8.189   4.021
 8568SOL     OW27542  10.191  11.171  14.371
 8568SOL    HW127543  10.237  11.141  14.450
 8568SOL    HW227544  10.239  11.249  14.343
 8569SOL     OW27545   2.796  11.546  10.153
 8569SOL    HW127546   2.746  11.501  10.221
 8569SOL    HW227547   2.887  11.527  10.175
 8570SOL     OW27548   8.211   8.060   2.332
 8570SOL    HW127549   8.299   8.092   2.351
 8570SOL    HW227550   8.213   8.041   2.238
 8571SOL     OW27551  10.226  12.560   4.503
 8571SOL    HW127552  10.224  12.584   4.596
 8571SOL    HW227553  10.307  12.599   4.470
 8572SOL     OW27554   1.224  11.221  10.422
 8572SOL    HW127555   1.259  11.285  10.484
 8572SOL    HW227556   1.131  11.240  10.418
 8573SOL     OW27557   9.504   7.299  10.161
 8573SOL    HW127558   9.471   7.330  10.076
 8573SOL    HW227559   9.427   7.262  10.204
 8574SOL     OW27560  14.813   5.973   7.875
 8574SOL    HW127561  14.810   6.069   7.869
 8574SOL    HW227562  14.806   5.944   7.784
 8575SOL     OW27563   8.962   9.516  12.147
 8575SOL    HW127564   8.945   9.491  12.056
 8575SOL    HW227565   9.053   9.489  12.162
 8576SOL     OW27566  10.075   0.457   1.050
 8576SOL    HW127567  10.134   0.449   0.975
 8576SOL    HW227568  10.093   0.380   1.103
 8577SOL     OW27569  13.001  12.623  10.274
 8577SOL    HW127570  13.019  12.535  10.308
 8577SOL    HW227571  13.013  12.614  10.179
 8578SOL     OW27572   4.777   8.580  10.306
 8578SOL    HW127573   4.784   8.649  10.372
 8578SOL    HW227574   4.865   8.574  10.269
 8579SOL     OW27575   4.942   4.874   7.136
 8579SOL    HW127576   4.861   4.917   7.110
 8579SOL    HW227577   4.937   4.787   7.098
 8580SOL     OW27578   8.116   8.037  12.648
 8580SOL    HW127579   8.109   8.131  12.663
 8580SOL    HW227580   8.202   8.013  12.681
 8581SOL     OW27581  10.361   3.437  10.346
 8581SOL    HW127582  10.364   3.524  10.386
 8581SOL    HW227583  10.278   3.436  10.299
 8582SOL     OW27584   3.886   9.405   2.547
 8582SOL    HW127585   3.966   9.414   2.495
 8582SOL    HW227586   3.909   9.345   2.618
 8583SOL     OW27587   6.600   1.333   9.639
 8583SOL    HW127588   6.509   1.362   9.644
 8583SOL    HW227589   6.652   1.413   9.641
 8584SOL     OW27590   6.717  11.599  11.457
 8584SOL    HW127591   6.730  11.680  11.408
 8584SOL    HW227592   6.648  11.553  11.410
 8585SOL     OW27593   6.465  13.682   4.212
 8585SOL    HW127594   6.561  13.682   4.205
 8585SOL    HW227595   6.441  13.590   4.206
 8586SOL     OW27596   7.934   0.593  10.146
 8586SOL    HW127597   7.966   0.573  10.233
 8586SOL    HW227598   7.968   0.522  10.091
 8587SOL     OW27599  12.195   4.062  11.858
 8587SOL    HW127600  12.145   4.021  11.928
 8587SOL    HW227601  12.280   4.082  11.897
 8588SOL     OW27602   7.967   3.559  10.628
 8588SOL    HW127603   8.058   3.587  10.644
 8588SOL    HW227604   7.969   3.524  10.539
 8589SOL     OW27605  14.304   2.067  13.731
 8589SOL    HW127606  14.366   1.994  13.722
 8589SOL    HW227607  14.218   2.028  13.716
 8590SOL     OW27608  13.409   6.201  12.381
 8590SOL    HW127609  13.442   6.147  12.309
 8590SOL    HW227610  13.411   6.143  12.457
 8591SOL     OW27611   1.022  10.650   6.891
 8591SOL    HW127612   1.030  10.593   6.814
 8591SOL    HW227613   0.929  10.647   6.913
 8592SOL     OW27614   7.582   1.748  13.773
 8592SOL    HW127615   7.624   1.793  13.700
 8592SOL    HW227616   7.619   1.659  13.772
 8593SOL     OW27617   9.404   8.679   4.851
 8593SOL    HW127618   9.489   8.667   4.807
 8593SOL    HW227619   9.363   8.593   4.846
 8594SOL     OW27620  14.862   6.225  14.840
 8594SOL    HW127621  14.853   6.143  14.792
 8594SOL    HW227622  14.845   6.201   0.055
 8595SOL     OW27623   6.856   3.887   2.861
 8595SOL    HW127624   6.931   3.908   2.805
 8595SOL    HW227625   6.787   3.861   2.800
 8596SOL     OW27626   9.746   2.283   8.928
 8596SOL    HW127627   9.793   2.277   8.845
 8596SOL    HW227628   9.657   2.309   8.904
 8597SOL     OW27629  10.046   1.608   8.505
 8597SOL    HW127630  10.080   1.693   8.477
 8597SOL    HW227631   9.964   1.630   8.551
 8598SOL     OW27632   3.154   2.332   7.974
 8598SOL    HW127633   3.232   2.332   8.029
 8598SOL    HW227634   3.185   2.302   7.888
 8599SOL     OW27635  11.837   9.715   2.303
 8599SOL    HW127636  11.786   9.665   2.368
 8599SOL    HW227637  11.903   9.760   2.355
 8600SOL     OW27638   1.452  14.020   7.561
 8600SOL    HW127639   1.443  14.109   7.527
 8600SOL    HW227640   1.533  14.021   7.610
 8601SOL     OW27641  10.969   9.467  14.735
 8601SOL    HW127642  11.030   9.476  14.809
 8601SOL    HW227643  10.923   9.385  14.752
 8602SOL     OW27644  12.275  13.409  11.803
 8602SOL    HW127645  12.333  13.481  11.779
 8602SOL    HW227646  12.334  13.340  11.834
 8603SOL     OW27647  13.298   9.616  12.484
 8603SOL    HW127648  13.374   9.634  12.429
 8603SOL    HW227649  13.226   9.663  12.442
 8604SOL     OW27650  10.614   7.902   6.817
 8604SOL    HW127651  10.644   7.833   6.877
 8604SOL    HW227652  10.687   7.964   6.814
 8605SOL     OW27653   8.018   3.141   8.627
 8605SOL    HW127654   8.100   3.118   8.671
 8605SOL    HW227655   7.997   3.228   8.658
 8606SOL     OW27656   6.271   4.944   0.051
 8606SOL    HW127657   6.230   4.867   0.012
 8606SOL    HW227658   6.205   5.013   0.044
 8607SOL     OW27659   8.190   6.771  10.483
 8607SOL    HW127660   8.146   6.795  10.564
 8607SOL    HW227661   8.162   6.682  10.465
 8608SOL     OW27662  14.518   8.283   5.480
 8608SOL    HW127663  14.518   8.252   5.571
 8608SOL    HW227664  14.478   8.211   5.431
 8609SOL     OW27665  11.510   6.936   2.866
 8609SOL    HW127666  11.545   6.939   2.777
 8609SOL    HW227667  11.548   7.012   2.909
 8610SOL     OW27668   3.969   3.201   6.832
 8610SOL    HW127669   3.961   3.144   6.756
 8610SOL    HW227670   4.043   3.258   6.812
 8611SOL     OW27671   4.433   2.668   8.536
 8611SOL    HW127672   4.440   2.614   8.615
 8611SOL    HW227673   4.338   2.673   8.520
 8612SOL     OW27674   5.891   5.056   7.930
 8612SOL    HW127675   5.832   5.055   8.005
 8612SOL    HW227676   5.935   5.141   7.935
 8613SOL     OW27677   2.529   2.590  14.135
 8613SOL    HW127678   2.548   2.683  14.129
 8613SOL    HW227679   2.562   2.553  14.053
 8614SOL     OW27680   0.807   8.092   0.500
 8614SOL    HW127681   0.792   8.059   0.412
 8614SOL    HW227682   0.902   8.105   0.506
 8615SOL     OW27683  12.952   1.146   1.151
 8615SOL    HW127684  13.036   1.190   1.136
 8615SOL    HW227685  12.893   1.215   1.179
 8616SOL     OW27686   4.983   9.293  11.858
 8616SOL    HW127687   4.892   9.263  11.851
 8616SOL    HW227688   5.019   9.281  11.770
 8617SOL     OW27689   7.855  14.797  11.832
 8617SOL    HW127690   7.831   0.010  11.856
 8617SOL    HW227691   7.877  14.802  11.739
 8618SOL     OW27692   8.794   9.669   2.139
 8618SOL    HW127693   8.754   9.632   2.060
 8618SOL    HW227694   8.867   9.722   2.106
 8619SOL     OW27695   3.619   0.984   9.715
 8619SOL    HW127696   3.620   0.909   9.774
 8619SOL    HW227697   3.683   1.045   9.753
 8620SOL     OW27698   0.590   5.230   9.636
 8620SOL    HW127699   0.592   5.210   9.543
 8620SOL    HW227700   0.682   5.238   9.661
 8621SOL     OW27701  13.045   7.678   1.092
 8621SOL    HW127702  13.085   7.756   1.055
 8621SOL    HW227703  13.073   7.606   1.036
 8622SOL     OW27704   5.639   9.509   7.035
 8622SOL    HW127705   5.544   9.494   7.032
 8622SOL    HW227706   5.652   9.570   7.108
 8623SOL     OW27707   6.235   6.517   0.948
 8623SOL    HW127708   6.323   6.480   0.953
 8623SOL    HW227709   6.218   6.552   1.035
 8624SOL     OW27710   6.050   6.239   0.822
 8624SOL    HW127711   5.981   6.298   0.851
 8624SOL    HW227712   6.093   6.210   0.902
 8625SOL     OW27713   3.876   2.409   1.327
 8625SOL    HW127714   3.883   2.356   1.248
 8625SOL    HW227715   3.932   2.485   1.309
 8626SOL     OW27716   1.196   4.210   2.831
 8626SOL    HW127717   1.181   4.148   2.903
 8626SOL    HW227718   1.239   4.284   2.871
 8627SOL     OW27719   6.345   9.220   9.114
 8627SOL    HW127720   6.333   9.184   9.202
 8627SOL    HW227721   6.368   9.144   9.060
 8628SOL     OW27722  14.670   0.334   8.796
 8628SOL    HW127723  14.747   0.380   8.762
 8628SOL    HW227724  14.656   0.263   8.733
 8629SOL     OW27725   1.114   5.304   4.709
 8629SOL    HW127726   1.116   5.223   4.761
 8629SOL    HW227727   1.107   5.275   4.619
 8630SOL     OW27728   0.129   8.463  14.648
 8630SOL    HW127729   0.038   8.448  14.675
 8630SOL    HW227730   0.144   8.399  14.579
 8631SOL     OW27731   6.594   5.026  13.501
 8631SOL    HW127732   6.644   5.093  13.455
 8631SOL    HW227733   6.515   5.015  13.449
 8632SOL     OW27734   7.745   2.442   8.955
 8632SOL    HW127735   7.754   2.527   8.914
 8632SOL    HW227736   7.663   2.447   9.004
 8633SOL     OW27737   7.990   1.900   8.825
 8633SOL    HW127738   7.923   1.940   8.881
 8633SOL    HW227739   8.073   1.918   8.870
 8634SOL     OW27740   7.117  10.557  11.871
 8634SOL    HW127741   7.026  10.546  11.902
 8634SOL    HW227742   7.160  10.604  11.943
 8635SOL     OW27743   7.321  12.256   2.330
 8635SOL    HW127744   7.233  12.237   2.364
 8635SOL    HW227745   7.355  12.171   2.303
 8636SOL     OW27746   0.406  12.151  13.730
 8636SOL    HW127747   0.371  12.063  13.743
 8636SOL    HW227748   0.463  12.165  13.806
 8637SOL     OW27749   0.416   7.719   5.153
 8637SOL    HW127750   0.442   7.759   5.236
 8637SOL    HW227751   0.498   7.694   5.111
 8638SOL     OW27752   7.415   2.712   0.608
 8638SOL    HW127753   7.502   2.720   0.568
 8638SOL    HW227754   7.403   2.793   0.656
 8639SOL     OW27755   8.828  10.128  13.313
 8639SOL    HW127756   8.913  10.127  13.271
 8639SOL    HW227757   8.778  10.195  13.266
 8640SOL     OW27758   5.199   1.798   3.916
 8640SOL    HW127759   5.157   1.836   3.839
 8640SOL    HW227760   5.141   1.726   3.941
 8641SOL     OW27761   7.060  10.545   6.704
 8641SOL    HW127762   7.063  10.451   6.686
 8641SOL    HW227763   6.975  10.558   6.746
 8642SOL     OW27764   8.873  14.408   8.383
 8642SOL    HW127765   8.937  14.340   8.405
 8642SOL    HW227766   8.921  14.490   8.390
 8643SOL     OW27767   5.978   4.701   0.424
 8643SOL    HW127768   5.920   4.702   0.501
 8643SOL    HW227769   5.962   4.786   0.382
 8644SOL     OW27770   0.551  12.205   9.877
 8644SOL    HW127771   0.537  12.248   9.793
 8644SOL    HW227772   0.482  12.240   9.933
 8645SOL     OW27773   2.537  13.705   5.516
 8645SOL    HW127774   2.573  13.685   5.430
 8645SOL    HW227775   2.474  13.776   5.499
 8646SOL     OW27776   1.541   8.801   9.618
 8646SOL    HW127777   1.564   8.763   9.703
 8646SOL    HW227778   1.599   8.877   9.610
 8647SOL     OW27779   7.705  11.404   9.885
 8647SOL    HW127780   7.695  11.400   9.790
 8647SOL    HW227781   7.674  11.319   9.916
 8648SOL     OW27782  13.868   6.553   0.316
 8648SOL    HW127783  13.904   6.642   0.315
 8648SOL    HW227784  13.778   6.564   0.346
 8649SOL     OW27785   1.389  13.821   6.064
 8649SOL    HW127786   1.416  13.880   6.134
 8649SOL    HW227787   1.431  13.857   5.986
 8650SOL     OW27788  11.911   6.409  13.812
 8650SOL    HW127789  11.883   6.435  13.899
 8650SOL    HW227790  11.997   6.369  13.825
 8651SOL     OW27791  10.275  10.131   4.020
 8651SOL    HW127792  10.277  10.183   4.101
 8651SOL    HW227793  10.336  10.059   4.036
 8652SOL     OW27794   3.532   1.350   5.799
 8652SOL    HW127795   3.495   1.318   5.881
 8652SOL    HW227796   3.627   1.351   5.814
 8653SOL     OW27797   9.017  11.214   8.241
 8653SOL    HW127798   9.036  11.231   8.148
 8653SOL    HW227799   9.006  11.302   8.279
 8654SOL     OW27800   2.549  10.705   8.391
 8654SOL    HW127801   2.502  10.789   8.388
 8654SOL    HW227802   2.522  10.666   8.475
 8655SOL     OW27803  11.895  13.881   5.109
 8655SOL    HW127804  11.857  13.855   5.025
 8655SOL    HW227805  11.843  13.834   5.174
 8656SOL     OW27806  10.318   4.958  10.137
 8656SOL    HW127807  10.307   4.863  10.139
 8656SOL    HW227808  10.262   4.987  10.065
 8657SOL     OW27809   9.891  13.762  11.476
 8657SOL    HW127810   9.907  13.850  11.509
 8657SOL    HW227811   9.880  13.773  11.381
 8658SOL     OW27812   7.580   2.063   3.187
 8658SOL    HW127813   7.554   2.080   3.097
 8658SOL    HW227814   7.620   2.144   3.216
 8659SOL     OW27815   5.488   4.553   7.013
 8659SOL    HW127816   5.458   4.577   6.925
 8659SOL    HW227817   5.415   4.577   7.070
 8660SOL     OW27818   1.923   0.423   0.460
 8660SOL    HW127819   1.923   0.378   0.375
 8660SOL    HW227820   1.832   0.420   0.489
 8661SOL     OW27821   0.495  13.406   5.999
 8661SOL    HW127822   0.455  13.490   5.977
 8661SOL    HW227823   0.589  13.423   6.001
 8662SOL     OW27824   6.152  13.656   7.700
 8662SOL    HW127825   6.128  13.661   7.608
 8662SOL    HW227826   6.131  13.742   7.736
 8663SOL     OW27827  11.409   1.431   1.298
 8663SOL    HW127828  11.475   1.393   1.356
 8663SOL    HW227829  11.337   1.455   1.356
 8664SOL     OW27830  13.261   1.990  11.748
 8664SOL    HW127831  13.183   2.002  11.803
 8664SOL    HW227832  13.255   2.059  11.683
 8665SOL     OW27833   7.638  11.206   4.372
 8665SOL    HW127834   7.662  11.244   4.457
 8665SOL    HW227835   7.556  11.248   4.348
 8666SOL     OW27836   0.299  14.092   3.276
 8666SOL    HW127837   0.213  14.119   3.309
 8666SOL    HW227838   0.285  14.005   3.240
 8667SOL     OW27839  14.594   2.607  13.182
 8667SOL    HW127840  14.609   2.581  13.273
 8667SOL    HW227841  14.665   2.564  13.134
 8668SOL     OW27842   2.407   6.754   0.000
 8668SOL    HW127843   2.317   6.750   0.032
 8668SOL    HW227844   2.425   6.667  14.841
 8669SOL     OW27845   9.872  11.020   5.402
 8669SOL    HW127846   9.916  10.934   5.404
 8669SOL    HW227847   9.786  11.002   5.364
 8670SOL     OW27848   3.349   0.370  11.600
 8670SOL    HW127849   3.315   0.346  11.513
 8670SOL    HW227850   3.436   0.330  11.603
 8671SOL     OW27851   1.321  13.824   3.645
 8671SOL    HW127852   1.288  13.804   3.557
 8671SOL    HW227853   1.307  13.743   3.694
 8672SOL     OW27854   0.884   8.190  10.341
 8672SOL    HW127855   0.891   8.123  10.409
 8672SOL    HW227856   0.925   8.267  10.380
 8673SOL     OW27857   6.161  14.780  13.377
 8673SOL    HW127858   6.076  14.800  13.416
 8673SOL    HW227859   6.215  14.752  13.451
 8674SOL     OW27860   8.194   9.589   4.585
 8674SOL    HW127861   8.165   9.537   4.660
 8674SOL    HW227862   8.223   9.524   4.521
 8675SOL     OW27863   0.244   3.516  14.315
 8675SOL    HW127864   0.282   3.473  14.391
 8675SOL    HW227865   0.151   3.525  14.336
 8676SOL     OW27866   2.714   4.971   0.724
 8676SOL    HW127867   2.773   5.038   0.690
 8676SOL    HW227868   2.712   4.904   0.656
 8677SOL     OW27869   8.293   4.697  12.449
 8677SOL    HW127870   8.231   4.625  12.461
 8677SOL    HW227871   8.250   4.773  12.487
 8678SOL     OW27872   0.659  11.655   3.854
 8678SOL    HW127873   0.733  11.643   3.914
 8678SOL    HW227874   0.695  11.708   3.783
 8679SOL     OW27875   3.719   0.145   1.171
 8679SOL    HW127876   3.725   0.127   1.077
 8679SOL    HW227877   3.759   0.231   1.182
 8680SOL     OW27878  11.037  10.977  13.114
 8680SOL    HW127879  10.986  10.936  13.184
 8680SOL    HW227880  11.076  11.054  13.155
 8681SOL     OW27881   6.551   9.928   4.225
 8681SOL    HW127882   6.457   9.931   4.245
 8681SOL    HW227883   6.564   9.843   4.183
 8682SOL     OW27884   6.188   9.359   9.549
 8682SOL    HW127885   6.224   9.336   9.463
 8682SOL    HW227886   6.216   9.288   9.606
 8683SOL     OW27887  11.563  10.823   8.705
 8683SOL    HW127888  11.642  10.878   8.709
 8683SOL    HW227889  11.584  10.747   8.759
 8684SOL     OW27890  13.496   1.862   6.445
 8684SOL    HW127891  13.538   1.790   6.493
 8684SOL    HW227892  13.423   1.821   6.399
 8685SOL     OW27893   2.595   4.540  13.604
 8685SOL    HW127894   2.583   4.457  13.651
 8685SOL    HW227895   2.677   4.575  13.638
 8686SOL     OW27896   9.982  10.573   2.398
 8686SOL    HW127897   9.943  10.566   2.485
 8686SOL    HW227898   9.938  10.507   2.346
 8687SOL     OW27899   2.275  12.564  10.389
 8687SOL    HW127900   2.257  12.472  10.369
 8687SOL    HW227901   2.232  12.613  10.318
 8688SOL     OW27902   2.804   5.550   9.662
 8688SOL    HW127903   2.769   5.594   9.739
 8688SOL    HW227904   2.895   5.578   9.656
 8689SOL     OW27905   2.799   9.788   9.566
 8689SOL    HW127906   2.711   9.823   9.582
 8689SOL    HW227907   2.824   9.824   9.481
 8690SOL     OW27908   7.082   5.052  12.715
 8690SOL    HW127909   7.035   5.046  12.632
 8690SOL    HW227910   7.050   5.132  12.756
 8691SOL     OW27911   0.686   2.216   2.948
 8691SOL    HW127912   0.632   2.158   3.001
 8691SOL    HW227913   0.752   2.250   3.009
 8692SOL     OW27914  10.887  12.315  14.700
 8692SOL    HW127915  10.944  12.243  14.727
 8692SOL    HW227916  10.906  12.385  14.762
 8693SOL     OW27917  13.599   5.485  10.742
 8693SOL    HW127918  13.636   5.504  10.656
 8693SOL    HW227919  13.676   5.470  10.798
 8694SOL     OW27920   2.602   1.289   6.292
 8694SOL    HW127921   2.629   1.369   6.247
 8694SOL    HW227922   2.515   1.270   6.257
 8695SOL     OW27923   3.846   2.737   0.231
 8695SOL    HW127924   3.884   2.778   0.153
 8695SOL    HW227925   3.900   2.659   0.245
 8696SOL     OW27926   0.335  10.137  11.011
 8696SOL    HW127927   0.273  10.202  10.980
 8696SOL    HW227928   0.419  10.165  10.977
 8697SOL     OW27929  14.501   6.172   5.894
 8697SOL    HW127930  14.442   6.233   5.850
 8697SOL    HW227931  14.580   6.223   5.912
 8698SOL     OW27932   8.277  10.870   4.687
 8698SOL    HW127933   8.190  10.873   4.647
 8698SOL    HW227934   8.335  10.848   4.615
 8699SOL     OW27935   2.511   7.053  12.725
 8699SOL    HW127936   2.574   7.070  12.655
 8699SOL    HW227937   2.539   7.110  12.797
 8700SOL     OW27938  14.521  11.854  10.190
 8700SOL    HW127939  14.558  11.770  10.214
 8700SOL    HW227940  14.593  11.901  10.148
 8701SOL     OW27941  13.008  13.691   7.931
 8701SOL    HW127942  13.081  13.741   7.968
 8701SOL    HW227943  12.946  13.757   7.900
 8702SOL     OW27944   2.952   4.572   2.381
 8702SOL    HW127945   3.040   4.608   2.367
 8702SOL    HW227946   2.964   4.504   2.447
 8703SOL     OW27947   1.922  12.527   6.109
 8703SOL    HW127948   1.846  12.544   6.054
 8703SOL    HW227949   1.910  12.437   6.140
 8704SOL     OW27950   5.000   8.545   0.343
 8704SOL    HW127951   4.982   8.622   0.397
 8704SOL    HW227952   5.017   8.475   0.406
 8705SOL     OW27953   1.253  12.742  10.484
 8705SOL    HW127954   1.235  12.763  10.392
 8705SOL    HW227955   1.249  12.646  10.487
 8706SOL     OW27956   4.980   8.327  10.679
 8706SOL    HW127957   5.041   8.255  10.696
 8706SOL    HW227958   5.032   8.390  10.630
 8707SOL     OW27959   5.690   4.819   3.556
 8707SOL    HW127960   5.723   4.886   3.496
 8707SOL    HW227961   5.738   4.834   3.637
 8708SOL     OW27962   5.367  11.957   5.033
 8708SOL    HW127963   5.394  11.865   5.025
 8708SOL    HW227964   5.307  11.970   4.960
 8709SOL     OW27965   5.823   5.296   5.728
 8709SOL    HW127966   5.803   5.387   5.749
 8709SOL    HW227967   5.788   5.283   5.640
 8710SOL     OW27968   0.843   2.749   8.720
 8710SOL    HW127969   0.797   2.770   8.639
 8710SOL    HW227970   0.881   2.662   8.704
 8711SOL     OW27971   4.469   7.908   6.486
 8711SOL    HW127972   4.465   7.884   6.579
 8711SOL    HW227973   4.526   7.842   6.447
 8712SOL     OW27974   9.688  11.574  13.279
 8712SOL    HW127975   9.654  11.629  13.208
 8712SOL    HW227976   9.610  11.550  13.329
 8713SOL     OW27977   1.009   0.870   8.709
 8713SOL    HW127978   0.994   0.821   8.790
 8713SOL    HW227979   0.928   0.859   8.659
 8714SOL     OW27980  10.837   5.285   6.696
 8714SOL    HW127981  10.902   5.334   6.646
 8714SOL    HW227982  10.815   5.342   6.769
 8715SOL     OW27983   0.773  13.902   5.698
 8715SOL    HW127984   0.732  13.912   5.784
 8715SOL    HW227985   0.731  13.825   5.660
 8716SOL     OW27986   0.389  11.782  10.542
 8716SOL    HW127987   0.360  11.869  10.516
 8716SOL    HW227988   0.461  11.798  10.604
 8717SOL     OW27989   7.816   4.917   9.355
 8717SOL    HW127990   7.760   4.841   9.336
 8717SOL    HW227991   7.853   4.941   9.271
 8718SOL     OW27992   3.594  12.515   0.122
 8718SOL    HW127993   3.686  12.527   0.103
 8718SOL    HW227994   3.554  12.601   0.106
 8719SOL     OW27995  14.031   2.189  10.432
 8719SOL    HW127996  14.105   2.221  10.485
 8719SOL    HW227997  14.002   2.110  10.478
 8720SOL     OW27998   2.120  10.662   7.399
 8720SOL    HW127999   2.132  10.664   7.494
 8720SOL    HW228000   2.083  10.747   7.378
 8721SOL     OW28001   9.062   7.511  13.742
 8721SOL    HW128002   9.077   7.536  13.651
 8721SOL    HW228003   9.070   7.592  13.791
 8722SOL     OW28004   9.727   7.037   1.768
 8722SOL    HW128005   9.807   7.071   1.809
 8722SOL    HW228006   9.746   6.944   1.754
 8723SOL     OW28007  11.220   0.885   8.147
 8723SOL    HW128008  11.255   0.796   8.142
 8723SOL    HW228009  11.290   0.936   8.187
 8724SOL     OW28010  14.508  13.230   6.820
 8724SOL    HW128011  14.423  13.204   6.786
 8724SOL    HW228012  14.504  13.208   6.913
 8725SOL     OW28013   7.567   1.173   5.183
 8725SOL    HW128014   7.536   1.094   5.139
 8725SOL    HW228015   7.644   1.143   5.233
 8726SOL     OW28016   7.777   8.301   2.715
 8726SOL    HW128017   7.718   8.376   2.718
 8726SOL    HW228018   7.762   8.255   2.797
 8727SOL     OW28019   9.794   3.022  11.447
 8727SOL    HW128020   9.828   2.979  11.526
 8727SOL    HW228021   9.718   3.071  11.477
 8728SOL     OW28022   6.255  10.257  12.819
 8728SOL    HW128023   6.176  10.215  12.784
 8728SOL    HW228024   6.322  10.188  12.814
 8729SOL     OW28025  14.158   6.269   8.792
 8729SOL    HW128026  14.124   6.329   8.726
 8729SOL    HW228027  14.245   6.244   8.760
 8730SOL     OW28028   4.327  10.182  13.414
 8730SOL    HW128029   4.255  10.236  13.448
 8730SOL    HW228030   4.401  10.242  13.406
 8731SOL     OW28031  13.158   9.764   9.432
 8731SOL    HW128032  13.247   9.781   9.463
 8731SOL    HW228033  13.146   9.824   9.359
 8732SOL     OW28034   4.245   9.457  12.733
 8732SOL    HW128035   4.172   9.454  12.795
 8732SOL    HW228036   4.235   9.378  12.680
 8733SOL     OW28037   0.800  13.559   1.301
 8733SOL    HW128038   0.809  13.468   1.329
 8733SOL    HW228039   0.889  13.593   1.300
 8734SOL     OW28040   8.051   8.970   9.509
 8734SOL    HW128041   8.119   8.985   9.574
 8734SOL    HW228042   7.985   8.917   9.555
 8735SOL     OW28043   9.748   9.526   9.325
 8735SOL    HW128044   9.692   9.557   9.396
 8735SOL    HW228045   9.693   9.465   9.276
 8736SOL     OW28046   2.654  10.593   6.294
 8736SOL    HW128047   2.647  10.653   6.369
 8736SOL    HW228048   2.661  10.651   6.218
 8737SOL     OW28049  14.844   0.349   0.159
 8737SOL    HW128050  14.830   0.425   0.102
 8737SOL    HW228051  14.863   0.277   0.099
 8738SOL     OW28052   9.925   9.406   4.025
 8738SOL    HW128053   9.910   9.500   4.016
 8738SOL    HW228054   9.908   9.388   4.118
 8739SOL     OW28055  10.278   0.032   2.697
 8739SOL    HW128056  10.228  14.830   2.721
 8739SOL    HW228057  10.293   0.022   2.603
 8740SOL     OW28058   2.577   6.215   3.057
 8740SOL    HW128059   2.519   6.239   2.985
 8740SOL    HW228060   2.651   6.274   3.048
 8741SOL     OW28061   5.144   8.911   0.179
 8741SOL    HW128062   5.205   8.841   0.204
 8741SOL    HW228063   5.090   8.871   0.110
 8742SOL     OW28064   8.932  13.243  11.711
 8742SOL    HW128065   8.886  13.325  11.727
 8742SOL    HW228066   8.982  13.226  11.791
 8743SOL     OW28067   1.790   3.691  10.013
 8743SOL    HW128068   1.791   3.668  10.106
 8743SOL    HW228069   1.883   3.705   9.991
 8744SOL     OW28070   9.598   8.762   6.217
 8744SOL    HW128071   9.640   8.847   6.205
 8744SOL    HW228072   9.510   8.784   6.249
 8745SOL     OW28073   2.168   2.026  10.365
 8745SOL    HW128074   2.119   1.961  10.314
 8745SOL    HW228075   2.115   2.105  10.361
 8746SOL     OW28076  13.951  14.068  12.866
 8746SOL    HW128077  13.924  14.092  12.777
 8746SOL    HW228078  13.871  14.080  12.919
 8747SOL     OW28079   7.021  13.946   9.013
 8747SOL    HW128080   7.047  13.977   8.927
 8747SOL    HW228081   6.927  13.963   9.018
 8748SOL     OW28082   8.704   0.337  12.186
 8748SOL    HW128083   8.707   0.431  12.168
 8748SOL    HW228084   8.687   0.297  12.100
 8749SOL     OW28085   4.019   4.249   5.869
 8749SOL    HW128086   4.000   4.202   5.950
 8749SOL    HW228087   3.966   4.206   5.803
 8750SOL     OW28088   4.453  10.867  14.313
 8750SOL    HW128089   4.513  10.900  14.380
 8750SOL    HW228090   4.484  10.907  14.232
 8751SOL     OW28091   4.606  13.244   3.871
 8751SOL    HW128092   4.579  13.321   3.921
 8751SOL    HW228093   4.578  13.170   3.925
 8752SOL     OW28094   6.057   1.093  13.656
 8752SOL    HW128095   6.091   1.033  13.590
 8752SOL    HW228096   5.974   1.124  13.620
 8753SOL     OW28097   7.116   6.847   6.531
 8753SOL    HW128098   7.132   6.760   6.568
 8753SOL    HW228099   7.046   6.833   6.468
 8754SOL     OW28100   8.997   3.155  12.821
 8754SOL    HW128101   8.927   3.195  12.873
 8754SOL    HW228102   8.980   3.061  12.827
 8755SOL     OW28103   3.043   9.123  13.227
 8755SOL    HW128104   2.967   9.176  13.252
 8755SOL    HW228105   3.058   9.065  13.302
 8756SOL     OW28106   5.930   7.442   1.676
 8756SOL    HW128107   5.956   7.508   1.740
 8756SOL    HW228108   5.836   7.458   1.662
 8757SOL     OW28109  10.063   4.750   6.072
 8757SOL    HW128110  10.012   4.752   6.153
 8757SOL    HW228111  10.103   4.837   6.067
 8758SOL     OW28112  14.864  11.504   7.123
 8758SOL    HW128113   0.078  11.479   7.101
 8758SOL    HW228114  14.823  11.422   7.149
 8759SOL     OW28115  10.267   9.179  11.437
 8759SOL    HW128116  10.195   9.238  11.414
 8759SOL    HW228117  10.313   9.224  11.507
 8760SOL     OW28118   3.561   8.499  14.365
 8760SOL    HW128119   3.511   8.468  14.289
 8760SOL    HW228120   3.494   8.523  14.429
 8761SOL     OW28121   9.327   3.029   3.343
 8761SOL    HW128122   9.348   2.986   3.259
 8761SOL    HW228123   9.252   3.084   3.323
 8762SOL     OW28124  14.116   5.970  13.268
 8762SOL    HW128125  14.035   6.010  13.237
 8762SOL    HW228126  14.107   5.878  13.245
 8763SOL     OW28127   2.569   2.780   4.112
 8763SOL    HW128128   2.536   2.803   4.025
 8763SOL    HW228129   2.572   2.863   4.160
 8764SOL     OW28130  10.231   5.875  10.182
 8764SOL    HW128131  10.224   5.804  10.119
 8764SOL    HW228132  10.174   5.848  10.254
 8765SOL     OW28133  10.411   4.125   7.932
 8765SOL    HW128134  10.350   4.107   7.861
 8765SOL    HW228135  10.390   4.061   7.999
 8766SOL     OW28136   7.421  11.796   6.876
 8766SOL    HW128137   7.370  11.727   6.918
 8766SOL    HW228138   7.358  11.842   6.820
 8767SOL     OW28139   2.529  14.153  11.403
 8767SOL    HW128140   2.441  14.134  11.371
 8767SOL    HW228141   2.582  14.159  11.324
 8768SOL     OW28142  12.412   8.804   6.618
 8768SOL    HW128143  12.407   8.712   6.592
 8768SOL    HW228144  12.505   8.826   6.612
 8769SOL     OW28145   1.112  13.100  12.345
 8769SOL    HW128146   1.122  13.181  12.395
 8769SOL    HW228147   1.186  13.101  12.284
 8770SOL     OW28148   2.145   0.043   9.791
 8770SOL    HW128149   2.068   0.024   9.844
 8770SOL    HW228150   2.122   0.121   9.741
 8771SOL     OW28151  12.965   7.581  11.718
 8771SOL    HW128152  12.962   7.494  11.677
 8771SOL    HW228153  13.049   7.582  11.765
 8772SOL     OW28154   6.492  13.238  12.183
 8772SOL    HW128155   6.512  13.148  12.158
 8772SOL    HW228156   6.514  13.242  12.277
 8773SOL     OW28157  14.484  11.125  14.655
 8773SOL    HW128158  14.511  11.044  14.700
 8773SOL    HW228159  14.564  11.176  14.646
 8774SOL     OW28160  11.840   0.023   2.263
 8774SOL    HW128161  11.899   0.098   2.258
 8774SOL    HW228162  11.763   0.056   2.309
 8775SOL     OW28163   1.935   6.525   1.489
 8775SOL    HW128164   1.916   6.492   1.577
 8775SOL    HW228165   1.859   6.501   1.437
 8776SOL     OW28166   0.372  14.282   3.084
 8776SOL    HW128167   0.317  14.358   3.069
 8776SOL    HW228168   0.317  14.222   3.135
 8777SOL     OW28169   4.896   0.119   9.524
 8777SOL    HW128170   4.817   0.068   9.504
 8777SOL    HW228171   4.967   0.054   9.522
 8778SOL     OW28172  12.227   8.499   8.719
 8778SOL    HW128173  12.190   8.441   8.786
 8778SOL    HW228174  12.285   8.442   8.668
 8779SOL     OW28175   1.745   5.034  12.530
 8779SOL    HW128176   1.719   4.947  12.502
 8779SOL    HW228177   1.764   5.081  12.449
 8780SOL     OW28178   1.820  10.825   0.325
 8780SOL    HW128179   1.894  10.867   0.282
 8780SOL    HW228180   1.801  10.879   0.401
 8781SOL     OW28181   7.790   1.469   8.282
 8781SOL    HW128182   7.816   1.522   8.358
 8781SOL    HW228183   7.855   1.399   8.278
 8782SOL     OW28184   3.824  11.424  11.979
 8782SOL    HW128185   3.854  11.428  11.888
 8782SOL    HW228186   3.729  11.434  11.975
 8783SOL     OW28187   0.931   7.569  14.153
 8783SOL    HW128188   0.888   7.650  14.123
 8783SOL    HW228189   0.867   7.500  14.136
 8784SOL     OW28190   0.283   2.287   5.920
 8784SOL    HW128191   0.262   2.292   6.014
 8784SOL    HW228192   0.199   2.301   5.876
 8785SOL     OW28193  11.187   1.922   7.121
 8785SOL    HW128194  11.134   1.842   7.122
 8785SOL    HW228195  11.278   1.890   7.123
 8786SOL     OW28196  10.071  13.906  10.297
 8786SOL    HW128197  10.127  13.858  10.357
 8786SOL    HW228198  10.057  13.846  10.223
 8787SOL     OW28199   4.783   4.689   1.430
 8787SOL    HW128200   4.862   4.669   1.381
 8787SOL    HW228201   4.712   4.672   1.369
 8788SOL     OW28202   4.913   4.065   0.632
 8788SOL    HW128203   4.943   4.012   0.558
 8788SOL    HW228204   4.955   4.150   0.619
 8789SOL     OW28205   6.580   0.652   0.547
 8789SOL    HW128206   6.608   0.623   0.460
 8789SOL    HW228207   6.546   0.573   0.589
 8790SOL     OW28208   0.778  14.515   8.667
 8790SOL    HW128209   0.811  14.598   8.632
 8790SOL    HW228210   0.700  14.539   8.717
 8791SOL     OW28211   3.816   0.579   3.869
 8791SOL    HW128212   3.847   0.521   3.939
 8791SOL    HW228213   3.894   0.621   3.835
 8792SOL     OW28214  12.599  12.348   9.602
 8792SOL    HW128215  12.565  12.330   9.514
 8792SOL    HW228216  12.544  12.418   9.636
 8793SOL     OW28217   1.024   5.646   9.449
 8793SOL    HW128218   1.047   5.666   9.358
 8793SOL    HW228219   1.009   5.732   9.490
 8794SOL     OW28220   1.483   3.031  12.007
 8794SOL    HW128221   1.466   3.000  11.918
 8794SOL    HW228222   1.438   2.968  12.063
 8795SOL     OW28223  13.656   0.482   6.815
 8795SOL    HW128224  13.585   0.421   6.834
 8795SOL    HW228225  13.614   0.553   6.765
 8796SOL     OW28226  11.185   3.242  13.598
 8796SOL    HW128227  11.228   3.295  13.665
 8796SOL    HW228228  11.124   3.302  13.556
 8797SOL     OW28229   1.281   8.528  13.484
 8797SOL    HW128230   1.329   8.543  13.402
 8797SOL    HW228231   1.199   8.487  13.458
 8798SOL     OW28232   8.869   1.982  11.591
 8798SOL    HW128233   8.809   1.908  11.580
 8798SOL    HW228234   8.862   2.030  11.508
 8799SOL     OW28235  10.598   8.913  10.660
 8799SOL    HW128236  10.525   8.856  10.684
 8799SOL    HW228237  10.640   8.934  10.743
 8800SOL     OW28238   3.211   0.312   5.198
 8800SOL    HW128239   3.307   0.310   5.192
 8800SOL    HW228240   3.185   0.380   5.136
 8801SOL     OW28241   7.237  12.108  11.262
 8801SOL    HW128242   7.174  12.059  11.210
 8801SOL    HW228243   7.319  12.059  11.255
 8802SOL     OW28244   7.970   5.757   9.485
 8802SOL    HW128245   7.887   5.800   9.504
 8802SOL    HW228246   7.987   5.777   9.393
 8803SOL     OW28247   9.201   8.215   6.064
 8803SOL    HW128248   9.255   8.138   6.079
 8803SOL    HW228249   9.192   8.256   6.150
 8804SOL     OW28250   9.670   9.404   2.146
 8804SOL    HW128251   9.739   9.390   2.082
 8804SOL    HW228252   9.589   9.379   2.100
 8805SOL     OW28253   4.823  11.353   7.272
 8805SOL    HW128254   4.795  11.296   7.344
 8805SOL    HW228255   4.908  11.318   7.245
 8806SOL     OW28256   4.938   9.103   7.513
 8806SOL    HW128257   5.028   9.127   7.489
 8806SOL    HW228258   4.941   9.008   7.523
 8807SOL     OW28259   3.412   7.091   6.518
 8807SOL    HW128260   3.477   7.021   6.507
 8807SOL    HW228261   3.332   7.045   6.543
 8808SOL     OW28262   4.248  14.561   2.008
 8808SOL    HW128263   4.256  14.466   1.998
 8808SOL    HW228264   4.248  14.576   2.102
 8809SOL     OW28265  14.633   5.125   7.494
 8809SOL    HW128266  14.676   5.071   7.428
 8809SOL    HW228267  14.690   5.118   7.571
 8810SOL     OW28268   0.510   6.230   7.038
 8810SOL    HW128269   0.457   6.201   6.964
 8810SOL    HW228270   0.595   6.251   7.000
 8811SOL     OW28271   8.126   3.661  14.619
 8811SOL    HW128272   8.033   3.682  14.615
 8811SOL    HW228273   8.143   3.611  14.539
 8812SOL     OW28274   6.974  13.856  11.630
 8812SOL    HW128275   6.905  13.826  11.571
 8812SOL    HW228276   7.036  13.784  11.633
 8813SOL     OW28277   2.281   5.306   1.827
 8813SOL    HW128278   2.270   5.401   1.832
 8813SOL    HW228279   2.375   5.293   1.815
 8814SOL     OW28280   4.695   3.044   0.871
 8814SOL    HW128281   4.710   3.095   0.951
 8814SOL    HW228282   4.773   2.988   0.864
 8815SOL     OW28283   8.057   4.116  10.212
 8815SOL    HW128284   7.986   4.081  10.266
 8815SOL    HW228285   8.137   4.097  10.262
 8816SOL     OW28286   1.415  11.617  13.186
 8816SOL    HW128287   1.361  11.602  13.108
 8816SOL    HW228288   1.502  11.637  13.151
 8817SOL     OW28289   7.129   4.068   6.919
 8817SOL    HW128290   7.156   4.006   6.986
 8817SOL    HW228291   7.113   4.014   6.842
 8818SOL     OW28292   6.309   4.937   2.180
 8818SOL    HW128293   6.318   4.944   2.084
 8818SOL    HW228294   6.367   5.005   2.214
 8819SOL     OW28295   3.131   5.290   7.420
 8819SOL    HW128296   3.143   5.276   7.326
 8819SOL    HW228297   3.218   5.314   7.452
 8820SOL     OW28298   3.112  13.880   9.937
 8820SOL    HW128299   3.037  13.928   9.972
 8820SOL    HW228300   3.128  13.811  10.001
 8821SOL     OW28301   3.025  11.878   6.882
 8821SOL    HW128302   3.011  11.934   6.805
 8821SOL    HW228303   3.099  11.919   6.928
 8822SOL     OW28304  14.010   2.962  13.135
 8822SOL    HW128305  14.046   2.945  13.048
 8822SOL    HW228306  13.919   2.933  13.129
 8823SOL     OW28307  12.154   9.302   0.507
 8823SOL    HW128308  12.072   9.323   0.462
 8823SOL    HW228309  12.206   9.254   0.442
 8824SOL     OW28310   4.636  10.192  13.059
 8824SOL    HW128311   4.624  10.103  13.091
 8824SOL    HW228312   4.607  10.189  12.968
 8825SOL     OW28313   9.818   7.700  10.349
 8825SOL    HW128314   9.799   7.719  10.257
 8825SOL    HW228315   9.731   7.695  10.390
 8826SOL     OW28316  11.018   6.027   0.213
 8826SOL    HW128317  11.009   6.012   0.307
 8826SOL    HW228318  11.051   5.945   0.178
 8827SOL     OW28319   4.395   3.277   3.858
 8827SOL    HW128320   4.435   3.223   3.790
 8827SOL    HW228321   4.356   3.350   3.811
 8828SOL     OW28322  12.931   3.752  12.538
 8828SOL    HW128323  12.842   3.768  12.570
 8828SOL    HW228324  12.961   3.676  12.589
 8829SOL     OW28325   2.246  12.177   4.360
 8829SOL    HW128326   2.205  12.138   4.438
 8829SOL    HW228327   2.340  12.159   4.372
 8830SOL     OW28328   7.212   7.504  13.462
 8830SOL    HW128329   7.123   7.537  13.449
 8830SOL    HW228330   7.200   7.416  13.498
 8831SOL     OW28331  10.339   8.870  14.260
 8831SOL    HW128332  10.365   8.959  14.282
 8831SOL    HW228333  10.290   8.878  14.179
 8832SOL     OW28334  10.101   9.095  11.072
 8832SOL    HW128335  10.133   9.028  11.133
 8832SOL    HW228336  10.173   9.159  11.068
 8833SOL     OW28337   9.463  10.996   6.760
 8833SOL    HW128338   9.489  11.073   6.709
 8833SOL    HW228339   9.432  11.032   6.843
 8834SOL     OW28340   3.290   1.640  11.432
 8834SOL    HW128341   3.276   1.547  11.452
 8834SOL    HW228342   3.203   1.679  11.438
 8835SOL     OW28343   0.542  12.643   7.053
 8835SOL    HW128344   0.631  12.673   7.032
 8835SOL    HW228345   0.518  12.588   6.979
 8836SOL     OW28346  12.678   2.275   2.491
 8836SOL    HW128347  12.674   2.368   2.514
 8836SOL    HW228348  12.597   2.258   2.443
 8837SOL     OW28349   1.257  12.374  12.982
 8837SOL    HW128350   1.235  12.463  12.953
 8837SOL    HW228351   1.197  12.357  13.055
 8838SOL     OW28352   1.878   7.179   2.747
 8838SOL    HW128353   1.953   7.220   2.791
 8838SOL    HW228354   1.866   7.096   2.793
 8839SOL     OW28355   9.416   2.637   2.833
 8839SOL    HW128356   9.425   2.650   2.928
 8839SOL    HW228357   9.504   2.654   2.799
 8840SOL     OW28358  12.854  13.340   6.615
 8840SOL    HW128359  12.887  13.335   6.704
 8840SOL    HW228360  12.926  13.380   6.565
 8841SOL     OW28361   2.334  14.532   4.398
 8841SOL    HW128362   2.326  14.437   4.402
 8841SOL    HW228363   2.251  14.564   4.433
 8842SOL     OW28364   7.498   1.757   7.448
 8842SOL    HW128365   7.564   1.700   7.488
 8842SOL    HW228366   7.450   1.794   7.523
 8843SOL     OW28367   3.186   1.376   0.080
 8843SOL    HW128368   3.215   1.451   0.029
 8843SOL    HW228369   3.096   1.396   0.103
 8844SOL     OW28370   7.757   7.338   5.727
 8844SOL    HW128371   7.796   7.297   5.804
 8844SOL    HW228372   7.716   7.266   5.679
 8845SOL     OW28373   3.424   7.513  10.389
 8845SOL    HW128374   3.474   7.442  10.348
 8845SOL    HW228375   3.477   7.538  10.465
 8846SOL     OW28376  12.689   3.963  11.182
 8846SOL    HW128377  12.670   4.054  11.160
 8846SOL    HW228378  12.694   3.918  11.098
 8847SOL     OW28379   8.535   2.850   7.566
 8847SOL    HW128380   8.587   2.915   7.614
 8847SOL    HW228381   8.600   2.803   7.512
 8848SOL     OW28382   2.207  10.179   0.183
 8848SOL    HW128383   2.228  10.104   0.128
 8848SOL    HW228384   2.260  10.168   0.261
 8849SOL     OW28385   7.960  11.002  13.129
 8849SOL    HW128386   7.970  10.907  13.123
 8849SOL    HW228387   7.868  11.018  13.105
 8850SOL     OW28388  14.759   0.030   8.443
 8850SOL    HW128389  14.815  14.833   8.469
 8850SOL    HW228390  14.685  14.865   8.397
 8851SOL     OW28391  11.642   9.317   9.254
 8851SOL    HW128392  11.578   9.388   9.249
 8851SOL    HW228393  11.634   9.284   9.343
 8852SOL     OW28394   4.279  10.126  10.395
 8852SOL    HW128395   4.291  10.165  10.481
 8852SOL    HW228396   4.273  10.201  10.336
 8853SOL     OW28397   6.941  14.118   0.211
 8853SOL    HW128398   6.914  14.209   0.204
 8853SOL    HW228399   7.035  14.122   0.226
 8854SOL     OW28400   7.838  10.044  10.102
 8854SOL    HW128401   7.762  10.017  10.154
 8854SOL    HW228402   7.852   9.973  10.040
 8855SOL     OW28403   9.524  12.824  11.195
 8855SOL    HW128404   9.558  12.747  11.149
 8855SOL    HW228405   9.537  12.896  11.133
 8856SOL     OW28406   0.481   1.392   0.343
 8856SOL    HW128407   0.449   1.455   0.278
 8856SOL    HW228408   0.503   1.314   0.292
 8857SOL     OW28409   6.286   3.475  11.336
 8857SOL    HW128410   6.225   3.481  11.262
 8857SOL    HW228411   6.335   3.394  11.320
 8858SOL     OW28412  12.788   6.754   8.026
 8858SOL    HW128413  12.751   6.838   7.999
 8858SOL    HW228414  12.809   6.766   8.119
 8859SOL     OW28415   7.278   7.304  12.435
 8859SOL    HW128416   7.270   7.384  12.487
 8859SOL    HW228417   7.192   7.263  12.440
 8860SOL     OW28418   1.940   7.966   8.287
 8860SOL    HW128419   1.863   8.012   8.253
 8860SOL    HW228420   2.014   8.018   8.255
 8861SOL     OW28421   4.111   9.856  13.285
 8861SOL    HW128422   4.142   9.784  13.230
 8861SOL    HW228423   4.171   9.928  13.266
 8862SOL     OW28424   8.455   9.113   7.001
 8862SOL    HW128425   8.368   9.139   6.970
 8862SOL    HW228426   8.496   9.194   7.029
 8863SOL     OW28427  13.275  12.257  11.781
 8863SOL    HW128428  13.361  12.297  11.791
 8863SOL    HW228429  13.255  12.265  11.688
 8864SOL     OW28430  10.396  10.932  11.976
 8864SOL    HW128431  10.381  10.838  11.968
 8864SOL    HW228432  10.376  10.952  12.068
 8865SOL     OW28433  13.423  14.055   5.688
 8865SOL    HW128434  13.434  14.150   5.682
 8865SOL    HW228435  13.397  14.040   5.779
 8866SOL     OW28436   7.327   5.118   4.464
 8866SOL    HW128437   7.417   5.097   4.489
 8866SOL    HW228438   7.325   5.108   4.369
 8867SOL     OW28439   3.123   4.102  10.249
 8867SOL    HW128440   3.214   4.124  10.230
 8867SOL    HW228441   3.073   4.177  10.216
 8868SOL     OW28442  12.444  12.043   2.298
 8868SOL    HW128443  12.503  12.078   2.232
 8868SOL    HW228444  12.488  11.965   2.331
 8869SOL     OW28445   3.103  11.414   5.462
 8869SOL    HW128446   3.116  11.335   5.515
 8869SOL    HW228447   3.095  11.485   5.526
 8870SOL     OW28448   0.750   8.210   4.621
 8870SOL    HW128449   0.767   8.123   4.586
 8870SOL    HW228450   0.829   8.233   4.670
 8871SOL     OW28451   1.969  10.141   0.980
 8871SOL    HW128452   1.900  10.078   0.999
 8871SOL    HW228453   2.007  10.162   1.065
 8872SOL     OW28454  10.852   1.165   2.374
 8872SOL    HW128455  10.792   1.091   2.370
 8872SOL    HW228456  10.801   1.236   2.413
 8873SOL     OW28457   1.630   2.152  10.276
 8873SOL    HW128458   1.550   2.204  10.283
 8873SOL    HW228459   1.685   2.200  10.213
 8874SOL     OW28460  13.787   3.835  11.697
 8874SOL    HW128461  13.697   3.858  11.676
 8874SOL    HW228462  13.781   3.748  11.736
 8875SOL     OW28463   5.730   7.381   4.317
 8875SOL    HW128464   5.712   7.405   4.408
 8875SOL    HW228465   5.644   7.359   4.280
 8876SOL     OW28466   1.885   8.867  13.078
 8876SOL    HW128467   1.856   8.778  13.055
 8876SOL    HW228468   1.907   8.862  13.171
 8877SOL     OW28469   7.500   1.292   0.548
 8877SOL    HW128470   7.451   1.327   0.623
 8877SOL    HW228471   7.546   1.368   0.512
 8878SOL     OW28472   8.634  10.431   4.746
 8878SOL    HW128473   8.541  10.439   4.725
 8878SOL    HW228474   8.652  10.506   4.803
 8879SOL     OW28475   3.645   3.090   8.156
 8879SOL    HW128476   3.664   3.183   8.170
 8879SOL    HW228477   3.662   3.077   8.063
 8880SOL     OW28478   7.411  10.269   8.181
 8880SOL    HW128479   7.372  10.240   8.099
 8880SOL    HW228480   7.423  10.188   8.231
 8881SOL     OW28481   9.871   6.391   0.321
 8881SOL    HW128482   9.881   6.407   0.227
 8881SOL    HW228483   9.960   6.392   0.355
 8882SOL     OW28484   4.277   2.359   0.105
 8882SOL    HW128485   4.310   2.311   0.029
 8882SOL    HW228486   4.222   2.428   0.068
 8883SOL     OW28487   8.395   8.483  11.489
 8883SOL    HW128488   8.305   8.459  11.514
 8883SOL    HW228489   8.437   8.399  11.470
 8884SOL     OW28490  11.348   2.915  11.460
 8884SOL    HW128491  11.437   2.911  11.495
 8884SOL    HW228492  11.292   2.894  11.535
 8885SOL     OW28493  14.791   1.419   5.367
 8885SOL    HW128494  14.779   1.434   5.460
 8885SOL    HW228495  14.870   1.365   5.361
 8886SOL     OW28496  12.370   7.204  12.309
 8886SOL    HW128497  12.331   7.162  12.232
 8886SOL    HW228498  12.461   7.218  12.284
 8887SOL     OW28499   5.315  10.240   5.169
 8887SOL    HW128500   5.367  10.221   5.248
 8887SOL    HW228501   5.253  10.307   5.197
 8888SOL     OW28502  11.054  11.133   7.632
 8888SOL    HW128503  10.976  11.185   7.651
 8888SOL    HW228504  11.099  11.181   7.562
 8889SOL     OW28505  12.451   7.676   5.566
 8889SOL    HW128506  12.382   7.733   5.600
 8889SOL    HW228507  12.417   7.587   5.578
 8890SOL     OW28508   2.139   2.368  12.570
 8890SOL    HW128509   2.108   2.367  12.660
 8890SOL    HW228510   2.064   2.400  12.519
 8891SOL     OW28511  10.037   4.883   1.360
 8891SOL    HW128512  10.093   4.826   1.307
 8891SOL    HW228513   9.951   4.840   1.357
 8892SOL     OW28514   2.964   0.928   8.275
 8892SOL    HW128515   2.993   0.980   8.350
 8892SOL    HW228516   2.869   0.926   8.283
 8893SOL     OW28517  10.051   8.648   1.710
 8893SOL    HW128518  10.113   8.720   1.722
 8893SOL    HW228519   9.970   8.680   1.749
 8894SOL     OW28520  10.621   8.118   8.061
 8894SOL    HW128521  10.668   8.067   7.994
 8894SOL    HW228522  10.623   8.063   8.139
 8895SOL     OW28523   7.939   1.011   1.705
 8895SOL    HW128524   8.008   1.075   1.720
 8895SOL    HW228525   7.898   1.000   1.791
 8896SOL     OW28526  13.904   8.039   6.567
 8896SOL    HW128527  13.946   8.020   6.484
 8896SOL    HW228528  13.884   7.954   6.605
 8897SOL     OW28529  10.341  13.083   1.463
 8897SOL    HW128530  10.418  13.133   1.490
 8897SOL    HW228531  10.352  12.997   1.503
 8898SOL     OW28532   3.101   9.134  12.900
 8898SOL    HW128533   3.019   9.183  12.910
 8898SOL    HW228534   3.113   9.090  12.984
 8899SOL     OW28535   2.581   4.696  10.565
 8899SOL    HW128536   2.526   4.758  10.613
 8899SOL    HW228537   2.562   4.611  10.605
 8900SOL     OW28538   8.377  14.852  10.875
 8900SOL    HW128539   8.300  14.821  10.922
 8900SOL    HW228540   8.447  14.790  10.898
 8901SOL     OW28541  11.709   4.327   9.895
 8901SOL    HW128542  11.788   4.303   9.847
 8901SOL    HW228543  11.683   4.246   9.939
 8902SOL     OW28544   1.723   1.560  14.139
 8902SOL    HW128545   1.733   1.653  14.122
 8902SOL    HW228546   1.631   1.541  14.117
 8903SOL     OW28547   6.462   0.829   5.131
 8903SOL    HW128548   6.370   0.814   5.110
 8903SOL    HW228549   6.500   0.741   5.135
 8904SOL     OW28550  13.634   1.702  12.025
 8904SOL    HW128551  13.629   1.690  12.120
 8904SOL    HW228552  13.567   1.768  12.006
 8905SOL     OW28553   6.239  12.227   5.925
 8905SOL    HW128554   6.153  12.263   5.901
 8905SOL    HW228555   6.221  12.177   6.005
 8906SOL     OW28556  13.852  10.297   2.158
 8906SOL    HW128557  13.817  10.341   2.080
 8906SOL    HW228558  13.782  10.300   2.222
 8907SOL     OW28559   8.059   4.801  10.709
 8907SOL    HW128560   7.999   4.846  10.769
 8907SOL    HW228561   8.140   4.851  10.713
 8908SOL     OW28562  12.780   0.649   7.740
 8908SOL    HW128563  12.800   0.571   7.792
 8908SOL    HW228564  12.843   0.648   7.669
 8909SOL     OW28565   5.958  13.656  11.081
 8909SOL    HW128566   5.933  13.745  11.105
 8909SOL    HW228567   6.036  13.639  11.133
 8910SOL     OW28568   4.227   8.617   3.038
 8910SOL    HW128569   4.182   8.654   3.113
 8910SOL    HW228570   4.157   8.591   2.978
 8911SOL     OW28571   0.203   8.500   1.885
 8911SOL    HW128572   0.178   8.411   1.909
 8911SOL    HW228573   0.209   8.548   1.967
 8912SOL     OW28574  13.519  11.966  10.630
 8912SOL    HW128575  13.502  11.947  10.537
 8912SOL    HW228576  13.459  12.037  10.651
 8913SOL     OW28577   6.727  11.214   7.812
 8913SOL    HW128578   6.808  11.167   7.794
 8913SOL    HW228579   6.690  11.232   7.725
 8914SOL     OW28580  13.484  12.927   1.408
 8914SOL    HW128581  13.417  12.985   1.371
 8914SOL    HW228582  13.456  12.914   1.499
 8915SOL     OW28583   3.734   0.684   4.692
 8915SOL    HW128584   3.786   0.708   4.768
 8915SOL    HW228585   3.790   0.701   4.617
 8916SOL     OW28586  11.989   0.622  12.379
 8916SOL    HW128587  11.941   0.554  12.332
 8916SOL    HW228588  12.038   0.669  12.310
 8917SOL     OW28589  14.507   7.004  14.403
 8917SOL    HW128590  14.454   6.926  14.420
 8917SOL    HW228591  14.444   7.073  14.385
 8918SOL     OW28592  13.537   9.832   7.218
 8918SOL    HW128593  13.587   9.879   7.150
 8918SOL    HW228594  13.519   9.899   7.284
 8919SOL     OW28595   7.071  13.954   2.155
 8919SOL    HW128596   7.160  13.928   2.133
 8919SOL    HW228597   7.029  13.967   2.070
 8920SOL     OW28598   4.313   7.094   6.946
 8920SOL    HW128599   4.358   7.150   6.883
 8920SOL    HW228600   4.329   7.135   7.031
 8921SOL     OW28601  13.158   2.424   9.110
 8921SOL    HW128602  13.237   2.478   9.099
 8921SOL    HW228603  13.095   2.459   9.048
 8922SOL     OW28604   7.214   8.776   0.760
 8922SOL    HW128605   7.219   8.865   0.797
 8922SOL    HW228606   7.299   8.738   0.778
 8923SOL     OW28607  13.348  11.111   4.887
 8923SOL    HW128608  13.271  11.070   4.927
 8923SOL    HW228609  13.323  11.128   4.797
 8924SOL     OW28610  14.231   2.480   3.002
 8924SOL    HW128611  14.284   2.462   3.079
 8924SOL    HW228612  14.142   2.491   3.036
 8925SOL     OW28613  13.002   3.083  10.300
 8925SOL    HW128614  12.971   3.157  10.247
 8925SOL    HW228615  12.972   3.103  10.388
 8926SOL     OW28616   8.446   3.385  14.667
 8926SOL    HW128617   8.474   3.467  14.625
 8926SOL    HW228618   8.523   3.356  14.715
 8927SOL     OW28619   3.901   0.035   6.203
 8927SOL    HW128620   3.862   0.119   6.226
 8927SOL    HW228621   3.985   0.034   6.248
 8928SOL     OW28622   2.755  10.847   2.654
 8928SOL    HW128623   2.681  10.810   2.606
 8928SOL    HW228624   2.719  10.924   2.698
 8929SOL     OW28625  14.748  11.036  11.691
 8929SOL    HW128626  14.686  11.086  11.638
 8929SOL    HW228627  14.722  11.054  11.782
 8930SOL     OW28628   9.006   9.630   9.662
 8930SOL    HW128629   8.988   9.540   9.686
 8930SOL    HW228630   9.088   9.652   9.705
 8931SOL     OW28631   1.980   3.770   1.632
 8931SOL    HW128632   2.004   3.850   1.678
 8931SOL    HW228633   2.038   3.767   1.556
 8932SOL     OW28634   0.198   2.998   7.543
 8932SOL    HW128635   0.188   2.941   7.467
 8932SOL    HW228636   0.278   3.048   7.526
 8933SOL     OW28637   8.081  13.711   7.792
 8933SOL    HW128638   8.159  13.708   7.848
 8933SOL    HW228639   8.046  13.799   7.804
 8934SOL     OW28640  14.234   9.064   5.066
 8934SOL    HW128641  14.237   8.970   5.048
 8934SOL    HW228642  14.287   9.075   5.145
 8935SOL     OW28643   4.036  12.255  11.170
 8935SOL    HW128644   3.980  12.268  11.246
 8935SOL    HW228645   4.125  12.252  11.206
 8936SOL     OW28646   5.085  11.993   2.491
 8936SOL    HW128647   5.065  12.087   2.496
 8936SOL    HW228648   5.023  11.952   2.550
 8937SOL     OW28649   0.265   6.630   4.843
 8937SOL    HW128650   0.206   6.609   4.916
 8937SOL    HW228651   0.337   6.678   4.884
 8938SOL     OW28652   0.153   3.456  13.979
 8938SOL    HW128653   0.143   3.504  14.062
 8938SOL    HW228654   0.106   3.509  13.915
 8939SOL     OW28655   0.740   7.343   4.465
 8939SOL    HW128656   0.655   7.384   4.449
 8939SOL    HW228657   0.727   7.251   4.443
 8940SOL     OW28658  11.230  14.366   1.792
 8940SOL    HW128659  11.162  14.374   1.860
 8940SOL    HW228660  11.187  14.395   1.712
 8941SOL     OW28661  10.788   7.711   5.412
 8941SOL    HW128662  10.766   7.732   5.502
 8941SOL    HW228663  10.767   7.618   5.403
 8942SOL     OW28664   0.507   9.130   8.896
 8942SOL    HW128665   0.541   9.148   8.983
 8942SOL    HW228666   0.542   9.043   8.874
 8943SOL     OW28667   6.986   7.472   3.020
 8943SOL    HW128668   6.952   7.487   2.932
 8943SOL    HW228669   7.068   7.520   3.023
 8944SOL     OW28670  14.187  12.555   9.907
 8944SOL    HW128671  14.220  12.583   9.993
 8944SOL    HW228672  14.097  12.586   9.905
 8945SOL     OW28673   4.215   8.281   1.582
 8945SOL    HW128674   4.146   8.216   1.571
 8945SOL    HW228675   4.168   8.362   1.602
 8946SOL     OW28676  10.418   1.668  11.903
 8946SOL    HW128677  10.432   1.577  11.877
 8946SOL    HW228678  10.333   1.691  11.865
 8947SOL     OW28679   8.729  12.010  10.180
 8947SOL    HW128680   8.785  11.939  10.210
 8947SOL    HW228681   8.701  11.983  10.092
 8948SOL     OW28682   3.461  12.562   5.116
 8948SOL    HW128683   3.538  12.504   5.116
 8948SOL    HW228684   3.437  12.569   5.208
 8949SOL     OW28685   3.437  10.817  11.893
 8949SOL    HW128686   3.410  10.908  11.907
 8949SOL    HW228687   3.388  10.790  11.815
 8950SOL     OW28688   8.677   3.007  13.740
 8950SOL    HW128689   8.596   3.040  13.703
 8950SOL    HW228690   8.650   2.943  13.805
 8951SOL     OW28691  11.312   8.568   8.805
 8951SOL    HW128692  11.282   8.652   8.771
 8951SOL    HW228693  11.381   8.591   8.867
 8952SOL     OW28694  13.715   8.700  14.414
 8952SOL    HW128695  13.652   8.632  14.439
 8952SOL    HW228696  13.678   8.739  14.335
 8953SOL     OW28697  10.060   3.427   8.386
 8953SOL    HW128698  10.150   3.433   8.417
 8953SOL    HW228699  10.014   3.499   8.430
 8954SOL     OW28700  12.088   3.566  11.534
 8954SOL    HW128701  12.069   3.474  11.515
 8954SOL    HW228702  12.008   3.600  11.574
 8955SOL     OW28703   4.868   4.197   3.456
 8955SOL    HW128704   4.793   4.229   3.407
 8955SOL    HW228705   4.921   4.151   3.391
 8956SOL     OW28706   3.237  13.419   8.181
 8956SOL    HW128707   3.211  13.507   8.153
 8956SOL    HW228708   3.200  13.361   8.115
 8957SOL     OW28709   1.293  13.703   7.881
 8957SOL    HW128710   1.359  13.743   7.938
 8957SOL    HW228711   1.260  13.775   7.828
 8958SOL     OW28712  13.388   3.589   8.972
 8958SOL    HW128713  13.331   3.663   8.992
 8958SOL    HW228714  13.452   3.589   9.044
 8959SOL     OW28715  11.508   3.916   2.614
 8959SOL    HW128716  11.487   3.915   2.708
 8959SOL    HW228717  11.601   3.893   2.610
 8960SOL     OW28718   2.202   3.908   6.689
 8960SOL    HW128719   2.288   3.866   6.689
 8960SOL    HW228720   2.183   3.923   6.782
 8961SOL     OW28721  12.068   9.137   5.230
 8961SOL    HW128722  12.009   9.084   5.283
 8961SOL    HW228723  12.082   9.217   5.280
 8962SOL     OW28724   5.454   9.280   3.922
 8962SOL    HW128725   5.404   9.216   3.871
 8962SOL    HW228726   5.542   9.278   3.883
 8963SOL     OW28727   1.316  13.952  11.210
 8963SOL    HW128728   1.343  14.025  11.267
 8963SOL    HW228729   1.320  13.875  11.267
 8964SOL     OW28730   8.016  11.907   6.807
 8964SOL    HW128731   8.002  11.993   6.767
 8964SOL    HW228732   8.077  11.863   6.748
 8965SOL     OW28733  13.525  10.478  14.286
 8965SOL    HW128734  13.583  10.549  14.312
 8965SOL    HW228735  13.567  10.441  14.208
 8966SOL     OW28736   7.231  10.836   8.652
 8966SOL    HW128737   7.296  10.896   8.688
 8966SOL    HW228738   7.275  10.751   8.652
 8967SOL     OW28739   6.856  11.905   1.033
 8967SOL    HW128740   6.818  11.877   0.949
 8967SOL    HW228741   6.921  11.971   1.009
 8968SOL     OW28742  10.490   5.276  14.750
 8968SOL    HW128743  10.403   5.239  14.766
 8968SOL    HW228744  10.512   5.246  14.662
 8969SOL     OW28745  14.497   3.712   1.093
 8969SOL    HW128746  14.471   3.710   1.001
 8969SOL    HW228747  14.592   3.704   1.090
 8970SOL     OW28748   3.140   0.921   1.500
 8970SOL    HW128749   3.093   0.874   1.431
 8970SOL    HW228750   3.176   0.998   1.456
 8971SOL     OW28751  10.429   4.131   8.536
 8971SOL    HW128752  10.462   4.074   8.605
 8971SOL    HW228753  10.502   4.139   8.474
 8972SOL     OW28754  10.798   5.295   4.733
 8972SOL    HW128755  10.718   5.248   4.712
 8972SOL    HW228756  10.769   5.374   4.779
 8973SOL     OW28757   9.369   1.740  11.449
 8973SOL    HW128758   9.303   1.807  11.430
 8973SOL    HW228759   9.363   1.727  11.544
 8974SOL     OW28760   0.281  13.784   6.947
 8974SOL    HW128761   0.298  13.874   6.974
 8974SOL    HW228762   0.316  13.777   6.858
 8975SOL     OW28763  12.631   0.574   1.618
 8975SOL    HW128764  12.544   0.553   1.651
 8975SOL    HW228765  12.690   0.514   1.663
 8976SOL     OW28766  12.103   4.099  13.199
 8976SOL    HW128767  12.118   4.143  13.115
 8976SOL    HW228768  12.066   4.167  13.255
 8977SOL     OW28769  12.553  13.024   1.842
 8977SOL    HW128770  12.530  13.107   1.801
 8977SOL    HW228771  12.522  13.032   1.932
 8978SOL     OW28772  11.499   5.342  10.779
 8978SOL    HW128773  11.432   5.352  10.711
 8978SOL    HW228774  11.547   5.425  10.777
 8979SOL     OW28775  11.100   5.494   0.698
 8979SOL    HW128776  11.111   5.415   0.752
 8979SOL    HW228777  11.179   5.497   0.644
 8980SOL     OW28778  13.539  11.107   1.563
 8980SOL    HW128779  13.572  11.035   1.617
 8980SOL    HW228780  13.560  11.186   1.613
 8981SOL     OW28781   2.496  11.263   6.236
 8981SOL    HW128782   2.575  11.226   6.197
 8981SOL    HW228783   2.467  11.197   6.299
 8982SOL     OW28784   2.924   2.331   6.541
 8982SOL    HW128785   2.838   2.318   6.501
 8982SOL    HW228786   2.925   2.424   6.566
 8983SOL     OW28787   4.389  13.917  14.325
 8983SOL    HW128788   4.477  13.942  14.299
 8983SOL    HW228789   4.332  13.982  14.284
 8984SOL     OW28790   9.203   9.391   5.307
 8984SOL    HW128791   9.267   9.362   5.373
 8984SOL    HW228792   9.204   9.322   5.241
 8985SOL     OW28793   0.648  13.975   9.760
 8985SOL    HW128794   0.638  13.908   9.828
 8985SOL    HW228795   0.590  13.948   9.690
 8986SOL     OW28796  11.873   1.274   1.530
 8986SOL    HW128797  11.888   1.339   1.599
 8986SOL    HW228798  11.936   1.296   1.461
 8987SOL     OW28799   2.348   4.479  12.395
 8987SOL    HW128800   2.409   4.553  12.395
 8987SOL    HW228801   2.294   4.492  12.473
 8988SOL     OW28802  11.418  12.304  11.002
 8988SOL    HW128803  11.433  12.218  10.964
 8988SOL    HW228804  11.501  12.326  11.045
 8989SOL     OW28805   4.964   8.826   9.321
 8989SOL    HW128806   4.947   8.892   9.254
 8989SOL    HW228807   4.934   8.867   9.402
 8990SOL     OW28808   9.756  11.960   4.511
 8990SOL    HW128809   9.743  12.028   4.578
 8990SOL    HW228810   9.851  11.946   4.510
 8991SOL     OW28811   0.722  12.997   9.762
 8991SOL    HW128812   0.777  13.008   9.685
 8991SOL    HW228813   0.783  12.984   9.834
 8992SOL     OW28814   9.289   4.543   9.812
 8992SOL    HW128815   9.372   4.590   9.817
 8992SOL    HW228816   9.307   4.460   9.856
 8993SOL     OW28817   8.724  14.370   3.779
 8993SOL    HW128818   8.694  14.460   3.781
 8993SOL    HW228819   8.706  14.340   3.690
 8994SOL     OW28820  13.719   5.287  13.030
 8994SOL    HW128821  13.786   5.234  13.072
 8994SOL    HW228822  13.648   5.292  13.094
 8995SOL     OW28823  12.300   5.945   1.266
 8995SOL    HW128824  12.227   5.983   1.314
 8995SOL    HW228825  12.353   6.019   1.240
 8996SOL     OW28826  12.140  13.673  10.704
 8996SOL    HW128827  12.102  13.712  10.783
 8996SOL    HW228828  12.066  13.664  10.644
 8997SOL     OW28829   2.587  11.152   5.023
 8997SOL    HW128830   2.579  11.214   5.095
 8997SOL    HW228831   2.497  11.135   4.995
 8998SOL     OW28832   9.823   3.904  12.585
 8998SOL    HW128833   9.904   3.953  12.601
 8998SOL    HW228834   9.781   3.898  12.671
 8999SOL     OW28835   2.443   9.648   6.324
 8999SOL    HW128836   2.509   9.621   6.260
 8999SOL    HW228837   2.460   9.741   6.338
 9000SOL     OW28838   7.513   3.282  10.236
 9000SOL    HW128839   7.604   3.260  10.218
 9000SOL    HW228840   7.504   3.272  10.331
 9001SOL     OW28841  11.351   9.595  12.037
 9001SOL    HW128842  11.402   9.607  11.958
 9001SOL    HW228843  11.330   9.684  12.066
 9002SOL     OW28844   6.183  12.106   5.186
 9002SOL    HW128845   6.103  12.151   5.214
 9002SOL    HW228846   6.230  12.172   5.135
 9003SOL     OW28847   9.976  13.618  11.732
 9003SOL    HW128848  10.042  13.589  11.670
 9003SOL    HW228849   9.963  13.711  11.713
 9004SOL     OW28850   5.880  13.934  11.793
 9004SOL    HW128851   5.841  13.846  11.786
 9004SOL    HW228852   5.933  13.931  11.872
 9005SOL     OW28853  14.437   2.957  11.064
 9005SOL    HW128854  14.350   2.955  11.103
 9005SOL    HW228855  14.468   3.046  11.078
 9006SOL     OW28856   5.666  14.374  11.707
 9006SOL    HW128857   5.737  14.417  11.753
 9006SOL    HW228858   5.704  14.292  11.675
 9007SOL     OW28859  13.279  11.007   2.435
 9007SOL    HW128860  13.231  11.077   2.390
 9007SOL    HW228861  13.349  10.983   2.374
 9008SOL     OW28862   7.079   3.640  14.374
 9008SOL    HW128863   7.027   3.585  14.316
 9008SOL    HW228864   7.015   3.686  14.427
 9009SOL     OW28865   0.882   2.639   2.750
 9009SOL    HW128866   0.797   2.595   2.749
 9009SOL    HW228867   0.861   2.731   2.741
 9010SOL     OW28868  13.719   4.066   0.616
 9010SOL    HW128869  13.740   4.103   0.530
 9010SOL    HW228870  13.644   4.008   0.599
 9011SOL     OW28871  10.396   4.006   2.717
 9011SOL    HW128872  10.427   4.096   2.710
 9011SOL    HW228873  10.301   4.013   2.726
 9012SOL     OW28874  10.099   5.704   4.591
 9012SOL    HW128875  10.107   5.798   4.579
 9012SOL    HW228876  10.189   5.671   4.581
 9013SOL     OW28877  13.935  13.412  14.715
 9013SOL    HW128878  13.920  13.500  14.680
 9013SOL    HW228879  13.858  13.393  14.768
 9014SOL     OW28880   6.822  13.317  13.352
 9014SOL    HW128881   6.824  13.252  13.282
 9014SOL    HW228882   6.728  13.331  13.369
 9015SOL     OW28883   3.788   9.285   7.587
 9015SOL    HW128884   3.701   9.310   7.556
 9015SOL    HW228885   3.795   9.323   7.674
 9016SOL     OW28886   8.312  14.692  13.994
 9016SOL    HW128887   8.255  14.666  13.922
 9016SOL    HW228888   8.362  14.766  13.960
 9017SOL     OW28889   5.205  10.732  11.467
 9017SOL    HW128890   5.242  10.794  11.405
 9017SOL    HW228891   5.144  10.784  11.519
 9018SOL     OW28892  13.257  12.978   1.104
 9018SOL    HW128893  13.216  13.036   1.041
 9018SOL    HW228894  13.236  13.016   1.189
 9019SOL     OW28895   0.006   5.822   1.385
 9019SOL    HW128896   0.017   5.917   1.378
 9019SOL    HW228897  14.812   5.802   1.324
 9020SOL     OW28898   1.148  12.789  10.235
 9020SOL    HW128899   1.112  12.708  10.199
 9020SOL    HW228900   1.165  12.843  10.159
 9021SOL     OW28901  12.956  14.414   4.254
 9021SOL    HW128902  12.868  14.440   4.227
 9021SOL    HW228903  13.004  14.403   4.172
 9022SOL     OW28904   5.169   8.640   3.483
 9022SOL    HW128905   5.185   8.570   3.546
 9022SOL    HW228906   5.074   8.644   3.474
 9023SOL     OW28907   9.757   9.218   2.825
 9023SOL    HW128908   9.802   9.133   2.832
 9023SOL    HW228909   9.825   9.277   2.793
 9024SOL     OW28910  11.677  11.770   9.957
 9024SOL    HW128911  11.683  11.676   9.976
 9024SOL    HW228912  11.719  11.779   9.872
 9025SOL     OW28913  12.955  13.936   0.564
 9025SOL    HW128914  13.035  13.942   0.512
 9025SOL    HW228915  12.973  13.867   0.628
 9026SOL     OW28916   4.312  14.707   0.843
 9026SOL    HW128917   4.362  14.662   0.774
 9026SOL    HW228918   4.225  14.668   0.839
 9027SOL     OW28919  12.570   0.789   0.601
 9027SOL    HW128920  12.495   0.773   0.658
 9027SOL    HW228921  12.566   0.882   0.581
 9028SOL     OW28922   3.782   5.771   6.023
 9028SOL    HW128923   3.861   5.721   6.041
 9028SOL    HW228924   3.810   5.841   5.965
 9029SOL     OW28925   3.187   6.440   1.905
 9029SOL    HW128926   3.185   6.530   1.871
 9029SOL    HW228927   3.095   6.421   1.926
 9030SOL     OW28928  10.980  13.090   5.445
 9030SOL    HW128929  10.892  13.121   5.464
 9030SOL    HW228930  10.967  13.005   5.402
 9031SOL     OW28931   4.721   3.046   1.352
 9031SOL    HW128932   4.801   3.095   1.374
 9031SOL    HW228933   4.660   3.067   1.423
 9032SOL     OW28934  11.701  13.026   4.770
 9032SOL    HW128935  11.714  13.017   4.864
 9032SOL    HW228936  11.708  12.937   4.736
 9033SOL     OW28937  14.641  10.637  14.822
 9033SOL    HW128938  14.579  10.574  14.858
 9033SOL    HW228939  14.721  10.622  14.872
 9034SOL     OW28940   1.013  13.648   9.359
 9034SOL    HW128941   1.055  13.700   9.427
 9034SOL    HW228942   0.990  13.565   9.402
 9035SOL     OW28943  11.082   4.477  11.304
 9035SOL    HW128944  11.125   4.482  11.218
 9035SOL    HW228945  11.104   4.390  11.336
 9036SOL     OW28946   2.193   7.101  11.490
 9036SOL    HW128947   2.260   7.135  11.550
 9036SOL    HW228948   2.213   7.144  11.407
 9037SOL     OW28949   4.640   8.862   3.271
 9037SOL    HW128950   4.599   8.875   3.186
 9037SOL    HW228951   4.728   8.830   3.251
 9038SOL     OW28952  14.113  14.192   0.872
 9038SOL    HW128953  14.186  14.230   0.921
 9038SOL    HW228954  14.127  14.221   0.782
 9039SOL     OW28955   6.055   1.721  14.332
 9039SOL    HW128956   6.089   1.802  14.294
 9039SOL    HW228957   5.964   1.741  14.354
 9040SOL     OW28958   3.276   8.530   2.510
 9040SOL    HW128959   3.268   8.617   2.470
 9040SOL    HW228960   3.187   8.496   2.511
 9041SOL     OW28961   6.751   8.526   5.364
 9041SOL    HW128962   6.839   8.525   5.402
 9041SOL    HW228963   6.750   8.601   5.305
 9042SOL     OW28964   7.447   8.722  12.086
 9042SOL    HW128965   7.367   8.772  12.096
 9042SOL    HW228966   7.418   8.635  12.057
 9043SOL     OW28967   3.574   2.608   5.818
 9043SOL    HW128968   3.613   2.530   5.857
 9043SOL    HW228969   3.503   2.633   5.877
 9044SOL     OW28970   5.292  11.967   4.254
 9044SOL    HW128971   5.250  11.910   4.318
 9044SOL    HW228972   5.349  11.909   4.203
 9045SOL     OW28973   4.226   7.536   4.423
 9045SOL    HW128974   4.287   7.478   4.470
 9045SOL    HW228975   4.280   7.580   4.358
 9046SOL     OW28976  11.797   4.857   4.954
 9046SOL    HW128977  11.751   4.934   4.988
 9046SOL    HW228978  11.761   4.844   4.866
 9047SOL     OW28979   9.864   8.432   8.658
 9047SOL    HW128980   9.774   8.463   8.652
 9047SOL    HW228981   9.909   8.474   8.584
 9048SOL     OW28982   8.606   7.265   3.399
 9048SOL    HW128983   8.542   7.302   3.459
 9048SOL    HW228984   8.583   7.302   3.314
 9049SOL     OW28985  13.008   4.137   9.039
 9049SOL    HW128986  12.940   4.203   9.027
 9049SOL    HW228987  13.049   4.128   8.953
 9050SOL     OW28988   8.434  12.961  11.174
 9050SOL    HW128989   8.380  12.892  11.138
 9050SOL    HW228990   8.470  12.925  11.255
 9051SOL     OW28991   4.609   4.436   8.816
 9051SOL    HW128992   4.699   4.429   8.847
 9051SOL    HW228993   4.617   4.457   8.723
 9052SOL     OW28994   1.964   8.172   5.747
 9052SOL    HW128995   1.873   8.148   5.761
 9052SOL    HW228996   1.973   8.177   5.651
 9053SOL     OW28997   9.344  11.792  11.296
 9053SOL    HW128998   9.276  11.845  11.339
 9053SOL    HW228999   9.335  11.705  11.335
 9054SOL     OW29000  14.003  14.837   2.247
 9054SOL    HW129001  13.983  14.866   2.336
 9054SOL    HW229002  14.096  14.815   2.249
 9055SOL     OW29003   3.373   4.675   8.251
 9055SOL    HW129004   3.468   4.685   8.241
 9055SOL    HW229005   3.355   4.705   8.340
 9056SOL     OW29006   6.650  14.822  13.064
 9056SOL    HW129007   6.587   0.016  13.078
 9056SOL    HW229008   6.729  14.851  13.109
 9057SOL     OW29009   6.063  14.215  12.671
 9057SOL    HW129010   6.090  14.287  12.728
 9057SOL    HW229011   6.132  14.150  12.679
 9058SOL     OW29012  10.984   8.255   2.702
 9058SOL    HW129013  11.062   8.295   2.742
 9058SOL    HW229014  11.020   8.192   2.639
 9059SOL     OW29015   6.230   0.925   7.914
 9059SOL    HW129016   6.152   0.955   7.867
 9059SOL    HW229017   6.233   0.979   7.993
 9060SOL     OW29018  14.342   6.303   8.580
 9060SOL    HW129019  14.394   6.223   8.575
 9060SOL    HW229020  14.402   6.369   8.617
 9061SOL     OW29021   0.808  13.667   7.858
 9061SOL    HW129022   0.829  13.684   7.766
 9061SOL    HW229023   0.885  13.697   7.906
 9062SOL     OW29024   0.880   4.993   1.979
 9062SOL    HW129025   0.903   4.989   2.072
 9062SOL    HW229026   0.926   4.919   1.940
 9063SOL     OW29027  12.920   6.809   5.003
 9063SOL    HW129028  12.972   6.755   4.944
 9063SOL    HW229029  12.896   6.886   4.952
 9064SOL     OW29030   5.201   8.445  10.153
 9064SOL    HW129031   5.179   8.368  10.100
 9064SOL    HW229032   5.260   8.496  10.097
 9065SOL     OW29033  11.309  10.329   7.382
 9065SOL    HW129034  11.394  10.284   7.380
 9065SOL    HW229035  11.280  10.330   7.291
 9066SOL     OW29036  14.278  14.187   6.656
 9066SOL    HW129037  14.356  14.242   6.664
 9066SOL    HW229038  14.210  14.235   6.704
 9067SOL     OW29039   0.398  12.774   7.544
 9067SOL    HW129040   0.307  12.787   7.519
 9067SOL    HW229041   0.425  12.858   7.583
 9068SOL     OW29042   3.576   0.154  14.770
 9068SOL    HW129043   3.526   0.213  14.826
 9068SOL    HW229044   3.520   0.139  14.694
 9069SOL     OW29045   6.410   9.633  13.717
 9069SOL    HW129046   6.377   9.604  13.632
 9069SOL    HW229047   6.360   9.583  13.781
 9070SOL     OW29048  13.372   2.289  13.169
 9070SOL    HW129049  13.451   2.279  13.116
 9070SOL    HW229050  13.333   2.201  13.171
 9071SOL     OW29051   8.685   6.914   6.710
 9071SOL    HW129052   8.632   6.991   6.730
 9071SOL    HW229053   8.776   6.946   6.711
 9072SOL     OW29054   0.991   9.270   4.987
 9072SOL    HW129055   0.934   9.203   4.949
 9072SOL    HW229056   0.933   9.344   5.006
 9073SOL     OW29057   4.832   3.581   5.514
 9073SOL    HW129058   4.824   3.486   5.521
 9073SOL    HW229059   4.926   3.598   5.515
 9074SOL     OW29060  10.647   9.285   7.592
 9074SOL    HW129061  10.672   9.350   7.526
 9074SOL    HW229062  10.728   9.237   7.610
 9075SOL     OW29063  12.260   2.885   9.145
 9075SOL    HW129064  12.336   2.828   9.154
 9075SOL    HW229065  12.240   2.883   9.051
 9076SOL     OW29066   0.172   6.089   9.659
 9076SOL    HW129067   0.189   6.050   9.574
 9076SOL    HW229068   0.099   6.150   9.644
 9077SOL     OW29069  11.173   9.711  10.280
 9077SOL    HW129070  11.137   9.624  10.269
 9077SOL    HW229071  11.168   9.751  10.193
 9078SOL     OW29072  11.278   0.331   2.387
 9078SOL    HW129073  11.210   0.364   2.327
 9078SOL    HW229074  11.358   0.329   2.334
 9079SOL     OW29075   4.035  11.421   1.328
 9079SOL    HW129076   4.049  11.416   1.234
 9079SOL    HW229077   3.978  11.497   1.340
 9080SOL     OW29078   5.593  12.325   4.013
 9080SOL    HW129079   5.551  12.374   3.942
 9080SOL    HW229080   5.665  12.278   3.971
 9081SOL     OW29081  12.364   2.992   2.777
 9081SOL    HW129082  12.421   2.915   2.777
 9081SOL    HW229083  12.352   3.013   2.869
 9082SOL     OW29084   0.003   0.478   8.200
 9082SOL    HW129085   0.007   0.541   8.273
 9082SOL    HW229086  14.792   0.439   8.207
 9083SOL     OW29087  12.343   1.479   7.087
 9083SOL    HW129088  12.305   1.566   7.078
 9083SOL    HW229089  12.428   1.494   7.130
 9084SOL     OW29090   7.093  11.111   9.806
 9084SOL    HW129091   7.052  11.125   9.721
 9084SOL    HW229092   7.110  11.199   9.839
 9085SOL     OW29093   7.251   3.362  14.414
 9085SOL    HW129094   7.187   3.398  14.352
 9085SOL    HW229095   7.281   3.438  14.464
 9086SOL     OW29096   6.686   3.292   1.447
 9086SOL    HW129097   6.711   3.220   1.504
 9086SOL    HW229098   6.590   3.287   1.443
 9087SOL     OW29099  10.674   1.757  13.737
 9087SOL    HW129100  10.601   1.780  13.794
 9087SOL    HW229101  10.682   1.831  13.677
 9088SOL     OW29102  13.852  11.882   6.683
 9088SOL    HW129103  13.778  11.900   6.741
 9088SOL    HW229104  13.911  11.827   6.734
 9089SOL     OW29105   9.892  13.985  12.859
 9089SOL    HW129106   9.809  14.031  12.845
 9089SOL    HW229107   9.921  14.014  12.945
 9090SOL     OW29108   6.501   9.039  12.578
 9090SOL    HW129109   6.412   9.007  12.563
 9090SOL    HW229110   6.558   8.970  12.546
 9091SOL     OW29111  11.367   1.447   5.447
 9091SOL    HW129112  11.396   1.507   5.516
 9091SOL    HW229113  11.432   1.457   5.377
 9092SOL     OW29114  12.612  14.810   6.818
 9092SOL    HW129115  12.523  14.783   6.793
 9092SOL    HW229116  12.658  14.822   6.735
 9093SOL     OW29117   7.896   9.682   3.155
 9093SOL    HW129118   7.817   9.670   3.103
 9093SOL    HW229119   7.904   9.601   3.205
 9094SOL     OW29120  14.733   4.962  14.073
 9094SOL    HW129121  14.673   5.009  14.015
 9094SOL    HW229122  14.820   4.993  14.047
 9095SOL     OW29123   7.182  11.399   0.821
 9095SOL    HW129124   7.212  11.465   0.759
 9095SOL    HW229125   7.263  11.360   0.856
 9096SOL     OW29126   7.540  10.918  10.931
 9096SOL    HW129127   7.463  10.946  10.881
 9096SOL    HW229128   7.550  10.826  10.908
 9097SOL     OW29129   6.311   5.101   0.314
 9097SOL    HW129130   6.366   5.161   0.265
 9097SOL    HW229131   6.282   5.037   0.249
 9098SOL     OW29132   2.192   8.402   8.856
 9098SOL    HW129133   2.189   8.492   8.886
 9098SOL    HW229134   2.197   8.350   8.936
 9099SOL     OW29135  13.588   3.692  10.356
 9099SOL    HW129136  13.593   3.648  10.441
 9099SOL    HW229137  13.668   3.666  10.311
 9100SOL     OW29138  11.157   0.416   4.321
 9100SOL    HW129139  11.210   0.488   4.355
 9100SOL    HW229140  11.072   0.456   4.302
 9101SOL     OW29141  10.854   1.431   5.771
 9101SOL    HW129142  10.869   1.389   5.687
 9101SOL    HW229143  10.759   1.427   5.784
 9102SOL     OW29144  12.584   2.417   5.498
 9102SOL    HW129145  12.609   2.375   5.416
 9102SOL    HW229146  12.494   2.386   5.513
 9103SOL     OW29147   2.025   4.474   4.191
 9103SOL    HW129148   2.104   4.423   4.175
 9103SOL    HW229149   1.966   4.450   4.119
 9104SOL     OW29150  10.597   6.709   7.141
 9104SOL    HW129151  10.522   6.767   7.129
 9104SOL    HW229152  10.592   6.648   7.068
 9105SOL     OW29153   7.234   0.789   1.972
 9105SOL    HW129154   7.180   0.867   1.962
 9105SOL    HW229155   7.177   0.726   2.016
 9106SOL     OW29156   3.317  11.965   2.446
 9106SOL    HW129157   3.376  11.960   2.521
 9106SOL    HW229158   3.262  11.886   2.453
 9107SOL     OW29159  10.734  13.320  12.083
 9107SOL    HW129160  10.724  13.410  12.050
 9107SOL    HW229161  10.813  13.323  12.138
 9108SOL     OW29162  13.319   6.756   7.015
 9108SOL    HW129163  13.291   6.739   7.104
 9108SOL    HW229164  13.414   6.763   7.020
 9109SOL     OW29165   0.623  10.874  12.479
 9109SOL    HW129166   0.620  10.942  12.411
 9109SOL    HW229167   0.693  10.816  12.450
 9110SOL     OW29168   2.694   0.248  14.718
 9110SOL    HW129169   2.692   0.277  14.809
 9110SOL    HW229170   2.745   0.167  14.720
 9111SOL     OW29171   1.122   7.155   8.590
 9111SOL    HW129172   1.119   7.238   8.544
 9111SOL    HW229173   1.035   7.118   8.580
 9112SOL     OW29174   2.804  13.040  12.652
 9112SOL    HW129175   2.831  12.964  12.600
 9112SOL    HW229176   2.733  13.078  12.601
 9113SOL     OW29177   1.400  12.292   7.128
 9113SOL    HW129178   1.395  12.384   7.154
 9113SOL    HW229179   1.484  12.285   7.083
 9114SOL     OW29180   3.775   7.034   3.179
 9114SOL    HW129181   3.790   7.027   3.084
 9114SOL    HW229182   3.860   7.012   3.217
 9115SOL     OW29183   1.194   7.065  11.440
 9115SOL    HW129184   1.196   7.159  11.421
 9115SOL    HW229185   1.126   7.056  11.507
 9116SOL     OW29186  10.735   7.833  14.764
 9116SOL    HW129187  10.793   7.908  14.777
 9116SOL    HW229188  10.757   7.773  14.835
 9117SOL     OW29189   6.332   5.412   4.242
 9117SOL    HW129190   6.242   5.405   4.276
 9117SOL    HW229191   6.325   5.478   4.172
 9118SOL     OW29192  13.315   0.496  14.062
 9118SOL    HW129193  13.250   0.444  14.110
 9118SOL    HW229194  13.367   0.538  14.131
 9119SOL     OW29195   2.798  11.345   4.178
 9119SOL    HW129196   2.868  11.312   4.122
 9119SOL    HW229197   2.719  11.336   4.125
 9120SOL     OW29198   5.495   8.733   6.616
 9120SOL    HW129199   5.472   8.644   6.643
 9120SOL    HW229200   5.411   8.774   6.594
 9121SOL     OW29201  10.844   6.965   8.516
 9121SOL    HW129202  10.860   6.939   8.425
 9121SOL    HW229203  10.924   6.941   8.562
 9122SOL     OW29204  11.644   8.433  10.078
 9122SOL    HW129205  11.729   8.429  10.033
 9122SOL    HW229206  11.665   8.454  10.169
 9123SOL     OW29207   3.761   1.217  12.101
 9123SOL    HW129208   3.825   1.248  12.165
 9123SOL    HW229209   3.676   1.239  12.140
 9124SOL     OW29210  12.776   7.657   7.783
 9124SOL    HW129211  12.807   7.729   7.730
 9124SOL    HW229212  12.856   7.613   7.813
 9125SOL     OW29213   6.868   3.700   9.010
 9125SOL    HW129214   6.842   3.787   9.038
 9125SOL    HW229215   6.964   3.704   9.003
 9126SOL     OW29216   5.281  12.582  12.053
 9126SOL    HW129217   5.251  12.533  12.129
 9126SOL    HW229218   5.374  12.561  12.046
 9127SOL     OW29219   4.355   3.628  10.678
 9127SOL    HW129220   4.406   3.612  10.758
 9127SOL    HW229221   4.401   3.578  10.610
 9128SOL     OW29222   7.127   6.471   2.761
 9128SOL    HW129223   7.131   6.447   2.854
 9128SOL    HW229224   7.070   6.405   2.722
 9129SOL     OW29225   1.123  10.871   8.191
 9129SOL    HW129226   1.088  10.944   8.139
 9129SOL    HW229227   1.057  10.857   8.259
 9130SOL     OW29228   6.522  11.188   8.017
 9130SOL    HW129229   6.578  11.205   7.942
 9130SOL    HW229230   6.471  11.111   7.992
 9131SOL     OW29231  12.535   8.202   9.780
 9131SOL    HW129232  12.586   8.127   9.813
 9131SOL    HW229233  12.478   8.226   9.853
 9132SOL     OW29234   0.637   1.411  12.126
 9132SOL    HW129235   0.642   1.352  12.051
 9132SOL    HW229236   0.551   1.452  12.118
 9133SOL     OW29237  13.081   5.725  12.746
 9133SOL    HW129238  13.081   5.763  12.658
 9133SOL    HW229239  12.998   5.751  12.784
 9134SOL     OW29240   8.079   2.332   0.958
 9134SOL    HW129241   8.005   2.387   0.984
 9134SOL    HW229242   8.070   2.322   0.863
 9135SOL     OW29243  13.541  10.366  12.476
 9135SOL    HW129244  13.519  10.280  12.440
 9135SOL    HW229245  13.464  10.420  12.458
 9136SOL     OW29246  11.149   2.653   8.421
 9136SOL    HW129247  11.234   2.613   8.400
 9136SOL    HW229248  11.121   2.611   8.502
 9137SOL     OW29249   8.276   1.006   9.324
 9137SOL    HW129250   8.205   1.058   9.289
 9137SOL    HW229251   8.309   0.956   9.249
 9138SOL     OW29252  10.510   3.887  12.232
 9138SOL    HW129253  10.449   3.953  12.200
 9138SOL    HW229254  10.547   3.847  12.153
 9139SOL     OW29255   3.527   2.901   1.737
 9139SOL    HW129256   3.601   2.904   1.797
 9139SOL    HW229257   3.466   2.968   1.769
 9140SOL     OW29258   0.454   1.943  13.997
 9140SOL    HW129259   0.376   1.997  14.009
 9140SOL    HW229260   0.485   1.966  13.910
 9141SOL     OW29261   9.456   4.774   1.310
 9141SOL    HW129262   9.517   4.734   1.247
 9141SOL    HW229263   9.379   4.795   1.259
 9142SOL     OW29264   9.538  14.660   9.179
 9142SOL    HW129265   9.509  14.578   9.219
 9142SOL    HW229266   9.484  14.668   9.100
 9143SOL     OW29267   2.655  13.637   3.039
 9143SOL    HW129268   2.612  13.554   3.059
 9143SOL    HW229269   2.666  13.637   2.944
 9144SOL     OW29270   1.829   2.867   2.312
 9144SOL    HW129271   1.853   2.807   2.383
 9144SOL    HW229272   1.866   2.827   2.234
 9145SOL     OW29273  13.021   6.980   1.419
 9145SOL    HW129274  12.945   6.924   1.430
 9145SOL    HW229275  12.985   7.064   1.390
 9146SOL     OW29276   9.418  13.540   9.968
 9146SOL    HW129277   9.494  13.597   9.973
 9146SOL    HW229278   9.403  13.511  10.058
 9147SOL     OW29279   8.008  10.633  10.615
 9147SOL    HW129280   8.096  10.663  10.638
 9147SOL    HW229281   8.004  10.643  10.520
 9148SOL     OW29282  10.330   5.572  11.183
 9148SOL    HW129283  10.344   5.544  11.092
 9148SOL    HW229284  10.236   5.582  11.191
 9149SOL     OW29285   6.062   5.022  10.588
 9149SOL    HW129286   6.083   4.939  10.631
 9149SOL    HW229287   6.093   5.012  10.498
 9150SOL     OW29288   4.449   5.764   1.999
 9150SOL    HW129289   4.437   5.784   2.092
 9150SOL    HW229290   4.526   5.706   1.998
 9151SOL     OW29291   3.044   1.519   2.975
 9151SOL    HW129292   3.109   1.488   3.039
 9151SOL    HW229293   3.043   1.614   2.988
 9152SOL     OW29294  11.129   4.020   8.494
 9152SOL    HW129295  11.147   4.069   8.574
 9152SOL    HW229296  11.131   3.928   8.522
 9153SOL     OW29297  13.940  10.175   9.205
 9153SOL    HW129298  13.932  10.128   9.288
 9153SOL    HW229299  14.033  10.200   9.200
 9154SOL     OW29300   5.288   2.875   0.885
 9154SOL    HW129301   5.329   2.797   0.920
 9154SOL    HW229302   5.194   2.854   0.882
 9155SOL     OW29303   0.205   0.548  14.841
 9155SOL    HW129304   0.262   0.541   0.041
 9155SOL    HW229305   0.202   0.459  14.805
 9156SOL     OW29306   9.396   3.098  10.005
 9156SOL    HW129307   9.377   3.170  10.065
 9156SOL    HW229308   9.363   3.127   9.920
 9157SOL     OW29309   2.196   9.596  14.141
 9157SOL    HW129310   2.263   9.528  14.144
 9157SOL    HW229311   2.243   9.673  14.109
 9158SOL     OW29312   8.079   0.837   2.851
 9158SOL    HW129313   8.147   0.888   2.895
 9158SOL    HW229314   8.041   0.783   2.920
 9159SOL     OW29315  10.037  13.860   9.100
 9159SOL    HW129316  10.129  13.838   9.090
 9159SOL    HW229317  10.012  13.824   9.185
 9160SOL     OW29318   3.373   9.290  12.336
 9160SOL    HW129319   3.465   9.296  12.361
 9160SOL    HW229320   3.375   9.271  12.243
 9161SOL     OW29321  14.117   9.777   9.882
 9161SOL    HW129322  14.103   9.861   9.924
 9161SOL    HW229323  14.158   9.799   9.798
 9162SOL     OW29324  12.176  11.444   3.017
 9162SOL    HW129325  12.155  11.351   3.004
 9162SOL    HW229326  12.202  11.475   2.930
 9163SOL     OW29327   7.727  11.596  13.760
 9163SOL    HW129328   7.706  11.512  13.719
 9163SOL    HW229329   7.666  11.658  13.721
 9164SOL     OW29330  13.496  14.149   1.395
 9164SOL    HW129331  13.521  14.102   1.316
 9164SOL    HW229332  13.460  14.082   1.453
 9165SOL     OW29333   1.666  13.083  12.071
 9165SOL    HW129334   1.576  13.064  12.043
 9165SOL    HW229335   1.717  13.009  12.037
 9166SOL     OW29336   7.746   4.717  11.834
 9166SOL    HW129337   7.751   4.768  11.915
 9166SOL    HW229338   7.727   4.628  11.863
 9167SOL     OW29339   2.837   1.006   9.638
 9167SOL    HW129340   2.868   1.095   9.627
 9167SOL    HW229341   2.905   0.952   9.598
 9168SOL     OW29342   8.039   2.740   0.447
 9168SOL    HW129343   8.024   2.814   0.506
 9168SOL    HW229344   8.132   2.719   0.459
 9169SOL     OW29345   6.943   1.190   3.658
 9169SOL    HW129346   7.029   1.189   3.700
 9169SOL    HW229347   6.934   1.103   3.619
 9170SOL     OW29348  12.364   9.186   6.917
 9170SOL    HW129349  12.417   9.264   6.902
 9170SOL    HW229350  12.387   9.127   6.845
 9171SOL     OW29351  12.937   0.843   3.505
 9171SOL    HW129352  12.889   0.813   3.428
 9171SOL    HW229353  12.878   0.828   3.579
 9172SOL     OW29354  11.412  12.819   4.569
 9172SOL    HW129355  11.446  12.768   4.643
 9172SOL    HW229356  11.319  12.795   4.564
 9173SOL     OW29357   0.493   4.762   2.840
 9173SOL    HW129358   0.432   4.827   2.807
 9173SOL    HW229359   0.447   4.721   2.913
 9174SOL     OW29360   1.223  12.805   4.404
 9174SOL    HW129361   1.279  12.736   4.368
 9174SOL    HW229362   1.214  12.868   4.332
 9175SOL     OW29363  13.834   6.770  10.258
 9175SOL    HW129364  13.922   6.740  10.280
 9175SOL    HW229365  13.776   6.711  10.306
 9176SOL     OW29366   8.541  11.443   1.568
 9176SOL    HW129367   8.450  11.445   1.538
 9176SOL    HW229368   8.535  11.419   1.661
 9177SOL     OW29369  13.921   7.020  12.518
 9177SOL    HW129370  13.978   6.944  12.508
 9177SOL    HW229371  13.851   7.006  12.453
 9178SOL     OW29372  10.497  12.952   4.659
 9178SOL    HW129373  10.487  12.890   4.586
 9178SOL    HW229374  10.427  13.015   4.647
 9179SOL     OW29375   8.925   7.759   9.569
 9179SOL    HW129376   8.935   7.707   9.649
 9179SOL    HW229377   8.957   7.702   9.499
 9180SOL     OW29378   8.254   7.292   8.650
 9180SOL    HW129379   8.313   7.291   8.726
 9180SOL    HW229380   8.214   7.378   8.651
 9181SOL     OW29381  10.237  11.921   4.992
 9181SOL    HW129382  10.323  11.943   4.957
 9181SOL    HW229383  10.240  11.949   5.084
 9182SOL     OW29384   1.486   3.579  14.690
 9182SOL    HW129385   1.435   3.507  14.727
 9182SOL    HW229386   1.429   3.656  14.700
 9183SOL     OW29387  14.263  11.340   4.618
 9183SOL    HW129388  14.248  11.432   4.638
 9183SOL    HW229389  14.338  11.315   4.671
 9184SOL     OW29390  12.882   7.538   4.166
 9184SOL    HW129391  12.918   7.457   4.129
 9184SOL    HW229392  12.788   7.522   4.174
 9185SOL     OW29393  10.903   7.872  12.888
 9185SOL    HW129394  10.923   7.954  12.934
 9185SOL    HW229395  10.867   7.900  12.804
 9186SOL     OW29396   6.368   4.051  12.374
 9186SOL    HW129397   6.317   4.130  12.391
 9186SOL    HW229398   6.327   3.983  12.428
 9187SOL     OW29399  10.224  10.456  10.986
 9187SOL    HW129400  10.215  10.385  11.050
 9187SOL    HW229401  10.150  10.514  11.005
 9188SOL     OW29402   7.083   6.380   5.848
 9188SOL    HW129403   7.096   6.434   5.925
 9188SOL    HW229404   7.021   6.313   5.876
 9189SOL     OW29405   8.545  10.697   6.260
 9189SOL    HW129406   8.551  10.618   6.313
 9189SOL    HW229407   8.452  10.704   6.239
 9190SOL     OW29408   2.700   8.772  14.826
 9190SOL    HW129409   2.623   8.763   0.005
 9190SOL    HW229410   2.730   8.862  14.842
 9191SOL     OW29411   2.619   6.496   6.333
 9191SOL    HW129412   2.594   6.489   6.425
 9191SOL    HW229413   2.602   6.587   6.310
 9192SOL     OW29414  10.415  11.803   1.452
 9192SOL    HW129415  10.403  11.732   1.516
 9192SOL    HW229416  10.449  11.760   1.374
 9193SOL     OW29417   5.390  13.079   6.279
 9193SOL    HW129418   5.412  12.998   6.234
 9193SOL    HW229419   5.470  13.104   6.325
 9194SOL     OW29420  12.713   8.786  12.780
 9194SOL    HW129421  12.688   8.703  12.821
 9194SOL    HW229422  12.787   8.764  12.724
 9195SOL     OW29423  12.910  11.140   9.955
 9195SOL    HW129424  12.873  11.150  10.043
 9195SOL    HW229425  12.895  11.224   9.912
 9196SOL     OW29426   7.852   5.968  10.072
 9196SOL    HW129427   7.925   5.907  10.076
 9196SOL    HW229428   7.791   5.929  10.010
 9197SOL     OW29429  12.145   6.347   7.860
 9197SOL    HW129430  12.171   6.363   7.770
 9197SOL    HW229431  12.059   6.305   7.852
 9198SOL     OW29432   9.189  12.915   2.179
 9198SOL    HW129433   9.156  12.883   2.263
 9198SOL    HW229434   9.120  12.895   2.116
 9199SOL     OW29435   3.745   4.577   5.315
 9199SOL    HW129436   3.679   4.611   5.254
 9199SOL    HW229437   3.711   4.600   5.402
 9200SOL     OW29438   0.351   5.509   0.292
 9200SOL    HW129439   0.331   5.416   0.307
 9200SOL    HW229440   0.331   5.552   0.375
 9201SOL     OW29441  11.563   0.379  14.681
 9201SOL    HW129442  11.600   0.462  14.712
 9201SOL    HW229443  11.522   0.341  14.759
 9202SOL     OW29444   7.877   8.397   4.028
 9202SOL    HW129445   7.905   8.339   3.957
 9202SOL    HW229446   7.786   8.373   4.043
 9203SOL     OW29447   1.016   0.026   4.165
 9203SOL    HW129448   0.922   0.037   4.175
 9203SOL    HW229449   1.030   0.025   4.070
 9204SOL     OW29450   7.069   9.663  12.229
 9204SOL    HW129451   7.152   9.618  12.213
 9204SOL    HW229452   7.092   9.755  12.237
 9205SOL     OW29453   8.149   2.164   5.844
 9205SOL    HW129454   8.090   2.204   5.781
 9205SOL    HW229455   8.131   2.210   5.926
 9206SOL     OW29456   8.436  10.944   3.938
 9206SOL    HW129457   8.468  10.895   4.014
 9206SOL    HW229458   8.364  10.997   3.972
 9207SOL     OW29459   3.883   8.977   1.227
 9207SOL    HW129460   3.977   8.977   1.208
 9207SOL    HW229461   3.874   9.036   1.302
 9208SOL     OW29462   1.156  12.520   9.368
 9208SOL    HW129463   1.248  12.528   9.340
 9208SOL    HW229464   1.158  12.453   9.436
 9209SOL     OW29465   8.023   8.858   7.374
 9209SOL    HW129466   8.111   8.895   7.382
 9209SOL    HW229467   7.989   8.858   7.464
 9210SOL     OW29468   3.571   6.229   5.968
 9210SOL    HW129469   3.517   6.258   6.041
 9210SOL    HW229470   3.509   6.209   5.898
 9211SOL     OW29471  11.552  14.315  12.743
 9211SOL    HW129472  11.566  14.364  12.824
 9211SOL    HW229473  11.612  14.356  12.680
 9212SOL     OW29474   8.226  12.685  11.498
 9212SOL    HW129475   8.255  12.594  11.495
 9212SOL    HW229476   8.132  12.681  11.479
 9213SOL     OW29477  14.087  12.830   5.641
 9213SOL    HW129478  14.161  12.771   5.653
 9213SOL    HW229479  14.112  12.885   5.566
 9214SOL     OW29480  10.168   3.233  12.264
 9214SOL    HW129481  10.218   3.151  12.261
 9214SOL    HW229482  10.224   3.293  12.312
 9215SOL     OW29483  13.361   3.061   7.710
 9215SOL    HW129484  13.428   3.127   7.725
 9215SOL    HW229485  13.281   3.099   7.747
 9216SOL     OW29486   5.785   3.155   6.501
 9216SOL    HW129487   5.796   3.092   6.572
 9216SOL    HW229488   5.842   3.229   6.524
 9217SOL     OW29489  12.192   8.048  10.446
 9217SOL    HW129490  12.268   8.000  10.414
 9217SOL    HW229491  12.217   8.140  10.440
 9218SOL     OW29492   3.813  11.990   0.700
 9218SOL    HW129493   3.775  11.908   0.669
 9218SOL    HW229494   3.907  11.976   0.694
 9219SOL     OW29495   4.892   8.750   0.514
 9219SOL    HW129496   4.901   8.845   0.521
 9219SOL    HW229497   4.966   8.715   0.564
 9220SOL     OW29498   9.825   3.034   3.951
 9220SOL    HW129499   9.907   3.012   3.906
 9220SOL    HW229500   9.797   2.953   3.992
 9221SOL     OW29501   5.226   8.779   7.324
 9221SOL    HW129502   5.233   8.755   7.416
 9221SOL    HW229503   5.295   8.728   7.280
 9222SOL     OW29504  11.812   1.325   3.071
 9222SOL    HW129505  11.814   1.406   3.019
 9222SOL    HW229506  11.772   1.351   3.154
 9223SOL     OW29507  13.636  11.769  14.750
 9223SOL    HW129508  13.588  11.810  14.678
 9223SOL    HW229509  13.574  11.770  14.823
 9224SOL     OW29510  10.973  13.353   2.322
 9224SOL    HW129511  11.064  13.324   2.315
 9224SOL    HW229512  10.967  13.394   2.409
 9225SOL     OW29513   4.660   1.265  12.154
 9225SOL    HW129514   4.726   1.200  12.178
 9225SOL    HW229515   4.697   1.311  12.078
 9226SOL     OW29516   6.715   7.010   7.227
 9226SOL    HW129517   6.733   6.944   7.294
 9226SOL    HW229518   6.801   7.043   7.203
 9227SOL     OW29519   9.899  13.198   1.509
 9227SOL    HW129520   9.947  13.121   1.480
 9227SOL    HW229521   9.940  13.271   1.462
 9228SOL     OW29522   8.984  11.465  11.543
 9228SOL    HW129523   9.075  11.483  11.521
 9228SOL    HW229524   8.959  11.534  11.604
 9229SOL     OW29525  10.763   7.404  12.108
 9229SOL    HW129526  10.827   7.465  12.145
 9229SOL    HW229527  10.813   7.351  12.046
 9230SOL     OW29528   6.434  12.042   2.384
 9230SOL    HW129529   6.398  11.986   2.453
 9230SOL    HW229530   6.364  12.048   2.319
 9231SOL     OW29531   7.984   3.363  14.264
 9231SOL    HW129532   7.927   3.438  14.282
 9231SOL    HW229533   7.975   3.347  14.170
 9232SOL     OW29534  14.228   2.623   5.838
 9232SOL    HW129535  14.174   2.691   5.878
 9232SOL    HW229536  14.215   2.634   5.744
 9233SOL     OW29537  10.444  11.985  11.652
 9233SOL    HW129538  10.377  11.970  11.718
 9233SOL    HW229539  10.466  12.078  11.662
 9234SOL     OW29540   1.766  14.847   8.680
 9234SOL    HW129541   1.832  14.819   8.744
 9234SOL    HW229542   1.804  14.825   8.595
 9235SOL     OW29543   2.270   6.999   7.052
 9235SOL    HW129544   2.262   7.066   6.984
 9235SOL    HW229545   2.328   6.933   7.015
 9236SOL     OW29546   4.037   9.315   0.053
 9236SOL    HW129547   3.949   9.349   0.039
 9236SOL    HW229548   4.094   9.373   0.003
 9237SOL     OW29549  10.650  11.464   7.785
 9237SOL    HW129550  10.625  11.524   7.855
 9237SOL    HW229551  10.588  11.391   7.792
 9238SOL     OW29552   1.170   2.155   5.429
 9238SOL    HW129553   1.191   2.249   5.433
 9238SOL    HW229554   1.219   2.123   5.354
 9239SOL     OW29555   9.004  14.667   8.371
 9239SOL    HW129556   8.959  14.701   8.448
 9239SOL    HW229557   9.096  14.688   8.386
 9240SOL     OW29558   6.977  13.872   8.039
 9240SOL    HW129559   6.973  13.856   8.134
 9240SOL    HW229560   6.946  13.791   7.999
 9241SOL     OW29561   0.604   0.857   6.279
 9241SOL    HW129562   0.556   0.795   6.225
 9241SOL    HW229563   0.660   0.905   6.217
 9242SOL     OW29564   6.844  11.787  13.038
 9242SOL    HW129565   6.819  11.709  12.989
 9242SOL    HW229566   6.800  11.859  12.993
 9243SOL     OW29567   7.176   6.077   0.580
 9243SOL    HW129568   7.245   6.129   0.539
 9243SOL    HW229569   7.138   6.027   0.508
 9244SOL     OW29570   1.832   4.044   1.210
 9244SOL    HW129571   1.804   4.024   1.300
 9244SOL    HW229572   1.920   4.007   1.204
 9245SOL     OW29573  12.645   9.493   5.826
 9245SOL    HW129574  12.607   9.532   5.747
 9245SOL    HW229575  12.569   9.460   5.874
 9246SOL     OW29576  10.530   3.322   1.765
 9246SOL    HW129577  10.501   3.248   1.711
 9246SOL    HW229578  10.481   3.397   1.730
 9247SOL     OW29579  11.541   7.884   3.574
 9247SOL    HW129580  11.502   7.869   3.660
 9247SOL    HW229581  11.612   7.946   3.591
 9248SOL     OW29582   4.242   6.210   7.361
 9248SOL    HW129583   4.274   6.300   7.354
 9248SOL    HW229584   4.283   6.163   7.289
 9249SOL     OW29585  12.739   7.282   4.892
 9249SOL    HW129586  12.732   7.353   4.955
 9249SOL    HW229587  12.652   7.275   4.853
 9250SOL     OW29588   9.142   7.359  12.968
 9250SOL    HW129589   9.140   7.369  13.063
 9250SOL    HW229590   9.057   7.321  12.946
 9251SOL     OW29591  10.113   5.138  10.403
 9251SOL    HW129592  10.131   5.165  10.493
 9251SOL    HW229593  10.168   5.195  10.349
 9252SOL     OW29594   9.942   3.327   8.046
 9252SOL    HW129595   9.916   3.335   8.137
 9252SOL    HW229596   9.860   3.334   7.997
 9253SOL     OW29597   2.556   3.299   0.296
 9253SOL    HW129598   2.473   3.345   0.283
 9253SOL    HW229599   2.541   3.211   0.262
 9254SOL     OW29600   3.038   2.413   4.655
 9254SOL    HW129601   3.090   2.360   4.596
 9254SOL    HW229602   2.952   2.371   4.657
 9255SOL     OW29603  13.243   1.083   9.788
 9255SOL    HW129604  13.263   1.176   9.796
 9255SOL    HW229605  13.258   1.063   9.696
 9256SOL     OW29606   2.107   3.244   1.719
 9256SOL    HW129607   2.038   3.179   1.705
 9256SOL    HW229608   2.060   3.325   1.737
 9257SOL     OW29609  11.737   1.258   6.437
 9257SOL    HW129610  11.697   1.247   6.524
 9257SOL    HW229611  11.830   1.243   6.452
 9258SOL     OW29612   8.294   9.786   0.527
 9258SOL    HW129613   8.387   9.776   0.548
 9258SOL    HW229614   8.266   9.698   0.500
 9259SOL     OW29615   9.490   1.074  10.149
 9259SOL    HW129616   9.441   1.011  10.201
 9259SOL    HW229617   9.424   1.134  10.115
 9260SOL     OW29618   1.577   5.719  11.298
 9260SOL    HW129619   1.549   5.790  11.240
 9260SOL    HW229620   1.640   5.669  11.246
 9261SOL     OW29621  13.672   9.450  11.313
 9261SOL    HW129622  13.743   9.386  11.321
 9261SOL    HW229623  13.605   9.420  11.375
 9262SOL     OW29624   8.912   1.868   4.061
 9262SOL    HW129625   8.975   1.795   4.063
 9262SOL    HW229626   8.966   1.946   4.068
 9263SOL     OW29627  10.278  13.833   5.412
 9263SOL    HW129628  10.336  13.757   5.424
 9263SOL    HW229629  10.191  13.801   5.435
 9264SOL     OW29630   9.808   5.317  12.753
 9264SOL    HW129631   9.726   5.357  12.781
 9264SOL    HW229632   9.876   5.363  12.802
 9265SOL     OW29633   7.719   4.772  13.734
 9265SOL    HW129634   7.661   4.699  13.756
 9265SOL    HW229635   7.770   4.739  13.660
 9266SOL     OW29636   0.523   8.585   3.009
 9266SOL    HW129637   0.522   8.672   2.969
 9266SOL    HW229638   0.542   8.525   2.937
 9267SOL     OW29639   3.556   8.686   5.830
 9267SOL    HW129640   3.526   8.617   5.770
 9267SOL    HW229641   3.622   8.733   5.781
 9268SOL     OW29642   6.509   1.975   4.642
 9268SOL    HW129643   6.553   1.899   4.681
 9268SOL    HW229644   6.516   1.961   4.548
 9269SOL     OW29645   5.316   9.354  13.782
 9269SOL    HW129646   5.325   9.420  13.713
 9269SOL    HW229647   5.235   9.308  13.761
 9270SOL     OW29648   9.212  13.997  12.299
 9270SOL    HW129649   9.268  13.987  12.222
 9270SOL    HW229650   9.197  13.907  12.330
 9271SOL     OW29651   6.902   9.199   8.895
 9271SOL    HW129652   6.908   9.278   8.843
 9271SOL    HW229653   6.937   9.223   8.981
 9272SOL     OW29654   4.175   4.930  13.155
 9272SOL    HW129655   4.158   4.970  13.240
 9272SOL    HW229656   4.252   4.975  13.121
 9273SOL     OW29657  11.571   9.029   5.280
 9273SOL    HW129658  11.493   9.083   5.266
 9273SOL    HW229659  11.555   8.985   5.363
 9274SOL     OW29660   8.472  10.060   2.350
 9274SOL    HW129661   8.480  10.097   2.438
 9274SOL    HW229662   8.413  10.120   2.304
 9275SOL     OW29663   3.960   6.561   7.565
 9275SOL    HW129664   3.979   6.472   7.536
 9275SOL    HW229665   4.029   6.614   7.526
 9276SOL     OW29666   1.080   6.267  13.430
 9276SOL    HW129667   1.096   6.226  13.515
 9276SOL    HW229668   1.137   6.344  13.429
 9277SOL     OW29669   1.789   6.685   3.954
 9277SOL    HW129670   1.831   6.735   3.885
 9277SOL    HW229671   1.817   6.595   3.940
 9278SOL     OW29672   8.312   6.414   3.280
 9278SOL    HW129673   8.408   6.418   3.280
 9278SOL    HW229674   8.285   6.500   3.247
 9279SOL     OW29675  12.482  13.872  12.130
 9279SOL    HW129676  12.484  13.778  12.148
 9279SOL    HW229677  12.446  13.911  12.210
 9280SOL     OW29678   8.500   8.899   2.523
 9280SOL    HW129679   8.415   8.904   2.567
 9280SOL    HW229680   8.558   8.859   2.588
 9281SOL     OW29681   9.099   5.020   3.719
 9281SOL    HW129682   9.012   4.981   3.716
 9281SOL    HW229683   9.136   5.004   3.633
 9282SOL     OW29684  14.293  12.747   0.184
 9282SOL    HW129685  14.279  12.765   0.277
 9282SOL    HW229686  14.385  12.769   0.168
 9283SOL     OW29687   9.774  12.039   6.228
 9283SOL    HW129688   9.831  11.980   6.178
 9283SOL    HW229689   9.737  11.984   6.297
 9284SOL     OW29690  12.012   4.442   4.146
 9284SOL    HW129691  11.934   4.433   4.092
 9284SOL    HW229692  12.044   4.530   4.129
 9285SOL     OW29693  12.259   1.669   9.682
 9285SOL    HW129694  12.282   1.659   9.774
 9285SOL    HW229695  12.172   1.630   9.675
 9286SOL     OW29696   8.461   0.989   0.409
 9286SOL    HW129697   8.452   0.898   0.381
 9286SOL    HW229698   8.555   1.005   0.409
 9287SOL     OW29699   9.405  13.859   9.899
 9287SOL    HW129700   9.479  13.800   9.908
 9287SOL    HW229701   9.328  13.803   9.913
 9288SOL     OW29702  10.638   4.567   1.713
 9288SOL    HW129703  10.661   4.627   1.642
 9288SOL    HW229704  10.557   4.525   1.684
 9289SOL     OW29705   6.098   6.884   2.372
 9289SOL    HW129706   6.003   6.891   2.361
 9289SOL    HW229707   6.132   6.883   2.282
 9290SOL     OW29708   9.855   9.089   1.332
 9290SOL    HW129709   9.857   9.031   1.257
 9290SOL    HW229710   9.799   9.162   1.305
 9291SOL     OW29711  10.707   9.089  13.166
 9291SOL    HW129712  10.725   9.122  13.254
 9291SOL    HW229713  10.760   9.143  13.108
 9292SOL     OW29714   4.559   9.688   3.488
 9292SOL    HW129715   4.506   9.693   3.408
 9292SOL    HW229716   4.616   9.612   3.474
 9293SOL     OW29717   7.215   6.969   2.257
 9293SOL    HW129718   7.300   7.012   2.242
 9293SOL    HW229719   7.171   6.973   2.172
 9294SOL     OW29720   5.272   6.955   0.389
 9294SOL    HW129721   5.190   6.985   0.348
 9294SOL    HW229722   5.283   6.866   0.358
 9295SOL     OW29723   8.562   9.205   0.265
 9295SOL    HW129724   8.546   9.250   0.182
 9295SOL    HW229725   8.535   9.267   0.332
 9296SOL     OW29726   8.658   6.114   2.417
 9296SOL    HW129727   8.569   6.125   2.385
 9296SOL    HW229728   8.674   6.192   2.470
 9297SOL     OW29729   3.976   0.656  12.610
 9297SOL    HW129730   3.892   0.675  12.653
 9297SOL    HW229731   4.035   0.725  12.641
 9298SOL     OW29732  13.668  12.413   6.737
 9298SOL    HW129733  13.688  12.319   6.737
 9298SOL    HW229734  13.654  12.435   6.829
 9299SOL     OW29735  13.929   4.476   8.112
 9299SOL    HW129736  13.874   4.476   8.033
 9299SOL    HW229737  14.017   4.454   8.080
 9300SOL     OW29738   5.937  13.644  13.160
 9300SOL    HW129739   6.031  13.632  13.171
 9300SOL    HW229740   5.925  13.656  13.066
 9301SOL     OW29741   8.588   8.167  11.045
 9301SOL    HW129742   8.669   8.206  11.012
 9301SOL    HW229743   8.548   8.235  11.099
 9302SOL     OW29744   8.868   1.046   4.534
 9302SOL    HW129745   8.948   1.072   4.488
 9302SOL    HW229746   8.799   1.097   4.492
 9303SOL     OW29747   6.591   3.591  10.656
 9303SOL    HW129748   6.681   3.566  10.634
 9303SOL    HW229749   6.599   3.634  10.741
 9304SOL     OW29750   1.819  10.348   3.781
 9304SOL    HW129751   1.827  10.441   3.802
 9304SOL    HW229752   1.810  10.305   3.866
 9305SOL     OW29753   9.124  11.354  12.270
 9305SOL    HW129754   9.165  11.440  12.277
 9305SOL    HW229755   9.158  11.318  12.187
 9306SOL     OW29756   9.250   8.652   1.832
 9306SOL    HW129757   9.320   8.674   1.893
 9306SOL    HW229758   9.175   8.702   1.863
 9307SOL     OW29759  10.843   1.472   2.268
 9307SOL    HW129760  10.836   1.402   2.203
 9307SOL    HW229761  10.758   1.472   2.312
 9308SOL     OW29762   0.441  13.526   7.013
 9308SOL    HW129763   0.349  13.502   7.002
 9308SOL    HW229764   0.440  13.621   7.024
 9309SOL     OW29765  12.916   0.015  10.314
 9309SOL    HW129766  12.988  14.835  10.287
 9309SOL    HW229767  12.958   0.086  10.363
 9310SOL     OW29768   4.113   6.940   1.081
 9310SOL    HW129769   4.121   6.891   1.163
 9310SOL    HW229770   4.026   6.979   1.084
 9311SOL     OW29771   0.722  11.447   7.793
 9311SOL    HW129772   0.770  11.365   7.782
 9311SOL    HW229773   0.636  11.420   7.827
 9312SOL     OW29774  10.954   9.435   6.329
 9312SOL    HW129775  10.976   9.515   6.377
 9312SOL    HW229776  11.027   9.423   6.268
 9313SOL     OW29777  10.553   7.146  10.417
 9313SOL    HW129778  10.617   7.177  10.481
 9313SOL    HW229779  10.544   7.219  10.355
 9314SOL     OW29780   7.288   4.452   6.538
 9314SOL    HW129781   7.346   4.526   6.554
 9314SOL    HW229782   7.201   4.482   6.566
 9315SOL     OW29783   2.053   8.445   6.419
 9315SOL    HW129784   2.140   8.484   6.417
 9315SOL    HW229785   2.060   8.367   6.364
 9316SOL     OW29786  11.689   0.014   6.761
 9316SOL    HW129787  11.725   0.089   6.808
 9316SOL    HW229788  11.749  14.819   6.781
 9317SOL     OW29789  14.661   7.839  14.576
 9317SOL    HW129790  14.706   7.888  14.645
 9317SOL    HW229791  14.700   7.871  14.494
 9318SOL     OW29792  13.948   4.559   9.998
 9318SOL    HW129793  13.895   4.482  10.020
 9318SOL    HW229794  14.032   4.543  10.041
 9319SOL     OW29795  10.151  12.525   8.394
 9319SOL    HW129796  10.151  12.438   8.355
 9319SOL    HW229797  10.191  12.581   8.328
 9320SOL     OW29798   8.690  13.000   9.010
 9320SOL    HW129799   8.728  12.914   8.992
 9320SOL    HW229800   8.738  13.059   8.952
 9321SOL     OW29801   8.963   4.277  13.003
 9321SOL    HW129802   8.929   4.292  13.091
 9321SOL    HW229803   9.019   4.352  12.985
 9322SOL     OW29804   5.959  11.249   4.450
 9322SOL    HW129805   6.005  11.221   4.371
 9322SOL    HW229806   5.944  11.169   4.499
 9323SOL     OW29807   7.466  11.680   9.903
 9323SOL    HW129808   7.536  11.738   9.874
 9323SOL    HW229809   7.477  11.675   9.998
 9324SOL     OW29810   9.161   5.896  11.946
 9324SOL    HW129811   9.146   5.959  11.876
 9324SOL    HW229812   9.090   5.912  12.009
 9325SOL     OW29813  10.263  11.127   3.128
 9325SOL    HW129814  10.287  11.037   3.103
 9325SOL    HW229815  10.218  11.117   3.212
 9326SOL     OW29816   8.885   4.423  10.837
 9326SOL    HW129817   8.860   4.424  10.745
 9326SOL    HW229818   8.802   4.428  10.884
 9327SOL     OW29819   3.634   4.565  14.395
 9327SOL    HW129820   3.647   4.482  14.442
 9327SOL    HW229821   3.705   4.621  14.427
 9328SOL     OW29822  13.027   6.298   8.275
 9328SOL    HW129823  13.050   6.357   8.347
 9328SOL    HW229824  12.957   6.345   8.228
 9329SOL     OW29825  11.463   5.806   4.344
 9329SOL    HW129826  11.474   5.821   4.250
 9329SOL    HW229827  11.438   5.891   4.379
 9330SOL     OW29828   7.930   4.748   4.106
 9330SOL    HW129829   7.854   4.742   4.048
 9330SOL    HW229830   7.963   4.837   4.092
 9331SOL     OW29831   7.806   3.635   7.970
 9331SOL    HW129832   7.851   3.577   7.909
 9331SOL    HW229833   7.864   3.639   8.046
 9332SOL     OW29834  14.619   1.909   6.416
 9332SOL    HW129835  14.699   1.871   6.380
 9332SOL    HW229836  14.559   1.835   6.424
 9333SOL     OW29837  12.369  14.444   3.083
 9333SOL    HW129838  12.405  14.508   3.144
 9333SOL    HW229839  12.441  14.422   3.025
 9334SOL     OW29840  11.533  14.270   0.319
 9334SOL    HW129841  11.572  14.332   0.258
 9334SOL    HW229842  11.490  14.325   0.385
 9335SOL     OW29843  13.669   1.862  14.445
 9335SOL    HW129844  13.595   1.895  14.497
 9335SOL    HW229845  13.707   1.940  14.405
 9336SOL     OW29846   2.094  10.260   1.168
 9336SOL    HW129847   2.182  10.235   1.140
 9336SOL    HW229848   2.101  10.353   1.188
 9337SOL     OW29849   1.923   3.613   1.145
 9337SOL    HW129850   1.981   3.686   1.123
 9337SOL    HW229851   1.852   3.654   1.196
 9338SOL     OW29852   8.043  14.172   1.009
 9338SOL    HW129853   8.136  14.190   1.020
 9338SOL    HW229854   8.039  14.081   0.982
 9339SOL     OW29855  10.223   2.354   1.867
 9339SOL    HW129856  10.228   2.378   1.774
 9339SOL    HW229857  10.254   2.431   1.914
 9340SOL     OW29858   2.749   2.615   9.393
 9340SOL    HW129859   2.691   2.540   9.382
 9340SOL    HW229860   2.835   2.582   9.364
 9341SOL     OW29861   7.530  14.136   4.029
 9341SOL    HW129862   7.531  14.087   4.111
 9341SOL    HW229863   7.564  14.075   3.964
 9342SOL     OW29864   9.780   9.945   6.059
 9342SOL    HW129865   9.812   9.857   6.037
 9342SOL    HW229866   9.831   9.970   6.137
 9343SOL     OW29867   7.301  10.917   6.558
 9343SOL    HW129868   7.305  10.966   6.476
 9343SOL    HW229869   7.392  10.892   6.576
 9344SOL     OW29870  13.516   5.505   9.634
 9344SOL    HW129871  13.450   5.479   9.698
 9344SOL    HW229872  13.573   5.428   9.627
 9345SOL     OW29873   4.969   6.861  14.305
 9345SOL    HW129874   4.888   6.826  14.268
 9345SOL    HW229875   4.986   6.806  14.381
 9346SOL     OW29876  14.129   8.203  13.233
 9346SOL    HW129877  14.188   8.133  13.262
 9346SOL    HW229878  14.085   8.232  13.313
 9347SOL     OW29879   1.473   1.785   2.141
 9347SOL    HW129880   1.431   1.871   2.129
 9347SOL    HW229881   1.423   1.743   2.210
 9348SOL     OW29882   5.505   1.683   3.956
 9348SOL    HW129883   5.590   1.685   3.912
 9348SOL    HW229884   5.441   1.690   3.886
 9349SOL     OW29885  12.968   3.119   5.850
 9349SOL    HW129886  12.899   3.182   5.829
 9349SOL    HW229887  13.004   3.094   5.765
 9350SOL     OW29888  10.503   0.231  12.670
 9350SOL    HW129889  10.463   0.149  12.700
 9350SOL    HW229890  10.458   0.251  12.588
 9351SOL     OW29891   9.014   8.336  12.259
 9351SOL    HW129892   9.043   8.399  12.325
 9351SOL    HW229893   8.940   8.291  12.300
 9352SOL     OW29894   9.158  14.425  12.242
 9352SOL    HW129895   9.165  14.515  12.272
 9352SOL    HW229896   9.077  14.393  12.281
 9353SOL     OW29897   6.245   6.331   5.186
 9353SOL    HW129898   6.212   6.244   5.163
 9353SOL    HW229899   6.176   6.391   5.157
 9354SOL     OW29900  13.478  11.113  11.311
 9354SOL    HW129901  13.489  11.142  11.221
 9354SOL    HW229902  13.401  11.162  11.342
 9355SOL     OW29903   5.809   6.270   8.872
 9355SOL    HW129904   5.792   6.222   8.953
 9355SOL    HW229905   5.888   6.229   8.836
 9356SOL     OW29906  13.310  14.657  11.473
 9356SOL    HW129907  13.318  14.744  11.434
 9356SOL    HW229908  13.343  14.667  11.562
 9357SOL     OW29909  11.535   7.316  12.418
 9357SOL    HW129910  11.627   7.296  12.430
 9357SOL    HW229911  11.490   7.264  12.486
 9358SOL     OW29912   2.743   1.760  14.222
 9358SOL    HW129913   2.744   1.704  14.300
 9358SOL    HW229914   2.831   1.754  14.187
 9359SOL     OW29915   0.679  11.502   7.265
 9359SOL    HW129916   0.596  11.520   7.223
 9359SOL    HW229917   0.662  11.515   7.358
 9360SOL     OW29918   6.490   2.834   8.646
 9360SOL    HW129919   6.503   2.928   8.660
 9360SOL    HW229920   6.514   2.794   8.730
 9361SOL     OW29921  12.284  13.773  11.513
 9361SOL    HW129922  12.356  13.712  11.497
 9361SOL    HW229923  12.205  13.724  11.490
 9362SOL     OW29924   8.034  13.876  11.566
 9362SOL    HW129925   7.941  13.857  11.561
 9362SOL    HW229926   8.065  13.871  11.475
 9363SOL     OW29927   1.702  12.646   7.641
 9363SOL    HW129928   1.663  12.577   7.588
 9363SOL    HW229929   1.730  12.603   7.722
 9364SOL     OW29930  11.058  13.802  13.902
 9364SOL    HW129931  11.019  13.828  13.819
 9364SOL    HW229932  10.994  13.744  13.942
 9365SOL     OW29933  12.323   5.908   0.983
 9365SOL    HW129934  12.351   5.913   1.074
 9365SOL    HW229935  12.363   5.828   0.949
 9366SOL     OW29936   2.555   0.055  11.599
 9366SOL    HW129937   2.514   0.070  11.514
 9366SOL    HW229938   2.649   0.069  11.583
 9367SOL     OW29939   5.204   5.682   0.375
 9367SOL    HW129940   5.219   5.774   0.357
 9367SOL    HW229941   5.208   5.640   0.289
 9368SOL     OW29942  13.388  11.409  12.047
 9368SOL    HW129943  13.419  11.339  12.104
 9368SOL    HW229944  13.358  11.364  11.968
 9369SOL     OW29945   6.000  14.566   0.644
 9369SOL    HW129946   6.088  14.531   0.661
 9369SOL    HW229947   5.982  14.543   0.553
 9370SOL     OW29948   5.017   0.210   3.184
 9370SOL    HW129949   4.928   0.199   3.219
 9370SOL    HW229950   5.012   0.173   3.096
 9371SOL     OW29951   0.270  14.157   2.423
 9371SOL    HW129952   0.262  14.075   2.373
 9371SOL    HW229953   0.332  14.209   2.373
 9372SOL     OW29954   9.946  14.240  12.663
 9372SOL    HW129955   9.909  14.169  12.610
 9372SOL    HW229956   9.974  14.198  12.744
 9373SOL     OW29957  12.906   3.799  11.695
 9373SOL    HW129958  12.924   3.712  11.729
 9373SOL    HW229959  12.988   3.847  11.708
 9374SOL     OW29960   0.477  13.163   6.259
 9374SOL    HW129961   0.560  13.181   6.303
 9374SOL    HW229962   0.448  13.079   6.296
 9375SOL     OW29963  11.826  11.914   1.029
 9375SOL    HW129964  11.862  11.916   0.941
 9375SOL    HW229965  11.744  11.964   1.023
 9376SOL     OW29966  10.608   8.196  14.545
 9376SOL    HW129967  10.610   8.115  14.493
 9376SOL    HW229968  10.523   8.235  14.526
 9377SOL     OW29969   1.762  12.367   6.275
 9377SOL    HW129970   1.699  12.359   6.203
 9377SOL    HW229971   1.730  12.442   6.326
 9378SOL     OW29972  10.730   2.556   8.023
 9378SOL    HW129973  10.668   2.581   8.093
 9378SOL    HW229974  10.781   2.485   8.061
 9379SOL     OW29975  11.489   4.556   3.598
 9379SOL    HW129976  11.491   4.460   3.602
 9379SOL    HW229977  11.460   4.575   3.509
 9380SOL     OW29978  12.691   8.479  12.690
 9380SOL    HW129979  12.705   8.384  12.684
 9380SOL    HW229980  12.758   8.516  12.633
 9381SOL     OW29981   5.162   7.938   0.486
 9381SOL    HW129982   5.166   7.916   0.393
 9381SOL    HW229983   5.242   7.989   0.502
 9382SOL     OW29984   4.100  13.719   3.745
 9382SOL    HW129985   4.101  13.758   3.832
 9382SOL    HW229986   4.167  13.651   3.748
 9383SOL     OW29987   3.513  10.101   8.004
 9383SOL    HW129988   3.510  10.195   8.017
 9383SOL    HW229989   3.596  10.085   7.959
 9384SOL     OW29990   9.900   3.011   7.785
 9384SOL    HW129991   9.856   2.951   7.725
 9384SOL    HW229992   9.952   3.068   7.728
 9385SOL     OW29993   5.049   7.301   0.978
 9385SOL    HW129994   5.046   7.253   1.062
 9385SOL    HW229995   4.987   7.373   0.990
 9386SOL     OW29996  14.433   5.153  10.426
 9386SOL    HW129997  14.447   5.058  10.431
 9386SOL    HW229998  14.409   5.168  10.334
 9387SOL     OW29999   0.421   0.363  12.835
 9387SOL    HW130000   0.466   0.279  12.826
 9387SOL    HW230001   0.478   0.415  12.892
 9388SOL     OW30002  13.553   1.598   6.573
 9388SOL    HW130003  13.468   1.628   6.604
 9388SOL    HW230004  13.592   1.554   6.648
 9389SOL     OW30005  13.588   1.202   4.188
 9389SOL    HW130006  13.645   1.277   4.171
 9389SOL    HW230007  13.608   1.139   4.119
 9390SOL     OW30008  14.704   5.655   3.782
 9390SOL    HW130009  14.695   5.621   3.693
 9390SOL    HW230010  14.755   5.736   3.771
 9391SOL     OW30011   6.572   6.353   5.749
 9391SOL    HW130012   6.495   6.323   5.700
 9391SOL    HW230013   6.539   6.371   5.837
 9392SOL     OW30014   6.846  10.976  10.591
 9392SOL    HW130015   6.829  10.963  10.685
 9392SOL    HW230016   6.923  11.033  10.588
 9393SOL     OW30017   0.136   8.440  13.850
 9393SOL    HW130018   0.101   8.500  13.916
 9393SOL    HW230019   0.083   8.457  13.772
 9394SOL     OW30020   5.595  10.142   7.000
 9394SOL    HW130021   5.612  10.164   7.092
 9394SOL    HW230022   5.547  10.059   7.005
 9395SOL     OW30023  11.761  14.044   2.000
 9395SOL    HW130024  11.789  14.129   1.965
 9395SOL    HW230025  11.761  14.056   2.095
 9396SOL     OW30026   5.270   6.040  10.852
 9396SOL    HW130027   5.225   6.019  10.770
 9396SOL    HW230028   5.227   6.120  10.883
 9397SOL     OW30029   9.356   1.634   0.321
 9397SOL    HW130030   9.359   1.547   0.281
 9397SOL    HW230031   9.387   1.692   0.252
 9398SOL     OW30032   9.437   9.668  13.359
 9398SOL    HW130033   9.440   9.688  13.266
 9398SOL    HW230034   9.355   9.708  13.389
 9399SOL     OW30035   6.958   7.244   1.837
 9399SOL    HW130036   6.961   7.322   1.892
 9399SOL    HW230037   7.029   7.256   1.774
 9400SOL     OW30038   0.002  10.775  11.811
 9400SOL    HW130039   0.001  10.822  11.894
 9400SOL    HW230040   0.005  10.683  11.835
 9401SOL     OW30041   5.702   7.877  12.894
 9401SOL    HW130042   5.740   7.957  12.931
 9401SOL    HW230043   5.624   7.908  12.848
 9402SOL     OW30044   8.769   6.287   5.140
 9402SOL    HW130045   8.793   6.336   5.062
 9402SOL    HW230046   8.674   6.279   5.136
 9403SOL     OW30047   5.715   7.495   3.563
 9403SOL    HW130048   5.730   7.438   3.489
 9403SOL    HW230049   5.751   7.580   3.536
 9404SOL     OW30050   1.638   3.564   7.154
 9404SOL    HW130051   1.693   3.601   7.222
 9404SOL    HW230052   1.597   3.639   7.112
 9405SOL     OW30053   6.820   5.713  13.504
 9405SOL    HW130054   6.858   5.772  13.569
 9405SOL    HW230055   6.883   5.713  13.432
 9406SOL     OW30056  10.351   5.442   3.192
 9406SOL    HW130057  10.321   5.375   3.254
 9406SOL    HW230058  10.441   5.461   3.219
 9407SOL     OW30059  11.005   3.659   5.916
 9407SOL    HW130060  10.923   3.658   5.964
 9407SOL    HW230061  11.069   3.698   5.977
 9408SOL     OW30062   4.681  13.737   2.723
 9408SOL    HW130063   4.623  13.776   2.658
 9408SOL    HW230064   4.765  13.729   2.679
 9409SOL     OW30065   2.201  11.595   7.126
 9409SOL    HW130066   2.194  11.541   7.047
 9409SOL    HW230067   2.282  11.565   7.168
 9410SOL     OW30068   0.592  13.073  14.033
 9410SOL    HW130069   0.498  13.089  14.037
 9410SOL    HW230070   0.631  13.160  14.039
 9411SOL     OW30071   1.907   4.156  11.327
 9411SOL    HW130072   1.848   4.204  11.385
 9411SOL    HW230073   1.890   4.192  11.240
 9412SOL     OW30074   2.084   8.298  14.171
 9412SOL    HW130075   2.156   8.265  14.224
 9412SOL    HW230076   2.044   8.219  14.133
 9413SOL     OW30077   5.726  12.678   3.948
 9413SOL    HW130078   5.682  12.763   3.954
 9413SOL    HW230079   5.790  12.679   4.019
 9414SOL     OW30080  10.556  13.934  14.122
 9414SOL    HW130081  10.518  13.996  14.185
 9414SOL    HW230082  10.648  13.930  14.145
 9415SOL     OW30083   2.056  12.906   8.114
 9415SOL    HW130084   1.970  12.945   8.124
 9415SOL    HW230085   2.103  12.929   8.194
 9416SOL     OW30086  12.046  11.199   2.154
 9416SOL    HW130087  12.092  11.258   2.215
 9416SOL    HW230088  11.959  11.189   2.192
 9417SOL     OW30089  13.935   1.675   4.790
 9417SOL    HW130090  13.880   1.601   4.763
 9417SOL    HW230091  14.023   1.650   4.764
 9418SOL     OW30092   6.618   0.546   2.869
 9418SOL    HW130093   6.629   0.451   2.861
 9418SOL    HW230094   6.549   0.568   2.807
 9419SOL     OW30095  12.228   5.564  12.788
 9419SOL    HW130096  12.156   5.511  12.752
 9419SOL    HW230097  12.235   5.638  12.728
 9420SOL     OW30098   0.927   6.235   6.499
 9420SOL    HW130099   0.907   6.290   6.574
 9420SOL    HW230100   0.917   6.146   6.531
 9421SOL     OW30101   6.166   6.061   2.288
 9421SOL    HW130102   6.137   6.132   2.231
 9421SOL    HW230103   6.193   6.105   2.368
 9422SOL     OW30104   5.627  14.322   8.882
 9422SOL    HW130105   5.645  14.322   8.788
 9422SOL    HW230106   5.588  14.237   8.900
 9423SOL     OW30107   4.272   9.339  11.952
 9423SOL    HW130108   4.322   9.284  12.012
 9423SOL    HW230109   4.224   9.277  11.897
 9424SOL     OW30110   3.843   3.715   2.510
 9424SOL    HW130111   3.834   3.807   2.486
 9424SOL    HW230112   3.909   3.713   2.579
 9425SOL     OW30113   8.227  12.512   3.425
 9425SOL    HW130114   8.191  12.556   3.348
 9425SOL    HW230115   8.166  12.440   3.442
 9426SOL     OW30116   9.798  14.041  12.530
 9426SOL    HW130117   9.747  14.078  12.457
 9426SOL    HW230118   9.736  13.984  12.575
 9427SOL     OW30119  12.011   5.837   1.958
 9427SOL    HW130120  12.030   5.767   2.021
 9427SOL    HW230121  11.954   5.796   1.893
 9428SOL     OW30122  11.785   1.060   9.639
 9428SOL    HW130123  11.877   1.083   9.647
 9428SOL    HW230124  11.742   1.104   9.713
 9429SOL     OW30125   7.160  13.698  10.338
 9429SOL    HW130126   7.094  13.767  10.343
 9429SOL    HW230127   7.164  13.676  10.245
 9430SOL     OW30128  11.137   5.310   3.781
 9430SOL    HW130129  11.194   5.251   3.732
 9430SOL    HW230130  11.123   5.265   3.864
 9431SOL     OW30131   0.484   4.137   4.935
 9431SOL    HW130132   0.432   4.098   5.006
 9431SOL    HW230133   0.573   4.104   4.950
 9432SOL     OW30134   7.204   8.688   5.618
 9432SOL    HW130135   7.146   8.758   5.648
 9432SOL    HW230136   7.215   8.632   5.695
 9433SOL     OW30137   3.068   1.635   1.709
 9433SOL    HW130138   3.125   1.599   1.777
 9433SOL    HW230139   3.032   1.715   1.749
 9434SOL     OW30140  11.105  12.684   8.564
 9434SOL    HW130141  11.028  12.740   8.561
 9434SOL    HW230142  11.171  12.729   8.511
 9435SOL     OW30143  14.646  12.690   2.912
 9435SOL    HW130144  14.586  12.690   2.838
 9435SOL    HW230145  14.725  12.733   2.879
 9436SOL     OW30146   7.481  13.845   1.247
 9436SOL    HW130147   7.424  13.771   1.228
 9436SOL    HW230148   7.423  13.920   1.253
 9437SOL     OW30149   9.975   5.380   6.247
 9437SOL    HW130150  10.020   5.381   6.331
 9437SOL    HW230151   9.882   5.374   6.269
 9438SOL     OW30152   9.842  13.771   0.730
 9438SOL    HW130153   9.800  13.724   0.657
 9438SOL    HW230154   9.841  13.709   0.802
 9439SOL     OW30155   7.576  10.045   0.182
 9439SOL    HW130156   7.553   9.995   0.260
 9439SOL    HW230157   7.501  10.035   0.124
 9440SOL     OW30158   7.297   5.279   6.083
 9440SOL    HW130159   7.258   5.298   5.997
 9440SOL    HW230160   7.272   5.189   6.101
 9441SOL     OW30161  13.308   7.276   4.884
 9441SOL    HW130162  13.277   7.257   4.973
 9441SOL    HW230163  13.282   7.200   4.832
 9442SOL     OW30164   3.298   2.711   3.413
 9442SOL    HW130165   3.247   2.649   3.465
 9442SOL    HW230166   3.364   2.657   3.369
 9443SOL     OW30167   6.716   7.602  12.734
 9443SOL    HW130168   6.668   7.548  12.671
 9443SOL    HW230169   6.657   7.674  12.754
 9444SOL     OW30170   8.233   3.929  11.102
 9444SOL    HW130171   8.143   3.958  11.109
 9444SOL    HW230172   8.248   3.915  11.008
 9445SOL     OW30173   7.851   4.673  12.500
 9445SOL    HW130174   7.784   4.742  12.498
 9445SOL    HW230175   7.802   4.591  12.504
 9446SOL     OW30176   6.504   0.050   2.587
 9446SOL    HW130177   6.439   0.121   2.588
 9446SOL    HW230178   6.499   0.015   2.498
 9447SOL     OW30179  10.170  13.731   7.963
 9447SOL    HW130180  10.194  13.804   8.020
 9447SOL    HW230181  10.101  13.685   8.011
 9448SOL     OW30182   7.113   2.372   5.961
 9448SOL    HW130183   7.120   2.280   5.989
 9448SOL    HW230184   7.186   2.416   6.005
 9449SOL     OW30185  13.031   4.352   4.806
 9449SOL    HW130186  13.006   4.260   4.808
 9449SOL    HW230187  13.094   4.362   4.878
 9450SOL     OW30188  11.283  12.831  14.711
 9450SOL    HW130189  11.246  12.756  14.664
 9450SOL    HW230190  11.280  12.806  14.803
 9451SOL     OW30191   9.613   1.240  12.127
 9451SOL    HW130192   9.559   1.180  12.180
 9451SOL    HW230193   9.586   1.223  12.037
 9452SOL     OW30194   5.237   3.389  10.891
 9452SOL    HW130195   5.262   3.481  10.881
 9452SOL    HW230196   5.164   3.377  10.831
 9453SOL     OW30197  14.539   5.113   0.656
 9453SOL    HW130198  14.612   5.051   0.648
 9453SOL    HW230199  14.473   5.065   0.707
 9454SOL     OW30200   7.517   2.768   9.029
 9454SOL    HW130201   7.572   2.836   8.989
 9454SOL    HW230202   7.494   2.804   9.115
 9455SOL     OW30203  13.010   0.841   6.523
 9455SOL    HW130204  13.016   0.936   6.521
 9455SOL    HW230205  12.918   0.822   6.507
 9456SOL     OW30206  10.196   3.615   4.400
 9456SOL    HW130207  10.287   3.632   4.424
 9456SOL    HW230208  10.202   3.550   4.330
 9457SOL     OW30209   1.347  10.234   9.885
 9457SOL    HW130210   1.406  10.309   9.885
 9457SOL    HW230211   1.260  10.272   9.876
 9458SOL     OW30212   4.569   0.434  10.419
 9458SOL    HW130213   4.616   0.378  10.358
 9458SOL    HW230214   4.634   0.461  10.483
 9459SOL     OW30215  11.953   8.889  10.098
 9459SOL    HW130216  12.048   8.896  10.111
 9459SOL    HW230217  11.915   8.938  10.171
 9460SOL     OW30218   7.706  14.375   2.142
 9460SOL    HW130219   7.616  14.381   2.174
 9460SOL    HW230220   7.720  14.456   2.093
 9461SOL     OW30221   7.028   0.227   9.440
 9461SOL    HW130222   7.000   0.194   9.354
 9461SOL    HW230223   6.952   0.277   9.472
 9462SOL     OW30224  10.502   8.640   9.638
 9462SOL    HW130225  10.544   8.687   9.567
 9462SOL    HW230226  10.510   8.697   9.714
 9463SOL     OW30227  10.694  10.399   4.624
 9463SOL    HW130228  10.686  10.467   4.691
 9463SOL    HW230229  10.788  10.395   4.605
 9464SOL     OW30230  12.663   8.442   1.846
 9464SOL    HW130231  12.734   8.431   1.783
 9464SOL    HW230232  12.646   8.537   1.847
 9465SOL     OW30233   3.731   7.070  11.807
 9465SOL    HW130234   3.670   7.136  11.776
 9465SOL    HW230235   3.816   7.098  11.774
 9466SOL     OW30236  11.937   5.594  11.590
 9466SOL    HW130237  11.868   5.603  11.525
 9466SOL    HW230238  11.947   5.500  11.602
 9467SOL     OW30239   3.743  14.039   5.450
 9467SOL    HW130240   3.717  14.121   5.493
 9467SOL    HW230241   3.711  13.971   5.509
 9468SOL     OW30242   0.819  11.073   9.954
 9468SOL    HW130243   0.908  11.050   9.980
 9468SOL    HW230244   0.798  11.013   9.883
 9469SOL     OW30245  10.598   4.086   1.333
 9469SOL    HW130246  10.645   4.154   1.382
 9469SOL    HW230247  10.564   4.027   1.400
 9470SOL     OW30248   1.165  13.895   0.189
 9470SOL    HW130249   1.178  13.812   0.235
 9470SOL    HW230250   1.082  13.929   0.223
 9471SOL     OW30251   4.512  13.553   6.540
 9471SOL    HW130252   4.511  13.600   6.456
 9471SOL    HW230253   4.604  13.556   6.568
 9472SOL     OW30254   0.796   5.097   6.818
 9472SOL    HW130255   0.879   5.139   6.840
 9472SOL    HW230256   0.745   5.166   6.774
 9473SOL     OW30257   1.677  14.199   5.612
 9473SOL    HW130258   1.607  14.265   5.607
 9473SOL    HW230259   1.709  14.205   5.702
 9474SOL     OW30260   4.303  13.322   5.720
 9474SOL    HW130261   4.277  13.402   5.764
 9474SOL    HW230262   4.349  13.271   5.787
 9475SOL     OW30263   4.132   0.364   6.489
 9475SOL    HW130264   4.218   0.372   6.531
 9475SOL    HW230265   4.152   0.345   6.398
 9476SOL     OW30266   4.444  14.337  13.773
 9476SOL    HW130267   4.447  14.416  13.827
 9476SOL    HW230268   4.362  14.294  13.797
 9477SOL     OW30269  10.888  12.228  14.273
 9477SOL    HW130270  10.973  12.184  14.276
 9477SOL    HW230271  10.890  12.279  14.193
 9478SOL     OW30272  13.079  11.992   2.199
 9478SOL    HW130273  13.070  12.066   2.259
 9478SOL    HW230274  13.119  11.923   2.253
 9479SOL     OW30275   1.475   1.209   7.065
 9479SOL    HW130276   1.398   1.265   7.052
 9479SOL    HW230277   1.493   1.172   6.978
 9480SOL     OW30278   5.883  14.316  10.196
 9480SOL    HW130279   5.836  14.353  10.122
 9480SOL    HW230280   5.958  14.375  10.209
 9481SOL     OW30281   5.067   0.382   3.760
 9481SOL    HW130282   5.016   0.311   3.719
 9481SOL    HW230283   5.064   0.454   3.696
 9482SOL     OW30284   2.902   2.399  14.661
 9482SOL    HW130285   2.865   2.311  14.657
 9482SOL    HW230286   2.892   2.425  14.752
 9483SOL     OW30287  11.526   1.436   7.029
 9483SOL    HW130288  11.489   1.520   7.002
 9483SOL    HW230289  11.453   1.374   7.026
 9484SOL     OW30290  12.498   9.409   6.846
 9484SOL    HW130291  12.454   9.480   6.894
 9484SOL    HW230292  12.573   9.452   6.804
 9485SOL     OW30293  11.389  13.405   3.859
 9485SOL    HW130294  11.314  13.353   3.888
 9485SOL    HW230295  11.357  13.496   3.858
 9486SOL     OW30296   0.824  10.278   0.367
 9486SOL    HW130297   0.742  10.328   0.368
 9486SOL    HW230298   0.811  10.212   0.299
 9487SOL     OW30299   7.621  10.188  14.666
 9487SOL    HW130300   7.684  10.128  14.624
 9487SOL    HW230301   7.551  10.132  14.697
 9488SOL     OW30302   9.257   6.295  11.648
 9488SOL    HW130303   9.252   6.235  11.574
 9488SOL    HW230304   9.338   6.272  11.692
 9489SOL     OW30305   6.588   6.245  12.490
 9489SOL    HW130306   6.536   6.258  12.570
 9489SOL    HW230307   6.608   6.333  12.459
 9490SOL     OW30308  11.265   8.988   0.349
 9490SOL    HW130309  11.315   8.940   0.282
 9490SOL    HW230310  11.327   9.051   0.384
 9491SOL     OW30311  11.990  12.500   6.014
 9491SOL    HW130312  12.015  12.538   5.930
 9491SOL    HW230313  11.901  12.467   6.000
 9492SOL     OW30314  13.215   5.555   1.361
 9492SOL    HW130315  13.174   5.519   1.440
 9492SOL    HW230316  13.251   5.478   1.316
 9493SOL     OW30317   1.116   3.500   4.959
 9493SOL    HW130318   1.025   3.527   4.974
 9493SOL    HW230319   1.163   3.582   4.946
 9494SOL     OW30320   4.316  14.002  12.737
 9494SOL    HW130321   4.232  13.971  12.771
 9494SOL    HW230322   4.322  14.093  12.768
 9495SOL     OW30323   2.272   3.390   7.573
 9495SOL    HW130324   2.243   3.401   7.663
 9495SOL    HW230325   2.304   3.476   7.547
 9496SOL     OW30326   9.983   4.800   5.456
 9496SOL    HW130327   9.912   4.808   5.519
 9496SOL    HW230328  10.043   4.737   5.495
 9497SOL     OW30329   6.190   1.583   7.293
 9497SOL    HW130330   6.273   1.547   7.261
 9497SOL    HW230331   6.156   1.517   7.353
 9498SOL     OW30332   3.864   3.784   5.293
 9498SOL    HW130333   3.870   3.842   5.218
 9498SOL    HW230334   3.952   3.784   5.331
 9499SOL     OW30335  13.248  12.525   5.810
 9499SOL    HW130336  13.203  12.609   5.802
 9499SOL    HW230337  13.232  12.482   5.726
 9500SOL     OW30338  10.516   9.994  11.591
 9500SOL    HW130339  10.525   9.963  11.681
 9500SOL    HW230340  10.462   9.927  11.548
 9501SOL     OW30341   9.431   1.411   7.828
 9501SOL    HW130342   9.427   1.322   7.864
 9501SOL    HW230343   9.350   1.452   7.857
 9502SOL     OW30344  14.742   5.102  14.326
 9502SOL    HW130345  14.728   5.066  14.238
 9502SOL    HW230346  14.831   5.137  14.324
 9503SOL     OW30347   6.311   5.327  10.259
 9503SOL    HW130348   6.406   5.322  10.264
 9503SOL    HW230349   6.286   5.262  10.193
 9504SOL     OW30350   7.401   8.759  11.718
 9504SOL    HW130351   7.459   8.688  11.691
 9504SOL    HW230352   7.460   8.824  11.758
 9505SOL     OW30353   6.245   9.650   9.472
 9505SOL    HW130354   6.290   9.663   9.388
 9505SOL    HW230355   6.199   9.567   9.463
 9506SOL     OW30356   2.585   9.556  14.584
 9506SOL    HW130357   2.507   9.575  14.636
 9506SOL    HW230358   2.617   9.642  14.556
 9507SOL     OW30359   2.777   3.703   6.410
 9507SOL    HW130360   2.848   3.674   6.353
 9507SOL    HW230361   2.784   3.647   6.487
 9508SOL     OW30362  13.615   0.262   4.402
 9508SOL    HW130363  13.645   0.178   4.366
 9508SOL    HW230364  13.675   0.326   4.364
 9509SOL     OW30365   5.404   2.156   6.900
 9509SOL    HW130366   5.373   2.105   6.974
 9509SOL    HW230367   5.475   2.210   6.935
 9510SOL     OW30368  13.657  14.144  12.792
 9510SOL    HW130369  13.681  14.141  12.699
 9510SOL    HW230370  13.623  14.057  12.812
 9511SOL     OW30371  14.316   9.921  11.461
 9511SOL    HW130372  14.230   9.905  11.499
 9511SOL    HW230373  14.371   9.850  11.493
 9512SOL     OW30374   4.549  11.129  12.519
 9512SOL    HW130375   4.563  11.208  12.467
 9512SOL    HW230376   4.520  11.163  12.604
 9513SOL     OW30377  10.704  10.199  13.990
 9513SOL    HW130378  10.754  10.270  14.031
 9513SOL    HW230379  10.699  10.224  13.897
 9514SOL     OW30380  11.294  13.124  10.096
 9514SOL    HW130381  11.326  13.106  10.008
 9514SOL    HW230382  11.246  13.045  10.121
 9515SOL     OW30383   9.043   0.936  14.250
 9515SOL    HW130384   9.087   0.893  14.176
 9515SOL    HW230385   9.070   0.885  14.327
 9516SOL     OW30386   2.419   5.636   8.874
 9516SOL    HW130387   2.338   5.650   8.924
 9516SOL    HW230388   2.471   5.714   8.890
 9517SOL     OW30389   2.109  13.937   3.154
 9517SOL    HW130390   2.154  13.874   3.210
 9517SOL    HW230391   2.101  13.893   3.069
 9518SOL     OW30392   1.571  14.391   9.462
 9518SOL    HW130393   1.562  14.456   9.392
 9518SOL    HW230394   1.599  14.311   9.417
 9519SOL     OW30395   0.317   5.847  14.101
 9519SOL    HW130396   0.254   5.915  14.076
 9519SOL    HW230397   0.343   5.807  14.018
 9520SOL     OW30398   7.656   2.411   6.702
 9520SOL    HW130399   7.622   2.500   6.695
 9520SOL    HW230400   7.645   2.388   6.795
 9521SOL     OW30401   4.389   1.997   8.941
 9521SOL    HW130402   4.431   1.925   8.894
 9521SOL    HW230403   4.305   2.008   8.897
 9522SOL     OW30404   2.482   5.277   3.659
 9522SOL    HW130405   2.438   5.281   3.744
 9522SOL    HW230406   2.527   5.192   3.660
 9523SOL     OW30407   6.550   4.879   4.841
 9523SOL    HW130408   6.538   4.927   4.758
 9523SOL    HW230409   6.583   4.945   4.902
 9524SOL     OW30410  10.859   6.422   7.428
 9524SOL    HW130411  10.766   6.435   7.450
 9524SOL    HW230412  10.867   6.327   7.416
 9525SOL     OW30413   9.362   5.164   1.261
 9525SOL    HW130414   9.359   5.255   1.231
 9525SOL    HW230415   9.299   5.118   1.205
 9526SOL     OW30416   9.941  10.998   8.175
 9526SOL    HW130417  10.000  10.969   8.244
 9526SOL    HW230418   9.862  10.944   8.186
 9527SOL     OW30419  11.376   3.443   7.370
 9527SOL    HW130420  11.451   3.424   7.427
 9527SOL    HW230421  11.300   3.414   7.421
 9528SOL     OW30422  12.060   2.016  13.864
 9528SOL    HW130423  11.984   2.052  13.819
 9528SOL    HW230424  12.048   1.921  13.859
 9529SOL     OW30425   6.746   2.722   5.783
 9529SOL    HW130426   6.681   2.786   5.812
 9529SOL    HW230427   6.830   2.759   5.809
 9530SOL     OW30428   0.154  12.886   4.490
 9530SOL    HW130429   0.204  12.958   4.452
 9530SOL    HW230430   0.198  12.807   4.460
 9531SOL     OW30431   7.633   8.498   9.707
 9531SOL    HW130432   7.723   8.517   9.678
 9531SOL    HW230433   7.636   8.408   9.738
 9532SOL     OW30434   4.851   8.066   8.564
 9532SOL    HW130435   4.890   8.066   8.476
 9532SOL    HW230436   4.922   8.039   8.622
 9533SOL     OW30437   0.903  12.269   0.046
 9533SOL    HW130438   0.817  12.264   0.005
 9533SOL    HW230439   0.954  12.327  14.866
 9534SOL     OW30440   4.224   7.937  10.546
 9534SOL    HW130441   4.263   7.926  10.459
 9534SOL    HW230442   4.277   7.884  10.604
 9535SOL     OW30443   6.220   1.792  10.370
 9535SOL    HW130444   6.261   1.830  10.292
 9535SOL    HW230445   6.137   1.839  10.378
 9536SOL     OW30446  11.784   9.758   8.664
 9536SOL    HW130447  11.724   9.820   8.705
 9536SOL    HW230448  11.736   9.725   8.588
 9537SOL     OW30449   2.906   2.932   3.116
 9537SOL    HW130450   2.960   2.957   3.191
 9537SOL    HW230451   2.937   2.845   3.092
 9538SOL     OW30452   7.814   1.052   9.396
 9538SOL    HW130453   7.854   1.138   9.383
 9538SOL    HW230454   7.828   1.032   9.488
 9539SOL     OW30455  14.707   2.852   2.556
 9539SOL    HW130456  14.683   2.892   2.472
 9539SOL    HW230457  14.648   2.776   2.563
 9540SOL     OW30458   2.460  12.635   4.879
 9540SOL    HW130459   2.402  12.583   4.935
 9540SOL    HW230460   2.473  12.580   4.801
 9541SOL     OW30461   6.507  14.125  10.322
 9541SOL    HW130462   6.443  14.153  10.387
 9541SOL    HW230463   6.461  14.059  10.270
 9542SOL     OW30464   6.225   9.872   5.957
 9542SOL    HW130465   6.136   9.893   5.929
 9542SOL    HW230466   6.217   9.784   5.995
 9543SOL     OW30467  13.388   4.922  14.516
 9543SOL    HW130468  13.477   4.887  14.521
 9543SOL    HW230469  13.397   5.002  14.464
 9544SOL     OW30470   9.983   6.134   8.592
 9544SOL    HW130471   9.943   6.188   8.523
 9544SOL    HW230472   9.930   6.152   8.670
 9545SOL     OW30473   3.428   6.240   2.535
 9545SOL    HW130474   3.503   6.243   2.476
 9545SOL    HW230475   3.352   6.248   2.478
 9546SOL     OW30476   2.513   8.195   0.935
 9546SOL    HW130477   2.579   8.133   0.964
 9546SOL    HW230478   2.472   8.153   0.859
 9547SOL     OW30479   0.415   1.114  12.048
 9547SOL    HW130480   0.405   1.090  12.140
 9547SOL    HW230481   0.507   1.136  12.039
 9548SOL     OW30482   6.895   1.199   8.391
 9548SOL    HW130483   6.865   1.110   8.406
 9548SOL    HW230484   6.842   1.253   8.450
 9549SOL     OW30485  13.397   6.463  13.361
 9549SOL    HW130486  13.454   6.534  13.330
 9549SOL    HW230487  13.347   6.503  13.432
 9550SOL     OW30488  10.805  13.423   9.916
 9550SOL    HW130489  10.849  13.507   9.901
 9550SOL    HW230490  10.774  13.428  10.006
 9551SOL     OW30491   4.372   4.173   0.111
 9551SOL    HW130492   4.355   4.131   0.195
 9551SOL    HW230493   4.430   4.112   0.066
 9552SOL     OW30494   1.455   9.598  11.256
 9552SOL    HW130495   1.472   9.534  11.324
 9552SOL    HW230496   1.516   9.670  11.273
 9553SOL     OW30497   8.380   0.203   4.272
 9553SOL    HW130498   8.409   0.154   4.349
 9553SOL    HW230499   8.291   0.232   4.294
 9554SOL     OW30500   3.570   3.635  10.097
 9554SOL    HW130501   3.500   3.685  10.054
 9554SOL    HW230502   3.650   3.664  10.054
 9555SOL     OW30503   5.267  13.386   8.953
 9555SOL    HW130504   5.192  13.338   8.988
 9555SOL    HW230505   5.315  13.415   9.031
 9556SOL     OW30506  10.449  13.045   5.149
 9556SOL    HW130507  10.539  13.073   5.130
 9556SOL    HW230508  10.407  13.041   5.063
 9557SOL     OW30509  10.165   8.105   2.528
 9557SOL    HW130510  10.078   8.131   2.557
 9557SOL    HW230511  10.158   8.011   2.513
 9558SOL     OW30512  12.353   3.486  10.367
 9558SOL    HW130513  12.395   3.419  10.314
 9558SOL    HW230514  12.274   3.510  10.318
 9559SOL     OW30515  10.983   3.632  11.536
 9559SOL    HW130516  11.038   3.710  11.525
 9559SOL    HW230517  10.901   3.654  11.492
 9560SOL     OW30518   5.330  11.660   3.820
 9560SOL    HW130519   5.341  11.633   3.729
 9560SOL    HW230520   5.380  11.597   3.871
 9561SOL     OW30521   5.411   3.181   5.706
 9561SOL    HW130522   5.367   3.228   5.777
 9561SOL    HW230523   5.453   3.106   5.748
 9562SOL     OW30524   4.532   1.781  10.530
 9562SOL    HW130525   4.546   1.721  10.456
 9562SOL    HW230526   4.510   1.723  10.603
 9563SOL     OW30527   1.141   4.598  13.358
 9563SOL    HW130528   1.197   4.521  13.360
 9563SOL    HW230529   1.092   4.590  13.276
 9564SOL     OW30530  10.625  12.223  11.730
 9564SOL    HW130531  10.703  12.175  11.703
 9564SOL    HW230532  10.599  12.273  11.652
 9565SOL     OW30533   9.433   1.166   7.999
 9565SOL    HW130534   9.456   1.092   8.056
 9565SOL    HW230535   9.414   1.125   7.914
 9566SOL     OW30536   8.962  13.803  11.839
 9566SOL    HW130537   8.965  13.876  11.901
 9566SOL    HW230538   8.922  13.839  11.760
 9567SOL     OW30539   5.490  10.268   7.960
 9567SOL    HW130540   5.564  10.318   7.996
 9567SOL    HW230541   5.413  10.314   7.990
 9568SOL     OW30542  11.003   2.111  14.556
 9568SOL    HW130543  10.968   2.085  14.472
 9568SOL    HW230544  10.928   2.148  14.603
 9569SOL     OW30545   3.269   2.972  12.627
 9569SOL    HW130546   3.200   3.038  12.627
 9569SOL    HW230547   3.223   2.889  12.618
 9570SOL     OW30548   6.435  12.705   3.267
 9570SOL    HW130549   6.397  12.767   3.205
 9570SOL    HW230550   6.525  12.733   3.277
 9571SOL     OW30551   2.751  11.784   6.384
 9571SOL    HW130552   2.674  11.733   6.358
 9571SOL    HW230553   2.775  11.833   6.305
 9572SOL     OW30554  10.938   6.672  13.877
 9572SOL    HW130555  11.002   6.740  13.897
 9572SOL    HW230556  10.978   6.591  13.906
 9573SOL     OW30557   2.002   4.404   0.665
 9573SOL    HW130558   1.916   4.430   0.699
 9573SOL    HW230559   2.061   4.414   0.739
 9574SOL     OW30560   2.669  10.875  12.147
 9574SOL    HW130561   2.686  10.814  12.075
 9574SOL    HW230562   2.579  10.905  12.132
 9575SOL     OW30563   1.120   3.069   3.798
 9575SOL    HW130564   1.178   3.031   3.864
 9575SOL    HW230565   1.038   3.020   3.807
 9576SOL     OW30566   7.288  13.255   3.021
 9576SOL    HW130567   7.203  13.232   3.058
 9576SOL    HW230568   7.312  13.179   2.967
 9577SOL     OW30569   7.407  10.847   2.013
 9577SOL    HW130570   7.404  10.784   1.940
 9577SOL    HW230571   7.442  10.927   1.974
 9578SOL     OW30572   0.646  13.377  12.206
 9578SOL    HW130573   0.664  13.407  12.118
 9578SOL    HW230574   0.717  13.316  12.226
 9579SOL     OW30575  12.161  11.696   2.817
 9579SOL    HW130576  12.066  11.682   2.820
 9579SOL    HW230577  12.183  11.689   2.724
 9580SOL     OW30578   0.357   1.066   4.145
 9580SOL    HW130579   0.357   1.028   4.233
 9580SOL    HW230580   0.323   1.155   4.157
 9581SOL     OW30581   0.299   2.619   6.620
 9581SOL    HW130582   0.294   2.674   6.698
 9581SOL    HW230583   0.316   2.680   6.549
 9582SOL     OW30584  11.975   4.522   7.184
 9582SOL    HW130585  11.933   4.452   7.234
 9582SOL    HW230586  12.067   4.497   7.179
 9583SOL     OW30587  10.595   3.492   4.249
 9583SOL    HW130588  10.638   3.410   4.227
 9583SOL    HW230589  10.617   3.507   4.342
 9584SOL     OW30590  13.016  12.074   1.649
 9584SOL    HW130591  12.942  12.109   1.599
 9584SOL    HW230592  12.997  12.099   1.739
 9585SOL     OW30593  10.442  14.618   8.317
 9585SOL    HW130594  10.396  14.569   8.385
 9585SOL    HW230595  10.479  14.550   8.260
 9586SOL     OW30596  12.989  11.006   4.802
 9586SOL    HW130597  13.002  11.057   4.722
 9586SOL    HW230598  13.032  10.922   4.784
 9587SOL     OW30599  13.038  12.242   4.819
 9587SOL    HW130600  13.031  12.324   4.771
 9587SOL    HW230601  12.951  12.226   4.854
 9588SOL     OW30602  10.068  11.422   5.952
 9588SOL    HW130603  10.064  11.514   5.924
 9588SOL    HW230604   9.979  11.401   5.979
 9589SOL     OW30605  14.761   5.742  14.651
 9589SOL    HW130606  14.782   5.659  14.607
 9589SOL    HW230607  14.725   5.715  14.735
 9590SOL     OW30608  12.669   6.873   3.669
 9590SOL    HW130609  12.587   6.832   3.696
 9590SOL    HW230610  12.700   6.918   3.747
 9591SOL     OW30611   7.109   2.229  12.341
 9591SOL    HW130612   7.108   2.250  12.435
 9591SOL    HW230613   7.161   2.298  12.302
 9592SOL     OW30614  13.524   3.822  13.718
 9592SOL    HW130615  13.543   3.729  13.706
 9592SOL    HW230616  13.585   3.867  13.658
 9593SOL     OW30617   6.795   0.469   1.373
 9593SOL    HW130618   6.819   0.535   1.308
 9593SOL    HW230619   6.876   0.450   1.419
 9594SOL     OW30620   8.836  11.501   6.887
 9594SOL    HW130621   8.870  11.571   6.831
 9594SOL    HW230622   8.821  11.544   6.971
 9595SOL     OW30623   7.535   1.093   2.572
 9595SOL    HW130624   7.445   1.126   2.576
 9595SOL    HW230625   7.527   1.005   2.536
 9596SOL     OW30626   3.562   7.332  14.425
 9596SOL    HW130627   3.468   7.350  14.430
 9596SOL    HW230628   3.572   7.280  14.344
 9597SOL     OW30629   2.148   2.156   2.168
 9597SOL    HW130630   2.221   2.103   2.199
 9597SOL    HW230631   2.103   2.184   2.247
 9598SOL     OW30632   8.866   0.783  12.855
 9598SOL    HW130633   8.874   0.768  12.761
 9598SOL    HW230634   8.787   0.735  12.880
 9599SOL     OW30635   1.749   3.734  14.577
 9599SOL    HW130636   1.741   3.684  14.658
 9599SOL    HW230637   1.827   3.699  14.535
 9600SOL     OW30638  11.565  14.077   9.394
 9600SOL    HW130639  11.611  14.009   9.443
 9600SOL    HW230640  11.544  14.036   9.310
 9601SOL     OW30641  12.756  10.662   3.215
 9601SOL    HW130642  12.690  10.613   3.264
 9601SOL    HW230643  12.803  10.596   3.165
 9602SOL     OW30644   1.381   9.150   9.771
 9602SOL    HW130645   1.349   9.075   9.821
 9602SOL    HW230646   1.475   9.155   9.792
 9603SOL     OW30647  10.962  13.176   7.363
 9603SOL    HW130648  10.946  13.225   7.444
 9603SOL    HW230649  11.057  13.176   7.355
 9604SOL     OW30650  14.832   9.765   4.162
 9604SOL    HW130651   0.020   9.762   4.090
 9604SOL    HW230652  14.875   9.817   4.230
 9605SOL     OW30653   0.384   2.931   8.339
 9605SOL    HW130654   0.386   3.025   8.324
 9605SOL    HW230655   0.461   2.914   8.394
 9606SOL     OW30656   2.610  10.442   0.120
 9606SOL    HW130657   2.526  10.411   0.086
 9606SOL    HW230658   2.619  10.530   0.083
 9607SOL     OW30659   2.025   8.191  13.778
 9607SOL    HW130660   1.930   8.200  13.779
 9607SOL    HW230661   2.044   8.140  13.699
 9608SOL     OW30662   2.805   3.718  14.173
 9608SOL    HW130663   2.897   3.726  14.151
 9608SOL    HW230664   2.802   3.644  14.234
 9609SOL     OW30665   4.107  10.201   1.973
 9609SOL    HW130666   4.091  10.294   1.987
 9609SOL    HW230667   4.025  10.168   1.936
 9610SOL     OW30668   7.135   3.483  11.881
 9610SOL    HW130669   7.164   3.543  11.812
 9610SOL    HW230670   7.057   3.525  11.917
 9611SOL     OW30671   5.507   5.217   8.194
 9611SOL    HW130672   5.489   5.257   8.109
 9611SOL    HW230673   5.447   5.259   8.255
 9612SOL     OW30674   9.957   0.336   7.669
 9612SOL    HW130675  10.002   0.395   7.609
 9612SOL    HW230676   9.904   0.280   7.613
 9613SOL     OW30677  14.128   9.660   0.428
 9613SOL    HW130678  14.127   9.570   0.396
 9613SOL    HW230679  14.037   9.681   0.443
 9614SOL     OW30680  13.232   1.635   7.965
 9614SOL    HW130681  13.162   1.618   8.027
 9614SOL    HW230682  13.189   1.679   7.891
 9615SOL     OW30683   7.301   3.599   0.476
 9615SOL    HW130684   7.385   3.603   0.430
 9615SOL    HW230685   7.268   3.689   0.472
 9616SOL     OW30686  14.830   1.949  11.063
 9616SOL    HW130687  14.875   2.028  11.093
 9616SOL    HW230688  14.868   1.931  10.977
 9617SOL     OW30689   0.095   3.684  13.441
 9617SOL    HW130690   0.010   3.677  13.484
 9617SOL    HW230691   0.155   3.713  13.510
 9618SOL     OW30692   9.712   9.016   7.011
 9618SOL    HW130693   9.781   8.962   7.049
 9618SOL    HW230694   9.659   8.954   6.961
 9619SOL     OW30695   7.830   7.401   7.365
 9619SOL    HW130696   7.830   7.378   7.272
 9619SOL    HW230697   7.833   7.318   7.411
 9620SOL     OW30698  13.214  14.393  13.911
 9620SOL    HW130699  13.189  14.449  13.984
 9620SOL    HW230700  13.190  14.304  13.938
 9621SOL     OW30701   2.583   2.232   9.081
 9621SOL    HW130702   2.597   2.137   9.078
 9621SOL    HW230703   2.488   2.241   9.092
 9622SOL     OW30704   0.610   4.893  11.025
 9622SOL    HW130705   0.597   4.872  11.117
 9622SOL    HW230706   0.522   4.890  10.987
 9623SOL     OW30707   6.896   9.771   0.305
 9623SOL    HW130708   6.809   9.791   0.340
 9623SOL    HW230709   6.882   9.759   0.211
 9624SOL     OW30710   8.873  10.504  14.621
 9624SOL    HW130711   8.899  10.412  14.626
 9624SOL    HW230712   8.817  10.517  14.699
 9625SOL     OW30713   0.014   6.116   0.228
 9625SOL    HW130714   0.047   6.035   0.266
 9625SOL    HW230715   0.030   6.183   0.294
 9626SOL     OW30716  12.597   9.300  10.402
 9626SOL    HW130717  12.575   9.225  10.347
 9626SOL    HW230718  12.600   9.374  10.340
 9627SOL     OW30719   0.572  14.582  11.806
 9627SOL    HW130720   0.555  14.504  11.858
 9627SOL    HW230721   0.557  14.655  11.867
 9628SOL     OW30722   3.985   7.839  14.579
 9628SOL    HW130723   3.918   7.815  14.516
 9628SOL    HW230724   4.066   7.805  14.542
 9629SOL     OW30725   4.111  10.380  13.525
 9629SOL    HW130726   4.143  10.433  13.599
 9629SOL    HW230727   4.048  10.437  13.481
 9630SOL     OW30728  10.748   6.913  11.172
 9630SOL    HW130729  10.690   6.875  11.106
 9630SOL    HW230730  10.703   6.896  11.255
 9631SOL     OW30731  12.975  12.000   3.489
 9631SOL    HW130732  12.932  11.915   3.498
 9631SOL    HW230733  12.926  12.044   3.419
 9632SOL     OW30734  10.172   3.029  12.754
 9632SOL    HW130735  10.188   3.106  12.809
 9632SOL    HW230736  10.078   3.012  12.763
 9633SOL     OW30737  11.045  13.557   8.720
 9633SOL    HW130738  10.986  13.538   8.794
 9633SOL    HW230739  10.991  13.545   8.642
 9634SOL     OW30740   4.622  10.651   6.549
 9634SOL    HW130741   4.631  10.574   6.605
 9634SOL    HW230742   4.583  10.618   6.468
 9635SOL     OW30743   0.357   8.841  10.721
 9635SOL    HW130744   0.305   8.913  10.755
 9635SOL    HW230745   0.422   8.883  10.664
 9636SOL     OW30746   6.367   1.004   0.915
 9636SOL    HW130747   6.431   0.967   0.976
 9636SOL    HW230748   6.324   0.928   0.876
 9637SOL     OW30749   7.125  12.166   8.090
 9637SOL    HW130750   7.163  12.167   8.177
 9637SOL    HW230751   7.191  12.207   8.034
 9638SOL     OW30752   0.005   4.867  12.775
 9638SOL    HW130753   0.094   4.891  12.750
 9638SOL    HW230754   0.016   4.819  12.857
 9639SOL     OW30755   5.910   3.591   8.430
 9639SOL    HW130756   5.948   3.509   8.399
 9639SOL    HW230757   5.936   3.656   8.365
 9640SOL     OW30758   0.460   7.278   7.963
 9640SOL    HW130759   0.392   7.329   8.008
 9640SOL    HW230760   0.486   7.212   8.027
 9641SOL     OW30761   3.083  12.611   4.523
 9641SOL    HW130762   3.039  12.655   4.450
 9641SOL    HW230763   3.091  12.520   4.495
 9642SOL     OW30764   1.244   3.690   6.923
 9642SOL    HW130765   1.169   3.741   6.894
 9642SOL    HW230766   1.232   3.604   6.882
 9643SOL     OW30767   9.200  12.161  13.597
 9643SOL    HW130768   9.156  12.246  13.610
 9643SOL    HW230769   9.202  12.122  13.684
 9644SOL     OW30770   8.573  13.154   2.722
 9644SOL    HW130771   8.572  13.205   2.803
 9644SOL    HW230772   8.666  13.138   2.705
 9645SOL     OW30773   6.359   9.769  14.630
 9645SOL    HW130774   6.429   9.819  14.588
 9645SOL    HW230775   6.361   9.683  14.588
 9646SOL     OW30776  12.840   6.352  11.366
 9646SOL    HW130777  12.876   6.279  11.315
 9646SOL    HW230778  12.745   6.344  11.355
 9647SOL     OW30779   8.829  14.538   3.552
 9647SOL    HW130780   8.736  14.532   3.532
 9647SOL    HW230781   8.834  14.606   3.620
 9648SOL     OW30782  13.733   6.258  11.393
 9648SOL    HW130783  13.804   6.258  11.329
 9648SOL    HW230784  13.696   6.346  11.387
 9649SOL     OW30785   7.702  12.405  11.662
 9649SOL    HW130786   7.693  12.310  11.659
 9649SOL    HW230787   7.648  12.438  11.591
 9650SOL     OW30788  11.214   2.963  13.599
 9650SOL    HW130789  11.202   3.055  13.620
 9650SOL    HW230790  11.304   2.944  13.627
 9651SOL     OW30791  12.939   1.315   9.521
 9651SOL    HW130792  12.968   1.355   9.603
 9651SOL    HW230793  12.986   1.232   9.518
 9652SOL     OW30794  14.032   1.420  10.247
 9652SOL    HW130795  14.087   1.388  10.176
 9652SOL    HW230796  13.994   1.502  10.214
 9653SOL     OW30797  11.778   7.261  12.466
 9653SOL    HW130798  11.834   7.229  12.395
 9653SOL    HW230799  11.768   7.185  12.524
 9654SOL     OW30800   2.313   5.903   5.467
 9654SOL    HW130801   2.302   5.814   5.501
 9654SOL    HW230802   2.319   5.892   5.372
 9655SOL     OW30803  10.766   2.575   8.908
 9655SOL    HW130804  10.832   2.638   8.937
 9655SOL    HW230805  10.763   2.509   8.977
 9656SOL     OW30806   9.925   9.313  11.650
 9656SOL    HW130807   9.913   9.227  11.609
 9656SOL    HW230808   9.888   9.375  11.587
 9657SOL     OW30809   3.275   4.129   5.526
 9657SOL    HW130810   3.279   4.039   5.559
 9657SOL    HW230811   3.230   4.178   5.595
 9658SOL     OW30812  10.557   6.802   4.305
 9658SOL    HW130813  10.488   6.781   4.242
 9658SOL    HW230814  10.603   6.720   4.319
 9659SOL     OW30815   0.862  14.196  11.041
 9659SOL    HW130816   0.852  14.161  10.953
 9659SOL    HW230817   0.932  14.142  11.080
 9660SOL     OW30818  10.627   4.187   2.309
 9660SOL    HW130819  10.621   4.185   2.214
 9660SOL    HW230820  10.614   4.096   2.337
 9661SOL     OW30821  14.422  10.185   2.540
 9661SOL    HW130822  14.510  10.218   2.526
 9661SOL    HW230823  14.379  10.193   2.455
 9662SOL     OW30824  11.022  11.541   9.353
 9662SOL    HW130825  11.116  11.532   9.362
 9662SOL    HW230826  11.002  11.506   9.267
 9663SOL     OW30827   4.289   3.573   9.781
 9663SOL    HW130828   4.225   3.542   9.718
 9663SOL    HW230829   4.281   3.668   9.780
 9664SOL     OW30830  12.998   6.311   5.258
 9664SOL    HW130831  13.010   6.400   5.224
 9664SOL    HW230832  13.034   6.254   5.190
 9665SOL     OW30833   2.338   6.702   7.162
 9665SOL    HW130834   2.355   6.744   7.246
 9665SOL    HW230835   2.420   6.711   7.114
 9666SOL     OW30836  10.781   8.938   0.547
 9666SOL    HW130837  10.792   8.904   0.636
 9666SOL    HW230838  10.753   9.029   0.560
 9667SOL     OW30839   6.077   8.973   8.064
 9667SOL    HW130840   6.115   8.928   7.988
 9667SOL    HW230841   6.139   8.958   8.135
 9668SOL     OW30842   6.145   7.652  11.481
 9668SOL    HW130843   6.206   7.718  11.449
 9668SOL    HW230844   6.184   7.622  11.563
 9669SOL     OW30845   2.618   7.547   3.355
 9669SOL    HW130846   2.663   7.592   3.427
 9669SOL    HW230847   2.626   7.454   3.377
 9670SOL     OW30848   9.731   5.409   4.451
 9670SOL    HW130849   9.753   5.423   4.359
 9670SOL    HW230850   9.647   5.453   4.462
 9671SOL     OW30851   1.666  13.956   6.101
 9671SOL    HW130852   1.677  13.994   6.014
 9671SOL    HW230853   1.593  14.005   6.139
 9672SOL     OW30854  12.749   7.306  11.852
 9672SOL    HW130855  12.739   7.399  11.830
 9672SOL    HW230856  12.779   7.306  11.943
 9673SOL     OW30857   6.219  13.701  12.261
 9673SOL    HW130858   6.225  13.612  12.296
 9673SOL    HW230859   6.232  13.691  12.167
 9674SOL     OW30860   5.994   0.466   4.028
 9674SOL    HW130861   5.926   0.427   3.973
 9674SOL    HW230862   6.035   0.533   3.973
 9675SOL     OW30863   1.347   7.536   4.769
 9675SOL    HW130864   1.302   7.581   4.841
 9675SOL    HW230865   1.424   7.496   4.810
 9676SOL     OW30866  10.335   4.864  14.776
 9676SOL    HW130867  10.363   4.953  14.758
 9676SOL    HW230868  10.258   4.873  14.832
 9677SOL     OW30869   3.446   4.692  12.575
 9677SOL    HW130870   3.486   4.778  12.588
 9677SOL    HW230871   3.518   4.636  12.546
 9678SOL     OW30872   7.537   8.049   2.086
 9678SOL    HW130873   7.564   8.137   2.058
 9678SOL    HW230874   7.458   8.030   2.035
 9679SOL     OW30875   7.256  12.545  10.189
 9679SOL    HW130876   7.167  12.529  10.219
 9679SOL    HW230877   7.289  12.460  10.161
 9680SOL     OW30878   2.740  10.245  13.187
 9680SOL    HW130879   2.679  10.250  13.113
 9680SOL    HW230880   2.686  10.264  13.263
 9681SOL     OW30881   8.629   3.085   4.214
 9681SOL    HW130882   8.590   3.047   4.135
 9681SOL    HW230883   8.597   3.030   4.285
 9682SOL     OW30884  10.415  14.356  13.339
 9682SOL    HW130885  10.401  14.399  13.423
 9682SOL    HW230886  10.499  14.389  13.309
 9683SOL     OW30887  13.999  13.692   2.196
 9683SOL    HW130888  13.975  13.784   2.203
 9683SOL    HW230889  13.928  13.653   2.145
 9684SOL     OW30890   2.666   6.626   9.915
 9684SOL    HW130891   2.761   6.629   9.910
 9684SOL    HW230892   2.646   6.661  10.002
 9685SOL     OW30893  14.803   8.653   3.907
 9685SOL    HW130894   0.016   8.621   3.909
 9685SOL    HW230895  14.811   8.742   3.872
 9686SOL     OW30896  13.821   3.552  11.895
 9686SOL    HW130897  13.902   3.592  11.926
 9686SOL    HW230898  13.844   3.460  11.880
 9687SOL     OW30899   1.578  13.775   3.079
 9687SOL    HW130900   1.519  13.702   3.061
 9687SOL    HW230901   1.595  13.813   2.993
 9688SOL     OW30902  10.614   5.052   8.132
 9688SOL    HW130903  10.548   5.121   8.122
 9688SOL    HW230904  10.690   5.084   8.084
 9689SOL     OW30905   0.510  12.767  11.660
 9689SOL    HW130906   0.492  12.673  11.664
 9689SOL    HW230907   0.484  12.793  11.572
 9690SOL     OW30908   3.200  11.102   2.423
 9690SOL    HW130909   3.202  11.061   2.510
 9690SOL    HW230910   3.196  11.029   2.362
 9691SOL     OW30911   6.612   7.032   1.496
 9691SOL    HW130912   6.624   7.075   1.581
 9691SOL    HW230913   6.557   7.092   1.447
 9692SOL     OW30914   7.641   6.260   1.792
 9692SOL    HW130915   7.583   6.235   1.864
 9692SOL    HW230916   7.670   6.176   1.756
 9693SOL     OW30917   8.321   4.956   1.761
 9693SOL    HW130918   8.312   4.999   1.846
 9693SOL    HW230919   8.331   4.863   1.781
 9694SOL     OW30920   7.419   0.154   6.507
 9694SOL    HW130921   7.342   0.108   6.476
 9694SOL    HW230922   7.477   0.159   6.431
 9695SOL     OW30923   7.357  13.635   0.278
 9695SOL    HW130924   7.342  13.729   0.283
 9695SOL    HW230925   7.437  13.626   0.226
 9696SOL     OW30926  13.834  11.443  12.336
 9696SOL    HW130927  13.817  11.412  12.425
 9696SOL    HW230928  13.915  11.493  12.343
 9697SOL     OW30929   8.138  11.908   9.006
 9697SOL    HW130930   8.152  11.835   8.946
 9697SOL    HW230931   8.121  11.868   9.090
 9698SOL     OW30932   4.328   8.907   2.701
 9698SOL    HW130933   4.261   8.942   2.642
 9698SOL    HW230934   4.341   8.976   2.767
 9699SOL     OW30935   3.716   7.868   2.043
 9699SOL    HW130936   3.795   7.839   1.997
 9699SOL    HW230937   3.747   7.937   2.101
 9700SOL     OW30938  14.112   3.516  12.456
 9700SOL    HW130939  14.172   3.590  12.449
 9700SOL    HW230940  14.080   3.503  12.367
 9701SOL     OW30941   9.614   3.770   6.220
 9701SOL    HW130942   9.696   3.794   6.264
 9701SOL    HW230943   9.589   3.849   6.172
 9702SOL     OW30944  13.011   3.419   5.495
 9702SOL    HW130945  12.936   3.370   5.529
 9702SOL    HW230946  13.049   3.361   5.429
 9703SOL     OW30947   5.816   5.274   2.243
 9703SOL    HW130948   5.758   5.349   2.232
 9703SOL    HW230949   5.771   5.218   2.307
 9704SOL     OW30950   8.908  14.627   7.729
 9704SOL    HW130951   8.992  14.670   7.715
 9704SOL    HW230952   8.929  14.535   7.739
 9705SOL     OW30953   8.846   4.589  13.107
 9705SOL    HW130954   8.829   4.507  13.154
 9705SOL    HW230955   8.888   4.646  13.172
 9706SOL     OW30956   1.081   0.681   9.524
 9706SOL    HW130957   1.028   0.758   9.506
 9706SOL    HW230958   1.066   0.624   9.449
 9707SOL     OW30959   8.205  11.163  11.850
 9707SOL    HW130960   8.125  11.177  11.800
 9707SOL    HW230961   8.179  11.106  11.922
 9708SOL     OW30962   1.132  11.096   4.604
 9708SOL    HW130963   1.100  11.153   4.535
 9708SOL    HW230964   1.060  11.035   4.621
 9709SOL     OW30965   6.397   3.393  12.053
 9709SOL    HW130966   6.415   3.309  12.096
 9709SOL    HW230967   6.470   3.404  11.992
 9710SOL     OW30968   4.919  10.090   5.687
 9710SOL    HW130969   4.858  10.149   5.641
 9710SOL    HW230970   4.864  10.042   5.749
 9711SOL     OW30971  10.039  14.148   7.670
 9711SOL    HW130972  10.123  14.180   7.701
 9711SOL    HW230973  10.024  14.195   7.588
 9712SOL     OW30974   2.438   0.272   3.057
 9712SOL    HW130975   2.472   0.311   2.976
 9712SOL    HW230976   2.508   0.283   3.121
 9713SOL     OW30977   4.856  12.189  13.876
 9713SOL    HW130978   4.810  12.200  13.960
 9713SOL    HW230979   4.912  12.113  13.891
 9714SOL     OW30980   4.990   6.111  12.870
 9714SOL    HW130981   5.015   6.022  12.847
 9714SOL    HW230982   4.972   6.108  12.964
 9715SOL     OW30983   3.084  13.446   3.259
 9715SOL    HW130984   3.036  13.427   3.178
 9715SOL    HW230985   3.029  13.509   3.305
 9716SOL     OW30986  13.260   0.651  14.596
 9716SOL    HW130987  13.240   0.737  14.633
 9716SOL    HW230988  13.207   0.647  14.516
 9717SOL     OW30989   3.971  12.489  12.056
 9717SOL    HW130990   3.995  12.582  12.050
 9717SOL    HW230991   3.875  12.490  12.061
 9718SOL     OW30992   5.522   8.092   3.465
 9718SOL    HW130993   5.526   8.176   3.510
 9718SOL    HW230994   5.613   8.065   3.455
 9719SOL     OW30995  12.564  12.511   2.416
 9719SOL    HW130996  12.596  12.449   2.350
 9719SOL    HW230997  12.519  12.455   2.480
 9720SOL     OW30998  13.153   6.767  13.922
 9720SOL    HW130999  13.092   6.804  13.987
 9720SOL    HW231000  13.100   6.705  13.872
 9721SOL     OW31001   5.744   1.774   2.341
 9721SOL    HW131002   5.737   1.810   2.430
 9721SOL    HW231003   5.702   1.840   2.285
 9722SOL     OW31004   5.007  10.852   0.319
 9722SOL    HW131005   4.925  10.900   0.312
 9722SOL    HW231006   5.057  10.879   0.241
 9723SOL     OW31007   3.367   8.645   7.568
 9723SOL    HW131008   3.396   8.720   7.516
 9723SOL    HW231009   3.445   8.590   7.577
 9724SOL     OW31010   5.825   4.028   7.732
 9724SOL    HW131011   5.776   3.989   7.804
 9724SOL    HW231012   5.888   4.086   7.775
 9725SOL     OW31013   6.476   9.934   6.028
 9725SOL    HW131014   6.389   9.935   5.988
 9725SOL    HW231015   6.467   9.876   6.103
 9726SOL     OW31016   0.594   4.904  10.072
 9726SOL    HW131017   0.522   4.843  10.083
 9726SOL    HW231018   0.573   4.951   9.991
 9727SOL     OW31019   8.829  12.968   5.079
 9727SOL    HW131020   8.759  12.931   5.025
 9727SOL    HW231021   8.893  13.003   5.016
 9728SOL     OW31022   4.162   5.206   6.293
 9728SOL    HW131023   4.237   5.151   6.316
 9728SOL    HW231024   4.201   5.290   6.269
 9729SOL     OW31025  14.691  12.503   6.609
 9729SOL    HW131026  14.763  12.546   6.562
 9729SOL    HW231027  14.662  12.434   6.550
 9730SOL     OW31028  14.731   8.368   8.142
 9730SOL    HW131029  14.802   8.320   8.184
 9730SOL    HW231030  14.661   8.304   8.132
 9731SOL     OW31031   2.719   3.750   4.028
 9731SOL    HW131032   2.770   3.685   3.979
 9731SOL    HW231033   2.782   3.788   4.089
 9732SOL     OW31034   5.004   2.859   1.965
 9732SOL    HW131035   4.986   2.862   2.059
 9732SOL    HW231036   4.993   2.767   1.941
 9733SOL     OW31037  14.576   1.517  12.304
 9733SOL    HW131038  14.503   1.548  12.358
 9733SOL    HW231039  14.617   1.448  12.357
 9734SOL     OW31040   3.142   3.250   2.597
 9734SOL    HW131041   3.197   3.301   2.537
 9734SOL    HW231042   3.099   3.316   2.652
 9735SOL     OW31043  12.752   4.755   3.508
 9735SOL    HW131044  12.775   4.672   3.548
 9735SOL    HW231045  12.806   4.820   3.554
 9736SOL     OW31046   9.765   2.111  11.549
 9736SOL    HW131047   9.670   2.100  11.553
 9736SOL    HW231048   9.796   2.038  11.496
 9737SOL     OW31049   1.526   5.341   4.835
 9737SOL    HW131050   1.581   5.308   4.764
 9737SOL    HW231051   1.540   5.279   4.907
 9738SOL     OW31052   0.198   2.345  13.851
 9738SOL    HW131053   0.176   2.371  13.761
 9738SOL    HW231054   0.290   2.367  13.861
 9739SOL     OW31055   0.264   5.975   5.118
 9739SOL    HW131056   0.354   6.004   5.132
 9739SOL    HW231057   0.263   5.943   5.028
 9740SOL     OW31058  11.352  13.744   3.014
 9740SOL    HW131059  11.423  13.780   2.961
 9740SOL    HW231060  11.390  13.736   3.102
 9741SOL     OW31061  14.772   9.565  14.663
 9741SOL    HW131062  14.815   9.645  14.691
 9741SOL    HW231063  14.841   9.513  14.620
 9742SOL     OW31064  12.890   9.101  12.750
 9742SOL    HW131065  12.885   9.167  12.819
 9742SOL    HW231066  12.836   9.136  12.678
 9743SOL     OW31067   8.552   8.859   4.682
 9743SOL    HW131068   8.500   8.939   4.689
 9743SOL    HW231069   8.633   8.888   4.639
 9744SOL     OW31070   5.332   4.108   4.634
 9744SOL    HW131071   5.369   4.021   4.623
 9744SOL    HW231072   5.407   4.167   4.634
 9745SOL     OW31073   0.643   7.969   6.592
 9745SOL    HW131074   0.551   7.947   6.581
 9745SOL    HW231075   0.655   7.973   6.687
 9746SOL     OW31076   3.283   7.092  13.002
 9746SOL    HW131077   3.206   7.055  13.043
 9746SOL    HW231078   3.352   7.027  13.017
 9747SOL     OW31079  10.668   4.314  14.438
 9747SOL    HW131080  10.708   4.356  14.514
 9747SOL    HW231081  10.680   4.377  14.367
 9748SOL     OW31082  11.185   3.068   4.909
 9748SOL    HW131083  11.097   3.070   4.870
 9748SOL    HW231084  11.180   3.130   4.981
 9749SOL     OW31085  13.088   6.552   1.645
 9749SOL    HW131086  13.010   6.497   1.637
 9749SOL    HW231087  13.062   6.637   1.607
 9750SOL     OW31088   3.579  14.116  13.268
 9750SOL    HW131089   3.502  14.077  13.227
 9750SOL    HW231090   3.599  14.193  13.215
 9751SOL     OW31091   6.464   1.452   2.377
 9751SOL    HW131092   6.475   1.541   2.344
 9751SOL    HW231093   6.495   1.457   2.468
 9752SOL     OW31094   9.216  11.603  11.449
 9752SOL    HW131095   9.293  11.545  11.452
 9752SOL    HW231096   9.233  11.668  11.517
 9753SOL     OW31097  11.489   7.047   4.783
 9753SOL    HW131098  11.553   7.118   4.773
 9753SOL    HW231099  11.407   7.091   4.802
 9754SOL     OW31100   1.949  13.389  10.569
 9754SOL    HW131101   1.902  13.471  10.554
 9754SOL    HW231102   1.894  13.322  10.528
 9755SOL     OW31103  11.836  10.585   3.916
 9755SOL    HW131104  11.840  10.489   3.913
 9755SOL    HW231105  11.813  10.610   3.826
 9756SOL     OW31106   3.281   0.161   8.776
 9756SOL    HW131107   3.240   0.082   8.741
 9756SOL    HW231108   3.223   0.188   8.847
 9757SOL     OW31109  10.205   5.432   4.973
 9757SOL    HW131110  10.286   5.434   4.922
 9757SOL    HW231111  10.138   5.463   4.913
 9758SOL     OW31112   7.622   6.614   8.865
 9758SOL    HW131113   7.544   6.560   8.858
 9758SOL    HW231114   7.650   6.630   8.775
 9759SOL     OW31115  14.095   2.273  14.012
 9759SOL    HW131116  14.148   2.193  14.007
 9759SOL    HW231117  14.149   2.333  14.065
 9760SOL     OW31118   9.968   8.556   1.055
 9760SOL    HW131119  10.000   8.473   1.020
 9760SOL    HW231120  10.044   8.595   1.098
 9761SOL     OW31121   6.758   0.211   2.051
 9761SOL    HW131122   6.679   0.179   2.006
 9761SOL    HW231123   6.727   0.244   2.135
 9762SOL     OW31124   0.530  12.784   0.304
 9762SOL    HW131125   0.608  12.787   0.248
 9762SOL    HW231126   0.546  12.712   0.364
 9763SOL     OW31127  10.293  10.793   2.656
 9763SOL    HW131128  10.282  10.719   2.596
 9763SOL    HW231129  10.373  10.773   2.705
 9764SOL     OW31130   8.223   9.635   8.880
 9764SOL    HW131131   8.317   9.625   8.866
 9764SOL    HW231132   8.189   9.545   8.881
 9765SOL     OW31133   4.414   9.198  12.157
 9765SOL    HW131134   4.505   9.173  12.174
 9765SOL    HW231135   4.387   9.247  12.234
 9766SOL     OW31136   2.575   6.161   1.218
 9766SOL    HW131137   2.527   6.112   1.284
 9766SOL    HW231138   2.590   6.099   1.147
 9767SOL     OW31139   8.942  14.423   5.888
 9767SOL    HW131140   8.897  14.502   5.917
 9767SOL    HW231141   9.032  14.451   5.871
 9768SOL     OW31142   5.440  14.524   5.690
 9768SOL    HW131143   5.390  14.593   5.647
 9768SOL    HW231144   5.411  14.526   5.781
 9769SOL     OW31145   5.837   1.669   9.667
 9769SOL    HW131146   5.915   1.704   9.710
 9769SOL    HW231147   5.829   1.720   9.586
 9770SOL     OW31148   5.972  11.635   9.717
 9770SOL    HW131149   5.945  11.550   9.683
 9770SOL    HW231150   6.044  11.662   9.660
 9771SOL     OW31151   0.415   9.980   2.424
 9771SOL    HW131152   0.429   9.944   2.512
 9771SOL    HW231153   0.440   9.910   2.365
 9772SOL     OW31154   9.141   0.252   1.776
 9772SOL    HW131155   9.211   0.201   1.816
 9772SOL    HW231156   9.177   0.340   1.765
 9773SOL     OW31157   9.367   0.644  11.899
 9773SOL    HW131158   9.387   0.560  11.939
 9773SOL    HW231159   9.453   0.680  11.875
 9774SOL     OW31160  13.359   8.359  13.350
 9774SOL    HW131161  13.327   8.269  13.355
 9774SOL    HW231162  13.296   8.404  13.295
 9775SOL     OW31163   1.750   5.964   7.368
 9775SOL    HW131164   1.657   5.970   7.345
 9775SOL    HW231165   1.785   5.901   7.305
 9776SOL     OW31166   1.513  13.918   4.983
 9776SOL    HW131167   1.453  13.949   4.915
 9776SOL    HW231168   1.590  13.973   4.974
 9777SOL     OW31169  12.786   4.070  14.850
 9777SOL    HW131170  12.832   4.012   0.034
 9777SOL    HW231171  12.712   4.018  14.818
 9778SOL     OW31172  11.144   9.915   6.197
 9778SOL    HW131173  11.072   9.967   6.159
 9778SOL    HW231174  11.203   9.980   6.235
 9779SOL     OW31175  11.492   7.320   9.862
 9779SOL    HW131176  11.552   7.349   9.793
 9779SOL    HW231177  11.522   7.231   9.884
 9780SOL     OW31178   1.504  12.377   8.152
 9780SOL    HW131179   1.558  12.347   8.225
 9780SOL    HW231180   1.519  12.312   8.083
 9781SOL     OW31181   7.415  14.626   0.147
 9781SOL    HW131182   7.458  14.587   0.223
 9781SOL    HW231183   7.373  14.705   0.181
 9782SOL     OW31184   6.163   1.028   4.351
 9782SOL    HW131185   6.241   1.081   4.367
 9782SOL    HW231186   6.197   0.940   4.331
 9783SOL     OW31187   1.968  11.427  12.823
 9783SOL    HW131188   1.980  11.381  12.906
 9783SOL    HW231189   1.901  11.493  12.842
 9784SOL     OW31190   8.413   0.467   2.275
 9784SOL    HW131191   8.462   0.542   2.308
 9784SOL    HW231192   8.378   0.496   2.191
 9785SOL     OW31193  11.049   3.391  10.762
 9785SOL    HW131194  11.141   3.372  10.744
 9785SOL    HW231195  11.001   3.317  10.726
 9786SOL     OW31196  14.187   0.248   8.141
 9786SOL    HW131197  14.185   0.325   8.197
 9786SOL    HW231198  14.125   0.268   8.070
 9787SOL     OW31199  12.240   5.600  14.610
 9787SOL    HW131200  12.321   5.644  14.636
 9787SOL    HW231201  12.260   5.506  14.619
 9788SOL     OW31202  10.817  11.721   3.177
 9788SOL    HW131203  10.851  11.646   3.128
 9788SOL    HW231204  10.820  11.794   3.115
 9789SOL     OW31205  13.679   7.635  12.290
 9789SOL    HW131206  13.727   7.712  12.261
 9789SOL    HW231207  13.588   7.664  12.297
 9790SOL     OW31208  12.675   3.061   3.583
 9790SOL    HW131209  12.604   3.007   3.618
 9790SOL    HW231210  12.671   3.047   3.488
 9791SOL     OW31211   0.056  11.712   2.945
 9791SOL    HW131212   0.113  11.668   3.008
 9791SOL    HW231213  14.859  11.651   2.932
 9792SOL     OW31214  14.621  10.138   2.915
 9792SOL    HW131215  14.579  10.222   2.898
 9792SOL    HW231216  14.696  10.137   2.855
 9793SOL     OW31217   2.533  10.143   7.432
 9793SOL    HW131218   2.480  10.090   7.373
 9793SOL    HW231219   2.507  10.233   7.415
 9794SOL     OW31220   5.893   4.343   8.410
 9794SOL    HW131221   5.897   4.434   8.382
 9794SOL    HW231222   5.908   4.347   8.505
 9795SOL     OW31223   3.449   0.517   3.394
 9795SOL    HW131224   3.377   0.453   3.389
 9795SOL    HW231225   3.440   0.556   3.480
 9796SOL     OW31226   0.953   8.501  13.687
 9796SOL    HW131227   0.901   8.582  13.695
 9796SOL    HW231228   1.035   8.521  13.731
 9797SOL     OW31229   1.421  10.645  14.088
 9797SOL    HW131230   1.378  10.571  14.045
 9797SOL    HW231231   1.366  10.721  14.068
 9798SOL     OW31232   2.579  11.651   3.601
 9798SOL    HW131233   2.604  11.741   3.584
 9798SOL    HW231234   2.655  11.613   3.645
 9799SOL     OW31235  10.951   2.547  12.592
 9799SOL    HW131236  10.959   2.613  12.662
 9799SOL    HW231237  10.857   2.537  12.579
 9800SOL     OW31238   7.620   7.197   8.307
 9800SOL    HW131239   7.559   7.154   8.247
 9800SOL    HW231240   7.705   7.159   8.286
 9801SOL     OW31241  11.253  14.441   6.502
 9801SOL    HW131242  11.306  14.503   6.452
 9801SOL    HW231243  11.310  14.366   6.517
 9802SOL     OW31244   5.258  13.025   3.476
 9802SOL    HW131245   5.327  12.962   3.456
 9802SOL    HW231246   5.219  13.047   3.391
 9803SOL     OW31247  12.320   3.694  14.221
 9803SOL    HW131248  12.415   3.706  14.210
 9803SOL    HW231249  12.312   3.602  14.247
 9804SOL     OW31250   2.180   7.969  10.712
 9804SOL    HW131251   2.100   7.959  10.659
 9804SOL    HW231252   2.216   7.881  10.718
 9805SOL     OW31253  11.642   6.805   0.458
 9805SOL    HW131254  11.706   6.864   0.419
 9805SOL    HW231255  11.567   6.809   0.399
 9806SOL     OW31256   9.115   5.909   3.801
 9806SOL    HW131257   9.207   5.890   3.784
 9806SOL    HW231258   9.076   5.918   3.715
 9807SOL     OW31259   4.061   1.545   5.645
 9807SOL    HW131260   4.047   1.620   5.587
 9807SOL    HW231261   4.151   1.518   5.628
 9808SOL     OW31262   6.412   8.301   1.893
 9808SOL    HW131263   6.384   8.250   1.969
 9808SOL    HW231264   6.338   8.358   1.873
 9809SOL     OW31265   3.555   5.086  11.829
 9809SOL    HW131266   3.619   5.016  11.842
 9809SOL    HW231267   3.536   5.084  11.736
 9810SOL     OW31268  13.229  13.270   9.185
 9810SOL    HW131269  13.137  13.294   9.195
 9810SOL    HW231270  13.254  13.238   9.272
 9811SOL     OW31271  11.090   2.517   5.429
 9811SOL    HW131272  11.043   2.441   5.462
 9811SOL    HW231273  11.141   2.484   5.355
 9812SOL     OW31274   7.580   9.153   2.457
 9812SOL    HW131275   7.673   9.176   2.456
 9812SOL    HW231276   7.538   9.224   2.506
 9813SOL     OW31277   2.154   3.604  10.144
 9813SOL    HW131278   2.126   3.631  10.232
 9813SOL    HW231279   2.248   3.588  10.153
 9814SOL     OW31280  12.304   0.330  10.413
 9814SOL    HW131281  12.215   0.299  10.429
 9814SOL    HW231282  12.338   0.271  10.345
 9815SOL     OW31283   7.236   8.610  14.179
 9815SOL    HW131284   7.191   8.648  14.254
 9815SOL    HW231285   7.165   8.573  14.125
 9816SOL     OW31286   5.150  11.446  11.950
 9816SOL    HW131287   5.164  11.399  11.868
 9816SOL    HW231288   5.138  11.537  11.924
 9817SOL     OW31289   1.459   9.699   9.503
 9817SOL    HW131290   1.498   9.660   9.425
 9817SOL    HW231291   1.365   9.686   9.492
 9818SOL     OW31292   7.788   9.567   7.775
 9818SOL    HW131293   7.752   9.618   7.703
 9818SOL    HW231294   7.828   9.491   7.733
 9819SOL     OW31295   5.196  10.626   8.967
 9819SOL    HW131296   5.285  10.624   9.002
 9819SOL    HW231297   5.178  10.535   8.943
 9820SOL     OW31298   5.120   8.448  11.772
 9820SOL    HW131299   5.106   8.389  11.846
 9820SOL    HW231300   5.121   8.391  11.695
 9821SOL     OW31301   3.637   7.877  14.673
 9821SOL    HW131302   3.711   7.935  14.688
 9821SOL    HW231303   3.670   7.811  14.612
 9822SOL     OW31304  12.051  14.721   2.536
 9822SOL    HW131305  12.108  14.796   2.522
 9822SOL    HW231306  11.996  14.718   2.457
 9823SOL     OW31307   4.017   5.368   8.218
 9823SOL    HW131308   4.063   5.433   8.272
 9823SOL    HW231309   4.055   5.284   8.243
 9824SOL     OW31310   1.142   6.482  12.283
 9824SOL    HW131311   1.109   6.484  12.373
 9824SOL    HW231312   1.117   6.395  12.251
 9825SOL     OW31313   8.222   3.373   8.819
 9825SOL    HW131314   8.254   3.435   8.885
 9825SOL    HW231315   8.295   3.362   8.759
 9826SOL     OW31316   5.733   5.091  13.393
 9826SOL    HW131317   5.787   5.108  13.316
 9826SOL    HW231318   5.723   5.176  13.434
 9827SOL     OW31319   9.432   7.107   8.207
 9827SOL    HW131320   9.423   7.024   8.161
 9827SOL    HW231321   9.452   7.082   8.297
 9828SOL     OW31322   5.569   8.147   1.925
 9828SOL    HW131323   5.483   8.109   1.939
 9828SOL    HW231324   5.623   8.074   1.895
 9829SOL     OW31325   5.577  14.353  14.610
 9829SOL    HW131326   5.520  14.410  14.558
 9829SOL    HW231327   5.525  14.332  14.688
 9830SOL     OW31328   6.246   5.291   5.003
 9830SOL    HW131329   6.243   5.374   5.051
 9830SOL    HW231330   6.250   5.317   4.911
 9831SOL     OW31331  13.895  13.578  10.794
 9831SOL    HW131332  13.926  13.496  10.755
 9831SOL    HW231333  13.886  13.638  10.720
 9832SOL     OW31334   4.260  10.125  13.132
 9832SOL    HW131335   4.288  10.182  13.204
 9832SOL    HW231336   4.214  10.183  13.072
 9833SOL     OW31337   2.330   6.383   0.486
 9833SOL    HW131338   2.390   6.353   0.555
 9833SOL    HW231339   2.286   6.303   0.457
 9834SOL     OW31340   9.831  14.814  13.280
 9834SOL    HW131341   9.738  14.811  13.255
 9834SOL    HW231342   9.860   0.024  13.252
 9835SOL     OW31343   2.197  11.437   3.412
 9835SOL    HW131344   2.213  11.343   3.424
 9835SOL    HW231345   2.283  11.473   3.390
 9836SOL     OW31346  13.810   7.346   1.962
 9836SOL    HW131347  13.750   7.276   1.935
 9836SOL    HW231348  13.754   7.424   1.967
 9837SOL     OW31349   7.899   7.997  11.187
 9837SOL    HW131350   7.934   8.077  11.149
 9837SOL    HW231351   7.832   7.969  11.124
 9838SOL     OW31352   5.271  10.133   1.969
 9838SOL    HW131353   5.276  10.226   1.947
 9838SOL    HW231354   5.263  10.088   1.885
 9839SOL     OW31355  10.437   2.586   6.962
 9839SOL    HW131356  10.519   2.560   6.921
 9839SOL    HW231357  10.454   2.578   7.056
 9840SOL     OW31358   3.224   1.750   0.750
 9840SOL    HW131359   3.265   1.808   0.686
 9840SOL    HW231360   3.153   1.802   0.788
 9841SOL     OW31361   2.156   1.812   8.290
 9841SOL    HW131362   2.202   1.804   8.206
 9841SOL    HW231363   2.093   1.740   8.289
 9842SOL     OW31364   5.774   0.232   1.828
 9842SOL    HW131365   5.698   0.221   1.771
 9842SOL    HW231366   5.833   0.161   1.802
 9843SOL     OW31367   5.709   8.653   5.661
 9843SOL    HW131368   5.705   8.631   5.754
 9843SOL    HW231369   5.633   8.710   5.647
 9844SOL     OW31370   0.991   2.559   2.007
 9844SOL    HW131371   0.938   2.529   1.933
 9844SOL    HW231372   1.016   2.649   1.984
 9845SOL     OW31373   2.000   1.961   9.596
 9845SOL    HW131374   1.992   1.942   9.503
 9845SOL    HW231375   1.933   2.028   9.613
 9846SOL     OW31376   6.864   4.904   8.407
 9846SOL    HW131377   6.908   4.869   8.330
 9846SOL    HW231378   6.816   4.980   8.375
 9847SOL     OW31379  13.786   6.820   1.162
 9847SOL    HW131380  13.848   6.863   1.103
 9847SOL    HW231381  13.806   6.727   1.155
 9848SOL     OW31382  12.675   1.287   2.057
 9848SOL    HW131383  12.692   1.287   1.963
 9848SOL    HW231384  12.588   1.325   2.067
 9849SOL     OW31385  11.850   8.961  11.664
 9849SOL    HW131386  11.798   8.987  11.588
 9849SOL    HW231387  11.921   9.026  11.668
 9850SOL     OW31388  13.984  13.186   7.364
 9850SOL    HW131389  14.050  13.222   7.305
 9850SOL    HW231390  13.918  13.254   7.370
 9851SOL     OW31391  12.617   8.827   5.137
 9851SOL    HW131392  12.597   8.831   5.044
 9851SOL    HW231393  12.532   8.816   5.180
 9852SOL     OW31394  13.600   1.411   6.813
 9852SOL    HW131395  13.637   1.401   6.901
 9852SOL    HW231396  13.508   1.387   6.823
 9853SOL     OW31397   7.401   9.542   2.773
 9853SOL    HW131398   7.322   9.590   2.799
 9853SOL    HW231399   7.382   9.451   2.794
 9854SOL     OW31400   3.790  10.710   0.185
 9854SOL    HW131401   3.764  10.798   0.212
 9854SOL    HW231402   3.779  10.657   0.263
 9855SOL     OW31403   9.211  14.749   1.341
 9855SOL    HW131404   9.285  14.690   1.355
 9855SOL    HW231405   9.145  14.696   1.297
 9856SOL     OW31406   6.402  13.888  12.158
 9856SOL    HW131407   6.432  13.967  12.203
 9856SOL    HW231408   6.339  13.849  12.219
 9857SOL     OW31409   8.109  11.310   4.034
 9857SOL    HW131410   8.103  11.235   4.094
 9857SOL    HW231411   8.196  11.347   4.051
 9858SOL     OW31412   7.502   3.816   5.325
 9858SOL    HW131413   7.590   3.783   5.307
 9858SOL    HW231414   7.499   3.826   5.420
 9859SOL     OW31415  13.128  13.269   3.515
 9859SOL    HW131416  13.148  13.330   3.587
 9859SOL    HW231417  13.166  13.186   3.544
 9860SOL     OW31418   3.238   4.116   7.699
 9860SOL    HW131419   3.266   4.030   7.730
 9860SOL    HW231420   3.299   4.177   7.740
 9861SOL     OW31421   0.007   9.010   8.679
 9861SOL    HW131422   0.078   9.021   8.741
 9861SOL    HW231423  14.832   9.091   8.686
 9862SOL     OW31424   4.261   3.238  10.178
 9862SOL    HW131425   4.341   3.239  10.231
 9862SOL    HW231426   4.191   3.230  10.243
 9863SOL     OW31427  11.382  13.916  14.856
 9863SOL    HW131428  11.466  13.911  14.810
 9863SOL    HW231429  11.366  14.010  14.866
 9864SOL     OW31430   4.495   4.069   3.003
 9864SOL    HW131431   4.562   4.031   3.061
 9864SOL    HW231432   4.539   4.076   2.918
 9865SOL     OW31433   6.326  11.337  10.123
 9865SOL    HW131434   6.256  11.305  10.179
 9865SOL    HW231435   6.404  11.289  10.150
 9866SOL     OW31436  13.141   4.189  14.416
 9866SOL    HW131437  13.155   4.242  14.338
 9866SOL    HW231438  13.054   4.213  14.447
 9867SOL     OW31439  11.963   9.768   6.786
 9867SOL    HW131440  12.024   9.696   6.798
 9867SOL    HW231441  12.015   9.847   6.804
 9868SOL     OW31442   4.294   4.544   8.926
 9868SOL    HW131443   4.361   4.602   8.961
 9868SOL    HW231444   4.216   4.598   8.920
 9869SOL     OW31445   6.568   5.797  13.431
 9869SOL    HW131446   6.574   5.891  13.450
 9869SOL    HW231447   6.656   5.764  13.448
 9870SOL     OW31448   0.512   8.976  10.553
 9870SOL    HW131449   0.548   8.922  10.483
 9870SOL    HW231450   0.458   9.041  10.507
 9871SOL     OW31451   8.135   1.830   4.850
 9871SOL    HW131452   8.220   1.868   4.873
 9871SOL    HW231453   8.128   1.751   4.904
 9872SOL     OW31454   3.435  11.473   2.927
 9872SOL    HW131455   3.471  11.406   2.985
 9872SOL    HW231456   3.510  11.505   2.877
 9873SOL     OW31457   1.857  10.160   9.585
 9873SOL    HW131458   1.886  10.111   9.662
 9873SOL    HW231459   1.766  10.182   9.603
 9874SOL     OW31460  11.466   9.934  10.370
 9874SOL    HW131461  11.485   9.844  10.398
 9874SOL    HW231462  11.432   9.924  10.280
 9875SOL     OW31463   2.244   6.531   0.181
 9875SOL    HW131464   2.326   6.522   0.229
 9875SOL    HW231465   2.184   6.571   0.243
 9876SOL     OW31466   1.580   3.044   4.222
 9876SOL    HW131467   1.550   2.962   4.262
 9876SOL    HW231468   1.666   3.058   4.260
 9877SOL     OW31469  11.171  12.772   7.920
 9877SOL    HW131470  11.213  12.847   7.879
 9877SOL    HW231471  11.119  12.732   7.851
 9878SOL     OW31472  11.344   9.779   6.480
 9878SOL    HW131473  11.379   9.738   6.401
 9878SOL    HW231474  11.421   9.801   6.532
 9879SOL     OW31475   3.381   8.080   6.354
 9879SOL    HW131476   3.324   8.008   6.327
 9879SOL    HW231477   3.360   8.094   6.446
 9880SOL     OW31478   0.999  14.087   2.877
 9880SOL    HW131479   0.942  14.099   2.954
 9880SOL    HW231480   0.953  14.023   2.823
 9881SOL     OW31481   3.253   7.919   1.091
 9881SOL    HW131482   3.319   7.986   1.077
 9881SOL    HW231483   3.169   7.965   1.085
 9882SOL     OW31484  13.785   2.482   1.088
 9882SOL    HW131485  13.828   2.563   1.060
 9882SOL    HW231486  13.692   2.498   1.073
 9883SOL     OW31487   7.425   7.050   6.159
 9883SOL    HW131488   7.351   7.097   6.198
 9883SOL    HW231489   7.423   7.074   6.066
 9884SOL     OW31490   1.982   1.689   0.452
 9884SOL    HW131491   2.042   1.757   0.423
 9884SOL    HW231492   2.029   1.643   0.521
 9885SOL     OW31493   4.534   9.771   7.554
 9885SOL    HW131494   4.613   9.742   7.508
 9885SOL    HW231495   4.478   9.694   7.555
 9886SOL     OW31496   7.413   1.772   0.948
 9886SOL    HW131497   7.403   1.688   0.993
 9886SOL    HW231498   7.472   1.822   1.004
 9887SOL     OW31499  14.245   8.406   0.204
 9887SOL    HW131500  14.284   8.478   0.156
 9887SOL    HW231501  14.312   8.337   0.205
 9888SOL     OW31502   3.698  10.628   3.885
 9888SOL    HW131503   3.665  10.559   3.828
 9888SOL    HW231504   3.689  10.592   3.973
 9889SOL     OW31505   5.577   1.579   1.010
 9889SOL    HW131506   5.497   1.533   1.034
 9889SOL    HW231507   5.646   1.535   1.060
 9890SOL     OW31508   2.698   1.657   9.418
 9890SOL    HW131509   2.746   1.694   9.343
 9890SOL    HW231510   2.715   1.563   9.413
 9891SOL     OW31511  10.467  13.252   3.827
 9891SOL    HW131512  10.550  13.299   3.834
 9891SOL    HW231513  10.408  13.298   3.886
 9892SOL     OW31514  10.674   5.441   4.926
 9892SOL    HW131515  10.691   5.368   4.984
 9892SOL    HW231516  10.578   5.446   4.921
 9893SOL     OW31517   7.942  13.013  13.872
 9893SOL    HW131518   7.927  12.961  13.951
 9893SOL    HW231519   7.935  12.950  13.800
 9894SOL     OW31520  14.598  11.364   6.499
 9894SOL    HW131521  14.655  11.322   6.434
 9894SOL    HW231522  14.552  11.432   6.450
 9895SOL     OW31523   9.341  13.190   0.908
 9895SOL    HW131524   9.370  13.195   0.999
 9895SOL    HW231525   9.386  13.114   0.872
 9896SOL     OW31526   3.239   0.928   4.580
 9896SOL    HW131527   3.310   0.918   4.644
 9896SOL    HW231528   3.271   0.885   4.501
 9897SOL     OW31529   0.831   9.973   1.664
 9897SOL    HW131530   0.924   9.982   1.643
 9897SOL    HW231531   0.798  10.063   1.662
 9898SOL     OW31532   7.918  14.002   3.169
 9898SOL    HW131533   7.937  13.991   3.076
 9898SOL    HW231534   7.946  13.920   3.209
 9899SOL     OW31535   1.857   7.469  12.648
 9899SOL    HW131536   1.871   7.374  12.648
 9899SOL    HW231537   1.773   7.481  12.692
 9900SOL     OW31538   7.594  13.909   9.692
 9900SOL    HW131539   7.690  13.913   9.696
 9900SOL    HW231540   7.565  13.964   9.765
 9901SOL     OW31541   4.189   8.375  10.072
 9901SOL    HW131542   4.210   8.357  10.164
 9901SOL    HW231543   4.103   8.418  10.075
 9902SOL     OW31544  13.099   6.533   1.316
 9902SOL    HW131545  13.141   6.455   1.279
 9902SOL    HW231546  13.159   6.605   1.295
 9903SOL     OW31547   6.498   7.774   6.856
 9903SOL    HW131548   6.552   7.726   6.918
 9903SOL    HW231549   6.455   7.706   6.804
 9904SOL     OW31550   9.190   9.871  11.630
 9904SOL    HW131551   9.280   9.849  11.606
 9904SOL    HW231552   9.192   9.878  11.726
 9905SOL     OW31553   8.098  12.221   1.030
 9905SOL    HW131554   8.128  12.241   0.941
 9905SOL    HW231555   8.109  12.303   1.078
 9906SOL     OW31556   9.057  11.085  11.509
 9906SOL    HW131557   9.117  11.094  11.584
 9906SOL    HW231558   9.088  11.007  11.463
 9907SOL     OW31559  13.442  11.850   9.405
 9907SOL    HW131560  13.496  11.816   9.335
 9907SOL    HW231561  13.409  11.772   9.450
 9908SOL     OW31562   9.602   7.782   6.536
 9908SOL    HW131563   9.554   7.865   6.534
 9908SOL    HW231564   9.600   7.755   6.627
 9909SOL     OW31565   2.053  10.508   4.382
 9909SOL    HW131566   2.097  10.459   4.313
 9909SOL    HW231567   2.031  10.443   4.448
 9910SOL     OW31568   3.516   2.274   1.665
 9910SOL    HW131569   3.491   2.237   1.580
 9910SOL    HW231570   3.588   2.334   1.646
 9911SOL     OW31571   6.218  12.275  12.074
 9911SOL    HW131572   6.286  12.236  12.130
 9911SOL    HW231573   6.192  12.354  12.121
 9912SOL     OW31574  11.321  10.073   9.727
 9912SOL    HW131575  11.373   9.995   9.707
 9912SOL    HW231576  11.355  10.140   9.668
 9913SOL     OW31577  13.524   7.292   1.251
 9913SOL    HW131578  13.436   7.259   1.270
 9913SOL    HW231579  13.552   7.333   1.333
 9914SOL     OW31580  12.383   3.383   1.237
 9914SOL    HW131581  12.326   3.389   1.314
 9914SOL    HW231582  12.323   3.382   1.162
 9915SOL     OW31583   9.836   9.291   7.435
 9915SOL    HW131584   9.790   9.375   7.444
 9915SOL    HW231585   9.876   9.277   7.520
 9916SOL     OW31586   2.280   5.648   7.909
 9916SOL    HW131587   2.276   5.585   7.981
 9916SOL    HW231588   2.213   5.619   7.848
 9917SOL     OW31589   4.247  13.213   4.016
 9917SOL    HW131590   4.296  13.283   4.060
 9917SOL    HW231591   4.173  13.257   3.976
 9918SOL     OW31592  14.148   2.224   7.026
 9918SOL    HW131593  14.230   2.208   7.071
 9918SOL    HW231594  14.135   2.147   6.970
 9919SOL     OW31595   1.560   7.347  10.086
 9919SOL    HW131596   1.489   7.310  10.138
 9919SOL    HW231597   1.636   7.346  10.145
 9920SOL     OW31598   9.258   7.451   7.649
 9920SOL    HW131599   9.310   7.449   7.730
 9920SOL    HW231600   9.246   7.359   7.627
 9921SOL     OW31601   0.796   6.076   7.870
 9921SOL    HW131602   0.845   6.158   7.880
 9921SOL    HW231603   0.852   6.021   7.815
 9922SOL     OW31604   8.384  11.626   7.593
 9922SOL    HW131605   8.339  11.612   7.510
 9922SOL    HW231606   8.476  11.609   7.574
 9923SOL     OW31607   8.223   4.978   9.571
 9923SOL    HW131608   8.143   4.925   9.569
 9923SOL    HW231609   8.293   4.917   9.593
 9924SOL     OW31610  14.573   4.065   1.702
 9924SOL    HW131611  14.527   4.137   1.659
 9924SOL    HW231612  14.642   4.107   1.753
 9925SOL     OW31613   8.279  13.540  13.777
 9925SOL    HW131614   8.262  13.524  13.685
 9925SOL    HW231615   8.346  13.608  13.778
 9926SOL     OW31616   7.586   1.701   3.864
 9926SOL    HW131617   7.583   1.734   3.953
 9926SOL    HW231618   7.615   1.610   3.873
 9927SOL     OW31619  12.548   7.250   5.203
 9927SOL    HW131620  12.511   7.210   5.282
 9927SOL    HW231621  12.633   7.208   5.192
 9928SOL     OW31622   8.162  14.424  12.875
 9928SOL    HW131623   8.234  14.375  12.835
 9928SOL    HW231624   8.133  14.368  12.947
 9929SOL     OW31625   1.063   2.885   7.498
 9929SOL    HW131626   1.029   2.975   7.495
 9929SOL    HW231627   1.036   2.852   7.584
 9930SOL     OW31628  12.863   3.921   5.356
 9930SOL    HW131629  12.805   3.915   5.431
 9930SOL    HW231630  12.807   3.949   5.284
 9931SOL     OW31631   8.948   1.684   5.991
 9931SOL    HW131632   9.039   1.656   5.982
 9931SOL    HW231633   8.897   1.618   5.944
 9932SOL     OW31634   5.415   4.434   0.653
 9932SOL    HW131635   5.413   4.503   0.720
 9932SOL    HW231636   5.328   4.439   0.612
 9933SOL     OW31637   7.065   4.719   3.787
 9933SOL    HW131638   6.991   4.682   3.739
 9933SOL    HW231639   7.120   4.759   3.720
 9934SOL     OW31640   3.258  10.199   4.212
 9934SOL    HW131641   3.219  10.133   4.155
 9934SOL    HW231642   3.329  10.154   4.257
 9935SOL     OW31643  14.694  11.948   6.820
 9935SOL    HW131644  14.678  12.042   6.831
 9935SOL    HW231645  14.632  11.906   6.879
 9936SOL     OW31646  14.671  10.045   9.217
 9936SOL    HW131647  14.706  10.029   9.305
 9936SOL    HW231648  14.688  10.138   9.201
 9937SOL     OW31649  13.645   2.237   8.793
 9937SOL    HW131650  13.675   2.205   8.878
 9937SOL    HW231651  13.722   2.230   8.736
 9938SOL     OW31652  12.284  11.247  12.849
 9938SOL    HW131653  12.230  11.291  12.784
 9938SOL    HW231654  12.239  11.165  12.867
 9939SOL     OW31655   8.786   4.371  10.599
 9939SOL    HW131656   8.745   4.303  10.546
 9939SOL    HW231657   8.873   4.382  10.560
 9940SOL     OW31658   9.276   5.647  13.390
 9940SOL    HW131659   9.260   5.597  13.310
 9940SOL    HW231660   9.206   5.619  13.450
 9941SOL     OW31661   7.043  13.805   7.541
 9941SOL    HW131662   6.984  13.759   7.601
 9941SOL    HW231663   7.005  13.892   7.532
 9942SOL     OW31664  11.292   7.934  14.392
 9942SOL    HW131665  11.215   7.990  14.378
 9942SOL    HW231666  11.296   7.923  14.487
 9943SOL     OW31667  13.429   2.562   8.268
 9943SOL    HW131668  13.481   2.642   8.261
 9943SOL    HW231669  13.488   2.499   8.309
 9944SOL     OW31670  14.135   3.458   9.684
 9944SOL    HW131671  14.047   3.474   9.651
 9944SOL    HW231672  14.182   3.419   9.610
 9945SOL     OW31673   9.340   7.254   6.132
 9945SOL    HW131674   9.418   7.297   6.096
 9945SOL    HW231675   9.305   7.202   6.059
 9946SOL     OW31676  10.385   8.224  10.085
 9946SOL    HW131677  10.295   8.214  10.117
 9946SOL    HW231678  10.429   8.144  10.114
 9947SOL     OW31679  11.439   4.886   0.684
 9947SOL    HW131680  11.403   4.840   0.608
 9947SOL    HW231681  11.388   4.851   0.758
 9948SOL     OW31682  11.071  14.409   4.961
 9948SOL    HW131683  11.084  14.496   4.924
 9948SOL    HW231684  11.154  14.387   5.003
 9949SOL     OW31685  14.225   1.614   4.768
 9949SOL    HW131686  14.215   1.707   4.751
 9949SOL    HW231687  14.297   1.586   4.710
 9950SOL     OW31688   1.330   7.788   8.784
 9950SOL    HW131689   1.323   7.870   8.736
 9950SOL    HW231690   1.329   7.814   8.876
 9951SOL     OW31691   4.163  11.832  10.436
 9951SOL    HW131692   4.110  11.909  10.419
 9951SOL    HW231693   4.244  11.847  10.386
 9952SOL     OW31694   6.233   6.774   0.712
 9952SOL    HW131695   6.186   6.701   0.752
 9952SOL    HW231696   6.309   6.732   0.671
 9953SOL     OW31697   0.481  12.853  14.757
 9953SOL    HW131698   0.509  12.910  14.686
 9953SOL    HW231699   0.461  12.912  14.830
 9954SOL     OW31700  11.706  10.666   6.927
 9954SOL    HW131701  11.728  10.726   6.998
 9954SOL    HW231702  11.718  10.579   6.965
 9955SOL     OW31703   5.889   5.965   9.440
 9955SOL    HW131704   5.800   5.931   9.440
 9955SOL    HW231705   5.911   5.974   9.348
 9956SOL     OW31706   3.527  13.039  13.847
 9956SOL    HW131707   3.619  13.057  13.867
 9956SOL    HW231708   3.521  13.042  13.752
 9957SOL     OW31709  14.637  14.353   1.085
 9957SOL    HW131710  14.673  14.274   1.044
 9957SOL    HW231711  14.706  14.419   1.076
 9958SOL     OW31712   5.898   1.487  10.381
 9958SOL    HW131713   5.857   1.406  10.349
 9958SOL    HW231714   5.843   1.557  10.345
 9959SOL     OW31715   8.668   1.456  14.329
 9959SOL    HW131716   8.710   1.474  14.245
 9959SOL    HW231717   8.664   1.541  14.373
 9960SOL     OW31718   0.208   7.802   1.217
 9960SOL    HW131719   0.271   7.731   1.230
 9960SOL    HW231720   0.261   7.874   1.180
 9961SOL     OW31721   3.638  12.564   9.816
 9961SOL    HW131722   3.619  12.649   9.855
 9961SOL    HW231723   3.560  12.543   9.763
 9962SOL     OW31724   3.397   1.006  13.175
 9962SOL    HW131725   3.416   0.919  13.140
 9962SOL    HW231726   3.432   1.004  13.265
 9963SOL     OW31727  12.810   3.308  13.524
 9963SOL    HW131728  12.844   3.390  13.560
 9963SOL    HW231729  12.887   3.267  13.484
 9964SOL     OW31730  12.088   6.169  14.220
 9964SOL    HW131731  12.171   6.137  14.183
 9964SOL    HW231732  12.025   6.157  14.149
 9965SOL     OW31733   1.761   4.845   2.628
 9965SOL    HW131734   1.793   4.776   2.570
 9965SOL    HW231735   1.740   4.918   2.570
 9966SOL     OW31736   9.195  14.842   1.609
 9966SOL    HW131737   9.225   0.056   1.599
 9966SOL    HW231738   9.203  14.804   1.522
 9967SOL     OW31739   8.909   1.890   8.970
 9967SOL    HW131740   8.919   1.909   8.877
 9967SOL    HW231741   8.900   1.975   9.011
 9968SOL     OW31742   5.450   5.105  12.069
 9968SOL    HW131743   5.416   5.021  12.040
 9968SOL    HW231744   5.544   5.100  12.052
 9969SOL     OW31745  10.915  12.715   8.234
 9969SOL    HW131746  10.921  12.811   8.226
 9969SOL    HW231747  10.942  12.697   8.324
 9970SOL     OW31748   9.196  13.082   5.278
 9970SOL    HW131749   9.112  13.126   5.267
 9970SOL    HW231750   9.220  13.054   5.190
 9971SOL     OW31751  13.457   1.701   3.765
 9971SOL    HW131752  13.394   1.665   3.827
 9971SOL    HW231753  13.486   1.625   3.714
 9972SOL     OW31754   1.247   6.910   4.494
 9972SOL    HW131755   1.336   6.943   4.492
 9972SOL    HW231756   1.193   6.987   4.512
 9973SOL     OW31757   6.663  13.241   1.446
 9973SOL    HW131758   6.697  13.151   1.438
 9973SOL    HW231759   6.586  13.232   1.502
 9974SOL     OW31760  14.861   9.488   2.406
 9974SOL    HW131761  14.858   9.405   2.358
 9974SOL    HW231762  14.772   9.523   2.398
 9975SOL     OW31763  10.914   2.343  13.868
 9975SOL    HW131764  10.833   2.388  13.844
 9975SOL    HW231765  10.969   2.411  13.908
 9976SOL     OW31766  13.186   1.814   9.866
 9976SOL    HW131767  13.249   1.882   9.845
 9976SOL    HW231768  13.236   1.732   9.858
 9977SOL     OW31769   3.243   3.692  13.066
 9977SOL    HW131770   3.268   3.608  13.028
 9977SOL    HW231771   3.159   3.712  13.025
 9978SOL     OW31772   6.335   1.518   1.316
 9978SOL    HW131773   6.258   1.498   1.369
 9978SOL    HW231774   6.309   1.494   1.227
 9979SOL     OW31775   2.046   2.114   7.546
 9979SOL    HW131776   2.088   2.089   7.464
 9979SOL    HW231777   1.979   2.178   7.521
 9980SOL     OW31778   1.749   9.168  12.428
 9980SOL    HW131779   1.717   9.137  12.343
 9980SOL    HW231780   1.705   9.110  12.491
 9981SOL     OW31781  10.705   3.770   3.395
 9981SOL    HW131782  10.784   3.725   3.424
 9981SOL    HW231783  10.729   3.862   3.390
 9982SOL     OW31784   9.142  12.401   1.606
 9982SOL    HW131785   9.118  12.349   1.683
 9982SOL    HW231786   9.236  12.390   1.598
 9983SOL     OW31787  10.667   5.188   6.478
 9983SOL    HW131788  10.657   5.267   6.426
 9983SOL    HW231789  10.706   5.217   6.560
 9984SOL     OW31790   6.043   2.274  13.549
 9984SOL    HW131791   6.092   2.194  13.531
 9984SOL    HW231792   6.057   2.328  13.471
 9985SOL     OW31793  11.027  14.568  13.288
 9985SOL    HW131794  11.006  14.608  13.203
 9985SOL    HW231795  10.999  14.633  13.352
 9986SOL     OW31796   0.853   6.798  14.726
 9986SOL    HW131797   0.912   6.733  14.686
 9986SOL    HW231798   0.792   6.821  14.656
 9987SOL     OW31799   2.328   7.424  11.621
 9987SOL    HW131800   2.376   7.343  11.604
 9987SOL    HW231801   2.395   7.485  11.653
 9988SOL     OW31802   6.301   3.917   8.077
 9988SOL    HW131803   6.252   3.840   8.107
 9988SOL    HW231804   6.274   3.928   7.986
 9989SOL     OW31805   9.341   5.252  13.343
 9989SOL    HW131806   9.286   5.226  13.418
 9989SOL    HW231807   9.418   5.293  13.383
 9990SOL     OW31808  12.425   7.589   6.490
 9990SOL    HW131809  12.390   7.563   6.405
 9990SOL    HW231810  12.390   7.524   6.551
 9991SOL     OW31811  12.466   7.108   5.641
 9991SOL    HW131812  12.420   7.056   5.706
 9991SOL    HW231813  12.559   7.089   5.657
 9992SOL     OW31814  12.845   2.950   3.857
 9992SOL    HW131815  12.845   3.038   3.819
 9992SOL    HW231816  12.753   2.929   3.870
 9993SOL     OW31817  13.239   3.693   6.597
 9993SOL    HW131818  13.145   3.678   6.600
 9993SOL    HW231819  13.275   3.611   6.561
 9994SOL     OW31820   7.502   8.703   0.830
 9994SOL    HW131821   7.577   8.644   0.822
 9994SOL    HW231822   7.528   8.765   0.898
 9995SOL     OW31823   4.574   0.767   7.562
 9995SOL    HW131824   4.484   0.752   7.592
 9995SOL    HW231825   4.564   0.795   7.471
 9996SOL     OW31826   6.137   3.508   7.577
 9996SOL    HW131827   6.134   3.413   7.573
 9996SOL    HW231828   6.074   3.531   7.645
 9997SOL     OW31829  13.335  13.335   5.541
 9997SOL    HW131830  13.257  13.308   5.589
 9997SOL    HW231831  13.303  13.356   5.453
 9998SOL     OW31832   7.228   3.079  12.008
 9998SOL    HW131833   7.299   3.134  12.042
 9998SOL    HW231834   7.170   3.139  11.963
 9999SOL     OW31835  10.790  14.736   6.173
 9999SOL    HW131836  10.718  14.793   6.146
 9999SOL    HW231837  10.863  14.796   6.189
10000SOL     OW31838   8.685   0.036   2.584
10000SOL    HW131839   8.631   0.061   2.509
10000SOL    HW231840   8.653   0.092   2.655
10001SOL     OW31841   6.781  13.767  13.605
10001SOL    HW131842   6.763  13.728  13.690
10001SOL    HW231843   6.808  13.856  13.625
10002SOL     OW31844   4.763  10.635  13.136
10002SOL    HW131845   4.836  10.580  13.165
10002SOL    HW231846   4.710  10.577  13.081
10003SOL     OW31847  11.439   3.932  10.365
10003SOL    HW131848  11.343   3.937  10.360
10003SOL    HW231849  11.463   3.869  10.297
10004SOL     OW31850  12.355   1.793   3.134
10004SOL    HW131851  12.399   1.831   3.210
10004SOL    HW231852  12.379   1.700   3.137
10005SOL     OW31853   2.343   2.718   7.202
10005SOL    HW131854   2.291   2.782   7.250
10005SOL    HW231855   2.280   2.654   7.170
10006SOL     OW31856  11.276   1.191   4.457
10006SOL    HW131857  11.262   1.269   4.403
10006SOL    HW231858  11.322   1.223   4.535
10007SOL     OW31859   9.464  14.267   0.166
10007SOL    HW131860   9.449  14.176   0.143
10007SOL    HW231861   9.392  14.315   0.125
10008SOL     OW31862   3.877   8.701   6.685
10008SOL    HW131863   3.855   8.633   6.622
10008SOL    HW231864   3.890   8.654   6.768
10009SOL     OW31865  11.077   7.525   0.821
10009SOL    HW131866  11.108   7.439   0.849
10009SOL    HW231867  11.035   7.510   0.737
10010SOL     OW31868   6.499  14.585   1.564
10010SOL    HW131869   6.459  14.598   1.650
10010SOL    HW231870   6.469  14.499   1.536
10011SOL     OW31871   9.796   5.028  10.315
10011SOL    HW131872   9.864   4.969  10.284
10011SOL    HW231873   9.717   5.002  10.268
10012SOL     OW31874  13.598   0.644   1.121
10012SOL    HW131875  13.689   0.663   1.098
10012SOL    HW231876  13.574   0.714   1.182
10013SOL     OW31877  13.960   2.853  13.394
10013SOL    HW131878  14.010   2.771  13.393
10013SOL    HW231879  13.997   2.903  13.321
10014SOL     OW31880   4.664   9.057   7.277
10014SOL    HW131881   4.662   8.961   7.276
10014SOL    HW231882   4.626   9.083   7.193
10015SOL     OW31883   3.590   4.984   1.390
10015SOL    HW131884   3.654   5.020   1.451
10015SOL    HW231885   3.642   4.941   1.322
10016SOL     OW31886   7.089   0.713   2.916
10016SOL    HW131887   6.997   0.700   2.939
10016SOL    HW231888   7.117   0.629   2.880
10017SOL     OW31889   7.536   4.629   1.398
10017SOL    HW131890   7.547   4.673   1.314
10017SOL    HW231891   7.478   4.686   1.448
10018SOL     OW31892   5.950  13.057  13.554
10018SOL    HW131893   5.997  13.127  13.598
10018SOL    HW231894   5.997  12.977  13.577
10019SOL     OW31895   2.523   9.996   9.842
10019SOL    HW131896   2.572   9.962   9.917
10019SOL    HW231897   2.438  10.021   9.877
10020SOL     OW31898  14.261   0.760   3.651
10020SOL    HW131899  14.264   0.828   3.719
10020SOL    HW231900  14.257   0.809   3.569
10021SOL     OW31901   7.870   4.370   8.838
10021SOL    HW131902   7.934   4.423   8.790
10021SOL    HW231903   7.903   4.281   8.831
10022SOL     OW31904  12.558  13.977   9.028
10022SOL    HW131905  12.524  14.029   8.956
10022SOL    HW231906  12.545  14.031   9.106
10023SOL     OW31907   3.663   8.732   8.166
10023SOL    HW131908   3.710   8.781   8.233
10023SOL    HW231909   3.668   8.788   8.088
10024SOL     OW31910   8.442   3.633   2.892
10024SOL    HW131911   8.499   3.627   2.969
10024SOL    HW231912   8.484   3.578   2.827
10025SOL     OW31913   5.175   4.812  10.530
10025SOL    HW131914   5.153   4.848  10.616
10025SOL    HW231915   5.106   4.844  10.472
10026SOL     OW31916   2.411  11.495   5.103
10026SOL    HW131917   2.498  11.460   5.085
10026SOL    HW231918   2.396  11.475   5.196
10027SOL     OW31919   7.118  12.085   0.503
10027SOL    HW131920   7.024  12.103   0.509
10027SOL    HW231921   7.157  12.139   0.572
10028SOL     OW31922   8.672  12.138   3.753
10028SOL    HW131923   8.703  12.147   3.843
10028SOL    HW231924   8.722  12.065   3.717
10029SOL     OW31925   7.599   7.175  11.008
10029SOL    HW131926   7.616   7.148  10.918
10029SOL    HW231927   7.576   7.093  11.053
10030SOL     OW31928   8.762   1.572  10.308
10030SOL    HW131929   8.672   1.542  10.301
10030SOL    HW231930   8.756   1.658  10.348
10031SOL     OW31931   5.170   6.378  14.793
10031SOL    HW131932   5.086   6.389  14.748
10031SOL    HW231933   5.154   6.411   0.005
10032SOL     OW31934   5.328  10.317  13.794
10032SOL    HW131935   5.300  10.320  13.886
10032SOL    HW231936   5.422  10.331  13.797
10033SOL     OW31937  11.040   0.966   7.460
10033SOL    HW131938  11.043   0.896   7.525
10033SOL    HW231939  10.960   0.949   7.411
10034SOL     OW31940  10.705   2.443   3.903
10034SOL    HW131941  10.791   2.403   3.891
10034SOL    HW231942  10.703   2.514   3.840
10035SOL     OW31943  12.843   4.867   6.730
10035SOL    HW131944  12.765   4.921   6.743
10035SOL    HW231945  12.815   4.779   6.752
10036SOL     OW31946  10.583   2.727   4.132
10036SOL    HW131947  10.605   2.647   4.180
10036SOL    HW231948  10.667   2.772   4.120
10037SOL     OW31949   8.380  12.207  11.070
10037SOL    HW131950   8.318  12.187  11.000
10037SOL    HW231951   8.452  12.147  11.056
10038SOL     OW31952   0.345  11.279   1.621
10038SOL    HW131953   0.426  11.320   1.591
10038SOL    HW231954   0.341  11.300   1.714
10039SOL     OW31955  10.478   6.175   0.779
10039SOL    HW131956  10.401   6.173   0.721
10039SOL    HW231957  10.545   6.126   0.732
10040SOL     OW31958   5.992  10.934   0.112
10040SOL    HW131959   5.961  10.995   0.178
10040SOL    HW231960   6.062  10.980   0.066
10041SOL     OW31961   3.625  13.824   2.574
10041SOL    HW131962   3.635  13.857   2.484
10041SOL    HW231963   3.714  13.801   2.601
10042SOL     OW31964   9.264   0.929   1.125
10042SOL    HW131965   9.183   0.967   1.158
10042SOL    HW231966   9.242   0.838   1.106
10043SOL     OW31967  12.980   4.066  11.872
10043SOL    HW131968  13.054   4.019  11.835
10043SOL    HW231969  12.983   4.152  11.832
10044SOL     OW31970   7.079   2.765  12.263
10044SOL    HW131971   7.009   2.775  12.328
10044SOL    HW231972   7.109   2.675  12.274
10045SOL     OW31973  12.534   7.711   4.284
10045SOL    HW131974  12.583   7.654   4.225
10045SOL    HW231975  12.599   7.741   4.348
10046SOL     OW31976   4.210  13.607   8.136
10046SOL    HW131977   4.296  13.639   8.165
10046SOL    HW231978   4.213  13.612   8.041
10047SOL     OW31979  12.087   0.487   1.039
10047SOL    HW131980  12.152   0.509   1.107
10047SOL    HW231981  12.011   0.456   1.088
10048SOL     OW31982   9.354   5.614   1.798
10048SOL    HW131983   9.343   5.527   1.836
10048SOL    HW231984   9.267   5.638   1.766
10049SOL     OW31985   6.376  13.995  11.575
10049SOL    HW131986   6.395  13.994  11.669
10049SOL    HW231987   6.461  13.983  11.534
10050SOL     OW31988   0.793   4.129  11.063
10050SOL    HW131989   0.774   4.206  11.118
10050SOL    HW231990   0.747   4.147  10.981
10051SOL     OW31991   1.508   8.628   6.797
10051SOL    HW131992   1.427   8.606   6.751
10051SOL    HW231993   1.513   8.723   6.792
10052SOL     OW31994  11.616   4.628   6.303
10052SOL    HW131995  11.549   4.659   6.243
10052SOL    HW231996  11.623   4.534   6.285
10053SOL     OW31997  12.680   0.216  11.451
10053SOL    HW131998  12.767   0.241  11.420
10053SOL    HW231999  12.676   0.122  11.437
10054SOL     OW32000   1.459  13.520   5.184
10054SOL    HW132001   1.495  13.597   5.230
10054SOL    HW232002   1.485  13.446   5.238
10055SOL     OW32003   3.463   4.447   6.929
10055SOL    HW132004   3.551   4.485   6.936
10055SOL    HW232005   3.467   4.368   6.983
10056SOL     OW32006   3.863   5.180   2.683
10056SOL    HW132007   3.889   5.114   2.618
10056SOL    HW232008   3.942   5.232   2.696
10057SOL     OW32009   1.767   7.681  13.788
10057SOL    HW132010   1.789   7.680  13.881
10057SOL    HW232011   1.684   7.634  13.782
10058SOL     OW32012   7.791  10.102  14.237
10058SOL    HW132013   7.853  10.174  14.233
10058SOL    HW232014   7.739  10.119  14.315
10059SOL     OW32015  11.737  11.417   6.127
10059SOL    HW132016  11.642  11.417   6.144
10059SOL    HW232017  11.751  11.343   6.069
10060SOL     OW32018  11.274   1.686   5.769
10060SOL    HW132019  11.271   1.593   5.792
10060SOL    HW232020  11.274   1.732   5.854
10061SOL     OW32021   0.642   6.357  12.767
10061SOL    HW132022   0.631   6.438  12.718
10061SOL    HW232023   0.667   6.386  12.855
10062SOL     OW32024   8.049  11.356   6.261
10062SOL    HW132025   8.126  11.340   6.316
10062SOL    HW232026   7.987  11.287   6.284
10063SOL     OW32027   2.497  10.930   7.451
10063SOL    HW132028   2.426  10.892   7.502
10063SOL    HW232029   2.510  10.869   7.379
10064SOL     OW32030  13.366   5.457   1.817
10064SOL    HW132031  13.330   5.542   1.841
10064SOL    HW232032  13.417   5.474   1.738
10065SOL     OW32033   3.268   3.669  14.675
10065SOL    HW132034   3.238   3.694  14.763
10065SOL    HW232035   3.364   3.676  14.680
10066SOL     OW32036   2.005   5.268   6.739
10066SOL    HW132037   2.086   5.236   6.779
10066SOL    HW232038   2.025   5.272   6.645
10067SOL     OW32039   9.136  11.944   8.943
10067SOL    HW132040   9.062  11.988   8.984
10067SOL    HW232041   9.199  11.933   9.015
10068SOL     OW32042   1.257  11.382  13.821
10068SOL    HW132043   1.319  11.454  13.835
10068SOL    HW232044   1.228  11.357  13.908
10069SOL     OW32045   2.844   1.393   1.145
10069SOL    HW132046   2.815   1.476   1.182
10069SOL    HW232047   2.940   1.400   1.142
10070SOL     OW32048   6.219   1.321   6.781
10070SOL    HW132049   6.179   1.354   6.700
10070SOL    HW232050   6.195   1.229   6.783
10071SOL     OW32051   2.851  14.014  11.601
10071SOL    HW132052   2.905  14.056  11.534
10071SOL    HW232053   2.847  14.078  11.672
10072SOL     OW32054   0.082   9.698   6.647
10072SOL    HW132055   0.120   9.611   6.662
10072SOL    HW232056   0.064   9.731   6.735
10073SOL     OW32057   0.568   9.159   9.156
10073SOL    HW132058   0.623   9.194   9.226
10073SOL    HW232059   0.544   9.071   9.185
10074SOL     OW32060  13.899   6.837  14.572
10074SOL    HW132061  13.903   6.807  14.663
10074SOL    HW232062  13.989   6.865  14.552
10075SOL     OW32063   1.091   1.260   2.124
10075SOL    HW132064   1.123   1.174   2.149
10075SOL    HW232065   0.998   1.258   2.148
10076SOL     OW32066   7.874   5.875   4.308
10076SOL    HW132067   7.811   5.945   4.291
10076SOL    HW232068   7.909   5.853   4.222
10077SOL     OW32069   9.838   0.525  11.320
10077SOL    HW132070   9.783   0.448  11.303
10077SOL    HW232071   9.834   0.576  11.239
10078SOL     OW32072   4.818  14.477   8.065
10078SOL    HW132073   4.830  14.382   8.067
10078SOL    HW232074   4.877  14.510   8.133
10079SOL     OW32075   4.087   8.168   5.843
10079SOL    HW132076   4.075   8.242   5.903
10079SOL    HW232077   4.117   8.096   5.899
10080SOL     OW32078   4.058  10.859   0.109
10080SOL    HW132079   4.061  10.953   0.090
10080SOL    HW232080   3.965  10.841   0.123
10081SOL     OW32081   2.742  10.176   8.276
10081SOL    HW132082   2.787  10.219   8.203
10081SOL    HW232083   2.683  10.243   8.310
10082SOL     OW32084  11.843   0.437  11.785
10082SOL    HW132085  11.890   0.491  11.849
10082SOL    HW232086  11.901   0.436  11.708
10083SOL     OW32087  10.116   2.968   5.956
10083SOL    HW132088  10.049   2.900   5.952
10083SOL    HW232089  10.066   3.050   5.956
10084SOL     OW32090  14.220   9.674   5.477
10084SOL    HW132091  14.206   9.595   5.425
10084SOL    HW232092  14.277   9.645   5.549
10085SOL     OW32093   7.391   1.559   7.144
10085SOL    HW132094   7.397   1.573   7.238
10085SOL    HW232095   7.382   1.647   7.107
10086SOL     OW32096   3.654  10.016  13.093
10086SOL    HW132097   3.564  10.046  13.101
10086SOL    HW232098   3.655   9.965  13.011
10087SOL     OW32099   3.858   4.190  11.210
10087SOL    HW132100   3.945   4.171  11.246
10087SOL    HW232101   3.804   4.116  11.239
10088SOL     OW32102   6.918   6.247  13.070
10088SOL    HW132103   6.896   6.287  13.155
10088SOL    HW232104   6.864   6.294  13.007
10089SOL     OW32105  14.054   9.451   0.869
10089SOL    HW132106  14.014   9.529   0.831
10089SOL    HW232107  14.148   9.465   0.858
10090SOL     OW32108   8.584  14.525  14.605
10090SOL    HW132109   8.600  14.500  14.514
10090SOL    HW232110   8.645  14.472  14.656
10091SOL     OW32111  14.283   0.797   5.813
10091SOL    HW132112  14.252   0.841   5.892
10091SOL    HW232113  14.316   0.712   5.844
10092SOL     OW32114  10.298   8.257   8.971
10092SOL    HW132115  10.355   8.303   8.910
10092SOL    HW232116  10.209   8.276   8.941
10093SOL     OW32117   7.836   6.715   9.258
10093SOL    HW132118   7.777   6.640   9.267
10093SOL    HW232119   7.921   6.676   9.240
10094SOL     OW32120  11.732   1.157   6.677
10094SOL    HW132121  11.815   1.111   6.664
10094SOL    HW232122  11.741   1.198   6.763
10095SOL     OW32123  10.425  14.868   9.950
10095SOL    HW132124  10.347   0.046   9.940
10095SOL    HW232125  10.474   0.003   9.869
10096SOL     OW32126   1.270   6.919   6.446
10096SOL    HW132127   1.317   6.838   6.462
10096SOL    HW232128   1.185   6.892   6.410
10097SOL     OW32129  14.332  14.067  13.919
10097SOL    HW132130  14.329  14.096  13.827
10097SOL    HW232131  14.423  14.040  13.932
10098SOL     OW32132  10.844   5.308   1.589
10098SOL    HW132133  10.826   5.223   1.629
10098SOL    HW232134  10.813   5.299   1.499
10099SOL     OW32135   6.581   6.012   2.705
10099SOL    HW132136   6.530   6.064   2.767
10099SOL    HW232137   6.532   5.931   2.696
10100SOL     OW32138  11.170   0.110   9.851
10100SOL    HW132139  11.165   0.076   9.762
10100SOL    HW232140  11.082   0.101   9.885
10101SOL     OW32141  11.514  13.513   2.820
10101SOL    HW132142  11.422  13.488   2.827
10101SOL    HW232143  11.512  13.607   2.803
10102SOL     OW32144  12.890   7.531  13.108
10102SOL    HW132145  12.856   7.613  13.145
10102SOL    HW232146  12.892   7.470  13.182
10103SOL     OW32147   1.682   8.688   0.343
10103SOL    HW132148   1.681   8.687   0.438
10103SOL    HW232149   1.725   8.607   0.318
10104SOL     OW32150   6.833   7.830   4.186
10104SOL    HW132151   6.811   7.771   4.114
10104SOL    HW232152   6.849   7.771   4.260
10105SOL     OW32153   1.066  14.197   7.326
10105SOL    HW132154   1.002  14.254   7.369
10105SOL    HW232155   1.151  14.231   7.355
10106SOL     OW32156  14.465  11.616  12.590
10106SOL    HW132157  14.501  11.689  12.640
10106SOL    HW232158  14.396  11.581  12.646
10107SOL     OW32159   4.410  12.625   6.119
10107SOL    HW132160   4.427  12.712   6.081
10107SOL    HW232161   4.436  12.633   6.210
10108SOL     OW32162   8.892  13.922   9.137
10108SOL    HW132163   8.918  13.929   9.045
10108SOL    HW232164   8.924  13.835   9.164
10109SOL     OW32165   0.107   4.501   8.263
10109SOL    HW132166   0.028   4.460   8.300
10109SOL    HW232167   0.177   4.475   8.322
10110SOL     OW32168   5.154   8.300  10.367
10110SOL    HW132169   5.162   8.336  10.279
10110SOL    HW232170   5.163   8.376  10.425
10111SOL     OW32171   9.451   9.202  11.918
10111SOL    HW132172   9.495   9.139  11.974
10111SOL    HW232173   9.361   9.206  11.952
10112SOL     OW32174  13.172   5.060   6.529
10112SOL    HW132175  13.129   5.065   6.444
10112SOL    HW232176  13.179   4.966   6.546
10113SOL     OW32177   1.748   0.710   1.364
10113SOL    HW132178   1.653   0.700   1.367
10113SOL    HW232179   1.775   0.667   1.283
10114SOL     OW32180   7.076   0.016   2.573
10114SOL    HW132181   7.057  14.802   2.596
10114SOL    HW232182   6.991   0.061   2.581
10115SOL     OW32183   1.941   7.300  14.722
10115SOL    HW132184   1.860   7.319  14.673
10115SOL    HW232185   1.930   7.209  14.752
10116SOL     OW32186   8.711  13.088   0.962
10116SOL    HW132187   8.772  13.155   0.934
10116SOL    HW232188   8.743  13.007   0.922
10117SOL     OW32189  11.792   7.021   9.511
10117SOL    HW132190  11.814   7.058   9.596
10117SOL    HW232191  11.877   6.994   9.474
10118SOL     OW32192  12.834  12.596   5.849
10118SOL    HW132193  12.916  12.548   5.861
10118SOL    HW232194  12.798  12.605   5.937
10119SOL     OW32195  13.124   4.624  11.184
10119SOL    HW132196  13.214   4.650  11.203
10119SOL    HW232197  13.129   4.530  11.166
10120SOL     OW32198   4.850   1.559   1.111
10120SOL    HW132199   4.911   1.494   1.076
10120SOL    HW232200   4.875   1.569   1.203
10121SOL     OW32201   1.237   8.956   2.576
10121SOL    HW132202   1.158   8.992   2.617
10121SOL    HW232203   1.276   9.029   2.529
10122SOL     OW32204   9.467  14.767  11.347
10122SOL    HW132205   9.562  14.754  11.352
10122SOL    HW232206   9.432  14.680  11.325
10123SOL     OW32207   1.627   6.002   0.573
10123SOL    HW132208   1.677   5.942   0.627
10123SOL    HW232209   1.558   5.949   0.534
10124SOL     OW32210   5.199   2.124   6.274
10124SOL    HW132211   5.201   2.089   6.185
10124SOL    HW232212   5.189   2.218   6.263
10125SOL     OW32213   2.117   6.760   7.761
10125SOL    HW132214   2.203   6.776   7.722
10125SOL    HW232215   2.076   6.847   7.766
10126SOL     OW32216  14.401   5.990   0.864
10126SOL    HW132217  14.381   5.961   0.775
10126SOL    HW232218  14.402   6.085   0.859
10127SOL     OW32219  14.226   0.983   3.806
10127SOL    HW132220  14.136   1.009   3.782
10127SOL    HW232221  14.229   0.992   3.901
10128SOL     OW32222   0.735   6.362   6.925
10128SOL    HW132223   0.718   6.454   6.944
10128SOL    HW232224   0.724   6.354   6.831
10129SOL     OW32225   7.873   2.159  13.550
10129SOL    HW132226   7.865   2.162  13.455
10129SOL    HW232227   7.882   2.251  13.577
10130SOL     OW32228   8.533  13.795  12.572
10130SOL    HW132229   8.517  13.728  12.639
10130SOL    HW232230   8.540  13.877  12.622
10131SOL     OW32231   4.320  10.676  13.623
10131SOL    HW132232   4.290  10.609  13.685
10131SOL    HW232233   4.388  10.632  13.572
10132SOL     OW32234  14.788   3.042   9.120
10132SOL    HW132235  14.723   3.031   9.189
10132SOL    HW232236  14.859   3.092   9.162
10133SOL     OW32237   7.983  13.218   9.637
10133SOL    HW132238   7.979  13.267   9.555
10133SOL    HW232239   8.046  13.266   9.691
10134SOL     OW32240   7.164   4.925  11.987
10134SOL    HW132241   7.226   4.991  11.956
10134SOL    HW232242   7.108   4.971  12.050
10135SOL     OW32243   3.167   2.737  11.494
10135SOL    HW132244   3.181   2.831  11.500
10135SOL    HW232245   3.239   2.699  11.545
10136SOL     OW32246   4.380   5.873   0.176
10136SOL    HW132247   4.321   5.843   0.245
10136SOL    HW232248   4.422   5.794   0.144
10137SOL     OW32249   0.936   3.503   8.970
10137SOL    HW132250   0.998   3.431   8.959
10137SOL    HW232251   0.853   3.460   8.992
10138SOL     OW32252  13.761  10.955  11.034
10138SOL    HW132253  13.749  10.919  11.122
10138SOL    HW232254  13.773  11.049  11.048
10139SOL     OW32255   2.123  11.963   8.534
10139SOL    HW132256   2.067  12.004   8.468
10139SOL    HW232257   2.210  12.001   8.519
10140SOL     OW32258   0.293   4.657  12.677
10140SOL    HW132259   0.271   4.602  12.752
10140SOL    HW232260   0.232   4.630  12.609
10141SOL     OW32261   6.682   4.114   2.859
10141SOL    HW132262   6.636   4.144   2.781
10141SOL    HW232263   6.732   4.038   2.830
10142SOL     OW32264   9.214   8.387   2.211
10142SOL    HW132265   9.126   8.398   2.173
10142SOL    HW232266   9.247   8.477   2.221
10143SOL     OW32267   3.421   5.460  11.325
10143SOL    HW132268   3.404   5.547  11.290
10143SOL    HW232269   3.515   5.446  11.311
10144SOL     OW32270   0.092  12.451   5.677
10144SOL    HW132271   0.067  12.389   5.746
10144SOL    HW232272   0.168  12.411   5.635
10145SOL     OW32273   4.909   2.235  11.787
10145SOL    HW132274   4.962   2.312  11.766
10145SOL    HW232275   4.973   2.168  11.811
10146SOL     OW32276  13.506   8.047  11.201
10146SOL    HW132277  13.505   7.970  11.258
10146SOL    HW232278  13.542   8.117  11.256
10147SOL     OW32279  13.986   7.288   1.194
10147SOL    HW132280  14.051   7.324   1.254
10147SOL    HW232281  13.957   7.207   1.236
10148SOL     OW32282   3.828   1.072   1.921
10148SOL    HW132283   3.841   1.164   1.897
10148SOL    HW232284   3.912   1.030   1.901
10149SOL     OW32285   5.705   7.083  12.984
10149SOL    HW132286   5.723   7.166  12.940
10149SOL    HW232287   5.703   7.018  12.914
10150SOL     OW32288  14.595   3.340   8.062
10150SOL    HW132289  14.536   3.316   8.134
10150SOL    HW232290  14.572   3.281   7.991
10151SOL     OW32291   0.017   1.063   6.230
10151SOL    HW132292  14.813   1.058   6.282
10151SOL    HW232293  14.875   1.130   6.165
10152SOL     OW32294   2.241  14.560   8.201
10152SOL    HW132295   2.275  14.513   8.125
10152SOL    HW232296   2.169  14.506   8.233
10153SOL     OW32297   5.191   1.826  14.618
10153SOL    HW132298   5.266   1.768  14.602
10153SOL    HW232299   5.119   1.785  14.571
10154SOL     OW32300   4.149  13.128   5.938
10154SOL    HW132301   4.241  13.149   5.950
10154SOL    HW232302   4.142  13.096   5.848
10155SOL     OW32303   7.470   8.625  13.505
10155SOL    HW132304   7.498   8.536  13.484
10155SOL    HW232305   7.519   8.681  13.444
10156SOL     OW32306   7.917  11.231   9.956
10156SOL    HW132307   7.928  11.322   9.929
10156SOL    HW232308   7.825  11.224   9.980
10157SOL     OW32309   2.316   0.934   1.945
10157SOL    HW132310   2.379   0.949   2.016
10157SOL    HW232311   2.299   1.022   1.910
10158SOL     OW32312  10.470   1.228  14.194
10158SOL    HW132313  10.421   1.235  14.276
10158SOL    HW232314  10.406   1.198  14.130
10159SOL     OW32315   5.054   1.221   3.152
10159SOL    HW132316   4.980   1.249   3.206
10159SOL    HW232317   5.036   1.260   3.066
10160SOL     OW32318   4.231   7.496   0.242
10160SOL    HW132319   4.212   7.530   0.155
10160SOL    HW232320   4.217   7.571   0.300
10161SOL     OW32321   8.955  13.654   3.342
10161SOL    HW132322   8.976  13.605   3.262
10161SOL    HW232323   8.905  13.592   3.395
10162SOL     OW32324  11.655  12.048   3.350
10162SOL    HW132325  11.743  12.010   3.356
10162SOL    HW232326  11.637  12.080   3.439
10163SOL     OW32327  10.268   5.160   4.753
10163SOL    HW132328  10.175   5.139   4.763
10163SOL    HW232329  10.308   5.124   4.832
10164SOL     OW32330   4.825  13.572   2.433
10164SOL    HW132331   4.746  13.582   2.381
10164SOL    HW232332   4.857  13.662   2.445
10165SOL     OW32333   7.759   1.157   1.417
10165SOL    HW132334   7.816   1.083   1.397
10165SOL    HW232335   7.772   1.218   1.344
10166SOL     OW32336   1.058  11.436   5.077
10166SOL    HW132337   1.136  11.489   5.062
10166SOL    HW232338   1.033  11.404   4.991
10167SOL     OW32339   9.262   2.064   4.033
10167SOL    HW132340   9.254   2.026   4.120
10167SOL    HW232341   9.349   2.037   4.002
10168SOL     OW32342  11.895   8.000   0.170
10168SOL    HW132343  11.911   8.055   0.094
10168SOL    HW232344  11.819   8.039   0.213
10169SOL     OW32345   0.894  13.940   4.040
10169SOL    HW132346   0.927  13.882   4.109
10169SOL    HW232347   0.844  14.007   4.086
10170SOL     OW32348  11.280   9.959   1.204
10170SOL    HW132349  11.219  10.027   1.231
10170SOL    HW232350  11.287   9.902   1.281
10171SOL     OW32351   3.854   3.617   5.689
10171SOL    HW132352   3.760   3.631   5.676
10171SOL    HW232353   3.885   3.696   5.734
10172SOL     OW32354  12.379   1.973  11.301
10172SOL    HW132355  12.451   1.935  11.352
10172SOL    HW232356  12.303   1.921  11.325
10173SOL     OW32357  10.997   5.083   4.296
10173SOL    HW132358  11.013   5.003   4.246
10173SOL    HW232359  11.084   5.113   4.323
10174SOL     OW32360   9.966   5.433   1.493
10174SOL    HW132361  10.010   5.512   1.525
10174SOL    HW232362  10.011   5.412   1.411
10175SOL     OW32363  14.199   1.026  13.441
10175SOL    HW132364  14.200   0.986  13.528
10175SOL    HW232365  14.109   1.058  13.430
10176SOL     OW32366   1.011   8.994   7.218
10176SOL    HW132367   1.048   9.081   7.229
10176SOL    HW232368   1.002   8.960   7.308
10177SOL     OW32369   7.435   7.014  12.258
10177SOL    HW132370   7.523   7.008  12.295
10177SOL    HW232371   7.429   7.104  12.226
10178SOL     OW32372   8.639  12.838   1.869
10178SOL    HW132373   8.566  12.881   1.824
10178SOL    HW232374   8.714  12.850   1.810
10179SOL     OW32375   5.223   7.824   1.031
10179SOL    HW132376   5.226   7.732   1.005
10179SOL    HW232377   5.296   7.833   1.093
10180SOL     OW32378  14.178   4.670   8.327
10180SOL    HW132379  14.209   4.596   8.274
10180SOL    HW232380  14.201   4.646   8.417
10181SOL     OW32381   1.047  12.868  13.448
10181SOL    HW132382   1.104  12.941  13.422
10181SOL    HW232383   1.100  12.790  13.432
10182SOL     OW32384  13.891   3.011  13.614
10182SOL    HW132385  13.902   3.002  13.519
10182SOL    HW232386  13.972   3.054  13.643
10183SOL     OW32387  10.340  14.117   6.514
10183SOL    HW132388  10.389  14.199   6.522
10183SOL    HW232389  10.279  14.132   6.442
10184SOL     OW32390  10.936   3.999   4.691
10184SOL    HW132391  10.965   4.018   4.781
10184SOL    HW232392  11.006   4.035   4.636
10185SOL     OW32393   8.760   5.100   3.928
10185SOL    HW132394   8.833   5.046   3.958
10185SOL    HW232395   8.692   5.086   3.994
10186SOL     OW32396   1.926   3.975   9.720
10186SOL    HW132397   1.941   3.969   9.815
10186SOL    HW232398   1.998   3.925   9.682
10187SOL     OW32399   4.742   9.442   3.407
10187SOL    HW132400   4.765   9.363   3.358
10187SOL    HW232401   4.793   9.512   3.366
10188SOL     OW32402   2.989   7.095   1.462
10188SOL    HW132403   2.921   7.028   1.454
10188SOL    HW232404   3.040   7.069   1.538
10189SOL     OW32405   0.966   0.361  12.650
10189SOL    HW132406   1.017   0.312  12.715
10189SOL    HW232407   0.952   0.298  12.579
10190SOL     OW32408   2.534   3.534   6.344
10190SOL    HW132409   2.457   3.542   6.288
10190SOL    HW232410   2.583   3.615   6.331
10191SOL     OW32411  13.442   2.089   8.224
10191SOL    HW132412  13.460   2.175   8.264
10191SOL    HW232413  13.513   2.077   8.160
10192SOL     OW32414  12.413  12.457   3.207
10192SOL    HW132415  12.464  12.423   3.134
10192SOL    HW232416  12.331  12.408   3.205
10193SOL     OW32417   0.932  12.961   2.562
10193SOL    HW132418   0.985  12.888   2.531
10193SOL    HW232419   0.995  13.031   2.581
10194SOL     OW32420   4.495   4.873  14.392
10194SOL    HW132421   4.478   4.952  14.341
10194SOL    HW232422   4.571   4.834  14.349
10195SOL     OW32423   1.336   8.777   5.635
10195SOL    HW132424   1.294   8.699   5.598
10195SOL    HW232425   1.319   8.845   5.571
10196SOL     OW32426  14.645   1.983  12.661
10196SOL    HW132427  14.585   2.052  12.689
10196SOL    HW232428  14.643   1.987  12.565
10197SOL     OW32429   1.324   3.897   9.819
10197SOL    HW132430   1.358   3.880   9.907
10197SOL    HW232431   1.252   3.834   9.809
10198SOL     OW32432   7.088  12.615   4.850
10198SOL    HW132433   7.181  12.613   4.830
10198SOL    HW232434   7.081  12.574   4.937
10199SOL     OW32435   9.423   7.227   1.444
10199SOL    HW132436   9.455   7.146   1.484
10199SOL    HW232437   9.376   7.271   1.514
10200SOL     OW32438   0.219   7.959   8.690
10200SOL    HW132439   0.285   7.990   8.628
10200SOL    HW232440   0.269   7.911   8.757
10201SOL     OW32441   6.681   2.955   4.958
10201SOL    HW132442   6.732   2.927   5.034
10201SOL    HW232443   6.744   3.005   4.905
10202SOL     OW32444   7.768   2.701   4.511
10202SOL    HW132445   7.793   2.615   4.543
10202SOL    HW232446   7.843   2.757   4.531
10203SOL     OW32447   3.987  13.182  14.376
10203SOL    HW132448   3.917  13.139  14.425
10203SOL    HW232449   4.015  13.255  14.432
10204SOL     OW32450  10.962  10.489   9.147
10204SOL    HW132451  10.917  10.486   9.063
10204SOL    HW232452  11.011  10.407   9.152
10205SOL     OW32453  12.619  11.540   2.476
10205SOL    HW132454  12.657  11.624   2.454
10205SOL    HW232455  12.537  11.562   2.520
10206SOL     OW32456  13.278  13.281   6.996
10206SOL    HW132457  13.236  13.347   7.051
10206SOL    HW232458  13.341  13.332   6.943
10207SOL     OW32459   0.561   1.653   8.095
10207SOL    HW132460   0.648   1.662   8.134
10207SOL    HW232461   0.552   1.559   8.077
10208SOL     OW32462   3.932   2.257   9.593
10208SOL    HW132463   3.937   2.209   9.511
10208SOL    HW232464   3.973   2.200   9.658
10209SOL     OW32465   6.129   2.682   9.217
10209SOL    HW132466   6.154   2.591   9.237
10209SOL    HW232467   6.085   2.713   9.296
10210SOL     OW32468  14.621   1.355   6.785
10210SOL    HW132469  14.591   1.321   6.701
10210SOL    HW232470  14.673   1.284   6.823
10211SOL     OW32471  11.365  12.764  13.791
10211SOL    HW132472  11.398  12.719  13.714
10211SOL    HW232473  11.373  12.699  13.862
10212SOL     OW32474  10.396  11.504  12.863
10212SOL    HW132475  10.388  11.448  12.786
10212SOL    HW232476  10.320  11.483  12.916
10213SOL     OW32477   4.064   7.667   8.003
10213SOL    HW132478   4.093   7.731   7.938
10213SOL    HW232479   3.977   7.641   7.974
10214SOL     OW32480  13.565   3.492   9.164
10214SOL    HW132481  13.661   3.484   9.166
10214SOL    HW232482  13.540   3.501   9.256
10215SOL     OW32483  12.790   9.958   9.031
10215SOL    HW132484  12.772  10.048   9.003
10215SOL    HW232485  12.777   9.906   8.952
10216SOL     OW32486  12.615  10.668  12.395
10216SOL    HW132487  12.612  10.743  12.336
10216SOL    HW232488  12.568  10.599  12.348
10217SOL     OW32489  13.722  11.224   6.707
10217SOL    HW132490  13.708  11.131   6.720
10217SOL    HW232491  13.638  11.257   6.675
10218SOL     OW32492   7.404  14.630   6.268
10218SOL    HW132493   7.402  14.555   6.327
10218SOL    HW232494   7.324  14.621   6.215
10219SOL     OW32495   4.086   7.176   3.646
10219SOL    HW132496   4.133   7.092   3.642
10219SOL    HW232497   4.048   7.177   3.734
10220SOL     OW32498  13.361   0.428  14.722
10220SOL    HW132499  13.288   0.368  14.738
10220SOL    HW232500  13.319   0.511  14.702
10221SOL     OW32501  13.188   1.960   0.938
10221SOL    HW132502  13.278   1.929   0.945
10221SOL    HW232503  13.194   2.040   0.885
10222SOL     OW32504   3.984   2.264  13.305
10222SOL    HW132505   3.927   2.339  13.286
10222SOL    HW232506   3.931   2.187  13.284
10223SOL     OW32507   0.900   3.602  12.833
10223SOL    HW132508   0.845   3.584  12.909
10223SOL    HW232509   0.860   3.551  12.762
10224SOL     OW32510   0.099   3.543   4.353
10224SOL    HW132511   0.077   3.633   4.373
10224SOL    HW232512   0.146   3.511   4.430
10225SOL     OW32513  10.807   6.305   2.373
10225SOL    HW132514  10.873   6.369   2.397
10225SOL    HW232515  10.837   6.223   2.412
10226SOL     OW32516   7.331  10.801  13.943
10226SOL    HW132517   7.316  10.722  13.892
10226SOL    HW232518   7.362  10.865  13.879
10227SOL     OW32519   3.774  12.007   7.947
10227SOL    HW132520   3.826  11.935   7.911
10227SOL    HW232521   3.807  12.085   7.902
10228SOL     OW32522   3.048   9.134   9.512
10228SOL    HW132523   2.956   9.114   9.529
10228SOL    HW232524   3.081   9.171   9.595
10229SOL     OW32525   1.161   6.710   8.645
10229SOL    HW132526   1.229   6.776   8.663
10229SOL    HW232527   1.091   6.730   8.707
10230SOL     OW32528   2.354   1.650   3.092
10230SOL    HW132529   2.358   1.701   3.011
10230SOL    HW232530   2.268   1.670   3.129
10231SOL     OW32531  10.595   5.394   4.056
10231SOL    HW132532  10.656   5.334   4.100
10231SOL    HW232533  10.514   5.345   4.049
10232SOL     OW32534   0.823   7.444   2.703
10232SOL    HW132535   0.773   7.429   2.623
10232SOL    HW232536   0.851   7.357   2.731
10233SOL     OW32537  12.029   1.425  10.633
10233SOL    HW132538  11.995   1.438  10.544
10233SOL    HW232539  12.121   1.403  10.620
10234SOL     OW32540   5.967   5.669  11.789
10234SOL    HW132541   6.014   5.606  11.734
10234SOL    HW232542   5.890   5.694  11.737
10235SOL     OW32543   5.076  11.103  11.837
10235SOL    HW132544   5.038  11.132  11.920
10235SOL    HW232545   5.080  11.182  11.783
10236SOL     OW32546   4.571   2.626   5.014
10236SOL    HW132547   4.532   2.633   4.927
10236SOL    HW232548   4.663   2.607   4.997
10237SOL     OW32549   6.861  12.521   0.642
10237SOL    HW132550   6.795  12.562   0.697
10237SOL    HW232551   6.893  12.591   0.586
10238SOL     OW32552   3.168   8.487   8.785
10238SOL    HW132553   3.254   8.477   8.745
10238SOL    HW232554   3.133   8.398   8.788
10239SOL     OW32555  11.459   9.355   0.469
10239SOL    HW132556  11.479   9.263   0.485
10239SOL    HW232557  11.399   9.379   0.539
10240SOL     OW32558   4.792   0.132  13.696
10240SOL    HW132559   4.697   0.132  13.685
10240SOL    HW232560   4.824   0.080  13.622
10241SOL     OW32561   8.288  10.740  10.695
10241SOL    HW132562   8.367  10.791  10.681
10241SOL    HW232563   8.308  10.653  10.660
10242SOL     OW32564   3.509   2.232   2.362
10242SOL    HW132565   3.484   2.190   2.280
10242SOL    HW232566   3.441   2.207   2.424
10243SOL     OW32567  11.368   7.551   1.848
10243SOL    HW132568  11.396   7.642   1.854
10243SOL    HW232569  11.274   7.554   1.861
10244SOL     OW32570  14.510   7.687  11.002
10244SOL    HW132571  14.514   7.776  11.038
10244SOL    HW232572  14.449   7.640  11.060
10245SOL     OW32573   4.750   2.173  13.811
10245SOL    HW132574   4.726   2.266  13.804
10245SOL    HW232575   4.683   2.127  13.760
10246SOL     OW32576   7.441  13.710   2.812
10246SOL    HW132577   7.386  13.772   2.763
10246SOL    HW232578   7.520  13.702   2.760
10247SOL     OW32579   6.725   6.797   8.889
10247SOL    HW132580   6.657   6.737   8.920
10247SOL    HW232581   6.746   6.851   8.965
10248SOL     OW32582   9.713   2.909   6.932
10248SOL    HW132583   9.771   2.833   6.947
10248SOL    HW232584   9.627   2.871   6.916
10249SOL     OW32585   6.537   5.110   2.310
10249SOL    HW132586   6.627   5.080   2.290
10249SOL    HW232587   6.547   5.202   2.333
10250SOL     OW32588   7.268   7.241   1.435
10250SOL    HW132589   7.313   7.215   1.354
10250SOL    HW232590   7.196   7.179   1.443
10251SOL     OW32591  13.436   5.207   8.696
10251SOL    HW132592  13.488   5.210   8.777
10251SOL    HW232593  13.470   5.279   8.643
10252SOL     OW32594   4.735   8.265  11.798
10252SOL    HW132595   4.728   8.170  11.800
10252SOL    HW232596   4.766   8.289  11.885
10253SOL     OW32597   4.366   2.910   9.696
10253SOL    HW132598   4.277   2.876   9.685
10253SOL    HW232599   4.402   2.911   9.607
10254SOL     OW32600  10.321   7.872   6.792
10254SOL    HW132601  10.415   7.875   6.806
10254SOL    HW232602  10.290   7.802   6.849
10255SOL     OW32603  10.665   2.435  10.433
10255SOL    HW132604  10.714   2.438  10.515
10255SOL    HW232605  10.654   2.341  10.416
10256SOL     OW32606   0.809  13.878  12.497
10256SOL    HW132607   0.724  13.856  12.536
10256SOL    HW232608   0.872  13.862  12.567
10257SOL     OW32609   9.467  10.381   3.862
10257SOL    HW132610   9.482  10.417   3.774
10257SOL    HW232611   9.429  10.294   3.846
10258SOL     OW32612   2.324   9.124   7.318
10258SOL    HW132613   2.344   9.041   7.275
10258SOL    HW232614   2.232   9.117   7.342
10259SOL     OW32615   9.260   7.589  12.408
10259SOL    HW132616   9.218   7.662  12.362
10259SOL    HW232617   9.324   7.555  12.345
10260SOL     OW32618  10.024   2.328   5.906
10260SOL    HW132619  10.006   2.421   5.922
10260SOL    HW232620  10.005   2.286   5.990
10261SOL     OW32621  13.601   4.970  14.137
10261SOL    HW132622  13.525   4.932  14.093
10261SOL    HW232623  13.629   4.902  14.199
10262SOL     OW32624   5.822   3.402  13.270
10262SOL    HW132625   5.890   3.410  13.337
10262SOL    HW232626   5.740   3.416  13.317
10263SOL     OW32627  12.283   6.542   2.214
10263SOL    HW132628  12.270   6.476   2.146
10263SOL    HW232629  12.343   6.605   2.174
10264SOL     OW32630   3.066   2.464  11.523
10264SOL    HW132631   3.080   2.559  11.522
10264SOL    HW232632   2.970   2.455  11.522
10265SOL     OW32633   4.057  11.038  13.144
10265SOL    HW132634   4.110  10.976  13.194
10265SOL    HW232635   4.086  11.124  13.175
10266SOL     OW32636  13.805   6.062   8.038
10266SOL    HW132637  13.734   6.125   8.052
10266SOL    HW232638  13.807   6.010   8.118
10267SOL     OW32639   2.535  10.436   4.189
10267SOL    HW132640   2.600  10.491   4.146
10267SOL    HW232641   2.553  10.348   4.157
10268SOL     OW32642   2.296  13.293   8.747
10268SOL    HW132643   2.205  13.267   8.731
10268SOL    HW232644   2.308  13.371   8.693
10269SOL     OW32645   7.768  12.589  10.900
10269SOL    HW132646   7.768  12.534  10.979
10269SOL    HW232647   7.688  12.641  10.907
10270SOL     OW32648   7.358  12.123  12.234
10270SOL    HW132649   7.276  12.090  12.198
10270SOL    HW232650   7.397  12.174  12.163
10271SOL     OW32651   8.085   3.884   9.131
10271SOL    HW132652   8.171   3.926   9.138
10271SOL    HW232653   8.048   3.890   9.219
10272SOL     OW32654  10.828   2.467   9.899
10272SOL    HW132655  10.805   2.443   9.989
10272SOL    HW232656  10.774   2.410   9.844
10273SOL     OW32657   2.670   4.458   3.049
10273SOL    HW132658   2.598   4.395   3.054
10273SOL    HW232659   2.640   4.532   3.101
10274SOL     OW32660   2.626   1.861  11.945
10274SOL    HW132661   2.567   1.879  12.019
10274SOL    HW232662   2.639   1.767  11.947
10275SOL     OW32663  11.926  10.993   4.623
10275SOL    HW132664  12.018  10.976   4.642
10275SOL    HW232665  11.884  10.999   4.709
10276SOL     OW32666   5.684   2.861  10.590
10276SOL    HW132667   5.651   2.923  10.655
10276SOL    HW232668   5.612   2.798  10.579
10277SOL     OW32669   3.001   1.922   4.317
10277SOL    HW132670   3.001   1.842   4.370
10277SOL    HW232671   3.054   1.900   4.241
10278SOL     OW32672  11.259   2.361   9.903
10278SOL    HW132673  11.281   2.290   9.962
10278SOL    HW232674  11.199   2.322   9.839
10279SOL     OW32675   3.927   6.445  12.591
10279SOL    HW132676   3.891   6.359  12.613
10279SOL    HW232677   4.021   6.437  12.608
10280SOL     OW32678  10.095   6.999   0.915
10280SOL    HW132679  10.092   7.016   1.009
10280SOL    HW232680  10.048   6.916   0.904
10281SOL     OW32681  11.051   4.408   3.927
10281SOL    HW132682  10.974   4.412   3.984
10281SOL    HW232683  11.122   4.443   3.980
10282SOL     OW32684  11.060   9.254  13.074
10282SOL    HW132685  11.124   9.242  13.004
10282SOL    HW232686  11.105   9.311  13.137
10283SOL     OW32687   4.351   0.572   7.633
10283SOL    HW132688   4.410   0.497   7.624
10283SOL    HW232689   4.306   0.557   7.717
10284SOL     OW32690   5.761   5.182   9.351
10284SOL    HW132691   5.827   5.172   9.283
10284SOL    HW232692   5.679   5.155   9.308
10285SOL     OW32693   2.538   9.164  14.647
10285SOL    HW132694   2.513   9.102  14.716
10285SOL    HW232695   2.614   9.209  14.682
10286SOL     OW32696  11.922   7.516   9.821
10286SOL    HW132697  11.922   7.552   9.733
10286SOL    HW232698  11.848   7.557   9.865
10287SOL     OW32699  11.183   1.405   2.405
10287SOL    HW132700  11.125   1.480   2.394
10287SOL    HW232701  11.261   1.442   2.447
10288SOL     OW32702   8.875  11.762   8.238
10288SOL    HW132703   8.917  11.791   8.319
10288SOL    HW232704   8.867  11.842   8.186
10289SOL     OW32705   7.822   3.705   7.285
10289SOL    HW132706   7.877   3.773   7.323
10289SOL    HW232707   7.799   3.649   7.360
10290SOL     OW32708   8.061   5.893   3.261
10290SOL    HW132709   8.090   5.854   3.344
10290SOL    HW232710   8.096   5.982   3.263
10291SOL     OW32711   3.559  10.329   4.379
10291SOL    HW132712   3.491  10.322   4.446
10291SOL    HW232713   3.599  10.242   4.376
10292SOL     OW32714   6.899   7.900   9.071
10292SOL    HW132715   6.869   7.826   9.126
10292SOL    HW232716   6.836   7.903   8.999
10293SOL     OW32717   8.288   4.045   8.191
10293SOL    HW132718   8.378   4.072   8.212
10293SOL    HW232719   8.244   4.126   8.166
10294SOL     OW32720   9.742   3.282   1.688
10294SOL    HW132721   9.717   3.371   1.714
10294SOL    HW232722   9.754   3.287   1.593
10295SOL     OW32723   1.000   7.851  10.762
10295SOL    HW132724   0.930   7.805  10.809
10295SOL    HW232725   1.063   7.782  10.740
10296SOL     OW32726   2.995   4.735   4.916
10296SOL    HW132727   3.015   4.779   4.834
10296SOL    HW232728   3.055   4.774   4.980
10297SOL     OW32729   1.720   2.454  12.675
10297SOL    HW132730   1.720   2.508  12.754
10297SOL    HW232731   1.798   2.481  12.627
10298SOL     OW32732  10.685   9.494  12.318
10298SOL    HW132733  10.737   9.516  12.241
10298SOL    HW232734  10.634   9.417  12.292
10299SOL     OW32735  14.457   1.085   7.459
10299SOL    HW132736  14.516   1.160   7.465
10299SOL    HW232737  14.508   1.011   7.492
10300SOL     OW32738  12.524   5.318  13.716
10300SOL    HW132739  12.495   5.367  13.639
10300SOL    HW232740  12.449   5.320  13.775
10301SOL     OW32741  11.689   8.283   7.073
10301SOL    HW132742  11.637   8.290   6.993
10301SOL    HW232743  11.769   8.239   7.046
10302SOL     OW32744  10.837   4.404  13.819
10302SOL    HW132745  10.842   4.404  13.724
10302SOL    HW232746  10.792   4.322  13.841
10303SOL     OW32747   2.811   6.712   8.173
10303SOL    HW132748   2.749   6.752   8.112
10303SOL    HW232749   2.888   6.693   8.121
10304SOL     OW32750   1.380   7.458   6.705
10304SOL    HW132751   1.402   7.407   6.783
10304SOL    HW232752   1.394   7.549   6.732
10305SOL     OW32753   0.919  10.069  11.424
10305SOL    HW132754   0.860  10.003  11.388
10305SOL    HW232755   0.996  10.020  11.452
10306SOL     OW32756   2.719  14.646   0.327
10306SOL    HW132757   2.685  14.731   0.352
10306SOL    HW232758   2.700  14.640   0.233
10307SOL     OW32759   6.644  12.494  12.061
10307SOL    HW132760   6.578  12.559  12.037
10307SOL    HW232761   6.667  12.452  11.978
10308SOL     OW32762   8.077   3.612   6.301
10308SOL    HW132763   8.024   3.570   6.370
10308SOL    HW232764   8.013   3.662   6.250
10309SOL     OW32765   1.035  14.619   8.189
10309SOL    HW132766   1.025  14.563   8.266
10309SOL    HW232767   0.964  14.682   8.197
10310SOL     OW32768   4.575   2.496   6.095
10310SOL    HW132769   4.589   2.445   6.015
10310SOL    HW232770   4.590   2.587   6.069
10311SOL     OW32771   8.043   0.002   4.799
10311SOL    HW132772   8.006   0.058   4.730
10311SOL    HW232773   7.982   0.011   4.872
10312SOL     OW32774   5.759  11.047  11.510
10312SOL    HW132775   5.736  11.109  11.580
10312SOL    HW232776   5.838  11.004  11.541
10313SOL     OW32777   0.986   6.564   1.953
10313SOL    HW132778   1.034   6.485   1.975
10313SOL    HW232779   1.038   6.606   1.885
10314SOL     OW32780   1.329   3.837   1.619
10314SOL    HW132781   1.282   3.854   1.701
10314SOL    HW232782   1.320   3.742   1.606
10315SOL     OW32783   1.767   4.907  14.636
10315SOL    HW132784   1.676   4.901  14.665
10315SOL    HW232785   1.814   4.843  14.689
10316SOL     OW32786  12.506   0.044  14.465
10316SOL    HW132787  12.456   0.029  14.546
10316SOL    HW232788  12.502   0.139  14.452
10317SOL     OW32789   6.826  11.986   3.420
10317SOL    HW132790   6.907  11.935   3.430
10317SOL    HW232791   6.793  11.961   3.334
10318SOL     OW32792   6.879  14.458  14.847
10318SOL    HW132793   6.828  14.538  14.862
10318SOL    HW232794   6.924  14.474  14.763
10319SOL     OW32795  12.955  13.134   1.602
10319SOL    HW132796  13.012  13.206   1.573
10319SOL    HW232797  12.870  13.154   1.564
10320SOL     OW32798   4.655   4.471   4.741
10320SOL    HW132799   4.600   4.399   4.770
10320SOL    HW232800   4.714   4.432   4.676
10321SOL     OW32801   8.392   6.140   3.024
10321SOL    HW132802   8.414   6.072   3.088
10321SOL    HW232803   8.310   6.110   2.985
10322SOL     OW32804  10.140   4.039   4.823
10322SOL    HW132805  10.171   4.057   4.911
10322SOL    HW232806  10.218   4.010   4.775
10323SOL     OW32807  10.990   6.844   9.944
10323SOL    HW132808  10.905   6.802   9.934
10323SOL    HW232809  10.995   6.905   9.870
10324SOL     OW32810   4.435   7.495   3.687
10324SOL    HW132811   4.426   7.462   3.776
10324SOL    HW232812   4.378   7.439   3.634
10325SOL     OW32813   7.942  11.110  10.855
10325SOL    HW132814   7.880  11.060  10.909
10325SOL    HW232815   8.020  11.055  10.852
10326SOL     OW32816   4.864   0.862   6.970
10326SOL    HW132817   4.911   0.927   6.918
10326SOL    HW232818   4.876   0.891   7.061
10327SOL     OW32819  13.571  11.055   5.041
10327SOL    HW132820  13.638  11.123   5.041
10327SOL    HW232821  13.511  11.081   4.971
10328SOL     OW32822   9.393  12.732   3.995
10328SOL    HW132823   9.368  12.821   4.017
10328SOL    HW232824   9.324  12.701   3.937
10329SOL     OW32825   5.568   5.473   7.419
10329SOL    HW132826   5.578   5.378   7.409
10329SOL    HW232827   5.558   5.486   7.513
10330SOL     OW32828  14.288   1.623  11.153
10330SOL    HW132829  14.263   1.543  11.199
10330SOL    HW232830  14.299   1.688  11.223
10331SOL     OW32831   2.217  12.755   1.319
10331SOL    HW132832   2.246  12.828   1.265
10331SOL    HW232833   2.220  12.679   1.261
10332SOL     OW32834  10.939   2.663   7.318
10332SOL    HW132835  11.033   2.681   7.313
10332SOL    HW232836  10.899   2.750   7.323
10333SOL     OW32837   0.819   6.898   9.726
10333SOL    HW132838   0.893   6.955   9.747
10333SOL    HW232839   0.765   6.949   9.667
10334SOL     OW32840   5.077   0.702  10.987
10334SOL    HW132841   4.995   0.703  10.937
10334SOL    HW232842   5.102   0.794  10.993
10335SOL     OW32843   6.039   3.211   5.614
10335SOL    HW132844   6.038   3.184   5.706
10335SOL    HW232845   5.973   3.281   5.610
10336SOL     OW32846   2.000  11.341   1.008
10336SOL    HW132847   2.001  11.306   0.920
10336SOL    HW232848   1.994  11.264   1.065
10337SOL     OW32849   7.772  14.366   0.570
10337SOL    HW132850   7.785  14.328   0.657
10337SOL    HW232851   7.846  14.333   0.518
10338SOL     OW32852   0.176   8.788   9.509
10338SOL    HW132853   0.146   8.704   9.544
10338SOL    HW232854   0.266   8.796   9.540
10339SOL     OW32855   7.766   0.588   7.907
10339SOL    HW132856   7.831   0.644   7.950
10339SOL    HW232857   7.684   0.636   7.915
10340SOL     OW32858   2.033   0.255   3.978
10340SOL    HW132859   1.974   0.300   3.917
10340SOL    HW232860   1.974   0.211   4.040
10341SOL     OW32861   6.539  12.239   6.891
10341SOL    HW132862   6.616  12.258   6.944
10341SOL    HW232863   6.574  12.207   6.808
10342SOL     OW32864   8.060  14.228   1.691
10342SOL    HW132865   8.136  14.223   1.749
10342SOL    HW232866   8.096  14.249   1.605
10343SOL     OW32867   9.962   6.837  12.627
10343SOL    HW132868  10.026   6.783  12.674
10343SOL    HW232869   9.882   6.829  12.680
10344SOL     OW32870   1.239   7.469  10.364
10344SOL    HW132871   1.260   7.458  10.457
10344SOL    HW232872   1.294   7.405  10.319
10345SOL     OW32873   3.676   0.391  13.880
10345SOL    HW132874   3.662   0.430  13.966
10345SOL    HW232875   3.746   0.444  13.841
10346SOL     OW32876  13.179   3.192   9.094
10346SOL    HW132877  13.252   3.201   9.033
10346SOL    HW232878  13.101   3.210   9.040
10347SOL     OW32879  13.184  10.626  12.673
10347SOL    HW132880  13.090  10.607  12.669
10347SOL    HW232881  13.221  10.578  12.599
10348SOL     OW32882  10.329  13.333   4.452
10348SOL    HW132883  10.263  13.396   4.479
10348SOL    HW232884  10.397  13.386   4.410
10349SOL     OW32885   8.741   8.603  12.349
10349SOL    HW132886   8.700   8.570  12.430
10349SOL    HW232887   8.819   8.549  12.338
10350SOL     OW32888  10.349  10.996   0.813
10350SOL    HW132889  10.397  11.075   0.788
10350SOL    HW232890  10.390  10.967   0.894
10351SOL     OW32891   3.969  14.171   2.874
10351SOL    HW132892   3.903  14.167   2.805
10351SOL    HW232893   3.940  14.241   2.932
10352SOL     OW32894   6.898   9.273   4.246
10352SOL    HW132895   6.991   9.289   4.266
10352SOL    HW232896   6.851   9.341   4.295
10353SOL     OW32897   3.704   0.207  13.676
10353SOL    HW132898   3.673   0.256  13.752
10353SOL    HW232899   3.706   0.116  13.704
10354SOL     OW32900   6.929   8.455   7.706
10354SOL    HW132901   6.839   8.486   7.718
10354SOL    HW232902   6.971   8.523   7.654
10355SOL     OW32903   7.150   6.863  10.865
10355SOL    HW132904   7.178   6.905  10.784
10355SOL    HW232905   7.083   6.800  10.838
10356SOL     OW32906   6.247  14.593   4.626
10356SOL    HW132907   6.251  14.603   4.721
10356SOL    HW232908   6.241  14.682   4.592
10357SOL     OW32909  10.983   5.157   7.101
10357SOL    HW132910  10.901   5.129   7.061
10357SOL    HW232911  11.051   5.108   7.054
10358SOL     OW32912  13.910  11.389  11.310
10358SOL    HW132913  13.987  11.333  11.314
10358SOL    HW232914  13.850  11.344  11.251
10359SOL     OW32915   5.955  14.749   2.955
10359SOL    HW132916   5.902  14.810   3.005
10359SOL    HW232917   6.021  14.718   3.018
10360SOL     OW32918   0.613   6.451   9.037
10360SOL    HW132919   0.638   6.539   9.066
10360SOL    HW232920   0.550   6.466   8.966
10361SOL     OW32921   0.601  13.685   1.181
10361SOL    HW132922   0.631  13.776   1.174
10361SOL    HW232923   0.677  13.637   1.214
10362SOL     OW32924   1.666   0.493   3.496
10362SOL    HW132925   1.685   0.399   3.488
10362SOL    HW232926   1.610   0.499   3.574
10363SOL     OW32927  13.145   7.619   2.009
10363SOL    HW132928  13.111   7.633   1.920
10363SOL    HW232929  13.085   7.556   2.048
10364SOL     OW32930   9.529   5.143   7.543
10364SOL    HW132931   9.441   5.137   7.507
10364SOL    HW232932   9.544   5.238   7.553
10365SOL     OW32933   7.755  14.377  12.024
10365SOL    HW132934   7.715  14.456  11.989
10365SOL    HW232935   7.849  14.388  12.007
10366SOL     OW32936  10.180   6.011   0.677
10366SOL    HW132937  10.120   6.072   0.636
10366SOL    HW232938  10.153   6.008   0.769
10367SOL     OW32939  12.440  12.065  14.276
10367SOL    HW132940  12.505  12.004  14.310
10367SOL    HW232941  12.372  12.010  14.238
10368SOL     OW32942  10.063  11.176   5.032
10368SOL    HW132943  10.024  11.258   5.003
10368SOL    HW232944   9.988  11.120   5.053
10369SOL     OW32945  12.410   9.601   5.061
10369SOL    HW132946  12.388   9.510   5.080
10369SOL    HW232947  12.377   9.650   5.136
10370SOL     OW32948   5.101  12.773   2.456
10370SOL    HW132949   5.121  12.839   2.389
10370SOL    HW232950   5.008  12.784   2.473
10371SOL     OW32951   8.694   3.641   8.993
10371SOL    HW132952   8.744   3.655   8.912
10371SOL    HW232953   8.744   3.688   9.060
10372SOL     OW32954   4.877   0.220   2.132
10372SOL    HW132955   4.857   0.309   2.163
10372SOL    HW232956   4.802   0.197   2.078
10373SOL     OW32957  10.741   9.869   0.156
10373SOL    HW132958  10.789   9.946   0.125
10373SOL    HW232959  10.738   9.811   0.081
10374SOL     OW32960  14.331   7.463  12.134
10374SOL    HW132961  14.337   7.504  12.047
10374SOL    HW232962  14.242   7.429  12.138
10375SOL     OW32963  10.222   8.190   3.129
10375SOL    HW132964  10.204   8.211   3.221
10375SOL    HW232965  10.168   8.113   3.111
10376SOL     OW32966   3.552   6.007  11.837
10376SOL    HW132967   3.620   5.994  11.902
10376SOL    HW232968   3.576   6.089  11.793
10377SOL     OW32969  10.074  10.987   9.814
10377SOL    HW132970  10.061  10.892   9.815
10377SOL    HW232971  10.033  11.018   9.895
10378SOL     OW32972   7.337   9.520   1.158
10378SOL    HW132973   7.394   9.493   1.085
10378SOL    HW232974   7.340   9.447   1.220
10379SOL     OW32975   5.244  10.431  10.400
10379SOL    HW132976   5.224  10.353  10.348
10379SOL    HW232977   5.280  10.494  10.338
10380SOL     OW32978  12.950  13.222  12.085
10380SOL    HW132979  12.979  13.131  12.085
10380SOL    HW232980  13.016  13.268  12.034
10381SOL     OW32981   9.295  11.915   7.377
10381SOL    HW132982   9.339  11.961   7.305
10381SOL    HW232983   9.211  11.958   7.385
10382SOL     OW32984   6.673   3.069  11.295
10382SOL    HW132985   6.701   3.076  11.204
10382SOL    HW232986   6.754   3.055  11.344
10383SOL     OW32987   7.442   3.017  10.793
10383SOL    HW132988   7.532   3.051  10.786
10383SOL    HW232989   7.391   3.092  10.824
10384SOL     OW32990   1.238   2.421  14.852
10384SOL    HW132991   1.173   2.456  14.791
10384SOL    HW232992   1.322   2.445  14.813
10385SOL     OW32993   3.257  14.334  10.776
10385SOL    HW132994   3.299  14.354  10.692
10385SOL    HW232995   3.176  14.385  10.774
10386SOL     OW32996   7.010  11.875   1.428
10386SOL    HW132997   6.966  11.933   1.490
10386SOL    HW232998   7.061  11.815   1.483
10387SOL     OW32999   8.453  14.343   5.332
10387SOL    HW133000   8.526  14.362   5.391
10387SOL    HW233001   8.493  14.298   5.258
10388SOL     OW33002   1.367   2.116   1.840
10388SOL    HW133003   1.331   2.028   1.848
10388SOL    HW233004   1.439   2.118   1.904
10389SOL     OW33005  14.408   7.864  13.116
10389SOL    HW133006  14.319   7.891  13.093
10389SOL    HW233007  14.443   7.826  13.035
10390SOL     OW33008   6.285   9.534   2.834
10390SOL    HW133009   6.317   9.562   2.919
10390SOL    HW233010   6.257   9.443   2.847
10391SOL     OW33011  10.883   7.376   1.020
10391SOL    HW133012  10.979   7.367   1.022
10391SOL    HW233013  10.867   7.465   0.989
10392SOL     OW33014   3.054  14.203   3.508
10392SOL    HW133015   2.986  14.224   3.572
10392SOL    HW233016   3.006  14.183   3.428
10393SOL     OW33017  11.447  12.884   3.584
10393SOL    HW133018  11.530  12.882   3.631
10393SOL    HW233019  11.456  12.957   3.522
10394SOL     OW33020   5.161   8.851  13.586
10394SOL    HW133021   5.119   8.765  13.586
10394SOL    HW233022   5.228   8.844  13.518
10395SOL     OW33023  12.486  13.704   7.148
10395SOL    HW133024  12.427  13.673   7.079
10395SOL    HW233025  12.549  13.632   7.160
10396SOL     OW33026  12.230  11.565   8.131
10396SOL    HW133027  12.177  11.522   8.198
10396SOL    HW233028  12.173  11.570   8.054
10397SOL     OW33029   5.984  13.023  10.131
10397SOL    HW133030   6.018  13.104  10.094
10397SOL    HW233031   5.911  13.000  10.074
10398SOL     OW33032   4.674   5.654   9.525
10398SOL    HW133033   4.580   5.653   9.508
10398SOL    HW233034   4.681   5.658   9.620
10399SOL     OW33035  13.295  14.736   7.332
10399SOL    HW133036  13.317  14.643   7.334
10399SOL    HW233037  13.203  14.739   7.359
10400SOL     OW33038   6.396   4.768   3.440
10400SOL    HW133039   6.429   4.706   3.376
10400SOL    HW233040   6.351   4.835   3.389
10401SOL     OW33041  13.050   4.870   5.782
10401SOL    HW133042  13.057   4.859   5.687
10401SOL    HW233043  13.140   4.856   5.814
10402SOL     OW33044   5.265  13.370   5.550
10402SOL    HW133045   5.306  13.425   5.616
10402SOL    HW233046   5.338  13.323   5.509
10403SOL     OW33047  11.512   6.374   8.723
10403SOL    HW133048  11.466   6.457   8.738
10403SOL    HW233049  11.457   6.327   8.661
10404SOL     OW33050   4.217   2.508   9.589
10404SOL    HW133051   4.132   2.551   9.581
10404SOL    HW233052   4.203   2.420   9.553
10405SOL     OW33053   3.070   3.304   5.916
10405SOL    HW133054   3.151   3.259   5.890
10405SOL    HW233055   3.100   3.387   5.952
10406SOL     OW33056  11.372  13.384   4.592
10406SOL    HW133057  11.293  13.354   4.637
10406SOL    HW233058  11.340  13.430   4.515
10407SOL     OW33059   9.835   2.208  13.970
10407SOL    HW133060   9.863   2.122  13.936
10407SOL    HW233061   9.742   2.213  13.949
10408SOL     OW33062   4.928   0.836   7.964
10408SOL    HW133063   5.014   0.835   8.006
10408SOL    HW233064   4.873   0.782   8.020
10409SOL     OW33065   1.744  11.899   1.138
10409SOL    HW133066   1.742  11.812   1.177
10409SOL    HW233067   1.657  11.909   1.099
10410SOL     OW33068  13.833  14.210   1.965
10410SOL    HW133069  13.817  14.208   1.870
10410SOL    HW233070  13.794  14.128   1.996
10411SOL     OW33071   4.985   1.980   9.162
10411SOL    HW133072   4.907   2.027   9.189
10411SOL    HW233073   5.005   2.014   9.075
10412SOL     OW33074  10.104  12.454   2.682
10412SOL    HW133075  10.090  12.365   2.714
10412SOL    HW233076  10.135  12.443   2.592
10413SOL     OW33077   1.631  10.727  10.558
10413SOL    HW133078   1.599  10.656  10.502
10413SOL    HW233079   1.580  10.803  10.532
10414SOL     OW33080   8.679  14.045   9.247
10414SOL    HW133081   8.748  14.007   9.193
10414SOL    HW233082   8.720  14.121   9.288
10415SOL     OW33083  10.375  12.153   9.938
10415SOL    HW133084  10.300  12.101   9.910
10415SOL    HW233085  10.336  12.223   9.991
10416SOL     OW33086   3.351   4.338   7.836
10416SOL    HW133087   3.275   4.387   7.867
10416SOL    HW233088   3.423   4.401   7.839
10417SOL     OW33089   1.838   7.422   6.321
10417SOL    HW133090   1.792   7.415   6.404
10417SOL    HW233091   1.834   7.515   6.299
10418SOL     OW33092  11.190   0.580   5.454
10418SOL    HW133093  11.114   0.577   5.513
10418SOL    HW233094  11.251   0.639   5.497
10419SOL     OW33095   1.185  13.249   2.865
10419SOL    HW133096   1.153  13.193   2.794
10419SOL    HW233097   1.249  13.195   2.911
10420SOL     OW33098  13.633  11.286   6.187
10420SOL    HW133099  13.594  11.228   6.252
10420SOL    HW233100  13.700  11.232   6.145
10421SOL     OW33101   2.717  12.017   1.564
10421SOL    HW133102   2.739  11.945   1.623
10421SOL    HW233103   2.622  12.013   1.555
10422SOL     OW33104   9.205   3.421   5.971
10422SOL    HW133105   9.203   3.507   6.011
10422SOL    HW233106   9.116   3.387   5.980
10423SOL     OW33107  14.320  12.626   3.898
10423SOL    HW133108  14.252  12.559   3.890
10423SOL    HW233109  14.297  12.691   3.831
10424SOL     OW33110   1.290   9.003  11.839
10424SOL    HW133111   1.358   8.982  11.775
10424SOL    HW233112   1.214   8.951  11.811
10425SOL     OW33113   9.765   7.901  10.986
10425SOL    HW133114   9.693   7.839  10.998
10425SOL    HW233115   9.748   7.942  10.902
10426SOL     OW33116   9.911  10.348   8.487
10426SOL    HW133117   9.968  10.357   8.563
10426SOL    HW233118   9.822  10.356   8.522
10427SOL     OW33119   6.410   2.334   4.812
10427SOL    HW133120   6.456   2.257   4.846
10427SOL    HW233121   6.402   2.318   4.718
10428SOL     OW33122   5.089   6.688   5.906
10428SOL    HW133123   5.101   6.691   5.811
10428SOL    HW233124   5.082   6.595   5.926
10429SOL     OW33125  14.295  11.268  14.420
10429SOL    HW133126  14.217  11.246  14.370
10429SOL    HW233127  14.308  11.193  14.478
10430SOL     OW33128   9.552   1.300   6.049
10430SOL    HW133129   9.635   1.280   6.006
10430SOL    HW233130   9.487   1.249   5.999
10431SOL     OW33131   9.568   8.795   3.568
10431SOL    HW133132   9.483   8.802   3.525
10431SOL    HW233133   9.604   8.712   3.535
10432SOL     OW33134  12.272   0.726   2.426
10432SOL    HW133135  12.320   0.703   2.506
10432SOL    HW233136  12.232   0.811   2.446
10433SOL     OW33137   5.496   4.623   8.078
10433SOL    HW133138   5.414   4.600   8.122
10433SOL    HW233139   5.505   4.717   8.091
10434SOL     OW33140  11.693   1.568   0.465
10434SOL    HW133141  11.727   1.559   0.377
10434SOL    HW233142  11.747   1.636   0.506
10435SOL     OW33143   6.092  13.405   2.017
10435SOL    HW133144   6.102  13.410   2.112
10435SOL    HW233145   6.114  13.314   1.996
10436SOL     OW33146   8.922   0.745   3.601
10436SOL    HW133147   8.930   0.835   3.634
10436SOL    HW233148   8.861   0.752   3.527
10437SOL     OW33149   1.410   3.122   4.823
10437SOL    HW133150   1.422   3.136   4.729
10437SOL    HW233151   1.498   3.135   4.860
10438SOL     OW33152   9.040  13.115  13.032
10438SOL    HW133153   9.029  13.052  13.104
10438SOL    HW233154   9.135  13.120  13.019
10439SOL     OW33155  12.362   1.977   4.666
10439SOL    HW133156  12.349   2.067   4.637
10439SOL    HW233157  12.291   1.928   4.624
10440SOL     OW33158   2.311  13.139  13.723
10440SOL    HW133159   2.311  13.187  13.805
10440SOL    HW233160   2.336  13.204  13.657
10441SOL     OW33161  13.280   9.739   5.187
10441SOL    HW133162  13.230   9.693   5.119
10441SOL    HW233163  13.371   9.715   5.169
10442SOL     OW33164   8.554  10.119   6.740
10442SOL    HW133165   8.464  10.147   6.728
10442SOL    HW233166   8.553  10.025   6.722
10443SOL     OW33167   8.877   8.343   3.463
10443SOL    HW133168   8.900   8.430   3.429
10443SOL    HW233169   8.783   8.347   3.480
10444SOL     OW33170   9.124  12.693   8.192
10444SOL    HW133171   9.032  12.717   8.198
10444SOL    HW233172   9.124  12.597   8.196
10445SOL     OW33173   9.512   1.839   6.939
10445SOL    HW133174   9.510   1.893   7.018
10445SOL    HW233175   9.559   1.892   6.875
10446SOL     OW33176  11.003   8.443  13.717
10446SOL    HW133177  11.056   8.378  13.672
10446SOL    HW233178  10.957   8.490  13.646
10447SOL     OW33179   2.427   4.924   6.964
10447SOL    HW133180   2.431   4.852   7.027
10447SOL    HW233181   2.395   4.999   7.016
10448SOL     OW33182   3.460  10.772   6.491
10448SOL    HW133183   3.420  10.708   6.550
10448SOL    HW233184   3.401  10.847   6.493
10449SOL     OW33185  14.015   3.155  14.577
10449SOL    HW133186  14.019   3.244  14.540
10449SOL    HW233187  14.099   3.116  14.554
10450SOL     OW33188   3.677   7.292   2.784
10450SOL    HW133189   3.625   7.243   2.721
10450SOL    HW233190   3.748   7.232   2.808
10451SOL     OW33191   8.418   7.021  14.853
10451SOL    HW133192   8.346   7.016  14.790
10451SOL    HW233193   8.392   7.089   0.038
10452SOL     OW33194  13.629  12.958   9.822
10452SOL    HW133195  13.553  13.006   9.790
10452SOL    HW233196  13.604  12.929   9.910
10453SOL     OW33197  14.600   4.917   6.658
10453SOL    HW133198  14.603   5.013   6.652
10453SOL    HW233199  14.690   4.891   6.674
10454SOL     OW33200  12.042   3.444  10.649
10454SOL    HW133201  12.112   3.416  10.590
10454SOL    HW233202  12.008   3.362  10.686
10455SOL     OW33203   8.079  11.602   4.307
10455SOL    HW133204   8.169  11.596   4.339
10455SOL    HW233205   8.029  11.634   4.383
10456SOL     OW33206   8.703  11.351  14.447
10456SOL    HW133207   8.755  11.380  14.522
10456SOL    HW233208   8.612  11.354  14.478
10457SOL     OW33209  10.463   7.083  14.143
10457SOL    HW133210  10.482   7.176  14.131
10457SOL    HW233211  10.548   7.040  14.138
10458SOL     OW33212   3.079   9.609   8.798
10458SOL    HW133213   2.984   9.601   8.792
10458SOL    HW233214   3.094   9.650   8.883
10459SOL     OW33215  12.200  10.256   7.315
10459SOL    HW133216  12.162  10.339   7.287
10459SOL    HW233217  12.227  10.271   7.405
10460SOL     OW33218   9.852   9.117  10.102
10460SOL    HW133219   9.862   9.165  10.184
10460SOL    HW233220   9.939   9.083  10.082
10461SOL     OW33221  10.553  12.314   7.002
10461SOL    HW133222  10.547  12.377   7.075
10461SOL    HW233223  10.470  12.323   6.956
10462SOL     OW33224  12.597   4.303   3.103
10462SOL    HW133225  12.677   4.345   3.073
10462SOL    HW233226  12.536   4.376   3.119
10463SOL     OW33227   0.803  12.510   2.111
10463SOL    HW133228   0.733  12.573   2.094
10463SOL    HW233229   0.864  12.558   2.167
10464SOL     OW33230   4.498  13.698  13.311
10464SOL    HW133231   4.441  13.648  13.252
10464SOL    HW233232   4.502  13.785  13.271
10465SOL     OW33233  11.765  14.507   1.006
10465SOL    HW133234  11.733  14.588   0.968
10465SOL    HW233235  11.846  14.488   0.958
10466SOL     OW33236   4.922   8.527  14.231
10466SOL    HW133237   4.926   8.489  14.143
10466SOL    HW233238   4.918   8.452  14.290
10467SOL     OW33239   4.216  12.519   5.324
10467SOL    HW133240   4.267  12.599   5.324
10467SOL    HW233241   4.266  12.459   5.269
10468SOL     OW33242  10.033   4.121   2.562
10468SOL    HW133243   9.964   4.176   2.525
10468SOL    HW233244  10.087   4.181   2.614
10469SOL     OW33245   3.483   9.989   3.920
10469SOL    HW133246   3.531  10.071   3.932
10469SOL    HW233247   3.485   9.947   4.006
10470SOL     OW33248   6.557  12.516   6.573
10470SOL    HW133249   6.629  12.454   6.566
10470SOL    HW233250   6.479  12.461   6.584
10471SOL     OW33251   7.480   0.283   4.606
10471SOL    HW133252   7.456   0.335   4.529
10471SOL    HW233253   7.492   0.195   4.572
10472SOL     OW33254   6.867  12.739   1.694
10472SOL    HW133255   6.886  12.692   1.614
10472SOL    HW233256   6.821  12.818   1.666
10473SOL     OW33257   3.731  14.305   9.473
10473SOL    HW133258   3.695  14.226   9.434
10473SOL    HW233259   3.793  14.273   9.539
10474SOL     OW33260  10.394  12.657  10.778
10474SOL    HW133261  10.346  12.579  10.748
10474SOL    HW233262  10.360  12.674  10.865
10475SOL     OW33263   2.309   4.340   1.811
10475SOL    HW133264   2.392   4.388   1.818
10475SOL    HW233265   2.249   4.403   1.770
10476SOL     OW33266   2.607  12.741  10.193
10476SOL    HW133267   2.685  12.732  10.138
10476SOL    HW233268   2.572  12.827  10.171
10477SOL     OW33269   4.932   9.356   9.641
10477SOL    HW133270   4.848   9.320   9.669
10477SOL    HW233271   4.959   9.300   9.567
10478SOL     OW33272   3.839   2.198   0.888
10478SOL    HW133273   3.757   2.182   0.935
10478SOL    HW233274   3.818   2.175   0.797
10479SOL     OW33275   1.722  13.254  14.386
10479SOL    HW133276   1.734  13.348  14.397
10479SOL    HW233277   1.687  13.245  14.297
10480SOL     OW33278   1.470   3.218   7.798
10480SOL    HW133279   1.434   3.240   7.884
10480SOL    HW233280   1.509   3.131   7.810
10481SOL     OW33281   5.563   0.784   3.837
10481SOL    HW133282   5.516   0.861   3.868
10481SOL    HW233283   5.495   0.726   3.803
10482SOL     OW33284   0.993  10.694  12.050
10482SOL    HW133285   1.032  10.689  11.963
10482SOL    HW233286   1.037  10.766  12.093
10483SOL     OW33287   6.703   7.652   2.799
10483SOL    HW133288   6.754   7.725   2.763
10483SOL    HW233289   6.637   7.634   2.732
10484SOL     OW33290   5.269  11.637  10.095
10484SOL    HW133291   5.270  11.712  10.155
10484SOL    HW233292   5.177  11.614  10.086
10485SOL     OW33293   5.658   4.517   8.543
10485SOL    HW133294   5.717   4.577   8.497
10485SOL    HW233295   5.713   4.442   8.565
10486SOL     OW33296   8.786   6.957   4.855
10486SOL    HW133297   8.737   6.877   4.837
10486SOL    HW233298   8.846   6.932   4.926
10487SOL     OW33299  14.313   8.022   6.921
10487SOL    HW133300  14.228   8.066   6.912
10487SOL    HW233301  14.331   7.987   6.834
10488SOL     OW33302  12.509   5.417   3.136
10488SOL    HW133303  12.588   5.459   3.101
10488SOL    HW233304  12.473   5.483   3.195
10489SOL     OW33305   9.432   7.455   3.948
10489SOL    HW133306   9.345   7.484   3.920
10489SOL    HW233307   9.441   7.367   3.912
10490SOL     OW33308   8.610  14.518  14.331
10490SOL    HW133309   8.674  14.580  14.296
10490SOL    HW233310   8.532  14.530  14.277
10491SOL     OW33311   6.081  14.768  12.702
10491SOL    HW133312   6.098  14.700  12.637
10491SOL    HW233313   6.166  14.786  12.742
10492SOL     OW33314  12.448   9.110   6.677
10492SOL    HW133315  12.463   9.195   6.634
10492SOL    HW233316  12.366   9.078   6.639
10493SOL     OW33317   4.828   5.174  11.137
10493SOL    HW133318   4.828   5.195  11.044
10493SOL    HW233319   4.767   5.237  11.175
10494SOL     OW33320   2.609   0.328   3.269
10494SOL    HW133321   2.656   0.287   3.341
10494SOL    HW233322   2.651   0.414   3.258
10495SOL     OW33323   7.015   5.520  10.002
10495SOL    HW133324   7.048   5.553   9.918
10495SOL    HW233325   7.094   5.495  10.050
10496SOL     OW33326  13.209   6.056   6.590
10496SOL    HW133327  13.287   6.008   6.562
10496SOL    HW233328  13.206   6.132   6.533
10497SOL     OW33329   4.006   6.771  12.970
10497SOL    HW133330   4.048   6.741  13.051
10497SOL    HW233331   4.069   6.750  12.902
10498SOL     OW33332   9.745   2.377   6.505
10498SOL    HW133333   9.719   2.370   6.413
10498SOL    HW233334   9.664   2.395   6.552
10499SOL     OW33335   2.356   6.657  10.156
10499SOL    HW133336   2.336   6.748  10.178
10499SOL    HW233337   2.439   6.639  10.199
10500SOL     OW33338   6.755  12.444   6.183
10500SOL    HW133339   6.693  12.373   6.173
10500SOL    HW233340   6.836  12.411   6.143
10501SOL     OW33341  11.659   3.918   0.991
10501SOL    HW133342  11.642   4.006   1.026
10501SOL    HW233343  11.584   3.866   1.019
10502SOL     OW33344   1.239  13.979   7.330
10502SOL    HW133345   1.177  14.050   7.346
10502SOL    HW233346   1.270  13.953   7.417
10503SOL     OW33347   6.258   9.633   8.958
10503SOL    HW133348   6.201   9.560   8.981
10503SOL    HW233349   6.199   9.701   8.927
10504SOL     OW33350  13.928   0.329  13.079
10504SOL    HW133351  14.013   0.369  13.098
10504SOL    HW233352  13.914   0.267  13.152
10505SOL     OW33353  10.835   9.172   8.630
10505SOL    HW133354  10.743   9.196   8.638
10505SOL    HW233355  10.851   9.171   8.536
10506SOL     OW33356   4.354  14.624   4.013
10506SOL    HW133357   4.321  14.695   3.958
10506SOL    HW233358   4.442  14.652   4.037
10507SOL     OW33359   3.993  11.400  10.383
10507SOL    HW133360   3.949  11.399  10.298
10507SOL    HW233361   4.011  11.493  10.400
10508SOL     OW33362  14.110   2.342  12.459
10508SOL    HW133363  14.169   2.404  12.414
10508SOL    HW233364  14.136   2.256  12.425
10509SOL     OW33365   0.688   0.386   7.154
10509SOL    HW133366   0.605   0.353   7.119
10509SOL    HW233367   0.665   0.469   7.196
10510SOL     OW33368   1.524  12.709   5.845
10510SOL    HW133369   1.482  12.652   5.781
10510SOL    HW233370   1.583  12.764   5.792
10511SOL     OW33371  12.198   2.298   0.721
10511SOL    HW133372  12.120   2.348   0.697
10511SOL    HW233373  12.169   2.239   0.790
10512SOL     OW33374   7.993  12.123  13.821
10512SOL    HW133375   8.038  12.041  13.842
10512SOL    HW233376   8.026  12.147  13.734
10513SOL     OW33377   8.735   2.975   8.714
10513SOL    HW133378   8.744   2.903   8.776
10513SOL    HW233379   8.821   2.983   8.673
10514SOL     OW33380  11.059   0.949  12.270
10514SOL    HW133381  11.037   0.882  12.205
10514SOL    HW233382  11.154   0.947  12.275
10515SOL     OW33383  11.662   9.700  13.187
10515SOL    HW133384  11.737   9.721  13.131
10515SOL    HW233385  11.657   9.772  13.250
10516SOL     OW33386  13.238  13.507  13.686
10516SOL    HW133387  13.206  13.484  13.599
10516SOL    HW233388  13.201  13.439  13.743
10517SOL     OW33389   2.976  10.992   2.670
10517SOL    HW133390   3.064  10.962   2.645
10517SOL    HW233391   2.919  10.920   2.644
10518SOL     OW33392  14.679   7.573  14.530
10518SOL    HW133393  14.659   7.558  14.622
10518SOL    HW233394  14.706   7.665  14.526
10519SOL     OW33395  14.151   6.921  11.757
10519SOL    HW133396  14.205   6.999  11.744
10519SOL    HW233397  14.090   6.946  11.827
10520SOL     OW33398  14.117   8.178   8.781
10520SOL    HW133399  14.210   8.178   8.802
10520SOL    HW233400  14.087   8.266   8.805
10521SOL     OW33401   9.003  14.837   8.015
10521SOL    HW133402   8.908  14.838   8.019
10521SOL    HW233403   9.023  14.851   7.922
10522SOL     OW33404   2.278   2.666   2.009
10522SOL    HW133405   2.322   2.582   2.016
10522SOL    HW233406   2.344   2.724   1.969
10523SOL     OW33407   5.650   9.393   4.330
10523SOL    HW133408   5.659   9.375   4.423
10523SOL    HW233409   5.559   9.368   4.309
10524SOL     OW33410   3.347   4.944  14.777
10524SOL    HW133411   3.410   5.004  14.817
10524SOL    HW233412   3.269   4.998  14.761
10525SOL     OW33413   5.433   6.906   0.874
10525SOL    HW133414   5.510   6.952   0.840
10525SOL    HW233415   5.441   6.912   0.969
10526SOL     OW33416  11.053  11.161   8.706
10526SOL    HW133417  11.014  11.162   8.618
10526SOL    HW233418  11.140  11.198   8.694
10527SOL     OW33419   1.296  11.002  10.889
10527SOL    HW133420   1.338  11.004  10.974
10527SOL    HW233421   1.360  11.039  10.829
10528SOL     OW33422  12.938   0.406  10.900
10528SOL    HW133423  12.941   0.463  10.823
10528SOL    HW233424  12.866   0.346  10.883
10529SOL     OW33425   2.727   0.344   2.620
10529SOL    HW133426   2.803   0.300   2.581
10529SOL    HW233427   2.749   0.437   2.618
10530SOL     OW33428  12.235  12.822   1.197
10530SOL    HW133429  12.331  12.829   1.193
10530SOL    HW233430  12.218  12.728   1.192
10531SOL     OW33431  13.803  14.672   6.797
10531SOL    HW133432  13.761  14.595   6.758
10531SOL    HW233433  13.811  14.650   6.890
10532SOL     OW33434   5.460   0.180   7.666
10532SOL    HW133435   5.450   0.105   7.725
10532SOL    HW233436   5.469   0.140   7.579
10533SOL     OW33437   8.900   7.936   5.050
10533SOL    HW133438   8.947   8.018   5.032
10533SOL    HW233439   8.969   7.869   5.051
10534SOL     OW33440   9.915  12.689   9.029
10534SOL    HW133441   9.915  12.784   9.026
10534SOL    HW233442   9.870  12.662   8.949
10535SOL     OW33443  13.909   4.004   1.963
10535SOL    HW133444  13.870   3.935   1.909
10535SOL    HW233445  13.924   4.076   1.902
10536SOL     OW33446   3.527   9.796   5.708
10536SOL    HW133447   3.591   9.833   5.768
10536SOL    HW233448   3.510   9.708   5.741
10537SOL     OW33449  11.213  14.699   2.322
10537SOL    HW133450  11.258  14.775   2.356
10537SOL    HW233451  11.282  14.636   2.303
10538SOL     OW33452   3.322  10.112   4.762
10538SOL    HW133453   3.305  10.179   4.828
10538SOL    HW233454   3.256  10.045   4.778
10539SOL     OW33455   1.472  14.400   0.904
10539SOL    HW133456   1.465  14.386   0.810
10539SOL    HW233457   1.522  14.324   0.936
10540SOL     OW33458   1.096  11.719  14.359
10540SOL    HW133459   1.062  11.750  14.443
10540SOL    HW233460   1.188  11.745  14.360
10541SOL     OW33461   3.292   5.340  11.536
10541SOL    HW133462   3.356   5.370  11.471
10541SOL    HW233463   3.343   5.331  11.617
10542SOL     OW33464  10.092   4.451   0.307
10542SOL    HW133465  10.127   4.439   0.395
10542SOL    HW233466   9.997   4.443   0.317
10543SOL     OW33467   9.338  12.332   5.462
10543SOL    HW133468   9.362  12.353   5.552
10543SOL    HW233469   9.277  12.401   5.437
10544SOL     OW33470   7.403   9.867  13.963
10544SOL    HW133471   7.338   9.800  13.985
10544SOL    HW233472   7.487   9.825  13.980
10545SOL     OW33473   7.175   9.698   8.308
10545SOL    HW133474   7.096   9.747   8.289
10545SOL    HW233475   7.152   9.644   8.384
10546SOL     OW33476   7.113  11.929  12.649
10546SOL    HW133477   7.152  11.991  12.710
10546SOL    HW233478   7.173  11.927  12.575
10547SOL     OW33479   6.574  12.990  11.003
10547SOL    HW133480   6.521  13.006  10.925
10547SOL    HW233481   6.662  13.017  10.979
10548SOL     OW33482   2.505  13.617   5.982
10548SOL    HW133483   2.548  13.591   5.900
10548SOL    HW233484   2.433  13.674   5.955
10549SOL     OW33485  10.167   3.116   8.939
10549SOL    HW133486  10.182   3.210   8.945
10549SOL    HW233487  10.217   3.079   9.012
10550SOL     OW33488   0.768  14.243  13.440
10550SOL    HW133489   0.731  14.309  13.381
10550SOL    HW233490   0.693  14.196  13.474
10551SOL     OW33491   6.434   9.475  10.827
10551SOL    HW133492   6.487   9.436  10.896
10551SOL    HW233493   6.497   9.500  10.759
10552SOL     OW33494  11.216   7.799   2.478
10552SOL    HW133495  11.156   7.725   2.482
10552SOL    HW233496  11.160   7.876   2.495
10553SOL     OW33497  14.388  10.893   4.029
10553SOL    HW133498  14.297  10.867   4.017
10553SOL    HW233499  14.384  10.988   4.044
10554SOL     OW33500   5.581   6.922  12.059
10554SOL    HW133501   5.643   6.989  12.028
10554SOL    HW233502   5.612   6.841  12.019
10555SOL     OW33503   5.630  14.840   9.890
10555SOL    HW133504   5.641   0.006   9.975
10555SOL    HW233505   5.718  14.814   9.865
10556SOL     OW33506   1.725  13.570   1.879
10556SOL    HW133507   1.753  13.653   1.917
10556SOL    HW233508   1.708  13.514   1.955
10557SOL     OW33509   4.841   9.676  14.609
10557SOL    HW133510   4.917   9.621  14.586
10557SOL    HW233511   4.828   9.732  14.532
10558SOL     OW33512  13.462   8.530   9.950
10558SOL    HW133513  13.496   8.450   9.912
10558SOL    HW233514  13.427   8.504  10.035
10559SOL     OW33515   3.898   5.419  11.911
10559SOL    HW133516   3.877   5.488  11.973
10559SOL    HW233517   3.814   5.380  11.889
10560SOL     OW33518   9.693  11.261  12.067
10560SOL    HW133519   9.676  11.274  12.160
10560SOL    HW233520   9.774  11.210  12.064
10561SOL     OW33521  11.819   5.492   4.453
10561SOL    HW133522  11.741   5.505   4.399
10561SOL    HW233523  11.825   5.572   4.505
10562SOL     OW33524   8.572  14.503   9.658
10562SOL    HW133525   8.518  14.460   9.591
10562SOL    HW233526   8.662  14.479   9.634
10563SOL     OW33527  10.633   4.530  13.983
10563SOL    HW133528  10.571   4.473  14.028
10563SOL    HW233529  10.709   4.474  13.965
10564SOL     OW33530  12.899  10.182  14.265
10564SOL    HW133531  12.939  10.260  14.303
10564SOL    HW233532  12.805  10.199  14.271
10565SOL     OW33533   2.781  13.788   5.937
10565SOL    HW133534   2.751  13.726   5.870
10565SOL    HW233535   2.727  13.769   6.013
10566SOL     OW33536   1.294  10.568  11.264
10566SOL    HW133537   1.359  10.499  11.249
10566SOL    HW233538   1.210  10.525  11.250
10567SOL     OW33539  14.180   8.563   9.782
10567SOL    HW133540  14.145   8.509   9.852
10567SOL    HW233541  14.274   8.544   9.781
10568SOL     OW33542   4.375   5.920   8.628
10568SOL    HW133543   4.306   5.896   8.690
10568SOL    HW233544   4.422   5.838   8.611
10569SOL     OW33545  14.791   9.234  11.251
10569SOL    HW133546  14.821   9.286  11.325
10569SOL    HW233547  14.753   9.298  11.190
10570SOL     OW33548   6.711  11.275   9.589
10570SOL    HW133549   6.708  11.366   9.559
10570SOL    HW233550   6.622  11.242   9.579
10571SOL     OW33551  14.494  13.764   1.410
10571SOL    HW133552  14.439  13.704   1.359
10571SOL    HW233553  14.571  13.713   1.433
10572SOL     OW33554  12.101  14.457  11.436
10572SOL    HW133555  12.130  14.425  11.351
10572SOL    HW233556  12.146  14.402  11.500
10573SOL     OW33557  14.521   3.672   2.294
10573SOL    HW133558  14.502   3.661   2.201
10573SOL    HW233559  14.509   3.765   2.311
10574SOL     OW33560   2.698   3.912  14.399
10574SOL    HW133561   2.791   3.918  14.376
10574SOL    HW233562   2.652   3.928  14.316
10575SOL     OW33563   3.612   4.716   8.507
10575SOL    HW133564   3.648   4.663   8.578
10575SOL    HW233565   3.519   4.726   8.530
10576SOL     OW33566  13.131  10.968  11.418
10576SOL    HW133567  13.047  11.008  11.398
10576SOL    HW233568  13.188  11.042  11.441
10577SOL     OW33569   8.978   1.918   3.467
10577SOL    HW133570   8.954   1.888   3.379
10577SOL    HW233571   8.901   1.966   3.498
10578SOL     OW33572   7.894   2.061  14.397
10578SOL    HW133573   7.886   2.157  14.400
10578SOL    HW233574   7.817   2.033  14.348
10579SOL     OW33575  11.170  10.696   4.996
10579SOL    HW133576  11.165  10.650   4.912
10579SOL    HW233577  11.114  10.645   5.055
10580SOL     OW33578   9.418   0.683   4.604
10580SOL    HW133579   9.460   0.661   4.687
10580SOL    HW233580   9.324   0.673   4.622
10581SOL     OW33581   7.098   3.113   5.024
10581SOL    HW133582   7.164   3.180   5.040
10581SOL    HW233583   7.148   3.031   5.018
10582SOL     OW33584  12.865  12.504   6.542
10582SOL    HW133585  12.821  12.541   6.466
10582SOL    HW233586  12.939  12.455   6.506
10583SOL     OW33587   7.195  10.926   1.038
10583SOL    HW133588   7.250  10.880   0.974
10583SOL    HW233589   7.131  10.973   0.985
10584SOL     OW33590   7.756  11.107  10.537
10584SOL    HW133591   7.675  11.138  10.579
10584SOL    HW233592   7.821  11.110  10.607
10585SOL     OW33593  12.213   7.787   9.727
10585SOL    HW133594  12.181   7.866   9.770
10585SOL    HW233595  12.305   7.781   9.753
10586SOL     OW33596   6.465   8.379   5.032
10586SOL    HW133597   6.513   8.416   4.958
10586SOL    HW233598   6.373   8.381   5.005
10587SOL     OW33599   6.274   5.408  12.063
10587SOL    HW133600   6.278   5.504  12.065
10587SOL    HW233601   6.272   5.386  11.970
10588SOL     OW33602   8.758   2.411  11.351
10588SOL    HW133603   8.762   2.416  11.447
10588SOL    HW233604   8.798   2.493  11.322
10589SOL     OW33605   4.076  12.425   0.530
10589SOL    HW133606   4.013  12.379   0.475
10589SOL    HW233607   4.094  12.364   0.602
10590SOL     OW33608   6.395   3.322   6.841
10590SOL    HW133609   6.343   3.378   6.783
10590SOL    HW233610   6.461   3.283   6.783
10591SOL     OW33611  13.951  13.032   4.806
10591SOL    HW133612  13.893  13.072   4.871
10591SOL    HW233613  13.994  13.107   4.764
10592SOL     OW33614  12.859  13.106   2.246
10592SOL    HW133615  12.794  13.152   2.195
10592SOL    HW233616  12.839  13.128   2.337
10593SOL     OW33617   5.615   5.192   1.811
10593SOL    HW133618   5.652   5.159   1.729
10593SOL    HW233619   5.639   5.127   1.876
10594SOL     OW33620  12.729  12.638   9.578
10594SOL    HW133621  12.824  12.628   9.574
10594SOL    HW233622  12.695  12.550   9.562
10595SOL     OW33623  10.550  13.328  14.258
10595SOL    HW133624  10.505  13.388  14.199
10595SOL    HW233625  10.641  13.327  14.227
10596SOL     OW33626  10.001   2.081   3.122
10596SOL    HW133627   9.958   2.027   3.189
10596SOL    HW233628  10.042   2.152   3.171
10597SOL     OW33629   6.685   0.805  13.443
10597SOL    HW133630   6.746   0.741  13.407
10597SOL    HW233631   6.707   0.808  13.536
10598SOL     OW33632   7.832  12.841  14.441
10598SOL    HW133633   7.876  12.762  14.410
10598SOL    HW233634   7.858  12.848  14.532
10599SOL     OW33635  13.981   6.288   6.541
10599SOL    HW133636  14.003   6.244   6.624
10599SOL    HW233637  13.900   6.335   6.560
10600SOL     OW33638   1.020  13.267  10.235
10600SOL    HW133639   0.970  13.249  10.314
10600SOL    HW233640   0.960  13.314  10.177
10601SOL     OW33641   8.989   8.054   7.625
10601SOL    HW133642   9.021   8.069   7.714
10601SOL    HW233643   8.927   8.126   7.609
10602SOL     OW33644  12.359   8.269   1.287
10602SOL    HW133645  12.315   8.210   1.226
10602SOL    HW233646  12.361   8.222   1.370
10603SOL     OW33647  11.587   5.842   8.932
10603SOL    HW133648  11.559   5.892   9.008
10603SOL    HW233649  11.510   5.792   8.906
10604SOL     OW33650   4.830   0.071  14.282
10604SOL    HW133651   4.842   0.113  14.366
10604SOL    HW233652   4.883  14.868  14.286
10605SOL     OW33653   7.553  14.628   8.930
10605SOL    HW133654   7.611  14.572   8.877
10605SOL    HW233655   7.481  14.649   8.871
10606SOL     OW33656   3.308  10.339  10.595
10606SOL    HW133657   3.325  10.379  10.681
10606SOL    HW233658   3.394  10.334  10.553
10607SOL     OW33659   9.241   3.305   8.181
10607SOL    HW133660   9.233   3.365   8.106
10607SOL    HW233661   9.162   3.251   8.176
10608SOL     OW33662  11.295   7.457   1.203
10608SOL    HW133663  11.388   7.434   1.210
10608SOL    HW233664  11.295   7.545   1.165
10609SOL     OW33665   7.714   5.271   3.657
10609SOL    HW133666   7.732   5.364   3.645
10609SOL    HW233667   7.633   5.268   3.707
10610SOL     OW33668   6.070  14.236   6.182
10610SOL    HW133669   6.111  14.208   6.100
10610SOL    HW233670   5.980  14.259   6.157
10611SOL     OW33671   6.500  14.759  11.770
10611SOL    HW133672   6.560  14.798  11.706
10611SOL    HW233673   6.440  14.830  11.792
10612SOL     OW33674   1.279   8.884   6.139
10612SOL    HW133675   1.254   8.881   6.047
10612SOL    HW233676   1.220   8.822   6.182
10613SOL     OW33677   5.577   4.801   5.404
10613SOL    HW133678   5.502   4.742   5.416
10613SOL    HW233679   5.608   4.819   5.493
10614SOL     OW33680   4.364   6.690   0.090
10614SOL    HW133681   4.404   6.677   0.176
10614SOL    HW233682   4.275   6.656   0.100
10615SOL     OW33683   7.510  12.356   5.910
10615SOL    HW133684   7.430  12.337   5.861
10615SOL    HW233685   7.478  12.385   5.996
10616SOL     OW33686   5.569   2.785   6.881
10616SOL    HW133687   5.490   2.760   6.930
10616SOL    HW233688   5.642   2.761   6.939
10617SOL     OW33689  10.174   1.727  13.161
10617SOL    HW133690  10.152   1.808  13.207
10617SOL    HW233691  10.181   1.753  13.069
10618SOL     OW33692  12.801  12.688  13.232
10618SOL    HW133693  12.840  12.601  13.219
10618SOL    HW233694  12.837  12.741  13.161
10619SOL     OW33695   4.340  12.721   5.234
10619SOL    HW133696   4.409  12.784   5.252
10619SOL    HW233697   4.268  12.773   5.198
10620SOL     OW33698  12.577   9.821   1.063
10620SOL    HW133699  12.485   9.823   1.037
10620SOL    HW233700  12.625   9.815   0.981
10621SOL     OW33701   1.827  10.670   8.515
10621SOL    HW133702   1.793  10.685   8.603
10621SOL    HW233703   1.752  10.686   8.457
10622SOL     OW33704  11.766   0.325   6.250
10622SOL    HW133705  11.735   0.415   6.254
10622SOL    HW233706  11.691   0.272   6.278
10623SOL     OW33707  13.027   5.557   3.769
10623SOL    HW133708  12.968   5.527   3.838
10623SOL    HW233709  12.970   5.604   3.709
10624SOL     OW33710   8.806  11.838   9.595
10624SOL    HW133711   8.897  11.858   9.577
10624SOL    HW233712   8.772  11.917   9.636
10625SOL     OW33713  11.136  13.309   4.700
10625SOL    HW133714  11.106  13.247   4.633
10625SOL    HW233715  11.087  13.389   4.682
10626SOL     OW33716   6.726  10.920   4.310
10626SOL    HW133717   6.751  10.991   4.250
10626SOL    HW233718   6.691  10.852   4.253
10627SOL     OW33719   5.001  11.836   4.452
10627SOL    HW133720   4.994  11.855   4.358
10627SOL    HW233721   4.969  11.915   4.495
10628SOL     OW33722   8.953   3.357   7.654
10628SOL    HW133723   9.012   3.284   7.671
10628SOL    HW233724   8.914   3.337   7.569
10629SOL     OW33725  14.140  11.934   3.772
10629SOL    HW133726  14.200  11.986   3.718
10629SOL    HW233727  14.188  11.853   3.791
10630SOL     OW33728   8.381   7.710  14.115
10630SOL    HW133729   8.295   7.677  14.140
10630SOL    HW233730   8.435   7.632  14.102
10631SOL     OW33731   2.022   7.289   0.648
10631SOL    HW133732   2.019   7.322   0.738
10631SOL    HW233733   1.952   7.224   0.643
10632SOL     OW33734   8.206   3.534  10.451
10632SOL    HW133735   8.243   3.515  10.537
10632SOL    HW233736   8.175   3.624  10.457
10633SOL     OW33737   7.167   1.350   0.002
10633SOL    HW133738   7.177   1.445   0.009
10633SOL    HW233739   7.147   1.334  14.786
10634SOL     OW33740  14.103   8.855  10.938
10634SOL    HW133741  14.199   8.862  10.940
10634SOL    HW233742  14.085   8.801  10.861
10635SOL     OW33743   4.182   5.904  13.175
10635SOL    HW133744   4.091   5.888  13.151
10635SOL    HW233745   4.217   5.817  13.195
10636SOL     OW33746   1.375   3.011   6.098
10636SOL    HW133747   1.339   3.081   6.043
10636SOL    HW233748   1.303   2.988   6.157
10637SOL     OW33749   6.032   5.797   1.829
10637SOL    HW133750   5.960   5.859   1.843
10637SOL    HW233751   5.990   5.715   1.805
10638SOL     OW33752  13.693  12.058  11.164
10638SOL    HW133753  13.709  12.151  11.150
10638SOL    HW233754  13.660  12.025  11.081
10639SOL     OW33755  11.121   9.513  14.024
10639SOL    HW133756  11.181   9.585  14.009
10639SOL    HW233757  11.067   9.541  14.098
10640SOL     OW33758  12.103  11.987  13.895
10640SOL    HW133759  12.104  12.028  13.808
10640SOL    HW233760  12.082  12.059  13.955
10641SOL     OW33761  10.585  12.509  11.238
10641SOL    HW133762  10.526  12.571  11.195
10641SOL    HW233763  10.527  12.449  11.284
10642SOL     OW33764  11.794   8.508   6.757
10642SOL    HW133765  11.882   8.537   6.782
10642SOL    HW233766  11.755   8.584   6.714
10643SOL     OW33767   5.719   4.239  12.467
10643SOL    HW133768   5.740   4.295  12.541
10643SOL    HW233769   5.798   4.239  12.413
10644SOL     OW33770   0.141  13.160   6.338
10644SOL    HW133771   0.107  13.230   6.395
10644SOL    HW233772   0.116  13.187   6.250
10645SOL     OW33773   4.779  13.312  13.959
10645SOL    HW133774   4.686  13.320  13.937
10645SOL    HW233775   4.823  13.374  13.900
10646SOL     OW33776   0.695   3.012   4.238
10646SOL    HW133777   0.769   3.053   4.194
10646SOL    HW233778   0.735   2.962   4.310
10647SOL     OW33779  11.390   2.705   8.987
10647SOL    HW133780  11.329   2.711   8.913
10647SOL    HW233781  11.347   2.752   9.058
10648SOL     OW33782   0.509  12.796  12.689
10648SOL    HW133783   0.546  12.851  12.758
10648SOL    HW233784   0.488  12.857  12.618
10649SOL     OW33785   1.041   8.560   7.339
10649SOL    HW133786   1.129   8.557   7.302
10649SOL    HW233787   1.002   8.476   7.314
10650SOL     OW33788   1.346  11.729   6.104
10650SOL    HW133789   1.315  11.803   6.155
10650SOL    HW233790   1.421  11.695   6.154
10651SOL     OW33791   3.518  11.534   9.397
10651SOL    HW133792   3.520  11.595   9.323
10651SOL    HW233793   3.597  11.482   9.387
10652SOL     OW33794   1.867   3.907   4.108
10652SOL    HW133795   1.949   3.948   4.136
10652SOL    HW233796   1.842   3.851   4.182
10653SOL     OW33797  14.197  13.411  12.257
10653SOL    HW133798  14.150  13.374  12.183
10653SOL    HW233799  14.244  13.337  12.296
10654SOL     OW33800   2.567  10.193   1.634
10654SOL    HW133801   2.544  10.198   1.727
10654SOL    HW233802   2.489  10.223   1.588
10655SOL     OW33803   1.663   1.999   3.128
10655SOL    HW133804   1.674   2.094   3.117
10655SOL    HW233805   1.710   1.979   3.209
10656SOL     OW33806   3.523  13.548   1.545
10656SOL    HW133807   3.545  13.515   1.458
10656SOL    HW233808   3.479  13.632   1.528
10657SOL     OW33809  14.485   5.862  12.928
10657SOL    HW133810  14.533   5.806  12.989
10657SOL    HW233811  14.510   5.830  12.841
10658SOL     OW33812  14.755   3.743   1.082
10658SOL    HW133813  14.783   3.735   0.991
10658SOL    HW233814  14.826   3.704   1.133
10659SOL     OW33815  11.758   5.374  10.079
10659SOL    HW133816  11.804   5.379   9.995
10659SOL    HW233817  11.692   5.443  10.074
10660SOL     OW33818  11.587  11.268   8.691
10660SOL    HW133819  11.649  11.196   8.682
10660SOL    HW233820  11.637  11.335   8.739
10661SOL     OW33821  13.955   3.806  13.916
10661SOL    HW133822  13.914   3.884  13.879
10661SOL    HW233823  14.016   3.840  13.982
10662SOL     OW33824   0.984   2.588   5.939
10662SOL    HW133825   1.003   2.542   5.858
10662SOL    HW233826   0.911   2.646   5.918
10663SOL     OW33827  13.668   1.391  12.054
10663SOL    HW133828  13.705   1.478  12.068
10663SOL    HW233829  13.704   1.363  11.970
10664SOL     OW33830   0.522   2.090   4.524
10664SOL    HW133831   0.508   2.026   4.595
10664SOL    HW233832   0.482   2.049   4.447
10665SOL     OW33833   7.175  13.915   6.763
10665SOL    HW133834   7.123  13.864   6.825
10665SOL    HW233835   7.257  13.933   6.809
10666SOL     OW33836  11.557   5.174   2.197
10666SOL    HW133837  11.539   5.193   2.289
10666SOL    HW233838  11.518   5.247   2.149
10667SOL     OW33839   0.246   8.965   7.690
10667SOL    HW133840   0.193   8.968   7.610
10667SOL    HW233841   0.182   8.963   7.761
10668SOL     OW33842   4.790   9.677   0.011
10668SOL    HW133843   4.819   9.695  14.798
10668SOL    HW233844   4.843   9.602   0.038
10669SOL     OW33845   4.628   8.588   3.777
10669SOL    HW133846   4.645   8.587   3.682
10669SOL    HW233847   4.655   8.502   3.807
10670SOL     OW33848  14.550   6.621  12.034
10670SOL    HW133849  14.504   6.618  12.118
10670SOL    HW233850  14.534   6.709  12.001
10671SOL     OW33851   8.009  10.643  11.752
10671SOL    HW133852   8.023  10.567  11.808
10671SOL    HW233853   8.095  10.662  11.715
10672SOL     OW33854   7.790  10.961   9.415
10672SOL    HW133855   7.883  10.971   9.435
10672SOL    HW233856   7.765  11.043   9.372
10673SOL     OW33857   9.450   8.346   5.166
10673SOL    HW133858   9.521   8.301   5.212
10673SOL    HW233859   9.490   8.427   5.135
10674SOL     OW33860   1.624   6.974   3.485
10674SOL    HW133861   1.556   6.945   3.546
10674SOL    HW233862   1.577   6.990   3.403
10675SOL     OW33863   2.555   3.138   5.253
10675SOL    HW133864   2.491   3.092   5.307
10675SOL    HW233865   2.584   3.073   5.189
10676SOL     OW33866  12.205   6.899   3.590
10676SOL    HW133867  12.150   6.833   3.548
10676SOL    HW233868  12.145   6.970   3.612
10677SOL     OW33869   2.681  14.176   8.562
10677SOL    HW133870   2.765  14.221   8.569
10677SOL    HW233871   2.621  14.241   8.527
10678SOL     OW33872   2.677   5.189  11.170
10678SOL    HW133873   2.713   5.102  11.187
10678SOL    HW233874   2.589   5.172  11.137
10679SOL     OW33875   4.608   2.189   3.665
10679SOL    HW133876   4.532   2.132   3.681
10679SOL    HW233877   4.600   2.214   3.573
10680SOL     OW33878   6.238   1.963  10.757
10680SOL    HW133879   6.161   2.002  10.799
10680SOL    HW233880   6.261   2.025  10.687
10681SOL     OW33881   7.880   9.600  13.987
10681SOL    HW133882   7.941   9.618  14.059
10681SOL    HW233883   7.936   9.575  13.914
10682SOL     OW33884  10.168  14.487  13.470
10682SOL    HW133885  10.138  14.524  13.387
10682SOL    HW233886  10.087  14.467  13.517
10683SOL     OW33887  10.649   3.369  11.514
10683SOL    HW133888  10.743   3.359  11.526
10683SOL    HW233889  10.623   3.290  11.466
10684SOL     OW33890  12.910  12.478   1.376
10684SOL    HW133891  12.941  12.504   1.464
10684SOL    HW233892  12.987  12.490   1.320
10685SOL     OW33893   4.915  11.173   7.744
10685SOL    HW133894   4.958  11.259   7.750
10685SOL    HW233895   4.861  11.179   7.665
10686SOL     OW33896  11.642  12.252   2.464
10686SOL    HW133897  11.575  12.255   2.533
10686SOL    HW233898  11.593  12.234   2.384
10687SOL     OW33899   3.647   1.626   2.220
10687SOL    HW133900   3.624   1.692   2.155
10687SOL    HW233901   3.743   1.621   2.216
10688SOL     OW33902   9.596  13.132  11.341
10688SOL    HW133903   9.551  13.048  11.350
10688SOL    HW233904   9.562  13.186  11.412
10689SOL     OW33905  11.817   4.499  12.897
10689SOL    HW133906  11.858   4.416  12.872
10689SOL    HW233907  11.774   4.480  12.981
10690SOL     OW33908  13.492   3.553  12.320
10690SOL    HW133909  13.542   3.615  12.374
10690SOL    HW233910  13.482   3.597  12.236
10691SOL     OW33911   7.187   0.995   8.731
10691SOL    HW133912   7.184   1.087   8.706
10691SOL    HW233913   7.108   0.957   8.694
10692SOL     OW33914   6.709   7.196   1.693
10692SOL    HW133915   6.781   7.143   1.728
10692SOL    HW233916   6.729   7.285   1.721
10693SOL     OW33917   0.323   3.971  11.283
10693SOL    HW133918   0.381   3.897  11.266
10693SOL    HW233919   0.292   3.998  11.197
10694SOL     OW33920   7.772  11.051   5.789
10694SOL    HW133921   7.791  11.013   5.874
10694SOL    HW233922   7.844  11.022   5.732
10695SOL     OW33923   2.742   4.032  14.858
10695SOL    HW133924   2.828   4.016   0.021
10695SOL    HW233925   2.717   3.948  14.820
10696SOL     OW33926   3.476   7.263   1.997
10696SOL    HW133927   3.529   7.342   2.008
10696SOL    HW233928   3.451   7.239   2.086
10697SOL     OW33929  12.746   7.627  13.603
10697SOL    HW133930  12.835   7.608  13.633
10697SOL    HW233931  12.754   7.710  13.555
10698SOL     OW33932   2.559  13.063  10.190
10698SOL    HW133933   2.526  13.060  10.280
10698SOL    HW233934   2.648  13.029  10.197
10699SOL     OW33935  13.558   0.954   9.712
10699SOL    HW133936  13.634   0.986   9.761
10699SOL    HW233937  13.515   1.034   9.681
10700SOL     OW33938   8.114   5.168   1.371
10700SOL    HW133939   8.101   5.256   1.337
10700SOL    HW233940   8.144   5.182   1.461
10701SOL     OW33941   6.450  10.588  11.306
10701SOL    HW133942   6.397  10.660  11.274
10701SOL    HW233943   6.472  10.537  11.228
10702SOL     OW33944   3.490   5.590   7.623
10702SOL    HW133945   3.504   5.684   7.612
10702SOL    HW233946   3.453   5.562   7.539
10703SOL     OW33947   3.244  10.056   8.315
10703SOL    HW133948   3.312  10.076   8.380
10703SOL    HW233949   3.283   9.987   8.261
10704SOL     OW33950   2.320   0.365  14.391
10704SOL    HW133951   2.401   0.313  14.392
10704SOL    HW233952   2.329   0.422  14.315
10705SOL     OW33953  13.897   7.890  10.211
10705SOL    HW133954  13.986   7.861  10.192
10705SOL    HW233955  13.863   7.825  10.273
10706SOL     OW33956  13.487   7.211   2.582
10706SOL    HW133957  13.583   7.210   2.580
10706SOL    HW233958  13.465   7.187   2.672
10707SOL     OW33959   8.171   6.276   6.401
10707SOL    HW133960   8.186   6.238   6.488
10707SOL    HW233961   8.078   6.298   6.401
10708SOL     OW33962   8.510   7.018  10.383
10708SOL    HW133963   8.515   7.108  10.415
10708SOL    HW233964   8.473   7.025  10.295
10709SOL     OW33965  12.382  11.884   5.933
10709SOL    HW133966  12.378  11.795   5.899
10709SOL    HW233967  12.296  11.922   5.914
10710SOL     OW33968   0.268   8.609   0.832
10710SOL    HW133969   0.241   8.519   0.854
10710SOL    HW233970   0.216   8.664   0.890
10711SOL     OW33971   8.188   5.641   3.431
10711SOL    HW133972   8.205   5.550   3.408
10711SOL    HW233973   8.274   5.676   3.455
10712SOL     OW33974   0.822   7.160   6.841
10712SOL    HW133975   0.906   7.198   6.815
10712SOL    HW233976   0.803   7.097   6.771
10713SOL     OW33977  11.322   7.010   3.308
10713SOL    HW133978  11.279   6.928   3.284
10713SOL    HW233979  11.416   6.990   3.305
10714SOL     OW33980  12.742   8.380   1.429
10714SOL    HW133981  12.757   8.473   1.414
10714SOL    HW233982  12.666   8.377   1.488
10715SOL     OW33983   7.236   0.182   7.868
10715SOL    HW133984   7.255   0.125   7.793
10715SOL    HW233985   7.272   0.135   7.943
10716SOL     OW33986   5.051   1.776  10.135
10716SOL    HW133987   5.081   1.695  10.093
10716SOL    HW233988   5.086   1.846  10.079
10717SOL     OW33989   3.421   2.379  14.242
10717SOL    HW133990   3.490   2.327  14.203
10717SOL    HW233991   3.340   2.334  14.219
10718SOL     OW33992   6.747  12.479   1.875
10718SOL    HW133993   6.842  12.487   1.888
10718SOL    HW233994   6.722  12.562   1.834
10719SOL     OW33995   1.995   4.745  12.039
10719SOL    HW133996   2.034   4.720  12.122
10719SOL    HW233997   2.069   4.755  11.979
10720SOL     OW33998  11.113   1.363  10.996
10720SOL    HW133999  11.136   1.451  10.967
10720SOL    HW234000  11.146   1.306  10.926
10721SOL     OW34001  11.425   2.461   4.636
10721SOL    HW134002  11.351   2.520   4.622
10721SOL    HW234003  11.396   2.377   4.601
10722SOL     OW34004   4.502   0.975   2.815
10722SOL    HW134005   4.464   0.976   2.902
10722SOL    HW234006   4.578   0.917   2.822
10723SOL     OW34007  11.960   1.874  14.224
10723SOL    HW134008  11.868   1.900  14.235
10723SOL    HW234009  11.957   1.807  14.155
10724SOL     OW34010  12.571   3.225   4.719
10724SOL    HW134011  12.551   3.313   4.752
10724SOL    HW234012  12.485   3.187   4.699
10725SOL     OW34013   4.297   1.364   9.358
10725SOL    HW134014   4.384   1.376   9.320
10725SOL    HW234015   4.244   1.331   9.286
10726SOL     OW34016   8.631   9.740  13.367
10726SOL    HW134017   8.604   9.813  13.313
10726SOL    HW234018   8.689   9.778  13.433
10727SOL     OW34019  12.078   6.873  10.515
10727SOL    HW134020  11.992   6.910  10.536
10727SOL    HW234021  12.101   6.819  10.591
10728SOL     OW34022   9.896   3.818   6.374
10728SOL    HW134023   9.925   3.776   6.455
10728SOL    HW234024   9.951   3.780   6.306
10729SOL     OW34025   8.688   4.782   2.007
10729SOL    HW134026   8.764   4.724   2.006
10729SOL    HW234027   8.675   4.806   1.915
10730SOL     OW34028   5.685  14.582   0.307
10730SOL    HW134029   5.612  14.534   0.346
10730SOL    HW234030   5.644  14.659   0.267
10731SOL     OW34031   8.108  10.939   6.080
10731SOL    HW134032   8.028  10.937   6.027
10731SOL    HW234033   8.106  10.857   6.130
10732SOL     OW34034   7.253   3.298   9.009
10732SOL    HW134035   7.195   3.316   8.935
10732SOL    HW234036   7.325   3.248   8.971
10733SOL     OW34037   4.495   6.505   4.763
10733SOL    HW134038   4.421   6.552   4.725
10733SOL    HW234039   4.570   6.529   4.708
10734SOL     OW34040   4.511   5.355  11.456
10734SOL    HW134041   4.560   5.419  11.508
10734SOL    HW234042   4.532   5.270  11.496
10735SOL     OW34043   0.461   5.146   5.106
10735SOL    HW134044   0.454   5.149   5.011
10735SOL    HW234045   0.377   5.179   5.137
10736SOL     OW34046   3.170  13.782   6.801
10736SOL    HW134047   3.155  13.836   6.878
10736SOL    HW234048   3.085  13.743   6.782
10737SOL     OW34049   9.083  10.919   5.993
10737SOL    HW134050   9.100  10.876   6.076
10737SOL    HW234051   9.113  11.009   6.006
10738SOL     OW34052   6.326  12.720   6.864
10738SOL    HW134053   6.369  12.638   6.887
10738SOL    HW234054   6.396  12.776   6.829
10739SOL     OW34055   3.155   4.017   6.082
10739SOL    HW134056   3.191   4.018   6.171
10739SOL    HW234057   3.126   4.107   6.068
10740SOL     OW34058   9.996  12.908  12.341
10740SOL    HW134059  10.075  12.854  12.348
10740SOL    HW234060   9.957  12.884  12.258
10741SOL     OW34061   0.290   8.401   3.090
10741SOL    HW134062   0.292   8.479   3.035
10741SOL    HW234063   0.381   8.368   3.087
10742SOL     OW34064   3.263  10.982   2.672
10742SOL    HW134065   3.331  10.917   2.654
10742SOL    HW234066   3.293  11.027   2.751
10743SOL     OW34067   4.738   4.562   5.162
10743SOL    HW134068   4.651   4.544   5.198
10743SOL    HW234069   4.750   4.496   5.094
10744SOL     OW34070   6.172   8.208   2.000
10744SOL    HW134071   6.106   8.157   2.046
10744SOL    HW234072   6.158   8.298   2.029
10745SOL     OW34073   2.091  12.153   0.831
10745SOL    HW134074   2.052  12.140   0.917
10745SOL    HW234075   2.185  12.143   0.846
10746SOL     OW34076  13.767   2.892   2.341
10746SOL    HW134077  13.766   2.974   2.389
10746SOL    HW234078  13.682   2.851   2.361
10747SOL     OW34079   7.387   3.189  13.010
10747SOL    HW134080   7.301   3.196  13.052
10747SOL    HW234081   7.399   3.272  12.964
10748SOL     OW34082  14.255   9.457   5.305
10748SOL    HW134083  14.191   9.386   5.295
10748SOL    HW234084  14.286   9.475   5.216
10749SOL     OW34085  13.364   1.205  12.984
10749SOL    HW134086  13.370   1.298  13.003
10749SOL    HW234087  13.273   1.183  13.002
10750SOL     OW34088   2.154  12.725  13.640
10750SOL    HW134089   2.143  12.687  13.553
10750SOL    HW234090   2.125  12.657  13.701
10751SOL     OW34091   4.740   2.560   0.046
10751SOL    HW134092   4.779   2.480   0.010
10751SOL    HW234093   4.726   2.540   0.138
10752SOL     OW34094   7.636   8.504   5.385
10752SOL    HW134095   7.608   8.509   5.294
10752SOL    HW234096   7.593   8.577   5.428
10753SOL     OW34097   0.640   5.786   1.978
10753SOL    HW134098   0.644   5.696   1.945
10753SOL    HW234099   0.654   5.777   2.072
10754SOL     OW34100  12.884   9.579   0.022
10754SOL    HW134101  12.964   9.630   0.036
10754SOL    HW234102  12.815   9.630   0.064
10755SOL     OW34103   9.712   9.185   0.143
10755SOL    HW134104   9.648   9.252   0.166
10755SOL    HW234105   9.796   9.222   0.171
10756SOL     OW34106  11.240   8.002   0.240
10756SOL    HW134107  11.302   8.002   0.312
10756SOL    HW234108  11.255   8.085   0.195
10757SOL     OW34109   6.715   6.556   6.210
10757SOL    HW134110   6.667   6.637   6.228
10757SOL    HW234111   6.762   6.537   6.292
10758SOL     OW34112  14.166   1.197   0.593
10758SOL    HW134113  14.074   1.202   0.566
10758SOL    HW234114  14.216   1.214   0.513
10759SOL     OW34115  10.922   4.408   3.665
10759SOL    HW134116  10.997   4.422   3.724
10759SOL    HW234117  10.848   4.394   3.724
10760SOL     OW34118   8.307  14.774   6.910
10760SOL    HW134119   8.224  14.819   6.896
10760SOL    HW234120   8.371  14.825   6.861
10761SOL     OW34121   2.687   0.650   4.578
10761SOL    HW134122   2.619   0.595   4.616
10761SOL    HW234123   2.754   0.658   4.646
10762SOL     OW34124   5.761  14.440   2.415
10762SOL    HW134125   5.804  14.502   2.474
10762SOL    HW234126   5.668  14.453   2.431
10763SOL     OW34127   9.790   2.999  11.157
10763SOL    HW134128   9.828   3.031  11.239
10763SOL    HW234129   9.697   3.022  11.163
10764SOL     OW34130  14.836   8.411   5.445
10764SOL    HW134131  14.748   8.378   5.430
10764SOL    HW234132  14.872   8.354   5.512
10765SOL     OW34133   6.150   4.032   6.269
10765SOL    HW134134   6.187   4.119   6.255
10765SOL    HW234135   6.099   4.014   6.190
10766SOL     OW34136   1.349   4.029  11.517
10766SOL    HW134137   1.284   4.020  11.447
10766SOL    HW234138   1.433   4.013  11.474
10767SOL     OW34139  11.261   2.225   3.178
10767SOL    HW134140  11.177   2.210   3.222
10767SOL    HW234141  11.301   2.138   3.174
10768SOL     OW34142  12.198   1.349  11.256
10768SOL    HW134143  12.276   1.304  11.288
10768SOL    HW234144  12.202   1.436  11.296
10769SOL     OW34145   6.186  13.427   5.942
10769SOL    HW134146   6.264  13.390   5.900
10769SOL    HW234147   6.182  13.384   6.028
10770SOL     OW34148   3.532   7.646   2.343
10770SOL    HW134149   3.530   7.608   2.432
10770SOL    HW234150   3.622   7.632   2.314
10771SOL     OW34151   8.729   3.687  14.652
10771SOL    HW134152   8.747   3.645  14.568
10771SOL    HW234153   8.638   3.716  14.645
10772SOL     OW34154   9.494  10.066   2.295
10772SOL    HW134155   9.443  10.033   2.222
10772SOL    HW234156   9.576  10.096   2.256
10773SOL     OW34157   5.836   1.816  14.456
10773SOL    HW134158   5.872   1.903  14.476
10773SOL    HW234159   5.755   1.812  14.507
10774SOL     OW34160   4.423  11.578  14.807
10774SOL    HW134161   4.420  11.638   0.006
10774SOL    HW234162   4.403  11.633  14.732
10775SOL     OW34163   5.061  10.729  14.617
10775SOL    HW134164   5.005  10.653  14.634
10775SOL    HW234165   5.138  10.715  14.672
10776SOL     OW34166   1.289   0.510   5.922
10776SOL    HW134167   1.363   0.485   5.866
10776SOL    HW234168   1.261   0.595   5.889
10777SOL     OW34169  11.967   8.904   1.805
10777SOL    HW134170  11.894   8.884   1.746
10777SOL    HW234171  12.024   8.828   1.799
10778SOL     OW34172   4.344  10.433   8.954
10778SOL    HW134173   4.375  10.387   9.032
10778SOL    HW234174   4.288  10.503   8.987
10779SOL     OW34175   2.874  13.311  11.468
10779SOL    HW134176   2.915  13.394  11.493
10779SOL    HW234177   2.881  13.309  11.373
10780SOL     OW34178   5.646  12.320   0.978
10780SOL    HW134179   5.631  12.373   0.900
10780SOL    HW234180   5.669  12.234   0.944
10781SOL     OW34181   1.747  10.911   3.948
10781SOL    HW134182   1.706  10.898   4.034
10781SOL    HW234183   1.826  10.857   3.951
10782SOL     OW34184   4.873   6.234   0.427
10782SOL    HW134185   4.832   6.179   0.495
10782SOL    HW234186   4.927   6.296   0.475
10783SOL     OW34187   8.053  12.500  10.142
10783SOL    HW134188   8.008  12.453  10.072
10783SOL    HW234189   8.143  12.510  10.111
10784SOL     OW34190  10.000  13.191   7.085
10784SOL    HW134191  10.005  13.180   7.180
10784SOL    HW234192  10.092  13.191   7.056
10785SOL     OW34193   7.131   5.703  11.789
10785SOL    HW134194   7.092   5.776  11.835
10785SOL    HW234195   7.091   5.705  11.702
10786SOL     OW34196   7.450   7.589   7.409
10786SOL    HW134197   7.368   7.539   7.417
10786SOL    HW234198   7.422   7.678   7.392
10787SOL     OW34199   8.402   0.917   7.594
10787SOL    HW134200   8.382   0.942   7.684
10787SOL    HW234201   8.496   0.936   7.585
10788SOL     OW34202  10.021   7.401   6.527
10788SOL    HW134203   9.975   7.326   6.564
10788SOL    HW234204  10.104   7.405   6.576
10789SOL     OW34205   0.042  11.429   4.107
10789SOL    HW134206   0.067  11.386   4.189
10789SOL    HW234207  14.833  11.467   4.125
10790SOL     OW34208   6.432  14.535   8.941
10790SOL    HW134209   6.433  14.452   8.989
10790SOL    HW234210   6.341  14.546   8.914
10791SOL     OW34211   6.764   5.821   4.854
10791SOL    HW134212   6.806   5.888   4.799
10791SOL    HW234213   6.801   5.738   4.823
10792SOL     OW34214   6.483   2.454  14.696
10792SOL    HW134215   6.524   2.404  14.626
10792SOL    HW234216   6.455   2.535  14.654
10793SOL     OW34217   6.142   6.631   5.836
10793SOL    HW134218   6.049   6.633   5.812
10793SOL    HW234219   6.142   6.634   5.932
10794SOL     OW34220   0.573   6.208   8.479
10794SOL    HW134221   0.635   6.137   8.464
10794SOL    HW234222   0.526   6.182   8.558
10795SOL     OW34223  12.272   6.100  14.032
10795SOL    HW134224  12.355   6.083  13.988
10795SOL    HW234225  12.211   6.036  13.996
10796SOL     OW34226   5.540   9.749   1.829
10796SOL    HW134227   5.590   9.825   1.858
10796SOL    HW234228   5.556   9.683   1.897
10797SOL     OW34229  10.070   8.863   6.072
10797SOL    HW134230   9.985   8.856   6.028
10797SOL    HW234231  10.051   8.846   6.164
10798SOL     OW34232   9.150   2.699  13.728
10798SOL    HW134233   9.188   2.654  13.652
10798SOL    HW234234   9.118   2.629  13.785
10799SOL     OW34235   5.465   0.658   4.985
10799SOL    HW134236   5.408   0.590   4.950
10799SOL    HW234237   5.431   0.739   4.948
10800SOL     OW34238  11.358   8.325  13.003
10800SOL    HW134239  11.290   8.265  12.972
10800SOL    HW234240  11.336   8.409  12.961
10801SOL     OW34241   6.214   9.052   4.523
10801SOL    HW134242   6.199   9.084   4.612
10801SOL    HW234243   6.186   8.961   4.525
10802SOL     OW34244   4.169  11.537   1.081
10802SOL    HW134245   4.232  11.488   1.028
10802SOL    HW234246   4.223  11.580   1.148
10803SOL     OW34247  13.528   0.616  14.535
10803SOL    HW134248  13.439   0.624  14.570
10803SOL    HW234249  13.569   0.549  14.590
10804SOL     OW34250   2.248  11.565   4.853
10804SOL    HW134251   2.158  11.545   4.881
10804SOL    HW234252   2.301  11.553   4.932
10805SOL     OW34253   2.747   9.239   5.750
10805SOL    HW134254   2.670   9.292   5.728
10805SOL    HW234255   2.751   9.242   5.846
10806SOL     OW34256   8.451  10.887   8.140
10806SOL    HW134257   8.460  10.980   8.119
10806SOL    HW234258   8.510  10.843   8.077
10807SOL     OW34259   1.779  10.463   7.650
10807SOL    HW134260   1.793  10.396   7.585
10807SOL    HW234261   1.850  10.451   7.714
10808SOL     OW34262  10.704   1.503  12.819
10808SOL    HW134263  10.689   1.446  12.893
10808SOL    HW234264  10.643   1.576  12.831
10809SOL     OW34265   2.859  12.704   3.161
10809SOL    HW134266   2.865  12.711   3.256
10809SOL    HW234267   2.916  12.630   3.139
10810SOL     OW34268  10.385   8.171   1.456
10810SOL    HW134269  10.396   8.256   1.414
10810SOL    HW234270  10.355   8.191   1.544
10811SOL     OW34271   2.159   4.934   6.784
10811SOL    HW134272   2.220   4.872   6.823
10811SOL    HW234273   2.081   4.883   6.764
10812SOL     OW34274  14.071  10.837  12.752
10812SOL    HW134275  14.128  10.792  12.690
10812SOL    HW234276  14.021  10.898  12.698
10813SOL     OW34277   8.697   9.020  13.849
10813SOL    HW134278   8.781   8.976  13.853
10813SOL    HW234279   8.636   8.954  13.815
10814SOL     OW34280   7.623   1.935  11.333
10814SOL    HW134281   7.710   1.965  11.304
10814SOL    HW234282   7.615   1.969  11.422
10815SOL     OW34283   9.314   3.174   8.785
10815SOL    HW134284   9.303   3.267   8.804
10815SOL    HW234285   9.264   3.129   8.852
10816SOL     OW34286  12.769  12.801  10.284
10816SOL    HW134287  12.771  12.734  10.352
10816SOL    HW234288  12.679  12.797  10.250
10817SOL     OW34289  14.679   7.492   1.789
10817SOL    HW134290  14.746   7.550   1.752
10817SOL    HW234291  14.710   7.472   1.877
10818SOL     OW34292   2.922   4.419  12.457
10818SOL    HW134293   2.924   4.507  12.420
10818SOL    HW234294   3.013   4.389  12.451
10819SOL     OW34295  14.335   0.073   4.657
10819SOL    HW134296  14.266   0.119   4.704
10819SOL    HW234297  14.355  14.873   4.711
10820SOL     OW34298  12.238  12.369   4.633
10820SOL    HW134299  12.266  12.302   4.695
10820SOL    HW234300  12.154  12.337   4.599
10821SOL     OW34301   0.742   5.225  14.110
10821SOL    HW134302   0.812   5.166  14.082
10821SOL    HW234303   0.716   5.270  14.030
10822SOL     OW34304   7.787   8.196  13.462
10822SOL    HW134305   7.865   8.229  13.506
10822SOL    HW234306   7.813   8.187  13.370
10823SOL     OW34307   9.735   3.899  12.837
10823SOL    HW134308   9.750   3.816  12.882
10823SOL    HW234309   9.646   3.924  12.861
10824SOL     OW34310   0.502   0.665  10.391
10824SOL    HW134311   0.507   0.587  10.335
10824SOL    HW234312   0.551   0.641  10.469
10825SOL     OW34313  14.114   4.734   8.833
10825SOL    HW134314  14.054   4.786   8.885
10825SOL    HW234315  14.058   4.673   8.785
10826SOL     OW34316   3.805   7.079   4.381
10826SOL    HW134317   3.748   7.074   4.305
10826SOL    HW234318   3.885   7.034   4.355
10827SOL     OW34319   1.478  13.320  13.439
10827SOL    HW134320   1.516  13.408  13.441
10827SOL    HW234321   1.497  13.287  13.351
10828SOL     OW34322   2.067  13.846   8.268
10828SOL    HW134323   2.071  13.937   8.297
10828SOL    HW234324   2.159  13.822   8.253
10829SOL     OW34325  10.256   5.163   3.431
10829SOL    HW134326  10.265   5.068   3.425
10829SOL    HW234327  10.321   5.190   3.496
10830SOL     OW34328  11.426   9.407   9.428
10830SOL    HW134329  11.361   9.472   9.400
10830SOL    HW234330  11.393   9.375   9.511
10831SOL     OW34331  12.579   5.708  13.980
10831SOL    HW134332  12.527   5.746  13.908
10831SOL    HW234333  12.594   5.617  13.952
10832SOL     OW34334  11.207  13.749   8.622
10832SOL    HW134335  11.142  13.703   8.675
10832SOL    HW234336  11.289  13.739   8.670
10833SOL     OW34337   8.274   0.277  10.425
10833SOL    HW134338   8.330   0.273  10.348
10833SOL    HW234339   8.295   0.198  10.475
10834SOL     OW34340   7.718   9.547   1.369
10834SOL    HW134341   7.680   9.596   1.442
10834SOL    HW234342   7.707   9.605   1.293
10835SOL     OW34343   0.091   6.021  12.323
10835SOL    HW134344   0.161   6.055  12.267
10835SOL    HW234345   0.122   6.038  12.412
10836SOL     OW34346  12.446  14.213   6.607
10836SOL    HW134347  12.470  14.298   6.571
10836SOL    HW234348  12.386  14.233   6.679
10837SOL     OW34349   6.898   7.216   9.009
10837SOL    HW134350   6.839   7.169   9.067
10837SOL    HW234351   6.897   7.165   8.928
10838SOL     OW34352  14.148   7.242   3.831
10838SOL    HW134353  14.208   7.183   3.876
10838SOL    HW234354  14.178   7.243   3.740
10839SOL     OW34355   2.031   1.196   0.372
10839SOL    HW134356   1.973   1.124   0.394
10839SOL    HW234357   2.118   1.167   0.402
10840SOL     OW34358   0.238   6.310  10.083
10840SOL    HW134359   0.214   6.396  10.116
10840SOL    HW234360   0.182   6.297  10.006
10841SOL     OW34361   0.916  13.503   0.284
10841SOL    HW134362   1.004  13.541   0.283
10841SOL    HW234363   0.928  13.414   0.317
10842SOL     OW34364   7.089   0.494  10.045
10842SOL    HW134365   7.157   0.561  10.040
10842SOL    HW234366   7.052   0.505  10.132
10843SOL     OW34367   1.297   1.646  12.057
10843SOL    HW134368   1.220   1.697  12.083
10843SOL    HW234369   1.261   1.570  12.012
10844SOL     OW34370   2.930  14.648  10.533
10844SOL    HW134371   3.016  14.681  10.506
10844SOL    HW234372   2.922  14.564  10.489
10845SOL     OW34373  12.625   4.154   4.796
10845SOL    HW134374  12.591   4.165   4.707
10845SOL    HW234375  12.599   4.065   4.820
10846SOL     OW34376  11.025   2.886   2.311
10846SOL    HW134377  11.117   2.863   2.293
10846SOL    HW234378  11.005   2.839   2.392
10847SOL     OW34379   3.949   4.712   8.211
10847SOL    HW134380   3.959   4.704   8.116
10847SOL    HW234381   3.873   4.658   8.233
10848SOL     OW34382   9.770   2.863  14.549
10848SOL    HW134383   9.796   2.824  14.633
10848SOL    HW234384   9.676   2.875  14.557
10849SOL     OW34385   9.346  10.663  13.126
10849SOL    HW134386   9.390  10.701  13.201
10849SOL    HW234387   9.318  10.738  13.074
10850SOL     OW34388  13.091   2.505  12.129
10850SOL    HW134389  13.051   2.575  12.180
10850SOL    HW234390  13.042   2.503  12.047
10851SOL     OW34391   3.435   2.786   0.574
10851SOL    HW134392   3.512   2.754   0.621
10851SOL    HW234393   3.470   2.821   0.492
10852SOL     OW34394   5.199   0.133   8.609
10852SOL    HW134395   5.161   0.171   8.530
10852SOL    HW234396   5.144   0.057   8.628
10853SOL     OW34397   9.144   0.228   2.811
10853SOL    HW134398   9.201   0.287   2.764
10853SOL    HW234399   9.109   0.169   2.744
10854SOL     OW34400  12.107   4.812   1.947
10854SOL    HW134401  12.080   4.741   2.005
10854SOL    HW234402  12.186   4.779   1.904
10855SOL     OW34403   1.250  10.606   6.055
10855SOL    HW134404   1.262  10.698   6.034
10855SOL    HW234405   1.325  10.562   6.014
10856SOL     OW34406  13.218   1.228  14.266
10856SOL    HW134407  13.265   1.213  14.184
10856SOL    HW234408  13.244   1.316  14.293
10857SOL     OW34409   7.986   4.250   9.377
10857SOL    HW134410   7.968   4.255   9.471
10857SOL    HW234411   8.075   4.213   9.372
10858SOL     OW34412   9.133  12.233  11.306
10858SOL    HW134413   9.114  12.140  11.321
10858SOL    HW234414   9.107  12.276  11.387
10859SOL     OW34415  12.334  10.171   8.611
10859SOL    HW134416  12.365  10.093   8.566
10859SOL    HW234417  12.340  10.241   8.547
10860SOL     OW34418   3.408   6.059   3.688
10860SOL    HW134419   3.396   5.966   3.710
10860SOL    HW234420   3.417   6.102   3.773
10861SOL     OW34421  11.940  14.550  10.552
10861SOL    HW134422  11.952  14.594  10.468
10861SOL    HW234423  12.017  14.493  10.561
10862SOL     OW34424   0.568   2.695  11.082
10862SOL    HW134425   0.607   2.679  10.996
10862SOL    HW234426   0.483   2.735  11.063
10863SOL     OW34427   8.280  11.126  11.028
10863SOL    HW134428   8.236  11.101  10.947
10863SOL    HW234429   8.211  11.128  11.094
10864SOL     OW34430   3.737   9.280   6.562
10864SOL    HW134431   3.703   9.367   6.544
10864SOL    HW234432   3.832   9.290   6.559
10865SOL     OW34433   6.028   0.261  11.352
10865SOL    HW134434   6.008   0.350  11.321
10865SOL    HW234435   6.117   0.245  11.323
10866SOL     OW34436  11.488   7.809   1.857
10866SOL    HW134437  11.440   7.889   1.878
10866SOL    HW234438  11.538   7.831   1.778
10867SOL     OW34439   7.932   1.593   0.478
10867SOL    HW134440   7.990   1.532   0.431
10867SOL    HW234441   7.989   1.666   0.503
10868SOL     OW34442   3.301  10.432  10.236
10868SOL    HW134443   3.258  10.385  10.165
10868SOL    HW234444   3.384  10.386  10.248
10869SOL     OW34445   8.895   7.040   2.568
10869SOL    HW134446   8.912   6.971   2.632
10869SOL    HW234447   8.800   7.039   2.557
10870SOL     OW34448   6.459  14.581   5.055
10870SOL    HW134449   6.541  14.606   5.011
10870SOL    HW234450   6.469  14.488   5.073
10871SOL     OW34451   7.717   9.173  11.860
10871SOL    HW134452   7.697   9.117  11.935
10871SOL    HW234453   7.680   9.126  11.784
10872SOL     OW34454   0.359   1.156   3.174
10872SOL    HW134455   0.291   1.134   3.238
10872SOL    HW234456   0.362   1.080   3.116
10873SOL     OW34457   8.832   9.935   5.593
10873SOL    HW134458   8.898   9.874   5.627
10873SOL    HW234459   8.871  10.021   5.603
10874SOL     OW34460   0.021  13.019  13.772
10874SOL    HW134461  14.827  13.075  13.807
10874SOL    HW234462   0.068  13.075  13.711
10875SOL     OW34463  11.908   4.304   7.335
10875SOL    HW134464  11.815   4.307   7.314
10875SOL    HW234465  11.912   4.327   7.428
10876SOL     OW34466   5.647   9.307  11.259
10876SOL    HW134467   5.661   9.222  11.217
10876SOL    HW234468   5.699   9.368  11.206
10877SOL     OW34469  10.547   5.858   9.791
10877SOL    HW134470  10.542   5.946   9.753
10877SOL    HW234471  10.468   5.814   9.762
10878SOL     OW34472   1.727  14.187  13.208
10878SOL    HW134473   1.715  14.093  13.220
10878SOL    HW234474   1.812  14.206  13.247
10879SOL     OW34475  11.728   2.294   6.521
10879SOL    HW134476  11.651   2.337   6.483
10879SOL    HW234477  11.798   2.311   6.458
10880SOL     OW34478   6.311   9.115   2.600
10880SOL    HW134479   6.391   9.125   2.653
10880SOL    HW234480   6.244   9.091   2.662
10881SOL     OW34481   6.431  14.511  11.698
10881SOL    HW134482   6.341  14.536  11.679
10881SOL    HW234483   6.468  14.586  11.745
10882SOL     OW34484   5.092  13.012   2.307
10882SOL    HW134485   5.018  13.058   2.347
10882SOL    HW234486   5.169  13.046   2.353
10883SOL     OW34487   4.721  11.209  12.273
10883SOL    HW134488   4.728  11.116  12.253
10883SOL    HW234489   4.801  11.229  12.322
10884SOL     OW34490   5.496   2.927   8.481
10884SOL    HW134491   5.453   2.844   8.459
10884SOL    HW234492   5.489   2.933   8.576
10885SOL     OW34493   3.874  11.527  14.864
10885SOL    HW134494   3.904  11.589  14.797
10885SOL    HW234495   3.779  11.523  14.851
10886SOL     OW34496   2.747   9.555   9.980
10886SOL    HW134497   2.667   9.553  10.032
10886SOL    HW234498   2.800   9.623  10.021
10887SOL     OW34499   8.037  11.204   1.017
10887SOL    HW134500   8.013  11.211   0.925
10887SOL    HW234501   8.131  11.222   1.020
10888SOL     OW34502   3.746   1.478  13.397
10888SOL    HW134503   3.732   1.563  13.436
10888SOL    HW234504   3.813   1.493  13.330
10889SOL     OW34505  12.610   6.196   3.661
10889SOL    HW134506  12.534   6.141   3.679
10889SOL    HW234507  12.597   6.227   3.571
10890SOL     OW34508  14.052   2.423   1.481
10890SOL    HW134509  14.071   2.403   1.389
10890SOL    HW234510  14.114   2.493   1.502
10891SOL     OW34511  14.776   8.128   5.337
10891SOL    HW134512  14.699   8.161   5.384
10891SOL    HW234513  14.764   8.160   5.248
10892SOL     OW34514  14.573  14.100   8.945
10892SOL    HW134515  14.618  14.075   8.865
10892SOL    HW234516  14.489  14.136   8.916
10893SOL     OW34517   3.167  14.730  10.448
10893SOL    HW134518   3.135  14.726  10.358
10893SOL    HW234519   3.259  14.705  10.441
10894SOL     OW34520  10.760   7.061   0.387
10894SOL    HW134521  10.710   7.106   0.319
10894SOL    HW234522  10.840   7.032   0.342
10895SOL     OW34523   1.486   6.147   6.448
10895SOL    HW134524   1.478   6.122   6.540
10895SOL    HW234525   1.418   6.097   6.403
10896SOL     OW34526   2.746   7.214  10.936
10896SOL    HW134527   2.753   7.217  11.031
10896SOL    HW234528   2.837   7.219  10.905
10897SOL     OW34529  14.423   1.515   8.421
10897SOL    HW134530  14.470   1.577   8.366
10897SOL    HW234531  14.481   1.500   8.495
10898SOL     OW34532   5.711   9.787  10.268
10898SOL    HW134533   5.740   9.751  10.185
10898SOL    HW234534   5.631   9.737  10.289
10899SOL     OW34535  10.731  10.699   4.332
10899SOL    HW134536  10.753  10.773   4.274
10899SOL    HW234537  10.675  10.643   4.278
10900SOL     OW34538   3.251   3.864   7.019
10900SOL    HW134539   3.293   3.795   7.070
10900SOL    HW234540   3.198   3.913   7.083
10901SOL     OW34541  12.820  11.555   3.813
10901SOL    HW134542  12.749  11.506   3.772
10901SOL    HW234543  12.896  11.497   3.808
10902SOL     OW34544   8.981  11.877   1.023
10902SOL    HW134545   8.920  11.806   1.003
10902SOL    HW234546   8.954  11.908   1.110
10903SOL     OW34547   1.828  13.790  10.713
10903SOL    HW134548   1.882  13.768  10.789
10903SOL    HW234549   1.753  13.836  10.750
10904SOL     OW34550  14.593  14.088  13.809
10904SOL    HW134551  14.591  14.183  13.815
10904SOL    HW234552  14.664  14.069  13.747
10905SOL     OW34553   3.937  12.653   2.553
10905SOL    HW134554   3.890  12.572   2.538
10905SOL    HW234555   3.870  12.716   2.578
10906SOL     OW34556   6.756  12.883   6.318
10906SOL    HW134557   6.833  12.868   6.373
10906SOL    HW234558   6.722  12.795   6.299
10907SOL     OW34559   5.453   8.179   2.706
10907SOL    HW134560   5.545   8.154   2.707
10907SOL    HW234561   5.411   8.114   2.649
10908SOL     OW34562   2.692   6.237   8.617
10908SOL    HW134563   2.716   6.310   8.674
10908SOL    HW234564   2.726   6.261   8.531
10909SOL     OW34565   7.688  11.267   4.095
10909SOL    HW134566   7.668  11.240   4.185
10909SOL    HW234567   7.702  11.185   4.048
10910SOL     OW34568  13.697   7.017   0.135
10910SOL    HW134569  13.639   7.028   0.059
10910SOL    HW234570  13.647   6.961   0.194
10911SOL     OW34571   7.073  10.090  10.835
10911SOL    HW134572   7.067  10.090  10.930
10911SOL    HW234573   7.137  10.159  10.815
10912SOL     OW34574   4.741   0.616   2.766
10912SOL    HW134575   4.704   0.531   2.787
10912SOL    HW234576   4.828   0.596   2.731
10913SOL     OW34577   0.564   9.799   6.906
10913SOL    HW134578   0.654   9.784   6.877
10913SOL    HW234579   0.567   9.787   7.001
10914SOL     OW34580  12.351   8.380   0.120
10914SOL    HW134581  12.341   8.474   0.132
10914SOL    HW234582  12.404   8.371   0.041
10915SOL     OW34583  12.899   1.989   6.415
10915SOL    HW134584  12.994   1.980   6.405
10915SOL    HW234585  12.879   2.072   6.370
10916SOL     OW34586   9.920   6.266   5.681
10916SOL    HW134587   9.985   6.302   5.621
10916SOL    HW234588   9.960   6.184   5.712
10917SOL     OW34589  14.865   1.553   0.961
10917SOL    HW134590  14.792   1.545   1.022
10917SOL    HW234591  14.825   1.580   0.879
10918SOL     OW34592   6.858   7.327  14.366
10918SOL    HW134593   6.886   7.392  14.301
10918SOL    HW234594   6.818   7.258  14.314
10919SOL     OW34595   5.226  13.817   5.757
10919SOL    HW134596   5.310  13.824   5.711
10919SOL    HW234597   5.165  13.868   5.704
10920SOL     OW34598   6.059   3.759   6.076
10920SOL    HW134599   6.024   3.848   6.079
10920SOL    HW234600   6.073   3.742   5.982
10921SOL     OW34601  10.872   0.773   0.873
10921SOL    HW134602  10.864   0.685   0.910
10921SOL    HW234603  10.964   0.779   0.847
10922SOL     OW34604  14.839   8.075   0.936
10922SOL    HW134605  14.787   7.994   0.940
10922SOL    HW234606  14.798   8.126   0.865
10923SOL     OW34607   1.961  10.345  12.522
10923SOL    HW134608   2.023  10.353  12.594
10923SOL    HW234609   1.994  10.406  12.455
10924SOL     OW34610   8.908  12.189   4.659
10924SOL    HW134611   8.922  12.279   4.686
10924SOL    HW234612   8.833  12.159   4.712
10925SOL     OW34613   9.685   8.597   1.084
10925SOL    HW134614   9.776   8.619   1.067
10925SOL    HW234615   9.641   8.614   1.001
10926SOL     OW34616   2.693   1.387  10.285
10926SOL    HW134617   2.730   1.303  10.313
10926SOL    HW234618   2.718   1.448  10.354
10927SOL     OW34619   3.714   0.923   7.306
10927SOL    HW134620   3.749   0.883   7.227
10927SOL    HW234621   3.653   0.859   7.341
10928SOL     OW34622   5.049   6.123  11.873
10928SOL    HW134623   5.063   6.217  11.887
10928SOL    HW234624   4.978   6.119  11.809
10929SOL     OW34625  14.181  13.035  11.598
10929SOL    HW134626  14.193  13.072  11.510
10929SOL    HW234627  14.239  12.959  11.600
10930SOL     OW34628  12.087  10.907  13.770
10930SOL    HW134629  12.177  10.938  13.772
10930SOL    HW234630  12.070  10.888  13.677
10931SOL     OW34631   7.483   0.408   0.521
10931SOL    HW134632   7.396   0.432   0.489
10931SOL    HW234633   7.472   0.396   0.615
10932SOL     OW34634   2.439   5.711   8.375
10932SOL    HW134635   2.511   5.748   8.426
10932SOL    HW234636   2.365   5.771   8.391
10933SOL     OW34637   2.140  13.930  12.628
10933SOL    HW134638   2.148  13.835  12.638
10933SOL    HW234639   2.058  13.942  12.580
10934SOL     OW34640   3.819   2.368   1.916
10934SOL    HW134641   3.724   2.374   1.919
10934SOL    HW234642   3.839   2.282   1.953
10935SOL     OW34643   9.591   6.707   1.344
10935SOL    HW134644   9.554   6.716   1.432
10935SOL    HW234645   9.686   6.713   1.358
10936SOL     OW34646   7.948   4.083   1.473
10936SOL    HW134647   7.991   4.098   1.558
10936SOL    HW234648   7.926   3.990   1.474
10937SOL     OW34649   5.449   4.693   3.787
10937SOL    HW134650   5.400   4.740   3.719
10937SOL    HW234651   5.532   4.739   3.792
10938SOL     OW34652   8.778  11.883   5.572
10938SOL    HW134653   8.722  11.830   5.629
10938SOL    HW234654   8.718  11.946   5.531
10939SOL     OW34655   5.823  10.708  12.852
10939SOL    HW134656   5.885  10.764  12.804
10939SOL    HW234657   5.863  10.700  12.939
10940SOL     OW34658   6.084  10.690  11.565
10940SOL    HW134659   6.023  10.639  11.619
10940SOL    HW234660   6.169  10.648  11.579
10941SOL     OW34661   7.465   4.681   0.540
10941SOL    HW134662   7.493   4.598   0.502
10941SOL    HW234663   7.377   4.663   0.574
10942SOL     OW34664  13.986  12.020   3.302
10942SOL    HW134665  13.914  12.052   3.355
10942SOL    HW234666  13.980  11.924   3.308
10943SOL     OW34667   8.050   4.900   8.685
10943SOL    HW134668   8.143   4.881   8.671
10943SOL    HW234669   8.007   4.815   8.676
10944SOL     OW34670   8.638  10.951   8.668
10944SOL    HW134671   8.608  10.949   8.758
10944SOL    HW234672   8.560  10.931   8.616
10945SOL     OW34673   6.761   1.437  13.734
10945SOL    HW134674   6.731   1.352  13.766
10945SOL    HW234675   6.821   1.415  13.662
10946SOL     OW34676   8.018  11.441  12.889
10946SOL    HW134677   8.021  11.518  12.833
10946SOL    HW234678   7.960  11.380  12.843
10947SOL     OW34679   4.422  10.119  11.960
10947SOL    HW134680   4.360  10.157  12.022
10947SOL    HW234681   4.406  10.166  11.878
10948SOL     OW34682   7.867  13.925   4.549
10948SOL    HW134683   7.880  13.981   4.626
10948SOL    HW234684   7.790  13.873   4.570
10949SOL     OW34685   9.892   0.841  11.043
10949SOL    HW134686   9.855   0.768  10.994
10949SOL    HW234687   9.987   0.834  11.029
10950SOL     OW34688   2.359   3.579   4.110
10950SOL    HW134689   2.368   3.484   4.105
10950SOL    HW234690   2.399   3.603   4.194
10951SOL     OW34691  13.136   3.592   1.414
10951SOL    HW134692  13.177   3.634   1.338
10951SOL    HW234693  13.131   3.661   1.480
10952SOL     OW34694   9.617  14.664  10.980
10952SOL    HW134695   9.647  14.657  11.071
10952SOL    HW234696   9.523  14.675  10.987
10953SOL     OW34697   0.391  11.849   6.976
10953SOL    HW134698   0.440  11.910   7.031
10953SOL    HW234699   0.299  11.872   6.991
10954SOL     OW34700   0.075   5.108   8.746
10954SOL    HW134701   0.010   5.060   8.797
10954SOL    HW234702   0.026   5.137   8.668
10955SOL     OW34703   5.013   3.743   4.665
10955SOL    HW134704   5.060   3.687   4.604
10955SOL    HW234705   4.921   3.733   4.641
10956SOL     OW34706   6.957  13.374   3.540
10956SOL    HW134707   6.939  13.324   3.460
10956SOL    HW234708   6.994  13.310   3.601
10957SOL     OW34709   4.027   7.073   6.157
10957SOL    HW134710   4.098   7.014   6.185
10957SOL    HW234711   4.072   7.147   6.116
10958SOL     OW34712   7.787   0.681  13.304
10958SOL    HW134713   7.794   0.764  13.351
10958SOL    HW234714   7.832   0.618  13.361
10959SOL     OW34715   8.016   9.590   2.527
10959SOL    HW134716   8.022   9.659   2.593
10959SOL    HW234717   8.041   9.510   2.574
10960SOL     OW34718   8.561   9.625   7.044
10960SOL    HW134719   8.612   9.648   7.122
10960SOL    HW234720   8.517   9.543   7.068
10961SOL     OW34721  14.746   9.607  12.164
10961SOL    HW134722  14.722   9.698  12.146
10961SOL    HW234723  14.817   9.613  12.228
10962SOL     OW34724  11.212   1.743  14.046
10962SOL    HW134725  11.137   1.758  13.989
10962SOL    HW234726  11.180   1.765  14.134
10963SOL     OW34727   4.491   1.434  11.151
10963SOL    HW134728   4.468   1.524  11.129
10963SOL    HW234729   4.570   1.416  11.099
10964SOL     OW34730   1.868   3.122   5.261
10964SOL    HW134731   1.881   3.080   5.346
10964SOL    HW234732   1.916   3.067   5.200
10965SOL     OW34733   8.835   2.110  10.138
10965SOL    HW134734   8.822   2.015  10.144
10965SOL    HW234735   8.748   2.144  10.115
10966SOL     OW34736  11.416  11.075  13.288
10966SOL    HW134737  11.373  11.046  13.368
10966SOL    HW234738  11.480  11.140  13.317
10967SOL     OW34739   0.506   6.800  10.532
10967SOL    HW134740   0.598   6.823  10.539
10967SOL    HW234741   0.493   6.734  10.600
10968SOL     OW34742  12.895   8.798   1.875
10968SOL    HW134743  12.867   8.830   1.789
10968SOL    HW234744  12.881   8.871   1.934
10969SOL     OW34745  10.819  11.310  10.139
10969SOL    HW134746  10.854  11.291  10.052
10969SOL    HW234747  10.878  11.264  10.199
10970SOL     OW34748   0.338   6.272   5.711
10970SOL    HW134749   0.366   6.225   5.632
10970SOL    HW234750   0.400   6.244   5.779
10971SOL     OW34751  12.560   1.378   6.144
10971SOL    HW134752  12.532   1.289   6.124
10971SOL    HW234753  12.534   1.391   6.235
10972SOL     OW34754  12.240  14.205   4.497
10972SOL    HW134755  12.336  14.204   4.506
10972SOL    HW234756  12.209  14.150   4.568
10973SOL     OW34757   3.363   5.958  12.821
10973SOL    HW134758   3.290   5.926  12.767
10973SOL    HW234759   3.429   5.889  12.815
10974SOL     OW34760  14.573  13.838  13.206
10974SOL    HW134761  14.506  13.893  13.166
10974SOL    HW234762  14.561  13.752  13.165
10975SOL     OW34763  13.276  10.811   1.034
10975SOL    HW134764  13.240  10.889   0.992
10975SOL    HW234765  13.370  10.816   1.015
10976SOL     OW34766   3.254  12.082  10.854
10976SOL    HW134767   3.331  12.138  10.859
10976SOL    HW234768   3.279  12.001  10.899
10977SOL     OW34769   8.185  13.366   2.171
10977SOL    HW134770   8.192  13.270   2.168
10977SOL    HW234771   8.191  13.388   2.263
10978SOL     OW34772   7.665   7.395   3.668
10978SOL    HW134773   7.579   7.360   3.688
10978SOL    HW234774   7.649   7.486   3.643
10979SOL     OW34775   0.894  10.125   2.412
10979SOL    HW134776   0.942  10.187   2.467
10979SOL    HW234777   0.954  10.103   2.341
10980SOL     OW34778   0.535   4.590   1.165
10980SOL    HW134779   0.584   4.546   1.096
10980SOL    HW234780   0.597   4.652   1.203
10981SOL     OW34781   9.454   8.700   0.469
10981SOL    HW134782   9.376   8.755   0.468
10981SOL    HW234783   9.477   8.690   0.377
10982SOL     OW34784   8.737   3.476   6.929
10982SOL    HW134785   8.733   3.540   6.858
10982SOL    HW234786   8.657   3.489   6.979
10983SOL     OW34787   3.523   5.087   5.055
10983SOL    HW134788   3.456   5.147   5.086
10983SOL    HW234789   3.506   5.005   5.103
10984SOL     OW34790   7.447   2.742  11.133
10984SOL    HW134791   7.383   2.804  11.097
10984SOL    HW234792   7.454   2.674  11.066
10985SOL     OW34793   3.577   0.119   2.790
10985SOL    HW134794   3.645   0.146   2.729
10985SOL    HW234795   3.495   0.148   2.751
10986SOL     OW34796  10.272   4.817   4.174
10986SOL    HW134797  10.351   4.866   4.148
10986SOL    HW234798  10.215   4.883   4.213
10987SOL     OW34799  13.341   2.731  10.760
10987SOL    HW134800  13.331   2.778  10.843
10987SOL    HW234801  13.253   2.732  10.722
10988SOL     OW34802  11.049   1.990  13.570
10988SOL    HW134803  11.074   1.999  13.478
10988SOL    HW234804  11.081   2.070  13.612
10989SOL     OW34805  14.579  10.423  11.533
10989SOL    HW134806  14.517  10.368  11.486
10989SOL    HW234807  14.610  10.368  11.605
10990SOL     OW34808   6.046  11.423  14.723
10990SOL    HW134809   5.994  11.394  14.798
10990SOL    HW234810   6.120  11.471  14.762
10991SOL     OW34811   3.944   0.941   5.520
10991SOL    HW134812   3.960   0.903   5.606
10991SOL    HW234813   4.001   1.018   5.518
10992SOL     OW34814   1.982   9.690   6.275
10992SOL    HW134815   1.965   9.609   6.227
10992SOL    HW234816   2.021   9.661   6.357
10993SOL     OW34817   3.233  13.559   0.538
10993SOL    HW134818   3.235  13.544   0.632
10993SOL    HW234819   3.323  13.542   0.509
10994SOL     OW34820  14.803   5.590   7.417
10994SOL    HW134821  14.858   5.633   7.482
10994SOL    HW234822  14.863   5.563   7.348
10995SOL     OW34823   0.623   8.181  12.590
10995SOL    HW134824   0.679   8.103  12.588
10995SOL    HW234825   0.642   8.222  12.675
10996SOL     OW34826  14.175   3.199   4.051
10996SOL    HW134827  14.203   3.263   4.117
10996SOL    HW234828  14.093   3.233   4.017
10997SOL     OW34829   5.967  14.058   9.426
10997SOL    HW134830   5.914  14.116   9.371
10997SOL    HW234831   5.980  13.980   9.373
10998SOL     OW34832   6.523   2.838   8.339
10998SOL    HW134833   6.456   2.791   8.289
10998SOL    HW234834   6.490   2.839   8.428
10999SOL     OW34835   2.210   2.850   1.047
10999SOL    HW134836   2.130   2.901   1.033
10999SOL    HW234837   2.277   2.899   1.000
11000SOL     OW34838   3.590   5.811   3.032
11000SOL    HW134839   3.540   5.888   3.003
11000SOL    HW234840   3.524   5.742   3.041
11001SOL     OW34841   9.602   2.033  13.672
11001SOL    HW134842   9.660   2.056  13.600
11001SOL    HW234843   9.658   1.987  13.734
11002SOL     OW34844   4.432   3.456  12.807
11002SOL    HW134845   4.473   3.532  12.848
11002SOL    HW234846   4.378   3.493  12.737
11003SOL     OW34847   8.897   3.227   9.005
11003SOL    HW134848   8.832   3.170   9.046
11003SOL    HW234849   8.972   3.171   8.989
11004SOL     OW34850   3.487  14.641   4.308
11004SOL    HW134851   3.544  14.568   4.284
11004SOL    HW234852   3.523  14.674   4.391
11005SOL     OW34853  10.048   7.736   4.370
11005SOL    HW134854  10.011   7.799   4.309
11005SOL    HW234855  10.142   7.739   4.355
11006SOL     OW34856   1.938  12.838   6.553
11006SOL    HW134857   1.886  12.815   6.630
11006SOL    HW234858   1.876  12.882   6.494
11007SOL     OW34859   5.245   8.673   8.958
11007SOL    HW134860   5.300   8.621   9.016
11007SOL    HW234861   5.299   8.689   8.881
11008SOL     OW34862   1.827   8.788  10.397
11008SOL    HW134863   1.869   8.704  10.384
11008SOL    HW234864   1.884   8.835  10.458
11009SOL     OW34865   2.717   0.709  12.839
11009SOL    HW134866   2.651   0.779  12.846
11009SOL    HW234867   2.721   0.671  12.927
11010SOL     OW34868   9.163   9.576  13.238
11010SOL    HW134869   9.227   9.556  13.307
11010SOL    HW234870   9.078   9.559  13.278
11011SOL     OW34871   6.656  10.837   9.923
11011SOL    HW134872   6.634  10.873  10.009
11011SOL    HW234873   6.674  10.914   9.869
11012SOL     OW34874   7.169  12.628   2.141
11012SOL    HW134875   7.161  12.690   2.213
11012SOL    HW234876   7.253  12.583   2.157
11013SOL     OW34877   6.738   1.814   6.127
11013SOL    HW134878   6.643   1.804   6.121
11013SOL    HW234879   6.770   1.725   6.144
11014SOL     OW34880   8.470  13.790   8.691
11014SOL    HW134881   8.435  13.707   8.723
11014SOL    HW234882   8.403  13.855   8.712
11015SOL     OW34883   6.858  13.415   8.168
11015SOL    HW134884   6.829  13.332   8.130
11015SOL    HW234885   6.787  13.441   8.226
11016SOL     OW34886   6.959   1.574   6.528
11016SOL    HW134887   6.947   1.479   6.523
11016SOL    HW234888   6.891   1.604   6.587
11017SOL     OW34889   2.950  10.759  13.323
11017SOL    HW134890   3.018  10.786  13.261
11017SOL    HW234891   2.870  10.756  13.271
11018SOL     OW34892  10.196   9.693   2.023
11018SOL    HW134893  10.125   9.652   2.072
11018SOL    HW234894  10.255   9.621   2.001
11019SOL     OW34895   6.813   1.961  13.590
11019SOL    HW134896   6.856   1.881  13.619
11019SOL    HW234897   6.869   2.031  13.623
11020SOL     OW34898   4.410   5.827  11.652
11020SOL    HW134899   4.372   5.751  11.696
11020SOL    HW234900   4.504   5.809  11.650
11021SOL     OW34901   6.404   3.625  11.828
11021SOL    HW134902   6.367   3.556  11.773
11021SOL    HW234903   6.478   3.583  11.872
11022SOL     OW34904   0.887   3.530   2.221
11022SOL    HW134905   0.807   3.501   2.176
11022SOL    HW234906   0.910   3.612   2.178
11023SOL     OW34907   8.905   3.987   8.234
11023SOL    HW134908   8.880   4.062   8.180
11023SOL    HW234909   8.942   3.924   8.173
11024SOL     OW34910   0.627   1.857  13.665
11024SOL    HW134911   0.657   1.866  13.574
11024SOL    HW234912   0.569   1.932  13.678
11025SOL     OW34913  13.789   5.464  11.159
11025SOL    HW134914  13.817   5.498  11.243
11025SOL    HW234915  13.696   5.483  11.155
11026SOL     OW34916   4.807  13.086  11.489
11026SOL    HW134917   4.873  13.016  11.492
11026SOL    HW234918   4.789  13.105  11.581
11027SOL     OW34919   1.711   5.685   8.865
11027SOL    HW134920   1.750   5.715   8.783
11027SOL    HW234921   1.753   5.738   8.933
11028SOL     OW34922   5.767  14.129  11.632
11028SOL    HW134923   5.803  14.074  11.702
11028SOL    HW234924   5.701  14.074  11.590
11029SOL     OW34925   8.616   5.566  13.716
11029SOL    HW134926   8.551   5.537  13.780
11029SOL    HW234927   8.566   5.585  13.637
11030SOL     OW34928   7.851   4.585   3.801
11030SOL    HW134929   7.780   4.645   3.825
11030SOL    HW234930   7.831   4.505   3.849
11031SOL     OW34931   5.967   6.649   3.210
11031SOL    HW134932   5.875   6.622   3.210
11031SOL    HW234933   5.967   6.733   3.256
11032SOL     OW34934   3.967   2.975  12.163
11032SOL    HW134935   3.924   2.940  12.241
11032SOL    HW234936   4.041   3.024  12.196
11033SOL     OW34937   4.698   1.960   7.627
11033SOL    HW134938   4.770   2.019   7.604
11033SOL    HW234939   4.727   1.874   7.599
11034SOL     OW34940   1.285   8.765  14.745
11034SOL    HW134941   1.233   8.710  14.688
11034SOL    HW234942   1.318   8.835  14.688
11035SOL     OW34943  13.349  14.295   8.281
11035SOL    HW134944  13.266  14.274   8.238
11035SOL    HW234945  13.416  14.273   8.216
11036SOL     OW34946  12.774   9.871   4.772
11036SOL    HW134947  12.716   9.936   4.732
11036SOL    HW234948  12.728   9.844   4.851
11037SOL     OW34949   6.861   4.735  10.470
11037SOL    HW134950   6.780   4.787  10.473
11037SOL    HW234951   6.914   4.772  10.541
11038SOL     OW34952   9.532   4.428  13.650
11038SOL    HW134953   9.537   4.467  13.737
11038SOL    HW234954   9.621   4.431  13.617
11039SOL     OW34955   9.703  11.158   7.115
11039SOL    HW134956   9.675  11.229   7.174
11039SOL    HW234957   9.622  11.115   7.089
11040SOL     OW34958   7.928  14.289  14.050
11040SOL    HW134959   7.900  14.378  14.031
11040SOL    HW234960   7.851  14.235  14.031
11041SOL     OW34961   2.833   4.359   1.664
11041SOL    HW134962   2.807   4.451   1.661
11041SOL    HW234963   2.923   4.360   1.695
11042SOL     OW34964  12.097   9.819   9.171
11042SOL    HW134965  12.047   9.823   9.252
11042SOL    HW234966  12.034   9.790   9.105
11043SOL     OW34967   9.724  14.242  11.409
11043SOL    HW134968   9.790  14.295  11.454
11043SOL    HW234969   9.707  14.289  11.327
11044SOL     OW34970   1.254   8.402   4.620
11044SOL    HW134971   1.292   8.317   4.640
11044SOL    HW234972   1.328   8.462   4.614
11045SOL     OW34973   6.542  13.472  11.793
11045SOL    HW134974   6.516  13.507  11.708
11045SOL    HW234975   6.605  13.403  11.772
11046SOL     OW34976   3.866   1.579   2.002
11046SOL    HW134977   3.954   1.550   2.023
11046SOL    HW234978   3.877   1.637   1.926
11047SOL     OW34979  13.366   4.016   9.884
11047SOL    HW134980  13.355   4.019   9.979
11047SOL    HW234981  13.438   3.955   9.871
11048SOL     OW34982   2.513   9.243  14.204
11048SOL    HW134983   2.456   9.177  14.164
11048SOL    HW234984   2.556   9.197  14.276
11049SOL     OW34985   6.872  14.857   9.012
11049SOL    HW134986   6.933  14.788   9.038
11049SOL    HW234987   6.805  14.810   8.960
11050SOL     OW34988  11.364   0.929   5.026
11050SOL    HW134989  11.375   0.930   4.931
11050SOL    HW234990  11.276   0.894   5.040
11051SOL     OW34991   0.186   4.861   3.647
11051SOL    HW134992   0.159   4.894   3.733
11051SOL    HW234993   0.110   4.812   3.615
11052SOL     OW34994   0.583   6.843  13.908
11052SOL    HW134995   0.601   6.890  13.989
11052SOL    HW234996   0.535   6.765  13.936
11053SOL     OW34997  11.455   7.945   9.171
11053SOL    HW134998  11.531   7.958   9.114
11053SOL    HW234999  11.428   8.033   9.196
11054SOL     OW35000   0.695  14.603   5.743
11054SOL    HW135001   0.783  14.604   5.705
11054SOL    HW235002   0.678  14.694   5.768
11055SOL     OW35003   3.999  11.910   3.505
11055SOL    HW135004   4.061  11.982   3.494
11055SOL    HW235005   3.985  11.906   3.600
11056SOL     OW35006   6.443   3.820  11.247
11056SOL    HW135007   6.513   3.871  11.207
11056SOL    HW235008   6.412   3.762  11.177
11057SOL     OW35009   9.599   5.861   6.995
11057SOL    HW135010   9.548   5.810   7.058
11057SOL    HW235011   9.609   5.947   7.036
11058SOL     OW35012  13.034  10.347  14.676
11058SOL    HW135013  12.981  10.419  14.642
11058SOL    HW235014  13.005  10.335  14.766
11059SOL     OW35015  11.288   4.302  11.899
11059SOL    HW135016  11.306   4.281  11.991
11059SOL    HW235017  11.372   4.289  11.854
11060SOL     OW35018   3.399  11.507  14.828
11060SOL    HW135019   3.415  11.568   0.023
11060SOL    HW235020   3.382  11.562  14.752
11061SOL     OW35021  13.485   5.877   6.026
11061SOL    HW135022  13.564   5.845   6.069
11061SOL    HW235023  13.473   5.965   6.059
11062SOL     OW35024   7.237  13.572   6.029
11062SOL    HW135025   7.166  13.510   6.048
11062SOL    HW235026   7.308  13.517   5.995
11063SOL     OW35027   3.753   8.845   6.296
11063SOL    HW135028   3.770   8.861   6.203
11063SOL    HW235029   3.833   8.804   6.328
11064SOL     OW35030   1.634   4.508   9.785
11064SOL    HW135031   1.640   4.511   9.690
11064SOL    HW235032   1.541   4.493   9.803
11065SOL     OW35033   4.134   2.636   2.026
11065SOL    HW135034   4.100   2.614   1.939
11065SOL    HW235035   4.074   2.593   2.087
11066SOL     OW35036   1.435   7.819  12.768
11066SOL    HW135037   1.395   7.898  12.732
11066SOL    HW235038   1.519   7.813  12.723
11067SOL     OW35039   8.974   6.657  14.778
11067SOL    HW135040   8.985   6.580  14.722
11067SOL    HW235041   9.061   6.695  14.784
11068SOL     OW35042   9.814   2.713  10.073
11068SOL    HW135043   9.889   2.703  10.015
11068SOL    HW235044   9.839   2.666  10.153
11069SOL     OW35045  10.424   3.835   8.541
11069SOL    HW135046  10.481   3.864   8.613
11069SOL    HW235047  10.476   3.769   8.495
11070SOL     OW35048  10.208   9.619  11.142
11070SOL    HW135049  10.188   9.565  11.066
11070SOL    HW235050  10.153   9.697  11.132
11071SOL     OW35051   0.570  10.338   8.852
11071SOL    HW135052   0.503  10.290   8.803
11071SOL    HW235053   0.645  10.341   8.792
11072SOL     OW35054   0.034   5.511   3.428
11072SOL    HW135055  14.841   5.576   3.423
11072SOL    HW235056   0.064   5.515   3.519
11073SOL     OW35057  10.347   4.027   7.387
11073SOL    HW135058  10.339   4.112   7.429
11073SOL    HW235059  10.293   3.968   7.440
11074SOL     OW35060  13.812   3.029   0.844
11074SOL    HW135061  13.893   3.043   0.893
11074SOL    HW235062  13.837   2.971   0.772
11075SOL     OW35063   0.734   5.955   3.606
11075SOL    HW135064   0.793   5.999   3.667
11075SOL    HW235065   0.782   5.954   3.523
11076SOL     OW35066  12.963   0.510   4.715
11076SOL    HW135067  13.035   0.491   4.655
11076SOL    HW235068  12.999   0.491   4.802
11077SOL     OW35069  13.412   0.552   3.256
11077SOL    HW135070  13.500   0.519   3.274
11077SOL    HW235071  13.423   0.646   3.246
11078SOL     OW35072   5.170  11.408   4.562
11078SOL    HW135073   5.200  11.498   4.570
11078SOL    HW235074   5.076  11.412   4.579
11079SOL     OW35075   2.392   9.422   7.771
11079SOL    HW135076   2.435   9.337   7.779
11079SOL    HW235077   2.438   9.466   7.699
11080SOL     OW35078   7.344   5.126   5.377
11080SOL    HW135079   7.402   5.085   5.442
11080SOL    HW235080   7.267   5.069   5.374
11081SOL     OW35081  10.305   3.237   5.456
11081SOL    HW135082  10.214   3.210   5.471
11081SOL    HW235083  10.357   3.160   5.480
11082SOL     OW35084  10.001   5.581   8.420
11082SOL    HW135085  10.022   5.649   8.485
11082SOL    HW235086  10.042   5.611   8.339
11083SOL     OW35087   1.781   2.760   7.067
11083SOL    HW135088   1.810   2.800   7.149
11083SOL    HW235089   1.707   2.814   7.038
11084SOL     OW35090   0.720   9.512   2.094
11084SOL    HW135091   0.739   9.421   2.117
11084SOL    HW235092   0.625   9.519   2.104
11085SOL     OW35093   9.811  13.750   8.992
11085SOL    HW135094   9.869  13.814   9.033
11085SOL    HW235095   9.832  13.667   9.036
11086SOL     OW35096   0.917   9.681   2.486
11086SOL    HW135097   0.928   9.663   2.579
11086SOL    HW235098   0.863   9.760   2.482
11087SOL     OW35099  11.388  12.577   7.752
11087SOL    HW135100  11.387  12.485   7.727
11087SOL    HW235101  11.392  12.576   7.848
11088SOL     OW35102   7.972   9.008  14.073
11088SOL    HW135103   8.017   8.999  13.989
11088SOL    HW235104   7.974   9.103  14.090
11089SOL     OW35105   9.058   6.256   8.546
11089SOL    HW135106   9.029   6.166   8.559
11089SOL    HW235107   9.000   6.309   8.600
11090SOL     OW35108   3.541   7.380   0.021
11090SOL    HW135109   3.589   7.395   0.102
11090SOL    HW235110   3.608   7.379  14.829
11091SOL     OW35111   1.351   6.438  11.980
11091SOL    HW135112   1.428   6.481  12.017
11091SOL    HW235113   1.280   6.461  12.040
11092SOL     OW35114   5.422  14.831   7.454
11092SOL    HW135115   5.375  14.749   7.440
11092SOL    HW235116   5.389   0.013   7.385
11093SOL     OW35117  11.745   7.542  13.720
11093SOL    HW135118  11.776   7.613  13.777
11093SOL    HW235119  11.777   7.565  13.633
11094SOL     OW35120   5.212   8.932   9.061
11094SOL    HW135121   5.242   8.846   9.033
11094SOL    HW235122   5.117   8.929   9.052
11095SOL     OW35123  10.330   0.277   4.928
11095SOL    HW135124  10.273   0.254   4.855
11095SOL    HW235125  10.406   0.220   4.918
11096SOL     OW35126   5.396   8.581   0.825
11096SOL    HW135127   5.419   8.672   0.838
11096SOL    HW235128   5.388   8.571   0.730
11097SOL     OW35129   1.495   5.283  13.791
11097SOL    HW135130   1.450   5.297  13.874
11097SOL    HW235131   1.561   5.216  13.810
11098SOL     OW35132  12.663   4.968   9.222
11098SOL    HW135133  12.732   5.015   9.176
11098SOL    HW235134  12.694   4.877   9.227
11099SOL     OW35135   0.651   5.673   8.966
11099SOL    HW135136   0.578   5.694   8.908
11099SOL    HW235137   0.708   5.617   8.914
11100SOL     OW35138  12.826   7.591   8.764
11100SOL    HW135139  12.828   7.612   8.858
11100SOL    HW235140  12.795   7.501   8.760
11101SOL     OW35141   3.466  13.753   2.059
11101SOL    HW135142   3.480  13.729   2.151
11101SOL    HW235143   3.397  13.694   2.029
11102SOL     OW35144   4.302  10.489   3.198
11102SOL    HW135145   4.378  10.541   3.170
11102SOL    HW235146   4.292  10.422   3.130
11103SOL     OW35147  10.055   9.021   4.496
11103SOL    HW135148  10.047   8.926   4.505
11103SOL    HW235149   9.989   9.043   4.430
11104SOL     OW35150   5.808   3.505   9.097
11104SOL    HW135151   5.729   3.547   9.061
11104SOL    HW235152   5.821   3.428   9.043
11105SOL     OW35153   8.733   2.580   5.411
11105SOL    HW135154   8.717   2.536   5.327
11105SOL    HW235155   8.802   2.643   5.392
11106SOL     OW35156   0.393   1.010   0.538
11106SOL    HW135157   0.358   1.055   0.615
11106SOL    HW235158   0.444   0.937   0.573
11107SOL     OW35159  12.460   3.021   0.038
11107SOL    HW135160  12.495   3.054   0.121
11107SOL    HW235161  12.433   3.100  14.867
11108SOL     OW35162   3.978   2.980   0.693
11108SOL    HW135163   4.034   2.925   0.638
11108SOL    HW235164   3.963   3.059   0.641
11109SOL     OW35165   2.264   8.621  14.099
11109SOL    HW135166   2.193   8.559  14.080
11109SOL    HW235167   2.218   8.701  14.125
11110SOL     OW35168   3.554  12.033  10.256
11110SOL    HW135169   3.585  12.123  10.263
11110SOL    HW235170   3.508  12.018  10.339
11111SOL     OW35171   3.349   8.646  12.857
11111SOL    HW135172   3.398   8.570  12.888
11111SOL    HW235173   3.260   8.634  12.891
11112SOL     OW35174  12.727   1.469  11.190
11112SOL    HW135175  12.819   1.493  11.194
11112SOL    HW235176  12.687   1.512  11.266
11113SOL     OW35177   0.136  10.472  11.613
11113SOL    HW135178   0.127  10.546  11.553
11113SOL    HW235179   0.086  10.497  11.690
11114SOL     OW35180   0.515   0.088   0.946
11114SOL    HW135181   0.598   0.091   0.898
11114SOL    HW235182   0.505  14.873   0.972
11115SOL     OW35183  13.369  12.000   4.294
11115SOL    HW135184  13.318  11.935   4.342
11115SOL    HW235185  13.303  12.054   4.251
11116SOL     OW35186   2.001  10.737   8.302
11116SOL    HW135187   1.961  10.812   8.258
11116SOL    HW235188   1.937  10.712   8.369
11117SOL     OW35189   3.465   3.507   3.314
11117SOL    HW135190   3.442   3.486   3.404
11117SOL    HW235191   3.414   3.587   3.295
11118SOL     OW35192   7.302   0.056   3.847
11118SOL    HW135193   7.275   0.142   3.817
11118SOL    HW235194   7.357   0.074   3.924
11119SOL     OW35195   3.760  14.147   2.689
11119SOL    HW135196   3.701  14.217   2.662
11119SOL    HW235197   3.702  14.080   2.727
11120SOL     OW35198  11.596   9.259  11.732
11120SOL    HW135199  11.509   9.299  11.739
11120SOL    HW235200  11.580   9.165  11.739
11121SOL     OW35201  12.899   6.841  14.062
11121SOL    HW135202  12.889   6.747  14.081
11121SOL    HW235203  12.916   6.880  14.148
11122SOL     OW35204   9.858   0.291   0.265
11122SOL    HW135205   9.947   0.293   0.230
11122SOL    HW235206   9.846   0.200   0.294
11123SOL     OW35207   9.990   6.295   6.023
11123SOL    HW135208   9.898   6.269   6.035
11123SOL    HW235209   9.986   6.386   5.996
11124SOL     OW35210   9.274   2.816  11.671
11124SOL    HW135211   9.220   2.877  11.621
11124SOL    HW235212   9.363   2.847  11.659
11125SOL     OW35213   0.213   5.619   7.429
11125SOL    HW135214   0.261   5.700   7.446
11125SOL    HW235215   0.250   5.586   7.347
11126SOL     OW35216   1.008   1.851   6.678
11126SOL    HW135217   1.099   1.869   6.652
11126SOL    HW235218   1.004   1.757   6.691
11127SOL     OW35219   9.270   2.154   5.525
11127SOL    HW135220   9.195   2.130   5.579
11127SOL    HW235221   9.332   2.195   5.585
11128SOL     OW35222  10.636   8.410  13.349
11128SOL    HW135223  10.588   8.476  13.300
11128SOL    HW235224  10.701   8.376  13.287
11129SOL     OW35225   6.430   2.008   7.611
11129SOL    HW135226   6.481   2.081   7.577
11129SOL    HW235227   6.375   1.981   7.538
11130SOL     OW35228   3.679   4.019  13.607
11130SOL    HW135229   3.765   4.012  13.566
11130SOL    HW235230   3.652   3.929  13.623
11131SOL     OW35231   3.415  10.922  10.387
11131SOL    HW135232   3.357  10.980  10.437
11131SOL    HW235233   3.377  10.835  10.396
11132SOL     OW35234   7.035   5.921  10.804
11132SOL    HW135235   7.111   5.865  10.787
11132SOL    HW235236   7.025   5.973  10.725
11133SOL     OW35237   3.477   3.036  10.442
11133SOL    HW135238   3.488   3.055  10.349
11133SOL    HW235239   3.461   3.121  10.482
11134SOL     OW35240   6.335  10.082  10.817
11134SOL    HW135241   6.315  10.038  10.735
11134SOL    HW235242   6.348  10.011  10.880
11135SOL     OW35243  14.592   3.914   2.964
11135SOL    HW135244  14.574   4.008   2.964
11135SOL    HW235245  14.685   3.908   2.943
11136SOL     OW35246  10.783   7.131   9.766
11136SOL    HW135247  10.713   7.067   9.774
11136SOL    HW235248  10.740   7.216   9.774
11137SOL     OW35249   9.300   7.966   7.851
11137SOL    HW135250   9.255   8.047   7.874
11137SOL    HW235251   9.230   7.901   7.843
11138SOL     OW35252  10.763   5.409   9.996
11138SOL    HW135253  10.687   5.462   9.970
11138SOL    HW235254  10.794   5.370   9.914
11139SOL     OW35255   3.360  13.483  11.443
11139SOL    HW135256   3.395  13.397  11.462
11139SOL    HW235257   3.417  13.518  11.375
11140SOL     OW35258   8.191  10.231   5.397
11140SOL    HW135259   8.272  10.257   5.440
11140SOL    HW235260   8.201  10.261   5.306
11141SOL     OW35261  11.630  10.393  12.632
11141SOL    HW135262  11.536  10.401  12.645
11141SOL    HW235263  11.669  10.438  12.707
11142SOL     OW35264   3.962   1.457  12.845
11142SOL    HW135265   3.924   1.543  12.831
11142SOL    HW235266   3.982   1.424  12.758
11143SOL     OW35267   0.697  13.690  11.684
11143SOL    HW135268   0.713  13.604  11.644
11143SOL    HW235269   0.697  13.751  11.610
11144SOL     OW35270  11.904   1.285   9.221
11144SOL    HW135271  11.993   1.289   9.187
11144SOL    HW235272  11.915   1.266   9.315
11145SOL     OW35273  14.624  13.103  13.616
11145SOL    HW135274  14.645  13.183  13.664
11145SOL    HW235275  14.553  13.127  13.558
11146SOL     OW35276   1.836  12.484   6.636
11146SOL    HW135277   1.800  12.537   6.707
11146SOL    HW235278   1.837  12.543   6.561
11147SOL     OW35279   1.798   3.281  12.863
11147SOL    HW135280   1.774   3.374  12.870
11147SOL    HW235281   1.819   3.255  12.953
11148SOL     OW35282   2.931   0.266   0.273
11148SOL    HW135283   2.837   0.259   0.291
11148SOL    HW235284   2.947   0.360   0.265
11149SOL     OW35285   3.515   9.411   0.278
11149SOL    HW135286   3.445   9.422   0.214
11149SOL    HW235287   3.494   9.329   0.323
11150SOL     OW35288   4.937  14.217   8.041
11150SOL    HW135289   5.032  14.226   8.035
11150SOL    HW235290   4.921  14.123   8.035
11151SOL     OW35291   3.825  10.312   2.134
11151SOL    HW135292   3.893  10.373   2.107
11151SOL    HW235293   3.871  10.230   2.148
11152SOL     OW35294  13.238   9.345   0.318
11152SOL    HW135295  13.153   9.358   0.277
11152SOL    HW235296  13.276   9.271   0.271
11153SOL     OW35297   3.681  14.554  10.801
11153SOL    HW135298   3.633  14.594  10.875
11153SOL    HW235299   3.662  14.461  10.808
11154SOL     OW35300   9.565   7.965  14.466
11154SOL    HW135301   9.519   8.036  14.509
11154SOL    HW235302   9.565   7.893  14.529
11155SOL     OW35303   5.517   2.564   9.359
11155SOL    HW135304   5.604   2.529   9.340
11155SOL    HW235305   5.530   2.624   9.432
11156SOL     OW35306   8.344   3.408   4.718
11156SOL    HW135307   8.299   3.490   4.698
11156SOL    HW235308   8.307   3.381   4.802
11157SOL     OW35309   9.601   6.822   7.310
11157SOL    HW135310   9.609   6.859   7.398
11157SOL    HW235311   9.692   6.807   7.282
11158SOL     OW35312   7.368   9.132  13.639
11158SOL    HW135313   7.365   9.085  13.723
11158SOL    HW235314   7.388   9.064  13.575
11159SOL     OW35315  11.544   4.451  10.783
11159SOL    HW135316  11.594   4.371  10.795
11159SOL    HW235317  11.520   4.478  10.872
11160SOL     OW35318   5.643  13.536   6.978
11160SOL    HW135319   5.607  13.616   7.016
11160SOL    HW235320   5.578  13.507   6.914
11161SOL     OW35321   6.594   3.008   7.037
11161SOL    HW135322   6.573   2.967   6.953
11161SOL    HW235323   6.689   2.999   7.045
11162SOL     OW35324   6.578   5.937  10.830
11162SOL    HW135325   6.633   5.910  10.757
11162SOL    HW235326   6.556   5.855  10.875
11163SOL     OW35327   5.571   3.366   9.606
11163SOL    HW135328   5.607   3.368   9.517
11163SOL    HW235329   5.625   3.302   9.652
11164SOL     OW35330   5.998  11.516   4.479
11164SOL    HW135331   5.980  11.422   4.474
11164SOL    HW235332   6.019  11.541   4.389
11165SOL     OW35333   1.892   2.955  14.101
11165SOL    HW135334   1.894   2.898  14.025
11165SOL    HW235335   1.934   2.905  14.170
11166SOL     OW35336   0.787  11.986  10.349
11166SOL    HW135337   0.798  11.914  10.411
11166SOL    HW235338   0.704  11.968  10.306
11167SOL     OW35339  10.196   7.331  11.292
11167SOL    HW135340  10.226   7.404  11.237
11167SOL    HW235341  10.273   7.275  11.301
11168SOL     OW35342   8.856  11.603   5.182
11168SOL    HW135343   8.786  11.593   5.118
11168SOL    HW235344   8.882  11.514   5.204
11169SOL     OW35345   8.806   2.557   0.020
11169SOL    HW135346   8.759   2.638   0.001
11169SOL    HW235347   8.855   2.539  14.816
11170SOL     OW35348   6.249   0.635   7.985
11170SOL    HW135349   6.226   0.727   7.997
11170SOL    HW235350   6.339   0.637   7.951
11171SOL     OW35351  12.975   8.669   2.461
11171SOL    HW135352  13.046   8.607   2.476
11171SOL    HW235353  12.998   8.714   2.380
11172SOL     OW35354  11.018   7.904   4.380
11172SOL    HW135355  10.954   7.931   4.314
11172SOL    HW235356  11.061   7.827   4.342
11173SOL     OW35357   0.365  12.698   2.897
11173SOL    HW135358   0.443  12.659   2.938
11173SOL    HW235359   0.388  12.790   2.885
11174SOL     OW35360   0.295  10.770   5.108
11174SOL    HW135361   0.246  10.691   5.132
11174SOL    HW235362   0.303  10.819   5.190
11175SOL     OW35363   5.199   1.986  13.928
11175SOL    HW135364   5.268   2.014  13.868
11175SOL    HW235365   5.176   2.065  13.976
11176SOL     OW35366   1.992   8.753  11.864
11176SOL    HW135367   2.033   8.667  11.867
11176SOL    HW235368   2.022   8.797  11.944
11177SOL     OW35369  11.128   0.829   1.478
11177SOL    HW135370  11.201   0.768   1.470
11177SOL    HW235371  11.059   0.792   1.424
11178SOL     OW35372  11.502   4.090  13.487
11178SOL    HW135373  11.549   4.109  13.407
11178SOL    HW235374  11.494   3.995  13.489
11179SOL     OW35375   5.884   5.767   3.945
11179SOL    HW135376   5.835   5.711   3.885
11179SOL    HW235377   5.975   5.763   3.914
11180SOL     OW35378   3.548   2.398  14.859
11180SOL    HW135379   3.473   2.346   0.012
11180SOL    HW235380   3.614   2.385   0.051
11181SOL     OW35381  14.132   0.354   1.170
11181SOL    HW135382  14.050   0.375   1.215
11181SOL    HW235383  14.137   0.259   1.172
11182SOL     OW35384  11.012   7.794  13.977
11182SOL    HW135385  10.950   7.722  13.965
11182SOL    HW235386  11.059   7.772  14.058
11183SOL     OW35387   4.902   3.298   8.260
11183SOL    HW135388   4.992   3.301   8.229
11183SOL    HW235389   4.897   3.367   8.326
11184SOL     OW35390   1.488   7.368  14.487
11184SOL    HW135391   1.422   7.438  14.488
11184SOL    HW235392   1.474   7.324  14.403
11185SOL     OW35393  12.314   4.565   7.898
11185SOL    HW135394  12.267   4.505   7.957
11185SOL    HW235395  12.405   4.535   7.902
11186SOL     OW35396  12.260   2.299  12.915
11186SOL    HW135397  12.308   2.365  12.964
11186SOL    HW235398  12.309   2.218  12.930
11187SOL     OW35399  12.580   9.513   4.290
11187SOL    HW135400  12.554   9.480   4.376
11187SOL    HW235401  12.673   9.534   4.300
11188SOL     OW35402   2.788   0.343  12.261
11188SOL    HW135403   2.699   0.362  12.290
11188SOL    HW235404   2.777   0.304  12.174
11189SOL     OW35405   0.397  12.019   8.699
11189SOL    HW135406   0.383  12.058   8.785
11189SOL    HW235407   0.489  11.992   8.700
11190SOL     OW35408   5.349  11.518   3.204
11190SOL    HW135409   5.363  11.427   3.229
11190SOL    HW235410   5.278  11.515   3.141
11191SOL     OW35411   1.454  10.259   8.766
11191SOL    HW135412   1.427  10.180   8.812
11191SOL    HW235413   1.391  10.269   8.695
11192SOL     OW35414   5.147  10.040  12.673
11192SOL    HW135415   5.193   9.959  12.694
11192SOL    HW235416   5.209  10.109  12.695
11193SOL     OW35417   2.194   8.118   1.192
11193SOL    HW135418   2.159   8.205   1.208
11193SOL    HW235419   2.118   8.060   1.191
11194SOL     OW35420  13.972   1.855  14.822
11194SOL    HW135421  13.949   1.877   0.036
11194SOL    HW235422  13.986   1.940  14.780
11195SOL     OW35423   0.620   2.267   1.386
11195SOL    HW135424   0.568   2.317   1.324
11195SOL    HW235425   0.567   2.189   1.405
11196SOL     OW35426  12.082   4.776   6.454
11196SOL    HW135427  12.036   4.858   6.472
11196SOL    HW235428  12.029   4.733   6.386
11197SOL     OW35429   9.616   5.272   4.774
11197SOL    HW135430   9.660   5.273   4.859
11197SOL    HW235431   9.587   5.362   4.760
11198SOL     OW35432   5.162   6.960  11.641
11198SOL    HW135433   5.166   6.958  11.737
11198SOL    HW235434   5.227   7.026  11.616
11199SOL     OW35435   3.319   8.629  10.580
11199SOL    HW135436   3.271   8.671  10.651
11199SOL    HW235437   3.250   8.604  10.518
11200SOL     OW35438   8.851   7.266  12.081
11200SOL    HW135439   8.762   7.247  12.051
11200SOL    HW235440   8.840   7.333  12.149
11201SOL     OW35441   4.319   1.727   1.074
11201SOL    HW135442   4.270   1.748   0.994
11201SOL    HW235443   4.319   1.632   1.077
11202SOL     OW35444  14.798   2.248   4.692
11202SOL    HW135445  14.845   2.329   4.710
11202SOL    HW235446  14.722   2.250   4.751
11203SOL     OW35447   2.542  11.634   8.379
11203SOL    HW135448   2.569  11.622   8.470
11203SOL    HW235449   2.515  11.725   8.373
11204SOL     OW35450   5.921   7.286   7.000
11204SOL    HW135451   5.879   7.221   7.056
11204SOL    HW235452   5.954   7.236   6.925
11205SOL     OW35453   1.647   5.814  12.409
11205SOL    HW135454   1.594   5.818  12.329
11205SOL    HW235455   1.626   5.729  12.448
11206SOL     OW35456   1.543   4.649   4.499
11206SOL    HW135457   1.557   4.741   4.521
11206SOL    HW235458   1.448   4.638   4.496
11207SOL     OW35459   7.120  12.832   1.777
11207SOL    HW135460   7.027  12.812   1.764
11207SOL    HW235461   7.125  12.861   1.868
11208SOL     OW35462   7.276   5.380  10.136
11208SOL    HW135463   7.257   5.286  10.133
11208SOL    HW235464   7.318   5.398  10.052
11209SOL     OW35465   6.214   0.318   5.833
11209SOL    HW135466   6.120   0.319   5.848
11209SOL    HW235467   6.249   0.382   5.895
11210SOL     OW35468   0.632   2.212   1.718
11210SOL    HW135469   0.639   2.184   1.627
11210SOL    HW235470   0.675   2.298   1.720
11211SOL     OW35471   9.078   1.293  13.990
11211SOL    HW135472   9.146   1.229  13.969
11211SOL    HW235473   8.999   1.240  14.004
11212SOL     OW35474   7.135  12.358   8.822
11212SOL    HW135475   7.119  12.421   8.752
11212SOL    HW235476   7.093  12.277   8.792
11213SOL     OW35477   6.231   0.080   9.489
11213SOL    HW135478   6.170   0.071   9.416
11213SOL    HW235479   6.314   0.046   9.456
11214SOL     OW35480   1.409  12.781   6.078
11214SOL    HW135481   1.436  12.768   5.987
11214SOL    HW235482   1.487  12.760   6.130
11215SOL     OW35483   4.769   9.077   0.126
11215SOL    HW135484   4.810   9.164   0.121
11215SOL    HW235485   4.706   9.077   0.054
11216SOL     OW35486  10.915   0.900   6.918
11216SOL    HW135487  10.857   0.871   6.988
11216SOL    HW235488  10.959   0.977   6.953
11217SOL     OW35489  14.062   8.884   9.243
11217SOL    HW135490  14.155   8.898   9.260
11217SOL    HW235491  14.031   8.968   9.209
11218SOL     OW35492  13.842   7.070   1.296
11218SOL    HW135493  13.761   7.109   1.263
11218SOL    HW235494  13.846   6.984   1.254
11219SOL     OW35495   8.236   4.860   2.485
11219SOL    HW135496   8.246   4.954   2.469
11219SOL    HW235497   8.253   4.820   2.400
11220SOL     OW35498   8.375  11.927   2.419
11220SOL    HW135499   8.387  11.983   2.497
11220SOL    HW235500   8.448  11.866   2.422
11221SOL     OW35501   9.600  10.716  12.773
11221SOL    HW135502   9.529  10.755  12.723
11221SOL    HW235503   9.620  10.780  12.841
11222SOL     OW35504   5.019   7.185   3.836
11222SOL    HW135505   5.111   7.212   3.830
11222SOL    HW235506   5.023   7.096   3.870
11223SOL     OW35507  13.912  12.776   8.960
11223SOL    HW135508  13.877  12.857   8.997
11223SOL    HW235509  13.845  12.710   8.980
11224SOL     OW35510   8.277   2.663   6.443
11224SOL    HW135511   8.262   2.605   6.518
11224SOL    HW235512   8.200   2.720   6.442
11225SOL     OW35513   2.427   3.826   9.533
11225SOL    HW135514   2.457   3.742   9.567
11225SOL    HW235515   2.442   3.820   9.439
11226SOL     OW35516   2.276   2.264   8.070
11226SOL    HW135517   2.220   2.262   7.992
11226SOL    HW235518   2.274   2.174   8.103
11227SOL     OW35519  13.363   7.628   5.865
11227SOL    HW135520  13.343   7.689   5.794
11227SOL    HW235521  13.382   7.683   5.941
11228SOL     OW35522  14.434   6.187   9.729
11228SOL    HW135523  14.358   6.146   9.689
11228SOL    HW235524  14.483   6.225   9.656
11229SOL     OW35525  11.334  10.974   3.288
11229SOL    HW135526  11.324  11.065   3.261
11229SOL    HW235527  11.427  10.955   3.275
11230SOL     OW35528   6.946  10.315   7.819
11230SOL    HW135529   6.897  10.274   7.747
11230SOL    HW235530   6.956  10.406   7.793
11231SOL     OW35531   4.200   0.465   5.214
11231SOL    HW135532   4.123   0.493   5.264
11231SOL    HW235533   4.209   0.372   5.234
11232SOL     OW35534   4.213   5.795   0.399
11232SOL    HW135535   4.150   5.858   0.365
11232SOL    HW235536   4.162   5.737   0.455
11233SOL     OW35537   5.409  13.431   6.843
11233SOL    HW135538   5.437  13.350   6.799
11233SOL    HW235539   5.364  13.401   6.922
11234SOL     OW35540   1.690   6.585   7.140
11234SOL    HW135541   1.649   6.571   7.225
11234SOL    HW235542   1.679   6.679   7.123
11235SOL     OW35543   2.710  11.608   4.828
11235SOL    HW135544   2.739  11.568   4.910
11235SOL    HW235545   2.693  11.700   4.851
11236SOL     OW35546   0.981  11.967   3.666
11236SOL    HW135547   1.036  11.932   3.596
11236SOL    HW235548   0.979  12.061   3.651
11237SOL     OW35549  12.225   7.340   0.617
11237SOL    HW135550  12.298   7.402   0.626
11237SOL    HW235551  12.181   7.343   0.702
11238SOL     OW35552   2.564   8.614   2.073
11238SOL    HW135553   2.505   8.656   2.136
11238SOL    HW235554   2.554   8.520   2.090
11239SOL     OW35555   5.870   3.833   9.531
11239SOL    HW135556   5.907   3.891   9.465
11239SOL    HW235557   5.786   3.874   9.555
11240SOL     OW35558  11.768   8.544   2.678
11240SOL    HW135559  11.738   8.617   2.623
11240SOL    HW235560  11.842   8.580   2.728
11241SOL     OW35561   7.954   7.588  13.342
11241SOL    HW135562   7.931   7.595  13.250
11241SOL    HW235563   8.044   7.620  13.348
11242SOL     OW35564   2.896   5.445  12.302
11242SOL    HW135565   2.925   5.366  12.257
11242SOL    HW235566   2.829   5.415  12.364
11243SOL     OW35567   3.019  11.128   0.755
11243SOL    HW135568   3.064  11.095   0.832
11243SOL    HW235569   3.053  11.216   0.742
11244SOL     OW35570   0.706   6.986   7.017
11244SOL    HW135571   0.738   7.000   7.106
11244SOL    HW235572   0.762   7.041   6.962
11245SOL     OW35573   5.774   4.712  14.139
11245SOL    HW135574   5.848   4.673  14.186
11245SOL    HW235575   5.721   4.637  14.112
11246SOL     OW35576   4.023   9.708   9.316
11246SOL    HW135577   4.049   9.733   9.227
11246SOL    HW235578   4.105   9.704   9.365
11247SOL     OW35579   7.790  13.466  13.053
11247SOL    HW135580   7.783  13.391  12.994
11247SOL    HW235581   7.882  13.491  13.050
11248SOL     OW35582   6.719   3.766   4.747
11248SOL    HW135583   6.659   3.700   4.712
11248SOL    HW235584   6.679   3.794   4.829
11249SOL     OW35585  13.226  12.801   4.909
11249SOL    HW135586  13.287  12.782   4.980
11249SOL    HW235587  13.144  12.823   4.953
11250SOL     OW35588   0.179   5.762  10.935
11250SOL    HW135589   0.249   5.828  10.932
11250SOL    HW235590   0.099   5.812  10.917
11251SOL     OW35591   8.630  11.788  11.689
11251SOL    HW135592   8.657  11.723  11.754
11251SOL    HW235593   8.655  11.750  11.605
11252SOL     OW35594   2.516  13.427  12.526
11252SOL    HW135595   2.529  13.521  12.535
11252SOL    HW235596   2.429  13.418  12.486
11253SOL     OW35597  14.868   9.877  13.115
11253SOL    HW135598   0.017   9.969  13.127
11253SOL    HW235599   0.072   9.828  13.136
11254SOL     OW35600  13.921  10.530   3.426
11254SOL    HW135601  13.872  10.449   3.410
11254SOL    HW235602  13.854  10.592   3.457
11255SOL     OW35603  11.431   8.646   5.860
11255SOL    HW135604  11.452   8.581   5.928
11255SOL    HW235605  11.379   8.712   5.906
11256SOL     OW35606   4.068   0.404  14.792
11256SOL    HW135607   4.135   0.359  14.741
11256SOL    HW235608   4.005   0.336  14.815
11257SOL     OW35609   8.171   4.522   5.404
11257SOL    HW135610   8.158   4.611   5.436
11257SOL    HW235611   8.082   4.492   5.382
11258SOL     OW35612  11.243  11.614   4.102
11258SOL    HW135613  11.327  11.651   4.131
11258SOL    HW235614  11.189  11.691   4.082
11259SOL     OW35615   4.423   4.951  12.358
11259SOL    HW135616   4.433   4.858  12.338
11259SOL    HW235617   4.357   4.982  12.296
11260SOL     OW35618   5.326   5.512  13.852
11260SOL    HW135619   5.410   5.544  13.883
11260SOL    HW235620   5.315   5.552  13.765
11261SOL     OW35621   6.050  11.922  12.842
11261SOL    HW135622   5.965  11.883  12.824
11261SOL    HW235623   6.063  11.909  12.936
11262SOL     OW35624  10.688  12.713   7.360
11262SOL    HW135625  10.770  12.758   7.337
11262SOL    HW235626  10.714  12.649   7.427
11263SOL     OW35627  13.496   5.911  14.197
11263SOL    HW135628  13.521   5.954  14.115
11263SOL    HW235629  13.410   5.873  14.179
11264SOL     OW35630   7.457   4.461   5.042
11264SOL    HW135631   7.487   4.518   4.972
11264SOL    HW235632   7.411   4.520   5.103
11265SOL     OW35633   2.218   9.487   3.294
11265SOL    HW135634   2.267   9.467   3.374
11265SOL    HW235635   2.284   9.521   3.233
11266SOL     OW35636   3.715  10.192   8.524
11266SOL    HW135637   3.793  10.143   8.497
11266SOL    HW235638   3.738  10.227   8.610
11267SOL     OW35639   8.250  13.798   5.182
11267SOL    HW135640   8.172  13.762   5.224
11267SOL    HW235641   8.320  13.737   5.204
11268SOL     OW35642  14.568   2.535   3.045
11268SOL    HW135643  14.656   2.503   3.066
11268SOL    HW235644  14.510   2.487   3.104
11269SOL     OW35645   2.465  14.781   7.287
11269SOL    HW135646   2.550  14.823   7.296
11269SOL    HW235647   2.402  14.850   7.306
11270SOL     OW35648  13.897  14.474  13.794
11270SOL    HW135649  13.841  14.401  13.767
11270SOL    HW235650  13.975  14.464  13.739
11271SOL     OW35651   3.539   1.350   9.298
11271SOL    HW135652   3.583   1.406   9.362
11271SOL    HW235653   3.557   1.261   9.327
11272SOL     OW35654   2.896  14.136   3.311
11272SOL    HW135655   2.812  14.179   3.296
11272SOL    HW235656   2.892  14.057   3.257
11273SOL     OW35657   5.025  11.044   5.683
11273SOL    HW135658   4.959  11.016   5.620
11273SOL    HW235659   5.058  11.127   5.648
11274SOL     OW35660  10.129   9.156  12.942
11274SOL    HW135661  10.180   9.075  12.947
11274SOL    HW235662  10.162   9.200  12.863
11275SOL     OW35663   8.562   2.186  10.075
11275SOL    HW135664   8.557   2.176   9.980
11275SOL    HW235665   8.472   2.205  10.102
11276SOL     OW35666  10.591   0.398  13.810
11276SOL    HW135667  10.664   0.338  13.822
11276SOL    HW235668  10.610   0.470  13.870
11277SOL     OW35669   7.858   4.544   1.219
11277SOL    HW135670   7.854   4.449   1.229
11277SOL    HW235671   7.823   4.579   1.301
11278SOL     OW35672  12.185   5.947   8.187
11278SOL    HW135673  12.173   5.885   8.115
11278SOL    HW235674  12.258   5.911   8.237
11279SOL     OW35675   8.293  10.576   2.129
11279SOL    HW135676   8.311  10.555   2.038
11279SOL    HW235677   8.231  10.508   2.157
11280SOL     OW35678   5.970   6.003   9.094
11280SOL    HW135679   6.044   6.054   9.126
11280SOL    HW235680   5.895   6.063   9.099
11281SOL     OW35681   4.063   5.234  13.928
11281SOL    HW135682   3.970   5.251  13.912
11281SOL    HW235683   4.094   5.315  13.969
11282SOL     OW35684   1.245   4.298   8.533
11282SOL    HW135685   1.158   4.332   8.555
11282SOL    HW235686   1.272   4.350   8.457
11283SOL     OW35687  13.116   6.982  11.696
11283SOL    HW135688  13.026   7.009  11.678
11283SOL    HW235689  13.115   6.887  11.687
11284SOL     OW35690   0.129   3.319   4.905
11284SOL    HW135691   0.052   3.365   4.870
11284SOL    HW235692   0.156   3.373   4.980
11285SOL     OW35693   7.460   7.572  11.959
11285SOL    HW135694   7.542   7.541  11.920
11285SOL    HW235695   7.396   7.503  11.940
11286SOL     OW35696   3.844   9.230  12.518
11286SOL    HW135697   3.809   9.315  12.492
11286SOL    HW235698   3.939   9.243  12.521
11287SOL     OW35699   2.514   8.477  14.139
11287SOL    HW135700   2.489   8.454  14.049
11287SOL    HW235701   2.459   8.552  14.161
11288SOL     OW35702   6.864   0.475   5.394
11288SOL    HW135703   6.897   0.556   5.434
11288SOL    HW235704   6.859   0.494   5.301
11289SOL     OW35705   8.843  13.060   2.434
11289SOL    HW135706   8.913  13.108   2.390
11289SOL    HW235707   8.842  13.096   2.523
11290SOL     OW35708   1.613  13.059  14.096
11290SOL    HW135709   1.529  13.102  14.108
11290SOL    HW235710   1.661  13.116  14.036
11291SOL     OW35711   3.460  14.712   5.133
11291SOL    HW135712   3.382  14.693   5.080
11291SOL    HW235713   3.456  14.806   5.149
11292SOL     OW35714  12.184   0.956  13.636
11292SOL    HW135715  12.107   0.939  13.689
11292SOL    HW235716  12.193   1.052  13.636
11293SOL     OW35717   3.901  11.928   6.709
11293SOL    HW135718   3.914  11.836   6.684
11293SOL    HW235719   3.819  11.953   6.667
11294SOL     OW35720   1.543   0.665   5.401
11294SOL    HW135721   1.552   0.688   5.309
11294SOL    HW235722   1.477   0.726   5.435
11295SOL     OW35723   7.800  10.907  11.005
11295SOL    HW135724   7.709  10.904  10.975
11295SOL    HW235725   7.835  10.821  10.984
11296SOL     OW35726  14.284  11.568   8.288
11296SOL    HW135727  14.267  11.628   8.215
11296SOL    HW235728  14.201  11.521   8.299
11297SOL     OW35729   9.038   3.029   9.853
11297SOL    HW135730   9.010   2.950   9.898
11297SOL    HW235731   9.001   3.101   9.904
11298SOL     OW35732   5.022  12.692   9.137
11298SOL    HW135733   4.973  12.731   9.064
11298SOL    HW235734   4.958  12.636   9.181
11299SOL     OW35735   3.151   9.822  11.380
11299SOL    HW135736   3.073   9.868  11.350
11299SOL    HW235737   3.177   9.869  11.460
11300SOL     OW35738  10.837  13.980   4.525
11300SOL    HW135739  10.886  14.062   4.524
11300SOL    HW235740  10.752  14.004   4.563
11301SOL     OW35741  12.780   0.179  13.392
11301SOL    HW135742  12.793   0.205  13.483
11301SOL    HW235743  12.804   0.256  13.341
11302SOL     OW35744  14.182  12.079   0.799
11302SOL    HW135745  14.255  12.018   0.806
11302SOL    HW235746  14.222  12.165   0.796
11303SOL     OW35747   4.697   8.806   5.086
11303SOL    HW135748   4.724   8.878   5.028
11303SOL    HW235749   4.766   8.741   5.078
11304SOL     OW35750   1.718   0.620   7.577
11304SOL    HW135751   1.741   0.528   7.562
11304SOL    HW235752   1.642   0.616   7.636
11305SOL     OW35753   1.430  12.169   4.409
11305SOL    HW135754   1.375  12.092   4.426
11305SOL    HW235755   1.492  12.170   4.481
11306SOL     OW35756   8.016  10.344   0.973
11306SOL    HW135757   8.096  10.377   0.932
11306SOL    HW235758   8.046  10.296   1.050
11307SOL     OW35759  13.246   6.313  12.609
11307SOL    HW135760  13.252   6.407  12.624
11307SOL    HW235761  13.255   6.302  12.515
11308SOL     OW35762   5.187   6.914   2.756
11308SOL    HW135763   5.100   6.877   2.740
11308SOL    HW235764   5.183   6.944   2.847
11309SOL     OW35765   7.311   7.938   6.463
11309SOL    HW135766   7.324   7.912   6.554
11309SOL    HW235767   7.359   7.873   6.412
11310SOL     OW35768   1.683   6.363  11.800
11310SOL    HW135769   1.691   6.452  11.764
11310SOL    HW235770   1.771   6.327  11.795
11311SOL     OW35771   2.210   6.327  11.321
11311SOL    HW135772   2.291   6.351  11.365
11311SOL    HW235773   2.210   6.231  11.320
11312SOL     OW35774   4.081  10.611   9.414
11312SOL    HW135775   4.119  10.571   9.493
11312SOL    HW235776   4.136  10.688   9.398
11313SOL     OW35777   6.209   8.444   2.529
11313SOL    HW135778   6.163   8.363   2.552
11313SOL    HW235779   6.251   8.472   2.610
11314SOL     OW35780  14.021   1.918  11.266
11314SOL    HW135781  14.090   1.871  11.313
11314SOL    HW235782  13.940   1.881  11.300
11315SOL     OW35783   2.918  10.209   2.622
11315SOL    HW135784   2.892  10.228   2.532
11315SOL    HW235785   2.966  10.127   2.616
11316SOL     OW35786  13.857  14.617   8.361
11316SOL    HW135787  13.879  14.710   8.356
11316SOL    HW235788  13.853  14.598   8.455
11317SOL     OW35789   1.071   0.777  12.345
11317SOL    HW135790   1.081   0.697  12.395
11317SOL    HW235791   0.978   0.781  12.322
11318SOL     OW35792  11.529   2.453  12.921
11318SOL    HW135793  11.453   2.484  12.970
11318SOL    HW235794  11.595   2.522  12.933
11319SOL     OW35795   9.146   1.421   3.519
11319SOL    HW135796   9.110   1.408   3.431
11319SOL    HW235797   9.112   1.506   3.546
11320SOL     OW35798   9.015  12.684   0.957
11320SOL    HW135799   9.057  12.733   1.028
11320SOL    HW235800   9.088  12.647   0.908
11321SOL     OW35801  12.711   7.312   1.961
11321SOL    HW135802  12.743   7.228   1.995
11321SOL    HW235803  12.616   7.299   1.952
11322SOL     OW35804   3.544  12.651  13.038
11322SOL    HW135805   3.630  12.678  13.005
11322SOL    HW235806   3.493  12.633  12.959
11323SOL     OW35807  10.581  12.619   1.543
11323SOL    HW135808  10.557  12.616   1.450
11323SOL    HW235809  10.662  12.671   1.545
11324SOL     OW35810   1.810  12.718   8.738
11324SOL    HW135811   1.763  12.791   8.698
11324SOL    HW235812   1.867  12.759   8.803
11325SOL     OW35813   9.583  12.620  12.713
11325SOL    HW135814   9.510  12.585  12.662
11325SOL    HW235815   9.553  12.616  12.804
11326SOL     OW35816  12.069   2.142  14.473
11326SOL    HW135817  12.144   2.140  14.413
11326SOL    HW235818  12.017   2.066  14.449
11327SOL     OW35819  12.397  13.154   2.600
11327SOL    HW135820  12.412  13.115   2.686
11327SOL    HW235821  12.316  13.204   2.610
11328SOL     OW35822   5.823  12.085   9.320
11328SOL    HW135823   5.733  12.075   9.352
11328SOL    HW235824   5.877  12.041   9.386
11329SOL     OW35825   6.423   2.983   2.488
11329SOL    HW135826   6.357   3.052   2.477
11329SOL    HW235827   6.373   2.908   2.519
11330SOL     OW35828   5.654   1.780   6.065
11330SOL    HW135829   5.694   1.737   5.990
11330SOL    HW235830   5.721   1.842   6.096
11331SOL     OW35831   2.463  12.721  11.276
11331SOL    HW135832   2.456  12.804  11.229
11331SOL    HW235833   2.419  12.657  11.220
11332SOL     OW35834  10.053  12.879  13.194
11332SOL    HW135835  10.015  12.878  13.282
11332SOL    HW235836  10.130  12.936  13.202
11333SOL     OW35837  12.742   2.615   3.579
11333SOL    HW135838  12.723   2.594   3.670
11333SOL    HW235839  12.800   2.691   3.583
11334SOL     OW35840   2.434   6.677  12.067
11334SOL    HW135841   2.379   6.749  12.038
11334SOL    HW235842   2.374   6.603  12.078
11335SOL     OW35843   7.503   9.559   6.766
11335SOL    HW135844   7.523   9.650   6.742
11335SOL    HW235845   7.574   9.534   6.824
11336SOL     OW35846   8.347   8.056   6.728
11336SOL    HW135847   8.442   8.072   6.728
11336SOL    HW235848   8.338   7.971   6.770
11337SOL     OW35849   3.318   4.211   0.738
11337SOL    HW135850   3.321   4.282   0.674
11337SOL    HW235851   3.409   4.183   0.747
11338SOL     OW35852  10.702   6.612  12.113
11338SOL    HW135853  10.642   6.685  12.133
11338SOL    HW235854  10.742   6.637  12.030
11339SOL     OW35855   9.123   0.814  12.138
11339SOL    HW135856   9.085   0.891  12.095
11339SOL    HW235857   9.109   0.742  12.075
11340SOL     OW35858  14.376  10.280  14.226
11340SOL    HW135859  14.452  10.227  14.203
11340SOL    HW235860  14.411  10.367  14.243
11341SOL     OW35861   1.173  10.303   5.812
11341SOL    HW135862   1.112  10.279   5.742
11341SOL    HW235863   1.117  10.331   5.884
11342SOL     OW35864   2.410  11.885   8.002
11342SOL    HW135865   2.494  11.846   8.028
11342SOL    HW235866   2.371  11.821   7.944
11343SOL     OW35867  11.098  12.243  11.435
11343SOL    HW135868  11.029  12.210  11.378
11343SOL    HW235869  11.085  12.338  11.437
11344SOL     OW35870   1.894   3.546  10.763
11344SOL    HW135871   1.918   3.457  10.736
11344SOL    HW235872   1.978   3.586  10.788
11345SOL     OW35873   0.330   8.880   3.434
11345SOL    HW135874   0.364   8.832   3.358
11345SOL    HW235875   0.364   8.831   3.509
11346SOL     OW35876  10.901   0.151   4.527
11346SOL    HW135877  10.898   0.217   4.597
11346SOL    HW235878  10.854   0.191   4.454
11347SOL     OW35879   3.365   7.963  11.394
11347SOL    HW135880   3.321   7.953  11.478
11347SOL    HW235881   3.381   8.057  11.386
11348SOL     OW35882  11.473   3.442  10.891
11348SOL    HW135883  11.544   3.378  10.893
11348SOL    HW235884  11.508   3.514  10.837
11349SOL     OW35885   8.089   3.301  12.517
11349SOL    HW135886   8.092   3.210  12.486
11349SOL    HW235887   8.129   3.298  12.604
11350SOL     OW35888   6.533   7.491   1.040
11350SOL    HW135889   6.621   7.513   1.009
11350SOL    HW235890   6.498   7.574   1.072
11351SOL     OW35891   1.486  12.030   7.490
11351SOL    HW135892   1.504  12.027   7.396
11351SOL    HW235893   1.426  12.103   7.501
11352SOL     OW35894   3.007  13.437   1.721
11352SOL    HW135895   2.937  13.434   1.786
11352SOL    HW235896   3.004  13.351   1.679
11353SOL     OW35897   1.041   0.299   9.573
11353SOL    HW135898   1.093   0.259   9.503
11353SOL    HW235899   0.982   0.230   9.603
11354SOL     OW35900  11.327   8.863   5.397
11354SOL    HW135901  11.378   8.916   5.457
11354SOL    HW235902  11.314   8.779   5.442
11355SOL     OW35903   6.261  12.396   5.067
11355SOL    HW135904   6.288  12.469   5.011
11355SOL    HW235905   6.316  12.405   5.145
11356SOL     OW35906   9.619   4.319   5.178
11356SOL    HW135907   9.574   4.238   5.201
11356SOL    HW235908   9.561   4.388   5.210
11357SOL     OW35909   5.395   5.286  13.964
11357SOL    HW135910   5.415   5.317  14.052
11357SOL    HW235911   5.364   5.364  13.918
11358SOL     OW35912   4.492  12.991  13.324
11358SOL    HW135913   4.579  12.954  13.331
11358SOL    HW235914   4.437  12.919  13.295
11359SOL     OW35915  12.106   2.845   2.995
11359SOL    HW135916  12.048   2.859   3.070
11359SOL    HW235917  12.061   2.887   2.922
11360SOL     OW35918   1.703   9.541   9.327
11360SOL    HW135919   1.659   9.611   9.279
11360SOL    HW235920   1.726   9.581   9.411
11361SOL     OW35921   4.868   7.397   6.686
11361SOL    HW135922   4.885   7.384   6.780
11361SOL    HW235923   4.912   7.479   6.665
11362SOL     OW35924   7.442   0.942   5.954
11362SOL    HW135925   7.507   0.896   5.901
11362SOL    HW235926   7.435   0.889   6.033
11363SOL     OW35927   1.219   4.280   8.032
11363SOL    HW135928   1.243   4.187   8.022
11363SOL    HW235929   1.142   4.279   8.088
11364SOL     OW35930  13.300   0.013  14.124
11364SOL    HW135931  13.223  14.859  14.172
11364SOL    HW235932  13.347   0.069  14.186
11365SOL     OW35933   6.611   6.411   6.014
11365SOL    HW135934   6.657   6.454   6.087
11365SOL    HW235935   6.546   6.355   6.057
11366SOL     OW35936  13.724  13.315   3.312
11366SOL    HW135937  13.737  13.335   3.404
11366SOL    HW235938  13.648  13.257   3.310
11367SOL     OW35939   5.678  13.326   4.337
11367SOL    HW135940   5.621  13.401   4.321
11367SOL    HW235941   5.734  13.354   4.409
11368SOL     OW35942  11.287  14.021   6.978
11368SOL    HW135943  11.323  14.090   6.923
11368SOL    HW235944  11.305  13.940   6.930
11369SOL     OW35945   2.067   9.174   3.087
11369SOL    HW135946   2.125   9.174   3.164
11369SOL    HW235947   2.111   9.231   3.024
11370SOL     OW35948   8.210  12.129  14.496
11370SOL    HW135949   8.192  12.216  14.461
11370SOL    HW235950   8.144  12.073  14.456
11371SOL     OW35951   5.690  11.068   9.832
11371SOL    HW135952   5.625  11.019   9.882
11371SOL    HW235953   5.767  11.010   9.830
11372SOL     OW35954   7.268   3.127   1.717
11372SOL    HW135955   7.321   3.053   1.685
11372SOL    HW235956   7.187   3.087   1.747
11373SOL     OW35957   9.001   2.059  12.781
11373SOL    HW135958   9.047   2.052  12.697
11373SOL    HW235959   8.973   2.151  12.785
11374SOL     OW35960   8.567   2.783  10.936
11374SOL    HW135961   8.627   2.852  10.907
11374SOL    HW235962   8.500   2.829  10.986
11375SOL     OW35963   8.152   9.056   3.956
11375SOL    HW135964   8.137   9.136   3.905
11375SOL    HW235965   8.242   9.032   3.938
11376SOL     OW35966   5.804   7.277  14.500
11376SOL    HW135967   5.766   7.329  14.430
11376SOL    HW235968   5.898   7.280  14.485
11377SOL     OW35969   8.352   1.145  11.413
11377SOL    HW135970   8.352   1.062  11.365
11377SOL    HW235971   8.441   1.153  11.447
11378SOL     OW35972   9.921   8.661  14.624
11378SOL    HW135973  10.015   8.658  14.606
11378SOL    HW235974   9.895   8.570  14.639
11379SOL     OW35975   7.065   6.703   0.476
11379SOL    HW135976   7.045   6.647   0.551
11379SOL    HW235977   6.979   6.733   0.445
11380SOL     OW35978   4.809   9.630   0.590
11380SOL    HW135979   4.760   9.549   0.578
11380SOL    HW235980   4.744   9.699   0.578
11381SOL     OW35981   8.900   9.270   2.333
11381SOL    HW135982   8.924   9.360   2.308
11381SOL    HW235983   8.982   9.232   2.364
11382SOL     OW35984   6.247   9.143   9.722
11382SOL    HW135985   6.161   9.110   9.693
11382SOL    HW235986   6.252   9.120   9.814
11383SOL     OW35987   1.272   0.524   8.902
11383SOL    HW135988   1.367   0.512   8.897
11383SOL    HW235989   1.242   0.508   8.813
11384SOL     OW35990  11.991   6.288   5.495
11384SOL    HW135991  12.051   6.309   5.567
11384SOL    HW235992  11.998   6.362   5.436
11385SOL     OW35993   6.223   4.058   6.906
11385SOL    HW135994   6.162   3.989   6.879
11385SOL    HW235995   6.179   4.140   6.884
11386SOL     OW35996  10.113  10.351   9.964
11386SOL    HW135997  10.080  10.267   9.995
11386SOL    HW235998  10.206  10.335   9.946
11387SOL     OW35999  14.578  13.739   8.453
11387SOL    HW136000  14.530  13.701   8.379
11387SOL    HW236001  14.580  13.833   8.436
11388SOL     OW36002  14.315  13.711   1.143
11388SOL    HW136003  14.350  13.667   1.065
11388SOL    HW236004  14.221  13.713   1.129
11389SOL     OW36005   1.645   1.223  10.505
11389SOL    HW136006   1.669   1.313  10.480
11389SOL    HW236007   1.614   1.231  10.595
11390SOL     OW36008  10.494  10.065   2.929
11390SOL    HW136009  10.579  10.057   2.885
11390SOL    HW236010  10.489   9.989   2.987
11391SOL     OW36011   2.443   0.736   7.351
11391SOL    HW136012   2.516   0.798   7.359
11391SOL    HW236013   2.484   0.650   7.360
11392SOL     OW36014   4.011   4.088   4.339
11392SOL    HW136015   3.993   4.181   4.320
11392SOL    HW236016   4.047   4.054   4.257
11393SOL     OW36017  12.687   0.050   8.315
11393SOL    HW136018  12.632   0.069   8.239
11393SOL    HW236019  12.626   0.054   8.389
11394SOL     OW36020   0.898   6.084  13.949
11394SOL    HW136021   0.961   6.114  13.884
11394SOL    HW236022   0.827   6.045  13.897
11395SOL     OW36023  13.196   9.233   3.881
11395SOL    HW136024  13.197   9.239   3.977
11395SOL    HW236025  13.159   9.316   3.852
11396SOL     OW36026   0.913   9.792   6.490
11396SOL    HW136027   0.874   9.879   6.484
11396SOL    HW236028   0.890   9.750   6.408
11397SOL     OW36029   0.791   3.806   3.829
11397SOL    HW136030   0.726   3.877   3.828
11397SOL    HW236031   0.792   3.776   3.920
11398SOL     OW36032   3.965   2.892   1.447
11398SOL    HW136033   3.984   2.830   1.518
11398SOL    HW236034   3.916   2.963   1.489
11399SOL     OW36035   4.024   2.513   7.388
11399SOL    HW136036   3.979   2.430   7.372
11399SOL    HW236037   3.961   2.580   7.361
11400SOL     OW36038   2.196   6.356   6.012
11400SOL    HW136039   2.166   6.447   6.003
11400SOL    HW236040   2.209   6.327   5.922
11401SOL     OW36041   7.888   4.235  11.244
11401SOL    HW136042   7.923   4.303  11.186
11401SOL    HW236043   7.795   4.257  11.252
11402SOL     OW36044  13.766  14.731   7.171
11402SOL    HW136045  13.843  14.772   7.210
11402SOL    HW236046  13.725  14.684   7.244
11403SOL     OW36047  10.927   1.476   2.582
11403SOL    HW136048  10.956   1.387   2.603
11403SOL    HW236049  10.840   1.465   2.546
11404SOL     OW36050   3.583   6.529   1.223
11404SOL    HW136051   3.523   6.526   1.149
11404SOL    HW236052   3.629   6.445   1.221
11405SOL     OW36053   6.569   8.922   2.193
11405SOL    HW136054   6.580   8.847   2.252
11405SOL    HW236055   6.547   8.995   2.251
11406SOL     OW36056  11.977   7.104   6.958
11406SOL    HW136057  11.966   7.122   6.864
11406SOL    HW236058  11.991   7.009   6.962
11407SOL     OW36059  14.229   1.483   5.015
11407SOL    HW136060  14.261   1.531   4.939
11407SOL    HW236061  14.284   1.514   5.087
11408SOL     OW36062  12.372  10.261   0.429
11408SOL    HW136063  12.354  10.187   0.487
11408SOL    HW236064  12.377  10.223   0.341
11409SOL     OW36065   2.126  10.432   1.767
11409SOL    HW136066   2.092  10.368   1.705
11409SOL    HW236067   2.113  10.517   1.725
11410SOL     OW36068   0.007   9.534   4.363
11410SOL    HW136069  14.807   9.572   4.406
11410SOL    HW236070   0.015   9.583   4.281
11411SOL     OW36071   2.397   8.602  11.416
11411SOL    HW136072   2.316   8.648  11.433
11411SOL    HW236073   2.463   8.671  11.408
11412SOL     OW36074   9.491   2.545  11.160
11412SOL    HW136075   9.443   2.500  11.090
11412SOL    HW236076   9.438   2.622  11.179
11413SOL     OW36077   3.605   8.092   1.408
11413SOL    HW136078   3.539   8.157   1.384
11413SOL    HW236079   3.610   8.033   1.333
11414SOL     OW36080  11.025  12.512   1.969
11414SOL    HW136081  10.945  12.500   1.918
11414SOL    HW236082  11.056  12.423   1.985
11415SOL     OW36083   4.905   2.264   0.915
11415SOL    HW136084   4.853   2.296   0.989
11415SOL    HW236085   4.844   2.209   0.865
11416SOL     OW36086   7.972  11.108   3.862
11416SOL    HW136087   8.035  11.168   3.901
11416SOL    HW236088   8.022  11.056   3.801
11417SOL     OW36089  11.277   5.573   1.937
11417SOL    HW136090  11.197   5.558   1.987
11417SOL    HW236091  11.288   5.494   1.884
11418SOL     OW36092   9.057   1.292   4.438
11418SOL    HW136093   8.973   1.335   4.420
11418SOL    HW236094   9.122   1.359   4.419
11419SOL     OW36095  14.331   4.286   6.205
11419SOL    HW136096  14.283   4.353   6.254
11419SOL    HW236097  14.303   4.203   6.243
11420SOL     OW36098   8.449   7.910   6.423
11420SOL    HW136099   8.474   7.867   6.341
11420SOL    HW236100   8.473   8.001   6.410
11421SOL     OW36101   4.918   0.665  10.113
11421SOL    HW136102   4.834   0.708  10.133
11421SOL    HW236103   4.907   0.631  10.024
11422SOL     OW36104  13.418   7.652   1.749
11422SOL    HW136105  13.399   7.559   1.764
11422SOL    HW236106  13.505   7.652   1.708
11423SOL     OW36107  12.681   4.344   9.258
11423SOL    HW136108  12.642   4.261   9.231
11423SOL    HW236109  12.697   4.391   9.177
11424SOL     OW36110  14.344   1.208   6.392
11424SOL    HW136111  14.322   1.117   6.408
11424SOL    HW236112  14.394   1.235   6.469
11425SOL     OW36113   5.023  11.353   8.321
11425SOL    HW136114   4.997  11.295   8.249
11425SOL    HW236115   5.012  11.299   8.400
11426SOL     OW36116   5.322   7.338   7.287
11426SOL    HW136117   5.319   7.433   7.297
11426SOL    HW236118   5.294   7.322   7.197
11427SOL     OW36119   7.045   0.657   7.214
11427SOL    HW136120   6.968   0.714   7.221
11427SOL    HW236121   7.100   0.683   7.287
11428SOL     OW36122  12.392   0.531  10.200
11428SOL    HW136123  12.329   0.574  10.258
11428SOL    HW236124  12.387   0.438  10.222
11429SOL     OW36125   3.579   1.600  11.328
11429SOL    HW136126   3.517   1.536  11.361
11429SOL    HW236127   3.650   1.600  11.392
11430SOL     OW36128  13.328   4.422   6.991
11430SOL    HW136129  13.367   4.510   6.995
11430SOL    HW236130  13.260   4.423   7.058
11431SOL     OW36131   5.692   8.321  13.182
11431SOL    HW136132   5.782   8.289  13.175
11431SOL    HW236133   5.698   8.413  13.157
11432SOL     OW36134   9.859  12.912  13.016
11432SOL    HW136135   9.926  12.895  12.950
11432SOL    HW236136   9.903  12.895  13.099
11433SOL     OW36137   7.246   5.627  14.180
11433SOL    HW136138   7.210   5.564  14.118
11433SOL    HW236139   7.311   5.675  14.130
11434SOL     OW36140  11.961   7.915   2.249
11434SOL    HW136141  11.945   7.902   2.343
11434SOL    HW236142  11.908   7.991   2.226
11435SOL     OW36143  13.961   5.937   4.672
11435SOL    HW136144  14.053   5.941   4.697
11435SOL    HW236145  13.942   5.844   4.667
11436SOL     OW36146   1.825   9.041   5.264
11436SOL    HW136147   1.790   9.120   5.224
11436SOL    HW236148   1.905   9.070   5.309
11437SOL     OW36149  13.191   8.318   7.645
11437SOL    HW136150  13.100   8.342   7.663
11437SOL    HW236151  13.185   8.247   7.581
11438SOL     OW36152   1.023   7.632  11.822
11438SOL    HW136153   1.092   7.585  11.870
11438SOL    HW236154   0.946   7.575  11.829
11439SOL     OW36155   6.916  12.026   4.469
11439SOL    HW136156   6.935  12.037   4.562
11439SOL    HW236157   7.001  12.029   4.426
11440SOL     OW36158   7.276  10.617   8.937
11440SOL    HW136159   7.321  10.544   8.980
11440SOL    HW236160   7.328  10.634   8.858
11441SOL     OW36161   2.225  14.225   5.665
11441SOL    HW136162   2.239  14.270   5.581
11441SOL    HW236163   2.192  14.139   5.640
11442SOL     OW36164  10.376   2.212  12.065
11442SOL    HW136165  10.311   2.142  12.073
11442SOL    HW236166  10.334   2.288  12.104
11443SOL     OW36167   0.882   5.018   5.300
11443SOL    HW136168   0.949   5.046   5.238
11443SOL    HW236169   0.928   4.957   5.359
11444SOL     OW36170   7.390   0.732  14.500
11444SOL    HW136171   7.328   0.732  14.573
11444SOL    HW236172   7.335   0.727  14.422
11445SOL     OW36173   0.681   6.078  12.953
11445SOL    HW136174   0.625   6.079  13.031
11445SOL    HW236175   0.620   6.086  12.880
11446SOL     OW36176   7.890   2.991   6.955
11446SOL    HW136177   7.847   2.906   6.950
11446SOL    HW236178   7.927   2.994   7.044
11447SOL     OW36179   2.301  12.387  13.321
11447SOL    HW136180   2.365  12.430  13.263
11447SOL    HW236181   2.278  12.306  13.276
11448SOL     OW36182   2.241   7.448   8.398
11448SOL    HW136183   2.246   7.544   8.403
11448SOL    HW236184   2.319   7.422   8.350
11449SOL     OW36185   2.397   1.695  12.630
11449SOL    HW136186   2.312   1.654  12.649
11449SOL    HW236187   2.439   1.703  12.716
11450SOL     OW36188   8.830   1.647   2.319
11450SOL    HW136189   8.765   1.709   2.286
11450SOL    HW236190   8.914   1.690   2.305
11451SOL     OW36191   4.031  11.332   4.260
11451SOL    HW136192   4.061  11.249   4.221
11451SOL    HW236193   4.068  11.331   4.348
11452SOL     OW36194   9.110   2.254   1.017
11452SOL    HW136195   9.170   2.228   1.086
11452SOL    HW236196   9.098   2.175   0.964
11453SOL     OW36197  12.632  14.102   0.966
11453SOL    HW136198  12.600  14.153   1.041
11453SOL    HW236199  12.659  14.018   1.005
11454SOL     OW36200   4.786  12.427  11.063
11454SOL    HW136201   4.788  12.409  10.969
11454SOL    HW236202   4.877  12.421  11.091
11455SOL     OW36203   1.092  10.255   3.963
11455SOL    HW136204   1.048  10.173   3.984
11455SOL    HW236205   1.156  10.267   4.033
11456SOL     OW36206   1.561   9.785   9.241
11456SOL    HW136207   1.577   9.792   9.147
11456SOL    HW236208   1.514   9.865   9.263
11457SOL     OW36209   1.118   6.346   9.977
11457SOL    HW136210   1.130   6.441   9.971
11457SOL    HW236211   1.053   6.334  10.046
11458SOL     OW36212   8.791  10.152   6.327
11458SOL    HW136213   8.786  10.126   6.418
11458SOL    HW236214   8.717  10.109   6.285
11459SOL     OW36215   0.634  11.108   6.714
11459SOL    HW136216   0.714  11.071   6.676
11459SOL    HW236217   0.573  11.034   6.719
11460SOL     OW36218   8.722   0.530   1.300
11460SOL    HW136219   8.743   0.500   1.212
11460SOL    HW236220   8.702   0.451   1.349
11461SOL     OW36221   9.516   4.345   0.435
11461SOL    HW136222   9.468   4.269   0.402
11461SOL    HW236223   9.472   4.420   0.395
11462SOL     OW36224   1.084  14.419   0.502
11462SOL    HW136225   1.143  14.489   0.532
11462SOL    HW236226   1.024  14.463   0.441
11463SOL     OW36227   3.968   4.606  10.675
11463SOL    HW136228   3.929   4.527  10.713
11463SOL    HW236229   3.942   4.677  10.734
11464SOL     OW36230  13.571  14.274   3.242
11464SOL    HW136231  13.624  14.231   3.308
11464SOL    HW236232  13.609  14.361   3.233
11465SOL     OW36233   4.672   0.370   2.856
11465SOL    HW136234   4.690   0.282   2.888
11465SOL    HW236235   4.582   0.367   2.824
11466SOL     OW36236  13.760   8.338   1.051
11466SOL    HW136237  13.741   8.419   1.099
11466SOL    HW236238  13.695   8.335   0.981
11467SOL     OW36239   7.397   3.073   4.062
11467SOL    HW136240   7.367   3.161   4.084
11467SOL    HW236241   7.352   3.051   3.981
11468SOL     OW36242   1.713   6.313   9.167
11468SOL    HW136243   1.683   6.391   9.121
11468SOL    HW236244   1.806   6.331   9.185
11469SOL     OW36245  12.781  10.558   4.195
11469SOL    HW136246  12.851  10.571   4.259
11469SOL    HW236247  12.789  10.467   4.169
11470SOL     OW36248  14.366   5.635  13.872
11470SOL    HW136249  14.297   5.608  13.932
11470SOL    HW236250  14.415   5.702  13.919
11471SOL     OW36251   2.387  11.223  13.518
11471SOL    HW136252   2.471  11.179  13.527
11471SOL    HW236253   2.392  11.297  13.578
11472SOL     OW36254  12.534   2.873  13.374
11472SOL    HW136255  12.515   2.785  13.343
11472SOL    HW236256  12.610   2.901  13.323
11473SOL     OW36257   9.369   8.728   1.599
11473SOL    HW136258   9.334   8.696   1.682
11473SOL    HW236259   9.455   8.764   1.621
11474SOL     OW36260   7.466   9.673  11.378
11474SOL    HW136261   7.377   9.637  11.382
11474SOL    HW236262   7.479   9.693  11.285
11475SOL     OW36263  13.672  11.743  12.178
11475SOL    HW136264  13.731  11.695  12.121
11475SOL    HW236265  13.598  11.684  12.192
11476SOL     OW36266  13.888  11.165   5.549
11476SOL    HW136267  13.961  11.145   5.607
11476SOL    HW236268  13.830  11.220   5.601
11477SOL     OW36269  14.455  11.052   4.694
11477SOL    HW136270  14.488  11.131   4.653
11477SOL    HW236271  14.493  11.051   4.782
11478SOL     OW36272   2.054  13.063   4.267
11478SOL    HW136273   1.971  13.049   4.221
11478SOL    HW236274   2.054  13.157   4.287
11479SOL     OW36275   8.791  14.809   2.328
11479SOL    HW136276   8.730  14.742   2.297
11479SOL    HW236277   8.802  14.791   2.421
11480SOL     OW36278  13.423   2.687   6.399
11480SOL    HW136279  13.509   2.654   6.425
11480SOL    HW236280  13.403   2.640   6.319
11481SOL     OW36281  11.560  10.669   4.736
11481SOL    HW136282  11.513  10.627   4.808
11481SOL    HW236283  11.646  10.627   4.735
11482SOL     OW36284   0.712   0.381   2.647
11482SOL    HW136285   0.622   0.369   2.616
11482SOL    HW236286   0.713   0.343   2.734
11483SOL     OW36287   3.746   5.544  10.147
11483SOL    HW136288   3.800   5.609  10.102
11483SOL    HW236289   3.809   5.492  10.197
11484SOL     OW36290   8.020  13.078  12.254
11484SOL    HW136291   8.034  12.985  12.272
11484SOL    HW236292   8.079  13.124  12.315
11485SOL     OW36293  13.277  11.088   4.611
11485SOL    HW136294  13.345  11.140   4.569
11485SOL    HW236295  13.195  11.127   4.581
11486SOL     OW36296   9.023   5.290   8.493
11486SOL    HW136297   8.932   5.299   8.520
11486SOL    HW236298   9.072   5.341   8.558
11487SOL     OW36299   7.125  10.277   0.629
11487SOL    HW136300   7.144  10.318   0.544
11487SOL    HW236301   7.043  10.230   0.614
11488SOL     OW36302   9.624  13.446   7.665
11488SOL    HW136303   9.534  13.418   7.679
11488SOL    HW236304   9.653  13.396   7.588
11489SOL     OW36305   3.453   1.563   5.376
11489SOL    HW136306   3.501   1.627   5.323
11489SOL    HW236307   3.369   1.553   5.331
11490SOL     OW36308   8.158   3.467   5.444
11490SOL    HW136309   8.115   3.533   5.499
11490SOL    HW236310   8.248   3.464   5.477
11491SOL     OW36311  11.320   4.838   9.699
11491SOL    HW136312  11.237   4.797   9.722
11491SOL    HW236313  11.336   4.812   9.608
11492SOL     OW36314   2.911  11.057   8.778
11492SOL    HW136315   2.966  10.987   8.814
11492SOL    HW236316   2.931  11.056   8.684
11493SOL     OW36317  12.655  12.025   6.803
11493SOL    HW136318  12.646  11.933   6.778
11493SOL    HW236319  12.688  12.024   6.893
11494SOL     OW36320   4.256   2.406   7.913
11494SOL    HW136321   4.205   2.451   7.845
11494SOL    HW236322   4.197   2.337   7.945
11495SOL     OW36323   0.500  11.337  10.705
11495SOL    HW136324   0.422  11.393  10.705
11495SOL    HW236325   0.474  11.260  10.755
11496SOL     OW36326  10.658   5.880  11.210
11496SOL    HW136327  10.672   5.843  11.123
11496SOL    HW236328  10.649   5.804  11.267
11497SOL     OW36329  11.008  10.747  13.815
11497SOL    HW136330  10.932  10.769  13.869
11497SOL    HW236331  10.972  10.717  13.732
11498SOL     OW36332  12.334   0.270   6.806
11498SOL    HW136333  12.255   0.270   6.861
11498SOL    HW236334  12.362   0.179   6.805
11499SOL     OW36335   4.389   6.240   1.407
11499SOL    HW136336   4.315   6.246   1.347
11499SOL    HW236337   4.422   6.330   1.412
11500SOL     OW36338   3.127  10.179  12.279
11500SOL    HW136339   3.033  10.178  12.262
11500SOL    HW236340   3.136  10.221  12.365
11501SOL     OW36341   1.378  14.651   7.914
11501SOL    HW136342   1.418  14.601   7.842
11501SOL    HW236343   1.305  14.698   7.873
11502SOL     OW36344   3.010  11.491   1.261
11502SOL    HW136345   2.937  11.443   1.221
11502SOL    HW236346   3.006  11.468   1.354
11503SOL     OW36347   1.467  10.228   3.467
11503SOL    HW136348   1.545  10.208   3.519
11503SOL    HW236349   1.406  10.266   3.530
11504SOL     OW36350  12.771   9.765  13.349
11504SOL    HW136351  12.778   9.758  13.444
11504SOL    HW236352  12.816   9.846  13.327
11505SOL     OW36353  12.660   0.041   7.363
11505SOL    HW136354  12.707   0.123   7.352
11505SOL    HW236355  12.668  14.873   7.278
11506SOL     OW36356  13.752   0.999  10.434
11506SOL    HW136357  13.804   1.034  10.506
11506SOL    HW236358  13.793   0.916  10.412
11507SOL     OW36359  10.577   0.855   4.739
11507SOL    HW136360  10.639   0.838   4.810
11507SOL    HW236361  10.629   0.901   4.672
11508SOL     OW36362   2.709   6.765  12.503
11508SOL    HW136363   2.729   6.776  12.596
11508SOL    HW236364   2.650   6.838  12.483
11509SOL     OW36365  12.263  13.030   5.983
11509SOL    HW136366  12.248  13.121   6.009
11509SOL    HW236367  12.180  12.986   5.999
11510SOL     OW36368   3.036   2.900   6.327
11510SOL    HW136369   3.028   2.987   6.288
11510SOL    HW236370   2.948   2.878   6.355
11511SOL     OW36371  11.408   0.874   4.495
11511SOL    HW136372  11.479   0.917   4.446
11511SOL    HW236373  11.420   0.781   4.479
11512SOL     OW36374   4.110   9.041   1.399
11512SOL    HW136375   4.072   9.129   1.412
11512SOL    HW236376   4.053   8.983   1.450
11513SOL     OW36377   6.032  12.895   2.516
11513SOL    HW136378   5.959  12.837   2.538
11513SOL    HW236379   6.106  12.859   2.566
11514SOL     OW36380  10.354   4.059   6.620
11514SOL    HW136381  10.263   4.078   6.596
11514SOL    HW236382  10.373   3.976   6.578
11515SOL     OW36383   5.881  11.210  14.266
11515SOL    HW136384   5.807  11.170  14.313
11515SOL    HW236385   5.952  11.210  14.331
11516SOL     OW36386  10.512  10.163   1.373
11516SOL    HW136387  10.424  10.150   1.406
11516SOL    HW236388  10.541  10.075   1.347
11517SOL     OW36389   9.266   6.626   7.875
11517SOL    HW136390   9.266   6.571   7.953
11517SOL    HW236391   9.176   6.623   7.843
11518SOL     OW36392   9.561   2.630   3.727
11518SOL    HW136393   9.560   2.722   3.755
11518SOL    HW236394   9.625   2.628   3.656
11519SOL     OW36395  11.069  14.689   0.461
11519SOL    HW136396  11.030  14.604   0.484
11519SOL    HW236397  11.133  14.705   0.531
11520SOL     OW36398   0.548  10.578  11.640
11520SOL    HW136399   0.624  10.604  11.692
11520SOL    HW236400   0.572  10.598  11.549
11521SOL     OW36401  10.301   5.733   5.572
11521SOL    HW136402  10.307   5.753   5.479
11521SOL    HW236403  10.315   5.817   5.616
11522SOL     OW36404   9.218  10.398  11.796
11522SOL    HW136405   9.150  10.445  11.748
11522SOL    HW236406   9.205  10.423  11.888
11523SOL     OW36407   2.291   4.804   8.922
11523SOL    HW136408   2.336   4.787   9.005
11523SOL    HW236409   2.284   4.900   8.918
11524SOL     OW36410   1.847   8.814   4.828
11524SOL    HW136411   1.903   8.890   4.814
11524SOL    HW236412   1.800   8.833   4.909
11525SOL     OW36413   3.511  12.883   2.398
11525SOL    HW136414   3.426  12.882   2.442
11525SOL    HW236415   3.493  12.849   2.310
11526SOL     OW36416   9.623   8.826   6.615
11526SOL    HW136417   9.589   8.813   6.703
11526SOL    HW236418   9.549   8.858   6.564
11527SOL     OW36419   3.813  10.835   9.866
11527SOL    HW136420   3.855  10.776   9.929
11527SOL    HW236421   3.804  10.783   9.786
11528SOL     OW36422   7.944   8.676  10.345
11528SOL    HW136423   7.912   8.762  10.319
11528SOL    HW236424   8.026   8.694  10.390
11529SOL     OW36425   4.163   6.914  11.392
11529SOL    HW136426   4.258   6.923  11.406
11529SOL    HW236427   4.152   6.921  11.297
11530SOL     OW36428  10.076  12.218   8.380
11530SOL    HW136429  10.132  12.148   8.414
11530SOL    HW236430   9.996  12.212   8.432
11531SOL     OW36431  13.887  13.354   5.769
11531SOL    HW136432  13.819  13.379   5.706
11531SOL    HW236433  13.930  13.278   5.729
11532SOL     OW36434  11.786   6.423   9.045
11532SOL    HW136435  11.745   6.336   9.048
11532SOL    HW236436  11.763   6.463   9.129
11533SOL     OW36437   9.421  12.928   7.467
11533SOL    HW136438   9.409  13.018   7.434
11533SOL    HW236439   9.335  12.888   7.459
11534SOL     OW36440   0.507  12.829   1.702
11534SOL    HW136441   0.594  12.812   1.665
11534SOL    HW236442   0.480  12.911   1.661
11535SOL     OW36443   0.014  13.749   2.929
11535SOL    HW136444   0.073  13.795   2.869
11535SOL    HW236445   0.071  13.688   2.976
11536SOL     OW36446  12.484  12.769   4.577
11536SOL    HW136447  12.400  12.797   4.613
11536SOL    HW236448  12.465  12.688   4.531
11537SOL     OW36449   8.515  12.623   4.778
11537SOL    HW136450   8.605  12.592   4.768
11537SOL    HW236451   8.514  12.709   4.736
11538SOL     OW36452   3.365   7.248   7.661
11538SOL    HW136453   3.313   7.212   7.733
11538SOL    HW236454   3.391   7.335   7.692
11539SOL     OW36455   1.335   4.775   0.929
11539SOL    HW136456   1.385   4.725   0.865
11539SOL    HW236457   1.392   4.848   0.954
11540SOL     OW36458   1.945   8.291   3.850
11540SOL    HW136459   1.860   8.247   3.863
11540SOL    HW236460   1.925   8.366   3.795
11541SOL     OW36461   1.225  12.085   5.781
11541SOL    HW136462   1.269  12.018   5.729
11541SOL    HW236463   1.291  12.154   5.790
11542SOL     OW36464   4.728   0.595   7.948
11542SOL    HW136465   4.707   0.596   7.854
11542SOL    HW236466   4.744   0.503   7.967
11543SOL     OW36467   9.490  10.124   1.677
11543SOL    HW136468   9.471  10.030   1.674
11543SOL    HW236469   9.484  10.152   1.586
11544SOL     OW36470  13.821   9.109   6.603
11544SOL    HW136471  13.759   9.162   6.654
11544SOL    HW236472  13.791   9.019   6.616
11545SOL     OW36473  13.654  12.264   5.327
11545SOL    HW136474  13.719  12.330   5.303
11545SOL    HW236475  13.655  12.262   5.423
11546SOL     OW36476   7.917   8.220  12.310
11546SOL    HW136477   7.984   8.267  12.361
11546SOL    HW236478   7.835   8.264  12.334
11547SOL     OW36479  14.752  13.235  13.888
11547SOL    HW136480  14.678  13.198  13.936
11547SOL    HW236481  14.808  13.273  13.956
11548SOL     OW36482   5.037  13.650   8.494
11548SOL    HW136483   5.002  13.560   8.499
11548SOL    HW236484   5.020  13.686   8.581
11549SOL     OW36485   8.940   3.743   7.430
11549SOL    HW136486   8.970   3.766   7.343
11549SOL    HW236487   8.871   3.806   7.449
11550SOL     OW36488   4.077   2.533   2.940
11550SOL    HW136489   4.074   2.440   2.960
11550SOL    HW236490   3.992   2.567   2.970
11551SOL     OW36491   4.197  11.842   4.418
11551SOL    HW136492   4.272  11.859   4.361
11551SOL    HW236493   4.132  11.800   4.361
11552SOL     OW36494   4.830  11.067   0.000
11552SOL    HW136495   4.799  11.017   0.076
11552SOL    HW236496   4.778  11.147   0.000
11553SOL     OW36497   0.980  12.284   1.305
11553SOL    HW136498   0.941  12.311   1.388
11553SOL    HW236499   1.074  12.301   1.316
11554SOL     OW36500   8.714   1.836   8.659
11554SOL    HW136501   8.760   1.811   8.579
11554SOL    HW236502   8.753   1.920   8.683
11555SOL     OW36503  13.610  13.250   7.126
11555SOL    HW136504  13.528  13.227   7.170
11555SOL    HW236505  13.660  13.297   7.193
11556SOL     OW36506   1.386  10.154   2.280
11556SOL    HW136507   1.455  10.088   2.282
11556SOL    HW236508   1.386  10.187   2.190
11557SOL     OW36509   2.814  14.745   0.927
11557SOL    HW136510   2.807  14.726   1.020
11557SOL    HW236511   2.794  14.662   0.884
11558SOL     OW36512  13.088   1.263   4.162
11558SOL    HW136513  13.115   1.298   4.247
11558SOL    HW236514  13.041   1.182   4.184
11559SOL     OW36515   1.258   4.139   9.121
11559SOL    HW136516   1.230   4.231   9.114
11559SOL    HW236517   1.308   4.123   9.041
11560SOL     OW36518  12.253  12.418  13.845
11560SOL    HW136519  12.188  12.406  13.777
11560SOL    HW236520  12.337  12.404  13.801
11561SOL     OW36521   2.403   2.489  10.888
11561SOL    HW136522   2.429   2.551  10.820
11561SOL    HW236523   2.350   2.540  10.949
11562SOL     OW36524  13.625   7.954   5.639
11562SOL    HW136525  13.651   8.046   5.640
11562SOL    HW236526  13.699   7.908   5.599
11563SOL     OW36527  11.842   7.853   5.082
11563SOL    HW136528  11.923   7.845   5.134
11563SOL    HW236529  11.833   7.768   5.039
11564SOL     OW36530  14.876  13.101   4.138
11564SOL    HW136531  14.824  13.034   4.182
11564SOL    HW236532   0.090  13.080   4.159
11565SOL     OW36533  10.569  12.978  11.058
11565SOL    HW136534  10.578  12.961  10.964
11565SOL    HW236535  10.478  12.956  11.078
11566SOL     OW36536   4.614   0.273   5.814
11566SOL    HW136537   4.523   0.292   5.834
11566SOL    HW236538   4.630   0.318   5.730
11567SOL     OW36539  11.203   4.894  12.984
11567SOL    HW136540  11.271   4.961  12.975
11567SOL    HW236541  11.251   4.812  12.994
11568SOL     OW36542   5.294  11.168   5.790
11568SOL    HW136543   5.252  11.138   5.710
11568SOL    HW236544   5.388  11.157   5.774
11569SOL     OW36545   1.248   6.893  10.177
11569SOL    HW136546   1.192   6.958  10.219
11569SOL    HW236547   1.255   6.822  10.240
11570SOL     OW36548  11.947   2.110   3.059
11570SOL    HW136549  12.041   2.114   3.041
11570SOL    HW236550  11.938   2.042   3.126
11571SOL     OW36551   2.105  14.243   1.678
11571SOL    HW136552   2.013  14.268   1.668
11571SOL    HW236553   2.106  14.179   1.749
11572SOL     OW36554  13.898  14.464   3.310
11572SOL    HW136555  13.903  14.517   3.389
11572SOL    HW236556  13.818  14.494   3.266
11573SOL     OW36557  13.041   3.236  13.321
11573SOL    HW136558  13.058   3.233  13.415
11573SOL    HW236559  13.109   3.294  13.286
11574SOL     OW36560   0.464   1.032  11.351
11574SOL    HW136561   0.482   0.998  11.438
11574SOL    HW236562   0.526   0.987  11.293
11575SOL     OW36563   4.333   6.065   0.581
11575SOL    HW136564   4.336   5.982   0.630
11575SOL    HW236565   4.414   6.065   0.530
11576SOL     OW36566   1.976   0.212   2.654
11576SOL    HW136567   1.916   0.155   2.607
11576SOL    HW236568   2.059   0.202   2.607
11577SOL     OW36569   8.716   7.185  12.782
11577SOL    HW136570   8.781   7.165  12.849
11577SOL    HW236571   8.702   7.102  12.736
11578SOL     OW36572  12.081   3.175   3.183
11578SOL    HW136573  12.140   3.222   3.124
11578SOL    HW236574  12.065   3.236   3.255
11579SOL     OW36575  12.208   1.371   0.939
11579SOL    HW136576  12.167   1.319   0.870
11579SOL    HW236577  12.214   1.459   0.902
11580SOL     OW36578   7.846   8.047  13.939
11580SOL    HW136579   7.814   8.120  13.991
11580SOL    HW236580   7.767   8.001  13.910
11581SOL     OW36581   6.251   1.178   9.789
11581SOL    HW136582   6.224   1.115   9.856
11581SOL    HW236583   6.308   1.239   9.836
11582SOL     OW36584   0.665  14.183   2.193
11582SOL    HW136585   0.586  14.209   2.240
11582SOL    HW236586   0.670  14.244   2.119
11583SOL     OW36587   8.060   6.851  11.580
11583SOL    HW136588   8.121   6.911  11.536
11583SOL    HW236589   8.007   6.907  11.636
11584SOL     OW36590   7.971   5.541   3.172
11584SOL    HW136591   7.902   5.474   3.174
11584SOL    HW236592   8.044   5.501   3.221
11585SOL     OW36593   3.355  12.225   8.704
11585SOL    HW136594   3.346  12.268   8.618
11585SOL    HW236595   3.269  12.186   8.720
11586SOL     OW36596   8.210  11.010   1.756
11586SOL    HW136597   8.146  11.021   1.686
11586SOL    HW236598   8.294  11.004   1.711
11587SOL     OW36599  10.590   8.055   1.818
11587SOL    HW136600  10.616   8.019   1.903
11587SOL    HW236601  10.495   8.049   1.818
11588SOL     OW36602   5.681   4.213   2.485
11588SOL    HW136603   5.718   4.177   2.405
11588SOL    HW236604   5.697   4.146   2.552
11589SOL     OW36605  14.527  14.562   4.917
11589SOL    HW136606  14.540  14.484   4.863
11589SOL    HW236607  14.459  14.611   4.872
11590SOL     OW36608  10.321   0.211   7.363
11590SOL    HW136609  10.361   0.235   7.447
11590SOL    HW236610  10.340   0.118   7.353
11591SOL     OW36611   1.536   5.248   6.596
11591SOL    HW136612   1.465   5.187   6.577
11591SOL    HW236613   1.561   5.283   6.510
11592SOL     OW36614   0.930   9.214   1.814
11592SOL    HW136615   1.004   9.269   1.787
11592SOL    HW236616   0.961   9.125   1.802
11593SOL     OW36617   6.217   6.131  13.644
11593SOL    HW136618   6.191   6.123  13.736
11593SOL    HW236619   6.307   6.097  13.642
11594SOL     OW36620  13.877  10.959   6.209
11594SOL    HW136621  13.803  10.899   6.217
11594SOL    HW236622  13.945  10.920   6.263
11595SOL     OW36623   4.459  12.782   2.267
11595SOL    HW136624   4.395  12.738   2.213
11595SOL    HW236625   4.439  12.754   2.356
11596SOL     OW36626   7.165   9.742  11.401
11596SOL    HW136627   7.094   9.685  11.370
11596SOL    HW236628   7.181   9.713  11.491
11597SOL     OW36629   5.422   1.443   7.717
11597SOL    HW136630   5.477   1.450   7.639
11597SOL    HW236631   5.398   1.533   7.739
11598SOL     OW36632   9.056  10.964   6.494
11598SOL    HW136633   9.017  11.017   6.563
11598SOL    HW236634   9.123  11.021   6.454
11599SOL     OW36635  14.328   3.013   1.655
11599SOL    HW136636  14.342   2.960   1.734
11599SOL    HW236637  14.370   2.962   1.586
11600SOL     OW36638   7.883  12.997  11.756
11600SOL    HW136639   7.927  12.915  11.778
11600SOL    HW236640   7.791  12.972  11.746
11601SOL     OW36641   8.455   2.221  11.246
11601SOL    HW136642   8.513   2.152  11.214
11601SOL    HW236643   8.471   2.295  11.187
11602SOL     OW36644   9.516   3.830   5.502
11602SOL    HW136645   9.581   3.786   5.557
11602SOL    HW236646   9.458   3.874   5.564
11603SOL     OW36647  14.033   9.025  14.359
11603SOL    HW136648  14.098   9.051  14.425
11603SOL    HW236649  14.067   8.944  14.323
11604SOL     OW36650   7.031   3.759  10.933
11604SOL    HW136651   7.066   3.680  10.975
11604SOL    HW236652   6.942   3.767  10.967
11605SOL     OW36653   0.366   9.995   3.260
11605SOL    HW136654   0.461   9.993   3.275
11605SOL    HW236655   0.331  10.041   3.336
11606SOL     OW36656   2.547   3.648   5.448
11606SOL    HW136657   2.639   3.673   5.453
11606SOL    HW236658   2.522   3.630   5.539
11607SOL     OW36659   2.513   2.163  10.539
11607SOL    HW136660   2.535   2.071  10.549
11607SOL    HW236661   2.475   2.188  10.624
11608SOL     OW36662   0.683   5.496  12.452
11608SOL    HW136663   0.755   5.469  12.509
11608SOL    HW236664   0.654   5.580  12.487
11609SOL     OW36665   6.746   9.492  11.314
11609SOL    HW136666   6.733   9.412  11.264
11609SOL    HW236667   6.706   9.474  11.399
11610SOL     OW36668   5.549  11.211  10.061
11610SOL    HW136669   5.522  11.119  10.059
11610SOL    HW236670   5.644  11.208  10.058
11611SOL     OW36671   3.877   5.436  12.386
11611SOL    HW136672   3.847   5.445  12.295
11611SOL    HW236673   3.966   5.473  12.385
11612SOL     OW36674  14.760   7.604   5.066
11612SOL    HW136675  14.695   7.594   4.997
11612SOL    HW236676  14.717   7.655   5.134
11613SOL     OW36677   9.773   1.238   5.391
11613SOL    HW136678   9.694   1.221   5.342
11613SOL    HW236679   9.844   1.228   5.328
11614SOL     OW36680   2.821   4.166   7.422
11614SOL    HW136681   2.909   4.135   7.440
11614SOL    HW236682   2.824   4.198   7.332
11615SOL     OW36683  13.674  11.166  11.738
11615SOL    HW136684  13.611  11.151  11.668
11615SOL    HW236685  13.749  11.206  11.695
11616SOL     OW36686  13.906   5.552   7.869
11616SOL    HW136687  13.932   5.513   7.952
11616SOL    HW236688  13.827   5.504   7.843
11617SOL     OW36689   4.052   9.457   0.470
11617SOL    HW136690   4.043   9.365   0.491
11617SOL    HW236691   3.972   9.479   0.422
11618SOL     OW36692   1.027   1.222   5.728
11618SOL    HW136693   0.993   1.214   5.639
11618SOL    HW236694   0.970   1.286   5.770
11619SOL     OW36695   4.015   9.123   7.120
11619SOL    HW136696   4.105   9.113   7.089
11619SOL    HW236697   4.002   9.049   7.179
11620SOL     OW36698   7.851   2.546  14.694
11620SOL    HW136699   7.914   2.543  14.766
11620SOL    HW236700   7.766   2.543  14.736
11621SOL     OW36701   7.745   6.907  12.567
11621SOL    HW136702   7.653   6.911  12.544
11621SOL    HW236703   7.775   6.824  12.531
11622SOL     OW36704   4.673  11.761  12.757
11622SOL    HW136705   4.596  11.809  12.787
11622SOL    HW236706   4.640  11.674  12.734
11623SOL     OW36707  13.001   4.249   7.729
11623SOL    HW136708  13.005   4.154   7.735
11623SOL    HW236709  12.944   4.276   7.801
11624SOL     OW36710  14.162   5.416   8.323
11624SOL    HW136711  14.245   5.409   8.276
11624SOL    HW236712  14.162   5.341   8.383
11625SOL     OW36713   0.812   3.431   0.467
11625SOL    HW136714   0.836   3.408   0.378
11625SOL    HW236715   0.895   3.435   0.514
11626SOL     OW36716   9.576  11.981   4.302
11626SOL    HW136717   9.621  11.974   4.386
11626SOL    HW236718   9.633  12.038   4.249
11627SOL     OW36719   3.313  14.431  11.463
11627SOL    HW136720   3.400  14.433  11.423
11627SOL    HW236721   3.313  14.505  11.524
11628SOL     OW36722   4.326   4.188  10.491
11628SOL    HW136723   4.409   4.151  10.461
11628SOL    HW236724   4.348   4.236  10.571
11629SOL     OW36725   6.282   2.260  14.774
11629SOL    HW136726   6.316   2.188  14.826
11629SOL    HW236727   6.354   2.323  14.769
11630SOL     OW36728  12.801   0.218  10.581
11630SOL    HW136729  12.728   0.199  10.521
11630SOL    HW236730  12.759   0.230  10.666
11631SOL     OW36731   2.046   3.113  12.884
11631SOL    HW136732   2.130   3.128  12.928
11631SOL    HW236733   1.982   3.108  12.955
11632SOL     OW36734   6.502  10.286   2.391
11632SOL    HW136735   6.476  10.297   2.300
11632SOL    HW236736   6.523  10.193   2.399
11633SOL     OW36737   3.488   4.433  11.542
11633SOL    HW136738   3.502   4.492  11.468
11633SOL    HW236739   3.515   4.484  11.619
11634SOL     OW36740  11.940  12.612   2.876
11634SOL    HW136741  11.926  12.664   2.797
11634SOL    HW236742  11.920  12.522   2.850
11635SOL     OW36743  14.384  12.161   7.303
11635SOL    HW136744  14.442  12.152   7.379
11635SOL    HW236745  14.440  12.199   7.235
11636SOL     OW36746   7.797  12.820   3.372
11636SOL    HW136747   7.856  12.833   3.298
11636SOL    HW236748   7.712  12.801   3.331
11637SOL     OW36749   2.608  14.419  13.974
11637SOL    HW136750   2.525  14.383  13.944
11637SOL    HW236751   2.669  14.346  13.972
11638SOL     OW36752   1.276   6.593   3.805
11638SOL    HW136753   1.230   6.672   3.774
11638SOL    HW236754   1.365   6.622   3.821
11639SOL     OW36755   4.434   3.708   5.395
11639SOL    HW136756   4.483   3.683   5.316
11639SOL    HW236757   4.410   3.799   5.381
11640SOL     OW36758  13.550  11.311  14.211
11640SOL    HW136759  13.540  11.256  14.134
11640SOL    HW236760  13.628  11.364  14.193
11641SOL     OW36761   0.167   8.816   4.844
11641SOL    HW136762   0.152   8.865   4.764
11641SOL    HW236763   0.108   8.741   4.838
11642SOL     OW36764  11.533   2.371  12.061
11642SOL    HW136765  11.600   2.304  12.072
11642SOL    HW236766  11.455   2.334  12.102
11643SOL     OW36767   3.549   3.691  14.081
11643SOL    HW136768   3.618   3.751  14.108
11643SOL    HW236769   3.558   3.615  14.139
11644SOL     OW36770  13.018  12.576   1.633
11644SOL    HW136771  13.051  12.493   1.667
11644SOL    HW236772  13.039  12.640   1.701
11645SOL     OW36773  14.309   6.336   5.772
11645SOL    HW136774  14.249   6.358   5.843
11645SOL    HW236775  14.362   6.415   5.760
11646SOL     OW36776   0.059  11.833   6.851
11646SOL    HW136777   0.094  11.894   6.915
11646SOL    HW236778  14.861  11.879   6.812
11647SOL     OW36779  10.844   0.773   1.299
11647SOL    HW136780  10.754   0.779   1.333
11647SOL    HW236781  10.833   0.764   1.204
11648SOL     OW36782  13.058   6.623  13.294
11648SOL    HW136783  13.011   6.593  13.372
11648SOL    HW236784  13.112   6.696  13.326
11649SOL     OW36785  10.648   6.265   5.820
11649SOL    HW136786  10.592   6.342   5.828
11649SOL    HW236787  10.586   6.191   5.817
11650SOL     OW36788  10.511   0.065   4.840
11650SOL    HW136789  10.526   0.085   4.748
11650SOL    HW236790  10.483  14.850   4.841
11651SOL     OW36791   5.557  12.247  12.797
11651SOL    HW136792   5.640  12.265  12.841
11651SOL    HW236793   5.581  12.189  12.724
11652SOL     OW36794   6.932   8.585   3.770
11652SOL    HW136795   6.882   8.507   3.793
11652SOL    HW236796   6.989   8.600   3.846
11653SOL     OW36797   5.534  14.320   6.109
11653SOL    HW136798   5.546  14.338   6.202
11653SOL    HW236799   5.525  14.406   6.068
11654SOL     OW36800  13.477   9.195   7.247
11654SOL    HW136801  13.396   9.226   7.208
11654SOL    HW236802  13.543   9.205   7.178
11655SOL     OW36803  11.399  14.156   8.412
11655SOL    HW136804  11.445  14.102   8.348
11655SOL    HW236805  11.336  14.096   8.454
11656SOL     OW36806  13.548   4.923   8.391
11656SOL    HW136807  13.504   4.839   8.380
11656SOL    HW236808  13.511   4.979   8.323
11657SOL     OW36809  14.062  12.781  13.589
11657SOL    HW136810  13.974  12.773  13.625
11657SOL    HW236811  14.120  12.759  13.662
11658SOL     OW36812  13.478   8.044   2.032
11658SOL    HW136813  13.451   7.953   2.032
11658SOL    HW236814  13.572   8.041   2.054
11659SOL     OW36815  10.082  13.553  14.025
11659SOL    HW136816  10.132  13.629  13.994
11659SOL    HW236817  10.012  13.543  13.960
11660SOL     OW36818   9.112  12.623   1.804
11660SOL    HW136819   9.087  12.657   1.889
11660SOL    HW236820   9.044  12.559   1.783
11661SOL     OW36821   2.542   3.403   0.921
11661SOL    HW136822   2.516   3.495   0.932
11661SOL    HW236823   2.623   3.407   0.870
11662SOL     OW36824   4.086   0.388   0.470
11662SOL    HW136825   4.045   0.473   0.480
11662SOL    HW236826   4.028   0.339   0.412
11663SOL     OW36827   6.014   6.233   4.958
11663SOL    HW136828   6.025   6.159   5.017
11663SOL    HW236829   5.920   6.237   4.941
11664SOL     OW36830   7.319   9.833  13.422
11664SOL    HW136831   7.313   9.738  13.416
11664SOL    HW236832   7.325   9.851  13.516
11665SOL     OW36833   6.490   3.038  11.535
11665SOL    HW136834   6.567   3.015  11.484
11665SOL    HW236835   6.495   2.982  11.613
11666SOL     OW36836   2.217   7.176   1.411
11666SOL    HW136837   2.200   7.164   1.504
11666SOL    HW236838   2.164   7.252   1.387
11667SOL     OW36839   3.937  12.704   3.631
11667SOL    HW136840   3.862  12.695   3.573
11667SOL    HW236841   3.989  12.625   3.616
11668SOL     OW36842   0.924   6.664  11.635
11668SOL    HW136843   0.840   6.619  11.648
11668SOL    HW236844   0.910   6.720  11.559
11669SOL     OW36845   2.903   2.454   3.080
11669SOL    HW136846   2.865   2.367   3.069
11669SOL    HW236847   2.904   2.468   3.174
11670SOL     OW36848   3.759   2.258   9.323
11670SOL    HW136849   3.771   2.345   9.362
11670SOL    HW236850   3.665   2.240   9.333
11671SOL     OW36851   9.893  14.455   5.027
11671SOL    HW136852   9.952  14.509   4.973
11671SOL    HW236853   9.893  14.499   5.112
11672SOL     OW36854   1.883  14.014  10.348
11672SOL    HW136855   1.829  14.083  10.310
11672SOL    HW236856   1.820  13.955  10.390
11673SOL     OW36857   1.456   5.862   0.417
11673SOL    HW136858   1.429   5.888   0.329
11673SOL    HW236859   1.373   5.845   0.463
11674SOL     OW36860   2.702  11.504   5.084
11674SOL    HW136861   2.764  11.440   5.118
11674SOL    HW236862   2.723  11.584   5.133
11675SOL     OW36863  12.483   7.780  12.842
11675SOL    HW136864  12.510   7.803  12.931
11675SOL    HW236865  12.469   7.686  12.845
11676SOL     OW36866  11.524   8.684   7.521
11676SOL    HW136867  11.495   8.740   7.593
11676SOL    HW236868  11.450   8.684   7.460
11677SOL     OW36869   9.982  11.046  10.119
11677SOL    HW136870   9.894  11.080  10.140
11677SOL    HW236871   9.982  10.958  10.156
11678SOL     OW36872  10.513   1.871  10.176
11678SOL    HW136873  10.429   1.865  10.131
11678SOL    HW236874  10.490   1.899  10.265
11679SOL     OW36875   0.134   7.983  12.182
11679SOL    HW136876   0.133   8.073  12.213
11679SOL    HW236877   0.194   7.984  12.107
11680SOL     OW36878   9.536   3.676   2.519
11680SOL    HW136879   9.556   3.764   2.551
11680SOL    HW236880   9.621   3.633   2.513
11681SOL     OW36881   6.949   0.644  11.204
11681SOL    HW136882   6.856   0.658  11.188
11681SOL    HW236883   6.967   0.691  11.286
11682SOL     OW36884   8.626   7.508   6.639
11682SOL    HW136885   8.608   7.513   6.545
11682SOL    HW236886   8.669   7.591   6.660
11683SOL     OW36887  12.724  12.271  10.987
11683SOL    HW136888  12.794  12.212  11.014
11683SOL    HW236889  12.692  12.234  10.905
11684SOL     OW36890  10.462  12.846   7.457
11684SOL    HW136891  10.546  12.836   7.411
11684SOL    HW236892  10.399  12.804   7.400
11685SOL     OW36893   3.269  11.804  10.946
11685SOL    HW136894   3.244  11.725  10.994
11685SOL    HW236895   3.193  11.823  10.891
11686SOL     OW36896  11.750   3.155   5.368
11686SOL    HW136897  11.674   3.097   5.375
11686SOL    HW236898  11.824   3.099   5.390
11687SOL     OW36899   8.588   7.977   3.744
11687SOL    HW136900   8.655   8.041   3.766
11687SOL    HW236901   8.592   7.912   3.814
11688SOL     OW36902  12.307   1.929  13.712
11688SOL    HW136903  12.263   2.005  13.675
11688SOL    HW236904  12.256   1.906  13.789
11689SOL     OW36905  14.255   4.247   7.028
11689SOL    HW136906  14.324   4.214   6.969
11689SOL    HW236907  14.273   4.205   7.112
11690SOL     OW36908  11.744   1.014   7.040
11690SOL    HW136909  11.762   1.104   7.013
11690SOL    HW236910  11.665   1.020   7.094
11691SOL     OW36911   5.088  13.961   4.659
11691SOL    HW136912   5.167  13.925   4.619
11691SOL    HW236913   5.022  13.954   4.590
11692SOL     OW36914  10.685  13.761   9.966
11692SOL    HW136915  10.773  13.726   9.949
11692SOL    HW236916  10.651  13.707  10.037
11693SOL     OW36917  11.387  12.509  13.954
11693SOL    HW136918  11.417  12.452  14.026
11693SOL    HW236919  11.433  12.476  13.877
11694SOL     OW36920   5.268  14.562   7.127
11694SOL    HW136921   5.323  14.638   7.109
11694SOL    HW236922   5.291  14.537   7.217
11695SOL     OW36923  11.796   9.648  11.828
11695SOL    HW136924  11.867   9.685  11.880
11695SOL    HW236925  11.803   9.553  11.842
11696SOL     OW36926   2.056   5.393  12.591
11696SOL    HW136927   2.074   5.483  12.618
11696SOL    HW236928   2.129   5.370  12.533
11697SOL     OW36929   6.524   9.967  11.095
11697SOL    HW136930   6.456   9.902  11.074
11697SOL    HW236931   6.482  10.027  11.156
11698SOL     OW36932   0.857   0.460  14.187
11698SOL    HW136933   0.842   0.531  14.249
11698SOL    HW236934   0.776   0.456  14.135
11699SOL     OW36935   3.290   0.185  10.593
11699SOL    HW136936   3.333   0.100  10.602
11699SOL    HW236937   3.198   0.164  10.575
11700SOL     OW36938   6.420   0.675  12.803
11700SOL    HW136939   6.385   0.739  12.865
11700SOL    HW236940   6.462   0.728  12.735
11701SOL     OW36941  10.434   3.632   4.512
11701SOL    HW136942  10.512   3.673   4.550
11701SOL    HW236943  10.447   3.538   4.526
11702SOL     OW36944   8.071   9.916   8.251
11702SOL    HW136945   8.056   9.896   8.343
11702SOL    HW236946   8.015   9.992   8.233
11703SOL     OW36947   9.093  10.701   5.016
11703SOL    HW136948   9.183  10.672   5.030
11703SOL    HW236949   9.059  10.715   5.104
11704SOL     OW36950   5.539   1.114  10.657
11704SOL    HW136951   5.613   1.174  10.671
11704SOL    HW236952   5.578   1.039  10.613
11705SOL     OW36953   2.186   7.319   1.681
11705SOL    HW136954   2.091   7.332   1.690
11705SOL    HW236955   2.212   7.276   1.762
11706SOL     OW36956   1.521  11.525  12.779
11706SOL    HW136957   1.481  11.610  12.797
11706SOL    HW236958   1.570  11.504  12.859
11707SOL     OW36959   5.268   9.048   9.996
11707SOL    HW136960   5.295   9.138  10.016
11707SOL    HW236961   5.225   9.018  10.076
11708SOL     OW36962  10.578   0.253   6.983
11708SOL    HW136963  10.536   0.284   6.903
11708SOL    HW236964  10.625   0.174   6.956
11709SOL     OW36965  12.838   6.500   1.411
11709SOL    HW136966  12.775   6.467   1.346
11709SOL    HW236967  12.921   6.462   1.384
11710SOL     OW36968   5.170  12.687   0.534
11710SOL    HW136969   5.221  12.743   0.477
11710SOL    HW236970   5.219  12.605   0.537
11711SOL     OW36971   1.567   3.268  11.723
11711SOL    HW136972   1.511   3.258  11.646
11711SOL    HW236973   1.650   3.226  11.697
11712SOL     OW36974  14.797  12.061   0.544
11712SOL    HW136975  14.779  12.152   0.565
11712SOL    HW236976  14.740  12.010   0.601
11713SOL     OW36977  14.126  13.702  11.416
11713SOL    HW136978  14.156  13.756  11.343
11713SOL    HW236979  14.167  13.741  11.493
11714SOL     OW36980  13.064  14.389   4.007
11714SOL    HW136981  13.008  14.342   3.945
11714SOL    HW236982  13.145  14.338   4.009
11715SOL     OW36983  12.381   2.972   8.819
11715SOL    HW136984  12.439   2.947   8.747
11715SOL    HW236985  12.388   3.067   8.824
11716SOL     OW36986   6.145   4.633   5.666
11716SOL    HW136987   6.142   4.657   5.574
11716SOL    HW236988   6.203   4.557   5.670
11717SOL     OW36989  14.366   3.341   3.576
11717SOL    HW136990  14.358   3.415   3.515
11717SOL    HW236991  14.353   3.381   3.662
11718SOL     OW36992   9.234  12.236  14.187
11718SOL    HW136993   9.150  12.274  14.163
11718SOL    HW236994   9.254  12.274  14.273
11719SOL     OW36995  14.257   2.594   1.529
11719SOL    HW136996  14.310   2.661   1.485
11719SOL    HW236997  14.290   2.592   1.619
11720SOL     OW36998  10.354  11.769   0.351
11720SOL    HW136999  10.313  11.793   0.268
11720SOL    HW237000  10.406  11.690   0.330
11721SOL     OW37001  11.669   9.644  13.573
11721SOL    HW137002  11.756   9.645  13.534
11721SOL    HW237003  11.682   9.679  13.661
11722SOL     OW37004   2.802  11.925   6.168
11722SOL    HW137005   2.810  11.871   6.090
11722SOL    HW237006   2.871  11.990   6.161
11723SOL     OW37007   1.582   0.467   5.166
11723SOL    HW137008   1.548   0.378   5.160
11723SOL    HW237009   1.565   0.505   5.080
11724SOL     OW37010  10.839  11.135  12.042
11724SOL    HW137011  10.907  11.202  12.038
11724SOL    HW237012  10.887  11.052  12.035
11725SOL     OW37013   6.804   6.170   1.820
11725SOL    HW137014   6.713   6.142   1.831
11725SOL    HW237015   6.823   6.220   1.899
11726SOL     OW37016   3.197   6.666  13.660
11726SOL    HW137017   3.107   6.697  13.651
11726SOL    HW237018   3.247   6.744  13.685
11727SOL     OW37019   3.797   6.005   1.944
11727SOL    HW137020   3.828   5.934   2.000
11727SOL    HW237021   3.701   6.001   1.953
11728SOL     OW37022   6.335   8.319   7.176
11728SOL    HW137023   6.260   8.377   7.189
11728SOL    HW237024   6.298   8.231   7.181
11729SOL     OW37025  13.113   3.282  11.262
11729SOL    HW137026  13.087   3.362  11.307
11729SOL    HW237027  13.201   3.300  11.229
11730SOL     OW37028   3.751   7.599   8.021
11730SOL    HW137029   3.757   7.505   8.003
11730SOL    HW237030   3.722   7.605   8.112
11731SOL     OW37031  12.474   8.744   1.445
11731SOL    HW137032  12.474   8.832   1.482
11731SOL    HW237033  12.534   8.749   1.370
11732SOL     OW37034  11.747   4.867  11.547
11732SOL    HW137035  11.725   4.804  11.478
11732SOL    HW237036  11.669   4.921  11.556
11733SOL     OW37037  12.791   4.987   1.200
11733SOL    HW137038  12.855   5.042   1.245
11733SOL    HW237039  12.785   5.024   1.112
11734SOL     OW37040  13.025   8.187   0.232
11734SOL    HW137041  13.030   8.092   0.244
11734SOL    HW237042  12.932   8.207   0.235
11735SOL     OW37043   8.017  11.519   0.494
11735SOL    HW137044   8.083  11.565   0.441
11735SOL    HW237045   7.969  11.589   0.537
11736SOL     OW37046  13.982   8.374  10.904
11736SOL    HW137047  13.970   8.464  10.872
11736SOL    HW237048  14.056   8.340  10.853
11737SOL     OW37049   8.235   5.338   7.708
11737SOL    HW137050   8.183   5.297   7.778
11737SOL    HW237051   8.177   5.406   7.673
11738SOL     OW37052   6.968   4.512  10.595
11738SOL    HW137053   6.941   4.572  10.525
11738SOL    HW237054   7.055   4.482  10.568
11739SOL     OW37055   3.007  14.426   8.869
11739SOL    HW137056   3.012  14.412   8.963
11739SOL    HW237057   3.096  14.452   8.844
11740SOL     OW37058   5.060  11.569   6.384
11740SOL    HW137059   5.141  11.527   6.356
11740SOL    HW237060   5.086  11.656   6.415
11741SOL     OW37061   4.566  12.914  14.006
11741SOL    HW137062   4.540  12.943  14.094
11741SOL    HW237063   4.532  12.981  13.948
11742SOL     OW37064  11.736   9.422   2.245
11742SOL    HW137065  11.690   9.347   2.283
11742SOL    HW237066  11.677   9.496   2.260
11743SOL     OW37067   4.146   2.789   9.907
11743SOL    HW137068   4.113   2.699   9.908
11743SOL    HW237069   4.204   2.794   9.983
11744SOL     OW37070   3.186  14.179   3.837
11744SOL    HW137071   3.195  14.274   3.844
11744SOL    HW237072   3.107  14.158   3.887
11745SOL     OW37073   1.217   7.709   0.813
11745SOL    HW137074   1.134   7.726   0.856
11745SOL    HW237075   1.265   7.792   0.818
11746SOL     OW37076   6.317   7.349   1.154
11746SOL    HW137077   6.311   7.416   1.221
11746SOL    HW237078   6.380   7.384   1.091
11747SOL     OW37079  13.962   8.526   4.173
11747SOL    HW137080  14.034   8.488   4.224
11747SOL    HW237081  13.992   8.522   4.082
11748SOL     OW37082   1.375   0.209   7.748
11748SOL    HW137083   1.400   0.300   7.759
11748SOL    HW237084   1.283   0.206   7.774
11749SOL     OW37085  12.553   2.659   8.138
11749SOL    HW137086  12.595   2.659   8.052
11749SOL    HW237087  12.622   2.684   8.199
11750SOL     OW37088   4.418   0.114  14.654
11750SOL    HW137089   4.410   0.143  14.745
11750SOL    HW237090   4.341   0.151  14.610
11751SOL     OW37091   8.013  14.209  10.250
11751SOL    HW137092   7.918  14.217  10.262
11751SOL    HW237093   8.024  14.192  10.157
11752SOL     OW37094   4.796   7.323  14.765
11752SOL    HW137095   4.705   7.326  14.734
11752SOL    HW237096   4.838   7.256  14.711
11753SOL     OW37097   8.970   0.773   9.819
11753SOL    HW137098   8.913   0.850   9.814
11753SOL    HW237099   8.954   0.736   9.905
11754SOL     OW37100   1.933   9.063   6.472
11754SOL    HW137101   1.959   9.072   6.564
11754SOL    HW237102   2.014   9.040   6.426
11755SOL     OW37103  12.274   8.256  12.934
11755SOL    HW137104  12.213   8.189  12.964
11755SOL    HW237105  12.259   8.261  12.839
11756SOL     OW37106  13.784   3.507   6.863
11756SOL    HW137107  13.849   3.471   6.803
11756SOL    HW237108  13.700   3.491   6.820
11757SOL     OW37109  11.063   2.107   3.342
11757SOL    HW137110  11.054   2.019   3.305
11757SOL    HW237111  11.084   2.092   3.435
11758SOL     OW37112  12.440   7.982   0.302
11758SOL    HW137113  12.426   8.045   0.372
11758SOL    HW237114  12.534   7.964   0.304
11759SOL     OW37115   2.166   3.586   2.068
11759SOL    HW137116   2.080   3.606   2.031
11759SOL    HW237117   2.147   3.537   2.148
11760SOL     OW37118  10.351   3.752   1.906
11760SOL    HW137119  10.294   3.727   1.979
11760SOL    HW237120  10.440   3.740   1.939
11761SOL     OW37121   0.334   9.088  10.949
11761SOL    HW137122   0.246   9.052  10.954
11761SOL    HW237123   0.334   9.141  10.869
11762SOL     OW37124   2.927  11.264  14.601
11762SOL    HW137125   2.885  11.317  14.534
11762SOL    HW237126   2.966  11.190  14.553
11763SOL     OW37127  14.738   6.241   0.757
11763SOL    HW137128  14.793   6.194   0.695
11763SOL    HW237129  14.701   6.174   0.814
11764SOL     OW37130   2.036  13.309   2.400
11764SOL    HW137131   1.980  13.235   2.378
11764SOL    HW237132   1.986  13.358   2.466
11765SOL     OW37133   5.306  10.199   2.222
11765SOL    HW137134   5.301  10.174   2.130
11765SOL    HW237135   5.378  10.147   2.257
11766SOL     OW37136   6.109  12.664  13.785
11766SOL    HW137137   6.116  12.573  13.757
11766SOL    HW237138   6.043  12.662  13.854
11767SOL     OW37139   8.549  10.945   2.296
11767SOL    HW137140   8.505  10.877   2.245
11767SOL    HW237141   8.614  10.898   2.348
11768SOL     OW37142   9.788   5.873   4.718
11768SOL    HW137143   9.852   5.813   4.678
11768SOL    HW237144   9.820   5.960   4.696
11769SOL     OW37145  12.697   2.725   6.673
11769SOL    HW137146  12.656   2.811   6.683
11769SOL    HW237147  12.624   2.664   6.664
11770SOL     OW37148   8.881  11.418  14.674
11770SOL    HW137149   8.967  11.376  14.669
11770SOL    HW237150   8.864  11.425  14.768
11771SOL     OW37151   2.150   1.510   0.216
11771SOL    HW137152   2.187   1.596   0.196
11771SOL    HW237153   2.205   1.477   0.287
11772SOL     OW37154  11.469   5.313  12.947
11772SOL    HW137155  11.507   5.331  12.861
11772SOL    HW237156  11.516   5.372  13.007
11773SOL     OW37157   9.599   2.370  12.409
11773SOL    HW137158   9.562   2.382  12.322
11773SOL    HW237159   9.545   2.425  12.466
11774SOL     OW37160  11.294  11.601   6.929
11774SOL    HW137161  11.209  11.558   6.943
11774SOL    HW237162  11.327  11.564   6.847
11775SOL     OW37163   8.375  12.282   3.463
11775SOL    HW137164   8.395  12.298   3.555
11775SOL    HW237165   8.335  12.362   3.432
11776SOL     OW37166  13.952   9.911   0.149
11776SOL    HW137167  13.996   9.988   0.184
11776SOL    HW237168  13.865   9.942   0.124
11777SOL     OW37169   4.590   4.705   1.145
11777SOL    HW137170   4.607   4.765   1.218
11777SOL    HW237171   4.518   4.650   1.176
11778SOL     OW37172  12.501   9.415   1.464
11778SOL    HW137173  12.474   9.338   1.512
11778SOL    HW237174  12.534   9.381   1.381
11779SOL     OW37175   1.826  13.645   4.337
11779SOL    HW137176   1.790  13.682   4.418
11779SOL    HW237177   1.818  13.550   4.349
11780SOL     OW37178   4.327   7.428   9.966
11780SOL    HW137179   4.320   7.377   9.885
11780SOL    HW237180   4.400   7.386  10.013
11781SOL     OW37181   0.692   4.989   2.627
11781SOL    HW137182   0.596   4.986   2.630
11781SOL    HW237183   0.719   4.905   2.664
11782SOL     OW37184  12.416   5.540   3.772
11782SOL    HW137185  12.326   5.573   3.766
11782SOL    HW237186  12.422   5.477   3.700
11783SOL     OW37187   3.299   6.399   7.150
11783SOL    HW137188   3.261   6.332   7.208
11783SOL    HW237189   3.277   6.482   7.192
11784SOL     OW37190  13.066   9.894  11.817
11784SOL    HW137191  13.103   9.975  11.782
11784SOL    HW237192  13.087   9.897  11.911
11785SOL     OW37193  13.040  10.370   2.532
11785SOL    HW137194  13.100  10.386   2.605
11785SOL    HW237195  12.978  10.443   2.536
11786SOL     OW37196  14.523   8.309   9.621
11786SOL    HW137197  14.544   8.363   9.545
11786SOL    HW237198  14.516   8.220   9.586
11787SOL     OW37199  11.666   1.549   7.850
11787SOL    HW137200  11.736   1.560   7.914
11787SOL    HW237201  11.620   1.633   7.850
11788SOL     OW37202   3.687  12.043   6.191
11788SOL    HW137203   3.634  12.069   6.115
11788SOL    HW237204   3.683  11.947   6.191
11789SOL     OW37205   2.174   5.934   6.704
11789SOL    HW137206   2.163   5.943   6.609
11789SOL    HW237207   2.257   5.888   6.714
11790SOL     OW37208  12.021  11.832   4.365
11790SOL    HW137209  12.102  11.803   4.408
11790SOL    HW237210  11.955  11.771   4.396
11791SOL     OW37211   9.466   2.615  13.225
11791SOL    HW137212   9.396   2.680  13.232
11791SOL    HW237213   9.495   2.602  13.315
11792SOL     OW37214  10.061  10.271   0.427
11792SOL    HW137215  10.128  10.241   0.488
11792SOL    HW237216  10.005  10.329   0.479
11793SOL     OW37217  12.318   1.058   0.141
11793SOL    HW137218  12.239   1.087   0.096
11793SOL    HW237219  12.293   0.977   0.185
11794SOL     OW37220   6.337   7.012   8.033
11794SOL    HW137221   6.357   7.005   8.127
11794SOL    HW237222   6.376   6.934   7.995
11795SOL     OW37223  12.519  10.024   2.298
11795SOL    HW137224  12.450  10.032   2.363
11795SOL    HW237225  12.506  10.099   2.239
11796SOL     OW37226   7.364   0.200  11.375
11796SOL    HW137227   7.401   0.288  11.380
11796SOL    HW237228   7.307   0.194  11.452
11797SOL     OW37229   8.640   5.741   0.106
11797SOL    HW137230   8.594   5.658   0.099
11797SOL    HW237231   8.621   5.772   0.194
11798SOL     OW37232  13.459   0.970   2.227
11798SOL    HW137233  13.418   1.054   2.206
11798SOL    HW237234  13.553   0.986   2.216
11799SOL     OW37235   6.220  14.394  14.239
11799SOL    HW137236   6.220  14.393  14.334
11799SOL    HW237237   6.300  14.441  14.215
11800SOL     OW37238   7.911   7.172   7.519
11800SOL    HW137239   7.856   7.117   7.463
11800SOL    HW237240   8.001   7.151   7.493
11801SOL     OW37241  13.986  10.852  13.826
11801SOL    HW137242  13.898  10.874  13.855
11801SOL    HW237243  14.040  10.926  13.854
11802SOL     OW37244  13.820   3.054   5.520
11802SOL    HW137245  13.871   2.977   5.543
11802SOL    HW237246  13.773   3.077   5.600
11803SOL     OW37247  12.995   2.487  11.317
11803SOL    HW137248  12.945   2.471  11.237
11803SOL    HW237249  13.023   2.578  11.310
11804SOL     OW37250   1.204  13.071   1.670
11804SOL    HW137251   1.199  13.159   1.633
11804SOL    HW237252   1.298  13.055   1.682
11805SOL     OW37253   6.796   3.669   0.527
11805SOL    HW137254   6.827   3.597   0.472
11805SOL    HW237255   6.798   3.746   0.470
11806SOL     OW37256   3.747  12.192   8.834
11806SOL    HW137257   3.730  12.241   8.753
11806SOL    HW237258   3.723  12.252   8.904
11807SOL     OW37259   6.110  10.083   8.143
11807SOL    HW137260   6.195  10.059   8.179
11807SOL    HW237261   6.060  10.113   8.219
11808SOL     OW37262   7.383   7.756  11.694
11808SOL    HW137263   7.347   7.705  11.766
11808SOL    HW237264   7.415   7.690  11.632
11809SOL     OW37265   0.304   8.505  11.791
11809SOL    HW137266   0.242   8.573  11.815
11809SOL    HW237267   0.322   8.521  11.698
11810SOL     OW37268   5.636   5.766   0.724
11810SOL    HW137269   5.656   5.790   0.815
11810SOL    HW237270   5.618   5.672   0.728
11811SOL     OW37271  10.528  11.288   3.144
11811SOL    HW137272  10.449  11.241   3.117
11811SOL    HW237273  10.510  11.315   3.234
11812SOL     OW37274   5.841  10.723   8.056
11812SOL    HW137275   5.788  10.677   8.121
11812SOL    HW237276   5.840  10.666   7.979
11813SOL     OW37277   3.713   7.990   4.895
11813SOL    HW137278   3.638   7.965   4.841
11813SOL    HW237279   3.723   8.084   4.880
11814SOL     OW37280  13.714   3.546   2.890
11814SOL    HW137281  13.785   3.495   2.928
11814SOL    HW237282  13.751   3.634   2.879
11815SOL     OW37283  11.834   4.827   3.447
11815SOL    HW137284  11.847   4.733   3.461
11815SOL    HW237285  11.824   4.836   3.352
11816SOL     OW37286   3.389  12.309   4.603
11816SOL    HW137287   3.293  12.312   4.607
11816SOL    HW237288   3.408  12.283   4.512
11817SOL     OW37289  14.747   8.234   5.069
11817SOL    HW137290  14.755   8.326   5.096
11817SOL    HW237291  14.653   8.221   5.056
11818SOL     OW37292   0.694   7.619   1.305
11818SOL    HW137293   0.760   7.582   1.363
11818SOL    HW237294   0.645   7.544   1.272
11819SOL     OW37295   1.360  14.778   0.959
11819SOL    HW137296   1.427  14.716   0.990
11819SOL    HW237297   1.329  14.821   1.038
11820SOL     OW37298   7.893   8.253  10.746
11820SOL    HW137299   7.899   8.289  10.658
11820SOL    HW237300   7.820   8.191  10.742
11821SOL     OW37301   6.112   0.683   3.462
11821SOL    HW137302   6.117   0.638   3.377
11821SOL    HW237303   6.018   0.690   3.481
11822SOL     OW37304  11.257   9.243  14.703
11822SOL    HW137305  11.301   9.191  14.770
11822SOL    HW237306  11.224   9.320  14.750
11823SOL     OW37307   8.043   3.139  13.893
11823SOL    HW137308   7.966   3.185  13.926
11823SOL    HW237309   8.093   3.116  13.971
11824SOL     OW37310   9.325  13.501   9.329
11824SOL    HW137311   9.284  13.586   9.310
11824SOL    HW237312   9.253  13.446   9.360
11825SOL     OW37313   6.629  10.047   4.481
11825SOL    HW137314   6.600  10.031   4.392
11825SOL    HW237315   6.667   9.964   4.510
11826SOL     OW37316   7.134  14.240   0.757
11826SOL    HW137317   7.150  14.275   0.845
11826SOL    HW237318   7.189  14.162   0.751
11827SOL     OW37319  13.586   0.662  11.192
11827SOL    HW137320  13.520   0.594  11.174
11827SOL    HW237321  13.616   0.642  11.281
11828SOL     OW37322  11.287  14.809   1.777
11828SOL    HW137323  11.207  14.777   1.736
11828SOL    HW237324  11.263   0.019   1.812
11829SOL     OW37325  12.586   2.083  12.715
11829SOL    HW137326  12.554   2.088  12.625
11829SOL    HW237327  12.620   2.170  12.734
11830SOL     OW37328   5.135  14.637  12.632
11830SOL    HW137329   5.140  14.648  12.537
11830SOL    HW237330   5.227  14.641  12.661
11831SOL     OW37331  13.416   0.231   3.194
11831SOL    HW137332  13.357   0.247   3.267
11831SOL    HW237333  13.495   0.281   3.215
11832SOL     OW37334  13.309  14.119   6.876
11832SOL    HW137335  13.277  14.153   6.792
11832SOL    HW237336  13.239  14.061   6.906
11833SOL     OW37337  10.933  13.934  13.661
11833SOL    HW137338  10.930  13.983  13.742
11833SOL    HW237339  10.841  13.925  13.635
11834SOL     OW37340  10.952   5.027   9.939
11834SOL    HW137341  10.931   5.078  10.017
11834SOL    HW237342  10.971   5.092   9.872
11835SOL     OW37343   0.254   0.634   4.040
11835SOL    HW137344   0.279   0.719   4.004
11835SOL    HW237345   0.186   0.602   3.981
11836SOL     OW37346   4.278   6.225  10.016
11836SOL    HW137347   4.191   6.261   9.995
11836SOL    HW237348   4.323   6.223   9.932
11837SOL     OW37349   6.990  13.546   9.367
11837SOL    HW137350   6.923  13.487   9.402
11837SOL    HW237351   6.945  13.629   9.354
11838SOL     OW37352   9.190   6.841  14.113
11838SOL    HW137353   9.122   6.819  14.049
11838SOL    HW237354   9.144   6.892  14.180
11839SOL     OW37355  12.049   5.120   2.575
11839SOL    HW137356  12.112   5.171   2.523
11839SOL    HW237357  12.104   5.057   2.622
11840SOL     OW37358   8.436   1.814   6.393
11840SOL    HW137359   8.476   1.870   6.459
11840SOL    HW237360   8.378   1.872   6.344
11841SOL     OW37361  13.519   3.391   2.960
11841SOL    HW137362  13.517   3.317   2.899
11841SOL    HW237363  13.587   3.449   2.926
11842SOL     OW37364   6.030   9.809   0.191
11842SOL    HW137365   6.053   9.755   0.268
11842SOL    HW237366   6.100   9.792   0.128
11843SOL     OW37367   4.305  13.688   9.109
11843SOL    HW137368   4.223  13.718   9.070
11843SOL    HW237369   4.326  13.607   9.063
11844SOL     OW37370   3.960   1.529  10.543
11844SOL    HW137371   3.876   1.542  10.499
11844SOL    HW237372   3.937   1.526  10.636
11845SOL     OW37373   9.101   8.757   6.724
11845SOL    HW137374   9.061   8.830   6.677
11845SOL    HW237375   9.030   8.694   6.736
11846SOL     OW37376   8.456  11.866   7.385
11846SOL    HW137377   8.391  11.886   7.453
11846SOL    HW237378   8.406  11.869   7.303
11847SOL     OW37379  10.621   2.037   3.646
11847SOL    HW137380  10.670   1.989   3.580
11847SOL    HW237381  10.551   2.080   3.597
11848SOL     OW37382  14.014  10.007   5.002
11848SOL    HW137383  14.067  10.006   5.081
11848SOL    HW237384  14.077  10.004   4.930
11849SOL     OW37385   4.201   8.348  13.635
11849SOL    HW137386   4.143   8.396  13.575
11849SOL    HW237387   4.276   8.325  13.581
11850SOL     OW37388   2.297   6.842   7.414
11850SOL    HW137389   2.322   6.793   7.493
11850SOL    HW237390   2.378   6.885   7.386
11851SOL     OW37391  11.542  14.609   2.602
11851SOL    HW137392  11.454  14.579   2.624
11851SOL    HW237393  11.529  14.697   2.567
11852SOL     OW37394  13.605  12.957   7.484
11852SOL    HW137395  13.547  12.881   7.493
11852SOL    HW237396  13.650  12.943   7.401
11853SOL     OW37397   6.771  14.034  10.380
11853SOL    HW137398   6.687  14.066  10.345
11853SOL    HW237399   6.802  14.104  10.437
11854SOL     OW37400   2.512   0.036   9.643
11854SOL    HW137401   2.602   0.024   9.612
11854SOL    HW237402   2.475   0.102   9.585
11855SOL     OW37403   7.240   9.970   9.525
11855SOL    HW137404   7.181   9.920   9.582
11855SOL    HW237405   7.182  10.030   9.477
11856SOL     OW37406   7.860  11.808  11.898
11856SOL    HW137407   7.817  11.849  11.823
11856SOL    HW237408   7.940  11.859  11.910
11857SOL     OW37409  13.989   7.750   4.284
11857SOL    HW137410  13.957   7.798   4.361
11857SOL    HW237411  13.977   7.811   4.211
11858SOL     OW37412   4.035   4.598   4.017
11858SOL    HW137413   4.071   4.518   4.057
11858SOL    HW237414   3.957   4.568   3.971
11859SOL     OW37415   4.039  12.307   7.759
11859SOL    HW137416   3.952  12.347   7.768
11859SOL    HW237417   4.053  12.262   7.842
11860SOL     OW37418   1.971   2.793   9.111
11860SOL    HW137419   1.900   2.815   9.050
11860SOL    HW237420   1.978   2.870   9.167
11861SOL     OW37421   9.287   4.829   8.995
11861SOL    HW137422   9.343   4.786   8.930
11861SOL    HW237423   9.200   4.827   8.956
11862SOL     OW37424   2.795   6.951  11.231
11862SOL    HW137425   2.813   6.950  11.325
11862SOL    HW237426   2.872   6.994  11.193
11863SOL     OW37427   1.284  10.105  14.271
11863SOL    HW137428   1.264  10.036  14.208
11863SOL    HW237429   1.349  10.160  14.227
11864SOL     OW37430  12.308   7.522  13.145
11864SOL    HW137431  12.331   7.432  13.168
11864SOL    HW237432  12.349   7.575  13.214
11865SOL     OW37433   9.309  12.978   3.490
11865SOL    HW137434   9.288  12.981   3.397
11865SOL    HW237435   9.244  12.918   3.527
11866SOL     OW37436   4.974   7.453   2.184
11866SOL    HW137437   5.051   7.429   2.234
11866SOL    HW237438   4.986   7.411   2.099
11867SOL     OW37439   4.077   7.713   6.043
11867SOL    HW137440   4.081   7.635   6.099
11867SOL    HW237441   4.115   7.685   5.960
11868SOL     OW37442   8.764   4.135  12.852
11868SOL    HW137443   8.692   4.153  12.913
11868SOL    HW237444   8.841   4.173  12.894
11869SOL     OW37445   3.109  11.404   7.757
11869SOL    HW137446   3.107  11.498   7.777
11869SOL    HW237447   3.194  11.391   7.714
11870SOL     OW37448   8.443  11.219   9.003
11870SOL    HW137449   8.494  11.284   8.955
11870SOL    HW237450   8.469  11.230   9.094
11871SOL     OW37451  10.478  14.828   4.007
11871SOL    HW137452  10.413  14.864   3.947
11871SOL    HW237453  10.470  14.733   3.998
11872SOL     OW37454  11.192   1.179   1.868
11872SOL    HW137455  11.171   1.111   1.803
11872SOL    HW237456  11.115   1.184   1.924
11873SOL     OW37457   6.120  13.145  10.804
11873SOL    HW137458   6.128  13.196  10.885
11873SOL    HW237459   6.049  13.083  10.822
11874SOL     OW37460   8.990  10.020   4.956
11874SOL    HW137461   8.996  10.017   4.861
11874SOL    HW237462   9.080  10.008   4.986
11875SOL     OW37463   9.333   4.302   8.520
11875SOL    HW137464   9.316   4.396   8.516
11875SOL    HW237465   9.330   4.272   8.429
11876SOL     OW37466  12.527  12.180   5.589
11876SOL    HW137467  12.535  12.253   5.650
11876SOL    HW237468  12.590  12.115   5.621
11877SOL     OW37469  10.158   6.745   3.202
11877SOL    HW137470  10.112   6.811   3.254
11877SOL    HW237471  10.244   6.739   3.242
11878SOL     OW37472   2.382   2.271   6.415
11878SOL    HW137473   2.389   2.209   6.343
11878SOL    HW237474   2.368   2.216   6.492
11879SOL     OW37475  11.119   0.498   7.575
11879SOL    HW137476  11.041   0.516   7.628
11879SOL    HW237477  11.085   0.487   7.486
11880SOL     OW37478   3.565   2.856   8.261
11880SOL    HW137479   3.613   2.819   8.335
11880SOL    HW237480   3.624   2.923   8.226
11881SOL     OW37481   6.776  10.595   5.575
11881SOL    HW137482   6.766  10.580   5.669
11881SOL    HW237483   6.871  10.604   5.563
11882SOL     OW37484   4.187  10.311   7.718
11882SOL    HW137485   4.270  10.266   7.735
11882SOL    HW237486   4.195  10.343   7.628
11883SOL     OW37487   5.383   8.425   9.035
11883SOL    HW137488   5.470   8.456   9.059
11883SOL    HW237489   5.397   8.336   9.002
11884SOL     OW37490   3.269  11.382  11.854
11884SOL    HW137491   3.278  11.472  11.885
11884SOL    HW237492   3.190  11.349  11.898
11885SOL     OW37493   2.103  10.179   0.754
11885SOL    HW137494   2.062  10.182   0.840
11885SOL    HW237495   2.161  10.255   0.752
11886SOL     OW37496   3.411  13.265   0.749
11886SOL    HW137497   3.340  13.291   0.690
11886SOL    HW237498   3.441  13.181   0.713
11887SOL     OW37499   3.369   6.848  13.747
11887SOL    HW137500   3.314   6.836  13.825
11887SOL    HW237501   3.432   6.776  13.751
11888SOL     OW37502   8.330   4.480   6.179
11888SOL    HW137503   8.341   4.558   6.233
11888SOL    HW237504   8.413   4.473   6.130
11889SOL     OW37505  12.560   3.408   0.541
11889SOL    HW137506  12.644   3.410   0.495
11889SOL    HW237507  12.574   3.350   0.615
11890SOL     OW37508   8.122   7.947   2.803
11890SOL    HW137509   8.068   7.874   2.774
11890SOL    HW237510   8.122   8.008   2.729
11891SOL     OW37511   1.606   0.555  13.580
11891SOL    HW137512   1.661   0.496  13.528
11891SOL    HW237513   1.614   0.640  13.537
11892SOL     OW37514  10.051   1.764   3.621
11892SOL    HW137515  10.083   1.770   3.531
11892SOL    HW237516   9.955   1.762   3.612
11893SOL     OW37517   6.598   1.276   6.889
11893SOL    HW137518   6.583   1.294   6.796
11893SOL    HW237519   6.514   1.295   6.931
11894SOL     OW37520   1.296   5.730   0.619
11894SOL    HW137521   1.326   5.702   0.706
11894SOL    HW237522   1.301   5.651   0.566
11895SOL     OW37523   9.482   8.940  11.221
11895SOL    HW137524   9.524   8.908  11.301
11895SOL    HW237525   9.489   9.035  11.227
11896SOL     OW37526   7.766   2.348   7.284
11896SOL    HW137527   7.831   2.298   7.334
11896SOL    HW237528   7.709   2.282   7.247
11897SOL     OW37529   4.433   2.423  11.379
11897SOL    HW137530   4.401   2.378  11.457
11897SOL    HW237531   4.528   2.431  11.393
11898SOL     OW37532   1.448   0.838  12.824
11898SOL    HW137533   1.483   0.898  12.758
11898SOL    HW237534   1.362   0.812  12.791
11899SOL     OW37535   4.798   1.138   5.311
11899SOL    HW137536   4.730   1.078   5.341
11899SOL    HW237537   4.761   1.225   5.326
11900SOL     OW37538   5.409   1.644   1.379
11900SOL    HW137539   5.398   1.681   1.291
11900SOL    HW237540   5.347   1.571   1.382
11901SOL     OW37541   0.618   3.853  14.798
11901SOL    HW137542   0.616   3.949  14.796
11901SOL    HW237543   0.570   3.830   0.001
11902SOL     OW37544  12.531  12.947   8.113
11902SOL    HW137545  12.609  12.986   8.153
11902SOL    HW237546  12.487  12.902   8.185
11903SOL     OW37547   6.285   1.497   1.057
11903SOL    HW137548   6.309   1.424   0.999
11903SOL    HW237549   6.300   1.575   1.004
11904SOL     OW37550   9.850   5.755   2.153
11904SOL    HW137551   9.768   5.799   2.176
11904SOL    HW237552   9.881   5.800   2.075
11905SOL     OW37553  10.240   5.578  12.319
11905SOL    HW137554  10.203   5.516  12.382
11905SOL    HW237555  10.319   5.534  12.287
11906SOL     OW37556   4.408   9.548  13.836
11906SOL    HW137557   4.363   9.601  13.901
11906SOL    HW237558   4.462   9.610  13.787
11907SOL     OW37559  14.209   3.117   7.864
11907SOL    HW137560  14.152   3.147   7.934
11907SOL    HW237561  14.176   3.159   7.785
11908SOL     OW37562  11.859   2.889   2.473
11908SOL    HW137563  11.947   2.857   2.454
11908SOL    HW237564  11.849   2.966   2.416
11909SOL     OW37565   2.419   5.953  13.044
11909SOL    HW137566   2.431   5.919  12.955
11909SOL    HW237567   2.324   5.957  13.055
11910SOL     OW37568   7.754   3.043   9.219
11910SOL    HW137569   7.784   3.105   9.286
11910SOL    HW237570   7.747   2.960   9.266
11911SOL     OW37571  10.843  14.795  11.644
11911SOL    HW137572  10.845  14.727  11.577
11911SOL    HW237573  10.892  14.758  11.717
11912SOL     OW37574   4.343  10.607  13.062
11912SOL    HW137575   4.413  10.541  13.064
11912SOL    HW237576   4.325  10.621  12.969
11913SOL     OW37577   0.774   7.500   7.298
11913SOL    HW137578   0.678   7.495   7.300
11913SOL    HW237579   0.801   7.425   7.246
11914SOL     OW37580   0.671   8.927  10.774
11914SOL    HW137581   0.647   8.963  10.689
11914SOL    HW237582   0.767   8.923  10.772
11915SOL     OW37583   2.456   3.866   3.149
11915SOL    HW137584   2.465   3.817   3.231
11915SOL    HW237585   2.469   3.801   3.080
11916SOL     OW37586  13.070  13.496   2.510
11916SOL    HW137587  13.114  13.570   2.550
11916SOL    HW237588  13.131  13.423   2.519
11917SOL     OW37589  12.227   6.665   9.551
11917SOL    HW137590  12.305   6.686   9.603
11917SOL    HW237591  12.184   6.595   9.601
11918SOL     OW37592   3.710   0.532   3.521
11918SOL    HW137593   3.622   0.508   3.490
11918SOL    HW237594   3.714   0.627   3.510
11919SOL     OW37595   1.425   4.808  12.245
11919SOL    HW137596   1.370   4.765  12.310
11919SOL    HW237597   1.513   4.807  12.283
11920SOL     OW37598  14.027   2.583   2.688
11920SOL    HW137599  13.985   2.626   2.763
11920SOL    HW237600  14.000   2.635   2.612
11921SOL     OW37601   2.126   5.360  11.370
11921SOL    HW137602   2.058   5.301  11.402
11921SOL    HW237603   2.089   5.398  11.290
11922SOL     OW37604   0.399   9.089  14.153
11922SOL    HW137605   0.471   9.151  14.142
11922SOL    HW237606   0.405   9.061  14.244
11923SOL     OW37607   8.507   6.029   1.116
11923SOL    HW137608   8.464   5.948   1.088
11923SOL    HW237609   8.599   6.017   1.091
11924SOL     OW37610  13.381   4.300  14.015
11924SOL    HW137611  13.410   4.288  14.105
11924SOL    HW237612  13.342   4.387  14.013
11925SOL     OW37613   5.385   4.728  13.400
11925SOL    HW137614   5.426   4.776  13.327
11925SOL    HW237615   5.342   4.654  13.358
11926SOL     OW37616   6.469   2.358  14.105
11926SOL    HW137617   6.527   2.377  14.179
11926SOL    HW237618   6.499   2.417  14.036
11927SOL     OW37619   7.214  11.433   8.972
11927SOL    HW137620   7.282  11.495   8.997
11927SOL    HW237621   7.204  11.376   9.049
11928SOL     OW37622   3.994   5.767  12.091
11928SOL    HW137623   3.977   5.838  12.154
11928SOL    HW237624   4.040   5.810  12.019
11929SOL     OW37625   7.188   7.392  14.306
11929SOL    HW137626   7.267   7.427  14.264
11929SOL    HW237627   7.118   7.452  14.282
11930SOL     OW37628  11.666   2.554  13.521
11930SOL    HW137629  11.693   2.626  13.465
11930SOL    HW237630  11.596   2.510  13.473
11931SOL     OW37631   1.991   8.057   2.875
11931SOL    HW137632   1.977   8.034   2.967
11931SOL    HW237633   2.085   8.068   2.867
11932SOL     OW37634   5.544   2.038   0.072
11932SOL    HW137635   5.485   1.972   0.038
11932SOL    HW237636   5.598   2.063  14.873
11933SOL     OW37637   2.296   8.597   6.374
11933SOL    HW137638   2.313   8.631   6.461
11933SOL    HW237639   2.342   8.513   6.372
11934SOL     OW37640   9.012   9.337   3.851
11934SOL    HW137641   9.079   9.274   3.825
11934SOL    HW237642   9.024   9.347   3.945
11935SOL     OW37643  12.884  14.446   8.313
11935SOL    HW137644  12.915  14.361   8.343
11935SOL    HW237645  12.823  14.425   8.242
11936SOL     OW37646  10.298   7.500  10.805
11936SOL    HW137647  10.209   7.533  10.819
11936SOL    HW237648  10.302   7.418  10.854
11937SOL     OW37649  10.670   0.854  11.951
11937SOL    HW137650  10.624   0.843  11.868
11937SOL    HW237651  10.758   0.822  11.935
11938SOL     OW37652   0.656   6.928   0.913
11938SOL    HW137653   0.706   6.978   0.849
11938SOL    HW237654   0.586   6.987   0.940
11939SOL     OW37655   6.508  13.569  12.336
11939SOL    HW137656   6.476  13.515  12.264
11939SOL    HW237657   6.533  13.507  12.405
11940SOL     OW37658   0.067   1.224  10.650
11940SOL    HW137659  14.848   1.218  10.645
11940SOL    HW237660   0.095   1.139  10.682
11941SOL     OW37661   7.356   9.566  13.392
11941SOL    HW137662   7.376   9.489  13.338
11941SOL    HW237663   7.435   9.580  13.444
11942SOL     OW37664   5.076   0.382   2.381
11942SOL    HW137665   5.015   0.332   2.326
11942SOL    HW237666   5.041   0.471   2.379
11943SOL     OW37667  11.691   9.913   9.592
11943SOL    HW137668  11.715  10.002   9.565
11943SOL    HW237669  11.705   9.859   9.514
11944SOL     OW37670  11.144  12.262  13.654
11944SOL    HW137671  11.239  12.253  13.647
11944SOL    HW237672  11.111  12.228  13.571
11945SOL     OW37673  12.870  13.326   4.406
11945SOL    HW137674  12.855  13.362   4.319
11945SOL    HW237675  12.965  13.316   4.412
11946SOL     OW37676   0.167  13.597   9.023
11946SOL    HW137677   0.117  13.674   9.046
11946SOL    HW237678   0.107  13.542   8.973
11947SOL     OW37679   1.523   4.726   2.430
11947SOL    HW137680   1.551   4.811   2.394
11947SOL    HW237681   1.451   4.698   2.374
11948SOL     OW37682   0.471  13.655  14.176
11948SOL    HW137683   0.535  13.726  14.186
11948SOL    HW237684   0.405  13.690  14.116
11949SOL     OW37685   4.713  14.595   5.611
11949SOL    HW137686   4.687  14.657   5.679
11949SOL    HW237687   4.634  14.543   5.594
11950SOL     OW37688   8.220   7.187  14.372
11950SOL    HW137689   8.144   7.168  14.428
11950SOL    HW237690   8.216   7.121  14.304
11951SOL     OW37691   0.185   4.834  10.258
11951SOL    HW137692   0.187   4.929  10.253
11951SOL    HW237693   0.236   4.805  10.183
11952SOL     OW37694   8.141   2.308  12.038
11952SOL    HW137695   8.231   2.298  12.071
11952SOL    HW237696   8.144   2.269  11.951
11953SOL     OW37697   4.321   7.585   4.915
11953SOL    HW137698   4.342   7.593   5.008
11953SOL    HW237699   4.402   7.554   4.875
11954SOL     OW37700   7.676   7.555   2.839
11954SOL    HW137701   7.747   7.548   2.903
11954SOL    HW237702   7.712   7.518   2.758
11955SOL     OW37703   9.870   8.396   7.896
11955SOL    HW137704   9.947   8.447   7.874
11955SOL    HW237705   9.804   8.461   7.921
11956SOL     OW37706   2.128   5.406  11.949
11956SOL    HW137707   2.195   5.468  11.977
11956SOL    HW237708   2.170   5.353  11.881
11957SOL     OW37709  12.894  13.214   6.033
11957SOL    HW137710  12.953  13.286   6.013
11957SOL    HW237711  12.912  13.149   5.965
11958SOL     OW37712   8.286   4.810  12.860
11958SOL    HW137713   8.305   4.734  12.804
11958SOL    HW237714   8.348   4.877  12.831
11959SOL     OW37715   2.808  13.025  10.548
11959SOL    HW137716   2.818  12.956  10.482
11959SOL    HW237717   2.715  13.045  10.548
11960SOL     OW37718   6.877   4.559  10.248
11960SOL    HW137719   6.790   4.523  10.268
11960SOL    HW237720   6.892   4.625  10.316
11961SOL     OW37721  10.493   7.251   0.817
11961SOL    HW137722  10.550   7.216   0.749
11961SOL    HW237723  10.425   7.186   0.828
11962SOL     OW37724  14.732   7.497   5.390
11962SOL    HW137725  14.689   7.581   5.409
11962SOL    HW237726  14.814   7.522   5.348
11963SOL     OW37727  11.608   7.399   0.661
11963SOL    HW137728  11.560   7.477   0.635
11963SOL    HW237729  11.541   7.336   0.687
11964SOL     OW37730   9.370   1.295   2.870
11964SOL    HW137731   9.313   1.294   2.946
11964SOL    HW237732   9.405   1.206   2.865
11965SOL     OW37733   1.792  14.553  12.529
11965SOL    HW137734   1.888  14.554  12.526
11965SOL    HW237735   1.770  14.572  12.620
11966SOL     OW37736   9.237  12.584   6.168
11966SOL    HW137737   9.152  12.620   6.143
11966SOL    HW237738   9.298  12.622   6.105
11967SOL     OW37739  13.088   6.950   0.743
11967SOL    HW137740  13.174   6.971   0.779
11967SOL    HW237741  13.027   6.964   0.815
11968SOL     OW37742   2.610  13.220   1.927
11968SOL    HW137743   2.555  13.263   1.993
11968SOL    HW237744   2.567  13.239   1.844
11969SOL     OW37745  14.641   8.720   8.653
11969SOL    HW137746  14.669   8.764   8.734
11969SOL    HW237747  14.697   8.642   8.649
11970SOL     OW37748  13.163   3.669  13.448
11970SOL    HW137749  13.257   3.670  13.433
11970SOL    HW237750  13.151   3.623  13.531
11971SOL     OW37751   7.283  11.685   4.710
11971SOL    HW137752   7.292  11.690   4.805
11971SOL    HW237753   7.246  11.598   4.694
11972SOL     OW37754   8.942   6.435  10.003
11972SOL    HW137755   8.993   6.501   9.955
11972SOL    HW237756   8.918   6.477  10.085
11973SOL     OW37757   7.971   1.432  12.556
11973SOL    HW137758   7.899   1.414  12.495
11973SOL    HW237759   8.004   1.518  12.529
11974SOL     OW37760   9.280   8.582   9.357
11974SOL    HW137761   9.205   8.604   9.414
11974SOL    HW237762   9.350   8.639   9.388
11975SOL     OW37763   8.249   1.710   2.939
11975SOL    HW137764   8.262   1.704   2.844
11975SOL    HW237765   8.156   1.726   2.949
11976SOL     OW37766  11.680   1.332   1.050
11976SOL    HW137767  11.622   1.399   1.014
11976SOL    HW237768  11.621   1.271   1.095
11977SOL     OW37769   9.535   4.784  10.550
11977SOL    HW137770   9.512   4.852  10.613
11977SOL    HW237771   9.539   4.704  10.602
11978SOL     OW37772   0.776  13.010   0.328
11978SOL    HW137773   0.795  12.982   0.417
11978SOL    HW237774   0.769  12.928   0.278
11979SOL     OW37775   7.647   8.502   3.609
11979SOL    HW137776   7.722   8.445   3.628
11979SOL    HW237777   7.570   8.449   3.631
11980SOL     OW37778   1.626   9.763   0.638
11980SOL    HW137779   1.593   9.746   0.727
11980SOL    HW237780   1.568   9.832   0.604
11981SOL     OW37781  11.219   3.261   1.026
11981SOL    HW137782  11.138   3.308   1.005
11981SOL    HW237783  11.269   3.323   1.079
11982SOL     OW37784   2.634   0.818   9.656
11982SOL    HW137785   2.686   0.895   9.635
11982SOL    HW237786   2.561   0.821   9.596
11983SOL     OW37787  10.625   9.277   7.870
11983SOL    HW137788  10.646   9.325   7.789
11983SOL    HW237789  10.668   9.192   7.859
11984SOL     OW37790   9.460  14.353   5.276
11984SOL    HW137791   9.504  14.320   5.198
11984SOL    HW237792   9.516  14.323   5.349
11985SOL     OW37793   5.618   5.394  11.610
11985SOL    HW137794   5.580   5.482  11.609
11985SOL    HW237795   5.614   5.366  11.519
11986SOL     OW37796   1.257   7.744   2.959
11986SOL    HW137797   1.277   7.677   3.025
11986SOL    HW237798   1.333   7.801   2.959
11987SOL     OW37799   1.744  12.433   1.266
11987SOL    HW137800   1.747  12.441   1.361
11987SOL    HW237801   1.696  12.352   1.250
11988SOL     OW37802   7.424   1.077   9.725
11988SOL    HW137803   7.518   1.086   9.744
11988SOL    HW237804   7.404   1.149   9.666
11989SOL     OW37805   8.899   3.163  13.373
11989SOL    HW137806   8.910   3.141  13.465
11989SOL    HW237807   8.850   3.245  13.373
11990SOL     OW37808  13.205   3.753   2.023
11990SOL    HW137809  13.269   3.792   2.081
11990SOL    HW237810  13.133   3.816   2.021
11991SOL     OW37811  12.461   4.173   7.182
11991SOL    HW137812  12.479   4.254   7.134
11991SOL    HW237813  12.377   4.143   7.147
11992SOL     OW37814   5.272   0.213   5.888
11992SOL    HW137815   5.365   0.225   5.909
11992SOL    HW237816   5.242   0.145   5.947
11993SOL     OW37817  14.464   7.936   5.123
11993SOL    HW137818  14.423   7.942   5.037
11993SOL    HW237819  14.514   7.855   5.120
11994SOL     OW37820   3.074  13.052   6.807
11994SOL    HW137821   3.094  13.008   6.890
11994SOL    HW237822   2.999  13.109   6.828
11995SOL     OW37823   2.621  14.130  13.946
11995SOL    HW137824   2.585  14.096  14.028
11995SOL    HW237825   2.637  14.052  13.893
11996SOL     OW37826  10.048   2.315   5.633
11996SOL    HW137827   9.977   2.255   5.608
11996SOL    HW237828  10.048   2.313   5.728
11997SOL     OW37829   9.528  10.991  10.106
11997SOL    HW137830   9.539  10.972  10.012
11997SOL    HW237831   9.435  10.975  10.123
11998SOL     OW37832   8.092   0.909   6.960
11998SOL    HW137833   8.157   0.971   6.994
11998SOL    HW237834   8.109   0.828   7.008
11999SOL     OW37835   4.052   0.156  11.161
11999SOL    HW137836   4.041   0.251  11.149
11999SOL    HW237837   4.002   0.117  11.090
12000SOL     OW37838   6.486   8.785   3.194
12000SOL    HW137839   6.510   8.695   3.172
12000SOL    HW237840   6.527   8.838   3.125
12001SOL     OW37841   2.629   7.405   5.825
12001SOL    HW137842   2.583   7.436   5.747
12001SOL    HW237843   2.579   7.327   5.852
12002SOL     OW37844   6.394   5.292   0.836
12002SOL    HW137845   6.419   5.258   0.749
12002SOL    HW237846   6.301   5.271   0.844
12003SOL     OW37847   6.330  14.081  12.926
12003SOL    HW137848   6.346  14.019  12.854
12003SOL    HW237849   6.300  14.026  12.998
12004SOL     OW37850   6.766   7.371  11.778
12004SOL    HW137851   6.762   7.429  11.854
12004SOL    HW237852   6.781   7.284  11.815
12005SOL     OW37853   6.174   8.266   1.450
12005SOL    HW137854   6.167   8.214   1.531
12005SOL    HW237855   6.153   8.355   1.477
12006SOL     OW37856   0.100   7.642   5.717
12006SOL    HW137857   0.142   7.565   5.678
12006SOL    HW237858   0.115   7.712   5.654
12007SOL     OW37859  13.431   8.130   4.201
12007SOL    HW137860  13.527   8.130   4.200
12007SOL    HW237861  13.407   8.051   4.248
12008SOL     OW37862  10.984   6.387  14.368
12008SOL    HW137863  10.959   6.296  14.385
12008SOL    HW237864  11.057   6.381  14.307
12009SOL     OW37865   2.551   6.678   1.230
12009SOL    HW137866   2.466   6.707   1.262
12009SOL    HW237867   2.591   6.634   1.306
12010SOL     OW37868  12.809   3.636   9.719
12010SOL    HW137869  12.827   3.698   9.789
12010SOL    HW237870  12.857   3.670   9.643
12011SOL     OW37871   7.714   9.787   1.946
12011SOL    HW137872   7.800   9.824   1.923
12011SOL    HW237873   7.735   9.713   2.003
12012SOL     OW37874   0.526   9.481  10.715
12012SOL    HW137875   0.571   9.538  10.777
12012SOL    HW237876   0.477   9.540  10.658
12013SOL     OW37877   2.845   2.707   0.975
12013SOL    HW137878   2.827   2.763   1.051
12013SOL    HW237879   2.937   2.722   0.956
12014SOL     OW37880   6.171   2.908  10.225
12014SOL    HW137881   6.111   2.886  10.154
12014SOL    HW237882   6.236   2.837  10.224
12015SOL     OW37883   0.987   5.503   6.442
12015SOL    HW137884   0.955   5.503   6.532
12015SOL    HW237885   1.062   5.444   6.443
12016SOL     OW37886   1.567   5.141   6.210
12016SOL    HW137887   1.549   5.164   6.119
12016SOL    HW237888   1.588   5.225   6.252
12017SOL     OW37889   5.272   5.910   8.735
12017SOL    HW137890   5.253   5.963   8.657
12017SOL    HW237891   5.289   5.823   8.701
12018SOL     OW37892   5.047  11.229   6.390
12018SOL    HW137893   4.992  11.232   6.312
12018SOL    HW237894   5.093  11.145   6.383
12019SOL     OW37895   1.282  10.834   0.492
12019SOL    HW137896   1.365  10.787   0.482
12019SOL    HW237897   1.306  10.926   0.478
12020SOL     OW37898   9.187   4.525   7.725
12020SOL    HW137899   9.092   4.537   7.723
12020SOL    HW237900   9.212   4.546   7.815
12021SOL     OW37901   7.854   2.242   8.800
12021SOL    HW137902   7.787   2.246   8.732
12021SOL    HW237903   7.838   2.319   8.854
12022SOL     OW37904   2.291  10.338  10.469
12022SOL    HW137905   2.219  10.321  10.408
12022SOL    HW237906   2.314  10.430  10.455
12023SOL     OW37907   6.782  13.577  12.490
12023SOL    HW137908   6.850  13.622  12.539
12023SOL    HW237909   6.820  13.563  12.403
12024SOL     OW37910   3.679   0.435   7.789
12024SOL    HW137911   3.642   0.457   7.704
12024SOL    HW237912   3.629   0.488   7.851
12025SOL     OW37913   9.587   1.969   7.171
12025SOL    HW137914   9.671   1.943   7.209
12025SOL    HW237915   9.548   2.027   7.236
12026SOL     OW37916   5.209  11.040   9.941
12026SOL    HW137917   5.171  11.093  10.011
12026SOL    HW237918   5.201  11.094   9.863
12027SOL     OW37919   4.395  12.074   7.623
12027SOL    HW137920   4.379  12.085   7.716
12027SOL    HW237921   4.438  12.155   7.595
12028SOL     OW37922   6.134   2.181   2.346
12028SOL    HW137923   6.059   2.208   2.399
12028SOL    HW237924   6.183   2.262   2.331
12029SOL     OW37925   5.448   0.902   4.868
12029SOL    HW137926   5.417   0.887   4.779
12029SOL    HW237927   5.432   0.995   4.884
12030SOL     OW37928   6.672   4.007   5.340
12030SOL    HW137929   6.757   4.031   5.377
12030SOL    HW237930   6.623   3.972   5.414
12031SOL     OW37931  10.721   2.317   4.299
12031SOL    HW137932  10.736   2.232   4.340
12031SOL    HW237933  10.786   2.375   4.339
12032SOL     OW37934  11.361  13.844  10.826
12032SOL    HW137935  11.351  13.873  10.735
12032SOL    HW237936  11.407  13.916  10.869
12033SOL     OW37937   5.761   7.867  14.513
12033SOL    HW137938   5.705   7.903  14.444
12033SOL    HW237939   5.774   7.939  14.574
12034SOL     OW37940  12.304  14.830   9.829
12034SOL    HW137941  12.368  14.764   9.855
12034SOL    HW237942  12.334  14.860   9.743
12035SOL     OW37943   9.042   5.235   7.530
12035SOL    HW137944   8.968   5.265   7.583
12035SOL    HW237945   9.091   5.314   7.508
12036SOL     OW37946   6.039   3.521   7.184
12036SOL    HW137947   6.115   3.570   7.213
12036SOL    HW237948   5.991   3.501   7.264
12037SOL     OW37949  12.187   8.550  14.167
12037SOL    HW137950  12.100   8.587  14.153
12037SOL    HW237951  12.239   8.621  14.203
12038SOL     OW37952  12.379   8.796   5.308
12038SOL    HW137953  12.338   8.779   5.392
12038SOL    HW237954  12.316   8.764   5.243
12039SOL     OW37955   3.726   3.121   3.268
12039SOL    HW137956   3.702   3.213   3.278
12039SOL    HW237957   3.756   3.114   3.177
12040SOL     OW37958  13.522  13.046  11.255
12040SOL    HW137959  13.453  12.980  11.250
12040SOL    HW237960  13.550  13.045  11.346
12041SOL     OW37961   7.395  13.558   7.364
12041SOL    HW137962   7.384  13.506   7.444
12041SOL    HW237963   7.485  13.542   7.337
12042SOL     OW37964   4.897  13.599   7.907
12042SOL    HW137965   4.824  13.603   7.969
12042SOL    HW237966   4.970  13.565   7.958
12043SOL     OW37967  10.137  11.562   4.931
12043SOL    HW137968  10.134  11.473   4.896
12043SOL    HW237969  10.202  11.607   4.878
12044SOL     OW37970  13.285   2.218  11.108
12044SOL    HW137971  13.376   2.244  11.091
12044SOL    HW237972  13.234   2.268  11.044
12045SOL     OW37973  12.288   9.793   7.566
12045SOL    HW137974  12.213   9.763   7.617
12045SOL    HW237975  12.358   9.731   7.588
12046SOL     OW37976   2.055   6.222  10.115
12046SOL    HW137977   2.027   6.173  10.192
12046SOL    HW237978   2.042   6.314  10.139
12047SOL     OW37979   3.520   4.086   6.004
12047SOL    HW137980   3.521   4.044   5.918
12047SOL    HW237981   3.441   4.141   6.003
12048SOL     OW37982   1.651  14.648  11.235
12048SOL    HW137983   1.654  14.596  11.155
12048SOL    HW237984   1.610  14.590  11.300
12049SOL     OW37985  13.436  12.780   0.416
12049SOL    HW137986  13.517  12.815   0.453
12049SOL    HW237987  13.437  12.687   0.439
12050SOL     OW37988  10.848   7.377  10.392
12050SOL    HW137989  10.796   7.312  10.438
12050SOL    HW237990  10.858   7.449  10.455
12051SOL     OW37991  13.500  14.121   8.479
12051SOL    HW137992  13.559  14.069   8.425
12051SOL    HW237993  13.422  14.133   8.426
12052SOL     OW37994   9.973   8.770   2.191
12052SOL    HW137995  10.040   8.834   2.215
12052SOL    HW237996   9.893   8.803   2.233
12053SOL     OW37997   3.079   0.207   6.349
12053SOL    HW137998   3.169   0.239   6.348
12053SOL    HW237999   3.065   0.173   6.260
12054SOL     OW38000   0.416   4.867   5.126
12054SOL    HW138001   0.508   4.842   5.124
12054SOL    HW238002   0.418   4.963   5.126
12055SOL     OW38003  11.060   9.709   6.370
12055SOL    HW138004  11.063   9.763   6.291
12055SOL    HW238005  11.149   9.714   6.406
12056SOL     OW38006  13.531   7.481   9.138
12056SOL    HW138007  13.594   7.537   9.092
12056SOL    HW238008  13.580   7.400   9.153
12057SOL     OW38009   3.413  13.224   7.103
12057SOL    HW138010   3.406  13.244   7.010
12057SOL    HW238011   3.344  13.278   7.144
12058SOL     OW38012   3.674   1.423  12.415
12058SOL    HW138013   3.711   1.361  12.478
12058SOL    HW238014   3.590   1.385  12.390
12059SOL     OW38015  14.025   3.777   2.731
12059SOL    HW138016  14.076   3.741   2.804
12059SOL    HW238017  14.090   3.822   2.677
12060SOL     OW38018   3.066   5.841  14.417
12060SOL    HW138019   3.060   5.856  14.511
12060SOL    HW238020   3.123   5.764  14.408
12061SOL     OW38021   2.045   9.997  14.353
12061SOL    HW138022   2.054   9.906  14.327
12061SOL    HW238023   1.991  10.037  14.285
12062SOL     OW38024  13.997   2.680   0.100
12062SOL    HW138025  14.026   2.628   0.025
12062SOL    HW238026  14.052   2.758   0.097
12063SOL     OW38027   3.698   4.165  12.467
12063SOL    HW138028   3.622   4.109  12.484
12063SOL    HW238029   3.688   4.237  12.529
12064SOL     OW38030  11.960   6.730   1.136
12064SOL    HW138031  11.873   6.701   1.109
12064SOL    HW238032  11.986   6.795   1.071
12065SOL     OW38033   6.830   1.064   9.373
12065SOL    HW138034   6.896   1.038   9.438
12065SOL    HW238035   6.747   1.063   9.421
12066SOL     OW38036  11.599   6.355   6.956
12066SOL    HW138037  11.640   6.432   6.917
12066SOL    HW238038  11.505   6.369   6.945
12067SOL     OW38039  11.847   7.995   6.882
12067SOL    HW138040  11.811   8.082   6.862
12067SOL    HW238041  11.940   8.010   6.894
12068SOL     OW38042   5.723  10.332   3.933
12068SOL    HW138043   5.781  10.360   3.863
12068SOL    HW238044   5.778  10.278   3.990
12069SOL     OW38045  12.773  11.245  10.717
12069SOL    HW138046  12.803  11.336  10.708
12069SOL    HW238047  12.681  11.248  10.688
12070SOL     OW38048  10.682   1.102  14.113
12070SOL    HW138049  10.604   1.156  14.131
12070SOL    HW238050  10.728   1.097  14.196
12071SOL     OW38051   7.058  12.115   8.731
12071SOL    HW138052   7.148  12.093   8.709
12071SOL    HW238053   7.010  12.107   8.649
12072SOL     OW38054   8.909   8.765   5.985
12072SOL    HW138055   8.815   8.761   5.967
12072SOL    HW238056   8.916   8.744   6.078
12073SOL     OW38057  14.312   9.656   0.626
12073SOL    HW138058  14.336   9.563   0.627
12073SOL    HW238059  14.275   9.669   0.539
12074SOL     OW38060   7.065   8.377   4.677
12074SOL    HW138061   7.104   8.456   4.714
12074SOL    HW238062   7.059   8.316   4.750
12075SOL     OW38063   4.464  11.517  13.874
12075SOL    HW138064   4.472  11.499  13.780
12075SOL    HW238065   4.546  11.484  13.911
12076SOL     OW38066  13.723  10.277   7.065
12076SOL    HW138067  13.637  10.260   7.024
12076SOL    HW238068  13.782  10.290   6.991
12077SOL     OW38069   1.712   7.941   7.463
12077SOL    HW138070   1.639   7.992   7.429
12077SOL    HW238071   1.772   7.932   7.389
12078SOL     OW38072   4.844  12.886  14.094
12078SOL    HW138073   4.844  12.980  14.111
12078SOL    HW238074   4.836  12.879  13.999
12079SOL     OW38075   8.403  10.558   6.654
12079SOL    HW138076   8.498  10.558   6.667
12079SOL    HW238077   8.369  10.511   6.730
12080SOL     OW38078   2.294   4.624  14.701
12080SOL    HW138079   2.388   4.635  14.713
12080SOL    HW238080   2.286   4.583  14.615
12081SOL     OW38081  13.099  10.534   8.296
12081SOL    HW138082  13.192  10.519   8.313
12081SOL    HW238083  13.057  10.450   8.316
12082SOL     OW38084   2.512  11.505  14.762
12082SOL    HW138085   2.595  11.551  14.766
12082SOL    HW238086   2.532  11.422  14.719
12083SOL     OW38087   9.764  12.255   1.422
12083SOL    HW138088   9.745  12.226   1.511
12083SOL    HW238089   9.835  12.318   1.432
12084SOL     OW38090   3.004   5.855   3.550
12084SOL    HW138091   3.034   5.824   3.635
12084SOL    HW238092   3.073   5.915   3.520
12085SOL     OW38093   6.722   1.622  11.745
12085SOL    HW138094   6.719   1.532  11.776
12085SOL    HW238095   6.744   1.674  11.823
12086SOL     OW38096   1.670  14.017   9.067
12086SOL    HW138097   1.600  13.997   9.004
12086SOL    HW238098   1.694  14.107   9.047
12087SOL     OW38099   0.065  10.975   9.789
12087SOL    HW138100   0.118  11.055   9.800
12087SOL    HW238101   0.051  10.969   9.695
12088SOL     OW38102  14.434   7.593   4.674
12088SOL    HW138103  14.377   7.526   4.636
12088SOL    HW238104  14.401   7.675   4.637
12089SOL     OW38105  10.795   4.979   3.137
12089SOL    HW138106  10.767   4.974   3.045
12089SOL    HW238107  10.891   4.974   3.133
12090SOL     OW38108   3.973   3.235   6.200
12090SOL    HW138109   3.906   3.303   6.207
12090SOL    HW238110   4.010   3.247   6.112
12091SOL     OW38111  13.498  14.455  13.264
12091SOL    HW138112  13.539  14.526  13.215
12091SOL    HW238113  13.571  14.400  13.292
12092SOL     OW38114  11.393   7.971   3.800
12092SOL    HW138115  11.409   7.998   3.890
12092SOL    HW238116  11.344   8.043   3.761
12093SOL     OW38117  10.535   4.857   8.674
12093SOL    HW138118  10.524   4.865   8.579
12093SOL    HW238119  10.575   4.940   8.700
12094SOL     OW38120   3.973   7.427   3.520
12094SOL    HW138121   3.930   7.347   3.549
12094SOL    HW238122   4.057   7.427   3.565
12095SOL     OW38123  14.433  14.144  12.023
12095SOL    HW138124  14.404  14.060  12.057
12095SOL    HW238125  14.407  14.144  11.931
12096SOL     OW38126  13.340   9.397   8.318
12096SOL    HW138127  13.366   9.478   8.362
12096SOL    HW238128  13.264   9.366   8.368
12097SOL     OW38129   5.842   1.424  13.977
12097SOL    HW138130   5.919   1.378  13.944
12097SOL    HW238131   5.877   1.501  14.022
12098SOL     OW38132  10.946   5.157  13.842
12098SOL    HW138133  10.863   5.177  13.798
12098SOL    HW238134  11.004   5.229  13.816
12099SOL     OW38135  14.563   7.302  11.212
12099SOL    HW138136  14.551   7.364  11.284
12099SOL    HW238137  14.548   7.216  11.252
12100SOL     OW38138   9.180   9.583   2.028
12100SOL    HW138139   9.197   9.496   2.064
12100SOL    HW238140   9.162   9.637   2.105
12101SOL     OW38141   1.765   8.633   7.663
12101SOL    HW138142   1.782   8.601   7.574
12101SOL    HW238143   1.681   8.680   7.656
12102SOL     OW38144   9.423  11.923   5.539
12102SOL    HW138145   9.469  11.991   5.588
12102SOL    HW238146   9.434  11.843   5.591
12103SOL     OW38147  12.899  11.767  14.803
12103SOL    HW138148  12.965  11.824  14.765
12103SOL    HW238149  12.948  11.691  14.835
12104SOL     OW38150  11.204   8.153  13.988
12104SOL    HW138151  11.267   8.092  13.949
12104SOL    HW238152  11.143   8.172  13.917
12105SOL     OW38153   1.966   5.812   0.420
12105SOL    HW138154   1.978   5.896   0.464
12105SOL    HW238155   1.932   5.754   0.489
12106SOL     OW38156   7.724   5.531   3.608
12106SOL    HW138157   7.660   5.595   3.580
12106SOL    HW238158   7.807   5.561   3.570
12107SOL     OW38159  11.438   8.090   2.852
12107SOL    HW138160  11.423   8.033   2.777
12107SOL    HW238161  11.521   8.133   2.832
12108SOL     OW38162   1.389   6.778   4.275
12108SOL    HW138163   1.322   6.817   4.331
12108SOL    HW238164   1.468   6.827   4.296
12109SOL     OW38165   7.708  13.771  11.525
12109SOL    HW138166   7.646  13.738  11.460
12109SOL    HW238167   7.653  13.814  11.591
12110SOL     OW38168  10.484  13.897   6.381
12110SOL    HW138169  10.427  13.820   6.381
12110SOL    HW238170  10.435  13.963   6.428
12111SOL     OW38171   7.436  10.266   8.846
12111SOL    HW138172   7.488  10.309   8.778
12111SOL    HW238173   7.457  10.312   8.927
12112SOL     OW38174   1.594  12.643  11.496
12112SOL    HW138175   1.575  12.630  11.589
12112SOL    HW238176   1.677  12.691  11.495
12113SOL     OW38177  12.101  14.509   3.134
12113SOL    HW138178  12.194  14.498   3.111
12113SOL    HW238179  12.055  14.500   3.051
12114SOL     OW38180   9.576   5.138   8.251
12114SOL    HW138181   9.514   5.140   8.323
12114SOL    HW238182   9.605   5.228   8.241
12115SOL     OW38183   5.349   5.238   8.926
12115SOL    HW138184   5.299   5.156   8.922
12115SOL    HW238185   5.325   5.276   9.011
12116SOL     OW38186  13.032   2.825   0.251
12116SOL    HW138187  13.076   2.748   0.217
12116SOL    HW238188  13.085   2.899   0.222
12117SOL     OW38189   5.568   1.137  13.504
12117SOL    HW138190   5.539   1.098  13.422
12117SOL    HW238191   5.621   1.070  13.546
12118SOL     OW38192   6.510   0.244  14.617
12118SOL    HW138193   6.584   0.184  14.625
12118SOL    HW238194   6.531   0.299  14.541
12119SOL     OW38195  14.591  10.276   6.484
12119SOL    HW138196  14.677  10.236   6.493
12119SOL    HW238197  14.607  10.370   6.496
12120SOL     OW38198  10.374   9.040   1.286
12120SOL    HW138199  10.441   9.089   1.334
12120SOL    HW238200  10.294   9.053   1.338
12121SOL     OW38201  14.082   9.254   3.681
12121SOL    HW138202  13.998   9.210   3.696
12121SOL    HW238203  14.062   9.325   3.620
12122SOL     OW38204   9.717  13.852   8.153
12122SOL    HW138205   9.756  13.821   8.071
12122SOL    HW238206   9.735  13.946   8.153
12123SOL     OW38207  10.343   4.082  12.067
12123SOL    HW138208  10.252   4.113  12.065
12123SOL    HW238209  10.349   4.019  11.995
12124SOL     OW38210   8.564  14.252   3.118
12124SOL    HW138211   8.607  14.336   3.138
12124SOL    HW238212   8.474  14.263   3.150
12125SOL     OW38213  11.849   6.013   1.390
12125SOL    HW138214  11.943   6.003   1.401
12125SOL    HW238215  11.831   6.104   1.416
12126SOL     OW38216  14.257   9.080   3.633
12126SOL    HW138217  14.195   9.147   3.661
12126SOL    HW238218  14.323   9.128   3.582
12127SOL     OW38219  11.544   2.947   8.442
12127SOL    HW138220  11.481   3.011   8.408
12127SOL    HW238221  11.629   2.983   8.419
12128SOL     OW38222   4.930   6.515   2.783
12128SOL    HW138223   4.945   6.421   2.796
12128SOL    HW238224   4.927   6.551   2.872
12129SOL     OW38225   5.997   2.448   9.030
12129SOL    HW138226   6.092   2.460   9.037
12129SOL    HW238227   5.982   2.360   9.065
12130SOL     OW38228   7.434   6.753   6.969
12130SOL    HW138229   7.465   6.750   7.060
12130SOL    HW238230   7.514   6.747   6.917
12131SOL     OW38231  10.266   7.948  10.035
12131SOL    HW138232  10.235   7.955   9.944
12131SOL    HW238233  10.360   7.962  10.029
12132SOL     OW38234   0.092  11.089   6.209
12132SOL    HW138235   0.129  11.104   6.122
12132SOL    HW238236   0.163  11.112   6.269
12133SOL     OW38237   7.429   6.389   3.724
12133SOL    HW138238   7.487   6.441   3.779
12133SOL    HW238239   7.397   6.319   3.781
12134SOL     OW38240   0.993   8.376  12.288
12134SOL    HW138241   1.019   8.356  12.378
12134SOL    HW238242   0.912   8.426  12.298
12135SOL     OW38243   5.577   9.128   5.860
12135SOL    HW138244   5.624   9.120   5.778
12135SOL    HW238245   5.606   9.212   5.896
12136SOL     OW38246   2.926   1.447   5.528
12136SOL    HW138247   2.946   1.370   5.474
12136SOL    HW238248   3.011   1.473   5.563
12137SOL     OW38249   1.499   2.707  10.463
12137SOL    HW138250   1.435   2.729  10.531
12137SOL    HW238251   1.490   2.613  10.452
12138SOL     OW38252   9.213   8.008   0.083
12138SOL    HW138253   9.273   7.960   0.139
12138SOL    HW238254   9.269   8.062   0.028
12139SOL     OW38255  10.133   6.912   1.892
12139SOL    HW138256  10.173   6.856   1.958
12139SOL    HW238257  10.104   6.852   1.824
12140SOL     OW38258   9.299   9.257   5.868
12140SOL    HW138259   9.356   9.334   5.869
12140SOL    HW238260   9.303   9.223   5.957
12141SOL     OW38261  11.768   0.655  13.391
12141SOL    HW138262  11.741   0.680  13.479
12141SOL    HW238263  11.704   0.698  13.334
12142SOL     OW38264   4.536   6.882   9.523
12142SOL    HW138265   4.545   6.951   9.457
12142SOL    HW238266   4.548   6.927   9.607
12143SOL     OW38267  13.525   8.066   7.957
12143SOL    HW138268  13.451   8.047   7.899
12143SOL    HW238269  13.534   8.162   7.953
12144SOL     OW38270  12.485   3.558  10.598
12144SOL    HW138271  12.424   3.527  10.532
12144SOL    HW238272  12.482   3.654  10.590
12145SOL     OW38273  10.693   3.246   9.307
12145SOL    HW138274  10.758   3.279   9.369
12145SOL    HW238275  10.737   3.174   9.262
12146SOL     OW38276   1.173   3.262   6.595
12146SOL    HW138277   1.187   3.250   6.689
12146SOL    HW238278   1.255   3.233   6.555
12147SOL     OW38279   6.222   2.810   4.292
12147SOL    HW138280   6.297   2.774   4.339
12147SOL    HW238281   6.149   2.754   4.318
12148SOL     OW38282   0.432   2.913   0.305
12148SOL    HW138283   0.364   2.913   0.237
12148SOL    HW238284   0.385   2.892   0.385
12149SOL     OW38285   2.795  10.808  11.614
12149SOL    HW138286   2.762  10.806  11.524
12149SOL    HW238287   2.794  10.900  11.639
12150SOL     OW38288  10.551  13.668  13.658
12150SOL    HW138289  10.554  13.738  13.723
12150SOL    HW238290  10.556  13.587  13.708
12151SOL     OW38291   6.719  10.005   8.183
12151SOL    HW138292   6.756  10.035   8.100
12151SOL    HW238293   6.770   9.927   8.205
12152SOL     OW38294   6.935  11.130   9.566
12152SOL    HW138295   6.949  11.114   9.472
12152SOL    HW238296   6.859  11.188   9.569
12153SOL     OW38297   6.993   1.866  10.562
12153SOL    HW138298   6.934   1.842  10.491
12153SOL    HW238299   7.014   1.958  10.546
12154SOL     OW38300  12.566  13.880  14.837
12154SOL    HW138301  12.525  13.794  14.828
12154SOL    HW238302  12.492  13.941  14.846
12155SOL     OW38303   4.688  11.726   8.379
12155SOL    HW138304   4.651  11.639   8.366
12155SOL    HW238305   4.782  11.710   8.390
12156SOL     OW38306   9.240   3.505  10.851
12156SOL    HW138307   9.252   3.515  10.757
12156SOL    HW238308   9.267   3.415  10.870
12157SOL     OW38309  10.806   9.796   7.482
12157SOL    HW138310  10.749   9.850   7.536
12157SOL    HW238311  10.798   9.833   7.394
12158SOL     OW38312   6.989   8.869   2.236
12158SOL    HW138313   7.024   8.957   2.223
12158SOL    HW238314   6.944   8.849   2.153
12159SOL     OW38315  12.633   2.722  10.708
12159SOL    HW138316  12.728   2.724  10.718
12159SOL    HW238317  12.603   2.807  10.741
12160SOL     OW38318   2.758   6.146   4.484
12160SOL    HW138319   2.815   6.142   4.560
12160SOL    HW238320   2.809   6.106   4.414
12161SOL     OW38321  13.927   6.613  11.032
12161SOL    HW138322  13.967   6.552  11.093
12161SOL    HW238323  13.985   6.612  10.956
12162SOL     OW38324  14.631  10.549   1.769
12162SOL    HW138325  14.678  10.530   1.851
12162SOL    HW238326  14.696  10.533   1.700
12163SOL     OW38327   4.887   1.583   0.608
12163SOL    HW138328   4.800   1.622   0.611
12163SOL    HW238329   4.930   1.613   0.688
12164SOL     OW38330   9.071   5.014  14.222
12164SOL    HW138331   8.986   4.970  14.226
12164SOL    HW238332   9.135   4.942  14.219
12165SOL     OW38333  12.138   2.610   6.461
12165SOL    HW138334  12.126   2.703   6.479
12165SOL    HW238335  12.184   2.577   6.539
12166SOL     OW38336   8.919   6.193   9.322
12166SOL    HW138337   8.846   6.136   9.348
12166SOL    HW238338   8.888   6.236   9.242
12167SOL     OW38339  12.579   6.801   4.017
12167SOL    HW138340  12.495   6.846   4.017
12167SOL    HW238341  12.590   6.770   4.107
12168SOL     OW38342   3.327   6.243   0.651
12168SOL    HW138343   3.262   6.299   0.608
12168SOL    HW238344   3.348   6.176   0.586
12169SOL     OW38345   2.870  13.262  11.125
12169SOL    HW138346   2.944  13.206  11.103
12169SOL    HW238347   2.812  13.206  11.177
12170SOL     OW38348  12.540   5.482  10.289
12170SOL    HW138349  12.589   5.545  10.342
12170SOL    HW238350  12.601   5.410  10.275
12171SOL     OW38351   1.747  11.112   7.743
12171SOL    HW138352   1.690  11.187   7.726
12171SOL    HW238353   1.717  11.045   7.681
12172SOL     OW38354   6.144   7.367  12.187
12172SOL    HW138355   6.216   7.430  12.181
12172SOL    HW238356   6.065   7.418  12.168
12173SOL     OW38357   9.316   7.991   7.461
12173SOL    HW138358   9.282   7.967   7.547
12173SOL    HW238359   9.410   8.005   7.474
12174SOL     OW38360  13.865   2.122   4.083
12174SOL    HW138361  13.851   2.099   4.175
12174SOL    HW238362  13.777   2.124   4.046
12175SOL     OW38363  10.806  10.578   7.801
12175SOL    HW138364  10.782  10.665   7.831
12175SOL    HW238365  10.832  10.591   7.709
12176SOL     OW38366   6.727  13.553   9.175
12176SOL    HW138367   6.761  13.597   9.253
12176SOL    HW238368   6.736  13.460   9.194
12177SOL     OW38369   8.330   1.162  12.447
12177SOL    HW138370   8.255   1.171  12.506
12177SOL    HW238371   8.406   1.164  12.505
12178SOL     OW38372  11.616  10.709  14.620
12178SOL    HW138373  11.619  10.642  14.552
12178SOL    HW238374  11.564  10.670  14.690
12179SOL     OW38375   9.053  14.127   7.660
12179SOL    HW138376   9.142  14.093   7.655
12179SOL    HW238377   8.999  14.059   7.620
12180SOL     OW38378  14.642  14.530   2.510
12180SOL    HW138379  14.664  14.437   2.505
12180SOL    HW238380  14.550  14.534   2.482
12181SOL     OW38381  12.488   0.186  10.785
12181SOL    HW138382  12.485   0.102  10.739
12181SOL    HW238383  12.397   0.206  10.805
12182SOL     OW38384   7.192  14.614   0.948
12182SOL    HW138385   7.194  14.710   0.946
12182SOL    HW238386   7.267  14.588   0.895
12183SOL     OW38387   5.398   8.777   1.899
12183SOL    HW138388   5.435   8.731   1.974
12183SOL    HW238389   5.396   8.869   1.925
12184SOL     OW38390   1.911  14.330  14.275
12184SOL    HW138391   1.848  14.259  14.262
12184SOL    HW238392   1.960  14.334  14.194
12185SOL     OW38393   7.480  12.014   9.175
12185SOL    HW138394   7.538  12.090   9.171
12185SOL    HW238395   7.393  12.051   9.186
12186SOL     OW38396   0.197   3.010   1.587
12186SOL    HW138397   0.230   3.023   1.676
12186SOL    HW238398   0.207   2.917   1.571
12187SOL     OW38399  14.416   4.143   0.513
12187SOL    HW138400  14.486   4.163   0.575
12187SOL    HW238401  14.336   4.151   0.565
12188SOL     OW38402   4.518  11.270   5.685
12188SOL    HW138403   4.529  11.261   5.780
12188SOL    HW238404   4.439  11.219   5.665
12189SOL     OW38405   3.415   9.594  14.816
12189SOL    HW138406   3.395   9.639   0.022
12189SOL    HW238407   3.456   9.662  14.762
12190SOL     OW38408   1.207   3.122  11.161
12190SOL    HW138409   1.153   3.051  11.126
12190SOL    HW238410   1.272   3.139  11.093
12191SOL     OW38411  11.347   8.861   4.341
12191SOL    HW138412  11.411   8.791   4.354
12191SOL    HW238413  11.268   8.828   4.384
12192SOL     OW38414  10.705  13.187   9.755
12192SOL    HW138415  10.761  13.228   9.821
12192SOL    HW238416  10.760  13.119   9.715
12193SOL     OW38417  13.361   4.602   6.695
12193SOL    HW138418  13.391   4.630   6.782
12193SOL    HW238419  13.306   4.673   6.664
12194SOL     OW38420   4.412  10.131   7.850
12194SOL    HW138421   4.487  10.179   7.885
12194SOL    HW238422   4.444  10.042   7.837
12195SOL     OW38423   2.734   1.357   0.891
12195SOL    HW138424   2.660   1.401   0.933
12195SOL    HW238425   2.809   1.380   0.945
12196SOL     OW38426   6.034   2.991  12.792
12196SOL    HW138427   5.959   3.038  12.757
12196SOL    HW238428   6.008   2.968  12.882
12197SOL     OW38429   8.774   4.488   9.428
12197SOL    HW138430   8.737   4.442   9.503
12197SOL    HW238431   8.839   4.548   9.466
12198SOL     OW38432   0.971   6.648  14.395
12198SOL    HW138433   1.049   6.685  14.353
12198SOL    HW238434   0.908   6.641  14.324
12199SOL     OW38435   1.495  13.839   9.917
12199SOL    HW138436   1.485  13.899   9.992
12199SOL    HW238437   1.414  13.789   9.915
12200SOL     OW38438   5.592   4.827  14.562
12200SOL    HW138439   5.673   4.822  14.612
12200SOL    HW238440   5.575   4.736  14.535
12201SOL     OW38441   1.177   1.341  14.066
12201SOL    HW138442   1.175   1.436  14.054
12201SOL    HW238443   1.088   1.319  14.095
12202SOL     OW38444   4.871   2.653  14.175
12202SOL    HW138445   4.775   2.645  14.177
12202SOL    HW238446   4.888   2.744  14.197
12203SOL     OW38447   5.923  12.134   5.003
12203SOL    HW138448   5.919  12.087   5.087
12203SOL    HW238449   5.879  12.076   4.941
12204SOL     OW38450   1.379   0.536   4.280
12204SOL    HW138451   1.335   0.476   4.220
12204SOL    HW238452   1.313   0.604   4.298
12205SOL     OW38453   4.125   6.949   6.494
12205SOL    HW138454   4.209   6.907   6.513
12205SOL    HW238455   4.147   7.039   6.471
12206SOL     OW38456   1.642   2.409  12.107
12206SOL    HW138457   1.600   2.494  12.106
12206SOL    HW238458   1.701   2.411  12.183
12207SOL     OW38459   8.552   4.198   0.628
12207SOL    HW138460   8.600   4.155   0.557
12207SOL    HW238461   8.461   4.170   0.616
12208SOL     OW38462   6.556  13.171   0.526
12208SOL    HW138463   6.501  13.164   0.604
12208SOL    HW238464   6.512  13.236   0.471
12209SOL     OW38465   9.803  13.951   2.950
12209SOL    HW138466   9.825  13.872   2.901
12209SOL    HW238467   9.879  13.968   3.006
12210SOL     OW38468   8.902   4.165   7.218
12210SOL    HW138469   8.908   4.100   7.148
12210SOL    HW238470   8.961   4.132   7.286
12211SOL     OW38471  14.283   3.791   7.228
12211SOL    HW138472  14.297   3.736   7.305
12211SOL    HW238473  14.216   3.745   7.177
12212SOL     OW38474   3.351  12.907  10.699
12212SOL    HW138475   3.272  12.909  10.645
12212SOL    HW238476   3.403  12.836  10.663
12213SOL     OW38477   1.981   8.483  14.493
12213SOL    HW138478   2.062   8.432  14.500
12213SOL    HW238479   1.919   8.421  14.454
12214SOL     OW38480   9.431  12.291  10.412
12214SOL    HW138481   9.472  12.206  10.394
12214SOL    HW238482   9.503  12.354  10.405
12215SOL     OW38483   9.248   8.786  13.738
12215SOL    HW138484   9.308   8.766  13.666
12215SOL    HW238485   9.247   8.881  13.743
12216SOL     OW38486  14.875  14.486   8.300
12216SOL    HW138487   0.060  14.416   8.276
12216SOL    HW238488  14.793  14.462   8.257
12217SOL     OW38489   6.467   5.656   9.590
12217SOL    HW138490   6.428   5.741   9.568
12217SOL    HW238491   6.540   5.678   9.647
12218SOL     OW38492   6.832   7.530   4.924
12218SOL    HW138493   6.744   7.502   4.897
12218SOL    HW238494   6.889   7.458   4.896
12219SOL     OW38495   4.030   1.005   4.012
12219SOL    HW138496   4.013   1.014   4.106
12219SOL    HW238497   4.023   1.094   3.978
12220SOL     OW38498  11.031  10.783   6.342
12220SOL    HW138499  11.055  10.752   6.255
12220SOL    HW238500  11.059  10.713   6.401
12221SOL     OW38501   4.582   4.024  12.697
12221SOL    HW138502   4.608   4.046  12.787
12221SOL    HW238503   4.637   4.079  12.642
12222SOL     OW38504   3.449   8.063  12.558
12222SOL    HW138505   3.389   8.123  12.515
12222SOL    HW238506   3.393   8.007  12.612
12223SOL     OW38507  13.091   2.481   7.102
12223SOL    HW138508  13.144   2.540   7.048
12223SOL    HW238509  13.152   2.412   7.129
12224SOL     OW38510  11.603   3.053   6.937
12224SOL    HW138511  11.646   2.997   7.001
12224SOL    HW238512  11.637   3.141   6.956
12225SOL     OW38513  10.775  13.939   1.710
12225SOL    HW138514  10.773  13.868   1.645
12225SOL    HW238515  10.694  13.927   1.760
12226SOL     OW38516   6.996   3.644  14.659
12226SOL    HW138517   6.988   3.736  14.684
12226SOL    HW238518   6.906   3.610  14.665
12227SOL     OW38519  12.254   1.827   1.528
12227SOL    HW138520  12.286   1.831   1.438
12227SOL    HW238521  12.226   1.916   1.547
12228SOL     OW38522   7.471   7.699  11.428
12228SOL    HW138523   7.536   7.656  11.372
12228SOL    HW238524   7.390   7.651  11.411
12229SOL     OW38525   9.131   4.613   0.396
12229SOL    HW138526   9.055   4.656   0.434
12229SOL    HW238527   9.104   4.522   0.384
12230SOL     OW38528   2.575   3.354  14.244
12230SOL    HW138529   2.561   3.278  14.302
12230SOL    HW238530   2.519   3.336  14.168
12231SOL     OW38531   5.812   6.873   5.263
12231SOL    HW138532   5.810   6.947   5.323
12231SOL    HW238533   5.840   6.910   5.179
12232SOL     OW38534   1.732  12.578   4.390
12232SOL    HW138535   1.715  12.555   4.299
12232SOL    HW238536   1.672  12.522   4.440
12233SOL     OW38537  11.399   9.541  14.117
12233SOL    HW138538  11.421   9.633  14.125
12233SOL    HW238539  11.472   9.495  14.158
12234SOL     OW38540   3.757  14.165   4.359
12234SOL    HW138541   3.697  14.109   4.310
12234SOL    HW238542   3.719  14.252   4.354
12235SOL     OW38543  13.076   8.283  14.562
12235SOL    HW138544  13.027   8.273  14.644
12235SOL    HW238545  13.164   8.309  14.590
12236SOL     OW38546   4.691  14.598   7.870
12236SOL    HW138547   4.612  14.550   7.844
12236SOL    HW238548   4.734  14.541   7.934
12237SOL     OW38549   2.411   5.133   6.558
12237SOL    HW138550   2.428   5.179   6.476
12237SOL    HW238551   2.316   5.138   6.568
12238SOL     OW38552  13.443   6.433   6.494
12238SOL    HW138553  13.470   6.493   6.563
12238SOL    HW238554  13.520   6.424   6.438
12239SOL     OW38555   5.846   8.067   7.770
12239SOL    HW138556   5.772   8.100   7.720
12239SOL    HW238557   5.810   8.044   7.856
12240SOL     OW38558   7.062   9.481   4.821
12240SOL    HW138559   6.990   9.540   4.844
12240SOL    HW238560   7.087   9.508   4.733
12241SOL     OW38561   8.070   8.365   6.766
12241SOL    HW138562   8.104   8.304   6.831
12241SOL    HW238563   8.068   8.315   6.685
12242SOL     OW38564  11.350  14.176   7.754
12242SOL    HW138565  11.324  14.132   7.673
12242SOL    HW238566  11.273  14.170   7.811
12243SOL     OW38567   3.654   5.243  12.442
12243SOL    HW138568   3.575   5.237  12.496
12243SOL    HW238569   3.694   5.326  12.466
12244SOL     OW38570   2.586   5.826  14.479
12244SOL    HW138571   2.497   5.810  14.447
12244SOL    HW238572   2.627   5.740  14.481
12245SOL     OW38573   4.093   1.944  14.732
12245SOL    HW138574   4.088   1.962  14.638
12245SOL    HW238575   4.005   1.965  14.765
12246SOL     OW38576   4.933   0.793  14.533
12246SOL    HW138577   4.920   0.796  14.628
12246SOL    HW238578   4.948   0.700  14.514
12247SOL     OW38579   7.131   7.501  12.670
12247SOL    HW138580   7.134   7.590  12.706
12247SOL    HW238581   7.220   7.467  12.682
12248SOL     OW38582  10.240   9.464   8.943
12248SOL    HW138583  10.200   9.380   8.920
12248SOL    HW238584  10.169   9.527   8.933
12249SOL     OW38585   5.410   3.386   9.207
12249SOL    HW138586   5.366   3.370   9.290
12249SOL    HW238587   5.368   3.465   9.172
12250SOL     OW38588   3.540  10.940   1.528
12250SOL    HW138589   3.462  10.987   1.558
12250SOL    HW238590   3.550  10.868   1.590
12251SOL     OW38591  13.564   3.286  10.963
12251SOL    HW138592  13.607   3.364  10.930
12251SOL    HW238593  13.506   3.258  10.892
12252SOL     OW38594   3.122   7.203   6.015
12252SOL    HW138595   3.106   7.208   5.921
12252SOL    HW238596   3.055   7.142   6.047
12253SOL     OW38597   6.394   8.835   6.174
12253SOL    HW138598   6.417   8.920   6.211
12253SOL    HW238599   6.477   8.789   6.165
12254SOL     OW38600   5.703   6.382   7.816
12254SOL    HW138601   5.724   6.456   7.759
12254SOL    HW238602   5.619   6.350   7.784
12255SOL     OW38603  10.986  13.802  11.157
12255SOL    HW138604  10.901  13.835  11.186
12255SOL    HW238605  10.967  13.714  11.125
12256SOL     OW38606   9.910   5.880  12.918
12256SOL    HW138607   9.935   5.964  12.957
12256SOL    HW238608   9.992   5.840  12.891
12257SOL     OW38609  14.265  14.596  10.920
12257SOL    HW138610  14.208  14.576  10.994
12257SOL    HW238611  14.311  14.676  10.946
12258SOL     OW38612   0.442  13.597  11.154
12258SOL    HW138613   0.375  13.625  11.093
12258SOL    HW238614   0.520  13.581  11.100
12259SOL     OW38615  14.199   2.044  11.094
12259SOL    HW138616  14.153   1.989  11.158
12259SOL    HW238617  14.174   2.008  11.009
12260SOL     OW38618   5.450   1.403   9.740
12260SOL    HW138619   5.364   1.439   9.718
12260SOL    HW238620   5.492   1.388   9.656
12261SOL     OW38621  11.211   1.119   0.430
12261SOL    HW138622  11.164   1.130   0.512
12261SOL    HW238623  11.297   1.158   0.446
12262SOL     OW38624   0.327  14.160   2.813
12262SOL    HW138625   0.346  14.191   2.902
12262SOL    HW238626   0.235  14.182   2.799
12263SOL     OW38627   4.896   3.952   3.601
12263SOL    HW138628   4.898   4.029   3.544
12263SOL    HW238629   4.835   3.892   3.558
12264SOL     OW38630  12.945   9.554   8.739
12264SOL    HW138631  12.936   9.614   8.813
12264SOL    HW238632  12.864   9.563   8.690
12265SOL     OW38633   1.524   1.657   7.200
12265SOL    HW138634   1.454   1.710   7.238
12265SOL    HW238635   1.550   1.704   7.121
12266SOL     OW38636   2.019   3.849   0.123
12266SOL    HW138637   2.059   3.808   0.200
12266SOL    HW238638   2.001   3.776   0.063
12267SOL     OW38639   8.813   8.930   3.016
12267SOL    HW138640   8.779   8.978   3.092
12267SOL    HW238641   8.761   8.963   2.942
12268SOL     OW38642  11.936  12.962   9.582
12268SOL    HW138643  11.856  12.969   9.634
12268SOL    HW238644  11.991  13.035   9.613
12269SOL     OW38645   6.147   5.254   6.524
12269SOL    HW138646   6.098   5.214   6.453
12269SOL    HW238647   6.152   5.347   6.501
12270SOL     OW38648   0.360  12.756   5.355
12270SOL    HW138649   0.292  12.789   5.414
12270SOL    HW238650   0.315  12.691   5.301
12271SOL     OW38651   6.570  12.184  11.215
12271SOL    HW138652   6.619  12.102  11.219
12271SOL    HW238653   6.550  12.204  11.306
12272SOL     OW38654   4.460   4.599   2.343
12272SOL    HW138655   4.517   4.621   2.417
12272SOL    HW238656   4.515   4.611   2.265
12273SOL     OW38657   6.827  11.922   0.763
12273SOL    HW138658   6.780  11.840   0.746
12273SOL    HW238659   6.802  11.980   0.692
12274SOL     OW38660   8.242   7.718  10.741
12274SOL    HW138661   8.201   7.726  10.655
12274SOL    HW238662   8.263   7.625  10.749
12275SOL     OW38663   3.028   3.217   1.818
12275SOL    HW138664   2.994   3.248   1.734
12275SOL    HW238665   2.985   3.132   1.831
12276SOL     OW38666   3.289  12.950   8.372
12276SOL    HW138667   3.283  12.942   8.467
12276SOL    HW238668   3.344  12.876   8.345
12277SOL     OW38669  10.814   1.246   0.550
12277SOL    HW138670  10.905   1.233   0.575
12277SOL    HW238671  10.764   1.219   0.627
12278SOL     OW38672   5.267  10.783  11.147
12278SOL    HW138673   5.334  10.724  11.180
12278SOL    HW238674   5.290  10.798  11.056
12279SOL     OW38675   6.618   3.806   6.717
12279SOL    HW138676   6.566   3.809   6.798
12279SOL    HW238677   6.573   3.741   6.662
12280SOL     OW38678   6.281  14.350  14.520
12280SOL    HW138679   6.367  14.309  14.522
12280SOL    HW238680   6.288  14.422  14.583
12281SOL     OW38681   5.826  13.376   7.170
12281SOL    HW138682   5.877  13.450   7.204
12281SOL    HW238683   5.749  13.417   7.130
12282SOL     OW38684   5.590   2.670   6.136
12282SOL    HW138685   5.616   2.736   6.201
12282SOL    HW238686   5.505   2.700   6.104
12283SOL     OW38687  11.431   5.386   2.972
12283SOL    HW138688  11.365   5.329   2.931
12283SOL    HW238689  11.504   5.387   2.909
12284SOL     OW38690   8.543   1.822  13.412
12284SOL    HW138691   8.609   1.855  13.351
12284SOL    HW238692   8.496   1.755  13.362
12285SOL     OW38693   0.292   8.962   0.167
12285SOL    HW138694   0.308   8.869   0.151
12285SOL    HW238695   0.285   8.969   0.263
12286SOL     OW38696   1.864   0.465   6.705
12286SOL    HW138697   1.787   0.519   6.724
12286SOL    HW238698   1.916   0.517   6.643
12287SOL     OW38699   9.027   8.772  12.507
12287SOL    HW138700   8.954   8.821  12.543
12287SOL    HW238701   9.044   8.813  12.422
12288SOL     OW38702   5.057  10.996   3.190
12288SOL    HW138703   5.040  10.936   3.118
12288SOL    HW238704   5.005  11.073   3.170
12289SOL     OW38705   3.974  11.160  11.892
12289SOL    HW138706   3.959  11.201  11.977
12289SOL    HW238707   4.028  11.223  11.844
12290SOL     OW38708   2.697   0.054   2.708
12290SOL    HW138709   2.644   0.122   2.751
12290SOL    HW238710   2.691   0.074   2.615
12291SOL     OW38711  12.589  11.916  10.790
12291SOL    HW138712  12.547  11.949  10.870
12291SOL    HW238713  12.575  11.986  10.726
12292SOL     OW38714  10.979   1.375   8.334
12292SOL    HW138715  10.999   1.298   8.282
12292SOL    HW238716  11.062   1.421   8.342
12293SOL     OW38717  10.828  11.847   8.470
12293SOL    HW138718  10.828  11.771   8.528
12293SOL    HW238719  10.735  11.869   8.459
12294SOL     OW38720   3.387   8.336   7.053
12294SOL    HW138721   3.441   8.414   7.063
12294SOL    HW238722   3.403   8.307   6.963
12295SOL     OW38723   7.278  10.240   6.351
12295SOL    HW138724   7.245  10.176   6.288
12295SOL    HW238725   7.367  10.211   6.371
12296SOL     OW38726   9.209   4.356  11.520
12296SOL    HW138727   9.156   4.434  11.501
12296SOL    HW238728   9.297   4.378  11.488
12297SOL     OW38729   7.605   7.794   4.996
12297SOL    HW138730   7.556   7.783   5.078
12297SOL    HW238731   7.582   7.882   4.967
12298SOL     OW38732  11.848  11.796   7.461
12298SOL    HW138733  11.757  11.820   7.476
12298SOL    HW238734  11.862  11.809   7.367
12299SOL     OW38735   7.160   2.609  10.849
12299SOL    HW138736   7.116   2.598  10.933
12299SOL    HW238737   7.090   2.605  10.784
12300SOL     OW38738   0.498   4.867  14.123
12300SOL    HW138739   0.522   4.899  14.210
12300SOL    HW238740   0.545   4.925  14.062
12301SOL     OW38741   9.036   2.280   8.783
12301SOL    HW138742   9.013   2.361   8.738
12301SOL    HW238743   8.957   2.258   8.834
12302SOL     OW38744   0.734   5.942  13.777
12302SOL    HW138745   0.755   5.869  13.719
12302SOL    HW238746   0.649   5.973  13.748
12303SOL     OW38747  12.423   2.875  12.851
12303SOL    HW138748  12.345   2.909  12.894
12303SOL    HW238749  12.395   2.854  12.763
12304SOL     OW38750   8.269   0.349   8.611
12304SOL    HW138751   8.278   0.265   8.658
12304SOL    HW238752   8.200   0.332   8.546
12305SOL     OW38753   0.440  11.139  10.905
12305SOL    HW138754   0.411  11.113  10.993
12305SOL    HW238755   0.479  11.060  10.868
12306SOL     OW38756   1.514  12.006  13.820
12306SOL    HW138757   1.561  11.927  13.795
12306SOL    HW238758   1.446  11.976  13.880
12307SOL     OW38759   2.909   9.224  12.302
12307SOL    HW138760   2.833   9.251  12.353
12307SOL    HW238761   2.936   9.303  12.255
12308SOL     OW38762  12.034   5.233  12.313
12308SOL    HW138763  11.948   5.233  12.355
12308SOL    HW238764  12.089   5.181  12.371
12309SOL     OW38765   0.534  11.261   2.156
12309SOL    HW138766   0.575  11.217   2.230
12309SOL    HW238767   0.462  11.311   2.194
12310SOL     OW38768  13.907   7.917   9.029
12310SOL    HW138769  13.910   7.898   8.935
12310SOL    HW238770  13.952   7.843   9.070
12311SOL     OW38771  11.842  12.805  11.650
12311SOL    HW138772  11.937  12.816  11.654
12311SOL    HW238773  11.829  12.723  11.603
12312SOL     OW38774  13.720  12.085   0.547
12312SOL    HW138775  13.727  12.031   0.625
12312SOL    HW238776  13.783  12.047   0.485
12313SOL     OW38777   7.554   8.522   1.747
12313SOL    HW138778   7.573   8.599   1.800
12313SOL    HW238779   7.503   8.465   1.804
12314SOL     OW38780   2.101   4.520  14.860
12314SOL    HW138781   2.166   4.556  14.799
12314SOL    HW238782   2.153   4.483   0.054
12315SOL     OW38783  12.828   9.204  10.801
12315SOL    HW138784  12.917   9.234  10.780
12315SOL    HW238785  12.794   9.168  10.720
12316SOL     OW38786  13.408  12.696   5.118
12316SOL    HW138787  13.379  12.606   5.133
12316SOL    HW238788  13.459  12.718   5.196
12317SOL     OW38789  12.341   2.573   7.129
12317SOL    HW138790  12.316   2.605   7.216
12317SOL    HW238791  12.267   2.519   7.102
12318SOL     OW38792   6.081  14.782   5.092
12318SOL    HW138793   6.045  14.865   5.125
12318SOL    HW238794   6.152  14.762   5.153
12319SOL     OW38795  11.961  12.176   3.027
12319SOL    HW138796  11.943  12.084   3.046
12319SOL    HW238797  11.884  12.223   3.059
12320SOL     OW38798  14.323  14.672  13.253
12320SOL    HW138799  14.294  14.623  13.175
12320SOL    HW238800  14.253  14.657  13.317
12321SOL     OW38801  14.605   6.486  10.972
12321SOL    HW138802  14.617   6.579  10.956
12321SOL    HW238803  14.583   6.449  10.887
12322SOL     OW38804   8.688  10.151   2.676
12322SOL    HW138805   8.723  10.124   2.591
12322SOL    HW238806   8.713  10.080   2.735
12323SOL     OW38807  10.887   5.028  13.305
12323SOL    HW138808  10.918   5.078  13.229
12323SOL    HW238809  10.869   4.941  13.271
12324SOL     OW38810   7.404   0.908  14.147
12324SOL    HW138811   7.367   0.904  14.059
12324SOL    HW238812   7.352   0.845  14.197
12325SOL     OW38813   2.014  12.580   6.948
12325SOL    HW138814   2.047  12.554   6.862
12325SOL    HW238815   2.076  12.645   6.980
12326SOL     OW38816   3.102   9.408  14.628
12326SOL    HW138817   3.030   9.376  14.574
12326SOL    HW238818   3.060   9.442  14.707
12327SOL     OW38819   4.821  14.850  13.474
12327SOL    HW138820   4.857   0.019  13.398
12327SOL    HW238821   4.773  14.776  13.438
12328SOL     OW38822   5.500   2.111  14.137
12328SOL    HW138823   5.520   2.052  14.065
12328SOL    HW238824   5.584   2.148  14.163
12329SOL     OW38825   1.670   5.658   5.877
12329SOL    HW138826   1.672   5.637   5.783
12329SOL    HW238827   1.578   5.650   5.902
12330SOL     OW38828   8.640   1.420   6.485
12330SOL    HW138829   8.640   1.486   6.415
12330SOL    HW238830   8.607   1.341   6.444
12331SOL     OW38831  10.548  14.353   3.924
12331SOL    HW138832  10.623  14.355   3.864
12331SOL    HW238833  10.512  14.441   3.919
12332SOL     OW38834   2.736  11.111   0.926
12332SOL    HW138835   2.715  11.040   0.865
12332SOL    HW238836   2.665  11.174   0.914
12333SOL     OW38837   2.841   5.755   0.773
12333SOL    HW138838   2.788   5.806   0.712
12333SOL    HW238839   2.932   5.775   0.748
12334SOL     OW38840   5.435  13.482   2.107
12334SOL    HW138841   5.406  13.468   2.017
12334SOL    HW238842   5.511  13.424   2.117
12335SOL     OW38843   5.959  10.956  13.032
12335SOL    HW138844   6.023  10.942  12.963
12335SOL    HW238845   6.009  10.951  13.113
12336SOL     OW38846  12.520  13.308  12.423
12336SOL    HW138847  12.608  13.327  12.388
12336SOL    HW238848  12.473  13.269  12.349
12337SOL     OW38849  10.614  11.705  11.688
12337SOL    HW138850  10.597  11.688  11.596
12337SOL    HW238851  10.647  11.795  11.691
12338SOL     OW38852   8.342   1.364  13.542
12338SOL    HW138853   8.406   1.329  13.480
12338SOL    HW238854   8.263   1.312  13.526
12339SOL     OW38855  14.479   2.252   0.272
12339SOL    HW138856  14.458   2.223   0.361
12339SOL    HW238857  14.575   2.252   0.269
12340SOL     OW38858   7.186   2.807  11.996
12340SOL    HW138859   7.150   2.805  12.085
12340SOL    HW238860   7.197   2.900  11.976
12341SOL     OW38861   3.549  12.581  14.050
12341SOL    HW138862   3.481  12.542  14.106
12341SOL    HW238863   3.621  12.518  14.052
12342SOL     OW38864   9.756   2.848   8.566
12342SOL    HW138865   9.755   2.820   8.657
12342SOL    HW238866   9.678   2.809   8.527
12343SOL     OW38867   2.854   3.306   6.296
12343SOL    HW138868   2.813   3.255   6.366
12343SOL    HW238869   2.909   3.369   6.342
12344SOL     OW38870  14.444   4.958   3.065
12344SOL    HW138871  14.523   4.951   3.010
12344SOL    HW238872  14.463   4.900   3.139
12345SOL     OW38873  11.316  13.815   9.806
12345SOL    HW138874  11.268  13.738   9.775
12345SOL    HW238875  11.391  13.821   9.746
12346SOL     OW38876   4.364   4.348   3.886
12346SOL    HW138877   4.404   4.378   3.805
12346SOL    HW238878   4.378   4.253   3.886
12347SOL     OW38879  12.490   3.500   1.737
12347SOL    HW138880  12.580   3.471   1.749
12347SOL    HW238881  12.492   3.550   1.655
12348SOL     OW38882   9.912   1.632  13.058
12348SOL    HW138883   9.917   1.564  13.125
12348SOL    HW238884   9.999   1.634  13.020
12349SOL     OW38885   8.571  12.546   4.055
12349SOL    HW138886   8.531  12.460   4.041
12349SOL    HW238887   8.511  12.592   4.113
12350SOL     OW38888  10.340  12.633   2.229
12350SOL    HW138889  10.421  12.652   2.181
12350SOL    HW238890  10.359  12.550   2.273
12351SOL     OW38891  12.702  10.917   3.007
12351SOL    HW138892  12.717  10.848   3.071
12351SOL    HW238893  12.733  10.997   3.050
12352SOL     OW38894   2.640   2.430  11.895
12352SOL    HW138895   2.687   2.347  11.884
12352SOL    HW238896   2.702   2.496  11.865
12353SOL     OW38897  10.623   8.363   7.890
12353SOL    HW138898  10.600   8.357   7.983
12353SOL    HW238899  10.550   8.321   7.845
12354SOL     OW38900   3.752   8.943   2.811
12354SOL    HW138901   3.658   8.933   2.797
12354SOL    HW238902   3.792   8.899   2.735
12355SOL     OW38903   7.529  13.093   4.894
12355SOL    HW138904   7.583  13.049   4.828
12355SOL    HW238905   7.480  13.022   4.935
12356SOL     OW38906   4.207   9.402   1.119
12356SOL    HW138907   4.301   9.421   1.117
12356SOL    HW238908   4.186   9.374   1.029
12357SOL     OW38909  12.034  12.713   4.385
12357SOL    HW138910  12.007  12.789   4.437
12357SOL    HW238911  12.127  12.727   4.367
12358SOL     OW38912  10.017   2.708   4.551
12358SOL    HW138913  10.105   2.726   4.584
12358SOL    HW238914  10.020   2.616   4.522
12359SOL     OW38915   5.273   5.752  12.325
12359SOL    HW138916   5.309   5.790  12.245
12359SOL    HW238917   5.178   5.764  12.316
12360SOL     OW38918   9.868  14.038   4.998
12360SOL    HW138919   9.896  14.077   5.081
12360SOL    HW238920   9.854  14.113   4.940
12361SOL     OW38921   5.545   5.924   5.087
12361SOL    HW138922   5.582   5.836   5.101
12361SOL    HW238923   5.455   5.918   5.118
12362SOL     OW38924   7.300   2.122  14.776
12362SOL    HW138925   7.206   2.105  14.767
12362SOL    HW238926   7.323   2.087  14.862
12363SOL     OW38927  14.800   6.727   3.012
12363SOL    HW138928  14.742   6.795   3.045
12363SOL    HW238929  14.869   6.720   3.078
12364SOL     OW38930  10.460   9.703  14.728
12364SOL    HW138931  10.512   9.684  14.806
12364SOL    HW238932  10.445   9.618  14.688
12365SOL     OW38933  11.135   1.438   4.767
12365SOL    HW138934  11.076   1.437   4.843
12365SOL    HW238935  11.146   1.531   4.747
12366SOL     OW38936  12.266  10.951  14.660
12366SOL    HW138937  12.354  10.984  14.645
12366SOL    HW238938  12.272  10.858  14.639
12367SOL     OW38939   9.643   1.999   8.951
12367SOL    HW138940   9.707   1.937   8.986
12367SOL    HW238941   9.671   2.084   8.984
12368SOL     OW38942   1.699   5.913  14.717
12368SOL    HW138943   1.614   5.904  14.759
12368SOL    HW238944   1.762   5.892  14.786
12369SOL     OW38945   4.873   0.484  14.581
12369SOL    HW138946   4.900   0.427  14.653
12369SOL    HW238947   4.780   0.466  14.570
12370SOL     OW38948   2.100  14.453   2.529
12370SOL    HW138949   2.110  14.492   2.616
12370SOL    HW238950   2.122  14.524   2.468
12371SOL     OW38951   0.549  14.730  13.691
12371SOL    HW138952   0.548  14.735  13.787
12371SOL    HW238953   0.595  14.809  13.663
12372SOL     OW38954   8.393   4.027  13.178
12372SOL    HW138955   8.457   3.965  13.143
12372SOL    HW238956   8.372   3.993  13.265
12373SOL     OW38957  14.423  13.636   8.201
12373SOL    HW138958  14.454  13.579   8.131
12373SOL    HW238959  14.412  13.722   8.159
12374SOL     OW38960   6.555  13.662   5.229
12374SOL    HW138961   6.542  13.648   5.136
12374SOL    HW238962   6.646  13.636   5.245
12375SOL     OW38963   7.066   0.664   4.579
12375SOL    HW138964   7.038   0.596   4.641
12375SOL    HW238965   7.143   0.703   4.620
12376SOL     OW38966   6.948   5.780   6.235
12376SOL    HW138967   6.886   5.759   6.166
12376SOL    HW238968   6.998   5.699   6.248
12377SOL     OW38969   7.847   9.515   9.096
12377SOL    HW138970   7.776   9.555   9.147
12377SOL    HW238971   7.927   9.537   9.144
12378SOL     OW38972  11.391  14.524  12.575
12378SOL    HW138973  11.432  14.498  12.493
12378SOL    HW238974  11.369  14.441  12.617
12379SOL     OW38975  11.623   9.724  10.128
12379SOL    HW138976  11.701   9.680  10.093
12379SOL    HW238977  11.653   9.813  10.146
12380SOL     OW38978  11.218   5.477  10.672
12380SOL    HW138979  11.157   5.435  10.733
12380SOL    HW238980  11.206   5.571  10.688
12381SOL     OW38981   6.126  14.775   3.182
12381SOL    HW138982   6.080  14.776   3.266
12381SOL    HW238983   6.173  14.691   3.181
12382SOL     OW38984  13.796   4.447   6.564
12382SOL    HW138985  13.711   4.433   6.606
12382SOL    HW238986  13.860   4.433   6.633
12383SOL     OW38987  10.594  12.650   2.085
12383SOL    HW138988  10.665  12.712   2.098
12383SOL    HW238989  10.621  12.599   2.008
12384SOL     OW38990   1.718   2.539   7.220
12384SOL    HW138991   1.759   2.602   7.161
12384SOL    HW238992   1.764   2.550   7.303
12385SOL     OW38993   0.480   9.909   2.684
12385SOL    HW138994   0.434   9.882   2.763
12385SOL    HW238995   0.545   9.972   2.713
12386SOL     OW38996   1.056   8.634   3.626
12386SOL    HW138997   1.043   8.631   3.532
12386SOL    HW238998   1.022   8.550   3.658
12387SOL     OW38999  11.091   4.949   0.803
12387SOL    HW139000  11.001   4.954   0.770
12387SOL    HW239001  11.146   4.948   0.724
12388SOL     OW39002   6.160  10.553  14.072
12388SOL    HW139003   6.078  10.504  14.070
12388SOL    HW239004   6.178  10.574  13.980
12389SOL     OW39005   4.646   5.362   2.717
12389SOL    HW139006   4.705   5.287   2.725
12389SOL    HW239007   4.561   5.323   2.698
12390SOL     OW39008   7.751   6.934  13.671
12390SOL    HW139009   7.804   6.959  13.595
12390SOL    HW239010   7.662   6.927  13.637
12391SOL     OW39011   9.939   9.209  14.609
12391SOL    HW139012   9.954   9.140  14.545
12391SOL    HW239013   9.848   9.197  14.637
12392SOL     OW39014   1.766   5.440   3.649
12392SOL    HW139015   1.764   5.351   3.615
12392SOL    HW239016   1.682   5.452   3.692
12393SOL     OW39017  14.157   3.888  10.802
12393SOL    HW139018  14.160   3.905  10.896
12393SOL    HW239019  14.184   3.970  10.762
12394SOL     OW39020  12.075   2.119   8.958
12394SOL    HW139021  12.160   2.076   8.952
12394SOL    HW239022  12.088   2.206   8.922
12395SOL     OW39023  13.776  10.338   6.606
12395SOL    HW139024  13.861  10.347   6.563
12395SOL    HW239025  13.786  10.386   6.688
12396SOL     OW39026   4.859  11.237   8.669
12396SOL    HW139027   4.883  11.152   8.705
12396SOL    HW239028   4.779  11.261   8.716
12397SOL     OW39029  14.396   8.013   1.189
12397SOL    HW139030  14.352   7.930   1.167
12397SOL    HW239031  14.333   8.081   1.164
12398SOL     OW39032   4.083   4.105   8.892
12398SOL    HW139033   4.127   4.188   8.909
12398SOL    HW239034   4.035   4.119   8.811
12399SOL     OW39035   2.072   4.316  13.501
12399SOL    HW139036   2.097   4.320  13.594
12399SOL    HW239037   1.978   4.333  13.501
12400SOL     OW39038  14.244  14.694   0.196
12400SOL    HW139039  14.224  14.781   0.231
12400SOL    HW239040  14.199  14.634   0.254
12401SOL     OW39041   7.885   5.475   7.873
12401SOL    HW139042   7.844   5.529   7.806
12401SOL    HW239043   7.851   5.508   7.956
12402SOL     OW39044   5.239   5.914   0.259
12402SOL    HW139045   5.164   5.881   0.209
12402SOL    HW239046   5.241   6.008   0.241
12403SOL     OW39047   5.973   5.006   3.521
12403SOL    HW139048   5.956   5.011   3.616
12403SOL    HW239049   6.027   4.928   3.511
12404SOL     OW39050   4.065   0.455  11.824
12404SOL    HW139051   4.082   0.361  11.838
12404SOL    HW239052   4.124   0.480  11.753
12405SOL     OW39053   1.236   9.348   1.185
12405SOL    HW139054   1.285   9.282   1.136
12405SOL    HW239055   1.144   9.328   1.168
12406SOL     OW39056   6.481  12.814   8.065
12406SOL    HW139057   6.446  12.729   8.042
12406SOL    HW239058   6.463  12.869   7.988
12407SOL     OW39059  13.331   3.137   8.714
12407SOL    HW139060  13.367   3.225   8.724
12407SOL    HW239061  13.388   3.095   8.651
12408SOL     OW39062  11.751   6.236   5.634
12408SOL    HW139063  11.819   6.257   5.570
12408SOL    HW239064  11.795   6.177   5.696
12409SOL     OW39065   0.583   4.929  13.107
12409SOL    HW139066   0.677   4.942  13.090
12409SOL    HW239067   0.544   4.928  13.020
12410SOL     OW39068   8.350   2.685  12.831
12410SOL    HW139069   8.390   2.666  12.746
12410SOL    HW239070   8.424   2.688  12.892
12411SOL     OW39071   7.000   1.648  14.120
12411SOL    HW139072   6.971   1.572  14.069
12411SOL    HW239073   6.940   1.651  14.195
12412SOL     OW39074   4.172  10.080   2.779
12412SOL    HW139075   4.143  10.149   2.839
12412SOL    HW239076   4.190  10.125   2.697
12413SOL     OW39077   7.559  13.264  13.628
12413SOL    HW139078   7.485  13.205  13.615
12413SOL    HW239079   7.596  13.275  13.541
12414SOL     OW39080   8.839   1.685  11.935
12414SOL    HW139081   8.871   1.765  11.976
12414SOL    HW239082   8.918   1.631  11.925
12415SOL     OW39083   9.560   1.235   4.571
12415SOL    HW139084   9.547   1.143   4.548
12415SOL    HW239085   9.653   1.242   4.591
12416SOL     OW39086   6.824   5.908  13.075
12416SOL    HW139087   6.880   5.892  13.151
12416SOL    HW239088   6.757   5.969  13.107
12417SOL     OW39089   4.765   5.270   8.232
12417SOL    HW139090   4.769   5.237   8.321
12417SOL    HW239091   4.786   5.363   8.240
12418SOL     OW39092  12.948   5.405   4.336
12418SOL    HW139093  12.938   5.318   4.298
12418SOL    HW239094  13.028   5.398   4.389
12419SOL     OW39095   6.748   1.110  11.222
12419SOL    HW139096   6.704   1.187  11.186
12419SOL    HW239097   6.723   1.109  11.315
12420SOL     OW39098   4.890   7.048   5.706
12420SOL    HW139099   4.887   7.029   5.613
12420SOL    HW239100   4.807   7.014   5.740
12421SOL     OW39101  13.561   4.157  12.437
12421SOL    HW139102  13.475   4.191  12.413
12421SOL    HW239103  13.567   4.173  12.532
12422SOL     OW39104  12.090  12.270  12.312
12422SOL    HW139105  12.065  12.188  12.270
12422SOL    HW239106  12.013  12.327  12.302
12423SOL     OW39107  10.120   8.416   2.473
12423SOL    HW139108  10.049   8.388   2.530
12423SOL    HW239109  10.171   8.476   2.527
12424SOL     OW39110   3.944   3.853   5.793
12424SOL    HW139111   4.009   3.895   5.849
12424SOL    HW239112   3.890   3.925   5.761
12425SOL     OW39113  11.613   4.082   6.754
12425SOL    HW139114  11.605   4.085   6.849
12425SOL    HW239115  11.566   4.159   6.723
12426SOL     OW39116   3.698   8.906   5.384
12426SOL    HW139117   3.754   8.938   5.313
12426SOL    HW239118   3.664   8.986   5.424
12427SOL     OW39119  10.032  13.893  11.715
12427SOL    HW139120  10.022  13.988  11.715
12427SOL    HW239121  10.126  13.879  11.707
12428SOL     OW39122   4.713   4.423   2.359
12428SOL    HW139123   4.777   4.351   2.358
12428SOL    HW239124   4.689   4.434   2.267
12429SOL     OW39125  13.445   1.906   4.490
12429SOL    HW139126  13.486   1.875   4.409
12429SOL    HW239127  13.446   2.002   4.483
12430SOL     OW39128  13.939  12.112  14.340
12430SOL    HW139129  13.862  12.060  14.365
12430SOL    HW239130  13.976  12.140  14.424
12431SOL     OW39131   5.766   9.200  13.775
12431SOL    HW139132   5.843   9.165  13.729
12431SOL    HW239133   5.764   9.293  13.752
12432SOL     OW39134   4.224   3.894   8.769
12432SOL    HW139135   4.301   3.948   8.752
12432SOL    HW239136   4.163   3.952   8.813
12433SOL     OW39137   3.084   7.779   4.891
12433SOL    HW139138   3.095   7.749   4.801
12433SOL    HW239139   3.122   7.709   4.944
12434SOL     OW39140  14.656   7.746  10.086
12434SOL    HW139141  14.618   7.684  10.024
12434SOL    HW239142  14.692   7.691  10.156
12435SOL     OW39143   2.351  11.777  12.881
12435SOL    HW139144   2.387  11.768  12.793
12435SOL    HW239145   2.420  11.745  12.938
12436SOL     OW39146   6.081  11.379   1.027
12436SOL    HW139147   6.166  11.365   0.986
12436SOL    HW239148   6.101  11.430   1.106
12437SOL     OW39149   9.401  14.139   9.949
12437SOL    HW139150   9.404  14.048   9.917
12437SOL    HW239151   9.492  14.161   9.966
12438SOL     OW39152   4.152  14.339   3.752
12438SOL    HW139153   4.191  14.336   3.840
12438SOL    HW239154   4.095  14.416   3.753
12439SOL     OW39155   9.658  13.594   7.003
12439SOL    HW139156   9.582  13.635   7.044
12439SOL    HW239157   9.680  13.522   7.062
12440SOL     OW39158  14.040   2.299   1.781
12440SOL    HW139159  14.024   2.204   1.778
12440SOL    HW239160  14.135   2.307   1.773
12441SOL     OW39161  14.428  10.932  11.400
12441SOL    HW139162  14.476  10.852  11.380
12441SOL    HW239163  14.410  10.926  11.494
12442SOL     OW39164   6.524   1.371   6.605
12442SOL    HW139165   6.454   1.433   6.581
12442SOL    HW239166   6.499   1.290   6.561
12443SOL     OW39167  13.903  12.580  12.955
12443SOL    HW139168  13.906  12.517  12.883
12443SOL    HW239169  13.953  12.655  12.922
12444SOL     OW39170  13.744   9.131   5.869
12444SOL    HW139171  13.807   9.127   5.941
12444SOL    HW239172  13.777   9.200   5.811
12445SOL     OW39173   1.676   0.240   2.429
12445SOL    HW139174   1.750   0.185   2.402
12445SOL    HW239175   1.655   0.211   2.518
12446SOL     OW39176  11.187  14.207  10.298
12446SOL    HW139177  11.158  14.296  10.277
12446SOL    HW239178  11.199  14.208  10.393
12447SOL     OW39179  11.485   0.959   8.187
12447SOL    HW139180  11.564   0.907   8.178
12447SOL    HW239181  11.483   1.015   8.110
12448SOL     OW39182   3.344  14.590   8.280
12448SOL    HW139183   3.424  14.582   8.227
12448SOL    HW239184   3.292  14.513   8.256
12449SOL     OW39185   9.026  10.450   1.738
12449SOL    HW139186   8.998  10.449   1.830
12449SOL    HW239187   8.944  10.441   1.689
12450SOL     OW39188  13.056   1.877  14.312
12450SOL    HW139189  13.121   1.932  14.269
12450SOL    HW239190  13.082   1.875  14.404
12451SOL     OW39191   9.283   4.155   3.610
12451SOL    HW139192   9.301   4.242   3.646
12451SOL    HW239193   9.196   4.133   3.642
12452SOL     OW39194   4.325  14.520  11.801
12452SOL    HW139195   4.302  14.519  11.708
12452SOL    HW239196   4.338  14.428  11.824
12453SOL     OW39197   5.931   6.341  12.187
12453SOL    HW139198   5.871   6.305  12.121
12453SOL    HW239199   6.017   6.307  12.163
12454SOL     OW39200   1.261   2.381   9.418
12454SOL    HW139201   1.253   2.288   9.395
12454SOL    HW239202   1.312   2.381   9.499
12455SOL     OW39203   5.564   2.663  14.837
12455SOL    HW139204   5.657   2.644  14.828
12455SOL    HW239205   5.521   2.581  14.811
12456SOL     OW39206  13.805   9.786   3.373
12456SOL    HW139207  13.773   9.726   3.305
12456SOL    HW239208  13.898   9.798   3.352
12457SOL     OW39209   2.014   8.749   4.041
12457SOL    HW139210   1.943   8.705   4.089
12457SOL    HW239211   2.087   8.752   4.103
12458SOL     OW39212   0.515  11.379   6.147
12458SOL    HW139213   0.540  11.288   6.162
12458SOL    HW239214   0.510  11.418   6.235
12459SOL     OW39215   7.111   0.042  14.556
12459SOL    HW139216   7.110  14.834  14.602
12459SOL    HW239217   7.109   0.108  14.627
12460SOL     OW39218   1.490   4.347  10.421
12460SOL    HW139219   1.567   4.307  10.464
12460SOL    HW239220   1.419   4.334  10.483
12461SOL     OW39221   5.121   3.087   7.056
12461SOL    HW139222   5.204   3.054   7.089
12461SOL    HW239223   5.071   3.111   7.134
12462SOL     OW39224   1.001   4.689   1.522
12462SOL    HW139225   1.090   4.714   1.549
12462SOL    HW239226   1.015   4.631   1.447
12463SOL     OW39227  12.005   2.157   8.278
12463SOL    HW139228  11.996   2.224   8.211
12463SOL    HW239229  12.091   2.117   8.260
12464SOL     OW39230   3.893   7.466   1.301
12464SOL    HW139231   3.954   7.420   1.243
12464SOL    HW239232   3.942   7.477   1.382
12465SOL     OW39233   7.376   9.903   0.460
12465SOL    HW139234   7.350   9.983   0.415
12465SOL    HW239235   7.304   9.886   0.522
12466SOL     OW39236   2.391  11.217   3.536
12466SOL    HW139237   2.455  11.264   3.590
12466SOL    HW239238   2.359  11.146   3.592
12467SOL     OW39239   8.262   8.368   1.218
12467SOL    HW139240   8.262   8.327   1.132
12467SOL    HW239241   8.223   8.303   1.276
12468SOL     OW39242   3.993  11.896   9.636
12468SOL    HW139243   3.940  11.839   9.581
12468SOL    HW239244   3.956  11.984   9.623
12469SOL     OW39245   4.248   3.187  14.032
12469SOL    HW139246   4.186   3.258  14.047
12469SOL    HW239247   4.291   3.174  14.117
12470SOL     OW39248   2.891   2.124   5.403
12470SOL    HW139249   2.926   2.094   5.486
12470SOL    HW239250   2.962   2.173   5.362
12471SOL     OW39251  14.177   5.464  11.620
12471SOL    HW139252  14.130   5.397  11.670
12471SOL    HW239253  14.242   5.498  11.682
12472SOL     OW39254  13.863   2.655  11.211
12472SOL    HW139255  13.844   2.568  11.176
12472SOL    HW239256  13.948   2.645  11.255
12473SOL     OW39257   9.766  14.381   3.112
12473SOL    HW139258   9.729  14.468   3.128
12473SOL    HW239259   9.857  14.398   3.087
12474SOL     OW39260   9.395   4.237  14.119
12474SOL    HW139261   9.419   4.327  14.142
12474SOL    HW239262   9.466   4.208  14.062
12475SOL     OW39263   9.222   3.347   2.396
12475SOL    HW139264   9.182   3.380   2.315
12475SOL    HW239265   9.156   3.289   2.434
12476SOL     OW39266   8.618   5.870   8.635
12476SOL    HW139267   8.674   5.901   8.564
12476SOL    HW239268   8.649   5.918   8.712
12477SOL     OW39269  14.123   1.611  14.350
12477SOL    HW139270  14.177   1.682  14.383
12477SOL    HW239271  14.042   1.653  14.321
12478SOL     OW39272   5.757   9.307   2.657
12478SOL    HW139273   5.799   9.313   2.571
12478SOL    HW239274   5.759   9.397   2.691
12479SOL     OW39275   0.411  10.809  12.612
12479SOL    HW139276   0.417  10.714  12.618
12479SOL    HW239277   0.470  10.832  12.540
12480SOL     OW39278   7.744  12.422  12.025
12480SOL    HW139279   7.813  12.458  12.081
12480SOL    HW239280   7.789  12.395  11.945
12481SOL     OW39281   6.476   6.489   4.951
12481SOL    HW139282   6.429   6.405   4.949
12481SOL    HW239283   6.567   6.465   4.971
12482SOL     OW39284  12.867   7.951   4.067
12482SOL    HW139285  12.951   7.996   4.076
12482SOL    HW239286  12.801   8.017   4.086
12483SOL     OW39287  14.503   8.736   5.374
12483SOL    HW139288  14.590   8.770   5.355
12483SOL    HW239289  14.446   8.813   5.377
12484SOL     OW39290   3.973   0.025   4.607
12484SOL    HW139291   3.991  14.814   4.641
12484SOL    HW239292   3.980   0.017   4.512
12485SOL     OW39293   1.859   4.043  10.011
12485SOL    HW139294   1.824   4.131  10.002
12485SOL    HW239295   1.786   3.986   9.988
12486SOL     OW39296  11.845   1.609  13.677
12486SOL    HW139297  11.767   1.665  13.674
12486SOL    HW239298  11.866   1.593  13.586
12487SOL     OW39299  14.592   4.236  14.253
12487SOL    HW139300  14.629   4.319  14.224
12487SOL    HW239301  14.658   4.170  14.231
12488SOL     OW39302   7.422   3.852   6.402
12488SOL    HW139303   7.413   3.757   6.409
12488SOL    HW239304   7.443   3.881   6.491
12489SOL     OW39305   3.189   1.791  11.014
12489SOL    HW139306   3.095   1.781  11.028
12489SOL    HW239307   3.218   1.846  11.087
12490SOL     OW39308  12.595   8.785   3.169
12490SOL    HW139309  12.571   8.860   3.115
12490SOL    HW239310  12.537   8.715   3.139
12491SOL     OW39311  13.256  12.765  11.979
12491SOL    HW139312  13.339  12.723  12.001
12491SOL    HW239313  13.189  12.709  12.017
12492SOL     OW39314  13.685   0.363  12.952
12492SOL    HW139315  13.684   0.446  12.904
12492SOL    HW239316  13.777   0.351  12.975
12493SOL     OW39317   0.062  11.078   7.920
12493SOL    HW139318   0.099  11.043   7.839
12493SOL    HW239319   0.090  11.170   7.922
12494SOL     OW39320  12.785  12.854   4.876
12494SOL    HW139321  12.766  12.771   4.919
12494SOL    HW239322  12.703  12.902   4.879
12495SOL     OW39323   8.546  10.561   8.787
12495SOL    HW139324   8.593  10.526   8.862
12495SOL    HW239325   8.484  10.624   8.824
12496SOL     OW39326   2.612   1.038   2.636
12496SOL    HW139327   2.576   1.121   2.604
12496SOL    HW239328   2.677   1.013   2.570
12497SOL     OW39329   4.677   9.798   4.098
12497SOL    HW139330   4.670   9.814   4.004
12497SOL    HW239331   4.738   9.725   4.106
12498SOL     OW39332   4.937  12.910  11.862
12498SOL    HW139333   4.991  12.859  11.923
12498SOL    HW239334   4.848  12.901  11.897
12499SOL     OW39335  14.459   7.540  11.651
12499SOL    HW139336  14.472   7.625  11.692
12499SOL    HW239337  14.448   7.479  11.724
12500SOL     OW39338   1.838  11.998   1.932
12500SOL    HW139339   1.856  12.079   1.980
12500SOL    HW239340   1.925  11.958   1.919
12501SOL     OW39341  12.672  10.819  10.595
12501SOL    HW139342  12.636  10.871  10.668
12501SOL    HW239343  12.612  10.836  10.522
12502SOL     OW39344   6.126   4.511   4.506
12502SOL    HW139345   6.102   4.579   4.569
12502SOL    HW239346   6.044   4.467   4.486
12503SOL     OW39347  13.940   5.144   8.851
12503SOL    HW139348  13.965   5.139   8.759
12503SOL    HW239349  13.938   5.238   8.870
12504SOL     OW39350   8.939   6.713   5.451
12504SOL    HW139351   8.942   6.662   5.370
12504SOL    HW239352   8.850   6.748   5.453
12505SOL     OW39353   4.037  10.988   8.349
12505SOL    HW139354   4.012  11.062   8.405
12505SOL    HW239355   4.128  11.006   8.324
12506SOL     OW39356  12.724   7.490   5.063
12506SOL    HW139357  12.751   7.573   5.103
12506SOL    HW239358  12.629   7.498   5.052
12507SOL     OW39359   9.674  12.835  12.027
12507SOL    HW139360   9.655  12.744  12.002
12507SOL    HW239361   9.753  12.830  12.080
12508SOL     OW39362   9.228   4.722  12.589
12508SOL    HW139363   9.265   4.637  12.565
12508SOL    HW239364   9.135   4.715  12.569
12509SOL     OW39365   3.578   2.731   4.935
12509SOL    HW139366   3.571   2.661   4.870
12509SOL    HW239367   3.620   2.803   4.888
12510SOL     OW39368  14.589  12.812   9.145
12510SOL    HW139369  14.639  12.803   9.063
12510SOL    HW239370  14.655  12.808   9.214
12511SOL     OW39371  12.185   5.643   0.606
12511SOL    HW139372  12.160   5.674   0.693
12511SOL    HW239373  12.146   5.555   0.600
12512SOL     OW39374   1.072   1.640   6.101
12512SOL    HW139375   0.999   1.654   6.041
12512SOL    HW239376   1.051   1.693   6.178
12513SOL     OW39377   1.041  12.136   5.284
12513SOL    HW139378   1.060  12.229   5.295
12513SOL    HW239379   1.015  12.106   5.371
12514SOL     OW39380  14.465   9.323  13.403
12514SOL    HW139381  14.546   9.375  13.407
12514SOL    HW239382  14.475   9.270  13.324
12515SOL     OW39383   8.530   5.198  11.355
12515SOL    HW139384   8.550   5.142  11.431
12515SOL    HW239385   8.497   5.137  11.289
12516SOL     OW39386   6.863  10.008  12.902
12516SOL    HW139387   6.918   9.942  12.860
12516SOL    HW239388   6.870   9.990  12.996
12517SOL     OW39389   8.059   4.336   6.522
12517SOL    HW139390   8.123   4.305   6.458
12517SOL    HW239391   7.975   4.302   6.491
12518SOL     OW39392   1.844   5.459  10.187
12518SOL    HW139393   1.780   5.525  10.160
12518SOL    HW239394   1.792   5.392  10.231
12519SOL     OW39395  10.571   0.793  11.042
12519SOL    HW139396  10.527   0.849  10.978
12519SOL    HW239397  10.647   0.758  10.996
12520SOL     OW39398  10.186   7.027  14.170
12520SOL    HW139399  10.276   7.058  14.157
12520SOL    HW239400  10.161   7.064  14.255
12521SOL     OW39401  10.809   1.658   4.809
12521SOL    HW139402  10.740   1.596   4.787
12521SOL    HW239403  10.788   1.736   4.757
12522SOL     OW39404   3.529   6.612  11.279
12522SOL    HW139405   3.476   6.658  11.344
12522SOL    HW239406   3.590   6.559  11.330
12523SOL     OW39407   4.785  12.727  11.441
12523SOL    HW139408   4.845  12.786  11.486
12523SOL    HW239409   4.839  12.687  11.372
12524SOL     OW39410   7.165   5.459  13.338
12524SOL    HW139411   7.104   5.487  13.269
12524SOL    HW239412   7.178   5.366  13.322
12525SOL     OW39413   8.601  11.011  13.656
12525SOL    HW139414   8.527  11.006  13.595
12525SOL    HW239415   8.561  11.015  13.743
12526SOL     OW39416  13.594  13.619  10.947
12526SOL    HW139417  13.523  13.556  10.962
12526SOL    HW239418  13.672  13.564  10.938
12527SOL     OW39419   5.335   7.546  13.740
12527SOL    HW139420   5.337   7.584  13.828
12527SOL    HW239421   5.365   7.617  13.683
12528SOL     OW39422   3.437  13.232   3.749
12528SOL    HW139423   3.345  13.207   3.755
12528SOL    HW239424   3.484  13.149   3.739
12529SOL     OW39425  14.558   9.915  10.315
12529SOL    HW139426  14.605   9.833  10.298
12529SOL    HW239427  14.551   9.918  10.411
12530SOL     OW39428  11.402  10.873   9.687
12530SOL    HW139429  11.392  10.916   9.772
12530SOL    HW239430  11.471  10.808   9.702
12531SOL     OW39431   0.308   5.781  11.891
12531SOL    HW139432   0.329   5.798  11.799
12531SOL    HW239433   0.392   5.762  11.932
12532SOL     OW39434  12.281  13.226   8.601
12532SOL    HW139435  12.199  13.234   8.553
12532SOL    HW239436  12.305  13.133   8.593
12533SOL     OW39437   0.187   6.567   9.022
12533SOL    HW139438   0.091   6.569   9.022
12533SOL    HW239439   0.213   6.656   8.999
12534SOL     OW39440  12.560  14.696   9.300
12534SOL    HW139441  12.579  14.619   9.354
12534SOL    HW239442  12.617  14.764   9.335
12535SOL     OW39443   0.316  13.180   6.022
12535SOL    HW139444   0.357  13.260   5.990
12535SOL    HW239445   0.375  13.149   6.091
12536SOL     OW39446   2.373  12.967   6.952
12536SOL    HW139447   2.464  12.975   6.980
12536SOL    HW239448   2.371  13.006   6.865
12537SOL     OW39449  11.936  13.878  13.173
12537SOL    HW139450  11.859  13.853  13.121
12537SOL    HW239451  11.960  13.964  13.138
12538SOL     OW39452   8.817  13.444   5.624
12538SOL    HW139453   8.741  13.464   5.680
12538SOL    HW239454   8.801  13.355   5.594
12539SOL     OW39455  11.007   3.049   3.722
12539SOL    HW139456  10.986   3.004   3.804
12539SOL    HW239457  11.005   2.979   3.656
12540SOL     OW39458   4.723   3.385   5.188
12540SOL    HW139459   4.816   3.406   5.180
12540SOL    HW239460   4.720   3.312   5.249
12541SOL     OW39461  13.548   8.038  10.705
12541SOL    HW139462  13.541   8.114  10.647
12541SOL    HW239463  13.586   8.073  10.785
12542SOL     OW39464   4.733   8.140   8.231
12542SOL    HW139465   4.768   8.229   8.231
12542SOL    HW239466   4.810   8.084   8.223
12543SOL     OW39467   9.226  11.103   3.669
12543SOL    HW139468   9.200  11.133   3.582
12543SOL    HW239469   9.309  11.147   3.687
12544SOL     OW39470   8.491   9.737   8.582
12544SOL    HW139471   8.478   9.686   8.662
12544SOL    HW239472   8.441   9.818   8.596
12545SOL     OW39473   4.167  11.844  11.006
12545SOL    HW139474   4.138  11.885  11.088
12545SOL    HW239475   4.144  11.907  10.938
12546SOL     OW39476   2.742  13.531  13.763
12546SOL    HW139477   2.655  13.537  13.802
12546SOL    HW239478   2.758  13.618  13.726
12547SOL     OW39479   8.212   9.283  11.349
12547SOL    HW139480   8.246   9.372  11.347
12547SOL    HW239481   8.122   9.292  11.380
12548SOL     OW39482  12.057   8.576   2.707
12548SOL    HW139483  12.078   8.497   2.756
12548SOL    HW239484  12.047   8.644   2.774
12549SOL     OW39485   1.669   2.494   8.108
12549SOL    HW139486   1.743   2.550   8.085
12549SOL    HW239487   1.705   2.405   8.108
12550SOL     OW39488   2.364   4.390   2.134
12550SOL    HW139489   2.431   4.401   2.066
12550SOL    HW239490   2.397   4.440   2.209
12551SOL     OW39491  13.328   9.877   8.338
12551SOL    HW139492  13.381   9.953   8.360
12551SOL    HW239493  13.341   9.865   8.244
12552SOL     OW39494  10.804  10.182   6.354
12552SOL    HW139495  10.780  10.273   6.332
12552SOL    HW239496  10.899  10.180   6.346
12553SOL     OW39497   8.156   7.301  13.642
12553SOL    HW139498   8.175   7.372  13.703
12553SOL    HW239499   8.161   7.222  13.696
12554SOL     OW39500   2.563   5.640  10.815
12554SOL    HW139501   2.548   5.546  10.831
12554SOL    HW239502   2.649   5.657  10.855
12555SOL     OW39503   2.702   8.850  10.689
12555SOL    HW139504   2.798   8.848  10.685
12555SOL    HW239505   2.679   8.780  10.750
12556SOL     OW39506  13.869   0.825   2.532
12556SOL    HW139507  13.783   0.866   2.538
12556SOL    HW239508  13.880   0.779   2.616
12557SOL     OW39509   2.156  10.308   3.062
12557SOL    HW139510   2.065  10.330   3.043
12557SOL    HW239511   2.151  10.237   3.126
12558SOL     OW39512  12.693   2.386   1.217
12558SOL    HW139513  12.735   2.472   1.214
12558SOL    HW239514  12.758   2.327   1.179
12559SOL     OW39515  13.342   7.030   0.833
12559SOL    HW139516  13.324   7.102   0.893
12559SOL    HW239517  13.421   7.057   0.785
12560SOL     OW39518   0.564  14.355   0.036
12560SOL    HW139519   0.608  14.421  14.859
12560SOL    HW239520   0.517  14.406   0.102
12561SOL     OW39521  10.147   5.059   1.570
12561SOL    HW139522  10.226   5.091   1.526
12561SOL    HW239523  10.109   4.996   1.509
12562SOL     OW39524   7.440  12.243   0.057
12562SOL    HW139525   7.534  12.260   0.059
12562SOL    HW239526   7.411  12.256   0.147
12563SOL     OW39527   3.506  10.834   0.934
12563SOL    HW139528   3.478  10.755   0.888
12563SOL    HW239529   3.518  10.806   1.025
12564SOL     OW39530   3.539   4.041  14.000
12564SOL    HW139531   3.558   4.060  14.092
12564SOL    HW239532   3.578   3.955  13.984
12565SOL     OW39533   2.154   7.558   7.409
12565SOL    HW139534   2.247   7.577   7.392
12565SOL    HW239535   2.113   7.558   7.323
12566SOL     OW39536   9.878  12.406   2.175
12566SOL    HW139537   9.939  12.388   2.104
12566SOL    HW239538   9.820  12.330   2.177
12567SOL     OW39539  14.586  10.423   1.076
12567SOL    HW139540  14.597  10.476   0.996
12567SOL    HW239541  14.522  10.472   1.128
12568SOL     OW39542   0.223   6.837  14.728
12568SOL    HW139543   0.207   6.924  14.764
12568SOL    HW239544   0.238   6.782  14.805
12569SOL     OW39545  11.489  12.284   3.894
12569SOL    HW139546  11.494  12.261   3.987
12569SOL    HW239547  11.573  12.328   3.876
12570SOL     OW39548  10.847   8.737   4.498
12570SOL    HW139549  10.840   8.817   4.550
12570SOL    HW239550  10.778   8.745   4.432
12571SOL     OW39551   8.871   4.001   1.455
12571SOL    HW139552   8.816   3.924   1.470
12571SOL    HW239553   8.945   3.990   1.515
12572SOL     OW39554   0.409  13.310   5.679
12572SOL    HW139555   0.413  13.228   5.729
12572SOL    HW239556   0.411  13.282   5.587
12573SOL     OW39557  11.641  12.018   6.280
12573SOL    HW139558  11.725  11.973   6.265
12573SOL    HW239559  11.638  12.030   6.375
12574SOL     OW39560  14.496  12.987   2.825
12574SOL    HW139561  14.560  13.041   2.777
12574SOL    HW239562  14.412  13.030   2.810
12575SOL     OW39563   9.178  10.717   6.893
12575SOL    HW139564   9.181  10.812   6.879
12575SOL    HW239565   9.266  10.694   6.920
12576SOL     OW39566  13.383   6.550  11.383
12576SOL    HW139567  13.298   6.508  11.367
12576SOL    HW239568  13.361   6.641  11.404
12577SOL     OW39569   2.787   6.007   6.596
12577SOL    HW139570   2.795   5.923   6.640
12577SOL    HW239571   2.716   6.051   6.642
12578SOL     OW39572   2.557  12.459   2.105
12578SOL    HW139573   2.502  12.393   2.147
12578SOL    HW239574   2.562  12.431   2.014
12579SOL     OW39575   2.284   8.631   8.955
12579SOL    HW139576   2.241   8.716   8.944
12579SOL    HW239577   2.318   8.634   9.045
12580SOL     OW39578  14.873  11.643  10.296
12580SOL    HW139579   0.063  11.627  10.229
12580SOL    HW239580   0.045  11.648  10.378
12581SOL     OW39581  13.499   6.861   6.631
12581SOL    HW139582  13.405   6.877   6.620
12581SOL    HW239583  13.540   6.907   6.558
12582SOL     OW39584   0.259  14.218  11.721
12582SOL    HW139585   0.338  14.255  11.681
12582SOL    HW239586   0.232  14.284  11.785
12583SOL     OW39587   5.120   2.374   9.840
12583SOL    HW139588   5.026   2.388   9.851
12583SOL    HW239589   5.151   2.350   9.928
12584SOL     OW39590   5.429  10.168  11.843
12584SOL    HW139591   5.518  10.153  11.872
12584SOL    HW239592   5.438  10.228  11.769
12585SOL     OW39593   4.981   6.412   2.251
12585SOL    HW139594   5.026   6.434   2.333
12585SOL    HW239595   4.907   6.473   2.247
12586SOL     OW39596   9.491   0.389   3.696
12586SOL    HW139597   9.473   0.314   3.640
12586SOL    HW239598   9.481   0.465   3.638
12587SOL     OW39599  12.883   6.182   3.589
12587SOL    HW139600  12.938   6.258   3.572
12587SOL    HW239601  12.814   6.214   3.647
12588SOL     OW39602   0.236   5.139   9.401
12588SOL    HW139603   0.316   5.169   9.357
12588SOL    HW239604   0.189   5.219   9.425
12589SOL     OW39605   9.067   7.663  12.998
12589SOL    HW139606   9.091   7.723  12.927
12589SOL    HW239607   9.102   7.578  12.971
12590SOL     OW39608   5.424   1.381  13.570
12590SOL    HW139609   5.477   1.305  13.549
12590SOL    HW239610   5.402   1.370  13.663
12591SOL     OW39611   2.185   7.221   6.898
12591SOL    HW139612   2.234   7.268   6.967
12591SOL    HW239613   2.168   7.287   6.832
12592SOL     OW39614   5.132  14.219   9.348
12592SOL    HW139615   5.115  14.307   9.382
12592SOL    HW239616   5.048  14.192   9.310
12593SOL     OW39617   7.001   5.611   0.194
12593SOL    HW139618   7.049   5.629   0.113
12593SOL    HW239619   7.062   5.631   0.264
12594SOL     OW39620   5.104   0.768   1.521
12594SOL    HW139621   5.052   0.782   1.600
12594SOL    HW239622   5.060   0.696   1.476
12595SOL     OW39623   5.503   5.324  10.363
12595SOL    HW139624   5.442   5.274  10.309
12595SOL    HW239625   5.586   5.322  10.314
12596SOL     OW39626   9.826  11.496   0.289
12596SOL    HW139627   9.821  11.402   0.302
12596SOL    HW239628   9.784  11.533   0.366
12597SOL     OW39629  11.041   9.239  11.952
12597SOL    HW139630  10.983   9.276  11.885
12597SOL    HW239631  10.994   9.162  11.985
12598SOL     OW39632  10.417  11.096  13.851
12598SOL    HW139633  10.396  11.030  13.917
12598SOL    HW239634  10.448  11.171  13.901
12599SOL     OW39635  13.549  10.718   0.476
12599SOL    HW139636  13.530  10.654   0.408
12599SOL    HW239637  13.466  10.729   0.523
12600SOL     OW39638   1.641   1.220  13.971
12600SOL    HW139639   1.697   1.295  13.947
12600SOL    HW239640   1.568   1.259  14.020
12601SOL     OW39641   9.249   2.070   1.662
12601SOL    HW139642   9.214   1.993   1.616
12601SOL    HW239643   9.265   2.134   1.593
12602SOL     OW39644   0.137  13.247  13.657
12602SOL    HW139645   0.154  13.233  13.564
12602SOL    HW239646   0.222  13.272  13.693
12603SOL     OW39647  11.839   9.843   0.852
12603SOL    HW139648  11.899   9.772   0.872
12603SOL    HW239649  11.771   9.803   0.798
12604SOL     OW39650   7.896   0.979  10.972
12604SOL    HW139651   7.864   1.061  11.011
12604SOL    HW239652   7.918   0.924  11.047
12605SOL     OW39653   7.465   5.352   5.004
12605SOL    HW139654   7.513   5.424   5.045
12605SOL    HW239655   7.527   5.313   4.942
12606SOL     OW39656  11.720   8.980   6.606
12606SOL    HW139657  11.744   9.002   6.516
12606SOL    HW239658  11.798   8.935   6.640
12607SOL     OW39659   1.714   4.588  14.039
12607SOL    HW139660   1.706   4.524  14.109
12607SOL    HW239661   1.770   4.657  14.075
12608SOL     OW39662  11.613   1.964   0.664
12608SOL    HW139663  11.603   1.945   0.570
12608SOL    HW239664  11.688   1.911   0.690
12609SOL     OW39665   4.932   6.939   2.515
12609SOL    HW139666   4.844   6.937   2.478
12609SOL    HW239667   4.927   6.881   2.591
12610SOL     OW39668   0.552   7.322   4.760
12610SOL    HW139669   0.530   7.248   4.703
12610SOL    HW239670   0.632   7.359   4.721
12611SOL     OW39671   2.950  13.778  13.873
12611SOL    HW139672   3.026  13.721  13.882
12611SOL    HW239673   2.894  13.735  13.808
12612SOL     OW39674   8.149  13.249   4.949
12612SOL    HW139675   8.133  13.341   4.968
12612SOL    HW239676   8.236  13.232   4.986
12613SOL     OW39677   5.222  13.431  10.161
12613SOL    HW139678   5.133  13.397  10.149
12613SOL    HW239679   5.209  13.516  10.203
12614SOL     OW39680  14.555   8.993  14.159
12614SOL    HW139681  14.600   8.978  14.242
12614SOL    HW239682  14.501   9.070  14.176
12615SOL     OW39683   5.081  12.169   6.159
12615SOL    HW139684   5.004  12.127   6.197
12615SOL    HW239685   5.066  12.263   6.170
12616SOL     OW39686   3.899   9.761   0.892
12616SOL    HW139687   3.816   9.758   0.846
12616SOL    HW239688   3.955   9.699   0.846
12617SOL     OW39689   6.417  10.340   9.878
12617SOL    HW139690   6.512  10.335   9.891
12617SOL    HW239691   6.398  10.268   9.818
12618SOL     OW39692   0.622   6.750  10.863
12618SOL    HW139693   0.618   6.739  10.768
12618SOL    HW239694   0.614   6.661  10.898
12619SOL     OW39695   9.262   7.934  13.604
12619SOL    HW139696   9.177   7.891  13.596
12619SOL    HW239697   9.247   8.004  13.669
12620SOL     OW39698  12.919  13.419   9.778
12620SOL    HW139699  12.918  13.482   9.706
12620SOL    HW239700  12.987  13.357   9.755
12621SOL     OW39701  10.104   5.924   9.750
12621SOL    HW139702  10.073   6.013   9.764
12621SOL    HW239703  10.173   5.932   9.684
12622SOL     OW39704   4.538  12.293  14.174
12622SOL    HW139705   4.589  12.265  14.249
12622SOL    HW239706   4.529  12.215  14.119
12623SOL     OW39707   2.781   6.556   2.624
12623SOL    HW139708   2.832   6.628   2.663
12623SOL    HW239709   2.834   6.478   2.639
12624SOL     OW39710  11.624   5.838  14.414
12624SOL    HW139711  11.672   5.775  14.467
12624SOL    HW239712  11.631   5.921  14.463
12625SOL     OW39713  11.797  14.788   0.019
12625SOL    HW139714  11.793  14.745  14.810
12625SOL    HW239715  11.865  14.741   0.067
12626SOL     OW39716  12.073   0.339  12.422
12626SOL    HW139717  12.161   0.304  12.439
12626SOL    HW239718  12.088   0.432  12.406
12627SOL     OW39719  13.143  11.784   7.227
12627SOL    HW139720  13.156  11.848   7.158
12627SOL    HW239721  13.213  11.801   7.290
12628SOL     OW39722  10.682   7.031   1.032
12628SOL    HW139723  10.703   7.107   0.977
12628SOL    HW239724  10.595   7.003   1.002
12629SOL     OW39725   6.424   2.716  10.625
12629SOL    HW139726   6.336   2.741  10.598
12629SOL    HW239727   6.441   2.771  10.702
12630SOL     OW39728   8.082   0.528   0.491
12630SOL    HW139729   8.101   0.510   0.399
12630SOL    HW239730   8.075   0.623   0.496
12631SOL     OW39731   6.060   5.522   1.395
12631SOL    HW139732   5.978   5.484   1.427
12631SOL    HW239733   6.033   5.595   1.340
12632SOL     OW39734  14.754  14.714   6.181
12632SOL    HW139735  14.725  14.632   6.140
12632SOL    HW239736  14.840  14.731   6.143
12633SOL     OW39737   8.511   1.558   2.883
12633SOL    HW139738   8.430   1.584   2.838
12633SOL    HW239739   8.481   1.503   2.956
12634SOL     OW39740   3.293   0.356   7.184
12634SOL    HW139741   3.375   0.396   7.154
12634SOL    HW239742   3.296   0.267   7.149
12635SOL     OW39743  11.182  10.384   0.451
12635SOL    HW139744  11.241  10.437   0.505
12635SOL    HW239745  11.226  10.378   0.366
12636SOL     OW39746   4.323   7.335   5.819
12636SOL    HW139747   4.384   7.298   5.882
12636SOL    HW239748   4.376   7.394   5.766
12637SOL     OW39749   9.443  14.021   7.171
12637SOL    HW139750   9.398  14.080   7.231
12637SOL    HW239751   9.454  14.072   7.091
12638SOL     OW39752   5.171  10.329  14.592
12638SOL    HW139753   5.163  10.390  14.519
12638SOL    HW239754   5.247  10.275  14.570
12639SOL     OW39755  11.953   0.842   4.383
12639SOL    HW139756  12.020   0.822   4.318
12639SOL    HW239757  11.892   0.769   4.377
12640SOL     OW39758  13.679  10.003  11.430
12640SOL    HW139759  13.702  10.088  11.467
12640SOL    HW239760  13.591  10.015  11.395
12641SOL     OW39761   2.214  11.453   1.720
12641SOL    HW139762   2.222  11.436   1.813
12641SOL    HW239763   2.300  11.429   1.684
12642SOL     OW39764   2.290   2.766   7.580
12642SOL    HW139765   2.378   2.740   7.606
12642SOL    HW239766   2.241   2.770   7.662
12643SOL     OW39767  13.324  14.300  12.279
12643SOL    HW139768  13.257  14.282  12.213
12643SOL    HW239769  13.276  14.303  12.362
12644SOL     OW39770   2.642  10.773   9.404
12644SOL    HW139771   2.672  10.686   9.378
12644SOL    HW239772   2.656  10.776   9.499
12645SOL     OW39773  10.618  14.205   8.595
12645SOL    HW139774  10.656  14.291   8.611
12645SOL    HW239775  10.686  14.143   8.622
12646SOL     OW39776   1.369  10.272  12.807
12646SOL    HW139777   1.287  10.235  12.838
12646SOL    HW239778   1.407  10.204  12.752
12647SOL     OW39779   4.999   2.454   1.123
12647SOL    HW139780   5.074   2.500   1.160
12647SOL    HW239781   5.037   2.391   1.061
12648SOL     OW39782   2.914   7.910   6.641
12648SOL    HW139783   2.935   7.866   6.723
12648SOL    HW239784   2.905   7.839   6.577
12649SOL     OW39785   2.060   1.402  13.370
12649SOL    HW139786   2.040   1.424  13.279
12649SOL    HW239787   2.155   1.391  13.372
12650SOL     OW39788   7.998   2.605  11.507
12650SOL    HW139789   7.974   2.653  11.428
12650SOL    HW239790   7.923   2.548  11.525
12651SOL     OW39791   4.729   7.957   5.220
12651SOL    HW139792   4.719   7.940   5.314
12651SOL    HW239793   4.648   8.001   5.195
12652SOL     OW39794   8.374   3.213   3.408
12652SOL    HW139795   8.454   3.195   3.358
12652SOL    HW239796   8.381   3.305   3.432
12653SOL     OW39797  13.211   7.724  12.125
12653SOL    HW139798  13.249   7.655  12.180
12653SOL    HW239799  13.120   7.731  12.155
12654SOL     OW39800   1.113   0.706   1.561
12654SOL    HW139801   1.165   0.665   1.492
12654SOL    HW239802   1.142   0.797   1.561
12655SOL     OW39803   9.076   0.364   6.400
12655SOL    HW139804   9.043   0.454   6.409
12655SOL    HW239805   9.063   0.325   6.486
12656SOL     OW39806   0.966   3.916  11.056
12656SOL    HW139807   0.917   3.997  11.066
12656SOL    HW239808   0.947   3.866  11.135
12657SOL     OW39809   9.544   7.572   6.389
12657SOL    HW139810   9.586   7.495   6.426
12657SOL    HW239811   9.585   7.646   6.433
12658SOL     OW39812  11.721   3.795  11.945
12658SOL    HW139813  11.694   3.740  11.871
12658SOL    HW239814  11.679   3.879  11.929
12659SOL     OW39815   3.084   7.495   2.258
12659SOL    HW139816   3.140   7.485   2.181
12659SOL    HW239817   3.111   7.426   2.318
12660SOL     OW39818   9.683   8.257   7.325
12660SOL    HW139819   9.634   8.319   7.380
12660SOL    HW239820   9.713   8.310   7.251
12661SOL     OW39821  14.526  10.605  12.515
12661SOL    HW139822  14.619  10.585  12.506
12661SOL    HW239823  14.512  10.612  12.609
12662SOL     OW39824   1.678   8.359   9.338
12662SOL    HW139825   1.672   8.368   9.433
12662SOL    HW239826   1.755   8.304   9.324
12663SOL     OW39827   9.798   6.037   9.812
12663SOL    HW139828   9.703   6.047   9.818
12663SOL    HW239829   9.824   5.995   9.894
12664SOL     OW39830   7.617   3.663   6.057
12664SOL    HW139831   7.549   3.707   6.107
12664SOL    HW239832   7.699   3.706   6.084
12665SOL     OW39833   0.201  11.458  12.788
12665SOL    HW139834   0.246  11.380  12.821
12665SOL    HW239835   0.244  11.476  12.704
12666SOL     OW39836   3.479   8.970   4.704
12666SOL    HW139837   3.462   8.893   4.759
12666SOL    HW239838   3.466   9.044   4.763
12667SOL     OW39839   2.602   6.185  13.000
12667SOL    HW139840   2.537   6.115  12.998
12667SOL    HW239841   2.638   6.182  13.089
12668SOL     OW39842   8.343   6.863   8.370
12668SOL    HW139843   8.427   6.896   8.401
12668SOL    HW239844   8.285   6.868   8.446
12669SOL     OW39845   7.171   4.845   6.978
12669SOL    HW139846   7.122   4.803   7.048
12669SOL    HW239847   7.220   4.774   6.937
12670SOL     OW39848   1.491  13.005   5.658
12670SOL    HW139849   1.443  13.048   5.729
12670SOL    HW239850   1.431  13.007   5.584
12671SOL     OW39851  12.780   6.060   7.197
12671SOL    HW139852  12.706   6.092   7.146
12671SOL    HW239853  12.838   6.136   7.206
12672SOL     OW39854   0.620   4.004   7.628
12672SOL    HW139855   0.529   4.016   7.599
12672SOL    HW239856   0.649   4.092   7.652
12673SOL     OW39857   1.867  14.186   2.295
12673SOL    HW139858   1.847  14.213   2.205
12673SOL    HW239859   1.837  14.259   2.349
12674SOL     OW39860   4.425   6.470   3.203
12674SOL    HW139861   4.433   6.376   3.222
12674SOL    HW239862   4.333   6.490   3.220
12675SOL     OW39863   8.120  14.863   1.653
12675SOL    HW139864   8.102  14.794   1.717
12675SOL    HW239865   8.065  14.841   1.578
12676SOL     OW39866   5.763  12.233  10.731
12676SOL    HW139867   5.728  12.252  10.644
12676SOL    HW239868   5.760  12.316  10.777
12677SOL     OW39869   3.596  12.690   4.437
12677SOL    HW139870   3.682  12.731   4.434
12677SOL    HW239871   3.535  12.764   4.449
12678SOL     OW39872   8.277   8.598  13.606
12678SOL    HW139873   8.218   8.584  13.680
12678SOL    HW239874   8.361   8.562  13.634
12679SOL     OW39875   8.963  14.555   9.945
12679SOL    HW139876   9.004  14.478   9.905
12679SOL    HW239877   8.869  14.539   9.937
12680SOL     OW39878  11.716   8.822   2.649
12680SOL    HW139879  11.728   8.862   2.736
12680SOL    HW239880  11.749   8.888   2.588
12681SOL     OW39881   0.402  14.544   0.206
12681SOL    HW139882   0.351  14.520   0.129
12681SOL    HW239883   0.368  14.630   0.231
12682SOL     OW39884   6.498  10.776   1.716
12682SOL    HW139885   6.552  10.749   1.642
12682SOL    HW239886   6.447  10.698   1.738
12683SOL     OW39887  13.954   8.688  12.581
12683SOL    HW139888  13.955   8.599  12.546
12683SOL    HW239889  13.951   8.677  12.676
12684SOL     OW39890   8.481   9.160   5.276
12684SOL    HW139891   8.565   9.206   5.269
12684SOL    HW239892   8.468   9.119   5.191
12685SOL     OW39893   2.857   6.385   5.843
12685SOL    HW139894   2.860   6.447   5.771
12685SOL    HW239895   2.806   6.311   5.809
12686SOL     OW39896   0.230  12.497   1.796
12686SOL    HW139897   0.157  12.435   1.805
12686SOL    HW239898   0.214  12.540   1.712
12687SOL     OW39899   1.407   8.822   6.604
12687SOL    HW139900   1.479   8.886   6.596
12687SOL    HW239901   1.396   8.787   6.515
12688SOL     OW39902  14.238   2.182   5.868
12688SOL    HW139903  14.271   2.106   5.916
12688SOL    HW239904  14.260   2.164   5.776
12689SOL     OW39905  13.968  13.747   3.762
12689SOL    HW139906  13.953  13.838   3.784
12689SOL    HW239907  13.945  13.698   3.841
12690SOL     OW39908   3.636   6.247   2.288
12690SOL    HW139909   3.637   6.153   2.306
12690SOL    HW239910   3.605   6.253   2.197
12691SOL     OW39911  14.147   9.059  12.821
12691SOL    HW139912  14.195   9.014  12.751
12691SOL    HW239913  14.151   9.152  12.797
12692SOL     OW39914   7.769  12.050   7.435
12692SOL    HW139915   7.728  12.079   7.354
12692SOL    HW239916   7.707  11.987   7.473
12693SOL     OW39917   1.213  13.729   3.382
12693SOL    HW139918   1.193  13.781   3.304
12693SOL    HW239919   1.135  13.675   3.395
12694SOL     OW39920   6.246  11.969   0.291
12694SOL    HW139921   6.314  11.960   0.357
12694SOL    HW239922   6.285  11.932   0.211
12695SOL     OW39923  12.235   6.290   3.267
12695SOL    HW139924  12.174   6.216   3.257
12695SOL    HW239925  12.204   6.356   3.205
12696SOL     OW39926  13.603   5.613   2.370
12696SOL    HW139927  13.684   5.648   2.405
12696SOL    HW239928  13.608   5.519   2.383
12697SOL     OW39929  14.874   0.683   2.506
12697SOL    HW139930   0.074   0.717   2.552
12697SOL    HW239931   0.030   0.607   2.458
12698SOL     OW39932  14.588   9.947   3.620
12698SOL    HW139933  14.566   9.935   3.528
12698SOL    HW239934  14.509   9.920   3.667
12699SOL     OW39935  13.044   8.948   9.694
12699SOL    HW139936  13.119   8.982   9.645
12699SOL    HW239937  13.038   8.856   9.667
12700SOL     OW39938   2.960   4.483   1.074
12700SOL    HW139939   3.010   4.423   1.130
12700SOL    HW239940   3.017   4.500   1.000
12701SOL     OW39941  12.605  14.675   5.256
12701SOL    HW139942  12.609  14.661   5.350
12701SOL    HW239943  12.670  14.614   5.220
12702SOL     OW39944   1.104  13.752   8.479
12702SOL    HW139945   1.112  13.806   8.400
12702SOL    HW239946   1.062  13.809   8.543
12703SOL     OW39947   6.897   0.963   7.330
12703SOL    HW139948   6.815   0.972   7.282
12703SOL    HW239949   6.960   0.935   7.264
12704SOL     OW39950   2.422   7.231  11.912
12704SOL    HW139951   2.515   7.218  11.932
12704SOL    HW239952   2.412   7.199  11.822
12705SOL     OW39953   1.239   1.371   7.082
12705SOL    HW139954   1.154   1.393   7.045
12705SOL    HW239955   1.225   1.370   7.177
12706SOL     OW39956  14.095   4.594  13.544
12706SOL    HW139957  14.058   4.585  13.632
12706SOL    HW239958  14.109   4.504  13.514
12707SOL     OW39959   2.531   1.074   0.472
12707SOL    HW139960   2.554   1.157   0.430
12707SOL    HW239961   2.464   1.098   0.536
12708SOL     OW39962   6.804   8.507   2.733
12708SOL    HW139963   6.792   8.419   2.770
12708SOL    HW239964   6.751   8.564   2.789
12709SOL     OW39965   2.981   8.446   0.227
12709SOL    HW139966   2.988   8.355   0.199
12709SOL    HW239967   2.904   8.479   0.181
12710SOL     OW39968  13.944   8.181   7.503
12710SOL    HW139969  13.997   8.102   7.514
12710SOL    HW239970  13.983   8.244   7.564
12711SOL     OW39971  13.430   5.081   6.372
12711SOL    HW139972  13.409   5.141   6.300
12711SOL    HW239973  13.357   5.090   6.433
12712SOL     OW39974   5.934   5.247   5.298
12712SOL    HW139975   6.012   5.278   5.345
12712SOL    HW239976   5.862   5.259   5.360
12713SOL     OW39977   6.578  12.206  12.376
12713SOL    HW139978   6.561  12.299  12.390
12713SOL    HW239979   6.664  12.204  12.334
12714SOL     OW39980  13.943   1.531  11.822
12714SOL    HW139981  13.991   1.461  11.779
12714SOL    HW239982  13.861   1.538  11.773
12715SOL     OW39983  10.859   4.583  11.106
12715SOL    HW139984  10.866   4.677  11.118
12715SOL    HW239985  10.945   4.548  11.129
12716SOL     OW39986  12.005   3.890  14.194
12716SOL    HW139987  11.946   3.920  14.124
12716SOL    HW239988  12.083   3.944  14.184
12717SOL     OW39989   3.120  12.085   0.325
12717SOL    HW139990   3.053  12.132   0.275
12717SOL    HW239991   3.188  12.064   0.261
12718SOL     OW39992  12.207   4.795  13.330
12718SOL    HW139993  12.147   4.739  13.379
12718SOL    HW239994  12.289   4.792  13.379
12719SOL     OW39995   8.187  13.305  13.872
12719SOL    HW139996   8.147  13.273  13.791
12719SOL    HW239997   8.228  13.388  13.848
12720SOL     OW39998  11.566  12.312  10.746
12720SOL    HW139999  11.615  12.339  10.668
12720SOL    HW240000  11.577  12.385  10.807
12721SOL     OW40001  12.082   7.490   8.569
12721SOL    HW140002  12.068   7.532   8.484
12721SOL    HW240003  12.177   7.487   8.579
12722SOL     OW40004   5.403   1.452   7.226
12722SOL    HW140005   5.496   1.436   7.241
12722SOL    HW240006   5.375   1.506   7.299
12723SOL     OW40007   8.783   0.296  11.737
12723SOL    HW140008   8.826   0.247  11.807
12723SOL    HW240009   8.726   0.231  11.695
12724SOL     OW40010   0.794   7.732   7.484
12724SOL    HW140011   0.787   7.647   7.441
12724SOL    HW240012   0.851   7.783   7.426
12725SOL     OW40013   4.370   5.997   7.523
12725SOL    HW140014   4.297   6.043   7.483
12725SOL    HW240015   4.391   5.927   7.461
12726SOL     OW40016   7.780   6.178  12.688
12726SOL    HW140017   7.856   6.226  12.721
12726SOL    HW240018   7.724   6.166  12.765
12727SOL     OW40019   9.161   1.149  13.590
12727SOL    HW140020   9.249   1.160  13.626
12727SOL    HW240021   9.174   1.139  13.496
12728SOL     OW40022   3.835  12.467   9.071
12728SOL    HW140023   3.876  12.525   9.006
12728SOL    HW240024   3.797  12.527   9.135
12729SOL     OW40025  10.963   9.513   2.925
12729SOL    HW140026  10.902   9.585   2.911
12729SOL    HW240027  10.908   9.440   2.954
12730SOL     OW40028   3.769   4.794   9.173
12730SOL    HW140029   3.776   4.823   9.082
12730SOL    HW240030   3.704   4.851   9.212
12731SOL     OW40031  11.346   7.517   5.822
12731SOL    HW140032  11.363   7.609   5.800
12731SOL    HW240033  11.274   7.492   5.765
12732SOL     OW40034  12.694   0.681  12.609
12732SOL    HW140035  12.609   0.724  12.602
12732SOL    HW240036  12.717   0.657  12.519
12733SOL     OW40037   8.764  11.782  13.381
12733SOL    HW140038   8.756  11.836  13.459
12733SOL    HW240039   8.783  11.694  13.414
12734SOL     OW40040   5.983   4.465   0.643
12734SOL    HW140041   5.941   4.379   0.640
12734SOL    HW240042   5.915   4.526   0.615
12735SOL     OW40043   7.250   1.101   4.105
12735SOL    HW140044   7.307   1.171   4.136
12735SOL    HW240045   7.227   1.051   4.183
12736SOL     OW40046  14.135  14.820  12.459
12736SOL    HW140047  14.220  14.830  12.415
12736SOL    HW240048  14.083   0.018  12.427
12737SOL     OW40049  10.265  11.755   1.674
12737SOL    HW140050  10.247  11.661   1.680
12737SOL    HW240051  10.221  11.782   1.593
12738SOL     OW40052   8.059  13.987  10.411
12738SOL    HW140053   8.051  13.909  10.355
12738SOL    HW240054   8.051  14.060  10.350
12739SOL     OW40055   4.045   2.953  10.843
12739SOL    HW140056   4.014   2.896  10.773
12739SOL    HW240057   4.116   3.003  10.803
12740SOL     OW40058   7.976   2.655   1.822
12740SOL    HW140059   8.001   2.738   1.863
12740SOL    HW240060   8.009   2.661   1.732
12741SOL     OW40061   8.567   3.742   7.365
12741SOL    HW140062   8.476   3.734   7.395
12741SOL    HW240063   8.562   3.795   7.286
12742SOL     OW40064   1.680   7.865   4.253
12742SOL    HW140065   1.613   7.835   4.191
12742SOL    HW240066   1.693   7.957   4.232
12743SOL     OW40067   5.670   5.928   4.285
12743SOL    HW140068   5.723   5.921   4.365
12743SOL    HW240069   5.687   6.017   4.253
12744SOL     OW40070   7.379  12.021   3.816
12744SOL    HW140071   7.341  12.042   3.731
12744SOL    HW240072   7.464  12.063   3.817
12745SOL     OW40073   8.744   9.651   2.387
12745SOL    HW140074   8.653   9.665   2.413
12745SOL    HW240075   8.750   9.687   2.298
12746SOL     OW40076  10.905   8.135   2.251
12746SOL    HW140077  10.844   8.112   2.321
12746SOL    HW240078  10.964   8.199   2.292
12747SOL     OW40079   7.396   1.496   5.535
12747SOL    HW140080   7.349   1.546   5.602
12747SOL    HW240081   7.487   1.523   5.545
12748SOL     OW40082  12.231   9.962   2.083
12748SOL    HW140083  12.281   9.960   2.001
12748SOL    HW240084  12.163   9.897   2.071
12749SOL     OW40085   1.592  10.960   5.256
12749SOL    HW140086   1.605  10.947   5.162
12749SOL    HW240087   1.578  11.054   5.265
12750SOL     OW40088   4.749   7.954  10.138
12750SOL    HW140089   4.792   8.033  10.106
12750SOL    HW240090   4.665   7.985  10.172
12751SOL     OW40091  11.752   4.463   2.231
12751SOL    HW140092  11.704   4.496   2.307
12751SOL    HW240093  11.805   4.391   2.265
12752SOL     OW40094   5.569   7.496   3.796
12752SOL    HW140095   5.502   7.449   3.746
12752SOL    HW240096   5.641   7.508   3.734
12753SOL     OW40097   0.881  14.435   2.701
12753SOL    HW140098   0.960  14.438   2.647
12753SOL    HW240099   0.823  14.501   2.662
12754SOL     OW40100   4.067   0.167  14.055
12754SOL    HW140101   4.149   0.214  14.074
12754SOL    HW240102   4.006   0.197  14.122
12755SOL     OW40103   0.818  13.369  10.051
12755SOL    HW140104   0.833  13.445   9.995
12755SOL    HW240105   0.765  13.403  10.124
12756SOL     OW40106   8.482  11.617   6.910
12756SOL    HW140107   8.474  11.710   6.889
12756SOL    HW240108   8.502  11.576   6.826
12757SOL     OW40109   7.533   7.234  10.047
12757SOL    HW140110   7.437   7.243  10.050
12757SOL    HW240111   7.563   7.278  10.126
12758SOL     OW40112   3.027   8.537  14.037
12758SOL    HW140113   2.968   8.479  14.085
12758SOL    HW240114   3.050   8.605  14.100
12759SOL     OW40115   4.391   7.331   4.538
12759SOL    HW140116   4.300   7.328   4.568
12759SOL    HW240117   4.438   7.372   4.611
12760SOL     OW40118   4.558   3.949   5.575
12760SOL    HW140119   4.613   3.950   5.497
12760SOL    HW240120   4.583   3.869   5.621
12761SOL     OW40121  11.421   0.746   6.703
12761SOL    HW140122  11.472   0.821   6.673
12761SOL    HW240123  11.333   0.781   6.719
12762SOL     OW40124  14.626   0.288   7.005
12762SOL    HW140125  14.555   0.294   6.941
12762SOL    HW240126  14.665   0.202   6.990
12763SOL     OW40127   1.169   9.722   8.781
12763SOL    HW140128   1.252   9.729   8.734
12763SOL    HW240129   1.103   9.714   8.712
12764SOL     OW40130   1.109  12.455   6.342
12764SOL    HW140131   1.056  12.389   6.296
12764SOL    HW240132   1.158  12.499   6.273
12765SOL     OW40133   3.317   4.636   0.422
12765SOL    HW140134   3.405   4.674   0.429
12765SOL    HW240135   3.259   4.703   0.458
12766SOL     OW40136   9.981  14.154  11.695
12766SOL    HW140137   9.959  14.137  11.603
12766SOL    HW240138  10.073  14.181  11.692
12767SOL     OW40139   6.199  11.881  10.706
12767SOL    HW140140   6.131  11.820  10.735
12767SOL    HW240141   6.180  11.961  10.755
12768SOL     OW40142   7.031  13.218   8.338
12768SOL    HW140143   6.975  13.235   8.262
12768SOL    HW240144   7.116  13.194   8.299
12769SOL     OW40145   7.507   8.566  14.259
12769SOL    HW140146   7.508   8.645  14.313
12769SOL    HW240147   7.415   8.551  14.240
12770SOL     OW40148   6.757   1.649   2.967
12770SOL    HW140149   6.850   1.667   2.977
12770SOL    HW240150   6.752   1.554   2.955
12771SOL     OW40151   3.447   0.971   3.164
12771SOL    HW140152   3.353   0.987   3.160
12771SOL    HW240153   3.455   0.876   3.168
12772SOL     OW40154  10.496   3.558   7.502
12772SOL    HW140155  10.449   3.497   7.446
12772SOL    HW240156  10.578   3.514   7.523
12773SOL     OW40157  12.558   7.156   0.725
12773SOL    HW140158  12.487   7.171   0.787
12773SOL    HW240159  12.629   7.121   0.778
12774SOL     OW40160  10.740   2.338   0.838
12774SOL    HW140161  10.704   2.268   0.783
12774SOL    HW240162  10.717   2.418   0.792
12775SOL     OW40163   2.113   9.926   0.569
12775SOL    HW140164   2.145   9.912   0.658
12775SOL    HW240165   2.083  10.018   0.569
12776SOL     OW40166   0.304   5.260  14.136
12776SOL    HW140167   0.355   5.226  14.210
12776SOL    HW240168   0.335   5.350  14.125
12777SOL     OW40169  10.625   9.790   4.013
12777SOL    HW140170  10.651   9.713   3.963
12777SOL    HW240171  10.570   9.840   3.953
12778SOL     OW40172  11.358   0.869   7.520
12778SOL    HW140173  11.315   0.913   7.447
12778SOL    HW240174  11.324   0.913   7.598
12779SOL     OW40175  10.508   0.425   0.846
12779SOL    HW140176  10.572   0.391   0.783
12779SOL    HW240177  10.503   0.357   0.913
12780SOL     OW40178   1.236   9.540   3.300
12780SOL    HW140179   1.197   9.497   3.376
12780SOL    HW240180   1.309   9.483   3.275
12781SOL     OW40181   7.122   9.721   3.899
12781SOL    HW140182   7.092   9.806   3.929
12781SOL    HW240183   7.199   9.702   3.954
12782SOL     OW40184   5.827   7.879  13.344
12782SOL    HW140185   5.740   7.878  13.384
12782SOL    HW240186   5.873   7.805  13.383
12783SOL     OW40187   6.265   7.815   8.244
12783SOL    HW140188   6.180   7.793   8.281
12783SOL    HW240189   6.247   7.835   8.152
12784SOL     OW40190   5.834   0.415   6.104
12784SOL    HW140191   5.827   0.388   6.196
12784SOL    HW240192   5.830   0.511   6.107
12785SOL     OW40193   0.772  13.313  12.541
12785SOL    HW140194   0.835  13.294  12.471
12785SOL    HW240195   0.821  13.298  12.621
12786SOL     OW40196   7.309   4.128   4.227
12786SOL    HW140197   7.308   4.088   4.314
12786SOL    HW240198   7.351   4.062   4.172
12787SOL     OW40199   7.888   5.150  13.935
12787SOL    HW140200   7.872   5.232  13.981
12787SOL    HW240201   7.983   5.139  13.939
12788SOL     OW40202  14.277   9.280   3.904
12788SOL    HW140203  14.206   9.270   3.967
12788SOL    HW240204  14.234   9.317   3.826
12789SOL     OW40205  10.165  14.642  12.121
12789SOL    HW140206  10.237  14.654  12.183
12789SOL    HW240207  10.117  14.724  12.124
12790SOL     OW40208   3.107   5.943  13.764
12790SOL    HW140209   3.085   5.866  13.711
12790SOL    HW240210   3.023   5.980  13.790
12791SOL     OW40211  14.693   3.714  12.530
12791SOL    HW140212  14.602   3.714  12.559
12791SOL    HW240213  14.690   3.683  12.440
12792SOL     OW40214   2.064   2.401   8.223
12792SOL    HW140215   2.156   2.381   8.204
12792SOL    HW240216   2.064   2.425   8.316
12793SOL     OW40217   6.851   7.038   2.363
12793SOL    HW140218   6.891   7.104   2.306
12793SOL    HW240219   6.847   6.959   2.310
12794SOL     OW40220   9.249   1.565   0.805
12794SOL    HW140221   9.279   1.569   0.896
12794SOL    HW240222   9.317   1.610   0.755
12795SOL     OW40223   0.032  10.535   2.475
12795SOL    HW140224   0.052  10.458   2.530
12795SOL    HW240225   0.114  10.584   2.471
12796SOL     OW40226   4.892   7.083   5.430
12796SOL    HW140227   4.974   7.102   5.476
12796SOL    HW240228   4.917   7.079   5.338
12797SOL     OW40229   1.955   4.746  12.325
12797SOL    HW140230   1.964   4.654  12.351
12797SOL    HW240231   2.036   4.787  12.356
12798SOL     OW40232   9.871   1.600  13.832
12798SOL    HW140233   9.958   1.579  13.866
12798SOL    HW240234   9.812   1.545  13.883
12799SOL     OW40235   7.137  11.170   8.649
12799SOL    HW140236   7.217  11.122   8.670
12799SOL    HW240237   7.088  11.172   8.731
12800SOL     OW40238   0.119   2.322   1.249
12800SOL    HW140239   0.034   2.352   1.281
12800SOL    HW240240   0.183   2.372   1.300
12801SOL     OW40241   9.570  10.404   2.419
12801SOL    HW140242   9.554  10.319   2.459
12801SOL    HW240243   9.665  10.408   2.406
12802SOL     OW40244   8.756  11.228   1.008
12802SOL    HW140245   8.703  11.256   1.083
12802SOL    HW240246   8.815  11.302   0.992
12803SOL     OW40247   6.487   6.212   7.839
12803SOL    HW140248   6.452   6.124   7.829
12803SOL    HW240249   6.483   6.250   7.751
12804SOL     OW40250   2.220   7.839  12.691
12804SOL    HW140251   2.157   7.796  12.750
12804SOL    HW240252   2.269   7.766  12.652
12805SOL     OW40253   8.568  11.924  14.530
12805SOL    HW140254   8.519  11.979  14.468
12805SOL    HW240255   8.546  11.960  14.616
12806SOL     OW40256   4.316   3.322   4.449
12806SOL    HW140257   4.295   3.385   4.380
12806SOL    HW240258   4.235   3.315   4.500
12807SOL     OW40259   1.416  14.811   4.727
12807SOL    HW140260   1.464  14.857   4.658
12807SOL    HW240261   1.410  14.875   4.798
12808SOL     OW40262  12.812  14.553   9.521
12808SOL    HW140263  12.732  14.506   9.499
12808SOL    HW240264  12.856  14.566   9.437
12809SOL     OW40265  13.600   6.323  11.749
12809SOL    HW140266  13.673   6.381  11.729
12809SOL    HW240267  13.525   6.363  11.705
12810SOL     OW40268   4.352   0.681   3.739
12810SOL    HW140269   4.307   0.728   3.810
12810SOL    HW240270   4.290   0.683   3.666
12811SOL     OW40271   5.595  10.663   7.123
12811SOL    HW140272   5.680  10.669   7.167
12811SOL    HW240273   5.599  10.730   7.054
12812SOL     OW40274   7.110  13.060   6.372
12812SOL    HW140275   7.170  12.995   6.409
12812SOL    HW240276   7.078  13.020   6.291
12813SOL     OW40277   7.468   4.073   0.372
12813SOL    HW140278   7.461   3.991   0.324
12813SOL    HW240279   7.556   4.105   0.353
12814SOL     OW40280   6.779   9.451   2.417
12814SOL    HW140281   6.860   9.403   2.399
12814SOL    HW240282   6.806   9.542   2.424
12815SOL     OW40283   7.279  11.807  11.664
12815SOL    HW140284   7.186  11.786  11.649
12815SOL    HW240285   7.316  11.728  11.702
12816SOL     OW40286  14.456   3.436   8.377
12816SOL    HW140287  14.491   3.370   8.436
12816SOL    HW240288  14.408   3.386   8.311
12817SOL     OW40289   7.837  14.168  13.621
12817SOL    HW140290   7.931  14.152  13.624
12817SOL    HW240291   7.825  14.229  13.548
12818SOL     OW40292  13.246   9.410  11.542
12818SOL    HW140293  13.267   9.472  11.612
12818SOL    HW240294  13.162   9.440  11.507
12819SOL     OW40295   7.272   6.976  14.677
12819SOL    HW140296   7.340   6.912  14.655
12819SOL    HW240297   7.222   6.935  14.748
12820SOL     OW40298  11.460   1.433   6.139
12820SOL    HW140299  11.556   1.431   6.141
12820SOL    HW240300  11.439   1.490   6.065
12821SOL     OW40301  14.755   4.777  13.822
12821SOL    HW140302  14.736   4.821  13.905
12821SOL    HW240303  14.796   4.844  13.768
12822SOL     OW40304   3.110   8.659  10.868
12822SOL    HW140305   3.132   8.567  10.884
12822SOL    HW240306   3.130   8.703  10.951
12823SOL     OW40307  10.099  12.032  12.350
12823SOL    HW140308  10.038  12.082  12.295
12823SOL    HW240309  10.144  12.098  12.402
12824SOL     OW40310   7.275  14.857   7.657
12824SOL    HW140311   7.201  14.796   7.658
12824SOL    HW240312   7.345  14.810   7.703
12825SOL     OW40313   8.467  13.251  14.758
12825SOL    HW140314   8.557  13.226  14.735
12825SOL    HW240315   8.415  13.172  14.741
12826SOL     OW40316  14.312   4.774  11.298
12826SOL    HW140317  14.330   4.852  11.351
12826SOL    HW240318  14.390   4.763  11.244
12827SOL     OW40319   6.169   9.931   9.602
12827SOL    HW140320   6.083   9.950   9.566
12827SOL    HW240321   6.155   9.855   9.659
12828SOL     OW40322  12.751   4.185  12.394
12828SOL    HW140323  12.801   4.169  12.474
12828SOL    HW240324  12.687   4.114  12.392
12829SOL     OW40325   2.112  14.236   3.405
12829SOL    HW140326   2.140  14.326   3.422
12829SOL    HW240327   2.156  14.212   3.323
12830SOL     OW40328  13.388   1.418   0.578
12830SOL    HW140329  13.307   1.469   0.573
12830SOL    HW240330  13.455   1.476   0.544
12831SOL     OW40331  11.280   6.755   3.222
12831SOL    HW140332  11.290   6.689   3.291
12831SOL    HW240333  11.192   6.741   3.189
12832SOL     OW40334   9.420  14.342   9.690
12832SOL    HW140335   9.389  14.374   9.774
12832SOL    HW240336   9.406  14.248   9.693
12833SOL     OW40337  12.460  11.538  14.330
12833SOL    HW140338  12.458  11.612  14.270
12833SOL    HW240339  12.441  11.576  14.416
12834SOL     OW40340   5.144   9.911   3.947
12834SOL    HW140341   5.128   9.954   4.031
12834SOL    HW240342   5.056   9.892   3.914
12835SOL     OW40343  14.675   6.929   4.154
12835SOL    HW140344  14.721   6.973   4.082
12835SOL    HW240345  14.665   6.997   4.221
12836SOL     OW40346   1.779   3.427   9.837
12836SOL    HW140347   1.841   3.485   9.793
12836SOL    HW240348   1.747   3.478   9.911
12837SOL     OW40349   8.485   7.846   2.222
12837SOL    HW140350   8.438   7.764   2.208
12837SOL    HW240351   8.498   7.882   2.135
12838SOL     OW40352  12.627   7.250   3.898
12838SOL    HW140353  12.634   7.345   3.897
12838SOL    HW240354  12.541   7.232   3.860
12839SOL     OW40355   1.794  12.845  11.216
12839SOL    HW140356   1.862  12.812  11.276
12839SOL    HW240357   1.823  12.817  11.129
12840SOL     OW40358   8.795   0.570   5.119
12840SOL    HW140359   8.787   0.630   5.045
12840SOL    HW240360   8.739   0.608   5.187
12841SOL     OW40361   5.745   2.195  14.211
12841SOL    HW140362   5.797   2.236  14.142
12841SOL    HW240363   5.789   2.112  14.229
12842SOL     OW40364   9.630   4.701   7.151
12842SOL    HW140365   9.665   4.766   7.090
12842SOL    HW240366   9.594   4.633   7.095
12843SOL     OW40367   7.247   2.628  14.746
12843SOL    HW140368   7.209   2.542  14.730
12843SOL    HW240369   7.190   2.689  14.699
12844SOL     OW40370   6.887  12.095  11.270
12844SOL    HW140371   6.958  12.076  11.208
12844SOL    HW240372   6.901  12.187  11.294
12845SOL     OW40373   8.457   6.297   1.400
12845SOL    HW140374   8.392   6.364   1.378
12845SOL    HW240375   8.418   6.215   1.370
12846SOL     OW40376   6.538   0.962   1.865
12846SOL    HW140377   6.558   1.034   1.925
12846SOL    HW240378   6.445   0.945   1.878
12847SOL     OW40379   7.126   7.149   8.183
12847SOL    HW140380   7.186   7.223   8.188
12847SOL    HW240381   7.041   7.185   8.210
12848SOL     OW40382   0.321   9.959   8.282
12848SOL    HW140383   0.359   9.914   8.358
12848SOL    HW240384   0.389  10.020   8.254
12849SOL     OW40385   6.262   6.830   9.955
12849SOL    HW140386   6.186   6.811   9.900
12849SOL    HW240387   6.337   6.829   9.895
12850SOL     OW40388   0.321  10.590   5.911
12850SOL    HW140389   0.239  10.553   5.944
12850SOL    HW240390   0.317  10.682   5.936
12851SOL     OW40391   4.509   4.480  13.432
12851SOL    HW140392   4.423   4.500  13.397
12851SOL    HW240393   4.563   4.463  13.355
12852SOL     OW40394   9.436   8.285   3.567
12852SOL    HW140395   9.477   8.247   3.489
12852SOL    HW240396   9.509   8.310   3.623
12853SOL     OW40397  11.605   8.795  14.558
12853SOL    HW140398  11.529   8.783  14.501
12853SOL    HW240399  11.602   8.721  14.619
12854SOL     OW40400   9.209   0.751  11.526
12854SOL    HW140401   9.223   0.657  11.514
12854SOL    HW240402   9.295   0.790  11.515
12855SOL     OW40403   8.114   3.358  14.737
12855SOL    HW140404   8.128   3.453  14.734
12855SOL    HW240405   8.185   3.325  14.792
12856SOL     OW40406   6.866   9.416   8.690
12856SOL    HW140407   6.783   9.454   8.716
12856SOL    HW240408   6.844   9.355   8.619
12857SOL     OW40409   8.784   3.919  12.056
12857SOL    HW140410   8.781   3.853  11.987
12857SOL    HW240411   8.751   3.999  12.015
12858SOL     OW40412  14.307  14.452  13.820
12858SOL    HW140413  14.245  14.443  13.748
12858SOL    HW240414  14.279  14.387  13.884
12859SOL     OW40415   8.859   6.538   4.769
12859SOL    HW140416   8.796   6.585   4.823
12859SOL    HW240417   8.821   6.450   4.758
12860SOL     OW40418   0.758   8.643   1.388
12860SOL    HW140419   0.803   8.559   1.390
12860SOL    HW240420   0.666   8.622   1.402
12861SOL     OW40421   0.272   0.797   8.499
12861SOL    HW140422   0.236   0.835   8.579
12861SOL    HW240423   0.335   0.731   8.529
12862SOL     OW40424   1.257   6.085  13.267
12862SOL    HW140425   1.219   6.103  13.353
12862SOL    HW240426   1.227   5.996  13.246
12863SOL     OW40427  13.556  12.325   2.070
12863SOL    HW140428  13.508  12.248   2.101
12863SOL    HW240429  13.611  12.351   2.144
12864SOL     OW40430  10.054   7.215  12.350
12864SOL    HW140431  10.038   7.307  12.329
12864SOL    HW240432   9.996   7.197  12.424
12865SOL     OW40433   1.458  14.476   8.451
12865SOL    HW140434   1.433  14.399   8.501
12865SOL    HW240435   1.405  14.547   8.487
12866SOL     OW40436   8.614   0.004   3.330
12866SOL    HW140437   8.686   0.040   3.278
12866SOL    HW240438   8.620   0.049   3.414
12867SOL     OW40439   5.869   3.646  10.244
12867SOL    HW140440   5.922   3.726  10.251
12867SOL    HW240441   5.913   3.584  10.303
12868SOL     OW40442   9.828   3.828   2.407
12868SOL    HW140443   9.809   3.740   2.440
12868SOL    HW240444   9.839   3.881   2.486
12869SOL     OW40445   9.364   5.421   5.369
12869SOL    HW140446   9.274   5.423   5.339
12869SOL    HW240447   9.359   5.386   5.458
12870SOL     OW40448   4.890  14.773   8.588
12870SOL    HW140449   4.906  14.868   8.583
12870SOL    HW240450   4.961  14.740   8.643
12871SOL     OW40451   1.088  13.988  12.070
12871SOL    HW140452   1.118  13.899  12.051
12871SOL    HW240453   1.168  14.041  12.066
12872SOL     OW40454  12.499   8.209   3.414
12872SOL    HW140455  12.562   8.281   3.422
12872SOL    HW240456  12.429   8.232   3.476
12873SOL     OW40457  14.014   0.337  11.219
12873SOL    HW140458  14.095   0.305  11.178
12873SOL    HW240459  14.020   0.309  11.310
12874SOL     OW40460  11.340   4.595   5.749
12874SOL    HW140461  11.337   4.522   5.686
12874SOL    HW240462  11.293   4.563   5.826
12875SOL     OW40463   4.131  12.671   7.817
12875SOL    HW140464   4.045  12.708   7.832
12875SOL    HW240465   4.181  12.743   7.777
12876SOL     OW40466  12.214   3.115  11.536
12876SOL    HW140467  12.188   3.030  11.501
12876SOL    HW240468  12.245   3.164  11.459
12877SOL     OW40469  11.908   9.961   0.140
12877SOL    HW140470  11.883   9.959   0.232
12877SOL    HW240471  11.958  10.042   0.130
12878SOL     OW40472   2.146   6.388   7.007
12878SOL    HW140473   2.092   6.462   7.035
12878SOL    HW240474   2.083   6.321   6.982
12879SOL     OW40475   9.474  13.185   7.780
12879SOL    HW140476   9.437  13.231   7.855
12879SOL    HW240477   9.440  13.232   7.704
12880SOL     OW40478  14.194  10.548  11.542
12880SOL    HW140479  14.102  10.574  11.550
12880SOL    HW240480  14.223  10.588  11.461
12881SOL     OW40481   1.239   2.665   5.092
12881SOL    HW140482   1.316   2.611   5.073
12881SOL    HW240483   1.261   2.751   5.057
12882SOL     OW40484   6.854   2.797  10.414
12882SOL    HW140485   6.944   2.775  10.439
12882SOL    HW240486   6.858   2.889  10.387
12883SOL     OW40487   6.699  10.356  10.507
12883SOL    HW140488   6.622  10.354  10.563
12883SOL    HW240489   6.715  10.264  10.484
12884SOL     OW40490   7.211   6.605  10.877
12884SOL    HW140491   7.246   6.544  10.943
12884SOL    HW240492   7.234   6.692  10.910
12885SOL     OW40493   2.064  10.717  14.532
12885SOL    HW140494   2.131  10.649  14.534
12885SOL    HW240495   2.032  10.722  14.622
12886SOL     OW40496   7.374  11.558   6.330
12886SOL    HW140497   7.439  11.588   6.267
12886SOL    HW240498   7.328  11.487   6.286
12887SOL     OW40499   8.832  10.460   4.528
12887SOL    HW140500   8.765  10.440   4.593
12887SOL    HW240501   8.797  10.535   4.480
12888SOL     OW40502   8.026  13.799  10.214
12888SOL    HW140503   8.018  13.736  10.142
12888SOL    HW240504   7.960  13.866  10.195
12889SOL     OW40505   5.640   0.758   2.081
12889SOL    HW140506   5.648   0.769   1.986
12889SOL    HW240507   5.730   0.761   2.113
12890SOL     OW40508   7.149   5.930  12.055
12890SOL    HW140509   7.229   5.947  12.005
12890SOL    HW240510   7.142   6.004  12.115
12891SOL     OW40511   9.562   9.646  10.293
12891SOL    HW140512   9.480   9.627  10.339
12891SOL    HW240513   9.548   9.613  10.204
12892SOL     OW40514   4.774   2.990  12.141
12892SOL    HW140515   4.692   3.000  12.093
12892SOL    HW240516   4.777   2.898  12.167
12893SOL     OW40517   4.926   3.639   3.251
12893SOL    HW140518   4.958   3.554   3.280
12893SOL    HW240519   4.882   3.676   3.328
12894SOL     OW40520   6.188   2.352  12.208
12894SOL    HW140521   6.210   2.261  12.189
12894SOL    HW240522   6.225   2.402  12.135
12895SOL     OW40523   1.832   5.998  11.543
12895SOL    HW140524   1.881   5.982  11.623
12895SOL    HW240525   1.876   5.945  11.477
12896SOL     OW40526   0.996  14.141   9.300
12896SOL    HW140527   1.036  14.077   9.241
12896SOL    HW240528   1.019  14.226   9.263
12897SOL     OW40529  13.909  12.757  11.141
12897SOL    HW140530  13.992  12.708  11.142
12897SOL    HW240531  13.869  12.734  11.057
12898SOL     OW40532   8.996  13.052   4.893
12898SOL    HW140533   8.955  13.002   4.822
12898SOL    HW240534   8.962  13.141   4.883
12899SOL     OW40535  11.947  12.223  11.310
12899SOL    HW140536  11.976  12.277  11.237
12899SOL    HW240537  12.026  12.212  11.364
12900SOL     OW40538  11.535  11.266   7.975
12900SOL    HW140539  11.459  11.256   7.917
12900SOL    HW240540  11.569  11.177   7.985
12901SOL     OW40541   0.145   7.706  13.318
12901SOL    HW140542   0.115   7.627  13.274
12901SOL    HW240543   0.231   7.684  13.353
12902SOL     OW40544   3.913  11.400  11.287
12902SOL    HW140545   4.004  11.408  11.317
12902SOL    HW240546   3.920  11.365  11.198
12903SOL     OW40547   0.206   3.366   1.586
12903SOL    HW140548   0.195   3.288   1.532
12903SOL    HW240549   0.120   3.380   1.626
12904SOL     OW40550   3.412  13.447   9.838
12904SOL    HW140551   3.490  13.413   9.794
12904SOL    HW240552   3.425  13.426   9.930
12905SOL     OW40553   9.507   6.741   1.594
12905SOL    HW140554   9.429   6.768   1.644
12905SOL    HW240555   9.578   6.744   1.658
12906SOL     OW40556   5.269   0.917   5.487
12906SOL    HW140557   5.196   0.975   5.466
12906SOL    HW240558   5.336   0.938   5.422
12907SOL     OW40559   4.323   5.492   5.996
12907SOL    HW140560   4.284   5.555   6.057
12907SOL    HW240561   4.395   5.452   6.046
12908SOL     OW40562   2.042  14.478   4.442
12908SOL    HW140563   2.047  14.455   4.535
12908SOL    HW240564   1.951  14.504   4.428
12909SOL     OW40565   1.540   3.487  12.550
12909SOL    HW140566   1.573   3.436  12.476
12909SOL    HW240567   1.610   3.549  12.570
12910SOL     OW40568  12.448   2.863  11.026
12910SOL    HW140569  12.425   2.898  10.940
12910SOL    HW240570  12.536   2.826  11.013
12911SOL     OW40571   4.988  11.634   3.219
12911SOL    HW140572   5.044  11.639   3.296
12911SOL    HW240573   4.983  11.724   3.187
12912SOL     OW40574   6.171   8.885   7.831
12912SOL    HW140575   6.142   8.949   7.766
12912SOL    HW240576   6.232   8.828   7.785
12913SOL     OW40577  13.406   7.662   4.249
12913SOL    HW140578  13.354   7.615   4.184
12913SOL    HW240579  13.462   7.595   4.288
12914SOL     OW40580  11.573   8.358   9.394
12914SOL    HW140581  11.504   8.339   9.457
12914SOL    HW240582  11.543   8.318   9.312
12915SOL     OW40583   0.846   2.664  13.466
12915SOL    HW140584   0.839   2.759  13.455
12915SOL    HW240585   0.867   2.652  13.559
12916SOL     OW40586   9.148   5.429   7.762
12916SOL    HW140587   9.129   5.479   7.682
12916SOL    HW240588   9.079   5.455   7.823
12917SOL     OW40589  14.632  13.187   6.541
12917SOL    HW140590  14.601  13.197   6.631
12917SOL    HW240591  14.709  13.244   6.535
12918SOL     OW40592  11.560   4.364   9.194
12918SOL    HW140593  11.579   4.384   9.102
12918SOL    HW240594  11.619   4.292   9.215
12919SOL     OW40595  10.034  11.854   2.419
12919SOL    HW140596   9.959  11.809   2.381
12919SOL    HW240597  10.005  11.881   2.506
12920SOL     OW40598   4.744   2.041   1.558
12920SOL    HW140599   4.708   1.962   1.599
12920SOL    HW240600   4.667   2.095   1.539
12921SOL     OW40601   6.652  13.977   8.281
12921SOL    HW140602   6.581  13.984   8.216
12921SOL    HW240603   6.682  13.887   8.273
12922SOL     OW40604   1.552  11.822   0.136
12922SOL    HW140605   1.523  11.740   0.175
12922SOL    HW240606   1.585  11.873   0.210
12923SOL     OW40607   8.816   6.729   1.005
12923SOL    HW140608   8.839   6.646   1.047
12923SOL    HW240609   8.897   6.780   1.006
12924SOL     OW40610  11.375   4.316  12.620
12924SOL    HW140611  11.462   4.348  12.598
12924SOL    HW240612  11.371   4.228  12.583
12925SOL     OW40613   2.859  10.579   9.407
12925SOL    HW140614   2.837  10.526   9.330
12925SOL    HW240615   2.955  10.573   9.413
12926SOL     OW40616  11.847   6.912   7.199
12926SOL    HW140617  11.882   6.986   7.148
12926SOL    HW240618  11.923   6.860   7.222
12927SOL     OW40619   0.978   6.732   7.169
12927SOL    HW140620   0.926   6.805   7.203
12927SOL    HW240621   1.014   6.766   7.086
12928SOL     OW40622  12.007  13.204  11.685
12928SOL    HW140623  11.953  13.245  11.618
12928SOL    HW240624  12.086  13.259  11.690
12929SOL     OW40625   1.659  11.801  10.566
12929SOL    HW140626   1.632  11.813  10.657
12929SOL    HW240627   1.600  11.734  10.531
12930SOL     OW40628   0.556   3.454   6.098
12930SOL    HW140629   0.482   3.428   6.043
12930SOL    HW240630   0.538   3.415   6.184
12931SOL     OW40631   9.627  13.436  13.848
12931SOL    HW140632   9.679  13.473  13.919
12931SOL    HW240633   9.567  13.506  13.824
12932SOL     OW40634   2.868  11.429   5.760
12932SOL    HW140635   2.832  11.431   5.849
12932SOL    HW240636   2.895  11.338   5.748
12933SOL     OW40637   7.208   9.601  13.810
12933SOL    HW140638   7.121   9.569  13.785
12933SOL    HW240639   7.268   9.545  13.760
12934SOL     OW40640   9.392   8.223  13.477
12934SOL    HW140641   9.420   8.194  13.565
12934SOL    HW240642   9.367   8.142  13.433
12935SOL     OW40643   9.270  14.137   4.854
12935SOL    HW140644   9.298  14.216   4.809
12935SOL    HW240645   9.248  14.166   4.943
12936SOL     OW40646   4.739   9.690   8.962
12936SOL    HW140647   4.751   9.713   9.054
12936SOL    HW240648   4.782   9.605   8.952
12937SOL     OW40649  14.015   1.012  11.386
12937SOL    HW140650  14.081   1.038  11.323
12937SOL    HW240651  14.001   0.918  11.369
12938SOL     OW40652  12.046   1.412   2.849
12938SOL    HW140653  11.965   1.452   2.879
12938SOL    HW240654  12.109   1.429   2.919
12939SOL     OW40655  11.394   8.513   3.315
12939SOL    HW140656  11.329   8.458   3.358
12939SOL    HW240657  11.369   8.602   3.340
12940SOL     OW40658   9.686  11.587   2.090
12940SOL    HW140659   9.618  11.639   2.134
12940SOL    HW240660   9.677  11.499   2.128
12941SOL     OW40661   6.904   6.335   9.077
12941SOL    HW140662   6.821   6.371   9.107
12941SOL    HW240663   6.883   6.294   8.993
12942SOL     OW40664   0.373   6.632  12.678
12942SOL    HW140665   0.404   6.601  12.762
12942SOL    HW240666   0.278   6.642  12.689
12943SOL     OW40667   2.033  11.506   9.121
12943SOL    HW140668   2.120  11.544   9.107
12943SOL    HW240669   1.975  11.560   9.068
12944SOL     OW40670   3.895   9.667  12.895
12944SOL    HW140671   3.816   9.718  12.877
12944SOL    HW240672   3.927   9.702  12.979
12945SOL     OW40673   0.397   1.630   4.404
12945SOL    HW140674   0.398   1.719   4.368
12945SOL    HW240675   0.308   1.599   4.390
12946SOL     OW40676  12.782   5.843   2.486
12946SOL    HW140677  12.820   5.863   2.572
12946SOL    HW240678  12.705   5.789   2.507
12947SOL     OW40679   3.157   4.464   7.963
12947SOL    HW140680   3.186   4.440   8.051
12947SOL    HW240681   3.065   4.489   7.975
12948SOL     OW40682   3.345  13.553  14.625
12948SOL    HW140683   3.337  13.472  14.675
12948SOL    HW240684   3.427  13.592  14.654
12949SOL     OW40685   9.672   7.050  12.697
12949SOL    HW140686   9.701   6.964  12.730
12949SOL    HW240687   9.718   7.113  12.751
12950SOL     OW40688   6.226   8.689   8.229
12950SOL    HW140689   6.145   8.656   8.270
12950SOL    HW240690   6.296   8.641   8.273
12951SOL     OW40691   9.268   5.176   8.385
12951SOL    HW140692   9.182   5.161   8.423
12951SOL    HW240693   9.250   5.209   8.297
12952SOL     OW40694   0.834   6.218  14.227
12952SOL    HW140695   0.882   6.172  14.158
12952SOL    HW240696   0.743   6.215  14.198
12953SOL     OW40697   7.188   5.154   7.339
12953SOL    HW140698   7.263   5.211   7.322
12953SOL    HW240699   7.224   5.083   7.393
12954SOL     OW40700   5.337   9.141  11.081
12954SOL    HW140701   5.284   9.092  11.018
12954SOL    HW240702   5.428   9.118  11.059
12955SOL     OW40703   0.113   2.480   7.060
12955SOL    HW140704   0.107   2.391   7.027
12955SOL    HW240705   0.023   2.513   7.059
12956SOL     OW40706  14.101   9.214   6.752
12956SOL    HW140707  14.154   9.234   6.675
12956SOL    HW240708  14.019   9.178   6.716
12957SOL     OW40709   0.845   4.505  12.767
12957SOL    HW140710   0.795   4.518  12.848
12957SOL    HW240711   0.918   4.567  12.774
12958SOL     OW40712   1.555  10.201   5.485
12958SOL    HW140713   1.534  10.187   5.577
12958SOL    HW240714   1.649  10.182   5.480
12959SOL     OW40715  11.934   8.218   1.460
12959SOL    HW140716  11.864   8.251   1.516
12959SOL    HW240717  11.959   8.293   1.406
12960SOL     OW40718   0.892  14.875  14.338
12960SOL    HW140719   0.960   0.037  14.393
12960SOL    HW240720   0.940  14.822  14.274
12961SOL     OW40721   3.256   7.484   3.297
12961SOL    HW140722   3.311   7.432   3.356
12961SOL    HW240723   3.171   7.487   3.340
12962SOL     OW40724  12.849   3.146   3.102
12962SOL    HW140725  12.934   3.102   3.106
12962SOL    HW240726  12.871   3.239   3.101
12963SOL     OW40727   9.404   0.138   3.557
12963SOL    HW140728   9.321   0.143   3.510
12963SOL    HW240729   9.388   0.073   3.626
12964SOL     OW40730   4.343  10.397   9.966
12964SOL    HW140731   4.359  10.314   9.921
12964SOL    HW240732   4.267  10.434   9.922
12965SOL     OW40733   2.589   6.920   7.352
12965SOL    HW140734   2.613   6.956   7.438
12965SOL    HW240735   2.662   6.863   7.328
12966SOL     OW40736  10.686   0.954   2.319
12966SOL    HW140737  10.736   0.944   2.238
12966SOL    HW240738  10.597   0.974   2.289
12967SOL     OW40739   3.389   0.796   5.172
12967SOL    HW140740   3.447   0.845   5.115
12967SOL    HW240741   3.444   0.726   5.208
12968SOL     OW40742   7.418   2.426   7.528
12968SOL    HW140743   7.460   2.494   7.579
12968SOL    HW240744   7.487   2.361   7.513
12969SOL     OW40745   7.100  14.276   7.297
12969SOL    HW140746   7.114  14.187   7.266
12969SOL    HW240747   7.045  14.316   7.229
12970SOL     OW40748   3.624  10.106   0.603
12970SOL    HW140749   3.598  10.196   0.621
12970SOL    HW240750   3.696  10.089   0.663
12971SOL     OW40751  13.895   4.136   9.106
12971SOL    HW140752  13.900   4.212   9.163
12971SOL    HW240753  13.816   4.090   9.133
12972SOL     OW40754   8.098   5.555   7.606
12972SOL    HW140755   8.159   5.598   7.546
12972SOL    HW240756   8.123   5.587   7.693
12973SOL     OW40757  14.469   2.409   7.803
12973SOL    HW140758  14.562   2.411   7.826
12973SOL    HW240759  14.437   2.496   7.826
12974SOL     OW40760   7.259   4.413   8.951
12974SOL    HW140761   7.265   4.443   8.861
12974SOL    HW240762   7.182   4.356   8.952
12975SOL     OW40763   0.096   0.192   5.725
12975SOL    HW140764   0.068   0.280   5.700
12975SOL    HW240765   0.093   0.192   5.821
12976SOL     OW40766   7.277  11.694  14.848
12976SOL    HW140767   7.330  11.670   0.048
12976SOL    HW240768   7.322  11.771  14.812
12977SOL     OW40769  10.560   7.465   0.072
12977SOL    HW140770  10.482   7.413   0.050
12977SOL    HW240771  10.624   7.440   0.006
12978SOL     OW40772  11.709   2.191  12.136
12978SOL    HW140773  11.708   2.112  12.189
12978SOL    HW240774  11.791   2.234  12.158
12979SOL     OW40775   0.902  11.069   6.623
12979SOL    HW140776   0.973  11.025   6.575
12979SOL    HW240777   0.894  11.154   6.579
12980SOL     OW40778   4.611  10.265   6.469
12980SOL    HW140779   4.669  10.194   6.444
12980SOL    HW240780   4.524  10.224   6.475
12981SOL     OW40781   5.050   7.762  14.198
12981SOL    HW140782   4.988   7.797  14.134
12981SOL    HW240783   5.036   7.668  14.196
12982SOL     OW40784   6.171   6.393  14.688
12982SOL    HW140785   6.160   6.363  14.778
12982SOL    HW240786   6.262   6.370  14.666
12983SOL     OW40787   8.312  13.005   3.808
12983SOL    HW140788   8.277  12.918   3.787
12983SOL    HW240789   8.347  13.038   3.725
12984SOL     OW40790   9.122   4.612   3.714
12984SOL    HW140791   9.098   4.659   3.634
12984SOL    HW240792   9.038   4.588   3.753
12985SOL     OW40793  11.789  12.827   1.049
12985SOL    HW140794  11.870  12.860   1.011
12985SOL    HW240795  11.805  12.827   1.144
12986SOL     OW40796   6.586  10.402   8.472
12986SOL    HW140797   6.648  10.426   8.403
12986SOL    HW240798   6.587  10.476   8.532
12987SOL     OW40799   5.779  13.280   8.858
12987SOL    HW140800   5.756  13.289   8.766
12987SOL    HW240801   5.694  13.267   8.902
12988SOL     OW40802   0.051  13.659   5.716
12988SOL    HW140803  14.842  13.646   5.675
12988SOL    HW240804   0.042  13.741   5.764
12989SOL     OW40805   9.982   7.613   8.169
12989SOL    HW140806   9.951   7.688   8.219
12989SOL    HW240807  10.057   7.580   8.218
12990SOL     OW40808   9.555  11.556   8.255
12990SOL    HW140809   9.488  11.617   8.223
12990SOL    HW240810   9.632  11.576   8.202
12991SOL     OW40811   0.502  14.539  11.539
12991SOL    HW140812   0.487  14.449  11.512
12991SOL    HW240813   0.522  14.534  11.632
12992SOL     OW40814   8.563   6.927  10.808
12992SOL    HW140815   8.551   6.876  10.888
12992SOL    HW240816   8.490   6.902  10.751
12993SOL     OW40817  13.452   3.939  13.969
12993SOL    HW140818  13.463   3.894  13.885
12993SOL    HW240819  13.523   4.003  13.972
12994SOL     OW40820  13.667   0.475  14.115
12994SOL    HW140821  13.636   0.506  14.200
12994SOL    HW240822  13.612   0.399  14.095
12995SOL     OW40823   7.533   6.562   3.919
12995SOL    HW140824   7.576   6.515   3.991
12995SOL    HW240825   7.602   6.615   3.880
12996SOL     OW40826   5.069  12.400   1.299
12996SOL    HW140827   5.019  12.321   1.279
12996SOL    HW240828   5.014  12.448   1.361
12997SOL     OW40829   1.861   7.021   6.645
12997SOL    HW140830   1.919   6.990   6.716
12997SOL    HW240831   1.782   7.051   6.690
12998SOL     OW40832   7.434   5.069   5.104
12998SOL    HW140833   7.416   5.077   5.198
12998SOL    HW240834   7.403   5.151   5.067
12999SOL     OW40835  11.809  14.383  12.514
12999SOL    HW140836  11.860  14.307  12.543
12999SOL    HW240837  11.842  14.456  12.567
13000SOL     OW40838   8.667   0.466  14.544
13000SOL    HW140839   8.737   0.451  14.479
13000SOL    HW240840   8.704   0.532  14.603
13001SOL     OW40841  13.839  10.171  11.981
13001SOL    HW140842  13.893  10.250  11.973
13001SOL    HW240843  13.852  10.141  12.070
13002SOL     OW40844   8.289  11.566  13.701
13002SOL    HW140845   8.305  11.543  13.793
13002SOL    HW240846   8.372  11.548  13.657
13003SOL     OW40847  11.312   3.193  14.693
13003SOL    HW140848  11.352   3.166  14.775
13003SOL    HW240849  11.343   3.283  14.679
13004SOL     OW40850   6.321   3.371  14.108
13004SOL    HW140851   6.384   3.337  14.045
13004SOL    HW240852   6.356   3.455  14.135
13005SOL     OW40853   0.853   8.033  12.412
13005SOL    HW140854   0.875   8.077  12.330
13005SOL    HW240855   0.898   8.084  12.480
13006SOL     OW40856  12.177  13.732   0.016
13006SOL    HW140857  12.086  13.714   0.040
13006SOL    HW240858  12.198  13.813   0.062
13007SOL     OW40859  12.877   3.164  10.584
13007SOL    HW140860  12.896   3.098  10.650
13007SOL    HW240861  12.887   3.248  10.629
13008SOL     OW40862   7.010   6.477   9.353
13008SOL    HW140863   7.021   6.443   9.264
13008SOL    HW240864   7.056   6.561   9.352
13009SOL     OW40865   9.560  14.789  13.195
13009SOL    HW140866   9.509  14.869  13.177
13009SOL    HW240867   9.502  14.736  13.249
13010SOL     OW40868  10.569   4.516  10.201
13010SOL    HW140869  10.632   4.465  10.150
13010SOL    HW240870  10.590   4.496  10.292
13011SOL     OW40871   7.479  11.630   2.641
13011SOL    HW140872   7.449  11.607   2.729
13011SOL    HW240873   7.568  11.593   2.636
13012SOL     OW40874   7.176   5.125   2.692
13012SOL    HW140875   7.241   5.182   2.733
13012SOL    HW240876   7.217   5.099   2.609
13013SOL     OW40877   9.928   8.815   9.550
13013SOL    HW140878   9.962   8.797   9.462
13013SOL    HW240879  10.007   8.827   9.603
13014SOL     OW40880   6.210   3.061   4.351
13014SOL    HW140881   6.165   3.041   4.433
13014SOL    HW240882   6.224   2.976   4.309
13015SOL     OW40883   1.162   4.562   9.858
13015SOL    HW140884   1.090   4.539   9.917
13015SOL    HW240885   1.211   4.481   9.846
13016SOL     OW40886   7.747  12.297   6.484
13016SOL    HW140887   7.679  12.273   6.421
13016SOL    HW240888   7.808  12.350   6.434
13017SOL     OW40889   7.485   1.202   6.432
13017SOL    HW140890   7.504   1.113   6.460
13017SOL    HW240891   7.517   1.207   6.342
13018SOL     OW40892  10.230   7.514   3.136
13018SOL    HW140893  10.285   7.586   3.167
13018SOL    HW240894  10.250   7.508   3.043
13019SOL     OW40895  10.959  14.772  11.883
13019SOL    HW140896  11.050  14.747  11.868
13019SOL    HW240897  10.942  14.752  11.975
13020SOL     OW40898   8.057  13.666   1.027
13020SOL    HW140899   8.109  13.731   1.074
13020SOL    HW240900   8.115  13.635   0.957
13021SOL     OW40901  14.530   5.274  12.689
13021SOL    HW140902  14.623   5.277  12.666
13021SOL    HW240903  14.487   5.241  12.611
13022SOL     OW40904  14.329   2.297  11.920
13022SOL    HW140905  14.297   2.382  11.890
13022SOL    HW240906  14.301   2.235  11.853
13023SOL     OW40907   2.029   6.203   6.470
13023SOL    HW140908   1.934   6.209   6.458
13023SOL    HW240909   2.062   6.166   6.388
13024SOL     OW40910  12.619   9.918   7.805
13024SOL    HW140911  12.647   9.928   7.896
13024SOL    HW240912  12.657   9.994   7.760
13025SOL     OW40913  11.536  10.105   1.273
13025SOL    HW140914  11.458  10.087   1.325
13025SOL    HW240915  11.504  10.115   1.183
13026SOL     OW40916  12.332  13.439   6.350
13026SOL    HW140917  12.407  13.437   6.291
13026SOL    HW240918  12.282  13.360   6.327
13027SOL     OW40919   9.176  11.757   0.870
13027SOL    HW140920   9.119  11.819   0.916
13027SOL    HW240921   9.264  11.793   0.879
13028SOL     OW40922   5.312  13.300  10.382
13028SOL    HW140923   5.287  13.338  10.298
13028SOL    HW240924   5.314  13.375  10.442
13029SOL     OW40925   8.309   3.022   6.499
13029SOL    HW140926   8.233   2.967   6.513
13029SOL    HW240927   8.371   2.995   6.567
13030SOL     OW40928   1.720   9.313   1.920
13030SOL    HW140929   1.749   9.400   1.893
13030SOL    HW240930   1.724   9.261   1.840
13031SOL     OW40931   6.389   1.412   8.530
13031SOL    HW140932   6.324   1.370   8.474
13031SOL    HW240933   6.461   1.348   8.534
13032SOL     OW40934   1.345  14.477   1.685
13032SOL    HW140935   1.254  14.501   1.666
13032SOL    HW240936   1.340  14.428   1.767
13033SOL     OW40937   6.287   8.565   1.797
13033SOL    HW140938   6.234   8.563   1.718
13033SOL    HW240939   6.341   8.643   1.789
13034SOL     OW40940   0.898   0.571  10.424
13034SOL    HW140941   0.950   0.526  10.490
13034SOL    HW240942   0.880   0.504  10.357
13035SOL     OW40943   6.737  11.438   6.117
13035SOL    HW140944   6.700  11.461   6.031
13035SOL    HW240945   6.831  11.458   6.108
13036SOL     OW40946   1.819  10.842  13.154
13036SOL    HW140947   1.846  10.758  13.117
13036SOL    HW240948   1.732  10.858  13.117
13037SOL     OW40949   5.863   0.852   0.231
13037SOL    HW140950   5.852   0.757   0.232
13037SOL    HW240951   5.931   0.867   0.165
13038SOL     OW40952  14.589   6.244   2.830
13038SOL    HW140953  14.555   6.329   2.803
13038SOL    HW240954  14.682   6.258   2.845
13039SOL     OW40955  14.798  11.485  12.744
13039SOL    HW140956  14.761  11.489  12.832
13039SOL    HW240957   0.015  11.497  12.757
13040SOL     OW40958  13.630   0.981   2.473
13040SOL    HW140959  13.668   1.059   2.433
13040SOL    HW240960  13.553   0.961   2.420
13041SOL     OW40961  11.250   3.079   9.312
13041SOL    HW140962  11.264   2.985   9.320
13041SOL    HW240963  11.336   3.114   9.289
13042SOL     OW40964  11.959  14.483  14.480
13042SOL    HW140965  11.940  14.415  14.415
13042SOL    HW240966  11.902  14.556  14.456
13043SOL     OW40967   6.740   1.655  10.734
13043SOL    HW140968   6.781   1.577  10.772
13043SOL    HW240969   6.670   1.678  10.796
13044SOL     OW40970   9.850  12.642  13.621
13044SOL    HW140971   9.780  12.605  13.676
13044SOL    HW240972   9.879  12.568  13.568
13045SOL     OW40973  10.696   6.139   8.025
13045SOL    HW140974  10.603   6.127   8.039
13045SOL    HW240975  10.701   6.200   7.951
13046SOL     OW40976  11.726   9.507  14.338
13046SOL    HW140977  11.719   9.444  14.266
13046SOL    HW240978  11.667   9.473  14.406
13047SOL     OW40979  14.050   8.171  12.325
13047SOL    HW140980  14.044   8.156  12.231
13047SOL    HW240981  14.059   8.083  12.363
13048SOL     OW40982   0.532  12.222  13.970
13048SOL    HW140983   0.615  12.270  13.975
13048SOL    HW240984   0.465  12.285  13.993
13049SOL     OW40985   9.061  13.577  12.679
13049SOL    HW140986   9.084  13.579  12.772
13049SOL    HW240987   9.092  13.491  12.649
13050SOL     OW40988   6.062   4.467   9.220
13050SOL    HW140989   6.047   4.386   9.172
13050SOL    HW240990   6.112   4.440   9.298
13051SOL     OW40991   6.330  12.245   3.751
13051SOL    HW140992   6.384  12.323   3.765
13051SOL    HW240993   6.377  12.175   3.796
13052SOL     OW40994  10.827   1.139  13.601
13052SOL    HW140995  10.849   1.213  13.658
13052SOL    HW240996  10.810   1.067  13.662
13053SOL     OW40997  11.123  10.645   8.843
13053SOL    HW140998  11.087  10.670   8.928
13053SOL    HW240999  11.218  10.646   8.856
13054SOL     OW41000   5.019   9.035   4.225
13054SOL    HW141001   4.931   8.998   4.236
13054SOL    HW241002   5.050   8.999   4.142
13055SOL     OW41003   8.883   9.043   6.123
13055SOL    HW141004   8.864   8.951   6.137
13055SOL    HW241005   8.813   9.073   6.065
13056SOL     OW41006   9.127   6.978   0.755
13056SOL    HW141007   9.162   6.943   0.837
13056SOL    HW241008   9.171   7.062   0.744
13057SOL     OW41009   0.448  10.971   9.754
13057SOL    HW141010   0.520  11.034   9.750
13057SOL    HW241011   0.370  11.025   9.743
13058SOL     OW41012   1.859   8.823  14.836
13058SOL    HW141013   1.765   8.819  14.819
13058SOL    HW241014   1.898   8.766  14.770
13059SOL     OW41015  10.270   5.021   9.693
13059SOL    HW141016  10.336   5.081   9.729
13059SOL    HW241017  10.207   5.079   9.650
13060SOL     OW41018   8.309   1.336   3.023
13060SOL    HW141019   8.296   1.411   2.965
13060SOL    HW241020   8.223   1.295   3.028
13061SOL     OW41021   4.202   3.488  13.651
13061SOL    HW141022   4.179   3.469  13.560
13061SOL    HW241023   4.260   3.416  13.676
13062SOL     OW41024   8.157   6.437   9.484
13062SOL    HW141025   8.129   6.460   9.572
13062SOL    HW241026   8.079   6.448   9.430
13063SOL     OW41027   9.024   8.796  10.460
13063SOL    HW141028   9.052   8.883  10.431
13063SOL    HW241029   9.055   8.736  10.392
13064SOL     OW41030   3.769   0.728   6.318
13064SOL    HW141031   3.792   0.807   6.270
13064SOL    HW241032   3.805   0.656   6.265
13065SOL     OW41033   8.661   8.450   9.707
13065SOL    HW141034   8.636   8.404   9.787
13065SOL    HW241035   8.740   8.404   9.677
13066SOL     OW41036   5.304   9.452  13.505
13066SOL    HW141037   5.222   9.425  13.465
13066SOL    HW241038   5.324   9.537  13.466
13067SOL     OW41039  11.815   0.143   8.420
13067SOL    HW141040  11.779   0.118   8.505
13067SOL    HW241041  11.879   0.211   8.440
13068SOL     OW41042   4.022   0.179  10.883
13068SOL    HW141043   4.012   0.093  10.840
13068SOL    HW241044   3.933   0.211  10.892
13069SOL     OW41045   2.605   0.740   1.270
13069SOL    HW141046   2.522   0.693   1.262
13069SOL    HW241047   2.602   0.806   1.200
13070SOL     OW41048   5.363  11.344  12.724
13070SOL    HW141049   5.388  11.431  12.695
13070SOL    HW241050   5.387  11.341  12.816
13071SOL     OW41051  14.540   5.102  13.918
13071SOL    HW141052  14.537   5.195  13.898
13071SOL    HW241053  14.511   5.060  13.837
13072SOL     OW41054   7.732   2.572   5.521
13072SOL    HW141055   7.691   2.658   5.511
13072SOL    HW241056   7.707   2.525   5.441
13073SOL     OW41057   1.325  11.476  12.558
13073SOL    HW141058   1.402  11.529  12.536
13073SOL    HW241059   1.331  11.463  12.652
13074SOL     OW41060   6.977   5.188  14.743
13074SOL    HW141061   6.995   5.125  14.674
13074SOL    HW241062   6.903   5.240  14.710
13075SOL     OW41063   8.142   3.394   9.538
13075SOL    HW141064   8.111   3.311   9.503
13075SOL    HW241065   8.092   3.405   9.619
13076SOL     OW41066  13.032   7.111  12.183
13076SOL    HW141067  13.076   7.076  12.105
13076SOL    HW241068  12.994   7.034  12.225
13077SOL     OW41069  10.855   0.128  10.289
13077SOL    HW141070  10.841   0.065  10.360
13077SOL    HW241071  10.945   0.113  10.261
13078SOL     OW41072  12.032   5.977   2.271
13078SOL    HW141073  12.101   5.935   2.322
13078SOL    HW241074  11.960   5.913   2.269
13079SOL     OW41075  11.389  12.963   1.736
13079SOL    HW141076  11.319  13.028   1.744
13079SOL    HW241077  11.344  12.883   1.708
13080SOL     OW41078   0.376   8.756   0.633
13080SOL    HW141079   0.422   8.824   0.681
13080SOL    HW241080   0.331   8.705   0.701
13081SOL     OW41081   8.155  13.517  14.873
13081SOL    HW141082   8.184  13.426   0.005
13081SOL    HW241083   8.105  13.518  14.791
13082SOL     OW41084  12.051   8.033   7.747
13082SOL    HW141085  12.099   8.097   7.694
13082SOL    HW241086  12.105   8.022   7.825
13083SOL     OW41087   8.531   4.137   4.177
13083SOL    HW141088   8.464   4.137   4.245
13083SOL    HW241089   8.610   4.166   4.222
13084SOL     OW41090   7.615   2.744   7.481
13084SOL    HW141091   7.562   2.787   7.414
13084SOL    HW241092   7.702   2.737   7.442
13085SOL     OW41093   5.005   5.010   9.995
13085SOL    HW141094   4.922   5.037  10.033
13085SOL    HW241095   4.990   4.921   9.964
13086SOL     OW41096   5.482   6.869   5.709
13086SOL    HW141097   5.515   6.958   5.695
13086SOL    HW241098   5.421   6.877   5.782
13087SOL     OW41099  10.698  13.043  13.495
13087SOL    HW141100  10.694  13.123  13.548
13087SOL    HW241101  10.744  12.980  13.549
13088SOL     OW41102   8.696   7.529   4.127
13088SOL    HW141103   8.620   7.542   4.183
13088SOL    HW241104   8.701   7.434   4.115
13089SOL     OW41105   6.841   2.938   7.041
13089SOL    HW141106   6.878   2.913   6.957
13089SOL    HW241107   6.891   2.888   7.106
13090SOL     OW41108  12.405   0.597   5.358
13090SOL    HW141109  12.335   0.541   5.324
13090SOL    HW241110  12.404   0.674   5.301
13091SOL     OW41111  14.206  14.824   5.396
13091SOL    HW141112  14.282  14.788   5.350
13091SOL    HW241113  14.138  14.831   5.328
13092SOL     OW41114  14.572   6.520  11.741
13092SOL    HW141115  14.566   6.547  11.650
13092SOL    HW241116  14.591   6.601  11.789
13093SOL     OW41117   9.162  10.760   1.232
13093SOL    HW141118   9.088  10.813   1.262
13093SOL    HW241119   9.239  10.801   1.272
13094SOL     OW41120   3.199   3.026  10.419
13094SOL    HW141121   3.187   2.963  10.348
13094SOL    HW241122   3.291   3.016  10.444
13095SOL     OW41123  12.466   8.414  14.253
13095SOL    HW141124  12.426   8.458  14.177
13095SOL    HW241125  12.545   8.465  14.271
13096SOL     OW41126   4.528   8.144   3.031
13096SOL    HW141127   4.466   8.216   3.042
13096SOL    HW241128   4.479   8.076   2.986
13097SOL     OW41129   9.157  10.415   3.990
13097SOL    HW141130   9.131  10.503   4.018
13097SOL    HW241131   9.101  10.396   3.915
13098SOL     OW41132  12.719   4.849  11.484
13098SOL    HW141133  12.640   4.827  11.533
13098SOL    HW241134  12.778   4.776  11.500
13099SOL     OW41135  12.402  11.227   5.792
13099SOL    HW141136  12.426  11.310   5.749
13099SOL    HW241137  12.376  11.169   5.721
13100SOL     OW41138  12.910   8.612   7.184
13100SOL    HW141139  12.912   8.629   7.278
13100SOL    HW241140  12.837   8.665   7.152
13101SOL     OW41141  13.263  13.506  14.068
13101SOL    HW141142  13.269  13.411  14.055
13101SOL    HW241143  13.297  13.520  14.156
13102SOL     OW41144   7.457   7.702  10.914
13102SOL    HW141145   7.478   7.794  10.900
13102SOL    HW241146   7.437   7.668  10.827
13103SOL     OW41147   0.480   0.399  10.988
13103SOL    HW141148   0.477   0.312  11.028
13103SOL    HW241149   0.500   0.383  10.896
13104SOL     OW41150   6.784  10.555   6.689
13104SOL    HW141151   6.742  10.604   6.617
13104SOL    HW241152   6.793  10.466   6.655
13105SOL     OW41153   2.188   0.124  11.644
13105SOL    HW141154   2.237   0.195  11.684
13105SOL    HW241155   2.102   0.161  11.624
13106SOL     OW41156   8.380   0.566   1.961
13106SOL    HW141157   8.431   0.489   1.988
13106SOL    HW241158   8.337   0.540   1.880
13107SOL     OW41159  10.793  11.353   4.048
13107SOL    HW141160  10.782  11.353   4.144
13107SOL    HW241161  10.812  11.262   4.027
13108SOL     OW41162   1.629   9.262   6.561
13108SOL    HW141163   1.708   9.306   6.529
13108SOL    HW241164   1.658   9.214   6.639
13109SOL     OW41165   6.333   5.985  10.921
13109SOL    HW141166   6.421   5.996  10.885
13109SOL    HW241167   6.342   6.009  11.014
13110SOL     OW41168  10.349   9.617   5.091
13110SOL    HW141169  10.403   9.557   5.039
13110SOL    HW241170  10.389   9.616   5.178
13111SOL     OW41171   6.425  14.792   1.367
13111SOL    HW141172   6.461  14.713   1.408
13111SOL    HW241173   6.492  14.819   1.304
13112SOL     OW41174  11.672   3.414   6.904
13112SOL    HW141175  11.597   3.425   6.963
13112SOL    HW241176  11.743   3.385   6.962
13113SOL     OW41177   1.679  12.266  11.632
13113SOL    HW141178   1.610  12.216  11.675
13113SOL    HW241179   1.659  12.357  11.652
13114SOL     OW41180  13.471   1.257   2.176
13114SOL    HW141181  13.503   1.267   2.266
13114SOL    HW241182  13.421   1.337   2.160
13115SOL     OW41183  13.761  10.702   0.879
13115SOL    HW141184  13.779  10.608   0.884
13115SOL    HW241185  13.796  10.728   0.794
13116SOL     OW41186  14.332   4.835   6.643
13116SOL    HW141187  14.278   4.908   6.673
13116SOL    HW241188  14.420   4.871   6.636
13117SOL     OW41189   1.980   8.577  13.751
13117SOL    HW141190   2.070   8.552  13.772
13117SOL    HW241191   1.966   8.545  13.662
13118SOL     OW41192   0.985  14.606   6.440
13118SOL    HW141193   0.951  14.671   6.501
13118SOL    HW241194   1.017  14.657   6.366
13119SOL     OW41195   1.280   6.405  10.377
13119SOL    HW141196   1.285   6.386  10.284
13119SOL    HW241197   1.207   6.351  10.408
13120SOL     OW41198   2.250   0.884   1.143
13120SOL    HW141199   2.199   0.942   1.199
13120SOL    HW241200   2.335   0.927   1.135
13121SOL     OW41201   3.745   7.203   3.922
13121SOL    HW141202   3.721   7.226   4.012
13121SOL    HW241203   3.808   7.131   3.931
13122SOL     OW41204   1.772   5.282   3.925
13122SOL    HW141205   1.814   5.210   3.972
13122SOL    HW241206   1.785   5.260   3.833
13123SOL     OW41207   9.869  12.067   2.531
13123SOL    HW141208   9.856  12.160   2.515
13123SOL    HW241209   9.811  12.023   2.468
13124SOL     OW41210   1.536   1.704   6.138
13124SOL    HW141211   1.530   1.654   6.056
13124SOL    HW241212   1.492   1.787   6.119
13125SOL     OW41213  11.905   7.848  11.105
13125SOL    HW141214  11.881   7.922  11.160
13125SOL    HW241215  11.843   7.780  11.128
13126SOL     OW41216   6.227   8.011   7.225
13126SOL    HW141217   6.153   8.061   7.193
13126SOL    HW241218   6.261   7.965   7.148
13127SOL     OW41219   9.639   0.585   9.431
13127SOL    HW141220   9.699   0.545   9.494
13127SOL    HW241221   9.552   0.569   9.468
13128SOL     OW41222  12.976  12.548   9.977
13128SOL    HW141223  12.973  12.456  10.002
13128SOL    HW241224  13.007  12.547   9.886
13129SOL     OW41225  12.252   1.739  10.351
13129SOL    HW141226  12.192   1.806  10.319
13129SOL    HW241227  12.213   1.709  10.433
13130SOL     OW41228   4.721  13.614   9.384
13130SOL    HW141229   4.749  13.579   9.300
13130SOL    HW241230   4.640  13.566   9.404
13131SOL     OW41231   9.819  12.604  14.774
13131SOL    HW141232   9.859  12.624  14.859
13131SOL    HW241233   9.861  12.664  14.712
13132SOL     OW41234   9.207   6.469   6.927
13132SOL    HW141235   9.271   6.492   6.859
13132SOL    HW241236   9.252   6.406   6.982
13133SOL     OW41237   6.529   6.158   3.634
13133SOL    HW141238   6.487   6.077   3.607
13133SOL    HW241239   6.506   6.169   3.726
13134SOL     OW41240   6.820   3.671   5.277
13134SOL    HW141241   6.806   3.681   5.371
13134SOL    HW241242   6.732   3.657   5.242
13135SOL     OW41243   3.927   7.127  11.349
13135SOL    HW141244   3.986   7.187  11.394
13135SOL    HW241245   3.977   7.046  11.339
13136SOL     OW41246   3.483  14.661   0.929
13136SOL    HW141247   3.392  14.638   0.947
13136SOL    HW241248   3.506  14.725   0.996
13137SOL     OW41249   7.700  11.254   2.830
13137SOL    HW141250   7.657  11.247   2.745
13137SOL    HW241251   7.768  11.320   2.818
13138SOL     OW41252  10.383   8.690   4.434
13138SOL    HW141253  10.340   8.715   4.516
13138SOL    HW241254  10.330   8.618   4.400
13139SOL     OW41255   5.688  12.329   2.773
13139SOL    HW141256   5.620  12.365   2.716
13139SOL    HW241257   5.738  12.405   2.802
13140SOL     OW41258   0.098  12.346  11.188
13140SOL    HW141259   0.078  12.379  11.100
13140SOL    HW241260   0.037  12.393  11.245
13141SOL     OW41261  11.438   0.431   1.723
13141SOL    HW141262  11.523   0.453   1.684
13141SOL    HW241263  11.377   0.493   1.682
13142SOL     OW41264   3.419  11.529  14.127
13142SOL    HW141265   3.499  11.530  14.076
13142SOL    HW241266   3.406  11.621  14.153
13143SOL     OW41267  11.431   5.153   8.694
13143SOL    HW141268  11.412   5.244   8.672
13143SOL    HW241269  11.438   5.152   8.790
13144SOL     OW41270   2.421  10.320  14.494
13144SOL    HW141271   2.379  10.398  14.533
13144SOL    HW241272   2.347  10.266  14.466
13145SOL     OW41273   2.083  13.104   3.354
13145SOL    HW141274   2.023  13.177   3.367
13145SOL    HW241275   2.151  13.118   3.420
13146SOL     OW41276   4.846  14.649   1.255
13146SOL    HW141277   4.923  14.610   1.296
13146SOL    HW241278   4.774  14.592   1.282
13147SOL     OW41279  11.299   4.259  13.410
13147SOL    HW141280  11.359   4.194  13.446
13147SOL    HW241281  11.249   4.212  13.343
13148SOL     OW41282   8.695   7.030   8.675
13148SOL    HW141283   8.680   6.954   8.732
13148SOL    HW241284   8.645   7.010   8.596
13149SOL     OW41285  13.482   2.499  12.774
13149SOL    HW141286  13.568   2.493  12.816
13149SOL    HW241287  13.500   2.484  12.681
13150SOL     OW41288  11.413   6.659   4.286
13150SOL    HW141289  11.422   6.692   4.197
13150SOL    HW241290  11.403   6.564   4.275
13151SOL     OW41291  14.412   4.688   8.148
13151SOL    HW141292  14.331   4.722   8.186
13151SOL    HW241293  14.407   4.594   8.160
13152SOL     OW41294   5.653   3.810  12.699
13152SOL    HW141295   5.644   3.882  12.636
13152SOL    HW241296   5.682   3.852  12.779
13153SOL     OW41297   3.764   6.000  13.428
13153SOL    HW141298   3.684   6.004  13.480
13153SOL    HW241299   3.765   5.912  13.391
13154SOL     OW41300   0.856   3.831   0.400
13154SOL    HW141301   0.915   3.874   0.337
13154SOL    HW241302   0.909   3.763   0.440
13155SOL     OW41303   9.770   6.251  13.234
13155SOL    HW141304   9.799   6.332  13.276
13155SOL    HW241305   9.738   6.197  13.306
13156SOL     OW41306   4.107  13.264  13.281
13156SOL    HW141307   4.080  13.173  13.294
13156SOL    HW241308   4.197  13.258  13.251
13157SOL     OW41309  12.074  14.775   0.426
13157SOL    HW141310  12.082  14.851   0.485
13157SOL    HW241311  12.058  14.813   0.340
13158SOL     OW41312   3.899  11.357   8.718
13158SOL    HW141313   3.916  11.296   8.789
13158SOL    HW241314   3.901  11.444   8.760
13159SOL     OW41315   0.030   2.458  14.577
13159SOL    HW141316  14.818   2.438  14.546
13159SOL    HW241317   0.088   2.407  14.522
13160SOL     OW41318   3.934   0.634   9.318
13160SOL    HW141319   3.847   0.655   9.284
13160SOL    HW241320   3.939   0.539   9.314
13161SOL     OW41321   1.878   2.292   4.850
13161SOL    HW141322   1.894   2.385   4.837
13161SOL    HW241323   1.801   2.288   4.907
13162SOL     OW41324   0.995   1.424  13.001
13162SOL    HW141325   1.029   1.389  13.083
13162SOL    HW241326   0.993   1.519  13.014
13163SOL     OW41327   7.625   0.806   7.659
13163SOL    HW141328   7.601   0.892   7.624
13163SOL    HW241329   7.669   0.826   7.742
13164SOL     OW41330   0.756   3.646  14.729
13164SOL    HW141331   0.752   3.584  14.801
13164SOL    HW241332   0.710   3.724  14.761
13165SOL     OW41333  14.134  10.136   3.782
13165SOL    HW141334  14.108  10.226   3.761
13165SOL    HW241335  14.105  10.124   3.873
13166SOL     OW41336  14.196  11.743   4.240
13166SOL    HW141337  14.101  11.752   4.237
13166SOL    HW241338  14.227  11.780   4.158
13167SOL     OW41339   0.992  14.555   3.308
13167SOL    HW141340   0.980  14.555   3.213
13167SOL    HW241341   0.910  14.520   3.343
13168SOL     OW41342   8.958   1.067   1.356
13168SOL    HW141343   8.864   1.073   1.371
13168SOL    HW241344   8.969   0.993   1.296
13169SOL     OW41345  14.076   3.617  11.968
13169SOL    HW141346  14.098   3.675  11.895
13169SOL    HW241347  14.161   3.591  12.004
13170SOL     OW41348  13.547   8.705  11.473
13170SOL    HW141349  13.531   8.799  11.466
13170SOL    HW241350  13.629   8.690  11.425
13171SOL     OW41351   0.316   6.573   9.262
13171SOL    HW141352   0.291   6.578   9.355
13171SOL    HW241353   0.235   6.554   9.216
13172SOL     OW41354   8.717   1.664   7.781
13172SOL    HW141355   8.668   1.729   7.731
13172SOL    HW241356   8.662   1.586   7.783
13173SOL     OW41357  11.960   4.839   6.935
13173SOL    HW141358  12.019   4.764   6.941
13173SOL    HW241359  11.892   4.812   6.874
13174SOL     OW41360  11.927   7.462  10.607
13174SOL    HW141361  11.961   7.438  10.521
13174SOL    HW241362  11.971   7.544  10.629
13175SOL     OW41363   4.423  12.202   1.013
13175SOL    HW141364   4.472  12.284   1.011
13175SOL    HW241365   4.394  12.189   0.923
13176SOL     OW41366  14.196   5.931   9.076
13176SOL    HW141367  14.185   6.027   9.075
13176SOL    HW241368  14.148   5.903   9.153
13177SOL     OW41369   8.636   1.158   5.066
13177SOL    HW141370   8.545   1.130   5.082
13177SOL    HW241371   8.650   1.229   5.129
13178SOL     OW41372   4.760   6.804  12.745
13178SOL    HW141373   4.744   6.877  12.685
13178SOL    HW241374   4.674   6.783  12.782
13179SOL     OW41375   0.922   1.679  12.874
13179SOL    HW141376   0.988   1.679  12.804
13179SOL    HW241377   0.840   1.697  12.829
13180SOL     OW41378  13.110   5.030   6.274
13180SOL    HW141379  13.020   5.004   6.254
13180SOL    HW241380  13.150   5.045   6.188
13181SOL     OW41381  11.045  11.262   5.771
13181SOL    HW141382  11.103  11.187   5.759
13181SOL    HW241383  11.051  11.311   5.689
13182SOL     OW41384   0.467   5.433   2.099
13182SOL    HW141385   0.469   5.519   2.057
13182SOL    HW241386   0.518   5.445   2.179
13183SOL     OW41387   9.987   8.137  12.820
13183SOL    HW141388  10.023   8.053  12.846
13183SOL    HW241389   9.995   8.192  12.898
13184SOL     OW41390   0.112   6.182   3.974
13184SOL    HW141391   0.149   6.116   3.916
13184SOL    HW241392   0.117   6.143   4.061
13185SOL     OW41393   6.122  11.631   6.623
13185SOL    HW141394   6.182  11.691   6.578
13185SOL    HW241395   6.178  11.564   6.660
13186SOL     OW41396   5.259  12.426   3.167
13186SOL    HW141397   5.340  12.418   3.217
13186SOL    HW241398   5.286  12.416   3.076
13187SOL     OW41399   6.909   9.819   8.303
13187SOL    HW141400   6.822   9.778   8.311
13187SOL    HW241401   6.938   9.829   8.394
13188SOL     OW41402  10.982   8.219   6.129
13188SOL    HW141403  11.033   8.222   6.048
13188SOL    HW241404  10.962   8.126   6.141
13189SOL     OW41405   0.364   5.259   0.073
13189SOL    HW141406   0.329   5.348   0.080
13189SOL    HW241407   0.293   5.203   0.106
13190SOL     OW41408  12.437   6.862   0.264
13190SOL    HW141409  12.432   6.934   0.200
13190SOL    HW241410  12.348   6.827   0.267
13191SOL     OW41411  14.587  10.007   7.025
13191SOL    HW141412  14.502  10.037   7.058
13191SOL    HW241413  14.631   9.972   7.103
13192SOL     OW41414   1.167   3.749   6.595
13192SOL    HW141415   1.157   3.709   6.682
13192SOL    HW241416   1.140   3.681   6.534
13193SOL     OW41417  12.541   5.371   7.505
13193SOL    HW141418  12.587   5.441   7.459
13193SOL    HW241419  12.450   5.378   7.475
13194SOL     OW41420  12.311   2.580   7.401
13194SOL    HW141421  12.382   2.593   7.464
13194SOL    HW241422  12.239   2.632   7.434
13195SOL     OW41423   6.972  14.643  13.705
13195SOL    HW141424   7.050  14.665  13.756
13195SOL    HW241425   7.007  14.615  13.620
13196SOL     OW41426  11.158   5.011   8.069
13196SOL    HW141427  11.178   4.980   7.981
13196SOL    HW241428  11.142   4.932   8.120
13197SOL     OW41429   4.704  13.261  12.066
13197SOL    HW141430   4.734  13.292  12.152
13197SOL    HW241431   4.609  13.254  12.075
13198SOL     OW41432  14.545   9.134   0.743
13198SOL    HW141433  14.633   9.138   0.782
13198SOL    HW241434  14.498   9.071   0.797
13199SOL     OW41435   8.171  10.016   4.669
13199SOL    HW141436   8.213   9.967   4.739
13199SOL    HW241437   8.230  10.007   4.594
13200SOL     OW41438   0.988  11.991   2.633
13200SOL    HW141439   0.899  12.019   2.609
13200SOL    HW241440   0.992  11.899   2.605
13201SOL     OW41441   1.001   8.477   3.378
13201SOL    HW141442   1.042   8.421   3.312
13201SOL    HW241443   0.913   8.440   3.389
13202SOL     OW41444   8.427   8.761  12.020
13202SOL    HW141445   8.412   8.698  11.949
13202SOL    HW241446   8.462   8.708  12.091
13203SOL     OW41447  14.525   1.556  11.043
13203SOL    HW141448  14.529   1.501  10.965
13203SOL    HW241449  14.432   1.573  11.056
13204SOL     OW41450  10.068   6.737   8.008
13204SOL    HW141451   9.992   6.790   7.986
13204SOL    HW241452  10.047   6.699   8.093
13205SOL     OW41453  14.746   1.109  12.197
13205SOL    HW141454  14.830   1.089  12.238
13205SOL    HW241455  14.713   1.185  12.244
13206SOL     OW41456   6.733  12.846   7.778
13206SOL    HW141457   6.708  12.845   7.686
13206SOL    HW241458   6.749  12.754   7.800
13207SOL     OW41459   2.695  13.815   6.543
13207SOL    HW141460   2.767  13.767   6.504
13207SOL    HW241461   2.736  13.893   6.581
13208SOL     OW41462  12.752  14.314   4.727
13208SOL    HW141463  12.789  14.301   4.814
13208SOL    HW241464  12.663  14.281   4.733
13209SOL     OW41465  14.251   6.013   1.635
13209SOL    HW141466  14.307   6.083   1.668
13209SOL    HW241467  14.164   6.051   1.633
13210SOL     OW41468   1.010   5.774  12.508
13210SOL    HW141469   1.046   5.690  12.482
13210SOL    HW241470   1.046   5.836  12.445
13211SOL     OW41471   5.773  13.317   4.023
13211SOL    HW141472   5.801  13.227   4.040
13211SOL    HW241473   5.692  13.307   3.972
13212SOL     OW41474  13.495  13.025   6.817
13212SOL    HW141475  13.476  12.956   6.753
13212SOL    HW241476  13.412  13.038   6.862
13213SOL     OW41477   2.034   5.522   1.583
13213SOL    HW141478   2.041   5.569   1.500
13213SOL    HW241479   2.060   5.432   1.562
13214SOL     OW41480   2.092   8.597   6.884
13214SOL    HW141481   2.083   8.505   6.910
13214SOL    HW241482   2.002   8.630   6.882
13215SOL     OW41483   2.763   3.898  10.777
13215SOL    HW141484   2.736   3.821  10.727
13215SOL    HW241485   2.706   3.899  10.853
13216SOL     OW41486   1.250   9.792   2.801
13216SOL    HW141487   1.165   9.797   2.847
13216SOL    HW241488   1.269   9.882   2.776
13217SOL     OW41489   4.283   0.050  12.720
13217SOL    HW141490   4.362   0.080  12.674
13217SOL    HW241491   4.234   0.130  12.736
13218SOL     OW41492   4.905   2.254   1.476
13218SOL    HW141493   4.839   2.314   1.441
13218SOL    HW241494   4.865   2.167   1.469
13219SOL     OW41495   0.495   9.347   5.361
13219SOL    HW141496   0.445   9.428   5.367
13219SOL    HW241497   0.507   9.333   5.267
13220SOL     OW41498   2.905   4.227  10.640
13220SOL    HW141499   2.936   4.143  10.605
13220SOL    HW241500   2.811   4.215  10.650
13221SOL     OW41501   3.052   1.444   4.680
13221SOL    HW141502   2.962   1.412   4.671
13221SOL    HW241503   3.102   1.392   4.617
13222SOL     OW41504   5.978  10.644  12.028
13222SOL    HW141505   5.949  10.702  12.099
13222SOL    HW241506   6.067  10.619  12.051
13223SOL     OW41507   6.468  14.453  10.644
13223SOL    HW141508   6.438  14.512  10.713
13223SOL    HW241509   6.413  14.375  10.654
13224SOL     OW41510   4.760  11.705  11.836
13224SOL    HW141511   4.756  11.801  11.827
13224SOL    HW241512   4.853  11.684  11.828
13225SOL     OW41513   5.332   4.494   2.404
13225SOL    HW141514   5.340   4.537   2.490
13225SOL    HW241515   5.419   4.502   2.366
13226SOL     OW41516  11.924   1.455   0.085
13226SOL    HW141517  11.839   1.471   0.127
13226SOL    HW241518  11.975   1.534   0.103
13227SOL     OW41519   2.474  13.019   3.717
13227SOL    HW141520   2.435  12.957   3.778
13227SOL    HW241521   2.495  13.096   3.771
13228SOL     OW41522   7.208  12.303   4.443
13228SOL    HW141523   7.113  12.312   4.455
13228SOL    HW241524   7.219  12.213   4.412
13229SOL     OW41525  12.999  13.658   5.424
13229SOL    HW141526  12.998  13.605   5.344
13229SOL    HW241527  13.069  13.722   5.409
13230SOL     OW41528   2.450   1.435   4.218
13230SOL    HW141529   2.516   1.486   4.264
13230SOL    HW241530   2.477   1.344   4.229
13231SOL     OW41531  14.266   1.751   5.420
13231SOL    HW141532  14.194   1.718   5.367
13231SOL    HW241533  14.330   1.784   5.357
13232SOL     OW41534  14.517  13.443   5.694
13232SOL    HW141535  14.443  13.455   5.754
13232SOL    HW241536  14.591  13.423   5.751
13233SOL     OW41537  11.959  14.089   0.683
13233SOL    HW141538  12.009  14.138   0.748
13233SOL    HW241539  12.022  14.068   0.614
13234SOL     OW41540  14.140   3.392   1.061
13234SOL    HW141541  14.208   3.327   1.046
13234SOL    HW241542  14.065   3.342   1.092
13235SOL     OW41543  13.211  14.668   4.695
13235SOL    HW141544  13.213  14.764   4.685
13235SOL    HW241545  13.149  14.639   4.627
13236SOL     OW41546   6.749   4.272   1.975
13236SOL    HW141547   6.746   4.183   2.012
13236SOL    HW241548   6.829   4.273   1.923
13237SOL     OW41549   0.333   5.745   5.435
13237SOL    HW141550   0.256   5.783   5.391
13237SOL    HW241551   0.302   5.661   5.468
13238SOL     OW41552   3.526  11.093  11.267
13238SOL    HW141553   3.607  11.045  11.252
13238SOL    HW241554   3.546  11.183  11.240
13239SOL     OW41555  11.139   9.869   0.718
13239SOL    HW141556  11.098   9.928   0.655
13239SOL    HW241557  11.141   9.919   0.800
13240SOL     OW41558   2.998  13.876   4.589
13240SOL    HW141559   3.080  13.921   4.609
13240SOL    HW241560   3.004  13.856   4.495
13241SOL     OW41561   7.036   5.508   3.984
13241SOL    HW141562   7.117   5.553   3.959
13241SOL    HW241563   7.063   5.446   4.052
13242SOL     OW41564  14.128   3.133   1.367
13242SOL    HW141565  14.156   3.060   1.312
13242SOL    HW241566  14.103   3.091   1.450
13243SOL     OW41567  10.772  14.758  13.666
13243SOL    HW141568  10.728  14.822  13.722
13243SOL    HW241569  10.702  14.713  13.620
13244SOL     OW41570   4.974   2.854   4.123
13244SOL    HW141571   4.880   2.851   4.142
13244SOL    HW241572   4.981   2.836   4.029
13245SOL     OW41573  14.114   3.375   6.118
13245SOL    HW141574  14.131   3.469   6.116
13245SOL    HW241575  14.087   3.354   6.029
13246SOL     OW41576   4.185   8.182   2.479
13246SOL    HW141577   4.158   8.091   2.471
13246SOL    HW241578   4.262   8.179   2.536
13247SOL     OW41579  10.693   2.914  14.852
13247SOL    HW141580  10.708   2.985   0.037
13247SOL    HW241581  10.610   2.876   0.003
13248SOL     OW41582   2.630   5.276  13.470
13248SOL    HW141583   2.553   5.330  13.450
13248SOL    HW241584   2.597   5.187  13.476
13249SOL     OW41585   4.107   4.305   3.977
13249SOL    HW141586   4.065   4.253   3.908
13249SOL    HW241587   4.199   4.308   3.952
13250SOL     OW41588  10.830  10.803  14.847
13250SOL    HW141589  10.892  10.777  14.780
13250SOL    HW241590  10.885  10.830   0.045
13251SOL     OW41591  14.518   6.123  13.036
13251SOL    HW141592  14.581   6.066  13.080
13251SOL    HW241593  14.462   6.063  12.987
13252SOL     OW41594   0.996   2.253  14.428
13252SOL    HW141595   1.001   2.161  14.453
13252SOL    HW241596   1.058   2.298  14.486
13253SOL     OW41597  11.147   2.959  12.024
13253SOL    HW141598  11.080   2.938  11.960
13253SOL    HW241599  11.132   2.897  12.096
13254SOL     OW41600   2.609   3.067   9.022
13254SOL    HW141601   2.623   2.996   9.085
13254SOL    HW241602   2.543   3.033   8.962
13255SOL     OW41603   2.823   6.603  11.798
13255SOL    HW141604   2.795   6.511  11.807
13255SOL    HW241605   2.780   6.648  11.871
13256SOL     OW41606  12.726   7.748   3.940
13256SOL    HW141607  12.707   7.832   3.898
13256SOL    HW241608  12.785   7.769   4.012
13257SOL     OW41609   2.177   2.294   4.721
13257SOL    HW141610   2.094   2.298   4.674
13257SOL    HW241611   2.235   2.243   4.664
13258SOL     OW41612   8.154   0.834   1.820
13258SOL    HW141613   8.249   0.839   1.829
13258SOL    HW241614   8.137   0.854   1.728
13259SOL     OW41615  14.066   2.901   7.465
13259SOL    HW141616  14.047   2.858   7.381
13259SOL    HW241617  14.056   2.994   7.446
13260SOL     OW41618  11.564  10.071   9.112
13260SOL    HW141619  11.594  10.157   9.082
13260SOL    HW241620  11.644  10.019   9.122
13261SOL     OW41621   3.130   0.683  13.454
13261SOL    HW141622   3.166   0.604  13.495
13261SOL    HW241623   3.097   0.654  13.369
13262SOL     OW41624   5.321   9.688   6.755
13262SOL    HW141625   5.324   9.694   6.660
13262SOL    HW241626   5.350   9.599   6.775
13263SOL     OW41627  10.354   5.895   2.498
13263SOL    HW141628  10.332   5.963   2.562
13263SOL    HW241629  10.441   5.918   2.467
13264SOL     OW41630   9.179  10.898  10.995
13264SOL    HW141631   9.202  10.822  11.049
13264SOL    HW241632   9.260  10.950  10.991
13265SOL     OW41633   0.496   7.899  12.369
13265SOL    HW141634   0.444   7.913  12.448
13265SOL    HW241635   0.582   7.872  12.402
13266SOL     OW41636   2.379  12.866   3.918
13266SOL    HW141637   2.396  12.855   4.012
13266SOL    HW241638   2.343  12.782   3.890
13267SOL     OW41639   0.825   8.265   3.925
13267SOL    HW141640   0.740   8.290   3.890
13267SOL    HW241641   0.832   8.312   4.008
13268SOL     OW41642   9.244   2.448  12.259
13268SOL    HW141643   9.310   2.490  12.204
13268SOL    HW241644   9.265   2.355  12.256
13269SOL     OW41645  10.534   6.027   4.578
13269SOL    HW141646  10.494   6.062   4.499
13269SOL    HW241647  10.622   6.063   4.579
13270SOL     OW41648  12.032   4.035  10.476
13270SOL    HW141649  12.109   4.090  10.485
13270SOL    HW241650  12.067   3.948  10.454
13271SOL     OW41651  10.667  13.433  10.156
13271SOL    HW141652  10.669  13.397  10.244
13271SOL    HW241653  10.618  13.515  10.165
13272SOL     OW41654   1.290   3.018  14.138
13272SOL    HW141655   1.331   2.947  14.188
13272SOL    HW241656   1.362   3.059  14.090
13273SOL     OW41657  11.613   2.308   5.087
13273SOL    HW141658  11.635   2.231   5.035
13273SOL    HW241659  11.619   2.381   5.025
13274SOL     OW41660   4.878  14.257   1.257
13274SOL    HW141661   4.876  14.163   1.274
13274SOL    HW241662   4.791  14.288   1.283
13275SOL     OW41663   4.821  11.334  11.999
13275SOL    HW141664   4.905  11.288  12.008
13275SOL    HW241665   4.759  11.281  12.050
13276SOL     OW41666   5.366  14.471   8.090
13276SOL    HW141667   5.444  14.491   8.141
13276SOL    HW241668   5.357  14.545   8.030
13277SOL     OW41669  10.613   5.910   2.432
13277SOL    HW141670  10.657   5.953   2.506
13277SOL    HW241671  10.684   5.890   2.370
13278SOL     OW41672  13.748  12.099   4.744
13278SOL    HW141673  13.671  12.117   4.690
13278SOL    HW241674  13.745  12.005   4.759
13279SOL     OW41675  11.183   8.622  13.925
13279SOL    HW141676  11.189   8.549  13.863
13279SOL    HW241677  11.246   8.686  13.893
13280SOL     OW41678  11.506   6.606   0.610
13280SOL    HW141679  11.519   6.524   0.561
13280SOL    HW241680  11.573   6.665   0.575
13281SOL     OW41681   0.140   3.197  14.115
13281SOL    HW141682   0.141   3.280  14.067
13281SOL    HW241683   0.158   3.222  14.205
13282SOL     OW41684   2.567  14.716   6.981
13282SOL    HW141685   2.511  14.681   6.912
13282SOL    HW241686   2.522  14.696   7.063
13283SOL     OW41687   0.980   9.711   2.923
13283SOL    HW141688   0.959   9.641   2.861
13283SOL    HW241689   0.906   9.712   2.983
13284SOL     OW41690   1.014   4.784   1.818
13284SOL    HW141691   1.023   4.751   1.729
13284SOL    HW241692   1.095   4.831   1.835
13285SOL     OW41693   3.006   2.275  14.130
13285SOL    HW141694   2.987   2.361  14.167
13285SOL    HW241695   3.091   2.286  14.087
13286SOL     OW41696  10.276  13.817   7.126
13286SOL    HW141697  10.298  13.908   7.105
13286SOL    HW241698  10.335  13.765   7.071
13287SOL     OW41699   4.506   3.501   9.615
13287SOL    HW141700   4.486   3.556   9.539
13287SOL    HW241701   4.436   3.518   9.677
13288SOL     OW41702  10.275   0.848   1.433
13288SOL    HW141703  10.304   0.932   1.468
13288SOL    HW241704  10.211   0.871   1.366
13289SOL     OW41705   9.362   7.114   4.805
13289SOL    HW141706   9.318   7.086   4.885
13289SOL    HW241707   9.375   7.208   4.817
13290SOL     OW41708   6.059   1.615   0.396
13290SOL    HW141709   6.137   1.613   0.339
13290SOL    HW241710   6.091   1.651   0.479
13291SOL     OW41711  12.153   6.495   7.261
13291SOL    HW141712  12.118   6.437   7.328
13291SOL    HW241713  12.157   6.441   7.182
13292SOL     OW41714  11.650  12.064  13.538
13292SOL    HW141715  11.656  12.027  13.450
13292SOL    HW241716  11.678  11.992  13.596
13293SOL     OW41717   3.777   7.790   5.232
13293SOL    HW141718   3.698   7.843   5.224
13293SOL    HW241719   3.834   7.840   5.290
13294SOL     OW41720   2.907   9.349   3.901
13294SOL    HW141721   2.824   9.394   3.889
13294SOL    HW241722   2.918   9.343   3.996
13295SOL     OW41723   9.724   8.058   9.023
13295SOL    HW141724   9.632   8.034   9.030
13295SOL    HW241725   9.747   8.091   9.110
13296SOL     OW41726   3.430  14.833  10.659
13296SOL    HW141727   3.512  14.824  10.610
13296SOL    HW241728   3.457  14.839  10.751
13297SOL     OW41729   3.303  11.226   4.818
13297SOL    HW141730   3.307  11.290   4.888
13297SOL    HW241731   3.211  11.197   4.817
13298SOL     OW41732  14.594  12.036   9.682
13298SOL    HW141733  14.551  11.976   9.742
13298SOL    HW241734  14.579  12.123   9.720
13299SOL     OW41735   5.061  13.111  14.597
13299SOL    HW141736   5.150  13.110  14.631
13299SOL    HW241737   5.035  13.203  14.600
13300SOL     OW41738   4.442  13.478  12.649
13300SOL    HW141739   4.397  13.562  12.641
13300SOL    HW241740   4.482  13.464  12.563
13301SOL     OW41741   6.514  11.444   3.778
13301SOL    HW141742   6.547  11.473   3.863
13301SOL    HW241743   6.478  11.523   3.738
13302SOL     OW41744   8.004  12.783   0.160
13302SOL    HW141745   8.010  12.732   0.080
13302SOL    HW241746   7.914  12.771   0.190
13303SOL     OW41747   4.905   0.344  13.846
13303SOL    HW141748   4.859   0.261  13.839
13303SOL    HW241749   4.926   0.368  13.756
13304SOL     OW41750   8.059   3.816   7.049
13304SOL    HW141751   8.057   3.722   7.066
13304SOL    HW241752   8.103   3.825   6.964
13305SOL     OW41753   2.125  10.481   8.701
13305SOL    HW141754   2.157  10.484   8.611
13305SOL    HW241755   2.202  10.456   8.753
13306SOL     OW41756   9.052   9.427   1.161
13306SOL    HW141757   9.002   9.465   1.088
13306SOL    HW241758   9.104   9.500   1.195
13307SOL     OW41759   8.620  10.895  11.276
13307SOL    HW141760   8.703  10.893  11.228
13307SOL    HW241761   8.552  10.896  11.208
13308SOL     OW41762   1.958   7.342  10.444
13308SOL    HW141763   1.992   7.414  10.390
13308SOL    HW241764   1.989   7.263  10.400
13309SOL     OW41765   1.069   6.757   6.922
13309SOL    HW141766   1.131   6.830   6.927
13309SOL    HW241767   1.082   6.720   6.834
13310SOL     OW41768  12.599   9.027   1.938
13310SOL    HW141769  12.546   9.107   1.939
13310SOL    HW241770  12.689   9.059   1.950
13311SOL     OW41771   0.432  13.437   2.322
13311SOL    HW141772   0.368  13.450   2.252
13311SOL    HW241773   0.469  13.524   2.337
13312SOL     OW41774   7.191  10.685   5.823
13312SOL    HW141775   7.164  10.623   5.891
13312SOL    HW241776   7.121  10.751   5.823
13313SOL     OW41777   8.879  10.741   2.753
13313SOL    HW141778   8.869  10.701   2.839
13313SOL    HW241779   8.918  10.673   2.699
13314SOL     OW41780  11.074   1.881   9.414
13314SOL    HW141781  11.100   1.790   9.405
13314SOL    HW241782  11.038   1.887   9.502
13315SOL     OW41783   7.150   7.024   7.347
13315SOL    HW141784   7.175   6.938   7.315
13315SOL    HW241785   7.169   7.022   7.440
13316SOL     OW41786   6.018  13.958   4.162
13316SOL    HW141787   5.959  13.891   4.127
13316SOL    HW241788   6.089  13.909   4.203
13317SOL     OW41789  12.272   1.706   8.069
13317SOL    HW141790  12.245   1.617   8.093
13317SOL    HW241791  12.257   1.710   7.974
13318SOL     OW41792   4.447   3.474   8.619
13318SOL    HW141793   4.479   3.536   8.686
13318SOL    HW241794   4.353   3.468   8.635
13319SOL     OW41795   3.507   7.660  14.469
13319SOL    HW141796   3.549   7.574  14.462
13319SOL    HW241797   3.430   7.644  14.524
13320SOL     OW41798  10.277   2.111  12.586
13320SOL    HW141799  10.260   2.149  12.672
13320SOL    HW241800  10.196   2.124  12.537
13321SOL     OW41801   1.184  13.363   1.093
13321SOL    HW141802   1.128  13.432   1.130
13321SOL    HW241803   1.245  13.342   1.164
13322SOL     OW41804   9.310  13.755   1.435
13322SOL    HW141805   9.265  13.839   1.422
13322SOL    HW241806   9.401  13.772   1.413
13323SOL     OW41807   4.042   5.768  14.666
13323SOL    HW141808   4.010   5.815  14.743
13323SOL    HW241809   4.135   5.753  14.685
13324SOL     OW41810  11.563   6.704  10.734
13324SOL    HW141811  11.657   6.718  10.737
13324SOL    HW241812  11.546   6.641  10.804
13325SOL     OW41813   4.024   4.615  13.956
13325SOL    HW141814   4.075   4.546  13.999
13325SOL    HW241815   4.078   4.642  13.882
13326SOL     OW41816   1.969  14.555   8.096
13326SOL    HW141817   1.878  14.555   8.123
13326SOL    HW241818   2.003  14.470   8.124
13327SOL     OW41819   9.210   1.145  12.176
13327SOL    HW141820   9.145   1.117  12.112
13327SOL    HW241821   9.165   1.212  12.229
13328SOL     OW41822   1.362   4.404   2.902
13328SOL    HW141823   1.354   4.498   2.915
13328SOL    HW241824   1.456   4.390   2.889
13329SOL     OW41825   3.004   9.651   7.209
13329SOL    HW141826   2.943   9.587   7.245
13329SOL    HW241827   3.046   9.606   7.136
13330SOL     OW41828   6.023  12.320   5.333
13330SOL    HW141829   5.980  12.306   5.417
13330SOL    HW241830   6.117  12.325   5.354
13331SOL     OW41831   7.121   9.268   0.264
13331SOL    HW141832   7.130   9.316   0.182
13331SOL    HW241833   7.092   9.181   0.237
13332SOL     OW41834   4.427  14.540  12.888
13332SOL    HW141835   4.410  14.633  12.905
13332SOL    HW241836   4.436  14.501  12.974
13333SOL     OW41837   5.554   8.925  10.321
13333SOL    HW141838   5.558   8.993  10.254
13333SOL    HW241839   5.613   8.857  10.289
13334SOL     OW41840   2.546  13.500  11.548
13334SOL    HW141841   2.581  13.586  11.571
13334SOL    HW241842   2.513  13.510  11.459
13335SOL     OW41843   1.854   5.784  14.267
13335SOL    HW141844   1.852   5.751  14.357
13335SOL    HW241845   1.836   5.707  14.213
13336SOL     OW41846  13.841  14.712   5.493
13336SOL    HW141847  13.764  14.708   5.550
13336SOL    HW241848  13.892  14.785   5.526
13337SOL     OW41849   6.331   6.050   9.042
13337SOL    HW141850   6.275   6.047   8.964
13337SOL    HW241851   6.277   6.094   9.108
13338SOL     OW41852   2.774   4.365   5.503
13338SOL    HW141853   2.783   4.436   5.439
13338SOL    HW241854   2.855   4.369   5.554
13339SOL     OW41855   6.205   5.512  14.602
13339SOL    HW141856   6.190   5.441  14.540
13339SOL    HW241857   6.119   5.552  14.614
13340SOL     OW41858  13.685   7.826   2.551
13340SOL    HW141859  13.685   7.839   2.457
13340SOL    HW241860  13.594   7.806   2.573
13341SOL     OW41861   8.589   7.586   0.943
13341SOL    HW141862   8.522   7.631   0.893
13341SOL    HW241863   8.670   7.631   0.920
13342SOL     OW41864   3.713  13.943   7.473
13342SOL    HW141865   3.714  13.941   7.569
13342SOL    HW241866   3.649  14.010   7.451
13343SOL     OW41867   6.012  12.395   3.084
13343SOL    HW141868   6.072  12.450   3.135
13343SOL    HW241869   5.925  12.420   3.114
13344SOL     OW41870  13.140  14.638   5.642
13344SOL    HW141871  13.213  14.679   5.595
13344SOL    HW241872  13.063  14.660   5.589
13345SOL     OW41873   7.130  14.185   9.479
13345SOL    HW141874   7.123  14.121   9.409
13345SOL    HW241875   7.076  14.259   9.451
13346SOL     OW41876   5.714   2.592  12.506
13346SOL    HW141877   5.747   2.666  12.455
13346SOL    HW241878   5.652   2.631  12.568
13347SOL     OW41879  13.478   9.879   4.199
13347SOL    HW141880  13.392   9.869   4.238
13347SOL    HW241881  13.461   9.906   4.109
13348SOL     OW41882   7.475  10.942  13.513
13348SOL    HW141883   7.526  10.917  13.436
13348SOL    HW241884   7.538  10.979  13.573
13349SOL     OW41885  14.188   8.294   2.542
13349SOL    HW141886  14.159   8.209   2.575
13349SOL    HW241887  14.280   8.281   2.521
13350SOL     OW41888  13.538  13.751  13.657
13350SOL    HW141889  13.473  13.685  13.679
13350SOL    HW241890  13.519  13.773  13.565
13351SOL     OW41891   6.037  13.473   0.317
13351SOL    HW141892   6.066  13.429   0.237
13351SOL    HW241893   5.981  13.409   0.361
13352SOL     OW41894   8.142   7.738  12.374
13352SOL    HW141895   8.048   7.756  12.382
13352SOL    HW241896   8.162   7.682  12.448
13353SOL     OW41897   5.373  13.111   0.381
13353SOL    HW141898   5.366  13.016   0.386
13353SOL    HW241899   5.309  13.143   0.445
13354SOL     OW41900  10.305   6.824   2.582
13354SOL    HW141901  10.225   6.847   2.534
13354SOL    HW241902  10.281   6.834   2.674
13355SOL     OW41903  11.377  14.179   4.291
13355SOL    HW141904  11.427  14.184   4.373
13355SOL    HW241905  11.285  14.177   4.320
13356SOL     OW41906   0.320   4.783   8.154
13356SOL    HW141907   0.375   4.861   8.146
13356SOL    HW241908   0.377   4.716   8.191
13357SOL     OW41909   4.102   5.514  12.233
13357SOL    HW141910   4.136   5.536  12.147
13357SOL    HW241911   4.123   5.422  12.245
13358SOL     OW41912   4.972   8.123   9.506
13358SOL    HW141913   4.927   8.201   9.472
13358SOL    HW241914   4.922   8.049   9.472
13359SOL     OW41915  12.430   0.414   0.443
13359SOL    HW141916  12.487   0.399   0.519
13359SOL    HW241917  12.345   0.436   0.481
13360SOL     OW41918   7.041   0.982   1.344
13360SOL    HW141919   7.131   1.013   1.353
13360SOL    HW241920   7.045   0.890   1.368
13361SOL     OW41921   3.779  10.233   7.755
13361SOL    HW141922   3.710  10.277   7.805
13361SOL    HW241923   3.781  10.144   7.790
13362SOL     OW41924   3.273  13.472   1.725
13362SOL    HW141925   3.184  13.439   1.728
13362SOL    HW241926   3.317  13.418   1.660
13363SOL     OW41927   2.853   1.691  10.671
13363SOL    HW141928   2.929   1.634  10.665
13363SOL    HW241929   2.890   1.778  10.691
13364SOL     OW41930   1.673   6.214   6.806
13364SOL    HW141931   1.584   6.197   6.774
13364SOL    HW241932   1.695   6.300   6.770
13365SOL     OW41933   0.215  12.810  13.748
13365SOL    HW141934   0.217  12.780  13.657
13365SOL    HW241935   0.158  12.887  13.746
13366SOL     OW41936  12.731   9.107   0.942
13366SOL    HW141937  12.806   9.071   0.895
13366SOL    HW241938  12.766   9.132   1.028
13367SOL     OW41939  14.092   5.249   5.209
13367SOL    HW141940  14.168   5.206   5.168
13367SOL    HW241941  14.100   5.341   5.184
13368SOL     OW41942   3.441  13.462   4.333
13368SOL    HW141943   3.350  13.452   4.360
13368SOL    HW241944   3.482  13.512   4.404
13369SOL     OW41945   4.766  10.570   2.399
13369SOL    HW141946   4.677  10.586   2.428
13369SOL    HW241947   4.776  10.621   2.319
13370SOL     OW41948   3.760  13.855   0.086
13370SOL    HW141949   3.852  13.866   0.110
13370SOL    HW241950   3.715  13.928   0.129
13371SOL     OW41951   5.686   7.844   1.914
13371SOL    HW141952   5.764   7.789   1.915
13371SOL    HW241953   5.622   7.796   1.967
13372SOL     OW41954   7.552  11.363   9.143
13372SOL    HW141955   7.539  11.455   9.165
13372SOL    HW241956   7.511  11.314   9.215
13373SOL     OW41957   6.592   9.864   9.071
13373SOL    HW141958   6.635   9.788   9.110
13373SOL    HW241959   6.652   9.893   9.002
13374SOL     OW41960   4.672   2.792  11.071
13374SOL    HW141961   4.751   2.749  11.104
13374SOL    HW241962   4.623   2.815  11.150
13375SOL     OW41963   1.115  14.649  10.547
13375SOL    HW141964   1.072  14.695  10.619
13375SOL    HW241965   1.201  14.690  10.540
13376SOL     OW41966   8.910  11.533  11.879
13376SOL    HW141967   8.876  11.582  11.954
13376SOL    HW241968   8.920  11.599  11.810
13377SOL     OW41969   8.259   4.037   2.253
13377SOL    HW141970   8.344   4.024   2.211
13377SOL    HW241971   8.210   3.957   2.235
13378SOL     OW41972   2.456  10.716  14.153
13378SOL    HW141973   2.517  10.751  14.218
13378SOL    HW241974   2.488  10.750  14.070
13379SOL     OW41975   2.199   8.924  13.187
13379SOL    HW141976   2.217   8.992  13.252
13379SOL    HW241977   2.142   8.967  13.123
13380SOL     OW41978  11.897   5.363  11.912
13380SOL    HW141979  11.987   5.369  11.879
13380SOL    HW241980  11.902   5.298  11.982
13381SOL     OW41981  14.091   6.592   0.884
13381SOL    HW141982  14.072   6.686   0.881
13381SOL    HW241983  14.147   6.581   0.961
13382SOL     OW41984   0.171   2.735   8.520
13382SOL    HW141985   0.253   2.727   8.568
13382SOL    HW241986   0.190   2.701   8.433
13383SOL     OW41987   6.970   0.103   4.472
13383SOL    HW141988   7.034   0.042   4.435
13383SOL    HW241989   6.892   0.092   4.418
13384SOL     OW41990   9.163   1.154   3.634
13384SOL    HW141991   9.255   1.138   3.616
13384SOL    HW241992   9.151   1.248   3.619
13385SOL     OW41993   5.538   4.652   2.937
13385SOL    HW141994   5.631   4.635   2.922
13385SOL    HW241995   5.528   4.747   2.926
13386SOL     OW41996   7.758   8.381  13.758
13386SOL    HW141997   7.693   8.439  13.797
13386SOL    HW241998   7.718   8.353  13.675
13387SOL     OW41999  11.992   9.652  12.243
13387SOL    HW142000  12.039   9.622  12.166
13387SOL    HW242001  11.942   9.575  12.272
13388SOL     OW42002  11.678   9.189  10.129
13388SOL    HW142003  11.600   9.217  10.177
13388SOL    HW242004  11.646   9.119  10.071
13389SOL     OW42005  14.060   3.801   9.608
13389SOL    HW142006  14.066   3.835   9.698
13389SOL    HW242007  14.058   3.706   9.618
13390SOL     OW42008   9.216   2.107   1.942
13390SOL    HW142009   9.210   2.092   1.848
13390SOL    HW242010   9.144   2.057   1.979
13391SOL     OW42011   8.277   2.187   3.497
13391SOL    HW142012   8.354   2.131   3.487
13391SOL    HW242013   8.253   2.211   3.408
13392SOL     OW42014  13.393  12.569  10.700
13392SOL    HW142015  13.367  12.596  10.612
13392SOL    HW242016  13.463  12.505  10.685
13393SOL     OW42017   5.700   8.440   3.917
13393SOL    HW142018   5.625   8.452   3.859
13393SOL    HW242019   5.661   8.415   4.001
13394SOL     OW42020   2.841   8.870  13.738
13394SOL    HW142021   2.789   8.797  13.772
13394SOL    HW242022   2.920   8.870  13.792
13395SOL     OW42023  14.080  10.542   4.023
13395SOL    HW142024  14.037  10.607   3.967
13395SOL    HW242025  14.103  10.590   4.102
13396SOL     OW42026   4.392  13.386   8.250
13396SOL    HW142027   4.316  13.435   8.217
13396SOL    HW242028   4.462  13.450   8.256
13397SOL     OW42029  14.584   5.097   3.631
13397SOL    HW142030  14.627   5.182   3.630
13397SOL    HW242031  14.656   5.033   3.633
13398SOL     OW42032   2.993   8.948   9.716
13398SOL    HW142033   3.011   9.027   9.768
13398SOL    HW242034   2.948   8.889   9.777
13399SOL     OW42035  12.890   0.694   0.800
13399SOL    HW142036  12.914   0.627   0.864
13399SOL    HW242037  12.881   0.774   0.852
13400SOL     OW42038  10.463   8.862   5.597
13400SOL    HW142039  10.488   8.844   5.688
13400SOL    HW242040  10.391   8.801   5.579
13401SOL     OW42041   9.724   9.749  13.087
13401SOL    HW142042   9.801   9.740  13.142
13401SOL    HW242043   9.759   9.769  13.000
13402SOL     OW42044   5.704   2.279   9.529
13402SOL    HW142045   5.660   2.259   9.612
13402SOL    HW242046   5.715   2.374   9.530
13403SOL     OW42047   0.617  14.863  10.643
13403SOL    HW142048   0.603  14.772  10.617
13403SOL    HW242049   0.658  14.858  10.729
13404SOL     OW42050  10.403   9.660  11.541
13404SOL    HW142051  10.482   9.651  11.593
13404SOL    HW242052  10.345   9.591  11.574
13405SOL     OW42053  14.629   8.135   7.640
13405SOL    HW142054  14.687   8.130   7.564
13405SOL    HW242055  14.687   8.131   7.715
13406SOL     OW42056   8.361   5.896   4.791
13406SOL    HW142057   8.313   5.830   4.840
13406SOL    HW242058   8.388   5.852   4.711
13407SOL     OW42059   7.114   2.340  13.949
13407SOL    HW142060   7.145   2.408  14.009
13407SOL    HW242061   7.194   2.297  13.919
13408SOL     OW42062  12.221  13.271   1.810
13408SOL    HW142063  12.139  13.233   1.844
13408SOL    HW242064  12.258  13.317   1.885
13409SOL     OW42065   7.751   3.028   3.244
13409SOL    HW142066   7.847   3.035   3.242
13409SOL    HW242067   7.730   2.972   3.169
13410SOL     OW42068  12.393  12.093  10.181
13410SOL    HW142069  12.468  12.041  10.152
13410SOL    HW242070  12.342  12.033  10.235
13411SOL     OW42071   2.415  11.169  14.538
13411SOL    HW142072   2.341  11.221  14.507
13411SOL    HW242073   2.378  11.108  14.602
13412SOL     OW42074   7.360   8.352   5.013
13412SOL    HW142075   7.412   8.294   5.068
13412SOL    HW242076   7.420   8.379   4.943
13413SOL     OW42077  10.569  10.191   1.741
13413SOL    HW142078  10.488  10.231   1.773
13413SOL    HW242079  10.552  10.097   1.742
13414SOL     OW42080  14.616  12.935  14.394
13414SOL    HW142081  14.668  12.876  14.339
13414SOL    HW242082  14.600  12.886  14.474
13415SOL     OW42083   4.328  13.628   6.746
13415SOL    HW142084   4.333  13.671   6.831
13415SOL    HW242085   4.412  13.582   6.737
13416SOL     OW42086   4.869  10.831   1.674
13416SOL    HW142087   4.852  10.878   1.592
13416SOL    HW242088   4.873  10.899   1.740
13417SOL     OW42089   9.232   5.697  14.367
13417SOL    HW142090   9.150   5.673  14.410
13417SOL    HW242091   9.220   5.789  14.344
13418SOL     OW42092   0.652  10.526  12.277
13418SOL    HW142093   0.567  10.554  12.312
13418SOL    HW242094   0.703  10.503  12.354
13419SOL     OW42095  12.161  14.131   8.389
13419SOL    HW142096  12.082  14.129   8.442
13419SOL    HW242097  12.226  14.177   8.443
13420SOL     OW42098  14.129   5.375  13.505
13420SOL    HW142099  14.193   5.429  13.552
13420SOL    HW242100  14.140   5.288  13.543
13421SOL     OW42101   1.441   2.775   2.575
13421SOL    HW142102   1.437   2.695   2.628
13421SOL    HW242103   1.408   2.844   2.633
13422SOL     OW42104   1.860   6.745  10.136
13422SOL    HW142105   1.886   6.721  10.047
13422SOL    HW242106   1.769   6.716  10.143
13423SOL     OW42107  14.629  13.531   4.762
13423SOL    HW142108  14.550  13.493   4.801
13423SOL    HW242109  14.598  13.574   4.682
13424SOL     OW42110   4.423   0.347  12.710
13424SOL    HW142111   4.374   0.391  12.640
13424SOL    HW242112   4.482   0.287  12.664
13425SOL     OW42113   2.983  14.475   3.320
13425SOL    HW142114   3.039  14.402   3.296
13425SOL    HW242115   3.010  14.498   3.409
13426SOL     OW42116   3.486  11.527  10.986
13426SOL    HW142117   3.471  11.435  11.009
13426SOL    HW242118   3.401  11.560  10.958
13427SOL     OW42119   2.185  11.565   0.943
13427SOL    HW142120   2.195  11.505   1.017
13427SOL    HW242121   2.181  11.509   0.866
13428SOL     OW42122   6.174   6.937   3.168
13428SOL    HW142123   6.248   6.951   3.228
13428SOL    HW242124   6.096   6.947   3.223
13429SOL     OW42125  12.027   9.705   4.946
13429SOL    HW142126  12.045   9.618   4.910
13429SOL    HW242127  11.932   9.714   4.943
13430SOL     OW42128   3.676   2.831   3.464
13430SOL    HW142129   3.607   2.862   3.523
13430SOL    HW242130   3.630   2.800   3.386
13431SOL     OW42131   5.928   6.962   1.054
13431SOL    HW142132   5.946   7.025   0.984
13431SOL    HW242133   5.970   6.881   1.025
13432SOL     OW42134   0.694  13.257   5.649
13432SOL    HW142135   0.692  13.169   5.685
13432SOL    HW242136   0.605  13.290   5.660
13433SOL     OW42137   9.062   1.734  13.774
13433SOL    HW142138   8.988   1.697  13.727
13433SOL    HW242139   9.139   1.700  13.728
13434SOL     OW42140  10.300   9.541   3.073
13434SOL    HW142141  10.214   9.546   3.033
13434SOL    HW242142  10.324   9.449   3.068
13435SOL     OW42143  10.109  14.837   5.336
13435SOL    HW142144  10.114  14.744   5.359
13435SOL    HW242145  10.174   0.002   5.392
13436SOL     OW42146   4.951   9.516   8.896
13436SOL    HW142147   5.038   9.477   8.908
13436SOL    HW242148   4.940   9.520   8.801
13437SOL     OW42149  12.720  13.734   5.910
13437SOL    HW142150  12.780  13.807   5.912
13437SOL    HW242151  12.659  13.750   5.982
13438SOL     OW42152   9.312   1.352   5.735
13438SOL    HW142153   9.350   1.267   5.759
13438SOL    HW242154   9.379   1.393   5.679
13439SOL     OW42155   3.419   4.214   3.367
13439SOL    HW142156   3.326   4.230   3.351
13439SOL    HW242157   3.423   4.184   3.457
13440SOL     OW42158  11.902   5.797  13.420
13440SOL    HW142159  11.895   5.892  13.432
13440SOL    HW242160  11.819   5.771  13.380
13441SOL     OW42161   9.376  13.660   5.501
13441SOL    HW142162   9.347  13.725   5.437
13441SOL    HW242163   9.305  13.597   5.506
13442SOL     OW42164  10.625   8.989  12.750
13442SOL    HW142165  10.545   8.997  12.803
13442SOL    HW242166  10.597   8.942  12.672
13443SOL     OW42167   8.746   4.173  11.169
13443SOL    HW142168   8.722   4.213  11.253
13443SOL    HW242169   8.691   4.095  11.162
13444SOL     OW42170   4.257  12.168   0.492
13444SOL    HW142171   4.178  12.200   0.448
13444SOL    HW242172   4.314  12.138   0.421
13445SOL     OW42173   8.747   8.744  10.515
13445SOL    HW142174   8.724   8.807  10.583
13445SOL    HW242175   8.838   8.763  10.495
13446SOL     OW42176   6.298   3.360   3.116
13446SOL    HW142177   6.341   3.399   3.040
13446SOL    HW242178   6.251   3.432   3.157
13447SOL     OW42179   6.447   6.799   8.620
13447SOL    HW142180   6.392   6.766   8.550
13447SOL    HW242181   6.388   6.806   8.696
13448SOL     OW42182  14.451  13.243   2.594
13448SOL    HW142183  14.383  13.309   2.599
13448SOL    HW242184  14.455  13.219   2.501
13449SOL     OW42185  14.113   8.228   8.504
13449SOL    HW142186  14.205   8.253   8.497
13449SOL    HW242187  14.104   8.191   8.592
13450SOL     OW42188  11.524   0.818  13.860
13450SOL    HW142189  11.479   0.734  13.853
13450SOL    HW242190  11.608   0.798  13.900
13451SOL     OW42191  14.227   0.985   4.890
13451SOL    HW142192  14.267   1.026   4.814
13451SOL    HW242193  14.207   1.057   4.950
13452SOL     OW42194   6.521  14.106  12.262
13452SOL    HW142195   6.549  14.139  12.176
13452SOL    HW242196   6.484  14.182  12.306
13453SOL     OW42197   1.446   7.903   0.249
13453SOL    HW142198   1.478   7.993   0.249
13453SOL    HW242199   1.354   7.909   0.273
13454SOL     OW42200  12.200   0.437  12.720
13454SOL    HW142201  12.211   0.372  12.651
13454SOL    HW242202  12.252   0.512  12.692
13455SOL     OW42203   3.476  13.673  13.427
13455SOL    HW142204   3.442  13.666  13.516
13455SOL    HW242205   3.563  13.711  13.438
13456SOL     OW42206  14.124   4.200  13.892
13456SOL    HW142207  14.047   4.255  13.902
13456SOL    HW242208  14.099   4.135  13.825
13457SOL     OW42209  10.779   7.923  12.642
13457SOL    HW142210  10.776   8.013  12.609
13457SOL    HW242211  10.813   7.872  12.568
13458SOL     OW42212   4.698   6.560   9.199
13458SOL    HW142213   4.709   6.655   9.197
13458SOL    HW242214   4.744   6.532   9.278
13459SOL     OW42215   0.264   3.922   9.934
13459SOL    HW142216   0.310   3.880  10.007
13459SOL    HW242217   0.225   4.001   9.972
13460SOL     OW42218   1.612  10.682   6.320
13460SOL    HW142219   1.568  10.661   6.238
13460SOL    HW242220   1.679  10.746   6.296
13461SOL     OW42221   8.642   2.912   5.705
13461SOL    HW142222   8.602   2.949   5.626
13461SOL    HW242223   8.583   2.938   5.776
13462SOL     OW42224  10.859   9.775   6.165
13462SOL    HW142225  10.804   9.733   6.231
13462SOL    HW242226  10.820   9.861   6.153
13463SOL     OW42227  12.290  11.234   8.399
13463SOL    HW142228  12.341  11.310   8.371
13463SOL    HW242229  12.299  11.233   8.494
13464SOL     OW42230  11.271   3.083  11.772
13464SOL    HW142231  11.193   3.089  11.718
13464SOL    HW242232  11.240   3.049  11.856
13465SOL     OW42233   8.828   2.601  12.670
13465SOL    HW142234   8.790   2.662  12.607
13465SOL    HW242235   8.766   2.528  12.672
13466SOL     OW42236  10.015   9.227   8.939
13466SOL    HW142237   9.959   9.305   8.941
13466SOL    HW242238   9.997   9.187   8.854
13467SOL     OW42239  11.389   4.514  10.995
13467SOL    HW142240  11.303   4.482  11.022
13467SOL    HW242241  11.433   4.539  11.076
13468SOL     OW42242   8.376   2.743  10.717
13468SOL    HW142243   8.329   2.694  10.784
13468SOL    HW242244   8.465   2.706  10.718
13469SOL     OW42245   7.414  14.164  10.927
13469SOL    HW142246   7.413  14.121  10.841
13469SOL    HW242247   7.333  14.215  10.928
13470SOL     OW42248   4.463   7.458   8.653
13470SOL    HW142249   4.506   7.410   8.583
13470SOL    HW242250   4.434   7.391   8.715
13471SOL     OW42251   0.678  12.403   7.451
13471SOL    HW142252   0.657  12.455   7.529
13471SOL    HW242253   0.762  12.439   7.421
13472SOL     OW42254   1.324   1.132   9.238
13472SOL    HW142255   1.346   1.059   9.181
13472SOL    HW242256   1.375   1.116   9.318
13473SOL     OW42257  13.235  13.086   1.385
13473SOL    HW142258  13.219  13.160   1.444
13473SOL    HW242259  13.148  13.061   1.354
13474SOL     OW42260   8.493   3.737  11.967
13474SOL    HW142261   8.570   3.741  11.910
13474SOL    HW242262   8.528   3.719  12.054
13475SOL     OW42263  11.143   3.024  14.437
13475SOL    HW142264  11.136   2.933  14.407
13475SOL    HW242265  11.093   3.075  14.373
13476SOL     OW42266  12.601  12.399   3.000
13476SOL    HW142267  12.607  12.304   3.014
13476SOL    HW242268  12.652  12.437   3.071
13477SOL     OW42269  13.233   1.601   9.046
13477SOL    HW142270  13.185   1.569   8.970
13477SOL    HW242271  13.325   1.600   9.019
13478SOL     OW42272   3.899  14.269   5.220
13478SOL    HW142273   3.959  14.257   5.146
13478SOL    HW242274   3.839  14.338   5.191
13479SOL     OW42275   6.780   0.792   6.030
13479SOL    HW142276   6.853   0.813   5.971
13479SOL    HW242277   6.705   0.839   5.993
13480SOL     OW42278   1.852  12.660  10.987
13480SOL    HW142279   1.906  12.599  10.936
13480SOL    HW242280   1.843  12.737  10.931
13481SOL     OW42281  12.123   2.847   2.564
13481SOL    HW142282  12.121   2.937   2.597
13481SOL    HW242283  12.215   2.830   2.544
13482SOL     OW42284   2.159   8.098   5.922
13482SOL    HW142285   2.172   8.189   5.947
13482SOL    HW242286   2.082   8.099   5.866
13483SOL     OW42287   2.113   1.394  11.710
13483SOL    HW142288   2.181   1.375  11.774
13483SOL    HW242289   2.052   1.320  11.716
13484SOL     OW42290  13.514   1.480   5.925
13484SOL    HW142291  13.563   1.432   5.992
13484SOL    HW242292  13.433   1.430   5.914
13485SOL     OW42293  10.336   8.098   0.337
13485SOL    HW142294  10.323   8.058   0.251
13485SOL    HW242295  10.417   8.059   0.370
13486SOL     OW42296  10.307  10.334  14.539
13486SOL    HW142297  10.393  10.292  14.544
13486SOL    HW242298  10.248  10.275  14.585
13487SOL     OW42299  14.572   7.498  12.237
13487SOL    HW142300  14.483   7.468  12.222
13487SOL    HW242301  14.623   7.417  12.249
13488SOL     OW42302   9.363   3.651   7.050
13488SOL    HW142303   9.382   3.677   7.140
13488SOL    HW242304   9.423   3.579   7.032
13489SOL     OW42305   9.550  12.073  13.555
13489SOL    HW142306   9.623  12.135  13.561
13489SOL    HW242307   9.575  12.000  13.612
13490SOL     OW42308   3.458   9.715   1.358
13490SOL    HW142309   3.517   9.651   1.398
13490SOL    HW242310   3.377   9.667   1.343
13491SOL     OW42311  13.794   7.251   8.896
13491SOL    HW142312  13.742   7.315   8.944
13491SOL    HW242313  13.766   7.166   8.932
13492SOL     OW42314  14.723   0.700  10.277
13492SOL    HW142315  14.649   0.738  10.230
13492SOL    HW242316  14.797   0.711  10.218
13493SOL     OW42317   4.653  11.932   2.370
13493SOL    HW142318   4.581  11.951   2.430
13493SOL    HW242319   4.711  12.008   2.377
13494SOL     OW42320   1.061  11.563   8.582
13494SOL    HW142321   1.026  11.476   8.602
13494SOL    HW242322   1.156  11.551   8.581
13495SOL     OW42323  14.171   5.803  11.632
13495SOL    HW142324  14.160   5.759  11.716
13495SOL    HW242325  14.118   5.882  11.640
13496SOL     OW42326  11.110   6.221   8.592
13496SOL    HW142327  11.186   6.240   8.538
13496SOL    HW242328  11.118   6.279   8.668
13497SOL     OW42329   4.412  13.591  12.143
13497SOL    HW142330   4.399  13.600  12.049
13497SOL    HW242331   4.495  13.634  12.161
13498SOL     OW42332   8.377   2.323  12.128
13498SOL    HW142333   8.465   2.355  12.111
13498SOL    HW242334   8.362   2.341  12.221
13499SOL     OW42335  11.399   4.591   2.048
13499SOL    HW142336  11.415   4.612   2.140
13499SOL    HW242337  11.482   4.554   2.017
13500SOL     OW42338  13.220   2.162   2.721
13500SOL    HW142339  13.271   2.177   2.801
13500SOL    HW242340  13.197   2.069   2.724
13501SOL     OW42341   2.599   2.801   2.836
13501SOL    HW142342   2.561   2.758   2.759
13501SOL    HW242343   2.637   2.730   2.887
13502SOL     OW42344   3.240   5.248   5.405
13502SOL    HW142345   3.182   5.316   5.369
13502SOL    HW242346   3.181   5.190   5.453
13503SOL     OW42347   2.005   4.889   7.472
13503SOL    HW142348   2.078   4.934   7.431
13503SOL    HW242349   2.033   4.797   7.477
13504SOL     OW42350  10.950  10.540   3.814
13504SOL    HW142351  11.002  10.611   3.778
13504SOL    HW242352  10.917  10.493   3.737
13505SOL     OW42353   1.918   0.764   7.416
13505SOL    HW142354   1.849   0.770   7.351
13505SOL    HW242355   1.942   0.671   7.416
13506SOL     OW42356   2.745   8.791   5.106
13506SOL    HW142357   2.654   8.817   5.091
13506SOL    HW242358   2.783   8.788   5.018
13507SOL     OW42359  11.839   0.096   0.907
13507SOL    HW142360  11.894   0.058   0.838
13507SOL    HW242361  11.804   0.176   0.869
13508SOL     OW42362   9.136   9.427  11.926
13508SOL    HW142363   9.083   9.412  11.848
13508SOL    HW242364   9.129   9.345  11.976
13509SOL     OW42365   3.534   5.502   0.405
13509SOL    HW142366   3.456   5.551   0.432
13509SOL    HW242367   3.514   5.411   0.428
13510SOL     OW42368   3.035  11.400  12.034
13510SOL    HW142369   2.961  11.394  12.095
13510SOL    HW242370   2.997  11.434  11.953
13511SOL     OW42371   9.870   0.629   4.760
13511SOL    HW142372   9.869   0.651   4.667
13511SOL    HW242373   9.778   0.632   4.786
13512SOL     OW42374   6.890  10.561   8.594
13512SOL    HW142375   6.937  10.587   8.514
13512SOL    HW242376   6.943  10.599   8.665
13513SOL     OW42377  10.754   3.783  13.773
13513SOL    HW142378  10.733   3.694  13.801
13513SOL    HW242379  10.673   3.832  13.786
13514SOL     OW42380  11.690  12.911   2.728
13514SOL    HW142381  11.779  12.878   2.720
13514SOL    HW242382  11.654  12.904   2.639
13515SOL     OW42383   7.574  10.173   1.448
13515SOL    HW142384   7.530  10.091   1.472
13515SOL    HW242385   7.533  10.200   1.366
13516SOL     OW42386  11.538  11.096   8.916
13516SOL    HW142387  11.632  11.113   8.907
13516SOL    HW242388  11.500  11.125   8.834
13517SOL     OW42389   8.472   3.365   8.693
13517SOL    HW142390   8.510   3.280   8.672
13517SOL    HW242391   8.534   3.428   8.658
13518SOL     OW42392   9.340  10.504   1.906
13518SOL    HW142393   9.422  10.475   1.946
13518SOL    HW242394   9.317  10.585   1.952
13519SOL     OW42395   0.027   7.118   3.140
13519SOL    HW142396   0.054   7.207   3.163
13519SOL    HW242397   0.096   7.088   3.081
13520SOL     OW42398   9.276   5.870  10.081
13520SOL    HW142399   9.278   5.934  10.009
13520SOL    HW242400   9.317   5.916  10.155
13521SOL     OW42401  13.184   0.597   0.550
13521SOL    HW142402  13.173   0.691   0.535
13521SOL    HW242403  13.226   0.591   0.636
13522SOL     OW42404   2.422   9.399   9.050
13522SOL    HW142405   2.338   9.353   9.050
13522SOL    HW242406   2.444   9.409   8.957
13523SOL     OW42407   5.801   7.474  13.063
13523SOL    HW142408   5.762   7.551  13.105
13523SOL    HW242409   5.892   7.474  13.095
13524SOL     OW42410   7.105   7.788   8.322
13524SOL    HW142411   7.199   7.769   8.319
13524SOL    HW242412   7.083   7.780   8.415
13525SOL     OW42413   6.886  12.013   7.374
13525SOL    HW142414   6.928  12.029   7.459
13525SOL    HW242415   6.888  12.098   7.330
13526SOL     OW42416  10.345  11.993   7.257
13526SOL    HW142417  10.333  11.898   7.255
13526SOL    HW242418  10.327  12.018   7.348
13527SOL     OW42419   7.318  12.924  13.688
13527SOL    HW142420   7.367  12.860  13.739
13527SOL    HW242421   7.254  12.872  13.639
13528SOL     OW42422   2.055   5.759   6.927
13528SOL    HW142423   2.067   5.673   6.885
13528SOL    HW242424   2.105   5.820   6.873
13529SOL     OW42425   9.469   9.822  14.253
13529SOL    HW142426   9.521   9.747  14.225
13529SOL    HW242427   9.434   9.798  14.338
13530SOL     OW42428  12.379  14.678  12.201
13530SOL    HW142429  12.469  14.703  12.181
13530SOL    HW242430  12.374  14.585  12.178
13531SOL     OW42431   2.124  11.034   0.457
13531SOL    HW142432   2.137  11.105   0.521
13531SOL    HW242433   2.207  10.986   0.456
13532SOL     OW42434   9.140  13.517   6.525
13532SOL    HW142435   9.185  13.592   6.563
13532SOL    HW242436   9.101  13.550   6.444
13533SOL     OW42437   6.952   3.011  12.110
13533SOL    HW142438   6.937   3.083  12.171
13533SOL    HW242439   7.039   3.028  12.073
13534SOL     OW42440  10.787  13.622  14.110
13534SOL    HW142441  10.789  13.528  14.093
13534SOL    HW242442  10.859  13.638  14.170
13535SOL     OW42443  14.626  12.554  10.698
13535SOL    HW142444  14.678  12.606  10.636
13535SOL    HW242445  14.604  12.616  10.768
13536SOL     OW42446   4.135   0.097   7.780
13536SOL    HW142447   4.139   0.019   7.725
13536SOL    HW242448   4.182   0.164   7.731
13537SOL     OW42449   5.473   8.759  10.995
13537SOL    HW142450   5.430   8.689  10.946
13537SOL    HW242451   5.421   8.768  11.075
13538SOL     OW42452   4.891   8.537   9.958
13538SOL    HW142453   4.912   8.620  10.000
13538SOL    HW242454   4.884   8.558   9.865
13539SOL     OW42455   2.971  12.026  11.339
13539SOL    HW142456   3.010  12.103  11.381
13539SOL    HW242457   2.975  12.045  11.246
13540SOL     OW42458   2.508   1.193   1.527
13540SOL    HW142459   2.602   1.207   1.523
13540SOL    HW242460   2.496   1.101   1.507
13541SOL     OW42461   4.936   2.116  10.446
13541SOL    HW142462   4.854   2.067  10.440
13541SOL    HW242463   4.931   2.162  10.529
13542SOL     OW42464   3.800  12.254  14.207
13542SOL    HW142465   3.749  12.187  14.252
13542SOL    HW242466   3.873  12.273  14.267
13543SOL     OW42467   4.150   3.570  12.338
13543SOL    HW142468   4.059   3.560  12.310
13543SOL    HW242469   4.196   3.498  12.294
13544SOL     OW42470   6.801   3.768   6.325
13544SOL    HW142471   6.722   3.745   6.375
13544SOL    HW242472   6.782   3.739   6.236
13545SOL     OW42473   8.602   6.691   7.427
13545SOL    HW142474   8.564   6.717   7.512
13545SOL    HW242475   8.574   6.600   7.415
13546SOL     OW42476   0.669   2.339  11.935
13546SOL    HW142477   0.671   2.423  11.887
13546SOL    HW242478   0.747   2.293  11.904
13547SOL     OW42479   1.292   2.957   0.147
13547SOL    HW142480   1.253   2.977   0.232
13547SOL    HW242481   1.228   2.900   0.103
13548SOL     OW42482  14.846   6.086  11.741
13548SOL    HW142483  14.813   6.156  11.797
13548SOL    HW242484  14.848   6.124  11.653
13549SOL     OW42485   1.746   7.131  11.154
13549SOL    HW142486   1.796   7.191  11.097
13549SOL    HW242487   1.684   7.188  11.199
13550SOL     OW42488   1.732  10.912  11.448
13550SOL    HW142489   1.740  10.821  11.474
13550SOL    HW242490   1.643  10.937  11.472
13551SOL     OW42491   0.494   9.071   1.242
13551SOL    HW142492   0.479   9.105   1.330
13551SOL    HW242493   0.528   9.146   1.192
13552SOL     OW42494   8.179   2.808  12.358
13552SOL    HW142495   8.118   2.750  12.311
13552SOL    HW242496   8.134   2.827  12.440
13553SOL     OW42497   6.670   0.003   1.224
13553SOL    HW142498   6.670   0.086   1.272
13553SOL    HW242499   6.715   0.023   1.142
13554SOL     OW42500   6.389  10.108  12.040
13554SOL    HW142501   6.385  10.018  12.072
13554SOL    HW242502   6.480  10.120  12.014
13555SOL     OW42503  13.627  10.916   0.174
13555SOL    HW142504  13.561  10.847   0.172
13555SOL    HW242505  13.673  10.908   0.091
13556SOL     OW42506  14.714   4.668  13.551
13556SOL    HW142507  14.718   4.688  13.644
13556SOL    HW242508  14.789   4.715  13.513
13557SOL     OW42509   0.497  11.354   6.880
13557SOL    HW142510   0.478  11.424   6.817
13557SOL    HW242511   0.555  11.295   6.833
13558SOL     OW42512   3.864  10.917   4.788
13558SOL    HW142513   3.842  10.890   4.877
13558SOL    HW242514   3.874  11.012   4.795
13559SOL     OW42515   2.694  11.858   4.956
13559SOL    HW142516   2.738  11.932   4.997
13559SOL    HW242517   2.605  11.859   4.993
13560SOL     OW42518  13.765   4.308   1.207
13560SOL    HW142519  13.720   4.224   1.221
13560SOL    HW242520  13.857   4.289   1.225
13561SOL     OW42521   1.350  14.030  13.964
13561SOL    HW142522   1.272  13.997  13.919
13561SOL    HW242523   1.392  14.088  13.899
13562SOL     OW42524   8.005   0.728  11.834
13562SOL    HW142525   8.005   0.740  11.929
13562SOL    HW242526   7.962   0.807  11.800
13563SOL     OW42527   2.081  10.933  11.574
13563SOL    HW142528   2.042  10.927  11.486
13563SOL    HW242529   2.165  10.887  11.566
13564SOL     OW42530  14.809  11.617  14.684
13564SOL    HW142531  14.828  11.561  14.608
13564SOL    HW242532  14.845  11.702  14.661
13565SOL     OW42533   1.156   5.097   3.382
13565SOL    HW142534   1.115   5.012   3.403
13565SOL    HW242535   1.144   5.106   3.287
13566SOL     OW42536   7.175   8.379   7.987
13566SOL    HW142537   7.152   8.322   7.913
13566SOL    HW242538   7.097   8.433   8.000
13567SOL     OW42539  13.099  12.038   6.718
13567SOL    HW142540  13.191  12.066   6.724
13567SOL    HW242541  13.049  12.114   6.747
13568SOL     OW42542  13.250   2.616   0.972
13568SOL    HW142543  13.327   2.598   0.919
13568SOL    HW242544  13.212   2.696   0.933
13569SOL     OW42545   6.284   6.335   8.857
13569SOL    HW142546   6.242   6.395   8.795
13569SOL    HW242547   6.370   6.318   8.818
13570SOL     OW42548  10.940   4.850   9.465
13570SOL    HW142549  10.953   4.894   9.548
13570SOL    HW242550  10.960   4.758   9.483
13571SOL     OW42551   7.436   4.428   8.273
13571SOL    HW142552   7.505   4.454   8.211
13571SOL    HW242553   7.483   4.386   8.345
13572SOL     OW42554  13.962   2.507   3.097
13572SOL    HW142555  13.997   2.592   3.125
13572SOL    HW242556  13.871   2.526   3.074
13573SOL     OW42557   4.189   3.704   9.185
13573SOL    HW142558   4.116   3.756   9.218
13573SOL    HW242559   4.254   3.769   9.157
13574SOL     OW42560   8.714   4.249  14.261
13574SOL    HW142561   8.762   4.179  14.304
13574SOL    HW242562   8.746   4.329  14.302
13575SOL     OW42563  13.714   4.460  13.035
13575SOL    HW142564  13.800   4.445  13.074
13575SOL    HW242565  13.653   4.414  13.092
13576SOL     OW42566   1.239  13.570   4.282
13576SOL    HW142567   1.251  13.510   4.355
13576SOL    HW242568   1.313  13.630   4.287
13577SOL     OW42569   6.879  11.578   0.653
13577SOL    HW142570   6.884  11.575   0.748
13577SOL    HW242571   6.839  11.494   0.628
13578SOL     OW42572   0.147   6.687   7.206
13578SOL    HW142573   0.058   6.680   7.172
13578SOL    HW242574   0.178   6.772   7.173
13579SOL     OW42575   6.262   3.963   4.621
13579SOL    HW142576   6.171   3.933   4.625
13579SOL    HW242577   6.266   4.038   4.682
13580SOL     OW42578  12.784   9.044   5.176
13580SOL    HW142579  12.716   8.977   5.166
13580SOL    HW242580  12.859   9.009   5.128
13581SOL     OW42581   8.439   9.448  13.451
13581SOL    HW142582   8.407   9.381  13.391
13581SOL    HW242583   8.398   9.529  13.420
13582SOL     OW42584  13.181  10.803   6.236
13582SOL    HW142585  13.106  10.798   6.296
13582SOL    HW242586  13.168  10.885   6.189
13583SOL     OW42587   5.294   7.179  10.005
13583SOL    HW142588   5.265   7.099   9.961
13583SOL    HW242589   5.261   7.250   9.951
13584SOL     OW42590  14.733  14.311   3.325
13584SOL    HW142591  14.669  14.253   3.283
13584SOL    HW242592  14.682  14.361   3.389
13585SOL     OW42593   4.573   4.767  13.163
13585SOL    HW142594   4.534   4.842  13.208
13585SOL    HW242595   4.665   4.769  13.187
13586SOL     OW42596  10.806   3.141  12.023
13586SOL    HW142597  10.853   3.177  11.947
13586SOL    HW242598  10.854   3.174  12.099
13587SOL     OW42599   7.953   1.879   3.385
13587SOL    HW142600   7.916   1.806   3.434
13587SOL    HW242601   7.994   1.935   3.451
13588SOL     OW42602   6.861  11.121   0.227
13588SOL    HW142603   6.840  11.184   0.159
13588SOL    HW242604   6.941  11.078   0.196
13589SOL     OW42605  11.546  10.861  10.963
13589SOL    HW142606  11.606  10.881  11.035
13589SOL    HW242607  11.574  10.917  10.892
13590SOL     OW42608  12.949   3.287   1.025
13590SOL    HW142609  12.872   3.255   1.071
13590SOL    HW242610  12.923   3.373   0.992
13591SOL     OW42611   2.168   9.455  11.956
13591SOL    HW142612   2.239   9.409  12.001
13591SOL    HW242613   2.150   9.531  12.011
13592SOL     OW42614   9.444   3.828   0.632
13592SOL    HW142615   9.400   3.784   0.560
13592SOL    HW242616   9.537   3.822   0.610
13593SOL     OW42617   0.609   4.742  14.830
13593SOL    HW142618   0.656   4.825  14.831
13593SOL    HW242619   0.677   4.675  14.835
13594SOL     OW42620  11.889   0.006   6.220
13594SOL    HW142621  11.942  14.860   6.144
13594SOL    HW242622  11.833  14.805   6.233
13595SOL     OW42623  13.823   7.523   2.489
13595SOL    HW142624  13.913   7.544   2.464
13595SOL    HW242625  13.808   7.573   2.569
13596SOL     OW42626  13.015   4.049   4.727
13596SOL    HW142627  13.095   4.000   4.745
13596SOL    HW242628  12.948   4.005   4.780
13597SOL     OW42629  13.427   3.749  13.414
13597SOL    HW142630  13.513   3.784  13.390
13597SOL    HW242631  13.375   3.826  13.438
13598SOL     OW42632   9.532   2.735   8.463
13598SOL    HW142633   9.441   2.753   8.489
13598SOL    HW242634   9.528   2.649   8.422
13599SOL     OW42635   0.235  11.942   8.135
13599SOL    HW142636   0.173  12.013   8.151
13599SOL    HW242637   0.183  11.863   8.146
13600SOL     OW42638   1.171   9.150   9.995
13600SOL    HW142639   1.131   9.080  10.045
13600SOL    HW242640   1.098   9.196   9.953
13601SOL     OW42641   1.110   2.758   3.085
13601SOL    HW142642   1.089   2.716   3.002
13601SOL    HW242643   1.030   2.751   3.137
13602SOL     OW42644   9.962   3.345  12.498
13602SOL    HW142645  10.054   3.369  12.509
13602SOL    HW242646   9.928   3.340  12.587
13603SOL     OW42647   3.537  12.364   7.309
13603SOL    HW142648   3.623  12.323   7.302
13603SOL    HW242649   3.552  12.443   7.361
13604SOL     OW42650  10.651  14.801  10.683
13604SOL    HW142651  10.591  14.841  10.619
13604SOL    HW242652  10.738  14.810  10.643
13605SOL     OW42653  13.250   4.317   4.533
13605SOL    HW142654  13.267   4.405   4.501
13605SOL    HW242655  13.159   4.300   4.511
13606SOL     OW42656   2.090   3.117   2.149
13606SOL    HW142657   2.062   3.066   2.073
13606SOL    HW242658   2.091   3.054   2.221
13607SOL     OW42659   7.174   1.117   0.442
13607SOL    HW142660   7.120   1.065   0.501
13607SOL    HW242661   7.264   1.088   0.459
13608SOL     OW42662   0.522   7.747   0.660
13608SOL    HW142663   0.437   7.712   0.688
13608SOL    HW242664   0.506   7.783   0.573
13609SOL     OW42665   4.202   0.208   2.812
13609SOL    HW142666   4.116   0.170   2.828
13609SOL    HW242667   4.193   0.255   2.729
13610SOL     OW42668  14.521  14.091   6.204
13610SOL    HW142669  14.591  14.067   6.265
13610SOL    HW242670  14.462  14.016   6.204
13611SOL     OW42671   7.651   2.267   0.725
13611SOL    HW142672   7.645   2.178   0.691
13611SOL    HW242673   7.689   2.258   0.812
13612SOL     OW42674   5.765   3.256   2.668
13612SOL    HW142675   5.806   3.342   2.658
13612SOL    HW242676   5.732   3.235   2.580
13613SOL     OW42677   3.839   0.851   7.712
13613SOL    HW142678   3.746   0.856   7.734
13613SOL    HW242679   3.877   0.928   7.754
13614SOL     OW42680   8.164   4.405  10.294
13614SOL    HW142681   8.099   4.371  10.232
13614SOL    HW242682   8.132   4.377  10.380
13615SOL     OW42683   7.617   1.892  10.961
13615SOL    HW142684   7.606   1.906  11.055
13615SOL    HW242685   7.698   1.940  10.939
13616SOL     OW42686  10.136  12.793   2.309
13616SOL    HW142687  10.197  12.724   2.282
13616SOL    HW242688  10.171  12.823   2.393
13617SOL     OW42689   0.858  10.708   7.358
13617SOL    HW142690   0.943  10.677   7.326
13617SOL    HW242691   0.801  10.705   7.282
13618SOL     OW42692   1.576   8.794   3.923
13618SOL    HW142693   1.649   8.826   3.976
13618SOL    HW242694   1.543   8.717   3.969
13619SOL     OW42695  11.353   1.989   3.258
13619SOL    HW142696  11.394   2.030   3.334
13619SOL    HW242697  11.295   1.922   3.295
13620SOL     OW42698   7.049   2.606   2.633
13620SOL    HW142699   6.977   2.588   2.693
13620SOL    HW242700   7.055   2.527   2.579
13621SOL     OW42701  11.568   3.652   7.841
13621SOL    HW142702  11.476   3.630   7.828
13621SOL    HW242703  11.589   3.618   7.928
13622SOL     OW42704   4.007  10.503   4.758
13622SOL    HW142705   3.997  10.451   4.838
13622SOL    HW242706   4.101  10.507   4.744
13623SOL     OW42707  10.215  13.046   7.794
13623SOL    HW142708  10.147  13.079   7.736
13623SOL    HW242709  10.189  13.077   7.881
13624SOL     OW42710   0.553   2.450  14.676
13624SOL    HW142711   0.647   2.458  14.666
13624SOL    HW242712   0.535   2.356  14.666
13625SOL     OW42713   6.903  12.991   3.847
13625SOL    HW142714   6.819  13.007   3.889
13625SOL    HW242715   6.959  13.063   3.878
13626SOL     OW42716   8.670   6.084  10.206
13626SOL    HW142717   8.702   6.002  10.167
13626SOL    HW242718   8.628   6.130  10.134
13627SOL     OW42719  11.528   0.421   4.668
13627SOL    HW142720  11.438   0.389   4.673
13627SOL    HW242721  11.581   0.352   4.709
13628SOL     OW42722   1.647   3.038   5.649
13628SOL    HW142723   1.629   3.128   5.675
13628SOL    HW242724   1.641   2.988   5.730
13629SOL     OW42725  14.866  14.170   0.612
13629SOL    HW142726  14.803  14.105   0.643
13629SOL    HW242727   0.050  14.120   0.558
13630SOL     OW42728   1.579   0.638   3.261
13630SOL    HW142729   1.492   0.638   3.300
13630SOL    HW242730   1.632   0.585   3.322
13631SOL     OW42731  14.048   9.788   4.612
13631SOL    HW142732  14.019   9.721   4.673
13631SOL    HW242733  14.052   9.743   4.527
13632SOL     OW42734  13.596   7.991   1.658
13632SOL    HW142735  13.632   8.064   1.608
13632SOL    HW242736  13.633   7.913   1.617
13633SOL     OW42737   5.916   5.087   8.846
13633SOL    HW142738   5.989   5.041   8.806
13633SOL    HW242739   5.914   5.172   8.802
13634SOL     OW42740   0.389   9.139   4.817
13634SOL    HW142741   0.390   9.136   4.722
13634SOL    HW242742   0.375   9.048   4.844
13635SOL     OW42743   0.680   8.509   8.805
13635SOL    HW142744   0.602   8.471   8.765
13635SOL    HW242745   0.672   8.487   8.898
13636SOL     OW42746   9.431  10.649   9.759
13636SOL    HW142747   9.433  10.738   9.724
13636SOL    HW242748   9.447  10.659   9.852
13637SOL     OW42749   7.846   2.520  12.807
13637SOL    HW142750   7.829   2.470  12.727
13637SOL    HW242751   7.759   2.530  12.848
13638SOL     OW42752   9.901   8.864   1.571
13638SOL    HW142753   9.859   8.787   1.609
13638SOL    HW242754   9.895   8.850   1.476
13639SOL     OW42755   8.138   2.271  13.147
13639SOL    HW142756   8.098   2.274  13.060
13639SOL    HW242757   8.208   2.206  13.139
13640SOL     OW42758  11.779  10.241  10.838
13640SOL    HW142759  11.836  10.182  10.889
13640SOL    HW242760  11.768  10.197  10.754
13641SOL     OW42761   1.809  12.364   4.008
13641SOL    HW142762   1.854  12.298   4.061
13641SOL    HW242763   1.718  12.333   4.004
13642SOL     OW42764   9.092   0.793   4.521
13642SOL    HW142765   9.133   0.793   4.434
13642SOL    HW242766   9.037   0.715   4.521
13643SOL     OW42767  13.367   7.410   1.854
13643SOL    HW142768  13.430   7.348   1.816
13643SOL    HW242769  13.364   7.386   1.946
13644SOL     OW42770  13.742  12.828  12.233
13644SOL    HW142771  13.776  12.896  12.175
13644SOL    HW242772  13.795  12.837  12.313
13645SOL     OW42773  13.878   1.758   6.129
13645SOL    HW142774  13.852   1.680   6.080
13645SOL    HW242775  13.869   1.829   6.066
13646SOL     OW42776   5.862  10.696   3.232
13646SOL    HW142777   5.895  10.766   3.175
13646SOL    HW242778   5.877  10.729   3.321
13647SOL     OW42779   8.946   1.999   4.385
13647SOL    HW142780   8.946   2.053   4.306
13647SOL    HW242781   9.039   1.986   4.405
13648SOL     OW42782   9.502   2.350   0.799
13648SOL    HW142783   9.424   2.404   0.811
13648SOL    HW242784   9.499   2.287   0.871
13649SOL     OW42785   1.303  13.822   4.754
13649SOL    HW142786   1.281  13.757   4.687
13649SOL    HW242787   1.343  13.770   4.824
13650SOL     OW42788  11.194   2.191   2.270
13650SOL    HW142789  11.271   2.184   2.326
13650SOL    HW242790  11.185   2.104   2.231
13651SOL     OW42791  13.145  12.134   3.910
13651SOL    HW142792  13.164  12.149   3.817
13651SOL    HW242793  13.209  12.068   3.937
13652SOL     OW42794   9.995  10.154   3.310
13652SOL    HW142795   9.984  10.184   3.400
13652SOL    HW242796  10.055  10.218   3.270
13653SOL     OW42797   6.192   8.898  13.188
13653SOL    HW142798   6.215   8.815  13.229
13653SOL    HW242799   6.112   8.879  13.138
13654SOL     OW42800  13.957  12.138  12.427
13654SOL    HW142801  14.031  12.086  12.458
13654SOL    HW242802  13.907  12.078  12.372
13655SOL     OW42803   0.335   7.241  12.852
13655SOL    HW142804   0.260   7.285  12.893
13655SOL    HW242805   0.411   7.288  12.885
13656SOL     OW42806   6.898  10.186   0.965
13656SOL    HW142807   6.895  10.175   1.060
13656SOL    HW242808   6.970  10.130   0.936
13657SOL     OW42809   2.513   3.122   4.494
13657SOL    HW142810   2.594   3.168   4.513
13657SOL    HW242811   2.526   3.034   4.529
13658SOL     OW42812   9.459  11.588   3.283
13658SOL    HW142813   9.534  11.589   3.224
13658SOL    HW242814   9.481  11.651   3.351
13659SOL     OW42815  12.789  11.473  14.535
13659SOL    HW142816  12.878  11.437  14.531
13659SOL    HW242817  12.761  11.456  14.625
13660SOL     OW42818   0.079   7.981   0.170
13660SOL    HW142819   0.155   8.019   0.126
13660SOL    HW242820   0.114   7.942   0.250
13661SOL     OW42821   0.546   9.783   2.298
13661SOL    HW142822   0.536   9.845   2.226
13661SOL    HW242823   0.517   9.699   2.262
13662SOL     OW42824  12.505  14.169   9.570
13662SOL    HW142825  12.444  14.242   9.559
13662SOL    HW242826  12.482  14.131   9.654
13663SOL     OW42827   5.800   6.220   1.607
13663SOL    HW142828   5.822   6.292   1.547
13663SOL    HW242829   5.883   6.174   1.620
13664SOL     OW42830   2.719   1.999   6.620
13664SOL    HW142831   2.794   2.048   6.655
13664SOL    HW242832   2.678   2.059   6.559
13665SOL     OW42833   2.259   5.257  10.210
13665SOL    HW142834   2.232   5.282  10.299
13665SOL    HW242835   2.177   5.235  10.166
13666SOL     OW42836   7.357   1.543  12.319
13666SOL    HW142837   7.325   1.486  12.249
13666SOL    HW242838   7.294   1.531  12.390
13667SOL     OW42839   3.082  10.824  12.821
13667SOL    HW142840   3.074  10.746  12.766
13667SOL    HW242841   3.074  10.897  12.761
13668SOL     OW42842   5.693  13.599  14.366
13668SOL    HW142843   5.705  13.694  14.374
13668SOL    HW242844   5.665  13.585  14.276
13669SOL     OW42845  14.348   0.284   2.939
13669SOL    HW142846  14.422   0.313   2.886
13669SOL    HW242847  14.353   0.189   2.936
13670SOL     OW42848   4.343  13.151   3.479
13670SOL    HW142849   4.395  13.217   3.526
13670SOL    HW242850   4.258  13.151   3.523
13671SOL     OW42851   0.286   7.952  10.147
13671SOL    HW142852   0.257   7.864  10.169
13671SOL    HW242853   0.381   7.950  10.159
13672SOL     OW42854  13.233   2.483   8.057
13672SOL    HW142855  13.240   2.567   8.012
13672SOL    HW242856  13.301   2.486   8.123
13673SOL     OW42857   9.436  12.254   8.226
13673SOL    HW142858   9.405  12.275   8.314
13673SOL    HW242859   9.382  12.180   8.199
13674SOL     OW42860   3.313  14.651   9.678
13674SOL    HW142861   3.405  14.661   9.656
13674SOL    HW242862   3.275  14.738   9.663
13675SOL     OW42863   4.888   9.525   6.142
13675SOL    HW142864   4.895   9.511   6.237
13675SOL    HW242865   4.902   9.439   6.104
13676SOL     OW42866   6.865  13.002   0.258
13676SOL    HW142867   6.929  13.070   0.278
13676SOL    HW242868   6.818  12.988   0.340
13677SOL     OW42869   3.877  12.807   7.854
13677SOL    HW142870   3.805  12.804   7.917
13677SOL    HW242871   3.841  12.854   7.778
13678SOL     OW42872  13.542  12.814  14.070
13678SOL    HW142873  13.448  12.812  14.092
13678SOL    HW242874  13.585  12.777  14.147
13679SOL     OW42875   0.118   8.917  12.904
13679SOL    HW142876   0.207   8.885  12.893
13679SOL    HW242877   0.082   8.919  12.815
13680SOL     OW42878   7.451   1.567   2.788
13680SOL    HW142879   7.423   1.643   2.838
13680SOL    HW242880   7.532   1.539   2.830
13681SOL     OW42881   2.499   2.387   6.755
13681SOL    HW142882   2.491   2.388   6.850
13681SOL    HW242883   2.415   2.421   6.723
13682SOL     OW42884   4.476  14.075   9.201
13682SOL    HW142885   4.526  14.119   9.132
13682SOL    HW242886   4.539  14.059   9.271
13683SOL     OW42887  12.620   2.957   8.661
13683SOL    HW142888  12.714   2.958   8.646
13683SOL    HW242889  12.585   2.894   8.599
13684SOL     OW42890   1.549  12.252   2.205
13684SOL    HW142891   1.540  12.345   2.185
13684SOL    HW242892   1.465  12.213   2.180
13685SOL     OW42893   7.035   9.497  10.204
13685SOL    HW142894   6.959   9.444  10.226
13685SOL    HW242895   7.013   9.540  10.121
13686SOL     OW42896  10.471   0.202   1.469
13686SOL    HW142897  10.382   0.226   1.493
13686SOL    HW242898  10.466   0.109   1.447
13687SOL     OW42899  13.065   1.195   7.162
13687SOL    HW142900  12.976   1.161   7.170
13687SOL    HW242901  13.071   1.263   7.229
13688SOL     OW42902   3.350   8.546  13.779
13688SOL    HW142903   3.356   8.453  13.803
13688SOL    HW242904   3.259   8.557  13.750
13689SOL     OW42905   7.167   0.927   1.691
13689SOL    HW142906   7.104   0.875   1.740
13689SOL    HW242907   7.250   0.881   1.700
13690SOL     OW42908   1.410  13.399   1.970
13690SOL    HW142909   1.384  13.471   1.913
13690SOL    HW242910   1.441  13.331   1.910
13691SOL     OW42911  11.957   9.595   8.119
13691SOL    HW142912  11.865   9.617   8.132
13691SOL    HW242913  12.004   9.660   8.172
13692SOL     OW42914   1.382   1.127  11.542
13692SOL    HW142915   1.356   1.144  11.632
13692SOL    HW242916   1.428   1.043  11.545
13693SOL     OW42917   9.493   2.703   1.660
13693SOL    HW142918   9.485   2.670   1.750
13693SOL    HW242919   9.586   2.690   1.638
13694SOL     OW42920   3.266   5.658   5.191
13694SOL    HW142921   3.344   5.602   5.195
13694SOL    HW242922   3.232   5.658   5.280
13695SOL     OW42923   0.834   7.927  13.514
13695SOL    HW142924   0.744   7.924  13.548
13695SOL    HW242925   0.885   7.967  13.585
13696SOL     OW42926   0.686   0.038   8.715
13696SOL    HW142927   0.651   0.128   8.713
13696SOL    HW242928   0.667   0.007   8.803
13697SOL     OW42929   8.756   5.923  12.412
13697SOL    HW142930   8.788   5.933  12.502
13697SOL    HW242931   8.798   5.993  12.363
13698SOL     OW42932   9.640   7.695   1.316
13698SOL    HW142933   9.624   7.777   1.363
13698SOL    HW242934   9.715   7.715   1.259
13699SOL     OW42935  13.322  14.825  14.518
13699SOL    HW142936  13.357   0.014  14.457
13699SOL    HW242937  13.390  14.815  14.584
13700SOL     OW42938   8.418   4.114   5.199
13700SOL    HW142939   8.487   4.172   5.231
13700SOL    HW242940   8.360   4.171   5.149
13701SOL     OW42941   1.470   8.093   9.982
13701SOL    HW142942   1.559   8.076   9.950
13701SOL    HW242943   1.466   8.188   9.991
13702SOL     OW42944   0.860   1.070  12.473
13702SOL    HW142945   0.776   1.054  12.516
13702SOL    HW242946   0.856   1.017  12.393
13703SOL     OW42947  11.683   4.411   0.489
13703SOL    HW142948  11.697   4.373   0.403
13703SOL    HW242949  11.664   4.337   0.546
13704SOL     OW42950   6.537   5.542   7.309
13704SOL    HW142951   6.615   5.536   7.365
13704SOL    HW242952   6.465   5.511   7.364
13705SOL     OW42953   4.490   5.399  14.693
13705SOL    HW142954   4.516   5.335  14.627
13705SOL    HW242955   4.567   5.407  14.750
13706SOL     OW42956   0.671   0.289   8.851
13706SOL    HW142957   0.597   0.340   8.885
13706SOL    HW242958   0.734   0.355   8.824
13707SOL     OW42959   0.711  10.573  11.394
13707SOL    HW142960   0.683  10.514  11.324
13707SOL    HW242961   0.775  10.522  11.444
13708SOL     OW42962   7.448   9.013   3.989
13708SOL    HW142963   7.528   9.055   4.019
13708SOL    HW242964   7.448   9.024   3.894
13709SOL     OW42965   8.026   9.051  11.049
13709SOL    HW142966   8.043   9.045  10.955
13709SOL    HW242967   7.966   9.124  11.058
13710SOL     OW42968  10.115   8.754   9.741
13710SOL    HW142969  10.073   8.754   9.828
13710SOL    HW242970  10.198   8.798   9.755
13711SOL     OW42971   0.315  13.089   2.573
13711SOL    HW142972   0.302  13.157   2.639
13711SOL    HW242973   0.387  13.036   2.606
13712SOL     OW42974  13.655  14.166  10.320
13712SOL    HW142975  13.567  14.179  10.283
13712SOL    HW242976  13.646  14.090  10.377
13713SOL     OW42977   6.819   5.477   2.113
13713SOL    HW142978   6.899   5.447   2.155
13713SOL    HW242979   6.755   5.408   2.133
13714SOL     OW42980   0.347   7.400   4.892
13714SOL    HW142981   0.357   7.473   4.953
13714SOL    HW242982   0.434   7.390   4.853
13715SOL     OW42983  11.900   0.880  11.565
13715SOL    HW142984  11.916   0.967  11.527
13715SOL    HW242985  11.929   0.819  11.497
13716SOL     OW42986   0.603  10.405   2.769
13716SOL    HW142987   0.637  10.316   2.760
13716SOL    HW242988   0.560  10.406   2.855
13717SOL     OW42989   0.452   4.321  11.161
13717SOL    HW142990   0.544   4.339  11.178
13717SOL    HW242991   0.451   4.289  11.070
13718SOL     OW42992  11.963  12.793  13.772
13718SOL    HW142993  12.035  12.835  13.820
13718SOL    HW242994  11.966  12.833  13.685
13719SOL     OW42995   4.121  13.017   6.926
13719SOL    HW142996   4.188  12.975   6.980
13719SOL    HW242997   4.111  12.959   6.851
13720SOL     OW42998   7.336   8.602   3.370
13720SOL    HW142999   7.243   8.583   3.354
13720SOL    HW243000   7.340   8.697   3.372
13721SOL     OW43001   8.927   6.805   6.199
13721SOL    HW143002   8.967   6.773   6.279
13721SOL    HW243003   8.974   6.761   6.129
13722SOL     OW43004   2.081   6.371   3.356
13722SOL    HW143005   2.024   6.370   3.432
13722SOL    HW243006   2.100   6.463   3.341
13723SOL     OW43007  14.165   8.534  12.221
13723SOL    HW143008  14.255   8.512  12.197
13723SOL    HW243009  14.115   8.455  12.202
13724SOL     OW43010   0.704   3.181   6.444
13724SOL    HW143011   0.706   3.108   6.505
13724SOL    HW243012   0.789   3.178   6.400
13725SOL     OW43013  11.179   6.242  12.523
13725SOL    HW143014  11.105   6.241  12.462
13725SOL    HW243015  11.140   6.259  12.608
13726SOL     OW43016  12.862   7.416   8.001
13726SOL    HW143017  12.800   7.388   8.069
13726SOL    HW243018  12.918   7.480   8.044
13727SOL     OW43019  11.360  14.531  13.106
13727SOL    HW143020  11.395  14.588  13.174
13727SOL    HW243021  11.298  14.586  13.058
13728SOL     OW43022   6.110   8.833   9.894
13728SOL    HW143023   6.122   8.740   9.877
13728SOL    HW243024   6.028   8.855   9.850
13729SOL     OW43025   7.201  10.727   0.413
13729SOL    HW143026   7.204  10.787   0.487
13729SOL    HW243027   7.283  10.744   0.366
13730SOL     OW43028   9.159   3.809   9.061
13730SOL    HW143029   9.159   3.826   9.155
13730SOL    HW243030   9.243   3.842   9.030
13731SOL     OW43031   3.508   1.293   3.412
13731SOL    HW143032   3.452   1.370   3.420
13731SOL    HW243033   3.592   1.319   3.450
13732SOL     OW43034   6.412   9.530  12.702
13732SOL    HW143035   6.357   9.487  12.768
13732SOL    HW243036   6.437   9.459  12.642
13733SOL     OW43037   7.001   1.560   2.351
13733SOL    HW143038   6.970   1.602   2.431
13733SOL    HW243039   6.977   1.468   2.361
13734SOL     OW43040   1.058  12.568   3.638
13734SOL    HW143041   1.131  12.521   3.599
13734SOL    HW243042   1.031  12.513   3.712
13735SOL     OW43043   7.587   5.400  11.709
13735SOL    HW143044   7.601   5.472  11.648
13735SOL    HW243045   7.498   5.412  11.742
13736SOL     OW43046  13.315   4.092   0.635
13736SOL    HW143047  13.277   4.163   0.686
13736SOL    HW243048  13.278   4.103   0.548
13737SOL     OW43049  12.628  14.005   2.348
13737SOL    HW143050  12.704  13.982   2.401
13737SOL    HW243051  12.636  13.952   2.269
13738SOL     OW43052   3.740   6.880   7.258
13738SOL    HW143053   3.804   6.812   7.279
13738SOL    HW243054   3.793   6.960   7.247
13739SOL     OW43055   0.985  10.578   9.218
13739SOL    HW143056   0.912  10.633   9.246
13739SOL    HW243057   0.993  10.511   9.286
13740SOL     OW43058   5.223   1.175   0.521
13740SOL    HW143059   5.169   1.103   0.490
13740SOL    HW243060   5.312   1.139   0.522
13741SOL     OW43061   9.847   0.011  12.787
13741SOL    HW143062   9.931   0.013  12.834
13741SOL    HW243063   9.785  14.851  12.850
13742SOL     OW43064  14.719   9.708   4.537
13742SOL    HW143065  14.665   9.732   4.613
13742SOL    HW243066  14.711   9.782   4.478
13743SOL     OW43067  12.375   0.970   4.878
13743SOL    HW143068  12.394   1.058   4.847
13743SOL    HW243069  12.327   0.983   4.960
13744SOL     OW43070  13.325   8.025   2.548
13744SOL    HW143071  13.274   7.961   2.497
13744SOL    HW243072  13.334   8.100   2.490
13745SOL     OW43073  13.633  13.242  14.608
13745SOL    HW143074  13.713  13.262  14.559
13745SOL    HW243075  13.614  13.150  14.587
13746SOL     OW43076   4.450   9.480  11.505
13746SOL    HW143077   4.407   9.515  11.583
13746SOL    HW243078   4.542   9.507  11.515
13747SOL     OW43079   5.420   3.884  14.785
13747SOL    HW143080   5.503   3.887  14.833
13747SOL    HW243081   5.388   3.795  14.798
13748SOL     OW43082   3.712  14.023   3.623
13748SOL    HW143083   3.618  14.008   3.614
13748SOL    HW243084   3.743  13.950   3.677
13749SOL     OW43085  13.849  14.124   6.972
13749SOL    HW143086  13.869  14.057   6.907
13749SOL    HW243087  13.754  14.131   6.972
13750SOL     OW43088   6.603   9.533   0.706
13750SOL    HW143089   6.697   9.551   0.708
13750SOL    HW243090   6.592   9.471   0.634
13751SOL     OW43091   9.438   2.256   2.601
13751SOL    HW143092   9.395   2.341   2.596
13751SOL    HW243093   9.531   2.274   2.589
13752SOL     OW43094  14.323   0.826  10.770
13752SOL    HW143095  14.417   0.829  10.789
13752SOL    HW243096  14.305   0.908  10.724
13753SOL     OW43097  12.664  14.057  12.021
13753SOL    HW143098  12.583  14.011  12.039
13753SOL    HW243099  12.651  14.096  11.934
13754SOL     OW43100   5.734  13.930  14.382
13754SOL    HW143101   5.807  13.919  14.322
13754SOL    HW243102   5.754  14.009  14.431
13755SOL     OW43103   8.665   5.146   5.034
13755SOL    HW143104   8.685   5.214   4.969
13755SOL    HW243105   8.711   5.174   5.113
13756SOL     OW43106  14.389  12.971   9.051
13756SOL    HW143107  14.333  12.907   9.007
13756SOL    HW243108  14.448  12.918   9.104
13757SOL     OW43109   8.806  12.142  12.020
13757SOL    HW143110   8.725  12.188  11.998
13757SOL    HW243111   8.794  12.053  11.986
13758SOL     OW43112   5.585   7.462   1.335
13758SOL    HW143113   5.615   7.377   1.304
13758SOL    HW243114   5.659   7.521   1.319
13759SOL     OW43115  13.237   4.107   1.001
13759SOL    HW143116  13.279   4.156   1.071
13759SOL    HW243117  13.294   4.031   0.987
13760SOL     OW43118   8.291  11.201   3.708
13760SOL    HW143119   8.272  11.259   3.634
13760SOL    HW243120   8.371  11.237   3.746
13761SOL     OW43121   9.271   5.543   6.627
13761SOL    HW143122   9.222   5.621   6.599
13761SOL    HW243123   9.334   5.576   6.691
13762SOL     OW43124  13.982  12.137   5.147
13762SOL    HW143125  13.891  12.115   5.129
13762SOL    HW243126  14.017  12.061   5.193
13763SOL     OW43127   7.100   3.013  13.337
13763SOL    HW143128   7.016   3.038  13.300
13763SOL    HW243129   7.101   2.917  13.333
13764SOL     OW43130   7.379   1.893   2.283
13764SOL    HW143131   7.337   1.974   2.313
13764SOL    HW243132   7.472   1.906   2.302
13765SOL     OW43133   0.687   1.061  13.333
13765SOL    HW143134   0.729   1.139  13.370
13765SOL    HW243135   0.699   1.071  13.238
13766SOL     OW43136   6.030  13.683  14.794
13766SOL    HW143137   5.942  13.644  14.803
13766SOL    HW243138   6.053  13.708   0.007
13767SOL     OW43139   8.227   4.380  14.221
13767SOL    HW143140   8.301   4.324  14.197
13767SOL    HW243141   8.259   4.469  14.208
13768SOL     OW43142   8.632   4.491   9.704
13768SOL    HW143143   8.641   4.468   9.796
13768SOL    HW243144   8.654   4.584   9.700
13769SOL     OW43145   0.421   4.526  10.758
13769SOL    HW143146   0.464   4.587  10.698
13769SOL    HW243147   0.339   4.503  10.714
13770SOL     OW43148  12.347   2.192  10.223
13770SOL    HW143149  12.252   2.197  10.220
13770SOL    HW243150  12.372   2.242  10.301
13771SOL     OW43151  10.643  11.583   9.136
13771SOL    HW143152  10.732  11.569   9.105
13771SOL    HW243153  10.649  11.582   9.231
13772SOL     OW43154  11.260   2.633   9.876
13772SOL    HW143155  11.216   2.669   9.953
13772SOL    HW243156  11.258   2.538   9.890
13773SOL     OW43157   4.015   6.399   0.719
13773SOL    HW143158   4.042   6.437   0.803
13773SOL    HW243159   3.929   6.361   0.736
13774SOL     OW43160   2.566   6.582   4.215
13774SOL    HW143161   2.647   6.543   4.247
13774SOL    HW243162   2.501   6.565   4.283
13775SOL     OW43163   1.255   7.493   9.753
13775SOL    HW143164   1.315   7.539   9.811
13775SOL    HW243165   1.225   7.560   9.691
13776SOL     OW43166   0.529   5.632   0.120
13776SOL    HW143167   0.526   5.601   0.030
13776SOL    HW243168   0.462   5.581   0.166
13777SOL     OW43169  10.081   5.293   4.353
13777SOL    HW143170  10.006   5.242   4.320
13777SOL    HW243171  10.051   5.327   4.437
13778SOL     OW43172   3.646   3.889   3.601
13778SOL    HW143173   3.721   3.830   3.596
13778SOL    HW243174   3.578   3.845   3.550
13779SOL     OW43175  14.610  10.731   3.478
13779SOL    HW143176  14.551  10.749   3.404
13779SOL    HW243177  14.555  10.740   3.556
13780SOL     OW43178  14.258   9.887   9.070
13780SOL    HW143179  14.320   9.898   8.998
13780SOL    HW243180  14.179   9.933   9.042
13781SOL     OW43181   8.997  11.490   8.342
13781SOL    HW143182   9.082  11.527   8.366
13781SOL    HW243183   8.963  11.550   8.276
13782SOL     OW43184   7.501   6.721   6.618
13782SOL    HW143185   7.460   6.726   6.531
13782SOL    HW243186   7.429   6.698   6.677
13783SOL     OW43187  12.914  12.707   6.968
13783SOL    HW143188  12.921  12.793   6.926
13783SOL    HW243189  12.831  12.711   7.016
13784SOL     OW43190  13.552   9.800   6.237
13784SOL    HW143191  13.587   9.794   6.326
13784SOL    HW243192  13.457   9.804   6.249
13785SOL     OW43193   6.424   7.973  14.290
13785SOL    HW143194   6.497   7.961  14.230
13785SOL    HW243195   6.454   8.042  14.350
13786SOL     OW43196  12.221  14.285   8.607
13786SOL    HW143197  12.176  14.366   8.584
13786SOL    HW243198  12.157  14.237   8.660
13787SOL     OW43199  12.719  13.532  10.465
13787SOL    HW143200  12.678  13.501  10.546
13787SOL    HW243201  12.653  13.589  10.425
13788SOL     OW43202  14.758   3.471   8.330
13788SOL    HW143203  14.694   3.513   8.273
13788SOL    HW243204  14.769   3.383   8.294
13789SOL     OW43205   8.320   4.041   6.225
13789SOL    HW143206   8.415   4.053   6.219
13789SOL    HW243207   8.309   3.951   6.255
13790SOL     OW43208  14.795   8.123  12.601
13790SOL    HW143209  14.859   8.083  12.542
13790SOL    HW243210  14.804   8.074  12.683
13791SOL     OW43211   1.564   2.959   7.863
13791SOL    HW143212   1.526   2.873   7.846
13791SOL    HW243213   1.554   2.971   7.958
13792SOL     OW43214   4.909   3.624  14.162
13792SOL    HW143215   4.904   3.710  14.204
13792SOL    HW243216   5.002   3.615  14.138
13793SOL     OW43217  14.341  13.301   3.332
13793SOL    HW143218  14.351  13.378   3.388
13793SOL    HW243219  14.429  13.264   3.326
13794SOL     OW43220  11.912  12.246  13.495
13794SOL    HW143221  11.901  12.183  13.566
13794SOL    HW243222  11.824  12.281  13.480
13795SOL     OW43223   5.274   5.703   4.481
13795SOL    HW143224   5.196   5.756   4.467
13795SOL    HW243225   5.323   5.748   4.549
13796SOL     OW43226   2.361   9.787  13.998
13796SOL    HW143227   2.433   9.731  13.970
13796SOL    HW243228   2.401   9.872  14.016
13797SOL     OW43229  13.354  11.002   3.356
13797SOL    HW143230  13.293  10.969   3.421
13797SOL    HW243231  13.335  10.951   3.277
13798SOL     OW43232   9.019  14.564   8.085
13798SOL    HW143233   9.012  14.658   8.074
13798SOL    HW243234   9.052  14.552   8.174
13799SOL     OW43235   2.540   3.515   1.602
13799SOL    HW143236   2.459   3.467   1.587
13799SOL    HW243237   2.512   3.602   1.630
13800SOL     OW43238   4.448  13.769   7.005
13800SOL    HW143239   4.488  13.856   7.005
13800SOL    HW243240   4.363  13.782   7.046
13801SOL     OW43241   7.022   5.496   6.211
13801SOL    HW143242   7.102   5.491   6.264
13801SOL    HW243243   7.053   5.498   6.121
13802SOL     OW43244  14.771   9.683   8.312
13802SOL    HW143245  14.745   9.689   8.220
13802SOL    HW243246  14.866   9.682   8.310
13803SOL     OW43247   1.002  14.271  10.197
13803SOL    HW143248   1.036  14.285  10.109
13803SOL    HW243249   0.959  14.354  10.219
13804SOL     OW43250   8.190   7.874   6.411
13804SOL    HW143251   8.182   7.778   6.416
13804SOL    HW243252   8.282   7.891   6.433
13805SOL     OW43253   9.577  12.757  10.550
13805SOL    HW143254   9.560  12.848  10.525
13805SOL    HW243255   9.553  12.753  10.643
13806SOL     OW43256  10.478   2.870   9.109
13806SOL    HW143257  10.492   2.828   9.194
13806SOL    HW243258  10.470   2.963   9.129
13807SOL     OW43259  12.177  12.680   2.035
13807SOL    HW143260  12.239  12.739   1.993
13807SOL    HW243261  12.226  12.598   2.045
13808SOL     OW43262  11.499   7.800  12.046
13808SOL    HW143263  11.478   7.795  12.139
13808SOL    HW243264  11.416   7.823  12.004
13809SOL     OW43265  14.300   6.067   6.032
13809SOL    HW143266  14.287   5.973   6.025
13809SOL    HW243267  14.385   6.083   5.991
13810SOL     OW43268  11.414  12.737   4.827
13810SOL    HW143269  11.388  12.804   4.890
13810SOL    HW243270  11.343  12.673   4.830
13811SOL     OW43271   0.028   0.693   8.387
13811SOL    HW143272   0.080   0.734   8.456
13811SOL    HW243273   0.078   0.710   8.307
13812SOL     OW43274   0.895  13.441   2.859
13812SOL    HW143275   0.911  13.411   2.949
13812SOL    HW243276   0.983  13.459   2.824
13813SOL     OW43277   9.157  11.033  14.250
13813SOL    HW143278   9.240  11.080  14.256
13813SOL    HW243279   9.130  11.045  14.159
13814SOL     OW43280  11.950  11.066   0.464
13814SOL    HW143281  11.920  11.144   0.511
13814SOL    HW243282  12.005  11.019   0.526
13815SOL     OW43283   6.153  10.068   4.918
13815SOL    HW143284   6.230  10.110   4.957
13815SOL    HW243285   6.184  10.034   4.834
13816SOL     OW43286   4.811   6.380  11.869
13816SOL    HW143287   4.767   6.298  11.844
13816SOL    HW243288   4.823   6.427  11.787
13817SOL     OW43289   4.932   3.172   7.234
13817SOL    HW143290   4.911   3.259   7.202
13817SOL    HW243291   4.847   3.129   7.244
13818SOL     OW43292  10.700   9.121   3.846
13818SOL    HW143293  10.754   9.198   3.862
13818SOL    HW243294  10.644   9.114   3.923
13819SOL     OW43295   0.279   1.218   2.311
13819SOL    HW143296   0.216   1.238   2.381
13819SOL    HW243297   0.312   1.304   2.284
13820SOL     OW43298   3.451  12.625   3.112
13820SOL    HW143299   3.524  12.656   3.166
13820SOL    HW243300   3.439  12.534   3.139
13821SOL     OW43301  11.930   4.574  12.519
13821SOL    HW143302  11.995   4.636  12.488
13821SOL    HW243303  11.972   4.527  12.590
13822SOL     OW43304   3.337   9.833  13.029
13822SOL    HW143305   3.401   9.905  13.035
13822SOL    HW243306   3.294   9.846  12.945
13823SOL     OW43307   5.270   8.721   7.585
13823SOL    HW143308   5.292   8.668   7.661
13823SOL    HW243309   5.227   8.799   7.622
13824SOL     OW43310   4.560   2.195  14.297
13824SOL    HW143311   4.646   2.237  14.298
13824SOL    HW243312   4.500   2.264  14.270
13825SOL     OW43313   0.436  12.155   4.189
13825SOL    HW143314   0.354  12.135   4.234
13825SOL    HW243315   0.429  12.248   4.167
13826SOL     OW43316   0.579   0.391  14.319
13826SOL    HW143317   0.627   0.364  14.241
13826SOL    HW243318   0.636   0.457  14.361
13827SOL     OW43319  10.423   6.269   3.009
13827SOL    HW143320  10.377   6.280   2.926
13827SOL    HW243321  10.515   6.274   2.987
13828SOL     OW43322   9.990   1.165  14.194
13828SOL    HW143323  10.012   1.174  14.286
13828SOL    HW243324  10.053   1.222  14.149
13829SOL     OW43325  10.661  13.326  10.731
13829SOL    HW143326  10.756  13.310  10.738
13829SOL    HW243327  10.630  13.256  10.674
13830SOL     OW43328   6.945   3.160   7.653
13830SOL    HW143329   6.877   3.093   7.654
13830SOL    HW243330   6.974   3.165   7.744
13831SOL     OW43331   1.471   5.218   0.897
13831SOL    HW143332   1.543   5.252   0.845
13831SOL    HW243333   1.393   5.258   0.860
13832SOL     OW43334   9.794   5.915  13.167
13832SOL    HW143335   9.706   5.926  13.131
13832SOL    HW243336   9.845   5.878  13.095
13833SOL     OW43337   5.706   6.322   1.854
13833SOL    HW143338   5.776   6.380   1.883
13833SOL    HW243339   5.730   6.299   1.765
13834SOL     OW43340  12.806   6.987   2.929
13834SOL    HW143341  12.785   7.078   2.908
13834SOL    HW243342  12.840   6.990   3.018
13835SOL     OW43343   7.749   1.376  12.385
13835SOL    HW143344   7.705   1.297  12.354
13835SOL    HW243345   7.812   1.397  12.315
13836SOL     OW43346   0.163   6.467   3.952
13836SOL    HW143347   0.101   6.442   4.021
13836SOL    HW243348   0.191   6.384   3.914
13837SOL     OW43349   5.078   8.692   5.452
13837SOL    HW143350   5.053   8.630   5.383
13837SOL    HW243351   5.173   8.686   5.457
13838SOL     OW43352  13.579  14.130   6.961
13838SOL    HW143353  13.493  14.166   6.942
13838SOL    HW243354  13.580  14.119   7.056
13839SOL     OW43355  13.955   3.284  13.223
13839SOL    HW143356  13.914   3.371  13.218
13839SOL    HW243357  13.883   3.225  13.247
13840SOL     OW43358   6.039  12.207  10.953
13840SOL    HW143359   6.024  12.173  10.865
13840SOL    HW243360   6.128  12.178  10.975
13841SOL     OW43361   4.672   0.950   1.214
13841SOL    HW143362   4.710   0.887   1.275
13841SOL    HW243363   4.733   0.952   1.140
13842SOL     OW43364  10.045  10.127   3.884
13842SOL    HW143365  10.011  10.216   3.879
13842SOL    HW243366  10.126  10.135   3.933
13843SOL     OW43367  12.196   4.137   4.424
13843SOL    HW143368  12.239   4.194   4.361
13843SOL    HW243369  12.121   4.100   4.377
13844SOL     OW43370   5.799   4.981   9.959
13844SOL    HW143371   5.802   4.892   9.924
13844SOL    HW243372   5.814   5.037   9.883
13845SOL     OW43373  14.800   4.615   0.887
13845SOL    HW143374  14.790   4.638   0.794
13845SOL    HW243375  14.826   4.697   0.929
13846SOL     OW43376   5.390   7.528   0.081
13846SOL    HW143377   5.430   7.615   0.071
13846SOL    HW243378   5.431   7.493   0.160
13847SOL     OW43379   3.071  13.908   2.096
13847SOL    HW143380   3.124  13.931   2.019
13847SOL    HW243381   3.023  13.988   2.116
13848SOL     OW43382  10.076   2.431  12.900
13848SOL    HW143383  10.015   2.456  12.970
13848SOL    HW243384  10.075   2.335  12.902
13849SOL     OW43385   3.186   2.431   2.641
13849SOL    HW143386   3.189   2.460   2.732
13849SOL    HW243387   3.150   2.506   2.593
13850SOL     OW43388   8.937   8.938   4.212
13850SOL    HW143389   8.869   8.997   4.181
13850SOL    HW243390   8.895   8.852   4.216
13851SOL     OW43391   8.938  10.497  12.033
13851SOL    HW143392   8.895  10.508  12.118
13851SOL    HW243393   8.898  10.418  11.996
13852SOL     OW43394  13.202   7.899   8.985
13852SOL    HW143395  13.233   7.868   9.070
13852SOL    HW243396  13.178   7.990   9.000
13853SOL     OW43397   2.540   6.507  13.529
13853SOL    HW143398   2.498   6.568  13.468
13853SOL    HW243399   2.577   6.563  13.597
13854SOL     OW43400  13.765  10.722   3.530
13854SOL    HW143401  13.850  10.757   3.556
13854SOL    HW243402  13.702  10.764   3.589
13855SOL     OW43403   2.747  11.446   7.195
13855SOL    HW143404   2.742  11.459   7.290
13855SOL    HW243405   2.723  11.531   7.158
13856SOL     OW43406  14.386   0.212  13.666
13856SOL    HW143407  14.364   0.120  13.654
13856SOL    HW243408  14.479   0.212  13.691
13857SOL     OW43409   2.089   7.696  10.526
13857SOL    HW143410   2.043   7.774  10.555
13857SOL    HW243411   2.178   7.726  10.506
13858SOL     OW43412   7.526   7.328   0.061
13858SOL    HW143413   7.461   7.280   0.010
13858SOL    HW243414   7.558   7.395   0.000
13859SOL     OW43415   6.635  11.719   0.812
13859SOL    HW143416   6.587  11.659   0.755
13859SOL    HW243417   6.567  11.758   0.867
13860SOL     OW43418  11.857  14.670   6.774
13860SOL    HW143419  11.932  14.616   6.751
13860SOL    HW243420  11.796  14.610   6.817
13861SOL     OW43421  10.543  10.626   6.785
13861SOL    HW143422  10.461  10.578   6.774
13861SOL    HW243423  10.520  10.702   6.837
13862SOL     OW43424   0.210   1.843   1.955
13862SOL    HW143425   0.288   1.793   1.976
13862SOL    HW243426   0.207   1.845   1.860
13863SOL     OW43427   1.782  12.759   2.377
13863SOL    HW143428   1.781  12.666   2.396
13863SOL    HW243429   1.873  12.779   2.355
13864SOL     OW43430   6.376   4.128  10.174
13864SOL    HW143431   6.342   4.042  10.151
13864SOL    HW243432   6.468   4.113  10.196
13865SOL     OW43433   1.281  10.257   8.521
13865SOL    HW143434   1.220  10.330   8.534
13865SOL    HW243435   1.247  10.211   8.444
13866SOL     OW43436   4.458   9.129   7.654
13866SOL    HW143437   4.380   9.145   7.601
13866SOL    HW243438   4.428   9.142   7.745
13867SOL     OW43439   6.182   6.222  12.112
13867SOL    HW143440   6.176   6.188  12.022
13867SOL    HW243441   6.250   6.289  12.108
13868SOL     OW43442   6.432  11.277   3.312
13868SOL    HW143443   6.396  11.231   3.236
13868SOL    HW243444   6.360  11.331   3.344
13869SOL     OW43445   4.749   3.642   4.261
13869SOL    HW143446   4.791   3.592   4.330
13869SOL    HW243447   4.793   3.726   4.260
13870SOL     OW43448   4.275  12.257  11.650
13870SOL    HW143449   4.243  12.167  11.658
13870SOL    HW243450   4.208  12.311  11.691
13871SOL     OW43451  13.970   9.592  10.799
13871SOL    HW143452  14.017   9.623  10.722
13871SOL    HW243453  13.890   9.645  10.800
13872SOL     OW43454   7.692   6.743   6.904
13872SOL    HW143455   7.767   6.798   6.882
13872SOL    HW243456   7.710   6.659   6.862
13873SOL     OW43457   6.838   7.728   0.058
13873SOL    HW143458   6.881   7.647   0.027
13873SOL    HW243459   6.757   7.698   0.099
13874SOL     OW43460  10.829  10.342   8.922
13874SOL    HW143461  10.765  10.271   8.918
13874SOL    HW243462  10.905  10.308   8.876
13875SOL     OW43463   0.611   9.656   4.893
13875SOL    HW143464   0.524   9.618   4.880
13875SOL    HW243465   0.624   9.654   4.988
13876SOL     OW43466  13.850   8.171  10.687
13876SOL    HW143467  13.842   8.246  10.629
13876SOL    HW243468  13.889   8.102  10.633
13877SOL     OW43469   8.580   6.271  14.192
13877SOL    HW143470   8.573   6.292  14.099
13877SOL    HW243471   8.502   6.218  14.210
13878SOL     OW43472  12.678  10.819   5.857
13878SOL    HW143473  12.609  10.884   5.872
13878SOL    HW243474  12.631  10.736   5.851
13879SOL     OW43475   1.619   3.208   3.330
13879SOL    HW143476   1.560   3.208   3.405
13879SOL    HW243477   1.562   3.193   3.254
13880SOL     OW43478   9.101   7.548  10.525
13880SOL    HW143479   9.093   7.511  10.613
13880SOL    HW243480   9.015   7.533  10.485
13881SOL     OW43481  10.349   0.050   4.245
13881SOL    HW143482  10.388   0.013   4.166
13881SOL    HW243483  10.393   0.134   4.256
13882SOL     OW43484   8.548   9.609  11.605
13882SOL    HW143485   8.632   9.591  11.562
13882SOL    HW243486   8.529   9.529  11.654
13883SOL     OW43487  13.442  12.508   4.661
13883SOL    HW143488  13.538  12.498   4.658
13883SOL    HW243489  13.411  12.426   4.700
13884SOL     OW43490   8.149   1.611   7.123
13884SOL    HW143491   8.102   1.682   7.080
13884SOL    HW243492   8.107   1.531   7.091
13885SOL     OW43493   3.368   1.954   4.452
13885SOL    HW143494   3.342   2.036   4.494
13885SOL    HW243495   3.367   1.889   4.522
13886SOL     OW43496  14.236   4.151   4.888
13886SOL    HW143497  14.163   4.098   4.920
13886SOL    HW243498  14.204   4.241   4.892
13887SOL     OW43499   7.944  11.669   3.909
13887SOL    HW143500   7.937  11.578   3.880
13887SOL    HW243501   8.035  11.678   3.939
13888SOL     OW43502  13.667   7.297   0.285
13888SOL    HW143503  13.603   7.246   0.335
13888SOL    HW243504  13.748   7.291   0.335
13889SOL     OW43505   4.597   1.178   0.793
13889SOL    HW143506   4.692   1.181   0.787
13889SOL    HW243507   4.567   1.258   0.751
13890SOL     OW43508   8.561  12.900   4.126
13890SOL    HW143509   8.473  12.909   4.088
13890SOL    HW243510   8.610  12.850   4.061
13891SOL     OW43511   0.852  10.716  12.400
13891SOL    HW143512   0.840  10.714  12.305
13891SOL    HW243513   0.838  10.626  12.428
13892SOL     OW43514  10.038   2.925   3.411
13892SOL    HW143515  10.018   3.019   3.418
13892SOL    HW243516  10.099   2.909   3.482
13893SOL     OW43517   9.696   9.150   6.763
13893SOL    HW143518   9.719   9.133   6.854
13893SOL    HW243519   9.779   9.157   6.717
13894SOL     OW43520   1.306  11.203   9.474
13894SOL    HW143521   1.323  11.217   9.381
13894SOL    HW243522   1.211  11.202   9.482
13895SOL     OW43523   9.515   7.134   5.804
13895SOL    HW143524   9.461   7.211   5.820
13895SOL    HW243525   9.458   7.073   5.757
13896SOL     OW43526   8.124  14.653  11.569
13896SOL    HW143527   8.137  14.593  11.496
13896SOL    HW243528   8.107  14.597  11.645
13897SOL     OW43529   3.353   4.872  14.490
13897SOL    HW143530   3.386   4.861  14.579
13897SOL    HW243531   3.267   4.912  14.501
13898SOL     OW43532   4.633   3.392   9.886
13898SOL    HW143533   4.687   3.313   9.884
13898SOL    HW243534   4.555   3.370   9.834
13899SOL     OW43535  10.377   6.820  11.357
13899SOL    HW143536  10.436   6.796  11.286
13899SOL    HW243537  10.352   6.736  11.398
13900SOL     OW43538  13.139  11.860  13.472
13900SOL    HW143539  13.184  11.944  13.463
13900SOL    HW243540  13.106  11.860  13.562
13901SOL     OW43541  13.873   5.449  12.572
13901SOL    HW143542  13.966   5.473  12.574
13901SOL    HW243543  13.861   5.395  12.649
13902SOL     OW43544  14.652   7.064   4.916
13902SOL    HW143545  14.580   7.084   4.976
13902SOL    HW243546  14.664   7.145   4.866
13903SOL     OW43547   2.482   6.830   4.057
13903SOL    HW143548   2.462   6.897   4.122
13903SOL    HW243549   2.489   6.749   4.108
13904SOL     OW43550  14.100   8.686  10.045
13904SOL    HW143551  14.115   8.592  10.037
13904SOL    HW243552  14.068   8.713   9.959
13905SOL     OW43553   6.939   4.309   6.463
13905SOL    HW143554   6.899   4.222   6.464
13905SOL    HW243555   6.880   4.364   6.515
13906SOL     OW43556   0.087  11.511   6.365
13906SOL    HW143557   0.029  11.437   6.387
13906SOL    HW243558   0.111  11.496   6.274
13907SOL     OW43559   6.954  11.500   3.523
13907SOL    HW143560   6.978  11.543   3.441
13907SOL    HW243561   7.035  11.498   3.574
13908SOL     OW43562   9.313  11.495   1.863
13908SOL    HW143563   9.229  11.492   1.909
13908SOL    HW243564   9.359  11.568   1.904
13909SOL     OW43565  11.601  11.830   7.449
13909SOL    HW143566  11.583  11.920   7.478
13909SOL    HW243567  11.531  11.778   7.488
13910SOL     OW43568   6.968   2.152   9.446
13910SOL    HW143569   7.042   2.090   9.448
13910SOL    HW243570   6.974   2.199   9.529
13911SOL     OW43571   5.852  11.206   1.061
13911SOL    HW143572   5.828  11.255   1.139
13911SOL    HW243573   5.945  11.223   1.049
13912SOL     OW43574  13.153  14.469   6.795
13912SOL    HW143575  13.196  14.452   6.879
13912SOL    HW243576  13.072  14.514   6.819
13913SOL     OW43577  14.095   8.641   0.400
13913SOL    HW143578  14.114   8.734   0.386
13913SOL    HW243579  14.000   8.634   0.391
13914SOL     OW43580  11.979  10.123   9.221
13914SOL    HW143581  12.059  10.083   9.255
13914SOL    HW243582  11.951  10.066   9.149
13915SOL     OW43583   3.466  14.744  12.945
13915SOL    HW143584   3.503  14.671  12.895
13915SOL    HW243585   3.396  14.778  12.889
13916SOL     OW43586   5.291   4.228   4.017
13916SOL    HW143587   5.258   4.190   4.099
13916SOL    HW243588   5.339   4.157   3.975
13917SOL     OW43589   7.709  12.748  13.220
13917SOL    HW143590   7.701  12.675  13.282
13917SOL    HW243591   7.625  12.793  13.226
13918SOL     OW43592   0.656  10.538   8.186
13918SOL    HW143593   0.658  10.468   8.120
13918SOL    HW243594   0.640  10.618   8.136
13919SOL     OW43595   5.034  12.291   6.826
13919SOL    HW143596   5.079  12.299   6.742
13919SOL    HW243597   5.099  12.321   6.890
13920SOL     OW43598  11.568   6.481   7.251
13920SOL    HW143599  11.640   6.524   7.206
13920SOL    HW243600  11.600   6.392   7.268
13921SOL     OW43601   4.098   5.415   7.714
13921SOL    HW143602   4.045   5.432   7.793
13921SOL    HW243603   4.047   5.350   7.665
13922SOL     OW43604   6.213   8.796   6.404
13922SOL    HW143605   6.256   8.822   6.485
13922SOL    HW243606   6.284   8.774   6.345
13923SOL     OW43607  10.875   8.958  11.334
13923SOL    HW143608  10.811   9.028  11.345
13923SOL    HW243609  10.959   8.999  11.350
13924SOL     OW43610  14.067  14.487   7.254
13924SOL    HW143611  14.142  14.534   7.217
13924SOL    HW243612  14.022  14.449   7.179
13925SOL     OW43613   4.831   8.237   8.941
13925SOL    HW143614   4.867   8.154   8.910
13925SOL    HW243615   4.904   8.299   8.935
13926SOL     OW43616   3.744  13.568   8.990
13926SOL    HW143617   3.735  13.661   9.007
13926SOL    HW243618   3.687  13.552   8.914
13927SOL     OW43619  13.168   5.812   2.185
13927SOL    HW143620  13.183   5.901   2.152
13927SOL    HW243621  13.114   5.824   2.263
13928SOL     OW43622   9.083  14.091  11.489
13928SOL    HW143623   9.048  14.108  11.577
13928SOL    HW243624   9.129  14.172  11.465
13929SOL     OW43625   7.479   0.284   3.546
13929SOL    HW143626   7.509   0.196   3.570
13929SOL    HW243627   7.489   0.287   3.451
13930SOL     OW43628  12.298  12.361   8.992
13930SOL    HW143629  12.352  12.435   9.018
13930SOL    HW243630  12.214  12.376   9.036
13931SOL     OW43631   1.550   6.649   4.651
13931SOL    HW143632   1.561   6.559   4.621
13931SOL    HW243633   1.632   6.668   4.699
13932SOL     OW43634   6.518   6.949   3.509
13932SOL    HW143635   6.429   6.939   3.543
13932SOL    HW243636   6.507   6.945   3.414
13933SOL     OW43637  11.413   1.726   9.793
13933SOL    HW143638  11.472   1.662   9.833
13933SOL    HW243639  11.416   1.707   9.700
13934SOL     OW43640   2.263   3.413   8.177
13934SOL    HW143641   2.226   3.362   8.250
13934SOL    HW243642   2.358   3.405   8.188
13935SOL     OW43643  14.627  10.386  10.975
13935SOL    HW143644  14.693  10.317  10.979
13935SOL    HW243645  14.605  10.392  10.882
13936SOL     OW43646   3.524   6.546  11.747
13936SOL    HW143647   3.510   6.641  11.740
13936SOL    HW243648   3.440   6.512  11.778
13937SOL     OW43649  12.410   7.106   0.122
13937SOL    HW143650  12.505   7.116   0.124
13937SOL    HW243651  12.376   7.195   0.130
13938SOL     OW43652   2.501   4.478   9.562
13938SOL    HW143653   2.584   4.431   9.566
13938SOL    HW243654   2.490   4.499   9.469
13939SOL     OW43655  10.526  10.836  12.312
13939SOL    HW143656  10.493  10.924  12.292
13939SOL    HW243657  10.452  10.792  12.355
13940SOL     OW43658  12.066   3.274   1.957
13940SOL    HW143659  12.052   3.368   1.970
13940SOL    HW243660  11.980   3.234   1.971
13941SOL     OW43661  10.020  10.415   7.523
13941SOL    HW143662   9.976  10.386   7.443
13941SOL    HW243663  10.064  10.336   7.556
13942SOL     OW43664   3.139   5.561  13.423
13942SOL    HW143665   3.148   5.570  13.518
13942SOL    HW243666   3.052   5.523  13.411
13943SOL     OW43667  10.737   4.778   5.233
13943SOL    HW143668  10.767   4.727   5.158
13943SOL    HW243669  10.659   4.731   5.264
13944SOL     OW43670   3.650  13.364  10.995
13944SOL    HW143671   3.582  13.337  11.057
13944SOL    HW243672   3.690  13.283  10.966
13945SOL     OW43673   5.514   9.529   0.068
13945SOL    HW143674   5.521   9.483  14.860
13945SOL    HW243675   5.605   9.548   0.091
13946SOL     OW43676  14.382   2.837   0.420
13946SOL    HW143677  14.312   2.868   0.362
13946SOL    HW243678  14.450   2.804   0.360
13947SOL     OW43679   3.152   9.648   5.440
13947SOL    HW143680   3.167   9.726   5.493
13947SOL    HW243681   3.057   9.633   5.447
13948SOL     OW43682  12.230   3.727   3.488
13948SOL    HW143683  12.189   3.695   3.408
13948SOL    HW243684  12.240   3.821   3.474
13949SOL     OW43685  10.034   2.848   7.126
13949SOL    HW143686   9.990   2.878   7.205
13949SOL    HW243687  10.088   2.774   7.154
13950SOL     OW43688   2.885   4.354  11.131
13950SOL    HW143689   2.969   4.399  11.136
13950SOL    HW243690   2.908   4.263  11.114
13951SOL     OW43691   0.075   7.586   1.775
13951SOL    HW143692   0.144   7.644   1.742
13951SOL    HW243693   0.066   7.610   1.867
13952SOL     OW43694  11.906  13.651  10.530
13952SOL    HW143695  11.814  13.678  10.528
13952SOL    HW243696  11.934  13.654  10.439
13953SOL     OW43697  11.289  11.215   6.756
13953SOL    HW143698  11.200  11.192   6.732
13953SOL    HW243699  11.321  11.139   6.804
13954SOL     OW43700   2.053   6.857  11.339
13954SOL    HW143701   2.079   6.769  11.368
13954SOL    HW243702   2.133   6.908  11.343
13955SOL     OW43703   9.222   1.526   7.970
13955SOL    HW143704   9.225   1.621   7.958
13955SOL    HW243705   9.181   1.493   7.889
13956SOL     OW43706   3.756   1.071   6.955
13956SOL    HW143707   3.831   1.017   6.933
13956SOL    HW243708   3.694   1.055   6.884
13957SOL     OW43709  13.830  12.107  11.574
13957SOL    HW143710  13.892  12.128  11.644
13957SOL    HW243711  13.840  12.013  11.561
13958SOL     OW43712  12.027   9.847   5.612
13958SOL    HW143713  12.060   9.774   5.560
13958SOL    HW243714  11.982   9.903   5.549
13959SOL     OW43715  10.610   6.492   7.522
13959SOL    HW143716  10.560   6.413   7.500
13959SOL    HW243717  10.590   6.506   7.615
13960SOL     OW43718   8.048  11.657   3.186
13960SOL    HW143719   8.066  11.567   3.216
13960SOL    HW243720   8.014  11.701   3.264
13961SOL     OW43721   4.419   4.091   0.574
13961SOL    HW143722   4.397   4.008   0.617
13961SOL    HW243723   4.422   4.069   0.481
13962SOL     OW43724  11.592   5.003  13.523
13962SOL    HW143725  11.597   5.063  13.597
13962SOL    HW243726  11.593   4.916  13.562
13963SOL     OW43727   7.416   5.833   9.152
13963SOL    HW143728   7.402   5.745   9.117
13963SOL    HW243729   7.480   5.873   9.093
13964SOL     OW43730  12.051   7.227   8.294
13964SOL    HW143731  11.995   7.151   8.311
13964SOL    HW243732  11.993   7.302   8.303
13965SOL     OW43733   1.103  14.279   9.931
13965SOL    HW143734   1.065  14.195   9.906
13965SOL    HW243735   1.194  14.259   9.951
13966SOL     OW43736  14.226  12.830   0.449
13966SOL    HW143737  14.238  12.762   0.515
13966SOL    HW243738  14.190  12.905   0.497
13967SOL     OW43739  14.430  10.258  11.233
13967SOL    HW143740  14.425  10.350  11.206
13967SOL    HW243741  14.351  10.218  11.196
13968SOL     OW43742   9.811   0.128  13.790
13968SOL    HW143743   9.764   0.075  13.726
13968SOL    HW243744   9.884   0.166  13.741
13969SOL     OW43745  11.885   5.727   3.896
13969SOL    HW143746  11.942   5.710   3.821
13969SOL    HW243747  11.836   5.806   3.871
13970SOL     OW43748   0.092   0.254   8.058
13970SOL    HW143749   0.106   0.267   7.964
13970SOL    HW243750   0.089   0.343   8.094
13971SOL     OW43751   9.319   6.352   4.271
13971SOL    HW143752   9.414   6.351   4.281
13971SOL    HW243753   9.288   6.409   4.341
13972SOL     OW43754  14.397   7.437  14.602
13972SOL    HW143755  14.309   7.419  14.635
13972SOL    HW243756  14.454   7.419  14.676
13973SOL     OW43757   1.734   4.633  13.539
13973SOL    HW143758   1.745   4.540  13.557
13973SOL    HW243759   1.743   4.675  13.624
13974SOL     OW43760  12.650  13.506   5.767
13974SOL    HW143761  12.647  13.591   5.809
13974SOL    HW243762  12.734  13.504   5.721
13975SOL     OW43763  12.845  12.945   8.496
13975SOL    HW143764  12.923  12.931   8.443
13975SOL    HW243765  12.837  12.865   8.548
13976SOL     OW43766   8.445   9.562   5.163
13976SOL    HW143767   8.405   9.495   5.107
13976SOL    HW243768   8.533   9.527   5.183
13977SOL     OW43769   6.555  10.452   6.991
13977SOL    HW143770   6.612  10.389   7.035
13977SOL    HW243771   6.502  10.399   6.931
13978SOL     OW43772   7.728  10.905   1.511
13978SOL    HW143773   7.767  10.927   1.596
13978SOL    HW243774   7.654  10.848   1.534
13979SOL     OW43775  14.669  10.430   4.331
13979SOL    HW143776  14.575  10.433   4.349
13979SOL    HW243777  14.699  10.520   4.342
13980SOL     OW43778  13.562  12.786   9.112
13980SOL    HW143779  13.497  12.798   9.043
13980SOL    HW243780  13.566  12.691   9.125
13981SOL     OW43781  13.236   7.445  10.762
13981SOL    HW143782  13.313   7.464  10.816
13981SOL    HW243783  13.197   7.531  10.745
13982SOL     OW43784   5.188  10.252  11.191
13982SOL    HW143785   5.189  10.292  11.278
13982SOL    HW243786   5.167  10.160  11.207
13983SOL     OW43787   7.022  11.172   5.654
13983SOL    HW143788   7.088  11.199   5.590
13983SOL    HW243789   7.069  11.168   5.737
13984SOL     OW43790  14.745   1.994   9.335
13984SOL    HW143791  14.719   2.073   9.287
13984SOL    HW243792  14.775   1.934   9.267
13985SOL     OW43793   8.019   5.972   6.268
13985SOL    HW143794   8.052   5.979   6.358
13985SOL    HW243795   8.095   5.988   6.213
13986SOL     OW43796   2.620  12.591  11.473
13986SOL    HW143797   2.693  12.650  11.457
13986SOL    HW243798   2.555  12.616  11.407
13987SOL     OW43799   1.637   7.072   2.035
13987SOL    HW143800   1.718   7.107   1.998
13987SOL    HW243801   1.655   7.060   2.128
13988SOL     OW43802   2.384   0.030   3.709
13988SOL    HW143803   2.345   0.016   3.795
13988SOL    HW243804   2.312   0.014   3.647
13989SOL     OW43805   4.317  13.962   0.111
13989SOL    HW143806   4.352  14.040   0.067
13989SOL    HW243807   4.248  13.995   0.168
13990SOL     OW43808   8.210   9.735   4.268
13990SOL    HW143809   8.261   9.707   4.344
13990SOL    HW243810   8.119   9.721   4.294
13991SOL     OW43811   5.456   2.527   7.154
13991SOL    HW143812   5.365   2.558   7.150
13991SOL    HW243813   5.463   2.464   7.083
13992SOL     OW43814   3.696   4.632  13.614
13992SOL    HW143815   3.681   4.718  13.575
13992SOL    HW243816   3.626   4.622  13.679
13993SOL     OW43817   4.051  14.231   8.125
13993SOL    HW143818   3.962  14.255   8.099
13993SOL    HW243819   4.040  14.160   8.188
13994SOL     OW43820   0.108   3.699   5.089
13994SOL    HW143821   0.182   3.738   5.042
13994SOL    HW243822   0.119   3.605   5.076
13995SOL     OW43823  10.132  10.210   9.160
13995SOL    HW143824  10.151  10.205   9.253
13995SOL    HW243825  10.039  10.234   9.155
13996SOL     OW43826   6.051   7.791   8.407
13996SOL    HW143827   5.983   7.725   8.408
13996SOL    HW243828   6.107   7.771   8.482
13997SOL     OW43829   9.017  12.690   5.013
13997SOL    HW143830   9.042  12.604   5.045
13997SOL    HW243831   9.025  12.748   5.089
13998SOL     OW43832   5.394   6.250  11.497
13998SOL    HW143833   5.341   6.287  11.569
13998SOL    HW243834   5.460   6.197  11.541
13999SOL     OW43835   4.218   4.972   0.011
13999SOL    HW143836   4.281   4.959  14.817
13999SOL    HW243837   4.192   5.063   0.004
14000SOL     OW43838   3.640  13.877   5.654
14000SOL    HW143839   3.595  13.916   5.729
14000SOL    HW243840   3.663  13.789   5.683
14001SOL     OW43841   5.193   4.776   1.015
14001SOL    HW143842   5.202   4.869   0.996
14001SOL    HW243843   5.154   4.739   0.935
14002SOL     OW43844  11.624   9.315   4.867
14002SOL    HW143845  11.616   9.245   4.931
14002SOL    HW243846  11.646   9.393   4.919
14003SOL     OW43847   6.639  14.746  13.485
14003SOL    HW143848   6.589  14.671  13.520
14003SOL    HW243849   6.728  14.731  13.515
14004SOL     OW43850   7.499  11.382   0.693
14004SOL    HW143851   7.451  11.463   0.679
14004SOL    HW243852   7.478  11.357   0.783
14005SOL     OW43853   7.964   8.677   0.857
14005SOL    HW143854   7.992   8.696   0.767
14005SOL    HW243855   8.022   8.607   0.886
14006SOL     OW43856   2.209  13.043  14.464
14006SOL    HW143857   2.142  12.975  14.474
14006SOL    HW243858   2.159  13.125  14.467
14007SOL     OW43859   1.575   9.234   9.381
14007SOL    HW143860   1.657   9.282   9.375
14007SOL    HW243861   1.508   9.297   9.354
14008SOL     OW43862  10.821   8.238  11.672
14008SOL    HW143863  10.768   8.265  11.597
14008SOL    HW243864  10.843   8.146  11.654
14009SOL     OW43865   5.352   9.007   3.903
14009SOL    HW143866   5.258   8.992   3.910
14009SOL    HW243867   5.386   8.982   3.989
14010SOL     OW43868   8.363  11.392   4.078
14010SOL    HW143869   8.433  11.362   4.020
14010SOL    HW243870   8.409  11.417   4.159
14011SOL     OW43871   9.163  14.752  13.530
14011SOL    HW143872   9.202  14.809  13.596
14011SOL    HW243873   9.091  14.708  13.575
14012SOL     OW43874  10.228   7.914   7.925
14012SOL    HW143875  10.283   7.948   7.853
14012SOL    HW243876  10.251   7.821   7.931
14013SOL     OW43877  14.359  13.697   3.990
14013SOL    HW143878  14.300  13.631   4.027
14013SOL    HW243879  14.432  13.701   4.052
14014SOL     OW43880  11.528   2.423   2.899
14014SOL    HW143881  11.585   2.353   2.930
14014SOL    HW243882  11.529   2.488   2.970
14015SOL     OW43883   9.285   5.866   0.154
14015SOL    HW143884   9.213   5.884   0.213
14015SOL    HW243885   9.277   5.773   0.133
14016SOL     OW43886  14.136   1.190  12.313
14016SOL    HW143887  14.203   1.251  12.283
14016SOL    HW243888  14.177   1.142  12.385
14017SOL     OW43889   9.485   4.501  14.178
14017SOL    HW143890   9.554   4.465  14.234
14017SOL    HW243891   9.456   4.580  14.223
14018SOL     OW43892   4.525   0.270   5.532
14018SOL    HW143893   4.605   0.322   5.535
14018SOL    HW243894   4.555   0.179   5.532
14019SOL     OW43895   0.664  13.232   6.425
14019SOL    HW143896   0.702  13.188   6.501
14019SOL    HW243897   0.726  13.302   6.404
14020SOL     OW43898   2.390  11.891   6.197
14020SOL    HW143899   2.453  11.957   6.226
14020SOL    HW243900   2.333  11.937   6.135
14021SOL     OW43901   6.120  11.055   5.078
14021SOL    HW143902   6.197  11.029   5.028
14021SOL    HW243903   6.106  11.146   5.055
14022SOL     OW43904  13.896   2.907   8.385
14022SOL    HW143905  13.929   2.818   8.373
14022SOL    HW243906  13.882   2.940   8.296
14023SOL     OW43907  11.075   0.955   3.919
14023SOL    HW143908  11.142   1.010   3.879
14023SOL    HW243909  11.002   0.956   3.857
14024SOL     OW43910   0.031  11.149   8.456
14024SOL    HW143911   0.089  11.116   8.386
14024SOL    HW243912   0.031  11.079   8.522
14025SOL     OW43913   6.357   0.602  11.342
14025SOL    HW143914   6.451   0.588  11.332
14025SOL    HW243915   6.318   0.553  11.270
14026SOL     OW43916  14.118   0.413  10.214
14026SOL    HW143917  14.058   0.479  10.181
14026SOL    HW243918  14.176   0.393  10.140
14027SOL     OW43919   2.047   7.893   4.776
14027SOL    HW143920   2.040   7.926   4.687
14027SOL    HW243921   2.056   7.972   4.830
14028SOL     OW43922  14.132   3.554  11.671
14028SOL    HW143923  14.104   3.635  11.712
14028SOL    HW243924  14.213   3.576  11.625
14029SOL     OW43925  12.489   8.541   5.378
14029SOL    HW143926  12.401   8.517   5.350
14029SOL    HW243927  12.478   8.574   5.467
14030SOL     OW43928   8.371  10.146   2.913
14030SOL    HW143929   8.305  10.094   2.866
14030SOL    HW243930   8.437  10.082   2.939
14031SOL     OW43931  11.738  11.955   9.243
14031SOL    HW143932  11.687  11.983   9.318
14031SOL    HW243933  11.806  12.022   9.233
14032SOL     OW43934  10.463  13.731  12.096
14032SOL    HW143935  10.519  13.804  12.070
14032SOL    HW243936  10.386  13.773  12.134
14033SOL     OW43937   9.304  14.696   4.839
14033SOL    HW143938   9.332  14.745   4.917
14033SOL    HW243939   9.212  14.676   4.855
14034SOL     OW43940   4.936   3.946  13.134
14034SOL    HW143941   4.853   3.965  13.177
14034SOL    HW243942   4.967   3.866  13.177
14035SOL     OW43943  11.196   6.328   5.200
14035SOL    HW143944  11.207   6.412   5.245
14035SOL    HW243945  11.261   6.329   5.130
14036SOL     OW43946   2.279  14.268   1.954
14036SOL    HW143947   2.218  14.197   1.933
14036SOL    HW243948   2.302  14.305   1.868
14037SOL     OW43949   4.841  14.613  11.750
14037SOL    HW143950   4.745  14.609  11.745
14037SOL    HW243951   4.860  14.706  11.760
14038SOL     OW43952  13.172   5.001   7.674
14038SOL    HW143953  13.134   4.934   7.617
14038SOL    HW243954  13.101   5.027   7.732
14039SOL     OW43955   3.032  13.156   7.345
14039SOL    HW143956   2.939  13.155   7.369
14039SOL    HW243957   3.077  13.187   7.423
14040SOL     OW43958   0.452  14.307  13.878
14040SOL    HW143959   0.368  14.332  13.917
14040SOL    HW243960   0.510  14.380  13.898
14041SOL     OW43961   5.681  13.184   2.613
14041SOL    HW143962   5.638  13.269   2.619
14041SOL    HW243963   5.775  13.204   2.608
14042SOL     OW43964   2.155  13.101   2.967
14042SOL    HW143965   2.214  13.163   3.010
14042SOL    HW243966   2.116  13.152   2.895
14043SOL     OW43967  13.400   5.699   2.065
14043SOL    HW143968  13.406   5.608   2.094
14043SOL    HW243969  13.325   5.735   2.113
14044SOL     OW43970   9.590  14.273   3.766
14044SOL    HW143971   9.572  14.333   3.694
14044SOL    HW243972   9.517  14.211   3.764
14045SOL     OW43973   6.197   8.530   2.835
14045SOL    HW143974   6.105   8.505   2.847
14045SOL    HW243975   6.195   8.625   2.824
14046SOL     OW43976   1.133   6.574   4.030
14046SOL    HW143977   1.180   6.648   4.069
14046SOL    HW243978   1.164   6.572   3.939
14047SOL     OW43979   0.894   7.128   9.887
14047SOL    HW143980   0.940   7.114   9.804
14047SOL    HW243981   0.802   7.135   9.862
14048SOL     OW43982  10.279  13.761  13.982
14048SOL    HW143983  10.372  13.775  14.000
14048SOL    HW243984  10.256  13.829  13.918
14049SOL     OW43985   5.105  12.294  10.517
14049SOL    HW143986   5.118  12.374  10.467
14049SOL    HW243987   5.015  12.267  10.496
14050SOL     OW43988   2.219   9.905   7.364
14050SOL    HW143989   2.127   9.919   7.344
14050SOL    HW243990   2.264   9.979   7.324
14051SOL     OW43991   5.559   5.391   8.448
14051SOL    HW143992   5.569   5.483   8.426
14051SOL    HW243993   5.471   5.369   8.419
14052SOL     OW43994   6.133   1.211  14.307
14052SOL    HW143995   6.065   1.173  14.363
14052SOL    HW243996   6.125   1.305  14.320
14053SOL     OW43997   6.020   8.951   0.576
14053SOL    HW143998   5.970   9.032   0.586
14053SOL    HW243999   6.077   8.966   0.501
14054SOL     OW44000   4.099   5.093   9.091
14054SOL    HW144001   4.004   5.088   9.082
14054SOL    HW244002   4.122   5.177   9.053
14055SOL     OW44003   9.087  13.954  10.818
14055SOL    HW144004   8.998  13.988  10.832
14055SOL    HW244005   9.075  13.859  10.813
14056SOL     OW44006  14.757   1.722   8.562
14056SOL    HW144007  14.758   1.737   8.468
14056SOL    HW244008  14.786   1.805   8.600
14057SOL     OW44009   8.123   5.766  13.085
14057SOL    HW144010   8.053   5.701  13.087
14057SOL    HW244011   8.143   5.783  13.177
14058SOL     OW44012   6.571   4.457  12.618
14058SOL    HW144013   6.649   4.436  12.566
14058SOL    HW244014   6.575   4.396  12.692
14059SOL     OW44015   0.561   0.667   9.748
14059SOL    HW144016   0.558   0.646   9.841
14059SOL    HW244017   0.609   0.749   9.743
14060SOL     OW44018   0.027   0.940   6.579
14060SOL    HW144019  14.839   0.912   6.644
14060SOL    HW244020   0.074   1.012   6.621
14061SOL     OW44021  13.409   7.414   8.237
14061SOL    HW144022  13.416   7.473   8.312
14061SOL    HW244023  13.391   7.328   8.275
14062SOL     OW44024   8.292   9.098  11.592
14062SOL    HW144025   8.234   9.026  11.617
14062SOL    HW244026   8.248   9.139  11.517
14063SOL     OW44027   9.283   2.304  12.588
14063SOL    HW144028   9.217   2.358  12.631
14063SOL    HW244029   9.356   2.364  12.573
14064SOL     OW44030  12.939   0.713   7.506
14064SOL    HW144031  12.999   0.786   7.524
14064SOL    HW244032  12.996   0.636   7.503
14065SOL     OW44033  10.899   6.694  10.922
14065SOL    HW144034  10.836   6.758  10.892
14065SOL    HW244035  10.917   6.640  10.845
14066SOL     OW44036   9.705   3.839   7.896
14066SOL    HW144037   9.734   3.930   7.890
14066SOL    HW244038   9.763   3.799   7.961
14067SOL     OW44039  10.989   1.529   4.288
14067SOL    HW144040  10.941   1.606   4.318
14067SOL    HW244041  11.004   1.477   4.366
14068SOL     OW44042   4.019  10.927   8.649
14068SOL    HW144043   4.079  10.897   8.581
14068SOL    HW244044   3.987  10.847   8.691
14069SOL     OW44045  11.852  13.198   7.120
14069SOL    HW144046  11.933  13.147   7.130
14069SOL    HW244047  11.881  13.289   7.118
14070SOL     OW44048   3.794   4.766   5.086
14070SOL    HW144049   3.798   4.820   5.007
14070SOL    HW244050   3.706   4.781   5.120
14071SOL     OW44051  12.020   4.220   0.070
14071SOL    HW144052  12.012   4.244  14.854
14071SOL    HW244053  11.963   4.144   0.080
14072SOL     OW44054   3.904   6.599   8.440
14072SOL    HW144055   3.967   6.537   8.475
14072SOL    HW244056   3.935   6.620   8.352
14073SOL     OW44057  14.775  12.437   1.721
14073SOL    HW144058  14.831  12.362   1.704
14073SOL    HW244059  14.707  12.432   1.653
14074SOL     OW44060   0.738   8.450   9.072
14074SOL    HW144061   0.748   8.418   9.161
14074SOL    HW244062   0.813   8.507   9.058
14075SOL     OW44063   8.770   2.150  13.031
14075SOL    HW144064   8.770   2.245  13.043
14075SOL    HW244065   8.723   2.136  12.949
14076SOL     OW44066   2.836   3.237   3.192
14076SOL    HW144067   2.783   3.296   3.246
14076SOL    HW244068   2.774   3.196   3.133
14077SOL     OW44069  14.734   6.006  13.772
14077SOL    HW144070  14.676   6.076  13.803
14077SOL    HW244071  14.686   5.964  13.701
14078SOL     OW44072   4.529   0.301   8.248
14078SOL    HW144073   4.516   0.378   8.193
14078SOL    HW244074   4.452   0.247   8.232
14079SOL     OW44075  11.355   8.048   4.084
14079SOL    HW144076  11.360   7.974   4.145
14079SOL    HW244077  11.264   8.077   4.089
14080SOL     OW44078   4.964   9.024   2.717
14080SOL    HW144079   5.029   8.960   2.747
14080SOL    HW244080   5.005   9.068   2.643
14081SOL     OW44081   4.701   2.760   7.301
14081SOL    HW144082   4.756   2.732   7.229
14081SOL    HW244083   4.613   2.732   7.277
14082SOL     OW44084   9.898   1.301   7.023
14082SOL    HW144085   9.822   1.245   7.035
14082SOL    HW244086   9.871   1.364   6.956
14083SOL     OW44087   9.943  10.317   2.913
14083SOL    HW144088   9.991  10.342   2.992
14083SOL    HW244089   9.951  10.222   2.909
14084SOL     OW44090   3.387  11.636  11.806
14084SOL    HW144091   3.440  11.634  11.726
14084SOL    HW244092   3.356  11.727  11.812
14085SOL     OW44093   1.396  12.952   0.845
14085SOL    HW144094   1.342  12.875   0.824
14085SOL    HW244095   1.476  12.940   0.793
14086SOL     OW44096   4.532   8.507   1.519
14086SOL    HW144097   4.598   8.470   1.461
14086SOL    HW244098   4.459   8.529   1.461
14087SOL     OW44099   1.499  11.692   7.092
14087SOL    HW144100   1.461  11.766   7.046
14087SOL    HW244101   1.536  11.637   7.024
14088SOL     OW44102   4.809  11.668   1.256
14088SOL    HW144103   4.718  11.666   1.286
14088SOL    HW244104   4.858  11.621   1.324
14089SOL     OW44105   8.894  14.330   4.887
14089SOL    HW144106   8.923  14.394   4.821
14089SOL    HW244107   8.799  14.332   4.881
14090SOL     OW44108   4.587   0.704   5.227
14090SOL    HW144109   4.648   0.635   5.200
14090SOL    HW244110   4.635   0.756   5.290
14091SOL     OW44111  10.422   7.944   0.719
14091SOL    HW144112  10.517   7.936   0.708
14091SOL    HW244113  10.399   8.026   0.676
14092SOL     OW44114   9.400  10.611   5.514
14092SOL    HW144115   9.346  10.554   5.568
14092SOL    HW244116   9.342  10.638   5.442
14093SOL     OW44117   9.447  10.601   7.566
14093SOL    HW144118   9.358  10.576   7.543
14093SOL    HW244119   9.474  10.538   7.633
14094SOL     OW44120   8.501   7.935   2.477
14094SOL    HW144121   8.468   8.022   2.457
14094SOL    HW244122   8.523   7.897   2.392
14095SOL     OW44123  11.335  14.798   9.984
14095SOL    HW144124  11.274  14.856   9.939
14095SOL    HW244125  11.383  14.754   9.914
14096SOL     OW44126   5.239   4.570  10.299
14096SOL    HW144127   5.249   4.636  10.230
14096SOL    HW244128   5.309   4.590  10.361
14097SOL     OW44129   0.276   7.732  13.865
14097SOL    HW144130   0.353   7.688  13.901
14097SOL    HW244131   0.255   7.683  13.786
14098SOL     OW44132   0.703   9.242   6.120
14098SOL    HW144133   0.764   9.263   6.050
14098SOL    HW244134   0.620   9.224   6.075
14099SOL     OW44135   6.840   0.798  14.791
14099SOL    HW144136   6.790   0.765  14.716
14099SOL    HW244137   6.931   0.788  14.765
14100SOL     OW44138   9.896  11.759  11.414
14100SOL    HW144139   9.959  11.784  11.481
14100SOL    HW244140   9.820  11.815  11.429
14101SOL     OW44141  12.396  10.194   2.647
14101SOL    HW144142  12.352  10.111   2.628
14101SOL    HW244143  12.450  10.211   2.569
14102SOL     OW44144  12.516   9.732  12.604
14102SOL    HW144145  12.537   9.639  12.612
14102SOL    HW244146  12.462   9.737  12.525
14103SOL     OW44147   5.727   1.402   7.255
14103SOL    HW144148   5.787   1.346   7.206
14103SOL    HW244149   5.738   1.489   7.217
14104SOL     OW44150   7.046   3.228   6.339
14104SOL    HW144151   7.097   3.254   6.263
14104SOL    HW244152   7.074   3.288   6.408
14105SOL     OW44153   3.003   5.038  14.830
14105SOL    HW144154   3.080   5.091  14.807
14105SOL    HW244155   3.019   5.011   0.044
14106SOL     OW44156   9.224   0.943   1.454
14106SOL    HW144157   9.162   1.001   1.409
14106SOL    HW244158   9.259   0.888   1.384
14107SOL     OW44159   4.007   7.143  11.710
14107SOL    HW144160   3.996   7.065  11.655
14107SOL    HW244161   4.080   7.121  11.768
14108SOL     OW44162   7.231   5.796   9.596
14108SOL    HW144163   7.236   5.887   9.567
14108SOL    HW244164   7.214   5.746   9.517
14109SOL     OW44165  13.758   9.657   5.850
14109SOL    HW144166  13.808   9.696   5.779
14109SOL    HW244167  13.692   9.723   5.873
14110SOL     OW44168  12.775   3.057  13.285
14110SOL    HW144169  12.689   3.095  13.270
14110SOL    HW244170  12.836   3.128  13.269
14111SOL     OW44171   5.365  13.112   5.782
14111SOL    HW144172   5.338  13.044   5.844
14111SOL    HW244173   5.286  13.163   5.766
14112SOL     OW44174   8.543  11.851  14.138
14112SOL    HW144175   8.452  11.873  14.116
14112SOL    HW244176   8.579  11.816  14.056
14113SOL     OW44177   6.209   8.344   6.493
14113SOL    HW144178   6.129   8.294   6.478
14113SOL    HW244179   6.245   8.307   6.574
14114SOL     OW44180   9.495  12.430   0.918
14114SOL    HW144181   9.537  12.482   0.986
14114SOL    HW244182   9.567  12.394   0.867
14115SOL     OW44183   4.443  13.602  10.039
14115SOL    HW144184   4.435  13.664   9.966
14115SOL    HW244185   4.466  13.657  10.115
14116SOL     OW44186  10.052  13.924   6.578
14116SOL    HW144187  10.053  13.998   6.518
14116SOL    HW244188  10.079  13.960   6.662
14117SOL     OW44189   6.006   2.560   5.157
14117SOL    HW144190   6.001   2.533   5.249
14117SOL    HW244191   6.064   2.636   5.157
14118SOL     OW44192   9.116   6.155   0.075
14118SOL    HW144193   9.034   6.204   0.078
14118SOL    HW244194   9.099   6.077   0.128
14119SOL     OW44195   7.608   6.161  11.254
14119SOL    HW144196   7.515   6.178  11.269
14119SOL    HW244197   7.643   6.138  11.340
14120SOL     OW44198  13.929   1.997   1.299
14120SOL    HW144199  13.948   2.087   1.272
14120SOL    HW244200  13.925   2.000   1.394
14121SOL     OW44201  11.106   0.416   1.835
14121SOL    HW144202  11.038   0.350   1.848
14121SOL    HW244203  11.188   0.366   1.829
14122SOL     OW44204   0.178   9.304   4.937
14122SOL    HW144205   0.241   9.249   4.891
14122SOL    HW244206   0.093   9.281   4.899
14123SOL     OW44207   3.504  12.629   1.864
14123SOL    HW144208   3.420  12.587   1.846
14123SOL    HW244209   3.505  12.640   1.959
14124SOL     OW44210   2.875   5.613   8.734
14124SOL    HW144211   2.952   5.559   8.749
14124SOL    HW244212   2.842   5.633   8.821
14125SOL     OW44213   7.653   9.721   8.792
14125SOL    HW144214   7.672   9.813   8.812
14125SOL    HW244215   7.596   9.725   8.715
14126SOL     OW44216  10.276   4.345  11.834
14126SOL    HW144217  10.365   4.312  11.824
14126SOL    HW244218  10.276   4.431  11.792
14127SOL     OW44219   3.105   9.618   6.595
14127SOL    HW144220   3.118   9.634   6.501
14127SOL    HW244221   3.172   9.554   6.618
14128SOL     OW44222   2.180   4.671   9.465
14128SOL    HW144223   2.138   4.628   9.540
14128SOL    HW244224   2.273   4.654   9.477
14129SOL     OW44225   9.335  11.223   1.434
14129SOL    HW144226   9.376  11.303   1.465
14129SOL    HW244227   9.337  11.163   1.508
14130SOL     OW44228  10.121  11.481   0.556
14130SOL    HW144229  10.084  11.448   0.638
14130SOL    HW244230  10.203  11.433   0.546
14131SOL     OW44231  10.574   4.722   8.982
14131SOL    HW144232  10.583   4.798   8.925
14131SOL    HW244233  10.486   4.730   9.019
14132SOL     OW44234   2.470  10.710   1.286
14132SOL    HW144235   2.548  10.753   1.321
14132SOL    HW244236   2.438  10.657   1.359
14133SOL     OW44237   4.108   4.422   6.168
14133SOL    HW144238   4.054   4.427   6.247
14133SOL    HW244239   4.046   4.436   6.096
14134SOL     OW44240   6.872  10.662  10.649
14134SOL    HW144241   6.859  10.638  10.557
14134SOL    HW244242   6.957  10.706  10.651
14135SOL     OW44243   7.659   5.182  13.443
14135SOL    HW144244   7.574   5.226  13.437
14135SOL    HW244245   7.658   5.140  13.529
14136SOL     OW44246  10.253   2.906   4.648
14136SOL    HW144247  10.333   2.956   4.634
14136SOL    HW244248  10.197   2.928   4.573
14137SOL     OW44249  14.714   4.871   2.367
14137SOL    HW144250  14.736   4.939   2.304
14137SOL    HW244251  14.799   4.837   2.397
14138SOL     OW44252  11.469   4.456   6.071
14138SOL    HW144253  11.414   4.428   5.998
14138SOL    HW244254  11.424   4.531   6.108
14139SOL     OW44255   1.529   4.421  11.164
14139SOL    HW144256   1.541   4.466  11.080
14139SOL    HW244257   1.610   4.371  11.176
14140SOL     OW44258   8.981   0.895  10.981
14140SOL    HW144259   9.074   0.914  10.966
14140SOL    HW244260   8.978   0.859  11.070
14141SOL     OW44261  12.044  11.996   3.859
14141SOL    HW144262  11.952  12.022   3.863
14141SOL    HW244263  12.056  11.939   3.934
14142SOL     OW44264   9.042   9.315  12.537
14142SOL    HW144265   9.013   9.399  12.572
14142SOL    HW244266   9.071   9.334  12.449
14143SOL     OW44267  12.333  13.396   0.436
14143SOL    HW144268  12.248  13.354   0.443
14143SOL    HW244269  12.323  13.477   0.487
14144SOL     OW44270  11.160  10.188   6.795
14144SOL    HW144271  11.155  10.284   6.804
14144SOL    HW244272  11.111  10.155   6.870
14145SOL     OW44273  10.196  10.334   7.837
14145SOL    HW144274  10.251  10.403   7.872
14145SOL    HW244275  10.257  10.265   7.809
14146SOL     OW44276  12.174   6.225   0.069
14146SOL    HW144277  12.125   6.285   0.125
14146SOL    HW244278  12.125   6.142   0.075
14147SOL     OW44279   3.828  10.444  10.837
14147SOL    HW144280   3.902  10.410  10.886
14147SOL    HW244281   3.864  10.465  10.751
14148SOL     OW44282   5.029   7.725  10.910
14148SOL    HW144283   5.092   7.671  10.862
14148SOL    HW244284   5.007   7.796  10.850
14149SOL     OW44285   8.192   6.551  14.022
14149SOL    HW144286   8.287   6.559  14.011
14149SOL    HW244287   8.174   6.459  14.001
14150SOL     OW44288  13.506   9.982   3.250
14150SOL    HW144289  13.486   9.980   3.344
14150SOL    HW244290  13.497   9.891   3.222
14151SOL     OW44291   1.958  14.605   8.672
14151SOL    HW144292   2.042  14.620   8.715
14151SOL    HW244293   1.974  14.626   8.580
14152SOL     OW44294   4.139   7.543  12.907
14152SOL    HW144295   4.115   7.631  12.879
14152SOL    HW244296   4.057   7.494  12.905
14153SOL     OW44297   3.269   2.773   1.155
14153SOL    HW144298   3.287   2.707   1.222
14153SOL    HW244299   3.343   2.768   1.095
14154SOL     OW44300   4.887   9.193   7.765
14154SOL    HW144301   4.910   9.192   7.672
14154SOL    HW244302   4.801   9.235   7.769
14155SOL     OW44303   8.048  12.935   0.908
14155SOL    HW144304   7.973  12.881   0.933
14155SOL    HW244305   8.065  12.911   0.817
14156SOL     OW44306   8.364   1.084  10.864
14156SOL    HW144307   8.458   1.095  10.878
14156SOL    HW244308   8.336   1.026  10.936
14157SOL     OW44309   1.206   4.919   6.793
14157SOL    HW144310   1.288   4.969   6.794
14157SOL    HW244311   1.168   4.936   6.707
14158SOL     OW44312  10.804  13.586  11.875
14158SOL    HW144313  10.879  13.592  11.815
14158SOL    HW244314  10.828  13.642  11.949
14159SOL     OW44315  12.158  14.413   4.973
14159SOL    HW144316  12.065  14.419   4.993
14159SOL    HW244317  12.188  14.334   5.018
14160SOL     OW44318  12.466  13.490   3.136
14160SOL    HW144319  12.471  13.468   3.229
14160SOL    HW244320  12.545  13.451   3.098
14161SOL     OW44321   2.755  10.594   6.952
14161SOL    HW144322   2.782  10.590   7.043
14161SOL    HW244323   2.780  10.509   6.916
14162SOL     OW44324   8.087   2.439   5.306
14162SOL    HW144325   8.070   2.353   5.268
14162SOL    HW244326   8.182   2.443   5.317
14163SOL     OW44327   1.474   3.216  11.415
14163SOL    HW144328   1.397   3.262  11.448
14163SOL    HW244329   1.524   3.284  11.369
14164SOL     OW44330   4.268   1.270   3.884
14164SOL    HW144331   4.204   1.245   3.817
14164SOL    HW244332   4.327   1.331   3.839
14165SOL     OW44333   1.195   8.334  13.063
14165SOL    HW144334   1.138   8.261  13.039
14165SOL    HW244335   1.189   8.395  12.989
14166SOL     OW44336  11.683   0.829   5.420
14166SOL    HW144337  11.639   0.763   5.475
14166SOL    HW244338  11.642   0.820   5.335
14167SOL     OW44339   5.729   9.533  12.853
14167SOL    HW144340   5.786   9.457  12.851
14167SOL    HW244341   5.662   9.514  12.786
14168SOL     OW44342   2.452  11.633  14.503
14168SOL    HW144343   2.426  11.719  14.537
14168SOL    HW244344   2.459  11.578  14.582
14169SOL     OW44345   0.288   6.207   1.489
14169SOL    HW144346   0.255   6.201   1.579
14169SOL    HW244347   0.349   6.134   1.480
14170SOL     OW44348  14.392  10.348  12.407
14170SOL    HW144349  14.427  10.437  12.403
14170SOL    HW244350  14.432  10.310  12.485
14171SOL     OW44351   6.781   2.360   2.346
14171SOL    HW144352   6.701   2.310   2.328
14171SOL    HW244353   6.765   2.446   2.308
14172SOL     OW44354   0.029  12.712  12.300
14172SOL    HW144355   0.046  12.689  12.208
14172SOL    HW244356  14.810  12.715  12.306
14173SOL     OW44357   3.464   1.620   1.750
14173SOL    HW144358   3.404   1.569   1.804
14173SOL    HW244359   3.506   1.555   1.694
14174SOL     OW44360   1.567   9.958   7.410
14174SOL    HW144361   1.616   9.896   7.355
14174SOL    HW244362   1.512  10.006   7.348
14175SOL     OW44363  11.303   8.162   7.418
14175SOL    HW144364  11.314   8.100   7.346
14175SOL    HW244365  11.304   8.248   7.376
14176SOL     OW44366  10.624  10.650  14.619
14176SOL    HW144367  10.545  10.602  14.644
14176SOL    HW244368  10.611  10.738  14.653
14177SOL     OW44369  10.803   8.850   6.433
14177SOL    HW144370  10.716   8.862   6.395
14177SOL    HW244371  10.852   8.801   6.367
14178SOL     OW44372  12.893   0.271   6.607
14178SOL    HW144373  12.836   0.238   6.677
14178SOL    HW244374  12.890   0.202   6.540
14179SOL     OW44375   4.607   4.681   9.065
14179SOL    HW144376   4.597   4.760   9.119
14179SOL    HW244377   4.578   4.708   8.978
14180SOL     OW44378   1.944  11.379   5.157
14180SOL    HW144379   1.886  11.434   5.209
14180SOL    HW244380   1.927  11.405   5.067
14181SOL     OW44381   6.228   2.492   5.750
14181SOL    HW144382   6.275   2.411   5.728
14181SOL    HW244383   6.226   2.542   5.668
14182SOL     OW44384   4.182   9.965  14.135
14182SOL    HW144385   4.255   9.926  14.183
14182SOL    HW244386   4.218   9.986  14.049
14183SOL     OW44387   6.302  11.543   5.374
14183SOL    HW144388   6.351  11.516   5.451
14183SOL    HW244389   6.278  11.634   5.392
14184SOL     OW44390  10.816   2.862   6.982
14184SOL    HW144391  10.730   2.890   7.014
14184SOL    HW244392  10.811   2.767   6.981
14185SOL     OW44393   9.056   9.572   3.096
14185SOL    HW144394   9.073   9.508   3.165
14185SOL    HW244395   9.067   9.657   3.138
14186SOL     OW44396   7.354   3.507   6.712
14186SOL    HW144397   7.356   3.427   6.765
14186SOL    HW244398   7.353   3.578   6.777
14187SOL     OW44399   8.861   0.976  14.571
14187SOL    HW144400   8.904   1.011  14.494
14187SOL    HW244401   8.889   1.033  14.643
14188SOL     OW44402   3.881   6.189   8.947
14188SOL    HW144403   3.822   6.120   8.975
14188SOL    HW244404   3.870   6.194   8.852
14189SOL     OW44405   3.035   6.464   6.786
14189SOL    HW144406   3.091   6.432   6.715
14189SOL    HW244407   2.952   6.485   6.743
14190SOL     OW44408   2.569   3.519   9.280
14190SOL    HW144409   2.651   3.488   9.320
14190SOL    HW244410   2.527   3.440   9.248
14191SOL     OW44411   8.201  11.625   5.966
14191SOL    HW144412   8.224  11.715   5.943
14191SOL    HW244413   8.132  11.601   5.904
14192SOL     OW44414  12.324   0.235   8.509
14192SOL    HW144415  12.361   0.299   8.571
14192SOL    HW244416  12.389   0.165   8.506
14193SOL     OW44417  12.911   1.760  11.277
14193SOL    HW144418  12.959   1.803  11.347
14193SOL    HW244419  12.897   1.828  11.212
14194SOL     OW44420  11.026   2.030   2.554
14194SOL    HW144421  11.040   2.122   2.576
14194SOL    HW244422  11.107   2.003   2.511
14195SOL     OW44423   1.320   1.637  13.099
14195SOL    HW144424   1.275   1.671  13.021
14195SOL    HW244425   1.410   1.667  13.090
14196SOL     OW44426   1.071   1.425  13.332
14196SOL    HW144427   1.147   1.389  13.377
14196SOL    HW244428   1.082   1.520  13.339
14197SOL     OW44429   0.439  14.310   3.545
14197SOL    HW144430   0.527  14.291   3.512
14197SOL    HW244431   0.390  14.229   3.529
14198SOL     OW44432   5.271   9.275  12.624
14198SOL    HW144433   5.360   9.239  12.624
14198SOL    HW244434   5.277   9.356  12.575
14199SOL     OW44435   0.600  13.784   7.052
14199SOL    HW144436   0.599  13.879   7.050
14199SOL    HW244437   0.596  13.762   7.145
14200SOL     OW44438   1.820   0.801   8.046
14200SOL    HW144439   1.791   0.880   8.000
14200SOL    HW244440   1.782   0.729   7.996
14201SOL     OW44441  12.109   0.314   0.268
14201SOL    HW144442  12.182   0.253   0.266
14201SOL    HW244443  12.126   0.374   0.195
14202SOL     OW44444  13.791   0.100   4.032
14202SOL    HW144445  13.883   0.083   4.011
14202SOL    HW244446  13.745   0.022   4.001
14203SOL     OW44447   6.662  11.472   2.457
14203SOL    HW144448   6.680  11.510   2.372
14203SOL    HW244449   6.619  11.541   2.507
14204SOL     OW44450  12.393   6.629   7.236
14204SOL    HW144451  12.355   6.702   7.188
14204SOL    HW244452  12.318   6.573   7.258
14205SOL     OW44453  12.458  10.441   1.103
14205SOL    HW144454  12.365  10.425   1.121
14205SOL    HW244455  12.503  10.400   1.177
14206SOL     OW44456   2.939   9.857  13.801
14206SOL    HW144457   2.965   9.930  13.745
14206SOL    HW244458   3.020   9.828  13.842
14207SOL     OW44459   1.954  11.254   5.667
14207SOL    HW144460   1.906  11.303   5.733
14207SOL    HW244461   1.888  11.230   5.602
14208SOL     OW44462   4.776   0.739   0.667
14208SOL    HW144463   4.747   0.806   0.606
14208SOL    HW244464   4.815   0.787   0.740
14209SOL     OW44465   0.783   9.421  11.721
14209SOL    HW144466   0.864   9.382  11.754
14209SOL    HW244467   0.784   9.406  11.627
14210SOL     OW44468   1.149   3.252   6.872
14210SOL    HW144469   1.120   3.189   6.938
14210SOL    HW244470   1.238   3.275   6.898
14211SOL     OW44471   5.725   0.619  10.594
14211SOL    HW144472   5.747   0.613  10.687
14211SOL    HW244473   5.806   0.598  10.548
14212SOL     OW44474   0.969  10.963   9.183
14212SOL    HW144475   0.878  10.945   9.158
14212SOL    HW244476   1.013  10.878   9.174
14213SOL     OW44477   0.062   3.151  12.699
14213SOL    HW144478   0.029   3.064  12.676
14213SOL    HW244479   0.100   3.140  12.787
14214SOL     OW44480   3.166  10.885   9.389
14214SOL    HW144481   3.141  10.867   9.480
14214SOL    HW244482   3.105  10.952   9.360
14215SOL     OW44483   3.221   2.807   2.658
14215SOL    HW144484   3.204   2.884   2.712
14215SOL    HW244485   3.274   2.749   2.714
14216SOL     OW44486   6.053   1.075   3.565
14216SOL    HW144487   6.135   1.028   3.576
14216SOL    HW244488   5.988   1.021   3.611
14217SOL     OW44489   5.378   7.238  14.375
14217SOL    HW144490   5.319   7.199  14.311
14217SOL    HW244491   5.452   7.270  14.322
14218SOL     OW44492  14.829   0.283   8.440
14218SOL    HW144493  14.820   0.187   8.443
14218SOL    HW244494  14.799   0.307   8.353
14219SOL     OW44495   1.147  11.335  14.754
14219SOL    HW144496   1.204  11.378  14.690
14219SOL    HW244497   1.079  11.293  14.701
14220SOL     OW44498   2.685   8.546   3.928
14220SOL    HW144499   2.622   8.612   3.959
14220SOL    HW244500   2.763   8.597   3.906
14221SOL     OW44501   3.976   8.206  13.308
14221SOL    HW144502   3.919   8.165  13.243
14221SOL    HW244503   4.037   8.136  13.333
14222SOL     OW44504   5.465   4.135  10.932
14222SOL    HW144505   5.466   4.166  11.022
14222SOL    HW244506   5.555   4.111  10.913
14223SOL     OW44507   8.378  10.385   4.183
14223SOL    HW144508   8.288  10.356   4.170
14223SOL    HW244509   8.381  10.414   4.275
14224SOL     OW44510   7.963   2.730   3.622
14224SOL    HW144511   8.006   2.813   3.645
14224SOL    HW244512   8.035   2.670   3.602
14225SOL     OW44513  13.728   2.352   6.571
14225SOL    HW144514  13.663   2.407   6.615
14225SOL    HW244515  13.725   2.269   6.619
14226SOL     OW44516   7.772   3.962   7.575
14226SOL    HW144517   7.842   3.904   7.543
14226SOL    HW244518   7.758   3.935   7.665
14227SOL     OW44519   6.415   8.236   7.881
14227SOL    HW144520   6.363   8.313   7.859
14227SOL    HW244521   6.381   8.207   7.965
14228SOL     OW44522   6.660  10.176   0.849
14228SOL    HW144523   6.744  10.183   0.894
14228SOL    HW244524   6.664  10.091   0.804
14229SOL     OW44525   8.841   9.385   7.580
14229SOL    HW144526   8.793   9.444   7.522
14229SOL    HW244527   8.836   9.426   7.666
14230SOL     OW44528   2.326  13.569   4.169
14230SOL    HW144529   2.267  13.547   4.097
14230SOL    HW244530   2.269  13.581   4.244
14231SOL     OW44531   5.050   0.857   6.329
14231SOL    HW144532   4.986   0.801   6.372
14231SOL    HW244533   5.108   0.886   6.400
14232SOL     OW44534  12.806   8.336   9.825
14232SOL    HW144535  12.711   8.334   9.816
14232SOL    HW244536  12.839   8.297   9.744
14233SOL     OW44537   8.882  13.429   3.467
14233SOL    HW144538   8.969  13.418   3.505
14233SOL    HW244539   8.822  13.395   3.533
14234SOL     OW44540   3.603   8.715  11.255
14234SOL    HW144541   3.601   8.634  11.307
14234SOL    HW244542   3.695   8.743  11.259
14235SOL     OW44543  11.248  10.028  13.304
14235SOL    HW144544  11.160  10.025  13.342
14235SOL    HW244545  11.297   9.961  13.351
14236SOL     OW44546  12.583   1.236   9.641
14236SOL    HW144547  12.660   1.193   9.676
14236SOL    HW244548  12.538   1.273   9.717
14237SOL     OW44549   9.461   1.792  12.135
14237SOL    HW144550   9.371   1.760  12.137
14237SOL    HW244551   9.458   1.878  12.175
14238SOL     OW44552   1.004   2.485   8.802
14238SOL    HW144553   0.908   2.484   8.801
14238SOL    HW244554   1.026   2.510   8.892
14239SOL     OW44555  13.261   2.000  12.320
14239SOL    HW144556  13.237   1.928  12.378
14239SOL    HW244557  13.261   2.078  12.376
14240SOL     OW44558  10.152   7.796   7.630
14240SOL    HW144559  10.119   7.859   7.566
14240SOL    HW244560  10.108   7.819   7.712
14241SOL     OW44561   4.470   4.257   9.849
14241SOL    HW144562   4.436   4.224   9.932
14241SOL    HW244563   4.400   4.313   9.816
14242SOL     OW44564  12.424   6.927   8.768
14242SOL    HW144565  12.347   6.884   8.731
14242SOL    HW244566  12.436   6.886   8.854
14243SOL     OW44567   5.049  12.575   2.158
14243SOL    HW144568   5.113  12.640   2.188
14243SOL    HW244569   5.098  12.494   2.151
14244SOL     OW44570   5.943   1.597   7.807
14244SOL    HW144571   5.897   1.613   7.724
14244SOL    HW244572   5.883   1.543   7.858
14245SOL     OW44573   0.536   3.304   9.916
14245SOL    HW144574   0.502   3.279  10.002
14245SOL    HW244575   0.515   3.230   9.859
14246SOL     OW44576  14.842  13.683   3.622
14246SOL    HW144577   0.016  13.689   3.703
14246SOL    HW244578  14.756  13.718   3.645
14247SOL     OW44579   3.495   9.243  13.080
14247SOL    HW144580   3.514   9.275  12.992
14247SOL    HW244581   3.458   9.318  13.126
14248SOL     OW44582  13.083   2.951   7.798
14248SOL    HW144583  13.066   3.025   7.857
14248SOL    HW244584  13.052   2.980   7.713
14249SOL     OW44585   1.591   7.734   0.395
14249SOL    HW144586   1.557   7.815   0.359
14249SOL    HW244587   1.561   7.733   0.486
14250SOL     OW44588   9.548   3.130   8.071
14250SOL    HW144589   9.611   3.070   8.111
14250SOL    HW244590   9.482   3.072   8.032
14251SOL     OW44591   1.743   2.102   6.386
14251SOL    HW144592   1.710   2.017   6.358
14251SOL    HW244593   1.810   2.083   6.451
14252SOL     OW44594   2.979   0.713  14.288
14252SOL    HW144595   2.965   0.661  14.210
14252SOL    HW244596   2.896   0.708  14.336
14253SOL     OW44597   0.413   8.313  12.806
14253SOL    HW144598   0.365   8.234  12.783
14253SOL    HW244599   0.347   8.371  12.845
14254SOL     OW44600   4.613   8.909   3.804
14254SOL    HW144601   4.641   8.910   3.713
14254SOL    HW244602   4.528   8.955   3.803
14255SOL     OW44603   7.997  14.281   0.425
14255SOL    HW144604   8.050  14.202   0.419
14255SOL    HW244605   8.055  14.346   0.465
14256SOL     OW44606   0.322   5.949   2.254
14256SOL    HW144607   0.248   5.978   2.201
14256SOL    HW244608   0.399   5.967   2.201
14257SOL     OW44609  11.750   1.059   7.403
14257SOL    HW144610  11.725   1.000   7.473
14257SOL    HW244611  11.671   1.068   7.349
14258SOL     OW44612   0.436   9.127   4.529
14258SOL    HW144613   0.389   9.188   4.473
14258SOL    HW244614   0.458   9.053   4.472
14259SOL     OW44615  10.545   4.569   9.797
14259SOL    HW144616  10.552   4.634   9.867
14259SOL    HW244617  10.464   4.591   9.751
14260SOL     OW44618  11.542   4.300  11.231
14260SOL    HW144619  11.612   4.291  11.296
14260SOL    HW244620  11.587   4.296  11.147
14261SOL     OW44621   5.366   2.081   8.086
14261SOL    HW144622   5.292   2.125   8.130
14261SOL    HW244623   5.355   1.989   8.109
14262SOL     OW44624  13.547   5.787   9.113
14262SOL    HW144625  13.584   5.865   9.155
14262SOL    HW244626  13.528   5.728   9.186
14263SOL     OW44627   8.172   7.863   5.927
14263SOL    HW144628   8.173   7.886   5.834
14263SOL    HW244629   8.080   7.846   5.946
14264SOL     OW44630   3.045   8.296   4.384
14264SOL    HW144631   3.004   8.271   4.302
14264SOL    HW244632   3.137   8.310   4.362
14265SOL     OW44633  10.074   1.276  11.055
14265SOL    HW144634   9.986   1.244  11.078
14265SOL    HW244635  10.131   1.201  11.071
14266SOL     OW44636   2.876  10.062  13.322
14266SOL    HW144637   2.942  10.032  13.260
14266SOL    HW244638   2.815  10.115  13.270
14267SOL     OW44639   9.441   1.515   5.556
14267SOL    HW144640   9.508   1.487   5.494
14267SOL    HW244641   9.386   1.576   5.507
14268SOL     OW44642   2.114   1.704   9.616
14268SOL    HW144643   2.198   1.730   9.578
14268SOL    HW244644   2.067   1.786   9.629
14269SOL     OW44645   8.459   3.095   3.134
14269SOL    HW144646   8.458   3.011   3.180
14269SOL    HW244647   8.544   3.133   3.157
14270SOL     OW44648   9.033   3.949  14.790
14270SOL    HW144649   9.090   3.875  14.769
14270SOL    HW244650   9.043   4.009  14.716
14271SOL     OW44651  10.091  11.406  10.397
14271SOL    HW144652  10.077  11.335  10.460
14271SOL    HW244653  10.099  11.485  10.451
14272SOL     OW44654   3.853   7.768   6.434
14272SOL    HW144655   3.773   7.821   6.439
14272SOL    HW244656   3.851   7.713   6.513
14273SOL     OW44657   9.829   5.006   6.263
14273SOL    HW144658   9.755   4.957   6.296
14273SOL    HW244659   9.791   5.073   6.206
14274SOL     OW44660   9.187   2.721   4.193
14274SOL    HW144661   9.258   2.709   4.129
14274SOL    HW244662   9.208   2.660   4.264
14275SOL     OW44663   1.218   0.685   2.990
14275SOL    HW144664   1.214   0.676   2.895
14275SOL    HW244665   1.312   0.677   3.010
14276SOL     OW44666   9.965   5.810  13.961
14276SOL    HW144667   9.963   5.740  14.027
14276SOL    HW244668   9.888   5.863  13.979
14277SOL     OW44669  11.835  11.271   3.461
14277SOL    HW144670  11.864  11.322   3.386
14277SOL    HW244671  11.844  11.180   3.432
14278SOL     OW44672   8.723   6.181   9.628
14278SOL    HW144673   8.693   6.121   9.696
14278SOL    HW244674   8.803   6.220   9.663
14279SOL     OW44675   5.512   1.144   3.593
14279SOL    HW144676   5.592   1.092   3.594
14279SOL    HW244677   5.443   1.083   3.619
14280SOL     OW44678   8.041   7.000  12.448
14280SOL    HW144679   8.059   7.071  12.386
14280SOL    HW244680   7.948   6.983  12.439
14281SOL     OW44681   8.117   1.181  12.619
14281SOL    HW144682   8.055   1.249  12.592
14281SOL    HW244683   8.080   1.145  12.699
14282SOL     OW44684   6.003   8.587   8.348
14282SOL    HW144685   5.938   8.570   8.279
14282SOL    HW244686   6.027   8.500   8.380
14283SOL     OW44687  12.538   8.624   9.507
14283SOL    HW144688  12.570   8.621   9.417
14283SOL    HW244689  12.608   8.669   9.556
14284SOL     OW44690  12.297   7.189   5.123
14284SOL    HW144691  12.242   7.159   5.195
14284SOL    HW244692  12.380   7.212   5.166
14285SOL     OW44693   9.860   1.759   2.218
14285SOL    HW144694   9.909   1.841   2.209
14285SOL    HW244695   9.771   1.787   2.238
14286SOL     OW44696   8.816   4.874   2.387
14286SOL    HW144697   8.894   4.835   2.349
14286SOL    HW244698   8.850   4.942   2.446
14287SOL     OW44699   9.385  10.704   6.362
14287SOL    HW144700   9.457  10.729   6.303
14287SOL    HW244701   9.419  10.722   6.450
14288SOL     OW44702  13.474   7.153   8.550
14288SOL    HW144703  13.406   7.186   8.609
14288SOL    HW244704  13.527   7.094   8.604
14289SOL     OW44705   1.226  14.322   2.438
14289SOL    HW144706   1.291  14.350   2.503
14289SOL    HW244707   1.145  14.366   2.464
14290SOL     OW44708   8.745   7.653  14.297
14290SOL    HW144709   8.699   7.569  14.290
14290SOL    HW244710   8.796   7.645  14.378
14291SOL     OW44711   6.528   7.833  13.681
14291SOL    HW144712   6.478   7.759  13.647
14291SOL    HW244713   6.589   7.855  13.611
14292SOL     OW44714  11.846   2.434  13.225
14292SOL    HW144715  11.774   2.371  13.233
14292SOL    HW244716  11.925   2.381  13.230
14293SOL     OW44717   5.115   1.352   6.952
14293SOL    HW144718   5.135   1.442   6.929
14293SOL    HW244719   5.035   1.357   7.004
14294SOL     OW44720   3.135  12.002   1.996
14294SOL    HW144721   3.048  12.033   1.972
14294SOL    HW244722   3.139  12.013   2.091
14295SOL     OW44723   3.601   8.557   1.418
14295SOL    HW144724   3.575   8.642   1.384
14295SOL    HW244725   3.547   8.544   1.496
14296SOL     OW44726   0.068  12.094   6.034
14296SOL    HW144727   0.115  12.159   6.086
14296SOL    HW244728   0.134  12.057   5.975
14297SOL     OW44729  12.965   5.964   9.664
14297SOL    HW144730  12.882   5.934   9.627
14297SOL    HW244731  12.963   5.938   9.756
14298SOL     OW44732  11.066   3.978   2.721
14298SOL    HW144733  11.111   3.901   2.756
14298SOL    HW244734  11.121   4.007   2.648
14299SOL     OW44735   2.592   3.920  14.163
14299SOL    HW144736   2.660   3.854  14.153
14299SOL    HW244737   2.557   3.932  14.075
14300SOL     OW44738   8.380  12.401   1.963
14300SOL    HW144739   8.439  12.434   2.032
14300SOL    HW244740   8.329  12.478   1.938
14301SOL     OW44741  11.506   6.814   6.551
14301SOL    HW144742  11.517   6.805   6.645
14301SOL    HW244743  11.420   6.856   6.541
14302SOL     OW44744   8.631   1.195  11.480
14302SOL    HW144745   8.684   1.142  11.540
14302SOL    HW244746   8.645   1.285  11.509
14303SOL     OW44747  11.943   5.162  13.004
14303SOL    HW144748  11.989   5.131  13.083
14303SOL    HW244749  12.000   5.135  12.932
14304SOL     OW44750  11.242   1.065  14.699
14304SOL    HW144751  11.222   1.118  14.775
14304SOL    HW244752  11.181   1.095  14.631
14305SOL     OW44753   0.462  13.105  14.342
14305SOL    HW144754   0.489  13.147  14.260
14305SOL    HW244755   0.372  13.133  14.354
14306SOL     OW44756  11.348   1.858  11.355
14306SOL    HW144757  11.291   1.850  11.432
14306SOL    HW244758  11.413   1.924  11.381
14307SOL     OW44759  13.322   1.261  13.987
14307SOL    HW144760  13.296   1.352  13.974
14307SOL    HW244761  13.416   1.260  13.967
14308SOL     OW44762   0.404   0.280   2.102
14308SOL    HW144763   0.336   0.228   2.145
14308SOL    HW244764   0.471   0.217   2.077
14309SOL     OW44765  13.297   1.176  14.826
14309SOL    HW144766  13.318   1.269  14.821
14309SOL    HW244767  13.331   1.148   0.035
14310SOL     OW44768   9.203   1.227   8.699
14310SOL    HW144769   9.290   1.224   8.659
14310SOL    HW244770   9.149   1.172   8.642
14311SOL     OW44771  10.858   8.509  13.490
14311SOL    HW144772  10.782   8.456  13.465
14311SOL    HW244773  10.888   8.548  13.408
14312SOL     OW44774   2.680   9.885  10.058
14312SOL    HW144775   2.748   9.869   9.992
14312SOL    HW244776   2.703   9.828  10.131
14313SOL     OW44777   4.036   8.853   7.281
14313SOL    HW144778   3.999   8.808   7.357
14313SOL    HW244779   4.118   8.892   7.312
14314SOL     OW44780  14.727   6.778   8.001
14314SOL    HW144781  14.644   6.817   8.028
14314SOL    HW244782  14.703   6.696   7.958
14315SOL     OW44783   7.538   1.041   7.898
14315SOL    HW144784   7.562   1.087   7.978
14315SOL    HW244785   7.451   1.074   7.876
14316SOL     OW44786   8.227   2.844   3.075
14316SOL    HW144787   8.199   2.752   3.078
14316SOL    HW244788   8.300   2.848   3.137
14317SOL     OW44789  12.540  13.768  14.205
14317SOL    HW144790  12.540  13.857  14.172
14317SOL    HW244791  12.577  13.715  14.135
14318SOL     OW44792   5.229   6.150   9.887
14318SOL    HW144793   5.170   6.134   9.813
14318SOL    HW244794   5.309   6.103   9.863
14319SOL     OW44795   7.206  13.968  14.637
14319SOL    HW144796   7.162  13.910  14.700
14319SOL    HW244797   7.167  14.054  14.652
14320SOL     OW44798   1.002  11.186   0.924
14320SOL    HW144799   0.923  11.145   0.960
14320SOL    HW244800   0.998  11.167   0.830
14321SOL     OW44801  14.065   1.711   8.648
14321SOL    HW144802  14.005   1.664   8.591
14321SOL    HW244803  14.126   1.643   8.680
14322SOL     OW44804   5.107   0.075   7.030
14322SOL    HW144805   5.022   0.114   7.013
14322SOL    HW244806   5.092  14.857   7.026
14323SOL     OW44807  11.936   5.343   4.251
14323SOL    HW144808  12.029   5.366   4.262
14323SOL    HW244809  11.890   5.403   4.309
14324SOL     OW44810  14.453   6.924   9.528
14324SOL    HW144811  14.523   6.988   9.540
14324SOL    HW244812  14.373   6.972   9.550
14325SOL     OW44813   2.165   5.960   5.823
14325SOL    HW144814   2.130   6.026   5.763
14325SOL    HW244815   2.090   5.933   5.875
14326SOL     OW44816   2.900   5.380  13.414
14326SOL    HW144817   2.822   5.326  13.428
14326SOL    HW244818   2.894   5.408  13.323
14327SOL     OW44819  13.566   0.091   0.170
14327SOL    HW144820  13.639   0.130   0.218
14327SOL    HW244821  13.568   0.133   0.084
14328SOL     OW44822   6.574   0.380   4.327
14328SOL    HW144823   6.564   0.293   4.288
14328SOL    HW244824   6.521   0.376   4.407
14329SOL     OW44825   1.916   5.164  14.487
14329SOL    HW144826   1.825   5.140  14.467
14329SOL    HW244827   1.928   5.138  14.579
14330SOL     OW44828  14.424   6.927  12.020
14330SOL    HW144829  14.346   6.880  11.992
14330SOL    HW244830  14.426   6.916  12.115
14331SOL     OW44831  10.616   2.142   6.920
14331SOL    HW144832  10.677   2.132   6.847
14331SOL    HW244833  10.631   2.065   6.974
14332SOL     OW44834   1.908   4.038  13.964
14332SOL    HW144835   1.956   4.121  13.970
14332SOL    HW244836   1.816   4.065  13.956
14333SOL     OW44837  14.547   5.000  13.053
14333SOL    HW144838  14.588   5.064  12.994
14333SOL    HW244839  14.537   5.047  13.136
14334SOL     OW44840   0.435   8.901   5.568
14334SOL    HW144841   0.497   8.934   5.634
14334SOL    HW244842   0.477   8.919   5.484
14335SOL     OW44843   7.965   9.900   3.510
14335SOL    HW144844   7.994   9.851   3.587
14335SOL    HW244845   7.957   9.990   3.540
14336SOL     OW44846   8.363   9.423   6.808
14336SOL    HW144847   8.415   9.425   6.729
14336SOL    HW244848   8.423   9.450   6.878
14337SOL     OW44849   8.943   5.679   3.183
14337SOL    HW144850   8.986   5.720   3.257
14337SOL    HW244851   8.870   5.737   3.162
14338SOL     OW44852  13.300   7.974  11.696
14338SOL    HW144853  13.339   7.893  11.729
14338SOL    HW244854  13.241   7.947  11.626
14339SOL     OW44855   1.195   3.657   9.680
14339SOL    HW144856   1.110   3.682   9.644
14339SOL    HW244857   1.174   3.592   9.747
14340SOL     OW44858   6.435   3.539   8.251
14340SOL    HW144859   6.450   3.570   8.161
14340SOL    HW244860   6.522   3.517   8.283
14341SOL     OW44861   4.372  11.927  10.700
14341SOL    HW144862   4.384  11.837  10.671
14341SOL    HW244863   4.442  11.942  10.763
14342SOL     OW44864   5.783   3.826   8.905
14342SOL    HW144865   5.724   3.753   8.926
14342SOL    HW244866   5.870   3.793   8.929
14343SOL     OW44867   8.333   3.760   9.392
14343SOL    HW144868   8.263   3.820   9.366
14343SOL    HW244869   8.328   3.688   9.329
14344SOL     OW44870   1.855   2.631   3.361
14344SOL    HW144871   1.867   2.723   3.338
14344SOL    HW244872   1.851   2.630   3.457
14345SOL     OW44873  10.919   9.678  13.318
14345SOL    HW144874  10.932   9.665  13.224
14345SOL    HW244875  10.824   9.674  13.330
14346SOL     OW44876   3.532   0.938   5.952
14346SOL    HW144877   3.606   0.971   5.901
14346SOL    HW244878   3.512   0.853   5.914
14347SOL     OW44879   9.222   2.819  10.455
14347SOL    HW144880   9.252   2.881  10.389
14347SOL    HW244881   9.209   2.737  10.407
14348SOL     OW44882   1.555  10.906  12.082
14348SOL    HW144883   1.470  10.944  12.105
14348SOL    HW244884   1.570  10.931  11.991
14349SOL     OW44885  10.289  13.727   6.756
14349SOL    HW144886  10.248  13.699   6.675
14349SOL    HW244887  10.305  13.821   6.744
14350SOL     OW44888   4.808   8.347  13.137
14350SOL    HW144889   4.871   8.351  13.209
14350SOL    HW244890   4.753   8.271  13.157
14351SOL     OW44891   0.687  10.036   8.885
14351SOL    HW144892   0.764  10.023   8.830
14351SOL    HW244893   0.664  10.128   8.872
14352SOL     OW44894   4.433   7.921  11.818
14352SOL    HW144895   4.355   7.881  11.857
14352SOL    HW244896   4.399   7.981  11.752
14353SOL     OW44897   4.378   2.323   0.785
14353SOL    HW144898   4.296   2.277   0.804
14353SOL    HW244899   4.361   2.369   0.702
14354SOL     OW44900  12.913   8.775   3.541
14354SOL    HW144901  12.941   8.684   3.531
14354SOL    HW244902  12.995   8.825   3.545
14355SOL     OW44903   6.645   3.272  14.274
14355SOL    HW144904   6.610   3.295  14.188
14355SOL    HW244905   6.652   3.177  14.273
14356SOL     OW44906   4.724  14.058  10.176
14356SOL    HW144907   4.791  14.057  10.244
14356SOL    HW244908   4.648  14.100  10.218
14357SOL     OW44909   4.512  12.660  10.905
14357SOL    HW144910   4.543  12.749  10.921
14357SOL    HW244911   4.465  12.665  10.822
14358SOL     OW44912  10.487   7.682   3.566
14358SOL    HW144913  10.527   7.653   3.648
14358SOL    HW244914  10.545   7.752   3.535
14359SOL     OW44915   4.966   0.565   1.380
14359SOL    HW144916   4.976   0.608   1.295
14359SOL    HW244917   4.874   0.541   1.385
14360SOL     OW44918   3.361  14.030   2.099
14360SOL    HW144919   3.328  14.097   2.159
14360SOL    HW244920   3.410  13.970   2.156
14361SOL     OW44921  11.300   5.593   5.591
14361SOL    HW144922  11.227   5.570   5.533
14361SOL    HW244923  11.260   5.645   5.661
14362SOL     OW44924  13.468   2.696   2.915
14362SOL    HW144925  13.457   2.758   2.842
14362SOL    HW244926  13.419   2.619   2.887
14363SOL     OW44927  13.400   1.305   4.740
14363SOL    HW144928  13.474   1.323   4.798
14363SOL    HW244929  13.440   1.275   4.658
14364SOL     OW44930  11.729   3.307   0.988
14364SOL    HW144931  11.774   3.234   0.944
14364SOL    HW244932  11.740   3.289   1.081
14365SOL     OW44933  11.644   6.075   7.467
14365SOL    HW144934  11.595   6.132   7.527
14365SOL    HW244935  11.702   6.024   7.525
14366SOL     OW44936   0.345   9.297   0.278
14366SOL    HW144937   0.319   9.370   0.223
14366SOL    HW244938   0.263   9.251   0.298
14367SOL     OW44939  13.129   4.871  14.037
14367SOL    HW144940  13.068   4.806  14.002
14367SOL    HW244941  13.083   4.910  14.112
14368SOL     OW44942   4.001   7.918   3.949
14368SOL    HW144943   3.963   7.988   3.896
14368SOL    HW244944   4.095   7.932   3.945
14369SOL     OW44945   4.306   7.313  14.428
14369SOL    HW144946   4.399   7.331  14.440
14369SOL    HW244947   4.295   7.222  14.456
14370SOL     OW44948   0.440   9.994   4.802
14370SOL    HW144949   0.447   9.980   4.708
14370SOL    HW244950   0.398   9.915   4.835
14371SOL     OW44951  14.543   0.494   1.282
14371SOL    HW144952  14.603   0.555   1.325
14371SOL    HW244953  14.459   0.540   1.281
14372SOL     OW44954   0.219   8.390  11.065
14372SOL    HW144955   0.186   8.308  11.027
14372SOL    HW244956   0.215   8.452  10.992
14373SOL     OW44957   2.104   7.088   5.486
14373SOL    HW144958   2.043   7.018   5.461
14373SOL    HW244959   2.120   7.137   5.406
14374SOL     OW44960   7.362   1.159   2.913
14374SOL    HW144961   7.445   1.188   2.949
14374SOL    HW244962   7.387   1.092   2.848
14375SOL     OW44963   3.462   7.679   6.788
14375SOL    HW144964   3.394   7.744   6.800
14375SOL    HW244965   3.515   7.712   6.716
14376SOL     OW44966   6.581  10.509  11.019
14376SOL    HW144967   6.579  10.584  10.960
14376SOL    HW244968   6.624  10.440  10.969
14377SOL     OW44969   9.118   4.018  14.543
14377SOL    HW144970   9.151   4.094  14.494
14377SOL    HW244971   9.159   3.943  14.500
14378SOL     OW44972   1.050   4.579   8.516
14378SOL    HW144973   0.988   4.549   8.450
14378SOL    HW244974   1.118   4.626   8.467
14379SOL     OW44975   7.645   2.875   7.851
14379SOL    HW144976   7.617   2.860   7.941
14379SOL    HW244977   7.741   2.878   7.856
14380SOL     OW44978  13.106  14.064   9.924
14380SOL    HW144979  13.026  14.114   9.941
14380SOL    HW244980  13.084  13.975   9.952
14381SOL     OW44981  14.192   0.653  14.831
14381SOL    HW144982  14.148   0.609   0.027
14381SOL    HW244983  14.143   0.627  14.753
14382SOL     OW44984   8.305  13.443   8.131
14382SOL    HW144985   8.277  13.362   8.089
14382SOL    HW244986   8.401  13.436   8.135
14383SOL     OW44987   8.591  12.279  10.326
14383SOL    HW144988   8.614  12.309  10.414
14383SOL    HW244989   8.509  12.232  10.337
14384SOL     OW44990   6.813  14.727   4.592
14384SOL    HW144991   6.835  14.670   4.665
14384SOL    HW244992   6.891  14.728   4.537
14385SOL     OW44993   1.389   7.487  11.265
14385SOL    HW144994   1.393   7.395  11.291
14385SOL    HW244995   1.449   7.531  11.325
14386SOL     OW44996   3.228   2.031   9.450
14386SOL    HW144997   3.193   1.948   9.485
14386SOL    HW244998   3.155   2.092   9.457
14387SOL     OW44999   9.096  10.525   6.150
14387SOL    HW145000   9.145  10.606   6.148
14387SOL    HW245001   9.121  10.483   6.233
14388SOL     OW45002   6.482   6.218   0.532
14388SOL    HW145003   6.419   6.246   0.465
14388SOL    HW245004   6.508   6.299   0.576
14389SOL     OW45005   5.956   5.879   6.714
14389SOL    HW145006   6.008   5.805   6.681
14389SOL    HW245007   5.955   5.867   6.809
14390SOL     OW45008   8.417   0.537  14.180
14390SOL    HW145009   8.361   0.568  14.109
14390SOL    HW245010   8.394   0.591  14.255
14391SOL     OW45011  10.892   8.435   4.253
14391SOL    HW145012  10.935   8.486   4.184
14391SOL    HW245013  10.958   8.428   4.322
14392SOL     OW45014  10.702   5.529  11.947
14392SOL    HW145015  10.789   5.561  11.926
14392SOL    HW245016  10.649   5.608  11.956
14393SOL     OW45017   5.747   8.399   4.526
14393SOL    HW145018   5.738   8.310   4.493
14393SOL    HW245019   5.706   8.454   4.460
14394SOL     OW45020  14.314  12.952   1.732
14394SOL    HW145021  14.357  12.877   1.692
14394SOL    HW245022  14.385  13.015   1.747
14395SOL     OW45023   0.532   2.341   4.257
14395SOL    HW145024   0.468   2.371   4.193
14395SOL    HW245025   0.570   2.262   4.218
14396SOL     OW45026   8.951   0.689  10.077
14396SOL    HW145027   8.869   0.641  10.068
14396SOL    HW245028   8.926   0.771  10.120
14397SOL     OW45029   8.244   4.719  13.117
14397SOL    HW145030   8.164   4.762  13.148
14397SOL    HW245031   8.277   4.777  13.048
14398SOL     OW45032   9.654  12.686  13.967
14398SOL    HW145033   9.628  12.751  13.902
14398SOL    HW245034   9.572  12.659  14.009
14399SOL     OW45035  10.765   6.336  12.560
14399SOL    HW145036  10.764   6.253  12.511
14399SOL    HW245037  10.847   6.334  12.609
14400SOL     OW45038   6.184   2.654   9.962
14400SOL    HW145039   6.255   2.648  10.026
14400SOL    HW245040   6.104   2.658  10.014
14401SOL     OW45041   2.339   5.091  13.072
14401SOL    HW145042   2.373   5.178  13.093
14401SOL    HW245043   2.246   5.105  13.052
14402SOL     OW45044   7.382  14.070  12.408
14402SOL    HW145045   7.349  13.988  12.371
14402SOL    HW245046   7.402  14.049  12.499
14403SOL     OW45047  12.942   0.407   6.382
14403SOL    HW145048  12.972   0.339   6.321
14403SOL    HW245049  12.903   0.359   6.455
14404SOL     OW45050   5.437   7.751   6.348
14404SOL    HW145051   5.521   7.795   6.357
14404SOL    HW245052   5.428   7.700   6.429
14405SOL     OW45053   7.290   8.762   4.232
14405SOL    HW145054   7.239   8.843   4.238
14405SOL    HW245055   7.225   8.692   4.231
14406SOL     OW45056   7.202   1.766   0.061
14406SOL    HW145057   7.192   1.856   0.090
14406SOL    HW245058   7.143   1.716   0.117
14407SOL     OW45059   3.776  14.654   7.588
14407SOL    HW145060   3.773  14.586   7.656
14407SOL    HW245061   3.827  14.614   7.517
14408SOL     OW45062   9.886   2.214   8.663
14408SOL    HW145063   9.867   2.291   8.610
14408SOL    HW245064   9.980   2.220   8.681
14409SOL     OW45065   1.697   8.711   2.214
14409SOL    HW145066   1.746   8.777   2.165
14409SOL    HW245067   1.670   8.648   2.148
14410SOL     OW45068   4.597  11.769  11.204
14410SOL    HW145069   4.659  11.781  11.275
14410SOL    HW245070   4.565  11.857  11.185
14411SOL     OW45071   1.285  14.063  12.758
14411SOL    HW145072   1.343  14.139  12.752
14411SOL    HW245073   1.220  14.077  12.689
14412SOL     OW45074   2.518   4.326   5.415
14412SOL    HW145075   2.603   4.343   5.455
14412SOL    HW245076   2.527   4.239   5.374
14413SOL     OW45077   9.359  12.368  14.703
14413SOL    HW145078   9.358  12.369  14.799
14413SOL    HW245079   9.430  12.428  14.680
14414SOL     OW45080   3.050   6.916  13.755
14414SOL    HW145081   2.987   6.951  13.818
14414SOL    HW245082   3.055   6.983  13.687
14415SOL     OW45083  12.824   1.338   9.912
14415SOL    HW145084  12.846   1.250   9.944
14415SOL    HW245085  12.899   1.363   9.858
14416SOL     OW45086   9.922   8.334  10.847
14416SOL    HW145087   9.888   8.421  10.870
14416SOL    HW245088   9.882   8.315  10.762
14417SOL     OW45089   4.117   9.426  13.516
14417SOL    HW145090   4.207   9.413  13.488
14417SOL    HW245091   4.095   9.347  13.565
14418SOL     OW45092   2.831   5.420   1.537
14418SOL    HW145093   2.854   5.343   1.484
14418SOL    HW245094   2.845   5.494   1.478
14419SOL     OW45095   2.953  10.940   3.947
14419SOL    HW145096   2.951  10.951   4.042
14419SOL    HW245097   3.047  10.939   3.925
14420SOL     OW45098   1.820   0.489   9.923
14420SOL    HW145099   1.896   0.536   9.954
14420SOL    HW245100   1.749   0.553   9.924
14421SOL     OW45101   5.622   4.827   2.350
14421SOL    HW145102   5.603   4.827   2.444
14421SOL    HW245103   5.717   4.817   2.344
14422SOL     OW45104   6.409   6.154  12.865
14422SOL    HW145105   6.498   6.158  12.900
14422SOL    HW245106   6.380   6.064  12.881
14423SOL     OW45107  13.003   5.162   4.553
14423SOL    HW145108  13.068   5.231   4.562
14423SOL    HW245109  12.977   5.164   4.461
14424SOL     OW45110   4.780   0.473   2.258
14424SOL    HW145111   4.787   0.553   2.206
14424SOL    HW245112   4.687   0.466   2.278
14425SOL     OW45113   8.861   0.809   8.050
14425SOL    HW145114   8.916   0.884   8.025
14425SOL    HW245115   8.776   0.827   8.009
14426SOL     OW45116  10.474   1.032   9.359
14426SOL    HW145117  10.459   1.126   9.347
14426SOL    HW245118  10.424   1.009   9.437
14427SOL     OW45119  14.648  12.655   4.749
14427SOL    HW145120  14.632  12.695   4.834
14427SOL    HW245121  14.658  12.729   4.689
14428SOL     OW45122   8.177  13.020   1.720
14428SOL    HW145123   8.203  13.049   1.632
14428SOL    HW245124   8.082  13.012   1.715
14429SOL     OW45125   0.618   7.429   8.350
14429SOL    HW145126   0.697   7.376   8.364
14429SOL    HW245127   0.546   7.371   8.375
14430SOL     OW45128  12.441   0.409   2.939
14430SOL    HW145129  12.373   0.465   2.977
14430SOL    HW245130  12.401   0.322   2.937
14431SOL     OW45131   0.123   4.701  14.253
14431SOL    HW145132   0.138   4.654  14.171
14431SOL    HW245133   0.211   4.714  14.289
14432SOL     OW45134   5.522  13.554  10.280
14432SOL    HW145135   5.426  13.557  10.275
14432SOL    HW245136   5.544  13.625  10.340
14433SOL     OW45137   8.764   1.570   6.886
14433SOL    HW145138   8.712   1.491   6.901
14433SOL    HW245139   8.852   1.537   6.867
14434SOL     OW45140   3.981   6.111  11.773
14434SOL    HW145141   4.032   6.113  11.692
14434SOL    HW245142   3.982   6.201  11.805
14435SOL     OW45143  10.542  13.310  11.404
14435SOL    HW145144  10.595  13.295  11.482
14435SOL    HW245145  10.452  13.296  11.434
14436SOL     OW45146   3.844   6.849   5.033
14436SOL    HW145147   3.935   6.864   5.060
14436SOL    HW245148   3.797   6.839   5.116
14437SOL     OW45149  11.575   0.283  11.840
14437SOL    HW145150  11.531   0.324  11.766
14437SOL    HW245151  11.666   0.311  11.832
14438SOL     OW45152  13.688  10.435   7.704
14438SOL    HW145153  13.681  10.396   7.791
14438SOL    HW245154  13.695  10.361   7.645
14439SOL     OW45155  11.975   1.379   9.504
14439SOL    HW145156  11.896   1.381   9.558
14439SOL    HW245157  11.982   1.467   9.470
14440SOL     OW45158  11.268  13.277   3.095
14440SOL    HW145159  11.248  13.206   3.034
14440SOL    HW245160  11.288  13.351   3.040
14441SOL     OW45161   5.561   3.129   8.108
14441SOL    HW145162   5.598   3.124   8.197
14441SOL    HW245163   5.509   3.049   8.100
14442SOL     OW45164  14.105   3.194   0.360
14442SOL    HW145165  14.153   3.234   0.432
14442SOL    HW245166  14.039   3.258   0.335
14443SOL     OW45167   2.636   1.533   7.328
14443SOL    HW145168   2.543   1.546   7.343
14443SOL    HW245169   2.664   1.611   7.280
14444SOL     OW45170   6.601  10.610   7.322
14444SOL    HW145171   6.612  10.702   7.344
14444SOL    HW245172   6.688  10.572   7.331
14445SOL     OW45173  12.992   7.750  13.576
14445SOL    HW145174  13.034   7.795  13.649
14445SOL    HW245175  13.026   7.794  13.498
14446SOL     OW45176   4.485   7.468   3.129
14446SOL    HW145177   4.537   7.409   3.182
14446SOL    HW245178   4.409   7.416   3.102
14447SOL     OW45179   0.767   9.573   6.058
14447SOL    HW145180   0.815   9.607   6.134
14447SOL    HW245181   0.737   9.487   6.086
14448SOL     OW45182  12.745   2.310   9.243
14448SOL    HW145183  12.834   2.283   9.262
14448SOL    HW245184  12.690   2.254   9.299
14449SOL     OW45185   2.983   6.589   3.204
14449SOL    HW145186   3.073   6.577   3.232
14449SOL    HW245187   2.931   6.576   3.283
14450SOL     OW45188   7.192  11.305  12.700
14450SOL    HW145189   7.188  11.400  12.695
14450SOL    HW245190   7.270  11.282  12.649
14451SOL     OW45191   9.023   2.162   6.005
14451SOL    HW145192   8.940   2.116   5.998
14451SOL    HW245193   9.015   2.236   5.945
14452SOL     OW45194   7.849   2.087  13.991
14452SOL    HW145195   7.891   2.032  14.057
14452SOL    HW245196   7.893   2.063  13.909
14453SOL     OW45197  11.355  13.086  12.742
14453SOL    HW145198  11.369  13.154  12.675
14453SOL    HW245199  11.280  13.036  12.710
14454SOL     OW45200  14.223   0.034   8.338
14454SOL    HW145201  14.247   0.111   8.286
14454SOL    HW245202  14.213  14.840   8.273
14455SOL     OW45203  12.717   1.452  13.596
14455SOL    HW145204  12.703   1.412  13.510
14455SOL    HW245205  12.715   1.379  13.657
14456SOL     OW45206   1.006  12.838  14.689
14456SOL    HW145207   0.959  12.852  14.607
14456SOL    HW245208   1.090  12.800  14.662
14457SOL     OW45209   3.146   8.207   6.537
14457SOL    HW145210   3.092   8.141   6.493
14457SOL    HW245211   3.083   8.264   6.582
14458SOL     OW45212  12.577  10.826  13.851
14458SOL    HW145213  12.645  10.806  13.787
14458SOL    HW245214  12.600  10.774  13.928
14459SOL     OW45215   1.840  10.921   8.161
14459SOL    HW145216   1.812  10.937   8.071
14459SOL    HW245217   1.905  10.989   8.179
14460SOL     OW45218   4.903   4.443   5.774
14460SOL    HW145219   4.835   4.463   5.709
14460SOL    HW245220   4.982   4.429   5.722
14461SOL     OW45221   0.667  13.388  14.197
14461SOL    HW145222   0.641  13.388  14.289
14461SOL    HW245223   0.595  13.431  14.151
14462SOL     OW45224  10.091   7.014   2.489
14462SOL    HW145225  10.004   6.975   2.477
14462SOL    HW245226  10.134   7.004   2.403
14463SOL     OW45227   3.282   5.047   3.711
14463SOL    HW145228   3.247   5.069   3.624
14463SOL    HW245229   3.315   4.958   3.702
14464SOL     OW45230   1.249   7.193   6.887
14464SOL    HW145231   1.220   7.156   6.971
14464SOL    HW245232   1.305   7.266   6.911
14465SOL     OW45233  12.470   3.426   2.712
14465SOL    HW145234  12.486   3.404   2.804
14465SOL    HW245235  12.418   3.354   2.678
14466SOL     OW45236   8.435   0.076   7.626
14466SOL    HW145237   8.504   0.042   7.683
14466SOL    HW245238   8.454   0.038   7.540
14467SOL     OW45239   5.614   2.685   2.937
14467SOL    HW145240   5.549   2.751   2.914
14467SOL    HW245241   5.658   2.664   2.855
14468SOL     OW45242   2.226   4.457  10.750
14468SOL    HW145243   2.248   4.501  10.832
14468SOL    HW245244   2.309   4.424  10.717
14469SOL     OW45245   1.599   4.449   1.034
14469SOL    HW145246   1.624   4.357   1.048
14469SOL    HW245247   1.514   4.457   1.076
14470SOL     OW45248   6.817   7.868   2.664
14470SOL    HW145249   6.804   7.940   2.603
14470SOL    HW245250   6.911   7.852   2.662
14471SOL     OW45251   5.175   5.707  14.705
14471SOL    HW145252   5.262   5.668  14.710
14471SOL    HW245253   5.190   5.801  14.715
14472SOL     OW45254   6.727   7.340   3.977
14472SOL    HW145255   6.686   7.414   3.934
14472SOL    HW245256   6.678   7.263   3.947
14473SOL     OW45257   8.326   8.320   2.684
14473SOL    HW145258   8.235   8.313   2.713
14473SOL    HW245259   8.347   8.413   2.693
14474SOL     OW45260   1.600   5.290   0.232
14474SOL    HW145261   1.688   5.325   0.218
14474SOL    HW245262   1.593   5.281   0.327
14475SOL     OW45263   8.699  11.805   4.394
14475SOL    HW145264   8.745  11.721   4.384
14475SOL    HW245265   8.769  11.870   4.400
14476SOL     OW45266   4.824   5.986  10.492
14476SOL    HW145267   4.764   6.011  10.563
14476SOL    HW245268   4.803   6.047  10.421
14477SOL     OW45269  14.323   7.860  12.563
14477SOL    HW145270  14.357   7.889  12.478
14477SOL    HW245271  14.398   7.819  12.606
14478SOL     OW45272   7.848  13.925   8.696
14478SOL    HW145273   7.874  13.978   8.771
14478SOL    HW245274   7.752  13.919   8.703
14479SOL     OW45275  13.217   2.940  11.918
14479SOL    HW145276  13.286   2.900  11.970
14479SOL    HW245277  13.253   3.025  11.892
14480SOL     OW45278   4.098  13.279  11.355
14480SOL    HW145279   4.117  13.345  11.288
14480SOL    HW245280   4.056  13.208  11.306
14481SOL     OW45281   3.463   4.098  13.246
14481SOL    HW145282   3.426   4.060  13.166
14481SOL    HW245283   3.424   4.047  13.317
14482SOL     OW45284  12.077   1.905   3.737
14482SOL    HW145285  12.001   1.870   3.783
14482SOL    HW245286  12.099   1.985   3.785
14483SOL     OW45287   2.052   9.695   3.770
14483SOL    HW145288   1.975   9.640   3.756
14483SOL    HW245289   2.034   9.775   3.720
14484SOL     OW45290   4.779   4.032   5.780
14484SOL    HW145291   4.766   3.992   5.694
14484SOL    HW245292   4.717   3.987   5.838
14485SOL     OW45293  14.723   5.941   7.589
14485SOL    HW145294  14.654   5.876   7.602
14485SOL    HW245295  14.702   5.981   7.505
14486SOL     OW45296   3.599  12.423   3.310
14486SOL    HW145297   3.657  12.486   3.266
14486SOL    HW245298   3.648  12.397   3.388
14487SOL     OW45299   9.045   0.687  13.593
14487SOL    HW145300   8.955   0.670  13.566
14487SOL    HW245301   9.039   0.707  13.687
14488SOL     OW45302  10.291  13.335   0.695
14488SOL    HW145303  10.223  13.378   0.746
14488SOL    HW245304  10.346  13.291   0.760
14489SOL     OW45305  10.304   3.678  13.285
14489SOL    HW145306  10.373   3.642  13.341
14489SOL    HW245307  10.332   3.768  13.267
14490SOL     OW45308  11.772   3.136   1.264
14490SOL    HW145309  11.834   3.126   1.191
14490SOL    HW245310  11.808   3.079   1.332
14491SOL     OW45311   4.044  10.081   8.608
14491SOL    HW145312   4.007  10.055   8.524
14491SOL    HW245313   4.031  10.175   8.613
14492SOL     OW45314   4.890   4.238   5.945
14492SOL    HW145315   4.898   4.308   5.881
14492SOL    HW245316   4.851   4.166   5.896
14493SOL     OW45317   3.265   4.522  12.437
14493SOL    HW145318   3.206   4.580  12.389
14493SOL    HW245319   3.315   4.581  12.494
14494SOL     OW45320   4.045  14.057   0.831
14494SOL    HW145321   4.019  13.970   0.802
14494SOL    HW245322   3.963  14.107   0.833
14495SOL     OW45323   3.459   7.037  10.408
14495SOL    HW145324   3.375   7.064  10.370
14495SOL    HW245325   3.518   7.111  10.391
14496SOL     OW45326   9.753   4.942   1.150
14496SOL    HW145327   9.733   4.980   1.064
14496SOL    HW245328   9.718   5.006   1.212
14497SOL     OW45329   0.287   2.547  13.456
14497SOL    HW145330   0.372   2.587  13.437
14497SOL    HW245331   0.231   2.574  13.383
14498SOL     OW45332   5.227   6.399   9.999
14498SOL    HW145333   5.248   6.316   9.957
14498SOL    HW245334   5.132   6.407   9.991
14499SOL     OW45335  14.489   0.806  11.455
14499SOL    HW145336  14.444   0.890  11.455
14499SOL    HW245337  14.433   0.748  11.404
14500SOL     OW45338   3.278   2.812   3.138
14500SOL    HW145339   3.271   2.725   3.100
14500SOL    HW245340   3.307   2.797   3.228
14501SOL     OW45341  11.607  14.243   2.189
14501SOL    HW145342  11.594  14.261   2.282
14501SOL    HW245343  11.702  14.246   2.178
14502SOL     OW45344   0.225   1.144  13.462
14502SOL    HW145345   0.226   1.233  13.426
14502SOL    HW245346   0.228   1.157  13.557
14503SOL     OW45347   8.933   9.307   5.392
14503SOL    HW145348   9.018   9.322   5.349
14503SOL    HW245349   8.922   9.212   5.390
14504SOL     OW45350  11.864   8.834   1.045
14504SOL    HW145351  11.818   8.918   1.050
14504SOL    HW245352  11.952   8.852   1.078
14505SOL     OW45353   2.151  12.710   2.062
14505SOL    HW145354   2.216  12.722   2.131
14505SOL    HW245355   2.201  12.681   1.986
14506SOL     OW45356   4.881   0.188  14.527
14506SOL    HW145357   4.876   0.212  14.620
14506SOL    HW245358   4.946   0.248  14.490
14507SOL     OW45359   8.631   1.708   1.778
14507SOL    HW145360   8.593   1.741   1.859
14507SOL    HW245361   8.707   1.657   1.806
14508SOL     OW45362   3.233   5.961   5.908
14508SOL    HW145363   3.206   5.902   5.979
14508SOL    HW245364   3.321   5.930   5.883
14509SOL     OW45365   8.989   4.156  10.798
14509SOL    HW145366   8.986   4.101  10.876
14509SOL    HW245367   8.956   4.241  10.827
14510SOL     OW45368  10.132  14.608   1.559
14510SOL    HW145369  10.125  14.515   1.582
14510SOL    HW245370  10.042  14.633   1.536
14511SOL     OW45371   0.373   2.824   7.111
14511SOL    HW145372   0.377   2.905   7.162
14511SOL    HW245373   0.328   2.762   7.167
14512SOL     OW45374  10.395   3.987   1.510
14512SOL    HW145375  10.319   4.038   1.483
14512SOL    HW245376  10.385   3.977   1.605
14513SOL     OW45377   5.387   8.929   5.516
14513SOL    HW145378   5.400   8.843   5.476
14513SOL    HW245379   5.393   8.912   5.610
14514SOL     OW45380   9.061   8.504   3.296
14514SOL    HW145381   9.103   8.503   3.210
14514SOL    HW245382   9.101   8.431   3.344
14515SOL     OW45383   9.810   6.784  10.539
14515SOL    HW145384   9.890   6.834  10.559
14515SOL    HW245385   9.754   6.797  10.615
14516SOL     OW45386  11.849   7.319   2.868
14516SOL    HW145387  11.804   7.358   2.943
14516SOL    HW245388  11.937   7.298   2.900
14517SOL     OW45389  11.000   4.979  12.805
14517SOL    HW145390  11.064   4.919  12.844
14517SOL    HW245391  10.919   4.961  12.853
14518SOL     OW45392  12.352   8.680  13.431
14518SOL    HW145393  12.440   8.665  13.467
14518SOL    HW245394  12.361   8.759  13.377
14519SOL     OW45395  12.924   2.819   1.946
14519SOL    HW145396  12.952   2.733   1.915
14519SOL    HW245397  12.863   2.800   2.018
14520SOL     OW45398   8.231  14.648   0.671
14520SOL    HW145399   8.163  14.665   0.606
14520SOL    HW245400   8.189  14.594   0.737
14521SOL     OW45401   7.419  12.286   7.288
14521SOL    HW145402   7.387  12.360   7.237
14521SOL    HW245403   7.512  12.279   7.266
14522SOL     OW45404  11.185   8.761   6.867
14522SOL    HW145405  11.187   8.846   6.912
14522SOL    HW245406  11.207   8.697   6.934
14523SOL     OW45407  10.844  11.721   1.896
14523SOL    HW145408  10.833  11.688   1.986
14523SOL    HW245409  10.758  11.710   1.856
14524SOL     OW45410   9.791   7.104   2.768
14524SOL    HW145411   9.869   7.157   2.750
14524SOL    HW245412   9.754   7.086   2.681
14525SOL     OW45413   5.764  10.918   5.608
14525SOL    HW145414   5.797  10.999   5.647
14525SOL    HW245415   5.687  10.945   5.559
14526SOL     OW45416  10.312  12.749   8.152
14526SOL    HW145417  10.280  12.664   8.122
14526SOL    HW245418  10.399  12.757   8.113
14527SOL     OW45419   6.610   9.736   5.342
14527SOL    HW145420   6.586   9.825   5.315
14527SOL    HW245421   6.544   9.713   5.408
14528SOL     OW45422   6.266   4.563  11.257
14528SOL    HW145423   6.179   4.559  11.219
14528SOL    HW245424   6.290   4.656  11.252
14529SOL     OW45425   8.838   8.401  14.640
14529SOL    HW145426   8.742   8.406  14.640
14529SOL    HW245427   8.862   8.402  14.733
14530SOL     OW45428  10.366  12.687   9.162
14530SOL    HW145429  10.298  12.639   9.114
14530SOL    HW245430  10.389  12.628   9.235
14531SOL     OW45431   7.523   6.637  10.435
14531SOL    HW145432   7.582   6.691  10.488
14531SOL    HW245433   7.447   6.693  10.417
14532SOL     OW45434  11.167  13.212   3.917
14532SOL    HW145435  11.176  13.210   3.822
14532SOL    HW245436  11.073  13.200   3.932
14533SOL     OW45437   8.845  10.845   8.947
14533SOL    HW145438   8.758  10.879   8.927
14533SOL    HW245439   8.829  10.771   9.006
14534SOL     OW45440  14.449  11.234   9.852
14534SOL    HW145441  14.519  11.186   9.896
14534SOL    HW245442  14.466  11.326   9.872
14535SOL     OW45443  14.236  10.300   2.086
14535SOL    HW145444  14.327  10.282   2.110
14535SOL    HW245445  14.184  10.260   2.156
14536SOL     OW45446  10.216  14.260   7.415
14536SOL    HW145447  10.205  14.321   7.342
14536SOL    HW245448  10.306  14.273   7.444
14537SOL     OW45449  14.397   1.658   6.694
14537SOL    HW145450  14.408   1.741   6.739
14537SOL    HW245451  14.480   1.644   6.649
14538SOL     OW45452  12.120   2.655  13.998
14538SOL    HW145453  12.212   2.666  14.023
14538SOL    HW245454  12.120   2.575  13.945
14539SOL     OW45455  10.878   6.272   4.027
14539SOL    HW145456  10.920   6.209   3.968
14539SOL    HW245457  10.903   6.357   3.993
14540SOL     OW45458   8.236  11.368   3.519
14540SOL    HW145459   8.234  11.365   3.424
14540SOL    HW245460   8.146  11.389   3.544
14541SOL     OW45461  14.786  11.895  10.351
14541SOL    HW145462  14.740  11.880  10.434
14541SOL    HW245463  14.809  11.807  10.321
14542SOL     OW45464  14.323  11.395   0.778
14542SOL    HW145465  14.290  11.483   0.795
14542SOL    HW245466  14.417  11.400   0.798
14543SOL     OW45467  12.031   3.658  13.682
14543SOL    HW145468  12.108   3.715  13.684
14543SOL    HW245469  12.055   3.584  13.738
14544SOL     OW45470   2.420   2.292  13.608
14544SOL    HW145471   2.468   2.233  13.550
14544SOL    HW245472   2.393   2.364  13.551
14545SOL     OW45473  11.824   3.965   9.928
14545SOL    HW145474  11.888   4.030   9.899
14545SOL    HW245475  11.770   4.011   9.993
14546SOL     OW45476  10.967  12.422   4.308
14546SOL    HW145477  10.965  12.426   4.212
14546SOL    HW245478  10.902  12.486   4.336
14547SOL     OW45479  10.516   7.706  10.944
14547SOL    HW145480  10.426   7.736  10.954
14547SOL    HW245481  10.511   7.611  10.953
14548SOL     OW45482   4.511   1.132   1.629
14548SOL    HW145483   4.465   1.058   1.668
14548SOL    HW245484   4.446   1.172   1.572
14549SOL     OW45485  10.024   6.860   5.362
14549SOL    HW145486  10.069   6.937   5.398
14549SOL    HW245487   9.931   6.875   5.383
14550SOL     OW45488  14.080   1.731   9.952
14550SOL    HW145489  13.989   1.710   9.930
14550SOL    HW245490  14.082   1.728  10.048
14551SOL     OW45491  10.880   5.101   0.317
14551SOL    HW145492  10.884   5.146   0.233
14551SOL    HW245493  10.827   5.023   0.300
14552SOL     OW45494   8.462   1.179   7.935
14552SOL    HW145495   8.442   1.087   7.915
14552SOL    HW245496   8.435   1.226   7.856
14553SOL     OW45497   7.658   4.135   8.163
14553SOL    HW145498   7.618   4.150   8.248
14553SOL    HW245499   7.602   4.070   8.121
14554SOL     OW45500   6.571  13.835   1.830
14554SOL    HW145501   6.571  13.896   1.756
14554SOL    HW245502   6.481  13.802   1.833
14555SOL     OW45503   7.914  13.882   8.392
14555SOL    HW145504   7.928  13.860   8.484
14555SOL    HW245505   7.981  13.947   8.373
14556SOL     OW45506   8.582  10.839   0.510
14556SOL    HW145507   8.584  10.749   0.542
14556SOL    HW245508   8.537  10.834   0.425
14557SOL     OW45509   7.054   3.014   3.823
14557SOL    HW145510   7.009   2.933   3.850
14557SOL    HW245511   7.019   3.081   3.882
14558SOL     OW45512  10.921   6.409   1.096
14558SOL    HW145513  10.829   6.386   1.088
14558SOL    HW245514  10.952   6.356   1.170
14559SOL     OW45515   6.115   6.313  11.740
14559SOL    HW145516   6.104   6.226  11.701
14559SOL    HW245517   6.034   6.328  11.788
14560SOL     OW45518   4.008  13.483   0.726
14560SOL    HW145519   3.953  13.477   0.648
14560SOL    HW245520   3.947  13.491   0.799
14561SOL     OW45521   3.202  11.602   8.036
14561SOL    HW145522   3.286  11.554   8.038
14561SOL    HW245523   3.137  11.536   8.059
14562SOL     OW45524  12.956   0.657  13.275
14562SOL    HW145525  13.007   0.730  13.310
14562SOL    HW245526  12.883   0.647  13.336
14563SOL     OW45527   1.375  14.704   2.650
14563SOL    HW145528   1.366  14.727   2.742
14563SOL    HW245529   1.380  14.788   2.604
14564SOL     OW45530  10.988   7.620   8.658
14564SOL    HW145531  11.045   7.576   8.721
14564SOL    HW245532  11.016   7.712   8.661
14565SOL     OW45533   0.539   3.393   3.691
14565SOL    HW145534   0.576   3.306   3.705
14565SOL    HW245535   0.522   3.397   3.597
14566SOL     OW45536   3.400   4.790  10.943
14566SOL    HW145537   3.313   4.791  10.984
14566SOL    HW245538   3.461   4.803  11.016
14567SOL     OW45539   2.372  13.851  13.761
14567SOL    HW145540   2.303  13.785  13.748
14567SOL    HW245541   2.441  13.805  13.808
14568SOL     OW45542   8.925   1.478  10.062
14568SOL    HW145543   8.881   1.532  10.127
14568SOL    HW245544   9.003   1.446  10.107
14569SOL     OW45545  11.785  11.255   1.326
14569SOL    HW145546  11.729  11.195   1.375
14569SOL    HW245547  11.874  11.233   1.354
14570SOL     OW45548   5.914  10.413  14.044
14570SOL    HW145549   5.837  10.356  14.038
14570SOL    HW245550   5.944  10.420  13.953
14571SOL     OW45551   9.705  10.259   1.320
14571SOL    HW145552   9.684  10.342   1.362
14571SOL    HW245553   9.789  10.275   1.277
14572SOL     OW45554   1.428   8.407   0.853
14572SOL    HW145555   1.488   8.449   0.914
14572SOL    HW245556   1.457   8.316   0.848
14573SOL     OW45557   8.857   9.807   6.751
14573SOL    HW145558   8.783   9.750   6.727
14573SOL    HW245559   8.879   9.782   6.840
14574SOL     OW45560  11.176  11.539   2.937
14574SOL    HW145561  11.189  11.521   2.844
14574SOL    HW245562  11.083  11.563   2.944
14575SOL     OW45563   7.558   9.609   5.893
14575SOL    HW145564   7.603   9.526   5.903
14575SOL    HW245565   7.620   9.674   5.927
14576SOL     OW45566  13.329   0.460  10.467
14576SOL    HW145567  13.273   0.463  10.389
14576SOL    HW245568  13.312   0.375  10.506
14577SOL     OW45569   6.387  12.786  12.944
14577SOL    HW145570   6.308  12.836  12.959
14577SOL    HW245571   6.458  12.842  12.974
14578SOL     OW45572  14.514  10.447   7.815
14578SOL    HW145573  14.516  10.392   7.737
14578SOL    HW245574  14.603  10.445   7.849
14579SOL     OW45575  13.327  10.242  14.161
14579SOL    HW145576  13.342  10.336  14.171
14579SOL    HW245577  13.248  10.225  14.214
14580SOL     OW45578  13.610  10.166   3.695
14580SOL    HW145579  13.622  10.196   3.605
14580SOL    HW245580  13.674  10.217   3.746
14581SOL     OW45581  11.417   9.037  14.200
14581SOL    HW145582  11.432   8.954  14.155
14581SOL    HW245583  11.430   9.103  14.132
14582SOL     OW45584   2.354  11.186   9.961
14582SOL    HW145585   2.328  11.163   9.872
14582SOL    HW245586   2.331  11.278   9.970
14583SOL     OW45587   0.504  14.131  11.170
14583SOL    HW145588   0.576  14.175  11.125
14583SOL    HW245589   0.511  14.039  11.143
14584SOL     OW45590   4.160   9.119  10.464
14584SOL    HW145591   4.076   9.166  10.461
14584SOL    HW245592   4.197   9.131  10.377
14585SOL     OW45593   2.703   0.008   2.385
14585SOL    HW145594   2.638  14.848   2.325
14585SOL    HW245595   2.752   0.071   2.332
14586SOL     OW45596   1.386   5.058   8.917
14586SOL    HW145597   1.441   5.031   8.990
14586SOL    HW245598   1.421   5.010   8.841
14587SOL     OW45599  12.494   4.909  12.202
14587SOL    HW145600  12.574   4.963  12.200
14587SOL    HW245601  12.450   4.929  12.119
14588SOL     OW45602   5.662   0.622  12.498
14588SOL    HW145603   5.632   0.532  12.498
14588SOL    HW245604   5.659   0.648  12.590
14589SOL     OW45605   2.381   6.921   1.531
14589SOL    HW145606   2.354   6.989   1.592
14589SOL    HW245607   2.437   6.967   1.468
14590SOL     OW45608   3.820  13.580  13.828
14590SOL    HW145609   3.726  13.563  13.831
14590SOL    HW245610   3.849  13.571  13.919
14591SOL     OW45611  12.168   7.404   5.353
14591SOL    HW145612  12.142   7.433   5.266
14591SOL    HW245613  12.092   7.357   5.387
14592SOL     OW45614  13.055   8.903  10.833
14592SOL    HW145615  13.056   8.837  10.764
14592SOL    HW245616  13.132   8.956  10.816
14593SOL     OW45617   1.650  11.581   6.837
14593SOL    HW145618   1.654  11.557   6.745
14593SOL    HW245619   1.720  11.645   6.849
14594SOL     OW45620   2.697  11.372   1.935
14594SOL    HW145621   2.715  11.447   1.991
14594SOL    HW245622   2.705  11.296   1.993
14595SOL     OW45623   6.873  13.809  10.025
14595SOL    HW145624   6.912  13.809  10.112
14595SOL    HW245625   6.844  13.719  10.011
14596SOL     OW45626  13.905   3.514  13.484
14596SOL    HW145627  13.854   3.432  13.489
14596SOL    HW245628  13.922   3.525  13.391
14597SOL     OW45629   5.093   7.634   1.511
14597SOL    HW145630   5.168   7.600   1.463
14597SOL    HW245631   5.019   7.580   1.481
14598SOL     OW45632  13.877  11.549   9.988
14598SOL    HW145633  13.803  11.572  10.044
14598SOL    HW245634  13.955  11.574  10.038
14599SOL     OW45635  13.464  11.175   8.357
14599SOL    HW145636  13.468  11.228   8.277
14599SOL    HW245637  13.376  11.137   8.357
14600SOL     OW45638   9.200  10.536  12.356
14600SOL    HW145639   9.237  10.458  12.314
14600SOL    HW245640   9.268  10.602  12.350
14601SOL     OW45641  10.915   7.560  11.547
14601SOL    HW145642  10.973   7.621  11.593
14601SOL    HW245643  10.863   7.519  11.616
14602SOL     OW45644  10.134  10.120   7.394
14602SOL    HW145645  10.157  10.048   7.335
14602SOL    HW245646  10.088  10.183   7.339
14603SOL     OW45647  13.304  10.658   4.584
14603SOL    HW145648  13.308  10.591   4.653
14603SOL    HW245649  13.395  10.685   4.572
14604SOL     OW45650   5.542   1.417  13.303
14604SOL    HW145651   5.556   1.397  13.396
14604SOL    HW245652   5.448   1.408  13.290
14605SOL     OW45653   0.495   5.880   8.193
14605SOL    HW145654   0.479   5.828   8.272
14605SOL    HW245655   0.574   5.843   8.155
14606SOL     OW45656  14.421  12.458   3.407
14606SOL    HW145657  14.418  12.445   3.312
14606SOL    HW245658  14.506  12.501   3.422
14607SOL     OW45659   2.715  12.706   5.435
14607SOL    HW145660   2.731  12.702   5.529
14607SOL    HW245661   2.774  12.775   5.403
14608SOL     OW45662  10.918   1.736   3.969
14608SOL    HW145663  10.861   1.661   3.988
14608SOL    HW245664  10.864   1.795   3.918
14609SOL     OW45665   2.552  12.175  14.315
14609SOL    HW145666   2.525  12.085  14.294
14609SOL    HW245667   2.478  12.210  14.365
14610SOL     OW45668   5.387   8.194   4.342
14610SOL    HW145669   5.402   8.137   4.418
14610SOL    HW245670   5.382   8.133   4.268
14611SOL     OW45671  14.662  11.624   6.985
14611SOL    HW145672  14.668  11.563   6.911
14611SOL    HW245673  14.725  11.590   7.049
14612SOL     OW45674   8.026   7.406   0.612
14612SOL    HW145675   8.048   7.427   0.703
14612SOL    HW245676   8.086   7.459   0.560
14613SOL     OW45677   4.340   5.536  12.468
14613SOL    HW145678   4.279   5.510  12.537
14613SOL    HW245679   4.315   5.626  12.447
14614SOL     OW45680   2.057   3.088   7.685
14614SOL    HW145681   1.963   3.088   7.668
14614SOL    HW245682   2.097   3.068   7.601
14615SOL     OW45683   5.573  11.627  14.063
14615SOL    HW145684   5.629  11.571  14.009
14615SOL    HW245685   5.486  11.618  14.024
14616SOL     OW45686   3.418   5.706   4.431
14616SOL    HW145687   3.497   5.720   4.485
14616SOL    HW245688   3.443   5.735   4.344
14617SOL     OW45689  13.063   4.334   6.669
14617SOL    HW145690  13.135   4.397   6.663
14617SOL    HW245691  13.004   4.359   6.598
14618SOL     OW45692   2.195  14.200   5.953
14618SOL    HW145693   2.191  14.108   5.979
14618SOL    HW245694   2.201  14.197   5.857
14619SOL     OW45695   0.028   0.803  11.929
14619SOL    HW145696   0.110   0.777  11.971
14619SOL    HW245697   0.038   0.896  11.912
14620SOL     OW45698   8.225  11.418   3.256
14620SOL    HW145699   8.287  11.449   3.189
14620SOL    HW245700   8.157  11.374   3.206
14621SOL     OW45701  14.346  10.312  10.313
14621SOL    HW145702  14.360  10.255  10.237
14621SOL    HW245703  14.319  10.253  10.383
14622SOL     OW45704   1.471   6.169  12.957
14622SOL    HW145705   1.553   6.212  12.931
14622SOL    HW245706   1.487   6.076  12.938
14623SOL     OW45707   1.934  11.521   7.571
14623SOL    HW145708   1.947  11.550   7.481
14623SOL    HW245709   1.878  11.444   7.563
14624SOL     OW45710   7.881   0.077   0.315
14624SOL    HW145711   7.845   0.153   0.361
14624SOL    HW245712   7.808   0.045   0.262
14625SOL     OW45713   3.269   2.705  13.226
14625SOL    HW145714   3.196   2.659  13.269
14625SOL    HW245715   3.238   2.720  13.137
14626SOL     OW45716   2.685   1.984   9.090
14626SOL    HW145717   2.644   1.904   9.122
14626SOL    HW245718   2.763   1.954   9.042
14627SOL     OW45719  10.974   6.189  11.216
14627SOL    HW145720  11.026   6.124  11.264
14627SOL    HW245721  11.035   6.261  11.199
14628SOL     OW45722   4.869   5.330   9.794
14628SOL    HW145723   4.888   5.398   9.858
14628SOL    HW245724   4.948   5.324   9.740
14629SOL     OW45725   9.832   3.683  13.917
14629SOL    HW145726   9.754   3.711  13.868
14629SOL    HW245727   9.870   3.613  13.864
14630SOL     OW45728   4.609  10.268   5.756
14630SOL    HW145729   4.629  10.315   5.675
14630SOL    HW245730   4.665  10.191   5.752
14631SOL     OW45731   8.606   4.682  11.733
14631SOL    HW145732   8.635   4.672  11.824
14631SOL    HW245733   8.515   4.653  11.734
14632SOL     OW45734  10.213   3.670  14.539
14632SOL    HW145735  10.277   3.628  14.482
14632SOL    HW245736  10.129   3.636  14.510
14633SOL     OW45737   4.660  10.891   7.765
14633SOL    HW145738   4.623  10.950   7.700
14633SOL    HW245739   4.587  10.835   7.791
14634SOL     OW45740  11.990  10.978  14.527
14634SOL    HW145741  12.007  10.987  14.433
14634SOL    HW245742  12.070  10.937  14.561
14635SOL     OW45743  11.049   4.438   9.032
14635SOL    HW145744  10.979   4.376   9.009
14635SOL    HW245745  11.046   4.443   9.127
14636SOL     OW45746   3.610   0.505   7.527
14636SOL    HW145747   3.642   0.461   7.448
14636SOL    HW245748   3.515   0.498   7.522
14637SOL     OW45749   8.113   0.226   5.448
14637SOL    HW145750   8.052   0.299   5.459
14637SOL    HW245751   8.154   0.242   5.363
14638SOL     OW45752   9.420   9.019   5.488
14638SOL    HW145753   9.366   8.946   5.460
14638SOL    HW245754   9.358   9.089   5.509
14639SOL     OW45755   6.326   4.956  12.491
14639SOL    HW145756   6.386   4.987  12.423
14639SOL    HW245757   6.328   4.861  12.484
14640SOL     OW45758  12.088   5.061   6.872
14640SOL    HW145759  12.037   4.980   6.876
14640SOL    HW245760  12.024   5.130   6.889
14641SOL     OW45761  14.733  12.009   0.071
14641SOL    HW145762  14.790  12.051   0.136
14641SOL    HW245763  14.794  11.974   0.006
14642SOL     OW45764   0.057  10.928   1.353
14642SOL    HW145765   0.071  10.898   1.442
14642SOL    HW245766  14.865  10.872   1.318
14643SOL     OW45767   3.493   8.250   4.027
14643SOL    HW145768   3.529   8.274   4.112
14643SOL    HW245769   3.483   8.333   3.981
14644SOL     OW45770   1.143   7.648   9.471
14644SOL    HW145771   1.102   7.666   9.387
14644SOL    HW245772   1.120   7.723   9.526
14645SOL     OW45773   0.890   4.058   5.523
14645SOL    HW145774   0.911   4.118   5.595
14645SOL    HW245775   0.800   4.080   5.498
14646SOL     OW45776   5.661   9.271   7.645
14646SOL    HW145777   5.567   9.289   7.647
14646SOL    HW245778   5.686   9.262   7.737
14647SOL     OW45779   0.287   7.016   7.853
14647SOL    HW145780   0.215   6.958   7.828
14647SOL    HW245781   0.364   6.978   7.811
14648SOL     OW45782  13.439   2.803  10.442
14648SOL    HW145783  13.348   2.775  10.431
14648SOL    HW245784  13.449   2.816  10.536
14649SOL     OW45785   6.649   0.568   0.299
14649SOL    HW145786   6.685   0.642   0.251
14649SOL    HW245787   6.559   0.560   0.268
14650SOL     OW45788   7.239   6.944   3.778
14650SOL    HW145789   7.144   6.951   3.768
14650SOL    HW245790   7.250   6.889   3.856
14651SOL     OW45791   8.307   2.103   9.671
14651SOL    HW145792   8.247   2.144   9.609
14651SOL    HW245793   8.297   2.154   9.752
14652SOL     OW45794   5.768  12.689  11.611
14652SOL    HW145795   5.857  12.657  11.603
14652SOL    HW245796   5.729  12.673  11.525
14653SOL     OW45797   4.921   2.235  10.673
14653SOL    HW145798   4.830   2.264  10.664
14653SOL    HW245799   4.954   2.282  10.749
14654SOL     OW45800   0.188   9.130   8.836
14654SOL    HW145801   0.179   9.124   8.931
14654SOL    HW245802   0.279   9.105   8.820
14655SOL     OW45803   8.727   5.285  12.150
14655SOL    HW145804   8.634   5.294  12.127
14655SOL    HW245805   8.732   5.201  12.196
14656SOL     OW45806   2.350   5.992   6.174
14656SOL    HW145807   2.267   5.950   6.195
14656SOL    HW245808   2.415   5.942   6.223
14657SOL     OW45809   7.169  14.122   5.153
14657SOL    HW145810   7.260  14.093   5.156
14657SOL    HW245811   7.160  14.181   5.227
14658SOL     OW45812   6.471  12.378   4.344
14658SOL    HW145813   6.523  12.407   4.269
14658SOL    HW245814   6.424  12.301   4.312
14659SOL     OW45815   5.005  10.432   3.075
14659SOL    HW145816   5.066  10.399   3.140
14659SOL    HW245817   5.052  10.504   3.032
14660SOL     OW45818   0.782  11.372   3.169
14660SOL    HW145819   0.859  11.343   3.119
14660SOL    HW245820   0.770  11.464   3.145
14661SOL     OW45821   2.123   0.493   1.524
14661SOL    HW145822   2.201   0.505   1.578
14661SOL    HW245823   2.074   0.424   1.568
14662SOL     OW45824  12.749   2.976   2.390
14662SOL    HW145825  12.721   2.900   2.442
14662SOL    HW245826  12.670   3.029   2.381
14663SOL     OW45827  13.365   9.117   0.128
14663SOL    HW145828  13.415   9.138   0.049
14663SOL    HW245829  13.273   9.119   0.101
14664SOL     OW45830  13.194  13.935   2.031
14664SOL    HW145831  13.252  13.990   1.976
14664SOL    HW245832  13.225  13.846   2.016
14665SOL     OW45833   0.782   5.460   4.469
14665SOL    HW145834   0.814   5.433   4.383
14665SOL    HW245835   0.722   5.391   4.495
14666SOL     OW45836   4.064  10.467   9.779
14666SOL    HW145837   4.069  10.516   9.861
14666SOL    HW245838   4.059  10.375   9.807
14667SOL     OW45839   6.619   5.971   6.548
14667SOL    HW145840   6.538   5.963   6.498
14667SOL    HW245841   6.675   5.900   6.514
14668SOL     OW45842   0.290  10.218   2.828
14668SOL    HW145843   0.383  10.198   2.827
14668SOL    HW245844   0.253  10.162   2.896
14669SOL     OW45845  12.124   9.453   4.766
14669SOL    HW145846  12.038   9.427   4.732
14669SOL    HW245847  12.167   9.371   4.788
14670SOL     OW45848   2.666  10.633   4.999
14670SOL    HW145849   2.690  10.723   5.020
14670SOL    HW245850   2.746  10.595   4.962
14671SOL     OW45851   1.621   1.483   4.499
14671SOL    HW145852   1.623   1.455   4.407
14671SOL    HW245853   1.544   1.540   4.505
14672SOL     OW45854   8.988  10.245   4.432
14672SOL    HW145855   8.934  10.319   4.460
14672SOL    HW245856   9.063  10.285   4.388
14673SOL     OW45857   7.425   7.878   8.351
14673SOL    HW145858   7.495   7.943   8.346
14673SOL    HW245859   7.369   7.907   8.423
14674SOL     OW45860  12.272   1.697  13.491
14674SOL    HW145861  12.283   1.777  13.439
14674SOL    HW245862  12.238   1.728  13.575
14675SOL     OW45863   6.280   1.060   3.314
14675SOL    HW145864   6.273   0.997   3.386
14675SOL    HW245865   6.322   1.137   3.354
14676SOL     OW45866  10.601   0.832   5.761
14676SOL    HW145867  10.524   0.852   5.814
14676SOL    HW245868  10.568   0.775   5.691
14677SOL     OW45869   6.437  14.515  13.533
14677SOL    HW145870   6.433  14.420  13.542
14677SOL    HW245871   6.436  14.530  13.439
14678SOL     OW45872  11.410   5.297   1.945
14678SOL    HW145873  11.447   5.352   1.876
14678SOL    HW245874  11.439   5.208   1.923
14679SOL     OW45875   3.559  11.569  11.593
14679SOL    HW145876   3.526  11.546  11.506
14679SOL    HW245877   3.628  11.505  11.611
14680SOL     OW45878  13.293   0.401  12.521
14680SOL    HW145879  13.306   0.345  12.598
14680SOL    HW245880  13.309   0.490  12.553
14681SOL     OW45881   8.595   4.266   3.956
14681SOL    HW145882   8.519   4.249   3.900
14681SOL    HW245883   8.575   4.223   4.039
14682SOL     OW45884   4.639  12.456   8.081
14682SOL    HW145885   4.680  12.411   8.155
14682SOL    HW245886   4.598  12.534   8.119
14683SOL     OW45887   1.559   4.210   9.695
14683SOL    HW145888   1.592   4.160   9.620
14683SOL    HW245889   1.635   4.219   9.753
14684SOL     OW45890   3.326   3.342  14.741
14684SOL    HW145891   3.279   3.261  14.760
14684SOL    HW245892   3.259   3.410  14.743
14685SOL     OW45893   6.581   8.359   8.813
14685SOL    HW145894   6.673   8.333   8.815
14685SOL    HW245895   6.553   8.354   8.905
14686SOL     OW45896   1.120  10.007   5.370
14686SOL    HW145897   1.036  10.040   5.339
14686SOL    HW245898   1.099   9.921   5.409
14687SOL     OW45899   9.033  11.128   3.211
14687SOL    HW145900   9.046  11.040   3.175
14687SOL    HW245901   8.991  11.177   3.140
14688SOL     OW45902   8.958   3.794  10.757
14688SOL    HW145903   8.876   3.837  10.782
14688SOL    HW245904   8.990   3.846  10.683
14689SOL     OW45905   5.562  12.972  12.392
14689SOL    HW145906   5.546  13.053  12.345
14689SOL    HW245907   5.574  12.906  12.323
14690SOL     OW45908  10.708  12.619  12.697
14690SOL    HW145909  10.748  12.545  12.650
14690SOL    HW245910  10.682  12.582  12.781
14691SOL     OW45911   8.660  10.058   3.089
14691SOL    HW145912   8.605   9.979   3.085
14691SOL    HW245913   8.722  10.047   3.018
14692SOL     OW45914  11.448   7.662   9.840
14692SOL    HW145915  11.411   7.743   9.876
14692SOL    HW245916  11.372   7.611   9.812
14693SOL     OW45917  13.995   4.231   6.916
14693SOL    HW145918  13.930   4.174   6.956
14693SOL    HW245919  14.055   4.252   6.987
14694SOL     OW45920   0.567  12.033   1.152
14694SOL    HW145921   0.644  12.022   1.209
14694SOL    HW245922   0.493  12.037   1.212
14695SOL     OW45923  10.978  11.175   9.974
14695SOL    HW145924  11.068  11.207   9.961
14695SOL    HW245925  10.989  11.093  10.021
14696SOL     OW45926   5.007   9.008   2.253
14696SOL    HW145927   4.972   8.951   2.322
14696SOL    HW245928   5.067   8.953   2.204
14697SOL     OW45929   3.267   9.013   8.792
14697SOL    HW145930   3.308   8.929   8.813
14697SOL    HW245931   3.188   9.015   8.845
14698SOL     OW45932   4.968  14.725  14.321
14698SOL    HW145933   5.006  14.646  14.283
14698SOL    HW245934   4.979  14.713  14.416
14699SOL     OW45935   8.597  11.293   1.219
14699SOL    HW145936   8.599  11.388   1.225
14699SOL    HW245937   8.522  11.266   1.272
14700SOL     OW45938   8.225   7.120  12.669
14700SOL    HW145939   8.201   7.213  12.661
14700SOL    HW245940   8.182   7.079  12.594
14701SOL     OW45941   0.152   9.787   5.388
14701SOL    HW145942   0.092   9.789   5.313
14701SOL    HW245943   0.171   9.879   5.407
14702SOL     OW45944   0.958  11.908  11.104
14702SOL    HW145945   1.016  11.979  11.130
14702SOL    HW245946   0.922  11.875  11.186
14703SOL     OW45947  12.655   2.822  11.869
14703SOL    HW145948  12.653   2.908  11.827
14703SOL    HW245949  12.645   2.760  11.796
14704SOL     OW45950  10.473   5.111   8.434
14704SOL    HW145951  10.506   5.133   8.520
14704SOL    HW245952  10.523   5.035   8.407
14705SOL     OW45953   8.433   8.483   5.283
14705SOL    HW145954   8.439   8.503   5.377
14705SOL    HW245955   8.490   8.407   5.271
14706SOL     OW45956   9.419  12.121   9.733
14706SOL    HW145957   9.416  12.196   9.792
14706SOL    HW245958   9.384  12.048   9.784
14707SOL     OW45959   6.576   3.876   8.150
14707SOL    HW145960   6.653   3.928   8.128
14707SOL    HW245961   6.502   3.931   8.127
14708SOL     OW45962   9.187  13.116   7.475
14708SOL    HW145963   9.100  13.097   7.440
14708SOL    HW245964   9.175  13.119   7.570
14709SOL     OW45965  12.030   2.653   7.248
14709SOL    HW145966  11.951   2.634   7.199
14709SOL    HW245967  12.063   2.735   7.211
14710SOL     OW45968  12.642   7.854   6.354
14710SOL    HW145969  12.719   7.865   6.409
14710SOL    HW245970  12.569   7.882   6.409
14711SOL     OW45971   8.488  11.293   7.439
14711SOL    HW145972   8.422  11.327   7.498
14711SOL    HW245973   8.449  11.215   7.401
14712SOL     OW45974  11.350  12.151   9.234
14712SOL    HW145975  11.321  12.240   9.214
14712SOL    HW245976  11.292  12.123   9.304
14713SOL     OW45977   1.015  12.428   3.868
14713SOL    HW145978   1.072  12.362   3.908
14713SOL    HW245979   0.931  12.383   3.856
14714SOL     OW45980  12.456   1.961   3.337
14714SOL    HW145981  12.546   1.975   3.367
14714SOL    HW245982  12.409   1.929   3.415
14715SOL     OW45983   2.324  10.869  11.237
14715SOL    HW145984   2.357  10.873  11.147
14715SOL    HW245985   2.229  10.875  11.227
14716SOL     OW45986   5.635   2.162   5.476
14716SOL    HW145987   5.621   2.133   5.566
14716SOL    HW245988   5.568   2.116   5.425
14717SOL     OW45989   1.205  14.149   8.965
14717SOL    HW145990   1.218  14.069   8.913
14717SOL    HW245991   1.238  14.126   9.052
14718SOL     OW45992   8.742   8.043  11.937
14718SOL    HW145993   8.762   8.136  11.949
14718SOL    HW245994   8.657   8.043  11.893
14719SOL     OW45995   0.795  11.300  12.413
14719SOL    HW145996   0.842  11.340  12.340
14719SOL    HW245997   0.820  11.352  12.489
14720SOL     OW45998   8.547   6.934   2.937
14720SOL    HW145999   8.613   6.869   2.912
14720SOL    HW246000   8.471   6.914   2.881
14721SOL     OW46001   1.652   3.451  10.367
14721SOL    HW146002   1.587   3.438  10.298
14721SOL    HW246003   1.705   3.525  10.337
14722SOL     OW46004   3.563  11.368  11.860
14722SOL    HW146005   3.563  11.289  11.805
14722SOL    HW246006   3.483  11.414  11.836
14723SOL     OW46007   8.733   0.404   6.609
14723SOL    HW146008   8.751   0.490   6.572
14723SOL    HW246009   8.797   0.395   6.681
14724SOL     OW46010   6.735  13.658   4.759
14724SOL    HW146011   6.707  13.693   4.674
14724SOL    HW246012   6.796  13.724   4.792
14725SOL     OW46013  13.030   1.851  10.124
14725SOL    HW146014  13.072   1.863  10.038
14725SOL    HW246015  12.950   1.903  10.119
14726SOL     OW46016  11.386   9.759   9.387
14726SOL    HW146017  11.353   9.787   9.302
14726SOL    HW246018  11.329   9.685   9.411
14727SOL     OW46019  14.830   2.709   0.471
14727SOL    HW146020   0.033   2.692   0.420
14727SOL    HW246021  14.858   2.698   0.562
14728SOL     OW46022  12.694   6.459  10.521
14728SOL    HW146023  12.683   6.426  10.431
14728SOL    HW246024  12.653   6.545  10.519
14729SOL     OW46025  13.364   6.380   3.500
14729SOL    HW146026  13.293   6.429   3.459
14729SOL    HW246027  13.419   6.447   3.540
14730SOL     OW46028  12.225   1.547   9.285
14730SOL    HW146029  12.172   1.470   9.266
14730SOL    HW246030  12.306   1.533   9.237
14731SOL     OW46031   9.230  13.660   9.808
14731SOL    HW146032   9.288  13.613   9.868
14731SOL    HW246033   9.142  13.631   9.833
14732SOL     OW46034  13.376   6.329   5.538
14732SOL    HW146035  13.439   6.259   5.558
14732SOL    HW246036  13.292   6.285   5.536
14733SOL     OW46037   7.505   4.695  14.411
14733SOL    HW146038   7.456   4.690  14.328
14733SOL    HW246039   7.597   4.695  14.384
14734SOL     OW46040   6.991   6.057   8.429
14734SOL    HW146041   7.034   6.088   8.510
14734SOL    HW246042   7.021   5.967   8.420
14735SOL     OW46043  13.432   9.626   6.750
14735SOL    HW146044  13.378   9.668   6.817
14735SOL    HW246045  13.482   9.560   6.797
14736SOL     OW46046   8.906  12.749  11.445
14736SOL    HW146047   8.852  12.784  11.516
14736SOL    HW246048   8.916  12.822  11.384
14737SOL     OW46049   2.800   3.643   9.504
14737SOL    HW146050   2.743   3.671   9.575
14737SOL    HW246051   2.797   3.547   9.507
14738SOL     OW46052   0.931   9.938   5.643
14738SOL    HW146053   0.946   9.921   5.737
14738SOL    HW246054   0.851   9.989   5.641
14739SOL     OW46055  13.292  12.948   6.145
14739SOL    HW146056  13.234  12.880   6.178
14739SOL    HW246057  13.333  12.909   6.068
14740SOL     OW46058   0.410   8.304  14.030
14740SOL    HW146059   0.430   8.286  13.939
14740SOL    HW246060   0.490   8.282  14.078
14741SOL     OW46061  11.743  10.969   5.920
14741SOL    HW146062  11.786  11.044   5.959
14741SOL    HW246063  11.807  10.898   5.924
14742SOL     OW46064   4.774   3.751   7.561
14742SOL    HW146065   4.793   3.720   7.650
14742SOL    HW246066   4.850   3.804   7.538
14743SOL     OW46067   6.531  11.431  11.065
14743SOL    HW146068   6.441  11.405  11.048
14743SOL    HW246069   6.538  11.519  11.027
14744SOL     OW46070   9.625   2.582  13.018
14744SOL    HW146071   9.643   2.668  12.980
14744SOL    HW246072   9.573   2.602  13.097
14745SOL     OW46073   9.804   7.701   6.967
14745SOL    HW146074   9.764   7.788   6.971
14745SOL    HW246075   9.733   7.641   6.986
14746SOL     OW46076   6.833   6.122   2.361
14746SOL    HW146077   6.822   6.216   2.368
14746SOL    HW246078   6.903   6.101   2.424
14747SOL     OW46079  14.483   4.170   3.553
14747SOL    HW146080  14.459   4.200   3.466
14747SOL    HW246081  14.495   4.250   3.604
14748SOL     OW46082   0.929   2.665  14.178
14748SOL    HW146083   0.910   2.610  14.101
14748SOL    HW246084   0.909   2.754  14.149
14749SOL     OW46085   2.380   0.492   4.134
14749SOL    HW146086   2.361   0.430   4.204
14749SOL    HW246087   2.334   0.572   4.158
14750SOL     OW46088  14.502   9.744   2.590
14750SOL    HW146089  14.544   9.827   2.616
14750SOL    HW246090  14.427   9.771   2.538
14751SOL     OW46091   6.625   7.384   8.958
14751SOL    HW146092   6.594   7.454   9.015
14751SOL    HW246093   6.704   7.352   9.001
14752SOL     OW46094  11.040   5.115  11.409
14752SOL    HW146095  10.989   5.035  11.417
14752SOL    HW246096  11.019   5.165  11.488
14753SOL     OW46097   6.540   5.737   5.024
14753SOL    HW146098   6.600   5.791   4.972
14753SOL    HW246099   6.593   5.707   5.098
14754SOL     OW46100  13.572   1.553   0.413
14754SOL    HW146101  13.646   1.541   0.352
14754SOL    HW246102  13.497   1.572   0.357
14755SOL     OW46103   4.681  13.089  12.539
14755SOL    HW146104   4.602  13.094  12.486
14755SOL    HW246105   4.674  13.164  12.599
14756SOL     OW46106   0.843   8.904   7.597
14756SOL    HW146107   0.815   8.951   7.675
14756SOL    HW246108   0.841   8.812   7.621
14757SOL     OW46109  13.762  11.417   8.639
14757SOL    HW146110  13.696  11.485   8.624
14757SOL    HW246111  13.724  11.338   8.600
14758SOL     OW46112   7.837  12.173   6.990
14758SOL    HW146113   7.827  12.150   6.898
14758SOL    HW246114   7.854  12.090   7.035
14759SOL     OW46115   7.877   0.037   6.185
14759SOL    HW146116   7.891  14.841   6.123
14759SOL    HW246117   7.795   0.016   6.229
14760SOL     OW46118  13.842   1.313   0.996
14760SOL    HW146119  13.823   1.242   1.058
14760SOL    HW246120  13.937   1.318   0.995
14761SOL     OW46121   3.682   1.833  14.609
14761SOL    HW146122   3.644   1.752  14.573
14761SOL    HW246123   3.607   1.882  14.643
14762SOL     OW46124  14.554   9.456   3.752
14762SOL    HW146125  14.502   9.492   3.823
14762SOL    HW246126  14.515   9.492   3.672
14763SOL     OW46127   0.142   6.648   6.103
14763SOL    HW146128   0.079   6.707   6.061
14763SOL    HW246129   0.173   6.592   6.033
14764SOL     OW46130   8.492   7.385   5.287
14764SOL    HW146131   8.529   7.421   5.367
14764SOL    HW246132   8.397   7.398   5.297
14765SOL     OW46133   0.937   0.404  10.216
14765SOL    HW146134   0.998   0.461  10.169
14765SOL    HW246135   0.992   0.339  10.259
14766SOL     OW46136   0.536   4.193  13.384
14766SOL    HW146137   0.626   4.199  13.355
14766SOL    HW246138   0.490   4.261  13.334
14767SOL     OW46139   6.580   5.645   6.683
14767SOL    HW146140   6.546   5.562   6.716
14767SOL    HW246141   6.673   5.629   6.667
14768SOL     OW46142  12.164   4.624  10.438
14768SOL    HW146143  12.076   4.592  10.421
14768SOL    HW246144  12.160   4.717  10.414
14769SOL     OW46145   8.708   4.276   2.446
14769SOL    HW146146   8.648   4.206   2.422
14769SOL    HW246147   8.709   4.276   2.542
14770SOL     OW46148   5.405  14.333   6.371
14770SOL    HW146149   5.312  14.312   6.375
14770SOL    HW246150   5.449  14.249   6.373
14771SOL     OW46151   2.846   2.989   5.411
14771SOL    HW146152   2.895   2.907   5.416
14771SOL    HW246153   2.800   2.994   5.495
14772SOL     OW46154   2.099   1.276   0.123
14772SOL    HW146155   2.118   1.367   0.147
14772SOL    HW246156   2.057   1.239   0.201
14773SOL     OW46157   1.280  14.275   7.612
14773SOL    HW146158   1.188  14.283   7.637
14773SOL    HW246159   1.286  14.321   7.528
14774SOL     OW46160  14.867   8.025   3.555
14774SOL    HW146161   0.037   7.954   3.601
14774SOL    HW246162   0.032   8.028   3.469
14775SOL     OW46163   8.203  12.858  13.123
14775SOL    HW146164   8.225  12.767  13.104
14775SOL    HW246165   8.112  12.855  13.150
14776SOL     OW46166   2.552   9.996  13.827
14776SOL    HW146167   2.542  10.035  13.741
14776SOL    HW246168   2.530  10.066  13.888
14777SOL     OW46169  12.539   3.086   0.991
14777SOL    HW146170  12.533   3.055   1.081
14777SOL    HW246171  12.506   3.013   0.938
14778SOL     OW46172   6.520   1.740   0.747
14778SOL    HW146173   6.543   1.828   0.719
14778SOL    HW246174   6.437   1.750   0.795
14779SOL     OW46175   7.689   6.015  13.704
14779SOL    HW146176   7.664   5.929  13.738
14779SOL    HW246177   7.780   6.026  13.731
14780SOL     OW46178   5.505  13.228   3.195
14780SOL    HW146179   5.494  13.133   3.190
14780SOL    HW246180   5.495  13.259   3.105
14781SOL     OW46181   9.318   4.021  10.975
14781SOL    HW146182   9.314   4.078  10.899
14781SOL    HW246183   9.255   3.951  10.956
14782SOL     OW46184   7.701   8.880   5.517
14782SOL    HW146185   7.617   8.907   5.480
14782SOL    HW246186   7.761   8.950   5.494
14783SOL     OW46187  10.085   8.162  11.750
14783SOL    HW146188  10.124   8.231  11.696
14783SOL    HW246189  10.118   8.179  11.838
14784SOL     OW46190   9.431  11.948  11.563
14784SOL    HW146191   9.515  11.903  11.556
14784SOL    HW246192   9.371  11.880  11.596
14785SOL     OW46193   7.444  11.721  10.700
14785SOL    HW146194   7.470  11.813  10.694
14785SOL    HW246195   7.365  11.721  10.753
14786SOL     OW46196  13.806   6.254   4.240
14786SOL    HW146197  13.871   6.302   4.290
14786SOL    HW246198  13.826   6.274   4.148
14787SOL     OW46199  13.521   8.288   3.972
14787SOL    HW146200  13.508   8.209   4.026
14787SOL    HW246201  13.432   8.314   3.947
14788SOL     OW46202  12.219  12.309   3.068
14788SOL    HW146203  12.140  12.255   3.066
14788SOL    HW246204  12.223  12.348   2.981
14789SOL     OW46205   1.035  11.510  10.183
14789SOL    HW146206   1.079  11.468  10.109
14789SOL    HW246207   1.020  11.600  10.153
14790SOL     OW46208   5.048  12.309  12.533
14790SOL    HW146209   5.053  12.348  12.446
14790SOL    HW246210   5.130  12.262  12.543
14791SOL     OW46211   6.793   7.940  14.463
14791SOL    HW146212   6.743   7.890  14.527
14791SOL    HW246213   6.885   7.927  14.489
14792SOL     OW46214   4.029  14.499  10.232
14792SOL    HW146215   3.974  14.563  10.188
14792SOL    HW246216   3.969  14.427  10.255
14793SOL     OW46217   3.120   4.952   9.836
14793SOL    HW146218   3.034   4.957   9.877
14793SOL    HW246219   3.181   4.934   9.908
14794SOL     OW46220  11.979   4.044   3.293
14794SOL    HW146221  11.925   4.120   3.272
14794SOL    HW246222  11.972   3.988   3.216
14795SOL     OW46223   7.647  13.209  10.689
14795SOL    HW146224   7.668  13.198  10.782
14795SOL    HW246225   7.679  13.296  10.667
14796SOL     OW46226  13.565   3.955   5.436
14796SOL    HW146227  13.549   3.861   5.435
14796SOL    HW246228  13.660   3.963   5.448
14797SOL     OW46229   5.723   0.711   1.775
14797SOL    HW146230   5.784   0.671   1.714
14797SOL    HW246231   5.730   0.659   1.855
14798SOL     OW46232  12.764   7.146  11.607
14798SOL    HW146233  12.742   7.060  11.644
14798SOL    HW246234  12.761   7.206  11.682
14799SOL     OW46235  13.137  13.440   4.419
14799SOL    HW146236  13.203  13.390   4.371
14799SOL    HW246237  13.187  13.486   4.486
14800SOL     OW46238  11.934  11.166   3.223
14800SOL    HW146239  11.888  11.231   3.171
14800SOL    HW246240  11.915  11.083   3.179
14801SOL     OW46241   5.869  13.493   3.746
14801SOL    HW146242   5.775  13.478   3.761
14801SOL    HW246243   5.902  13.522   3.831
14802SOL     OW46244   6.274  11.733  14.100
14802SOL    HW146245   6.251  11.796  14.168
14802SOL    HW246246   6.297  11.654  14.147
14803SOL     OW46247   6.242  11.941   9.873
14803SOL    HW146248   6.197  11.975   9.950
14803SOL    HW246249   6.316  12.001   9.860
14804SOL     OW46250   8.853  10.395   8.231
14804SOL    HW146251   8.835  10.363   8.142
14804SOL    HW246252   8.768  10.423   8.264
14805SOL     OW46253   6.207   6.449   0.673
14805SOL    HW146254   6.191   6.355   0.665
14805SOL    HW246255   6.203   6.467   0.767
14806SOL     OW46256  10.624  13.586   9.341
14806SOL    HW146257  10.640  13.522   9.273
14806SOL    HW246258  10.530  13.602   9.337
14807SOL     OW46259  12.004   3.984   2.996
14807SOL    HW146260  11.954   4.066   3.004
14807SOL    HW246261  12.094   4.009   3.017
14808SOL     OW46262  12.179   4.359   6.429
14808SOL    HW146263  12.273   4.357   6.448
14808SOL    HW246264  12.144   4.281   6.473
14809SOL     OW46265   0.183  13.227   8.231
14809SOL    HW146266   0.144  13.306   8.194
14809SOL    HW246267   0.108  13.175   8.261
14810SOL     OW46268   9.392   6.849  11.628
14810SOL    HW146269   9.301   6.879  11.627
14810SOL    HW246270   9.387   6.756  11.649
14811SOL     OW46271   5.051   5.189   6.149
14811SOL    HW146272   5.054   5.116   6.210
14811SOL    HW246273   4.958   5.205   6.135
14812SOL     OW46274   8.248   5.714   6.307
14812SOL    HW146275   8.253   5.801   6.266
14812SOL    HW246276   8.184   5.666   6.254
14813SOL     OW46277   7.588   9.077   6.024
14813SOL    HW146278   7.553   9.138   5.959
14813SOL    HW246279   7.662   9.035   5.981
14814SOL     OW46280  14.146  11.957  12.514
14814SOL    HW146281  14.237  11.952  12.542
14814SOL    HW246282  14.113  11.868  12.524
14815SOL     OW46283   9.548  12.753  13.404
14815SOL    HW146284   9.515  12.759  13.494
14815SOL    HW246285   9.479  12.791  13.350
14816SOL     OW46286   6.706   9.165   5.825
14816SOL    HW146287   6.754   9.185   5.745
14816SOL    HW246288   6.769   9.119   5.880
14817SOL     OW46289   4.085   8.570   5.403
14817SOL    HW146290   4.099   8.649   5.455
14817SOL    HW246291   4.033   8.599   5.328
14818SOL     OW46292   4.227   8.532   0.624
14818SOL    HW146293   4.198   8.547   0.534
14818SOL    HW246294   4.255   8.618   0.654
14819SOL     OW46295   2.948   7.343  10.005
14819SOL    HW146296   2.898   7.381   9.933
14819SOL    HW246297   2.915   7.253  10.012
14820SOL     OW46298   7.363  14.419   3.400
14820SOL    HW146299   7.422  14.474   3.349
14820SOL    HW246300   7.355  14.338   3.350
14821SOL     OW46301   4.058   5.722   8.063
14821SOL    HW146302   4.106   5.685   7.989
14821SOL    HW246303   4.014   5.647   8.103
14822SOL     OW46304  11.838  13.014  11.859
14822SOL    HW146305  11.825  12.932  11.811
14822SOL    HW246306  11.870  13.076  11.794
14823SOL     OW46307  14.100   6.377  12.616
14823SOL    HW146308  14.005   6.373  12.619
14823SOL    HW246309  14.129   6.295  12.657
14824SOL     OW46310   8.943  14.585   0.628
14824SOL    HW146311   8.859  14.624   0.606
14824SOL    HW246312   8.937  14.495   0.598
14825SOL     OW46313  11.159   3.135   5.806
14825SOL    HW146314  11.147   3.169   5.717
14825SOL    HW246315  11.207   3.053   5.794
14826SOL     OW46316   9.873  11.025  12.975
14826SOL    HW146317   9.887  10.969  13.052
14826SOL    HW246318   9.779  11.016  12.956
14827SOL     OW46319  10.680   8.419  10.592
14827SOL    HW146320  10.663   8.430  10.498
14827SOL    HW246321  10.642   8.334  10.613
14828SOL     OW46322   4.004  11.319  11.039
14828SOL    HW146323   3.964  11.258  10.976
14828SOL    HW246324   4.058  11.377  10.985
14829SOL     OW46325   6.513   9.703   4.064
14829SOL    HW146326   6.445   9.713   3.998
14829SOL    HW246327   6.503   9.614   4.096
14830SOL     OW46328   0.831  12.425   9.276
14830SOL    HW146329   0.761  12.391   9.219
14830SOL    HW246330   0.787  12.491   9.330
14831SOL     OW46331   1.109  10.463  12.537
14831SOL    HW146332   1.088  10.543  12.585
14831SOL    HW246333   1.102  10.487  12.445
14832SOL     OW46334   8.655   0.277   1.415
14832SOL    HW146335   8.580   0.264   1.357
14832SOL    HW246336   8.710   0.200   1.402
14833SOL     OW46337   6.035   6.998   2.957
14833SOL    HW146338   6.075   6.985   3.043
14833SOL    HW246339   6.100   6.966   2.895
14834SOL     OW46340   9.224   8.376  11.594
14834SOL    HW146341   9.314   8.346  11.581
14834SOL    HW246342   9.171   8.311  11.548
14835SOL     OW46343  10.692   9.733  12.431
14835SOL    HW146344  10.597   9.739  12.434
14835SOL    HW246345  10.710   9.647  12.393
14836SOL     OW46346   1.832   0.723  14.611
14836SOL    HW146347   1.807   0.667  14.538
14836SOL    HW246348   1.775   0.800  14.603
14837SOL     OW46349   5.070   3.578   0.412
14837SOL    HW146350   5.038   3.646   0.471
14837SOL    HW246351   5.029   3.598   0.328
14838SOL     OW46352  11.096   9.666   2.245
14838SOL    HW146353  11.150   9.735   2.283
14838SOL    HW246354  11.159   9.604   2.208
14839SOL     OW46355  12.491  12.357   3.492
14839SOL    HW146356  12.486  12.439   3.541
14839SOL    HW246357  12.424  12.366   3.424
14840SOL     OW46358  14.540   7.750  12.685
14840SOL    HW146359  14.561   7.692  12.612
14840SOL    HW246360  14.620   7.750  12.738
14841SOL     OW46361  11.992   0.732  14.625
14841SOL    HW146362  11.957   0.790  14.692
14841SOL    HW246363  11.916   0.682  14.595
14842SOL     OW46364  12.392   0.529   1.730
14842SOL    HW146365  12.298   0.507   1.732
14842SOL    HW246366  12.396   0.615   1.771
14843SOL     OW46367   3.362  12.891   6.166
14843SOL    HW146368   3.315  12.968   6.135
14843SOL    HW246369   3.428  12.874   6.099
14844SOL     OW46370   4.270  12.052   4.701
14844SOL    HW146371   4.240  11.984   4.761
14844SOL    HW246372   4.315  12.116   4.757
14845SOL     OW46373   2.653   6.779   7.980
14845SOL    HW146374   2.621   6.832   7.906
14845SOL    HW246375   2.577   6.726   8.005
14846SOL     OW46376   8.769  10.004   4.652
14846SOL    HW146377   8.679   9.993   4.682
14846SOL    HW246378   8.801  10.080   4.699
14847SOL     OW46379   8.445  10.238   2.556
14847SOL    HW146380   8.398  10.291   2.620
14847SOL    HW246381   8.529  10.220   2.597
14848SOL     OW46382   9.630   8.197  11.285
14848SOL    HW146383   9.712   8.148  11.275
14848SOL    HW246384   9.650   8.264  11.351
14849SOL     OW46385   7.632   4.044  11.166
14849SOL    HW146386   7.562   4.108  11.155
14849SOL    HW246387   7.665   4.059  11.255
14850SOL     OW46388   0.896  14.302  12.680
14850SOL    HW146389   0.803  14.304  12.703
14850SOL    HW246390   0.924  14.214  12.706
14851SOL     OW46391   6.792   4.751  14.632
14851SOL    HW146392   6.702   4.784  14.630
14851SOL    HW246393   6.829   4.789  14.712
14852SOL     OW46394  10.487  11.236   7.792
14852SOL    HW146395  10.516  11.232   7.700
14852SOL    HW246396  10.399  11.200   7.791
14853SOL     OW46397   2.749  12.145   5.517
14853SOL    HW146398   2.776  12.057   5.491
14853SOL    HW246399   2.658  12.135   5.543
14854SOL     OW46400  13.893  13.268  11.755
14854SOL    HW146401  13.830  13.197  11.767
14854SOL    HW246402  13.978  13.224  11.755
14855SOL     OW46403  12.074   4.799  14.005
14855SOL    HW146404  12.127   4.867  14.046
14855SOL    HW246405  12.009   4.848  13.954
14856SOL     OW46406   9.004   4.639  14.794
14856SOL    HW146407   9.062   4.675  14.727
14856SOL    HW246408   8.951   4.713  14.823
14857SOL     OW46409   1.412  12.170   9.856
14857SOL    HW146410   1.319  12.165   9.834
14857SOL    HW246411   1.450  12.227   9.790
14858SOL     OW46412  13.517   3.117   0.256
14858SOL    HW146413  13.501   3.207   0.228
14858SOL    HW246414  13.455   3.103   0.327
14859SOL     OW46415  11.260   4.135   9.064
14859SOL    HW146416  11.235   4.192   9.136
14859SOL    HW246417  11.277   4.195   8.991
14860SOL     OW46418   8.087  14.652   3.609
14860SOL    HW146419   8.120  14.731   3.567
14860SOL    HW246420   8.138  14.581   3.572
14861SOL     OW46421   6.898   4.899  13.357
14861SOL    HW146422   6.947   4.834  13.306
14861SOL    HW246423   6.862   4.958  13.292
14862SOL     OW46424  10.332   4.063   3.939
14862SOL    HW146425  10.286   4.144   3.916
14862SOL    HW246426  10.297   3.997   3.879
14863SOL     OW46427  14.510   1.079   9.636
14863SOL    HW146428  14.602   1.090   9.611
14863SOL    HW246429  14.470   1.163   9.617
14864SOL     OW46430   1.401   8.878  12.618
14864SOL    HW146431   1.375   8.916  12.534
14864SOL    HW246432   1.496   8.890  12.621
14865SOL     OW46433   1.974   7.176  12.747
14865SOL    HW146434   2.057   7.173  12.698
14865SOL    HW246435   1.986   7.116  12.820
14866SOL     OW46436   6.069   8.199   7.089
14866SOL    HW146437   6.007   8.265   7.117
14866SOL    HW246438   6.019   8.117   7.086
14867SOL     OW46439   4.658   9.630   1.061
14867SOL    HW146440   4.678   9.705   1.005
14867SOL    HW246441   4.720   9.562   1.034
14868SOL     OW46442   1.070   8.336   0.962
14868SOL    HW146443   0.986   8.309   0.997
14868SOL    HW246444   1.125   8.349   1.039
14869SOL     OW46445  10.996   2.778   0.462
14869SOL    HW146446  10.918   2.833   0.469
14869SOL    HW246447  10.992   2.721   0.539
14870SOL     OW46448   4.767   9.363   0.698
14870SOL    HW146449   4.753   9.321   0.613
14870SOL    HW246450   4.695   9.330   0.752
14871SOL     OW46451  10.919   9.064   9.782
14871SOL    HW146452  11.010   9.081   9.758
14871SOL    HW246453  10.872   9.061   9.699
14872SOL     OW46454  12.582   3.637  14.206
14872SOL    HW146455  12.604   3.583  14.130
14872SOL    HW246456  12.580   3.576  14.279
14873SOL     OW46457  12.432   8.721  13.773
14873SOL    HW146458  12.472   8.635  13.790
14873SOL    HW246459  12.500   8.770  13.726
14874SOL     OW46460   8.475   5.407   3.762
14874SOL    HW146461   8.551   5.380   3.812
14874SOL    HW246462   8.477   5.351   3.684
14875SOL     OW46463  10.166   5.711   9.944
14875SOL    HW146464  10.130   5.780   9.888
14875SOL    HW246465  10.197   5.644   9.883
14876SOL     OW46466   8.967  11.778   3.350
14876SOL    HW146467   9.040  11.717   3.353
14876SOL    HW246468   8.904  11.738   3.289
14877SOL     OW46469  12.049   8.383  11.830
14877SOL    HW146470  12.121   8.437  11.864
14877SOL    HW246471  11.974   8.405  11.885
14878SOL     OW46472  13.809   2.524  10.905
14878SOL    HW146473  13.842   2.477  10.828
14878SOL    HW246474  13.826   2.465  10.978
14879SOL     OW46475   6.501   1.663   1.712
14879SOL    HW146476   6.447   1.617   1.776
14879SOL    HW246477   6.518   1.749   1.752
14880SOL     OW46478   1.943   7.022  10.904
14880SOL    HW146479   1.862   6.972  10.904
14880SOL    HW246480   1.916   7.111  10.927
14881SOL     OW46481   4.806  13.936   2.193
14881SOL    HW146482   4.734  13.997   2.175
14881SOL    HW246483   4.826  13.950   2.286
14882SOL     OW46484  14.495  13.418   2.097
14882SOL    HW146485  14.485  13.501   2.143
14882SOL    HW246486  14.416  13.412   2.042
14883SOL     OW46487  12.872   3.049   9.470
14883SOL    HW146488  12.800   3.052   9.408
14883SOL    HW246489  12.830   3.058   9.556
14884SOL     OW46490   2.144   9.202  10.492
14884SOL    HW146491   2.192   9.277  10.525
14884SOL    HW246492   2.107   9.231  10.409
14885SOL     OW46493   1.516   4.777  13.407
14885SOL    HW146494   1.585   4.729  13.453
14885SOL    HW246495   1.439   4.769  13.463
14886SOL     OW46496   0.743   6.767  12.094
14886SOL    HW146497   0.698   6.743  12.175
14886SOL    HW246498   0.746   6.687  12.043
14887SOL     OW46499   7.089   4.511   1.547
14887SOL    HW146500   7.141   4.575   1.498
14887SOL    HW246501   7.041   4.463   1.480
14888SOL     OW46502   4.949   7.709   2.061
14888SOL    HW146503   4.948   7.623   2.101
14888SOL    HW246504   4.937   7.692   1.967
14889SOL     OW46505   5.827   9.443   3.955
14889SOL    HW146506   5.843   9.419   4.047
14889SOL    HW246507   5.793   9.363   3.915
14890SOL     OW46508   5.013   5.528   2.500
14890SOL    HW146509   5.090   5.578   2.527
14890SOL    HW246510   5.045   5.439   2.487
14891SOL     OW46511   5.079   7.201  14.688
14891SOL    HW146512   5.153   7.233  14.740
14891SOL    HW246513   5.117   7.135  14.630
14892SOL     OW46514   7.667  13.904  10.856
14892SOL    HW146515   7.724  13.979  10.872
14892SOL    HW246516   7.615  13.896  10.937
14893SOL     OW46517  10.465  13.651   0.496
14893SOL    HW146518  10.414  13.628   0.574
14893SOL    HW246519  10.442  13.743   0.478
14894SOL     OW46520   2.848  12.806  13.672
14894SOL    HW146521   2.894  12.797  13.589
14894SOL    HW246522   2.756  12.790  13.651
14895SOL     OW46523   5.307  10.959  10.362
14895SOL    HW146524   5.229  10.923  10.406
14895SOL    HW246525   5.370  10.972  10.433
14896SOL     OW46526  12.224   0.513   8.096
14896SOL    HW146527  12.260   0.464   8.169
14896SOL    HW246528  12.162   0.574   8.136
14897SOL     OW46529   4.631  13.843   2.474
14897SOL    HW146530   4.626  13.762   2.424
14897SOL    HW246531   4.540  13.868   2.489
14898SOL     OW46532   7.066  12.216  10.431
14898SOL    HW146533   7.066  12.213  10.527
14898SOL    HW246534   7.017  12.295  10.409
14899SOL     OW46535   4.339   5.947   8.912
14899SOL    HW146536   4.271   6.010   8.936
14899SOL    HW246537   4.351   5.894   8.991
14900SOL     OW46538  13.783   6.665  12.100
14900SOL    HW146539  13.697   6.702  12.121
14900SOL    HW246540  13.773   6.571  12.112
14901SOL     OW46541  13.953  12.643   9.337
14901SOL    HW146542  13.975  12.728   9.300
14901SOL    HW246543  13.918  12.592   9.263
14902SOL     OW46544   0.425   0.538   8.577
14902SOL    HW146545   0.352   0.485   8.546
14902SOL    HW246546   0.503   0.494   8.543
14903SOL     OW46547   1.977   3.573   0.036
14903SOL    HW146548   2.031   3.529  14.847
14903SOL    HW246549   1.899   3.601  14.864
14904SOL     OW46550   0.985   8.488   8.910
14904SOL    HW146551   0.953   8.573   8.939
14904SOL    HW246552   1.012   8.444   8.991
14905SOL     OW46553  10.910   9.572   8.815
14905SOL    HW146554  10.845   9.514   8.856
14905SOL    HW246555  10.993   9.528   8.827
14906SOL     OW46556   9.402   8.568  10.243
14906SOL    HW146557   9.438   8.585  10.155
14906SOL    HW246558   9.445   8.632  10.299
14907SOL     OW46559  13.438  11.647  11.967
14907SOL    HW146560  13.345  11.669  11.959
14907SOL    HW246561  13.438  11.556  11.996
14908SOL     OW46562   7.528  13.393  14.758
14908SOL    HW146563   7.475  13.339  14.700
14908SOL    HW246564   7.547  13.471  14.705
14909SOL     OW46565  10.905  12.980   7.111
14909SOL    HW146566  10.897  12.898   7.161
14909SOL    HW246567  10.931  13.045   7.176
14910SOL     OW46568   3.972   8.782  12.816
14910SOL    HW146569   4.039   8.838  12.778
14910SOL    HW246570   3.916   8.842  12.866
14911SOL     OW46571   0.907  13.074  10.005
14911SOL    HW146572   0.880  13.066  10.097
14911SOL    HW246573   0.889  13.166   9.984
14912SOL     OW46574   5.612   2.703   5.658
14912SOL    HW146575   5.683   2.660   5.705
14912SOL    HW246576   5.609   2.659   5.572
14913SOL     OW46577   8.744   0.563   9.965
14913SOL    HW146578   8.762   0.561   9.871
14913SOL    HW246579   8.713   0.475   9.986
14914SOL     OW46580  13.618   1.937   9.531
14914SOL    HW146581  13.652   2.008   9.477
14914SOL    HW246582  13.524   1.951   9.533
14915SOL     OW46583  11.000   2.013   5.727
14915SOL    HW146584  11.002   1.945   5.794
14915SOL    HW246585  10.984   2.094   5.776
14916SOL     OW46586   9.263  12.050  10.204
14916SOL    HW146587   9.289  12.129  10.251
14916SOL    HW246588   9.179  12.073  10.165
14917SOL     OW46589   9.073   5.620  11.770
14917SOL    HW146590   9.116   5.615  11.684
14917SOL    HW246591   9.128   5.566  11.827
14918SOL     OW46592   2.094  11.667   8.474
14918SOL    HW146593   2.127  11.748   8.434
14918SOL    HW246594   2.040  11.698   8.548
14919SOL     OW46595   0.578   1.487   5.647
14919SOL    HW146596   0.574   1.542   5.725
14919SOL    HW246597   0.566   1.398   5.680
14920SOL     OW46598  11.125   6.890   9.265
14920SOL    HW146599  11.202   6.849   9.227
14920SOL    HW246600  11.123   6.858   9.355
14921SOL     OW46601   8.542   7.840  13.077
14921SOL    HW146602   8.574   7.930  13.080
14921SOL    HW246603   8.621   7.786  13.084
14922SOL     OW46604   5.236  12.932   4.869
14922SOL    HW146605   5.167  12.990   4.901
14922SOL    HW246606   5.295  12.921   4.944
14923SOL     OW46607   4.727   9.669   4.610
14923SOL    HW146608   4.733   9.580   4.645
14923SOL    HW246609   4.710   9.657   4.517
14924SOL     OW46610   0.917   7.686   6.226
14924SOL    HW146611   0.992   7.657   6.277
14924SOL    HW246612   0.953   7.704   6.139
14925SOL     OW46613   3.102   3.523   3.355
14925SOL    HW146614   3.103   3.432   3.325
14925SOL    HW246615   3.129   3.574   3.278
14926SOL     OW46616   7.599   3.658  14.833
14926SOL    HW146617   7.504   3.647  14.842
14926SOL    HW246618   7.624   3.713   0.030
14927SOL     OW46619   0.909   9.516  12.082
14927SOL    HW146620   0.936   9.446  12.023
14927SOL    HW246621   0.983   9.526  12.142
14928SOL     OW46622   1.484   6.853  12.309
14928SOL    HW146623   1.397   6.817  12.293
14928SOL    HW246624   1.541   6.776  12.314
14929SOL     OW46625   0.803   2.556  10.544
14929SOL    HW146626   0.896   2.564  10.564
14929SOL    HW246627   0.785   2.629  10.485
14930SOL     OW46628   7.516   3.093  14.076
14930SOL    HW146629   7.532   3.172  14.128
14930SOL    HW246630   7.597   3.043  14.082
14931SOL     OW46631   8.039   3.115   9.862
14931SOL    HW146632   8.020   3.058   9.937
14931SOL    HW246633   7.979   3.188   9.872
14932SOL     OW46634   1.289  12.912   7.214
14932SOL    HW146635   1.331  12.843   7.266
14932SOL    HW246636   1.286  12.988   7.271
14933SOL     OW46637  11.965   0.720   3.600
14933SOL    HW146638  12.043   0.772   3.580
14933SOL    HW246639  11.923   0.766   3.673
14934SOL     OW46640   8.858   6.343  14.540
14934SOL    HW146641   8.880   6.263  14.492
14934SOL    HW246642   8.914   6.411  14.501
14935SOL     OW46643   0.900   6.988   8.529
14935SOL    HW146644   0.919   6.900   8.495
14935SOL    HW246645   0.891   6.975   8.624
14936SOL     OW46646   2.313  14.820   3.394
14936SOL    HW146647   2.340   0.032   3.370
14936SOL    HW246648   2.251  14.832   3.467
14937SOL     OW46649   1.173   2.115   5.918
14937SOL    HW146650   1.193   2.142   6.008
14937SOL    HW246651   1.231   2.167   5.863
14938SOL     OW46652   6.615  14.127   5.755
14938SOL    HW146653   6.649  14.213   5.729
14938SOL    HW246654   6.672  14.064   5.711
14939SOL     OW46655   5.317  10.417  10.740
14939SOL    HW146656   5.275  10.460  10.665
14939SOL    HW246657   5.345  10.332  10.705
14940SOL     OW46658   7.104   9.814   7.463
14940SOL    HW146659   7.115   9.803   7.558
14940SOL    HW246660   7.163   9.886   7.441
14941SOL     OW46661  14.852  13.984  12.158
14941SOL    HW146662   0.038  14.039  12.111
14941SOL    HW246663  14.780  14.042  12.182
14942SOL     OW46664   1.774   4.591  10.019
14942SOL    HW146665   1.716   4.648  10.070
14942SOL    HW246666   1.722   4.567   9.942
14943SOL     OW46667   1.269  10.337   1.824
14943SOL    HW146668   1.264  10.428   1.792
14943SOL    HW246669   1.239  10.341   1.914
14944SOL     OW46670   0.777   0.071   4.544
14944SOL    HW146671   0.770   0.165   4.558
14944SOL    HW246672   0.787   0.034   4.631
14945SOL     OW46673  11.940   7.330   9.319
14945SOL    HW146674  11.987   7.265   9.267
14945SOL    HW246675  12.004   7.399   9.335
14946SOL     OW46676   6.841   0.804   1.283
14946SOL    HW146677   6.845   0.734   1.219
14946SOL    HW246678   6.893   0.875   1.245
14947SOL     OW46679   2.086   7.338   2.903
14947SOL    HW146680   2.054   7.325   2.992
14947SOL    HW246681   2.158   7.399   2.912
14948SOL     OW46682   0.158  10.106   2.400
14948SOL    HW146683   0.236  10.059   2.429
14948SOL    HW246684   0.127  10.057   2.324
14949SOL     OW46685   3.164   3.327  10.879
14949SOL    HW146686   3.211   3.353  10.958
14949SOL    HW246687   3.181   3.233  10.870
14950SOL     OW46688   8.777   1.695   2.018
14950SOL    HW146689   8.845   1.723   2.080
14950SOL    HW246690   8.733   1.776   1.992
14951SOL     OW46691   4.658   9.422   4.672
14951SOL    HW146692   4.713   9.357   4.628
14951SOL    HW246693   4.574   9.377   4.685
14952SOL     OW46694   7.456  11.885  14.717
14952SOL    HW146695   7.475  11.937  14.795
14952SOL    HW246696   7.493  11.936  14.645
14953SOL     OW46697   2.892  13.072   5.572
14953SOL    HW146698   2.844  13.014   5.632
14953SOL    HW246699   2.926  13.141   5.628
14954SOL     OW46700  14.166   4.822   1.449
14954SOL    HW146701  14.190   4.891   1.511
14954SOL    HW246702  14.119   4.868   1.380
14955SOL     OW46703  12.354   2.453  11.460
14955SOL    HW146704  12.417   2.488  11.397
14955SOL    HW246705  12.301   2.391  11.409
14956SOL     OW46706  13.767   6.017   1.930
14956SOL    HW146707  13.694   5.956   1.921
14956SOL    HW246708  13.845   5.965   1.911
14957SOL     OW46709   6.889   4.574   6.260
14957SOL    HW146710   6.896   4.657   6.308
14957SOL    HW246711   6.977   4.536   6.264
14958SOL     OW46712   2.077   6.688  11.690
14958SOL    HW146713   2.104   6.680  11.599
14958SOL    HW246714   2.106   6.606  11.730
14959SOL     OW46715   8.365  13.604   3.061
14959SOL    HW146716   8.342  13.529   3.005
14959SOL    HW246717   8.290  13.613   3.120
14960SOL     OW46718  10.499  14.695  10.128
14960SOL    HW146719  10.465  14.755  10.062
14960SOL    HW246720  10.535  14.622  10.078
14961SOL     OW46721   0.399  12.086   0.245
14961SOL    HW146722   0.347  12.061   0.321
14961SOL    HW246723   0.335  12.120   0.182
14962SOL     OW46724   4.692   7.034  13.105
14962SOL    HW146725   4.706   6.978  13.029
14962SOL    HW246726   4.644   7.110  13.071
14963SOL     OW46727  11.813   7.399  11.734
14963SOL    HW146728  11.861   7.380  11.653
14963SOL    HW246729  11.864   7.468  11.776
14964SOL     OW46730  13.186   4.555   1.883
14964SOL    HW146731  13.232   4.528   1.803
14964SOL    HW246732  13.097   4.523   1.870
14965SOL     OW46733   5.293   2.212   1.765
14965SOL    HW146734   5.344   2.177   1.693
14965SOL    HW246735   5.223   2.262   1.723
14966SOL     OW46736  12.811   5.340   9.258
14966SOL    HW146737  12.830   5.421   9.212
14966SOL    HW246738  12.772   5.368   9.341
14967SOL     OW46739  12.719   2.416   8.947
14967SOL    HW146740  12.724   2.345   8.883
14967SOL    HW246741  12.717   2.371   9.031
14968SOL     OW46742  12.269  13.341  13.680
14968SOL    HW146743  12.242  13.302  13.597
14968SOL    HW246744  12.315  13.421  13.655
14969SOL     OW46745   2.854   0.578   4.113
14969SOL    HW146746   2.824   0.546   4.199
14969SOL    HW246747   2.774   0.611   4.071
14970SOL     OW46748   5.295   2.206   0.027
14970SOL    HW146749   5.210   2.162   0.037
14970SOL    HW246750   5.357   2.134   0.010
14971SOL     OW46751  10.435   9.038   3.887
14971SOL    HW146752  10.380   8.964   3.913
14971SOL    HW246753  10.433   9.036   3.791
14972SOL     OW46754   9.386   8.287  10.397
14972SOL    HW146755   9.383   8.374  10.357
14972SOL    HW246756   9.400   8.305  10.490
14973SOL     OW46757   7.989   6.028   7.234
14973SOL    HW146758   8.056   5.960   7.243
14973SOL    HW246759   8.032   6.099   7.187
14974SOL     OW46760  11.887   3.536   6.261
14974SOL    HW146761  11.916   3.506   6.347
14974SOL    HW246762  11.893   3.459   6.205
14975SOL     OW46763   8.958   1.336   9.465
14975SOL    HW146764   9.017   1.261   9.457
14975SOL    HW246765   8.962   1.379   9.380
14976SOL     OW46766   1.432   8.040   3.194
14976SOL    HW146767   1.452   7.972   3.129
14976SOL    HW246768   1.498   8.108   3.177
14977SOL     OW46769  13.016   8.622   3.121
14977SOL    HW146770  12.982   8.711   3.133
14977SOL    HW246771  13.001   8.604   3.028
14978SOL     OW46772  10.983  11.454   8.515
14978SOL    HW146773  11.038  11.502   8.454
14978SOL    HW246774  11.000  11.362   8.497
14979SOL     OW46775  11.577   1.738   0.164
14979SOL    HW146776  11.623   1.662   0.199
14979SOL    HW246777  11.601   1.740   0.071
14980SOL     OW46778   9.943  12.093  10.084
14980SOL    HW146779   9.952  11.997  10.082
14980SOL    HW246780   9.849  12.108  10.071
14981SOL     OW46781  14.398  13.340   8.913
14981SOL    HW146782  14.442  13.288   8.846
14981SOL    HW246783  14.408  13.430   8.883
14982SOL     OW46784   8.801   4.323   6.779
14982SOL    HW146785   8.852   4.400   6.804
14982SOL    HW246786   8.710   4.350   6.787
14983SOL     OW46787   9.204   8.110   0.453
14983SOL    HW146788   9.132   8.156   0.410
14983SOL    HW246789   9.162   8.041   0.504
14984SOL     OW46790   4.214  13.051   4.238
14984SOL    HW146791   4.162  12.979   4.204
14984SOL    HW246792   4.238  13.102   4.161
14985SOL     OW46793   1.544  12.454  11.173
14985SOL    HW146794   1.555  12.360  11.161
14985SOL    HW246795   1.603  12.475  11.245
14986SOL     OW46796   3.773  13.662   2.056
14986SOL    HW146797   3.740  13.633   1.971
14986SOL    HW246798   3.695  13.690   2.104
14987SOL     OW46799   5.010   4.259   7.901
14987SOL    HW146800   5.097   4.298   7.896
14987SOL    HW246801   5.014   4.183   7.844
14988SOL     OW46802   0.741   9.319   6.375
14988SOL    HW146803   0.682   9.392   6.356
14988SOL    HW246804   0.727   9.258   6.303
14989SOL     OW46805   7.794  12.085   1.224
14989SOL    HW146806   7.738  12.053   1.294
14989SOL    HW246807   7.774  12.028   1.149
14990SOL     OW46808   3.315   5.547   3.084
14990SOL    HW146809   3.355   5.497   3.013
14990SOL    HW246810   3.221   5.534   3.073
14991SOL     OW46811   3.791   9.806   8.038
14991SOL    HW146812   3.818   9.809   8.130
14991SOL    HW246813   3.738   9.726   8.031
14992SOL     OW46814  10.375  11.069   4.352
14992SOL    HW146815  10.383  10.977   4.379
14992SOL    HW246816  10.463  11.105   4.365
14993SOL     OW46817  11.172   9.570   6.702
14993SOL    HW146818  11.124   9.501   6.748
14993SOL    HW246819  11.259   9.533   6.689
14994SOL     OW46820   5.837  10.948   9.395
14994SOL    HW146821   5.850  10.856   9.374
14994SOL    HW246822   5.850  10.953   9.490
14995SOL     OW46823  11.916  11.349   6.850
14995SOL    HW146824  11.908  11.267   6.898
14995SOL    HW246825  11.826  11.376   6.833
14996SOL     OW46826   9.691   4.875   9.192
14996SOL    HW146827   9.679   4.958   9.146
14996SOL    HW246828   9.748   4.824   9.135
14997SOL     OW46829   7.622  14.198  11.320
14997SOL    HW146830   7.584  14.224  11.235
14997SOL    HW246831   7.667  14.116  11.302
14998SOL     OW46832  12.361   8.186   1.546
14998SOL    HW146833  12.378   8.189   1.640
14998SOL    HW246834  12.280   8.235   1.534
14999SOL     OW46835  11.156   7.906   9.908
14999SOL    HW146836  11.226   7.926   9.971
14999SOL    HW246837  11.176   7.961   9.833
15000SOL     OW46838  10.764  13.001   4.689
15000SOL    HW146839  10.790  13.071   4.630
15000SOL    HW246840  10.668  12.998   4.681
15001SOL     OW46841   5.244  12.877   9.593
15001SOL    HW146842   5.235  12.787   9.625
15001SOL    HW246843   5.204  12.876   9.506
15002SOL     OW46844   2.737   1.172   6.055
15002SOL    HW146845   2.691   1.212   6.128
15002SOL    HW246846   2.735   1.238   5.986
15003SOL     OW46847  10.759  14.666   4.887
15003SOL    HW146848  10.703  14.688   4.813
15003SOL    HW246849  10.704  14.680   4.964
15004SOL     OW46850   0.923   9.230   2.522
15004SOL    HW146851   0.974   9.294   2.570
15004SOL    HW246852   0.839   9.273   2.506
15005SOL     OW46853  13.201   6.043   2.043
15005SOL    HW146854  13.267   6.091   2.094
15005SOL    HW246855  13.187   6.098   1.965
15006SOL     OW46856  11.817   4.116  10.314
15006SOL    HW146857  11.889   4.097  10.374
15006SOL    HW246858  11.846   4.193  10.265
15007SOL     OW46859   2.029   0.588   4.001
15007SOL    HW146860   2.010   0.602   3.909
15007SOL    HW246861   2.119   0.557   4.003
15008SOL     OW46862  12.344   0.434   2.681
15008SOL    HW146863  12.370   0.525   2.667
15008SOL    HW246864  12.397   0.405   2.755
15009SOL     OW46865   0.740   5.201   5.942
15009SOL    HW146866   0.730   5.292   5.970
15009SOL    HW246867   0.655   5.177   5.905
15010SOL     OW46868  11.527  10.918   0.409
15010SOL    HW146869  11.572  10.958   0.483
15010SOL    HW246870  11.458  10.980   0.386
15011SOL     OW46871   9.111   4.666   7.010
15011SOL    HW146872   9.166   4.647   7.087
15011SOL    HW246873   9.091   4.759   7.017
15012SOL     OW46874  10.400  14.317   1.453
15012SOL    HW146875  10.419  14.241   1.507
15012SOL    HW246876  10.323  14.292   1.402
15013SOL     OW46877   4.847   4.479  11.118
15013SOL    HW146878   4.900   4.554  11.091
15013SOL    HW246879   4.821   4.500  11.207
15014SOL     OW46880  14.014  14.616  13.985
15014SOL    HW146881  14.038  14.691  13.932
15014SOL    HW246882  13.976  14.554  13.923
15015SOL     OW46883   0.235  13.886  11.184
15015SOL    HW146884   0.306  13.881  11.119
15015SOL    HW246885   0.224  13.980  11.200
15016SOL     OW46886   8.792  11.342  11.374
15016SOL    HW146887   8.847  11.387  11.438
15016SOL    HW246888   8.854  11.294  11.319
15017SOL     OW46889   2.219  14.283   9.425
15017SOL    HW146890   2.214  14.376   9.449
15017SOL    HW246891   2.135  14.247   9.453
15018SOL     OW46892   0.363  11.154  14.302
15018SOL    HW146893   0.420  11.177  14.229
15018SOL    HW246894   0.406  11.190  14.379
15019SOL     OW46895  12.015   1.092   7.371
15019SOL    HW146896  11.920   1.081   7.378
15019SOL    HW246897  12.029   1.186   7.387
15020SOL     OW46898   4.642   4.848   8.208
15020SOL    HW146899   4.690   4.766   8.218
15020SOL    HW246900   4.579   4.831   8.138
15021SOL     OW46901   4.651  13.186   6.507
15021SOL    HW146902   4.668  13.097   6.536
15021SOL    HW246903   4.561  13.184   6.474
15022SOL     OW46904   4.827   3.312   8.956
15022SOL    HW146905   4.826   3.222   8.924
15022SOL    HW246906   4.736   3.331   8.978
15023SOL     OW46907   0.609  10.640   5.495
15023SOL    HW146908   0.617  10.571   5.561
15023SOL    HW246909   0.621  10.595   5.412
15024SOL     OW46910   4.671  13.823   0.925
15024SOL    HW146911   4.695  13.838   0.833
15024SOL    HW246912   4.630  13.904   0.953
15025SOL     OW46913   0.039   9.034  10.523
15025SOL    HW146914   0.039   8.997  10.435
15025SOL    HW246915  14.875   8.967  10.578
15026SOL     OW46916   0.921   8.094   9.453
15026SOL    HW146917   1.013   8.092   9.480
15026SOL    HW246918   0.884   8.169   9.498
15027SOL     OW46919   8.575   4.762   9.953
15027SOL    HW146920   8.551   4.723  10.037
15027SOL    HW246921   8.666   4.734   9.938
15028SOL     OW46922   7.566  14.157   4.515
15028SOL    HW146923   7.642  14.203   4.479
15028SOL    HW246924   7.585  14.149   4.608
15029SOL     OW46925  10.957   2.273   5.606
15029SOL    HW146926  10.950   2.186   5.567
15029SOL    HW246927  10.880   2.320   5.575
15030SOL     OW46928   6.543   2.084   4.936
15030SOL    HW146929   6.625   2.049   4.900
15030SOL    HW246930   6.496   2.006   4.968
15031SOL     OW46931   0.460   1.920   0.455
15031SOL    HW146932   0.513   1.873   0.518
15031SOL    HW246933   0.378   1.938   0.501
15032SOL     OW46934   8.120   9.275   9.914
15032SOL    HW146935   8.117   9.363   9.950
15032SOL    HW246936   8.189   9.231   9.962
15033SOL     OW46937  11.731   8.440  10.992
15033SOL    HW146938  11.661   8.388  10.952
15033SOL    HW246939  11.751   8.394  11.073
15034SOL     OW46940   7.523   9.110   2.172
15034SOL    HW146941   7.496   9.195   2.138
15034SOL    HW246942   7.541   9.126   2.265
15035SOL     OW46943  13.009   1.892  13.447
15035SOL    HW146944  12.970   1.924  13.529
15035SOL    HW246945  13.083   1.839  13.475
15036SOL     OW46946  11.779   4.691   1.104
15036SOL    HW146947  11.744   4.645   1.181
15036SOL    HW246948  11.719   4.764   1.091
15037SOL     OW46949  13.745  10.359   1.924
15037SOL    HW146950  13.654  10.337   1.944
15037SOL    HW246951  13.741  10.406   1.842
15038SOL     OW46952  14.783   7.111  14.294
15038SOL    HW146953  14.696   7.088  14.327
15038SOL    HW246954  14.774   7.202  14.264
15039SOL     OW46955  10.404  13.836  11.521
15039SOL    HW146956  10.486  13.806  11.482
15039SOL    HW246957  10.420  13.834  11.615
15040SOL     OW46958   7.410  13.081  13.498
15040SOL    HW146959   7.368  13.046  13.576
15040SOL    HW246960   7.462  13.008  13.463
15041SOL     OW46961  10.330   8.769  11.963
15041SOL    HW146962  10.247   8.732  11.933
15041SOL    HW246963  10.382   8.692  11.987
15042SOL     OW46964  12.691  13.999  12.700
15042SOL    HW146965  12.786  13.998  12.686
15042SOL    HW246966  12.664  14.085  12.667
15043SOL     OW46967  11.946   2.292   6.689
15043SOL    HW146968  11.861   2.295   6.645
15043SOL    HW246969  12.005   2.256   6.623
15044SOL     OW46970  11.686  14.091   2.748
15044SOL    HW146971  11.748  14.118   2.816
15044SOL    HW246972  11.736  14.033   2.691
15045SOL     OW46973   2.372   1.016   9.215
15045SOL    HW146974   2.379   0.942   9.275
15045SOL    HW246975   2.279   1.018   9.190
15046SOL     OW46976  12.535   9.627   8.486
15046SOL    HW146977  12.486   9.577   8.551
15046SOL    HW246978  12.484   9.620   8.406
15047SOL     OW46979   2.110   0.094   0.853
15047SOL    HW146980   2.061   0.020   0.818
15047SOL    HW246981   2.107   0.083   0.948
15048SOL     OW46982  13.722   9.998  14.873
15048SOL    HW146983  13.771   9.955  14.803
15048SOL    HW246984  13.666  10.061  14.828
15049SOL     OW46985  12.810   3.098  12.047
15049SOL    HW146986  12.828   3.042  11.971
15049SOL    HW246987  12.894   3.141  12.066
15050SOL     OW46988   3.532  11.137   9.979
15050SOL    HW146989   3.592  11.129  10.053
15050SOL    HW246990   3.559  11.067   9.918
15051SOL     OW46991   0.779   5.260   1.384
15051SOL    HW146992   0.847   5.201   1.417
15051SOL    HW246993   0.706   5.249   1.445
15052SOL     OW46994   1.052   9.305   9.027
15052SOL    HW146995   1.014   9.391   9.013
15052SOL    HW246996   1.032   9.284   9.118
15053SOL     OW46997   4.680   2.627   6.702
15053SOL    HW146998   4.629   2.621   6.621
15053SOL    HW246999   4.749   2.563   6.692
15054SOL     OW47000  13.427   8.314   0.427
15054SOL    HW147001  13.486   8.385   0.402
15054SOL    HW247002  13.376   8.349   0.499
15055SOL     OW47003   3.979  11.504   0.735
15055SOL    HW147004   3.947  11.422   0.699
15055SOL    HW247005   3.904  11.563   0.732
15056SOL     OW47006  11.788  13.907   3.827
15056SOL    HW147007  11.716  13.903   3.764
15056SOL    HW247008  11.745  13.898   3.913
15057SOL     OW47009  12.476   5.287   0.502
15057SOL    HW147010  12.411   5.255   0.440
15057SOL    HW247011  12.435   5.278   0.588
15058SOL     OW47012   9.137   8.387  14.036
15058SOL    HW147013   9.163   8.302  14.073
15058SOL    HW247014   9.216   8.420  13.994
15059SOL     OW47015   9.186   1.214   9.652
15059SOL    HW147016   9.238   1.294   9.649
15059SOL    HW247017   9.159   1.207   9.744
15060SOL     OW47018   2.061   6.036   2.719
15060SOL    HW147019   2.092   5.955   2.679
15060SOL    HW247020   2.110   6.042   2.801
15061SOL     OW47021  10.900  13.724   3.782
15061SOL    HW147022  10.914  13.804   3.731
15061SOL    HW247023  10.808  13.704   3.771
15062SOL     OW47024   0.929  10.569   9.869
15062SOL    HW147025   0.849  10.593   9.823
15062SOL    HW247026   0.999  10.581   9.805
15063SOL     OW47027   9.979  12.146   4.751
15063SOL    HW147028   9.890  12.172   4.726
15063SOL    HW247029  10.036  12.205   4.701
15064SOL     OW47030  14.009  12.295   1.191
15064SOL    HW147031  13.927  12.268   1.231
15064SOL    HW247032  14.005  12.390   1.188
15065SOL     OW47033   3.509  11.261   1.685
15065SOL    HW147034   3.446  11.323   1.647
15065SOL    HW247035   3.536  11.207   1.611
15066SOL     OW47036   4.585   0.591   1.649
15066SOL    HW147037   4.663   0.638   1.618
15066SOL    HW247038   4.552   0.546   1.571
15067SOL     OW47039   6.112   9.268   3.420
15067SOL    HW147040   6.138   9.337   3.359
15067SOL    HW247041   6.041   9.306   3.471
15068SOL     OW47042   3.118   3.284  13.694
15068SOL    HW147043   3.205   3.304  13.729
15068SOL    HW247044   3.125   3.304  13.601
15069SOL     OW47045   9.008  10.454   2.759
15069SOL    HW147046   8.914  10.446   2.773
15069SOL    HW247047   9.039  10.364   2.753
15070SOL     OW47048  10.543   7.990   0.057
15070SOL    HW147049  10.519   7.925   0.124
15070SOL    HW247050  10.604   7.943   0.001
15071SOL     OW47051   2.713   6.874  13.001
15071SOL    HW147052   2.717   6.819  13.079
15071SOL    HW247053   2.779   6.941  13.016
15072SOL     OW47054   3.772   5.706   2.831
15072SOL    HW147055   3.706   5.705   2.901
15072SOL    HW247056   3.844   5.758   2.867
15073SOL     OW47057   6.762  12.469   5.150
15073SOL    HW147058   6.763  12.399   5.085
15073SOL    HW247059   6.768  12.549   5.099
15074SOL     OW47060   1.227   2.270   3.170
15074SOL    HW147061   1.249   2.228   3.087
15074SOL    HW247062   1.148   2.320   3.152
15075SOL     OW47063   7.974   1.681  10.462
15075SOL    HW147064   7.957   1.605  10.519
15075SOL    HW247065   8.062   1.710  10.487
15076SOL     OW47066  10.115   4.541  12.498
15076SOL    HW147067  10.170   4.479  12.449
15076SOL    HW247068  10.026   4.514  12.478
15077SOL     OW47069   5.388   5.502  10.076
15077SOL    HW147070   5.328   5.449  10.128
15077SOL    HW247071   5.429   5.562  10.139
15078SOL     OW47072   8.935   7.935  13.322
15078SOL    HW147073   8.948   7.849  13.280
15078SOL    HW247074   9.024   7.967  13.338
15079SOL     OW47075   1.512   1.370  12.342
15079SOL    HW147076   1.469   1.296  12.385
15079SOL    HW247077   1.552   1.419  12.413
15080SOL     OW47078   8.155   3.034  11.313
15080SOL    HW147079   8.068   3.002  11.290
15080SOL    HW247080   8.164   3.013  11.406
15081SOL     OW47081  11.086   8.773  14.354
15081SOL    HW147082  11.049   8.817  14.277
15081SOL    HW247083  11.108   8.685  14.323
15082SOL     OW47084   9.937   4.467   8.409
15082SOL    HW147085   9.848   4.435   8.394
15082SOL    HW247086   9.926   4.555   8.444
15083SOL     OW47087  11.900   9.047  13.428
15083SOL    HW147088  11.925   8.993  13.503
15083SOL    HW247089  11.982   9.089  13.401
15084SOL     OW47090  13.125   1.072   3.191
15084SOL    HW147091  13.088   1.072   3.103
15084SOL    HW247092  13.115   1.163   3.221
15085SOL     OW47093   5.114   2.728  14.035
15085SOL    HW147094   5.026   2.700  14.060
15085SOL    HW247095   5.149   2.771  14.114
15086SOL     OW47096   8.808  12.357   8.887
15086SOL    HW147097   8.790  12.417   8.960
15086SOL    HW247098   8.824  12.415   8.812
15087SOL     OW47099   2.024  12.683   3.616
15087SOL    HW147100   2.036  12.609   3.676
15087SOL    HW247101   2.040  12.761   3.670
15088SOL     OW47102   1.364  13.121   0.194
15088SOL    HW147103   1.324  13.160   0.117
15088SOL    HW247104   1.405  13.040   0.162
15089SOL     OW47105   0.896   5.881  14.777
15089SOL    HW147106   0.844   5.832  14.841
15089SOL    HW247107   0.872   5.844  14.693
15090SOL     OW47108   7.890   6.368   8.701
15090SOL    HW147109   7.887   6.274   8.718
15090SOL    HW247110   7.805   6.388   8.663
15091SOL     OW47111   5.434  14.575  13.486
15091SOL    HW147112   5.385  14.554  13.566
15091SOL    HW247113   5.371  14.560  13.415
15092SOL     OW47114  10.955   3.782   2.139
15092SOL    HW147115  10.876   3.738   2.170
15092SOL    HW247116  11.008   3.794   2.218
15093SOL     OW47117  10.822  10.912   4.185
15093SOL    HW147118  10.895  10.973   4.172
15093SOL    HW247119  10.751  10.949   4.132
15094SOL     OW47120   4.436   6.954  11.479
15094SOL    HW147121   4.475   6.933  11.564
15094SOL    HW247122   4.404   7.044  11.489
15095SOL     OW47123  14.798   1.883   3.195
15095SOL    HW147124  14.804   1.788   3.203
15095SOL    HW247125  14.862   1.906   3.128
15096SOL     OW47126   7.902  13.729   9.144
15096SOL    HW147127   7.903  13.634   9.158
15096SOL    HW247128   7.902  13.765   9.232
15097SOL     OW47129   0.991   1.480  10.683
15097SOL    HW147130   1.071   1.432  10.703
15097SOL    HW247131   0.940   1.420  10.629
15098SOL     OW47132  11.558   1.865   0.431
15098SOL    HW147133  11.466   1.840   0.430
15098SOL    HW247134  11.591   1.837   0.346
15099SOL     OW47135   0.589  10.151  14.414
15099SOL    HW147136   0.567  10.230  14.366
15099SOL    HW247137   0.682  10.160  14.434
15100SOL     OW47138  13.785   6.870   7.972
15100SOL    HW147139  13.756   6.783   7.998
15100SOL    HW247140  13.705   6.923   7.973
15101SOL     OW47141   3.128   0.193  14.565
15101SOL    HW147142   3.070   0.150  14.502
15101SOL    HW247143   3.074   0.206  14.643
15102SOL     OW47144   7.109  12.546   5.786
15102SOL    HW147145   7.170  12.475   5.764
15102SOL    HW247146   7.039  12.503   5.835
15103SOL     OW47147   8.128   6.046   0.556
15103SOL    HW147148   8.109   5.996   0.636
15103SOL    HW247149   8.202   6.000   0.517
15104SOL     OW47150  11.976   4.686   0.311
15104SOL    HW147151  11.996   4.618   0.375
15104SOL    HW247152  11.884   4.707   0.326
15105SOL     OW47153  10.602   2.518   2.438
15105SOL    HW147154  10.552   2.486   2.513
15105SOL    HW247155  10.659   2.445   2.414
15106SOL     OW47156   0.378  13.033  11.790
15106SOL    HW147157   0.443  12.967  11.766
15106SOL    HW247158   0.427  13.097  11.841
15107SOL     OW47159   8.743   3.792   5.207
15107SOL    HW147160   8.757   3.886   5.205
15107SOL    HW247161   8.831   3.754   5.201
15108SOL     OW47162   6.693   3.084  13.472
15108SOL    HW147163   6.746   3.160  13.448
15108SOL    HW247164   6.735   3.010  13.428
15109SOL     OW47165   6.638   4.802   2.837
15109SOL    HW147166   6.610   4.711   2.839
15109SOL    HW247167   6.624   4.833   2.927
15110SOL     OW47168  14.834   7.836   4.913
15110SOL    HW147169  14.807   7.871   4.997
15110SOL    HW247170   0.047   7.804   4.927
15111SOL     OW47171   0.930   4.600  14.285
15111SOL    HW147172   1.001   4.536  14.282
15111SOL    HW247173   0.899   4.607  14.195
15112SOL     OW47174   9.404   4.791  12.025
15112SOL    HW147175   9.362   4.755  11.947
15112SOL    HW247176   9.351   4.866  12.048
15113SOL     OW47177   6.241   1.442  11.889
15113SOL    HW147178   6.308   1.434  11.957
15113SOL    HW247179   6.161   1.466  11.936
15114SOL     OW47180   0.729   2.109   2.450
15114SOL    HW147181   0.732   2.129   2.544
15114SOL    HW247182   0.716   2.194   2.408
15115SOL     OW47183   8.346  14.063   0.832
15115SOL    HW147184   8.383  14.062   0.920
15115SOL    HW247185   8.413  14.104   0.778
15116SOL     OW47186  12.045   7.686   2.657
15116SOL    HW147187  12.019   7.594   2.657
15116SOL    HW247188  12.022   7.717   2.745
15117SOL     OW47189   2.833   9.815   9.129
15117SOL    HW147190   2.749   9.781   9.161
15117SOL    HW247191   2.864   9.873   9.199
15118SOL     OW47192   7.663  10.634   0.203
15118SOL    HW147193   7.725  10.629   0.130
15118SOL    HW247194   7.601  10.563   0.186
15119SOL     OW47195   8.228   6.500   3.565
15119SOL    HW147196   8.250   6.459   3.481
15119SOL    HW247197   8.175   6.435   3.611
15120SOL     OW47198   2.177  13.665  13.749
15120SOL    HW147199   2.133  13.607  13.811
15120SOL    HW247200   2.197  13.609  13.674
15121SOL     OW47201   5.980   3.683  14.048
15121SOL    HW147202   5.888   3.705  14.062
15121SOL    HW247203   6.024   3.768  14.040
15122SOL     OW47204   2.632   4.725   0.940
15122SOL    HW147205   2.642   4.817   0.915
15122SOL    HW247206   2.539   4.706   0.927
15123SOL     OW47207   5.090   0.515   9.281
15123SOL    HW147208   5.044   0.591   9.247
15123SOL    HW247209   5.025   0.445   9.279
15124SOL     OW47210  12.755   9.287  12.284
15124SOL    HW147211  12.848   9.306  12.278
15124SOL    HW247212  12.732   9.250  12.199
15125SOL     OW47213   8.303  12.508  11.066
15125SOL    HW147214   8.227  12.490  11.122
15125SOL    HW247215   8.347  12.423  11.056
15126SOL     OW47216   9.910  14.352   5.619
15126SOL    HW147217   9.912  14.301   5.537
15126SOL    HW247218   9.877  14.290   5.684
15127SOL     OW47219   8.911   6.506   1.721
15127SOL    HW147220   8.858   6.426   1.730
15127SOL    HW247221   8.877   6.565   1.788
15128SOL     OW47222   1.929   6.352  12.029
15128SOL    HW147223   1.863   6.299  12.074
15128SOL    HW247224   1.907   6.442  12.052
15129SOL     OW47225  11.230   6.006  11.680
15129SOL    HW147226  11.150   6.013  11.732
15129SOL    HW247227  11.268   5.922  11.706
15130SOL     OW47228   4.123   8.791   0.681
15130SOL    HW147229   4.072   8.750   0.610
15130SOL    HW247230   4.134   8.882   0.652
15131SOL     OW47231  10.453  12.322   5.297
15131SOL    HW147232  10.366  12.319   5.335
15131SOL    HW247233  10.507  12.269   5.355
15132SOL     OW47234   8.288   8.082  14.571
15132SOL    HW147235   8.203   8.046  14.598
15132SOL    HW247236   8.352   8.032  14.622
15133SOL     OW47237   2.497   1.551   2.429
15133SOL    HW147238   2.581   1.596   2.426
15133SOL    HW247239   2.432   1.620   2.442
15134SOL     OW47240  11.525  11.167   1.409
15134SOL    HW147241  11.501  11.097   1.348
15134SOL    HW247242  11.547  11.121   1.491
15135SOL     OW47243  12.769  11.240   4.506
15135SOL    HW147244  12.802  11.329   4.520
15135SOL    HW247245  12.693  11.250   4.450
15136SOL     OW47246  12.813  14.240  14.512
15136SOL    HW147247  12.874  14.178  14.473
15136SOL    HW247248  12.736  14.188  14.535
15137SOL     OW47249  13.302   9.258   8.619
15137SOL    HW147250  13.257   9.336   8.587
15137SOL    HW247251  13.232   9.198   8.644
15138SOL     OW47252   1.045   7.595   2.622
15138SOL    HW147253   1.029   7.673   2.675
15138SOL    HW247254   0.967   7.541   2.635
15139SOL     OW47255   8.063  10.693   9.275
15139SOL    HW147256   8.138  10.647   9.315
15139SOL    HW247257   8.002  10.705   9.348
15140SOL     OW47258   9.373  12.807   0.294
15140SOL    HW147259   9.436  12.778   0.229
15140SOL    HW247260   9.320  12.730   0.313
15141SOL     OW47261   9.187   9.389   3.301
15141SOL    HW147262   9.114   9.330   3.283
15141SOL    HW247263   9.265   9.333   3.293
15142SOL     OW47264   2.996  13.253   6.306
15142SOL    HW147265   3.033  13.321   6.363
15142SOL    HW247266   2.996  13.174   6.361
15143SOL     OW47267  14.009  11.504   2.374
15143SOL    HW147268  13.949  11.554   2.430
15143SOL    HW247269  13.951  11.447   2.323
15144SOL     OW47270   7.273  10.415  12.440
15144SOL    HW147271   7.336  10.379  12.378
15144SOL    HW247272   7.209  10.460  12.385
15145SOL     OW47273   6.184   5.776   4.283
15145SOL    HW147274   6.117   5.837   4.254
15145SOL    HW247275   6.247   5.829   4.331
15146SOL     OW47276  10.238   7.178   7.790
15146SOL    HW147277  10.158   7.126   7.785
15146SOL    HW247278  10.303   7.128   7.740
15147SOL     OW47279  14.462  13.353   9.416
15147SOL    HW147280  14.397  13.295   9.457
15147SOL    HW247281  14.532  13.294   9.387
15148SOL     OW47282  12.708  10.035  14.539
15148SOL    HW147283  12.623   9.990  14.539
15148SOL    HW247284  12.692  10.116  14.489
15149SOL     OW47285   4.276   6.881   1.360
15149SOL    HW147286   4.287   6.940   1.435
15149SOL    HW247287   4.181   6.867   1.355
15150SOL     OW47288   3.149   3.935   3.945
15150SOL    HW147289   3.169   4.017   3.900
15150SOL    HW247290   3.202   3.937   4.025
15151SOL     OW47291   8.246  13.735  11.684
15151SOL    HW147292   8.282  13.712  11.598
15151SOL    HW247293   8.168  13.786  11.664
15152SOL     OW47294  13.361   6.331  10.050
15152SOL    HW147295  13.424   6.273  10.092
15152SOL    HW247296  13.376   6.417  10.091
15153SOL     OW47297   2.423   6.056  11.931
15153SOL    HW147298   2.417   5.962  11.915
15153SOL    HW247299   2.429   6.095  11.843
15154SOL     OW47300   0.948  14.459  10.467
15154SOL    HW147301   1.025  14.515  10.454
15154SOL    HW247302   0.881  14.496  10.409
15155SOL     OW47303  14.866   4.641  10.088
15155SOL    HW147304   0.083   4.622  10.079
15155SOL    HW247305  14.854   4.664  10.180
15156SOL     OW47306   2.730  11.408   6.503
15156SOL    HW147307   2.673  11.396   6.579
15156SOL    HW247308   2.800  11.345   6.515
15157SOL     OW47309  11.886   4.117   6.712
15157SOL    HW147310  11.904   4.200   6.756
15157SOL    HW247311  11.791   4.108   6.716
15158SOL     OW47312  12.487   3.735   7.136
15158SOL    HW147313  12.491   3.646   7.102
15158SOL    HW247314  12.523   3.729   7.225
15159SOL     OW47315  12.473   5.426   8.533
15159SOL    HW147316  12.473   5.506   8.585
15159SOL    HW247317  12.393   5.431   8.481
15160SOL     OW47318   2.968   4.982   7.290
15160SOL    HW147319   2.995   4.975   7.381
15160SOL    HW247320   3.046   4.960   7.239
15161SOL     OW47321  13.879   2.630   6.643
15161SOL    HW147322  13.879   2.535   6.636
15161SOL    HW247323  13.819   2.659   6.574
15162SOL     OW47324   7.665   7.557  11.760
15162SOL    HW147325   7.672   7.562  11.665
15162SOL    HW247326   7.738   7.610  11.792
15163SOL     OW47327  12.320  11.216   9.561
15163SOL    HW147328  12.366  11.265   9.493
15163SOL    HW247329  12.390  11.177   9.614
15164SOL     OW47330   7.152   5.029   9.854
15164SOL    HW147331   7.154   4.994   9.765
15164SOL    HW247332   7.103   4.964   9.904
15165SOL     OW47333  10.392   4.573   1.020
15165SOL    HW147334  10.431   4.661   1.020
15165SOL    HW247335  10.452   4.521   1.074
15166SOL     OW47336  11.926  14.310  13.800
15166SOL    HW147337  11.972  14.226  13.795
15166SOL    HW247338  11.847  14.297  13.748
15167SOL     OW47339  14.689   2.789  10.101
15167SOL    HW147340  14.729   2.711  10.062
15167SOL    HW247341  14.624   2.755  10.163
15168SOL     OW47342   4.218   4.730  11.259
15168SOL    HW147343   4.228   4.680  11.178
15168SOL    HW247344   4.302   4.723  11.303
15169SOL     OW47345   1.580   9.685   5.192
15169SOL    HW147346   1.639   9.746   5.235
15169SOL    HW247347   1.517   9.660   5.259
15170SOL     OW47348  13.141  12.335   1.716
15170SOL    HW147349  13.211  12.375   1.768
15170SOL    HW247350  13.084  12.293   1.780
15171SOL     OW47351  11.135   4.370   2.810
15171SOL    HW147352  11.157   4.462   2.824
15171SOL    HW247353  11.165   4.351   2.721
15172SOL     OW47354   1.687   9.700  10.842
15172SOL    HW147355   1.745   9.755  10.895
15172SOL    HW247356   1.637   9.649  10.905
15173SOL     OW47357  14.080   1.559  12.841
15173SOL    HW147358  14.116   1.585  12.926
15173SOL    HW247359  13.985   1.566  12.852
15174SOL     OW47360  12.452   3.245   8.864
15174SOL    HW147361  12.537   3.278   8.892
15174SOL    HW247362  12.402   3.234   8.945
15175SOL     OW47363   4.924   3.473  13.518
15175SOL    HW147364   4.973   3.404  13.562
15175SOL    HW247365   4.979   3.497  13.443
15176SOL     OW47366   1.920   5.413   9.065
15176SOL    HW147367   2.010   5.411   9.033
15176SOL    HW247368   1.906   5.504   9.089
15177SOL     OW47369   1.251   7.502   0.206
15177SOL    HW147370   1.163   7.524   0.176
15177SOL    HW247371   1.240   7.423   0.258
15178SOL     OW47372  11.479   8.322  10.916
15178SOL    HW147373  11.414   8.389  10.937
15178SOL    HW247374  11.428   8.246  10.890
15179SOL     OW47375   1.127   0.549  13.541
15179SOL    HW147376   1.168   0.619  13.591
15179SOL    HW247377   1.049   0.526  13.591
15180SOL     OW47378   1.979   3.355   2.186
15180SOL    HW147379   2.035   3.395   2.252
15180SOL    HW247380   1.999   3.262   2.190
15181SOL     OW47381  14.652   6.806  11.278
15181SOL    HW147382  14.712   6.738  11.309
15181SOL    HW247383  14.706   6.884  11.271
15182SOL     OW47384   1.980  10.755  14.798
15182SOL    HW147385   1.890  10.728  14.818
15182SOL    HW247386   2.034  10.709  14.862
15183SOL     OW47387  10.328  12.464  11.978
15183SOL    HW147388  10.371  12.546  11.951
15183SOL    HW247389  10.265  12.446  11.908
15184SOL     OW47390   1.656   0.871   5.640
15184SOL    HW147391   1.731   0.842   5.587
15184SOL    HW247392   1.694   0.933   5.703
15185SOL     OW47393   3.916   1.962   4.249
15185SOL    HW147394   3.833   1.960   4.297
15185SOL    HW247395   3.894   2.003   4.165
15186SOL     OW47396  11.082  14.071  14.818
15186SOL    HW147397  11.159  14.118  14.850
15186SOL    HW247398  11.096  13.980  14.845
15187SOL     OW47399   8.417   6.177   0.458
15187SOL    HW147400   8.334   6.225   0.454
15187SOL    HW247401   8.460   6.211   0.537
15188SOL     OW47402  13.326  13.489   8.774
15188SOL    HW147403  13.384  13.425   8.731
15188SOL    HW247404  13.376  13.570   8.773
15189SOL     OW47405  13.471  13.080   0.097
15189SOL    HW147406  13.404  13.146   0.117
15189SOL    HW247407  13.536  13.091   0.167
15190SOL     OW47408   4.120   6.213  13.944
15190SOL    HW147409   4.173   6.175  14.014
15190SOL    HW247410   4.112   6.305  13.966
15191SOL     OW47411   2.516   0.954   4.109
15191SOL    HW147412   2.429   0.955   4.150
15191SOL    HW247413   2.529   1.044   4.079
15192SOL     OW47414   2.707   3.332   2.743
15192SOL    HW147415   2.641   3.344   2.812
15192SOL    HW247416   2.781   3.290   2.787
15193SOL     OW47417   5.058  14.125   7.723
15193SOL    HW147418   5.146  14.090   7.736
15193SOL    HW247419   5.023  14.076   7.649
15194SOL     OW47420   3.675  10.630   5.442
15194SOL    HW147421   3.728  10.562   5.401
15194SOL    HW247422   3.609  10.652   5.376
15195SOL     OW47423   1.246  12.384   4.418
15195SOL    HW147424   1.173  12.323   4.425
15195SOL    HW247425   1.324  12.331   4.436
15196SOL     OW47426   5.142  12.219   3.531
15196SOL    HW147427   5.213  12.231   3.594
15196SOL    HW247428   5.079  12.289   3.552
15197SOL     OW47429  10.523   7.060   6.107
15197SOL    HW147430  10.480   7.003   6.043
15197SOL    HW247431  10.487   7.031   6.191
15198SOL     OW47432   5.338  11.361  10.195
15198SOL    HW147433   5.310  11.411  10.118
15198SOL    HW247434   5.426  11.330  10.172
15199SOL     OW47435   8.014   9.790   4.623
15199SOL    HW147436   8.090   9.733   4.611
15199SOL    HW247437   8.046   9.860   4.680
15200SOL     OW47438  14.676   6.492  12.536
15200SOL    HW147439  14.582   6.490  12.515
15200SOL    HW247440  14.706   6.403  12.520
15201SOL     OW47441   0.034   8.730   0.959
15201SOL    HW147442  14.861   8.652   0.985
15201SOL    HW247443   0.075   8.760   1.040
15202SOL     OW47444   1.069   1.890   9.519
15202SOL    HW147445   1.113   1.809   9.492
15202SOL    HW247446   0.990   1.860   9.565
15203SOL     OW47447   1.248  14.733   9.384
15203SOL    HW147448   1.302  14.729   9.306
15203SOL    HW247449   1.229  14.642   9.406
15204SOL     OW47450  13.493   0.385   2.050
15204SOL    HW147451  13.552   0.412   2.121
15204SOL    HW247452  13.541   0.315   2.004
15205SOL     OW47453   6.545  13.120   2.877
15205SOL    HW147454   6.491  13.199   2.864
15205SOL    HW247455   6.483  13.048   2.867
15206SOL     OW47456  14.778  11.837   2.404
15206SOL    HW147457  14.770  11.829   2.309
15206SOL    HW247458  14.706  11.784   2.439
15207SOL     OW47459   0.534  14.014  14.794
15207SOL    HW147460   0.543  14.051   0.005
15207SOL    HW247461   0.558  13.922  14.804
15208SOL     OW47462   1.691  10.790   5.473
15208SOL    HW147463   1.645  10.830   5.400
15208SOL    HW247464   1.756  10.733   5.433
15209SOL     OW47465  11.720  10.750  14.250
15209SOL    HW147466  11.765  10.678  14.205
15209SOL    HW247467  11.629  10.722  14.257
15210SOL     OW47468  10.986   7.219   6.273
15210SOL    HW147469  10.971   7.311   6.296
15210SOL    HW247470  10.964   7.214   6.180
15211SOL     OW47471  10.952   7.246  12.466
15211SOL    HW147472  11.039   7.276  12.441
15211SOL    HW247473  10.966   7.196  12.546
15212SOL     OW47474   2.321  14.657   6.649
15212SOL    HW147475   2.243  14.687   6.602
15212SOL    HW247476   2.377  14.618   6.581
15213SOL     OW47477  10.543   1.185  13.380
15213SOL    HW147478  10.565   1.278  13.387
15213SOL    HW247479  10.554   1.165  13.287
15214SOL     OW47480  12.886   9.171   6.944
15214SOL    HW147481  12.900   9.253   6.992
15214SOL    HW247482  12.803   9.184   6.898
15215SOL     OW47483  12.027   6.963   7.522
15215SOL    HW147484  11.971   6.940   7.596
15215SOL    HW247485  12.080   6.884   7.507
15216SOL     OW47486   9.229   4.152   1.792
15216SOL    HW147487   9.165   4.085   1.813
15216SOL    HW247488   9.179   4.220   1.746
15217SOL     OW47489   3.443   7.521   0.655
15217SOL    HW147490   3.433   7.426   0.653
15217SOL    HW247491   3.378   7.551   0.719
15218SOL     OW47492   0.792   1.974   8.178
15218SOL    HW147493   0.845   1.894   8.173
15218SOL    HW247494   0.776   1.998   8.087
15219SOL     OW47495  14.775   6.697  13.958
15219SOL    HW147496  14.739   6.769  14.011
15219SOL    HW247497  14.728   6.619  13.988
15220SOL     OW47498   0.451  13.335   3.510
15220SOL    HW147499   0.441  13.253   3.558
15220SOL    HW247500   0.536  13.370   3.538
15221SOL     OW47501   7.463   2.618   1.956
15221SOL    HW147502   7.436   2.642   1.868
15221SOL    HW247503   7.556   2.600   1.949
15222SOL     OW47504   9.171   0.008  11.878
15222SOL    HW147505   9.194  14.854  11.965
15222SOL    HW247506   9.199  14.814  11.819
15223SOL     OW47507   2.750   7.952   0.659
15223SOL    HW147508   2.795   7.868   0.656
15223SOL    HW247509   2.721   7.968   0.570
15224SOL     OW47510  10.415   7.250   3.487
15224SOL    HW147511  10.329   7.287   3.464
15224SOL    HW247512  10.478   7.314   3.454
15225SOL     OW47513   1.246  12.309   3.274
15225SOL    HW147514   1.327  12.311   3.223
15225SOL    HW247515   1.263  12.247   3.344
15226SOL     OW47516   8.862  11.192  12.831
15226SOL    HW147517   8.806  11.152  12.764
15226SOL    HW247518   8.904  11.265  12.786
15227SOL     OW47519   4.326   9.007   8.528
15227SOL    HW147520   4.418   8.988   8.549
15227SOL    HW247521   4.306   9.087   8.577
15228SOL     OW47522  11.126   7.953  10.369
15228SOL    HW147523  11.131   7.864  10.333
15228SOL    HW247524  11.088   8.004  10.298
15229SOL     OW47525   2.899   9.626  11.105
15229SOL    HW147526   2.815   9.648  11.066
15229SOL    HW247527   2.909   9.532  11.092
15230SOL     OW47528   3.723   7.779  12.903
15230SOL    HW147529   3.699   7.758  12.813
15230SOL    HW247530   3.656   7.737  12.957
15231SOL     OW47531   7.691  10.408   8.459
15231SOL    HW147532   7.636  10.438   8.387
15231SOL    HW247533   7.771  10.461   8.451
15232SOL     OW47534  12.560   0.730   1.961
15232SOL    HW147535  12.500   0.719   2.035
15232SOL    HW247536  12.513   0.788   1.901
15233SOL     OW47537   0.948   5.227   0.172
15233SOL    HW147538   0.903   5.166   0.114
15233SOL    HW247539   0.881   5.292   0.194
15234SOL     OW47540  13.183  13.560   7.686
15234SOL    HW147541  13.141  13.622   7.747
15234SOL    HW247542  13.134  13.479   7.697
15235SOL     OW47543   1.544   6.976   3.199
15235SOL    HW147544   1.530   7.041   3.130
15235SOL    HW247545   1.464   6.978   3.251
15236SOL     OW47546   8.801   2.025   5.731
15236SOL    HW147547   8.755   2.105   5.705
15236SOL    HW247548   8.894   2.045   5.718
15237SOL     OW47549   4.592   3.589  12.158
15237SOL    HW147550   4.668   3.567  12.104
15237SOL    HW247551   4.522   3.534  12.125
15238SOL     OW47552  13.237  13.572   1.586
15238SOL    HW147553  13.295  13.545   1.658
15238SOL    HW247554  13.193  13.650   1.619
15239SOL     OW47555   6.969   1.521  10.445
15239SOL    HW147556   6.893   1.464  10.441
15239SOL    HW247557   6.951   1.589  10.380
15240SOL     OW47558   5.889   2.825   4.574
15240SOL    HW147559   5.915   2.739   4.539
15240SOL    HW247560   5.820   2.855   4.515
15241SOL     OW47561   5.009  12.185   4.875
15241SOL    HW147562   5.085  12.239   4.853
15241SOL    HW247563   4.941  12.249   4.897
15242SOL     OW47564   7.934   4.300   4.641
15242SOL    HW147565   7.854   4.250   4.625
15242SOL    HW247566   7.909   4.365   4.707
15243SOL     OW47567   2.398  13.403  13.640
15243SOL    HW147568   2.429  13.491  13.619
15243SOL    HW247569   2.456  13.373  13.710
15244SOL     OW47570   9.981   3.874   1.585
15244SOL    HW147571   9.930   3.871   1.505
15244SOL    HW247572   9.921   3.844   1.654
15245SOL     OW47573   2.752   0.246   3.506
15245SOL    HW147574   2.704   0.171   3.542
15245SOL    HW247575   2.744   0.314   3.573
15246SOL     OW47576  13.165   0.571   1.952
15246SOL    HW147577  13.127   0.503   2.007
15246SOL    HW247578  13.089   0.616   1.914
15247SOL     OW47579   1.209  11.616  10.572
15247SOL    HW147580   1.121  11.589  10.545
15247SOL    HW247581   1.199  11.706  10.600
15248SOL     OW47582   3.813   0.315   5.836
15248SOL    HW147583   3.879   0.308   5.904
15248SOL    HW247584   3.806   0.409   5.819
15249SOL     OW47585  11.404   2.895   1.918
15249SOL    HW147586  11.470   2.848   1.968
15249SOL    HW247587  11.379   2.835   1.848
15250SOL     OW47588  12.101  14.570  14.795
15250SOL    HW147589  12.127  14.636  14.730
15250SOL    HW247590  12.173  14.507  14.795
15251SOL     OW47591   8.727   9.328   1.811
15251SOL    HW147592   8.794   9.265   1.784
15251SOL    HW247593   8.772   9.384   1.874
15252SOL     OW47594  13.853  13.236   2.238
15252SOL    HW147595  13.882  13.190   2.317
15252SOL    HW247596  13.932  13.277   2.203
15253SOL     OW47597   7.373   3.403   4.833
15253SOL    HW147598   7.323   3.412   4.914
15253SOL    HW247599   7.375   3.308   4.816
15254SOL     OW47600   8.694   2.139   2.287
15254SOL    HW147601   8.669   2.170   2.200
15254SOL    HW247602   8.747   2.209   2.324
15255SOL     OW47603  14.356  14.457   6.861
15255SOL    HW147604  14.391  14.458   6.950
15255SOL    HW247605  14.434  14.464   6.805
15256SOL     OW47606   0.090   9.248   0.390
15256SOL    HW147607   0.043   9.329   0.407
15256SOL    HW247608   0.032   9.179   0.423
15257SOL     OW47609   8.725   0.876   8.690
15257SOL    HW147610   8.738   0.819   8.615
15257SOL    HW247611   8.650   0.930   8.667
15258SOL     OW47612  13.501   4.853   9.531
15258SOL    HW147613  13.501   4.935   9.481
15258SOL    HW247614  13.423   4.860   9.586
15259SOL     OW47615  13.097   4.487   1.428
15259SOL    HW147616  13.002   4.495   1.435
15259SOL    HW247617  13.114   4.393   1.431
15260SOL     OW47618  14.629   2.261  13.179
15260SOL    HW147619  14.539   2.242  13.204
15260SOL    HW247620  14.667   2.304  13.256
15261SOL     OW47621   9.997  10.493  12.043
15261SOL    HW147622   9.916  10.533  12.014
15261SOL    HW247623  10.040  10.464  11.962
15262SOL     OW47624   2.488  12.578   9.959
15262SOL    HW147625   2.566  12.538   9.922
15262SOL    HW247626   2.521  12.643  10.021
15263SOL     OW47627  13.472   0.267   2.904
15263SOL    HW147628  13.547   0.207   2.900
15263SOL    HW247629  13.432   0.249   2.989
15264SOL     OW47630   5.407  11.892   5.327
15264SOL    HW147631   5.446  11.878   5.240
15264SOL    HW247632   5.313  11.881   5.314
15265SOL     OW47633   6.882   3.382   3.300
15265SOL    HW147634   6.967   3.401   3.261
15265SOL    HW247635   6.822   3.380   3.226
15266SOL     OW47636   3.192   0.959   4.925
15266SOL    HW147637   3.250   1.035   4.928
15266SOL    HW247638   3.106   0.995   4.906
15267SOL     OW47639   5.605  13.149   9.831
15267SOL    HW147640   5.626  13.097   9.754
15267SOL    HW247641   5.558  13.089   9.889
15268SOL     OW47642  11.490   5.844   1.914
15268SOL    HW147643  11.396   5.840   1.895
15268SOL    HW247644  11.530   5.863   1.829
15269SOL     OW47645   3.526   5.842   6.354
15269SOL    HW147646   3.620   5.854   6.367
15269SOL    HW247647   3.508   5.883   6.270
15270SOL     OW47648  14.455   9.541  12.738
15270SOL    HW147649  14.428   9.456  12.703
15270SOL    HW247650  14.518   9.519  12.807
15271SOL     OW47651   8.190   7.379   8.016
15271SOL    HW147652   8.192   7.359   7.922
15271SOL    HW247653   8.105   7.421   8.030
15272SOL     OW47654   9.110  12.157   3.408
15272SOL    HW147655   9.117  12.246   3.440
15272SOL    HW247656   9.069  12.109   3.480
15273SOL     OW47657  10.104   1.304   2.135
15273SOL    HW147658  10.188   1.291   2.092
15273SOL    HW247659  10.098   1.399   2.148
15274SOL     OW47660  12.885   7.551   0.784
15274SOL    HW147661  12.879   7.646   0.773
15274SOL    HW247662  12.969   7.537   0.826
15275SOL     OW47663  11.022   2.642   1.693
15275SOL    HW147664  11.007   2.705   1.764
15275SOL    HW247665  11.024   2.557   1.737
15276SOL     OW47666  13.542   4.174   5.823
15276SOL    HW147667  13.455   4.135   5.829
15276SOL    HW247668  13.597   4.119   5.878
15277SOL     OW47669   9.647   3.653   1.460
15277SOL    HW147670   9.659   3.736   1.508
15277SOL    HW247671   9.583   3.605   1.512
15278SOL     OW47672   8.343  11.519   4.383
15278SOL    HW147673   8.355  11.430   4.415
15278SOL    HW247674   8.423  11.538   4.333
15279SOL     OW47675   3.161   8.846   7.170
15279SOL    HW147676   3.202   8.821   7.087
15279SOL    HW247677   3.150   8.941   7.163
15280SOL     OW47678   9.243   4.109   6.567
15280SOL    HW147679   9.171   4.172   6.562
15280SOL    HW247680   9.294   4.137   6.643
15281SOL     OW47681  12.212   1.351   4.288
15281SOL    HW147682  12.163   1.364   4.369
15281SOL    HW247683  12.252   1.264   4.298
15282SOL     OW47684   6.152   6.159   9.237
15282SOL    HW147685   6.169   6.155   9.331
15282SOL    HW247686   6.125   6.250   9.222
15283SOL     OW47687   7.104   1.040   4.370
15283SOL    HW147688   7.086   1.055   4.463
15283SOL    HW247689   7.089   1.125   4.329
15284SOL     OW47690   8.044   0.574  13.047
15284SOL    HW147691   8.124   0.529  13.021
15284SOL    HW247692   8.007   0.518  13.116
15285SOL     OW47693  11.174   1.152   8.433
15285SOL    HW147694  11.239   1.081   8.436
15285SOL    HW247695  11.129   1.139   8.349
15286SOL     OW47696   8.322   5.845  10.708
15286SOL    HW147697   8.358   5.816  10.624
15286SOL    HW247698   8.228   5.856  10.691
15287SOL     OW47699   9.671  12.735   0.598
15287SOL    HW147700   9.672  12.806   0.663
15287SOL    HW247701   9.764  12.716   0.583
15288SOL     OW47702   0.620   2.491   2.799
15288SOL    HW147703   0.590   2.557   2.861
15288SOL    HW247704   0.598   2.408   2.840
15289SOL     OW47705  14.318  11.949   5.595
15289SOL    HW147706  14.304  12.044   5.599
15289SOL    HW247707  14.230  11.912   5.600
15290SOL     OW47708   0.321   6.681   2.212
15290SOL    HW147709   0.341   6.590   2.190
15290SOL    HW247710   0.398   6.731   2.184
15291SOL     OW47711   8.701   9.090   7.968
15291SOL    HW147712   8.775   9.144   7.998
15291SOL    HW247713   8.735   9.001   7.967
15292SOL     OW47714   6.600  13.405   4.782
15292SOL    HW147715   6.641  13.491   4.770
15292SOL    HW247716   6.634  13.353   4.709
15293SOL     OW47717  12.569  11.763  11.775
15293SOL    HW147718  12.556  11.857  11.793
15293SOL    HW247719  12.496  11.740  11.717
15294SOL     OW47720   2.053  12.875   3.058
15294SOL    HW147721   2.054  12.886   3.153
15294SOL    HW247722   2.090  12.956   3.024
15295SOL     OW47723   3.688   6.422   6.849
15295SOL    HW147724   3.770   6.393   6.889
15295SOL    HW247725   3.682   6.372   6.768
15296SOL     OW47726   9.775   5.044   3.025
15296SOL    HW147727   9.728   5.002   2.953
15296SOL    HW247728   9.717   5.030   3.101
15297SOL     OW47729   8.766   2.730  13.662
15297SOL    HW147730   8.800   2.756  13.576
15297SOL    HW247731   8.735   2.812  13.701
15298SOL     OW47732   7.695  12.708  14.793
15298SOL    HW147733   7.694  12.785  14.735
15298SOL    HW247734   7.623  12.654  14.761
15299SOL     OW47735   0.358   0.491  11.573
15299SOL    HW147736   0.337   0.533  11.490
15299SOL    HW247737   0.361   0.563  11.636
15300SOL     OW47738   2.051   5.790   4.891
15300SOL    HW147739   2.051   5.698   4.863
15300SOL    HW247740   2.017   5.838   4.815
15301SOL     OW47741  10.715  11.617   6.066
15301SOL    HW147742  10.659  11.543   6.043
15301SOL    HW247743  10.803  11.587   6.044
15302SOL     OW47744   8.890   6.979   4.367
15302SOL    HW147745   8.851   6.898   4.400
15302SOL    HW247746   8.830   7.048   4.396
15303SOL     OW47747   8.767  10.230   0.322
15303SOL    HW147748   8.711  10.261   0.251
15303SOL    HW247749   8.707  10.192   0.386
15304SOL     OW47750   4.648   0.759  10.135
15304SOL    HW147751   4.584   0.690  10.119
15304SOL    HW247752   4.617   0.833  10.083
15305SOL     OW47753   4.988   9.013   6.419
15305SOL    HW147754   5.000   9.001   6.513
15305SOL    HW247755   4.903   9.056   6.412
15306SOL     OW47756   1.213  13.001  14.306
15306SOL    HW147757   1.219  12.943  14.382
15306SOL    HW247758   1.128  12.981  14.267
15307SOL     OW47759   4.862  12.252   0.193
15307SOL    HW147760   4.869  12.221   0.283
15307SOL    HW247761   4.811  12.332   0.199
15308SOL     OW47762  10.152   6.440   1.758
15308SOL    HW147763  10.141   6.349   1.785
15308SOL    HW247764  10.172   6.487   1.839
15309SOL     OW47765   0.719   0.636   0.555
15309SOL    HW147766   0.659   0.705   0.585
15309SOL    HW247767   0.725   0.576   0.629
15310SOL     OW47768   2.188   1.626   2.706
15310SOL    HW147769   2.255   1.583   2.759
15310SOL    HW247770   2.216   1.717   2.699
15311SOL     OW47771   6.271  12.215  10.425
15311SOL    HW147772   6.233  12.128  10.416
15311SOL    HW247773   6.210  12.273  10.380
15312SOL     OW47774   9.628   4.881   9.465
15312SOL    HW147775   9.650   4.874   9.372
15312SOL    HW247776   9.632   4.791   9.497
15313SOL     OW47777   2.156   3.555   7.272
15313SOL    HW147778   2.134   3.635   7.224
15313SOL    HW247779   2.237   3.576   7.318
15314SOL     OW47780  12.341  14.056   2.790
15314SOL    HW147781  12.292  14.046   2.709
15314SOL    HW247782  12.279  14.096   2.851
15315SOL     OW47783   9.781  12.972   9.418
15315SOL    HW147784   9.850  13.036   9.403
15315SOL    HW247785   9.809  12.895   9.369
15316SOL     OW47786   9.231   1.486  11.086
15316SOL    HW147787   9.304   1.448  11.136
15316SOL    HW247788   9.169   1.517  11.152
15317SOL     OW47789   5.857  11.287   7.251
15317SOL    HW147790   5.810  11.284   7.334
15317SOL    HW247791   5.905  11.204   7.248
15318SOL     OW47792   0.079   8.825   0.358
15318SOL    HW147793   0.145   8.885   0.392
15318SOL    HW247794   0.120   8.785   0.282
15319SOL     OW47795  14.732  11.451   8.480
15319SOL    HW147796  14.726  11.359   8.505
15319SOL    HW247797  14.643  11.485   8.490
15320SOL     OW47798  12.632   7.518   4.136
15320SOL    HW147799  12.552   7.467   4.135
15320SOL    HW247800  12.634   7.561   4.050
15321SOL     OW47801  13.329  11.676  13.024
15321SOL    HW147802  13.361  11.633  12.944
15321SOL    HW247803  13.235  11.684  13.011
15322SOL     OW47804  13.439  11.548   3.182
15322SOL    HW147805  13.504  11.479   3.197
15322SOL    HW247806  13.385  11.547   3.261
15323SOL     OW47807   9.218  12.491   6.417
15323SOL    HW147808   9.292  12.434   6.396
15323SOL    HW247809   9.207  12.546   6.340
15324SOL     OW47810   5.530   5.617  10.329
15324SOL    HW147811   5.603   5.566  10.294
15324SOL    HW247812   5.462   5.553  10.348
15325SOL     OW47813   2.158   4.255   5.027
15325SOL    HW147814   2.104   4.294   4.959
15325SOL    HW247815   2.098   4.198   5.075
15326SOL     OW47816   8.590   4.858  13.134
15326SOL    HW147817   8.589   4.949  13.104
15326SOL    HW247818   8.552   4.862  13.222
15327SOL     OW47819   1.991   2.967  11.956
15327SOL    HW147820   1.913   2.950  12.009
15327SOL    HW247821   2.003   3.062  11.960
15328SOL     OW47822  10.130   5.483  10.185
15328SOL    HW147823  10.164   5.394  10.187
15328SOL    HW247824  10.196   5.535  10.231
15329SOL     OW47825   5.759  11.579   8.738
15329SOL    HW147826   5.753  11.511   8.671
15329SOL    HW247827   5.844  11.564   8.780
15330SOL     OW47828   8.709   4.157   9.478
15330SOL    HW147829   8.778   4.203   9.430
15330SOL    HW247830   8.719   4.066   9.452
15331SOL     OW47831   2.682  11.917  12.621
15331SOL    HW147832   2.617  11.986  12.608
15331SOL    HW247833   2.766  11.964  12.623
15332SOL     OW47834   1.694   2.665   5.917
15332SOL    HW147835   1.775   2.663   5.866
15332SOL    HW247836   1.677   2.758   5.932
15333SOL     OW47837   8.197  12.232  13.281
15333SOL    HW147838   8.256  12.267  13.347
15333SOL    HW247839   8.254  12.200  13.212
15334SOL     OW47840   6.314  13.220  14.788
15334SOL    HW147841   6.280  13.131  14.799
15334SOL    HW247842   6.293  13.242  14.697
15335SOL     OW47843   3.923   9.703   9.860
15335SOL    HW147844   4.016   9.688   9.872
15335SOL    HW247845   3.887   9.701   9.949
15336SOL     OW47846   3.689  13.700   5.357
15336SOL    HW147847   3.597  13.705   5.381
15336SOL    HW247848   3.737  13.708   5.439
15337SOL     OW47849   9.820   7.834   3.655
15337SOL    HW147850   9.852   7.814   3.567
15337SOL    HW247851   9.764   7.759   3.678
15338SOL     OW47852   8.685   0.993   7.257
15338SOL    HW147853   8.622   1.011   7.188
15338SOL    HW247854   8.748   1.065   7.251
15339SOL     OW47855  11.769   4.165  13.002
15339SOL    HW147856  11.769   4.122  12.917
15339SOL    HW247857  11.853   4.211  13.006
15340SOL     OW47858  11.149  13.011   4.689
15340SOL    HW147859  11.206  13.057   4.626
15340SOL    HW247860  11.166  13.054   4.772
15341SOL     OW47861   8.285   3.277   6.422
15341SOL    HW147862   8.301   3.189   6.457
15341SOL    HW247863   8.305   3.269   6.328
15342SOL     OW47864   6.646   0.283   6.266
15342SOL    HW147865   6.564   0.254   6.306
15342SOL    HW247866   6.664   0.368   6.305
15343SOL     OW47867   5.935   1.043   8.201
15343SOL    HW147868   5.936   1.036   8.296
15343SOL    HW247869   5.881   0.970   8.172
15344SOL     OW47870   4.855   2.006   7.033
15344SOL    HW147871   4.822   1.960   7.111
15344SOL    HW247872   4.841   1.944   6.961
15345SOL     OW47873   0.583   1.422   9.170
15345SOL    HW147874   0.586   1.353   9.104
15345SOL    HW247875   0.586   1.503   9.119
15346SOL     OW47876   2.407  14.853  11.792
15346SOL    HW147877   2.319  14.856  11.755
15346SOL    HW247878   2.465  14.871  11.718
15347SOL     OW47879   2.736   8.619  10.816
15347SOL    HW147880   2.738   8.531  10.776
15347SOL    HW247881   2.817   8.624  10.867
15348SOL     OW47882   8.445   4.633   5.634
15348SOL    HW147883   8.432   4.576   5.710
15348SOL    HW247884   8.539   4.637   5.622
15349SOL     OW47885   4.505   8.343  10.733
15349SOL    HW147886   4.492   8.248  10.738
15349SOL    HW247887   4.416   8.379  10.730
15350SOL     OW47888  10.149  12.474  13.287
15350SOL    HW147889  10.232  12.520  13.275
15350SOL    HW247890  10.167  12.410  13.356
15351SOL     OW47891   8.756   2.695   9.548
15351SOL    HW147892   8.840   2.650   9.556
15351SOL    HW247893   8.776   2.787   9.564
15352SOL     OW47894   1.735   1.036  14.209
15352SOL    HW147895   1.813   0.987  14.182
15352SOL    HW247896   1.742   1.120  14.164
15353SOL     OW47897   3.671  13.563  12.680
15353SOL    HW147898   3.742  13.529  12.735
15353SOL    HW247899   3.622  13.486  12.654
15354SOL     OW47900   8.788   8.802   9.036
15354SOL    HW147901   8.752   8.758   9.114
15354SOL    HW247902   8.720   8.864   9.011
15355SOL     OW47903   1.408   7.994   6.325
15355SOL    HW147904   1.502   8.005   6.340
15355SOL    HW247905   1.395   7.899   6.318
15356SOL     OW47906  10.511   9.742  10.589
15356SOL    HW147907  10.583   9.719  10.530
15356SOL    HW247908  10.484   9.829  10.561
15357SOL     OW47909  13.589   9.907   1.147
15357SOL    HW147910  13.555   9.926   1.060
15357SOL    HW247911  13.578   9.813   1.157
15358SOL     OW47912  12.645   3.591   6.722
15358SOL    HW147913  12.662   3.516   6.665
15358SOL    HW247914  12.635   3.665   6.663
15359SOL     OW47915  12.281  12.644   6.202
15359SOL    HW147916  12.295  12.615   6.112
15359SOL    HW247917  12.207  12.592   6.233
15360SOL     OW47918   2.717   9.532  14.312
15360SOL    HW147919   2.643   9.513  14.370
15360SOL    HW247920   2.689   9.501  14.226
15361SOL     OW47921  13.256   8.431   3.971
15361SOL    HW147922  13.279   8.522   3.987
15361SOL    HW247923  13.206   8.405   4.048
15362SOL     OW47924   5.144   5.453   4.583
15362SOL    HW147925   5.174   5.393   4.515
15362SOL    HW247926   5.178   5.538   4.557
15363SOL     OW47927  13.025   6.244   7.347
15363SOL    HW147928  12.936   6.216   7.366
15363SOL    HW247929  13.019   6.286   7.261
15364SOL     OW47930   9.734  11.111  10.228
15364SOL    HW147931   9.657  11.067  10.192
15364SOL    HW247932   9.746  11.072  10.315
15365SOL     OW47933   0.611   8.333   1.825
15365SOL    HW147934   0.546   8.263   1.834
15365SOL    HW247935   0.577   8.387   1.753
15366SOL     OW47936  13.705  11.600   1.337
15366SOL    HW147937  13.743  11.641   1.259
15366SOL    HW247938  13.653  11.668   1.378
15367SOL     OW47939   4.452  14.529  12.242
15367SOL    HW147940   4.400  14.550  12.164
15367SOL    HW247941   4.463  14.434  12.239
15368SOL     OW47942  12.873  10.939   0.300
15368SOL    HW147943  12.796  10.883   0.298
15368SOL    HW247944  12.921  10.916   0.220
15369SOL     OW47945  11.361  13.592   6.949
15369SOL    HW147946  11.279  13.594   6.901
15369SOL    HW247947  11.369  13.501   6.980
15370SOL     OW47948   1.515  14.732   9.588
15370SOL    HW147949   1.574  14.711   9.516
15370SOL    HW247950   1.430  14.746   9.546
15371SOL     OW47951   4.307   7.279   8.040
15371SOL    HW147952   4.236   7.322   7.992
15371SOL    HW247953   4.310   7.190   8.004
15372SOL     OW47954  11.134  13.018   6.941
15372SOL    HW147955  11.055  12.999   6.992
15372SOL    HW247956  11.200  13.040   7.006
15373SOL     OW47957  11.215   0.348  12.585
15373SOL    HW147958  11.294   0.333  12.637
15373SOL    HW247959  11.154   0.281  12.614
15374SOL     OW47960   1.875   6.496  11.136
15374SOL    HW147961   1.969   6.481  11.147
15374SOL    HW247962   1.837   6.408  11.140
15375SOL     OW47963   4.149   1.849   3.424
15375SOL    HW147964   4.073   1.870   3.478
15375SOL    HW247965   4.115   1.788   3.358
15376SOL     OW47966   9.456  10.180   0.977
15376SOL    HW147967   9.432  10.114   0.912
15376SOL    HW247968   9.501  10.130   1.046
15377SOL     OW47969   2.048   6.150  14.504
15377SOL    HW147970   1.990   6.203  14.560
15377SOL    HW247971   1.988   6.102  14.447
15378SOL     OW47972  13.132   6.707   8.943
15378SOL    HW147973  13.082   6.725   8.863
15378SOL    HW247974  13.138   6.611   8.946
15379SOL     OW47975   1.460   3.957  11.122
15379SOL    HW147976   1.397   4.003  11.068
15379SOL    HW247977   1.436   3.864  11.114
15380SOL     OW47978   0.061   9.839   9.357
15380SOL    HW147979  14.874   9.884   9.412
15380SOL    HW247980   0.101   9.909   9.305
15381SOL     OW47981   5.608   9.436   9.942
15381SOL    HW147982   5.557   9.446   9.861
15381SOL    HW247983   5.667   9.363   9.924
15382SOL     OW47984   8.173  10.478   9.757
15382SOL    HW147985   8.132  10.496   9.842
15382SOL    HW247986   8.224  10.398   9.771
15383SOL     OW47987   6.241  11.830  12.243
15383SOL    HW147988   6.209  11.740  12.239
15383SOL    HW247989   6.239  11.860  12.152
15384SOL     OW47990   4.398   2.694   0.934
15384SOL    HW147991   4.320   2.743   0.908
15384SOL    HW247992   4.390   2.610   0.888
15385SOL     OW47993   3.019   1.292   2.386
15385SOL    HW147994   3.107   1.285   2.348
15385SOL    HW247995   3.016   1.223   2.452
15386SOL     OW47996  11.554   8.721  10.055
15386SOL    HW147997  11.540   8.643  10.109
15386SOL    HW247998  11.528   8.694   9.967
15387SOL     OW47999   4.493   8.064   5.147
15387SOL    HW148000   4.455   8.128   5.206
15387SOL    HW248001   4.487   8.103   5.061
15388SOL     OW48002   1.494  12.872   8.168
15388SOL    HW148003   1.438  12.918   8.231
15388SOL    HW248004   1.445  12.793   8.146
15389SOL     OW48005   5.552   7.353   0.579
15389SOL    HW148006   5.633   7.367   0.627
15389SOL    HW248007   5.539   7.258   0.580
15390SOL     OW48008  12.551   3.945  14.768
15390SOL    HW148009  12.463   3.931  14.735
15390SOL    HW248010  12.565   3.874  14.831
15391SOL     OW48011  11.500   3.910   2.901
15391SOL    HW148012  11.542   3.997   2.903
15391SOL    HW248013  11.514   3.875   2.989
15392SOL     OW48014   8.834   2.950  10.708
15392SOL    HW148015   8.868   2.970  10.621
15392SOL    HW248016   8.907   2.906  10.753
15393SOL     OW48017   3.373   2.622   2.000
15393SOL    HW148018   3.425   2.610   2.079
15393SOL    HW248019   3.324   2.703   2.015
15394SOL     OW48020  10.859  10.066   1.366
15394SOL    HW148021  10.838  10.142   1.420
15394SOL    HW248022  10.784  10.008   1.375
15395SOL     OW48023  10.774   0.756  13.341
15395SOL    HW148024  10.820   0.681  13.302
15395SOL    HW248025  10.711   0.783  13.274
15396SOL     OW48026  10.356   4.684   7.465
15396SOL    HW148027  10.301   4.605   7.470
15396SOL    HW248028  10.423   4.662   7.400
15397SOL     OW48029   0.707  14.836   8.982
15397SOL    HW148030   0.769  14.825   9.054
15397SOL    HW248031   0.624  14.856   9.024
15398SOL     OW48032   1.671   0.732   0.619
15398SOL    HW148033   1.740   0.797   0.606
15398SOL    HW248034   1.672   0.715   0.714
15399SOL     OW48035   4.461   9.743   3.211
15399SOL    HW148036   4.513   9.706   3.140
15399SOL    HW248037   4.498   9.830   3.225
15400SOL     OW48038  13.993  10.219   1.851
15400SOL    HW148039  13.995  10.190   1.943
15400SOL    HW248040  13.912  10.269   1.844
15401SOL     OW48041  13.906  10.047   6.414
15401SOL    HW148042  13.925   9.957   6.389
15401SOL    HW248043  13.945  10.057   6.501
15402SOL     OW48044   1.221   0.263   3.230
15402SOL    HW148045   1.209   0.333   3.165
15402SOL    HW248046   1.316   0.255   3.239
15403SOL     OW48047  10.970   7.909   2.972
15403SOL    HW148048  11.043   7.866   2.929
15403SOL    HW248049  11.010   7.982   3.020
15404SOL     OW48050  11.202   9.460  10.926
15404SOL    HW148051  11.119   9.501  10.952
15404SOL    HW248052  11.180   9.405  10.852
15405SOL     OW48053   8.873   9.160   8.484
15405SOL    HW148054   8.819   9.126   8.556
15405SOL    HW248055   8.957   9.180   8.524
15406SOL     OW48056  10.438   5.062  11.674
15406SOL    HW148057  10.525   5.051  11.712
15406SOL    HW248058  10.393   4.980  11.695
15407SOL     OW48059   1.293   6.538  13.696
15407SOL    HW148060   1.329   6.625  13.676
15407SOL    HW248061   1.313   6.524  13.788
15408SOL     OW48062  12.949   6.481  13.560
15408SOL    HW148063  13.001   6.406  13.530
15408SOL    HW248064  12.872   6.442  13.601
15409SOL     OW48065  10.690   7.261  10.612
15409SOL    HW148066  10.702   7.201  10.686
15409SOL    HW248067  10.629   7.327  10.645
15410SOL     OW48068  10.136   1.178   1.840
15410SOL    HW148069  10.133   1.241   1.912
15410SOL    HW248070  10.046   1.176   1.807
15411SOL     OW48071  11.480  13.918  13.899
15411SOL    HW148072  11.533  13.990  13.863
15411SOL    HW248073  11.409  13.906  13.836
15412SOL     OW48074  12.569  11.245   0.171
15412SOL    HW148075  12.540  11.153   0.175
15412SOL    HW248076  12.487  11.295   0.164
15413SOL     OW48077   4.441   5.218   9.551
15413SOL    HW148078   4.535   5.219   9.570
15413SOL    HW248079   4.435   5.200   9.458
15414SOL     OW48080   6.926   9.548  11.717
15414SOL    HW148081   6.995   9.554  11.782
15414SOL    HW248082   6.872   9.626  11.732
15415SOL     OW48083   0.898   2.481   4.793
15415SOL    HW148084   0.821   2.431   4.767
15415SOL    HW248085   0.868   2.572   4.799
15416SOL     OW48086   8.033   0.211   8.105
15416SOL    HW148087   8.060   0.139   8.048
15416SOL    HW248088   7.955   0.178   8.150
15417SOL     OW48089   8.304   1.328  11.634
15417SOL    HW148090   8.307   1.272  11.557
15417SOL    HW248091   8.266   1.410  11.603
15418SOL     OW48092  12.844   4.198   7.079
15418SOL    HW148093  12.938   4.187   7.063
15418SOL    HW248094  12.816   4.116   7.118
15419SOL     OW48095   3.781  10.370   5.952
15419SOL    HW148096   3.747  10.287   5.921
15419SOL    HW248097   3.876  10.358   5.953
15420SOL     OW48098   2.966   4.396   8.270
15420SOL    HW148099   2.971   4.303   8.249
15420SOL    HW248100   3.057   4.426   8.272
15421SOL     OW48101   0.914  12.853  13.997
15421SOL    HW148102   0.976  12.781  14.001
15421SOL    HW248103   0.829  12.811  13.980
15422SOL     OW48104   7.056   4.201   9.426
15422SOL    HW148105   7.028   4.276   9.479
15422SOL    HW248106   7.144   4.181   9.458
15423SOL     OW48107   0.507  14.088   0.795
15423SOL    HW148108   0.598  14.067   0.817
15423SOL    HW248109   0.468  14.003   0.773
15424SOL     OW48110   7.092   5.488  12.491
15424SOL    HW148111   7.037   5.557  12.527
15424SOL    HW248112   7.110   5.430  12.566
15425SOL     OW48113  12.389  12.612   0.421
15425SOL    HW148114  12.450  12.683   0.403
15425SOL    HW248115  12.421  12.539   0.367
15426SOL     OW48116   8.512   3.521   7.112
15426SOL    HW148117   8.570   3.557   7.179
15426SOL    HW248118   8.490   3.596   7.057
15427SOL     OW48119  13.314   1.582  11.070
15427SOL    HW148120  13.248   1.567  11.137
15427SOL    HW248121  13.361   1.660  11.100
15428SOL     OW48122   5.616   3.926   9.614
15428SOL    HW148123   5.577   3.839   9.602
15428SOL    HW248124   5.541   3.984   9.624
15429SOL     OW48125   3.645   1.879   6.449
15429SOL    HW148126   3.647   1.955   6.507
15429SOL    HW248127   3.553   1.872   6.423
15430SOL     OW48128   9.023  12.015   5.466
15430SOL    HW148129   9.037  11.970   5.382
15430SOL    HW248130   8.950  11.969   5.507
15431SOL     OW48131   9.175   2.060  10.347
15431SOL    HW148132   9.121   1.984  10.368
15431SOL    HW248133   9.165   2.071  10.253
15432SOL     OW48134   3.702  11.833   1.897
15432SOL    HW148135   3.644  11.782   1.841
15432SOL    HW248136   3.746  11.894   1.837
15433SOL     OW48137   5.192  14.085   0.053
15433SOL    HW148138   5.215  14.002   0.094
15433SOL    HW248139   5.098  14.095   0.071
15434SOL     OW48140  14.310   7.621   7.514
15434SOL    HW148141  14.350   7.578   7.590
15434SOL    HW248142  14.225   7.579   7.505
15435SOL     OW48143  10.841  10.414   1.728
15435SOL    HW148144  10.776  10.483   1.714
15435SOL    HW248145  10.821  10.381   1.816
15436SOL     OW48146  13.997   0.907  13.194
15436SOL    HW148147  14.078   0.912  13.143
15436SOL    HW248148  13.928   0.892  13.129
15437SOL     OW48149  13.894  13.160   2.521
15437SOL    HW148150  13.949  13.189   2.595
15437SOL    HW248151  13.810  13.203   2.536
15438SOL     OW48152   6.024   2.898   3.036
15438SOL    HW148153   5.951   2.948   3.071
15438SOL    HW248154   6.101   2.951   3.056
15439SOL     OW48155  11.233   7.128   6.135
15439SOL    HW148156  11.155   7.175   6.163
15439SOL    HW248157  11.256   7.168   6.051
15440SOL     OW48158  11.168   3.833  10.637
15440SOL    HW148159  11.150   3.816  10.730
15440SOL    HW248160  11.085   3.866  10.602
15441SOL     OW48161   0.648   0.058  11.736
15441SOL    HW148162   0.579   0.009  11.691
15441SOL    HW248163   0.614   0.147  11.742
15442SOL     OW48164   6.097   7.921  14.285
15442SOL    HW148165   6.118   7.828  14.283
15442SOL    HW248166   6.029   7.932  14.218
15443SOL     OW48167   0.884   1.046  10.867
15443SOL    HW148168   0.922   1.029  10.953
15443SOL    HW248169   0.870   1.141  10.865
15444SOL     OW48170   5.555  10.220   5.330
15444SOL    HW148171   5.500  10.158   5.378
15444SOL    HW248172   5.595  10.274   5.398
15445SOL     OW48173   0.265  14.515   3.476
15445SOL    HW148174   0.207  14.485   3.407
15445SOL    HW248175   0.339  14.454   3.475
15446SOL     OW48176  10.911   3.720   7.149
15446SOL    HW148177  10.871   3.639   7.183
15446SOL    HW248178  10.962   3.691   7.074
15447SOL     OW48179   9.210   2.203   8.496
15447SOL    HW148180   9.151   2.176   8.425
15447SOL    HW248181   9.166   2.174   8.576
15448SOL     OW48182   1.218   6.557   1.785
15448SOL    HW148183   1.302   6.580   1.825
15448SOL    HW248184   1.226   6.584   1.694
15449SOL     OW48185  12.653   7.334  13.426
15449SOL    HW148186  12.620   7.245  13.433
15449SOL    HW248187  12.741   7.324  13.388
15450SOL     OW48188   1.569   0.518   2.341
15450SOL    HW148189   1.593   0.459   2.412
15450SOL    HW248190   1.652   0.536   2.295
15451SOL     OW48191   0.500   2.405   9.093
15451SOL    HW148192   0.534   2.390   9.181
15451SOL    HW248193   0.439   2.333   9.078
15452SOL     OW48194  10.642   5.324   5.464
15452SOL    HW148195  10.707   5.312   5.394
15452SOL    HW248196  10.692   5.363   5.536
15453SOL     OW48197  11.848   8.616   9.227
15453SOL    HW148198  11.885   8.547   9.172
15453SOL    HW248199  11.839   8.691   9.169
15454SOL     OW48200   4.942   1.378  13.105
15454SOL    HW148201   4.871   1.441  13.116
15454SOL    HW248202   4.928   1.341  13.018
15455SOL     OW48203  11.512  14.798  12.449
15455SOL    HW148204  11.509  14.873  12.390
15455SOL    HW248205  11.605  14.778  12.457
15456SOL     OW48206  13.591   0.723   0.395
15456SOL    HW148207  13.590   0.670   0.315
15456SOL    HW248208  13.525   0.790   0.380
15457SOL     OW48209   4.840   6.858  11.101
15457SOL    HW148210   4.847   6.770  11.138
15457SOL    HW248211   4.782   6.848  11.026
15458SOL     OW48212  13.579  13.046  11.497
15458SOL    HW148213  13.614  12.967  11.539
15458SOL    HW248214  13.497  13.063  11.542
15459SOL     OW48215   8.580   0.202   6.677
15459SOL    HW148216   8.523   0.220   6.752
15459SOL    HW248217   8.617   0.288   6.654
15460SOL     OW48218  11.275  12.627  12.088
15460SOL    HW148219  11.207  12.561  12.101
15460SOL    HW248220  11.234  12.709  12.115
15461SOL     OW48221   8.843   2.735   1.898
15461SOL    HW148222   8.883   2.749   1.983
15461SOL    HW248223   8.861   2.643   1.878
15462SOL     OW48224  13.925   6.742  10.742
15462SOL    HW148225  14.007   6.703  10.772
15462SOL    HW248226  13.931   6.833  10.770
15463SOL     OW48227   3.268  11.823   4.174
15463SOL    HW148228   3.202  11.786   4.115
15463SOL    HW248229   3.315  11.887   4.120
15464SOL     OW48230  13.590   0.337  12.368
15464SOL    HW148231  13.497   0.360  12.374
15464SOL    HW248232  13.608   0.334  12.274
15465SOL     OW48233   8.637   4.557   5.018
15465SOL    HW148234   8.578   4.511   4.959
15465SOL    HW248235   8.607   4.648   5.015
15466SOL     OW48236   1.934   2.889  13.670
15466SOL    HW148237   1.923   2.899  13.576
15466SOL    HW248238   1.892   2.967  13.707
15467SOL     OW48239  13.099   3.736  14.205
15467SOL    HW148240  13.020   3.692  14.238
15467SOL    HW248241  13.124   3.685  14.128
15468SOL     OW48242  11.441   2.828   5.117
15468SOL    HW148243  11.389   2.835   5.037
15468SOL    HW248244  11.437   2.915   5.157
15469SOL     OW48245   8.543  10.134   0.419
15469SOL    HW148246   8.475  10.190   0.457
15469SOL    HW248247   8.537  10.150   0.325
15470SOL     OW48248   2.655  10.044  11.602
15470SOL    HW148249   2.668  10.137  11.589
15470SOL    HW248250   2.741  10.011  11.628
15471SOL     OW48251   1.304  12.290   7.461
15471SOL    HW148252   1.222  12.326   7.427
15471SOL    HW248253   1.326  12.346   7.535
15472SOL     OW48254   3.192   3.325   0.222
15472SOL    HW148255   3.253   3.254   0.200
15472SOL    HW248256   3.105   3.286   0.208
15473SOL     OW48257   5.434  12.887   8.592
15473SOL    HW148258   5.408  12.975   8.564
15473SOL    HW248259   5.468  12.899   8.681
15474SOL     OW48260   2.148   5.382   3.467
15474SOL    HW148261   2.172   5.467   3.504
15474SOL    HW248262   2.058   5.393   3.436
15475SOL     OW48263  13.929   8.540   5.699
15475SOL    HW148264  13.931   8.476   5.770
15475SOL    HW248265  13.967   8.494   5.624
15476SOL     OW48266   6.631  13.895   8.687
15476SOL    HW148267   6.596  13.931   8.769
15476SOL    HW248268   6.685  13.821   8.714
15477SOL     OW48269   2.822  12.656  14.816
15477SOL    HW148270   2.839  12.568  14.782
15477SOL    HW248271   2.752  12.644   0.003
15478SOL     OW48272   8.533  13.903   8.238
15478SOL    HW148273   8.555  13.818   8.277
15478SOL    HW248274   8.466  13.939   8.296
15479SOL     OW48275   0.084   4.296   6.367
15479SOL    HW148276   0.060   4.371   6.422
15479SOL    HW248277   0.014   4.232   6.384
15480SOL     OW48278   6.351   7.024   4.324
15480SOL    HW148279   6.387   6.981   4.402
15480SOL    HW248280   6.259   7.001   4.324
15481SOL     OW48281   5.364  13.343   7.104
15481SOL    HW148282   5.346  13.412   7.169
15481SOL    HW248283   5.423  13.283   7.149
15482SOL     OW48284  13.043  12.142  10.839
15482SOL    HW148285  13.073  12.223  10.879
15482SOL    HW248286  13.120  12.105  10.797
15483SOL     OW48287   8.215  12.573  14.575
15483SOL    HW148288   8.290  12.631  14.587
15483SOL    HW248289   8.167  12.611  14.501
15484SOL     OW48290   8.140   2.395  11.605
15484SOL    HW148291   8.123   2.485  11.576
15484SOL    HW248292   8.207   2.363  11.546
15485SOL     OW48293  13.404  14.734  14.850
15485SOL    HW148294  13.474  14.799  14.842
15485SOL    HW248295  13.431  14.662  14.793
15486SOL     OW48296   2.167   8.567  10.462
15486SOL    HW148297   2.160   8.472  10.472
15486SOL    HW248298   2.229   8.595  10.529
15487SOL     OW48299   0.975   5.637  10.163
15487SOL    HW148300   0.952   5.724  10.196
15487SOL    HW248301   1.049   5.652  10.104
15488SOL     OW48302  14.036   8.424   0.613
15488SOL    HW148303  14.114   8.402   0.665
15488SOL    HW248304  14.070   8.456   0.530
15489SOL     OW48305   8.678   9.216  13.668
15489SOL    HW148306   8.679   9.131  13.713
15489SOL    HW248307   8.762   9.256  13.691
15490SOL     OW48308   4.646   0.153   6.980
15490SOL    HW148309   4.642   0.086   6.911
15490SOL    HW248310   4.698   0.113   7.050
15491SOL     OW48311   4.207   5.134   4.090
15491SOL    HW148312   4.299   5.124   4.068
15491SOL    HW248313   4.205   5.133   4.186
15492SOL     OW48314   4.312   8.045   2.170
15492SOL    HW148315   4.324   8.134   2.202
15492SOL    HW248316   4.339   7.990   2.243
15493SOL     OW48317  10.061   0.028   9.147
15493SOL    HW148318  10.014  14.831   9.185
15493SOL    HW248319   9.996   0.074   9.094
15494SOL     OW48320   2.090   1.183  10.607
15494SOL    HW148321   2.130   1.252  10.661
15494SOL    HW248322   2.051   1.123  10.671
15495SOL     OW48323   8.217   3.796  10.510
15495SOL    HW148324   8.282   3.867  10.511
15495SOL    HW248325   8.142   3.833  10.462
15496SOL     OW48326   5.045   3.948   0.431
15496SOL    HW148327   5.126   3.913   0.469
15496SOL    HW248328   5.075   4.001   0.357
15497SOL     OW48329   7.835   2.139  14.719
15497SOL    HW148330   7.787   2.213  14.682
15497SOL    HW248331   7.852   2.082  14.645
15498SOL     OW48332  14.118  14.815  12.073
15498SOL    HW148333  14.188  14.799  12.010
15498SOL    HW248334  14.037  14.800  12.024
15499SOL     OW48335   1.822  13.027   4.995
15499SOL    HW148336   1.912  12.998   5.008
15499SOL    HW248337   1.768  12.950   5.012
15500SOL     OW48338   1.030  11.256   4.118
15500SOL    HW148339   1.056  11.220   4.033
15500SOL    HW248340   0.976  11.187   4.157
15501SOL     OW48341   1.117   7.403  11.488
15501SOL    HW148342   1.182   7.399  11.557
15501SOL    HW248343   1.033   7.409  11.534
15502SOL     OW48344   7.488   4.355   4.716
15502SOL    HW148345   7.409   4.305   4.732
15502SOL    HW248346   7.458   4.439   4.681
15503SOL     OW48347  13.469   8.684  14.106
15503SOL    HW148348  13.420   8.619  14.156
15503SOL    HW248349  13.439   8.673  14.016
15504SOL     OW48350   1.046  13.962   5.668
15504SOL    HW148351   1.051  13.961   5.763
15504SOL    HW248352   0.956  13.934   5.648
15505SOL     OW48353   9.983   8.013  10.347
15505SOL    HW148354   9.943   7.953  10.410
15505SOL    HW248355  10.009   8.089  10.399
15506SOL     OW48356   9.369   5.004   2.702
15506SOL    HW148357   9.326   4.921   2.721
15506SOL    HW248358   9.296   5.064   2.684
15507SOL     OW48359   9.822  11.719   8.272
15507SOL    HW148360   9.866  11.661   8.210
15507SOL    HW248361   9.809  11.801   8.223
15508SOL     OW48362   1.797   3.195  13.128
15508SOL    HW148363   1.783   3.101  13.135
15508SOL    HW248364   1.774   3.230  13.214
15509SOL     OW48365   0.829   1.283   5.542
15509SOL    HW148366   0.800   1.315   5.628
15509SOL    HW248367   0.818   1.358   5.484
15510SOL     OW48368   1.924   2.382   9.900
15510SOL    HW148369   1.985   2.406   9.969
15510SOL    HW248370   1.948   2.437   9.826
15511SOL     OW48371   2.571   1.220  11.193
15511SOL    HW148372   2.481   1.236  11.223
15511SOL    HW248373   2.599   1.303  11.155
15512SOL     OW48374  12.902   2.657   8.078
15512SOL    HW148375  12.876   2.702   7.997
15512SOL    HW248376  12.997   2.652   8.073
15513SOL     OW48377   7.687   1.657  10.732
15513SOL    HW148378   7.720   1.710  10.659
15513SOL    HW248379   7.667   1.721  10.800
15514SOL     OW48380   4.419   7.601   9.056
15514SOL    HW148381   4.497   7.633   9.011
15514SOL    HW248382   4.446   7.588   9.147
15515SOL     OW48383   2.123  14.637   1.091
15515SOL    HW148384   2.152  14.580   1.020
15515SOL    HW248385   2.134  14.585   1.170
15516SOL     OW48386  13.330  14.299   3.421
15516SOL    HW148387  13.376  14.221   3.452
15516SOL    HW248388  13.353  14.304   3.328
15517SOL     OW48389   3.161  10.494   8.712
15517SOL    HW148390   3.228  10.455   8.656
15517SOL    HW248391   3.100  10.536   8.652
15518SOL     OW48392   2.084   2.333  13.275
15518SOL    HW148393   2.030   2.306  13.200
15518SOL    HW248394   2.026   2.390  13.326
15519SOL     OW48395   0.839  12.951  11.107
15519SOL    HW148396   0.894  12.923  11.035
15519SOL    HW248397   0.771  12.883  11.113
15520SOL     OW48398   9.416  11.248   9.598
15520SOL    HW148399   9.444  11.325   9.648
15520SOL    HW248400   9.325  11.265   9.577
15521SOL     OW48401   3.986   1.678  12.068
15521SOL    HW148402   4.049   1.607  12.080
15521SOL    HW248403   3.907   1.635  12.035
15522SOL     OW48404  14.162   7.984   4.496
15522SOL    HW148405  14.191   8.016   4.410
15522SOL    HW248406  14.210   7.902   4.508
15523SOL     OW48407  12.450   9.324   0.591
15523SOL    HW148408  12.373   9.282   0.552
15523SOL    HW248409  12.524   9.270   0.563
15524SOL     OW48410  10.197   7.808   5.369
15524SOL    HW148411  10.118   7.780   5.415
15524SOL    HW248412  10.170   7.816   5.278
15525SOL     OW48413   6.078   7.852   8.971
15525SOL    HW148414   6.030   7.827   8.892
15525SOL    HW248415   6.030   7.927   9.005
15526SOL     OW48416  10.372   3.672  10.477
15526SOL    HW148417  10.294   3.710  10.437
15526SOL    HW248418  10.351   3.666  10.570
15527SOL     OW48419   9.539  11.659  11.806
15527SOL    HW148420   9.545  11.732  11.868
15527SOL    HW248421   9.601  11.594  11.840
15528SOL     OW48422   7.441   3.303   6.223
15528SOL    HW148423   7.496   3.375   6.193
15528SOL    HW248424   7.485   3.270   6.301
15529SOL     OW48425   8.671   2.314   2.087
15529SOL    HW148426   8.663   2.358   2.171
15529SOL    HW248427   8.708   2.381   2.029
15530SOL     OW48428   4.729   9.149  11.891
15530SOL    HW148429   4.770   9.062  11.895
15530SOL    HW248430   4.707   9.161  11.799
15531SOL     OW48431   6.426   5.723   6.973
15531SOL    HW148432   6.442   5.787   6.904
15531SOL    HW248433   6.354   5.761   7.024
15532SOL     OW48434  10.005   2.929   5.182
15532SOL    HW148435   9.964   2.897   5.102
15532SOL    HW248436  10.096   2.899   5.176
15533SOL     OW48437   4.852   5.513   0.457
15533SOL    HW148438   4.797   5.541   0.530
15533SOL    HW248439   4.930   5.476   0.498
15534SOL     OW48440   4.726   1.879   9.391
15534SOL    HW148441   4.631   1.883   9.381
15534SOL    HW248442   4.740   1.820   9.465
15535SOL     OW48443  10.771   5.746   9.928
15535SOL    HW148444  10.815   5.702   9.855
15535SOL    HW248445  10.701   5.797   9.886
15536SOL     OW48446   4.399   8.376   7.792
15536SOL    HW148447   4.472   8.436   7.777
15536SOL    HW248448   4.382   8.382   7.886
15537SOL     OW48449  12.552   5.219   5.019
15537SOL    HW148450  12.521   5.309   5.029
15537SOL    HW248451  12.487   5.166   5.065
15538SOL     OW48452  11.155  13.705   0.848
15538SOL    HW148453  11.179  13.618   0.878
15538SOL    HW248454  11.059  13.705   0.848
15539SOL     OW48455   1.087   4.664   2.809
15539SOL    HW148456   1.180   4.658   2.786
15539SOL    HW248457   1.052   4.730   2.748
15540SOL     OW48458   4.790  13.743   0.667
15540SOL    HW148459   4.877  13.710   0.643
15540SOL    HW248460   4.796  13.837   0.655
15541SOL     OW48461   9.027  10.189   7.710
15541SOL    HW148462   9.116  10.158   7.693
15541SOL    HW248463   8.971  10.118   7.679
15542SOL     OW48464   4.721   8.858   6.326
15542SOL    HW148465   4.754   8.853   6.236
15542SOL    HW248466   4.786   8.811   6.378
15543SOL     OW48467   9.581   8.749   9.205
15543SOL    HW148468   9.494   8.709   9.200
15543SOL    HW248469   9.640   8.684   9.165
15544SOL     OW48470   9.842   8.852  11.242
15544SOL    HW148471   9.915   8.889  11.292
15544SOL    HW248472   9.837   8.906  11.163
15545SOL     OW48473   4.172   2.779   9.245
15545SOL    HW148474   4.251   2.729   9.266
15545SOL    HW248475   4.173   2.853   9.306
15546SOL     OW48476   5.897  11.988   5.231
15546SOL    HW148477   5.841  11.911   5.240
15546SOL    HW248478   5.944  11.993   5.314
15547SOL     OW48479   7.758   0.362   3.704
15547SOL    HW148480   7.737   0.341   3.613
15547SOL    HW248481   7.673   0.377   3.745
15548SOL     OW48482  10.684   1.511   1.812
15548SOL    HW148483  10.777   1.504   1.835
15548SOL    HW248484  10.680   1.584   1.750
15549SOL     OW48485   6.568   8.987   9.840
15549SOL    HW148486   6.534   8.898   9.840
15549SOL    HW248487   6.512   9.034   9.901
15550SOL     OW48488   4.322  12.654   1.741
15550SOL    HW148489   4.268  12.575   1.731
15550SOL    HW248490   4.410  12.621   1.756
15551SOL     OW48491  10.622   2.214   4.071
15551SOL    HW148492  10.664   2.247   4.151
15551SOL    HW248493  10.652   2.274   4.002
15552SOL     OW48494   9.624   3.605   6.640
15552SOL    HW148495   9.706   3.591   6.593
15552SOL    HW248496   9.556   3.588   6.574
15553SOL     OW48497   5.138   4.087  11.174
15553SOL    HW148498   5.105   4.067  11.087
15553SOL    HW248499   5.221   4.039  11.180
15554SOL     OW48500   9.572   5.901   5.960
15554SOL    HW148501   9.526   5.884   6.042
15554SOL    HW248502   9.663   5.915   5.985
15555SOL     OW48503   9.946   1.405   0.950
15555SOL    HW148504   9.963   1.483   0.898
15555SOL    HW248505   9.961   1.432   1.040
15556SOL     OW48506   7.714   0.611   2.191
15556SOL    HW148507   7.694   0.523   2.225
15556SOL    HW248508   7.707   0.668   2.268
15557SOL     OW48509  14.725  14.700   4.798
15557SOL    HW148510  14.706  14.685   4.706
15557SOL    HW248511  14.654  14.655   4.845
15558SOL     OW48512   7.437   1.716   1.675
15558SOL    HW148513   7.467   1.688   1.762
15558SOL    HW248514   7.502   1.680   1.615
15559SOL     OW48515   2.485  12.814   1.913
15559SOL    HW148516   2.453  12.895   1.951
15559SOL    HW248517   2.542  12.776   1.979
15560SOL     OW48518  11.203   3.196   4.464
15560SOL    HW148519  11.245   3.121   4.505
15560SOL    HW248520  11.243   3.202   4.377
15561SOL     OW48521   9.709   5.468  13.778
15561SOL    HW148522   9.690   5.523  13.702
15561SOL    HW248523   9.795   5.431  13.760
15562SOL     OW48524   1.147   5.317   7.428
15562SOL    HW148525   1.084   5.246   7.411
15562SOL    HW248526   1.218   5.301   7.365
15563SOL     OW48527   6.975   0.881   2.314
15563SOL    HW148528   6.986   0.876   2.219
15563SOL    HW248529   6.926   0.963   2.328
15564SOL     OW48530  12.263   1.912  13.306
15564SOL    HW148531  12.346   1.865  13.301
15564SOL    HW248532  12.241   1.932  13.215
15565SOL     OW48533   5.005   6.669  14.519
15565SOL    HW148534   5.007   6.585  14.565
15565SOL    HW248535   4.939   6.720  14.565
15566SOL     OW48536  11.847   4.545  14.862
15566SOL    HW148537  11.769   4.489  14.862
15566SOL    HW248538  11.890   4.527  14.779
15567SOL     OW48539  10.929  12.783  12.744
15567SOL    HW148540  10.922  12.877  12.729
15567SOL    HW248541  10.859  12.745  12.692
15568SOL     OW48542  13.917   6.520   0.609
15568SOL    HW148543  13.995   6.555   0.654
15568SOL    HW248544  13.927   6.548   0.519
15569SOL     OW48545  10.528  12.322   9.805
15569SOL    HW148546  10.586  12.351   9.876
15569SOL    HW248547  10.498  12.235   9.832
15570SOL     OW48548   5.786   0.199   8.872
15570SOL    HW148549   5.728   0.187   8.947
15570SOL    HW248550   5.874   0.199   8.909
15571SOL     OW48551  13.623   7.902  10.407
15571SOL    HW148552  13.539   7.875  10.369
15571SOL    HW248553  13.598   7.948  10.487
15572SOL     OW48554   1.677  14.282  10.785
15572SOL    HW148555   1.698  14.346  10.854
15572SOL    HW248556   1.757  14.277  10.733
15573SOL     OW48557   9.446   0.821   6.440
15573SOL    HW148558   9.509   0.817   6.512
15573SOL    HW248559   9.374   0.764   6.467
15574SOL     OW48560  14.283   3.524   3.064
15574SOL    HW148561  14.349   3.579   3.105
15574SOL    HW248562  14.297   3.536   2.970
15575SOL     OW48563   2.569  11.918   9.140
15575SOL    HW148564   2.623  11.852   9.184
15575SOL    HW248565   2.516  11.956   9.210
15576SOL     OW48566  11.797   2.981   4.175
15576SOL    HW148567  11.863   2.914   4.153
15576SOL    HW248568  11.836   3.063   4.144
15577SOL     OW48569   0.453  11.984  14.665
15577SOL    HW148570   0.435  11.907  14.611
15577SOL    HW248571   0.376  12.040  14.653
15578SOL     OW48572  13.727   2.943  13.819
15578SOL    HW148573  13.645   2.909  13.783
15578SOL    HW248574  13.780   2.964  13.742
15579SOL     OW48575   1.506   0.161  13.512
15579SOL    HW148576   1.548   0.133  13.593
15579SOL    HW248577   1.441   0.226  13.540
15580SOL     OW48578   8.001   7.878  14.178
15580SOL    HW148579   8.053   7.954  14.205
15580SOL    HW248580   7.945   7.910  14.108
15581SOL     OW48581   8.251   2.906   9.161
15581SOL    HW148582   8.295   2.990   9.147
15581SOL    HW248583   8.277   2.852   9.086
15582SOL     OW48584  12.204   7.511  11.143
15582SOL    HW148585  12.223   7.486  11.052
15582SOL    HW248586  12.203   7.607  11.141
15583SOL     OW48587   1.649  11.134   8.291
15583SOL    HW148588   1.573  11.183   8.259
15583SOL    HW248589   1.637  11.045   8.258
15584SOL     OW48590   2.902  11.570   4.358
15584SOL    HW148591   2.819  11.570   4.407
15584SOL    HW248592   2.884  11.519   4.279
15585SOL     OW48593   3.494  13.675   7.664
15585SOL    HW148594   3.438  13.657   7.739
15585SOL    HW248595   3.578  13.635   7.687
15586SOL     OW48596   0.556   5.244   7.645
15586SOL    HW148597   0.554   5.220   7.552
15586SOL    HW248598   0.475   5.207   7.680
15587SOL     OW48599   3.288   4.958  10.211
15587SOL    HW148600   3.200   4.954  10.246
15587SOL    HW248601   3.292   4.887  10.147
15588SOL     OW48602  13.851  12.850   8.700
15588SOL    HW148603  13.835  12.783   8.633
15588SOL    HW248604  13.883  12.800   8.775
15589SOL     OW48605  14.447   3.891   3.333
15589SOL    HW148606  14.504   3.968   3.332
15589SOL    HW248607  14.467   3.845   3.251
15590SOL     OW48608  13.281  11.757  14.167
15590SOL    HW148609  13.278  11.661  14.171
15590SOL    HW248610  13.280  11.777  14.074
15591SOL     OW48611   3.721   9.487   0.554
15591SOL    HW148612   3.769   9.489   0.472
15591SOL    HW248613   3.737   9.400   0.590
15592SOL     OW48614   3.937   8.261   7.783
15592SOL    HW148615   3.971   8.186   7.832
15592SOL    HW248616   4.010   8.323   7.779
15593SOL     OW48617   7.916  11.641   6.845
15593SOL    HW148618   7.821  11.641   6.835
15593SOL    HW248619   7.941  11.733   6.840
15594SOL     OW48620  10.353   0.635   1.002
15594SOL    HW148621  10.289   0.701   0.973
15594SOL    HW248622  10.406   0.618   0.924
15595SOL     OW48623   2.699   5.773   9.800
15595SOL    HW148624   2.749   5.830   9.859
15595SOL    HW248625   2.717   5.808   9.713
15596SOL     OW48626  14.447  11.055   2.616
15596SOL    HW148627  14.479  11.137   2.579
15596SOL    HW248628  14.416  11.006   2.540
15597SOL     OW48629   5.109  12.090   8.818
15597SOL    HW148630   5.097  12.025   8.749
15597SOL    HW248631   5.159  12.045   8.886
15598SOL     OW48632   0.184   8.602   7.041
15598SOL    HW148633   0.120   8.542   7.003
15598SOL    HW248634   0.221   8.648   6.966
15599SOL     OW48635  12.659  14.162  13.146
15599SOL    HW148636  12.679  14.251  13.118
15599SOL    HW248637  12.683  14.161  13.239
15600SOL     OW48638   3.121  12.838   3.274
15600SOL    HW148639   3.179  12.914   3.284
15600SOL    HW248640   3.033  12.874   3.285
15601SOL     OW48641   8.952   1.031   7.522
15601SOL    HW148642   8.984   1.055   7.435
15601SOL    HW248643   9.021   0.976   7.559
15602SOL     OW48644  10.769  14.280  12.244
15602SOL    HW148645  10.693  14.301  12.190
15602SOL    HW248646  10.792  14.363  12.286
15603SOL     OW48647   5.922   9.474   9.586
15603SOL    HW148648   6.013   9.448   9.605
15603SOL    HW248649   5.873   9.392   9.589
15604SOL     OW48650   6.063   6.003   5.122
15604SOL    HW148651   6.008   6.023   5.198
15604SOL    HW248652   6.152   6.003   5.157
15605SOL     OW48653  14.840   4.109   1.233
15605SOL    HW148654   0.020   4.044   1.277
15605SOL    HW248655   0.025   4.176   1.202
15606SOL     OW48656  12.197   7.311  13.801
15606SOL    HW148657  12.187   7.362  13.720
15606SOL    HW248658  12.108   7.294  13.830
15607SOL     OW48659  13.839   7.800  12.981
15607SOL    HW148660  13.835   7.875  12.922
15607SOL    HW248661  13.748   7.782  13.004
15608SOL     OW48662   5.493   2.355   6.164
15608SOL    HW148663   5.504   2.450   6.162
15608SOL    HW248664   5.444   2.335   6.084
15609SOL     OW48665   7.748   1.839   6.220
15609SOL    HW148666   7.717   1.865   6.307
15609SOL    HW248667   7.796   1.758   6.234
15610SOL     OW48668   0.750   6.485  12.976
15610SOL    HW148669   0.793   6.540  12.911
15610SOL    HW248670   0.817   6.469  13.043
15611SOL     OW48671   3.340  13.541   4.818
15611SOL    HW148672   3.397  13.499   4.883
15611SOL    HW248673   3.367  13.633   4.818
15612SOL     OW48674   9.552  14.416   5.648
15612SOL    HW148675   9.573  14.493   5.595
15612SOL    HW248676   9.463  14.393   5.621
15613SOL     OW48677  13.853   4.509   2.743
15613SOL    HW148678  13.849   4.602   2.721
15613SOL    HW248679  13.872   4.465   2.660
15614SOL     OW48680   8.887   2.440   8.524
15614SOL    HW148681   8.839   2.487   8.456
15614SOL    HW248682   8.858   2.349   8.515
15615SOL     OW48683   7.851  10.694   9.489
15615SOL    HW148684   7.816  10.781   9.468
15615SOL    HW248685   7.900  10.708   9.570
15616SOL     OW48686  13.233   5.007  11.620
15616SOL    HW148687  13.188   4.940  11.569
15616SOL    HW248688  13.287   5.054  11.556
15617SOL     OW48689  11.057  12.325  10.428
15617SOL    HW148690  11.079  12.398  10.371
15617SOL    HW248691  10.970  12.296  10.398
15618SOL     OW48692   3.429  14.807  10.268
15618SOL    HW148693   3.508  14.825  10.319
15618SOL    HW248694   3.394   0.017  10.246
15619SOL     OW48695   1.176  13.749   1.083
15619SOL    HW148696   1.151  13.829   1.037
15619SOL    HW248697   1.226  13.699   1.019
15620SOL     OW48698   6.516   4.264  13.613
15620SOL    HW148699   6.426   4.243  13.587
15620SOL    HW248700   6.540   4.340  13.561
15621SOL     OW48701  10.918  13.312   3.241
15621SOL    HW148702  10.853  13.363   3.289
15621SOL    HW248703  10.880  13.225   3.234
15622SOL     OW48704   8.279   3.212  13.111
15622SOL    HW148705   8.271   3.291  13.057
15622SOL    HW248706   8.274   3.139  13.049
15623SOL     OW48707   9.279   5.612   3.615
15623SOL    HW148708   9.350   5.674   3.601
15623SOL    HW248709   9.261   5.577   3.527
15624SOL     OW48710   0.644  11.868   9.278
15624SOL    HW148711   0.592  11.827   9.348
15624SOL    HW248712   0.637  11.807   9.205
15625SOL     OW48713  14.365  14.488  11.783
15625SOL    HW148714  14.360  14.531  11.697
15625SOL    HW248715  14.438  14.427  11.775
15626SOL     OW48716  11.917   9.602   9.651
15626SOL    HW148717  11.874   9.517   9.637
15626SOL    HW248718  12.007   9.580   9.675
15627SOL     OW48719   1.670   6.995  12.687
15627SOL    HW148720   1.754   6.951  12.674
15627SOL    HW248721   1.689   7.066  12.748
15628SOL     OW48722  10.857   3.213   6.918
15628SOL    HW148723  10.886   3.139   6.866
15628SOL    HW248724  10.769   3.189   6.949
15629SOL     OW48725  12.239   3.220  11.231
15629SOL    HW148726  12.209   3.155  11.166
15629SOL    HW248727  12.184   3.296  11.215
15630SOL     OW48728   3.526   6.838   7.418
15630SOL    HW148729   3.510   6.931   7.433
15630SOL    HW248730   3.598   6.836   7.355
15631SOL     OW48731   3.464   7.946   2.602
15631SOL    HW148732   3.484   8.018   2.661
15631SOL    HW248733   3.515   7.872   2.636
15632SOL     OW48734  14.581   0.032   6.262
15632SOL    HW148735  14.621  14.835   6.215
15632SOL    HW248736  14.490   0.032   6.234
15633SOL     OW48737   8.204   7.873   1.196
15633SOL    HW148738   8.228   7.829   1.277
15633SOL    HW248739   8.287   7.886   1.150
15634SOL     OW48740   3.413   1.307  13.052
15634SOL    HW148741   3.450   1.314  12.964
15634SOL    HW248742   3.341   1.244  13.043
15635SOL     OW48743  12.289  12.779   2.583
15635SOL    HW148744  12.233  12.708   2.551
15635SOL    HW248745  12.272  12.852   2.523
15636SOL     OW48746  14.291   0.740  10.505
15636SOL    HW148747  14.312   0.651  10.476
15636SOL    HW248748  14.321   0.743  10.596
15637SOL     OW48749   4.960  14.785  13.751
15637SOL    HW148750   5.031  14.826  13.801
15637SOL    HW248751   4.922  14.857  13.699
15638SOL     OW48752   6.996  11.047   0.874
15638SOL    HW148753   6.920  10.992   0.858
15638SOL    HW248754   7.014  11.088   0.789
15639SOL     OW48755   3.330  14.320   2.735
15639SOL    HW148756   3.285  14.296   2.816
15639SOL    HW248757   3.419  14.341   2.762
15640SOL     OW48758  11.417  10.715   0.718
15640SOL    HW148759  11.448  10.727   0.808
15640SOL    HW248760  11.404  10.804   0.685
15641SOL     OW48761  12.693  12.719   0.545
15641SOL    HW148762  12.633  12.721   0.470
15641SOL    HW248763  12.778  12.697   0.507
15642SOL     OW48764   0.821   3.626   8.141
15642SOL    HW148765   0.823   3.569   8.064
15642SOL    HW248766   0.903   3.674   8.137
15643SOL     OW48767   9.259  11.226   9.317
15643SOL    HW148768   9.203  11.208   9.392
15643SOL    HW248769   9.252  11.320   9.302
15644SOL     OW48770  12.666   7.337   0.276
15644SOL    HW148771  12.651   7.278   0.202
15644SOL    HW248772  12.707   7.414   0.237
15645SOL     OW48773   9.944  14.710   5.634
15645SOL    HW148774   9.916  14.622   5.661
15645SOL    HW248775  10.038  14.700   5.616
15646SOL     OW48776  13.274   4.446   9.952
15646SOL    HW148777  13.349   4.494   9.916
15646SOL    HW248778  13.255   4.379   9.886
15647SOL     OW48779  13.410  12.322  14.557
15647SOL    HW148780  13.326  12.342  14.597
15647SOL    HW248781  13.467  12.394  14.583
15648SOL     OW48782  11.764   2.222  11.717
15648SOL    HW148783  11.777   2.183  11.631
15648SOL    HW248784  11.846   2.207  11.763
15649SOL     OW48785   5.381   8.510   4.431
15649SOL    HW148786   5.296   8.480   4.462
15649SOL    HW248787   5.395   8.461   4.350
15650SOL     OW48788   4.641  12.722   7.031
15650SOL    HW148789   4.609  12.639   6.996
15650SOL    HW248790   4.615  12.721   7.123
15651SOL     OW48791  11.659   1.690   6.251
15651SOL    HW148792  11.720   1.761   6.270
15651SOL    HW248793  11.669   1.628   6.324
15652SOL     OW48794   4.074  10.493   0.835
15652SOL    HW148795   4.137  10.486   0.763
15652SOL    HW248796   4.000  10.541   0.798
15653SOL     OW48797   8.825   8.210   5.817
15653SOL    HW148798   8.757   8.268   5.784
15653SOL    HW248799   8.891   8.208   5.748
15654SOL     OW48800  11.349   7.588   8.358
15654SOL    HW148801  11.363   7.524   8.428
15654SOL    HW248802  11.418   7.569   8.295
15655SOL     OW48803  14.714  14.274   6.825
15655SOL    HW148804  14.688  14.228   6.745
15655SOL    HW248805  14.694  14.366   6.807
15656SOL     OW48806  14.543   9.882   8.064
15656SOL    HW148807  14.630   9.913   8.088
15656SOL    HW248808  14.527   9.920   7.978
15657SOL     OW48809   3.857   4.007   2.792
15657SOL    HW148810   3.946   4.043   2.784
15657SOL    HW248811   3.842   4.002   2.886
15658SOL     OW48812   4.220  12.467   9.331
15658SOL    HW148813   4.211  12.408   9.256
15658SOL    HW248814   4.158  12.432   9.396
15659SOL     OW48815  12.664   3.994  11.646
15659SOL    HW148816  12.760   3.988  11.641
15659SOL    HW248817  12.632   3.943  11.572
15660SOL     OW48818  13.169   4.825   2.130
15660SOL    HW148819  13.204   4.737   2.143
15660SOL    HW248820  13.126   4.845   2.213
15661SOL     OW48821   4.757   4.097   6.950
15661SOL    HW148822   4.806   4.179   6.947
15661SOL    HW248823   4.803   4.043   7.014
15662SOL     OW48824   3.459  13.324   2.315
15662SOL    HW148825   3.541  13.309   2.362
15662SOL    HW248826   3.404  13.249   2.339
15663SOL     OW48827  12.146   5.203  10.801
15663SOL    HW148828  12.067   5.202  10.747
15663SOL    HW248829  12.176   5.294  10.798
15664SOL     OW48830  10.855   8.217   4.560
15664SOL    HW148831  10.812   8.189   4.479
15664SOL    HW248832  10.783   8.237   4.620
15665SOL     OW48833   7.410   8.741   9.919
15665SOL    HW148834   7.328   8.694   9.933
15665SOL    HW248835   7.464   8.718   9.995
15666SOL     OW48836   8.955  11.751   4.617
15666SOL    HW148837   8.907  11.829   4.591
15666SOL    HW248838   8.931  11.685   4.553
15667SOL     OW48839  14.717   4.562  11.971
15667SOL    HW148840  14.807   4.551  11.939
15667SOL    HW248841  14.663   4.556  11.893
15668SOL     OW48842   3.289   8.353   7.429
15668SOL    HW148843   3.263   8.332   7.519
15668SOL    HW248844   3.302   8.448   7.429
15669SOL     OW48845   1.833   2.983   6.579
15669SOL    HW148846   1.808   2.930   6.655
15669SOL    HW248847   1.907   2.936   6.540
15670SOL     OW48848   5.650   3.449   7.766
15670SOL    HW148849   5.739   3.471   7.794
15670SOL    HW248850   5.622   3.524   7.714
15671SOL     OW48851   6.554  12.553  14.789
15671SOL    HW148852   6.494  12.575  14.860
15671SOL    HW248853   6.607  12.631  14.777
15672SOL     OW48854   2.927   6.814   2.484
15672SOL    HW148855   2.925   6.790   2.576
15672SOL    HW248856   2.843   6.859   2.469
15673SOL     OW48857   3.942   4.793   2.085
15673SOL    HW148858   4.006   4.782   2.155
15673SOL    HW248859   3.889   4.868   2.112
15674SOL     OW48860  10.924   2.851   7.773
15674SOL    HW148861  10.981   2.902   7.716
15674SOL    HW248862  10.929   2.894   7.858
15675SOL     OW48863   8.042   1.895   4.595
15675SOL    HW148864   8.118   1.896   4.537
15675SOL    HW248865   8.079   1.873   4.681
15676SOL     OW48866   7.663   9.783  13.980
15676SOL    HW148867   7.702   9.866  13.952
15676SOL    HW248868   7.735   9.735  14.021
15677SOL     OW48869   8.767   2.286   4.316
15677SOL    HW148870   8.788   2.373   4.349
15677SOL    HW248871   8.711   2.247   4.384
15678SOL     OW48872   2.983   4.698   5.997
15678SOL    HW148873   2.898   4.655   6.005
15678SOL    HW248874   3.028   4.677   6.079
15679SOL     OW48875  12.554   5.949   3.966
15679SOL    HW148876  12.463   5.923   3.978
15679SOL    HW248877  12.594   5.875   3.921
15680SOL     OW48878   8.914   3.014   2.428
15680SOL    HW148879   8.892   2.925   2.453
15680SOL    HW248880   9.005   3.009   2.398
15681SOL     OW48881   7.954   0.699   9.354
15681SOL    HW148882   7.890   0.729   9.289
15681SOL    HW248883   7.934   0.606   9.365
15682SOL     OW48884  11.007   4.886  14.271
15682SOL    HW148885  11.034   4.948  14.338
15682SOL    HW248886  11.042   4.802  14.301
15683SOL     OW48887   2.656  10.167   3.069
15683SOL    HW148888   2.733  10.189   3.016
15683SOL    HW248889   2.585  10.219   3.031
15684SOL     OW48890  10.725   2.747   3.788
15684SOL    HW148891  10.663   2.818   3.805
15684SOL    HW248892  10.697   2.710   3.705
15685SOL     OW48893   8.936   2.759   5.371
15685SOL    HW148894   9.015   2.709   5.354
15685SOL    HW248895   8.942   2.835   5.314
15686SOL     OW48896  12.725  14.638   6.416
15686SOL    HW148897  12.812  14.643   6.455
15686SOL    HW248898  12.680  14.716   6.447
15687SOL     OW48899   2.804   8.762  11.602
15687SOL    HW148900   2.725   8.773  11.656
15687SOL    HW248901   2.873   8.806  11.652
15688SOL     OW48902   7.059  12.858   6.816
15688SOL    HW148903   7.127  12.911   6.856
15688SOL    HW248904   7.005  12.920   6.767
15689SOL     OW48905   9.864   2.725  11.100
15689SOL    HW148906   9.957   2.733  11.080
15689SOL    HW248907   9.835   2.815  11.114
15690SOL     OW48908   0.475  10.053  11.818
15690SOL    HW148909   0.450   9.962  11.831
15690SOL    HW248910   0.395  10.096  11.788
15691SOL     OW48911   8.418   7.899  14.340
15691SOL    HW148912   8.434   7.843  14.265
15691SOL    HW248913   8.379   7.841  14.406
15692SOL     OW48914   5.541  11.183   9.199
15692SOL    HW148915   5.600  11.236   9.253
15692SOL    HW248916   5.589  11.103   9.180
15693SOL     OW48917   7.894   7.836  10.737
15693SOL    HW148918   7.878   7.763  10.796
15693SOL    HW248919   7.977   7.873  10.767
15694SOL     OW48920   7.915   3.692   4.675
15694SOL    HW148921   7.898   3.730   4.761
15694SOL    HW248922   7.850   3.731   4.618
15695SOL     OW48923   7.078   9.224  12.714
15695SOL    HW148924   7.103   9.143  12.668
15695SOL    HW248925   7.055   9.195  12.802
15696SOL     OW48926   4.722   3.179   1.106
15696SOL    HW148927   4.704   3.139   1.191
15696SOL    HW248928   4.789   3.246   1.124
15697SOL     OW48929   6.663  12.310  13.055
15697SOL    HW148930   6.608  12.387  13.041
15697SOL    HW248931   6.604  12.246  13.094
15698SOL     OW48932   8.333   2.992   6.199
15698SOL    HW148933   8.347   3.007   6.292
15698SOL    HW248934   8.371   2.906   6.182
15699SOL     OW48935  14.111   9.719   1.819
15699SOL    HW148936  14.173   9.679   1.758
15699SOL    HW248937  14.086   9.801   1.777
15700SOL     OW48938   9.926   4.157   5.346
15700SOL    HW148939   9.837   4.124   5.349
15700SOL    HW248940   9.917   4.250   5.325
15701SOL     OW48941   0.544   7.393   9.405
15701SOL    HW148942   0.600   7.462   9.369
15701SOL    HW248943   0.500   7.435   9.479
15702SOL     OW48944  14.385  14.304   0.010
15702SOL    HW148945  14.449  14.343  14.827
15702SOL    HW248946  14.436  14.277   0.086
15703SOL     OW48947   3.038   1.327   3.433
15703SOL    HW148948   2.949   1.291   3.431
15703SOL    HW248949   3.026   1.419   3.455
15704SOL     OW48950  11.845   4.006  14.014
15704SOL    HW148951  11.796   4.075  14.059
15704SOL    HW248952  11.792   3.985  13.937
15705SOL     OW48953  14.136  10.010   8.730
15705SOL    HW148954  14.216  10.050   8.765
15705SOL    HW248955  14.159   9.919   8.713
15706SOL     OW48956  12.116  12.376  10.585
15706SOL    HW148957  12.033  12.386  10.538
15706SOL    HW248958  12.164  12.311  10.536
15707SOL     OW48959   4.711   2.560   0.336
15707SOL    HW148960   4.719   2.546   0.431
15707SOL    HW248961   4.794   2.601   0.311
15708SOL     OW48962  11.650   9.897   7.289
15708SOL    HW148963  11.685   9.808   7.281
15708SOL    HW248964  11.643   9.911   7.383
15709SOL     OW48965   0.769  13.515   4.984
15709SOL    HW148966   0.742  13.573   4.912
15709SOL    HW248967   0.830  13.454   4.944
15710SOL     OW48968   3.273   8.804   5.921
15710SOL    HW148969   3.287   8.749   5.844
15710SOL    HW248970   3.182   8.790   5.945
15711SOL     OW48971   9.996  11.041   1.938
15711SOL    HW148972  10.037  10.959   1.966
15711SOL    HW248973  10.020  11.050   1.846
15712SOL     OW48974   2.135   8.356  11.760
15712SOL    HW148975   2.123   8.375  11.853
15712SOL    HW248976   2.077   8.418  11.716
15713SOL     OW48977  10.230   9.473  11.603
15713SOL    HW148978  10.148   9.448  11.560
15713SOL    HW248979  10.258   9.394  11.649
15714SOL     OW48980   0.508   4.329  11.714
15714SOL    HW148981   0.470   4.387  11.780
15714SOL    HW248982   0.435   4.274  11.685
15715SOL     OW48983   4.643   1.626  10.967
15715SOL    HW148984   4.666   1.705  11.016
15715SOL    HW248985   4.714   1.616  10.903
15716SOL     OW48986   5.230   1.235   3.375
15716SOL    HW148987   5.201   1.144   3.375
15716SOL    HW248988   5.195   1.271   3.293
15717SOL     OW48989   3.660  11.763   2.465
15717SOL    HW148990   3.577  11.733   2.502
15717SOL    HW248991   3.685  11.696   2.403
15718SOL     OW48992   4.075  13.651   8.488
15718SOL    HW148993   4.170  13.655   8.498
15718SOL    HW248994   4.061  13.587   8.418
15719SOL     OW48995   8.366   7.648   2.941
15719SOL    HW148996   8.405   7.736   2.934
15719SOL    HW248997   8.337   7.643   3.032
15720SOL     OW48998   4.195   0.506   8.231
15720SOL    HW148999   4.269   0.474   8.180
15720SOL    HW249000   4.183   0.440   8.299
15721SOL     OW49001  13.176   9.872   9.888
15721SOL    HW149002  13.205   9.938   9.825
15721SOL    HW249003  13.214   9.790   9.856
15722SOL     OW49004   8.423   4.729   4.281
15722SOL    HW149005   8.506   4.752   4.240
15722SOL    HW249006   8.401   4.643   4.246
15723SOL     OW49007   3.661   8.656  14.849
15723SOL    HW149008   3.711   8.667  14.768
15723SOL    HW249009   3.570   8.666  14.823
15724SOL     OW49010  11.166   4.327   6.663
15724SOL    HW149011  11.155   4.311   6.757
15724SOL    HW249012  11.244   4.383   6.658
15725SOL     OW49013  12.529  13.954   5.255
15725SOL    HW149014  12.488  13.932   5.339
15725SOL    HW249015  12.622  13.938   5.268
15726SOL     OW49016   1.641  12.143   7.700
15726SOL    HW149017   1.675  12.192   7.625
15726SOL    HW249018   1.583  12.078   7.661
15727SOL     OW49019   6.327   0.839   5.466
15727SOL    HW149020   6.396   0.904   5.452
15727SOL    HW249021   6.373   0.754   5.459
15728SOL     OW49022   7.142   3.788   8.938
15728SOL    HW149023   7.186   3.860   8.983
15728SOL    HW249024   7.183   3.709   8.974
15729SOL     OW49025   5.290   5.949   7.553
15729SOL    HW149026   5.303   5.882   7.487
15729SOL    HW249027   5.195   5.953   7.566
15730SOL     OW49028   0.619   8.078   1.052
15730SOL    HW149029   0.705   8.049   1.079
15730SOL    HW249030   0.608   8.044   0.963
15731SOL     OW49031   0.992   4.412   8.704
15731SOL    HW149032   1.017   4.474   8.635
15731SOL    HW249033   0.896   4.415   8.705
15732SOL     OW49034   6.479   9.331  10.343
15732SOL    HW149035   6.494   9.246  10.301
15732SOL    HW249036   6.423   9.311  10.418
15733SOL     OW49037  10.312   0.765   3.592
15733SOL    HW149038  10.226   0.726   3.605
15733SOL    HW249039  10.361   0.700   3.541
15734SOL     OW49040   1.724   3.968   6.300
15734SOL    HW149041   1.774   3.957   6.381
15734SOL    HW249042   1.640   3.925   6.317
15735SOL     OW49043   0.917   9.683   3.565
15735SOL    HW149044   0.831   9.651   3.538
15735SOL    HW249045   0.967   9.687   3.483
15736SOL     OW49046  13.155   9.566  13.018
15736SOL    HW149047  13.221   9.520  13.070
15736SOL    HW249048  13.195   9.578  12.932
15737SOL     OW49049   2.749   0.739   2.929
15737SOL    HW149050   2.748   0.819   2.876
15737SOL    HW249051   2.832   0.744   2.977
15738SOL     OW49052  10.211   0.926   0.584
15738SOL    HW149053  10.284   0.966   0.537
15738SOL    HW249054  10.155   1.000   0.607
15739SOL     OW49055  11.002   5.102  13.078
15739SOL    HW149056  10.999   5.172  13.012
15739SOL    HW249057  11.072   5.044  13.048
15740SOL     OW49058   5.035   0.914   2.886
15740SOL    HW149059   5.083   0.941   2.964
15740SOL    HW249060   5.060   0.823   2.872
15741SOL     OW49061  10.356   7.317  12.845
15741SOL    HW149062  10.411   7.395  12.858
15741SOL    HW249063  10.362   7.270  12.929
15742SOL     OW49064  10.924  12.953   3.929
15742SOL    HW149065  10.957  12.870   3.895
15742SOL    HW249066  10.851  12.929   3.985
15743SOL     OW49067   8.750   3.108  14.077
15743SOL    HW149068   8.695   3.186  14.083
15743SOL    HW249069   8.789   3.112  13.990
15744SOL     OW49070  12.651   6.018  12.859
15744SOL    HW149071  12.636   6.102  12.816
15744SOL    HW249072  12.569   5.970  12.848
15745SOL     OW49073  14.567   5.854   9.295
15745SOL    HW149074  14.512   5.816   9.227
15745SOL    HW249075  14.515   5.847   9.375
15746SOL     OW49076   7.445  13.305   4.494
15746SOL    HW149077   7.407  13.306   4.582
15746SOL    HW249078   7.370  13.320   4.436
15747SOL     OW49079  11.692   5.071  13.273
15747SOL    HW149080  11.635   5.047  13.346
15747SOL    HW249081  11.753   5.135  13.309
15748SOL     OW49082  11.050  12.421   8.483
15748SOL    HW149083  10.955  12.423   8.491
15748SOL    HW249084  11.077  12.510   8.507
15749SOL     OW49085   2.582  12.125   7.695
15749SOL    HW149086   2.640  12.169   7.632
15749SOL    HW249087   2.494  12.143   7.663
15750SOL     OW49088  13.186   0.663   3.930
15750SOL    HW149089  13.213   0.586   3.879
15750SOL    HW249090  13.267   0.700   3.962
15751SOL     OW49091   1.990   5.824   9.757
15751SOL    HW149092   1.935   5.750   9.732
15751SOL    HW249093   1.934   5.876   9.815
15752SOL     OW49094  12.937  14.717   6.620
15752SOL    HW149095  12.989  14.655   6.569
15752SOL    HW249096  12.994  14.792   6.632
15753SOL     OW49097  14.233   2.978   3.241
15753SOL    HW149098  14.296   2.912   3.212
15753SOL    HW249099  14.266   3.009   3.325
15754SOL     OW49100   8.971   3.652  12.574
15754SOL    HW149101   8.940   3.735  12.612
15754SOL    HW249102   9.059   3.642  12.610
15755SOL     OW49103  12.433   7.598  11.464
15755SOL    HW149104  12.427   7.684  11.422
15755SOL    HW249105  12.496   7.611  11.535
15756SOL     OW49106   3.424   6.137   1.179
15756SOL    HW149107   3.465   6.095   1.255
15756SOL    HW249108   3.481   6.116   1.106
15757SOL     OW49109   3.426   9.201   4.147
15757SOL    HW149110   3.513   9.235   4.126
15757SOL    HW249111   3.373   9.279   4.163
15758SOL     OW49112   7.623  11.939   3.364
15758SOL    HW149113   7.624  12.025   3.406
15758SOL    HW249114   7.602  11.958   3.272
15759SOL     OW49115   0.073  11.953   1.586
15759SOL    HW149116   0.023  11.872   1.590
15759SOL    HW249117   0.095  11.964   1.494
15760SOL     OW49118  11.958   1.613  12.849
15760SOL    HW149119  11.872   1.652  12.864
15760SOL    HW249120  12.017   1.662  12.906
15761SOL     OW49121   9.020   1.431   7.181
15761SOL    HW149122   8.991   1.521   7.168
15761SOL    HW249123   9.088   1.438   7.248
15762SOL     OW49124   9.135   0.526   5.985
15762SOL    HW149125   9.215   0.508   5.936
15762SOL    HW249126   9.166   0.561   6.069
15763SOL     OW49127  12.041   2.252   7.544
15763SOL    HW149128  12.108   2.256   7.476
15763SOL    HW249129  11.962   2.223   7.497
15764SOL     OW49130   1.531  10.130   1.904
15764SOL    HW149131   1.534  10.213   1.952
15764SOL    HW249132   1.474  10.148   1.829
15765SOL     OW49133  10.457   6.758  14.387
15765SOL    HW149134  10.399   6.688  14.417
15765SOL    HW249135  10.421   6.783  14.302
15766SOL     OW49136   7.445   3.494   3.060
15766SOL    HW149137   7.526   3.447   3.075
15766SOL    HW249138   7.441   3.558   3.132
15767SOL     OW49139   8.791  12.725   9.811
15767SOL    HW149140   8.871  12.679   9.840
15767SOL    HW249141   8.742  12.740   9.891
15768SOL     OW49142   1.627  14.652  11.978
15768SOL    HW149143   1.581  14.703  12.045
15768SOL    HW249144   1.720  14.660  12.000
15769SOL     OW49145   2.223   1.647   6.710
15769SOL    HW149146   2.146   1.702   6.695
15769SOL    HW249147   2.266   1.685   6.786
15770SOL     OW49148   2.898   0.908   5.226
15770SOL    HW149149   2.977   0.858   5.246
15770SOL    HW249150   2.884   0.893   5.132
15771SOL     OW49151  14.130   1.775   5.959
15771SOL    HW149152  14.094   1.790   6.047
15771SOL    HW249153  14.062   1.806   5.899
15772SOL     OW49154   5.648   6.529   1.422
15772SOL    HW149155   5.585   6.566   1.361
15772SOL    HW249156   5.624   6.567   1.507
15773SOL     OW49157   9.957   7.436   5.774
15773SOL    HW149158   9.876   7.446   5.724
15773SOL    HW249159  10.019   7.397   5.712
15774SOL     OW49160   2.918  11.043  13.323
15774SOL    HW149161   2.926  10.947  13.328
15774SOL    HW249162   2.976  11.075  13.392
15775SOL     OW49163   6.315   8.558  10.471
15775SOL    HW149164   6.288   8.468  10.451
15775SOL    HW249165   6.273   8.578  10.555
15776SOL     OW49166   8.640   6.899  11.800
15776SOL    HW149167   8.716   6.937  11.757
15776SOL    HW249168   8.565   6.948  11.765
15777SOL     OW49169   7.424   2.947   6.936
15777SOL    HW149170   7.482   2.904   6.998
15777SOL    HW249171   7.336   2.923   6.965
15778SOL     OW49172   3.478   4.981   8.347
15778SOL    HW149173   3.459   4.973   8.440
15778SOL    HW249174   3.464   5.073   8.327
15779SOL     OW49175  11.440   4.465  13.276
15779SOL    HW149176  11.438   4.552  13.315
15779SOL    HW249177  11.359   4.423  13.305
15780SOL     OW49178   2.275   2.843  13.995
15780SOL    HW149179   2.199   2.817  13.943
15780SOL    HW249180   2.272   2.786  14.072
15781SOL     OW49181  12.501   3.644  12.070
15781SOL    HW149182  12.450   3.636  11.989
15781SOL    HW249183  12.533   3.734  12.069
15782SOL     OW49184  13.235   3.825   9.068
15782SOL    HW149185  13.144   3.820   9.039
15782SOL    HW249186  13.229   3.833   9.163
15783SOL     OW49187   8.733  13.863  13.029
15783SOL    HW149188   8.799  13.924  12.995
15783SOL    HW249189   8.764  13.777  13.002
15784SOL     OW49190  10.083   9.572   5.896
15784SOL    HW149191  10.112   9.497   5.949
15784SOL    HW249192  10.017   9.615   5.950
15785SOL     OW49193   7.057   4.414  13.718
15785SOL    HW149194   7.019   4.496  13.750
15785SOL    HW249195   6.982   4.363  13.689
15786SOL     OW49196   6.873   8.321   2.478
15786SOL    HW149197   6.886   8.325   2.384
15786SOL    HW249198   6.956   8.289   2.512
15787SOL     OW49199  11.813   6.514   4.725
15787SOL    HW149200  11.908   6.518   4.726
15787SOL    HW249201  11.789   6.535   4.635
15788SOL     OW49202   1.863  14.691  14.143
15788SOL    HW149203   1.917  14.670  14.219
15788SOL    HW249204   1.862  14.787  14.141
15789SOL     OW49205   1.918   9.615   4.055
15789SOL    HW149206   1.828   9.643   4.073
15789SOL    HW249207   1.938   9.653   3.969
15790SOL     OW49208   6.865   5.924   3.359
15790SOL    HW149209   6.782   5.969   3.375
15790SOL    HW249210   6.846   5.864   3.287
15791SOL     OW49211   7.055  11.109   3.431
15791SOL    HW149212   7.031  11.024   3.468
15791SOL    HW249213   6.973  11.158   3.426
15792SOL     OW49214   1.991   0.103   4.933
15792SOL    HW149215   2.059   0.037   4.919
15792SOL    HW249216   1.934   0.095   4.857
15793SOL     OW49217   0.572   9.847  12.072
15793SOL    HW149218   0.634   9.877  12.006
15793SOL    HW249219   0.589   9.753  12.080
15794SOL     OW49220   3.519  11.413   5.378
15794SOL    HW149221   3.560  11.362   5.308
15794SOL    HW249222   3.438  11.445   5.339
15795SOL     OW49223  12.360  10.413   4.797
15795SOL    HW149224  12.355  10.324   4.761
15795SOL    HW249225  12.384  10.468   4.722
15796SOL     OW49226   0.194  14.305   8.154
15796SOL    HW149227   0.274  14.265   8.121
15796SOL    HW249228   0.158  14.240   8.215
15797SOL     OW49229   5.973   6.624  11.618
15797SOL    HW149230   5.891   6.651  11.575
15797SOL    HW249231   6.001   6.701  11.666
15798SOL     OW49232  13.814   6.711  11.318
15798SOL    HW149233  13.814   6.750  11.231
15798SOL    HW249234  13.905   6.718  11.347
15799SOL     OW49235   1.642  11.613   7.759
15799SOL    HW149236   1.624  11.701   7.725
15799SOL    HW249237   1.731  11.618   7.794
15800SOL     OW49238   9.271   9.735   7.058
15800SOL    HW149239   9.270   9.771   6.969
15800SOL    HW249240   9.350   9.771   7.098
15801SOL     OW49241  14.591   7.060  10.289
15801SOL    HW149242  14.616   6.979  10.333
15801SOL    HW249243  14.557   7.031  10.204
15802SOL     OW49244   3.431  12.413  14.227
15802SOL    HW149245   3.432  12.326  14.186
15802SOL    HW249246   3.473  12.400  14.312
15803SOL     OW49247   9.071   4.349  12.223
15803SOL    HW149248   8.983   4.320  12.200
15803SOL    HW249249   9.070   4.444  12.207
15804SOL     OW49250  12.699  13.788   4.606
15804SOL    HW149251  12.654  13.721   4.555
15804SOL    HW249252  12.785  13.752   4.625
15805SOL     OW49253   7.421   1.170  10.168
15805SOL    HW149254   7.345   1.201  10.218
15805SOL    HW249255   7.402   1.197  10.078
15806SOL     OW49256   5.198   8.929   7.744
15806SOL    HW149257   5.215   9.023   7.745
15806SOL    HW249258   5.200   8.903   7.836
15807SOL     OW49259  13.715   5.884   0.781
15807SOL    HW149260  13.722   5.955   0.718
15807SOL    HW249261  13.625   5.889   0.814
15808SOL     OW49262  11.660   0.326   4.386
15808SOL    HW149263  11.630   0.345   4.474
15808SOL    HW249264  11.724   0.255   4.397
15809SOL     OW49265  13.218  13.932  12.052
15809SOL    HW149266  13.276  13.882  12.110
15809SOL    HW249267  13.247  13.907  11.964
15810SOL     OW49268   2.168  14.606  12.059
15810SOL    HW149269   2.199  14.692  12.032
15810SOL    HW249270   2.147  14.617  12.152
15811SOL     OW49271   4.946  12.370   9.857
15811SOL    HW149272   5.034  12.354   9.823
15811SOL    HW249273   4.943  12.464   9.875
15812SOL     OW49274   3.400   0.048   0.162
15812SOL    HW149275   3.364  14.846   0.120
15812SOL    HW249276   3.325   0.107   0.171
15813SOL     OW49277   0.494   6.583   2.651
15813SOL    HW149278   0.553   6.621   2.716
15813SOL    HW249279   0.443   6.518   2.700
15814SOL     OW49280  10.377  11.167  13.588
15814SOL    HW149281  10.466  11.174  13.552
15814SOL    HW249282  10.390  11.138  13.679
15815SOL     OW49283   6.070   0.608   7.118
15815SOL    HW149284   6.013   0.608   7.041
15815SOL    HW249285   6.097   0.516   7.128
15816SOL     OW49286  11.459  10.643   0.371
15816SOL    HW149287  11.458  10.736   0.394
15816SOL    HW249288  11.367  10.617   0.374
15817SOL     OW49289   8.330   6.874  14.491
15817SOL    HW149290   8.312   6.825  14.411
15817SOL    HW249291   8.421   6.854  14.512
15818SOL     OW49292  13.405   4.018   4.983
15818SOL    HW149293  13.456   3.992   5.059
15818SOL    HW249294  13.470   4.043   4.917
15819SOL     OW49295   1.933   3.353   2.813
15819SOL    HW149296   1.909   3.438   2.776
15819SOL    HW249297   1.868   3.338   2.881
15820SOL     OW49298   8.847   7.656  10.807
15820SOL    HW149299   8.833   7.747  10.783
15820SOL    HW249300   8.779   7.637  10.871
15821SOL     OW49301  12.624   0.667   5.656
15821SOL    HW149302  12.681   0.627   5.722
15821SOL    HW249303  12.538   0.670   5.698
15822SOL     OW49304   1.721   4.626   9.504
15822SOL    HW149305   1.676   4.619   9.420
15822SOL    HW249306   1.795   4.684   9.488
15823SOL     OW49307  10.200   9.855   4.999
15823SOL    HW149308  10.233   9.770   5.029
15823SOL    HW249309  10.272   9.916   5.015
15824SOL     OW49310   1.470   8.617   8.666
15824SOL    HW149311   1.471   8.692   8.726
15824SOL    HW249312   1.382   8.579   8.677
15825SOL     OW49313   2.153   2.260   5.229
15825SOL    HW149314   2.210   2.273   5.306
15825SOL    HW249315   2.197   2.307   5.159
15826SOL     OW49316  12.110   3.800  13.329
15826SOL    HW149317  12.025   3.801  13.286
15826SOL    HW249318  12.106   3.727  13.391
15827SOL     OW49319   3.735  12.394   5.934
15827SOL    HW149320   3.733  12.490   5.929
15827SOL    HW249321   3.688  12.373   6.014
15828SOL     OW49322  11.038   4.285   3.070
15828SOL    HW149323  11.021   4.197   3.035
15828SOL    HW249324  11.054   4.338   2.992
15829SOL     OW49325   6.275   8.824   3.387
15829SOL    HW149326   6.233   8.738   3.387
15829SOL    HW249327   6.353   8.813   3.332
15830SOL     OW49328  11.409   2.313  13.594
15830SOL    HW149329  11.421   2.353  13.508
15830SOL    HW249330  11.414   2.218  13.577
15831SOL     OW49331   6.575   6.498   4.515
15831SOL    HW149332   6.618   6.573   4.475
15831SOL    HW249333   6.597   6.504   4.608
15832SOL     OW49334  10.624   5.147  10.566
15832SOL    HW149335  10.591   5.058  10.554
15832SOL    HW249336  10.692   5.139  10.633
15833SOL     OW49337   4.648   8.105   4.571
15833SOL    HW149338   4.618   8.194   4.590
15833SOL    HW249339   4.674   8.108   4.479
15834SOL     OW49340   6.724   3.026   3.112
15834SOL    HW149341   6.730   3.080   3.192
15834SOL    HW249342   6.636   2.989   3.115
15835SOL     OW49343   2.779   8.267  11.101
15835SOL    HW149344   2.849   8.220  11.056
15835SOL    HW249345   2.822   8.345  11.138
15836SOL     OW49346   7.050   1.403   6.846
15836SOL    HW149347   7.110   1.399   6.921
15836SOL    HW249348   6.963   1.414   6.886
15837SOL     OW49349   2.154   0.168   6.905
15837SOL    HW149350   2.147   0.076   6.877
15837SOL    HW249351   2.232   0.171   6.959
15838SOL     OW49352  13.653   3.215  10.033
15838SOL    HW149353  13.686   3.126  10.018
15838SOL    HW249354  13.574   3.202  10.085
15839SOL     OW49355   7.965   0.992   7.616
15839SOL    HW149356   8.009   0.910   7.637
15839SOL    HW249357   7.900   1.003   7.685
15840SOL     OW49358  14.362   9.179  14.270
15840SOL    HW149359  14.330   9.138  14.351
15840SOL    HW249360  14.375   9.271  14.294
15841SOL     OW49361   1.825  13.018  13.584
15841SOL    HW149362   1.819  12.965  13.664
15841SOL    HW249363   1.919  13.021  13.564
15842SOL     OW49364   7.734   4.362   5.727
15842SOL    HW149365   7.658   4.378   5.672
15842SOL    HW249366   7.698   4.339   5.812
15843SOL     OW49367   3.617  11.613   2.744
15843SOL    HW149368   3.681  11.588   2.678
15843SOL    HW249369   3.652  11.692   2.783
15844SOL     OW49370   0.980   6.225   6.090
15844SOL    HW149371   1.048   6.161   6.071
15844SOL    HW249372   0.921   6.221   6.015
15845SOL     OW49373  14.317  13.904  12.102
15845SOL    HW149374  14.298  13.914  12.195
15845SOL    HW249375  14.341  13.811  12.092
15846SOL     OW49376   1.215   1.321   4.894
15846SOL    HW149377   1.232   1.408   4.930
15846SOL    HW249378   1.189   1.268   4.969
15847SOL     OW49379  14.429   8.657   2.291
15847SOL    HW149380  14.462   8.685   2.206
15847SOL    HW249381  14.484   8.582   2.315
15848SOL     OW49382   9.855   6.763   3.645
15848SOL    HW149383   9.850   6.682   3.594
15848SOL    HW249384   9.917   6.743   3.715
15849SOL     OW49385   9.906   5.893   5.063
15849SOL    HW149386   9.976   5.834   5.035
15849SOL    HW249387   9.844   5.837   5.110
15850SOL     OW49388   4.893   1.559  13.572
15850SOL    HW149389   4.960   1.627  13.559
15850SOL    HW249390   4.938   1.477  13.551
15851SOL     OW49391   2.492  13.359   9.922
15851SOL    HW149392   2.450  13.353   9.836
15851SOL    HW249393   2.420  13.345   9.985
15852SOL     OW49394  10.917   2.535   6.498
15852SOL    HW149395  10.997   2.516   6.548
15852SOL    HW249396  10.865   2.591   6.556
15853SOL     OW49397   6.609   1.052   9.489
15853SOL    HW149398   6.618   1.128   9.547
15853SOL    HW249399   6.544   0.996   9.532
15854SOL     OW49400   7.712   6.623  10.814
15854SOL    HW149401   7.756   6.616  10.899
15854SOL    HW249402   7.781   6.606  10.750
15855SOL     OW49403   2.244   6.139   8.905
15855SOL    HW149404   2.160   6.183   8.889
15855SOL    HW249405   2.231   6.092   8.988
15856SOL     OW49406   7.270   5.648   3.915
15856SOL    HW149407   7.301   5.715   3.976
15856SOL    HW249408   7.350   5.602   3.889
15857SOL     OW49409  12.088   5.606   6.221
15857SOL    HW149410  12.024   5.535   6.221
15857SOL    HW249411  12.173   5.561   6.221
15858SOL     OW49412  12.219   0.003   3.152
15858SOL    HW149413  12.138   0.054   3.160
15858SOL    HW249414  12.208  14.807   3.213
15859SOL     OW49415   5.578   6.348  13.379
15859SOL    HW149416   5.512   6.400  13.425
15859SOL    HW249417   5.653   6.407  13.370
15860SOL     OW49418  10.326   0.054   3.572
15860SOL    HW149419  10.283   0.103   3.502
15860SOL    HW249420  10.330   0.116   3.645
15861SOL     OW49421  14.707   7.244   0.464
15861SOL    HW149422  14.643   7.315   0.458
15861SOL    HW249423  14.765   7.270   0.537
15862SOL     OW49424   9.540  11.881   8.397
15862SOL    HW149425   9.587  11.799   8.408
15862SOL    HW249426   9.448  11.858   8.410
15863SOL     OW49427   8.718   6.085   6.285
15863SOL    HW149428   8.644   6.145   6.273
15863SOL    HW249429   8.790   6.127   6.237
15864SOL     OW49430   9.919   1.357   1.667
15864SOL    HW149431   9.979   1.410   1.615
15864SOL    HW249432   9.868   1.421   1.717
15865SOL     OW49433   7.867  11.524  10.603
15865SOL    HW149434   7.793  11.524  10.543
15865SOL    HW249435   7.834  11.565  10.683
15866SOL     OW49436   9.953   6.467   8.726
15866SOL    HW149437   9.869   6.505   8.753
15866SOL    HW249438   9.972   6.400   8.792
15867SOL     OW49439  11.332  13.062   9.818
15867SOL    HW149440  11.364  12.973   9.801
15867SOL    HW249441  11.357  13.112   9.741
15868SOL     OW49442   7.745  14.624   1.973
15868SOL    HW149443   7.774  14.571   1.898
15868SOL    HW249444   7.665  14.667   1.942
15869SOL     OW49445   8.514   1.122   9.847
15869SOL    HW149446   8.469   1.184   9.789
15869SOL    HW249447   8.466   1.127   9.929
15870SOL     OW49448   8.229   9.689   6.660
15870SOL    HW149449   8.276   9.612   6.694
15870SOL    HW249450   8.242   9.756   6.727
15871SOL     OW49451   4.499   2.027   1.806
15871SOL    HW149452   4.463   1.953   1.758
15871SOL    HW249453   4.432   2.095   1.801
15872SOL     OW49454   5.117  14.755   3.346
15872SOL    HW149455   5.064  14.703   3.286
15872SOL    HW249456   5.207  14.740   3.317
15873SOL     OW49457   9.745   3.699   8.975
15873SOL    HW149458   9.723   3.643   9.050
15873SOL    HW249459   9.716   3.649   8.899
15874SOL     OW49460   9.625  13.147   1.573
15874SOL    HW149461   9.627  13.083   1.644
15874SOL    HW249462   9.717  13.162   1.552
15875SOL     OW49463   3.052   3.214   9.919
15875SOL    HW149464   3.056   3.181  10.008
15875SOL    HW249465   2.960   3.236   9.905
15876SOL     OW49466   2.820   8.123   8.633
15876SOL    HW149467   2.788   8.055   8.573
15876SOL    HW249468   2.903   8.152   8.594
15877SOL     OW49469  14.569  11.905  11.903
15877SOL    HW149470  14.489  11.895  11.955
15877SOL    HW249471  14.559  11.842  11.832
15878SOL     OW49472   6.465   3.204   3.980
15878SOL    HW149473   6.435   3.115   3.996
15878SOL    HW249474   6.390   3.248   3.940
15879SOL     OW49475  14.509   6.434   3.720
15879SOL    HW149476  14.531   6.431   3.814
15879SOL    HW249477  14.423   6.476   3.717
15880SOL     OW49478   7.855   2.381  10.418
15880SOL    HW149479   7.853   2.329  10.338
15880SOL    HW249480   7.771   2.428  10.419
15881SOL     OW49481  13.824   2.324  10.682
15881SOL    HW149482  13.842   2.239  10.723
15881SOL    HW249483  13.735   2.315  10.647
15882SOL     OW49484   5.501   5.266   5.885
15882SOL    HW149485   5.419   5.270   5.935
15882SOL    HW249486   5.551   5.196   5.925
15883SOL     OW49487  11.165  14.302   2.640
15883SOL    HW149488  11.191  14.213   2.665
15883SOL    HW249489  11.108  14.290   2.564
15884SOL     OW49490  11.856  13.544  13.706
15884SOL    HW149491  11.793  13.610  13.677
15884SOL    HW249492  11.929  13.595  13.743
15885SOL     OW49493   3.591  11.087   4.120
15885SOL    HW149494   3.636  11.011   4.159
15885SOL    HW249495   3.498  11.062   4.121
15886SOL     OW49496   7.530   5.505   7.647
15886SOL    HW149497   7.554   5.460   7.566
15886SOL    HW249498   7.461   5.566   7.621
15887SOL     OW49499  11.729   1.803  12.745
15887SOL    HW149500  11.762   1.888  12.776
15887SOL    HW249501  11.768   1.792  12.658
15888SOL     OW49502   0.214  11.598   6.829
15888SOL    HW149503   0.155  11.655   6.879
15888SOL    HW249504   0.155  11.539   6.782
15889SOL     OW49505  14.650   2.234   9.208
15889SOL    HW149506  14.738   2.263   9.181
15889SOL    HW249507  14.609   2.312   9.243
15890SOL     OW49508   8.541   4.812   7.800
15890SOL    HW149509   8.595   4.734   7.815
15890SOL    HW249510   8.570   4.845   7.715
15891SOL     OW49511  10.212   2.791   6.465
15891SOL    HW149512  10.136   2.846   6.446
15891SOL    HW249513  10.187   2.742   6.543
15892SOL     OW49514   9.733  13.381   7.184
15892SOL    HW149515   9.775  13.433   7.252
15892SOL    HW249516   9.796  13.311   7.165
15893SOL     OW49517   8.330   6.094  11.073
15893SOL    HW149518   8.402   6.153  11.053
15893SOL    HW249519   8.323   6.096  11.168
15894SOL     OW49520  12.769  11.951   2.165
15894SOL    HW149521  12.847  11.927   2.114
15894SOL    HW249522  12.793  12.033   2.209
15895SOL     OW49523   7.060   3.912   9.680
15895SOL    HW149524   7.057   3.872   9.767
15895SOL    HW249525   7.010   3.853   9.624
15896SOL     OW49526  10.506  13.331   7.502
15896SOL    HW149527  10.557  13.257   7.470
15896SOL    HW249528  10.432  13.337   7.442
15897SOL     OW49529  13.338  12.260  13.828
15897SOL    HW149530  13.257  12.242  13.780
15897SOL    HW249531  13.399  12.192  13.799
15898SOL     OW49532   7.599   2.558   7.693
15898SOL    HW149533   7.624   2.638   7.648
15898SOL    HW249534   7.683   2.519   7.720
15899SOL     OW49535   4.061   4.696   7.968
15899SOL    HW149536   4.028   4.774   7.924
15899SOL    HW249537   4.150   4.685   7.935
15900SOL     OW49538   8.513   4.883  11.557
15900SOL    HW149539   8.554   4.963  11.588
15900SOL    HW249540   8.558   4.812  11.603
15901SOL     OW49541   8.125  13.016   6.173
15901SOL    HW149542   8.037  13.051   6.156
15901SOL    HW249543   8.156  12.987   6.087
15902SOL     OW49544   8.981  13.145   1.295
15902SOL    HW149545   8.897  13.099   1.298
15902SOL    HW249546   9.019  13.123   1.210
15903SOL     OW49547  10.317   9.112   9.400
15903SOL    HW149548  10.306   9.157   9.316
15903SOL    HW249549  10.409   9.087   9.402
15904SOL     OW49550   9.528  11.685  14.848
15904SOL    HW149551   9.475  11.646   0.041
15904SOL    HW249552   9.618  11.665  14.871
15905SOL     OW49553   6.835   0.549   7.077
15905SOL    HW149554   6.773   0.488   7.116
15905SOL    HW249555   6.903   0.560   7.143
15906SOL     OW49556   3.275  12.704   7.959
15906SOL    HW149557   3.326  12.643   8.012
15906SOL    HW249558   3.188  12.663   7.955
15907SOL     OW49559  10.861   1.549   6.400
15907SOL    HW149560  10.900   1.616   6.456
15907SOL    HW249561  10.892   1.570   6.312
15908SOL     OW49562   0.537  11.081   9.380
15908SOL    HW149563   0.485  11.147   9.335
15908SOL    HW249564   0.597  11.131   9.435
15909SOL     OW49565  11.698  11.882   1.841
15909SOL    HW149566  11.710  11.800   1.793
15909SOL    HW249567  11.725  11.860   1.931
15910SOL     OW49568  12.342   1.536  12.775
15910SOL    HW149569  12.308   1.492  12.853
15910SOL    HW249570  12.305   1.488  12.701
15911SOL     OW49571   8.931   6.887  14.597
15911SOL    HW149572   8.853   6.879  14.542
15911SOL    HW249573   8.952   6.797  14.622
15912SOL     OW49574   2.992  13.357  14.282
15912SOL    HW149575   2.978  13.452  14.284
15912SOL    HW249576   3.082  13.347  14.253
15913SOL     OW49577   7.998  14.549  14.713
15913SOL    HW149578   8.037  14.462  14.722
15913SOL    HW249579   8.014  14.573  14.621
15914SOL     OW49580   5.584   7.053  11.233
15914SOL    HW149581   5.558   7.002  11.156
15914SOL    HW249582   5.611   7.138  11.198
15915SOL     OW49583  12.981   4.572  12.025
15915SOL    HW149584  13.025   4.519  11.958
15915SOL    HW249585  13.026   4.550  12.106
15916SOL     OW49586  10.838   3.267   1.122
15916SOL    HW149587  10.777   3.220   1.179
15916SOL    HW249588  10.843   3.213   1.043
15917SOL     OW49589  11.825   7.020  11.684
15917SOL    HW149590  11.868   7.079  11.622
15917SOL    HW249591  11.868   7.038  11.768
15918SOL     OW49592   2.043   3.796  13.384
15918SOL    HW149593   2.056   3.733  13.454
15918SOL    HW249594   2.129   3.836  13.371
15919SOL     OW49595   9.160   0.131   8.491
15919SOL    HW149596   9.204   0.058   8.536
15919SOL    HW249597   9.168   0.109   8.398
15920SOL     OW49598   9.108   8.396   3.851
15920SOL    HW149599   9.036   8.346   3.811
15920SOL    HW249600   9.150   8.333   3.910
15921SOL     OW49601   7.315   2.911   0.794
15921SOL    HW149602   7.371   2.939   0.867
15921SOL    HW249603   7.270   2.991   0.766
15922SOL     OW49604   4.803   8.151  10.846
15922SOL    HW149605   4.837   8.216  10.784
15922SOL    HW249606   4.739   8.200  10.898
15923SOL     OW49607   8.174   8.199   8.373
15923SOL    HW149608   8.227   8.119   8.367
15923SOL    HW249609   8.086   8.171   8.349
15924SOL     OW49610   6.422   1.905  11.411
15924SOL    HW149611   6.420   2.001  11.413
15924SOL    HW249612   6.431   1.884  11.318
15925SOL     OW49613   3.738  14.556   1.259
15925SOL    HW149614   3.729  14.565   1.354
15925SOL    HW249615   3.655  14.519   1.231
15926SOL     OW49616   2.921   0.290   0.680
15926SOL    HW149617   2.901   0.330   0.765
15926SOL    HW249618   2.887   0.201   0.688
15927SOL     OW49619   2.904  11.305  10.007
15927SOL    HW149620   2.824  11.279  10.053
15927SOL    HW249621   2.877  11.313   9.916
15928SOL     OW49622   9.214   3.987   8.805
15928SOL    HW149623   9.265   3.941   8.872
15928SOL    HW249624   9.245   4.077   8.809
15929SOL     OW49625   0.469   8.525   3.977
15929SOL    HW149626   0.412   8.599   3.953
15929SOL    HW249627   0.504   8.549   4.062
15930SOL     OW49628   9.702   1.312   7.723
15930SOL    HW149629   9.746   1.334   7.805
15930SOL    HW249630   9.616   1.354   7.729
15931SOL     OW49631   2.372   9.100   7.795
15931SOL    HW149632   2.459   9.062   7.781
15931SOL    HW249633   2.312   9.034   7.762
15932SOL     OW49634   1.080   9.170  13.995
15932SOL    HW149635   1.071   9.075  14.011
15932SOL    HW249636   1.172   9.181  13.971
15933SOL     OW49637   7.546  10.610   7.330
15933SOL    HW149638   7.497  10.638   7.407
15933SOL    HW249639   7.517  10.669   7.260
15934SOL     OW49640   4.378   5.176   5.962
15934SOL    HW149641   4.433   5.211   6.032
15934SOL    HW249642   4.439   5.137   5.900
15935SOL     OW49643   3.027   6.804  10.441
15935SOL    HW149644   3.037   6.711  10.422
15935SOL    HW249645   2.983   6.840  10.364
15936SOL     OW49646  14.475   8.496  12.622
15936SOL    HW149647  14.412   8.562  12.650
15936SOL    HW249648  14.460   8.488  12.527
15937SOL     OW49649   4.221   4.871   3.364
15937SOL    HW149650   4.296   4.924   3.392
15937SOL    HW249651   4.211   4.806   3.434
15938SOL     OW49652  13.514   3.528   1.966
15938SOL    HW149653  13.571   3.456   1.991
15938SOL    HW249654  13.427   3.488   1.955
15939SOL     OW49655  14.150  12.471   8.950
15939SOL    HW149656  14.217  12.491   9.016
15939SOL    HW249657  14.195  12.417   8.886
15940SOL     OW49658   1.497  11.259   8.686
15940SOL    HW149659   1.576  11.290   8.729
15940SOL    HW249660   1.528  11.203   8.614
15941SOL     OW49661   7.997   7.967  13.725
15941SOL    HW149662   7.956   7.997  13.806
15941SOL    HW249663   7.924   7.946  13.667
15942SOL     OW49664   5.912  13.487   3.059
15942SOL    HW149665   5.919  13.423   3.130
15942SOL    HW249666   5.909  13.572   3.103
15943SOL     OW49667  12.974   4.804  14.729
15943SOL    HW149668  12.913   4.741  14.766
15943SOL    HW249669  12.927   4.842  14.655
15944SOL     OW49670  12.317   0.779   7.020
15944SOL    HW149671  12.376   0.833   6.968
15944SOL    HW249672  12.279   0.838   7.084
15945SOL     OW49673   5.728  12.043   7.369
15945SOL    HW149674   5.816  12.071   7.397
15945SOL    HW249675   5.680  12.125   7.357
15946SOL     OW49676   2.632  12.355   4.007
15946SOL    HW149677   2.640  12.260   4.014
15946SOL    HW249678   2.575  12.369   3.932
15947SOL     OW49679  12.878   9.041   9.295
15947SOL    HW149680  12.876   8.952   9.329
15947SOL    HW249681  12.790   9.057   9.262
15948SOL     OW49682   2.404  12.838  10.557
15948SOL    HW149683   2.474  12.773  10.558
15948SOL    HW249684   2.440  12.912  10.508
15949SOL     OW49685   2.610   8.089   4.860
15949SOL    HW149686   2.536   8.082   4.920
15949SOL    HW249687   2.574   8.130   4.782
15950SOL     OW49688   5.293   4.254   9.343
15950SOL    HW149689   5.221   4.192   9.351
15950SOL    HW249690   5.368   4.202   9.316
15951SOL     OW49691   8.309   0.359   9.893
15951SOL    HW149692   8.341   0.371   9.803
15951SOL    HW249693   8.332   0.441   9.938
15952SOL     OW49694   0.894   0.782   0.085
15952SOL    HW149695   0.869   0.704   0.036
15952SOL    HW249696   0.832   0.785   0.158
15953SOL     OW49697   4.601  14.400   4.115
15953SOL    HW149698   4.521  14.441   4.150
15953SOL    HW249699   4.667  14.468   4.122
15954SOL     OW49700   8.692   6.148   4.474
15954SOL    HW149701   8.611   6.143   4.525
15954SOL    HW249702   8.761   6.120   4.535
15955SOL     OW49703   3.739   8.284   5.569
15955SOL    HW149704   3.725   8.266   5.476
15955SOL    HW249705   3.827   8.322   5.573
15956SOL     OW49706  11.154  13.555   6.750
15956SOL    HW149707  11.064  13.583   6.763
15956SOL    HW249708  11.160  13.471   6.796
15957SOL     OW49709  12.553   9.287   9.881
15957SOL    HW149710  12.629   9.273   9.824
15957SOL    HW249711  12.493   9.339   9.828
15958SOL     OW49712  12.339   0.729   0.748
15958SOL    HW149713  12.322   0.644   0.789
15958SOL    HW249714  12.276   0.734   0.676
15959SOL     OW49715  12.429   6.033   7.199
15959SOL    HW149716  12.451   5.939   7.201
15959SOL    HW249717  12.334   6.035   7.198
15960SOL     OW49718   9.644   8.265   6.995
15960SOL    HW149719   9.584   8.276   7.069
15960SOL    HW249720   9.710   8.333   7.008
15961SOL     OW49721   0.931   8.338  14.048
15961SOL    HW149722   1.020   8.338  14.014
15961SOL    HW249723   0.925   8.420  14.098
15962SOL     OW49724   7.366   6.706   3.153
15962SOL    HW149725   7.357   6.641   3.222
15962SOL    HW249726   7.287   6.759   3.159
15963SOL     OW49727  11.674  13.042   1.804
15963SOL    HW149728  11.712  13.055   1.717
15963SOL    HW249729  11.586  13.009   1.788
15964SOL     OW49730  11.210  12.151   4.587
15964SOL    HW149731  11.295  12.158   4.630
15964SOL    HW249732  11.164  12.081   4.635
15965SOL     OW49733   3.492   7.425  11.824
15965SOL    HW149734   3.573   7.388  11.789
15965SOL    HW249735   3.520   7.477  11.900
15966SOL     OW49736   5.420   3.166  14.179
15966SOL    HW149737   5.441   3.231  14.246
15966SOL    HW249738   5.454   3.084  14.213
15967SOL     OW49739   2.678   4.375   2.086
15967SOL    HW149740   2.691   4.332   2.170
15967SOL    HW249741   2.706   4.310   2.021
15968SOL     OW49742   1.654  12.631  12.597
15968SOL    HW149743   1.655  12.727  12.599
15968SOL    HW249744   1.563  12.608  12.581
15969SOL     OW49745  10.617   2.667  11.445
15969SOL    HW149746  10.531   2.634  11.418
15969SOL    HW249747  10.628   2.748  11.395
15970SOL     OW49748  14.209  14.718   9.588
15970SOL    HW149749  14.234  14.784   9.523
15970SOL    HW249750  14.116  14.704   9.574
15971SOL     OW49751   5.291   9.854  12.945
15971SOL    HW149752   5.351   9.847  13.019
15971SOL    HW249753   5.311   9.778  12.890
15972SOL     OW49754   4.503  13.444   4.056
15972SOL    HW149755   4.555  13.517   4.022
15972SOL    HW249756   4.438  13.486   4.113
15973SOL     OW49757   6.353   6.151  13.303
15973SOL    HW149758   6.276   6.125  13.252
15973SOL    HW249759   6.340   6.244  13.322
15974SOL     OW49760   1.683   3.331   2.972
15974SOL    HW149761   1.738   3.381   3.032
15974SOL    HW249762   1.639   3.266   3.027
15975SOL     OW49763   4.136  12.165   7.979
15975SOL    HW149764   4.204  12.152   8.046
15975SOL    HW249765   4.081  12.086   7.986
15976SOL     OW49766   6.750   3.463  14.691
15976SOL    HW149767   6.791   3.387  14.648
15976SOL    HW249768   6.717   3.516  14.620
15977SOL     OW49769   1.513  14.513   9.208
15977SOL    HW149770   1.514  14.446   9.140
15977SOL    HW249771   1.469  14.588   9.168
15978SOL     OW49772  10.368   1.758   8.806
15978SOL    HW149773  10.297   1.815   8.777
15978SOL    HW249774  10.324   1.679   8.837
15979SOL     OW49775   8.521  11.554   6.552
15979SOL    HW149776   8.448  11.590   6.602
15979SOL    HW249777   8.573  11.506   6.616
15980SOL     OW49778  10.517   7.218   1.625
15980SOL    HW149779  10.527   7.150   1.558
15980SOL    HW249780  10.459   7.178   1.691
15981SOL     OW49781   0.751   4.190   8.638
15981SOL    HW149782   0.799   4.114   8.670
15981SOL    HW249783   0.667   4.155   8.608
15982SOL     OW49784  11.604   4.688  12.967
15982SOL    HW149785  11.659   4.764  12.983
15982SOL    HW249786  11.626   4.627  13.037
15983SOL     OW49787   3.916   9.513  14.142
15983SOL    HW149788   3.832   9.477  14.115
15983SOL    HW249789   3.966   9.520  14.060
15984SOL     OW49790   6.616  13.156   9.263
15984SOL    HW149791   6.670  13.124   9.335
15984SOL    HW249792   6.534  13.183   9.305
15985SOL     OW49793   8.698   8.735   4.882
15985SOL    HW149794   8.764   8.797   4.913
15985SOL    HW249795   8.653   8.781   4.811
15986SOL     OW49796   9.588   3.241  12.193
15986SOL    HW149797   9.600   3.313  12.131
15986SOL    HW249798   9.676   3.208  12.209
15987SOL     OW49799  13.219  13.568  11.489
15987SOL    HW149800  13.129  13.580  11.458
15987SOL    HW249801  13.269  13.550  11.409
15988SOL     OW49802  11.115   0.376   5.770
15988SOL    HW149803  11.132   0.301   5.713
15988SOL    HW249804  11.201   0.415   5.786
15989SOL     OW49805   3.932   5.295  13.006
15989SOL    HW149806   4.004   5.291  13.068
15989SOL    HW249807   3.949   5.374  12.954
15990SOL     OW49808  11.756   8.415  13.026
15990SOL    HW149809  11.685   8.445  12.969
15990SOL    HW249810  11.826   8.388  12.966
15991SOL     OW49811   8.926   0.156  14.080
15991SOL    HW149812   8.831   0.146  14.079
15991SOL    HW249813   8.960   0.073  14.047
15992SOL     OW49814   9.412   9.878   1.647
15992SOL    HW149815   9.404   9.839   1.734
15992SOL    HW249816   9.478   9.824   1.603
15993SOL     OW49817   7.605  10.423   3.663
15993SOL    HW149818   7.650  10.396   3.583
15993SOL    HW249819   7.575  10.513   3.645
15994SOL     OW49820   9.382   6.089   5.870
15994SOL    HW149821   9.455   6.035   5.900
15994SOL    HW249822   9.329   6.030   5.817
15995SOL     OW49823   9.478   5.939   2.352
15995SOL    HW149824   9.422   5.949   2.275
15995SOL    HW249825   9.503   5.846   2.351
15996SOL     OW49826  10.344  14.625  12.903
15996SOL    HW149827  10.338  14.530  12.902
15996SOL    HW249828  10.381  14.646  12.989
15997SOL     OW49829   0.500   3.037  11.051
15997SOL    HW149830   0.553   3.021  10.973
15997SOL    HW249831   0.502   3.132  11.062
15998SOL     OW49832  14.451  11.718  11.024
15998SOL    HW149833  14.537  11.698  11.060
15998SOL    HW249834  14.390  11.702  11.096
15999SOL     OW49835   9.975  12.899   7.145
15999SOL    HW149836   9.884  12.925   7.131
15999SOL    HW249837  10.025  12.950   7.080
16000SOL     OW49838   5.816   0.918  13.278
16000SOL    HW149839   5.826   0.870  13.360
16000SOL    HW249840   5.722   0.931  13.268
16001SOL     OW49841   7.540  11.880  12.009
16001SOL    HW149842   7.450  11.864  12.037
16001SOL    HW249843   7.583  11.795  12.020
16002SOL     OW49844  14.592  14.762   0.852
16002SOL    HW149845  14.509  14.715   0.843
16002SOL    HW249846  14.648  14.726   0.783
16003SOL     OW49847   2.916  13.634   3.007
16003SOL    HW149848   2.826  13.657   3.032
16003SOL    HW249849   2.971  13.693   3.059
16004SOL     OW49850   5.300   5.049   1.046
16004SOL    HW149851   5.264   5.102   0.976
16004SOL    HW249852   5.257   5.082   1.126
16005SOL     OW49853  11.793   1.086   6.047
16005SOL    HW149854  11.788   1.021   5.976
16005SOL    HW249855  11.887   1.105   6.054
16006SOL     OW49856   1.699   5.268   1.959
16006SOL    HW149857   1.761   5.249   1.889
16006SOL    HW249858   1.749   5.259   2.040
16007SOL     OW49859  11.308   9.485   7.117
16007SOL    HW149860  11.279   9.568   7.078
16007SOL    HW249861  11.399   9.477   7.089
16008SOL     OW49862   8.389  11.597   3.567
16008SOL    HW149863   8.306  11.642   3.582
16008SOL    HW249864   8.365  11.514   3.527
16009SOL     OW49865   6.443   8.702   9.736
16009SOL    HW149866   6.375   8.685   9.801
16009SOL    HW249867   6.495   8.621   9.733
16010SOL     OW49868   6.716   5.066   9.739
16010SOL    HW149869   6.626   5.038   9.757
16010SOL    HW249870   6.768   4.987   9.751
16011SOL     OW49871  10.688   0.320  14.440
16011SOL    HW149872  10.609   0.330  14.387
16011SOL    HW249873  10.659   0.340  14.529
16012SOL     OW49874  14.401   4.269  13.281
16012SOL    HW149875  14.466   4.340  13.281
16012SOL    HW249876  14.424   4.215  13.356
16013SOL     OW49877  14.507   6.013  11.184
16013SOL    HW149878  14.499   5.919  11.200
16013SOL    HW249879  14.552   6.019  11.099
16014SOL     OW49880  10.000  12.741  11.056
16014SOL    HW149881  10.060  12.714  11.125
16014SOL    HW249882  10.015  12.835  11.046
16015SOL     OW49883   3.640   8.499   0.548
16015SOL    HW149884   3.608   8.412   0.523
16015SOL    HW249885   3.562   8.554   0.551
16016SOL     OW49886  10.047   7.170   3.229
16016SOL    HW149887  10.007   7.085   3.248
16016SOL    HW249888  10.013   7.193   3.142
16017SOL     OW49889   8.973  11.109   4.676
16017SOL    HW149890   8.936  11.032   4.721
16017SOL    HW249891   8.976  11.083   4.584
16018SOL     OW49892   0.502   5.231   8.414
16018SOL    HW149893   0.545   5.296   8.469
16018SOL    HW249894   0.455   5.175   8.476
16019SOL     OW49895   1.390  11.663   5.516
16019SOL    HW149896   1.375  11.751   5.551
16019SOL    HW249897   1.305  11.620   5.522
16020SOL     OW49898  11.781   2.125  13.023
16020SOL    HW149899  11.776   2.041  12.978
16020SOL    HW249900  11.841   2.177  12.970
16021SOL     OW49901   5.117   0.259  14.376
16021SOL    HW149902   5.088   0.339  14.331
16021SOL    HW249903   5.211   0.253  14.357
16022SOL     OW49904   2.521   7.686  13.607
16022SOL    HW149905   2.467   7.607  13.610
16022SOL    HW249906   2.492   7.738  13.682
16023SOL     OW49907  14.424  14.740  11.397
16023SOL    HW149908  14.429  14.653  11.438
16023SOL    HW249909  14.493  14.738  11.331
16024SOL     OW49910  11.958   6.924   4.967
16024SOL    HW149911  11.897   6.889   5.032
16024SOL    HW249912  11.919   6.901   4.882
16025SOL     OW49913  14.045   1.662   4.432
16025SOL    HW149914  14.055   1.591   4.496
16025SOL    HW249915  14.002   1.622   4.357
16026SOL     OW49916   9.687  10.158  10.276
16026SOL    HW149917   9.614  10.111  10.237
16026SOL    HW249918   9.691  10.127  10.366
16027SOL     OW49919   5.585  10.776  13.253
16027SOL    HW149920   5.492  10.771  13.230
16027SOL    HW249921   5.598  10.867  13.281
16028SOL     OW49922  12.759  12.894  12.097
16028SOL    HW149923  12.707  12.918  12.174
16028SOL    HW249924  12.849  12.886  12.130
16029SOL     OW49925   5.110   0.208   8.276
16029SOL    HW149926   5.051   0.135   8.258
16029SOL    HW249927   5.195   0.168   8.290
16030SOL     OW49928  12.394   2.239   6.963
16030SOL    HW149929  12.355   2.188   6.892
16030SOL    HW249930  12.319   2.272   7.013
16031SOL     OW49931  11.655  10.301  11.204
16031SOL    HW149932  11.636  10.275  11.294
16031SOL    HW249933  11.576  10.346  11.174
16032SOL     OW49934   0.014   2.435  10.448
16032SOL    HW149935   0.074   2.363  10.468
16032SOL    HW249936  14.818   2.393  10.402
16033SOL     OW49937  11.646   3.483  12.953
16033SOL    HW149938  11.662   3.535  12.874
16033SOL    HW249939  11.691   3.400  12.936
16034SOL     OW49940  12.823  10.178   9.378
16034SOL    HW149941  12.759  10.238   9.338
16034SOL    HW249942  12.907  10.222   9.365
16035SOL     OW49943   3.864   4.074   1.797
16035SOL    HW149944   3.857   4.124   1.878
16035SOL    HW249945   3.904   3.991   1.825
16036SOL     OW49946   5.158   0.382   7.242
16036SOL    HW149947   5.210   0.401   7.164
16036SOL    HW249948   5.067   0.395   7.214
16037SOL     OW49949   2.457   0.921   1.646
16037SOL    HW149950   2.380   0.875   1.613
16037SOL    HW249951   2.433   0.948   1.735
16038SOL     OW49952  11.555  13.965  11.319
16038SOL    HW149953  11.500  13.903  11.367
16038SOL    HW249954  11.628  13.983  11.378
16039SOL     OW49955  12.192   0.749  12.225
16039SOL    HW149956  12.286   0.730  12.217
16039SOL    HW249957  12.186   0.804  12.303
16040SOL     OW49958   1.587   8.906   5.830
16040SOL    HW149959   1.516   8.845   5.852
16040SOL    HW249960   1.544   8.990   5.818
16041SOL     OW49961  11.863   4.790   8.242
16041SOL    HW149962  11.879   4.755   8.154
16041SOL    HW249963  11.897   4.879   8.238
16042SOL     OW49964  14.263   8.587   7.985
16042SOL    HW149965  14.226   8.579   8.073
16042SOL    HW249966  14.349   8.627   7.999
16043SOL     OW49967   3.643  10.057   3.184
16043SOL    HW149968   3.611  10.120   3.119
16043SOL    HW249969   3.691   9.992   3.132
16044SOL     OW49970  10.265  10.476   9.638
16044SOL    HW149971  10.282  10.448   9.548
16044SOL    HW249972  10.300  10.565   9.642
16045SOL     OW49973   4.340  12.284   9.719
16045SOL    HW149974   4.392  12.320   9.646
16045SOL    HW249975   4.283  12.219   9.677
16046SOL     OW49976  11.525   6.909   3.853
16046SOL    HW149977  11.507   6.986   3.906
16046SOL    HW249978  11.469   6.920   3.776
16047SOL     OW49979   3.755   9.995   8.948
16047SOL    HW149980   3.823  10.058   8.971
16047SOL    HW249981   3.733   9.952   9.031
16048SOL     OW49982   8.352   3.495  12.724
16048SOL    HW149983   8.283   3.437  12.756
16048SOL    HW249984   8.431   3.442  12.726
16049SOL     OW49985  11.550   7.440   1.673
16049SOL    HW149986  11.492   7.482   1.737
16049SOL    HW249987  11.585   7.513   1.622
16050SOL     OW49988   1.748   4.167   3.996
16050SOL    HW149989   1.793   4.098   4.045
16050SOL    HW249990   1.685   4.121   3.942
16051SOL     OW49991  12.810   4.408   4.647
16051SOL    HW149992  12.892   4.396   4.695
16051SOL    HW249993  12.741   4.392   4.711
16052SOL     OW49994   3.381   6.911   6.013
16052SOL    HW149995   3.345   6.995   5.987
16052SOL    HW249996   3.476   6.923   6.011
16053SOL     OW49997  14.234   5.906   9.752
16053SOL    HW149998  14.258   5.933   9.664
16053SOL    HW249999  14.206   5.815   9.743
16054SOL     OW50000   8.146   0.589  14.376
16054SOL    HW150001   8.158   0.680  14.352
16054SOL    HW250002   8.228   0.564  14.421
16055SOL     OW50003   7.683   1.791  10.478
16055SOL    HW150004   7.614   1.730  10.506
16055SOL    HW250005   7.700   1.767  10.387
16056SOL     OW50006  10.908   0.739   7.506
16056SOL    HW150007  10.820   0.774   7.493
16056SOL    HW250008  10.900   0.681   7.581
16057SOL     OW50009  14.344   6.321   7.342
16057SOL    HW150010  14.301   6.250   7.391
16057SOL    HW250011  14.435   6.293   7.335
16058SOL     OW50012   0.519   1.044   3.469
16058SOL    HW150013   0.570   1.093   3.404
16058SOL    HW250014   0.452   1.105   3.498
16059SOL     OW50015   5.993   7.867   3.451
16059SOL    HW150016   5.981   7.915   3.369
16059SOL    HW250017   6.042   7.927   3.507
16060SOL     OW50018   0.789   0.117  12.849
16060SOL    HW150019   0.710   0.160  12.815
16060SOL    HW250020   0.799   0.038  12.796
16061SOL     OW50021  11.582   7.098   6.326
16061SOL    HW150022  11.520   7.149   6.275
16061SOL    HW250023  11.541   7.090   6.412
16062SOL     OW50024  11.745   3.650   1.166
16062SOL    HW150025  11.710   3.575   1.213
16062SOL    HW250026  11.674   3.714   1.165
16063SOL     OW50027  12.606   6.063  11.428
16063SOL    HW150028  12.572   6.147  11.398
16063SOL    HW250029  12.612   6.072  11.523
16064SOL     OW50030  10.175   2.380   7.113
16064SOL    HW150031  10.135   2.314   7.170
16064SOL    HW250032  10.267   2.354   7.107
16065SOL     OW50033   2.464  10.990  11.443
16065SOL    HW150034   2.555  10.997  11.414
16065SOL    HW250035   2.415  10.968  11.363
16066SOL     OW50036  13.157   4.157  12.489
16066SOL    HW150037  13.149   4.070  12.449
16066SOL    HW250038  13.206   4.208  12.424
16067SOL     OW50039   4.786   8.976   8.305
16067SOL    HW150040   4.778   8.918   8.229
16067SOL    HW250041   4.724   9.047   8.287
16068SOL     OW50042   9.313   9.131   0.865
16068SOL    HW150043   9.323   9.225   0.878
16068SOL    HW250044   9.373   9.091   0.928
16069SOL     OW50045   1.904   1.290  11.443
16069SOL    HW150046   1.830   1.288  11.382
16069SOL    HW250047   1.893   1.371  11.492
16070SOL     OW50048   5.797   0.266   7.866
16070SOL    HW150049   5.849   0.260   7.946
16070SOL    HW250050   5.862   0.264   7.795
16071SOL     OW50051   5.862  10.751   1.944
16071SOL    HW150052   5.921  10.687   1.982
16071SOL    HW250053   5.874  10.830   1.997
16072SOL     OW50054  10.669  11.819   4.641
16072SOL    HW150055  10.583  11.855   4.622
16072SOL    HW250056  10.662  11.787   4.731
16073SOL     OW50057   8.791   1.609   3.621
16073SOL    HW150058   8.784   1.631   3.714
16073SOL    HW250059   8.741   1.528   3.612
16074SOL     OW50060   9.223   6.107   2.585
16074SOL    HW150061   9.283   6.036   2.606
16074SOL    HW250062   9.179   6.079   2.506
16075SOL     OW50063   4.973   7.425   8.238
16075SOL    HW150064   5.038   7.358   8.220
16075SOL    HW250065   4.972   7.433   8.333
16076SOL     OW50066   3.612  11.350   5.869
16076SOL    HW150067   3.680  11.417   5.866
16076SOL    HW250068   3.540  11.390   5.917
16077SOL     OW50069  14.264   9.658  14.365
16077SOL    HW150070  14.179   9.617  14.378
16077SOL    HW250071  14.244   9.744  14.330
16078SOL     OW50072   0.987  12.721   9.330
16078SOL    HW150073   1.050  12.786   9.361
16078SOL    HW250074   1.026  12.637   9.352
16079SOL     OW50075   0.251  13.559  12.302
16079SOL    HW150076   0.210  13.579  12.218
16079SOL    HW250077   0.253  13.463  12.305
16080SOL     OW50078  12.438   6.694  11.246
16080SOL    HW150079  12.369   6.629  11.255
16080SOL    HW250080  12.467   6.712  11.335
16081SOL     OW50081   1.992   7.362  12.959
16081SOL    HW150082   1.926   7.429  12.943
16081SOL    HW250083   1.972   7.292  12.897
16082SOL     OW50084  10.691   1.579   3.517
16082SOL    HW150085  10.754   1.588   3.589
16082SOL    HW250086  10.640   1.501   3.540
16083SOL     OW50087   4.343   8.531   4.040
16083SOL    HW150088   4.264   8.583   4.025
16083SOL    HW250089   4.414   8.584   4.004
16084SOL     OW50090   7.604   9.949  10.249
16084SOL    HW150091   7.558   9.875  10.209
16084SOL    HW250092   7.661   9.909  10.315
16085SOL     OW50093   4.487   9.199  12.985
16085SOL    HW150094   4.475   9.184  13.079
16085SOL    HW250095   4.418   9.147  12.944
16086SOL     OW50096   0.357   6.231  14.683
16086SOL    HW150097   0.324   6.250  14.771
16086SOL    HW250098   0.450   6.211  14.697
16087SOL     OW50099   8.888   9.488   9.998
16087SOL    HW150100   8.836   9.430   9.942
16087SOL    HW250101   8.965   9.437  10.020
16088SOL     OW50102   2.605   3.329   9.842
16088SOL    HW150103   2.667   3.275   9.793
16088SOL    HW250104   2.574   3.272   9.912
16089SOL     OW50105  14.538   5.739   7.646
16089SOL    HW150106  14.506   5.682   7.576
16089SOL    HW250107  14.462   5.750   7.704
16090SOL     OW50108   2.223  10.678  14.011
16090SOL    HW150109   2.160  10.633  14.067
16090SOL    HW250110   2.302  10.685  14.065
16091SOL     OW50111  14.785  13.801  11.989
16091SOL    HW150112  14.743  13.841  11.912
16091SOL    HW250113  14.800  13.874  12.049
16092SOL     OW50114   5.761   4.696   4.895
16092SOL    HW150115   5.808   4.657   4.969
16092SOL    HW250116   5.803   4.781   4.883
16093SOL     OW50117  12.193   6.555   1.113
16093SOL    HW150118  12.120   6.610   1.140
16093SOL    HW250119  12.186   6.552   1.017
16094SOL     OW50120   0.498  12.414  14.339
16094SOL    HW150121   0.527  12.459  14.260
16094SOL    HW250122   0.411  12.380  14.316
16095SOL     OW50123   5.304   3.567  10.094
16095SOL    HW150124   5.258   3.569  10.011
16095SOL    HW250125   5.248   3.515  10.152
16096SOL     OW50126   6.729   8.776  14.725
16096SOL    HW150127   6.767   8.690  14.708
16096SOL    HW250128   6.675   8.764  14.803
16097SOL     OW50129   8.410  14.078  11.539
16097SOL    HW150130   8.375  14.112  11.456
16097SOL    HW250131   8.468  14.006  11.513
16098SOL     OW50132   8.052   1.766   6.180
16098SOL    HW150133   8.047   1.846   6.232
16098SOL    HW250134   8.145   1.752   6.166
16099SOL     OW50135   9.203   5.185   7.850
16099SOL    HW150136   9.151   5.109   7.823
16099SOL    HW250137   9.160   5.259   7.806
16100SOL     OW50138   3.557   4.461   1.972
16100SOL    HW150139   3.504   4.532   2.010
16100SOL    HW250140   3.643   4.501   1.957
16101SOL     OW50141   0.490   1.374   3.220
16101SOL    HW150142   0.429   1.447   3.221
16101SOL    HW250143   0.434   1.297   3.208
16102SOL     OW50144   0.829   6.261   8.862
16102SOL    HW150145   0.794   6.271   8.951
16102SOL    HW250146   0.868   6.174   8.861
16103SOL     OW50147   4.415   1.348   3.009
16103SOL    HW150148   4.411   1.325   2.916
16103SOL    HW250149   4.507   1.365   3.026
16104SOL     OW50150   2.652   7.936   5.522
16104SOL    HW150151   2.588   8.007   5.521
16104SOL    HW250152   2.732   7.976   5.557
16105SOL     OW50153   3.595   9.498  10.242
16105SOL    HW150154   3.510   9.535  10.264
16105SOL    HW250155   3.576   9.430  10.177
16106SOL     OW50156   0.558  11.133   6.220
16106SOL    HW150157   0.624  11.071   6.188
16106SOL    HW250158   0.517  11.088   6.294
16107SOL     OW50159   3.322   0.167   3.117
16107SOL    HW150160   3.245   0.144   3.065
16107SOL    HW250161   3.289   0.176   3.206
16108SOL     OW50162   7.369  10.713   3.071
16108SOL    HW150163   7.460  10.730   3.097
16108SOL    HW250164   7.371  10.714   2.976
16109SOL     OW50165  10.086  10.921   7.668
16109SOL    HW150166  10.005  10.913   7.718
16109SOL    HW250167  10.090  10.841   7.617
16110SOL     OW50168   4.740   2.135   9.375
16110SOL    HW150169   4.748   2.041   9.390
16110SOL    HW250170   4.751   2.174   9.462
16111SOL     OW50171  11.726  11.712   1.639
16111SOL    HW150172  11.725  11.772   1.564
16111SOL    HW250173  11.816  11.678   1.640
16112SOL     OW50174   0.457   4.981   0.296
16112SOL    HW150175   0.529   5.022   0.248
16112SOL    HW250176   0.408   4.934   0.228
16113SOL     OW50177  10.800   4.701   0.022
16113SOL    HW150178  10.734   4.632   0.024
16113SOL    HW250179  10.861   4.673  14.830
16114SOL     OW50180   6.194  12.112   3.339
16114SOL    HW150181   6.210  12.205   3.327
16114SOL    HW250182   6.126  12.090   3.276
16115SOL     OW50183  10.753  10.593   8.850
16115SOL    HW150184  10.670  10.608   8.893
16115SOL    HW250185  10.761  10.498   8.844
16116SOL     OW50186  13.252   0.268   0.979
16116SOL    HW150187  13.297   0.185   0.996
16116SOL    HW250188  13.160   0.244   0.969
16117SOL     OW50189  12.506   9.680  13.638
16117SOL    HW150190  12.559   9.635  13.703
16117SOL    HW250191  12.513   9.625  13.560
16118SOL     OW50192   0.434   9.268   7.024
16118SOL    HW150193   0.409   9.359   7.010
16118SOL    HW250194   0.412   9.251   7.116
16119SOL     OW50195   8.500  13.560  12.989
16119SOL    HW150196   8.489  13.610  13.070
16119SOL    HW250197   8.437  13.599  12.928
16120SOL     OW50198   1.868  10.236   0.579
16120SOL    HW150199   1.910  10.243   0.493
16120SOL    HW250200   1.941  10.219   0.639
16121SOL     OW50201   4.673  10.863  12.490
16121SOL    HW150202   4.681  10.924  12.563
16121SOL    HW250203   4.680  10.919  12.412
16122SOL     OW50204   5.079   1.515   1.583
16122SOL    HW150205   5.139   1.448   1.617
16122SOL    HW250206   5.061   1.571   1.659
16123SOL     OW50207   7.503  12.371   1.952
16123SOL    HW150208   7.566  12.441   1.932
16123SOL    HW250209   7.457  12.402   2.030
16124SOL     OW50210   7.952  13.868   5.010
16124SOL    HW150211   7.993  13.789   4.974
16124SOL    HW250212   7.972  13.864   5.104
16125SOL     OW50213  13.260   6.431   9.239
16125SOL    HW150214  13.234   6.343   9.212
16125SOL    HW250215  13.287   6.420   9.331
16126SOL     OW50216  10.722  10.023  12.443
16126SOL    HW150217  10.664  10.044  12.517
16126SOL    HW250218  10.733   9.928  12.447
16127SOL     OW50219   8.855  14.714   2.714
16127SOL    HW150220   8.809  14.788   2.673
16127SOL    HW250221   8.808  14.700   2.797
16128SOL     OW50222  13.871  13.110   1.672
16128SOL    HW150223  13.954  13.140   1.636
16128SOL    HW250224  13.894  13.046   1.739
16129SOL     OW50225  13.929  11.679   4.234
16129SOL    HW150226  13.864  11.619   4.197
16129SOL    HW250227  13.950  11.642   4.320
16130SOL     OW50228   7.921   4.302  10.745
16130SOL    HW150229   7.902   4.396  10.739
16130SOL    HW250230   7.992   4.295  10.808
16131SOL     OW50231   7.975   4.863  11.322
16131SOL    HW150232   7.909   4.801  11.354
16131SOL    HW250233   8.000   4.913  11.399
16132SOL     OW50234  10.206   6.027   1.953
16132SOL    HW150235  10.149   6.100   1.977
16132SOL    HW250236  10.290   6.049   1.994
16133SOL     OW50237  12.027   1.578   9.701
16133SOL    HW150238  11.932   1.583   9.707
16133SOL    HW250239  12.049   1.491   9.733
16134SOL     OW50240   1.636   1.869  11.170
16134SOL    HW150241   1.616   1.838  11.259
16134SOL    HW250242   1.629   1.964  11.177
16135SOL     OW50243  11.989   3.242  10.807
16135SOL    HW150244  11.961   3.251  10.898
16135SOL    HW250245  12.005   3.149  10.795
16136SOL     OW50246   0.947   0.130   1.071
16136SOL    HW150247   0.954   0.036   1.087
16136SOL    HW250248   0.877   0.159   1.129
16137SOL     OW50249   3.595   5.149  10.820
16137SOL    HW150250   3.660   5.200  10.868
16137SOL    HW250251   3.639   5.128  10.737
16138SOL     OW50252   4.319   3.329  11.549
16138SOL    HW150253   4.281   3.371  11.626
16138SOL    HW250254   4.252   3.338  11.481
16139SOL     OW50255   9.993   3.689   7.232
16139SOL    HW150256  10.075   3.677   7.280
16139SOL    HW250257   9.945   3.755   7.282
16140SOL     OW50258  14.565   9.906   1.228
16140SOL    HW150259  14.559  10.001   1.240
16140SOL    HW250260  14.573   9.871   1.317
16141SOL     OW50261  11.905  14.745  11.303
16141SOL    HW150262  11.975  14.712  11.247
16141SOL    HW250263  11.896  14.678  11.372
16142SOL     OW50264   1.258   8.435   0.152
16142SOL    HW150265   1.232   8.524   0.127
16142SOL    HW250266   1.340   8.447   0.200
16143SOL     OW50267   0.615  12.538   0.430
16143SOL    HW150268   0.678  12.494   0.373
16143SOL    HW250269   0.623  12.494   0.514
16144SOL     OW50270  14.512   6.648   5.037
16144SOL    HW150271  14.540   6.589   4.967
16144SOL    HW250272  14.457   6.713   4.993
16145SOL     OW50273  13.634   4.725  14.731
16145SOL    HW150274  13.626   4.722  14.826
16145SOL    HW250275  13.547   4.699  14.699
16146SOL     OW50276   6.628   7.982   0.347
16146SOL    HW150277   6.595   7.894   0.331
16146SOL    HW250278   6.714   7.984   0.304
16147SOL     OW50279   2.551   8.861  14.204
16147SOL    HW150280   2.526   8.910  14.282
16147SOL    HW250281   2.644   8.882  14.191
16148SOL     OW50282   6.763  10.095  11.009
16148SOL    HW150283   6.800  10.047  10.935
16148SOL    HW250284   6.696  10.036  11.045
16149SOL     OW50285   3.229   4.688  14.855
16149SOL    HW150286   3.279   4.770  14.851
16149SOL    HW250287   3.273   4.629  14.795
16150SOL     OW50288   7.416   0.765   6.184
16150SOL    HW150289   7.357   0.715   6.240
16150SOL    HW250290   7.498   0.770   6.234
16151SOL     OW50291   1.110   1.836   0.322
16151SOL    HW150292   1.100   1.846   0.227
16151SOL    HW250293   1.134   1.924   0.352
16152SOL     OW50294   3.690   1.009   2.138
16152SOL    HW150295   3.637   0.929   2.139
16152SOL    HW250296   3.738   1.005   2.055
16153SOL     OW50297   3.317   6.977  14.255
16153SOL    HW150298   3.285   7.050  14.309
16153SOL    HW250299   3.353   6.915  14.319
16154SOL     OW50300  11.755  11.196   5.595
16154SOL    HW150301  11.828  11.179   5.654
16154SOL    HW250302  11.751  11.118   5.539
16155SOL     OW50303   3.984  11.258   3.424
16155SOL    HW150304   4.027  11.281   3.342
16155SOL    HW250305   4.051  11.212   3.475
16156SOL     OW50306   3.946  11.552   2.844
16156SOL    HW150307   3.924  11.541   2.752
16156SOL    HW250308   4.038  11.525   2.850
16157SOL     OW50309   0.974   9.998  11.764
16157SOL    HW150310   1.035   9.965  11.830
16157SOL    HW250311   0.954  10.087  11.791
16158SOL     OW50312   4.431   7.153   1.096
16158SOL    HW150313   4.499   7.086   1.105
16158SOL    HW250314   4.430   7.174   1.003
16159SOL     OW50315  10.547   6.817  11.028
16159SOL    HW150316  10.596   6.835  10.948
16159SOL    HW250317  10.455   6.833  11.004
16160SOL     OW50318  13.816  11.700   7.002
16160SOL    HW150319  13.872  11.688   6.925
16160SOL    HW250320  13.874  11.739   7.067
16161SOL     OW50321   8.703   6.327  13.676
16161SOL    HW150322   8.655   6.391  13.623
16161SOL    HW250323   8.718   6.253  13.618
16162SOL     OW50324  11.802   2.451   6.095
16162SOL    HW150325  11.809   2.501   6.176
16162SOL    HW250326  11.784   2.516   6.027
16163SOL     OW50327  10.782   0.681   3.590
16163SOL    HW150328  10.725   0.633   3.531
16163SOL    HW250329  10.794   0.623   3.665
16164SOL     OW50330  12.729  11.611   9.623
16164SOL    HW150331  12.673  11.614   9.546
16164SOL    HW250332  12.681  11.661   9.689
16165SOL     OW50333  12.254  12.054   2.771
16165SOL    HW150334  12.182  12.057   2.834
16165SOL    HW250335  12.230  12.119   2.705
16166SOL     OW50336   7.059   1.195  10.688
16166SOL    HW150337   7.088   1.188  10.779
16166SOL    HW250338   7.134   1.232  10.642
16167SOL     OW50339   4.457   4.820   1.395
16167SOL    HW150340   4.494   4.896   1.440
16167SOL    HW250341   4.443   4.756   1.464
16168SOL     OW50342  14.520   9.605   9.072
16168SOL    HW150343  14.567   9.677   9.032
16168SOL    HW250344  14.465   9.570   9.002
16169SOL     OW50345  11.364   2.579  13.087
16169SOL    HW150346  11.285   2.562  13.035
16169SOL    HW250347  11.342   2.657  13.138
16170SOL     OW50348  11.773   4.612   9.033
16170SOL    HW150349  11.815   4.602   8.948
16170SOL    HW250350  11.802   4.536   9.084
16171SOL     OW50351   6.451   4.990   8.829
16171SOL    HW150352   6.448   4.909   8.779
16171SOL    HW250353   6.391   5.049   8.783
16172SOL     OW50354   0.758   0.578   4.377
16172SOL    HW150355   0.824   0.629   4.330
16172SOL    HW250356   0.729   0.636   4.447
16173SOL     OW50357  10.050   1.014   2.235
16173SOL    HW150358  10.021   0.997   2.145
16173SOL    HW250359  10.050   1.110   2.242
16174SOL     OW50360   5.541   2.288   2.079
16174SOL    HW150361   5.485   2.212   2.093
16174SOL    HW250362   5.595   2.265   2.004
16175SOL     OW50363   7.006   8.733   1.532
16175SOL    HW150364   7.022   8.647   1.491
16175SOL    HW250365   6.964   8.713   1.615
16176SOL     OW50366  13.143   5.527  11.907
16176SOL    HW150367  13.204   5.580  11.856
16176SOL    HW250368  13.095   5.476  11.842
16177SOL     OW50369   9.662   1.921   0.419
16177SOL    HW150370   9.584   1.953   0.465
16177SOL    HW250371   9.735   1.962   0.465
16178SOL     OW50372   0.760  11.633   6.824
16178SOL    HW150373   0.669  11.647   6.850
16178SOL    HW250374   0.811  11.644   6.905
16179SOL     OW50375   7.307   9.083  11.139
16179SOL    HW150376   7.298   8.995  11.177
16179SOL    HW250377   7.289   9.142  11.213
16180SOL     OW50378  12.058  13.441  12.420
16180SOL    HW150379  12.011  13.517  12.453
16180SOL    HW250380  12.100  13.471  12.339
16181SOL     OW50381   8.959   3.484   3.977
16181SOL    HW150382   9.002   3.414   3.928
16181SOL    HW250383   8.993   3.475   4.066
16182SOL     OW50384  12.751  14.314  10.195
16182SOL    HW150385  12.825  14.374  10.194
16182SOL    HW250386  12.787  14.232  10.228
16183SOL     OW50387   7.482   9.238  12.910
16183SOL    HW150388   7.511   9.213  12.998
16183SOL    HW250389   7.521   9.172  12.852
16184SOL     OW50390   7.971   9.636   1.156
16184SOL    HW150391   8.055   9.601   1.126
16184SOL    HW250392   7.988   9.670   1.243
16185SOL     OW50393  13.988   3.166  11.687
16185SOL    HW150394  14.018   3.224  11.616
16185SOL    HW250395  13.895   3.187  11.696
16186SOL     OW50396   2.964   0.666   4.684
16186SOL    HW150397   3.003   0.753   4.693
16186SOL    HW250398   3.014   0.624   4.614
16187SOL     OW50399   7.200  14.133   3.402
16187SOL    HW150400   7.143  14.059   3.381
16187SOL    HW250401   7.284  14.109   3.363
16188SOL     OW50402   6.732   3.154   3.343
16188SOL    HW150403   6.819   3.184   3.368
16188SOL    HW250404   6.673   3.221   3.377
16189SOL     OW50405   0.870   9.257   1.399
16189SOL    HW150406   0.882   9.325   1.333
16189SOL    HW250407   0.788   9.281   1.442
16190SOL     OW50408  12.224   4.390   7.134
16190SOL    HW150409  12.242   4.333   7.059
16190SOL    HW250410  12.295   4.454   7.134
16191SOL     OW50411  12.310   3.959   2.988
16191SOL    HW150412  12.381   3.962   3.052
16191SOL    HW250413  12.337   4.021   2.920
16192SOL     OW50414   7.448   2.776   9.921
16192SOL    HW150415   7.481   2.854   9.965
16192SOL    HW250416   7.435   2.803   9.830
16193SOL     OW50417   7.002  14.461   8.374
16193SOL    HW150418   7.020  14.388   8.433
16193SOL    HW250419   7.077  14.520   8.385
16194SOL     OW50420  14.115   0.580   9.166
16194SOL    HW150421  14.034   0.559   9.212
16194SOL    HW250422  14.120   0.676   9.168
16195SOL     OW50423   0.889   9.664   5.044
16195SOL    HW150424   0.956   9.698   5.103
16195SOL    HW250425   0.863   9.581   5.084
16196SOL     OW50426   2.051   3.190   7.062
16196SOL    HW150427   2.005   3.223   7.139
16196SOL    HW250428   2.016   3.241   6.989
16197SOL     OW50429  12.125  14.019   3.989
16197SOL    HW150430  12.148  14.080   4.059
16197SOL    HW250431  12.117  13.934   4.033
16198SOL     OW50432   6.824   7.649   8.869
16198SOL    HW150433   6.842   7.612   8.955
16198SOL    HW250434   6.838   7.577   8.808
16199SOL     OW50435   2.073  11.026   6.105
16199SOL    HW150436   2.096  11.065   6.021
16199SOL    HW250437   1.987  11.062   6.126
16200SOL     OW50438   5.644   9.445  13.752
16200SOL    HW150439   5.616   9.537  13.748
16200SOL    HW250440   5.597   9.403  13.680
16201SOL     OW50441   8.025   2.335   6.149
16201SOL    HW150442   8.040   2.241   6.137
16201SOL    HW250443   8.044   2.351   6.241
16202SOL     OW50444   5.219  13.052   2.023
16202SOL    HW150445   5.307  13.017   2.010
16202SOL    HW250446   5.232  13.147   2.032
16203SOL     OW50447   0.302   3.358   7.890
16203SOL    HW150448   0.237   3.395   7.831
16203SOL    HW250449   0.277   3.390   7.977
16204SOL     OW50450   2.072   8.487  12.015
16204SOL    HW150451   2.098   8.542  12.089
16204SOL    HW250452   1.981   8.464  12.034
16205SOL     OW50453   8.570  12.608  14.798
16205SOL    HW150454   8.545  12.571  14.713
16205SOL    HW250455   8.608  12.535  14.846
16206SOL     OW50456   7.156   4.312   2.559
16206SOL    HW150457   7.137   4.273   2.645
16206SOL    HW250458   7.222   4.253   2.521
16207SOL     OW50459   5.620   4.407   5.941
16207SOL    HW150460   5.544   4.396   5.883
16207SOL    HW250461   5.583   4.417   6.028
16208SOL     OW50462  14.785  12.780   9.343
16208SOL    HW150463  14.740  12.772   9.426
16208SOL    HW250464  14.873  12.811   9.366
16209SOL     OW50465  12.640  13.883   7.012
16209SOL    HW150466  12.589  13.830   7.074
16209SOL    HW250467  12.694  13.940   7.067
16210SOL     OW50468   3.357   3.012   7.608
16210SOL    HW150469   3.440   3.000   7.561
16210SOL    HW250470   3.381   3.010   7.701
16211SOL     OW50471   6.388  11.468   5.654
16211SOL    HW150472   6.299  11.501   5.642
16211SOL    HW250473   6.396  11.455   5.749
16212SOL     OW50474   0.208   6.637   7.879
16212SOL    HW150475   0.128   6.586   7.889
16212SOL    HW250476   0.278   6.573   7.885
16213SOL     OW50477   5.021   1.361   1.040
16213SOL    HW150478   5.092   1.355   0.975
16213SOL    HW250479   5.052   1.309   1.114
16214SOL     OW50480   8.983  14.363  11.207
16214SOL    HW150481   8.922  14.311  11.258
16214SOL    HW250482   8.956  14.454  11.222
16215SOL     OW50483  10.178  14.608  10.877
16215SOL    HW150484  10.164  14.517  10.852
16215SOL    HW250485  10.135  14.659  10.808
16216SOL     OW50486  12.438  13.128  10.657
16216SOL    HW150487  12.429  13.034  10.646
16216SOL    HW250488  12.415  13.165  10.572
16217SOL     OW50489   8.933  10.466  10.925
16217SOL    HW150490   8.889  10.381  10.919
16217SOL    HW250491   9.026  10.444  10.925
16218SOL     OW50492  12.980  11.165   7.571
16218SOL    HW150493  13.062  11.145   7.526
16218SOL    HW250494  12.913  11.157   7.504
16219SOL     OW50495   9.047  10.745  10.795
16219SOL    HW150496   9.096  10.667  10.821
16219SOL    HW250497   9.079  10.814  10.852
16220SOL     OW50498   8.463  10.897   7.709
16220SOL    HW150499   8.557  10.905   7.691
16220SOL    HW250500   8.427  10.855   7.630
16221SOL     OW50501   7.959  12.355   9.934
16221SOL    HW150502   7.934  12.413   9.862
16221SOL    HW250503   7.887  12.293   9.941
16222SOL     OW50504  10.554   0.357   4.012
16222SOL    HW150505  10.518   0.293   4.073
16222SOL    HW250506  10.532   0.322   3.925
16223SOL     OW50507   5.651  13.041   7.629
16223SOL    HW150508   5.596  13.085   7.565
16223SOL    HW250509   5.676  12.959   7.587
16224SOL     OW50510   1.723   2.980   1.977
16224SOL    HW150511   1.730   3.048   1.910
16224SOL    HW250512   1.657   3.012   2.038
16225SOL     OW50513  11.207   9.922  12.708
16225SOL    HW150514  11.160  10.002  12.686
16225SOL    HW250515  11.298   9.950  12.719
16226SOL     OW50516   1.241   3.244  14.299
16226SOL    HW150517   1.146   3.245  14.305
16226SOL    HW250518   1.262   3.159  14.260
16227SOL     OW50519  14.351   1.669  10.168
16227SOL    HW150520  14.260   1.697  10.179
16227SOL    HW250521  14.402   1.750  10.172
16228SOL     OW50522  11.920  11.300   1.679
16228SOL    HW150523  11.995  11.289   1.620
16228SOL    HW250524  11.959  11.322   1.763
16229SOL     OW50525   4.494   6.670  10.394
16229SOL    HW150526   4.513   6.588  10.348
16229SOL    HW250527   4.509   6.738  10.328
16230SOL     OW50528   0.626   6.050   6.712
16230SOL    HW150529   0.606   6.032   6.620
16230SOL    HW250530   0.545   6.030   6.759
16231SOL     OW50531  13.132   6.060   2.701
16231SOL    HW150532  13.210   6.112   2.717
16231SOL    HW250533  13.102   6.035   2.789
16232SOL     OW50534   2.404   9.519   8.410
16232SOL    HW150535   2.461   9.542   8.337
16232SOL    HW250536   2.357   9.441   8.381
16233SOL     OW50537   2.913   9.673   1.282
16233SOL    HW150538   2.984   9.734   1.303
16233SOL    HW250539   2.952   9.611   1.221
16234SOL     OW50540   0.096   6.664   0.398
16234SOL    HW150541   0.024   6.704   0.447
16234SOL    HW250542   0.148   6.737   0.366
16235SOL     OW50543  10.662  14.783  14.345
16235SOL    HW150544  10.709  14.833  14.411
16235SOL    HW250545  10.729  14.727  14.305
16236SOL     OW50546  13.460   7.733   0.709
16236SOL    HW150547  13.397   7.773   0.649
16236SOL    HW250548  13.533   7.794   0.712
16237SOL     OW50549   0.744   6.201  10.238
16237SOL    HW150550   0.720   6.133  10.175
16237SOL    HW250551   0.697   6.178  10.318
16238SOL     OW50552  12.029  10.786  13.530
16238SOL    HW150553  12.090  10.833  13.475
16238SOL    HW250554  11.968  10.745  13.468
16239SOL     OW50555  12.569   2.223   4.297
16239SOL    HW150556  12.639   2.186   4.349
16239SOL    HW250557  12.545   2.304   4.343
16240SOL     OW50558  14.337   6.407   4.593
16240SOL    HW150559  14.299   6.447   4.516
16240SOL    HW250560  14.270   6.347   4.625
16241SOL     OW50561  12.160   2.093  12.015
16241SOL    HW150562  12.124   2.045  12.090
16241SOL    HW250563  12.236   2.042  11.989
16242SOL     OW50564  13.877  11.882   4.581
16242SOL    HW150565  13.915  11.970   4.582
16242SOL    HW250566  13.944  11.828   4.541
16243SOL     OW50567   3.576  14.449   3.668
16243SOL    HW150568   3.656  14.410   3.633
16243SOL    HW250569   3.595  14.542   3.674
16244SOL     OW50570  13.633   1.934   8.575
16244SOL    HW150571  13.545   1.971   8.589
16244SOL    HW250572  13.688   2.011   8.557
16245SOL     OW50573   3.274  12.105  13.798
16245SOL    HW150574   3.208  12.153  13.748
16245SOL    HW250575   3.346  12.167  13.808
16246SOL     OW50576   1.009   4.919  14.687
16246SOL    HW150577   1.089   4.968  14.665
16246SOL    HW250578   1.021   4.833  14.647
16247SOL     OW50579  13.134   5.486  11.077
16247SOL    HW150580  13.105   5.438  11.000
16247SOL    HW250581  13.167   5.569  11.042
16248SOL     OW50582  13.472   9.825   1.826
16248SOL    HW150583  13.398   9.799   1.771
16248SOL    HW250584  13.538   9.757   1.810
16249SOL     OW50585   2.085  14.867   5.319
16249SOL    HW150586   2.047  14.824   5.396
16249SOL    HW250587   2.137  14.799   5.276
16250SOL     OW50588  14.173   8.890   2.995
16250SOL    HW150589  14.114   8.818   2.971
16250SOL    HW250590  14.228   8.854   3.065
16251SOL     OW50591  14.591  14.743   9.917
16251SOL    HW150592  14.515  14.769   9.970
16251SOL    HW250593  14.595  14.648   9.926
16252SOL     OW50594  13.292   9.717   5.452
16252SOL    HW150595  13.304   9.727   5.358
16252SOL    HW250596  13.267   9.804   5.483
16253SOL     OW50597   8.510   5.143   4.369
16253SOL    HW150598   8.513   5.075   4.436
16253SOL    HW250599   8.569   5.212   4.402
16254SOL     OW50600   7.044   3.993  10.242
16254SOL    HW150601   7.017   3.901  10.240
16254SOL    HW250602   7.112   4.000  10.176
16255SOL     OW50603  10.007  10.266   0.742
16255SOL    HW150604  10.061  10.298   0.814
16255SOL    HW250605   9.975  10.346   0.699
16256SOL     OW50606   7.288  13.561   3.184
16256SOL    HW150607   7.314  13.633   3.126
16256SOL    HW250608   7.318  13.589   3.270
16257SOL     OW50609   9.622  12.179   3.868
16257SOL    HW150610   9.711  12.177   3.904
16257SOL    HW250611   9.572  12.233   3.930
16258SOL     OW50612   4.629   4.039   9.872
16258SOL    HW150613   4.576   4.118   9.857
16258SOL    HW250614   4.701   4.045   9.809
16259SOL     OW50615   2.517  12.623   9.491
16259SOL    HW150616   2.601  12.597   9.454
16259SOL    HW250617   2.474  12.541   9.513
16260SOL     OW50618  14.831  10.281   5.577
16260SOL    HW150619   0.021  10.333   5.622
16260SOL    HW250620  14.817  10.326   5.494
16261SOL     OW50621   6.603   6.536  12.758
16261SOL    HW150622   6.556   6.618  12.747
16261SOL    HW250623   6.536   6.468  12.753
16262SOL     OW50624   7.187   9.995  12.577
16262SOL    HW150625   7.139  10.078  12.585
16262SOL    HW250626   7.148   9.952  12.500
16263SOL     OW50627   6.063   0.354  12.802
16263SOL    HW150628   6.057   0.404  12.883
16263SOL    HW250629   6.092   0.417  12.737
16264SOL     OW50630   0.710   4.434   6.511
16264SOL    HW150631   0.642   4.368   6.521
16264SOL    HW250632   0.662   4.516   6.498
16265SOL     OW50633   7.695  11.712  12.377
16265SOL    HW150634   7.763  11.689  12.440
16265SOL    HW250635   7.716  11.662  12.299
16266SOL     OW50636   6.408   7.527   1.385
16266SOL    HW150637   6.474   7.580   1.340
16266SOL    HW250638   6.424   7.541   1.478
16267SOL     OW50639   1.362   9.418  13.001
16267SOL    HW150640   1.402   9.495  13.042
16267SOL    HW250641   1.413   9.345  13.036
16268SOL     OW50642   8.080   4.546   3.333
16268SOL    HW150643   8.070   4.539   3.238
16268SOL    HW250644   8.147   4.481   3.354
16269SOL     OW50645  11.919   3.767  12.130
16269SOL    HW150646  11.929   3.842  12.189
16269SOL    HW250647  11.835   3.781  12.087
16270SOL     OW50648  11.195   3.608  12.045
16270SOL    HW150649  11.161   3.656  12.120
16270SOL    HW250650  11.229   3.676  11.987
16271SOL     OW50651  12.035   8.099  10.653
16271SOL    HW150652  12.102   8.120  10.719
16271SOL    HW250653  12.086   8.080  10.574
16272SOL     OW50654   9.409   7.793  14.263
16272SOL    HW150655   9.472   7.732  14.223
16272SOL    HW250656   9.454   7.826  14.341
16273SOL     OW50657   7.121   5.634  14.641
16273SOL    HW150658   7.151   5.545  14.620
16273SOL    HW250659   7.176   5.661  14.715
16274SOL     OW50660   5.518  10.876   3.967
16274SOL    HW150661   5.550  10.817   4.034
16274SOL    HW250662   5.455  10.825   3.917
16275SOL     OW50663   7.116   1.104   3.402
16275SOL    HW150664   7.166   1.148   3.471
16275SOL    HW250665   7.056   1.172   3.370
16276SOL     OW50666   3.546   5.432   1.612
16276SOL    HW150667   3.553   5.353   1.665
16276SOL    HW250668   3.621   5.427   1.552
16277SOL     OW50669  10.151   9.280  10.429
16277SOL    HW150670  10.181   9.205  10.480
16277SOL    HW250671  10.231   9.327  10.406
16278SOL     OW50672   8.618   0.092   3.889
16278SOL    HW150673   8.596   0.052   3.805
16278SOL    HW250674   8.633   0.018   3.948
16279SOL     OW50675   7.817   9.656   9.669
16279SOL    HW150676   7.733   9.619   9.694
16279SOL    HW250677   7.794   9.728   9.610
16280SOL     OW50678  13.775   2.178   2.904
16280SOL    HW150679  13.850   2.183   2.964
16280SOL    HW250680  13.751   2.085   2.903
16281SOL     OW50681   7.699  12.605   8.572
16281SOL    HW150682   7.769  12.580   8.512
16281SOL    HW250683   7.672  12.692   8.543
16282SOL     OW50684   1.730  11.368   7.430
16282SOL    HW150685   1.774  11.328   7.355
16282SOL    HW250686   1.719  11.460   7.405
16283SOL     OW50687   9.962   1.981   6.978
16283SOL    HW150688   9.960   1.940   6.892
16283SOL    HW250689   9.932   2.071   6.963
16284SOL     OW50690   1.154  14.303   3.124
16284SOL    HW150691   1.086  14.237   3.136
16284SOL    HW250692   1.118  14.364   3.061
16285SOL     OW50693   3.847   3.178   0.352
16285SOL    HW150694   3.897   3.228   0.417
16285SOL    HW250695   3.766   3.228   0.341
16286SOL     OW50696   3.982  12.723   6.187
16286SOL    HW150697   4.029  12.798   6.154
16286SOL    HW250698   4.051  12.662   6.214
16287SOL     OW50699  10.149   9.334   1.033
16287SOL    HW150700  10.065   9.298   1.006
16287SOL    HW250701  10.126   9.409   1.089
16288SOL     OW50702   8.580  11.264   3.674
16288SOL    HW150703   8.591  11.264   3.579
16288SOL    HW250704   8.580  11.171   3.698
16289SOL     OW50705   2.710   7.691   2.575
16289SOL    HW150706   2.754   7.642   2.644
16289SOL    HW250707   2.779   7.743   2.534
16290SOL     OW50708  14.027   5.194  10.011
16290SOL    HW150709  14.070   5.117  10.048
16290SOL    HW250710  13.954   5.159   9.960
16291SOL     OW50711  10.379  11.893   4.500
16291SOL    HW150712  10.325  11.955   4.451
16291SOL    HW250713  10.363  11.809   4.457
16292SOL     OW50714   8.718  13.977   3.814
16292SOL    HW150715   8.738  13.974   3.908
16292SOL    HW250716   8.629  13.944   3.807
16293SOL     OW50717   0.687   4.111  14.480
16293SOL    HW150718   0.728   4.180  14.428
16293SOL    HW250719   0.709   4.030  14.434
16294SOL     OW50720  12.039   6.195   7.073
16294SOL    HW150721  12.112   6.252   7.050
16294SOL    HW250722  12.024   6.141   6.996
16295SOL     OW50723   7.486   5.274   8.771
16295SOL    HW150724   7.492   5.267   8.675
16295SOL    HW250725   7.393   5.261   8.789
16296SOL     OW50726  14.262   9.924  14.711
16296SOL    HW150727  14.323   9.956  14.644
16296SOL    HW250728  14.305   9.848  14.749
16297SOL     OW50729   6.686   1.140  13.268
16297SOL    HW150730   6.651   1.158  13.355
16297SOL    HW250731   6.632   1.194  13.210
16298SOL     OW50732  13.715   6.319   4.615
16298SOL    HW150733  13.705   6.229   4.584
16298SOL    HW250734  13.636   6.335   4.666
16299SOL     OW50735   2.700  10.537  12.652
16299SOL    HW150736   2.770  10.603  12.650
16299SOL    HW250737   2.672  10.528  12.561
16300SOL     OW50738  12.303   1.401   5.987
16300SOL    HW150739  12.209   1.420   5.977
16300SOL    HW250740  12.325   1.433   6.075
16301SOL     OW50741   2.798  10.397   6.186
16301SOL    HW150742   2.751  10.320   6.217
16301SOL    HW250743   2.759  10.470   6.235
16302SOL     OW50744  12.777   8.348   7.846
16302SOL    HW150745  12.833   8.420   7.876
16302SOL    HW250746  12.688   8.374   7.869
16303SOL     OW50747  12.899   0.168   0.913
16303SOL    HW150748  12.865   0.230   0.849
16303SOL    HW250749  12.827   0.153   0.974
16304SOL     OW50750   4.241   9.504   4.917
16304SOL    HW150751   4.316   9.556   4.889
16304SOL    HW250752   4.235   9.434   4.853
16305SOL     OW50753   5.792   8.757   0.522
16305SOL    HW150754   5.858   8.824   0.541
16305SOL    HW250755   5.752   8.738   0.607
16306SOL     OW50756   1.716   3.802  12.394
16306SOL    HW150757   1.643   3.792  12.333
16306SOL    HW250758   1.677   3.838  12.474
16307SOL     OW50759   4.470   3.513   1.735
16307SOL    HW150760   4.530   3.489   1.664
16307SOL    HW250761   4.391   3.544   1.691
16308SOL     OW50762   6.197   3.711  11.463
16308SOL    HW150763   6.141   3.651  11.511
16308SOL    HW250764   6.213   3.668  11.379
16309SOL     OW50765   3.052   4.146  11.081
16309SOL    HW150766   3.122   4.166  11.143
16309SOL    HW250767   3.090   4.165  10.995
16310SOL     OW50768  10.655   1.268   3.969
16310SOL    HW150769  10.706   1.234   4.043
16310SOL    HW250770  10.586   1.204   3.955
16311SOL     OW50771   5.708  11.861  12.481
16311SOL    HW150772   5.791  11.813  12.480
16311SOL    HW250773   5.647  11.803  12.436
16312SOL     OW50774   0.243   5.929   7.231
16312SOL    HW150775   0.309   5.993   7.260
16312SOL    HW250776   0.275   5.846   7.265
16313SOL     OW50777   0.043   2.626  12.566
16313SOL    HW150778  14.862   2.596  12.495
16313SOL    HW250779   0.124   2.576  12.553
16314SOL     OW50780  11.582   3.199   8.865
16314SOL    HW150781  11.588   3.127   8.802
16314SOL    HW250782  11.510   3.254   8.833
16315SOL     OW50783   5.506   6.026  10.670
16315SOL    HW150784   5.463   6.058  10.749
16315SOL    HW250785   5.436   6.021  10.605
16316SOL     OW50786   7.214   1.716   5.726
16316SOL    HW150787   7.178   1.790   5.777
16316SOL    HW250788   7.240   1.652   5.792
16317SOL     OW50789   8.149   8.176   6.925
16317SOL    HW150790   8.092   8.127   6.865
16317SOL    HW250791   8.237   8.145   6.904
16318SOL     OW50792   9.263   5.529  13.129
16318SOL    HW150793   9.224   5.443  13.115
16318SOL    HW250794   9.355   5.511  13.148
16319SOL     OW50795  13.012   2.264   3.555
16319SOL    HW150796  13.023   2.173   3.529
16319SOL    HW250797  12.988   2.261   3.647
16320SOL     OW50798   3.104   3.379   8.423
16320SOL    HW150799   3.093   3.348   8.333
16320SOL    HW250800   3.132   3.470   8.414
16321SOL     OW50801   5.582  10.114  10.150
16321SOL    HW150802   5.545  10.080  10.069
16321SOL    HW250803   5.635  10.189  10.122
16322SOL     OW50804  12.162  11.382   6.232
16322SOL    HW150805  12.168  11.314   6.165
16322SOL    HW250806  12.143  11.335   6.313
16323SOL     OW50807   2.566   3.565  11.107
16323SOL    HW150808   2.505   3.634  11.135
16323SOL    HW250809   2.535   3.540  11.020
16324SOL     OW50810   5.416   9.894   2.081
16324SOL    HW150811   5.367   9.966   2.119
16324SOL    HW250812   5.401   9.902   1.987
16325SOL     OW50813   5.162   5.062   7.151
16325SOL    HW150814   5.134   5.131   7.211
16325SOL    HW250815   5.082   5.013   7.132
16326SOL     OW50816  10.272  13.426   1.002
16326SOL    HW150817  10.243  13.335   1.009
16326SOL    HW250818  10.348  13.432   1.061
16327SOL     OW50819   5.289   5.222   0.115
16327SOL    HW150820   5.349   5.148   0.123
16327SOL    HW250821   5.320   5.271   0.039
16328SOL     OW50822   9.024   9.857   1.421
16328SOL    HW150823   9.021   9.859   1.517
16328SOL    HW250824   9.027   9.764   1.399
16329SOL     OW50825  12.407   5.492   7.223
16329SOL    HW150826  12.358   5.440   7.286
16329SOL    HW250827  12.483   5.523   7.272
16330SOL     OW50828   7.988   0.493   0.024
16330SOL    HW150829   7.942   0.423  14.854
16330SOL    HW250830   8.033   0.542  14.831
16331SOL     OW50831   5.437  13.700   6.453
16331SOL    HW150832   5.353  13.710   6.409
16331SOL    HW250833   5.415  13.666   6.540
16332SOL     OW50834  14.160  12.331  12.824
16332SOL    HW150835  14.190  12.419  12.848
16332SOL    HW250836  14.069  12.328  12.852
16333SOL     OW50837   5.551  11.191  10.924
16333SOL    HW150838   5.457  11.181  10.908
16333SOL    HW250839   5.576  11.112  10.972
16334SOL     OW50840   2.862   4.569  11.822
16334SOL    HW150841   2.820   4.512  11.758
16334SOL    HW250842   2.950   4.582  11.788
16335SOL     OW50843   2.685  13.067  13.820
16335SOL    HW150844   2.743  13.008  13.771
16335SOL    HW250845   2.720  13.155  13.802
16336SOL     OW50846   8.394  13.829   2.880
16336SOL    HW150847   8.356  13.784   2.956
16336SOL    HW250848   8.364  13.778   2.805
16337SOL     OW50849   8.913  10.421  11.458
16337SOL    HW150850   8.949  10.474  11.529
16337SOL    HW250851   8.829  10.390  11.491
16338SOL     OW50852   4.179  14.070   7.748
16338SOL    HW150853   4.216  14.093   7.663
16338SOL    HW250854   4.250  14.026   7.795
16339SOL     OW50855   9.005   0.655   7.833
16339SOL    HW150856   8.928   0.600   7.815
16339SOL    HW250857   8.982   0.703   7.912
16340SOL     OW50858   1.847   1.818   5.491
16340SOL    HW150859   1.877   1.829   5.401
16340SOL    HW250860   1.772   1.878   5.499
16341SOL     OW50861  13.850  10.087   2.667
16341SOL    HW150862  13.932  10.083   2.715
16341SOL    HW250863  13.838  10.180   2.647
16342SOL     OW50864   1.841   2.955  11.454
16342SOL    HW150865   1.854   2.988  11.365
16342SOL    HW250866   1.919   2.904  11.473
16343SOL     OW50867   3.641   1.945   2.614
16343SOL    HW150868   3.553   1.980   2.631
16343SOL    HW250869   3.637   1.855   2.645
16344SOL     OW50870   6.255   6.737   6.554
16344SOL    HW150871   6.337   6.785   6.566
16344SOL    HW250872   6.260   6.703   6.464
16345SOL     OW50873  10.417   0.816   3.274
16345SOL    HW150874  10.443   0.899   3.314
16345SOL    HW250875  10.475   0.807   3.198
16346SOL     OW50876   5.744  11.327  13.405
16346SOL    HW150877   5.694  11.385  13.347
16346SOL    HW250878   5.681  11.260  13.432
16347SOL     OW50879  11.301  12.474   5.195
16347SOL    HW150880  11.369  12.426   5.147
16347SOL    HW250881  11.219  12.450   5.151
16348SOL     OW50882   5.380  11.703   0.678
16348SOL    HW150883   5.473  11.678   0.680
16348SOL    HW250884   5.343  11.654   0.605
16349SOL     OW50885   2.533   4.523   4.898
16349SOL    HW150886   2.524   4.617   4.919
16349SOL    HW250887   2.471   4.508   4.827
16350SOL     OW50888  12.485  14.270  12.555
16350SOL    HW150889  12.454  14.359  12.537
16350SOL    HW250890  12.454  14.252  12.643
16351SOL     OW50891   0.036   1.138  13.852
16351SOL    HW150892   0.008   1.117  13.941
16351SOL    HW250893   0.072   1.056  13.818
16352SOL     OW50894   4.096  12.933  12.727
16352SOL    HW150895   4.041  12.889  12.791
16352SOL    HW250896   4.184  12.933  12.765
16353SOL     OW50897   3.508   2.628   5.495
16353SOL    HW150898   3.474   2.716   5.509
16353SOL    HW250899   3.555   2.607   5.576
16354SOL     OW50900   5.905  13.172   7.008
16354SOL    HW150901   5.891  13.091   7.056
16354SOL    HW250902   5.858  13.238   7.059
16355SOL     OW50903  12.672  14.066  12.310
16355SOL    HW150904  12.581  14.041  12.324
16355SOL    HW250905  12.686  14.053  12.216
16356SOL     OW50906  14.454  13.243   6.008
16356SOL    HW150907  14.479  13.218   5.919
16356SOL    HW250908  14.367  13.206   6.019
16357SOL     OW50909   1.897   1.101   8.124
16357SOL    HW150910   1.846   1.161   8.179
16357SOL    HW250911   1.914   1.026   8.180
16358SOL     OW50912   0.922   2.088   9.896
16358SOL    HW150913   0.828   2.103   9.891
16358SOL    HW250914   0.957   2.167   9.938
16359SOL     OW50915   7.638   5.728   1.620
16359SOL    HW150916   7.632   5.731   1.525
16359SOL    HW250917   7.597   5.810   1.649
16360SOL     OW50918   8.811   0.025  12.161
16360SOL    HW150919   8.802  14.868  12.250
16360SOL    HW250920   8.722   0.022  12.126
16361SOL     OW50921   6.676   8.085   7.218
16361SOL    HW150922   6.749   8.146   7.205
16361SOL    HW250923   6.649   8.099   7.309
16362SOL     OW50924   0.279   0.197  13.808
16362SOL    HW150925   0.346   0.167  13.869
16362SOL    HW250926   0.295   0.290  13.797
16363SOL     OW50927   3.017   6.889   7.022
16363SOL    HW150928   3.033   6.969   6.971
16363SOL    HW250929   3.081   6.827   6.990
16364SOL     OW50930   6.891  10.124   1.235
16364SOL    HW150931   6.804  10.084   1.242
16364SOL    HW250932   6.925  10.123   1.324
16365SOL     OW50933   6.027   3.300   9.787
16365SOL    HW150934   5.989   3.302   9.875
16365SOL    HW250935   5.953   3.278   9.729
16366SOL     OW50936   3.943  13.963   4.668
16366SOL    HW150937   3.955  13.952   4.763
16366SOL    HW250938   3.860  14.009   4.660
16367SOL     OW50939  11.101   9.875   1.438
16367SOL    HW150940  11.048   9.943   1.398
16367SOL    HW250941  11.115   9.905   1.528
16368SOL     OW50942   3.224   1.822  13.909
16368SOL    HW150943   3.136   1.850  13.885
16368SOL    HW250944   3.241   1.864  13.993
16369SOL     OW50945  12.003   4.011   6.267
16369SOL    HW150946  11.945   4.083   6.240
16369SOL    HW250947  12.040   3.979   6.185
16370SOL     OW50948   4.940   6.248   2.911
16370SOL    HW150949   4.851   6.267   2.942
16370SOL    HW250950   4.996   6.269   2.986
16371SOL     OW50951   8.628   9.869   0.145
16371SOL    HW150952   8.536   9.884   0.166
16371SOL    HW250953   8.630   9.779   0.112
16372SOL     OW50954   4.861  12.630  12.941
16372SOL    HW150955   4.784  12.631  12.997
16372SOL    HW250956   4.877  12.722  12.921
16373SOL     OW50957   6.249   2.001   7.408
16373SOL    HW150958   6.256   1.975   7.316
16373SOL    HW250959   6.194   2.079   7.407
16374SOL     OW50960  14.806   7.103   8.689
16374SOL    HW150961  14.852   7.062   8.616
16374SOL    HW250962  14.762   7.179   8.651
16375SOL     OW50963   1.171   8.041   9.517
16375SOL    HW150964   1.240   8.102   9.544
16375SOL    HW250965   1.211   7.955   9.526
16376SOL     OW50966  13.972  12.621   2.356
16376SOL    HW150967  14.041  12.563   2.387
16376SOL    HW250968  14.018  12.701   2.330
16377SOL     OW50969   2.776  10.152   9.101
16377SOL    HW150970   2.687  10.187   9.112
16377SOL    HW250971   2.762  10.061   9.076
16378SOL     OW50972   5.302  12.761  12.436
16378SOL    HW150973   5.348  12.681  12.412
16378SOL    HW250974   5.368  12.830  12.429
16379SOL     OW50975  11.116  10.017   6.573
16379SOL    HW150976  11.180   9.959   6.533
16379SOL    HW250977  11.146  10.025   6.664
16380SOL     OW50978  10.627   7.827   5.653
16380SOL    HW150979  10.663   7.764   5.715
16380SOL    HW250980  10.551   7.864   5.697
16381SOL     OW50981   3.933   4.495  13.571
16381SOL    HW150982   3.843   4.524  13.585
16381SOL    HW250983   3.986   4.551  13.629
16382SOL     OW50984  12.956  12.207   6.885
16382SOL    HW150985  13.010  12.269   6.933
16382SOL    HW250986  12.876  12.199   6.937
16383SOL     OW50987  11.315   8.243   1.462
16383SOL    HW150988  11.251   8.294   1.413
16383SOL    HW250989  11.283   8.153   1.457
16384SOL     OW50990   0.830   0.468  11.309
16384SOL    HW150991   0.901   0.529  11.327
16384SOL    HW250992   0.874   0.385  11.291
16385SOL     OW50993   3.162  13.750  14.578
16385SOL    HW150994   3.218  13.813  14.623
16385SOL    HW250995   3.205  13.665  14.593
16386SOL     OW50996   7.217   8.886  14.110
16386SOL    HW150997   7.193   8.939  14.034
16386SOL    HW250998   7.236   8.800  14.074
16387SOL     OW50999   6.408   2.425  10.629
16387SOL    HW151000   6.399   2.520  10.633
16387SOL    HW251001   6.368   2.393  10.710
16388SOL     OW51002  11.199   9.215  14.284
16388SOL    HW151003  11.184   9.220  14.190
16388SOL    HW251004  11.228   9.125  14.298
16389SOL     OW51005  11.826   3.599   7.905
16389SOL    HW151006  11.757   3.636   7.851
16389SOL    HW251007  11.782   3.574   7.986
16390SOL     OW51008  14.830  10.636   3.828
16390SOL    HW151009  14.803  10.689   3.903
16390SOL    HW251010  14.775  10.558   3.832
16391SOL     OW51011   4.103   2.936   6.207
16391SOL    HW151012   4.196   2.950   6.186
16391SOL    HW251013   4.072   3.023   6.233
16392SOL     OW51014  11.158   9.455   8.865
16392SOL    HW151015  11.141   9.431   8.956
16392SOL    HW251016  11.236   9.510   8.869
16393SOL     OW51017  13.882  10.486  14.487
16393SOL    HW151018  13.952  10.512  14.427
16393SOL    HW251019  13.804  10.532  14.455
16394SOL     OW51020   9.683  13.446  12.810
16394SOL    HW151021   9.690  13.542  12.809
16394SOL    HW251022   9.616  13.427  12.744
16395SOL     OW51023   4.926  13.692   4.488
16395SOL    HW151024   4.852  13.728   4.536
16395SOL    HW251025   4.916  13.597   4.494
16396SOL     OW51026   3.507  10.232  10.253
16396SOL    HW151027   3.549  10.179  10.321
16396SOL    HW251028   3.579  10.275  10.208
16397SOL     OW51029   4.135   2.600   7.726
16397SOL    HW151030   4.046   2.636   7.734
16397SOL    HW251031   4.180   2.660   7.667
16398SOL     OW51032   0.397   9.471   4.617
16398SOL    HW151033   0.450   9.538   4.573
16398SOL    HW251034   0.316   9.468   4.565
16399SOL     OW51035   3.316   3.182   8.869
16399SOL    HW151036   3.274   3.217   8.948
16399SOL    HW251037   3.262   3.212   8.797
16400SOL     OW51038  14.851   8.015   5.576
16400SOL    HW151039   0.026   7.938   5.552
16400SOL    HW251040  14.838   8.062   5.494
16401SOL     OW51041   5.595   2.714   3.586
16401SOL    HW151042   5.520   2.658   3.602
16401SOL    HW251043   5.671   2.656   3.593
16402SOL     OW51044   5.837   7.589   3.205
16402SOL    HW151045   5.775   7.660   3.185
16402SOL    HW251046   5.838   7.535   3.126
16403SOL     OW51047   6.284   1.744  11.820
16403SOL    HW151048   6.320   1.655  11.815
16403SOL    HW251049   6.338   1.794  11.758
16404SOL     OW51050   1.699   6.642   0.113
16404SOL    HW151051   1.685   6.735   0.132
16404SOL    HW251052   1.761   6.642   0.041
16405SOL     OW51053  12.226   1.442   8.125
16405SOL    HW151054  12.300   1.403   8.078
16405SOL    HW251055  12.198   1.374   8.187
16406SOL     OW51056   6.664   3.498   7.768
16406SOL    HW151057   6.747   3.463   7.737
16406SOL    HW251058   6.680   3.518   7.861
16407SOL     OW51059   0.131  10.746  13.198
16407SOL    HW151060   0.094  10.784  13.118
16407SOL    HW251061   0.221  10.725  13.175
16408SOL     OW51062   8.051  12.609  13.430
16408SOL    HW151063   8.043  12.650  13.344
16408SOL    HW251064   8.130  12.649  13.468
16409SOL     OW51065  11.698   5.891  14.143
16409SOL    HW151066  11.679   5.855  14.230
16409SOL    HW251067  11.773   5.841  14.112
16410SOL     OW51068   3.528  12.353  10.244
16410SOL    HW151069   3.600  12.389  10.192
16410SOL    HW251070   3.449  12.379  10.198
16411SOL     OW51071   4.256   7.710   4.650
16411SOL    HW151072   4.216   7.678   4.569
16411SOL    HW251073   4.260   7.632   4.706
16412SOL     OW51074  12.830   7.919   5.456
16412SOL    HW151075  12.884   7.926   5.377
16412SOL    HW251076  12.764   7.988   5.447
16413SOL     OW51077  10.574   1.119  10.172
16413SOL    HW151078  10.517   1.043  10.186
16413SOL    HW251079  10.529   1.191  10.215
16414SOL     OW51080   1.066   6.962  13.451
16414SOL    HW151081   0.996   7.028  13.459
16414SOL    HW251082   1.021   6.883  13.421
16415SOL     OW51083   3.495   0.984   4.990
16415SOL    HW151084   3.473   1.045   5.061
16415SOL    HW251085   3.582   1.011   4.961
16416SOL     OW51086  10.222   6.317   2.783
16416SOL    HW151087  10.195   6.384   2.846
16416SOL    HW251088  10.142   6.268   2.764
16417SOL     OW51089   1.081  13.994  13.886
16417SOL    HW151090   1.030  13.961  13.812
16417SOL    HW251091   1.026  13.975  13.963
16418SOL     OW51092   0.315   7.188   1.292
16418SOL    HW151093   0.252   7.260   1.287
16418SOL    HW251094   0.268   7.113   1.256
16419SOL     OW51095   1.125  11.019   1.545
16419SOL    HW151096   1.105  11.046   1.455
16419SOL    HW251097   1.220  11.011   1.547
16420SOL     OW51098   5.485   8.157   1.672
16420SOL    HW151099   5.574   8.162   1.636
16420SOL    HW251100   5.498   8.160   1.766
16421SOL     OW51101  14.667   5.565  12.581
16421SOL    HW151102  14.719   5.596  12.655
16421SOL    HW251103  14.731   5.530  12.520
16422SOL     OW51104   6.199   6.282  12.972
16422SOL    HW151105   6.234   6.343  13.037
16422SOL    HW251106   6.275   6.232  12.943
16423SOL     OW51107   1.143   0.195   8.779
16423SOL    HW151108   1.066   0.158   8.823
16423SOL    HW251109   1.210   0.198   8.847
16424SOL     OW51110  13.993   4.080   4.256
16424SOL    HW151111  14.034   4.095   4.171
16424SOL    HW251112  13.901   4.102   4.243
16425SOL     OW51113   3.871  14.279   6.452
16425SOL    HW151114   3.894  14.196   6.494
16425SOL    HW251115   3.904  14.270   6.363
16426SOL     OW51116  13.040   9.679   3.495
16426SOL    HW151117  13.041   9.763   3.450
16426SOL    HW251118  12.962   9.683   3.551
16427SOL     OW51119   6.734  14.751   5.141
16427SOL    HW151120   6.748  14.668   5.186
16427SOL    HW251121   6.820  14.791   5.137
16428SOL     OW51122   3.890   0.334   9.351
16428SOL    HW151123   3.796   0.347   9.362
16428SOL    HW251124   3.921   0.308   9.438
16429SOL     OW51125  13.630   1.212  13.378
16429SOL    HW151126  13.712   1.258  13.358
16429SOL    HW251127  13.658   1.133  13.423
16430SOL     OW51128   2.908  12.582   0.364
16430SOL    HW151129   2.957  12.664   0.376
16430SOL    HW251130   2.951  12.519   0.422
16431SOL     OW51131  13.274  12.659   1.028
16431SOL    HW151132  13.289  12.694   0.940
16431SOL    HW251133  13.351  12.685   1.078
16432SOL     OW51134   2.734   5.369  10.852
16432SOL    HW151135   2.687   5.297  10.894
16432SOL    HW251136   2.788   5.406  10.923
16433SOL     OW51137  10.032  13.291  11.089
16433SOL    HW151138  10.119  13.312  11.122
16433SOL    HW251139   9.978  13.279  11.167
16434SOL     OW51140   6.515  11.218   2.373
16434SOL    HW151141   6.567  11.297   2.388
16434SOL    HW251142   6.430  11.237   2.413
16435SOL     OW51143   8.788  12.220   6.912
16435SOL    HW151144   8.825  12.146   6.959
16435SOL    HW251145   8.702  12.233   6.951
16436SOL     OW51146   0.182   2.725   5.213
16436SOL    HW151147   0.173   2.758   5.124
16436SOL    HW251148   0.277   2.728   5.231
16437SOL     OW51149   9.937   0.092   1.951
16437SOL    HW151150   9.883   0.168   1.930
16437SOL    HW251151   9.954   0.100   2.045
16438SOL     OW51152   3.644   2.833   2.765
16438SOL    HW151153   3.672   2.841   2.674
16438SOL    HW251154   3.663   2.918   2.804
16439SOL     OW51155   8.473   1.221   9.466
16439SOL    HW151156   8.554   1.236   9.515
16439SOL    HW251157   8.434   1.145   9.509
16440SOL     OW51158   8.481   0.321   3.784
16440SOL    HW151159   8.491   0.254   3.853
16440SOL    HW251160   8.522   0.281   3.707
16441SOL     OW51161  11.697   8.260   1.274
16441SOL    HW151162  11.704   8.284   1.182
16441SOL    HW251163  11.723   8.338   1.322
16442SOL     OW51164   1.021   9.898   2.006
16442SOL    HW151165   1.052   9.822   2.055
16442SOL    HW251166   1.073   9.899   1.926
16443SOL     OW51167   2.260   3.387   8.574
16443SOL    HW151168   2.309   3.468   8.587
16443SOL    HW251169   2.179   3.414   8.530
16444SOL     OW51170   0.186  12.203  14.040
16444SOL    HW151171   0.150  12.217  13.952
16444SOL    HW251172   0.228  12.286  14.062
16445SOL     OW51173  10.981   7.835   0.612
16445SOL    HW151174  11.039   7.782   0.557
16445SOL    HW251175  11.036   7.862   0.686
16446SOL     OW51176  14.321   1.253  11.543
16446SOL    HW151177  14.355   1.206  11.466
16446SOL    HW251178  14.339   1.194  11.616
16447SOL     OW51179   5.901   6.477   1.954
16447SOL    HW151180   5.970   6.481   1.887
16447SOL    HW251181   5.947   6.450   2.033
16448SOL     OW51182   9.528   9.991  12.789
16448SOL    HW151183   9.456  10.015  12.730
16448SOL    HW251184   9.535  10.065  12.849
16449SOL     OW51185   6.467   9.762   8.823
16449SOL    HW151186   6.491   9.820   8.895
16449SOL    HW251187   6.372   9.752   8.832
16450SOL     OW51188   2.217  11.158  10.264
16450SOL    HW151189   2.161  11.229  10.296
16450SOL    HW251190   2.262  11.194  10.188
16451SOL     OW51191   7.469   7.997   5.176
16451SOL    HW151192   7.384   7.988   5.134
16451SOL    HW251193   7.487   8.091   5.174
16452SOL     OW51194   9.169  11.600   3.317
16452SOL    HW151195   9.163  11.551   3.235
16452SOL    HW251196   9.262  11.596   3.340
16453SOL     OW51197   4.723   3.277  12.229
16453SOL    HW151198   4.699   3.204  12.286
16453SOL    HW251199   4.819   3.282  12.237
16454SOL     OW51200   5.279   3.168   7.459
16454SOL    HW151201   5.333   3.171   7.538
16454SOL    HW251202   5.235   3.253   7.457
16455SOL     OW51203   8.675   3.675   6.718
16455SOL    HW151204   8.752   3.729   6.702
16455SOL    HW251205   8.626   3.678   6.636
16456SOL     OW51206  11.517   9.711  14.580
16456SOL    HW151207  11.501   9.792  14.531
16456SOL    HW251208  11.605   9.720  14.616
16457SOL     OW51209   4.737  12.718  12.195
16457SOL    HW151210   4.729  12.759  12.282
16457SOL    HW251211   4.741  12.792  12.135
16458SOL     OW51212  11.353  13.497   4.349
16458SOL    HW151213  11.353  13.581   4.304
16458SOL    HW251214  11.306  13.438   4.289
16459SOL     OW51215   5.237   7.392  10.555
16459SOL    HW151216   5.184   7.429  10.484
16459SOL    HW251217   5.173   7.366  10.621
16460SOL     OW51218  12.291  13.087  11.491
16460SOL    HW151219  12.334  13.070  11.408
16460SOL    HW251220  12.199  13.103  11.469
16461SOL     OW51221   2.650   3.969  13.871
16461SOL    HW151222   2.567   4.004  13.837
16461SOL    HW251223   2.677   3.905  13.805
16462SOL     OW51224   3.908   8.368   3.488
16462SOL    HW151225   3.919   8.300   3.421
16462SOL    HW251226   3.956   8.444   3.454
16463SOL     OW51227   8.202   4.533   2.009
16463SOL    HW151228   8.156   4.476   2.070
16463SOL    HW251229   8.142   4.541   1.934
16464SOL     OW51230   0.244  13.654   7.196
16464SOL    HW151231   0.240  13.688   7.106
16464SOL    HW251232   0.229  13.731   7.251
16465SOL     OW51233   2.357  14.687  12.509
16465SOL    HW151234   2.352  14.746  12.585
16465SOL    HW251235   2.386  14.604  12.545
16466SOL     OW51236   0.970   3.095   5.339
16466SOL    HW151237   1.053   3.046   5.332
16466SOL    HW251238   0.991   3.182   5.305
16467SOL     OW51239   2.758   8.008  10.234
16467SOL    HW151240   2.840   8.024  10.281
16467SOL    HW251241   2.717   8.094  10.226
16468SOL     OW51242   2.217   9.691  11.684
16468SOL    HW151243   2.290   9.714  11.627
16468SOL    HW251244   2.231   9.743  11.763
16469SOL     OW51245   2.021   2.035  13.239
16469SOL    HW151246   2.071   2.063  13.316
16469SOL    HW251247   2.086   1.992  13.182
16470SOL     OW51248  12.713  14.336   5.377
16470SOL    HW151249  12.795  14.331   5.427
16470SOL    HW251250  12.652  14.281   5.426
16471SOL     OW51251  13.001  14.582   4.532
16471SOL    HW151252  13.056  14.555   4.459
16471SOL    HW251253  12.923  14.527   4.524
16472SOL     OW51254   9.531   3.351   2.077
16472SOL    HW151255   9.517   3.427   2.021
16472SOL    HW251256   9.508   3.380   2.165
16473SOL     OW51257   4.850   9.646   7.059
16473SOL    HW151258   4.942   9.667   7.040
16473SOL    HW251259   4.811   9.628   6.974
16474SOL     OW51260  12.259  12.419   2.819
16474SOL    HW151261  12.239  12.373   2.738
16474SOL    HW251262  12.339  12.468   2.800
16475SOL     OW51263   6.730   1.669   8.345
16475SOL    HW151264   6.793   1.599   8.329
16475SOL    HW251265   6.691   1.685   8.259
16476SOL     OW51266   7.273   2.381   0.097
16476SOL    HW151267   7.331   2.399   0.171
16476SOL    HW251268   7.197   2.437   0.113
16477SOL     OW51269   7.624  11.025  13.759
16477SOL    HW151270   7.552  11.066  13.807
16477SOL    HW251271   7.606  10.931  13.762
16478SOL     OW51272   2.573   8.974   4.995
16478SOL    HW151273   2.596   9.042   5.058
16478SOL    HW251274   2.621   8.997   4.915
16479SOL     OW51275  11.752  11.108   6.399
16479SOL    HW151276  11.765  11.029   6.451
16479SOL    HW251277  11.688  11.082   6.332
16480SOL     OW51278   4.871   5.163   6.437
16480SOL    HW151279   4.835   5.120   6.515
16480SOL    HW251280   4.848   5.105   6.365
16481SOL     OW51281   1.660  10.068   8.921
16481SOL    HW151282   1.566  10.078   8.906
16481SOL    HW251283   1.690  10.156   8.943
16482SOL     OW51284  14.768   9.420  10.085
16482SOL    HW151285  14.686   9.469  10.090
16482SOL    HW251286  14.754   9.344  10.143
16483SOL     OW51287   3.339   7.774  10.517
16483SOL    HW151288   3.325   7.750  10.425
16483SOL    HW251289   3.420   7.728  10.542
16484SOL     OW51290  12.417   3.349  12.978
16484SOL    HW151291  12.445   3.434  12.944
16484SOL    HW251292  12.327   3.364  13.008
16485SOL     OW51293   0.940   5.948   4.988
16485SOL    HW151294   0.993   5.965   4.911
16485SOL    HW251295   0.860   6.000   4.974
16486SOL     OW51296  12.756   7.661   2.889
16486SOL    HW151297  12.753   7.659   2.985
16486SOL    HW251298  12.705   7.738   2.865
16487SOL     OW51299   9.209  14.095   2.147
16487SOL    HW151300   9.125  14.099   2.191
16487SOL    HW251301   9.211  14.009   2.106
16488SOL     OW51302  11.542  13.526   5.475
16488SOL    HW151303  11.595  13.527   5.555
16488SOL    HW251304  11.487  13.604   5.482
16489SOL     OW51305   5.418  10.601   9.073
16489SOL    HW151306   5.513  10.609   9.086
16489SOL    HW251307   5.390  10.538   9.139
16490SOL     OW51308  10.606   4.361   5.058
16490SOL    HW151309  10.600   4.296   5.128
16490SOL    HW251310  10.576   4.443   5.099
16491SOL     OW51311   2.940   3.730   5.295
16491SOL    HW151312   2.904   3.780   5.368
16491SOL    HW251313   2.910   3.640   5.311
16492SOL     OW51314   2.571   7.919   2.054
16492SOL    HW151315   2.645   7.980   2.058
16492SOL    HW251316   2.563   7.885   2.143
16493SOL     OW51317   2.902   2.130   6.285
16493SOL    HW151318   2.953   2.148   6.364
16493SOL    HW251319   2.869   2.041   6.297
16494SOL     OW51320  14.466  10.866   3.265
16494SOL    HW151321  14.422  10.950   3.275
16494SOL    HW251322  14.533  10.881   3.198
16495SOL     OW51323   3.511   3.347   4.993
16495SOL    HW151324   3.530   3.316   4.905
16495SOL    HW251325   3.421   3.317   5.010
16496SOL     OW51326   9.380   2.886   0.391
16496SOL    HW151327   9.389   2.817   0.456
16496SOL    HW251328   9.357   2.964   0.441
16497SOL     OW51329   6.303   7.860  12.971
16497SOL    HW151330   6.315   7.824  13.059
16497SOL    HW251331   6.224   7.914  12.978
16498SOL     OW51332   9.999   8.476   8.430
16498SOL    HW151333  10.052   8.420   8.373
16498SOL    HW251334   9.914   8.481   8.386
16499SOL     OW51335   0.115  14.316   6.215
16499SOL    HW151336   0.184  14.290   6.154
16499SOL    HW251337   0.039  14.335   6.161
16500SOL     OW51338   3.845  11.501  12.527
16500SOL    HW151339   3.767  11.520  12.579
16500SOL    HW251340   3.811  11.469  12.443
16501SOL     OW51341   7.144   7.617   9.787
16501SOL    HW151342   7.187   7.686   9.737
16501SOL    HW251343   7.174   7.536   9.748
16502SOL     OW51344  13.378   2.543   7.563
16502SOL    HW151345  13.435   2.473   7.594
16502SOL    HW251346  13.389   2.613   7.627
16503SOL     OW51347  10.380   7.196   5.780
16503SOL    HW151348  10.315   7.186   5.850
16503SOL    HW251349  10.461   7.220   5.826
16504SOL     OW51350  12.913  11.446   8.402
16504SOL    HW151351  13.001  11.414   8.419
16504SOL    HW251352  12.866  11.371   8.366
16505SOL     OW51353   6.895   5.723   2.225
16505SOL    HW151354   6.873   5.810   2.192
16505SOL    HW251355   6.858   5.663   2.160
16506SOL     OW51356   5.865   6.653  12.029
16506SOL    HW151357   5.864   6.561  12.003
16506SOL    HW251358   5.907   6.653  12.115
16507SOL     OW51359  14.087   5.797  11.157
16507SOL    HW151360  14.128   5.750  11.085
16507SOL    HW251361  14.131   5.764  11.236
16508SOL     OW51362  13.595  14.653  10.672
16508SOL    HW151363  13.580  14.558  10.671
16508SOL    HW251364  13.614  14.673  10.763
16509SOL     OW51365   3.206  12.565  13.543
16509SOL    HW151366   3.156  12.577  13.624
16509SOL    HW251367   3.280  12.625  13.552
16510SOL     OW51368  12.493  12.513  11.732
16510SOL    HW151369  12.568  12.458  11.750
16510SOL    HW251370  12.529  12.601  11.721
16511SOL     OW51371  12.422   9.814   9.663
16511SOL    HW151372  12.358   9.804   9.592
16511SOL    HW251373  12.372   9.795   9.743
16512SOL     OW51374   9.704   8.769   6.879
16512SOL    HW151375   9.668   8.691   6.921
16512SOL    HW251376   9.786   8.741   6.840
16513SOL     OW51377   4.525   2.543  10.359
16513SOL    HW151378   4.577   2.466  10.379
16513SOL    HW251379   4.581   2.597  10.304
16514SOL     OW51380  10.276   6.811   3.720
16514SOL    HW151381  10.301   6.848   3.805
16514SOL    HW251382  10.348   6.835   3.662
16515SOL     OW51383  10.365   1.155   1.149
16515SOL    HW151384  10.284   1.104   1.159
16515SOL    HW251385  10.416   1.136   1.228
16516SOL     OW51386   0.814   7.759  12.101
16516SOL    HW151387   0.724   7.761  12.133
16516SOL    HW251388   0.808   7.780  12.008
16517SOL     OW51389   8.841   0.588   0.903
16517SOL    HW151390   8.870   0.559   0.990
16517SOL    HW251391   8.917   0.632   0.866
16518SOL     OW51392   8.581   9.526  13.965
16518SOL    HW151393   8.622   9.442  13.987
16518SOL    HW251394   8.492   9.519  13.999
16519SOL     OW51395  10.444   0.596   4.691
16519SOL    HW151396  10.490   0.570   4.771
16519SOL    HW251397  10.491   0.672   4.659
16520SOL     OW51398   6.061  11.777  11.261
16520SOL    HW151399   6.123  11.720  11.305
16520SOL    HW251400   6.067  11.861  11.307
16521SOL     OW51401   1.677  10.079   3.585
16521SOL    HW151402   1.769  10.076   3.558
16521SOL    HW251403   1.651   9.987   3.587
16522SOL     OW51404   9.412   4.619   2.884
16522SOL    HW151405   9.443   4.625   2.794
16522SOL    HW251406   9.390   4.527   2.897
16523SOL     OW51407   3.769  10.425  13.356
16523SOL    HW151408   3.830  10.485  13.399
16523SOL    HW251409   3.751  10.466  13.271
16524SOL     OW51410  10.239  11.959   1.887
16524SOL    HW151411  10.286  11.927   1.964
16524SOL    HW251412  10.228  11.881   1.832
16525SOL     OW51413  11.060   8.166  10.696
16525SOL    HW151414  11.140   8.114  10.701
16525SOL    HW251415  10.997   8.118  10.751
16526SOL     OW51416   7.795  13.834  11.965
16526SOL    HW151417   7.708  13.810  11.997
16526SOL    HW251418   7.798  13.929  11.973
16527SOL     OW51419   4.932   7.046  14.098
16527SOL    HW151420   4.848   7.088  14.113
16527SOL    HW251421   4.959   7.013  14.184
16528SOL     OW51422  10.395   7.688   5.515
16528SOL    HW151423  10.474   7.737   5.537
16528SOL    HW251424  10.350   7.743   5.451
16529SOL     OW51425   8.452   9.877   3.055
16529SOL    HW151426   8.415   9.839   3.134
16529SOL    HW251427   8.456   9.804   2.993
16530SOL     OW51428   7.553   8.030  10.427
16530SOL    HW151429   7.623   8.093  10.446
16530SOL    HW251430   7.575   7.953  10.479
16531SOL     OW51431   0.931  12.070   2.319
16531SOL    HW151432   0.841  12.089   2.292
16531SOL    HW251433   0.963  12.006   2.255
16532SOL     OW51434   8.247   4.682   2.230
16532SOL    HW151435   8.252   4.623   2.155
16532SOL    HW251436   8.162   4.725   2.221
16533SOL     OW51437   0.934   2.384   6.318
16533SOL    HW151438   0.866   2.362   6.381
16533SOL    HW251439   0.986   2.304   6.310
16534SOL     OW51440   6.077   3.871   0.836
16534SOL    HW151441   6.017   3.800   0.815
16534SOL    HW251442   6.099   3.910   0.751
16535SOL     OW51443   1.405   6.145   8.080
16535SOL    HW151444   1.473   6.205   8.111
16535SOL    HW251445   1.404   6.075   8.145
16536SOL     OW51446  12.887   3.534   3.988
16536SOL    HW151447  12.825   3.470   3.954
16536SOL    HW251448  12.970   3.485   3.994
16537SOL     OW51449   4.054  13.440   3.185
16537SOL    HW151450   3.975  13.389   3.166
16537SOL    HW251451   4.126  13.379   3.167
16538SOL     OW51452  10.517  13.029   2.918
16538SOL    HW151453  10.481  13.079   2.991
16538SOL    HW251454  10.500  12.938   2.941
16539SOL     OW51455   9.803   3.689   1.176
16539SOL    HW151456   9.842   3.602   1.191
16539SOL    HW251457   9.717   3.684   1.218
16540SOL     OW51458   5.911  14.262   2.048
16540SOL    HW151459   5.919  14.181   2.099
16540SOL    HW251460   5.825  14.256   2.006
16541SOL     OW51461   1.582  10.294   4.733
16541SOL    HW151462   1.543  10.366   4.783
16541SOL    HW251463   1.547  10.304   4.645
16542SOL     OW51464  12.736   1.218   4.740
16542SOL    HW151465  12.648   1.254   4.730
16542SOL    HW251466  12.743   1.194   4.832
16543SOL     OW51467   7.046  10.867   1.286
16543SOL    HW151468   7.012  10.952   1.259
16543SOL    HW251469   7.079  10.828   1.205
16544SOL     OW51470   5.386   6.147   8.358
16544SOL    HW151471   5.334   6.128   8.436
16544SOL    HW251472   5.322   6.156   8.287
16545SOL     OW51473  14.718   8.083   2.514
16545SOL    HW151474  14.804   8.116   2.491
16545SOL    HW251475  14.704   8.109   2.605
16546SOL     OW51476   0.519   0.436   4.758
16546SOL    HW151477   0.543   0.523   4.788
16546SOL    HW251478   0.438   0.416   4.804
16547SOL     OW51479   6.724   5.228  13.367
16547SOL    HW151480   6.782   5.173  13.314
16547SOL    HW251481   6.781   5.299  13.397
16548SOL     OW51482  13.456  11.824   2.396
16548SOL    HW151483  13.502  11.750   2.436
16548SOL    HW251484  13.367  11.818   2.430
16549SOL     OW51485  14.182  11.338   1.910
16549SOL    HW151486  14.253  11.286   1.872
16549SOL    HW251487  14.124  11.357   1.837
16550SOL     OW51488   4.854  14.123   7.417
16550SOL    HW151489   4.880  14.045   7.466
16550SOL    HW251490   4.850  14.192   7.483
16551SOL     OW51491   6.577   0.818   8.205
16551SOL    HW151492   6.640   0.882   8.237
16551SOL    HW251493   6.559   0.846   8.115
16552SOL     OW51494   9.173   1.117  10.009
16552SOL    HW151495   9.142   1.054  10.075
16552SOL    HW251496   9.139   1.201  10.039
16553SOL     OW51497   7.058  10.734   6.165
16553SOL    HW151498   7.109  10.670   6.115
16553SOL    HW251499   7.062  10.702   6.255
16554SOL     OW51500   2.795   4.168   0.316
16554SOL    HW151501   2.734   4.175   0.243
16554SOL    HW251502   2.882   4.168   0.274
16555SOL     OW51503   6.786  12.681   5.925
16555SOL    HW151504   6.816  12.771   5.914
16555SOL    HW251505   6.830  12.651   6.005
16556SOL     OW51506   6.352   2.459   7.125
16556SOL    HW151507   6.267   2.499   7.140
16556SOL    HW251508   6.415   2.518   7.167
16557SOL     OW51509   0.837   0.980   4.673
16557SOL    HW151510   0.801   0.893   4.692
16557SOL    HW251511   0.920   0.962   4.627
16558SOL     OW51512   9.187   0.857  10.650
16558SOL    HW151513   9.106   0.903  10.673
16558SOL    HW251514   9.217   0.819  10.733
16559SOL     OW51515  11.509  13.584  12.267
16559SOL    HW151516  11.540  13.558  12.180
16559SOL    HW251517  11.416  13.605  12.254
16560SOL     OW51518   1.131   3.525   2.461
16560SOL    HW151519   1.183   3.480   2.527
16560SOL    HW251520   1.058   3.564   2.510
16561SOL     OW51521   9.325   3.103   0.540
16561SOL    HW151522   9.291   3.172   0.483
16561SOL    HW251523   9.306   3.133   0.629
16562SOL     OW51524   9.482   8.303  14.181
16562SOL    HW151525   9.516   8.362  14.248
16562SOL    HW251526   9.398   8.273  14.216
16563SOL     OW51527  14.296   5.045   3.421
16563SOL    HW151528  14.233   5.019   3.353
16563SOL    HW251529  14.259   5.124   3.459
16564SOL     OW51530   0.077   0.025   1.936
16564SOL    HW151531   0.006   0.089   1.943
16564SOL    HW251532   0.122   0.030   2.020
16565SOL     OW51533   3.601  14.235   4.054
16565SOL    HW151534   3.555  14.238   3.971
16565SOL    HW251535   3.661  14.162   4.046
16566SOL     OW51536   1.279  14.825  12.272
16566SOL    HW151537   1.324  14.752  12.230
16566SOL    HW251538   1.201  14.785  12.311
16567SOL     OW51539  12.293   1.263   1.175
16567SOL    HW151540  12.267   1.280   1.084
16567SOL    HW251541  12.386   1.241   1.169
16568SOL     OW51542   4.485   1.688   5.243
16568SOL    HW151543   4.498   1.595   5.224
16568SOL    HW251544   4.485   1.730   5.157
16569SOL     OW51545  11.546   3.589   3.294
16569SOL    HW151546  11.605   3.547   3.356
16569SOL    HW251547  11.513   3.517   3.240
16570SOL     OW51548   2.873   2.787   9.065
16570SOL    HW151549   2.873   2.851   8.995
16570SOL    HW251550   2.844   2.706   9.023
16571SOL     OW51551   9.813   9.543  10.409
16571SOL    HW151552   9.830   9.630  10.447
16571SOL    HW251553   9.744   9.559  10.345
16572SOL     OW51554   5.816   0.360   8.179
16572SOL    HW151555   5.885   0.303   8.145
16572SOL    HW251556   5.845   0.448   8.156
16573SOL     OW51557   9.600  11.883  10.868
16573SOL    HW151558   9.647  11.901  10.949
16573SOL    HW251559   9.572  11.969  10.837
16574SOL     OW51560   9.545   8.884   0.214
16574SOL    HW151561   9.480   8.836   0.163
16574SOL    HW251562   9.544   8.972   0.178
16575SOL     OW51563   9.875  10.843  13.180
16575SOL    HW151564   9.788  10.813  13.207
16575SOL    HW251565   9.927  10.841  13.260
16576SOL     OW51566   6.719   4.573   2.448
16576SOL    HW151567   6.733   4.503   2.384
16576SOL    HW251568   6.722   4.529   2.533
16577SOL     OW51569  13.318  10.664   1.289
16577SOL    HW151570  13.290  10.753   1.272
16577SOL    HW251571  13.320  10.622   1.203
16578SOL     OW51572   8.474   8.265   0.802
16578SOL    HW151573   8.434   8.351   0.814
16578SOL    HW251574   8.564   8.276   0.834
16579SOL     OW51575   7.001   9.074   6.081
16579SOL    HW151576   6.973   9.165   6.086
16579SOL    HW251577   6.920   9.025   6.066
16580SOL     OW51578  14.072   0.826  14.480
16580SOL    HW151579  14.103   0.892  14.542
16580SOL    HW251580  13.978   0.824  14.492
16581SOL     OW51581   4.046   3.895  13.950
16581SOL    HW151582   4.012   3.933  13.869
16581SOL    HW251583   4.072   3.806  13.927
16582SOL     OW51584  14.165   9.737   8.253
16582SOL    HW151585  14.134   9.778   8.172
16582SOL    HW251586  14.248   9.781   8.272
16583SOL     OW51587   1.908   7.294   1.716
16583SOL    HW151588   1.885   7.223   1.657
16583SOL    HW251589   1.857   7.369   1.684
16584SOL     OW51590  14.541   1.631  14.527
16584SOL    HW151591  14.603   1.659  14.460
16584SOL    HW251592  14.540   1.536  14.521
16585SOL     OW51593  13.267   9.666  12.761
16585SOL    HW151594  13.196   9.730  12.768
16585SOL    HW251595  13.264   9.637  12.669
16586SOL     OW51596   6.541   1.510  12.161
16586SOL    HW151597   6.472   1.451  12.192
16586SOL    HW251598   6.496   1.593  12.145
16587SOL     OW51599  11.514   2.042  10.241
16587SOL    HW151600  11.607   2.032  10.222
16587SOL    HW251601  11.493   1.969  10.300
16588SOL     OW51602   7.104   1.336  11.241
16588SOL    HW151603   7.031   1.355  11.300
16588SOL    HW251604   7.142   1.255  11.276
16589SOL     OW51605  10.645   2.689  14.363
16589SOL    HW151606  10.721   2.679  14.420
16589SOL    HW251607  10.599   2.766  14.398
16590SOL     OW51608   8.238  14.393   9.377
16590SOL    HW151609   8.190  14.430   9.303
16590SOL    HW251610   8.283  14.467   9.417
16591SOL     OW51611   3.633   7.883  11.114
16591SOL    HW151612   3.558   7.924  11.159
16591SOL    HW251613   3.631   7.921  11.026
16592SOL     OW51614   1.049   8.974   6.633
16592SOL    HW151615   1.100   8.894   6.649
16592SOL    HW251616   0.981   8.947   6.571
16593SOL     OW51617   1.232   2.741   1.324
16593SOL    HW151618   1.261   2.665   1.275
16593SOL    HW251619   1.158   2.775   1.274
16594SOL     OW51620   0.346  11.956   2.823
16594SOL    HW151621   0.291  11.894   2.776
16594SOL    HW251622   0.336  12.039   2.775
16595SOL     OW51623   2.113   3.614   6.932
16595SOL    HW151624   2.206   3.605   6.908
16595SOL    HW251625   2.066   3.581   6.855
16596SOL     OW51626  12.259   9.077   5.049
16596SOL    HW151627  12.185   9.087   5.109
16596SOL    HW251628  12.260   8.984   5.028
16597SOL     OW51629   2.032   3.347  10.115
16597SOL    HW151630   2.083   3.424  10.141
16597SOL    HW251631   2.071   3.320  10.032
16598SOL     OW51632   5.913  14.765   7.958
16598SOL    HW151633   5.881  14.697   7.898
16598SOL    HW251634   5.835  14.793   8.006
16599SOL     OW51635  14.381   8.112  11.639
16599SOL    HW151636  14.433   8.066  11.574
16599SOL    HW251637  14.334   8.179  11.590
16600SOL     OW51638   5.623   7.884   3.733
16600SOL    HW151639   5.702   7.869   3.785
16600SOL    HW251640   5.579   7.958   3.776
16601SOL     OW51641   0.805  14.338   1.273
16601SOL    HW151642   0.860  14.265   1.299
16601SOL    HW251643   0.730  14.335   1.333
16602SOL     OW51644  14.816  14.242   5.762
16602SOL    HW151645  14.856  14.263   5.678
16602SOL    HW251646  14.728  14.211   5.739
16603SOL     OW51647   2.972   7.308   3.336
16603SOL    HW151648   2.911   7.266   3.397
16603SOL    HW251649   2.989   7.394   3.374
16604SOL     OW51650   4.857   1.123  12.908
16604SOL    HW151651   4.830   1.196  12.851
16604SOL    HW251652   4.778   1.104  12.960
16605SOL     OW51653   6.113   1.753   8.621
16605SOL    HW151654   6.121   1.695   8.696
16605SOL    HW251655   6.202   1.783   8.604
16606SOL     OW51656  14.106   9.742   3.419
16606SOL    HW151657  14.162   9.751   3.342
16606SOL    HW251658  14.086   9.648   3.423
16607SOL     OW51659  10.405   5.252   4.532
16607SOL    HW151660  10.335   5.233   4.594
16607SOL    HW251661  10.375   5.213   4.450
16608SOL     OW51662   4.954  14.176   2.797
16608SOL    HW151663   4.910  14.130   2.868
16608SOL    HW251664   4.883  14.204   2.739
16609SOL     OW51665   0.683   7.443   7.627
16609SOL    HW151666   0.636   7.365   7.657
16609SOL    HW251667   0.620   7.514   7.639
16610SOL     OW51668   6.375  12.501   1.727
16610SOL    HW151669   6.417  12.475   1.808
16610SOL    HW251670   6.424  12.578   1.698
16611SOL     OW51671   0.303   9.923  10.011
16611SOL    HW151672   0.276   9.876   9.932
16611SOL    HW251673   0.396   9.942   9.996
16612SOL     OW51674  13.796  13.015  12.062
16612SOL    HW151675  13.722  13.073  12.079
16612SOL    HW251676  13.765  12.956  11.993
16613SOL     OW51677  10.961   3.662   5.562
16613SOL    HW151678  11.018   3.592   5.591
16613SOL    HW251679  10.876   3.620   5.548
16614SOL     OW51680   3.003   2.528  14.260
16614SOL    HW151681   2.995   2.619  14.231
16614SOL    HW251682   3.041   2.534  14.348
16615SOL     OW51683   2.083   5.916  10.064
16615SOL    HW151684   2.049   6.006  10.066
16615SOL    HW251685   2.087   5.890  10.156
16616SOL     OW51686   8.542  10.742   5.103
16616SOL    HW151687   8.468  10.792   5.138
16616SOL    HW251688   8.541  10.660   5.153
16617SOL     OW51689  14.666  12.705   9.566
16617SOL    HW151690  14.611  12.767   9.615
16617SOL    HW251691  14.667  12.627   9.620
16618SOL     OW51692   6.276   4.249  12.797
16618SOL    HW151693   6.351   4.190  12.806
16618SOL    HW251694   6.218   4.206  12.734
16619SOL     OW51695   3.397   8.667   6.933
16619SOL    HW151696   3.317   8.627   6.969
16619SOL    HW251697   3.399   8.639   6.842
16620SOL     OW51698   2.390  11.634  10.252
16620SOL    HW151699   2.408  11.675  10.337
16620SOL    HW251700   2.471  11.643  10.203
16621SOL     OW51701  13.979   5.771   3.453
16621SOL    HW151702  13.971   5.861   3.420
16621SOL    HW251703  13.889   5.743   3.467
16622SOL     OW51704   5.002   3.025   8.495
16622SOL    HW151705   5.045   2.981   8.568
16622SOL    HW251706   5.004   3.118   8.518
16623SOL     OW51707   2.343   8.005   5.757
16623SOL    HW151708   2.269   8.039   5.807
16623SOL    HW251709   2.307   7.932   5.707
16624SOL     OW51710   8.943   3.508  10.946
16624SOL    HW151711   8.975   3.483  11.032
16624SOL    HW251712   9.017   3.550  10.904
16625SOL     OW51713   1.004   1.171   4.144
16625SOL    HW151714   1.043   1.144   4.061
16625SOL    HW251715   1.033   1.104   4.206
16626SOL     OW51716   7.378   0.720   7.086
16626SOL    HW151717   7.404   0.673   7.165
16626SOL    HW251718   7.393   0.812   7.107
16627SOL     OW51719   0.985   0.126  13.060
16627SOL    HW151720   0.968   0.043  13.105
16627SOL    HW251721   0.906   0.141  13.007
16628SOL     OW51722   9.563   5.420  13.413
16628SOL    HW151723   9.655   5.437  13.395
16628SOL    HW251724   9.523   5.507  13.420
16629SOL     OW51725   3.900   2.834   3.870
16629SOL    HW151726   3.961   2.778   3.919
16629SOL    HW251727   3.954   2.908   3.842
16630SOL     OW51728  14.424  14.034  10.337
16630SOL    HW151729  14.412  13.942  10.313
16630SOL    HW251730  14.468  14.073  10.261
16631SOL     OW51731  12.577   7.004  10.286
16631SOL    HW151732  12.651   7.051  10.249
16631SOL    HW251733  12.500   7.053  10.259
16632SOL     OW51734   1.523   7.947  12.160
16632SOL    HW151735   1.512   8.030  12.206
16632SOL    HW251736   1.597   7.905  12.205
16633SOL     OW51737  12.677   8.533   2.833
16633SOL    HW151738  12.671   8.614   2.783
16633SOL    HW251739  12.602   8.481   2.803
16634SOL     OW51740  14.380   4.715   3.951
16634SOL    HW151741  14.473   4.733   3.936
16634SOL    HW251742  14.378   4.629   3.991
16635SOL     OW51743   3.089   3.351   2.881
16635SOL    HW151744   3.040   3.409   2.939
16635SOL    HW251745   3.073   3.263   2.915
16636SOL     OW51746   1.068   2.085  10.286
16636SOL    HW151747   1.136   2.081  10.219
16636SOL    HW251748   1.024   2.169  10.270
16637SOL     OW51749  12.778   2.096   4.391
16637SOL    HW151750  12.774   2.001   4.379
16637SOL    HW251751  12.870   2.113   4.412
16638SOL     OW51752  10.346   6.692  13.186
16638SOL    HW151753  10.303   6.606  13.187
16638SOL    HW251754  10.330   6.726  13.098
16639SOL     OW51755   4.633   4.622  14.528
16639SOL    HW151756   4.586   4.545  14.495
16639SOL    HW251757   4.629   4.685  14.457
16640SOL     OW51758   3.013  12.934   9.726
16640SOL    HW151759   3.090  12.934   9.668
16640SOL    HW251760   2.951  12.993   9.682
16641SOL     OW51761  12.299  11.442   1.878
16641SOL    HW151762  12.328  11.391   1.953
16641SOL    HW251763  12.352  11.409   1.805
16642SOL     OW51764   3.989   5.268  14.875
16642SOL    HW151765   4.020   5.235   0.083
16642SOL    HW251766   3.981   5.363   0.011
16643SOL     OW51767  12.877  12.888   5.625
16643SOL    HW151768  12.802  12.876   5.683
16643SOL    HW251769  12.863  12.973   5.584
16644SOL     OW51770   5.222   1.627   9.933
16644SOL    HW151771   5.251   1.594   9.848
16644SOL    HW251772   5.145   1.680   9.914
16645SOL     OW51773   4.666   2.953   9.729
16645SOL    HW151774   4.589   2.903   9.704
16645SOL    HW251775   4.707   2.901   9.799
16646SOL     OW51776   8.804   5.045   3.303
16646SOL    HW151777   8.809   5.132   3.344
16646SOL    HW251778   8.721   5.009   3.333
16647SOL     OW51779   9.926  14.326   5.989
16647SOL    HW151780   9.848  14.334   5.934
16647SOL    HW251781   9.922  14.237   6.023
16648SOL     OW51782  14.552   4.899   2.672
16648SOL    HW151783  14.510   4.983   2.691
16648SOL    HW251784  14.644   4.921   2.658
16649SOL     OW51785  11.088   5.268  10.291
16649SOL    HW151786  11.164   5.323  10.310
16649SOL    HW251787  11.065   5.230  10.376
16650SOL     OW51788   4.756   0.886  14.285
16650SOL    HW151789   4.755   0.867  14.378
16650SOL    HW251790   4.793   0.807  14.245
16651SOL     OW51791   2.313  12.186   6.052
16651SOL    HW151792   2.243  12.203   6.115
16651SOL    HW251793   2.389  12.163   6.105
16652SOL     OW51794   8.097   1.209   4.228
16652SOL    HW151795   8.192   1.217   4.234
16652SOL    HW251796   8.082   1.119   4.200
16653SOL     OW51797  11.876   5.781  10.080
16653SOL    HW151798  11.901   5.869  10.109
16653SOL    HW251799  11.780   5.783  10.077
16654SOL     OW51800  13.722   2.524  12.920
16654SOL    HW151801  13.708   2.558  13.008
16654SOL    HW251802  13.779   2.448  12.931
16655SOL     OW51803  13.308   8.140   0.268
16655SOL    HW151804  13.213   8.136   0.280
16655SOL    HW251805  13.338   8.201   0.335
16656SOL     OW51806  12.017   2.211   9.861
16656SOL    HW151807  11.944   2.175   9.811
16656SOL    HW251808  11.976   2.248   9.939
16657SOL     OW51809   4.389   6.103   6.414
16657SOL    HW151810   4.373   6.181   6.361
16657SOL    HW251811   4.361   6.031   6.358
16658SOL     OW51812  11.735   0.035   7.474
16658SOL    HW151813  11.732   0.059   7.567
16658SOL    HW251814  11.785  14.830   7.472
16659SOL     OW51815  14.530   3.332  12.271
16659SOL    HW151816  14.469   3.258  12.272
16659SOL    HW251817  14.603   3.303  12.326
16660SOL     OW51818   1.802   7.202   0.181
16660SOL    HW151819   1.773   7.267   0.117
16660SOL    HW251820   1.846   7.254   0.249
16661SOL     OW51821  14.593   2.487  13.515
16661SOL    HW151822  14.658   2.443  13.460
16661SOL    HW251823  14.535   2.417  13.544
16662SOL     OW51824   9.051   0.963   3.985
16662SOL    HW151825   8.999   0.900   4.034
16662SOL    HW251826   9.078   1.028   4.051
16663SOL     OW51827  13.184   7.256   5.432
16663SOL    HW151828  13.099   7.244   5.475
16663SOL    HW251829  13.244   7.277   5.503
16664SOL     OW51830   8.348  12.165   8.597
16664SOL    HW151831   8.326  12.113   8.674
16664SOL    HW251832   8.264  12.192   8.561
16665SOL     OW51833   5.508   2.914  14.100
16665SOL    HW151834   5.455   2.842  14.133
16665SOL    HW251835   5.598   2.890  14.123
16666SOL     OW51836  14.395  11.718   2.880
16666SOL    HW151837  14.320  11.717   2.939
16666SOL    HW251838  14.411  11.811   2.864
16667SOL     OW51839  12.729   1.612   1.153
16667SOL    HW151840  12.784   1.663   1.094
16667SOL    HW251841  12.644   1.608   1.110
16668SOL     OW51842  10.050  14.401   3.111
16668SOL    HW151843  10.073  14.344   3.184
16668SOL    HW251844  10.119  14.387   3.046
16669SOL     OW51845   1.990   9.175   5.901
16669SOL    HW151846   1.970   9.185   5.994
16669SOL    HW251847   1.969   9.084   5.881
16670SOL     OW51848  10.244   4.368   1.474
16670SOL    HW151849  10.187   4.390   1.401
16670SOL    HW251850  10.210   4.284   1.506
16671SOL     OW51851   6.842   6.067   2.653
16671SOL    HW151852   6.751   6.039   2.662
16671SOL    HW251853   6.885   6.034   2.731
16672SOL     OW51854  11.075   1.600   7.316
16672SOL    HW151855  10.994   1.612   7.365
16672SOL    HW251856  11.058   1.641   7.231
16673SOL     OW51857   7.877   0.140  10.901
16673SOL    HW151858   7.807   0.139  10.966
16673SOL    HW251859   7.870   0.055  10.857
16674SOL     OW51860   7.998   6.645  14.298
16674SOL    HW151861   8.085   6.614  14.324
16674SOL    HW251862   8.005   6.740  14.300
16675SOL     OW51863   5.921   2.166   4.057
16675SOL    HW151864   6.014   2.143   4.053
16675SOL    HW251865   5.902   2.202   3.970
16676SOL     OW51866  13.554   2.272   2.252
16676SOL    HW151867  13.595   2.208   2.194
16676SOL    HW251868  13.569   2.238   2.340
16677SOL     OW51869   4.155   6.135   8.910
16677SOL    HW151870   4.181   6.217   8.868
16677SOL    HW251871   4.061   6.143   8.922
16678SOL     OW51872   9.597  14.789   9.415
16678SOL    HW151873   9.591   0.007   9.400
16678SOL    HW251874   9.580  14.750   9.329
16679SOL     OW51875   7.317   8.787  11.087
16679SOL    HW151876   7.231   8.762  11.119
16679SOL    HW251877   7.303   8.809  10.995
16680SOL     OW51878   0.285   8.999  13.880
16680SOL    HW151879   0.304   9.087  13.846
16680SOL    HW251880   0.318   9.001  13.970
16681SOL     OW51881   0.547   8.700  12.995
16681SOL    HW151882   0.524   8.634  13.061
16681SOL    HW251883   0.633   8.674  12.962
16682SOL     OW51884   8.352  12.952   9.013
16682SOL    HW151885   8.448  12.948   9.017
16682SOL    HW251886   8.325  12.974   9.102
16683SOL     OW51887  10.698  12.884   4.085
16683SOL    HW151888  10.631  12.953   4.082
16683SOL    HW251889  10.727  12.883   4.176
16684SOL     OW51890  14.638   4.019  13.902
16684SOL    HW151891  14.685   4.102  13.889
16684SOL    HW251892  14.583   4.035  13.979
16685SOL     OW51893   6.185   4.883   7.905
16685SOL    HW151894   6.174   4.803   7.853
16685SOL    HW251895   6.099   4.924   7.904
16686SOL     OW51896   0.219   9.304   5.199
16686SOL    HW151897   0.254   9.216   5.209
16686SOL    HW251898   0.197   9.311   5.106
16687SOL     OW51899   3.353   1.968  13.587
16687SOL    HW151900   3.409   1.970  13.509
16687SOL    HW251901   3.367   1.880  13.623
16688SOL     OW51902  14.759   5.916   3.481
16688SOL    HW151903  14.769   5.928   3.387
16688SOL    HW251904  14.774   6.004   3.518
16689SOL     OW51905   4.503   2.852   9.083
16689SOL    HW151906   4.544   2.868   8.998
16689SOL    HW251907   4.479   2.760   9.081
16690SOL     OW51908   5.307   8.956  14.587
16690SOL    HW151909   5.213   8.966  14.570
16690SOL    HW251910   5.338   9.045  14.600
16691SOL     OW51911   5.165  14.733   1.508
16691SOL    HW151912   5.127  14.810   1.465
16691SOL    HW251913   5.115  14.659   1.474
16692SOL     OW51914   7.382  14.484   0.801
16692SOL    HW151915   7.412  14.475   0.711
16692SOL    HW251916   7.462  14.500   0.851
16693SOL     OW51917   8.118  12.174   4.685
16693SOL    HW151918   8.213  12.172   4.675
16693SOL    HW251919   8.088  12.090   4.649
16694SOL     OW51920  12.747   1.328   1.570
16694SOL    HW151921  12.725   1.404   1.518
16694SOL    HW251922  12.776   1.263   1.506
16695SOL     OW51923  13.933  14.468   4.411
16695SOL    HW151924  13.929  14.513   4.496
16695SOL    HW251925  13.881  14.388   4.424
16696SOL     OW51926  11.614   9.652   1.363
16696SOL    HW151927  11.547   9.619   1.422
16696SOL    HW251928  11.568   9.672   1.282
16697SOL     OW51929   3.129   3.822   5.860
16697SOL    HW151930   3.042   3.845   5.827
16697SOL    HW251931   3.151   3.892   5.921
16698SOL     OW51932  11.357   8.481  13.318
16698SOL    HW151933  11.392   8.523  13.240
16698SOL    HW251934  11.367   8.546  13.387
16699SOL     OW51935  10.927   3.597   3.276
16699SOL    HW151936  10.896   3.593   3.186
16699SOL    HW251937  11.019   3.572   3.271
16700SOL     OW51938  11.403   0.800   8.960
16700SOL    HW151939  11.358   0.751   8.891
16700SOL    HW251940  11.495   0.795   8.936
16701SOL     OW51941   5.985   3.960   9.291
16701SOL    HW151942   5.996   3.877   9.244
16701SOL    HW251943   6.072   3.978   9.327
16702SOL     OW51944   3.027   8.355   9.316
16702SOL    HW151945   3.086   8.282   9.335
16702SOL    HW251946   2.991   8.334   9.229
16703SOL     OW51947  12.377   8.279   2.466
16703SOL    HW151948  12.434   8.244   2.534
16703SOL    HW251949  12.293   8.235   2.480
16704SOL     OW51950  10.501   4.056   2.980
16704SOL    HW151951  10.541   3.978   3.019
16704SOL    HW251952  10.474   4.029   2.893
16705SOL     OW51953   2.136  10.932  10.382
16705SOL    HW151954   2.180  11.017  10.381
16705SOL    HW251955   2.093  10.926  10.296
16706SOL     OW51956   5.707  12.861   2.866
16706SOL    HW151957   5.621  12.899   2.886
16706SOL    HW251958   5.687  12.788   2.808
16707SOL     OW51959   9.503  14.583  12.219
16707SOL    HW151960   9.567  14.523  12.257
16707SOL    HW251961   9.556  14.658  12.189
16708SOL     OW51962   2.080   3.922   1.132
16708SOL    HW151963   2.173   3.906   1.112
16708SOL    HW251964   2.048   3.973   1.058
16709SOL     OW51965  10.256  10.722  13.258
16709SOL    HW151966  10.268  10.762  13.172
16709SOL    HW251967  10.178  10.765  13.294
16710SOL     OW51968   5.346   3.189   6.910
16710SOL    HW151969   5.419   3.130   6.891
16710SOL    HW251970   5.268   3.135   6.896
16711SOL     OW51971  10.885   1.715  10.727
16711SOL    HW151972  10.956   1.768  10.690
16711SOL    HW251973  10.906   1.626  10.700
16712SOL     OW51974   8.797   2.144   3.554
16712SOL    HW151975   8.783   2.238   3.560
16712SOL    HW251976   8.869   2.126   3.614
16713SOL     OW51977  11.336   9.309   0.215
16713SOL    HW151978  11.402   9.294   0.147
16713SOL    HW251979  11.386   9.319   0.296
16714SOL     OW51980   6.963   9.245   9.145
16714SOL    HW151981   7.007   9.229   9.229
16714SOL    HW251982   6.876   9.277   9.169
16715SOL     OW51983  14.758   2.620   6.741
16715SOL    HW151984  14.823   2.550   6.740
16715SOL    HW251985  14.801   2.693   6.786
16716SOL     OW51986  12.628   8.165  13.853
16716SOL    HW151987  12.631   8.070  13.853
16716SOL    HW251988  12.719   8.192  13.836
16717SOL     OW51989   9.753  13.327   0.430
16717SOL    HW151990   9.704  13.257   0.472
16717SOL    HW251991   9.776  13.292   0.344
16718SOL     OW51992   1.485   1.529  11.651
16718SOL    HW151993   1.455   1.464  11.714
16718SOL    HW251994   1.484   1.612  11.699
16719SOL     OW51995   8.406   8.707  12.863
16719SOL    HW151996   8.387   8.770  12.794
16719SOL    HW251997   8.419   8.760  12.941
16720SOL     OW51998  11.829   7.566  14.441
16720SOL    HW151999  11.735   7.552  14.431
16720SOL    HW252000  11.838   7.597  14.531
16721SOL     OW52001   2.716  10.427   0.614
16721SOL    HW152002   2.668  10.354   0.573
16721SOL    HW252003   2.805  10.393   0.625
16722SOL     OW52004   9.513   9.535   2.885
16722SOL    HW152005   9.522   9.490   2.969
16722SOL    HW252006   9.419   9.540   2.870
16723SOL     OW52007   8.053   3.231   3.602
16723SOL    HW152008   7.980   3.231   3.664
16723SOL    HW252009   8.031   3.162   3.540
16724SOL     OW52010   4.447  14.533   8.072
16724SOL    HW152011   4.404  14.574   7.997
16724SOL    HW252012   4.441  14.439   8.055
16725SOL     OW52013  12.251  13.668   5.687
16725SOL    HW152014  12.173  13.650   5.740
16725SOL    HW252015  12.245  13.762   5.668
16726SOL     OW52016   7.929   7.183   2.048
16726SOL    HW152017   7.980   7.103   2.061
16726SOL    HW252018   7.987   7.253   2.078
16727SOL     OW52019   9.583   3.911  11.644
16727SOL    HW152020   9.645   3.887  11.713
16727SOL    HW252021   9.569   3.830  11.595
16728SOL     OW52022   1.164   2.731  12.513
16728SOL    HW152023   1.212   2.674  12.453
16728SOL    HW252024   1.073   2.727  12.483
16729SOL     OW52025  10.984   0.058   3.856
16729SOL    HW152026  11.011   0.068   3.764
16729SOL    HW252027  11.044  14.870   3.892
16730SOL     OW52028  14.783  10.979  13.221
16730SOL    HW152029  14.817  11.046  13.281
16730SOL    HW252030  14.860  10.935  13.186
16731SOL     OW52031   2.770   5.315   1.937
16731SOL    HW152032   2.789   5.406   1.915
16731SOL    HW252033   2.854   5.278   1.962
16732SOL     OW52034  10.892  11.195  14.807
16732SOL    HW152035  10.903  11.270  14.748
16732SOL    HW252036  10.918  11.119  14.756
16733SOL     OW52037   3.977   8.718   8.231
16733SOL    HW152038   3.938   8.675   8.154
16733SOL    HW252039   3.998   8.645   8.290
16734SOL     OW52040  13.134   9.783   0.331
16734SOL    HW152041  13.140   9.737   0.247
16734SOL    HW252042  13.091   9.722   0.390
16735SOL     OW52043   9.568  12.421   1.937
16735SOL    HW152044   9.643  12.442   1.880
16735SOL    HW252045   9.492  12.431   1.880
16736SOL     OW52046   0.319   9.666   7.862
16736SOL    HW152047   0.344   9.578   7.892
16736SOL    HW252048   0.303   9.655   7.768
16737SOL     OW52049   5.559   0.369   0.855
16737SOL    HW152050   5.583   0.316   0.932
16737SOL    HW252051   5.464   0.379   0.862
16738SOL     OW52052   6.566   8.089   4.686
16738SOL    HW152053   6.585   8.004   4.725
16738SOL    HW252054   6.475   8.081   4.655
16739SOL     OW52055   9.751   1.339   3.866
16739SOL    HW152056   9.747   1.245   3.886
16739SOL    HW252057   9.761   1.381   3.951
16740SOL     OW52058   9.366   7.298   7.326
16740SOL    HW152059   9.347   7.238   7.398
16740SOL    HW252060   9.416   7.369   7.366
16741SOL     OW52061   2.043   2.109   4.967
16741SOL    HW152062   2.103   2.154   5.026
16741SOL    HW252063   2.014   2.177   4.906
16742SOL     OW52064   7.184   1.707   4.263
16742SOL    HW152065   7.104   1.672   4.302
16742SOL    HW252066   7.241   1.727   4.337
16743SOL     OW52067   0.793   7.740   6.613
16743SOL    HW152068   0.881   7.770   6.588
16743SOL    HW252069   0.737   7.817   6.601
16744SOL     OW52070   1.658   2.716   1.878
16744SOL    HW152071   1.687   2.807   1.887
16744SOL    HW252072   1.564   2.720   1.891
16745SOL     OW52073  13.184   9.338   4.608
16745SOL    HW152074  13.227   9.343   4.693
16745SOL    HW252075  13.255   9.319   4.546
16746SOL     OW52076   7.056   2.167   4.836
16746SOL    HW152077   7.108   2.237   4.797
16746SOL    HW252078   7.034   2.199   4.923
16747SOL     OW52079  10.253  10.008  13.333
16747SOL    HW152080  10.299   9.929  13.306
16747SOL    HW252081  10.293  10.078  13.281
16748SOL     OW52082  12.867   9.475   3.885
16748SOL    HW152083  12.950   9.486   3.840
16748SOL    HW252084  12.830   9.563   3.891
16749SOL     OW52085  12.613   3.157   2.981
16749SOL    HW152086  12.543   3.124   3.038
16749SOL    HW252087  12.692   3.150   3.034
16750SOL     OW52088   7.190   9.365   4.036
16750SOL    HW152089   7.143   9.397   4.113
16750SOL    HW252090   7.195   9.270   4.048
16751SOL     OW52091  12.919  10.570   3.672
16751SOL    HW152092  12.987  10.591   3.607
16751SOL    HW252093  12.947  10.616   3.751
16752SOL     OW52094  11.449  13.449   9.835
16752SOL    HW152095  11.518  13.516   9.837
16752SOL    HW252096  11.470  13.394   9.760
16753SOL     OW52097   6.858   8.035   1.503
16753SOL    HW152098   6.940   7.986   1.513
16753SOL    HW252099   6.833   8.057   1.593
16754SOL     OW52100  11.843   3.452  13.532
16754SOL    HW152101  11.867   3.360  13.538
16754SOL    HW252102  11.779   3.466  13.602
16755SOL     OW52103   3.004   8.766   5.984
16755SOL    HW152104   2.927   8.712   6.003
16755SOL    HW252105   2.968   8.845   5.943
16756SOL     OW52106   7.860   5.023   0.872
16756SOL    HW152107   7.945   5.034   0.829
16756SOL    HW252108   7.862   5.087   0.944
16757SOL     OW52109  13.061   2.017   8.518
16757SOL    HW152110  13.156   2.029   8.522
16757SOL    HW252111  13.042   2.011   8.424
16758SOL     OW52112   7.298   2.361   6.857
16758SOL    HW152113   7.310   2.290   6.795
16758SOL    HW252114   7.360   2.429   6.828
16759SOL     OW52115  11.179   0.284   0.601
16759SOL    HW152116  11.117   0.354   0.620
16759SOL    HW252117  11.242   0.288   0.673
16760SOL     OW52118   9.174  13.982   1.356
16760SOL    HW152119   9.156  14.064   1.311
16760SOL    HW252120   9.140  13.995   1.444
16761SOL     OW52121   8.989  12.446   6.544
16761SOL    HW152122   8.963  12.508   6.612
16761SOL    HW252123   9.077  12.476   6.518
16762SOL     OW52124   9.436   9.686   8.024
16762SOL    HW152125   9.422   9.691   8.118
16762SOL    HW252126   9.367   9.740   7.986
16763SOL     OW52127   6.134  12.282   6.723
16763SOL    HW152128   6.074  12.330   6.666
16763SOL    HW252129   6.146  12.338   6.799
16764SOL     OW52130   0.961  13.569   5.472
16764SOL    HW152131   0.926  13.482   5.453
16764SOL    HW252132   0.995  13.599   5.388
16765SOL     OW52133   8.478   3.058   3.880
16765SOL    HW152134   8.419   3.073   3.806
16765SOL    HW252135   8.515   2.972   3.864
16766SOL     OW52136   9.478   9.836   0.268
16766SOL    HW152137   9.476   9.913   0.211
16766SOL    HW252138   9.562   9.794   0.250
16767SOL     OW52139   4.898  13.579  10.893
16767SOL    HW152140   4.913  13.529  10.813
16767SOL    HW252141   4.953  13.537  10.958
16768SOL     OW52142   6.928   6.376   6.884
16768SOL    HW152143   6.916   6.281   6.883
16768SOL    HW252144   6.999   6.391   6.945
16769SOL     OW52145   7.066   8.121  13.170
16769SOL    HW152146   7.022   8.205  13.184
16769SOL    HW252147   7.118   8.108  13.249
16770SOL     OW52148   3.826   9.832  11.833
16770SOL    HW152149   3.859   9.829  11.743
16770SOL    HW252150   3.858   9.916  11.867
16771SOL     OW52151   0.818  11.235   5.427
16771SOL    HW152152   0.830  11.316   5.378
16771SOL    HW252153   0.879  11.173   5.386
16772SOL     OW52154   9.309   3.997  13.565
16772SOL    HW152155   9.225   3.969  13.601
16772SOL    HW252156   9.318   4.088  13.594
16773SOL     OW52157   9.133   7.715  14.190
16773SOL    HW152158   9.120   7.743  14.100
16773SOL    HW252159   9.229   7.713  14.201
16774SOL     OW52160   7.912   4.914   3.393
16774SOL    HW152161   7.890   4.828   3.430
16774SOL    HW252162   7.834   4.967   3.407
16775SOL     OW52163  10.927  11.946   2.288
16775SOL    HW152164  10.886  12.032   2.278
16775SOL    HW252165  11.020  11.962   2.275
16776SOL     OW52166  11.124   9.172   0.563
16776SOL    HW152167  11.076   9.207   0.488
16776SOL    HW252168  11.164   9.091   0.531
16777SOL     OW52169   7.262   5.026  11.605
16777SOL    HW152170   7.356   5.043  11.607
16777SOL    HW252171   7.226   5.081  11.675
16778SOL     OW52172  13.493  10.398   8.545
16778SOL    HW152173  13.450  10.343   8.609
16778SOL    HW252174  13.584  10.402   8.573
16779SOL     OW52175   4.210   3.149   2.996
16779SOL    HW152176   4.292   3.195   2.976
16779SOL    HW252177   4.185   3.108   2.914
16780SOL     OW52178   0.293   8.583   0.414
16780SOL    HW152179   0.228   8.540   0.471
16780SOL    HW252180   0.341   8.642   0.473
16781SOL     OW52181   5.357   5.514   2.140
16781SOL    HW152182   5.324   5.428   2.113
16781SOL    HW252183   5.281   5.559   2.177
16782SOL     OW52184   9.663  10.241  14.254
16782SOL    HW152185   9.641  10.334  14.251
16782SOL    HW252186   9.752  10.236  14.218
16783SOL     OW52187   6.717   0.119   1.704
16783SOL    HW152188   6.695   0.034   1.666
16783SOL    HW252189   6.638   0.146   1.749
16784SOL     OW52190   4.628  14.126   3.127
16784SOL    HW152191   4.673  14.192   3.179
16784SOL    HW252192   4.697  14.084   3.076
16785SOL     OW52193   8.235  13.667   3.765
16785SOL    HW152194   8.167  13.624   3.713
16785SOL    HW252195   8.205  13.758   3.774
16786SOL     OW52196  11.224  14.210   4.796
16786SOL    HW152197  11.169  14.137   4.767
16786SOL    HW252198  11.163  14.282   4.812
16787SOL     OW52199   0.791   7.506   3.253
16787SOL    HW152200   0.843   7.425   3.260
16787SOL    HW252201   0.756   7.504   3.164
16788SOL     OW52202  10.579   8.818  13.340
16788SOL    HW152203  10.669   8.851  13.345
16788SOL    HW252204  10.589   8.723  13.329
16789SOL     OW52205  11.724   5.626   7.240
16789SOL    HW152206  11.674   5.707   7.232
16789SOL    HW252207  11.775   5.621   7.159
16790SOL     OW52208   0.713   7.771   3.199
16790SOL    HW152209   0.779   7.840   3.191
16790SOL    HW252210   0.746   7.699   3.144
16791SOL     OW52211   9.544   7.034   0.606
16791SOL    HW152212   9.638   7.033   0.586
16791SOL    HW252213   9.530   7.116   0.653
16792SOL     OW52214   6.648  12.480  12.394
16792SOL    HW152215   6.690  12.565  12.406
16792SOL    HW252216   6.626  12.476  12.301
16793SOL     OW52217   2.549   0.849   5.587
16793SOL    HW152218   2.605   0.772   5.597
16793SOL    HW252219   2.487   0.825   5.518
16794SOL     OW52220  11.453   5.337   9.611
16794SOL    HW152221  11.400   5.261   9.635
16794SOL    HW252222  11.393   5.411   9.619
16795SOL     OW52223   0.607   7.689   0.187
16795SOL    HW152224   0.576   7.599   0.194
16795SOL    HW252225   0.656   7.705   0.267
16796SOL     OW52226   9.892   7.070   3.853
16796SOL    HW152227   9.900   7.040   3.943
16796SOL    HW252228   9.963   7.025   3.807
16797SOL     OW52229   5.098  12.467  12.272
16797SOL    HW152230   5.079  12.553  12.310
16797SOL    HW252231   5.018  12.444  12.224
16798SOL     OW52232  14.603  13.329   3.952
16798SOL    HW152233  14.530  13.298   4.004
16798SOL    HW252234  14.571  13.410   3.911
16799SOL     OW52235   9.165   9.968   6.347
16799SOL    HW152236   9.203  10.015   6.421
16799SOL    HW252237   9.217   9.888   6.339
16800SOL     OW52238   0.749   2.734   8.977
16800SOL    HW152239   0.823   2.683   9.013
16800SOL    HW252240   0.762   2.732   8.883
16801SOL     OW52241   5.458   8.852   4.083
16801SOL    HW152242   5.443   8.763   4.049
16801SOL    HW252243   5.544   8.847   4.125
16802SOL     OW52244   2.589  10.957  13.060
16802SOL    HW152245   2.608  10.883  13.117
16802SOL    HW252246   2.608  10.925  12.971
16803SOL     OW52247   2.538   5.092   7.270
16803SOL    HW152248   2.561   5.143   7.348
16803SOL    HW252249   2.616   5.095   7.215
16804SOL     OW52250  11.659   6.484   5.776
16804SOL    HW152251  11.729   6.549   5.767
16804SOL    HW252252  11.684   6.414   5.715
16805SOL     OW52253   1.729   6.346  12.619
16805SOL    HW152254   1.804   6.339  12.679
16805SOL    HW252255   1.763   6.316  12.535
16806SOL     OW52256   4.970  14.340  14.740
16806SOL    HW152257   4.939  14.262  14.785
16806SOL    HW252258   4.973  14.315  14.647
16807SOL     OW52259  13.913  12.981   7.065
16807SOL    HW152260  13.940  12.941   6.982
16807SOL    HW252261  13.917  13.075   7.048
16808SOL     OW52262   5.237   9.298   1.900
16808SOL    HW152263   5.144   9.317   1.916
16808SOL    HW252264   5.263   9.361   1.833
16809SOL     OW52265  13.911   0.803  10.330
16809SOL    HW152266  13.960   0.882  10.306
16809SOL    HW252267  13.969   0.731  10.306
16810SOL     OW52268   7.836   6.229   7.953
16810SOL    HW152269   7.754   6.239   8.003
16810SOL    HW252270   7.818   6.156   7.893
16811SOL     OW52271   6.072   9.204   7.700
16811SOL    HW152272   6.147   9.171   7.651
16811SOL    HW252273   6.022   9.256   7.636
16812SOL     OW52274   9.832   6.490   2.052
16812SOL    HW152275   9.815   6.430   2.125
16812SOL    HW252276   9.905   6.449   2.005
16813SOL     OW52277   0.819   5.554   7.288
16813SOL    HW152278   0.826   5.565   7.383
16813SOL    HW252279   0.822   5.460   7.274
16814SOL     OW52280  12.501   3.889   4.753
16814SOL    HW152281  12.447   3.838   4.813
16814SOL    HW252282  12.437   3.934   4.697
16815SOL     OW52283  10.925   0.862   5.417
16815SOL    HW152284  10.932   0.932   5.482
16815SOL    HW252285  10.982   0.793   5.451
16816SOL     OW52286  13.936  12.147  14.620
16816SOL    HW152287  14.008  12.209  14.628
16816SOL    HW252288  13.869  12.180  14.680
16817SOL     OW52289   5.390  14.514  12.994
16817SOL    HW152290   5.365  14.423  12.980
16817SOL    HW252291   5.451  14.534  12.923
16818SOL     OW52292   3.800  12.968   6.311
16818SOL    HW152293   3.822  12.885   6.270
16818SOL    HW252294   3.884  13.004   6.340
16819SOL     OW52295   2.475   1.588   0.335
16819SOL    HW152296   2.403   1.532   0.363
16819SOL    HW252297   2.491   1.645   0.410
16820SOL     OW52298   3.700   5.657  11.865
16820SOL    HW152299   3.617   5.676  11.821
16820SOL    HW252300   3.767   5.679  11.800
16821SOL     OW52301   3.085   7.165   4.536
16821SOL    HW152302   3.096   7.254   4.502
16821SOL    HW252303   3.120   7.168   4.625
16822SOL     OW52304   5.058   1.205  14.823
16822SOL    HW152305   5.074   1.234  14.733
16822SOL    HW252306   5.079   1.112  14.822
16823SOL     OW52307   4.601   0.106   1.632
16823SOL    HW152308   4.555   0.167   1.575
16823SOL    HW252309   4.679   0.080   1.583
16824SOL     OW52310   3.796  11.986  11.117
16824SOL    HW152311   3.830  11.901  11.147
16824SOL    HW252312   3.769  12.031  11.197
16825SOL     OW52313  13.707   5.699  10.182
16825SOL    HW152314  13.628   5.730  10.227
16825SOL    HW252315  13.677   5.678  10.094
16826SOL     OW52316   4.599   7.779  10.623
16826SOL    HW152317   4.517   7.767  10.672
16826SOL    HW252318   4.667   7.747  10.683
16827SOL     OW52319   6.892  13.793   1.698
16827SOL    HW152320   6.972  13.846   1.693
16827SOL    HW252321   6.921  13.709   1.733
16828SOL     OW52322   0.705  12.826  10.002
16828SOL    HW152323   0.692  12.917   9.973
16828SOL    HW252324   0.618  12.787   9.995
16829SOL     OW52325   3.374   7.669   3.944
16829SOL    HW152326   3.432   7.599   3.916
16829SOL    HW252327   3.414   7.703   4.025
16830SOL     OW52328  11.017   3.569   2.760
16830SOL    HW152329  11.059   3.607   2.837
16830SOL    HW252330  10.987   3.483   2.789
16831SOL     OW52331   8.042  14.486  12.647
16831SOL    HW152332   7.991  14.405  12.641
16831SOL    HW252333   8.089  14.477  12.730
16832SOL     OW52334  14.222   8.983  11.647
16832SOL    HW152335  14.285   9.024  11.706
16832SOL    HW252336  14.170   9.057  11.614
16833SOL     OW52337   3.798  10.154  14.398
16833SOL    HW152338   3.893  10.150  14.394
16833SOL    HW252339   3.779  10.240  14.435
16834SOL     OW52340  13.325   0.878   3.276
16834SOL    HW152341  13.387   0.883   3.202
16834SOL    HW252342  13.258   0.942   3.255
16835SOL     OW52343   7.040   9.130   2.211
16835SOL    HW152344   6.951   9.165   2.214
16835SOL    HW252345   7.096   9.204   2.237
16836SOL     OW52346   0.877   8.594  11.046
16836SOL    HW152347   0.923   8.604  10.962
16836SOL    HW252348   0.940   8.548  11.102
16837SOL     OW52349   5.790  11.136  13.988
16837SOL    HW152350   5.831  11.166  14.069
16837SOL    HW252351   5.864  11.112  13.931
16838SOL     OW52352  12.968   7.423   7.203
16838SOL    HW152353  12.976   7.339   7.247
16838SOL    HW252354  12.992   7.406   7.112
16839SOL     OW52355   8.768   9.595   0.953
16839SOL    HW152356   8.828   9.530   0.915
16839SOL    HW252357   8.820   9.676   0.957
16840SOL     OW52358   1.915  10.850   2.650
16840SOL    HW152359   1.914  10.798   2.570
16840SOL    HW252360   1.958  10.932   2.625
16841SOL     OW52361   6.102   1.144   2.326
16841SOL    HW152362   6.109   1.151   2.421
16841SOL    HW252363   6.035   1.076   2.313
16842SOL     OW52364  11.094   6.728   0.784
16842SOL    HW152365  11.186   6.747   0.769
16842SOL    HW252366  11.049   6.810   0.764
16843SOL     OW52367   5.440   7.538  11.796
16843SOL    HW152368   5.491   7.458  11.814
16843SOL    HW252369   5.492   7.608  11.835
16844SOL     OW52370   1.434  12.641   1.177
16844SOL    HW152371   1.428  12.570   1.112
16844SOL    HW252372   1.526  12.668   1.173
16845SOL     OW52373  11.866   0.860   6.724
16845SOL    HW152374  11.887   0.900   6.808
16845SOL    HW252375  11.796   0.798   6.745
16846SOL     OW52376  13.119   2.880  10.155
16846SOL    HW152377  13.062   2.833  10.094
16846SOL    HW252378  13.061   2.942  10.199
16847SOL     OW52379   6.036  13.447   5.683
16847SOL    HW152380   6.077  13.514   5.629
16847SOL    HW252381   6.103  13.425   5.748
16848SOL     OW52382   1.914  11.362   8.208
16848SOL    HW152383   1.959  11.437   8.169
16848SOL    HW252384   1.972  11.288   8.192
16849SOL     OW52385   2.565   9.649   8.229
16849SOL    HW152386   2.567   9.713   8.301
16849SOL    HW252387   2.655   9.643   8.200
16850SOL     OW52388   8.231   9.957   5.222
16850SOL    HW152389   8.247   9.913   5.306
16850SOL    HW252390   8.309  10.010   5.208
16851SOL     OW52391   8.405   5.949   4.357
16851SOL    HW152392   8.404   5.986   4.269
16851SOL    HW252393   8.322   5.977   4.396
16852SOL     OW52394   6.639   0.849  11.543
16852SOL    HW152395   6.546   0.828  11.552
16852SOL    HW252396   6.682   0.794  11.609
16853SOL     OW52397   3.458  10.260  11.775
16853SOL    HW152398   3.433  10.174  11.742
16853SOL    HW252399   3.383  10.289  11.827
16854SOL     OW52400   8.863   7.090  10.915
16854SOL    HW152401   8.882   7.000  10.889
16854SOL    HW252402   8.949   7.128  10.936
16855SOL     OW52403  13.304   6.968   5.000
16855SOL    HW152404  13.276   6.906   4.933
16855SOL    HW252405  13.223   6.992   5.045
16856SOL     OW52406  12.455   7.015   3.152
16856SOL    HW152407  12.463   6.957   3.076
16856SOL    HW252408  12.367   7.052   3.144
16857SOL     OW52409   2.773   3.818   9.059
16857SOL    HW152410   2.754   3.779   9.144
16857SOL    HW252411   2.735   3.906   9.064
16858SOL     OW52412   9.407   9.979   0.790
16858SOL    HW152413   9.359  10.020   0.718
16858SOL    HW252414   9.341   9.929   0.837
16859SOL     OW52415  13.353   2.306  10.396
16859SOL    HW152416  13.366   2.393  10.431
16859SOL    HW252417  13.269   2.277  10.431
16860SOL     OW52418  14.600   8.964   7.712
16860SOL    HW152419  14.553   8.977   7.795
16860SOL    HW252420  14.625   8.872   7.713
16861SOL     OW52421  10.848   8.836   5.072
16861SOL    HW152422  10.774   8.790   5.032
16861SOL    HW252423  10.881   8.776   5.139
16862SOL     OW52424   7.760   4.096  14.282
16862SOL    HW152425   7.830   4.159  14.293
16862SOL    HW252426   7.802   4.020  14.241
16863SOL     OW52427   1.829   8.587   4.472
16863SOL    HW152428   1.796   8.497   4.462
16863SOL    HW252429   1.924   8.578   4.467
16864SOL     OW52430  12.898   5.136   4.279
16864SOL    HW152431  12.964   5.111   4.215
16864SOL    HW252432  12.830   5.069   4.271
16865SOL     OW52433   8.494   0.852  14.080
16865SOL    HW152434   8.559   0.866  14.149
16865SOL    HW252435   8.537   0.791  14.019
16866SOL     OW52436   1.528   9.552  10.139
16866SOL    HW152437   1.482   9.634  10.156
16866SOL    HW252438   1.462   9.484  10.153
16867SOL     OW52439   8.950   3.814   4.218
16867SOL    HW152440   8.864   3.791   4.184
16867SOL    HW252441   8.994   3.730   4.231
16868SOL     OW52442  14.300  12.028   6.927
16868SOL    HW152443  14.358  12.043   6.852
16868SOL    HW252444  14.316  11.937   6.951
16869SOL     OW52445  10.234   6.404   1.491
16869SOL    HW152446  10.298   6.474   1.485
16869SOL    HW252447  10.180   6.427   1.567
16870SOL     OW52448  10.120  14.803   9.678
16870SOL    HW152449  10.113  14.742   9.752
16870SOL    HW252450  10.035  14.797   9.634
16871SOL     OW52451   5.113  10.628   0.914
16871SOL    HW152452   5.133  10.717   0.942
16871SOL    HW252453   5.019  10.618   0.929
16872SOL     OW52454   7.611   7.559   1.023
16872SOL    HW152455   7.578   7.648   1.037
16872SOL    HW252456   7.593   7.540   0.931
16873SOL     OW52457   0.717   2.372   2.050
16873SOL    HW152458   0.753   2.291   2.014
16873SOL    HW252459   0.744   2.440   1.990
16874SOL     OW52460   7.926  13.400   9.960
16874SOL    HW152461   7.984  13.403   9.883
16874SOL    HW252462   7.841  13.373   9.926
16875SOL     OW52463   0.428   6.296   4.790
16875SOL    HW152464   0.423   6.292   4.886
16875SOL    HW252465   0.453   6.207   4.764
16876SOL     OW52466  12.091   2.320  11.636
16876SOL    HW152467  12.176   2.364  11.624
16876SOL    HW252468  12.042   2.341  11.557
16877SOL     OW52469   3.187   8.326   9.789
16877SOL    HW152470   3.268   8.340   9.740
16877SOL    HW252471   3.191   8.234   9.817
16878SOL     OW52472   6.364   1.761   2.042
16878SOL    HW152473   6.316   1.768   2.125
16878SOL    HW252474   6.455   1.783   2.066
16879SOL     OW52475   3.728   2.798   5.698
16879SOL    HW152476   3.659   2.846   5.653
16879SOL    HW252477   3.682   2.751   5.768
16880SOL     OW52478  14.812   7.163   1.303
16880SOL    HW152479  14.765   7.133   1.225
16880SOL    HW252480  14.871   7.230   1.271
16881SOL     OW52481  12.554   3.981  12.396
16881SOL    HW152482  12.482   4.043  12.385
16881SOL    HW252483  12.545   3.920  12.322
16882SOL     OW52484   9.627   7.299   4.921
16882SOL    HW152485   9.539   7.333   4.905
16882SOL    HW252486   9.618   7.204   4.915
16883SOL     OW52487  11.050  12.534   9.230
16883SOL    HW152488  11.051  12.614   9.177
16883SOL    HW252489  10.957  12.512   9.238
16884SOL     OW52490  10.725   8.858   3.158
16884SOL    HW152491  10.734   8.854   3.063
16884SOL    HW252492  10.776   8.935   3.184
16885SOL     OW52493   9.715  14.353   9.126
16885SOL    HW152494   9.690  14.375   9.216
16885SOL    HW252495   9.716  14.258   9.124
16886SOL     OW52496   6.158   3.768  10.794
16886SOL    HW152497   6.097   3.770  10.868
16886SOL    HW252498   6.150   3.854  10.753
16887SOL     OW52499   4.011   2.470   0.780
16887SOL    HW152500   4.010   2.565   0.789
16887SOL    HW252501   4.037   2.438   0.866
16888SOL     OW52502   3.059  13.973   8.867
16888SOL    HW152503   2.989  13.990   8.804
16888SOL    HW252504   3.136  13.957   8.813
16889SOL     OW52505   1.867   5.604   1.789
16889SOL    HW152506   1.901   5.692   1.804
16889SOL    HW252507   1.920   5.569   1.717
16890SOL     OW52508  11.581   9.473   7.058
16890SOL    HW152509  11.670   9.462   7.090
16890SOL    HW252510  11.590   9.520   6.976
16891SOL     OW52511  12.513  13.566   8.894
16891SOL    HW152512  12.489  13.538   8.982
16891SOL    HW252513  12.480  13.497   8.837
16892SOL     OW52514   8.441   9.293   8.079
16892SOL    HW152515   8.536   9.302   8.070
16892SOL    HW252516   8.429   9.212   8.128
16893SOL     OW52517  14.136   6.158   6.345
16893SOL    HW152518  14.079   6.209   6.401
16893SOL    HW252519  14.224   6.193   6.362
16894SOL     OW52520   3.284  11.500   5.262
16894SOL    HW152521   3.198  11.469   5.290
16894SOL    HW252522   3.286  11.591   5.292
16895SOL     OW52523   9.447  12.036  14.156
16895SOL    HW152524   9.460  12.000  14.244
16895SOL    HW252525   9.372  12.095  14.165
16896SOL     OW52526   4.732   5.610   2.618
16896SOL    HW152527   4.822   5.602   2.588
16896SOL    HW252528   4.702   5.519   2.627
16897SOL     OW52529   5.398   9.171   4.579
16897SOL    HW152530   5.343   9.096   4.558
16897SOL    HW252531   5.407   9.218   4.496
16898SOL     OW52532  14.593  11.072   6.967
16898SOL    HW152533  14.653  10.999   6.946
16898SOL    HW252534  14.635  11.117   7.040
16899SOL     OW52535   5.065  13.944  10.513
16899SOL    HW152536   5.108  13.863  10.539
16899SOL    HW252537   5.077  14.003  10.588
16900SOL     OW52538   7.201   1.131  10.963
16900SOL    HW152539   7.134   1.068  10.991
16900SOL    HW252540   7.276   1.113  11.020
16901SOL     OW52541   3.890   0.432  11.138
16901SOL    HW152542   3.847   0.372  11.077
16901SOL    HW252543   3.831   0.507  11.143
16902SOL     OW52544  10.478   5.490   9.861
16902SOL    HW152545  10.441   5.524   9.943
16902SOL    HW252546  10.483   5.567   9.804
16903SOL     OW52547   6.621  14.652   9.187
16903SOL    HW152548   6.690  14.620   9.128
16903SOL    HW252549   6.554  14.686   9.128
16904SOL     OW52550   2.060   1.237   2.544
16904SOL    HW152551   2.096   1.203   2.626
16904SOL    HW252552   2.029   1.160   2.497
16905SOL     OW52553  13.959  12.739   5.945
16905SOL    HW152554  14.050  12.740   5.917
16905SOL    HW252555  13.951  12.809   6.009
16906SOL     OW52556  14.778  13.779  14.347
16906SOL    HW152557  14.737  13.822  14.423
16906SOL    HW252558  14.725  13.700  14.334
16907SOL     OW52559   2.200   2.353   0.047
16907SOL    HW152560   2.177   2.387   0.133
16907SOL    HW252561   2.142   2.399  14.863
16908SOL     OW52562   9.839   1.740   1.611
16908SOL    HW152563   9.851   1.826   1.652
16908SOL    HW252564   9.859   1.754   1.519
16909SOL     OW52565   4.663  13.302   1.592
16909SOL    HW152566   4.661  13.215   1.552
16909SOL    HW252567   4.751  13.335   1.572
16910SOL     OW52568   0.968  13.243   5.780
16910SOL    HW152569   1.056  13.263   5.748
16910SOL    HW252570   0.915  13.231   5.700
16911SOL     OW52571   2.763  11.250   4.819
16911SOL    HW152572   2.709  11.242   4.897
16911SOL    HW252573   2.708  11.295   4.756
16912SOL     OW52574   9.032  11.096  14.534
16912SOL    HW152575   9.080  11.131  14.460
16912SOL    HW252576   8.942  11.085  14.502
16913SOL     OW52577  12.220   9.020   1.947
16913SOL    HW152578  12.191   9.032   2.038
16913SOL    HW252579  12.164   8.949   1.914
16914SOL     OW52580  10.485   4.504  12.105
16914SOL    HW152581  10.482   4.472  12.015
16914SOL    HW252582  10.578   4.524  12.120
16915SOL     OW52583   8.996   2.519   7.697
16915SOL    HW152584   9.078   2.568   7.686
16915SOL    HW252585   8.931   2.587   7.717
16916SOL     OW52586   8.021  12.417  12.918
16916SOL    HW152587   7.982  12.338  12.957
16916SOL    HW252588   7.950  12.481  12.919
16917SOL     OW52589  11.796  10.791  11.698
16917SOL    HW152590  11.739  10.862  11.726
16917SOL    HW252591  11.744  10.742  11.634
16918SOL     OW52592   8.037  11.820   9.251
16918SOL    HW152593   8.105  11.857   9.308
16918SOL    HW252594   7.960  11.874   9.270
16919SOL     OW52595   1.862  11.886   5.747
16919SOL    HW152596   1.842  11.833   5.825
16919SOL    HW252597   1.928  11.948   5.778
16920SOL     OW52598   7.516   3.177   8.561
16920SOL    HW152599   7.568   3.246   8.601
16920SOL    HW252600   7.581   3.116   8.525
16921SOL     OW52601   6.701   6.770  11.146
16921SOL    HW152602   6.794   6.748  11.155
16921SOL    HW252603   6.677   6.740  11.058
16922SOL     OW52604   3.596   0.735   3.775
16922SOL    HW152605   3.532   0.701   3.837
16922SOL    HW252606   3.668   0.671   3.778
16923SOL     OW52607  13.963  14.786   6.598
16923SOL    HW152608  13.908  14.732   6.655
16923SOL    HW252609  13.957  14.874   6.636
16924SOL     OW52610   6.134   9.038   2.813
16924SOL    HW152611   6.147   8.948   2.783
16924SOL    HW252612   6.081   9.029   2.892
16925SOL     OW52613  10.018   5.068   7.072
16925SOL    HW152614  10.049   4.999   7.014
16925SOL    HW252615   9.986   5.137   7.013
16926SOL     OW52616   9.859  14.681  14.397
16926SOL    HW152617   9.848  14.714  14.308
16926SOL    HW252618   9.933  14.731  14.432
16927SOL     OW52619  10.651   6.817   3.281
16927SOL    HW152620  10.660   6.826   3.375
16927SOL    HW252621  10.696   6.893   3.244
16928SOL     OW52622   2.242  11.338   8.764
16928SOL    HW152623   2.284  11.278   8.703
16928SOL    HW252624   2.153  11.349   8.730
16929SOL     OW52625   8.859  11.548  13.498
16929SOL    HW152626   8.914  11.536  13.576
16929SOL    HW252627   8.784  11.489  13.512
16930SOL     OW52628   8.997   3.444  11.518
16930SOL    HW152629   8.943   3.460  11.596
16930SOL    HW252630   9.082   3.483  11.539
16931SOL     OW52631  13.353   7.323   5.737
16931SOL    HW152632  13.394   7.409   5.728
16931SOL    HW252633  13.411   7.264   5.688
16932SOL     OW52634   3.932   3.628   7.531
16932SOL    HW152635   3.944   3.540   7.569
16932SOL    HW252636   3.993   3.631   7.458
16933SOL     OW52637   3.719   8.762   4.759
16933SOL    HW152638   3.625   8.773   4.770
16933SOL    HW252639   3.739   8.677   4.799
16934SOL     OW52640   4.466   8.960   6.102
16934SOL    HW152641   4.426   9.010   6.173
16934SOL    HW252642   4.553   8.998   6.092
16935SOL     OW52643  13.624   2.093  11.485
16935SOL    HW152644  13.719   2.094  11.476
16935SOL    HW252645  13.594   2.168  11.434
16936SOL     OW52646   1.108   9.147   8.803
16936SOL    HW152647   1.083   9.188   8.886
16936SOL    HW252648   1.025   9.119   8.764
16937SOL     OW52649   8.818  12.573   8.706
16937SOL    HW152650   8.893  12.567   8.648
16937SOL    HW252651   8.743  12.585   8.648
16938SOL     OW52652   2.738   1.388  13.713
16938SOL    HW152653   2.758   1.309  13.763
16938SOL    HW252654   2.824   1.422  13.688
16939SOL     OW52655   4.661   1.176  14.461
16939SOL    HW152656   4.719   1.167  14.386
16939SOL    HW252657   4.691   1.256  14.506
16940SOL     OW52658   4.542   9.607  10.492
16940SOL    HW152659   4.622   9.591  10.442
16940SOL    HW252660   4.571   9.613  10.583
16941SOL     OW52661  14.402   7.079  10.819
16941SOL    HW152662  14.362   7.166  10.811
16941SOL    HW252663  14.477   7.081  10.759
16942SOL     OW52664  12.505   3.923   2.431
16942SOL    HW152665  12.570   3.883   2.489
16942SOL    HW252666  12.553   3.945   2.352
16943SOL     OW52667   7.192  13.192  10.942
16943SOL    HW152668   7.173  13.261  11.005
16943SOL    HW252669   7.226  13.237  10.866
16944SOL     OW52670   2.632   2.895   4.605
16944SOL    HW152671   2.728   2.903   4.605
16944SOL    HW252672   2.606   2.919   4.694
16945SOL     OW52673   0.973  11.971   1.746
16945SOL    HW152674   1.042  12.030   1.716
16945SOL    HW252675   1.012  11.924   1.820
16946SOL     OW52676  13.662  14.402  11.657
16946SOL    HW152677  13.637  14.312  11.676
16946SOL    HW252678  13.668  14.406  11.562
16947SOL     OW52679  10.798   5.120   7.951
16947SOL    HW152680  10.749   5.129   7.870
16947SOL    HW252681  10.840   5.034   7.945
16948SOL     OW52682   4.799   6.319   0.865
16948SOL    HW152683   4.814   6.248   0.927
16948SOL    HW252684   4.799   6.398   0.918
16949SOL     OW52685  11.948   6.743  12.785
16949SOL    HW152686  12.041   6.720  12.779
16949SOL    HW252687  11.910   6.676  12.840
16950SOL     OW52688   1.627   8.615  10.083
16950SOL    HW152689   1.625   8.702  10.042
16950SOL    HW252690   1.612   8.632  10.176
16951SOL     OW52691   7.982  11.937   4.012
16951SOL    HW152692   7.895  11.955   4.046
16951SOL    HW252693   7.980  11.844   3.989
16952SOL     OW52694  14.847  11.550   5.153
16952SOL    HW152695  14.853  11.539   5.059
16952SOL    HW252696   0.031  11.622   5.173
16953SOL     OW52697   0.924   6.233  14.735
16953SOL    HW152698   0.982   6.171  14.779
16953SOL    HW252699   0.941   6.220  14.641
16954SOL     OW52700   6.056   1.118   6.217
16954SOL    HW152701   5.992   1.110   6.146
16954SOL    HW252702   6.005   1.149   6.292
16955SOL     OW52703   2.630   4.429   6.595
16955SOL    HW152704   2.631   4.524   6.584
16955SOL    HW252705   2.673   4.395   6.517
16956SOL     OW52706  14.750   1.592  11.633
16956SOL    HW152707  14.799   1.542  11.698
16956SOL    HW252708  14.658   1.568  11.649
16957SOL     OW52709   0.284   2.004   9.156
16957SOL    HW152710   0.226   2.046   9.092
16957SOL    HW252711   0.303   1.918   9.118
16958SOL     OW52712   9.464   8.759  10.022
16958SOL    HW152713   9.416   8.829  10.068
16958SOL    HW252714   9.555   8.788  10.023
16959SOL     OW52715   0.049   2.938  14.749
16959SOL    HW152716   0.032   3.011  14.809
16959SOL    HW252717   0.011   2.862  14.792
16960SOL     OW52718   2.478   7.219   7.773
16960SOL    HW152719   2.546   7.203   7.838
16960SOL    HW252720   2.503   7.301   7.732
16961SOL     OW52721  12.630   0.787   9.099
16961SOL    HW152722  12.725   0.789   9.089
16961SOL    HW252723  12.615   0.807   9.191
16962SOL     OW52724  10.248  12.888  11.403
16962SOL    HW152725  10.338  12.893  11.434
16962SOL    HW252726  10.212  12.810  11.444
16963SOL     OW52727  12.647  10.875   8.863
16963SOL    HW152728  12.709  10.804   8.879
16963SOL    HW252729  12.695  10.954   8.888
16964SOL     OW52730   7.853   1.494   1.063
16964SOL    HW152731   7.779   1.550   1.039
16964SOL    HW252732   7.877   1.450   0.981
16965SOL     OW52733   3.964   8.719   1.301
16965SOL    HW152734   3.915   8.801   1.309
16965SOL    HW252735   3.947   8.673   1.383
16966SOL     OW52736   2.957   1.270   0.742
16966SOL    HW152737   2.878   1.305   0.785
16966SOL    HW252738   2.924   1.226   0.664
16967SOL     OW52739   2.433   1.831  13.165
16967SOL    HW152740   2.514   1.830  13.114
16967SOL    HW252741   2.452   1.778  13.242
16968SOL     OW52742   0.964  14.525  14.438
16968SOL    HW152743   1.036  14.474  14.476
16968SOL    HW252744   0.961  14.498  14.346
16969SOL     OW52745   0.651   7.690   9.121
16969SOL    HW152746   0.702   7.685   9.202
16969SOL    HW252747   0.711   7.727   9.057
16970SOL     OW52748  14.821  10.680   5.551
16970SOL    HW152749  14.767  10.626   5.493
16970SOL    HW252750   0.033  10.644   5.541
16971SOL     OW52751   1.810   3.800  12.062
16971SOL    HW152752   1.845   3.863  12.125
16971SOL    HW252753   1.792   3.721  12.113
16972SOL     OW52754   0.317  12.815  12.917
16972SOL    HW152755   0.410  12.831  12.904
16972SOL    HW252756   0.296  12.743  12.858
16973SOL     OW52757   9.677   3.668   9.849
16973SOL    HW152758   9.623   3.660   9.770
16973SOL    HW252759   9.643   3.745   9.894
16974SOL     OW52760  13.989  10.433   4.876
16974SOL    HW152761  14.011  10.526   4.868
16974SOL    HW252762  13.911  10.432   4.931
16975SOL     OW52763   5.853   6.571   8.261
16975SOL    HW152764   5.770   6.582   8.215
16975SOL    HW252765   5.912   6.536   8.195
16976SOL     OW52766  12.693   6.315   3.334
16976SOL    HW152767  12.636   6.279   3.266
16976SOL    HW252768  12.748   6.241   3.360
16977SOL     OW52769   9.377   5.461  12.321
16977SOL    HW152770   9.369   5.467  12.416
16977SOL    HW252771   9.397   5.551  12.293
16978SOL     OW52772  11.667  10.580  12.400
16978SOL    HW152773  11.660  10.517  12.472
16978SOL    HW252774  11.580  10.621  12.395
16979SOL     OW52775   2.176   9.623   8.149
16979SOL    HW152776   2.227   9.548   8.118
16979SOL    HW252777   2.110   9.636   8.082
16980SOL     OW52778   6.418   7.756   7.655
16980SOL    HW152779   6.368   7.818   7.709
16980SOL    HW252780   6.381   7.765   7.567
16981SOL     OW52781   4.478   1.038   4.747
16981SOL    HW152782   4.552   1.017   4.690
16981SOL    HW252783   4.443   0.953   4.774
16982SOL     OW52784  13.504   6.410   8.768
16982SOL    HW152785  13.555   6.446   8.696
16982SOL    HW252786  13.490   6.318   8.744
16983SOL     OW52787   3.158   3.603   5.409
16983SOL    HW152788   3.106   3.656   5.348
16983SOL    HW252789   3.245   3.599   5.369
16984SOL     OW52790  12.294  13.521   1.394
16984SOL    HW152791  12.272  13.452   1.331
16984SOL    HW252792  12.321  13.595   1.341
16985SOL     OW52793   0.485  12.862   9.714
16985SOL    HW152794   0.562  12.910   9.743
16985SOL    HW252795   0.483  12.875   9.619
16986SOL     OW52796  14.337  11.448  13.170
16986SOL    HW152797  14.251  11.430  13.208
16986SOL    HW252798  14.371  11.362  13.146
16987SOL     OW52799   0.377   5.528   4.965
16987SOL    HW152800   0.436   5.476   5.020
16987SOL    HW252801   0.404   5.619   4.980
16988SOL     OW52802  13.314   9.942  14.452
16988SOL    HW152803  13.349   9.925  14.364
16988SOL    HW252804  13.374   9.896  14.510
16989SOL     OW52805   0.446   9.763   6.442
16989SOL    HW152806   0.444   9.851   6.405
16989SOL    HW252807   0.360   9.726   6.422
16990SOL     OW52808  13.118   9.372   1.665
16990SOL    HW152809  13.059   9.297   1.673
16990SOL    HW252810  13.085   9.422   1.591
16991SOL     OW52811   7.335  12.374  10.663
16991SOL    HW152812   7.419  12.417  10.678
16991SOL    HW252813   7.327  12.369  10.568
16992SOL     OW52814  11.079   1.220   0.668
16992SOL    HW152815  11.045   1.273   0.740
16992SOL    HW252816  11.173   1.211   0.687
16993SOL     OW52817   6.106   3.087  10.403
16993SOL    HW152818   6.129   3.036  10.326
16993SOL    HW252819   6.102   3.177  10.371
16994SOL     OW52820   3.791  14.458  12.577
16994SOL    HW152821   3.878  14.442  12.614
16994SOL    HW252822   3.761  14.538  12.620
16995SOL     OW52823   8.615   5.856  13.112
16995SOL    HW152824   8.681   5.909  13.157
16995SOL    HW252825   8.565   5.815  13.182
16996SOL     OW52826  14.730  13.224  10.209
16996SOL    HW152827  14.724  13.160  10.138
16996SOL    HW252828  14.679  13.299  10.178
16997SOL     OW52829   4.910  10.015   6.848
16997SOL    HW152830   4.879  10.051   6.931
16997SOL    HW252831   4.997  10.053   6.836
16998SOL     OW52832  10.614   7.896   3.750
16998SOL    HW152833  10.602   7.960   3.679
16998SOL    HW252834  10.557   7.928   3.820
16999SOL     OW52835  12.236   9.596  13.371
16999SOL    HW152836  12.183   9.543  13.312
16999SOL    HW252837  12.317   9.546  13.383
17000SOL     OW52838   4.564   1.041  13.701
17000SOL    HW152839   4.643   1.074  13.657
17000SOL    HW252840   4.560   1.090  13.783
17001SOL     OW52841   0.028   8.359   6.909
17001SOL    HW152842   0.023   8.418   6.834
17001SOL    HW252843   0.058   8.276   6.871
17002SOL     OW52844  11.432   5.973   8.142
17002SOL    HW152845  11.411   6.045   8.202
17002SOL    HW252846  11.351   5.958   8.093
17003SOL     OW52847   0.547  12.880  12.092
17003SOL    HW152848   0.487  12.810  12.121
17003SOL    HW252849   0.599  12.900  12.169
17004SOL     OW52850   0.528   4.523   7.801
17004SOL    HW152851   0.571   4.532   7.886
17004SOL    HW252852   0.445   4.569   7.810
17005SOL     OW52853   8.954   2.776   2.149
17005SOL    HW152854   8.959   2.683   2.172
17005SOL    HW252855   8.987   2.822   2.226
17006SOL     OW52856  12.815   1.453   2.763
17006SOL    HW152857  12.814   1.465   2.668
17006SOL    HW252858  12.741   1.395   2.781
17007SOL     OW52859  11.296   9.155  12.560
17007SOL    HW152860  11.363   9.178  12.496
17007SOL    HW252861  11.219   9.205  12.531
17008SOL     OW52862   0.480   3.739   6.215
17008SOL    HW152863   0.494   3.659   6.164
17008SOL    HW252864   0.540   3.803   6.176
17009SOL     OW52865   4.500  13.222   5.111
17009SOL    HW152866   4.470  13.292   5.054
17009SOL    HW252867   4.449  13.231   5.191
17010SOL     OW52868   9.476   7.709   7.752
17010SOL    HW152869   9.405   7.724   7.689
17010SOL    HW252870   9.456   7.767   7.825
17011SOL     OW52871   6.339   6.879   8.882
17011SOL    HW152872   6.389   6.812   8.928
17011SOL    HW252873   6.366   6.961   8.922
17012SOL     OW52874  14.691   8.297  11.829
17012SOL    HW152875  14.610   8.348  11.824
17012SOL    HW252876  14.734   8.312  11.745
17013SOL     OW52877  14.401   5.556   7.490
17013SOL    HW152878  14.317   5.574   7.447
17013SOL    HW252879  14.435   5.479   7.445
17014SOL     OW52880   6.862   3.184   1.250
17014SOL    HW152881   6.815   3.232   1.317
17014SOL    HW252882   6.932   3.243   1.222
17015SOL     OW52883   0.302   0.871   0.032
17015SOL    HW152884   0.359   0.808   0.075
17015SOL    HW252885   0.280   0.830  14.825
17016SOL     OW52886   2.933   2.346  12.811
17016SOL    HW152887   2.941   2.440  12.830
17016SOL    HW252888   2.999   2.329  12.743
17017SOL     OW52889   8.631   2.219   7.452
17017SOL    HW152890   8.671   2.273   7.384
17017SOL    HW252891   8.691   2.145   7.463
17018SOL     OW52892   4.809   9.699   5.738
17018SOL    HW152893   4.857   9.750   5.672
17018SOL    HW252894   4.863   9.622   5.752
17019SOL     OW52895   5.844   1.952  13.415
17019SOL    HW152896   5.848   2.021  13.481
17019SOL    HW252897   5.765   1.902  13.438
17020SOL     OW52898   4.160  12.609   5.979
17020SOL    HW152899   4.212  12.596   5.901
17020SOL    HW252900   4.152  12.705   5.987
17021SOL     OW52901  12.648   8.117   5.404
17021SOL    HW152902  12.673   8.134   5.313
17021SOL    HW252903  12.554   8.104   5.401
17022SOL     OW52904  13.686   5.876   2.192
17022SOL    HW152905  13.598   5.842   2.207
17022SOL    HW252906  13.672   5.960   2.150
17023SOL     OW52907   3.897   9.895  11.128
17023SOL    HW152908   3.830   9.960  11.108
17023SOL    HW252909   3.853   9.832  11.185
17024SOL     OW52910  11.137   5.210   8.532
17024SOL    HW152911  11.170   5.124   8.558
17024SOL    HW252912  11.137   5.261   8.613
17025SOL     OW52913  12.302   4.961   6.742
17025SOL    HW152914  12.284   4.868   6.759
17025SOL    HW252915  12.220   5.005   6.765
17026SOL     OW52916   7.286   1.355  10.581
17026SOL    HW152917   7.352   1.293  10.552
17026SOL    HW252918   7.323   1.396  10.659
17027SOL     OW52919  10.381  10.989   6.800
17027SOL    HW152920  10.351  11.045   6.729
17027SOL    HW252921  10.305  10.935   6.822
17028SOL     OW52922   6.158   5.274  11.362
17028SOL    HW152923   6.150   5.337  11.290
17028SOL    HW252924   6.158   5.188  11.318
17029SOL     OW52925  13.643  12.578   9.466
17029SOL    HW152926  13.671  12.663   9.499
17029SOL    HW252927  13.665  12.579   9.373
17030SOL     OW52928   0.376   7.012  10.720
17030SOL    HW152929   0.414   6.927  10.698
17030SOL    HW252930   0.418   7.073  10.660
17031SOL     OW52931   7.124   7.968   6.161
17031SOL    HW152932   7.057   8.035   6.151
17031SOL    HW252933   7.075   7.885   6.161
17032SOL     OW52934  11.543  11.410   7.164
17032SOL    HW152935  11.512  11.494   7.197
17032SOL    HW252936  11.469  11.374   7.116
17033SOL     OW52937  12.898   1.245   7.817
17033SOL    HW152938  12.871   1.267   7.728
17033SOL    HW252939  12.990   1.221   7.810
17034SOL     OW52940   3.773   6.850  14.014
17034SOL    HW152941   3.681   6.872  14.027
17034SOL    HW252942   3.820   6.916  14.065
17035SOL     OW52943  10.326   9.378   0.849
17035SOL    HW152944  10.271   9.329   0.789
17035SOL    HW252945  10.281   9.374   0.933
17036SOL     OW52946   5.983   4.712   4.670
17036SOL    HW152947   5.893   4.683   4.655
17036SOL    HW252948   5.991   4.794   4.622
17037SOL     OW52949   8.791  14.152   8.499
17037SOL    HW152950   8.782  14.220   8.433
17037SOL    HW252951   8.829  14.078   8.452
17038SOL     OW52952  14.437   3.727   8.377
17038SOL    HW152953  14.455   3.636   8.397
17038SOL    HW252954  14.413   3.766   8.461
17039SOL     OW52955  10.525  11.544   2.231
17039SOL    HW152956  10.616  11.563   2.207
17039SOL    HW252957  10.520  11.563   2.325
17040SOL     OW52958   2.499  13.019   5.921
17040SOL    HW152959   2.475  13.066   6.001
17040SOL    HW252960   2.427  12.958   5.906
17041SOL     OW52961   9.281   0.279   7.049
17041SOL    HW152962   9.334   0.228   7.110
17041SOL    HW252963   9.337   0.290   6.972
17042SOL     OW52964   8.133   4.662   9.494
17042SOL    HW152965   8.175   4.593   9.443
17042SOL    HW252966   8.196   4.684   9.562
17043SOL     OW52967   3.904   4.493  11.501
17043SOL    HW152968   3.985   4.454  11.534
17043SOL    HW252969   3.915   4.495  11.406
17044SOL     OW52970   9.114   0.924   4.759
17044SOL    HW152971   9.104   0.879   4.675
17044SOL    HW252972   9.162   1.004   4.737
17045SOL     OW52973   6.575   6.826   3.031
17045SOL    HW152974   6.590   6.877   2.951
17045SOL    HW252975   6.490   6.784   3.018
17046SOL     OW52976   5.841  10.144  12.228
17046SOL    HW152977   5.831  10.057  12.191
17046SOL    HW252978   5.751  10.173  12.247
17047SOL     OW52979   2.129   2.451   6.138
17047SOL    HW152980   2.120   2.514   6.067
17047SOL    HW252981   2.042   2.413   6.148
17048SOL     OW52982  14.264   2.158  14.643
17048SOL    HW152983  14.351   2.174  14.606
17048SOL    HW252984  14.247   2.235  14.697
17049SOL     OW52985  14.456   1.098  11.374
17049SOL    HW152986  14.542   1.133  11.350
17049SOL    HW252987  14.412   1.084  11.291
17050SOL     OW52988   8.082   3.802   0.285
17050SOL    HW152989   7.995   3.761   0.286
17050SOL    HW252990   8.117   3.785   0.372
17051SOL     OW52991  13.012  10.780  14.631
17051SOL    HW152992  12.940  10.825  14.586
17051SOL    HW252993  12.979  10.693  14.649
17052SOL     OW52994  12.550   8.277   9.282
17052SOL    HW152995  12.475   8.324   9.247
17052SOL    HW252996  12.535   8.275   9.377
17053SOL     OW52997   4.058  14.682   2.284
17053SOL    HW152998   3.975  14.636   2.286
17053SOL    HW252999   4.122  14.619   2.318
17054SOL     OW53000   8.780   5.933  10.467
17054SOL    HW153001   8.766   5.843  10.438
17054SOL    HW253002   8.694   5.960  10.500
17055SOL     OW53003   6.533   0.436   3.503
17055SOL    HW153004   6.504   0.353   3.466
17055SOL    HW253005   6.628   0.430   3.503
17056SOL     OW53006   1.559   1.812   6.968
17056SOL    HW153007   1.569   1.795   6.874
17056SOL    HW253008   1.543   1.906   6.973
17057SOL     OW53009   1.546   8.936   6.153
17057SOL    HW153010   1.451   8.928   6.167
17057SOL    HW253011   1.563   9.030   6.156
17058SOL     OW53012   1.150  13.397  10.436
17058SOL    HW153013   1.106  13.313  10.419
17058SOL    HW253014   1.087  13.447  10.488
17059SOL     OW53015   2.344  11.523   2.020
17059SOL    HW153016   2.357  11.568   2.104
17059SOL    HW253017   2.371  11.433   2.037
17060SOL     OW53018  12.412   6.483   1.286
17060SOL    HW153019  12.360   6.436   1.352
17060SOL    HW253020  12.354   6.492   1.211
17061SOL     OW53021   4.487  14.228  10.944
17061SOL    HW153022   4.438  14.272  10.875
17061SOL    HW253023   4.453  14.266  11.025
17062SOL     OW53024   5.974   4.386   5.591
17062SOL    HW153025   5.950   4.386   5.683
17062SOL    HW253026   6.024   4.467   5.579
17063SOL     OW53027  13.307   8.987   1.332
17063SOL    HW153028  13.320   9.080   1.348
17063SOL    HW253029  13.386   8.946   1.365
17064SOL     OW53030   7.528  12.646   8.203
17064SOL    HW153031   7.485  12.561   8.196
17064SOL    HW253032   7.474  12.694   8.266
17065SOL     OW53033   9.251   4.825   9.746
17065SOL    HW153034   9.168   4.872   9.754
17065SOL    HW253035   9.229   4.735   9.772
17066SOL     OW53036   3.722  12.683  13.835
17066SOL    HW153037   3.672  12.658  13.912
17066SOL    HW253038   3.813  12.666  13.858
17067SOL     OW53039   0.306  10.600   6.933
17067SOL    HW153040   0.323  10.586   7.026
17067SOL    HW253041   0.312  10.695   6.922
17068SOL     OW53042   3.391  11.514   9.084
17068SOL    HW153043   3.368  11.524   8.992
17068SOL    HW253044   3.410  11.603   9.114
17069SOL     OW53045   3.181  13.392  12.025
17069SOL    HW153046   3.215  13.477  12.054
17069SOL    HW253047   3.251  13.356  11.970
17070SOL     OW53048   6.117   6.333   7.669
17070SOL    HW153049   6.151   6.310   7.583
17070SOL    HW253050   6.191   6.373   7.714
17071SOL     OW53051  11.638  11.121   0.556
17071SOL    HW153052  11.682  11.195   0.597
17071SOL    HW253053  11.600  11.157   0.476
17072SOL     OW53054   4.408   4.647  14.211
17072SOL    HW153055   4.352   4.689  14.276
17072SOL    HW253056   4.425   4.716  14.146
17073SOL     OW53057   6.978   9.430   5.538
17073SOL    HW153058   6.968   9.490   5.612
17073SOL    HW253059   6.943   9.478   5.463
17074SOL     OW53060  14.614  13.659  12.168
17074SOL    HW153061  14.527  13.671  12.130
17074SOL    HW253062  14.674  13.686  12.099
17075SOL     OW53063   4.651   2.863   0.039
17075SOL    HW153064   4.670   2.770   0.036
17075SOL    HW253065   4.716   2.902  14.856
17076SOL     OW53066  12.802  13.379  13.626
17076SOL    HW153067  12.822  13.362  13.718
17076SOL    HW253068  12.774  13.295  13.591
17077SOL     OW53069  11.167  13.847   7.928
17077SOL    HW153070  11.241  13.850   7.869
17077SOL    HW253071  11.183  13.770   7.983
17078SOL     OW53072   5.956   1.145   0.121
17078SOL    HW153073   5.894   1.075   0.101
17078SOL    HW253074   6.042   1.103   0.119
17079SOL     OW53075   8.469   2.962   5.947
17079SOL    HW153076   8.420   3.012   6.012
17079SOL    HW253077   8.447   2.871   5.964
17080SOL     OW53078   3.762  12.277  12.304
17080SOL    HW153079   3.674  12.315  12.312
17080SOL    HW253080   3.796  12.314  12.223
17081SOL     OW53081   5.812  13.446   4.520
17081SOL    HW153082   5.897  13.484   4.496
17081SOL    HW253083   5.830  13.394   4.599
17082SOL     OW53084  14.528   9.256  11.639
17082SOL    HW153085  14.555   9.168  11.665
17082SOL    HW253086  14.591   9.314  11.682
17083SOL     OW53087   5.337   1.240   4.410
17083SOL    HW153088   5.344   1.148   4.386
17083SOL    HW253089   5.409   1.254   4.472
17084SOL     OW53090   5.805   1.893   3.584
17084SOL    HW153091   5.726   1.841   3.572
17084SOL    HW253092   5.787   1.976   3.539
17085SOL     OW53093   4.574   5.581   4.280
17085SOL    HW153094   4.643   5.530   4.237
17085SOL    HW253095   4.529   5.519   4.337
17086SOL     OW53096   0.191   7.783  11.182
17086SOL    HW153097   0.237   7.829  11.252
17086SOL    HW253098   0.261   7.748  11.126
17087SOL     OW53099   9.768  11.571  13.936
17087SOL    HW153100   9.764  11.591  14.030
17087SOL    HW253101   9.801  11.652  13.896
17088SOL     OW53102   3.944   5.899   7.713
17088SOL    HW153103   4.010   5.959   7.678
17088SOL    HW253104   3.897   5.867   7.636
17089SOL     OW53105  10.266   1.446   1.950
17089SOL    HW153106  10.298   1.491   1.872
17089SOL    HW253107  10.174   1.473   1.957
17090SOL     OW53108   5.112  10.851   5.444
17090SOL    HW153109   5.025  10.835   5.406
17090SOL    HW253110   5.125  10.945   5.437
17091SOL     OW53111   5.262   8.463   5.258
17091SOL    HW153112   5.172   8.451   5.288
17091SOL    HW253113   5.283   8.383   5.209
17092SOL     OW53114  10.497   6.069  11.791
17092SOL    HW153115  10.544   6.017  11.727
17092SOL    HW253116  10.554   6.145  11.807
17093SOL     OW53117   8.347   1.995   0.155
17093SOL    HW153118   8.399   2.048   0.216
17093SOL    HW253119   8.274   2.051   0.130
17094SOL     OW53120   7.713   1.551  14.252
17094SOL    HW153121   7.752   1.564  14.166
17094SOL    HW253122   7.758   1.613  14.309
17095SOL     OW53123   9.079   0.265  13.712
17095SOL    HW153124   9.004   0.269  13.770
17095SOL    HW253125   9.126   0.347  13.729
17096SOL     OW53126   1.764   3.919   7.174
17096SOL    HW153127   1.724   3.962   7.250
17096SOL    HW253128   1.740   3.974   7.100
17097SOL     OW53129   3.097   0.749   7.895
17097SOL    HW153130   3.003   0.763   7.910
17097SOL    HW253131   3.126   0.701   7.973
17098SOL     OW53132  14.200   4.913   9.934
17098SOL    HW153133  14.177   4.927  10.026
17098SOL    HW253134  14.229   4.822   9.930
17099SOL     OW53135  14.371   5.246  12.361
17099SOL    HW153136  14.278   5.241  12.382
17099SOL    HW253137  14.411   5.174  12.410
17100SOL     OW53138   7.643   6.734   0.406
17100SOL    HW153139   7.575   6.725   0.338
17100SOL    HW253140   7.596   6.726   0.488
17101SOL     OW53141   4.726   8.470   8.486
17101SOL    HW153142   4.815   8.446   8.462
17101SOL    HW253143   4.685   8.387   8.514
17102SOL     OW53144   0.998   3.165   3.579
17102SOL    HW153145   0.984   3.255   3.607
17102SOL    HW253146   1.065   3.131   3.638
17103SOL     OW53147   7.614   6.725  12.810
17103SOL    HW153148   7.613   6.735  12.715
17103SOL    HW253149   7.706   6.733  12.834
17104SOL     OW53150   3.016   9.041   4.249
17104SOL    HW153151   3.026   9.118   4.305
17104SOL    HW253152   3.095   9.041   4.195
17105SOL     OW53153   6.146   8.026   3.621
17105SOL    HW153154   6.237   8.013   3.596
17105SOL    HW253155   6.151   8.062   3.710
17106SOL     OW53156   8.297   9.074  11.163
17106SOL    HW153157   8.300   9.156  11.213
17106SOL    HW253158   8.206   9.065  11.137
17107SOL     OW53159  13.167  11.902   8.108
17107SOL    HW153160  13.081  11.894   8.068
17107SOL    HW253161  13.225  11.848   8.054
17108SOL     OW53162   7.218  14.848  14.060
17108SOL    HW153163   7.212   0.020  14.142
17108SOL    HW253164   7.282  14.779  14.077
17109SOL     OW53165   4.717   2.576   8.786
17109SOL    HW153166   4.659   2.651   8.777
17109SOL    HW253167   4.683   2.527   8.860
17110SOL     OW53168  10.466   6.455   3.228
17110SOL    HW153169  10.560   6.464   3.215
17110SOL    HW253170  10.441   6.381   3.173
17111SOL     OW53171  14.430   5.084   1.518
17111SOL    HW153172  14.474   5.035   1.448
17111SOL    HW253173  14.430   5.024   1.592
17112SOL     OW53174  14.197   2.244   0.490
17112SOL    HW153175  14.176   2.159   0.451
17112SOL    HW253176  14.115   2.294   0.483
17113SOL     OW53177   7.379  13.774   8.356
17113SOL    HW153178   7.460  13.826   8.356
17113SOL    HW253179   7.397  13.702   8.296
17114SOL     OW53180   2.891  14.631   6.519
17114SOL    HW153181   2.902  14.726   6.514
17114SOL    HW253182   2.930  14.606   6.602
17115SOL     OW53183   4.232  10.455  14.796
17115SOL    HW153184   4.217  10.467  14.703
17115SOL    HW253185   4.247  10.361  14.806
17116SOL     OW53186  11.556  13.862  11.076
17116SOL    HW153187  11.585  13.897  11.160
17116SOL    HW253188  11.554  13.938  11.018
17117SOL     OW53189   1.947   5.893   9.472
17117SOL    HW153190   1.943   5.878   9.567
17117SOL    HW253191   2.022   5.842   9.443
17118SOL     OW53192   6.510   2.804   2.832
17118SOL    HW153193   6.466   2.884   2.861
17118SOL    HW253194   6.544   2.826   2.745
17119SOL     OW53195   5.260   7.130   5.015
17119SOL    HW153196   5.310   7.105   4.937
17119SOL    HW253197   5.326   7.140   5.083
17120SOL     OW53198   4.196   9.406   0.856
17120SOL    HW153199   4.273   9.403   0.801
17120SOL    HW253200   4.137   9.467   0.812
17121SOL     OW53201  13.504   3.680   5.474
17121SOL    HW153202  13.440   3.629   5.523
17121SOL    HW253203  13.559   3.616   5.430
17122SOL     OW53204   0.647   2.564  11.792
17122SOL    HW153205   0.657   2.645  11.742
17122SOL    HW253206   0.553   2.554  11.802
17123SOL     OW53207   7.190   7.276   8.841
17123SOL    HW153208   7.217   7.256   8.752
17123SOL    HW253209   7.209   7.196   8.891
17124SOL     OW53210   7.274   4.329   1.737
17124SOL    HW153211   7.257   4.256   1.677
17124SOL    HW253212   7.260   4.408   1.684
17125SOL     OW53213  10.381  11.061  12.224
17125SOL    HW153214  10.318  11.101  12.283
17125SOL    HW253215  10.440  11.132  12.199
17126SOL     OW53216  14.653   2.184   2.546
17126SOL    HW153217  14.709   2.261   2.553
17126SOL    HW253218  14.711   2.110   2.567
17127SOL     OW53219  11.218  10.191  11.279
17127SOL    HW153220  11.209  10.162  11.188
17127SOL    HW253221  11.304  10.232  11.283
17128SOL     OW53222  14.522   6.129  11.721
17128SOL    HW153223  14.609   6.166  11.733
17128SOL    HW253224  14.472   6.197  11.677
17129SOL     OW53225   8.963   7.499  12.440
17129SOL    HW153226   8.900   7.468  12.505
17129SOL    HW253227   9.040   7.525  12.492
17130SOL     OW53228   2.817  10.221   7.271
17130SOL    HW153229   2.836  10.250   7.360
17130SOL    HW253230   2.741  10.272   7.245
17131SOL     OW53231   0.438  11.884  11.073
17131SOL    HW153232   0.446  11.929  11.157
17131SOL    HW253233   0.522  11.899  11.030
17132SOL     OW53234   0.831  14.329   7.433
17132SOL    HW153235   0.752  14.306   7.383
17132SOL    HW253236   0.810  14.305   7.523
17133SOL     OW53237  13.266   1.311   7.006
17133SOL    HW153238  13.183   1.278   7.039
17133SOL    HW253239  13.329   1.289   7.074
17134SOL     OW53240  12.979   5.559   3.345
17134SOL    HW153241  13.019   5.541   3.260
17134SOL    HW253242  13.027   5.503   3.407
17135SOL     OW53243  10.715   8.848   3.511
17135SOL    HW153244  10.791   8.877   3.460
17135SOL    HW253245  10.735   8.875   3.600
17136SOL     OW53246   6.285   0.743   0.641
17136SOL    HW153247   6.374   0.727   0.671
17136SOL    HW253248   6.273   0.683   0.567
17137SOL     OW53249   7.755   1.724   4.701
17137SOL    HW153250   7.808   1.772   4.765
17137SOL    HW253251   7.799   1.740   4.617
17138SOL     OW53252   0.412  14.147   0.240
17138SOL    HW153253   0.368  14.086   0.181
17138SOL    HW253254   0.345  14.212   0.261
17139SOL     OW53255   3.235   7.851   6.789
17139SOL    HW153256   3.213   7.906   6.864
17139SOL    HW253257   3.180   7.773   6.799
17140SOL     OW53258  12.657  11.232   4.144
17140SOL    HW153259  12.609  11.198   4.069
17140SOL    HW253260  12.700  11.155   4.182
17141SOL     OW53261  12.655   6.910  13.926
17141SOL    HW153262  12.724   6.873  13.982
17141SOL    HW253263  12.597   6.956  13.987
17142SOL     OW53264   1.812  14.477   2.726
17142SOL    HW153265   1.762  14.479   2.808
17142SOL    HW253266   1.903  14.473   2.754
17143SOL     OW53267   4.800   2.487   8.088
17143SOL    HW153268   4.884   2.530   8.075
17143SOL    HW253269   4.739   2.557   8.111
17144SOL     OW53270  13.866   3.059   4.137
17144SOL    HW153271  13.846   3.056   4.044
17144SOL    HW253272  13.952   3.019   4.144
17145SOL     OW53273   0.506   2.817  12.805
17145SOL    HW153274   0.565   2.890  12.787
17145SOL    HW253275   0.542   2.776  12.884
17146SOL     OW53276  10.386  12.128   0.018
17146SOL    HW153277  10.424  12.200   0.066
17146SOL    HW253278  10.367  12.164  14.807
17147SOL     OW53279   2.178   6.282   7.867
17147SOL    HW153280   2.256   6.338   7.863
17147SOL    HW253281   2.204   6.210   7.925
17148SOL     OW53282  12.013   2.855  13.141
17148SOL    HW153283  12.067   2.828  13.067
17148SOL    HW253284  12.066   2.920  13.187
17149SOL     OW53285   6.945  13.579   8.484
17149SOL    HW153286   6.859  13.617   8.501
17149SOL    HW253287   6.926  13.491   8.452
17150SOL     OW53288   7.431   3.206  11.507
17150SOL    HW153289   7.414   3.136  11.571
17150SOL    HW253290   7.526   3.204  11.494
17151SOL     OW53291   0.280   4.603   6.636
17151SOL    HW153292   0.192   4.595   6.601
17151SOL    HW253293   0.277   4.683   6.690
17152SOL     OW53294   1.700  10.630   0.189
17152SOL    HW153295   1.751  10.687   0.245
17152SOL    HW253296   1.713  10.664   0.101
17153SOL     OW53297  13.686   5.588   0.777
17153SOL    HW153298  13.685   5.615   0.685
17153SOL    HW253299  13.746   5.650   0.819
17154SOL     OW53300   9.908  10.055   5.419
17154SOL    HW153301   9.917  10.009   5.503
17154SOL    HW253302   9.965  10.007   5.359
17155SOL     OW53303   1.839  13.706   1.353
17155SOL    HW153304   1.895  13.774   1.391
17155SOL    HW253305   1.900  13.637   1.328
17156SOL     OW53306  11.135   0.421   8.771
17156SOL    HW153307  11.068   0.354   8.782
17156SOL    HW253308  11.105   0.474   8.698
17157SOL     OW53309   0.281  11.677   4.727
17157SOL    HW153310   0.269  11.593   4.681
17157SOL    HW253311   0.192  11.712   4.736
17158SOL     OW53312  13.982  11.652   8.240
17158SOL    HW153313  14.026  11.735   8.222
17158SOL    HW253314  13.917  11.643   8.171
17159SOL     OW53315   2.953   4.464   5.673
17159SOL    HW153316   3.026   4.430   5.725
17159SOL    HW253317   2.982   4.550   5.645
17160SOL     OW53318   6.707   2.990   3.705
17160SOL    HW153319   6.705   3.083   3.729
17160SOL    HW253320   6.771   2.951   3.764
17161SOL     OW53321   4.926   1.180   9.296
17161SOL    HW153322   4.845   1.155   9.253
17161SOL    HW253323   4.964   1.247   9.240
17162SOL     OW53324  11.595   8.922   9.227
17162SOL    HW153325  11.578   8.993   9.166
17162SOL    HW253326  11.686   8.935   9.253
17163SOL     OW53327   6.320  10.647   3.264
17163SOL    HW153328   6.414  10.650   3.247
17163SOL    HW253329   6.280  10.687   3.186
17164SOL     OW53330  14.832   8.929   2.547
17164SOL    HW153331  14.781   8.848   2.544
17164SOL    HW253332  14.799   8.982   2.475
17165SOL     OW53333   4.505   2.803  12.195
17165SOL    HW153334   4.527   2.710  12.193
17165SOL    HW253335   4.410   2.806  12.191
17166SOL     OW53336  14.024   5.864  14.824
17166SOL    HW153337  14.110   5.875  14.864
17166SOL    HW253338  14.030   5.781  14.776
17167SOL     OW53339  11.774   4.724  10.072
17167SOL    HW153340  11.757   4.816  10.052
17167SOL    HW253341  11.850   4.701  10.018
17168SOL     OW53342   6.077  10.637   7.827
17168SOL    HW153343   6.053  10.607   7.915
17168SOL    HW253344   6.027  10.581   7.768
17169SOL     OW53345  12.090   4.738  12.403
17169SOL    HW153346  12.171   4.688  12.386
17169SOL    HW253347  12.066   4.774  12.317
17170SOL     OW53348   4.363   5.434   8.051
17170SOL    HW153349   4.407   5.369   8.107
17170SOL    HW253350   4.379   5.518   8.095
17171SOL     OW53351   9.818   4.582  11.368
17171SOL    HW153352   9.764   4.657  11.345
17171SOL    HW253353   9.756   4.518  11.403
17172SOL     OW53354   2.616   2.548  10.444
17172SOL    HW153355   2.551   2.484  10.416
17172SOL    HW253356   2.694   2.496  10.463
17173SOL     OW53357  10.343  13.687   5.732
17173SOL    HW153358  10.263  13.725   5.698
17173SOL    HW253359  10.400  13.679   5.656
17174SOL     OW53360   5.243  10.648   3.055
17174SOL    HW153361   5.247  10.656   2.960
17174SOL    HW253362   5.297  10.572   3.076
17175SOL     OW53363  13.317   3.816   7.307
17175SOL    HW153364  13.274   3.868   7.239
17175SOL    HW253365  13.275   3.843   7.389
17176SOL     OW53366  12.261  10.242   5.212
17176SOL    HW153367  12.239  10.239   5.118
17176SOL    HW253368  12.215  10.167   5.249
17177SOL     OW53369   3.883  10.581   4.533
17177SOL    HW153370   3.926  10.533   4.604
17177SOL    HW253371   3.883  10.520   4.459
17178SOL     OW53372   6.906  11.171   2.977
17178SOL    HW153373   6.884  11.251   3.025
17178SOL    HW253374   6.962  11.122   3.038
17179SOL     OW53375   3.837   0.036   9.766
17179SOL    HW153376   3.925   0.073   9.774
17179SOL    HW253377   3.800   0.078   9.689
17180SOL     OW53378  14.048   8.631   7.529
17180SOL    HW153379  14.131   8.603   7.567
17180SOL    HW253380  13.990   8.555   7.540
17181SOL     OW53381  11.210  12.710   4.059
17181SOL    HW153382  11.293  12.738   4.098
17181SOL    HW253383  11.226  12.621   4.030
17182SOL     OW53384   7.873   0.817  14.332
17182SOL    HW153385   7.923   0.867  14.267
17182SOL    HW253386   7.791   0.795  14.288
17183SOL     OW53387   9.843   3.461   6.361
17183SOL    HW153388   9.894   3.495   6.287
17183SOL    HW253389   9.838   3.534   6.423
17184SOL     OW53390   3.796  13.209   0.387
17184SOL    HW153391   3.718  13.159   0.410
17184SOL    HW253392   3.788  13.224   0.293
17185SOL     OW53393   3.318   6.033   2.738
17185SOL    HW153394   3.350   6.106   2.685
17185SOL    HW253395   3.236   6.007   2.695
17186SOL     OW53396  10.078  13.560   9.849
17186SOL    HW153397  10.087  13.642   9.899
17186SOL    HW253398  10.039  13.499   9.912
17187SOL     OW53399  14.030   2.372   4.280
17187SOL    HW153400  14.047   2.286   4.320
17187SOL    HW253401  14.003   2.427   4.354
17188SOL     OW53402  10.565  12.633   8.565
17188SOL    HW153403  10.492  12.577   8.542
17188SOL    HW253404  10.592  12.604   8.652
17189SOL     OW53405   5.809  13.838   0.669
17189SOL    HW153406   5.799  13.769   0.603
17189SOL    HW253407   5.725  13.841   0.714
17190SOL     OW53408   2.974   5.968  11.137
17190SOL    HW153409   2.994   5.967  11.231
17190SOL    HW253410   3.012   6.049  11.105
17191SOL     OW53411   4.463   1.927   7.137
17191SOL    HW153412   4.473   2.006   7.083
17191SOL    HW253413   4.466   1.855   7.074
17192SOL     OW53414  10.281  11.540  13.322
17192SOL    HW153415  10.198  11.544  13.275
17192SOL    HW253416  10.258  11.556  13.413
17193SOL     OW53417   2.646   8.282   9.045
17193SOL    HW153418   2.629   8.245   9.131
17193SOL    HW253419   2.573   8.342   9.029
17194SOL     OW53420   7.506   2.809   8.116
17194SOL    HW153421   7.461   2.807   8.201
17194SOL    HW253422   7.514   2.716   8.092
17195SOL     OW53423   1.705   4.792  12.371
17195SOL    HW153424   1.798   4.779  12.350
17195SOL    HW253425   1.668   4.704  12.375
17196SOL     OW53426   8.500   9.194   8.514
17196SOL    HW153427   8.465   9.158   8.433
17196SOL    HW253428   8.423   9.221   8.564
17197SOL     OW53429   4.000  13.687   5.726
17197SOL    HW153430   3.986  13.757   5.789
17197SOL    HW253431   4.001  13.607   5.779
17198SOL     OW53432   9.099   3.922   1.762
17198SOL    HW153433   9.080   3.852   1.825
17198SOL    HW253434   9.149   3.879   1.693
17199SOL     OW53435  12.012   9.668   6.319
17199SOL    HW153436  11.949   9.684   6.249
17199SOL    HW253437  12.026   9.573   6.317
17200SOL     OW53438   7.041   5.779   9.080
17200SOL    HW153439   6.976   5.840   9.045
17200SOL    HW253440   7.105   5.769   9.010
17201SOL     OW53441   3.057   6.165  10.157
17201SOL    HW153442   3.147   6.140  10.134
17201SOL    HW253443   3.019   6.193  10.074
17202SOL     OW53444   9.002   4.653  14.436
17202SOL    HW153445   8.991   4.745  14.413
17202SOL    HW253446   9.095   4.644  14.458
17203SOL     OW53447   4.335  12.698   9.225
17203SOL    HW153448   4.334  12.677   9.131
17203SOL    HW253449   4.301  12.619   9.267
17204SOL     OW53450  10.248  11.417  11.192
17204SOL    HW153451  10.290  11.432  11.107
17204SOL    HW253452  10.245  11.504  11.232
17205SOL     OW53453   6.954   8.241   0.039
17205SOL    HW153454   7.024   8.306   0.047
17205SOL    HW253455   6.979   8.188  14.840
17206SOL     OW53456  14.106   7.242   4.841
17206SOL    HW153457  14.142   7.228   4.929
17206SOL    HW253458  14.045   7.315   4.852
17207SOL     OW53459   9.905   5.568   0.264
17207SOL    HW153460   9.996   5.592   0.280
17207SOL    HW253461   9.895   5.481   0.303
17208SOL     OW53462   6.623   8.639   0.748
17208SOL    HW153463   6.609   8.622   0.655
17208SOL    HW253464   6.699   8.585   0.771
17209SOL     OW53465   6.363   0.929   8.360
17209SOL    HW153466   6.358   0.897   8.450
17209SOL    HW253467   6.423   0.868   8.316
17210SOL     OW53468  12.820   9.906   9.430
17210SOL    HW153469  12.769   9.889   9.509
17210SOL    HW253470  12.794   9.994   9.403
17211SOL     OW53471  10.962  14.419   8.741
17211SOL    HW153472  10.958  14.393   8.649
17211SOL    HW253473  11.041  14.376   8.775
17212SOL     OW53474   6.115   4.650  12.891
17212SOL    HW153475   6.025   4.674  12.915
17212SOL    HW253476   6.159   4.632  12.974
17213SOL     OW53477   2.033  10.642   2.815
17213SOL    HW153478   2.044  10.728   2.773
17213SOL    HW253479   2.046  10.659   2.908
17214SOL     OW53480   7.582  13.495   4.352
17214SOL    HW153481   7.671  13.475   4.381
17214SOL    HW253482   7.526  13.439   4.405
17215SOL     OW53483   5.608   9.381  14.743
17215SOL    HW153484   5.613   9.310  14.679
17215SOL    HW253485   5.689   9.374  14.794
17216SOL     OW53486   0.682   3.283  10.274
17216SOL    HW153487   0.678   3.220  10.202
17216SOL    HW253488   0.594   3.320  10.278
17217SOL     OW53489   4.864   7.413   4.139
17217SOL    HW153490   4.810   7.359   4.082
17217SOL    HW253491   4.821   7.407   4.225
17218SOL     OW53492   4.309   7.690   8.798
17218SOL    HW153493   4.257   7.621   8.757
17218SOL    HW253494   4.320   7.661   8.889
17219SOL     OW53495   6.044   8.307   3.552
17219SOL    HW153496   5.973   8.365   3.581
17219SOL    HW253497   6.045   8.237   3.618
17220SOL     OW53498  13.050  13.780  10.037
17220SOL    HW153499  13.117  13.732   9.988
17220SOL    HW253500  12.997  13.712  10.078
17221SOL     OW53501   3.829  11.524   5.805
17221SOL    HW153502   3.808  11.600   5.860
17221SOL    HW253503   3.795  11.547   5.719
17222SOL     OW53504   9.471   1.697   0.707
17222SOL    HW153505   9.501   1.777   0.749
17222SOL    HW253506   9.535   1.681   0.637
17223SOL     OW53507   1.870   0.419   7.038
17223SOL    HW153508   1.936   0.487   7.026
17223SOL    HW253509   1.813   0.427   6.961
17224SOL     OW53510   4.729  12.524   3.621
17224SOL    HW153511   4.778  12.582   3.680
17224SOL    HW253512   4.670  12.583   3.574
17225SOL     OW53513   3.839   0.707  14.066
17225SOL    HW153514   3.795   0.772  14.011
17225SOL    HW253515   3.905   0.668  14.009
17226SOL     OW53516   8.297   9.384   5.774
17226SOL    HW153517   8.208   9.383   5.808
17226SOL    HW253518   8.287   9.371   5.680
17227SOL     OW53519   8.544   6.104  11.825
17227SOL    HW153520   8.589   6.121  11.743
17227SOL    HW253521   8.607   6.128  11.893
17228SOL     OW53522  13.224   4.756   8.699
17228SOL    HW153523  13.229   4.815   8.774
17228SOL    HW253524  13.132   4.729   8.695
17229SOL     OW53525  14.328   1.213   3.116
17229SOL    HW153526  14.265   1.245   3.050
17229SOL    HW253527  14.397   1.171   3.064
17230SOL     OW53528  10.353   5.229   6.160
17230SOL    HW153529  10.410   5.299   6.128
17230SOL    HW253530  10.333   5.254   6.250
17231SOL     OW53531   5.274  12.906   8.047
17231SOL    HW153532   5.300  12.960   8.121
17231SOL    HW253533   5.323  12.825   8.058
17232SOL     OW53534   2.210  14.825  13.897
17232SOL    HW153535   2.197  14.858  13.986
17232SOL    HW253536   2.236   0.026  13.847
17233SOL     OW53537   4.259   4.868  10.062
17233SOL    HW153538   4.187   4.811  10.033
17233SOL    HW253539   4.293   4.906   9.981
17234SOL     OW53540   6.723   1.467   5.187
17234SOL    HW153541   6.685   1.479   5.100
17234SOL    HW253542   6.818   1.461   5.171
17235SOL     OW53543   7.530   3.930  14.396
17235SOL    HW153544   7.519   3.905  14.304
17235SOL    HW253545   7.593   3.866  14.431
17236SOL     OW53546   3.858  14.597  14.197
17236SOL    HW153547   3.930  14.535  14.203
17236SOL    HW253548   3.895  14.672  14.150
17237SOL     OW53549   9.554   7.034  10.999
17237SOL    HW153550   9.495   7.106  10.981
17237SOL    HW253551   9.497   6.959  11.017
17238SOL     OW53552  13.740  12.005   5.635
17238SOL    HW153553  13.740  11.945   5.710
17238SOL    HW253554  13.744  11.948   5.558
17239SOL     OW53555   3.423   4.862   2.267
17239SOL    HW153556   3.503   4.870   2.320
17239SOL    HW253557   3.406   4.951   2.236
17240SOL     OW53558  12.705   3.161   4.374
17240SOL    HW153559  12.704   3.222   4.448
17240SOL    HW253560  12.715   3.075   4.414
17241SOL     OW53561   0.195   4.933   1.323
17241SOL    HW153562   0.180   5.022   1.293
17241SOL    HW253563   0.116   4.885   1.296
17242SOL     OW53564   8.061   0.963  13.357
17242SOL    HW153565   8.019   1.047  13.373
17242SOL    HW253566   8.060   0.952  13.262
17243SOL     OW53567   9.940   8.464  12.701
17243SOL    HW153568  10.023   8.478  12.655
17243SOL    HW253569   9.966   8.443  12.791
17244SOL     OW53570   0.843   3.324   9.845
17244SOL    HW153571   0.749   3.310   9.830
17244SOL    HW253572   0.862   3.407   9.802
17245SOL     OW53573   0.267   5.676   1.202
17245SOL    HW153574   0.295   5.761   1.234
17245SOL    HW253575   0.191   5.695   1.146
17246SOL     OW53576   1.504   5.716   2.283
17246SOL    HW153577   1.535   5.747   2.198
17246SOL    HW253578   1.568   5.651   2.310
17247SOL     OW53579  14.770   4.033   4.858
17247SOL    HW153580  14.754   4.127   4.847
17247SOL    HW253581  14.753   4.017   4.951
17248SOL     OW53582   0.514  14.248   1.086
17248SOL    HW153583   0.501  14.324   1.029
17248SOL    HW253584   0.559  14.184   1.031
17249SOL     OW53585   0.320  12.254   2.856
17249SOL    HW153586   0.256  12.239   2.788
17249SOL    HW253587   0.271  12.295   2.927
17250SOL     OW53588  13.294  10.166   3.902
17250SOL    HW153589  13.225  10.188   3.965
17250SOL    HW253590  13.291  10.237   3.838
17251SOL     OW53591  10.728   1.986   7.132
17251SOL    HW153592  10.725   1.915   7.196
17251SOL    HW253593  10.782   2.053   7.173
17252SOL     OW53594   1.061   9.558   3.781
17252SOL    HW153595   1.013   9.594   3.707
17252SOL    HW253596   1.136   9.618   3.792
17253SOL     OW53597   8.550   3.203   9.312
17253SOL    HW153598   8.477   3.157   9.270
17253SOL    HW253599   8.512   3.283   9.347
17254SOL     OW53600  11.294  10.717   3.186
17254SOL    HW153601  11.201  10.709   3.205
17254SOL    HW253602  11.314  10.809   3.204
17255SOL     OW53603   7.686   7.527   8.802
17255SOL    HW153604   7.768   7.539   8.754
17255SOL    HW253605   7.694   7.442   8.844
17256SOL     OW53606   8.606   0.477  11.471
17256SOL    HW153607   8.695   0.454  11.447
17256SOL    HW253608   8.551   0.419  11.418
17257SOL     OW53609   9.143   0.617   2.484
17257SOL    HW153610   9.077   0.662   2.432
17257SOL    HW253611   9.213   0.596   2.422
17258SOL     OW53612   5.317  11.743  11.262
17258SOL    HW153613   5.384  11.785  11.208
17258SOL    HW253614   5.312  11.654  11.228
17259SOL     OW53615   8.802   2.271   6.244
17259SOL    HW153616   8.742   2.311   6.307
17259SOL    HW253617   8.887   2.312   6.262
17260SOL     OW53618  14.863   5.361   2.983
17260SOL    HW153619  14.844   5.376   2.890
17260SOL    HW253620  14.779   5.374   3.027
17261SOL     OW53621   1.753   6.262  12.990
17261SOL    HW153622   1.800   6.181  13.009
17261SOL    HW253623   1.799   6.329  13.041
17262SOL     OW53624  13.645   2.861  12.718
17262SOL    HW153625  13.677   2.802  12.650
17262SOL    HW253626  13.720   2.918  12.738
17263SOL     OW53627  11.179   3.420   0.100
17263SOL    HW153628  11.157   3.328   0.084
17263SOL    HW253629  11.232   3.418   0.180
17264SOL     OW53630  14.203   3.988  10.540
17264SOL    HW153631  14.180   3.917  10.480
17264SOL    HW253632  14.283   3.958  10.584
17265SOL     OW53633  13.046  14.009   9.156
17265SOL    HW153634  13.089  13.958   9.087
17265SOL    HW253635  13.019  14.090   9.112
17266SOL     OW53636  12.196  13.946   0.955
17266SOL    HW153637  12.266  13.955   1.019
17266SOL    HW253638  12.195  14.030   0.909
17267SOL     OW53639   1.112  13.336   6.404
17267SOL    HW153640   1.178  13.272   6.431
17267SOL    HW253641   1.120  13.339   6.309
17268SOL     OW53642  10.690   9.765  11.003
17268SOL    HW153643  10.630   9.825  11.046
17268SOL    HW253644  10.750   9.736  11.072
17269SOL     OW53645   7.067  10.773  12.931
17269SOL    HW153646   7.109  10.818  12.858
17269SOL    HW253647   7.091  10.681  12.920
17270SOL     OW53648   4.183   1.850  13.889
17270SOL    HW153649   4.262   1.811  13.927
17270SOL    HW253650   4.137   1.777  13.848
17271SOL     OW53651   6.463   0.427   6.818
17271SOL    HW153652   6.371   0.401   6.810
17271SOL    HW253653   6.509   0.347   6.843
17272SOL     OW53654   3.888   8.230   0.072
17272SOL    HW153655   3.955   8.272   0.125
17272SOL    HW253656   3.858   8.299   0.012
17273SOL     OW53657  12.003   9.203   2.634
17273SOL    HW153658  12.098   9.191   2.638
17273SOL    HW253659  11.970   9.162   2.714
17274SOL     OW53660   2.610  11.993  11.140
17274SOL    HW153661   2.537  11.964  11.084
17274SOL    HW253662   2.658  11.912  11.160
17275SOL     OW53663   5.665  13.813   9.034
17275SOL    HW153664   5.612  13.837   9.110
17275SOL    HW253665   5.689  13.897   8.994
17276SOL     OW53666  13.915   6.646   9.964
17276SOL    HW153667  13.864   6.701  10.024
17276SOL    HW253668  13.898   6.557   9.993
17277SOL     OW53669  10.590   0.848  12.774
17277SOL    HW153670  10.628   0.917  12.719
17277SOL    HW253671  10.665   0.793  12.798
17278SOL     OW53672  11.277   9.069  10.519
17278SOL    HW153673  11.321   9.112  10.445
17278SOL    HW253674  11.300   8.977  10.511
17279SOL     OW53675   4.800   3.487   9.646
17279SOL    HW153676   4.839   3.572   9.668
17279SOL    HW253677   4.711   3.493   9.679
17280SOL     OW53678   8.355   6.175   8.299
17280SOL    HW153679   8.362   6.085   8.266
17280SOL    HW253680   8.356   6.166   8.394
17281SOL     OW53681   0.179   9.874   0.649
17281SOL    HW153682   0.097   9.877   0.699
17281SOL    HW253683   0.154   9.835   0.565
17282SOL     OW53684   8.097  13.396   0.366
17282SOL    HW153685   8.140  13.311   0.363
17282SOL    HW253686   8.018  13.386   0.312
17283SOL     OW53687   7.623   0.142  13.544
17283SOL    HW153688   7.717   0.126  13.536
17283SOL    HW253689   7.615   0.201  13.619
17284SOL     OW53690   4.546   7.042  13.916
17284SOL    HW153691   4.610   7.113  13.922
17284SOL    HW253692   4.474   7.070  13.971
17285SOL     OW53693   9.292  14.403  14.873
17285SOL    HW153694   9.297  14.415  14.778
17285SOL    HW253695   9.231  14.471   0.026
17286SOL     OW53696  11.578  10.869   7.444
17286SOL    HW153697  11.640  10.942   7.449
17286SOL    HW253698  11.495  10.907   7.473
17287SOL     OW53699   2.302   2.361  11.126
17287SOL    HW153700   2.353   2.404  11.058
17287SOL    HW253701   2.212   2.360  11.094
17288SOL     OW53702   2.930  13.744  12.850
17288SOL    HW153703   2.877  13.664  12.851
17288SOL    HW253704   2.972  13.747  12.936
17289SOL     OW53705   3.962   1.495   3.743
17289SOL    HW153706   4.003   1.448   3.671
17289SOL    HW253707   3.981   1.442   3.820
17290SOL     OW53708   1.227   2.900   1.005
17290SOL    HW153709   1.233   2.976   0.946
17290SOL    HW253710   1.308   2.851   0.988
17291SOL     OW53711  10.704   2.642   3.511
17291SOL    HW153712  10.721   2.553   3.541
17291SOL    HW253713  10.721   2.639   3.417
17292SOL     OW53714  13.992   8.495   7.112
17292SOL    HW153715  13.933   8.439   7.162
17292SOL    HW253716  14.049   8.535   7.177
17293SOL     OW53717   9.842   8.542  10.105
17293SOL    HW153718   9.905   8.480  10.069
17293SOL    HW253719   9.757   8.515  10.070
17294SOL     OW53720  12.240   2.927   5.055
17294SOL    HW153721  12.323   2.911   5.011
17294SOL    HW253722  12.174   2.892   4.996
17295SOL     OW53723   1.902   6.228   9.435
17295SOL    HW153724   1.952   6.196   9.510
17295SOL    HW253725   1.850   6.300   9.470
17296SOL     OW53726   4.569   0.541  10.763
17296SOL    HW153727   4.574   0.606  10.833
17296SOL    HW253728   4.654   0.496  10.766
17297SOL     OW53729   0.432   4.574   3.084
17297SOL    HW153730   0.390   4.518   3.019
17297SOL    HW253731   0.371   4.578   3.157
17298SOL     OW53732   4.204  11.740   6.262
17298SOL    HW153733   4.188  11.831   6.237
17298SOL    HW253734   4.242  11.700   6.184
17299SOL     OW53735  13.335  10.455   1.043
17299SOL    HW153736  13.374  10.407   0.970
17299SOL    HW253737  13.324  10.390   1.112
17300SOL     OW53738   6.302   4.047  10.460
17300SOL    HW153739   6.318   4.090  10.376
17300SOL    HW253740   6.378   3.990  10.473
17301SOL     OW53741  13.189   8.305   6.975
17301SOL    HW153742  13.114   8.361   6.954
17301SOL    HW253743  13.174   8.226   6.923
17302SOL     OW53744   3.015  13.403   2.659
17302SOL    HW153745   3.042  13.494   2.664
17302SOL    HW253746   2.936  13.398   2.713
17303SOL     OW53747  11.920  10.966   7.991
17303SOL    HW153748  11.902  10.883   8.034
17303SOL    HW253749  11.942  11.026   8.063
17304SOL     OW53750   0.291   2.798   8.017
17304SOL    HW153751   0.206   2.807   7.975
17304SOL    HW253752   0.325   2.887   8.025
17305SOL     OW53753   3.647  12.086  10.619
17305SOL    HW153754   3.691  12.057  10.698
17305SOL    HW253755   3.604  12.008  10.584
17306SOL     OW53756   2.969   0.027   4.585
17306SOL    HW153757   2.981   0.121   4.574
17306SOL    HW253758   2.873   0.016   4.589
17307SOL     OW53759   2.607  12.018  12.050
17307SOL    HW153760   2.552  11.996  11.974
17307SOL    HW253761   2.547  12.055  12.114
17308SOL     OW53762   3.196   6.559  10.020
17308SOL    HW153763   3.254   6.625   9.982
17308SOL    HW253764   3.246   6.478  10.013
17309SOL     OW53765   5.429  11.646   8.539
17309SOL    HW153766   5.348  11.657   8.489
17309SOL    HW253767   5.470  11.568   8.501
17310SOL     OW53768  13.132   8.261  12.283
17310SOL    HW153769  13.115   8.347  12.321
17310SOL    HW253770  13.204   8.225  12.335
17311SOL     OW53771   7.000  11.204   4.542
17311SOL    HW153772   6.995  11.202   4.637
17311SOL    HW253773   6.909  11.209   4.513
17312SOL     OW53774   3.459   2.449   0.628
17312SOL    HW153775   3.468   2.397   0.708
17312SOL    HW253776   3.527   2.516   0.634
17313SOL     OW53777  11.741  10.972   6.636
17313SOL    HW153778  11.694  10.892   6.660
17313SOL    HW253779  11.714  11.036   6.702
17314SOL     OW53780   9.008   3.925  12.223
17314SOL    HW153781   8.978   3.837  12.245
17314SOL    HW253782   8.938   3.962  12.170
17315SOL     OW53783  13.980   3.727   8.926
17315SOL    HW153784  13.944   3.646   8.890
17315SOL    HW253785  13.940   3.797   8.874
17316SOL     OW53786  13.754   7.094  11.507
17316SOL    HW153787  13.726   7.034  11.576
17316SOL    HW253788  13.840   7.063  11.481
17317SOL     OW53789   1.383   0.445   6.904
17317SOL    HW153790   1.375   0.351   6.888
17317SOL    HW253791   1.306   0.483   6.863
17318SOL     OW53792   1.236   6.732   1.004
17318SOL    HW153793   1.176   6.752   0.932
17318SOL    HW253794   1.184   6.680   1.065
17319SOL     OW53795  10.617  14.506   1.010
17319SOL    HW153796  10.691  14.449   1.027
17319SOL    HW253797  10.651  14.573   0.951
17320SOL     OW53798  10.364  10.580  14.675
17320SOL    HW153799  10.294  10.589  14.740
17320SOL    HW253800  10.338  10.504  14.622
17321SOL     OW53801   7.936   3.438   8.614
17321SOL    HW153802   7.885   3.479   8.544
17321SOL    HW253803   7.982   3.511   8.655
17322SOL     OW53804   9.085   0.621   2.178
17322SOL    HW153805   9.121   0.533   2.169
17322SOL    HW253806   9.142   0.676   2.124
17323SOL     OW53807   3.264   0.897  12.543
17323SOL    HW153808   3.285   0.832  12.610
17323SOL    HW253809   3.192   0.858  12.493
17324SOL     OW53810   6.434  12.929  10.278
17324SOL    HW153811   6.370  12.997  10.299
17324SOL    HW253812   6.443  12.878  10.359
17325SOL     OW53813  10.491  13.651  10.174
17325SOL    HW153814  10.448  13.659  10.259
17325SOL    HW253815  10.422  13.670  10.111
17326SOL     OW53816  13.855   2.897   7.634
17326SOL    HW153817  13.771   2.901   7.589
17326SOL    HW253818  13.920   2.923   7.568
17327SOL     OW53819   5.498   0.406   3.516
17327SOL    HW153820   5.557   0.416   3.440
17327SOL    HW253821   5.546   0.350   3.576
17328SOL     OW53822   1.947   1.684   2.346
17328SOL    HW153823   1.901   1.600   2.338
17328SOL    HW253824   2.016   1.667   2.411
17329SOL     OW53825  12.941   5.449   8.937
17329SOL    HW153826  12.903   5.362   8.926
17329SOL    HW253827  12.872   5.501   8.977
17330SOL     OW53828   5.282   9.189  11.365
17330SOL    HW153829   5.238   9.260  11.319
17330SOL    HW253830   5.318   9.134  11.296
17331SOL     OW53831   4.579   3.516  12.453
17331SOL    HW153832   4.555   3.598  12.497
17331SOL    HW253833   4.572   3.537  12.360
17332SOL     OW53834   7.340   3.750  12.374
17332SOL    HW153835   7.268   3.694  12.403
17332SOL    HW253836   7.299   3.820  12.324
17333SOL     OW53837   6.456  10.818  12.408
17333SOL    HW153838   6.499  10.862  12.334
17333SOL    HW253839   6.499  10.733  12.414
17334SOL     OW53840  11.961   7.215   6.690
17334SOL    HW153841  11.978   7.141   6.632
17334SOL    HW253842  11.879   7.253   6.657
17335SOL     OW53843   8.012  12.288   2.481
17335SOL    HW153844   8.066  12.212   2.501
17335SOL    HW253845   7.951  12.256   2.414
17336SOL     OW53846  14.305   4.597   0.809
17336SOL    HW153847  14.387   4.646   0.815
17336SOL    HW253848  14.272   4.593   0.898
17337SOL     OW53849   0.430   9.394   2.425
17337SOL    HW153850   0.403   9.471   2.476
17337SOL    HW253851   0.368   9.326   2.449
17338SOL     OW53852   9.140  11.367   0.295
17338SOL    HW153853   9.225  11.327   0.281
17338SOL    HW253854   9.158  11.441   0.355
17339SOL     OW53855  14.366   8.013   7.210
17339SOL    HW153856  14.321   7.935   7.243
17339SOL    HW253857  14.340   8.018   7.118
17340SOL     OW53858   6.856   7.465   0.207
17340SOL    HW153859   6.890   7.472   0.119
17340SOL    HW253860   6.919   7.410   0.254
17341SOL     OW53861  12.000   5.480  12.212
17341SOL    HW153862  12.039   5.406  12.258
17341SOL    HW253863  11.932   5.512  12.271
17342SOL     OW53864  12.730   5.038   5.140
17342SOL    HW153865  12.773   5.092   5.207
17342SOL    HW253866  12.689   5.101   5.081
17343SOL     OW53867   5.006   9.106  12.872
17343SOL    HW153868   5.071   9.149  12.928
17343SOL    HW253869   4.922   9.123  12.916
17344SOL     OW53870  13.732   4.286   2.132
17344SOL    HW153871  13.802   4.235   2.172
17344SOL    HW253872  13.667   4.295   2.202
17345SOL     OW53873   7.697  14.847   7.113
17345SOL    HW153874   7.663  14.787   7.047
17345SOL    HW253875   7.632   0.041   7.117
17346SOL     OW53876   8.667  14.357   1.314
17346SOL    HW153877   8.725  14.315   1.252
17346SOL    HW253878   8.630  14.286   1.366
17347SOL     OW53879  14.833   1.918   1.666
17347SOL    HW153880  14.748   1.881   1.640
17347SOL    HW253881  14.868   1.958   1.587
17348SOL     OW53882  14.528  11.570   6.305
17348SOL    HW153883  14.555  11.660   6.286
17348SOL    HW253884  14.576  11.517   6.242
17349SOL     OW53885   7.299   2.531  14.461
17349SOL    HW153886   7.210   2.543  14.429
17349SOL    HW253887   7.336   2.619  14.465
17350SOL     OW53888   4.337  12.755  10.666
17350SOL    HW153889   4.254  12.707  10.656
17350SOL    HW253890   4.311  12.841  10.697
17351SOL     OW53891  13.408   2.736   7.756
17351SOL    HW153892  13.341   2.725   7.823
17351SOL    HW253893  13.424   2.830   7.753
17352SOL     OW53894   2.695  13.540   9.876
17352SOL    HW153895   2.623  13.499   9.925
17352SOL    HW253896   2.747  13.466   9.845
17353SOL     OW53897   1.218   9.305   8.580
17353SOL    HW153898   1.246   9.226   8.533
17353SOL    HW253899   1.161   9.272   8.649
17354SOL     OW53900   9.367   8.811   6.784
17354SOL    HW153901   9.279   8.774   6.772
17354SOL    HW253902   9.388   8.793   6.875
17355SOL     OW53903   8.344   7.978   6.112
17355SOL    HW153904   8.417   7.988   6.051
17355SOL    HW253905   8.272   7.945   6.058
17356SOL     OW53906  13.961   5.680   4.359
17356SOL    HW153907  13.989   5.771   4.369
17356SOL    HW253908  13.988   5.638   4.441
17357SOL     OW53909   3.113   0.423   8.615
17357SOL    HW153910   3.053   0.351   8.595
17357SOL    HW253911   3.142   0.455   8.530
17358SOL     OW53912  14.660   2.238  11.180
17358SOL    HW153913  14.721   2.272  11.114
17358SOL    HW253914  14.622   2.160  11.140
17359SOL     OW53915   1.624  13.429  11.084
17359SOL    HW153916   1.603  13.437  10.990
17359SOL    HW253917   1.540  13.441  11.128
17360SOL     OW53918  12.225  13.300   5.954
17360SOL    HW153919  12.281  13.376   5.969
17360SOL    HW253920  12.204  13.304   5.861
17361SOL     OW53921  14.361   0.279   1.400
17361SOL    HW153922  14.358   0.262   1.306
17361SOL    HW253923  14.283   0.331   1.417
17362SOL     OW53924   0.418   1.653  10.431
17362SOL    HW153925   0.406   1.574  10.483
17362SOL    HW253926   0.332   1.671  10.393
17363SOL     OW53927  12.788   7.363  12.614
17363SOL    HW153928  12.751   7.383  12.528
17363SOL    HW253929  12.831   7.445  12.641
17364SOL     OW53930  14.426  11.146   4.087
17364SOL    HW153931  14.423  11.210   4.158
17364SOL    HW253932  14.433  11.200   4.008
17365SOL     OW53933   5.778   8.794   6.648
17365SOL    HW153934   5.839   8.721   6.664
17365SOL    HW253935   5.693   8.752   6.635
17366SOL     OW53936   4.674   6.398   9.665
17366SOL    HW153937   4.696   6.491   9.661
17366SOL    HW253938   4.743   6.360   9.719
17367SOL     OW53939   7.453  14.288  11.552
17367SOL    HW153940   7.374  14.234  11.555
17367SOL    HW253941   7.502  14.254  11.478
17368SOL     OW53942   8.778  13.974  14.638
17368SOL    HW153943   8.799  13.926  14.718
17368SOL    HW253944   8.835  14.051  14.640
17369SOL     OW53945   4.424   3.030   4.242
17369SOL    HW153946   4.407   3.027   4.336
17369SOL    HW253947   4.344   3.067   4.205
17370SOL     OW53948   5.902   7.579   8.129
17370SOL    HW153949   5.917   7.664   8.087
17370SOL    HW253950   5.939   7.515   8.067
17371SOL     OW53951   9.451   0.961  11.292
17371SOL    HW153952   9.386   0.971  11.222
17371SOL    HW253953   9.510   1.036  11.282
17372SOL     OW53954   6.226   0.415   0.691
17372SOL    HW153955   6.213   0.447   0.602
17372SOL    HW253956   6.173   0.475   0.745
17373SOL     OW53957   1.679   0.761  10.256
17373SOL    HW153958   1.687   0.854  10.277
17373SOL    HW253959   1.760   0.722  10.289
17374SOL     OW53960   0.047  13.074  13.167
17374SOL    HW153961   0.035  13.006  13.101
17374SOL    HW253962   0.010  13.153  13.126
17375SOL     OW53963   4.187  12.004   6.230
17375SOL    HW153964   4.207  12.063   6.157
17375SOL    HW253965   4.149  12.060   6.297
17376SOL     OW53966   4.859   3.096   0.492
17376SOL    HW153967   4.913   3.162   0.536
17376SOL    HW253968   4.861   3.020   0.551
17377SOL     OW53969   2.219   4.150   5.840
17377SOL    HW153970   2.126   4.129   5.854
17377SOL    HW253971   2.228   4.155   5.745
17378SOL     OW53972   6.626  14.666   7.198
17378SOL    HW153973   6.695  14.690   7.259
17378SOL    HW253974   6.597  14.580   7.228
17379SOL     OW53975   1.326   9.131   1.024
17379SOL    HW153976   1.299   9.085   1.104
17379SOL    HW253977   1.421   9.128   1.026
17380SOL     OW53978   9.679  12.979   2.079
17380SOL    HW153979   9.603  12.928   2.107
17380SOL    HW253980   9.748  12.955   2.141
17381SOL     OW53981  10.847   1.281   9.606
17381SOL    HW153982  10.810   1.234   9.531
17381SOL    HW253983  10.941   1.262   9.602
17382SOL     OW53984  14.489   1.357   2.858
17382SOL    HW153985  14.526   1.378   2.772
17382SOL    HW253986  14.459   1.442   2.892
17383SOL     OW53987   4.597  11.036   5.905
17383SOL    HW153988   4.646  11.117   5.914
17383SOL    HW253989   4.651  10.970   5.948
17384SOL     OW53990   4.802   5.834  12.586
17384SOL    HW153991   4.720   5.850  12.632
17384SOL    HW253992   4.869   5.877  12.640
17385SOL     OW53993   4.422  14.666  14.806
17385SOL    HW153994   4.347  14.710  14.845
17385SOL    HW253995   4.423  14.696  14.715
17386SOL     OW53996  12.791   0.282   0.694
17386SOL    HW153997  12.697   0.299   0.688
17386SOL    HW253998  12.833   0.360   0.657
17387SOL     OW53999   1.065   8.159   0.486
17387SOL    HW154000   1.119   8.195   0.557
17387SOL    HW254001   1.127   8.114   0.429
17388SOL     OW54002   4.629  10.180   0.969
17388SOL    HW154003   4.658  10.224   0.888
17388SOL    HW254004   4.697  10.116   0.987
17389SOL     OW54005   9.671  12.190  11.425
17389SOL    HW154006   9.609  12.262  11.439
17389SOL    HW254007   9.746  12.212  11.481
17390SOL     OW54008   4.466  13.816   7.347
17390SOL    HW154009   4.556  13.840   7.325
17390SOL    HW254010   4.452  13.851   7.435
17391SOL     OW54011   3.370   2.863   9.547
17391SOL    HW154012   3.434   2.917   9.502
17391SOL    HW254013   3.350   2.792   9.486
17392SOL     OW54014  13.586   0.833   1.322
17392SOL    HW154015  13.673   0.834   1.362
17392SOL    HW254016  13.538   0.903   1.365
17393SOL     OW54017  13.961   6.046   1.661
17393SOL    HW154018  13.898   6.113   1.686
17393SOL    HW254019  13.947   6.033   1.567
17394SOL     OW54020   0.432   2.141   7.153
17394SOL    HW154021   0.420   2.217   7.095
17394SOL    HW254022   0.442   2.180   7.240
17395SOL     OW54023   7.779   6.015  14.117
17395SOL    HW154024   7.768   5.988  14.026
17395SOL    HW254025   7.737   6.101  14.121
17396SOL     OW54026  10.037   9.694   7.964
17396SOL    HW154027   9.961   9.728   8.011
17396SOL    HW254028  10.010   9.689   7.873
17397SOL     OW54029  10.276  10.268  12.310
17397SOL    HW154030  10.182  10.276  12.298
17397SOL    HW254031  10.295  10.319  12.389
17398SOL     OW54032   8.497   1.095  12.643
17398SOL    HW154033   8.582   1.051  12.647
17398SOL    HW254034   8.485   1.131  12.730
17399SOL     OW54035   4.593   7.351   6.970
17399SOL    HW154036   4.547   7.405   6.905
17399SOL    HW254037   4.683   7.344   6.936
17400SOL     OW54038   0.168   8.308  11.903
17400SOL    HW154039   0.213   8.388  11.875
17400SOL    HW254040   0.129   8.273  11.822
17401SOL     OW54041  11.855   9.784   3.055
17401SOL    HW154042  11.846   9.835   2.975
17401SOL    HW254043  11.927   9.825   3.103
17402SOL     OW54044  13.740   6.532   7.716
17402SOL    HW154045  13.712   6.621   7.694
17402SOL    HW254046  13.686   6.475   7.663
17403SOL     OW54047  13.857  10.701   9.967
17403SOL    HW154048  13.888  10.683   9.878
17403SOL    HW254049  13.929  10.749  10.008
17404SOL     OW54050   1.513   8.322   2.243
17404SOL    HW154051   1.419   8.322   2.263
17404SOL    HW254052   1.543   8.235   2.270
17405SOL     OW54053   5.918   5.443   0.819
17405SOL    HW154054   5.867   5.445   0.738
17405SOL    HW254055   5.983   5.374   0.805
17406SOL     OW54056   8.878  14.154   0.772
17406SOL    HW154057   8.968  14.187   0.768
17406SOL    HW254058   8.887  14.061   0.792
17407SOL     OW54059   2.461   4.031   2.152
17407SOL    HW154060   2.431   4.081   2.228
17407SOL    HW254061   2.453   4.092   2.079
17408SOL     OW54062   5.728   3.105   3.638
17408SOL    HW154063   5.806   3.133   3.590
17408SOL    HW254064   5.669   3.180   3.635
17409SOL     OW54065   7.024   4.791   2.988
17409SOL    HW154066   7.041   4.874   2.945
17409SOL    HW254067   6.935   4.800   3.023
17410SOL     OW54068   6.507   3.270   6.217
17410SOL    HW154069   6.505   3.289   6.310
17410SOL    HW254070   6.469   3.348   6.176
17411SOL     OW54071  12.295   6.932   5.965
17411SOL    HW154072  12.387   6.930   5.939
17411SOL    HW254073  12.271   7.025   5.958
17412SOL     OW54074  10.262   5.846   9.426
17412SOL    HW154075  10.340   5.808   9.385
17412SOL    HW254076  10.190   5.795   9.391
17413SOL     OW54077   0.135   6.440  11.109
17413SOL    HW154078   0.186   6.360  11.118
17413SOL    HW254079   0.045   6.411  11.096
17414SOL     OW54080   1.616   9.087  13.546
17414SOL    HW154081   1.546   9.153  13.550
17414SOL    HW254082   1.656   9.102  13.460
17415SOL     OW54083   9.803  11.562   5.721
17415SOL    HW154084   9.892  11.588   5.699
17415SOL    HW254085   9.765  11.640   5.762
17416SOL     OW54086   2.688   1.438   0.614
17416SOL    HW154087   2.694   1.390   0.697
17416SOL    HW254088   2.650   1.522   0.638
17417SOL     OW54089   8.411   0.462   0.381
17417SOL    HW154090   8.328   0.493   0.344
17417SOL    HW254091   8.387   0.385   0.432
17418SOL     OW54092  13.418   8.877   6.238
17418SOL    HW154093  13.378   8.947   6.186
17418SOL    HW254094  13.459   8.923   6.312
17419SOL     OW54095  13.564   4.826   7.287
17419SOL    HW154096  13.549   4.917   7.262
17419SOL    HW254097  13.634   4.830   7.352
17420SOL     OW54098   4.500   5.113   0.986
17420SOL    HW154099   4.580   5.122   0.934
17420SOL    HW254100   4.450   5.192   0.967
17421SOL     OW54101   0.092  13.838   7.585
17421SOL    HW154102   0.155  13.807   7.651
17421SOL    HW254103   0.059  13.920   7.621
17422SOL     OW54104   6.446  14.441   4.540
17422SOL    HW154105   6.502  14.481   4.474
17422SOL    HW254106   6.380  14.507   4.560
17423SOL     OW54107   4.914  12.660   7.138
17423SOL    HW154108   4.821  12.658   7.113
17423SOL    HW254109   4.925  12.584   7.195
17424SOL     OW54110  10.916   6.930   3.244
17424SOL    HW154111  10.942   6.850   3.199
17424SOL    HW254112  10.956   6.924   3.331
17425SOL     OW54113  12.335   8.822   7.037
17425SOL    HW154114  12.422   8.858   7.052
17425SOL    HW254115  12.314   8.776   7.119
17426SOL     OW54116   4.036   9.714   5.992
17426SOL    HW154117   4.068   9.697   6.080
17426SOL    HW254118   4.091   9.660   5.936
17427SOL     OW54119   2.989   6.566   2.303
17427SOL    HW154120   2.963   6.621   2.377
17427SOL    HW254121   3.048   6.621   2.252
17428SOL     OW54122   1.993   9.393  10.252
17428SOL    HW154123   1.999   9.300  10.230
17428SOL    HW254124   1.899   9.408  10.264
17429SOL     OW54125  13.592   6.644   8.599
17429SOL    HW154126  13.571   6.651   8.692
17429SOL    HW254127  13.675   6.691   8.590
17430SOL     OW54128  13.338  13.110  11.642
17430SOL    HW154129  13.293  13.185  11.679
17430SOL    HW254130  13.378  13.066  11.717
17431SOL     OW54131  13.057   3.064   6.550
17431SOL    HW154132  13.002   3.037   6.623
17431SOL    HW254133  13.147   3.044   6.579
17432SOL     OW54134   6.130   3.469   4.556
17432SOL    HW154135   6.197   3.423   4.606
17432SOL    HW254136   6.080   3.399   4.513
17433SOL     OW54137   5.633   4.327  11.715
17433SOL    HW154138   5.716   4.301  11.755
17433SOL    HW254139   5.641   4.422  11.704
17434SOL     OW54140  10.136   6.172   4.688
17434SOL    HW154141  10.110   6.236   4.622
17434SOL    HW254142  10.110   6.210   4.771
17435SOL     OW54143   4.277  10.634  14.590
17435SOL    HW154144   4.207  10.629  14.525
17435SOL    HW254145   4.242  10.691  14.658
17436SOL     OW54146  11.557   1.049  12.263
17436SOL    HW154147  11.620   1.054  12.192
17436SOL    HW254148  11.529   1.140  12.277
17437SOL     OW54149   9.390   7.373   8.366
17437SOL    HW154150   9.362   7.286   8.396
17437SOL    HW254151   9.470   7.356   8.315
17438SOL     OW54152   4.646  12.171  11.017
17438SOL    HW154153   4.738  12.151  10.999
17438SOL    HW254154   4.648  12.257  11.058
17439SOL     OW54155  12.385   3.380   5.171
17439SOL    HW154156  12.451   3.324   5.210
17439SOL    HW254157  12.434   3.453   5.133
17440SOL     OW54158  12.960   5.662   5.880
17440SOL    HW154159  13.045   5.623   5.859
17440SOL    HW254160  12.906   5.587   5.907
17441SOL     OW54161   6.987   9.703  13.162
17441SOL    HW154162   7.039   9.659  13.094
17441SOL    HW254163   7.005   9.654  13.242
17442SOL     OW54164   4.757   8.710  13.696
17442SOL    HW154165   4.685   8.730  13.755
17442SOL    HW254166   4.725   8.639  13.640
17443SOL     OW54167  13.996   0.491   9.770
17443SOL    HW154168  14.065   0.536   9.722
17443SOL    HW254169  14.043   0.425   9.821
17444SOL     OW54170  12.020  13.108   7.726
17444SOL    HW154171  12.076  13.042   7.684
17444SOL    HW254172  12.018  13.082   7.818
17445SOL     OW54173   1.505   4.922   3.628
17445SOL    HW154174   1.595   4.933   3.657
17445SOL    HW254175   1.462   4.875   3.700
17446SOL     OW54176   5.678   5.162   4.984
17446SOL    HW154177   5.773   5.158   4.982
17446SOL    HW254178   5.653   5.105   5.057
17447SOL     OW54179   8.613  10.032   1.332
17447SOL    HW154180   8.604   9.947   1.375
17447SOL    HW254181   8.707  10.043   1.319
17448SOL     OW54182   3.445   5.242   3.330
17448SOL    HW154183   3.508   5.308   3.358
17448SOL    HW254184   3.384   5.234   3.403
17449SOL     OW54185   8.208   5.772   2.435
17449SOL    HW154186   8.182   5.847   2.489
17449SOL    HW254187   8.185   5.799   2.346
17450SOL     OW54188   7.232   4.823   3.613
17450SOL    HW154189   7.251   4.773   3.533
17450SOL    HW254190   7.205   4.909   3.581
17451SOL     OW54191   9.969  13.442   4.298
17451SOL    HW154192   9.939  13.523   4.340
17451SOL    HW254193  10.017  13.472   4.221
17452SOL     OW54194   9.109   8.691   9.584
17452SOL    HW154195   9.067   8.736   9.510
17452SOL    HW254196   9.170   8.756   9.620
17453SOL     OW54197   1.602  12.726   6.287
17453SOL    HW154198   1.669  12.665   6.318
17453SOL    HW254199   1.571  12.770   6.366
17454SOL     OW54200   7.613  11.038   6.880
17454SOL    HW154201   7.645  11.109   6.936
17454SOL    HW254202   7.614  11.075   6.792
17455SOL     OW54203   1.714  14.361   3.209
17455SOL    HW154204   1.626  14.333   3.182
17455SOL    HW254205   1.773  14.300   3.164
17456SOL     OW54206  10.389  12.035   4.089
17456SOL    HW154207  10.328  11.963   4.072
17456SOL    HW254208  10.389  12.086   4.009
17457SOL     OW54209  10.889  14.234  11.576
17457SOL    HW154210  10.952  14.251  11.507
17457SOL    HW254211  10.811  14.202  11.530
17458SOL     OW54212   0.914  13.587   3.642
17458SOL    HW154213   0.933  13.632   3.724
17458SOL    HW254214   0.999  13.553   3.613
17459SOL     OW54215  10.254   1.180   3.122
17459SOL    HW154216  10.233   1.090   3.147
17459SOL    HW254217  10.181   1.209   3.068
17460SOL     OW54218   9.459   4.084  14.546
17460SOL    HW154219   9.412   4.051  14.623
17460SOL    HW254220   9.499   4.006  14.508
17461SOL     OW54221   1.261   5.679   6.338
17461SOL    HW154222   1.206   5.602   6.322
17461SOL    HW254223   1.292   5.669   6.428
17462SOL     OW54224  12.473   2.348  10.410
17462SOL    HW154225  12.515   2.381  10.330
17462SOL    HW254226  12.454   2.428  10.460
17463SOL     OW54227   5.924   6.807   4.763
17463SOL    HW154228   5.940   6.841   4.675
17463SOL    HW254229   5.840   6.763   4.757
17464SOL     OW54230   3.206  13.338  13.052
17464SOL    HW154231   3.269  13.395  13.007
17464SOL    HW254232   3.252  13.310  13.131
17465SOL     OW54233   6.879  14.788   9.429
17465SOL    HW154234   6.927  14.848   9.485
17465SOL    HW254235   6.941  14.718   9.409
17466SOL     OW54236   7.277  14.242   5.986
17466SOL    HW154237   7.268  14.177   5.916
17466SOL    HW254238   7.214  14.310   5.964
17467SOL     OW54239  11.877   1.906   0.804
17467SOL    HW154240  11.886   1.992   0.845
17467SOL    HW254241  11.864   1.846   0.878
17468SOL     OW54242   3.457   3.881  11.957
17468SOL    HW154243   3.454   3.804  11.900
17468SOL    HW254244   3.542   3.921  11.940
17469SOL     OW54245  12.355   4.759   8.269
17469SOL    HW154246  12.324   4.821   8.336
17469SOL    HW254247  12.284   4.756   8.204
17470SOL     OW54248   7.965   6.671   4.037
17470SOL    HW154249   8.032   6.738   4.049
17470SOL    HW254250   7.903   6.709   3.976
17471SOL     OW54251   2.808   1.112  13.067
17471SOL    HW154252   2.761   1.158  12.998
17471SOL    HW254253   2.878   1.173  13.093
17472SOL     OW54254  12.657  10.180  11.026
17472SOL    HW154255  12.748  10.209  11.018
17472SOL    HW254256  12.663  10.088  11.053
17473SOL     OW54257   3.156   8.030  12.831
17473SOL    HW154258   3.229   8.061  12.886
17473SOL    HW254259   3.096   7.989  12.893
17474SOL     OW54260  12.573  13.533   1.168
17474SOL    HW154261  12.491  13.573   1.197
17474SOL    HW254262  12.546  13.455   1.120
17475SOL     OW54263   6.957   5.899  10.028
17475SOL    HW154264   6.925   5.944   9.950
17475SOL    HW254265   6.885   5.840  10.053
17476SOL     OW54266  10.501   1.973   0.467
17476SOL    HW154267  10.487   2.056   0.512
17476SOL    HW254268  10.490   1.994   0.374
17477SOL     OW54269   2.641   2.333   1.835
17477SOL    HW154270   2.678   2.324   1.923
17477SOL    HW254271   2.586   2.256   1.824
17478SOL     OW54272  11.288   8.546   3.951
17478SOL    HW154273  11.336   8.628   3.958
17478SOL    HW254274  11.269   8.538   3.857
17479SOL     OW54275   0.815  10.251   1.328
17479SOL    HW154276   0.907  10.231   1.340
17479SOL    HW254277   0.775  10.169   1.302
17480SOL     OW54278  13.519   1.441   1.181
17480SOL    HW154279  13.468   1.511   1.222
17480SOL    HW254280  13.588   1.488   1.133
17481SOL     OW54281   5.153  12.064  12.025
17481SOL    HW154282   5.214  12.081  12.096
17481SOL    HW254283   5.169  12.135  11.962
17482SOL     OW54284  13.720   7.556   8.278
17482SOL    HW154285  13.781   7.600   8.219
17482SOL    HW254286  13.691   7.479   8.230
17483SOL     OW54287   6.557  12.873  12.513
17483SOL    HW154288   6.632  12.833  12.468
17483SOL    HW254289   6.557  12.832  12.599
17484SOL     OW54290  12.820  13.687   4.991
17484SOL    HW154291  12.846  13.769   5.033
17484SOL    HW254292  12.738  13.709   4.946
17485SOL     OW54293   5.867   5.176   9.767
17485SOL    HW154294   5.918   5.146   9.692
17485SOL    HW254295   5.784   5.206   9.730
17486SOL     OW54296   0.273   6.922   6.706
17486SOL    HW154297   0.367   6.912   6.717
17486SOL    HW254298   0.262   6.949   6.615
17487SOL     OW54299  13.101   2.624   9.589
17487SOL    HW154300  13.178   2.595   9.638
17487SOL    HW254301  13.124   2.712   9.559
17488SOL     OW54302   2.078   7.624   4.806
17488SOL    HW154303   2.100   7.715   4.787
17488SOL    HW254304   1.992   7.611   4.766
17489SOL     OW54305  12.048   3.347   3.411
17489SOL    HW154306  11.995   3.306   3.479
17489SOL    HW254307  12.135   3.357   3.450
17490SOL     OW54308  14.104   2.905   0.316
17490SOL    HW154309  14.145   2.903   0.230
17490SOL    HW254310  14.080   2.997   0.329
17491SOL     OW54311   8.269   1.671  13.388
17491SOL    HW154312   8.225   1.756  13.392
17491SOL    HW254313   8.254   1.641  13.298
17492SOL     OW54314   9.229  12.482  12.340
17492SOL    HW154315   9.296  12.495  12.407
17492SOL    HW254316   9.191  12.396  12.360
17493SOL     OW54317  13.861   3.650  14.290
17493SOL    HW154318  13.918   3.591  14.241
17493SOL    HW254319  13.811   3.593  14.347
17494SOL     OW54320   0.938   1.188   6.206
17494SOL    HW154321   1.021   1.182   6.159
17494SOL    HW254322   0.934   1.279   6.236
17495SOL     OW54323   0.779   1.879   5.803
17495SOL    HW154324   0.732   1.955   5.770
17495SOL    HW254325   0.870   1.895   5.779
17496SOL     OW54326   6.963   7.633   0.681
17496SOL    HW154327   6.973   7.539   0.700
17496SOL    HW254328   6.913   7.635   0.599
17497SOL     OW54329   1.745   7.757   9.203
17497SOL    HW154330   1.826   7.792   9.241
17497SOL    HW254331   1.682   7.828   9.211
17498SOL     OW54332   0.953  10.474   6.446
17498SOL    HW154333   0.995  10.450   6.364
17498SOL    HW254334   0.865  10.436   6.440
17499SOL     OW54335   1.793   3.137  11.658
17499SOL    HW154336   1.882   3.173  11.660
17499SOL    HW254337   1.796   3.070  11.589
17500SOL     OW54338   3.585   4.313  11.249
17500SOL    HW154339   3.653   4.268  11.300
17500SOL    HW254340   3.589   4.404  11.278
17501SOL     OW54341   7.297   8.647   1.545
17501SOL    HW154342   7.251   8.580   1.496
17501SOL    HW254343   7.253   8.649   1.630
17502SOL     OW54344  12.866   8.217   2.397
17502SOL    HW154345  12.952   8.256   2.414
17502SOL    HW254346  12.812   8.289   2.365
17503SOL     OW54347   2.217   8.365   6.027
17503SOL    HW154348   2.251   8.327   6.108
17503SOL    HW254349   2.260   8.451   6.021
17504SOL     OW54350  10.684   0.214   6.330
17504SOL    HW154351  10.687   0.282   6.398
17504SOL    HW254352  10.646   0.139   6.374
17505SOL     OW54353   7.706   3.931   7.146
17505SOL    HW154354   7.746   3.850   7.179
17505SOL    HW254355   7.780   3.988   7.125
17506SOL     OW54356   9.020  10.152  14.241
17506SOL    HW154357   8.965  10.102  14.182
17506SOL    HW254358   8.976  10.237  14.249
17507SOL     OW54359   3.424  13.969   7.673
17507SOL    HW154360   3.474  13.888   7.665
17507SOL    HW254361   3.334  13.940   7.688
17508SOL     OW54362   3.297  11.762  10.098
17508SOL    HW154363   3.206  11.761  10.129
17508SOL    HW254364   3.324  11.854  10.106
17509SOL     OW54365  11.228  12.854   2.125
17509SOL    HW154366  11.240  12.948   2.116
17509SOL    HW254367  11.267  12.833   2.210
17510SOL     OW54368   7.955  10.922  14.067
17510SOL    HW154369   7.934  10.834  14.097
17510SOL    HW254370   7.925  10.979  14.137
17511SOL     OW54371   9.584   6.703  14.836
17511SOL    HW154372   9.672   6.742  14.839
17511SOL    HW254373   9.538   6.745   0.032
17512SOL     OW54374   8.459   2.725  12.541
17512SOL    HW154375   8.527   2.788  12.564
17512SOL    HW254376   8.417   2.762  12.463
17513SOL     OW54377  14.353   6.441   9.316
17513SOL    HW154378  14.272   6.390   9.313
17513SOL    HW254379  14.327   6.526   9.350
17514SOL     OW54380   7.599   4.533   8.043
17514SOL    HW154381   7.517   4.555   7.999
17514SOL    HW254382   7.627   4.451   8.003
17515SOL     OW54383  10.829   0.441  11.459
17515SOL    HW154384  10.916   0.405  11.478
17515SOL    HW254385  10.779   0.366  11.427
17516SOL     OW54386   8.507  13.733  11.789
17516SOL    HW154387   8.421  13.746  11.747
17516SOL    HW254388   8.487  13.691  11.873
17517SOL     OW54389  11.705   9.681   1.739
17517SOL    HW154390  11.685   9.588   1.756
17517SOL    HW254391  11.773   9.679   1.673
17518SOL     OW54392  10.795   9.313   2.998
17518SOL    HW154393  10.862   9.247   2.981
17518SOL    HW254394  10.725   9.265   3.043
17519SOL     OW54395   6.004   0.325   7.031
17519SOL    HW154396   5.934   0.389   7.018
17519SOL    HW254397   5.971   0.245   6.989
17520SOL     OW54398   5.521   9.618   2.536
17520SOL    HW154399   5.503   9.648   2.447
17520SOL    HW254400   5.521   9.522   2.530
17521SOL     OW54401   8.124   7.834   1.677
17521SOL    HW154402   8.051   7.780   1.648
17521SOL    HW254403   8.091   7.924   1.672
17522SOL     OW54404   8.958   0.546   0.555
17522SOL    HW154405   8.907   0.467   0.538
17522SOL    HW254406   9.042   0.529   0.512
17523SOL     OW54407   3.216   2.744   0.010
17523SOL    HW154408   3.137   2.770   0.057
17523SOL    HW254409   3.236   2.820  14.830
17524SOL     OW54410   5.302   1.977   3.196
17524SOL    HW154411   5.372   1.986   3.130
17524SOL    HW254412   5.286   2.066   3.226
17525SOL     OW54413  11.969   6.044  11.020
17525SOL    HW154414  12.062   6.037  10.998
17525SOL    HW254415  11.934   5.956  11.003
17526SOL     OW54416   0.720   9.301  10.609
17526SOL    HW154417   0.761   9.294  10.695
17526SOL    HW254418   0.642   9.355  10.623
17527SOL     OW54419   8.656   9.474   1.409
17527SOL    HW154420   8.602   9.441   1.481
17527SOL    HW254421   8.659   9.401   1.346
17528SOL     OW54422   9.977   2.143   2.608
17528SOL    HW154423   9.994   2.221   2.661
17528SOL    HW254424   9.985   2.070   2.669
17529SOL     OW54425   1.952  11.884  13.566
17529SOL    HW154426   2.048  11.892  13.565
17529SOL    HW254427   1.921  11.971  13.541
17530SOL     OW54428  12.102   6.279   6.649
17530SOL    HW154429  12.027   6.339   6.656
17530SOL    HW254430  12.179   6.334   6.660
17531SOL     OW54431   8.777   7.184  14.008
17531SOL    HW154432   8.725   7.116  14.052
17531SOL    HW254433   8.726   7.264  14.021
17532SOL     OW54434   8.660   6.532   6.443
17532SOL    HW154435   8.752   6.520   6.418
17532SOL    HW254436   8.614   6.460   6.401
17533SOL     OW54437  13.520  12.992   1.063
17533SOL    HW154438  13.426  13.009   1.074
17533SOL    HW254439  13.525  12.897   1.052
17534SOL     OW54440  10.038   3.455   5.088
17534SOL    HW154441  10.059   3.510   5.164
17534SOL    HW254442  10.053   3.511   5.013
17535SOL     OW54443   9.444   5.029   3.476
17535SOL    HW154444   9.371   5.091   3.478
17535SOL    HW254445   9.494   5.047   3.555
17536SOL     OW54446  11.779  12.504   9.049
17536SOL    HW154447  11.849  12.540   8.995
17536SOL    HW254448  11.711  12.479   8.985
17537SOL     OW54449   5.595   7.219  14.221
17537SOL    HW154450   5.653   7.283  14.179
17537SOL    HW254451   5.636   7.135  14.204
17538SOL     OW54452  11.817   0.276  12.444
17538SOL    HW154453  11.779   0.225  12.373
17538SOL    HW254454  11.910   0.283  12.422
17539SOL     OW54455   3.856   9.837   2.709
17539SOL    HW154456   3.829   9.873   2.624
17539SOL    HW254457   3.951   9.823   2.699
17540SOL     OW54458   1.196   8.098  11.419
17540SOL    HW154459   1.282   8.118  11.381
17540SOL    HW254460   1.195   8.002  11.424
17541SOL     OW54461   4.132   5.017  11.890
17541SOL    HW154462   4.042   5.033  11.917
17541SOL    HW254463   4.145   4.923  11.901
17542SOL     OW54464   9.267  11.741   3.635
17542SOL    HW154465   9.299  11.731   3.724
17542SOL    HW254466   9.172  11.748   3.644
17543SOL     OW54467  11.730   0.162  13.917
17543SOL    HW154468  11.775   0.146  13.834
17543SOL    HW254469  11.732   0.077  13.962
17544SOL     OW54470   5.215  11.418   8.079
17544SOL    HW154471   5.165  11.408   8.159
17544SOL    HW254472   5.306  11.412   8.106
17545SOL     OW54473  12.369   4.173  14.475
17545SOL    HW154474  12.330   4.107  14.418
17545SOL    HW254475  12.321   4.163  14.558
17546SOL     OW54476  14.414   2.235   5.106
17546SOL    HW154477  14.486   2.184   5.143
17546SOL    HW254478  14.361   2.261   5.182
17547SOL     OW54479   0.453   7.428  14.020
17547SOL    HW154480   0.500   7.487  14.079
17547SOL    HW254481   0.372   7.408  14.067
17548SOL     OW54482   7.406   5.935  11.969
17548SOL    HW154483   7.455   5.963  12.046
17548SOL    HW254484   7.444   5.850  11.946
17549SOL     OW54485   2.707  10.285   6.615
17549SOL    HW154486   2.736  10.235   6.692
17549SOL    HW254487   2.770  10.357   6.609
17550SOL     OW54488  12.524   4.446  10.063
17550SOL    HW154489  12.479   4.530  10.054
17550SOL    HW254490  12.498   4.396   9.986
17551SOL     OW54491  13.803   3.374   2.676
17551SOL    HW154492  13.844   3.439   2.620
17551SOL    HW254493  13.738   3.423   2.726
17552SOL     OW54494   8.035   9.531   5.252
17552SOL    HW154495   7.996   9.599   5.197
17552SOL    HW254496   8.124   9.562   5.270
17553SOL     OW54497   1.940   5.022   5.843
17553SOL    HW154498   1.890   4.942   5.857
17553SOL    HW254499   1.878   5.083   5.803
17554SOL     OW54500   2.746  11.239  11.027
17554SOL    HW154501   2.651  11.247  11.015
17554SOL    HW254502   2.779  11.218  10.940
17555SOL     OW54503   6.730  14.770   0.824
17555SOL    HW154504   6.664  14.716   0.780
17555SOL    HW254505   6.801  14.709   0.843
17556SOL     OW54506   0.568   0.452   2.950
17556SOL    HW154507   0.596   0.517   2.886
17556SOL    HW254508   0.552   0.373   2.898
17557SOL     OW54509   5.843   0.705   6.024
17557SOL    HW154510   5.810   0.707   6.114
17557SOL    HW254511   5.938   0.706   6.034
17558SOL     OW54512  13.441  13.907   2.728
17558SOL    HW154513  13.452  13.825   2.679
17558SOL    HW254514  13.519  13.911   2.784
17559SOL     OW54515   9.283   5.908   5.664
17559SOL    HW154516   9.192   5.935   5.662
17559SOL    HW254517   9.306   5.894   5.572
17560SOL     OW54518   4.036   7.120  12.337
17560SOL    HW154519   4.069   7.128  12.426
17560SOL    HW254520   4.038   7.026  12.318
17561SOL     OW54521   5.074   5.359   9.607
17561SOL    HW154522   5.087   5.347   9.512
17561SOL    HW254523   5.117   5.441   9.627
17562SOL     OW54524   4.507  10.258   0.366
17562SOL    HW154525   4.539  10.175   0.402
17562SOL    HW254526   4.571  10.282   0.300
17563SOL     OW54527   9.698   0.475   0.381
17563SOL    HW154528   9.744   0.480   0.464
17563SOL    HW254529   9.721   0.389   0.346
17564SOL     OW54530  10.949   9.199   7.025
17564SOL    HW154531  11.012   9.228   7.091
17564SOL    HW254532  10.864   9.211   7.066
17565SOL     OW54533   6.479  12.938   9.551
17565SOL    HW154534   6.514  12.937   9.640
17565SOL    HW254535   6.461  12.846   9.532
17566SOL     OW54536   9.901  13.684   6.884
17566SOL    HW154537   9.938  13.618   6.825
17566SOL    HW254538   9.826  13.640   6.924
17567SOL     OW54539  11.379   7.916  11.518
17567SOL    HW154540  11.445   7.939  11.452
17567SOL    HW254541  11.352   7.827  11.494
17568SOL     OW54542   5.225   2.943  10.430
17568SOL    HW154543   5.314   2.911  10.449
17568SOL    HW254544   5.220   3.026  10.479
17569SOL     OW54545  14.169   4.209   4.447
17569SOL    HW154546  14.101   4.212   4.379
17569SOL    HW254547  14.228   4.281   4.425
17570SOL     OW54548   9.417   4.416  11.333
17570SOL    HW154549   9.349   4.480  11.312
17570SOL    HW254550   9.399   4.342  11.275
17571SOL     OW54551   6.819   6.026  12.828
17571SOL    HW154552   6.825   5.958  12.895
17571SOL    HW254553   6.735   6.069  12.844
17572SOL     OW54554   6.458  11.949   6.012
17572SOL    HW154555   6.516  12.019   5.984
17572SOL    HW254556   6.376  11.993   6.036
17573SOL     OW54557   5.358   0.501   2.325
17573SOL    HW154558   5.263   0.507   2.319
17573SOL    HW254559   5.383   0.445   2.251
17574SOL     OW54560   4.148   1.257   9.181
17574SOL    HW154561   4.167   1.194   9.111
17574SOL    HW254562   4.068   1.224   9.222
17575SOL     OW54563  13.279  14.677   1.801
17575SOL    HW154564  13.240  14.765   1.802
17575SOL    HW254565  13.239  14.633   1.876
17576SOL     OW54566   3.655   5.446   4.149
17576SOL    HW154567   3.667   5.351   4.146
17576SOL    HW254568   3.612   5.463   4.233
17577SOL     OW54569   9.465   3.696   5.813
17577SOL    HW154570   9.504   3.698   5.901
17577SOL    HW254571   9.371   3.702   5.829
17578SOL     OW54572   1.242  11.083   2.394
17578SOL    HW154573   1.298  11.057   2.467
17578SOL    HW254574   1.153  11.067   2.425
17579SOL     OW54575   6.542  12.247   6.238
17579SOL    HW154576   6.596  12.180   6.197
17579SOL    HW254577   6.487  12.199   6.300
17580SOL     OW54578   8.964   3.388   9.762
17580SOL    HW154579   8.922   3.465   9.801
17580SOL    HW254580   8.912   3.370   9.684
17581SOL     OW54581  11.473   6.566   7.987
17581SOL    HW154582  11.420   6.500   8.033
17581SOL    HW254583  11.515   6.516   7.916
17582SOL     OW54584   0.565   8.372  13.189
17582SOL    HW154585   0.599   8.427  13.260
17582SOL    HW254586   0.575   8.282  13.221
17583SOL     OW54587   1.096   1.463   1.097
17583SOL    HW154588   1.177   1.513   1.084
17583SOL    HW254589   1.102   1.391   1.035
17584SOL     OW54590   3.973   1.178  13.362
17584SOL    HW154591   3.981   1.184  13.457
17584SOL    HW254592   4.030   1.247  13.328
17585SOL     OW54593   6.901  12.937  13.904
17585SOL    HW154594   6.933  12.852  13.932
17585SOL    HW254595   6.807  12.926  13.896
17586SOL     OW54596   4.403  14.739   6.269
17586SOL    HW154597   4.392  14.800   6.196
17586SOL    HW254598   4.467  14.782   6.326
17587SOL     OW54599   2.284   0.871   7.789
17587SOL    HW154600   2.199   0.862   7.745
17587SOL    HW254601   2.297   0.786   7.831
17588SOL     OW54602  14.031  11.173   4.786
17588SOL    HW154603  14.104  11.216   4.829
17588SOL    HW254604  14.001  11.107   4.848
17589SOL     OW54605  13.826   5.154   2.838
17589SOL    HW154606  13.765   5.081   2.838
17589SOL    HW254607  13.780   5.224   2.792
17590SOL     OW54608   0.728  13.686   9.587
17590SOL    HW154609   0.756  13.616   9.527
17590SOL    HW254610   0.632  13.683   9.582
17591SOL     OW54611   8.116   3.384  13.327
17591SOL    HW154612   8.125   3.323  13.254
17591SOL    HW254613   8.123   3.471  13.287
17592SOL     OW54614   9.359   9.405   0.914
17592SOL    HW154615   9.436   9.417   0.970
17592SOL    HW254616   9.379   9.456   0.835
17593SOL     OW54617   4.868  11.744   8.130
17593SOL    HW154618   4.798  11.678   8.124
17593SOL    HW254619   4.827  11.825   8.103
17594SOL     OW54620  10.621  10.703   9.476
17594SOL    HW154621  10.537  10.736   9.508
17594SOL    HW254622  10.673  10.781   9.459
17595SOL     OW54623   0.966   3.622   4.300
17595SOL    HW154624   0.957   3.544   4.245
17595SOL    HW254625   1.060   3.629   4.316
17596SOL     OW54626   1.764  11.538   5.819
17596SOL    HW154627   1.802  11.487   5.890
17596SOL    HW254628   1.696  11.481   5.782
17597SOL     OW54629   7.013   1.985   6.807
17597SOL    HW154630   7.012   2.080   6.806
17597SOL    HW254631   7.104   1.961   6.824
17598SOL     OW54632   9.528  12.267   8.676
17598SOL    HW154633   9.584  12.202   8.719
17598SOL    HW254634   9.545  12.254   8.582
17599SOL     OW54635   4.959   1.053   4.737
17599SOL    HW154636   4.913   1.114   4.794
17599SOL    HW254637   4.900   0.978   4.730
17600SOL     OW54638   0.840   8.803   4.842
17600SOL    HW154639   0.880   8.803   4.755
17600SOL    HW254640   0.800   8.889   4.850
17601SOL     OW54641   3.718  11.571   5.558
17601SOL    HW154642   3.684  11.656   5.529
17601SOL    HW254643   3.667  11.507   5.508
17602SOL     OW54644   8.766   4.216   5.491
17602SOL    HW154645   8.812   4.145   5.445
17602SOL    HW254646   8.737   4.275   5.421
17603SOL     OW54647   9.937  14.182   1.438
17603SOL    HW154648   9.884  14.117   1.392
17603SOL    HW254649   9.891  14.197   1.520
17604SOL     OW54650   7.462   3.251   0.995
17604SOL    HW154651   7.366   3.259   0.994
17604SOL    HW254652   7.493   3.325   0.943
17605SOL     OW54653   1.284   9.345   4.625
17605SOL    HW154654   1.211   9.286   4.643
17605SOL    HW254655   1.312   9.323   4.536
17606SOL     OW54656  13.277   9.582   9.780
17606SOL    HW154657  13.363   9.589   9.738
17606SOL    HW254658  13.270   9.490   9.806
17607SOL     OW54659  10.308   1.182   6.775
17607SOL    HW154660  10.328   1.272   6.751
17607SOL    HW254661  10.390   1.148   6.811
17608SOL     OW54662   6.063   0.383  12.462
17608SOL    HW154663   6.147   0.415  12.495
17608SOL    HW254664   6.005   0.459  12.465
17609SOL     OW54665   6.781   3.195   6.441
17609SOL    HW154666   6.753   3.104   6.429
17609SOL    HW254667   6.868   3.199   6.401
17610SOL     OW54668  12.846  13.859   4.233
17610SOL    HW154669  12.752  13.878   4.243
17610SOL    HW254670  12.861  13.780   4.284
17611SOL     OW54671   9.308   4.823   3.778
17611SOL    HW154672   9.250   4.882   3.825
17611SOL    HW254673   9.253   4.748   3.755
17612SOL     OW54674   9.370   8.465   3.837
17612SOL    HW154675   9.280   8.446   3.810
17612SOL    HW254676   9.384   8.557   3.813
17613SOL     OW54677   4.428  11.576  11.317
17613SOL    HW154678   4.476  11.575  11.400
17613SOL    HW254679   4.484  11.625  11.257
17614SOL     OW54680   7.195   7.405   9.615
17614SOL    HW154681   7.168   7.472   9.553
17614SOL    HW254682   7.275   7.368   9.577
17615SOL     OW54683  13.757   8.880   5.771
17615SOL    HW154684  13.729   8.820   5.840
17615SOL    HW254685  13.768   8.964   5.815
17616SOL     OW54686   8.892   1.107  13.696
17616SOL    HW154687   8.980   1.108  13.659
17616SOL    HW254688   8.898   1.048  13.771
17617SOL     OW54689   4.772   5.876   1.512
17617SOL    HW154690   4.816   5.959   1.494
17617SOL    HW254691   4.679   5.895   1.501
17618SOL     OW54692   3.385   9.649  12.648
17618SOL    HW154693   3.327   9.578  12.622
17618SOL    HW254694   3.423   9.620  12.731
17619SOL     OW54695   8.095  14.179  12.024
17619SOL    HW154696   8.094  14.123  11.946
17619SOL    HW254697   8.144  14.257  11.996
17620SOL     OW54698  11.690   8.195  13.507
17620SOL    HW154699  11.784   8.174  13.498
17620SOL    HW254700  11.664   8.222  13.419
17621SOL     OW54701  11.189   4.473   7.750
17621SOL    HW154702  11.239   4.554   7.748
17621SOL    HW254703  11.233   4.418   7.815
17622SOL     OW54704  14.740  14.291   9.647
17622SOL    HW154705  14.645  14.294   9.661
17622SOL    HW254706  14.768  14.210   9.690
17623SOL     OW54707   6.737  12.252   3.415
17623SOL    HW154708   6.769  12.164   3.435
17623SOL    HW254709   6.802  12.311   3.453
17624SOL     OW54710   0.794   5.318   8.549
17624SOL    HW154711   0.824   5.397   8.506
17624SOL    HW254712   0.837   5.318   8.634
17625SOL     OW54713   8.247   1.878   8.947
17625SOL    HW154714   8.317   1.861   8.883
17625SOL    HW254715   8.234   1.793   8.990
17626SOL     OW54716  10.920  14.355   7.310
17626SOL    HW154717  10.948  14.279   7.259
17626SOL    HW254718  11.001  14.400   7.334
17627SOL     OW54719   6.675  13.752   4.482
17627SOL    HW154720   6.601  13.811   4.493
17627SOL    HW254721   6.696  13.757   4.389
17628SOL     OW54722   4.507  13.264   9.863
17628SOL    HW154723   4.521  13.172   9.839
17628SOL    HW254724   4.588  13.308   9.837
17629SOL     OW54725   5.772   8.285   2.645
17629SOL    HW154726   5.850   8.328   2.681
17629SOL    HW254727   5.768   8.201   2.691
17630SOL     OW54728   6.179  11.970  10.425
17630SOL    HW154729   6.084  11.954  10.421
17630SOL    HW254730   6.204  11.946  10.514
17631SOL     OW54731   3.261   2.327  12.985
17631SOL    HW154732   3.326   2.281  13.039
17631SOL    HW254733   3.251   2.272  12.908
17632SOL     OW54734   2.898   3.882  12.561
17632SOL    HW154735   2.990   3.904  12.572
17632SOL    HW254736   2.862   3.884  12.650
17633SOL     OW54737   2.268  10.528   8.114
17633SOL    HW154738   2.324  10.605   8.123
17633SOL    HW254739   2.184  10.563   8.085
17634SOL     OW54740   3.985   3.508  14.684
17634SOL    HW154741   4.034   3.497  14.765
17634SOL    HW254742   3.983   3.421  14.644
17635SOL     OW54743   7.980   9.424   7.341
17635SOL    HW154744   7.900   9.475   7.334
17635SOL    HW254745   7.991   9.383   7.255
17636SOL     OW54746   5.982   3.576   6.907
17636SOL    HW154747   6.012   3.545   6.993
17636SOL    HW254748   5.950   3.497   6.863
17637SOL     OW54749   2.749   9.484   1.401
17637SOL    HW154750   2.797   9.556   1.359
17637SOL    HW254751   2.689   9.528   1.461
17638SOL     OW54752  13.342   3.719  11.759
17638SOL    HW154753  13.405   3.757  11.698
17638SOL    HW254754  13.389   3.646  11.800
17639SOL     OW54755   7.633   7.469   7.006
17639SOL    HW154756   7.568   7.432   7.066
17639SOL    HW254757   7.708   7.409   7.012
17640SOL     OW54758  14.123   7.878  13.036
17640SOL    HW154759  14.123   7.901  12.943
17640SOL    HW254760  14.032   7.855  13.055
17641SOL     OW54761  12.014  10.984   2.564
17641SOL    HW154762  11.957  10.919   2.524
17641SOL    HW254763  11.957  11.034   2.623
17642SOL     OW54764   4.446  10.845   6.675
17642SOL    HW154765   4.484  10.781   6.614
17642SOL    HW254766   4.513  10.858   6.742
17643SOL     OW54767   4.370   1.062   3.081
17643SOL    HW154768   4.390   0.994   3.145
17643SOL    HW254769   4.435   1.130   3.097
17644SOL     OW54770  12.183   7.762   2.137
17644SOL    HW154771  12.230   7.705   2.198
17644SOL    HW254772  12.133   7.821   2.193
17645SOL     OW54773   6.491   6.865   6.613
17645SOL    HW154774   6.511   6.958   6.604
17645SOL    HW254775   6.525   6.841   6.699
17646SOL     OW54776   7.428   9.783  13.077
17646SOL    HW154777   7.336   9.795  13.099
17646SOL    HW254778   7.434   9.693  13.046
17647SOL     OW54779   0.504   4.025   3.578
17647SOL    HW154780   0.469   4.029   3.489
17647SOL    HW254781   0.429   4.000   3.632
17648SOL     OW54782  10.587   3.710   9.457
17648SOL    HW154783  10.571   3.799   9.425
17648SOL    HW254784  10.677   3.712   9.489
17649SOL     OW54785  12.218   0.660   4.207
17649SOL    HW154786  12.192   0.646   4.116
17649SOL    HW254787  12.308   0.627   4.212
17650SOL     OW54788  14.037   6.445  14.224
17650SOL    HW154789  14.094   6.502  14.275
17650SOL    HW254790  13.970   6.417  14.286
17651SOL     OW54791   6.199   4.895   9.228
17651SOL    HW154792   6.293   4.880   9.213
17651SOL    HW254793   6.188   4.880   9.322
17652SOL     OW54794   4.936   8.492   2.902
17652SOL    HW154795   4.979   8.479   2.987
17652SOL    HW254796   4.999   8.459   2.838
17653SOL     OW54797  11.211   2.157  13.974
17653SOL    HW154798  11.126   2.127  14.007
17653SOL    HW254799  11.235   2.230  14.031
17654SOL     OW54800  13.374   4.451   1.684
17654SOL    HW154801  13.460   4.410   1.697
17654SOL    HW254802  13.388   4.513   1.612
17655SOL     OW54803  14.333   7.922  14.581
17655SOL    HW154804  14.287   7.846  14.547
17655SOL    HW254805  14.267   7.971  14.630
17656SOL     OW54806   2.083  14.539   2.793
17656SOL    HW154807   2.075  14.478   2.866
17656SOL    HW254808   2.096  14.624   2.834
17657SOL     OW54809  11.516   8.790  13.293
17657SOL    HW154810  11.453   8.748  13.234
17657SOL    HW254811  11.502   8.747  13.377
17658SOL     OW54812   6.965   6.963   3.771
17658SOL    HW154813   6.872   6.947   3.760
17658SOL    HW254814   6.972   7.004   3.858
17659SOL     OW54815   0.021  10.765   2.993
17659SOL    HW154816   0.103  10.813   3.006
17659SOL    HW254817   0.046  10.673   3.006
17660SOL     OW54818   7.682  14.144   7.805
17660SOL    HW154819   7.730  14.187   7.876
17660SOL    HW254820   7.613  14.094   7.848
17661SOL     OW54821   5.874   6.348  13.438
17661SOL    HW154822   5.908   6.296  13.510
17661SOL    HW254823   5.834   6.284  13.379
17662SOL     OW54824   6.352   8.077   3.416
17662SOL    HW154825   6.378   8.020   3.344
17662SOL    HW254826   6.434   8.111   3.450
17663SOL     OW54827  12.608   3.113   2.009
17663SOL    HW154828  12.637   3.149   2.093
17663SOL    HW254829  12.516   3.139   2.003
17664SOL     OW54830   5.896   2.899   5.418
17664SOL    HW154831   5.906   2.992   5.396
17664SOL    HW254832   5.916   2.894   5.511
17665SOL     OW54833  14.554   6.741   7.593
17665SOL    HW154834  14.519   6.676   7.533
17665SOL    HW254835  14.531   6.825   7.554
17666SOL     OW54836  12.049   6.084   6.826
17666SOL    HW154837  12.072   6.143   6.754
17666SOL    HW254838  12.099   6.004   6.809
17667SOL     OW54839   8.826   7.153  14.563
17667SOL    HW154840   8.764   7.148  14.491
17667SOL    HW254841   8.773   7.145  14.642
17668SOL     OW54842  12.067   1.771   8.825
17668SOL    HW154843  12.124   1.713   8.774
17668SOL    HW254844  12.127   1.828   8.873
17669SOL     OW54845  14.438  12.451   5.592
17669SOL    HW154846  14.525  12.482   5.616
17669SOL    HW254847  14.454  12.376   5.535
17670SOL     OW54848  13.820   9.982  13.965
17670SOL    HW154849  13.771  10.010  14.042
17670SOL    HW254850  13.912   9.992  13.990
17671SOL     OW54851   5.621   8.999  14.698
17671SOL    HW154852   5.546   9.024  14.752
17671SOL    HW254853   5.665   8.930  14.748
17672SOL     OW54854   4.080  10.328   3.784
17672SOL    HW154855   4.070  10.272   3.707
17672SOL    HW254856   4.016  10.399   3.771
17673SOL     OW54857  10.690   6.480   3.831
17673SOL    HW154858  10.785   6.473   3.843
17673SOL    HW254859  10.667   6.562   3.876
17674SOL     OW54860   2.970   6.462   9.885
17674SOL    HW154861   2.912   6.415   9.945
17674SOL    HW254862   3.051   6.474   9.935
17675SOL     OW54863  10.096   9.744   6.252
17675SOL    HW154864  10.181   9.707   6.272
17675SOL    HW254865  10.053   9.754   6.337
17676SOL     OW54866   2.312   6.117   8.582
17676SOL    HW154867   2.281   6.204   8.608
17676SOL    HW254868   2.254   6.092   8.510
17677SOL     OW54869  10.763  11.000  12.928
17677SOL    HW154870  10.858  10.987  12.933
17677SOL    HW254871  10.746  11.073  12.988
17678SOL     OW54872   9.452  14.212   2.071
17678SOL    HW154873   9.487  14.284   2.124
17678SOL    HW254874   9.368  14.191   2.112
17679SOL     OW54875  11.499  13.095   3.430
17679SOL    HW154876  11.496  13.139   3.346
17679SOL    HW254877  11.490  13.165   3.495
17680SOL     OW54878   6.097  12.695  14.311
17680SOL    HW154879   6.147  12.702  14.230
17680SOL    HW254880   6.113  12.778  14.357
17681SOL     OW54881   6.905   4.021   5.454
17681SOL    HW154882   6.930   4.113   5.451
17681SOL    HW254883   6.987   3.974   5.469
17682SOL     OW54884   7.009   5.464   1.469
17682SOL    HW154885   7.040   5.391   1.414
17682SOL    HW254886   7.071   5.468   1.541
17683SOL     OW54887  12.998   1.833   6.773
17683SOL    HW154888  13.090   1.825   6.746
17683SOL    HW254889  12.949   1.808   6.695
17684SOL     OW54890  14.715   8.814  10.578
17684SOL    HW154891  14.737   8.722  10.563
17684SOL    HW254892  14.688   8.846  10.492
17685SOL     OW54893   2.170  12.098  11.968
17685SOL    HW154894   2.081  12.064  11.974
17685SOL    HW254895   2.207  12.055  11.891
17686SOL     OW54896   4.971   3.394  11.307
17686SOL    HW154897   4.918   3.425  11.233
17686SOL    HW254898   5.056   3.371  11.267
17687SOL     OW54899  10.435   4.822   0.739
17687SOL    HW154900  10.366   4.758   0.721
17687SOL    HW254901  10.441   4.825   0.834
17688SOL     OW54902   9.725  12.071   3.079
17688SOL    HW154903   9.677  12.048   2.999
17688SOL    HW254904   9.683  12.151   3.110
17689SOL     OW54905  14.086   4.523   1.337
17689SOL    HW154906  13.998   4.535   1.301
17689SOL    HW254907  14.072   4.504   1.429
17690SOL     OW54908  13.675  13.527  10.279
17690SOL    HW154909  13.718  13.601  10.236
17690SOL    HW254910  13.617  13.568  10.344
17691SOL     OW54911  12.953   3.934   0.559
17691SOL    HW154912  13.001   3.877   0.620
17691SOL    HW254913  13.000   3.925   0.477
17692SOL     OW54914   5.855   3.705   3.995
17692SOL    HW154915   5.946   3.721   4.019
17692SOL    HW254916   5.803   3.746   4.065
17693SOL     OW54917   5.259   6.039  13.283
17693SOL    HW154918   5.338   6.088  13.304
17693SOL    HW254919   5.187   6.101  13.296
17694SOL     OW54920   9.273   9.628  13.888
17694SOL    HW154921   9.183   9.660  13.891
17694SOL    HW254922   9.320   9.694  13.836
17695SOL     OW54923   1.633   0.232   7.431
17695SOL    HW154924   1.617   0.139   7.447
17695SOL    HW254925   1.667   0.236   7.342
17696SOL     OW54926  12.516   6.944  11.150
17696SOL    HW154927  12.509   6.853  11.178
17696SOL    HW254928  12.441   6.957  11.093
17697SOL     OW54929  10.017   1.656   9.298
17697SOL    HW154930   9.923   1.637   9.286
17697SOL    HW254931  10.029   1.657   9.393
17698SOL     OW54932   1.135   7.394   4.681
17698SOL    HW154933   1.201   7.326   4.696
17698SOL    HW254934   1.181   7.476   4.698
17699SOL     OW54935   6.693   4.001  11.803
17699SOL    HW154936   6.786   4.022  11.802
17699SOL    HW254937   6.651   4.083  11.831
17700SOL     OW54938   4.825  11.832   6.354
17700SOL    HW154939   4.802  11.818   6.262
17700SOL    HW254940   4.872  11.753   6.380
17701SOL     OW54941   2.584   8.923   6.229
17701SOL    HW154942   2.538   9.001   6.258
17701SOL    HW254943   2.644   8.953   6.161
17702SOL     OW54944   5.189   3.862   1.204
17702SOL    HW154945   5.197   3.801   1.277
17702SOL    HW254946   5.105   3.841   1.163
17703SOL     OW54947   1.936  14.849  12.323
17703SOL    HW154948   1.947   0.021  12.405
17703SOL    HW254949   2.022  14.811  12.305
17704SOL     OW54950   9.324   8.697  11.640
17704SOL    HW154951   9.404   8.647  11.625
17704SOL    HW254952   9.283   8.654  11.715
17705SOL     OW54953   9.141   8.898   7.691
17705SOL    HW154954   9.145   8.952   7.612
17705SOL    HW254955   9.229   8.860   7.698
17706SOL     OW54956  12.365   4.475   8.841
17706SOL    HW154957  12.374   4.465   8.936
17706SOL    HW254958  12.386   4.567   8.824
17707SOL     OW54959  12.414  13.951  12.371
17707SOL    HW154960  12.332  13.999  12.364
17707SOL    HW254961  12.407  13.902  12.453
17708SOL     OW54962  10.375   5.491   5.717
17708SOL    HW154963  10.295   5.454   5.756
17708SOL    HW254964  10.350   5.580   5.693
17709SOL     OW54965   6.967   3.750  14.115
17709SOL    HW154966   6.940   3.700  14.038
17709SOL    HW254967   6.958   3.841  14.088
17710SOL     OW54968   0.503   3.196   5.124
17710SOL    HW154969   0.488   3.116   5.074
17710SOL    HW254970   0.573   3.241   5.077
17711SOL     OW54971   0.732   6.062   1.282
17711SOL    HW154972   0.689   6.039   1.200
17711SOL    HW254973   0.772   5.980   1.312
17712SOL     OW54974   9.795  14.513  12.726
17712SOL    HW154975   9.867  14.558  12.770
17712SOL    HW254976   9.835  14.437  12.685
17713SOL     OW54977   8.655   3.126  10.831
17713SOL    HW154978   8.680   3.172  10.911
17713SOL    HW254979   8.736   3.084  10.802
17714SOL     OW54980   1.389   8.167   3.886
17714SOL    HW154981   1.361   8.083   3.924
17714SOL    HW254982   1.380   8.155   3.791
17715SOL     OW54983  11.301   8.551  12.855
17715SOL    HW154984  11.341   8.619  12.801
17715SOL    HW254985  11.207   8.565  12.846
17716SOL     OW54986  13.025  10.367   1.939
17716SOL    HW154987  12.971  10.443   1.961
17716SOL    HW254988  13.049  10.381   1.847
17717SOL     OW54989   6.981   1.517   8.233
17717SOL    HW154990   7.049   1.460   8.269
17717SOL    HW254991   7.010   1.532   8.142
17718SOL     OW54992   4.940   3.721   2.072
17718SOL    HW154993   4.889   3.802   2.062
17718SOL    HW254994   4.958   3.715   2.166
17719SOL     OW54995  11.377  11.910   0.876
17719SOL    HW154996  11.451  11.970   0.865
17719SOL    HW254997  11.316  11.933   0.806
17720SOL     OW54998   7.652   1.935   6.447
17720SOL    HW154999   7.558   1.935   6.427
17720SOL    HW255000   7.661   1.872   6.519
17721SOL     OW55001  14.502   1.312   1.036
17721SOL    HW155002  14.529   1.389   0.985
17721SOL    HW255003  14.440   1.347   1.100
17722SOL     OW55004   7.231   3.602   7.031
17722SOL    HW155005   7.309   3.581   7.082
17722SOL    HW255006   7.264   3.635   6.948
17723SOL     OW55007   3.269   4.985  12.766
17723SOL    HW155008   3.355   4.993  12.726
17723SOL    HW255009   3.278   5.024  12.852
17724SOL     OW55010   4.784   6.216   2.214
17724SOL    HW155011   4.837   6.295   2.229
17724SOL    HW255012   4.827   6.148   2.267
17725SOL     OW55013   8.756   4.818  14.837
17725SOL    HW155014   8.812   4.895  14.844
17725SOL    HW255015   8.695   4.839  14.766
17726SOL     OW55016  12.280  13.702  14.280
17726SOL    HW155017  12.371  13.731  14.279
17726SOL    HW255018  12.286  13.607  14.297
17727SOL     OW55019   3.606  14.293  10.851
17727SOL    HW155020   3.659  14.231  10.800
17727SOL    HW255021   3.598  14.252  10.937
17728SOL     OW55022   3.614   9.760   9.911
17728SOL    HW155023   3.674   9.733   9.980
17728SOL    HW255024   3.531   9.776   9.955
17729SOL     OW55025   2.587   0.249   9.329
17729SOL    HW155026   2.575   0.206   9.245
17729SOL    HW255027   2.577   0.342   9.311
17730SOL     OW55028  13.990   5.008   4.467
17730SOL    HW155029  14.080   5.028   4.443
17730SOL    HW255030  13.947   4.988   4.383
17731SOL     OW55031  14.683   3.324  14.015
17731SOL    HW155032  14.678   3.251  13.954
17731SOL    HW255033  14.635   3.395  13.972
17732SOL     OW55034   0.854   8.157  12.152
17732SOL    HW155035   0.906   8.234  12.173
17732SOL    HW255036   0.781   8.190  12.100
17733SOL     OW55037   5.092   2.624   0.491
17733SOL    HW155038   5.071   2.668   0.409
17733SOL    HW255039   5.024   2.558   0.502
17734SOL     OW55040   3.398  10.710  14.662
17734SOL    HW155041   3.448  10.738  14.738
17734SOL    HW255042   3.327  10.774  14.655
17735SOL     OW55043   9.407   2.751   7.459
17735SOL    HW155044   9.437   2.660   7.464
17735SOL    HW255045   9.483   2.803   7.486
17736SOL     OW55046  11.937   0.596   2.654
17736SOL    HW155047  11.994   0.667   2.682
17736SOL    HW255048  11.997   0.528   2.622
17737SOL     OW55049  14.266   3.020   4.627
17737SOL    HW155050  14.185   3.015   4.678
17737SOL    HW255051  14.262   3.106   4.585
17738SOL     OW55052   7.218   2.120   0.415
17738SOL    HW155053   7.192   2.156   0.499
17738SOL    HW255054   7.163   2.165   0.351
17739SOL     OW55055   3.799  13.479   3.873
17739SOL    HW155056   3.823  13.495   3.964
17739SOL    HW255057   3.880  13.449   3.832
17740SOL     OW55058  14.311   5.384   9.322
17740SOL    HW155059  14.285   5.414   9.236
17740SOL    HW255060  14.232   5.391   9.375
17741SOL     OW55061   1.200  14.562   1.309
17741SOL    HW155062   1.139  14.635   1.323
17741SOL    HW255063   1.209  14.557   1.214
17742SOL     OW55064  11.186   8.267  13.289
17742SOL    HW155065  11.252   8.202  13.263
17742SOL    HW255066  11.232   8.351  13.288
17743SOL     OW55067   1.463   4.566   3.973
17743SOL    HW155068   1.444   4.543   4.064
17743SOL    HW255069   1.450   4.485   3.925
17744SOL     OW55070  12.949   0.086  12.737
17744SOL    HW155071  12.889   0.044  12.676
17744SOL    HW255072  12.974   0.168  12.693
17745SOL     OW55073   6.316   3.290   9.425
17745SOL    HW155074   6.339   3.363   9.367
17745SOL    HW255075   6.222   3.298   9.436
17746SOL     OW55076   4.520   2.923   1.031
17746SOL    HW155077   4.554   2.984   0.966
17746SOL    HW255078   4.480   2.853   0.979
17747SOL     OW55079   1.983   2.841   7.239
17747SOL    HW155080   2.002   2.759   7.284
17747SOL    HW255081   2.056   2.852   7.177
17748SOL     OW55082   8.327   5.465   3.050
17748SOL    HW155083   8.406   5.416   3.071
17748SOL    HW255084   8.289   5.419   2.975
17749SOL     OW55085   0.315   3.357  12.416
17749SOL    HW155086   0.360   3.299  12.354
17749SOL    HW255087   0.382   3.419  12.444
17750SOL     OW55088   6.291   6.843  13.590
17750SOL    HW155089   6.274   6.765  13.642
17750SOL    HW255090   6.272   6.817  13.500
17751SOL     OW55091  12.312   0.820   8.386
17751SOL    HW155092  12.242   0.764   8.354
17751SOL    HW255093  12.269   0.885   8.442
17752SOL     OW55094   0.407   7.008  12.403
17752SOL    HW155095   0.431   7.031  12.493
17752SOL    HW255096   0.338   7.071  12.380
17753SOL     OW55097   9.397  11.327  14.126
17753SOL    HW155098   9.461  11.328  14.198
17753SOL    HW255099   9.312  11.336  14.168
17754SOL     OW55100   4.296   0.213   1.998
17754SOL    HW155101   4.230   0.143   1.997
17754SOL    HW255102   4.297   0.246   1.908
17755SOL     OW55103  14.270   9.741  12.837
17755SOL    HW155104  14.327   9.664  12.834
17755SOL    HW255105  14.205   9.725  12.768
17756SOL     OW55106  10.558  14.132   2.834
17756SOL    HW155107  10.540  14.053   2.885
17756SOL    HW255108  10.508  14.120   2.753
17757SOL     OW55109   1.118   4.315   3.247
17757SOL    HW155110   1.097   4.382   3.312
17757SOL    HW255111   1.112   4.361   3.163
17758SOL     OW55112  12.730   5.135   4.038
17758SOL    HW155113  12.726   5.042   4.058
17758SOL    HW255114  12.672   5.147   3.963
17759SOL     OW55115   5.024   1.571   8.342
17759SOL    HW155116   4.957   1.507   8.367
17759SOL    HW255117   5.053   1.543   8.255
17760SOL     OW55118   0.931   8.609   0.167
17760SOL    HW155119   1.019   8.639   0.142
17760SOL    HW255120   0.946   8.544   0.235
17761SOL     OW55121   2.045   2.577   2.138
17761SOL    HW155122   2.123   2.630   2.129
17761SOL    HW255123   1.972   2.638   2.126
17762SOL     OW55124   8.459   1.495   9.267
17762SOL    HW155125   8.461   1.406   9.304
17762SOL    HW255126   8.550   1.525   9.274
17763SOL     OW55127   3.290   1.697   1.517
17763SOL    HW155128   3.206   1.690   1.564
17763SOL    HW255129   3.354   1.662   1.578
17764SOL     OW55130  11.680   6.083   1.989
17764SOL    HW155131  11.658   5.990   1.993
17764SOL    HW255132  11.653   6.118   2.073
17765SOL     OW55133   9.259  14.520   7.912
17765SOL    HW155134   9.168  14.539   7.935
17765SOL    HW255135   9.300  14.499   7.996
17766SOL     OW55136   5.704   7.790  12.553
17766SOL    HW155137   5.669   7.871  12.516
17766SOL    HW255138   5.725   7.736  12.476
17767SOL     OW55139  14.381   4.179   7.584
17767SOL    HW155140  14.367   4.090   7.550
17767SOL    HW255141  14.466   4.174   7.627
17768SOL     OW55142   2.098   9.753   4.714
17768SOL    HW155143   2.059   9.839   4.695
17768SOL    HW255144   2.169   9.771   4.775
17769SOL     OW55145   3.980   6.246   4.523
17769SOL    HW155146   3.997   6.194   4.445
17769SOL    HW255147   3.921   6.316   4.494
17770SOL     OW55148  13.219   4.386  11.594
17770SOL    HW155149  13.245   4.328  11.523
17770SOL    HW255150  13.270   4.466  11.580
17771SOL     OW55151   3.553   1.635   7.003
17771SOL    HW155152   3.504   1.674   7.076
17771SOL    HW255153   3.582   1.550   7.037
17772SOL     OW55154   2.889   9.874   5.369
17772SOL    HW155155   2.814   9.817   5.350
17772SOL    HW255156   2.854   9.939   5.430
17773SOL     OW55157   9.046  12.030   4.091
17773SOL    HW155158   9.067  11.991   4.176
17773SOL    HW255159   9.126  12.076   4.065
17774SOL     OW55160   8.434  12.519   6.063
17774SOL    HW155161   8.496  12.592   6.056
17774SOL    HW255162   8.456  12.462   5.989
17775SOL     OW55163  14.649  12.312   3.094
17775SOL    HW155164  14.560  12.344   3.110
17775SOL    HW255165  14.657  12.308   2.999
17776SOL     OW55166   3.845   5.236  13.549
17776SOL    HW155167   3.880   5.234  13.460
17776SOL    HW255168   3.898   5.300  13.595
17777SOL     OW55169   6.188  12.868   4.648
17777SOL    HW155170   6.127  12.795   4.664
17777SOL    HW255171   6.233  12.844   4.567
17778SOL     OW55172   8.476   8.334  11.933
17778SOL    HW155173   8.396   8.317  11.982
17778SOL    HW255174   8.494   8.253  11.887
17779SOL     OW55175  11.800   3.120   6.349
17779SOL    HW155176  11.737   3.178   6.305
17779SOL    HW255177  11.840   3.175   6.417
17780SOL     OW55178   4.785   0.850  12.895
17780SOL    HW155179   4.719   0.835  12.828
17780SOL    HW255180   4.833   0.927  12.864
17781SOL     OW55181   0.252   0.576   9.422
17781SOL    HW155182   0.314   0.515   9.463
17781SOL    HW255183   0.190   0.598   9.491
17782SOL     OW55184   7.436  10.485  12.167
17782SOL    HW155185   7.492  10.447  12.234
17782SOL    HW255186   7.471  10.451  12.084
17783SOL     OW55187  10.620   4.827   3.320
17783SOL    HW155188  10.682   4.867   3.259
17783SOL    HW255189  10.672   4.765   3.370
17784SOL     OW55190   7.461   0.911   6.458
17784SOL    HW155191   7.378   0.866   6.479
17784SOL    HW255192   7.460   0.919   6.363
17785SOL     OW55193   5.177  12.441   5.535
17785SOL    HW155194   5.165  12.433   5.440
17785SOL    HW255195   5.093  12.476   5.566
17786SOL     OW55196   3.812   0.017   1.408
17786SOL    HW155197   3.734  14.855   1.449
17786SOL    HW255198   3.783   0.041   1.320
17787SOL     OW55199  12.075  12.837  14.539
17787SOL    HW155200  12.156  12.810  14.581
17787SOL    HW255201  12.045  12.758  14.492
17788SOL     OW55202  12.098  10.329   1.983
17788SOL    HW155203  12.171  10.349   1.925
17788SOL    HW255204  12.139  10.293   2.062
17789SOL     OW55205   4.282   0.425  12.920
17789SOL    HW155206   4.325   0.506  12.949
17789SOL    HW255207   4.342   0.388  12.855
17790SOL     OW55208   0.000   4.843   5.831
17790SOL    HW155209  14.810   4.775   5.837
17790SOL    HW255210   0.062   4.823   5.901
17791SOL     OW55211  13.314   5.019  12.981
17791SOL    HW155212  13.362   4.959  12.924
17791SOL    HW255213  13.370   5.029  13.058
17792SOL     OW55214   1.737   4.985  10.257
17792SOL    HW155215   1.777   4.999  10.171
17792SOL    HW255216   1.691   5.067  10.275
17793SOL     OW55217   9.639   4.219  10.183
17793SOL    HW155218   9.592   4.208  10.266
17793SOL    HW255219   9.729   4.239  10.210
17794SOL     OW55220   3.946  14.265   2.253
17794SOL    HW155221   3.959  14.287   2.345
17794SOL    HW255222   3.999  14.187   2.239
17795SOL     OW55223  12.564  13.906  11.529
17795SOL    HW155224  12.553  13.990  11.485
17795SOL    HW255225  12.476  13.884  11.562
17796SOL     OW55226  10.729   1.721   8.317
17796SOL    HW155227  10.796   1.671   8.270
17796SOL    HW255228  10.668   1.655   8.350
17797SOL     OW55229   2.224   4.202  10.396
17797SOL    HW155230   2.171   4.168  10.324
17797SOL    HW255231   2.258   4.124  10.440
17798SOL     OW55232  14.589   9.341   7.735
17798SOL    HW155233  14.496   9.320   7.729
17798SOL    HW255234  14.591   9.434   7.759
17799SOL     OW55235   5.176  13.458   7.378
17799SOL    HW155236   5.107  13.445   7.312
17799SOL    HW255237   5.137  13.426   7.459
17800SOL     OW55238  14.873   6.709  11.739
17800SOL    HW155239   0.049   6.734  11.815
17800SOL    HW255240   0.060   6.676  11.676
17801SOL     OW55241   7.696  12.311   7.587
17801SOL    HW155242   7.782  12.278   7.560
17801SOL    HW255243   7.658  12.346   7.506
17802SOL     OW55244   0.163   0.816   6.403
17802SOL    HW155245   0.104   0.863   6.462
17802SOL    HW255246   0.248   0.819   6.448
17803SOL     OW55247  13.625  11.657   8.618
17803SOL    HW155248  13.589  11.729   8.567
17803SOL    HW255249  13.641  11.694   8.704
17804SOL     OW55250  14.586  13.494  13.918
17804SOL    HW155251  14.583  13.434  13.843
17804SOL    HW255252  14.535  13.450  13.986
17805SOL     OW55253   0.930   8.641   1.953
17805SOL    HW155254   1.000   8.624   2.015
17805SOL    HW255255   0.870   8.567   1.963
17806SOL     OW55256   4.289   9.746  13.972
17806SOL    HW155257   4.201   9.709  13.968
17806SOL    HW255258   4.278   9.839  13.954
17807SOL     OW55259   0.727   1.411   7.586
17807SOL    HW155260   0.639   1.447   7.575
17807SOL    HW255261   0.723   1.362   7.668
17808SOL     OW55262  13.504   3.472   9.448
17808SOL    HW155263  13.434   3.537   9.448
17808SOL    HW255264  13.459   3.388   9.458
17809SOL     OW55265   4.508  12.688  11.952
17809SOL    HW155266   4.540  12.624  11.889
17809SOL    HW255267   4.476  12.635  12.025
17810SOL     OW55268  10.555  14.336  12.109
17810SOL    HW155269  10.506  14.349  12.028
17810SOL    HW255270  10.606  14.417  12.119
17811SOL     OW55271   4.276   3.914   7.008
17811SOL    HW155272   4.362   3.956   7.006
17811SOL    HW255273   4.295   3.821   6.995
17812SOL     OW55274  12.703  11.752   0.642
17812SOL    HW155275  12.610  11.770   0.658
17812SOL    HW255276  12.749  11.826   0.682
17813SOL     OW55277   7.526  11.174   5.938
17813SOL    HW155278   7.541  11.261   5.902
17813SOL    HW255279   7.581  11.116   5.886
17814SOL     OW55280   0.415   4.142   9.274
17814SOL    HW155281   0.349   4.173   9.212
17814SOL    HW255282   0.447   4.222   9.317
17815SOL     OW55283   1.103   0.557  10.945
17815SOL    HW155284   1.018   0.589  10.914
17815SOL    HW255285   1.129   0.621  11.012
17816SOL     OW55286  10.493   5.372  11.960
17816SOL    HW155287  10.417   5.412  11.917
17816SOL    HW255288  10.563   5.437  11.950
17817SOL     OW55289  13.114   2.995  10.678
17817SOL    HW155290  13.159   2.993  10.763
17817SOL    HW255291  13.078   3.083  10.673
17818SOL     OW55292   1.859   5.289  11.430
17818SOL    HW155293   1.843   5.236  11.508
17818SOL    HW255294   1.782   5.346  11.423
17819SOL     OW55295  10.717  10.664   1.911
17819SOL    HW155296  10.784  10.671   1.842
17819SOL    HW255297  10.634  10.669   1.863
17820SOL     OW55298  11.867   4.182   3.862
17820SOL    HW155299  11.882   4.158   3.771
17820SOL    HW255300  11.952   4.213   3.893
17821SOL     OW55301  12.254   5.303  10.499
17821SOL    HW155302  12.322   5.310  10.567
17821SOL    HW255303  12.174   5.283  10.548
17822SOL     OW55304   8.986   6.139  10.547
17822SOL    HW155305   8.912   6.094  10.508
17822SOL    HW255306   8.947   6.200  10.610
17823SOL     OW55307   0.696   8.171  14.120
17823SOL    HW155308   0.767   8.235  14.119
17823SOL    HW255309   0.690   8.142  14.211
17824SOL     OW55310   6.904   4.567  14.867
17824SOL    HW155311   6.985   4.575   0.041
17824SOL    HW255312   6.847   4.514   0.045
17825SOL     OW55313   0.356  10.844   7.704
17825SOL    HW155314   0.417  10.772   7.722
17825SOL    HW255315   0.401  10.922   7.738
17826SOL     OW55316   8.006   9.938   6.091
17826SOL    HW155317   8.039   9.935   6.181
17826SOL    HW255318   8.081   9.968   6.039
17827SOL     OW55319   0.292   0.719  14.616
17827SOL    HW155320   0.296   0.658  14.690
17827SOL    HW255321   0.222   0.684  14.561
17828SOL     OW55322   5.728   5.368   7.967
17828SOL    HW155323   5.771   5.381   7.883
17828SOL    HW255324   5.800   5.347   8.027
17829SOL     OW55325   2.292  14.662   2.265
17829SOL    HW155326   2.219  14.661   2.203
17829SOL    HW255327   2.303  14.755   2.287
17830SOL     OW55328   2.638  10.508  11.438
17830SOL    HW155329   2.632  10.536  11.346
17830SOL    HW255330   2.693  10.575  11.480
17831SOL     OW55331   1.519   6.884   4.508
17831SOL    HW155332   1.511   6.801   4.554
17831SOL    HW255333   1.609   6.913   4.525
17832SOL     OW55334   9.148  10.243   9.298
17832SOL    HW155335   9.114  10.227   9.209
17832SOL    HW255336   9.116  10.168   9.349
17833SOL     OW55337  13.386   0.254   8.722
17833SOL    HW155338  13.336   0.256   8.640
17833SOL    HW255339  13.403   0.346   8.742
17834SOL     OW55340   1.721   8.927   5.040
17834SOL    HW155341   1.647   8.986   5.057
17834SOL    HW255342   1.779   8.939   5.115
17835SOL     OW55343   9.366  11.225   2.319
17835SOL    HW155344   9.380  11.145   2.369
17835SOL    HW255345   9.273  11.243   2.327
17836SOL     OW55346   3.566   6.086   4.568
17836SOL    HW155347   3.565   6.175   4.603
17836SOL    HW255348   3.536   6.096   4.478
17837SOL     OW55349   0.716   6.660   6.940
17837SOL    HW155350   0.679   6.748   6.933
17837SOL    HW255351   0.808   6.671   6.915
17838SOL     OW55352   2.074   5.293   4.555
17838SOL    HW155353   2.140   5.224   4.561
17838SOL    HW255354   2.114   5.368   4.599
17839SOL     OW55355  11.702  11.483   0.233
17839SOL    HW155356  11.608  11.476   0.245
17839SOL    HW255357  11.714  11.502   0.140
17840SOL     OW55358  10.443  14.354  11.842
17840SOL    HW155359  10.367  14.384  11.891
17840SOL    HW255360  10.429  14.260  11.833
17841SOL     OW55361  13.360   4.209   7.912
17841SOL    HW155362  13.296   4.228   7.981
17841SOL    HW255363  13.438   4.183   7.959
17842SOL     OW55364   5.349   1.459  10.782
17842SOL    HW155365   5.427   1.479  10.730
17842SOL    HW255366   5.318   1.376  10.746
17843SOL     OW55367  12.428   8.294   6.706
17843SOL    HW155368  12.477   8.238   6.767
17843SOL    HW255369  12.358   8.331   6.759
17844SOL     OW55370   3.727   6.640  12.978
17844SOL    HW155371   3.684   6.638  13.063
17844SOL    HW255372   3.821   6.636  12.998
17845SOL     OW55373  14.867   4.206  10.503
17845SOL    HW155374  14.844   4.156  10.582
17845SOL    HW255375   0.057   4.152  10.460
17846SOL     OW55376   3.217   6.750   6.215
17846SOL    HW155377   3.279   6.787   6.151
17846SOL    HW255378   3.269   6.741   6.295
17847SOL     OW55379   0.571  12.150   6.301
17847SOL    HW155380   0.504  12.110   6.357
17847SOL    HW255381   0.651  12.149   6.353
17848SOL     OW55382   3.161   6.588   1.211
17848SOL    HW155383   3.074   6.549   1.218
17848SOL    HW255384   3.192   6.593   1.302
17849SOL     OW55385   1.559   2.875   5.376
17849SOL    HW155386   1.618   2.897   5.448
17849SOL    HW255387   1.471   2.891   5.410
17850SOL     OW55388   1.197   5.993   4.212
17850SOL    HW155389   1.237   6.074   4.243
17850SOL    HW255390   1.264   5.926   4.228
17851SOL     OW55391   6.638   6.598   7.965
17851SOL    HW155392   6.702   6.650   7.917
17851SOL    HW255393   6.680   6.513   7.976
17852SOL     OW55394  12.252  14.205  14.588
17852SOL    HW155395  12.292  14.121  14.565
17852SOL    HW255396  12.158  14.187  14.592
17853SOL     OW55397   3.960  13.096  10.334
17853SOL    HW155398   3.926  13.183  10.313
17853SOL    HW255399   4.044  13.113  10.376
17854SOL     OW55400   8.363  14.235   3.864
17854SOL    HW155401   8.333  14.323   3.889
17854SOL    HW255402   8.429  14.213   3.930
17855SOL     OW55403   4.379  10.523  11.249
17855SOL    HW155404   4.435  10.496  11.176
17855SOL    HW255405   4.353  10.442  11.291
17856SOL     OW55406   7.706   9.723   8.225
17856SOL    HW155407   7.618   9.754   8.247
17856SOL    HW255408   7.708   9.725   8.129
17857SOL     OW55409   8.218   7.613   4.285
17857SOL    HW155410   8.294   7.559   4.260
17857SOL    HW255411   8.228   7.692   4.232
17858SOL     OW55412   8.224   6.031   4.980
17858SOL    HW155413   8.232   5.965   4.911
17858SOL    HW255414   8.171   5.989   5.048
17859SOL     OW55415   2.900  13.959  12.518
17859SOL    HW155416   2.931  14.018  12.586
17859SOL    HW255417   2.807  13.946  12.537
17860SOL     OW55418   4.647  14.189   4.282
17860SOL    HW155419   4.722  14.171   4.339
17860SOL    HW255420   4.664  14.276   4.247
17861SOL     OW55421   6.308  12.748  13.252
17861SOL    HW155422   6.300  12.785  13.339
17861SOL    HW255423   6.299  12.823  13.193
17862SOL     OW55424   5.637  10.006   0.763
17862SOL    HW155425   5.591  10.086   0.736
17862SOL    HW255426   5.687   9.979   0.687
17863SOL     OW55427   4.647   7.917   6.728
17863SOL    HW155428   4.634   7.830   6.766
17863SOL    HW255429   4.619   7.977   6.796
17864SOL     OW55430   5.467   6.809  12.573
17864SOL    HW155431   5.389   6.753  12.570
17864SOL    HW255432   5.481   6.834  12.481
17865SOL     OW55433   0.104   6.975  14.134
17865SOL    HW155434   0.094   7.024  14.053
17865SOL    HW255435   0.032   7.003  14.189
17866SOL     OW55436   3.446   7.421   2.500
17866SOL    HW155437   3.402   7.452   2.579
17866SOL    HW255438   3.375   7.384   2.446
17867SOL     OW55439   7.306   9.945  12.227
17867SOL    HW155440   7.301   9.976  12.318
17867SOL    HW255441   7.388   9.896  12.223
17868SOL     OW55442  12.758  10.034   8.048
17868SOL    HW155443  12.755  10.049   8.143
17868SOL    HW255444  12.818   9.960   8.037
17869SOL     OW55445   7.117  14.074   6.149
17869SOL    HW155446   7.167  14.146   6.111
17869SOL    HW255447   7.143  13.997   6.099
17870SOL     OW55448   8.756  12.033  11.649
17870SOL    HW155449   8.705  12.091  11.592
17870SOL    HW255450   8.716  11.947  11.636
17871SOL     OW55451  10.117   0.768  14.078
17871SOL    HW155452  10.092   0.821  14.153
17871SOL    HW255453  10.205   0.735  14.099
17872SOL     OW55454  10.054   3.022  14.828
17872SOL    HW155455   9.976   2.973  14.853
17872SOL    HW255456  10.074   2.992  14.739
17873SOL     OW55457  11.948  13.247   5.652
17873SOL    HW155458  11.979  13.164   5.688
17873SOL    HW255459  12.003  13.261   5.575
17874SOL     OW55460   1.733  14.553   8.224
17874SOL    HW155461   1.733  14.585   8.314
17874SOL    HW255462   1.677  14.616   8.177
17875SOL     OW55463  11.169   1.646   1.706
17875SOL    HW155464  11.092   1.600   1.675
17875SOL    HW255465  11.219   1.580   1.755
17876SOL     OW55466   9.841   5.871   1.872
17876SOL    HW155467   9.886   5.849   1.791
17876SOL    HW255468   9.769   5.808   1.878
17877SOL     OW55469   9.303   0.605   7.954
17877SOL    HW155470   9.294   0.518   7.993
17877SOL    HW255471   9.217   0.623   7.916
17878SOL     OW55472  14.359   8.520   4.000
17878SOL    HW155473  14.392   8.434   4.028
17878SOL    HW255474  14.426   8.553   3.940
17879SOL     OW55475  14.152  12.174  13.426
17879SOL    HW155476  14.122  12.114  13.356
17879SOL    HW255477  14.221  12.226  13.385
17880SOL     OW55478  11.771   0.724   4.564
17880SOL    HW155479  11.759   0.662   4.492
17880SOL    HW255480  11.821   0.676   4.629
17881SOL     OW55481   2.292  10.131   5.250
17881SOL    HW155482   2.360  10.146   5.184
17881SOL    HW255483   2.212  10.117   5.200
17882SOL     OW55484   9.210   9.611   3.473
17882SOL    HW155485   9.260   9.672   3.419
17882SOL    HW255486   9.235   9.524   3.441
17883SOL     OW55487  11.772   3.237   8.021
17883SOL    HW155488  11.698   3.222   7.962
17883SOL    HW255489  11.848   3.210   7.971
17884SOL     OW55490   4.544   7.913  10.357
17884SOL    HW155491   4.612   7.967  10.397
17884SOL    HW255492   4.526   7.845  10.422
17885SOL     OW55493  12.946   3.715   3.029
17885SOL    HW155494  13.030   3.758   3.042
17885SOL    HW255495  12.968   3.624   3.007
17886SOL     OW55496   0.619  11.020  11.832
17886SOL    HW155497   0.687  10.984  11.888
17886SOL    HW255498   0.573  10.944  11.797
17887SOL     OW55499  14.382   4.720   6.330
17887SOL    HW155500  14.312   4.785   6.323
17887SOL    HW255501  14.460   4.771   6.351
17888SOL     OW55502  10.248   1.511   8.886
17888SOL    HW155503  10.267   1.468   8.803
17888SOL    HW255504  10.279   1.450   8.953
17889SOL     OW55505   5.167   9.271  14.541
17889SOL    HW155506   5.083   9.253  14.499
17889SOL    HW255507   5.161   9.229  14.626
17890SOL     OW55508   6.688   1.010   9.151
17890SOL    HW155509   6.741   1.040   9.225
17890SOL    HW255510   6.611   0.970   9.192
17891SOL     OW55511  13.730   0.292   0.452
17891SOL    HW155512  13.661   0.225   0.457
17891SOL    HW255513  13.692   0.369   0.494
17892SOL     OW55514  13.206   3.774  12.448
17892SOL    HW155515  13.122   3.758  12.490
17892SOL    HW255516  13.271   3.739  12.509
17893SOL     OW55517  10.576  10.598   5.169
17893SOL    HW155518  10.486  10.575   5.148
17893SOL    HW255519  10.575  10.693   5.183
17894SOL     OW55520   8.791  11.013   8.464
17894SOL    HW155521   8.733  10.990   8.536
17894SOL    HW255522   8.804  11.107   8.471
17895SOL     OW55523   6.848   7.250   5.814
17895SOL    HW155524   6.932   7.249   5.859
17895SOL    HW255525   6.784   7.271   5.883
17896SOL     OW55526  13.673   1.670   9.536
17896SOL    HW155527  13.594   1.642   9.583
17896SOL    HW255528  13.671   1.766   9.543
17897SOL     OW55529  10.095  13.831   9.909
17897SOL    HW155530  10.078  13.916   9.869
17897SOL    HW255531  10.021  13.818   9.969
17898SOL     OW55532   7.264   0.917   4.761
17898SOL    HW155533   7.208   0.883   4.830
17898SOL    HW255534   7.332   0.967   4.806
17899SOL     OW55535   5.501   1.920   3.005
17899SOL    HW155536   5.460   1.897   2.922
17899SOL    HW255537   5.593   1.935   2.982
17900SOL     OW55538   9.984   7.076   9.636
17900SOL    HW155539   9.891   7.053   9.633
17900SOL    HW255540  10.030   6.992   9.624
17901SOL     OW55541   5.479   6.591   2.622
17901SOL    HW155542   5.483   6.499   2.596
17901SOL    HW255543   5.392   6.601   2.662
17902SOL     OW55544   8.846  14.486  12.057
17902SOL    HW155545   8.861  14.556  11.992
17902SOL    HW255546   8.768  14.441  12.026
17903SOL     OW55547   0.505   0.868   9.412
17903SOL    HW155548   0.448   0.828   9.347
17903SOL    HW255549   0.568   0.800   9.436
17904SOL     OW55550   6.462   6.986  11.127
17904SOL    HW155551   6.494   6.953  11.043
17904SOL    HW255552   6.436   6.908  11.176
17905SOL     OW55553  10.060   1.279  14.855
17905SOL    HW155554  10.054   1.232   0.062
17905SOL    HW255555   9.983   1.251  14.806
17906SOL     OW55556   6.593   2.324   3.215
17906SOL    HW155557   6.610   2.250   3.274
17906SOL    HW255558   6.501   2.345   3.228
17907SOL     OW55559   5.730  12.641  13.644
17907SOL    HW155560   5.680  12.683  13.714
17907SOL    HW255561   5.772  12.566  13.686
17908SOL     OW55562   1.703   5.424   9.390
17908SOL    HW155563   1.622   5.462   9.424
17908SOL    HW255564   1.679   5.334   9.368
17909SOL     OW55565  10.065  12.335   5.999
17909SOL    HW155566  10.138  12.287   6.038
17909SOL    HW255567  10.024  12.380   6.073
17910SOL     OW55568   0.429   5.336  11.273
17910SOL    HW155569   0.483   5.382  11.337
17910SOL    HW255570   0.464   5.363  11.188
17911SOL     OW55571   2.711  10.822   1.930
17911SOL    HW155572   2.755  10.750   1.975
17911SOL    HW255573   2.623  10.823   1.968
17912SOL     OW55574   1.018   5.924   3.023
17912SOL    HW155575   0.967   5.864   3.077
17912SOL    HW255576   1.082   5.868   2.980
17913SOL     OW55577  12.765   8.008   7.312
17913SOL    HW155578  12.842   8.058   7.340
17913SOL    HW255579  12.691   8.055   7.350
17914SOL     OW55580   1.158   8.385  12.055
17914SOL    HW155581   1.109   8.360  12.133
17914SOL    HW255582   1.090   8.405  11.990
17915SOL     OW55583   7.318   6.732   0.379
17915SOL    HW155584   7.225   6.721   0.401
17915SOL    HW255585   7.364   6.724   0.462
17916SOL     OW55586   3.456  13.887   3.525
17916SOL    HW155587   3.472  13.821   3.593
17916SOL    HW255588   3.382  13.939   3.559
17917SOL     OW55589   6.015  10.507   9.766
17917SOL    HW155590   5.947  10.532   9.828
17917SOL    HW255591   6.094  10.500   9.820
17918SOL     OW55592   6.925  13.017   6.121
17918SOL    HW155593   6.928  13.099   6.171
17918SOL    HW255594   6.912  13.045   6.031
17919SOL     OW55595   5.775  14.431   8.135
17919SOL    HW155596   5.703  14.477   8.091
17919SOL    HW255597   5.784  14.349   8.086
17920SOL     OW55598   2.893  13.311  13.500
17920SOL    HW155599   2.814  13.350  13.461
17920SOL    HW255600   2.965  13.364  13.465
17921SOL     OW55601  11.628  14.012   5.277
17921SOL    HW155602  11.567  13.985   5.208
17921SOL    HW255603  11.665  13.930   5.310
17922SOL     OW55604   5.600   4.121   0.129
17922SOL    HW155605   5.589   4.027   0.118
17922SOL    HW255606   5.677   4.130   0.186
17923SOL     OW55607  14.687   9.012   4.294
17923SOL    HW155608  14.692   9.084   4.231
17923SOL    HW255609  14.756   8.952   4.266
17924SOL     OW55610   0.107   5.315  14.326
17924SOL    HW155611   0.180   5.355  14.280
17924SOL    HW255612   0.146   5.277  14.405
17925SOL     OW55613   1.785  12.852  11.919
17925SOL    HW155614   1.880  12.866  11.923
17925SOL    HW255615   1.763  12.868  11.827
17926SOL     OW55616   0.058   3.681   9.141
17926SOL    HW155617   0.016   3.727   9.068
17926SOL    HW255618   0.028   3.726   9.219
17927SOL     OW55619  14.023  11.317   4.128
17927SOL    HW155620  13.969  11.386   4.167
17927SOL    HW255621  14.096  11.307   4.188
17928SOL     OW55622   6.141  12.074   6.501
17928SOL    HW155623   6.064  12.104   6.453
17928SOL    HW255624   6.126  12.102   6.591
17929SOL     OW55625   8.371   2.983  10.986
17929SOL    HW155626   8.314   3.050  11.024
17929SOL    HW255627   8.319   2.944  10.916
17930SOL     OW55628  13.652   3.829   8.974
17930SOL    HW155629  13.685   3.844   8.885
17930SOL    HW255630  13.648   3.734   8.982
17931SOL     OW55631   6.744  10.322   9.935
17931SOL    HW155632   6.722  10.368  10.016
17931SOL    HW255633   6.693  10.241   9.939
17932SOL     OW55634   5.326  13.834  11.437
17932SOL    HW155635   5.313  13.901  11.370
17932SOL    HW255636   5.315  13.751  11.390
17933SOL     OW55637   2.835  13.268  13.763
17933SOL    HW155638   2.908  13.258  13.703
17933SOL    HW255639   2.802  13.357  13.747
17934SOL     OW55640   0.861   2.332   9.550
17934SOL    HW155641   0.947   2.298   9.574
17934SOL    HW255642   0.815   2.342   9.634
17935SOL     OW55643   0.973   3.769  13.859
17935SOL    HW155644   0.998   3.684  13.822
17935SOL    HW255645   0.958   3.825  13.783
17936SOL     OW55646   8.112   8.449   4.685
17936SOL    HW155647   8.198   8.418   4.712
17936SOL    HW255648   8.091   8.396   4.608
17937SOL     OW55649  13.891   9.773   3.964
17937SOL    HW155650  13.864   9.857   3.926
17937SOL    HW255651  13.857   9.708   3.903
17938SOL     OW55652   1.440   6.859  11.524
17938SOL    HW155653   1.381   6.811  11.581
17938SOL    HW255654   1.520   6.871  11.576
17939SOL     OW55655   9.158  14.540   8.816
17939SOL    HW155656   9.249  14.556   8.791
17939SOL    HW255657   9.132  14.618   8.864
17940SOL     OW55658  12.882   0.312  13.904
17940SOL    HW155659  12.848   0.257  13.975
17940SOL    HW255660  12.895   0.398  13.944
17941SOL     OW55661  10.236   9.896   3.813
17941SOL    HW155662  10.149   9.861   3.797
17941SOL    HW255663  10.284   9.822   3.851
17942SOL     OW55664   2.677   0.616  13.108
17942SOL    HW155665   2.608   0.628  13.174
17942SOL    HW255666   2.693   0.522  13.106
17943SOL     OW55667   5.234  11.582  13.573
17943SOL    HW155668   5.239  11.556  13.481
17943SOL    HW255669   5.280  11.514  13.621
17944SOL     OW55670   1.042   6.831   5.888
17944SOL    HW155671   1.052   6.736   5.893
17944SOL    HW255672   1.074   6.863   5.972
17945SOL     OW55673   3.773   4.437   4.036
17945SOL    HW155674   3.718   4.502   4.079
17945SOL    HW255675   3.792   4.372   4.104
17946SOL     OW55676   9.132   1.781   5.561
17946SOL    HW155677   9.088   1.786   5.476
17946SOL    HW255678   9.112   1.694   5.594
17947SOL     OW55679   2.735   5.495  11.733
17947SOL    HW155680   2.827   5.473  11.718
17947SOL    HW255681   2.710   5.548  11.658
17948SOL     OW55682  13.137   6.583   3.817
17948SOL    HW155683  13.169   6.493   3.826
17948SOL    HW255684  13.197   6.624   3.754
17949SOL     OW55685   0.626  11.384  13.517
17949SOL    HW155686   0.679  11.399  13.595
17949SOL    HW255687   0.639  11.463  13.464
17950SOL     OW55688   0.393  13.096   8.134
17950SOL    HW155689   0.367  13.004   8.138
17950SOL    HW255690   0.313  13.145   8.155
17951SOL     OW55691   1.896   4.726   2.847
17951SOL    HW155692   1.837   4.767   2.784
17951SOL    HW255693   1.913   4.794   2.912
17952SOL     OW55694   6.326  13.123   6.075
17952SOL    HW155695   6.393  13.065   6.111
17952SOL    HW255696   6.347  13.129   5.982
17953SOL     OW55697   8.244  11.937   1.697
17953SOL    HW155698   8.300  12.007   1.666
17953SOL    HW255699   8.292  11.857   1.678
17954SOL     OW55700   1.349   5.433  13.020
17954SOL    HW155701   1.438   5.463  13.002
17954SOL    HW255702   1.298   5.458  12.943
17955SOL     OW55703   9.552   0.427  13.572
17955SOL    HW155704   9.564   0.487  13.499
17955SOL    HW255705   9.616   0.456  13.638
17956SOL     OW55706  12.803  10.198   3.947
17956SOL    HW155707  12.850  10.146   3.881
17956SOL    HW255708  12.763  10.269   3.897
17957SOL     OW55709   6.267   7.637  12.762
17957SOL    HW155710   6.175   7.648  12.739
17957SOL    HW255711   6.278   7.689  12.841
17958SOL     OW55712  13.092   9.606  10.078
17958SOL    HW155713  13.156   9.673  10.055
17958SOL    HW255714  13.137   9.550  10.141
17959SOL     OW55715   0.413   8.591  12.047
17959SOL    HW155716   0.360   8.584  12.126
17959SOL    HW255717   0.350   8.603  11.977
17960SOL     OW55718   9.779  11.051   3.826
17960SOL    HW155719   9.797  10.974   3.881
17960SOL    HW255720   9.780  11.125   3.887
17961SOL     OW55721   0.690  12.753   6.777
17961SOL    HW155722   0.618  12.722   6.722
17961SOL    HW255723   0.752  12.680   6.780
17962SOL     OW55724  12.709   3.931   5.579
17962SOL    HW155725  12.648   4.001   5.602
17962SOL    HW255726  12.697   3.865   5.647
17963SOL     OW55727   8.421   4.346  10.932
17963SOL    HW155728   8.439   4.299  10.851
17963SOL    HW255729   8.492   4.410  10.939
17964SOL     OW55730   9.837   5.837  12.478
17964SOL    HW155731   9.743   5.822  12.487
17964SOL    HW255732   9.877   5.756  12.510
17965SOL     OW55733   1.855  12.529  10.338
17965SOL    HW155734   1.936  12.568  10.303
17965SOL    HW255735   1.885  12.452  10.385
17966SOL     OW55736  10.385  14.683   0.750
17966SOL    HW155737  10.307  14.662   0.699
17966SOL    HW255738  10.447  14.718   0.686
17967SOL     OW55739   9.749   5.072  12.596
17967SOL    HW155740   9.748   5.162  12.628
17967SOL    HW255741   9.773   5.080  12.503
17968SOL     OW55742   0.226  14.155  14.041
17968SOL    HW155743   0.222  14.065  14.010
17968SOL    HW255744   0.165  14.203  13.985
17969SOL     OW55745  13.557  12.409   1.661
17969SOL    HW155746  13.528  12.321   1.635
17969SOL    HW255747  13.635  12.425   1.608
17970SOL     OW55748   8.692   8.534   5.054
17970SOL    HW155749   8.602   8.531   5.088
17970SOL    HW255750   8.690   8.602   4.987
17971SOL     OW55751   6.820  14.094  10.899
17971SOL    HW155752   6.855  14.035  10.833
17971SOL    HW255753   6.747  14.138  10.857
17972SOL     OW55754   0.159   8.491   7.793
17972SOL    HW155755   0.196   8.538   7.868
17972SOL    HW255756   0.228   8.432   7.765
17973SOL     OW55757   2.873   1.936  12.207
17973SOL    HW155758   2.863   1.859  12.152
17973SOL    HW255759   2.784   1.964  12.227
17974SOL     OW55760  12.626   7.485  10.949
17974SOL    HW155761  12.603   7.468  11.040
17974SOL    HW255762  12.553   7.449  10.899
17975SOL     OW55763   5.670   6.329   8.537
17975SOL    HW155764   5.633   6.417   8.541
17975SOL    HW255765   5.632   6.284   8.614
17976SOL     OW55766  12.423  14.866  14.722
17976SOL    HW155767  12.459  14.854  14.810
17976SOL    HW255768  12.381  14.783  14.701
17977SOL     OW55769  13.307  14.340   7.603
17977SOL    HW155770  13.215  14.329   7.579
17977SOL    HW255771  13.344  14.252   7.597
17978SOL     OW55772  10.293  13.501  12.426
17978SOL    HW155773  10.329  13.443  12.359
17978SOL    HW255774  10.198  13.493  12.417
17979SOL     OW55775   1.525   1.674   8.224
17979SOL    HW155776   1.608   1.639   8.191
17979SOL    HW255777   1.458   1.624   8.179
17980SOL     OW55778   9.959  13.327  13.067
17980SOL    HW155779  10.013  13.249  13.079
17980SOL    HW255780  10.020  13.401  13.076
17981SOL     OW55781   9.031   5.432  14.047
17981SOL    HW155782   8.942   5.437  14.012
17981SOL    HW255783   9.049   5.520  14.080
17982SOL     OW55784   7.556   0.105  13.089
17982SOL    HW155785   7.559   0.064  13.002
17982SOL    HW255786   7.548   0.032  13.150
17983SOL     OW55787   0.108   5.218   1.290
17983SOL    HW155788   0.120   5.259   1.204
17983SOL    HW255789   0.147   5.281   1.351
17984SOL     OW55790  13.054  11.807   1.677
17984SOL    HW155791  13.028  11.760   1.597
17984SOL    HW255792  13.036  11.899   1.656
17985SOL     OW55793   8.795   6.098  11.971
17985SOL    HW155794   8.856   6.137  11.908
17985SOL    HW255795   8.852   6.055  12.035
17986SOL     OW55796   1.279   5.763  12.792
17986SOL    HW155797   1.197   5.715  12.796
17986SOL    HW255798   1.284   5.796  12.703
17987SOL     OW55799   9.104   0.926  12.923
17987SOL    HW155800   9.055   0.853  12.885
17987SOL    HW255801   9.195   0.907  12.904
17988SOL     OW55802   6.837   1.574  13.204
17988SOL    HW155803   6.839   1.660  13.247
17988SOL    HW255804   6.860   1.592  13.113
17989SOL     OW55805   8.209   4.752   2.938
17989SOL    HW155806   8.269   4.749   3.012
17989SOL    HW255807   8.266   4.756   2.861
17990SOL     OW55808   1.771  12.526  14.701
17990SOL    HW155809   1.750  12.542  14.793
17990SOL    HW255810   1.866  12.520  14.698
17991SOL     OW55811   5.565  12.671   9.181
17991SOL    HW155812   5.485  12.711   9.147
17991SOL    HW255813   5.619  12.656   9.103
17992SOL     OW55814   6.318   6.305   0.286
17992SOL    HW155815   6.259   6.329   0.215
17992SOL    HW255816   6.349   6.218   0.263
17993SOL     OW55817   8.595   4.565   6.749
17993SOL    HW155818   8.665   4.581   6.686
17993SOL    HW255819   8.603   4.638   6.811
17994SOL     OW55820  10.284   3.664   4.780
17994SOL    HW155821  10.327   3.656   4.695
17994SOL    HW255822  10.355   3.655   4.843
17995SOL     OW55823   7.917   1.499  10.086
17995SOL    HW155824   7.883   1.462  10.004
17995SOL    HW255825   7.937   1.422  10.140
17996SOL     OW55826   1.317   0.093   9.832
17996SOL    HW155827   1.244   0.114   9.891
17996SOL    HW255828   1.328   0.171   9.779
17997SOL     OW55829  13.388  14.736   4.404
17997SOL    HW155830  13.333  14.769   4.474
17997SOL    HW255831  13.329  14.683   4.350
17998SOL     OW55832   3.330  12.289  11.080
17998SOL    HW155833   3.370  12.203  11.088
17998SOL    HW255834   3.300  12.294  10.989
17999SOL     OW55835   7.437   8.467   2.751
17999SOL    HW155836   7.458   8.428   2.666
17999SOL    HW255837   7.358   8.518   2.736
18000SOL     OW55838  11.752  14.857   9.339
18000SOL    HW155839  11.772   0.054   9.281
18000SOL    HW255840  11.768  14.779   9.285
18001SOL     OW55841   1.655   4.570   6.741
18001SOL    HW155842   1.634   4.640   6.804
18001SOL    HW255843   1.723   4.608   6.686
18002SOL     OW55844  14.476   9.779  11.865
18002SOL    HW155845  14.400   9.806  11.917
18002SOL    HW255846  14.469   9.829  11.784
18003SOL     OW55847   6.073  13.586   0.612
18003SOL    HW155848   6.107  13.528   0.544
18003SOL    HW255849   6.106  13.550   0.694
18004SOL     OW55850   1.335   4.484   1.561
18004SOL    HW155851   1.310   4.457   1.473
18004SOL    HW255852   1.419   4.528   1.550
18005SOL     OW55853  14.536   7.150   6.763
18005SOL    HW155854  14.503   7.136   6.851
18005SOL    HW255855  14.586   7.071   6.742
18006SOL     OW55856   5.088  12.850   9.833
18006SOL    HW155857   5.098  12.925   9.892
18006SOL    HW255858   5.155  12.863   9.767
18007SOL     OW55859   1.071   3.351   6.186
18007SOL    HW155860   1.046   3.296   6.111
18007SOL    HW255861   1.163   3.328   6.203
18008SOL     OW55862   2.679  10.423   2.765
18008SOL    HW155863   2.603  10.434   2.821
18008SOL    HW255864   2.722  10.343   2.797
18009SOL     OW55865   5.839   2.316   6.850
18009SOL    HW155866   5.904   2.383   6.831
18009SOL    HW255867   5.863   2.242   6.794
18010SOL     OW55868   8.348   6.418  11.377
18010SOL    HW155869   8.258   6.447  11.393
18010SOL    HW255870   8.387   6.412  11.464
18011SOL     OW55871  12.115   7.304   4.568
18011SOL    HW155872  12.090   7.212   4.560
18011SOL    HW255873  12.198   7.311   4.521
18012SOL     OW55874  13.111   9.252  12.570
18012SOL    HW155875  13.190   9.267  12.518
18012SOL    HW255876  13.143   9.226  12.657
18013SOL     OW55877   1.770  14.366  11.487
18013SOL    HW155878   1.687  14.401  11.454
18013SOL    HW255879   1.780  14.406  11.573
18014SOL     OW55880  13.029  10.425   7.467
18014SOL    HW155881  13.116  10.453   7.438
18014SOL    HW255882  12.994  10.501   7.513
18015SOL     OW55883   3.116   2.806  14.530
18015SOL    HW155884   3.137   2.820  14.622
18015SOL    HW255885   3.116   2.710  14.520
18016SOL     OW55886   2.202   5.662  10.010
18016SOL    HW155887   2.260   5.678  10.084
18016SOL    HW255888   2.136   5.732  10.015
18017SOL     OW55889   4.002   9.356   8.583
18017SOL    HW155890   4.037   9.311   8.660
18017SOL    HW255891   3.911   9.328   8.578
18018SOL     OW55892  12.351  13.003   6.827
18018SOL    HW155893  12.280  12.997   6.763
18018SOL    HW255894  12.425  12.960   6.784
18019SOL     OW55895  13.251  12.546  13.044
18019SOL    HW155896  13.294  12.586  13.120
18019SOL    HW255897  13.264  12.452  13.055
18020SOL     OW55898   5.073  11.263   4.004
18020SOL    HW155899   4.992  11.267   3.953
18020SOL    HW255900   5.141  11.246   3.940
18021SOL     OW55901   5.254   5.793  11.454
18021SOL    HW155902   5.287   5.882  11.463
18021SOL    HW255903   5.185   5.786  11.520
18022SOL     OW55904   2.890  14.552   3.061
18022SOL    HW155905   2.930  14.537   3.147
18022SOL    HW255906   2.807  14.503   3.065
18023SOL     OW55907   8.986   0.271   2.287
18023SOL    HW155908   8.942   0.234   2.210
18023SOL    HW255909   9.074   0.294   2.255
18024SOL     OW55910   8.162   7.664   8.257
18024SOL    HW155911   8.219   7.599   8.298
18024SOL    HW255912   8.075   7.624   8.258
18025SOL     OW55913   3.167   1.137   0.421
18025SOL    HW155914   3.223   1.133   0.344
18025SOL    HW255915   3.187   1.221   0.462
18026SOL     OW55916   2.511   7.693  14.623
18026SOL    HW155917   2.564   7.615  14.639
18026SOL    HW255918   2.571   7.755  14.581
18027SOL     OW55919   6.369   6.985   7.194
18027SOL    HW155920   6.337   6.960   7.280
18027SOL    HW255921   6.323   6.927   7.133
18028SOL     OW55922   4.518   4.937   4.229
18028SOL    HW155923   4.525   4.980   4.314
18028SOL    HW255924   4.453   4.868   4.242
18029SOL     OW55925   4.834   0.675   4.308
18029SOL    HW155926   4.922   0.701   4.279
18029SOL    HW255927   4.811   0.601   4.252
18030SOL     OW55928   5.030   2.031  14.685
18030SOL    HW155929   5.104   2.089  14.666
18030SOL    HW255930   5.061   1.944  14.661
18031SOL     OW55931   5.880   9.181  12.597
18031SOL    HW155932   5.940   9.207  12.527
18031SOL    HW255933   5.794   9.180  12.555
18032SOL     OW55934   0.363   8.016   1.163
18032SOL    HW155935   0.361   8.075   1.239
18032SOL    HW255936   0.455   8.013   1.137
18033SOL     OW55937   8.599   9.923  10.589
18033SOL    HW155938   8.545   9.890  10.661
18033SOL    HW255939   8.574   9.870  10.514
18034SOL     OW55940   5.203   6.472   1.246
18034SOL    HW155941   5.173   6.454   1.156
18034SOL    HW255942   5.130   6.519   1.286
18035SOL     OW55943   0.773   1.629   2.299
18035SOL    HW155944   0.860   1.608   2.267
18035SOL    HW255945   0.787   1.697   2.365
18036SOL     OW55946   4.970  11.283   4.880
18036SOL    HW155947   4.992  11.192   4.861
18036SOL    HW255948   4.886  11.296   4.837
18037SOL     OW55949  14.197   5.648  10.933
18037SOL    HW155950  14.192   5.667  10.839
18037SOL    HW255951  14.215   5.554  10.937
18038SOL     OW55952  10.448   4.299   0.130
18038SOL    HW155953  10.445   4.294   0.034
18038SOL    HW255954  10.364   4.263   0.158
18039SOL     OW55955   8.046  11.170   7.743
18039SOL    HW155956   7.977  11.125   7.792
18039SOL    HW255957   8.087  11.101   7.690
18040SOL     OW55958  13.485  10.367   1.912
18040SOL    HW155959  13.409  10.350   1.967
18040SOL    HW255960  13.477  10.459   1.886
18041SOL     OW55961   0.652  10.072   3.749
18041SOL    HW155962   0.641   9.990   3.798
18041SOL    HW255963   0.737  10.062   3.706
18042SOL     OW55964   9.499   4.467   9.114
18042SOL    HW155965   9.492   4.543   9.171
18042SOL    HW255966   9.446   4.489   9.037
18043SOL     OW55967  13.318   8.848   6.991
18043SOL    HW155968  13.302   8.755   6.976
18043SOL    HW255969  13.283   8.864   7.079
18044SOL     OW55970  12.244  12.784   5.546
18044SOL    HW155971  12.286  12.855   5.595
18044SOL    HW255972  12.279  12.704   5.585
18045SOL     OW55973  10.055  10.643   3.873
18045SOL    HW155974  10.147  10.638   3.848
18045SOL    HW255975  10.017  10.708   3.813
18046SOL     OW55976  11.632  10.571   1.366
18046SOL    HW155977  11.711  10.519   1.354
18046SOL    HW255978  11.580  10.554   1.287
18047SOL     OW55979   9.523  12.026   1.984
18047SOL    HW155980   9.497  12.026   1.892
18047SOL    HW255981   9.448  12.063   2.031
18048SOL     OW55982   1.061  13.922   8.246
18048SOL    HW155983   1.118  13.990   8.282
18048SOL    HW255984   1.094  13.907   8.158
18049SOL     OW55985  10.069   6.483   1.285
18049SOL    HW155986  10.093   6.494   1.377
18049SOL    HW255987  10.124   6.410   1.255
18050SOL     OW55988   0.233  10.110   4.106
18050SOL    HW155989   0.166  10.159   4.058
18050SOL    HW255990   0.254  10.036   4.049
18051SOL     OW55991   9.503   7.443  13.797
18051SOL    HW155992   9.544   7.526  13.823
18051SOL    HW255993   9.427   7.435  13.854
18052SOL     OW55994   8.171   7.735  10.488
18052SOL    HW155995   8.094   7.761  10.437
18052SOL    HW255996   8.230   7.696  10.424
18053SOL     OW55997  14.572  13.884   4.806
18053SOL    HW155998  14.657  13.918   4.834
18053SOL    HW255999  14.508  13.941   4.848
18054SOL     OW56000  11.298  11.288   1.538
18054SOL    HW156001  11.236  11.277   1.466
18054SOL    HW256002  11.378  11.244   1.509
18055SOL     OW56003  11.329  13.459   4.988
18055SOL    HW156004  11.280  13.377   4.994
18055SOL    HW256005  11.399  13.451   5.053
18056SOL     OW56006   3.145   9.174  10.603
18056SOL    HW156007   3.239   9.183  10.621
18056SOL    HW256008   3.128   9.080  10.614
18057SOL     OW56009  12.191  11.793   3.268
18057SOL    HW156010  12.099  11.807   3.244
18057SOL    HW256011  12.199  11.698   3.277
18058SOL     OW56012   4.732  10.681   0.463
18058SOL    HW156013   4.822  10.708   0.447
18058SOL    HW256014   4.739  10.602   0.517
18059SOL     OW56015  10.233   2.242   9.433
18059SOL    HW156016  10.162   2.300   9.406
18059SOL    HW256017  10.209   2.156   9.398
18060SOL     OW56018   8.956   1.726   0.564
18060SOL    HW156019   9.050   1.741   0.572
18060SOL    HW256020   8.930   1.688   0.648
18061SOL     OW56021   8.859   1.910   0.391
18061SOL    HW156022   8.884   1.855   0.466
18061SOL    HW256023   8.812   1.851   0.333
18062SOL     OW56024   5.060   4.634  11.040
18062SOL    HW156025   5.079   4.604  10.951
18062SOL    HW256026   5.132   4.601  11.093
18063SOL     OW56027   6.150   2.516  13.061
18063SOL    HW156028   6.091   2.540  12.989
18063SOL    HW256029   6.208   2.592  13.070
18064SOL     OW56030   5.522  13.925  13.951
18064SOL    HW156031   5.499  14.008  13.909
18064SOL    HW256032   5.548  13.951  14.040
18065SOL     OW56033  13.477   1.259   8.096
18065SOL    HW156034  13.502   1.329   8.156
18065SOL    HW256035  13.396   1.224   8.133
18066SOL     OW56036   2.868  14.435  10.386
18066SOL    HW156037   2.879  14.351  10.430
18066SOL    HW256038   2.853  14.413  10.294
18067SOL     OW56039   5.040  12.166   3.147
18067SOL    HW156040   5.115  12.159   3.206
18067SOL    HW256041   4.992  12.244   3.178
18068SOL     OW56042   7.161  12.815   9.878
18068SOL    HW156043   7.196  12.735   9.838
18068SOL    HW256044   7.084  12.786   9.926
18069SOL     OW56045   1.026   2.476   5.691
18069SOL    HW156046   1.092   2.445   5.628
18069SOL    HW256047   0.973   2.399   5.709
18070SOL     OW56048   5.987   9.065   9.674
18070SOL    HW156049   5.931   8.995   9.707
18070SOL    HW256050   5.928   9.124   9.627
18071SOL     OW56051   1.945  12.195   8.433
18071SOL    HW156052   1.864  12.194   8.484
18071SOL    HW256053   1.935  12.122   8.372
18072SOL     OW56054  13.330  11.448  10.990
18072SOL    HW156055  13.243  11.430  11.023
18072SOL    HW256056  13.316  11.500  10.910
18073SOL     OW56057   0.099  10.363   3.930
18073SOL    HW156058   0.009  10.369   3.963
18073SOL    HW256059   0.119  10.451   3.898
18074SOL     OW56060   1.204   2.130   0.909
18074SOL    HW156061   1.186   2.218   0.943
18074SOL    HW256062   1.120   2.085   0.914
18075SOL     OW56063  11.149   4.782   3.524
18075SOL    HW156064  11.162   4.729   3.603
18075SOL    HW256065  11.073   4.837   3.545
18076SOL     OW56066   1.331   2.637   9.783
18076SOL    HW156067   1.411   2.684   9.806
18076SOL    HW256068   1.266   2.706   9.768
18077SOL     OW56069  12.635  12.104   9.878
18077SOL    HW156070  12.580  12.121   9.801
18077SOL    HW256071  12.607  12.171   9.942
18078SOL     OW56072   9.837   5.040   7.593
18078SOL    HW156073   9.865   4.956   7.629
18078SOL    HW256074   9.813   5.092   7.669
18079SOL     OW56075   4.141   4.774  11.528
18079SOL    HW156076   4.079   4.847  11.538
18079SOL    HW256077   4.151   4.764  11.433
18080SOL     OW56078  12.281  10.103  11.254
18080SOL    HW156079  12.293  10.019  11.298
18080SOL    HW256080  12.260  10.081  11.163
18081SOL     OW56081   9.646   7.607   9.215
18081SOL    HW156082   9.653   7.515   9.189
18081SOL    HW256083   9.558   7.632   9.188
18082SOL     OW56084   4.992   9.653  11.239
18082SOL    HW156085   5.012   9.672  11.330
18082SOL    HW256086   4.936   9.725  11.211
18083SOL     OW56087  13.011   4.495   2.565
18083SOL    HW156088  13.009   4.581   2.605
18083SOL    HW256089  13.031   4.511   2.473
18084SOL     OW56090  11.224   7.282   7.660
18084SOL    HW156091  11.272   7.235   7.729
18084SOL    HW256092  11.282   7.281   7.585
18085SOL     OW56093   9.002   2.956   5.195
18085SOL    HW156094   8.969   3.019   5.131
18085SOL    HW256095   9.081   2.997   5.230
18086SOL     OW56096   9.189   7.409   5.094
18086SOL    HW156097   9.179   7.332   5.038
18086SOL    HW256098   9.132   7.392   5.169
18087SOL     OW56099   6.598   6.910   2.140
18087SOL    HW156100   6.663   6.877   2.203
18087SOL    HW256101   6.518   6.862   2.161
18088SOL     OW56102   4.684   1.531   8.012
18088SOL    HW156103   4.761   1.513   7.959
18088SOL    HW256104   4.619   1.564   7.951
18089SOL     OW56105  11.071  11.887  11.644
18089SOL    HW156106  11.034  11.803  11.671
18089SOL    HW256107  11.055  11.946  11.719
18090SOL     OW56108   5.366   6.909   1.828
18090SOL    HW156109   5.439   6.923   1.767
18090SOL    HW256110   5.359   6.814   1.836
18091SOL     OW56111  14.860  13.332   6.526
18091SOL    HW156112  14.820  13.360   6.609
18091SOL    HW256113   0.019  13.412   6.488
18092SOL     OW56114   1.786  11.125   2.883
18092SOL    HW156115   1.722  11.078   2.828
18092SOL    HW256116   1.776  11.216   2.858
18093SOL     OW56117   8.046   5.821  13.556
18093SOL    HW156118   8.070   5.828  13.463
18093SOL    HW256119   8.023   5.910  13.581
18094SOL     OW56120   3.009   8.449   2.546
18094SOL    HW156121   3.053   8.365   2.534
18094SOL    HW256122   2.987   8.452   2.640
18095SOL     OW56123  10.669   1.383  11.283
18095SOL    HW156124  10.719   1.456  11.319
18095SOL    HW256125  10.628   1.419  11.204
18096SOL     OW56126   7.793   4.209   6.801
18096SOL    HW156127   7.828   4.120   6.803
18096SOL    HW256128   7.843   4.257   6.868
18097SOL     OW56129   1.022   6.826   6.364
18097SOL    HW156130   1.016   6.766   6.290
18097SOL    HW256131   0.932   6.853   6.381
18098SOL     OW56132   1.162   6.185   5.287
18098SOL    HW156133   1.138   6.192   5.380
18098SOL    HW256134   1.144   6.093   5.265
18099SOL     OW56135   1.708  10.217   7.926
18099SOL    HW156136   1.744  10.305   7.920
18099SOL    HW256137   1.697  10.190   7.835
18100SOL     OW56138   6.063  10.269   6.725
18100SOL    HW156139   6.033  10.222   6.802
18100SOL    HW256140   6.070  10.360   6.754
18101SOL     OW56141   3.794   5.806   4.826
18101SOL    HW156142   3.848   5.876   4.790
18101SOL    HW256143   3.723   5.851   4.871
18102SOL     OW56144   9.130   1.822   2.481
18102SOL    HW156145   9.179   1.887   2.531
18102SOL    HW256146   9.041   1.857   2.477
18103SOL     OW56147  13.379  12.275  13.070
18103SOL    HW156148  13.421  12.210  13.127
18103SOL    HW256149  13.343  12.224  12.997
18104SOL     OW56150   2.460   8.622  13.686
18104SOL    HW156151   2.378   8.575  13.700
18104SOL    HW256152   2.459   8.692  13.752
18105SOL     OW56153   0.148   9.784  13.892
18105SOL    HW156154   0.182   9.728  13.962
18105SOL    HW256155   0.220   9.790  13.830
18106SOL     OW56156   3.690  12.248  13.314
18106SOL    HW156157   3.613  12.225  13.368
18106SOL    HW256158   3.664  12.329  13.270
18107SOL     OW56159   6.324   0.325   9.027
18107SOL    HW156160   6.402   0.305   8.976
18107SOL    HW256161   6.274   0.385   8.972
18108SOL     OW56162  10.569   8.725   5.229
18108SOL    HW156163  10.596   8.663   5.161
18108SOL    HW256164  10.481   8.753   5.202
18109SOL     OW56165   9.173   0.205   7.318
18109SOL    HW156166   9.210   0.136   7.373
18109SOL    HW256167   9.241   0.272   7.315
18110SOL     OW56168   9.541   7.825   8.564
18110SOL    HW156169   9.450   7.849   8.582
18110SOL    HW256170   9.592   7.891   8.611
18111SOL     OW56171  12.106   2.824   5.273
18111SOL    HW156172  12.150   2.890   5.220
18111SOL    HW256173  12.091   2.751   5.213
18112SOL     OW56174   8.177  13.787   1.463
18112SOL    HW156175   8.097  13.792   1.411
18112SOL    HW256176   8.154  13.827   1.546
18113SOL     OW56177  12.605   6.631   6.801
18113SOL    HW156178  12.697   6.616   6.780
18113SOL    HW256179  12.587   6.573   6.875
18114SOL     OW56180   0.938   2.039   5.545
18114SOL    HW156181   0.989   2.001   5.617
18114SOL    HW256182   1.001   2.089   5.494
18115SOL     OW56183   6.528  11.244   9.063
18115SOL    HW156184   6.472  11.321   9.074
18115SOL    HW256185   6.475  11.172   9.097
18116SOL     OW56186   6.747  10.776   3.881
18116SOL    HW156187   6.765  10.865   3.850
18116SOL    HW256188   6.674  10.788   3.943
18117SOL     OW56189   8.405   6.230   3.681
18117SOL    HW156190   8.454   6.270   3.753
18117SOL    HW256191   8.313   6.236   3.709
18118SOL     OW56192   6.400   4.995   9.482
18118SOL    HW156193   6.357   5.064   9.533
18118SOL    HW256194   6.438   5.041   9.407
18119SOL     OW56195   3.207  13.761   5.616
18119SOL    HW156196   3.216  13.674   5.655
18119SOL    HW256197   3.136  13.803   5.665
18120SOL     OW56198   5.647   1.518   6.353
18120SOL    HW156199   5.611   1.429   6.353
18120SOL    HW256200   5.631   1.550   6.265
18121SOL     OW56201   9.922   3.952   7.322
18121SOL    HW156202   9.863   3.947   7.397
18121SOL    HW256203   9.883   4.017   7.264
18122SOL     OW56204   0.857   7.360  13.199
18122SOL    HW156205   0.814   7.427  13.146
18122SOL    HW256206   0.820   7.278  13.167
18123SOL     OW56207   3.833  12.365   6.307
18123SOL    HW156208   3.839  12.460   6.317
18123SOL    HW256209   3.791  12.335   6.388
18124SOL     OW56210  10.179   1.157  11.843
18124SOL    HW156211  10.217   1.236  11.881
18124SOL    HW256212  10.197   1.088  11.906
18125SOL     OW56213   6.616   0.217   6.880
18125SOL    HW156214   6.678   0.158   6.923
18125SOL    HW256215   6.609   0.183   6.791
18126SOL     OW56216  13.069   8.574   7.420
18126SOL    HW156217  13.116   8.577   7.337
18126SOL    HW256218  13.031   8.486   7.424
18127SOL     OW56219   6.758  12.742  12.360
18127SOL    HW156220   6.732  12.777  12.275
18127SOL    HW256221   6.850  12.767  12.370
18128SOL     OW56222  13.629   9.323  10.223
18128SOL    HW156223  13.646   9.383  10.151
18128SOL    HW256224  13.567   9.369  10.280
18129SOL     OW56225   1.164  10.133   8.324
18129SOL    HW156226   1.197  10.046   8.301
18129SOL    HW256227   1.174  10.185   8.244
18130SOL     OW56228  12.888  10.189   1.058
18130SOL    HW156229  12.940  10.136   1.118
18130SOL    HW256230  12.948  10.258   1.029
18131SOL     OW56231  10.945   4.298  11.661
18131SOL    HW156232  10.862   4.263  11.631
18131SOL    HW256233  10.946   4.281  11.755
18132SOL     OW56234   5.802   3.164   1.314
18132SOL    HW156235   5.759   3.178   1.399
18132SOL    HW256236   5.848   3.081   1.323
18133SOL     OW56237   3.601  14.713   8.205
18133SOL    HW156238   3.697  14.713   8.204
18133SOL    HW256239   3.578  14.802   8.234
18134SOL     OW56240   5.339   6.198  13.708
18134SOL    HW156241   5.302   6.283  13.682
18134SOL    HW256242   5.390   6.217  13.787
18135SOL     OW56243   0.190   8.779  13.157
18135SOL    HW156244   0.163   8.814  13.242
18135SOL    HW256245   0.121   8.718  13.132
18136SOL     OW56246  13.072   6.348   0.299
18136SOL    HW156247  13.006   6.414   0.280
18136SOL    HW256248  13.023   6.271   0.327
18137SOL     OW56249   7.036   0.094   5.261
18137SOL    HW156250   7.128   0.070   5.278
18137SOL    HW256251   7.021   0.064   5.172
18138SOL     OW56252   8.355   4.001   6.651
18138SOL    HW156253   8.407   4.059   6.595
18138SOL    HW256254   8.361   3.915   6.610
18139SOL     OW56255  11.684   5.047  12.995
18139SOL    HW156256  11.676   5.022  13.087
18139SOL    HW256257  11.759   5.107  12.993
18140SOL     OW56258  12.918  14.170   8.953
18140SOL    HW156259  12.991  14.186   8.894
18140SOL    HW256260  12.883  14.085   8.925
18141SOL     OW56261   6.598   5.546  12.038
18141SOL    HW156262   6.571   5.533  11.947
18141SOL    HW256263   6.629   5.460  12.066
18142SOL     OW56264   8.795  14.167  12.494
18142SOL    HW156265   8.716  14.134  12.452
18142SOL    HW256266   8.774  14.258  12.514
18143SOL     OW56267  11.006  12.165   5.708
18143SOL    HW156268  10.967  12.244   5.671
18143SOL    HW256269  11.065  12.197   5.777
18144SOL     OW56270   5.317   3.537   7.996
18144SOL    HW156271   5.364   3.456   7.977
18144SOL    HW256272   5.304   3.578   7.910
18145SOL     OW56273  12.407  12.812   8.300
18145SOL    HW156274  12.449  12.729   8.278
18145SOL    HW256275  12.321  12.786   8.333
18146SOL     OW56276  11.579  13.512   7.738
18146SOL    HW156277  11.598  13.582   7.801
18146SOL    HW256278  11.624  13.435   7.774
18147SOL     OW56279   9.264  11.976   0.192
18147SOL    HW156280   9.344  11.984   0.244
18147SOL    HW256281   9.199  12.024   0.243
18148SOL     OW56282   2.574   4.294   4.443
18148SOL    HW156283   2.650   4.257   4.489
18148SOL    HW256284   2.609   4.368   4.395
18149SOL     OW56285   4.408   1.754  13.633
18149SOL    HW156286   4.394   1.814  13.706
18149SOL    HW256287   4.500   1.765  13.611
18150SOL     OW56288   7.482   2.395   2.342
18150SOL    HW156289   7.523   2.361   2.422
18150SOL    HW256290   7.501   2.329   2.275
18151SOL     OW56291   5.903  14.685  10.907
18151SOL    HW156292   5.878  14.599  10.941
18151SOL    HW256293   5.995  14.695  10.931
18152SOL     OW56294   4.151   1.844  11.332
18152SOL    HW156295   4.105   1.927  11.344
18152SOL    HW256296   4.211   1.861  11.259
18153SOL     OW56297   4.651  11.988   3.725
18153SOL    HW156298   4.581  12.052   3.722
18153SOL    HW256299   4.725  12.031   3.683
18154SOL     OW56300   8.476   5.313   8.918
18154SOL    HW156301   8.530   5.258   8.973
18154SOL    HW256302   8.536   5.377   8.880
18155SOL     OW56303   9.572   7.901  13.048
18155SOL    HW156304   9.614   7.815  13.059
18155SOL    HW256305   9.633   7.962  13.090
18156SOL     OW56306   8.239   3.880   0.742
18156SOL    HW156307   8.253   3.908   0.833
18156SOL    HW256308   8.242   3.960   0.691
18157SOL     OW56309   5.569  13.414  10.941
18157SOL    HW156310   5.650  13.372  10.912
18157SOL    HW256311   5.501  13.378  10.884
18158SOL     OW56312   4.427   9.517   9.125
18158SOL    HW156313   4.359   9.471   9.174
18158SOL    HW256314   4.508   9.498   9.172
18159SOL     OW56315  12.685   9.991   1.965
18159SOL    HW156316  12.758  10.052   1.972
18159SOL    HW256317  12.635  10.002   2.046
18160SOL     OW56318   0.494   7.677   0.982
18160SOL    HW156319   0.409   7.686   0.939
18160SOL    HW256320   0.477   7.624   1.059
18161SOL     OW56321  13.898   4.231  12.500
18161SOL    HW156322  13.828   4.221  12.435
18161SOL    HW256323  13.912   4.143  12.534
18162SOL     OW56324   7.251   3.725   4.393
18162SOL    HW156325   7.262   3.770   4.477
18162SOL    HW256326   7.181   3.662   4.409
18163SOL     OW56327  11.362   6.681   7.040
18163SOL    HW156328  11.388   6.641   6.957
18163SOL    HW256329  11.417   6.759   7.048
18164SOL     OW56330  13.214   3.005  14.766
18164SOL    HW156331  13.184   2.921  14.730
18164SOL    HW256332  13.284   2.982  14.827
18165SOL     OW56333   1.352   1.314   8.811
18165SOL    HW156334   1.332   1.371   8.885
18165SOL    HW256335   1.417   1.253   8.845
18166SOL     OW56336   6.776   2.022   0.915
18166SOL    HW156337   6.780   2.063   0.828
18166SOL    HW256338   6.867   2.001   0.936
18167SOL     OW56339   9.605   7.031  11.953
18167SOL    HW156340   9.688   7.059  11.914
18167SOL    HW256341   9.611   6.935  11.956
18168SOL     OW56342  14.275   6.845   0.867
18168SOL    HW156343  14.317   6.890   0.940
18168SOL    HW256344  14.220   6.911   0.826
18169SOL     OW56345   2.919   9.369  11.052
18169SOL    HW156346   2.992   9.314  11.078
18169SOL    HW256347   2.842   9.326  11.088
18170SOL     OW56348   8.137   9.383   2.916
18170SOL    HW156349   8.104   9.338   2.994
18170SOL    HW256350   8.144   9.475   2.943
18171SOL     OW56351   3.367  11.388   1.922
18171SOL    HW156352   3.410  11.330   1.859
18171SOL    HW256353   3.287  11.342   1.948
18172SOL     OW56354   1.288   3.125   7.262
18172SOL    HW156355   1.290   3.179   7.341
18172SOL    HW256356   1.372   3.079   7.262
18173SOL     OW56357  13.462   2.948   6.422
18173SOL    HW156358  13.420   2.863   6.438
18173SOL    HW256359  13.536   2.928   6.365
18174SOL     OW56360   7.485   9.257   8.053
18174SOL    HW156361   7.419   9.187   8.054
18174SOL    HW256362   7.434   9.338   8.057
18175SOL     OW56363   7.955   2.891   8.286
18175SOL    HW156364   7.904   2.970   8.266
18175SOL    HW256365   7.955   2.886   8.381
18176SOL     OW56366   9.617  12.303   7.004
18176SOL    HW156367   9.584  12.355   6.931
18176SOL    HW256368   9.582  12.215   6.989
18177SOL     OW56369  11.931   7.485   8.084
18177SOL    HW156370  11.966   7.530   8.007
18177SOL    HW256371  11.876   7.551   8.127
18178SOL     OW56372   7.335   9.037  10.278
18178SOL    HW156373   7.388   9.040  10.198
18178SOL    HW256374   7.290   9.121  10.280
18179SOL     OW56375  14.856  10.478   7.125
18179SOL    HW156376   0.037  10.407   7.154
18179SOL    HW256377  14.861  10.473   7.029
18180SOL     OW56378   3.134   0.584  11.652
18180SOL    HW156379   3.207   0.621  11.702
18180SOL    HW256380   3.170   0.505  11.613
18181SOL     OW56381   9.169   1.635  12.855
18181SOL    HW156382   9.206   1.578  12.922
18181SOL    HW256383   9.091   1.673  12.895
18182SOL     OW56384   2.033   7.030  12.052
18182SOL    HW156385   1.970   6.959  12.038
18182SOL    HW256386   1.983   7.098  12.097
18183SOL     OW56387  10.394   2.118   2.410
18183SOL    HW156388  10.361   2.207   2.422
18183SOL    HW256389  10.421   2.090   2.497
18184SOL     OW56390   2.976  12.321   8.791
18184SOL    HW156391   2.883  12.300   8.791
18184SOL    HW256392   3.003  12.310   8.700
18185SOL     OW56393   5.258   0.432   2.652
18185SOL    HW156394   5.164   0.451   2.648
18185SOL    HW256395   5.298   0.516   2.677
18186SOL     OW56396  12.453  13.622  11.737
18186SOL    HW156397  12.528  13.611  11.679
18186SOL    HW256398  12.472  13.702  11.786
18187SOL     OW56399  13.334  12.879  14.792
18187SOL    HW156400  13.326  12.957  14.848
18187SOL    HW256401  13.383  12.816  14.846
18188SOL     OW56402  10.078   5.222  14.090
18188SOL    HW156403  10.048   5.237  14.179
18188SOL    HW256404   9.998   5.215  14.038
18189SOL     OW56405   7.116  12.171   7.012
18189SOL    HW156406   7.152  12.082   7.005
18189SOL    HW256407   7.108  12.186   7.106
18190SOL     OW56408   1.167  12.001   4.915
18190SOL    HW156409   1.105  11.943   4.959
18190SOL    HW256410   1.250  11.987   4.960
18191SOL     OW56411  11.227   6.200   7.189
18191SOL    HW156412  11.319   6.176   7.186
18191SOL    HW256413  11.227   6.294   7.205
18192SOL     OW56414   9.170   1.547  11.624
18192SOL    HW156415   9.246   1.488  11.629
18192SOL    HW256416   9.146   1.546  11.531
18193SOL     OW56417  12.345  13.770  10.521
18193SOL    HW156418  12.422  13.755  10.575
18193SOL    HW256419  12.271  13.746  10.577
18194SOL     OW56420  12.055   9.890   4.646
18194SOL    HW156421  12.151   9.887   4.646
18194SOL    HW256422  12.034   9.971   4.600
18195SOL     OW56423  13.136   1.472   7.584
18195SOL    HW156424  13.138   1.566   7.603
18195SOL    HW256425  13.095   1.433   7.661
18196SOL     OW56426  11.917   4.012  12.228
18196SOL    HW156427  11.966   4.045  12.303
18196SOL    HW256428  11.828   4.047  12.239
18197SOL     OW56429   3.149  11.247   9.245
18197SOL    HW156430   3.071  11.194   9.260
18197SOL    HW256431   3.179  11.269   9.334
18198SOL     OW56432   7.282   3.941   9.322
18198SOL    HW156433   7.290   3.958   9.228
18198SOL    HW256434   7.369   3.912   9.349
18199SOL     OW56435   8.270   4.777   8.277
18199SOL    HW156436   8.222   4.749   8.355
18199SOL    HW256437   8.292   4.695   8.232
18200SOL     OW56438  14.573   3.260   4.477
18200SOL    HW156439  14.634   3.189   4.493
18200SOL    HW256440  14.611   3.308   4.403
18201SOL     OW56441   7.159   6.573   0.791
18201SOL    HW156442   7.238   6.519   0.783
18201SOL    HW256443   7.088   6.517   0.760
18202SOL     OW56444   6.088  13.279   2.953
18202SOL    HW156445   6.051  13.202   2.909
18202SOL    HW256446   6.023  13.302   3.020
18203SOL     OW56447   3.483   8.119   1.117
18203SOL    HW156448   3.456   8.158   1.201
18203SOL    HW256449   3.520   8.192   1.068
18204SOL     OW56450   7.185  10.023  11.976
18204SOL    HW156451   7.160  10.105  12.018
18204SOL    HW256452   7.241   9.980  12.040
18205SOL     OW56453  14.694   1.297  12.417
18205SOL    HW156454  14.631   1.287  12.489
18205SOL    HW256455  14.779   1.281  12.457
18206SOL     OW56456   6.231   0.888  13.252
18206SOL    HW156457   6.305   0.828  13.262
18206SOL    HW256458   6.226   0.904  13.158
18207SOL     OW56459  13.331   1.498  12.949
18207SOL    HW156460  13.288   1.578  12.981
18207SOL    HW256461  13.301   1.490  12.859
18208SOL     OW56462   8.009  13.570  12.762
18208SOL    HW156463   7.954  13.565  12.684
18208SOL    HW256464   7.989  13.655  12.801
18209SOL     OW56465   1.309   7.341   1.443
18209SOL    HW156466   1.360   7.371   1.368
18209SOL    HW256467   1.373   7.301   1.501
18210SOL     OW56468  12.770   1.663   2.285
18210SOL    HW156469  12.816   1.598   2.232
18210SOL    HW256470  12.830   1.738   2.286
18211SOL     OW56471  14.804  12.204   9.311
18211SOL    HW156472  14.840  12.140   9.371
18211SOL    HW256473  14.717  12.171   9.288
18212SOL     OW56474   7.697   8.114   5.708
18212SOL    HW156475   7.657   8.124   5.622
18212SOL    HW256476   7.725   8.022   5.711
18213SOL     OW56477   7.920   1.653  13.469
18213SOL    HW156478   7.906   1.574  13.418
18213SOL    HW256479   7.995   1.696  13.427
18214SOL     OW56480   6.573   2.552   5.231
18214SOL    HW156481   6.532   2.565   5.146
18214SOL    HW256482   6.508   2.582   5.294
18215SOL     OW56483   4.484   9.240   2.070
18215SOL    HW156484   4.547   9.264   2.002
18215SOL    HW256485   4.474   9.319   2.123
18216SOL     OW56486   1.294   4.409   6.094
18216SOL    HW156487   1.228   4.423   6.162
18216SOL    HW256488   1.254   4.444   6.014
18217SOL     OW56489   5.431   5.758   3.986
18217SOL    HW156490   5.434   5.731   3.894
18217SOL    HW256491   5.338   5.757   4.008
18218SOL     OW56492  14.166   4.047   1.431
18218SOL    HW156493  14.259   4.029   1.417
18218SOL    HW256494  14.122   3.970   1.395
18219SOL     OW56495   0.417  11.663   0.466
18219SOL    HW156496   0.480  11.621   0.408
18219SOL    HW256497   0.470  11.700   0.536
18220SOL     OW56498  11.020  10.167   3.383
18220SOL    HW156499  11.062  10.090   3.423
18220SOL    HW256500  11.018  10.147   3.289
18221SOL     OW56501   2.025   1.477   3.803
18221SOL    HW156502   2.007   1.506   3.893
18221SOL    HW256503   1.970   1.534   3.749
18222SOL     OW56504  12.387   5.292   1.944
18222SOL    HW156505  12.321   5.271   1.879
18222SOL    HW256506  12.429   5.209   1.965
18223SOL     OW56507  10.101  11.206   4.061
18223SOL    HW156508  10.111  11.299   4.041
18223SOL    HW256509  10.012  11.198   4.096
18224SOL     OW56510  12.277   0.950  13.346
18224SOL    HW156511  12.224   0.927  13.422
18224SOL    HW256512  12.241   0.899  13.274
18225SOL     OW56513   2.817   4.516   0.325
18225SOL    HW156514   2.748   4.502   0.390
18225SOL    HW256515   2.771   4.546   0.247
18226SOL     OW56516   1.542   8.404   4.332
18226SOL    HW156517   1.636   8.386   4.338
18226SOL    HW256518   1.520   8.442   4.417
18227SOL     OW56519   1.489  10.238   3.805
18227SOL    HW156520   1.452  10.150   3.804
18227SOL    HW256521   1.583  10.224   3.796
18228SOL     OW56522   0.708  11.067  13.741
18228SOL    HW156523   0.683  11.154  13.772
18228SOL    HW256524   0.782  11.082  13.681
18229SOL     OW56525   7.823   4.377   0.132
18229SOL    HW156526   7.864   4.422   0.059
18229SOL    HW256527   7.842   4.431   0.208
18230SOL     OW56528  14.467  11.650   1.219
18230SOL    HW156529  14.386  11.623   1.175
18230SOL    HW256530  14.481  11.584   1.286
18231SOL     OW56531  12.120   8.605   3.484
18231SOL    HW156532  12.117   8.595   3.579
18231SOL    HW256533  12.202   8.650   3.466
18232SOL     OW56534   7.206   9.511   7.678
18232SOL    HW156535   7.277   9.493   7.617
18232SOL    HW256536   7.142   9.442   7.661
18233SOL     OW56537  12.554  11.746   2.717
18233SOL    HW156538  12.496  11.777   2.787
18233SOL    HW256539  12.500  11.750   2.638
18234SOL     OW56540  14.222   0.079  11.764
18234SOL    HW156541  14.235   0.058  11.671
18234SOL    HW256542  14.251   0.001  11.811
18235SOL     OW56543  10.765  12.615   0.337
18235SOL    HW156544  10.757  12.696   0.389
18235SOL    HW256545  10.828  12.562   0.386
18236SOL     OW56546  12.767   0.423   9.840
18236SOL    HW156547  12.698   0.365   9.806
18236SOL    HW256548  12.724   0.509   9.848
18237SOL     OW56549   2.763   2.717  12.569
18237SOL    HW156550   2.857   2.724  12.551
18237SOL    HW256551   2.738   2.633  12.530
18238SOL     OW56552  12.734  10.551  10.691
18238SOL    HW156553  12.723  10.568  10.785
18238SOL    HW256554  12.688  10.623  10.648
18239SOL     OW56555  11.536   3.487   0.869
18239SOL    HW156556  11.590   3.417   0.905
18239SOL    HW256557  11.597   3.538   0.815
18240SOL     OW56558   9.253  14.142   2.523
18240SOL    HW156559   9.299  14.067   2.487
18240SOL    HW256560   9.320  14.209   2.533
18241SOL     OW56561   4.163   5.895   1.837
18241SOL    HW156562   4.235   5.953   1.813
18241SOL    HW256563   4.100   5.905   1.766
18242SOL     OW56564  10.644   5.563   8.012
18242SOL    HW156565  10.721   5.613   8.040
18242SOL    HW256566  10.668   5.529   7.926
18243SOL     OW56567  14.570   7.963   4.563
18243SOL    HW156568  14.653   7.937   4.522
18243SOL    HW256569  14.503   7.942   4.498
18244SOL     OW56570   0.215   8.530   2.524
18244SOL    HW156571   0.165   8.496   2.597
18244SOL    HW256572   0.214   8.460   2.459
18245SOL     OW56573  11.675  10.082  13.571
18245SOL    HW156574  11.623  10.150  13.529
18245SOL    HW256575  11.676  10.108  13.664
18246SOL     OW56576  14.789  10.363   2.276
18246SOL    HW156577  14.712  10.323   2.317
18246SOL    HW256578  14.822  10.424   2.343
18247SOL     OW56579   9.169   0.374   9.557
18247SOL    HW156580   9.120   0.445   9.598
18247SOL    HW256581   9.110   0.338   9.491
18248SOL     OW56582   6.007  10.014  10.875
18248SOL    HW156583   6.083  10.023  10.816
18248SOL    HW256584   5.984  10.104  10.898
18249SOL     OW56585  12.382   7.484   2.677
18249SOL    HW156586  12.290   7.465   2.695
18249SOL    HW256587  12.381   7.540   2.600
18250SOL     OW56588  13.479   8.364   9.314
18250SOL    HW156589  13.543   8.415   9.364
18250SOL    HW256590  13.530   8.324   9.244
18251SOL     OW56591   4.759   3.223   5.885
18251SOL    HW156592   4.823   3.228   5.814
18251SOL    HW256593   4.720   3.311   5.889
18252SOL     OW56594   0.841   7.411  11.535
18252SOL    HW156595   0.812   7.327  11.500
18252SOL    HW256596   0.829   7.473  11.463
18253SOL     OW56597  10.176  10.546   1.900
18253SOL    HW156598  10.107  10.610   1.915
18253SOL    HW256599  10.152  10.502   1.818
18254SOL     OW56600   3.978  12.710   9.467
18254SOL    HW156601   4.052  12.745   9.517
18254SOL    HW256602   3.920  12.786   9.454
18255SOL     OW56603   1.107  10.367   7.388
18255SOL    HW156604   1.162  10.330   7.318
18255SOL    HW256605   1.037  10.412   7.341
18256SOL     OW56606   8.356   5.830   0.552
18256SOL    HW156607   8.324   5.785   0.474
18256SOL    HW256608   8.445   5.857   0.529
18257SOL     OW56609  10.956  14.612  14.454
18257SOL    HW156610  10.917  14.602  14.368
18257SOL    HW256611  11.016  14.685  14.446
18258SOL     OW56612   7.205   5.674  13.121
18258SOL    HW156613   7.301   5.674  13.118
18258SOL    HW256614   7.179   5.663  13.029
18259SOL     OW56615  10.146   6.404   7.497
18259SOL    HW156616  10.214   6.471   7.509
18259SOL    HW256617  10.082   6.423   7.565
18260SOL     OW56618   3.968   8.421   5.626
18260SOL    HW156619   4.000   8.465   5.704
18260SOL    HW256620   4.005   8.471   5.553
18261SOL     OW56621   8.064   8.051  10.109
18261SOL    HW156622   8.119   8.129  10.107
18261SOL    HW256623   8.125   7.979  10.128
18262SOL     OW56624   8.861   1.285  12.077
18262SOL    HW156625   8.872   1.315  12.167
18262SOL    HW256626   8.940   1.315  12.032
18263SOL     OW56627  11.436   0.806   2.047
18263SOL    HW156628  11.517   0.787   2.095
18263SOL    HW256629  11.423   0.900   2.058
18264SOL     OW56630   9.368  13.376  14.142
18264SOL    HW156631   9.293  13.341  14.189
18264SOL    HW256632   9.440  13.371  14.205
18265SOL     OW56633   9.624   3.196  10.331
18265SOL    HW156634   9.650   3.132  10.264
18265SOL    HW256635   9.687   3.267  10.322
18266SOL     OW56636   3.356   8.841   1.518
18266SOL    HW156637   3.270   8.855   1.477
18266SOL    HW256638   3.361   8.746   1.531
18267SOL     OW56639  11.036   6.070  13.454
18267SOL    HW156640  11.087   6.146  13.427
18267SOL    HW256641  11.096   5.996  13.443
18268SOL     OW56642   9.474   1.138   8.586
18268SOL    HW156643   9.522   1.176   8.513
18268SOL    HW256644   9.543   1.109   8.647
18269SOL     OW56645   1.006   6.297   6.803
18269SOL    HW156646   1.002   6.333   6.892
18269SOL    HW256647   1.045   6.367   6.752
18270SOL     OW56648   4.446  11.409   3.818
18270SOL    HW156649   4.478  11.324   3.847
18270SOL    HW256650   4.521  11.450   3.777
18271SOL     OW56651   5.188  12.302   9.736
18271SOL    HW156652   5.168  12.219   9.780
18271SOL    HW256653   5.283  12.307   9.737
18272SOL     OW56654   2.552   3.739  11.479
18272SOL    HW156655   2.602   3.680  11.423
18272SOL    HW256656   2.464   3.701  11.481
18273SOL     OW56657   7.525  10.383  12.876
18273SOL    HW156658   7.597  10.357  12.818
18273SOL    HW256659   7.460  10.421  12.817
18274SOL     OW56660   6.805   1.214  12.734
18274SOL    HW156661   6.877   1.184  12.679
18274SOL    HW256662   6.748   1.138  12.742
18275SOL     OW56663   2.869   7.447   6.018
18275SOL    HW156664   2.789   7.400   6.041
18275SOL    HW256665   2.899   7.404   5.938
18276SOL     OW56666   3.795   3.609   9.067
18276SOL    HW156667   3.705   3.587   9.092
18276SOL    HW256668   3.850   3.556   9.124
18277SOL     OW56669   0.528   9.955   7.936
18277SOL    HW156670   0.524   9.868   7.976
18277SOL    HW256671   0.621   9.975   7.931
18278SOL     OW56672   1.428   7.105   8.388
18278SOL    HW156673   1.393   7.108   8.477
18278SOL    HW256674   1.479   7.186   8.379
18279SOL     OW56675   3.706   7.194   0.347
18279SOL    HW156676   3.728   7.283   0.321
18279SOL    HW256677   3.614   7.183   0.322
18280SOL     OW56678  11.390  11.527   8.952
18280SOL    HW156679  11.483  11.506   8.960
18280SOL    HW256680  11.377  11.600   9.012
18281SOL     OW56681  10.261  13.529  13.327
18281SOL    HW156682  10.262  13.479  13.408
18281SOL    HW256683  10.276  13.620  13.354
18282SOL     OW56684   5.396  14.453   9.005
18282SOL    HW156685   5.352  14.371   9.028
18282SOL    HW256686   5.467  14.426   8.946
18283SOL     OW56687   3.843   9.336   5.156
18283SOL    HW156688   3.883   9.353   5.242
18283SOL    HW256689   3.758   9.297   5.176
18284SOL     OW56690   6.805   3.893   8.358
18284SOL    HW156691   6.731   3.862   8.306
18284SOL    HW256692   6.829   3.976   8.316
18285SOL     OW56693  14.220  13.325   8.500
18285SOL    HW156694  14.297  13.324   8.556
18285SOL    HW256695  14.234  13.254   8.437
18286SOL     OW56696   4.589   6.412   1.808
18286SOL    HW156697   4.521   6.470   1.842
18286SOL    HW256698   4.543   6.354   1.748
18287SOL     OW56699   7.995   9.139   4.825
18287SOL    HW156700   8.019   9.124   4.916
18287SOL    HW256701   7.899   9.140   4.825
18288SOL     OW56702   2.150  13.561   8.637
18288SOL    HW156703   2.156  13.578   8.731
18288SOL    HW256704   2.059  13.582   8.615
18289SOL     OW56705   9.270  10.063   8.763
18289SOL    HW156706   9.332   9.993   8.784
18289SOL    HW256707   9.316  10.144   8.785
18290SOL     OW56708   9.510   3.284  11.741
18290SOL    HW156709   9.498   3.190  11.732
18290SOL    HW256710   9.595   3.301  11.700
18291SOL     OW56711   8.934   3.242   6.009
18291SOL    HW156712   8.942   3.198   5.925
18291SOL    HW256713   8.845   3.224   6.038
18292SOL     OW56714   5.782  14.640   7.285
18292SOL    HW156715   5.799  14.721   7.332
18292SOL    HW256716   5.838  14.575   7.328
18293SOL     OW56717   5.465   7.943   8.513
18293SOL    HW156718   5.528   7.926   8.444
18293SOL    HW256719   5.384   7.964   8.467
18294SOL     OW56720   0.182   8.597   4.622
18294SOL    HW156721   0.228   8.535   4.565
18294SOL    HW256722   0.091   8.593   4.593
18295SOL     OW56723   7.199   1.847  11.932
18295SOL    HW156724   7.156   1.770  11.893
18295SOL    HW256725   7.279   1.858  11.881
18296SOL     OW56726   0.763   8.342   0.973
18296SOL    HW156727   0.776   8.402   0.899
18296SOL    HW256728   0.690   8.286   0.945
18297SOL     OW56729   8.987   5.824   6.779
18297SOL    HW156730   9.031   5.827   6.694
18297SOL    HW256731   8.898   5.852   6.761
18298SOL     OW56732   9.575  13.702  13.943
18298SOL    HW156733   9.557  13.768  14.009
18298SOL    HW256734   9.665  13.720  13.914
18299SOL     OW56735   1.113   1.200  12.379
18299SOL    HW156736   1.027   1.176  12.415
18299SOL    HW256737   1.098   1.284  12.336
18300SOL     OW56738  12.134  13.729  13.592
18300SOL    HW156739  12.113  13.647  13.546
18300SOL    HW256740  12.111  13.798  13.530
18301SOL     OW56741  12.797   1.789   4.865
18301SOL    HW156742  12.725   1.851   4.874
18301SOL    HW256743  12.765   1.708   4.906
18302SOL     OW56744   9.265   8.005   9.183
18302SOL    HW156745   9.176   7.974   9.199
18302SOL    HW256746   9.266   8.094   9.217
18303SOL     OW56747   6.153   0.916  14.519
18303SOL    HW156748   6.148   0.825  14.548
18303SOL    HW256749   6.228   0.918  14.459
18304SOL     OW56750  10.580   8.868   9.833
18304SOL    HW156751  10.529   8.829   9.904
18304SOL    HW256752  10.670   8.870   9.867
18305SOL     OW56753   7.478   0.760   6.801
18305SOL    HW156754   7.438   0.717   6.877
18305SOL    HW256755   7.523   0.689   6.755
18306SOL     OW56756   1.158  11.000   9.672
18306SOL    HW156757   1.078  10.954   9.698
18306SOL    HW256758   1.132  11.092   9.666
18307SOL     OW56759  13.988   5.789   5.518
18307SOL    HW156760  13.918   5.843   5.481
18307SOL    HW256761  14.066   5.844   5.511
18308SOL     OW56762   6.633  11.472   1.525
18308SOL    HW156763   6.604  11.482   1.434
18308SOL    HW256764   6.699  11.540   1.536
18309SOL     OW56765  12.654   7.337  12.273
18309SOL    HW156766  12.699   7.400  12.328
18309SOL    HW256767  12.593   7.389  12.221
18310SOL     OW56768   6.256   3.615  13.797
18310SOL    HW156769   6.186   3.558  13.829
18310SOL    HW256770   6.280   3.579  13.712
18311SOL     OW56771   5.127   2.549   9.604
18311SOL    HW156772   5.181   2.542   9.525
18311SOL    HW256773   5.181   2.511   9.673
18312SOL     OW56774   7.811  14.548  13.984
18312SOL    HW156775   7.845  14.632  13.955
18312SOL    HW256776   7.718  14.550  13.963
18313SOL     OW56777  12.072   2.119  14.117
18313SOL    HW156778  12.081   2.104  14.023
18313SOL    HW256779  12.054   2.032  14.153
18314SOL     OW56780  10.012  11.936  13.550
18314SOL    HW156781   9.951  11.867  13.523
18314SOL    HW256782   9.960  11.993  13.606
18315SOL     OW56783   6.348   9.711   5.452
18315SOL    HW156784   6.355   9.760   5.534
18315SOL    HW256785   6.270   9.747   5.409
18316SOL     OW56786   8.474   7.102   2.026
18316SOL    HW156787   8.418   7.108   2.104
18316SOL    HW256788   8.442   7.171   1.968
18317SOL     OW56789  12.195  11.155   3.286
18317SOL    HW156790  12.099  11.151   3.284
18317SOL    HW256791  12.220  11.156   3.193
18318SOL     OW56792   2.845   8.580   6.130
18318SOL    HW156793   2.871   8.532   6.209
18318SOL    HW256794   2.764   8.625   6.156
18319SOL     OW56795  12.781   9.877  10.633
18319SOL    HW156796  12.779   9.930  10.553
18319SOL    HW256797  12.853   9.913  10.685
18320SOL     OW56798   7.699  10.644   3.848
18320SOL    HW156799   7.754  10.637   3.770
18320SOL    HW256800   7.698  10.556   3.885
18321SOL     OW56801  10.824   9.223   2.332
18321SOL    HW156802  10.739   9.183   2.317
18321SOL    HW256803  10.852   9.252   2.245
18322SOL     OW56804  11.928  13.715   0.115
18322SOL    HW156805  11.860  13.781   0.117
18322SOL    HW256806  11.882  13.632   0.127
18323SOL     OW56807  11.585  11.614   2.841
18323SOL    HW156808  11.552  11.582   2.925
18323SOL    HW256809  11.507  11.648   2.796
18324SOL     OW56810   9.955   7.910   9.304
18324SOL    HW156811  10.046   7.882   9.312
18324SOL    HW256812   9.926   7.874   9.220
18325SOL     OW56813   1.137   0.026   5.618
18325SOL    HW156814   1.086   0.046   5.696
18325SOL    HW256815   1.076   0.037   5.545
18326SOL     OW56816   6.294   7.431   6.403
18326SOL    HW156817   6.246   7.512   6.421
18326SOL    HW256818   6.231   7.361   6.421
18327SOL     OW56819   5.313  13.984   8.552
18327SOL    HW156820   5.390  13.942   8.590
18327SOL    HW256821   5.338  14.076   8.540
18328SOL     OW56822   2.915  11.712   7.968
18328SOL    HW156823   2.921  11.672   7.881
18328SOL    HW256824   2.997  11.688   8.011
18329SOL     OW56825   6.288   0.286   5.527
18329SOL    HW156826   6.346   0.228   5.478
18329SOL    HW256827   6.273   0.241   5.610
18330SOL     OW56828  13.531   6.676  11.073
18330SOL    HW156829  13.472   6.752  11.075
18330SOL    HW256830  13.498   6.618  11.141
18331SOL     OW56831   6.281  11.341  10.970
18331SOL    HW156832   6.308  11.390  10.892
18331SOL    HW256833   6.186  11.335  10.963
18332SOL     OW56834   6.693  11.024  11.236
18332SOL    HW156835   6.658  11.113  11.242
18332SOL    HW256836   6.663  10.993  11.151
18333SOL     OW56837  13.150   5.195  12.868
18333SOL    HW156838  13.226   5.147  12.899
18333SOL    HW256839  13.075   5.153  12.910
18334SOL     OW56840   1.545   5.191  14.061
18334SOL    HW156841   1.521   5.274  14.101
18334SOL    HW256842   1.632   5.172  14.096
18335SOL     OW56843   3.578   6.246  12.651
18335SOL    HW156844   3.638   6.309  12.690
18335SOL    HW256845   3.492   6.289  12.655
18336SOL     OW56846  14.075   1.450  13.515
18336SOL    HW156847  13.993   1.430  13.469
18336SOL    HW256848  14.079   1.386  13.586
18337SOL     OW56849   8.485  11.846  13.386
18337SOL    HW156850   8.574  11.811  13.380
18337SOL    HW256851   8.432  11.783  13.337
18338SOL     OW56852   5.806   4.696   0.641
18338SOL    HW156853   5.776   4.773   0.688
18338SOL    HW256854   5.733   4.674   0.582
18339SOL     OW56855   0.071  11.626   5.961
18339SOL    HW156856   0.160  11.593   5.974
18339SOL    HW256857   0.052  11.674   6.042
18340SOL     OW56858  13.292   7.949   7.230
18340SOL    HW156859  13.220   7.958   7.167
18340SOL    HW256860  13.273   7.868   7.277
18341SOL     OW56861  14.209   9.953  14.370
18341SOL    HW156862  14.193  10.048  14.371
18341SOL    HW256863  14.163   9.919  14.446
18342SOL     OW56864   8.094   6.023   5.840
18342SOL    HW156865   8.162   6.081   5.874
18342SOL    HW256866   8.025   6.025   5.906
18343SOL     OW56867   7.868   7.835   4.417
18343SOL    HW156868   7.774   7.833   4.404
18343SOL    HW256869   7.880   7.885   4.498
18344SOL     OW56870  13.954   0.113   5.503
18344SOL    HW156871  13.908   0.131   5.421
18344SOL    HW256872  14.043   0.143   5.487
18345SOL     OW56873   6.029   1.969  14.010
18345SOL    HW156874   5.958   1.981  13.946
18345SOL    HW256875   6.100   2.024  13.978
18346SOL     OW56876   8.817  10.527   0.312
18346SOL    HW156877   8.908  10.557   0.314
18346SOL    HW256878   8.817  10.451   0.254
18347SOL     OW56879   2.342  12.206  13.063
18347SOL    HW156880   2.433  12.210  13.033
18347SOL    HW256881   2.327  12.114  13.082
18348SOL     OW56882   6.717   8.576  13.782
18348SOL    HW156883   6.631   8.544  13.757
18348SOL    HW256884   6.778   8.506  13.759
18349SOL     OW56885  11.388  11.261   1.985
18349SOL    HW156886  11.373  11.178   1.941
18349SOL    HW256887  11.382  11.327   1.916
18350SOL     OW56888  13.142  10.314   7.864
18350SOL    HW156889  13.104  10.227   7.874
18350SOL    HW256890  13.109  10.363   7.939
18351SOL     OW56891  13.857   2.238   9.948
18351SOL    HW156892  13.868   2.239   9.853
18351SOL    HW256893  13.763   2.236   9.962
18352SOL     OW56894   9.047   8.380   7.661
18352SOL    HW156895   9.021   8.353   7.573
18352SOL    HW256896   9.103   8.456   7.647
18353SOL     OW56897   7.000   1.705   6.284
18353SOL    HW156898   6.992   1.662   6.369
18353SOL    HW256899   7.009   1.798   6.305
18354SOL     OW56900  11.970   2.188  13.314
18354SOL    HW156901  12.035   2.118  13.315
18354SOL    HW256902  11.890   2.146  13.282
18355SOL     OW56903   2.478   4.095   9.015
18355SOL    HW156904   2.571   4.087   9.032
18355SOL    HW256905   2.473   4.144   8.932
18356SOL     OW56906   2.867   8.173   5.030
18356SOL    HW156907   2.781   8.138   5.056
18356SOL    HW256908   2.926   8.144   5.099
18357SOL     OW56909   0.211  12.563   5.938
18357SOL    HW156910   0.188  12.611   5.858
18357SOL    HW256911   0.257  12.485   5.906
18358SOL     OW56912   1.325  14.515   3.791
18358SOL    HW156913   1.392  14.506   3.723
18358SOL    HW256914   1.297  14.425   3.809
18359SOL     OW56915  12.162   7.450   3.889
18359SOL    HW156916  12.218   7.433   3.965
18359SOL    HW256917  12.221   7.451   3.814
18360SOL     OW56918  13.452  12.142   7.852
18360SOL    HW156919  13.458  12.192   7.934
18360SOL    HW256920  13.537  12.153   7.811
18361SOL     OW56921  13.732   9.558   8.467
18361SOL    HW156922  13.767   9.482   8.514
18361SOL    HW256923  13.806   9.618   8.459
18362SOL     OW56924  12.670  13.408   4.665
18362SOL    HW156925  12.638  13.320   4.646
18362SOL    HW256926  12.682  13.448   4.579
18363SOL     OW56927   9.833   8.026  11.223
18363SOL    HW156928   9.928   8.027  11.232
18363SOL    HW256929   9.817   7.982  11.140
18364SOL     OW56930   3.410   4.959   8.608
18364SOL    HW156931   3.462   4.952   8.688
18364SOL    HW256932   3.344   5.024   8.629
18365SOL     OW56933  13.403   7.326   3.070
18365SOL    HW156934  13.331   7.326   3.007
18365SOL    HW256935  13.401   7.413   3.110
18366SOL     OW56936   9.660  13.639  12.130
18366SOL    HW156937   9.660  13.640  12.034
18366SOL    HW256938   9.747  13.673  12.154
18367SOL     OW56939   5.858   0.184   1.006
18367SOL    HW156940   5.845   0.092   0.983
18367SOL    HW256941   5.777   0.210   1.050
18368SOL     OW56942   4.734   0.510   1.230
18368SOL    HW156943   4.698   0.563   1.159
18368SOL    HW256944   4.744   0.423   1.192
18369SOL     OW56945   4.930   8.722   5.667
18369SOL    HW156946   5.004   8.703   5.608
18369SOL    HW256947   4.934   8.653   5.733
18370SOL     OW56948   1.839   5.802   8.651
18370SOL    HW156949   1.781   5.811   8.576
18370SOL    HW256950   1.927   5.797   8.613
18371SOL     OW56951  14.708  10.130   8.888
18371SOL    HW156952  14.744  10.146   8.801
18371SOL    HW256953  14.664  10.212   8.911
18372SOL     OW56954   3.893   2.915  14.001
18372SOL    HW156955   3.874   2.830  14.041
18372SOL    HW256956   3.808   2.947  13.971
18373SOL     OW56957   6.765   0.620   7.366
18373SOL    HW156958   6.671   0.635   7.369
18373SOL    HW256959   6.802   0.685   7.425
18374SOL     OW56960   1.535  13.381   0.124
18374SOL    HW156961   1.522  13.461   0.072
18374SOL    HW256962   1.465  13.384   0.189
18375SOL     OW56963  13.029   7.522  12.625
18375SOL    HW156964  13.066   7.516  12.713
18375SOL    HW256965  13.066   7.602  12.589
18376SOL     OW56966   3.275   5.561   6.076
18376SOL    HW156967   3.368   5.585   6.074
18376SOL    HW256968   3.229   5.644   6.069
18377SOL     OW56969   3.943   5.711  10.103
18377SOL    HW156970   3.913   5.778  10.041
18377SOL    HW256971   3.992   5.761  10.169
18378SOL     OW56972   7.966  11.418   3.828
18378SOL    HW156973   8.018  11.387   3.903
18378SOL    HW256974   7.990  11.360   3.756
18379SOL     OW56975  13.376   8.186   5.044
18379SOL    HW156976  13.291   8.202   5.003
18379SOL    HW256977  13.382   8.253   5.113
18380SOL     OW56978   2.071   7.510  11.613
18380SOL    HW156979   2.163   7.485  11.620
18380SOL    HW256980   2.066   7.564  11.534
18381SOL     OW56981  13.041  11.435  11.883
18381SOL    HW156982  13.121  11.383  11.881
18381SOL    HW256983  13.042  11.476  11.970
18382SOL     OW56984  14.777   1.079   9.080
18382SOL    HW156985  14.755   1.044   9.167
18382SOL    HW256986  14.843   1.146   9.097
18383SOL     OW56987  10.984   0.892   5.039
18383SOL    HW156988  10.941   0.956   5.095
18383SOL    HW256989  10.993   0.936   4.954
18384SOL     OW56990  10.886  11.645   4.903
18384SOL    HW156991  10.798  11.661   4.869
18384SOL    HW256992  10.887  11.552   4.925
18385SOL     OW56993  10.494   3.770  12.685
18385SOL    HW156994  10.583   3.743  12.662
18385SOL    HW256995  10.484   3.742  12.776
18386SOL     OW56996   8.686  11.695  13.871
18386SOL    HW156997   8.698  11.761  13.802
18386SOL    HW256998   8.774  11.682  13.907
18387SOL     OW56999   2.587   1.308  14.254
18387SOL    HW157000   2.499   1.305  14.293
18387SOL    HW257001   2.646   1.288  14.327
18388SOL     OW57002  12.209   5.507  10.020
18388SOL    HW157003  12.215   5.436   9.956
18388SOL    HW257004  12.224   5.465  10.104
18389SOL     OW57005  13.063  14.327   3.280
18389SOL    HW157006  13.047  14.301   3.371
18389SOL    HW257007  13.153  14.299   3.264
18390SOL     OW57008   2.244   6.453  11.804
18390SOL    HW157009   2.236   6.462  11.899
18390SOL    HW257010   2.336   6.475  11.785
18391SOL     OW57011  14.370   4.392  12.494
18391SOL    HW157012  14.279   4.401  12.520
18391SOL    HW257013  14.418   4.447  12.556
18392SOL     OW57014   7.978   8.423  10.453
18392SOL    HW157015   8.062   8.424  10.500
18392SOL    HW257016   7.981   8.499  10.396
18393SOL     OW57017   9.907   7.238   2.995
18393SOL    HW157018   9.877   7.328   2.989
18393SOL    HW257019   9.899   7.203   2.906
18394SOL     OW57020   1.662   1.245  14.633
18394SOL    HW157021   1.634   1.191  14.708
18394SOL    HW257022   1.757   1.238  14.634
18395SOL     OW57023   4.282   2.571   7.439
18395SOL    HW157024   4.216   2.624   7.484
18395SOL    HW257025   4.235   2.491   7.414
18396SOL     OW57026   7.198   4.691   5.431
18396SOL    HW157027   7.217   4.758   5.496
18396SOL    HW257028   7.104   4.697   5.417
18397SOL     OW57029  12.356   3.288   8.301
18397SOL    HW157030  12.392   3.366   8.260
18397SOL    HW257031  12.350   3.310   8.394
18398SOL     OW57032   1.514   9.922   5.077
18398SOL    HW157033   1.428   9.920   5.036
18398SOL    HW257034   1.531   9.832   5.104
18399SOL     OW57035   0.119   0.558  12.153
18399SOL    HW157036   0.047   0.511  12.111
18399SOL    HW257037   0.188   0.493  12.164
18400SOL     OW57038  11.326   7.516  10.544
18400SOL    HW157039  11.267   7.489  10.615
18400SOL    HW257040  11.302   7.458  10.471
18401SOL     OW57041   7.243  11.330  13.329
18401SOL    HW157042   7.274  11.394  13.393
18401SOL    HW257043   7.150  11.319  13.350
18402SOL     OW57044   3.188   3.659  12.500
18402SOL    HW157045   3.116   3.635  12.559
18402SOL    HW257046   3.193   3.586  12.438
18403SOL     OW57047  10.039   1.173  14.468
18403SOL    HW157048   9.971   1.198  14.531
18403SOL    HW257049  10.078   1.093  14.505
18404SOL     OW57050  13.087  11.101   8.833
18404SOL    HW157051  13.070  11.010   8.855
18404SOL    HW257052  13.003  11.135   8.801
18405SOL     OW57053  11.920  11.299   9.090
18405SOL    HW157054  11.846  11.330   9.142
18405SOL    HW257055  11.993  11.355   9.117
18406SOL     OW57056  12.352   3.168  13.477
18406SOL    HW157057  12.427   3.219  13.507
18406SOL    HW257058  12.390   3.096  13.426
18407SOL     OW57059  10.636  10.447   9.543
18407SOL    HW157060  10.629  10.537   9.512
18407SOL    HW257061  10.614  10.394   9.467
18408SOL     OW57062  12.297   7.413   3.630
18408SOL    HW157063  12.392   7.423   3.629
18408SOL    HW257064  12.283   7.321   3.609
18409SOL     OW57065   6.635   8.551   4.427
18409SOL    HW157066   6.704   8.617   4.417
18409SOL    HW257067   6.681   8.473   4.457
18410SOL     OW57068  11.680   3.986  13.748
18410SOL    HW157069  11.587   3.992  13.769
18410SOL    HW257070  11.689   3.902  13.702
18411SOL     OW57071  12.078   4.381   0.420
18411SOL    HW157072  12.102   4.353   0.332
18411SOL    HW257073  12.109   4.310   0.477
18412SOL     OW57074   1.353  12.872   0.516
18412SOL    HW157075   1.309  12.950   0.549
18412SOL    HW257076   1.286  12.827   0.465
18413SOL     OW57077   9.821   3.467   0.323
18413SOL    HW157078   9.901   3.508   0.292
18413SOL    HW257079   9.832   3.460   0.418
18414SOL     OW57080   1.189   5.576   9.655
18414SOL    HW157081   1.202   5.656   9.706
18414SOL    HW257082   1.145   5.606   9.575
18415SOL     OW57083   6.400   7.628   5.425
18415SOL    HW157084   6.477   7.573   5.428
18415SOL    HW257085   6.326   7.567   5.428
18416SOL     OW57086  12.379  10.591  10.346
18416SOL    HW157087  12.412  10.535  10.275
18416SOL    HW257088  12.354  10.530  10.415
18417SOL     OW57089  14.354  12.954   5.169
18417SOL    HW157090  14.372  12.877   5.223
18417SOL    HW257091  14.262  12.943   5.143
18418SOL     OW57092  13.841   7.117   4.292
18418SOL    HW157093  13.898   7.068   4.233
18418SOL    HW257094  13.804   7.186   4.237
18419SOL     OW57095  14.603   1.469   8.609
18419SOL    HW157096  14.670   1.537   8.607
18419SOL    HW257097  14.647   1.393   8.647
18420SOL     OW57098  11.778  13.231  11.259
18420SOL    HW157099  11.781  13.270  11.171
18420SOL    HW257100  11.769  13.137  11.243
18421SOL     OW57101   2.468   0.382   1.368
18421SOL    HW157102   2.450   0.473   1.343
18421SOL    HW257103   2.510   0.389   1.454
18422SOL     OW57104   5.519   9.571  14.277
18422SOL    HW157105   5.591   9.534  14.329
18422SOL    HW257106   5.521   9.521  14.195
18423SOL     OW57107  13.022   5.633   0.237
18423SOL    HW157108  13.052   5.549   0.203
18423SOL    HW257109  12.930   5.638   0.211
18424SOL     OW57110  12.657   6.319  10.762
18424SOL    HW157111  12.571   6.278  10.763
18424SOL    HW257112  12.657   6.375  10.684
18425SOL     OW57113   2.821  13.236  14.520
18425SOL    HW157114   2.781  13.276  14.442
18425SOL    HW257115   2.761  13.166  14.545
18426SOL     OW57116   4.690  12.421   7.146
18426SOL    HW157117   4.688  12.413   7.050
18426SOL    HW257118   4.710  12.333   7.177
18427SOL     OW57119   9.375   0.114   2.495
18427SOL    HW157120   9.409   0.090   2.581
18427SOL    HW257121   9.302   0.053   2.480
18428SOL     OW57122   3.506   6.418   2.727
18428SOL    HW157123   3.486   6.336   2.682
18428SOL    HW257124   3.563   6.465   2.667
18429SOL     OW57125   4.854  12.158   3.722
18429SOL    HW157126   4.815  12.236   3.763
18429SOL    HW257127   4.915  12.125   3.788
18430SOL     OW57128  12.195   9.219   1.159
18430SOL    HW157129  12.212   9.313   1.161
18430SOL    HW257130  12.220   9.188   1.246
18431SOL     OW57131  11.131   0.593   1.053
18431SOL    HW157132  11.125   0.599   1.148
18431SOL    HW257133  11.048   0.555   1.026
18432SOL     OW57134   2.038  14.234  11.469
18432SOL    HW157135   1.945  14.218  11.486
18432SOL    HW257136   2.042  14.326  11.441
18433SOL     OW57137   8.706  13.595   6.866
18433SOL    HW157138   8.642  13.528   6.843
18433SOL    HW257139   8.781  13.579   6.809
18434SOL     OW57140   7.558  10.153   4.227
18434SOL    HW157141   7.491  10.177   4.163
18434SOL    HW257142   7.621  10.226   4.223
18435SOL     OW57143   9.432  11.888   6.311
18435SOL    HW157144   9.371  11.863   6.380
18435SOL    HW257145   9.406  11.978   6.288
18436SOL     OW57146  10.952   7.648   8.096
18436SOL    HW157147  10.947   7.655   8.192
18436SOL    HW257148  11.004   7.569   8.081
18437SOL     OW57149  11.870   9.608   5.402
18437SOL    HW157150  11.798   9.552   5.374
18437SOL    HW257151  11.942   9.547   5.420
18438SOL     OW57152   8.912  13.233   2.941
18438SOL    HW157153   8.995  13.269   2.909
18438SOL    HW257154   8.911  13.257   3.034
18439SOL     OW57155   7.876   8.510  13.402
18439SOL    HW157156   7.919   8.595  13.409
18439SOL    HW257157   7.813   8.521  13.331
18440SOL     OW57158  10.100  11.814  13.303
18440SOL    HW157159  10.190  11.841  13.289
18440SOL    HW257160  10.091  11.808  13.398
18441SOL     OW57161   0.051   6.926   9.794
18441SOL    HW157162   0.048   6.994   9.727
18441SOL    HW257163   0.017   6.848   9.750
18442SOL     OW57164   5.207   9.708   0.689
18442SOL    HW157165   5.138   9.775   0.690
18442SOL    HW257166   5.265   9.735   0.618
18443SOL     OW57167  12.435   5.431   3.525
18443SOL    HW157168  12.392   5.352   3.492
18443SOL    HW257169  12.526   5.423   3.496
18444SOL     OW57170  11.817   3.579  11.614
18444SOL    HW157171  11.811   3.497  11.566
18444SOL    HW257172  11.768   3.564  11.695
18445SOL     OW57173   9.367  11.046   5.868
18445SOL    HW157174   9.352  10.990   5.792
18445SOL    HW257175   9.305  11.118   5.858
18446SOL     OW57176   2.644   6.550  11.327
18446SOL    HW157177   2.726   6.506  11.347
18446SOL    HW257178   2.666   6.616  11.261
18447SOL     OW57179   9.103   5.406   5.299
18447SOL    HW157180   9.082   5.350   5.224
18447SOL    HW257181   9.051   5.371   5.371
18448SOL     OW57182  11.945   5.895   7.891
18448SOL    HW157183  11.991   5.834   7.947
18448SOL    HW257184  12.006   5.915   7.820
18449SOL     OW57185   0.986  13.743   5.067
18449SOL    HW157186   0.926  13.681   5.026
18449SOL    HW257187   0.988  13.818   5.008
18450SOL     OW57188   3.326  13.448   5.299
18450SOL    HW157189   3.315  13.353   5.307
18450SOL    HW257190   3.354  13.476   5.386
18451SOL     OW57191  10.001   1.421   7.266
18451SOL    HW157192  10.079   1.366   7.271
18451SOL    HW257193   9.954   1.390   7.189
18452SOL     OW57194   8.830  10.960   2.549
18452SOL    HW157195   8.784  11.041   2.570
18452SOL    HW257196   8.888  10.944   2.624
18453SOL     OW57197   3.054  13.956  10.281
18453SOL    HW157198   2.962  13.956  10.255
18453SOL    HW257199   3.098  14.007  10.213
18454SOL     OW57200  14.553   8.169  10.013
18454SOL    HW157201  14.494   8.177   9.938
18454SOL    HW257202  14.498   8.189  10.089
18455SOL     OW57203  13.654   7.113  14.137
18455SOL    HW157204  13.699   7.110  14.221
18455SOL    HW257205  13.721   7.141  14.074
18456SOL     OW57206   6.308  12.374   6.474
18456SOL    HW157207   6.217  12.392   6.450
18456SOL    HW257208   6.301  12.321   6.553
18457SOL     OW57209   3.899   4.069  12.972
18457SOL    HW157210   3.975   4.098  13.023
18457SOL    HW257211   3.825   4.111  13.015
18458SOL     OW57212  12.098   1.073   5.378
18458SOL    HW157213  12.095   1.010   5.450
18458SOL    HW257214  12.038   1.143   5.405
18459SOL     OW57215   2.376   4.193   6.079
18459SOL    HW157216   2.389   4.288   6.078
18459SOL    HW257217   2.308   4.177   6.013
18460SOL     OW57218   0.717   7.756   9.857
18460SOL    HW157219   0.675   7.672   9.838
18460SOL    HW257220   0.807   7.732   9.880
18461SOL     OW57221   4.446  10.751   7.840
18461SOL    HW157222   4.459  10.737   7.934
18461SOL    HW257223   4.438  10.663   7.804
18462SOL     OW57224   6.934  13.855   0.156
18462SOL    HW157225   6.945  13.949   0.174
18462SOL    HW257226   6.961  13.845   0.065
18463SOL     OW57227   6.310   4.068   2.377
18463SOL    HW157228   6.309   4.134   2.308
18463SOL    HW257229   6.305   3.984   2.331
18464SOL     OW57230  14.671  12.139   6.112
18464SOL    HW157231  14.608  12.090   6.059
18464SOL    HW257232  14.754  12.093   6.098
18465SOL     OW57233   7.337   6.013   9.338
18465SOL    HW157234   7.241   6.013   9.339
18465SOL    HW257235   7.361   5.946   9.274
18466SOL     OW57236   7.529  11.703   0.808
18466SOL    HW157237   7.584  11.724   0.733
18466SOL    HW257238   7.498  11.787   0.841
18467SOL     OW57239   8.424   7.338   6.761
18467SOL    HW157240   8.501   7.390   6.738
18467SOL    HW257241   8.448   7.295   6.843
18468SOL     OW57242  14.486  10.977   5.613
18468SOL    HW157243  14.501  10.906   5.675
18468SOL    HW257244  14.408  10.950   5.564
18469SOL     OW57245  11.762  14.256   9.333
18469SOL    HW157246  11.694  14.198   9.367
18469SOL    HW257247  11.745  14.340   9.375
18470SOL     OW57248   8.498   5.179  13.416
18470SOL    HW157249   8.403   5.171  13.406
18470SOL    HW257250   8.531   5.186  13.326
18471SOL     OW57251  10.843   7.280  14.226
18471SOL    HW157252  10.862   7.243  14.140
18471SOL    HW257253  10.880   7.368  14.224
18472SOL     OW57254   1.947  11.969   8.291
18472SOL    HW157255   1.928  11.875   8.286
18472SOL    HW257256   2.026  11.980   8.238
18473SOL     OW57257  13.472   9.459   5.020
18473SOL    HW157258  13.555   9.432   5.058
18473SOL    HW257259  13.481   9.553   5.006
18474SOL     OW57260  11.057   0.552  13.029
18474SOL    HW157261  11.053   0.469  12.982
18474SOL    HW257262  11.096   0.613  12.966
18475SOL     OW57263   2.802   6.200  10.442
18475SOL    HW157264   2.891   6.194  10.477
18475SOL    HW257265   2.746   6.205  10.519
18476SOL     OW57266   1.181   2.339  14.595
18476SOL    HW157267   1.212   2.430  14.596
18476SOL    HW257268   1.209   2.303  14.679
18477SOL     OW57269   8.917   1.661   3.170
18477SOL    HW157270   8.999   1.707   3.157
18477SOL    HW257271   8.886   1.690   3.256
18478SOL     OW57272  13.703   2.489  10.012
18478SOL    HW157273  13.771   2.427  10.041
18478SOL    HW257274  13.661   2.518  10.093
18479SOL     OW57275   6.891   2.851   2.343
18479SOL    HW157276   6.885   2.855   2.248
18479SOL    HW257277   6.940   2.771   2.361
18480SOL     OW57278   9.358   1.440  14.335
18480SOL    HW157279   9.324   1.453  14.246
18480SOL    HW257280   9.377   1.346  14.339
18481SOL     OW57281  10.868   5.792   1.236
18481SOL    HW157282  10.829   5.807   1.323
18481SOL    HW257283  10.933   5.723   1.251
18482SOL     OW57284   6.741   6.639   8.636
18482SOL    HW157285   6.720   6.717   8.687
18482SOL    HW257286   6.836   6.631   8.642
18483SOL     OW57287   4.013  11.242  14.357
18483SOL    HW157288   4.081  11.199  14.409
18483SOL    HW257289   3.970  11.170  14.311
18484SOL     OW57290   8.194  13.126   1.485
18484SOL    HW157291   8.184  13.061   1.415
18484SOL    HW257292   8.190  13.210   1.440
18485SOL     OW57293   2.924   7.669  10.420
18485SOL    HW157294   3.010   7.677  10.462
18485SOL    HW257295   2.922   7.580  10.387
18486SOL     OW57296   8.003  13.585   4.932
18486SOL    HW157297   7.921  13.536   4.942
18486SOL    HW257298   8.007  13.604   4.838
18487SOL     OW57299   4.919  11.030   3.808
18487SOL    HW157300   4.901  11.119   3.778
18487SOL    HW257301   4.999  11.004   3.762
18488SOL     OW57302   9.272  10.900   0.268
18488SOL    HW157303   9.312  10.986   0.280
18488SOL    HW257304   9.346  10.839   0.268
18489SOL     OW57305   5.690   8.470   0.911
18489SOL    HW157306   5.676   8.549   0.859
18489SOL    HW257307   5.603   8.444   0.940
18490SOL     OW57308  13.370   7.745   7.610
18490SOL    HW157309  13.457   7.750   7.571
18490SOL    HW257310  13.312   7.718   7.539
18491SOL     OW57311   9.978  12.848   8.097
18491SOL    HW157312   9.915  12.783   8.068
18491SOL    HW257313  10.058  12.799   8.116
18492SOL     OW57314   1.039   9.929   5.913
18492SOL    HW157315   1.123   9.962   5.882
18492SOL    HW257316   1.063   9.863   5.979
18493SOL     OW57317   0.923  13.285   4.906
18493SOL    HW157318   1.003  13.255   4.863
18493SOL    HW257319   0.852  13.244   4.857
18494SOL     OW57320  10.350  13.992   6.743
18494SOL    HW157321  10.353  14.023   6.652
18494SOL    HW257322  10.347  14.072   6.796
18495SOL     OW57323   1.588   3.320  13.828
18495SOL    HW157324   1.551   3.266  13.898
18495SOL    HW257325   1.630   3.393  13.874
18496SOL     OW57326  14.658   5.730   7.249
18496SOL    HW157327  14.689   5.684   7.327
18496SOL    HW257328  14.646   5.820   7.277
18497SOL     OW57329  10.998   1.802   4.546
18497SOL    HW157330  10.957   1.882   4.580
18497SOL    HW257331  10.948   1.781   4.468
18498SOL     OW57332  13.090   3.191   9.936
18498SOL    HW157333  13.068   3.270   9.887
18498SOL    HW257334  13.051   3.205  10.022
18499SOL     OW57335   6.431   3.500   5.504
18499SOL    HW157336   6.467   3.556   5.435
18499SOL    HW257337   6.349   3.467   5.469
18500SOL     OW57338   4.557   0.306   3.184
18500SOL    HW157339   4.642   0.278   3.220
18500SOL    HW257340   4.560   0.402   3.187
18501SOL     OW57341  11.355  12.531  11.600
18501SOL    HW157342  11.350  12.498  11.510
18501SOL    HW257343  11.273  12.503  11.640
18502SOL     OW57344   7.590  11.833   6.613
18502SOL    HW157345   7.652  11.866   6.549
18502SOL    HW257346   7.539  11.910   6.639
18503SOL     OW57347   7.046  14.678   0.109
18503SOL    HW157348   7.021  14.598   0.156
18503SOL    HW257349   7.050  14.745   0.178
18504SOL     OW57350  11.652  13.488  11.336
18504SOL    HW157351  11.558  13.483  11.318
18504SOL    HW257352  11.679  13.397  11.345
18505SOL     OW57353   9.310   3.437   8.869
18505SOL    HW157354   9.322   3.433   8.964
18505SOL    HW257355   9.377   3.499   8.839
18506SOL     OW57356   7.798   9.537   6.071
18506SOL    HW157357   7.809   9.619   6.023
18506SOL    HW257358   7.864   9.478   6.034
18507SOL     OW57359   6.755   8.384   3.808
18507SOL    HW157360   6.670   8.413   3.774
18507SOL    HW257361   6.732   8.320   3.877
18508SOL     OW57362   3.166   5.120  11.444
18508SOL    HW157363   3.073   5.141  11.434
18508SOL    HW257364   3.206   5.202  11.471
18509SOL     OW57365   5.475   9.811  13.952
18509SOL    HW157366   5.540   9.764  13.899
18509SOL    HW257367   5.472   9.898  13.913
18510SOL     OW57368  13.599   0.812  10.970
18510SOL    HW157369  13.631   0.760  11.044
18510SOL    HW257370  13.504   0.812  10.980
18511SOL     OW57371  10.808  10.674   6.971
18511SOL    HW157372  10.727  10.696   6.924
18511SOL    HW257373  10.805  10.726   7.051
18512SOL     OW57374  13.013   0.725   5.325
18512SOL    HW157375  13.061   0.643   5.319
18512SOL    HW257376  12.921   0.700   5.319
18513SOL     OW57377  12.322   8.705  12.946
18513SOL    HW157378  12.228   8.719  12.959
18513SOL    HW257379  12.345   8.634  13.006
18514SOL     OW57380   8.203   2.312   6.745
18514SOL    HW157381   8.187   2.358   6.828
18514SOL    HW257382   8.117   2.307   6.704
18515SOL     OW57383  10.741   3.309  10.485
18515SOL    HW157384  10.671   3.341  10.542
18515SOL    HW257385  10.739   3.366  10.409
18516SOL     OW57386   8.191  11.163   5.441
18516SOL    HW157387   8.185  11.114   5.522
18516SOL    HW257388   8.146  11.246   5.458
18517SOL     OW57389   6.149  11.684   8.996
18517SOL    HW157390   6.087  11.739   9.045
18517SOL    HW257391   6.096  11.646   8.926
18518SOL     OW57392   2.826   6.517   9.641
18518SOL    HW157393   2.828   6.425   9.615
18518SOL    HW257394   2.869   6.518   9.727
18519SOL     OW57395   9.491  14.866   5.834
18519SOL    HW157396   9.537   0.073   5.841
18519SOL    HW257397   9.530  14.823   5.759
18520SOL     OW57398  12.173   0.967   2.564
18520SOL    HW157399  12.111   0.982   2.493
18520SOL    HW257400  12.172   1.049   2.614
18521SOL     OW57401   8.585  12.566   8.595
18521SOL    HW157402   8.561  12.476   8.571
18521SOL    HW257403   8.592  12.612   8.511
18522SOL     OW57404   1.899  12.431   7.396
18522SOL    HW157405   1.835  12.360   7.388
18522SOL    HW257406   1.968  12.395   7.451
18523SOL     OW57407   7.063   2.501   8.980
18523SOL    HW157408   7.137   2.447   8.954
18523SOL    HW257409   7.096   2.553   9.054
18524SOL     OW57410  11.906   4.670   7.998
18524SOL    HW157411  11.832   4.629   8.043
18524SOL    HW257412  11.921   4.616   7.921
18525SOL     OW57413   9.236   4.621  10.297
18525SOL    HW157414   9.317   4.617  10.245
18525SOL    HW257415   9.173   4.569  10.247
18526SOL     OW57416   3.631  12.869   7.999
18526SOL    HW157417   3.575  12.923   8.055
18526SOL    HW257418   3.571  12.831   7.935
18527SOL     OW57419  14.667   2.917  12.337
18527SOL    HW157420  14.585   2.911  12.288
18527SOL    HW257421  14.731   2.871  12.284
18528SOL     OW57422   5.095   1.770   8.502
18528SOL    HW157423   5.047   1.707   8.448
18528SOL    HW257424   5.028   1.809   8.558
18529SOL     OW57425  12.073  11.468  10.520
18529SOL    HW157426  11.999  11.498  10.468
18529SOL    HW257427  12.037  11.454  10.607
18530SOL     OW57428   4.652   6.183   8.923
18530SOL    HW157429   4.615   6.244   8.987
18530SOL    HW257430   4.746   6.203   8.923
18531SOL     OW57431   5.408  11.294   7.173
18531SOL    HW157432   5.464  11.358   7.128
18531SOL    HW257433   5.346  11.348   7.222
18532SOL     OW57434   2.185   8.325   3.136
18532SOL    HW157435   2.249   8.338   3.207
18532SOL    HW257436   2.107   8.293   3.181
18533SOL     OW57437   0.127  14.206  14.587
18533SOL    HW157438   0.052  14.239  14.537
18533SOL    HW257439   0.182  14.284  14.600
18534SOL     OW57440   7.797   7.497   2.605
18534SOL    HW157441   7.816   7.403   2.594
18534SOL    HW257442   7.882   7.537   2.620
18535SOL     OW57443   1.322  11.448   4.721
18535SOL    HW157444   1.248  11.427   4.665
18535SOL    HW257445   1.381  11.498   4.666
18536SOL     OW57446   8.115  11.147   4.299
18536SOL    HW157447   8.078  11.139   4.387
18536SOL    HW257448   8.200  11.189   4.313
18537SOL     OW57449  11.251  12.586   0.893
18537SOL    HW157450  11.246  12.654   0.826
18537SOL    HW257451  11.342  12.589   0.924
18538SOL     OW57452   6.303  11.076   1.151
18538SOL    HW157453   6.394  11.094   1.128
18538SOL    HW257454   6.275  11.153   1.201
18539SOL     OW57455   7.514   7.469   9.106
18539SOL    HW157456   7.424   7.461   9.137
18539SOL    HW257457   7.530   7.388   9.057
18540SOL     OW57458   5.007   4.578  12.495
18540SOL    HW157459   4.951   4.597  12.420
18540SOL    HW257460   5.087   4.543  12.457
18541SOL     OW57461  11.247  12.768   3.325
18541SOL    HW157462  11.230  12.798   3.414
18541SOL    HW257463  11.231  12.674   3.328
18542SOL     OW57464   7.527   0.840  13.287
18542SOL    HW157465   7.584   0.899  13.237
18542SOL    HW257466   7.585   0.771  13.317
18543SOL     OW57467   3.324   0.846   1.681
18543SOL    HW157468   3.265   0.867   1.608
18543SOL    HW257469   3.334   0.928   1.728
18544SOL     OW57470   1.912   1.277   0.701
18544SOL    HW157471   1.862   1.216   0.756
18544SOL    HW257472   1.845   1.321   0.649
18545SOL     OW57473  12.836   1.007   9.546
18545SOL    HW157474  12.780   1.003   9.624
18545SOL    HW257475  12.775   1.000   9.472
18546SOL     OW57476  11.636   6.210   3.262
18546SOL    HW157477  11.613   6.145   3.195
18546SOL    HW257478  11.628   6.162   3.344
18547SOL     OW57479   8.175   6.287   5.945
18547SOL    HW157480   8.116   6.316   6.014
18547SOL    HW257481   8.153   6.342   5.870
18548SOL     OW57482   6.546   3.924   9.235
18548SOL    HW157483   6.467   3.879   9.206
18548SOL    HW257484   6.521   4.017   9.238
18549SOL     OW57485  10.933   7.090   5.171
18549SOL    HW157486  10.935   7.032   5.095
18549SOL    HW257487  11.019   7.080   5.211
18550SOL     OW57488  12.587   7.860   2.297
18550SOL    HW157489  12.606   7.951   2.319
18550SOL    HW257490  12.611   7.852   2.205
18551SOL     OW57491   9.392   4.569   1.727
18551SOL    HW157492   9.427   4.539   1.643
18551SOL    HW257493   9.395   4.664   1.721
18552SOL     OW57494   7.678  11.635   1.683
18552SOL    HW157495   7.717  11.663   1.600
18552SOL    HW257496   7.636  11.551   1.662
18553SOL     OW57497   3.779   1.228   1.358
18553SOL    HW157498   3.729   1.219   1.439
18553SOL    HW257499   3.806   1.139   1.336
18554SOL     OW57500   6.408   3.144   1.336
18554SOL    HW157501   6.421   3.095   1.255
18554SOL    HW257502   6.346   3.213   1.313
18555SOL     OW57503   4.266  10.672   1.479
18555SOL    HW157504   4.222  10.639   1.557
18555SOL    HW257505   4.223  10.626   1.406
18556SOL     OW57506   6.371   3.029   2.917
18556SOL    HW157507   6.311   3.042   2.844
18556SOL    HW257508   6.315   3.030   2.995
18557SOL     OW57509   9.539   4.434   0.039
18557SOL    HW157510   9.446   4.441   0.016
18557SOL    HW257511   9.561   4.342   0.023
18558SOL     OW57512   9.790   7.019   8.365
18558SOL    HW157513   9.831   7.057   8.287
18558SOL    HW257514   9.861   6.971   8.407
18559SOL     OW57515  13.392  12.803  11.290
18559SOL    HW157516  13.485  12.787  11.301
18559SOL    HW257517  13.358  12.722  11.251
18560SOL     OW57518   5.241  14.048  11.786
18560SOL    HW157519   5.172  14.095  11.834
18560SOL    HW257520   5.319  14.102  11.799
18561SOL     OW57521   6.586  11.954   8.601
18561SOL    HW157522   6.635  12.021   8.647
18561SOL    HW257523   6.652  11.906   8.550
18562SOL     OW57524   2.625  10.221   7.669
18562SOL    HW157525   2.632  10.150   7.734
18562SOL    HW257526   2.575  10.181   7.597
18563SOL     OW57527   1.832   0.066   4.718
18563SOL    HW157528   1.828  14.853   4.683
18563SOL    HW257529   1.817   0.123   4.643
18564SOL     OW57530  13.786  13.035   7.694
18564SOL    HW157531  13.867  13.080   7.671
18564SOL    HW257532  13.736  13.031   7.613
18565SOL     OW57533   2.058   8.569  11.534
18565SOL    HW157534   1.966   8.569  11.508
18565SOL    HW257535   2.084   8.661  11.529
18566SOL     OW57536   1.968  12.955   8.807
18566SOL    HW157537   2.034  12.929   8.743
18566SOL    HW257538   2.016  12.966   8.889
18567SOL     OW57539   6.665   5.734  10.241
18567SOL    HW157540   6.710   5.815  10.263
18567SOL    HW257541   6.722   5.691  10.178
18568SOL     OW57542   9.120   3.182   3.273
18568SOL    HW157543   9.058   3.153   3.340
18568SOL    HW257544   9.087   3.143   3.192
18569SOL     OW57545   5.575  11.788   8.773
18569SOL    HW157546   5.629  11.717   8.737
18569SOL    HW257547   5.496  11.787   8.719
18570SOL     OW57548   5.260  10.774   8.382
18570SOL    HW157549   5.274  10.682   8.362
18570SOL    HW257550   5.186  10.774   8.443
18571SOL     OW57551  10.903   5.105   0.666
18571SOL    HW157552  10.819   5.066   0.641
18571SOL    HW257553  10.888   5.199   0.661
18572SOL     OW57554   1.593   7.813   8.032
18572SOL    HW157555   1.566   7.769   8.112
18572SOL    HW257556   1.647   7.886   8.062
18573SOL     OW57557  13.536  11.905  10.300
18573SOL    HW157558  13.455  11.938  10.263
18573SOL    HW257559  13.578  11.858  10.228
18574SOL     OW57560   8.066   7.689   6.217
18574SOL    HW157561   8.140   7.749   6.222
18574SOL    HW257562   7.990   7.745   6.203
18575SOL     OW57563   9.157  11.695   0.184
18575SOL    HW157564   9.228  11.635   0.163
18575SOL    HW257565   9.199  11.781   0.187
18576SOL     OW57566  12.031   1.779   4.340
18576SOL    HW157567  12.067   1.799   4.426
18576SOL    HW257568  11.973   1.853   4.321
18577SOL     OW57569   0.910  10.227  12.569
18577SOL    HW157570   0.894  10.167  12.642
18577SOL    HW257571   1.005  10.241  12.570
18578SOL     OW57572   5.087  10.331   7.204
18578SOL    HW157573   5.086  10.394   7.276
18578SOL    HW257574   5.180  10.308   7.194
18579SOL     OW57575   2.373  13.011   1.705
18579SOL    HW157576   2.391  12.929   1.659
18579SOL    HW257577   2.354  12.984   1.795
18580SOL     OW57578  14.221   3.313   9.174
18580SOL    HW157579  14.143   3.343   9.127
18580SOL    HW257580  14.227   3.220   9.153
18581SOL     OW57581   5.864   4.651  12.722
18581SOL    HW157582   5.825   4.604  12.795
18581SOL    HW257583   5.848   4.743  12.741
18582SOL     OW57584  11.859   5.117  10.181
18582SOL    HW157585  11.838   5.208  10.162
18582SOL    HW257586  11.783   5.083  10.227
18583SOL     OW57587   1.826  14.365   1.331
18583SOL    HW157588   1.754  14.400   1.383
18583SOL    HW257589   1.828  14.271   1.352
18584SOL     OW57590   5.743  11.988   1.892
18584SOL    HW157591   5.699  12.010   1.809
18584SOL    HW257592   5.678  12.007   1.959
18585SOL     OW57593  14.800  13.876  12.581
18585SOL    HW157594  14.796  13.820  12.504
18585SOL    HW257595   0.012  13.912  12.580
18586SOL     OW57596  13.667   4.403  13.578
18586SOL    HW157597  13.678   4.465  13.506
18586SOL    HW257598  13.613   4.450  13.642
18587SOL     OW57599   1.683   7.532   9.848
18587SOL    HW157600   1.733   7.598   9.897
18587SOL    HW257601   1.718   7.449   9.878
18588SOL     OW57602   6.931  14.319   0.586
18588SOL    HW157603   6.960  14.296   0.675
18588SOL    HW257604   7.011  14.345   0.541
18589SOL     OW57605  10.872   6.277  12.949
18589SOL    HW157606  10.868   6.363  12.907
18589SOL    HW257607  10.953   6.279  13.000
18590SOL     OW57608   3.317  10.535  13.367
18590SOL    HW157609   3.309  10.585  13.286
18590SOL    HW257610   3.395  10.572  13.410
18591SOL     OW57611  14.686  12.247   3.497
18591SOL    HW157612  14.592  12.244   3.515
18591SOL    HW257613  14.702  12.172   3.440
18592SOL     OW57614   4.914  12.667   4.952
18592SOL    HW157615   4.863  12.651   4.873
18592SOL    HW257616   4.975  12.593   4.957
18593SOL     OW57617   8.789  14.857   9.895
18593SOL    HW157618   8.826  14.836   9.809
18593SOL    HW257619   8.699  14.823   9.891
18594SOL     OW57620  10.179   6.885  14.641
18594SOL    HW157621  10.139   6.857  14.559
18594SOL    HW257622  10.250   6.823  14.655
18595SOL     OW57623  12.488  11.210   8.964
18595SOL    HW157624  12.575  11.172   8.974
18595SOL    HW257625  12.502  11.304   8.972
18596SOL     OW57626   7.157  11.250   0.080
18596SOL    HW157627   7.218  11.284   0.146
18596SOL    HW257628   7.199  11.272  14.872
18597SOL     OW57629   0.932   1.905   2.648
18597SOL    HW157630   0.894   1.986   2.681
18597SOL    HW257631   0.942   1.919   2.554
18598SOL     OW57632  11.443   0.341  10.543
18598SOL    HW157633  11.382   0.415  10.540
18598SOL    HW257634  11.394   0.271  10.585
18599SOL     OW57635   2.906   7.295  14.207
18599SOL    HW157636   2.952   7.279  14.124
18599SOL    HW257637   2.888   7.208  14.241
18600SOL     OW57638  13.493  12.497  14.143
18600SOL    HW157639  13.533  12.417  14.107
18600SOL    HW257640  13.561  12.534  14.199
18601SOL     OW57641   5.768   9.879   1.935
18601SOL    HW157642   5.837   9.896   1.871
18601SOL    HW257643   5.773   9.952   1.996
18602SOL     OW57644  13.753   9.639  13.432
18602SOL    HW157645  13.718   9.676  13.513
18602SOL    HW257646  13.742   9.545  13.442
18603SOL     OW57647   9.414   9.794  13.745
18603SOL    HW157648   9.363   9.813  13.667
18603SOL    HW257649   9.440   9.880  13.778
18604SOL     OW57650   6.215  12.794   8.511
18604SOL    HW157651   6.290  12.827   8.461
18604SOL    HW257652   6.254  12.736   8.577
18605SOL     OW57653  12.997  14.026  14.857
18605SOL    HW157654  12.944  14.103  14.839
18605SOL    HW257655  12.968  13.961  14.793
18606SOL     OW57656  12.065   6.471   9.718
18606SOL    HW157657  12.004   6.508   9.654
18606SOL    HW257658  12.061   6.530   9.793
18607SOL     OW57659   3.913   4.158   5.595
18607SOL    HW157660   3.922   4.230   5.533
18607SOL    HW257661   3.823   4.128   5.584
18608SOL     OW57662   7.324   4.817  13.476
18608SOL    HW157663   7.376   4.763  13.416
18608SOL    HW257664   7.332   4.906  13.440
18609SOL     OW57665   3.178   2.089   3.250
18609SOL    HW157666   3.253   2.031   3.237
18609SOL    HW257667   3.209   2.175   3.221
18610SOL     OW57668  11.519   8.783  14.116
18610SOL    HW157669  11.482   8.777  14.028
18610SOL    HW257670  11.606   8.744  14.107
18611SOL     OW57671  11.851   7.148  10.021
18611SOL    HW157672  11.920   7.213  10.011
18611SOL    HW257673  11.826   7.154  10.113
18612SOL     OW57674   2.205   9.255   4.412
18612SOL    HW157675   2.194   9.348   4.391
18612SOL    HW257676   2.190   9.250   4.507
18613SOL     OW57677  12.355  10.703  12.202
18613SOL    HW157678  12.336  10.716  12.109
18613SOL    HW257679  12.392  10.786  12.231
18614SOL     OW57680  13.946   4.529   8.712
18614SOL    HW157681  13.966   4.519   8.619
18614SOL    HW257682  13.963   4.443   8.750
18615SOL     OW57683   3.352   4.029  11.042
18615SOL    HW157684   3.446   4.041  11.028
18615SOL    HW257685   3.339   4.049  11.135
18616SOL     OW57686   8.664   1.397   8.679
18616SOL    HW157687   8.727   1.445   8.625
18616SOL    HW257688   8.594   1.372   8.618
18617SOL     OW57689   4.771   3.227   7.885
18617SOL    HW157690   4.736   3.290   7.948
18617SOL    HW257691   4.785   3.277   7.805
18618SOL     OW57692   6.556  10.035   2.479
18618SOL    HW157693   6.527   9.958   2.527
18618SOL    HW257694   6.652  10.033   2.486
18619SOL     OW57695  11.058   6.631  12.679
18619SOL    HW157696  11.151   6.640  12.659
18619SOL    HW257697  11.014   6.684  12.612
18620SOL     OW57698  13.336   6.425  11.722
18620SOL    HW157699  13.372   6.461  11.641
18620SOL    HW257700  13.335   6.498  11.783
18621SOL     OW57701  12.206   7.492   1.754
18621SOL    HW157702  12.139   7.540   1.803
18621SOL    HW257703  12.232   7.552   1.684
18622SOL     OW57704  11.861  12.624   7.381
18622SOL    HW157705  11.864  12.717   7.360
18622SOL    HW257706  11.768  12.605   7.392
18623SOL     OW57707   2.015   2.236   0.489
18623SOL    HW157708   1.930   2.207   0.454
18623SOL    HW257709   2.048   2.297   0.424
18624SOL     OW57710   3.401   6.583  10.290
18624SOL    HW157711   3.345   6.506  10.301
18624SOL    HW257712   3.490   6.547  10.286
18625SOL     OW57713  10.432   1.446   6.697
18625SOL    HW157714  10.502   1.457   6.632
18625SOL    HW257715  10.462   1.495   6.773
18626SOL     OW57716   2.964   0.763   1.364
18626SOL    HW157717   2.919   0.842   1.393
18626SOL    HW257718   2.894   0.700   1.345
18627SOL     OW57719  13.690  12.090   3.636
18627SOL    HW157720  13.604  12.058   3.608
18627SOL    HW257721  13.673  12.178   3.669
18628SOL     OW57722   3.558   3.165   5.447
18628SOL    HW157723   3.554   3.243   5.391
18628SOL    HW257724   3.608   3.193   5.523
18629SOL     OW57725  12.723   3.301   2.762
18629SOL    HW157726  12.652   3.324   2.703
18629SOL    HW257727  12.684   3.241   2.826
18630SOL     OW57728  14.477   3.512  11.169
18630SOL    HW157729  14.470   3.447  11.239
18630SOL    HW257730  14.473   3.461  11.088
18631SOL     OW57731   8.875   4.148   7.598
18631SOL    HW157732   8.837   4.079   7.544
18631SOL    HW257733   8.970   4.137   7.588
18632SOL     OW57734   2.810   0.149   9.994
18632SOL    HW157735   2.893   0.108  10.015
18632SOL    HW257736   2.747   0.111  10.056
18633SOL     OW57737   3.776  10.985   0.235
18633SOL    HW157738   3.736  11.052   0.290
18633SOL    HW257739   3.853  11.028   0.198
18634SOL     OW57740   1.984   7.917   0.873
18634SOL    HW157741   2.065   7.883   0.911
18634SOL    HW257742   1.924   7.927   0.947
18635SOL     OW57743   8.931  11.829   9.871
18635SOL    HW157744   8.966  11.760   9.928
18635SOL    HW257745   8.988  11.828   9.795
18636SOL     OW57746  12.644  11.697   6.735
18636SOL    HW157747  12.675  11.644   6.662
18636SOL    HW257748  12.562  11.736   6.704
18637SOL     OW57749   6.014   1.776  13.218
18637SOL    HW157750   5.940   1.802  13.273
18637SOL    HW257751   6.047   1.696  13.258
18638SOL     OW57752   3.725   1.754   8.269
18638SOL    HW157753   3.729   1.687   8.200
18638SOL    HW257754   3.636   1.747   8.303
18639SOL     OW57755  11.903  12.936  14.256
18639SOL    HW157756  11.847  12.872  14.211
18639SOL    HW257757  11.931  12.892  14.336
18640SOL     OW57758  11.502  14.676   3.586
18640SOL    HW157759  11.420  14.630   3.604
18640SOL    HW257760  11.569  14.608   3.588
18641SOL     OW57761   6.897   7.653   8.149
18641SOL    HW157762   6.977   7.706   8.148
18641SOL    HW257763   6.865   7.660   8.239
18642SOL     OW57764   8.274   1.933   7.781
18642SOL    HW157765   8.292   1.872   7.709
18642SOL    HW257766   8.360   1.947   7.822
18643SOL     OW57767   4.819   9.433   1.039
18643SOL    HW157768   4.853   9.350   1.073
18643SOL    HW257769   4.867   9.447   0.957
18644SOL     OW57770   8.614  11.394  13.504
18644SOL    HW157771   8.597  11.331  13.574
18644SOL    HW257772   8.535  11.392  13.450
18645SOL     OW57773  10.961  14.584   7.897
18645SOL    HW157774  10.906  14.635   7.957
18645SOL    HW257775  11.050  14.595   7.931
18646SOL     OW57776   9.877   5.659   5.920
18646SOL    HW157777   9.822   5.582   5.927
18646SOL    HW257778   9.937   5.641   5.847
18647SOL     OW57779   7.525   3.520   5.826
18647SOL    HW157780   7.536   3.533   5.920
18647SOL    HW257781   7.543   3.606   5.788
18648SOL     OW57782   9.685   6.546  12.740
18648SOL    HW157783   9.644   6.589  12.665
18648SOL    HW257784   9.619   6.484  12.771
18649SOL     OW57785   4.760   4.807   5.057
18649SOL    HW157786   4.776   4.718   5.088
18649SOL    HW257787   4.794   4.863   5.126
18650SOL     OW57788  14.292  12.978   3.582
18650SOL    HW157789  14.234  13.054   3.570
18650SOL    HW257790  14.378  13.009   3.554
18651SOL     OW57791  13.442   8.548  14.501
18651SOL    HW157792  13.391   8.519  14.576
18651SOL    HW257793  13.405   8.633  14.478
18652SOL     OW57794   1.691  13.953   1.381
18652SOL    HW157795   1.609  13.989   1.347
18652SOL    HW257796   1.699  13.867   1.341
18653SOL     OW57797  13.604   7.147  12.209
18653SOL    HW157798  13.624   7.240  12.199
18653SOL    HW257799  13.525   7.145  12.262
18654SOL     OW57800   3.611   4.510   2.722
18654SOL    HW157801   3.656   4.472   2.645
18654SOL    HW257802   3.644   4.459   2.796
18655SOL     OW57803  14.444   7.942   4.292
18655SOL    HW157804  14.378   8.002   4.256
18655SOL    HW257805  14.526   7.970   4.251
18656SOL     OW57806  11.260  10.250   5.704
18656SOL    HW157807  11.313  10.276   5.780
18656SOL    HW257808  11.281  10.157   5.690
18657SOL     OW57809  14.021  14.177  13.686
18657SOL    HW157810  13.947  14.118  13.668
18657SOL    HW257811  14.096  14.134  13.645
18658SOL     OW57812   0.140   2.769   7.795
18658SOL    HW157813   0.163   2.844   7.741
18658SOL    HW257814   0.099   2.708   7.734
18659SOL     OW57815   8.855  10.705  11.437
18659SOL    HW157816   8.795  10.772  11.404
18659SOL    HW257817   8.841  10.629  11.381
18660SOL     OW57818  14.128   5.677   3.945
18660SOL    HW157819  14.074   5.712   3.874
18660SOL    HW257820  14.208   5.647   3.901
18661SOL     OW57821   5.998  12.285  12.308
18661SOL    HW157822   5.930  12.301  12.373
18661SOL    HW257823   6.030  12.197  12.327
18662SOL     OW57824   1.507  13.238   3.455
18662SOL    HW157825   1.526  13.250   3.548
18662SOL    HW257826   1.503  13.143   3.443
18663SOL     OW57827   4.903   9.090  13.910
18663SOL    HW157828   4.960   9.102  13.835
18663SOL    HW257829   4.919   9.001  13.939
18664SOL     OW57830  13.360  14.052   2.475
18664SOL    HW157831  13.359  14.000   2.556
18664SOL    HW257832  13.451  14.049   2.446
18665SOL     OW57833   2.592   3.285  10.386
18665SOL    HW157834   2.608   3.294  10.480
18665SOL    HW257835   2.528   3.214  10.380
18666SOL     OW57836   9.992   4.534   6.310
18666SOL    HW157837   9.986   4.493   6.397
18666SOL    HW257838   9.906   4.519   6.271
18667SOL     OW57839   8.884   3.106  14.843
18667SOL    HW157840   8.844   3.019  14.840
18667SOL    HW257841   8.963   3.098  14.789
18668SOL     OW57842   2.862  13.204   6.857
18668SOL    HW157843   2.775  13.243   6.868
18668SOL    HW257844   2.916  13.248   6.923
18669SOL     OW57845   7.388  11.634   9.024
18669SOL    HW157846   7.387  11.699   8.953
18669SOL    HW257847   7.473  11.644   9.066
18670SOL     OW57848   8.796  10.944   8.185
18670SOL    HW157849   8.779  10.850   8.186
18670SOL    HW257850   8.814  10.965   8.277
18671SOL     OW57851  12.672  10.719  12.656
18671SOL    HW157852  12.604  10.665  12.695
18671SOL    HW257853  12.661  10.707  12.562
18672SOL     OW57854   1.191   2.737  12.783
18672SOL    HW157855   1.286   2.730  12.780
18672SOL    HW257856   1.165   2.742  12.691
18673SOL     OW57857   6.604   2.232   6.578
18673SOL    HW157858   6.531   2.270   6.529
18673SOL    HW257859   6.590   2.261   6.668
18674SOL     OW57860   7.136   0.618   3.342
18674SOL    HW157861   7.212   0.642   3.289
18674SOL    HW257862   7.127   0.523   3.330
18675SOL     OW57863   4.718  14.801  13.130
18675SOL    HW157864   4.795  14.746  13.150
18675SOL    HW257865   4.753   0.013  13.123
18676SOL     OW57866  13.570  14.174   6.661
18676SOL    HW157867  13.595  14.093   6.617
18676SOL    HW257868  13.547  14.147   6.750
18677SOL     OW57869   7.314   8.976   6.060
18677SOL    HW157870   7.241   8.949   6.005
18677SOL    HW257871   7.392   8.940   6.017
18678SOL     OW57872  10.632   0.034  12.391
18678SOL    HW157873  10.704   0.032  12.453
18678SOL    HW257874  10.557   0.067  12.442
18679SOL     OW57875   5.252   2.085   8.595
18679SOL    HW157876   5.162   2.088   8.563
18679SOL    HW257877   5.297   2.153   8.546
18680SOL     OW57878  12.415  13.410   1.602
18680SOL    HW157879  12.426  13.332   1.548
18680SOL    HW257880  12.371  13.473   1.545
18681SOL     OW57881  13.383   3.436   4.915
18681SOL    HW157882  13.327   3.365   4.883
18681SOL    HW257883  13.367   3.437   5.010
18682SOL     OW57884  13.589   0.311  10.494
18682SOL    HW157885  13.664   0.370  10.498
18682SOL    HW257886  13.514   0.369  10.475
18683SOL     OW57887  13.858   6.800   6.068
18683SOL    HW157888  13.798   6.727   6.051
18683SOL    HW257889  13.807   6.863   6.118
18684SOL     OW57890   9.038   8.659   3.876
18684SOL    HW157891   8.988   8.648   3.957
18684SOL    HW257892   9.103   8.589   3.878
18685SOL     OW57893   6.184   4.514   0.369
18685SOL    HW157894   6.114   4.558   0.417
18685SOL    HW257895   6.141   4.438   0.329
18686SOL     OW57896   0.965   6.963  14.365
18686SOL    HW157897   0.882   7.011  14.359
18686SOL    HW257898   0.939   6.872  14.375
18687SOL     OW57899   0.552   7.769  11.304
18687SOL    HW157900   0.475   7.812  11.342
18687SOL    HW257901   0.602   7.841  11.264
18688SOL     OW57902  12.359   3.283   4.089
18688SOL    HW157903  12.425   3.224   4.053
18688SOL    HW257904  12.409   3.360   4.117
18689SOL     OW57905   0.778  10.107  13.765
18689SOL    HW157906   0.865  10.132  13.734
18689SOL    HW257907   0.726  10.094  13.685
18690SOL     OW57908   2.301   0.862  11.684
18690SOL    HW157909   2.236   0.900  11.744
18690SOL    HW257910   2.308   0.926  11.613
18691SOL     OW57911   9.253  14.639   8.469
18691SOL    HW157912   9.310  14.563   8.463
18691SOL    HW257913   9.313  14.714   8.462
18692SOL     OW57914  13.273   6.798  13.141
18692SOL    HW157915  13.226   6.825  13.220
18692SOL    HW257916  13.230   6.717  13.113
18693SOL     OW57917   6.341  13.919   5.489
18693SOL    HW157918   6.330  13.998   5.543
18693SOL    HW257919   6.395  13.948   5.416
18694SOL     OW57920   7.319   2.159  13.888
18694SOL    HW157921   7.412   2.137  13.893
18694SOL    HW257922   7.280   2.088  13.837
18695SOL     OW57923   7.386   2.499   9.694
18695SOL    HW157924   7.404   2.473   9.604
18695SOL    HW257925   7.423   2.587   9.702
18696SOL     OW57926  13.177   5.212  12.591
18696SOL    HW157927  13.176   5.215  12.687
18696SOL    HW257928  13.104   5.155  12.568
18697SOL     OW57929  12.930  12.574   0.915
18697SOL    HW157930  12.842  12.549   0.940
18697SOL    HW257931  12.987  12.534   0.980
18698SOL     OW57932   1.173   0.816   5.522
18698SOL    HW157933   1.190   0.730   5.482
18698SOL    HW257934   1.246   0.829   5.583
18699SOL     OW57935   4.569   9.576   5.862
18699SOL    HW157936   4.570   9.485   5.831
18699SOL    HW257937   4.661   9.597   5.877
18700SOL     OW57938   2.939   7.102   2.086
18700SOL    HW157939   2.890   7.164   2.033
18700SOL    HW257940   2.886   7.022   2.084
18701SOL     OW57941   2.954   7.937   1.988
18701SOL    HW157942   2.904   8.008   2.028
18701SOL    HW257943   2.999   7.895   2.062
18702SOL     OW57944   2.837   3.386   7.021
18702SOL    HW157945   2.905   3.385   7.088
18702SOL    HW257946   2.757   3.410   7.068
18703SOL     OW57947  12.828  13.010   0.811
18703SOL    HW157948  12.910  12.965   0.832
18703SOL    HW257949  12.855  13.093   0.772
18704SOL     OW57950   6.402  10.017   8.053
18704SOL    HW157951   6.470  10.074   8.088
18704SOL    HW257952   6.352  10.074   7.994
18705SOL     OW57953   0.343  12.436  10.894
18705SOL    HW157954   0.253  12.465  10.879
18705SOL    HW257955   0.337  12.340  10.894
18706SOL     OW57956   9.191   3.254  12.206
18706SOL    HW157957   9.185   3.327  12.144
18706SOL    HW257958   9.146   3.285  12.284
18707SOL     OW57959  10.752   4.283   1.459
18707SOL    HW157960  10.678   4.311   1.514
18707SOL    HW257961  10.825   4.274   1.521
18708SOL     OW57962   5.742  12.394  14.447
18708SOL    HW157963   5.758  12.433  14.361
18708SOL    HW257964   5.808  12.435  14.504
18709SOL     OW57965   4.204   9.392  11.033
18709SOL    HW157966   4.300   9.394  11.034
18709SOL    HW257967   4.178   9.433  11.115
18710SOL     OW57968  13.753   1.537  11.541
18710SOL    HW157969  13.671   1.507  11.503
18710SOL    HW257970  13.728   1.575  11.625
18711SOL     OW57971   8.875   5.724   1.973
18711SOL    HW157972   8.881   5.723   1.877
18711SOL    HW257973   8.832   5.641   1.995
18712SOL     OW57974  11.101   5.982   8.921
18712SOL    HW157975  11.182   5.971   8.870
18712SOL    HW257976  11.041   5.917   8.884
18713SOL     OW57977   3.977   5.751   7.267
18713SOL    HW157978   4.004   5.843   7.255
18713SOL    HW257979   4.043   5.701   7.220
18714SOL     OW57980  14.551   0.707   8.416
18714SOL    HW157981  14.646   0.694   8.410
18714SOL    HW257982  14.518   0.625   8.452
18715SOL     OW57983   8.206  13.334   8.955
18715SOL    HW157984   8.258  13.351   9.034
18715SOL    HW257985   8.139  13.272   8.983
18716SOL     OW57986   9.558   7.619  10.755
18716SOL    HW157987   9.555   7.673  10.834
18716SOL    HW257988   9.616   7.547  10.776
18717SOL     OW57989   0.535   3.206  12.820
18717SOL    HW157990   0.505   3.174  12.905
18717SOL    HW257991   0.601   3.272  12.840
18718SOL     OW57992   6.526   7.734  13.284
18718SOL    HW157993   6.597   7.754  13.344
18718SOL    HW257994   6.461   7.803  13.298
18719SOL     OW57995  13.506   9.486  10.421
18719SOL    HW157996  13.571   9.445  10.478
18719SOL    HW257997  13.549   9.566  10.390
18720SOL     OW57998   6.804   6.668   9.466
18720SOL    HW157999   6.783   6.743   9.409
18720SOL    HW258000   6.843   6.604   9.407
18721SOL     OW58001  14.660   0.738  10.553
18721SOL    HW158002  14.603   0.661  10.558
18721SOL    HW258003  14.686   0.742  10.461
18722SOL     OW58004  10.877   5.393  13.406
18722SOL    HW158005  10.950   5.399  13.344
18722SOL    HW258006  10.919   5.388  13.492
18723SOL     OW58007   1.850   0.961   4.622
18723SOL    HW158008   1.862   1.040   4.674
18723SOL    HW258009   1.772   0.978   4.570
18724SOL     OW58010   6.323   2.656   6.401
18724SOL    HW158011   6.242   2.613   6.428
18724SOL    HW258012   6.355   2.603   6.328
18725SOL     OW58013   6.286  13.590   6.639
18725SOL    HW158014   6.240  13.565   6.559
18725SOL    HW258015   6.376  13.558   6.625
18726SOL     OW58016  12.792   4.770   2.354
18726SOL    HW158017  12.883   4.785   2.379
18726SOL    HW258018  12.768   4.687   2.395
18727SOL     OW58019   0.315   9.829  11.827
18727SOL    HW158020   0.333   9.736  11.813
18727SOL    HW258021   0.230   9.831  11.870
18728SOL     OW58022   3.014   0.177   1.918
18728SOL    HW158023   3.099   0.142   1.946
18728SOL    HW258024   2.952   0.107   1.937
18729SOL     OW58025   6.706   1.972   2.283
18729SOL    HW158026   6.786   1.957   2.333
18729SOL    HW258027   6.635   1.954   2.345
18730SOL     OW58028  14.833   2.642   8.687
18730SOL    HW158029  14.793   2.705   8.747
18730SOL    HW258030   0.006   2.695   8.625
18731SOL     OW58031   2.508   4.229  11.191
18731SOL    HW158032   2.467   4.212  11.276
18731SOL    HW258033   2.592   4.269  11.214
18732SOL     OW58034   2.094  11.386   2.365
18732SOL    HW158035   2.020  11.388   2.424
18732SOL    HW258036   2.167  11.352   2.417
18733SOL     OW58037  10.171   0.270   4.705
18733SOL    HW158038  10.180   0.195   4.647
18733SOL    HW258039  10.164   0.345   4.647
18734SOL     OW58040  12.021   6.523   6.460
18734SOL    HW158041  11.993   6.445   6.413
18734SOL    HW258042  11.973   6.518   6.543
18735SOL     OW58043  12.720   7.294   8.213
18735SOL    HW158044  12.698   7.348   8.289
18735SOL    HW258045  12.636   7.275   8.172
18736SOL     OW58046  10.773  12.295   2.487
18736SOL    HW158047  10.726  12.305   2.570
18736SOL    HW258048  10.728  12.224   2.442
18737SOL     OW58049  13.900   1.155   8.840
18737SOL    HW158050  13.887   1.091   8.771
18737SOL    HW258051  13.983   1.129   8.882
18738SOL     OW58052  11.771   4.750   1.909
18738SOL    HW158053  11.833   4.734   1.980
18738SOL    HW258054  11.731   4.664   1.892
18739SOL     OW58055  11.242   3.418  11.668
18739SOL    HW158056  11.335   3.400  11.679
18739SOL    HW258057  11.218   3.374  11.587
18740SOL     OW58058  11.082   5.731   2.641
18740SOL    HW158059  11.032   5.802   2.681
18740SOL    HW258060  11.040   5.718   2.556
18741SOL     OW58061  10.982  10.986   0.608
18741SOL    HW158062  11.073  10.981   0.634
18741SOL    HW258063  10.980  11.049   0.536
18742SOL     OW58064  10.169   4.479   6.103
18742SOL    HW158065  10.100   4.493   6.169
18742SOL    HW258066  10.170   4.561   6.053
18743SOL     OW58067   5.829  11.643  13.617
18743SOL    HW158068   5.801  11.623  13.707
18743SOL    HW258069   5.854  11.735  13.620
18744SOL     OW58070   2.313   2.923  11.614
18744SOL    HW158071   2.288   3.013  11.635
18744SOL    HW258072   2.336   2.925  11.521
18745SOL     OW58073   9.545  14.431   1.934
18745SOL    HW158074   9.534  14.491   2.008
18745SOL    HW258075   9.496  14.353   1.960
18746SOL     OW58076   7.192   7.883  11.219
18746SOL    HW158077   7.113   7.855  11.265
18746SOL    HW258078   7.252   7.808  11.226
18747SOL     OW58079   3.611  10.352  13.063
18747SOL    HW158080   3.581  10.271  13.021
18747SOL    HW258081   3.671  10.390  13.000
18748SOL     OW58082  11.169   0.122  12.355
18748SOL    HW158083  11.207   0.039  12.329
18748SOL    HW258084  11.235   0.164  12.410
18749SOL     OW58085  10.285   4.840   0.409
18749SOL    HW158086  10.318   4.917   0.455
18749SOL    HW258087  10.280   4.772   0.477
18750SOL     OW58088   2.688  14.715   2.914
18750SOL    HW158089   2.676  14.768   2.835
18750SOL    HW258090   2.769  14.667   2.898
18751SOL     OW58091  10.457   3.814   3.127
18751SOL    HW158092  10.371   3.786   3.097
18751SOL    HW258093  10.494   3.738   3.172
18752SOL     OW58094   5.802  14.836  11.989
18752SOL    HW158095   5.820   0.054  11.993
18752SOL    HW258096   5.707  14.830  11.997
18753SOL     OW58097   7.567   9.448   4.260
18753SOL    HW158098   7.544   9.395   4.336
18753SOL    HW258099   7.540   9.537   4.282
18754SOL     OW58100  13.863  11.091   4.029
18754SOL    HW158101  13.852  11.105   3.935
18754SOL    HW258102  13.905  11.171   4.060
18755SOL     OW58103   5.157   8.831   2.745
18755SOL    HW158104   5.115   8.752   2.712
18755SOL    HW258105   5.251   8.813   2.740
18756SOL     OW58106  11.921  13.722   4.582
18756SOL    HW158107  11.849  13.703   4.642
18756SOL    HW258108  11.894  13.684   4.499
18757SOL     OW58109   7.450  12.791   9.509
18757SOL    HW158110   7.480  12.784   9.600
18757SOL    HW258111   7.529  12.778   9.457
18758SOL     OW58112  14.135   9.389  13.455
18758SOL    HW158113  14.227   9.414  13.454
18758SOL    HW258114  14.094   9.451  13.516
18759SOL     OW58115   2.930   3.320  13.097
18759SOL    HW158116   2.947   3.317  13.191
18759SOL    HW258117   2.846   3.276  13.087
18760SOL     OW58118   4.975   3.466   2.044
18760SOL    HW158119   4.974   3.561   2.044
18760SOL    HW258120   4.907   3.441   2.106
18761SOL     OW58121   2.051  14.488   2.116
18761SOL    HW158122   2.090  14.412   2.074
18761SOL    HW258123   1.976  14.511   2.061
18762SOL     OW58124   4.452  10.751   1.674
18762SOL    HW158125   4.532  10.784   1.632
18762SOL    HW258126   4.394  10.729   1.600
18763SOL     OW58127   4.241   6.321   8.268
18763SOL    HW158128   4.286   6.244   8.303
18763SOL    HW258129   4.267   6.392   8.326
18764SOL     OW58130   0.892   3.491   9.623
18764SOL    HW158131   0.884   3.586   9.623
18764SOL    HW258132   0.909   3.468   9.532
18765SOL     OW58133   7.171   7.771  12.717
18765SOL    HW158134   7.221   7.765  12.636
18765SOL    HW258135   7.219   7.836  12.769
18766SOL     OW58136   9.272   3.427  11.986
18766SOL    HW158137   9.363   3.436  12.016
18766SOL    HW258138   9.280   3.391  11.897
18767SOL     OW58139   3.329   8.468  10.899
18767SOL    HW158140   3.375   8.552  10.896
18767SOL    HW258141   3.320   8.442  10.808
18768SOL     OW58142  11.849  10.566   5.058
18768SOL    HW158143  11.878  10.608   4.977
18768SOL    HW258144  11.863  10.472   5.043
18769SOL     OW58145   4.003   8.613  13.587
18769SOL    HW158146   3.976   8.611  13.495
18769SOL    HW258147   4.092   8.649  13.586
18770SOL     OW58148   3.018   0.637   9.149
18770SOL    HW158149   3.048   0.615   9.061
18770SOL    HW258150   3.025   0.555   9.198
18771SOL     OW58151   9.311   0.671   1.370
18771SOL    HW158152   9.385   0.617   1.399
18771SOL    HW258153   9.233   0.622   1.397
18772SOL     OW58154   3.904   5.105   7.254
18772SOL    HW158155   3.938   5.174   7.197
18772SOL    HW258156   3.830   5.145   7.299
18773SOL     OW58157  12.092   2.159   6.528
18773SOL    HW158158  12.162   2.145   6.464
18773SOL    HW258159  12.018   2.109   6.494
18774SOL     OW58160   7.690   7.284   1.225
18774SOL    HW158161   7.605   7.327   1.230
18774SOL    HW258162   7.747   7.347   1.182
18775SOL     OW58163   0.707  10.730   7.113
18775SOL    HW158164   0.680  10.822   7.105
18775SOL    HW258165   0.717  10.701   7.023
18776SOL     OW58166  10.584   0.013   8.809
18776SOL    HW158167  10.598   0.064   8.729
18776SOL    HW258168  10.585  14.798   8.780
18777SOL     OW58169  11.983   6.491   1.734
18777SOL    HW158170  11.920   6.496   1.805
18777SOL    HW258171  11.931   6.463   1.658
18778SOL     OW58172   4.537  10.777   3.601
18778SOL    HW158173   4.564  10.805   3.688
18778SOL    HW258174   4.442  10.786   3.601
18779SOL     OW58175  14.771   2.440   2.645
18779SOL    HW158176  14.692   2.494   2.654
18779SOL    HW258177  14.835   2.498   2.603
18780SOL     OW58178   0.106   1.812   7.921
18780SOL    HW158179   0.169   1.816   7.993
18780SOL    HW258180   0.021   1.830   7.962
18781SOL     OW58181   3.215  14.227   3.218
18781SOL    HW158182   3.198  14.243   3.311
18781SOL    HW258183   3.290  14.167   3.218
18782SOL     OW58184   5.854   6.249   9.657
18782SOL    HW158185   5.766   6.275   9.682
18782SOL    HW258186   5.841   6.183   9.589
18783SOL     OW58187  13.551   7.925  14.726
18783SOL    HW158188  13.566   7.952  14.816
18783SOL    HW258189  13.583   7.835  14.721
18784SOL     OW58190   7.796   9.601   3.767
18784SOL    HW158191   7.892   9.597   3.770
18784SOL    HW258192   7.769   9.585   3.858
18785SOL     OW58193  10.859   8.729   6.196
18785SOL    HW158194  10.872   8.767   6.110
18785SOL    HW258195  10.881   8.636   6.185
18786SOL     OW58196   2.747   7.616  13.505
18786SOL    HW158197   2.670   7.643  13.556
18786SOL    HW258198   2.811   7.684  13.522
18787SOL     OW58199   0.651   4.460   2.810
18787SOL    HW158200   0.609   4.455   2.724
18787SOL    HW258201   0.660   4.553   2.827
18788SOL     OW58202   1.109  10.485   8.554
18788SOL    HW158203   1.124  10.553   8.620
18788SOL    HW258204   1.017  10.495   8.529
18789SOL     OW58205  11.190   5.678  13.253
18789SOL    HW158206  11.119   5.740  13.239
18789SOL    HW258207  11.247   5.689  13.177
18790SOL     OW58208   2.059   4.853   1.470
18790SOL    HW158209   2.111   4.933   1.465
18790SOL    HW258210   2.089   4.809   1.549
18791SOL     OW58211  10.548  10.481   7.064
18791SOL    HW158212  10.547  10.548   7.133
18791SOL    HW258213  10.459  10.445   7.065
18792SOL     OW58214  13.404  10.785   1.532
18792SOL    HW158215  13.408  10.740   1.448
18792SOL    HW258216  13.496  10.802   1.554
18793SOL     OW58217   7.142   2.442   7.571
18793SOL    HW158218   7.237   2.433   7.565
18793SOL    HW258219   7.124   2.449   7.664
18794SOL     OW58220  11.403   8.085   3.147
18794SOL    HW158221  11.489   8.124   3.155
18794SOL    HW258222  11.388   8.079   3.052
18795SOL     OW58223  13.884  12.565   4.938
18795SOL    HW158224  13.863  12.486   4.888
18795SOL    HW258225  13.893  12.633   4.872
18796SOL     OW58226   1.089   4.745  10.758
18796SOL    HW158227   1.162   4.806  10.770
18796SOL    HW258228   1.077   4.705  10.844
18797SOL     OW58229  14.345   8.690  13.753
18797SOL    HW158230  14.321   8.723  13.840
18797SOL    HW258231  14.268   8.706  13.699
18798SOL     OW58232  14.367   4.851   8.764
18798SOL    HW158233  14.367   4.928   8.821
18798SOL    HW258234  14.335   4.780   8.819
18799SOL     OW58235  11.605  11.820   6.829
18799SOL    HW158236  11.685  11.866   6.807
18799SOL    HW258237  11.634  11.741   6.875
18800SOL     OW58238   1.804   1.864   9.858
18800SOL    HW158239   1.880   1.811   9.832
18800SOL    HW258240   1.842   1.947   9.885
18801SOL     OW58241   5.857  11.159   1.832
18801SOL    HW158242   5.803  11.235   1.853
18801SOL    HW258243   5.919  11.191   1.766
18802SOL     OW58244   8.669   3.960   6.321
18802SOL    HW158245   8.722   4.039   6.315
18802SOL    HW258246   8.686   3.927   6.409
18803SOL     OW58247   5.125   1.137   6.441
18803SOL    HW158248   5.196   1.165   6.498
18803SOL    HW258249   5.147   1.173   6.355
18804SOL     OW58250   0.396  13.878   2.518
18804SOL    HW158251   0.445  13.797   2.535
18804SOL    HW258252   0.406  13.892   2.423
18805SOL     OW58253   0.850  11.125   4.404
18805SOL    HW158254   0.882  11.064   4.471
18805SOL    HW258255   0.772  11.082   4.367
18806SOL     OW58256   6.394   2.532   3.716
18806SOL    HW158257   6.309   2.538   3.672
18806SOL    HW258258   6.457   2.568   3.654
18807SOL     OW58259  12.664   5.441  13.930
18807SOL    HW158260  12.618   5.378  13.875
18807SOL    HW258261  12.756   5.418  13.923
18808SOL     OW58262   5.134  11.065   2.324
18808SOL    HW158263   5.173  11.152   2.325
18808SOL    HW258264   5.152  11.031   2.236
18809SOL     OW58265  11.278   4.314  14.796
18809SOL    HW158266  11.232   4.366  14.861
18809SOL    HW258267  11.209   4.278  14.741
18810SOL     OW58268   3.014   2.507  13.711
18810SOL    HW158269   2.953   2.547  13.774
18810SOL    HW258270   3.100   2.517  13.751
18811SOL     OW58271   5.284   1.135  10.649
18811SOL    HW158272   5.241   1.122  10.733
18811SOL    HW258273   5.377   1.124  10.667
18812SOL     OW58274   8.546   9.768  10.373
18812SOL    HW158275   8.542   9.830  10.300
18812SOL    HW258276   8.499   9.691  10.342
18813SOL     OW58277   5.470   9.543  11.712
18813SOL    HW158278   5.477   9.464  11.766
18813SOL    HW258279   5.547   9.541  11.655
18814SOL     OW58280  14.160   8.290   6.643
18814SOL    HW158281  14.221   8.216   6.639
18814SOL    HW258282  14.081   8.257   6.599
18815SOL     OW58283  10.960   4.185  11.190
18815SOL    HW158284  11.027   4.151  11.250
18815SOL    HW258285  10.885   4.126  11.203
18816SOL     OW58286  14.257  12.199   1.263
18816SOL    HW158287  14.171  12.235   1.244
18816SOL    HW258288  14.239  12.112   1.300
18817SOL     OW58289   0.303   6.837   6.214
18817SOL    HW158290   0.241   6.766   6.201
18817SOL    HW258291   0.333   6.860   6.126
18818SOL     OW58292   2.065   2.259   5.818
18818SOL    HW158293   2.014   2.298   5.746
18818SOL    HW258294   2.149   2.305   5.815
18819SOL     OW58295   4.734  11.756  11.535
18819SOL    HW158296   4.707  11.719  11.619
18819SOL    HW258297   4.742  11.850  11.552
18820SOL     OW58298  13.830  13.861   2.694
18820SOL    HW158299  13.866  13.773   2.686
18820SOL    HW258300  13.908  13.917   2.705
18821SOL     OW58301   2.314  12.836   7.871
18821SOL    HW158302   2.328  12.762   7.930
18821SOL    HW258303   2.271  12.902   7.924
18822SOL     OW58304   7.153   2.969   8.281
18822SOL    HW158305   7.102   3.015   8.347
18822SOL    HW258306   7.177   3.036   8.217
18823SOL     OW58307   9.289   5.802   4.447
18823SOL    HW158308   9.244   5.847   4.375
18823SOL    HW258309   9.260   5.846   4.526
18824SOL     OW58310  11.059   9.040  13.266
18824SOL    HW158311  11.123   9.080  13.325
18824SOL    HW258312  11.067   9.090  13.185
18825SOL     OW58313   3.858   8.358   5.123
18825SOL    HW158314   3.855   8.313   5.038
18825SOL    HW258315   3.941   8.333   5.161
18826SOL     OW58316   9.112   9.525  14.366
18826SOL    HW158317   9.171   9.491  14.299
18826SOL    HW258318   9.102   9.453  14.428
18827SOL     OW58319   8.090   7.471   6.056
18827SOL    HW158320   8.166   7.516   6.017
18827SOL    HW258321   8.057   7.533   6.120
18828SOL     OW58322   6.379  14.321   4.805
18828SOL    HW158323   6.286  14.343   4.812
18828SOL    HW258324   6.405  14.353   4.719
18829SOL     OW58325  13.298   6.992   4.396
18829SOL    HW158326  13.360   7.022   4.330
18829SOL    HW258327  13.253   6.918   4.355
18830SOL     OW58328   6.032  11.063   2.869
18830SOL    HW158329   6.121  11.094   2.855
18830SOL    HW258330   6.014  11.008   2.792
18831SOL     OW58331   6.387   6.833  10.188
18831SOL    HW158332   6.370   6.925  10.207
18831SOL    HW258333   6.348   6.819  10.102
18832SOL     OW58334   7.836  13.064   5.465
18832SOL    HW158335   7.821  13.050   5.372
18832SOL    HW258336   7.896  12.993   5.491
18833SOL     OW58337   8.568  11.306  12.174
18833SOL    HW158338   8.635  11.295  12.242
18833SOL    HW258339   8.541  11.398  12.182
18834SOL     OW58340   6.362  13.833   6.015
18834SOL    HW158341   6.384  13.919   5.978
18834SOL    HW258342   6.313  13.789   5.946
18835SOL     OW58343  13.738   5.742  14.817
18835SOL    HW158344  13.808   5.760   0.003
18835SOL    HW258345  13.664   5.712  14.870
18836SOL     OW58346   9.461   8.044   8.793
18836SOL    HW158347   9.396   8.112   8.811
18836SOL    HW258348   9.535   8.090   8.753
18837SOL     OW58349   4.338   8.493   9.444
18837SOL    HW158350   4.290   8.421   9.403
18837SOL    HW258351   4.350   8.556   9.374
18838SOL     OW58352   0.321   0.314  10.194
18838SOL    HW158353   0.336   0.294  10.102
18838SOL    HW258354   0.243   0.264  10.217
18839SOL     OW58355  10.349   4.381   8.637
18839SOL    HW158356  10.401   4.301   8.632
18839SOL    HW258357  10.265   4.358   8.598
18840SOL     OW58358   4.625   8.933  14.064
18840SOL    HW158359   4.714   8.929  14.099
18840SOL    HW258360   4.627   9.006  14.002
18841SOL     OW58361  10.148  11.545   5.448
18841SOL    HW158362  10.110  11.547   5.360
18841SOL    HW258363  10.113  11.465   5.487
18842SOL     OW58364   7.192  10.810  10.945
18842SOL    HW158365   7.105  10.777  10.927
18842SOL    HW258366   7.250  10.734  10.937
18843SOL     OW58367   6.027   6.817   3.670
18843SOL    HW158368   5.987   6.751   3.727
18843SOL    HW258369   6.007   6.901   3.713
18844SOL     OW58370  11.924   4.128   1.083
18844SOL    HW158371  11.953   4.200   1.140
18844SOL    HW258372  11.828   4.132   1.087
18845SOL     OW58373  14.077  13.979  11.938
18845SOL    HW158374  14.136  13.906  11.959
18845SOL    HW258375  13.992  13.952  11.973
18846SOL     OW58376   7.774  13.718   0.632
18846SOL    HW158377   7.776  13.745   0.724
18846SOL    HW258378   7.752  13.625   0.635
18847SOL     OW58379  14.789   5.553  14.446
18847SOL    HW158380  14.801   5.595  14.361
18847SOL    HW258381  14.744   5.471  14.426
18848SOL     OW58382  10.821  11.100   2.825
18848SOL    HW158383  10.869  11.063   2.899
18848SOL    HW258384  10.729  11.097   2.852
18849SOL     OW58385   8.497   0.377   8.441
18849SOL    HW158386   8.553   0.406   8.513
18849SOL    HW258387   8.411   0.365   8.482
18850SOL     OW58388   6.568   9.086   1.158
18850SOL    HW158389   6.512   9.027   1.107
18850SOL    HW258390   6.510   9.117   1.228
18851SOL     OW58391   3.281   7.021   0.562
18851SOL    HW158392   3.251   6.942   0.516
18851SOL    HW258393   3.318   6.988   0.644
18852SOL     OW58394   4.388   3.747   3.556
18852SOL    HW158395   4.415   3.818   3.498
18852SOL    HW258396   4.453   3.678   3.543
18853SOL     OW58397   7.997  14.422   9.951
18853SOL    HW158398   7.966  14.455   9.867
18853SOL    HW258399   8.081  14.380   9.932
18854SOL     OW58400   3.759   8.756   5.645
18854SOL    HW158401   3.853   8.770   5.641
18854SOL    HW258402   3.722   8.822   5.588
18855SOL     OW58403   7.714   6.610   4.590
18855SOL    HW158404   7.687   6.662   4.514
18855SOL    HW258405   7.810   6.612   4.588
18856SOL     OW58406  13.262   8.673  10.868
18856SOL    HW158407  13.325   8.640  10.804
18856SOL    HW258408  13.178   8.672  10.823
18857SOL     OW58409   2.225   9.404   9.376
18857SOL    HW158410   2.230   9.328   9.318
18857SOL    HW258411   2.164   9.463   9.332
18858SOL     OW58412  12.626  13.295   6.496
18858SOL    HW158413  12.664  13.318   6.411
18858SOL    HW258414  12.698  13.309   6.558
18859SOL     OW58415   7.075   7.307   6.701
18859SOL    HW158416   7.061   7.310   6.606
18859SOL    HW258417   7.126   7.227   6.716
18860SOL     OW58418  11.916   1.318   8.227
18860SOL    HW158419  11.909   1.363   8.311
18860SOL    HW258420  11.957   1.234   8.247
18861SOL     OW58421  13.197   3.235   4.852
18861SOL    HW158422  13.215   3.201   4.765
18861SOL    HW258423  13.107   3.267   4.848
18862SOL     OW58424   7.698  10.987  12.526
18862SOL    HW158425   7.715  10.969  12.433
18862SOL    HW258426   7.664  10.904  12.560
18863SOL     OW58427  13.591  10.887   7.379
18863SOL    HW158428  13.672  10.854   7.340
18863SOL    HW258429  13.567  10.961   7.324
18864SOL     OW58430   9.518   4.197  11.706
18864SOL    HW158431   9.532   4.211  11.800
18864SOL    HW258432   9.528   4.102  11.694
18865SOL     OW58433  13.846   9.549  12.840
18865SOL    HW158434  13.830   9.545  12.934
18865SOL    HW258435  13.869   9.641  12.824
18866SOL     OW58436  10.452   5.301   7.351
18866SOL    HW158437  10.415   5.214   7.334
18866SOL    HW258438  10.434   5.350   7.271
18867SOL     OW58439  12.396  11.893   1.784
18867SOL    HW158440  12.409  11.848   1.701
18867SOL    HW258441  12.318  11.947   1.771
18868SOL     OW58442   9.711   4.768   5.037
18868SOL    HW158443   9.664   4.686   5.021
18868SOL    HW258444   9.774   4.774   4.965
18869SOL     OW58445   1.790   4.009   1.794
18869SOL    HW158446   1.703   4.044   1.771
18869SOL    HW258447   1.851   4.074   1.760
18870SOL     OW58448   6.364   9.046   8.889
18870SOL    HW158449   6.449   9.043   8.845
18870SOL    HW258450   6.300   9.049   8.818
18871SOL     OW58451   7.277   9.008   9.112
18871SOL    HW158452   7.194   9.021   9.066
18871SOL    HW258453   7.335   8.972   9.045
18872SOL     OW58454   3.195   1.695   4.712
18872SOL    HW158455   3.279   1.724   4.746
18872SOL    HW258456   3.187   1.604   4.742
18873SOL     OW58457  12.994   7.189   4.643
18873SOL    HW158458  12.899   7.198   4.641
18873SOL    HW258459  13.015   7.181   4.736
18874SOL     OW58460   3.911   2.221   8.805
18874SOL    HW158461   3.837   2.222   8.744
18874SOL    HW258462   3.872   2.244   8.890
18875SOL     OW58463   5.938  10.461  10.705
18875SOL    HW158464   5.877  10.405  10.656
18875SOL    HW258465   6.018  10.410  10.710
18876SOL     OW58466   3.891   9.240   5.875
18876SOL    HW158467   3.982   9.260   5.898
18876SOL    HW258468   3.840   9.311   5.913
18877SOL     OW58469   1.331  12.540  12.138
18877SOL    HW158470   1.387  12.611  12.169
18877SOL    HW258471   1.311  12.489  12.217
18878SOL     OW58472   1.957   3.454  11.838
18878SOL    HW158473   2.002   3.406  11.907
18878SOL    HW258474   1.988   3.544  11.846
18879SOL     OW58475   7.185   5.073   4.683
18879SOL    HW158476   7.216   5.074   4.592
18879SOL    HW258477   7.178   5.166   4.706
18880SOL     OW58478  13.582   2.178   4.446
18880SOL    HW158479  13.586   2.262   4.401
18880SOL    HW258480  13.568   2.201   4.538
18881SOL     OW58481  12.645  10.570  11.286
18881SOL    HW158482  12.553  10.585  11.261
18881SOL    HW258483  12.654  10.474  11.285
18882SOL     OW58484   1.661   2.353   4.673
18882SOL    HW158485   1.585   2.411   4.676
18882SOL    HW258486   1.734   2.407   4.704
18883SOL     OW58487   4.983  14.256   3.389
18883SOL    HW158488   4.986  14.177   3.334
18883SOL    HW258489   4.903  14.301   3.361
18884SOL     OW58490   4.927  14.698   5.882
18884SOL    HW158491   5.007  14.749   5.870
18884SOL    HW258492   4.859  14.764   5.902
18885SOL     OW58493  14.065   9.251   5.232
18885SOL    HW158494  14.066   9.335   5.187
18885SOL    HW258495  14.129   9.198   5.185
18886SOL     OW58496   1.784   9.523   5.064
18886SOL    HW158497   1.703   9.567   5.089
18886SOL    HW258498   1.820   9.577   4.993
18887SOL     OW58499   5.269   5.568   0.119
18887SOL    HW158500   5.242   5.499   0.179
18887SOL    HW258501   5.247   5.534   0.032
18888SOL     OW58502   8.375   7.714   5.157
18888SOL    HW158503   8.453   7.728   5.212
18888SOL    HW258504   8.310   7.678   5.217
18889SOL     OW58505  12.614   6.535  14.458
18889SOL    HW158506  12.626   6.509  14.550
18889SOL    HW258507  12.572   6.621  14.463
18890SOL     OW58508  10.555   2.907   8.088
18890SOL    HW158509  10.528   2.884   8.176
18890SOL    HW258510  10.612   2.835   8.060
18891SOL     OW58511  13.603   6.618   3.298
18891SOL    HW158512  13.699   6.620   3.292
18891SOL    HW258513  13.574   6.606   3.207
18892SOL     OW58514  10.579   3.299   5.645
18892SOL    HW158515  10.616   3.358   5.710
18892SOL    HW258516  10.552   3.222   5.694
18893SOL     OW58517  12.419   6.708  11.761
18893SOL    HW158518  12.458   6.747  11.683
18893SOL    HW258519  12.413   6.615  11.740
18894SOL     OW58520  12.932   9.810   8.347
18894SOL    HW158521  12.976   9.761   8.278
18894SOL    HW258522  12.889   9.742   8.401
18895SOL     OW58523   4.616   6.032  13.666
18895SOL    HW158524   4.552   6.033  13.737
18895SOL    HW258525   4.633   6.124  13.648
18896SOL     OW58526   5.715   0.258  10.569
18896SOL    HW158527   5.778   0.228  10.635
18896SOL    HW258528   5.724   0.195  10.498
18897SOL     OW58529  12.715  11.445   3.282
18897SOL    HW158530  12.645  11.509   3.297
18897SOL    HW258531  12.705  11.383   3.354
18898SOL     OW58532  10.232   3.366   7.077
18898SOL    HW158533  10.195   3.339   7.161
18898SOL    HW258534  10.268   3.453   7.093
18899SOL     OW58535  13.105   5.074   8.284
18899SOL    HW158536  13.156   5.057   8.362
18899SOL    HW258537  13.124   5.165   8.261
18900SOL     OW58538  12.677   5.235  14.869
18900SOL    HW158539  12.668   5.140  14.870
18900SOL    HW258540  12.759   5.252   0.039
18901SOL     OW58541  12.429   6.590  12.452
18901SOL    HW158542  12.368   6.633  12.512
18901SOL    HW258543  12.417   6.637  12.369
18902SOL     OW58544   7.083   4.623   4.033
18902SOL    HW158545   7.093   4.663   3.947
18902SOL    HW258546   7.145   4.550   4.034
18903SOL     OW58547   5.707   7.720  10.075
18903SOL    HW158548   5.799   7.737  10.091
18903SOL    HW258549   5.669   7.707  10.162
18904SOL     OW58550  13.102   9.468   1.957
18904SOL    HW158551  13.189   9.459   1.919
18904SOL    HW258552  13.067   9.549   1.918
18905SOL     OW58553   2.215  10.243  12.058
18905SOL    HW158554   2.282  10.282  12.114
18905SOL    HW258555   2.146  10.310  12.053
18906SOL     OW58556   8.184   9.650   7.874
18906SOL    HW158557   8.115   9.624   7.936
18906SOL    HW258558   8.262   9.606   7.907
18907SOL     OW58559   7.964   2.710   3.148
18907SOL    HW158560   7.965   2.661   3.230
18907SOL    HW258561   7.895   2.775   3.159
18908SOL     OW58562  11.130   5.621   0.990
18908SOL    HW158563  11.054   5.679   0.999
18908SOL    HW258564  11.180   5.659   0.918
18909SOL     OW58565   0.921   9.265   9.935
18909SOL    HW158566   0.838   9.216   9.933
18909SOL    HW258567   0.912   9.324  10.010
18910SOL     OW58568   1.212  14.779  11.193
18910SOL    HW158569   1.263  14.767  11.273
18910SOL    HW258570   1.197  14.874  11.188
18911SOL     OW58571  12.228  10.969   8.643
18911SOL    HW158572  12.230  11.061   8.672
18911SOL    HW258573  12.319  10.950   8.618
18912SOL     OW58574   4.086   0.995   9.903
18912SOL    HW158575   4.047   0.910   9.925
18912SOL    HW258576   4.108   1.034   9.988
18913SOL     OW58577   7.614   4.026   3.455
18913SOL    HW158578   7.570   3.952   3.497
18913SOL    HW258579   7.677   4.056   3.521
18914SOL     OW58580   0.252   3.292   2.578
18914SOL    HW158581   0.288   3.316   2.663
18914SOL    HW258582   0.301   3.213   2.553
18915SOL     OW58583  14.432   8.880   6.411
18915SOL    HW158584  14.379   8.804   6.386
18915SOL    HW258585  14.456   8.863   6.503
18916SOL     OW58586   1.352   8.096  14.816
18916SOL    HW158587   1.428   8.099  14.874
18916SOL    HW258588   1.371   8.025  14.755
18917SOL     OW58589  10.118   6.864   4.396
18917SOL    HW158590  10.037   6.814   4.391
18917SOL    HW258591  10.092   6.949   4.432
18918SOL     OW58592  10.274  12.426   9.995
18918SOL    HW158593  10.194  12.391  10.034
18918SOL    HW258594  10.312  12.481  10.064
18919SOL     OW58595  13.614   2.363  10.280
18919SOL    HW158596  13.574   2.449  10.283
18919SOL    HW258597  13.542   2.302  10.296
18920SOL     OW58598  13.328  11.938   3.956
18920SOL    HW158599  13.422  11.944   3.976
18920SOL    HW258600  13.325  11.913   3.864
18921SOL     OW58601  10.706   7.131   3.043
18921SOL    HW158602  10.672   7.106   3.129
18921SOL    HW258603  10.672   7.065   2.983
18922SOL     OW58604   2.659  14.328   6.217
18922SOL    HW158605   2.713  14.268   6.167
18922SOL    HW258606   2.721  14.373   6.275
18923SOL     OW58607  10.425  12.202   5.984
18923SOL    HW158608  10.377  12.123   5.960
18923SOL    HW258609  10.397  12.222   6.073
18924SOL     OW58610   5.698  12.397  11.711
18924SOL    HW158611   5.789  12.377  11.689
18924SOL    HW258612   5.696  12.493  11.718
18925SOL     OW58613   5.667   6.654  12.428
18925SOL    HW158614   5.637   6.732  12.383
18925SOL    HW258615   5.685   6.683  12.518
18926SOL     OW58616  14.205  11.568   2.041
18926SOL    HW158617  14.205  11.477   2.011
18926SOL    HW258618  14.159  11.615   1.972
18927SOL     OW58619   6.537   0.905   2.854
18927SOL    HW158620   6.555   0.848   2.780
18927SOL    HW258621   6.441   0.907   2.859
18928SOL     OW58622   3.452   1.197   3.753
18928SOL    HW158623   3.366   1.237   3.768
18928SOL    HW258624   3.512   1.246   3.809
18929SOL     OW58625   7.561   8.576  14.637
18929SOL    HW158626   7.632   8.601  14.695
18929SOL    HW258627   7.544   8.484  14.658
18930SOL     OW58628   4.324  12.920   9.916
18930SOL    HW158629   4.300  12.850   9.856
18930SOL    HW258630   4.393  12.968   9.870
18931SOL     OW58631   6.290   3.791  12.411
18931SOL    HW158632   6.207   3.750  12.434
18931SOL    HW258633   6.326   3.734  12.343
18932SOL     OW58634  10.521   1.366   8.503
18932SOL    HW158635  10.614   1.344   8.513
18932SOL    HW258636  10.519   1.424   8.427
18933SOL     OW58637   2.716   1.071   2.896
18933SOL    HW158638   2.694   1.065   2.803
18933SOL    HW258639   2.792   1.129   2.898
18934SOL     OW58640   2.853   9.907  12.983
18934SOL    HW158641   2.941   9.942  13.001
18934SOL    HW258642   2.840   9.841  13.052
18935SOL     OW58643   9.153   6.321  11.226
18935SOL    HW158644   9.117   6.389  11.170
18935SOL    HW258645   9.248   6.328  11.214
18936SOL     OW58646   8.501   4.648   2.332
18936SOL    HW158647   8.539   4.728   2.294
18936SOL    HW258648   8.408   4.667   2.340
18937SOL     OW58649  13.061   1.993  13.948
18937SOL    HW158650  12.982   2.044  13.964
18937SOL    HW258651  13.038   1.904  13.976
18938SOL     OW58652  11.736  13.042   7.747
18938SOL    HW158653  11.660  12.992   7.779
18938SOL    HW258654  11.807  13.019   7.807
18939SOL     OW58655   7.738   8.545  13.155
18939SOL    HW158656   7.805   8.501  13.102
18939SOL    HW258657   7.723   8.628  13.110
18940SOL     OW58658  12.242   4.765   2.917
18940SOL    HW158659  12.287   4.833   2.967
18940SOL    HW258660  12.303   4.743   2.847
18941SOL     OW58661   7.285  13.063  11.425
18941SOL    HW158662   7.331  13.084  11.506
18941SOL    HW258663   7.207  13.015  11.453
18942SOL     OW58664  10.717  13.883   8.127
18942SOL    HW158665  10.744  13.876   8.036
18942SOL    HW258666  10.656  13.957   8.129
18943SOL     OW58667   6.981   5.197   5.426
18943SOL    HW158668   6.898   5.171   5.466
18943SOL    HW258669   6.955   5.252   5.352
18944SOL     OW58670   0.573  11.829   2.963
18944SOL    HW158671   0.500  11.791   2.914
18944SOL    HW258672   0.535  11.905   3.008
18945SOL     OW58673   1.091   2.518   4.586
18945SOL    HW158674   1.060   2.519   4.496
18945SOL    HW258675   1.014   2.495   4.638
18946SOL     OW58676   0.851   6.419   2.363
18946SOL    HW158677   0.829   6.382   2.449
18946SOL    HW258678   0.946   6.415   2.359
18947SOL     OW58679  12.827   4.540   1.367
18947SOL    HW158680  12.816   4.507   1.278
18947SOL    HW258681  12.787   4.627   1.365
18948SOL     OW58682   6.620  12.016  12.598
18948SOL    HW158683   6.543  11.959  12.593
18948SOL    HW258684   6.613  12.070  12.519
18949SOL     OW58685  14.469  10.462   0.381
18949SOL    HW158686  14.394  10.508   0.343
18949SOL    HW258687  14.444  10.448   0.473
18950SOL     OW58688  11.277   4.346   7.966
18950SOL    HW158689  11.330   4.363   8.044
18950SOL    HW258690  11.196   4.308   8.001
18951SOL     OW58691   2.990   6.452  10.610
18951SOL    HW158692   3.084   6.467  10.603
18951SOL    HW258693   2.960   6.445  10.520
18952SOL     OW58694   3.550   0.728  14.500
18952SOL    HW158695   3.616   0.721  14.431
18952SOL    HW258696   3.593   0.778  14.570
18953SOL     OW58697  10.027  10.709   8.512
18953SOL    HW158698   9.931  10.717   8.516
18953SOL    HW258699  10.044  10.676   8.424
18954SOL     OW58700   5.001  11.549   7.562
18954SOL    HW158701   5.012  11.527   7.655
18954SOL    HW258702   5.056  11.627   7.550
18955SOL     OW58703  11.659   5.998  13.619
18955SOL    HW158704  11.740   6.038  13.649
18955SOL    HW258705  11.676   5.975  13.528
18956SOL     OW58706   5.307  14.474   0.123
18956SOL    HW158707   5.243  14.483   0.193
18956SOL    HW258708   5.356  14.557   0.124
18957SOL     OW58709  11.723   4.974  12.742
18957SOL    HW158710  11.685   5.004  12.825
18957SOL    HW258711  11.762   4.889  12.763
18958SOL     OW58712   2.719   1.926   5.259
18958SOL    HW158713   2.806   1.963   5.273
18958SOL    HW258714   2.699   1.944   5.167
18959SOL     OW58715  10.599   8.680  12.969
18959SOL    HW158716  10.547   8.618  13.019
18959SOL    HW258717  10.550   8.693  12.888
18960SOL     OW58718   0.555   4.481   3.567
18960SOL    HW158719   0.468   4.447   3.586
18960SOL    HW258720   0.583   4.432   3.490
18961SOL     OW58721  14.868   9.067   7.143
18961SOL    HW158722  14.773   9.068   7.135
18961SOL    HW258723   0.014   8.977   7.166
18962SOL     OW58724  12.554   5.799   6.457
18962SOL    HW158725  12.612   5.863   6.415
18962SOL    HW258726  12.614   5.744   6.508
18963SOL     OW58727   9.482   6.923  12.329
18963SOL    HW158728   9.545   6.917  12.258
18963SOL    HW258729   9.397   6.933  12.286
18964SOL     OW58730   3.354   7.514  14.107
18964SOL    HW158731   3.437   7.544  14.071
18964SOL    HW258732   3.288   7.553  14.050
18965SOL     OW58733  10.533   6.196   2.366
18965SOL    HW158734  10.507   6.167   2.278
18965SOL    HW258735  10.629   6.191   2.366
18966SOL     OW58736   3.971  13.311  14.808
18966SOL    HW158737   3.909  13.239  14.794
18966SOL    HW258738   4.028  13.279   0.002
18967SOL     OW58739  14.743   8.535  10.558
18967SOL    HW158740  14.773   8.444  10.560
18967SOL    HW258741  14.687   8.540  10.481
18968SOL     OW58742  14.429  14.002   7.883
18968SOL    HW158743  14.418  13.916   7.840
18968SOL    HW258744  14.404  14.065   7.816
18969SOL     OW58745   8.793   7.696  13.077
18969SOL    HW158746   8.768   7.607  13.100
18969SOL    HW258747   8.889   7.695  13.076
18970SOL     OW58748  12.418  10.552   4.563
18970SOL    HW158749  12.471  10.594   4.495
18970SOL    HW258750  12.341  10.518   4.516
18971SOL     OW58751  10.801   6.290   6.036
18971SOL    HW158752  10.884   6.245   6.027
18971SOL    HW258753  10.756   6.275   5.953
18972SOL     OW58754   1.698   9.708   7.098
18972SOL    HW158755   1.701   9.748   7.011
18972SOL    HW258756   1.612   9.666   7.103
18973SOL     OW58757   9.116  12.441   7.405
18973SOL    HW158758   9.116  12.375   7.337
18973SOL    HW258759   9.055  12.508   7.374
18974SOL     OW58760  12.590  11.630  10.213
18974SOL    HW158761  12.598  11.723  10.192
18974SOL    HW258762  12.545  11.628  10.297
18975SOL     OW58763   0.195   9.721  12.692
18975SOL    HW158764   0.241   9.778  12.630
18975SOL    HW258765   0.172   9.643  12.640
18976SOL     OW58766   7.844  14.570  14.298
18976SOL    HW158767   7.765  14.610  14.334
18976SOL    HW258768   7.823  14.553  14.206
18977SOL     OW58769   4.744  12.724  10.305
18977SOL    HW158770   4.703  12.730  10.219
18977SOL    HW258771   4.672  12.731  10.367
18978SOL     OW58772   6.829  12.804   7.074
18978SOL    HW158773   6.841  12.834   6.984
18978SOL    HW258774   6.768  12.866   7.113
18979SOL     OW58775  12.457   1.328   8.038
18979SOL    HW158776  12.502   1.329   8.122
18979SOL    HW258777  12.524   1.301   7.974
18980SOL     OW58778  10.101   1.800   3.050
18980SOL    HW158779  10.146   1.723   3.083
18980SOL    HW258780  10.016   1.799   3.094
18981SOL     OW58781  14.002  10.195   1.497
18981SOL    HW158782  13.953  10.139   1.558
18981SOL    HW258783  14.086  10.150   1.486
18982SOL     OW58784   6.171   5.518   9.926
18982SOL    HW158785   6.221   5.491   9.849
18982SOL    HW258786   6.118   5.442   9.948
18983SOL     OW58787  13.688   1.407  12.735
18983SOL    HW158788  13.626   1.467  12.694
18983SOL    HW258789  13.637   1.327  12.751
18984SOL     OW58790  11.319  13.783  13.685
18984SOL    HW158791  11.268  13.805  13.608
18984SOL    HW258792  11.265  13.721  13.734
18985SOL     OW58793   3.711   3.923   6.173
18985SOL    HW158794   3.635   3.962   6.130
18985SOL    HW258795   3.785   3.975   6.141
18986SOL     OW58796   2.654   9.312   6.625
18986SOL    HW158797   2.749   9.324   6.632
18986SOL    HW258798   2.634   9.331   6.534
18987SOL     OW58799   3.363   9.324   9.577
18987SOL    HW158800   3.312   9.268   9.635
18987SOL    HW258801   3.452   9.290   9.582
18988SOL     OW58802  13.361   5.159  12.375
18988SOL    HW158803  13.269   5.148  12.351
18988SOL    HW258804  13.360   5.172  12.470
18989SOL     OW58805   6.642   0.277   8.235
18989SOL    HW158806   6.706   0.344   8.209
18989SOL    HW258807   6.622   0.231   8.153
18990SOL     OW58808   0.245   8.778   6.453
18990SOL    HW158809   0.229   8.836   6.527
18990SOL    HW258810   0.250   8.836   6.377
18991SOL     OW58811  12.592   2.986   1.507
18991SOL    HW158812  12.638   2.921   1.561
18991SOL    HW258813  12.613   3.070   1.547
18992SOL     OW58814   6.818   2.246   6.111
18992SOL    HW158815   6.800   2.174   6.051
18992SOL    HW258816   6.790   2.214   6.197
18993SOL     OW58817   0.471  13.457   9.689
18993SOL    HW158818   0.562  13.427   9.686
18993SOL    HW258819   0.449  13.459   9.782
18994SOL     OW58820   0.702   2.140  13.902
18994SOL    HW158821   0.647   2.177  13.971
18994SOL    HW258822   0.725   2.053  13.933
18995SOL     OW58823   3.406   1.830  11.259
18995SOL    HW158824   3.474   1.803  11.197
18995SOL    HW258825   3.405   1.761  11.325
18996SOL     OW58826   1.738   9.268  14.195
18996SOL    HW158827   1.769   9.234  14.110
18996SOL    HW258828   1.670   9.330  14.172
18997SOL     OW58829   2.852   6.881   4.937
18997SOL    HW158830   2.853   6.858   4.844
18997SOL    HW258831   2.762   6.865   4.964
18998SOL     OW58832   8.980   4.662   6.224
18998SOL    HW158833   9.002   4.630   6.311
18998SOL    HW258834   9.048   4.627   6.167
18999SOL     OW58835   7.044  12.331  13.554
18999SOL    HW158836   7.033  12.259  13.492
18999SOL    HW258837   7.138  12.332  13.572
19000SOL     OW58838  12.084   3.721   7.878
19000SOL    HW158839  12.157   3.670   7.842
19000SOL    HW258840  12.018   3.656   7.901
19001SOL     OW58841  10.145   7.257   5.103
19001SOL    HW158842  10.093   7.235   5.026
19001SOL    HW258843  10.231   7.217   5.087
19002SOL     OW58844  12.555  12.444   8.027
19002SOL    HW158845  12.536  12.485   7.943
19002SOL    HW258846  12.509  12.360   8.024
19003SOL     OW58847  11.684  10.589  13.029
19003SOL    HW158848  11.620  10.630  12.970
19003SOL    HW258849  11.647  10.502  13.047
19004SOL     OW58850   5.669   9.588   9.524
19004SOL    HW158851   5.652   9.681   9.533
19004SOL    HW258852   5.741   9.570   9.585
19005SOL     OW58853   2.085   0.927  13.522
19005SOL    HW158854   2.044   0.992  13.580
19005SOL    HW258855   2.084   0.846  13.572
19006SOL     OW58856  14.597  11.271  10.742
19006SOL    HW158857  14.618  11.238  10.829
19006SOL    HW258858  14.678  11.260  10.692
19007SOL     OW58859   3.983   6.437   2.181
19007SOL    HW158860   4.069   6.424   2.222
19007SOL    HW258861   4.000   6.434   2.087
19008SOL     OW58862   0.253   0.859  10.958
19008SOL    HW158863   0.238   0.854  11.052
19008SOL    HW258864   0.287   0.772  10.935
19009SOL     OW58865   4.507  11.708   1.364
19009SOL    HW158866   4.531  11.721   1.456
19009SOL    HW258867   4.428  11.655   1.367
19010SOL     OW58868   5.424   5.864   2.288
19010SOL    HW158869   5.349   5.813   2.255
19010SOL    HW258870   5.410   5.951   2.252
19011SOL     OW58871   7.276   4.454   7.175
19011SOL    HW158872   7.203   4.516   7.173
19011SOL    HW258873   7.253   4.388   7.110
19012SOL     OW58874   4.673  14.293   1.514
19012SOL    HW158875   4.618  14.216   1.501
19012SOL    HW258876   4.755  14.259   1.550
19013SOL     OW58877  11.889   5.557   5.019
19013SOL    HW158878  11.962   5.532   4.963
19013SOL    HW258879  11.901   5.651   5.033
19014SOL     OW58880   1.307   0.218   3.946
19014SOL    HW158881   1.367   0.293   3.939
19014SOL    HW258882   1.350   0.160   4.009
19015SOL     OW58883   6.001  10.927  11.646
19015SOL    HW158884   5.939  10.886  11.705
19015SOL    HW258885   6.054  10.854  11.612
19016SOL     OW58886   2.755  10.994  14.095
19016SOL    HW158887   2.806  10.947  14.028
19016SOL    HW258888   2.749  11.084  14.062
19017SOL     OW58889   2.169  12.314  14.059
19017SOL    HW158890   2.258  12.283  14.075
19017SOL    HW258891   2.121  12.292  14.138
19018SOL     OW58892  14.032  14.371   8.668
19018SOL    HW158893  14.018  14.456   8.709
19018SOL    HW258894  14.028  14.308   8.741
19019SOL     OW58895  12.811   9.388  11.014
19019SOL    HW158896  12.834   9.315  10.956
19019SOL    HW258897  12.720   9.407  10.993
19020SOL     OW58898   0.750   9.985   1.275
19020SOL    HW158899   0.736   9.913   1.337
19020SOL    HW258900   0.761   9.942   1.191
19021SOL     OW58901   1.178  12.525   2.952
19021SOL    HW158902   1.258  12.474   2.935
19021SOL    HW258903   1.157  12.565   2.868
19022SOL     OW58904   6.412   2.022   0.052
19022SOL    HW158905   6.441   1.942   0.008
19022SOL    HW258906   6.483   2.043   0.113
19023SOL     OW58907   2.608  10.888   2.206
19023SOL    HW158908   2.690  10.908   2.252
19023SOL    HW258909   2.540  10.924   2.264
19024SOL     OW58910   1.090   6.513  10.761
19024SOL    HW158911   1.052   6.546  10.842
19024SOL    HW258912   1.091   6.418  10.772
19025SOL     OW58913   7.521   5.018  14.619
19025SOL    HW158914   7.561   5.018  14.532
19025SOL    HW258915   7.538   5.105  14.654
19026SOL     OW58916  14.096   5.269   1.154
19026SOL    HW158917  14.103   5.277   1.059
19026SOL    HW258918  14.054   5.351   1.182
19027SOL     OW58919   8.070   2.364   6.407
19027SOL    HW158920   8.045   2.448   6.446
19027SOL    HW258921   8.025   2.298   6.460
19028SOL     OW58922  12.311  13.593   7.715
19028SOL    HW158923  12.220  13.616   7.698
19028SOL    HW258924  12.309  13.499   7.736
19029SOL     OW58925   6.110   5.584  14.126
19029SOL    HW158926   6.107   5.530  14.047
19029SOL    HW258927   6.199   5.621  14.126
19030SOL     OW58928  10.088   3.284   7.303
19030SOL    HW158929  10.146   3.207   7.301
19030SOL    HW258930  10.007   3.254   7.262
19031SOL     OW58931   1.477  10.836   1.537
19031SOL    HW158932   1.390  10.806   1.507
19031SOL    HW258933   1.519  10.756   1.570
19032SOL     OW58934   2.976  10.949   0.102
19032SOL    HW158935   2.893  10.984   0.134
19032SOL    HW258936   3.027  11.026   0.079
19033SOL     OW58937   6.998  13.753  14.748
19033SOL    HW158938   7.066  13.688  14.733
19033SOL    HW258939   6.921  13.719  14.703
19034SOL     OW58940   4.419   9.784   4.682
19034SOL    HW158941   4.501   9.793   4.634
19034SOL    HW258942   4.392   9.694   4.667
19035SOL     OW58943  11.515   7.586   7.061
19035SOL    HW158944  11.438   7.595   7.005
19035SOL    HW258945  11.580   7.542   7.006
19036SOL     OW58946   6.758   6.220   4.058
19036SOL    HW158947   6.687   6.211   3.994
19036SOL    HW258948   6.718   6.267   4.131
19037SOL     OW58949  10.998   6.918   3.497
19037SOL    HW158950  11.060   6.873   3.555
19037SOL    HW258951  10.951   6.979   3.554
19038SOL     OW58952  13.256   7.583   8.007
19038SOL    HW158953  13.316   7.523   8.051
19038SOL    HW258954  13.302   7.667   8.009
19039SOL     OW58955   5.884  12.305  12.568
19039SOL    HW158956   5.893  12.379  12.628
19039SOL    HW258957   5.965  12.256  12.579
19040SOL     OW58958  13.217   2.303  13.572
19040SOL    HW158959  13.254   2.220  13.603
19040SOL    HW258960  13.186   2.347  13.652
19041SOL     OW58961   7.578  13.568  11.885
19041SOL    HW158962   7.623  13.571  11.801
19041SOL    HW258963   7.556  13.476  11.897
19042SOL     OW58964   8.324   2.173   5.047
19042SOL    HW158965   8.385   2.232   5.002
19042SOL    HW258966   8.353   2.086   5.021
19043SOL     OW58967  12.019  12.031  12.212
19043SOL    HW158968  11.925  12.034  12.193
19043SOL    HW258969  12.053  11.962  12.155
19044SOL     OW58970   5.935   1.723  12.379
19044SOL    HW158971   5.894   1.688  12.300
19044SOL    HW258972   5.995   1.791  12.348
19045SOL     OW58973   5.042   7.861  14.456
19045SOL    HW158974   5.047   7.828  14.367
19045SOL    HW258975   4.970   7.812  14.496
19046SOL     OW58976   9.934  13.126  12.506
19046SOL    HW158977   9.949  13.046  12.455
19046SOL    HW258978  10.017  13.143  12.550
19047SOL     OW58979  10.292   3.286   5.746
19047SOL    HW158980  10.327   3.308   5.659
19047SOL    HW258981  10.292   3.191   5.749
19048SOL     OW58982   8.842   4.579   2.796
19048SOL    HW158983   8.785   4.504   2.809
19048SOL    HW258984   8.835   4.598   2.702
19049SOL     OW58985   3.719   6.406  14.018
19049SOL    HW158986   3.759   6.323  14.042
19049SOL    HW258987   3.625   6.392  14.033
19050SOL     OW58988   0.991   6.078  11.155
19050SOL    HW158989   0.976   6.159  11.202
19050SOL    HW258990   0.917   6.022  11.178
19051SOL     OW58991   5.517   4.451   9.364
19051SOL    HW158992   5.592   4.441   9.306
19051SOL    HW258993   5.451   4.391   9.330
19052SOL     OW58994   4.327  13.388   6.136
19052SOL    HW158995   4.418  13.417   6.141
19052SOL    HW258996   4.299  13.415   6.048
19053SOL     OW58997  12.196   8.541  13.658
19053SOL    HW158998  12.246   8.606  13.608
19053SOL    HW258999  12.252   8.519  13.732
19054SOL     OW59000   4.983  10.238  14.118
19054SOL    HW159001   5.041  10.172  14.157
19054SOL    HW259002   5.040  10.312  14.098
19055SOL     OW59003   8.926  14.014   4.894
19055SOL    HW159004   8.918  14.026   4.800
19055SOL    HW259005   8.962  14.097   4.926
19056SOL     OW59006   4.725   9.553  12.079
19056SOL    HW159007   4.666   9.502  12.023
19056SOL    HW259008   4.666   9.607  12.132
19057SOL     OW59009   3.514  13.207  11.415
19057SOL    HW159010   3.580  13.196  11.483
19057SOL    HW259011   3.454  13.134  11.428
19058SOL     OW59012   3.136   6.657   2.668
19058SOL    HW159013   3.140   6.562   2.661
19058SOL    HW259014   3.104   6.673   2.757
19059SOL     OW59015   3.009   8.947  11.266
19059SOL    HW159016   3.064   8.926  11.342
19059SOL    HW259017   3.050   8.903  11.193
19060SOL     OW59018   4.800   2.441   7.793
19060SOL    HW159019   4.797   2.533   7.820
19060SOL    HW259020   4.770   2.393   7.871
19061SOL     OW59021   4.179   2.843   7.528
19061SOL    HW159022   4.239   2.916   7.545
19061SOL    HW259023   4.154   2.853   7.436
19062SOL     OW59024   7.965   9.716   4.908
19062SOL    HW159025   7.872   9.700   4.894
19062SOL    HW259026   7.998   9.740   4.822
19063SOL     OW59027   8.727   9.522   6.310
19063SOL    HW159028   8.652   9.488   6.261
19063SOL    HW259029   8.791   9.545   6.243
19064SOL     OW59030  12.954  11.664   1.484
19064SOL    HW159031  12.918  11.714   1.410
19064SOL    HW259032  12.904  11.582   1.484
19065SOL     OW59033   1.733  12.968  11.661
19065SOL    HW159034   1.790  12.904  11.617
19065SOL    HW259035   1.781  13.050  11.657
19066SOL     OW59036   1.647  10.448   1.466
19066SOL    HW159037   1.720  10.410   1.417
19066SOL    HW259038   1.662  10.542   1.464
19067SOL     OW59039   8.705  11.454  12.904
19067SOL    HW159040   8.718  11.364  12.933
19067SOL    HW259041   8.613  11.473  12.923
19068SOL     OW59042  13.567   7.330   0.022
19068SOL    HW159043  13.620   7.326   0.101
19068SOL    HW259044  13.480   7.356   0.053
19069SOL     OW59045   8.508  10.191  10.577
19069SOL    HW159046   8.529  10.101  10.554
19069SOL    HW259047   8.429  10.211  10.527
19070SOL     OW59048   7.810   9.431   3.251
19070SOL    HW159049   7.738   9.377   3.218
19070SOL    HW259050   7.803   9.426   3.346
19071SOL     OW59051   9.475   8.182   4.928
19071SOL    HW159052   9.466   8.093   4.960
19071SOL    HW259053   9.442   8.237   5.000
19072SOL     OW59054   9.787   4.216   6.653
19072SOL    HW159055   9.859   4.189   6.709
19072SOL    HW259056   9.791   4.156   6.579
19073SOL     OW59057  13.965   8.097  10.941
19073SOL    HW159058  13.929   8.113  10.854
19073SOL    HW259059  13.971   8.184  10.981
19074SOL     OW59060   1.784   1.585   6.070
19074SOL    HW159061   1.694   1.610   6.092
19074SOL    HW259062   1.828   1.668   6.052
19075SOL     OW59063   7.830  14.338  11.494
19075SOL    HW159064   7.750  14.289  11.476
19075SOL    HW259065   7.899  14.288  11.450
19076SOL     OW59066   4.381  11.233  14.670
19076SOL    HW159067   4.454  11.266  14.722
19076SOL    HW259068   4.303  11.275  14.708
19077SOL     OW59069  10.950  11.352  12.927
19077SOL    HW159070  10.901  11.349  13.009
19077SOL    HW259071  10.910  11.423  12.878
19078SOL     OW59072   4.168  11.937   1.873
19078SOL    HW159073   4.226  11.891   1.934
19078SOL    HW259074   4.083  11.936   1.916
19079SOL     OW59075   1.107  11.836   3.479
19079SOL    HW159076   1.091  11.841   3.385
19079SOL    HW259077   1.174  11.769   3.489
19080SOL     OW59078   3.786  14.421  12.239
19080SOL    HW159079   3.762  14.378  12.321
19080SOL    HW259080   3.712  14.403  12.181
19081SOL     OW59081  12.675  10.281  13.884
19081SOL    HW159082  12.730  10.205  13.904
19081SOL    HW259083  12.737  10.347  13.851
19082SOL     OW59084   3.679  13.840  13.812
19082SOL    HW159085   3.757  13.835  13.757
19082SOL    HW259086   3.649  13.749  13.819
19083SOL     OW59087   9.343  11.515   1.595
19083SOL    HW159088   9.330  11.475   1.681
19083SOL    HW259089   9.265  11.490   1.545
19084SOL     OW59090   5.474   7.259   2.235
19084SOL    HW159091   5.527   7.339   2.234
19084SOL    HW259092   5.531   7.193   2.197
19085SOL     OW59093  13.733   5.630   9.548
19085SOL    HW159094  13.643   5.605   9.570
19085SOL    HW259095  13.775   5.547   9.525
19086SOL     OW59096   2.851  12.002   7.365
19086SOL    HW159097   2.797  12.074   7.399
19086SOL    HW259098   2.820  11.989   7.275
19087SOL     OW59099   9.526  13.992  11.808
19087SOL    HW159100   9.502  13.903  11.783
19087SOL    HW259101   9.490  14.047  11.738
19088SOL     OW59102   1.861   0.936  11.974
19088SOL    HW159103   1.912   1.013  11.999
19088SOL    HW259104   1.845   0.947  11.880
19089SOL     OW59105   2.699   4.023  12.406
19089SOL    HW159106   2.621   3.991  12.450
19089SOL    HW259107   2.771   3.976  12.448
19090SOL     OW59108  12.239   2.003  11.595
19090SOL    HW159109  12.172   2.010  11.663
19090SOL    HW259110  12.302   2.072  11.616
19091SOL     OW59111   4.845   9.103   9.413
19091SOL    HW159112   4.816   9.110   9.504
19091SOL    HW259113   4.764   9.107   9.361
19092SOL     OW59114  13.765  12.199   7.808
19092SOL    HW159115  13.785  12.226   7.718
19092SOL    HW259116  13.816  12.258   7.863
19093SOL     OW59117   9.239  13.330   2.491
19093SOL    HW159118   9.180  13.402   2.514
19093SOL    HW259119   9.327  13.368   2.494
19094SOL     OW59120   4.690  11.199   0.411
19094SOL    HW159121   4.649  11.113   0.403
19094SOL    HW259122   4.657  11.234   0.493
19095SOL     OW59123  14.187   4.552  10.142
19095SOL    HW159124  14.251   4.592  10.083
19095SOL    HW259125  14.190   4.607  10.221
19096SOL     OW59126   4.786   4.381   0.865
19096SOL    HW159127   4.852   4.430   0.817
19096SOL    HW259128   4.776   4.428   0.948
19097SOL     OW59129   8.702   1.049   1.439
19097SOL    HW159130   8.623   1.083   1.397
19097SOL    HW259131   8.689   0.954   1.441
19098SOL     OW59132   6.849  12.779   6.612
19098SOL    HW159133   6.876  12.870   6.600
19098SOL    HW259134   6.921  12.739   6.661
19099SOL     OW59135  11.085  11.141   0.144
19099SOL    HW159136  11.006  11.150   0.090
19099SOL    HW259137  11.154  11.119   0.081
19100SOL     OW59138  11.020   9.925  13.418
19100SOL    HW159139  11.004   9.834  13.393
19100SOL    HW259140  11.032   9.922  13.513
19101SOL     OW59141   0.558   7.690  13.604
19101SOL    HW159142   0.594   7.769  13.646
19101SOL    HW259143   0.583   7.700  13.512
19102SOL     OW59144   4.924   9.418   5.214
19102SOL    HW159145   4.955   9.420   5.123
19102SOL    HW259146   4.905   9.509   5.234
19103SOL     OW59147   7.517   5.450  10.303
19103SOL    HW159148   7.477   5.428  10.218
19103SOL    HW259149   7.442   5.463  10.361
19104SOL     OW59150  14.764  12.960   6.345
19104SOL    HW159151  14.742  12.935   6.435
19104SOL    HW259152  14.849  12.918   6.328
19105SOL     OW59153  10.175   5.474  10.538
19105SOL    HW159154  10.242   5.541  10.538
19105SOL    HW259155  10.204   5.411  10.605
19106SOL     OW59156  10.503   2.276   1.520
19106SOL    HW159157  10.554   2.357   1.513
19106SOL    HW259158  10.527   2.227   1.442
19107SOL     OW59159   5.883   2.878   9.755
19107SOL    HW159160   5.870   2.874   9.661
19107SOL    HW259161   5.823   2.813   9.791
19108SOL     OW59162   8.669   9.885   0.437
19108SOL    HW159163   8.680   9.889   0.342
19108SOL    HW259164   8.635   9.971   0.462
19109SOL     OW59165  14.532   3.309  13.621
19109SOL    HW159166  14.478   3.233  13.598
19109SOL    HW259167  14.593   3.318  13.548
19110SOL     OW59168   7.317  10.693   5.486
19110SOL    HW159169   7.354  10.733   5.408
19110SOL    HW259170   7.250  10.755   5.515
19111SOL     OW59171   4.011  12.321   8.217
19111SOL    HW159172   4.037  12.413   8.225
19111SOL    HW259173   3.940  12.321   8.153
19112SOL     OW59174   6.477   2.349   8.136
19112SOL    HW159175   6.504   2.291   8.207
19112SOL    HW259176   6.560   2.380   8.097
19113SOL     OW59177   5.661  10.715  14.817
19113SOL    HW159178   5.585  10.675  14.774
19113SOL    HW259179   5.737  10.673  14.776
19114SOL     OW59180  14.857  12.843   0.170
19114SOL    HW159181  14.871  12.751   0.192
19114SOL    HW259182   0.046  12.862   0.103
19115SOL     OW59183   2.798   7.996   3.152
19115SOL    HW159184   2.823   8.055   3.223
19115SOL    HW259185   2.863   7.925   3.156
19116SOL     OW59186   9.487  14.118  11.567
19116SOL    HW159187   9.531  14.147  11.487
19116SOL    HW259188   9.408  14.073  11.537
19117SOL     OW59189   7.853   4.664  11.523
19117SOL    HW159190   7.817   4.619  11.446
19117SOL    HW259191   7.916   4.602  11.559
19118SOL     OW59192  12.772   6.303  11.000
19118SOL    HW159193  12.857   6.347  10.998
19118SOL    HW259194  12.743   6.302  10.909
19119SOL     OW59195  11.232   8.209  14.728
19119SOL    HW159196  11.321   8.240  14.710
19119SOL    HW259197  11.178   8.255  14.665
19120SOL     OW59198   6.018   4.180  12.679
19120SOL    HW159199   5.986   4.224  12.758
19120SOL    HW259200   5.979   4.229  12.607
19121SOL     OW59201   2.022   6.139  10.914
19121SOL    HW159202   2.036   6.073  10.981
19121SOL    HW259203   2.101   6.193  10.916
19122SOL     OW59204   7.804   6.831  10.166
19122SOL    HW159205   7.754   6.775  10.106
19122SOL    HW259206   7.893   6.794  10.165
19123SOL     OW59207   1.382   3.177   4.508
19123SOL    HW159208   1.476   3.167   4.493
19123SOL    HW259209   1.364   3.268   4.483
19124SOL     OW59210   3.377   3.639  11.287
19124SOL    HW159211   3.461   3.682  11.272
19124SOL    HW259212   3.378   3.563  11.229
19125SOL     OW59213   1.278   3.439   7.284
19125SOL    HW159214   1.273   3.516   7.227
19125SOL    HW259215   1.337   3.465   7.354
19126SOL     OW59216   9.649  14.824   1.938
19126SOL    HW159217   9.584  14.841   2.007
19126SOL    HW259218   9.733  14.844   1.980
19127SOL     OW59219   6.104  12.121   9.248
19127SOL    HW159220   6.115  12.170   9.330
19127SOL    HW259221   6.009  12.106   9.243
19128SOL     OW59222   2.656   7.980   4.308
19128SOL    HW159223   2.727   7.925   4.276
19128SOL    HW259224   2.582   7.920   4.319
19129SOL     OW59225   9.790   4.954   1.655
19129SOL    HW159226   9.873   4.961   1.702
19129SOL    HW259227   9.791   5.027   1.593
19130SOL     OW59228   7.249   4.681  12.591
19130SOL    HW159229   7.240   4.606  12.532
19130SOL    HW259230   7.261   4.756  12.533
19131SOL     OW59231   9.139  14.674   4.524
19131SOL    HW159232   9.159  14.757   4.568
19131SOL    HW259233   9.108  14.700   4.437
19132SOL     OW59234   5.470   9.730   1.435
19132SOL    HW159235   5.531   9.663   1.405
19132SOL    HW259236   5.483   9.804   1.375
19133SOL     OW59237   8.716   1.879   9.267
19133SOL    HW159238   8.746   1.969   9.254
19133SOL    HW259239   8.672   1.880   9.352
19134SOL     OW59240   2.249   4.451   5.836
19134SOL    HW159241   2.330   4.449   5.785
19134SOL    HW259242   2.203   4.371   5.812
19135SOL     OW59243   4.926   0.030  11.223
19135SOL    HW159244   4.913  14.824  11.176
19135SOL    HW259245   4.923   0.098  11.155
19136SOL     OW59246   2.776   0.145   5.836
19136SOL    HW159247   2.829   0.153   5.758
19136SOL    HW259248   2.722   0.067   5.821
19137SOL     OW59249   5.201   3.982  13.092
19137SOL    HW159250   5.109   3.968  13.115
19137SOL    HW259251   5.223   3.906  13.038
19138SOL     OW59252   4.067   7.753  12.756
19138SOL    HW159253   4.053   7.697  12.680
19138SOL    HW259254   4.119   7.826  12.724
19139SOL     OW59255   2.898  11.950   8.762
19139SOL    HW159256   2.888  11.855   8.763
19139SOL    HW259257   2.895  11.976   8.854
19140SOL     OW59258  13.320   1.755  10.658
19140SOL    HW159259  13.351   1.842  10.636
19140SOL    HW259260  13.379   1.696  10.610
19141SOL     OW59261   7.118   4.438   6.274
19141SOL    HW159262   7.122   4.364   6.214
19141SOL    HW259263   7.080   4.401   6.354
19142SOL     OW59264  12.344   8.215   6.199
19142SOL    HW159265  12.373   8.225   6.290
19142SOL    HW259266  12.376   8.128   6.173
19143SOL     OW59267   2.051   5.682   1.365
19143SOL    HW159268   2.116   5.743   1.330
19143SOL    HW259269   1.967   5.725   1.349
19144SOL     OW59270   5.340   6.414   2.276
19144SOL    HW159271   5.330   6.507   2.298
19144SOL    HW259272   5.285   6.402   2.199
19145SOL     OW59273   1.984   4.430   7.885
19145SOL    HW159274   1.916   4.369   7.915
19145SOL    HW259275   1.969   4.509   7.937
19146SOL     OW59276   9.549   2.205   5.622
19146SOL    HW159277   9.518   2.286   5.664
19146SOL    HW259278   9.528   2.136   5.686
19147SOL     OW59279   7.520  13.959  11.609
19147SOL    HW159280   7.556  14.016  11.677
19147SOL    HW259281   7.441  13.922  11.648
19148SOL     OW59282  14.491   9.969  10.591
19148SOL    HW159283  14.513  10.033  10.659
19148SOL    HW259284  14.481   9.886  10.638
19149SOL     OW59285  13.161   6.196   9.139
19149SOL    HW159286  13.140   6.143   9.216
19149SOL    HW259287  13.107   6.159   9.069
19150SOL     OW59288  12.018   7.237   0.035
19150SOL    HW159289  12.052   7.313   0.082
19150SOL    HW259290  12.071   7.163   0.067
19151SOL     OW59291   4.025   1.756  13.651
19151SOL    HW159292   4.060   1.834  13.608
19151SOL    HW259293   3.930   1.766  13.647
19152SOL     OW59294  10.501   0.879   6.940
19152SOL    HW159295  10.542   0.807   6.890
19152SOL    HW259296  10.480   0.840   7.025
19153SOL     OW59297  13.884   3.615   2.571
19153SOL    HW159298  13.913   3.672   2.642
19153SOL    HW259299  13.892   3.669   2.493
19154SOL     OW59300   3.159  12.322  14.630
19154SOL    HW159301   3.212  12.265  14.576
19154SOL    HW259302   3.222  12.366  14.688
19155SOL     OW59303   6.370  10.884   4.367
19155SOL    HW159304   6.425  10.832   4.426
19155SOL    HW259305   6.420  10.888   4.285
19156SOL     OW59306  14.789   3.691   9.988
19156SOL    HW159307  14.817   3.606  10.020
19156SOL    HW259308  14.733   3.726  10.057
19157SOL     OW59309   4.028   5.810  11.473
19157SOL    HW159310   4.086   5.885  11.458
19157SOL    HW259311   3.982   5.798  11.389
19158SOL     OW59312   2.644  13.533   4.462
19158SOL    HW159313   2.552  13.514   4.479
19158SOL    HW259314   2.644  13.582   4.380
19159SOL     OW59315  10.618   3.694   8.405
19159SOL    HW159316  10.559   3.721   8.335
19159SOL    HW259317  10.688   3.646   8.361
19160SOL     OW59318  13.666   1.252   8.306
19160SOL    HW159319  13.708   1.182   8.255
19160SOL    HW259320  13.642   1.210   8.388
19161SOL     OW59321  10.737  14.567   7.690
19161SOL    HW159322  10.724  14.513   7.612
19161SOL    HW259323  10.823  14.605   7.678
19162SOL     OW59324   0.027   9.931   4.449
19162SOL    HW159325   0.087  10.005   4.443
19162SOL    HW259326  14.817   9.968   4.430
19163SOL     OW59327   5.093   3.378   8.941
19163SOL    HW159328   4.999   3.391   8.934
19163SOL    HW259329   5.103   3.313   9.011
19164SOL     OW59330   9.887   5.215   3.695
19164SOL    HW159331   9.933   5.181   3.772
19164SOL    HW259332   9.937   5.292   3.669
19165SOL     OW59333   7.281  12.184   5.358
19165SOL    HW159334   7.280  12.174   5.262
19165SOL    HW259335   7.312  12.273   5.372
19166SOL     OW59336   1.223   9.200   5.711
19166SOL    HW159337   1.280   9.175   5.638
19166SOL    HW259338   1.142   9.151   5.697
19167SOL     OW59339   6.676  14.177  14.160
19167SOL    HW159340   6.676  14.269  14.134
19167SOL    HW259341   6.608  14.170  14.226
19168SOL     OW59342  10.135   4.172   1.024
19168SOL    HW159343  10.062   4.167   1.085
19168SOL    HW259344  10.209   4.203   1.077
19169SOL     OW59345   7.183   4.717   4.468
19169SOL    HW159346   7.136   4.732   4.386
19169SOL    HW259347   7.125   4.751   4.536
19170SOL     OW59348  11.644   8.216   3.216
19170SOL    HW159349  11.725   8.267   3.206
19170SOL    HW259350  11.621   8.227   3.308
19171SOL     OW59351   4.404   4.583   4.052
19171SOL    HW159352   4.379   4.492   4.037
19171SOL    HW259353   4.476   4.599   3.991
19172SOL     OW59354   6.007  13.304   9.256
19172SOL    HW159355   6.091  13.260   9.247
19172SOL    HW259356   6.022  13.372   9.322
19173SOL     OW59357  14.584  10.884   4.329
19173SOL    HW159358  14.494  10.865   4.352
19173SOL    HW259359  14.583  10.974   4.296
19174SOL     OW59360  14.748   0.021   5.669
19174SOL    HW159361  14.752  14.804   5.652
19174SOL    HW259362  14.834   0.042   5.707
19175SOL     OW59363   8.532   4.628   4.571
19175SOL    HW159364   8.486   4.640   4.488
19175SOL    HW259365   8.556   4.535   4.571
19176SOL     OW59366   2.943   0.196   7.482
19176SOL    HW159367   2.922   0.258   7.412
19176SOL    HW259368   2.985   0.123   7.436
19177SOL     OW59369   9.260   3.365  11.703
19177SOL    HW159370   9.278   3.456  11.678
19177SOL    HW259371   9.346   3.323  11.705
19178SOL     OW59372   7.653   5.478   9.889
19178SOL    HW159373   7.727   5.538   9.880
19178SOL    HW259374   7.686   5.394   9.854
19179SOL     OW59375  10.758   8.408  14.630
19179SOL    HW159376  10.711   8.332  14.596
19179SOL    HW259377  10.725   8.482  14.580
19180SOL     OW59378  10.561  13.277   9.527
19180SOL    HW159379  10.519  13.222   9.594
19180SOL    HW259380  10.489  13.305   9.471
19181SOL     OW59381  10.790   6.427   1.629
19181SOL    HW159382  10.773   6.498   1.691
19181SOL    HW259383  10.715   6.368   1.640
19182SOL     OW59384   4.787   5.379   1.809
19182SOL    HW159385   4.801   5.431   1.888
19182SOL    HW259386   4.784   5.443   1.738
19183SOL     OW59387   9.935  11.114  14.018
19183SOL    HW159388  10.014  11.067  14.046
19183SOL    HW259389   9.932  11.100  13.923
19184SOL     OW59390   4.766   2.375   5.208
19184SOL    HW159391   4.685   2.391   5.159
19184SOL    HW259392   4.831   2.354   5.141
19185SOL     OW59393  14.737  11.866   8.789
19185SOL    HW159394  14.749  11.886   8.882
19185SOL    HW259395  14.799  11.796   8.771
19186SOL     OW59396   0.320  10.634  14.686
19186SOL    HW159397   0.310  10.723  14.718
19186SOL    HW259398   0.299  10.579  14.761
19187SOL     OW59399   8.472  14.720   0.723
19187SOL    HW159400   8.397  14.671   0.690
19187SOL    HW259401   8.437  14.773   0.794
19188SOL     OW59402   1.172   8.552   0.495
19188SOL    HW159403   1.120   8.543   0.575
19188SOL    HW259404   1.262   8.560   0.527
19189SOL     OW59405   0.518   7.453   4.376
19189SOL    HW159406   0.427   7.477   4.392
19189SOL    HW259407   0.527   7.457   4.281
19190SOL     OW59408   2.857   8.241   3.487
19190SOL    HW159409   2.870   8.148   3.469
19190SOL    HW259410   2.868   8.250   3.582
19191SOL     OW59411   7.232   2.884  12.688
19191SOL    HW159412   7.155   2.939  12.673
19191SOL    HW259413   7.260   2.904  12.777
19192SOL     OW59414   4.793   7.643  13.554
19192SOL    HW159415   4.752   7.558  13.566
19192SOL    HW259416   4.862   7.628  13.489
19193SOL     OW59417   9.087   0.864  13.285
19193SOL    HW159418   9.018   0.860  13.351
19193SOL    HW259419   9.042   0.888  13.204
19194SOL     OW59420   1.088   9.159   0.830
19194SOL    HW159421   1.113   9.230   0.771
19194SOL    HW259422   1.151   9.164   0.902
19195SOL     OW59423   2.015  12.472   1.988
19195SOL    HW159424   1.996  12.468   1.894
19195SOL    HW259425   2.043  12.562   2.003
19196SOL     OW59426  10.519  14.381   5.279
19196SOL    HW159427  10.570  14.393   5.360
19196SOL    HW259428  10.541  14.457   5.225
19197SOL     OW59429   6.048  12.559   9.567
19197SOL    HW159430   6.097  12.639   9.546
19197SOL    HW259431   5.965  12.570   9.521
19198SOL     OW59432   3.528   9.855   4.140
19198SOL    HW159433   3.550   9.773   4.183
19198SOL    HW259434   3.554   9.923   4.203
19199SOL     OW59435   6.501   5.235   2.933
19199SOL    HW159436   6.592   5.207   2.937
19199SOL    HW259437   6.471   5.235   3.024
19200SOL     OW59438   2.888   3.463  13.579
19200SOL    HW159439   2.952   3.531  13.556
19200SOL    HW259440   2.904   3.445  13.671
19201SOL     OW59441   1.790   8.389   3.127
19201SOL    HW159442   1.750   8.412   3.043
19201SOL    HW259443   1.853   8.459   3.143
19202SOL     OW59444   8.973   6.169  12.370
19202SOL    HW159445   8.939   6.248  12.328
19202SOL    HW259446   9.063   6.161  12.337
19203SOL     OW59447   8.995   4.166  11.453
19203SOL    HW159448   9.080   4.210  11.453
19203SOL    HW259449   8.972   4.156  11.545
19204SOL     OW59450   5.973   8.706  14.538
19204SOL    HW159451   5.935   8.704  14.450
19204SOL    HW259452   5.981   8.799  14.559
19205SOL     OW59453   9.457   3.581  10.174
19205SOL    HW159454   9.547   3.610  10.186
19205SOL    HW259455   9.423   3.633  10.102
19206SOL     OW59456   0.573   5.577  11.438
19206SOL    HW159457   0.572   5.672  11.440
19206SOL    HW259458   0.497   5.550  11.488
19207SOL     OW59459   1.025   5.925  10.806
19207SOL    HW159460   0.985   5.994  10.858
19207SOL    HW259461   0.957   5.901  10.742
19208SOL     OW59462   6.724  13.675   6.775
19208SOL    HW159463   6.759  13.764   6.781
19208SOL    HW259464   6.712  13.647   6.866
19209SOL     OW59465  12.817   6.681   8.331
19209SOL    HW159466  12.772   6.618   8.388
19209SOL    HW259467  12.885   6.719   8.387
19210SOL     OW59468   4.084   2.644  11.231
19210SOL    HW159469   4.036   2.604  11.304
19210SOL    HW259470   4.088   2.737  11.254
19211SOL     OW59471   8.041   8.796   0.598
19211SOL    HW159472   7.994   8.868   0.557
19211SOL    HW259473   8.111   8.775   0.537
19212SOL     OW59474   2.151  11.457  14.568
19212SOL    HW159475   2.161  11.405  14.488
19212SOL    HW259476   2.191  11.403  14.637
19213SOL     OW59477   5.644   4.828   9.599
19213SOL    HW159478   5.622   4.735   9.596
19213SOL    HW259479   5.564   4.873   9.572
19214SOL     OW59480   6.172  12.396   1.221
19214SOL    HW159481   6.080  12.371   1.229
19214SOL    HW259482   6.219  12.314   1.217
19215SOL     OW59483  13.683   7.757   5.884
19215SOL    HW159484  13.685   7.728   5.793
19215SOL    HW259485  13.597   7.798   5.893
19216SOL     OW59486   9.703   8.106   7.730
19216SOL    HW159487   9.734   8.026   7.774
19216SOL    HW259488   9.781   8.140   7.685
19217SOL     OW59489   6.271  12.919  11.024
19217SOL    HW159490   6.190  12.939  11.071
19217SOL    HW259491   6.340  12.961  11.075
19218SOL     OW59492   5.795   7.883   1.368
19218SOL    HW159493   5.754   7.969   1.361
19218SOL    HW259494   5.814   7.873   1.461
19219SOL     OW59495  10.344   6.891   3.969
19219SOL    HW159496  10.323   6.933   4.052
19219SOL    HW259497  10.438   6.905   3.957
19220SOL     OW59498  13.817   7.615  10.311
19220SOL    HW159499  13.727   7.586  10.297
19220SOL    HW259500  13.865   7.582  10.235
19221SOL     OW59501  12.945   1.441  13.997
19221SOL    HW159502  12.870   1.385  14.014
19221SOL    HW259503  12.953   1.495  14.076
19222SOL     OW59504   5.332  13.609   0.704
19222SOL    HW159505   5.340  13.533   0.762
19222SOL    HW259506   5.368  13.578   0.620
19223SOL     OW59507   4.109  10.002  12.838
19223SOL    HW159508   4.136   9.985  12.748
19223SOL    HW259509   4.026  10.049  12.830
19224SOL     OW59510   4.680   9.115  10.889
19224SOL    HW159511   4.711   9.192  10.841
19224SOL    HW259512   4.753   9.053  10.884
19225SOL     OW59513  13.803  11.974   5.977
19225SOL    HW159514  13.747  11.896   5.976
19225SOL    HW259515  13.745  12.045   5.951
19226SOL     OW59516   3.566  11.652   1.723
19226SOL    HW159517   3.644  11.644   1.669
19226SOL    HW259518   3.540  11.561   1.740
19227SOL     OW59519   6.600   2.603   6.133
19227SOL    HW159520   6.673   2.570   6.081
19227SOL    HW259521   6.586   2.692   6.100
19228SOL     OW59522  12.109   8.003   6.915
19228SOL    HW159523  12.142   8.016   6.826
19228SOL    HW259524  12.170   7.942   6.955
19229SOL     OW59525  12.218  14.659   1.210
19229SOL    HW159526  12.272  14.642   1.133
19229SOL    HW259527  12.252  14.599   1.277
19230SOL     OW59528   7.563  11.220  10.715
19230SOL    HW159529   7.507  11.293  10.688
19230SOL    HW259530   7.628  11.260  10.772
19231SOL     OW59531  11.947   0.889   6.258
19231SOL    HW159532  11.951   0.916   6.350
19231SOL    HW259533  11.998   0.956   6.212
19232SOL     OW59534  14.709  11.533   3.511
19232SOL    HW159535  14.629  11.497   3.550
19232SOL    HW259536  14.689  11.626   3.497
19233SOL     OW59537   8.146  10.212  12.485
19233SOL    HW159538   8.177  10.147  12.548
19233SOL    HW259539   8.143  10.166  12.401
19234SOL     OW59540   9.031  13.188  11.461
19234SOL    HW159541   8.949  13.163  11.419
19234SOL    HW259542   9.004  13.230  11.543
19235SOL     OW59543  13.833  14.542   9.282
19235SOL    HW159544  13.802  14.613   9.338
19235SOL    HW259545  13.821  14.463   9.335
19236SOL     OW59546  12.198   2.454   4.912
19236SOL    HW159547  12.234   2.367   4.898
19236SOL    HW259548  12.161   2.479   4.827
19237SOL     OW59549   9.301   7.800  11.094
19237SOL    HW159550   9.240   7.822  11.023
19237SOL    HW259551   9.260   7.836  11.173
19238SOL     OW59552  11.237   3.233  11.470
19238SOL    HW159553  11.325   3.201  11.452
19238SOL    HW259554  11.221   3.299  11.403
19239SOL     OW59555  12.648  14.847   1.925
19239SOL    HW159556  12.661  14.760   1.962
19239SOL    HW259557  12.728  14.864   1.875
19240SOL     OW59558   1.041   1.171   0.183
19240SOL    HW159559   0.978   1.159   0.253
19240SOL    HW259560   1.016   1.107   0.116
19241SOL     OW59561   2.036   2.496  12.921
19241SOL    HW159562   2.123   2.532  12.906
19241SOL    HW259563   1.982   2.571  12.947
19242SOL     OW59564  10.408   7.347   3.912
19242SOL    HW159565  10.317   7.329   3.888
19242SOL    HW259566  10.404   7.380   4.001
19243SOL     OW59567   5.101   0.979  11.309
19243SOL    HW159568   5.021   0.995  11.360
19243SOL    HW259569   5.139   1.066  11.299
19244SOL     OW59570   7.877   8.721   2.556
19244SOL    HW159571   7.817   8.667   2.607
19244SOL    HW259572   7.886   8.802   2.606
19245SOL     OW59573  12.146  13.784   5.023
19245SOL    HW159574  12.120  13.818   4.937
19245SOL    HW259575  12.066  13.791   5.076
19246SOL     OW59576   1.705   0.487   5.545
19246SOL    HW159577   1.657   0.560   5.506
19246SOL    HW259578   1.750   0.446   5.471
19247SOL     OW59579  10.260   9.278   4.819
19247SOL    HW159580  10.178   9.232   4.799
19247SOL    HW259581  10.234   9.369   4.831
19248SOL     OW59582  11.566  12.392  12.303
19248SOL    HW159583  11.544  12.320  12.362
19248SOL    HW259584  11.541  12.471  12.351
19249SOL     OW59585   6.678  11.680   4.259
19249SOL    HW159586   6.585  11.693   4.238
19249SOL    HW259587   6.722  11.679   4.175
19250SOL     OW59588  13.492   2.765  13.242
19250SOL    HW159589  13.399   2.748  13.258
19250SOL    HW259590  13.504   2.742  13.150
19251SOL     OW59591  13.562  12.840  11.038
19251SOL    HW159592  13.491  12.854  10.976
19251SOL    HW259593  13.580  12.747  11.034
19252SOL     OW59594   9.465   6.277   6.890
19252SOL    HW159595   9.525   6.351   6.890
19252SOL    HW259596   9.520   6.201   6.874
19253SOL     OW59597  13.861   9.083   6.109
19253SOL    HW159598  13.899   9.007   6.153
19253SOL    HW259599  13.826   9.137   6.180
19254SOL     OW59600   2.508  12.094   1.972
19254SOL    HW159601   2.489  12.155   2.044
19254SOL    HW259602   2.485  12.008   2.007
19255SOL     OW59603   7.538  11.053   1.064
19255SOL    HW159604   7.470  11.012   1.117
19255SOL    HW259605   7.610  11.069   1.126
19256SOL     OW59606  14.631   2.250  14.080
19256SOL    HW159607  14.713   2.250  14.030
19256SOL    HW259608  14.622   2.341  14.111
19257SOL     OW59609   2.589   9.190   9.186
19257SOL    HW159610   2.556   9.164   9.272
19257SOL    HW259611   2.520   9.244   9.149
19258SOL     OW59612  14.270   8.435   2.248
19258SOL    HW159613  14.347   8.379   2.257
19258SOL    HW259614  14.303   8.524   2.263
19259SOL     OW59615  14.179   7.782   5.420
19259SOL    HW159616  14.153   7.691   5.409
19259SOL    HW259617  14.183   7.794   5.515
19260SOL     OW59618   3.571  12.425   9.420
19260SOL    HW159619   3.507  12.426   9.348
19260SOL    HW259620   3.656  12.425   9.376
19261SOL     OW59621   8.431  10.450   5.076
19261SOL    HW159622   8.391  10.510   5.012
19261SOL    HW259623   8.361  10.390   5.099
19262SOL     OW59624   7.822   9.147   1.005
19262SOL    HW159625   7.790   9.167   0.917
19262SOL    HW259626   7.844   9.232   1.043
19263SOL     OW59627   9.069   2.093   9.052
19263SOL    HW159628   9.146   2.064   9.003
19263SOL    HW259629   9.072   2.188   9.047
19264SOL     OW59630   9.986   3.911  13.839
19264SOL    HW159631   9.919   3.843  13.850
19264SOL    HW259632  10.047   3.874  13.775
19265SOL     OW59633   7.077   6.197   9.755
19265SOL    HW159634   7.130   6.232   9.683
19265SOL    HW259635   7.003   6.154   9.712
19266SOL     OW59636  12.137   9.507   0.085
19266SOL    HW159637  12.053   9.495   0.041
19266SOL    HW259638  12.122   9.580   0.146
19267SOL     OW59639  14.783   4.056  12.721
19267SOL    HW159640  14.715   4.116  12.749
19267SOL    HW259641  14.812   4.013  12.801
19268SOL     OW59642  14.594   4.215  10.404
19268SOL    HW159643  14.587   4.133  10.357
19268SOL    HW259644  14.686   4.220  10.430
19269SOL     OW59645   4.176   1.737   9.979
19269SOL    HW159646   4.184   1.647  10.011
19269SOL    HW259647   4.100   1.735   9.920
19270SOL     OW59648   1.981   9.848  12.291
19270SOL    HW159649   1.975   9.840  12.196
19270SOL    HW259650   1.894   9.822  12.323
19271SOL     OW59651   3.961   9.879  14.434
19271SOL    HW159652   3.892   9.856  14.497
19271SOL    HW259653   3.981   9.797  14.390
19272SOL     OW59654   1.397   1.869   3.249
19272SOL    HW159655   1.468   1.927   3.220
19272SOL    HW259656   1.369   1.823   3.170
19273SOL     OW59657   2.041   4.753   3.549
19273SOL    HW159658   1.995   4.734   3.631
19273SOL    HW259659   2.054   4.667   3.509
19274SOL     OW59660  10.696   2.762   0.333
19274SOL    HW159661  10.616   2.800   0.297
19274SOL    HW259662  10.721   2.821   0.404
19275SOL     OW59663   8.843   4.813   2.960
19275SOL    HW159664   8.863   4.721   2.940
19275SOL    HW259665   8.900   4.863   2.901
19276SOL     OW59666   4.033   6.644   4.219
19276SOL    HW159667   4.096   6.602   4.277
19276SOL    HW259668   4.053   6.610   4.132
19277SOL     OW59669   5.302  11.033   3.633
19277SOL    HW159670   5.321  10.945   3.599
19277SOL    HW259671   5.206  11.039   3.631
19278SOL     OW59672   9.212  14.354  11.449
19278SOL    HW159673   9.237  14.374  11.539
19278SOL    HW259674   9.289  14.376  11.397
19279SOL     OW59675   2.789   2.015  10.797
19279SOL    HW159676   2.850   1.966  10.742
19279SOL    HW259677   2.830   2.101  10.808
19280SOL     OW59678   1.164   2.076   1.257
19280SOL    HW159679   1.154   2.041   1.346
19280SOL    HW259680   1.117   2.013   1.202
19281SOL     OW59681   2.171  10.516   8.393
19281SOL    HW159682   2.237  10.517   8.324
19281SOL    HW259683   2.111  10.587   8.371
19282SOL     OW59684  12.173   1.292   3.830
19282SOL    HW159685  12.217   1.224   3.882
19282SOL    HW259686  12.084   1.259   3.818
19283SOL     OW59687   4.960   5.299  13.133
19283SOL    HW159688   4.875   5.257  13.131
19283SOL    HW259689   4.977   5.323  13.042
19284SOL     OW59690  11.014  11.192   8.431
19284SOL    HW159691  10.935  11.182   8.377
19284SOL    HW259692  11.078  11.134   8.390
19285SOL     OW59693   5.744  10.616   9.914
19285SOL    HW159694   5.747  10.526   9.945
19285SOL    HW259695   5.698  10.611   9.831
19286SOL     OW59696  10.512   0.556   9.416
19286SOL    HW159697  10.506   0.522   9.326
19286SOL    HW259698  10.564   0.491   9.462
19287SOL     OW59699  12.869  13.303  13.888
19287SOL    HW159700  12.897  13.375  13.944
19287SOL    HW259701  12.790  13.268  13.930
19288SOL     OW59702  11.589  12.601  10.295
19288SOL    HW159703  11.630  12.535  10.351
19288SOL    HW259704  11.537  12.551  10.233
19289SOL     OW59705  12.962   0.739  11.128
19289SOL    HW159706  12.918   0.779  11.203
19289SOL    HW259707  12.896   0.740  11.058
19290SOL     OW59708  13.872   7.256  12.657
19290SOL    HW159709  13.902   7.189  12.595
19290SOL    HW259710  13.878   7.338  12.608
19291SOL     OW59711   6.347   7.125   6.894
19291SOL    HW159712   6.277   7.111   6.957
19291SOL    HW259713   6.403   7.048   6.902
19292SOL     OW59714  13.049   4.397  10.388
19292SOL    HW159715  13.096   4.476  10.359
19292SOL    HW259716  12.972   4.393  10.331
19293SOL     OW59717   3.602  13.823  12.382
19293SOL    HW159718   3.678  13.766  12.394
19293SOL    HW259719   3.526  13.767  12.402
19294SOL     OW59720   3.770  13.887  13.221
19294SOL    HW159721   3.695  13.946  13.210
19294SOL    HW259722   3.742  13.825  13.289
19295SOL     OW59723   7.466   1.916   8.513
19295SOL    HW159724   7.560   1.917   8.528
19295SOL    HW259725   7.456   1.932   8.419
19296SOL     OW59726  11.577   5.581   3.449
19296SOL    HW159727  11.637   5.514   3.482
19296SOL    HW259728  11.489   5.546   3.464
19297SOL     OW59729  12.243   1.387   9.522
19297SOL    HW159730  12.148   1.385   9.529
19297SOL    HW259731  12.261   1.462   9.464
19298SOL     OW59732   9.147   2.171   7.984
19298SOL    HW159733   9.082   2.204   7.921
19298SOL    HW259734   9.230   2.174   7.936
19299SOL     OW59735  12.617  12.928   5.128
19299SOL    HW159736  12.622  12.836   5.102
19299SOL    HW259737  12.582  12.972   5.051
19300SOL     OW59738   0.258   3.957   8.916
19300SOL    HW159739   0.302   3.878   8.949
19300SOL    HW259740   0.323   3.998   8.858
19301SOL     OW59741   0.399   1.709   2.969
19301SOL    HW159742   0.427   1.636   2.914
19301SOL    HW259743   0.344   1.762   2.911
19302SOL     OW59744   8.349   5.889   9.022
19302SOL    HW159745   8.428   5.836   9.014
19302SOL    HW259746   8.309   5.858   9.104
19303SOL     OW59747  11.516  12.138   0.602
19303SOL    HW159748  11.485  12.068   0.544
19303SOL    HW259749  11.439  12.165   0.650
19304SOL     OW59750  10.507  12.118   8.650
19304SOL    HW159751  10.574  12.152   8.709
19304SOL    HW259752  10.426  12.121   8.700
19305SOL     OW59753  10.495  14.342   6.430
19305SOL    HW159754  10.539  14.396   6.496
19305SOL    HW259755  10.544  14.358   6.349
19306SOL     OW59756   9.876   1.761   9.555
19306SOL    HW159757   9.840   1.735   9.640
19306SOL    HW259758   9.800   1.788   9.503
19307SOL     OW59759   1.190   3.846   5.636
19307SOL    HW159760   1.227   3.916   5.690
19307SOL    HW259761   1.103   3.830   5.673
19308SOL     OW59762  13.772   4.224   4.232
19308SOL    HW159763  13.820   4.305   4.217
19308SOL    HW259764  13.685   4.241   4.196
19309SOL     OW59765   5.985   5.427   9.097
19309SOL    HW159766   6.053   5.484   9.060
19309SOL    HW259767   5.967   5.464   9.183
19310SOL     OW59768   1.112  14.491   9.462
19310SOL    HW159769   1.064  14.483   9.544
19310SOL    HW259770   1.057  14.448   9.397
19311SOL     OW59771   0.658   8.740   9.452
19311SOL    HW159772   0.673   8.783   9.536
19311SOL    HW259773   0.742   8.748   9.406
19312SOL     OW59774   4.550   5.346   1.637
19312SOL    HW159775   4.631   5.342   1.687
19312SOL    HW259776   4.484   5.372   1.701
19313SOL     OW59777   6.857   6.990   8.723
19313SOL    HW159778   6.780   7.042   8.701
19313SOL    HW259779   6.823   6.913   8.768
19314SOL     OW59780  14.044  13.786   9.384
19314SOL    HW159781  14.085  13.725   9.322
19314SOL    HW259782  13.986  13.731   9.437
19315SOL     OW59783   8.563  10.098  11.712
19315SOL    HW159784   8.576  10.137  11.798
19315SOL    HW259785   8.549  10.172  11.653
19316SOL     OW59786   5.903   6.486   1.428
19316SOL    HW159787   5.942   6.563   1.387
19316SOL    HW259788   5.809   6.499   1.419
19317SOL     OW59789   3.116   7.438   7.440
19317SOL    HW159790   3.103   7.374   7.509
19317SOL    HW259791   3.209   7.432   7.419
19318SOL     OW59792   7.586  14.064   5.705
19318SOL    HW159793   7.634  14.024   5.777
19318SOL    HW259794   7.494  14.058   5.731
19319SOL     OW59795   9.720   8.907   2.273
19319SOL    HW159796   9.734   8.986   2.326
19319SOL    HW259797   9.656   8.856   2.323
19320SOL     OW59798  12.389   1.953  14.361
19320SOL    HW159799  12.309   1.924  14.407
19320SOL    HW259800  12.456   1.954  14.429
19321SOL     OW59801   4.139  12.444  11.796
19321SOL    HW159802   4.183  12.528  11.778
19321SOL    HW259803   4.125  12.445  11.891
19322SOL     OW59804   7.644   1.522  11.844
19322SOL    HW159805   7.566   1.534  11.897
19322SOL    HW259806   7.714   1.566  11.892
19323SOL     OW59807   3.491   2.555   3.274
19323SOL    HW159808   3.448   2.565   3.189
19323SOL    HW259809   3.542   2.474   3.266
19324SOL     OW59810   8.084  14.039   4.819
19324SOL    HW159811   8.058  13.984   4.892
19324SOL    HW259812   8.027  14.116   4.825
19325SOL     OW59813   5.107  11.346   3.380
19325SOL    HW159814   5.036  11.392   3.334
19325SOL    HW259815   5.153  11.299   3.310
19326SOL     OW59816  14.080  11.421   0.342
19326SOL    HW159817  14.080  11.364   0.418
19326SOL    HW259818  14.148  11.485   0.359
19327SOL     OW59819  12.145  10.779   6.691
19327SOL    HW159820  12.176  10.752   6.778
19327SOL    HW259821  12.224  10.782   6.637
19328SOL     OW59822  13.695   5.804  10.496
19328SOL    HW159823  13.693   5.717  10.457
19328SOL    HW259824  13.747   5.793  10.576
19329SOL     OW59825   2.964  10.668   5.773
19329SOL    HW159826   3.044  10.627   5.804
19329SOL    HW259827   2.894  10.620   5.816
19330SOL     OW59828   2.730   8.942  11.930
19330SOL    HW159829   2.737   9.025  11.978
19330SOL    HW259830   2.769   8.960  11.845
19331SOL     OW59831   6.565  11.649  14.349
19331SOL    HW159832   6.623  11.578  14.323
19331SOL    HW259833   6.623  11.725  14.357
19332SOL     OW59834  12.825   5.616   9.852
19332SOL    HW159835  12.740   5.652   9.878
19332SOL    HW259836  12.842   5.547   9.915
19333SOL     OW59837   8.194  14.584   2.249
19333SOL    HW159838   8.284  14.607   2.225
19333SOL    HW259839   8.198  14.491   2.268
19334SOL     OW59840   8.560  13.898  11.389
19334SOL    HW159841   8.644  13.857  11.368
19334SOL    HW259842   8.502  13.870  11.318
19335SOL     OW59843   0.962  13.352   7.925
19335SOL    HW159844   1.022  13.411   7.879
19335SOL    HW259845   1.019  13.293   7.974
19336SOL     OW59846   3.420   9.402   1.545
19336SOL    HW159847   3.344   9.348   1.567
19336SOL    HW259848   3.442   9.376   1.456
19337SOL     OW59849   6.883   9.420  12.760
19337SOL    HW159850   6.857   9.427  12.668
19337SOL    HW259851   6.967   9.375  12.758
19338SOL     OW59852   4.681   0.811   3.125
19338SOL    HW159853   4.701   0.841   3.036
19338SOL    HW259854   4.767   0.794   3.164
19339SOL     OW59855   2.231   1.056  14.837
19339SOL    HW159856   2.276   1.117  14.779
19339SOL    HW259857   2.165   1.110   0.005
19340SOL     OW59858   4.203   8.519   0.893
19340SOL    HW159859   4.196   8.519   0.798
19340SOL    HW259860   4.137   8.456   0.923
19341SOL     OW59861   8.943   0.132  11.911
19341SOL    HW159862   9.026   0.085  11.910
19341SOL    HW259863   8.909   0.119  11.999
19342SOL     OW59864   2.195  11.268  14.755
19342SOL    HW159865   2.130  11.198  14.753
19342SOL    HW259866   2.276  11.226  14.783
19343SOL     OW59867   3.872   9.347   7.098
19343SOL    HW159868   3.913   9.261   7.107
19343SOL    HW259869   3.943   9.405   7.071
19344SOL     OW59870   0.018   8.940   5.600
19344SOL    HW159871  14.868   9.004   5.533
19344SOL    HW259872   0.017   8.856   5.554
19345SOL     OW59873   1.615   7.407   4.795
19345SOL    HW159874   1.568   7.327   4.774
19345SOL    HW259875   1.700   7.377   4.828
19346SOL     OW59876   3.008  10.292  13.026
19346SOL    HW159877   2.995  10.312  13.119
19346SOL    HW259878   2.926  10.317  12.984
19347SOL     OW59879  11.139   0.880  10.272
19347SOL    HW159880  11.108   0.889  10.182
19347SOL    HW259881  11.133   0.786  10.290
19348SOL     OW59882  10.499   5.975   3.248
19348SOL    HW159883  10.538   5.927   3.321
19348SOL    HW259884  10.464   6.055   3.288
19349SOL     OW59885   1.067   5.535  13.687
19349SOL    HW159886   1.032   5.495  13.607
19349SOL    HW259887   1.024   5.487  13.758
19350SOL     OW59888  10.349   9.628  11.907
19350SOL    HW159889  10.347   9.588  11.994
19350SOL    HW259890  10.256   9.634  11.882
19351SOL     OW59891   0.829   0.287  10.524
19351SOL    HW159892   0.910   0.274  10.475
19351SOL    HW259893   0.833   0.222  10.594
19352SOL     OW59894   2.216   5.689  11.198
19352SOL    HW159895   2.253   5.717  11.114
19352SOL    HW259896   2.217   5.594  11.195
19353SOL     OW59897  11.138   4.398   1.779
19353SOL    HW159898  11.095   4.357   1.855
19353SOL    HW259899  11.159   4.486   1.809
19354SOL     OW59900  12.442   5.792   6.902
19354SOL    HW159901  12.514   5.733   6.885
19354SOL    HW259902  12.458   5.825   6.991
19355SOL     OW59903  12.877   4.997   3.033
19355SOL    HW159904  12.942   4.943   3.077
19355SOL    HW259905  12.889   4.977   2.940
19356SOL     OW59906   5.981  12.307  11.951
19356SOL    HW159907   6.053  12.270  12.003
19356SOL    HW259908   6.002  12.282  11.861
19357SOL     OW59909   7.940  13.874   3.560
19357SOL    HW159910   7.863  13.927   3.582
19357SOL    HW259911   7.991  13.930   3.501
19358SOL     OW59912  12.321  10.141   5.761
19358SOL    HW159913  12.296  10.061   5.807
19358SOL    HW259914  12.405  10.121   5.720
19359SOL     OW59915  14.310  10.980   8.743
19359SOL    HW159916  14.315  10.890   8.712
19359SOL    HW259917  14.327  10.974   8.837
19360SOL     OW59918  11.931  14.280   6.517
19360SOL    HW159919  11.986  14.305   6.591
19360SOL    HW259920  11.864  14.223   6.556
19361SOL     OW59921  12.037  11.775  11.231
19361SOL    HW159922  11.963  11.835  11.238
19361SOL    HW259923  12.002  11.690  11.256
19362SOL     OW59924  12.509   1.417   4.637
19362SOL    HW159925  12.581   1.468   4.599
19362SOL    HW259926  12.441   1.482   4.655
19363SOL     OW59927   8.493  13.545   9.339
19363SOL    HW159928   8.576  13.520   9.379
19363SOL    HW259929   8.479  13.635   9.368
19364SOL     OW59930  13.615  11.400   2.120
19364SOL    HW159931  13.655  11.340   2.184
19364SOL    HW259932  13.559  11.344   2.067
19365SOL     OW59933   4.915  12.054   9.050
19365SOL    HW159934   4.934  11.961   9.059
19365SOL    HW259935   4.980  12.086   8.988
19366SOL     OW59936   3.165   9.587   1.489
19366SOL    HW159937   3.191   9.594   1.397
19366SOL    HW259938   3.247   9.575   1.537
19367SOL     OW59939  10.668   6.818  11.472
19367SOL    HW159940  10.582   6.858  11.476
19367SOL    HW259941  10.719   6.862  11.541
19368SOL     OW59942   7.584   2.279   8.334
19368SOL    HW159943   7.536   2.359   8.355
19368SOL    HW259944   7.629   2.299   8.252
19369SOL     OW59945   5.386   2.816  12.424
19369SOL    HW159946   5.417   2.881  12.360
19369SOL    HW259947   5.303   2.851  12.456
19370SOL     OW59948  10.290   1.046   1.622
19370SOL    HW159949  10.285   1.077   1.713
19370SOL    HW259950  10.327   1.119   1.574
19371SOL     OW59951   1.079  12.515   3.204
19371SOL    HW159952   1.124  12.553   3.128
19371SOL    HW259953   1.140  12.449   3.236
19372SOL     OW59954   0.065   5.630   6.441
19372SOL    HW159955  14.863   5.665   6.483
19372SOL    HW259956   0.078   5.545   6.482
19373SOL     OW59957   1.989  12.309   0.578
19373SOL    HW159958   2.036  12.238   0.622
19373SOL    HW259959   2.052  12.381   0.576
19374SOL     OW59960  13.535   5.632  13.075
19374SOL    HW159961  13.596   5.678  13.131
19374SOL    HW259962  13.454   5.684  13.080
19375SOL     OW59963   6.938   8.393  13.184
19375SOL    HW159964   6.898   8.421  13.101
19375SOL    HW259965   6.886   8.437  13.251
19376SOL     OW59966   8.319   0.197  14.502
19376SOL    HW159967   8.390   0.135  14.514
19376SOL    HW259968   8.242   0.144  14.482
19377SOL     OW59969  14.806   0.561   0.519
19377SOL    HW159970  14.853   0.591   0.441
19377SOL    HW259971  14.856   0.599   0.592
19378SOL     OW59972   7.345   8.743   1.088
19378SOL    HW159973   7.433   8.742   1.049
19378SOL    HW259974   7.315   8.653   1.083
19379SOL     OW59975  10.596   4.716   3.725
19379SOL    HW159976  10.573   4.633   3.685
19379SOL    HW259977  10.607   4.696   3.818
19380SOL     OW59978   1.690   2.962   3.069
19380SOL    HW159979   1.636   2.886   3.049
19380SOL    HW259980   1.770   2.949   3.019
19381SOL     OW59981   8.965   9.643   5.642
19381SOL    HW159982   8.962   9.673   5.733
19381SOL    HW259983   9.020   9.565   5.644
19382SOL     OW59984   8.142  14.179   4.421
19382SOL    HW159985   8.168  14.109   4.480
19382SOL    HW259986   8.064  14.145   4.376
19383SOL     OW59987  10.370   2.275   4.229
19383SOL    HW159988  10.331   2.343   4.174
19383SOL    HW259989  10.437   2.235   4.173
19384SOL     OW59990   9.996   8.250   8.248
19384SOL    HW159991   9.932   8.228   8.180
19384SOL    HW259992  10.077   8.267   8.201
19385SOL     OW59993   4.410  12.000   6.374
19385SOL    HW159994   4.373  11.974   6.458
19385SOL    HW259995   4.335  12.007   6.315
19386SOL     OW59996  10.549   8.483   7.490
19386SOL    HW159997  10.528   8.496   7.397
19386SOL    HW259998  10.626   8.538   7.505
19387SOL     OW59999   2.160   8.409   3.569
19387SOL    HW160000   2.203   8.323   3.566
19387SOL    HW260001   2.209   8.461   3.505
19388SOL     OW60002   8.790   3.537   7.796
19388SOL    HW160003   8.853   3.466   7.780
19388SOL    HW260004   8.727   3.499   7.858
19389SOL     OW60005   7.712   6.117   2.808
19389SOL    HW160006   7.775   6.157   2.867
19389SOL    HW260007   7.656   6.065   2.866
19390SOL     OW60008  14.237   0.779   9.940
19390SOL    HW160009  14.269   0.867   9.962
19390SOL    HW260010  14.316   0.731   9.914
19391SOL     OW60011   9.660   7.201   8.558
19391SOL    HW160012   9.705   7.133   8.509
19391SOL    HW260013   9.625   7.260   8.491
19392SOL     OW60014   1.420   0.894  13.511
19392SOL    HW160015   1.436   0.809  13.471
19392SOL    HW260016   1.507   0.932  13.523
19393SOL     OW60017   7.773   9.737   0.999
19393SOL    HW160018   7.741   9.822   1.030
19393SOL    HW260019   7.819   9.700   1.074
19394SOL     OW60020  11.681   6.390   3.609
19394SOL    HW160021  11.655   6.447   3.682
19394SOL    HW260022  11.730   6.448   3.550
19395SOL     OW60023  14.192   0.943  13.696
19395SOL    HW160024  14.180   0.881  13.768
19395SOL    HW260025  14.109   0.991  13.692
19396SOL     OW60026  13.757   3.783  13.551
19396SOL    HW160027  13.798   3.731  13.620
19396SOL    HW260028  13.741   3.721  13.480
19397SOL     OW60029   9.935  13.757   2.173
19397SOL    HW160030   9.840  13.757   2.164
19397SOL    HW260031   9.962  13.669   2.147
19398SOL     OW60032   1.820   0.218   3.003
19398SOL    HW160033   1.759   0.167   3.057
19398SOL    HW260034   1.872   0.152   2.957
19399SOL     OW60035   7.990  14.552   0.100
19399SOL    HW160036   7.991  14.542   0.005
19399SOL    HW260037   7.905  14.518   0.128
19400SOL     OW60038  10.511   8.796   3.345
19400SOL    HW160039  10.564   8.798   3.425
19400SOL    HW260040  10.561   8.846   3.281
19401SOL     OW60041   4.137  13.832   3.986
19401SOL    HW160042   4.063  13.856   4.042
19401SOL    HW260043   4.188  13.913   3.978
19402SOL     OW60044   8.797   6.568   3.410
19402SOL    HW160045   8.811   6.662   3.412
19402SOL    HW260046   8.880   6.531   3.381
19403SOL     OW60047  10.276   4.728  12.681
19403SOL    HW160048  10.220   4.688  12.614
19403SOL    HW260049  10.365   4.699  12.658
19404SOL     OW60050  10.227   7.847   3.666
19404SOL    HW160051  10.307   7.796   3.656
19404SOL    HW260052  10.192   7.821   3.752
19405SOL     OW60053  12.840  10.753   7.464
19405SOL    HW160054  12.869  10.700   7.538
19405SOL    HW260055  12.764  10.801   7.497
19406SOL     OW60056   7.097   2.020  13.052
19406SOL    HW160057   7.016   2.071  13.062
19406SOL    HW260058   7.069   1.938  13.011
19407SOL     OW60059   7.788  10.325   7.085
19407SOL    HW160060   7.770  10.232   7.088
19407SOL    HW260061   7.820  10.347   7.172
19408SOL     OW60062   2.631   6.690   2.432
19408SOL    HW160063   2.669   6.636   2.502
19408SOL    HW260064   2.552   6.727   2.471
19409SOL     OW60065   1.515  14.734  13.178
19409SOL    HW160066   1.435  14.724  13.125
19409SOL    HW260067   1.579  14.677  13.134
19410SOL     OW60068  13.920   6.636   9.386
19410SOL    HW160069  13.955   6.550   9.361
19410SOL    HW260070  13.851   6.617   9.449
19411SOL     OW60071   6.763  12.743  14.763
19411SOL    HW160072   6.823  12.669  14.765
19411SOL    HW260073   6.802  12.806  14.825
19412SOL     OW60074   6.396   8.214   9.487
19412SOL    HW160075   6.343   8.219   9.407
19412SOL    HW260076   6.483   8.187   9.456
19413SOL     OW60077  14.128   8.867   1.776
19413SOL    HW160078  14.168   8.900   1.857
19413SOL    HW260079  14.036   8.853   1.799
19414SOL     OW60080   5.669  11.386   9.861
19414SOL    HW160081   5.626  11.304   9.884
19414SOL    HW260082   5.610  11.454   9.893
19415SOL     OW60083   9.154   5.714   1.111
19415SOL    HW160084   9.130   5.788   1.055
19415SOL    HW260085   9.249   5.707   1.101
19416SOL     OW60086   7.547   3.931  13.563
19416SOL    HW160087   7.533   4.008  13.507
19416SOL    HW260088   7.600   3.872  13.510
19417SOL     OW60089  14.156   7.914   3.162
19417SOL    HW160090  14.066   7.881   3.162
19417SOL    HW260091  14.189   7.891   3.075
19418SOL     OW60092   9.406   2.096  12.805
19418SOL    HW160093   9.337   2.147  12.763
19418SOL    HW260094   9.437   2.152  12.876
19419SOL     OW60095   1.046  10.775   1.285
19419SOL    HW160096   1.027  10.789   1.193
19419SOL    HW260097   0.961  10.782   1.329
19420SOL     OW60098   7.797   8.356   6.885
19420SOL    HW160099   7.883   8.366   6.843
19420SOL    HW260100   7.817   8.347   6.978
19421SOL     OW60101  12.962   1.318   2.472
19421SOL    HW160102  12.879   1.283   2.440
19421SOL    HW260103  12.987   1.260   2.543
19422SOL     OW60104  10.899  13.129  11.240
19422SOL    HW160105  10.932  13.053  11.192
19422SOL    HW260106  10.869  13.190  11.172
19423SOL     OW60107  11.734   6.584   7.479
19423SOL    HW160108  11.728   6.679   7.465
19423SOL    HW260109  11.684   6.546   7.408
19424SOL     OW60110   0.616  10.735   5.076
19424SOL    HW160111   0.537  10.708   5.029
19424SOL    HW260112   0.593  10.821   5.113
19425SOL     OW60113  13.042  10.734  11.114
19425SOL    HW160114  13.052  10.645  11.148
19425SOL    HW260115  13.130  10.771  11.116
19426SOL     OW60116   0.001  14.684  10.508
19426SOL    HW160117   0.076  14.704  10.452
19426SOL    HW260118   0.039  14.654  10.590
19427SOL     OW60119  11.055  14.824   4.622
19427SOL    HW160120  11.109   0.002   4.565
19427SOL    HW260121  10.970  14.868   4.623
19428SOL     OW60122  14.482  13.327   1.247
19428SOL    HW160123  14.518  13.372   1.323
19428SOL    HW260124  14.550  13.266   1.220
19429SOL     OW60125   4.232  10.444   9.557
19429SOL    HW160126   4.174  10.380   9.516
19429SOL    HW260127   4.196  10.456   9.644
19430SOL     OW60128   8.711   9.447  13.499
19430SOL    HW160129   8.616   9.456  13.499
19430SOL    HW260130   8.727   9.353  13.508
19431SOL     OW60131  13.903   7.431   7.661
19431SOL    HW160132  13.867   7.351   7.699
19431SOL    HW260133  13.873   7.501   7.719
19432SOL     OW60134   2.824   8.368   5.664
19432SOL    HW160135   2.913   8.348   5.694
19432SOL    HW260136   2.789   8.425   5.732
19433SOL     OW60137   2.086   0.034   8.262
19433SOL    HW160138   2.155   0.008   8.201
19433SOL    HW260139   2.133   0.071   8.337
19434SOL     OW60140   1.533   1.666  13.619
19434SOL    HW160141   1.511   1.573  13.623
19434SOL    HW260142   1.612   1.670  13.565
19435SOL     OW60143   8.625   1.800   4.251
19435SOL    HW160144   8.639   1.876   4.195
19435SOL    HW260145   8.661   1.826   4.336
19436SOL     OW60146  12.825  12.493   3.165
19436SOL    HW160147  12.776  12.458   3.239
19436SOL    HW260148  12.915  12.502   3.199
19437SOL     OW60149   9.780  10.650  10.647
19437SOL    HW160150   9.826  10.648  10.563
19437SOL    HW260151   9.825  10.718  10.698
19438SOL     OW60152  10.934   7.045   0.166
19438SOL    HW160153  11.012   7.098   0.147
19438SOL    HW260154  10.869   7.072   0.102
19439SOL     OW60155   4.564  11.302   0.644
19439SOL    HW160156   4.546  11.259   0.728
19439SOL    HW260157   4.591  11.390   0.669
19440SOL     OW60158  10.807  10.374   1.187
19440SOL    HW160159  10.779  10.314   1.257
19440SOL    HW260160  10.891  10.407   1.218
19441SOL     OW60161  11.357   5.441   3.531
19441SOL    HW160162  11.264   5.466   3.538
19441SOL    HW260163  11.355   5.350   3.502
19442SOL     OW60164   3.308  11.698   9.458
19442SOL    HW160165   3.386  11.646   9.440
19442SOL    HW260166   3.258  11.645   9.520
19443SOL     OW60167   8.490   7.783  10.307
19443SOL    HW160168   8.517   7.797  10.216
19443SOL    HW260169   8.461   7.692  10.309
19444SOL     OW60170   1.465   0.981   9.030
19444SOL    HW160171   1.549   1.024   9.016
19444SOL    HW260172   1.453   0.924   8.955
19445SOL     OW60173  14.282   1.944   6.394
19445SOL    HW160174  14.335   1.865   6.400
19445SOL    HW260175  14.192   1.913   6.382
19446SOL     OW60176   5.822   3.256   3.342
19446SOL    HW160177   5.866   3.338   3.318
19446SOL    HW260178   5.743   3.285   3.388
19447SOL     OW60179  10.341  14.664   8.949
19447SOL    HW160180  10.344  14.710   9.033
19447SOL    HW260181  10.315  14.730   8.885
19448SOL     OW60182   7.424   3.685   3.255
19448SOL    HW160183   7.344   3.729   3.225
19448SOL    HW260184   7.414   3.678   3.350
19449SOL     OW60185   4.196  11.905   4.936
19449SOL    HW160186   4.197  11.814   4.965
19449SOL    HW260187   4.267  11.947   4.984
19450SOL     OW60188   0.557   7.944  14.001
19450SOL    HW160189   0.595   8.009  14.060
19450SOL    HW260190   0.620   7.872  14.001
19451SOL     OW60191  11.948   6.510  11.232
19451SOL    HW160192  11.938   6.454  11.155
19451SOL    HW260193  11.906   6.461  11.303
19452SOL     OW60194  13.544   4.589   9.851
19452SOL    HW160195  13.612   4.625   9.908
19452SOL    HW260196  13.589   4.573   9.768
19453SOL     OW60197  12.887   5.067  10.308
19453SOL    HW160198  12.975   5.043  10.277
19453SOL    HW260199  12.857   4.990  10.357
19454SOL     OW60200   7.708   9.315   3.877
19454SOL    HW160201   7.672   9.232   3.909
19454SOL    HW260202   7.803   9.300   3.874
19455SOL     OW60203   6.278   1.195   0.356
19455SOL    HW160204   6.341   1.138   0.311
19455SOL    HW260205   6.320   1.216   0.439
19456SOL     OW60206   1.277   4.732   2.598
19456SOL    HW160207   1.265   4.820   2.563
19456SOL    HW260208   1.372   4.724   2.609
19457SOL     OW60209   5.124   6.703  12.777
19457SOL    HW160210   5.153   6.789  12.809
19457SOL    HW260211   5.153   6.701  12.686
19458SOL     OW60212  10.702   2.257   8.254
19458SOL    HW160213  10.639   2.274   8.185
19458SOL    HW260214  10.691   2.164   8.275
19459SOL     OW60215  10.390   9.032   8.216
19459SOL    HW160216  10.295   9.026   8.217
19459SOL    HW260217  10.411   9.067   8.129
19460SOL     OW60218   7.437  13.490   3.540
19460SOL    HW160219   7.349  13.518   3.515
19460SOL    HW260220   7.428  13.397   3.562
19461SOL     OW60221   4.210  13.120  10.425
19461SOL    HW160222   4.276  13.188  10.442
19461SOL    HW260223   4.254  13.059  10.366
19462SOL     OW60224  10.216   7.673  11.480
19462SOL    HW160225  10.245   7.649  11.568
19462SOL    HW260226  10.166   7.753  11.492
19463SOL     OW60227  10.005   7.658  12.985
19463SOL    HW160228  10.026   7.591  12.919
19463SOL    HW260229  10.071   7.646  13.053
19464SOL     OW60230  10.106   6.038   2.533
19464SOL    HW160231  10.143   6.031   2.622
19464SOL    HW260232  10.122   6.129   2.508
19465SOL     OW60233  14.134  10.924   9.673
19465SOL    HW160234  14.165  10.857   9.734
19465SOL    HW260235  14.193  10.998   9.687
19466SOL     OW60236  11.909   0.906   3.355
19466SOL    HW160237  11.836   0.967   3.345
19466SOL    HW260238  11.876   0.839   3.414
19467SOL     OW60239  14.693   7.256  13.199
19467SOL    HW160240  14.735   7.284  13.280
19467SOL    HW260241  14.609   7.301  13.199
19468SOL     OW60242  12.314   5.995   0.698
19468SOL    HW160243  12.282   5.982   0.787
19468SOL    HW260244  12.409   5.997   0.706
19469SOL     OW60245  10.424   1.017  11.419
19469SOL    HW160246  10.459   1.105  11.416
19469SOL    HW260247  10.501   0.960  11.410
19470SOL     OW60248   5.886   5.165  11.404
19470SOL    HW160249   5.971   5.207  11.392
19470SOL    HW260250   5.867   5.126  11.318
19471SOL     OW60251   2.465   7.394   0.879
19471SOL    HW160252   2.406   7.319   0.872
19471SOL    HW260253   2.552   7.356   0.885
19472SOL     OW60254   9.324   5.904  13.657
19472SOL    HW160255   9.237   5.913  13.619
19472SOL    HW260256   9.376   5.973  13.615
19473SOL     OW60257  10.869   0.345   1.295
19473SOL    HW160258  10.778   0.351   1.265
19473SOL    HW260259  10.898   0.258   1.267
19474SOL     OW60260  14.592  14.031  12.453
19474SOL    HW160261  14.544  13.948  12.451
19474SOL    HW260262  14.680  14.007  12.483
19475SOL     OW60263   6.199  11.598  13.784
19475SOL    HW160264   6.150  11.548  13.850
19475SOL    HW260265   6.182  11.689  13.806
19476SOL     OW60266  13.178   4.271   8.107
19476SOL    HW160267  13.096   4.306   8.072
19476SOL    HW260268  13.151   4.211   8.177
19477SOL     OW60269   6.321   0.934   3.823
19477SOL    HW160270   6.300   1.011   3.876
19477SOL    HW260271   6.236   0.903   3.790
19478SOL     OW60272  14.524   1.087   2.972
19478SOL    HW160273  14.600   1.038   2.942
19478SOL    HW260274  14.549   1.179   2.961
19479SOL     OW60275  12.498   6.429   7.441
19479SOL    HW160276  12.584   6.389   7.459
19479SOL    HW260277  12.487   6.492   7.512
19480SOL     OW60278  12.426   3.009   5.274
19480SOL    HW160279  12.479   2.930   5.281
19480SOL    HW260280  12.380   2.999   5.190
19481SOL     OW60281   6.231   5.734   9.280
19481SOL    HW160282   6.237   5.646   9.317
19481SOL    HW260283   6.248   5.722   9.186
19482SOL     OW60284  14.506  12.760  10.892
19482SOL    HW160285  14.510  12.845  10.848
19482SOL    HW260286  14.417  12.755  10.927
19483SOL     OW60287  11.703   7.257   5.859
19483SOL    HW160288  11.692   7.230   5.768
19483SOL    HW260289  11.787   7.221   5.886
19484SOL     OW60290   1.449   1.119   4.230
19484SOL    HW160291   1.392   1.195   4.245
19484SOL    HW260292   1.429   1.060   4.302
19485SOL     OW60293  12.921  11.243  13.385
19485SOL    HW160294  12.948  11.333  13.369
19485SOL    HW260295  12.945  11.227  13.477
19486SOL     OW60296   8.529   8.171   2.785
19486SOL    HW160297   8.602   8.229   2.806
19486SOL    HW260298   8.464   8.227   2.743
19487SOL     OW60299   4.059   0.864   0.971
19487SOL    HW160300   4.024   0.840   0.885
19487SOL    HW260301   3.985   0.906   1.015
19488SOL     OW60302  13.720   7.260  10.225
19488SOL    HW160303  13.783   7.200  10.184
19488SOL    HW260304  13.678   7.208  10.293
19489SOL     OW60305  10.301   0.958   4.845
19489SOL    HW160306  10.348   0.876   4.832
19489SOL    HW260307  10.213   0.932   4.871
19490SOL     OW60308  10.823   4.039   3.502
19490SOL    HW160309  10.888   3.996   3.446
19490SOL    HW260310  10.834   3.998   3.588
19491SOL     OW60311  10.126  12.626  11.271
19491SOL    HW160312  10.153  12.598  11.358
19491SOL    HW260313  10.062  12.560  11.244
19492SOL     OW60314   3.311   8.057   3.908
19492SOL    HW160315   3.383   8.015   3.862
19492SOL    HW260316   3.353   8.127   3.959
19493SOL     OW60317   0.343   0.370  14.473
19493SOL    HW160318   0.279   0.356  14.403
19493SOL    HW260319   0.424   0.392  14.427
19494SOL     OW60320  10.804  14.399   4.938
19494SOL    HW160321  10.790  14.494   4.943
19494SOL    HW260322  10.899  14.390   4.934
19495SOL     OW60323  13.614   5.015   1.510
19495SOL    HW160324  13.647   5.096   1.549
19495SOL    HW260325  13.520   5.029   1.503
19496SOL     OW60326  10.155   0.250   9.021
19496SOL    HW160327  10.163   0.316   9.090
19496SOL    HW260328  10.145   0.168   9.069
19497SOL     OW60329   6.520   1.136   8.366
19497SOL    HW160330   6.498   1.206   8.304
19497SOL    HW260331   6.441   1.082   8.372
19498SOL     OW60332   6.412  13.320  10.938
19498SOL    HW160333   6.458  13.238  10.957
19498SOL    HW260334   6.414  13.327  10.843
19499SOL     OW60335   0.459   7.680   3.892
19499SOL    HW160336   0.408   7.601   3.879
19499SOL    HW260337   0.443   7.733   3.814
19500SOL     OW60338   5.450   4.957  12.386
19500SOL    HW160339   5.451   5.047  12.353
19500SOL    HW260340   5.541   4.939  12.409
19501SOL     OW60341   1.598   2.752  10.978
19501SOL    HW160342   1.646   2.752  10.895
19501SOL    HW260343   1.632   2.829  11.025
19502SOL     OW60344   2.408  13.797  14.559
19502SOL    HW160345   2.393  13.886  14.529
19502SOL    HW260346   2.495  13.800  14.599
19503SOL     OW60347   4.605  12.857   4.994
19503SOL    HW160348   4.674  12.846   5.059
19503SOL    HW260349   4.574  12.769   4.976
19504SOL     OW60350  13.296   1.593   4.350
19504SOL    HW160351  13.280   1.596   4.256
19504SOL    HW260352  13.390   1.575   4.358
19505SOL     OW60353  10.158  10.881   6.573
19505SOL    HW160354  10.148  10.947   6.641
19505SOL    HW260355  10.240  10.903   6.529
19506SOL     OW60356  11.900  12.554   1.038
19506SOL    HW160357  11.961  12.577   0.968
19506SOL    HW260358  11.931  12.604   1.114
19507SOL     OW60359   2.525   9.354  13.205
19507SOL    HW160360   2.492   9.352  13.295
19507SOL    HW260361   2.540   9.262  13.184
19508SOL     OW60362   1.689   9.304   5.208
19508SOL    HW160363   1.623   9.336   5.269
19508SOL    HW260364   1.717   9.382   5.160
19509SOL     OW60365  10.113   2.679   6.685
19509SOL    HW160366  10.151   2.633   6.760
19509SOL    HW260367  10.025   2.643   6.677
19510SOL     OW60368   4.636   0.711   6.971
19510SOL    HW160369   4.664   0.630   6.929
19510SOL    HW260370   4.713   0.767   6.970
19511SOL     OW60371   7.445   0.337   8.778
19511SOL    HW160372   7.376   0.324   8.713
19511SOL    HW260373   7.398   0.351   8.860
19512SOL     OW60374  13.713   4.917   4.361
19512SOL    HW160375  13.661   4.867   4.424
19512SOL    HW260376  13.695   5.009   4.384
19513SOL     OW60377  12.338   4.438   3.852
19513SOL    HW160378  12.398   4.382   3.902
19513SOL    HW260379  12.372   4.437   3.763
19514SOL     OW60380   1.109   7.086  14.178
19514SOL    HW160381   1.062   7.056  14.257
19514SOL    HW260382   1.101   7.013  14.117
19515SOL     OW60383   4.716   2.160   3.227
19515SOL    HW160384   4.708   2.254   3.209
19515SOL    HW260385   4.626   2.129   3.234
19516SOL     OW60386  10.101  14.437   5.810
19516SOL    HW160387  10.037  14.433   5.739
19516SOL    HW260388  10.056  14.401   5.886
19517SOL     OW60389   1.635  13.233   8.412
19517SOL    HW160390   1.626  13.255   8.319
19517SOL    HW260391   1.565  13.282   8.455
19518SOL     OW60392   4.424   0.938   1.333
19518SOL    HW160393   4.349   0.996   1.321
19518SOL    HW260394   4.499   0.990   1.305
19519SOL     OW60395  10.995  12.352  13.326
19519SOL    HW160396  11.050  12.430  13.323
19519SOL    HW260397  10.908  12.383  13.299
19520SOL     OW60398   4.141   0.055   2.459
19520SOL    HW160399   4.068   0.107   2.493
19520SOL    HW260400   4.101  14.850   2.429
19521SOL     OW60401   1.251   8.399   5.521
19521SOL    HW160402   1.332   8.438   5.489
19521SOL    HW260403   1.188   8.413   5.450
19522SOL     OW60404   1.539   6.417   3.710
19522SOL    HW160405   1.519   6.497   3.758
19522SOL    HW260406   1.459   6.365   3.714
19523SOL     OW60407   2.304  11.209  11.561
19523SOL    HW160408   2.387  11.255  11.574
19523SOL    HW260409   2.330  11.126  11.520
19524SOL     OW60410  12.258  10.765   1.603
19524SOL    HW160411  12.168  10.731   1.598
19524SOL    HW260412  12.309  10.705   1.547
19525SOL     OW60413   1.408  12.289   6.403
19525SOL    HW160414   1.463  12.337   6.464
19525SOL    HW260415   1.404  12.345   6.325
19526SOL     OW60416   6.490   4.277   3.122
19526SOL    HW160417   6.575   4.280   3.165
19526SOL    HW260418   6.427   4.301   3.190
19527SOL     OW60419   7.465   5.638  11.035
19527SOL    HW160420   7.379   5.606  11.010
19527SOL    HW260421   7.448   5.702  11.104
19528SOL     OW60422   1.274  10.151   6.606
19528SOL    HW160423   1.347  10.091   6.622
19528SOL    HW260424   1.281  10.172   6.513
19529SOL     OW60425  11.896   3.661  10.806
19529SOL    HW160426  11.966   3.674  10.870
19529SOL    HW260427  11.930   3.593  10.748
19530SOL     OW60428   7.763   0.934   3.647
19530SOL    HW160429   7.726   0.853   3.682
19530SOL    HW260430   7.706   0.958   3.574
19531SOL     OW60431  12.140  11.397   5.688
19531SOL    HW160432  12.114  11.489   5.680
19531SOL    HW260433  12.217  11.389   5.631
19532SOL     OW60434   1.848   3.306   0.626
19532SOL    HW160435   1.915   3.309   0.694
19532SOL    HW260436   1.845   3.396   0.592
19533SOL     OW60437   2.998   5.229  12.148
19533SOL    HW160438   3.066   5.241  12.082
19533SOL    HW260439   2.926   5.187  12.101
19534SOL     OW60440   0.167   4.464   9.241
19534SOL    HW160441   0.161   4.415   9.324
19534SOL    HW260442   0.194   4.398   9.177
19535SOL     OW60443  12.227   2.837  11.470
19535SOL    HW160444  12.274   2.825  11.388
19535SOL    HW260445  12.296   2.847  11.536
19536SOL     OW60446  10.510  12.901   9.090
19536SOL    HW160447  10.589  12.852   9.068
19536SOL    HW260448  10.450  12.836   9.126
19537SOL     OW60449   3.312   1.055   6.442
19537SOL    HW160450   3.223   1.052   6.476
19537SOL    HW260451   3.319   1.139   6.398
19538SOL     OW60452   5.565   5.926   8.348
19538SOL    HW160453   5.483   5.974   8.359
19538SOL    HW260454   5.628   5.993   8.321
19539SOL     OW60455   3.907  14.780  13.928
19539SOL    HW160456   3.962  14.705  13.908
19539SOL    HW260457   3.965  14.841  13.975
19540SOL     OW60458  12.393   3.529  13.518
19540SOL    HW160459  12.300   3.518  13.538
19540SOL    HW260460  12.437   3.461  13.568
19541SOL     OW60461   4.292   9.430   0.361
19541SOL    HW160462   4.211   9.443   0.410
19541SOL    HW260463   4.301   9.510   0.308
19542SOL     OW60464   1.446   5.267   4.576
19542SOL    HW160465   1.364   5.295   4.536
19542SOL    HW260466   1.454   5.319   4.655
19543SOL     OW60467   5.128   7.966  11.422
19543SOL    HW160468   5.158   8.053  11.396
19543SOL    HW260469   5.098   7.926  11.340
19544SOL     OW60470  10.512  10.046   0.163
19544SOL    HW160471  10.520  10.021   0.071
19544SOL    HW260472  10.562   9.979   0.211
19545SOL     OW60473   1.325  11.547  12.097
19545SOL    HW160474   1.292  11.501  12.174
19545SOL    HW260475   1.253  11.603  12.069
19546SOL     OW60476   6.328  11.166   4.380
19546SOL    HW160477   6.374  11.083   4.389
19546SOL    HW260478   6.257  11.148   4.318
19547SOL     OW60479   8.357  11.689   0.665
19547SOL    HW160480   8.392  11.747   0.732
19547SOL    HW260481   8.305  11.746   0.608
19548SOL     OW60482   2.663   9.526   0.957
19548SOL    HW160483   2.606   9.496   0.886
19548SOL    HW260484   2.603   9.564   1.021
19549SOL     OW60485   2.217   4.786  12.692
19549SOL    HW160486   2.261   4.758  12.772
19549SOL    HW260487   2.156   4.854  12.720
19550SOL     OW60488   4.455  13.958  12.230
19550SOL    HW160489   4.407  14.002  12.300
19550SOL    HW260490   4.389  13.938  12.164
19551SOL     OW60491  12.492  14.577   7.385
19551SOL    HW160492  12.418  14.624   7.424
19551SOL    HW260493  12.473  14.484   7.403
19552SOL     OW60494   4.085  13.763   6.607
19552SOL    HW160495   4.173  13.732   6.632
19552SOL    HW260496   4.102  13.843   6.557
19553SOL     OW60497   5.502   9.914   5.972
19553SOL    HW160498   5.586   9.933   6.014
19553SOL    HW260499   5.508   9.958   5.887
19554SOL     OW60500   8.711   2.191  12.180
19554SOL    HW160501   8.751   2.106  12.199
19554SOL    HW260502   8.780   2.242  12.138
19555SOL     OW60503  13.447   4.429   7.286
19555SOL    HW160504  13.370   4.478   7.314
19555SOL    HW260505  13.478   4.476   7.208
19556SOL     OW60506   5.912   0.768   5.229
19556SOL    HW160507   5.885   0.749   5.319
19556SOL    HW260508   5.931   0.682   5.191
19557SOL     OW60509  14.781   1.129  11.643
19557SOL    HW160510  14.814   1.188  11.575
19557SOL    HW260511  14.719   1.181  11.693
19558SOL     OW60512   2.804  10.087   8.663
19558SOL    HW160513   2.845  10.064   8.746
19558SOL    HW260514   2.873  10.077   8.598
19559SOL     OW60515   4.153   3.586   2.573
19559SOL    HW160516   4.126   3.628   2.655
19559SOL    HW260517   4.199   3.507   2.602
19560SOL     OW60518   1.971   2.296   9.102
19560SOL    HW160519   2.032   2.365   9.075
19560SOL    HW260520   1.888   2.342   9.117
19561SOL     OW60521   2.449  12.875   5.012
19561SOL    HW160522   2.460  12.792   4.964
19561SOL    HW260523   2.479  12.855   5.101
19562SOL     OW60524   4.296   6.031  10.580
19562SOL    HW160525   4.253   6.051  10.663
19562SOL    HW260526   4.280   6.108  10.525
19563SOL     OW60527  12.587   6.651   2.962
19563SOL    HW160528  12.677   6.663   2.991
19563SOL    HW260529  12.590   6.575   2.904
19564SOL     OW60530   2.765  13.366  14.073
19564SOL    HW160531   2.751  13.451  14.030
19564SOL    HW260532   2.857  13.347  14.057
19565SOL     OW60533  11.916   1.488  13.175
19565SOL    HW160534  11.831   1.473  13.134
19565SOL    HW260535  11.966   1.538  13.111
19566SOL     OW60536  11.621  10.979   3.227
19566SOL    HW160537  11.682  11.012   3.161
19566SOL    HW260538  11.631  11.039   3.300
19567SOL     OW60539   1.745   9.615  13.577
19567SOL    HW160540   1.714   9.536  13.531
19567SOL    HW260541   1.823   9.642  13.528
19568SOL     OW60542   7.226   6.219   2.200
19568SOL    HW160543   7.209   6.230   2.106
19568SOL    HW260544   7.296   6.282   2.219
19569SOL     OW60545   8.526   8.839   3.280
19569SOL    HW160546   8.572   8.784   3.216
19569SOL    HW260547   8.436   8.807   3.280
19570SOL     OW60548   5.315  10.285   5.507
19570SOL    HW160549   5.303  10.376   5.479
19570SOL    HW260550   5.312  10.290   5.603
19571SOL     OW60551   4.666   7.770   9.193
19571SOL    HW160552   4.713   7.771   9.110
19571SOL    HW260553   4.727   7.807   9.256
19572SOL     OW60554  11.891   1.210  13.937
19572SOL    HW160555  11.873   1.290  13.887
19572SOL    HW260556  11.970   1.175  13.897
19573SOL     OW60557   8.094  13.436   7.318
19573SOL    HW160558   8.180  13.392   7.325
19573SOL    HW260559   8.044  13.401   7.391
19574SOL     OW60560   4.877   1.515  12.870
19574SOL    HW160561   4.838   1.587  12.921
19574SOL    HW260562   4.971   1.526  12.881
19575SOL     OW60563  11.747   1.217   5.282
19575SOL    HW160564  11.818   1.250   5.338
19575SOL    HW260565  11.777   1.131   5.254
19576SOL     OW60566   4.535   5.161  11.705
19576SOL    HW160567   4.460   5.198  11.752
19576SOL    HW260568   4.579   5.105  11.769
19577SOL     OW60569   3.925   4.124   8.354
19577SOL    HW160570   3.930   4.031   8.376
19577SOL    HW260571   3.972   4.132   8.271
19578SOL     OW60572  11.690   8.690   7.227
19578SOL    HW160573  11.629   8.625   7.263
19578SOL    HW260574  11.705   8.751   7.299
19579SOL     OW60575  12.672  10.245  13.529
19579SOL    HW160576  12.713  10.171  13.573
19579SOL    HW260577  12.628  10.206  13.453
19580SOL     OW60578  11.418   2.143   0.338
19580SOL    HW160579  11.327   2.118   0.352
19580SOL    HW260580  11.469   2.072   0.377
19581SOL     OW60581  13.675   2.217   0.332
19581SOL    HW160582  13.650   2.136   0.289
19581SOL    HW260583  13.658   2.285   0.267
19582SOL     OW60584  12.853  10.530   4.473
19582SOL    HW160585  12.909  10.465   4.516
19582SOL    HW260586  12.907  10.610   4.472
19583SOL     OW60587   6.221   9.928  10.575
19583SOL    HW160588   6.180   9.854  10.620
19583SOL    HW260589   6.290   9.889  10.522
19584SOL     OW60590   4.446   6.501   1.467
19584SOL    HW160591   4.371   6.517   1.524
19584SOL    HW260592   4.454   6.581   1.415
19585SOL     OW60593  12.076   1.935  10.265
19585SOL    HW160594  12.019   1.925  10.189
19585SOL    HW260595  12.096   2.029  10.269
19586SOL     OW60596  14.490  10.541  11.131
19586SOL    HW160597  14.530  10.486  11.063
19586SOL    HW260598  14.561  10.600  11.157
19587SOL     OW60599   7.656   5.313   1.265
19587SOL    HW160600   7.569   5.348   1.244
19587SOL    HW260601   7.697   5.298   1.181
19588SOL     OW60602   3.259   7.192  11.351
19588SOL    HW160603   3.232   7.119  11.295
19588SOL    HW260604   3.200   7.188  11.426
19589SOL     OW60605   0.667  14.241   0.396
19589SOL    HW160606   0.716  14.168   0.434
19589SOL    HW260607   0.616  14.202   0.326
19590SOL     OW60608  11.910  11.649   7.705
19590SOL    HW160609  11.843  11.663   7.772
19590SOL    HW260610  11.881  11.701   7.630
19591SOL     OW60611  12.727   4.660   3.258
19591SOL    HW160612  12.752   4.713   3.334
19591SOL    HW260613  12.796   4.594   3.252
19592SOL     OW60614  10.673   6.299  10.661
19592SOL    HW160615  10.679   6.211  10.700
19592SOL    HW260616  10.613   6.289  10.588
19593SOL     OW60617  14.607   3.870  11.832
19593SOL    HW160618  14.637   3.956  11.803
19593SOL    HW260619  14.677   3.837  11.888
19594SOL     OW60620  12.767  12.815   6.351
19594SOL    HW160621  12.752  12.909   6.340
19594SOL    HW260622  12.680  12.776   6.347
19595SOL     OW60623   8.623   8.084  10.134
19595SOL    HW160624   8.711   8.073  10.098
19595SOL    HW260625   8.622   8.174  10.169
19596SOL     OW60626   9.996   0.692  12.686
19596SOL    HW160627  10.091   0.688  12.694
19596SOL    HW260628   9.974   0.784  12.703
19597SOL     OW60629   7.123   9.343   2.019
19597SOL    HW160630   7.064   9.268   2.007
19597SOL    HW260631   7.160   9.358   1.932
19598SOL     OW60632  13.497   4.487  13.772
19598SOL    HW160633  13.541   4.495  13.856
19598SOL    HW260634  13.425   4.426  13.787
19599SOL     OW60635  11.955   2.878   2.758
19599SOL    HW160636  11.891   2.812   2.786
19599SOL    HW260637  12.001   2.838   2.684
19600SOL     OW60638  12.517   5.586   7.798
19600SOL    HW160639  12.525   5.628   7.712
19600SOL    HW260640  12.607   5.563   7.822
19601SOL     OW60641   6.073  11.293   8.472
19601SOL    HW160642   6.040  11.281   8.561
19601SOL    HW260643   6.117  11.211   8.451
19602SOL     OW60644   7.380  14.462  13.217
19602SOL    HW160645   7.451  14.433  13.159
19602SOL    HW260646   7.300  14.434  13.174
19603SOL     OW60647   4.698   6.858   2.358
19603SOL    HW160648   4.610   6.819   2.362
19603SOL    HW260649   4.686   6.937   2.305
19604SOL     OW60650   8.937  10.862  11.219
19604SOL    HW160651   8.910  10.798  11.153
19604SOL    HW260652   8.967  10.809  11.293
19605SOL     OW60653  10.148   4.410   3.469
19605SOL    HW160654  10.217   4.461   3.427
19605SOL    HW260655  10.101   4.474   3.523
19606SOL     OW60656  11.774   4.222   1.924
19606SOL    HW160657  11.812   4.187   1.844
19606SOL    HW260658  11.840   4.282   1.958
19607SOL     OW60659   2.824   1.721  12.572
19607SOL    HW160660   2.917   1.745  12.562
19607SOL    HW260661   2.817   1.693  12.663
19608SOL     OW60662   6.682   5.196   0.688
19608SOL    HW160663   6.733   5.208   0.608
19608SOL    HW260664   6.700   5.106   0.716
19609SOL     OW60665  12.989  12.249  13.144
19609SOL    HW160666  12.999  12.220  13.235
19609SOL    HW260667  12.987  12.168  13.093
19610SOL     OW60668  12.283   6.590  14.810
19610SOL    HW160669  12.263   6.514  14.755
19610SOL    HW260670  12.377   6.605  14.798
19611SOL     OW60671  12.790   1.591   5.827
19611SOL    HW160672  12.794   1.685   5.811
19611SOL    HW260673  12.712   1.578   5.880
19612SOL     OW60674   6.191   3.958   7.733
19612SOL    HW160675   6.229   4.045   7.746
19612SOL    HW260676   6.132   3.968   7.658
19613SOL     OW60677   7.555   7.757  14.612
19613SOL    HW160678   7.561   7.762  14.516
19613SOL    HW260679   7.526   7.845  14.638
19614SOL     OW60680   2.911  12.791   9.179
19614SOL    HW160681   2.940  12.718   9.123
19614SOL    HW260682   2.890  12.749   9.263
19615SOL     OW60683   4.184  11.830   9.441
19615SOL    HW160684   4.119  11.807   9.374
19615SOL    HW260685   4.132  11.849   9.519
19616SOL     OW60686   2.177  12.987   6.539
19616SOL    HW160687   2.258  12.946   6.510
19616SOL    HW260688   2.109  12.923   6.518
19617SOL     OW60689  11.945   6.260   9.616
19617SOL    HW160690  12.011   6.303   9.671
19617SOL    HW260691  11.934   6.319   9.541
19618SOL     OW60692   3.296   6.600   0.406
19618SOL    HW160693   3.294   6.602   0.310
19618SOL    HW260694   3.251   6.681   0.432
19619SOL     OW60695   8.807  13.928   9.536
19619SOL    HW160696   8.754  13.977   9.474
19619SOL    HW260697   8.832  13.848   9.490
19620SOL     OW60698   2.589  11.081   1.994
19620SOL    HW160699   2.671  11.048   1.957
19620SOL    HW260700   2.553  11.006   2.042
19621SOL     OW60701   1.745   3.278  14.842
19621SOL    HW160702   1.708   3.261   0.052
19621SOL    HW260703   1.681   3.243  14.780
19622SOL     OW60704   9.511   0.191   9.039
19622SOL    HW160705   9.568   0.267   9.027
19622SOL    HW260706   9.553   0.122   8.988
19623SOL     OW60707   9.190   4.782  10.640
19623SOL    HW160708   9.109   4.765  10.688
19623SOL    HW260709   9.160   4.807  10.553
19624SOL     OW60710  11.203   0.741   8.403
19624SOL    HW160711  11.276   0.795   8.432
19624SOL    HW260712  11.235   0.699   8.323
19625SOL     OW60713   2.645   8.484   6.587
19625SOL    HW160714   2.706   8.429   6.538
19625SOL    HW260715   2.590   8.421   6.634
19626SOL     OW60716   4.204   7.109   5.452
19626SOL    HW160717   4.276   7.164   5.421
19626SOL    HW260718   4.218   7.024   5.410
19627SOL     OW60719   7.928   4.230   3.310
19627SOL    HW160720   7.855   4.290   3.318
19627SOL    HW260721   7.927   4.203   3.217
19628SOL     OW60722   6.115   9.444  10.536
19628SOL    HW160723   6.077   9.380  10.596
19628SOL    HW260724   6.161   9.392  10.471
19629SOL     OW60725  11.252  12.892   8.176
19629SOL    HW160726  11.215  12.804   8.185
19629SOL    HW260727  11.336  12.879   8.133
19630SOL     OW60728   2.904   8.745  10.019
19630SOL    HW160729   2.962   8.670  10.003
19630SOL    HW260730   2.839   8.740   9.949
19631SOL     OW60731   6.754   4.562   8.360
19631SOL    HW160732   6.832   4.536   8.312
19631SOL    HW260733   6.730   4.647   8.323
19632SOL     OW60734   6.773   5.427  14.134
19632SOL    HW160735   6.699   5.412  14.075
19632SOL    HW260736   6.785   5.522  14.134
19633SOL     OW60737   0.160   2.994  12.004
19633SOL    HW160738   0.088   2.951  12.050
19633SOL    HW260739   0.175   2.939  11.928
19634SOL     OW60740   3.453   9.569  14.429
19634SOL    HW160741   3.404   9.492  14.459
19634SOL    HW260742   3.386   9.638  14.421
19635SOL     OW60743   2.959   0.023  12.628
19635SOL    HW160744   2.978  14.838  12.557
19635SOL    HW260745   3.000   0.105  12.600
19636SOL     OW60746   4.527   3.493   5.532
19636SOL    HW160747   4.601   3.458   5.483
19636SOL    HW260748   4.503   3.573   5.485
19637SOL     OW60749  11.076   0.005   5.907
19637SOL    HW160750  11.022   0.083   5.918
19637SOL    HW260751  11.015  14.809   5.913
19638SOL     OW60752  12.357  10.687   9.788
19638SOL    HW160753  12.392  10.644   9.709
19638SOL    HW260754  12.388  10.777   9.780
19639SOL     OW60755   0.834  11.070  10.691
19639SOL    HW160756   0.824  11.164  10.675
19639SOL    HW260757   0.893  11.065  10.766
19640SOL     OW60758  10.354   3.241   3.171
19640SOL    HW160759  10.302   3.315   3.202
19640SOL    HW260760  10.413   3.221   3.243
19641SOL     OW60761  10.027   0.320  12.326
19641SOL    HW160762  10.014   0.306  12.232
19641SOL    HW260763  10.061   0.410  12.332
19642SOL     OW60764   4.366   2.655  10.109
19642SOL    HW160765   4.437   2.630  10.169
19642SOL    HW260766   4.332   2.572  10.077
19643SOL     OW60767  10.374   4.024   5.082
19643SOL    HW160768  10.355   4.115   5.059
19643SOL    HW260769  10.455   4.004   5.036
19644SOL     OW60770   9.048   7.288   2.951
19644SOL    HW160771   8.986   7.296   3.024
19644SOL    HW260772   8.998   7.316   2.874
19645SOL     OW60773   7.601   9.386  11.755
19645SOL    HW160774   7.653   9.314  11.790
19645SOL    HW260775   7.575   9.358  11.668
19646SOL     OW60776  11.060  13.062   0.376
19646SOL    HW160777  11.061  13.156   0.363
19646SOL    HW260778  11.063  13.049   0.470
19647SOL     OW60779   7.644   6.592   0.977
19647SOL    HW160780   7.705   6.632   1.039
19647SOL    HW260781   7.566   6.648   0.980
19648SOL     OW60782   8.730   8.265   4.496
19648SOL    HW160783   8.741   8.231   4.585
19648SOL    HW260784   8.769   8.352   4.499
19649SOL     OW60785   6.217   6.176   6.934
19649SOL    HW160786   6.196   6.203   7.023
19649SOL    HW260787   6.195   6.082   6.933
19650SOL     OW60788   0.527   0.031   2.203
19650SOL    HW160789   0.592   0.070   2.261
19650SOL    HW260790   0.443   0.054   2.242
19651SOL     OW60791  11.825   8.535  11.998
19651SOL    HW160792  11.824   8.625  12.031
19651SOL    HW260793  11.734   8.518  11.974
19652SOL     OW60794   2.693   9.809  13.659
19652SOL    HW160795   2.645   9.858  13.725
19652SOL    HW260796   2.782   9.804  13.693
19653SOL     OW60797  11.891   6.453   6.724
19653SOL    HW160798  11.827   6.523   6.736
19653SOL    HW260799  11.901   6.415   6.812
19654SOL     OW60800   3.320  12.314   6.536
19654SOL    HW160801   3.289  12.344   6.621
19654SOL    HW260802   3.316  12.218   6.541
19655SOL     OW60803   5.803  11.284  13.659
19655SOL    HW160804   5.812  11.363  13.712
19655SOL    HW260805   5.803  11.316  13.568
19656SOL     OW60806   1.517   6.628   1.864
19656SOL    HW160807   1.561   6.648   1.782
19656SOL    HW260808   1.496   6.714   1.901
19657SOL     OW60809  12.369   4.163  11.200
19657SOL    HW160810  12.344   4.071  11.214
19657SOL    HW260811  12.312   4.192  11.129
19658SOL     OW60812  10.475   6.416   6.087
19658SOL    HW160813  10.406   6.449   6.029
19658SOL    HW260814  10.429   6.381   6.163
19659SOL     OW60815  13.816   9.530  13.130
19659SOL    HW160816  13.872   9.457  13.156
19659SOL    HW260817  13.855   9.607  13.173
19660SOL     OW60818  11.727  13.870   9.482
19660SOL    HW160819  11.704  13.785   9.444
19660SOL    HW260820  11.809  13.894   9.439
19661SOL     OW60821  11.933   1.198   1.884
19661SOL    HW160822  12.001   1.132   1.900
19661SOL    HW260823  11.968   1.253   1.815
19662SOL     OW60824   1.236   6.167  14.371
19662SOL    HW160825   1.238   6.104  14.299
19662SOL    HW260826   1.166   6.229  14.347
19663SOL     OW60827  12.008   7.978   5.296
19663SOL    HW160828  11.915   7.999   5.286
19663SOL    HW260829  12.018   7.953   5.388
19664SOL     OW60830   5.520   9.210   8.127
19664SOL    HW160831   5.499   9.140   8.066
19664SOL    HW260832   5.448   9.208   8.191
19665SOL     OW60833   5.347   7.994   1.929
19665SOL    HW160834   5.260   8.029   1.914
19665SOL    HW260835   5.339   7.938   2.006
19666SOL     OW60836   7.606  10.647  10.943
19666SOL    HW160837   7.699  10.636  10.926
19666SOL    HW260838   7.584  10.573  11.000
19667SOL     OW60839   9.011   8.744  14.686
19667SOL    HW160840   8.963   8.702  14.615
19667SOL    HW260841   9.090   8.779  14.644
19668SOL     OW60842   7.345   4.074   2.842
19668SOL    HW160843   7.301   3.991   2.825
19668SOL    HW260844   7.360   4.074   2.936
19669SOL     OW60845   2.005  11.096   3.982
19669SOL    HW160846   2.065  11.170   3.991
19669SOL    HW260847   1.993  11.087   3.888
19670SOL     OW60848   3.891  14.340  12.918
19670SOL    HW160849   3.928  14.292  12.844
19670SOL    HW260850   3.967  14.363  12.972
19671SOL     OW60851   4.094   9.929  11.702
19671SOL    HW160852   4.119  10.016  11.731
19671SOL    HW260853   4.137   9.869  11.764
19672SOL     OW60854   4.680   7.323  12.247
19672SOL    HW160855   4.611   7.280  12.197
19672SOL    HW260856   4.753   7.261  12.244
19673SOL     OW60857   3.833  11.743  12.845
19673SOL    HW160858   3.873  11.753  12.932
19673SOL    HW260859   3.896  11.783  12.785
19674SOL     OW60860   4.588   8.616   8.706
19674SOL    HW160861   4.511   8.574   8.668
19674SOL    HW260862   4.658   8.552   8.693
19675SOL     OW60863   2.575   3.617   8.913
19675SOL    HW160864   2.646   3.674   8.942
19675SOL    HW260865   2.495   3.665   8.936
19676SOL     OW60866   7.070  14.683  11.268
19676SOL    HW160867   7.083  14.649  11.179
19676SOL    HW260868   7.077  14.778  11.258
19677SOL     OW60869   7.318   5.669   5.299
19677SOL    HW160870   7.294   5.576   5.301
19677SOL    HW260871   7.278   5.705   5.379
19678SOL     OW60872   7.479  13.108  12.196
19678SOL    HW160873   7.561  13.158  12.204
19678SOL    HW260874   7.433  13.124  12.278
19679SOL     OW60875   8.137   1.770   0.843
19679SOL    HW160876   8.230   1.751   0.855
19679SOL    HW260877   8.122   1.850   0.895
19680SOL     OW60878   0.938  14.341  11.876
19680SOL    HW160879   0.983  14.272  11.827
19680SOL    HW260880   0.885  14.293  11.941
19681SOL     OW60881   9.357   2.920   8.048
19681SOL    HW160882   9.383   2.942   8.138
19681SOL    HW260883   9.394   2.833   8.033
19682SOL     OW60884  14.150  13.090  13.882
19682SOL    HW160885  14.112  13.080  13.969
19682SOL    HW260886  14.079  13.069  13.822
19683SOL     OW60887   8.315  11.071   2.038
19683SOL    HW160888   8.299  11.061   1.944
19683SOL    HW260889   8.410  11.059   2.048
19684SOL     OW60890   1.193  12.091   8.769
19684SOL    HW160891   1.156  12.084   8.681
19684SOL    HW260892   1.287  12.093   8.755
19685SOL     OW60893  10.362   8.620   6.223
19685SOL    HW160894  10.352   8.606   6.129
19685SOL    HW260895  10.362   8.533   6.261
19686SOL     OW60896   0.877   6.498   8.705
19686SOL    HW160897   0.866   6.445   8.784
19686SOL    HW260898   0.833   6.448   8.636
19687SOL     OW60899   0.668  12.579   1.445
19687SOL    HW160900   0.630  12.492   1.455
19687SOL    HW260901   0.704  12.580   1.356
19688SOL     OW60902  13.388   6.412   0.718
19688SOL    HW160903  13.346   6.368   0.645
19688SOL    HW260904  13.354   6.368   0.796
19689SOL     OW60905  10.788   0.658  10.860
19689SOL    HW160906  10.782   0.658  10.765
19689SOL    HW260907  10.851   0.727  10.881
19690SOL     OW60908  14.708   8.327   6.288
19690SOL    HW160909  14.804   8.327   6.296
19690SOL    HW260910  14.690   8.255   6.228
19691SOL     OW60911  11.130   5.966  11.395
19691SOL    HW160912  11.091   6.005  11.473
19691SOL    HW260913  11.224   5.964  11.414
19692SOL     OW60914  14.677  10.384   3.870
19692SOL    HW160915  14.601  10.381   3.928
19692SOL    HW260916  14.647  10.345   3.788
19693SOL     OW60917  14.043   6.684   3.288
19693SOL    HW160918  14.068   6.689   3.196
19693SOL    HW260919  14.001   6.599   3.298
19694SOL     OW60920   6.801   4.899   6.994
19694SOL    HW160921   6.814   4.946   7.076
19694SOL    HW260922   6.729   4.946   6.951
19695SOL     OW60923   8.738  12.466   3.875
19695SOL    HW160924   8.815  12.523   3.884
19695SOL    HW260925   8.676  12.498   3.940
19696SOL     OW60926  10.601  13.837   6.704
19696SOL    HW160927  10.615  13.742   6.708
19696SOL    HW260928  10.507  13.848   6.713
19697SOL     OW60929   7.233   9.151   9.963
19697SOL    HW160930   7.174   9.078   9.944
19697SOL    HW260931   7.319   9.119   9.938
19698SOL     OW60932  11.449  10.990   9.945
19698SOL    HW160933  11.407  10.912   9.980
19698SOL    HW260934  11.541  10.966   9.935
19699SOL     OW60935  13.809  13.396   1.428
19699SOL    HW160936  13.876  13.453   1.467
19699SOL    HW260937  13.755  13.369   1.502
19700SOL     OW60938   8.203   6.403   4.208
19700SOL    HW160939   8.235   6.490   4.183
19700SOL    HW260940   8.243   6.386   4.294
19701SOL     OW60941  11.686  14.784   7.035
19701SOL    HW160942  11.679  14.844   6.960
19701SOL    HW260943  11.631  14.823   7.102
19702SOL     OW60944   3.703   3.681   1.113
19702SOL    HW160945   3.613   3.659   1.139
19702SOL    HW260946   3.737   3.600   1.074
19703SOL     OW60947  11.549   2.492   4.183
19703SOL    HW160948  11.462   2.482   4.145
19703SOL    HW260949  11.574   2.405   4.213
19704SOL     OW60950   8.645   4.001   9.951
19704SOL    HW160951   8.614   4.041  10.032
19704SOL    HW260952   8.592   3.921   9.942
19705SOL     OW60953  12.531   1.940   4.879
19705SOL    HW160954  12.480   1.961   4.801
19705SOL    HW260955  12.557   2.025   4.914
19706SOL     OW60956   1.301   0.125  10.196
19706SOL    HW160957   1.269   0.143  10.284
19706SOL    HW260958   1.228   0.151  10.139
19707SOL     OW60959   1.069  11.948  11.498
19707SOL    HW160960   1.000  11.946  11.564
19707SOL    HW260961   1.088  12.041  11.486
19708SOL     OW60962  14.866  11.173  14.143
19708SOL    HW160963  14.799  11.225  14.100
19708SOL    HW260964   0.072  11.202  14.102
19709SOL     OW60965  11.497   3.566   9.625
19709SOL    HW160966  11.476   3.551   9.533
19709SOL    HW260967  11.519   3.480   9.659
19710SOL     OW60968   4.546   8.422   0.694
19710SOL    HW160969   4.566   8.399   0.785
19710SOL    HW260970   4.600   8.499   0.677
19711SOL     OW60971   0.362   0.903   8.808
19711SOL    HW160972   0.427   0.957   8.764
19711SOL    HW260973   0.286   0.960   8.819
19712SOL     OW60974  10.828  12.088   0.468
19712SOL    HW160975  10.752  12.146   0.456
19712SOL    HW260976  10.791  12.007   0.504
19713SOL     OW60977   2.242   1.824   4.471
19713SOL    HW160978   2.176   1.891   4.456
19713SOL    HW260979   2.269   1.836   4.562
19714SOL     OW60980   1.123   4.334  12.766
19714SOL    HW160981   1.101   4.420  12.802
19714SOL    HW260982   1.082   4.334  12.679
19715SOL     OW60983  14.503   9.234  11.988
19715SOL    HW160984  14.557   9.196  11.918
19715SOL    HW260985  14.523   9.328  11.985
19716SOL     OW60986  11.082  13.377   0.801
19716SOL    HW160987  11.006  13.321   0.786
19716SOL    HW260988  11.095  13.421   0.716
19717SOL     OW60989  14.182  12.307   2.878
19717SOL    HW160990  14.238  12.366   2.828
19717SOL    HW260991  14.182  12.225   2.829
19718SOL     OW60992   8.008   4.951  10.477
19718SOL    HW160993   8.009   4.900  10.559
19718SOL    HW260994   7.959   4.896  10.416
19719SOL     OW60995   9.362  10.505   4.142
19719SOL    HW160996   9.289  10.453   4.107
19719SOL    HW260997   9.412  10.532   4.064
19720SOL     OW60998   7.845   4.388  12.154
19720SOL    HW160999   7.760   4.393  12.197
19720SOL    HW261000   7.897   4.457  12.195
19721SOL     OW61001   7.315  13.427   0.450
19721SOL    HW161002   7.300  13.492   0.381
19721SOL    HW261003   7.384  13.465   0.504
19722SOL     OW61004   3.526  14.747  13.532
19722SOL    HW161005   3.605  14.768  13.582
19722SOL    HW261006   3.523  14.813  13.463
19723SOL     OW61007   3.298  14.404   9.343
19723SOL    HW161008   3.338  14.319   9.358
19723SOL    HW261009   3.370  14.466   9.350
19724SOL     OW61010  12.660  14.339   9.169
19724SOL    HW161011  12.736  14.282   9.179
19724SOL    HW261012  12.627  14.322   9.081
19725SOL     OW61013   0.178  14.287  12.331
19725SOL    HW161014   0.088  14.315  12.314
19725SOL    HW261015   0.231  14.332  12.266
19726SOL     OW61016  12.972   2.547   5.680
19726SOL    HW161017  13.033   2.550   5.606
19726SOL    HW261018  12.997   2.468   5.728
19727SOL     OW61019  11.635  14.176   3.823
19727SOL    HW161020  11.730  14.167   3.830
19727SOL    HW261021  11.610  14.113   3.756
19728SOL     OW61022   1.579   8.947   5.543
19728SOL    HW161023   1.555   8.914   5.630
19728SOL    HW261024   1.664   8.907   5.525
19729SOL     OW61025   4.127   8.332   0.202
19729SOL    HW161026   4.146   8.396   0.270
19729SOL    HW261027   4.131   8.248   0.246
19730SOL     OW61028   8.374   5.012  13.840
19730SOL    HW161029   8.288   5.055  13.834
19730SOL    HW261030   8.384   4.970  13.754
19731SOL     OW61031   8.391   3.300   4.252
19731SOL    HW161032   8.361   3.212   4.275
19731SOL    HW261033   8.464   3.318   4.311
19732SOL     OW61034  10.250  10.591   1.481
19732SOL    HW161035  10.309  10.633   1.418
19732SOL    HW261036  10.198  10.663   1.517
19733SOL     OW61037   5.019  14.240   8.704
19733SOL    HW161038   5.023  14.274   8.794
19733SOL    HW261039   5.067  14.157   8.708
19734SOL     OW61040   2.103   8.764   1.266
19734SOL    HW161041   2.123   8.856   1.248
19734SOL    HW261042   2.166   8.715   1.214
19735SOL     OW61043   3.074   5.804   6.799
19735SOL    HW161044   3.117   5.847   6.725
19735SOL    HW261045   3.143   5.792   6.864
19736SOL     OW61046   6.598  13.723   8.184
19736SOL    HW161047   6.580  13.635   8.152
19736SOL    HW261048   6.536  13.736   8.256
19737SOL     OW61049   4.486  11.452   5.025
19737SOL    HW161050   4.444  11.512   4.963
19737SOL    HW261051   4.433  11.460   5.105
19738SOL     OW61052  13.830  12.972   4.104
19738SOL    HW161053  13.886  12.906   4.063
19738SOL    HW261054  13.748  12.966   4.056
19739SOL     OW61055   1.502  10.400   7.585
19739SOL    HW161056   1.592  10.418   7.612
19739SOL    HW261057   1.479  10.472   7.526
19740SOL     OW61058   5.666   8.859   4.780
19740SOL    HW161059   5.581   8.815   4.789
19740SOL    HW261060   5.643   8.950   4.758
19741SOL     OW61061   4.740  10.509   4.188
19741SOL    HW161062   4.754  10.513   4.283
19741SOL    HW261063   4.780  10.589   4.154
19742SOL     OW61064  13.337   9.896  10.158
19742SOL    HW161065  13.280   9.846  10.217
19742SOL    HW261066  13.341   9.983  10.197
19743SOL     OW61067   1.847   6.337   7.368
19743SOL    HW161068   1.769   6.389   7.348
19743SOL    HW261069   1.910   6.401   7.401
19744SOL     OW61070   5.579  10.517   3.537
19744SOL    HW161071   5.609  10.607   3.549
19744SOL    HW261072   5.519  10.522   3.462
19745SOL     OW61073   9.514  13.652  12.398
19745SOL    HW161074   9.523  13.557  12.389
19745SOL    HW261075   9.581  13.688  12.340
19746SOL     OW61076  11.937  13.846   4.288
19746SOL    HW161077  11.911  13.902   4.361
19746SOL    HW261078  11.996  13.782   4.327
19747SOL     OW61079   0.017   8.522   6.696
19747SOL    HW161080  14.811   8.543   6.651
19747SOL    HW261081   0.061   8.606   6.707
19748SOL     OW61082   0.508   9.818   8.467
19748SOL    HW161083   0.489   9.877   8.540
19748SOL    HW261084   0.536   9.737   8.508
19749SOL     OW61085   6.045   5.454   4.546
19749SOL    HW161086   5.969   5.434   4.600
19749SOL    HW261087   6.012   5.511   4.477
19750SOL     OW61088   0.955  10.138   3.454
19750SOL    HW161089   0.955  10.225   3.414
19750SOL    HW261090   1.004  10.150   3.536
19751SOL     OW61091   4.454   4.018   8.683
19751SOL    HW161092   4.533   4.017   8.736
19751SOL    HW261093   4.454   4.104   8.641
19752SOL     OW61094   9.366   4.607  13.440
19752SOL    HW161095   9.311   4.532  13.420
19752SOL    HW261096   9.441   4.570  13.488
19753SOL     OW61097   8.406   5.350   4.198
19753SOL    HW161098   8.445   5.292   4.263
19753SOL    HW261099   8.481   5.395   4.158
19754SOL     OW61100   1.933   2.467   4.234
19754SOL    HW161101   2.020   2.504   4.222
19754SOL    HW261102   1.929   2.393   4.174
19755SOL     OW61103   1.010   4.466   4.760
19755SOL    HW161104   0.988   4.551   4.799
19755SOL    HW261105   1.072   4.426   4.821
19756SOL     OW61106   4.763   0.469   4.138
19756SOL    HW161107   4.713   0.416   4.076
19756SOL    HW261108   4.853   0.439   4.129
19757SOL     OW61109  12.934  13.839   9.701
19757SOL    HW161110  12.930  13.869   9.792
19757SOL    HW261111  13.013  13.785   9.697
19758SOL     OW61112   6.437   6.261  14.202
19758SOL    HW161113   6.435   6.259  14.106
19758SOL    HW261114   6.503   6.196  14.226
19759SOL     OW61115  14.267  11.760   8.077
19759SOL    HW161116  14.293  11.723   7.992
19759SOL    HW261117  14.224  11.842   8.055
19760SOL     OW61118   0.788   9.894  11.248
19760SOL    HW161119   0.847   9.919  11.177
19760SOL    HW261120   0.701   9.894  11.208
19761SOL     OW61121   3.297  11.064   1.608
19761SOL    HW161122   3.235  11.066   1.534
19761SOL    HW261123   3.249  11.106   1.680
19762SOL     OW61124  12.855   2.091  10.414
19762SOL    HW161125  12.942   2.066  10.443
19762SOL    HW261126  12.796   2.036  10.467
19763SOL     OW61127   2.437   5.100  14.242
19763SOL    HW161128   2.532   5.088  14.236
19763SOL    HW261129   2.415   5.153  14.165
19764SOL     OW61130  14.723   4.268   2.355
19764SOL    HW161131  14.676   4.327   2.414
19764SOL    HW261132  14.809   4.257   2.395
19765SOL     OW61133  11.819   0.487   5.251
19765SOL    HW161134  11.889   0.451   5.306
19765SOL    HW261135  11.740   0.473   5.302
19766SOL     OW61136  10.577   8.695  11.436
19766SOL    HW161137  10.654   8.642  11.458
19766SOL    HW261138  10.581   8.770  11.495
19767SOL     OW61139  11.817   9.766   4.745
19767SOL    HW161140  11.905   9.801   4.732
19767SOL    HW261141  11.795   9.726   4.661
19768SOL     OW61142   8.230   2.851   5.722
19768SOL    HW161143   8.301   2.808   5.675
19768SOL    HW261144   8.219   2.934   5.676
19769SOL     OW61145   2.950   2.968   0.800
19769SOL    HW161146   3.025   2.930   0.846
19769SOL    HW261147   2.909   3.024   0.865
19770SOL     OW61148  10.884   1.436   1.184
19770SOL    HW161149  10.955   1.377   1.211
19770SOL    HW261150  10.815   1.378   1.153
19771SOL     OW61151  11.908   4.477   2.551
19771SOL    HW161152  11.931   4.385   2.561
19771SOL    HW261153  11.989   4.519   2.522
19772SOL     OW61154   2.468   1.200   9.710
19772SOL    HW161155   2.475   1.159   9.624
19772SOL    HW261156   2.424   1.284   9.693
19773SOL     OW61157  12.162   5.232  11.081
19773SOL    HW161158  12.159   5.205  10.989
19773SOL    HW261159  12.249   5.272  11.091
19774SOL     OW61160   1.781   0.299  14.593
19774SOL    HW161161   1.743   0.213  14.573
19774SOL    HW261162   1.749   0.356  14.523
19775SOL     OW61163   9.640  13.582  11.301
19775SOL    HW161164   9.676  13.542  11.222
19775SOL    HW261165   9.545  13.578  11.289
19776SOL     OW61166  14.271   2.570   4.298
19776SOL    HW161167  14.355   2.598   4.334
19776SOL    HW261168  14.288   2.484   4.260
19777SOL     OW61169   6.008   2.615   4.308
19777SOL    HW161170   5.956   2.548   4.353
19777SOL    HW261171   5.961   2.631   4.226
19778SOL     OW61172   3.007   3.315   6.665
19778SOL    HW161173   3.032   3.243   6.607
19778SOL    HW261174   2.944   3.277   6.726
19779SOL     OW61175   8.272  10.760   0.985
19779SOL    HW161176   8.200  10.698   0.980
19779SOL    HW261177   8.248  10.830   0.925
19780SOL     OW61178   1.302  14.489  12.846
19780SOL    HW161179   1.210  14.508  12.824
19780SOL    HW261180   1.306  14.496  12.941
19781SOL     OW61181   0.191  14.185   9.644
19781SOL    HW161182   0.275  14.145   9.618
19781SOL    HW261183   0.197  14.193   9.739
19782SOL     OW61184   5.350   0.687   2.702
19782SOL    HW161185   5.403   0.683   2.622
19782SOL    HW261186   5.311   0.775   2.699
19783SOL     OW61187  13.908   8.859   1.154
19783SOL    HW161188  13.896   8.946   1.192
19783SOL    HW261189  13.884   8.870   1.062
19784SOL     OW61190  10.302   0.939  11.943
19784SOL    HW161191  10.300   0.874  11.874
19784SOL    HW261192  10.392   0.974  11.940
19785SOL     OW61193   3.553   4.871   9.334
19785SOL    HW161194   3.562   4.956   9.376
19785SOL    HW261195   3.513   4.890   9.249
19786SOL     OW61196   8.752  12.614  10.734
19786SOL    HW161197   8.834  12.594  10.779
19786SOL    HW261198   8.687  12.622  10.804
19787SOL     OW61199   2.770  14.445   5.651
19787SOL    HW161200   2.682  14.412   5.667
19787SOL    HW261201   2.768  14.535   5.683
19788SOL     OW61202   3.186  13.068   3.908
19788SOL    HW161203   3.144  13.107   3.985
19788SOL    HW261204   3.234  12.993   3.943
19789SOL     OW61205  10.245   2.219  14.379
19789SOL    HW161206  10.161   2.245  14.341
19789SOL    HW261207  10.288   2.301  14.403
19790SOL     OW61208   4.317   9.719   9.341
19790SOL    HW161209   4.386   9.677   9.290
19790SOL    HW261210   4.346   9.711   9.432
19791SOL     OW61211   3.999  14.364   4.627
19791SOL    HW161212   4.005  14.301   4.699
19791SOL    HW261213   3.908  14.394   4.630
19792SOL     OW61214  11.039  11.395  13.415
19792SOL    HW161215  10.998  11.478  13.393
19792SOL    HW261216  11.119  11.419  13.462
19793SOL     OW61217   7.154  12.061   1.276
19793SOL    HW161218   7.154  12.105   1.361
19793SOL    HW261219   7.090  11.991   1.284
19794SOL     OW61220  13.362   4.627   2.892
19794SOL    HW161221  13.369   4.622   2.797
19794SOL    HW261222  13.452   4.632   2.922
19795SOL     OW61223   4.039  12.428   1.076
19795SOL    HW161224   4.012  12.391   1.160
19795SOL    HW261225   3.970  12.491   1.053
19796SOL     OW61226  11.395  11.551   7.914
19796SOL    HW161227  11.367  11.534   8.004
19796SOL    HW261228  11.463  11.486   7.898
19797SOL     OW61229   9.808  14.167   3.276
19797SOL    HW161230   9.758  14.108   3.219
19797SOL    HW261231   9.790  14.254   3.242
19798SOL     OW61232   4.801   2.944   3.384
19798SOL    HW161233   4.715   2.956   3.424
19798SOL    HW261234   4.853   2.900   3.451
19799SOL     OW61235   5.252   0.489   4.895
19799SOL    HW161236   5.181   0.445   4.941
19799SOL    HW261237   5.211   0.562   4.851
19800SOL     OW61238   0.128   4.800   0.931
19800SOL    HW161239   0.105   4.886   0.894
19800SOL    HW261240   0.213   4.814   0.974
19801SOL     OW61241  13.680   9.705  13.722
19801SOL    HW161242  13.627   9.765  13.776
19801SOL    HW261243  13.770   9.729  13.741
19802SOL     OW61244  13.227   1.418   3.466
19802SOL    HW161245  13.202   1.510   3.455
19802SOL    HW261246  13.208   1.400   3.558
19803SOL     OW61247  10.580  12.828  12.587
19803SOL    HW161248  10.646  12.776  12.633
19803SOL    HW261249  10.608  12.827  12.495
19804SOL     OW61250   3.057   4.118   8.757
19804SOL    HW161251   3.099   4.052   8.701
19804SOL    HW261252   2.985   4.152   8.704
19805SOL     OW61253   1.663   9.188   4.129
19805SOL    HW161254   1.705   9.122   4.183
19805SOL    HW261255   1.735   9.227   4.079
19806SOL     OW61256   0.751   5.117   9.138
19806SOL    HW161257   0.688   5.115   9.066
19806SOL    HW261258   0.703   5.077   9.211
19807SOL     OW61259   3.518   5.850   9.363
19807SOL    HW161260   3.505   5.876   9.272
19807SOL    HW261261   3.554   5.927   9.406
19808SOL     OW61262   9.632  12.146   7.891
19808SOL    HW161263   9.555  12.099   7.859
19808SOL    HW261264   9.699  12.131   7.825
19809SOL     OW61265   7.494  10.187  10.500
19809SOL    HW161266   7.510  10.120  10.434
19809SOL    HW261267   7.404  10.214  10.486
19810SOL     OW61268  14.343  11.374   5.947
19810SOL    HW161269  14.250  11.384   5.928
19810SOL    HW261270  14.379  11.333   5.869
19811SOL     OW61271  10.796  13.521  12.929
19811SOL    HW161272  10.771  13.490  12.842
19811SOL    HW261273  10.844  13.602  12.912
19812SOL     OW61274   7.912   0.287   1.026
19812SOL    HW161275   7.821   0.295   0.998
19812SOL    HW261276   7.945   0.376   1.026
19813SOL     OW61277  12.668   9.059   4.459
19813SOL    HW161278  12.718   9.117   4.401
19813SOL    HW261279  12.691   8.971   4.430
19814SOL     OW61280   0.155   5.070   3.391
19814SOL    HW161281   0.179   5.147   3.340
19814SOL    HW261282   0.111   5.105   3.469
19815SOL     OW61283   5.950   8.557   3.907
19815SOL    HW161284   5.955   8.588   3.816
19815SOL    HW261285   5.865   8.513   3.912
19816SOL     OW61286   4.581   0.658   9.276
19816SOL    HW161287   4.589   0.689   9.367
19816SOL    HW261288   4.629   0.723   9.225
19817SOL     OW61289  11.222  13.289  10.309
19817SOL    HW161290  11.286  13.226  10.276
19817SOL    HW261291  11.139  13.260  10.271
19818SOL     OW61292  10.507   7.604  12.835
19818SOL    HW161293  10.527   7.697  12.823
19818SOL    HW261294  10.592   7.560  12.829
19819SOL     OW61295   4.035  11.527   4.790
19819SOL    HW161296   3.957  11.491   4.751
19819SOL    HW261297   4.045  11.613   4.750
19820SOL     OW61298   4.177   7.567  14.486
19820SOL    HW161299   4.161   7.611  14.402
19820SOL    HW261300   4.248   7.505  14.468
19821SOL     OW61301   6.979   2.549   4.032
19821SOL    HW161302   6.894   2.542   3.988
19821SOL    HW261303   6.958   2.542   4.125
19822SOL     OW61304   7.422  13.671  14.735
19822SOL    HW161305   7.419  13.753  14.784
19822SOL    HW261306   7.330  13.648  14.723
19823SOL     OW61307  12.715   3.130   0.514
19823SOL    HW161308  12.785   3.069   0.535
19823SOL    HW261309  12.646   3.110   0.576
19824SOL     OW61310  11.052   9.347   6.801
19824SOL    HW161311  11.044   9.286   6.728
19824SOL    HW261312  10.990   9.314   6.866
19825SOL     OW61313   7.075   3.682  11.669
19825SOL    HW161314   7.136   3.641  11.608
19825SOL    HW261315   6.988   3.659  11.637
19826SOL     OW61316   1.828  13.121   9.228
19826SOL    HW161317   1.826  13.197   9.171
19826SOL    HW261318   1.801  13.048   9.173
19827SOL     OW61319   1.900   9.588  11.192
19827SOL    HW161320   1.860   9.643  11.259
19827SOL    HW261321   1.993   9.588  11.214
19828SOL     OW61322   4.953  13.134   7.195
19828SOL    HW161323   4.983  13.214   7.152
19828SOL    HW261324   5.029  13.075   7.191
19829SOL     OW61325   0.062   8.051   9.614
19829SOL    HW161326   0.106   7.985   9.668
19829SOL    HW261327  14.845   8.040   9.634
19830SOL     OW61328   2.521  12.141   7.036
19830SOL    HW161329   2.466  12.152   6.958
19830SOL    HW261330   2.466  12.172   7.108
19831SOL     OW61331  12.698   3.381   4.996
19831SOL    HW161332  12.642   3.394   4.919
19831SOL    HW261333  12.695   3.466   5.041
19832SOL     OW61334   4.581   0.848   8.787
19832SOL    HW161335   4.547   0.797   8.713
19832SOL    HW261336   4.505   0.860   8.844
19833SOL     OW61337   0.766   7.270  14.601
19833SOL    HW161338   0.831   7.207  14.632
19833SOL    HW261339   0.714   7.291  14.679
19834SOL     OW61340   2.392  14.365  14.806
19834SOL    HW161341   2.366  14.456  14.792
19834SOL    HW261342   2.420  14.362   0.021
19835SOL     OW61343   2.606  10.501   8.983
19835SOL    HW161344   2.680  10.500   8.922
19835SOL    HW261345   2.559  10.581   8.962
19836SOL     OW61346   2.826   2.270   8.958
19836SOL    HW161347   2.737   2.248   8.983
19836SOL    HW261348   2.840   2.358   8.992
19837SOL     OW61349  11.543  14.342   6.053
19837SOL    HW161350  11.588  14.385   5.980
19837SOL    HW261351  11.459  14.316   6.016
19838SOL     OW61352  14.514   1.837  10.529
19838SOL    HW161353  14.576   1.855  10.458
19838SOL    HW261354  14.512   1.918  10.580
19839SOL     OW61355  14.259  11.626   6.317
19839SOL    HW161356  14.352  11.607   6.307
19839SOL    HW261357  14.251  11.664   6.405
19840SOL     OW61358  10.102  14.644   1.856
19840SOL    HW161359  10.188  14.674   1.885
19840SOL    HW261360  10.092  14.681   1.768
19841SOL     OW61361   0.555  12.271  10.721
19841SOL    HW161362   0.497  12.330  10.672
19841SOL    HW261363   0.513  12.264  10.807
19842SOL     OW61364   3.043   5.072   8.384
19842SOL    HW161365   3.026   5.160   8.419
19842SOL    HW261366   3.037   5.015   8.461
19843SOL     OW61367  13.417   6.992   7.659
19843SOL    HW161368  13.345   7.026   7.607
19843SOL    HW261369  13.467   7.069   7.684
19844SOL     OW61370   8.604  10.229  12.443
19844SOL    HW161371   8.510  10.214  12.433
19844SOL    HW261372   8.628  10.281  12.367
19845SOL     OW61373   0.793   1.971   6.352
19845SOL    HW161374   0.722   1.934   6.405
19845SOL    HW261375   0.748   2.019   6.282
19846SOL     OW61376  12.234   6.286   0.730
19846SOL    HW161377  12.215   6.193   0.716
19846SOL    HW261378  12.227   6.324   0.642
19847SOL     OW61379   6.909   5.739   9.708
19847SOL    HW161380   6.982   5.801   9.696
19847SOL    HW261381   6.863   5.771   9.786
19848SOL     OW61382   4.643   7.595  10.297
19848SOL    HW161383   4.718   7.596  10.237
19848SOL    HW261384   4.567   7.611  10.241
19849SOL     OW61385   6.075  10.219   0.171
19849SOL    HW161386   6.099  10.282   0.239
19849SOL    HW261387   6.048  10.273   0.097
19850SOL     OW61388   0.367   6.871   5.605
19850SOL    HW161389   0.448   6.822   5.590
19850SOL    HW261390   0.326   6.827   5.679
19851SOL     OW61391   1.613   8.192   6.802
19851SOL    HW161392   1.707   8.200   6.816
19851SOL    HW261393   1.598   8.236   6.718
19852SOL     OW61394   6.362   1.152   1.330
19852SOL    HW161395   6.433   1.102   1.371
19852SOL    HW261396   6.402   1.237   1.310
19853SOL     OW61397   1.385   1.298  10.189
19853SOL    HW161398   1.434   1.277  10.269
19853SOL    HW261399   1.398   1.392  10.177
19854SOL     OW61400   0.306   7.650   3.060
19854SOL    HW161401   0.270   7.683   3.142
19854SOL    HW261402   0.373   7.713   3.035
19855SOL     OW61403  11.292   7.919  11.908
19855SOL    HW161404  11.231   7.875  11.849
19855SOL    HW261405  11.262   8.010  11.912
19856SOL     OW61406   9.773   7.352  14.501
19856SOL    HW161407   9.747   7.261  14.510
19856SOL    HW261408   9.860   7.356  14.542
19857SOL     OW61409   1.960  11.090   1.074
19857SOL    HW161410   1.946  11.022   1.140
19857SOL    HW261411   2.028  11.055   1.017
19858SOL     OW61412   5.731   9.206   3.099
19858SOL    HW161413   5.676   9.265   3.151
19858SOL    HW261414   5.669   9.149   3.054
19859SOL     OW61415   9.723  11.949   9.866
19859SOL    HW161416   9.814  11.934   9.839
19859SOL    HW261417   9.675  11.962   9.785
19860SOL     OW61418   4.642   4.953   8.645
19860SOL    HW161419   4.673   4.976   8.558
19860SOL    HW261420   4.695   5.005   8.705
19861SOL     OW61421   7.418  12.720  10.016
19861SOL    HW161422   7.378  12.805   9.993
19861SOL    HW261423   7.352  12.677  10.070
19862SOL     OW61424  11.223   4.939  11.699
19862SOL    HW161425  11.196   4.875  11.634
19862SOL    HW261426  11.293   4.988  11.657
19863SOL     OW61427  14.662   9.404   6.806
19863SOL    HW161428  14.721   9.392   6.731
19863SOL    HW261429  14.638   9.315   6.831
19864SOL     OW61430   8.393   9.138   7.321
19864SOL    HW161431   8.382   9.101   7.233
19864SOL    HW261432   8.311   9.116   7.365
19865SOL     OW61433  10.024  10.882   3.738
19865SOL    HW161434   9.994  10.972   3.726
19865SOL    HW261435  10.070  10.884   3.822
19866SOL     OW61436   5.163   7.512   5.833
19866SOL    HW161437   5.134   7.485   5.920
19866SOL    HW261438   5.106   7.464   5.773
19867SOL     OW61439   1.550  11.316  14.128
19867SOL    HW161440   1.507  11.397  14.156
19867SOL    HW261441   1.642  11.328  14.153
19868SOL     OW61442   2.266   2.817   9.556
19868SOL    HW161443   2.276   2.795   9.463
19868SOL    HW261444   2.355   2.831   9.587
19869SOL     OW61445  12.384   4.023   6.489
19869SOL    HW161446  12.416   4.102   6.447
19869SOL    HW261447  12.289   4.037   6.497
19870SOL     OW61448   3.423  13.521  10.356
19870SOL    HW161449   3.443  13.441  10.404
19870SOL    HW261450   3.465  13.591  10.406
19871SOL     OW61451   8.669   8.567  11.526
19871SOL    HW161452   8.590   8.528  11.488
19871SOL    HW261453   8.657   8.661  11.513
19872SOL     OW61454   7.815   4.134  12.919
19872SOL    HW161455   7.872   4.195  12.872
19872SOL    HW261456   7.872   4.095  12.986
19873SOL     OW61457  13.864   5.823  12.363
19873SOL    HW161458  13.871   5.750  12.302
19873SOL    HW261459  13.831   5.896  12.310
19874SOL     OW61460   1.616   3.729   0.429
19874SOL    HW161461   1.606   3.635   0.414
19874SOL    HW261462   1.705   3.737   0.464
19875SOL     OW61463   9.293   8.243   8.746
19875SOL    HW161464   9.322   8.312   8.686
19875SOL    HW261465   9.209   8.213   8.710
19876SOL     OW61466  11.421  12.334   4.711
19876SOL    HW161467  11.351  12.388   4.747
19876SOL    HW261468  11.439  12.372   4.625
19877SOL     OW61469  13.492   6.858   5.978
19877SOL    HW161470  13.501   6.809   6.060
19877SOL    HW261471  13.493   6.791   5.909
19878SOL     OW61472   3.443  13.159   5.144
19878SOL    HW161473   3.393  13.213   5.083
19878SOL    HW261474   3.411  13.070   5.129
19879SOL     OW61475   7.442  13.673   8.629
19879SOL    HW161476   7.460  13.705   8.541
19879SOL    HW261477   7.487  13.734   8.687
19880SOL     OW61478  11.262  13.769   8.323
19880SOL    HW161479  11.174  13.774   8.284
19880SOL    HW261480  11.262  13.836   8.391
19881SOL     OW61481  12.578   8.992   0.287
19881SOL    HW161482  12.628   8.911   0.289
19881SOL    HW261483  12.563   9.009   0.194
19882SOL     OW61484   7.179   5.743   9.315
19882SOL    HW161485   7.255   5.710   9.268
19882SOL    HW261486   7.105   5.723   9.258
19883SOL     OW61487   8.582   3.661  11.030
19883SOL    HW161488   8.587   3.646  11.125
19883SOL    HW261489   8.492   3.637  11.007
19884SOL     OW61490   8.638  13.966   5.589
19884SOL    HW161491   8.646  14.059   5.567
19884SOL    HW261492   8.544  13.949   5.588
19885SOL     OW61493  12.943   5.579  10.682
19885SOL    HW161494  12.876   5.512  10.674
19885SOL    HW261495  12.912   5.652  10.628
19886SOL     OW61496   1.062   9.794  13.407
19886SOL    HW161497   0.994   9.809  13.473
19886SOL    HW261498   1.083   9.882  13.375
19887SOL     OW61499   2.575   3.733  11.795
19887SOL    HW161500   2.600   3.776  11.713
19887SOL    HW261501   2.593   3.798  11.863
19888SOL     OW61502  13.331   1.933   8.852
19888SOL    HW161503  13.347   1.851   8.806
19888SOL    HW261504  13.240   1.954   8.833
19889SOL     OW61505   7.275  14.458   8.075
19889SOL    HW161506   7.240  14.398   8.141
19889SOL    HW261507   7.342  14.508   8.121
19890SOL     OW61508  11.176   3.567   4.952
19890SOL    HW161509  11.084   3.581   4.974
19890SOL    HW261510  11.189   3.614   4.870
19891SOL     OW61511  13.708   1.272  11.798
19891SOL    HW161512  13.743   1.183  11.784
19891SOL    HW261513  13.653   1.288  11.721
19892SOL     OW61514   9.527   7.293  10.820
19892SOL    HW161515   9.597   7.256  10.767
19892SOL    HW261516   9.463   7.325  10.757
19893SOL     OW61517   2.087   8.371   7.022
19893SOL    HW161518   2.103   8.289   7.068
19893SOL    HW261519   2.034   8.422   7.083
19894SOL     OW61520   4.304   9.391   2.913
19894SOL    HW161521   4.397   9.378   2.929
19894SOL    HW261522   4.300   9.468   2.856
19895SOL     OW61523   8.861  13.282   4.805
19895SOL    HW161524   8.902  13.268   4.720
19895SOL    HW261525   8.771  13.252   4.793
19896SOL     OW61526  10.540   0.752   5.045
19896SOL    HW161527  10.503   0.664   5.043
19896SOL    HW261528  10.632   0.740   5.018
19897SOL     OW61529   4.853   2.880   6.219
19897SOL    HW161530   4.929   2.914   6.172
19897SOL    HW261531   4.856   2.925   6.304
19898SOL     OW61532   8.697   9.611   7.469
19898SOL    HW161533   8.699   9.704   7.492
19898SOL    HW261534   8.607   9.584   7.486
19899SOL     OW61535   8.249  12.613  13.042
19899SOL    HW161536   8.314  12.571  12.985
19899SOL    HW261537   8.165  12.580  13.011
19900SOL     OW61538   5.556   6.726   8.239
19900SOL    HW161539   5.565   6.676   8.158
19900SOL    HW261540   5.473   6.772   8.230
19901SOL     OW61541   6.062  12.744  11.524
19901SOL    HW161542   6.080  12.738  11.618
19901SOL    HW261543   6.110  12.821  11.495
19902SOL     OW61544   5.685   0.128  14.863
19902SOL    HW161545   5.631   0.202   0.014
19902SOL    HW261546   5.769   0.167  14.838
19903SOL     OW61547   8.558  14.513   4.933
19903SOL    HW161548   8.469  14.548   4.940
19903SOL    HW261549   8.603  14.547   5.010
19904SOL     OW61550   0.419  13.470  11.786
19904SOL    HW161551   0.363  13.528  11.734
19904SOL    HW261552   0.417  13.386  11.739
19905SOL     OW61553   2.389  13.301  13.949
19905SOL    HW161554   2.324  13.330  14.013
19905SOL    HW261555   2.447  13.243  13.999
19906SOL     OW61556   5.864   5.954  14.081
19906SOL    HW161557   5.888   5.882  14.023
19906SOL    HW261558   5.798   6.003  14.033
19907SOL     OW61559  12.133   1.625   7.396
19907SOL    HW161560  12.149   1.664   7.310
19907SOL    HW261561  12.188   1.675   7.456
19908SOL     OW61562   7.749   5.719   9.019
19908SOL    HW161563   7.707   5.634   9.000
19908SOL    HW261564   7.839   5.708   8.990
19909SOL     OW61565   8.250   1.841  10.318
19909SOL    HW161566   8.251   1.926  10.361
19909SOL    HW261567   8.334   1.836  10.272
19910SOL     OW61568   2.569   2.893  11.861
19910SOL    HW161569   2.474   2.890  11.871
19910SOL    HW261570   2.603   2.895  11.950
19911SOL     OW61571   8.111   8.917   3.594
19911SOL    HW161572   8.204   8.933   3.610
19911SOL    HW261573   8.065   8.978   3.651
19912SOL     OW61574   6.042  12.617   5.422
19912SOL    HW161575   6.066  12.526   5.409
19912SOL    HW261576   6.119  12.658   5.461
19913SOL     OW61577   6.215   2.086  13.877
19913SOL    HW161578   6.257   2.108  13.794
19913SOL    HW261579   6.253   2.147  13.940
19914SOL     OW61580   4.059  12.878   0.013
19914SOL    HW161581   4.119  12.837  14.828
19914SOL    HW261582   4.096  12.965   0.028
19915SOL     OW61583   2.066   1.186   6.520
19915SOL    HW161584   2.116   1.222   6.593
19915SOL    HW261585   2.044   1.097   6.547
19916SOL     OW61586   2.706  11.575   2.107
19916SOL    HW161587   2.681  11.524   2.185
19916SOL    HW261588   2.670  11.662   2.123
19917SOL     OW61589   2.717   7.269   9.244
19917SOL    HW161590   2.772   7.196   9.215
19917SOL    HW261591   2.779   7.337   9.268
19918SOL     OW61592   0.224   1.797   0.830
19918SOL    HW161593   0.222   1.841   0.915
19918SOL    HW261594   0.243   1.706   0.850
19919SOL     OW61595   0.838  14.012  11.654
19919SOL    HW161596   0.889  13.993  11.733
19919SOL    HW261597   0.864  14.100  11.629
19920SOL     OW61598   2.033   9.394   8.805
19920SOL    HW161599   1.957   9.371   8.752
19920SOL    HW261600   2.083   9.455   8.751
19921SOL     OW61601  12.683   7.731  10.543
19921SOL    HW161602  12.703   7.691  10.627
19921SOL    HW261603  12.588   7.718  10.532
19922SOL     OW61604  10.112   1.087  11.504
19922SOL    HW161605  10.086   1.140  11.579
19922SOL    HW261606  10.204   1.108  11.490
19923SOL     OW61607   8.425   7.325   3.160
19923SOL    HW161608   8.331   7.333   3.144
19923SOL    HW261609   8.448   7.239   3.124
19924SOL     OW61610   0.278   6.336   8.907
19924SOL    HW161611   0.258   6.359   8.816
19924SOL    HW261612   0.253   6.414   8.957
19925SOL     OW61613   1.219  12.991   6.946
19925SOL    HW161614   1.278  12.967   7.018
19925SOL    HW261615   1.160  13.056   6.983
19926SOL     OW61616   9.296  14.448   4.649
19926SOL    HW161617   9.247  14.530   4.649
19926SOL    HW261618   9.232  14.381   4.624
19927SOL     OW61619   7.919   5.043   6.445
19927SOL    HW161620   7.919   5.132   6.409
19927SOL    HW261621   7.934   5.055   6.539
19928SOL     OW61622   6.529   0.077  11.046
19928SOL    HW161623   6.546   0.143  10.979
19928SOL    HW261624   6.451   0.109  11.092
19929SOL     OW61625   6.287   3.595   2.271
19929SOL    HW161626   6.249   3.562   2.190
19929SOL    HW261627   6.211   3.619   2.325
19930SOL     OW61628  12.924   4.917   1.610
19930SOL    HW161629  12.948   4.826   1.592
19930SOL    HW261630  12.994   4.969   1.569
19931SOL     OW61631  12.495   7.851  13.212
19931SOL    HW161632  12.526   7.921  13.155
19931SOL    HW261633  12.506   7.886  13.301
19932SOL     OW61634   2.831   5.027  12.550
19932SOL    HW161635   2.908   5.056  12.503
19932SOL    HW261636   2.763   5.020  12.484
19933SOL     OW61637   1.545  12.015   0.953
19933SOL    HW161638   1.461  12.059   0.968
19933SOL    HW261639   1.565  12.034   0.861
19934SOL     OW61640   4.983   6.690  11.849
19934SOL    HW161641   5.067   6.693  11.896
19934SOL    HW261642   5.007   6.680  11.757
19935SOL     OW61643   7.965  14.101  12.235
19935SOL    HW161644   7.881  14.140  12.258
19935SOL    HW261645   7.994  14.150  12.158
19936SOL     OW61646   7.570   6.071   8.485
19936SOL    HW161647   7.610   6.042   8.404
19936SOL    HW261648   7.490   6.019   8.493
19937SOL     OW61649  10.039   0.796  10.218
19937SOL    HW161650   9.966   0.844  10.259
19937SOL    HW261651  10.116   0.823  10.267
19938SOL     OW61652   1.453   7.373  14.770
19938SOL    HW161653   1.443   7.351  14.677
19938SOL    HW261654   1.370   7.344  14.810
19939SOL     OW61655   1.867  11.870   7.026
19939SOL    HW161656   1.792  11.907   6.980
19939SOL    HW261657   1.889  11.791   6.977
19940SOL     OW61658  12.565  12.790  13.306
19940SOL    HW161659  12.638  12.748  13.261
19940SOL    HW261660  12.487  12.744  13.274
19941SOL     OW61661  11.626  10.591   0.916
19941SOL    HW161662  11.557  10.626   0.973
19941SOL    HW261663  11.708  10.615   0.960
19942SOL     OW61664  11.765  12.447   1.415
19942SOL    HW161665  11.844  12.392   1.415
19942SOL    HW261666  11.693  12.385   1.429
19943SOL     OW61667   1.551   3.188  10.192
19943SOL    HW161668   1.541   3.258  10.128
19943SOL    HW261669   1.645   3.181  10.206
19944SOL     OW61670  11.667   4.745  10.824
19944SOL    HW161671  11.631   4.660  10.801
19944SOL    HW261672  11.723   4.728  10.899
19945SOL     OW61673   8.572   3.164   2.555
19945SOL    HW161674   8.630   3.138   2.627
19945SOL    HW261675   8.631   3.181   2.481
19946SOL     OW61676  12.688   7.591   1.903
19946SOL    HW161677  12.619   7.573   1.967
19946SOL    HW261678  12.720   7.505   1.876
19947SOL     OW61679   0.781   0.827   8.549
19947SOL    HW161680   0.743   0.819   8.461
19947SOL    HW261681   0.705   0.820   8.608
19948SOL     OW61682   5.046  10.390   8.951
19948SOL    HW161683   4.959  10.406   8.986
19948SOL    HW261684   5.033  10.328   8.879
19949SOL     OW61685   0.410   6.593   3.916
19949SOL    HW161686   0.319   6.562   3.913
19949SOL    HW261687   0.423   6.621   4.006
19950SOL     OW61688  10.017  11.609   7.889
19950SOL    HW161689  10.104  11.569   7.883
19950SOL    HW261690  10.034  11.701   7.909
19951SOL     OW61691  14.065   5.803   7.913
19951SOL    HW161692  13.983   5.780   7.870
19951SOL    HW261693  14.070   5.898   7.906
19952SOL     OW61694   6.919   3.705  10.496
19952SOL    HW161695   6.843   3.757  10.523
19952SOL    HW261696   6.898   3.616  10.523
19953SOL     OW61697   6.802   1.758   1.536
19953SOL    HW161698   6.870   1.816   1.502
19953SOL    HW261699   6.744   1.741   1.462
19954SOL     OW61700   7.147   0.121   3.526
19954SOL    HW161701   7.177   0.192   3.582
19954SOL    HW261702   7.052   0.133   3.520
19955SOL     OW61703   7.163  11.780  10.473
19955SOL    HW161704   7.121  11.842  10.532
19955SOL    HW261705   7.235  11.829  10.434
19956SOL     OW61706   8.513   1.856   1.982
19956SOL    HW161707   8.423   1.829   2.001
19956SOL    HW261708   8.504   1.943   1.943
19957SOL     OW61709   4.615   3.852   8.944
19957SOL    HW161710   4.564   3.915   8.995
19957SOL    HW261711   4.706   3.881   8.954
19958SOL     OW61712   3.916   2.871   8.500
19958SOL    HW161713   3.893   2.818   8.424
19958SOL    HW261714   3.936   2.957   8.463
19959SOL     OW61715   2.778   3.529   8.182
19959SOL    HW161716   2.826   3.477   8.246
19959SOL    HW261717   2.694   3.483   8.171
19960SOL     OW61718   8.576   5.325  12.516
19960SOL    HW161719   8.633   5.369  12.453
19960SOL    HW261720   8.611   5.349  12.602
19961SOL     OW61721   4.586   7.643   4.988
19961SOL    HW161722   4.668   7.618   5.030
19961SOL    HW261723   4.531   7.673   5.060
19962SOL     OW61724   0.129   1.783   4.684
19962SOL    HW161725   0.075   1.861   4.699
19962SOL    HW261726   0.146   1.748   4.771
19963SOL     OW61727   3.643  11.306   9.239
19963SOL    HW161728   3.677  11.245   9.174
19963SOL    HW261729   3.617  11.383   9.189
19964SOL     OW61730   1.861   4.302  14.669
19964SOL    HW161731   1.838   4.393  14.689
19964SOL    HW261732   1.934   4.309  14.607
19965SOL     OW61733   0.042  10.230  11.361
19965SOL    HW161734  14.830  10.194  11.353
19965SOL    HW261735   0.028  10.324  11.373
19966SOL     OW61736   4.067  12.889   8.034
19966SOL    HW161737   4.026  12.874   7.949
19966SOL    HW261738   4.017  12.833   8.095
19967SOL     OW61739   5.375  13.438   5.157
19967SOL    HW161740   5.379  13.504   5.226
19967SOL    HW261741   5.289  13.451   5.117
19968SOL     OW61742   5.374   5.986   1.146
19968SOL    HW161743   5.408   6.073   1.123
19968SOL    HW261744   5.400   5.974   1.237
19969SOL     OW61745  13.989   3.543   8.706
19969SOL    HW161746  13.904   3.529   8.747
19969SOL    HW261747  13.988   3.487   8.629
19970SOL     OW61748  13.801   2.064   7.565
19970SOL    HW161749  13.822   2.141   7.618
19970SOL    HW261750  13.777   1.997   7.629
19971SOL     OW61751  10.221  14.802   6.783
19971SOL    HW161752  10.164  14.737   6.741
19971SOL    HW261753  10.165  14.844   6.848
19972SOL     OW61754   2.626  11.521   7.446
19972SOL    HW161755   2.663  11.475   7.522
19972SOL    HW261756   2.576  11.593   7.484
19973SOL     OW61757   7.261  11.813   7.558
19973SOL    HW161758   7.212  11.803   7.476
19973SOL    HW261759   7.194  11.811   7.626
19974SOL     OW61760   8.119  13.090   2.176
19974SOL    HW161761   8.194  13.070   2.121
19974SOL    HW261762   8.104  13.010   2.226
19975SOL     OW61763  10.764   9.932   3.014
19975SOL    HW161764  10.793   9.843   2.990
19975SOL    HW261765  10.737   9.924   3.106
19976SOL     OW61766   5.645   3.768  11.291
19976SOL    HW161767   5.666   3.854  11.256
19976SOL    HW261768   5.562   3.745  11.251
19977SOL     OW61769   7.467   3.506   8.015
19977SOL    HW161770   7.472   3.520   8.109
19977SOL    HW261771   7.547   3.545   7.980
19978SOL     OW61772   8.537  14.814  12.075
19978SOL    HW161773   8.489  14.751  12.129
19978SOL    HW261774   8.478   0.012  12.066
19979SOL     OW61775   0.656  13.587   5.262
19979SOL    HW161776   0.666  13.497   5.292
19979SOL    HW261777   0.707  13.592   5.181
19980SOL     OW61778  12.745   5.773  10.137
19980SOL    HW161779  12.798   5.849  10.162
19980SOL    HW261780  12.666   5.810  10.098
19981SOL     OW61781   7.092   1.032   9.183
19981SOL    HW161782   6.999   1.012   9.189
19981SOL    HW261783   7.124   1.021   9.273
19982SOL     OW61784  13.230  14.230  14.779
19982SOL    HW161785  13.179  14.267  14.707
19982SOL    HW261786  13.231  14.300  14.845
19983SOL     OW61787   1.980  11.169  11.689
19983SOL    HW161788   2.064  11.197  11.725
19983SOL    HW261789   2.000  11.088  11.642
19984SOL     OW61790   2.161   8.788   5.450
19984SOL    HW161791   2.165   8.731   5.373
19984SOL    HW261792   2.213   8.742   5.516
19985SOL     OW61793   2.476   7.104   1.718
19985SOL    HW161794   2.526   7.042   1.771
19985SOL    HW261795   2.441   7.166   1.782
19986SOL     OW61796   4.414  14.027  11.714
19986SOL    HW161797   4.321  14.006  11.701
19986SOL    HW261798   4.432  14.097  11.651
19987SOL     OW61799   1.535   4.097   1.743
19987SOL    HW161800   1.521   4.072   1.652
19987SOL    HW261801   1.448   4.097   1.782
19988SOL     OW61802   0.716  10.116   5.626
19988SOL    HW161803   0.643  10.161   5.669
19988SOL    HW261804   0.676  10.071   5.552
19989SOL     OW61805  14.331   1.084  12.549
19989SOL    HW161806  14.339   1.180  12.554
19989SOL    HW261807  14.401   1.057  12.491
19990SOL     OW61808   4.314  12.702   1.413
19990SOL    HW161809   4.251  12.742   1.473
19990SOL    HW261810   4.333  12.617   1.452
19991SOL     OW61811  11.023   8.989   8.216
19991SOL    HW161812  11.069   8.923   8.267
19991SOL    HW261813  11.056   9.073   8.250
19992SOL     OW61814  12.430   4.466   8.524
19992SOL    HW161815  12.441   4.374   8.550
19992SOL    HW261816  12.443   4.516   8.604
19993SOL     OW61817   6.284  12.610   4.439
19993SOL    HW161818   6.236  12.556   4.501
19993SOL    HW261819   6.336  12.548   4.388
19994SOL     OW61820   4.903  12.210   4.141
19994SOL    HW161821   4.937  12.149   4.075
19994SOL    HW261822   4.847  12.269   4.091
19995SOL     OW61823   6.090   4.528  12.361
19995SOL    HW161824   6.177   4.560  12.383
19995SOL    HW261825   6.044   4.605  12.327
19996SOL     OW61826   6.020  14.561   1.798
19996SOL    HW161827   5.938  14.601   1.826
19996SOL    HW261828   6.073  14.634   1.765
19997SOL     OW61829   8.238   5.106   6.198
19997SOL    HW161830   8.220   5.136   6.287
19997SOL    HW261831   8.175   5.152   6.144
19998SOL     OW61832   3.043  12.548  12.108
19998SOL    HW161833   2.980  12.478  12.094
19998SOL    HW261834   2.992  12.618  12.150
19999SOL     OW61835   0.270  11.650   3.201
19999SOL    HW161836   0.188  11.689   3.232
19999SOL    HW261837   0.310  11.612   3.279
20000SOL     OW61838   1.851   1.732   1.061
20000SOL    HW161839   1.788   1.727   0.989
20000SOL    HW261840   1.861   1.825   1.078
20001SOL     OW61841  12.292   3.618   9.350
20001SOL    HW161842  12.290   3.524   9.367
20001SOL    HW261843  12.204   3.639   9.320
20002SOL     OW61844   2.451   3.203   5.891
20002SOL    HW161845   2.377   3.260   5.868
20002SOL    HW261846   2.494   3.249   5.964
20003SOL     OW61847  11.184   4.333  10.385
20003SOL    HW161848  11.168   4.352  10.293
20003SOL    HW261849  11.279   4.337  10.395
20004SOL     OW61850   9.300   9.416  13.424
20004SOL    HW161851   9.391   9.444  13.413
20004SOL    HW261852   9.306   9.334  13.473
20005SOL     OW61853   6.180  14.051   4.427
20005SOL    HW161854   6.204  13.971   4.473
20005SOL    HW261855   6.248  14.114   4.451
20006SOL     OW61856  11.416  14.430   4.168
20006SOL    HW161857  11.502  14.395   4.143
20006SOL    HW261858  11.370  14.354   4.205
20007SOL     OW61859  12.823  14.133   9.288
20007SOL    HW161860  12.893  14.092   9.238
20007SOL    HW261861  12.856  14.136   9.378
20008SOL     OW61862  11.210  13.220   2.373
20008SOL    HW161863  11.238  13.176   2.293
20008SOL    HW261864  11.205  13.150   2.438
20009SOL     OW61865  12.170   3.010  12.930
20009SOL    HW161866  12.154   3.018  13.024
20009SOL    HW261867  12.088   3.036  12.888
20010SOL     OW61868  11.419  11.561   3.075
20010SOL    HW161869  11.404  11.639   3.128
20010SOL    HW261870  11.334  11.545   3.032
20011SOL     OW61871   0.648  10.823   1.115
20011SOL    HW161872   0.612  10.889   1.057
20011SOL    HW261873   0.724  10.788   1.069
20012SOL     OW61874   9.059  13.559  11.725
20012SOL    HW161875   9.024  13.639  11.766
20012SOL    HW261876   9.019  13.558  11.637
20013SOL     OW61877   3.016   6.757   5.127
20013SOL    HW161878   2.985   6.779   5.040
20013SOL    HW261879   2.960   6.808   5.186
20014SOL     OW61880  13.081   2.448  14.727
20014SOL    HW161881  13.160   2.490  14.692
20014SOL    HW261882  13.009   2.500  14.692
20015SOL     OW61883  12.753   1.077  11.229
20015SOL    HW161884  12.775   1.093  11.137
20015SOL    HW261885  12.804   1.000  11.254
20016SOL     OW61886   3.437   8.044   8.768
20016SOL    HW161887   3.416   7.952   8.778
20016SOL    HW261888   3.524   8.053   8.808
20017SOL     OW61889   8.514   1.910  11.853
20017SOL    HW161890   8.479   1.977  11.794
20017SOL    HW261891   8.597   1.946  11.883
20018SOL     OW61892  11.771   7.934   1.876
20018SOL    HW161893  11.703   7.913   1.811
20018SOL    HW261894  11.853   7.917   1.831
20019SOL     OW61895  12.121   3.303   5.765
20019SOL    HW161896  12.201   3.356   5.762
20019SOL    HW261897  12.130   3.251   5.845
20020SOL     OW61898   1.028   6.354  14.393
20020SOL    HW161899   0.983   6.436  14.413
20020SOL    HW261900   0.973   6.313  14.326
20021SOL     OW61901   3.196   2.789   6.517
20021SOL    HW161902   3.167   2.834   6.438
20021SOL    HW261903   3.115   2.760   6.559
20022SOL     OW61904  14.325   3.696  11.059
20022SOL    HW161905  14.372   3.627  11.105
20022SOL    HW261906  14.374   3.776  11.077
20023SOL     OW61907   6.750   6.102  14.410
20023SOL    HW161908   6.685   6.081  14.343
20023SOL    HW261909   6.702   6.150  14.477
20024SOL     OW61910  13.347  10.925   5.190
20024SOL    HW161911  13.281  10.922   5.121
20024SOL    HW261912  13.430  10.941   5.144
20025SOL     OW61913  10.339   5.828   0.585
20025SOL    HW161914  10.282   5.893   0.624
20025SOL    HW261915  10.320   5.747   0.632
20026SOL     OW61916   0.546   9.078   5.370
20026SOL    HW161917   0.535   9.173   5.379
20026SOL    HW261918   0.634   9.068   5.332
20027SOL     OW61919  13.736   4.587   9.306
20027SOL    HW161920  13.761   4.498   9.280
20027SOL    HW261921  13.676   4.616   9.237
20028SOL     OW61922   9.215   3.904  12.648
20028SOL    HW161923   9.310   3.897  12.637
20028SOL    HW261924   9.204   3.960  12.725
20029SOL     OW61925  10.967   3.572   0.111
20029SOL    HW161926  11.049   3.524   0.102
20029SOL    HW261927  10.981   3.652   0.060
20030SOL     OW61928  14.766   4.103   3.091
20030SOL    HW161929  14.806   4.048   3.025
20030SOL    HW261930  14.793   4.192   3.068
20031SOL     OW61931  11.764   5.488  13.538
20031SOL    HW161932  11.690   5.520  13.590
20031SOL    HW261933  11.790   5.564  13.485
20032SOL     OW61934   0.305  12.465  14.078
20032SOL    HW161935   0.391  12.506  14.084
20032SOL    HW261936   0.253  12.527  14.027
20033SOL     OW61937   4.453  10.837   9.214
20033SOL    HW161938   4.509  10.759   9.214
20033SOL    HW261939   4.408  10.835   9.299
20034SOL     OW61940  14.603  13.447  10.127
20034SOL    HW161941  14.618  13.541  10.124
20034SOL    HW261942  14.551  13.428  10.049
20035SOL     OW61943   8.536   3.922   4.002
20035SOL    HW161944   8.581   3.849   4.046
20035SOL    HW261945   8.539   3.994   4.065
20036SOL     OW61946   4.222   5.125   4.358
20036SOL    HW161947   4.164   5.164   4.424
20036SOL    HW261948   4.309   5.128   4.398
20037SOL     OW61949   2.865  11.836   3.786
20037SOL    HW161950   2.958  11.859   3.786
20037SOL    HW261951   2.861  11.753   3.833
20038SOL     OW61952   3.511   5.147  14.842
20038SOL    HW161953   3.501   5.235  14.804
20038SOL    HW261954   3.605   5.130  14.837
20039SOL     OW61955   3.752  13.384   0.598
20039SOL    HW161956   3.750  13.321   0.526
20039SOL    HW261957   3.777  13.467   0.558
20040SOL     OW61958   9.539   8.026  11.986
20040SOL    HW161959   9.494   8.068  12.060
20040SOL    HW261960   9.591   7.956  12.026
20041SOL     OW61961   5.684  14.191  13.928
20041SOL    HW161962   5.591  14.205  13.910
20041SOL    HW261963   5.729  14.225  13.850
20042SOL     OW61964   4.207   1.122   0.562
20042SOL    HW161965   4.237   1.145   0.650
20042SOL    HW261966   4.206   1.206   0.515
20043SOL     OW61967   6.181   2.763   7.596
20043SOL    HW161968   6.128   2.710   7.537
20043SOL    HW261969   6.214   2.701   7.661
20044SOL     OW61970   8.331  12.802  14.344
20044SOL    HW161971   8.374  12.875  14.299
20044SOL    HW261972   8.351  12.815  14.437
20045SOL     OW61973  10.795   8.756   0.063
20045SOL    HW161974  10.880   8.782   0.028
20045SOL    HW261975  10.800   8.776   0.157
20046SOL     OW61976  10.675  11.881   0.572
20046SOL    HW161977  10.677  11.787   0.591
20046SOL    HW261978  10.625  11.919   0.644
20047SOL     OW61979   4.047   3.583   1.926
20047SOL    HW161980   4.014   3.624   2.006
20047SOL    HW261981   4.048   3.489   1.946
20048SOL     OW61982  10.901   6.536  10.096
20048SOL    HW161983  10.986   6.493  10.093
20048SOL    HW261984  10.859   6.513  10.014
20049SOL     OW61985   8.303  14.284   1.814
20049SOL    HW161986   8.312  14.292   1.909
20049SOL    HW261987   8.370  14.220   1.790
20050SOL     OW61988   6.201  14.678   4.304
20050SOL    HW161989   6.115  14.705   4.336
20050SOL    HW261990   6.263  14.720   4.363
20051SOL     OW61991  14.215   2.075   1.642
20051SOL    HW161992  14.227   1.981   1.636
20051SOL    HW261993  14.285   2.105   1.700
20052SOL     OW61994   5.000  11.609   5.733
20052SOL    HW161995   4.989  11.700   5.761
20052SOL    HW261996   5.094  11.592   5.744
20053SOL     OW61997   8.028  11.553  12.385
20053SOL    HW161998   8.080  11.605  12.323
20053SOL    HW261999   8.048  11.462  12.364
20054SOL     OW62000  10.370  14.299  12.773
20054SOL    HW162001  10.333  14.346  12.699
20054SOL    HW262002  10.438  14.243  12.735
20055SOL     OW62003   4.670   5.554  10.851
20055SOL    HW162004   4.710   5.554  10.938
20055SOL    HW262005   4.672   5.462  10.824
20056SOL     OW62006   8.266   3.045   4.279
20056SOL    HW162007   8.191   2.989   4.259
20056SOL    HW262008   8.270   3.047   4.375
20057SOL     OW62009   3.026   3.689  10.154
20057SOL    HW162010   3.089   3.641  10.100
20057SOL    HW262011   3.011   3.771  10.108
20058SOL     OW62012   0.148  12.361   4.012
20058SOL    HW162013   0.214  12.310   3.966
20058SOL    HW262014   0.180  12.451   4.010
20059SOL     OW62015  13.157  14.843  11.764
20059SOL    HW162016  13.090  14.834  11.696
20059SOL    HW262017  13.110  14.830  11.846
20060SOL     OW62018   6.249   8.090   5.214
20060SOL    HW162019   6.275   8.167   5.264
20060SOL    HW262020   6.252   8.018   5.278
20061SOL     OW62021   1.543  11.744   8.920
20061SOL    HW162022   1.565  11.660   8.960
20061SOL    HW262023   1.576  11.809   8.981
20062SOL     OW62024  11.592   0.750   3.938
20062SOL    HW162025  11.511   0.790   3.907
20062SOL    HW262026  11.593   0.766   4.032
20063SOL     OW62027  12.507   9.820  10.541
20063SOL    HW162028  12.578   9.838  10.603
20063SOL    HW262029  12.547   9.763  10.475
20064SOL     OW62030   5.058   7.898   3.845
20064SOL    HW162031   5.039   7.812   3.808
20064SOL    HW262032   4.974   7.926   3.884
20065SOL     OW62033  13.572   7.788   8.752
20065SOL    HW162034  13.591   7.751   8.666
20065SOL    HW262035  13.499   7.736   8.785
20066SOL     OW62036   6.542  11.535   7.848
20066SOL    HW162037   6.632  11.527   7.878
20066SOL    HW262038   6.492  11.552   7.928
20067SOL     OW62039   3.396   1.362  10.366
20067SOL    HW162040   3.414   1.454  10.347
20067SOL    HW262041   3.472   1.315  10.330
20068SOL     OW62042  12.369  12.662   7.251
20068SOL    HW162043  12.308  12.624   7.187
20068SOL    HW262044  12.363  12.756   7.236
20069SOL     OW62045   4.969   8.122   4.842
20069SOL    HW162046   4.953   8.194   4.902
20069SOL    HW262047   4.925   8.047   4.882
20070SOL     OW62048   3.509   0.388   4.293
20070SOL    HW162049   3.590   0.403   4.340
20070SOL    HW262050   3.462   0.324   4.347
20071SOL     OW62051  13.602   2.686   1.717
20071SOL    HW162052  13.675   2.644   1.762
20071SOL    HW262053  13.642   2.755   1.663
20072SOL     OW62054  14.278   9.901   6.212
20072SOL    HW162055  14.322   9.980   6.244
20072SOL    HW262056  14.229   9.931   6.135
20073SOL     OW62057   2.637   4.739   9.375
20073SOL    HW162058   2.584   4.670   9.335
20073SOL    HW262059   2.652   4.802   9.305
20074SOL     OW62060  10.718   5.995   8.550
20074SOL    HW162061  10.644   5.939   8.526
20074SOL    HW262062  10.719   5.993   8.646
20075SOL     OW62063   3.802   2.336  11.691
20075SOL    HW162064   3.807   2.349  11.596
20075SOL    HW262065   3.708   2.344  11.712
20076SOL     OW62066   6.548   2.666   1.679
20076SOL    HW162067   6.558   2.750   1.723
20076SOL    HW262068   6.627   2.618   1.701
20077SOL     OW62069  13.693   8.105   4.194
20077SOL    HW162070  13.698   8.026   4.248
20077SOL    HW262071  13.747   8.170   4.239
20078SOL     OW62072  10.706   3.308   2.710
20078SOL    HW162073  10.784   3.341   2.754
20078SOL    HW262074  10.646   3.383   2.709
20079SOL     OW62075  14.258  10.697   5.467
20079SOL    HW162076  14.321  10.628   5.447
20079SOL    HW262077  14.290  10.736   5.549
20080SOL     OW62078   0.038  13.979   1.079
20080SOL    HW162079   0.019  13.890   1.109
20080SOL    HW262080   0.097  13.966   1.004
20081SOL     OW62081   0.152  10.140   5.810
20081SOL    HW162082   0.169  10.046   5.796
20081SOL    HW262083   0.060  10.151   5.785
20082SOL     OW62084  12.201   3.537   5.293
20082SOL    HW162085  12.247   3.607   5.340
20082SOL    HW262086  12.270   3.483   5.256
20083SOL     OW62087   2.129   5.244   5.196
20083SOL    HW162088   2.109   5.150   5.188
20083SOL    HW262089   2.164   5.253   5.285
20084SOL     OW62090   3.897   0.267   0.281
20084SOL    HW162091   3.846   0.192   0.312
20084SOL    HW262092   3.894   0.260   0.186
20085SOL     OW62093  11.154   4.251   9.320
20085SOL    HW162094  11.122   4.172   9.364
20085SOL    HW262095  11.081   4.312   9.323
20086SOL     OW62096   3.041   6.997   3.608
20086SOL    HW162097   2.956   7.041   3.615
20086SOL    HW262098   3.041   6.933   3.679
20087SOL     OW62099   4.345   5.333   0.901
20087SOL    HW162100   4.366   5.410   0.953
20087SOL    HW262101   4.340   5.365   0.811
20088SOL     OW62102   8.359  11.810  12.679
20088SOL    HW162103   8.318  11.726  12.701
20088SOL    HW262104   8.306  11.876  12.722
20089SOL     OW62105   4.989  14.073   2.049
20089SOL    HW162106   4.944  14.003   2.097
20089SOL    HW262107   5.052  14.027   1.994
20090SOL     OW62108   6.505   7.635   6.087
20090SOL    HW162109   6.594   7.629   6.053
20090SOL    HW262110   6.513   7.608   6.179
20091SOL     OW62111  12.775  11.401   8.835
20091SOL    HW162112  12.796  11.413   8.928
20091SOL    HW262113  12.691  11.444   8.824
20092SOL     OW62114   4.155  14.395  12.536
20092SOL    HW162115   4.155  14.430  12.446
20092SOL    HW262116   4.242  14.418  12.570
20093SOL     OW62117   3.748   0.659   5.172
20093SOL    HW162118   3.687   0.695   5.235
20093SOL    HW262119   3.711   0.574   5.148
20094SOL     OW62120   1.703  14.675   2.338
20094SOL    HW162121   1.649  14.746   2.304
20094SOL    HW262122   1.688  14.677   2.433
20095SOL     OW62123   8.074   6.760  10.748
20095SOL    HW162124   8.103   6.849  10.767
20095SOL    HW262125   8.105   6.708  10.823
20096SOL     OW62126   4.541  10.742   1.080
20096SOL    HW162127   4.621  10.771   1.124
20096SOL    HW262128   4.560  10.751   0.987
20097SOL     OW62129  10.330  12.619   3.828
20097SOL    HW162130  10.236  12.638   3.832
20097SOL    HW262131  10.345  12.591   3.738
20098SOL     OW62132   9.359   3.042  13.186
20098SOL    HW162133   9.337   3.110  13.122
20098SOL    HW262134   9.320   2.962  13.150
20099SOL     OW62135   5.895   0.345  11.621
20099SOL    HW162136   5.935   0.289  11.555
20099SOL    HW262137   5.924   0.433  11.599
20100SOL     OW62138  13.309   6.841   3.121
20100SOL    HW162139  13.389   6.891   3.100
20100SOL    HW262140  13.333   6.750   3.107
20101SOL     OW62141   2.349   8.450   7.067
20101SOL    HW162142   2.255   8.447   7.047
20101SOL    HW262143   2.357   8.403   7.150
20102SOL     OW62144   0.778   2.878   8.011
20102SOL    HW162145   0.831   2.803   7.983
20102SOL    HW262146   0.700   2.874   7.957
20103SOL     OW62147   1.517   2.857  14.307
20103SOL    HW162148   1.565   2.824  14.383
20103SOL    HW262149   1.568   2.932  14.277
20104SOL     OW62150   2.907   5.205  13.048
20104SOL    HW162151   2.976   5.140  13.064
20104SOL    HW262152   2.864   5.176  12.967
20105SOL     OW62153   0.272   5.162   8.939
20105SOL    HW162154   0.209   5.113   8.886
20105SOL    HW262155   0.309   5.097   8.999
20106SOL     OW62156   7.460   5.181  12.305
20106SOL    HW162157   7.534   5.188  12.366
20106SOL    HW262158   7.432   5.271  12.290
20107SOL     OW62159   8.656  14.271  10.740
20107SOL    HW162160   8.600  14.217  10.683
20107SOL    HW262161   8.618  14.359  10.735
20108SOL     OW62162  11.194   7.451  14.776
20108SOL    HW162163  11.107   7.435  14.740
20108SOL    HW262164  11.179   7.469  14.869
20109SOL     OW62165   0.518   8.683   0.956
20109SOL    HW162166   0.455   8.639   0.899
20109SOL    HW262167   0.604   8.649   0.928
20110SOL     OW62168   5.432   3.268   0.724
20110SOL    HW162169   5.394   3.184   0.748
20110SOL    HW262170   5.360   3.331   0.732
20111SOL     OW62171   0.716  13.984  12.118
20111SOL    HW162172   0.788  14.003  12.178
20111SOL    HW262173   0.754  13.928  12.051
20112SOL     OW62174   3.754   5.838  11.036
20112SOL    HW162175   3.749   5.800  10.948
20112SOL    HW262176   3.804   5.774  11.087
20113SOL     OW62177  11.174   9.686  14.583
20113SOL    HW162178  11.106   9.641  14.634
20113SOL    HW262179  11.205   9.620  14.521
20114SOL     OW62180  11.008   2.435   0.881
20114SOL    HW162181  11.010   2.465   0.972
20114SOL    HW262182  10.919   2.401   0.869
20115SOL     OW62183  12.970  14.450   9.916
20115SOL    HW162184  13.008  14.376   9.869
20115SOL    HW262185  13.036  14.519   9.911
20116SOL     OW62186   1.534   9.632  14.356
20116SOL    HW162187   1.499   9.552  14.396
20116SOL    HW262188   1.543   9.610  14.264
20117SOL     OW62189   3.213   9.165   0.246
20117SOL    HW162190   3.302   9.159   0.281
20117SOL    HW262191   3.219   9.228   0.175
20118SOL     OW62192  12.464  12.589   1.112
20118SOL    HW162193  12.522  12.647   1.062
20118SOL    HW262194  12.517  12.560   1.186
20119SOL     OW62195   7.875  11.771   7.501
20119SOL    HW162196   7.890  11.826   7.579
20119SOL    HW262197   7.796  11.807   7.462
20120SOL     OW62198   0.856  12.454  10.140
20120SOL    HW162199   0.835  12.461  10.233
20120SOL    HW262200   0.837  12.363  10.118
20121SOL     OW62201   8.665   9.889   1.016
20121SOL    HW162202   8.614   9.962   1.051
20121SOL    HW262203   8.602   9.838   0.965
20122SOL     OW62204   9.815  11.346   0.576
20122SOL    HW162205   9.774  11.325   0.493
20122SOL    HW262206   9.757  11.307   0.642
20123SOL     OW62207   4.355   3.061   4.530
20123SOL    HW162208   4.374   3.084   4.620
20123SOL    HW262209   4.371   3.141   4.480
20124SOL     OW62210   2.431   8.228   4.232
20124SOL    HW162211   2.425   8.217   4.137
20124SOL    HW262212   2.474   8.148   4.263
20125SOL     OW62213   1.201  14.275   2.007
20125SOL    HW162214   1.191  14.350   2.065
20125SOL    HW262215   1.183  14.199   2.062
20126SOL     OW62216   2.783   7.371   0.297
20126SOL    HW162217   2.825   7.297   0.341
20126SOL    HW262218   2.847   7.442   0.303
20127SOL     OW62219   3.382   4.538   0.868
20127SOL    HW162220   3.402   4.519   0.776
20127SOL    HW262221   3.465   4.567   0.906
20128SOL     OW62222   8.898   0.986  13.125
20128SOL    HW162223   8.930   0.962  13.038
20128SOL    HW262224   8.922   1.079  13.135
20129SOL     OW62225   7.349  12.307   4.056
20129SOL    HW162226   7.276  12.297   3.995
20129SOL    HW262227   7.411  12.363   4.011
20130SOL     OW62228   8.926  13.350   1.466
20130SOL    HW162229   8.951  13.306   1.548
20130SOL    HW262230   8.973  13.301   1.398
20131SOL     OW62231   7.963  12.447   2.735
20131SOL    HW162232   8.008  12.387   2.676
20131SOL    HW262233   8.020  12.524   2.739
20132SOL     OW62234   3.143   0.717  11.121
20132SOL    HW162235   3.158   0.805  11.156
20132SOL    HW262236   3.049   0.703  11.131
20133SOL     OW62237  12.724   7.762   4.493
20133SOL    HW162238  12.737   7.838   4.549
20133SOL    HW262239  12.793   7.767   4.428
20134SOL     OW62240   5.285   0.274  10.560
20134SOL    HW162241   5.362   0.217  10.562
20134SOL    HW262242   5.317   0.355  10.521
20135SOL     OW62243   5.528   3.685   3.778
20135SOL    HW162244   5.586   3.649   3.845
20135SOL    HW262245   5.482   3.756   3.822
20136SOL     OW62246   7.036  13.413   4.809
20136SOL    HW162247   7.074  13.325   4.800
20136SOL    HW262248   6.953  13.398   4.854
20137SOL     OW62249   1.786   4.726  10.879
20137SOL    HW162250   1.768   4.633  10.868
20137SOL    HW262251   1.729   4.769  10.815
20138SOL     OW62252  11.721   3.466   9.927
20138SOL    HW162253  11.632   3.434   9.915
20138SOL    HW262254  11.716   3.560   9.906
20139SOL     OW62255   3.574  10.919   7.241
20139SOL    HW162256   3.512  10.943   7.309
20139SOL    HW262257   3.632  10.856   7.283
20140SOL     OW62258  12.583   5.933  14.276
20140SOL    HW162259  12.608   5.940  14.183
20140SOL    HW262260  12.587   5.840  14.295
20141SOL     OW62261  12.300   9.540   1.960
20141SOL    HW162262  12.391   9.527   1.987
20141SOL    HW262263  12.256   9.458   1.984
20142SOL     OW62264   8.361   5.239  14.186
20142SOL    HW162265   8.306   5.310  14.151
20142SOL    HW262266   8.299   5.166  14.199
20143SOL     OW62267   2.673   6.487   5.391
20143SOL    HW162268   2.641   6.405   5.355
20143SOL    HW262269   2.757   6.465   5.432
20144SOL     OW62270   3.072   2.892   1.290
20144SOL    HW162271   3.072   2.974   1.240
20144SOL    HW262272   3.160   2.857   1.278
20145SOL     OW62273   9.676   0.486  11.740
20145SOL    HW162274   9.705   0.404  11.700
20145SOL    HW262275   9.757   0.528  11.769
20146SOL     OW62276  10.906   7.975  13.612
20146SOL    HW162277  10.960   7.996  13.535
20146SOL    HW262278  10.816   7.993  13.584
20147SOL     OW62279  13.241  12.268   8.333
20147SOL    HW162280  13.169  12.238   8.388
20147SOL    HW262281  13.271  12.189   8.287
20148SOL     OW62282  11.943  12.910   0.008
20148SOL    HW162283  11.895  12.956   0.077
20148SOL    HW262284  11.939  12.969  14.809
20149SOL     OW62285   7.722   9.181  11.387
20149SOL    HW162286   7.660   9.238  11.433
20149SOL    HW262287   7.679   9.163  11.303
20150SOL     OW62288   0.955   9.097  10.962
20150SOL    HW162289   0.893   9.155  11.005
20150SOL    HW262290   1.032   9.152  10.946
20151SOL     OW62291   0.200   1.258   8.257
20151SOL    HW162292   0.235   1.172   8.282
20151SOL    HW262293   0.160   1.244   8.172
20152SOL     OW62294   2.796   9.132  10.610
20152SOL    HW162295   2.727   9.191  10.579
20152SOL    HW262296   2.876   9.184  10.606
20153SOL     OW62297  10.930  13.212  10.715
20153SOL    HW162298  11.025  13.214  10.726
20153SOL    HW262299  10.916  13.151  10.643
20154SOL     OW62300   5.981   2.813  12.136
20154SOL    HW162301   6.065   2.843  12.101
20154SOL    HW262302   5.929   2.894  12.147
20155SOL     OW62303   4.386   2.883  14.211
20155SOL    HW162304   4.342   2.952  14.260
20155SOL    HW262305   4.454   2.929  14.161
20156SOL     OW62306   0.310  13.568  13.257
20156SOL    HW162307   0.335  13.656  13.230
20156SOL    HW262308   0.368  13.547  13.330
20157SOL     OW62309   7.531   7.965   1.044
20157SOL    HW162310   7.450   7.915   1.056
20157SOL    HW262311   7.514   8.018   0.966
20158SOL     OW62312   3.685   6.414   5.678
20158SOL    HW162313   3.725   6.334   5.710
20158SOL    HW262314   3.757   6.477   5.672
20159SOL     OW62315   5.100  11.340  11.707
20159SOL    HW162316   5.033  11.399  11.674
20159SOL    HW262317   5.130  11.292  11.630
20160SOL     OW62318   1.375   2.131   5.610
20160SOL    HW162319   1.294   2.114   5.562
20160SOL    HW262320   1.352   2.200   5.673
20161SOL     OW62321   3.384   0.678   3.606
20161SOL    HW162322   3.322   0.749   3.624
20161SOL    HW262323   3.468   0.711   3.640
20162SOL     OW62324   1.001   1.731  13.691
20162SOL    HW162325   1.091   1.756  13.667
20162SOL    HW262326   1.012   1.657  13.750
20163SOL     OW62327  14.468  11.910   8.867
20163SOL    HW162328  14.547  11.893   8.816
20163SOL    HW262329  14.430  11.824   8.883
20164SOL     OW62330   9.410   7.253   3.352
20164SOL    HW162331   9.394   7.264   3.445
20164SOL    HW262332   9.415   7.342   3.317
20165SOL     OW62333   4.992   4.108   4.030
20165SOL    HW162334   4.999   4.204   4.036
20165SOL    HW262335   4.906   4.088   4.067
20166SOL     OW62336   3.600   3.417  13.065
20166SOL    HW162337   3.551   3.487  13.022
20166SOL    HW262338   3.648   3.460  13.136
20167SOL     OW62339  13.896  13.285  11.130
20167SOL    HW162340  13.839  13.362  11.126
20167SOL    HW262341  13.869  13.239  11.210
20168SOL     OW62342   5.195  14.120  10.002
20168SOL    HW162343   5.106  14.147   9.979
20168SOL    HW262344   5.184  14.040  10.053
20169SOL     OW62345   9.835   1.619  13.434
20169SOL    HW162346   9.784   1.539  13.442
20169SOL    HW262347   9.772   1.686  13.408
20170SOL     OW62348   5.440  11.151   6.933
20170SOL    HW162349   5.486  11.072   6.962
20170SOL    HW262350   5.415  11.195   7.015
20171SOL     OW62351   1.640   8.500   2.039
20171SOL    HW162352   1.725   8.463   2.014
20171SOL    HW262353   1.589   8.424   2.068
20172SOL     OW62354   8.378  10.551   2.418
20172SOL    HW162355   8.335  10.466   2.429
20172SOL    HW262356   8.370  10.570   2.325
20173SOL     OW62357   5.650   5.984   6.180
20173SOL    HW162358   5.625   6.077   6.176
20173SOL    HW262359   5.589   5.940   6.121
20174SOL     OW62360  11.511  12.750   0.958
20174SOL    HW162361  11.461  12.814   0.907
20174SOL    HW262362  11.599  12.786   0.961
20175SOL     OW62363   0.649  13.400  10.271
20175SOL    HW162364   0.697  13.452  10.335
20175SOL    HW262365   0.559  13.398  10.302
20176SOL     OW62366   9.115   9.552  11.530
20176SOL    HW162367   9.178   9.480  11.522
20176SOL    HW262368   9.121   9.579  11.621
20177SOL     OW62369  11.267   2.814   9.377
20177SOL    HW162370  11.243   2.826   9.469
20177SOL    HW262371  11.210   2.743   9.347
20178SOL     OW62372  10.931   7.920   8.015
20178SOL    HW162373  10.912   7.831   8.046
20178SOL    HW262374  10.856   7.944   7.961
20179SOL     OW62375  13.701   1.126   8.059
20179SOL    HW162376  13.630   1.190   8.049
20179SOL    HW262377  13.658   1.041   8.052
20180SOL     OW62378   0.843   2.621  13.142
20180SOL    HW162379   0.916   2.649  13.086
20180SOL    HW262380   0.878   2.628  13.231
20181SOL     OW62381   1.928  11.643  13.721
20181SOL    HW162382   1.884  11.585  13.659
20181SOL    HW262383   1.957  11.717  13.667
20182SOL     OW62384   3.263   2.047   3.992
20182SOL    HW162385   3.294   1.977   4.050
20182SOL    HW262386   3.177   2.017   3.963
20183SOL     OW62387  14.699   0.509  10.828
20183SOL    HW162388  14.608   0.487  10.806
20183SOL    HW262389  14.752   0.455  10.769
20184SOL     OW62390   1.172  10.018  13.317
20184SOL    HW162391   1.155  10.112  13.315
20184SOL    HW262392   1.256  10.010  13.364
20185SOL     OW62393   2.198  12.286  11.172
20185SOL    HW162394   2.199  12.234  11.253
20185SOL    HW262395   2.142  12.361  11.191
20186SOL     OW62396   7.048  11.265   4.130
20186SOL    HW162397   7.078  11.345   4.087
20186SOL    HW262398   6.985  11.295   4.196
20187SOL     OW62399   9.566  10.847   7.162
20187SOL    HW162400   9.600  10.833   7.250
20187SOL    HW262401   9.473  10.865   7.174
20188SOL     OW62402   2.168   1.706  13.760
20188SOL    HW162403   2.078   1.706  13.793
20188SOL    HW262404   2.199   1.617  13.774
20189SOL     OW62405   4.502   5.127   4.428
20189SOL    HW162406   4.540   5.215   4.426
20189SOL    HW262407   4.513   5.098   4.519
20190SOL     OW62408   4.662  12.661   3.234
20190SOL    HW162409   4.659  12.565   3.234
20190SOL    HW262410   4.711  12.684   3.313
20191SOL     OW62411  14.418   0.715   9.289
20191SOL    HW162412  14.495   0.729   9.233
20191SOL    HW262413  14.362   0.791   9.273
20192SOL     OW62414  11.809  10.206  12.424
20192SOL    HW162415  11.730  10.246  12.460
20192SOL    HW262416  11.874  10.213  12.494
20193SOL     OW62417  11.325  12.785  13.368
20193SOL    HW162418  11.268  12.720  13.410
20193SOL    HW262419  11.335  12.854  13.433
20194SOL     OW62420   0.536   6.062  12.002
20194SOL    HW162421   0.507   6.103  11.920
20194SOL    HW262422   0.595   6.127  12.041
20195SOL     OW62423  14.861   7.006   6.578
20195SOL    HW162424  14.823   7.045   6.500
20195SOL    HW262425   0.072   6.977   6.550
20196SOL     OW62426   6.386   1.014  11.825
20196SOL    HW162427   6.342   0.929  11.835
20196SOL    HW262428   6.475   0.998  11.856
20197SOL     OW62429  13.165   3.919   7.105
20197SOL    HW162430  13.149   3.898   7.013
20197SOL    HW262431  13.123   3.848   7.153
20198SOL     OW62432   7.360   2.357   3.459
20198SOL    HW162433   7.453   2.368   3.479
20198SOL    HW262434   7.353   2.380   3.367
20199SOL     OW62435  14.382   9.288  12.703
20199SOL    HW162436  14.435   9.212  12.726
20199SOL    HW262437  14.354   9.271  12.613
20200SOL     OW62438   6.378  12.661  14.511
20200SOL    HW162439   6.406  12.681  14.421
20200SOL    HW262440   6.412  12.734  14.563
20201SOL     OW62441  12.423   1.745   2.105
20201SOL    HW162442  12.448   1.807   2.036
20201SOL    HW262443  12.328   1.753   2.111
20202SOL     OW62444   6.470  11.954  11.402
20202SOL    HW162445   6.460  12.049  11.411
20202SOL    HW262446   6.466  11.921  11.492
20203SOL     OW62447   8.657   9.081   4.952
20203SOL    HW162448   8.733   9.044   4.907
20203SOL    HW262449   8.638   9.018   5.021
20204SOL     OW62450   0.422  14.078   4.293
20204SOL    HW162451   0.404  14.164   4.255
20204SOL    HW262452   0.498  14.091   4.349
20205SOL     OW62453  14.680  11.649   5.892
20205SOL    HW162454  14.634  11.659   5.976
20205SOL    HW262455  14.772  11.641   5.917
20206SOL     OW62456   2.457  14.463   1.334
20206SOL    HW162457   2.397  14.392   1.354
20206SOL    HW262458   2.501  14.483   1.417
20207SOL     OW62459  11.554   9.992   4.485
20207SOL    HW162460  11.540   9.993   4.391
20207SOL    HW262461  11.512   9.911   4.515
20208SOL     OW62462  12.161   7.129   9.156
20208SOL    HW162463  12.106   7.059   9.121
20208SOL    HW262464  12.180   7.184   9.080
20209SOL     OW62465   8.536   3.032   2.183
20209SOL    HW162466   8.482   3.007   2.108
20209SOL    HW262467   8.544   3.127   2.176
20210SOL     OW62468   4.431  11.413   9.268
20210SOL    HW162469   4.369  11.341   9.276
20210SOL    HW262470   4.424  11.461   9.350
20211SOL     OW62471  11.550   7.490   0.118
20211SOL    HW162472  11.632   7.439   0.115
20211SOL    HW262473  11.495   7.452   0.050
20212SOL     OW62474  10.832   5.513   8.642
20212SOL    HW162475  10.878   5.445   8.692
20212SOL    HW262476  10.896   5.541   8.576
20213SOL     OW62477   0.601   5.149  12.845
20213SOL    HW162478   0.656   5.205  12.900
20213SOL    HW262479   0.624   5.174  12.755
20214SOL     OW62480   4.982  11.519   3.652
20214SOL    HW162481   4.956  11.567   3.731
20214SOL    HW262482   4.913  11.538   3.589
20215SOL     OW62483  11.440   7.211   0.752
20215SOL    HW162484  11.439   7.116   0.755
20215SOL    HW262485  11.352   7.236   0.722
20216SOL     OW62486   3.344  10.433   7.737
20216SOL    HW162487   3.381  10.500   7.678
20216SOL    HW262488   3.260  10.411   7.698
20217SOL     OW62489   1.321   6.160   3.988
20217SOL    HW162490   1.374   6.208   4.052
20217SOL    HW262491   1.356   6.071   3.990
20218SOL     OW62492  13.983   1.985   2.131
20218SOL    HW162493  14.036   1.918   2.087
20218SOL    HW262494  14.022   2.068   2.103
20219SOL     OW62495  11.625   1.660   0.994
20219SOL    HW162496  11.582   1.739   0.962
20219SOL    HW262497  11.576   1.588   0.954
20220SOL     OW62498  10.481   4.366   7.180
20220SOL    HW162499  10.468   4.424   7.105
20220SOL    HW262500  10.442   4.283   7.153
20221SOL     OW62501   7.639   7.638   4.534
20221SOL    HW162502   7.640   7.543   4.545
20221SOL    HW262503   7.718   7.669   4.579
20222SOL     OW62504   2.184   3.663   8.891
20222SOL    HW162505   2.252   3.725   8.918
20222SOL    HW262506   2.216   3.578   8.923
20223SOL     OW62507   9.570   3.084   0.254
20223SOL    HW162508   9.624   3.100   0.331
20223SOL    HW262509   9.486   3.054   0.290
20224SOL     OW62510   7.174  10.762   9.871
20224SOL    HW162511   7.159  10.708   9.949
20224SOL    HW262512   7.087  10.772   9.832
20225SOL     OW62513   1.879  10.595   3.905
20225SOL    HW162514   1.929  10.674   3.923
20225SOL    HW262515   1.811  10.593   3.972
20226SOL     OW62516   8.386  14.662   5.123
20226SOL    HW162517   8.292  14.669   5.133
20226SOL    HW262518   8.416  14.751   5.108
20227SOL     OW62519   6.521   4.901   6.652
20227SOL    HW162520   6.452   4.966   6.637
20227SOL    HW262521   6.548   4.915   6.742
20228SOL     OW62522   4.821   6.637   6.100
20228SOL    HW162523   4.896   6.583   6.126
20228SOL    HW262524   4.745   6.588   6.131
20229SOL     OW62525   3.441  14.873  11.375
20229SOL    HW162526   3.484   0.069  11.422
20229SOL    HW262527   3.454  14.797  11.432
20230SOL     OW62528  13.439   7.555   5.558
20230SOL    HW162529  13.387   7.632   5.580
20230SOL    HW262530  13.524   7.591   5.531
20231SOL     OW62531   4.718   5.355   9.220
20231SOL    HW162532   4.706   5.331   9.128
20231SOL    HW262533   4.749   5.275   9.262
20232SOL     OW62534   2.699   2.031  11.278
20232SOL    HW162535   2.662   2.113  11.247
20232SOL    HW262536   2.729   2.050  11.366
20233SOL     OW62537   2.427   2.333   9.820
20233SOL    HW162538   2.377   2.326   9.739
20233SOL    HW262539   2.397   2.259   9.873
20234SOL     OW62540   5.182  10.129   1.422
20234SOL    HW162541   5.171  10.167   1.335
20234SOL    HW262542   5.193  10.036   1.407
20235SOL     OW62543  14.555   9.126   8.893
20235SOL    HW162544  14.595   9.175   8.965
20235SOL    HW262545  14.610   9.048   8.883
20236SOL     OW62546   4.295  14.588   6.560
20236SOL    HW162547   4.349  14.519   6.523
20236SOL    HW262548   4.210  14.547   6.576
20237SOL     OW62549   2.280  10.781   9.709
20237SOL    HW162550   2.332  10.757   9.787
20237SOL    HW262551   2.254  10.871   9.725
20238SOL     OW62552   7.000   7.832   5.311
20238SOL    HW162553   7.057   7.755   5.315
20238SOL    HW262554   6.934   7.810   5.245
20239SOL     OW62555   2.930   8.496  11.731
20239SOL    HW162556   2.955   8.512  11.640
20239SOL    HW262557   2.982   8.420  11.757
20240SOL     OW62558   5.743   6.147  10.877
20240SOL    HW162559   5.661   6.186  10.907
20240SOL    HW262560   5.799   6.146  10.955
20241SOL     OW62561  10.719   0.207  12.865
20241SOL    HW162562  10.732   0.280  12.925
20241SOL    HW262563  10.656   0.240  12.800
20242SOL     OW62564   2.799   7.841  10.880
20242SOL    HW162565   2.789   7.884  10.965
20242SOL    HW262566   2.732   7.772  10.881
20243SOL     OW62567   3.607  13.298   4.866
20243SOL    HW162568   3.540  13.333   4.924
20243SOL    HW262569   3.561  13.276   4.786
20244SOL     OW62570   4.835   7.575   8.086
20244SOL    HW162571   4.894   7.525   8.143
20244SOL    HW262572   4.847   7.536   7.999
20245SOL     OW62573  10.926   5.852  11.062
20245SOL    HW162574  10.924   5.860  11.158
20245SOL    HW262575  10.997   5.790  11.045
20246SOL     OW62576   7.452  11.433  13.875
20246SOL    HW162577   7.540  11.438  13.913
20246SOL    HW262578   7.431  11.339  13.878
20247SOL     OW62579   3.206   2.820   8.994
20247SOL    HW162580   3.137   2.776   8.945
20247SOL    HW262581   3.207   2.910   8.959
20248SOL     OW62582  10.273   5.798  11.618
20248SOL    HW162583  10.242   5.714  11.652
20248SOL    HW262584  10.368   5.792  11.624
20249SOL     OW62585  10.182  12.673   6.247
20249SOL    HW162586  10.150  12.592   6.208
20249SOL    HW262587  10.139  12.677   6.332
20250SOL     OW62588   9.529   9.790   5.449
20250SOL    HW162589   9.439   9.760   5.435
20250SOL    HW262590   9.539   9.794   5.544
20251SOL     OW62591   2.591  13.007   0.899
20251SOL    HW162592   2.501  12.992   0.868
20251SOL    HW262593   2.593  12.968   0.986
20252SOL     OW62594  14.196  12.175   2.385
20252SOL    HW162595  14.205  12.095   2.437
20252SOL    HW262596  14.260  12.165   2.315
20253SOL     OW62597  14.036   9.955   2.947
20253SOL    HW162598  14.092   9.976   2.872
20253SOL    HW262599  14.046   9.861   2.958
20254SOL     OW62600  10.645  10.637   1.223
20254SOL    HW162601  10.685  10.707   1.172
20254SOL    HW262602  10.711  10.567   1.223
20255SOL     OW62603  12.022   4.750   4.126
20255SOL    HW162604  12.109   4.725   4.094
20255SOL    HW262605  11.970   4.764   4.047
20256SOL     OW62606   0.188   3.469   6.345
20256SOL    HW162607   0.158   3.542   6.398
20256SOL    HW262608   0.283   3.478   6.344
20257SOL     OW62609   3.602   3.084  11.145
20257SOL    HW162610   3.622   3.178  11.144
20257SOL    HW262611   3.559   3.070  11.229
20258SOL     OW62612   3.917   5.347   3.176
20258SOL    HW162613   3.836   5.325   3.131
20258SOL    HW262614   3.939   5.268   3.225
20259SOL     OW62615   2.039   7.501  12.125
20259SOL    HW162616   2.014   7.591  12.101
20259SOL    HW262617   2.107   7.478  12.061
20260SOL     OW62618   8.230   8.085  12.987
20260SOL    HW162619   8.279   8.048  12.914
20260SOL    HW262620   8.257   8.177  12.991
20261SOL     OW62621   9.757   4.639   4.665
20261SOL    HW162622   9.719   4.669   4.582
20261SOL    HW262623   9.681   4.626   4.723
20262SOL     OW62624   1.183   4.627   9.242
20262SOL    HW162625   1.252   4.652   9.182
20262SOL    HW262626   1.104   4.666   9.206
20263SOL     OW62627   9.162  13.526   7.828
20263SOL    HW162628   9.163  13.577   7.909
20263SOL    HW262629   9.078  13.479   7.830
20264SOL     OW62630   7.863  13.304   0.983
20264SOL    HW162631   7.900  13.256   1.057
20264SOL    HW262632   7.938  13.326   0.928
20265SOL     OW62633   6.471   9.787  12.777
20265SOL    HW162634   6.547   9.822  12.730
20265SOL    HW262635   6.452   9.704  12.735
20266SOL     OW62636  10.640   5.605   5.666
20266SOL    HW162637  10.565   5.551   5.640
20266SOL    HW262638  10.642   5.675   5.602
20267SOL     OW62639  11.716   8.321   0.993
20267SOL    HW162640  11.761   8.246   0.956
20267SOL    HW262641  11.782   8.391   0.994
20268SOL     OW62642   9.554  14.549  10.007
20268SOL    HW162643   9.519  14.635  10.032
20268SOL    HW262644   9.498  14.486  10.052
20269SOL     OW62645   9.308  14.388   6.831
20269SOL    HW162646   9.393  14.409   6.870
20269SOL    HW262647   9.324  14.392   6.736
20270SOL     OW62648  10.457  11.018   0.064
20270SOL    HW162649  10.372  11.020   0.109
20270SOL    HW262650  10.517  11.061   0.125
20271SOL     OW62651   7.470   1.168  11.975
20271SOL    HW162652   7.407   1.133  12.038
20271SOL    HW262653   7.429   1.248  11.943
20272SOL     OW62654   8.628  13.007   8.343
20272SOL    HW162655   8.672  12.936   8.390
20272SOL    HW262656   8.537  12.979   8.338
20273SOL     OW62657   7.390  13.428   9.716
20273SOL    HW162658   7.438  13.511   9.724
20273SOL    HW262659   7.316  13.449   9.659
20274SOL     OW62660   9.858   9.843  14.392
20274SOL    HW162661   9.923   9.818  14.327
20274SOL    HW262662   9.795   9.771  14.392
20275SOL     OW62663   8.886   6.274  14.800
20275SOL    HW162664   8.873   6.295  14.708
20275SOL    HW262665   8.825   6.202  14.817
20276SOL     OW62666  10.778  11.593   9.944
20276SOL    HW162667  10.748  11.545   9.866
20276SOL    HW262668  10.719  11.668   9.950
20277SOL     OW62669   8.630   6.977   9.636
20277SOL    HW162670   8.586   7.050   9.593
20277SOL    HW262671   8.723   6.993   9.621
20278SOL     OW62672  13.718  13.551   9.026
20278SOL    HW162673  13.754  13.487   8.964
20278SOL    HW262674  13.656  13.502   9.079
20279SOL     OW62675  13.253   9.998   5.528
20279SOL    HW162676  13.265  10.017   5.621
20279SOL    HW262677  13.287  10.075   5.483
20280SOL     OW62678   1.711   7.959  11.276
20280SOL    HW162679   1.721   7.946  11.370
20280SOL    HW262680   1.776   7.901  11.237
20281SOL     OW62681   3.454  14.862   9.104
20281SOL    HW162682   3.521   0.052   9.089
20281SOL    HW262683   3.428  14.833   9.016
20282SOL     OW62684  12.501   1.171   4.471
20282SOL    HW162685  12.512   1.232   4.544
20282SOL    HW262686  12.418   1.196   4.431
20283SOL     OW62687   5.943  14.216   6.806
20283SOL    HW162688   5.923  14.146   6.744
20283SOL    HW262689   6.029  14.248   6.780
20284SOL     OW62690   3.093   8.626  12.936
20284SOL    HW162691   3.041   8.571  12.877
20284SOL    HW262692   3.058   8.714  12.924
20285SOL     OW62693   8.407   1.208   1.991
20285SOL    HW162694   8.353   1.259   1.930
20285SOL    HW262695   8.469   1.272   2.026
20286SOL     OW62696   8.893   3.958  12.663
20286SOL    HW162697   8.827   4.000  12.718
20286SOL    HW262698   8.972   3.956  12.717
20287SOL     OW62699   3.386   6.545   7.748
20287SOL    HW162700   3.301   6.544   7.704
20287SOL    HW262701   3.418   6.634   7.736
20288SOL     OW62702   2.215   4.804   4.004
20288SOL    HW162703   2.246   4.854   4.080
20288SOL    HW262704   2.246   4.715   4.019
20289SOL     OW62705  10.018  14.386   8.623
20289SOL    HW162706   9.946  14.425   8.673
20289SOL    HW262707  10.091  14.446   8.634
20290SOL     OW62708  10.120   6.207  12.479
20290SOL    HW162709  10.207   6.228  12.512
20290SOL    HW262710  10.124   6.114  12.458
20291SOL     OW62711  10.485   9.806   2.974
20291SOL    HW162712  10.410   9.757   3.008
20291SOL    HW262713  10.562   9.759   3.007
20292SOL     OW62714  10.368   1.571  13.271
20292SOL    HW162715  10.309   1.528  13.332
20292SOL    HW262716  10.311   1.626  13.217
20293SOL     OW62717  12.501   1.869   7.069
20293SOL    HW162718  12.581   1.883   7.019
20293SOL    HW262719  12.531   1.860   7.160
20294SOL     OW62720  10.816   8.761   0.342
20294SOL    HW162721  10.889   8.705   0.369
20294SOL    HW262722  10.800   8.818   0.418
20295SOL     OW62723  13.379   5.636   3.530
20295SOL    HW162724  13.293   5.601   3.553
20295SOL    HW262725  13.362   5.727   3.506
20296SOL     OW62726  14.756   6.450  10.407
20296SOL    HW162727  14.776   6.399  10.328
20296SOL    HW262728  14.690   6.514  10.378
20297SOL     OW62729  13.534  13.173   3.081
20297SOL    HW162730  13.522  13.081   3.058
20297SOL    HW262731  13.621  13.195   3.046
20298SOL     OW62732  10.011   6.647  13.411
20298SOL    HW162733  10.003   6.572  13.353
20298SOL    HW262734  10.105   6.660  13.422
20299SOL     OW62735  11.777  12.097   3.867
20299SOL    HW162736  11.743  12.106   3.956
20299SOL    HW262737  11.758  12.181   3.825
20300SOL     OW62738   5.095   4.828  14.787
20300SOL    HW162739   5.146   4.905  14.762
20300SOL    HW262740   5.057   4.797  14.705
20301SOL     OW62741   8.501   4.288  14.109
20301SOL    HW162742   8.523   4.354  14.044
20301SOL    HW262743   8.577   4.284  14.167
20302SOL     OW62744   1.477   9.577  10.998
20302SOL    HW162745   1.443   9.607  11.083
20302SOL    HW262746   1.485   9.482  11.008
20303SOL     OW62747   7.220  14.490   5.779
20303SOL    HW162748   7.138  14.445   5.799
20303SOL    HW262749   7.205  14.581   5.804
20304SOL     OW62750  10.242  14.844   6.282
20304SOL    HW162751  10.148  14.854   6.266
20304SOL    HW262752  10.261  14.753   6.258
20305SOL     OW62753   2.487   9.655   8.925
20305SOL    HW162754   2.500   9.616   8.839
20305SOL    HW262755   2.572   9.693   8.947
20306SOL     OW62756   2.295  13.417   1.386
20306SOL    HW162757   2.389  13.403   1.374
20306SOL    HW262758   2.257  13.402   1.299
20307SOL     OW62759   9.463   8.020   3.443
20307SOL    HW162760   9.473   7.937   3.490
20307SOL    HW262761   9.404   7.999   3.371
20308SOL     OW62762  13.365  10.125   2.931
20308SOL    HW162763  13.338  10.081   3.011
20308SOL    HW262764  13.375  10.055   2.867
20309SOL     OW62765  11.310  11.075   4.423
20309SOL    HW162766  11.221  11.042   4.440
20309SOL    HW262767  11.368  11.004   4.452
20310SOL     OW62768  12.937   0.533   1.333
20310SOL    HW162769  12.850   0.558   1.366
20310SOL    HW262770  12.996   0.546   1.408
20311SOL     OW62771   0.003   3.302   7.243
20311SOL    HW162772   0.085   3.341   7.212
20311SOL    HW262773   0.024   3.210   7.256
20312SOL     OW62774   8.467   5.960   6.745
20312SOL    HW162775   8.454   5.887   6.806
20312SOL    HW262776   8.479   6.036   6.801
20313SOL     OW62777  13.351   1.208  11.836
20313SOL    HW162778  13.389   1.200  11.923
20313SOL    HW262779  13.358   1.300  11.814
20314SOL     OW62780  11.539   4.911   2.920
20314SOL    HW162781  11.477   4.946   2.984
20314SOL    HW262782  11.549   4.819   2.944
20315SOL     OW62783   8.318   6.331   0.699
20315SOL    HW162784   8.337   6.376   0.781
20315SOL    HW262785   8.236   6.284   0.716
20316SOL     OW62786  11.428   1.213  13.721
20316SOL    HW162787  11.434   1.171  13.806
20316SOL    HW262788  11.376   1.152  13.668
20317SOL     OW62789   4.647   7.479   3.534
20317SOL    HW162790   4.574   7.495   3.594
20317SOL    HW262791   4.721   7.459   3.591
20318SOL     OW62792   1.736   9.259   9.045
20318SOL    HW162793   1.802   9.288   9.108
20318SOL    HW262794   1.749   9.315   8.968
20319SOL     OW62795  11.172   5.468  14.141
20319SOL    HW162796  11.131   5.538  14.090
20319SOL    HW262797  11.264   5.470  14.116
20320SOL     OW62798   9.670   0.303  11.359
20320SOL    HW162799   9.588   0.260  11.336
20320SOL    HW262800   9.706   0.250  11.430
20321SOL     OW62801   7.411   5.946   1.947
20321SOL    HW162802   7.427   5.977   2.036
20321SOL    HW262803   7.316   5.935   1.941
20322SOL     OW62804  13.416  10.727   6.123
20322SOL    HW162805  13.341  10.770   6.164
20322SOL    HW262806  13.387  10.709   6.033
20323SOL     OW62807  11.049   9.262  11.204
20323SOL    HW162808  11.082   9.225  11.122
20323SOL    HW262809  11.123   9.257  11.265
20324SOL     OW62810   8.620   2.396   7.656
20324SOL    HW162811   8.705   2.385   7.698
20324SOL    HW262812   8.610   2.320   7.600
20325SOL     OW62813   2.915   4.747  10.223
20325SOL    HW162814   2.969   4.679  10.262
20325SOL    HW262815   2.837   4.751  10.280
20326SOL     OW62816   3.231   6.130   2.177
20326SOL    HW162817   3.214   6.210   2.226
20326SOL    HW262818   3.289   6.079   2.233
20327SOL     OW62819  13.674   1.950   1.168
20327SOL    HW162820  13.769   1.953   1.177
20327SOL    HW262821  13.649   2.039   1.145
20328SOL     OW62822  13.361   8.712  13.869
20328SOL    HW162823  13.267   8.697  13.878
20328SOL    HW262824  13.369   8.768  13.791
20329SOL     OW62825  12.938  10.276   3.478
20329SOL    HW162826  12.972  10.275   3.388
20329SOL    HW262827  12.881  10.353   3.480
20330SOL     OW62828   7.348  13.883   0.042
20330SOL    HW162829   7.385  13.965   0.011
20330SOL    HW262830   7.280  13.910   0.104
20331SOL     OW62831   6.603   4.013  12.255
20331SOL    HW162832   6.588   3.958  12.179
20331SOL    HW262833   6.518   4.017  12.300
20332SOL     OW62834   7.470   7.599  13.594
20332SOL    HW162835   7.398   7.605  13.531
20332SOL    HW262836   7.518   7.520  13.567
20333SOL     OW62837  14.831   2.084  11.863
20333SOL    HW162838  14.737   2.070  11.862
20333SOL    HW262839  14.868   2.007  11.819
20334SOL     OW62840   9.914   1.106   5.176
20334SOL    HW162841   9.832   1.066   5.147
20334SOL    HW262842   9.951   1.044   5.238
20335SOL     OW62843   3.604   6.866   4.892
20335SOL    HW162844   3.678   6.859   4.952
20335SOL    HW262845   3.641   6.851   4.805
20336SOL     OW62846   4.696  11.275   7.980
20336SOL    HW162847   4.619  11.294   7.926
20336SOL    HW262848   4.716  11.183   7.963
20337SOL     OW62849   1.351   1.869   3.965
20337SOL    HW162850   1.400   1.935   4.014
20337SOL    HW262851   1.260   1.882   3.990
20338SOL     OW62852   0.054   1.393   4.609
20338SOL    HW162853   0.031   1.413   4.700
20338SOL    HW262854  14.849   1.410   4.560
20339SOL     OW62855   2.904   6.385  13.176
20339SOL    HW162856   2.941   6.419  13.257
20339SOL    HW262857   2.978   6.348  13.129
20340SOL     OW62858  13.521  10.857  11.421
20340SOL    HW162859  13.439  10.832  11.463
20340SOL    HW262860  13.507  10.948  11.395
20341SOL     OW62861   4.575   0.808   8.016
20341SOL    HW162862   4.625   0.727   8.018
20341SOL    HW262863   4.622   0.866   8.077
20342SOL     OW62864   2.631   6.830   5.116
20342SOL    HW162865   2.563   6.895   5.103
20342SOL    HW262866   2.665   6.849   5.204
20343SOL     OW62867   3.349   8.231  11.945
20343SOL    HW162868   3.290   8.219  11.871
20343SOL    HW262869   3.377   8.323  11.939
20344SOL     OW62870  13.508   9.047  13.894
20344SOL    HW162871  13.534   9.139  13.896
20344SOL    HW262872  13.427   9.044  13.945
20345SOL     OW62873   3.288   4.649   5.439
20345SOL    HW162874   3.325   4.631   5.353
20345SOL    HW262875   3.303   4.743   5.453
20346SOL     OW62876  11.824   6.913   7.709
20346SOL    HW162877  11.802   6.860   7.785
20346SOL    HW262878  11.813   7.003   7.737
20347SOL     OW62879   8.536  14.080  12.358
20347SOL    HW162880   8.504  14.128  12.282
20347SOL    HW262881   8.509  13.990  12.343
20348SOL     OW62882   6.551   0.537   2.408
20348SOL    HW162883   6.540   0.621   2.452
20348SOL    HW262884   6.503   0.547   2.326
20349SOL     OW62885   8.685   2.306   0.068
20349SOL    HW162886   8.726   2.392   0.058
20349SOL    HW262887   8.624   2.300  14.871
20350SOL     OW62888   7.209   7.423   8.307
20350SOL    HW162889   7.303   7.416   8.328
20350SOL    HW262890   7.172   7.470   8.381
20351SOL     OW62891  11.098   2.272   8.903
20351SOL    HW162892  11.176   2.314   8.939
20351SOL    HW262893  11.099   2.183   8.939
20352SOL     OW62894   5.105   2.354   1.648
20352SOL    HW162895   5.104   2.446   1.621
20352SOL    HW262896   5.048   2.310   1.585
20353SOL     OW62897   0.428  11.346   9.285
20353SOL    HW162898   0.427  11.442   9.279
20353SOL    HW262899   0.355  11.325   9.343
20354SOL     OW62900   9.885  13.679   3.828
20354SOL    HW162901   9.853  13.769   3.819
20354SOL    HW262902   9.856  13.651   3.914
20355SOL     OW62903   2.382   1.839   8.669
20355SOL    HW162904   2.446   1.879   8.729
20355SOL    HW262905   2.422   1.846   8.583
20356SOL     OW62906   2.558   5.611   0.603
20356SOL    HW162907   2.494   5.634   0.536
20356SOL    HW262908   2.521   5.534   0.646
20357SOL     OW62909   5.028  11.424  12.966
20357SOL    HW162910   4.961  11.413  13.033
20357SOL    HW262911   5.006  11.507  12.924
20358SOL     OW62912   8.605  10.278   1.748
20358SOL    HW162913   8.696  10.267   1.721
20358SOL    HW262914   8.560  10.309   1.669
20359SOL     OW62915   1.131   1.672   2.950
20359SOL    HW162916   1.224   1.674   2.971
20359SOL    HW262917   1.122   1.597   2.891
20360SOL     OW62918  11.176  10.679   5.989
20360SOL    HW162919  11.228  10.669   6.069
20360SOL    HW262920  11.091  10.643   6.012
20361SOL     OW62921   4.810   3.788   0.395
20361SOL    HW162922   4.824   3.721   0.462
20361SOL    HW262923   4.895   3.830   0.384
20362SOL     OW62924  10.378   6.730   6.180
20362SOL    HW162925  10.394   6.648   6.227
20362SOL    HW262926  10.409   6.712   6.091
20363SOL     OW62927   1.256   5.864  10.346
20363SOL    HW162928   1.261   5.942  10.291
20363SOL    HW262929   1.186   5.882  10.408
20364SOL     OW62930  10.955   4.887  10.862
20364SOL    HW162931  11.045   4.862  10.838
20364SOL    HW262932  10.956   4.893  10.957
20365SOL     OW62933  10.759   8.213   6.535
20365SOL    HW162934  10.691   8.222   6.602
20365SOL    HW262935  10.840   8.199   6.585
20366SOL     OW62936  13.197   4.749   0.513
20366SOL    HW162937  13.244   4.671   0.544
20366SOL    HW262938  13.251   4.782   0.441
20367SOL     OW62939   2.836   2.555   8.417
20367SOL    HW162940   2.761   2.614   8.429
20367SOL    HW262941   2.827   2.524   8.327
20368SOL     OW62942   6.677   1.118   0.049
20368SOL    HW162943   6.706   1.103   0.139
20368SOL    HW262944   6.758   1.128  14.875
20369SOL     OW62945   0.627  10.616  14.849
20369SOL    HW162946   0.599  10.524  14.856
20369SOL    HW262947   0.606  10.654   0.057
20370SOL     OW62948   7.385   6.488   8.832
20370SOL    HW162949   7.347   6.547   8.897
20370SOL    HW262950   7.321   6.418   8.823
20371SOL     OW62951   2.928   0.806   3.776
20371SOL    HW162952   2.996   0.857   3.731
20371SOL    HW262953   2.895   0.864   3.844
20372SOL     OW62954   6.140  13.332  10.613
20372SOL    HW162955   6.144  13.267  10.683
20372SOL    HW262956   6.051  13.323  10.578
20373SOL     OW62957   2.919   6.224   6.480
20373SOL    HW162958   2.861   6.151   6.504
20373SOL    HW262959   2.962   6.195   6.400
20374SOL     OW62960   9.900   8.106   4.732
20374SOL    HW162961   9.854   8.137   4.809
20374SOL    HW262962   9.960   8.038   4.765
20375SOL     OW62963  14.416   0.775   0.316
20375SOL    HW162964  14.410   0.822   0.233
20375SOL    HW262965  14.348   0.708   0.310
20376SOL     OW62966   8.701   1.916   6.258
20376SOL    HW162967   8.617   1.929   6.302
20376SOL    HW262968   8.700   1.979   6.186
20377SOL     OW62969  13.360   2.994   2.854
20377SOL    HW162970  13.330   3.047   2.927
20377SOL    HW262971  13.424   3.049   2.809
20378SOL     OW62972   6.643   4.790   9.341
20378SOL    HW162973   6.661   4.769   9.249
20378SOL    HW262974   6.690   4.872   9.356
20379SOL     OW62975   7.071   7.435   0.973
20379SOL    HW162976   7.048   7.424   1.065
20379SOL    HW262977   7.025   7.364   0.928
20380SOL     OW62978   5.204   4.531  13.368
20380SOL    HW162979   5.249   4.526  13.283
20380SOL    HW262980   5.153   4.450  13.373
20381SOL     OW62981  10.867   3.261   3.118
20381SOL    HW162982  10.790   3.222   3.076
20381SOL    HW262983  10.849   3.256   3.212
20382SOL     OW62984   3.722   4.279  11.511
20382SOL    HW162985   3.783   4.347  11.485
20382SOL    HW262986   3.643   4.326  11.537
20383SOL     OW62987  11.115   5.698  13.990
20383SOL    HW162988  11.180   5.745  13.938
20383SOL    HW262989  11.046   5.763  14.007
20384SOL     OW62990   6.063  11.246  14.512
20384SOL    HW162991   6.148  11.272  14.478
20384SOL    HW262992   6.047  11.306  14.585
20385SOL     OW62993   4.711   0.263   1.080
20385SOL    HW162994   4.718   0.178   1.123
20385SOL    HW262995   4.769   0.257   1.005
20386SOL     OW62996   4.048  12.535  10.550
20386SOL    HW162997   4.045  12.609  10.610
20386SOL    HW262998   4.120  12.481  10.581
20387SOL     OW62999  10.159  13.660   6.523
20387SOL    HW163000  10.105  13.739   6.513
20387SOL    HW263001  10.099  13.595   6.560
20388SOL     OW63002   4.262  13.406   0.784
20388SOL    HW163003   4.258  13.315   0.754
20388SOL    HW263004   4.175  13.441   0.768
20389SOL     OW63005   3.039   9.514  11.596
20389SOL    HW163006   2.994   9.431  11.611
20389SOL    HW263007   2.978   9.565  11.543
20390SOL     OW63008   3.118  11.563   7.420
20390SOL    HW163009   3.166  11.598   7.496
20390SOL    HW263010   3.040  11.618   7.414
20391SOL     OW63011   4.573  10.003   1.301
20391SOL    HW163012   4.611  10.078   1.347
20391SOL    HW263013   4.493  10.036   1.262
20392SOL     OW63014  14.477   5.769  13.396
20392SOL    HW163015  14.462   5.698  13.333
20392SOL    HW263016  14.408   5.832  13.378
20393SOL     OW63017   6.866   9.143   4.927
20393SOL    HW163018   6.790   9.174   4.976
20393SOL    HW263019   6.856   9.183   4.841
20394SOL     OW63020   9.618   8.438  10.001
20394SOL    HW163021   9.630   8.418   9.908
20394SOL    HW263022   9.569   8.364  10.036
20395SOL     OW63023   9.888  14.164   4.374
20395SOL    HW163024   9.912  14.253   4.349
20395SOL    HW263025   9.898  14.162   4.469
20396SOL     OW63026  12.970   5.353   4.959
20396SOL    HW163027  12.975   5.408   4.881
20396SOL    HW263028  12.886   5.308   4.952
20397SOL     OW63029  12.673   8.621   9.245
20397SOL    HW163030  12.735   8.549   9.232
20397SOL    HW263031  12.592   8.590   9.205
20398SOL     OW63032   6.269  10.707   0.291
20398SOL    HW163033   6.273  10.635   0.227
20398SOL    HW263034   6.360  10.736   0.299
20399SOL     OW63035   9.155   5.907   9.559
20399SOL    HW163036   9.160   5.886   9.653
20399SOL    HW263037   9.122   5.997   9.557
20400SOL     OW63038  14.547  14.869  11.910
20400SOL    HW163039  14.642  14.864  11.923
20400SOL    HW263040  14.533  14.845  11.819
20401SOL     OW63041  11.075   0.982   9.104
20401SOL    HW163042  11.084   0.961   9.197
20401SOL    HW263043  11.154   1.033   9.083
20402SOL     OW63044  14.070   2.512   0.721
20402SOL    HW163045  13.982   2.547   0.708
20402SOL    HW263046  14.106   2.505   0.633
20403SOL     OW63047   7.463  11.278   7.200
20403SOL    HW163048   7.384  11.260   7.149
20403SOL    HW263049   7.478  11.372   7.191
20404SOL     OW63050   9.619   7.348   0.398
20404SOL    HW163051   9.624   7.356   0.493
20404SOL    HW263052   9.525   7.354   0.379
20405SOL     OW63053   5.086   4.551   6.925
20405SOL    HW163054   5.089   4.467   6.878
20405SOL    HW263055   4.997   4.583   6.911
20406SOL     OW63056   4.032   6.958   7.482
20406SOL    HW163057   4.029   6.924   7.571
20406SOL    HW263058   4.084   6.895   7.433
20407SOL     OW63059  10.831  13.286  11.013
20407SOL    HW163060  10.902  13.264  10.952
20407SOL    HW263061  10.757  13.306  10.957
20408SOL     OW63062   4.482   0.534  13.964
20408SOL    HW163063   4.437   0.617  13.978
20408SOL    HW263064   4.477   0.519  13.870
20409SOL     OW63065   0.568   6.179  14.109
20409SOL    HW163066   0.554   6.244  14.039
20409SOL    HW263067   0.521   6.214  14.184
20410SOL     OW63068   5.727  10.977   8.027
20410SOL    HW163069   5.763  10.978   7.939
20410SOL    HW263070   5.742  10.887   8.058
20411SOL     OW63071   1.193   4.922   7.922
20411SOL    HW163072   1.151   4.887   8.001
20411SOL    HW263073   1.279   4.952   7.951
20412SOL     OW63074   7.945   9.118   9.735
20412SOL    HW163075   8.012   9.169   9.781
20412SOL    HW263076   7.975   9.115   9.645
20413SOL     OW63077  13.043  14.568  14.108
20413SOL    HW163078  13.114  14.570  14.172
20413SOL    HW263079  12.999  14.652  14.117
20414SOL     OW63080   1.707  10.858   9.259
20414SOL    HW163081   1.738  10.862   9.350
20414SOL    HW263082   1.612  10.858   9.266
20415SOL     OW63083  13.774   7.729   1.182
20415SOL    HW163084  13.744   7.701   1.268
20415SOL    HW263085  13.835   7.661   1.154
20416SOL     OW63086   2.885   7.605   9.862
20416SOL    HW163087   2.970   7.625   9.823
20416SOL    HW263088   2.899   7.616   9.956
20417SOL     OW63089   7.175   2.959   2.005
20417SOL    HW163090   7.184   2.875   1.960
20417SOL    HW263091   7.164   3.023   1.934
20418SOL     OW63092   9.575   5.663   4.753
20418SOL    HW163093   9.638   5.735   4.763
20418SOL    HW263094   9.512   5.676   4.823
20419SOL     OW63095   6.823   1.756  11.995
20419SOL    HW163096   6.868   1.801  12.067
20419SOL    HW263097   6.886   1.689  11.966
20420SOL     OW63098   3.098   4.417   6.591
20420SOL    HW163099   3.194   4.409   6.586
20420SOL    HW263100   3.084   4.478   6.664
20421SOL     OW63101  10.882   5.039   9.069
20421SOL    HW163102  10.861   5.108   9.131
20421SOL    HW263103  10.962   4.998   9.104
20422SOL     OW63104  13.196   6.149   8.156
20422SOL    HW163105  13.279   6.164   8.201
20422SOL    HW263106  13.135   6.210   8.198
20423SOL     OW63107  12.111  14.640  13.523
20423SOL    HW163108  12.024  14.656  13.559
20423SOL    HW263109  12.134  14.552  13.553
20424SOL     OW63110   5.639  12.973   9.509
20424SOL    HW163111   5.720  12.958   9.462
20424SOL    HW263112   5.622  12.891   9.555
20425SOL     OW63113  13.228   7.788   9.534
20425SOL    HW163114  13.307   7.767   9.583
20425SOL    HW263115  13.176   7.841   9.594
20426SOL     OW63116   0.795   5.356   2.897
20426SOL    HW163117   0.730   5.321   2.958
20426SOL    HW263118   0.795   5.294   2.824
20427SOL     OW63119   7.399  10.929   7.579
20427SOL    HW163120   7.381  10.948   7.671
20427SOL    HW263121   7.494  10.918   7.574
20428SOL     OW63122  12.186   5.566  12.448
20428SOL    HW163123  12.261   5.622  12.429
20428SOL    HW263124  12.223   5.478  12.456
20429SOL     OW63125   5.403   7.822   0.666
20429SOL    HW163126   5.403   7.797   0.574
20429SOL    HW263127   5.413   7.740   0.714
20430SOL     OW63128   4.566  10.735   0.821
20430SOL    HW163129   4.508  10.687   0.760
20430SOL    HW263130   4.648  10.687   0.818
20431SOL     OW63131  13.879  10.767  10.832
20431SOL    HW163132  13.945  10.711  10.872
20431SOL    HW263133  13.837  10.812  10.905
20432SOL     OW63134  11.606  10.185   4.657
20432SOL    HW163135  11.602  10.140   4.741
20432SOL    HW263136  11.596  10.114   4.592
20433SOL     OW63137   2.345   8.665   5.985
20433SOL    HW163138   2.439   8.683   5.994
20433SOL    HW263139   2.302   8.740   6.025
20434SOL     OW63140   3.724  13.528   8.697
20434SOL    HW163141   3.738  13.468   8.623
20434SOL    HW263142   3.813  13.554   8.724
20435SOL     OW63143   6.450   6.353   5.337
20435SOL    HW163144   6.372   6.358   5.282
20435SOL    HW263145   6.424   6.392   5.420
20436SOL     OW63146   8.705  11.804   5.310
20436SOL    HW163147   8.748  11.729   5.270
20436SOL    HW263148   8.751  11.817   5.393
20437SOL     OW63149   9.722   3.296   2.775
20437SOL    HW163150   9.709   3.259   2.688
20437SOL    HW263151   9.636   3.287   2.817
20438SOL     OW63152   9.978   8.266  12.316
20438SOL    HW163153   9.932   8.313  12.247
20438SOL    HW263154  10.034   8.204  12.270
20439SOL     OW63155   7.729   8.938   6.872
20439SOL    HW163156   7.743   8.880   6.797
20439SOL    HW263157   7.640   8.971   6.861
20440SOL     OW63158   5.947  12.762   4.100
20440SOL    HW163159   6.026  12.811   4.078
20440SOL    HW263160   5.933  12.780   4.193
20441SOL     OW63161  14.324  13.803  14.268
20441SOL    HW163162  14.254  13.756  14.223
20441SOL    HW263163  14.340  13.880  14.213
20442SOL     OW63164   1.959   8.926   2.520
20442SOL    HW163165   2.001   8.877   2.450
20442SOL    HW263166   1.873   8.884   2.531
20443SOL     OW63167   0.757   3.697   4.462
20443SOL    HW163168   0.821   3.699   4.391
20443SOL    HW263169   0.808   3.676   4.540
20444SOL     OW63170   2.835  13.564  12.525
20444SOL    HW163171   2.801  13.591  12.440
20444SOL    HW263172   2.918  13.611  12.534
20445SOL     OW63173  12.325  12.149   8.051
20445SOL    HW163174  12.420  12.137   8.048
20445SOL    HW263175  12.303  12.140   8.144
20446SOL     OW63176   4.501  10.825  11.087
20446SOL    HW163177   4.566  10.882  11.128
20446SOL    HW263178   4.538  10.737  11.095
20447SOL     OW63179   6.725   9.213  14.108
20447SOL    HW163180   6.754   9.221  14.018
20447SOL    HW263181   6.688   9.299  14.129
20448SOL     OW63182   6.032   8.134   0.406
20448SOL    HW163183   6.042   8.216   0.455
20448SOL    HW263184   6.044   8.065   0.472
20449SOL     OW63185   4.217   4.786  10.553
20449SOL    HW163186   4.230   4.880  10.536
20449SOL    HW263187   4.123   4.779  10.571
20450SOL     OW63188   1.039  13.745   7.969
20450SOL    HW163189   1.120  13.713   7.928
20450SOL    HW263190   1.052  13.839   7.977
20451SOL     OW63191   0.722  11.153   4.846
20451SOL    HW163192   0.776  11.204   4.784
20451SOL    HW263193   0.780  11.084   4.877
20452SOL     OW63194   7.557  11.368   3.277
20452SOL    HW163195   7.477  11.415   3.304
20452SOL    HW263196   7.540  11.344   3.185
20453SOL     OW63197  14.318   2.517   9.763
20453SOL    HW163198  14.282   2.428   9.762
20453SOL    HW263199  14.280   2.559   9.686
20454SOL     OW63200   3.235  13.140   6.240
20454SOL    HW163201   3.145  13.169   6.249
20454SOL    HW263202   3.270  13.139   6.329
20455SOL     OW63203   5.022   5.570  13.489
20455SOL    HW163204   4.988   5.564  13.400
20455SOL    HW263205   4.964   5.631  13.533
20456SOL     OW63206   1.418  10.514  14.393
20456SOL    HW163207   1.345  10.465  14.357
20456SOL    HW263208   1.382  10.561  14.468
20457SOL     OW63209   5.378   0.435   7.477
20457SOL    HW163210   5.447   0.449   7.412
20457SOL    HW263211   5.313   0.503   7.459
20458SOL     OW63212  12.881   6.073  10.110
20458SOL    HW163213  12.800   6.113  10.080
20458SOL    HW263214  12.945   6.144  10.110
20459SOL     OW63215   4.700  12.931   6.563
20459SOL    HW163216   4.767  12.863   6.563
20459SOL    HW263217   4.661  12.927   6.650
20460SOL     OW63218   3.718   1.722   0.425
20460SOL    HW163219   3.635   1.764   0.401
20460SOL    HW263220   3.784   1.770   0.375
20461SOL     OW63221   1.457   7.189   8.962
20461SOL    HW163222   1.545   7.202   8.996
20461SOL    HW263223   1.399   7.219   9.032
20462SOL     OW63224   9.883   5.374   5.658
20462SOL    HW163225   9.800   5.337   5.688
20462SOL    HW263226   9.857   5.445   5.599
20463SOL     OW63227  10.450  10.422   7.568
20463SOL    HW163228  10.414  10.360   7.632
20463SOL    HW263229  10.533  10.449   7.606
20464SOL     OW63230   0.809  10.501   4.147
20464SOL    HW163231   0.753  10.550   4.208
20464SOL    HW263232   0.893  10.493   4.192
20465SOL     OW63233  12.550   0.095   4.531
20465SOL    HW163234  12.587   0.141   4.606
20465SOL    HW263235  12.549   0.003   4.557
20466SOL     OW63236   7.385   8.669   5.920
20466SOL    HW163237   7.458   8.691   5.862
20466SOL    HW263238   7.330   8.611   5.868
20467SOL     OW63239   6.442  13.618   8.658
20467SOL    HW163240   6.401  13.652   8.737
20467SOL    HW263241   6.412  13.527   8.653
20468SOL     OW63242   5.548   0.636   7.853
20468SOL    HW163243   5.473   0.673   7.807
20468SOL    HW263244   5.522   0.546   7.873
20469SOL     OW63245   3.355  13.967  10.371
20469SOL    HW163246   3.370  13.963  10.276
20469SOL    HW263247   3.286  14.031  10.382
20470SOL     OW63248   2.246   5.450   6.455
20470SOL    HW163249   2.282   5.448   6.544
20470SOL    HW263250   2.256   5.541   6.428
20471SOL     OW63251   6.746   1.960  12.846
20471SOL    HW163252   6.664   1.993  12.808
20471SOL    HW263253   6.718   1.893  12.909
20472SOL     OW63254   7.404   1.754  10.184
20472SOL    HW163255   7.408   1.658  10.191
20472SOL    HW263256   7.322   1.772  10.139
20473SOL     OW63257  11.339   3.715  11.059
20473SOL    HW163258  11.259   3.728  11.008
20473SOL    HW263259  11.409   3.750  11.004
20474SOL     OW63260  11.355   9.991   0.212
20474SOL    HW163261  11.355  10.034   0.297
20474SOL    HW263262  11.317  10.055   0.152
20475SOL     OW63263  12.645   0.024   6.567
20475SOL    HW163264  12.731   0.022   6.524
20475SOL    HW263265  12.597   0.093   6.522
20476SOL     OW63266   3.122  11.974   9.484
20476SOL    HW163267   3.090  12.049   9.433
20476SOL    HW263268   3.216  11.974   9.470
20477SOL     OW63269   3.285   8.833   4.380
20477SOL    HW163270   3.331   8.763   4.334
20477SOL    HW263271   3.270   8.900   4.314
20478SOL     OW63272   0.356   9.161  14.866
20478SOL    HW163273   0.268   9.197  14.856
20478SOL    HW263274   0.347   9.093   0.056
20479SOL     OW63275  10.781   2.402   9.537
20479SOL    HW163276  10.767   2.307   9.533
20479SOL    HW263277  10.758   2.433   9.450
20480SOL     OW63278   8.631  11.231  10.026
20480SOL    HW163279   8.663  11.321  10.028
20480SOL    HW263280   8.621  11.211   9.932
20481SOL     OW63281   2.481   9.518  14.139
20481SOL    HW163282   2.469   9.424  14.155
20481SOL    HW263283   2.463   9.529  14.046
20482SOL     OW63284   4.469   2.008   3.186
20482SOL    HW163285   4.502   1.985   3.099
20482SOL    HW263286   4.441   1.924   3.224
20483SOL     OW63287  12.247   5.644   3.519
20483SOL    HW163288  12.317   5.581   3.502
20483SOL    HW263289  12.285   5.729   3.498
20484SOL     OW63290   4.380   7.879   5.374
20484SOL    HW163291   4.374   7.959   5.322
20484SOL    HW263292   4.472   7.872   5.399
20485SOL     OW63293   2.738   3.175  13.271
20485SOL    HW163294   2.741   3.088  13.309
20485SOL    HW263295   2.645   3.193  13.257
20486SOL     OW63296   0.654   5.728   0.556
20486SOL    HW163297   0.581   5.735   0.618
20486SOL    HW263298   0.631   5.788   0.486
20487SOL     OW63299   0.719   3.969   4.848
20487SOL    HW163300   0.709   3.875   4.835
20487SOL    HW263301   0.750   4.002   4.763
20488SOL     OW63302   6.796  11.799   2.171
20488SOL    HW163303   6.890  11.797   2.189
20488SOL    HW263304   6.758  11.846   2.244
20489SOL     OW63305   7.468  10.492  13.109
20489SOL    HW163306   7.485  10.413  13.160
20489SOL    HW263307   7.477  10.463  13.018
20490SOL     OW63308   3.399   0.609  10.881
20490SOL    HW163309   3.313   0.573  10.900
20490SOL    HW263310   3.433   0.554  10.810
20491SOL     OW63311   0.725   2.421   5.563
20491SOL    HW163312   0.658   2.357   5.538
20491SOL    HW263313   0.686   2.506   5.539
20492SOL     OW63314  12.761   1.743  12.837
20492SOL    HW163315  12.732   1.770  12.750
20492SOL    HW263316  12.844   1.788  12.850
20493SOL     OW63317   8.513  13.495   9.686
20493SOL    HW163318   8.454  13.451   9.625
20493SOL    HW263319   8.558  13.424   9.731
20494SOL     OW63320  10.366   0.579   3.847
20494SOL    HW163321  10.391   0.579   3.940
20494SOL    HW263322  10.276   0.546   3.847
20495SOL     OW63323   5.956   1.003   7.349
20495SOL    HW163324   5.872   0.957   7.359
20495SOL    HW263325   6.013   0.939   7.306
20496SOL     OW63326   5.782   2.770   2.385
20496SOL    HW163327   5.831   2.701   2.428
20496SOL    HW263328   5.812   2.851   2.426
20497SOL     OW63329  12.737   6.445   8.422
20497SOL    HW163330  12.748   6.432   8.516
20497SOL    HW263331  12.642   6.438   8.408
20498SOL     OW63332   7.063   2.545   0.685
20498SOL    HW163333   7.132   2.546   0.750
20498SOL    HW263334   7.091   2.607   0.618
20499SOL     OW63335   5.461   0.521   0.643
20499SOL    HW163336   5.510   0.476   0.712
20499SOL    HW263337   5.396   0.457   0.615
20500SOL     OW63338   3.417   9.855  10.059
20500SOL    HW163339   3.346   9.864  10.122
20500SOL    HW263340   3.393   9.913   9.987
20501SOL     OW63341   8.111   3.162   1.052
20501SOL    HW163342   8.020   3.148   1.027
20501SOL    HW263343   8.119   3.257   1.062
20502SOL     OW63344   7.989   8.261   0.723
20502SOL    HW163345   7.940   8.333   0.683
20502SOL    HW263346   7.983   8.277   0.817
20503SOL     OW63347   9.260  14.504  13.894
20503SOL    HW163348   9.240  14.444  13.966
20503SOL    HW263349   9.201  14.476  13.823
20504SOL     OW63350  13.839   5.360   6.791
20504SOL    HW163351  13.921   5.410   6.796
20504SOL    HW263352  13.865   5.270   6.812
20505SOL     OW63353   1.546   8.305   6.561
20505SOL    HW163354   1.596   8.253   6.498
20505SOL    HW263355   1.562   8.395   6.536
20506SOL     OW63356  12.874   3.301  11.519
20506SOL    HW163357  12.815   3.342  11.582
20506SOL    HW263358  12.924   3.375  11.483
20507SOL     OW63359   6.950   3.661  10.201
20507SOL    HW163360   6.944   3.665  10.297
20507SOL    HW263361   7.036   3.623  10.185
20508SOL     OW63362  12.059   9.203   0.921
20508SOL    HW163363  12.108   9.183   1.001
20508SOL    HW263364  11.977   9.241   0.951
20509SOL     OW63365  13.389   2.965   7.464
20509SOL    HW163366  13.316   3.013   7.423
20509SOL    HW263367  13.388   2.995   7.555
20510SOL     OW63368   1.535   2.801   1.591
20510SOL    HW163369   1.480   2.781   1.667
20510SOL    HW263370   1.475   2.842   1.529
20511SOL     OW63371  13.276  14.283  13.545
20511SOL    HW163372  13.257  14.343  13.617
20511SOL    HW263373  13.287  14.340  13.469
20512SOL     OW63374  10.507   4.308   1.569
20512SOL    HW163375  10.421   4.322   1.528
20512SOL    HW263376  10.496   4.227   1.620
20513SOL     OW63377   5.541  10.441  11.332
20513SOL    HW163378   5.599  10.391  11.274
20513SOL    HW263379   5.523  10.382  11.405
20514SOL     OW63380   1.860  13.880   8.004
20514SOL    HW163381   1.831  13.891   8.094
20514SOL    HW263382   1.916  13.803   8.006
20515SOL     OW63383   9.902   7.911  13.138
20515SOL    HW163384   9.822   7.961  13.150
20515SOL    HW263385   9.874   7.819  13.146
20516SOL     OW63386  13.641   4.829   2.614
20516SOL    HW163387  13.630   4.884   2.536
20516SOL    HW263388  13.595   4.748   2.592
20517SOL     OW63389  14.519   5.567   3.309
20517SOL    HW163390  14.475   5.520   3.380
20517SOL    HW263391  14.450   5.621   3.270
20518SOL     OW63392   6.965  10.461   0.257
20518SOL    HW163393   6.930  10.395   0.198
20518SOL    HW263394   6.943  10.544   0.216
20519SOL     OW63395   8.476   4.950  14.348
20519SOL    HW163396   8.546   5.004  14.312
20519SOL    HW263397   8.440   5.001  14.420
20520SOL     OW63398   4.242   7.367   3.552
20520SOL    HW163399   4.277   7.316   3.478
20520SOL    HW263400   4.187   7.305   3.600
20521SOL     OW63401   4.102  11.287   1.597
20521SOL    HW163402   4.012  11.267   1.623
20521SOL    HW263403   4.095  11.315   1.506
20522SOL     OW63404   9.133   9.535   8.026
20522SOL    HW163405   9.075   9.611   8.035
20522SOL    HW263406   9.145   9.524   7.932
20523SOL     OW63407   0.122  10.564   0.871
20523SOL    HW163408   0.146  10.535   0.783
20523SOL    HW263409   0.204  10.592   0.911
20524SOL     OW63410  12.794   1.666  10.446
20524SOL    HW163411  12.715   1.715  10.469
20524SOL    HW263412  12.768   1.613  10.370
20525SOL     OW63413   7.320  10.272   5.726
20525SOL    HW163414   7.343  10.362   5.702
20525SOL    HW263415   7.299  10.229   5.643
20526SOL     OW63416  10.400   7.130  10.005
20526SOL    HW163417  10.304   7.123  10.009
20526SOL    HW263418  10.423   7.175  10.086
20527SOL     OW63419   0.239  13.989   0.882
20527SOL    HW163420   0.276  13.934   0.812
20527SOL    HW263421   0.190  14.056   0.835
20528SOL     OW63422   3.224   2.066  10.612
20528SOL    HW163423   3.312   2.098  10.597
20528SOL    HW263424   3.169   2.117  10.551
20529SOL     OW63425   8.776   5.703  12.966
20529SOL    HW163426   8.706   5.756  13.006
20529SOL    HW263427   8.825   5.669  13.040
20530SOL     OW63428   7.139   7.813   9.162
20530SOL    HW163429   7.085   7.865   9.103
20530SOL    HW263430   7.078   7.753   9.205
20531SOL     OW63431   8.548   8.125  12.827
20531SOL    HW163432   8.545   8.128  12.922
20531SOL    HW263433   8.527   8.214  12.799
20532SOL     OW63434   7.926   5.978  12.553
20532SOL    HW163435   7.857   5.917  12.528
20532SOL    HW263436   7.880   6.052  12.592
20533SOL     OW63437   6.502  12.765   9.117
20533SOL    HW163438   6.529  12.721   9.036
20533SOL    HW263439   6.442  12.834   9.087
20534SOL     OW63440   9.554   6.455  14.760
20534SOL    HW163441   9.569   6.545  14.788
20534SOL    HW263442   9.581   6.402  14.835
20535SOL     OW63443   1.973   6.787  14.493
20535SOL    HW163444   2.052   6.826  14.532
20535SOL    HW263445   1.982   6.694  14.511
20536SOL     OW63446  10.296   5.101   2.550
20536SOL    HW163447  10.259   5.115   2.463
20536SOL    HW263448  10.272   5.181   2.598
20537SOL     OW63449   0.639   5.451   2.577
20537SOL    HW163450   0.712   5.506   2.607
20537SOL    HW263451   0.564   5.479   2.629
20538SOL     OW63452   1.854  14.558   1.064
20538SOL    HW163453   1.937  14.542   1.110
20538SOL    HW263454   1.816  14.471   1.054
20539SOL     OW63455   1.198   4.878  11.837
20539SOL    HW163456   1.198   4.852  11.745
20539SOL    HW263457   1.183   4.797  11.886
20540SOL     OW63458   1.185  13.605   3.790
20540SOL    HW163459   1.218  13.568   3.872
20540SOL    HW263460   1.150  13.530   3.742
20541SOL     OW63461  13.667  11.541  10.194
20541SOL    HW163462  13.683  11.447  10.191
20541SOL    HW263463  13.605  11.552  10.266
20542SOL     OW63464   1.809   1.767  10.129
20542SOL    HW163465   1.747   1.817  10.183
20542SOL    HW263466   1.788   1.792  10.039
20543SOL     OW63467   0.488  10.276  12.473
20543SOL    HW163468   0.471  10.244  12.385
20543SOL    HW263469   0.567  10.229  12.501
20544SOL     OW63470   4.291   9.457   7.789
20544SOL    HW163471   4.332   9.452   7.703
20544SOL    HW263472   4.260   9.548   7.796
20545SOL     OW63473   1.518   8.142  14.472
20545SOL    HW163474   1.509   8.236  14.485
20545SOL    HW263475   1.605   8.121  14.505
20546SOL     OW63476   1.514   2.260   0.962
20546SOL    HW163477   1.492   2.325   0.895
20546SOL    HW263478   1.608   2.271   0.977
20547SOL     OW63479   0.580  11.052   2.484
20547SOL    HW163480   0.615  11.030   2.397
20547SOL    HW263481   0.492  11.086   2.466
20548SOL     OW63482   2.712  13.331  11.671
20548SOL    HW163483   2.771  13.295  11.605
20548SOL    HW263484   2.681  13.413  11.634
20549SOL     OW63485   4.501  12.880   3.159
20549SOL    HW163486   4.567  12.942   3.129
20549SOL    HW263487   4.550  12.802   3.183
20550SOL     OW63488  14.043  13.932   8.683
20550SOL    HW163489  14.002  13.889   8.608
20550SOL    HW263490  14.015  13.880   8.758
20551SOL     OW63491   0.486   8.249   7.986
20551SOL    HW163492   0.392   8.232   7.980
20551SOL    HW263493   0.498   8.288   8.073
20552SOL     OW63494  11.399  13.757   1.568
20552SOL    HW163495  11.439  13.746   1.482
20552SOL    HW263496  11.464  13.721   1.629
20553SOL     OW63497   8.355   8.832   0.760
20553SOL    HW163498   8.261   8.846   0.762
20553SOL    HW263499   8.375   8.817   0.668
20554SOL     OW63500   4.178   8.401  11.405
20554SOL    HW163501   4.187   8.309  11.431
20554SOL    HW263502   4.223   8.406  11.321
20555SOL     OW63503  13.146   4.009   5.393
20555SOL    HW163504  13.053   3.991   5.407
20555SOL    HW263505  13.167   3.966   5.311
20556SOL     OW63506  12.932  14.821   8.267
20556SOL    HW163507  12.986   0.024   8.262
20556SOL    HW263508  12.846  14.852   8.293
20557SOL     OW63509   4.099   5.967   8.125
20557SOL    HW163510   4.020   5.991   8.173
20557SOL    HW263511   4.080   5.881   8.087
20558SOL     OW63512   2.197  10.911   2.085
20558SOL    HW163513   2.188  10.937   2.177
20558SOL    HW263514   2.125  10.848   2.071
20559SOL     OW63515   0.038  14.173   1.813
20559SOL    HW163516   0.083  14.248   1.852
20559SOL    HW263517  14.841  14.212   1.765
20560SOL     OW63518   2.282   7.205   7.265
20560SOL    HW163519   2.278   7.128   7.209
20560SOL    HW263520   2.190   7.222   7.288
20561SOL     OW63521   6.588   1.379   4.904
20561SOL    HW163522   6.531   1.415   4.836
20561SOL    HW263523   6.528   1.344   4.970
20562SOL     OW63524   2.129   1.830   1.857
20562SOL    HW163525   2.092   1.911   1.823
20562SOL    HW263526   2.053   1.783   1.893
20563SOL     OW63527   9.509  12.911  13.108
20563SOL    HW163528   9.550  12.828  13.084
20563SOL    HW263529   9.583  12.971  13.120
20564SOL     OW63530   2.045   2.660  12.069
20564SOL    HW163531   2.044   2.749  12.036
20564SOL    HW263532   2.007   2.608  11.998
20565SOL     OW63533   9.627   3.211   3.686
20565SOL    HW163534   9.699   3.273   3.679
20565SOL    HW263535   9.600   3.195   3.596
20566SOL     OW63536   3.679  10.515   4.121
20566SOL    HW163537   3.747  10.451   4.141
20566SOL    HW263538   3.685  10.579   4.192
20567SOL     OW63539  13.516   2.038   2.749
20567SOL    HW163540  13.506   2.082   2.833
20567SOL    HW263541  13.505   1.945   2.769
20568SOL     OW63542  12.894  12.803   4.223
20568SOL    HW163543  12.849  12.853   4.291
20568SOL    HW263544  12.985  12.801   4.251
20569SOL     OW63545   8.429   3.403  13.411
20569SOL    HW163546   8.502   3.355  13.451
20569SOL    HW263547   8.357   3.340  13.408
20570SOL     OW63548   0.829   2.388   1.555
20570SOL    HW163549   0.795   2.328   1.488
20570SOL    HW263550   0.922   2.394   1.537
20571SOL     OW63551   4.747   8.658  10.754
20571SOL    HW163552   4.795   8.718  10.697
20571SOL    HW263553   4.811   8.591  10.778
20572SOL     OW63554  12.398  14.230   6.237
20572SOL    HW163555  12.361  14.231   6.326
20572SOL    HW263556  12.357  14.155   6.194
20573SOL     OW63557   3.029  12.738  10.956
20573SOL    HW163558   2.939  12.739  10.925
20573SOL    HW263559   3.067  12.820  10.923
20574SOL     OW63560  13.732  11.845   9.192
20574SOL    HW163561  13.677  11.773   9.223
20574SOL    HW263562  13.814  11.835   9.240
20575SOL     OW63563  12.055  11.577   4.137
20575SOL    HW163564  11.960  11.577   4.131
20575SOL    HW263565  12.085  11.588   4.047
20576SOL     OW63566   2.695  10.822  11.360
20576SOL    HW163567   2.724  10.907  11.327
20576SOL    HW263568   2.661  10.777  11.283
20577SOL     OW63569   3.830   1.662  12.793
20577SOL    HW163570   3.890   1.729  12.761
20577SOL    HW263571   3.754   1.667  12.736
20578SOL     OW63572   3.364  12.207   1.658
20578SOL    HW163573   3.287  12.151   1.645
20578SOL    HW263574   3.397  12.182   1.745
20579SOL     OW63575  12.173   3.073  11.992
20579SOL    HW163576  12.192   2.990  11.947
20579SOL    HW263577  12.130   3.047  12.073
20580SOL     OW63578   1.395   6.049   5.095
20580SOL    HW163579   1.439   6.005   5.022
20580SOL    HW263580   1.355   5.978   5.145
20581SOL     OW63581   3.592  13.695   0.692
20581SOL    HW163582   3.607  13.648   0.774
20581SOL    HW263583   3.606  13.787   0.715
20582SOL     OW63584  14.098   9.336  11.104
20582SOL    HW163585  14.016   9.290  11.121
20582SOL    HW263586  14.118   9.316  11.012
20583SOL     OW63587   4.963   3.623  11.610
20583SOL    HW163588   4.985   3.610  11.703
20583SOL    HW263589   5.043   3.659  11.572
20584SOL     OW63590   7.683   5.150  10.331
20584SOL    HW163591   7.656   5.152  10.239
20584SOL    HW263592   7.706   5.240  10.352
20585SOL     OW63593  13.421   3.658   2.915
20585SOL    HW163594  13.502   3.612   2.890
20585SOL    HW263595  13.445   3.751   2.912
20586SOL     OW63596  11.238   7.778  10.949
20586SOL    HW163597  11.250   7.814  11.037
20586SOL    HW263598  11.170   7.711  10.959
20587SOL     OW63599   1.872   1.426   0.388
20587SOL    HW163600   1.914   1.512   0.391
20587SOL    HW263601   1.943   1.364   0.403
20588SOL     OW63602   6.371   9.843  14.139
20588SOL    HW163603   6.388   9.853  14.045
20588SOL    HW263604   6.355   9.750  14.151
20589SOL     OW63605   0.433   0.473  13.110
20589SOL    HW163606   0.352   0.424  13.128
20589SOL    HW263607   0.492   0.447  13.180
20590SOL     OW63608   9.545  14.397   6.943
20590SOL    HW163609   9.600  14.466   6.906
20590SOL    HW263610   9.589  14.372   7.024
20591SOL     OW63611  10.503  13.861  11.798
20591SOL    HW163612  10.506  13.904  11.883
20591SOL    HW263613  10.484  13.769  11.819
20592SOL     OW63614   7.047  14.745   7.794
20592SOL    HW163615   6.995  14.815   7.833
20592SOL    HW263616   6.998  14.665   7.811
20593SOL     OW63617   4.833  10.126   3.718
20593SOL    HW163618   4.872  10.162   3.798
20593SOL    HW263619   4.902  10.134   3.652
20594SOL     OW63620   9.843   0.970   7.973
20594SOL    HW163621   9.761   0.938   8.011
20594SOL    HW263622   9.874   1.036   8.034
20595SOL     OW63623   0.814   5.005   6.127
20595SOL    HW163624   0.868   5.004   6.205
20595SOL    HW263625   0.821   5.094   6.093
20596SOL     OW63626   1.356   7.670   8.402
20596SOL    HW163627   1.401   7.618   8.335
20596SOL    HW263628   1.268   7.685   8.366
20597SOL     OW63629   9.626   4.027   6.926
20597SOL    HW163630   9.704   4.079   6.906
20597SOL    HW263631   9.588   4.007   6.840
20598SOL     OW63632   9.246   4.983  12.688
20598SOL    HW163633   9.239   4.938  12.772
20598SOL    HW263634   9.283   4.917  12.629
20599SOL     OW63635   5.350   2.365  13.677
20599SOL    HW163636   5.304   2.348  13.759
20599SOL    HW263637   5.282   2.365  13.610
20600SOL     OW63638  12.395   0.029  13.087
20600SOL    HW163639  12.459   0.077  13.140
20600SOL    HW263640  12.315   0.082  13.093
20601SOL     OW63641   9.646   9.444  14.621
20601SOL    HW163642   9.573   9.438  14.559
20601SOL    HW263643   9.655   9.356  14.656
20602SOL     OW63644   9.366   1.000  12.594
20602SOL    HW163645   9.345   1.069  12.531
20602SOL    HW263646   9.329   0.920  12.556
20603SOL     OW63647  10.617  12.146  11.294
20603SOL    HW163648  10.596  12.061  11.331
20603SOL    HW263649  10.706  12.164  11.323
20604SOL     OW63650  12.183   3.899   1.368
20604SOL    HW163651  12.191   3.806   1.348
20604SOL    HW263652  12.100   3.925   1.328
20605SOL     OW63653  13.887   4.575  14.679
20605SOL    HW163654  13.797   4.599  14.700
20605SOL    HW263655  13.939   4.653  14.703
20606SOL     OW63656   9.214   3.287   7.055
20606SOL    HW163657   9.273   3.245   6.993
20606SOL    HW263658   9.126   3.259   7.027
20607SOL     OW63659   9.215  11.174   3.409
20607SOL    HW163660   9.175  11.146   3.327
20607SOL    HW263661   9.208  11.270   3.407
20608SOL     OW63662   5.463   5.475   3.830
20608SOL    HW163663   5.374   5.504   3.850
20608SOL    HW263664   5.501   5.454   3.915
20609SOL     OW63665  10.898  12.432   8.092
20609SOL    HW163666  10.840  12.508   8.088
20609SOL    HW263667  10.983  12.468   8.118
20610SOL     OW63668   6.555   3.847   1.997
20610SOL    HW163669   6.516   3.902   1.929
20610SOL    HW263670   6.567   3.905   2.072
20611SOL     OW63671  11.391   5.828   1.445
20611SOL    HW163672  11.430   5.843   1.359
20611SOL    HW263673  11.401   5.734   1.460
20612SOL     OW63674  11.762   2.990  13.185
20612SOL    HW163675  11.837   2.931  13.178
20612SOL    HW263676  11.797   3.070  13.225
20613SOL     OW63677   7.042  11.810   5.705
20613SOL    HW163678   7.011  11.799   5.615
20613SOL    HW263679   6.964  11.829   5.756
20614SOL     OW63680  11.094   9.223   8.382
20614SOL    HW163681  11.111   9.241   8.474
20614SOL    HW263682  11.015   9.274   8.362
20615SOL     OW63683  11.001   9.134   5.592
20615SOL    HW163684  10.923   9.095   5.554
20615SOL    HW263685  11.031   9.071   5.657
20616SOL     OW63686  14.239  13.192   9.087
20616SOL    HW163687  14.268  13.268   9.036
20616SOL    HW263688  14.297  13.121   9.060
20617SOL     OW63689   5.376  14.488   4.833
20617SOL    HW163690   5.331  14.548   4.775
20617SOL    HW263691   5.468  14.513   4.828
20618SOL     OW63692   9.226   4.244  13.850
20618SOL    HW163693   9.280   4.243  13.928
20618SOL    HW263694   9.163   4.173  13.863
20619SOL     OW63695  10.694   7.776   8.646
20619SOL    HW163696  10.683   7.870   8.632
20619SOL    HW263697  10.736   7.744   8.565
20620SOL     OW63698   3.403  11.849  14.243
20620SOL    HW163699   3.331  11.825  14.301
20620SOL    HW263700   3.363  11.906  14.177
20621SOL     OW63701   5.445   3.759  10.405
20621SOL    HW163702   5.507   3.832  10.410
20621SOL    HW263703   5.373   3.792  10.351
20622SOL     OW63704   2.963   1.290  13.481
20622SOL    HW163705   2.895   1.223  13.488
20622SOL    HW263706   3.038   1.253  13.527
20623SOL     OW63707   5.742  10.526   9.502
20623SOL    HW163708   5.806  10.555   9.437
20623SOL    HW263709   5.789  10.461   9.555
20624SOL     OW63710  11.341  14.162  12.810
20624SOL    HW163711  11.344  14.193  12.901
20624SOL    HW263712  11.417  14.202  12.768
20625SOL     OW63713   4.850   2.012   4.796
20625SOL    HW163714   4.938   2.036   4.767
20625SOL    HW263715   4.864   1.943   4.862
20626SOL     OW63716   3.538   6.879  11.779
20626SOL    HW163717   3.616   6.930  11.757
20626SOL    HW263718   3.465   6.929  11.744
20627SOL     OW63719   1.072  10.131  12.944
20627SOL    HW163720   1.065  10.153  13.037
20627SOL    HW263721   1.053  10.213  12.898
20628SOL     OW63722   0.734   5.211   1.116
20628SOL    HW163723   0.805   5.263   1.079
20628SOL    HW263724   0.745   5.219   1.211
20629SOL     OW63725   4.688   2.141   5.997
20629SOL    HW163726   4.672   2.102   5.910
20629SOL    HW263727   4.627   2.214   6.002
20630SOL     OW63728   8.602  13.062   7.459
20630SOL    HW163729   8.654  13.016   7.525
20630SOL    HW263730   8.546  13.121   7.509
20631SOL     OW63731   3.569   6.247  11.675
20631SOL    HW163732   3.578   6.308  11.748
20631SOL    HW263733   3.491   6.277  11.628
20632SOL     OW63734   1.342   6.998   3.362
20632SOL    HW163735   1.272   6.941   3.330
20632SOL    HW263736   1.299   7.054   3.427
20633SOL     OW63737   8.427   6.608   2.937
20633SOL    HW163738   8.401   6.624   3.028
20633SOL    HW263739   8.387   6.679   2.888
20634SOL     OW63740   5.082  13.100   5.962
20634SOL    HW163741   5.010  13.164   5.967
20634SOL    HW263742   5.145  13.129   6.027
20635SOL     OW63743  10.911   3.403  12.660
20635SOL    HW163744  10.977   3.437  12.721
20635SOL    HW263745  10.963   3.369  12.587
20636SOL     OW63746   5.270  10.287  14.864
20636SOL    HW163747   5.346  10.231  14.849
20636SOL    HW263748   5.233  10.302  14.776
20637SOL     OW63749   0.940   6.876  12.230
20637SOL    HW163750   0.863   6.825  12.205
20637SOL    HW263751   0.946   6.865  12.325
20638SOL     OW63752   7.878  10.627  14.529
20638SOL    HW163753   7.792  10.593  14.503
20638SOL    HW263754   7.935  10.549  14.530
20639SOL     OW63755  12.921  10.143   2.252
20639SOL    HW163756  12.864  10.207   2.295
20639SOL    HW263757  13.007  10.156   2.293
20640SOL     OW63758  11.794   8.185  10.658
20640SOL    HW163759  11.880   8.145  10.643
20640SOL    HW263760  11.782   8.183  10.753
20641SOL     OW63761   5.766   4.185   7.520
20641SOL    HW163762   5.778   4.112   7.580
20641SOL    HW263763   5.734   4.256   7.575
20642SOL     OW63764  11.089   3.741   2.393
20642SOL    HW163765  11.102   3.835   2.408
20642SOL    HW263766  11.169   3.700   2.424
20643SOL     OW63767   5.246   0.938   3.398
20643SOL    HW163768   5.238   0.896   3.484
20643SOL    HW263769   5.340   0.943   3.383
20644SOL     OW63770   1.322   9.256  14.312
20644SOL    HW163771   1.391   9.279  14.373
20644SOL    HW263772   1.298   9.338  14.269
20645SOL     OW63773   2.632   0.279  11.822
20645SOL    HW163774   2.571   0.326  11.879
20645SOL    HW263775   2.582   0.206  11.788
20646SOL     OW63776   7.885  10.191   3.445
20646SOL    HW163777   7.962  10.228   3.489
20646SOL    HW263778   7.916  10.167   3.358
20647SOL     OW63779   1.602   9.153   1.011
20647SOL    HW163780   1.637   9.212   1.079
20647SOL    HW263781   1.628   9.194   0.929
20648SOL     OW63782   6.326   6.561  10.991
20648SOL    HW163783   6.307   6.477  10.949
20648SOL    HW263784   6.402   6.595  10.944
20649SOL     OW63785  12.873  13.009   7.259
20649SOL    HW163786  12.932  12.983   7.329
20649SOL    HW263787  12.813  12.935   7.248
20650SOL     OW63788  14.388   9.922   4.517
20650SOL    HW163789  14.304   9.961   4.539
20650SOL    HW263790  14.368   9.859   4.447
20651SOL     OW63791   5.951   2.116  12.141
20651SOL    HW163792   5.955   2.107  12.046
20651SOL    HW263793   6.011   2.049  12.174
20652SOL     OW63794   9.212  12.645  13.021
20652SOL    HW163795   9.192  12.708  13.090
20652SOL    HW263796   9.177  12.562  13.052
20653SOL     OW63797   5.190   0.863   0.692
20653SOL    HW163798   5.161   0.907   0.612
20653SOL    HW263799   5.283   0.848   0.678
20654SOL     OW63800   4.059   7.654  13.615
20654SOL    HW163801   4.137   7.647  13.671
20654SOL    HW263802   4.085   7.612  13.533
20655SOL     OW63803   1.050   2.458  12.207
20655SOL    HW163804   1.020   2.496  12.124
20655SOL    HW263805   1.144   2.477  12.209
20656SOL     OW63806   1.481   8.447   1.803
20656SOL    HW163807   1.444   8.363   1.828
20656SOL    HW263808   1.537   8.472   1.877
20657SOL     OW63809   8.222   2.714   0.994
20657SOL    HW163810   8.217   2.795   1.044
20657SOL    HW263811   8.138   2.710   0.947
20658SOL     OW63812  11.271   1.460   3.673
20658SOL    HW163813  11.286   1.527   3.606
20658SOL    HW263814  11.299   1.378   3.631
20659SOL     OW63815   4.709  13.493   5.494
20659SOL    HW163816   4.804  13.488   5.502
20659SOL    HW263817   4.693  13.564   5.431
20660SOL     OW63818   7.460   6.650   5.868
20660SOL    HW163819   7.451   6.568   5.916
20660SOL    HW263820   7.374   6.692   5.877
20661SOL     OW63821   1.912   2.606   8.037
20661SOL    HW163822   1.935   2.693   8.003
20661SOL    HW263823   1.988   2.580   8.089
20662SOL     OW63824   4.919  12.327   1.726
20662SOL    HW163825   4.981  12.273   1.677
20662SOL    HW263826   4.905  12.279   1.808
20663SOL     OW63827  10.543   9.165   2.289
20663SOL    HW163828  10.556   9.071   2.277
20663SOL    HW263829  10.497   9.193   2.210
20664SOL     OW63830   8.576  11.651  14.798
20664SOL    HW163831   8.482  11.638  14.782
20664SOL    HW263832   8.588  11.627   0.014
20665SOL     OW63833   3.886  10.669   5.903
20665SOL    HW163834   3.793  10.687   5.898
20665SOL    HW263835   3.912  10.652   5.812
20666SOL     OW63836   6.758   2.605  12.597
20666SOL    HW163837   6.732   2.635  12.683
20666SOL    HW263838   6.693   2.539  12.573
20667SOL     OW63839   0.059   2.772   3.746
20667SOL    HW163840   0.065   2.787   3.651
20667SOL    HW263841  14.847   2.801   3.769
20668SOL     OW63842  11.557   2.117   1.995
20668SOL    HW163843  11.541   2.206   1.962
20668SOL    HW263844  11.562   2.063   1.916
20669SOL     OW63845  14.611   4.266  11.186
20669SOL    HW163846  14.626   4.355  11.154
20669SOL    HW263847  14.696   4.224  11.183
20670SOL     OW63848   6.982   2.486   7.040
20670SOL    HW163849   7.023   2.565   7.006
20670SOL    HW263850   7.041   2.457   7.110
20671SOL     OW63851   7.547  14.237  13.060
20671SOL    HW163852   7.475  14.210  13.117
20671SOL    HW263853   7.581  14.155  13.025
20672SOL     OW63854   4.098   1.404   2.792
20672SOL    HW163855   4.080   1.319   2.832
20672SOL    HW263856   4.108   1.384   2.698
20673SOL     OW63857  11.634  10.685   6.171
20673SOL    HW163858  11.700  10.617   6.161
20673SOL    HW263859  11.586  10.661   6.250
20674SOL     OW63860   0.301   2.506   7.894
20674SOL    HW163861   0.277   2.597   7.912
20674SOL    HW263862   0.244   2.454   7.951
20675SOL     OW63863  12.975   0.843   1.350
20675SOL    HW163864  13.036   0.770   1.362
20675SOL    HW263865  12.895   0.814   1.393
20676SOL     OW63866  13.830   0.925   7.114
20676SOL    HW163867  13.749   0.967   7.085
20676SOL    HW263868  13.805   0.878   7.193
20677SOL     OW63869   5.728   4.628   7.442
20677SOL    HW163870   5.635   4.616   7.462
20677SOL    HW263871   5.730   4.671   7.357
20678SOL     OW63872  12.964   4.337   3.050
20678SOL    HW163873  13.056   4.362   3.058
20678SOL    HW263874  12.927   4.359   3.136
20679SOL     OW63875   4.783   5.570   1.617
20679SOL    HW163876   4.711   5.588   1.556
20679SOL    HW263877   4.776   5.638   1.684
20680SOL     OW63878   8.011  10.658  13.796
20680SOL    HW163879   8.064  10.651  13.876
20680SOL    HW263880   7.999  10.752  13.783
20681SOL     OW63881   8.495  12.648   0.585
20681SOL    HW163882   8.586  12.650   0.556
20681SOL    HW263883   8.476  12.738   0.611
20682SOL     OW63884   9.208  12.727   4.279
20682SOL    HW163885   9.153  12.802   4.301
20682SOL    HW263886   9.286  12.738   4.335
20683SOL     OW63887   7.590   5.088  12.054
20683SOL    HW163888   7.614   5.160  12.112
20683SOL    HW263889   7.657   5.089  11.985
20684SOL     OW63890   0.911   4.778  11.599
20684SOL    HW163891   0.913   4.872  11.584
20684SOL    HW263892   0.981   4.743  11.544
20685SOL     OW63893  12.172   9.332  11.191
20685SOL    HW163894  12.264   9.344  11.167
20685SOL    HW263895  12.166   9.368  11.280
20686SOL     OW63896   8.736   9.398  11.599
20686SOL    HW163897   8.804   9.357  11.545
20686SOL    HW263898   8.654   9.360  11.566
20687SOL     OW63899   7.501   9.581   5.272
20687SOL    HW163900   7.534   9.548   5.356
20687SOL    HW263901   7.564   9.648   5.246
20688SOL     OW63902  10.068  14.420  11.428
20688SOL    HW163903  10.146  14.443  11.479
20688SOL    HW263904   9.995  14.435  11.488
20689SOL     OW63905   2.992   7.106   7.965
20689SOL    HW163906   3.067   7.058   8.002
20689SOL    HW263907   3.021   7.197   7.964
20690SOL     OW63908   6.430   1.531   3.102
20690SOL    HW163909   6.505   1.471   3.096
20690SOL    HW263910   6.410   1.535   3.195
20691SOL     OW63911  12.632  11.155   0.709
20691SOL    HW163912  12.574  11.141   0.634
20691SOL    HW263913  12.595  11.102   0.779
20692SOL     OW63914  14.086  11.038   3.341
20692SOL    HW163915  14.018  11.052   3.275
20692SOL    HW263916  14.167  11.030   3.291
20693SOL     OW63917   3.157  14.246  13.911
20693SOL    HW163918   3.176  14.295  13.991
20693SOL    HW263919   3.070  14.208  13.926
20694SOL     OW63920  13.201   3.777   3.058
20694SOL    HW163921  13.225   3.869   3.065
20694SOL    HW263922  13.273   3.737   3.008
20695SOL     OW63923  10.691   8.673   5.529
20695SOL    HW163924  10.629   8.687   5.457
20695SOL    HW263925  10.747   8.602   5.498
20696SOL     OW63926  13.538   8.109   6.001
20696SOL    HW163927  13.582   8.153   5.928
20696SOL    HW263928  13.589   8.135   6.078
20697SOL     OW63929  14.571   7.542   4.894
20697SOL    HW163930  14.517   7.469   4.926
20697SOL    HW263931  14.522   7.577   4.819
20698SOL     OW63932   0.127   2.754   0.706
20698SOL    HW163933   0.115   2.781   0.798
20698SOL    HW263934   0.151   2.662   0.712
20699SOL     OW63935  11.799   1.126  10.759
20699SOL    HW163936  11.810   1.186  10.685
20699SOL    HW263937  11.706   1.103  10.757
20700SOL     OW63938   7.210   5.481   7.075
20700SOL    HW163939   7.254   5.561   7.043
20700SOL    HW263940   7.229   5.416   7.008
20701SOL     OW63941   7.842   2.123   0.437
20701SOL    HW163942   7.852   2.089   0.526
20701SOL    HW263943   7.926   2.167   0.418
20702SOL     OW63944  10.325  12.489  12.237
20702SOL    HW163945  10.309  12.469  12.145
20702SOL    HW263946  10.332  12.404  12.279
20703SOL     OW63947   3.617  14.451   0.447
20703SOL    HW163948   3.578  14.526   0.492
20703SOL    HW263949   3.652  14.397   0.517
20704SOL     OW63950   8.020   0.418   9.949
20704SOL    HW163951   8.096   0.381   9.905
20704SOL    HW263952   7.945   0.382   9.901
20705SOL     OW63953  14.550   0.621   9.600
20705SOL    HW163954  14.587   0.535   9.619
20705SOL    HW263955  14.511   0.612   9.513
20706SOL     OW63956   6.527   9.144   2.766
20706SOL    HW163957   6.573   9.061   2.751
20706SOL    HW263958   6.579   9.208   2.718
20707SOL     OW63959   4.485   5.920   3.150
20707SOL    HW163960   4.481   5.827   3.169
20707SOL    HW263961   4.396   5.944   3.123
20708SOL     OW63962   7.039   2.675  11.118
20708SOL    HW163963   6.955   2.722  11.115
20708SOL    HW263964   7.041   2.635  11.205
20709SOL     OW63965   1.874   2.025  11.816
20709SOL    HW163966   1.901   2.017  11.907
20709SOL    HW263967   1.951   2.059  11.770
20710SOL     OW63968   5.745   1.064  11.141
20710SOL    HW163969   5.837   1.041  11.124
20710SOL    HW263970   5.726   1.022  11.225
20711SOL     OW63971   6.703   7.520   3.463
20711SOL    HW163972   6.664   7.503   3.377
20711SOL    HW263973   6.694   7.437   3.510
20712SOL     OW63974   7.441  13.609   4.624
20712SOL    HW163975   7.363  13.554   4.612
20712SOL    HW263976   7.417  13.669   4.694
20713SOL     OW63977   1.644   4.756   8.520
20713SOL    HW163978   1.618   4.699   8.592
20713SOL    HW263979   1.726   4.719   8.488
20714SOL     OW63980   9.371  10.747  10.705
20714SOL    HW163981   9.419  10.772  10.784
20714SOL    HW263982   9.329  10.828  10.676
20715SOL     OW63983  13.560   0.573   7.796
20715SOL    HW163984  13.598   0.486   7.781
20715SOL    HW263985  13.468   0.563   7.773
20716SOL     OW63986  10.976   9.354   2.115
20716SOL    HW163987  11.062   9.312   2.115
20716SOL    HW263988  10.967   9.390   2.203
20717SOL     OW63989   5.590  12.831   6.159
20717SOL    HW163990   5.652  12.883   6.107
20717SOL    HW263991   5.562  12.761   6.100
20718SOL     OW63992  10.050   2.428   9.359
20718SOL    HW163993  10.108   2.467   9.294
20718SOL    HW263994   9.965   2.421   9.314
20719SOL     OW63995   3.784  11.241   9.477
20719SOL    HW163996   3.787  11.335   9.490
20719SOL    HW263997   3.711  11.227   9.417
20720SOL     OW63998   3.691   0.704   3.100
20720SOL    HW163999   3.683   0.616   3.064
20720SOL    HW264000   3.665   0.761   3.028
20721SOL     OW64001   1.192   0.792  12.706
20721SOL    HW164002   1.105   0.822  12.733
20721SOL    HW264003   1.175   0.714  12.653
20722SOL     OW64004   5.699   6.648   9.813
20722SOL    HW164005   5.656   6.661   9.729
20722SOL    HW264006   5.629   6.653   9.877
20723SOL     OW64007  11.689   5.864   2.888
20723SOL    HW164008  11.677   5.916   2.809
20723SOL    HW264009  11.774   5.822   2.876
20724SOL     OW64010   4.052  12.911   4.651
20724SOL    HW164011   4.076  12.976   4.717
20724SOL    HW264012   4.122  12.914   4.586
20725SOL     OW64013   1.694  12.821   7.206
20725SOL    HW164014   1.749  12.815   7.284
20725SOL    HW264015   1.633  12.892   7.225
20726SOL     OW64016   3.332   4.815  13.029
20726SOL    HW164017   3.321   4.743  12.967
20726SOL    HW264018   3.379   4.776  13.103
20727SOL     OW64019   6.377  10.934   3.484
20727SOL    HW164020   6.454  10.984   3.511
20727SOL    HW264021   6.411  10.846   3.467
20728SOL     OW64022  11.971  11.187   5.741
20728SOL    HW164023  12.011  11.104   5.716
20728SOL    HW264024  12.042  11.252   5.731
20729SOL     OW64025  13.480   0.011   6.795
20729SOL    HW164026  13.462  14.797   6.768
20729SOL    HW264027  13.406   0.034   6.851
20730SOL     OW64028   7.432   1.059  12.418
20730SOL    HW164029   7.421   0.971  12.452
20730SOL    HW264030   7.358   1.108  12.454
20731SOL     OW64031   1.182   0.927  13.082
20731SOL    HW164032   1.243   0.863  13.045
20731SOL    HW264033   1.141   0.882  13.156
20732SOL     OW64034   2.226   6.523   4.443
20732SOL    HW164035   2.146   6.575   4.435
20732SOL    HW264036   2.259   6.516   4.353
20733SOL     OW64037   0.171   4.424  10.650
20733SOL    HW164038   0.161   4.499  10.591
20733SOL    HW264039   0.091   4.423  10.702
20734SOL     OW64040   7.946  11.277  13.840
20734SOL    HW164041   7.972  11.319  13.759
20734SOL    HW264042   7.851  11.263  13.832
20735SOL     OW64043   1.427   4.136  11.924
20735SOL    HW164044   1.382   4.159  12.005
20735SOL    HW264045   1.444   4.042  11.931
20736SOL     OW64046  12.777  14.662   1.679
20736SOL    HW164047  12.717  14.702   1.616
20736SOL    HW264048  12.723  14.599   1.727
20737SOL     OW64049  12.692   3.959   2.234
20737SOL    HW164050  12.785   3.981   2.237
20737SOL    HW264051  12.671   3.953   2.141
20738SOL     OW64052   3.994  12.117   5.817
20738SOL    HW164053   4.076  12.073   5.794
20738SOL    HW264054   4.012  12.157   5.902
20739SOL     OW64055   4.875   6.955  11.577
20739SOL    HW164056   4.970   6.947  11.577
20739SOL    HW264057   4.859   7.046  11.602
20740SOL     OW64058   4.401   9.746   4.148
20740SOL    HW164059   4.356   9.777   4.069
20740SOL    HW264060   4.493   9.737   4.122
20741SOL     OW64061  14.670   7.429   3.170
20741SOL    HW164062  14.585   7.471   3.179
20741SOL    HW264063  14.662   7.375   3.092
20742SOL     OW64064   5.054   2.360   7.713
20742SOL    HW164065   5.107   2.439   7.698
20742SOL    HW264066   4.969   2.393   7.742
20743SOL     OW64067  13.105   5.094   5.136
20743SOL    HW164068  13.060   5.078   5.053
20743SOL    HW264069  13.119   5.189   5.138
20744SOL     OW64070  10.957   6.105   2.520
20744SOL    HW164071  10.892   6.056   2.571
20744SOL    HW264072  11.011   6.148   2.585
20745SOL     OW64073   0.503   7.337  13.055
20745SOL    HW164074   0.590   7.307  13.082
20745SOL    HW264075   0.442   7.293  13.115
20746SOL     OW64076   2.827   3.534  12.006
20746SOL    HW164077   2.882   3.457  11.994
20746SOL    HW264078   2.840   3.586  11.927
20747SOL     OW64079  14.440  11.241   2.994
20747SOL    HW164080  14.533  11.221   3.007
20747SOL    HW264081  14.436  11.275   2.904
20748SOL     OW64082  10.998   3.890   3.353
20748SOL    HW164083  10.984   3.801   3.322
20748SOL    HW264084  11.083   3.887   3.397
20749SOL     OW64085   3.510  12.293   8.213
20749SOL    HW164086   3.505  12.212   8.162
20749SOL    HW264087   3.577  12.277   8.279
20750SOL     OW64088  12.905  13.253  10.602
20750SOL    HW164089  12.831  13.219  10.652
20750SOL    HW264090  12.956  13.175  10.579
20751SOL     OW64091   4.433   1.218   2.718
20751SOL    HW164092   4.469   1.143   2.766
20751SOL    HW264093   4.370   1.181   2.658
20752SOL     OW64094   3.922   0.740  10.374
20752SOL    HW164095   3.854   0.763  10.437
20752SOL    HW264096   3.961   0.824  10.350
20753SOL     OW64097   3.414  14.707   6.714
20753SOL    HW164098   3.432  14.800   6.726
20753SOL    HW264099   3.499  14.664   6.725
20754SOL     OW64100  12.061   2.269   0.357
20754SOL    HW164101  12.000   2.237   0.423
20754SOL    HW264102  12.020   2.349   0.324
20755SOL     OW64103   1.116  10.633   9.643
20755SOL    HW164104   1.153  10.713   9.604
20755SOL    HW264105   1.169  10.563   9.606
20756SOL     OW64106   1.443  12.688   6.770
20756SOL    HW164107   1.456  12.778   6.739
20756SOL    HW264108   1.470  12.691   6.862
20757SOL     OW64109   2.271   9.229  14.551
20757SOL    HW164110   2.239   9.176  14.624
20757SOL    HW264111   2.366   9.230  14.561
20758SOL     OW64112   4.236  10.763   1.850
20758SOL    HW164113   4.303  10.747   1.784
20758SOL    HW264114   4.259  10.705   1.923
20759SOL     OW64115   6.727  13.167   8.118
20759SOL    HW164116   6.740  13.083   8.162
20759SOL    HW264117   6.696  13.144   8.030
20760SOL     OW64118   5.116   5.363   5.958
20760SOL    HW164119   5.026   5.393   5.942
20760SOL    HW264120   5.107   5.296   6.026
20761SOL     OW64121   8.968  10.309   0.495
20761SOL    HW164122   8.885  10.285   0.453
20761SOL    HW264123   9.007  10.374   0.437
20762SOL     OW64124  13.925   1.778  11.654
20762SOL    HW164125  13.982   1.728  11.712
20762SOL    HW264126  13.837   1.751  11.677
20763SOL     OW64127  11.097   7.343   3.713
20763SOL    HW164128  11.018   7.392   3.691
20763SOL    HW264129  11.128   7.308   3.630
20764SOL     OW64130   3.341   5.522  10.432
20764SOL    HW164131   3.263   5.564  10.397
20764SOL    HW264132   3.313   5.433  10.454
20765SOL     OW64133   3.115  12.453   3.100
20765SOL    HW164134   3.192  12.396   3.096
20765SOL    HW264135   3.040  12.394   3.094
20766SOL     OW64136  13.494   3.069   5.163
20766SOL    HW164137  13.412   3.027   5.137
20766SOL    HW264138  13.472   3.162   5.172
20767SOL     OW64139   4.651  12.121   0.775
20767SOL    HW164140   4.557  12.116   0.759
20767SOL    HW264141   4.678  12.030   0.791
20768SOL     OW64142  10.359   0.567   9.116
20768SOL    HW164143  10.391   0.653   9.091
20768SOL    HW264144  10.424   0.506   9.080
20769SOL     OW64145  11.665   8.000  11.082
20769SOL    HW164146  11.662   7.917  11.033
20769SOL    HW264147  11.720   8.057  11.029
20770SOL     OW64148  13.350   9.374   3.590
20770SOL    HW164149  13.258   9.381   3.566
20770SOL    HW264150  13.357   9.291   3.638
20771SOL     OW64151   4.513  14.284   1.097
20771SOL    HW164152   4.560  14.308   1.017
20771SOL    HW264153   4.541  14.349   1.161
20772SOL     OW64154   3.029   1.752   5.541
20772SOL    HW164155   3.030   1.737   5.447
20772SOL    HW264156   3.078   1.679   5.578
20773SOL     OW64157   0.312  10.783   4.628
20773SOL    HW164158   0.352  10.848   4.685
20773SOL    HW264159   0.225  10.819   4.608
20774SOL     OW64160   9.661   1.390   6.868
20774SOL    HW164161   9.705   1.412   6.785
20774SOL    HW264162   9.649   1.295   6.864
20775SOL     OW64163   9.172   7.847  11.953
20775SOL    HW164164   9.097   7.874  11.900
20775SOL    HW264165   9.215   7.929  11.977
20776SOL     OW64166   4.242   1.473  10.002
20776SOL    HW164167   4.243   1.401  10.065
20776SOL    HW264168   4.182   1.443   9.933
20777SOL     OW64169   0.039  14.797  11.126
20777SOL    HW164170  14.857  14.786  11.051
20777SOL    HW264171   0.115  14.742  11.106
20778SOL     OW64172  11.038   3.646   4.490
20778SOL    HW164173  11.102   3.576   4.474
20778SOL    HW264174  11.075   3.723   4.448
20779SOL     OW64175  14.240   8.616   7.230
20779SOL    HW164176  14.287   8.542   7.268
20779SOL    HW264177  14.244   8.601   7.135
20780SOL     OW64178   0.921   1.659  13.144
20780SOL    HW164179   0.918   1.692  13.054
20780SOL    HW264180   0.935   1.737  13.198
20781SOL     OW64181   6.275   2.771   8.021
20781SOL    HW164182   6.272   2.705   8.089
20781SOL    HW264183   6.349   2.828   8.046
20782SOL     OW64184   5.194  11.576   8.377
20782SOL    HW164185   5.129  11.645   8.389
20782SOL    HW264186   5.143  11.495   8.379
20783SOL     OW64187   1.430  10.546   3.934
20783SOL    HW164188   1.364  10.576   3.872
20783SOL    HW264189   1.441  10.453   3.914
20784SOL     OW64190   5.799  10.238   0.434
20784SOL    HW164191   5.730  10.275   0.379
20784SOL    HW264192   5.832  10.312   0.484
20785SOL     OW64193   9.705   3.661  10.195
20785SOL    HW164194   9.773   3.616  10.144
20785SOL    HW264195   9.736   3.655  10.285
20786SOL     OW64196  10.171  13.572  11.544
20786SOL    HW164197  10.113  13.529  11.481
20786SOL    HW264198  10.193  13.655  11.503
20787SOL     OW64199   1.829   7.750  14.678
20787SOL    HW164200   1.899   7.695  14.715
20787SOL    HW264201   1.760   7.688  14.654
20788SOL     OW64202  10.759   0.617   9.162
20788SOL    HW164203  10.825   0.610   9.231
20788SOL    HW264204  10.726   0.706   9.169
20789SOL     OW64205  10.521   4.096  14.182
20789SOL    HW164206  10.566   4.127  14.261
20789SOL    HW264207  10.510   4.002  14.196
20790SOL     OW64208   0.153   1.589   8.349
20790SOL    HW164209   0.100   1.558   8.422
20790SOL    HW264210   0.242   1.596   8.385
20791SOL     OW64211   5.987   0.584  11.589
20791SOL    HW164212   6.053   0.603  11.523
20791SOL    HW264213   5.997   0.654  11.654
20792SOL     OW64214   5.390  12.914   9.113
20792SOL    HW164215   5.351  12.828   9.129
20792SOL    HW264216   5.316  12.974   9.110
20793SOL     OW64217   6.290   6.501  11.692
20793SOL    HW164218   6.222   6.435  11.700
20793SOL    HW264219   6.248   6.575  11.648
20794SOL     OW64220   3.259  11.039  11.228
20794SOL    HW164221   3.353  11.045  11.247
20794SOL    HW264222   3.230  11.130  11.227
20795SOL     OW64223   4.790   0.043   7.664
20795SOL    HW164224   4.862   0.070   7.721
20795SOL    HW264225   4.717   0.100   7.689
20796SOL     OW64226   0.507  14.108  13.481
20796SOL    HW164227   0.455  14.145  13.409
20796SOL    HW264228   0.537  14.024  13.448
20797SOL     OW64229   1.912   6.123   2.137
20797SOL    HW164230   1.871   6.087   2.215
20797SOL    HW264231   2.003   6.093   2.141
20798SOL     OW64232  11.139   7.530   3.013
20798SOL    HW164233  11.050   7.501   3.033
20798SOL    HW264234  11.172   7.565   3.096
20799SOL     OW64235   1.564   0.101   7.923
20799SOL    HW164236   1.512   0.137   7.852
20799SOL    HW264237   1.533   0.148   8.001
20800SOL     OW64238   9.879   4.420  12.432
20800SOL    HW164239   9.836   4.366  12.366
20800SOL    HW264240   9.813   4.431  12.500
20801SOL     OW64241   3.427  13.276  11.991
20801SOL    HW164242   3.418  13.181  12.005
20801SOL    HW264243   3.493  13.304  12.055
20802SOL     OW64244  10.524   0.790   3.795
20802SOL    HW164245  10.478   0.859   3.748
20802SOL    HW264246  10.463   0.716   3.795
20803SOL     OW64247   7.344   8.068  11.098
20803SOL    HW164248   7.284   8.011  11.146
20803SOL    HW264249   7.301   8.082  11.014
20804SOL     OW64250   1.976   4.330  11.604
20804SOL    HW164251   1.937   4.307  11.519
20804SOL    HW264252   2.001   4.247  11.642
20805SOL     OW64253  13.589   3.088   4.151
20805SOL    HW164254  13.656   3.110   4.087
20805SOL    HW264255  13.638   3.054   4.226
20806SOL     OW64256   0.189   9.697   4.506
20806SOL    HW164257   0.140   9.779   4.500
20806SOL    HW264258   0.126   9.630   4.478
20807SOL     OW64259   7.825   4.061   5.379
20807SOL    HW164260   7.829   4.073   5.284
20807SOL    HW264261   7.876   4.134   5.415
20808SOL     OW64262   3.369   5.943   9.740
20808SOL    HW164263   3.429   5.932   9.666
20808SOL    HW264264   3.308   6.012   9.712
20809SOL     OW64265   1.849   3.553   0.484
20809SOL    HW164266   1.915   3.621   0.475
20809SOL    HW264267   1.864   3.494   0.410
20810SOL     OW64268   7.655   1.360   8.945
20810SOL    HW164269   7.561   1.351   8.925
20810SOL    HW264270   7.694   1.389   8.863
20811SOL     OW64271  13.167  14.199  12.087
20811SOL    HW164272  13.188  14.107  12.102
20811SOL    HW264273  13.075  14.199  12.060
20812SOL     OW64274   6.016   0.717  11.084
20812SOL    HW164275   5.994   0.665  11.006
20812SOL    HW264276   5.937   0.715  11.137
20813SOL     OW64277   5.899   4.314   4.467
20813SOL    HW164278   5.812   4.345   4.443
20813SOL    HW264279   5.912   4.347   4.556
20814SOL     OW64280  12.098   5.541   8.719
20814SOL    HW164281  12.112   5.447   8.710
20814SOL    HW264282  12.047   5.550   8.800
20815SOL     OW64283  11.308   4.792   7.416
20815SOL    HW164284  11.320   4.848   7.492
20815SOL    HW264285  11.230   4.740   7.436
20816SOL     OW64286  13.868  13.940  13.622
20816SOL    HW164287  13.847  13.906  13.535
20816SOL    HW264288  13.941  13.886  13.651
20817SOL     OW64289   0.411  14.074  10.640
20817SOL    HW164290   0.374  14.100  10.555
20817SOL    HW264291   0.484  14.017  10.617
20818SOL     OW64292   1.582   4.226   4.782
20818SOL    HW164293   1.616   4.303   4.737
20818SOL    HW264294   1.600   4.242   4.875
20819SOL     OW64295   7.321   3.006   4.439
20819SOL    HW164296   7.232   2.975   4.454
20819SOL    HW264297   7.376   2.929   4.453
20820SOL     OW64298   9.245   4.826  14.143
20820SOL    HW164299   9.313   4.858  14.084
20820SOL    HW264300   9.209   4.749  14.100
20821SOL     OW64301   0.265   7.517   9.274
20821SOL    HW164302   0.254   7.566   9.356
20821SOL    HW264303   0.276   7.426   9.301
20822SOL     OW64304   5.087   5.679  10.506
20822SOL    HW164305   5.071   5.586  10.489
20822SOL    HW264306   5.038   5.697  10.586
20823SOL     OW64307   1.289   7.819  12.075
20823SOL    HW164308   1.379   7.850  12.081
20823SOL    HW264309   1.243   7.887  12.026
20824SOL     OW64310   5.894  10.620  14.679
20824SOL    HW164311   5.982  10.611  14.718
20824SOL    HW264312   5.911  10.638  14.587
20825SOL     OW64313   0.576  13.795   8.331
20825SOL    HW164314   0.658  13.749   8.349
20825SOL    HW264315   0.549  13.762   8.245
20826SOL     OW64316   6.940   6.778  12.465
20826SOL    HW164317   6.894   6.738  12.539
20826SOL    HW264318   6.993   6.847  12.505
20827SOL     OW64319   3.447  11.616  12.462
20827SOL    HW164320   3.490  11.612  12.548
20827SOL    HW264321   3.361  11.578  12.477
20828SOL     OW64322  12.759   7.509   0.098
20828SOL    HW164323  12.790   7.592   0.061
20828SOL    HW264324  12.727   7.460   0.021
20829SOL     OW64325   7.723   1.261   7.551
20829SOL    HW164326   7.633   1.288   7.568
20829SOL    HW264327   7.771   1.285   7.630
20830SOL     OW64328   4.705   2.389  10.655
20830SOL    HW164329   4.639   2.416  10.719
20830SOL    HW264330   4.659   2.329  10.597
20831SOL     OW64331   3.196   4.760   3.242
20831SOL    HW164332   3.106   4.742   3.270
20831SOL    HW264333   3.249   4.697   3.291
20832SOL     OW64334  10.214   4.173   8.999
20832SOL    HW164335  10.191   4.120   9.076
20832SOL    HW264336  10.148   4.243   8.998
20833SOL     OW64337  13.777  11.718   7.418
20833SOL    HW164338  13.860  11.736   7.462
20833SOL    HW264339  13.765  11.623   7.428
20834SOL     OW64340  14.274   5.974   0.026
20834SOL    HW164341  14.289   5.965   0.120
20834SOL    HW264342  14.242   6.063   0.014
20835SOL     OW64343  11.742   4.061   2.416
20835SOL    HW164344  11.726   4.070   2.510
20835SOL    HW264345  11.655   4.047   2.378
20836SOL     OW64346  13.863  10.316   4.657
20836SOL    HW164347  13.915  10.378   4.708
20836SOL    HW264348  13.849  10.242   4.716
20837SOL     OW64349   0.585   8.861   1.831
20837SOL    HW164350   0.645   8.923   1.872
20837SOL    HW264351   0.534   8.824   1.903
20838SOL     OW64352   6.344   9.369  13.176
20838SOL    HW164353   6.439   9.380  13.178
20838SOL    HW264354   6.321   9.373  13.083
20839SOL     OW64355   8.413   5.142   5.129
20839SOL    HW164356   8.376   5.206   5.068
20839SOL    HW264357   8.499   5.122   5.093
20840SOL     OW64358   5.771  11.429   0.343
20840SOL    HW164359   5.837  11.496   0.359
20840SOL    HW264360   5.795  11.391   0.259
20841SOL     OW64361   5.506  13.126   9.316
20841SOL    HW164362   5.555  13.081   9.385
20841SOL    HW264363   5.490  13.059   9.250
20842SOL     OW64364   7.049  10.149   8.130
20842SOL    HW164365   7.105  10.117   8.201
20842SOL    HW264366   7.033  10.071   8.076
20843SOL     OW64367   2.421   4.517  14.470
20843SOL    HW164368   2.488   4.455  14.499
20843SOL    HW264369   2.397   4.488  14.382
20844SOL     OW64370   5.144   3.736   3.698
20844SOL    HW164371   5.150   3.745   3.793
20844SOL    HW264372   5.125   3.825   3.667
20845SOL     OW64373   3.501   4.368  13.120
20845SOL    HW164374   3.453   4.285  13.128
20845SOL    HW264375   3.539   4.382  13.206
20846SOL     OW64376   1.761  13.691   8.580
20846SOL    HW164377   1.833  13.669   8.521
20846SOL    HW264378   1.695  13.732   8.524
20847SOL     OW64379   0.146   6.456   1.376
20847SOL    HW164380   0.225   6.428   1.423
20847SOL    HW264381   0.176   6.526   1.318
20848SOL     OW64382   2.080   0.929   4.479
20848SOL    HW164383   2.016   0.915   4.549
20848SOL    HW264384   2.033   0.979   4.412
20849SOL     OW64385   3.677   2.635   0.568
20849SOL    HW164386   3.642   2.617   0.481
20849SOL    HW264387   3.737   2.562   0.585
20850SOL     OW64388  13.447   9.302  11.398
20850SOL    HW164389  13.373   9.337  11.447
20850SOL    HW264390  13.436   9.207  11.403
20851SOL     OW64391   7.916   9.433   8.402
20851SOL    HW164392   7.957   9.504   8.452
20851SOL    HW264393   7.823   9.455   8.401
20852SOL     OW64394  10.698   0.772  13.601
20852SOL    HW164395  10.747   0.760  13.519
20852SOL    HW264396  10.764   0.802  13.664
20853SOL     OW64397  11.633   4.661  12.441
20853SOL    HW164398  11.605   4.700  12.524
20853SOL    HW264399  11.679   4.581  12.466
20854SOL     OW64400  10.161   8.267  13.271
20854SOL    HW164401  10.228   8.330  13.298
20854SOL    HW264402  10.102   8.318  13.214
20855SOL     OW64403   4.716  11.897   1.691
20855SOL    HW164404   4.777  11.952   1.740
20855SOL    HW264405   4.738  11.914   1.599
20856SOL     OW64406   6.353   8.125   9.026
20856SOL    HW164407   6.360   8.146   8.933
20856SOL    HW264408   6.273   8.168   9.055
20857SOL     OW64409   4.642   7.991   0.399
20857SOL    HW164410   4.660   8.052   0.471
20857SOL    HW264411   4.714   8.004   0.338
20858SOL     OW64412   9.368  10.525   1.206
20858SOL    HW164413   9.296  10.585   1.221
20858SOL    HW264414   9.339  10.470   1.132
20859SOL     OW64415   8.011  14.541  11.989
20859SOL    HW164416   8.049  14.531  12.077
20859SOL    HW264417   8.051  14.621  11.955
20860SOL     OW64418   5.462  12.332   9.801
20860SOL    HW164419   5.482  12.404   9.860
20860SOL    HW264420   5.510  12.257   9.837
20861SOL     OW64421   4.518   1.917  14.763
20861SOL    HW164422   4.533   1.881  14.675
20861SOL    HW264423   4.568   1.859  14.821
20862SOL     OW64424  14.089   6.735  11.385
20862SOL    HW164425  14.163   6.762  11.329
20862SOL    HW264426  14.052   6.818  11.415
20863SOL     OW64427  10.587   6.510  10.505
20863SOL    HW164428  10.618   6.443  10.567
20863SOL    HW264429  10.667   6.542  10.463
20864SOL     OW64430   9.652  13.681   4.315
20864SOL    HW164431   9.596  13.605   4.328
20864SOL    HW264432   9.601  13.754   4.350
20865SOL     OW64433   8.878   7.793   7.586
20865SOL    HW164434   8.915   7.879   7.608
20865SOL    HW264435   8.798   7.813   7.536
20866SOL     OW64436   5.275   1.603   9.041
20866SOL    HW164437   5.244   1.589   8.951
20866SOL    HW264438   5.254   1.695   9.060
20867SOL     OW64439   9.601   9.286   9.249
20867SOL    HW164440   9.521   9.316   9.291
20867SOL    HW264441   9.584   9.193   9.230
20868SOL     OW64442   8.399  12.202  11.354
20868SOL    HW164443   8.415  12.218  11.261
20868SOL    HW264444   8.439  12.117  11.371
20869SOL     OW64445   0.259  13.837   5.083
20869SOL    HW164446   0.190  13.784   5.045
20869SOL    HW264447   0.340  13.788   5.068
20870SOL     OW64448   1.382   9.634   0.239
20870SOL    HW164449   1.386   9.566   0.173
20870SOL    HW264450   1.446   9.699   0.210
20871SOL     OW64451  14.146  10.524   5.962
20871SOL    HW164452  14.148  10.608   6.008
20871SOL    HW264453  14.071  10.478   5.997
20872SOL     OW64454   8.886   9.767   3.791
20872SOL    HW164455   8.950   9.757   3.861
20872SOL    HW264456   8.863   9.678   3.766
20873SOL     OW64457   3.295   8.726   0.584
20873SOL    HW164458   3.385   8.703   0.561
20873SOL    HW264459   3.244   8.705   0.506
20874SOL     OW64460   4.804  12.149   6.644
20874SOL    HW164461   4.776  12.104   6.564
20874SOL    HW264462   4.879  12.097   6.675
20875SOL     OW64463  14.274  11.870  13.606
20875SOL    HW164464  14.243  11.781  13.589
20875SOL    HW264465  14.217  11.926  13.553
20876SOL     OW64466  11.647  13.638   9.875
20876SOL    HW164467  11.615  13.722   9.910
20876SOL    HW264468  11.728  13.661   9.830
20877SOL     OW64469  10.199   6.419  11.849
20877SOL    HW164470  10.141   6.407  11.924
20877SOL    HW264471  10.153   6.482  11.793
20878SOL     OW64472   3.974   1.507  13.219
20878SOL    HW164473   3.991   1.584  13.274
20878SOL    HW264474   4.058   1.490  13.176
20879SOL     OW64475   2.485  14.782  10.923
20879SOL    HW164476   2.567  14.817  10.958
20879SOL    HW264477   2.506  14.761  10.831
20880SOL     OW64478   5.772   1.849   3.232
20880SOL    HW164479   5.717   1.903   3.289
20880SOL    HW264480   5.861   1.862   3.264
20881SOL     OW64481  13.990  12.278   3.522
20881SOL    HW164482  13.925  12.255   3.455
20881SOL    HW264483  14.029  12.195   3.547
20882SOL     OW64484   4.024  10.650  13.538
20882SOL    HW164485   4.097  10.710  13.519
20882SOL    HW264486   3.992  10.678  13.623
20883SOL     OW64487  11.579  11.168  12.026
20883SOL    HW164488  11.515  11.100  12.008
20883SOL    HW264489  11.537  11.224  12.091
20884SOL     OW64490  14.248  10.309  12.728
20884SOL    HW164491  14.340  10.326  12.707
20884SOL    HW264492  14.200  10.376  12.679
20885SOL     OW64493   5.500  13.062   8.130
20885SOL    HW164494   5.484  13.024   8.043
20885SOL    HW264495   5.511  12.986   8.187
20886SOL     OW64496   3.876   9.023  13.955
20886SOL    HW164497   3.885   9.106  13.908
20886SOL    HW264498   3.788   9.027  13.992
20887SOL     OW64499   6.738   9.210   7.115
20887SOL    HW164500   6.816   9.213   7.061
20887SOL    HW264501   6.744   9.288   7.171
20888SOL     OW64502  10.184   5.699   3.964
20888SOL    HW164503  10.237   5.619   3.968
20888SOL    HW264504  10.174   5.726   4.055
20889SOL     OW64505  13.045   9.167   8.735
20889SOL    HW164506  12.958   9.127   8.741
20889SOL    HW264507  13.080   9.160   8.824
20890SOL     OW64508   3.005   1.923   0.370
20890SOL    HW164509   2.941   1.913   0.440
20890SOL    HW264510   3.066   1.990   0.402
20891SOL     OW64511   6.125  13.645   5.511
20891SOL    HW164512   6.195  13.621   5.451
20891SOL    HW264513   6.051  13.668   5.454
20892SOL     OW64514   5.941  11.972   4.019
20892SOL    HW164515   6.026  11.962   3.975
20892SOL    HW264516   5.950  11.923   4.100
20893SOL     OW64517  10.719   0.675   1.732
20893SOL    HW164518  10.712   0.763   1.769
20893SOL    HW264519  10.806   0.645   1.759
20894SOL     OW64520   3.873   7.127   6.368
20894SOL    HW164521   3.797   7.083   6.331
20894SOL    HW264522   3.941   7.118   6.302
20895SOL     OW64523   6.806   3.108   2.437
20895SOL    HW164524   6.828   3.159   2.359
20895SOL    HW264525   6.807   3.017   2.408
20896SOL     OW64526   0.834   7.251   8.460
20896SOL    HW164527   0.820   7.158   8.477
20896SOL    HW264528   0.915   7.255   8.408
20897SOL     OW64529   2.844  11.449  14.405
20897SOL    HW164530   2.843  11.473  14.313
20897SOL    HW264531   2.876  11.527  14.450
20898SOL     OW64532  13.586   2.114   3.967
20898SOL    HW164533  13.557   2.067   4.046
20898SOL    HW264534  13.547   2.065   3.895
20899SOL     OW64535   4.429   4.990   8.861
20899SOL    HW164536   4.480   5.001   8.781
20899SOL    HW264537   4.495   4.977   8.929
20900SOL     OW64538   4.235   4.834   8.648
20900SOL    HW164539   4.183   4.912   8.667
20900SOL    HW264540   4.250   4.837   8.553
20901SOL     OW64541  12.161  13.374   2.270
20901SOL    HW164542  12.142  13.281   2.258
20901SOL    HW264543  12.132  13.393   2.359
20902SOL     OW64544  12.104   8.437   4.390
20902SOL    HW164545  12.194   8.448   4.421
20902SOL    HW264546  12.077   8.526   4.365
20903SOL     OW64547  13.126   0.469   5.280
20903SOL    HW164548  13.176   0.435   5.355
20903SOL    HW264549  13.075   0.395   5.249
20904SOL     OW64550   2.482   0.267   5.653
20904SOL    HW164551   2.459   0.174   5.650
20904SOL    HW264552   2.429   0.302   5.725
20905SOL     OW64553   0.479   4.029  10.528
20905SOL    HW164554   0.502   4.100  10.468
20905SOL    HW264555   0.431   4.070  10.599
20906SOL     OW64556   7.938  12.039  12.444
20906SOL    HW164557   7.968  12.077  12.361
20906SOL    HW264558   7.843  12.043  12.438
20907SOL     OW64559   2.299   2.938   7.369
20907SOL    HW164560   2.240   3.013   7.381
20907SOL    HW264561   2.278   2.879   7.442
20908SOL     OW64562   0.614   4.412   2.149
20908SOL    HW164563   0.628   4.317   2.146
20908SOL    HW264564   0.642   4.443   2.063
20909SOL     OW64565   7.425  14.505   1.908
20909SOL    HW164566   7.432  14.507   2.003
20909SOL    HW264567   7.457  14.591   1.880
20910SOL     OW64568   5.209  14.263   7.273
20910SOL    HW164569   5.136  14.315   7.239
20910SOL    HW264570   5.238  14.309   7.351
20911SOL     OW64571  12.881  10.198  11.741
20911SOL    HW164572  12.912  10.159  11.659
20911SOL    HW264573  12.788  10.214  11.725
20912SOL     OW64574  14.607   5.221  13.252
20912SOL    HW164575  14.701   5.228  13.263
20912SOL    HW264576  14.571   5.285  13.315
20913SOL     OW64577   7.464  11.647   3.676
20913SOL    HW164578   7.535  11.655   3.613
20913SOL    HW264579   7.503  11.600   3.750
20914SOL     OW64580   4.568   1.016   9.989
20914SOL    HW164581   4.584   1.106   9.962
20914SOL    HW264582   4.512   1.023  10.066
20915SOL     OW64583  14.316   7.844  11.730
20915SOL    HW164584  14.411   7.830  11.725
20915SOL    HW264585  14.307   7.935  11.758
20916SOL     OW64586   4.177   1.050  12.074
20916SOL    HW164587   4.256   1.082  12.030
20916SOL    HW264588   4.106   1.079  12.017
20917SOL     OW64589   6.524   8.766  10.254
20917SOL    HW164590   6.518   8.674  10.278
20917SOL    HW264591   6.475   8.772  10.172
20918SOL     OW64592  10.704   4.409  11.365
20918SOL    HW164593  10.786   4.379  11.326
20918SOL    HW264594  10.675   4.481  11.310
20919SOL     OW64595  14.066  10.586   4.529
20919SOL    HW164596  14.089  10.493   4.519
20919SOL    HW264597  14.084  10.624   4.443
20920SOL     OW64598  13.301   6.664   0.827
20920SOL    HW164599  13.234   6.603   0.798
20920SOL    HW264600  13.339   6.699   0.747
20921SOL     OW64601   2.398   5.206   5.418
20921SOL    HW164602   2.420   5.116   5.391
20921SOL    HW264603   2.333   5.194   5.488
20922SOL     OW64604   3.356  12.842  14.243
20922SOL    HW164605   3.287  12.906  14.224
20922SOL    HW264606   3.311  12.758  14.243
20923SOL     OW64607   2.389   5.454   6.166
20923SOL    HW164608   2.374   5.360   6.178
20923SOL    HW264609   2.303   5.494   6.182
20924SOL     OW64610  10.005  10.782  10.179
20924SOL    HW164611   9.914  10.754  10.190
20924SOL    HW264612  10.046  10.712  10.128
20925SOL     OW64613   6.073   8.323   0.606
20925SOL    HW164614   6.146   8.325   0.668
20925SOL    HW264615   5.995   8.334   0.659
20926SOL     OW64616   0.635  14.362   2.507
20926SOL    HW164617   0.702  14.430   2.496
20926SOL    HW264618   0.594  14.381   2.591
20927SOL     OW64619   8.833   1.456   4.402
20927SOL    HW164620   8.825   1.491   4.313
20927SOL    HW264621   8.860   1.531   4.455
20928SOL     OW64622  14.144  11.238  11.271
20928SOL    HW164623  14.128  11.273  11.183
20928SOL    HW264624  14.151  11.143  11.259
20929SOL     OW64625   4.456   7.074   0.654
20929SOL    HW164626   4.456   7.113   0.741
20929SOL    HW264627   4.478   6.982   0.669
20930SOL     OW64628  12.201   3.423   1.448
20930SOL    HW164629  12.144   3.497   1.426
20930SOL    HW264630  12.194   3.415   1.543
20931SOL     OW64631  14.147   5.965   3.294
20931SOL    HW164632  14.207   5.932   3.361
20931SOL    HW264633  14.146   5.897   3.227
20932SOL     OW64634   9.659   0.601  13.016
20932SOL    HW164635   9.719   0.573  13.085
20932SOL    HW264636   9.707   0.669  12.968
20933SOL     OW64637   8.813   7.481   0.728
20933SOL    HW164638   8.776   7.563   0.697
20933SOL    HW264639   8.908   7.493   0.720
20934SOL     OW64640  14.730  11.689   9.892
20934SOL    HW164641  14.648  11.711   9.848
20934SOL    HW264642  14.741  11.757   9.958
20935SOL     OW64643   8.742   5.705   2.966
20935SOL    HW164644   8.660   5.692   2.918
20935SOL    HW264645   8.768   5.617   2.993
20936SOL     OW64646   4.876   8.056  14.260
20936SOL    HW164647   4.918   8.040  14.345
20936SOL    HW264648   4.866   7.969  14.222
20937SOL     OW64649   0.583   7.521   3.426
20937SOL    HW164650   0.500   7.502   3.382
20937SOL    HW264651   0.648   7.520   3.356
20938SOL     OW64652   9.414   4.037   8.251
20938SOL    HW164653   9.397   4.000   8.165
20938SOL    HW264654   9.507   4.060   8.250
20939SOL     OW64655  10.259  12.409  10.746
20939SOL    HW164656  10.212  12.326  10.757
20939SOL    HW264657  10.191  12.472  10.720
20940SOL     OW64658   2.995  13.835   5.763
20940SOL    HW164659   2.979  13.929   5.752
20940SOL    HW264660   2.941  13.810   5.838
20941SOL     OW64661   2.941   4.516   3.938
20941SOL    HW164662   2.888   4.436   3.934
20941SOL    HW264663   2.899   4.575   3.875
20942SOL     OW64664  13.042   9.773   5.634
20942SOL    HW164665  13.074   9.862   5.622
20942SOL    HW264666  12.987   9.756   5.557
20943SOL     OW64667  12.451   0.563   4.281
20943SOL    HW164668  12.454   0.468   4.294
20943SOL    HW264669  12.492   0.599   4.360
20944SOL     OW64670   9.815  10.087   6.748
20944SOL    HW164671   9.889  10.029   6.765
20944SOL    HW264672   9.852  10.158   6.695
20945SOL     OW64673  13.193   9.377   5.915
20945SOL    HW164674  13.147   9.380   5.831
20945SOL    HW264675  13.256   9.449   5.909
20946SOL     OW64676  13.592  13.895  14.344
20946SOL    HW164677  13.668  13.854  14.303
20946SOL    HW264678  13.617  13.987  14.353
20947SOL     OW64679  14.242  10.736   9.836
20947SOL    HW164680  14.307  10.707   9.901
20947SOL    HW264681  14.190  10.657   9.819
20948SOL     OW64682   1.381  14.378  10.972
20948SOL    HW164683   1.309  14.336  11.020
20948SOL    HW264684   1.395  14.321  10.896
20949SOL     OW64685   2.260  12.668  14.816
20949SOL    HW164686   2.191  12.660   0.006
20949SOL    HW264687   2.264  12.762  14.797
20950SOL     OW64688   5.071   1.650  11.336
20950SOL    HW164689   5.129   1.598  11.280
20950SOL    HW264690   5.015   1.698  11.274
20951SOL     OW64691  13.907   5.987   4.415
20951SOL    HW164692  13.829   6.042   4.404
20951SOL    HW264693  13.920   5.982   4.509
20952SOL     OW64694   8.099   2.033   0.887
20952SOL    HW164695   8.163   2.072   0.828
20952SOL    HW264696   8.090   2.095   0.959
20953SOL     OW64697   2.417   4.398  10.528
20953SOL    HW164698   2.358   4.344  10.475
20953SOL    HW264699   2.397   4.488  10.503
20954SOL     OW64700   6.353   7.416   8.383
20954SOL    HW164701   6.265   7.423   8.347
20954SOL    HW264702   6.371   7.503   8.419
20955SOL     OW64703   9.774  12.829   0.221
20955SOL    HW164704   9.716  12.868   0.156
20955SOL    HW264705   9.720  12.765   0.266
20956SOL     OW64706   4.712   0.398   9.347
20956SOL    HW164707   4.764   0.330   9.305
20956SOL    HW264708   4.638   0.412   9.288
20957SOL     OW64709   8.362   8.834   8.578
20957SOL    HW164710   8.294   8.837   8.645
20957SOL    HW264711   8.370   8.741   8.557
20958SOL     OW64712   9.297  10.511   5.109
20958SOL    HW164713   9.300  10.415   5.103
20958SOL    HW264714   9.317  10.530   5.201
20959SOL     OW64715   8.441   6.061  11.524
20959SOL    HW164716   8.421   6.095  11.611
20959SOL    HW264717   8.537   6.052  11.523
20960SOL     OW64718   2.930   8.511   3.418
20960SOL    HW164719   3.025   8.510   3.429
20960SOL    HW264720   2.902   8.423   3.442
20961SOL     OW64721  13.398   2.323   6.342
20961SOL    HW164722  13.450   2.246   6.319
20961SOL    HW264723  13.379   2.312   6.435
20962SOL     OW64724  12.392  14.577   3.427
20962SOL    HW164725  12.405  14.591   3.520
20962SOL    HW264726  12.322  14.638   3.403
20963SOL     OW64727   1.133   6.176  10.297
20963SOL    HW164728   1.089   6.108  10.348
20963SOL    HW264729   1.077   6.253  10.307
20964SOL     OW64730  10.150   5.613   1.594
20964SOL    HW164731  10.206   5.561   1.652
20964SOL    HW264732  10.112   5.680   1.651
20965SOL     OW64733  13.263  12.952   6.949
20965SOL    HW164734  13.175  12.935   6.915
20965SOL    HW264735  13.253  13.031   7.002
20966SOL     OW64736  11.321   9.255   6.271
20966SOL    HW164737  11.263   9.189   6.310
20966SOL    HW264738  11.262   9.324   6.241
20967SOL     OW64739  11.884  10.691  10.041
20967SOL    HW164740  11.820  10.620  10.035
20967SOL    HW264741  11.931  10.687   9.958
20968SOL     OW64742   7.909   6.381   1.565
20968SOL    HW164743   7.916   6.306   1.624
20968SOL    HW264744   7.952   6.352   1.484
20969SOL     OW64745   0.331  14.743   4.743
20969SOL    HW164746   0.365  14.831   4.727
20969SOL    HW264747   0.397  14.701   4.798
20970SOL     OW64748   5.768  10.331  11.211
20970SOL    HW164749   5.794  10.240  11.221
20970SOL    HW264750   5.806  10.375  11.287
20971SOL     OW64751   8.173   7.484   0.837
20971SOL    HW164752   8.201   7.426   0.907
20971SOL    HW264753   8.252   7.534   0.815
20972SOL     OW64754   3.538  10.375   9.121
20972SOL    HW164755   3.508  10.462   9.094
20972SOL    HW264756   3.512  10.317   9.049
20973SOL     OW64757   2.065   1.857  10.155
20973SOL    HW164758   1.980   1.814  10.147
20973SOL    HW264759   2.128   1.790  10.129
20974SOL     OW64760  10.974  11.048   3.055
20974SOL    HW164761  10.908  11.001   3.106
20974SOL    HW264762  10.955  11.141   3.073
20975SOL     OW64763  14.499  13.309   8.183
20975SOL    HW164764  14.522  13.295   8.091
20975SOL    HW264765  14.506  13.222   8.223
20976SOL     OW64766   5.224  12.936   0.679
20976SOL    HW164767   5.165  12.977   0.743
20976SOL    HW264768   5.175  12.862   0.645
20977SOL     OW64769  14.808   1.418   9.228
20977SOL    HW164770  14.870   1.398   9.297
20977SOL    HW264771  14.779   1.508   9.246
20978SOL     OW64772  14.217   5.043   1.268
20978SOL    HW164773  14.153   5.089   1.214
20978SOL    HW264774  14.235   5.104   1.340
20979SOL     OW64775   5.677   4.311  13.916
20979SOL    HW164776   5.761   4.337  13.879
20979SOL    HW264777   5.648   4.239  13.859
20980SOL     OW64778   1.900  12.646   5.083
20980SOL    HW164779   1.820  12.661   5.133
20980SOL    HW264780   1.968  12.634   5.149
20981SOL     OW64781   9.270   7.243   1.687
20981SOL    HW164782   9.279   7.300   1.763
20981SOL    HW264783   9.356   7.203   1.676
20982SOL     OW64784  11.503  14.786   6.359
20982SOL    HW164785  11.423  14.837   6.368
20982SOL    HW264786  11.474  14.705   6.315
20983SOL     OW64787  13.979   2.809   2.861
20983SOL    HW164788  14.038   2.881   2.839
20983SOL    HW264789  13.946   2.831   2.948
20984SOL     OW64790   0.264   2.751   2.998
20984SOL    HW164791   0.232   2.823   2.944
20984SOL    HW264792   0.240   2.672   2.950
20985SOL     OW64793   6.450   5.770   8.807
20985SOL    HW164794   6.424   5.744   8.895
20985SOL    HW264795   6.369   5.767   8.756
20986SOL     OW64796  13.965  14.544  14.809
20986SOL    HW164797  14.021  14.485  14.860
20986SOL    HW264798  14.012  14.556  14.726
20987SOL     OW64799   0.062   2.754   2.701
20987SOL    HW164800  14.848   2.786   2.692
20987SOL    HW264801   0.114   2.833   2.714
20988SOL     OW64802   1.675  12.661   5.254
20988SOL    HW164803   1.630  12.629   5.332
20988SOL    HW264804   1.656  12.755   5.252
20989SOL     OW64805  14.548  12.475   8.200
20989SOL    HW164806  14.575  12.561   8.231
20989SOL    HW264807  14.582  12.470   8.110
20990SOL     OW64808   5.112   2.894   9.078
20990SOL    HW164809   5.055   2.871   9.005
20990SOL    HW264810   5.200   2.868   9.048
20991SOL     OW64811   6.695   6.206   6.661
20991SOL    HW164812   6.779   6.226   6.620
20991SOL    HW264813   6.662   6.131   6.611
20992SOL     OW64814   2.941   2.687  13.887
20992SOL    HW164815   2.907   2.761  13.836
20992SOL    HW264816   3.003   2.726  13.948
20993SOL     OW64817  11.986   1.598   3.656
20993SOL    HW164818  12.061   1.542   3.675
20993SOL    HW264819  11.952   1.623   3.742
20994SOL     OW64820  13.150  11.043  13.956
20994SOL    HW164821  13.243  11.029  13.969
20994SOL    HW264822  13.127  10.988  13.881
20995SOL     OW64823  13.028  10.861   8.886
20995SOL    HW164824  13.084  10.783   8.883
20995SOL    HW264825  12.974  10.849   8.964
20996SOL     OW64826   0.530   1.359   7.248
20996SOL    HW164827   0.616   1.329   7.275
20996SOL    HW264828   0.529   1.347   7.153
20997SOL     OW64829   0.592   7.905   7.138
20997SOL    HW164830   0.567   7.817   7.111
20997SOL    HW264831   0.568   7.910   7.231
20998SOL     OW64832  14.856  13.147   1.856
20998SOL    HW164833   0.040  13.138   1.930
20998SOL    HW264834  14.802  13.223   1.879
20999SOL     OW64835  12.926   8.660   4.556
20999SOL    HW164836  12.837   8.633   4.579
20999SOL    HW264837  12.976   8.578   4.551
21000SOL     OW64838   0.744   9.202   6.681
21000SOL    HW164839   0.786   9.176   6.763
21000SOL    HW264840   0.816   9.211   6.619
21001SOL     OW64841  10.458  14.246   0.972
21001SOL    HW164842  10.545  14.244   0.930
21001SOL    HW264843  10.441  14.340   0.984
21002SOL     OW64844  10.258   3.081   9.862
21002SOL    HW164845  10.261   2.996   9.906
21002SOL    HW264846  10.318   3.136   9.913
21003SOL     OW64847   0.413  10.688   9.753
21003SOL    HW164848   0.328  10.681   9.709
21003SOL    HW264849   0.436  10.781   9.745
21004SOL     OW64850   0.902   8.230   1.162
21004SOL    HW164851   0.826   8.266   1.116
21004SOL    HW264852   0.905   8.138   1.135
21005SOL     OW64853   0.769   2.286   0.714
21005SOL    HW164854   0.721   2.221   0.765
21005SOL    HW264855   0.712   2.304   0.639
21006SOL     OW64856  12.021   8.081  14.098
21006SOL    HW164857  11.933   8.047  14.087
21006SOL    HW264858  12.050   8.046  14.183
21007SOL     OW64859  13.066  10.226   5.953
21007SOL    HW164860  13.059  10.134   5.928
21007SOL    HW264861  13.026  10.231   6.039
21008SOL     OW64862   3.848   2.284   0.048
21008SOL    HW164863   3.864   2.348  14.855
21008SOL    HW264864   3.924   2.226   0.045
21009SOL     OW64865   6.907  12.511  10.853
21009SOL    HW164866   6.994  12.519  10.814
21009SOL    HW264867   6.853  12.573  10.803
21010SOL     OW64868   0.242  12.313  14.353
21010SOL    HW164869   0.186  12.240  14.326
21010SOL    HW264870   0.194  12.392  14.327
21011SOL     OW64871   3.882   5.029   3.810
21011SOL    HW164872   3.823   5.051   3.882
21011SOL    HW264873   3.966   5.011   3.852
21012SOL     OW64874  10.856   6.567   6.736
21012SOL    HW164875  10.816   6.484   6.762
21012SOL    HW264876  10.901   6.598   6.815
21013SOL     OW64877   5.340   3.861   3.453
21013SOL    HW164878   5.338   3.892   3.362
21013SOL    HW264879   5.325   3.940   3.505
21014SOL     OW64880   5.736   1.553   9.066
21014SOL    HW164881   5.650   1.512   9.079
21014SOL    HW264882   5.785   1.491   9.013
21015SOL     OW64883  12.990   4.437  10.008
21015SOL    HW164884  13.084   4.437   9.994
21015SOL    HW264885  12.966   4.345  10.013
21016SOL     OW64886   9.197  12.050  13.885
21016SOL    HW164887   9.243  11.987  13.829
21016SOL    HW264888   9.170  11.999  13.961
21017SOL     OW64889   7.141   1.923  13.460
21017SOL    HW164890   7.226   1.930  13.416
21017SOL    HW264891   7.142   1.992  13.526
21018SOL     OW64892  14.709   8.332  12.916
21018SOL    HW164893  14.753   8.270  12.975
21018SOL    HW264894  14.779   8.363  12.859
21019SOL     OW64895  10.283   2.755   2.866
21019SOL    HW164896  10.260   2.828   2.809
21019SOL    HW264897  10.326   2.796   2.941
21020SOL     OW64898   6.217  10.101   8.538
21020SOL    HW164899   6.166  10.135   8.612
21020SOL    HW264900   6.308  10.113   8.564
21021SOL     OW64901   8.521   0.303   6.106
21021SOL    HW164902   8.469   0.225   6.092
21021SOL    HW264903   8.539   0.304   6.200
21022SOL     OW64904  14.300  13.889   6.273
21022SOL    HW164905  14.272  13.797   6.269
21022SOL    HW264906  14.277  13.917   6.362
21023SOL     OW64907   0.812  11.485   5.688
21023SOL    HW164908   0.819  11.533   5.771
21023SOL    HW264909   0.743  11.531   5.640
21024SOL     OW64910   4.068   7.679  12.500
21024SOL    HW164911   4.160   7.692  12.477
21024SOL    HW264912   4.054   7.585  12.491
21025SOL     OW64913   4.398  11.109   9.125
21025SOL    HW164914   4.426  11.032   9.174
21025SOL    HW264915   4.339  11.155   9.184
21026SOL     OW64916   7.518   4.974   1.825
21026SOL    HW164917   7.602   4.933   1.844
21026SOL    HW264918   7.516   5.052   1.881
21027SOL     OW64919  13.454   3.393   5.616
21027SOL    HW164920  13.500   3.443   5.685
21027SOL    HW264921  13.499   3.418   5.535
21028SOL     OW64922   4.349  10.193   7.397
21028SOL    HW164923   4.332  10.128   7.465
21028SOL    HW264924   4.353  10.143   7.316
21029SOL     OW64925   5.769   9.581   0.706
21029SOL    HW164926   5.683   9.613   0.679
21029SOL    HW264927   5.762   9.567   0.800
21030SOL     OW64928   2.981  11.701   8.548
21030SOL    HW164929   2.956  11.610   8.560
21030SOL    HW264930   3.060  11.698   8.494
21031SOL     OW64931   1.015   0.142  10.306
21031SOL    HW164932   1.045   0.052  10.293
21031SOL    HW264933   1.075   0.178  10.372
21032SOL     OW64934   5.510  13.072  13.180
21032SOL    HW164935   5.483  13.135  13.113
21032SOL    HW264936   5.472  12.989  13.150
21033SOL     OW64937  11.044   0.212  13.079
21033SOL    HW164938  10.996   0.262  13.014
21033SOL    HW264939  11.130   0.196  13.039
21034SOL     OW64940  11.885   3.554   4.076
21034SOL    HW164941  11.832   3.634   4.080
21034SOL    HW264942  11.859   3.512   3.994
21035SOL     OW64943   9.274  10.901   2.810
21035SOL    HW164944   9.281  10.814   2.773
21035SOL    HW264945   9.354  10.913   2.861
21036SOL     OW64946   6.417  10.928  12.678
21036SOL    HW164947   6.421  11.022  12.660
21036SOL    HW264948   6.411  10.888  12.591
21037SOL     OW64949   5.952  11.410  10.047
21037SOL    HW164950   5.864  11.433  10.018
21037SOL    HW264951   5.939  11.365  10.131
21038SOL     OW64952  10.196   3.287   1.480
21038SOL    HW164953  10.161   3.374   1.502
21038SOL    HW264954  10.268   3.305   1.419
21039SOL     OW64955  10.411   2.162   3.279
21039SOL    HW164956  10.492   2.180   3.232
21039SOL    HW264957  10.372   2.088   3.232
21040SOL     OW64958   4.420   2.964  14.591
21040SOL    HW164959   4.475   3.035  14.559
21040SOL    HW264960   4.476   2.886  14.586
21041SOL     OW64961   6.441  11.326  13.340
21041SOL    HW164962   6.494  11.273  13.281
21041SOL    HW264963   6.417  11.403  13.288
21042SOL     OW64964  12.624  13.252   5.920
21042SOL    HW164965  12.707  13.208   5.943
21042SOL    HW264966  12.650  13.328   5.868
21043SOL     OW64967   0.970  12.555   1.573
21043SOL    HW164968   0.941  12.468   1.544
21043SOL    HW264969   0.935  12.562   1.662
21044SOL     OW64970   8.537   9.460   9.636
21044SOL    HW164971   8.513   9.551   9.621
21044SOL    HW264972   8.603   9.441   9.569
21045SOL     OW64973  12.000   8.680   2.449
21045SOL    HW164974  12.032   8.642   2.530
21045SOL    HW264975  11.993   8.607   2.388
21046SOL     OW64976  12.040   5.662   5.836
21046SOL    HW164977  11.964   5.719   5.835
21046SOL    HW264978  12.099   5.701   5.900
21047SOL     OW64979   8.752   9.871   1.656
21047SOL    HW164980   8.793   9.785   1.650
21047SOL    HW264981   8.671   9.862   1.605
21048SOL     OW64982   9.061   4.869  11.854
21048SOL    HW164983   9.135   4.913  11.896
21048SOL    HW264984   9.092   4.780  11.838
21049SOL     OW64985   0.550   6.863   7.365
21049SOL    HW164986   0.496   6.790   7.392
21049SOL    HW264987   0.534   6.931   7.431
21050SOL     OW64988   4.981  10.481  13.168
21050SOL    HW164989   5.018  10.416  13.227
21050SOL    HW264990   5.049  10.548  13.160
21051SOL     OW64991   7.028  12.471   5.083
21051SOL    HW164992   7.066  12.536   5.142
21051SOL    HW264993   6.940  12.457   5.116
21052SOL     OW64994   3.387   0.235  11.934
21052SOL    HW164995   3.302   0.210  11.897
21052SOL    HW264996   3.366   0.301  12.000
21053SOL     OW64997   1.401  10.130  10.661
21053SOL    HW164998   1.419  10.140  10.568
21053SOL    HW264999   1.469  10.181  10.705
21054SOL     OW65000   2.264   5.005   8.312
21054SOL    HW165001   2.265   5.100   8.302
21054SOL    HW265002   2.186   4.987   8.363
21055SOL     OW65003   2.239   0.759  12.425
21055SOL    HW165004   2.288   0.748  12.507
21055SOL    HW265005   2.295   0.720  12.359
21056SOL     OW65006  12.506  11.621   9.415
21056SOL    HW165007  12.482  11.677   9.341
21056SOL    HW265008  12.454  11.656   9.488
21057SOL     OW65009  10.616   7.319   1.109
21057SOL    HW165010  10.711   7.325   1.106
21057SOL    HW265011  10.588   7.324   1.018
21058SOL     OW65012  11.883  14.635   9.235
21058SOL    HW165013  11.855  14.573   9.168
21058SOL    HW265014  11.952  14.686   9.194
21059SOL     OW65015  14.607  11.683   7.902
21059SOL    HW165016  14.539  11.727   7.850
21059SOL    HW265017  14.574  11.594   7.915
21060SOL     OW65018   4.962  10.277  12.673
21060SOL    HW165019   5.036  10.218  12.654
21060SOL    HW265020   4.989  10.323  12.753
21061SOL     OW65021   1.812  11.600   8.539
21061SOL    HW165022   1.786  11.509   8.522
21061SOL    HW265023   1.848  11.598   8.628
21062SOL     OW65024  10.074  10.087   4.768
21062SOL    HW165025   9.995  10.065   4.720
21062SOL    HW265026  10.047  10.090   4.859
21063SOL     OW65027   8.769   1.698   7.375
21063SOL    HW165028   8.780   1.713   7.281
21063SOL    HW265029   8.854   1.667   7.405
21064SOL     OW65030  10.474   4.973   4.075
21064SOL    HW165031  10.548   4.970   4.014
21064SOL    HW265032  10.424   5.050   4.049
21065SOL     OW65033   6.094   9.362  13.818
21065SOL    HW165034   6.170   9.331  13.869
21065SOL    HW265035   6.132   9.405  13.741
21066SOL     OW65036  14.544   9.000   2.211
21066SOL    HW165037  14.508   8.916   2.182
21066SOL    HW265038  14.504   9.064   2.152
21067SOL     OW65039   3.528   7.388   3.076
21067SOL    HW165040   3.570   7.393   2.990
21067SOL    HW265041   3.507   7.296   3.087
21068SOL     OW65042  12.749   7.828   2.035
21068SOL    HW165043  12.704   7.760   1.986
21068SOL    HW265044  12.799   7.876   1.968
21069SOL     OW65045   9.579   7.369  11.791
21069SOL    HW165046   9.566   7.288  11.742
21069SOL    HW265047   9.501   7.376  11.846
21070SOL     OW65048   5.148   3.741   6.282
21070SOL    HW165049   5.193   3.825   6.275
21070SOL    HW265050   5.055   3.763   6.281
21071SOL     OW65051   6.249  10.041   1.470
21071SOL    HW165052   6.246   9.973   1.538
21071SOL    HW265053   6.172  10.095   1.487
21072SOL     OW65054   9.772   0.943   4.203
21072SOL    HW165055   9.840   0.880   4.178
21072SOL    HW265056   9.729   0.965   4.120
21073SOL     OW65057   4.349   7.282   9.698
21073SOL    HW165058   4.320   7.286   9.607
21073SOL    HW265059   4.293   7.215   9.738
21074SOL     OW65060   9.166   0.476  12.128
21074SOL    HW165061   9.252   0.496  12.091
21074SOL    HW265062   9.184   0.455  12.220
21075SOL     OW65063   8.219   1.676   1.415
21075SOL    HW165064   8.295   1.671   1.473
21075SOL    HW265065   8.194   1.768   1.415
21076SOL     OW65066  12.648  14.567   6.982
21076SOL    HW165067  12.604  14.652   6.985
21076SOL    HW265068  12.668  14.553   6.890
21077SOL     OW65069   5.514   1.058   0.569
21077SOL    HW165070   5.528   0.965   0.587
21077SOL    HW265071   5.551   1.072   0.483
21078SOL     OW65072   7.967  14.002  14.869
21078SOL    HW165073   8.057  14.017   0.019
21078SOL    HW265074   7.916  14.068   0.039
21079SOL     OW65075  12.287   7.916   1.832
21079SOL    HW165076  12.329   7.903   1.917
21079SOL    HW265077  12.357   7.944   1.774
21080SOL     OW65078  12.354   4.688  14.204
21080SOL    HW165079  12.393   4.755  14.148
21080SOL    HW265080  12.273   4.664  14.159
21081SOL     OW65081  10.646  11.013   7.587
21081SOL    HW165082  10.691  11.084   7.540
21081SOL    HW265083  10.708  10.986   7.654
21082SOL     OW65084  13.635   7.313   9.632
21082SOL    HW165085  13.649   7.339   9.723
21082SOL    HW265086  13.549   7.350   9.610
21083SOL     OW65087   3.392   1.862   7.588
21083SOL    HW165088   3.320   1.824   7.538
21083SOL    HW265089   3.387   1.821   7.674
21084SOL     OW65090  13.645   4.408   8.047
21084SOL    HW165091  13.579   4.343   8.071
21084SOL    HW265092  13.705   4.409   8.122
21085SOL     OW65093   0.422   5.094   4.830
21085SOL    HW165094   0.339   5.137   4.815
21085SOL    HW265095   0.462   5.088   4.743
21086SOL     OW65096   1.658  12.503   5.979
21086SOL    HW165097   1.629  12.575   5.923
21086SOL    HW265098   1.578  12.457   6.003
21087SOL     OW65099   3.929  11.994   3.809
21087SOL    HW165100   4.015  11.952   3.812
21087SOL    HW265101   3.885  11.965   3.889
21088SOL     OW65102   8.398   6.703  10.975
21088SOL    HW165103   8.316   6.704  11.024
21088SOL    HW265104   8.466   6.705  11.041
21089SOL     OW65105   8.251  13.126   3.320
21089SOL    HW165106   8.255  13.050   3.378
21089SOL    HW265107   8.332  13.173   3.336
21090SOL     OW65108   5.524   4.066  10.084
21090SOL    HW165109   5.477   4.116  10.018
21090SOL    HW265110   5.563   3.993  10.034
21091SOL     OW65111   2.670  14.734  12.857
21091SOL    HW165112   2.668  14.739  12.761
21091SOL    HW265113   2.609  14.801  12.886
21092SOL     OW65114   8.988  13.334   8.895
21092SOL    HW165115   9.000  13.240   8.881
21092SOL    HW265116   8.908  13.355   8.847
21093SOL     OW65117   2.310   1.403   4.920
21093SOL    HW165118   2.376   1.427   4.856
21093SOL    HW265119   2.346   1.326   4.964
21094SOL     OW65120   2.887   6.064   7.433
21094SOL    HW165121   2.853   6.086   7.346
21094SOL    HW265122   2.929   5.979   7.422
21095SOL     OW65123   7.848   4.877  10.884
21095SOL    HW165124   7.833   4.970  10.900
21095SOL    HW265125   7.770   4.848  10.837
21096SOL     OW65126   1.387   6.824   7.859
21096SOL    HW165127   1.303   6.871   7.854
21096SOL    HW265128   1.446   6.875   7.804
21097SOL     OW65129   9.006   8.413   4.199
21097SOL    HW165130   8.912   8.404   4.216
21097SOL    HW265131   9.027   8.503   4.225
21098SOL     OW65132   9.042  10.789   9.187
21098SOL    HW165133   8.967  10.804   9.245
21098SOL    HW265134   9.036  10.859   9.122
21099SOL     OW65135  14.714   0.686   8.060
21099SOL    HW165136  14.621   0.672   8.079
21099SOL    HW265137  14.753   0.599   8.063
21100SOL     OW65138   7.620   7.724   4.273
21100SOL    HW165139   7.592   7.649   4.221
21100SOL    HW265140   7.616   7.694   4.364
21101SOL     OW65141   7.987   6.635  13.499
21101SOL    HW165142   8.070   6.591  13.519
21101SOL    HW265143   7.978   6.628  13.404
21102SOL     OW65144   8.194  12.393   3.825
21102SOL    HW165145   8.101  12.391   3.806
21102SOL    HW265146   8.234  12.338   3.758
21103SOL     OW65147   0.633  14.310   9.082
21103SOL    HW165148   0.586  14.311   8.999
21103SOL    HW265149   0.621  14.398   9.117
21104SOL     OW65150   3.502  10.558   8.108
21104SOL    HW165151   3.572  10.608   8.149
21104SOL    HW265152   3.472  10.498   8.176
21105SOL     OW65153  13.625  11.063   3.373
21105SOL    HW165154  13.529  11.061   3.365
21105SOL    HW265155  13.642  11.027   3.460
21106SOL     OW65156   0.055   0.565  14.510
21106SOL    HW165157   0.049   0.470  14.510
21106SOL    HW265158   0.000   0.593  14.583
21107SOL     OW65159   7.205   4.527   0.701
21107SOL    HW165160   7.149   4.456   0.671
21107SOL    HW265161   7.238   4.498   0.786
21108SOL     OW65162   9.531  13.993   0.258
21108SOL    HW165163   9.563  14.053   0.326
21108SOL    HW265164   9.520  13.910   0.304
21109SOL     OW65165   7.787   5.939   0.172
21109SOL    HW165166   7.700   5.954   0.207
21109SOL    HW265167   7.845   5.987   0.231
21110SOL     OW65168   5.173  10.815   8.791
21110SOL    HW165169   5.078  10.822   8.779
21110SOL    HW265170   5.184  10.738   8.848
21111SOL     OW65171   6.837   2.433   5.113
21111SOL    HW165172   6.753   2.478   5.127
21111SOL    HW265173   6.900   2.485   5.163
21112SOL     OW65174   9.550   5.270   6.822
21112SOL    HW165175   9.497   5.322   6.883
21112SOL    HW265176   9.530   5.307   6.736
21113SOL     OW65177  12.996   8.493  13.335
21113SOL    HW165178  12.902   8.503  13.323
21113SOL    HW265179  13.020   8.420  13.277
21114SOL     OW65180  13.416   6.881  11.784
21114SOL    HW165181  13.399   6.940  11.857
21114SOL    HW265182  13.367   6.802  11.804
21115SOL     OW65183   7.407   9.230   7.629
21115SOL    HW165184   7.427   9.176   7.706
21115SOL    HW265185   7.407   9.169   7.556
21116SOL     OW65186   6.908  13.086   5.112
21116SOL    HW165187   6.839  13.071   5.177
21116SOL    HW265188   6.886  13.026   5.041
21117SOL     OW65189   8.319  14.018   8.824
21117SOL    HW165190   8.401  14.031   8.870
21117SOL    HW265191   8.255  13.999   8.894
21118SOL     OW65192   1.257   1.753   0.679
21118SOL    HW165193   1.307   1.830   0.652
21118SOL    HW265194   1.219   1.778   0.763
21119SOL     OW65195  12.072   8.757  13.011
21119SOL    HW165196  11.984   8.753  12.971
21119SOL    HW265197  12.072   8.687  13.076
21120SOL     OW65198  11.124   6.715   9.536
21120SOL    HW165199  11.032   6.728   9.560
21120SOL    HW265200  11.125   6.632   9.488
21121SOL     OW65201   0.493   5.432  11.768
21121SOL    HW165202   0.499   5.389  11.683
21121SOL    HW265203   0.399   5.443  11.783
21122SOL     OW65204  10.287   2.795  11.405
21122SOL    HW165205  10.320   2.884  11.393
21122SOL    HW265206  10.325   2.767  11.488
21123SOL     OW65207   4.595   3.381   4.464
21123SOL    HW165208   4.621   3.312   4.403
21123SOL    HW265209   4.514   3.417   4.428
21124SOL     OW65210  12.379   4.054   8.383
21124SOL    HW165211  12.351   4.107   8.309
21124SOL    HW265212  12.323   3.977   8.380
21125SOL     OW65213  13.250  13.074   8.986
21125SOL    HW165214  13.288  12.989   9.008
21125SOL    HW265215  13.265  13.127   9.065
21126SOL     OW65216  14.258   6.591   6.793
21126SOL    HW165217  14.256   6.556   6.704
21126SOL    HW265218  14.350   6.585   6.820
21127SOL     OW65219   6.456  12.392   0.777
21127SOL    HW165220   6.454  12.411   0.871
21127SOL    HW265221   6.371  12.354   0.758
21128SOL     OW65222   5.185   2.686   3.531
21128SOL    HW165223   5.268   2.639   3.546
21128SOL    HW265224   5.176   2.690   3.436
21129SOL     OW65225   7.675   9.047   1.952
21129SOL    HW165226   7.625   9.070   2.031
21129SOL    HW265227   7.766   9.064   1.976
21130SOL     OW65228  14.745   1.514  14.030
21130SOL    HW165229  14.682   1.483  14.096
21130SOL    HW265230  14.722   1.466  13.951
21131SOL     OW65231   1.863   8.800   6.845
21131SOL    HW165232   1.814   8.881   6.832
21131SOL    HW265233   1.900   8.780   6.759
21132SOL     OW65234   1.775   8.024   4.502
21132SOL    HW165235   1.709   7.980   4.450
21132SOL    HW265236   1.735   8.034   4.589
21133SOL     OW65237  11.008   4.529   3.239
21133SOL    HW165238  10.984   4.444   3.276
21133SOL    HW265239  10.938   4.549   3.177
21134SOL     OW65240   6.155   0.057   2.313
21134SOL    HW165241   6.136   0.032   2.223
21134SOL    HW265242   6.167  14.851   2.360
21135SOL     OW65243   0.846  10.542   8.506
21135SOL    HW165244   0.754  10.570   8.504
21135SOL    HW265245   0.875  10.548   8.415
21136SOL     OW65246  11.702   9.251   8.543
21136SOL    HW165247  11.693   9.158   8.523
21136SOL    HW265248  11.645   9.295   8.480
21137SOL     OW65249  10.245  14.215  12.421
21137SOL    HW165250  10.220  14.292  12.472
21137SOL    HW265251  10.180  14.211  12.351
21138SOL     OW65252  13.457  13.341  12.636
21138SOL    HW165253  13.539  13.321  12.590
21138SOL    HW265254  13.434  13.429  12.608
21139SOL     OW65255   8.267   0.835   1.289
21139SOL    HW165256   8.232   0.892   1.221
21139SOL    HW265257   8.250   0.747   1.257
21140SOL     OW65258  13.694  10.488   8.707
21140SOL    HW165259  13.629  10.456   8.770
21140SOL    HW265260  13.722  10.572   8.742
21141SOL     OW65261   6.069  13.469  11.689
21141SOL    HW165262   6.103  13.548  11.732
21141SOL    HW265263   6.005  13.502  11.626
21142SOL     OW65264   7.716   7.345   4.835
21142SOL    HW165265   7.716   7.438   4.858
21142SOL    HW265266   7.807   7.317   4.848
21143SOL     OW65267   2.731   5.073  10.656
21143SOL    HW165268   2.787   5.012  10.608
21143SOL    HW265269   2.769   5.075  10.745
21144SOL     OW65270  10.593   4.012  11.758
21144SOL    HW165271  10.670   3.960  11.733
21144SOL    HW265272  10.626   4.072  11.825
21145SOL     OW65273   3.922  14.819  12.743
21145SOL    HW165274   3.975   0.018  12.770
21145SOL    HW265275   3.901  14.836  12.652
21146SOL     OW65276   5.529   9.060   2.218
21146SOL    HW165277   5.597   8.999   2.245
21146SOL    HW265278   5.572   9.146   2.218
21147SOL     OW65279   5.403   8.731   9.212
21147SOL    HW165280   5.342   8.662   9.239
21147SOL    HW265281   5.362   8.812   9.242
21148SOL     OW65282  10.472   2.021   0.187
21148SOL    HW165283  10.548   1.992   0.136
21148SOL    HW265284  10.438   2.097   0.139
21149SOL     OW65285   7.371   5.842   7.693
21149SOL    HW165286   7.360   5.797   7.776
21149SOL    HW265287   7.332   5.784   7.628
21150SOL     OW65288   6.499   1.765   7.511
21150SOL    HW165289   6.556   1.798   7.442
21150SOL    HW265290   6.475   1.842   7.562
21151SOL     OW65291   4.103  12.448   8.935
21151SOL    HW165292   4.068  12.369   8.894
21151SOL    HW265293   4.156  12.416   9.008
21152SOL     OW65294   0.894   0.145   6.108
21152SOL    HW165295   0.837   0.203   6.158
21152SOL    HW265296   0.973   0.198   6.091
21153SOL     OW65297   9.670   6.547   4.938
21153SOL    HW165298   9.703   6.474   4.885
21153SOL    HW265299   9.630   6.504   5.014
21154SOL     OW65300   6.848  12.495   9.894
21154SOL    HW165301   6.880  12.585   9.904
21154SOL    HW265302   6.921  12.449   9.852
21155SOL     OW65303   9.734  12.042  11.853
21155SOL    HW165304   9.809  12.090  11.819
21155SOL    HW265305   9.658  12.096  11.828
21156SOL     OW65306  14.735  13.235   6.214
21156SOL    HW165307  14.759  13.177   6.286
21156SOL    HW265308  14.665  13.189   6.169
21157SOL     OW65309   0.938   3.326   4.520
21157SOL    HW165310   0.999   3.276   4.574
21157SOL    HW265311   0.988   3.348   4.441
21158SOL     OW65312   6.286   0.912  11.253
21158SOL    HW165313   6.303   0.861  11.175
21158SOL    HW265314   6.308   0.854  11.326
21159SOL     OW65315  12.512   7.405   5.711
21159SOL    HW165316  12.561   7.435   5.634
21159SOL    HW265317  12.500   7.311   5.696
21160SOL     OW65318   4.520  10.102   5.468
21160SOL    HW165319   4.604  10.104   5.422
21160SOL    HW265320   4.516  10.014   5.506
21161SOL     OW65321  10.189   9.854   3.029
21161SOL    HW165322  10.191   9.767   2.989
21161SOL    HW265323  10.215   9.914   2.959
21162SOL     OW65324   9.976   7.674   3.152
21162SOL    HW165325   9.990   7.704   3.063
21162SOL    HW265326  10.043   7.607   3.166
21163SOL     OW65327   9.833  14.559   0.062
21163SOL    HW165328   9.868  14.496   0.125
21163SOL    HW265329   9.748  14.523   0.036
21164SOL     OW65330   8.025   5.719  10.128
21164SOL    HW165331   8.029   5.722  10.224
21164SOL    HW265332   8.113   5.690  10.101
21165SOL     OW65333   5.550   7.676  14.373
21165SOL    HW165334   5.461   7.643  14.361
21165SOL    HW265335   5.576   7.644  14.459
21166SOL     OW65336  10.915   0.205   6.537
21166SOL    HW165337  10.831   0.250   6.542
21166SOL    HW265338  10.909   0.150   6.459
21167SOL     OW65339  11.118   3.850   7.276
21167SOL    HW165340  11.089   3.878   7.363
21167SOL    HW265341  11.043   3.802   7.241
21168SOL     OW65342   4.111   5.972   7.183
21168SOL    HW165343   4.193   6.012   7.152
21168SOL    HW265344   4.046   6.042   7.177
21169SOL     OW65345  14.055   1.023  10.220
21169SOL    HW165346  14.067   1.108  10.263
21169SOL    HW265347  14.013   1.044  10.137
21170SOL     OW65348  10.277   9.067   0.159
21170SOL    HW165349  10.234   9.001   0.213
21170SOL    HW265350  10.314   9.018   0.086
21171SOL     OW65351   4.390   9.046   6.361
21171SOL    HW165352   4.440   8.979   6.408
21171SOL    HW265353   4.456   9.109   6.331
21172SOL     OW65354  11.233  10.140  12.419
21172SOL    HW165355  11.178  10.144  12.497
21172SOL    HW265356  11.219  10.052  12.384
21173SOL     OW65357  12.475   1.503  13.861
21173SOL    HW165358  12.439   1.465  13.781
21173SOL    HW265359  12.399   1.516  13.917
21174SOL     OW65360   3.610   7.627   8.820
21174SOL    HW165361   3.549   7.560   8.850
21174SOL    HW265362   3.646   7.664   8.900
21175SOL     OW65363   5.000   9.675   1.882
21175SOL    HW165364   5.033   9.724   1.806
21175SOL    HW265365   4.909   9.703   1.891
21176SOL     OW65366   8.147   9.925   9.576
21176SOL    HW165367   8.090   9.893   9.505
21176SOL    HW265368   8.086   9.952   9.645
21177SOL     OW65369   9.452  11.095  10.728
21177SOL    HW165370   9.392  11.032  10.688
21177SOL    HW265371   9.530  11.043  10.751
21178SOL     OW65372   2.510   5.250  14.875
21178SOL    HW165373   2.575   5.180  14.876
21178SOL    HW265374   2.488   5.261  14.783
21179SOL     OW65375   0.571   3.699   5.565
21179SOL    HW165376   0.637   3.677   5.630
21179SOL    HW265377   0.568   3.795   5.564
21180SOL     OW65378   7.827  13.196   7.109
21180SOL    HW165379   7.759  13.224   7.047
21180SOL    HW265380   7.905  13.245   7.083
21181SOL     OW65381   4.323  13.022   4.513
21181SOL    HW165382   4.301  13.028   4.420
21181SOL    HW265383   4.293  13.105   4.550
21182SOL     OW65384   4.791   1.229   7.573
21182SOL    HW165385   4.716   1.169   7.571
21182SOL    HW265386   4.860   1.180   7.618
21183SOL     OW65387  13.353   5.962  13.283
21183SOL    HW165388  13.370   5.971  13.190
21183SOL    HW265389  13.302   6.041  13.306
21184SOL     OW65390  13.795   2.022  11.825
21184SOL    HW165391  13.817   2.009  11.917
21184SOL    HW265392  13.858   1.967  11.778
21185SOL     OW65393  10.452  10.160   8.549
21185SOL    HW165394  10.536  10.149   8.505
21185SOL    HW265395  10.417  10.242   8.515
21186SOL     OW65396   5.740   5.186   8.470
21186SOL    HW165397   5.676   5.256   8.457
21186SOL    HW265398   5.738   5.135   8.389
21187SOL     OW65399  12.729   3.375   6.110
21187SOL    HW165400  12.637   3.393   6.090
21187SOL    HW265401  12.776   3.404   6.033
21188SOL     OW65402  13.518   1.593   9.011
21188SOL    HW165403  13.511   1.545   9.093
21188SOL    HW265404  13.595   1.649   9.023
21189SOL     OW65405  11.983   3.042   3.839
21189SOL    HW165406  12.018   3.115   3.890
21189SOL    HW265407  11.895   3.071   3.813
21190SOL     OW65408   3.035  11.622   1.994
21190SOL    HW165409   3.047  11.605   2.087
21190SOL    HW265410   3.116  11.665   1.966
21191SOL     OW65411  10.454   7.808  13.157
21191SOL    HW165412  10.461   7.855  13.074
21191SOL    HW265413  10.513   7.854  13.216
21192SOL     OW65414   0.578   4.779   0.450
21192SOL    HW165415   0.511   4.745   0.510
21192SOL    HW265416   0.540   4.859   0.415
21193SOL     OW65417   0.400  14.683   4.465
21193SOL    HW165418   0.371  14.717   4.549
21193SOL    HW265419   0.319  14.669   4.415
21194SOL     OW65420   4.797  13.669  13.749
21194SOL    HW165421   4.723  13.648  13.692
21194SOL    HW265422   4.843  13.586  13.760
21195SOL     OW65423   1.286   5.820   3.891
21195SOL    HW165424   1.320   5.856   3.809
21195SOL    HW265425   1.364   5.804   3.944
21196SOL     OW65426   1.291  12.146   1.955
21196SOL    HW165427   1.295  12.057   1.919
21196SOL    HW265428   1.201  12.155   1.987
21197SOL     OW65429   0.914   3.569  13.451
21197SOL    HW165430   0.938   3.518  13.373
21197SOL    HW265431   0.864   3.643  13.416
21198SOL     OW65432   6.759   1.096   6.165
21198SOL    HW165433   6.739   1.009   6.130
21198SOL    HW265434   6.782   1.147   6.088
21199SOL     OW65435   6.660  10.000   1.236
21199SOL    HW165436   6.638   9.963   1.150
21199SOL    HW265437   6.589  10.062   1.254
21200SOL     OW65438  10.336   8.280   6.870
21200SOL    HW165439  10.269   8.211   6.871
21200SOL    HW265440  10.290   8.358   6.838
21201SOL     OW65441   3.968   3.822  10.387
21201SOL    HW165442   3.899   3.787  10.443
21201SOL    HW265443   3.943   3.795  10.298
21202SOL     OW65444   3.728   5.182   7.465
21202SOL    HW165445   3.660   5.140   7.517
21202SOL    HW265446   3.806   5.180   7.521
21203SOL     OW65447  10.492   2.732   5.404
21203SOL    HW165448  10.512   2.675   5.329
21203SOL    HW265449  10.569   2.723   5.461
21204SOL     OW65450  13.487   5.138   0.801
21204SOL    HW165451  13.528   5.218   0.833
21204SOL    HW265452  13.393   5.157   0.801
21205SOL     OW65453  11.475  14.515   7.973
21205SOL    HW165454  11.526  14.562   7.906
21205SOL    HW265455  11.538  14.454   8.012
21206SOL     OW65456   6.562  10.920  11.003
21206SOL    HW165457   6.506  10.986  10.962
21206SOL    HW265458   6.544  10.839  10.954
21207SOL     OW65459   8.964   8.275  13.455
21207SOL    HW165460   9.041   8.332  13.457
21207SOL    HW265461   8.942   8.266  13.362
21208SOL     OW65462   8.746   9.440   2.595
21208SOL    HW165463   8.756   9.497   2.518
21208SOL    HW265464   8.687   9.488   2.653
21209SOL     OW65465   5.787  13.190  12.341
21209SOL    HW165466   5.835  13.242  12.276
21209SOL    HW265467   5.697  13.186  12.307
21210SOL     OW65468  10.114   0.219   3.375
21210SOL    HW165469  10.109   0.132   3.335
21210SOL    HW265470  10.057   0.273   3.321
21211SOL     OW65471  11.612  13.024  13.545
21211SOL    HW165472  11.581  12.936  13.522
21211SOL    HW265473  11.695  13.033  13.499
21212SOL     OW65474  13.490   4.204   1.959
21212SOL    HW165475  13.576   4.232   1.929
21212SOL    HW265476  13.508   4.139   2.027
21213SOL     OW65477  14.869   2.853   5.944
21213SOL    HW165478  14.845   2.773   5.991
21213SOL    HW265479   0.041   2.905   6.009
21214SOL     OW65480  12.806   7.889  12.973
21214SOL    HW165481  12.828   7.812  12.920
21214SOL    HW265482  12.816   7.859  13.064
21215SOL     OW65483   6.805   5.684   9.955
21215SOL    HW165484   6.880   5.626   9.968
21215SOL    HW265485   6.730   5.625   9.952
21216SOL     OW65486  12.808  14.309  12.827
21216SOL    HW165487  12.841  14.327  12.915
21216SOL    HW265488  12.878  14.261  12.784
21217SOL     OW65489   2.801  10.688   3.203
21217SOL    HW165490   2.705  10.695   3.211
21217SOL    HW265491   2.828  10.644   3.284
21218SOL     OW65492   0.230   1.916   4.461
21218SOL    HW165493   0.202   1.864   4.536
21218SOL    HW265494   0.249   2.002   4.498
21219SOL     OW65495   0.877  14.754   8.554
21219SOL    HW165496   0.803  14.789   8.604
21219SOL    HW265497   0.875  14.802   8.471
21220SOL     OW65498   4.104  10.697  10.506
21220SOL    HW165499   4.074  10.617  10.548
21220SOL    HW265500   4.119  10.758  10.578
21221SOL     OW65501   3.302   0.242   6.017
21221SOL    HW165502   3.279   0.314   6.076
21221SOL    HW265503   3.393   0.258   5.994
21222SOL     OW65504   7.379   0.229   2.962
21222SOL    HW165505   7.396   0.199   3.051
21222SOL    HW265506   7.464   0.223   2.918
21223SOL     OW65507  11.398   5.910  11.115
21223SOL    HW165508  11.316   5.950  11.086
21223SOL    HW265509  11.387   5.898  11.209
21224SOL     OW65510  10.017   4.863  12.448
21224SOL    HW165511  10.024   4.937  12.509
21224SOL    HW265512  10.074   4.796  12.486
21225SOL     OW65513  13.790   6.356   2.775
21225SOL    HW165514  13.830   6.309   2.849
21225SOL    HW265515  13.698   6.365   2.801
21226SOL     OW65516  11.401   3.204  10.382
21226SOL    HW165517  11.326   3.261  10.363
21226SOL    HW265518  11.369   3.116  10.362
21227SOL     OW65519   5.365   1.371  13.848
21227SOL    HW165520   5.292   1.432  13.863
21227SOL    HW265521   5.326   1.284  13.859
21228SOL     OW65522   5.823   1.671  14.745
21228SOL    HW165523   5.844   1.584  14.778
21228SOL    HW265524   5.843   1.729  14.819
21229SOL     OW65525   4.771   4.794   5.976
21229SOL    HW165526   4.682   4.759   5.964
21229SOL    HW265527   4.828   4.720   5.957
21230SOL     OW65528  12.720   0.025   7.856
21230SOL    HW165529  12.807   0.037   7.894
21230SOL    HW265530  12.733  14.832   7.791
21231SOL     OW65531   3.227  11.325   2.181
21231SOL    HW165532   3.178  11.248   2.211
21231SOL    HW265533   3.160  11.390   2.160
21232SOL     OW65534   7.846   3.868   8.941
21232SOL    HW165535   7.766   3.854   8.992
21232SOL    HW265536   7.914   3.882   9.007
21233SOL     OW65537  12.289   8.648  14.665
21233SOL    HW165538  12.284   8.639  14.570
21233SOL    HW265539  12.383   8.661  14.682
21234SOL     OW65540   9.540   0.800   1.270
21234SOL    HW165541   9.565   0.890   1.250
21234SOL    HW265542   9.454   0.808   1.311
21235SOL     OW65543   5.774   2.270   6.179
21235SOL    HW165544   5.814   2.344   6.134
21235SOL    HW265545   5.681   2.276   6.159
21236SOL     OW65546   6.726   3.675   8.776
21236SOL    HW165547   6.775   3.704   8.853
21236SOL    HW265548   6.776   3.709   8.702
21237SOL     OW65549   1.260   4.445  12.187
21237SOL    HW165550   1.210   4.497  12.124
21237SOL    HW265551   1.346   4.488  12.192
21238SOL     OW65552   1.786   2.035   5.026
21238SOL    HW165553   1.874   2.042   4.988
21238SOL    HW265554   1.750   2.123   5.019
21239SOL     OW65555   9.582   3.836   8.467
21239SOL    HW165556   9.597   3.929   8.485
21239SOL    HW265557   9.668   3.803   8.442
21240SOL     OW65558   8.791   9.542   2.893
21240SOL    HW165559   8.741   9.549   2.974
21240SOL    HW265560   8.754   9.610   2.836
21241SOL     OW65561  10.186   8.183  11.999
21241SOL    HW165562  10.281   8.194  11.996
21241SOL    HW265563  10.172   8.106  12.054
21242SOL     OW65564   5.263  14.680   0.571
21242SOL    HW165565   5.183  14.720   0.604
21242SOL    HW265566   5.284  14.611   0.635
21243SOL     OW65567   4.202   4.443   8.468
21243SOL    HW165568   4.138   4.475   8.531
21243SOL    HW265569   4.227   4.520   8.417
21244SOL     OW65570  12.154   1.099  14.182
21244SOL    HW165571  12.089   1.166  14.206
21244SOL    HW265572  12.198   1.136  14.105
21245SOL     OW65573   6.660   5.500  11.450
21245SOL    HW165574   6.596   5.566  11.423
21245SOL    HW265575   6.628   5.418  11.413
21246SOL     OW65576   3.016   2.970   9.202
21246SOL    HW165577   3.033   2.923   9.283
21246SOL    HW265578   2.999   2.902   9.137
21247SOL     OW65579   7.644   8.058   8.380
21247SOL    HW165580   7.609   8.102   8.457
21247SOL    HW265581   7.739   8.066   8.388
21248SOL     OW65582   8.850   0.661   4.022
21248SOL    HW165583   8.819   0.591   3.964
21248SOL    HW265584   8.850   0.622   4.109
21249SOL     OW65585   4.726   1.065   5.919
21249SOL    HW165586   4.735   1.072   6.014
21249SOL    HW265587   4.790   0.997   5.894
21250SOL     OW65588  13.000  10.751  12.044
21250SOL    HW165589  12.949  10.741  12.125
21250SOL    HW265590  12.938  10.787  11.981
21251SOL     OW65591  10.686   9.042   6.169
21251SOL    HW165592  10.721   9.128   6.192
21251SOL    HW265593  10.739   9.014   6.094
21252SOL     OW65594  10.743  12.415   2.977
21252SOL    HW165595  10.680  12.444   2.911
21252SOL    HW265596  10.797  12.492   2.994
21253SOL     OW65597  11.875   8.222   6.511
21253SOL    HW165598  11.965   8.251   6.527
21253SOL    HW265599  11.884   8.150   6.450
21254SOL     OW65600   4.008   3.049  12.774
21254SOL    HW165601   4.078   3.068  12.712
21254SOL    HW265602   3.927   3.070  12.726
21255SOL     OW65603  11.799  14.282   0.561
21255SOL    HW165604  11.762  14.239   0.484
21255SOL    HW265605  11.871  14.225   0.587
21256SOL     OW65606   4.917   2.842   3.056
21256SOL    HW165607   4.864   2.872   2.982
21256SOL    HW265608   4.869   2.872   3.134
21257SOL     OW65609   6.581   8.241   3.154
21257SOL    HW165610   6.661   8.193   3.173
21257SOL    HW265611   6.573   8.305   3.224
21258SOL     OW65612   9.892   0.977   9.155
21258SOL    HW165613   9.941   0.970   9.237
21258SOL    HW265614   9.826   1.043   9.173
21259SOL     OW65615   0.860   1.772  10.600
21259SOL    HW165616   0.819   1.755  10.684
21259SOL    HW265617   0.873   1.685  10.562
21260SOL     OW65618  10.852  13.636  10.784
21260SOL    HW165619  10.785  13.697  10.753
21260SOL    HW265620  10.902  13.613  10.706
21261SOL     OW65621   3.752   3.214  10.312
21261SOL    HW165622   3.678   3.187  10.257
21261SOL    HW265623   3.749   3.310  10.310
21262SOL     OW65624   8.375  11.678   1.135
21262SOL    HW165625   8.293  11.686   1.183
21262SOL    HW265626   8.348  11.674   1.043
21263SOL     OW65627  13.846   8.786   4.231
21263SOL    HW165628  13.869   8.695   4.210
21263SOL    HW265629  13.922   8.837   4.202
21264SOL     OW65630  10.927   7.286   6.931
21264SOL    HW165631  10.980   7.216   6.968
21264SOL    HW265632  10.965   7.302   6.845
21265SOL     OW65633  12.226  10.856   4.195
21265SOL    HW165634  12.167  10.910   4.246
21265SOL    HW265635  12.314  10.890   4.214
21266SOL     OW65636  11.215   8.428   9.818
21266SOL    HW165637  11.242   8.379   9.895
21266SOL    HW265638  11.191   8.515   9.851
21267SOL     OW65639   6.349   2.796   7.131
21267SOL    HW165640   6.322   2.741   7.204
21267SOL    HW265641   6.370   2.880   7.171
21268SOL     OW65642   4.822  14.631   2.968
21268SOL    HW165643   4.731  14.618   2.996
21268SOL    HW265644   4.815  14.671   2.881
21269SOL     OW65645   1.290   2.325   1.712
21269SOL    HW165646   1.344   2.257   1.752
21269SOL    HW265647   1.214   2.333   1.770
21270SOL     OW65648   4.512   3.765   7.139
21270SOL    HW165649   4.607   3.773   7.124
21270SOL    HW265650   4.477   3.738   7.054
21271SOL     OW65651   7.897   5.698  10.605
21271SOL    HW165652   7.834   5.653  10.549
21271SOL    HW265653   7.844   5.749  10.665
21272SOL     OW65654   7.545   5.005   6.683
21272SOL    HW165655   7.593   4.984   6.763
21272SOL    HW265656   7.541   5.101   6.682
21273SOL     OW65657   8.640   1.318   6.913
21273SOL    HW165658   8.581   1.282   6.848
21273SOL    HW265659   8.717   1.261   6.910
21274SOL     OW65660  12.874  11.936   8.930
21274SOL    HW165661  12.786  11.958   8.899
21274SOL    HW265662  12.897  11.856   8.883
21275SOL     OW65663   7.496  10.791  11.976
21275SOL    HW165664   7.481  10.794  11.881
21275SOL    HW265665   7.584  10.755  11.985
21276SOL     OW65666   4.994  10.477  12.884
21276SOL    HW165667   4.960  10.441  12.965
21276SOL    HW265668   5.087  10.494  12.902
21277SOL     OW65669   9.191  10.853  12.990
21277SOL    HW165670   9.124  10.825  12.928
21277SOL    HW265671   9.187  10.948  12.988
21278SOL     OW65672   8.687   9.715  11.851
21278SOL    HW165673   8.629   9.694  11.778
21278SOL    HW265674   8.630   9.753  11.917
21279SOL     OW65675   1.845  14.783  11.405
21279SOL    HW165676   1.808  14.762  11.320
21279SOL    HW265677   1.927  14.828  11.386
21280SOL     OW65678  10.410   8.316   7.658
21280SOL    HW165679  10.333   8.327   7.603
21280SOL    HW265680  10.477   8.370   7.616
21281SOL     OW65681  11.813  10.574   9.599
21281SOL    HW165682  11.776  10.636   9.537
21281SOL    HW265683  11.868  10.517   9.545
21282SOL     OW65684   7.643   3.101   4.294
21282SOL    HW165685   7.579   3.127   4.360
21282SOL    HW265686   7.652   3.179   4.238
21283SOL     OW65687   0.361   6.099   6.291
21283SOL    HW165688   0.416   6.170   6.322
21283SOL    HW265689   0.272   6.125   6.316
21284SOL     OW65690   4.062   4.926   0.757
21284SOL    HW165691   4.134   4.974   0.797
21284SOL    HW265692   4.058   4.959   0.668
21285SOL     OW65693   7.228   4.085   3.386
21285SOL    HW165694   7.304   4.144   3.389
21285SOL    HW265695   7.203   4.073   3.477
21286SOL     OW65696   2.557  10.382  10.144
21286SOL    HW165697   2.599  10.399  10.060
21286SOL    HW265698   2.596  10.446  10.204
21287SOL     OW65699  11.821   2.042   4.633
21287SOL    HW165700  11.790   2.131   4.652
21287SOL    HW265701  11.769   2.014   4.558
21288SOL     OW65702  12.538   8.862  11.465
21288SOL    HW165703  12.605   8.794  11.461
21288SOL    HW265704  12.510   8.874  11.374
21289SOL     OW65705   6.316   1.575   7.640
21289SOL    HW165706   6.248   1.628   7.684
21289SOL    HW265707   6.359   1.636   7.580
21290SOL     OW65708   1.167  11.845   6.770
21290SOL    HW165709   1.126  11.862   6.685
21290SOL    HW265710   1.219  11.766   6.757
21291SOL     OW65711  14.122  14.350   0.047
21291SOL    HW165712  14.216  14.345   0.030
21291SOL    HW265713  14.101  14.265   0.087
21292SOL     OW65714   9.725   0.393   9.055
21292SOL    HW165715   9.769   0.373   9.138
21292SOL    HW265716   9.795   0.386   8.989
21293SOL     OW65717   5.710   6.354   5.370
21293SOL    HW165718   5.722   6.412   5.294
21293SOL    HW265719   5.631   6.387   5.413
21294SOL     OW65720  10.192   5.164  11.628
21294SOL    HW165721  10.162   5.124  11.709
21294SOL    HW265722  10.283   5.134  11.618
21295SOL     OW65723  11.007  10.108   3.849
21295SOL    HW165724  10.973  10.193   3.876
21295SOL    HW265725  10.943  10.045   3.882
21296SOL     OW65726   6.431  11.824   0.131
21296SOL    HW165727   6.424  11.759   0.061
21296SOL    HW265728   6.524  11.826   0.152
21297SOL     OW65729   2.109   8.770  12.499
21297SOL    HW165730   2.022   8.806  12.519
21297SOL    HW265731   2.150   8.758  12.585
21298SOL     OW65732  12.151   2.561   3.522
21298SOL    HW165733  12.178   2.525   3.438
21298SOL    HW265734  12.126   2.652   3.503
21299SOL     OW65735  10.165  13.108   2.830
21299SOL    HW165736  10.215  13.068   2.759
21299SOL    HW265737  10.219  13.183   2.857
21300SOL     OW65738  12.298   7.248   6.432
21300SOL    HW165739  12.308   7.295   6.514
21300SOL    HW265740  12.214   7.203   6.439
21301SOL     OW65741  11.319   8.528   2.196
21301SOL    HW165742  11.233   8.496   2.171
21301SOL    HW265743  11.378   8.493   2.130
21302SOL     OW65744   1.471  13.150   0.563
21302SOL    HW165745   1.380  13.125   0.581
21302SOL    HW265746   1.509  13.072   0.521
21303SOL     OW65747   0.934   8.446  11.559
21303SOL    HW165748   0.953   8.364  11.514
21303SOL    HW265749   1.019   8.478  11.588
21304SOL     OW65750   3.307   6.242   6.811
21304SOL    HW165751   3.336   6.332   6.819
21304SOL    HW265752   3.254   6.241   6.732
21305SOL     OW65753   8.868  11.177   5.884
21305SOL    HW165754   8.859  11.169   5.789
21305SOL    HW265755   8.787  11.140   5.919
21306SOL     OW65756   0.405  11.967   7.368
21306SOL    HW165757   0.433  11.959   7.277
21306SOL    HW265758   0.471  11.920   7.419
21307SOL     OW65759  14.621   8.742   9.216
21307SOL    HW165760  14.649   8.650   9.212
21307SOL    HW265761  14.698   8.790   9.244
21308SOL     OW65762   4.539  13.086   0.696
21308SOL    HW165763   4.529  13.130   0.780
21308SOL    HW265764   4.558  12.995   0.718
21309SOL     OW65765   2.137  10.108  11.349
21309SOL    HW165766   2.210  10.097  11.409
21309SOL    HW265767   2.062  10.126  11.405
21310SOL     OW65768   9.869   4.135  10.708
21310SOL    HW165769   9.900   4.208  10.655
21310SOL    HW265770   9.885   4.058  10.653
21311SOL     OW65771   9.371  13.059   6.856
21311SOL    HW165772   9.325  12.975   6.851
21311SOL    HW265773   9.301  13.124   6.859
21312SOL     OW65774   0.008  11.783   9.325
21312SOL    HW165775   0.025  11.800   9.232
21312SOL    HW265776  14.793  11.756   9.327
21313SOL     OW65777   1.974   1.101   1.911
21313SOL    HW165778   1.993   1.014   1.947
21313SOL    HW265779   2.037   1.159   1.953
21314SOL     OW65780   0.617   5.947   4.497
21314SOL    HW165781   0.663   5.982   4.421
21314SOL    HW265782   0.674   5.876   4.529
21315SOL     OW65783   8.805  10.677  11.073
21315SOL    HW165784   8.871  10.641  11.015
21315SOL    HW265785   8.755  10.600  11.102
21316SOL     OW65786   7.455   8.341   5.714
21316SOL    HW165787   7.523   8.365   5.777
21316SOL    HW265788   7.469   8.248   5.698
21317SOL     OW65789  11.801   2.320   4.027
21317SOL    HW165790  11.860   2.382   4.072
21317SOL    HW265791  11.722   2.319   4.081
21318SOL     OW65792   7.028  12.070   0.011
21318SOL    HW165793   7.063  12.157   0.034
21318SOL    HW265794   7.006  12.031   0.096
21319SOL     OW65795   6.109  14.055  10.661
21319SOL    HW165796   6.147  13.967  10.653
21319SOL    HW265797   6.040  14.057  10.595
21320SOL     OW65798   8.206  12.840   2.963
21320SOL    HW165799   8.257  12.906   2.916
21320SOL    HW265800   8.227  12.757   2.920
21321SOL     OW65801   9.657   2.110   6.236
21321SOL    HW165802   9.656   2.087   6.143
21321SOL    HW265803   9.679   2.203   6.237
21322SOL     OW65804   2.741   7.977  11.570
21322SOL    HW165805   2.651   7.947  11.573
21322SOL    HW265806   2.749   8.036  11.645
21323SOL     OW65807   3.292   6.610   9.338
21323SOL    HW165808   3.283   6.540   9.274
21323SOL    HW265809   3.235   6.584   9.410
21324SOL     OW65810   9.104   0.585  13.865
21324SOL    HW165811   9.067   0.524  13.929
21324SOL    HW265812   9.158   0.530  13.809
21325SOL     OW65813   0.288  10.681  10.063
21325SOL    HW165814   0.227  10.744  10.024
21325SOL    HW265815   0.373  10.725  10.062
21326SOL     OW65816  12.301   2.182  12.255
21326SOL    HW165817  12.363   2.174  12.182
21326SOL    HW265818  12.241   2.108  12.243
21327SOL     OW65819  14.000  10.436   2.487
21327SOL    HW165820  13.923  10.419   2.541
21327SOL    HW265821  13.970  10.498   2.421
21328SOL     OW65822   6.070  13.765   9.330
21328SOL    HW165823   6.109  13.724   9.407
21328SOL    HW265824   5.997  13.708   9.306
21329SOL     OW65825  10.909   2.154  13.370
21329SOL    HW165826  10.877   2.231  13.418
21329SOL    HW265827  10.831   2.100  13.356
21330SOL     OW65828  12.048  10.398   9.576
21330SOL    HW165829  12.100  10.323   9.546
21330SOL    HW265830  12.088  10.474   9.533
21331SOL     OW65831   3.268   4.613   6.157
21331SOL    HW165832   3.276   4.693   6.104
21331SOL    HW265833   3.187   4.626   6.206
21332SOL     OW65834   4.411   1.709   8.929
21332SOL    HW165835   4.334   1.657   8.952
21332SOL    HW265836   4.456   1.656   8.863
21333SOL     OW65837   4.426   5.585   7.502
21333SOL    HW165838   4.409   5.660   7.444
21333SOL    HW265839   4.381   5.607   7.583
21334SOL     OW65840   2.854   2.271   4.174
21334SOL    HW165841   2.811   2.187   4.189
21334SOL    HW265842   2.782   2.334   4.174
21335SOL     OW65843  12.110   7.079  10.153
21335SOL    HW165844  12.032   7.024  10.156
21335SOL    HW265845  12.076   7.168  10.151
21336SOL     OW65846   8.596  12.234   8.024
21336SOL    HW165847   8.540  12.163   8.054
21336SOL    HW265848   8.595  12.298   8.095
21337SOL     OW65849   0.425  14.190   6.650
21337SOL    HW165850   0.369  14.127   6.604
21337SOL    HW265851   0.514  14.161   6.632
21338SOL     OW65852   0.331   0.484   5.112
21338SOL    HW165853   0.277   0.520   5.041
21338SOL    HW265854   0.333   0.390   5.095
21339SOL     OW65855  14.501  12.024  10.423
21339SOL    HW165856  14.529  11.960  10.488
21339SOL    HW265857  14.472  11.971  10.348
21340SOL     OW65858   0.678   9.335  12.072
21340SOL    HW165859   0.766   9.304  12.051
21340SOL    HW265860   0.620   9.267  12.040
21341SOL     OW65861   8.735   1.747   3.369
21341SOL    HW165862   8.724   1.709   3.457
21341SOL    HW265863   8.675   1.696   3.314
21342SOL     OW65864  10.073   9.482   6.452
21342SOL    HW165865  10.119   9.399   6.461
21342SOL    HW265866   9.988   9.467   6.492
21343SOL     OW65867   2.550  11.322   2.761
21343SOL    HW165868   2.485  11.251   2.766
21343SOL    HW265869   2.630  11.279   2.734
21344SOL     OW65870   2.095   0.991   7.358
21344SOL    HW165871   2.015   0.940   7.355
21344SOL    HW265872   2.141   0.970   7.276
21345SOL     OW65873  13.873  10.102  11.107
21345SOL    HW165874  13.886  10.037  11.176
21345SOL    HW265875  13.778  10.115  11.104
21346SOL     OW65876  10.745   6.101  12.407
21346SOL    HW165877  10.787   6.020  12.380
21346SOL    HW265878  10.651   6.083  12.399
21347SOL     OW65879   4.998  13.562  14.372
21347SOL    HW165880   5.016  13.512  14.292
21347SOL    HW265881   4.955  13.642  14.342
21348SOL     OW65882   3.064   5.661  12.495
21348SOL    HW165883   3.027   5.583  12.536
21348SOL    HW265884   3.127   5.627  12.431
21349SOL     OW65885   0.239   9.947   1.970
21349SOL    HW165886   0.234   9.991   1.885
21349SOL    HW265887   0.333   9.936   1.986
21350SOL     OW65888   0.674   6.830   2.210
21350SOL    HW165889   0.712   6.761   2.155
21350SOL    HW265890   0.748   6.864   2.260
21351SOL     OW65891  14.390   7.110   6.161
21351SOL    HW165892  14.360   7.038   6.106
21351SOL    HW265893  14.318   7.124   6.223
21352SOL     OW65894   5.143  11.657   3.432
21352SOL    HW165895   5.230  11.636   3.465
21352SOL    HW265896   5.084  11.597   3.478
21353SOL     OW65897   1.090   8.879   3.248
21353SOL    HW165898   1.135   8.825   3.183
21353SOL    HW265899   1.157   8.903   3.312
21354SOL     OW65900   9.011   8.352   1.260
21354SOL    HW165901   9.024   8.434   1.212
21354SOL    HW265902   8.930   8.367   1.309
21355SOL     OW65903   2.960  11.692   5.431
21355SOL    HW165904   2.935  11.661   5.344
21355SOL    HW265905   2.919  11.778   5.439
21356SOL     OW65906  11.987  12.497   3.200
21356SOL    HW165907  11.976  12.560   3.271
21356SOL    HW265908  12.053  12.536   3.143
21357SOL     OW65909  12.722  12.787   7.632
21357SOL    HW165910  12.720  12.809   7.725
21357SOL    HW265911  12.697  12.868   7.588
21358SOL     OW65912  13.368   2.238   2.944
21358SOL    HW165913  13.417   2.247   3.026
21358SOL    HW265914  13.381   2.322   2.900
21359SOL     OW65915   3.710   9.878  14.754
21359SOL    HW165916   3.768   9.889  14.830
21359SOL    HW265917   3.622   9.894  14.789
21360SOL     OW65918   2.173   2.667   3.207
21360SOL    HW165919   2.257   2.702   3.238
21360SOL    HW265920   2.108   2.728   3.241
21361SOL     OW65921  14.000   8.729   6.827
21361SOL    HW165922  13.932   8.662   6.827
21361SOL    HW265923  14.082   8.681   6.833
21362SOL     OW65924   7.358   6.288   6.670
21362SOL    HW165925   7.300   6.364   6.671
21362SOL    HW265926   7.442   6.323   6.640
21363SOL     OW65927   7.348   0.538   2.100
21363SOL    HW165928   7.363   0.499   2.187
21363SOL    HW265929   7.334   0.631   2.118
21364SOL     OW65930   4.180   0.193   5.960
21364SOL    HW165931   4.131   0.229   6.034
21364SOL    HW265932   4.242   0.261   5.936
21365SOL     OW65933   1.961  14.684   0.716
21365SOL    HW165934   1.907  14.637   0.652
21365SOL    HW265935   1.898  14.733   0.769
21366SOL     OW65936   6.598   1.962   1.729
21366SOL    HW165937   6.511   1.994   1.703
21366SOL    HW265938   6.647   1.959   1.647
21367SOL     OW65939   0.286  13.754   3.448
21367SOL    HW165940   0.336  13.703   3.384
21367SOL    HW265941   0.306  13.713   3.532
21368SOL     OW65942   6.371   3.281   0.590
21368SOL    HW165943   6.283   3.251   0.568
21368SOL    HW265944   6.366   3.376   0.586
21369SOL     OW65945   3.226   4.121   4.448
21369SOL    HW165946   3.141   4.157   4.476
21369SOL    HW265947   3.280   4.198   4.430
21370SOL     OW65948   1.488  10.328   2.092
21370SOL    HW165949   1.564  10.365   2.136
21370SOL    HW265950   1.414  10.377   2.127
21371SOL     OW65951   5.494  14.466   2.488
21371SOL    HW165952   5.501  14.562   2.486
21371SOL    HW265953   5.434  14.445   2.416
21372SOL     OW65954   5.107  11.012   2.068
21372SOL    HW165955   5.170  11.082   2.051
21372SOL    HW265956   5.043  11.020   1.997
21373SOL     OW65957   3.380  11.335  13.179
21373SOL    HW165958   3.300  11.345  13.127
21373SOL    HW265959   3.357  11.370  13.265
21374SOL     OW65960   0.046   5.170   3.657
21374SOL    HW165961   0.113   5.209   3.713
21374SOL    HW265962   0.042   5.079   3.685
21375SOL     OW65963   8.710   9.184   2.174
21375SOL    HW165964   8.669   9.264   2.139
21375SOL    HW265965   8.761   9.214   2.248
21376SOL     OW65966  12.991  14.363   3.555
21376SOL    HW165967  12.946  14.328   3.632
21376SOL    HW265968  13.052  14.427   3.591
21377SOL     OW65969   8.664  11.498   9.987
21377SOL    HW165970   8.628  11.527  10.071
21377SOL    HW265971   8.749  11.541   9.981
21378SOL     OW65972   2.149   4.405   7.487
21378SOL    HW165973   2.074   4.388   7.430
21378SOL    HW265974   2.156   4.326   7.541
21379SOL     OW65975   0.152  14.473   5.735
21379SOL    HW165976   0.241  14.440   5.721
21379SOL    HW265977   0.111  14.406   5.790
21380SOL     OW65978  13.746   1.523   8.316
21380SOL    HW165979  13.817   1.485   8.265
21380SOL    HW265980  13.684   1.451   8.329
21381SOL     OW65981  13.511   3.162   1.802
21381SOL    HW165982  13.450   3.105   1.848
21381SOL    HW265983  13.586   3.170   1.861
21382SOL     OW65984   0.049   1.097   4.620
21382SOL    HW165985   0.076   1.187   4.643
21382SOL    HW265986   0.041   1.099   4.525
21383SOL     OW65987  13.302  13.684  13.859
21383SOL    HW165988  13.287  13.637  13.941
21383SOL    HW265989  13.294  13.618  13.791
21384SOL     OW65990  13.601   7.419  13.650
21384SOL    HW165991  13.661   7.404  13.577
21384SOL    HW265992  13.515   7.396  13.615
21385SOL     OW65993  13.464   0.428   6.082
21385SOL    HW165994  13.532   0.493   6.099
21385SOL    HW265995  13.485   0.393   5.996
21386SOL     OW65996   8.178   0.969  11.654
21386SOL    HW165997   8.203   1.048  11.606
21386SOL    HW265998   8.222   0.977  11.738
21387SOL     OW65999  14.034   5.505   5.481
21387SOL    HW166000  14.013   5.589   5.522
21387SOL    HW266001  14.117   5.479   5.521
21388SOL     OW66002  10.038   6.691   1.727
21388SOL    HW166003  10.084   6.695   1.643
21388SOL    HW266004  10.052   6.601   1.757
21389SOL     OW66005   0.771  12.431  14.603
21389SOL    HW166006   0.755  12.423  14.697
21389SOL    HW266007   0.697  12.483  14.572
21390SOL     OW66008   0.277  12.520  10.009
21390SOL    HW166009   0.197  12.556   9.971
21390SOL    HW266010   0.247  12.453  10.071
21391SOL     OW66011   2.501   8.014   3.142
21391SOL    HW166012   2.596   8.010   3.157
21391SOL    HW266013   2.476   7.925   3.121
21392SOL     OW66014   7.046  14.193  14.747
21392SOL    HW166015   7.088  14.268  14.790
21392SOL    HW266016   6.952  14.206  14.762
21393SOL     OW66017  12.150   4.914  10.410
21393SOL    HW166018  12.244   4.929  10.417
21393SOL    HW266019  12.122   4.969  10.337
21394SOL     OW66020   2.193   1.979  14.243
21394SOL    HW166021   2.177   1.890  14.213
21394SOL    HW266022   2.266   1.971  14.304
21395SOL     OW66023  11.753   6.551   4.161
21395SOL    HW166024  11.808   6.581   4.233
21395SOL    HW266025  11.761   6.620   4.095
21396SOL     OW66026   4.495  14.083   6.674
21396SOL    HW166027   4.452  14.059   6.756
21396SOL    HW266028   4.423  14.112   6.617
21397SOL     OW66029   5.605  11.850   0.881
21397SOL    HW166030   5.676  11.811   0.829
21397SOL    HW266031   5.538  11.782   0.885
21398SOL     OW66032   7.447  10.435   6.096
21398SOL    HW166033   7.482  10.523   6.079
21398SOL    HW266034   7.452  10.424   6.191
21399SOL     OW66035  14.862   9.419   3.464
21399SOL    HW166036   0.018   9.410   3.374
21399SOL    HW266037  14.814   9.501   3.464
21400SOL     OW66038   7.705   9.310   2.828
21400SOL    HW166039   7.647   9.350   2.892
21400SOL    HW266040   7.679   9.218   2.826
21401SOL     OW66041   8.544   2.704  10.395
21401SOL    HW166042   8.455   2.721  10.426
21401SOL    HW266043   8.548   2.609  10.384
21402SOL     OW66044   1.469   4.676   1.970
21402SOL    HW166045   1.515   4.623   1.906
21402SOL    HW266046   1.446   4.756   1.923
21403SOL     OW66047   1.918  10.666   5.243
21403SOL    HW166048   2.004  10.624   5.231
21403SOL    HW266049   1.924  10.747   5.193
21404SOL     OW66050   1.152   5.233  14.092
21404SOL    HW166051   1.094   5.161  14.065
21404SOL    HW266052   1.226   5.189  14.135
21405SOL     OW66053   5.447   4.091   5.055
21405SOL    HW166054   5.434   4.065   5.146
21405SOL    HW266055   5.532   4.054   5.032
21406SOL     OW66056   6.191   0.681   2.183
21406SOL    HW166057   6.213   0.772   2.197
21406SOL    HW266058   6.275   0.637   2.168
21407SOL     OW66059   6.000   7.586  11.900
21407SOL    HW166060   5.991   7.605  11.993
21407SOL    HW266061   5.910   7.587  11.866
21408SOL     OW66062   9.998   6.617  10.000
21408SOL    HW166063  10.064   6.594   9.935
21408SOL    HW266064   9.980   6.710   9.984
21409SOL     OW66065   4.659  14.129  11.396
21409SOL    HW166066   4.734  14.187  11.380
21409SOL    HW266067   4.686  14.045  11.361
21410SOL     OW66068   4.621   1.069  14.720
21410SOL    HW166069   4.586   1.154  14.749
21410SOL    HW266070   4.641   1.082  14.627
21411SOL     OW66071   9.838   0.605  10.235
21411SOL    HW166072   9.829   0.590  10.329
21411SOL    HW266073   9.909   0.668  10.228
21412SOL     OW66074   4.825   7.971  11.985
21412SOL    HW166075   4.847   7.888  12.027
21412SOL    HW266076   4.872   7.970  11.902
21413SOL     OW66077   5.795   8.175  14.234
21413SOL    HW166078   5.838   8.170  14.319
21413SOL    HW266079   5.847   8.119  14.177
21414SOL     OW66080   5.683   3.115   7.275
21414SOL    HW166081   5.715   3.123   7.364
21414SOL    HW266082   5.752   3.153   7.221
21415SOL     OW66083   2.196   7.388   8.656
21415SOL    HW166084   2.105   7.413   8.668
21415SOL    HW266085   2.212   7.398   8.562
21416SOL     OW66086  14.342  12.536   4.719
21416SOL    HW166087  14.300  12.619   4.696
21416SOL    HW266088  14.420  12.561   4.768
21417SOL     OW66089   8.530  11.324   2.109
21417SOL    HW166090   8.615  11.306   2.148
21417SOL    HW266091   8.478  11.245   2.128
21418SOL     OW66092   5.177   4.334  11.681
21418SOL    HW166093   5.177   4.266  11.749
21418SOL    HW266094   5.267   4.335  11.648
21419SOL     OW66095  10.532   6.850  12.858
21419SOL    HW166096  10.528   6.888  12.946
21419SOL    HW266097  10.479   6.910  12.804
21420SOL     OW66098  13.202  11.424  13.002
21420SOL    HW166099  13.258  11.502  12.994
21420SOL    HW266100  13.168  11.428  13.091
21421SOL     OW66101   3.564   3.565  12.652
21421SOL    HW166102   3.506   3.633  12.685
21421SOL    HW266103   3.646   3.576  12.701
21422SOL     OW66104   6.871   0.242   3.237
21422SOL    HW166105   6.855   0.302   3.164
21422SOL    HW266106   6.926   0.173   3.200
21423SOL     OW66107  12.738   0.110  14.297
21423SOL    HW166108  12.653   0.066  14.301
21423SOL    HW266109  12.733   0.177  14.365
21424SOL     OW66110   6.508   8.422   0.263
21424SOL    HW166111   6.426   8.440   0.218
21424SOL    HW266112   6.531   8.504   0.306
21425SOL     OW66113   7.563   5.313   6.738
21425SOL    HW166114   7.654   5.319   6.766
21425SOL    HW266115   7.540   5.403   6.713
21426SOL     OW66116   6.406   7.627   1.942
21426SOL    HW166117   6.483   7.570   1.939
21426SOL    HW266118   6.372   7.617   2.031
21427SOL     OW66119   9.977   4.885  13.433
21427SOL    HW166120  10.068   4.914  13.448
21427SOL    HW266121   9.952   4.929  13.352
21428SOL     OW66122  10.562  14.451   9.982
21428SOL    HW166123  10.648  14.424   9.951
21428SOL    HW266124  10.542  14.389  10.053
21429SOL     OW66125  12.176  13.213  10.727
21429SOL    HW166126  12.153  13.123  10.748
21429SOL    HW266127  12.272  13.216  10.734
21430SOL     OW66128   7.679   5.674   4.062
21430SOL    HW166129   7.714   5.758   4.032
21430SOL    HW266130   7.632   5.639   3.987
21431SOL     OW66131  14.419   3.494   0.411
21431SOL    HW166132  14.352   3.549   0.371
21431SOL    HW266133  14.372   3.445   0.479
21432SOL     OW66134   9.723   1.897   7.817
21432SOL    HW166135   9.631   1.886   7.840
21432SOL    HW266136   9.771   1.866   7.894
21433SOL     OW66137   7.990   9.129   8.541
21433SOL    HW166138   7.935   9.195   8.583
21433SOL    HW266139   8.039   9.177   8.474
21434SOL     OW66140   0.293   0.885   3.958
21434SOL    HW166141   0.300   0.964   4.011
21434SOL    HW266142   0.330   0.910   3.873
21435SOL     OW66143   3.410   6.951  13.457
21435SOL    HW166144   3.466   7.012  13.408
21435SOL    HW266145   3.460   6.930  13.536
21436SOL     OW66146   4.174  12.631   6.563
21436SOL    HW166147   4.185  12.558   6.625
21436SOL    HW266148   4.193  12.593   6.478
21437SOL     OW66149   4.768  11.500   1.720
21437SOL    HW166150   4.701  11.435   1.738
21437SOL    HW266151   4.774  11.552   1.801
21438SOL     OW66152  14.542   6.106   8.551
21438SOL    HW166153  14.600   6.126   8.624
21438SOL    HW266154  14.581   6.028   8.510
21439SOL     OW66155  14.506  13.686   2.115
21439SOL    HW166156  14.567  13.726   2.177
21439SOL    HW266157  14.444  13.757   2.095
21440SOL     OW66158  13.325   3.039   6.614
21440SOL    HW166159  13.385   3.107   6.642
21440SOL    HW266160  13.363   3.004   6.534
21441SOL     OW66161   0.324   1.378   1.278
21441SOL    HW166162   0.349   1.372   1.186
21441SOL    HW266163   0.277   1.297   1.296
21442SOL     OW66164  11.285   6.342   2.319
21442SOL    HW166165  11.376   6.328   2.346
21442SOL    HW266166  11.285   6.322   2.225
21443SOL     OW66167   7.870   9.986  11.729
21443SOL    HW166168   7.802   9.927  11.695
21443SOL    HW266169   7.861   9.979  11.825
21444SOL     OW66170   8.286  13.454   2.865
21444SOL    HW166171   8.226  13.381   2.849
21444SOL    HW266172   8.268  13.517   2.795
21445SOL     OW66173   3.967   8.780   6.458
21445SOL    HW166174   3.946   8.771   6.551
21445SOL    HW266175   4.056   8.746   6.450
21446SOL     OW66176   3.426   6.461   7.455
21446SOL    HW166177   3.519   6.447   7.437
21446SOL    HW266178   3.410   6.418   7.539
21447SOL     OW66179   5.454   3.627   3.507
21447SOL    HW166180   5.494   3.622   3.594
21447SOL    HW266181   5.400   3.706   3.510
21448SOL     OW66182   1.264   2.027   5.217
21448SOL    HW166183   1.239   1.940   5.248
21448SOL    HW266184   1.335   2.011   5.155
21449SOL     OW66185  13.064   9.943   3.350
21449SOL    HW166186  13.142   9.977   3.306
21449SOL    HW266187  12.992   9.966   3.291
21450SOL     OW66188  13.596   6.002  11.163
21450SOL    HW166189  13.645   5.946  11.223
21450SOL    HW266190  13.658   6.069  11.136
21451SOL     OW66191  14.726  13.123   3.368
21451SOL    HW166192  14.817  13.118   3.398
21451SOL    HW266193  14.729  13.091   3.277
21452SOL     OW66194  12.757   6.681   6.132
21452SOL    HW166195  12.709   6.607   6.095
21452SOL    HW266196  12.784   6.651   6.219
21453SOL     OW66197   9.061  10.792  11.635
21453SOL    HW166198   9.063  10.700  11.663
21453SOL    HW266199   8.992  10.795  11.569
21454SOL     OW66200  11.440   1.750  14.354
21454SOL    HW166201  11.459   1.819  14.418
21454SOL    HW266202  11.439   1.794  14.270
21455SOL     OW66203   0.898   1.507   0.259
21455SOL    HW166204   0.850   1.431   0.294
21455SOL    HW266205   0.977   1.512   0.313
21456SOL     OW66206   6.976   7.748   4.777
21456SOL    HW166207   7.071   7.755   4.788
21456SOL    HW266208   6.950   7.676   4.834
21457SOL     OW66209   2.195   5.932   8.395
21457SOL    HW166210   2.130   6.001   8.384
21457SOL    HW266211   2.191   5.881   8.315
21458SOL     OW66212   0.090   4.590   3.578
21458SOL    HW166213  14.872   4.594   3.560
21458SOL    HW266214   0.097   4.603   3.672
21459SOL     OW66215   4.073   4.759  11.960
21459SOL    HW166216   3.978   4.772  11.960
21459SOL    HW266217   4.085   4.671  11.925
21460SOL     OW66218   7.307   7.963   9.685
21460SOL    HW166219   7.278   7.896   9.623
21460SOL    HW266220   7.295   8.045   9.638
21461SOL     OW66221   0.705   2.666   9.256
21461SOL    HW166222   0.772   2.598   9.252
21461SOL    HW266223   0.656   2.657   9.175
21462SOL     OW66224  11.929   8.338   4.625
21462SOL    HW166225  11.984   8.263   4.648
21462SOL    HW266226  11.908   8.379   4.708
21463SOL     OW66227   0.747   4.810  12.575
21463SOL    HW166228   0.734   4.716  12.561
21463SOL    HW266229   0.708   4.851  12.497
21464SOL     OW66230  10.903  12.373   3.756
21464SOL    HW166231  10.991  12.409   3.756
21464SOL    HW266232  10.865  12.401   3.672
21465SOL     OW66233  12.102   5.874  11.996
21465SOL    HW166234  12.098   5.783  11.968
21465SOL    HW266235  12.082   5.872  12.089
21466SOL     OW66236   1.823  13.220  12.909
21466SOL    HW166237   1.901  13.271  12.929
21466SOL    HW266238   1.846  13.131  12.933
21467SOL     OW66239   8.106   7.664   1.949
21467SOL    HW166240   8.102   7.736   1.885
21467SOL    HW266241   8.130   7.707   2.031
21468SOL     OW66242  11.269  10.056  10.529
21468SOL    HW166243  11.235  10.103  10.453
21468SOL    HW266244  11.304   9.974  10.494
21469SOL     OW66245   4.281   8.568  12.890
21469SOL    HW166246   4.223   8.500  12.923
21469SOL    HW266247   4.338   8.524  12.827
21470SOL     OW66248   8.623   4.167   1.570
21470SOL    HW166249   8.614   4.235   1.636
21470SOL    HW266250   8.692   4.110   1.603
21471SOL     OW66251  11.275   9.249   3.301
21471SOL    HW166252  11.308   9.303   3.228
21471SOL    HW266253  11.301   9.297   3.380
21472SOL     OW66254  11.882   3.831   5.928
21472SOL    HW166255  11.863   3.785   6.011
21472SOL    HW266256  11.806   3.812   5.873
21473SOL     OW66257   3.257   5.371   5.867
21473SOL    HW166258   3.235   5.406   5.781
21473SOL    HW266259   3.251   5.447   5.925
21474SOL     OW66260   3.922  10.621   1.833
21474SOL    HW166261   3.834  10.590   1.855
21474SOL    HW266262   3.907  10.694   1.772
21475SOL     OW66263   3.001  11.127   8.088
21475SOL    HW166264   3.063  11.083   8.029
21475SOL    HW266265   3.049  11.136   8.170
21476SOL     OW66266   8.799   7.755   8.797
21476SOL    HW166267   8.714   7.798   8.790
21476SOL    HW266268   8.780   7.662   8.798
21477SOL     OW66269  10.818   0.161   5.390
21477SOL    HW166270  10.875   0.219   5.340
21477SOL    HW266271  10.871   0.083   5.406
21478SOL     OW66272  13.777   0.491  10.919
21478SOL    HW166273  13.839   0.540  10.973
21478SOL    HW266274  13.821   0.482  10.834
21479SOL     OW66275   7.591  11.783   7.811
21479SOL    HW166276   7.634  11.854   7.860
21479SOL    HW266277   7.655  11.757   7.746
21480SOL     OW66278   6.741   7.915   2.978
21480SOL    HW166279   6.719   7.837   3.029
21480SOL    HW266280   6.691   7.904   2.896
21481SOL     OW66281   1.384   9.111  13.929
21481SOL    HW166282   1.360   9.069  14.012
21481SOL    HW266283   1.470   9.076  13.909
21482SOL     OW66284  13.454   3.838   5.689
21482SOL    HW166285  13.549   3.829   5.695
21482SOL    HW266286  13.435   3.820   5.597
21483SOL     OW66287  11.314   9.692   0.911
21483SOL    HW166288  11.331   9.775   0.866
21483SOL    HW266289  11.241   9.712   0.970
21484SOL     OW66290  14.019  11.766   6.235
21484SOL    HW166291  14.097  11.728   6.276
21484SOL    HW266292  13.966  11.796   6.309
21485SOL     OW66293   0.662   3.592   7.891
21485SOL    HW166294   0.623   3.519   7.940
21485SOL    HW266295   0.753   3.565   7.877
21486SOL     OW66296   3.836   3.830   7.929
21486SOL    HW166297   3.817   3.899   7.992
21486SOL    HW266298   3.884   3.873   7.859
21487SOL     OW66299  10.838   5.325   9.737
21487SOL    HW166300  10.918   5.281   9.711
21487SOL    HW266301  10.768   5.274   9.697
21488SOL     OW66302  14.625   5.344  12.271
21488SOL    HW166303  14.646   5.387  12.189
21488SOL    HW266304  14.532   5.363  12.285
21489SOL     OW66305   8.204   3.099   2.697
21489SOL    HW166306   8.155   3.022   2.724
21489SOL    HW266307   8.293   3.084   2.729
21490SOL     OW66308  12.213   2.487   7.758
21490SOL    HW166309  12.169   2.471   7.841
21490SOL    HW266310  12.174   2.425   7.697
21491SOL     OW66311   9.427   9.527   0.687
21491SOL    HW166312   9.403   9.530   0.595
21491SOL    HW266313   9.489   9.598   0.698
21492SOL     OW66314   6.774   7.195   1.036
21492SOL    HW166315   6.734   7.241   1.110
21492SOL    HW266316   6.705   7.193   0.970
21493SOL     OW66317   0.112   7.542   4.258
21493SOL    HW166318   0.138   7.620   4.208
21493SOL    HW266319   0.017   7.547   4.261
21494SOL     OW66320   6.904   1.916  10.290
21494SOL    HW166321   6.874   1.978  10.223
21494SOL    HW266322   6.904   1.831  10.246
21495SOL     OW66323   5.447   2.404   6.615
21495SOL    HW166324   5.515   2.463   6.583
21495SOL    HW266325   5.473   2.318   6.584
21496SOL     OW66326   3.400   0.069  12.608
21496SOL    HW166327   3.329   0.062  12.545
21496SOL    HW266328   3.360   0.046  12.692
21497SOL     OW66329  13.760   3.046  14.619
21497SOL    HW166330  13.831   3.109  14.630
21497SOL    HW266331  13.799   2.975  14.568
21498SOL     OW66332   6.424  14.085   6.725
21498SOL    HW166333   6.463  14.062   6.641
21498SOL    HW266334   6.377  14.007   6.752
21499SOL     OW66335  12.877   5.845  13.380
21499SOL    HW166336  12.819   5.915  13.349
21499SOL    HW266337  12.825   5.797  13.445
21500SOL     OW66338   3.599   8.570  12.503
21500SOL    HW166339   3.596   8.643  12.565
21500SOL    HW266340   3.509   8.536  12.502
21501SOL     OW66341  10.079   4.326   8.588
21501SOL    HW166342  10.044   4.238   8.601
21501SOL    HW266343  10.030   4.362   8.514
21502SOL     OW66344   7.757  12.306   4.453
21502SOL    HW166345   7.741  12.214   4.472
21502SOL    HW266346   7.842  12.307   4.410
21503SOL     OW66347  14.761  11.080   6.677
21503SOL    HW166348  14.798  11.154   6.628
21503SOL    HW266349  14.836  11.042   6.722
21504SOL     OW66350   1.432  13.498  14.255
21504SOL    HW166351   1.370  13.425  14.252
21504SOL    HW266352   1.431  13.525  14.347
21505SOL     OW66353   2.449   2.139  11.480
21505SOL    HW166354   2.458   2.185  11.564
21505SOL    HW266355   2.492   2.196  11.416
21506SOL     OW66356   8.981   0.806   2.824
21506SOL    HW166357   8.975   0.769   2.912
21506SOL    HW266358   9.001   0.731   2.768
21507SOL     OW66359   5.707  14.772   6.635
21507SOL    HW166360   5.674  14.689   6.602
21507SOL    HW266361   5.690  14.834   6.563
21508SOL     OW66362   5.146   3.734  14.485
21508SOL    HW166363   5.236   3.748  14.455
21508SOL    HW266364   5.120   3.818  14.523
21509SOL     OW66365   3.326   8.506  12.509
21509SOL    HW166366   3.294   8.513  12.599
21509SOL    HW266367   3.269   8.564  12.459
21510SOL     OW66368  13.902   2.270   7.707
21510SOL    HW166369  13.941   2.239   7.789
21510SOL    HW266370  13.977   2.296   7.653
21511SOL     OW66371  12.358   6.133   8.872
21511SOL    HW166372  12.392   6.045   8.886
21511SOL    HW266373  12.430   6.191   8.895
21512SOL     OW66374   1.825   4.536  12.575
21512SOL    HW166375   1.903   4.519  12.523
21512SOL    HW266376   1.858   4.574  12.656
21513SOL     OW66377   5.276  13.722   8.334
21513SOL    HW166378   5.238  13.772   8.262
21513SOL    HW266379   5.201  13.701   8.390
21514SOL     OW66380   0.280   8.004  13.944
21514SOL    HW166381   0.369   8.003  13.980
21514SOL    HW266382   0.259   7.911  13.931
21515SOL     OW66383   5.436   1.112   9.058
21515SOL    HW166384   5.360   1.139   9.007
21515SOL    HW266385   5.401   1.091   9.144
21516SOL     OW66386  12.698   5.764   8.006
21516SOL    HW166387  12.606   5.781   8.027
21516SOL    HW266388  12.722   5.833   7.944
21517SOL     OW66389   1.024   4.191   8.213
21517SOL    HW166390   0.965   4.126   8.176
21517SOL    HW266391   1.078   4.142   8.275
21518SOL     OW66392   7.946   9.641  10.132
21518SOL    HW166393   8.029   9.617  10.091
21518SOL    HW266394   7.894   9.676  10.060
21519SOL     OW66395   4.972  11.270  12.373
21519SOL    HW166396   5.062  11.247  12.398
21519SOL    HW266397   4.944  11.332  12.440
21520SOL     OW66398   4.223   3.832   8.178
21520SOL    HW166399   4.145   3.865   8.221
21520SOL    HW266400   4.205   3.842   8.084
21521SOL     OW66401   6.744   8.780   4.092
21521SOL    HW166402   6.767   8.730   4.170
21521SOL    HW266403   6.684   8.847   4.124
21522SOL     OW66404   4.192   2.843   4.164
21522SOL    HW166405   4.280   2.851   4.199
21522SOL    HW266406   4.136   2.884   4.230
21523SOL     OW66407   8.922   4.207   0.890
21523SOL    HW166408   8.925   4.302   0.901
21523SOL    HW266409   8.829   4.186   0.889
21524SOL     OW66410  10.981   0.975   3.200
21524SOL    HW166411  11.073   0.959   3.218
21524SOL    HW266412  10.965   1.065   3.229
21525SOL     OW66413  12.271   5.091   7.702
21525SOL    HW166414  12.203   5.156   7.715
21525SOL    HW266415  12.231   5.008   7.730
21526SOL     OW66416   7.002   8.557   7.431
21526SOL    HW166417   7.078   8.543   7.486
21526SOL    HW266418   6.946   8.616   7.481
21527SOL     OW66419  10.036  11.718   7.042
21527SOL    HW166420  10.008  11.791   6.986
21527SOL    HW266421   9.963  11.655   7.037
21528SOL     OW66422   2.234   0.028   7.904
21528SOL    HW166423   2.269  14.861   7.825
21528SOL    HW266424   2.289   0.106   7.915
21529SOL     OW66425   4.116  10.036  11.238
21529SOL    HW166426   4.040   9.993  11.200
21529SOL    HW266427   4.085  10.075  11.319
21530SOL     OW66428   5.107  11.130  11.186
21530SOL    HW166429   5.149  11.213  11.207
21530SOL    HW266430   5.127  11.073  11.260
21531SOL     OW66431   3.673   9.950  14.494
21531SOL    HW166432   3.698   9.923  14.582
21531SOL    HW266433   3.729  10.025  14.475
21532SOL     OW66434   2.206  11.821   5.702
21532SOL    HW166435   2.258  11.853   5.777
21532SOL    HW266436   2.167  11.739   5.733
21533SOL     OW66437   6.293   1.056   6.018
21533SOL    HW166438   6.256   1.053   5.930
21533SOL    HW266439   6.217   1.047   6.076
21534SOL     OW66440   8.440   5.008   7.524
21534SOL    HW166441   8.387   5.081   7.494
21534SOL    HW266442   8.377   4.938   7.542
21535SOL     OW66443   0.818   3.554   6.066
21535SOL    HW166444   0.865   3.476   6.095
21535SOL    HW266445   0.726   3.532   6.079
21536SOL     OW66446  12.258  13.490   7.409
21536SOL    HW166447  12.337  13.533   7.442
21536SOL    HW266448  12.212  13.459   7.487
21537SOL     OW66449  10.943   1.253  13.144
21537SOL    HW166450  10.946   1.186  13.213
21537SOL    HW266451  11.024   1.241  13.095
21538SOL     OW66452   8.862   9.596   5.195
21538SOL    HW166453   8.822   9.657   5.132
21538SOL    HW266454   8.912   9.652   5.254
21539SOL     OW66455   3.014  11.889   1.017
21539SOL    HW166456   3.038  11.981   1.025
21539SOL    HW266457   2.948  11.887   0.947
21540SOL     OW66458  14.673  10.786  12.696
21540SOL    HW166459  14.759  10.821  12.717
21540SOL    HW266460  14.629  10.856  12.648
21541SOL     OW66461   1.216  11.349  11.799
21541SOL    HW166462   1.265  11.305  11.729
21541SOL    HW266463   1.211  11.440  11.771
21542SOL     OW66464  13.851   1.499  12.268
21542SOL    HW166465  13.769   1.548  12.267
21542SOL    HW266466  13.840   1.433  12.200
21543SOL     OW66467   1.284   4.197   6.655
21543SOL    HW166468   1.222   4.138   6.611
21543SOL    HW266469   1.337   4.234   6.584
21544SOL     OW66470  10.261   8.049  10.772
21544SOL    HW166471  10.166   8.051  10.767
21544SOL    HW266472  10.288   8.138  10.746
21545SOL     OW66473   7.417  12.389   8.174
21545SOL    HW166474   7.400  12.337   8.096
21545SOL    HW266475   7.429  12.325   8.245
21546SOL     OW66476   8.384   6.452   6.921
21546SOL    HW166477   8.302   6.496   6.899
21546SOL    HW266478   8.419   6.421   6.837
21547SOL     OW66479   8.087   1.226   7.570
21547SOL    HW166480   8.063   1.134   7.580
21547SOL    HW266481   8.065   1.247   7.479
21548SOL     OW66482   8.554  12.628   7.692
21548SOL    HW166483   8.602  12.670   7.763
21548SOL    HW266484   8.540  12.538   7.723
21549SOL     OW66485  10.254   9.360   2.324
21549SOL    HW166486  10.332   9.405   2.357
21549SOL    HW266487  10.286   9.304   2.254
21550SOL     OW66488   2.069  14.311  12.610
21550SOL    HW166489   2.085  14.405  12.598
21550SOL    HW266490   2.154  14.270  12.593
21551SOL     OW66491   4.207   6.435  12.671
21551SOL    HW166492   4.259   6.355  12.682
21551SOL    HW266493   4.251   6.483  12.601
21552SOL     OW66494  10.834   3.704   6.133
21552SOL    HW166495  10.824   3.799   6.136
21552SOL    HW266496  10.870   3.681   6.218
21553SOL     OW66497  11.610   4.880   0.124
21553SOL    HW166498  11.578   4.903   0.211
21553SOL    HW266499  11.592   4.787   0.115
21554SOL     OW66500   5.171   9.505  10.620
21554SOL    HW166501   5.215   9.590  10.612
21554SOL    HW266502   5.235   9.442  10.587
21555SOL     OW66503  12.051  10.889   0.653
21555SOL    HW166504  12.135  10.869   0.695
21555SOL    HW266505  12.032  10.813   0.599
21556SOL     OW66506  14.758   6.956   5.716
21556SOL    HW166507  14.833   6.981   5.663
21556SOL    HW266508  14.704   7.035   5.721
21557SOL     OW66509   1.665   0.136   0.059
21557SOL    HW166510   1.571   0.145   0.076
21557SOL    HW266511   1.698   0.226   0.058
21558SOL     OW66512   3.193  12.869   5.947
21558SOL    HW166513   3.118  12.907   5.902
21558SOL    HW266514   3.217  12.793   5.894
21559SOL     OW66515   9.177  14.273   9.994
21559SOL    HW166516   9.117  14.254   9.922
21559SOL    HW266517   9.244  14.205   9.988
21560SOL     OW66518  10.145   2.733   0.090
21560SOL    HW166519  10.069   2.711   0.144
21560SOL    HW266520  10.160   2.655   0.037
21561SOL     OW66521  12.076   1.987  12.242
21561SOL    HW166522  12.099   1.932  12.318
21561SOL    HW266523  11.983   1.969  12.227
21562SOL     OW66524  11.488  11.110   5.840
21562SOL    HW166525  11.573  11.066   5.836
21562SOL    HW266526  11.436  11.057   5.901
21563SOL     OW66527   3.676   5.359   9.574
21563SOL    HW166528   3.619   5.427   9.538
21563SOL    HW266529   3.685   5.382   9.666
21564SOL     OW66530  11.223   6.137   6.266
21564SOL    HW166531  11.250   6.215   6.218
21564SOL    HW266532  11.290   6.072   6.247
21565SOL     OW66533   6.444   9.813   7.250
21565SOL    HW166534   6.434   9.827   7.156
21565SOL    HW266535   6.538   9.810   7.265
21566SOL     OW66536  11.762   6.575  10.535
21566SOL    HW166537  11.704   6.515  10.488
21566SOL    HW266538  11.799   6.631  10.466
21567SOL     OW66539  14.655   9.653   6.871
21567SOL    HW166540  14.664   9.559   6.855
21567SOL    HW266541  14.744   9.683   6.889
21568SOL     OW66542   1.844  10.892   2.193
21568SOL    HW166543   1.750  10.893   2.175
21568SOL    HW266544   1.883  10.847   2.117
21569SOL     OW66545   1.499   1.127   8.106
21569SOL    HW166546   1.408   1.156   8.096
21569SOL    HW266547   1.503   1.089   8.193
21570SOL     OW66548   9.382   2.572  12.062
21570SOL    HW166549   9.431   2.651  12.039
21570SOL    HW266550   9.448   2.502  12.063
21571SOL     OW66551  11.807  14.648   3.710
21571SOL    HW166552  11.754  14.626   3.787
21571SOL    HW266553  11.814  14.743   3.712
21572SOL     OW66554   4.932   1.885  13.707
21572SOL    HW166555   4.962   1.975  13.720
21572SOL    HW266556   4.988   1.833  13.764
21573SOL     OW66557   9.397  14.781   9.903
21573SOL    HW166558   9.435  14.812   9.820
21573SOL    HW266559   9.303  14.777   9.886
21574SOL     OW66560  10.029   8.271  10.439
21574SOL    HW166561  10.121   8.247  10.436
21574SOL    HW266562  10.027   8.363  10.412
21575SOL     OW66563   3.463  10.032   4.362
21575SOL    HW166564   3.437  10.003   4.449
21575SOL    HW266565   3.557  10.045   4.369
21576SOL     OW66566  14.123   3.901  14.405
21576SOL    HW166567  14.154   3.962  14.338
21576SOL    HW266568  14.117   3.954  14.484
21577SOL     OW66569  14.734   1.265   9.521
21577SOL    HW166570  14.743   1.281   9.427
21577SOL    HW266571  14.742   1.351   9.562
21578SOL     OW66572   3.901   7.782  11.174
21578SOL    HW166573   3.958   7.838  11.121
21578SOL    HW266574   3.816   7.786  11.130
21579SOL     OW66575   4.511  10.347   9.559
21579SOL    HW166576   4.590  10.399   9.574
21579SOL    HW266577   4.439  10.409   9.566
21580SOL     OW66578   5.879   1.548   1.322
21580SOL    HW166579   5.876   1.499   1.240
21580SOL    HW266580   5.913   1.634   1.298
21581SOL     OW66581   3.942   8.552  12.704
21581SOL    HW166582   3.979   8.621  12.760
21581SOL    HW266583   3.894   8.600  12.636
21582SOL     OW66584   3.083   8.943  12.652
21582SOL    HW166585   3.070   9.014  12.715
21582SOL    HW266586   3.133   8.984  12.581
21583SOL     OW66587   4.602   1.210  13.904
21583SOL    HW166588   4.677   1.261  13.937
21583SOL    HW266589   4.568   1.165  13.981
21584SOL     OW66590   1.897  12.220  14.795
21584SOL    HW166591   1.939  12.249  14.714
21584SOL    HW266592   1.959  12.243  14.864
21585SOL     OW66593   8.497   3.502  10.631
21585SOL    HW166594   8.416   3.487  10.679
21585SOL    HW266595   8.523   3.415  10.600
21586SOL     OW66596   0.260  14.786   9.365
21586SOL    HW166597   0.301  14.754   9.445
21586SOL    HW266598   0.300  14.871   9.350
21587SOL     OW66599  11.806   1.825   5.550
21587SOL    HW166600  11.791   1.773   5.471
21587SOL    HW266601  11.718   1.852   5.578
21588SOL     OW66602  13.995   8.784  11.269
21588SOL    HW166603  14.020   8.716  11.206
21588SOL    HW266604  14.067   8.847  11.266
21589SOL     OW66605  13.431   1.553  13.257
21589SOL    HW166606  13.348   1.569  13.212
21589SOL    HW266607  13.416   1.473  13.308
21590SOL     OW66608  11.457   9.684   8.500
21590SOL    HW166609  11.406   9.764   8.509
21590SOL    HW266610  11.411   9.633   8.433
21591SOL     OW66611   8.355   7.171   0.186
21591SOL    HW166612   8.354   7.122   0.268
21591SOL    HW266613   8.347   7.263   0.212
21592SOL     OW66614   7.065   5.705   5.114
21592SOL    HW166615   7.122   5.775   5.083
21592SOL    HW266616   7.021   5.742   5.191
21593SOL     OW66617  11.789   7.494   3.058
21593SOL    HW166618  11.777   7.531   3.145
21593SOL    HW266619  11.732   7.546   3.001
21594SOL     OW66620  14.306  13.409   4.731
21594SOL    HW166621  14.340  13.331   4.686
21594SOL    HW266622  14.256  13.455   4.664
21595SOL     OW66623  11.455   1.174  12.512
21595SOL    HW166624  11.447   1.243  12.446
21595SOL    HW266625  11.505   1.214  12.582
21596SOL     OW66626   6.142   4.973   8.742
21596SOL    HW166627   6.214   4.916   8.715
21596SOL    HW266628   6.139   5.042   8.676
21597SOL     OW66629   5.572  10.931  12.937
21597SOL    HW166630   5.522  10.853  12.958
21597SOL    HW266631   5.664  10.905  12.946
21598SOL     OW66632   6.863  12.935  13.116
21598SOL    HW166633   6.773  12.962  13.132
21598SOL    HW266634   6.862  12.899  13.028
21599SOL     OW66635  13.997   7.425  10.803
21599SOL    HW166636  13.969   7.387  10.887
21599SOL    HW266637  13.995   7.520  10.818
21600SOL     OW66638  13.784  12.970   9.085
21600SOL    HW166639  13.799  13.049   9.137
21600SOL    HW266640  13.689  12.962   9.081
21601SOL     OW66641   3.178   0.212  13.200
21601SOL    HW166642   3.121   0.136  13.202
21601SOL    HW266643   3.190   0.236  13.292
21602SOL     OW66644   0.879   0.474   3.904
21602SOL    HW166645   0.873   0.563   3.937
21602SOL    HW266646   0.957   0.437   3.946
21603SOL     OW66647   0.823  11.595   6.265
21603SOL    HW166648   0.858  11.510   6.240
21603SOL    HW266649   0.831  11.597   6.360
21604SOL     OW66650   1.968   3.474   1.777
21604SOL    HW166651   2.057   3.507   1.789
21604SOL    HW266652   1.954   3.479   1.682
21605SOL     OW66653   3.216  13.136   1.302
21605SOL    HW166654   3.149  13.070   1.284
21605SOL    HW266655   3.233  13.177   1.217
21606SOL     OW66656  13.720   8.666  11.768
21606SOL    HW166657  13.703   8.697  11.857
21606SOL    HW266658  13.790   8.723  11.736
21607SOL     OW66659   4.955   8.366  14.451
21607SOL    HW166660   4.976   8.438  14.511
21607SOL    HW266661   4.967   8.287  14.504
21608SOL     OW66662   2.851  10.245   2.881
21608SOL    HW166663   2.908  10.311   2.921
21608SOL    HW266664   2.883  10.236   2.792
21609SOL     OW66665   9.739   1.517   9.051
21609SOL    HW166666   9.741   1.609   9.078
21609SOL    HW266667   9.830   1.497   9.030
21610SOL     OW66668   2.547  13.386   1.266
21610SOL    HW166669   2.596  13.307   1.291
21610SOL    HW266670   2.547  13.385   1.171
21611SOL     OW66671   1.841  13.627  13.525
21611SOL    HW166672   1.820  13.645  13.617
21611SOL    HW266673   1.931  13.594  13.527
21612SOL     OW66674   5.824  12.386  11.271
21612SOL    HW166675   5.809  12.321  11.203
21612SOL    HW266676   5.915  12.414  11.257
21613SOL     OW66677   9.033   8.278  12.621
21613SOL    HW166678   8.980   8.354  12.600
21613SOL    HW266679   8.998   8.207  12.567
21614SOL     OW66680  12.924   0.333   3.939
21614SOL    HW166681  12.945   0.395   3.869
21614SOL    HW266682  12.981   0.258   3.923
21615SOL     OW66683   8.693   7.969   7.464
21615SOL    HW166684   8.668   8.011   7.381
21615SOL    HW266685   8.713   8.042   7.522
21616SOL     OW66686   2.329  10.910   6.724
21616SOL    HW166687   2.273  10.949   6.657
21616SOL    HW266688   2.324  10.816   6.709
21617SOL     OW66689  11.918   6.442   8.440
21617SOL    HW166690  12.004   6.424   8.478
21617SOL    HW266691  11.859   6.446   8.516
21618SOL     OW66692  12.591   2.517  10.232
21618SOL    HW166693  12.544   2.556  10.158
21618SOL    HW266694  12.673   2.567  10.237
21619SOL     OW66695   9.454  12.542   2.138
21619SOL    HW166696   9.506  12.496   2.072
21619SOL    HW266697   9.368  12.500   2.134
21620SOL     OW66698   1.493   9.418  11.445
21620SOL    HW166699   1.574   9.457  11.478
21620SOL    HW266700   1.491   9.331  11.483
21621SOL     OW66701   5.991  11.557   0.617
21621SOL    HW166702   5.982  11.650   0.637
21621SOL    HW266703   5.970  11.513   0.700
21622SOL     OW66704  13.562  12.041   8.164
21622SOL    HW166705  13.472  12.052   8.196
21622SOL    HW266706  13.554  11.979   8.092
21623SOL     OW66707  12.467   6.220   4.075
21623SOL    HW166708  12.479   6.131   4.042
21623SOL    HW266709  12.463   6.210   4.170
21624SOL     OW66710  13.356   2.216   6.879
21624SOL    HW166711  13.446   2.195   6.905
21624SOL    HW266712  13.316   2.250   6.959
21625SOL     OW66713   0.496  13.521   0.170
21625SOL    HW166714   0.522  13.499   0.259
21625SOL    HW266715   0.402  13.541   0.176
21626SOL     OW66716   0.054  13.879   8.487
21626SOL    HW166717   0.065  13.842   8.574
21626SOL    HW266718   0.053  13.803   8.429
21627SOL     OW66719   6.124  12.006   7.051
21627SOL    HW166720   6.128  11.925   7.102
21627SOL    HW266721   6.185  11.992   6.979
21628SOL     OW66722   3.282   2.231   6.026
21628SOL    HW166723   3.355   2.223   6.088
21628SOL    HW266724   3.245   2.143   6.022
21629SOL     OW66725   9.485   7.565   4.224
21629SOL    HW166726   9.483   7.502   4.151
21629SOL    HW266727   9.408   7.543   4.277
21630SOL     OW66728   4.666   8.718   1.249
21630SOL    HW166729   4.753   8.755   1.232
21630SOL    HW266730   4.670   8.629   1.214
21631SOL     OW66731   1.789  12.572   7.894
21631SOL    HW166732   1.848  12.648   7.885
21631SOL    HW266733   1.833  12.516   7.958
21632SOL     OW66734   8.552   0.368   4.144
21632SOL    HW166735   8.488   0.327   4.202
21632SOL    HW266736   8.522   0.458   4.135
21633SOL     OW66737   0.869   0.179  10.770
21633SOL    HW166738   0.949   0.198  10.819
21633SOL    HW266739   0.806   0.154  10.838
21634SOL     OW66740   2.231   6.819  11.989
21634SOL    HW166741   2.195   6.890  12.042
21634SOL    HW266742   2.154   6.771  11.958
21635SOL     OW66743   0.793   4.179   0.397
21635SOL    HW166744   0.844   4.189   0.317
21635SOL    HW266745   0.722   4.120   0.373
21636SOL     OW66746   2.928   1.551   4.012
21636SOL    HW166747   2.871   1.607   4.064
21636SOL    HW266748   2.870   1.513   3.946
21637SOL     OW66749   7.138   0.184   8.855
21637SOL    HW166750   7.054   0.229   8.861
21637SOL    HW266751   7.192   0.225   8.922
21638SOL     OW66752  12.499   6.822   7.414
21638SOL    HW166753  12.588   6.824   7.448
21638SOL    HW266754  12.502   6.760   7.341
21639SOL     OW66755   6.579   1.298  12.526
21639SOL    HW166756   6.554   1.363  12.590
21639SOL    HW266757   6.496   1.259  12.497
21640SOL     OW66758   4.346   1.306   8.387
21640SOL    HW166759   4.351   1.399   8.368
21640SOL    HW266760   4.348   1.301   8.482
21641SOL     OW66761   7.336   9.110  11.663
21641SOL    HW166762   7.306   9.185  11.715
21641SOL    HW266763   7.256   9.064  11.639
21642SOL     OW66764  13.372  10.342   2.423
21642SOL    HW166765  13.418  10.266   2.459
21642SOL    HW266766  13.331  10.385   2.498
21643SOL     OW66767   6.023   8.131   9.301
21643SOL    HW166768   5.953   8.069   9.321
21643SOL    HW266769   6.068   8.143   9.385
21644SOL     OW66770   4.765   9.987   8.492
21644SOL    HW166771   4.674   9.984   8.519
21644SOL    HW266772   4.781   9.901   8.452
21645SOL     OW66773   0.440   2.519   9.685
21645SOL    HW166774   0.524   2.473   9.675
21645SOL    HW266775   0.403   2.520   9.597
21646SOL     OW66776   2.130  13.475   3.982
21646SOL    HW166777   2.092  13.559   4.007
21646SOL    HW266778   2.109  13.466   3.889
21647SOL     OW66779   1.494  12.663   3.043
21647SOL    HW166780   1.564  12.601   3.021
21647SOL    HW266781   1.478  12.711   2.961
21648SOL     OW66782   7.530  12.147   5.077
21648SOL    HW166783   7.582  12.213   5.033
21648SOL    HW266784   7.544  12.164   5.170
21649SOL     OW66785  11.133   5.193   0.441
21649SOL    HW166786  11.207   5.183   0.501
21649SOL    HW266787  11.058   5.160   0.491
21650SOL     OW66788   2.966   1.760  14.770
21650SOL    HW166789   2.912   1.839  14.758
21650SOL    HW266790   3.024   1.781  14.842
21651SOL     OW66791  14.795   1.820   6.201
21651SOL    HW166792  14.711   1.856   6.172
21651SOL    HW266793  14.855   1.839   6.129
21652SOL     OW66794   7.550   7.778  13.034
21652SOL    HW166795   7.470   7.789  13.086
21652SOL    HW266796   7.555   7.857  12.980
21653SOL     OW66797   0.267   1.400   4.014
21653SOL    HW166798   0.338   1.379   4.074
21653SOL    HW266799   0.303   1.468   3.957
21654SOL     OW66800  10.265   7.510  12.427
21654SOL    HW166801  10.187   7.473  12.386
21654SOL    HW266802  10.312   7.552  12.355
21655SOL     OW66803   3.533   8.318   4.735
21655SOL    HW166804   3.520   8.228   4.705
21655SOL    HW266805   3.449   8.361   4.720
21656SOL     OW66806   6.438   9.125  14.627
21656SOL    HW166807   6.507   9.095  14.567
21656SOL    HW266808   6.357   9.099  14.584
21657SOL     OW66809   3.119   8.950  12.032
21657SOL    HW166810   3.127   9.009  11.957
21657SOL    HW266811   3.058   8.882  12.003
21658SOL     OW66812   6.220   6.320  10.883
21658SOL    HW166813   6.234   6.365  10.800
21658SOL    HW266814   6.158   6.250  10.862
21659SOL     OW66815   2.285  11.698  10.831
21659SOL    HW166816   2.301  11.609  10.799
21659SOL    HW266817   2.189  11.707  10.830
21660SOL     OW66818   1.116   1.646   7.407
21660SOL    HW166819   1.165   1.691   7.476
21660SOL    HW266820   1.169   1.569   7.388
21661SOL     OW66821   9.773  10.376  11.475
21661SOL    HW166822   9.738  10.366  11.564
21661SOL    HW266823   9.723  10.448  11.437
21662SOL     OW66824   9.446   5.154  10.982
21662SOL    HW166825   9.486   5.236  10.955
21662SOL    HW266826   9.468   5.147  11.075
21663SOL     OW66827   2.769  14.438   7.965
21663SOL    HW166828   2.692  14.381   7.970
21663SOL    HW266829   2.808  14.433   8.052
21664SOL     OW66830   9.687   7.692   4.618
21664SOL    HW166831   9.721   7.639   4.690
21664SOL    HW266832   9.591   7.685   4.626
21665SOL     OW66833   3.338   5.947  12.234
21665SOL    HW166834   3.251   5.909  12.236
21665SOL    HW266835   3.349   5.985  12.322
21666SOL     OW66836  13.211  10.232   8.512
21666SOL    HW166837  13.175  10.174   8.579
21666SOL    HW266838  13.194  10.186   8.429
21667SOL     OW66839   2.483   5.404  10.267
21667SOL    HW166840   2.410   5.346  10.249
21667SOL    HW266841   2.557   5.366  10.219
21668SOL     OW66842  11.672  14.580   7.794
21668SOL    HW166843  11.717  14.505   7.754
21668SOL    HW266844  11.686  14.652   7.732
21669SOL     OW66845   8.537   2.437   8.665
21669SOL    HW166846   8.509   2.484   8.587
21669SOL    HW266847   8.553   2.506   8.730
21670SOL     OW66848   9.588  10.479  14.328
21670SOL    HW166849   9.531  10.538  14.278
21670SOL    HW266850   9.587  10.514  14.417
21671SOL     OW66851   2.802   3.597   9.999
21671SOL    HW166852   2.868   3.601  10.068
21671SOL    HW266853   2.732   3.543  10.035
21672SOL     OW66854   3.030   8.136  10.052
21672SOL    HW166855   3.096   8.084  10.099
21672SOL    HW266856   3.004   8.080   9.979
21673SOL     OW66857   1.351   5.481   0.580
21673SOL    HW166858   1.315   5.413   0.635
21673SOL    HW266859   1.347   5.445   0.491
21674SOL     OW66860   1.841   7.509   9.475
21674SOL    HW166861   1.844   7.513   9.380
21674SOL    HW266862   1.895   7.432   9.497
21675SOL     OW66863  11.538   8.206  10.174
21675SOL    HW166864  11.583   8.263  10.112
21675SOL    HW266865  11.584   8.222  10.257
21676SOL     OW66866   4.720   5.147   3.016
21676SOL    HW166867   4.815   5.149   3.009
21676SOL    HW266868   4.702   5.074   3.075
21677SOL     OW66869   7.507   6.411  10.279
21677SOL    HW166870   7.446   6.452  10.217
21677SOL    HW266871   7.534   6.481  10.337
21678SOL     OW66872   3.595   5.330   2.085
21678SOL    HW166873   3.687   5.337   2.110
21678SOL    HW266874   3.597   5.291   1.997
21679SOL     OW66875  10.047   2.651   0.608
21679SOL    HW166876  10.073   2.697   0.527
21679SOL    HW266877  10.094   2.568   0.604
21680SOL     OW66878   7.123  11.375   2.071
21680SOL    HW166879   7.041  11.372   2.118
21680SOL    HW266880   7.168  11.294   2.095
21681SOL     OW66881   9.880  10.274   9.099
21681SOL    HW166882   9.840  10.347   9.051
21681SOL    HW266883   9.805  10.222   9.129
21682SOL     OW66884   9.368   0.431   1.710
21682SOL    HW166885   9.418   0.452   1.789
21682SOL    HW266886   9.394   0.498   1.647
21683SOL     OW66887   3.991   5.340   7.057
21683SOL    HW166888   4.001   5.409   7.123
21683SOL    HW266889   3.966   5.386   6.977
21684SOL     OW66890   0.625   1.897   9.982
21684SOL    HW166891   0.541   1.875  10.023
21684SOL    HW266892   0.671   1.950  10.048
21685SOL     OW66893  11.724  12.559  10.888
21685SOL    HW166894  11.741  12.527  10.799
21685SOL    HW266895  11.807  12.598  10.916
21686SOL     OW66896   8.828  11.037   6.703
21686SOL    HW166897   8.781  11.034   6.787
21686SOL    HW266898   8.771  11.086   6.645
21687SOL     OW66899  11.482   8.464   4.727
21687SOL    HW166900  11.534   8.438   4.651
21687SOL    HW266901  11.545   8.509   4.784
21688SOL     OW66902   9.802  10.304  14.714
21688SOL    HW166903   9.869  10.254  14.761
21688SOL    HW266904   9.768  10.244  14.648
21689SOL     OW66905   7.881  12.046   0.371
21689SOL    HW166906   7.874  12.127   0.421
21689SOL    HW266907   7.928  11.986   0.429
21690SOL     OW66908   5.026   7.948   7.612
21690SOL    HW166909   4.983   7.987   7.689
21690SOL    HW266910   5.047   8.023   7.556
21691SOL     OW66911   8.483  13.173   6.988
21691SOL    HW166912   8.416  13.113   6.956
21691SOL    HW266913   8.527  13.126   7.059
21692SOL     OW66914   6.809  14.012   2.797
21692SOL    HW166915   6.721  13.977   2.784
21692SOL    HW266916   6.825  14.066   2.720
21693SOL     OW66917   9.308  14.549  10.930
21693SOL    HW166918   9.355  14.466  10.934
21693SOL    HW266919   9.216  14.525  10.930
21694SOL     OW66920   0.319   7.617  14.626
21694SOL    HW166921   0.307   7.587  14.716
21694SOL    HW266922   0.230   7.625  14.591
21695SOL     OW66923   6.558  12.768  13.874
21695SOL    HW166924   6.549  12.682  13.833
21695SOL    HW266925   6.591  12.749  13.962
21696SOL     OW66926   5.819  13.604   0.512
21696SOL    HW166927   5.893  13.590   0.571
21696SOL    HW266928   5.837  13.546   0.437
21697SOL     OW66929   3.786  12.285   7.271
21697SOL    HW166930   3.831  12.233   7.337
21697SOL    HW266931   3.811  12.245   7.187
21698SOL     OW66932  14.487   0.643   6.117
21698SOL    HW166933  14.516   0.558   6.151
21698SOL    HW266934  14.471   0.695   6.195
21699SOL     OW66935   5.291  12.915   3.054
21699SOL    HW166936   5.230  12.985   3.080
21699SOL    HW266937   5.248  12.835   3.083
21700SOL     OW66938  14.233  13.096   8.367
21700SOL    HW166939  14.267  13.039   8.299
21700SOL    HW266940  14.162  13.046   8.408
21701SOL     OW66941  10.857   8.514   1.695
21701SOL    HW166942  10.823   8.576   1.631
21701SOL    HW266943  10.826   8.429   1.665
21702SOL     OW66944   1.138  13.479  14.567
21702SOL    HW166945   1.058  13.483  14.620
21702SOL    HW266946   1.165  13.571  14.558
21703SOL     OW66947   8.740  11.089   6.964
21703SOL    HW166948   8.674  11.028   6.998
21703SOL    HW266949   8.711  11.175   6.995
21704SOL     OW66950  12.961   6.264   5.982
21704SOL    HW166951  13.020   6.305   5.919
21704SOL    HW266952  12.879   6.251   5.934
21705SOL     OW66953   4.307   9.994   8.634
21705SOL    HW166954   4.216  10.020   8.616
21705SOL    HW266955   4.326  10.030   8.720
21706SOL     OW66956  14.279   5.898   2.723
21706SOL    HW166957  14.359   5.949   2.715
21706SOL    HW266958  14.212   5.952   2.681
21707SOL     OW66959   7.052  11.137  10.627
21707SOL    HW166960   7.138  11.170  10.654
21707SOL    HW266961   6.989  11.200  10.663
21708SOL     OW66962   6.765   3.693   1.507
21708SOL    HW166963   6.691   3.639   1.535
21708SOL    HW266964   6.725   3.775   1.479
21709SOL     OW66965  10.490  11.831   8.237
21709SOL    HW166966  10.535  11.915   8.232
21709SOL    HW266967  10.481  11.814   8.331
21710SOL     OW66968   3.800   6.980  13.738
21710SOL    HW166969   3.757   6.925  13.673
21710SOL    HW266970   3.758   6.956  13.821
21711SOL     OW66971   6.685   1.620   7.309
21711SOL    HW166972   6.665   1.709   7.280
21711SOL    HW266973   6.600   1.576   7.309
21712SOL     OW66974  10.424   0.964   5.416
21712SOL    HW166975  10.484   0.978   5.343
21712SOL    HW266976  10.397   1.052   5.443
21713SOL     OW66977   7.800   9.525  10.661
21713SOL    HW166978   7.741   9.460  10.697
21713SOL    HW266979   7.851   9.477  10.595
21714SOL     OW66980   7.756  11.556   2.684
21714SOL    HW166981   7.778  11.516   2.600
21714SOL    HW266982   7.840  11.576   2.724
21715SOL     OW66983   6.129   4.327   9.453
21715SOL    HW166984   6.165   4.239   9.455
21715SOL    HW266985   6.159   4.368   9.534
21716SOL     OW66986   6.034   2.700   8.458
21716SOL    HW166987   6.124   2.712   8.427
21716SOL    HW266988   6.042   2.643   8.534
21717SOL     OW66989   2.049   9.041   5.424
21717SOL    HW166990   2.086   9.096   5.356
21717SOL    HW266991   2.087   8.955   5.408
21718SOL     OW66992   7.653   6.805   6.335
21718SOL    HW166993   7.694   6.772   6.255
21718SOL    HW266994   7.559   6.797   6.319
21719SOL     OW66995   2.814  11.954   5.338
21719SOL    HW166996   2.873  12.007   5.285
21719SOL    HW266997   2.776  11.891   5.275
21720SOL     OW66998   9.759   7.558   2.936
21720SOL    HW166999   9.817   7.621   2.978
21720SOL    HW267000   9.703   7.611   2.879
21721SOL     OW67001   9.980   0.188   9.480
21721SOL    HW167002   9.947   0.149   9.560
21721SOL    HW267003  10.013   0.274   9.507
21722SOL     OW67004  13.657   3.221   4.790
21722SOL    HW167005  13.610   3.299   4.763
21722SOL    HW267006  13.628   3.153   4.730
21723SOL     OW67007  14.552  13.578  11.681
21723SOL    HW167008  14.639  13.547  11.707
21723SOL    HW267009  14.532  13.648  11.742
21724SOL     OW67010   4.360   4.796   9.279
21724SOL    HW167011   4.361   4.701   9.291
21724SOL    HW267012   4.305   4.810   9.202
21725SOL     OW67013  12.795  11.972   5.522
21725SOL    HW167014  12.786  11.879   5.499
21725SOL    HW267015  12.842  12.010   5.449
21726SOL     OW67016  11.513   7.137  12.897
21726SOL    HW167017  11.514   7.123  12.992
21726SOL    HW267018  11.605   7.142  12.873
21727SOL     OW67019   5.034   2.102   5.633
21727SOL    HW167020   4.972   2.171   5.608
21727SOL    HW267021   4.979   2.033   5.671
21728SOL     OW67022  13.352   1.718   8.706
21728SOL    HW167023  13.344   1.724   8.611
21728SOL    HW267024  13.291   1.649   8.731
21729SOL     OW67025  14.579   4.456   2.835
21729SOL    HW167026  14.539   4.427   2.753
21729SOL    HW267027  14.574   4.552   2.832
21730SOL     OW67028   2.238   5.136   9.535
21730SOL    HW167029   2.284   5.110   9.614
21730SOL    HW267030   2.151   5.161   9.564
21731SOL     OW67031   2.049   3.830  14.062
21731SOL    HW167032   2.005   3.909  14.031
21731SOL    HW267033   2.106   3.860  14.133
21732SOL     OW67034   1.934   6.645   3.452
21732SOL    HW167035   1.886   6.627   3.371
21732SOL    HW267036   1.931   6.563   3.501
21733SOL     OW67037   5.927   5.067  14.217
21733SOL    HW167038   5.870   4.992  14.232
21733SOL    HW267039   5.882   5.140  14.260
21734SOL     OW67040  12.133  14.228   5.384
21734SOL    HW167041  12.086  14.145   5.385
21734SOL    HW267042  12.069  14.290   5.348
21735SOL     OW67043   8.398  14.349   2.090
21735SOL    HW167044   8.354  14.325   2.172
21735SOL    HW267045   8.490  14.329   2.106
21736SOL     OW67046   9.755   8.684   5.185
21736SOL    HW167047   9.795   8.757   5.232
21736SOL    HW267048   9.676   8.664   5.235
21737SOL     OW67049   4.873  12.305  12.722
21737SOL    HW167050   4.843  12.220  12.754
21737SOL    HW267051   4.944  12.284  12.662
21738SOL     OW67052   6.919   4.757   5.459
21738SOL    HW167053   6.897   4.698   5.532
21738SOL    HW267054   6.873   4.719   5.384
21739SOL     OW67055   8.566   1.028  10.618
21739SOL    HW167056   8.491   0.973  10.593
21739SOL    HW267057   8.603   0.984  10.694
21740SOL     OW67058   8.544   6.092   0.231
21740SOL    HW167059   8.501   6.109   0.314
21740SOL    HW267060   8.556   6.178   0.191
21741SOL     OW67061   4.171   5.608   5.223
21741SOL    HW167062   4.260   5.642   5.218
21741SOL    HW267063   4.181   5.513   5.220
21742SOL     OW67064   4.193   8.165  14.066
21742SOL    HW167065   4.171   8.230  14.133
21742SOL    HW267066   4.154   8.199  13.986
21743SOL     OW67067   6.560   8.504  10.302
21743SOL    HW167068   6.507   8.425  10.297
21743SOL    HW267069   6.636   8.485  10.247
21744SOL     OW67070  12.207  11.165  12.336
21744SOL    HW167071  12.198  11.071  12.320
21744SOL    HW267072  12.129  11.204  12.297
21745SOL     OW67073   9.668  12.614   2.819
21745SOL    HW167074   9.626  12.700   2.827
21745SOL    HW267075   9.752  12.632   2.778
21746SOL     OW67076   7.329   8.853   3.526
21746SOL    HW167077   7.405   8.858   3.584
21746SOL    HW267078   7.259   8.820   3.582
21747SOL     OW67079   9.771   0.651   0.167
21747SOL    HW167080   9.727   0.591   0.227
21747SOL    HW267081   9.843   0.688   0.218
21748SOL     OW67082   1.716  14.540   4.843
21748SOL    HW167083   1.760  14.605   4.898
21748SOL    HW267084   1.673  14.482   4.906
21749SOL     OW67085  12.794   9.795  14.399
21749SOL    HW167086  12.860   9.832  14.340
21749SOL    HW267087  12.778   9.864  14.464
21750SOL     OW67088  12.933  11.778   3.972
21750SOL    HW167089  13.028  11.769   3.971
21750SOL    HW267090  12.901  11.704   3.921
21751SOL     OW67091   0.663  11.327   6.534
21751SOL    HW167092   0.743  11.314   6.483
21751SOL    HW267093   0.674  11.271   6.611
21752SOL     OW67094   0.512  11.291  13.278
21752SOL    HW167095   0.585  11.264  13.222
21752SOL    HW267096   0.552  11.337  13.351
21753SOL     OW67097  14.852  13.747   1.935
21753SOL    HW167098   0.039  13.698   1.987
21753SOL    HW267099   0.028  13.798   1.874
21754SOL     OW67100   0.356  10.059   0.762
21754SOL    HW167101   0.436  10.065   0.709
21754SOL    HW267102   0.294  10.014   0.705
21755SOL     OW67103   9.871  14.226   3.775
21755SOL    HW167104   9.779  14.242   3.755
21755SOL    HW267105   9.918  14.297   3.731
21756SOL     OW67106   5.003   8.348  13.340
21756SOL    HW167107   5.051   8.425  13.310
21756SOL    HW267108   5.046   8.323  13.422
21757SOL     OW67109   8.775   3.165   1.815
21757SOL    HW167110   8.824   3.245   1.796
21757SOL    HW267111   8.821   3.126   1.889
21758SOL     OW67112   5.538   9.818  12.669
21758SOL    HW167113   5.471   9.751  12.684
21758SOL    HW267114   5.593   9.781  12.600
21759SOL     OW67115   2.710   7.197  11.969
21759SOL    HW167116   2.704   7.102  11.985
21759SOL    HW267117   2.785   7.206  11.910
21760SOL     OW67118   4.259   6.849   7.364
21760SOL    HW167119   4.313   6.911   7.413
21760SOL    HW267120   4.300   6.846   7.277
21761SOL     OW67121   1.036  13.794  11.066
21761SOL    HW167122   1.081  13.711  11.049
21761SOL    HW267123   0.944  13.769  11.075
21762SOL     OW67124  11.987   6.484   5.306
21762SOL    HW167125  12.033   6.442   5.234
21762SOL    HW267126  11.899   6.502   5.271
21763SOL     OW67127   4.065   9.152  12.319
21763SOL    HW167128   4.012   9.202  12.258
21763SOL    HW267129   4.112   9.089  12.264
21764SOL     OW67130   3.519   8.239   7.703
21764SOL    HW167131   3.555   8.203   7.622
21764SOL    HW267132   3.486   8.162   7.750
21765SOL     OW67133   0.335  11.378  10.170
21765SOL    HW167134   0.426  11.408  10.169
21765SOL    HW267135   0.284  11.454  10.143
21766SOL     OW67136  13.158   3.901   6.414
21766SOL    HW167137  13.179   3.846   6.489
21766SOL    HW267138  13.205   3.983   6.431
21767SOL     OW67139   1.923  10.429   2.970
21767SOL    HW167140   1.860  10.361   2.947
21767SOL    HW267141   1.912  10.496   2.903
21768SOL     OW67142  14.574   3.010   9.927
21768SOL    HW167143  14.619   3.087   9.961
21768SOL    HW267144  14.577   2.947   9.999
21769SOL     OW67145  10.635   5.392   4.506
21769SOL    HW167146  10.672   5.336   4.438
21769SOL    HW267147  10.555   5.347   4.533
21770SOL     OW67148   3.323  13.739   7.399
21770SOL    HW167149   3.242  13.733   7.451
21770SOL    HW267150   3.392  13.714   7.460
21771SOL     OW67151   7.829  12.541  14.217
21771SOL    HW167152   7.815  12.447  14.218
21771SOL    HW267153   7.742  12.579  14.232
21772SOL     OW67154  12.504   1.366  10.245
21772SOL    HW167155  12.488   1.300  10.177
21772SOL    HW267156  12.533   1.315  10.320
21773SOL     OW67157   5.148   4.497  12.006
21773SOL    HW167158   5.177   4.406  12.010
21773SOL    HW267159   5.073   4.497  11.947
21774SOL     OW67160  12.006   9.366   1.354
21774SOL    HW167161  12.083   9.402   1.398
21774SOL    HW267162  12.013   9.401   1.265
21775SOL     OW67163   9.750   6.765   1.762
21775SOL    HW167164   9.705   6.711   1.827
21775SOL    HW267165   9.839   6.731   1.760
21776SOL     OW67166  14.070  10.025  10.515
21776SOL    HW167167  14.019   9.959  10.561
21776SOL    HW267168  14.019  10.105  10.522
21777SOL     OW67169   2.930   4.574  10.605
21777SOL    HW167170   2.912   4.480  10.607
21777SOL    HW267171   2.994   4.584  10.535
21778SOL     OW67172   0.288   8.734  14.337
21778SOL    HW167173   0.345   8.657  14.345
21778SOL    HW267174   0.272   8.742  14.243
21779SOL     OW67175  13.455   5.151  11.717
21779SOL    HW167176  13.365   5.182  11.724
21779SOL    HW267177  13.505   5.211  11.772
21780SOL     OW67178   5.221   4.005   6.665
21780SOL    HW167179   5.193   4.038   6.750
21780SOL    HW267180   5.239   3.912   6.679
21781SOL     OW67181  13.417   8.812   6.653
21781SOL    HW167182  13.325   8.800   6.629
21781SOL    HW267183  13.417   8.818   6.748
21782SOL     OW67184   8.237   8.316   0.045
21782SOL    HW167185   8.250   8.312   0.140
21782SOL    HW267186   8.311   8.268   0.008
21783SOL     OW67187  10.041   3.666   6.187
21783SOL    HW167188  10.019   3.596   6.125
21783SOL    HW267189  10.107   3.627   6.244
21784SOL     OW67190   6.301   7.023   0.458
21784SOL    HW167191   6.310   7.080   0.382
21784SOL    HW267192   6.315   6.934   0.424
21785SOL     OW67193  10.409  11.083   7.486
21785SOL    HW167194  10.496  11.072   7.524
21785SOL    HW267195  10.349  11.063   7.557
21786SOL     OW67196   9.386   9.041   2.445
21786SOL    HW167197   9.453   9.108   2.434
21786SOL    HW267198   9.426   8.976   2.503
21787SOL     OW67199   8.792  13.521   0.985
21787SOL    HW167200   8.797  13.605   1.029
21787SOL    HW267201   8.880  13.507   0.949
21788SOL     OW67202   2.215   7.981   7.853
21788SOL    HW167203   2.255   7.911   7.800
21788SOL    HW267204   2.283   8.008   7.913
21789SOL     OW67205   5.619   3.896  12.986
21789SOL    HW167206   5.656   3.827  13.042
21789SOL    HW267207   5.525   3.894  13.004
21790SOL     OW67208   6.051   2.137   5.571
21790SOL    HW167209   6.001   2.061   5.542
21790SOL    HW267210   6.094   2.169   5.491
21791SOL     OW67211  10.229   3.523  12.899
21791SOL    HW167212  10.141   3.561  12.910
21791SOL    HW267213  10.289   3.595  12.921
21792SOL     OW67214   8.050   9.941  12.525
21792SOL    HW167215   7.956   9.924  12.532
21792SOL    HW267216   8.090   9.876  12.583
21793SOL     OW67217   8.343   2.864   8.279
21793SOL    HW167218   8.439   2.863   8.282
21793SOL    HW267219   8.319   2.955   8.296
21794SOL     OW67220   8.970  12.184   7.216
21794SOL    HW167221   9.065  12.183   7.209
21794SOL    HW267222   8.940  12.140   7.136
21795SOL     OW67223   9.775   4.523  13.309
21795SOL    HW167224   9.869   4.543  13.313
21795SOL    HW267225   9.762   4.487  13.221
21796SOL     OW67226   9.036   5.552  10.469
21796SOL    HW167227   8.954   5.596  10.489
21796SOL    HW267228   9.073   5.602  10.396
21797SOL     OW67229   1.143   9.726  14.338
21797SOL    HW167230   1.079   9.792  14.364
21797SOL    HW267231   1.141   9.661  14.409
21798SOL     OW67232  14.698   8.387   4.259
21798SOL    HW167233  14.736   8.472   4.241
21798SOL    HW267234  14.629   8.376   4.194
21799SOL     OW67235   4.801  10.771   9.220
21799SOL    HW167236   4.895  10.789   9.229
21799SOL    HW267237   4.778  10.806   9.134
21800SOL     OW67238   0.820   1.196  14.087
21800SOL    HW167239   0.803   1.241  14.004
21800SOL    HW267240   0.738   1.204  14.136
21801SOL     OW67241   0.333  11.786   1.598
21801SOL    HW167242   0.269  11.830   1.654
21801SOL    HW267243   0.354  11.851   1.531
21802SOL     OW67244   6.536   2.997   6.221
21802SOL    HW167245   6.621   2.969   6.255
21802SOL    HW267246   6.535   3.092   6.234
21803SOL     OW67247  11.720  12.338   3.761
21803SOL    HW167248  11.701  12.408   3.698
21803SOL    HW267249  11.804  12.363   3.800
21804SOL     OW67250   6.975  11.378   6.961
21804SOL    HW167251   6.959  11.452   6.902
21804SOL    HW267252   6.983  11.302   6.904
21805SOL     OW67253   1.187   2.077  13.832
21805SOL    HW167254   1.257   2.110  13.776
21805SOL    HW267255   1.107   2.116  13.796
21806SOL     OW67256   5.167   3.158   9.706
21806SOL    HW167257   5.108   3.085   9.687
21806SOL    HW267258   5.109   3.230   9.730
21807SOL     OW67259   4.505   6.154   0.834
21807SOL    HW167260   4.538   6.222   0.893
21807SOL    HW267261   4.434   6.195   0.786
21808SOL     OW67262   3.430   8.636   8.463
21808SOL    HW167263   3.489   8.617   8.390
21808SOL    HW267264   3.356   8.680   8.423
21809SOL     OW67265  12.385   8.530   7.676
21809SOL    HW167266  12.428   8.466   7.732
21809SOL    HW267267  12.421   8.614   7.703
21810SOL     OW67268   9.860  10.366   5.107
21810SOL    HW167269   9.841  10.392   5.197
21810SOL    HW267270   9.906  10.441   5.070
21811SOL     OW67271  13.088   0.142   4.928
21811SOL    HW167272  13.095   0.235   4.950
21811SOL    HW267273  13.041   0.140   4.845
21812SOL     OW67274   5.010  12.445   2.925
21812SOL    HW167275   4.942  12.511   2.930
21812SOL    HW267276   5.067  12.474   2.855
21813SOL     OW67277   9.157  12.503   4.139
21813SOL    HW167278   9.169  12.441   4.211
21813SOL    HW267279   9.172  12.589   4.178
21814SOL     OW67280   3.240   7.176   5.118
21814SOL    HW167281   3.290   7.095   5.120
21814SOL    HW267282   3.202   7.184   5.206
21815SOL     OW67283   3.896   4.368  12.726
21815SOL    HW167284   3.831   4.369  12.796
21815SOL    HW267285   3.897   4.278  12.695
21816SOL     OW67286   4.957  11.885  12.423
21816SOL    HW167287   4.987  11.842  12.503
21816SOL    HW267288   4.862  11.891  12.432
21817SOL     OW67289   1.926   8.119   6.525
21817SOL    HW167290   1.903   8.130   6.618
21817SOL    HW267291   1.961   8.205   6.499
21818SOL     OW67292   2.329   1.446  10.113
21818SOL    HW167293   2.256   1.385  10.103
21818SOL    HW267294   2.404   1.390  10.134
21819SOL     OW67295  13.273   0.918  14.073
21819SOL    HW167296  13.269   0.906  14.168
21819SOL    HW267297  13.366   0.931  14.054
21820SOL     OW67298   7.027  11.668  12.724
21820SOL    HW167299   7.062  11.755  12.704
21820SOL    HW267300   7.096  11.625  12.775
21821SOL     OW67301   2.147   0.909   5.317
21821SOL    HW167302   2.131   0.848   5.245
21821SOL    HW267303   2.226   0.874   5.360
21822SOL     OW67304  13.138   5.211  14.116
21822SOL    HW167305  13.230   5.238  14.124
21822SOL    HW267306  13.131   5.135  14.174
21823SOL     OW67307   5.868   2.878   3.779
21823SOL    HW167308   5.915   2.808   3.734
21823SOL    HW267309   5.861   2.948   3.713
21824SOL     OW67310   8.936  12.228   3.840
21824SOL    HW167311   8.867  12.294   3.848
21824SOL    HW267312   9.011  12.267   3.885
21825SOL     OW67313   2.932  10.638   4.292
21825SOL    HW167314   2.983  10.716   4.316
21825SOL    HW267315   2.998  10.574   4.265
21826SOL     OW67316   6.621  13.949   3.327
21826SOL    HW167317   6.683  14.006   3.282
21826SOL    HW267318   6.650  13.950   3.419
21827SOL     OW67319   3.794  14.461   2.981
21827SOL    HW167320   3.750  14.482   3.063
21827SOL    HW267321   3.887  14.467   3.002
21828SOL     OW67322   1.796  13.371  10.299
21828SOL    HW167323   1.833  13.459  10.312
21828SOL    HW267324   1.732  13.382  10.229
21829SOL     OW67325   4.343   6.947   3.017
21829SOL    HW167326   4.356   6.852   3.011
21829SOL    HW267327   4.417   6.978   3.069
21830SOL     OW67328   4.564  11.776   3.526
21830SOL    HW167329   4.624  11.816   3.463
21830SOL    HW267330   4.597  11.805   3.611
21831SOL     OW67331   6.074   9.303  12.428
21831SOL    HW167332   6.021   9.296  12.349
21831SOL    HW267333   6.093   9.396  12.437
21832SOL     OW67334  11.567   8.935   2.365
21832SOL    HW167335  11.613   8.870   2.311
21832SOL    HW267336  11.483   8.895   2.384
21833SOL     OW67337   7.115  10.085   1.642
21833SOL    HW167338   7.034  10.091   1.592
21833SOL    HW267339   7.116   9.997   1.677
21834SOL     OW67340   9.704   9.657   4.063
21834SOL    HW167341   9.640   9.729   4.063
21834SOL    HW267342   9.786   9.698   4.036
21835SOL     OW67343  14.213   0.280   9.938
21835SOL    HW167344  14.255   0.340   9.876
21835SOL    HW267345  14.217   0.195   9.894
21836SOL     OW67346  12.304   7.208   2.117
21836SOL    HW167347  12.353   7.215   2.035
21836SOL    HW267348  12.249   7.131   2.105
21837SOL     OW67349  12.656   7.551  14.162
21837SOL    HW167350  12.572   7.590  14.136
21837SOL    HW267351  12.694   7.518  14.081
21838SOL     OW67352   6.869   5.740  14.832
21838SOL    HW167353   6.926   5.695  14.770
21838SOL    HW267354   6.781   5.705  14.814
21839SOL     OW67355   7.378   8.532   3.116
21839SOL    HW167356   7.433   8.600   3.077
21839SOL    HW267357   7.361   8.563   3.205
21840SOL     OW67358   8.341   2.292  14.213
21840SOL    HW167359   8.253   2.325  14.228
21840SOL    HW267360   8.348   2.283  14.118
21841SOL     OW67361   0.270  10.671   2.482
21841SOL    HW167362   0.322  10.711   2.413
21841SOL    HW267363   0.300  10.713   2.563
21842SOL     OW67364  12.533  12.263   7.301
21842SOL    HW167365  12.511  12.322   7.229
21842SOL    HW267366  12.508  12.176   7.271
21843SOL     OW67367  12.861   7.148   8.850
21843SOL    HW167368  12.845   7.073   8.792
21843SOL    HW267369  12.821   7.222   8.805
21844SOL     OW67370   7.482  14.385   0.562
21844SOL    HW167371   7.460  14.293   0.574
21844SOL    HW267372   7.575  14.385   0.540
21845SOL     OW67373   5.391   0.832   4.610
21845SOL    HW167374   5.484   0.817   4.596
21845SOL    HW267375   5.348   0.783   4.540
21846SOL     OW67376  13.178   1.743  13.036
21846SOL    HW167377  13.188   1.803  12.962
21846SOL    HW267378  13.106   1.779  13.088
21847SOL     OW67379   0.841  12.392   7.112
21847SOL    HW167380   0.865  12.306   7.147
21847SOL    HW267381   0.900  12.405   7.038
21848SOL     OW67382   0.646   6.430   0.921
21848SOL    HW167383   0.651   6.507   0.865
21848SOL    HW267384   0.714   6.444   0.987
21849SOL     OW67385  13.149   2.024   0.298
21849SOL    HW167386  13.165   2.039   0.205
21849SOL    HW267387  13.069   2.073   0.317
21850SOL     OW67388   9.405  14.417   2.273
21850SOL    HW167389   9.412  14.367   2.354
21850SOL    HW267390   9.459  14.495   2.288
21851SOL     OW67391  14.170   9.871   7.032
21851SOL    HW167392  14.174   9.849   6.939
21851SOL    HW267393  14.141   9.791   7.074
21852SOL     OW67394   4.331  11.465  10.554
21852SOL    HW167395   4.242  11.498  10.565
21852SOL    HW267396   4.387  11.535  10.584
21853SOL     OW67397  10.880   6.476   0.698
21853SOL    HW167398  10.906   6.415   0.629
21853SOL    HW267399  10.962   6.511   0.732
21854SOL     OW67400   1.361   1.523   6.249
21854SOL    HW167401   1.382   1.458   6.182
21854SOL    HW267402   1.420   1.596   6.230
21855SOL     OW67403   8.618  11.897   3.931
21855SOL    HW167404   8.537  11.888   3.882
21855SOL    HW267405   8.590  11.915   4.021
21856SOL     OW67406  12.884   5.755  14.124
21856SOL    HW167407  12.900   5.746  14.218
21856SOL    HW267408  12.967   5.731  14.083
21857SOL     OW67409  12.418   5.069  14.603
21857SOL    HW167410  12.351   5.077  14.535
21857SOL    HW267411  12.497   5.108  14.565
21858SOL     OW67412  12.626   9.676   1.294
21858SOL    HW167413  12.591   9.588   1.280
21858SOL    HW267414  12.610   9.722   1.212
21859SOL     OW67415   5.561  12.637   5.937
21859SOL    HW167416   5.602  12.592   5.864
21859SOL    HW267417   5.493  12.578   5.968
21860SOL     OW67418   0.889  12.107   4.777
21860SOL    HW167419   0.840  12.027   4.797
21860SOL    HW267420   0.952  12.081   4.709
21861SOL     OW67421  10.833  11.846   5.076
21861SOL    HW167422  10.863  11.792   5.003
21861SOL    HW267423  10.747  11.810   5.097
21862SOL     OW67424  14.080   9.461   5.046
21862SOL    HW167425  14.165   9.504   5.042
21862SOL    HW267426  14.020   9.530   5.074
21863SOL     OW67427   6.608   7.195  11.391
21863SOL    HW167428   6.519   7.188  11.425
21863SOL    HW267429   6.630   7.288  11.397
21864SOL     OW67430   0.281  10.042  10.420
21864SOL    HW167431   0.362  10.081  10.387
21864SOL    HW267432   0.304  10.011  10.508
21865SOL     OW67433   0.108   5.755   0.252
21865SOL    HW167434   0.172   5.743   0.322
21865SOL    HW267435   0.031   5.706   0.281
21866SOL     OW67436   5.987   2.501   7.059
21866SOL    HW167437   6.000   2.409   7.084
21866SOL    HW267438   5.894   2.517   7.071
21867SOL     OW67439   1.413   1.007  12.115
21867SOL    HW167440   1.405   1.102  12.102
21867SOL    HW267441   1.347   0.986  12.181
21868SOL     OW67442   3.808   3.383  13.403
21868SOL    HW167443   3.773   3.421  13.483
21868SOL    HW267444   3.839   3.458  13.353
21869SOL     OW67445   5.619   2.479  10.026
21869SOL    HW167446   5.623   2.389   9.994
21869SOL    HW267447   5.631   2.471  10.121
21870SOL     OW67448   7.022   8.217   6.121
21870SOL    HW167449   6.980   8.263   6.048
21870SOL    HW267450   6.964   8.231   6.195
21871SOL     OW67451   8.269   8.484   6.585
21871SOL    HW167452   8.260   8.406   6.640
21871SOL    HW267453   8.205   8.473   6.516
21872SOL     OW67454   4.942  13.765   2.623
21872SOL    HW167455   5.000  13.690   2.611
21872SOL    HW267456   4.985  13.818   2.690
21873SOL     OW67457   6.109   1.959   6.802
21873SOL    HW167458   6.024   2.000   6.786
21873SOL    HW267459   6.122   1.967   6.896
21874SOL     OW67460   4.503  13.753   5.990
21874SOL    HW167461   4.544  13.724   5.908
21874SOL    HW267462   4.423  13.797   5.963
21875SOL     OW67463  14.106   3.101   6.123
21875SOL    HW167464  14.099   3.195   6.105
21875SOL    HW267465  14.043   3.061   6.063
21876SOL     OW67466  13.966   3.117   5.868
21876SOL    HW167467  14.005   3.192   5.824
21876SOL    HW267468  13.879   3.108   5.829
21877SOL     OW67469   2.234   4.238   9.915
21877SOL    HW167470   2.163   4.214   9.855
21877SOL    HW267471   2.308   4.257   9.858
21878SOL     OW67472   2.039   1.014  11.150
21878SOL    HW167473   1.951   1.019  11.189
21878SOL    HW267474   2.058   1.105  11.125
21879SOL     OW67475   0.332  11.575  13.221
21879SOL    HW167476   0.315  11.544  13.310
21879SOL    HW267477   0.244  11.587  13.183
21880SOL     OW67478   9.970   5.163   4.767
21880SOL    HW167479   9.976   5.080   4.814
21880SOL    HW267480   9.933   5.224   4.831
21881SOL     OW67481   1.851   6.413  13.207
21881SOL    HW167482   1.931   6.448  13.246
21881SOL    HW267483   1.789   6.408  13.279
21882SOL     OW67484   7.174   5.338   8.653
21882SOL    HW167485   7.154   5.247   8.634
21882SOL    HW267486   7.108   5.366   8.716
21883SOL     OW67487   4.402  11.795   4.625
21883SOL    HW167488   4.465  11.865   4.642
21883SOL    HW267489   4.333  11.837   4.572
21884SOL     OW67490   2.893   6.448  11.372
21884SOL    HW167491   2.951   6.375  11.394
21884SOL    HW267492   2.953   6.521  11.355
21885SOL     OW67493   3.844   0.930   3.711
21885SOL    HW167494   3.800   0.858   3.757
21885SOL    HW267495   3.930   0.935   3.753
21886SOL     OW67496   5.264   2.240   8.954
21886SOL    HW167497   5.229   2.166   8.905
21886SOL    HW267498   5.359   2.234   8.942
21887SOL     OW67499   5.426   4.012   5.321
21887SOL    HW167500   5.510   3.993   5.363
21887SOL    HW267501   5.367   4.032   5.393
21888SOL     OW67502  13.300   7.503   3.795
21888SOL    HW167503  13.240   7.489   3.722
21888SOL    HW267504  13.346   7.584   3.773
21889SOL     OW67505   4.771   8.772   0.954
21889SOL    HW167506   4.791   8.841   0.891
21889SOL    HW267507   4.813   8.801   1.035
21890SOL     OW67508   7.859   6.710  11.425
21890SOL    HW167509   7.939   6.756  11.451
21890SOL    HW267510   7.798   6.725  11.498
21891SOL     OW67511   0.303  11.293   9.541
21891SOL    HW167512   0.247  11.365   9.513
21891SOL    HW267513   0.258  11.255   9.617
21892SOL     OW67514   4.348  11.707  11.693
21892SOL    HW167515   4.305  11.652  11.759
21892SOL    HW267516   4.276  11.744  11.642
21893SOL     OW67517   8.608   2.487  10.150
21893SOL    HW167518   8.616   2.409  10.095
21893SOL    HW267519   8.578   2.453  10.235
21894SOL     OW67520   0.296   6.631  12.964
21894SOL    HW167521   0.205   6.618  12.937
21894SOL    HW267522   0.294   6.710  13.018
21895SOL     OW67523   2.575   8.460   4.595
21895SOL    HW167524   2.588   8.530   4.659
21895SOL    HW267525   2.663   8.436   4.567
21896SOL     OW67526   8.221   8.751   9.173
21896SOL    HW167527   8.243   8.833   9.128
21896SOL    HW267528   8.295   8.736   9.232
21897SOL     OW67529  14.690   5.025   4.651
21897SOL    HW167530  14.605   5.001   4.616
21897SOL    HW267531  14.676   5.033   4.745
21898SOL     OW67532   9.097   1.304   1.598
21898SOL    HW167533   9.169   1.274   1.654
21898SOL    HW267534   9.018   1.271   1.642
21899SOL     OW67535   9.030  10.860   5.524
21899SOL    HW167536   9.032  10.956   5.518
21899SOL    HW267537   9.082  10.840   5.602
21900SOL     OW67538   0.343  12.986  12.488
21900SOL    HW167539   0.272  12.999  12.425
21900SOL    HW267540   0.381  13.073  12.500
21901SOL     OW67541   2.009  11.604  12.198
21901SOL    HW167542   1.949  11.540  12.237
21901SOL    HW267543   2.092  11.557  12.192
21902SOL     OW67544   3.724   9.546   8.735
21902SOL    HW167545   3.703   9.459   8.701
21902SOL    HW267546   3.733   9.601   8.657
21903SOL     OW67547   2.037   1.094   3.250
21903SOL    HW167548   2.072   1.006   3.262
21903SOL    HW267549   2.107   1.143   3.207
21904SOL     OW67550   4.680   1.629   8.273
21904SOL    HW167551   4.670   1.602   8.182
21904SOL    HW267552   4.718   1.717   8.268
21905SOL     OW67553   8.314   0.526   1.681
21905SOL    HW167554   8.302   0.449   1.627
21905SOL    HW267555   8.386   0.574   1.639
21906SOL     OW67556  13.597   7.662  11.531
21906SOL    HW167557  13.649   7.666  11.612
21906SOL    HW267558  13.638   7.593  11.480
21907SOL     OW67559   8.704  14.616   6.815
21907SOL    HW167560   8.677  14.707   6.809
21907SOL    HW267561   8.658  14.572   6.743
21908SOL     OW67562   4.120  12.624   4.625
21908SOL    HW167563   4.065  12.696   4.655
21908SOL    HW267564   4.194  12.623   4.686
21909SOL     OW67565   8.669   7.935   1.263
21909SOL    HW167566   8.628   7.971   1.342
21909SOL    HW267567   8.763   7.935   1.282
21910SOL     OW67568  12.252   5.245   2.452
21910SOL    HW167569  12.314   5.175   2.430
21910SOL    HW267570  12.305   5.311   2.496
21911SOL     OW67571   0.852   0.769   1.767
21911SOL    HW167572   0.863   0.718   1.847
21911SOL    HW267573   0.766   0.746   1.735
21912SOL     OW67574  14.446  10.560   8.874
21912SOL    HW167575  14.357  10.595   8.883
21912SOL    HW267576  14.503  10.632   8.901
21913SOL     OW67577   3.090  11.516   4.733
21913SOL    HW167578   3.166  11.483   4.685
21913SOL    HW267579   3.106  11.610   4.743
21914SOL     OW67580  13.849  10.389   9.890
21914SOL    HW167581  13.838  10.383   9.985
21914SOL    HW267582  13.918  10.454   9.878
21915SOL     OW67583  12.604  13.167   8.881
21915SOL    HW167584  12.660  13.240   8.908
21915SOL    HW267585  12.663  13.093   8.873
21916SOL     OW67586  12.401  13.886   0.466
21916SOL    HW167587  12.445  13.943   0.529
21916SOL    HW267588  12.469  13.859   0.405
21917SOL     OW67589   4.455  14.335   7.767
21917SOL    HW167590   4.498  14.295   7.692
21917SOL    HW267591   4.498  14.297   7.843
21918SOL     OW67592  11.502   7.001   4.494
21918SOL    HW167593  11.565   6.929   4.492
21918SOL    HW267594  11.483   7.014   4.586
21919SOL     OW67595   3.929   0.347   2.433
21919SOL    HW167596   3.941   0.301   2.349
21919SOL    HW267597   3.924   0.439   2.409
21920SOL     OW67598   6.971  10.655   3.948
21920SOL    HW167599   7.022  10.736   3.957
21920SOL    HW267600   6.883  10.686   3.927
21921SOL     OW67601   3.475   8.663   0.353
21921SOL    HW167602   3.477   8.597   0.283
21921SOL    HW267603   3.421   8.733   0.318
21922SOL     OW67604   6.153   4.753   1.728
21922SOL    HW167605   6.223   4.807   1.765
21922SOL    HW267606   6.196   4.671   1.703
21923SOL     OW67607   0.707   1.138  10.288
21923SOL    HW167608   0.760   1.115  10.211
21923SOL    HW267609   0.649   1.208  10.257
21924SOL     OW67610  13.036   3.503  11.400
21924SOL    HW167611  13.040   3.547  11.316
21924SOL    HW267612  12.997   3.567  11.459
21925SOL     OW67613  10.497  10.258   4.416
21925SOL    HW167614  10.563  10.302   4.470
21925SOL    HW267615  10.450  10.330   4.373
21926SOL     OW67616   3.117   5.607  12.097
21926SOL    HW167617   3.154   5.562  12.022
21926SOL    HW267618   3.028   5.572  12.105
21927SOL     OW67619   6.174   8.668   6.102
21927SOL    HW167620   6.248   8.727   6.116
21927SOL    HW267621   6.211   8.581   6.108
21928SOL     OW67622  14.825   4.562   1.810
21928SOL    HW167623  14.757   4.620   1.845
21928SOL    HW267624  14.777   4.496   1.761
21929SOL     OW67625  14.585   8.838   0.558
21929SOL    HW167626  14.620   8.828   0.647
21929SOL    HW267627  14.497   8.800   0.564
21930SOL     OW67628  11.672   3.553   8.130
21930SOL    HW167629  11.682   3.632   8.183
21930SOL    HW267630  11.629   3.490   8.187
21931SOL     OW67631   5.655   8.525   2.647
21931SOL    HW167632   5.686   8.440   2.616
21931SOL    HW267633   5.559   8.521   2.639
21932SOL     OW67634   1.283   2.561  12.327
21932SOL    HW167635   1.360   2.610  12.355
21932SOL    HW267636   1.306   2.469  12.340
21933SOL     OW67637   8.818   5.329   7.728
21933SOL    HW167638   8.755   5.325   7.656
21933SOL    HW267639   8.817   5.241   7.765
21934SOL     OW67640   8.827   4.485  14.077
21934SOL    HW167641   8.821   4.455  14.168
21934SOL    HW267642   8.850   4.406  14.028
21935SOL     OW67643   3.678   2.598  14.359
21935SOL    HW167644   3.619   2.615  14.286
21935SOL    HW267645   3.625   2.548  14.422
21936SOL     OW67646  14.563   1.764  13.643
21936SOL    HW167647  14.641   1.720  13.676
21936SOL    HW267648  14.523   1.803  13.720
21937SOL     OW67649  13.679   6.344   2.505
21937SOL    HW167650  13.745   6.396   2.459
21937SOL    HW267651  13.699   6.356   2.598
21938SOL     OW67652  13.709   7.615   4.109
21938SOL    HW167653  13.697   7.650   4.197
21938SOL    HW267654  13.649   7.664   4.054
21939SOL     OW67655   7.258   8.932  12.104
21939SOL    HW167656   7.190   8.974  12.157
21939SOL    HW267657   7.332   8.993  12.106
21940SOL     OW67658   6.884   9.801  13.642
21940SOL    HW167659   6.828   9.869  13.604
21940SOL    HW267660   6.970   9.842  13.648
21941SOL     OW67661   2.818  12.068   1.934
21941SOL    HW167662   2.835  12.125   1.859
21941SOL    HW267663   2.727  12.040   1.923
21942SOL     OW67664   9.510   4.941   1.564
21942SOL    HW167665   9.540   4.899   1.484
21942SOL    HW267666   9.589   4.948   1.618
21943SOL     OW67667   1.075   2.861   4.460
21943SOL    HW167668   0.980   2.861   4.476
21943SOL    HW267669   1.109   2.798   4.524
21944SOL     OW67670   0.936  12.182   7.273
21944SOL    HW167671   0.912  12.119   7.342
21944SOL    HW267672   1.009  12.231   7.311
21945SOL     OW67673   3.971   0.154   3.363
21945SOL    HW167674   4.058   0.186   3.340
21945SOL    HW267675   3.942   0.213   3.433
21946SOL     OW67676  10.373   6.517   5.356
21946SOL    HW167677  10.468   6.518   5.348
21946SOL    HW267678  10.343   6.592   5.304
21947SOL     OW67679   5.158   4.587  13.626
21947SOL    HW167680   5.137   4.494  13.633
21947SOL    HW267681   5.183   4.600  13.535
21948SOL     OW67682  14.314  11.703   2.628
21948SOL    HW167683  14.391  11.662   2.588
21948SOL    HW267684  14.322  11.684   2.721
21949SOL     OW67685   5.254  12.053   0.922
21949SOL    HW167686   5.259  12.124   0.986
21949SOL    HW267687   5.246  11.973   0.975
21950SOL     OW67688  11.240   1.413   1.501
21950SOL    HW167689  11.237   1.427   1.596
21950SOL    HW267690  11.285   1.329   1.490
21951SOL     OW67691   4.529   8.392  14.727
21951SOL    HW167692   4.568   8.357  14.647
21951SOL    HW267693   4.594   8.373  14.795
21952SOL     OW67694   7.167  12.198   2.959
21952SOL    HW167695   7.187  12.119   3.009
21952SOL    HW267696   7.249  12.247   2.957
21953SOL     OW67697   4.308   6.169   3.809
21953SOL    HW167698   4.369   6.235   3.843
21953SOL    HW267699   4.358   6.087   3.811
21954SOL     OW67700   2.431  12.449   3.134
21954SOL    HW167701   2.474  12.477   3.053
21954SOL    HW267702   2.342  12.483   3.128
21955SOL     OW67703   0.514   9.378   6.679
21955SOL    HW167704   0.601   9.340   6.684
21955SOL    HW267705   0.496   9.385   6.585
21956SOL     OW67706   3.210   6.337   2.350
21956SOL    HW167707   3.265   6.416   2.351
21956SOL    HW267708   3.128   6.365   2.310
21957SOL     OW67709  14.535  10.715   4.670
21957SOL    HW167710  14.495  10.784   4.723
21957SOL    HW267711  14.629  10.733   4.674
21958SOL     OW67712  13.869   3.476  14.663
21958SOL    HW167713  13.879   3.553  14.607
21958SOL    HW267714  13.948   3.476  14.718
21959SOL     OW67715  11.278   6.203  14.746
21959SOL    HW167716  11.200   6.154  14.721
21959SOL    HW267717  11.253   6.249  14.826
21960SOL     OW67718  10.490   9.020   3.608
21960SOL    HW167719  10.486   8.931   3.573
21960SOL    HW267720  10.573   9.055   3.574
21961SOL     OW67721   4.538  13.515   2.754
21961SOL    HW167722   4.591  13.585   2.718
21961SOL    HW267723   4.570  13.503   2.843
21962SOL     OW67724   3.618  10.695   5.943
21962SOL    HW167725   3.643  10.606   5.968
21962SOL    HW267726   3.534  10.684   5.898
21963SOL     OW67727  14.522  13.432   8.603
21963SOL    HW167728  14.514  13.341   8.576
21963SOL    HW267729  14.600  13.434   8.658
21964SOL     OW67730   2.942   9.412   5.802
21964SOL    HW167731   2.943   9.488   5.745
21964SOL    HW267732   2.850   9.385   5.806
21965SOL     OW67733  14.451  14.106   4.927
21965SOL    HW167734  14.452  14.132   5.020
21965SOL    HW267735  14.508  14.170   4.884
21966SOL     OW67736   9.100   2.313   5.232
21966SOL    HW167737   9.065   2.318   5.143
21966SOL    HW267738   9.160   2.238   5.230
21967SOL     OW67739   0.126   4.183  13.140
21967SOL    HW167740   0.177   4.116  13.185
21967SOL    HW267741   0.134   4.161  13.047
21968SOL     OW67742   4.592   6.664  11.744
21968SOL    HW167743   4.622   6.658  11.835
21968SOL    HW267744   4.598   6.757  11.724
21969SOL     OW67745  13.046   6.180   4.646
21969SOL    HW167746  12.994   6.254   4.615
21969SOL    HW267747  13.019   6.106   4.591
21970SOL     OW67748   8.903  12.662  13.119
21970SOL    HW167749   8.836  12.714  13.074
21970SOL    HW267750   8.935  12.602  13.051
21971SOL     OW67751   1.977  14.328   8.579
21971SOL    HW167752   1.943  14.270   8.648
21971SOL    HW267753   1.963  14.416   8.613
21972SOL     OW67754   6.917   9.634   1.681
21972SOL    HW167755   6.993   9.587   1.645
21972SOL    HW267756   6.955   9.709   1.726
21973SOL     OW67757   5.419  14.149   4.627
21973SOL    HW167758   5.451  14.145   4.537
21973SOL    HW267759   5.470  14.219   4.667
21974SOL     OW67760   0.286   0.740   1.752
21974SOL    HW167761   0.241   0.783   1.825
21974SOL    HW267762   0.354   0.802   1.726
21975SOL     OW67763   6.009  10.238   1.265
21975SOL    HW167764   5.916  10.255   1.251
21975SOL    HW267765   6.052  10.280   1.191
21976SOL     OW67766   5.360   3.826   4.641
21976SOL    HW167767   5.383   3.734   4.629
21976SOL    HW267768   5.348   3.836   4.735
21977SOL     OW67769   5.398  14.478   2.742
21977SOL    HW167770   5.415  14.452   2.652
21977SOL    HW267771   5.315  14.435   2.764
21978SOL     OW67772   7.125   6.768   1.531
21978SOL    HW167773   7.165   6.774   1.444
21978SOL    HW267774   7.177   6.702   1.576
21979SOL     OW67775   1.529   5.979   3.978
21979SOL    HW167776   1.565   5.929   4.052
21979SOL    HW267777   1.605   6.007   3.928
21980SOL     OW67778  13.276  12.795  13.787
21980SOL    HW167779  13.293  12.783  13.694
21980SOL    HW267780  13.296  12.710  13.826
21981SOL     OW67781   2.801   7.450   1.683
21981SOL    HW167782   2.881   7.503   1.677
21981SOL    HW267783   2.786   7.420   1.593
21982SOL     OW67784  11.091  14.133   8.779
21982SOL    HW167785  11.113  14.219   8.815
21982SOL    HW267786  11.167  14.078   8.800
21983SOL     OW67787   2.163   9.487  10.668
21983SOL    HW167788   2.231   9.477  10.735
21983SOL    HW267789   2.087   9.520  10.715
21984SOL     OW67790   1.190   6.702   8.097
21984SOL    HW167791   1.265   6.752   8.129
21984SOL    HW267792   1.155   6.755   8.026
21985SOL     OW67793  12.568   2.964  13.638
21985SOL    HW167794  12.655   2.930  13.658
21985SOL    HW267795  12.562   2.961  13.542
21986SOL     OW67796   2.864   8.589   7.590
21986SOL    HW167797   2.933   8.626   7.533
21986SOL    HW267798   2.907   8.516   7.635
21987SOL     OW67799  11.777  12.074   4.144
21987SOL    HW167800  11.696  12.124   4.154
21987SOL    HW267801  11.847  12.137   4.160
21988SOL     OW67802  14.286   0.876   3.412
21988SOL    HW167803  14.238   0.958   3.400
21988SOL    HW267804  14.265   0.824   3.334
21989SOL     OW67805  14.494   8.037  11.890
21989SOL    HW167806  14.582   7.999  11.893
21989SOL    HW267807  14.480   8.056  11.797
21990SOL     OW67808  12.340  12.445  10.694
21990SOL    HW167809  12.385  12.463  10.612
21990SOL    HW267810  12.250  12.421  10.668
21991SOL     OW67811   3.593  13.255  14.448
21991SOL    HW167812   3.627  13.241  14.360
21991SOL    HW267813   3.532  13.328  14.439
21992SOL     OW67814   6.920   5.190  10.687
21992SOL    HW167815   6.858   5.257  10.713
21992SOL    HW267816   6.997   5.238  10.657
21993SOL     OW67817   8.955  13.880   6.066
21993SOL    HW167818   8.926  13.879   6.157
21993SOL    HW267819   9.015  13.955   6.060
21994SOL     OW67820   8.049   0.442   5.112
21994SOL    HW167821   8.025   0.480   5.196
21994SOL    HW267822   8.145   0.436   5.114
21995SOL     OW67823   4.565  12.869   7.602
21995SOL    HW167824   4.619  12.790   7.604
21995SOL    HW267825   4.558  12.891   7.509
21996SOL     OW67826  13.989   8.304  10.466
21996SOL    HW167827  13.927   8.268  10.403
21996SOL    HW267828  14.032   8.228  10.504
21997SOL     OW67829  11.027   5.413   2.388
21997SOL    HW167830  11.041   5.415   2.293
21997SOL    HW267831  11.004   5.503   2.411
21998SOL     OW67832   8.746   9.241   5.899
21998SOL    HW167833   8.693   9.224   5.820
21998SOL    HW267834   8.681   9.256   5.968
21999SOL     OW67835  10.513   1.737   9.094
21999SOL    HW167836  10.431   1.713   9.136
21999SOL    HW267837  10.506   1.703   9.005
22000SOL     OW67838   8.742   0.225   4.553
22000SOL    HW167839   8.812   0.168   4.585
22000SOL    HW267840   8.694   0.251   4.632
22001SOL     OW67841  13.649   0.976   6.651
22001SOL    HW167842  13.696   1.043   6.700
22001SOL    HW267843  13.630   1.017   6.567
22002SOL     OW67844   5.072   0.859   3.692
22002SOL    HW167845   4.993   0.823   3.653
22002SOL    HW267846   5.053   0.865   3.785
22003SOL     OW67847  13.843   2.922   3.062
22003SOL    HW167848  13.885   2.946   3.145
22003SOL    HW267849  13.782   2.994   3.044
22004SOL     OW67850   8.705   1.130   0.380
22004SOL    HW167851   8.665   1.207   0.341
22004SOL    HW267852   8.779   1.164   0.430
22005SOL     OW67853  11.741   4.079  12.705
22005SOL    HW167854  11.744   3.985  12.722
22005SOL    HW267855  11.817   4.095  12.649
22006SOL     OW67856  10.363   9.804   0.717
22006SOL    HW167857  10.400   9.841   0.797
22006SOL    HW267858  10.384   9.868   0.649
22007SOL     OW67859  13.653   8.791   9.314
22007SOL    HW167860  13.637   8.785   9.408
22007SOL    HW267861  13.574   8.833   9.279
22008SOL     OW67862   4.479   2.323   8.534
22008SOL    HW167863   4.441   2.354   8.617
22008SOL    HW267864   4.458   2.393   8.472
22009SOL     OW67865  10.646   2.175  10.190
22009SOL    HW167866  10.594   2.114  10.243
22009SOL    HW267867  10.611   2.164  10.101
22010SOL     OW67868  14.372   5.259  12.888
22010SOL    HW167869  14.427   5.252  12.810
22010SOL    HW267870  14.289   5.293  12.855
22011SOL     OW67871  11.884  13.673   8.634
22011SOL    HW167872  11.934  13.731   8.691
22011SOL    HW267873  11.879  13.590   8.682
22012SOL     OW67874   6.595   3.691  10.919
22012SOL    HW167875   6.509   3.718  10.951
22012SOL    HW267876   6.616   3.613  10.971
22013SOL     OW67877   6.722   4.095   8.123
22013SOL    HW167878   6.721   4.130   8.034
22013SOL    HW267879   6.715   4.173   8.179
22014SOL     OW67880   6.465   6.804  14.015
22014SOL    HW167881   6.507   6.737  14.069
22014SOL    HW267882   6.444   6.874  14.077
22015SOL     OW67883   4.003   9.191   9.888
22015SOL    HW167884   3.913   9.223   9.885
22015SOL    HW267885   3.999   9.114   9.945
22016SOL     OW67886   6.739  12.141   5.490
22016SOL    HW167887   6.777  12.229   5.484
22016SOL    HW267888   6.808  12.089   5.532
22017SOL     OW67889   2.607   0.862  10.698
22017SOL    HW167890   2.636   0.786  10.748
22017SOL    HW267891   2.568   0.920  10.764
22018SOL     OW67892  10.312   6.871   2.871
22018SOL    HW167893  10.322   6.937   2.940
22018SOL    HW267894  10.322   6.788   2.917
22019SOL     OW67895   4.319  11.327  14.234
22019SOL    HW167896   4.305  11.254  14.294
22019SOL    HW267897   4.233  11.345  14.197
22020SOL     OW67898   2.905   0.307  14.264
22020SOL    HW167899   2.876   0.350  14.344
22020SOL    HW267900   3.000   0.322  14.261
22021SOL     OW67901  11.362  14.865   5.903
22021SOL    HW167902  11.269  14.845   5.894
22021SOL    HW267903  11.367   0.049   5.976
22022SOL     OW67904   0.168  14.843   7.637
22022SOL    HW167905   0.096  14.782   7.622
22022SOL    HW267906   0.224  14.834   7.559
22023SOL     OW67907   0.815   5.370   9.230
22023SOL    HW167908   0.817   5.371   9.326
22023SOL    HW267909   0.798   5.279   9.208
22024SOL     OW67910   5.050  12.792   8.750
22024SOL    HW167911   5.135  12.766   8.714
22024SOL    HW267912   4.987  12.769   8.682
22025SOL     OW67913  10.333  13.945  10.605
22025SOL    HW167914  10.403  13.940  10.540
22025SOL    HW267915  10.272  13.876  10.579
22026SOL     OW67916   1.709   0.729   7.251
22026SOL    HW167917   1.633   0.779   7.280
22026SOL    HW267918   1.677   0.674   7.180
22027SOL     OW67919  14.793   4.423   3.033
22027SOL    HW167920  14.815   4.516   3.035
22027SOL    HW267921  14.730   4.415   2.962
22028SOL     OW67922   8.154   5.686   8.165
22028SOL    HW167923   8.228   5.626   8.161
22028SOL    HW267924   8.087   5.639   8.215
22029SOL     OW67925   3.866   8.428   0.402
22029SOL    HW167926   3.847   8.386   0.318
22029SOL    HW267927   3.780   8.451   0.437
22030SOL     OW67928   7.372   6.804  10.105
22030SOL    HW167929   7.464   6.780  10.094
22030SOL    HW267930   7.326   6.720  10.106
22031SOL     OW67931   8.065  11.320   0.327
22031SOL    HW167932   8.128  11.256   0.362
22031SOL    HW267933   8.039  11.372   0.403
22032SOL     OW67934   8.927   6.990  10.397
22032SOL    HW167935   8.846   6.989  10.448
22032SOL    HW267936   8.985   6.928  10.442
22033SOL     OW67937  14.734  11.473  12.110
22033SOL    HW167938  14.743  11.551  12.056
22033SOL    HW267939  14.685  11.502  12.187
22034SOL     OW67940   7.037  10.688   2.578
22034SOL    HW167941   6.963  10.640   2.613
22034SOL    HW267942   7.103  10.621   2.560
22035SOL     OW67943  12.496   7.874   6.579
22035SOL    HW167944  12.477   7.783   6.557
22035SOL    HW267945  12.504   7.874   6.674
22036SOL     OW67946  11.620  13.966   6.284
22036SOL    HW167947  11.540  13.938   6.239
22036SOL    HW267948  11.656  13.887   6.322
22037SOL     OW67949   5.082  11.241  14.209
22037SOL    HW167950   5.122  11.225  14.294
22037SOL    HW267951   5.019  11.170  14.199
22038SOL     OW67952  11.364   2.779   8.653
22038SOL    HW167953  11.421   2.703   8.643
22038SOL    HW267954  11.373   2.826   8.570
22039SOL     OW67955   7.303  12.553   4.463
22039SOL    HW167956   7.332  12.599   4.384
22039SOL    HW267957   7.262  12.473   4.430
22040SOL     OW67958   6.753  13.302  10.915
22040SOL    HW167959   6.697  13.355  10.972
22040SOL    HW267960   6.779  13.362  10.845
22041SOL     OW67961   8.815   3.195  14.536
22041SOL    HW167962   8.881   3.221  14.600
22041SOL    HW267963   8.846   3.112  14.501
22042SOL     OW67964   3.258  12.311   9.439
22042SOL    HW167965   3.267  12.293   9.345
22042SOL    HW267966   3.348  12.313   9.471
22043SOL     OW67967  14.175  12.709  11.717
22043SOL    HW167968  14.152  12.717  11.809
22043SOL    HW267969  14.243  12.774  11.703
22044SOL     OW67970  10.951   5.406  10.752
22044SOL    HW167971  10.919   5.326  10.794
22044SOL    HW267972  10.908   5.477  10.800
22045SOL     OW67973   1.597   3.547   5.254
22045SOL    HW167974   1.571   3.500   5.175
22045SOL    HW267975   1.541   3.511   5.323
22046SOL     OW67976   7.007  11.189   2.557
22046SOL    HW167977   7.058  11.224   2.630
22046SOL    HW267978   7.054  11.216   2.478
22047SOL     OW67979  11.912  14.649  12.672
22047SOL    HW167980  11.998  14.662  12.713
22047SOL    HW267981  11.849  14.686  12.734
22048SOL     OW67982   4.723   0.490   5.147
22048SOL    HW167983   4.660   0.423   5.173
22048SOL    HW267984   4.794   0.442   5.106
22049SOL     OW67985  12.161  10.367  10.160
22049SOL    HW167986  12.088  10.410  10.203
22049SOL    HW267987  12.233  10.373  10.223
22050SOL     OW67988   4.092   8.678   0.022
22050SOL    HW167989   4.154   8.728  14.847
22050SOL    HW267990   4.044   8.626  14.834
22051SOL     OW67991  12.058  12.179   5.050
22051SOL    HW167992  12.087  12.266   5.025
22051SOL    HW267993  12.081  12.124   4.975
22052SOL     OW67994   7.341   5.880   2.601
22052SOL    HW167995   7.323   5.839   2.517
22052SOL    HW267996   7.314   5.971   2.590
22053SOL     OW67997  11.020   9.451   8.146
22053SOL    HW167998  11.057   9.397   8.076
22053SOL    HW267999  10.925   9.441   8.135
22054SOL     OW68000   6.357   0.066   0.351
22054SOL    HW168001   6.421   0.138   0.350
22054SOL    HW268002   6.273   0.108   0.335
22055SOL     OW68003   6.546   5.704   0.687
22055SOL    HW168004   6.638   5.675   0.691
22055SOL    HW268005   6.551   5.799   0.689
22056SOL     OW68006   0.396   9.116   1.895
22056SOL    HW168007   0.433   9.035   1.931
22056SOL    HW268008   0.468   9.154   1.845
22057SOL     OW68009  11.130   2.101   8.251
22057SOL    HW168010  11.179   2.181   8.234
22057SOL    HW268011  11.048   2.130   8.290
22058SOL     OW68012  14.066   4.433  11.350
22058SOL    HW168013  14.029   4.510  11.306
22058SOL    HW268014  14.073   4.367  11.281
22059SOL     OW68015   9.985  12.286  12.007
22059SOL    HW168016   9.899  12.297  11.967
22059SOL    HW268017   9.978  12.334  12.090
22060SOL     OW68018   4.020   5.788   6.766
22060SOL    HW168019   4.100   5.808   6.816
22060SOL    HW268020   4.036   5.826   6.680
22061SOL     OW68021   9.086   7.021  13.849
22061SOL    HW168022   9.164   7.053  13.893
22061SOL    HW268023   9.107   7.024  13.756
22062SOL     OW68024  10.475   5.593   1.007
22062SOL    HW168025  10.527   5.522   1.045
22062SOL    HW268026  10.384   5.562   1.012
22063SOL     OW68027   8.183   9.568   9.996
22063SOL    HW168028   8.139   9.580   9.912
22063SOL    HW268029   8.275   9.553   9.973
22064SOL     OW68030  14.026  12.517   1.972
22064SOL    HW168031  13.931  12.502   1.974
22064SOL    HW268032  14.062  12.449   2.029
22065SOL     OW68033  13.593  14.132   0.023
22065SOL    HW168034  13.549  14.103   0.103
22065SOL    HW268035  13.530  14.112  14.829
22066SOL     OW68036   5.849   5.557   6.566
22066SOL    HW168037   5.754   5.571   6.572
22066SOL    HW268038   5.858   5.482   6.507
22067SOL     OW68039   7.600  10.929   8.068
22067SOL    HW168040   7.524  10.916   8.124
22067SOL    HW268041   7.664  10.974   8.123
22068SOL     OW68042   4.950   9.030   9.114
22068SOL    HW168043   4.949   9.122   9.142
22068SOL    HW268044   4.864   9.017   9.073
22069SOL     OW68045  14.023  13.354   0.307
22069SOL    HW168046  13.949  13.415   0.301
22069SOL    HW268047  14.069  13.363   0.224
22070SOL     OW68048   6.249   2.249   0.273
22070SOL    HW168049   6.332   2.202   0.267
22070SOL    HW268050   6.197   2.200   0.337
22071SOL     OW68051   4.168   3.156   5.100
22071SOL    HW168052   4.224   3.088   5.064
22071SOL    HW268053   4.212   3.184   5.180
22072SOL     OW68054   4.279   6.001  11.273
22072SOL    HW168055   4.266   6.016  11.367
22072SOL    HW268056   4.329   5.920  11.269
22073SOL     OW68057  13.135   8.896  10.405
22073SOL    HW168058  13.050   8.899  10.448
22073SOL    HW268059  13.139   8.977  10.354
22074SOL     OW68060   2.827  10.772   6.640
22074SOL    HW168061   2.757  10.783   6.576
22074SOL    HW268062   2.806  10.835   6.710
22075SOL     OW68063   2.965   3.786   6.754
22075SOL    HW168064   2.938   3.767   6.844
22075SOL    HW268065   2.953   3.881   6.746
22076SOL     OW68066  14.159   2.669   6.976
22076SOL    HW168067  14.222   2.625   6.918
22076SOL    HW268068  14.204   2.676   7.060
22077SOL     OW68069   3.797  10.139  13.292
22077SOL    HW168070   3.784  10.234  13.290
22077SOL    HW268071   3.747  10.107  13.217
22078SOL     OW68072   3.832   7.033   1.023
22078SOL    HW168073   3.762   7.004   1.081
22078SOL    HW268074   3.825   6.975   0.946
22079SOL     OW68075   2.216   4.945   2.116
22079SOL    HW168076   2.226   5.030   2.157
22079SOL    HW268077   2.216   4.963   2.022
22080SOL     OW68078   0.800   5.702   0.078
22080SOL    HW168079   0.836   5.634   0.021
22080SOL    HW268080   0.706   5.683   0.082
22081SOL     OW68081   0.955   2.457   3.651
22081SOL    HW168082   1.049   2.460   3.666
22081SOL    HW268083   0.931   2.364   3.659
22082SOL     OW68084   2.040   3.324  12.704
22082SOL    HW168085   1.976   3.273  12.754
22082SOL    HW268086   2.118   3.327  12.760
22083SOL     OW68087  10.615   9.167   5.085
22083SOL    HW168088  10.642   9.140   5.173
22083SOL    HW268089  10.681   9.232   5.060
22084SOL     OW68090   0.103   9.090   1.791
22084SOL    HW168091   0.091   9.048   1.706
22084SOL    HW268092   0.172   9.040   1.833
22085SOL     OW68093   7.026  10.331  13.027
22085SOL    HW168094   7.041  10.417  12.988
22085SOL    HW268095   7.100  10.318  13.087
22086SOL     OW68096   1.020  12.000   9.540
22086SOL    HW168097   1.067  11.981   9.459
22086SOL    HW268098   1.026  12.094   9.551
22087SOL     OW68099   5.765   0.060   4.038
22087SOL    HW168100   5.828   0.002   4.082
22087SOL    HW268101   5.701   0.000   3.999
22088SOL     OW68102   5.002  12.417   3.659
22088SOL    HW168103   5.052  12.403   3.739
22088SOL    HW268104   4.935  12.480   3.684
22089SOL     OW68105   7.316   8.696   7.172
22089SOL    HW168106   7.301   8.613   7.128
22089SOL    HW268107   7.230   8.736   7.179
22090SOL     OW68108   0.668   0.061   5.213
22090SOL    HW168109   0.689  14.850   5.247
22090SOL    HW268110   0.699   0.121   5.281
22091SOL     OW68111   3.163  10.753  12.382
22091SOL    HW168112   3.210  10.697  12.320
22091SOL    HW268113   3.072  10.752  12.352
22092SOL     OW68114   2.335   5.233  11.275
22092SOL    HW168115   2.261   5.283  11.310
22092SOL    HW268116   2.323   5.235  11.180
22093SOL     OW68117   4.457  12.604   4.293
22093SOL    HW168118   4.435  12.671   4.228
22093SOL    HW268119   4.551  12.614   4.306
22094SOL     OW68120   6.878  14.279  11.144
22094SOL    HW168121   6.830  14.261  11.063
22094SOL    HW268122   6.835  14.356  11.181
22095SOL     OW68123   4.636  11.344   3.052
22095SOL    HW168124   4.717  11.361   3.003
22095SOL    HW268125   4.667  11.308   3.136
22096SOL     OW68126   6.032   4.609   8.617
22096SOL    HW168127   5.970   4.546   8.653
22096SOL    HW268128   6.031   4.682   8.678
22097SOL     OW68129  14.257  12.597   2.974
22097SOL    HW168130  14.168  12.568   2.992
22097SOL    HW268131  14.291  12.624   3.059
22098SOL     OW68132   0.416   5.352  10.782
22098SOL    HW168133   0.356   5.424  10.767
22098SOL    HW268134   0.503   5.392  10.779
22099SOL     OW68135  14.631  12.088  13.607
22099SOL    HW168136  14.566  12.081  13.537
22099SOL    HW268137  14.652  12.181  13.610
22100SOL     OW68138   4.611   9.186   1.640
22100SOL    HW168139   4.536   9.241   1.617
22100SOL    HW268140   4.573   9.106   1.674
22101SOL     OW68141   9.282   6.539   5.143
22101SOL    HW168142   9.205   6.539   5.086
22101SOL    HW268143   9.343   6.480   5.100
22102SOL     OW68144   0.662   9.881   9.691
22102SOL    HW168145   0.598   9.810   9.697
22102SOL    HW268146   0.676   9.892   9.597
22103SOL     OW68147  10.930   9.791  12.258
22103SOL    HW168148  10.842   9.809  12.291
22103SOL    HW268149  10.986   9.855  12.301
22104SOL     OW68150  12.531  11.162  10.123
22104SOL    HW168151  12.448  11.124  10.094
22104SOL    HW268152  12.518  11.257  10.113
22105SOL     OW68153  12.603   3.398   4.156
22105SOL    HW168154  12.661   3.367   4.087
22105SOL    HW268155  12.657   3.458   4.207
22106SOL     OW68156  13.344   0.843   5.924
22106SOL    HW168157  13.428   0.849   5.879
22106SOL    HW268158  13.296   0.921   5.896
22107SOL     OW68159  13.381   7.786   1.999
22107SOL    HW168160  13.405   7.749   1.914
22107SOL    HW268161  13.308   7.732   2.028
22108SOL     OW68162   2.502  10.091  13.045
22108SOL    HW168163   2.512  10.030  13.118
22108SOL    HW268164   2.472  10.036  12.972
22109SOL     OW68165  13.833   4.620   3.122
22109SOL    HW168166  13.865   4.711   3.118
22109SOL    HW268167  13.853   4.585   3.035
22110SOL     OW68168  11.880   4.295   4.402
22110SOL    HW168169  11.923   4.232   4.345
22110SOL    HW268170  11.859   4.246   4.481
22111SOL     OW68171   8.239  10.740   6.522
22111SOL    HW168172   8.310  10.684   6.554
22111SOL    HW268173   8.260  10.827   6.557
22112SOL     OW68174  11.957   5.698   3.541
22112SOL    HW168175  11.935   5.783   3.502
22112SOL    HW268176  12.044   5.678   3.507
22113SOL     OW68177   8.726   8.446   4.211
22113SOL    HW168178   8.718   8.409   4.123
22113SOL    HW268179   8.646   8.420   4.256
22114SOL     OW68180   1.931   8.182   6.835
22114SOL    HW168181   2.020   8.149   6.841
22114SOL    HW268182   1.939   8.276   6.853
22115SOL     OW68183   0.605   7.955  13.671
22115SOL    HW168184   0.518   7.993  13.655
22115SOL    HW268185   0.616   7.957  13.766
22116SOL     OW68186   8.319   8.104   1.625
22116SOL    HW168187   8.232   8.141   1.641
22116SOL    HW268188   8.337   8.050   1.702
22117SOL     OW68189   8.217   4.281   4.544
22117SOL    HW168190   8.259   4.221   4.606
22117SOL    HW268191   8.125   4.283   4.572
22118SOL     OW68192   5.948  11.811   9.098
22118SOL    HW168193   5.880  11.844   9.040
22118SOL    HW268194   5.919  11.837   9.186
22119SOL     OW68195   7.074   6.585  11.407
22119SOL    HW168196   6.991   6.620  11.439
22119SOL    HW268197   7.110   6.655  11.352
22120SOL     OW68198   0.310   3.474  10.978
22120SOL    HW168199   0.219   3.482  11.008
22120SOL    HW268200   0.361   3.526  11.040
22121SOL     OW68201   2.953   3.352   3.786
22121SOL    HW168202   2.929   3.285   3.722
22121SOL    HW268203   2.962   3.303   3.869
22122SOL     OW68204   7.581   4.088   4.001
22122SOL    HW168205   7.642   4.120   3.935
22122SOL    HW268206   7.625   4.102   4.084
22123SOL     OW68207   7.638   8.780   7.815
22123SOL    HW168208   7.625   8.735   7.898
22123SOL    HW268209   7.615   8.871   7.833
22124SOL     OW68210   9.363   1.879  14.588
22124SOL    HW168211   9.374   1.786  14.607
22124SOL    HW268212   9.447   1.907  14.552
22125SOL     OW68213  11.326  13.619   4.767
22125SOL    HW168214  11.350  13.568   4.845
22125SOL    HW268215  11.377  13.580   4.696
22126SOL     OW68216   9.044  13.877   8.408
22126SOL    HW168217   9.108  13.810   8.384
22126SOL    HW268218   8.973  13.867   8.344
22127SOL     OW68219   3.557  12.617   4.178
22127SOL    HW168220   3.550  12.699   4.130
22127SOL    HW268221   3.556  12.644   4.270
22128SOL     OW68222   8.042   8.934   6.735
22128SOL    HW168223   7.981   8.984   6.682
22128SOL    HW268224   8.020   8.842   6.718
22129SOL     OW68225   0.976   3.731  10.062
22129SOL    HW168226   1.036   3.657  10.049
22129SOL    HW268227   0.949   3.724  10.153
22130SOL     OW68228  14.596   2.707   1.678
22130SOL    HW168229  14.634   2.636   1.730
22130SOL    HW268230  14.665   2.730   1.615
22131SOL     OW68231   6.310   3.899   4.164
22131SOL    HW168232   6.282   3.985   4.194
22131SOL    HW268233   6.380   3.917   4.101
22132SOL     OW68234   0.137   9.714   2.449
22132SOL    HW168235   0.076   9.646   2.420
22132SOL    HW268236   0.178   9.746   2.369
22133SOL     OW68237   3.711  10.854  12.680
22133SOL    HW168238   3.615  10.860  12.672
22133SOL    HW268239   3.727  10.765  12.712
22134SOL     OW68240   5.702   2.632  13.597
22134SOL    HW168241   5.658   2.597  13.520
22134SOL    HW268242   5.631   2.655  13.657
22135SOL     OW68243   5.211   9.217   2.210
22135SOL    HW168244   5.187   9.132   2.247
22135SOL    HW268245   5.244   9.195   2.122
22136SOL     OW68246   2.696  10.291  10.653
22136SOL    HW168247   2.634  10.317  10.721
22136SOL    HW268248   2.778  10.276  10.699
22137SOL     OW68249  10.719   4.628  12.213
22137SOL    HW168250  10.774   4.669  12.280
22137SOL    HW268251  10.779   4.603  12.143
22138SOL     OW68252   3.771  11.105   4.371
22138SOL    HW168253   3.748  11.022   4.329
22138SOL    HW268254   3.723  11.171   4.320
22139SOL     OW68255   2.802  11.422   2.984
22139SOL    HW168256   2.760  11.417   3.070
22139SOL    HW268257   2.759  11.496   2.942
22140SOL     OW68258  13.118   8.062   3.206
22140SOL    HW168259  13.033   8.051   3.250
22140SOL    HW268260  13.180   8.018   3.264
22141SOL     OW68261   0.815  11.965   1.264
22141SOL    HW168262   0.870  11.896   1.302
22141SOL    HW268263   0.862  12.046   1.283
22142SOL     OW68264   8.227  13.639  10.278
22142SOL    HW168265   8.148  13.689  10.255
22142SOL    HW268266   8.267  13.618  10.194
22143SOL     OW68267   4.154   1.623  12.539
22143SOL    HW168268   4.212   1.606  12.465
22143SOL    HW268269   4.070   1.646  12.498
22144SOL     OW68270   8.697  12.600   6.261
22144SOL    HW168271   8.718  12.524   6.316
22144SOL    HW268272   8.617  12.636   6.299
22145SOL     OW68273  12.970  10.682   3.907
22145SOL    HW168274  13.066  10.679   3.901
22145SOL    HW268275  12.953  10.722   3.993
22146SOL     OW68276  10.536   5.899  14.071
22146SOL    HW168277  10.475   5.876  14.001
22146SOL    HW268278  10.479   5.926  14.144
22147SOL     OW68279   8.183   3.104   4.548
22147SOL    HW168280   8.135   3.186   4.537
22147SOL    HW268281   8.171   3.082   4.640
22148SOL     OW68282   9.961  14.853  12.080
22148SOL    HW168283   9.953   0.010  12.169
22148SOL    HW268284   9.950   0.054  12.024
22149SOL     OW68285  11.378  11.769   8.683
22149SOL    HW168286  11.331  11.800   8.760
22149SOL    HW268287  11.312  11.724   8.631
22150SOL     OW68288  14.302   5.481   0.387
22150SOL    HW168289  14.274   5.500   0.297
22150SOL    HW268290  14.277   5.389   0.401
22151SOL     OW68291   7.570  14.376   4.211
22151SOL    HW168292   7.540  14.308   4.151
22151SOL    HW268293   7.638  14.334   4.263
22152SOL     OW68294  12.954   2.731   7.144
22152SOL    HW168295  12.960   2.640   7.174
22152SOL    HW268296  12.916   2.725   7.056
22153SOL     OW68297  13.643   4.234   6.816
22153SOL    HW168298  13.547   4.230   6.807
22153SOL    HW268299  13.661   4.327   6.831
22154SOL     OW68300   6.886   8.993  14.778
22154SOL    HW168301   6.821   9.008  14.846
22154SOL    HW268302   6.878   8.900  14.757
22155SOL     OW68303   6.156   0.551   1.634
22155SOL    HW168304   6.073   0.517   1.603
22155SOL    HW268305   6.152   0.541   1.730
22156SOL     OW68306   3.205   6.467   8.654
22156SOL    HW168307   3.120   6.456   8.698
22156SOL    HW268308   3.183   6.484   8.563
22157SOL     OW68309  12.825   0.736   2.486
22157SOL    HW168310  12.888   0.714   2.555
22157SOL    HW268311  12.746   0.687   2.509
22158SOL     OW68312   5.026   2.052  12.691
22158SOL    HW168313   5.055   2.011  12.773
22158SOL    HW268314   4.947   2.003  12.667
22159SOL     OW68315   8.519  12.156  13.698
22159SOL    HW168316   8.613  12.171  13.684
22159SOL    HW268317   8.512  12.133  13.791
22160SOL     OW68318   7.408   0.867  11.280
22160SOL    HW168319   7.413   0.828  11.368
22160SOL    HW268320   7.488   0.837  11.236
22161SOL     OW68321   6.797  14.311   6.690
22161SOL    HW168322   6.882  14.348   6.667
22161SOL    HW268323   6.798  14.222   6.655
22162SOL     OW68324  11.143  14.473   5.336
22162SOL    HW168325  11.181  14.454   5.250
22162SOL    HW268326  11.050  14.451   5.325
22163SOL     OW68327   6.981   6.838   6.950
22163SOL    HW168328   6.898   6.822   6.905
22163SOL    HW268329   6.966   6.807   7.039
22164SOL     OW68330   0.338  13.418   4.904
22164SOL    HW168331   0.336  13.483   4.973
22164SOL    HW268332   0.318  13.335   4.948
22165SOL     OW68333   2.969   3.957  10.019
22165SOL    HW168334   2.947   3.975  10.111
22165SOL    HW268335   3.014   4.036   9.989
22166SOL     OW68336   0.240   0.288   6.434
22166SOL    HW168337   0.179   0.241   6.377
22166SOL    HW268338   0.190   0.363   6.466
22167SOL     OW68339   0.778   4.342  11.224
22167SOL    HW168340   0.820   4.427  11.236
22167SOL    HW268341   0.796   4.295  11.305
22168SOL     OW68342   7.172  11.459   8.279
22168SOL    HW168343   7.184  11.386   8.340
22168SOL    HW268344   7.172  11.419   8.192
22169SOL     OW68345   0.951   9.547   8.975
22169SOL    HW168346   1.000   9.627   8.993
22169SOL    HW268347   0.878   9.550   9.037
22170SOL     OW68348   1.966  12.440   8.106
22170SOL    HW168349   2.050  12.414   8.146
22170SOL    HW268350   1.901  12.388   8.154
22171SOL     OW68351  11.133   5.480  12.210
22171SOL    HW168352  11.043   5.474  12.244
22171SOL    HW268353  11.174   5.398  12.238
22172SOL     OW68354  14.603   5.071  11.980
22172SOL    HW168355  14.602   5.153  11.930
22172SOL    HW268356  14.540   5.086  12.051
22173SOL     OW68357   8.500  14.816   8.085
22173SOL    HW168358   8.550  14.752   8.136
22173SOL    HW268359   8.500   0.018   8.139
22174SOL     OW68360  13.226   8.110   7.432
22174SOL    HW168361  13.166   8.051   7.477
22174SOL    HW268362  13.278   8.053   7.376
22175SOL     OW68363  13.649  14.254   4.065
22175SOL    HW168364  13.744  14.252   4.073
22175SOL    HW268365  13.628  14.345   4.047
22176SOL     OW68366  11.077   4.055  11.672
22176SOL    HW168367  10.982   4.043  11.673
22176SOL    HW268368  11.093   4.115  11.598
22177SOL     OW68369   3.075   6.034  14.768
22177SOL    HW168370   2.986   6.048  14.734
22177SOL    HW268371   3.108   6.122  14.784
22178SOL     OW68372  12.923   1.085   5.339
22178SOL    HW168373  12.944   1.046   5.423
22178SOL    HW268374  12.828   1.073   5.329
22179SOL     OW68375   2.185  11.186   1.970
22179SOL    HW168376   2.197  11.091   1.959
22179SOL    HW268377   2.267  11.215   2.010
22180SOL     OW68378  12.426  14.024   6.932
22180SOL    HW168379  12.502  13.976   6.966
22180SOL    HW268380  12.447  14.116   6.949
22181SOL     OW68381   1.867  14.582   9.703
22181SOL    HW168382   1.871  14.626   9.618
22181SOL    HW268383   1.945  14.526   9.705
22182SOL     OW68384   1.889   8.479   8.990
22182SOL    HW168385   1.899   8.569   8.960
22182SOL    HW268386   1.968   8.463   9.042
22183SOL     OW68387   8.194   2.456   9.360
22183SOL    HW168388   8.253   2.475   9.433
22183SOL    HW268389   8.211   2.364   9.337
22184SOL     OW68390   6.086   7.934  14.762
22184SOL    HW168391   6.119   7.954  14.675
22184SOL    HW268392   6.093   7.839  14.769
22185SOL     OW68393   0.923   0.874   2.355
22185SOL    HW168394   0.871   0.954   2.346
22185SOL    HW268395   1.013   0.905   2.366
22186SOL     OW68396   3.517   0.256   3.516
22186SOL    HW168397   3.559   0.276   3.432
22186SOL    HW268398   3.511   0.161   3.518
22187SOL     OW68399   3.695  13.513  13.024
22187SOL    HW168400   3.687  13.523  13.119
22187SOL    HW268401   3.618  13.464  12.998
22188SOL     OW68402  13.060  13.756  14.704
22188SOL    HW168403  13.067  13.745  14.799
22188SOL    HW268404  13.150  13.747  14.672
22189SOL     OW68405   6.578  10.503  13.006
22189SOL    HW168406   6.543  10.456  12.931
22189SOL    HW268407   6.560  10.595  12.987
22190SOL     OW68408   0.561   7.751  12.148
22190SOL    HW168409   0.486   7.693  12.158
22190SOL    HW268410   0.546   7.821  12.212
22191SOL     OW68411   0.209   4.811  13.186
22191SOL    HW168412   0.121   4.845  13.172
22191SOL    HW268413   0.267   4.886  13.171
22192SOL     OW68414   8.060   2.416  13.361
22192SOL    HW168415   8.066   2.363  13.281
22192SOL    HW268416   8.151   2.433  13.385
22193SOL     OW68417  11.746  12.044  12.105
22193SOL    HW168418  11.664  11.998  12.087
22193SOL    HW268419  11.774  12.077  12.019
22194SOL     OW68420   4.266   0.377  11.167
22194SOL    HW168421   4.267   0.289  11.128
22194SOL    HW268422   4.208   0.428  11.111
22195SOL     OW68423   3.071   5.018   5.968
22195SOL    HW168424   3.121   5.049   5.893
22195SOL    HW268425   3.037   4.932   5.941
22196SOL     OW68426  13.157   4.533   1.072
22196SOL    HW168427  13.121   4.464   1.015
22196SOL    HW268428  13.083   4.561   1.125
22197SOL     OW68429   9.066  14.642   1.739
22197SOL    HW168430   9.126  14.695   1.686
22197SOL    HW268431   8.982  14.646   1.692
22198SOL     OW68432   8.291  12.986   6.861
22198SOL    HW168433   8.242  12.918   6.815
22198SOL    HW268434   8.234  13.063   6.857
22199SOL     OW68435   8.820  14.147   6.396
22199SOL    HW168436   8.870  14.182   6.322
22199SOL    HW268437   8.887  14.111   6.454
22200SOL     OW68438   1.897  10.908   1.276
22200SOL    HW168439   1.859  10.976   1.332
22200SOL    HW268440   1.974  10.878   1.325
22201SOL     OW68441   1.789   3.928   4.907
22201SOL    HW168442   1.819   3.890   4.990
22201SOL    HW268443   1.818   3.865   4.840
22202SOL     OW68444   9.758   3.658   4.917
22202SOL    HW168445   9.846   3.684   4.891
22202SOL    HW268446   9.768   3.568   4.947
22203SOL     OW68447   4.283  11.038   6.371
22203SOL    HW168448   4.350  11.031   6.439
22203SOL    HW268449   4.203  11.060   6.418
22204SOL     OW68450   5.268   3.179  10.187
22204SOL    HW168451   5.194   3.236  10.209
22204SOL    HW268452   5.278   3.188  10.093
22205SOL     OW68453   2.332   2.083   2.915
22205SOL    HW168454   2.250   2.132   2.915
22205SOL    HW268455   2.388   2.129   2.853
22206SOL     OW68456  10.308   3.690   9.671
22206SOL    HW168457  10.315   3.784   9.686
22206SOL    HW268458  10.305   3.681   9.575
22207SOL     OW68459   7.010  14.492  14.585
22207SOL    HW168460   7.042  14.403  14.569
22207SOL    HW268461   7.004  14.531  14.497
22208SOL     OW68462  12.316  14.315   3.482
22208SOL    HW168463  12.328  14.240   3.423
22208SOL    HW268464  12.361  14.387   3.437
22209SOL     OW68465   6.008   8.348   7.826
22209SOL    HW168466   5.934   8.295   7.855
22209SOL    HW268467   6.011   8.336   7.731
22210SOL     OW68468  10.330  14.500   9.823
22210SOL    HW168469  10.339  14.508   9.728
22210SOL    HW268470  10.413  14.463   9.853
22211SOL     OW68471   3.788   8.090  13.141
22211SOL    HW168472   3.709   8.081  13.195
22211SOL    HW268473   3.799   8.004  13.100
22212SOL     OW68474  13.463   7.945   6.972
22212SOL    HW168475  13.517   7.922   6.896
22212SOL    HW268476  13.374   7.948   6.938
22213SOL     OW68477  14.168  14.110   0.117
22213SOL    HW168478  14.255  14.129   0.082
22213SOL    HW268479  14.143  14.027   0.076
22214SOL     OW68480  10.698   2.656   7.738
22214SOL    HW168481  10.747   2.738   7.728
22214SOL    HW268482  10.735   2.615   7.816
22215SOL     OW68483   9.943   6.163   1.260
22215SOL    HW168484   9.864   6.217   1.259
22215SOL    HW268485   9.952   6.135   1.351
22216SOL     OW68486  14.104   3.112  12.778
22216SOL    HW168487  14.171   3.180  12.779
22216SOL    HW268488  14.146   3.037  12.820
22217SOL     OW68489  14.297   9.129   3.268
22217SOL    HW168490  14.327   9.180   3.343
22217SOL    HW268491  14.279   9.042   3.304
22218SOL     OW68492  12.262   1.760   7.026
22218SOL    HW168493  12.338   1.814   7.046
22218SOL    HW268494  12.212   1.812   6.962
22219SOL     OW68495   5.967  11.592   6.858
22219SOL    HW168496   6.006  11.512   6.895
22219SOL    HW268497   6.021  11.610   6.780
22220SOL     OW68498  11.156   7.320   0.964
22220SOL    HW168499  11.226   7.362   1.014
22220SOL    HW268500  11.138   7.239   1.011
22221SOL     OW68501  11.836  10.128  12.084
22221SOL    HW168502  11.892  10.076  12.141
22221SOL    HW268503  11.822  10.073  12.007
22222SOL     OW68504   6.324   2.533   1.563
22222SOL    HW168505   6.406   2.566   1.600
22222SOL    HW268506   6.337   2.536   1.468
22223SOL     OW68507  14.524   7.948  11.105
22223SOL    HW168508  14.597   7.985  11.154
22223SOL    HW268509  14.459   7.924  11.171
22224SOL     OW68510  13.385   1.426  12.040
22224SOL    HW168511  13.468   1.451  12.080
22224SOL    HW268512  13.395   1.451  11.948
22225SOL     OW68513   8.659   0.785   3.451
22225SOL    HW168514   8.566   0.761   3.442
22225SOL    HW268515   8.661   0.879   3.434
22226SOL     OW68516   1.788   8.165   4.984
22226SOL    HW168517   1.740   8.248   4.981
22226SOL    HW268518   1.763   8.127   5.068
22227SOL     OW68519   0.866   4.701   6.309
22227SOL    HW168520   0.775   4.676   6.291
22227SOL    HW268521   0.859   4.764   6.381
22228SOL     OW68522  10.947  10.654   4.767
22228SOL    HW168523  11.033  10.613   4.753
22228SOL    HW268524  10.886  10.580   4.775
22229SOL     OW68525   4.869  13.144   4.478
22229SOL    HW168526   4.952  13.112   4.442
22229SOL    HW268527   4.854  13.091   4.556
22230SOL     OW68528  14.727   4.670   8.804
22230SOL    HW168529  14.742   4.577   8.819
22230SOL    HW268530  14.636   4.684   8.832
22231SOL     OW68531  10.192   4.248   3.155
22231SOL    HW168532  10.285   4.245   3.135
22231SOL    HW268533  10.175   4.339   3.181
22232SOL     OW68534   2.364  13.168   3.163
22232SOL    HW168535   2.327  13.135   3.245
22232SOL    HW268536   2.383  13.089   3.112
22233SOL     OW68537  14.730  14.797   3.468
22233SOL    HW168538  14.816  14.762   3.448
22233SOL    HW268539  14.747  14.871   3.526
22234SOL     OW68540   1.505   6.259   9.740
22234SOL    HW168541   1.484   6.321   9.671
22234SOL    HW268542   1.561   6.308   9.800
22235SOL     OW68543  11.559   7.898   5.036
22235SOL    HW168544  11.653   7.910   5.050
22235SOL    HW268545  11.549   7.893   4.941
22236SOL     OW68546   6.036  14.780  14.350
22236SOL    HW168547   6.036  14.696  14.396
22236SOL    HW268548   6.112  14.776  14.293
22237SOL     OW68549  12.098  14.752  14.420
22237SOL    HW168550  12.025  14.707  14.377
22237SOL    HW268551  12.147  14.793  14.349
22238SOL     OW68552   6.852   5.338  11.945
22238SOL    HW168553   6.923   5.398  11.967
22238SOL    HW268554   6.840   5.349  11.850
22239SOL     OW68555   6.074  11.826  14.468
22239SOL    HW168556   6.121  11.786  14.541
22239SOL    HW268557   6.142  11.847  14.404
22240SOL     OW68558   9.502   8.487   9.240
22240SOL    HW168559   9.499   8.444   9.155
22240SOL    HW268560   9.413   8.483   9.273
22241SOL     OW68561   3.351  12.021   1.391
22241SOL    HW168562   3.418  11.995   1.327
22241SOL    HW268563   3.340  11.943   1.446
22242SOL     OW68564  10.258   7.342   4.755
22242SOL    HW168565  10.194   7.322   4.824
22242SOL    HW268566  10.285   7.256   4.722
22243SOL     OW68567   6.254  12.522  10.587
22243SOL    HW168568   6.247  12.427  10.579
22243SOL    HW268569   6.254  12.538  10.682
22244SOL     OW68570  13.827   1.546  14.036
22244SOL    HW168571  13.757   1.517  14.094
22244SOL    HW268572  13.901   1.489  14.058
22245SOL     OW68573   2.954  12.285   8.197
22245SOL    HW168574   2.949  12.277   8.102
22245SOL    HW268575   3.044  12.260   8.218
22246SOL     OW68576   5.800   9.162   1.248
22246SOL    HW168577   5.725   9.123   1.204
22246SOL    HW268578   5.793   9.255   1.229
22247SOL     OW68579   8.928   9.293  13.646
22247SOL    HW168580   8.999   9.356  13.657
22247SOL    HW268581   8.967   9.221  13.595
22248SOL     OW68582   1.225   4.711   6.407
22248SOL    HW168583   1.289   4.657   6.453
22248SOL    HW268584   1.170   4.649   6.361
22249SOL     OW68585   1.241   7.153  13.200
22249SOL    HW168586   1.202   7.205  13.271
22249SOL    HW268587   1.227   7.205  13.121
22250SOL     OW68588   4.914   7.162   2.366
22250SOL    HW168589   4.939   7.095   2.429
22250SOL    HW268590   4.992   7.173   2.311
22251SOL     OW68591  10.891   8.196   1.858
22251SOL    HW168592  10.869   8.234   1.943
22251SOL    HW268593  10.828   8.125   1.845
22252SOL     OW68594   8.113  11.026   0.611
22252SOL    HW168595   8.188  11.032   0.671
22252SOL    HW268596   8.136  10.956   0.551
22253SOL     OW68597   5.262  14.042  13.055
22253SOL    HW168598   5.260  14.023  13.149
22253SOL    HW268599   5.180  14.087  13.037
22254SOL     OW68600   4.682   3.437   8.078
22254SOL    HW168601   4.737   3.379   8.131
22254SOL    HW268602   4.607   3.457   8.134
22255SOL     OW68603   8.556  12.951   3.336
22255SOL    HW168604   8.528  12.890   3.267
22255SOL    HW268605   8.581  13.030   3.289
22256SOL     OW68606  11.788  11.703   9.185
22256SOL    HW168607  11.852  11.674   9.251
22256SOL    HW268608  11.761  11.790   9.214
22257SOL     OW68609   1.540  13.356  11.642
22257SOL    HW168610   1.591  13.348  11.561
22257SOL    HW268611   1.592  13.414  11.697
22258SOL     OW68612  10.175   4.248  10.628
22258SOL    HW168613  10.127   4.287  10.701
22258SOL    HW268614  10.191   4.322  10.568
22259SOL     OW68615   9.989  10.859  13.668
22259SOL    HW168616  10.075  10.858  13.710
22259SOL    HW268617   9.929  10.826  13.735
22260SOL     OW68618   9.559   8.240   4.323
22260SOL    HW168619   9.609   8.229   4.404
22260SOL    HW268620   9.623   8.229   4.253
22261SOL     OW68621   3.489  11.855   6.116
22261SOL    HW168622   3.490  11.801   6.037
22261SOL    HW268623   3.397  11.874   6.132
22262SOL     OW68624   7.903  11.845  14.194
22262SOL    HW168625   7.977  11.880  14.244
22262SOL    HW268626   7.872  11.919  14.142
22263SOL     OW68627   2.868  11.572  12.683
22263SOL    HW168628   2.836  11.655  12.717
22263SOL    HW268629   2.916  11.594  12.604
22264SOL     OW68630   4.864   9.907  12.956
22264SOL    HW168631   4.933   9.973  12.969
22264SOL    HW268632   4.909   9.823  12.967
22265SOL     OW68633   7.134  13.067   0.019
22265SOL    HW168634   7.120  13.154   0.055
22265SOL    HW268635   7.048  13.024   0.023
22266SOL     OW68636  10.589   2.313   4.665
22266SOL    HW168637  10.574   2.234   4.716
22266SOL    HW268638  10.518   2.315   4.601
22267SOL     OW68639   5.527   9.269  13.926
22267SOL    HW168640   5.444   9.299  13.889
22267SOL    HW268641   5.594   9.309  13.870
22268SOL     OW68642  11.333   9.582   5.567
22268SOL    HW168643  11.279   9.583   5.646
22268SOL    HW268644  11.327   9.493   5.534
22269SOL     OW68645  14.835   0.187  13.353
22269SOL    HW168646  14.858   0.213  13.443
22269SOL    HW268647  14.870   0.099  13.344
22270SOL     OW68648  12.507   3.677   3.458
22270SOL    HW168649  12.574   3.724   3.507
22270SOL    HW268650  12.424   3.711   3.493
22271SOL     OW68651   6.088   2.612   0.942
22271SOL    HW168652   6.099   2.560   1.022
22271SOL    HW268653   6.095   2.548   0.871
22272SOL     OW68654   4.496   5.213   8.196
22272SOL    HW168655   4.458   5.129   8.169
22272SOL    HW268656   4.590   5.199   8.191
22273SOL     OW68657   2.915   5.112   3.461
22273SOL    HW168658   3.011   5.105   3.456
22273SOL    HW268659   2.886   5.023   3.483
22274SOL     OW68660   3.498   4.811  10.687
22274SOL    HW168661   3.464   4.814  10.777
22274SOL    HW268662   3.422   4.795  10.632
22275SOL     OW68663   2.140  14.841   3.938
22275SOL    HW168664   2.057  14.801   3.966
22275SOL    HW268665   2.118   0.057   3.926
22276SOL     OW68666  11.796   8.728  14.160
22276SOL    HW168667  11.850   8.791  14.111
22276SOL    HW268668  11.806   8.754  14.251
22277SOL     OW68669  13.643  11.301   0.552
22277SOL    HW168670  13.588  11.269   0.623
22277SOL    HW268671  13.646  11.229   0.489
22278SOL     OW68672   4.042  13.708   9.045
22278SOL    HW168673   4.019  13.647   8.975
22278SOL    HW268674   4.004  13.669   9.124
22279SOL     OW68675   3.342   3.907  13.514
22279SOL    HW168676   3.435   3.886  13.527
22279SOL    HW268677   3.311   3.841  13.452
22280SOL     OW68678  11.132   3.379  11.927
22280SOL    HW168679  11.167   3.400  11.841
22280SOL    HW268680  11.149   3.457  11.980
22281SOL     OW68681  12.917   8.803   7.475
22281SOL    HW168682  12.990   8.753   7.440
22281SOL    HW268683  12.876   8.744   7.538
22282SOL     OW68684  12.696   8.570  14.339
22282SOL    HW168685  12.714   8.543  14.429
22282SOL    HW268686  12.749   8.649  14.326
22283SOL     OW68687  10.041   8.707  10.015
22283SOL    HW168688  10.117   8.654  10.038
22283SOL    HW268689   9.966   8.656  10.046
22284SOL     OW68690   6.058   5.758   9.814
22284SOL    HW168691   5.965   5.735   9.803
22284SOL    HW268692   6.099   5.677   9.845
22285SOL     OW68693  11.232  10.909  10.747
22285SOL    HW168694  11.228  10.865  10.832
22285SOL    HW268695  11.315  10.880  10.709
22286SOL     OW68696  14.376   5.094   2.666
22286SOL    HW168697  14.285   5.070   2.680
22286SOL    HW268698  14.374   5.187   2.644
22287SOL     OW68699   2.639   0.799   7.131
22287SOL    HW168700   2.714   0.840   7.089
22287SOL    HW268701   2.619   0.856   7.205
22288SOL     OW68702  13.662   6.836   9.756
22288SOL    HW168703  13.746   6.840   9.711
22288SOL    HW268704  13.600   6.805   9.690
22289SOL     OW68705  11.958   1.337  13.525
22289SOL    HW168706  11.901   1.272  13.566
22289SOL    HW268707  11.898   1.400  13.484
22290SOL     OW68708   6.218  10.653   4.135
22290SOL    HW168709   6.286  10.648   4.067
22290SOL    HW268710   6.257  10.608   4.210
22291SOL     OW68711   2.412   2.957  14.222
22291SOL    HW168712   2.380   2.870  14.249
22291SOL    HW268713   2.384   2.965  14.131
22292SOL     OW68714   4.429  14.270   2.274
22292SOL    HW168715   4.495  14.222   2.225
22292SOL    HW268716   4.455  14.261   2.365
22293SOL     OW68717  10.876  13.020  11.895
22293SOL    HW168718  10.944  12.977  11.843
22293SOL    HW268719  10.918  13.101  11.926
22294SOL     OW68720   1.454   7.174   7.148
22294SOL    HW168721   1.472   7.085   7.179
22294SOL    HW268722   1.525   7.227   7.184
22295SOL     OW68723   6.434   7.165  12.621
22295SOL    HW168724   6.528   7.178  12.621
22295SOL    HW268725   6.397   7.253  12.632
22296SOL     OW68726  10.822   4.861   5.881
22296SOL    HW168727  10.790   4.898   5.799
22296SOL    HW268728  10.861   4.935   5.927
22297SOL     OW68729   8.166  14.549   1.756
22297SOL    HW168730   8.247  14.497   1.753
22297SOL    HW268731   8.132  14.536   1.844
22298SOL     OW68732  11.142  14.468   7.706
22298SOL    HW168733  11.145  14.463   7.801
22298SOL    HW268734  11.198  14.396   7.676
22299SOL     OW68735  12.835   1.939   5.526
22299SOL    HW168736  12.883   1.890   5.460
22299SOL    HW268737  12.756   1.970   5.481
22300SOL     OW68738   4.232   9.014   0.876
22300SOL    HW168739   4.202   9.047   0.960
22300SOL    HW268740   4.264   9.092   0.830
22301SOL     OW68741   1.157  14.766  11.619
22301SOL    HW168742   1.100  14.725  11.554
22301SOL    HW268743   1.228  14.805  11.568
22302SOL     OW68744   2.582   9.609   1.562
22302SOL    HW168745   2.531   9.686   1.537
22302SOL    HW268746   2.593   9.618   1.657
22303SOL     OW68747   3.314  13.730   1.607
22303SOL    HW168748   3.283  13.721   1.517
22303SOL    HW268749   3.299  13.644   1.646
22304SOL     OW68750   0.361   3.065  12.597
22304SOL    HW168751   0.299   3.136  12.581
22304SOL    HW268752   0.417   3.097  12.668
22305SOL     OW68753  13.753   9.165  13.221
22305SOL    HW168754  13.813   9.187  13.150
22305SOL    HW268755  13.729   9.074  13.206
22306SOL     OW68756   7.073  14.373   7.862
22306SOL    HW168757   7.139  14.427   7.905
22306SOL    HW268758   6.990  14.401   7.901
22307SOL     OW68759   9.084  14.860   5.788
22307SOL    HW168760   9.055   0.042   5.858
22307SOL    HW268761   9.137   0.039   5.731
22308SOL     OW68762  13.081   8.564  12.360
22308SOL    HW168763  13.069   8.657  12.342
22308SOL    HW268764  13.174   8.549  12.346
22309SOL     OW68765   6.709   7.580   9.151
22309SOL    HW168766   6.664   7.663   9.165
22309SOL    HW268767   6.792   7.590   9.196
22310SOL     OW68768  12.547   1.184   1.221
22310SOL    HW168769  12.557   1.126   1.297
22310SOL    HW268770  12.627   1.236   1.220
22311SOL     OW68771  11.859   7.419  13.432
22311SOL    HW168772  11.896   7.396  13.347
22311SOL    HW268773  11.876   7.343  13.487
22312SOL     OW68774   6.358  12.971   2.489
22312SOL    HW168775   6.390  12.923   2.413
22312SOL    HW268776   6.393  12.924   2.564
22313SOL     OW68777  12.711   3.171  12.970
22313SOL    HW168778  12.678   3.203  12.886
22313SOL    HW268779  12.791   3.223  12.985
22314SOL     OW68780   9.313  10.744   7.272
22314SOL    HW168781   9.339  10.652   7.282
22314SOL    HW268782   9.220  10.741   7.251
22315SOL     OW68783   4.860  11.139  13.316
22315SOL    HW168784   4.884  11.060  13.268
22315SOL    HW268785   4.885  11.211  13.258
22316SOL     OW68786   6.831   8.168   4.998
22316SOL    HW168787   6.882   8.111   5.056
22316SOL    HW268788   6.740   8.146   5.016
22317SOL     OW68789   4.266   9.747   1.147
22317SOL    HW168790   4.306   9.673   1.102
22317SOL    HW268791   4.309   9.824   1.110
22318SOL     OW68792   6.209   4.969   9.690
22318SOL    HW168793   6.198   5.055   9.648
22318SOL    HW268794   6.233   4.910   9.618
22319SOL     OW68795   7.386  14.847   2.115
22319SOL    HW168796   7.454   0.015   2.165
22319SOL    HW268797   7.311  14.842   2.175
22320SOL     OW68798  14.483   1.380   4.682
22320SOL    HW168799  14.543   1.429   4.739
22320SOL    HW268800  14.526   1.379   4.597
22321SOL     OW68801   8.656   1.645  12.171
22321SOL    HW168802   8.704   1.630  12.090
22321SOL    HW268803   8.572   1.601  12.159
22322SOL     OW68804   0.601   9.198  14.707
22322SOL    HW168805   0.516   9.173  14.744
22322SOL    HW268806   0.627   9.275  14.756
22323SOL     OW68807  13.591   8.373   0.701
22323SOL    HW168808  13.515   8.376   0.759
22323SOL    HW268809  13.615   8.465   0.689
22324SOL     OW68810   1.396   7.060   1.715
22324SOL    HW168811   1.365   7.015   1.636
22324SOL    HW268812   1.371   7.004   1.787
22325SOL     OW68813   7.273  13.173   0.480
22325SOL    HW168814   7.335  13.135   0.418
22325SOL    HW268815   7.295  13.266   0.483
22326SOL     OW68816   7.431   8.303   0.511
22326SOL    HW168817   7.376   8.226   0.501
22326SOL    HW268818   7.395   8.350   0.586
22327SOL     OW68819   1.063   3.215  11.369
22327SOL    HW168820   1.010   3.193  11.293
22327SOL    HW268821   1.153   3.201  11.341
22328SOL     OW68822  10.730  10.394   2.033
22328SOL    HW168823  10.753  10.457   2.101
22328SOL    HW268824  10.690  10.447   1.964
22329SOL     OW68825  14.613  14.455  14.019
22329SOL    HW168826  14.549  14.453  14.090
22329SOL    HW268827  14.652  14.368  14.019
22330SOL     OW68828   3.618  13.239  10.096
22330SOL    HW168829   3.546  13.285  10.051
22330SOL    HW268830   3.575  13.191  10.167
22331SOL     OW68831   1.863   1.876  12.076
22331SOL    HW168832   1.939   1.843  12.124
22331SOL    HW268833   1.817   1.798  12.045
22332SOL     OW68834  13.333  14.553   8.925
22332SOL    HW168835  13.342  14.497   8.847
22332SOL    HW268836  13.284  14.629   8.894
22333SOL     OW68837   5.979   9.075  14.074
22333SOL    HW168838   5.948   9.166  14.071
22333SOL    HW268839   5.903   9.024  14.101
22334SOL     OW68840   9.713  10.462   3.080
22334SOL    HW168841   9.697  10.509   2.999
22334SOL    HW268842   9.744  10.528   3.141
22335SOL     OW68843   8.986   2.181   4.187
22335SOL    HW168844   8.906   2.222   4.219
22335SOL    HW268845   9.049   2.254   4.179
22336SOL     OW68846  13.786   2.829   5.899
22336SOL    HW168847  13.877   2.806   5.879
22336SOL    HW268848  13.735   2.754   5.869
22337SOL     OW68849   4.661   5.354   4.460
22337SOL    HW168850   4.614   5.378   4.540
22337SOL    HW268851   4.751   5.341   4.489
22338SOL     OW68852   2.369   5.560  11.962
22338SOL    HW168853   2.374   5.643  11.914
22338SOL    HW268854   2.439   5.506  11.924
22339SOL     OW68855   9.074   3.273   4.607
22339SOL    HW168856   9.155   3.318   4.584
22339SOL    HW268857   9.054   3.219   4.530
22340SOL     OW68858   7.701   6.301  10.424
22340SOL    HW168859   7.766   6.266  10.364
22340SOL    HW268860   7.625   6.322  10.369
22341SOL     OW68861   2.633   4.277   2.440
22341SOL    HW168862   2.713   4.255   2.392
22341SOL    HW268863   2.649   4.365   2.475
22342SOL     OW68864   8.562  13.468   1.329
22342SOL    HW168865   8.503  13.503   1.396
22342SOL    HW268866   8.542  13.374   1.326
22343SOL     OW68867   2.109  11.890  12.218
22343SOL    HW168868   2.109  11.795  12.230
22343SOL    HW268869   2.065  11.903  12.134
22344SOL     OW68870   2.391   6.625   8.548
22344SOL    HW168871   2.476   6.616   8.505
22344SOL    HW268872   2.386   6.718   8.570
22345SOL     OW68873   0.067  13.925   5.841
22345SOL    HW168874   0.082  14.002   5.786
22345SOL    HW268875   0.155  13.897   5.867
22346SOL     OW68876  14.480   0.105  10.418
22346SOL    HW168877  14.496   0.110  10.512
22346SOL    HW268878  14.555   0.149  10.378
22347SOL     OW68879   9.524   6.430  13.308
22347SOL    HW168880   9.462   6.480  13.361
22347SOL    HW268881   9.599   6.416  13.366
22348SOL     OW68882  11.481   6.471   4.552
22348SOL    HW168883  11.502   6.456   4.460
22348SOL    HW268884  11.401   6.523   4.551
22349SOL     OW68885   4.105   3.515   9.558
22349SOL    HW168886   4.086   3.564   9.478
22349SOL    HW268887   4.020   3.503   9.600
22350SOL     OW68888  12.235   9.663  13.660
22350SOL    HW168889  12.248   9.648  13.567
22350SOL    HW268890  12.319   9.699  13.690
22351SOL     OW68891  11.374   2.442   3.293
22351SOL    HW168892  11.394   2.491   3.214
22351SOL    HW268893  11.333   2.361   3.262
22352SOL     OW68894   0.296   8.350  13.467
22352SOL    HW168895   0.254   8.278  13.419
22352SOL    HW268896   0.246   8.427  13.442
22353SOL     OW68897   6.833  14.178  11.606
22353SOL    HW168898   6.841  14.273  11.605
22353SOL    HW268899   6.895  14.148  11.540
22354SOL     OW68900   3.649   8.038  11.454
22354SOL    HW168901   3.626   8.091  11.530
22354SOL    HW268902   3.576   7.978  11.443
22355SOL     OW68903   8.604   2.911   4.410
22355SOL    HW168904   8.615   2.825   4.448
22355SOL    HW268905   8.647   2.971   4.471
22356SOL     OW68906   2.926   3.833   9.761
22356SOL    HW168907   2.887   3.748   9.780
22356SOL    HW268908   2.939   3.872   9.848
22357SOL     OW68909   4.873   6.165   6.921
22357SOL    HW168910   4.965   6.145   6.938
22357SOL    HW268911   4.876   6.248   6.873
22358SOL     OW68912   7.092  14.696   0.588
22358SOL    HW168913   7.164  14.649   0.545
22358SOL    HW268914   7.021  14.633   0.592
22359SOL     OW68915   9.650   6.478   0.449
22359SOL    HW168916   9.716   6.455   0.383
22359SOL    HW268917   9.701   6.514   0.522
22360SOL     OW68918   4.845   6.149   1.074
22360SOL    HW168919   4.780   6.163   1.143
22360SOL    HW268920   4.921   6.113   1.120
22361SOL     OW68921  10.267  13.896   9.674
22361SOL    HW168922  10.234  13.808   9.657
22361SOL    HW268923  10.348  13.883   9.722
22362SOL     OW68924   9.630   2.714   7.846
22362SOL    HW168925   9.675   2.630   7.849
22362SOL    HW268926   9.687   2.770   7.793
22363SOL     OW68927  13.820   9.837   4.719
22363SOL    HW168928  13.901   9.811   4.675
22363SOL    HW268929  13.773   9.755   4.734
22364SOL     OW68930   1.188   7.917  12.645
22364SOL    HW168931   1.119   7.883  12.702
22364SOL    HW268932   1.171   7.877  12.560
22365SOL     OW68933   9.735   8.649   6.453
22365SOL    HW168934   9.691   8.655   6.368
22365SOL    HW268935   9.701   8.722   6.504
22366SOL     OW68936   4.952   5.922  14.106
22366SOL    HW168937   4.902   5.918  14.025
22366SOL    HW268938   5.033   5.965  14.083
22367SOL     OW68939   4.234  10.984   3.324
22367SOL    HW168940   4.254  10.972   3.417
22367SOL    HW268941   4.319  10.982   3.281
22368SOL     OW68942  12.615   2.145   7.190
22368SOL    HW168943  12.650   2.176   7.106
22368SOL    HW268944  12.662   2.064   7.206
22369SOL     OW68945   3.500   2.009   9.874
22369SOL    HW168946   3.507   2.026   9.780
22369SOL    HW268947   3.408   2.025   9.894
22370SOL     OW68948   8.905   9.996   8.519
22370SOL    HW168949   8.893   9.903   8.537
22370SOL    HW268950   8.907  10.002   8.423
22371SOL     OW68951   1.467   7.974   4.481
22371SOL    HW168952   1.457   8.045   4.417
22371SOL    HW268953   1.439   7.895   4.434
22372SOL     OW68954   7.882   1.097  10.564
22372SOL    HW168955   7.887   1.001  10.567
22372SOL    HW268956   7.886   1.118  10.471
22373SOL     OW68957  13.381  10.871   5.617
22373SOL    HW168958  13.458  10.915   5.653
22373SOL    HW268959  13.307  10.915   5.657
22374SOL     OW68960   5.759  12.428  10.429
22374SOL    HW168961   5.775  12.481  10.351
22374SOL    HW268962   5.817  12.353  10.420
22375SOL     OW68963   8.295  12.390  13.567
22375SOL    HW168964   8.373  12.380  13.621
22375SOL    HW268965   8.309  12.472  13.518
22376SOL     OW68966   5.586   4.840   2.651
22376SOL    HW168967   5.667   4.858   2.697
22376SOL    HW268968   5.522   4.899   2.691
22377SOL     OW68969   2.743   7.839  14.279
22377SOL    HW168970   2.813   7.774  14.267
22377SOL    HW268971   2.716   7.861  14.190
22378SOL     OW68972   8.597   6.342   7.924
22378SOL    HW168973   8.613   6.433   7.899
22378SOL    HW268974   8.588   6.344   8.019
22379SOL     OW68975   4.202   1.480   1.481
22379SOL    HW168976   4.204   1.485   1.576
22379SOL    HW268977   4.281   1.430   1.458
22380SOL     OW68978   8.708   1.191  12.404
22380SOL    HW168979   8.776   1.256  12.387
22380SOL    HW268980   8.634   1.218  12.349
22381SOL     OW68981   4.019  12.931   1.807
22381SOL    HW168982   4.033  12.851   1.857
22381SOL    HW268983   3.940  12.969   1.844
22382SOL     OW68984   1.285   5.368   1.678
22382SOL    HW168985   1.213   5.313   1.647
22382SOL    HW268986   1.323   5.318   1.750
22383SOL     OW68987   8.328   7.287  10.214
22383SOL    HW168988   8.251   7.251  10.170
22383SOL    HW268989   8.400   7.229  10.189
22384SOL     OW68990   1.994   2.478  10.707
22384SOL    HW168991   2.007   2.570  10.685
22384SOL    HW268992   1.908   2.457  10.669
22385SOL     OW68993   2.225   0.467  12.074
22385SOL    HW168994   2.215   0.391  12.130
22385SOL    HW268995   2.147   0.467  12.018
22386SOL     OW68996  13.605   5.877   9.657
22386SOL    HW168997  13.597   5.855   9.749
22386SOL    HW268998  13.656   5.806   9.619
22387SOL     OW68999  12.652   5.607   6.882
22387SOL    HW169000  12.692   5.525   6.911
22387SOL    HW269001  12.653   5.602   6.787
22388SOL     OW69002   3.699   7.494   3.928
22388SOL    HW169003   3.772   7.433   3.918
22388SOL    HW269004   3.623   7.446   3.896
22389SOL     OW69005   7.177   3.885   4.636
22389SOL    HW169006   7.093   3.922   4.611
22389SOL    HW269007   7.158   3.835   4.716
22390SOL     OW69008   8.614   6.868   8.132
22390SOL    HW169009   8.563   6.802   8.178
22390SOL    HW269010   8.643   6.825   8.051
22391SOL     OW69011   2.987   5.346   4.015
22391SOL    HW169012   3.069   5.307   4.046
22391SOL    HW269013   2.949   5.386   4.094
22392SOL     OW69014   3.867  13.789  12.447
22392SOL    HW169015   3.956  13.761  12.470
22392SOL    HW269016   3.822  13.798  12.531
22393SOL     OW69017  13.899  10.998  14.136
22393SOL    HW169018  13.903  11.087  14.101
22393SOL    HW269019  13.834  10.953  14.081
22394SOL     OW69020   3.907   9.221  10.191
22394SOL    HW169021   3.994   9.261  10.198
22394SOL    HW269022   3.874   9.250  10.106
22395SOL     OW69023   6.694   8.342   2.089
22395SOL    HW169024   6.779   8.383   2.105
22395SOL    HW269025   6.665   8.313   2.176
22396SOL     OW69026   3.847   4.098   9.478
22396SOL    HW169027   3.787   4.035   9.440
22396SOL    HW269028   3.926   4.048   9.497
22397SOL     OW69029   5.074  13.707   0.645
22397SOL    HW169030   5.169  13.691   0.648
22397SOL    HW269031   5.049  13.687   0.555
22398SOL     OW69032   1.314   5.254  14.636
22398SOL    HW169033   1.359   5.290  14.712
22398SOL    HW269034   1.224   5.243  14.664
22399SOL     OW69035   9.263  13.546  11.912
22399SOL    HW169036   9.235  13.479  11.974
22399SOL    HW269037   9.188  13.559  11.854
22400SOL     OW69038   5.763   4.043  11.788
22400SOL    HW169039   5.668   4.054  11.788
22400SOL    HW269040   5.778   3.961  11.833
22401SOL     OW69041   5.708   0.611   9.954
22401SOL    HW169042   5.663   0.554  10.016
22401SOL    HW269043   5.688   0.700   9.984
22402SOL     OW69044   6.999  14.285   4.545
22402SOL    HW169045   7.064  14.298   4.476
22402SOL    HW269046   6.995  14.368   4.591
22403SOL     OW69047   3.352   1.807   5.520
22403SOL    HW169048   3.414   1.850   5.461
22403SOL    HW269049   3.379   1.715   5.521
22404SOL     OW69050  14.651  11.096  10.978
22404SOL    HW169051  14.737  11.088  10.938
22404SOL    HW269052  14.601  11.023  10.941
22405SOL     OW69053  11.122  12.390   4.546
22405SOL    HW169054  11.055  12.387   4.478
22405SOL    HW269055  11.132  12.299   4.574
22406SOL     OW69056   9.336   9.677   9.215
22406SOL    HW169057   9.266   9.723   9.261
22406SOL    HW269058   9.414   9.729   9.233
22407SOL     OW69059   0.069   9.477   4.739
22407SOL    HW169060   0.086   9.567   4.712
22407SOL    HW269061  14.870   9.484   4.798
22408SOL     OW69062   4.278  11.133  14.443
22408SOL    HW169063   4.320  11.168  14.521
22408SOL    HW269064   4.264  11.041  14.463
22409SOL     OW69065   7.657  14.140   4.774
22409SOL    HW169066   7.740  14.140   4.823
22409SOL    HW269067   7.602  14.076   4.820
22410SOL     OW69068   9.120   2.817   7.101
22410SOL    HW169069   9.032   2.834   7.133
22410SOL    HW269070   9.125   2.864   7.018
22411SOL     OW69071   6.775  12.025  10.281
22411SOL    HW169072   6.731  12.084  10.219
22411SOL    HW269073   6.868  12.035  10.262
22412SOL     OW69074  10.153   4.513   4.721
22412SOL    HW169075  10.102   4.437   4.748
22412SOL    HW269076  10.087   4.581   4.704
22413SOL     OW69077  12.900  14.687  12.841
22413SOL    HW169078  12.903  14.780  12.863
22413SOL    HW269079  12.960  14.646  12.903
22414SOL     OW69080   5.650   8.343  14.065
22414SOL    HW169081   5.710   8.352  13.991
22414SOL    HW269082   5.698   8.290  14.129
22415SOL     OW69083  14.031   6.151   5.199
22415SOL    HW169084  14.082   6.121   5.124
22415SOL    HW269085  13.941   6.157   5.167
22416SOL     OW69086  12.958   4.599  12.620
22416SOL    HW169087  12.896   4.544  12.669
22416SOL    HW269088  12.935   4.585  12.528
22417SOL     OW69089   7.546   8.261  12.851
22417SOL    HW169090   7.463   8.292  12.815
22417SOL    HW269091   7.554   8.304  12.936
22418SOL     OW69092   8.733  12.856   4.478
22418SOL    HW169093   8.645  12.867   4.442
22418SOL    HW269094   8.771  12.785   4.425
22419SOL     OW69095   7.604  11.154   5.604
22419SOL    HW169096   7.657  11.123   5.678
22419SOL    HW269097   7.529  11.095   5.602
22420SOL     OW69098   0.753   9.106   3.707
22420SOL    HW169099   0.692   9.138   3.640
22420SOL    HW269100   0.778   9.019   3.676
22421SOL     OW69101   3.366   8.841   9.195
22421SOL    HW169102   3.408   8.923   9.218
22421SOL    HW269103   3.370   8.837   9.099
22422SOL     OW69104   3.608   4.793   7.970
22422SOL    HW169105   3.608   4.698   7.982
22422SOL    HW269106   3.640   4.828   8.054
22423SOL     OW69107  13.925  14.796   4.646
22423SOL    HW169108  13.900  14.874   4.597
22423SOL    HW269109  13.887  14.809   4.733
22424SOL     OW69110   7.872   5.691   5.467
22424SOL    HW169111   7.953   5.654   5.431
22424SOL    HW269112   7.805   5.671   5.401
22425SOL     OW69113  14.422   0.260   1.942
22425SOL    HW169114  14.335   0.232   1.971
22425SOL    HW269115  14.406   0.334   1.884
22426SOL     OW69116   8.578  14.261   5.105
22426SOL    HW169117   8.554  14.178   5.064
22426SOL    HW269118   8.518  14.325   5.066
22427SOL     OW69119   4.238  11.176  11.557
22427SOL    HW169120   4.226  11.111  11.488
22427SOL    HW269121   4.327  11.210  11.543
22428SOL     OW69122   1.522   2.966   7.268
22428SOL    HW169123   1.553   2.997   7.183
22428SOL    HW269124   1.600   2.960   7.322
22429SOL     OW69125  14.019  12.656   9.628
22429SOL    HW169126  14.033  12.750   9.617
22429SOL    HW269127  13.985  12.627   9.543
22430SOL     OW69128   0.612  10.825   8.397
22430SOL    HW169129   0.588  10.779   8.317
22430SOL    HW269130   0.552  10.792   8.464
22431SOL     OW69131   6.825  10.477   3.473
22431SOL    HW169132   6.858  10.396   3.513
22431SOL    HW269133   6.732  10.478   3.493
22432SOL     OW69134   0.842   7.306  14.125
22432SOL    HW169135   0.930   7.269  14.136
22432SOL    HW269136   0.811   7.268  14.042
22433SOL     OW69137   8.550  14.460   3.542
22433SOL    HW169138   8.527  14.482   3.452
22433SOL    HW269139   8.499  14.381   3.561
22434SOL     OW69140  14.420   6.581   7.391
22434SOL    HW169141  14.358   6.510   7.372
22434SOL    HW269142  14.368   6.661   7.380
22435SOL     OW69143   5.639   7.850   4.766
22435SOL    HW169144   5.708   7.883   4.824
22435SOL    HW269145   5.573   7.814   4.826
22436SOL     OW69146  13.559   9.561   9.698
22436SOL    HW169147  13.583   9.471   9.720
22436SOL    HW269148  13.630   9.592   9.642
22437SOL     OW69149   9.094  13.328   9.369
22437SOL    HW169150   9.103  13.319   9.274
22437SOL    HW269151   9.076  13.240   9.400
22438SOL     OW69152   0.486   6.726   8.144
22438SOL    HW169153   0.540   6.713   8.067
22438SOL    HW269154   0.445   6.641   8.160
22439SOL     OW69155   3.719   1.641  13.799
22439SOL    HW169156   3.655   1.635  13.870
22439SOL    HW269157   3.666   1.656  13.721
22440SOL     OW69158   2.575  13.853   1.149
22440SOL    HW169159   2.613  13.817   1.070
22440SOL    HW269160   2.490  13.887   1.122
22441SOL     OW69161   5.519  13.872  11.170
22441SOL    HW169162   5.576  13.915  11.235
22441SOL    HW269163   5.458  13.941  11.143
22442SOL     OW69164   2.472   3.323  13.274
22442SOL    HW169165   2.393   3.270  13.260
22442SOL    HW269166   2.473   3.383  13.199
22443SOL     OW69167   1.148   6.036   8.154
22443SOL    HW169168   1.167   6.126   8.182
22443SOL    HW269169   1.210   6.019   8.084
22444SOL     OW69170   7.633  11.216   7.488
22444SOL    HW169171   7.597  11.138   7.445
22444SOL    HW269172   7.680  11.262   7.419
22445SOL     OW69173   4.279   3.608   7.887
22445SOL    HW169174   4.231   3.680   7.928
22445SOL    HW269175   4.249   3.530   7.933
22446SOL     OW69176   5.992   6.394   3.355
22446SOL    HW169177   6.026   6.441   3.431
22446SOL    HW269178   5.968   6.463   3.293
22447SOL     OW69179   2.227  11.907   8.232
22447SOL    HW169180   2.272  11.896   8.148
22447SOL    HW269181   2.293  11.945   8.290
22448SOL     OW69182   1.710   9.346   1.211
22448SOL    HW169183   1.651   9.382   1.277
22448SOL    HW269184   1.794   9.389   1.228
22449SOL     OW69185  12.209   4.824  10.977
22449SOL    HW169186  12.145   4.892  10.956
22449SOL    HW269187  12.167   4.742  10.951
22450SOL     OW69188   1.406  12.655  14.383
22450SOL    HW169189   1.456  12.725  14.341
22450SOL    HW269190   1.473  12.598  14.422
22451SOL     OW69191  11.107  14.189   7.169
22451SOL    HW169192  11.174  14.205   7.235
22451SOL    HW269193  11.121  14.098   7.142
22452SOL     OW69194   6.495   3.382   9.042
22452SOL    HW169195   6.492   3.307   9.102
22452SOL    HW269196   6.429   3.364   8.976
22453SOL     OW69197  10.320   1.882  14.770
22453SOL    HW169198  10.412   1.900  14.751
22453SOL    HW269199  10.272   1.939  14.710
22454SOL     OW69200  10.775  10.604   4.044
22454SOL    HW169201  10.719  10.528   4.059
22454SOL    HW269202  10.813  10.590   3.957
22455SOL     OW69203   6.742  10.712   1.009
22455SOL    HW169204   6.752  10.673   0.923
22455SOL    HW269205   6.827  10.698   1.051
22456SOL     OW69206   0.799   6.077   8.168
22456SOL    HW169207   0.881   6.119   8.192
22456SOL    HW269208   0.824   6.002   8.114
22457SOL     OW69209   0.858   3.146   7.483
22457SOL    HW169210   0.778   3.190   7.455
22457SOL    HW269211   0.928   3.199   7.444
22458SOL     OW69212   1.880   9.334   6.520
22458SOL    HW169213   1.923   9.250   6.506
22458SOL    HW269214   1.947   9.389   6.561
22459SOL     OW69215   0.529  11.438  11.785
22459SOL    HW169216   0.512  11.378  11.858
22459SOL    HW269217   0.507  11.387  11.707
22460SOL     OW69218   7.543   1.639   1.912
22460SOL    HW169219   7.454   1.661   1.941
22460SOL    HW269220   7.599   1.667   1.984
22461SOL     OW69221   0.871   3.644   2.471
22461SOL    HW169222   0.860   3.620   2.379
22461SOL    HW269223   0.783   3.669   2.500
22462SOL     OW69224   7.084   9.190   7.232
22462SOL    HW169225   7.045   9.245   7.299
22462SOL    HW269226   7.115   9.113   7.279
22463SOL     OW69227  11.015   8.730  12.531
22463SOL    HW169228  11.014   8.666  12.460
22463SOL    HW269229  10.972   8.808  12.494
22464SOL     OW69230   9.224   9.465   4.941
22464SOL    HW169231   9.144   9.516   4.926
22464SOL    HW269232   9.250   9.436   4.854
22465SOL     OW69233  10.535   2.934   4.702
22465SOL    HW169234  10.525   2.879   4.625
22465SOL    HW269235  10.534   2.873   4.776
22466SOL     OW69236   3.052  13.129  11.725
22466SOL    HW169237   3.048  13.100  11.634
22466SOL    HW269238   2.968  13.103  11.762
22467SOL     OW69239   1.238   2.502   7.208
22467SOL    HW169240   1.305   2.563   7.241
22467SOL    HW269241   1.223   2.530   7.118
22468SOL     OW69242   3.779  12.786   0.356
22468SOL    HW169243   3.866  12.748   0.343
22468SOL    HW269244   3.721  12.711   0.364
22469SOL     OW69245  14.053  14.023   2.747
22469SOL    HW169246  13.998  14.081   2.799
22469SOL    HW269247  14.097  14.080   2.684
22470SOL     OW69248   7.109  10.985   6.127
22470SOL    HW169249   7.084  10.892   6.135
22470SOL    HW269250   7.026  11.032   6.132
22471SOL     OW69251   6.537   2.386  10.173
22471SOL    HW169252   6.558   2.396  10.265
22471SOL    HW269253   6.621   2.362  10.132
22472SOL     OW69254  13.074   5.345   8.143
22472SOL    HW169255  13.046   5.310   8.059
22472SOL    HW269256  13.099   5.436   8.126
22473SOL     OW69257   7.488   1.536   2.388
22473SOL    HW169258   7.404   1.500   2.360
22473SOL    HW269259   7.550   1.463   2.382
22474SOL     OW69260  11.944  10.799   5.936
22474SOL    HW169261  12.011  10.850   5.982
22474SOL    HW269262  11.994  10.730   5.893
22475SOL     OW69263  14.016   3.785   4.749
22475SOL    HW169264  14.055   3.847   4.686
22475SOL    HW269265  14.090   3.756   4.803
22476SOL     OW69266   7.989   1.035  14.202
22476SOL    HW169267   8.024   1.082  14.126
22476SOL    HW269268   8.051   1.053  14.272
22477SOL     OW69269   8.453  14.220  10.203
22477SOL    HW169270   8.531  14.253  10.159
22477SOL    HW269271   8.450  14.127  10.179
22478SOL     OW69272   9.169   9.307  14.510
22478SOL    HW169273   9.202   9.220  14.533
22478SOL    HW269274   9.175   9.357  14.591
22479SOL     OW69275   8.066   4.461  14.801
22479SOL    HW169276   8.110   4.377  14.817
22479SOL    HW269277   8.059   4.466  14.706
22480SOL     OW69278   0.273   3.460   3.757
22480SOL    HW169279   0.359   3.419   3.766
22480SOL    HW269280   0.264   3.514   3.836
22481SOL     OW69281  11.304  14.063   6.066
22481SOL    HW169282  11.396  14.048   6.044
22481SOL    HW269283  11.255  14.021   5.995
22482SOL     OW69284   3.966   8.603   2.828
22482SOL    HW169285   3.943   8.683   2.780
22482SOL    HW269286   3.937   8.620   2.918
22483SOL     OW69287   9.457   8.093  12.215
22483SOL    HW169288   9.382   8.093  12.275
22483SOL    HW269289   9.520   8.033  12.254
22484SOL     OW69290  10.311   5.235  13.797
22484SOL    HW169291  10.353   5.160  13.755
22484SOL    HW269292  10.333   5.227  13.890
22485SOL     OW69293  13.923   6.846   6.670
22485SOL    HW169294  13.941   6.767   6.720
22485SOL    HW269295  13.895   6.911   6.735
22486SOL     OW69296  11.992   4.096   3.639
22486SOL    HW169297  12.072   4.144   3.617
22486SOL    HW269298  12.021   4.025   3.696
22487SOL     OW69299  12.668  14.821  11.376
22487SOL    HW169300  12.733  14.767  11.422
22487SOL    HW269301  12.717  14.860  11.303
22488SOL     OW69302  10.319   7.770   9.494
22488SOL    HW169303  10.255   7.758   9.564
22488SOL    HW269304  10.389   7.709   9.516
22489SOL     OW69305   9.355   4.599  12.236
22489SOL    HW169306   9.276   4.610  12.183
22489SOL    HW269307   9.420   4.654  12.192
22490SOL     OW69308   1.688  13.882   6.513
22490SOL    HW169309   1.715  13.792   6.535
22490SOL    HW269310   1.750  13.909   6.445
22491SOL     OW69311   2.800   3.548   1.099
22491SOL    HW169312   2.717   3.562   1.145
22491SOL    HW269313   2.842   3.634   1.098
22492SOL     OW69314   4.424   2.668   5.770
22492SOL    HW169315   4.377   2.674   5.854
22492SOL    HW269316   4.393   2.743   5.720
22493SOL     OW69317  14.495   0.069  10.709
22493SOL    HW169318  14.403   0.072  10.683
22493SOL    HW269319  14.496   0.010  10.784
22494SOL     OW69320   8.782   5.286  11.160
22494SOL    HW169321   8.847   5.226  11.123
22494SOL    HW269322   8.822   5.315  11.242
22495SOL     OW69323   1.731   2.502  11.104
22495SOL    HW169324   1.814   2.544  11.082
22495SOL    HW269325   1.664   2.558  11.065
22496SOL     OW69326   8.544   8.803  13.262
22496SOL    HW169327   8.473   8.826  13.322
22496SOL    HW269328   8.608   8.873  13.273
22497SOL     OW69329  14.750   7.004   9.347
22497SOL    HW169330  14.800   6.946   9.290
22497SOL    HW269331  14.785   7.091   9.330
22498SOL     OW69332  13.846  14.284   3.647
22498SOL    HW169333  13.856  14.361   3.591
22498SOL    HW269334  13.760  14.248   3.623
22499SOL     OW69335  14.418   1.808  13.866
22499SOL    HW169336  14.438   1.843  13.953
22499SOL    HW269337  14.440   1.715  13.872
22500SOL     OW69338  13.379   9.015   9.886
22500SOL    HW169339  13.420   9.023   9.973
22500SOL    HW269340  13.321   8.939   9.895
22501SOL     OW69341   7.321  11.541   7.670
22501SOL    HW169342   7.340  11.498   7.587
22501SOL    HW269343   7.325  11.634   7.650
22502SOL     OW69344   3.850   3.368   2.879
22502SOL    HW169345   3.783   3.380   2.946
22502SOL    HW269346   3.809   3.396   2.797
22503SOL     OW69347   3.800   6.036  10.001
22503SOL    HW169348   3.752   6.083   9.933
22503SOL    HW269349   3.822   5.952   9.961
22504SOL     OW69350   8.602   7.017   0.523
22504SOL    HW169351   8.604   7.101   0.569
22504SOL    HW269352   8.662   6.962   0.573
22505SOL     OW69353   3.371   5.256  12.092
22505SOL    HW169354   3.301   5.229  12.033
22505SOL    HW269355   3.444   5.276  12.034
22506SOL     OW69356  10.260   4.538   8.102
22506SOL    HW169357  10.272   4.620   8.056
22506SOL    HW269358  10.323   4.542   8.175
22507SOL     OW69359   5.837   2.875   1.155
22507SOL    HW169360   5.784   2.861   1.076
22507SOL    HW269361   5.927   2.873   1.124
22508SOL     OW69362  11.781   3.738   5.393
22508SOL    HW169363  11.790   3.662   5.450
22508SOL    HW269364  11.687   3.745   5.377
22509SOL     OW69365   6.209   5.563  10.323
22509SOL    HW169366   6.259   5.484  10.305
22509SOL    HW269367   6.222   5.618  10.245
22510SOL     OW69368   2.713  10.794   8.801
22510SOL    HW169369   2.777  10.739   8.755
22510SOL    HW269370   2.742  10.884   8.784
22511SOL     OW69371  10.522   8.625  10.788
22511SOL    HW169372  10.615   8.599  10.784
22511SOL    HW269373  10.487   8.601  10.702
22512SOL     OW69374  14.789   5.448   8.916
22512SOL    HW169375  14.850   5.521   8.929
22512SOL    HW269376  14.738   5.444   8.997
22513SOL     OW69377   3.470  11.185   8.027
22513SOL    HW169378   3.483  11.156   8.117
22513SOL    HW269379   3.387  11.146   8.001
22514SOL     OW69380  11.440   0.975  14.125
22514SOL    HW169381  11.464   0.991  14.034
22514SOL    HW269382  11.441   1.062  14.166
22515SOL     OW69383   6.248   3.205  14.333
22515SOL    HW169384   6.336   3.206  14.371
22515SOL    HW269385   6.254   3.264  14.258
22516SOL     OW69386  13.976   9.642   7.455
22516SOL    HW169387  13.914   9.638   7.528
22516SOL    HW269388  13.955   9.566   7.401
22517SOL     OW69389   7.846   3.160   2.974
22517SOL    HW169390   7.859   3.111   2.893
22517SOL    HW269391   7.912   3.229   2.970
22518SOL     OW69392  11.336  11.378   6.321
22518SOL    HW169393  11.378  11.325   6.253
22518SOL    HW269394  11.315  11.315   6.390
22519SOL     OW69395   9.218  10.620  13.842
22519SOL    HW169396   9.269  10.555  13.793
22519SOL    HW269397   9.283  10.661  13.900
22520SOL     OW69398   7.520   6.904   5.227
22520SOL    HW169399   7.529   6.813   5.200
22520SOL    HW269400   7.598   6.947   5.193
22521SOL     OW69401   3.708  12.423  12.036
22521SOL    HW169402   3.690  12.368  11.960
22521SOL    HW269403   3.633  12.482  12.041
22522SOL     OW69404  11.374   6.673   6.150
22522SOL    HW169405  11.376   6.756   6.197
22522SOL    HW269406  11.454   6.673   6.097
22523SOL     OW69407   8.249  13.966   3.604
22523SOL    HW169408   8.212  14.022   3.672
22523SOL    HW269409   8.204  13.992   3.524
22524SOL     OW69410   1.012   0.488   1.244
22524SOL    HW169411   0.960   0.567   1.257
22524SOL    HW269412   0.952   0.426   1.203
22525SOL     OW69413  10.216   2.664   7.233
22525SOL    HW169414  10.191   2.573   7.216
22525SOL    HW269415  10.310   2.659   7.251
22526SOL     OW69416   9.410  14.443   4.934
22526SOL    HW169417   9.408  14.471   4.843
22526SOL    HW269418   9.319  14.454   4.965
22527SOL     OW69419  10.438   6.267   7.058
22527SOL    HW169420  10.503   6.238   7.121
22527SOL    HW269421  10.380   6.191   7.046
22528SOL     OW69422  11.414  14.402   9.864
22528SOL    HW169423  11.411  14.316   9.905
22528SOL    HW269424  11.481  14.450   9.913
22529SOL     OW69425   5.129   6.898   5.673
22529SOL    HW169426   5.096   6.837   5.608
22529SOL    HW269427   5.053   6.918   5.728
22530SOL     OW69428   2.809   7.241   3.722
22530SOL    HW169429   2.888   7.288   3.747
22530SOL    HW269430   2.803   7.169   3.785
22531SOL     OW69431  10.757   4.361  13.032
22531SOL    HW169432  10.709   4.443  13.018
22531SOL    HW269433  10.798   4.342  12.948
22532SOL     OW69434  11.179   8.711  13.108
22532SOL    HW169435  11.115   8.686  13.041
22532SOL    HW269436  11.242   8.767  13.062
22533SOL     OW69437  12.149  12.932  10.795
22533SOL    HW169438  12.241  12.906  10.799
22533SOL    HW269439  12.101  12.851  10.781
22534SOL     OW69440  10.370   4.235   4.560
22534SOL    HW169441  10.430   4.252   4.632
22534SOL    HW269442  10.365   4.317   4.512
22535SOL     OW69443   5.294   7.832  14.582
22535SOL    HW169444   5.206   7.837  14.544
22535SOL    HW269445   5.341   7.772  14.524
22536SOL     OW69446   3.050   3.832   2.190
22536SOL    HW169447   3.141   3.852   2.166
22536SOL    HW269448   2.999   3.901   2.149
22537SOL     OW69449   4.042   5.731   5.873
22537SOL    HW169450   4.027   5.715   5.966
22537SOL    HW269451   4.133   5.708   5.858
22538SOL     OW69452   2.615  10.601   2.558
22538SOL    HW169453   2.635  10.533   2.622
22538SOL    HW269454   2.520  10.602   2.553
22539SOL     OW69455   2.133   1.831   4.962
22539SOL    HW169456   2.091   1.917   4.966
22539SOL    HW269457   2.061   1.769   4.971
22540SOL     OW69458   0.339   9.821   2.918
22540SOL    HW169459   0.414   9.787   2.967
22540SOL    HW269460   0.295   9.879   2.980
22541SOL     OW69461   1.960  13.454   7.314
22541SOL    HW169462   1.977  13.448   7.408
22541SOL    HW269463   1.894  13.386   7.298
22542SOL     OW69464   4.138   7.921  11.626
22542SOL    HW169465   4.064   7.909  11.566
22542SOL    HW269466   4.213   7.888  11.577
22543SOL     OW69467   8.942   0.892  10.714
22543SOL    HW169468   8.857   0.852  10.698
22543SOL    HW269469   8.948   0.898  10.810
22544SOL     OW69470   4.495   4.839   3.742
22544SOL    HW169471   4.473   4.746   3.729
22544SOL    HW269472   4.440   4.867   3.815
22545SOL     OW69473   9.688  12.909  10.205
22545SOL    HW169474   9.653  12.980  10.258
22545SOL    HW269475   9.689  12.943  10.116
22546SOL     OW69476  12.983   7.647   3.881
22546SOL    HW169477  12.987   7.589   3.956
22546SOL    HW269478  12.898   7.690   3.888
22547SOL     OW69479  10.955  13.629   6.195
22547SOL    HW169480  10.911  13.604   6.276
22547SOL    HW269481  10.907  13.705   6.164
22548SOL     OW69482  10.374   8.613  14.331
22548SOL    HW169483  10.443   8.570  14.280
22548SOL    HW269484  10.369   8.702  14.295
22549SOL     OW69485   4.637  14.477   1.305
22549SOL    HW169486   4.653  14.420   1.380
22549SOL    HW269487   4.548  14.510   1.318
22550SOL     OW69488  14.612  13.361   3.351
22550SOL    HW169489  14.651  13.427   3.294
22550SOL    HW269490  14.672  13.287   3.348
22551SOL     OW69491  10.856   7.857   2.705
22551SOL    HW169492  10.867   7.883   2.797
22551SOL    HW269493  10.931   7.895   2.660
22552SOL     OW69494   4.361  11.535   8.983
22552SOL    HW169495   4.321  11.478   9.048
22552SOL    HW269496   4.454  11.513   8.985
22553SOL     OW69497   8.112  12.669   6.371
22553SOL    HW169498   8.129  12.641   6.461
22553SOL    HW269499   8.180  12.733   6.353
22554SOL     OW69500   0.037   5.271   6.864
22554SOL    HW169501  14.830   5.227   6.877
22554SOL    HW269502   0.103   5.202   6.878
22555SOL     OW69503   0.657   2.300   0.472
22555SOL    HW169504   0.602   2.239   0.423
22555SOL    HW269505   0.626   2.387   0.447
22556SOL     OW69506   8.219   8.586   0.353
22556SOL    HW169507   8.254   8.625   0.274
22556SOL    HW269508   8.223   8.491   0.337
22557SOL     OW69509  11.903   9.841  10.610
22557SOL    HW169510  11.844   9.848  10.534
22557SOL    HW269511  11.979   9.795  10.576
22558SOL     OW69512  14.543   6.810   1.174
22558SOL    HW169513  14.507   6.866   1.242
22558SOL    HW269514  14.574   6.732   1.221
22559SOL     OW69515   8.512  11.271   7.028
22559SOL    HW169516   8.446  11.310   7.086
22559SOL    HW269517   8.473  11.188   7.000
22560SOL     OW69518   6.375   8.741   6.868
22560SOL    HW169519   6.349   8.653   6.896
22560SOL    HW269520   6.298   8.795   6.886
22561SOL     OW69521  14.225  12.031   3.438
22561SOL    HW169522  14.166  12.023   3.362
22561SOL    HW269523  14.276  11.951   3.436
22562SOL     OW69524  12.014   9.027   4.720
22562SOL    HW169525  11.938   9.070   4.680
22562SOL    HW269526  11.989   9.015   4.812
22563SOL     OW69527   2.066  12.872  10.864
22563SOL    HW169528   2.091  12.887  10.773
22563SOL    HW269529   1.975  12.902  10.869
22564SOL     OW69530  12.915  11.846   2.840
22564SOL    HW169531  12.922  11.775   2.776
22564SOL    HW269532  13.005  11.862   2.867
22565SOL     OW69533  14.321   8.723   2.596
22565SOL    HW169534  14.381   8.797   2.588
22565SOL    HW269535  14.342   8.686   2.682
22566SOL     OW69536   4.855   6.066  14.661
22566SOL    HW169537   4.838   5.973  14.678
22566SOL    HW269538   4.921   6.065  14.591
22567SOL     OW69539   0.580   9.302   3.553
22567SOL    HW169540   0.563   9.290   3.647
22567SOL    HW269541   0.494   9.299   3.512
22568SOL     OW69542  14.485   9.428   2.043
22568SOL    HW169543  14.430   9.505   2.061
22568SOL    HW269544  14.569   9.465   2.016
22569SOL     OW69545   6.485   9.827  10.390
22569SOL    HW169546   6.447   9.752  10.345
22569SOL    HW269547   6.477   9.899  10.327
22570SOL     OW69548  13.423   2.884   4.070
22570SOL    HW169549  13.425   2.977   4.048
22570SOL    HW269550  13.497   2.871   4.129
22571SOL     OW69551   3.319   0.112   7.946
22571SOL    HW169552   3.309   0.114   7.851
22571SOL    HW269553   3.239   0.152   7.980
22572SOL     OW69554   2.376   2.787   9.294
22572SOL    HW169555   2.467   2.806   9.274
22572SOL    HW269556   2.326   2.837   9.229
22573SOL     OW69557   7.863  11.703   0.252
22573SOL    HW169558   7.883  11.613   0.225
22573SOL    HW269559   7.769  11.712   0.236
22574SOL     OW69560  10.112   7.939   7.413
22574SOL    HW169561  10.079   8.014   7.363
22574SOL    HW269562  10.052   7.868   7.392
22575SOL     OW69563   7.534   9.101  10.111
22575SOL    HW169564   7.529   9.089  10.016
22575SOL    HW269565   7.545   9.195  10.124
22576SOL     OW69566  10.199   4.633   9.988
22576SOL    HW169567  10.249   4.626  10.069
22576SOL    HW269568  10.111   4.657  10.016
22577SOL     OW69569   4.610  12.918  10.928
22577SOL    HW169570   4.701  12.908  10.956
22577SOL    HW269571   4.612  12.988  10.863
22578SOL     OW69572   3.176  13.606   5.871
22578SOL    HW169573   3.096  13.556   5.862
22578SOL    HW269574   3.150  13.685   5.919
22579SOL     OW69575   9.963   1.315   8.385
22579SOL    HW169576   9.950   1.398   8.339
22579SOL    HW269577   9.971   1.339   8.477
22580SOL     OW69578   1.962  14.540  12.886
22580SOL    HW169579   2.016  14.616  12.865
22580SOL    HW269580   1.888  14.545  12.825
22581SOL     OW69581  10.017   1.413   4.274
22581SOL    HW169582  10.062   1.335   4.241
22581SOL    HW269583  10.087   1.469   4.305
22582SOL     OW69584   1.667   9.069  10.605
22582SOL    HW169585   1.722   9.034  10.534
22582SOL    HW269586   1.610   9.132  10.562
22583SOL     OW69587  12.204   4.508   5.817
22583SOL    HW169588  12.126   4.530   5.867
22583SOL    HW269589  12.216   4.581   5.756
22584SOL     OW69590   7.837  12.270   3.351
22584SOL    HW169591   7.792  12.271   3.266
22584SOL    HW269592   7.920  12.315   3.334
22585SOL     OW69593  12.952   3.661   5.605
22585SOL    HW169594  12.973   3.570   5.582
22585SOL    HW269595  12.906   3.695   5.528
22586SOL     OW69596  11.285   2.682  13.398
22586SOL    HW169597  11.252   2.593  13.389
22586SOL    HW269598  11.354   2.676  13.464
22587SOL     OW69599  11.805  12.274  12.280
22587SOL    HW169600  11.795  12.196  12.226
22587SOL    HW269601  11.720  12.318  12.274
22588SOL     OW69602   2.055  14.712  13.069
22588SOL    HW169603   2.011  14.639  13.024
22588SOL    HW269604   2.040  14.696  13.162
22589SOL     OW69605   3.684  14.805   6.072
22589SOL    HW169606   3.711  14.713   6.066
22589SOL    HW269607   3.750  14.845   6.129
22590SOL     OW69608   4.133   4.644  11.009
22590SOL    HW169609   4.067   4.709  10.985
22590SOL    HW269610   4.187   4.636  10.930
22591SOL     OW69611  13.075   5.623   8.042
22591SOL    HW169612  13.097   5.716   8.047
22591SOL    HW269613  12.985   5.618   8.075
22592SOL     OW69614   8.858   9.817  12.491
22592SOL    HW169615   8.854   9.782  12.402
22592SOL    HW269616   8.872   9.911  12.480
22593SOL     OW69617   7.483   2.071   8.873
22593SOL    HW169618   7.461   2.086   8.965
22593SOL    HW269619   7.403   2.037   8.834
22594SOL     OW69620   2.541   6.210  10.179
22594SOL    HW169621   2.532   6.129  10.128
22594SOL    HW269622   2.473   6.268  10.143
22595SOL     OW69623   0.369  13.429   6.269
22595SOL    HW169624   0.405  13.343   6.247
22595SOL    HW269625   0.341  13.465   6.184
22596SOL     OW69626  14.047   2.239   3.924
22596SOL    HW169627  14.092   2.310   3.970
22596SOL    HW269628  14.023   2.177   3.993
22597SOL     OW69629   8.882   6.960  12.364
22597SOL    HW169630   8.954   7.020  12.345
22597SOL    HW269631   8.821   6.972  12.292
22598SOL     OW69632  12.581  14.022   8.501
22598SOL    HW169633  12.608  14.079   8.429
22598SOL    HW269634  12.488  14.007   8.485
22599SOL     OW69635   0.005  14.063   6.918
22599SOL    HW169636  14.827  14.142   6.928
22599SOL    HW269637  14.831  14.008   6.858
22600SOL     OW69638  14.748   0.140   3.643
22600SOL    HW169639  14.668   0.186   3.617
22600SOL    HW269640  14.744   0.137   3.739
22601SOL     OW69641   5.414   0.097   6.120
22601SOL    HW169642   5.418   0.190   6.142
22601SOL    HW269643   5.503   0.074   6.095
22602SOL     OW69644  10.745   2.921   2.400
22602SOL    HW169645  10.688   2.863   2.349
22602SOL    HW269646  10.824   2.870   2.414
22603SOL     OW69647   4.491   7.228  10.943
22603SOL    HW169648   4.571   7.247  10.893
22603SOL    HW269649   4.522   7.184  11.022
22604SOL     OW69650   5.939   3.289   1.049
22604SOL    HW169651   5.849   3.322   1.052
22604SOL    HW269652   5.987   3.345   1.111
22605SOL     OW69653   3.224   3.323   5.349
22605SOL    HW169654   3.149   3.370   5.385
22605SOL    HW269655   3.193   3.233   5.338
22606SOL     OW69656   4.886   4.459   1.865
22606SOL    HW169657   4.870   4.439   1.773
22606SOL    HW269658   4.881   4.375   1.910
22607SOL     OW69659  13.522  13.625   1.739
22607SOL    HW169660  13.511  13.632   1.644
22607SOL    HW269661  13.596  13.565   1.751
22608SOL     OW69662   0.575  10.389   9.122
22608SOL    HW169663   0.663  10.350   9.128
22608SOL    HW269664   0.552  10.382   9.030
22609SOL     OW69665  13.894   4.577   6.318
22609SOL    HW169666  13.863   4.528   6.241
22609SOL    HW269667  13.841   4.544   6.390
22610SOL     OW69668  14.542   0.608   0.533
22610SOL    HW169669  14.518   0.665   0.460
22610SOL    HW269670  14.634   0.588   0.518
22611SOL     OW69671   4.631   5.187  14.284
22611SOL    HW169672   4.696   5.163  14.218
22611SOL    HW269673   4.557   5.221  14.233
22612SOL     OW69674   6.654   0.137  12.108
22612SOL    HW169675   6.679   0.226  12.086
22612SOL    HW269676   6.706   0.115  12.185
22613SOL     OW69677   4.211   8.871  10.519
22613SOL    HW169678   4.258   8.833  10.445
22613SOL    HW269679   4.196   8.963  10.494
22614SOL     OW69680   3.334   9.062  14.229
22614SOL    HW169681   3.291   9.139  14.267
22614SOL    HW269682   3.315   9.067  14.136
22615SOL     OW69683  13.301   3.770   8.570
22615SOL    HW169684  13.213   3.795   8.599
22615SOL    HW269685  13.333   3.710   8.637
22616SOL     OW69686  14.321   1.354   6.726
22616SOL    HW169687  14.280   1.351   6.812
22616SOL    HW269688  14.389   1.421   6.734
22617SOL     OW69689   5.980  10.484   5.480
22617SOL    HW169690   5.924  10.543   5.531
22617SOL    HW269691   6.065  10.488   5.525
22618SOL     OW69692   5.112   6.241  12.616
22618SOL    HW169693   5.151   6.159  12.585
22618SOL    HW269694   5.063   6.217  12.694
22619SOL     OW69695   2.734   2.717  11.441
22619SOL    HW169696   2.809   2.755  11.394
22619SOL    HW269697   2.740   2.753  11.529
22620SOL     OW69698  10.679  10.966  11.845
22620SOL    HW169699  10.673  11.024  11.921
22620SOL    HW269700  10.740  11.010  11.786
22621SOL     OW69701  10.932   1.044  12.016
22621SOL    HW169702  10.892   1.128  11.992
22621SOL    HW269703  10.936   1.046  12.111
22622SOL     OW69704   3.475  12.373   8.920
22622SOL    HW169705   3.459  12.467   8.914
22622SOL    HW269706   3.410  12.334   8.862
22623SOL     OW69707   7.617  13.650   5.514
22623SOL    HW169708   7.696  13.602   5.538
22623SOL    HW269709   7.584  13.605   5.436
22624SOL     OW69710   5.523   0.118   8.084
22624SOL    HW169711   5.510   0.209   8.112
22624SOL    HW269712   5.575   0.079   8.154
22625SOL     OW69713  11.959   8.440   0.118
22625SOL    HW169714  11.997   8.527   0.109
22625SOL    HW269715  11.869   8.456   0.145
22626SOL     OW69716   6.199  14.167   9.123
22626SOL    HW169717   6.172  14.077   9.108
22626SOL    HW269718   6.131  14.220   9.083
22627SOL     OW69719   1.942   0.199   6.672
22627SOL    HW169720   1.928   0.294   6.679
22627SOL    HW269721   1.968   0.173   6.760
22628SOL     OW69722   0.863  12.305  13.307
22628SOL    HW169723   0.890  12.341  13.391
22628SOL    HW269724   0.899  12.217  13.305
22629SOL     OW69725  14.316   4.035  11.676
22629SOL    HW169726  14.375   4.088  11.729
22629SOL    HW269727  14.228   4.056  11.707
22630SOL     OW69728  12.371   4.766   1.853
22630SOL    HW169729  12.417   4.726   1.927
22630SOL    HW269730  12.434   4.762   1.780
22631SOL     OW69731   9.150   8.550   4.622
22631SOL    HW169732   9.160   8.463   4.663
22631SOL    HW269733   9.236   8.570   4.587
22632SOL     OW69734  13.830  10.269  14.669
22632SOL    HW169735  13.778  10.298  14.744
22632SOL    HW269736  13.836  10.346  14.612
22633SOL     OW69737   8.712  10.713   5.851
22633SOL    HW169738   8.704  10.774   5.925
22633SOL    HW269739   8.770  10.644   5.883
22634SOL     OW69740   6.389   2.133   1.470
22634SOL    HW169741   6.473   2.113   1.428
22634SOL    HW269742   6.337   2.175   1.402
22635SOL     OW69743  13.585   9.663   7.485
22635SOL    HW169744  13.621   9.634   7.401
22635SOL    HW269745  13.661   9.688   7.537
22636SOL     OW69746   2.796  11.421   9.768
22636SOL    HW169747   2.731  11.410   9.698
22636SOL    HW269748   2.880  11.418   9.723
22637SOL     OW69749   0.400   0.358   7.907
22637SOL    HW169750   0.362   0.444   7.888
22637SOL    HW269751   0.423   0.323   7.821
22638SOL     OW69752   1.969   2.956   5.037
22638SOL    HW169753   1.971   2.907   5.119
22638SOL    HW269754   1.893   2.922   4.990
22639SOL     OW69755   9.950  12.645   2.784
22639SOL    HW169756   9.999  12.570   2.749
22639SOL    HW269757   9.972  12.717   2.725
22640SOL     OW69758   2.310   1.882   0.549
22640SOL    HW169759   2.255   1.902   0.473
22640SOL    HW269760   2.259   1.819   0.600
22641SOL     OW69761   3.927  12.355  11.673
22641SOL    HW169762   3.991  12.413  11.714
22641SOL    HW269763   3.939  12.271  11.717
22642SOL     OW69764   7.608   4.632   8.943
22642SOL    HW169765   7.533   4.681   8.907
22642SOL    HW269766   7.593   4.542   8.914
22643SOL     OW69767   6.941  13.929  14.389
22643SOL    HW169768   6.901  13.856  14.342
22643SOL    HW269769   7.027  13.898  14.417
22644SOL     OW69770   0.674   0.593   5.097
22644SOL    HW169771   0.628   0.649   5.035
22644SOL    HW269772   0.628   0.606   5.180
22645SOL     OW69773   4.251   4.537  14.585
22645SOL    HW169774   4.169   4.501  14.552
22645SOL    HW269775   4.318   4.477  14.553
22646SOL     OW69776  11.199   2.691   5.788
22646SOL    HW169777  11.242   2.620   5.741
22646SOL    HW269778  11.168   2.650   5.869
22647SOL     OW69779   3.447  13.279   4.038
22647SOL    HW169780   3.439  13.253   3.946
22647SOL    HW269781   3.417  13.203   4.088
22648SOL     OW69782   1.984   1.852  10.527
22648SOL    HW169783   1.988   1.882  10.618
22648SOL    HW269784   1.943   1.925  10.480
22649SOL     OW69785   5.813  10.964   4.970
22649SOL    HW169786   5.727  10.975   5.010
22649SOL    HW269787   5.865  10.917   5.035
22650SOL     OW69788  12.006  13.785  10.925
22650SOL    HW169789  11.933  13.744  10.971
22650SOL    HW269790  11.964  13.837  10.856
22651SOL     OW69791   3.079  10.974   7.719
22651SOL    HW169792   2.984  10.979   7.703
22651SOL    HW269793   3.119  10.996   7.635
22652SOL     OW69794   6.597   8.128  10.364
22652SOL    HW169795   6.520   8.183  10.344
22652SOL    HW269796   6.603   8.131  10.460
22653SOL     OW69797   1.028   5.043  11.497
22653SOL    HW169798   0.965   5.009  11.433
22653SOL    HW269799   1.089   5.096  11.446
22654SOL     OW69800   7.009   0.473   3.930
22654SOL    HW169801   7.012   0.431   3.845
22654SOL    HW269802   6.942   0.425   3.978
22655SOL     OW69803   7.804  10.519   0.451
22655SOL    HW169804   7.814  10.426   0.475
22655SOL    HW269805   7.759  10.518   0.367
22656SOL     OW69806   1.365   6.302  10.938
22656SOL    HW169807   1.377   6.369  11.005
22656SOL    HW269808   1.388   6.344  10.856
22657SOL     OW69809  11.211  10.631   4.031
22657SOL    HW169810  11.150  10.583   4.086
22657SOL    HW269811  11.283  10.570   4.015
22658SOL     OW69812   0.063   5.263  13.829
22658SOL    HW169813   0.037   5.354  13.844
22658SOL    HW269814   0.102   5.235  13.912
22659SOL     OW69815   2.537   6.970  11.399
22659SOL    HW169816   2.625   6.982  11.435
22659SOL    HW269817   2.510   7.058  11.374
22660SOL     OW69818  13.919  12.844  12.456
22660SOL    HW169819  13.948  12.755  12.472
22660SOL    HW269820  13.999  12.897  12.462
22661SOL     OW69821  14.091  13.014  12.671
22661SOL    HW169822  14.137  13.074  12.729
22661SOL    HW269823  14.007  12.998  12.715
22662SOL     OW69824   2.765  12.150  10.323
22662SOL    HW169825   2.703  12.194  10.265
22662SOL    HW269826   2.781  12.214  10.393
22663SOL     OW69827   1.160   1.219   3.558
22663SOL    HW169828   1.175   1.312   3.540
22663SOL    HW269829   1.239   1.176   3.527
22664SOL     OW69830   1.022   3.932   0.199
22664SOL    HW169831   1.066   3.911   0.117
22664SOL    HW269832   1.012   4.027   0.197
22665SOL     OW69833  14.459   1.898   5.289
22665SOL    HW169834  14.533   1.936   5.241
22665SOL    HW269835  14.388   1.961   5.277
22666SOL     OW69836  12.354   3.592   4.606
22666SOL    HW169837  12.443   3.623   4.590
22666SOL    HW269838  12.337   3.529   4.536
22667SOL     OW69839  13.485  11.801   3.248
22667SOL    HW169840  13.455  11.722   3.203
22667SOL    HW269841  13.405  11.840   3.283
22668SOL     OW69842  10.622   6.581   5.277
22668SOL    HW169843  10.630   6.537   5.192
22668SOL    HW269844  10.710   6.615   5.294
22669SOL     OW69845  13.504   6.599   6.107
22669SOL    HW169846  13.570   6.588   6.038
22669SOL    HW269847  13.550   6.578   6.188
22670SOL     OW69848   1.061   5.182   0.442
22670SOL    HW169849   0.996   5.118   0.415
22670SOL    HW269850   1.132   5.173   0.379
22671SOL     OW69851  13.582   9.734  11.239
22671SOL    HW169852  13.616   9.645  11.238
22671SOL    HW269853  13.580   9.758  11.332
22672SOL     OW69854  11.381   5.810   2.569
22672SOL    HW169855  11.388   5.814   2.665
22672SOL    HW269856  11.305   5.754   2.553
22673SOL     OW69857   2.095   0.606  14.607
22673SOL    HW169858   2.046   0.686  14.591
22673SOL    HW269859   2.106   0.602  14.702
22674SOL     OW69860  14.055  10.072   8.169
22674SOL    HW169861  14.129  10.039   8.118
22674SOL    HW269862  14.092  10.094   8.254
22675SOL     OW69863  14.318   8.369   3.576
22675SOL    HW169864  14.239   8.316   3.570
22675SOL    HW269865  14.357   8.346   3.660
22676SOL     OW69866  10.514   2.431   0.434
22676SOL    HW169867  10.514   2.481   0.352
22676SOL    HW269868  10.588   2.371   0.425
22677SOL     OW69869   1.663   9.506   2.885
22677SOL    HW169870   1.632   9.518   2.974
22677SOL    HW269871   1.612   9.568   2.833
22678SOL     OW69872  12.379   8.227  10.663
22678SOL    HW169873  12.316   8.278  10.715
22678SOL    HW269874  12.397   8.282  10.587
22679SOL     OW69875   7.457   9.947   1.482
22679SOL    HW169876   7.504   9.873   1.444
22679SOL    HW269877   7.371   9.911   1.506
22680SOL     OW69878   9.672   6.900   6.178
22680SOL    HW169879   9.666   6.967   6.109
22680SOL    HW269880   9.737   6.838   6.145
22681SOL     OW69881  10.430   0.588   2.523
22681SOL    HW169882  10.404   0.638   2.602
22681SOL    HW269883  10.402   0.644   2.451
22682SOL     OW69884  10.130  13.685  12.077
22682SOL    HW169885  10.172  13.744  12.139
22682SOL    HW269886  10.052  13.732  12.047
22683SOL     OW69887  11.368   6.193   9.384
22683SOL    HW169888  11.378   6.241   9.301
22683SOL    HW269889  11.417   6.245   9.447
22684SOL     OW69890   2.204   0.552   3.751
22684SOL    HW169891   2.256   0.632   3.746
22684SOL    HW269892   2.114   0.581   3.740
22685SOL     OW69893   5.914   2.599   0.540
22685SOL    HW169894   5.865   2.616   0.620
22685SOL    HW269895   5.922   2.504   0.536
22686SOL     OW69896   0.575   9.365   8.760
22686SOL    HW169897   0.605   9.345   8.672
22686SOL    HW269898   0.546   9.280   8.796
22687SOL     OW69899   8.345   7.287   4.791
22687SOL    HW169900   8.377   7.366   4.748
22687SOL    HW269901   8.420   7.228   4.792
22688SOL     OW69902   9.256   8.056   8.384
22688SOL    HW169903   9.202   8.119   8.431
22688SOL    HW269904   9.250   7.975   8.436
22689SOL     OW69905   0.953   4.946   9.817
22689SOL    HW169906   0.888   4.925   9.885
22689SOL    HW269907   1.006   4.866   9.810
22690SOL     OW69908   8.868   6.376   9.101
22690SOL    HW169909   8.787   6.422   9.079
22690SOL    HW269910   8.936   6.425   9.055
22691SOL     OW69911  10.267   1.924  11.674
22691SOL    HW169912  10.232   1.970  11.598
22691SOL    HW269913  10.266   1.832  11.649
22692SOL     OW69914  13.090   9.506   5.686
22692SOL    HW169915  13.056   9.593   5.706
22692SOL    HW269916  13.012   9.451   5.679
22693SOL     OW69917   8.771   7.627   9.214
22693SOL    HW169918   8.725   7.644   9.296
22693SOL    HW269919   8.863   7.646   9.234
22694SOL     OW69920  13.434   2.533   9.148
22694SOL    HW169921  13.398   2.605   9.097
22694SOL    HW269922  13.459   2.572   9.232
22695SOL     OW69923   5.168  11.146  10.166
22695SOL    HW169924   5.210  11.230  10.185
22695SOL    HW269925   5.216  11.083  10.221
22696SOL     OW69926   7.152  11.493   8.703
22696SOL    HW169927   7.092  11.566   8.717
22696SOL    HW269928   7.174  11.462   8.791
22697SOL     OW69929   8.352   6.948   4.781
22697SOL    HW169930   8.316   6.874   4.829
22697SOL    HW269931   8.320   6.937   4.691
22698SOL     OW69932  14.371   1.623   9.370
22698SOL    HW169933  14.342   1.576   9.292
22698SOL    HW269934  14.466   1.621   9.366
22699SOL     OW69935  10.554   8.765   8.411
22699SOL    HW169936  10.525   8.830   8.347
22699SOL    HW269937  10.627   8.720   8.369
22700SOL     OW69938  11.258  12.044   5.262
22700SOL    HW169939  11.208  11.981   5.209
22700SOL    HW269940  11.327  12.075   5.203
22701SOL     OW69941  11.216   3.433  10.975
22701SOL    HW169942  11.202   3.500  10.908
22701SOL    HW269943  11.306   3.403  10.961
22702SOL     OW69944   2.779   4.692   1.164
22702SOL    HW169945   2.846   4.640   1.120
22702SOL    HW269946   2.728   4.730   1.093
22703SOL     OW69947   5.460   5.331  14.812
22703SOL    HW169948   5.493   5.253  14.768
22703SOL    HW269949   5.518   5.344   0.011
22704SOL     OW69950   6.221   4.061   1.895
22704SOL    HW169951   6.149   4.010   1.932
22704SOL    HW269952   6.219   4.041   1.801
22705SOL     OW69953  11.331   1.843   2.517
22705SOL    HW169954  11.326   1.835   2.422
22705SOL    HW269955  11.410   1.794   2.541
22706SOL     OW69956  10.458   3.364   0.942
22706SOL    HW169957  10.482   3.281   0.983
22706SOL    HW269958  10.520   3.427   0.978
22707SOL     OW69959   8.851  12.869   7.176
22707SOL    HW169960   8.795  12.793   7.163
22707SOL    HW269961   8.901  12.877   7.095
22708SOL     OW69962   1.976   2.856   3.230
22708SOL    HW169963   1.930   2.938   3.243
22708SOL    HW269964   1.980   2.846   3.135
22709SOL     OW69965  10.361   0.233  13.761
22709SOL    HW169966  10.360   0.327  13.783
22709SOL    HW269967  10.454   0.212  13.751
22710SOL     OW69968   0.036   9.958   3.328
22710SOL    HW169969   0.121  10.001   3.332
22710SOL    HW269970  14.852  10.019   3.371
22711SOL     OW69971   9.871   2.440   8.502
22711SOL    HW169972   9.890   2.530   8.526
22711SOL    HW269973   9.786   2.444   8.458
22712SOL     OW69974  12.539  13.039   9.378
22712SOL    HW169975  12.485  13.063   9.302
22712SOL    HW269976  12.616  12.997   9.340
22713SOL     OW69977  12.034  13.330  10.073
22713SOL    HW169978  12.076  13.408  10.111
22713SOL    HW269979  12.097  13.259  10.089
22714SOL     OW69980   4.764   9.716   5.084
22714SOL    HW169981   4.732   9.704   5.173
22714SOL    HW269982   4.699   9.771   5.042
22715SOL     OW69983   3.378   4.712   2.710
22715SOL    HW169984   3.440   4.640   2.695
22715SOL    HW269985   3.429   4.777   2.759
22716SOL     OW69986  10.484   3.200   1.437
22716SOL    HW169987  10.486   3.152   1.355
22716SOL    HW269988  10.558   3.261   1.431
22717SOL     OW69989   4.353   4.667   5.029
22717SOL    HW169990   4.418   4.702   4.968
22717SOL    HW269991   4.375   4.574   5.037
22718SOL     OW69992  14.210   5.052  10.621
22718SOL    HW169993  14.162   5.051  10.705
22718SOL    HW269994  14.247   5.140  10.616
22719SOL     OW69995  14.786   8.951   9.753
22719SOL    HW169996  14.704   8.997   9.768
22719SOL    HW269997  14.850   9.020   9.734
22720SOL     OW69998   7.578  13.481  11.304
22720SOL    HW169999   7.649  13.529  11.261
22720SOL    HW270000   7.600  13.389  11.290
22721SOL     OW70001   1.660  11.577   9.481
22721SOL    HW170002   1.666  11.631   9.403
22721SOL    HW270003   1.629  11.636   9.549
22722SOL     OW70004   8.226   4.007  12.895
22722SOL    HW170005   8.311   4.002  12.939
22722SOL    HW270006   8.239   3.962  12.811
22723SOL     OW70007  14.720   7.142   7.961
22723SOL    HW170008  14.741   7.072   7.900
22723SOL    HW270009  14.788   7.208   7.948
22724SOL     OW70010   9.162  11.403   3.095
22724SOL    HW170011   9.078  11.379   3.057
22724SOL    HW270012   9.215  11.323   3.086
22725SOL     OW70013  14.353   5.321   0.077
22725SOL    HW170014  14.358   5.281  14.866
22725SOL    HW270015  14.282   5.273   0.121
22726SOL     OW70016  14.036   0.653   5.799
22726SOL    HW170017  14.102   0.719   5.823
22726SOL    HW270018  13.958   0.704   5.777
22727SOL     OW70019   0.694  10.737   4.663
22727SOL    HW170020   0.638  10.665   4.691
22727SOL    HW270021   0.645  10.816   4.684
22728SOL     OW70022   9.770  10.156   0.171
22728SOL    HW170023   9.686  10.124   0.138
22728SOL    HW270024   9.756  10.249   0.187
22729SOL     OW70025  11.503  14.249  14.770
22729SOL    HW170026  11.552  14.325  14.800
22729SOL    HW270027  11.507  14.254  14.674
22730SOL     OW70028   6.750   5.518   8.311
22730SOL    HW170029   6.751   5.479   8.223
22730SOL    HW270030   6.665   5.494   8.346
22731SOL     OW70031   9.184   6.871   4.066
22731SOL    HW170032   9.225   6.912   3.989
22731SOL    HW270033   9.253   6.816   4.103
22732SOL     OW70034   8.518   1.227   6.365
22732SOL    HW170035   8.456   1.273   6.310
22732SOL    HW270036   8.531   1.142   6.323
22733SOL     OW70037   0.636   8.308   1.471
22733SOL    HW170038   0.722   8.313   1.429
22733SOL    HW270039   0.639   8.374   1.540
22734SOL     OW70040   9.720  11.972   8.164
22734SOL    HW170041   9.680  11.928   8.090
22734SOL    HW270042   9.656  11.964   8.235
22735SOL     OW70043   6.224   8.134  13.527
22735SOL    HW170044   6.205   8.126  13.621
22735SOL    HW270045   6.144   8.169  13.489
22736SOL     OW70046  14.846   0.540   6.194
22736SOL    HW170047  14.812   0.454   6.170
22736SOL    HW270048  14.839   0.591   6.114
22737SOL     OW70049  13.441  14.331   0.453
22737SOL    HW170050  13.499  14.284   0.394
22737SOL    HW270051  13.446  14.283   0.536
22738SOL     OW70052   1.037   7.006   3.614
22738SOL    HW170053   1.051   7.050   3.530
22738SOL    HW270054   0.953   6.962   3.604
22739SOL     OW70055   3.245  14.539   4.412
22739SOL    HW170056   3.328  14.582   4.395
22739SOL    HW270057   3.179  14.602   4.384
22740SOL     OW70058   5.726   2.730  14.104
22740SOL    HW170059   5.744   2.676  14.181
22740SOL    HW270060   5.699   2.667  14.037
22741SOL     OW70061  12.880   0.361  12.111
22741SOL    HW170062  12.956   0.419  12.116
22741SOL    HW270063  12.912   0.275  12.139
22742SOL     OW70064   7.000   0.402  10.691
22742SOL    HW170065   7.070   0.448  10.737
22742SOL    HW270066   7.042   0.362  10.616
22743SOL     OW70067  12.237  12.752  10.045
22743SOL    HW170068  12.322  12.732  10.005
22743SOL    HW270069  12.181  12.776   9.971
22744SOL     OW70070  12.387   3.817  10.561
22744SOL    HW170071  12.432   3.862  10.489
22744SOL    HW270072  12.385   3.881  10.632
22745SOL     OW70073   9.018   8.253   5.642
22745SOL    HW170074   9.087   8.212   5.590
22745SOL    HW270075   9.028   8.347   5.623
22746SOL     OW70076   9.768  14.613  11.224
22746SOL    HW170077   9.832  14.547  11.197
22746SOL    HW270078   9.772  14.612  11.320
22747SOL     OW70079  12.423   7.346  10.809
22747SOL    HW170080  12.400   7.253  10.817
22747SOL    HW270081  12.448   7.356  10.717
22748SOL     OW70082   6.714   3.533   4.956
22748SOL    HW170083   6.709   3.462   4.892
22748SOL    HW270084   6.640   3.517   5.015
22749SOL     OW70085   1.042   9.613  10.999
22749SOL    HW170086   1.118   9.608  10.941
22749SOL    HW270087   1.074   9.582  11.084
22750SOL     OW70088  13.084   2.340   9.509
22750SOL    HW170089  13.081   2.435   9.496
22750SOL    HW270090  13.153   2.326   9.574
22751SOL     OW70091   4.034   0.133   5.219
22751SOL    HW170092   4.068   0.067   5.279
22751SOL    HW270093   4.111   0.166   5.172
22752SOL     OW70094   4.107  11.856  12.265
22752SOL    HW170095   4.137  11.847  12.174
22752SOL    HW270096   4.045  11.928  12.263
22753SOL     OW70097   6.911  14.363   1.686
22753SOL    HW170098   6.833  14.363   1.632
22753SOL    HW270099   6.908  14.446   1.733
22754SOL     OW70100   6.603  14.358  11.019
22754SOL    HW170101   6.636  14.442  11.052
22754SOL    HW270102   6.538  14.330  11.083
22755SOL     OW70103   7.439   3.901   7.276
22755SOL    HW170104   7.445   3.940   7.364
22755SOL    HW270105   7.523   3.922   7.235
22756SOL     OW70106   9.602  14.007   3.146
22756SOL    HW170107   9.678  13.987   3.091
22756SOL    HW270108   9.532  13.952   3.111
22757SOL     OW70109   5.151  10.552   6.287
22757SOL    HW170110   5.225  10.571   6.344
22757SOL    HW270111   5.088  10.621   6.306
22758SOL     OW70112   6.196   8.928  10.394
22758SOL    HW170113   6.192   8.835  10.418
22758SOL    HW270114   6.130   8.938  10.326
22759SOL     OW70115   3.665   6.073  12.447
22759SOL    HW170116   3.682   6.124  12.526
22759SOL    HW270117   3.598   6.122  12.401
22760SOL     OW70118   4.721  10.239  13.319
22760SOL    HW170119   4.687  10.240  13.230
22760SOL    HW270120   4.815  10.254  13.309
22761SOL     OW70121   3.557  12.070   4.513
22761SOL    HW170122   3.636  12.047   4.562
22761SOL    HW270123   3.588  12.128   4.443
22762SOL     OW70124   2.002   8.742   2.345
22762SOL    HW170125   1.992   8.704   2.258
22762SOL    HW270126   1.957   8.681   2.404
22763SOL     OW70127   2.752   0.468   2.358
22763SOL    HW170128   2.822   0.532   2.371
22763SOL    HW270129   2.797   0.386   2.340
22764SOL     OW70130   2.532  14.448   9.941
22764SOL    HW170131   2.441  14.478   9.948
22764SOL    HW270132   2.551  14.456   9.847
22765SOL     OW70133   6.033  10.425  11.689
22765SOL    HW170134   6.013  10.427  11.783
22765SOL    HW270135   6.093  10.352  11.678
22766SOL     OW70136   1.929   0.210   1.248
22766SOL    HW170137   1.907   0.146   1.316
22766SOL    HW270138   1.959   0.157   1.174
22767SOL     OW70139   9.212  10.971  10.075
22767SOL    HW170140   9.139  11.014  10.118
22767SOL    HW270141   9.173  10.900  10.025
22768SOL     OW70142   2.141  12.541  13.867
22768SOL    HW170143   2.144  12.469  13.930
22768SOL    HW270144   2.232  12.570  13.859
22769SOL     OW70145  11.358   2.083   6.606
22769SOL    HW170146  11.293   2.152   6.602
22769SOL    HW270147  11.329   2.019   6.541
22770SOL     OW70148   2.767  13.166   1.521
22770SOL    HW170149   2.730  13.171   1.433
22770SOL    HW270150   2.848  13.217   1.515
22771SOL     OW70151  13.896   4.975   7.164
22771SOL    HW170152  13.974   4.999   7.115
22771SOL    HW270153  13.925   4.907   7.225
22772SOL     OW70154  11.866  13.359  11.481
22772SOL    HW170155  11.825  13.303  11.415
22772SOL    HW270156  11.899  13.434  11.432
22773SOL     OW70157   5.019  10.192  10.081
22773SOL    HW170158   4.936  10.237  10.062
22773SOL    HW270159   5.008  10.105  10.043
22774SOL     OW70160  13.852   5.879   7.582
22774SOL    HW170161  13.812   5.870   7.669
22774SOL    HW270162  13.907   5.801   7.573
22775SOL     OW70163   2.024   3.641   7.768
22775SOL    HW170164   2.026   3.599   7.682
22775SOL    HW270165   2.116   3.651   7.792
22776SOL     OW70166   5.096   9.354  13.396
22776SOL    HW170167   5.130   9.270  13.364
22776SOL    HW270168   5.027   9.330  13.458
22777SOL     OW70169   9.643  11.663   4.747
22777SOL    HW170170   9.733  11.663   4.779
22777SOL    HW270171   9.617  11.571   4.749
22778SOL     OW70172  12.129   4.942   0.979
22778SOL    HW170173  12.184   5.017   0.956
22778SOL    HW270174  12.187   4.866   0.969
22779SOL     OW70175   6.266   5.712   2.486
22779SOL    HW170176   6.201   5.774   2.518
22779SOL    HW270177   6.216   5.635   2.459
22780SOL     OW70178  11.905   2.241   4.413
22780SOL    HW170179  11.981   2.189   4.389
22780SOL    HW270180  11.887   2.218   4.504
22781SOL     OW70181  11.356   5.227   6.360
22781SOL    HW170182  11.389   5.201   6.447
22781SOL    HW270183  11.407   5.174   6.299
22782SOL     OW70184   9.006   6.350   5.844
22782SOL    HW170185   9.019   6.394   5.760
22782SOL    HW270186   9.094   6.336   5.878
22783SOL     OW70187  14.748   6.559   5.159
22783SOL    HW170188  14.656   6.584   5.172
22783SOL    HW270189  14.748   6.464   5.165
22784SOL     OW70190  10.336  13.182   8.606
22784SOL    HW170191  10.403  13.242   8.571
22784SOL    HW270192  10.380  13.097   8.611
22785SOL     OW70193  11.274   2.141   6.008
22785SOL    HW170194  11.286   2.212   5.945
22785SOL    HW270195  11.320   2.067   5.970
22786SOL     OW70196   0.369   5.100   7.818
22786SOL    HW170197   0.456   5.062   7.806
22786SOL    HW270198   0.313   5.050   7.759
22787SOL     OW70199  12.234   6.402   1.828
22787SOL    HW170200  12.143   6.424   1.807
22787SOL    HW270201  12.231   6.377   1.920
22788SOL     OW70202   6.653   5.785  14.364
22788SOL    HW170203   6.566   5.778  14.404
22788SOL    HW270204   6.713   5.793  14.438
22789SOL     OW70205   8.910   0.570   6.364
22789SOL    HW170206   8.950   0.509   6.303
22789SOL    HW270207   8.853   0.625   6.311
22790SOL     OW70208   6.950   8.499   8.057
22790SOL    HW170209   6.953   8.457   8.143
22790SOL    HW270210   6.953   8.593   8.077
22791SOL     OW70211  12.342   4.386   6.023
22791SOL    HW170212  12.364   4.299   5.989
22791SOL    HW270213  12.336   4.441   5.945
22792SOL     OW70214  14.119  13.585  12.672
22792SOL    HW170215  14.188  13.575  12.738
22792SOL    HW270216  14.166  13.615  12.594
22793SOL     OW70217   0.622   6.732  13.371
22793SOL    HW170218   0.710   6.704  13.397
22793SOL    HW270219   0.613   6.702  13.280
22794SOL     OW70220   8.709   5.331   4.370
22794SOL    HW170221   8.708   5.422   4.341
22794SOL    HW270222   8.795   5.320   4.412
22795SOL     OW70223   4.819  10.577  11.684
22795SOL    HW170224   4.795  10.654  11.633
22795SOL    HW270225   4.886  10.533  11.632
22796SOL     OW70226  14.194  11.874   1.076
22796SOL    HW170227  14.186  11.837   1.164
22796SOL    HW270228  14.109  11.914   1.059
22797SOL     OW70229   2.554  13.645  11.967
22797SOL    HW170230   2.505  13.671  11.889
22797SOL    HW270231   2.530  13.710  12.033
22798SOL     OW70232   7.573   4.609   2.044
22798SOL    HW170233   7.507   4.666   2.004
22798SOL    HW270234   7.616   4.664   2.109
22799SOL     OW70235  13.896   5.663  10.909
22799SOL    HW170236  13.946   5.581  10.908
22799SOL    HW270237  13.903   5.693  11.000
22800SOL     OW70238   1.683   0.969  13.547
22800SOL    HW170239   1.731   0.918  13.480
22800SOL    HW270240   1.717   1.058  13.538
22801SOL     OW70241   8.471  11.114   2.782
22801SOL    HW170242   8.515  11.045   2.831
22801SOL    HW270243   8.444  11.071   2.700
22802SOL     OW70244   3.652   0.291  10.134
22802SOL    HW170245   3.707   0.269  10.209
22802SOL    HW270246   3.565   0.303  10.172
22803SOL     OW70247  13.973   0.149   6.110
22803SOL    HW170248  13.992   0.189   6.025
22803SOL    HW270249  14.035   0.191   6.170
22804SOL     OW70250   6.879   6.959   6.642
22804SOL    HW170251   6.863   7.053   6.634
22804SOL    HW270252   6.969   6.947   6.609
22805SOL     OW70253   4.397   0.266  11.382
22805SOL    HW170254   4.332   0.304  11.323
22805SOL    HW270255   4.370   0.294  11.469
22806SOL     OW70256   1.863  12.273   5.593
22806SOL    HW170257   1.845  12.312   5.508
22806SOL    HW270258   1.851  12.345   5.655
22807SOL     OW70259  11.059  11.996   0.855
22807SOL    HW170260  11.123  11.970   0.921
22807SOL    HW270261  11.017  12.074   0.892
22808SOL     OW70262  10.410  12.080  12.696
22808SOL    HW170263  10.439  12.058  12.784
22808SOL    HW270264  10.322  12.115  12.707
22809SOL     OW70265   4.321  10.346   4.309
22809SOL    HW170266   4.292  10.317   4.395
22809SOL    HW270267   4.290  10.436   4.302
22810SOL     OW70268   3.124   5.709   5.415
22810SOL    HW170269   3.034   5.682   5.433
22810SOL    HW270270   3.147   5.764   5.490
22811SOL     OW70271   7.890  10.665  10.879
22811SOL    HW170272   7.921  10.676  10.790
22811SOL    HW270273   7.892  10.570  10.894
22812SOL     OW70274   5.604  12.649   2.714
22812SOL    HW170275   5.570  12.715   2.655
22812SOL    HW270276   5.527  12.615   2.760
22813SOL     OW70277   2.426  14.535   6.429
22813SOL    HW170278   2.489  14.495   6.487
22813SOL    HW270279   2.478  14.586   6.367
22814SOL     OW70280   1.373  10.830   9.620
22814SOL    HW170281   1.401  10.802   9.707
22814SOL    HW270282   1.308  10.898   9.637
22815SOL     OW70283  12.932   1.152  12.423
22815SOL    HW170284  12.848   1.142  12.468
22815SOL    HW270285  12.919   1.226  12.364
22816SOL     OW70286   3.801   3.890   9.709
22816SOL    HW170287   3.791   3.843   9.791
22816SOL    HW270288   3.712   3.906   9.679
22817SOL     OW70289   8.155   6.813   7.203
22817SOL    HW170290   8.230   6.768   7.165
22817SOL    HW270291   8.178   6.825   7.295
22818SOL     OW70292  12.892   8.957   2.103
22818SOL    HW170293  12.924   9.040   2.069
22818SOL    HW270294  12.959   8.929   2.166
22819SOL     OW70295   7.722   1.097  14.367
22819SOL    HW170296   7.698   1.011  14.401
22819SOL    HW270297   7.809   1.085  14.330
22820SOL     OW70298   8.313  10.432  12.164
22820SOL    HW170299   8.266  10.438  12.247
22820SOL    HW270300   8.250  10.395  12.103
22821SOL     OW70301   4.835   7.900   2.337
22821SOL    HW170302   4.834   7.806   2.318
22821SOL    HW270303   4.784   7.909   2.418
22822SOL     OW70304  11.010   5.502   8.168
22822SOL    HW170305  11.026   5.514   8.074
22822SOL    HW270306  10.998   5.408   8.179
22823SOL     OW70307   0.283   0.747  12.017
22823SOL    HW170308   0.249   0.689  12.086
22823SOL    HW270309   0.314   0.824  12.063
22824SOL     OW70310   3.465   2.637   2.259
22824SOL    HW170311   3.439   2.717   2.305
22824SOL    HW270312   3.531   2.597   2.315
22825SOL     OW70313   2.586  10.728   7.231
22825SOL    HW170314   2.629  10.792   7.174
22825SOL    HW270315   2.520  10.687   7.175
22826SOL     OW70316   9.507   8.506   2.054
22826SOL    HW170317   9.599   8.518   2.076
22826SOL    HW270318   9.461   8.570   2.108
22827SOL     OW70319   4.156   0.876   9.457
22827SOL    HW170320   4.084   0.820   9.427
22827SOL    HW270321   4.190   0.915   9.377
22828SOL     OW70322   8.175   8.984   4.700
22828SOL    HW170323   8.253   9.027   4.735
22828SOL    HW270324   8.105   9.049   4.711
22829SOL     OW70325   7.425   4.092   1.058
22829SOL    HW170326   7.477   4.171   1.046
22829SOL    HW270327   7.355   4.118   1.119
22830SOL     OW70328  10.241   2.870   2.095
22830SOL    HW170329  10.159   2.853   2.143
22830SOL    HW270330  10.309   2.863   2.162
22831SOL     OW70331   7.364   2.698  11.797
22831SOL    HW170332   7.291   2.738  11.844
22831SOL    HW270333   7.434   2.692  11.863
22832SOL     OW70334   5.877   0.218  11.954
22832SOL    HW170335   5.911   0.261  11.875
22832SOL    HW270336   5.926   0.259  12.026
22833SOL     OW70337   7.531   0.031   5.171
22833SOL    HW170338   7.582   0.111   5.174
22833SOL    HW270339   7.586  14.841   5.213
22834SOL     OW70340   6.535  11.599   0.381
22834SOL    HW170341   6.472  11.617   0.310
22834SOL    HW270342   6.618  11.587   0.336
22835SOL     OW70343   2.725   4.262  13.375
22835SOL    HW170344   2.818   4.277  13.394
22835SOL    HW270345   2.706   4.177  13.416
22836SOL     OW70346   1.296  10.947   1.290
22836SOL    HW170347   1.237  10.872   1.278
22836SOL    HW270348   1.287  10.997   1.208
22837SOL     OW70349  12.258   6.006  10.373
22837SOL    HW170350  12.209   5.989  10.293
22837SOL    HW270351  12.273   5.919  10.410
22838SOL     OW70352  10.767   1.942   2.471
22838SOL    HW170353  10.852   1.952   2.514
22838SOL    HW270354  10.789   1.918   2.381
22839SOL     OW70355   0.961   0.507   3.576
22839SOL    HW170356   1.016   0.454   3.635
22839SOL    HW270357   0.916   0.443   3.522
22840SOL     OW70358  13.788   1.140  11.461
22840SOL    HW170359  13.779   1.113  11.552
22840SOL    HW270360  13.854   1.082  11.424
22841SOL     OW70361   6.625   2.950   1.379
22841SOL    HW170362   6.553   3.006   1.409
22841SOL    HW270363   6.633   2.970   1.285
22842SOL     OW70364   6.430   6.312  14.763
22842SOL    HW170365   6.502   6.279  14.817
22842SOL    HW270366   6.421   6.404  14.790
22843SOL     OW70367   5.076   1.011  12.626
22843SOL    HW170368   5.120   1.004  12.541
22843SOL    HW270369   5.013   1.082  12.614
22844SOL     OW70370   1.872   6.483   0.239
22844SOL    HW170371   1.793   6.522   0.201
22844SOL    HW270372   1.929   6.557   0.258
22845SOL     OW70373  13.148   4.029   1.424
22845SOL    HW170374  13.168   4.121   1.443
22845SOL    HW270375  13.168   4.019   1.331
22846SOL     OW70376  14.518   4.712  11.153
22846SOL    HW170377  14.593   4.728  11.211
22846SOL    HW270378  14.519   4.785  11.091
22847SOL     OW70379   0.333   1.205   3.576
22847SOL    HW170380   0.253   1.220   3.626
22847SOL    HW270381   0.363   1.293   3.552
22848SOL     OW70382   5.912   4.765   8.871
22848SOL    HW170383   5.885   4.700   8.935
22848SOL    HW270384   6.000   4.792   8.900
22849SOL     OW70385   7.353  14.425  13.571
22849SOL    HW170386   7.357  14.331  13.584
22849SOL    HW270387   7.415  14.442  13.499
22850SOL     OW70388   5.982   1.423   9.914
22850SOL    HW170389   6.034   1.465   9.845
22850SOL    HW270390   5.944   1.346   9.872
22851SOL     OW70391   7.029   4.057   4.485
22851SOL    HW170392   6.982   4.117   4.543
22851SOL    HW270393   7.104   4.107   4.454
22852SOL     OW70394  11.490   4.600   7.620
22852SOL    HW170395  11.457   4.656   7.689
22852SOL    HW270396  11.477   4.651   7.540
22853SOL     OW70397  11.301   9.122   4.525
22853SOL    HW170398  11.331   9.052   4.583
22853SOL    HW270399  11.339   9.100   4.440
22854SOL     OW70400   5.173   7.772  12.759
22854SOL    HW170401   5.176   7.852  12.811
22854SOL    HW270402   5.135   7.798  12.676
22855SOL     OW70403   5.688   0.569  13.215
22855SOL    HW170404   5.777   0.556  13.246
22855SOL    HW270405   5.694   0.645  13.157
22856SOL     OW70406   2.315   2.778   8.428
22856SOL    HW170407   2.239   2.837   8.428
22856SOL    HW270408   2.380   2.823   8.482
22857SOL     OW70409   6.721  11.777   7.375
22857SOL    HW170410   6.757  11.702   7.422
22857SOL    HW270411   6.794  11.838   7.367
22858SOL     OW70412   0.736   1.622  13.969
22858SOL    HW170413   0.757   1.530  13.955
22858SOL    HW270414   0.652   1.622  14.014
22859SOL     OW70415   8.610   3.885   3.069
22859SOL    HW170416   8.654   3.910   2.988
22859SOL    HW270417   8.530   3.937   3.070
22860SOL     OW70418   0.901  14.277   6.823
22860SOL    HW170419   0.855  14.316   6.897
22860SOL    HW270420   0.943  14.199   6.860
22861SOL     OW70421  14.688  11.015   5.239
22861SOL    HW170422  14.681  10.937   5.184
22861SOL    HW270423  14.717  10.982   5.324
22862SOL     OW70424   8.124   5.363   4.794
22862SOL    HW170425   8.120   5.334   4.703
22862SOL    HW270426   8.055   5.428   4.802
22863SOL     OW70427   1.008   6.482  13.691
22863SOL    HW170428   1.095   6.521  13.685
22863SOL    HW270429   0.978   6.502  13.779
22864SOL     OW70430  12.231   8.476   5.267
22864SOL    HW170431  12.227   8.385   5.297
22864SOL    HW270432  12.140   8.500   5.249
22865SOL     OW70433   7.058   9.703   5.998
22865SOL    HW170434   7.138   9.659   5.972
22865SOL    HW270435   7.058   9.700   6.094
22866SOL     OW70436  13.315  13.559   6.727
22866SOL    HW170437  13.340  13.644   6.689
22866SOL    HW270438  13.358  13.558   6.812
22867SOL     OW70439  13.480   3.073   0.692
22867SOL    HW170440  13.481   3.083   0.597
22867SOL    HW270441  13.560   3.023   0.711
22868SOL     OW70442  12.801   0.423   3.238
22868SOL    HW170443  12.724   0.384   3.280
22868SOL    HW270444  12.767   0.459   3.156
22869SOL     OW70445   1.259  13.645   5.496
22869SOL    HW170446   1.246  13.644   5.401
22869SOL    HW270447   1.266  13.553   5.520
22870SOL     OW70448   9.281   3.346  12.551
22870SOL    HW170449   9.196   3.309  12.527
22870SOL    HW270450   9.262   3.434  12.583
22871SOL     OW70451  13.999   7.575   5.741
22871SOL    HW170452  14.062   7.647   5.745
22871SOL    HW270453  13.998   7.540   5.830
22872SOL     OW70454  12.790   7.540  12.394
22872SOL    HW170455  12.883   7.560  12.387
22872SOL    HW270456  12.755   7.607  12.454
22873SOL     OW70457   0.621  13.726   9.969
22873SOL    HW170458   0.616  13.746  10.062
22873SOL    HW270459   0.706  13.683   9.958
22874SOL     OW70460   7.472   5.487  13.595
22874SOL    HW170461   7.453   5.407  13.643
22874SOL    HW270462   7.481   5.459  13.504
22875SOL     OW70463  11.781   8.880  13.775
22875SOL    HW170464  11.849   8.875  13.708
22875SOL    HW270465  11.738   8.794  13.772
22876SOL     OW70466  12.385  13.548  12.563
22876SOL    HW170467  12.346  13.463  12.544
22876SOL    HW270468  12.466  13.528  12.609
22877SOL     OW70469  12.712   7.680   6.143
22877SOL    HW170470  12.695   7.719   6.229
22877SOL    HW270471  12.686   7.588   6.153
22878SOL     OW70472   6.626   2.832  14.700
22878SOL    HW170473   6.539   2.806  14.669
22878SOL    HW270474   6.608   2.899  14.766
22879SOL     OW70475   9.968  13.145   2.585
22879SOL    HW170476  10.035  13.172   2.648
22879SOL    HW270477   9.966  13.215   2.520
22880SOL     OW70478   0.614  12.843  12.996
22880SOL    HW170479   0.696  12.817  13.039
22880SOL    HW270480   0.600  12.933  13.026
22881SOL     OW70481   6.312   0.870   3.057
22881SOL    HW170482   6.341   0.955   3.089
22881SOL    HW270483   6.375   0.808   3.094
22882SOL     OW70484   1.546   4.849   9.688
22882SOL    HW170485   1.524   4.797   9.611
22882SOL    HW270486   1.641   4.860   9.683
22883SOL     OW70487  11.815   9.115   3.133
22883SOL    HW170488  11.747   9.159   3.184
22883SOL    HW270489  11.887   9.103   3.194
22884SOL     OW70490   9.418   6.692   0.238
22884SOL    HW170491   9.328   6.722   0.248
22884SOL    HW270492   9.462   6.722   0.317
22885SOL     OW70493   1.132   2.835   9.828
22885SOL    HW170494   1.086   2.876   9.754
22885SOL    HW270495   1.064   2.791   9.878
22886SOL     OW70496  11.192   8.965  11.360
22886SOL    HW170497  11.227   8.969  11.449
22886SOL    HW270498  11.262   9.001  11.305
22887SOL     OW70499  12.350   9.263   4.272
22887SOL    HW170500  12.413   9.254   4.344
22887SOL    HW270501  12.341   9.175   4.237
22888SOL     OW70502  12.940   5.571  13.803
22888SOL    HW170503  12.875   5.598  13.738
22888SOL    HW270504  12.976   5.490  13.769
22889SOL     OW70505   4.277   4.016  11.206
22889SOL    HW170506   4.200   3.994  11.155
22889SOL    HW270507   4.252   4.094  11.256
22890SOL     OW70508   0.940  10.132   4.398
22890SOL    HW170509   0.930  10.039   4.419
22890SOL    HW270510   0.937  10.136   4.303
22891SOL     OW70511  10.995  11.158  10.291
22891SOL    HW170512  10.957  11.079  10.251
22891SOL    HW270513  10.992  11.141  10.385
22892SOL     OW70514   7.805   6.651  12.453
22892SOL    HW170515   7.869   6.681  12.388
22892SOL    HW270516   7.851   6.583  12.501
22893SOL     OW70517   4.404   7.391  13.290
22893SOL    HW170518   4.387   7.431  13.204
22893SOL    HW270519   4.497   7.405  13.305
22894SOL     OW70520   9.414  10.234  11.181
22894SOL    HW170521   9.320  10.226  11.194
22894SOL    HW270522   9.452  10.171  11.242
22895SOL     OW70523   0.788   5.033   2.285
22895SOL    HW170524   0.752   4.945   2.277
22895SOL    HW270525   0.724   5.080   2.339
22896SOL     OW70526  11.753  11.885   0.577
22896SOL    HW170527  11.768  11.823   0.505
22896SOL    HW270528  11.665  11.863   0.608
22897SOL     OW70529  13.394   1.632  13.742
22897SOL    HW170530  13.329   1.575  13.782
22897SOL    HW270531  13.400   1.707  13.801
22898SOL     OW70532   8.316  11.345   2.730
22898SOL    HW170533   8.382  11.409   2.703
22898SOL    HW270534   8.366  11.266   2.752
22899SOL     OW70535  13.368   9.525   5.636
22899SOL    HW170536  13.280   9.507   5.669
22899SOL    HW270537  13.355   9.584   5.562
22900SOL     OW70538   1.768   2.646   7.486
22900SOL    HW170539   1.736   2.618   7.571
22900SOL    HW270540   1.739   2.737   7.479
22901SOL     OW70541   1.572  10.804  12.707
22901SOL    HW170542   1.556  10.775  12.617
22901SOL    HW270543   1.516  10.748  12.760
22902SOL     OW70544   8.260  11.468   1.452
22902SOL    HW170545   8.192  11.450   1.516
22902SOL    HW270546   8.270  11.386   1.404
22903SOL     OW70547  12.362   1.608   4.239
22903SOL    HW170548  12.331   1.520   4.217
22903SOL    HW270549  12.319   1.628   4.323
22904SOL     OW70550   7.645   3.153  13.327
22904SOL    HW170551   7.673   3.125  13.239
22904SOL    HW270552   7.554   3.125  13.334
22905SOL     OW70553  13.983   8.837   8.926
22905SOL    HW170554  13.937   8.778   8.985
22905SOL    HW270555  14.037   8.892   8.984
22906SOL     OW70556   8.120  10.430   0.650
22906SOL    HW170557   8.036  10.382   0.646
22906SOL    HW270558   8.171  10.382   0.715
22907SOL     OW70559  13.688  11.320   4.420
22907SOL    HW170560  13.745  11.246   4.401
22907SOL    HW270561  13.606  11.279   4.449
22908SOL     OW70562  10.287  13.419   9.203
22908SOL    HW170563  10.297  13.493   9.263
22908SOL    HW270564  10.365  13.423   9.147
22909SOL     OW70565   4.090   2.029   9.464
22909SOL    HW170566   4.154   2.079   9.414
22909SOL    HW270567   4.010   2.033   9.411
22910SOL     OW70568   8.346  14.149   5.557
22910SOL    HW170569   8.343  14.103   5.473
22910SOL    HW270570   8.310  14.236   5.538
22911SOL     OW70571  13.408  11.311  12.757
22911SOL    HW170572  13.342  11.246  12.781
22911SOL    HW270573  13.433  11.289  12.668
22912SOL     OW70574   5.820   9.880   2.321
22912SOL    HW170575   5.860   9.906   2.404
22912SOL    HW270576   5.762   9.952   2.299
22913SOL     OW70577   9.606   7.518   6.976
22913SOL    HW170578   9.634   7.453   6.911
22913SOL    HW270579   9.522   7.485   7.009
22914SOL     OW70580  11.825  11.681   2.714
22914SOL    HW170581  11.738  11.644   2.732
22914SOL    HW270582  11.832  11.755   2.774
22915SOL     OW70583   8.301  14.750   1.969
22915SOL    HW170584   8.376  14.699   1.999
22915SOL    HW270585   8.268  14.702   1.893
22916SOL     OW70586   6.796  13.807  11.390
22916SOL    HW170587   6.887  13.796  11.363
22916SOL    HW270588   6.747  13.809  11.307
22917SOL     OW70589   5.258   1.722  13.929
22917SOL    HW170590   5.235   1.815  13.932
22917SOL    HW270591   5.193   1.684  13.869
22918SOL     OW70592   4.831   0.775   8.885
22918SOL    HW170593   4.855   0.684   8.903
22918SOL    HW270594   4.751   0.768   8.832
22919SOL     OW70595   1.800   4.394  11.197
22919SOL    HW170596   1.805   4.458  11.268
22919SOL    HW270597   1.884   4.403  11.151
22920SOL     OW70598   3.050   6.755   3.830
22920SOL    HW170599   3.063   6.826   3.893
22920SOL    HW270600   2.955   6.752   3.819
22921SOL     OW70601   4.545   1.570   9.571
22921SOL    HW170602   4.462   1.611   9.596
22921SOL    HW270603   4.608   1.642   9.569
22922SOL     OW70604   1.754   8.316   0.870
22922SOL    HW170605   1.816   8.255   0.829
22922SOL    HW270606   1.696   8.343   0.799
22923SOL     OW70607   6.716   8.948   1.721
22923SOL    HW170608   6.793   8.933   1.665
22923SOL    HW270609   6.749   8.943   1.810
22924SOL     OW70610   9.062   9.396   5.626
22924SOL    HW170611   8.999   9.375   5.557
22924SOL    HW270612   9.123   9.322   5.627
22925SOL     OW70613   9.037   8.856  12.234
22925SOL    HW170614   9.008   8.793  12.168
22925SOL    HW270615   8.957   8.895  12.267
22926SOL     OW70616   6.770   8.630   8.621
22926SOL    HW170617   6.786   8.664   8.709
22926SOL    HW270618   6.676   8.644   8.607
22927SOL     OW70619   0.574   1.326   4.301
22927SOL    HW170620   0.480   1.325   4.317
22927SOL    HW270621   0.583   1.374   4.218
22928SOL     OW70622   4.366   5.841   2.262
22928SOL    HW170623   4.420   5.917   2.283
22928SOL    HW270624   4.303   5.873   2.198
22929SOL     OW70625   7.271   2.265  13.426
22929SOL    HW170626   7.217   2.340  13.402
22929SOL    HW270627   7.332   2.300  13.491
22930SOL     OW70628  13.117   8.281   7.245
22930SOL    HW170629  13.155   8.326   7.169
22930SOL    HW270630  13.190   8.270   7.305
22931SOL     OW70631  13.654  10.737  12.223
22931SOL    HW170632  13.688  10.690  12.299
22931SOL    HW270633  13.594  10.675  12.181
22932SOL     OW70634   9.922   3.389   5.773
22932SOL    HW170635   9.833   3.377   5.804
22932SOL    HW270636   9.932   3.324   5.703
22933SOL     OW70637   2.160   8.806  13.680
22933SOL    HW170638   2.211   8.787  13.602
22933SOL    HW270639   2.162   8.725  13.731
22934SOL     OW70640  10.948   3.048   6.730
22934SOL    HW170641  11.011   2.982   6.759
22934SOL    HW270642  10.952   3.045   6.634
22935SOL     OW70643  14.856  11.741   6.468
22935SOL    HW170644   0.039  11.809   6.436
22935SOL    HW270645   0.005  11.662   6.420
22936SOL     OW70646   5.934  13.390  10.053
22936SOL    HW170647   5.923  13.405  10.147
22936SOL    HW270648   5.959  13.475  10.018
22937SOL     OW70649   1.142  13.266  12.701
22937SOL    HW170650   1.173  13.181  12.731
22937SOL    HW270651   1.092  13.247  12.622
22938SOL     OW70652   6.180   7.227  13.858
22938SOL    HW170653   6.178   7.298  13.794
22938SOL    HW270654   6.146   7.151  13.810
22939SOL     OW70655  12.047   7.586  11.876
22939SOL    HW170656  12.015   7.612  11.963
22939SOL    HW270657  12.132   7.630  11.868
22940SOL     OW70658   9.800   5.620   7.709
22940SOL    HW170659   9.864   5.647   7.775
22940SOL    HW270660   9.715   5.636   7.749
22941SOL     OW70661  14.473   5.224   5.997
22941SOL    HW170662  14.480   5.129   5.999
22941SOL    HW270663  14.488   5.248   5.906
22942SOL     OW70664  12.595   9.402   1.212
22942SOL    HW170665  12.516   9.426   1.164
22942SOL    HW270666  12.666   9.439   1.159
22943SOL     OW70667   6.810   7.204   2.594
22943SOL    HW170668   6.754   7.277   2.568
22943SOL    HW270669   6.796   7.138   2.526
22944SOL     OW70670   7.184   5.856   4.764
22944SOL    HW170671   7.177   5.764   4.788
22944SOL    HW270672   7.197   5.855   4.669
22945SOL     OW70673   1.332   1.360   0.644
22945SOL    HW170674   1.248   1.357   0.599
22945SOL    HW270675   1.396   1.377   0.574
22946SOL     OW70676  11.439  14.040  10.243
22946SOL    HW170677  11.416  13.948  10.250
22946SOL    HW270678  11.356  14.087  10.254
22947SOL     OW70679  12.433  11.007   6.970
22947SOL    HW170680  12.341  11.028   6.952
22947SOL    HW270681  12.442  10.916   6.943
22948SOL     OW70682   2.507  13.267   2.911
22948SOL    HW170683   2.514  13.171   2.905
22948SOL    HW270684   2.596  13.296   2.931
22949SOL     OW70685   0.500  12.578   3.573
22949SOL    HW170686   0.470  12.620   3.492
22949SOL    HW270687   0.420  12.539   3.610
22950SOL     OW70688   7.134   3.308  13.818
22950SOL    HW170689   7.225   3.279  13.831
22950SOL    HW270690   7.117   3.290  13.726
22951SOL     OW70691  11.033   7.936   1.587
22951SOL    HW170692  11.067   7.976   1.507
22951SOL    HW270693  10.947   7.976   1.600
22952SOL     OW70694   2.944   4.850  14.645
22952SOL    HW170695   2.898   4.900  14.577
22952SOL    HW270696   2.968   4.915  14.711
22953SOL     OW70697   2.566  13.777   7.310
22953SOL    HW170698   2.560  13.806   7.401
22953SOL    HW270699   2.490  13.720   7.298
22954SOL     OW70700  12.815  13.285   9.461
22954SOL    HW170701  12.724  13.282   9.431
22954SOL    HW270702  12.817  13.227   9.537
22955SOL     OW70703   7.392   1.778   3.016
22955SOL    HW170704   7.419   1.834   3.089
22955SOL    HW270705   7.325   1.720   3.052
22956SOL     OW70706  14.759  10.061  10.155
22956SOL    HW170707  14.845  10.022  10.172
22956SOL    HW270708  14.699  10.012  10.210
22957SOL     OW70709   6.959   1.447   3.590
22957SOL    HW170710   6.990   1.463   3.501
22957SOL    HW270711   6.914   1.362   3.585
22958SOL     OW70712   8.099   6.777  13.869
22958SOL    HW170713   8.121   6.705  13.810
22958SOL    HW270714   8.119   6.744  13.956
22959SOL     OW70715   0.896  14.297   0.655
22959SOL    HW170716   0.821  14.356   0.657
22959SOL    HW270717   0.958  14.337   0.594
22960SOL     OW70718   9.526   7.426  14.622
22960SOL    HW170719   9.612   7.441  14.583
22960SOL    HW270720   9.473   7.391  14.551
22961SOL     OW70721   1.520   6.074  10.936
22961SOL    HW170722   1.590   6.139  10.941
22961SOL    HW270723   1.441   6.122  10.961
22962SOL     OW70724  13.345   5.189   6.078
22962SOL    HW170725  13.262   5.162   6.040
22962SOL    HW270726  13.324   5.265   6.131
22963SOL     OW70727  14.442   3.286  14.365
22963SOL    HW170728  14.469   3.377  14.353
22963SOL    HW270729  14.488   3.238  14.296
22964SOL     OW70730  14.310   7.573   9.401
22964SOL    HW170731  14.308   7.602   9.492
22964SOL    HW270732  14.271   7.645   9.352
22965SOL     OW70733   5.675   3.976   4.969
22965SOL    HW170734   5.730   3.991   5.046
22965SOL    HW270735   5.711   3.897   4.929
22966SOL     OW70736  14.363   6.812  10.933
22966SOL    HW170737  14.459   6.808  10.939
22966SOL    HW270738  14.346   6.893  10.885
22967SOL     OW70739   6.440   1.967   2.666
22967SOL    HW170740   6.437   1.880   2.707
22967SOL    HW270741   6.487   2.021   2.729
22968SOL     OW70742   7.876   5.513   1.095
22968SOL    HW170743   7.893   5.607   1.091
22968SOL    HW270744   7.795   5.506   1.145
22969SOL     OW70745  14.399   2.046   2.836
22969SOL    HW170746  14.327   2.055   2.773
22969SOL    HW270747  14.386   1.960   2.876
22970SOL     OW70748   9.434   2.214  12.235
22970SOL    HW170749   9.342   2.191  12.249
22970SOL    HW270750   9.482   2.158  12.295
22971SOL     OW70751  13.851  11.098   4.363
22971SOL    HW170752  13.932  11.120   4.317
22971SOL    HW270753  13.879  11.050   4.441
22972SOL     OW70754   1.908   1.540   2.698
22972SOL    HW170755   1.988   1.583   2.730
22972SOL    HW270756   1.936   1.493   2.619
22973SOL     OW70757   0.251  12.194   3.775
22973SOL    HW170758   0.236  12.187   3.680
22973SOL    HW270759   0.325  12.135   3.792
22974SOL     OW70760  11.556   6.919  13.452
22974SOL    HW170761  11.467   6.935  13.423
22974SOL    HW270762  11.604   6.998  13.427
22975SOL     OW70763   7.838   3.786   6.186
22975SOL    HW170764   7.873   3.864   6.143
22975SOL    HW270765   7.788   3.820   6.261
22976SOL     OW70766   8.396  10.863  11.115
22976SOL    HW170767   8.355  10.941  11.077
22976SOL    HW270768   8.323  10.803  11.132
22977SOL     OW70769  13.181   2.680   6.143
22977SOL    HW170770  13.120   2.696   6.215
22977SOL    HW270771  13.152   2.739   6.073
22978SOL     OW70772   2.207  11.605   8.858
22978SOL    HW170773   2.236  11.514   8.852
22978SOL    HW270774   2.270  11.647   8.916
22979SOL     OW70775   2.853  14.407   1.479
22979SOL    HW170776   2.828  14.413   1.387
22979SOL    HW270777   2.914  14.480   1.492
22980SOL     OW70778   9.836   3.611   0.569
22980SOL    HW170779   9.819   3.568   0.653
22980SOL    HW270780   9.899   3.679   0.590
22981SOL     OW70781  11.363  11.590   5.981
22981SOL    HW170782  11.302  11.517   5.993
22981SOL    HW270783  11.375  11.626   6.069
22982SOL     OW70784   2.305   0.430   5.845
22982SOL    HW170785   2.210   0.416   5.848
22982SOL    HW270786   2.314   0.525   5.834
22983SOL     OW70787   7.831   5.858   0.592
22983SOL    HW170788   7.873   5.887   0.673
22983SOL    HW270789   7.815   5.765   0.606
22984SOL     OW70790   8.167   6.328   8.698
22984SOL    HW170791   8.088   6.356   8.650
22984SOL    HW270792   8.199   6.252   8.650
22985SOL     OW70793   7.462   0.398   9.927
22985SOL    HW170794   7.410   0.457   9.981
22985SOL    HW270795   7.552   0.429   9.938
22986SOL     OW70796   9.180  10.347   7.405
22986SOL    HW170797   9.091  10.357   7.440
22986SOL    HW270798   9.223  10.286   7.465
22987SOL     OW70799   4.790   5.839  13.055
22987SOL    HW170800   4.853   5.784  13.008
22987SOL    HW270801   4.837   5.921  13.071
22988SOL     OW70802   5.825  12.294   9.099
22988SOL    HW170803   5.915  12.321   9.083
22988SOL    HW270804   5.827  12.255   9.187
22989SOL     OW70805  14.609   7.328   2.890
22989SOL    HW170806  14.666   7.371   2.826
22989SOL    HW270807  14.522   7.362   2.870
22990SOL     OW70808  13.593   6.772  13.119
22990SOL    HW170809  13.503   6.780  13.085
22990SOL    HW270810  13.604   6.848  13.176
22991SOL     OW70811   5.913   9.664  11.843
22991SOL    HW170812   5.938   9.723  11.772
22991SOL    HW270813   5.995   9.624  11.872
22992SOL     OW70814   6.505   9.087   7.714
22992SOL    HW170815   6.571   9.020   7.732
22992SOL    HW270816   6.440   9.042   7.659
22993SOL     OW70817   4.421   5.832  13.629
22993SOL    HW170818   4.449   5.905  13.684
22993SOL    HW270819   4.434   5.863  13.540
22994SOL     OW70820   7.554   7.316   6.496
22994SOL    HW170821   7.556   7.225   6.466
22994SOL    HW270822   7.631   7.356   6.455
22995SOL     OW70823   2.550   1.182   4.286
22995SOL    HW170824   2.638   1.144   4.276
22995SOL    HW270825   2.506   1.125   4.348
22996SOL     OW70826   5.453   6.955   2.368
22996SOL    HW170827   5.362   6.966   2.396
22996SOL    HW270828   5.480   7.041   2.338
22997SOL     OW70829   7.273   7.859  14.771
22997SOL    HW170830   7.362   7.894  14.766
22997SOL    HW270831   7.234   7.902  14.846
22998SOL     OW70832   0.881   2.008  10.844
22998SOL    HW170833   0.826   2.081  10.873
22998SOL    HW270834   0.821   1.934  10.838
22999SOL     OW70835   4.985   9.809   2.240
22999SOL    HW170836   5.025   9.739   2.189
22999SOL    HW270837   5.053   9.836   2.301
23000SOL     OW70838   6.139   6.977   1.312
23000SOL    HW170839   6.049   6.946   1.307
23000SOL    HW270840   6.156   7.017   1.227
23001SOL     OW70841   8.913   8.479   4.489
23001SOL    HW170842   8.857   8.510   4.560
23001SOL    HW270843   9.002   8.490   4.523
23002SOL     OW70844   3.239   6.879   9.112
23002SOL    HW170845   3.305   6.811   9.128
23002SOL    HW270846   3.280   6.959   9.145
23003SOL     OW70847   8.294   0.121   4.000
23003SOL    HW170848   8.333   0.137   4.085
23003SOL    HW270849   8.267   0.207   3.969
23004SOL     OW70850   8.290  14.532   2.584
23004SOL    HW170851   8.268  14.619   2.552
23004SOL    HW270852   8.311  14.545   2.677
23005SOL     OW70853  14.481   1.810   0.219
23005SOL    HW170854  14.465   1.717   0.204
23005SOL    HW270855  14.573   1.814   0.246
23006SOL     OW70856   9.400   3.925  10.628
23006SOL    HW170857   9.494   3.912  10.643
23006SOL    HW270858   9.389   4.020  10.630
23007SOL     OW70859   6.548   0.888  10.836
23007SOL    HW170860   6.591   0.921  10.757
23007SOL    HW270861   6.462   0.859  10.806
23008SOL     OW70862   7.483   2.896  13.537
23008SOL    HW170863   7.517   2.808  13.557
23008SOL    HW270864   7.560   2.953  13.544
23009SOL     OW70865  10.712   2.010   8.634
23009SOL    HW170866  10.792   2.011   8.581
23009SOL    HW270867  10.744   2.022   8.724
23010SOL     OW70868   4.012  13.485   3.461
23010SOL    HW170869   4.037  13.573   3.488
23010SOL    HW270870   4.076  13.462   3.393
23011SOL     OW70871   8.975   2.995   9.365
23011SOL    HW170872   8.988   3.089   9.363
23011SOL    HW270873   8.948   2.975   9.455
23012SOL     OW70874   9.021   1.025   6.416
23012SOL    HW170875   9.013   1.121   6.414
23012SOL    HW270876   9.067   1.003   6.334
23013SOL     OW70877   4.893   6.585   3.028
23013SOL    HW170878   4.983   6.615   3.037
23013SOL    HW270879   4.865   6.565   3.117
23014SOL     OW70880  14.314   6.754   4.085
23014SOL    HW170881  14.387   6.778   4.028
23014SOL    HW270882  14.249   6.716   4.025
23015SOL     OW70883   3.904  12.016  14.731
23015SOL    HW170884   3.957  12.059  14.664
23015SOL    HW270885   3.842  12.083  14.759
23016SOL     OW70886   0.167  12.780   8.663
23016SOL    HW170887   0.088  12.827   8.639
23016SOL    HW270888   0.233  12.849   8.677
23017SOL     OW70889   6.219   6.725  12.213
23017SOL    HW170890   6.206   6.697  12.122
23017SOL    HW270891   6.284   6.664  12.248
23018SOL     OW70892   9.906   6.373  12.906
23018SOL    HW170893   9.853   6.295  12.923
23018SOL    HW270894   9.857   6.445  12.945
23019SOL     OW70895   7.082  10.663   3.165
23019SOL    HW170896   7.166  10.697   3.134
23019SOL    HW270897   7.103  10.620   3.249
23020SOL     OW70898   1.010  12.703   5.753
23020SOL    HW170899   1.051  12.780   5.793
23020SOL    HW270900   1.073  12.632   5.769
23021SOL     OW70901   0.907   1.658   4.625
23021SOL    HW170902   0.954   1.614   4.554
23021SOL    HW270903   0.845   1.591   4.656
23022SOL     OW70904   3.485   3.501   1.702
23022SOL    HW170905   3.457   3.518   1.792
23022SOL    HW270906   3.426   3.432   1.672
23023SOL     OW70907   8.116  10.021  12.273
23023SOL    HW170908   8.183   9.979  12.218
23023SOL    HW270909   8.075   9.948  12.319
23024SOL     OW70910  10.181  11.900   7.877
23024SOL    HW170911  10.140  11.954   7.945
23024SOL    HW270912  10.275  11.901   7.898
23025SOL     OW70913  13.323  11.130   1.360
23025SOL    HW170914  13.397  11.158   1.414
23025SOL    HW270915  13.312  11.037   1.380
23026SOL     OW70916   1.725  10.221   3.259
23026SOL    HW170917   1.696  10.213   3.350
23026SOL    HW270918   1.644  10.219   3.208
23027SOL     OW70919  12.041   0.646   3.996
23027SOL    HW170920  11.956   0.650   3.952
23027SOL    HW270921  12.095   0.594   3.937
23028SOL     OW70922   8.760   3.559   7.323
23028SOL    HW170923   8.840   3.602   7.350
23028SOL    HW270924   8.691   3.625   7.335
23029SOL     OW70925   9.665  10.159  14.545
23029SOL    HW170926   9.719  10.156  14.466
23029SOL    HW270927   9.575  10.153  14.514
23030SOL     OW70928   5.353   1.701  14.186
23030SOL    HW170929   5.444   1.671  14.183
23030SOL    HW270930   5.326   1.704  14.094
23031SOL     OW70931   0.957  12.725   9.028
23031SOL    HW170932   0.965  12.657   9.095
23031SOL    HW270933   0.864  12.726   9.005
23032SOL     OW70934  10.187   2.127   4.379
23032SOL    HW170935  10.226   2.178   4.307
23032SOL    HW270936  10.097   2.111   4.351
23033SOL     OW70937   8.607  12.446   6.630
23033SOL    HW170938   8.618  12.541   6.640
23033SOL    HW270939   8.535  12.436   6.568
23034SOL     OW70940   7.102   3.823  12.113
23034SOL    HW170941   7.078   3.855  12.027
23034SOL    HW270942   7.155   3.893  12.152
23035SOL     OW70943   8.799   2.094   4.950
23035SOL    HW170944   8.833   2.174   4.992
23035SOL    HW270945   8.709   2.087   4.982
23036SOL     OW70946   1.143   3.833   4.686
23036SOL    HW170947   1.205   3.819   4.757
23036SOL    HW270948   1.147   3.927   4.667
23037SOL     OW70949  10.358   9.206   0.407
23037SOL    HW170950  10.291   9.158   0.358
23037SOL    HW270951  10.436   9.201   0.352
23038SOL     OW70952  12.896   8.162  14.094
23038SOL    HW170953  12.933   8.250  14.094
23038SOL    HW270954  12.867   8.148  14.185
23039SOL     OW70955  10.062   3.908  12.394
23039SOL    HW170956  10.107   3.962  12.459
23039SOL    HW270957  10.004   3.852  12.445
23040SOL     OW70958  10.838   6.951  11.679
23040SOL    HW170959  10.923   6.913  11.700
23040SOL    HW270960  10.790   6.950  11.761
23041SOL     OW70961   7.719   1.800   5.450
23041SOL    HW170962   7.633   1.798   5.492
23041SOL    HW270963   7.708   1.751   5.368
23042SOL     OW70964  13.596  11.199   8.578
23042SOL    HW170965  13.528  11.195   8.511
23042SOL    HW270966  13.550  11.222   8.658
23043SOL     OW70967   7.719   4.199   0.398
23043SOL    HW170968   7.766   4.179   0.478
23043SOL    HW270969   7.660   4.271   0.422
23044SOL     OW70970   5.341   3.069   2.727
23044SOL    HW170971   5.352   3.104   2.815
23044SOL    HW270972   5.254   3.100   2.700
23045SOL     OW70973  14.006  13.190   5.086
23045SOL    HW170974  13.949  13.208   5.160
23045SOL    HW270975  14.009  13.272   5.037
23046SOL     OW70976   5.313   1.149  11.497
23046SOL    HW170977   5.301   1.062  11.533
23046SOL    HW270978   5.285   1.209  11.566
23047SOL     OW70979  12.194   8.950  12.362
23047SOL    HW170980  12.163   8.866  12.395
23047SOL    HW270981  12.284   8.934  12.335
23048SOL     OW70982   0.410   2.620  11.464
23048SOL    HW170983   0.329   2.662  11.438
23048SOL    HW270984   0.383   2.543  11.513
23049SOL     OW70985   5.961  10.461   3.124
23049SOL    HW170986   5.931  10.379   3.163
23049SOL    HW270987   5.922  10.529   3.180
23050SOL     OW70988  11.383  12.298   7.735
23050SOL    HW170989  11.374  12.259   7.822
23050SOL    HW270990  11.327  12.246   7.679
23051SOL     OW70991   0.815  13.313   9.139
23051SOL    HW170992   0.901  13.289   9.171
23051SOL    HW270993   0.826  13.321   9.044
23052SOL     OW70994  10.760  13.747  13.874
23052SOL    HW170995  10.769  13.722  13.966
23052SOL    HW270996  10.673  13.786  13.867
23053SOL     OW70997  10.264   3.170   3.923
23053SOL    HW170998  10.358   3.160   3.941
23053SOL    HW270999  10.227   3.204   4.004
23054SOL     OW71000   4.302  11.967   1.565
23054SOL    HW171001   4.376  12.026   1.575
23054SOL    HW271002   4.329  11.887   1.611
23055SOL     OW71003  10.769   1.958   6.298
23055SOL    HW171004  10.729   2.031   6.345
23055SOL    HW271005  10.862   1.961   6.322
23056SOL     OW71006   3.685   2.043   5.961
23056SOL    HW171007   3.629   2.058   5.885
23056SOL    HW271008   3.738   1.967   5.938
23057SOL     OW71009  12.624   0.274   7.559
23057SOL    HW171010  12.666   0.262   7.474
23057SOL    HW271011  12.539   0.314   7.538
23058SOL     OW71012   9.063  14.728   4.959
23058SOL    HW171013   9.092  14.799   5.017
23058SOL    HW271014   8.994  14.768   4.905
23059SOL     OW71015   1.483  11.985  11.332
23059SOL    HW171016   1.547  11.937  11.384
23059SOL    HW271017   1.426  11.918  11.295
23060SOL     OW71018   8.046  13.003   0.311
23060SOL    HW171019   8.038  12.917   0.270
23060SOL    HW271020   8.127  12.999   0.362
23061SOL     OW71021   3.857   9.607   4.659
23061SOL    HW171022   3.785   9.552   4.627
23061SOL    HW271023   3.923   9.544   4.690
23062SOL     OW71024  10.797   4.787   2.379
23062SOL    HW171025  10.728   4.728   2.408
23062SOL    HW271026  10.822   4.836   2.458
23063SOL     OW71027   9.012   3.954  10.547
23063SOL    HW171028   9.040   3.962  10.456
23063SOL    HW271029   9.071   4.011  10.596
23064SOL     OW71030   9.783  11.302  13.251
23064SOL    HW171031   9.745  11.388  13.270
23064SOL    HW271032   9.815  11.309  13.161
23065SOL     OW71033  14.427   7.488  13.134
23065SOL    HW171034  14.370   7.451  13.201
23065SOL    HW271035  14.373   7.553  13.090
23066SOL     OW71036   9.297   1.438   8.233
23066SOL    HW171037   9.275   1.447   8.141
23066SOL    HW271038   9.393   1.439   8.235
23067SOL     OW71039   6.495   6.557  10.470
23067SOL    HW171040   6.528   6.618  10.404
23067SOL    HW271041   6.416   6.520  10.430
23068SOL     OW71042   2.715   5.315   9.996
23068SOL    HW171043   2.719   5.410   9.989
23068SOL    HW271044   2.727   5.283   9.907
23069SOL     OW71045  10.913  11.907   7.306
23069SOL    HW171046  10.926  11.819   7.271
23069SOL    HW271047  10.820  11.911   7.329
23070SOL     OW71048   2.109  13.346   1.571
23070SOL    HW171049   2.106  13.388   1.657
23070SOL    HW271050   2.184  13.387   1.527
23071SOL     OW71051  11.876  10.664   2.760
23071SOL    HW171052  11.824  10.696   2.834
23071SOL    HW271053  11.850  10.573   2.751
23072SOL     OW71054  14.330  10.152   0.010
23072SOL    HW171055  14.322  10.064  14.849
23072SOL    HW271056  14.288  10.209  14.823
23073SOL     OW71057   2.767  11.753   3.120
23073SOL    HW171058   2.834  11.804   3.076
23073SOL    HW271059   2.807  11.666   3.133
23074SOL     OW71060   1.880   7.637  13.036
23074SOL    HW171061   1.838   7.577  13.097
23074SOL    HW271062   1.808   7.686  12.997
23075SOL     OW71063   2.806  12.104   5.062
23075SOL    HW171064   2.885  12.130   5.110
23075SOL    HW271065   2.745  12.177   5.076
23076SOL     OW71066  13.370   9.535   2.270
23076SOL    HW171067  13.409   9.526   2.183
23076SOL    HW271068  13.275   9.529   2.255
23077SOL     OW71069   0.207  11.898  10.104
23077SOL    HW171070   0.240  11.941  10.183
23077SOL    HW271071   0.278  11.908  10.040
23078SOL     OW71072  10.012   5.221   9.670
23078SOL    HW171073   9.984   5.295   9.616
23078SOL    HW271074   9.940   5.159   9.665
23079SOL     OW71075   3.377   3.181   8.100
23079SOL    HW171076   3.375   3.269   8.138
23079SOL    HW271077   3.459   3.144   8.132
23080SOL     OW71078   4.681   7.428   9.657
23080SOL    HW171079   4.625   7.404   9.583
23080SOL    HW271080   4.713   7.344   9.690
23081SOL     OW71081   1.308  13.831   2.062
23081SOL    HW171082   1.325  13.913   2.108
23081SOL    HW271083   1.340  13.763   2.122
23082SOL     OW71084  11.943  13.230   9.487
23082SOL    HW171085  12.032  13.205   9.464
23082SOL    HW271086  11.951  13.319   9.522
23083SOL     OW71087  13.733   1.359  10.225
23083SOL    HW171088  13.701   1.371  10.314
23083SOL    HW271089  13.828   1.365  10.233
23084SOL     OW71090  10.096   2.495   6.433
23084SOL    HW171091  10.163   2.449   6.483
23084SOL    HW271092  10.050   2.549   6.498
23085SOL     OW71093   0.249  14.663  12.235
23085SOL    HW171094   0.259  14.578  12.192
23085SOL    HW271095   0.324  14.714  12.206
23086SOL     OW71096   0.449   8.324   1.102
23086SOL    HW171097   0.537   8.287   1.103
23086SOL    HW271098   0.426   8.328   1.009
23087SOL     OW71099  13.549   7.808   9.092
23087SOL    HW171100  13.530   7.895   9.059
23087SOL    HW271101  13.463   7.767   9.102
23088SOL     OW71102   7.041   1.505   8.594
23088SOL    HW171103   7.014   1.594   8.569
23088SOL    HW271104   7.111   1.483   8.533
23089SOL     OW71105   1.003  14.026   7.680
23089SOL    HW171106   0.997  14.121   7.672
23089SOL    HW271107   1.003  14.010   7.774
23090SOL     OW71108  12.291   8.580  10.255
23090SOL    HW171109  12.253   8.562  10.169
23090SOL    HW271110  12.233   8.536  10.316
23091SOL     OW71111   5.312  14.578   4.467
23091SOL    HW171112   5.236  14.523   4.446
23091SOL    HW271113   5.334  14.620   4.384
23092SOL     OW71114  11.510  13.845   9.999
23092SOL    HW171115  11.437  13.842   9.938
23092SOL    HW271116  11.471  13.827  10.085
23093SOL     OW71117   4.140  13.674  13.518
23093SOL    HW171118   4.184  13.646  13.598
23093SOL    HW271119   4.108  13.592  13.479
23094SOL     OW71120   4.001   9.202  13.660
23094SOL    HW171121   3.939   9.251  13.606
23094SOL    HW271122   3.978   9.110  13.645
23095SOL     OW71123  10.906   2.923   5.213
23095SOL    HW171124  10.995   2.943   5.243
23095SOL    HW271125  10.857   3.003   5.232
23096SOL     OW71126   8.654   2.742   0.357
23096SOL    HW171127   8.652   2.697   0.442
23096SOL    HW271128   8.743   2.775   0.349
23097SOL     OW71129   5.869  14.551  12.177
23097SOL    HW171130   5.882  14.629  12.232
23097SOL    HW271131   5.920  14.483  12.220
23098SOL     OW71132   6.678   0.061  10.450
23098SOL    HW171133   6.650   0.131  10.391
23098SOL    HW271134   6.748   0.100  10.503
23099SOL     OW71135   7.349  12.666   1.246
23099SOL    HW171136   7.344  12.586   1.298
23099SOL    HW271137   7.276  12.720   1.276
23100SOL     OW71138  14.083   6.375   2.430
23100SOL    HW171139  14.121   6.289   2.412
23100SOL    HW271140  14.143   6.416   2.492
23101SOL     OW71141  10.227   3.069   6.205
23101SOL    HW171142  10.322   3.059   6.195
23101SOL    HW271143  10.191   3.044   6.120
23102SOL     OW71144   3.697  13.471  12.403
23102SOL    HW171145   3.716  13.397  12.346
23102SOL    HW271146   3.779  13.487  12.450
23103SOL     OW71147  10.016   4.338   9.128
23103SOL    HW171148   9.975   4.285   9.060
23103SOL    HW271149  10.025   4.425   9.088
23104SOL     OW71150   7.167   1.632   1.228
23104SOL    HW171151   7.178   1.542   1.261
23104SOL    HW271152   7.113   1.675   1.295
23105SOL     OW71153  12.350   1.093  10.245
23105SOL    HW171154  12.303   1.012  10.263
23105SOL    HW271155  12.431   1.065  10.203
23106SOL     OW71156   2.280  11.487   4.411
23106SOL    HW171157   2.266  11.554   4.478
23106SOL    HW271158   2.316  11.535   4.336
23107SOL     OW71159   5.373  12.170   1.587
23107SOL    HW171160   5.347  12.144   1.498
23107SOL    HW271161   5.351  12.263   1.592
23108SOL     OW71162   9.151   0.842   7.556
23108SOL    HW171163   9.193   0.769   7.601
23108SOL    HW271164   9.127   0.807   7.470
23109SOL     OW71165   1.589  11.799  12.285
23109SOL    HW171166   1.551  11.794  12.198
23109SOL    HW271167   1.663  11.860  12.275
23110SOL     OW71168   1.168  10.568   7.817
23110SOL    HW171169   1.184  10.548   7.909
23110SOL    HW271170   1.232  10.635   7.796
23111SOL     OW71171  12.895  13.529  10.053
23111SOL    HW171172  12.816  13.510  10.002
23111SOL    HW271173  12.967  13.500   9.997
23112SOL     OW71174  12.336   3.978   3.697
23112SOL    HW171175  12.262   3.924   3.670
23112SOL    HW271176  12.343   4.045   3.629
23113SOL     OW71177   7.632   8.049   4.403
23113SOL    HW171178   7.549   8.010   4.430
23113SOL    HW271179   7.621   8.143   4.419
23114SOL     OW71180  13.370   7.912   4.356
23114SOL    HW171181  13.358   7.885   4.447
23114SOL    HW271182  13.363   7.830   4.306
23115SOL     OW71183   6.849  14.127  13.676
23115SOL    HW171184   6.788  14.147  13.747
23115SOL    HW271185   6.810  14.166  13.599
23116SOL     OW71186  12.771   8.190  12.621
23116SOL    HW171187  12.845   8.249  12.605
23116SOL    HW271188  12.811   8.110  12.656
23117SOL     OW71189  10.454   9.209   9.082
23117SOL    HW171190  10.366   9.179   9.101
23117SOL    HW271191  10.504   9.128   9.064
23118SOL     OW71192   6.710   2.098   5.213
23118SOL    HW171193   6.799   2.074   5.239
23118SOL    HW271194   6.710   2.087   5.118
23119SOL     OW71195   5.346   5.105  13.404
23119SOL    HW171196   5.254   5.132  13.396
23119SOL    HW271197   5.375   5.143  13.486
23120SOL     OW71198   3.654   3.245   7.189
23120SOL    HW171199   3.684   3.160   7.156
23120SOL    HW271200   3.593   3.276   7.122
23121SOL     OW71201   4.303  13.548  13.181
23121SOL    HW171202   4.314  13.545  13.086
23121SOL    HW271203   4.214  13.516  13.196
23122SOL     OW71204   0.737   6.340   3.434
23122SOL    HW171205   0.693   6.392   3.368
23122SOL    HW271206   0.671   6.279   3.467
23123SOL     OW71207  11.926   1.980   5.742
23123SOL    HW171208  11.902   1.911   5.804
23123SOL    HW271209  11.905   1.943   5.656
23124SOL     OW71210  11.659  11.247   9.510
23124SOL    HW171211  11.681  11.166   9.556
23124SOL    HW271212  11.563  11.249   9.509
23125SOL     OW71213  11.049   4.699   7.046
23125SOL    HW171214  11.012   4.714   6.959
23125SOL    HW271215  10.974   4.708   7.105
23126SOL     OW71216  10.057   8.814  12.940
23126SOL    HW171217  10.005   8.881  12.985
23126SOL    HW271218   9.992   8.756  12.901
23127SOL     OW71219   0.052   1.772   3.721
23127SOL    HW171220   0.053   1.840   3.653
23127SOL    HW271221   0.022   1.817   3.800
23128SOL     OW71222  14.759   3.786   1.784
23128SOL    HW171223  14.735   3.702   1.744
23128SOL    HW271224  14.813   3.762   1.859
23129SOL     OW71225   6.494  14.620   6.163
23129SOL    HW171226   6.525  14.709   6.149
23129SOL    HW271227   6.405  14.629   6.197
23130SOL     OW71228  14.340   8.328   5.186
23130SOL    HW171229  14.400   8.301   5.116
23130SOL    HW271230  14.379   8.408   5.221
23131SOL     OW71231  11.711   8.122   3.931
23131SOL    HW171232  11.664   8.140   4.012
23131SOL    HW271233  11.765   8.046   3.952
23132SOL     OW71234  12.845   3.047  12.527
23132SOL    HW171235  12.759   3.074  12.494
23132SOL    HW271236  12.830   2.959  12.562
23133SOL     OW71237  11.474  11.872   6.122
23133SOL    HW171238  11.444  11.830   6.203
23133SOL    HW271239  11.562  11.902   6.142
23134SOL     OW71240  12.205   8.646   9.836
23134SOL    HW171241  12.219   8.587   9.762
23134SOL    HW271242  12.186   8.730   9.795
23135SOL     OW71243   0.643  10.757   7.528
23135SOL    HW171244   0.719  10.714   7.488
23135SOL    HW271245   0.588  10.783   7.454
23136SOL     OW71246   0.588   2.076   9.765
23136SOL    HW171247   0.532   2.145   9.800
23136SOL    HW271248   0.592   2.010   9.834
23137SOL     OW71249   3.469   5.535   9.246
23137SOL    HW171250   3.429   5.613   9.287
23137SOL    HW271251   3.551   5.523   9.295
23138SOL     OW71252  13.826  12.191   6.746
23138SOL    HW171253  13.816  12.140   6.665
23138SOL    HW271254  13.890  12.141   6.797
23139SOL     OW71255   2.830   3.151  12.421
23139SOL    HW171256   2.792   3.088  12.482
23139SOL    HW271257   2.771   3.227  12.426
23140SOL     OW71258   2.799   8.096  11.826
23140SOL    HW171259   2.786   8.191  11.836
23140SOL    HW271260   2.777   8.060  11.912
23141SOL     OW71261   8.803  10.246  12.635
23141SOL    HW171262   8.721  10.242  12.585
23141SOL    HW271263   8.781  10.207  12.720
23142SOL     OW71264  14.126  11.210   5.087
23142SOL    HW171265  14.054  11.190   5.147
23142SOL    HW271266  14.201  11.164   5.124
23143SOL     OW71267  11.452   3.143   5.086
23143SOL    HW171268  11.357   3.136   5.095
23143SOL    HW271269  11.465   3.212   5.021
23144SOL     OW71270   2.210   0.800  11.094
23144SOL    HW171271   2.179   0.729  11.037
23144SOL    HW271272   2.137   0.863  11.094
23145SOL     OW71273   3.704  10.658   7.452
23145SOL    HW171274   3.703  10.563   7.467
23145SOL    HW271275   3.618  10.688   7.483
23146SOL     OW71276   1.207  11.940   1.513
23146SOL    HW171277   1.247  11.906   1.593
23146SOL    HW271278   1.172  12.025   1.538
23147SOL     OW71279   4.560   0.835   5.637
23147SOL    HW171280   4.642   0.789   5.620
23147SOL    HW271281   4.558   0.848   5.731
23148SOL     OW71282   7.878  12.802   5.812
23148SOL    HW171283   7.827  12.865   5.761
23148SOL    HW271284   7.888  12.727   5.753
23149SOL     OW71285   6.173   9.361   7.199
23149SOL    HW171286   6.082   9.368   7.171
23149SOL    HW271287   6.186   9.436   7.256
23150SOL     OW71288   0.387   1.399   8.131
23150SOL    HW171289   0.388   1.474   8.190
23150SOL    HW271290   0.331   1.335   8.175
23151SOL     OW71291   4.438  11.164  11.891
23151SOL    HW171292   4.386  11.197  11.964
23151SOL    HW271293   4.457  11.073  11.914
23152SOL     OW71294   8.608  14.087   1.425
23152SOL    HW171295   8.595  14.041   1.342
23152SOL    HW271296   8.703  14.083   1.440
23153SOL     OW71297   3.998   0.222  10.327
23153SOL    HW171298   3.935   0.255  10.391
23153SOL    HW271299   4.079   0.270  10.346
23154SOL     OW71300   1.432   0.173   6.843
23154SOL    HW171301   1.456   0.156   6.935
23154SOL    HW271302   1.477   0.103   6.795
23155SOL     OW71303   7.170   9.931   4.531
23155SOL    HW171304   7.256   9.938   4.488
23155SOL    HW271305   7.188   9.954   4.623
23156SOL     OW71306   1.215   7.256   5.902
23156SOL    HW171307   1.162   7.334   5.921
23156SOL    HW271308   1.155   7.195   5.862
23157SOL     OW71309   7.228   0.878   3.118
23157SOL    HW171310   7.216   0.962   3.075
23157SOL    HW271311   7.187   0.815   3.060
23158SOL     OW71312  12.900   8.273   3.939
23158SOL    HW171313  12.905   8.367   3.955
23158SOL    HW271314  12.972   8.235   3.989
23159SOL     OW71315   7.496   3.721   2.558
23159SOL    HW171316   7.558   3.658   2.596
23159SOL    HW271317   7.415   3.671   2.547
23160SOL     OW71318   1.324   0.005   7.478
23160SOL    HW171319   1.277  14.866   7.560
23160SOL    HW271320   1.409   0.039   7.505
23161SOL     OW71321   9.270  10.373   1.006
23161SOL    HW171322   9.353  10.326   1.008
23161SOL    HW271323   9.246  10.375   0.913
23162SOL     OW71324   6.264   1.085  13.838
23162SOL    HW171325   6.181   1.079  13.790
23162SOL    HW271326   6.240   1.124  13.922
23163SOL     OW71327   5.749   6.173  14.800
23163SOL    HW171328   5.751   6.242  14.733
23163SOL    HW271329   5.734   6.220   0.005
23164SOL     OW71330  12.129   0.831  14.098
23164SOL    HW171331  12.072   0.828  14.175
23164SOL    HW271332  12.151   0.924  14.089
23165SOL     OW71333  10.281  10.462  12.507
23165SOL    HW171334  10.329  10.534  12.548
23165SOL    HW271335  10.189  10.484  12.522
23166SOL     OW71336   9.987   8.754  13.760
23166SOL    HW171337  10.074   8.787  13.782
23166SOL    HW271338   9.966   8.797  13.677
23167SOL     OW71339   5.204   4.827   5.005
23167SOL    HW171340   5.203   4.807   5.098
23167SOL    HW271341   5.114   4.855   4.985
23168SOL     OW71342  12.870   8.773   9.354
23168SOL    HW171343  12.846   8.783   9.446
23168SOL    HW271344  12.801   8.717   9.317
23169SOL     OW71345  14.591   8.352   8.765
23169SOL    HW171346  14.556   8.394   8.686
23169SOL    HW271347  14.529   8.281   8.783
23170SOL     OW71348   4.277  10.675   5.350
23170SOL    HW171349   4.333  10.718   5.285
23170SOL    HW271350   4.309  10.708   5.434
23171SOL     OW71351   7.878   7.800   5.405
23171SOL    HW171352   7.874   7.775   5.497
23171SOL    HW271353   7.841   7.888   5.402
23172SOL     OW71354  11.986   6.449   3.800
23172SOL    HW171355  12.065   6.442   3.746
23172SOL    HW271356  11.944   6.530   3.770
23173SOL     OW71357   9.950   4.841  11.429
23173SOL    HW171358   9.905   4.852  11.512
23173SOL    HW271359   9.937   4.749  11.407
23174SOL     OW71360   2.615   1.469   4.840
23174SOL    HW171361   2.582   1.536   4.780
23174SOL    HW271362   2.682   1.423   4.790
23175SOL     OW71363   7.133   3.725   9.247
23175SOL    HW171364   7.208   3.779   9.273
23175SOL    HW271365   7.172   3.652   9.199
23176SOL     OW71366   3.879   7.073  14.141
23176SOL    HW171367   3.838   7.140  14.086
23176SOL    HW271368   3.970   7.072  14.113
23177SOL     OW71369  13.099   4.067   0.027
23177SOL    HW171370  13.194   4.071   0.019
23177SOL    HW271371  13.070   4.011  14.832
23178SOL     OW71372   5.925   6.463  12.800
23178SOL    HW171373   5.897   6.552  12.779
23178SOL    HW271374   6.016   6.458  12.770
23179SOL     OW71375   3.592   5.130   9.438
23179SOL    HW171376   3.637   5.196   9.491
23179SOL    HW271377   3.508   5.170   9.415
23180SOL     OW71378   3.351  10.045   0.933
23180SOL    HW171379   3.429  10.100   0.925
23180SOL    HW271380   3.379   9.959   0.903
23181SOL     OW71381  10.793   5.835   8.083
23181SOL    HW171382  10.871   5.858   8.134
23181SOL    HW271383  10.719   5.854   8.141
23182SOL     OW71384  13.048   7.880   1.484
23182SOL    HW171385  13.043   7.972   1.508
23182SOL    HW271386  13.132   7.850   1.519
23183SOL     OW71387  11.843   6.536   3.460
23183SOL    HW171388  11.923   6.586   3.468
23183SOL    HW271389  11.843   6.503   3.371
23184SOL     OW71390   8.515  12.446   9.130
23184SOL    HW171391   8.549  12.483   9.048
23184SOL    HW271392   8.466  12.518   9.169
23185SOL     OW71393  14.153   4.358   7.998
23185SOL    HW171394  14.120   4.272   7.973
23185SOL    HW271395  14.196   4.392   7.919
23186SOL     OW71396   2.323   4.525  14.211
23186SOL    HW171397   2.234   4.492  14.220
23186SOL    HW271398   2.313   4.607  14.162
23187SOL     OW71399  13.599  10.579   5.417
23187SOL    HW171400  13.666  10.642   5.444
23187SOL    HW271401  13.646  10.513   5.367
23188SOL     OW71402  12.524   4.337  13.505
23188SOL    HW171403  12.472   4.416  13.519
23188SOL    HW271404  12.614   4.364  13.524
23189SOL     OW71405   5.827   9.045   1.483
23189SOL    HW171406   5.783   8.960   1.477
23189SOL    HW271407   5.812   9.086   1.398
23190SOL     OW71408   3.326   2.543   8.199
23190SOL    HW171409   3.268   2.602   8.247
23190SOL    HW271410   3.383   2.601   8.149
23191SOL     OW71411  11.050   6.448  14.006
23191SOL    HW171412  10.989   6.374  14.009
23191SOL    HW271413  11.112   6.432  14.077
23192SOL     OW71414   6.216   4.942  12.144
23192SOL    HW171415   6.140   4.898  12.183
23192SOL    HW271416   6.194   5.035  12.147
23193SOL     OW71417  12.094   2.842   8.369
23193SOL    HW171418  12.007   2.829   8.333
23193SOL    HW271419  12.096   2.934   8.395
23194SOL     OW71420   3.837   2.814   7.134
23194SOL    HW171421   3.768   2.823   7.068
23194SOL    HW271422   3.906   2.765   7.089
23195SOL     OW71423   4.831   4.833   0.656
23195SOL    HW171424   4.789   4.790   0.731
23195SOL    HW271425   4.776   4.808   0.581
23196SOL     OW71426   6.339   3.177   1.597
23196SOL    HW171427   6.341   3.154   1.505
23196SOL    HW271428   6.269   3.122   1.634
23197SOL     OW71429   9.609  11.593   7.084
23197SOL    HW171430   9.617  11.580   7.178
23197SOL    HW271431   9.681  11.542   7.046
23198SOL     OW71432   3.912   9.879   8.733
23198SOL    HW171433   3.866   9.938   8.793
23198SOL    HW271434   3.974   9.935   8.687
23199SOL     OW71435  10.255   1.727   5.314
23199SOL    HW171436  10.183   1.785   5.289
23199SOL    HW271437  10.269   1.672   5.237
23200SOL     OW71438   5.161   3.664  10.583
23200SOL    HW171439   5.166   3.714  10.665
23200SOL    HW271440   5.186   3.726  10.515
23201SOL     OW71441   9.055  14.509  12.614
23201SOL    HW171442   9.041  14.562  12.536
23201SOL    HW271443   9.068  14.420  12.580
23202SOL     OW71444  10.235   1.082  11.179
23202SOL    HW171445  10.227   1.124  11.264
23202SOL    HW271446  10.322   1.107  11.148
23203SOL     OW71447   6.941   1.434  13.948
23203SOL    HW171448   6.894   1.456  13.868
23203SOL    HW271449   7.033   1.447  13.928
23204SOL     OW71450   3.513  13.641   8.536
23204SOL    HW171451   3.545  13.607   8.620
23204SOL    HW271452   3.580  13.704   8.509
23205SOL     OW71453  14.257   0.006   9.337
23205SOL    HW171454  14.205   0.060   9.277
23205SOL    HW271455  14.251  14.794   9.302
23206SOL     OW71456  13.058   6.043  12.279
23206SOL    HW171457  13.037   6.004  12.194
23206SOL    HW271458  12.983   6.100  12.298
23207SOL     OW71459   6.357  11.270   7.015
23207SOL    HW171460   6.347  11.295   7.107
23207SOL    HW271461   6.340  11.176   7.013
23208SOL     OW71462   7.535   6.902   0.109
23208SOL    HW171463   7.552   6.812   0.080
23208SOL    HW271464   7.620   6.933   0.140
23209SOL     OW71465  11.932   3.996  11.236
23209SOL    HW171466  11.931   4.054  11.313
23209SOL    HW271467  11.977   3.917  11.266
23210SOL     OW71468  13.058  13.706   5.901
23210SOL    HW171469  12.988  13.767   5.879
23210SOL    HW271470  13.092  13.737   5.985
23211SOL     OW71471   0.606  14.459   1.452
23211SOL    HW171472   0.562  14.511   1.385
23211SOL    HW271473   0.542  14.392   1.476
23212SOL     OW71474  14.356  14.293   1.454
23212SOL    HW171475  14.343  14.212   1.502
23212SOL    HW271476  14.426  14.273   1.391
23213SOL     OW71477   6.345   2.271   4.559
23213SOL    HW171478   6.346   2.238   4.469
23213SOL    HW271479   6.331   2.365   4.549
23214SOL     OW71480  10.950  12.559  14.822
23214SOL    HW171481  10.963  12.653  14.835
23214SOL    HW271482  11.006  12.517   0.010
23215SOL     OW71483   6.834   6.515   0.940
23215SOL    HW171484   6.783   6.473   1.009
23215SOL    HW271485   6.914   6.545   0.983
23216SOL     OW71486  10.258   3.858   3.770
23216SOL    HW171487  10.286   3.911   3.695
23216SOL    HW271488  10.194   3.797   3.734
23217SOL     OW71489   2.860   8.707  11.095
23217SOL    HW171490   2.862   8.780  11.033
23217SOL    HW271491   2.801   8.736  11.164
23218SOL     OW71492   7.063  11.603  14.701
23218SOL    HW171493   7.096  11.647  14.623
23218SOL    HW271494   7.130  11.618  14.767
23219SOL     OW71495   3.126   6.782   1.487
23219SOL    HW171496   3.181   6.860   1.481
23219SOL    HW271497   3.187   6.711   1.505
23220SOL     OW71498  11.632   2.966  14.691
23220SOL    HW171499  11.689   3.002  14.759
23220SOL    HW271500  11.556   2.932  14.739
23221SOL     OW71501  10.284   2.419   6.618
23221SOL    HW171502  10.371   2.459   6.614
23221SOL    HW271503  10.301   2.327   6.637
23222SOL     OW71504  14.872  14.597   0.406
23222SOL    HW171505   0.059  14.668   0.416
23222SOL    HW271506   0.025  14.549   0.328
23223SOL     OW71507  14.600   1.485   6.391
23223SOL    HW171508  14.687   1.498   6.352
23223SOL    HW271509  14.611   1.509   6.483
23224SOL     OW71510   7.986   6.689   0.915
23224SOL    HW171511   7.929   6.764   0.931
23224SOL    HW271512   8.056   6.724   0.860
23225SOL     OW71513  14.394  10.158   8.265
23225SOL    HW171514  14.428  10.219   8.330
23225SOL    HW271515  14.347  10.213   8.203
23226SOL     OW71516  11.104  14.147   6.209
23226SOL    HW171517  11.101  14.233   6.253
23226SOL    HW271518  11.197  14.126   6.204
23227SOL     OW71519   8.047   1.393   5.891
23227SOL    HW171520   8.127   1.446   5.885
23227SOL    HW271521   7.994   1.436   5.957
23228SOL     OW71522   3.428  12.733   9.411
23228SOL    HW171523   3.399  12.819   9.441
23228SOL    HW271524   3.447  12.745   9.318
23229SOL     OW71525   6.604   4.060   1.776
23229SOL    HW171526   6.557   4.137   1.809
23229SOL    HW271527   6.666   4.096   1.712
23230SOL     OW71528   3.668   4.441  13.877
23230SOL    HW171529   3.607   4.437  13.803
23230SOL    HW271530   3.727   4.368  13.864
23231SOL     OW71531  11.597   7.467   4.465
23231SOL    HW171532  11.665   7.408   4.497
23231SOL    HW271533  11.517   7.414   4.468
23232SOL     OW71534  10.555  13.775   3.518
23232SOL    HW171535  10.603  13.855   3.540
23232SOL    HW271536  10.545  13.778   3.423
23233SOL     OW71537  13.549   9.384   2.842
23233SOL    HW171538  13.493   9.378   2.919
23233SOL    HW271539  13.526   9.468   2.802
23234SOL     OW71540  13.657  13.115   0.307
23234SOL    HW171541  13.752  13.125   0.308
23234SOL    HW271542  13.643  13.023   0.285
23235SOL     OW71543   2.471  10.671  10.709
23235SOL    HW171544   2.498  10.757  10.675
23235SOL    HW271545   2.443  10.623  10.631
23236SOL     OW71546  11.312   6.672  12.611
23236SOL    HW171547  11.374   6.733  12.651
23236SOL    HW271548  11.296   6.709  12.524
23237SOL     OW71549  10.432   6.006  12.624
23237SOL    HW171550  10.507   6.048  12.666
23237SOL    HW271551  10.356   6.047  12.664
23238SOL     OW71552   7.691   8.763   3.510
23238SOL    HW171553   7.641   8.682   3.517
23238SOL    HW271554   7.782   8.736   3.506
23239SOL     OW71555   5.068  10.415   4.104
23239SOL    HW171556   4.984  10.457   4.087
23239SOL    HW271557   5.126  10.447   4.035
23240SOL     OW71558  14.505   7.603   8.641
23240SOL    HW171559  14.505   7.538   8.711
23240SOL    HW271560  14.472   7.556   8.564
23241SOL     OW71561   6.348   1.256   2.706
23241SOL    HW171562   6.421   1.306   2.667
23241SOL    HW271563   6.334   1.298   2.791
23242SOL     OW71564  11.874   9.462   8.543
23242SOL    HW171565  11.834   9.538   8.501
23242SOL    HW271566  11.805   9.396   8.545
23243SOL     OW71567  11.192   1.690   7.557
23243SOL    HW171568  11.122   1.753   7.576
23243SOL    HW271569  11.163   1.645   7.478
23244SOL     OW71570   0.367   7.211   6.840
23244SOL    HW171571   0.295   7.163   6.798
23244SOL    HW271572   0.340   7.219   6.931
23245SOL     OW71573   9.097   5.531  13.533
23245SOL    HW171574   9.007   5.499  13.525
23245SOL    HW271575   9.134   5.481  13.605
23246SOL     OW71576  13.881  13.653   9.592
23246SOL    HW171577  13.918  13.575   9.632
23246SOL    HW271578  13.889  13.721   9.659
23247SOL     OW71579   6.367  14.864  12.418
23247SOL    HW171580   6.395  14.778  12.387
23247SOL    HW271581   6.406  14.873  12.505
23248SOL     OW71582   2.365   0.574   1.640
23248SOL    HW171583   2.361   0.608   1.729
23248SOL    HW271584   2.456   0.546   1.629
23249SOL     OW71585   0.942  13.601   3.379
23249SOL    HW171586   0.918  13.629   3.467
23249SOL    HW271587   0.886  13.653   3.321
23250SOL     OW71588   8.587  11.492   5.069
23250SOL    HW171589   8.572  11.405   5.105
23250SOL    HW271590   8.619  11.477   4.980
23251SOL     OW71591   1.343  12.021   1.279
23251SOL    HW171592   1.306  11.980   1.357
23251SOL    HW271593   1.407  12.084   1.312
23252SOL     OW71594   8.352   4.840  13.630
23252SOL    HW171595   8.269   4.795  13.636
23252SOL    HW271596   8.417   4.775  13.656
23253SOL     OW71597   5.860   6.118  11.199
23253SOL    HW171598   5.873   6.037  11.150
23253SOL    HW271599   5.879   6.094  11.290
23254SOL     OW71600   9.006   0.219   4.651
23254SOL    HW171601   9.084   0.172   4.622
23254SOL    HW271602   8.993   0.190   4.741
23255SOL     OW71603   3.104  11.565  13.545
23255SOL    HW171604   3.113  11.595  13.635
23255SOL    HW271605   3.035  11.498  13.549
23256SOL     OW71606   1.368  11.319  14.589
23256SOL    HW171607   1.370  11.414  14.601
23256SOL    HW271608   1.460  11.294  14.586
23257SOL     OW71609   5.285   5.061  10.005
23257SOL    HW171610   5.190   5.058  10.017
23257SOL    HW271611   5.319   5.068  10.094
23258SOL     OW71612   4.933  14.310  10.103
23258SOL    HW171613   4.859  14.359  10.138
23258SOL    HW271614   4.950  14.242  10.168
23259SOL     OW71615   3.247   4.167  13.485
23259SOL    HW171616   3.269   4.075  13.470
23259SOL    HW271617   3.331   4.210  13.499
23260SOL     OW71618   1.686   7.321   3.217
23260SOL    HW171619   1.621   7.291   3.281
23260SOL    HW271620   1.657   7.409   3.192
23261SOL     OW71621  10.447  14.039   7.876
23261SOL    HW171622  10.445  14.043   7.972
23261SOL    HW271623  10.368  13.991   7.852
23262SOL     OW71624  13.406   9.304   6.860
23262SOL    HW171625  13.370   9.319   6.948
23262SOL    HW271626  13.349   9.238   6.821
23263SOL     OW71627   1.829  12.953   3.220
23263SOL    HW171628   1.914  12.990   3.197
23263SOL    HW271629   1.830  12.949   3.316
23264SOL     OW71630   8.684   7.079  14.792
23264SOL    HW171631   8.600   7.048  14.827
23264SOL    HW271632   8.733   6.999  14.774
23265SOL     OW71633   2.745   3.441  11.247
23265SOL    HW171634   2.821   3.493  11.220
23265SOL    HW271635   2.677   3.463  11.183
23266SOL     OW71636   2.272  14.091   4.738
23266SOL    HW171637   2.345  14.085   4.799
23266SOL    HW271638   2.310  14.126   4.657
23267SOL     OW71639   0.919   3.681  10.861
23267SOL    HW171640   0.978   3.609  10.884
23267SOL    HW271641   0.940   3.750  10.924
23268SOL     OW71642  11.652  14.451  14.835
23268SOL    HW171643  11.705  14.514  14.785
23268SOL    HW271644  11.662  14.477   0.050
23269SOL     OW71645  11.098   2.175   7.197
23269SOL    HW171646  11.176   2.211   7.153
23269SOL    HW271647  11.109   2.080   7.191
23270SOL     OW71648   3.764   6.295   9.794
23270SOL    HW171649   3.780   6.373   9.742
23270SOL    HW271650   3.830   6.297   9.863
23271SOL     OW71651   1.215   5.833   5.472
23271SOL    HW171652   1.184   5.920   5.449
23271SOL    HW271653   1.194   5.779   5.395
23272SOL     OW71654   8.932   8.398  11.365
23272SOL    HW171655   8.876   8.428  11.294
23272SOL    HW271656   8.920   8.463  11.434
23273SOL     OW71657  10.678   4.983   2.873
23273SOL    HW171658  10.643   4.984   2.784
23273SOL    HW271659  10.607   5.018   2.927
23274SOL     OW71660   9.701   0.222   5.824
23274SOL    HW171661   9.745   0.307   5.834
23274SOL    HW271662   9.753   0.176   5.758
23275SOL     OW71663   8.766   7.218  11.238
23275SOL    HW171664   8.821   7.238  11.314
23275SOL    HW271665   8.815   7.151  11.190
23276SOL     OW71666   1.794   9.019  14.318
23276SOL    HW171667   1.792   9.108  14.284
23276SOL    HW271668   1.887   8.997  14.323
23277SOL     OW71669  14.799  10.600  13.598
23277SOL    HW171670  14.852  10.574  13.673
23277SOL    HW271671  14.847  10.674  13.560
23278SOL     OW71672  11.847   3.157   3.041
23278SOL    HW171673  11.925   3.201   3.074
23278SOL    HW271674  11.842   3.181   2.948
23279SOL     OW71675  11.939   8.858   1.480
23279SOL    HW171676  11.907   8.948   1.475
23279SOL    HW271677  11.992   8.847   1.401
23280SOL     OW71678  13.759   5.689  13.589
23280SOL    HW171679  13.684   5.686  13.530
23280SOL    HW271680  13.782   5.597  13.603
23281SOL     OW71681   1.222  11.157   0.129
23281SOL    HW171682   1.185  11.070   0.145
23281SOL    HW271683   1.210  11.172   0.036
23282SOL     OW71684  14.174  14.437   3.284
23282SOL    HW171685  14.084  14.451   3.314
23282SOL    HW271686  14.177  14.345   3.260
23283SOL     OW71687  11.570   7.860   2.405
23283SOL    HW171688  11.534   7.895   2.323
23283SOL    HW271689  11.661   7.841   2.384
23284SOL     OW71690   4.572  11.028   5.133
23284SOL    HW171691   4.519  11.029   5.213
23284SOL    HW271692   4.660  11.052   5.162
23285SOL     OW71693  12.176   9.880  13.390
23285SOL    HW171694  12.169   9.916  13.301
23285SOL    HW271695  12.219   9.796  13.378
23286SOL     OW71696   3.902   4.093   6.086
23286SOL    HW171697   3.874   4.126   6.171
23286SOL    HW271698   3.984   4.047   6.105
23287SOL     OW71699   6.137   3.633   2.959
23287SOL    HW171700   6.193   3.558   2.942
23287SOL    HW271701   6.197   3.701   2.991
23288SOL     OW71702   9.037  10.174   9.031
23288SOL    HW171703   8.986  10.238   8.982
23288SOL    HW271704   8.979  10.099   9.040
23289SOL     OW71705   8.266  10.563   8.783
23289SOL    HW171706   8.352  10.558   8.741
23289SOL    HW271707   8.218  10.487   8.748
23290SOL     OW71708   5.396   1.573   5.937
23290SOL    HW171709   5.418   1.481   5.948
23290SOL    HW271710   5.304   1.573   5.909
23291SOL     OW71711   1.001   7.405   6.931
23291SOL    HW171712   0.964   7.491   6.912
23291SOL    HW271713   1.052   7.383   6.853
23292SOL     OW71714  14.855  13.087   5.876
23292SOL    HW171715   0.067  13.112   5.904
23292SOL    HW271716  14.869  13.031   5.800
23293SOL     OW71717  10.577   0.391   8.310
23293SOL    HW171718  10.494   0.352   8.282
23293SOL    HW271719  10.638   0.318   8.318
23294SOL     OW71720   8.479   6.996   0.859
23294SOL    HW171721   8.511   7.012   0.948
23294SOL    HW271722   8.533   6.924   0.827
23295SOL     OW71723   7.686  13.721  12.423
23295SOL    HW171724   7.689  13.817  12.422
23295SOL    HW271725   7.761  13.694  12.371
23296SOL     OW71726   5.025  12.584   7.567
23296SOL    HW171727   5.107  12.633   7.574
23296SOL    HW271728   4.963  12.632   7.622
23297SOL     OW71729   3.092   0.410  12.077
23297SOL    HW171730   3.078   0.347  12.147
23297SOL    HW271731   3.052   0.370  11.999
23298SOL     OW71732  12.038   0.895   6.528
23298SOL    HW171733  12.114   0.946   6.557
23298SOL    HW271734  11.999   0.862   6.609
23299SOL     OW71735   3.437   5.818   7.898
23299SOL    HW171736   3.346   5.844   7.886
23299SOL    HW271737   3.474   5.818   7.809
23300SOL     OW71738   2.207  10.256   6.700
23300SOL    HW171739   2.218  10.275   6.607
23300SOL    HW271740   2.115  10.276   6.719
23301SOL     OW71741   9.082   6.446  13.093
23301SOL    HW171742   9.130   6.375  13.135
23301SOL    HW271743   9.024   6.480  13.160
23302SOL     OW71744  14.167   0.592  13.385
23302SOL    HW171745  14.247   0.629  13.421
23302SOL    HW271746  14.100   0.612  13.451
23303SOL     OW71747   9.985   5.014  10.893
23303SOL    HW171748   9.932   5.092  10.874
23303SOL    HW271749   9.965   4.994  10.985
23304SOL     OW71750   1.997  10.057   2.182
23304SOL    HW171751   2.058  10.116   2.225
23304SOL    HW271752   1.932  10.115   2.142
23305SOL     OW71753  12.227  11.681  13.675
23305SOL    HW171754  12.255  11.642  13.592
23305SOL    HW271755  12.135  11.658  13.682
23306SOL     OW71756   9.530  13.497  13.068
23306SOL    HW171757   9.464  13.450  13.118
23306SOL    HW271758   9.481  13.564  13.020
23307SOL     OW71759  13.710   2.748   8.053
23307SOL    HW171760  13.757   2.674   8.092
23307SOL    HW271761  13.645   2.772   8.119
23308SOL     OW71762   1.095  14.631  11.839
23308SOL    HW171763   1.111  14.691  11.766
23308SOL    HW271764   1.009  14.594  11.822
23309SOL     OW71765  12.631   1.809  10.082
23309SOL    HW171766  12.677   1.887  10.112
23309SOL    HW271767  12.566   1.842  10.019
23310SOL     OW71768   2.947   5.863   3.828
23310SOL    HW171769   2.876   5.925   3.813
23310SOL    HW271770   2.963   5.867   3.923
23311SOL     OW71771   0.745  13.549   0.047
23311SOL    HW171772   0.794  13.529   0.128
23311SOL    HW271773   0.656  13.520   0.066
23312SOL     OW71774  11.918   8.960   2.471
23312SOL    HW171775  11.995   9.007   2.504
23312SOL    HW271776  11.952   8.877   2.439
23313SOL     OW71777   2.552   9.771   3.299
23313SOL    HW171778   2.556   9.718   3.219
23313SOL    HW271779   2.550   9.861   3.268
23314SOL     OW71780   4.220  11.214   9.314
23314SOL    HW171781   4.131  11.182   9.327
23314SOL    HW271782   4.239  11.265   9.393
23315SOL     OW71783   0.664   7.888   2.456
23315SOL    HW171784   0.666   7.809   2.402
23315SOL    HW271785   0.657   7.960   2.394
23316SOL     OW71786  12.750   8.243  12.042
23316SOL    HW171787  12.688   8.173  12.060
23316SOL    HW271788  12.836   8.204  12.059
23317SOL     OW71789   4.607   7.985   0.075
23317SOL    HW171790   4.697   7.987   0.107
23317SOL    HW271791   4.616   7.993  14.856
23318SOL     OW71792   8.117   9.224  13.327
23318SOL    HW171793   8.060   9.294  13.295
23318SOL    HW271794   8.086   9.207  13.416
23319SOL     OW71795   9.577   8.679   1.852
23319SOL    HW171796   9.533   8.745   1.906
23319SOL    HW271797   9.544   8.595   1.886
23320SOL     OW71798   3.593   3.736  13.587
23320SOL    HW171799   3.571   3.682  13.663
23320SOL    HW271800   3.666   3.691  13.546
23321SOL     OW71801   6.195  10.218   2.851
23321SOL    HW171802   6.215  10.139   2.901
23321SOL    HW271803   6.274  10.235   2.799
23322SOL     OW71804   5.877   9.346   7.517
23322SOL    HW171805   5.797   9.312   7.557
23322SOL    HW271806   5.862   9.340   7.423
23323SOL     OW71807   3.072   3.753   7.288
23323SOL    HW171808   3.050   3.845   7.277
23323SOL    HW271809   3.167   3.749   7.278
23324SOL     OW71810   1.433   3.042   6.821
23324SOL    HW171811   1.378   3.036   6.899
23324SOL    HW271812   1.456   3.134   6.815
23325SOL     OW71813  14.762   2.733   0.001
23325SOL    HW171814  14.720   2.804   0.049
23325SOL    HW271815  14.694   2.699  14.820
23326SOL     OW71816  14.281   1.837   3.065
23326SOL    HW171817  14.198   1.860   3.023
23326SOL    HW271818  14.278   1.882   3.149
23327SOL     OW71819  11.278   1.988   2.040
23327SOL    HW171820  11.264   2.016   1.949
23327SOL    HW271821  11.367   2.017   2.060
23328SOL     OW71822   4.159   6.621   7.867
23328SOL    HW171823   4.177   6.529   7.848
23328SOL    HW271824   4.232   6.649   7.922
23329SOL     OW71825   3.597   0.240   0.239
23329SOL    HW171826   3.629   0.152   0.255
23329SOL    HW271827   3.572   0.273   0.326
23330SOL     OW71828   2.974  12.203  10.630
23330SOL    HW171829   2.903  12.193  10.694
23330SOL    HW271830   3.005  12.292  10.644
23331SOL     OW71831   8.046   0.131   8.446
23331SOL    HW171832   8.112   0.182   8.401
23331SOL    HW271833   8.072   0.040   8.433
23332SOL     OW71834   1.684   8.350   8.692
23332SOL    HW171835   1.654   8.399   8.769
23332SOL    HW271836   1.768   8.312   8.719
23333SOL     OW71837   0.867   5.687  12.173
23333SOL    HW171838   0.860   5.593  12.191
23333SOL    HW271839   0.951   5.712  12.212
23334SOL     OW71840   5.782  13.782   4.985
23334SOL    HW171841   5.804  13.848   4.919
23334SOL    HW271842   5.864  13.734   4.999
23335SOL     OW71843  13.233   2.805   1.185
23335SOL    HW171844  13.297   2.861   1.141
23335SOL    HW271845  13.221   2.731   1.126
23336SOL     OW71846   5.589  14.230  10.331
23336SOL    HW171847   5.639  14.303  10.368
23336SOL    HW271848   5.591  14.246  10.236
23337SOL     OW71849   2.905  10.212   9.963
23337SOL    HW171850   2.943  10.212   9.875
23337SOL    HW271851   2.855  10.130   9.967
23338SOL     OW71852   1.300  13.361   6.704
23338SOL    HW171853   1.271  13.451   6.688
23338SOL    HW271854   1.372  13.348   6.642
23339SOL     OW71855   9.745   7.682  13.177
23339SOL    HW171856   9.712   7.688  13.267
23339SOL    HW271857   9.779   7.593  13.170
23340SOL     OW71858   1.575  11.342  10.443
23340SOL    HW171859   1.637  11.269  10.446
23340SOL    HW271860   1.578  11.372  10.352
23341SOL     OW71861  10.973  13.890  10.233
23341SOL    HW171862  11.014  13.946  10.167
23341SOL    HW271863  10.922  13.951  10.286
23342SOL     OW71864  10.418   1.341   9.543
23342SOL    HW171865  10.494   1.341   9.484
23342SOL    HW271866  10.344   1.323   9.486
23343SOL     OW71867   0.134   8.637  14.060
23343SOL    HW171868   0.092   8.706  14.112
23343SOL    HW271869   0.223   8.632  14.094
23344SOL     OW71870  11.336   6.866   9.650
23344SOL    HW171871  11.279   6.940   9.672
23344SOL    HW271872  11.288   6.818   9.583
23345SOL     OW71873  11.414  10.743  14.038
23345SOL    HW171874  11.490  10.755  13.980
23345SOL    HW271875  11.363  10.824  14.029
23346SOL     OW71876  14.176  14.574   4.323
23346SOL    HW171877  14.191  14.643   4.388
23346SOL    HW271878  14.093  14.535   4.348
23347SOL     OW71879   8.595   4.075  11.656
23347SOL    HW171880   8.528   4.095  11.591
23347SOL    HW271881   8.674   4.059  11.605
23348SOL     OW71882   7.809   9.709  11.733
23348SOL    HW171883   7.794   9.692  11.640
23348SOL    HW271884   7.836   9.624  11.768
23349SOL     OW71885   7.735   7.959   2.734
23349SOL    HW171886   7.694   7.911   2.806
23349SOL    HW271887   7.707   8.050   2.747
23350SOL     OW71888   5.005   7.377   5.656
23350SOL    HW171889   5.052   7.293   5.653
23350SOL    HW271890   4.937   7.363   5.722
23351SOL     OW71891  13.821   1.492   2.591
23351SOL    HW171892  13.766   1.519   2.665
23351SOL    HW271893  13.796   1.552   2.520
23352SOL     OW71894   9.669   3.824  13.749
23352SOL    HW171895   9.582   3.854  13.774
23352SOL    HW271896   9.677   3.848  13.657
23353SOL     OW71897   3.283  13.939   6.070
23353SOL    HW171898   3.354  13.958   6.008
23353SOL    HW271899   3.327  13.929   6.154
23354SOL     OW71900  10.567   0.415   9.896
23354SOL    HW171901  10.565   0.402   9.991
23354SOL    HW271902  10.608   0.501   9.885
23355SOL     OW71903  10.361  13.602  10.744
23355SOL    HW171904  10.421  13.577  10.814
23355SOL    HW271905  10.286  13.640  10.789
23356SOL     OW71906   1.356  10.696  12.875
23356SOL    HW171907   1.271  10.741  12.879
23356SOL    HW271908   1.343  10.627  12.810
23357SOL     OW71909   3.814   8.026  10.337
23357SOL    HW171910   3.886   8.040  10.399
23357SOL    HW271911   3.740   8.073  10.376
23358SOL     OW71912  12.552   7.081  11.898
23358SOL    HW171913  12.462   7.112  11.907
23358SOL    HW271914  12.606   7.159  11.915
23359SOL     OW71915  13.737  12.856   0.287
23359SOL    HW171916  13.736  12.842   0.381
23359SOL    HW271917  13.830  12.859   0.263
23360SOL     OW71918   5.932   7.434   3.002
23360SOL    HW171919   5.889   7.385   2.931
23360SOL    HW271920   5.959   7.366   3.064
23361SOL     OW71921   1.685   9.503  11.597
23361SOL    HW171922   1.773   9.535  11.577
23361SOL    HW271923   1.697   9.441  11.668
23362SOL     OW71924   9.735  13.335  13.273
23362SOL    HW171925   9.724  13.240  13.282
23362SOL    HW271926   9.816  13.354  13.320
23363SOL     OW71927   8.213  11.985   1.165
23363SOL    HW171928   8.265  11.977   1.086
23363SOL    HW271929   8.130  12.023   1.136
23364SOL     OW71930  13.842  12.367  12.497
23364SOL    HW171931  13.885  12.287  12.466
23364SOL    HW271932  13.768  12.379  12.437
23365SOL     OW71933   7.686   6.398   0.813
23365SOL    HW171934   7.733   6.439   0.740
23365SOL    HW271935   7.655   6.472   0.865
23366SOL     OW71936   9.401  14.423   8.170
23366SOL    HW171937   9.343  14.385   8.237
23366SOL    HW271938   9.441  14.499   8.213
23367SOL     OW71939   8.258   4.041   1.384
23367SOL    HW171940   8.271   4.110   1.319
23367SOL    HW271941   8.186   4.073   1.439
23368SOL     OW71942   6.695   8.332   6.575
23368SOL    HW171943   6.760   8.309   6.642
23368SOL    HW271944   6.733   8.301   6.493
23369SOL     OW71945   2.144   5.941  10.454
23369SOL    HW171946   2.108   6.011  10.510
23369SOL    HW271947   2.199   5.987  10.391
23370SOL     OW71948   8.477   6.745  11.981
23370SOL    HW171949   8.511   6.809  11.919
23370SOL    HW271950   8.385   6.736  11.957
23371SOL     OW71951   2.199   4.479  12.617
23371SOL    HW171952   2.209   4.560  12.667
23371SOL    HW271953   2.184   4.412  12.683
23372SOL     OW71954   4.287  10.517   6.166
23372SOL    HW171955   4.335  10.567   6.101
23372SOL    HW271956   4.200  10.555   6.167
23373SOL     OW71957  14.111  10.836  13.017
23373SOL    HW171958  14.198  10.796  13.012
23373SOL    HW271959  14.089  10.857  12.926
23374SOL     OW71960   9.088   3.550   8.735
23374SOL    HW171961   9.032   3.472   8.730
23374SOL    HW271962   9.156   3.527   8.799
23375SOL     OW71963   0.320   0.996  12.592
23375SOL    HW171964   0.252   0.973  12.656
23375SOL    HW271965   0.287   0.962  12.509
23376SOL     OW71966   7.380   2.302   4.914
23376SOL    HW171967   7.312   2.353   4.870
23376SOL    HW271968   7.360   2.309   5.007
23377SOL     OW71969   6.782   1.331   8.617
23377SOL    HW171970   6.807   1.424   8.622
23377SOL    HW271971   6.769   1.305   8.708
23378SOL     OW71972   4.433   9.178   1.251
23378SOL    HW171973   4.458   9.235   1.178
23378SOL    HW271974   4.481   9.212   1.326
23379SOL     OW71975  12.144   8.700  10.503
23379SOL    HW171976  12.105   8.710  10.590
23379SOL    HW271977  12.077   8.654  10.452
23380SOL     OW71978   6.223   6.014   7.547
23380SOL    HW171979   6.224   6.107   7.525
23380SOL    HW271980   6.135   5.998   7.581
23381SOL     OW71981  10.948   6.132   1.366
23381SOL    HW171982  10.960   6.226   1.379
23381SOL    HW271983  11.036   6.098   1.355
23382SOL     OW71984   2.009   0.524  11.894
23382SOL    HW171985   1.935   0.463  11.891
23382SOL    HW271986   2.041   0.528  11.804
23383SOL     OW71987  14.161  10.955   7.496
23383SOL    HW171988  14.219  10.881   7.513
23383SOL    HW271989  14.097  10.923   7.433
23384SOL     OW71990  12.359  10.121  14.159
23384SOL    HW171991  12.433  10.063  14.177
23384SOL    HW271992  12.400  10.206  14.143
23385SOL     OW71993  11.593   0.210   0.319
23385SOL    HW171994  11.571   0.153   0.393
23385SOL    HW271995  11.688   0.218   0.322
23386SOL     OW71996   2.463   5.183   4.397
23386SOL    HW171997   2.431   5.102   4.359
23386SOL    HW271998   2.558   5.174   4.397
23387SOL     OW71999   1.335   5.326  13.264
23387SOL    HW172000   1.349   5.353  13.173
23387SOL    HW272001   1.370   5.237  13.268
23388SOL     OW72002   6.804   1.683   1.206
23388SOL    HW172003   6.831   1.592   1.207
23388SOL    HW272004   6.714   1.682   1.174
23389SOL     OW72005   9.065  14.302  13.061
23389SOL    HW172006   9.057  14.321  13.154
23389SOL    HW272007   9.153  14.331  13.037
23390SOL     OW72008   1.893   9.495   9.571
23390SOL    HW172009   1.943   9.418   9.546
23390SOL    HW272010   1.958   9.556   9.605
23391SOL     OW72011   3.253  11.704   8.507
23391SOL    HW172012   3.313  11.737   8.439
23391SOL    HW272013   3.311  11.675   8.578
23392SOL     OW72014   6.575   6.417   2.437
23392SOL    HW172015   6.540   6.504   2.457
23392SOL    HW272016   6.571   6.370   2.520
23393SOL     OW72017   2.611   5.179   7.524
23393SOL    HW172018   2.667   5.120   7.576
23393SOL    HW272019   2.651   5.265   7.536
23394SOL     OW72020   7.585   1.526  14.627
23394SOL    HW172021   7.631   1.470  14.565
23394SOL    HW272022   7.647   1.540  14.698
23395SOL     OW72023  13.934  11.551  10.377
23395SOL    HW172024  13.959  11.565  10.469
23395SOL    HW272025  13.864  11.615  10.361
23396SOL     OW72026  10.331  14.190   0.089
23396SOL    HW172027  10.393  14.136   0.040
23396SOL    HW272028  10.383  14.265   0.118
23397SOL     OW72029   4.709   7.490   7.687
23397SOL    HW172030   4.766   7.436   7.741
23397SOL    HW272031   4.739   7.580   7.702
23398SOL     OW72032  13.289  14.360  11.476
23398SOL    HW172033  13.373  14.355  11.430
23398SOL    HW272034  13.268  14.454  11.477
23399SOL     OW72035   2.119  13.077  12.734
23399SOL    HW172036   2.069  13.138  12.680
23399SOL    HW272037   2.138  13.125  12.814
23400SOL     OW72038   4.358   6.997   8.443
23400SOL    HW172039   4.331   7.050   8.368
23400SOL    HW272040   4.336   7.050   8.519
23401SOL     OW72041   4.439  12.649   2.506
23401SOL    HW172042   4.482  12.597   2.574
23401SOL    HW272043   4.354  12.606   2.494
23402SOL     OW72044   7.311   9.631   6.547
23402SOL    HW172045   7.314   9.603   6.638
23402SOL    HW272046   7.402   9.654   6.527
23403SOL     OW72047   0.088   2.576  13.935
23403SOL    HW172048   0.113   2.639  13.867
23403SOL    HW272049   0.126   2.493  13.906
23404SOL     OW72050   2.238   1.668  13.475
23404SOL    HW172051   2.148   1.648  13.449
23404SOL    HW272052   2.229   1.721  13.554
23405SOL     OW72053   3.060   8.985  12.304
23405SOL    HW172054   3.000   9.057  12.324
23405SOL    HW272055   3.061   8.979  12.209
23406SOL     OW72056  10.445   3.382  12.596
23406SOL    HW172057  10.516   3.346  12.543
23406SOL    HW272058  10.458   3.344  12.683
23407SOL     OW72059   5.334   5.795   3.721
23407SOL    HW172060   5.400   5.833   3.662
23407SOL    HW272061   5.254   5.794   3.669
23408SOL     OW72062   5.781   5.228  12.233
23408SOL    HW172063   5.765   5.188  12.148
23408SOL    HW272064   5.753   5.319  12.223
23409SOL     OW72065   1.795   4.611  13.207
23409SOL    HW172066   1.760   4.664  13.135
23409SOL    HW272067   1.790   4.669  13.284
23410SOL     OW72068   1.608   9.170   3.062
23410SOL    HW172069   1.654   9.088   3.079
23410SOL    HW272070   1.643   9.201   2.979
23411SOL     OW72071   3.958  13.772   4.497
23411SOL    HW172072   4.013  13.725   4.559
23411SOL    HW272073   3.938  13.854   4.540
23412SOL     OW72074   5.764   2.861  13.428
23412SOL    HW172075   5.852   2.892  13.450
23412SOL    HW272076   5.735   2.814  13.507
23413SOL     OW72077   2.908  10.646   8.243
23413SOL    HW172078   2.869  10.721   8.197
23413SOL    HW272079   3.001  10.668   8.251
23414SOL     OW72080   0.713   0.905   9.727
23414SOL    HW172081   0.645   0.947   9.779
23414SOL    HW272082   0.720   0.960   9.649
23415SOL     OW72083  10.315   1.399  10.078
23415SOL    HW172084  10.250   1.456  10.120
23415SOL    HW272085  10.344   1.341  10.148
23416SOL     OW72086  13.264   3.151   3.052
23416SOL    HW172087  13.258   3.234   3.005
23416SOL    HW272088  13.225   3.170   3.138
23417SOL     OW72089  14.314   9.959   4.194
23417SOL    HW172090  14.396   9.930   4.154
23417SOL    HW272091  14.258   9.983   4.120
23418SOL     OW72092   0.018  10.164   0.688
23418SOL    HW172093   0.055  10.135   0.771
23418SOL    HW272094  14.801  10.142   0.695
23419SOL     OW72095   8.519   0.132   3.593
23419SOL    HW172096   8.453   0.077   3.635
23419SOL    HW272097   8.473   0.175   3.521
23420SOL     OW72098   2.759   5.214   4.636
23420SOL    HW172099   2.681   5.237   4.686
23420SOL    HW272100   2.770   5.285   4.573
23421SOL     OW72101  13.341   4.199  13.275
23421SOL    HW172102  13.270   4.135  13.270
23421SOL    HW272103  13.299   4.279  13.305
23422SOL     OW72104   6.248   7.044   5.421
23422SOL    HW172105   6.299   7.017   5.345
23422SOL    HW272106   6.171   7.087   5.384
23423SOL     OW72107  12.248   1.297   6.727
23423SOL    HW172108  12.217   1.289   6.817
23423SOL    HW272109  12.244   1.390   6.707
23424SOL     OW72110  13.814   2.354  13.424
23424SOL    HW172111  13.860   2.292  13.368
23424SOL    HW272112  13.758   2.404  13.365
23425SOL     OW72113   1.820  13.444   5.660
23425SOL    HW172114   1.904  13.482   5.685
23425SOL    HW272115   1.773  13.516   5.617
23426SOL     OW72116   6.343  13.903   9.424
23426SOL    HW172117   6.316  13.992   9.447
23426SOL    HW272118   6.300  13.847   9.489
23427SOL     OW72119   0.844  11.432   3.737
23427SOL    HW172120   0.888  11.479   3.809
23427SOL    HW272121   0.778  11.379   3.781
23428SOL     OW72122   8.280   6.011   7.512
23428SOL    HW172123   8.324   5.965   7.584
23428SOL    HW272124   8.219   6.071   7.555
23429SOL     OW72125   3.865   3.978   2.518
23429SOL    HW172126   3.908   4.063   2.512
23429SOL    HW272127   3.855   3.963   2.612
23430SOL     OW72128   6.223   2.043  11.684
23430SOL    HW172129   6.311   2.007  11.678
23430SOL    HW272130   6.213   2.097  11.606
23431SOL     OW72131   4.383   5.293   2.666
23431SOL    HW172132   4.329   5.367   2.636
23431SOL    HW272133   4.320   5.231   2.702
23432SOL     OW72134  13.570   4.186   7.261
23432SOL    HW172135  13.503   4.249   7.287
23432SOL    HW272136  13.651   4.219   7.300
23433SOL     OW72137   9.975   7.906   8.613
23433SOL    HW172138   9.961   7.922   8.706
23433SOL    HW272139   9.985   7.993   8.574
23434SOL     OW72140  13.876  13.740   9.889
23434SOL    HW172141  13.865  13.826   9.847
23434SOL    HW272142  13.911  13.761   9.975
23435SOL     OW72143   1.371   8.022   1.901
23435SOL    HW172144   1.431   8.083   1.943
23435SOL    HW272145   1.401   7.936   1.928
23436SOL     OW72146   6.259  11.747  14.665
23436SOL    HW172147   6.325  11.682  14.643
23436SOL    HW272148   6.222  11.718  14.749
23437SOL     OW72149   5.845  14.872   2.485
23437SOL    HW172150   5.932   0.031   2.467
23437SOL    HW272151   5.785   0.063   2.455
23438SOL     OW72152  12.673  14.758  10.310
23438SOL    HW172153  12.756  14.806  10.303
23438SOL    HW272154  12.660  14.720  10.224
23439SOL     OW72155   8.189   1.350   9.527
23439SOL    HW172156   8.252   1.408   9.570
23439SOL    HW272157   8.206   1.361   9.434
23440SOL     OW72158   9.095   8.585   0.518
23440SOL    HW172159   9.095   8.679   0.535
23440SOL    HW272160   9.171   8.552   0.568
23441SOL     OW72161   2.345   7.139   9.469
23441SOL    HW172162   2.288   7.107   9.398
23441SOL    HW272163   2.334   7.234   9.466
23442SOL     OW72164   4.323   7.544   7.835
23442SOL    HW172165   4.390   7.567   7.899
23442SOL    HW272166   4.372   7.506   7.762
23443SOL     OW72167   4.814  13.224   0.886
23443SOL    HW172168   4.739  13.183   0.928
23443SOL    HW272169   4.843  13.290   0.949
23444SOL     OW72170   2.572   4.662   7.079
23444SOL    HW172171   2.652   4.662   7.027
23444SOL    HW272172   2.598   4.627   7.164
23445SOL     OW72173   7.894  13.639   8.218
23445SOL    HW172174   7.868  13.722   8.259
23445SOL    HW272175   7.889  13.656   8.124
23446SOL     OW72176   5.908   3.873   7.498
23446SOL    HW172177   6.002   3.861   7.484
23446SOL    HW272178   5.898   3.887   7.592
23447SOL     OW72179   6.050   5.680   0.252
23447SOL    HW172180   6.050   5.621   0.327
23447SOL    HW272181   6.043   5.768   0.289
23448SOL     OW72182   4.951  11.300   6.639
23448SOL    HW172183   5.019  11.329   6.699
23448SOL    HW272184   4.999  11.260   6.566
23449SOL     OW72185   5.881   8.183  13.626
23449SOL    HW172186   5.923   8.138  13.553
23449SOL    HW272187   5.944   8.177  13.697
23450SOL     OW72188   2.844   1.343   1.907
23450SOL    HW172189   2.775   1.326   1.843
23450SOL    HW272190   2.832   1.435   1.931
23451SOL     OW72191  13.529   8.269  10.028
23451SOL    HW172192  13.437   8.268  10.001
23451SOL    HW272193  13.530   8.320  10.109
23452SOL     OW72194   7.828   7.100   4.524
23452SOL    HW172195   7.805   7.184   4.485
23452SOL    HW272196   7.750   7.046   4.511
23453SOL     OW72197   2.127  13.703   5.644
23453SOL    HW172198   2.154  13.611   5.643
23453SOL    HW272199   2.182  13.743   5.712
23454SOL     OW72200   2.417   2.112   5.938
23454SOL    HW172201   2.364   2.033   5.929
23454SOL    HW272202   2.496   2.094   5.888
23455SOL     OW72203   3.532  11.126   6.444
23455SOL    HW172204   3.582  11.168   6.374
23455SOL    HW272205   3.598  11.096   6.506
23456SOL     OW72206   7.435  10.339   6.707
23456SOL    HW172207   7.421  10.257   6.659
23456SOL    HW272208   7.414  10.318   6.798
23457SOL     OW72209  10.735   8.571   3.176
23457SOL    HW172210  10.721   8.666   3.179
23457SOL    HW272211  10.742   8.545   3.268
23458SOL     OW72212   9.007  14.055   4.633
23458SOL    HW172213   9.058  14.128   4.669
23458SOL    HW272214   8.946  14.096   4.572
23459SOL     OW72215   5.603   2.978   7.757
23459SOL    HW172216   5.578   3.069   7.748
23459SOL    HW272217   5.651   2.974   7.840
23460SOL     OW72218   1.252   8.353  14.749
23460SOL    HW172219   1.248   8.258  14.759
23460SOL    HW272220   1.307   8.382  14.822
23461SOL     OW72221   9.621   8.977  13.241
23461SOL    HW172222   9.575   9.003  13.320
23461SOL    HW272223   9.552   8.941  13.184
23462SOL     OW72224   5.488  14.264  13.366
23462SOL    HW172225   5.405  14.302  13.337
23462SOL    HW272226   5.537  14.337  13.403
23463SOL     OW72227   5.320  12.615   5.165
23463SOL    HW172228   5.350  12.527   5.145
23463SOL    HW272229   5.330  12.623   5.260
23464SOL     OW72230   6.342   5.869  10.306
23464SOL    HW172231   6.410   5.827  10.359
23464SOL    HW272232   6.372   5.858  10.215
23465SOL     OW72233  10.276   4.891   3.393
23465SOL    HW172234  10.322   4.841   3.326
23465SOL    HW272235  10.185   4.862   3.386
23466SOL     OW72236   6.130  12.654  14.871
23466SOL    HW172237   6.170  12.583  14.820
23466SOL    HW272238   6.066  12.693  14.812
23467SOL     OW72239   2.601  14.089   2.082
23467SOL    HW172240   2.635  14.171   2.046
23467SOL    HW272241   2.519  14.113   2.125
23468SOL     OW72242   4.944  11.634  10.823
23468SOL    HW172243   4.923  11.700  10.757
23468SOL    HW272244   4.920  11.675  10.906
23469SOL     OW72245  14.062   8.617  11.071
23469SOL    HW172246  14.074   8.682  11.001
23469SOL    HW272247  14.049   8.534  11.024
23470SOL     OW72248   2.474   9.057   0.008
23470SOL    HW172249   2.536   9.073   0.079
23470SOL    HW272250   2.405   9.004   0.048
23471SOL     OW72251  10.348   0.639  14.107
23471SOL    HW172252  10.429   0.624  14.058
23471SOL    HW272253  10.372   0.625  14.198
23472SOL     OW72254   8.304  13.660   7.956
23472SOL    HW172255   8.392  13.656   7.919
23472SOL    HW272256   8.305  13.596   8.028
23473SOL     OW72257   5.892  14.458   9.295
23473SOL    HW172258   5.861  14.464   9.205
23473SOL    HW272259   5.965  14.519   9.300
23474SOL     OW72260   9.628  13.233   8.781
23474SOL    HW172261   9.697  13.208   8.720
23474SOL    HW272262   9.652  13.321   8.810
23475SOL     OW72263  11.104  10.654   3.408
23475SOL    HW172264  11.181  10.661   3.465
23475SOL    HW272265  11.062  10.572   3.434
23476SOL     OW72266   2.636  11.067   0.440
23476SOL    HW172267   2.674  10.995   0.389
23476SOL    HW272268   2.679  11.059   0.526
23477SOL     OW72269   8.278  14.438  10.873
23477SOL    HW172270   8.196  14.475  10.841
23477SOL    HW272271   8.299  14.489  10.952
23478SOL     OW72272   0.741   6.704   6.501
23478SOL    HW172273   0.769   6.618   6.470
23478SOL    HW272274   0.645   6.701   6.495
23479SOL     OW72275   5.189   9.256   1.139
23479SOL    HW172276   5.115   9.290   1.190
23479SOL    HW272277   5.188   9.162   1.156
23480SOL     OW72278   8.802   3.838  12.405
23480SOL    HW172279   8.754   3.779  12.463
23480SOL    HW272280   8.873   3.873  12.461
23481SOL     OW72281  14.588   7.260  10.565
23481SOL    HW172282  14.518   7.262  10.500
23481SOL    HW272283  14.614   7.352  10.574
23482SOL     OW72284   5.204   6.958   6.175
23482SOL    HW172285   5.140   6.926   6.238
23482SOL    HW272286   5.284   6.911   6.196
23483SOL     OW72287  14.286  10.504   3.590
23483SOL    HW172288  14.379  10.514   3.572
23483SOL    HW272289  14.246  10.491   3.504
23484SOL     OW72290   7.250  13.138   8.043
23484SOL    HW172291   7.263  13.047   8.069
23484SOL    HW272292   7.182  13.135   7.976
23485SOL     OW72293  13.743   5.785  14.543
23485SOL    HW172294  13.822   5.781  14.490
23485SOL    HW272295  13.773   5.770  14.633
23486SOL     OW72296  10.418   6.568  10.032
23486SOL    HW172297  10.418   6.540  10.124
23486SOL    HW272298  10.417   6.664  10.037
23487SOL     OW72299   0.491   1.458   3.521
23487SOL    HW172300   0.563   1.398   3.508
23487SOL    HW272301   0.510   1.533   3.465
23488SOL     OW72302  14.360  12.466   0.772
23488SOL    HW172303  14.431  12.514   0.816
23488SOL    HW272304  14.403  12.388   0.736
23489SOL     OW72305   1.495  14.375   3.578
23489SOL    HW172306   1.532  14.287   3.570
23489SOL    HW272307   1.432  14.381   3.507
23490SOL     OW72308   8.426  11.891   6.874
23490SOL    HW172309   8.405  11.879   6.967
23490SOL    HW272310   8.472  11.975   6.870
23491SOL     OW72311   4.730   4.628  11.341
23491SOL    HW172312   4.692   4.659  11.423
23491SOL    HW272313   4.724   4.703  11.282
23492SOL     OW72314   3.020  13.118   3.302
23492SOL    HW172315   2.941  13.133   3.250
23492SOL    HW272316   2.998  13.154   3.389
23493SOL     OW72317   9.812   4.653   9.026
23493SOL    HW172318   9.884   4.682   8.969
23493SOL    HW272319   9.768   4.584   8.975
23494SOL     OW72320  12.298   3.342   4.488
23494SOL    HW172321  12.289   3.297   4.404
23494SOL    HW272322  12.263   3.279   4.552
23495SOL     OW72323   1.910  10.561   6.320
23495SOL    HW172324   2.002  10.574   6.297
23495SOL    HW272325   1.861  10.604   6.250
23496SOL     OW72326   5.084   8.570   6.643
23496SOL    HW172327   5.067   8.584   6.736
23496SOL    HW272328   5.149   8.501   6.640
23497SOL     OW72329   3.444   7.818   0.439
23497SOL    HW172330   3.484   7.793   0.356
23497SOL    HW272331   3.475   7.751   0.501
23498SOL     OW72332   7.170   0.369   1.706
23498SOL    HW172333   7.184   0.342   1.797
23498SOL    HW272334   7.105   0.440   1.712
23499SOL     OW72335   0.048  14.480  13.241
23499SOL    HW172336  14.849  14.421  13.233
23499SOL    HW272337   0.088  14.456  13.324
23500SOL     OW72338   3.010   8.169  11.003
23500SOL    HW172339   3.070   8.210  11.065
23500SOL    HW272340   3.054   8.178  10.918
23501SOL     OW72341  12.632   7.406   9.402
23501SOL    HW172342  12.654   7.471   9.469
23501SOL    HW272343  12.658   7.322   9.442
23502SOL     OW72344  13.214   4.453  14.335
23502SOL    HW172345  13.300   4.429  14.370
23502SOL    HW272346  13.165   4.483  14.412
23503SOL     OW72347   4.642   0.942   5.024
23503SOL    HW172348   4.660   0.930   4.930
23503SOL    HW272349   4.631   0.852   5.057
23504SOL     OW72350  10.342  10.930  13.045
23504SOL    HW172351  10.422  10.933  12.991
23504SOL    HW272352  10.274  10.900  12.984
23505SOL     OW72353   1.762  10.997   6.296
23505SOL    HW172354   1.748  11.086   6.329
23505SOL    HW272355   1.769  10.943   6.376
23506SOL     OW72356   1.909   2.436   8.749
23506SOL    HW172357   1.942   2.356   8.789
23506SOL    HW272358   1.976   2.502   8.768
23507SOL     OW72359   5.052  13.498   5.986
23507SOL    HW172360   4.981  13.472   6.044
23507SOL    HW272361   5.043  13.592   5.978
23508SOL     OW72362   2.007   9.116   1.197
23508SOL    HW172363   2.014   9.209   1.216
23508SOL    HW272364   1.945   9.082   1.262
23509SOL     OW72365   4.792   3.560   0.887
23509SOL    HW172366   4.755   3.524   0.806
23509SOL    HW272367   4.718   3.563   0.947
23510SOL     OW72368   6.145  11.768  10.998
23510SOL    HW172369   6.085  11.699  10.968
23510SOL    HW272370   6.110  11.795  11.083
23511SOL     OW72371  12.420   8.053   3.925
23511SOL    HW172372  12.407   7.979   3.985
23511SOL    HW272373  12.507   8.039   3.888
23512SOL     OW72374   4.383   3.060   7.563
23512SOL    HW172375   4.404   3.038   7.472
23512SOL    HW272376   4.394   3.155   7.569
23513SOL     OW72377   8.895   3.466  11.782
23513SOL    HW172378   8.930   3.524  11.850
23513SOL    HW272379   8.801   3.483  11.784
23514SOL     OW72380   7.085   0.685  12.560
23514SOL    HW172381   7.069   0.659  12.469
23514SOL    HW272382   7.022   0.635  12.611
23515SOL     OW72383   0.480  12.518  10.530
23515SOL    HW172384   0.442  12.598  10.565
23515SOL    HW272385   0.431  12.500  10.450
23516SOL     OW72386   4.994   8.171   5.805
23516SOL    HW172387   5.017   8.093   5.856
23516SOL    HW272388   4.979   8.239   5.871
23517SOL     OW72389  13.279  11.065  12.858
23517SOL    HW172390  13.206  11.055  12.919
23517SOL    HW272391  13.256  11.009  12.783
23518SOL     OW72392  10.425   5.460   1.361
23518SOL    HW172393  10.470   5.468   1.445
23518SOL    HW272394  10.495   5.440   1.298
23519SOL     OW72395   7.814  10.179   0.180
23519SOL    HW172396   7.737  10.122   0.170
23519SOL    HW272397   7.864  10.139   0.251
23520SOL     OW72398  10.118   1.250   5.014
23520SOL    HW172399  10.037   1.217   5.053
23520SOL    HW272400  10.188   1.209   5.066
23521SOL     OW72401   1.810   9.179  13.336
23521SOL    HW172402   1.878   9.229  13.290
23521SOL    HW272403   1.794   9.103  13.281
23522SOL     OW72404   7.830   5.069   0.541
23522SOL    HW172405   7.778   4.989   0.555
23522SOL    HW272406   7.816   5.121   0.620
23523SOL     OW72407   3.811   5.892   6.438
23523SOL    HW172408   3.888   5.933   6.399
23523SOL    HW272409   3.840   5.805   6.463
23524SOL     OW72410   6.987   9.824   9.336
23524SOL    HW172411   6.917   9.860   9.391
23524SOL    HW272412   6.974   9.867   9.251
23525SOL     OW72413   3.591  12.985  14.129
23525SOL    HW172414   3.549  12.977  14.043
23525SOL    HW272415   3.530  12.944  14.190
23526SOL     OW72416   3.560   1.030   4.083
23526SOL    HW172417   3.633   0.968   4.083
23526SOL    HW272418   3.482   0.975   4.096
23527SOL     OW72419   7.151  13.000   5.060
23527SOL    HW172420   7.091  13.056   5.108
23527SOL    HW272421   7.095  12.936   5.016
23528SOL     OW72422  14.453   8.719   3.683
23528SOL    HW172423  14.510   8.654   3.725
23528SOL    HW272424  14.442   8.787   3.749
23529SOL     OW72425   8.578   4.281   1.819
23529SOL    HW172426   8.653   4.337   1.797
23529SOL    HW272427   8.610   4.226   1.891
23530SOL     OW72428   8.003   0.938   9.212
23530SOL    HW172429   8.029   0.871   9.276
23530SOL    HW272430   7.947   0.997   9.262
23531SOL     OW72431  10.773  10.671  11.622
23531SOL    HW172432  10.834  10.618  11.673
23531SOL    HW272433  10.687  10.653  11.662
23532SOL     OW72434  13.220   3.165  12.494
23532SOL    HW172435  13.272   3.240  12.523
23532SOL    HW272436  13.130   3.197  12.493
23533SOL     OW72437  10.944   2.810   9.262
23533SOL    HW172438  10.906   2.826   9.349
23533SOL    HW272439  10.996   2.731   9.273
23534SOL     OW72440  11.776  10.252  13.075
23534SOL    HW172441  11.701  10.199  13.101
23534SOL    HW272442  11.800  10.220  12.988
23535SOL     OW72443   5.695  13.968  12.942
23535SOL    HW172444   5.782  13.969  12.901
23535SOL    HW272445   5.706  14.018  13.023
23536SOL     OW72446   5.591   8.530   2.339
23536SOL    HW172447   5.579   8.526   2.244
23536SOL    HW272448   5.532   8.464   2.374
23537SOL     OW72449   6.551   6.914  13.766
23537SOL    HW172450   6.503   6.873  13.839
23537SOL    HW272451   6.483   6.938  13.704
23538SOL     OW72452  10.565   2.918   4.338
23538SOL    HW172453  10.570   2.878   4.251
23538SOL    HW272454  10.564   2.843   4.398
23539SOL     OW72455   4.035   5.723   8.845
23539SOL    HW172456   3.977   5.648   8.829
23539SOL    HW272457   4.120   5.695   8.810
23540SOL     OW72458   3.437   5.338  10.188
23540SOL    HW172459   3.522   5.308  10.220
23540SOL    HW272460   3.378   5.328  10.262
23541SOL     OW72461   0.162   8.046  11.715
23541SOL    HW172462   0.240   8.083  11.673
23541SOL    HW272463   0.182   8.046  11.808
23542SOL     OW72464   5.130  14.285   5.300
23542SOL    HW172465   5.151  14.276   5.207
23542SOL    HW272466   5.142  14.378   5.318
23543SOL     OW72467   0.048  12.391   6.464
23543SOL    HW172468   0.126  12.357   6.420
23543SOL    HW272469  14.852  12.339   6.429
23544SOL     OW72470  13.901  11.919  14.111
23544SOL    HW172471  13.913  12.009  14.142
23544SOL    HW272472  13.930  11.920  14.020
23545SOL     OW72473  11.383   9.883   5.947
23545SOL    HW172474  11.460   9.829   5.934
23545SOL    HW272475  11.366   9.879   6.041
23546SOL     OW72476  10.554   7.528   7.489
23546SOL    HW172477  10.572   7.531   7.395
23546SOL    HW272478  10.640   7.515   7.529
23547SOL     OW72479   2.146   4.676  11.814
23547SOL    HW172480   2.136   4.750  11.755
23547SOL    HW272481   2.239   4.653  11.809
23548SOL     OW72482   0.227   2.126   6.571
23548SOL    HW172483   0.170   2.125   6.648
23548SOL    HW272484   0.177   2.172   6.505
23549SOL     OW72485  12.168   1.726   2.715
23549SOL    HW172486  12.123   1.809   2.731
23549SOL    HW272487  12.261   1.751   2.707
23550SOL     OW72488  13.189  12.698   6.640
23550SOL    HW172489  13.269  12.747   6.622
23550SOL    HW272490  13.210  12.607   6.618
23551SOL     OW72491   1.265  12.404   8.991
23551SOL    HW172492   1.170  12.414   8.981
23551SOL    HW272493   1.302  12.454   8.919
23552SOL     OW72494  13.347   4.443   8.398
23552SOL    HW172495  13.399   4.370   8.432
23552SOL    HW272496  13.383   4.459   8.310
23553SOL     OW72497   5.232   4.729  10.063
23553SOL    HW172498   5.272   4.813  10.041
23553SOL    HW272499   5.196   4.696   9.981
23554SOL     OW72500   8.316   2.116  14.613
23554SOL    HW172501   8.278   2.076  14.535
23554SOL    HW272502   8.402   2.075  14.621
23555SOL     OW72503   6.998   3.516   5.010
23555SOL    HW172504   6.995   3.578   5.082
23555SOL    HW272505   6.908   3.487   4.999
23556SOL     OW72506  10.697   1.219   9.954
23556SOL    HW172507  10.667   1.198  10.042
23556SOL    HW272508  10.663   1.149   9.899
23557SOL     OW72509   6.693   2.086   5.901
23557SOL    HW172510   6.741   2.089   5.819
23557SOL    HW272511   6.740   2.021   5.954
23558SOL     OW72512   9.339  10.758  12.415
23558SOL    HW172513   9.271  10.804  12.367
23558SOL    HW272514   9.345  10.805  12.499
23559SOL     OW72515  10.160   6.639  11.037
23559SOL    HW172516  10.122   6.703  11.096
23559SOL    HW272517  10.101   6.563  11.042
23560SOL     OW72518   1.721  12.425  11.401
23560SOL    HW172519   1.676  12.500  11.441
23560SOL    HW272520   1.707  12.353  11.462
23561SOL     OW72521  11.353  11.514   5.593
23561SOL    HW172522  11.370  11.459   5.670
23561SOL    HW272523  11.440  11.538   5.561
23562SOL     OW72524   6.819   5.850   5.803
23562SOL    HW172525   6.819   5.822   5.895
23562SOL    HW272526   6.737   5.899   5.793
23563SOL     OW72527  14.425   2.977  14.751
23563SOL    HW172528  14.373   3.012  14.679
23563SOL    HW272529  14.507   3.026  14.747
23564SOL     OW72530   0.967  10.425   3.653
23564SOL    HW172531   0.968  10.460   3.743
23564SOL    HW272532   1.029  10.352   3.655
23565SOL     OW72533   2.018   6.818   9.311
23565SOL    HW172534   1.956   6.881   9.348
23565SOL    HW272535   2.040   6.761   9.384
23566SOL     OW72536   7.185  14.165  11.603
23566SOL    HW172537   7.134  14.157  11.523
23566SOL    HW272538   7.176  14.080  11.646
23567SOL     OW72539  12.697   4.818   3.790
23567SOL    HW172540  12.720   4.765   3.866
23567SOL    HW272541  12.764   4.885   3.785
23568SOL     OW72542   3.363  14.433   9.869
23568SOL    HW172543   3.386  14.488   9.944
23568SOL    HW272544   3.367  14.493   9.794
23569SOL     OW72545   3.281   5.274   0.296
23569SOL    HW172546   3.187   5.258   0.289
23569SOL    HW272547   3.295   5.358   0.252
23570SOL     OW72548   9.933  14.068  11.447
23570SOL    HW172549   9.989  14.045  11.374
23570SOL    HW272550   9.858  14.113  11.407
23571SOL     OW72551   0.315  14.694   5.759
23571SOL    HW172552   0.250  14.627   5.779
23571SOL    HW272553   0.379  14.688   5.830
23572SOL     OW72554   4.378   8.566  14.571
23572SOL    HW172555   4.389   8.548  14.478
23572SOL    HW272556   4.427   8.496  14.615
23573SOL     OW72557   1.215  12.382   5.929
23573SOL    HW172558   1.120  12.373   5.915
23573SOL    HW272559   1.236  12.317   5.996
23574SOL     OW72560   5.799   4.448  14.628
23574SOL    HW172561   5.769   4.433  14.717
23574SOL    HW272562   5.892   4.426  14.630
23575SOL     OW72563   1.595   7.845   8.365
23575SOL    HW172564   1.610   7.750   8.365
23575SOL    HW272565   1.543   7.861   8.444
23576SOL     OW72566  12.571   5.643  14.230
23576SOL    HW172567  12.575   5.692  14.147
23576SOL    HW272568  12.648   5.586  14.227
23577SOL     OW72569  12.012   5.796   4.367
23577SOL    HW172570  12.088   5.788   4.426
23577SOL    HW272571  12.023   5.726   4.304
23578SOL     OW72572   2.361   1.683   9.432
23578SOL    HW172573   2.426   1.740   9.473
23578SOL    HW272574   2.305   1.742   9.382
23579SOL     OW72575   9.256  10.970   8.632
23579SOL    HW172576   9.194  11.023   8.582
23579SOL    HW272577   9.208  10.946   8.711
23580SOL     OW72578   8.555   9.686   0.580
23580SOL    HW172579   8.591   9.747   0.516
23580SOL    HW272580   8.618   9.614   0.582
23581SOL     OW72581  11.138  11.193  12.854
23581SOL    HW172582  11.064  11.233  12.898
23581SOL    HW272583  11.130  11.220  12.763
23582SOL     OW72584   5.168  11.369   2.866
23582SOL    HW172585   5.244  11.414   2.829
23582SOL    HW272586   5.160  11.290   2.814
23583SOL     OW72587   6.246   2.544  10.343
23583SOL    HW172588   6.200   2.505  10.417
23583SOL    HW272589   6.251   2.474  10.278
23584SOL     OW72590   9.460   2.269   4.453
23584SOL    HW172591   9.465   2.299   4.362
23584SOL    HW272592   9.480   2.346   4.505
23585SOL     OW72593   7.016  13.258  14.466
23585SOL    HW172594   7.079  13.291  14.401
23585SOL    HW272595   7.053  13.175  14.494
23586SOL     OW72596   0.291   6.199   9.276
23586SOL    HW172597   0.370   6.169   9.320
23586SOL    HW272598   0.240   6.120   9.261
23587SOL     OW72599  12.296  13.840   8.957
23587SOL    HW172600  12.217  13.882   8.924
23587SOL    HW272601  12.362  13.910   8.957
23588SOL     OW72602   3.754   0.648   4.240
23588SOL    HW172603   3.659   0.657   4.235
23588SOL    HW272604   3.775   0.578   4.178
23589SOL     OW72605   9.802  12.212   1.708
23589SOL    HW172606   9.828  12.303   1.715
23589SOL    HW272607   9.858  12.166   1.771
23590SOL     OW72608   4.686   9.119   6.680
23590SOL    HW172609   4.736   9.109   6.599
23590SOL    HW272610   4.638   9.201   6.669
23591SOL     OW72611   7.912   5.379  12.550
23591SOL    HW172612   7.843   5.354  12.611
23591SOL    HW272613   7.876   5.453  12.502
23592SOL     OW72614   2.042   6.531  12.313
23592SOL    HW172615   1.986   6.481  12.371
23592SOL    HW272616   2.006   6.620  12.316
23593SOL     OW72617  10.354   4.410   9.527
23593SOL    HW172618  10.314   4.402   9.613
23593SOL    HW272619  10.404   4.492   9.531
23594SOL     OW72620   4.791   8.611  14.837
23594SOL    HW172621   4.794   8.554   0.038
23594SOL    HW272622   4.708   8.657  14.845
23595SOL     OW72623   0.666   8.604   5.708
23595SOL    HW172624   0.614   8.535   5.750
23595SOL    HW272625   0.673   8.673   5.774
23596SOL     OW72626   0.300  13.459   2.658
23596SOL    HW172627   0.330  13.410   2.735
23596SOL    HW272628   0.226  13.408   2.625
23597SOL     OW72629   5.475   8.513   1.733
23597SOL    HW172630   5.568   8.490   1.729
23597SOL    HW272631   5.474   8.606   1.755
23598SOL     OW72632   6.924   6.742   3.059
23598SOL    HW172633   7.012   6.775   3.079
23598SOL    HW272634   6.865   6.797   3.110
23599SOL     OW72635   3.763   0.025   0.338
23599SOL    HW172636   3.820   0.010   0.413
23599SOL    HW272637   3.675   0.029   0.375
23600SOL     OW72638   5.894   1.275   7.451
23600SOL    HW172639   5.925   1.208   7.391
23600SOL    HW272640   5.833   1.328   7.399
23601SOL     OW72641   3.274  13.490  10.958
23601SOL    HW172642   3.284  13.399  10.986
23601SOL    HW272643   3.194  13.490  10.905
23602SOL     OW72644   6.051   7.231   2.068
23602SOL    HW172645   6.070   7.223   1.974
23602SOL    HW272646   6.067   7.143   2.103
23603SOL     OW72647  13.912   9.799  13.762
23603SOL    HW172648  13.954   9.839  13.686
23603SOL    HW272649  13.891   9.873  13.820
23604SOL     OW72650  12.789  10.095  10.437
23604SOL    HW172651  12.745  10.156  10.496
23604SOL    HW272652  12.852  10.149  10.390
23605SOL     OW72653   3.416   6.037   2.336
23605SOL    HW172654   3.410   6.023   2.430
23605SOL    HW272655   3.445   5.953   2.301
23606SOL     OW72656   8.594   0.630   9.102
23606SOL    HW172657   8.595   0.723   9.081
23606SOL    HW272658   8.638   0.624   9.187
23607SOL     OW72659  13.117   8.506   9.527
23607SOL    HW172660  13.159   8.578   9.575
23607SOL    HW272661  13.083   8.547   9.448
23608SOL     OW72662   2.918   7.776  13.619
23608SOL    HW172663   2.959   7.862  13.630
23608SOL    HW272664   2.991   7.714  13.623
23609SOL     OW72665   9.988   3.051   6.354
23609SOL    HW172666   9.998   3.084   6.444
23609SOL    HW272667  10.075   3.056   6.316
23610SOL     OW72668   5.759  10.395   0.670
23610SOL    HW172669   5.846  10.357   0.661
23610SOL    HW272670   5.759  10.469   0.609
23611SOL     OW72671   4.146   2.525   8.847
23611SOL    HW172672   4.062   2.511   8.802
23611SOL    HW272673   4.136   2.610   8.891
23612SOL     OW72674   3.507  14.053  11.363
23612SOL    HW172675   3.437  14.008  11.409
23612SOL    HW272676   3.465  14.092  11.286
23613SOL     OW72677   5.130  14.864   3.725
23613SOL    HW172678   5.127  14.776   3.686
23613SOL    HW272679   5.128   0.047   3.651
23614SOL     OW72680   9.516  12.142  14.610
23614SOL    HW172681   9.529  12.237  14.606
23614SOL    HW272682   9.505  12.123  14.703
23615SOL     OW72683   9.922  14.038   0.737
23615SOL    HW172684   9.879  13.953   0.732
23615SOL    HW272685   9.919  14.072   0.648
23616SOL     OW72686   8.971   9.225   3.213
23616SOL    HW172687   9.013   9.144   3.244
23616SOL    HW272688   8.913   9.197   3.142
23617SOL     OW72689   8.186  13.201   7.494
23617SOL    HW172690   8.243  13.262   7.541
23617SOL    HW272691   8.234  13.179   7.414
23618SOL     OW72692   0.398   4.789   7.285
23618SOL    HW172693   0.373   4.744   7.365
23618SOL    HW272694   0.477   4.744   7.256
23619SOL     OW72695   5.983   9.598  11.005
23619SOL    HW172696   5.920   9.594  10.933
23619SOL    HW272697   6.047   9.529  10.985
23620SOL     OW72698   0.150   6.330  11.471
23620SOL    HW172699   0.081   6.268  11.447
23620SOL    HW272700   0.141   6.402  11.408
23621SOL     OW72701   2.465  12.316   3.801
23621SOL    HW172702   2.509  12.250   3.748
23621SOL    HW272703   2.372  12.296   3.791
23622SOL     OW72704   9.445  13.878   0.715
23622SOL    HW172705   9.472  13.959   0.757
23622SOL    HW272706   9.371  13.903   0.660
23623SOL     OW72707   9.760   6.644   8.466
23623SOL    HW172708   9.795   6.561   8.432
23623SOL    HW272709   9.683   6.618   8.517
23624SOL     OW72710   0.278  13.800  14.015
23624SOL    HW172711   0.235  13.748  13.947
23624SOL    HW272712   0.207  13.830  14.072
23625SOL     OW72713   9.842  11.295  12.573
23625SOL    HW172714   9.931  11.324  12.593
23625SOL    HW272715   9.803  11.275  12.658
23626SOL     OW72716   4.754   1.755   9.904
23626SOL    HW172717   4.685   1.705   9.946
23626SOL    HW272718   4.710   1.833   9.869
23627SOL     OW72719   4.737  14.381   9.450
23627SOL    HW172720   4.731  14.476   9.461
23627SOL    HW272721   4.761  14.368   9.359
23628SOL     OW72722  10.723   3.071   5.977
23628SOL    HW172723  10.652   3.042   6.034
23628SOL    HW272724  10.690   3.056   5.888
23629SOL     OW72725   4.708   1.111  11.877
23629SOL    HW172726   4.789   1.158  11.861
23629SOL    HW272727   4.649   1.138  11.807
23630SOL     OW72728  14.563  12.423   7.303
23630SOL    HW172729  14.521  12.465   7.378
23630SOL    HW272730  14.542  12.481   7.229
23631SOL     OW72731   7.817   5.209   0.280
23631SOL    HW172732   7.798   5.159   0.359
23631SOL    HW272733   7.802   5.301   0.306
23632SOL     OW72734   2.939   9.771  10.026
23632SOL    HW172735   2.991   9.839  10.069
23632SOL    HW272736   3.003   9.713   9.986
23633SOL     OW72737  14.827   2.038   9.590
23633SOL    HW172738   0.039   2.034   9.555
23633SOL    HW272739  14.770   2.039   9.513
23634SOL     OW72740   7.132   9.069   3.597
23634SOL    HW172741   7.096   8.995   3.646
23634SOL    HW272742   7.214   9.035   3.560
23635SOL     OW72743   7.439   4.059   3.099
23635SOL    HW172744   7.523   4.074   3.143
23635SOL    HW272745   7.387   4.011   3.164
23636SOL     OW72746  14.828  11.892   7.976
23636SOL    HW172747  14.757  11.834   7.948
23636SOL    HW272748  14.862  11.851   8.056
23637SOL     OW72749   1.794   3.653   2.491
23637SOL    HW172750   1.832   3.629   2.406
23637SOL    HW272751   1.839   3.734   2.515
23638SOL     OW72752   2.295   5.325   9.863
23638SOL    HW172753   2.295   5.396   9.799
23638SOL    HW272754   2.222   5.346   9.922
23639SOL     OW72755  13.629   2.746   3.832
23639SOL    HW172756  13.558   2.703   3.784
23639SOL    HW272757  13.591   2.829   3.861
23640SOL     OW72758   1.256  10.847  14.713
23640SOL    HW172759   1.212  10.764  14.697
23640SOL    HW272760   1.197  10.913  14.678
23641SOL     OW72761   1.583  10.216   4.994
23641SOL    HW172762   1.579  10.212   4.899
23641SOL    HW272763   1.563  10.127   5.022
23642SOL     OW72764  11.588  13.280   4.064
23642SOL    HW172765  11.616  13.207   4.010
23642SOL    HW272766  11.570  13.351   4.002
23643SOL     OW72767  11.951   5.241   0.408
23643SOL    HW172768  11.961   5.240   0.312
23643SOL    HW272769  11.868   5.197   0.424
23644SOL     OW72770   1.383   1.831   7.352
23644SOL    HW172771   1.446   1.898   7.377
23644SOL    HW272772   1.362   1.785   7.433
23645SOL     OW72773   5.194  12.199  13.034
23645SOL    HW172774   5.152  12.276  12.994
23645SOL    HW272775   5.128  12.164  13.093
23646SOL     OW72776  12.009   8.695   0.540
23646SOL    HW172777  12.038   8.729   0.625
23646SOL    HW272778  11.914   8.711   0.539
23647SOL     OW72779   4.502   5.184   8.490
23647SOL    HW172780   4.485   5.227   8.406
23647SOL    HW272781   4.563   5.113   8.468
23648SOL     OW72782  10.224   0.563   1.928
23648SOL    HW172783  10.293   0.591   1.868
23648SOL    HW272784  10.145   0.560   1.875
23649SOL     OW72785   4.527   8.594  12.257
23649SOL    HW172786   4.518   8.669  12.316
23649SOL    HW272787   4.508   8.518  12.313
23650SOL     OW72788   6.814   8.998   8.378
23650SOL    HW172789   6.729   8.960   8.355
23650SOL    HW272790   6.858   8.928   8.427
23651SOL     OW72791   2.172   1.429   0.884
23651SOL    HW172792   2.086   1.458   0.855
23651SOL    HW272793   2.160   1.409   0.977
23652SOL     OW72794   0.558  14.862   1.476
23652SOL    HW172795   0.534  14.869   1.384
23652SOL    HW272796   0.497  14.799   1.512
23653SOL     OW72797  11.203  14.875   5.378
23653SOL    HW172798  11.121  14.826   5.389
23653SOL    HW272799  11.228   0.022   5.468
23654SOL     OW72800   2.219   1.142  13.361
23654SOL    HW172801   2.258   1.201  13.426
23654SOL    HW272802   2.152   1.093  13.410
23655SOL     OW72803   8.861   1.713   7.108
23655SOL    HW172804   8.914   1.791   7.093
23655SOL    HW272805   8.841   1.679   7.021
23656SOL     OW72806   0.497   3.803   4.370
23656SOL    HW172807   0.544   3.866   4.315
23656SOL    HW272808   0.565   3.743   4.401
23657SOL     OW72809   7.762   2.744   6.642
23657SOL    HW172810   7.801   2.831   6.635
23657SOL    HW272811   7.694   2.743   6.574
23658SOL     OW72812   0.846   4.004   8.067
23658SOL    HW172813   0.883   3.925   8.029
23658SOL    HW272814   0.843   4.067   7.995
23659SOL     OW72815   4.679   9.903  10.227
23659SOL    HW172816   4.732   9.973  10.266
23659SOL    HW272817   4.607   9.891  10.288
23660SOL     OW72818   3.195   6.832   2.398
23660SOL    HW172819   3.268   6.789   2.443
23660SOL    HW272820   3.127   6.841   2.464
23661SOL     OW72821  14.714   4.958  11.180
23661SOL    HW172822  14.624   4.982  11.161
23661SOL    HW272823  14.762   5.041  11.179
23662SOL     OW72824  11.643  12.797   2.287
23662SOL    HW172825  11.564  12.767   2.242
23662SOL    HW272826  11.677  12.719   2.332
23663SOL     OW72827   9.000  11.755   7.281
23663SOL    HW172828   8.963  11.832   7.325
23663SOL    HW272829   9.063  11.791   7.218
23664SOL     OW72830  14.631   7.237   6.018
23664SOL    HW172831  14.537   7.221   6.022
23664SOL    HW272832  14.654   7.228   5.925
23665SOL     OW72833   5.143   1.552   3.634
23665SOL    HW172834   5.149   1.633   3.684
23665SOL    HW272835   5.211   1.561   3.566
23666SOL     OW72836  14.631  12.619   0.783
23666SOL    HW172837  14.667  12.706   0.803
23666SOL    HW272838  14.699  12.558   0.811
23667SOL     OW72839  14.841   5.122   5.744
23667SOL    HW172840  14.876   5.112   5.832
23667SOL    HW272841  14.792   5.204   5.746
23668SOL     OW72842   3.708  12.779   2.659
23668SOL    HW172843   3.639  12.777   2.592
23668SOL    HW272844   3.662  12.762   2.741
23669SOL     OW72845   5.438  14.387   8.528
23669SOL    HW172846   5.373  14.385   8.598
23669SOL    HW272847   5.388  14.379   8.447
23670SOL     OW72848   7.944  11.930   7.058
23670SOL    HW172849   8.019  11.947   7.114
23670SOL    HW272850   7.980  11.923   6.969
23671SOL     OW72851   2.327   8.912  12.390
23671SOL    HW172852   2.360   8.830  12.425
23671SOL    HW272853   2.235   8.915  12.418
23672SOL     OW72854   0.446   1.557   2.657
23672SOL    HW172855   0.484   1.501   2.589
23672SOL    HW272856   0.433   1.498   2.732
23673SOL     OW72857   2.271  14.849  11.250
23673SOL    HW172858   2.225  14.775  11.290
23673SOL    HW272859   2.277  14.825  11.157
23674SOL     OW72860   8.157   6.194   3.271
23674SOL    HW172861   8.222   6.125   3.264
23674SOL    HW272862   8.207   6.276   3.269
23675SOL     OW72863  14.003   2.358  13.764
23675SOL    HW172864  14.057   2.432  13.737
23675SOL    HW272865  14.048   2.323  13.841
23676SOL     OW72866  12.976   6.696  11.940
23676SOL    HW172867  13.028   6.619  11.961
23676SOL    HW272868  12.946   6.729  12.025
23677SOL     OW72869   6.124   4.351   7.689
23677SOL    HW172870   6.036   4.333   7.723
23677SOL    HW272871   6.109   4.382   7.600
23678SOL     OW72872  13.069   1.719  12.659
23678SOL    HW172873  12.985   1.760  12.638
23678SOL    HW272874  13.100   1.767  12.736
23679SOL     OW72875  12.090  12.829   5.340
23679SOL    HW172876  12.150  12.809   5.412
23679SOL    HW272877  12.041  12.905   5.370
23680SOL     OW72878   9.874   2.866  11.655
23680SOL    HW172879   9.920   2.785  11.679
23680SOL    HW272880   9.868   2.915  11.737
23681SOL     OW72881  13.956  10.606  11.121
23681SOL    HW172882  13.940  10.685  11.173
23681SOL    HW272883  13.876  10.554  11.132
23682SOL     OW72884   5.385   7.528   2.850
23682SOL    HW172885   5.326   7.492   2.916
23682SOL    HW272886   5.471   7.492   2.872
23683SOL     OW72887   0.543  13.444   8.231
23683SOL    HW172888   0.592  13.382   8.176
23683SOL    HW272889   0.507  13.391   8.302
23684SOL     OW72890   5.970   8.443   7.440
23684SOL    HW172891   5.950   8.533   7.463
23684SOL    HW272892   5.890   8.409   7.400
23685SOL     OW72893   8.872   9.161   1.244
23685SOL    HW172894   8.860   9.217   1.321
23685SOL    HW272895   8.966   9.163   1.227
23686SOL     OW72896   2.021   5.313   8.357
23686SOL    HW172897   2.068   5.319   8.274
23686SOL    HW272898   1.937   5.272   8.333
23687SOL     OW72899  11.592  14.030   8.215
23687SOL    HW172900  11.559  14.076   8.138
23687SOL    HW272901  11.656  14.089   8.253
23688SOL     OW72902   0.946  10.833   7.883
23688SOL    HW172903   0.879  10.881   7.836
23688SOL    HW272904   0.913  10.744   7.891
23689SOL     OW72905  14.274   0.900   2.627
23689SOL    HW172906  14.224   0.889   2.546
23689SOL    HW272907  14.276   0.995   2.641
23690SOL     OW72908   7.188  10.774   2.175
23690SOL    HW172909   7.263  10.793   2.117
23690SOL    HW272910   7.176  10.679   2.168
23691SOL     OW72911   8.164   1.429   2.776
23691SOL    HW172912   8.242   1.463   2.733
23691SOL    HW272913   8.113   1.508   2.797
23692SOL     OW72914  13.868  11.013   9.727
23692SOL    HW172915  13.842  11.082   9.666
23692SOL    HW272916  13.963  11.006   9.716
23693SOL     OW72917  11.322  11.050   9.308
23693SOL    HW172918  11.324  11.002   9.226
23693SOL    HW272919  11.230  11.073   9.320
23694SOL     OW72920   0.386  13.494  10.823
23694SOL    HW172921   0.302  13.502  10.778
23694SOL    HW272922   0.397  13.400  10.836
23695SOL     OW72923  13.589  12.882  12.914
23695SOL    HW172924  13.500  12.916  12.907
23695SOL    HW272925  13.596  12.819  12.842
23696SOL     OW72926   9.747   3.370   8.426
23696SOL    HW172927   9.660   3.353   8.389
23696SOL    HW272928   9.787   3.284   8.434
23697SOL     OW72929  13.841   7.477  12.473
23697SOL    HW172930  13.821   7.536  12.401
23697SOL    HW272931  13.936   7.465  12.468
23698SOL     OW72932  14.866  11.521   9.154
23698SOL    HW172933  14.838  11.507   9.244
23698SOL    HW272934  14.825  11.451   9.104
23699SOL     OW72935   3.018   9.997  13.561
23699SOL    HW172936   3.008   9.992  13.466
23699SOL    HW272937   3.112   9.984  13.576
23700SOL     OW72938   9.057   1.371   0.147
23700SOL    HW172939   9.097   1.451   0.180
23700SOL    HW272940   8.972   1.399   0.112
23701SOL     OW72941   3.413  14.209   0.434
23701SOL    HW172942   3.492  14.263   0.429
23701SOL    HW272943   3.341  14.271   0.440
23702SOL     OW72944   0.309  12.994   9.896
23702SOL    HW172945   0.377  12.948   9.846
23702SOL    HW272946   0.357  13.055   9.952
23703SOL     OW72947  12.690   5.979   6.283
23703SOL    HW172948  12.738   5.945   6.207
23703SOL    HW272949  12.689   6.074   6.270
23704SOL     OW72950  10.109   1.975   1.482
23704SOL    HW172951  10.025   1.962   1.526
23704SOL    HW272952  10.095   2.050   1.424
23705SOL     OW72953  11.234  10.872  13.888
23705SOL    HW172954  11.144  10.848  13.869
23705SOL    HW272955  11.267  10.909  13.806
23706SOL     OW72956  12.934   7.028  10.937
23706SOL    HW172957  12.980   7.099  10.892
23706SOL    HW272958  12.864   7.072  10.984
23707SOL     OW72959  11.664   2.703   4.911
23707SOL    HW172960  11.624   2.790   4.903
23707SOL    HW272961  11.591   2.642   4.900
23708SOL     OW72962   5.682   1.214   8.853
23708SOL    HW172963   5.660   1.133   8.899
23708SOL    HW272964   5.601   1.266   8.855
23709SOL     OW72965  13.369  13.804  14.509
23709SOL    HW172966  13.422  13.735  14.549
23709SOL    HW272967  13.433  13.863  14.469
23710SOL     OW72968   2.520   1.665  14.582
23710SOL    HW172969   2.538   1.705  14.667
23710SOL    HW272970   2.603   1.623  14.558
23711SOL     OW72971   3.922   9.618   8.553
23711SOL    HW172972   3.947   9.526   8.565
23711SOL    HW272973   3.989   9.667   8.601
23712SOL     OW72974  14.764   1.011   2.809
23712SOL    HW172975  14.682   0.978   2.771
23712SOL    HW272976  14.826   1.011   2.736
23713SOL     OW72977   7.683   9.096   9.721
23713SOL    HW172978   7.777   9.075   9.725
23713SOL    HW272979   7.681   9.191   9.713
23714SOL     OW72980  10.305   2.575   8.837
23714SOL    HW172981  10.316   2.625   8.918
23714SOL    HW272982  10.345   2.630   8.769
23715SOL     OW72983   7.711   7.726   6.417
23715SOL    HW172984   7.623   7.705   6.446
23715SOL    HW272985   7.750   7.773   6.490
23716SOL     OW72986   8.608  12.800  13.782
23716SOL    HW172987   8.587  12.847  13.701
23716SOL    HW272988   8.613  12.868  13.849
23717SOL     OW72989   5.244  14.470  13.689
23717SOL    HW172990   5.148  14.465  13.682
23717SOL    HW272991   5.271  14.379  13.702
23718SOL     OW72992  13.790   4.409  11.174
23718SOL    HW172993  13.761   4.442  11.259
23718SOL    HW272994  13.858   4.345  11.195
23719SOL     OW72995   3.784  13.913   1.022
23719SOL    HW172996   3.861  13.873   0.982
23719SOL    HW272997   3.817  13.955   1.102
23720SOL     OW72998  13.398  14.669   9.767
23720SOL    HW172999  13.331  14.699   9.829
23720SOL    HW273000  13.429  14.749   9.724
23721SOL     OW73001  10.359  11.659   4.365
23721SOL    HW173002  10.306  11.598   4.313
23721SOL    HW273003  10.405  11.604   4.428
23722SOL     OW73004   3.322   7.263   1.419
23722SOL    HW173005   3.342   7.221   1.502
23722SOL    HW273006   3.390   7.330   1.409
23723SOL     OW73007   9.386  12.237  11.308
23723SOL    HW173008   9.408  12.149  11.280
23723SOL    HW273009   9.291  12.243  11.295
23724SOL     OW73010   1.429   7.663   9.926
23724SOL    HW173011   1.453   7.745   9.884
23724SOL    HW273012   1.512   7.622   9.950
23725SOL     OW73013  13.901   6.687   9.701
23725SOL    HW173014  13.827   6.642   9.659
23725SOL    HW273015  13.916   6.638   9.782
23726SOL     OW73016  11.988   8.572   3.261
23726SOL    HW173017  12.037   8.574   3.343
23726SOL    HW273018  12.047   8.611   3.197
23727SOL     OW73019  10.807   4.616   8.357
23727SOL    HW173020  10.836   4.551   8.293
23727SOL    HW273021  10.889   4.652   8.392
23728SOL     OW73022   4.508   1.141  11.697
23728SOL    HW173023   4.426   1.189  11.699
23728SOL    HW273024   4.545   1.158  11.610
23729SOL     OW73025   7.477  10.413  14.186
23729SOL    HW173026   7.441  10.393  14.100
23729SOL    HW273027   7.421  10.483  14.220
23730SOL     OW73028   3.913   4.377   8.917
23730SOL    HW173029   3.852   4.420   8.977
23730SOL    HW273030   3.999   4.410   8.942
23731SOL     OW73031   8.999   3.856   5.776
23731SOL    HW173032   8.925   3.819   5.825
23731SOL    HW273033   8.998   3.810   5.692
23732SOL     OW73034   4.610   4.502   3.230
23732SOL    HW173035   4.523   4.541   3.216
23732SOL    HW273036   4.669   4.577   3.233
23733SOL     OW73037   6.217   0.337   7.288
23733SOL    HW173038   6.284   0.275   7.260
23733SOL    HW273039   6.138   0.310   7.242
23734SOL     OW73040   1.067  10.997  11.595
23734SOL    HW173041   1.017  10.970  11.518
23734SOL    HW273042   1.136  11.053  11.560
23735SOL     OW73043   5.877  13.663   5.382
23735SOL    HW173044   5.887  13.731   5.316
23735SOL    HW273045   5.804  13.611   5.352
23736SOL     OW73046   2.590   0.976   5.046
23736SOL    HW173047   2.641   0.924   4.983
23736SOL    HW273048   2.594   0.925   5.127
23737SOL     OW73049   9.100   6.579  13.913
23737SOL    HW173050   9.015   6.622  13.923
23737SOL    HW273051   9.080   6.494  13.874
23738SOL     OW73052  12.822   9.533  10.012
23738SOL    HW173053  12.830   9.438  10.003
23738SOL    HW273054  12.912   9.564  10.023
23739SOL     OW73055   0.435   7.273  10.108
23739SOL    HW173056   0.371   7.278  10.179
23739SOL    HW273057   0.469   7.184  10.114
23740SOL     OW73058  11.461   4.217   6.428
23740SOL    HW173059  11.465   4.284   6.497
23740SOL    HW273060  11.380   4.169   6.445
23741SOL     OW73061  11.354   9.902  11.292
23741SOL    HW173062  11.375   9.937  11.205
23741SOL    HW273063  11.349   9.979  11.349
23742SOL     OW73064  14.707   7.775   9.385
23742SOL    HW173065  14.725   7.690   9.346
23742SOL    HW273066  14.633   7.809   9.335
23743SOL     OW73067   4.614   5.835   8.028
23743SOL    HW173068   4.634   5.928   8.029
23743SOL    HW273069   4.692   5.795   7.988
23744SOL     OW73070   1.035  14.302   7.710
23744SOL    HW173071   0.944  14.285   7.732
23744SOL    HW273072   1.068  14.356   7.782
23745SOL     OW73073   1.021   7.879   1.296
23745SOL    HW173074   1.083   7.952   1.296
23745SOL    HW273075   0.973   7.889   1.214
23746SOL     OW73076  10.632  11.988  13.434
23746SOL    HW173077  10.714  12.018  13.474
23746SOL    HW273078  10.659  11.949  13.351
23747SOL     OW73079  12.554  13.715  13.020
23747SOL    HW173080  12.619  13.778  12.990
23747SOL    HW273081  12.481  13.768  13.050
23748SOL     OW73082  10.390   3.221  13.499
23748SOL    HW173083  10.363   3.129  13.508
23748SOL    HW273084  10.309   3.269  13.485
23749SOL     OW73085  13.287   9.959   0.873
23749SOL    HW173086  13.370   9.981   0.915
23749SOL    HW273087  13.299   9.870   0.841
23750SOL     OW73088   1.825  12.773  12.192
23750SOL    HW173089   1.904  12.797  12.241
23750SOL    HW273090   1.852  12.777  12.100
23751SOL     OW73091  11.073   8.416   4.494
23751SOL    HW173092  11.151   8.365   4.517
23751SOL    HW273093  11.000   8.368   4.533
23752SOL     OW73094   7.682   7.774  11.217
23752SOL    HW173095   7.643   7.843  11.163
23752SOL    HW273096   7.771   7.805  11.235
23753SOL     OW73097  10.393  13.424   1.259
23753SOL    HW173098  10.419  13.512   1.230
23753SOL    HW273099  10.464  13.396   1.317
23754SOL     OW73100   8.611  10.379  13.481
23754SOL    HW173101   8.621  10.464  13.525
23754SOL    HW273102   8.698  10.361  13.445
23755SOL     OW73103  14.812   9.802  11.198
23755SOL    HW173104  14.813   9.790  11.293
23755SOL    HW273105   0.001   9.869  11.181
23756SOL     OW73106   1.077   3.096   9.070
23756SOL    HW173107   1.033   3.087   8.986
23756SOL    HW273108   1.016   3.058   9.134
23757SOL     OW73109   6.117  14.410   5.432
23757SOL    HW173110   6.139  14.490   5.481
23757SOL    HW273111   6.041  14.374   5.478
23758SOL     OW73112   9.271  10.287   8.904
23758SOL    HW173113   9.314  10.326   8.980
23758SOL    HW273114   9.186  10.258   8.936
23759SOL     OW73115   7.238  11.571  12.884
23759SOL    HW173116   7.249  11.506  12.953
23759SOL    HW273117   7.280  11.650  12.918
23760SOL     OW73118   4.577   7.215   3.632
23760SOL    HW173119   4.642   7.155   3.596
23760SOL    HW273120   4.579   7.291   3.575
23761SOL     OW73121   5.904   8.031   8.703
23761SOL    HW173122   5.950   8.108   8.737
23761SOL    HW273123   5.949   8.011   8.621
23762SOL     OW73124   3.454   0.305   1.987
23762SOL    HW173125   3.536   0.342   1.954
23762SOL    HW273126   3.435   0.232   1.927
23763SOL     OW73127   0.320   6.149  12.783
23763SOL    HW173128   0.410   6.118  12.774
23763SOL    HW273129   0.328   6.236  12.821
23764SOL     OW73130   6.752  10.647   2.581
23764SOL    HW173131   6.762  10.736   2.548
23764SOL    HW273132   6.725  10.596   2.505
23765SOL     OW73133   2.257  13.242   4.734
23765SOL    HW173134   2.181  13.229   4.678
23765SOL    HW273135   2.322  13.180   4.702
23766SOL     OW73136   8.662  10.157  10.149
23766SOL    HW173137   8.602  10.232  10.152
23766SOL    HW273138   8.748  10.194  10.167
23767SOL     OW73139  12.402   2.000   4.333
23767SOL    HW173140  12.466   1.934   4.305
23767SOL    HW273141  12.454   2.078   4.352
23768SOL     OW73142   4.275  10.967  11.757
23768SOL    HW173143   4.349  10.945  11.813
23768SOL    HW273144   4.280  11.062  11.747
23769SOL     OW73145   6.511  14.631   0.710
23769SOL    HW173146   6.468  14.655   0.628
23769SOL    HW273147   6.529  14.537   0.700
23770SOL     OW73148  14.615   6.904   7.028
23770SOL    HW173149  14.690   6.963   7.022
23770SOL    HW273150  14.605   6.869   6.940
23771SOL     OW73151  10.185   4.676   1.194
23771SOL    HW173152  10.256   4.627   1.153
23771SOL    HW273153  10.107   4.622   1.178
23772SOL     OW73154   7.710   6.268   9.184
23772SOL    HW173155   7.739   6.180   9.208
23772SOL    HW273156   7.655   6.255   9.107
23773SOL     OW73157  13.378   3.327  11.154
23773SOL    HW173158  13.391   3.421  11.138
23773SOL    HW273159  13.443   3.284  11.098
23774SOL     OW73160   2.140  13.485   0.664
23774SOL    HW173161   2.063  13.428   0.662
23774SOL    HW273162   2.175  13.482   0.576
23775SOL     OW73163  10.045   4.922  10.264
23775SOL    HW173164  10.077   4.951  10.178
23775SOL    HW273165  10.068   4.994  10.323
23776SOL     OW73166   7.478  14.550   6.781
23776SOL    HW173167   7.467  14.458   6.754
23776SOL    HW273168   7.401  14.594   6.744
23777SOL     OW73169   5.441  13.614   7.770
23777SOL    HW173170   5.378  13.664   7.717
23777SOL    HW273171   5.444  13.660   7.853
23778SOL     OW73172  10.752  10.283  14.736
23778SOL    HW173173  10.795  10.203  14.767
23778SOL    HW273174  10.703  10.315  14.812
23779SOL     OW73175   8.341  14.676   4.300
23779SOL    HW173176   8.364  14.695   4.391
23779SOL    HW273177   8.293  14.754   4.270
23780SOL     OW73178   4.798   3.061  13.951
23780SOL    HW173179   4.876   3.009  13.932
23780SOL    HW273180   4.830   3.152  13.954
23781SOL     OW73181   6.791   7.691   5.779
23781SOL    HW173182   6.698   7.687   5.760
23781SOL    HW273183   6.833   7.690   5.693
23782SOL     OW73184   1.252   2.718   4.682
23782SOL    HW173185   1.211   2.731   4.767
23782SOL    HW273186   1.208   2.640   4.646
23783SOL     OW73187  13.785   1.788   2.108
23783SOL    HW173188  13.840   1.862   2.131
23783SOL    HW273189  13.842   1.729   2.059
23784SOL     OW73190   7.029   8.684   0.558
23784SOL    HW173191   7.074   8.701   0.475
23784SOL    HW273192   7.086   8.721   0.625
23785SOL     OW73193   2.614   8.037   8.154
23785SOL    HW173194   2.621   8.105   8.220
23785SOL    HW273195   2.702   8.000   8.147
23786SOL     OW73196  12.441   5.817  13.757
23786SOL    HW173197  12.486   5.763  13.692
23786SOL    HW273198  12.349   5.813  13.731
23787SOL     OW73199  14.267   3.990   0.237
23787SOL    HW173200  14.266   3.989   0.333
23787SOL    HW273201  14.204   4.057   0.212
23788SOL     OW73202  14.471   4.009  14.145
23788SOL    HW173203  14.379   4.030  14.164
23788SOL    HW273204  14.520   4.080  14.186
23789SOL     OW73205   8.053   6.866   2.890
23789SOL    HW173206   8.047   6.901   2.979
23789SOL    HW273207   8.036   6.773   2.900
23790SOL     OW73208   8.070   8.146   9.634
23790SOL    HW173209   8.036   8.236   9.638
23790SOL    HW273210   8.136   8.148   9.565
23791SOL     OW73211   8.739   3.888   9.446
23791SOL    HW173212   8.651   3.869   9.478
23791SOL    HW273213   8.795   3.883   9.523
23792SOL     OW73214  12.366   9.776   6.880
23792SOL    HW173215  12.337   9.701   6.931
23792SOL    HW273216  12.461   9.769   6.878
23793SOL     OW73217   7.739   2.320  13.937
23793SOL    HW173218   7.793   2.244  13.960
23793SOL    HW273219   7.667   2.318  14.000
23794SOL     OW73220  12.491  14.521  13.922
23794SOL    HW173221  12.501  14.447  13.981
23794SOL    HW273222  12.580  14.546  13.899
23795SOL     OW73223   9.580   0.390   8.152
23795SOL    HW173224   9.611   0.477   8.178
23795SOL    HW273225   9.506   0.407   8.095
23796SOL     OW73226   9.019  14.599   9.493
23796SOL    HW173227   9.104  14.567   9.521
23796SOL    HW273228   9.026  14.607   9.398
23797SOL     OW73229  13.401   8.274  13.915
23797SOL    HW173230  13.475   8.296  13.858
23797SOL    HW273231  13.412   8.331  13.991
23798SOL     OW73232   9.810   2.428   2.828
23798SOL    HW173233   9.896   2.405   2.792
23798SOL    HW273234   9.800   2.370   2.904
23799SOL     OW73235   4.388  13.293   0.111
23799SOL    HW173236   4.368  13.361   0.047
23799SOL    HW273237   4.405  13.214   0.059
23800SOL     OW73238   8.144   7.836  14.752
23800SOL    HW173239   8.070   7.791  14.712
23800SOL    HW273240   8.177   7.775  14.818
23801SOL     OW73241  14.576   8.265  12.374
23801SOL    HW173242  14.639   8.201  12.340
23801SOL    HW273243  14.621   8.349  12.366
23802SOL     OW73244  12.895  13.414  10.852
23802SOL    HW173245  12.881  13.468  10.774
23802SOL    HW273246  12.859  13.328  10.827
23803SOL     OW73247   5.846  11.183   7.523
23803SOL    HW173248   5.755  11.212   7.526
23803SOL    HW273249   5.897  11.264   7.515
23804SOL     OW73250   6.563   0.650  10.625
23804SOL    HW173251   6.531   0.663  10.535
23804SOL    HW273252   6.658   0.657  10.618
23805SOL     OW73253   1.017   4.916   5.518
23805SOL    HW173254   1.098   4.886   5.559
23805SOL    HW273255   0.991   4.992   5.569
23806SOL     OW73256   7.729   6.031  11.453
23806SOL    HW173257   7.807   5.975  11.443
23806SOL    HW273258   7.704   6.019  11.545
23807SOL     OW73259   7.130   6.978   4.869
23807SOL    HW173260   7.170   6.946   4.950
23807SOL    HW273261   7.087   7.060   4.894
23808SOL     OW73262  14.094  10.407   3.775
23808SOL    HW173263  14.090  10.458   3.856
23808SOL    HW273264  14.169  10.443   3.727
23809SOL     OW73265   5.830  13.171   1.922
23809SOL    HW173266   5.752  13.193   1.870
23809SOL    HW273267   5.798  13.171   2.013
23810SOL     OW73268   7.717   0.284   4.064
23810SOL    HW173269   7.806   0.283   4.098
23810SOL    HW273270   7.702   0.194   4.033
23811SOL     OW73271  13.929  11.185   8.392
23811SOL    HW173272  13.889  11.140   8.318
23811SOL    HW273273  13.902  11.134   8.468
23812SOL     OW73274   6.176   0.187  13.412
23812SOL    HW173275   6.088   0.194  13.451
23812SOL    HW273276   6.177   0.101  13.370
23813SOL     OW73277   9.672   8.995   0.433
23813SOL    HW173278   9.604   9.003   0.500
23813SOL    HW273279   9.625   8.974   0.353
23814SOL     OW73280  13.632   3.431   1.280
23814SOL    HW173281  13.636   3.335   1.280
23814SOL    HW273282  13.547   3.452   1.318
23815SOL     OW73283   0.656   4.936  12.349
23815SOL    HW173284   0.571   4.975  12.331
23815SOL    HW273285   0.713   4.969  12.280
23816SOL     OW73286   2.784  13.645   0.334
23816SOL    HW173287   2.760  13.569   0.280
23816SOL    HW273288   2.878  13.634   0.350
23817SOL     OW73289   9.378   6.732   8.291
23817SOL    HW173290   9.432   6.789   8.345
23817SOL    HW273291   9.326   6.792   8.238
23818SOL     OW73292   9.260   9.103  13.125
23818SOL    HW173293   9.322   9.175  13.112
23818SOL    HW273294   9.175   9.147  13.130
23819SOL     OW73295   5.769  13.967   1.893
23819SOL    HW173296   5.734  14.055   1.887
23819SOL    HW273297   5.860  13.979   1.922
23820SOL     OW73298   9.810   7.588  11.403
23820SOL    HW173299   9.899   7.553  11.410
23820SOL    HW273300   9.769   7.566  11.486
23821SOL     OW73301   3.459   0.197   1.403
23821SOL    HW173302   3.487   0.288   1.416
23821SOL    HW273303   3.407   0.177   1.481
23822SOL     OW73304   0.851  14.428   6.068
23822SOL    HW173305   0.758  14.432   6.046
23822SOL    HW273306   0.853  14.397   6.158
23823SOL     OW73307   9.454   5.982  13.027
23823SOL    HW173308   9.420   5.963  13.115
23823SOL    HW273309   9.440   6.076  13.016
23824SOL     OW73310  12.209   0.335   9.868
23824SOL    HW173311  12.131   0.321   9.922
23824SOL    HW273312  12.198   0.275   9.794
23825SOL     OW73313  10.762   9.353   4.898
23825SOL    HW173314  10.755   9.285   4.830
23825SOL    HW273315  10.852   9.348   4.928
23826SOL     OW73316  12.313   7.163  12.003
23826SOL    HW173317  12.232   7.114  11.993
23826SOL    HW273318  12.292   7.252  11.974
23827SOL     OW73319   8.658   3.168   1.564
23827SOL    HW173320   8.682   3.083   1.527
23827SOL    HW273321   8.675   3.159   1.657
23828SOL     OW73322   5.133   6.049  11.174
23828SOL    HW173323   5.209   6.033  11.229
23828SOL    HW273324   5.110   5.963  11.138
23829SOL     OW73325   6.134   5.336  10.467
23829SOL    HW173326   6.185   5.273  10.416
23829SOL    HW273327   6.117   5.408  10.406
23830SOL     OW73328  11.149   7.436   8.811
23830SOL    HW173329  11.242   7.413   8.812
23830SOL    HW273330  11.129   7.464   8.900
23831SOL     OW73331  14.623   3.384   1.645
23831SOL    HW173332  14.628   3.298   1.603
23831SOL    HW273333  14.581   3.367   1.729
23832SOL     OW73334   5.418  13.073  14.155
23832SOL    HW173335   5.360  13.003  14.186
23832SOL    HW273336   5.454  13.112  14.235
23833SOL     OW73337   7.077   6.373   4.128
23833SOL    HW173338   7.101   6.372   4.220
23833SOL    HW273339   6.995   6.424   4.125
23834SOL     OW73340  10.855  13.560   7.693
23834SOL    HW173341  10.871  13.640   7.644
23834SOL    HW273342  10.763  13.567   7.721
23835SOL     OW73343   6.348  12.346  13.621
23835SOL    HW173344   6.273  12.384  13.667
23835SOL    HW273345   6.336  12.372  13.530
23836SOL     OW73346  14.654   4.602   8.405
23836SOL    HW173347  14.586   4.662   8.435
23836SOL    HW273348  14.725   4.659   8.376
23837SOL     OW73349   4.933   1.868   3.668
23837SOL    HW173350   4.863   1.833   3.722
23837SOL    HW273351   4.902   1.955   3.642
23838SOL     OW73352  12.172  13.050   1.595
23838SOL    HW173353  12.081  13.023   1.605
23838SOL    HW273354  12.178  13.135   1.640
23839SOL     OW73355  12.505   9.234   8.783
23839SOL    HW173356  12.515   9.326   8.806
23839SOL    HW273357  12.430   9.204   8.834
23840SOL     OW73358  12.503  10.971  10.817
23840SOL    HW173359  12.501  11.060  10.780
23840SOL    HW273360  12.445  10.976  10.893
23841SOL     OW73361   4.709   0.879   0.446
23841SOL    HW173362   4.673   0.898   0.359
23841SOL    HW273363   4.644   0.915   0.507
23842SOL     OW73364   9.320   4.588   6.531
23842SOL    HW173365   9.400   4.536   6.530
23842SOL    HW273366   9.351   4.679   6.531
23843SOL     OW73367   8.126  14.190   5.157
23843SOL    HW173368   8.058  14.161   5.217
23843SOL    HW273369   8.161  14.270   5.197
23844SOL     OW73370   8.370  13.717  10.963
23844SOL    HW173371   8.325  13.639  10.996
23844SOL    HW273372   8.422  13.686  10.889
23845SOL     OW73373  10.968   4.379   8.659
23845SOL    HW173374  10.997   4.468   8.681
23845SOL    HW273375  10.879   4.373   8.695
23846SOL     OW73376   3.676   8.413   9.302
23846SOL    HW173377   3.717   8.434   9.385
23846SOL    HW273378   3.707   8.481   9.242
23847SOL     OW73379   3.060   3.718   9.447
23847SOL    HW173380   3.044   3.808   9.421
23847SOL    HW273381   2.978   3.689   9.487
23848SOL     OW73382   7.311   0.892  13.121
23848SOL    HW173383   7.373   0.893  13.194
23848SOL    HW273384   7.364   0.866  13.046
23849SOL     OW73385   9.466   1.436   5.193
23849SOL    HW173386   9.416   1.517   5.191
23849SOL    HW273387   9.542   1.456   5.249
23850SOL     OW73388   5.737   2.765   7.263
23850SOL    HW173389   5.688   2.734   7.339
23850SOL    HW273390   5.746   2.859   7.277
23851SOL     OW73391   5.019   6.015   0.050
23851SOL    HW173392   4.951   6.074   0.017
23851SOL    HW273393   5.092   6.073   0.073
23852SOL     OW73394   6.214  11.157   4.634
23852SOL    HW173395   6.199  11.063   4.642
23852SOL    HW273396   6.244  11.169   4.544
23853SOL     OW73397   1.142   6.329   2.533
23853SOL    HW173398   1.101   6.248   2.502
23853SOL    HW273399   1.150   6.384   2.456
23854SOL     OW73400   7.428   1.143   0.314
23854SOL    HW173401   7.414   1.200   0.237
23854SOL    HW273402   7.448   1.204   0.385
23855SOL     OW73403   9.009   3.192   6.746
23855SOL    HW173404   8.920   3.184   6.713
23855SOL    HW273405   9.061   3.215   6.669
23856SOL     OW73406   3.589   5.528   3.189
23856SOL    HW173407   3.511   5.484   3.156
23856SOL    HW273408   3.598   5.498   3.280
23857SOL     OW73409   1.258   5.815   4.530
23857SOL    HW173410   1.188   5.752   4.509
23857SOL    HW273411   1.304   5.828   4.447
23858SOL     OW73412  14.070   0.895   9.695
23858SOL    HW173413  14.115   0.835   9.755
23858SOL    HW273414  14.074   0.852   9.610
23859SOL     OW73415   0.860   1.963   0.208
23859SOL    HW173416   0.872   1.947   0.302
23859SOL    HW273417   0.866   2.058   0.199
23860SOL     OW73418  10.441   9.930   4.179
23860SOL    HW173419  10.492   9.857   4.145
23860SOL    HW273420  10.361   9.889   4.213
23861SOL     OW73421  14.781   4.396  10.830
23861SOL    HW173422  14.713   4.442  10.877
23861SOL    HW273423  14.775   4.428  10.740
23862SOL     OW73424   7.932   8.438  12.997
23862SOL    HW173425   7.923   8.359  13.049
23862SOL    HW273426   7.906   8.412  12.908
23863SOL     OW73427   8.596   0.727  13.834
23863SOL    HW173428   8.680   0.689  13.861
23863SOL    HW273429   8.543   0.651  13.808
23864SOL     OW73430   6.294   4.154   0.238
23864SOL    HW173431   6.316   4.089   0.173
23864SOL    HW273432   6.331   4.121   0.320
23865SOL     OW73433  12.310  12.596   9.331
23865SOL    HW173434  12.268  12.533   9.390
23865SOL    HW273435  12.403  12.584   9.346
23866SOL     OW73436   4.319  11.736   8.562
23866SOL    HW173437   4.388  11.688   8.516
23866SOL    HW273438   4.292  11.677   8.632
23867SOL     OW73439   2.867   0.322   6.060
23867SOL    HW173440   2.869   0.396   6.120
23867SOL    HW273441   2.794   0.340   6.001
23868SOL     OW73442   2.234  14.283   5.399
23868SOL    HW173443   2.195  14.238   5.324
23868SOL    HW273444   2.310  14.330   5.363
23869SOL     OW73445  11.297   7.018  13.799
23869SOL    HW173446  11.270   6.927  13.803
23869SOL    HW273447  11.215   7.068  13.805
23870SOL     OW73448   0.841  13.724   8.368
23870SOL    HW173449   0.873  13.742   8.280
23870SOL    HW273450   0.920  13.711   8.421
23871SOL     OW73451   0.950   0.729  11.988
23871SOL    HW173452   0.908   0.644  12.000
23871SOL    HW273453   1.036   0.709  11.952
23872SOL     OW73454  10.520   9.320   9.922
23872SOL    HW173455  10.533   9.259   9.849
23872SOL    HW273456  10.541   9.406   9.885
23873SOL     OW73457   5.159  13.551   9.650
23873SOL    HW173458   5.202  13.628   9.687
23873SOL    HW273459   5.066  13.565   9.668
23874SOL     OW73460   0.905   5.502   2.059
23874SOL    HW173461   0.929   5.413   2.086
23874SOL    HW273462   0.880   5.545   2.141
23875SOL     OW73463   0.513   6.223   3.944
23875SOL    HW173464   0.457   6.266   4.008
23875SOL    HW273465   0.524   6.134   3.976
23876SOL     OW73466  10.846   2.184   6.780
23876SOL    HW173467  10.879   2.254   6.836
23876SOL    HW273468  10.893   2.106   6.810
23877SOL     OW73469   6.937  13.819   6.166
23877SOL    HW173470   6.962  13.880   6.236
23877SOL    HW273471   7.015  13.814   6.111
23878SOL     OW73472  12.865   5.772   3.029
23878SOL    HW173473  12.822   5.695   2.994
23878SOL    HW273474  12.840   5.774   3.121
23879SOL     OW73475   5.269   6.425  14.556
23879SOL    HW173476   5.191   6.413  14.502
23879SOL    HW273477   5.240   6.406  14.645
23880SOL     OW73478   2.906   0.611   6.842
23880SOL    HW173479   2.896   0.704   6.825
23880SOL    HW273480   2.817   0.577   6.847
23881SOL     OW73481   0.977   7.789   0.161
23881SOL    HW173482   1.003   7.697   0.160
23881SOL    HW273483   0.897   7.792   0.108
23882SOL     OW73484   3.137   4.655   5.787
23882SOL    HW173485   3.131   4.734   5.733
23882SOL    HW273486   3.067   4.664   5.851
23883SOL     OW73487   2.427   2.687  12.702
23883SOL    HW173488   2.467   2.762  12.658
23883SOL    HW273489   2.409   2.625  12.632
23884SOL     OW73490   9.114  10.958  11.841
23884SOL    HW173491   9.155  11.038  11.809
23884SOL    HW273492   9.104  10.903  11.763
23885SOL     OW73493   2.287   0.643   2.726
23885SOL    HW173494   2.260   0.734   2.720
23885SOL    HW273495   2.263   0.616   2.815
23886SOL     OW73496  14.309   0.600   7.044
23886SOL    HW173497  14.381   0.599   6.981
23886SOL    HW273498  14.292   0.693   7.059
23887SOL     OW73499   9.743  12.304   9.543
23887SOL    HW173500   9.824  12.277   9.500
23887SOL    HW273501   9.707  12.371   9.485
23888SOL     OW73502   7.435  13.953  10.192
23888SOL    HW173503   7.474  13.975  10.277
23888SOL    HW273504   7.341  13.965  10.204
23889SOL     OW73505   7.544  14.088   5.436
23889SOL    HW173506   7.449  14.093   5.442
23889SOL    HW273507   7.574  14.082   5.526
23890SOL     OW73508   7.177   2.403   4.737
23890SOL    HW173509   7.225   2.482   4.713
23890SOL    HW273510   7.172   2.351   4.657
23891SOL     OW73511   1.217  13.631   9.171
23891SOL    HW173512   1.300  13.626   9.218
23891SOL    HW273513   1.152  13.648   9.239
23892SOL     OW73514   4.113   0.584   3.542
23892SOL    HW173515   4.125   0.523   3.615
23892SOL    HW273516   4.040   0.546   3.492
23893SOL     OW73517  10.984   8.653   8.090
23893SOL    HW173518  11.073   8.683   8.108
23893SOL    HW273519  10.962   8.692   8.006
23894SOL     OW73520   2.238   8.673   5.208
23894SOL    HW173521   2.317   8.624   5.230
23894SOL    HW273522   2.268   8.737   5.143
23895SOL     OW73523   8.055  13.574  13.114
23895SOL    HW173524   8.132  13.632  13.110
23895SOL    HW273525   8.076  13.503  13.054
23896SOL     OW73526   6.868   6.102  13.743
23896SOL    HW173527   6.938   6.048  13.705
23896SOL    HW273528   6.914   6.169  13.793
23897SOL     OW73529   8.873  13.263  10.833
23897SOL    HW173530   8.841  13.193  10.890
23897SOL    HW273531   8.805  13.330  10.838
23898SOL     OW73532   3.092   2.856   7.597
23898SOL    HW173533   3.169   2.910   7.579
23898SOL    HW273534   3.128   2.775   7.632
23899SOL     OW73535   9.823   3.192   7.476
23899SOL    HW173536   9.903   3.152   7.509
23899SOL    HW273537   9.759   3.121   7.475
23900SOL     OW73538   3.500  12.180   2.356
23900SOL    HW173539   3.454  12.096   2.355
23900SOL    HW273540   3.593  12.156   2.351
23901SOL     OW73541   7.117  11.934  13.020
23901SOL    HW173542   7.030  11.907  13.046
23901SOL    HW273543   7.162  11.953  13.102
23902SOL     OW73544   6.824   2.767   9.946
23902SOL    HW173545   6.882   2.807   9.881
23902SOL    HW273546   6.863   2.790  10.030
23903SOL     OW73547   4.382   6.820   6.563
23903SOL    HW173548   4.344   6.756   6.623
23903SOL    HW273549   4.421   6.886   6.620
23904SOL     OW73550  11.457   8.336   6.204
23904SOL    HW173551  11.487   8.320   6.293
23904SOL    HW273552  11.393   8.266   6.188
23905SOL     OW73553   2.359   1.090   8.378
23905SOL    HW173554   2.426   1.142   8.334
23905SOL    HW273555   2.323   1.033   8.310
23906SOL     OW73556   3.367  13.992   3.280
23906SOL    HW173557   3.395  13.975   3.370
23906SOL    HW273558   3.412  13.925   3.228
23907SOL     OW73559  10.356   8.919  11.339
23907SOL    HW173560  10.345   9.010  11.366
23907SOL    HW273561  10.346   8.868  11.419
23908SOL     OW73562  14.134   0.227   4.732
23908SOL    HW173563  14.127   0.320   4.756
23908SOL    HW273564  14.048   0.206   4.694
23909SOL     OW73565   3.752   9.940   0.176
23909SOL    HW173566   3.686   9.997   0.215
23909SOL    HW273567   3.828   9.996   0.164
23910SOL     OW73568   9.915  13.493  10.353
23910SOL    HW173569   9.858  13.544  10.411
23910SOL    HW273570   9.870  13.409  10.344
23911SOL     OW73571   2.682   7.558  12.284
23911SOL    HW173572   2.650   7.494  12.221
23911SOL    HW273573   2.777   7.555  12.276
23912SOL     OW73574  11.220  10.185   2.336
23912SOL    HW173575  11.209  10.169   2.430
23912SOL    HW273576  11.260  10.272   2.332
23913SOL     OW73577  10.565   0.254   3.125
23913SOL    HW173578  10.533   0.164   3.126
23913SOL    HW273579  10.520   0.295   3.051
23914SOL     OW73580   9.259  13.028  11.245
23914SOL    HW173581   9.286  12.986  11.326
23914SOL    HW273582   9.166  13.010  11.238
23915SOL     OW73583   8.109   0.781   6.069
23915SOL    HW173584   8.052   0.799   6.145
23915SOL    HW273585   8.117   0.685   6.068
23916SOL     OW73586   6.006   9.812   1.485
23916SOL    HW173587   6.033   9.853   1.403
23916SOL    HW273588   6.088   9.792   1.530
23917SOL     OW73589  12.550   8.390   0.706
23917SOL    HW173590  12.521   8.457   0.645
23917SOL    HW273591  12.538   8.429   0.792
23918SOL     OW73592  11.094  12.440  12.189
23918SOL    HW173593  11.053  12.485  12.263
23918SOL    HW273594  11.077  12.347  12.205
23919SOL     OW73595  11.944   1.130  11.447
23919SOL    HW173596  11.994   1.169  11.376
23919SOL    HW273597  11.901   1.204  11.490
23920SOL     OW73598   1.491   8.555   4.058
23920SOL    HW173599   1.496   8.472   4.106
23920SOL    HW273600   1.491   8.529   3.966
23921SOL     OW73601   8.561   9.623   4.582
23921SOL    HW173602   8.504   9.656   4.513
23921SOL    HW273603   8.646   9.664   4.565
23922SOL     OW73604   9.134   0.429   7.635
23922SOL    HW173605   9.122   0.342   7.596
23922SOL    HW273606   9.048   0.469   7.631
23923SOL     OW73607   4.608  13.459   3.046
23923SOL    HW173608   4.564  13.388   3.092
23923SOL    HW273609   4.601  13.534   3.106
23924SOL     OW73610   1.764   1.150  12.917
23924SOL    HW173611   1.671   1.173  12.922
23924SOL    HW273612   1.765   1.055  12.911
23925SOL     OW73613   4.710   8.859   8.085
23925SOL    HW173614   4.632   8.914   8.081
23925SOL    HW273615   4.760   8.883   8.007
23926SOL     OW73616   0.978   8.704   9.739
23926SOL    HW173617   0.951   8.614   9.762
23926SOL    HW273618   1.073   8.701   9.740
23927SOL     OW73619   8.650   4.673   8.059
23927SOL    HW173620   8.626   4.716   8.140
23927SOL    HW273621   8.642   4.741   7.992
23928SOL     OW73622   0.408   4.136   6.194
23928SOL    HW173623   0.439   4.218   6.155
23928SOL    HW273624   0.463   4.069   6.155
23929SOL     OW73625   5.450   5.417   5.053
23929SOL    HW173626   5.379   5.353   5.055
23929SOL    HW273627   5.521   5.375   5.101
23930SOL     OW73628   4.759   0.594   1.880
23930SOL    HW173629   4.708   0.644   1.817
23930SOL    HW273630   4.778   0.657   1.950
23931SOL     OW73631  13.358  12.792  10.853
23931SOL    HW173632  13.286  12.781  10.915
23931SOL    HW273633  13.364  12.709  10.807
23932SOL     OW73634  12.449   6.317   8.319
23932SOL    HW173635  12.449   6.345   8.227
23932SOL    HW273636  12.361   6.281   8.332
23933SOL     OW73637   7.736   5.326   0.969
23933SOL    HW173638   7.800   5.382   1.013
23933SOL    HW273639   7.752   5.339   0.876
23934SOL     OW73640  14.730  11.124   9.884
23934SOL    HW173641  14.824  11.109   9.871
23934SOL    HW273642  14.692  11.115   9.797
23935SOL     OW73643  14.171  10.751   3.643
23935SOL    HW173644  14.226  10.829   3.647
23935SOL    HW273645  14.231  10.678   3.659
23936SOL     OW73646   0.058   1.228   8.487
23936SOL    HW173647   0.119   1.248   8.416
23936SOL    HW273648  14.851   1.265   8.458
23937SOL     OW73649   5.150   8.622   7.965
23937SOL    HW173650   5.208   8.557   7.924
23937SOL    HW273651   5.131   8.585   8.051
23938SOL     OW73652  14.140   0.587  14.545
23938SOL    HW173653  14.113   0.676  14.523
23938SOL    HW273654  14.211   0.567  14.485
23939SOL     OW73655   0.721   0.862  14.140
23939SOL    HW173656   0.632   0.833  14.161
23939SOL    HW273657   0.765   0.868  14.225
23940SOL     OW73658   2.797  12.631  14.297
23940SOL    HW173659   2.844  12.655  14.377
23940SOL    HW273660   2.731  12.568  14.325
23941SOL     OW73661  13.882   0.727   6.531
23941SOL    HW173662  13.946   0.737   6.602
23941SOL    HW273663  13.798   0.716   6.575
23942SOL     OW73664   9.173   3.610   6.762
23942SOL    HW173665   9.211   3.691   6.796
23942SOL    HW273666   9.110   3.583   6.829
23943SOL     OW73667   0.589   2.930   2.877
23943SOL    HW173668   0.634   3.015   2.878
23943SOL    HW273669   0.559   2.920   2.787
23944SOL     OW73670  13.549   8.428   2.939
23944SOL    HW173671  13.598   8.484   2.999
23944SOL    HW273672  13.575   8.457   2.852
23945SOL     OW73673   2.869   5.896   5.965
23945SOL    HW173674   2.908   5.965   5.912
23945SOL    HW273675   2.833   5.942   6.041
23946SOL     OW73676   2.650  10.507   7.900
23946SOL    HW173677   2.660  10.527   7.993
23946SOL    HW273678   2.655  10.411   7.896
23947SOL     OW73679   7.419  14.466   2.209
23947SOL    HW173680   7.478  14.497   2.277
23947SOL    HW273681   7.331  14.482   2.243
23948SOL     OW73682   5.815   1.887   0.817
23948SOL    HW173683   5.728   1.900   0.780
23948SOL    HW273684   5.799   1.875   0.911
23949SOL     OW73685   0.589  10.911  10.636
23949SOL    HW173686   0.677  10.929  10.670
23949SOL    HW273687   0.554  10.845  10.695
23950SOL     OW73688  14.520   7.200  11.530
23950SOL    HW173689  14.596   7.252  11.557
23950SOL    HW273690  14.446   7.241  11.575
23951SOL     OW73691   7.558   9.527  12.976
23951SOL    HW173692   7.586   9.485  12.895
23951SOL    HW273693   7.635   9.574  13.007
23952SOL     OW73694   9.386  10.449   7.265
23952SOL    HW173695   9.355  10.446   7.174
23952SOL    HW273696   9.314  10.414   7.316
23953SOL     OW73697  13.207  11.938   1.021
23953SOL    HW173698  13.133  11.999   1.012
23953SOL    HW273699  13.277  11.978   0.970
23954SOL     OW73700   8.648   4.059   0.112
23954SOL    HW173701   8.583   4.004   0.156
23954SOL    HW273702   8.609   4.147   0.112
23955SOL     OW73703   1.802   5.911   2.779
23955SOL    HW173704   1.775   5.967   2.706
23955SOL    HW273705   1.891   5.885   2.758
23956SOL     OW73706   0.016  10.264  13.720
23956SOL    HW173707   0.109  10.253  13.736
23956SOL    HW273708  14.859  10.306  13.799
23957SOL     OW73709  10.250   5.009   3.719
23957SOL    HW173710  10.235   4.915   3.714
23957SOL    HW273711  10.325   5.025   3.661
23958SOL     OW73712  12.060  13.005   5.656
23958SOL    HW173713  11.998  12.977   5.589
23958SOL    HW273714  12.142  12.962   5.633
23959SOL     OW73715   4.776   8.029   5.721
23959SOL    HW173716   4.859   8.029   5.768
23959SOL    HW273717   4.745   8.120   5.726
23960SOL     OW73718  10.002   0.291   7.205
23960SOL    HW173719   9.976   0.364   7.150
23960SOL    HW273720  10.089   0.266   7.173
23961SOL     OW73721   3.361  11.802  13.797
23961SOL    HW173722   3.327  11.868  13.858
23961SOL    HW273723   3.366  11.847  13.713
23962SOL     OW73724   9.914   6.173   9.063
23962SOL    HW173725   9.893   6.260   9.097
23962SOL    HW273726   9.999   6.184   9.021
23963SOL     OW73727   2.850   3.196   9.284
23963SOL    HW173728   2.881   3.250   9.211
23963SOL    HW273729   2.916   3.127   9.292
23964SOL     OW73730   3.124   0.689   8.166
23964SOL    HW173731   3.156   0.662   8.252
23964SOL    HW273732   3.107   0.783   8.175
23965SOL     OW73733   3.624  12.382  11.490
23965SOL    HW173734   3.577  12.440  11.430
23965SOL    HW273735   3.711  12.373  11.452
23966SOL     OW73736   2.238  10.770   5.837
23966SOL    HW173737   2.331  10.793   5.831
23966SOL    HW273738   2.211  10.756   5.746
23967SOL     OW73739   5.489  14.223  11.468
23967SOL    HW173740   5.524  14.286  11.531
23967SOL    HW273741   5.494  14.139  11.513
23968SOL     OW73742   8.288   6.595   4.507
23968SOL    HW173743   8.358   6.632   4.454
23968SOL    HW273744   8.299   6.500   4.500
23969SOL     OW73745  10.834   3.975   6.098
23969SOL    HW173746  10.824   4.068   6.115
23969SOL    HW273747  10.785   3.960   6.017
23970SOL     OW73748   2.204   5.110   0.039
23970SOL    HW173749   2.266   5.039   0.055
23970SOL    HW273750   2.240   5.185   0.087
23971SOL     OW73751   3.236   2.483   6.665
23971SOL    HW173752   3.259   2.567   6.624
23971SOL    HW273753   3.319   2.449   6.698
23972SOL     OW73754   6.090   6.115  13.173
23972SOL    HW173755   6.111   6.159  13.091
23972SOL    HW273756   5.998   6.137  13.189
23973SOL     OW73757   0.724   7.725  13.362
23973SOL    HW173758   0.761   7.744  13.276
23973SOL    HW273759   0.783   7.769  13.423
23974SOL     OW73760   2.098   3.786  12.525
23974SOL    HW173761   2.011   3.826  12.532
23974SOL    HW273762   2.127   3.806  12.436
23975SOL     OW73763   6.264  14.189   3.299
23975SOL    HW173764   6.195  14.192   3.232
23975SOL    HW273765   6.331  14.132   3.262
23976SOL     OW73766   6.983   7.179   2.995
23976SOL    HW173767   6.987   7.271   2.969
23976SOL    HW273768   6.986   7.131   2.913
23977SOL     OW73769   5.200   8.801   3.084
23977SOL    HW173770   5.262   8.732   3.061
23977SOL    HW273771   5.252   8.881   3.090
23978SOL     OW73772   1.694  13.804   7.796
23978SOL    HW173773   1.730  13.856   7.868
23978SOL    HW273774   1.733  13.718   7.806
23979SOL     OW73775  11.258  13.884   5.260
23979SOL    HW173776  11.215  13.885   5.174
23979SOL    HW273777  11.273  13.977   5.280
23980SOL     OW73778   8.150   8.665  13.358
23980SOL    HW173779   8.203   8.624  13.426
23980SOL    HW273780   8.088   8.720  13.405
23981SOL     OW73781   9.427   6.233   2.351
23981SOL    HW173782   9.414   6.144   2.384
23981SOL    HW273783   9.488   6.272   2.413
23982SOL     OW73784  14.823   7.923   7.178
23982SOL    HW173785   0.031   7.955   7.213
23982SOL    HW273786  14.846   7.883   7.095
23983SOL     OW73787   1.238   6.346   9.129
23983SOL    HW173788   1.192   6.276   9.176
23983SOL    HW273789   1.302   6.301   9.074
23984SOL     OW73790   0.366   0.633   1.515
23984SOL    HW173791   0.361   0.674   1.602
23984SOL    HW273792   0.302   0.562   1.518
23985SOL     OW73793  11.301   8.775   1.836
23985SOL    HW173794  11.314   8.829   1.759
23985SOL    HW273795  11.386   8.732   1.850
23986SOL     OW73796  13.033   7.705  10.952
23986SOL    HW173797  13.002   7.784  10.996
23986SOL    HW273798  13.077   7.655  11.020
23987SOL     OW73799  13.499   9.266   1.095
23987SOL    HW173800  13.548   9.252   1.176
23987SOL    HW273801  13.419   9.311   1.124
23988SOL     OW73802  11.353   7.033   0.446
23988SOL    HW173803  11.445   7.052   0.426
23988SOL    HW273804  11.314   7.119   0.462
23989SOL     OW73805   0.186  10.140  14.187
23989SOL    HW173806   0.227  10.226  14.199
23989SOL    HW273807   0.092  10.156  14.200
23990SOL     OW73808  13.065  11.537  13.732
23990SOL    HW173809  13.008  11.602  13.693
23990SOL    HW273810  13.009  11.460  13.744
23991SOL     OW73811  11.654   6.307   6.009
23991SOL    HW173812  11.662   6.378   5.945
23991SOL    HW273813  11.622   6.350   6.088
23992SOL     OW73814   9.071  14.043   7.934
23992SOL    HW173815   9.086  14.118   7.991
23992SOL    HW273816   9.063  14.081   7.846
23993SOL     OW73817  11.314   2.756   1.678
23993SOL    HW173818  11.234   2.716   1.642
23993SOL    HW273819  11.372   2.682   1.695
23994SOL     OW73820   6.885   7.806  11.726
23994SOL    HW173821   6.921   7.736  11.672
23994SOL    HW273822   6.960   7.842  11.773
23995SOL     OW73823  14.621   5.895   5.550
23995SOL    HW173824  14.563   5.965   5.520
23995SOL    HW273825  14.671   5.934   5.622
23996SOL     OW73826   2.600  10.081   1.374
23996SOL    HW173827   2.603  10.130   1.456
23996SOL    HW273828   2.510  10.050   1.367
23997SOL     OW73829  12.943   8.459  10.548
23997SOL    HW173830  13.013   8.395  10.562
23997SOL    HW273831  12.864   8.407  10.538
23998SOL     OW73832  13.380  13.727   1.183
23998SOL    HW173833  13.432  13.650   1.160
23998SOL    HW273834  13.309  13.693   1.238
23999SOL     OW73835   2.144  11.879   7.103
23999SOL    HW173836   2.051  11.889   7.082
23999SOL    HW273837   2.160  11.784   7.098
24000SOL     OW73838   8.233   1.340  13.829
24000SOL    HW173839   8.288   1.294  13.892
24000SOL    HW273840   8.291   1.355  13.754
24001SOL     OW73841   4.000   5.547  13.195
24001SOL    HW173842   3.908   5.534  13.219
24001SOL    HW273843   4.034   5.459  13.181
24002SOL     OW73844   8.952   7.094  12.942
24002SOL    HW173845   9.005   7.047  12.879
24002SOL    HW273846   8.933   7.029  13.011
24003SOL     OW73847   7.814   2.165   2.309
24003SOL    HW173848   7.882   2.219   2.267
24003SOL    HW273849   7.731   2.203   2.279
24004SOL     OW73850   3.059  14.100   5.472
24004SOL    HW173851   3.083  14.123   5.562
24004SOL    HW273852   3.120  14.030   5.449
24005SOL     OW73853   3.840   0.366  11.477
24005SOL    HW173854   3.758   0.413  11.459
24005SOL    HW273855   3.909   0.432  11.465
24006SOL     OW73856   5.128  10.974  12.318
24006SOL    HW173857   5.188  10.901  12.300
24006SOL    HW273858   5.064  10.938  12.379
24007SOL     OW73859  10.167  10.227   5.363
24007SOL    HW173860  10.105  10.197   5.429
24007SOL    HW273861  10.251  10.193   5.392
24008SOL     OW73862   8.592   6.197   6.910
24008SOL    HW173863   8.551   6.171   6.992
24008SOL    HW273864   8.678   6.229   6.935
24009SOL     OW73865  13.441   1.046   8.408
24009SOL    HW173866  13.376   1.058   8.478
24009SOL    HW273867  13.393   1.067   8.328
24010SOL     OW73868   4.793  14.627  10.400
24010SOL    HW173869   4.884  14.610  10.378
24010SOL    HW273870   4.758  14.542  10.425
24011SOL     OW73871   5.329  11.431  12.155
24011SOL    HW173872   5.330  11.356  12.215
24011SOL    HW273873   5.244  11.427  12.112
24012SOL     OW73874   4.335   5.178   3.055
24012SOL    HW173875   4.413   5.223   3.024
24012SOL    HW273876   4.309   5.122   2.982
24013SOL     OW73877  11.810  14.432  11.157
24013SOL    HW173878  11.903  14.435  11.132
24013SOL    HW273879  11.769  14.498  11.100
24014SOL     OW73880  10.256   0.379  14.117
24014SOL    HW173881  10.164   0.357  14.113
24014SOL    HW273882  10.278   0.404  14.027
24015SOL     OW73883   8.758   9.175   3.909
24015SOL    HW173884   8.754   9.145   4.000
24015SOL    HW273885   8.848   9.203   3.897
24016SOL     OW73886   3.427   0.304   1.118
24016SOL    HW173887   3.413   0.259   1.201
24016SOL    HW273888   3.479   0.381   1.140
24017SOL     OW73889  11.380  13.070   4.491
24017SOL    HW173890  11.452  13.113   4.444
24017SOL    HW273891  11.420  12.991   4.528
24018SOL     OW73892  10.114   8.097  11.299
24018SOL    HW173893  10.130   8.192  11.293
24018SOL    HW273894  10.142   8.063  11.214
24019SOL     OW73895   1.343  11.589   7.670
24019SOL    HW173896   1.428  11.552   7.695
24019SOL    HW273897   1.318  11.539   7.592
24020SOL     OW73898   4.738   7.122   1.286
24020SOL    HW173899   4.707   7.213   1.290
24020SOL    HW273900   4.671   7.077   1.234
24021SOL     OW73901   4.939  11.097   0.754
24021SOL    HW173902   4.948  11.008   0.719
24021SOL    HW273903   4.846  11.117   0.744
24022SOL     OW73904   6.531  14.776  12.043
24022SOL    HW173905   6.568  14.864  12.048
24022SOL    HW273906   6.543  14.750  11.952
24023SOL     OW73907   7.496   1.963   0.208
24023SOL    HW173908   7.529   1.944   0.121
24023SOL    HW273909   7.401   1.953   0.202
24024SOL     OW73910  11.746  10.815  12.689
24024SOL    HW173911  11.709  10.800  12.602
24024SOL    HW273912  11.675  10.794  12.749
24025SOL     OW73913   3.180   5.272   8.093
24025SOL    HW173914   3.253   5.255   8.153
24025SOL    HW273915   3.220   5.279   8.007
24026SOL     OW73916   8.864   0.941   5.822
24026SOL    HW173917   8.927   1.006   5.790
24026SOL    HW273918   8.801   0.992   5.872
24027SOL     OW73919   5.739   9.939   8.153
24027SOL    HW173920   5.753   9.914   8.061
24027SOL    HW273921   5.691  10.022   8.148
24028SOL     OW73922  10.459   1.888   5.457
24028SOL    HW173923  10.438   1.798   5.432
24028SOL    HW273924  10.552   1.886   5.480
24029SOL     OW73925   4.949   3.678   2.346
24029SOL    HW173926   4.943   3.598   2.293
24029SOL    HW273927   4.882   3.667   2.412
24030SOL     OW73928  10.278   3.173   2.925
24030SOL    HW173929  10.286   3.171   3.020
24030SOL    HW273930  10.218   3.246   2.908
24031SOL     OW73931   8.780   9.833  14.436
24031SOL    HW173932   8.716   9.891  14.395
24031SOL    HW273933   8.729   9.783  14.501
24032SOL     OW73934  10.780   8.534   2.659
24032SOL    HW173935  10.688   8.558   2.647
24032SOL    HW273936  10.778   8.440   2.678
24033SOL     OW73937   9.213   0.383   2.179
24033SOL    HW173938   9.224   0.311   2.117
24033SOL    HW273939   9.298   0.391   2.222
24034SOL     OW73940   3.844   0.417   1.443
24034SOL    HW173941   3.922   0.382   1.485
24034SOL    HW273942   3.847   0.385   1.353
24035SOL     OW73943   0.262   9.002   0.439
24035SOL    HW173944   0.284   9.083   0.485
24035SOL    HW273945   0.301   8.933   0.493
24036SOL     OW73946  14.440   2.804  10.520
24036SOL    HW173947  14.472   2.826  10.608
24036SOL    HW273948  14.345   2.813  10.527
24037SOL     OW73949   3.369  14.838   5.504
24037SOL    HW173950   3.318   0.024   5.557
24037SOL    HW273951   3.350  14.753   5.544
24038SOL     OW73952   1.406   5.179   4.220
24038SOL    HW173953   1.447   5.151   4.138
24038SOL    HW273954   1.479   5.212   4.273
24039SOL     OW73955   4.581  11.502   1.137
24039SOL    HW173956   4.663  11.484   1.091
24039SOL    HW273957   4.529  11.554   1.076
24040SOL     OW73958   5.416   7.794   4.927
24040SOL    HW173959   5.332   7.832   4.953
24040SOL    HW273960   5.399   7.755   4.842
24041SOL     OW73961  10.444  12.375   1.623
24041SOL    HW173962  10.496  12.450   1.595
24041SOL    HW273963  10.460  12.308   1.557
24042SOL     OW73964   5.334   6.670  10.640
24042SOL    HW173965   5.343   6.604  10.571
24042SOL    HW273966   5.345   6.753  10.595
24043SOL     OW73967  10.133  14.257   2.682
24043SOL    HW173968  10.043  14.252   2.716
24043SOL    HW273969  10.122  14.259   2.587
24044SOL     OW73970   8.194   3.706  12.241
24044SOL    HW173971   8.240   3.645  12.298
24044SOL    HW273972   8.127   3.746  12.297
24045SOL     OW73973   4.054   9.902  13.551
24045SOL    HW173974   4.002   9.982  13.543
24045SOL    HW273975   4.054   9.865  13.462
24046SOL     OW73976  13.072  14.846  11.467
24046SOL    HW173977  13.114   0.034  11.410
24046SOL    HW273978  13.002   0.019  11.511
24047SOL     OW73979  12.363   7.738   7.497
24047SOL    HW173980  12.375   7.833   7.497
24047SOL    HW273981  12.416   7.707   7.423
24048SOL     OW73982   9.007  12.729   6.101
24048SOL    HW173983   9.065  12.780   6.157
24048SOL    HW273984   8.937  12.790   6.077
24049SOL     OW73985   4.863  12.596  13.837
24049SOL    HW173986   4.895  12.674  13.793
24049SOL    HW273987   4.776  12.619  13.869
24050SOL     OW73988   8.066   2.279  14.258
24050SOL    HW173989   7.998   2.314  14.316
24050SOL    HW273990   8.065   2.185  14.275
24051SOL     OW73991  11.629   6.783  14.440
24051SOL    HW173992  11.714   6.758  14.404
24051SOL    HW273993  11.644   6.788  14.535
24052SOL     OW73994   2.457  13.799   2.639
24052SOL    HW173995   2.491  13.886   2.615
24052SOL    HW273996   2.377  13.818   2.689
24053SOL     OW73997   2.026   7.157   2.171
24053SOL    HW173998   1.988   7.223   2.228
24053SOL    HW273999   1.984   7.171   2.086
24054SOL     OW74000   0.826  12.881   3.297
24054SOL    HW174001   0.896  12.823   3.328
24054SOL    HW274002   0.761  12.822   3.259
24055SOL     OW74003   8.388   4.750   8.986
24055SOL    HW174004   8.448   4.801   9.041
24055SOL    HW274005   8.305   4.753   9.033
24056SOL     OW74006   1.526   4.413   7.606
24056SOL    HW174007   1.483   4.493   7.633
24056SOL    HW274008   1.456   4.348   7.601
24057SOL     OW74009  10.022   2.222   0.113
24057SOL    HW174010  10.059   2.286   0.175
24057SOL    HW274011  10.022   2.268   0.029
24058SOL     OW74012  14.584   8.746  12.421
24058SOL    HW174013  14.490   8.730  12.410
24058SOL    HW274014  14.589   8.834  12.456
24059SOL     OW74015  12.134   0.073   4.570
24059SOL    HW174016  12.094   0.123   4.641
24059SOL    HW274017  12.137   0.135   4.497
24060SOL     OW74018   6.206   7.242   8.784
24060SOL    HW174019   6.182   7.165   8.731
24060SOL    HW274020   6.124   7.272   8.822
24061SOL     OW74021   8.499  10.389  10.218
24061SOL    HW174022   8.449  10.468  10.197
24061SOL    HW274023   8.542  10.409  10.301
24062SOL     OW74024   8.980   6.058  11.489
24062SOL    HW174025   8.941   6.061  11.402
24062SOL    HW274026   9.074   6.055  11.474
24063SOL     OW74027  13.195   6.204  14.502
24063SOL    HW174028  13.101   6.220  14.491
24063SOL    HW274029  13.203   6.109  14.509
24064SOL     OW74030  11.590   4.922  13.900
24064SOL    HW174031  11.603   4.840  13.852
24064SOL    HW274032  11.594   4.990  13.833
24065SOL     OW74033  12.207   9.534   9.599
24065SOL    HW174034  12.249   9.610   9.560
24065SOL    HW274035  12.149   9.500   9.530
24066SOL     OW74036   9.997   4.867   6.844
24066SOL    HW174037  10.003   4.845   6.751
24066SOL    HW274038  10.000   4.783   6.889
24067SOL     OW74039   9.449  11.214   7.940
24067SOL    HW174040   9.436  11.176   7.854
24067SOL    HW274041   9.503  11.292   7.924
24068SOL     OW74042  12.179   5.233  13.602
24068SOL    HW174043  12.135   5.148  13.612
24068SOL    HW274044  12.242   5.219  13.531
24069SOL     OW74045  14.524   2.064  13.403
24069SOL    HW174046  14.485   2.101  13.324
24069SOL    HW274047  14.485   1.977  13.411
24070SOL     OW74048   7.464   3.072  12.652
24070SOL    HW174049   7.481   3.054  12.560
24070SOL    HW274050   7.431   3.162  12.654
24071SOL     OW74051  14.619  13.884   9.093
24071SOL    HW174052  14.604  13.973   9.064
24071SOL    HW274053  14.574  13.829   9.029
24072SOL     OW74054  12.898  14.335  14.755
24072SOL    HW174055  12.875  14.303  14.668
24072SOL    HW274056  12.938  14.420  14.739
24073SOL     OW74057   3.396   7.531   8.608
24073SOL    HW174058   3.454   7.485   8.547
24073SOL    HW274059   3.396   7.478   8.687
24074SOL     OW74060   1.426   9.878   3.356
24074SOL    HW174061   1.421   9.845   3.266
24074SOL    HW274062   1.358   9.945   3.360
24075SOL     OW74063   0.813  10.277   1.015
24075SOL    HW174064   0.818  10.250   1.107
24075SOL    HW274065   0.722  10.303   1.002
24076SOL     OW74066  12.243  12.459  10.020
24076SOL    HW174067  12.156  12.420  10.015
24076SOL    HW274068  12.242  12.511  10.100
24077SOL     OW74069  12.556  10.748   6.895
24077SOL    HW174070  12.614  10.715   6.964
24077SOL    HW274071  12.530  10.670   6.845
24078SOL     OW74072   6.587   6.844   1.847
24078SOL    HW174073   6.622   6.812   1.930
24078SOL    HW274074   6.501   6.802   1.840
24079SOL     OW74075   9.486   0.776   2.574
24079SOL    HW174076   9.494   0.871   2.565
24079SOL    HW274077   9.556   0.751   2.635
24080SOL     OW74078  11.574   5.985   6.360
24080SOL    HW174079  11.506   5.930   6.319
24080SOL    HW274080  11.594   5.939   6.442
24081SOL     OW74081   9.020   2.932  13.851
24081SOL    HW174082   9.060   2.855  13.811
24081SOL    HW274083   8.984   2.899  13.934
24082SOL     OW74084   3.687   2.774   6.142
24082SOL    HW174085   3.682   2.858   6.186
24082SOL    HW274086   3.767   2.779   6.090
24083SOL     OW74087  12.112   2.888  13.762
24083SOL    HW174088  12.208   2.887  13.771
24083SOL    HW274089  12.080   2.874  13.852
24084SOL     OW74090   1.428   6.572   8.318
24084SOL    HW174091   1.388   6.652   8.283
24084SOL    HW274092   1.504   6.558   8.262
24085SOL     OW74093   8.461   7.367   9.757
24085SOL    HW174094   8.506   7.333   9.834
24085SOL    HW274095   8.369   7.372   9.784
24086SOL     OW74096  14.773   8.131  10.260
24086SOL    HW174097  14.820   8.048  10.270
24086SOL    HW274098  14.742   8.130  10.169
24087SOL     OW74099   9.625  13.608   1.108
24087SOL    HW174100   9.576  13.618   1.189
24087SOL    HW274101   9.692  13.542   1.127
24088SOL     OW74102   1.082  10.645  11.782
24088SOL    HW174103   1.042  10.626  11.697
24088SOL    HW274104   1.116  10.734  11.773
24089SOL     OW74105  11.246   7.086  10.957
24089SOL    HW174106  11.187   7.030  10.907
24089SOL    HW274107  11.316   7.109  10.896
24090SOL     OW74108   7.310   6.663   8.255
24090SOL    HW174109   7.215   6.673   8.252
24090SOL    HW274110   7.336   6.663   8.162
24091SOL     OW74111   0.712   8.828   3.587
24091SOL    HW174112   0.619   8.805   3.592
24091SOL    HW274113   0.738   8.804   3.498
24092SOL     OW74114   0.015  12.375   7.598
24092SOL    HW174115   0.103  12.403   7.620
24092SOL    HW274116  14.834  12.436   7.643
24093SOL     OW74117   7.469  12.097   0.566
24093SOL    HW174118   7.384  12.055   0.556
24093SOL    HW274119   7.472  12.162   0.497
24094SOL     OW74120  11.837   5.301   9.056
24094SOL    HW174121  11.922   5.299   9.101
24094SOL    HW274122  11.801   5.387   9.078
24095SOL     OW74123   4.509  13.231   7.439
24095SOL    HW174124   4.535  13.139   7.441
24095SOL    HW274125   4.557  13.268   7.365
24096SOL     OW74126  12.302   0.663  10.595
24096SOL    HW174127  12.312   0.590  10.656
24096SOL    HW274128  12.315   0.741  10.647
24097SOL     OW74129   6.271  14.777  10.268
24097SOL    HW174130   6.274  14.804  10.360
24097SOL    HW274131   6.360  14.749  10.248
24098SOL     OW74132   6.128  13.074   5.067
24098SOL    HW174133   6.106  13.154   5.117
24098SOL    HW274134   6.112  13.098   4.976
24099SOL     OW74135   2.445   4.494  11.543
24099SOL    HW174136   2.533   4.533  11.544
24099SOL    HW274137   2.398   4.545  11.477
24100SOL     OW74138   4.494  12.021   2.123
24100SOL    HW174139   4.566  12.017   2.185
24100SOL    HW274140   4.506  11.943   2.068
24101SOL     OW74141  10.584  14.364   7.166
24101SOL    HW174142  10.659  14.404   7.122
24101SOL    HW274143  10.613  14.350   7.256
24102SOL     OW74144  11.426  12.093  12.019
24102SOL    HW174145  11.472  12.067  11.939
24102SOL    HW274146  11.433  12.189  12.020
24103SOL     OW74147   3.496   2.498  11.033
24103SOL    HW174148   3.432   2.524  10.967
24103SOL    HW274149   3.446   2.446  11.096
24104SOL     OW74150  11.486   3.529   1.805
24104SOL    HW174151  11.542   3.520   1.881
24104SOL    HW274152  11.456   3.440   1.786
24105SOL     OW74153   5.443   7.563   9.853
24105SOL    HW174154   5.481   7.651   9.844
24105SOL    HW274155   5.502   7.507   9.803
24106SOL     OW74156   0.402   8.588  12.691
24106SOL    HW174157   0.379   8.651  12.760
24106SOL    HW274158   0.438   8.513  12.739
24107SOL     OW74159   0.242   1.239  12.333
24107SOL    HW174160   0.165   1.192  12.364
24107SOL    HW274161   0.309   1.171  12.322
24108SOL     OW74162   8.617  11.840   8.715
24108SOL    HW174163   8.663  11.915   8.676
24108SOL    HW274164   8.597  11.869   8.804
24109SOL     OW74165   9.496   0.961  10.439
24109SOL    HW174166   9.447   0.930  10.363
24109SOL    HW274167   9.434   1.014  10.488
24110SOL     OW74168   3.679   3.913   7.424
24110SOL    HW174169   3.749   3.929   7.487
24110SOL    HW274170   3.687   3.984   7.361
24111SOL     OW74171   3.410   1.899  14.796
24111SOL    HW174172   3.394   1.954  14.720
24111SOL    HW274173   3.386   1.954  14.871
24112SOL     OW74174  11.598   0.836   0.071
24112SOL    HW174175  11.572   0.916   0.026
24112SOL    HW274176  11.601   0.861   0.164
24113SOL     OW74177   1.863   5.046   8.883
24113SOL    HW174178   1.938   5.087   8.839
24113SOL    HW274179   1.805   5.119   8.905
24114SOL     OW74180  10.197  13.995   4.304
24114SOL    HW174181  10.184  14.067   4.365
24114SOL    HW274182  10.112  13.985   4.260
24115SOL     OW74183   9.452   2.250   3.553
24115SOL    HW174184   9.417   2.339   3.551
24115SOL    HW274185   9.504   2.246   3.633
24116SOL     OW74186   1.461   9.613   7.115
24116SOL    HW174187   1.462   9.548   7.186
24116SOL    HW274188   1.375   9.655   7.122
24117SOL     OW74189   0.833  13.572   9.873
24117SOL    HW174190   0.809  13.522   9.795
24117SOL    HW274191   0.876  13.650   9.839
24118SOL     OW74192  10.970  13.951   2.525
24118SOL    HW174193  10.919  14.014   2.474
24118SOL    HW274194  10.908  13.914   2.587
24119SOL     OW74195   6.629   9.298   0.978
24119SOL    HW174196   6.537   9.293   0.953
24119SOL    HW274197   6.641   9.229   1.043
24120SOL     OW74198  12.303   7.282  12.765
24120SOL    HW174199  12.397   7.271  12.752
24120SOL    HW274200  12.263   7.241  12.688
24121SOL     OW74201   3.720   4.513   4.678
24121SOL    HW174202   3.629   4.483   4.671
24121SOL    HW274203   3.772   4.436   4.654
24122SOL     OW74204  13.073   1.983   5.948
24122SOL    HW174205  13.002   1.933   5.989
24122SOL    HW274206  13.105   2.040   6.018
24123SOL     OW74207   3.425   0.150  14.038
24123SOL    HW174208   3.488   0.087  14.002
24123SOL    HW274209   3.442   0.148  14.133
24124SOL     OW74210   2.545  13.141  12.618
24124SOL    HW174211   2.517  13.223  12.577
24124SOL    HW274212   2.507  13.144  12.705
24125SOL     OW74213  10.280   4.406   5.387
24125SOL    HW174214  10.333   4.345   5.336
24125SOL    HW274215  10.254   4.474   5.325
24126SOL     OW74216  13.562   9.460  12.088
24126SOL    HW174217  13.569   9.545  12.044
24126SOL    HW274218  13.600   9.398  12.026
24127SOL     OW74219   8.642   5.718  14.114
24127SOL    HW174220   8.650   5.631  14.153
24127SOL    HW274221   8.650   5.779  14.188
24128SOL     OW74222   8.656  12.570  13.496
24128SOL    HW174223   8.730  12.600  13.444
24128SOL    HW274224   8.655  12.475  13.484
24129SOL     OW74225   7.376   2.228   9.793
24129SOL    HW174226   7.471   2.217   9.804
24129SOL    HW274227   7.367   2.300   9.730
24130SOL     OW74228   4.615   7.713   4.479
24130SOL    HW174229   4.654   7.632   4.444
24130SOL    HW274230   4.639   7.713   4.572
24131SOL     OW74231   3.741   3.385   1.634
24131SOL    HW174232   3.814   3.437   1.602
24131SOL    HW274233   3.677   3.449   1.664
24132SOL     OW74234   6.966  13.505   7.949
24132SOL    HW174235   6.927  13.479   8.032
24132SOL    HW274236   7.054  13.536   7.972
24133SOL     OW74237   3.997   3.518   9.286
24133SOL    HW174238   4.070   3.510   9.224
24133SOL    HW274239   3.984   3.429   9.319
24134SOL     OW74240  13.626   4.702   8.821
24134SOL    HW174241  13.590   4.769   8.762
24134SOL    HW274242  13.569   4.626   8.809
24135SOL     OW74243   9.367   7.225  11.474
24135SOL    HW174244   9.366   7.284  11.399
24135SOL    HW274245   9.307   7.265  11.537
24136SOL     OW74246  10.239   7.346  13.819
24136SOL    HW174247  10.180   7.414  13.853
24136SOL    HW274248  10.181   7.277  13.787
24137SOL     OW74249   0.545   8.942   4.341
24137SOL    HW174250   0.618   8.912   4.287
24137SOL    HW274251   0.505   8.861   4.373
24138SOL     OW74252   8.117   8.818   6.987
24138SOL    HW174253   8.097   8.879   6.916
24138SOL    HW274254   8.049   8.835   7.053
24139SOL     OW74255   5.816   3.782   2.160
24139SOL    HW174256   5.814   3.785   2.255
24139SOL    HW274257   5.871   3.706   2.139
24140SOL     OW74258   7.173   0.093   6.045
24140SOL    HW174259   7.236   0.074   5.975
24140SOL    HW274260   7.130   0.174   6.016
24141SOL     OW74261  11.334   6.721   7.736
24141SOL    HW174262  11.378   6.802   7.764
24141SOL    HW274263  11.337   6.724   7.640
24142SOL     OW74264  13.697   3.431   7.829
24142SOL    HW174265  13.787   3.415   7.800
24142SOL    HW274266  13.675   3.517   7.793
24143SOL     OW74267   1.043  13.729  14.773
24143SOL    HW174268   1.110  13.796  14.762
24143SOL    HW274269   0.964  13.768  14.734
24144SOL     OW74270   1.545   5.708  11.820
24144SOL    HW174271   1.541   5.624  11.866
24144SOL    HW274272   1.458   5.719  11.783
24145SOL     OW74273   8.954   4.010   1.209
24145SOL    HW174274   8.923   3.982   1.295
24145SOL    HW274275   8.922   3.942   1.149
24146SOL     OW74276   6.211  13.031  11.951
24146SOL    HW174277   6.154  13.015  12.026
24146SOL    HW274278   6.177  13.111  11.911
24147SOL     OW74279   6.722  10.002  13.460
24147SOL    HW174280   6.672   9.958  13.529
24147SOL    HW274281   6.686  10.090  13.458
24148SOL     OW74282   3.242   8.187   0.173
24148SOL    HW174283   3.234   8.100   0.211
24148SOL    HW274284   3.284   8.239   0.241
24149SOL     OW74285   2.588  14.031   7.053
24149SOL    HW174286   2.638  13.989   7.122
24149SOL    HW274287   2.515  14.073   7.098
24150SOL     OW74288   2.118   4.798   0.619
24150SOL    HW174289   2.135   4.881   0.665
24150SOL    HW274290   2.029   4.774   0.646
24151SOL     OW74291   4.522  12.402  10.695
24151SOL    HW174292   4.607  12.418  10.737
24151SOL    HW274293   4.515  12.307  10.691
24152SOL     OW74294   4.365  11.463   1.267
24152SOL    HW174295   4.384  11.420   1.350
24152SOL    HW274296   4.451  11.490   1.234
24153SOL     OW74297   2.323   5.327   0.157
24153SOL    HW174298   2.408   5.321   0.114
24153SOL    HW274299   2.338   5.292   0.245
24154SOL     OW74300  10.962  13.613   9.528
24154SOL    HW174301  10.919  13.528   9.516
24154SOL    HW274302  10.891  13.671   9.555
24155SOL     OW74303  14.053   9.901  10.129
24155SOL    HW174304  14.040   9.807  10.144
24155SOL    HW274305  14.134   9.921  10.175
24156SOL     OW74306   1.264   0.130   2.840
24156SOL    HW174307   1.352   0.105   2.866
24156SOL    HW274308   1.266   0.225   2.835
24157SOL     OW74309   2.286  14.312   8.559
24157SOL    HW174310   2.247  14.395   8.531
24157SOL    HW274311   2.242  14.291   8.641
24158SOL     OW74312   7.608  12.500  13.373
24158SOL    HW174313   7.607  12.445  13.294
24158SOL    HW274314   7.525  12.548  13.370
24159SOL     OW74315  10.877   8.459   6.175
24159SOL    HW174316  10.908   8.371   6.153
24159SOL    HW274317  10.784   8.458   6.154
24160SOL     OW74318   8.494  12.844  10.235
24160SOL    HW174319   8.408  12.821  10.198
24160SOL    HW274320   8.484  12.827  10.329
24161SOL     OW74321  12.448   6.914  10.500
24161SOL    HW174322  12.513   6.956  10.444
24161SOL    HW274323  12.364   6.940  10.464
24162SOL     OW74324   1.217   1.953   7.074
24162SOL    HW174325   1.202   2.021   7.141
24162SOL    HW274326   1.312   1.944   7.070
24163SOL     OW74327  10.177   8.632  12.231
24163SOL    HW174328  10.101   8.690  12.224
24163SOL    HW274329  10.164   8.566  12.163
24164SOL     OW74330   6.673   9.742   8.481
24164SOL    HW174331   6.657   9.661   8.528
24164SOL    HW274332   6.611   9.741   8.408
24165SOL     OW74333   0.635  12.818  14.138
24165SOL    HW174334   0.602  12.833  14.226
24165SOL    HW274335   0.645  12.906  14.101
24166SOL     OW74336   7.685   3.655   6.504
24166SOL    HW174337   7.704   3.742   6.469
24166SOL    HW274338   7.594   3.659   6.531
24167SOL     OW74339   7.000   9.671   4.280
24167SOL    HW174340   6.985   9.744   4.340
24167SOL    HW274341   6.918   9.622   4.281
24168SOL     OW74342   8.489  13.007   6.652
24168SOL    HW174343   8.452  13.057   6.579
24168SOL    HW274344   8.416  12.991   6.711
24169SOL     OW74345   7.109  13.110  12.352
24169SOL    HW174346   7.148  13.173  12.291
24169SOL    HW274347   7.140  13.137  12.438
24170SOL     OW74348   3.663  10.603   4.765
24170SOL    HW174349   3.721  10.614   4.690
24170SOL    HW274350   3.720  10.568   4.834
24171SOL     OW74351  14.180  10.224   6.907
24171SOL    HW174352  14.215  10.175   6.981
24171SOL    HW274353  14.240  10.205   6.835
24172SOL     OW74354  10.423  12.354  11.561
24172SOL    HW174355  10.384  12.352  11.474
24172SOL    HW274356  10.493  12.419  11.555
24173SOL     OW74357   6.472  11.461  13.581
24173SOL    HW174358   6.440  11.388  13.529
24173SOL    HW274359   6.394  11.497  13.624
24174SOL     OW74360   1.501   7.605   2.849
24174SOL    HW174361   1.579   7.596   2.793
24174SOL    HW274362   1.531   7.581   2.936
24175SOL     OW74363   7.529   6.869  13.515
24175SOL    HW174364   7.563   6.807  13.451
24175SOL    HW274365   7.471   6.818  13.570
24176SOL     OW74366  10.877   7.945  11.565
24176SOL    HW174367  10.866   7.858  11.603
24176SOL    HW274368  10.971   7.951  11.547
24177SOL     OW74369  13.991  10.491   0.593
24177SOL    HW174370  14.059  10.480   0.659
24177SOL    HW274371  14.028  10.552   0.529
24178SOL     OW74372  10.232   4.541  12.883
24178SOL    HW174373  10.303   4.486  12.852
24178SOL    HW274374  10.228   4.613  12.821
24179SOL     OW74375   2.006   7.135  10.259
24179SOL    HW174376   2.055   7.113  10.179
24179SOL    HW274377   2.015   7.058  10.314
24180SOL     OW74378   3.092   7.777   0.673
24180SOL    HW174379   3.133   7.754   0.756
24180SOL    HW274380   2.998   7.765   0.688
24181SOL     OW74381   2.126   7.231   5.246
24181SOL    HW174382   2.153   7.210   5.157
24181SOL    HW274383   2.038   7.266   5.237
24182SOL     OW74384   9.523  10.419  14.035
24182SOL    HW174385   9.434  10.385  14.039
24182SOL    HW274386   9.521  10.498  14.090
24183SOL     OW74387   7.342   2.082   7.356
24183SOL    HW174388   7.267   2.083   7.296
24183SOL    HW274389   7.411   2.038   7.307
24184SOL     OW74390  13.986   2.184   7.951
24184SOL    HW174391  13.983   2.092   7.923
24184SOL    HW274392  14.007   2.180   8.045
24185SOL     OW74393   1.874   1.989  13.653
24185SOL    HW174394   1.893   1.910  13.702
24185SOL    HW274395   1.784   1.977  13.621
24186SOL     OW74396   3.758   9.016  13.532
24186SOL    HW174397   3.709   9.005  13.451
24186SOL    HW274398   3.695   8.994  13.601
24187SOL     OW74399  14.113   8.115  11.375
24187SOL    HW174400  14.087   8.023  11.369
24187SOL    HW274401  14.154   8.134  11.290
24188SOL     OW74402   1.872   6.889   5.418
24188SOL    HW174403   1.838   6.837   5.344
24188SOL    HW274404   1.832   6.975   5.406
24189SOL     OW74405   8.579   0.550   0.122
24189SOL    HW174406   8.564   0.503   0.204
24189SOL    HW274407   8.544   0.492   0.055
24190SOL     OW74408  10.737   4.654   6.930
24190SOL    HW174409  10.777   4.719   6.872
24190SOL    HW274410  10.798   4.580   6.928
24191SOL     OW74411   1.378   0.982   4.471
24191SOL    HW174412   1.399   0.896   4.507
24191SOL    HW274413   1.335   1.029   4.542
24192SOL     OW74414  11.276   1.808   0.433
24192SOL    HW174415  11.207   1.873   0.444
24192SOL    HW274416  11.238   1.743   0.374
24193SOL     OW74417   2.861  12.689   4.396
24193SOL    HW174418   2.803  12.629   4.349
24193SOL    HW274419   2.810  12.717   4.472
24194SOL     OW74420  13.256   5.930  14.609
24194SOL    HW174421  13.347   5.920  14.638
24194SOL    HW274422  13.222   5.841  14.606
24195SOL     OW74423  13.662   2.972   9.351
24195SOL    HW174424  13.575   2.984   9.390
24195SOL    HW274425  13.675   3.050   9.297
24196SOL     OW74426   2.934   2.113   6.727
24196SOL    HW174427   2.974   2.191   6.689
24196SOL    HW274428   3.007   2.065   6.766
24197SOL     OW74429   1.480   1.706  14.301
24197SOL    HW174430   1.556   1.696  14.357
24197SOL    HW274431   1.513   1.748  14.222
24198SOL     OW74432  10.074   7.718   5.812
24198SOL    HW174433  10.132   7.648   5.783
24198SOL    HW274434  10.118   7.756   5.888
24199SOL     OW74435   9.985   2.272   8.161
24199SOL    HW174436  10.057   2.332   8.182
24199SOL    HW274437   9.988   2.206   8.230
24200SOL     OW74438  10.852   0.515   0.966
24200SOL    HW174439  10.874   0.433   0.923
24200SOL    HW274440  10.786   0.492   1.031
24201SOL     OW74441  12.360   2.789   3.286
24201SOL    HW174442  12.452   2.783   3.313
24201SOL    HW274443  12.329   2.699   3.289
24202SOL     OW74444   6.941  12.537   2.300
24202SOL    HW174445   7.025  12.550   2.257
24202SOL    HW274446   6.934  12.443   2.313
24203SOL     OW74447  12.018  11.543   7.952
24203SOL    HW174448  12.053  11.543   7.863
24203SOL    HW274449  11.951  11.612   7.951
24204SOL     OW74450  12.664   3.911   1.954
24204SOL    HW174451  12.680   3.948   1.867
24204SOL    HW274452  12.568   3.904   1.960
24205SOL     OW74453   2.644   3.311   7.848
24205SOL    HW174454   2.619   3.326   7.756
24205SOL    HW274455   2.561   3.315   7.896
24206SOL     OW74456   2.695   6.823  10.662
24206SOL    HW174457   2.774   6.877  10.666
24206SOL    HW274458   2.698   6.769  10.741
24207SOL     OW74459   3.392   0.580   9.559
24207SOL    HW174460   3.337   0.552   9.486
24207SOL    HW274461   3.354   0.537   9.636
24208SOL     OW74462   7.971   9.156  12.285
24208SOL    HW174463   7.912   9.088  12.253
24208SOL    HW274464   8.036   9.167  12.215
24209SOL     OW74465  13.227   4.055  11.522
24209SOL    HW174466  13.229   3.989  11.452
24209SOL    HW274467  13.271   4.131  11.484
24210SOL     OW74468   7.988   6.666   8.670
24210SOL    HW174469   8.014   6.583   8.709
24210SOL    HW274470   7.902   6.649   8.632
24211SOL     OW74471   3.221   3.052   2.776
24211SOL    HW174472   3.227   3.105   2.697
24211SOL    HW274473   3.133   3.068   2.809
24212SOL     OW74474   9.923  12.457  12.272
24212SOL    HW174475   9.957  12.405  12.344
24212SOL    HW274476   9.828  12.455  12.283
24213SOL     OW74477  10.009  13.030   0.381
24213SOL    HW174478  10.075  12.993   0.440
24213SOL    HW274479   9.943  12.961   0.372
24214SOL     OW74480   0.557  12.740   5.801
24214SOL    HW174481   0.576  12.727   5.708
24214SOL    HW274482   0.574  12.656   5.842
24215SOL     OW74483   6.190   1.433   0.118
24215SOL    HW174484   6.225   1.445   0.207
24215SOL    HW274485   6.251   1.373   0.076
24216SOL     OW74486   8.320  11.357  12.013
24216SOL    HW174487   8.381  11.296  12.054
24216SOL    HW274488   8.252  11.302  11.974
24217SOL     OW74489  12.160   5.925  11.397
24217SOL    HW174490  12.068   5.924  11.372
24217SOL    HW274491  12.184   6.018  11.396
24218SOL     OW74492   7.754   9.798   7.916
24218SOL    HW174493   7.792   9.856   7.851
24218SOL    HW274494   7.749   9.713   7.872
24219SOL     OW74495   7.005   9.094  12.979
24219SOL    HW174496   6.917   9.057  12.970
24219SOL    HW274497   7.064   9.019  12.974
24220SOL     OW74498  10.301   2.248  11.253
24220SOL    HW174499  10.339   2.322  11.300
24220SOL    HW274500  10.264   2.287  11.173
24221SOL     OW74501   0.843  10.955  13.264
24221SOL    HW174502   0.825  11.016  13.336
24221SOL    HW274503   0.758  10.945  13.221
24222SOL     OW74504  12.036   1.396   7.707
24222SOL    HW174505  11.986   1.423   7.784
24222SOL    HW274506  12.094   1.326   7.739
24223SOL     OW74507  11.822   2.365  10.335
24223SOL    HW174508  11.844   2.298  10.400
24223SOL    HW274509  11.727   2.371  10.338
24224SOL     OW74510   6.409  14.819  10.834
24224SOL    HW174511   6.484  14.839  10.891
24224SOL    HW274512   6.443  14.832  10.746
24225SOL     OW74513   1.341   8.411   2.954
24225SOL    HW174514   1.341   8.424   2.859
24225SOL    HW274515   1.434   8.414   2.978
24226SOL     OW74516   5.626  10.666  14.137
24226SOL    HW174517   5.625  10.762  14.139
24226SOL    HW274518   5.646  10.644  14.046
24227SOL     OW74519   3.832   5.786  11.659
24227SOL    HW174520   3.907   5.768  11.603
24227SOL    HW274521   3.852   5.870  11.700
24228SOL     OW74522   1.015   3.005   8.750
24228SOL    HW174523   0.953   2.938   8.778
24228SOL    HW274524   1.076   2.959   8.693
24229SOL     OW74525  12.996   2.328   4.994
24229SOL    HW174526  12.921   2.378   4.961
24229SOL    HW274527  12.994   2.343   5.089
24230SOL     OW74528   4.332  13.448   5.043
24230SOL    HW174529   4.320  13.465   5.136
24230SOL    HW274530   4.243  13.442   5.008
24231SOL     OW74531   0.899   3.298   0.247
24231SOL    HW174532   0.889   3.275   0.155
24231SOL    HW274533   0.850   3.230   0.294
24232SOL     OW74534   1.797   4.353  10.250
24232SOL    HW174535   1.794   4.438  10.295
24232SOL    HW274536   1.871   4.360  10.189
24233SOL     OW74537   3.508   0.067   6.445
24233SOL    HW174538   3.480   0.158   6.457
24233SOL    HW274539   3.513   0.056   6.350
24234SOL     OW74540   3.302   8.225  12.400
24234SOL    HW174541   3.299   8.186  12.313
24234SOL    HW274542   3.339   8.313  12.386
24235SOL     OW74543   9.614   7.000   8.980
24235SOL    HW174544   9.676   7.072   8.976
24235SOL    HW274545   9.537   7.032   8.934
24236SOL     OW74546  11.014  11.182  10.696
24236SOL    HW174547  11.054  11.125  10.631
24236SOL    HW274548  10.925  11.197  10.665
24237SOL     OW74549   4.293   5.926   9.371
24237SOL    HW174550   4.320   6.017   9.377
24237SOL    HW274551   4.200   5.929   9.347
24238SOL     OW74552   5.711  11.579  12.384
24238SOL    HW174553   5.724  11.488  12.411
24238SOL    HW274554   5.617  11.586  12.368
24239SOL     OW74555  10.615  14.200   7.759
24239SOL    HW174556  10.642  14.275   7.812
24239SOL    HW274557  10.590  14.133   7.822
24240SOL     OW74558   9.988  14.481   0.731
24240SOL    HW174559  10.010  14.463   0.822
24240SOL    HW274560  10.061  14.447   0.681
24241SOL     OW74561   1.763  13.029   7.854
24241SOL    HW174562   1.693  13.014   7.918
24241SOL    HW274563   1.771  13.124   7.850
24242SOL     OW74564  13.822   0.983   0.440
24242SOL    HW174565  13.769   0.948   0.369
24242SOL    HW274566  13.788   0.940   0.519
24243SOL     OW74567   4.649  14.532   9.081
24243SOL    HW174568   4.689  14.495   9.002
24243SOL    HW274569   4.568  14.572   9.051
24244SOL     OW74570  11.511   7.323   3.576
24244SOL    HW174571  11.492   7.381   3.503
24244SOL    HW274572  11.585   7.270   3.548
24245SOL     OW74573  14.766  10.990   2.304
24245SOL    HW174574  14.842  10.965   2.252
24245SOL    HW274575  14.752  10.917   2.364
24246SOL     OW74576  11.071   5.705  12.602
24246SOL    HW174577  10.976   5.710  12.615
24246SOL    HW274578  11.108   5.725  12.687
24247SOL     OW74579  11.142  13.208   0.995
24247SOL    HW174580  11.073  13.245   1.051
24247SOL    HW274581  11.156  13.274   0.927
24248SOL     OW74582  11.001   0.076   0.631
24248SOL    HW174583  11.059   0.128   0.575
24248SOL    HW274584  10.935   0.042   0.571
24249SOL     OW74585   3.868  10.094   3.883
24249SOL    HW174586   3.871  10.116   3.790
24249SOL    HW274587   3.823  10.169   3.924
24250SOL     OW74588  14.783   9.573   3.789
24250SOL    HW174589  14.771   9.667   3.772
24250SOL    HW274590  14.694   9.537   3.782
24251SOL     OW74591   3.516  12.911   5.804
24251SOL    HW174592   3.565  12.979   5.850
24251SOL    HW274593   3.452  12.958   5.751
24252SOL     OW74594  13.046   7.484   0.244
24252SOL    HW174595  12.971   7.535   0.213
24252SOL    HW274596  13.096   7.545   0.298
24253SOL     OW74597   4.500   1.988   1.365
24253SOL    HW174598   4.408   1.979   1.343
24253SOL    HW274599   4.509   2.080   1.392
24254SOL     OW74600   2.822  11.630   1.045
24254SOL    HW174601   2.850  11.607   1.134
24254SOL    HW274602   2.902  11.622   0.993
24255SOL     OW74603  11.047   6.503   3.594
24255SOL    HW174604  11.079   6.415   3.578
24255SOL    HW274605  11.113   6.542   3.652
24256SOL     OW74606   2.770  13.787   8.671
24256SOL    HW174607   2.683  13.817   8.645
24256SOL    HW274608   2.755  13.701   8.710
24257SOL     OW74609   5.336   2.124   2.288
24257SOL    HW174610   5.362   2.209   2.324
24257SOL    HW274611   5.282   2.146   2.212
24258SOL     OW74612  10.531   4.003   7.675
24258SOL    HW174613  10.447   4.041   7.700
24258SOL    HW274614  10.583   4.077   7.645
24259SOL     OW74615  13.279   4.769  12.034
24259SOL    HW174616  13.276   4.862  12.012
24259SOL    HW274617  13.264   4.724  11.951
24260SOL     OW74618   1.386   8.733  13.655
24260SOL    HW174619   1.356   8.647  13.625
24260SOL    HW274620   1.441   8.714  13.732
24261SOL     OW74621   6.472   7.975   6.085
24261SOL    HW174622   6.523   7.895   6.102
24261SOL    HW274623   6.408   7.978   6.157
24262SOL     OW74624  11.511   5.847  10.872
24262SOL    HW174625  11.590   5.902  10.871
24262SOL    HW274626  11.458   5.884  10.943
24263SOL     OW74627   5.091   8.769   0.877
24263SOL    HW174628   5.176   8.798   0.842
24263SOL    HW274629   5.027   8.815   0.824
24264SOL     OW74630   9.088  12.325   7.667
24264SOL    HW174631   9.123  12.326   7.578
24264SOL    HW274632   9.001  12.286   7.658
24265SOL     OW74633   5.099   3.078  11.869
24265SOL    HW174634   5.084   3.067  11.963
24265SOL    HW274635   5.195   3.081  11.861
24266SOL     OW74636  12.668   8.707   3.829
24266SOL    HW174637  12.576   8.729   3.841
24266SOL    HW274638  12.712   8.791   3.823
24267SOL     OW74639   4.281  12.116   5.987
24267SOL    HW174640   4.352  12.163   6.031
24267SOL    HW274641   4.229  12.184   5.944
24268SOL     OW74642   9.254   9.028  14.516
24268SOL    HW174643   9.289   9.053  14.430
24268SOL    HW274644   9.304   8.951  14.541
24269SOL     OW74645  12.348  10.753  10.103
24269SOL    HW174646  12.441  10.777  10.110
24269SOL    HW274647  12.331  10.698  10.179
24270SOL     OW74648   5.940  14.797   0.153
24270SOL    HW174649   5.890  14.799   0.072
24270SOL    HW274650   6.019  14.847   0.134
24271SOL     OW74651   7.611   8.806  13.307
24271SOL    HW174652   7.597   8.757  13.226
24271SOL    HW274653   7.680   8.869  13.285
24272SOL     OW74654  10.533  10.795   4.117
24272SOL    HW174655  10.608  10.752   4.076
24272SOL    HW274656  10.537  10.885   4.084
24273SOL     OW74657  11.372   8.007  11.163
24273SOL    HW174658  11.410   7.950  11.230
24273SOL    HW274659  11.447   8.034  11.110
24274SOL     OW74660   5.253  13.288   9.847
24274SOL    HW174661   5.295  13.368   9.877
24274SOL    HW274662   5.320  13.244   9.793
24275SOL     OW74663   5.430   1.312   5.916
24275SOL    HW174664   5.459   1.300   5.825
24275SOL    HW274665   5.351   1.260   5.923
24276SOL     OW74666   6.233   3.191   2.461
24276SOL    HW174667   6.149   3.188   2.416
24276SOL    HW274668   6.288   3.245   2.405
24277SOL     OW74669  10.610   8.109   1.367
24277SOL    HW174670  10.609   8.079   1.276
24277SOL    HW274671  10.518   8.108   1.394
24278SOL     OW74672   0.187   8.234   2.013
24278SOL    HW174673   0.114   8.251   2.073
24278SOL    HW274674   0.259   8.210   2.071
24279SOL     OW74675  13.622  14.795   5.091
24279SOL    HW174676  13.562  14.780   5.018
24279SOL    HW274677  13.619   0.013   5.105
24280SOL     OW74678   1.913   9.800  11.427
24280SOL    HW174679   1.994   9.770  11.386
24280SOL    HW274680   1.941   9.836  11.511
24281SOL     OW74681   5.394   8.726  12.851
24281SOL    HW174682   5.447   8.678  12.787
24281SOL    HW274683   5.348   8.792  12.799
24282SOL     OW74684  13.572   4.978   3.863
24282SOL    HW174685  13.634   4.981   3.936
24282SOL    HW274686  13.584   5.063   3.818
24283SOL     OW74687   7.776  10.210  12.211
24283SOL    HW174688   7.728  10.161  12.145
24283SOL    HW274689   7.786  10.150  12.284
24284SOL     OW74690   1.674   0.489  12.849
24284SOL    HW174691   1.659   0.435  12.771
24284SOL    HW274692   1.600   0.469  12.906
24285SOL     OW74693  12.804  13.678  12.767
24285SOL    HW174694  12.720  13.650  12.730
24285SOL    HW274695  12.830  13.752  12.712
24286SOL     OW74696   6.007   0.981  11.123
24286SOL    HW174697   6.077   0.979  11.188
24286SOL    HW274698   6.020   0.901  11.072
24287SOL     OW74699   4.424  14.025   0.828
24287SOL    HW174700   4.411  13.992   0.739
24287SOL    HW274701   4.340  14.066   0.851
24288SOL     OW74702   1.937   4.848   2.102
24288SOL    HW174703   1.934   4.772   2.160
24288SOL    HW274704   2.027   4.880   2.109
24289SOL     OW74705  14.203   8.131  11.133
24289SOL    HW174706  14.243   8.191  11.070
24289SOL    HW274707  14.134   8.087  11.084
24290SOL     OW74708  10.723   4.623   1.973
24290SOL    HW174709  10.661   4.641   2.044
24290SOL    HW274710  10.669   4.620   1.894
24291SOL     OW74711   8.448   1.038   0.745
24291SOL    HW174712   8.455   0.950   0.783
24291SOL    HW274713   8.441   1.023   0.651
24292SOL     OW74714   6.899   0.033   4.768
24292SOL    HW174715   6.847  14.870   4.698
24292SOL    HW274716   6.969   0.080   4.722
24293SOL     OW74717   3.534   8.772   4.496
24293SOL    HW174718   3.572   8.832   4.560
24293SOL    HW274719   3.440   8.774   4.515
24294SOL     OW74720   7.174   1.095   6.293
24294SOL    HW174721   7.150   1.017   6.244
24294SOL    HW274722   7.163   1.071   6.385
24295SOL     OW74723   1.967   5.707   8.039
24295SOL    HW174724   2.029   5.666   7.978
24295SOL    HW274725   1.888   5.655   8.031
24296SOL     OW74726   6.730   8.241   1.804
24296SOL    HW174727   6.819   8.274   1.822
24296SOL    HW274728   6.674   8.290   1.864
24297SOL     OW74729   6.992   5.284  11.266
24297SOL    HW174730   6.947   5.204  11.291
24297SOL    HW274731   7.085   5.265  11.279
24298SOL     OW74732   2.445   1.431  13.067
24298SOL    HW174733   2.470   1.339  13.080
24298SOL    HW274734   2.414   1.435  12.977
24299SOL     OW74735   9.244   2.852   6.576
24299SOL    HW174736   9.327   2.853   6.528
24299SOL    HW274737   9.181   2.892   6.515
24300SOL     OW74738  12.820  14.213  10.769
24300SOL    HW174739  12.835  14.191  10.861
24300SOL    HW274740  12.899  14.257  10.740
24301SOL     OW74741  11.755   7.328   6.522
24301SOL    HW174742  11.737   7.321   6.428
24301SOL    HW274743  11.737   7.419   6.544
24302SOL     OW74744  13.528   5.287   3.118
24302SOL    HW174745  13.549   5.203   3.160
24302SOL    HW274746  13.570   5.282   3.033
24303SOL     OW74747   7.066   7.007  12.589
24303SOL    HW174748   7.053   7.084  12.645
24303SOL    HW274749   7.105   6.941  12.648
24304SOL     OW74750  12.455   4.226   6.340
24304SOL    HW174751  12.505   4.305   6.360
24304SOL    HW274752  12.440   4.230   6.245
24305SOL     OW74753  13.765  14.750   3.730
24305SOL    HW174754  13.845  14.752   3.782
24305SOL    HW274755  13.694  14.752   3.795
24306SOL     OW74756   3.924   4.638   2.563
24306SOL    HW174757   3.976   4.713   2.591
24306SOL    HW274758   3.915   4.649   2.468
24307SOL     OW74759   1.686   7.506   7.604
24307SOL    HW174760   1.756   7.491   7.540
24307SOL    HW274761   1.706   7.592   7.641
24308SOL     OW74762   9.302  12.646   0.920
24308SOL    HW174763   9.360  12.591   0.868
24308SOL    HW274764   9.308  12.612   1.009
24309SOL     OW74765   4.950  11.002  14.182
24309SOL    HW174766   4.939  10.965  14.270
24309SOL    HW274767   4.998  10.935  14.134
24310SOL     OW74768  14.563  11.220  13.568
24310SOL    HW174769  14.609  11.289  13.520
24310SOL    HW274770  14.632  11.163  13.601
24311SOL     OW74771   9.091  14.077  11.945
24311SOL    HW174772   9.040  14.078  12.025
24311SOL    HW274773   9.176  14.042  11.971
24312SOL     OW74774  14.552  14.637   3.554
24312SOL    HW174775  14.473  14.642   3.501
24312SOL    HW274776  14.619  14.683   3.503
24313SOL     OW74777   1.606   7.642  10.247
24313SOL    HW174778   1.518   7.634  10.211
24313SOL    HW274779   1.624   7.737  10.246
24314SOL     OW74780  13.627   5.151   3.349
24314SOL    HW174781  13.680   5.088   3.299
24314SOL    HW274782  13.598   5.101   3.426
24315SOL     OW74783  10.440  12.643   0.644
24315SOL    HW174784  10.488  12.608   0.719
24315SOL    HW274785  10.429  12.569   0.585
24316SOL     OW74786   4.799   2.108  11.097
24316SOL    HW174787   4.787   2.200  11.074
24316SOL    HW274788   4.858   2.074  11.030
24317SOL     OW74789  13.054  13.304  11.415
24317SOL    HW174790  13.081  13.253  11.339
24317SOL    HW274791  13.021  13.386  11.378
24318SOL     OW74792  10.004  12.571   5.508
24318SOL    HW174793  10.066  12.631   5.466
24318SOL    HW274794  10.011  12.591   5.601
24319SOL     OW74795  10.734   6.596   6.083
24319SOL    HW174796  10.718   6.600   6.178
24319SOL    HW274797  10.715   6.506   6.059
24320SOL     OW74798   3.136  12.668   8.806
24320SOL    HW174799   3.144  12.660   8.901
24320SOL    HW274800   3.068  12.606   8.782
24321SOL     OW74801   5.177   0.553   4.184
24321SOL    HW174802   5.130   0.485   4.136
24321SOL    HW274803   5.268   0.545   4.155
24322SOL     OW74804  14.777  12.036   2.658
24322SOL    HW174805  14.684  12.056   2.663
24322SOL    HW274806  14.794  12.024   2.564
24323SOL     OW74807   3.840   3.114   3.040
24323SOL    HW174808   3.804   3.171   2.973
24323SOL    HW274809   3.905   3.061   2.994
24324SOL     OW74810   4.987   8.682  12.262
24324SOL    HW174811   4.942   8.726  12.334
24324SOL    HW274812   5.075   8.720  12.261
24325SOL     OW74813   6.296   1.928   0.656
24325SOL    HW174814   6.245   1.993   0.704
24325SOL    HW274815   6.236   1.854   0.646
24326SOL     OW74816   3.345   4.606  14.426
24326SOL    HW174817   3.353   4.701  14.423
24326SOL    HW274818   3.432   4.574  14.403
24327SOL     OW74819   4.642   6.807   5.638
24327SOL    HW174820   4.617   6.826   5.729
24327SOL    HW274821   4.569   6.839   5.586
24328SOL     OW74822   8.922   6.575   2.536
24328SOL    HW174823   8.961   6.627   2.465
24328SOL    HW274824   8.997   6.535   2.580
24329SOL     OW74825   3.949  11.884   0.366
24329SOL    HW174826   4.034  11.883   0.410
24329SOL    HW274827   3.901  11.811   0.407
24330SOL     OW74828  14.223   1.171  12.009
24330SOL    HW174829  14.281   1.233  12.053
24330SOL    HW274830  14.242   1.086  12.050
24331SOL     OW74831  10.467   1.336  10.307
24331SOL    HW174832  10.429   1.319  10.393
24331SOL    HW274833  10.505   1.423  10.314
24332SOL     OW74834  11.241   2.915   9.093
24332SOL    HW174835  11.184   2.970   9.147
24332SOL    HW274836  11.322   2.965   9.084
24333SOL     OW74837  13.639   4.837  14.475
24333SOL    HW174838  13.634   4.816  14.568
24333SOL    HW274839  13.716   4.790  14.444
24334SOL     OW74840   4.999   9.454   3.052
24334SOL    HW174841   4.933   9.437   2.985
24334SOL    HW274842   5.069   9.501   3.007
24335SOL     OW74843   6.859   1.462  13.439
24335SOL    HW174844   6.946   1.425  13.424
24335SOL    HW274845   6.838   1.507  13.357
24336SOL     OW74846  14.803  10.215   6.233
24336SOL    HW174847  14.761  10.177   6.310
24336SOL    HW274848  14.783  10.308   6.237
24337SOL     OW74849  11.153  11.420  11.323
24337SOL    HW174850  11.123  11.460  11.405
24337SOL    HW274851  11.104  11.338  11.317
24338SOL     OW74852   2.402   3.348   9.646
24338SOL    HW174853   2.323   3.337   9.700
24338SOL    HW274854   2.474   3.340   9.708
24339SOL     OW74855  14.703  13.395  13.608
24339SOL    HW174856  14.768  13.361  13.670
24339SOL    HW274857  14.753  13.414  13.529
24340SOL     OW74858   9.374  14.862   5.063
24340SOL    HW174859   9.429  14.784   5.057
24340SOL    HW274860   9.421   0.044   5.122
24341SOL     OW74861   0.446  14.248   1.726
24341SOL    HW174862   0.423  14.233   1.817
24341SOL    HW274863   0.531  14.204   1.715
24342SOL     OW74864   0.162   4.489   0.954
24342SOL    HW174865   0.203   4.464   0.871
24342SOL    HW274866   0.076   4.523   0.929
24343SOL     OW74867   4.996   2.123   7.836
24343SOL    HW174868   5.017   2.199   7.781
24343SOL    HW274869   5.010   2.155   7.926
24344SOL     OW74870   0.320   1.586   3.192
24344SOL    HW174871   0.225   1.579   3.180
24344SOL    HW274872   0.346   1.658   3.135
24345SOL     OW74873  14.293  11.169  10.099
24345SOL    HW174874  14.272  11.082  10.066
24345SOL    HW274875  14.299  11.223  10.020
24346SOL     OW74876   8.948  10.637   1.089
24346SOL    HW174877   9.020  10.648   1.152
24346SOL    HW274878   8.869  10.660   1.138
24347SOL     OW74879  11.580   7.519   3.369
24347SOL    HW174880  11.559   7.612   3.369
24347SOL    HW274881  11.669   7.514   3.335
24348SOL     OW74882   9.427   3.182  12.769
24348SOL    HW174883   9.412   3.230  12.688
24348SOL    HW274884   9.433   3.250  12.836
24349SOL     OW74885   1.730   4.147  10.405
24349SOL    HW174886   1.753   4.222  10.349
24349SOL    HW274887   1.664   4.099  10.356
24350SOL     OW74888   6.551   8.635  14.074
24350SOL    HW174889   6.459   8.620  14.055
24350SOL    HW274890   6.570   8.721  14.037
24351SOL     OW74891   4.008   3.960   2.287
24351SOL    HW174892   4.098   3.973   2.319
24351SOL    HW274893   3.957   3.946   2.367
24352SOL     OW74894  10.111  12.193   8.945
24352SOL    HW174895  10.102  12.279   8.903
24352SOL    HW274896  10.119  12.214   9.039
24353SOL     OW74897   9.652  10.112   9.771
24353SOL    HW174898   9.594  10.187   9.759
24353SOL    HW274899   9.708  10.111   9.694
24354SOL     OW74900   9.967   5.912  10.020
24354SOL    HW174901   9.991   6.001  10.046
24354SOL    HW274902   9.992   5.906   9.928
24355SOL     OW74903  12.678  13.371   5.457
24355SOL    HW174904  12.592  13.412   5.464
24355SOL    HW274905  12.711  13.401   5.372
24356SOL     OW74906   2.475  11.923   8.360
24356SOL    HW174907   2.544  11.965   8.308
24356SOL    HW274908   2.477  11.969   8.443
24357SOL     OW74909   7.822   2.589  11.837
24357SOL    HW174910   7.841   2.528  11.909
24357SOL    HW274911   7.795   2.533  11.765
24358SOL     OW74912  12.309   0.062  13.744
24358SOL    HW174913  12.280   0.029  13.659
24358SOL    HW274914  12.230   0.099  13.783
24359SOL     OW74915   9.697   0.349   4.450
24359SOL    HW174916   9.675   0.399   4.528
24359SOL    HW274917   9.670   0.405   4.377
24360SOL     OW74918  13.057   3.808   0.325
24360SOL    HW174919  13.120   3.749   0.286
24360SOL    HW274920  12.986   3.814   0.261
24361SOL     OW74921  14.397   8.407  12.158
24361SOL    HW174922  14.474   8.382  12.209
24361SOL    HW274923  14.381   8.332  12.100
24362SOL     OW74924   2.651   9.810  14.528
24362SOL    HW174925   2.721   9.833  14.589
24362SOL    HW274926   2.619   9.895  14.496
24363SOL     OW74927   8.926   6.485  13.325
24363SOL    HW174928   8.931   6.516  13.416
24363SOL    HW274929   8.876   6.404  13.331
24364SOL     OW74930   3.210   4.122  10.818
24364SOL    HW174931   3.156   4.045  10.799
24364SOL    HW274932   3.271   4.091  10.885
24365SOL     OW74933   9.604   1.319   4.273
24365SOL    HW174934   9.573   1.356   4.356
24365SOL    HW274935   9.534   1.260   4.246
24366SOL     OW74936  12.410   9.298  12.779
24366SOL    HW174937  12.414   9.260  12.691
24366SOL    HW274938  12.498   9.329  12.795
24367SOL     OW74939   7.836  11.950   8.897
24367SOL    HW174940   7.897  12.001   8.949
24367SOL    HW274941   7.776  11.911   8.961
24368SOL     OW74942   2.326  12.564   1.843
24368SOL    HW174943   2.390  12.634   1.857
24368SOL    HW274944   2.377  12.483   1.856
24369SOL     OW74945   1.399   2.493  13.160
24369SOL    HW174946   1.347   2.498  13.079
24369SOL    HW274947   1.335   2.470  13.228
24370SOL     OW74948  11.407   6.501   6.614
24370SOL    HW174949  11.348   6.551   6.557
24370SOL    HW274950  11.435   6.427   6.560
24371SOL     OW74951   1.292   4.041   9.581
24371SOL    HW174952   1.296   4.002   9.669
24371SOL    HW274953   1.302   3.966   9.522
24372SOL     OW74954  14.507  13.015   5.786
24372SOL    HW174955  14.471  13.058   5.708
24372SOL    HW274956  14.563  12.945   5.752
24373SOL     OW74957  12.182   3.464  13.062
24373SOL    HW174958  12.187   3.527  12.991
24373SOL    HW274959  12.092   3.432  13.059
24374SOL     OW74960   8.142   1.091   6.663
24374SOL    HW174961   8.053   1.091   6.700
24374SOL    HW274962   8.164   0.999   6.653
24375SOL     OW74963   7.740   9.798  14.807
24375SOL    HW174964   7.805   9.739  14.769
24375SOL    HW274965   7.753   9.791   0.025
24376SOL     OW74966  10.392   6.702  14.694
24376SOL    HW174967  10.465   6.642  14.708
24376SOL    HW274968  10.359   6.679  14.607
24377SOL     OW74969   3.427   1.730  10.579
24377SOL    HW174970   3.391   1.801  10.527
24377SOL    HW274971   3.488   1.685  10.521
24378SOL     OW74972  11.056  11.109   9.452
24378SOL    HW174973  11.098  11.151   9.526
24378SOL    HW274974  10.980  11.164   9.433
24379SOL     OW74975   2.890   3.430  10.777
24379SOL    HW174976   2.832   3.429  10.853
24379SOL    HW274977   2.976   3.410  10.813
24380SOL     OW74978   4.936  14.656   6.170
24380SOL    HW174979   5.030  14.647   6.186
24380SOL    HW274980   4.927  14.662   6.075
24381SOL     OW74981   7.466   8.404  10.475
24381SOL    HW174982   7.425   8.354  10.545
24381SOL    HW274983   7.550   8.433  10.513
24382SOL     OW74984  12.743   3.156  10.978
24382SOL    HW174985  12.786   3.237  10.950
24382SOL    HW274986  12.709   3.175  11.066
24383SOL     OW74987   0.554   1.051   9.904
24383SOL    HW174988   0.595   1.003   9.975
24383SOL    HW274989   0.488   1.106   9.947
24384SOL     OW74990  12.403   2.886  13.821
24384SOL    HW174991  12.455   2.902  13.900
24384SOL    HW274992  12.459   2.916  13.749
24385SOL     OW74993   9.615  13.167   4.209
24385SOL    HW174994   9.677  13.183   4.280
24385SOL    HW274995   9.640  13.081   4.174
24386SOL     OW74996   9.369   9.027  12.652
24386SOL    HW174997   9.395   9.010  12.743
24386SOL    HW274998   9.452   9.034  12.604
24387SOL     OW74999   8.713  11.493  12.434
24387SOL    HW175000   8.790  11.456  12.390
24387SOL    HW275001   8.745  11.519  12.521
24388SOL     OW75002  12.936   1.800   6.133
24388SOL    HW175003  12.980   1.771   6.213
24388SOL    HW275004  12.849   1.761   6.138
24389SOL     OW75005  12.433   0.597   0.241
24389SOL    HW175006  12.414   0.551   0.159
24389SOL    HW275007  12.423   0.530   0.309
24390SOL     OW75008   1.192  10.818   1.884
24390SOL    HW175009   1.285  10.838   1.872
24390SOL    HW275010   1.168  10.863   1.965
24391SOL     OW75011  13.334   8.282   8.225
24391SOL    HW175012  13.303   8.369   8.252
24391SOL    HW275013  13.429   8.287   8.237
24392SOL     OW75014   5.407   4.663  10.498
24392SOL    HW175015   5.332   4.723  10.506
24392SOL    HW275016   5.454   4.694  10.421
24393SOL     OW75017   3.466  13.284   1.289
24393SOL    HW175018   3.547  13.233   1.296
24393SOL    HW275019   3.407  13.242   1.352
24394SOL     OW75020  10.663   3.907   1.097
24394SOL    HW175021  10.715   3.829   1.118
24394SOL    HW275022  10.644   3.947   1.182
24395SOL     OW75023   6.247   5.165  10.041
24395SOL    HW175024   6.213   5.079  10.015
24395SOL    HW275025   6.174   5.225  10.024
24396SOL     OW75026   6.866   8.084  13.497
24396SOL    HW175027   6.842   8.036  13.577
24396SOL    HW275028   6.938   8.141  13.524
24397SOL     OW75029   1.048   1.746   7.160
24397SOL    HW175030   1.070   1.725   7.251
24397SOL    HW275031   1.116   1.807   7.132
24398SOL     OW75032   4.988   6.978  11.954
24398SOL    HW175033   5.079   6.987  11.923
24398SOL    HW275034   4.959   6.895  11.917
24399SOL     OW75035   5.341  10.041  12.274
24399SOL    HW175036   5.403   9.967  12.274
24399SOL    HW275037   5.256  10.000  12.288
24400SOL     OW75038  11.177   2.542  14.346
24400SOL    HW175039  11.137   2.532  14.432
24400SOL    HW275040  11.193   2.636  14.337
24401SOL     OW75041   4.990  14.248   1.696
24401SOL    HW175042   5.047  14.269   1.623
24401SOL    HW275043   4.982  14.330   1.746
24402SOL     OW75044   3.127   1.836   6.353
24402SOL    HW175045   3.036   1.864   6.360
24402SOL    HW275046   3.130   1.780   6.276
24403SOL     OW75047   3.647  10.404   1.099
24403SOL    HW175048   3.725  10.450   1.130
24403SOL    HW275049   3.577  10.468   1.107
24404SOL     OW75050   6.652  12.605   2.689
24404SOL    HW175051   6.722  12.668   2.706
24404SOL    HW275052   6.697  12.520   2.686
24405SOL     OW75053  11.170  10.840   0.865
24405SOL    HW175054  11.098  10.894   0.897
24405SOL    HW275055  11.203  10.885   0.787
24406SOL     OW75056  10.908   5.143   1.164
24406SOL    HW175057  10.913   5.048   1.174
24406SOL    HW275058  10.994   5.169   1.133
24407SOL     OW75059   0.375   4.554  13.888
24407SOL    HW175060   0.360   4.563  13.794
24407SOL    HW275061   0.290   4.527  13.923
24408SOL     OW75062   6.161   2.380  13.943
24408SOL    HW175063   6.192   2.431  14.018
24408SOL    HW275064   6.233   2.384  13.880
24409SOL     OW75065   4.366  13.360   2.627
24409SOL    HW175066   4.430  13.426   2.654
24409SOL    HW275067   4.376  13.289   2.691
24410SOL     OW75068  11.313   8.886  12.887
24410SOL    HW175069  11.230   8.924  12.916
24410SOL    HW275070  11.303   8.875  12.792
24411SOL     OW75071  11.176   0.666   2.075
24411SOL    HW175072  11.260   0.710   2.067
24411SOL    HW275073  11.143   0.692   2.161
24412SOL     OW75074   5.051   1.158  12.298
24412SOL    HW175075   5.073   1.193  12.211
24412SOL    HW275076   5.129   1.110  12.325
24413SOL     OW75077  12.263   8.415   2.272
24413SOL    HW175078  12.301   8.343   2.322
24413SOL    HW275079  12.331   8.483   2.270
24414SOL     OW75080  12.653   6.415   8.696
24414SOL    HW175081  12.609   6.383   8.775
24414SOL    HW275082  12.604   6.494   8.673
24415SOL     OW75083   8.527   8.967  14.222
24415SOL    HW175084   8.620   8.986  14.209
24415SOL    HW275085   8.520   8.873  14.207
24416SOL     OW75086   1.944   0.709   6.934
24416SOL    HW175087   1.865   0.753   6.902
24416SOL    HW275088   1.956   0.743   7.022
24417SOL     OW75089   2.068   8.085   4.554
24417SOL    HW175090   2.078   8.176   4.584
24417SOL    HW275091   1.973   8.074   4.542
24418SOL     OW75092   4.709   0.449  11.773
24418SOL    HW175093   4.638   0.388  11.792
24418SOL    HW275094   4.753   0.411  11.697
24419SOL     OW75095   2.631   2.982   1.293
24419SOL    HW175096   2.582   3.003   1.372
24419SOL    HW275097   2.610   3.053   1.232
24420SOL     OW75098   5.222  12.902   5.480
24420SOL    HW175099   5.184  12.955   5.551
24420SOL    HW275100   5.313  12.930   5.476
24421SOL     OW75101   4.289   5.945   1.557
24421SOL    HW175102   4.361   5.967   1.498
24421SOL    HW275103   4.219   5.914   1.499
24422SOL     OW75104  10.713   8.899   6.760
24422SOL    HW175105  10.802   8.876   6.732
24422SOL    HW275106  10.693   8.980   6.714
24423SOL     OW75107   1.670  11.114  11.053
24423SOL    HW175108   1.745  11.092  11.108
24423SOL    HW275109   1.692  11.076  10.968
24424SOL     OW75110  12.677   8.763  11.959
24424SOL    HW175111  12.635   8.686  11.998
24424SOL    HW275112  12.608   8.804  11.907
24425SOL     OW75113   1.762   8.593  13.386
24425SOL    HW175114   1.846   8.554  13.410
24425SOL    HW275115   1.726   8.627  13.468
24426SOL     OW75116   9.946   5.805   1.305
24426SOL    HW175117  10.028   5.836   1.266
24426SOL    HW275118   9.902   5.759   1.233
24427SOL     OW75119  13.854   8.496   6.869
24427SOL    HW175120  13.882   8.515   6.958
24427SOL    HW275121  13.829   8.404   6.870
24428SOL     OW75122   5.029   1.761   6.476
24428SOL    HW175123   5.021   1.736   6.568
24428SOL    HW275124   5.068   1.848   6.479
24429SOL     OW75125   4.949   9.127   3.555
24429SOL    HW175126   4.939   9.165   3.468
24429SOL    HW275127   4.860   9.124   3.590
24430SOL     OW75128   3.456  12.298  13.822
24430SOL    HW175129   3.519  12.335  13.761
24430SOL    HW275130   3.419  12.374  13.867
24431SOL     OW75131  13.709   0.112   6.703
24431SOL    HW175132  13.618   0.108   6.733
24431SOL    HW275133  13.761   0.093   6.782
24432SOL     OW75134  12.655  10.201   6.171
24432SOL    HW175135  12.569  10.175   6.139
24432SOL    HW275136  12.716  10.138   6.132
24433SOL     OW75137   3.943  10.629  11.614
24433SOL    HW175138   3.966  10.721  11.600
24433SOL    HW275139   3.852  10.630  11.645
24434SOL     OW75140   4.148  10.798  13.235
24434SOL    HW175141   4.239  10.799  13.204
24434SOL    HW275142   4.127  10.705  13.243
24435SOL     OW75143  12.644   5.734   1.130
24435SOL    HW175144  12.660   5.775   1.045
24435SOL    HW275145  12.671   5.643   1.119
24436SOL     OW75146   2.391   5.226   5.032
24436SOL    HW175147   2.332   5.260   5.100
24436SOL    HW275148   2.467   5.195   5.080
24437SOL     OW75149  10.382  12.944   7.129
24437SOL    HW175150  10.450  12.930   7.063
24437SOL    HW275151  10.408  13.026   7.173
24438SOL     OW75152  11.808   6.525  10.777
24438SOL    HW175153  11.803   6.566  10.691
24438SOL    HW275154  11.751   6.449  10.771
24439SOL     OW75155   7.214   8.316   0.085
24439SOL    HW175156   7.284   8.357   0.034
24439SOL    HW275157   7.223   8.222   0.069
24440SOL     OW75158  10.935   1.986   5.471
24440SOL    HW175159  10.960   1.992   5.562
24440SOL    HW275160  11.017   1.971   5.424
24441SOL     OW75161   1.464   5.784  13.084
24441SOL    HW175162   1.436   5.802  13.174
24441SOL    HW275163   1.544   5.731  13.095
24442SOL     OW75164  11.665  11.651   6.506
24442SOL    HW175165  11.592  11.644   6.445
24442SOL    HW275166  11.672  11.563   6.544
24443SOL     OW75167   4.059  11.367   0.160
24443SOL    HW175168   4.066  11.406   0.247
24443SOL    HW275169   3.996  11.422   0.114
24444SOL     OW75170   2.601  14.495   9.390
24444SOL    HW175171   2.608  14.400   9.400
24444SOL    HW275172   2.553  14.506   9.307
24445SOL     OW75173   5.727  14.581   7.018
24445SOL    HW175174   5.684  14.499   7.043
24445SOL    HW275175   5.757  14.618   7.101
24446SOL     OW75176   4.522   6.376   5.164
24446SOL    HW175177   4.608   6.413   5.181
24446SOL    HW275178   4.499   6.329   5.243
24447SOL     OW75179  13.197   8.517  10.394
24447SOL    HW175180  13.101   8.524  10.396
24447SOL    HW275181  13.216   8.435  10.440
24448SOL     OW75182   6.383  13.865  11.869
24448SOL    HW175183   6.468  13.833  11.898
24448SOL    HW275184   6.332  13.873  11.950
24449SOL     OW75185   7.553   0.054   1.693
24449SOL    HW175186   7.514   0.096   1.617
24449SOL    HW275187   7.562   0.124   1.758
24450SOL     OW75188  13.345   9.303   6.235
24450SOL    HW175189  13.345   9.358   6.156
24450SOL    HW275190  13.391   9.355   6.301
24451SOL     OW75191   4.522  10.823   2.863
24451SOL    HW175192   4.520  10.820   2.767
24451SOL    HW275193   4.534  10.916   2.884
24452SOL     OW75194  14.259   4.580  14.494
24452SOL    HW175195  14.274   4.509  14.557
24452SOL    HW275196  14.343   4.590  14.449
24453SOL     OW75197   0.179  11.260  12.370
24453SOL    HW175198   0.089  11.285  12.388
24453SOL    HW275199   0.180  11.165  12.378
24454SOL     OW75200   5.929  12.188   8.689
24454SOL    HW175201   5.855  12.235   8.727
24454SOL    HW275202   5.889  12.130   8.623
24455SOL     OW75203   4.410   4.969  12.779
24455SOL    HW175204   4.493   4.929  12.752
24455SOL    HW275205   4.365   4.900  12.829
24456SOL     OW75206  13.641   2.352   6.017
24456SOL    HW175207  13.644   2.432   6.070
24456SOL    HW275208  13.693   2.288   6.066
24457SOL     OW75209   5.288   8.730  11.224
24457SOL    HW175210   5.264   8.645  11.259
24457SOL    HW275211   5.318   8.780  11.301
24458SOL     OW75212   6.784   4.556   4.050
24458SOL    HW175213   6.870   4.584   4.020
24458SOL    HW275214   6.772   4.601   4.134
24459SOL     OW75215   4.589   8.987   0.304
24459SOL    HW175216   4.516   9.037   0.267
24459SOL    HW275217   4.664   9.012   0.251
24460SOL     OW75218   2.648  13.101   4.416
24460SOL    HW175219   2.720  13.071   4.471
24460SOL    HW275220   2.578  13.124   4.477
24461SOL     OW75221   1.472   7.893   9.630
24461SOL    HW175222   1.528   7.816   9.644
24461SOL    HW275223   1.534   7.964   9.610
24462SOL     OW75224   8.042   7.162   5.335
24462SOL    HW175225   8.081   7.075   5.327
24462SOL    HW275226   8.115   7.219   5.360
24463SOL     OW75227   1.456   5.708   7.221
24463SOL    HW175228   1.451   5.802   7.236
24463SOL    HW275229   1.493   5.672   7.302
24464SOL     OW75230   9.252  10.221   9.927
24464SOL    HW175231   9.309  10.297   9.929
24464SOL    HW275232   9.311  10.146   9.939
24465SOL     OW75233  12.615   8.471  13.686
24465SOL    HW175234  12.541   8.411  13.689
24465SOL    HW275235  12.690   8.418  13.715
24466SOL     OW75236   4.108   8.361  14.258
24466SOL    HW175237   4.104   8.432  14.195
24466SOL    HW275238   4.039   8.381  14.322
24467SOL     OW75239   5.753   6.546   4.977
24467SOL    HW175240   5.676   6.589   4.939
24467SOL    HW275241   5.728   6.530   5.068
24468SOL     OW75242   8.485   6.914   9.858
24468SOL    HW175243   8.528   6.947   9.779
24468SOL    HW275244   8.512   6.822   9.863
24469SOL     OW75245   6.943   0.399   3.669
24469SOL    HW175246   6.861   0.439   3.697
24469SOL    HW275247   6.918   0.311   3.641
24470SOL     OW75248   7.801   0.470   1.656
24470SOL    HW175249   7.746   0.456   1.733
24470SOL    HW275250   7.887   0.491   1.691
24471SOL     OW75251   3.200   1.566   4.054
24471SOL    HW175252   3.237   1.536   3.971
24471SOL    HW275253   3.106   1.561   4.042
24472SOL     OW75254   6.605  10.842   8.482
24472SOL    HW175255   6.580  10.929   8.515
24472SOL    HW275256   6.624  10.791   8.560
24473SOL     OW75257   0.707  13.501  11.962
24473SOL    HW175258   0.636  13.545  11.915
24473SOL    HW275259   0.752  13.572  12.008
24474SOL     OW75260  13.523   4.317  11.879
24474SOL    HW175261  13.480   4.286  11.800
24474SOL    HW275262  13.563   4.239  11.917
24475SOL     OW75263   5.390   7.376  10.814
24475SOL    HW175264   5.361   7.302  10.867
24475SOL    HW275265   5.424   7.336  10.734
24476SOL     OW75266   1.458   8.883  11.034
24476SOL    HW175267   1.551   8.905  11.028
24476SOL    HW275268   1.427   8.931  11.110
24477SOL     OW75269   0.449  11.342   7.837
24477SOL    HW175270   0.403  11.267   7.874
24477SOL    HW275271   0.441  11.331   7.742
24478SOL     OW75272   7.804  14.784  14.817
24478SOL    HW175273   7.881  14.731  14.797
24478SOL    HW275274   7.838  14.871  14.835
24479SOL     OW75275   9.897  11.936   1.535
24479SOL    HW175276   9.916  12.030   1.538
24479SOL    HW275277   9.846  11.920   1.615
24480SOL     OW75278   1.747   4.023   6.923
24480SOL    HW175279   1.814   4.069   6.872
24480SOL    HW275280   1.665   4.065   6.897
24481SOL     OW75281  11.694  12.973   2.981
24481SOL    HW175282  11.707  12.958   2.887
24481SOL    HW275283  11.736  12.898   3.023
24482SOL     OW75284  11.795   7.722  13.938
24482SOL    HW175285  11.794   7.727  14.033
24482SOL    HW275286  11.713   7.764  13.911
24483SOL     OW75287   5.525  13.405  14.151
24483SOL    HW175288   5.446  13.457  14.164
24483SOL    HW275289   5.538  13.406  14.056
24484SOL     OW75290  14.775  10.689   4.383
24484SOL    HW175291  14.846  10.701   4.321
24484SOL    HW275292  14.716  10.764   4.368
24485SOL     OW75293  11.594   8.689   8.324
24485SOL    HW175294  11.672   8.670   8.376
24485SOL    HW275295  11.552   8.604   8.312
24486SOL     OW75296  14.708   2.041   0.437
24486SOL    HW175297  14.670   2.124   0.409
24486SOL    HW275298  14.639   2.000   0.489
24487SOL     OW75299  14.333  13.713   1.830
24487SOL    HW175300  14.334  13.795   1.879
24487SOL    HW275301  14.244  13.709   1.793
24488SOL     OW75302   9.143   4.583   8.702
24488SOL    HW175303   9.054   4.550   8.698
24488SOL    HW275304   9.177   4.573   8.614
24489SOL     OW75305   4.990   6.902  13.110
24489SOL    HW175306   5.044   6.889  13.188
24489SOL    HW275307   5.034   6.971  13.061
24490SOL     OW75308   3.355   2.347  14.555
24490SOL    HW175309   3.423   2.345  14.487
24490SOL    HW275310   3.381   2.420  14.612
24491SOL     OW75311   6.870   0.453   6.800
24491SOL    HW175312   6.863   0.547   6.785
24491SOL    HW275313   6.833   0.439   6.887
24492SOL     OW75314   1.275  12.837  14.042
24492SOL    HW175315   1.288  12.930  14.025
24492SOL    HW275316   1.318  12.793  13.969
24493SOL     OW75317   9.045   3.021   3.087
24493SOL    HW175318   9.046   2.926   3.076
24493SOL    HW275319   9.019   3.055   3.002
24494SOL     OW75320   2.944   4.234  11.972
24494SOL    HW175321   2.918   4.174  12.042
24494SOL    HW275322   2.889   4.210  11.898
24495SOL     OW75323   9.112  11.955  14.106
24495SOL    HW175324   9.103  11.860  14.118
24495SOL    HW275325   9.147  11.987  14.189
24496SOL     OW75326  11.965  13.843   2.222
24496SOL    HW175327  11.956  13.749   2.210
24496SOL    HW275328  12.038  13.868   2.165
24497SOL     OW75329  11.907   4.341   9.262
24497SOL    HW175330  11.833   4.297   9.220
24497SOL    HW275331  11.975   4.344   9.195
24498SOL     OW75332  10.239   8.770  14.584
24498SOL    HW175333  10.299   8.700  14.558
24498SOL    HW275334  10.200   8.800  14.501
24499SOL     OW75335  14.589   5.991   7.338
24499SOL    HW175336  14.504   5.984   7.381
24499SOL    HW275337  14.598   6.083   7.315
24500SOL     OW75338  11.103   4.907   0.262
24500SOL    HW175339  11.014   4.930   0.238
24500SOL    HW275340  11.155   4.984   0.239
24501SOL     OW75341   9.165  10.004  12.377
24501SOL    HW175342   9.167   9.909  12.389
24501SOL    HW275343   9.082  10.032  12.416
24502SOL     OW75344   3.931  11.199   0.915
24502SOL    HW175345   4.003  11.164   0.863
24502SOL    HW275346   3.930  11.145   0.994
24503SOL     OW75347  13.710   9.249   7.098
24503SOL    HW175348  13.777   9.298   7.050
24503SOL    HW275349  13.760   9.192   7.157
24504SOL     OW75350   2.702   4.958   0.092
24504SOL    HW175351   2.772   4.955   0.027
24504SOL    HW275352   2.747   4.979   0.174
24505SOL     OW75353   4.880   4.599   7.638
24505SOL    HW175354   4.839   4.550   7.567
24505SOL    HW275355   4.831   4.573   7.716
24506SOL     OW75356  13.811  11.350   1.514
24506SOL    HW175357  13.818  11.418   1.447
24506SOL    HW275358  13.831  11.269   1.469
24507SOL     OW75359  14.478   5.614   2.457
24507SOL    HW175360  14.457   5.695   2.410
24507SOL    HW275361  14.505   5.643   2.544
24508SOL     OW75362   5.635   4.402   7.956
24508SOL    HW175363   5.590   4.320   7.978
24508SOL    HW275364   5.597   4.467   8.015
24509SOL     OW75365   8.354  11.698  11.137
24509SOL    HW175366   8.351  11.618  11.190
24509SOL    HW275367   8.266  11.707  11.101
24510SOL     OW75368   1.825   2.369   2.266
24510SOL    HW175369   1.784   2.299   2.217
24510SOL    HW275370   1.784   2.449   2.232
24511SOL     OW75371   3.834   7.120   7.136
24511SOL    HW175372   3.771   7.166   7.081
24511SOL    HW275373   3.901   7.089   7.076
24512SOL     OW75374   6.914  10.064   6.615
24512SOL    HW175375   6.894   9.976   6.646
24512SOL    HW275376   6.988  10.092   6.669
24513SOL     OW75377   1.536  11.313  12.298
24513SOL    HW175378   1.541  11.391  12.353
24513SOL    HW275379   1.566  11.241  12.355
24514SOL     OW75380  12.717   3.544   7.196
24514SOL    HW175381  12.630   3.506   7.186
24514SOL    HW275382  12.733   3.591   7.114
24515SOL     OW75383  10.597  10.323   6.818
24515SOL    HW175384  10.502  10.333   6.813
24515SOL    HW275385  10.629  10.409   6.845
24516SOL     OW75386   5.645   2.204   7.793
24516SOL    HW175387   5.588   2.281   7.803
24516SOL    HW275388   5.586   2.129   7.801
24517SOL     OW75389  12.830  12.088   2.880
24517SOL    HW175390  12.838  11.993   2.871
24517SOL    HW275391  12.908  12.114   2.930
24518SOL     OW75392  11.831   0.896   3.043
24518SOL    HW175393  11.829   0.831   2.972
24518SOL    HW275394  11.785   0.854   3.115
24519SOL     OW75395  13.678  14.800   3.292
24519SOL    HW175396  13.656  14.849   3.371
24519SOL    HW275397  13.598  14.802   3.240
24520SOL     OW75398  12.502   7.183   9.691
24520SOL    HW175399  12.455   7.100   9.688
24520SOL    HW275400  12.580   7.168   9.637
24521SOL     OW75401  10.016  11.889  11.628
24521SOL    HW175402   9.994  11.974  11.666
24521SOL    HW275403  10.014  11.828  11.702
24522SOL     OW75404   0.461   8.928   2.617
24522SOL    HW175405   0.531   8.884   2.569
24522SOL    HW275406   0.382   8.909   2.567
24523SOL     OW75407   2.682  10.299  11.605
24523SOL    HW175408   2.668  10.372  11.545
24523SOL    HW275409   2.667  10.337  11.692
24524SOL     OW75410  10.114  13.154  10.163
24524SOL    HW175411  10.055  13.223  10.134
24524SOL    HW275412  10.202  13.190  10.149
24525SOL     OW75413   4.529   9.998   2.919
24525SOL    HW175414   4.531   9.998   3.014
24525SOL    HW275415   4.440   9.972   2.897
24526SOL     OW75416   4.042   1.158   3.387
24526SOL    HW175417   4.030   1.110   3.305
24526SOL    HW275418   3.962   1.141   3.436
24527SOL     OW75419  14.237  11.415   4.969
24527SOL    HW175420  14.327  11.429   4.997
24527SOL    HW275421  14.212  11.332   5.010
24528SOL     OW75422   1.478  11.530   1.930
24528SOL    HW175423   1.557  11.580   1.910
24528SOL    HW275424   1.483  11.515   2.024
24529SOL     OW75425   3.284   3.986  14.263
24529SOL    HW175426   3.211   3.925  14.247
24529SOL    HW275427   3.338   3.942  14.328
24530SOL     OW75428  12.238  11.926  10.333
24530SOL    HW175429  12.242  11.889  10.421
24530SOL    HW275430  12.179  11.868  10.285
24531SOL     OW75431  12.736   1.751  14.402
24531SOL    HW175432  12.677   1.677  14.388
24531SOL    HW275433  12.805   1.716  14.458
24532SOL     OW75434  10.592   4.418   1.133
24532SOL    HW175435  10.666   4.430   1.073
24532SOL    HW275436  10.632   4.386   1.213
24533SOL     OW75437   5.317   0.379   3.902
24533SOL    HW175438   5.338   0.286   3.908
24533SOL    HW275439   5.230   0.381   3.862
24534SOL     OW75440   5.305   3.032  12.688
24534SOL    HW175441   5.289   3.047  12.782
24534SOL    HW275442   5.243   2.964  12.664
24535SOL     OW75443   0.093   9.907  12.030
24535SOL    HW175444   0.002   9.878  12.025
24535SOL    HW275445   0.106   9.929  12.122
24536SOL     OW75446  10.896  10.309   6.706
24536SOL    HW175447  10.897  10.351   6.792
24536SOL    HW275448  10.845  10.230   6.718
24537SOL     OW75449   4.178   2.225  13.107
24537SOL    HW175450   4.151   2.157  13.046
24537SOL    HW275451   4.105   2.234  13.168
24538SOL     OW75452   4.113  11.031   2.908
24538SOL    HW175453   4.146  11.110   2.950
24538SOL    HW275454   4.168  10.961   2.943
24539SOL     OW75455  11.031  14.081  12.828
24539SOL    HW175456  10.976  14.105  12.903
24539SOL    HW275457  11.109  14.042  12.868
24540SOL     OW75458   1.496   5.353  12.271
24540SOL    HW175459   1.550   5.321  12.198
24540SOL    HW275460   1.489   5.278  12.330
24541SOL     OW75461   0.675   7.584   4.076
24541SOL    HW175462   0.689   7.490   4.080
24541SOL    HW275463   0.584   7.594   4.048
24542SOL     OW75464   1.716  10.154   7.162
24542SOL    HW175465   1.636  10.107   7.138
24542SOL    HW275466   1.780  10.126   7.096
24543SOL     OW75467   6.549   9.421   9.621
24543SOL    HW175468   6.633   9.430   9.665
24543SOL    HW275469   6.495   9.492   9.655
24544SOL     OW75470   9.532   0.564   8.974
24544SOL    HW175471   9.609   0.508   8.978
24544SOL    HW275472   9.566   0.653   8.988
24545SOL     OW75473   1.085   1.382   2.506
24545SOL    HW175474   1.156   1.410   2.449
24545SOL    HW275475   1.008   1.381   2.449
24546SOL     OW75476   2.248   8.921   8.914
24546SOL    HW175477   2.286   8.936   9.001
24546SOL    HW275478   2.191   8.997   8.900
24547SOL     OW75479  10.321   4.549  14.561
24547SOL    HW175480  10.351   4.463  14.533
24547SOL    HW275481  10.365   4.611  14.502
24548SOL     OW75482   2.592   8.995   6.793
24548SOL    HW175483   2.648   9.070   6.772
24548SOL    HW275484   2.512   9.010   6.742
24549SOL     OW75485   4.427   2.251  11.575
24549SOL    HW175486   4.520   2.232  11.571
24549SOL    HW275487   4.386   2.169  11.603
24550SOL     OW75488  12.345   3.514  12.280
24550SOL    HW175489  12.413   3.561  12.233
24550SOL    HW275490  12.306   3.456  12.214
24551SOL     OW75491   6.656   4.125   4.105
24551SOL    HW175492   6.662   4.204   4.160
24551SOL    HW275493   6.639   4.054   4.167
24552SOL     OW75494   0.208   0.130   8.497
24552SOL    HW175495   0.189   0.037   8.506
24552SOL    HW275496   0.265   0.150   8.572
24553SOL     OW75497  11.613   6.111  14.538
24553SOL    HW175498  11.561   6.167  14.480
24553SOL    HW275499  11.693   6.160  14.555
24554SOL     OW75500   3.457  13.595   2.833
24554SOL    HW175501   3.395  13.546   2.887
24554SOL    HW275502   3.452  13.553   2.747
24555SOL     OW75503   2.055   8.364   1.135
24555SOL    HW175504   2.101   8.433   1.088
24555SOL    HW275505   1.988   8.410   1.185
24556SOL     OW75506   1.420   6.508   2.330
24556SOL    HW175507   1.341   6.562   2.331
24556SOL    HW275508   1.488   6.565   2.295
24557SOL     OW75509   8.257   9.280   0.772
24557SOL    HW175510   8.334   9.240   0.813
24557SOL    HW275511   8.208   9.206   0.735
24558SOL     OW75512   6.377   0.533   0.197
24558SOL    HW175513   6.369   0.625   0.173
24558SOL    HW275514   6.288   0.498   0.193
24559SOL     OW75515  14.815   6.274   5.496
24559SOL    HW175516  14.725   6.306   5.492
24559SOL    HW275517  14.810   6.183   5.465
24560SOL     OW75518   3.060   4.058   7.498
24560SOL    HW175519   3.051   3.974   7.542
24560SOL    HW275520   3.131   4.102   7.545
24561SOL     OW75521   6.700  10.125   6.884
24561SOL    HW175522   6.723  10.209   6.924
24561SOL    HW275523   6.617  10.101   6.925
24562SOL     OW75524   9.344   1.307   3.961
24562SOL    HW175525   9.253   1.335   3.971
24562SOL    HW275526   9.365   1.261   4.042
24563SOL     OW75527  14.129  11.600   7.666
24563SOL    HW175528  14.091  11.522   7.625
24563SOL    HW275529  14.124  11.668   7.598
24564SOL     OW75530  10.556   4.662   4.923
24564SOL    HW175531  10.491   4.732   4.918
24564SOL    HW275532  10.633   4.697   4.879
24565SOL     OW75533  13.515   2.845   8.245
24565SOL    HW175534  13.494   2.857   8.338
24565SOL    HW275535  13.478   2.922   8.202
24566SOL     OW75536   4.277   1.207   1.781
24566SOL    HW175537   4.297   1.116   1.802
24566SOL    HW275538   4.262   1.207   1.686
24567SOL     OW75539   1.599  14.716  11.603
24567SOL    HW175540   1.656  14.758  11.668
24567SOL    HW275541   1.655  14.699  11.528
24568SOL     OW75542   7.519  11.484   8.673
24568SOL    HW175543   7.524  11.400   8.720
24568SOL    HW275544   7.560  11.546   8.733
24569SOL     OW75545  14.225  14.784  14.324
24569SOL    HW175546  14.310  14.781  14.367
24569SOL    HW275547  14.208  14.693  14.299
24570SOL     OW75548  11.947   3.089   1.044
24570SOL    HW175549  12.001   3.011   1.037
24570SOL    HW275550  12.005   3.155   1.084
24571SOL     OW75551   2.212  14.590   0.649
24571SOL    HW175552   2.128  14.634   0.663
24571SOL    HW275553   2.191  14.497   0.647
24572SOL     OW75554   3.850  10.002   6.036
24572SOL    HW175555   3.935  10.039   6.061
24572SOL    HW275556   3.818  10.060   5.967
24573SOL     OW75557   1.742   5.354   5.910
24573SOL    HW175558   1.833   5.346   5.941
24573SOL    HW275559   1.736   5.444   5.879
24574SOL     OW75560   9.044  12.310  12.049
24574SOL    HW175561   8.959  12.266  12.050
24574SOL    HW275562   9.023  12.403  12.057
24575SOL     OW75563   0.469   3.845  11.621
24575SOL    HW175564   0.534   3.894  11.672
24575SOL    HW275565   0.409   3.809  11.687
24576SOL     OW75566  10.634  14.392  10.683
24576SOL    HW175567  10.655  14.360  10.770
24576SOL    HW275568  10.558  14.448  10.696
24577SOL     OW75569   2.170  13.308   6.984
24577SOL    HW175570   2.159  13.332   6.892
24577SOL    HW275571   2.118  13.372   7.033
24578SOL     OW75572   9.451   7.194   6.390
24578SOL    HW175573   9.406   7.211   6.307
24578SOL    HW275574   9.514   7.266   6.398
24579SOL     OW75575  10.427   3.131   8.009
24579SOL    HW175576  10.342   3.098   7.980
24579SOL    HW275577  10.468   3.056   8.052
24580SOL     OW75578   5.259  13.396  11.084
24580SOL    HW175579   5.268  13.340  11.008
24580SOL    HW275580   5.335  13.453  11.082
24581SOL     OW75581   6.109  11.967   2.780
24581SOL    HW175582   6.063  11.883   2.783
24581SOL    HW275583   6.053  12.023   2.726
24582SOL     OW75584   7.061   9.583   9.445
24582SOL    HW175585   7.056   9.664   9.394
24582SOL    HW275586   6.975   9.574   9.485
24583SOL     OW75587   1.864   5.627   7.252
24583SOL    HW175588   1.912   5.604   7.173
24583SOL    HW275589   1.923   5.687   7.298
24584SOL     OW75590  14.735   4.982   4.920
24584SOL    HW175591  14.797   4.919   4.885
24584SOL    HW275592  14.707   4.945   5.004
24585SOL     OW75593   8.625   7.776   6.228
24585SOL    HW175594   8.682   7.780   6.151
24585SOL    HW275595   8.684   7.754   6.300
24586SOL     OW75596   4.447  14.412   4.995
24586SOL    HW175597   4.511  14.343   5.011
24586SOL    HW275598   4.428  14.406   4.901
24587SOL     OW75599  11.129   6.894   8.867
24587SOL    HW175600  11.195   6.917   8.932
24587SOL    HW275601  11.053   6.866   8.918
24588SOL     OW75602   9.819   2.342  13.316
24588SOL    HW175603   9.732   2.364  13.349
24588SOL    HW275604   9.880   2.378  13.380
24589SOL     OW75605   5.772  14.431   9.950
24589SOL    HW175606   5.813  14.355   9.909
24589SOL    HW275607   5.715  14.466   9.882
24590SOL     OW75608  13.444  12.504  10.118
24590SOL    HW175609  13.467  12.526  10.208
24590SOL    HW275610  13.519  12.534  10.066
24591SOL     OW75611   7.574  13.246  11.886
24591SOL    HW175612   7.545  13.207  11.968
24591SOL    HW275613   7.670  13.239  11.889
24592SOL     OW75614   2.680  14.533   2.304
24592SOL    HW175615   2.593  14.531   2.265
24592SOL    HW275616   2.739  14.557   2.233
24593SOL     OW75617   5.342   5.210   1.453
24593SOL    HW175618   5.429   5.176   1.436
24593SOL    HW275619   5.344   5.235   1.545
24594SOL     OW75620   1.996   4.484   2.584
24594SOL    HW175621   1.927   4.550   2.589
24594SOL    HW275622   1.953   4.407   2.548
24595SOL     OW75623  12.877   1.450   2.134
24595SOL    HW175624  12.790   1.419   2.108
24595SOL    HW275625  12.937   1.382   2.103
24596SOL     OW75626   1.595  13.670   6.805
24596SOL    HW175627   1.680  13.681   6.848
24596SOL    HW275628   1.537  13.639   6.875
24597SOL     OW75629   7.780   1.443   8.659
24597SOL    HW175630   7.719   1.508   8.626
24597SOL    HW275631   7.840   1.493   8.715
24598SOL     OW75632   0.969  13.221   6.042
24598SOL    HW175633   0.977  13.207   5.947
24598SOL    HW275634   1.059  13.228   6.072
24599SOL     OW75635   3.233   7.370  13.336
24599SOL    HW175636   3.175   7.444  13.355
24599SOL    HW275637   3.191   7.324  13.264
24600SOL     OW75638  13.809   8.700   8.558
24600SOL    HW175639  13.841   8.613   8.582
24600SOL    HW275640  13.874   8.760   8.595
24601SOL     OW75641  14.114  14.420  13.639
24601SOL    HW175642  14.069  14.336  13.646
24601SOL    HW275643  14.103  14.446  13.548
24602SOL     OW75644   0.662   2.063  14.412
24602SOL    HW175645   0.669   2.148  14.368
24602SOL    HW275646   0.645   2.001  14.341
24603SOL     OW75647  11.942  14.551   8.814
24603SOL    HW175648  11.954  14.628   8.869
24603SOL    HW275649  11.933  14.586   8.725
24604SOL     OW75650  12.970   3.678   5.226
24604SOL    HW175651  12.939   3.764   5.254
24604SOL    HW275652  12.954   3.675   5.132
24605SOL     OW75653   3.361   4.553   7.416
24605SOL    HW175654   3.418   4.629   7.428
24605SOL    HW275655   3.272   4.589   7.414
24606SOL     OW75656  14.552   6.264  10.797
24606SOL    HW175657  14.533   6.263  10.704
24606SOL    HW275658  14.647   6.279  10.802
24607SOL     OW75659   2.084  12.666  10.177
24607SOL    HW175660   2.113  12.747  10.136
24607SOL    HW275661   2.073  12.605  10.103
24608SOL     OW75662   3.425  14.232  14.848
24608SOL    HW175663   3.476  14.275   0.040
24608SOL    HW275664   3.486  14.224  14.774
24609SOL     OW75665  12.088   0.415  13.547
24609SOL    HW175666  12.027   0.430  13.619
24609SOL    HW275667  12.042   0.355  13.488
24610SOL     OW75668  13.418  11.854   3.656
24610SOL    HW175669  13.481  11.793   3.619
24610SOL    HW275670  13.409  11.922   3.589
24611SOL     OW75671   6.622   2.384  13.515
24611SOL    HW175672   6.649   2.297  13.486
24611SOL    HW275673   6.627   2.438  13.436
24612SOL     OW75674   0.027  10.504  10.777
24612SOL    HW175675  14.855  10.581  10.805
24612SOL    HW275676  14.863  10.478  10.694
24613SOL     OW75677   9.275   5.836  10.407
24613SOL    HW175678   9.320   5.754  10.389
24613SOL    HW275679   9.299   5.894  10.335
24614SOL     OW75680   5.596   1.739   6.804
24614SOL    HW175681   5.647   1.711   6.729
24614SOL    HW275682   5.629   1.826   6.825
24615SOL     OW75683  11.833  13.638  12.885
24615SOL    HW175684  11.877  13.719  12.862
24615SOL    HW275685  11.748  13.665  12.921
24616SOL     OW75686  11.777   8.394   7.757
24616SOL    HW175687  11.753   8.474   7.804
24616SOL    HW275688  11.726   8.398   7.676
24617SOL     OW75689   7.298  13.519   1.945
24617SOL    HW175690   7.213  13.562   1.957
24617SOL    HW275691   7.350  13.582   1.896
24618SOL     OW75692   6.706   7.185   3.479
24618SOL    HW175693   6.652   7.112   3.507
24618SOL    HW275694   6.788   7.175   3.527
24619SOL     OW75695  10.409  14.617   7.243
24619SOL    HW175696  10.382  14.695   7.290
24619SOL    HW275697  10.438  14.556   7.312
24620SOL     OW75698   8.529  11.697   7.157
24620SOL    HW175699   8.511  11.662   7.070
24620SOL    HW275700   8.450  11.748   7.178
24621SOL     OW75701  13.232  10.174   1.500
24621SOL    HW175702  13.197  10.142   1.584
24621SOL    HW275703  13.296  10.107   1.475
24622SOL     OW75704  12.546  10.839  14.324
24622SOL    HW175705  12.532  10.919  14.274
24622SOL    HW275706  12.551  10.868  14.415
24623SOL     OW75707   2.065   7.447   5.062
24623SOL    HW175708   2.076   7.524   5.005
24623SOL    HW275709   1.971   7.444   5.080
24624SOL     OW75710   4.268  14.686   4.266
24624SOL    HW175711   4.291  14.632   4.190
24624SOL    HW275712   4.343  14.677   4.325
24625SOL     OW75713   1.054   4.153   5.771
24625SOL    HW175714   0.999   4.100   5.829
24625SOL    HW275715   1.143   4.127   5.792
24626SOL     OW75716   5.817   4.469  13.235
24626SOL    HW175717   5.803   4.532  13.165
24626SOL    HW275718   5.766   4.392  13.210
24627SOL     OW75719   1.165   8.542  12.518
24627SOL    HW175720   1.166   8.620  12.574
24627SOL    HW275721   1.094   8.489  12.553
24628SOL     OW75722   8.765   0.134   8.360
24628SOL    HW175723   8.688   0.176   8.321
24628SOL    HW275724   8.757   0.042   8.336
24629SOL     OW75725  10.305   4.841   1.695
24629SOL    HW175726  10.238   4.898   1.659
24629SOL    HW275727  10.319   4.775   1.627
24630SOL     OW75728   5.657   1.507  11.737
24630SOL    HW175729   5.615   1.549  11.663
24630SOL    HW275730   5.638   1.414  11.726
24631SOL     OW75731   8.004   2.668  12.206
24631SOL    HW175732   7.962   2.641  12.124
24631SOL    HW275733   7.937   2.656  12.273
24632SOL     OW75734   9.465   4.918   9.887
24632SOL    HW175735   9.399   4.873   9.835
24632SOL    HW275736   9.547   4.904   9.840
24633SOL     OW75737  14.429  13.906   3.269
24633SOL    HW175738  14.451  13.996   3.295
24633SOL    HW275739  14.357  13.917   3.206
24634SOL     OW75740  14.802  10.681   1.223
24634SOL    HW175741  14.739  10.693   1.295
24634SOL    HW275742  14.859  10.610   1.253
24635SOL     OW75743   9.504   8.137   9.763
24635SOL    HW175744   9.580   8.196   9.768
24635SOL    HW275745   9.511   8.097   9.676
24636SOL     OW75746   3.035  14.722  13.506
24636SOL    HW175747   2.998  14.781  13.572
24636SOL    HW275748   3.071  14.649  13.558
24637SOL     OW75749   5.740   2.183  13.563
24637SOL    HW175750   5.736   2.260  13.620
24637SOL    HW275751   5.771   2.218  13.479
24638SOL     OW75752  14.214   2.604   5.345
24638SOL    HW175753  14.138   2.662   5.354
24638SOL    HW275754  14.209   2.573   5.255
24639SOL     OW75755  12.514   5.287   9.965
24639SOL    HW175756  12.509   5.238   9.884
24639SOL    HW275757  12.510   5.221  10.034
24640SOL     OW75758  10.168   7.855   6.028
24640SOL    HW175759  10.158   7.942   6.067
24640SOL    HW275760  10.230   7.810   6.084
24641SOL     OW75761   2.185   4.555   5.063
24641SOL    HW175762   2.264   4.518   5.104
24641SOL    HW275763   2.133   4.478   5.038
24642SOL     OW75764   1.310   3.254  11.950
24642SOL    HW175765   1.328   3.336  11.904
24642SOL    HW275766   1.394   3.208  11.951
24643SOL     OW75767  10.140  11.412  13.006
24643SOL    HW175768  10.063  11.434  13.058
24643SOL    HW275769  10.192  11.355  13.062
24644SOL     OW75770   4.077  11.409   3.857
24644SOL    HW175771   4.074  11.476   3.926
24644SOL    HW275772   4.110  11.331   3.902
24645SOL     OW75773  11.325   3.624   4.656
24645SOL    HW175774  11.419   3.625   4.642
24645SOL    HW275775  11.291   3.574   4.582
24646SOL     OW75776   7.141   3.378  11.211
24646SOL    HW175777   7.089   3.354  11.134
24646SOL    HW275778   7.138   3.473  11.213
24647SOL     OW75779   2.367   2.002   3.188
24647SOL    HW175780   2.402   2.028   3.103
24647SOL    HW275781   2.275   1.983   3.171
24648SOL     OW75782   9.930   9.931   0.156
24648SOL    HW175783   9.887  10.017   0.153
24648SOL    HW275784   9.936   9.904   0.064
24649SOL     OW75785  10.081  12.846   9.517
24649SOL    HW175786  10.054  12.829   9.427
24649SOL    HW275787  10.065  12.940   9.530
24650SOL     OW75788   5.657  10.770   3.580
24650SOL    HW175789   5.629  10.834   3.645
24650SOL    HW275790   5.744  10.799   3.553
24651SOL     OW75791   0.119   8.267  14.414
24651SOL    HW175792   0.053   8.254  14.346
24651SOL    HW275793   0.192   8.308  14.369
24652SOL     OW75794   7.907   4.672   3.512
24652SOL    HW175795   7.962   4.624   3.450
24652SOL    HW275796   7.917   4.624   3.595
24653SOL     OW75797  13.769   1.891   1.514
24653SOL    HW175798  13.718   1.826   1.562
24653SOL    HW275799  13.811   1.842   1.443
24654SOL     OW75800  10.490  12.346   7.439
24654SOL    HW175801  10.530  12.395   7.511
24654SOL    HW275802  10.562  12.295   7.401
24655SOL     OW75803   8.362   0.631  10.011
24655SOL    HW175804   8.438   0.690  10.010
24655SOL    HW275805   8.288   0.686   9.987
24656SOL     OW75806   8.257   9.793  10.580
24656SOL    HW175807   8.217   9.761  10.499
24656SOL    HW275808   8.340   9.831  10.553
24657SOL     OW75809  11.774   3.658   9.238
24657SOL    HW175810  11.777   3.595   9.310
24657SOL    HW275811  11.762   3.605   9.159
24658SOL     OW75812   1.184   2.187   6.418
24658SOL    HW175813   1.092   2.171   6.440
24658SOL    HW275814   1.225   2.210   6.501
24659SOL     OW75815   5.258   2.922   1.348
24659SOL    HW175816   5.186   2.956   1.296
24659SOL    HW275817   5.316   2.997   1.361
24660SOL     OW75818   8.834   6.157   4.170
24660SOL    HW175819   8.900   6.200   4.225
24660SOL    HW275820   8.800   6.086   4.225
24661SOL     OW75821   6.154  10.745   0.556
24661SOL    HW175822   6.133  10.722   0.466
24661SOL    HW275823   6.074  10.724   0.605
24662SOL     OW75824   8.222   5.009  14.194
24662SOL    HW175825   8.293   4.956  14.158
24662SOL    HW275826   8.236   5.007  14.289
24663SOL     OW75827   7.104   9.699   3.628
24663SOL    HW175828   7.056   9.617   3.616
24663SOL    HW275829   7.104   9.714   3.723
24664SOL     OW75830  12.127   7.547  14.198
24664SOL    HW175831  12.142   7.591  14.281
24664SOL    HW275832  12.156   7.457  14.212
24665SOL     OW75833  12.031   9.043   0.125
24665SOL    HW175834  11.978   9.067   0.201
24665SOL    HW275835  11.971   9.047   0.051
24666SOL     OW75836   0.553   3.284  12.017
24666SOL    HW175837   0.563   3.236  11.934
24666SOL    HW275838   0.539   3.215  12.082
24667SOL     OW75839   3.707   4.512   6.987
24667SOL    HW175840   3.774   4.497   7.054
24667SOL    HW275841   3.684   4.604   6.996
24668SOL     OW75842   1.133   3.961  11.354
24668SOL    HW175843   1.151   3.932  11.264
24668SOL    HW275844   1.070   3.898  11.388
24669SOL     OW75845   1.259   9.255   7.885
24669SOL    HW175846   1.178   9.271   7.933
24669SOL    HW275847   1.296   9.177   7.926
24670SOL     OW75848   5.385   7.924   3.284
24670SOL    HW175849   5.393   7.833   3.311
24670SOL    HW275850   5.447   7.971   3.340
24671SOL     OW75851   0.417   6.472   8.279
24671SOL    HW175852   0.364   6.402   8.317
24671SOL    HW275853   0.475   6.428   8.217
24672SOL     OW75854   5.579  10.346   2.392
24672SOL    HW175855   5.489  10.352   2.425
24672SOL    HW275856   5.602  10.253   2.404
24673SOL     OW75857  11.753  13.977  13.517
24673SOL    HW175858  11.693  13.937  13.453
24673SOL    HW275859  11.787  14.055  13.472
24674SOL     OW75860  13.219   8.868   3.087
24674SOL    HW175861  13.298   8.817   3.104
24674SOL    HW275862  13.183   8.830   3.007
24675SOL     OW75863   1.443  11.112  11.710
24675SOL    HW175864   1.491  11.034  11.738
24675SOL    HW275865   1.509  11.182  11.712
24676SOL     OW75866  11.332  14.376   6.996
24676SOL    HW175867  11.351  14.310   7.063
24676SOL    HW275868  11.250  14.346   6.956
24677SOL     OW75869   2.279   6.200  12.574
24677SOL    HW175870   2.263   6.146  12.496
24677SOL    HW275871   2.202   6.185  12.629
24678SOL     OW75872   9.174  12.644   0.433
24678SOL    HW175873   9.120  12.716   0.465
24678SOL    HW275874   9.243  12.635   0.499
24679SOL     OW75875   1.460   6.097  10.192
24679SOL    HW175876   1.470   6.080  10.286
24679SOL    HW275877   1.417   6.182  10.188
24680SOL     OW75878   3.661  11.276   8.957
24680SOL    HW175879   3.685  11.197   8.909
24680SOL    HW275880   3.567  11.285   8.943
24681SOL     OW75881   1.489  12.195   7.953
24681SOL    HW175882   1.500  12.195   7.858
24681SOL    HW275883   1.525  12.111   7.981
24682SOL     OW75884   2.025   6.976   5.992
24682SOL    HW175885   2.022   6.979   6.088
24682SOL    HW275886   2.029   7.068   5.966
24683SOL     OW75887   7.838  11.875  10.547
24683SOL    HW175888   7.911  11.831  10.590
24683SOL    HW275889   7.821  11.952  10.601
24684SOL     OW75890  13.228   3.635   0.199
24684SOL    HW175891  13.261   3.549   0.173
24684SOL    HW275892  13.183   3.668   0.121
24685SOL     OW75893   0.653  13.970   2.935
24685SOL    HW175894   0.715  13.917   2.885
24685SOL    HW275895   0.653  14.055   2.893
24686SOL     OW75896   1.823   3.809   9.003
24686SOL    HW175897   1.874   3.887   9.020
24686SOL    HW275898   1.861   3.742   9.060
24687SOL     OW75899   2.344   3.361   1.471
24687SOL    HW175900   2.396   3.281   1.473
24687SOL    HW275901   2.266   3.341   1.523
24688SOL     OW75902  11.393   0.411   3.593
24688SOL    HW175903  11.309   0.423   3.637
24688SOL    HW275904  11.422   0.500   3.573
24689SOL     OW75905   0.111  13.705  13.057
24689SOL    HW175906   0.159  13.701  12.974
24689SOL    HW275907   0.175  13.676  13.123
24690SOL     OW75908  11.465   2.978   9.995
24690SOL    HW175909  11.460   2.912   9.926
24690SOL    HW275910  11.376   3.012  10.002
24691SOL     OW75911  13.989  14.112  14.500
24691SOL    HW175912  13.913  14.152  14.543
24691SOL    HW275913  14.059  14.117  14.565
24692SOL     OW75914   6.252  14.765  14.209
24692SOL    HW175915   6.283  14.816  14.134
24692SOL    HW275916   6.330  14.717  14.239
24693SOL     OW75917   0.425   4.570  14.690
24693SOL    HW175918   0.451   4.482  14.661
24693SOL    HW275919   0.499   4.602  14.740
24694SOL     OW75920   6.326   3.452  13.610
24694SOL    HW175921   6.387   3.432  13.539
24694SOL    HW275922   6.279   3.370  13.626
24695SOL     OW75923   6.694   4.288   7.756
24695SOL    HW175924   6.613   4.311   7.800
24695SOL    HW275925   6.668   4.267   7.666
24696SOL     OW75926   1.126  13.978   0.919
24696SOL    HW175927   1.171  14.063   0.919
24696SOL    HW275928   1.041  13.997   0.958
24697SOL     OW75929   5.258   3.268   5.012
24697SOL    HW175930   5.255   3.362   5.034
24697SOL    HW275931   5.218   3.225   5.087
24698SOL     OW75932   9.121   9.539   0.887
24698SOL    HW175933   9.196   9.483   0.869
24698SOL    HW275934   9.151   9.598   0.956
24699SOL     OW75935  12.557   2.545   6.918
24699SOL    HW175936  12.503   2.538   6.997
24699SOL    HW275937  12.641   2.505   6.943
24700SOL     OW75938  12.784  14.730   3.020
24700SOL    HW175939  12.762  14.702   2.931
24700SOL    HW275940  12.838  14.658   3.054
24701SOL     OW75941  12.034  10.081   5.230
24701SOL    HW175942  11.984  10.036   5.298
24701SOL    HW275943  11.991  10.056   5.148
24702SOL     OW75944   4.217   8.434   1.187
24702SOL    HW175945   4.216   8.499   1.116
24702SOL    HW275946   4.243   8.484   1.264
24703SOL     OW75947   7.353   0.372   5.983
24703SOL    HW175948   7.393   0.348   5.900
24703SOL    HW275949   7.259   0.354   5.971
24704SOL     OW75950   6.875   2.549   6.016
24704SOL    HW175951   6.844   2.516   5.932
24704SOL    HW275952   6.931   2.479   6.050
24705SOL     OW75953   3.912   5.672  11.188
24705SOL    HW175954   3.919   5.576  11.193
24705SOL    HW275955   3.992   5.699  11.142
24706SOL     OW75956  10.073   9.563  10.358
24706SOL    HW175957  10.131   9.497  10.395
24706SOL    HW275958   9.985   9.532  10.379
24707SOL     OW75959   6.499   2.052  12.704
24707SOL    HW175960   6.452   2.036  12.622
24707SOL    HW275961   6.430   2.064  12.770
24708SOL     OW75962  10.518   1.970  12.978
24708SOL    HW175963  10.505   1.876  12.973
24708SOL    HW275964  10.595   1.987  12.924
24709SOL     OW75965   3.543  11.844  10.500
24709SOL    HW175966   3.521  11.831  10.592
24709SOL    HW275967   3.467  11.889  10.463
24710SOL     OW75968   2.978   8.582  11.454
24710SOL    HW175969   2.951   8.648  11.518
24710SOL    HW275970   2.897   8.545  11.420
24711SOL     OW75971   2.374   7.951  10.138
24711SOL    HW175972   2.452   7.906  10.170
24711SOL    HW275973   2.375   7.936  10.043
24712SOL     OW75974   3.545  12.820   8.400
24712SOL    HW175975   3.502  12.739   8.374
24712SOL    HW275976   3.617  12.793   8.457
24713SOL     OW75977   2.250   4.042   6.392
24713SOL    HW175978   2.279   4.011   6.306
24713SOL    HW275979   2.329   4.036   6.446
24714SOL     OW75980  11.926   1.364   0.903
24714SOL    HW175981  11.990   1.318   0.957
24714SOL    HW275982  11.841   1.338   0.939
24715SOL     OW75983  13.622  10.227   7.427
24715SOL    HW175984  13.615  10.323   7.430
24715SOL    HW275985  13.665  10.204   7.510
24716SOL     OW75986   5.824   3.654   0.097
24716SOL    HW175987   5.830   3.627   0.005
24716SOL    HW275988   5.834   3.573   0.146
24717SOL     OW75989   6.600   3.521  12.873
24717SOL    HW175990   6.536   3.516  12.945
24717SOL    HW275991   6.615   3.615  12.863
24718SOL     OW75992   9.165  13.106   3.733
24718SOL    HW175993   9.207  13.130   3.650
24718SOL    HW275994   9.075  13.136   3.723
24719SOL     OW75995   3.761   1.468   5.193
24719SOL    HW175996   3.798   1.412   5.125
24719SOL    HW275997   3.792   1.430   5.275
24720SOL     OW75998   0.556   3.720   2.002
24720SOL    HW175999   0.574   3.643   2.055
24720SOL    HW276000   0.568   3.691   1.912
24721SOL     OW76001   6.428   8.780   1.724
24721SOL    HW176002   6.370   8.825   1.663
24721SOL    HW276003   6.516   8.811   1.700
24722SOL     OW76004   9.966   2.026  10.668
24722SOL    HW176005  10.016   1.979  10.734
24722SOL    HW276006  10.027   2.090  10.632
24723SOL     OW76007   9.850   3.236   7.194
24723SOL    HW176008   9.764   3.209   7.226
24723SOL    HW276009   9.841   3.330   7.177
24724SOL     OW76010   9.693   4.008   5.339
24724SOL    HW176011   9.691   3.939   5.274
24724SOL    HW276012   9.673   3.964   5.422
24725SOL     OW76013   9.460   4.626  11.792
24725SOL    HW176014   9.497   4.571  11.722
24725SOL    HW276015   9.536   4.669  11.831
24726SOL     OW76016   9.762  13.434   7.889
24726SOL    HW176017   9.715  13.426   7.806
24726SOL    HW276018   9.699  13.475   7.949
24727SOL     OW76019  11.963   1.554   6.915
24727SOL    HW176020  11.965   1.606   6.996
24727SOL    HW276021  11.984   1.465   6.944
24728SOL     OW76022  13.490   7.323  13.893
24728SOL    HW176023  13.493   7.234  13.858
24728SOL    HW276024  13.526   7.377  13.823
24729SOL     OW76025   0.582   0.546   4.192
24729SOL    HW176026   0.646   0.552   4.263
24729SOL    HW276027   0.568   0.637   4.165
24730SOL     OW76028   3.911   1.156   2.372
24730SOL    HW176029   3.853   1.187   2.303
24730SOL    HW276030   3.913   1.228   2.435
24731SOL     OW76031  10.837   8.622   1.186
24731SOL    HW176032  10.805   8.534   1.168
24731SOL    HW276033  10.914   8.632   1.130
24732SOL     OW76034   2.645   0.095  10.638
24732SOL    HW176035   2.623   0.004  10.656
24732SOL    HW276036   2.561   0.141  10.640
24733SOL     OW76037   9.127  12.007   1.489
24733SOL    HW176038   9.181  11.936   1.525
24733SOL    HW276039   9.074  12.037   1.563
24734SOL     OW76040   1.603   8.568  14.030
24734SOL    HW176041   1.692   8.535  14.021
24734SOL    HW276042   1.611   8.662  14.014
24735SOL     OW76043  12.104   9.847   3.615
24735SOL    HW176044  12.039   9.784   3.583
24735SOL    HW276045  12.109   9.913   3.546
24736SOL     OW76046  13.975   6.538   5.722
24736SOL    HW176047  13.888   6.521   5.687
24736SOL    HW276048  14.035   6.491   5.664
24737SOL     OW76049   6.382  10.955   3.776
24737SOL    HW176050   6.391  10.862   3.797
24737SOL    HW276051   6.338  10.956   3.690
24738SOL     OW76052   4.672   9.023   5.520
24738SOL    HW176053   4.622   9.041   5.600
24738SOL    HW276054   4.762   9.049   5.542
24739SOL     OW76055  14.619   6.047  10.091
24739SOL    HW176056  14.565   6.015  10.019
24739SOL    HW276057  14.632   5.971  10.147
24740SOL     OW76058   8.538  14.327   0.521
24740SOL    HW176059   8.573  14.269   0.454
24740SOL    HW276060   8.554  14.281   0.604
24741SOL     OW76061  14.162   9.419   1.911
24741SOL    HW176062  14.159   9.405   2.006
24741SOL    HW276063  14.124   9.506   1.898
24742SOL     OW76064  11.087  11.336   5.353
24742SOL    HW176065  11.076  11.380   5.436
24742SOL    HW276066  11.075  11.404   5.287
24743SOL     OW76067   2.973   9.919   6.329
24743SOL    HW176068   2.918   9.967   6.267
24743SOL    HW276069   2.997   9.839   6.282
24744SOL     OW76070  10.537   1.497  13.799
24744SOL    HW176071  10.549   1.555  13.724
24744SOL    HW276072  10.569   1.412  13.769
24745SOL     OW76073   1.284  10.089   2.872
24745SOL    HW176074   1.338  10.141   2.812
24745SOL    HW276075   1.266  10.149   2.945
24746SOL     OW76076   1.315   7.147   4.169
24746SOL    HW176077   1.234   7.123   4.213
24746SOL    HW276078   1.384   7.105   4.220
24747SOL     OW76079   5.066   2.711   9.948
24747SOL    HW176080   5.073   2.785  10.008
24747SOL    HW276081   5.093   2.635   9.999
24748SOL     OW76082   1.857   8.844  13.347
24748SOL    HW176083   1.886   8.855  13.437
24748SOL    HW276084   1.805   8.763  13.347
24749SOL     OW76085   8.810   3.328   3.568
24749SOL    HW176086   8.765   3.406   3.601
24749SOL    HW276087   8.897   3.358   3.543
24750SOL     OW76088   7.387   7.562   4.693
24750SOL    HW176089   7.400   7.491   4.757
24750SOL    HW276090   7.475   7.596   4.677
24751SOL     OW76091  12.480  14.421   8.682
24751SOL    HW176092  12.532  14.397   8.759
24751SOL    HW276093  12.434  14.341   8.658
24752SOL     OW76094   6.681  11.161  12.273
24752SOL    HW176095   6.727  11.230  12.225
24752SOL    HW276096   6.588  11.183  12.263
24753SOL     OW76097   5.802   6.033  12.317
24753SOL    HW176098   5.893   6.031  12.345
24753SOL    HW276099   5.767   6.115  12.352
24754SOL     OW76100  14.867   3.051   3.070
24754SOL    HW176101   0.060   3.046   3.136
24754SOL    HW276102   0.010   3.131   3.022
24755SOL     OW76103   0.352   7.161   2.715
24755SOL    HW176104   0.268   7.178   2.673
24755SOL    HW276105   0.391   7.248   2.726
24756SOL     OW76106  14.015   1.456   1.277
24756SOL    HW176107  14.055   1.543   1.271
24756SOL    HW276108  13.935   1.471   1.327
24757SOL     OW76109  10.548   5.284  14.238
24757SOL    HW176110  10.543   5.344  14.313
24757SOL    HW276111  10.618   5.223  14.262
24758SOL     OW76112   5.222   5.472   8.680
24758SOL    HW176113   5.213   5.500   8.771
24758SOL    HW276114   5.198   5.379   8.682
24759SOL     OW76115   8.920   7.919   6.756
24759SOL    HW176116   8.921   8.012   6.738
24759SOL    HW276117   8.995   7.904   6.814
24760SOL     OW76118   0.701   3.921   9.431
24760SOL    HW176119   0.757   3.914   9.354
24760SOL    HW276120   0.758   3.895   9.504
24761SOL     OW76121   1.314   3.788  11.674
24761SOL    HW176122   1.271   3.818  11.754
24761SOL    HW276123   1.350   3.868  11.634
24762SOL     OW76124  12.137  11.334   4.841
24762SOL    HW176125  12.129  11.364   4.931
24762SOL    HW276126  12.069  11.381   4.793
24763SOL     OW76127  13.156   4.389   4.211
24763SOL    HW176128  13.099   4.421   4.141
24763SOL    HW276129  13.240   4.433   4.196
24764SOL     OW76130   7.426  11.897   0.160
24764SOL    HW176131   7.391  11.986   0.169
24764SOL    HW276132   7.521  11.909   0.161
24765SOL     OW76133  10.144   2.068   3.377
24765SOL    HW176134  10.230   2.110   3.380
24765SOL    HW276135  10.163   1.975   3.371
24766SOL     OW76136  13.454  14.841  12.787
24766SOL    HW176137  13.525  14.778  12.790
24766SOL    HW276138  13.481   0.035  12.845
24767SOL     OW76139   3.911  14.334   5.497
24767SOL    HW176140   3.941  14.317   5.408
24767SOL    HW276141   3.965  14.407   5.527
24768SOL     OW76142  13.879   2.515   1.756
24768SOL    HW176143  13.904   2.574   1.827
24768SOL    HW276144  13.946   2.446   1.757
24769SOL     OW76145   8.918   8.703  14.408
24769SOL    HW176146   8.966   8.652  14.342
24769SOL    HW276147   8.912   8.790  14.371
24770SOL     OW76148  10.945   6.166  11.947
24770SOL    HW176149  10.897   6.092  11.985
24770SOL    HW276150  10.898   6.244  11.979
24771SOL     OW76151  12.974  10.445   1.012
24771SOL    HW176152  13.037  10.479   1.076
24771SOL    HW276153  13.007  10.475   0.927
24772SOL     OW76154   7.609   8.063   0.787
24772SOL    HW176155   7.610   7.969   0.769
24772SOL    HW276156   7.673   8.100   0.727
24773SOL     OW76157   4.172   6.073  10.822
24773SOL    HW176158   4.081   6.055  10.844
24773SOL    HW276159   4.212   6.101  10.905
24774SOL     OW76160  14.042   9.486   9.648
24774SOL    HW176161  14.001   9.435   9.717
24774SOL    HW276162  14.015   9.444   9.566
24775SOL     OW76163   2.869   0.857   4.951
24775SOL    HW176164   2.909   0.880   4.867
24775SOL    HW276165   2.780   0.829   4.928
24776SOL     OW76166   1.791   4.037  14.721
24776SOL    HW176167   1.820   4.004  14.637
24776SOL    HW276168   1.813   4.130  14.720
24777SOL     OW76169   3.744  14.829   3.327
24777SOL    HW176170   3.785   0.038   3.310
24777SOL    HW276171   3.661  14.851   3.370
24778SOL     OW76172   7.418  10.474  11.755
24778SOL    HW176173   7.437  10.520  11.674
24778SOL    HW276174   7.328  10.443  11.746
24779SOL     OW76175   7.103   2.699   2.223
24779SOL    HW176176   7.155   2.777   2.241
24779SOL    HW276177   7.166   2.627   2.222
24780SOL     OW76178  12.225  14.663  10.879
24780SOL    HW176179  12.173  14.744  10.875
24780SOL    HW276180  12.187  14.607  10.812
24781SOL     OW76181   1.324   3.388   1.282
24781SOL    HW176182   1.409   3.364   1.319
24781SOL    HW276183   1.303   3.473   1.320
24782SOL     OW76184  10.987   4.797   8.479
24782SOL    HW176185  11.065   4.837   8.518
24782SOL    HW276186  10.947   4.868   8.428
24783SOL     OW76187   2.013   0.749   1.138
24783SOL    HW176188   2.105   0.764   1.119
24783SOL    HW276189   2.009   0.657   1.165
24784SOL     OW76190   4.640   4.861   2.771
24784SOL    HW176191   4.573   4.865   2.839
24784SOL    HW276192   4.713   4.814   2.812
24785SOL     OW76193   9.543   1.396   9.427
24785SOL    HW176194   9.459   1.415   9.469
24785SOL    HW276195   9.519   1.345   9.349
24786SOL     OW76196   9.903   2.536  11.649
24786SOL    HW176197   9.818   2.544  11.607
24786SOL    HW276198   9.890   2.470  11.717
24787SOL     OW76199   5.060   4.048   6.012
24787SOL    HW176200   5.012   4.015   6.088
24787SOL    HW276201   4.996   4.101   5.965
24788SOL     OW76202   3.954  14.074   7.465
24788SOL    HW176203   3.864  14.042   7.459
24788SOL    HW276204   3.950  14.145   7.529
24789SOL     OW76205   8.460   0.560   3.920
24789SOL    HW176206   8.453   0.470   3.889
24789SOL    HW276207   8.541   0.592   3.882
24790SOL     OW76208   8.883  12.276   8.513
24790SOL    HW176209   8.857  12.365   8.489
24790SOL    HW276210   8.963  12.260   8.462
24791SOL     OW76211   2.938   2.985   1.937
24791SOL    HW176212   2.870   3.038   1.979
24791SOL    HW276213   2.903   2.896   1.938
24792SOL     OW76214  14.217   8.434   3.112
24792SOL    HW176215  14.210   8.400   3.023
24792SOL    HW276216  14.126   8.442   3.142
24793SOL     OW76217   0.181   0.765   5.850
24793SOL    HW176218   0.147   0.765   5.939
24793SOL    HW276219   0.207   0.674   5.834
24794SOL     OW76220  10.158  10.072  12.700
24794SOL    HW176221  10.131  10.117  12.619
24794SOL    HW276222  10.099   9.997  12.706
24795SOL     OW76223   2.568   6.226   5.309
24795SOL    HW176224   2.489   6.221   5.364
24795SOL    HW276225   2.544   6.284   5.237
24796SOL     OW76226   9.780   8.829  11.692
24796SOL    HW176227   9.733   8.901  11.734
24796SOL    HW276228   9.749   8.750  11.737
24797SOL     OW76229   5.055   1.654   0.394
24797SOL    HW176230   4.985   1.645   0.459
24797SOL    HW276231   5.073   1.564   0.366
24798SOL     OW76232   8.742   1.859   4.501
24798SOL    HW176233   8.797   1.924   4.456
24798SOL    HW276234   8.802   1.812   4.557
24799SOL     OW76235   3.551   4.502   6.082
24799SOL    HW176236   3.592   4.494   6.168
24799SOL    HW276237   3.463   4.536   6.101
24800SOL     OW76238   4.208  13.116  11.034
24800SOL    HW176239   4.232  13.039  11.086
24800SOL    HW276240   4.125  13.092  10.992
24801SOL     OW76241   1.537  14.401  11.943
24801SOL    HW176242   1.510  14.424  12.031
24801SOL    HW276243   1.570  14.483  11.906
24802SOL     OW76244   0.961   5.084   7.468
24802SOL    HW176245   1.012   5.007   7.444
24802SOL    HW276246   0.971   5.090   7.563
24803SOL     OW76247   9.934   7.052  12.155
24803SOL    HW176248   9.929   6.985  12.223
24803SOL    HW276249   9.983   7.124  12.195
24804SOL     OW76250  14.594   2.223  12.905
24804SOL    HW176251  14.605   2.256  12.994
24804SOL    HW276252  14.648   2.281  12.851
24805SOL     OW76253   7.329   2.874   1.386
24805SOL    HW176254   7.313   2.780   1.393
24805SOL    HW276255   7.393   2.893   1.455
24806SOL     OW76256  10.260   1.109  10.666
24806SOL    HW176257  10.346   1.068  10.656
24806SOL    HW276258  10.279   1.200  10.687
24807SOL     OW76259  12.116   9.644  10.064
24807SOL    HW176260  12.207   9.617  10.077
24807SOL    HW276261  12.085   9.667  10.152
24808SOL     OW76262  13.465   7.184  10.677
24808SOL    HW176263  13.424   7.126  10.740
24808SOL    HW276264  13.499   7.257  10.729
24809SOL     OW76265   6.352   1.325  14.805
24809SOL    HW176266   6.279   1.264  14.806
24809SOL    HW276267   6.362   1.349  14.713
24810SOL     OW76268   6.432  11.794  13.877
24810SOL    HW176269   6.459  11.829  13.962
24810SOL    HW276270   6.384  11.714  13.898
24811SOL     OW76271   5.778  14.445  11.408
24811SOL    HW176272   5.745  14.412  11.325
24811SOL    HW276273   5.830  14.522  11.385
24812SOL     OW76274   5.444  13.478   5.746
24812SOL    HW176275   5.521  13.498   5.799
24812SOL    HW276276   5.383  13.437   5.808
24813SOL     OW76277   8.559   4.772  11.311
24813SOL    HW176278   8.614   4.829  11.257
24813SOL    HW276279   8.539   4.824  11.389
24814SOL     OW76280   6.294  14.565  10.027
24814SOL    HW176281   6.372  14.618  10.043
24814SOL    HW276282   6.229  14.627   9.993
24815SOL     OW76283   2.287  10.411  14.841
24815SOL    HW176284   2.287  10.316  14.826
24815SOL    HW276285   2.256  10.421   0.054
24816SOL     OW76286   6.375   2.805  13.551
24816SOL    HW176287   6.411   2.828  13.465
24816SOL    HW276288   6.330   2.722  13.536
24817SOL     OW76289   5.688  13.792   9.926
24817SOL    HW176290   5.689  13.728   9.997
24817SOL    HW276291   5.633  13.753   9.858
24818SOL     OW76292   0.778   6.683  14.190
24818SOL    HW176293   0.713   6.632  14.141
24818SOL    HW276294   0.726   6.733  14.253
24819SOL     OW76295   3.004   5.972  11.403
24819SOL    HW176296   3.070   5.910  11.434
24819SOL    HW276297   3.022   6.053  11.450
24820SOL     OW76298  14.512   8.477   1.845
24820SOL    HW176299  14.495   8.500   1.753
24820SOL    HW276300  14.464   8.543   1.895
24821SOL     OW76301   4.332  12.610  12.521
24821SOL    HW176302   4.284  12.532  12.549
24821SOL    HW276303   4.422  12.581  12.510
24822SOL     OW76304   9.900   2.931  14.322
24822SOL    HW176305   9.851   2.906  14.401
24822SOL    HW276306   9.991   2.933  14.350
24823SOL     OW76307  14.803   6.633  10.071
24823SOL    HW176308  14.786   6.541  10.091
24823SOL    HW276309  14.746   6.652   9.997
24824SOL     OW76310   4.342   6.742   0.910
24824SOL    HW176311   4.391   6.672   0.955
24824SOL    HW276312   4.371   6.822   0.953
24825SOL     OW76313   6.637   0.182   9.616
24825SOL    HW176314   6.593   0.141   9.690
24825SOL    HW276315   6.576   0.172   9.543
24826SOL     OW76316  13.676   8.114   0.661
24826SOL    HW176317  13.728   8.072   0.730
24826SOL    HW276318  13.663   8.203   0.693
24827SOL     OW76319  10.313  10.174   1.816
24827SOL    HW176320  10.294  10.081   1.809
24827SOL    HW276321  10.228  10.217   1.817
24828SOL     OW76322   3.112  14.527   3.575
24828SOL    HW176323   3.085  14.473   3.649
24828SOL    HW276324   3.196  14.489   3.547
24829SOL     OW76325  10.785   0.427  10.444
24829SOL    HW176326  10.690   0.416  10.433
24829SOL    HW276327  10.815   0.463  10.361
24830SOL     OW76328   0.870   0.174   5.700
24830SOL    HW176329   0.948   0.222   5.674
24830SOL    HW276330   0.819   0.165   5.620
24831SOL     OW76331  14.855   4.712  10.964
24831SOL    HW176332  14.860   4.753  11.050
24831SOL    HW276333  14.791   4.642  10.974
24832SOL     OW76334   1.247   7.023   9.723
24832SOL    HW176335   1.272   7.034   9.815
24832SOL    HW276336   1.312   6.962   9.688
24833SOL     OW76337   1.769  13.319   5.013
24833SOL    HW176338   1.794  13.239   4.966
24833SOL    HW276339   1.848  13.346   5.059
24834SOL     OW76340  14.403  11.880   0.914
24834SOL    HW176341  14.343  11.860   0.985
24834SOL    HW276342  14.481  11.826   0.933
24835SOL     OW76343   6.176   5.901   7.878
24835SOL    HW176344   6.095   5.850   7.878
24835SOL    HW276345   6.150   5.986   7.916
24836SOL     OW76346   7.390  10.673   7.542
24836SOL    HW176347   7.294  10.677   7.540
24836SOL    HW276348   7.417  10.760   7.571
24837SOL     OW76349   9.626   5.133  10.570
24837SOL    HW176350   9.587   5.055  10.611
24837SOL    HW276351   9.717   5.133  10.602
24838SOL     OW76352   9.006  12.313   5.829
24838SOL    HW176353   9.054  12.337   5.750
24838SOL    HW276354   8.986  12.220   5.819
24839SOL     OW76355   5.551  11.283   2.035
24839SOL    HW176356   5.635  11.314   2.071
24839SOL    HW276357   5.514  11.359   1.991
24840SOL     OW76358   8.097   9.800   1.356
24840SOL    HW176359   8.125   9.874   1.409
24840SOL    HW276360   8.172   9.781   1.300
24841SOL     OW76361   8.577  10.960  14.491
24841SOL    HW176362   8.590  10.974  14.585
24841SOL    HW276363   8.665  10.938  14.458
24842SOL     OW76364   5.947   1.149  13.122
24842SOL    HW176365   6.012   1.206  13.082
24842SOL    HW276366   5.875   1.207  13.146
24843SOL     OW76367   4.198   0.211   5.449
24843SOL    HW176368   4.163   0.151   5.515
24843SOL    HW276369   4.292   0.198   5.453
24844SOL     OW76370  13.352   2.838  12.624
24844SOL    HW176371  13.312   2.788  12.696
24844SOL    HW276372  13.445   2.818  12.629
24845SOL     OW76373   6.432   1.721   9.883
24845SOL    HW176374   6.353   1.668   9.877
24845SOL    HW276375   6.485   1.678   9.950
24846SOL     OW76376   2.002  12.839  13.956
24846SOL    HW176377   2.091  12.871  13.965
24846SOL    HW276378   2.009  12.763  13.899
24847SOL     OW76379   5.329   7.407   4.893
24847SOL    HW176380   5.350   7.336   4.832
24847SOL    HW276381   5.247   7.381   4.934
24848SOL     OW76382   5.932   7.642   1.933
24848SOL    HW176383   6.005   7.702   1.948
24848SOL    HW276384   5.916   7.601   2.018
24849SOL     OW76385  10.186   0.274   1.235
24849SOL    HW176386  10.181   0.190   1.190
24849SOL    HW276387  10.135   0.262   1.314
24850SOL     OW76388  12.546   2.059   5.795
24850SOL    HW176389  12.588   2.133   5.839
24850SOL    HW276390  12.532   2.089   5.705
24851SOL     OW76391  14.631   7.106   3.043
24851SOL    HW176392  14.613   7.183   2.989
24851SOL    HW276393  14.727   7.104   3.049
24852SOL     OW76394   2.430  11.692   6.364
24852SOL    HW176395   2.451  11.622   6.302
24852SOL    HW276396   2.406  11.766   6.309
24853SOL     OW76397   2.283   6.392   8.661
24853SOL    HW176398   2.322   6.468   8.619
24853SOL    HW276399   2.354   6.353   8.711
24854SOL     OW76400   9.468   0.466   3.187
24854SOL    HW176401   9.551   0.509   3.208
24854SOL    HW276402   9.479   0.437   3.096
24855SOL     OW76403   2.106   5.237  11.065
24855SOL    HW176404   2.067   5.324  11.073
24855SOL    HW276405   2.052   5.182  11.123
24856SOL     OW76406  10.049   5.598  12.608
24856SOL    HW176407  10.053   5.517  12.556
24856SOL    HW276408  10.140   5.616  12.631
24857SOL     OW76409   4.967   8.934   7.038
24857SOL    HW176410   4.942   8.887   7.118
24857SOL    HW276411   5.017   9.009   7.069
24858SOL     OW76412   6.179   0.084   6.487
24858SOL    HW176413   6.206  14.871   6.508
24858SOL    HW276414   6.180   0.087   6.391
24859SOL     OW76415  13.287   7.760   9.282
24859SOL    HW176416  13.261   7.783   9.371
24859SOL    HW276417  13.300   7.665   9.285
24860SOL     OW76418   3.476   6.249   2.072
24860SOL    HW176419   3.394   6.229   2.118
24860SOL    HW276420   3.462   6.217   1.983
24861SOL     OW76421  10.525   6.089  10.304
24861SOL    HW176422  10.544   5.997  10.323
24861SOL    HW276423  10.509   6.091  10.209
24862SOL     OW76424   0.822   5.805   3.163
24862SOL    HW176425   0.859   5.719   3.182
24862SOL    HW276426   0.733   5.787   3.132
24863SOL     OW76427  11.814   2.735  10.737
24863SOL    HW176428  11.897   2.690  10.752
24863SOL    HW276429  11.777   2.694  10.659
24864SOL     OW76430   2.669   8.656  14.564
24864SOL    HW176431   2.692   8.729  14.507
24864SOL    HW276432   2.706   8.680  14.649
24865SOL     OW76433   9.831  11.590  12.595
24865SOL    HW176434   9.839  11.499  12.623
24865SOL    HW276435   9.921  11.623  12.593
24866SOL     OW76436  11.950  12.439   7.162
24866SOL    HW176437  11.934  12.510   7.224
24866SOL    HW276438  11.966  12.363   7.217
24867SOL     OW76439   5.646  10.043   3.911
24867SOL    HW176440   5.685  10.123   3.877
24867SOL    HW276441   5.574  10.073   3.966
24868SOL     OW76442   0.838   8.400   6.113
24868SOL    HW176443   0.924   8.390   6.154
24868SOL    HW276444   0.778   8.417   6.185
24869SOL     OW76445   8.605   0.415  14.003
24869SOL    HW176446   8.565   0.449  14.083
24869SOL    HW276447   8.679   0.473  13.987
24870SOL     OW76448   1.259   6.882   4.957
24870SOL    HW176449   1.274   6.878   4.863
24870SOL    HW276450   1.323   6.822   4.995
24871SOL     OW76451   4.949   0.751   3.209
24871SOL    HW176452   4.991   0.786   3.130
24871SOL    HW276453   4.927   0.661   3.185
24872SOL     OW76454   6.921  13.376  13.780
24872SOL    HW176455   6.945  13.439  13.712
24872SOL    HW276456   6.947  13.291  13.744
24873SOL     OW76457   0.823   9.920   4.928
24873SOL    HW176458   0.813   9.841   4.981
24873SOL    HW276459   0.838   9.887   4.839
24874SOL     OW76460   0.870   1.526   9.849
24874SOL    HW176461   0.835   1.584   9.917
24874SOL    HW276462   0.847   1.438   9.880
24875SOL     OW76463  12.676   6.627   9.112
24875SOL    HW176464  12.745   6.580   9.159
24875SOL    HW276465  12.596   6.604   9.160
24876SOL     OW76466   3.898   5.826   9.062
24876SOL    HW176467   3.832   5.890   9.034
24876SOL    HW276468   3.956   5.817   8.986
24877SOL     OW76469   9.705   0.939   9.783
24877SOL    HW176470   9.755   1.020   9.792
24877SOL    HW276471   9.739   0.898   9.703
24878SOL     OW76472   0.879   7.239  13.864
24878SOL    HW176473   0.805   7.244  13.804
24878SOL    HW276474   0.945   7.186  13.819
24879SOL     OW76475  11.031   0.327  13.316
24879SOL    HW176476  11.125   0.346  13.324
24879SOL    HW276477  11.026   0.262  13.246
24880SOL     OW76478   7.623   6.659  10.025
24880SOL    HW176479   7.586   6.684   9.940
24880SOL    HW276480   7.663   6.573  10.009
24881SOL     OW76481   1.071  10.157   1.401
24881SOL    HW176482   1.161  10.187   1.398
24881SOL    HW276483   1.058  10.126   1.491
24882SOL     OW76484   9.979   3.152   1.175
24882SOL    HW176485   9.988   3.173   1.268
24882SOL    HW276486   9.897   3.103   1.169
24883SOL     OW76487   5.369   1.878   1.066
24883SOL    HW176488   5.281   1.848   1.086
24883SOL    HW276489   5.358   1.938   0.992
24884SOL     OW76490   7.017   8.565  11.740
24884SOL    HW176491   6.944   8.503  11.742
24884SOL    HW276492   6.993   8.632  11.804
24885SOL     OW76493  13.851   1.296   0.236
24885SOL    HW176494  13.766   1.284   0.195
24885SOL    HW276495  13.902   1.220   0.209
24886SOL     OW76496  13.771  10.835  13.628
24886SOL    HW176497  13.827  10.829  13.705
24886SOL    HW276498  13.825  10.805  13.556
24887SOL     OW76499   7.155   1.010  11.637
24887SOL    HW176500   7.143   1.099  11.603
24887SOL    HW276501   7.066   0.975  11.643
24888SOL     OW76502   3.346   2.772  12.237
24888SOL    HW176503   3.273   2.804  12.290
24888SOL    HW276504   3.305   2.726  12.164
24889SOL     OW76505   9.737   9.756   0.238
24889SOL    HW176506   9.817   9.806   0.220
24889SOL    HW276507   9.730   9.694   0.166
24890SOL     OW76508  12.391   8.758  10.605
24890SOL    HW176509  12.423   8.685  10.658
24890SOL    HW276510  12.304   8.731  10.576
24891SOL     OW76511   1.247   5.011  12.081
24891SOL    HW176512   1.240   4.982  11.990
24891SOL    HW276513   1.292   4.939  12.125
24892SOL     OW76514  10.980   9.664   7.893
24892SOL    HW176515  11.003   9.577   7.925
24892SOL    HW276516  11.048   9.685   7.829
24893SOL     OW76517   6.109   5.818   0.703
24893SOL    HW176518   6.016   5.828   0.684
24893SOL    HW276519   6.135   5.739   0.655
24894SOL     OW76520   3.247   6.503  12.727
24894SOL    HW176521   3.160   6.526  12.758
24894SOL    HW276522   3.267   6.420  12.768
24895SOL     OW76523  10.658   9.160   3.165
24895SOL    HW176524  10.599   9.120   3.100
24895SOL    HW276525  10.600   9.190   3.235
24896SOL     OW76526  11.829  11.997   5.532
24896SOL    HW176527  11.897  12.048   5.489
24896SOL    HW276528  11.755  12.057   5.540
24897SOL     OW76529   9.709   7.144  11.279
24897SOL    HW176530   9.640   7.120  11.340
24897SOL    HW276531   9.745   7.061  11.249
24898SOL     OW76532   0.999   4.444   0.033
24898SOL    HW176533   1.071   4.478  14.856
24898SOL    HW276534   0.921   4.456  14.855
24899SOL     OW76535   1.734   5.681  11.615
24899SOL    HW176536   1.799   5.637  11.670
24899SOL    HW276537   1.668   5.712  11.677
24900SOL     OW76538   6.450   3.992   3.396
24900SOL    HW176539   6.503   3.917   3.371
24900SOL    HW276540   6.426   3.975   3.487
24901SOL     OW76541  13.953   3.477  12.215
24901SOL    HW176542  13.946   3.441  12.127
24901SOL    HW276543  13.873   3.449  12.260
24902SOL     OW76544   8.524   3.081   5.531
24902SOL    HW176545   8.476   3.132   5.467
24902SOL    HW276546   8.599   3.135   5.554
24903SOL     OW76547  14.639   2.642   7.229
24903SOL    HW176548  14.636   2.554   7.265
24903SOL    HW276549  14.613   2.699   7.301
24904SOL     OW76550   0.709   4.795   4.071
24904SOL    HW176551   0.710   4.871   4.013
24904SOL    HW276552   0.786   4.805   4.126
24905SOL     OW76553  14.573  12.751   5.816
24905SOL    HW176554  14.654  12.702   5.801
24905SOL    HW276555  14.543  12.722   5.902
24906SOL     OW76556   3.684  14.590   8.746
24906SOL    HW176557   3.617  14.578   8.678
24906SOL    HW276558   3.717  14.503   8.764
24907SOL     OW76559  13.113  13.839  11.317
24907SOL    HW176560  13.112  13.900  11.391
24907SOL    HW276561  13.022  13.810  11.310
24908SOL     OW76562   8.485  13.347  10.366
24908SOL    HW176563   8.513  13.310  10.282
24908SOL    HW276564   8.419  13.285  10.398
24909SOL     OW76565   4.370   9.561   0.609
24909SOL    HW176566   4.378   9.489   0.672
24909SOL    HW276567   4.370   9.518   0.524
24910SOL     OW76568   9.199  14.747  11.161
24910SOL    HW176569   9.256  14.806  11.112
24910SOL    HW276570   9.177  14.677  11.099
24911SOL     OW76571   7.406  10.328   1.262
24911SOL    HW176572   7.457  10.341   1.182
24911SOL    HW276573   7.324  10.289   1.232
24912SOL     OW76574   5.790   4.798  13.085
24912SOL    HW176575   5.877   4.831  13.111
24912SOL    HW276576   5.728   4.857  13.128
24913SOL     OW76577   6.732   4.783   1.413
24913SOL    HW176578   6.717   4.697   1.374
24913SOL    HW276579   6.799   4.767   1.480
24914SOL     OW76580   1.944   1.121   8.510
24914SOL    HW176581   1.903   1.127   8.596
24914SOL    HW276582   2.015   1.184   8.512
24915SOL     OW76583  12.576   2.797   9.772
24915SOL    HW176584  12.622   2.748   9.704
24915SOL    HW276585  12.493   2.823   9.731
24916SOL     OW76586   3.773   4.040   3.088
24916SOL    HW176587   3.818   4.052   3.171
24916SOL    HW276588   3.693   4.092   3.097
24917SOL     OW76589  13.715   3.072   5.793
24917SOL    HW176590  13.731   2.984   5.826
24917SOL    HW276591  13.627   3.093   5.825
24918SOL     OW76592   5.748   7.602  11.792
24918SOL    HW176593   5.726   7.688  11.758
24918SOL    HW276594   5.768   7.549  11.715
24919SOL     OW76595  11.438   5.212  13.225
24919SOL    HW176596  11.523   5.172  13.207
24919SOL    HW276597  11.376   5.164  13.169
24920SOL     OW76598  13.979   2.776  13.756
24920SOL    HW176599  13.949   2.712  13.692
24920SOL    HW276600  13.952   2.861  13.721
24921SOL     OW76601  14.128   0.044   9.040
24921SOL    HW176602  14.087  14.836   9.056
24921SOL    HW276603  14.068   0.107   9.081
24922SOL     OW76604   7.538  10.833   8.405
24922SOL    HW176605   7.457  10.808   8.362
24922SOL    HW276606   7.530  10.927   8.420
24923SOL     OW76607   5.938   2.393   2.127
24923SOL    HW176608   6.012   2.419   2.183
24923SOL    HW276609   5.960   2.303   2.100
24924SOL     OW76610   1.270   1.202  14.802
24924SOL    HW176611   1.337   1.179  14.866
24924SOL    HW276612   1.199   1.140  14.818
24925SOL     OW76613  10.516  11.656  12.164
24925SOL    HW176614  10.565  11.583  12.202
24925SOL    HW276615  10.478  11.621  12.084
24926SOL     OW76616  10.441   0.408  10.154
24926SOL    HW176617  10.357   0.367  10.178
24926SOL    HW276618  10.493   0.402  10.234
24927SOL     OW76619  10.726   7.748   3.431
24927SOL    HW176620  10.742   7.834   3.393
24927SOL    HW276621  10.798   7.693   3.398
24928SOL     OW76622   8.312   3.100   3.666
24928SOL    HW176623   8.318   3.112   3.571
24928SOL    HW276624   8.225   3.132   3.689
24929SOL     OW76625  14.610   9.509  12.977
24929SOL    HW176626  14.692   9.470  13.007
24929SOL    HW276627  14.542   9.461  13.024
24930SOL     OW76628   3.724  14.231  12.463
24930SOL    HW176629   3.788  14.159  12.457
24930SOL    HW276630   3.772  14.303  12.504
24931SOL     OW76631  12.926  12.646  13.544
24931SOL    HW176632  12.898  12.615  13.630
24931SOL    HW276633  13.009  12.602  13.528
24932SOL     OW76634   1.320   7.012  11.771
24932SOL    HW176635   1.285   6.928  11.741
24932SOL    HW276636   1.353   7.054  11.691
24933SOL     OW76637   8.929  13.969   2.310
24933SOL    HW176638   8.925  14.060   2.282
24933SOL    HW276639   8.838  13.945   2.328
24934SOL     OW76640  13.943   2.200   3.678
24934SOL    HW176641  13.850   2.179   3.686
24934SOL    HW276642  13.971   2.217   3.768
24935SOL     OW76643   9.437   9.554   1.243
24935SOL    HW176644   9.454   9.597   1.158
24935SOL    HW276645   9.501   9.594   1.302
24936SOL     OW76646   3.670  11.358   3.077
24936SOL    HW176647   3.713  11.279   3.111
24936SOL    HW276648   3.694  11.427   3.139
24937SOL     OW76649   8.502   0.784   1.641
24937SOL    HW176650   8.570   0.716   1.642
24937SOL    HW276651   8.532   0.849   1.705
24938SOL     OW76652  10.356  10.701   5.549
24938SOL    HW176653  10.340  10.716   5.643
24938SOL    HW276654  10.392  10.613   5.544
24939SOL     OW76655   6.442   8.210  13.828
24939SOL    HW176656   6.366   8.249  13.873
24939SOL    HW276657   6.500   8.284  13.810
24940SOL     OW76658   3.156   2.254  11.365
24940SOL    HW176659   3.119   2.321  11.423
24940SOL    HW276660   3.167   2.177  11.421
24941SOL     OW76661   9.548  14.204   4.351
24941SOL    HW176662   9.642  14.217   4.334
24941SOL    HW276663   9.526  14.271   4.415
24942SOL     OW76664  11.253  11.520   9.473
24942SOL    HW176665  11.230  11.518   9.566
24942SOL    HW276666  11.344  11.549   9.470
24943SOL     OW76667  13.527  10.490   0.073
24943SOL    HW176668  13.495  10.467  14.863
24943SOL    HW276669  13.500  10.581   0.085
24944SOL     OW76670   9.224   8.546   8.262
24944SOL    HW176671   9.249   8.600   8.337
24944SOL    HW276672   9.307   8.513   8.227
24945SOL     OW76673  11.696   9.587   4.957
24945SOL    HW176674  11.620   9.634   4.991
24945SOL    HW276675  11.727   9.642   4.884
24946SOL     OW76676   3.823   9.779  13.187
24946SOL    HW176677   3.788   9.863  13.157
24946SOL    HW276678   3.910   9.801  13.220
24947SOL     OW76679  14.300   3.510  10.485
24947SOL    HW176680  14.218   3.464  10.465
24947SOL    HW276681  14.366   3.466  10.430
24948SOL     OW76682   4.247   2.502   4.038
24948SOL    HW176683   4.284   2.438   3.978
24948SOL    HW276684   4.160   2.468   4.059
24949SOL     OW76685  11.896  14.044   7.205
24949SOL    HW176686  11.980  14.014   7.170
24949SOL    HW276687  11.834  13.975   7.180
24950SOL     OW76688  12.142   1.451   4.594
24950SOL    HW176689  12.072   1.393   4.565
24950SOL    HW276690  12.142   1.442   4.689
24951SOL     OW76691   9.066   4.362   1.726
24951SOL    HW176692   8.978   4.398   1.731
24951SOL    HW276693   9.107   4.411   1.654
24952SOL     OW76694  14.859  12.576   0.091
24952SOL    HW176695   0.062  12.557   0.041
24952SOL    HW276696  14.803  12.624   0.029
24953SOL     OW76697   4.507  14.573  13.896
24953SOL    HW176698   4.467  14.562  13.982
24953SOL    HW276699   4.594  14.609  13.915
24954SOL     OW76700   1.392  14.845  11.476
24954SOL    HW176701   1.465  14.805  11.523
24954SOL    HW276702   1.433   0.026  11.411
24955SOL     OW76703   9.631   4.350  11.510
24955SOL    HW176704   9.570   4.369  11.439
24955SOL    HW276705   9.584   4.289  11.567
24956SOL     OW76706   3.120   9.720  12.368
24956SOL    HW176707   3.193   9.733  12.308
24956SOL    HW276708   3.143   9.641  12.417
24957SOL     OW76709  10.979  11.060   4.866
24957SOL    HW176710  10.975  11.127   4.798
24957SOL    HW276711  11.071  11.058   4.892
24958SOL     OW76712  13.209   6.098   4.358
24958SOL    HW176713  13.116   6.096   4.379
24958SOL    HW276714  13.230   6.191   4.349
24959SOL     OW76715   3.982   5.635   9.255
24959SOL    HW176716   3.970   5.696   9.328
24959SOL    HW276717   3.949   5.683   9.178
24960SOL     OW76718  10.744  11.264  10.634
24960SOL    HW176719  10.678  11.227  10.576
24960SOL    HW276720  10.751  11.356  10.607
24961SOL     OW76721  13.872   5.102   6.845
24961SOL    HW176722  13.830   5.119   6.929
24961SOL    HW276723  13.805   5.060   6.792
24962SOL     OW76724  12.666   5.864  12.179
24962SOL    HW176725  12.661   5.960  12.170
24962SOL    HW276726  12.629   5.831  12.098
24963SOL     OW76727  11.439   9.289   6.895
24963SOL    HW176728  11.488   9.354   6.946
24963SOL    HW276729  11.505   9.225   6.868
24964SOL     OW76730   5.114   8.253  13.566
24964SOL    HW176731   5.153   8.313  13.630
24964SOL    HW276732   5.187   8.197  13.539
24965SOL     OW76733   0.132   0.511   6.640
24965SOL    HW176734   0.070   0.509   6.713
24965SOL    HW276735   0.199   0.574   6.667
24966SOL     OW76736   2.990  13.056   8.459
24966SOL    HW176737   2.970  12.977   8.508
24966SOL    HW276738   3.083  13.047   8.436
24967SOL     OW76739  10.976   5.674   2.414
24967SOL    HW176740  10.892   5.660   2.370
24967SOL    HW276741  11.020   5.740   2.360
24968SOL     OW76742   0.169  10.617   0.548
24968SOL    HW176743   0.078  10.607   0.575
24968SOL    HW276744   0.206  10.529   0.554
24969SOL     OW76745   6.067  12.692  10.409
24969SOL    HW176746   5.982  12.658  10.436
24969SOL    HW276747   6.127  12.667  10.479
24970SOL     OW76748   5.633   4.101   4.386
24970SOL    HW176749   5.616   4.195   4.387
24970SOL    HW276750   5.570   4.066   4.322
24971SOL     OW76751   4.581   5.698   8.509
24971SOL    HW176752   4.606   5.696   8.602
24971SOL    HW276753   4.632   5.770   8.472
24972SOL     OW76754   7.029   3.446   6.942
24972SOL    HW176755   7.095   3.497   6.989
24972SOL    HW276756   6.950   3.501   6.945
24973SOL     OW76757  10.866  11.729  12.709
24973SOL    HW176758  10.897  11.811  12.670
24973SOL    HW276759  10.807  11.692  12.643
24974SOL     OW76760  13.406   0.392   5.711
24974SOL    HW176761  13.452   0.461   5.759
24974SOL    HW276762  13.429   0.311   5.757
24975SOL     OW76763   9.836   6.033  14.267
24975SOL    HW176764   9.785   6.007  14.344
24975SOL    HW276765   9.795   5.985  14.195
24976SOL     OW76766   8.626   6.746  10.430
24976SOL    HW176767   8.569   6.676  10.462
24976SOL    HW276768   8.565   6.818  10.409
24977SOL     OW76769   4.897  11.216   3.131
24977SOL    HW176770   4.852  11.224   3.215
24977SOL    HW276771   4.911  11.306   3.102
24978SOL     OW76772  11.887   0.115   1.521
24978SOL    HW176773  11.959   0.099   1.582
24978SOL    HW276774  11.916   0.076   1.438
24979SOL     OW76775   2.603   9.416   0.076
24979SOL    HW176776   2.645   9.375   0.152
24979SOL    HW276777   2.605   9.509   0.095
24980SOL     OW76778   7.693   0.890   3.964
24980SOL    HW176779   7.779   0.850   3.980
24980SOL    HW276780   7.645   0.877   4.046
24981SOL     OW76781  11.132   4.834   4.478
24981SOL    HW176782  11.186   4.898   4.431
24981SOL    HW276783  11.193   4.791   4.538
24982SOL     OW76784   5.273   4.289   3.327
24982SOL    HW176785   5.267   4.362   3.389
24982SOL    HW276786   5.256   4.212   3.381
24983SOL     OW76787   6.885   0.489  14.408
24983SOL    HW176788   6.978   0.468  14.415
24983SOL    HW276789   6.870   0.501  14.315
24984SOL     OW76790   9.559   2.805   4.823
24984SOL    HW176791   9.626   2.850   4.875
24984SOL    HW276792   9.548   2.859   4.746
24985SOL     OW76793   0.112  14.261  10.037
24985SOL    HW176794   0.172  14.205   9.987
24985SOL    HW276795   0.157  14.276  10.120
24986SOL     OW76796   0.247   2.178  11.805
24986SOL    HW176797   0.166   2.130  11.824
24986SOL    HW276798   0.234   2.264  11.846
24987SOL     OW76799   4.593  11.326   6.613
24987SOL    HW176800   4.549  11.241   6.612
24987SOL    HW276801   4.564  11.367   6.695
24988SOL     OW76802  10.509   0.651   6.381
24988SOL    HW176803  10.484   0.565   6.349
24988SOL    HW276804  10.602   0.643   6.403
24989SOL     OW76805   3.799   5.444   1.041
24989SOL    HW176806   3.893   5.431   1.027
24989SOL    HW276807   3.768   5.359   1.073
24990SOL     OW76808   5.677   5.104   8.961
24990SOL    HW176809   5.771   5.108   8.946
24990SOL    HW276810   5.639   5.151   8.886
24991SOL     OW76811   7.582   2.716  11.418
24991SOL    HW176812   7.610   2.775  11.488
24991SOL    HW276813   7.535   2.773  11.356
24992SOL     OW76814   7.425   9.365   3.416
24992SOL    HW176815   7.337   9.400   3.398
24992SOL    HW276816   7.466   9.431   3.472
24993SOL     OW76817  13.326   0.928  14.689
24993SOL    HW176818  13.296   0.999  14.745
24993SOL    HW276819  13.357   0.972  14.609
24994SOL     OW76820  10.267  10.653   9.132
24994SOL    HW176821  10.200  10.642   9.199
24994SOL    HW276822  10.247  10.587   9.066
24995SOL     OW76823   6.979  14.867   3.722
24995SOL    HW176824   7.043   0.053   3.688
24995SOL    HW276825   6.906   0.045   3.751
24996SOL     OW76826  14.591  12.661   7.161
24996SOL    HW176827  14.551  12.713   7.091
24996SOL    HW276828  14.640  12.725   7.213
24997SOL     OW76829   6.934   3.899  14.763
24997SOL    HW176830   6.868   3.962  14.736
24997SOL    HW276831   7.018   3.942  14.745
24998SOL     OW76832  12.802  10.762  13.670
24998SOL    HW176833  12.882  10.798  13.710
24998SOL    HW276834  12.770  10.833  13.614
24999SOL     OW76835   8.647  12.398   0.776
24999SOL    HW176836   8.622  12.378   0.686
24999SOL    HW276837   8.730  12.446   0.768
25000SOL     OW76838  11.613   6.934   8.862
25000SOL    HW176839  11.708   6.947   8.855
25000SOL    HW276840  11.601   6.899   8.950
25001SOL     OW76841  11.195  11.635  14.180
25001SOL    HW176842  11.257  11.686  14.128
25001SOL    HW276843  11.135  11.597  14.115
25002SOL     OW76844   9.179   5.067   1.058
25002SOL    HW176845   9.104   5.119   1.029
25002SOL    HW276846   9.204   5.016   0.981
25003SOL     OW76847  11.069  13.925  10.661
25003SOL    HW176848  11.094  13.852  10.605
25003SOL    HW276849  10.973  13.929  10.655
25004SOL     OW76850   8.486   3.767   8.603
25004SOL    HW176851   8.579   3.758   8.623
25004SOL    HW276852   8.442   3.750   8.686
25005SOL     OW76853   2.674  10.216   6.331
25005SOL    HW176854   2.686  10.238   6.423
25005SOL    HW276855   2.579  10.213   6.319
25006SOL     OW76856   3.077  14.813   3.040
25006SOL    HW176857   3.017  14.738   3.048
25006SOL    HW276858   3.164  14.774   3.040
25007SOL     OW76859  14.032   6.786   1.472
25007SOL    HW176860  14.092   6.737   1.528
25007SOL    HW276861  14.046   6.878   1.495
25008SOL     OW76862   3.462   2.692   0.051
25008SOL    HW176863   3.458   2.599   0.071
25008SOL    HW276864   3.373   2.716   0.026
25009SOL     OW76865   2.999   5.598   6.578
25009SOL    HW176866   2.906   5.587   6.595
25009SOL    HW276867   3.025   5.670   6.637
25010SOL     OW76868  10.148   5.145   7.777
25010SOL    HW176869  10.174   5.230   7.811
25010SOL    HW276870  10.075   5.163   7.718
25011SOL     OW76871   8.620  11.840   1.845
25011SOL    HW176872   8.613  11.907   1.777
25011SOL    HW276873   8.693  11.869   1.901
25012SOL     OW76874  11.846  13.825   6.865
25012SOL    HW176875  11.924  13.771   6.870
25012SOL    HW276876  11.796  13.789   6.792
25013SOL     OW76877   1.676  14.770  12.405
25013SOL    HW176878   1.765  14.781  12.371
25013SOL    HW276879   1.681  14.691  12.458
25014SOL     OW76880   6.783   9.359   4.550
25014SOL    HW176881   6.760   9.283   4.604
25014SOL    HW276882   6.705   9.415   4.553
25015SOL     OW76883   0.416  13.594   5.083
25015SOL    HW176884   0.505  13.581   5.117
25015SOL    HW276885   0.359  13.575   5.157
25016SOL     OW76886   2.693   2.032   7.979
25016SOL    HW176887   2.653   1.946   7.964
25016SOL    HW276888   2.781   2.011   8.010
25017SOL     OW76889   5.592   7.738   9.224
25017SOL    HW176890   5.544   7.662   9.257
25017SOL    HW276891   5.673   7.740   9.275
25018SOL     OW76892   8.996   6.660   3.658
25018SOL    HW176893   8.901   6.666   3.673
25018SOL    HW276894   9.034   6.657   3.746
25019SOL     OW76895   7.901   7.086   2.735
25019SOL    HW176896   7.808   7.068   2.732
25019SOL    HW276897   7.943   7.000   2.736
25020SOL     OW76898  12.266   6.813   4.011
25020SOL    HW176899  12.265   6.724   3.976
25020SOL    HW276900  12.265   6.801   4.106
25021SOL     OW76901   0.936   2.168  13.721
25021SOL    HW176902   0.861   2.139  13.773
25021SOL    HW276903   0.922   2.128  13.635
25022SOL     OW76904   3.283   1.984  11.453
25022SOL    HW176905   3.196   1.946  11.468
25022SOL    HW276906   3.334   1.912  11.416
25023SOL     OW76907   7.228  10.994  13.383
25023SOL    HW176908   7.201  11.077  13.423
25023SOL    HW276909   7.317  10.980  13.414
25024SOL     OW76910   8.342   8.524   9.736
25024SOL    HW176911   8.288   8.483   9.669
25024SOL    HW276912   8.315   8.482   9.818
25025SOL     OW76913   4.099  14.166  10.404
25025SOL    HW176914   4.013  14.137  10.375
25025SOL    HW276915   4.145  14.086  10.428
25026SOL     OW76916  10.561   5.154   0.200
25026SOL    HW176917  10.536   5.085   0.139
25026SOL    HW276918  10.552   5.235   0.149
25027SOL     OW76919  14.801   4.609   7.811
25027SOL    HW176920  14.739   4.668   7.853
25027SOL    HW276921  14.862   4.584   7.880
25028SOL     OW76922   9.781   9.501   0.853
25028SOL    HW176923   9.719   9.526   0.784
25028SOL    HW276924   9.854   9.561   0.843
25029SOL     OW76925  11.006  12.857   9.695
25029SOL    HW176926  10.919  12.893   9.676
25029SOL    HW276927  11.040  12.911   9.765
25030SOL     OW76928   1.847   4.143   4.737
25030SOL    HW176929   1.844   4.070   4.799
25030SOL    HW276930   1.758   4.153   4.705
25031SOL     OW76931   2.815   1.967  14.680
25031SOL    HW176932   2.792   1.969  14.586
25031SOL    HW276933   2.790   2.054  14.712
25032SOL     OW76934   9.186   0.132  11.571
25032SOL    HW176935   9.179   0.089  11.656
25032SOL    HW276936   9.139   0.215  11.582
25033SOL     OW76937   4.171   2.618   2.699
25033SOL    HW176938   4.260   2.642   2.724
25033SOL    HW276939   4.134   2.579   2.778
25034SOL     OW76940   9.069   5.432  10.971
25034SOL    HW176941   9.047   5.350  10.927
25034SOL    HW276942   9.067   5.498  10.903
25035SOL     OW76943   2.708  12.828   0.350
25035SOL    HW176944   2.670  12.911   0.321
25035SOL    HW276945   2.784  12.854   0.403
25036SOL     OW76946  14.280   6.579   1.088
25036SOL    HW176947  14.337   6.652   1.064
25036SOL    HW276948  14.337   6.520   1.138
25037SOL     OW76949   5.989   4.305   2.854
25037SOL    HW176950   5.914   4.334   2.802
25037SOL    HW276951   6.060   4.297   2.791
25038SOL     OW76952   4.084   7.416   4.674
25038SOL    HW176953   4.126   7.333   4.699
25038SOL    HW276954   4.024   7.434   4.746
25039SOL     OW76955  14.211   3.353   7.279
25039SOL    HW176956  14.202   3.361   7.184
25039SOL    HW276957  14.164   3.428   7.315
25040SOL     OW76958   4.811   5.842   8.525
25040SOL    HW176959   4.859   5.775   8.475
25040SOL    HW276960   4.836   5.925   8.484
25041SOL     OW76961  13.579  13.435   3.797
25041SOL    HW176962  13.599  13.410   3.888
25041SOL    HW276963  13.505  13.496   3.805
25042SOL     OW76964  14.048   2.592   2.246
25042SOL    HW176965  14.014   2.662   2.301
25042SOL    HW276966  14.095   2.534   2.306
25043SOL     OW76967  10.707   2.028   5.046
25043SOL    HW176968  10.685   1.937   5.027
25043SOL    HW276969  10.693   2.036   5.141
25044SOL     OW76970  10.857  13.620   8.000
25044SOL    HW176971  10.797  13.604   7.926
25044SOL    HW276972  10.944  13.608   7.963
25045SOL     OW76973  14.825   6.253  10.766
25045SOL    HW176974  14.865   6.262  10.679
25045SOL    HW276975   0.021   6.227  10.823
25046SOL     OW76976  13.564   3.806   9.582
25046SOL    HW176977  13.517   3.847   9.509
25046SOL    HW276978  13.605   3.879   9.628
25047SOL     OW76979  14.872   9.095  14.363
25047SOL    HW176980  14.870   9.021  14.423
25047SOL    HW276981  14.785   9.135  14.372
25048SOL     OW76982   1.923   5.483   0.822
25048SOL    HW176983   1.952   5.523   0.740
25048SOL    HW276984   2.003   5.474   0.874
25049SOL     OW76985  13.806  14.160  13.419
25049SOL    HW176986  13.776  14.195  13.502
25049SOL    HW276987  13.824  14.067  13.436
25050SOL     OW76988  11.143   5.228  12.521
25050SOL    HW176989  11.193   5.267  12.450
25050SOL    HW276990  11.200   5.161  12.557
25051SOL     OW76991   4.037   3.278   4.501
25051SOL    HW176992   3.973   3.343   4.530
25051SOL    HW276993   4.013   3.198   4.546
25052SOL     OW76994   7.672   2.509   3.839
25052SOL    HW176995   7.759   2.483   3.810
25052SOL    HW276996   7.680   2.518   3.934
25053SOL     OW76997   7.982   7.365   3.255
25053SOL    HW176998   7.959   7.305   3.184
25053SOL    HW276999   7.928   7.337   3.328
25054SOL     OW77000  13.050  11.048   6.714
25054SOL    HW177001  13.137  11.089   6.706
25054SOL    HW277002  13.014  11.051   6.626
25055SOL     OW77003   5.602  10.323   1.744
25055SOL    HW177004   5.628  10.379   1.817
25055SOL    HW277005   5.561  10.382   1.681
25056SOL     OW77006   2.859  13.565  13.065
25056SOL    HW177007   2.946  13.603  13.053
25056SOL    HW277008   2.875  13.477  13.100
25057SOL     OW77009   6.613   7.674  10.220
25057SOL    HW177010   6.548   7.721  10.168
25057SOL    HW277011   6.570   7.660  10.305
25058SOL     OW77012   7.981  14.478   8.066
25058SOL    HW177013   7.993  14.395   8.112
25058SOL    HW277014   8.055  14.484   8.006
25059SOL     OW77015  13.568  13.434   6.222
25059SOL    HW177016  13.522  13.453   6.304
25059SOL    HW277017  13.501  13.392   6.167
25060SOL     OW77018   0.426   1.088  10.633
25060SOL    HW177019   0.452   1.156  10.694
25060SOL    HW277020   0.336   1.067  10.658
25061SOL     OW77021   4.938   6.732   4.399
25061SOL    HW177022   4.973   6.762   4.484
25061SOL    HW277023   4.860   6.785   4.386
25062SOL     OW77024  11.251  12.477   3.396
25062SOL    HW177025  11.301  12.512   3.470
25062SOL    HW277026  11.240  12.384   3.416
25063SOL     OW77027  14.480   2.167  10.865
25063SOL    HW177028  14.414   2.219  10.912
25063SOL    HW277029  14.507   2.101  10.929
25064SOL     OW77030  11.764   8.099   2.560
25064SOL    HW177031  11.804   8.013   2.569
25064SOL    HW277032  11.745   8.107   2.466
25065SOL     OW77033  12.202   0.959  14.412
25065SOL    HW177034  12.144   0.885  14.394
25065SOL    HW277035  12.190   1.017  14.336
25066SOL     OW77036   7.969   6.915  13.510
25066SOL    HW177037   8.020   6.942  13.586
25066SOL    HW277038   7.979   6.820  13.507
25067SOL     OW77039  12.101   1.452   1.975
25067SOL    HW177040  12.065   1.461   1.887
25067SOL    HW277041  12.133   1.362   1.979
25068SOL     OW77042   4.594  10.321  11.123
25068SOL    HW177043   4.654  10.246  11.130
25068SOL    HW277044   4.554  10.327  11.209
25069SOL     OW77045   0.606   7.553   9.752
25069SOL    HW177046   0.537   7.515   9.698
25069SOL    HW277047   0.678   7.569   9.691
25070SOL     OW77048   7.608  10.154   6.112
25070SOL    HW177049   7.525  10.163   6.064
25070SOL    HW277050   7.675  10.180   6.049
25071SOL     OW77051   8.432   3.577   5.567
25071SOL    HW177052   8.397   3.549   5.651
25071SOL    HW277053   8.403   3.667   5.557
25072SOL     OW77054   4.160   7.644  10.015
25072SOL    HW177055   4.218   7.569  10.003
25072SOL    HW277056   4.200   7.714   9.962
25073SOL     OW77057   5.440   1.045   3.905
25073SOL    HW177058   5.370   1.065   3.843
25073SOL    HW277059   5.427   1.107   3.977
25074SOL     OW77060   3.962   4.512  12.369
25074SOL    HW177061   3.981   4.431  12.416
25074SOL    HW277062   3.983   4.492  12.278
25075SOL     OW77063  12.385   3.709   9.079
25075SOL    HW177064  12.380   3.700   9.175
25075SOL    HW277065  12.344   3.629   9.046
25076SOL     OW77066   5.621   5.633   5.043
25076SOL    HW177067   5.682   5.630   5.117
25076SOL    HW277068   5.573   5.550   5.048
25077SOL     OW77069   8.959   7.946  12.731
25077SOL    HW177070   9.042   7.898  12.723
25077SOL    HW277071   8.977   8.013  12.798
25078SOL     OW77072  14.185   4.508   6.319
25078SOL    HW177073  14.206   4.573   6.385
25078SOL    HW277074  14.093   4.486   6.336
25079SOL     OW77075   4.093   5.471   3.582
25079SOL    HW177076   4.040   5.394   3.559
25079SOL    HW277077   4.030   5.534   3.617
25080SOL     OW77078  12.916  14.817  14.142
25080SOL    HW177079  12.880  14.845  14.057
25080SOL    HW277080  12.883   0.005  14.204
25081SOL     OW77081  10.455   7.156  11.727
25081SOL    HW177082  10.531   7.149  11.784
25081SOL    HW277083  10.489   7.192  11.645
25082SOL     OW77084   6.456   5.628   6.437
25082SOL    HW177085   6.494   5.621   6.525
25082SOL    HW277086   6.521   5.589   6.379
25083SOL     OW77087   2.847   3.438   7.534
25083SOL    HW177088   2.818   3.466   7.448
25083SOL    HW277089   2.941   3.428   7.526
25084SOL     OW77090   1.614  13.459   1.651
25084SOL    HW177091   1.659  13.488   1.572
25084SOL    HW277092   1.663  13.501   1.722
25085SOL     OW77093  14.803  11.603   2.573
25085SOL    HW177094  14.868  11.594   2.644
25085SOL    HW277095  14.818  11.526   2.518
25086SOL     OW77096   3.442   7.613  11.156
25086SOL    HW177097   3.431   7.524  11.122
25086SOL    HW277098   3.507   7.653  11.099
25087SOL     OW77099   7.379  14.297   7.326
25087SOL    HW177100   7.285  14.315   7.321
25087SOL    HW277101   7.392  14.225   7.264
25088SOL     OW77102   7.026   9.600   8.537
25088SOL    HW177103   6.962   9.564   8.599
25088SOL    HW277104   7.031   9.693   8.560
25089SOL     OW77105   2.861  13.015   8.950
25089SOL    HW177106   2.894  13.086   8.894
25089SOL    HW277107   2.934  12.993   9.008
25090SOL     OW77108   6.486   4.369   7.910
25090SOL    HW177109   6.504   4.449   7.860
25090SOL    HW277110   6.492   4.397   8.001
25091SOL     OW77111  10.935   6.017   1.104
25091SOL    HW177112  10.920   6.044   1.195
25091SOL    HW277113  10.918   5.923   1.104
25092SOL     OW77114   4.005  11.272   0.594
25092SOL    HW177115   3.942  11.200   0.601
25092SOL    HW277116   4.091  11.229   0.597
25093SOL     OW77117  14.424  13.209  10.960
25093SOL    HW177118  14.450  13.161  11.039
25093SOL    HW277119  14.329  13.196  10.955
25094SOL     OW77120   7.908  11.345  14.773
25094SOL    HW177121   7.934  11.399  14.698
25094SOL    HW277122   7.902  11.256  14.738
25095SOL     OW77123  10.574   5.808  11.973
25095SOL    HW177124  10.542   5.825  11.885
25095SOL    HW277125  10.496   5.810  12.028
25096SOL     OW77126  12.559  10.358   8.236
25096SOL    HW177127  12.492  10.307   8.282
25096SOL    HW277128  12.519  10.444   8.225
25097SOL     OW77129  12.633   6.513   5.847
25097SOL    HW177130  12.638   6.511   5.942
25097SOL    HW277131  12.644   6.422   5.820
25098SOL     OW77132  12.610   9.932   5.829
25098SOL    HW177133  12.607  10.000   5.762
25098SOL    HW277134  12.519   9.903   5.838
25099SOL     OW77135  12.768  11.297   2.538
25099SOL    HW177136  12.803  11.297   2.627
25099SOL    HW277137  12.738  11.386   2.523
25100SOL     OW77138  12.599   6.294   8.938
25100SOL    HW177139  12.680   6.244   8.931
25100SOL    HW277140  12.570   6.280   9.028
25101SOL     OW77141   8.129  11.897  13.256
25101SOL    HW177142   8.212  11.849  13.258
25101SOL    HW277143   8.152  11.983  13.220
25102SOL     OW77144   6.003   7.686   6.116
25102SOL    HW177145   5.947   7.734   6.055
25102SOL    HW277146   5.942   7.631   6.166
25103SOL     OW77147   5.189   9.162  10.472
25103SOL    HW177148   5.200   9.091  10.409
25103SOL    HW277149   5.111   9.209  10.442
25104SOL     OW77150  14.201   0.826   7.508
25104SOL    HW177151  14.226   0.897   7.567
25104SOL    HW277152  14.192   0.867   7.422
25105SOL     OW77153   8.673  11.725   6.402
25105SOL    HW177154   8.643  11.648   6.451
25105SOL    HW277155   8.677  11.795   6.467
25106SOL     OW77156   1.040   2.850   7.038
25106SOL    HW177157   0.948   2.822   7.045
25106SOL    HW277158   1.084   2.777   6.995
25107SOL     OW77159  13.830   7.927   6.882
25107SOL    HW177160  13.916   7.903   6.848
25107SOL    HW277161  13.838   7.919   6.977
25108SOL     OW77162   3.042   9.785   4.160
25108SOL    HW177163   3.127   9.801   4.119
25108SOL    HW277164   2.979   9.788   4.087
25109SOL     OW77165   6.501  10.808   4.607
25109SOL    HW177166   6.419  10.775   4.644
25109SOL    HW277167   6.567  10.746   4.634
25110SOL     OW77168   0.031   8.358  12.688
25110SOL    HW177169  14.859   8.282  12.657
25110SOL    HW277170   0.083   8.387  12.613
25111SOL     OW77171  13.618   9.896   2.473
25111SOL    HW177172  13.551   9.828   2.480
25111SOL    HW277173  13.675   9.882   2.549
25112SOL     OW77174  12.053   4.345   2.868
25112SOL    HW177175  12.134   4.354   2.918
25112SOL    HW277176  12.081   4.314   2.782
25113SOL     OW77177  11.811   3.463   3.346
25113SOL    HW177178  11.746   3.395   3.325
25113SOL    HW277179  11.887   3.415   3.379
25114SOL     OW77180  10.252   3.673   0.085
25114SOL    HW177181  10.251   3.721   0.002
25114SOL    HW277182  10.173   3.701   0.130
25115SOL     OW77183   4.146  13.588   4.065
25115SOL    HW177184   4.062  13.554   4.033
25115SOL    HW277185   4.150  13.677   4.030
25116SOL     OW77186  11.617   0.752   7.476
25116SOL    HW177187  11.527   0.785   7.481
25116SOL    HW277188  11.625   0.692   7.550
25117SOL     OW77189  14.237   0.663  12.219
25117SOL    HW177190  14.310   0.602  12.220
25117SOL    HW277191  14.200   0.657  12.308
25118SOL     OW77192   2.286  13.844   1.128
25118SOL    HW177193   2.215  13.831   1.191
25118SOL    HW277194   2.295  13.760   1.084
25119SOL     OW77195   8.871   6.995   7.608
25119SOL    HW177196   8.903   7.043   7.532
25119SOL    HW277197   8.890   7.053   7.683
25120SOL     OW77198   3.962   5.380   9.218
25120SOL    HW177199   3.969   5.475   9.224
25120SOL    HW277200   4.050   5.351   9.195
25121SOL     OW77201   1.437   6.764   5.125
25121SOL    HW177202   1.447   6.775   5.219
25121SOL    HW277203   1.483   6.683   5.105
25122SOL     OW77204  13.130  13.978   2.297
25122SOL    HW177205  13.216  14.009   2.325
25122SOL    HW277206  13.140  13.964   2.203
25123SOL     OW77207  14.129  10.483   9.654
25123SOL    HW177208  14.090  10.419   9.594
25123SOL    HW277209  14.198  10.435   9.699
25124SOL     OW77210  12.509  14.791  13.456
25124SOL    HW177211  12.418  14.814  13.471
25124SOL    HW277212  12.541  14.856  13.394
25125SOL     OW77213  14.389   6.192  11.428
25125SOL    HW177214  14.308   6.225  11.468
25125SOL    HW277215  14.362   6.113  11.381
25126SOL     OW77216  13.638   8.056   6.336
25126SOL    HW177217  13.566   8.118   6.351
25126SOL    HW277218  13.716   8.111   6.330
25127SOL     OW77219   6.883   2.605   0.460
25127SOL    HW177220   6.916   2.529   0.508
25127SOL    HW277221   6.958   2.664   0.454
25128SOL     OW77222  11.548  11.971   1.508
25128SOL    HW177223  11.459  11.954   1.476
25128SOL    HW277224  11.535  12.001   1.598
25129SOL     OW77225  13.598   0.203  13.833
25129SOL    HW177226  13.556   0.246  13.907
25129SOL    HW277227  13.678   0.165  13.869
25130SOL     OW77228   2.642   8.680   6.338
25130SOL    HW177229   2.643   8.717   6.427
25130SOL    HW277230   2.625   8.756   6.281
25131SOL     OW77231  12.147   7.157   2.433
25131SOL    HW177232  12.218   7.212   2.400
25131SOL    HW277233  12.106   7.121   2.354
25132SOL     OW77234   3.850  10.761   5.608
25132SOL    HW177235   3.844  10.709   5.528
25132SOL    HW277236   3.762  10.796   5.620
25133SOL     OW77237  11.887  13.759   6.310
25133SOL    HW177238  11.966  13.706   6.306
25133SOL    HW277239  11.818  13.698   6.338
25134SOL     OW77240  13.162   3.004  11.195
25134SOL    HW177241  13.127   3.091  11.212
25134SOL    HW277242  13.176   2.966  11.282
25135SOL     OW77243  12.549  10.217   7.938
25135SOL    HW177244  12.641  10.197   7.924
25135SOL    HW277245  12.547  10.267   8.019
25136SOL     OW77246   3.100  14.316  13.019
25136SOL    HW177247   3.175  14.290  13.072
25136SOL    HW277248   3.077  14.403  13.052
25137SOL     OW77249   3.616   6.871  11.008
25137SOL    HW177250   3.706   6.871  10.977
25137SOL    HW277251   3.571   6.807  10.952
25138SOL     OW77252   3.607   5.595   5.771
25138SOL    HW177253   3.616   5.663   5.837
25138SOL    HW277254   3.590   5.515   5.821
25139SOL     OW77255   0.581  10.451  14.154
25139SOL    HW177256   0.655  10.438  14.095
25139SOL    HW277257   0.616  10.436  14.242
25140SOL     OW77258  14.543   2.326   2.026
25140SOL    HW177259  14.477   2.388   2.059
25140SOL    HW277260  14.559   2.268   2.100
25141SOL     OW77261   7.321   1.702   2.078
25141SOL    HW177262   7.251   1.754   2.039
25141SOL    HW277263   7.319   1.724   2.171
25142SOL     OW77264   5.052   0.038   1.330
25142SOL    HW177265   5.018   0.028   1.240
25142SOL    HW277266   5.083   0.128   1.333
25143SOL     OW77267   0.903  11.701   9.426
25143SOL    HW177268   0.882  11.724   9.336
25143SOL    HW277269   0.973  11.761   9.451
25144SOL     OW77270   5.465  14.361  11.023
25144SOL    HW177271   5.402  14.431  11.040
25144SOL    HW277272   5.426  14.310  10.952
25145SOL     OW77273   8.928   0.285   3.535
25145SOL    HW177274   8.908   0.229   3.610
25145SOL    HW277275   8.861   0.353   3.538
25146SOL     OW77276  11.899  12.539  11.588
25146SOL    HW177277  11.866  12.460  11.547
25146SOL    HW277278  11.993  12.537  11.573
25147SOL     OW77279  10.783   5.687   7.074
25147SOL    HW177280  10.745   5.629   7.140
25147SOL    HW277281  10.875   5.696   7.101
25148SOL     OW77282  11.416   4.283   8.648
25148SOL    HW177283  11.440   4.369   8.614
25148SOL    HW277284  11.381   4.301   8.736
25149SOL     OW77285   8.403  11.000  13.465
25149SOL    HW177286   8.321  10.963  13.432
25149SOL    HW277287   8.402  11.091  13.436
25150SOL     OW77288   8.798   3.909  10.244
25150SOL    HW177289   8.802   3.853  10.321
25150SOL    HW277290   8.738   3.865  10.185
25151SOL     OW77291   2.218  11.153   9.005
25151SOL    HW177292   2.178  11.083   8.953
25151SOL    HW277293   2.203  11.232   8.954
25152SOL     OW77294   4.230  13.286   7.820
25152SOL    HW177295   4.230  13.273   7.725
25152SOL    HW277296   4.258  13.202   7.856
25153SOL     OW77297  13.570   9.417  12.344
25153SOL    HW177298  13.544   9.446  12.256
25153SOL    HW277299  13.654   9.372  12.330
25154SOL     OW77300   5.980   0.151   8.070
25154SOL    HW177301   6.073   0.175   8.075
25154SOL    HW277302   5.980   0.061   8.037
25155SOL     OW77303  12.370   8.711   4.389
25155SOL    HW177304  12.285   8.751   4.409
25155SOL    HW277305  12.434   8.770   4.427
25156SOL     OW77306   5.634   5.237   4.320
25156SOL    HW177307   5.657   5.144   4.319
25156SOL    HW277308   5.592   5.252   4.235
25157SOL     OW77309   8.590   8.878   8.753
25157SOL    HW177310   8.509   8.898   8.706
25157SOL    HW277311   8.578   8.789   8.785
25158SOL     OW77312  11.923   3.091  12.847
25158SOL    HW177313  11.861   3.150  12.889
25158SOL    HW277314  11.871   3.041  12.785
25159SOL     OW77315  13.327   8.434  11.024
25159SOL    HW177316  13.372   8.451  11.106
25159SOL    HW277317  13.303   8.521  10.991
25160SOL     OW77318   6.576   3.503   9.357
25160SOL    HW177319   6.662   3.514   9.316
25160SOL    HW277320   6.584   3.548   9.441
25161SOL     OW77321   5.406   3.922   2.717
25161SOL    HW177322   5.451   3.888   2.794
25161SOL    HW277323   5.453   3.882   2.643
25162SOL     OW77324  14.809  13.853   0.350
25162SOL    HW177325  14.838  13.830   0.261
25162SOL    HW277326  14.716  13.873   0.341
25163SOL     OW77327  11.551   3.238  14.278
25163SOL    HW177328  11.512   3.233  14.191
25163SOL    HW277329  11.487   3.196  14.336
25164SOL     OW77330   7.957   9.066   5.104
25164SOL    HW177331   7.910   8.983   5.108
25164SOL    HW277332   7.889   9.133   5.112
25165SOL     OW77333   1.673   8.265   8.312
25165SOL    HW177334   1.716   8.337   8.265
25165SOL    HW277335   1.708   8.269   8.401
25166SOL     OW77336   2.951   9.006   7.434
25166SOL    HW177337   3.043   8.983   7.445
25166SOL    HW277338   2.913   8.995   7.521
25167SOL     OW77339   0.049  14.357   4.265
25167SOL    HW177340   0.049  14.443   4.224
25167SOL    HW277341   0.142  14.339   4.282
25168SOL     OW77342   3.658   6.036   9.008
25168SOL    HW177343   3.587   5.998   8.956
25168SOL    HW277344   3.620   6.115   9.048
25169SOL     OW77345   8.954  13.362  10.118
25169SOL    HW177346   9.021  13.338  10.183
25169SOL    HW277347   8.897  13.424  10.165
25170SOL     OW77348   2.587   8.737   4.317
25170SOL    HW177349   2.632   8.777   4.242
25170SOL    HW277350   2.535   8.667   4.279
25171SOL     OW77351   3.770   9.755   5.937
25171SOL    HW177352   3.775   9.836   5.987
25171SOL    HW277353   3.861   9.726   5.929
25172SOL     OW77354   5.923   2.760   4.832
25172SOL    HW177355   5.942   2.670   4.805
25172SOL    HW277356   5.917   2.809   4.750
25173SOL     OW77357   6.761  10.837  12.877
25173SOL    HW177358   6.848  10.813  12.846
25173SOL    HW277359   6.748  10.926  12.845
25174SOL     OW77360   5.971  14.175  10.405
25174SOL    HW177361   5.920  14.225  10.341
25174SOL    HW277362   6.034  14.237  10.440
25175SOL     OW77363   2.715   7.043   5.338
25175SOL    HW177364   2.798   7.074   5.302
25175SOL    HW277365   2.732   6.952   5.364
25176SOL     OW77366   9.636   5.035   2.385
25176SOL    HW177367   9.651   5.113   2.332
25176SOL    HW277368   9.553   4.999   2.352
25177SOL     OW77369  11.798   4.897   5.372
25177SOL    HW177370  11.710   4.934   5.380
25177SOL    HW277371  11.846   4.962   5.320
25178SOL     OW77372  13.682  11.905  12.835
25178SOL    HW177373  13.717  11.971  12.775
25178SOL    HW277374  13.606  11.869  12.790
25179SOL     OW77375   3.101   7.956   8.380
25179SOL    HW177376   3.188   7.989   8.360
25179SOL    HW277377   3.103   7.864   8.354
25180SOL     OW77378  14.032   0.354  12.777
25180SOL    HW177379  13.980   0.370  12.856
25180SOL    HW277380  14.088   0.432  12.769
25181SOL     OW77381   1.664  12.480   8.572
25181SOL    HW177382   1.755  12.505   8.557
25181SOL    HW277383   1.613  12.554   8.539
25182SOL     OW77384   6.041   7.444   7.956
25182SOL    HW177385   6.082   7.488   7.881
25182SOL    HW277386   6.064   7.352   7.945
25183SOL     OW77387   7.084   5.062   3.565
25183SOL    HW177388   7.121   5.137   3.519
25183SOL    HW277389   7.057   5.097   3.650
25184SOL     OW77390   6.557  12.438  10.704
25184SOL    HW177391   6.573  12.358  10.753
25184SOL    HW277392   6.461  12.444  10.699
25185SOL     OW77393  10.610  11.673   1.746
25185SOL    HW177394  10.536  11.699   1.801
25185SOL    HW277395  10.634  11.753   1.698
25186SOL     OW77396   8.576   0.391  12.854
25186SOL    HW177397   8.553   0.352  12.939
25186SOL    HW277398   8.667   0.364  12.840
25187SOL     OW77399   7.866   7.349   1.010
25187SOL    HW177400   7.932   7.281   0.996
25187SOL    HW277401   7.916   7.425   1.038
25188SOL     OW77402  11.944   6.970   2.635
25188SOL    HW177403  12.007   7.042   2.627
25188SOL    HW277404  11.952   6.922   2.553
25189SOL     OW77405   8.663  10.949   3.472
25189SOL    HW177406   8.709  10.919   3.550
25189SOL    HW277407   8.621  10.870   3.437
25190SOL     OW77408   5.839   8.527   6.558
25190SOL    HW177409   5.925   8.568   6.553
25190SOL    HW277410   5.819   8.501   6.468
25191SOL     OW77411   5.544   1.248   8.113
25191SOL    HW177412   5.637   1.270   8.115
25191SOL    HW277413   5.503   1.309   8.174
25192SOL     OW77414   3.540  11.138  11.663
25192SOL    HW177415   3.584  11.055  11.647
25192SOL    HW277416   3.578  11.198  11.598
25193SOL     OW77417   3.092  11.894   7.839
25193SOL    HW177418   3.067  11.957   7.772
25193SOL    HW277419   3.010  11.873   7.884
25194SOL     OW77420  13.021  12.817   8.312
25194SOL    HW177421  13.005  12.804   8.218
25194SOL    HW277422  13.109  12.854   8.316
25195SOL     OW77423   3.148  14.153  13.346
25195SOL    HW177424   3.198  14.223  13.304
25195SOL    HW277425   3.100  14.197  13.417
25196SOL     OW77426   8.355   3.261  14.447
25196SOL    HW177427   8.294   3.335  14.446
25196SOL    HW277428   8.411   3.276  14.523
25197SOL     OW77429   5.700  12.099   0.218
25197SOL    HW177430   5.621  12.138   0.256
25197SOL    HW277431   5.670  12.060   0.136
25198SOL     OW77432  12.184  13.094   8.940
25198SOL    HW177433  12.260  13.037   8.953
25198SOL    HW277434  12.169  13.135   9.025
25199SOL     OW77435   3.702   9.061   6.742
25199SOL    HW177436   3.691   8.988   6.680
25199SOL    HW277437   3.701   9.139   6.686
25200SOL     OW77438   3.823   7.874   5.948
25200SOL    HW177439   3.811   7.814   5.874
25200SOL    HW277440   3.912   7.857   5.978
25201SOL     OW77441  12.150   7.201  11.712
25201SOL    HW177442  12.138   7.210  11.807
25201SOL    HW277443  12.169   7.291  11.682
25202SOL     OW77444   9.007  14.779  13.979
25202SOL    HW177445   8.985  14.688  13.997
25202SOL    HW277446   9.088  14.794  14.028
25203SOL     OW77447   6.947   6.274   2.913
25203SOL    HW177448   7.040   6.251   2.906
25203SOL    HW277449   6.920   6.240   2.998
25204SOL     OW77450  12.666   0.225   5.650
25204SOL    HW177451  12.717   0.284   5.707
25204SOL    HW277452  12.635   0.282   5.579
25205SOL     OW77453   7.270   5.385  14.561
25205SOL    HW177454   7.288   5.470  14.521
25205SOL    HW277455   7.285   5.322  14.490
25206SOL     OW77456  13.797   2.170  10.290
25206SOL    HW177457  13.886   2.182  10.323
25206SOL    HW277458  13.750   2.247  10.320
25207SOL     OW77459  13.314   4.550   7.544
25207SOL    HW177460  13.298   4.592   7.460
25207SOL    HW277461  13.245   4.485   7.552
25208SOL     OW77462  11.867  10.951  10.872
25208SOL    HW177463  11.897  10.878  10.925
25208SOL    HW277464  11.785  10.921  10.833
25209SOL     OW77465   0.467   8.024  14.517
25209SOL    HW177466   0.448   7.972  14.595
25209SOL    HW277467   0.465   7.961  14.444
25210SOL     OW77468   3.104  10.826  10.176
25210SOL    HW177469   3.149  10.812  10.259
25210SOL    HW277470   3.155  10.894  10.132
25211SOL     OW77471   7.734   0.582   8.621
25211SOL    HW177472   7.803   0.544   8.674
25211SOL    HW277473   7.779   0.648   8.567
25212SOL     OW77474   1.625  11.409   7.038
25212SOL    HW177475   1.552  11.351   7.017
25212SOL    HW277476   1.643  11.457   6.957
25213SOL     OW77477  12.712   8.935   6.362
25213SOL    HW177478  12.772   9.009   6.355
25213SOL    HW277479  12.730   8.898   6.449
25214SOL     OW77480   1.896   5.546   0.547
25214SOL    HW177481   1.907   5.451   0.552
25214SOL    HW277482   1.802   5.558   0.531
25215SOL     OW77483   2.173   6.667   1.123
25215SOL    HW177484   2.158   6.669   1.029
25215SOL    HW277485   2.148   6.755   1.153
25216SOL     OW77486   9.823   7.191   8.943
25216SOL    HW177487   9.835   7.263   8.882
25216SOL    HW277488   9.861   7.115   8.898
25217SOL     OW77489   4.532   3.097   2.949
25217SOL    HW177490   4.487   3.180   2.931
25217SOL    HW277491   4.542   3.057   2.863
25218SOL     OW77492  13.905   6.897   3.455
25218SOL    HW177493  13.947   6.833   3.398
25218SOL    HW277494  13.817   6.907   3.420
25219SOL     OW77495   8.649   7.999  14.469
25219SOL    HW177496   8.569   7.963  14.429
25219SOL    HW277497   8.701   8.029  14.395
25220SOL     OW77498   1.877   9.003   9.176
25220SOL    HW177499   1.813   9.073   9.167
25220SOL    HW277500   1.948   9.041   9.227
25221SOL     OW77501  13.905   0.187  10.031
25221SOL    HW177502  13.859   0.236  10.099
25221SOL    HW277503  13.985   0.156  10.073
25222SOL     OW77504   1.487  12.523   7.936
25222SOL    HW177505   1.505  12.489   8.024
25222SOL    HW277506   1.572  12.555   7.906
25223SOL     OW77507   5.581   9.029   4.377
25223SOL    HW177508   5.582   9.072   4.292
25223SOL    HW277509   5.638   8.953   4.367
25224SOL     OW77510   3.727   9.741  10.538
25224SOL    HW177511   3.736   9.783  10.624
25224SOL    HW277512   3.704   9.813  10.479
25225SOL     OW77513   5.163  13.767   7.218
25225SOL    HW177514   5.109  13.706   7.167
25225SOL    HW277515   5.116  13.850   7.214
25226SOL     OW77516  10.780  13.713  12.413
25226SOL    HW177517  10.693  13.676  12.400
25226SOL    HW277518  10.765  13.800  12.451
25227SOL     OW77519  10.581   0.203   5.263
25227SOL    HW177520  10.602   0.178   5.174
25227SOL    HW277521  10.656   0.174   5.315
25228SOL     OW77522   3.122   2.104   1.717
25228SOL    HW177523   3.039   2.144   1.742
25228SOL    HW277524   3.147   2.149   1.636
25229SOL     OW77525  12.948   9.365   8.242
25229SOL    HW177526  12.933   9.321   8.158
25229SOL    HW277527  12.999   9.303   8.293
25230SOL     OW77528  13.307   6.448   5.864
25230SOL    HW177529  13.228   6.439   5.811
25230SOL    HW277530  13.342   6.359   5.869
25231SOL     OW77531   3.703   5.967   2.436
25231SOL    HW177532   3.746   5.882   2.449
25231SOL    HW277533   3.615   5.954   2.471
25232SOL     OW77534   2.051   9.396   2.023
25232SOL    HW177535   2.129   9.450   2.036
25232SOL    HW277536   1.981   9.442   2.070
25233SOL     OW77537   7.872   5.957   5.547
25233SOL    HW177538   7.869   5.871   5.506
25233SOL    HW277539   7.819   5.947   5.626
25234SOL     OW77540   6.134   3.124  12.002
25234SOL    HW177541   6.123   3.174  12.083
25234SOL    HW277542   6.089   3.177  11.936
25235SOL     OW77543  11.878   0.672   1.294
25235SOL    HW177544  11.849   0.627   1.214
25235SOL    HW277545  11.921   0.603   1.345
25236SOL     OW77546   8.270   1.323   8.141
25236SOL    HW177547   8.316   1.285   8.215
25236SOL    HW277548   8.320   1.296   8.064
25237SOL     OW77549  14.250  10.248   9.932
25237SOL    HW177550  14.256  10.194   9.852
25237SOL    HW277551  14.295  10.197   9.999
25238SOL     OW77552   5.147   5.580   1.936
25238SOL    HW177553   5.235   5.558   1.904
25238SOL    HW277554   5.092   5.577   1.859
25239SOL     OW77555   2.286   7.313   9.862
25239SOL    HW177556   2.345   7.246   9.896
25239SOL    HW277557   2.226   7.265   9.805
25240SOL     OW77558  11.786   0.735   0.988
25240SOL    HW177559  11.881   0.743   0.996
25240SOL    HW277560  11.752   0.811   1.035
25241SOL     OW77561   9.467   9.315  13.078
25241SOL    HW177562   9.450   9.406  13.103
25241SOL    HW277563   9.558   9.299  13.105
25242SOL     OW77564  14.620   0.106   2.199
25242SOL    HW177565  14.597   0.060   2.118
25242SOL    HW277566  14.561   0.069   2.265
25243SOL     OW77567   8.099   5.972   7.742
25243SOL    HW177568   8.105   6.057   7.698
25243SOL    HW277569   8.006   5.963   7.763
25244SOL     OW77570  14.781   1.856  14.821
25244SOL    HW177571  14.696   1.882  14.784
25244SOL    HW277572  14.843   1.920  14.785
25245SOL     OW77573   2.075  12.965   5.366
25245SOL    HW177574   2.122  12.911   5.303
25245SOL    HW277575   2.141  12.988   5.432
25246SOL     OW77576  11.080   1.781   3.660
25246SOL    HW177577  11.007   1.722   3.644
25246SOL    HW277578  11.151   1.747   3.606
25247SOL     OW77579   4.343   0.124   4.128
25247SOL    HW177580   4.337   0.091   4.217
25247SOL    HW277581   4.398   0.061   4.083
25248SOL     OW77582   0.615   1.721   4.546
25248SOL    HW177583   0.689   1.708   4.488
25248SOL    HW277584   0.548   1.660   4.514
25249SOL     OW77585  10.745   0.637  14.580
25249SOL    HW177586  10.742   0.550  14.621
25249SOL    HW277587  10.657   0.673  14.593
25250SOL     OW77588   8.119   1.193   2.618
25250SOL    HW177589   8.138   1.259   2.684
25250SOL    HW277590   8.204   1.161   2.590
25251SOL     OW77591  11.654   9.345  14.150
25251SOL    HW177592  11.693   9.379  14.070
25251SOL    HW277593  11.604   9.269  14.122
25252SOL     OW77594   3.243   5.443   7.874
25252SOL    HW177595   3.286   5.521   7.911
25252SOL    HW277596   3.150   5.461   7.882
25253SOL     OW77597  10.313  11.372  10.827
25253SOL    HW177598  10.309  11.308  10.756
25253SOL    HW277599  10.393  11.350  10.875
25254SOL     OW77600   4.389   8.274   3.664
25254SOL    HW177601   4.332   8.351   3.663
25254SOL    HW277602   4.455   8.292   3.597
25255SOL     OW77603   0.426  13.519   4.109
25255SOL    HW177604   0.382  13.557   4.185
25255SOL    HW277605   0.431  13.591   4.045
25256SOL     OW77606  13.515   5.731  14.374
25256SOL    HW177607  13.590   5.754  14.429
25256SOL    HW277608  13.510   5.802  14.310
25257SOL     OW77609  13.474  14.833   1.381
25257SOL    HW177610  13.379  14.843   1.378
25257SOL    HW277611  13.507   0.008   1.307
25258SOL     OW77612   3.791  13.935   5.185
25258SOL    HW177613   3.753  13.990   5.253
25258SOL    HW277614   3.774  13.846   5.215
25259SOL     OW77615   6.365   4.330  13.323
25259SOL    HW177616   6.455   4.317  13.294
25259SOL    HW277617   6.348   4.423  13.307
25260SOL     OW77618  12.445   0.902  14.491
25260SOL    HW177619  12.360   0.902  14.447
25260SOL    HW277620  12.441   0.977  14.551
25261SOL     OW77621   0.246   3.341   0.681
25261SOL    HW177622   0.321   3.317   0.627
25261SOL    HW277623   0.193   3.261   0.687
25262SOL     OW77624   2.039   3.534   6.674
25262SOL    HW177625   2.090   3.465   6.632
25262SOL    HW277626   1.948   3.515   6.649
25263SOL     OW77627  13.242   0.694  13.896
25263SOL    HW177628  13.156   0.723  13.927
25263SOL    HW277629  13.264   0.619  13.952
25264SOL     OW77630   4.554  14.739   1.714
25264SOL    HW177631   4.572  14.831   1.693
25264SOL    HW277632   4.458  14.732   1.709
25265SOL     OW77633  13.909   7.354   3.531
25265SOL    HW177634  13.962   7.275   3.532
25265SOL    HW277635  13.865   7.354   3.616
25266SOL     OW77636   5.565   4.088   3.534
25266SOL    HW177637   5.526   4.144   3.600
25266SOL    HW277638   5.637   4.044   3.579
25267SOL     OW77639   5.087   5.369   8.199
25267SOL    HW177640   5.061   5.454   8.235
25267SOL    HW277641   5.084   5.381   8.104
25268SOL     OW77642  13.597   9.828  12.349
25268SOL    HW177643  13.610   9.769  12.423
25268SOL    HW277644  13.578   9.771  12.275
25269SOL     OW77645  14.728   4.590  11.676
25269SOL    HW177646  14.664   4.562  11.610
25269SOL    HW277647  14.808   4.543  11.653
25270SOL     OW77648  14.502  11.244   1.042
25270SOL    HW177649  14.411  11.265   1.021
25270SOL    HW277650  14.529  11.313   1.102
25271SOL     OW77651   4.463   1.359   9.128
25271SOL    HW177652   4.501   1.363   9.040
25271SOL    HW277653   4.493   1.275   9.162
25272SOL     OW77654   3.234  13.914   1.238
25272SOL    HW177655   3.229  14.005   1.210
25272SOL    HW277656   3.328  13.893   1.233
25273SOL     OW77657   0.134   4.796   5.136
25273SOL    HW177658   0.112   4.771   5.226
25273SOL    HW277659   0.219   4.839   5.144
25274SOL     OW77660  11.504   9.272  13.308
25274SOL    HW177661  11.473   9.259  13.219
25274SOL    HW277662  11.576   9.209  13.318
25275SOL     OW77663  11.368  13.509  14.008
25275SOL    HW177664  11.321  13.535  13.928
25275SOL    HW277665  11.379  13.591  14.057
25276SOL     OW77666  14.096   3.665   6.162
25276SOL    HW177667  14.060   3.749   6.134
25276SOL    HW277668  14.189   3.670   6.140
25277SOL     OW77669   1.802   1.424   7.763
25277SOL    HW177670   1.830   1.342   7.722
25277SOL    HW277671   1.821   1.491   7.697
25278SOL     OW77672   2.617  14.214   3.766
25278SOL    HW177673   2.585  14.289   3.816
25278SOL    HW277674   2.662  14.160   3.830
25279SOL     OW77675   7.194  10.130   2.250
25279SOL    HW177676   7.198  10.221   2.277
25279SOL    HW277677   7.214  10.131   2.156
25280SOL     OW77678  13.256   3.580   5.966
25280SOL    HW177679  13.182   3.582   6.027
25280SOL    HW277680  13.222   3.534   5.889
25281SOL     OW77681   7.737  10.368   1.054
25281SOL    HW177682   7.696  10.437   1.003
25281SOL    HW277683   7.830  10.374   1.032
25282SOL     OW77684  11.808   5.617  11.336
25282SOL    HW177685  11.747   5.543  11.334
25282SOL    HW277686  11.779   5.674  11.264
25283SOL     OW77687   1.784   1.725  12.325
25283SOL    HW177688   1.809   1.816  12.344
25283SOL    HW277689   1.699   1.733  12.283
25284SOL     OW77690   8.486   5.171   0.578
25284SOL    HW177691   8.492   5.141   0.487
25284SOL    HW277692   8.407   5.226   0.579
25285SOL     OW77693   1.059  13.585   7.104
25285SOL    HW177694   0.994  13.638   7.058
25285SOL    HW277695   1.094  13.644   7.171
25286SOL     OW77696   4.949  11.327   0.360
25286SOL    HW177697   4.992  11.260   0.413
25286SOL    HW277698   4.863  11.290   0.340
25287SOL     OW77699   4.298   2.169   0.305
25287SOL    HW177700   4.380   2.128   0.277
25287SOL    HW277701   4.297   2.253   0.260
25288SOL     OW77702   3.831   2.524  13.300
25288SOL    HW177703   3.834   2.600  13.242
25288SOL    HW277704   3.739   2.518  13.326
25289SOL     OW77705  13.854   2.185   9.674
25289SOL    HW177706  13.802   2.179   9.594
25289SOL    HW277707  13.910   2.263   9.661
25290SOL     OW77708  14.318  11.541   6.634
25290SOL    HW177709  14.228  11.533   6.603
25290SOL    HW277710  14.336  11.458   6.678
25291SOL     OW77711  12.692   0.501   9.189
25291SOL    HW177712  12.693   0.478   9.096
25291SOL    HW277713  12.754   0.573   9.198
25292SOL     OW77714   0.765   3.396   2.749
25292SOL    HW177715   0.742   3.384   2.657
25292SOL    HW277716   0.740   3.486   2.768
25293SOL     OW77717  11.749  10.850   0.277
25293SOL    HW177718  11.824  10.872   0.333
25293SOL    HW277719  11.673  10.867   0.332
25294SOL     OW77720   1.947   8.091  14.080
25294SOL    HW177721   1.933   8.008  14.126
25294SOL    HW277722   1.871   8.100  14.023
25295SOL     OW77723   3.698   2.348   5.897
25295SOL    HW177724   3.630   2.350   5.964
25295SOL    HW277725   3.704   2.256   5.872
25296SOL     OW77726   5.486   7.084   1.409
25296SOL    HW177727   5.565   7.113   1.362
25296SOL    HW277728   5.506   7.098   1.501
25297SOL     OW77729   8.058  13.773  12.504
25297SOL    HW177730   8.008  13.728  12.435
25297SOL    HW277731   8.107  13.841  12.458
25298SOL     OW77732   2.788   7.653   1.961
25298SOL    HW177733   2.749   7.658   2.048
25298SOL    HW277734   2.723   7.693   1.903
25299SOL     OW77735  12.920  13.214   3.807
25299SOL    HW177736  12.920  13.151   3.880
25299SOL    HW277737  13.013  13.226   3.787
25300SOL     OW77738   6.779   1.397   1.579
25300SOL    HW177739   6.807   1.319   1.530
25300SOL    HW277740   6.847   1.462   1.560
25301SOL     OW77741  13.977   9.565   5.966
25301SOL    HW177742  14.035   9.628   5.923
25301SOL    HW277743  13.892   9.579   5.926
25302SOL     OW77744  13.702   5.067   6.599
25302SOL    HW177745  13.668   5.139   6.545
25302SOL    HW277746  13.639   4.996   6.587
25303SOL     OW77747   4.739   3.231  11.427
25303SOL    HW177748   4.785   3.234  11.344
25303SOL    HW277749   4.804   3.258  11.492
25304SOL     OW77750  13.240  14.576   2.074
25304SOL    HW177751  13.242  14.484   2.100
25304SOL    HW277752  13.315  14.616   2.118
25305SOL     OW77753   8.036   9.492  12.804
25305SOL    HW177754   8.075   9.529  12.884
25305SOL    HW277755   8.095   9.421  12.780
25306SOL     OW77756  12.589  10.656   0.759
25306SOL    HW177757  12.661  10.618   0.811
25306SOL    HW277758  12.528  10.583   0.747
25307SOL     OW77759  14.850   2.990   5.559
25307SOL    HW177760  14.796   3.064   5.589
25307SOL    HW277761  14.840   2.990   5.464
25308SOL     OW77762  10.356   8.309  14.436
25308SOL    HW177763  10.379   8.292  14.345
25308SOL    HW277764  10.263   8.332  14.433
25309SOL     OW77765  13.288   8.718   9.586
25309SOL    HW177766  13.381   8.696   9.577
25309SOL    HW277767  13.284   8.812   9.568
25310SOL     OW77768  13.737  13.675  13.839
25310SOL    HW177769  13.719  13.746  13.900
25310SOL    HW277770  13.690  13.699  13.759
25311SOL     OW77771   8.862   6.866   6.947
25311SOL    HW177772   8.919   6.840   6.876
25311SOL    HW277773   8.871   6.797   7.012
25312SOL     OW77774   3.004  12.814  11.500
25312SOL    HW177775   3.022  12.791  11.409
25312SOL    HW277776   2.976  12.731  11.540
25313SOL     OW77777   9.339   7.386  11.925
25313SOL    HW177778   9.295   7.456  11.973
25313SOL    HW277779   9.346   7.314  11.988
25314SOL     OW77780  13.555   1.642   9.300
25314SOL    HW177781  13.592   1.647   9.388
25314SOL    HW277782  13.545   1.733   9.273
25315SOL     OW77783   3.351   9.705  13.263
25315SOL    HW177784   3.403   9.762  13.319
25315SOL    HW277785   3.352   9.747  13.177
25316SOL     OW77786  10.478   2.115   2.711
25316SOL    HW177787  10.552   2.175   2.700
25316SOL    HW277788  10.405   2.172   2.733
25317SOL     OW77789   0.238   5.326   3.368
25317SOL    HW177790   0.188   5.395   3.411
25317SOL    HW277791   0.229   5.345   3.274
25318SOL     OW77792   9.092   6.656   3.937
25318SOL    HW177793   9.174   6.615   3.963
25318SOL    HW277794   9.098   6.746   3.969
25319SOL     OW77795   0.063   5.790   4.057
25319SOL    HW177796   0.003   5.718   4.077
25319SOL    HW277797   0.011   5.869   4.069
25320SOL     OW77798   3.847  14.578   8.996
25320SOL    HW177799   3.837  14.494   8.953
25320SOL    HW277800   3.852  14.641   8.924
25321SOL     OW77801   8.409  12.785  13.964
25321SOL    HW177802   8.464  12.748  13.894
25321SOL    HW277803   8.370  12.708  14.006
25322SOL     OW77804   8.990  11.703   6.739
25322SOL    HW177805   9.067  11.650   6.759
25322SOL    HW277806   9.019  11.765   6.672
25323SOL     OW77807   2.080  10.006   6.500
25323SOL    HW177808   2.062   9.957   6.420
25323SOL    HW277809   2.083  10.098   6.473
25324SOL     OW77810   5.918   5.744   4.579
25324SOL    HW177811   5.978   5.702   4.639
25324SOL    HW277812   5.839   5.760   4.631
25325SOL     OW77813   8.014  10.162   2.482
25325SOL    HW177814   7.964  10.151   2.563
25325SOL    HW277815   8.081  10.227   2.504
25326SOL     OW77816  12.905   8.802   1.117
25326SOL    HW177817  12.894   8.866   1.047
25326SOL    HW277818  12.930   8.853   1.193
25327SOL     OW77819  14.539   6.823   7.291
25327SOL    HW177820  14.582   6.900   7.328
25327SOL    HW277821  14.547   6.834   7.197
25328SOL     OW77822   2.005   4.664   6.139
25328SOL    HW177823   2.065   4.738   6.146
25328SOL    HW277824   2.061   4.587   6.143
25329SOL     OW77825  11.575   7.281   8.212
25329SOL    HW177826  11.509   7.278   8.281
25329SOL    HW277827  11.587   7.374   8.194
25330SOL     OW77828   3.784   4.062  14.803
25330SOL    HW177829   3.846   4.110  14.858
25330SOL    HW277830   3.698   4.093  14.831
25331SOL     OW77831  13.530   2.529   1.091
25331SOL    HW177832  13.548   2.543   1.184
25331SOL    HW277833  13.436   2.543   1.082
25332SOL     OW77834  13.533   1.080   6.409
25332SOL    HW177835  13.522   1.173   6.430
25332SOL    HW277836  13.448   1.041   6.428
25333SOL     OW77837   1.246   8.288   2.293
25333SOL    HW177838   1.179   8.341   2.337
25333SOL    HW277839   1.206   8.263   2.210
25334SOL     OW77840   6.490   9.585  14.449
25334SOL    HW177841   6.398   9.564  14.438
25334SOL    HW277842   6.536   9.509  14.413
25335SOL     OW77843  12.879   8.952   7.106
25335SOL    HW177844  12.890   9.039   7.067
25335SOL    HW277845  12.811   8.911   7.054
25336SOL     OW77846  13.418   0.633   7.112
25336SOL    HW177847  13.394   0.689   7.185
25336SOL    HW277848  13.450   0.552   7.152
25337SOL     OW77849   6.605   0.335  12.558
25337SOL    HW177850   6.635   0.253  12.595
25337SOL    HW277851   6.610   0.323  12.463
25338SOL     OW77852  14.822   0.841   3.461
25338SOL    HW177853   0.023   0.897   3.471
25338SOL    HW277854  14.787   0.864   3.375
25339SOL     OW77855   3.386   8.282   1.317
25339SOL    HW177856   3.411   8.371   1.344
25339SOL    HW277857   3.298   8.271   1.351
25340SOL     OW77858  11.209  11.687  14.482
25340SOL    HW177859  11.275  11.625  14.509
25340SOL    HW277860  11.193  11.667  14.390
25341SOL     OW77861   3.220   6.158  13.657
25341SOL    HW177862   3.218   6.214  13.735
25341SOL    HW277863   3.173   6.079  13.683
25342SOL     OW77864   0.752   4.629  14.071
25342SOL    HW177865   0.664   4.602  14.098
25342SOL    HW277866   0.790   4.551  14.033
25343SOL     OW77867   7.121  13.867   4.624
25343SOL    HW177868   7.028  13.879   4.606
25343SOL    HW277869   7.165  13.920   4.557
25344SOL     OW77870  11.640   4.455   5.569
25344SOL    HW177871  11.554   4.494   5.551
25344SOL    HW277872  11.690   4.525   5.611
25345SOL     OW77873  11.144   2.995   7.956
25345SOL    HW177874  11.069   3.025   8.008
25345SOL    HW277875  11.202   2.954   8.020
25346SOL     OW77876   8.466   2.947  11.239
25346SOL    HW177877   8.558   2.940  11.212
25346SOL    HW277878   8.417   2.956  11.158
25347SOL     OW77879   0.210   9.719   3.630
25347SOL    HW177880   0.210   9.623   3.637
25347SOL    HW277881   0.121   9.744   3.655
25348SOL     OW77882  14.182   4.887   2.598
25348SOL    HW177883  14.147   4.952   2.658
25348SOL    HW277884  14.271   4.916   2.580
25349SOL     OW77885   5.391   6.488  12.096
25349SOL    HW177886   5.318   6.548  12.110
25349SOL    HW277887   5.426   6.471  12.184
25350SOL     OW77888  11.308   2.834   4.885
25350SOL    HW177889  11.349   2.852   4.801
25350SOL    HW277890  11.239   2.899   4.893
25351SOL     OW77891  13.255   9.307   7.128
25351SOL    HW177892  13.282   9.392   7.163
25351SOL    HW277893  13.160   9.304   7.142
25352SOL     OW77894  10.371   8.554   1.552
25352SOL    HW177895  10.276   8.549   1.550
25352SOL    HW277896  10.395   8.536   1.643
25353SOL     OW77897   9.096   1.570   9.503
25353SOL    HW177898   9.056   1.620   9.432
25353SOL    HW277899   9.042   1.492   9.511
25354SOL     OW77900   9.768  11.352   1.752
25354SOL    HW177901   9.760  11.444   1.779
25354SOL    HW277902   9.781  11.304   1.833
25355SOL     OW77903   0.898   5.217   2.638
25355SOL    HW177904   0.953   5.144   2.610
25355SOL    HW277905   0.815   5.177   2.662
25356SOL     OW77906  12.506   3.607  14.718
25356SOL    HW177907  12.425   3.561  14.698
25356SOL    HW277908  12.486   3.699  14.702
25357SOL     OW77909  10.604   5.060   7.695
25357SOL    HW177910  10.537   5.077   7.761
25357SOL    HW277911  10.556   5.027   7.619
25358SOL     OW77912  13.146  10.604   8.891
25358SOL    HW177913  13.136  10.534   8.956
25358SOL    HW277914  13.157  10.557   8.808
25359SOL     OW77915   6.520  11.861   5.456
25359SOL    HW177916   6.431  11.862   5.421
25359SOL    HW277917   6.559  11.943   5.426
25360SOL     OW77918   4.551   5.398  12.542
25360SOL    HW177919   4.513   5.311  12.556
25360SOL    HW277920   4.477   5.453  12.518
25361SOL     OW77921  11.206   0.488  11.612
25361SOL    HW177922  11.175   0.564  11.661
25361SOL    HW277923  11.191   0.511  11.520
25362SOL     OW77924   0.226   8.169   0.029
25362SOL    HW177925   0.184   8.254   0.039
25362SOL    HW277926   0.214   8.148  14.812
25363SOL     OW77927  14.326  10.989   3.631
25363SOL    HW177928  14.419  10.982   3.655
25363SOL    HW277929  14.286  11.033   3.706
25364SOL     OW77930   4.930  11.689  12.864
25364SOL    HW177931   4.955  11.761  12.921
25364SOL    HW277932   4.834  11.687  12.870
25365SOL     OW77933  12.108  10.220  10.469
25365SOL    HW177934  12.180  10.268  10.430
25365SOL    HW277935  12.142  10.131  10.480
25366SOL     OW77936  14.257   8.663   6.946
25366SOL    HW177937  14.279   8.608   6.870
25366SOL    HW277938  14.323   8.731   6.947
25367SOL     OW77939   1.587  13.122  10.490
25367SOL    HW177940   1.681  13.120  10.510
25367SOL    HW277941   1.551  13.047  10.537
25368SOL     OW77942   9.971   9.678   4.071
25368SOL    HW177943   9.978   9.772   4.088
25368SOL    HW277944  10.050   9.641   4.111
25369SOL     OW77945  11.136   9.278   1.091
25369SOL    HW177946  11.115   9.195   1.049
25369SOL    HW277947  11.069   9.339   1.058
25370SOL     OW77948   5.403   1.438   1.153
25370SOL    HW177949   5.462   1.415   1.225
25370SOL    HW277950   5.315   1.427   1.189
25371SOL     OW77951   2.642   6.649  10.203
25371SOL    HW177952   2.736   6.641  10.192
25371SOL    HW277953   2.627   6.638  10.297
25372SOL     OW77954   6.079  12.453   5.861
25372SOL    HW177955   6.070  12.522   5.795
25372SOL    HW277956   6.166  12.417   5.846
25373SOL     OW77957  14.750  13.949   0.739
25373SOL    HW177958  14.690  13.890   0.784
25373SOL    HW277959  14.827  13.895   0.721
25374SOL     OW77960  14.708   9.287   9.661
25374SOL    HW177961  14.647   9.240   9.717
25374SOL    HW277962  14.657   9.358   9.623
25375SOL     OW77963   6.754  11.090  12.522
25375SOL    HW177964   6.814  11.016  12.521
25375SOL    HW277965   6.712  11.089  12.436
25376SOL     OW77966   6.298  14.733  13.632
25376SOL    HW177967   6.204  14.713  13.631
25376SOL    HW277968   6.341  14.648  13.635
25377SOL     OW77969   8.696  10.184   4.180
25377SOL    HW177970   8.753  10.257   4.154
25377SOL    HW277971   8.738  10.148   4.258
25378SOL     OW77972   9.116   3.854  13.693
25378SOL    HW177973   9.030   3.844  13.652
25378SOL    HW277974   9.151   3.765  13.698
25379SOL     OW77975   5.658   3.336   5.825
25379SOL    HW177976   5.705   3.380   5.897
25379SOL    HW277977   5.567   3.364   5.836
25380SOL     OW77978   1.315   9.652   1.737
25380SOL    HW177979   1.290   9.604   1.658
25380SOL    HW277980   1.410   9.637   1.744
25381SOL     OW77981   7.286  11.129   6.361
25381SOL    HW177982   7.321  11.219   6.361
25381SOL    HW277983   7.198  11.138   6.396
25382SOL     OW77984  13.878  11.130   3.761
25382SOL    HW177985  13.850  11.214   3.724
25382SOL    HW277986  13.898  11.076   3.684
25383SOL     OW77987  14.740  13.867   6.794
25383SOL    HW177988  14.727  13.801   6.726
25383SOL    HW277989  14.677  13.843   6.863
25384SOL     OW77990   8.739   2.148   7.104
25384SOL    HW177991   8.811   2.093   7.074
25384SOL    HW277992   8.683   2.159   7.028
25385SOL     OW77993   8.702   9.267  13.994
25385SOL    HW177994   8.731   9.182  13.962
25385SOL    HW277995   8.687   9.254  14.088
25386SOL     OW77996   1.938  11.930  11.970
25386SOL    HW177997   1.934  11.895  11.880
25386SOL    HW277998   1.846  11.932  11.998
25387SOL     OW77999   3.728   2.068  11.381
25387SOL    HW178000   3.735   1.986  11.333
25387SOL    HW278001   3.805   2.118  11.355
25388SOL     OW78002   8.367   9.914   0.129
25388SOL    HW178003   8.312   9.991   0.145
25388SOL    HW278004   8.372   9.907   0.033
25389SOL     OW78005   6.035   6.727  10.921
25389SOL    HW178006   6.048   6.744  10.827
25389SOL    HW278007   6.011   6.635  10.926
25390SOL     OW78008   5.211   2.207   2.059
25390SOL    HW178009   5.223   2.300   2.074
25390SOL    HW278010   5.222   2.196   1.964
25391SOL     OW78011  13.380   2.861   5.596
25391SOL    HW178012  13.468   2.841   5.564
25391SOL    HW278013  13.350   2.779   5.637
25392SOL     OW78014  11.559  13.833   4.451
25392SOL    HW178015  11.628  13.772   4.423
25392SOL    HW278016  11.605  13.916   4.464
25393SOL     OW78017   7.527  13.669   8.101
25393SOL    HW178018   7.595  13.719   8.056
25393SOL    HW278019   7.491  13.611   8.035
25394SOL     OW78020  12.890  10.236   4.202
25394SOL    HW178021  12.863  10.218   4.112
25394SOL    HW278022  12.812  10.217   4.254
25395SOL     OW78023  10.140   2.332  13.755
25395SOL    HW178024  10.145   2.285  13.672
25395SOL    HW278025  10.214   2.392  13.754
25396SOL     OW78026  14.298   4.259   0.945
25396SOL    HW178027  14.302   4.240   1.039
25396SOL    HW278028  14.262   4.348   0.940
25397SOL     OW78029   5.858  12.222  13.874
25397SOL    HW178030   5.922  12.250  13.939
25397SOL    HW278031   5.799  12.164  13.921
25398SOL     OW78032  11.331   1.443  13.573
25398SOL    HW178033  11.398   1.380  13.598
25398SOL    HW278034  11.275   1.450  13.651
25399SOL     OW78035  14.861   4.114   2.133
25399SOL    HW178036  14.767   4.120   2.150
25399SOL    HW278037  14.867   4.079   2.044
25400SOL     OW78038  10.012  11.246   7.114
25400SOL    HW178039   9.923  11.215   7.129
25400SOL    HW278040  10.019  11.255   7.019
25401SOL     OW78041  14.171   1.122   3.316
25401SOL    HW178042  14.120   1.196   3.349
25401SOL    HW278043  14.243   1.162   3.266
25402SOL     OW78044  11.898  10.660   3.409
25402SOL    HW178045  11.939  10.746   3.407
25402SOL    HW278046  11.968  10.599   3.388
25403SOL     OW78047  14.818   4.593   0.319
25403SOL    HW178048   0.001   4.562   0.251
25403SOL    HW278049  14.731   4.568   0.288
25404SOL     OW78050  10.700   2.986   1.718
25404SOL    HW178051  10.644   2.908   1.721
25404SOL    HW278052  10.661   3.046   1.781
25405SOL     OW78053   2.789   9.200  13.771
25405SOL    HW178054   2.710   9.196  13.825
25405SOL    HW278055   2.768   9.145  13.695
25406SOL     OW78056   7.210  14.678  10.454
25406SOL    HW178057   7.202  14.773  10.459
25406SOL    HW278058   7.177  14.656  10.367
25407SOL     OW78059  13.564   2.003   5.849
25407SOL    HW178060  13.583   1.910   5.859
25407SOL    HW278061  13.502   2.007   5.776
25408SOL     OW78062   0.258   6.331   2.578
25408SOL    HW178063   0.212   6.254   2.612
25408SOL    HW278064   0.301   6.368   2.655
25409SOL     OW78065  14.380  13.031  13.081
25409SOL    HW178066  14.324  13.066  13.150
25409SOL    HW278067  14.451  13.095  13.073
25410SOL     OW78068  10.534   1.035   3.956
25410SOL    HW178069  10.506   0.994   4.037
25410SOL    HW278070  10.582   0.966   3.910
25411SOL     OW78071   8.352   2.085   3.129
25411SOL    HW178072   8.378   2.010   3.183
25411SOL    HW278073   8.321   2.046   3.047
25412SOL     OW78074   4.194   5.981   6.851
25412SOL    HW178075   4.274   6.013   6.811
25412SOL    HW278076   4.125   6.038   6.816
25413SOL     OW78077  11.267  14.717   0.651
25413SOL    HW178078  11.256  14.751   0.740
25413SOL    HW278079  11.362  14.702   0.643
25414SOL     OW78080   5.552   1.056   8.515
25414SOL    HW178081   5.564   0.988   8.581
25414SOL    HW278082   5.463   1.042   8.483
25415SOL     OW78083   6.785   5.763   9.468
25415SOL    HW178084   6.739   5.844   9.489
25415SOL    HW278085   6.844   5.748   9.542
25416SOL     OW78086   9.474   2.687   4.251
25416SOL    HW178087   9.460   2.771   4.208
25416SOL    HW278088   9.485   2.708   4.343
25417SOL     OW78089  14.229   8.602  10.328
25417SOL    HW178090  14.189   8.688  10.335
25417SOL    HW278091  14.211   8.575  10.238
25418SOL     OW78092   2.282  12.509   5.074
25418SOL    HW178093   2.265  12.423   5.112
25418SOL    HW278094   2.354  12.545   5.126
25419SOL     OW78095   9.006   8.797   1.890
25419SOL    HW178096   8.980   8.837   1.807
25419SOL    HW278097   8.933   8.739   1.913
25420SOL     OW78098   8.966   2.765   0.686
25420SOL    HW178099   9.036   2.719   0.639
25420SOL    HW278100   9.003   2.852   0.705
25421SOL     OW78101   9.900   4.473   2.464
25421SOL    HW178102   9.983   4.519   2.452
25421SOL    HW278103   9.901   4.444   2.555
25422SOL     OW78104   5.412   4.968  11.568
25422SOL    HW178105   5.491   4.996  11.615
25422SOL    HW278106   5.402   4.876  11.593
25423SOL     OW78107  11.859   6.689  14.287
25423SOL    HW178108  11.824   6.611  14.243
25423SOL    HW278109  11.939   6.657  14.331
25424SOL     OW78110   4.980   5.314  13.612
25424SOL    HW178111   4.971   5.402  13.577
25424SOL    HW278112   5.071   5.290  13.594
25425SOL     OW78113   2.793  10.898  10.236
25425SOL    HW178114   2.710  10.893  10.189
25425SOL    HW278115   2.859  10.893  10.167
25426SOL     OW78116   6.538   8.164   8.552
25426SOL    HW178117   6.587   8.103   8.608
25426SOL    HW278118   6.484   8.107   8.497
25427SOL     OW78119   0.624   9.788   7.198
25427SOL    HW178120   0.647   9.842   7.273
25427SOL    HW278121   0.672   9.706   7.211
25428SOL     OW78122   3.800   2.733  14.567
25428SOL    HW178123   3.887   2.726  14.528
25428SOL    HW278124   3.742   2.690  14.504
25429SOL     OW78125   3.801   9.572   5.703
25429SOL    HW178126   3.746   9.511   5.655
25429SOL    HW278127   3.745   9.605   5.773
25430SOL     OW78128   7.010  13.672   2.297
25430SOL    HW178129   6.926  13.705   2.266
25430SOL    HW278130   7.008  13.579   2.278
25431SOL     OW78131   3.527  12.906   0.333
25431SOL    HW178132   3.622  12.898   0.343
25431SOL    HW278133   3.495  12.816   0.339
25432SOL     OW78134  14.070  14.501   2.881
25432SOL    HW178135  13.992  14.456   2.915
25432SOL    HW278136  14.129  14.506   2.956
25433SOL     OW78137   7.940   3.354   4.954
25433SOL    HW178138   7.940   3.414   5.029
25433SOL    HW278139   7.860   3.373   4.907
25434SOL     OW78140  14.836   3.416   5.534
25434SOL    HW178141  14.761   3.366   5.566
25434SOL    HW278142   0.035   3.376   5.578
25435SOL     OW78143   2.723  14.358   7.014
25435SOL    HW178144   2.655  14.375   7.079
25435SOL    HW278145   2.709  14.426   6.947
25436SOL     OW78146  12.402  14.732   7.161
25436SOL    HW178147  12.379  14.810   7.211
25436SOL    HW278148  12.442  14.673   7.224
25437SOL     OW78149   4.318   5.210   1.541
25437SOL    HW178150   4.325   5.176   1.630
25437SOL    HW278151   4.398   5.262   1.529
25438SOL     OW78152   0.496   8.085   1.723
25438SOL    HW178153   0.581   8.069   1.683
25438SOL    HW278154   0.433   8.058   1.657
25439SOL     OW78155   7.220   0.419  13.389
25439SOL    HW178156   7.237   0.339  13.340
25439SOL    HW278157   7.262   0.488  13.338
25440SOL     OW78158  14.116  10.669   4.816
25440SOL    HW178159  14.110  10.641   4.725
25440SOL    HW278160  14.187  10.734   4.815
25441SOL     OW78161   3.009  13.312   7.054
25441SOL    HW178162   3.089  13.366   7.056
25441SOL    HW278163   2.997  13.284   7.145
25442SOL     OW78164   8.076   1.396   0.367
25442SOL    HW178165   8.105   1.336   0.299
25442SOL    HW278166   8.150   1.403   0.427
25443SOL     OW78167  12.907   3.119   4.816
25443SOL    HW178168  12.937   3.083   4.733
25443SOL    HW278169  12.855   3.049   4.855
25444SOL     OW78170  12.957   1.532   1.009
25444SOL    HW178171  13.006   1.460   0.969
25444SOL    HW278172  12.917   1.578   0.935
25445SOL     OW78173  14.653  13.901   1.646
25445SOL    HW178174  14.724  13.839   1.660
25445SOL    HW278175  14.573  13.848   1.652
25446SOL     OW78176   5.788  13.240   7.774
25446SOL    HW178177   5.869  13.206   7.811
25446SOL    HW278178   5.737  13.162   7.753
25447SOL     OW78179   4.501   8.719   1.731
25447SOL    HW178180   4.567   8.681   1.789
25447SOL    HW278181   4.503   8.664   1.653
25448SOL     OW78182   7.291   5.332   6.848
25448SOL    HW178183   7.381   5.346   6.818
25448SOL    HW278184   7.281   5.236   6.847
25449SOL     OW78185  11.940   0.554   8.360
25449SOL    HW178186  11.911   0.563   8.451
25449SOL    HW278187  11.965   0.462   8.352
25450SOL     OW78188  13.511   5.736  13.420
25450SOL    HW178189  13.427   5.711  13.458
25450SOL    HW278190  13.492   5.814  13.368
25451SOL     OW78191  14.362   8.153  10.214
25451SOL    HW178192  14.384   8.114  10.298
25451SOL    HW278193  14.312   8.085  10.169
25452SOL     OW78194   6.299   3.904  10.043
25452SOL    HW178195   6.357   3.858   9.982
25452SOL    HW278196   6.211   3.870  10.024
25453SOL     OW78197   0.262  13.633   5.488
25453SOL    HW178198   0.177  13.635   5.533
25453SOL    HW278199   0.326  13.646   5.558
25454SOL     OW78200   1.741   0.010   0.633
25454SOL    HW178201   1.680   0.080   0.656
25454SOL    HW278202   1.695  14.806   0.654
25455SOL     OW78203   6.710   2.616   3.452
25455SOL    HW178204   6.804   2.596   3.445
25455SOL    HW278205   6.706   2.710   3.465
25456SOL     OW78206   7.130   3.390   6.577
25456SOL    HW178207   7.196   3.434   6.629
25456SOL    HW278208   7.065   3.458   6.557
25457SOL     OW78209   8.617   3.265   3.994
25457SOL    HW178210   8.569   3.297   4.071
25457SOL    HW278211   8.565   3.192   3.962
25458SOL     OW78212   2.488   5.379  11.790
25458SOL    HW178213   2.569   5.422  11.764
25458SOL    HW278214   2.429   5.393  11.716
25459SOL     OW78215  10.025   2.101  12.393
25459SOL    HW178216   9.963   2.100  12.466
25459SOL    HW278217  10.000   2.177  12.341
25460SOL     OW78218  11.022  14.276   9.744
25460SOL    HW178219  11.006  14.299   9.652
25460SOL    HW278220  11.105  14.227   9.742
25461SOL     OW78221   1.536   2.634   8.430
25461SOL    HW178222   1.560   2.595   8.345
25461SOL    HW278223   1.497   2.562   8.479
25462SOL     OW78224   0.083  12.138   8.188
25462SOL    HW178225   0.047  12.190   8.116
25462SOL    HW278226   0.057  12.185   8.267
25463SOL     OW78227   2.073   1.995   3.367
25463SOL    HW178228   1.983   2.023   3.379
25463SOL    HW278229   2.083   1.983   3.273
25464SOL     OW78230   8.161   6.947  14.681
25464SOL    HW178231   8.098   6.985  14.619
25464SOL    HW278232   8.225   6.903  14.626
25465SOL     OW78233   1.899  11.404   2.558
25465SOL    HW178234   1.823  11.462   2.549
25465SOL    HW278235   1.882  11.355   2.638
25466SOL     OW78236  14.372   3.583   3.441
25466SOL    HW178237  14.310   3.637   3.392
25466SOL    HW278238  14.456   3.626   3.429
25467SOL     OW78239  10.025  11.356   5.628
25467SOL    HW178240   9.965  11.282   5.643
25467SOL    HW278241  10.015  11.410   5.706
25468SOL     OW78242   5.384   4.529   6.152
25468SOL    HW178243   5.388   4.616   6.112
25468SOL    HW278244   5.291   4.506   6.150
25469SOL     OW78245   2.603   1.331   2.889
25469SOL    HW178246   2.581   1.238   2.891
25469SOL    HW278247   2.698   1.334   2.893
25470SOL     OW78248   2.871   6.318   1.066
25470SOL    HW178249   2.966   6.325   1.058
25470SOL    HW278250   2.851   6.361   1.150
25471SOL     OW78251   5.861   1.468   5.170
25471SOL    HW178252   5.838   1.388   5.122
25471SOL    HW278253   5.939   1.500   5.125
25472SOL     OW78254   7.835   5.446  14.030
25472SOL    HW178255   7.912   5.502  14.021
25472SOL    HW278256   7.767   5.491  13.980
25473SOL     OW78257  13.918   7.789  12.660
25473SOL    HW178258  13.837   7.781  12.610
25473SOL    HW278259  13.978   7.728  12.617
25474SOL     OW78260   8.705   6.788   6.036
25474SOL    HW178261   8.765   6.765   6.107
25474SOL    HW278262   8.626   6.819   6.081
25475SOL     OW78263  11.062  14.085   5.077
25475SOL    HW178264  11.058  14.136   4.995
25475SOL    HW278265  11.090  13.998   5.049
25476SOL     OW78266  13.899  11.852  12.986
25476SOL    HW178267  13.953  11.905  12.927
25476SOL    HW278268  13.812  11.852  12.946
25477SOL     OW78269   3.534   6.966   2.569
25477SOL    HW178270   3.592   7.038   2.544
25477SOL    HW278271   3.475   7.003   2.634
25478SOL     OW78272   9.151  14.213   0.796
25478SOL    HW178273   9.203  14.207   0.716
25478SOL    HW278274   9.157  14.305   0.822
25479SOL     OW78275   6.607  13.320   6.166
25479SOL    HW178276   6.646  13.315   6.253
25479SOL    HW278277   6.534  13.381   6.176
25480SOL     OW78278   8.657   5.607  14.588
25480SOL    HW178279   8.645   5.701  14.599
25480SOL    HW278280   8.571   5.569  14.603
25481SOL     OW78281  12.335  13.642   0.568
25481SOL    HW178282  12.381  13.704   0.511
25481SOL    HW278283  12.277  13.697   0.621
25482SOL     OW78284  11.984   0.519   9.143
25482SOL    HW178285  12.028   0.594   9.183
25482SOL    HW278286  11.895   0.550   9.126
25483SOL     OW78287  11.889  13.306   2.150
25483SOL    HW178288  11.926  13.381   2.103
25483SOL    HW278289  11.943  13.232   2.123
25484SOL     OW78290   1.510   4.892  13.942
25484SOL    HW178291   1.448   4.836  13.988
25484SOL    HW278292   1.512   4.973  13.992
25485SOL     OW78293  10.597  13.993   5.031
25485SOL    HW178294  10.645  14.024   5.108
25485SOL    HW278295  10.585  14.072   4.978
25486SOL     OW78296   5.358   8.226   9.522
25486SOL    HW178297   5.453   8.221   9.516
25486SOL    HW278298   5.327   8.169   9.452
25487SOL     OW78299  12.787   0.379   2.047
25487SOL    HW178300  12.814   0.355   1.959
25487SOL    HW278301  12.722   0.313   2.072
25488SOL     OW78302  12.083   3.860   4.977
25488SOL    HW178303  12.011   3.905   4.932
25488SOL    HW278304  12.040   3.795   5.032
25489SOL     OW78305   6.861   9.335   6.112
25489SOL    HW178306   6.802   9.377   6.049
25489SOL    HW278307   6.904   9.408   6.157
25490SOL     OW78308   3.267   0.049   5.226
25490SOL    HW178309   3.287   0.143   5.230
25490SOL    HW278310   3.232   0.035   5.138
25491SOL     OW78311   8.814   0.933   2.557
25491SOL    HW178312   8.876   0.924   2.630
25491SOL    HW278313   8.737   0.884   2.585
25492SOL     OW78314   2.879   8.091   7.597
25492SOL    HW178315   2.951   8.031   7.619
25492SOL    HW278316   2.860   8.074   7.505
25493SOL     OW78317  13.848  14.005   9.488
25493SOL    HW178318  13.926  13.965   9.450
25493SOL    HW278319  13.789  14.017   9.414
25494SOL     OW78320  14.822   7.083  11.797
25494SOL    HW178321  14.830   7.142  11.873
25494SOL    HW278322  14.849   7.137  11.723
25495SOL     OW78323   1.838   1.854   5.234
25495SOL    HW178324   1.817   1.905   5.156
25495SOL    HW278325   1.804   1.766   5.216
25496SOL     OW78326  11.408   2.398   0.250
25496SOL    HW178327  11.431   2.308   0.273
25496SOL    HW278328  11.422   2.448   0.330
25497SOL     OW78329   6.155   0.356   9.547
25497SOL    HW178330   6.194   0.416   9.611
25497SOL    HW278331   6.230   0.310   9.510
25498SOL     OW78332  13.849   5.794  11.609
25498SOL    HW178333  13.802   5.876  11.590
25498SOL    HW278334  13.850   5.789  11.705
25499SOL     OW78335   9.607  13.961   7.491
25499SOL    HW178336   9.535  13.899   7.503
25499SOL    HW278337   9.669  13.915   7.434
25500SOL     OW78338   2.752   9.005   0.089
25500SOL    HW178339   2.692   9.002   0.164
25500SOL    HW278340   2.839   9.007   0.128
25501SOL     OW78341   4.213  14.646   7.944
25501SOL    HW178342   4.195  14.665   7.852
25501SOL    HW278343   4.175  14.719   7.992
25502SOL     OW78344  13.416   8.781  12.019
25502SOL    HW178345  13.377   8.700  12.051
25502SOL    HW278346  13.508   8.759  12.004
25503SOL     OW78347   6.252   3.802   9.715
25503SOL    HW178348   6.161   3.777   9.731
25503SOL    HW278349   6.259   3.811   9.620
25504SOL     OW78350   0.851  10.586   8.789
25504SOL    HW178351   0.806  10.613   8.709
25504SOL    HW278352   0.791  10.610   8.859
25505SOL     OW78353   3.354   9.756  10.857
25505SOL    HW178354   3.372   9.676  10.809
25505SOL    HW278355   3.264   9.746  10.888
25506SOL     OW78356   6.288   8.331   5.345
25506SOL    HW178357   6.198   8.361   5.353
25506SOL    HW278358   6.341   8.411   5.353
25507SOL     OW78359  12.439  11.709   3.101
25507SOL    HW178360  12.434  11.777   3.168
25507SOL    HW278361  12.422  11.755   3.019
25508SOL     OW78362   0.825   1.891   1.158
25508SOL    HW178363   0.896   1.921   1.102
25508SOL    HW278364   0.842   1.798   1.172
25509SOL     OW78365   1.600   0.819   2.042
25509SOL    HW178366   1.615   0.834   1.948
25509SOL    HW278367   1.505   0.810   2.050
25510SOL     OW78368   9.835   6.980   3.092
25510SOL    HW178369   9.782   6.979   3.172
25510SOL    HW278370   9.850   7.073   3.075
25511SOL     OW78371  13.245  13.692   2.492
25511SOL    HW178372  13.316  13.644   2.536
25511SOL    HW278373  13.282  13.716   2.407
25512SOL     OW78374  11.979  10.628   2.240
25512SOL    HW178375  11.942  10.694   2.297
25512SOL    HW278376  12.070  10.654   2.229
25513SOL     OW78377   0.835   6.518   8.116
25513SOL    HW178378   0.823   6.588   8.051
25513SOL    HW278379   0.841   6.564   8.199
25514SOL     OW78380   6.084   2.503   6.484
25514SOL    HW178381   6.115   2.414   6.499
25514SOL    HW278382   6.070   2.539   6.572
25515SOL     OW78383   4.239   9.795  11.509
25515SOL    HW178384   4.320   9.837  11.480
25515SOL    HW278385   4.218   9.839  11.591
25516SOL     OW78386   7.998   0.339  14.421
25516SOL    HW178387   8.064   0.406  14.407
25516SOL    HW278388   8.036   0.281  14.488
25517SOL     OW78389   6.853   5.564   4.331
25517SOL    HW178390   6.875   5.639   4.275
25517SOL    HW278391   6.914   5.572   4.405
25518SOL     OW78392   3.008   7.704   5.411
25518SOL    HW178393   2.949   7.672   5.479
25518SOL    HW278394   3.000   7.799   5.415
25519SOL     OW78395  13.813   7.878  12.276
25519SOL    HW178396  13.820   7.940  12.204
25519SOL    HW278397  13.903   7.869  12.309
25520SOL     OW78398   3.310  14.652   1.971
25520SOL    HW178399   3.345  14.593   2.037
25520SOL    HW278400   3.268  14.594   1.907
25521SOL     OW78401   5.081   3.382  12.763
25521SOL    HW178402   5.029   3.394  12.842
25521SOL    HW278403   5.168   3.412  12.786
25522SOL     OW78404  14.617   5.334  11.827
25522SOL    HW178405  14.669   5.298  11.755
25522SOL    HW278406  14.571   5.408  11.789
25523SOL     OW78407   1.266  12.022   8.372
25523SOL    HW178408   1.258  12.104   8.324
25523SOL    HW278409   1.352  12.028   8.415
25524SOL     OW78410  11.488  10.436   1.168
25524SOL    HW178411  11.421  10.369   1.153
25524SOL    HW278412  11.571  10.390   1.160
25525SOL     OW78413  12.386  10.191   9.045
25525SOL    HW178414  12.434  10.159   8.969
25525SOL    HW278415  12.331  10.117   9.072
25526SOL     OW78416  11.316   7.220   2.126
25526SOL    HW178417  11.323   7.150   2.191
25526SOL    HW278418  11.325   7.176   2.042
25527SOL     OW78419   4.670   4.331  12.367
25527SOL    HW178420   4.751   4.357  12.324
25527SOL    HW278421   4.695   4.259  12.424
25528SOL     OW78422  13.077   5.241   9.813
25528SOL    HW178423  13.018   5.230   9.887
25528SOL    HW278424  13.020   5.238   9.736
25529SOL     OW78425   2.140   3.367   9.868
25529SOL    HW178426   2.223   3.321   9.881
25529SOL    HW278427   2.165   3.459   9.862
25530SOL     OW78428   9.857   3.921  14.089
25530SOL    HW178429   9.949   3.896  14.086
25530SOL    HW278430   9.849   3.992  14.026
25531SOL     OW78431  10.586  12.845   6.406
25531SOL    HW178432  10.636  12.910   6.357
25531SOL    HW278433  10.640  12.825   6.483
25532SOL     OW78434  13.564   2.255  11.050
25532SOL    HW178435  13.639   2.223  10.999
25532SOL    HW278436  13.538   2.336  11.006
25533SOL     OW78437  13.927   6.136  13.128
25533SOL    HW178438  13.943   6.199  13.199
25533SOL    HW278439  13.850   6.172  13.083
25534SOL     OW78440   4.043  14.263   6.233
25534SOL    HW178441   4.133  14.287   6.255
25534SOL    HW278442   4.024  14.312   6.153
25535SOL     OW78443   5.654  10.518   4.769
25535SOL    HW178444   5.609  10.602   4.781
25535SOL    HW278445   5.688  10.522   4.680
25536SOL     OW78446   1.039   0.737   0.951
25536SOL    HW178447   0.975   0.807   0.963
25536SOL    HW278448   1.077   0.754   0.865
25537SOL     OW78449   1.445   9.450  14.536
25537SOL    HW178450   1.519   9.397  14.566
25537SOL    HW278451   1.415   9.495  14.615
25538SOL     OW78452   1.499  10.020   0.911
25538SOL    HW178453   1.423  10.025   0.853
25538SOL    HW278454   1.539  10.106   0.906
25539SOL     OW78455   3.458   9.888   8.229
25539SOL    HW178456   3.441   9.820   8.165
25539SOL    HW278457   3.469   9.968   8.177
25540SOL     OW78458   0.220  10.798   6.560
25540SOL    HW178459   0.128  10.809   6.534
25540SOL    HW278460   0.234  10.704   6.559
25541SOL     OW78461   2.749  11.913   8.551
25541SOL    HW178462   2.794  11.948   8.629
25541SOL    HW278463   2.805  11.938   8.478
25542SOL     OW78464  13.537   4.891   5.109
25542SOL    HW178465  13.568   4.873   5.198
25542SOL    HW278466  13.534   4.987   5.104
25543SOL     OW78467   2.117   4.680  13.480
25543SOL    HW178468   2.135   4.666  13.387
25543SOL    HW278469   2.203   4.675  13.522
25544SOL     OW78470   5.224   9.617   7.989
25544SOL    HW178471   5.314   9.625   8.021
25544SOL    HW278472   5.170   9.648   8.061
25545SOL     OW78473   8.126   3.125   1.718
25545SOL    HW178474   8.037   3.161   1.725
25545SOL    HW278475   8.181   3.187   1.767
25546SOL     OW78476  14.137  10.080  12.844
25546SOL    HW178477  14.155  10.165  12.804
25546SOL    HW278478  14.223  10.048  12.872
25547SOL     OW78479  10.925   2.412  12.945
25547SOL    HW178480  10.988   2.476  12.913
25547SOL    HW278481  10.892   2.369  12.866
25548SOL     OW78482  12.526  10.399   5.054
25548SOL    HW178483  12.535  10.305   5.042
25548SOL    HW278484  12.456  10.425   4.994
25549SOL     OW78485   3.587   1.239   1.995
25549SOL    HW178486   3.598   1.171   2.062
25549SOL    HW278487   3.674   1.247   1.956
25550SOL     OW78488  13.218  12.888   5.423
25550SOL    HW178489  13.140  12.862   5.375
25550SOL    HW278490  13.211  12.983   5.433
25551SOL     OW78491   0.011   9.538   1.989
25551SOL    HW178492  14.838   9.472   1.941
25551SOL    HW278493   0.100   9.531   1.956
25552SOL     OW78494  11.352  11.350  10.454
25552SOL    HW178495  11.273  11.312  10.415
25552SOL    HW278496  11.326  11.370  10.544
25553SOL     OW78497  12.426   3.812  11.781
25553SOL    HW178498  12.364   3.877  11.749
25553SOL    HW278499  12.381   3.729  11.772
25554SOL     OW78500   8.760  14.601  13.825
25554SOL    HW178501   8.726  14.680  13.868
25554SOL    HW278502   8.772  14.538  13.896
25555SOL     OW78503   3.248  10.826  11.418
25555SOL    HW178504   3.263  10.905  11.367
25555SOL    HW278505   3.192  10.772  11.362
25556SOL     OW78506   9.636  10.388   0.898
25556SOL    HW178507   9.719  10.361   0.937
25556SOL    HW278508   9.585  10.308   0.889
25557SOL     OW78509   8.323  11.893  10.864
25557SOL    HW178510   8.358  11.805  10.853
25557SOL    HW278511   8.377  11.948  10.808
25558SOL     OW78512  11.800   9.693  13.864
25558SOL    HW178513  11.782   9.740  13.946
25558SOL    HW278514  11.895   9.699  13.855
25559SOL     OW78515  13.380  14.172   2.136
25559SOL    HW178516  13.442  14.105   2.166
25559SOL    HW278517  13.411  14.253   2.176
25560SOL     OW78518   4.217  13.500   5.905
25560SOL    HW178519   4.131  13.488   5.945
25560SOL    HW278520   4.233  13.594   5.911
25561SOL     OW78521  12.917   7.539   5.643
25561SOL    HW178522  12.835   7.589   5.642
25561SOL    HW278523  12.984   7.603   5.619
25562SOL     OW78524  11.854  12.617  13.400
25562SOL    HW178525  11.947  12.624  13.420
25562SOL    HW278526  11.839  12.683  13.332
25563SOL     OW78527   4.541   3.252  10.886
25563SOL    HW178528   4.596   3.296  10.822
25563SOL    HW278529   4.497   3.182  10.837
25564SOL     OW78530   0.293   5.459   4.687
25564SOL    HW178531   0.338   5.481   4.768
25564SOL    HW278532   0.274   5.543   4.646
25565SOL     OW78533   9.312   8.061   3.685
25565SOL    HW178534   9.327   8.106   3.769
25565SOL    HW278535   9.353   8.118   3.620
25566SOL     OW78536   9.296   5.829   7.800
25566SOL    HW178537   9.333   5.758   7.747
25566SOL    HW278538   9.214   5.851   7.756
25567SOL     OW78539   2.511  14.240   2.422
25567SOL    HW178540   2.453  14.209   2.352
25567SOL    HW278541   2.477  14.327   2.444
25568SOL     OW78542  14.683  14.147   7.808
25568SOL    HW178543  14.706  14.231   7.847
25568SOL    HW278544  14.603  14.121   7.854
25569SOL     OW78545   5.859   2.210  12.693
25569SOL    HW178546   5.867   2.235  12.601
25569SOL    HW278547   5.769   2.233  12.716
25570SOL     OW78548  12.602   4.383   8.970
25570SOL    HW178549  12.584   4.356   8.880
25570SOL    HW278550  12.584   4.306   9.023
25571SOL     OW78551  12.646  10.344   4.509
25571SOL    HW178552  12.670  10.276   4.446
25571SOL    HW278553  12.715  10.410   4.499
25572SOL     OW78554   5.072   5.258   6.731
25572SOL    HW178555   5.095   5.312   6.806
25572SOL    HW278556   5.040   5.176   6.769
25573SOL     OW78557   3.342  13.881   5.191
25573SOL    HW178558   3.392  13.860   5.270
25573SOL    HW278559   3.315  13.972   5.203
25574SOL     OW78560  10.637   1.197   0.741
25574SOL    HW178561  10.630   1.102   0.731
25574SOL    HW278562  10.557   1.223   0.788
25575SOL     OW78563   6.478   5.383   6.654
25575SOL    HW178564   6.519   5.350   6.734
25575SOL    HW278565   6.388   5.403   6.679
25576SOL     OW78566  10.395   1.518   5.720
25576SOL    HW178567  10.425   1.554   5.636
25576SOL    HW278568  10.459   1.449   5.740
25577SOL     OW78569   8.959  10.389  12.820
25577SOL    HW178570   9.012  10.461  12.787
25577SOL    HW278571   8.915  10.354  12.742
25578SOL     OW78572   1.689   6.325   0.932
25578SOL    HW178573   1.782   6.328   0.910
25578SOL    HW278574   1.646   6.294   0.853
25579SOL     OW78575  10.418   4.393   0.828
25579SOL    HW178576  10.506   4.428   0.814
25579SOL    HW278577  10.379   4.450   0.894
25580SOL     OW78578   7.518   5.444  10.818
25580SOL    HW178579   7.580   5.509  10.852
25580SOL    HW278580   7.445   5.445  10.881
25581SOL     OW78581  13.636   7.706   8.483
25581SOL    HW178582  13.554   7.658   8.489
25581SOL    HW278583  13.686   7.660   8.416
25582SOL     OW78584  14.575   8.853  13.140
25582SOL    HW178585  14.561   8.905  13.220
25582SOL    HW278586  14.642   8.901  13.092
25583SOL     OW78587   6.271   3.064  13.202
25583SOL    HW178588   6.251   3.143  13.152
25583SOL    HW278589   6.283   2.996  13.136
25584SOL     OW78590  13.770   1.623   5.720
25584SOL    HW178591  13.715   1.562   5.670
25584SOL    HW278592  13.835   1.653   5.656
25585SOL     OW78593   1.542   9.238  11.164
25585SOL    HW178594   1.543   9.315  11.222
25585SOL    HW278595   1.533   9.164  11.223
25586SOL     OW78596  10.815   2.502   8.618
25586SOL    HW178597  10.802   2.548   8.702
25586SOL    HW278598  10.843   2.414   8.643
25587SOL     OW78599   8.235   2.292   4.241
25587SOL    HW178600   8.318   2.310   4.197
25587SOL    HW278601   8.176   2.263   4.171
25588SOL     OW78602  12.022  11.457  12.881
25588SOL    HW178603  11.952  11.514  12.848
25588SOL    HW278604  11.989  11.369  12.866
25589SOL     OW78605   2.692   4.978  12.278
25589SOL    HW178606   2.688   4.970  12.183
25589SOL    HW278607   2.635   5.052  12.298
25590SOL     OW78608  10.065   6.858  10.522
25590SOL    HW178609  10.110   6.790  10.471
25590SOL    HW278610  10.092   6.940  10.481
25591SOL     OW78611  14.391   0.228   7.166
25591SOL    HW178612  14.480   0.220   7.133
25591SOL    HW278613  14.384   0.319   7.195
25592SOL     OW78614  13.706   7.950   3.964
25592SOL    HW178615  13.686   7.997   4.045
25592SOL    HW278616  13.643   7.878   3.962
25593SOL     OW78617  13.334  10.561   2.840
25593SOL    HW178618  13.280  10.565   2.918
25593SOL    HW278619  13.404  10.624   2.856
25594SOL     OW78620   9.727   2.270   2.531
25594SOL    HW178621   9.804   2.229   2.570
25594SOL    HW278622   9.747   2.363   2.527
25595SOL     OW78623  14.834  12.342   0.552
25595SOL    HW178624  14.764  12.408   0.548
25595SOL    HW278625   0.005  12.354   0.470
25596SOL     OW78626   2.384   1.620   0.991
25596SOL    HW178627   2.427   1.616   1.076
25596SOL    HW278628   2.320   1.549   0.993
25597SOL     OW78629  14.664  12.140  11.234
25597SOL    HW178630  14.687  12.104  11.320
25597SOL    HW278631  14.640  12.231  11.252
25598SOL     OW78632   3.709   4.831   0.158
25598SOL    HW178633   3.778   4.778   0.120
25598SOL    HW278634   3.712   4.913   0.109
25599SOL     OW78635   8.519   2.980   5.154
25599SOL    HW178636   8.598   2.942   5.114
25599SOL    HW278637   8.449   2.962   5.091
25600SOL     OW78638   9.047   2.128   2.952
25600SOL    HW178639   9.087   2.089   3.029
25600SOL    HW278640   9.014   2.054   2.901
25601SOL     OW78641   8.148   1.007   6.278
25601SOL    HW178642   8.093   0.934   6.307
25601SOL    HW278643   8.227   0.966   6.245
25602SOL     OW78644   9.000  13.088   5.851
25602SOL    HW178645   9.060  13.018   5.826
25602SOL    HW278646   9.056  13.165   5.863
25603SOL     OW78647  10.750   5.122  14.344
25603SOL    HW178648  10.717   5.075  14.420
25603SOL    HW278649  10.845   5.117  14.352
25604SOL     OW78650   5.753   6.947   8.206
25604SOL    HW178651   5.719   6.859   8.217
25604SOL    HW278652   5.686   7.004   8.244
25605SOL     OW78653   8.484   9.013   5.513
25605SOL    HW178654   8.402   8.977   5.544
25605SOL    HW278655   8.469   9.032   5.420
25606SOL     OW78656   3.876  13.666   1.222
25606SOL    HW178657   3.943  13.735   1.216
25606SOL    HW278658   3.878  13.623   1.137
25607SOL     OW78659   2.353   7.963   8.255
25607SOL    HW178660   2.357   8.035   8.318
25607SOL    HW278661   2.437   7.968   8.208
25608SOL     OW78662   0.951   5.939  10.196
25608SOL    HW178663   0.863   5.962  10.165
25608SOL    HW278664   1.008   5.962  10.123
25609SOL     OW78665  14.231  10.908   4.607
25609SOL    HW178666  14.274  10.851   4.543
25609SOL    HW278667  14.300  10.968   4.636
25610SOL     OW78668  13.141   0.449   0.158
25610SOL    HW178669  13.142   0.353   0.163
25610SOL    HW278670  13.194   0.477   0.232
25611SOL     OW78671   8.813   1.804  10.496
25611SOL    HW178672   8.739   1.864  10.488
25611SOL    HW278673   8.826   1.793  10.590
25612SOL     OW78674   9.937  11.344   9.921
25612SOL    HW178675   9.929  11.357  10.015
25612SOL    HW278676   9.854  11.304   9.895
25613SOL     OW78677   3.551   8.956  10.961
25613SOL    HW178678   3.459   8.982  10.968
25613SOL    HW278679   3.596   9.010  11.027
25614SOL     OW78680  12.568   0.195   0.316
25614SOL    HW178681  12.474   0.181   0.306
25614SOL    HW278682  12.576   0.274   0.369
25615SOL     OW78683  14.225   6.242  10.589
25615SOL    HW178684  14.191   6.154  10.572
25615SOL    HW278685  14.308   6.245  10.541
25616SOL     OW78686   1.069   8.980  11.623
25616SOL    HW178687   1.012   8.906  11.645
25616SOL    HW278688   1.149   8.940  11.589
25617SOL     OW78689   3.512   0.287   8.111
25617SOL    HW178690   3.496   0.368   8.063
25617SOL    HW278691   3.483   0.218   8.051
25618SOL     OW78692   2.835   0.278   3.068
25618SOL    HW178693   2.781   0.353   3.092
25618SOL    HW278694   2.871   0.247   3.151
25619SOL     OW78695  13.674  14.763   9.526
25619SOL    HW178696  13.636  14.778   9.439
25619SOL    HW278697  13.654  14.843   9.575
25620SOL     OW78698   4.115   3.907   0.241
25620SOL    HW178699   4.039   3.872   0.195
25620SOL    HW278700   4.083   3.985   0.285
25621SOL     OW78701   3.481   9.586  11.487
25621SOL    HW178702   3.554   9.528  11.465
25621SOL    HW278703   3.411   9.560  11.427
25622SOL     OW78704  12.251   9.552   2.754
25622SOL    HW178705  12.159   9.540   2.730
25622SOL    HW278706  12.259   9.510   2.840
25623SOL     OW78707  11.642   1.291   9.487
25623SOL    HW178708  11.649   1.209   9.536
25623SOL    HW278709  11.626   1.264   9.397
25624SOL     OW78710   0.471  13.440  13.451
25624SOL    HW178711   0.563  13.460  13.469
25624SOL    HW278712   0.467  13.344  13.453
25625SOL     OW78713   5.237   5.962  14.725
25625SOL    HW178714   5.325   5.999  14.726
25625SOL    HW278715   5.203   5.979  14.813
25626SOL     OW78716   3.336  10.429   6.062
25626SOL    HW178717   3.395  10.406   5.990
25626SOL    HW278718   3.393  10.472   6.126
25627SOL     OW78719   9.603   0.949   8.120
25627SOL    HW178720   9.537   0.880   8.127
25627SOL    HW278721   9.661   0.935   8.194
25628SOL     OW78722   2.685   7.851   7.162
25628SOL    HW178723   2.593   7.827   7.165
25628SOL    HW278724   2.688   7.930   7.108
25629SOL     OW78725  10.380   9.879   8.538
25629SOL    HW178726  10.308   9.854   8.596
25629SOL    HW278727  10.385   9.974   8.546
25630SOL     OW78728   0.931   8.532   8.359
25630SOL    HW178729   0.977   8.466   8.411
25630SOL    HW278730   0.846   8.541   8.403
25631SOL     OW78731   6.796   8.760   5.533
25631SOL    HW178732   6.737   8.831   5.559
25631SOL    HW278733   6.819   8.780   5.442
25632SOL     OW78734   7.078  13.673  13.697
25632SOL    HW178735   7.009  13.640  13.639
25632SOL    HW278736   7.034  13.739  13.751
25633SOL     OW78737   8.684   7.846  13.370
25633SOL    HW178738   8.764   7.894  13.348
25633SOL    HW278739   8.699   7.758  13.336
25634SOL     OW78740   1.676   4.693   0.106
25634SOL    HW178741   1.695   4.736   0.189
25634SOL    HW278742   1.640   4.762   0.050
25635SOL     OW78743   5.908   2.957   2.541
25635SOL    HW178744   6.003   2.948   2.527
25635SOL    HW278745   5.899   2.976   2.634
25636SOL     OW78746   1.236  11.647  12.973
25636SOL    HW178747   1.183  11.568  12.978
25636SOL    HW278748   1.173  11.718  12.960
25637SOL     OW78749  11.848   8.729   4.002
25637SOL    HW178750  11.812   8.740   4.090
25637SOL    HW278751  11.933   8.688   4.016
25638SOL     OW78752   8.932   2.498   5.015
25638SOL    HW178753   8.980   2.581   5.017
25638SOL    HW278754   8.968   2.451   4.940
25639SOL     OW78755   7.279  13.231   7.223
25639SOL    HW178756   7.263  13.317   7.185
25639SOL    HW278757   7.283  13.246   7.317
25640SOL     OW78758   8.207   8.708   7.646
25640SOL    HW178759   8.186   8.685   7.737
25640SOL    HW278760   8.160   8.789   7.630
25641SOL     OW78761   9.738   2.758   2.237
25641SOL    HW178762   9.832   2.758   2.219
25641SOL    HW278763   9.701   2.698   2.172
25642SOL     OW78764   3.944   0.771  10.009
25642SOL    HW178765   3.934   0.684  10.047
25642SOL    HW278766   3.926   0.757   9.915
25643SOL     OW78767   2.862   1.075  11.520
25643SOL    HW178768   2.894   1.032  11.599
25643SOL    HW278769   2.901   1.026  11.448
25644SOL     OW78770   8.482  10.357   1.094
25644SOL    HW178771   8.491  10.384   1.186
25644SOL    HW278772   8.571  10.331   1.069
25645SOL     OW78773   0.079   7.958  13.584
25645SOL    HW178774   0.103   8.040  13.542
25645SOL    HW278775   0.075   7.895  13.512
25646SOL     OW78776   6.827   6.120   1.306
25646SOL    HW178777   6.888   6.120   1.233
25646SOL    HW278778   6.740   6.121   1.266
25647SOL     OW78779   1.859   2.989   0.113
25647SOL    HW178780   1.772   2.954   0.131
25647SOL    HW278781   1.860   3.007   0.019
25648SOL     OW78782   1.556  10.227  13.717
25648SOL    HW178783   1.519  10.177  13.790
25648SOL    HW278784   1.649  10.206  13.718
25649SOL     OW78785   2.295   1.468   3.792
25649SOL    HW178786   2.203   1.476   3.815
25649SOL    HW278787   2.307   1.376   3.770
25650SOL     OW78788   3.053   7.572   6.581
25650SOL    HW178789   3.102   7.595   6.502
25650SOL    HW278790   2.979   7.520   6.548
25651SOL     OW78791   1.225   1.291  12.687
25651SOL    HW178792   1.269   1.251  12.612
25651SOL    HW278793   1.167   1.223  12.720
25652SOL     OW78794   1.294  13.590   7.512
25652SOL    HW178795   1.363  13.655   7.527
25652SOL    HW278796   1.328  13.535   7.442
25653SOL     OW78797  10.433   9.903   9.492
25653SOL    HW178798  10.379   9.858   9.427
25653SOL    HW278799  10.404   9.867   9.576
25654SOL     OW78800  12.802   3.630  11.910
25654SOL    HW178801  12.807   3.724  11.896
25654SOL    HW278802  12.749   3.620  11.990
25655SOL     OW78803   8.192   3.271   5.866
25655SOL    HW178804   8.132   3.264   5.792
25655SOL    HW278805   8.140   3.244   5.942
25656SOL     OW78806  12.010   0.593  11.938
25656SOL    HW178807  12.098   0.583  11.902
25656SOL    HW278808  11.994   0.688  11.937
25657SOL     OW78809  12.576   7.784   8.785
25657SOL    HW178810  12.595   7.819   8.872
25657SOL    HW278811  12.646   7.818   8.729
25658SOL     OW78812   4.376   0.375   5.913
25658SOL    HW178813   4.343   0.456   5.876
25658SOL    HW278814   4.447   0.402   5.972
25659SOL     OW78815   3.482   9.928  13.369
25659SOL    HW178816   3.576   9.911  13.378
25659SOL    HW278817   3.474  10.023  13.377
25660SOL     OW78818   0.862   6.909   3.950
25660SOL    HW178819   0.806   6.968   3.899
25660SOL    HW278820   0.840   6.822   3.918
25661SOL     OW78821   8.829   2.133   9.309
25661SOL    HW178822   8.753   2.128   9.366
25661SOL    HW278823   8.830   2.224   9.279
25662SOL     OW78824   8.346   0.257   5.307
25662SOL    HW178825   8.365   0.334   5.361
25662SOL    HW278826   8.426   0.205   5.311
25663SOL     OW78827  12.623   6.286  12.788
25663SOL    HW178828  12.684   6.357  12.770
25663SOL    HW278829  12.560   6.289  12.716
25664SOL     OW78830   8.223  13.567  13.494
25664SOL    HW178831   8.222  13.526  13.407
25664SOL    HW278832   8.150  13.629  13.492
25665SOL     OW78833   1.407   8.943   9.994
25665SOL    HW178834   1.498   8.938   9.963
25665SOL    HW278835   1.357   8.892   9.930
25666SOL     OW78836  14.199   6.017   7.691
25666SOL    HW178837  14.158   6.047   7.772
25666SOL    HW278838  14.172   5.925   7.684
25667SOL     OW78839  13.224   5.183   0.672
25667SOL    HW178840  13.168   5.261   0.679
25667SOL    HW278841  13.169   5.111   0.704
25668SOL     OW78842  14.708   2.572   7.911
25668SOL    HW178843  14.693   2.662   7.883
25668SOL    HW278844  14.642   2.557   7.979
25669SOL     OW78845   6.319   1.151  13.235
25669SOL    HW178846   6.274   1.067  13.244
25669SOL    HW278847   6.331   1.181  13.326
25670SOL     OW78848   6.426   9.070  10.278
25670SOL    HW178849   6.350   9.026  10.317
25670SOL    HW278850   6.497   9.007  10.287
25671SOL     OW78851   6.315   6.302   5.959
25671SOL    HW178852   6.257   6.363   6.005
25671SOL    HW278853   6.260   6.261   5.893
25672SOL     OW78854   8.770  12.386   0.060
25672SOL    HW178855   8.812  12.351  14.858
25672SOL    HW278856   8.842  12.403   0.121
25673SOL     OW78857  10.243   4.886  11.447
25673SOL    HW178858  10.149   4.901  11.435
25673SOL    HW278859  10.256   4.887  11.542
25674SOL     OW78860  10.790   6.521  12.871
25674SOL    HW178861  10.865   6.579  12.883
25674SOL    HW278862  10.728   6.572  12.819
25675SOL     OW78863   7.315   1.945   7.625
25675SOL    HW178864   7.356   2.018   7.580
25675SOL    HW278865   7.234   1.980   7.661
25676SOL     OW78866  10.071   5.004   6.409
25676SOL    HW178867   9.989   4.993   6.361
25676SOL    HW278868  10.139   4.985   6.345
25677SOL     OW78869   1.369  11.750  14.354
25677SOL    HW178870   1.397  11.775  14.265
25677SOL    HW278871   1.446  11.765  14.408
25678SOL     OW78872   8.816   3.876  13.659
25678SOL    HW178873   8.803   3.803  13.599
25678SOL    HW278874   8.771   3.850  13.739
25679SOL     OW78875  14.761   7.182  12.716
25679SOL    HW178876  14.834   7.149  12.662
25679SOL    HW278877  14.769   7.134  12.799
25680SOL     OW78878  13.002   7.131   4.358
25680SOL    HW178879  13.055   7.128   4.437
25680SOL    HW278880  12.995   7.039   4.330
25681SOL     OW78881   5.277   9.297  10.118
25681SOL    HW178882   5.276   9.324  10.026
25681SOL    HW278883   5.225   9.363  10.163
25682SOL     OW78884   5.971   4.078   4.704
25682SOL    HW178885   5.894   4.051   4.653
25682SOL    HW278886   5.963   4.173   4.712
25683SOL     OW78887  13.655   4.517   7.801
25683SOL    HW178888  13.592   4.463   7.753
25683SOL    HW278889  13.642   4.493   7.892
25684SOL     OW78890  11.213  14.418   0.744
25684SOL    HW178891  11.213  14.423   0.840
25684SOL    HW278892  11.215  14.509   0.715
25685SOL     OW78893  11.991  10.139   1.556
25685SOL    HW178894  11.974  10.047   1.577
25685SOL    HW278895  12.071  10.161   1.604
25686SOL     OW78896   7.615  12.256   1.048
25686SOL    HW178897   7.575  12.292   1.128
25686SOL    HW278898   7.679  12.192   1.079
25687SOL     OW78899  12.312  14.122  13.883
25687SOL    HW178900  12.292  14.215  13.875
25687SOL    HW278901  12.294  14.086  13.796
25688SOL     OW78902   3.846   0.704   2.038
25688SOL    HW178903   3.771   0.747   1.997
25688SOL    HW278904   3.823   0.611   2.037
25689SOL     OW78905   5.613   1.403   6.826
25689SOL    HW178906   5.533   1.442   6.791
25689SOL    HW278907   5.617   1.433   6.917
25690SOL     OW78908   6.181  14.567  12.180
25690SOL    HW178909   6.113  14.521  12.229
25690SOL    HW278910   6.133  14.631  12.127
25691SOL     OW78911   3.049   1.896  10.749
25691SOL    HW178912   3.107   1.969  10.728
25691SOL    HW278913   3.095   1.847  10.818
25692SOL     OW78914  14.487   0.089   1.223
25692SOL    HW178915  14.558   0.153   1.230
25692SOL    HW278916  14.470   0.063   1.313
25693SOL     OW78917  14.628   3.017  10.535
25693SOL    HW178918  14.560   2.959  10.501
25693SOL    HW278919  14.660   3.064  10.458
25694SOL     OW78920  11.356  10.452  12.686
25694SOL    HW178921  11.302  10.472  12.610
25694SOL    HW278922  11.350  10.530  12.741
25695SOL     OW78923   0.377   2.399   3.028
25695SOL    HW178924   0.434   2.457   3.079
25695SOL    HW278925   0.310   2.456   2.992
25696SOL     OW78926   3.431   1.991  12.280
25696SOL    HW178927   3.413   2.084  12.267
25696SOL    HW278928   3.349   1.947  12.256
25697SOL     OW78929   8.274  10.089  13.018
25697SOL    HW178930   8.220  10.021  12.979
25697SOL    HW278931   8.299  10.055  13.104
25698SOL     OW78932  13.508   1.882   0.958
25698SOL    HW178933  13.561   1.900   1.036
25698SOL    HW278934  13.552   1.930   0.888
25699SOL     OW78935   4.548   9.740  13.714
25699SOL    HW178936   4.494   9.800  13.663
25699SOL    HW278937   4.626   9.791  13.736
25700SOL     OW78938  14.595   7.192   9.840
25700SOL    HW178939  14.676   7.232   9.872
25700SOL    HW278940  14.616   7.164   9.751
25701SOL     OW78941   2.090  10.117   4.011
25701SOL    HW178942   2.163  10.164   4.051
25701SOL    HW278943   2.132  10.053   3.954
25702SOL     OW78944   1.505  13.955  14.183
25702SOL    HW178945   1.455  13.964  14.101
25702SOL    HW278946   1.573  13.892  14.163
25703SOL     OW78947  13.189   0.308  11.809
25703SOL    HW178948  13.123   0.316  11.741
25703SOL    HW278949  13.189   0.215  11.832
25704SOL     OW78950   4.699   4.257   1.243
25704SOL    HW178951   4.724   4.341   1.205
25704SOL    HW278952   4.604   4.257   1.241
25705SOL     OW78953   2.606  14.297  12.236
25705SOL    HW178954   2.577  14.258  12.318
25705SOL    HW278955   2.540  14.363  12.216
25706SOL     OW78956  10.312   1.334   3.331
25706SOL    HW178957  10.294   1.276   3.257
25706SOL    HW278958  10.228   1.342   3.376
25707SOL     OW78959   2.243   0.902   2.698
25707SOL    HW178960   2.247   0.983   2.749
25707SOL    HW278961   2.292   0.922   2.618
25708SOL     OW78962  12.687  11.759   5.850
25708SOL    HW178963  12.741  11.689   5.885
25708SOL    HW278964  12.598  11.726   5.855
25709SOL     OW78965   6.824   3.626   6.106
25709SOL    HW178966   6.800   3.631   6.014
25709SOL    HW278967   6.844   3.533   6.121
25710SOL     OW78968   0.208  13.787  12.813
25710SOL    HW178969   0.192  13.717  12.750
25710SOL    HW278970   0.211  13.867  12.760
25711SOL     OW78971   4.002  14.760   3.387
25711SOL    HW178972   3.911  14.748   3.411
25711SOL    HW278973   4.015  14.855   3.387
25712SOL     OW78974  10.592   3.850   4.101
25712SOL    HW178975  10.568   3.782   4.037
25712SOL    HW278976  10.523   3.846   4.166
25713SOL     OW78977  14.000  12.348   0.193
25713SOL    HW178978  13.924  12.398   0.165
25713SOL    HW278979  14.048  12.407   0.251
25714SOL     OW78980   2.297   1.350  11.902
25714SOL    HW178981   2.390   1.352  11.924
25714SOL    HW278982   2.258   1.295  11.970
25715SOL     OW78983   2.436   3.631   8.056
25715SOL    HW178984   2.487   3.552   8.076
25715SOL    HW278985   2.489   3.678   7.992
25716SOL     OW78986  12.259  10.981  11.029
25716SOL    HW178987  12.230  10.912  10.969
25716SOL    HW278988  12.178  11.015  11.067
25717SOL     OW78989   5.504   7.948   7.369
25717SOL    HW178990   5.427   7.920   7.420
25717SOL    HW278991   5.472   7.954   7.279
25718SOL     OW78992   5.628  14.055   0.005
25718SOL    HW178993   5.569  14.113   0.052
25718SOL    HW278994   5.571  13.987  14.845
25719SOL     OW78995  12.708  13.736  14.422
25719SOL    HW178996  12.659  13.752  14.341
25719SOL    HW278997  12.647  13.690  14.479
25720SOL     OW78998   6.569   8.845   2.498
25720SOL    HW178999   6.651   8.801   2.474
25720SOL    HW279000   6.500   8.783   2.472
25721SOL     OW79001  13.363   6.892   8.676
25721SOL    HW179002  13.440   6.941   8.706
25721SOL    HW279003  13.395   6.836   8.607
25722SOL     OW79004   7.186  10.122   1.169
25722SOL    HW179005   7.096  10.109   1.201
25722SOL    HW279006   7.175  10.154   1.080
25723SOL     OW79007  12.960  13.742  11.567
25723SOL    HW179008  12.965  13.665  11.623
25723SOL    HW279009  12.882  13.728  11.514
25724SOL     OW79010  12.313  11.573   6.828
25724SOL    HW179011  12.253  11.506   6.798
25724SOL    HW279012  12.258  11.651   6.841
25725SOL     OW79013   9.144  13.312   5.885
25725SOL    HW179014   9.220  13.348   5.930
25725SOL    HW279015   9.098  13.388   5.849
25726SOL     OW79016   5.606   0.903   2.665
25726SOL    HW179017   5.564   0.862   2.590
25726SOL    HW279018   5.560   0.868   2.741
25727SOL     OW79019  14.801  11.803   2.133
25727SOL    HW179020   0.011  11.838   2.111
25727SOL    HW279021  14.783  11.740   2.063
25728SOL     OW79022  10.506   5.579   2.537
25728SOL    HW179023  10.547   5.591   2.623
25728SOL    HW279024  10.489   5.669   2.507
25729SOL     OW79025   9.157  11.436  11.943
25729SOL    HW179026   9.066  11.460  11.925
25729SOL    HW279027   9.208  11.489  11.881
25730SOL     OW79028   0.226   4.387   2.814
25730SOL    HW179029   0.196   4.468   2.854
25730SOL    HW279030   0.303   4.413   2.763
25731SOL     OW79031   9.979  12.265   9.389
25731SOL    HW179032   9.994  12.196   9.325
25731SOL    HW279033  10.021  12.343   9.352
25732SOL     OW79034   6.327   1.914   3.283
25732SOL    HW179035   6.283   1.838   3.321
25732SOL    HW279036   6.342   1.973   3.357
25733SOL     OW79037  13.683   3.593   9.728
25733SOL    HW179038  13.633   3.647   9.667
25733SOL    HW279039  13.749   3.550   9.673
25734SOL     OW79040  12.195   0.029   2.152
25734SOL    HW179041  12.123   0.091   2.162
25734SOL    HW279042  12.161  14.840   2.090
25735SOL     OW79043  14.199   8.735  11.900
25735SOL    HW179044  14.145   8.807  11.932
25735SOL    HW279045  14.139   8.660  11.894
25736SOL     OW79046   5.586   1.066  13.223
25736SOL    HW179047   5.507   1.058  13.170
25736SOL    HW279048   5.637   1.134  13.180
25737SOL     OW79049   7.036   9.961  11.485
25737SOL    HW179050   7.091   9.891  11.451
25737SOL    HW279051   7.089  10.002  11.554
25738SOL     OW79052   5.240  12.797   4.609
25738SOL    HW179053   5.277  12.833   4.689
25738SOL    HW279054   5.146  12.813   4.617
25739SOL     OW79055  12.543  12.865   0.719
25739SOL    HW179056  12.597  12.816   0.657
25739SOL    HW279057  12.553  12.820   0.802
25740SOL     OW79058   2.835   9.713  13.198
25740SOL    HW179059   2.924   9.716  13.233
25740SOL    HW279060   2.781   9.753  13.266
25741SOL     OW79061  10.147  13.575   0.187
25741SOL    HW179062  10.235  13.604   0.164
25741SOL    HW279063  10.161  13.508   0.254
25742SOL     OW79064  12.086   9.486   7.428
25742SOL    HW179065  12.061   9.444   7.345
25742SOL    HW279066  12.064   9.422   7.495
25743SOL     OW79067   9.266   6.539   6.422
25743SOL    HW179068   9.350   6.511   6.386
25743SOL    HW279069   9.273   6.521   6.515
25744SOL     OW79070   7.255   7.577  12.219
25744SOL    HW179071   7.327   7.537  12.267
25744SOL    HW279072   7.265   7.671  12.235
25745SOL     OW79073   2.419  14.171   1.278
25745SOL    HW179074   2.449  14.090   1.319
25745SOL    HW279075   2.425  14.153   1.184
25746SOL     OW79076  13.642  11.564   6.447
25746SOL    HW179077  13.583  11.526   6.382
25746SOL    HW279078  13.589  11.574   6.525
25747SOL     OW79079  11.561   5.356  12.697
25747SOL    HW179080  11.535   5.324  12.611
25747SOL    HW279081  11.650   5.323  12.709
25748SOL     OW79082   4.065   9.793   4.061
25748SOL    HW179083   3.997   9.861   4.064
25748SOL    HW279084   4.103   9.794   4.149
25749SOL     OW79085  10.287   8.477   9.649
25749SOL    HW179086  10.326   8.408   9.704
25749SOL    HW279087  10.351   8.548   9.652
25750SOL     OW79088   1.995   0.247   0.212
25750SOL    HW179089   1.928   0.276   0.150
25750SOL    HW279090   2.046   0.183   0.163
25751SOL     OW79091   8.190   8.971   2.017
25751SOL    HW179092   8.134   8.929   1.952
25751SOL    HW279093   8.129   9.013   2.078
25752SOL     OW79094   1.383   7.748   4.353
25752SOL    HW179095   1.394   7.653   4.358
25752SOL    HW279096   1.308   7.760   4.295
25753SOL     OW79097  13.072   0.411   4.973
25753SOL    HW179098  13.163   0.435   4.993
25753SOL    HW279099  13.021   0.485   5.006
25754SOL     OW79100   6.657   9.979   0.663
25754SOL    HW179101   6.722   9.910   0.649
25754SOL    HW279102   6.575   9.932   0.675
25755SOL     OW79103   1.104   0.128  14.117
25755SOL    HW179104   1.057   0.104  14.197
25755SOL    HW279105   1.136   0.045  14.082
25756SOL     OW79106   0.235   7.693   4.940
25756SOL    HW179107   0.288   7.722   5.014
25756SOL    HW279108   0.298   7.688   4.867
25757SOL     OW79109  12.342  12.292   1.318
25757SOL    HW179110  12.298  12.376   1.336
25757SOL    HW279111  12.300  12.230   1.378
25758SOL     OW79112   2.116   0.479   7.153
25758SOL    HW179113   2.072   0.413   7.099
25758SOL    HW279114   2.206   0.480   7.121
25759SOL     OW79115   2.556   6.252   1.575
25759SOL    HW179116   2.470   6.291   1.562
25759SOL    HW279117   2.538   6.170   1.621
25760SOL     OW79118   6.359  13.369   2.949
25760SOL    HW179119   6.362  13.464   2.938
25760SOL    HW279120   6.267  13.346   2.943
25761SOL     OW79121  10.957   1.458  10.672
25761SOL    HW179122  10.955   1.376  10.722
25761SOL    HW279123  11.042   1.457  10.628
25762SOL     OW79124   6.348  12.669  10.039
25762SOL    HW179125   6.273  12.712  10.080
25762SOL    HW279126   6.396  12.629  10.112
25763SOL     OW79127   5.157   1.061  13.170
25763SOL    HW179128   5.154   1.085  13.077
25763SOL    HW279129   5.233   1.003  13.177
25764SOL     OW79130  12.638   3.752   6.480
25764SOL    HW179131  12.714   3.811   6.482
25764SOL    HW279132  12.576   3.795   6.421
25765SOL     OW79133  11.595   2.081   6.385
25765SOL    HW179134  11.550   2.155   6.427
25765SOL    HW279135  11.684   2.083   6.420
25766SOL     OW79136  14.372  12.205   5.822
25766SOL    HW179137  14.341  12.171   5.906
25766SOL    HW279138  14.328  12.289   5.813
25767SOL     OW79139   9.866   5.749   7.022
25767SOL    HW179140   9.774   5.777   7.014
25767SOL    HW279141   9.860   5.661   7.059
25768SOL     OW79142  12.255   3.202   7.678
25768SOL    HW179143  12.174   3.194   7.728
25768SOL    HW279144  12.308   3.129   7.706
25769SOL     OW79145   3.625  10.764   3.196
25769SOL    HW179146   3.575  10.803   3.124
25769SOL    HW279147   3.636  10.672   3.172
25770SOL     OW79148   6.872   7.064   0.210
25770SOL    HW179149   6.949   7.114   0.235
25770SOL    HW279150   6.888   6.976   0.244
25771SOL     OW79151   9.651   5.629   3.289
25771SOL    HW179152   9.603   5.575   3.226
25771SOL    HW279153   9.739   5.637   3.252
25772SOL     OW79154   4.241   7.295   1.754
25772SOL    HW179155   4.316   7.304   1.696
25772SOL    HW279156   4.245   7.373   1.810
25773SOL     OW79157  12.851   0.351   8.340
25773SOL    HW179158  12.792   0.277   8.355
25773SOL    HW279159  12.915   0.344   8.411
25774SOL     OW79160  13.585  12.762   0.082
25774SOL    HW179161  13.651  12.786   0.147
25774SOL    HW279162  13.527  12.702   0.129
25775SOL     OW79163   2.336   1.028  13.852
25775SOL    HW179164   2.386   1.098  13.894
25775SOL    HW279165   2.392   0.999  13.780
25776SOL     OW79166  10.226  11.763   7.238
25776SOL    HW179167  10.142  11.763   7.191
25776SOL    HW279168  10.209  11.708   7.315
25777SOL     OW79169   8.259   0.201  14.177
25777SOL    HW179170   8.287   0.262  14.245
25777SOL    HW279171   8.193   0.250  14.128
25778SOL     OW79172  11.827  12.708   5.052
25778SOL    HW179173  11.787  12.685   4.968
25778SOL    HW279174  11.912  12.746   5.029
25779SOL     OW79175  12.066   2.978   4.555
25779SOL    HW179176  12.008   2.911   4.519
25779SOL    HW279177  12.057   3.052   4.495
25780SOL     OW79178  10.571   4.629  10.985
25780SOL    HW179179  10.536   4.687  11.052
25780SOL    HW279180  10.635   4.575  11.031
25781SOL     OW79181  14.020   9.438   3.460
25781SOL    HW179182  14.082   9.434   3.387
25781SOL    HW279183  13.934   9.431   3.419
25782SOL     OW79184  14.537   8.493   7.815
25782SOL    HW179185  14.618   8.443   7.826
25782SOL    HW279186  14.529   8.543   7.896
25783SOL     OW79187   3.180   6.726   2.155
25783SOL    HW179188   3.248   6.660   2.168
25783SOL    HW279189   3.184   6.781   2.233
25784SOL     OW79190  11.897  10.589   6.154
25784SOL    HW179191  11.960  10.634   6.210
25784SOL    HW279192  11.908  10.629   6.068
25785SOL     OW79193   7.041   0.993   0.655
25785SOL    HW179194   7.066   1.004   0.747
25785SOL    HW279195   6.964   1.049   0.644
25786SOL     OW79196   1.905   5.083   4.368
25786SOL    HW179197   1.883   5.176   4.359
25786SOL    HW279198   1.954   5.077   4.450
25787SOL     OW79199   8.947   0.314  14.829
25787SOL    HW179200   8.917   0.334   0.042
25787SOL    HW279201   8.868   0.283  14.784
25788SOL     OW79202   3.822  12.417   2.396
25788SOL    HW179203   3.851  12.476   2.327
25788SOL    HW279204   3.812  12.333   2.353
25789SOL     OW79205  12.871   1.733   7.682
25789SOL    HW179206  12.902   1.643   7.688
25789SOL    HW279207  12.819   1.746   7.761
25790SOL     OW79208   3.399   4.101   1.864
25790SOL    HW179209   3.429   4.129   1.777
25790SOL    HW279210   3.454   4.151   1.925
25791SOL     OW79211   5.181   9.619   7.719
25791SOL    HW179212   5.183   9.653   7.808
25791SOL    HW279213   5.231   9.538   7.723
25792SOL     OW79214   6.667   3.547   2.793
25792SOL    HW179215   6.587   3.501   2.771
25792SOL    HW279216   6.727   3.479   2.823
25793SOL     OW79217   6.387   8.923   4.317
25793SOL    HW179218   6.373   8.842   4.366
25793SOL    HW279219   6.353   8.992   4.374
25794SOL     OW79220   6.304   0.359  11.541
25794SOL    HW179221   6.387   0.405  11.527
25794SOL    HW279222   6.259   0.364  11.456
25795SOL     OW79223   9.729  10.729   2.857
25795SOL    HW179224   9.824  10.737   2.854
25795SOL    HW279225   9.712  10.639   2.829
25796SOL     OW79226   6.787   3.889  10.974
25796SOL    HW179227   6.739   3.806  10.970
25796SOL    HW279228   6.728   3.949  11.021
25797SOL     OW79229   7.950   3.331   5.751
25797SOL    HW179230   7.973   3.283   5.672
25797SOL    HW279231   7.893   3.401   5.722
25798SOL     OW79232   1.137   9.872   9.565
25798SOL    HW179233   1.180   9.833   9.489
25798SOL    HW279234   1.085   9.801   9.603
25799SOL     OW79235   1.357   0.774   5.020
25799SOL    HW179236   1.392   0.686   5.007
25799SOL    HW279237   1.429   0.833   4.998
25800SOL     OW79238  11.137  13.736   7.510
25800SOL    HW179239  11.167  13.790   7.437
25800SOL    HW279240  11.217  13.700   7.549
25801SOL     OW79241  11.955  12.080   9.231
25801SOL    HW179242  11.985  12.133   9.157
25801SOL    HW279243  12.034  12.037   9.263
25802SOL     OW79244  10.264  14.238   7.811
25802SOL    HW179245  10.338  14.185   7.781
25802SOL    HW279246  10.288  14.265   7.899
25803SOL     OW79247   5.374   3.564   1.327
25803SOL    HW179248   5.302   3.613   1.366
25803SOL    HW279249   5.440   3.559   1.397
25804SOL     OW79250   7.044  13.685  12.581
25804SOL    HW179251   6.986  13.687  12.657
25804SOL    HW279252   7.026  13.767  12.536
25805SOL     OW79253   3.152   8.054   4.482
25805SOL    HW179254   3.178   8.085   4.569
25805SOL    HW279255   3.161   8.131   4.425
25806SOL     OW79256   2.462   5.659   3.358
25806SOL    HW179257   2.552   5.628   3.345
25806SOL    HW279258   2.447   5.650   3.452
25807SOL     OW79259  13.117  10.524   5.194
25807SOL    HW179260  13.082  10.520   5.105
25807SOL    HW279261  13.064  10.463   5.244
25808SOL     OW79262   0.259   7.541   4.476
25808SOL    HW179263   0.199   7.535   4.402
25808SOL    HW279264   0.233   7.470   4.534
25809SOL     OW79265  11.611   7.300  10.961
25809SOL    HW179266  11.580   7.320  11.050
25809SOL    HW279267  11.577   7.371  10.907
25810SOL     OW79268   9.493   9.896   8.777
25810SOL    HW179269   9.567   9.848   8.815
25810SOL    HW279270   9.427   9.828   8.759
25811SOL     OW79271   4.276   1.862  12.284
25811SOL    HW179272   4.257   1.928  12.350
25811SOL    HW279273   4.190   1.830  12.255
25812SOL     OW79274   1.323  10.358   5.459
25812SOL    HW179275   1.396  10.298   5.448
25812SOL    HW279276   1.253  10.322   5.405
25813SOL     OW79277  13.657   6.992   8.700
25813SOL    HW179278  13.670   6.994   8.795
25813SOL    HW279279  13.718   6.924   8.670
25814SOL     OW79280   9.769   8.406  14.666
25814SOL    HW179281   9.843   8.362  14.710
25814SOL    HW279282   9.752   8.352  14.589
25815SOL     OW79283  13.478   7.365  11.665
25815SOL    HW179284  13.458   7.273  11.651
25815SOL    HW279285  13.570   7.367  11.691
25816SOL     OW79286   9.679   6.325   7.592
25816SOL    HW179287   9.663   6.253   7.531
25816SOL    HW279288   9.769   6.352   7.574
25817SOL     OW79289   9.179   9.504   9.063
25817SOL    HW179290   9.246   9.460   9.011
25817SOL    HW279291   9.226   9.573   9.109
25818SOL     OW79292   9.441  14.348  10.606
25818SOL    HW179293   9.363  14.340  10.661
25818SOL    HW279294   9.416  14.412  10.539
25819SOL     OW79295   2.254   4.936  14.609
25819SOL    HW179296   2.230   4.985  14.688
25819SOL    HW279297   2.248   4.844  14.636
25820SOL     OW79298  11.075   7.957   8.252
25820SOL    HW179299  11.003   7.938   8.192
25820SOL    HW279300  11.077   7.882   8.312
25821SOL     OW79301  11.836   3.250   3.588
25821SOL    HW179302  11.806   3.163   3.616
25821SOL    HW279303  11.779   3.311   3.635
25822SOL     OW79304   3.228   8.647   4.750
25822SOL    HW179305   3.167   8.613   4.684
25822SOL    HW279306   3.177   8.713   4.797
25823SOL     OW79307  13.640   9.822  14.306
25823SOL    HW179308  13.624   9.750  14.245
25823SOL    HW279309  13.572   9.886  14.285
25824SOL     OW79310   4.907   7.126   6.010
25824SOL    HW179311   4.920   7.148   5.918
25824SOL    HW279312   4.893   7.031   6.010
25825SOL     OW79313   5.852   8.889   5.938
25825SOL    HW179314   5.908   8.824   5.897
25825SOL    HW279315   5.771   8.842   5.959
25826SOL     OW79316  12.749   4.315   6.758
25826SOL    HW179317  12.841   4.302   6.735
25826SOL    HW279318  12.733   4.255   6.830
25827SOL     OW79319  12.531   6.496  10.051
25827SOL    HW179320  12.455   6.551  10.069
25827SOL    HW279321  12.515   6.461   9.963
25828SOL     OW79322  13.580  12.665   8.744
25828SOL    HW179323  13.631  12.651   8.823
25828SOL    HW279324  13.557  12.577   8.713
25829SOL     OW79325   6.145   1.832  13.745
25829SOL    HW179326   6.228   1.788  13.764
25829SOL    HW279327   6.134   1.895  13.816
25830SOL     OW79328   0.766  14.052   8.345
25830SOL    HW179329   0.819  14.094   8.414
25830SOL    HW279330   0.747  13.965   8.379
25831SOL     OW79331   2.369   6.027   4.479
25831SOL    HW179332   2.323   5.956   4.522
25831SOL    HW279333   2.392   6.088   4.550
25832SOL     OW79334   3.535  13.280  11.736
25832SOL    HW179335   3.596  13.206  11.737
25832SOL    HW279336   3.476  13.262  11.810
25833SOL     OW79337   0.484   2.233   8.491
25833SOL    HW179338   0.524   2.173   8.428
25833SOL    HW279339   0.500   2.320   8.455
25834SOL     OW79340   3.294   6.036  10.051
25834SOL    HW179341   3.326   5.998  10.133
25834SOL    HW279342   3.279   5.961   9.994
25835SOL     OW79343   0.959  11.529  11.407
25835SOL    HW179344   1.028  11.541  11.342
25835SOL    HW279345   0.993  11.464  11.467
25836SOL     OW79346  13.737   3.366  13.959
25836SOL    HW179347  13.817   3.410  13.932
25836SOL    HW279348  13.764   3.278  13.984
25837SOL     OW79349   9.024   2.871   4.560
25837SOL    HW179350   9.096   2.934   4.550
25837SOL    HW279351   8.998   2.850   4.470
25838SOL     OW79352   5.569   5.599   6.006
25838SOL    HW179353   5.611   5.517   5.981
25838SOL    HW279354   5.641   5.653   6.040
25839SOL     OW79355   8.966  13.989  10.560
25839SOL    HW179356   8.950  13.997  10.654
25839SOL    HW279357   8.936  13.901  10.538
25840SOL     OW79358   5.313   3.622  13.200
25840SOL    HW179359   5.353   3.658  13.279
25840SOL    HW279360   5.261   3.548  13.231
25841SOL     OW79361   3.415   8.488   3.943
25841SOL    HW179362   3.448   8.574   3.917
25841SOL    HW279363   3.343   8.507   4.004
25842SOL     OW79364   0.239   0.048   2.552
25842SOL    HW179365   0.285   0.082   2.629
25842SOL    HW279366   0.147   0.054   2.575
25843SOL     OW79367   1.548   8.432   5.875
25843SOL    HW179368   1.553   8.526   5.894
25843SOL    HW279369   1.562   8.390   5.960
25844SOL     OW79370   6.653   2.363   8.800
25844SOL    HW179371   6.592   2.426   8.840
25844SOL    HW279372   6.625   2.359   8.709
25845SOL     OW79373   9.963  10.659  12.931
25845SOL    HW179374   9.982  10.666  13.024
25845SOL    HW279375   9.935  10.568  12.918
25846SOL     OW79376  14.140  12.574   1.579
25846SOL    HW179377  14.088  12.495   1.563
25846SOL    HW279378  14.209  12.546   1.639
25847SOL     OW79379   0.932   3.328   8.132
25847SOL    HW179380   0.899   3.398   8.189
25847SOL    HW279381   0.987   3.274   8.189
25848SOL     OW79382  13.113   2.946   5.671
25848SOL    HW179383  13.207   2.956   5.658
25848SOL    HW279384  13.075   2.956   5.584
25849SOL     OW79385   5.692   9.945  13.190
25849SOL    HW179386   5.662   9.917  13.104
25849SOL    HW279387   5.787   9.934  13.187
25850SOL     OW79388  12.241   4.430   1.879
25850SOL    HW179389  12.236   4.476   1.796
25850SOL    HW279390  12.288   4.349   1.860
25851SOL     OW79391   4.618  10.682   3.873
25851SOL    HW179392   4.562  10.629   3.930
25851SOL    HW279393   4.684  10.621   3.842
25852SOL     OW79394  13.695   7.896   3.058
25852SOL    HW179395  13.622   7.957   3.043
25852SOL    HW279396  13.663   7.812   3.027
25853SOL     OW79397   3.410  12.163  14.117
25853SOL    HW179398   3.351  12.120  14.056
25853SOL    HW279399   3.481  12.100  14.132
25854SOL     OW79400   7.887   2.317  12.274
25854SOL    HW179401   7.970   2.365  12.272
25854SOL    HW279402   7.833   2.365  12.337
25855SOL     OW79403   6.910   9.858   5.832
25855SOL    HW179404   6.948   9.790   5.887
25855SOL    HW279405   6.815   9.845   5.840
25856SOL     OW79406   3.529   4.496  10.584
25856SOL    HW179407   3.460   4.504  10.650
25856SOL    HW279408   3.571   4.412  10.604
25857SOL     OW79409   8.894  10.246  13.956
25857SOL    HW179410   8.953  10.182  13.918
25857SOL    HW279411   8.935  10.331  13.939
25858SOL     OW79412   1.986   0.473   6.285
25858SOL    HW179413   2.039   0.396   6.308
25858SOL    HW279414   1.931   0.442   6.212
25859SOL     OW79415  14.792  14.671   7.567
25859SOL    HW179416  14.743  14.700   7.644
25859SOL    HW279417  14.797  14.749   7.511
25860SOL     OW79418   8.217   6.086   6.931
25860SOL    HW179419   8.286   6.087   6.998
25860SOL    HW279420   8.158   6.157   6.955
25861SOL     OW79421   5.918   4.722   2.158
25861SOL    HW179422   5.911   4.751   2.249
25861SOL    HW279423   5.893   4.630   2.160
25862SOL     OW79424   7.771  10.565  11.295
25862SOL    HW179425   7.821  10.554  11.376
25862SOL    HW279426   7.709  10.635  11.314
25863SOL     OW79427  10.399   7.691  10.382
25863SOL    HW179428  10.329   7.625  10.380
25863SOL    HW279429  10.469   7.651  10.433
25864SOL     OW79430   5.923   2.544  12.879
25864SOL    HW179431   5.964   2.585  12.803
25864SOL    HW279432   5.830   2.562  12.868
25865SOL     OW79433  14.807   3.417  13.139
25865SOL    HW179434  14.794   3.505  13.173
25865SOL    HW279435   0.013   3.388  13.177
25866SOL     OW79436   2.155  10.466  12.353
25866SOL    HW179437   2.148  10.455  12.258
25866SOL    HW279438   2.207  10.392  12.382
25867SOL     OW79439   3.743   7.529   0.851
25867SOL    HW179440   3.719   7.439   0.872
25867SOL    HW279441   3.824   7.544   0.900
25868SOL     OW79442   3.436   2.089   9.620
25868SOL    HW179443   3.368   2.036   9.577
25868SOL    HW279444   3.453   2.161   9.559
25869SOL     OW79445   9.398   8.648   0.973
25869SOL    HW179446   9.417   8.616   1.060
25869SOL    HW279447   9.417   8.574   0.915
25870SOL     OW79448   4.258   8.270   0.714
25870SOL    HW179449   4.177   8.292   0.668
25870SOL    HW279450   4.298   8.355   0.733
25871SOL     OW79451   1.503   8.547   9.535
25871SOL    HW179452   1.435   8.527   9.599
25871SOL    HW279453   1.548   8.624   9.570
25872SOL     OW79454   4.775  10.654   1.926
25872SOL    HW179455   4.760  10.565   1.894
25872SOL    HW279456   4.834  10.692   1.862
25873SOL     OW79457  11.394   3.209   3.523
25873SOL    HW179458  11.378   3.120   3.492
25873SOL    HW279459  11.373   3.206   3.616
25874SOL     OW79460   8.878   2.826   8.336
25874SOL    HW179461   8.945   2.841   8.269
25874SOL    HW279462   8.914   2.867   8.414
25875SOL     OW79463  12.018  13.228   1.194
25875SOL    HW179464  12.098  13.281   1.189
25875SOL    HW279465  12.046  13.146   1.235
25876SOL     OW79466   4.977  13.980   7.928
25876SOL    HW179467   4.932  13.916   7.873
25876SOL    HW279468   5.011  14.046   7.867
25877SOL     OW79469   4.579   6.128  10.577
25877SOL    HW179470   4.487   6.133  10.551
25877SOL    HW279471   4.582   6.056  10.640
25878SOL     OW79472   9.646   1.499   0.855
25878SOL    HW179473   9.590   1.424   0.839
25878SOL    HW279474   9.638   1.516   0.949
25879SOL     OW79475   2.867   9.166  14.300
25879SOL    HW179476   2.873   9.247  14.250
25879SOL    HW279477   2.872   9.192  14.391
25880SOL     OW79478   9.794   9.359  13.778
25880SOL    HW179479   9.880   9.364  13.736
25880SOL    HW279480   9.783   9.445  13.820
25881SOL     OW79481  11.830   3.334   6.053
25881SOL    HW179482  11.756   3.327   6.114
25881SOL    HW279483  11.857   3.244   6.037
25882SOL     OW79484   6.834   6.811   7.355
25882SOL    HW179485   6.852   6.812   7.449
25882SOL    HW279486   6.918   6.789   7.315
25883SOL     OW79487   6.196   4.095   8.259
25883SOL    HW179488   6.249   4.054   8.327
25883SOL    HW279489   6.241   4.071   8.177
25884SOL     OW79490   5.454  10.526  13.524
25884SOL    HW179491   5.374  10.544  13.575
25884SOL    HW279492   5.482  10.612  13.493
25885SOL     OW79493   3.163  13.950   0.757
25885SOL    HW179494   3.208  14.033   0.777
25885SOL    HW279495   3.153  13.950   0.662
25886SOL     OW79496   8.480   6.890   3.727
25886SOL    HW179497   8.571   6.903   3.701
25886SOL    HW279498   8.465   6.796   3.716
25887SOL     OW79499  10.148   8.394  12.500
25887SOL    HW179500  10.197   8.420  12.422
25887SOL    HW279501  10.078   8.339  12.467
25888SOL     OW79502  13.059   2.796   3.974
25888SOL    HW179503  12.983   2.840   3.935
25888SOL    HW279504  13.131   2.814   3.914
25889SOL     OW79505  13.497   1.083  14.518
25889SOL    HW179506  13.480   1.173  14.547
25889SOL    HW279507  13.592   1.074  14.522
25890SOL     OW79508   2.796  13.883  10.181
25890SOL    HW179509   2.804  13.842  10.095
25890SOL    HW279510   2.706  13.866  10.207
25891SOL     OW79511   2.078   7.658   0.733
25891SOL    HW179512   1.986   7.635   0.718
25891SOL    HW279513   2.126   7.611   0.665
25892SOL     OW79514   1.363  11.038  11.292
25892SOL    HW179515   1.407  10.971  11.346
25892SOL    HW279516   1.276  11.003  11.277
25893SOL     OW79517  10.914  10.683  13.006
25893SOL    HW179518  10.927  10.691  12.911
25893SOL    HW279519  10.994  10.641  13.037
25894SOL     OW79520   3.534  14.356  10.225
25894SOL    HW179521   3.624  14.325  10.235
25894SOL    HW279522   3.497  14.349  10.313
25895SOL     OW79523   3.997  14.265   2.520
25895SOL    HW179524   3.950  14.214   2.586
25895SOL    HW279525   4.061  14.315   2.570
25896SOL     OW79526   4.881   4.058   1.180
25896SOL    HW179527   4.800   4.108   1.185
25896SOL    HW279528   4.950   4.124   1.171
25897SOL     OW79529  11.016  12.683   5.635
25897SOL    HW179530  11.001  12.646   5.548
25897SOL    HW279531  11.015  12.778   5.621
25898SOL     OW79532   9.698   9.728   4.655
25898SOL    HW179533   9.623   9.759   4.705
25898SOL    HW279534   9.730   9.652   4.705
25899SOL     OW79535   8.066   5.565   5.339
25899SOL    HW179536   8.158   5.585   5.323
25899SOL    HW279537   8.067   5.494   5.403
25900SOL     OW79538   3.175   1.977  13.350
25900SOL    HW179539   3.209   1.954  13.436
25900SOL    HW279540   3.245   2.028  13.309
25901SOL     OW79541  14.715   3.373   4.243
25901SOL    HW179542  14.721   3.423   4.161
25901SOL    HW279543  14.777   3.417   4.301
25902SOL     OW79544  14.090  14.434  10.429
25902SOL    HW179545  14.000  14.415  10.402
25902SOL    HW279546  14.137  14.351  10.415
25903SOL     OW79547   3.577   5.446   3.438
25903SOL    HW179548   3.625   5.402   3.509
25903SOL    HW279549   3.591   5.539   3.454
25904SOL     OW79550   4.436   1.034  10.247
25904SOL    HW179551   4.520   1.077  10.258
25904SOL    HW279552   4.376   1.085  10.301
25905SOL     OW79553  13.550  14.019   0.289
25905SOL    HW179554  13.482  13.954   0.270
25905SOL    HW279555  13.542  14.036   0.382
25906SOL     OW79556   7.439   8.791   6.718
25906SOL    HW179557   7.434   8.885   6.735
25906SOL    HW279558   7.358   8.772   6.669
25907SOL     OW79559   6.096   1.619   5.138
25907SOL    HW179560   6.142   1.598   5.220
25907SOL    HW279561   6.098   1.714   5.133
25908SOL     OW79562  11.446   6.332   1.864
25908SOL    HW179563  11.488   6.246   1.869
25908SOL    HW279564  11.436   6.349   1.771
25909SOL     OW79565   2.287   8.627   9.475
25909SOL    HW179566   2.298   8.534   9.454
25909SOL    HW279567   2.225   8.627   9.548
25910SOL     OW79568   3.499   9.107   9.853
25910SOL    HW179569   3.427   9.055   9.816
25910SOL    HW279570   3.508   9.076   9.943
25911SOL     OW79571   1.437  14.275  12.766
25911SOL    HW179572   1.514  14.310  12.811
25911SOL    HW279573   1.377  14.349  12.760
25912SOL     OW79574  14.143  12.996   0.126
25912SOL    HW179575  14.103  12.910   0.137
25912SOL    HW279576  14.236  12.982   0.144
25913SOL     OW79577   6.658  12.855   7.527
25913SOL    HW179578   6.612  12.913   7.466
25913SOL    HW279579   6.685  12.781   7.473
25914SOL     OW79580   7.316   8.894   0.133
25914SOL    HW179581   7.259   8.930   0.065
25914SOL    HW279582   7.401   8.935   0.116
25915SOL     OW79583   7.887  12.976  12.774
25915SOL    HW179584   7.909  13.039  12.706
25915SOL    HW279585   7.829  12.913  12.731
25916SOL     OW79586   9.914  12.737   9.325
25916SOL    HW179587   9.910  12.752   9.231
25916SOL    HW279588   9.976  12.665   9.335
25917SOL     OW79589   9.063   7.582  10.090
25917SOL    HW179590   9.120   7.652  10.058
25917SOL    HW279591   9.003   7.625  10.151
25918SOL     OW79592  10.540  11.384   0.528
25918SOL    HW179593  10.469  11.344   0.579
25918SOL    HW279594  10.589  11.310   0.493
25919SOL     OW79595  12.176   9.934   4.017
25919SOL    HW179596  12.179  10.028   4.029
25919SOL    HW279597  12.098   9.918   3.964
25920SOL     OW79598   5.363   3.691  13.816
25920SOL    HW179599   5.267   3.688  13.822
25920SOL    HW279600   5.392   3.613  13.862
25921SOL     OW79601  13.545  13.535  14.292
25921SOL    HW179602  13.478  13.602  14.279
25921SOL    HW279603  13.623  13.571  14.249
25922SOL     OW79604   5.892  10.987   2.050
25922SOL    HW179605   5.903  11.063   1.993
25922SOL    HW279606   5.883  11.024   2.138
25923SOL     OW79607   0.831  14.264   4.130
25923SOL    HW179608   0.757  14.223   4.086
25923SOL    HW279609   0.897  14.276   4.062
25924SOL     OW79610   1.485   1.319   5.180
25924SOL    HW179611   1.434   1.256   5.229
25924SOL    HW279612   1.576   1.298   5.202
25925SOL     OW79613   2.539   4.021   4.738
25925SOL    HW179614   2.468   3.960   4.757
25925SOL    HW279615   2.616   3.981   4.777
25926SOL     OW79616  10.106   7.413   1.933
25926SOL    HW179617  10.152   7.403   2.016
25926SOL    HW279618  10.032   7.471   1.953
25927SOL     OW79619  11.416   8.446  14.289
25927SOL    HW179620  11.347   8.507  14.261
25927SOL    HW279621  11.377   8.359  14.278
25928SOL     OW79622   2.103  12.842   3.365
25928SOL    HW179623   2.092  12.937   3.373
25928SOL    HW279624   2.060  12.807   3.443
25929SOL     OW79625  10.265  10.910   1.312
25929SOL    HW179626  10.338  10.858   1.344
25929SOL    HW279627  10.225  10.947   1.391
25930SOL     OW79628   6.370   2.724  10.200
25930SOL    HW179629   6.333   2.648  10.244
25930SOL    HW279630   6.453   2.694  10.165
25931SOL     OW79631  12.605   8.326   9.562
25931SOL    HW179632  12.579   8.418   9.568
25931SOL    HW279633  12.568   8.285   9.640
25932SOL     OW79634   7.077   6.891  13.696
25932SOL    HW179635   7.007   6.858  13.752
25932SOL    HW279636   7.037   6.962  13.647
25933SOL     OW79637   7.372  11.681   7.960
25933SOL    HW179638   7.340  11.768   7.984
25933SOL    HW279639   7.442  11.697   7.897
25934SOL     OW79640   2.214  14.313  11.047
25934SOL    HW179641   2.242  14.267  11.125
25934SOL    HW279642   2.259  14.398  11.052
25935SOL     OW79643   7.573   7.686   1.386
25935SOL    HW179644   7.653   7.715   1.343
25935SOL    HW279645   7.599   7.665   1.476
25936SOL     OW79646   8.919  11.045  12.057
25936SOL    HW179647   8.996  11.058  12.001
25936SOL    HW279648   8.877  11.131  12.059
25937SOL     OW79649   0.158   9.473   3.714
25937SOL    HW179650   0.140   9.403   3.651
25937SOL    HW279651   0.072   9.510   3.734
25938SOL     OW79652   7.076  12.970  10.824
25938SOL    HW179653   7.118  13.032  10.884
25938SOL    HW279654   7.124  12.888  10.837
25939SOL     OW79655  11.218   0.432   2.643
25939SOL    HW179656  11.176   0.518   2.636
25939SOL    HW279657  11.233   0.406   2.553
25940SOL     OW79658   0.625   5.410   6.982
25940SOL    HW179659   0.598   5.495   6.947
25940SOL    HW279660   0.614   5.349   6.909
25941SOL     OW79661   7.118   4.403   5.460
25941SOL    HW179662   7.159   4.488   5.476
25941SOL    HW279663   7.110   4.398   5.365
25942SOL     OW79664  14.261   3.820   0.489
25942SOL    HW179665  14.225   3.773   0.565
25942SOL    HW279666  14.334   3.870   0.524
25943SOL     OW79667  13.106   1.703  10.834
25943SOL    HW179668  13.164   1.722  10.760
25943SOL    HW279669  13.026   1.753  10.815
25944SOL     OW79670  13.805   1.751   2.857
25944SOL    HW179671  13.709   1.746   2.860
25944SOL    HW279672  13.824   1.824   2.798
25945SOL     OW79673   5.226  11.880   8.059
25945SOL    HW179674   5.161  11.885   8.129
25945SOL    HW279675   5.301  11.836   8.099
25946SOL     OW79676  14.784   4.224  13.822
25946SOL    HW179677  14.784   4.306  13.872
25946SOL    HW279678  14.788   4.252  13.730
25947SOL     OW79679  13.250   3.380  13.179
25947SOL    HW179680  13.328   3.325  13.184
25947SOL    HW279681  13.283   3.466  13.153
25948SOL     OW79682   2.275  13.595  14.609
25948SOL    HW179683   2.183  13.613  14.628
25948SOL    HW279684   2.313  13.681  14.592
25949SOL     OW79685  11.283   7.102   7.270
25949SOL    HW179686  11.331   7.031   7.312
25949SOL    HW279687  11.191   7.080   7.284
25950SOL     OW79688   9.862  11.801  13.826
25950SOL    HW179689   9.956  11.806  13.843
25950SOL    HW279690   9.834  11.893  13.820
25951SOL     OW79691   1.063  11.558   8.067
25951SOL    HW179692   0.968  11.569   8.069
25951SOL    HW279693   1.088  11.582   7.977
25952SOL     OW79694   0.683   8.035   2.022
25952SOL    HW179695   0.628   7.958   2.039
25952SOL    HW279696   0.758   8.002   1.973
25953SOL     OW79697  11.265  11.650  12.516
25953SOL    HW179698  11.230  11.648  12.605
25953SOL    HW279699  11.221  11.578  12.472
25954SOL     OW79700  13.862  14.329  10.991
25954SOL    HW179701  13.930  14.348  10.926
25954SOL    HW279702  13.806  14.407  10.989
25955SOL     OW79703  14.656   5.991   4.310
25955SOL    HW179704  14.618   5.982   4.398
25955SOL    HW279705  14.586   6.029   4.257
25956SOL     OW79706   4.768   7.608   9.432
25956SOL    HW179707   4.747   7.569   9.517
25956SOL    HW279708   4.751   7.538   9.369
25957SOL     OW79709  14.611   8.285  11.239
25957SOL    HW179710  14.655   8.203  11.264
25957SOL    HW279711  14.683   8.345  11.218
25958SOL     OW79712   9.458  11.509  11.398
25958SOL    HW179713   9.546  11.497  11.433
25958SOL    HW279714   9.471  11.534  11.307
25959SOL     OW79715  13.774  13.441  13.654
25959SOL    HW179716  13.851  13.411  13.702
25959SOL    HW279717  13.759  13.530  13.687
25960SOL     OW79718   1.924   2.408   6.987
25960SOL    HW179719   1.961   2.444   6.907
25960SOL    HW279720   1.975   2.447   7.058
25961SOL     OW79721   4.727   4.307   5.015
25961SOL    HW179722   4.683   4.234   5.060
25961SOL    HW279723   4.790   4.264   4.956
25962SOL     OW79724   0.034   6.036  14.073
25962SOL    HW179725   0.101   6.058  14.138
25962SOL    HW279726  14.846   6.106  14.081
25963SOL     OW79727  10.648   1.105   3.634
25963SOL    HW179728  10.655   1.049   3.557
25963SOL    HW279729  10.556   1.130   3.637
25964SOL     OW79730  10.083   9.254  13.214
25964SOL    HW179731  10.021   9.324  13.196
25964SOL    HW279732  10.099   9.212  13.129
25965SOL     OW79733   2.899   1.736   9.208
25965SOL    HW179734   2.993   1.741   9.229
25965SOL    HW279735   2.885   1.808   9.146
25966SOL     OW79736  14.390  12.985   0.669
25966SOL    HW179737  14.301  13.010   0.644
25966SOL    HW279738  14.378  12.918   0.737
25967SOL     OW79739   4.488  10.544   4.118
25967SOL    HW179740   4.464  10.451   4.111
25967SOL    HW279741   4.575  10.543   4.157
25968SOL     OW79742   7.319   6.949   1.721
25968SOL    HW179743   7.229   6.958   1.690
25968SOL    HW279744   7.361   6.891   1.658
25969SOL     OW79745   6.041   6.706  14.040
25969SOL    HW179746   6.088   6.630  14.072
25969SOL    HW279747   6.059   6.775  14.103
25970SOL     OW79748   8.044   4.177   2.371
25970SOL    HW179749   8.076   4.248   2.427
25970SOL    HW279750   8.123   4.137   2.336
25971SOL     OW79751   6.633   9.781  12.103
25971SOL    HW179752   6.656   9.807  12.192
25971SOL    HW279753   6.704   9.723  12.076
25972SOL     OW79754   6.409   2.701  14.568
25972SOL    HW179755   6.375   2.625  14.522
25972SOL    HW279756   6.333   2.756  14.585
25973SOL     OW79757   0.174  12.211   2.628
25973SOL    HW179758   0.084  12.244   2.626
25973SOL    HW279759   0.172  12.133   2.572
25974SOL     OW79760   8.951   7.640   1.172
25974SOL    HW179761   8.908   7.557   1.153
25974SOL    HW279762   9.006   7.657   1.096
25975SOL     OW79763   0.964   7.730   0.873
25975SOL    HW179764   0.874   7.750   0.847
25975SOL    HW279765   0.955   7.665   0.942
25976SOL     OW79766  10.911   8.580   2.940
25976SOL    HW179767  10.885   8.581   2.847
25976SOL    HW279768  10.839   8.535   2.984
25977SOL     OW79769  12.036  12.379   0.615
25977SOL    HW179770  12.002  12.293   0.588
25977SOL    HW279771  12.106  12.358   0.677
25978SOL     OW79772   8.369   3.332   2.626
25978SOL    HW179773   8.392   3.315   2.718
25978SOL    HW279774   8.434   3.283   2.576
25979SOL     OW79775   2.316   5.867  12.496
25979SOL    HW179776   2.251   5.935  12.479
25979SOL    HW279777   2.396   5.899  12.454
25980SOL     OW79778   4.523   9.891   4.390
25980SOL    HW179779   4.509   9.940   4.308
25980SOL    HW279780   4.568   9.811   4.363
25981SOL     OW79781   9.009   7.470   5.303
25981SOL    HW179782   8.977   7.552   5.266
25981SOL    HW279783   9.040   7.495   5.391
25982SOL     OW79784   7.580   7.644  12.774
25982SOL    HW179785   7.520   7.653  12.848
25982SOL    HW279786   7.663   7.680  12.805
25983SOL     OW79787  13.981  13.650   6.919
25983SOL    HW179788  14.019  13.704   6.851
25983SOL    HW279789  13.914  13.598   6.874
25984SOL     OW79790   5.705  10.371   7.490
25984SOL    HW179791   5.695  10.318   7.569
25984SOL    HW279792   5.738  10.455   7.522
25985SOL     OW79793  10.465   2.782   3.503
25985SOL    HW179794  10.495   2.828   3.425
25985SOL    HW279795  10.534   2.717   3.520
25986SOL     OW79796   1.730   9.345   4.745
25986SOL    HW179797   1.806   9.319   4.797
25986SOL    HW279798   1.767   9.374   4.661
25987SOL     OW79799   5.896   5.339  12.798
25987SOL    HW179800   5.848   5.399  12.854
25987SOL    HW279801   5.967   5.392  12.761
25988SOL     OW79802  12.389  10.768   5.289
25988SOL    HW179803  12.474  10.761   5.333
25988SOL    HW279804  12.356  10.678   5.286
25989SOL     OW79805  11.660  10.841   5.705
25989SOL    HW179806  11.565  10.844   5.722
25989SOL    HW279807  11.699  10.886   5.779
25990SOL     OW79808   6.939   6.604   2.444
25990SOL    HW179809   7.020   6.653   2.455
25990SOL    HW279810   6.927   6.558   2.527
25991SOL     OW79811   5.586  12.100   9.881
25991SOL    HW179812   5.669  12.058   9.905
25991SOL    HW279813   5.535  12.031   9.839
25992SOL     OW79814  12.261   9.904  12.399
25992SOL    HW179815  12.227   9.985  12.361
25992SOL    HW279816  12.304   9.859  12.326
25993SOL     OW79817  10.055   0.551   6.716
25993SOL    HW179818   9.971   0.597   6.707
25993SOL    HW279819  10.079   0.528   6.627
25994SOL     OW79820   6.417  14.133   1.446
25994SOL    HW179821   6.374  14.217   1.462
25994SOL    HW279822   6.485  14.127   1.513
25995SOL     OW79823   6.667   4.931   7.675
25995SOL    HW179824   6.673   4.845   7.634
25995SOL    HW279825   6.574   4.939   7.701
25996SOL     OW79826   5.313  12.086   1.336
25996SOL    HW179827   5.396  12.048   1.310
25996SOL    HW279828   5.285  12.138   1.260
25997SOL     OW79829  11.450  12.515   5.594
25997SOL    HW179830  11.392  12.571   5.645
25997SOL    HW279831  11.438  12.428   5.630
25998SOL     OW79832   3.930  10.546   3.760
25998SOL    HW179833   3.966  10.621   3.713
25998SOL    HW279834   3.856  10.582   3.809
25999SOL     OW79835  12.346  14.312  12.795
25999SOL    HW179836  12.370  14.402  12.815
25999SOL    HW279837  12.339  14.270  12.881
26000SOL     OW79838  11.945   7.296  14.451
26000SOL    HW179839  11.902   7.379  14.471
26000SOL    HW279840  11.979   7.308  14.362
26001SOL     OW79841  10.696   5.958   5.966
26001SOL    HW179842  10.753   5.924   5.897
26001SOL    HW279843  10.756   5.976   6.039
26002SOL     OW79844  13.538   0.938   2.752
26002SOL    HW179845  13.577   0.951   2.665
26002SOL    HW279846  13.609   0.902   2.805
26003SOL     OW79847  11.997   0.930   5.594
26003SOL    HW179848  11.953   0.846   5.585
26003SOL    HW279849  11.938   0.993   5.552
26004SOL     OW79850   4.073   1.420  11.979
26004SOL    HW179851   4.055   1.333  11.942
26004SOL    HW279852   4.116   1.467  11.908
26005SOL     OW79853  12.544  14.582   4.948
26005SOL    HW179854  12.535  14.672   4.980
26005SOL    HW279855  12.602  14.539   5.011
26006SOL     OW79856  11.117   1.156   9.668
26006SOL    HW179857  11.140   1.067   9.694
26006SOL    HW279858  11.170   1.173   9.591
26007SOL     OW79859   7.231   0.189   1.153
26007SOL    HW179860   7.146   0.149   1.174
26007SOL    HW279861   7.220   0.282   1.174
26008SOL     OW79862  12.481   1.743   1.019
26008SOL    HW179863  12.473   1.830   1.059
26008SOL    HW279864  12.543   1.756   0.948
26009SOL     OW79865   9.512   3.592  12.472
26009SOL    HW179866   9.468   3.613  12.389
26009SOL    HW279867   9.599   3.563  12.445
26010SOL     OW79868  11.372   9.554   3.691
26010SOL    HW179869  11.466   9.540   3.683
26010SOL    HW279870  11.342   9.568   3.602
26011SOL     OW79871  11.277   5.334   8.362
26011SOL    HW179872  11.212   5.361   8.297
26011SOL    HW279873  11.228   5.277   8.422
26012SOL     OW79874  10.244  11.274   0.755
26012SOL    HW179875  10.305  11.318   0.814
26012SOL    HW279876  10.157  11.306   0.781
26013SOL     OW79877   5.667   5.912  12.141
26013SOL    HW179878   5.746   5.866  12.113
26013SOL    HW279879   5.691   5.951  12.225
26014SOL     OW79880   0.954  12.208   8.309
26014SOL    HW179881   0.975  12.246   8.223
26014SOL    HW279882   0.896  12.135   8.289
26015SOL     OW79883  11.250   2.369   8.189
26015SOL    HW179884  11.264   2.410   8.274
26015SOL    HW279885  11.338   2.357   8.153
26016SOL     OW79886   4.651   2.248   6.495
26016SOL    HW179887   4.674   2.283   6.409
26016SOL    HW279888   4.560   2.272   6.508
26017SOL     OW79889  13.700  11.633   7.721
26017SOL    HW179890  13.646  11.679   7.785
26017SOL    HW279891  13.750  11.702   7.677
26018SOL     OW79892  13.198  13.589   1.312
26018SOL    HW179893  13.193  13.570   1.406
26018SOL    HW279894  13.138  13.527   1.271
26019SOL     OW79895  13.938   1.892   5.704
26019SOL    HW179896  13.919   1.963   5.766
26019SOL    HW279897  13.853   1.850   5.690
26020SOL     OW79898   7.451   4.698   2.918
26020SOL    HW179899   7.407   4.773   2.877
26020SOL    HW279900   7.383   4.631   2.924
26021SOL     OW79901  13.772   8.669   6.322
26021SOL    HW179902  13.791   8.642   6.411
26021SOL    HW279903  13.803   8.597   6.267
26022SOL     OW79904   8.896  13.449   6.307
26022SOL    HW179905   8.813  13.402   6.303
26022SOL    HW279906   8.903  13.492   6.222
26023SOL     OW79907  14.433   4.187  11.884
26023SOL    HW179908  14.514   4.161  11.928
26023SOL    HW279909  14.382   4.232  11.951
26024SOL     OW79910  11.712  14.870  12.746
26024SOL    HW179911  11.756  14.852  12.828
26024SOL    HW279912  11.638  14.809  12.744
26025SOL     OW79913   1.198   1.010   2.136
26025SOL    HW179914   1.107   0.987   2.115
26025SOL    HW279915   1.208   0.982   2.227
26026SOL     OW79916   1.138   0.645   5.255
26026SOL    HW179917   1.052   0.677   5.282
26026SOL    HW279918   1.123   0.602   5.171
26027SOL     OW79919   8.002   4.880  14.036
26027SOL    HW179920   8.074   4.916  14.088
26027SOL    HW279921   8.033   4.885  13.946
26028SOL     OW79922   8.987  13.800   5.800
26028SOL    HW179923   8.976  13.788   5.895
26028SOL    HW279924   9.023  13.717   5.770
26029SOL     OW79925  11.869   8.754   6.983
26029SOL    HW179926  11.806   8.707   7.037
26029SOL    HW279927  11.914   8.812   7.044
26030SOL     OW79928  13.279   0.103   7.001
26030SOL    HW179929  13.323   0.105   7.086
26030SOL    HW279930  13.185   0.108   7.022
26031SOL     OW79931   7.244   0.502  10.786
26031SOL    HW179932   7.304   0.573  10.763
26031SOL    HW279933   7.217   0.521  10.876
26032SOL     OW79934   1.004  11.718   8.833
26032SOL    HW179935   1.092  11.682   8.847
26032SOL    HW279936   0.990  11.709   8.738
26033SOL     OW79937  11.979   7.810   4.423
26033SOL    HW179938  12.039   7.739   4.447
26033SOL    HW279939  11.941   7.782   4.340
26034SOL     OW79940   7.797   5.872   6.437
26034SOL    HW179941   7.790   5.964   6.463
26034SOL    HW279942   7.892   5.855   6.436
26035SOL     OW79943  12.030   3.584   3.712
26035SOL    HW179944  12.005   3.636   3.635
26035SOL    HW279945  11.951   3.535   3.735
26036SOL     OW79946   0.666   7.112  11.330
26036SOL    HW179947   0.741   7.052  11.325
26036SOL    HW279948   0.692   7.187  11.276
26037SOL     OW79949   0.900  14.317   0.197
26037SOL    HW179950   0.899  14.406   0.232
26037SOL    HW279951   0.810  14.300   0.169
26038SOL     OW79952   2.945   4.705   2.772
26038SOL    HW179953   2.856   4.711   2.805
26038SOL    HW279954   2.995   4.667   2.845
26039SOL     OW79955   3.101   5.013  13.096
26039SOL    HW179956   3.176   5.020  13.155
26039SOL    HW279957   3.078   4.920  13.098
26040SOL     OW79958  14.490   8.987   0.981
26040SOL    HW179959  14.501   9.003   1.075
26040SOL    HW279960  14.396   8.997   0.966
26041SOL     OW79961   2.319   2.506   0.693
26041SOL    HW179962   2.406   2.490   0.730
26041SOL    HW279963   2.287   2.583   0.740
26042SOL     OW79964  14.862   9.269   6.176
26042SOL    HW179965  14.810   9.270   6.096
26042SOL    HW279966  14.800   9.292   6.245
26043SOL     OW79967  12.705   4.367  10.287
26043SOL    HW179968  12.646   4.394  10.217
26043SOL    HW279969  12.663   4.398  10.368
26044SOL     OW79970  11.809  14.797   4.662
26044SOL    HW179971  11.800  14.865   4.728
26044SOL    HW279972  11.820  14.845   4.580
26045SOL     OW79973   0.156   9.372   4.517
26045SOL    HW179974   0.138   9.398   4.608
26045SOL    HW279975   0.085   9.410   4.467
26046SOL     OW79976   5.460   4.869   4.923
26046SOL    HW179977   5.373   4.853   4.957
26046SOL    HW279978   5.499   4.782   4.912
26047SOL     OW79979  13.514  12.849   4.100
26047SOL    HW179980  13.565  12.775   4.133
26047SOL    HW279981  13.508  12.834   4.006
26048SOL     OW79982   2.723   7.482  14.533
26048SOL    HW179983   2.711   7.432  14.613
26048SOL    HW279984   2.800   7.537  14.550
26049SOL     OW79985  13.254   7.300   1.290
26049SOL    HW179986  13.166   7.263   1.292
26049SOL    HW279987  13.241   7.392   1.312
26050SOL     OW79988  13.744   4.009   3.388
26050SOL    HW179989  13.664   4.051   3.357
26050SOL    HW279990  13.727   3.989   3.480
26051SOL     OW79991   6.845  13.025   4.404
26051SOL    HW179992   6.936  13.055   4.403
26051SOL    HW279993   6.850  12.938   4.445
26052SOL     OW79994   9.354  11.552   7.700
26052SOL    HW179995   9.394  11.635   7.674
26052SOL    HW279996   9.314  11.518   7.620
26053SOL     OW79997  13.282  11.276   3.543
26053SOL    HW179998  13.209  11.216   3.560
26053SOL    HW279999  13.318  11.295   3.629
26054SOL     OW80000   4.101   2.852   9.652
26054SOL    HW180001   4.128   2.819   9.738
26054SOL    HW280002   4.010   2.825   9.644
26055SOL     OW80003   4.816   6.636   9.677
26055SOL    HW180004   4.858   6.638   9.591
26055SOL    HW280005   4.878   6.590   9.733
26056SOL     OW80006  11.137  10.474   1.663
26056SOL    HW180007  11.044  10.467   1.683
26056SOL    HW280008  11.179  10.486   1.748
26057SOL     OW80009   2.660   5.259  12.155
26057SOL    HW180010   2.682   5.352  12.156
26057SOL    HW280011   2.684   5.230  12.067
26058SOL     OW80012   3.331   5.194   7.821
26058SOL    HW180013   3.326   5.280   7.862
26058SOL    HW280014   3.317   5.211   7.728
26059SOL     OW80015   2.831   2.644   2.646
26059SOL    HW180016   2.810   2.679   2.732
26059SOL    HW280017   2.762   2.678   2.589
26060SOL     OW80018  13.748  10.949   8.528
26060SOL    HW180019  13.689  11.022   8.506
26060SOL    HW280020  13.690  10.874   8.536
26061SOL     OW80021  14.538   6.017   1.429
26061SOL    HW180022  14.575   5.943   1.477
26061SOL    HW280023  14.488   5.977   1.357
26062SOL     OW80024   1.577   7.715   5.611
26062SOL    HW180025   1.486   7.727   5.583
26062SOL    HW280026   1.619   7.798   5.589
26063SOL     OW80027   9.010   9.793   4.225
26063SOL    HW180028   9.076   9.756   4.284
26063SOL    HW280029   9.042   9.774   4.137
26064SOL     OW80030  14.135   7.713  10.921
26064SOL    HW180031  14.100   7.729  10.833
26064SOL    HW280032  14.070   7.754  10.980
26065SOL     OW80033  12.292   1.937   8.374
26065SOL    HW180034  12.297   1.989   8.294
26065SOL    HW280035  12.290   1.846   8.344
26066SOL     OW80036   4.053   7.337   8.873
26066SOL    HW180037   4.061   7.411   8.814
26066SOL    HW280038   4.038   7.262   8.815
26067SOL     OW80039   1.438   0.868  11.412
26067SOL    HW180040   1.355   0.831  11.442
26067SOL    HW280041   1.502   0.843  11.478
26068SOL     OW80042  12.885   3.611  14.262
26068SOL    HW180043  12.813   3.577  14.210
26068SOL    HW280044  12.846   3.676  14.319
26069SOL     OW80045   4.129  12.521   3.249
26069SOL    HW180046   4.109  12.612   3.271
26069SOL    HW280047   4.055  12.471   3.282
26070SOL     OW80048  12.691   6.801   0.663
26070SOL    HW180049  12.761   6.737   0.671
26070SOL    HW280050  12.697   6.832   0.573
26071SOL     OW80051   8.957  12.035  14.366
26071SOL    HW180052   8.930  12.014  14.455
26071SOL    HW280053   9.047  12.003  14.360
26072SOL     OW80054  14.627   8.447   3.229
26072SOL    HW180055  14.560   8.500   3.273
26072SOL    HW280056  14.673   8.403   3.301
26073SOL     OW80057  13.226  10.454  12.430
26073SOL    HW180058  13.239  10.360  12.416
26073SOL    HW280059  13.206  10.489  12.343
26074SOL     OW80060   9.459  11.079   9.129
26074SOL    HW180061   9.429  11.058   9.040
26074SOL    HW280062   9.378  11.087   9.180
26075SOL     OW80063   8.177  14.796   6.241
26075SOL    HW180064   8.094  14.844   6.240
26075SOL    HW280065   8.155  14.711   6.278
26076SOL     OW80066  12.712  14.076   4.529
26076SOL    HW180067  12.674  13.989   4.518
26076SOL    HW280068  12.733  14.081   4.623
26077SOL     OW80069   7.058   9.855   8.569
26077SOL    HW180070   7.133   9.904   8.535
26077SOL    HW280071   7.019   9.913   8.635
26078SOL     OW80072   1.612  12.198   8.913
26078SOL    HW180073   1.687  12.250   8.885
26078SOL    HW280074   1.568  12.252   8.978
26079SOL     OW80075  13.659   0.370   3.230
26079SOL    HW180076  13.708   0.299   3.189
26079SOL    HW280077  13.685   0.367   3.322
26080SOL     OW80078  10.901   4.535   7.792
26080SOL    HW180079  10.984   4.511   7.749
26080SOL    HW280080  10.839   4.545   7.720
26081SOL     OW80081   3.937  11.542  13.748
26081SOL    HW180082   4.021  11.501  13.728
26081SOL    HW280083   3.891  11.477  13.801
26082SOL     OW80084  10.473  12.765   4.339
26082SOL    HW180085  10.557  12.798   4.309
26082SOL    HW280086  10.409  12.826   4.303
26083SOL     OW80087   0.565   8.601   6.591
26083SOL    HW180088   0.634   8.653   6.633
26083SOL    HW280089   0.485   8.652   6.605
26084SOL     OW80090  13.042  11.676   3.146
26084SOL    HW180091  12.974  11.615   3.117
26084SOL    HW280092  13.088  11.628   3.215
26085SOL     OW80093   3.611   3.497  11.945
26085SOL    HW180094   3.692   3.527  11.986
26085SOL    HW280095   3.590   3.564  11.879
26086SOL     OW80096   7.205   1.238  10.331
26086SOL    HW180097   7.186   1.315  10.384
26086SOL    HW280098   7.129   1.181  10.342
26087SOL     OW80099   6.688   0.529   9.919
26087SOL    HW180100   6.747   0.454   9.923
26087SOL    HW280101   6.612   0.498   9.871
26088SOL     OW80102   6.282   5.488   3.421
26088SOL    HW180103   6.290   5.577   3.386
26088SOL    HW280104   6.225   5.443   3.359
26089SOL     OW80105   2.092  14.760  10.144
26089SOL    HW180106   2.029  14.691  10.124
26089SOL    HW280107   2.086  14.770  10.239
26090SOL     OW80108   5.727   7.794   6.070
26090SOL    HW180109   5.644   7.782   6.023
26090SOL    HW280110   5.775   7.859   6.019
26091SOL     OW80111   8.312   4.560   7.477
26091SOL    HW180112   8.389   4.615   7.462
26091SOL    HW280113   8.267   4.558   7.393
26092SOL     OW80114   3.565   1.005  10.691
26092SOL    HW180115   3.489   0.949  10.701
26092SOL    HW280116   3.529   1.093  10.677
26093SOL     OW80117   6.566   1.068   3.905
26093SOL    HW180118   6.482   1.060   3.860
26093SOL    HW280119   6.546   1.049   3.997
26094SOL     OW80120  10.342   9.868   5.994
26094SOL    HW180121  10.296   9.847   6.075
26094SOL    HW280122  10.328   9.962   5.981
26095SOL     OW80123   6.863  14.008   7.291
26095SOL    HW180124   6.777  13.978   7.262
26095SOL    HW280125   6.855  14.014   7.387
26096SOL     OW80126   4.411   8.727   3.683
26096SOL    HW180127   4.485   8.696   3.735
26096SOL    HW280128   4.439   8.716   3.592
26097SOL     OW80129   6.279   6.107   4.070
26097SOL    HW180130   6.285   6.202   4.061
26097SOL    HW280131   6.290   6.090   4.163
26098SOL     OW80132  13.728   3.375  14.238
26098SOL    HW180133  13.823   3.387  14.243
26098SOL    HW280134  13.710   3.369  14.145
26099SOL     OW80135  13.674  14.063   9.280
26099SOL    HW180136  13.592  14.016   9.295
26099SOL    HW280137  13.650  14.156   9.282
26100SOL     OW80138  10.278   3.075   7.313
26100SOL    HW180139  10.288   3.001   7.372
26100SOL    HW280140  10.294   3.039   7.226
26101SOL     OW80141  12.399   1.079  14.672
26101SOL    HW180142  12.310   1.089  14.704
26101SOL    HW280143  12.440   1.017  14.732
26102SOL     OW80144  13.408   4.694   6.950
26102SOL    HW180145  13.367   4.775   6.980
26102SOL    HW280146  13.476   4.676   7.014
26103SOL     OW80147   7.574   5.707   8.013
26103SOL    HW180148   7.628   5.786   8.012
26103SOL    HW280149   7.623   5.645   8.068
26104SOL     OW80150  13.462   0.821   8.770
26104SOL    HW180151  13.374   0.804   8.734
26104SOL    HW280152  13.461   0.913   8.793
26105SOL     OW80153  12.650   7.947  10.282
26105SOL    HW180154  12.734   7.974  10.320
26105SOL    HW280155  12.631   8.013  10.215
26106SOL     OW80156  11.503   4.000  11.597
26106SOL    HW180157  11.435   3.992  11.530
26106SOL    HW280158  11.582   3.965  11.556
26107SOL     OW80159   8.901   2.483  14.621
26107SOL    HW180160   8.832   2.436  14.576
26107SOL    HW280161   8.977   2.425  14.616
26108SOL     OW80162   3.011  10.236  10.695
26108SOL    HW180163   3.023  10.269  10.605
26108SOL    HW280164   3.002  10.141  10.685
26109SOL     OW80165   5.405   8.183   5.297
26109SOL    HW180166   5.310   8.179   5.300
26109SOL    HW280167   5.425   8.251   5.233
26110SOL     OW80168   4.476  11.747  12.015
26110SOL    HW180169   4.484  11.655  11.992
26110SOL    HW280170   4.557  11.768  12.063
26111SOL     OW80171  10.219   3.384   7.603
26111SOL    HW180172  10.276   3.369   7.528
26111SOL    HW280173  10.138   3.417   7.566
26112SOL     OW80174   4.101  12.241  13.254
26112SOL    HW180175   4.130  12.325  13.290
26112SOL    HW280176   4.046  12.204  13.323
26113SOL     OW80177   2.291   4.762   3.184
26113SOL    HW180178   2.209   4.785   3.228
26113SOL    HW280179   2.291   4.815   3.105
26114SOL     OW80180   1.328  12.146  12.205
26114SOL    HW180181   1.248  12.158  12.257
26114SOL    HW280182   1.398  12.143  12.270
26115SOL     OW80183   1.214  14.236   0.844
26115SOL    HW180184   1.213  14.191   0.760
26115SOL    HW280185   1.236  14.326   0.823
26116SOL     OW80186  13.996   8.181   4.140
26116SOL    HW180187  13.926   8.209   4.199
26116SOL    HW280188  13.987   8.237   4.063
26117SOL     OW80189   4.282   8.132   9.999
26117SOL    HW180190   4.274   8.099   9.909
26117SOL    HW280191   4.254   8.224   9.994
26118SOL     OW80192   6.198   9.655  13.100
26118SOL    HW180193   6.233   9.569  13.075
26118SOL    HW280194   6.262   9.717  13.067
26119SOL     OW80195   2.331   8.936  11.228
26119SOL    HW180196   2.359   8.887  11.151
26119SOL    HW280197   2.319   9.025  11.197
26120SOL     OW80198   5.403   8.114  14.249
26120SOL    HW180199   5.469   8.184  14.250
26120SOL    HW280200   5.448   8.039  14.287
26121SOL     OW80201  12.531  14.256  10.771
26121SOL    HW180202  12.494  14.172  10.745
26121SOL    HW280203  12.624  14.239  10.787
26122SOL     OW80204  12.824  12.359   8.026
26122SOL    HW180205  12.870  12.406   7.957
26122SOL    HW280206  12.738  12.401   8.031
26123SOL     OW80207  11.757   2.102  11.469
26123SOL    HW180208  11.781   2.147  11.388
26123SOL    HW280209  11.784   2.011  11.455
26124SOL     OW80210  12.167  12.493  11.559
26124SOL    HW180211  12.214  12.508  11.477
26124SOL    HW280212  12.220  12.427  11.605
26125SOL     OW80213  11.227   5.841   1.806
26125SOL    HW180214  11.160   5.845   1.874
26125SOL    HW280215  11.224   5.926   1.763
26126SOL     OW80216   6.480  14.358   3.300
26126SOL    HW180217   6.419  14.295   3.339
26126SOL    HW280218   6.560  14.349   3.352
26127SOL     OW80219  12.457   0.882   5.237
26127SOL    HW180220  12.524   0.921   5.293
26127SOL    HW280221  12.506   0.834   5.171
26128SOL     OW80222   0.500   7.857  12.938
26128SOL    HW180223   0.487   7.771  12.979
26128SOL    HW280224   0.422   7.907  12.961
26129SOL     OW80225   8.005  11.006   9.806
26129SOL    HW180226   7.997  11.094   9.841
26129SOL    HW280227   8.098  10.985   9.816
26130SOL     OW80228   2.756   2.326   6.914
26130SOL    HW180229   2.721   2.329   6.825
26130SOL    HW280230   2.679   2.331   6.971
26131SOL     OW80231   2.319   8.216   9.028
26131SOL    HW180232   2.245   8.158   9.013
26131SOL    HW280233   2.395   8.165   9.001
26132SOL     OW80234   8.789  11.065   2.905
26132SOL    HW180235   8.742  10.984   2.885
26132SOL    HW280236   8.724  11.134   2.894
26133SOL     OW80237   4.435   8.617   4.991
26133SOL    HW180238   4.481   8.589   4.912
26133SOL    HW280239   4.501   8.664   5.042
26134SOL     OW80240  13.535  10.154  11.847
26134SOL    HW180241  13.587  10.203  11.911
26134SOL    HW280242  13.598  10.096  11.804
26135SOL     OW80243   7.787  10.075   6.567
26135SOL    HW180244   7.782  10.092   6.473
26135SOL    HW280245   7.811   9.983   6.574
26136SOL     OW80246   4.152  13.621  14.313
26136SOL    HW180247   4.093  13.690  14.283
26136SOL    HW280248   4.094  13.547  14.334
26137SOL     OW80249   3.454   3.381   8.234
26137SOL    HW180250   3.413   3.440   8.297
26137SOL    HW280251   3.531   3.347   8.279
26138SOL     OW80252   6.461  11.749   2.064
26138SOL    HW180253   6.514  11.812   2.015
26138SOL    HW280254   6.460  11.671   2.009
26139SOL     OW80255   1.445  10.288  12.376
26139SOL    HW180256   1.420  10.370  12.418
26139SOL    HW280257   1.501  10.315  12.303
26140SOL     OW80258   3.153   4.603  13.343
26140SOL    HW180259   3.063   4.604  13.376
26140SOL    HW280260   3.144   4.584  13.249
26141SOL     OW80261   6.897   4.201  14.792
26141SOL    HW180262   6.916   4.195  14.698
26141SOL    HW280263   6.803   4.216  14.797
26142SOL     OW80264   1.865  12.761  11.549
26142SOL    HW180265   1.923  12.792  11.480
26142SOL    HW280266   1.920  12.700  11.600
26143SOL     OW80267   8.631   0.857   1.096
26143SOL    HW180268   8.616   0.951   1.109
26143SOL    HW280269   8.625   0.819   1.184
26144SOL     OW80270  12.348  11.211   7.636
26144SOL    HW180271  12.328  11.214   7.543
26144SOL    HW280272  12.411  11.281   7.650
26145SOL     OW80273   9.021   1.833   5.312
26145SOL    HW180274   8.996   1.783   5.235
26145SOL    HW280275   9.077   1.903   5.279
26146SOL     OW80276   7.371   4.693  14.182
26146SOL    HW180277   7.281   4.725  14.185
26146SOL    HW280278   7.369   4.623  14.117
26147SOL     OW80279   2.839   7.743   0.981
26147SOL    HW180280   2.935   7.739   0.987
26147SOL    HW280281   2.811   7.777   1.066
26148SOL     OW80282   4.945   4.862   9.015
26148SOL    HW180283   5.029   4.864   9.062
26148SOL    HW280284   4.916   4.771   9.022
26149SOL     OW80285   8.414  14.502   9.156
26149SOL    HW180286   8.401  14.440   9.228
26149SOL    HW280287   8.326  14.523   9.125
26150SOL     OW80288  14.603   8.778   5.091
26150SOL    HW180289  14.610   8.873   5.105
26150SOL    HW280290  14.601   8.741   5.179
26151SOL     OW80291   2.571   4.301   8.188
26151SOL    HW180292   2.536   4.390   8.192
26151SOL    HW280293   2.531   4.263   8.110
26152SOL     OW80294   4.337   1.537  12.054
26152SOL    HW180295   4.280   1.543  11.978
26152SOL    HW280296   4.398   1.611  12.045
26153SOL     OW80297  10.920   2.326   3.169
26153SOL    HW180298  10.960   2.280   3.243
26153SOL    HW280299  10.901   2.413   3.204
26154SOL     OW80300   4.278   4.429   2.293
26154SOL    HW180301   4.311   4.354   2.343
26154SOL    HW280302   4.343   4.498   2.306
26155SOL     OW80303   0.115  10.958  10.202
26155SOL    HW180304   0.082  10.904  10.131
26155SOL    HW280305   0.201  10.988  10.171
26156SOL     OW80306   7.213   9.260   5.684
26156SOL    HW180307   7.177   9.185   5.731
26156SOL    HW280308   7.143   9.325   5.686
26157SOL     OW80309   8.623   2.472   2.319
26157SOL    HW180310   8.690   2.436   2.378
26157SOL    HW280311   8.612   2.563   2.348
26158SOL     OW80312   0.686   8.502   4.766
26158SOL    HW180313   0.687   8.536   4.677
26158SOL    HW280314   0.628   8.560   4.814
26159SOL     OW80315   5.571   1.896  10.948
26159SOL    HW180316   5.586   1.821  11.006
26159SOL    HW280317   5.658   1.930  10.929
26160SOL     OW80318   4.483  11.816  14.284
26160SOL    HW180319   4.557  11.858  14.241
26160SOL    HW280320   4.520  11.741  14.330
26161SOL     OW80321  10.725   1.545   4.013
26161SOL    HW180322  10.643   1.591   4.027
26161SOL    HW280323  10.704   1.453   4.031
26162SOL     OW80324   5.501   3.814   8.005
26162SOL    HW180325   5.564   3.810   8.076
26162SOL    HW280326   5.483   3.722   7.983
26163SOL     OW80327  11.142   0.952   4.493
26163SOL    HW180328  11.182   1.033   4.463
26163SOL    HW280329  11.215   0.894   4.510
26164SOL     OW80330   3.040  10.786   8.779
26164SOL    HW180331   3.036  10.788   8.874
26164SOL    HW280332   3.133  10.796   8.758
26165SOL     OW80333   2.065   6.183   4.466
26165SOL    HW180334   2.141   6.203   4.521
26165SOL    HW280335   2.100   6.137   4.391
26166SOL     OW80336   3.026   2.312   1.482
26166SOL    HW180337   3.027   2.408   1.493
26166SOL    HW280338   2.937   2.287   1.507
26167SOL     OW80339  14.490   3.847   9.292
26167SOL    HW180340  14.408   3.824   9.249
26167SOL    HW280341  14.544   3.884   9.222
26168SOL     OW80342  14.184   0.321   6.000
26168SOL    HW180343  14.222   0.393   6.049
26168SOL    HW280344  14.252   0.254   6.000
26169SOL     OW80345   1.124   6.663   1.542
26169SOL    HW180346   1.169   6.619   1.469
26169SOL    HW280347   1.035   6.630   1.538
26170SOL     OW80348   2.861   6.582   1.942
26170SOL    HW180349   2.876   6.495   1.979
26170SOL    HW280350   2.840   6.637   2.018
26171SOL     OW80351   8.638  12.403  12.000
26171SOL    HW180352   8.666  12.483  12.046
26171SOL    HW280353   8.639  12.427  11.908
26172SOL     OW80354   0.852   4.187  12.370
26172SOL    HW180355   0.925   4.125  12.366
26172SOL    HW280356   0.803   4.160  12.447
26173SOL     OW80357  11.911   2.436   1.276
26173SOL    HW180358  11.857   2.516   1.281
26173SOL    HW280359  11.921   2.409   1.367
26174SOL     OW80360   1.904   1.223   1.273
26174SOL    HW180361   1.847   1.233   1.350
26174SOL    HW280362   1.844   1.214   1.199
26175SOL     OW80363   8.707   5.242   5.513
26175SOL    HW180364   8.639   5.176   5.511
26175SOL    HW280365   8.704   5.277   5.602
26176SOL     OW80366   8.503   5.688   3.906
26176SOL    HW180367   8.521   5.772   3.863
26176SOL    HW280368   8.500   5.625   3.834
26177SOL     OW80369   0.838  13.837   9.240
26177SOL    HW180370   0.895  13.768   9.274
26177SOL    HW280371   0.750  13.807   9.259
26178SOL     OW80372   0.786   0.977   9.235
26178SOL    HW180373   0.861   0.918   9.227
26178SOL    HW280374   0.807   1.051   9.177
26179SOL     OW80375   5.173   3.172   4.752
26179SOL    HW180376   5.210   3.155   4.839
26179SOL    HW280377   5.201   3.261   4.731
26180SOL     OW80378  10.554  10.808   4.742
26180SOL    HW180379  10.611  10.867   4.791
26180SOL    HW280380  10.580  10.720   4.771
26181SOL     OW80381  12.272   9.331  11.582
26181SOL    HW180382  12.353   9.286  11.607
26181SOL    HW280383  12.228   9.269  11.523
26182SOL     OW80384   1.627   7.027  13.777
26182SOL    HW180385   1.605   6.960  13.713
26182SOL    HW280386   1.668   6.980  13.850
26183SOL     OW80387  13.812   6.244   0.597
26183SOL    HW180388  13.857   6.327   0.610
26183SOL    HW280389  13.866   6.198   0.533
26184SOL     OW80390   9.254   2.626   3.402
26184SOL    HW180391   9.290   2.565   3.466
26184SOL    HW280392   9.295   2.602   3.319
26185SOL     OW80393  11.251   7.718   0.760
26185SOL    HW180394  11.193   7.643   0.770
26185SOL    HW280395  11.202   7.792   0.797
26186SOL     OW80396   3.890  10.078   5.588
26186SOL    HW180397   3.944  10.125   5.524
26186SOL    HW280398   3.915   9.986   5.577
26187SOL     OW80399  13.161   2.558   7.410
26187SOL    HW180400  13.235   2.551   7.470
26187SOL    HW280401  13.201   2.568   7.323
26188SOL     OW80402  10.072  11.502   5.200
26188SOL    HW180403   9.977  11.501   5.186
26188SOL    HW280404  10.109  11.509   5.112
26189SOL     OW80405   9.452  12.892   6.150
26189SOL    HW180406   9.457  12.953   6.223
26189SOL    HW280407   9.544  12.871   6.130
26190SOL     OW80408   8.986  11.598   4.838
26190SOL    HW180409   9.026  11.527   4.788
26190SOL    HW280410   8.962  11.663   4.771
26191SOL     OW80411   4.088   1.168   7.093
26191SOL    HW180412   4.093   1.103   7.023
26191SOL    HW280413   4.155   1.233   7.070
26192SOL     OW80414   3.421   1.147   5.189
26192SOL    HW180415   3.331   1.142   5.219
26192SOL    HW280416   3.432   1.237   5.159
26193SOL     OW80417   5.998   4.418   3.100
26193SOL    HW180418   5.981   4.398   3.008
26193SOL    HW280419   5.912   4.433   3.138
26194SOL     OW80420   9.108   5.259   6.002
26194SOL    HW180421   9.102   5.227   6.092
26194SOL    HW280422   9.044   5.330   5.998
26195SOL     OW80423   1.460   7.127  13.992
26195SOL    HW180424   1.556   7.135  13.989
26195SOL    HW280425   1.431   7.208  14.035
26196SOL     OW80426   7.910   5.767   1.147
26196SOL    HW180427   8.005   5.770   1.158
26196SOL    HW280428   7.876   5.812   1.225
26197SOL     OW80429   6.815  13.765   9.346
26197SOL    HW180430   6.751  13.825   9.307
26197SOL    HW280431   6.833  13.801   9.433
26198SOL     OW80432  14.526   7.524  12.526
26198SOL    HW180433  14.455   7.496  12.584
26198SOL    HW280434  14.516   7.470  12.448
26199SOL     OW80435   4.657   9.020   8.983
26199SOL    HW180436   4.589   9.003   9.048
26199SOL    HW280437   4.682   8.933   8.951
26200SOL     OW80438  13.210   2.631   6.554
26200SOL    HW180439  13.279   2.658   6.495
26200SOL    HW280440  13.129   2.658   6.511
26201SOL     OW80441   1.228   0.903   6.308
26201SOL    HW180442   1.283   0.925   6.232
26201SOL    HW280443   1.284   0.920   6.384
26202SOL     OW80444   5.600   2.296  12.471
26202SOL    HW180445   5.626   2.386  12.492
26202SOL    HW280446   5.665   2.267  12.406
26203SOL     OW80447   7.868  13.617   8.664
26203SOL    HW180448   7.963  13.610   8.669
26203SOL    HW280449   7.851  13.710   8.651
26204SOL     OW80450   4.060  12.330   9.562
26204SOL    HW180451   4.034  12.361   9.648
26204SOL    HW280452   4.113  12.252   9.579
26205SOL     OW80453   7.356   7.118  11.463
26205SOL    HW180454   7.370   7.189  11.400
26205SOL    HW280455   7.443   7.082  11.480
26206SOL     OW80456   1.655  12.840   1.875
26206SOL    HW180457   1.570  12.868   1.909
26206SOL    HW280458   1.644  12.839   1.780
26207SOL     OW80459   0.368  14.381   7.792
26207SOL    HW180460   0.280  14.345   7.807
26207SOL    HW280461   0.357  14.443   7.721
26208SOL     OW80462   9.245   4.863   8.645
26208SOL    HW180463   9.215   4.818   8.566
26208SOL    HW280464   9.337   4.837   8.654
26209SOL     OW80465   3.030   8.566  14.520
26209SOL    HW180466   2.957   8.559  14.458
26209SOL    HW280467   3.000   8.522  14.599
26210SOL     OW80468  13.653  11.816   3.934
26210SOL    HW180469  13.618  11.873   4.002
26210SOL    HW280470  13.717  11.871   3.887
26211SOL     OW80471  10.393   6.896   7.105
26211SOL    HW180472  10.378   6.969   7.165
26211SOL    HW280473  10.394   6.936   7.018
26212SOL     OW80474  12.200   1.389   2.359
26212SOL    HW180475  12.107   1.410   2.349
26212SOL    HW280476  12.212   1.381   2.454
26213SOL     OW80477  13.077   9.176   6.240
26213SOL    HW180478  13.058   9.157   6.148
26213SOL    HW280479  13.162   9.221   6.239
26214SOL     OW80480   0.222   2.136   4.788
26214SOL    HW180481   0.179   2.218   4.811
26214SOL    HW280482   0.216   2.132   4.693
26215SOL     OW80483  13.149  10.885   1.275
26215SOL    HW180484  13.066  10.896   1.228
26215SOL    HW280485  13.213  10.933   1.223
26216SOL     OW80486   4.163   2.070  12.892
26216SOL    HW180487   4.127   2.089  12.806
26216SOL    HW280488   4.249   2.033  12.875
26217SOL     OW80489   5.224  11.679  14.450
26217SOL    HW180490   5.318  11.666  14.436
26217SOL    HW280491   5.182  11.633  14.377
26218SOL     OW80492  10.443  10.973   1.112
26218SOL    HW180493  10.372  10.956   1.173
26218SOL    HW280494  10.498  11.038   1.157
26219SOL     OW80495   7.336  13.097   8.744
26219SOL    HW180496   7.265  13.142   8.699
26219SOL    HW280497   7.364  13.158   8.812
26220SOL     OW80498   5.078  12.217   8.105
26220SOL    HW180499   5.089  12.307   8.136
26220SOL    HW280500   5.078  12.164   8.185
26221SOL     OW80501   7.085  14.158   5.663
26221SOL    HW180502   7.037  14.241   5.660
26221SOL    HW280503   7.017  14.091   5.654
26222SOL     OW80504  10.202  10.526  13.675
26222SOL    HW180505  10.294  10.519  13.652
26222SOL    HW280506  10.163  10.444  13.643
26223SOL     OW80507   2.667   2.693  12.167
26223SOL    HW180508   2.689   2.644  12.246
26223SOL    HW280509   2.575   2.717  12.180
26224SOL     OW80510   0.426  14.637   1.255
26224SOL    HW180511   0.369  14.705   1.290
26224SOL    HW280512   0.369  14.586   1.197
26225SOL     OW80513  12.022   1.899   5.426
26225SOL    HW180514  11.943   1.867   5.468
26225SOL    HW280515  12.007   1.992   5.411
26226SOL     OW80516   0.196   3.056   6.839
26226SOL    HW180517   0.149   3.139   6.845
26226SOL    HW280518   0.280   3.078   6.800
26227SOL     OW80519   6.776   1.153   9.848
26227SOL    HW180520   6.708   1.221   9.843
26227SOL    HW280521   6.741   1.089   9.909
26228SOL     OW80522   8.440   6.795  12.450
26228SOL    HW180523   8.457   6.883  12.414
26228SOL    HW280524   8.361   6.806  12.502
26229SOL     OW80525   9.984  12.929   5.538
26229SOL    HW180526   9.898  12.957   5.507
26229SOL    HW280527   9.973  12.916   5.632
26230SOL     OW80528   7.470  13.063   7.168
26230SOL    HW180529   7.535  13.099   7.228
26230SOL    HW280530   7.390  13.114   7.185
26231SOL     OW80531   3.358   2.635   9.104
26231SOL    HW180532   3.450   2.661   9.099
26231SOL    HW280533   3.310   2.708   9.066
26232SOL     OW80534  13.336   1.704   6.268
26232SOL    HW180535  13.305   1.716   6.179
26232SOL    HW280536  13.319   1.612   6.287
26233SOL     OW80537   9.869   4.903  11.967
26233SOL    HW180538   9.881   4.857  12.050
26233SOL    HW280539   9.775   4.924  11.964
26234SOL     OW80540   1.169  10.433   6.248
26234SOL    HW180541   1.136  10.403   6.163
26234SOL    HW280542   1.203  10.521   6.231
26235SOL     OW80543   7.417  14.569  12.184
26235SOL    HW180544   7.463  14.653  12.186
26235SOL    HW280545   7.376  14.561  12.270
26236SOL     OW80546   4.615   3.755  12.618
26236SOL    HW180547   4.708   3.759  12.594
26236SOL    HW280548   4.591   3.847  12.634
26237SOL     OW80549   0.267   0.392   3.476
26237SOL    HW180550   0.335   0.422   3.536
26237SOL    HW280551   0.208   0.467   3.468
26238SOL     OW80552   4.478   2.380   7.425
26238SOL    HW180553   4.426   2.331   7.490
26238SOL    HW280554   4.421   2.453   7.400
26239SOL     OW80555   6.172   5.471   3.160
26239SOL    HW180556   6.155   5.539   3.096
26239SOL    HW280557   6.097   5.412   3.154
26240SOL     OW80558   3.045  11.195   6.713
26240SOL    HW180559   2.993  11.164   6.639
26240SOL    HW280560   3.082  11.279   6.684
26241SOL     OW80561   8.844   3.853   6.610
26241SOL    HW180562   8.925   3.879   6.654
26241SOL    HW280563   8.795   3.935   6.600
26242SOL     OW80564   0.061  10.096   5.221
26242SOL    HW180565   0.149  10.134   5.221
26242SOL    HW280566   0.026  10.117   5.307
26243SOL     OW80567  11.190   9.288   3.734
26243SOL    HW180568  11.171   9.278   3.827
26243SOL    HW280569  11.199   9.382   3.721
26244SOL     OW80570   8.691  10.558  11.642
26244SOL    HW180571   8.694  10.645  11.682
26244SOL    HW280572   8.644  10.572  11.559
26245SOL     OW80573  12.419   2.745   9.530
26245SOL    HW180574  12.373   2.665   9.505
26245SOL    HW280575  12.442   2.787   9.447
26246SOL     OW80576   3.699   9.176   1.620
26246SOL    HW180577   3.677   9.256   1.668
26246SOL    HW280578   3.615   9.142   1.589
26247SOL     OW80579   8.913   7.874  11.811
26247SOL    HW180580   8.904   7.913  11.724
26247SOL    HW280581   8.846   7.917  11.864
26248SOL     OW80582   4.813   1.766   1.664
26248SOL    HW180583   4.900   1.759   1.624
26248SOL    HW280584   4.765   1.692   1.629
26249SOL     OW80585  11.944   7.858   5.896
26249SOL    HW180586  11.866   7.824   5.852
26249SOL    HW280587  11.977   7.784   5.947
26250SOL     OW80588   2.917  10.606   2.753
26250SOL    HW180589   2.879  10.675   2.699
26250SOL    HW280590   2.850  10.537   2.753
26251SOL     OW80591   5.678  13.633   9.391
26251SOL    HW180592   5.752  13.635   9.330
26251SOL    HW280593   5.659  13.539   9.401
26252SOL     OW80594   8.687   7.289   0.589
26252SOL    HW180595   8.704   7.293   0.495
26252SOL    HW280596   8.735   7.363   0.626
26253SOL     OW80597  14.074   5.323  13.904
26253SOL    HW180598  14.061   5.417  13.893
26253SOL    HW280599  14.048   5.285  13.820
26254SOL     OW80600  10.432   5.409  12.246
26254SOL    HW180601  10.479   5.407  12.162
26254SOL    HW280602  10.499   5.393  12.312
26255SOL     OW80603   3.984   7.344  14.412
26255SOL    HW180604   4.015   7.255  14.430
26255SOL    HW280605   4.058   7.387  14.370
26256SOL     OW80606  10.616  11.434  10.409
26256SOL    HW180607  10.694  11.473  10.447
26256SOL    HW280608  10.627  11.444  10.315
26257SOL     OW80609   2.614   7.367   5.246
26257SOL    HW180610   2.685   7.319   5.287
26257SOL    HW280611   2.635   7.366   5.152
26258SOL     OW80612   5.105   5.306   2.385
26258SOL    HW180613   5.174   5.262   2.335
26258SOL    HW280614   5.030   5.308   2.326
26259SOL     OW80615   9.417   2.103   7.738
26259SOL    HW180616   9.455   2.083   7.652
26259SOL    HW280617   9.477   2.064   7.801
26260SOL     OW80618  13.799  12.376   2.198
26260SOL    HW180619  13.821  12.318   2.270
26260SOL    HW280620  13.805  12.464   2.235
26261SOL     OW80621   6.549  13.240   9.002
26261SOL    HW180622   6.481  13.305   9.019
26261SOL    HW280623   6.572  13.206   9.089
26262SOL     OW80624   3.613   4.431  10.097
26262SOL    HW180625   3.542   4.389  10.048
26262SOL    HW280626   3.644   4.364  10.157
26263SOL     OW80627   7.328   5.174  12.025
26263SOL    HW180628   7.419   5.145  12.030
26263SOL    HW280629   7.307   5.201  12.115
26264SOL     OW80630   8.431   0.493   7.364
26264SOL    HW180631   8.351   0.446   7.341
26264SOL    HW280632   8.417   0.582   7.331
26265SOL     OW80633   3.146   5.581   1.513
26265SOL    HW180634   3.221   5.578   1.572
26265SOL    HW280635   3.179   5.626   1.435
26266SOL     OW80636   0.325   6.591   0.728
26266SOL    HW180637   0.413   6.603   0.764
26266SOL    HW280638   0.278   6.541   0.794
26267SOL     OW80639   2.499   5.038   9.029
26267SOL    HW180640   2.530   5.001   8.946
26267SOL    HW280641   2.563   5.008   9.093
26268SOL     OW80642   8.076  10.526   7.073
26268SOL    HW180643   8.127  10.606   7.059
26268SOL    HW280644   7.992  10.543   7.032
26269SOL     OW80645  11.890   9.435  11.462
26269SOL    HW180646  11.884   9.455  11.369
26269SOL    HW280647  11.894   9.520  11.505
26270SOL     OW80648   0.172   7.473  12.970
26270SOL    HW180649   0.164   7.423  13.051
26270SOL    HW280650   0.196   7.561  12.998
26271SOL     OW80651  12.427   9.291  13.302
26271SOL    HW180652  12.444   9.226  13.370
26271SOL    HW280653  12.414   9.239  13.222
26272SOL     OW80654   0.413   7.191  14.608
26272SOL    HW180655   0.326   7.178  14.646
26272SOL    HW280656   0.438   7.105  14.576
26273SOL     OW80657   4.549   6.805   8.837
26273SOL    HW180658   4.608   6.748   8.787
26273SOL    HW280659   4.600   6.883   8.856
26274SOL     OW80660  14.155   5.153   0.125
26274SOL    HW180661  14.138   5.143   0.218
26274SOL    HW280662  14.069   5.150   0.084
26275SOL     OW80663   3.709  12.020  11.640
26275SOL    HW180664   3.704  11.925  11.641
26275SOL    HW280665   3.755  12.043  11.721
26276SOL     OW80666  11.321  11.016  11.941
26276SOL    HW180667  11.236  11.045  11.909
26276SOL    HW280668  11.362  10.975  11.866
26277SOL     OW80669   3.584   2.714  10.143
26277SOL    HW180670   3.522   2.763  10.196
26277SOL    HW280671   3.629   2.781  10.092
26278SOL     OW80672  12.410  14.044   1.899
26278SOL    HW180673  12.381  13.954   1.882
26278SOL    HW280674  12.495  14.033   1.943
26279SOL     OW80675  12.310   9.782   1.276
26279SOL    HW180676  12.282   9.802   1.187
26279SOL    HW280677  12.378   9.847   1.295
26280SOL     OW80678   2.756   0.900   3.415
26280SOL    HW180679   2.699   0.879   3.341
26280SOL    HW280680   2.702   0.955   3.472
26281SOL     OW80681   3.447   3.311   2.731
26281SOL    HW180682   3.368   3.316   2.677
26281SOL    HW280683   3.420   3.348   2.815
26282SOL     OW80684  14.611  10.216   3.633
26282SOL    HW180685  14.591  10.124   3.615
26282SOL    HW280686  14.596  10.260   3.550
26283SOL     OW80687  11.836   2.479   8.516
26283SOL    HW180688  11.758   2.527   8.488
26283SOL    HW280689  11.905   2.544   8.519
26284SOL     OW80690   1.405  12.998   9.072
26284SOL    HW180691   1.439  13.032   8.989
26284SOL    HW280692   1.373  12.910   9.051
26285SOL     OW80693   8.814   5.635   6.125
26285SOL    HW180694   8.885   5.667   6.181
26285SOL    HW280695   8.766   5.713   6.099
26286SOL     OW80696   9.403  13.809   3.110
26286SOL    HW180697   9.318  13.853   3.109
26286SOL    HW280698   9.391  13.732   3.054
26287SOL     OW80699   2.732   5.640   8.985
26287SOL    HW180700   2.754   5.610   9.073
26287SOL    HW280701   2.691   5.725   8.998
26288SOL     OW80702   0.596   2.850   6.954
26288SOL    HW180703   0.516   2.846   7.006
26288SOL    HW280704   0.596   2.937   6.916
26289SOL     OW80705   3.088   1.122  14.471
26289SOL    HW180706   3.119   1.084  14.389
26289SOL    HW280707   3.044   1.050  14.517
26290SOL     OW80708  12.148   7.545   3.255
26290SOL    HW180709  12.229   7.501   3.230
26290SOL    HW280710  12.154   7.552   3.350
26291SOL     OW80711  12.088   1.134   3.268
26291SOL    HW180712  12.024   1.068   3.290
26291SOL    HW280713  12.067   1.159   3.178
26292SOL     OW80714   5.738   7.705   0.352
26292SOL    HW180715   5.809   7.741   0.405
26292SOL    HW280716   5.782   7.666   0.276
26293SOL     OW80717   6.378   5.017   6.269
26293SOL    HW180718   6.448   5.049   6.326
26293SOL    HW280719   6.310   4.986   6.329
26294SOL     OW80720   4.202   0.586   9.371
26294SOL    HW180721   4.231   0.604   9.460
26294SOL    HW280722   4.106   0.582   9.377
26295SOL     OW80723  13.590   5.897   3.997
26295SOL    HW180724  13.680   5.876   3.973
26295SOL    HW280725  13.542   5.894   3.914
26296SOL     OW80726   9.198  13.146  11.775
26296SOL    HW180727   9.194  13.065  11.724
26296SOL    HW280728   9.214  13.214  11.709
26297SOL     OW80729   8.135   8.987   1.307
26297SOL    HW180730   8.047   9.023   1.318
26297SOL    HW280731   8.127   8.926   1.234
26298SOL     OW80732  13.958   6.282  11.240
26298SOL    HW180733  14.015   6.357  11.254
26298SOL    HW280734  14.017   6.211  11.214
26299SOL     OW80735   3.057   9.093   1.494
26299SOL    HW180736   3.085   9.089   1.403
26299SOL    HW280737   3.035   9.003   1.517
26300SOL     OW80738  13.460   4.075   7.036
26300SOL    HW180739  13.457   4.169   7.020
26300SOL    HW280740  13.494   4.067   7.125
26301SOL     OW80741   2.859   7.839  14.725
26301SOL    HW180742   2.884   7.755  14.686
26301SOL    HW280743   2.940   7.890  14.726
26302SOL     OW80744  11.228  11.540  10.911
26302SOL    HW180745  11.201  11.567  10.999
26302SOL    HW280746  11.302  11.597  10.890
26303SOL     OW80747   5.396   7.840   8.737
26303SOL    HW180748   5.412   7.882   8.652
26303SOL    HW280749   5.472   7.784   8.751
26304SOL     OW80750   7.410  12.642   4.226
26304SOL    HW180751   7.461  12.564   4.248
26304SOL    HW280752   7.471  12.697   4.177
26305SOL     OW80753   2.936   7.997   3.400
26305SOL    HW180754   3.029   7.978   3.412
26305SOL    HW280755   2.891   7.927   3.448
26306SOL     OW80756   0.924   6.992  11.192
26306SOL    HW180757   0.974   7.070  11.164
26306SOL    HW280758   0.940   6.928  11.122
26307SOL     OW80759  11.958   8.571   9.500
26307SOL    HW180760  11.917   8.593   9.417
26307SOL    HW280761  12.005   8.490   9.483
26308SOL     OW80762  10.056  10.124   7.682
26308SOL    HW180763  10.115  10.173   7.739
26308SOL    HW280764  10.103  10.118   7.599
26309SOL     OW80765  10.961  12.052   9.191
26309SOL    HW180766  10.944  11.965   9.229
26309SOL    HW280767  10.984  12.107   9.266
26310SOL     OW80768   6.928   6.319   5.147
26310SOL    HW180769   6.913   6.226   5.128
26310SOL    HW280770   6.905   6.329   5.239
26311SOL     OW80771   6.292  10.257  10.154
26311SOL    HW180772   6.203  10.240  10.122
26311SOL    HW280773   6.327  10.320  10.091
26312SOL     OW80774   7.239   1.168  13.222
26312SOL    HW180775   7.164   1.153  13.163
26312SOL    HW280776   7.314   1.132  13.174
26313SOL     OW80777   4.381   3.992   0.305
26313SOL    HW180778   4.307   3.932   0.311
26313SOL    HW280779   4.451   3.940   0.265
26314SOL     OW80780   4.883   0.155   2.930
26314SOL    HW180781   4.880   0.143   2.835
26314SOL    HW280782   4.795   0.133   2.960
26315SOL     OW80783  11.900   7.347   3.927
26315SOL    HW180784  11.847   7.412   3.975
26315SOL    HW280785  11.949   7.399   3.863
26316SOL     OW80786  12.569   1.057   1.770
26316SOL    HW180787  12.503   1.119   1.739
26316SOL    HW280788  12.637   1.112   1.809
26317SOL     OW80789   6.240  10.814   6.269
26317SOL    HW180790   6.185  10.872   6.215
26317SOL    HW280791   6.273  10.748   6.208
26318SOL     OW80792   2.044   2.028  12.693
26318SOL    HW180793   2.019   2.111  12.733
26318SOL    HW280794   2.139   2.024  12.703
26319SOL     OW80795  11.561  12.516  13.068
26319SOL    HW180796  11.540  12.439  13.120
26319SOL    HW280797  11.653  12.535  13.088
26320SOL     OW80798   7.610   8.008   0.195
26320SOL    HW180799   7.693   7.962   0.201
26320SOL    HW280800   7.610   8.067   0.270
26321SOL     OW80801   6.781   6.198   7.713
26321SOL    HW180802   6.711   6.220   7.775
26321SOL    HW280803   6.841   6.143   7.763
26322SOL     OW80804  11.063   2.323  14.799
26322SOL    HW180805  11.094   2.369  14.721
26322SOL    HW280806  10.986   2.374  14.826
26323SOL     OW80807   9.408   9.945   6.549
26323SOL    HW180808   9.329   9.940   6.602
26323SOL    HW280809   9.428  10.039   6.545
26324SOL     OW80810   4.413  13.161   1.307
26324SOL    HW180811   4.497  13.201   1.326
26324SOL    HW280812   4.423  13.125   1.219
26325SOL     OW80813   4.215  14.277   0.794
26325SOL    HW180814   4.207  14.316   0.881
26325SOL    HW280815   4.150  14.207   0.794
26326SOL     OW80816   1.962   6.122   7.072
26326SOL    HW180817   1.875   6.161   7.073
26326SOL    HW280818   1.985   6.116   6.980
26327SOL     OW80819   9.517   0.620  13.384
26327SOL    HW180820   9.426   0.609  13.414
26327SOL    HW280821   9.532   0.715  13.387
26328SOL     OW80822   6.663  14.498  11.440
26328SOL    HW180823   6.632  14.482  11.529
26328SOL    HW280824   6.643  14.417  11.393
26329SOL     OW80825  10.411   7.261   7.533
26329SOL    HW180826  10.319   7.281   7.548
26329SOL    HW280827  10.448   7.341   7.497
26330SOL     OW80828   9.037  10.833   1.527
26330SOL    HW180829   9.125  10.795   1.526
26330SOL    HW280830   9.032  10.884   1.447
26331SOL     OW80831  13.456   6.202   9.039
26331SOL    HW180832  13.377   6.163   9.076
26331SOL    HW280833  13.451   6.182   8.945
26332SOL     OW80834   3.166   8.711  12.358
26332SOL    HW180835   3.189   8.682  12.269
26332SOL    HW280836   3.149   8.804  12.349
26333SOL     OW80837   4.814   8.457  12.375
26333SOL    HW180838   4.899   8.438  12.334
26333SOL    HW280839   4.789   8.375  12.417
26334SOL     OW80840   8.171   3.774   9.664
26334SOL    HW180841   8.197   3.728   9.744
26334SOL    HW280842   8.225   3.734   9.596
26335SOL     OW80843   1.363   3.056   9.029
26335SOL    HW180844   1.375   3.029   8.938
26335SOL    HW280845   1.269   3.056   9.042
26336SOL     OW80846  12.109   3.338  12.782
26336SOL    HW180847  12.052   3.298  12.848
26336SOL    HW280848  12.109   3.276  12.709
26337SOL     OW80849  14.706   8.514  12.380
26337SOL    HW180850  14.694   8.601  12.420
26337SOL    HW280851  14.729   8.533  12.289
26338SOL     OW80852   4.437   9.517   2.137
26338SOL    HW180853   4.358   9.544   2.184
26338SOL    HW280854   4.422   9.546   2.047
26339SOL     OW80855   9.995   3.944   0.246
26339SOL    HW180856   9.947   3.997   0.310
26339SOL    HW280857  10.052   4.007   0.202
26340SOL     OW80858  12.705   4.322   8.655
26340SOL    HW180859  12.713   4.412   8.685
26340SOL    HW280860  12.611   4.309   8.641
26341SOL     OW80861   2.590   9.872   8.418
26341SOL    HW180862   2.655   9.888   8.486
26341SOL    HW280863   2.548   9.957   8.406
26342SOL     OW80864   0.564   8.517   0.620
26342SOL    HW180865   0.562   8.488   0.529
26342SOL    HW280866   0.583   8.611   0.615
26343SOL     OW80867  10.314   8.020   4.375
26343SOL    HW180868  10.349   8.065   4.451
26343SOL    HW280869  10.269   8.088   4.325
26344SOL     OW80870   9.299  12.970  10.169
26344SOL    HW180871   9.275  12.885  10.132
26344SOL    HW280872   9.227  13.028  10.145
26345SOL     OW80873   8.579   2.095   9.771
26345SOL    HW180874   8.630   2.161   9.724
26345SOL    HW280875   8.495   2.091   9.724
26346SOL     OW80876   7.022   4.806   2.283
26346SOL    HW180877   7.071   4.725   2.264
26346SOL    HW280878   7.080   4.876   2.253
26347SOL     OW80879   9.307   2.813   9.426
26347SOL    HW180880   9.287   2.854   9.510
26347SOL    HW280881   9.376   2.868   9.388
26348SOL     OW80882   3.737  14.546   9.299
26348SOL    HW180883   3.766  14.540   9.208
26348SOL    HW280884   3.779  14.472   9.343
26349SOL     OW80885   4.401   0.184   9.251
26349SOL    HW180886   4.389   0.278   9.235
26349SOL    HW280887   4.486   0.164   9.213
26350SOL     OW80888  13.252   5.597  12.483
26350SOL    HW180889  13.308   5.631  12.554
26350SOL    HW280890  13.163   5.604  12.518
26351SOL     OW80891  14.481   9.701  13.298
26351SOL    HW180892  14.540   9.744  13.360
26351SOL    HW280893  14.489   9.753  13.218
26352SOL     OW80894  11.629   3.804   2.084
26352SOL    HW180895  11.625   3.899   2.075
26352SOL    HW280896  11.626   3.789   2.179
26353SOL     OW80897   1.942   8.522   4.812
26353SOL    HW180898   1.892   8.574   4.875
26353SOL    HW280899   1.915   8.432   4.828
26354SOL     OW80900   9.157   7.492  14.555
26354SOL    HW180901   9.232   7.437  14.535
26354SOL    HW280902   9.176   7.528  14.642
26355SOL     OW80903   1.372   2.726   3.190
26355SOL    HW180904   1.369   2.769   3.275
26355SOL    HW280905   1.281   2.725   3.160
26356SOL     OW80906   7.459   5.651   2.437
26356SOL    HW180907   7.370   5.642   2.471
26356SOL    HW280908   7.484   5.562   2.411
26357SOL     OW80909   5.320  13.395   9.533
26357SOL    HW180910   5.258  13.459   9.568
26357SOL    HW280911   5.316  13.322   9.595
26358SOL     OW80912   2.408   6.554   5.460
26358SOL    HW180913   2.415   6.532   5.553
26358SOL    HW280914   2.496   6.540   5.425
26359SOL     OW80915   9.009  12.907  12.627
26359SOL    HW180916   8.995  12.824  12.672
26359SOL    HW280917   9.100  12.929  12.647
26360SOL     OW80918   0.978   1.816   9.970
26360SOL    HW180919   0.950   1.905   9.949
26360SOL    HW280920   0.902   1.776  10.012
26361SOL     OW80921  13.940   2.957  10.629
26361SOL    HW180922  13.931   3.046  10.664
26361SOL    HW280923  13.916   2.900  10.702
26362SOL     OW80924  11.405   3.592   9.356
26362SOL    HW180925  11.455   3.673   9.348
26362SOL    HW280926  11.426   3.542   9.277
26363SOL     OW80927   9.467   4.022   5.683
26363SOL    HW180928   9.491   4.093   5.623
26363SOL    HW280929   9.376   4.042   5.708
26364SOL     OW80930   6.509   0.827  12.597
26364SOL    HW180931   6.592   0.872  12.613
26364SOL    HW280932   6.534   0.743  12.560
26365SOL     OW80933  14.667  12.824  12.851
26365SOL    HW180934  14.682  12.748  12.796
26365SOL    HW280935  14.755  12.850  12.881
26366SOL     OW80936  13.646   8.740   5.989
26366SOL    HW180937  13.607   8.715   6.073
26366SOL    HW280938  13.604   8.682   5.925
26367SOL     OW80939  11.932  11.883  11.762
26367SOL    HW180940  11.886  11.960  11.796
26367SOL    HW280941  11.943  11.900  11.669
26368SOL     OW80942   3.724   8.566  10.957
26368SOL    HW180943   3.799   8.623  10.943
26368SOL    HW280944   3.761   8.478  10.968
26369SOL     OW80945   3.311   4.260   1.010
26369SOL    HW180946   3.284   4.232   0.922
26369SOL    HW280947   3.405   4.273   1.003
26370SOL     OW80948   1.629  11.759   9.298
26370SOL    HW180949   1.625  11.831   9.235
26370SOL    HW280950   1.537  11.734   9.311
26371SOL     OW80951   2.566   2.985   4.846
26371SOL    HW180952   2.530   2.923   4.909
26371SOL    HW280953   2.651   3.008   4.882
26372SOL     OW80954  12.435   7.114   6.779
26372SOL    HW180955  12.511   7.076   6.823
26372SOL    HW280956  12.456   7.207   6.772
26373SOL     OW80957   9.233   8.864  11.163
26373SOL    HW180958   9.320   8.903  11.172
26373SOL    HW280959   9.208   8.841  11.252
26374SOL     OW80960  14.316  10.513   5.676
26374SOL    HW180961  14.244  10.571   5.649
26374SOL    HW280962  14.297  10.494   5.768
26375SOL     OW80963   7.759  10.018   5.764
26375SOL    HW180964   7.839   9.972   5.736
26375SOL    HW280965   7.710  10.033   5.684
26376SOL     OW80966   3.977   8.213   4.618
26376SOL    HW180967   3.958   8.145   4.553
26376SOL    HW280968   3.960   8.295   4.573
26377SOL     OW80969  11.439  13.573   1.887
26377SOL    HW180970  11.391  13.655   1.895
26377SOL    HW280971  11.404  13.533   1.808
26378SOL     OW80972  10.580  11.709   4.008
26378SOL    HW180973  10.581  11.621   4.047
26378SOL    HW280974  10.671  11.738   4.011
26379SOL     OW80975  10.641   9.848  13.624
26379SOL    HW180976  10.666   9.776  13.682
26379SOL    HW280977  10.645   9.812  13.536
26380SOL     OW80978   2.452   0.878  14.565
26380SOL    HW180979   2.420   0.791  14.540
26380SOL    HW280980   2.535   0.888  14.518
26381SOL     OW80981   2.062   0.567   0.632
26381SOL    HW180982   2.018   0.508   0.571
26381SOL    HW280983   2.098   0.510   0.699
26382SOL     OW80984  10.590   2.556   2.116
26382SOL    HW180985  10.554   2.470   2.140
26382SOL    HW280986  10.655   2.536   2.048
26383SOL     OW80987   4.746   5.645   9.787
26383SOL    HW180988   4.820   5.601   9.828
26383SOL    HW280989   4.713   5.705   9.854
26384SOL     OW80990  10.967  12.217   2.150
26384SOL    HW180991  11.036  12.202   2.086
26384SOL    HW280992  11.005  12.278   2.213
26385SOL     OW80993   4.453  11.782   7.704
26385SOL    HW180994   4.361  11.755   7.695
26385SOL    HW280995   4.459  11.862   7.651
26386SOL     OW80996   9.723   9.807   7.470
26386SOL    HW180997   9.628   9.816   7.461
26386SOL    HW280998   9.746   9.868   7.540
26387SOL     OW80999  13.496  10.119   6.836
26387SOL    HW181000  13.482  10.211   6.859
26387SOL    HW281001  13.533  10.122   6.748
26388SOL     OW81002  10.301   5.485  10.941
26388SOL    HW181003  10.227   5.425  10.927
26388SOL    HW281004  10.378   5.435  10.913
26389SOL     OW81005  14.432   0.407   2.608
26389SOL    HW181006  14.478   0.403   2.524
26389SOL    HW281007  14.380   0.487   2.604
26390SOL     OW81008   1.393  10.045   6.180
26390SOL    HW181009   1.483  10.014   6.176
26390SOL    HW281010   1.368  10.058   6.088
26391SOL     OW81011  10.581  11.447   5.880
26391SOL    HW181012  10.636  11.370   5.868
26391SOL    HW281013  10.492  11.414   5.867
26392SOL     OW81014   8.018  11.810   1.045
26392SOL    HW181015   8.084  11.809   1.114
26392SOL    HW281016   8.059  11.858   0.972
26393SOL     OW81017   6.693   5.050   8.611
26393SOL    HW181018   6.610   5.057   8.564
26393SOL    HW281019   6.739   4.978   8.569
26394SOL     OW81020   2.424   2.937   3.502
26394SOL    HW181021   2.510   2.963   3.534
26394SOL    HW281022   2.387   3.017   3.464
26395SOL     OW81023  11.989  12.927   4.540
26395SOL    HW181024  11.911  12.982   4.530
26395SOL    HW281025  11.983  12.894   4.629
26396SOL     OW81026   9.358   2.396   8.164
26396SOL    HW181027   9.278   2.377   8.213
26396SOL    HW281028   9.329   2.400   8.072
26397SOL     OW81029   3.994   6.305   3.377
26397SOL    HW181030   4.013   6.213   3.360
26397SOL    HW281031   4.007   6.349   3.292
26398SOL     OW81032   3.014   8.537  10.604
26398SOL    HW181033   3.078   8.476  10.640
26398SOL    HW281034   3.022   8.615  10.659
26399SOL     OW81035   0.939   6.967   2.178
26399SOL    HW181036   0.979   7.021   2.110
26399SOL    HW281037   0.889   7.029   2.232
26400SOL     OW81038   3.144   9.836   1.774
26400SOL    HW181039   3.131   9.926   1.743
26400SOL    HW281040   3.076   9.786   1.730
26401SOL     OW81041   7.723   4.774   3.933
26401SOL    HW181042   7.722   4.849   3.875
26401SOL    HW281043   7.632   4.764   3.961
26402SOL     OW81044  14.805   3.397   7.486
26402SOL    HW181045  14.846   3.330   7.540
26402SOL    HW281046  14.836   3.380   7.398
26403SOL     OW81047   1.576   4.420   6.085
26403SOL    HW181048   1.615   4.368   6.155
26403SOL    HW281049   1.482   4.404   6.091
26404SOL     OW81050   2.718  14.685   7.864
26404SOL    HW181051   2.754  14.606   7.905
26404SOL    HW281052   2.750  14.757   7.917
26405SOL     OW81053  13.043   4.567   0.197
26405SOL    HW181054  13.063   4.661   0.196
26405SOL    HW281055  12.951   4.562   0.224
26406SOL     OW81056   0.769  12.616  12.196
26406SOL    HW181057   0.802  12.563  12.124
26406SOL    HW281058   0.827  12.692  12.198
26407SOL     OW81059   6.788  12.576   7.726
26407SOL    HW181060   6.759  12.553   7.637
26407SOL    HW281061   6.772  12.498   7.778
26408SOL     OW81062  11.751   8.222   0.531
26408SOL    HW181063  11.824   8.280   0.507
26408SOL    HW281064  11.709   8.202   0.448
26409SOL     OW81065   5.584   8.295   3.020
26409SOL    HW181066   5.510   8.265   3.073
26409SOL    HW281067   5.581   8.241   2.941
26410SOL     OW81068   5.553   7.799  11.682
26410SOL    HW181069   5.492   7.822  11.611
26410SOL    HW281070   5.528   7.856  11.754
26411SOL     OW81071   2.741   7.280  11.197
26411SOL    HW181072   2.780   7.367  11.200
26411SOL    HW281073   2.816   7.220  11.195
26412SOL     OW81074   5.881   7.940   3.832
26412SOL    HW181075   5.948   7.922   3.767
26412SOL    HW281076   5.929   7.962   3.912
26413SOL     OW81077   4.052   1.973  10.939
26413SOL    HW181078   4.038   1.918  10.862
26413SOL    HW281079   4.141   1.951  10.967
26414SOL     OW81080   5.981  10.963  13.872
26414SOL    HW181081   5.952  10.921  13.791
26414SOL    HW281082   6.074  10.983  13.856
26415SOL     OW81083  12.667   2.553   9.563
26415SOL    HW181084  12.709   2.468   9.577
26415SOL    HW281085  12.586   2.534   9.517
26416SOL     OW81086   6.414  14.384   4.100
26416SOL    HW181087   6.388  14.292   4.111
26416SOL    HW281088   6.332  14.430   4.081
26417SOL     OW81089  14.505   3.855  12.658
26417SOL    HW181090  14.496   3.944  12.693
26417SOL    HW281091  14.559   3.809  12.723
26418SOL     OW81092  11.065  14.734   6.873
26418SOL    HW181093  11.155  14.724   6.842
26418SOL    HW281094  11.040  14.823   6.846
26419SOL     OW81095   4.388  11.806   9.904
26419SOL    HW181096   4.294  11.826   9.897
26419SOL    HW281097   4.391  11.726   9.957
26420SOL     OW81098  12.648  14.254   1.323
26420SOL    HW181099  12.693  14.337   1.339
26420SOL    HW281100  12.711  14.201   1.276
26421SOL     OW81101   9.824   2.421   4.335
26421SOL    HW181102   9.791   2.511   4.336
26421SOL    HW281103   9.918   2.430   4.347
26422SOL     OW81104  10.973  13.338   1.167
26422SOL    HW181105  10.897  13.287   1.141
26422SOL    HW281106  10.945  13.429   1.158
26423SOL     OW81107   2.360  14.049  14.388
26423SOL    HW181108   2.278  14.096  14.403
26423SOL    HW281109   2.428  14.108  14.423
26424SOL     OW81110   5.647   5.505  12.956
26424SOL    HW181111   5.578   5.492  12.891
26424SOL    HW281112   5.645   5.599  12.975
26425SOL     OW81113   6.152  14.077   5.624
26425SOL    HW181114   6.123  14.076   5.533
26425SOL    HW281115   6.092  14.018   5.669
26426SOL     OW81116   6.975   2.962   9.780
26426SOL    HW181117   6.999   2.954   9.687
26426SOL    HW281118   6.897   3.017   9.779
26427SOL     OW81119   9.492   8.445  12.821
26427SOL    HW181120   9.563   8.420  12.880
26427SOL    HW281121   9.464   8.362  12.782
26428SOL     OW81122  11.658   0.808   1.391
26428SOL    HW181123  11.715   0.735   1.366
26428SOL    HW281124  11.671   0.817   1.486
26429SOL     OW81125   6.371   1.294   3.454
26429SOL    HW181126   6.402   1.373   3.409
26429SOL    HW281127   6.278   1.309   3.469
26430SOL     OW81128  12.919  12.464   4.193
26430SOL    HW181129  13.005  12.454   4.151
26430SOL    HW281130  12.870  12.519   4.133
26431SOL     OW81131   9.200   4.322  12.459
26431SOL    HW181132   9.140   4.338  12.387
26431SOL    HW281133   9.231   4.233  12.445
26432SOL     OW81134   5.150   6.588  10.184
26432SOL    HW181135   5.183   6.540  10.108
26432SOL    HW281136   5.215   6.575  10.252
26433SOL     OW81137  12.640   5.608   7.348
26433SOL    HW181138  12.676   5.668   7.283
26433SOL    HW281139  12.714   5.588   7.406
26434SOL     OW81140  10.889   6.932   8.244
26434SOL    HW181141  10.905   6.858   8.186
26434SOL    HW281142  10.879   7.007   8.185
26435SOL     OW81143   1.303   9.572   8.540
26435SOL    HW181144   1.380   9.590   8.487
26435SOL    HW281145   1.304   9.477   8.553
26436SOL     OW81146  11.380   9.393  13.892
26436SOL    HW181147  11.466   9.419  13.858
26436SOL    HW281148  11.370   9.444  13.972
26437SOL     OW81149  11.981  13.773   9.235
26437SOL    HW181150  12.007  13.829   9.308
26437SOL    HW281151  11.902  13.728   9.266
26438SOL     OW81152   3.501   1.985  13.369
26438SOL    HW181153   3.573   2.048  13.373
26438SOL    HW281154   3.509   1.945  13.283
26439SOL     OW81155   9.909  11.501   1.367
26439SOL    HW181156   9.864  11.522   1.285
26439SOL    HW281157   9.840  11.475   1.427
26440SOL     OW81158  10.860   3.523   8.446
26440SOL    HW181159  10.796   3.452   8.455
26440SOL    HW281160  10.850   3.575   8.525
26441SOL     OW81161   9.454   4.557  10.137
26441SOL    HW181162   9.529   4.542  10.195
26441SOL    HW281163   9.494   4.595  10.058
26442SOL     OW81164  14.007   6.287   0.253
26442SOL    HW181165  13.929   6.338   0.228
26442SOL    HW281166  14.039   6.331   0.332
26443SOL     OW81167   8.769   4.367  13.712
26443SOL    HW181168   8.803   4.457  13.712
26443SOL    HW281169   8.807   4.327  13.790
26444SOL     OW81170  12.951   0.426  11.392
26444SOL    HW181171  12.904   0.387  11.317
26444SOL    HW281172  13.042   0.427  11.365
26445SOL     OW81173   2.274  11.583   2.643
26445SOL    HW181174   2.244  11.611   2.557
26445SOL    HW281175   2.306  11.663   2.685
26446SOL     OW81176  10.195   2.404   0.259
26446SOL    HW181177  10.207   2.497   0.275
26446SOL    HW281178  10.137   2.375   0.329
26447SOL     OW81179   3.462   8.739   4.844
26447SOL    HW181180   3.397   8.675   4.816
26447SOL    HW281181   3.450   8.746   4.939
26448SOL     OW81182   2.258  13.143   3.553
26448SOL    HW181183   2.251  13.221   3.609
26448SOL    HW281184   2.305  13.079   3.606
26449SOL     OW81185   5.712  13.574  11.083
26449SOL    HW181186   5.669  13.540  11.004
26449SOL    HW281187   5.805  13.571  11.063
26450SOL     OW81188   4.555   8.907  13.166
26450SOL    HW181189   4.510   8.880  13.086
26450SOL    HW281190   4.494   8.886  13.236
26451SOL     OW81191  14.462   9.386   7.118
26451SOL    HW181192  14.463   9.477   7.086
26451SOL    HW281193  14.375   9.375   7.156
26452SOL     OW81194   9.597  14.254   7.474
26452SOL    HW181195   9.649  14.303   7.537
26452SOL    HW281196   9.600  14.163   7.506
26453SOL     OW81197   9.405  11.654  14.118
26453SOL    HW181198   9.448  11.730  14.080
26453SOL    HW281199   9.456  11.634  14.196
26454SOL     OW81200   6.487  10.935  13.643
26454SOL    HW181201   6.466  11.016  13.596
26454SOL    HW281202   6.579  10.920  13.623
26455SOL     OW81203  12.368  11.060  11.870
26455SOL    HW181204  12.308  11.050  11.796
26455SOL    HW281205  12.452  11.082  11.830
26456SOL     OW81206   5.007  13.237  10.153
26456SOL    HW181207   5.018  13.160  10.209
26456SOL    HW281208   4.917  13.265  10.169
26457SOL     OW81209   9.023   0.608   8.346
26457SOL    HW181210   8.984   0.612   8.258
26457SOL    HW281211   8.969   0.544   8.392
26458SOL     OW81212   2.094   2.006  11.426
26458SOL    HW181213   2.090   2.101  11.438
26458SOL    HW281214   2.058   1.992  11.338
26459SOL     OW81215  13.621  10.970  10.131
26459SOL    HW181216  13.533  11.005  10.114
26459SOL    HW281217  13.680  11.030  10.085
26460SOL     OW81218  12.320   9.905   4.632
26460SOL    HW181219  12.300   9.897   4.539
26460SOL    HW281220  12.371   9.826   4.652
26461SOL     OW81221   4.381   9.329   3.633
26461SOL    HW181222   4.351   9.366   3.550
26461SOL    HW281223   4.474   9.313   3.620
26462SOL     OW81224   8.882  14.226   5.240
26462SOL    HW181225   8.796  14.198   5.210
26462SOL    HW281226   8.876  14.225   5.335
26463SOL     OW81227   2.407   3.957   0.121
26463SOL    HW181228   2.364   3.980   0.038
26463SOL    HW281229   2.393   4.032   0.177
26464SOL     OW81230   7.024   9.509  13.367
26464SOL    HW181231   7.071   9.427  13.380
26464SOL    HW281232   6.946   9.501  13.423
26465SOL     OW81233   6.113  12.593   1.809
26465SOL    HW181234   6.117  12.527   1.878
26465SOL    HW281235   6.199  12.590   1.768
26466SOL     OW81236  14.408   7.097   7.750
26466SOL    HW181237  14.424   7.170   7.809
26466SOL    HW281238  14.408   7.019   7.806
26467SOL     OW81239  14.754   3.557  11.893
26467SOL    HW181240  14.796   3.495  11.952
26467SOL    HW281241  14.663   3.560  11.921
26468SOL     OW81242   6.840   5.262   6.124
26468SOL    HW181243   6.869   5.347   6.155
26468SOL    HW281244   6.749   5.276   6.095
26469SOL     OW81245  13.825   8.403  12.328
26469SOL    HW181246  13.869   8.443  12.253
26469SOL    HW281247  13.892   8.401  12.397
26470SOL     OW81248   1.250   0.573   1.357
26470SOL    HW181249   1.168   0.546   1.316
26470SOL    HW281250   1.311   0.586   1.284
26471SOL     OW81251   8.100  10.497   3.744
26471SOL    HW181252   8.138  10.416   3.712
26471SOL    HW281253   8.124  10.563   3.679
26472SOL     OW81254  13.450   0.861  11.969
26472SOL    HW181255  13.542   0.834  11.965
26472SOL    HW281256  13.423   0.866  11.877
26473SOL     OW81257   8.720   8.960   2.330
26473SOL    HW181258   8.741   8.992   2.418
26473SOL    HW281259   8.709   9.039   2.278
26474SOL     OW81260   8.825  13.905  11.614
26474SOL    HW181261   8.759  13.847  11.652
26474SOL    HW281262   8.845  13.867  11.528
26475SOL     OW81263   5.300   0.280   7.010
26475SOL    HW181264   5.243   0.208   6.982
26475SOL    HW281265   5.385   0.239   7.023
26476SOL     OW81266  10.436   7.841   5.082
26476SOL    HW181267  10.346   7.808   5.079
26476SOL    HW281268  10.427   7.933   5.106
26477SOL     OW81269  11.861   7.251  10.321
26477SOL    HW181270  11.793   7.318  10.330
26477SOL    HW281271  11.938   7.300  10.292
26478SOL     OW81272   1.447   2.305  13.461
26478SOL    HW181273   1.539   2.321  13.442
26478SOL    HW281274   1.425   2.227  13.410
26479SOL     OW81275  14.560  13.256   7.901
26479SOL    HW181276  14.619  13.182   7.913
26479SOL    HW281277  14.506  13.232   7.826
26480SOL     OW81278   0.778   3.850   9.703
26480SOL    HW181279   0.773   3.885   9.792
26480SOL    HW281280   0.690   3.815   9.686
26481SOL     OW81281   8.351   8.888  12.663
26481SOL    HW181282   8.347   8.841  12.580
26481SOL    HW281283   8.261   8.917  12.677
26482SOL     OW81284   7.961   8.612   8.690
26482SOL    HW181285   8.047   8.572   8.679
26482SOL    HW281286   7.928   8.622   8.600
26483SOL     OW81287  12.674   0.635   6.058
26483SOL    HW181288  12.596   0.594   6.020
26483SOL    HW281289  12.744   0.573   6.040
26484SOL     OW81290   5.257  12.814  10.420
26484SOL    HW181291   5.178  12.797  10.472
26484SOL    HW281292   5.245  12.902  10.387
26485SOL     OW81293  11.554   7.562  12.709
26485SOL    HW181294  11.475   7.514  12.683
26485SOL    HW281295  11.559   7.550  12.804
26486SOL     OW81296   7.471   4.967   7.758
26486SOL    HW181297   7.529   4.910   7.707
26486SOL    HW281298   7.523   5.045   7.774
26487SOL     OW81299  12.989  13.701   2.970
26487SOL    HW181300  13.081  13.706   2.943
26487SOL    HW281301  12.946  13.773   2.923
26488SOL     OW81302  10.963  11.136   0.385
26488SOL    HW181303  11.005  11.170   0.306
26488SOL    HW281304  10.959  11.211   0.444
26489SOL     OW81305   1.753  13.954  12.845
26489SOL    HW181306   1.767  14.042  12.809
26489SOL    HW281307   1.799  13.955  12.929
26490SOL     OW81308   4.335   0.723   1.027
26490SOL    HW181309   4.331   0.736   1.122
26490SOL    HW281310   4.245   0.736   0.997
26491SOL     OW81311  10.604  14.846   5.849
26491SOL    HW181312  10.586  14.866   5.940
26491SOL    HW281313  10.566   0.043   5.800
26492SOL     OW81314   6.663   9.591  13.319
26492SOL    HW181315   6.699   9.545  13.394
26492SOL    HW281316   6.665   9.527  13.248
26493SOL     OW81317   1.936   7.305   9.641
26493SOL    HW181318   2.016   7.251   9.642
26493SOL    HW281319   1.898   7.294   9.728
26494SOL     OW81320  11.928   4.322   5.759
26494SOL    HW181321  12.018   4.312   5.792
26494SOL    HW281322  11.917   4.416   5.748
26495SOL     OW81323   9.452   6.476   9.240
26495SOL    HW181324   9.436   6.564   9.271
26495SOL    HW281325   9.374   6.453   9.190
26496SOL     OW81326   0.830   1.388   2.112
26496SOL    HW181327   0.741   1.379   2.077
26496SOL    HW281328   0.873   1.450   2.052
26497SOL     OW81329   1.599  11.228   5.280
26497SOL    HW181330   1.621  11.232   5.373
26497SOL    HW281331   1.554  11.310   5.262
26498SOL     OW81332   6.764   5.045   1.037
26498SOL    HW181333   6.695   5.100   1.074
26498SOL    HW281334   6.845   5.088   1.063
26499SOL     OW81335   0.121   8.256   2.935
26499SOL    HW181336   0.170   8.298   3.006
26499SOL    HW281337   0.093   8.172   2.971
26500SOL     OW81338   3.628   6.620   3.341
26500SOL    HW181339   3.689   6.550   3.364
26500SOL    HW281340   3.542   6.586   3.365
26501SOL     OW81341   8.384  10.363   0.470
26501SOL    HW181342   8.291  10.340   0.470
26501SOL    HW281343   8.397  10.413   0.550
26502SOL     OW81344  12.913   4.171   2.204
26502SOL    HW181345  12.871   4.196   2.122
26502SOL    HW281346  12.996   4.219   2.205
26503SOL     OW81347   9.673   4.507  12.613
26503SOL    HW181348   9.694   4.600  12.607
26503SOL    HW281349   9.584   4.500  12.578
26504SOL     OW81350   9.515  11.721   9.300
26504SOL    HW181351   9.603  11.757   9.307
26504SOL    HW281352   9.459  11.787   9.342
26505SOL     OW81353   7.076   7.718   1.535
26505SOL    HW181354   6.991   7.698   1.498
26505SOL    HW281355   7.130   7.641   1.518
26506SOL     OW81356  14.385   0.128   4.381
26506SOL    HW181357  14.477   0.112   4.401
26506SOL    HW281358  14.337   0.098   4.458
26507SOL     OW81359   4.505   0.044   7.821
26507SOL    HW181360   4.473  14.845   7.771
26507SOL    HW281361   4.527   0.109   7.754
26508SOL     OW81362  11.225  12.851  10.972
26508SOL    HW181363  11.248  12.761  10.950
26508SOL    HW281364  11.293  12.879  11.034
26509SOL     OW81365   8.778  11.687   9.374
26509SOL    HW181366   8.762  11.768   9.423
26509SOL    HW281367   8.794  11.621   9.441
26510SOL     OW81368  13.638   5.791  12.535
26510SOL    HW181369  13.566   5.805  12.474
26510SOL    HW281370  13.716   5.785  12.480
26511SOL     OW81371   2.765   8.882   4.540
26511SOL    HW181372   2.851   8.852   4.512
26511SOL    HW281373   2.740   8.947   4.475
26512SOL     OW81374   6.931   8.413   9.553
26512SOL    HW181375   6.973   8.455   9.628
26512SOL    HW281376   6.850   8.376   9.588
26513SOL     OW81377   6.593   9.580  13.964
26513SOL    HW181378   6.682   9.610  13.946
26513SOL    HW281379   6.567   9.533  13.884
26514SOL     OW81380   3.234  12.259   8.268
26514SOL    HW181381   3.317  12.304   8.253
26514SOL    HW281382   3.260  12.169   8.291
26515SOL     OW81383   5.379  11.375   9.651
26515SOL    HW181384   5.356  11.295   9.605
26515SOL    HW281385   5.365  11.445   9.587
26516SOL     OW81386   0.382  11.730   8.981
26516SOL    HW181387   0.398  11.710   8.889
26516SOL    HW281388   0.332  11.812   8.978
26517SOL     OW81389  12.754   8.104  11.260
26517SOL    HW181390  12.762   8.200  11.260
26517SOL    HW281391  12.837   8.074  11.299
26518SOL     OW81392   2.600   3.570   7.607
26518SOL    HW181393   2.674   3.593   7.551
26518SOL    HW281394   2.578   3.480   7.582
26519SOL     OW81395   6.184  11.951   3.830
26519SOL    HW181396   6.262  11.995   3.796
26519SOL    HW281397   6.208  11.859   3.835
26520SOL     OW81398  11.705   1.089   1.963
26520SOL    HW181399  11.665   1.021   1.908
26520SOL    HW281400  11.790   1.105   1.922
26521SOL     OW81401   7.806   5.632  10.910
26521SOL    HW181402   7.741   5.669  10.970
26521SOL    HW281403   7.876   5.697  10.908
26522SOL     OW81404  11.014   6.692   6.027
26522SOL    HW181405  10.992   6.608   6.068
26522SOL    HW281406  10.933   6.718   5.982
26523SOL     OW81407   1.979  11.132  13.925
26523SOL    HW181408   2.001  11.052  13.876
26523SOL    HW281409   2.009  11.203  13.868
26524SOL     OW81410  12.679   8.679   8.732
26524SOL    HW181411  12.651   8.640   8.650
26524SOL    HW281412  12.672   8.609   8.796
26525SOL     OW81413  10.631   0.113   8.547
26525SOL    HW181414  10.662   0.121   8.457
26525SOL    HW281415  10.599   0.200   8.570
26526SOL     OW81416  12.475   7.224   8.118
26526SOL    HW181417  12.415   7.270   8.060
26526SOL    HW281418  12.420   7.160   8.164
26527SOL     OW81419  12.190   8.255  13.535
26527SOL    HW181420  12.263   8.280  13.592
26527SOL    HW281421  12.143   8.337  13.519
26528SOL     OW81422   1.911  14.611   7.721
26528SOL    HW181423   1.867  14.533   7.755
26528SOL    HW281424   1.913  14.671   7.796
26529SOL     OW81425   4.221  10.156   3.966
26529SOL    HW181426   4.178  10.218   3.907
26529SOL    HW281427   4.156  10.141   4.035
26530SOL     OW81428   8.572   9.349   3.291
26530SOL    HW181429   8.572   9.348   3.387
26530SOL    HW281430   8.591   9.258   3.266
26531SOL     OW81431  13.672   1.597   7.809
26531SOL    HW181432  13.627   1.624   7.889
26531SOL    HW281433  13.699   1.507   7.826
26532SOL     OW81434   6.346  11.494   3.088
26532SOL    HW181435   6.366  11.401   3.084
26532SOL    HW281436   6.361  11.526   3.000
26533SOL     OW81437   8.937   3.683   9.481
26533SOL    HW181438   9.011   3.704   9.539
26533SOL    HW281439   8.896   3.767   9.462
26534SOL     OW81440   2.370  13.829   2.313
26534SOL    HW181441   2.459  13.810   2.341
26534SOL    HW281442   2.377  13.910   2.264
26535SOL     OW81443   6.966   0.786  11.459
26535SOL    HW181444   6.931   0.785  11.548
26535SOL    HW281445   7.049   0.740  11.465
26536SOL     OW81446  13.349  11.298   3.805
26536SOL    HW181447  13.409  11.225   3.819
26536SOL    HW281448  13.388  11.371   3.853
26537SOL     OW81449   1.161  13.483   8.389
26537SOL    HW181450   1.083  13.462   8.338
26537SOL    HW281451   1.136  13.560   8.441
26538SOL     OW81452   8.118   3.051   3.256
26538SOL    HW181453   8.191   3.111   3.272
26538SOL    HW281454   8.154   2.983   3.199
26539SOL     OW81455   6.931   3.549   4.480
26539SOL    HW181456   6.941   3.577   4.571
26539SOL    HW281457   6.837   3.539   4.468
26540SOL     OW81458  13.775   1.703   9.858
26540SOL    HW181459  13.717   1.777   9.840
26540SOL    HW281460  13.786   1.703   9.953
26541SOL     OW81461   2.079  13.562   6.558
26541SOL    HW181462   2.108  13.507   6.486
26541SOL    HW281463   2.012  13.618   6.519
26542SOL     OW81464  10.713   6.294   6.749
26542SOL    HW181465  10.629   6.261   6.718
26542SOL    HW281466  10.778   6.236   6.709
26543SOL     OW81467   6.380   6.057   9.857
26543SOL    HW181468   6.436   5.979   9.861
26543SOL    HW281469   6.303   6.033   9.909
26544SOL     OW81470  12.606   6.941   4.424
26544SOL    HW181471  12.696   6.921   4.398
26544SOL    HW281472  12.614   6.976   4.512
26545SOL     OW81473   7.799   9.793  12.815
26545SOL    HW181474   7.851   9.861  12.858
26545SOL    HW281475   7.709   9.824  12.821
26546SOL     OW81476  10.256   4.043  14.060
26546SOL    HW181477  10.346   4.077  14.068
26546SOL    HW281478  10.220   4.091  13.985
26547SOL     OW81479   7.280  14.775   5.031
26547SOL    HW181480   7.324  14.841   5.083
26547SOL    HW281481   7.316  14.785   4.943
26548SOL     OW81482  11.165  11.381   1.012
26548SOL    HW181483  11.203  11.423   1.089
26548SOL    HW281484  11.077  11.417   1.006
26549SOL     OW81485   3.894   1.245  10.691
26549SOL    HW181486   3.838   1.265  10.616
26549SOL    HW281487   3.833   1.214  10.759
26550SOL     OW81488   3.669   6.991   6.267
26550SOL    HW181489   3.655   7.028   6.180
26550SOL    HW281490   3.645   6.899   6.258
26551SOL     OW81491   4.282   2.584  10.522
26551SOL    HW181492   4.361   2.586  10.468
26551SOL    HW281493   4.315   2.571  10.611
26552SOL     OW81494  14.060   1.319  14.056
26552SOL    HW181495  14.075   1.352  13.967
26552SOL    HW281496  14.147   1.306  14.091
26553SOL     OW81497   3.115   7.893   4.174
26553SOL    HW181498   3.141   7.863   4.088
26553SOL    HW281499   3.196   7.919   4.217
26554SOL     OW81500   5.897   3.919   9.950
26554SOL    HW181501   5.934   3.865   9.881
26554SOL    HW281502   5.803   3.907   9.943
26555SOL     OW81503   9.477   3.685  10.969
26555SOL    HW181504   9.514   3.771  10.954
26555SOL    HW281505   9.383   3.701  10.984
26556SOL     OW81506   9.555   3.485   7.601
26556SOL    HW181507   9.570   3.437   7.519
26556SOL    HW281508   9.641   3.488   7.642
26557SOL     OW81509  12.797   4.510   0.291
26557SOL    HW181510  12.715   4.560   0.284
26557SOL    HW281511  12.778   4.427   0.247
26558SOL     OW81512   5.680  14.388   1.202
26558SOL    HW181513   5.590  14.412   1.179
26558SOL    HW281514   5.688  14.297   1.172
26559SOL     OW81515   3.218   5.797  10.710
26559SOL    HW181516   3.147   5.781  10.648
26559SOL    HW281517   3.227   5.715  10.758
26560SOL     OW81518   1.899   0.969  11.709
26560SOL    HW181519   1.865   0.912  11.640
26560SOL    HW281520   1.990   0.985  11.685
26561SOL     OW81521  12.492   0.336   4.778
26561SOL    HW181522  12.561   0.378   4.726
26561SOL    HW281523  12.537   0.266   4.825
26562SOL     OW81524  11.356  12.768   7.565
26562SOL    HW181525  11.286  12.762   7.500
26562SOL    HW281526  11.332  12.704   7.632
26563SOL     OW81527   7.254   5.500   2.208
26563SOL    HW181528   7.199   5.537   2.138
26563SOL    HW281529   7.335   5.475   2.164
26564SOL     OW81530   2.094  13.442  10.819
26564SOL    HW181531   2.067  13.404  10.735
26564SOL    HW281532   2.019  13.494  10.847
26565SOL     OW81533   0.259   3.197  11.475
26565SOL    HW181534   0.261   3.201  11.380
26565SOL    HW281535   0.201   3.269  11.501
26566SOL     OW81536   2.134  11.849  10.350
26566SOL    HW181537   2.153  11.942  10.356
26566SOL    HW281538   2.156  11.826  10.259
26567SOL     OW81539  10.483   4.563  13.429
26567SOL    HW181540  10.468   4.516  13.347
26567SOL    HW281541  10.396   4.573  13.467
26568SOL     OW81542  12.652  11.197  14.647
26568SOL    HW181543  12.587  11.247  14.598
26568SOL    HW281544  12.683  11.258  14.714
26569SOL     OW81545  14.177   2.884   9.852
26569SOL    HW181546  14.170   2.957   9.914
26569SOL    HW281547  14.113   2.905   9.784
26570SOL     OW81548   5.585   4.192   6.622
26570SOL    HW181549   5.565   4.145   6.703
26570SOL    HW281550   5.676   4.169   6.603
26571SOL     OW81551  10.395  14.659  14.317
26571SOL    HW181552  10.462  14.710  14.272
26571SOL    HW281553  10.414  14.671  14.410
26572SOL     OW81554   2.697   5.382   8.588
26572SOL    HW181555   2.766   5.445   8.610
26572SOL    HW281556   2.683   5.394   8.494
26573SOL     OW81557  11.930   6.608   8.181
26573SOL    HW181558  11.991   6.542   8.211
26573SOL    HW281559  11.849   6.589   8.228
26574SOL     OW81560   5.957  10.443  12.442
26574SOL    HW181561   5.992  10.464  12.529
26574SOL    HW281562   5.958  10.347  12.438
26575SOL     OW81563   9.558   6.553  14.260
26575SOL    HW181564   9.629   6.550  14.195
26575SOL    HW281565   9.602   6.579  14.341
26576SOL     OW81566   7.463   4.958   7.432
26576SOL    HW181567   7.414   4.934   7.510
26576SOL    HW281568   7.470   4.877   7.382
26577SOL     OW81569   9.062   5.922   8.515
26577SOL    HW181570   9.140   5.971   8.491
26577SOL    HW281571   9.095   5.839   8.551
26578SOL     OW81572  12.708   8.101   1.576
26578SOL    HW181573  12.800   8.126   1.569
26578SOL    HW281574  12.660   8.169   1.529
26579SOL     OW81575  13.259   5.004  10.542
26579SOL    HW181576  13.253   4.918  10.582
26579SOL    HW281577  13.236   4.989  10.450
26580SOL     OW81578   5.277   7.317   4.378
26580SOL    HW181579   5.237   7.303   4.464
26580SOL    HW281580   5.211   7.286   4.316
26581SOL     OW81581   4.375   7.032   8.743
26581SOL    HW181582   4.422   6.951   8.764
26581SOL    HW281583   4.289   7.003   8.713
26582SOL     OW81584   1.405  10.127   7.646
26582SOL    HW181585   1.467  10.199   7.643
26582SOL    HW281586   1.320  10.167   7.629
26583SOL     OW81587  13.720   8.750   3.880
26583SOL    HW181588  13.699   8.726   3.790
26583SOL    HW281589  13.700   8.672   3.932
26584SOL     OW81590  12.508  13.238   8.254
26584SOL    HW181591  12.584  13.273   8.209
26584SOL    HW281592  12.544  13.175   8.317
26585SOL     OW81593  10.864   0.443   9.387
26585SOL    HW181594  10.919   0.377   9.429
26585SOL    HW281595  10.791   0.393   9.350
26586SOL     OW81596   0.323   6.737  13.709
26586SOL    HW181597   0.264   6.711  13.780
26586SOL    HW281598   0.329   6.833  13.717
26587SOL     OW81599   0.667  12.763   6.310
26587SOL    HW181600   0.699  12.677   6.284
26587SOL    HW281601   0.745  12.811   6.336
26588SOL     OW81602   8.418   9.834   6.334
26588SOL    HW181603   8.329   9.867   6.322
26588SOL    HW281604   8.430   9.771   6.263
26589SOL     OW81605  14.659   9.763  10.971
26589SOL    HW181606  14.708   9.771  11.053
26589SOL    HW281607  14.591   9.830  10.977
26590SOL     OW81608  14.837   3.277  10.709
26590SOL    HW181609  14.790   3.358  10.724
26590SOL    HW281610  14.822   3.257  10.617
26591SOL     OW81611   7.221  10.183   3.407
26591SOL    HW181612   7.277  10.224   3.473
26591SOL    HW281613   7.191  10.102   3.447
26592SOL     OW81614   1.466  11.396   5.964
26592SOL    HW181615   1.402  11.324   5.962
26592SOL    HW281616   1.522  11.377   6.039
26593SOL     OW81617  14.737   1.209   7.768
26593SOL    HW181618  14.722   1.176   7.857
26593SOL    HW281619  14.761   1.301   7.780
26594SOL     OW81620   0.838   6.968   6.643
26594SOL    HW181621   0.909   6.920   6.687
26594SOL    HW281622   0.796   6.902   6.588
26595SOL     OW81623   0.759   7.057   4.398
26595SOL    HW181624   0.695   7.061   4.469
26595SOL    HW281625   0.822   6.990   4.427
26596SOL     OW81626  11.416   5.803   0.332
26596SOL    HW181627  11.397   5.837   0.420
26596SOL    HW281628  11.383   5.713   0.333
26597SOL     OW81629   1.789   9.740  12.044
26597SOL    HW181630   1.703   9.707  12.070
26597SOL    HW281631   1.776   9.834  12.033
26598SOL     OW81632  10.788   1.102   8.036
26598SOL    HW181633  10.711   1.089   8.091
26598SOL    HW281634  10.783   1.033   7.970
26599SOL     OW81635   2.308   2.381   3.119
26599SOL    HW181636   2.273   2.293   3.105
26599SOL    HW281637   2.239   2.426   3.167
26600SOL     OW81638  10.393   0.448  11.362
26600SOL    HW181639  10.414   0.456  11.269
26600SOL    HW281640  10.392   0.353  11.378
26601SOL     OW81641   5.784   7.376   5.402
26601SOL    HW181642   5.807   7.437   5.331
26601SOL    HW281643   5.703   7.412   5.438
26602SOL     OW81644  11.766   8.694  12.688
26602SOL    HW181645  11.750   8.770  12.632
26602SOL    HW281646  11.831   8.642  12.641
26603SOL     OW81647   2.480   2.305  12.383
26603SOL    HW181648   2.573   2.280  12.390
26603SOL    HW281649   2.466   2.316  12.289
26604SOL     OW81650  12.304   4.716   5.568
26604SOL    HW181651  12.360   4.654   5.522
26604SOL    HW281652  12.352   4.736   5.649
26605SOL     OW81653   6.786   4.323   3.934
26605SOL    HW181654   6.743   4.257   3.990
26605SOL    HW281655   6.783   4.403   3.986
26606SOL     OW81656   5.730   0.801   7.696
26606SOL    HW181657   5.697   0.735   7.756
26606SOL    HW281658   5.655   0.859   7.682
26607SOL     OW81659   9.414  13.144  10.764
26607SOL    HW181660   9.350  13.078  10.793
26607SOL    HW281661   9.360  13.216  10.731
26608SOL     OW81662  12.968  14.223   5.890
26608SOL    HW181663  12.962  14.272   5.972
26608SOL    HW281664  13.030  14.272   5.837
26609SOL     OW81665   7.577  13.385   3.261
26609SOL    HW181666   7.635  13.460   3.278
26609SOL    HW281667   7.515  13.419   3.197
26610SOL     OW81668  12.839   3.255   5.636
26610SOL    HW181669  12.781   3.330   5.652
26610SOL    HW281670  12.783   3.191   5.593
26611SOL     OW81671  14.361   0.263   6.881
26611SOL    HW181672  14.308   0.255   6.960
26611SOL    HW281673  14.341   0.184   6.830
26612SOL     OW81674   8.375   8.541   1.884
26612SOL    HW181675   8.293   8.589   1.882
26612SOL    HW281676   8.443   8.609   1.884
26613SOL     OW81677  13.796  12.538   0.143
26613SOL    HW181678  13.719  12.525   0.199
26613SOL    HW281679  13.760  12.557   0.057
26614SOL     OW81680   4.432   4.083   6.095
26614SOL    HW181681   4.353   4.113   6.142
26614SOL    HW281682   4.489   4.159   6.094
26615SOL     OW81683   1.406  10.838   8.031
26615SOL    HW181684   1.399  10.902   8.102
26615SOL    HW281685   1.442  10.760   8.074
26616SOL     OW81686   0.045   2.430   8.016
26616SOL    HW181687   0.031   2.445   8.109
26616SOL    HW281688  14.844   2.467   7.974
26617SOL     OW81689  14.621   5.753   1.092
26617SOL    HW181690  14.650   5.678   1.039
26617SOL    HW281691  14.529   5.733   1.112
26618SOL     OW81692  12.534   3.477  14.421
26618SOL    HW181693  12.493   3.400  14.381
26618SOL    HW281694  12.619   3.444  14.452
26619SOL     OW81695   2.629  12.366   8.194
26619SOL    HW181696   2.654  12.402   8.110
26619SOL    HW281697   2.537  12.342   8.183
26620SOL     OW81698   1.574   3.460   1.373
26620SOL    HW181699   1.588   3.511   1.294
26620SOL    HW281700   1.607   3.515   1.444
26621SOL     OW81701   3.613   8.487   2.949
26621SOL    HW181702   3.594   8.432   3.025
26621SOL    HW281703   3.706   8.511   2.960
26622SOL     OW81704   1.294   8.856  10.504
26622SOL    HW181705   1.204   8.823  10.510
26622SOL    HW281706   1.295   8.933  10.560
26623SOL     OW81707  13.113   4.254   3.643
26623SOL    HW181708  13.169   4.200   3.587
26623SOL    HW281709  13.173   4.289   3.710
26624SOL     OW81710   9.872   6.959   4.969
26624SOL    HW181711   9.942   6.960   4.903
26624SOL    HW281712   9.835   7.047   4.967
26625SOL     OW81713  10.900   1.943   9.192
26625SOL    HW181714  10.853   1.862   9.174
26625SOL    HW281715  10.967   1.918   9.257
26626SOL     OW81716   2.015   1.087   5.118
26626SOL    HW181717   2.068   1.022   5.164
26626SOL    HW281718   2.026   1.167   5.169
26627SOL     OW81719   0.856   6.220   7.151
26627SOL    HW181720   0.938   6.247   7.191
26627SOL    HW281721   0.844   6.279   7.077
26628SOL     OW81722  14.082  13.543   7.384
26628SOL    HW181723  14.146  13.489   7.431
26628SOL    HW281724  14.023  13.575   7.453
26629SOL     OW81725   1.078   2.691   4.148
26629SOL    HW181726   1.082   2.600   4.178
26629SOL    HW281727   1.080   2.743   4.229
26630SOL     OW81728   3.618   6.301   4.733
26630SOL    HW181729   3.630   6.237   4.803
26630SOL    HW281730   3.690   6.363   4.745
26631SOL     OW81731   3.849   6.879  12.347
26631SOL    HW181732   3.938   6.854  12.368
26631SOL    HW281733   3.836   6.850  12.257
26632SOL     OW81734   8.150   3.756   7.899
26632SOL    HW181735   8.216   3.781   7.963
26632SOL    HW281736   8.151   3.827   7.834
26633SOL     OW81737   0.843   3.293   7.017
26633SOL    HW181738   0.915   3.263   7.073
26633SOL    HW281739   0.867   3.263   6.929
26634SOL     OW81740  11.146  10.415  13.408
26634SOL    HW181741  11.123  10.430  13.500
26634SOL    HW281742  11.107  10.489  13.362
26635SOL     OW81743   2.792  12.389  12.578
26635SOL    HW181744   2.834  12.379  12.663
26635SOL    HW281745   2.792  12.302  12.540
26636SOL     OW81746   1.647  12.061   8.286
26636SOL    HW181747   1.671  11.969   8.286
26636SOL    HW281748   1.590  12.071   8.362
26637SOL     OW81749   7.014   4.784  13.061
26637SOL    HW181750   6.936   4.839  13.050
26637SOL    HW281751   7.042   4.765  12.971
26638SOL     OW81752   2.086  10.277   5.434
26638SOL    HW181753   2.119  10.364   5.412
26638SOL    HW281754   2.089  10.229   5.351
26639SOL     OW81755   4.666   6.385  14.763
26639SOL    HW181756   4.669   6.349  14.675
26639SOL    HW281757   4.663   6.309  14.821
26640SOL     OW81758   4.764   0.458   3.627
26640SOL    HW181759   4.779   0.537   3.679
26640SOL    HW281760   4.825   0.466   3.554
26641SOL     OW81761  10.679   3.775  12.035
26641SOL    HW181762  10.708   3.850  11.983
26641SOL    HW281763  10.725   3.700  11.997
26642SOL     OW81764   3.204   8.321  11.088
26642SOL    HW181765   3.266   8.312  11.160
26642SOL    HW281766   3.256   8.360  11.017
26643SOL     OW81767   9.174  14.441   7.419
26643SOL    HW181768   9.090  14.440   7.372
26643SOL    HW281769   9.224  14.510   7.375
26644SOL     OW81770   0.521  12.070   3.074
26644SOL    HW181771   0.612  12.094   3.093
26644SOL    HW281772   0.475  12.154   3.068
26645SOL     OW81773   2.426  10.366   0.882
26645SOL    HW181774   2.406  10.414   0.801
26645SOL    HW281775   2.483  10.425   0.931
26646SOL     OW81776   6.209   3.269  14.766
26646SOL    HW181777   6.269   3.244  14.695
26646SOL    HW281778   6.266   3.279  14.843
26647SOL     OW81779  13.473   8.562   6.549
26647SOL    HW181780  13.561   8.600   6.554
26647SOL    HW281781  13.418   8.623   6.599
26648SOL     OW81782   0.585  13.790   7.965
26648SOL    HW181783   0.522  13.725   7.995
26648SOL    HW281784   0.653  13.739   7.921
26649SOL     OW81785   7.992   6.188   1.744
26649SOL    HW181786   8.052   6.165   1.673
26649SOL    HW281787   7.959   6.104   1.776
26650SOL     OW81788   1.252   6.745  10.666
26650SOL    HW181789   1.247   6.666  10.720
26650SOL    HW281790   1.303   6.807  10.719
26651SOL     OW81791   7.949   0.241   2.336
26651SOL    HW181792   7.943   0.216   2.428
26651SOL    HW281793   7.963   0.159   2.289
26652SOL     OW81794  10.819  14.643   3.903
26652SOL    HW181795  10.818  14.585   3.827
26652SOL    HW281796  10.908  14.677   3.907
26653SOL     OW81797   4.784   0.838   4.749
26653SOL    HW181798   4.833   0.782   4.688
26653SOL    HW281799   4.754   0.779   4.817
26654SOL     OW81800  14.394   9.305  11.389
26654SOL    HW181801  14.444   9.288  11.469
26654SOL    HW281802  14.437   9.382  11.351
26655SOL     OW81803   3.328   7.422   3.754
26655SOL    HW181804   3.388   7.348   3.750
26655SOL    HW281805   3.283   7.421   3.670
26656SOL     OW81806  13.142   8.380   2.483
26656SOL    HW181807  13.221   8.417   2.522
26656SOL    HW281808  13.085   8.362   2.558
26657SOL     OW81809  12.522   2.032  12.151
26657SOL    HW181810  12.586   2.103  12.143
26657SOL    HW281811  12.554   1.980  12.225
26658SOL     OW81812   9.316   4.106   6.298
26658SOL    HW181813   9.303   4.098   6.393
26658SOL    HW281814   9.319   4.200   6.282
26659SOL     OW81815   7.396   8.519   2.203
26659SOL    HW181816   7.467   8.573   2.238
26659SOL    HW281817   7.319   8.577   2.204
26660SOL     OW81818   5.354   8.997   1.408
26660SOL    HW181819   5.325   8.908   1.428
26660SOL    HW281820   5.378   9.033   1.493
26661SOL     OW81821   1.732   9.342   9.720
26661SOL    HW181822   1.787   9.389   9.657
26661SOL    HW281823   1.644   9.378   9.705
26662SOL     OW81824  11.220  12.479   4.804
26662SOL    HW181825  11.151  12.495   4.868
26662SOL    HW281826  11.174  12.461   4.722
26663SOL     OW81827  14.430   9.570   8.633
26663SOL    HW181828  14.510   9.616   8.611
26663SOL    HW281829  14.397   9.538   8.549
26664SOL     OW81830   3.049   4.666   7.733
26664SOL    HW181831   3.122   4.667   7.794
26664SOL    HW281832   2.975   4.699   7.783
26665SOL     OW81833   1.663   1.817   6.418
26665SOL    HW181834   1.607   1.744   6.391
26665SOL    HW281835   1.602   1.885   6.446
26666SOL     OW81836  13.801  10.272   6.255
26666SOL    HW181837  13.848  10.205   6.304
26666SOL    HW281838  13.736  10.224   6.203
26667SOL     OW81839  13.403   3.074   4.352
26667SOL    HW181840  13.467   3.086   4.281
26667SOL    HW281841  13.393   2.979   4.358
26668SOL     OW81842   6.628   7.506  14.136
26668SOL    HW181843   6.637   7.571  14.067
26668SOL    HW281844   6.718   7.493  14.168
26669SOL     OW81845   7.169   8.842  10.163
26669SOL    HW181846   7.229   8.894  10.218
26669SOL    HW281847   7.188   8.751  10.186
26670SOL     OW81848   9.789   2.145   2.022
26670SOL    HW181849   9.823   2.059   2.046
26670SOL    HW281850   9.698   2.130   1.999
26671SOL     OW81851   7.054   3.276   9.704
26671SOL    HW181852   6.972   3.228   9.719
26671SOL    HW281853   7.076   3.258   9.613
26672SOL     OW81854  11.690  14.630  14.280
26672SOL    HW181855  11.601  14.660  14.296
26672SOL    HW281856  11.702  14.556  14.340
26673SOL     OW81857  10.509   5.662   4.297
26673SOL    HW181858  10.571   5.688   4.229
26673SOL    HW281859  10.555   5.674   4.379
26674SOL     OW81860   6.814  10.897   3.198
26674SOL    HW181861   6.756  10.949   3.142
26674SOL    HW281862   6.896  10.946   3.199
26675SOL     OW81863   8.568   1.057  12.059
26675SOL    HW181864   8.600   1.046  12.148
26675SOL    HW281865   8.633   1.113  12.016
26676SOL     OW81866   7.472  13.992   4.889
26676SOL    HW181867   7.412  14.053   4.846
26676SOL    HW281868   7.431  13.906   4.876
26677SOL     OW81869   6.116  11.543   5.602
26677SOL    HW181870   6.112  11.636   5.625
26677SOL    HW281871   6.102  11.541   5.508
26678SOL     OW81872   3.524   0.497  14.109
26678SOL    HW181873   3.445   0.488  14.056
26678SOL    HW281874   3.506   0.571  14.167
26679SOL     OW81875   4.016  11.648   4.330
26679SOL    HW181876   4.052  11.569   4.370
26679SOL    HW281877   3.922  11.645   4.351
26680SOL     OW81878   8.074   2.291   7.702
26680SOL    HW181879   8.083   2.374   7.749
26680SOL    HW281880   8.047   2.228   7.769
26681SOL     OW81881   6.542   4.732   1.857
26681SOL    HW181882   6.513   4.806   1.911
26681SOL    HW281883   6.529   4.761   1.767
26682SOL     OW81884   1.140   8.861   5.453
26682SOL    HW181885   1.052   8.843   5.487
26682SOL    HW281886   1.131   8.853   5.358
26683SOL     OW81887   5.633  13.849   6.396
26683SOL    HW181888   5.553  13.805   6.423
26683SOL    HW281889   5.702  13.784   6.409
26684SOL     OW81890   7.733   4.984   3.734
26684SOL    HW181891   7.714   5.029   3.816
26684SOL    HW281892   7.726   5.053   3.667
26685SOL     OW81893   9.717   8.507   8.338
26685SOL    HW181894   9.681   8.581   8.388
26685SOL    HW281895   9.726   8.541   8.249
26686SOL     OW81896  13.235   5.278   3.156
26686SOL    HW181897  13.330   5.279   3.153
26686SOL    HW281898  13.210   5.370   3.149
26687SOL     OW81899  13.728   8.303   0.127
26687SOL    HW181900  13.816   8.340   0.120
26687SOL    HW281901  13.716   8.254   0.045
26688SOL     OW81902   0.888   4.606   1.176
26688SOL    HW181903   0.863   4.691   1.211
26688SOL    HW281904   0.961   4.625   1.116
26689SOL     OW81905   6.468   5.641   9.083
26689SOL    HW181906   6.521   5.665   9.158
26689SOL    HW281907   6.529   5.599   9.022
26690SOL     OW81908   7.445   8.061   5.563
26690SOL    HW181909   7.465   7.967   5.560
26690SOL    HW281910   7.361   8.066   5.608
26691SOL     OW81911   8.190   0.505   6.182
26691SOL    HW181912   8.261   0.493   6.246
26691SOL    HW281913   8.140   0.423   6.186
26692SOL     OW81914   6.051   9.577   3.175
26692SOL    HW181915   6.084   9.516   3.109
26692SOL    HW281916   6.129   9.617   3.212
26693SOL     OW81917   8.493   8.884  11.090
26693SOL    HW181918   8.419   8.932  11.129
26693SOL    HW281919   8.565   8.946  11.092
26694SOL     OW81920   5.760  14.746   5.223
26694SOL    HW181921   5.843  14.722   5.264
26694SOL    HW281922   5.739  14.672   5.166
26695SOL     OW81923   4.688  10.885   8.161
26695SOL    HW181924   4.757  10.824   8.185
26695SOL    HW281925   4.724  10.937   8.089
26696SOL     OW81926  13.523  14.039  13.296
26696SOL    HW181927  13.515  13.947  13.321
26696SOL    HW281928  13.528  14.086  13.379
26697SOL     OW81929  12.938  13.777   2.410
26697SOL    HW181930  12.995  13.845   2.373
26697SOL    HW281931  12.980  13.753   2.493
26698SOL     OW81932   8.217   9.438  10.373
26698SOL    HW181933   8.276   9.363  10.366
26698SOL    HW281934   8.142   9.415  10.319
26699SOL     OW81935  13.292  11.393   2.364
26699SOL    HW181936  13.262  11.483   2.347
26699SOL    HW281937  13.213  11.347   2.392
26700SOL     OW81938   1.773   3.983  12.802
26700SOL    HW181939   1.726   3.949  12.726
26700SOL    HW281940   1.800   4.072  12.776
26701SOL     OW81941   2.917   0.513   3.463
26701SOL    HW181942   2.981   0.446   3.488
26701SOL    HW281943   2.832   0.476   3.488
26702SOL     OW81944  13.720   5.201   5.650
26702SOL    HW181945  13.736   5.287   5.609
26702SOL    HW281946  13.723   5.219   5.744
26703SOL     OW81947   4.138   2.625   0.443
26703SOL    HW181948   4.071   2.566   0.410
26703SOL    HW281949   4.146   2.603   0.536
26704SOL     OW81950  12.792   5.559   7.587
26704SOL    HW181951  12.859   5.499   7.555
26704SOL    HW281952  12.791   5.546   7.682
26705SOL     OW81953  12.571   0.402   5.469
26705SOL    HW181954  12.489   0.450   5.455
26705SOL    HW281955  12.635   0.469   5.492
26706SOL     OW81956   2.782   9.125   9.549
26706SOL    HW181957   2.798   9.038   9.584
26706SOL    HW281958   2.745   9.109   9.462
26707SOL     OW81959   9.500  12.296   2.634
26707SOL    HW181960   9.439  12.223   2.626
26707SOL    HW281961   9.529  12.314   2.545
26708SOL     OW81962   9.354  13.718  12.096
26708SOL    HW181963   9.316  13.648  12.043
26708SOL    HW281964   9.442  13.687  12.118
26709SOL     OW81965   1.615   9.819   7.920
26709SOL    HW181966   1.653   9.877   7.855
26709SOL    HW281967   1.530   9.794   7.884
26710SOL     OW81968   5.914  11.915  12.148
26710SOL    HW181969   5.884  11.846  12.089
26710SOL    HW281970   6.009  11.906  12.150
26711SOL     OW81971  13.807   6.597  12.855
26711SOL    HW181972  13.762   6.569  12.934
26711SOL    HW281973  13.897   6.564  12.866
26712SOL     OW81974   4.239   3.544   4.319
26712SOL    HW181975   4.152   3.550   4.280
26712SOL    HW281976   4.245   3.619   4.378
26713SOL     OW81977   7.405   3.586  13.837
26713SOL    HW181978   7.413   3.528  13.761
26713SOL    HW281979   7.401   3.674  13.801
26714SOL     OW81980   6.502   0.908   7.926
26714SOL    HW181981   6.532   0.999   7.919
26714SOL    HW281982   6.409   0.912   7.903
26715SOL     OW81983  11.066  12.823  13.007
26715SOL    HW181984  11.022  12.825  12.922
26715SOL    HW281985  10.995  12.824  13.071
26716SOL     OW81986   7.200   9.508  13.157
26716SOL    HW181987   7.128   9.446  13.160
26716SOL    HW281988   7.207   9.542  13.246
26717SOL     OW81989   8.679   8.506   2.219
26717SOL    HW181990   8.587   8.529   2.235
26717SOL    HW281991   8.675   8.433   2.157
26718SOL     OW81992   1.803  10.791   1.737
26718SOL    HW181993   1.768  10.879   1.753
26718SOL    HW281994   1.736  10.732   1.770
26719SOL     OW81995   6.522   4.584   4.371
26719SOL    HW181996   6.475   4.520   4.425
26719SOL    HW281997   6.454   4.625   4.318
26720SOL     OW81998  12.850   2.376   1.632
26720SOL    HW181999  12.772   2.332   1.665
26720SOL    HW282000  12.901   2.307   1.590
26721SOL     OW82001   5.487   3.654   9.933
26721SOL    HW182002   5.540   3.577   9.953
26721SOL    HW282003   5.418   3.654  10.000
26722SOL     OW82004  10.963   2.843  10.499
26722SOL    HW182005  10.998   2.801  10.420
26722SOL    HW282006  11.034   2.840  10.562
26723SOL     OW82007   1.417   0.535   8.381
26723SOL    HW182008   1.446   0.540   8.290
26723SOL    HW282009   1.348   0.469   8.380
26724SOL     OW82010   7.711   8.776   6.659
26724SOL    HW182011   7.736   8.714   6.728
26724SOL    HW282012   7.617   8.764   6.650
26725SOL     OW82013   0.649   3.895   8.740
26725SOL    HW182014   0.660   3.826   8.804
26725SOL    HW282015   0.577   3.948   8.774
26726SOL     OW82016   6.072   5.006   7.373
26726SOL    HW182017   6.127   4.928   7.366
26726SOL    HW282018   6.116   5.061   7.438
26727SOL     OW82019   3.149   4.186   3.074
26727SOL    HW182020   3.231   4.178   3.027
26727SOL    HW282021   3.096   4.245   3.021
26728SOL     OW82022   8.118   0.920  10.416
26728SOL    HW182023   8.073   0.915  10.331
26728SOL    HW282024   8.124   1.014  10.434
26729SOL     OW82025   6.626  11.248   0.534
26729SOL    HW182026   6.667  11.282   0.614
26729SOL    HW282027   6.627  11.153   0.545
26730SOL     OW82028   4.869   0.556   3.054
26730SOL    HW182029   4.795   0.522   3.003
26730SOL    HW282030   4.940   0.494   3.039
26731SOL     OW82031   2.816  12.724  13.157
26731SOL    HW182032   2.838  12.642  13.113
26731SOL    HW282033   2.828  12.791  13.090
26732SOL     OW82034   4.194   9.110   3.697
26732SOL    HW182035   4.219   9.197   3.668
26732SOL    HW282036   4.099   9.111   3.700
26733SOL     OW82037   1.540   3.379   8.136
26733SOL    HW182038   1.555   3.472   8.117
26733SOL    HW282039   1.628   3.345   8.153
26734SOL     OW82040  13.026   8.992   7.660
26734SOL    HW182041  13.120   9.009   7.655
26734SOL    HW282042  13.006   8.945   7.578
26735SOL     OW82043   0.982   2.336   6.626
26735SOL    HW182044   0.957   2.261   6.572
26735SOL    HW282045   0.908   2.349   6.685
26736SOL     OW82046   9.068   1.678   3.620
26736SOL    HW182047   8.975   1.655   3.625
26736SOL    HW282048   9.070   1.761   3.573
26737SOL     OW82049   2.979  11.926   3.064
26737SOL    HW182050   2.979  11.995   2.998
26737SOL    HW282051   3.060  11.878   3.049
26738SOL     OW82052   9.060   6.362  11.845
26738SOL    HW182053   9.138   6.336  11.795
26738SOL    HW282054   9.089   6.359  11.937
26739SOL     OW82055  10.304   4.505   8.992
26739SOL    HW182056  10.277   4.546   8.910
26739SOL    HW282057  10.387   4.462   8.972
26740SOL     OW82058  11.087   3.187   8.404
26740SOL    HW182059  11.087   3.107   8.457
26740SOL    HW282060  11.005   3.183   8.354
26741SOL     OW82061  12.752   3.018   8.065
26741SOL    HW182062  12.705   3.098   8.042
26741SOL    HW282063  12.790   3.036   8.151
26742SOL     OW82064   2.822  14.013   2.481
26742SOL    HW182065   2.859  13.962   2.553
26742SOL    HW282066   2.849  14.103   2.498
26743SOL     OW82067   4.868  10.812   5.316
26743SOL    HW182068   4.890  10.827   5.224
26743SOL    HW282069   4.813  10.733   5.315
26744SOL     OW82070  11.014   1.814   3.019
26744SOL    HW182071  10.972   1.775   2.943
26744SOL    HW282072  11.091   1.859   2.984
26745SOL     OW82073   6.185   7.950   6.506
26745SOL    HW182074   6.267   7.913   6.538
26745SOL    HW282075   6.141   7.983   6.585
26746SOL     OW82076  12.149  13.480   8.229
26746SOL    HW182077  12.187  13.452   8.312
26746SOL    HW282078  12.187  13.567   8.214
26747SOL     OW82079   4.751  10.676   0.145
26747SOL    HW182080   4.695  10.648   0.217
26747SOL    HW282081   4.727  10.618   0.073
26748SOL     OW82082  13.279   9.038  10.769
26748SOL    HW182083  13.296   9.095  10.694
26748SOL    HW282084  13.364   9.000  10.790
26749SOL     OW82085  12.486   0.916   3.605
26749SOL    HW182086  12.436   0.875   3.675
26749SOL    HW282087  12.419   0.950   3.545
26750SOL     OW82088   8.959   8.517   9.220
26750SOL    HW182089   8.957   8.424   9.243
26750SOL    HW282090   8.998   8.518   9.132
26751SOL     OW82091   1.342  14.125   4.801
26751SOL    HW182092   1.294  14.053   4.760
26751SOL    HW282093   1.286  14.202   4.788
26752SOL     OW82094  14.032   0.948   6.434
26752SOL    HW182095  13.989   0.872   6.473
26752SOL    HW282096  13.960   1.003   6.403
26753SOL     OW82097  13.529   2.510  10.922
26753SOL    HW182098  13.474   2.563  10.865
26753SOL    HW282099  13.618   2.529  10.894
26754SOL     OW82100   9.322  13.150   2.203
26754SOL    HW182101   9.279  13.067   2.181
26754SOL    HW282102   9.307  13.160   2.297
26755SOL     OW82103   9.007   3.974   3.842
26755SOL    HW182104   8.993   3.882   3.820
26755SOL    HW282105   8.939   3.994   3.906
26756SOL     OW82106   8.009  10.878   7.198
26756SOL    HW182107   8.079  10.824   7.161
26756SOL    HW282108   7.952  10.815   7.242
26757SOL     OW82109   6.913   9.757   5.379
26757SOL    HW182110   6.833   9.783   5.423
26757SOL    HW282111   6.982   9.810   5.420
26758SOL     OW82112  12.688   6.728  10.200
26758SOL    HW182113  12.682   6.817  10.234
26758SOL    HW282114  12.598   6.694  10.206
26759SOL     OW82115   8.577  12.566   8.907
26759SOL    HW182116   8.541  12.655   8.911
26759SOL    HW282117   8.578  12.546   8.813
26760SOL     OW82118  13.716   7.600   2.027
26760SOL    HW182119  13.628   7.630   2.047
26760SOL    HW282120  13.770   7.679   2.029
26761SOL     OW82121   6.450   7.170   9.873
26761SOL    HW182122   6.371   7.186   9.924
26761SOL    HW282123   6.422   7.174   9.782
26762SOL     OW82124   7.400   2.319   7.796
26762SOL    HW182125   7.389   2.309   7.702
26762SOL    HW282126   7.494   2.338   7.807
26763SOL     OW82127   9.555  14.305   1.396
26763SOL    HW182128   9.524  14.395   1.410
26763SOL    HW282129   9.523  14.282   1.309
26764SOL     OW82130   8.231   4.393   0.357
26764SOL    HW182131   8.290   4.345   0.299
26764SOL    HW282132   8.149   4.399   0.308
26765SOL     OW82133  10.795   0.526   3.842
26765SOL    HW182134  10.840   0.443   3.859
26765SOL    HW282135  10.702   0.503   3.840
26766SOL     OW82136   4.785  13.119   8.275
26766SOL    HW182137   4.766  13.212   8.277
26766SOL    HW282138   4.731  13.084   8.204
26767SOL     OW82139  10.209   5.320  14.497
26767SOL    HW182140  10.253   5.235  14.498
26767SOL    HW282141  10.124   5.303  14.458
26768SOL     OW82142  13.234   2.129   6.134
26768SOL    HW182143  13.236   2.224   6.122
26768SOL    HW282144  13.313   2.098   6.091
26769SOL     OW82145   8.925   8.235   2.891
26769SOL    HW182146   8.878   8.158   2.859
26769SOL    HW282147   9.018   8.214   2.876
26770SOL     OW82148   0.741   6.056  11.571
26770SOL    HW182149   0.774   6.011  11.649
26770SOL    HW282150   0.682   6.123  11.605
26771SOL     OW82151  12.492   0.457   3.738
26771SOL    HW182152  12.531   0.465   3.825
26771SOL    HW282153  12.563   0.481   3.678
26772SOL     OW82154  14.292   1.711  11.794
26772SOL    HW182155  14.260   1.645  11.732
26772SOL    HW282156  14.379   1.681  11.819
26773SOL     OW82157   8.835   9.055  11.606
26773SOL    HW182158   8.752   9.063  11.653
26773SOL    HW282159   8.855   9.144  11.576
26774SOL     OW82160  10.385   7.898   3.114
26774SOL    HW182161  10.461   7.842   3.133
26774SOL    HW282162  10.415   7.987   3.134
26775SOL     OW82163  10.538  12.605  14.021
26775SOL    HW182164  10.614  12.547  14.021
26775SOL    HW282165  10.500  12.595  14.109
26776SOL     OW82166   5.651   4.322   2.940
26776SOL    HW182167   5.630   4.400   2.889
26776SOL    HW282168   5.659   4.353   3.030
26777SOL     OW82169  10.927   4.466   6.934
26777SOL    HW182170  10.931   4.403   7.005
26777SOL    HW282171  10.993   4.531   6.956
26778SOL     OW82172   2.663  14.641  10.339
26778SOL    HW182173   2.719  14.612  10.411
26778SOL    HW282174   2.574  14.632  10.372
26779SOL     OW82175   8.228   9.255   1.652
26779SOL    HW182176   8.210   9.315   1.580
26779SOL    HW282177   8.232   9.169   1.610
26780SOL     OW82178   1.245   7.868   9.024
26780SOL    HW182179   1.152   7.856   9.004
26780SOL    HW282180   1.244   7.927   9.100
26781SOL     OW82181   8.684   1.762  11.140
26781SOL    HW182182   8.602   1.805  11.116
26781SOL    HW282183   8.675   1.673  11.105
26782SOL     OW82184   4.146   8.332  11.002
26782SOL    HW182185   4.190   8.316  10.918
26782SOL    HW282186   4.200   8.399  11.044
26783SOL     OW82187  13.100   7.475   6.544
26783SOL    HW182188  13.067   7.526   6.618
26783SOL    HW282189  13.128   7.541   6.480
26784SOL     OW82190   1.528  13.784   3.353
26784SOL    HW182191   1.433  13.781   3.342
26784SOL    HW282192   1.562  13.791   3.264
26785SOL     OW82193  13.218  10.738  14.041
26785SOL    HW182194  13.199  10.760  14.132
26785SOL    HW282195  13.138  10.695  14.010
26786SOL     OW82196   3.691   7.292   6.957
26786SOL    HW182197   3.722   7.245   6.880
26786SOL    HW282198   3.633   7.360   6.921
26787SOL     OW82199  12.945  13.680  10.766
26787SOL    HW182200  12.974  13.703  10.678
26787SOL    HW282201  12.953  13.762  10.815
26788SOL     OW82202   3.037   4.122   8.221
26788SOL    HW182203   3.106   4.110   8.155
26788SOL    HW282204   3.085   4.143   8.301
26789SOL     OW82205   2.067  11.966  13.243
26789SOL    HW182206   2.134  11.948  13.177
26789SOL    HW282207   2.107  11.938  13.325
26790SOL     OW82208   2.154   4.470  11.124
26790SOL    HW182209   2.132   4.380  11.102
26790SOL    HW282210   2.222   4.494  11.061
26791SOL     OW82211  14.318   5.548  13.613
26791SOL    HW182212  14.355   5.622  13.565
26791SOL    HW282213  14.326   5.573  13.705
26792SOL     OW82214   6.262  10.091   5.710
26792SOL    HW182215   6.347  10.113   5.748
26792SOL    HW282216   6.257  10.144   5.630
26793SOL     OW82217  10.426   1.687   2.513
26793SOL    HW182218  10.333   1.708   2.515
26793SOL    HW282219  10.466   1.750   2.573
26794SOL     OW82220   2.329   6.331  14.657
26794SOL    HW182221   2.298   6.362  14.572
26794SOL    HW282222   2.305   6.239  14.659
26795SOL     OW82223   2.444  10.200   6.545
26795SOL    HW182224   2.398  10.182   6.626
26795SOL    HW282225   2.533  10.222   6.572
26796SOL     OW82226   3.936   3.242  14.712
26796SOL    HW182227   3.976   3.192  14.783
26796SOL    HW282228   3.846   3.210  14.707
26797SOL     OW82229  13.609   1.110  13.073
26797SOL    HW182230  13.609   1.075  13.163
26797SOL    HW282231  13.518   1.131  13.056
26798SOL     OW82232  12.036  13.484  13.489
26798SOL    HW182233  11.987  13.497  13.571
26798SOL    HW282234  11.984  13.527  13.422
26799SOL     OW82235   1.101   6.372   1.310
26799SOL    HW182236   1.027   6.346   1.365
26799SOL    HW282237   1.177   6.369   1.368
26800SOL     OW82238  10.947   3.916   3.714
26800SOL    HW182239  11.042   3.901   3.712
26800SOL    HW282240  10.936   3.995   3.767
26801SOL     OW82241   7.787   4.401   1.669
26801SOL    HW182242   7.720   4.383   1.603
26801SOL    HW282243   7.786   4.324   1.726
26802SOL     OW82244   0.731  14.032   4.929
26802SOL    HW182245   0.811  14.014   4.879
26802SOL    HW282246   0.673  14.076   4.867
26803SOL     OW82247  10.852  14.511  12.940
26803SOL    HW182248  10.830  14.577  13.006
26803SOL    HW282249  10.938  14.537  12.907
26804SOL     OW82250   4.608   1.293  13.215
26804SOL    HW182251   4.675   1.230  13.242
26804SOL    HW282252   4.599   1.351  13.291
26805SOL     OW82253   0.583  14.361   7.955
26805SOL    HW182254   0.556  14.299   8.022
26805SOL    HW282255   0.503  14.377   7.904
26806SOL     OW82256   5.270  13.511  14.197
26806SOL    HW182257   5.272  13.604  14.173
26806SOL    HW282258   5.183  13.499  14.236
26807SOL     OW82259   6.494   6.210   1.637
26807SOL    HW182260   6.417   6.246   1.681
26807SOL    HW282261   6.529   6.146   1.699
26808SOL     OW82262  14.272   5.764   8.850
26808SOL    HW182263  14.222   5.761   8.932
26808SOL    HW282264  14.211   5.803   8.787
26809SOL     OW82265  12.400  10.291  13.623
26809SOL    HW182266  12.491  10.309  13.600
26809SOL    HW282267  12.398  10.198  13.646
26810SOL     OW82268   6.684   9.781  10.067
26810SOL    HW182269   6.594   9.770  10.039
26810SOL    HW282270   6.679   9.796  10.162
26811SOL     OW82271   6.051   6.999   4.064
26811SOL    HW182272   6.136   7.041   4.052
26811SOL    HW282273   6.038   7.000   4.159
26812SOL     OW82274   2.623  12.391   4.636
26812SOL    HW182275   2.531  12.396   4.663
26812SOL    HW282276   2.654  12.308   4.673
26813SOL     OW82277  10.964  12.610  12.354
26813SOL    HW182278  10.972  12.660  12.435
26813SOL    HW282279  10.881  12.638  12.317
26814SOL     OW82280   6.448   5.486   2.779
26814SOL    HW182281   6.426   5.432   2.704
26814SOL    HW282282   6.419   5.435   2.855
26815SOL     OW82283   8.169   8.786   9.790
26815SOL    HW182284   8.105   8.727   9.829
26815SOL    HW282285   8.228   8.728   9.741
26816SOL     OW82286   6.380   1.344   3.872
26816SOL    HW182287   6.450   1.289   3.839
26816SOL    HW282288   6.404   1.433   3.846
26817SOL     OW82289  13.661   9.753  10.667
26817SOL    HW182290  13.648   9.685  10.601
26817SOL    HW282291  13.577   9.760  10.712
26818SOL     OW82292   6.867   9.056  13.641
26818SOL    HW182293   6.819   8.996  13.698
26818SOL    HW282294   6.951   9.013  13.625
26819SOL     OW82295   2.868   5.767  10.758
26819SOL    HW182296   2.901   5.737  10.674
26819SOL    HW282297   2.820   5.847  10.738
26820SOL     OW82298  12.119   1.890   7.244
26820SOL    HW182299  12.119   1.878   7.149
26820SOL    HW282300  12.183   1.959   7.259
26821SOL     OW82301   6.729   0.147   7.639
26821SOL    HW182302   6.638   0.164   7.615
26821SOL    HW282303   6.771   0.233   7.639
26822SOL     OW82304  14.569  14.566   3.211
26822SOL    HW182305  14.486  14.577   3.259
26822SOL    HW282306  14.600  14.656   3.196
26823SOL     OW82307  13.982   3.509   4.226
26823SOL    HW182308  14.002   3.599   4.201
26823SOL    HW282309  13.893   3.512   4.260
26824SOL     OW82310   7.923   6.164   2.996
26824SOL    HW182311   7.961   6.243   2.957
26824SOL    HW282312   7.990   6.097   2.985
26825SOL     OW82313  12.337  11.506  14.738
26825SOL    HW182314  12.355  11.496  14.832
26825SOL    HW282315  12.374  11.428  14.698
26826SOL     OW82316  14.285   3.700   9.975
26826SOL    HW182317  14.369   3.680   9.933
26826SOL    HW282318  14.244   3.764   9.917
26827SOL     OW82319   4.660   8.476   7.776
26827SOL    HW182320   4.633   8.568   7.783
26827SOL    HW282321   4.677   8.464   7.682
26828SOL     OW82322  13.904  12.775   5.106
26828SOL    HW182323  13.880  12.695   5.059
26828SOL    HW282324  13.858  12.768   5.190
26829SOL     OW82325  11.699   6.648  11.483
26829SOL    HW182326  11.729   6.558  11.473
26829SOL    HW282327  11.653   6.649  11.567
26830SOL     OW82328   1.579   5.563   1.990
26830SOL    HW182329   1.506   5.501   1.979
26830SOL    HW282330   1.656   5.512   1.963
26831SOL     OW82331  11.084   3.544   4.077
26831SOL    HW182332  11.086   3.626   4.026
26831SOL    HW282333  10.994   3.513   4.067
26832SOL     OW82334   9.695   8.274   3.657
26832SOL    HW182335   9.734   8.253   3.742
26832SOL    HW282336   9.740   8.217   3.595
26833SOL     OW82337  13.196  14.486   2.341
26833SOL    HW182338  13.122  14.439   2.303
26833SOL    HW282339  13.221  14.434   2.417
26834SOL     OW82340   5.021   9.650  10.039
26834SOL    HW182341   5.086   9.638  10.109
26834SOL    HW282342   5.037   9.577   9.979
26835SOL     OW82343   3.325  13.408   6.861
26835SOL    HW182344   3.262  13.451   6.918
26835SOL    HW282345   3.385  13.477   6.834
26836SOL     OW82346  11.937  10.591   8.518
26836SOL    HW182347  12.024  10.604   8.555
26836SOL    HW282348  11.949  10.605   8.424
26837SOL     OW82349   2.256   7.088   2.328
26837SOL    HW182350   2.167   7.095   2.294
26837SOL    HW282351   2.257   7.144   2.406
26838SOL     OW82352   4.560   5.347  13.334
26838SOL    HW182353   4.606   5.425  13.365
26838SOL    HW282354   4.624   5.277  13.345
26839SOL     OW82355   2.183  11.977   2.677
26839SOL    HW182356   2.255  12.016   2.627
26839SOL    HW282357   2.219  11.965   2.765
26840SOL     OW82358   5.351  13.760  12.333
26840SOL    HW182359   5.279  13.809  12.294
26840SOL    HW282360   5.376  13.696  12.266
26841SOL     OW82361   2.358   7.613   1.026
26841SOL    HW182362   2.373   7.526   0.989
26841SOL    HW282363   2.401   7.673   0.965
26842SOL     OW82364  13.397   5.936   1.127
26842SOL    HW182365  13.353   6.012   1.090
26842SOL    HW282366  13.331   5.896   1.184
26843SOL     OW82367   4.939   0.599   5.990
26843SOL    HW182368   4.930   0.688   6.023
26843SOL    HW282369   4.986   0.607   5.908
26844SOL     OW82370   2.252   8.073  12.534
26844SOL    HW182371   2.172   8.050  12.486
26844SOL    HW282372   2.259   8.007  12.602
26845SOL     OW82373   0.746  11.158   0.111
26845SOL    HW182374   0.756  11.253   0.114
26845SOL    HW282375   0.655  11.143   0.137
26846SOL     OW82376   9.777  14.851   8.547
26846SOL    HW182377   9.799   0.051   8.494
26846SOL    HW282378   9.826  14.862   8.628
26847SOL     OW82379  13.154  13.954  10.223
26847SOL    HW182380  13.159  13.909  10.138
26847SOL    HW282381  13.066  13.934  10.255
26848SOL     OW82382  12.818  13.133  11.868
26848SOL    HW182383  12.905  13.163  11.839
26848SOL    HW282384  12.829  13.115  11.961
26849SOL     OW82385  10.177  10.705  11.712
26849SOL    HW182386  10.168  10.658  11.795
26849SOL    HW282387  10.093  10.749  11.701
26850SOL     OW82388   8.201  13.171   0.069
26850SOL    HW182389   8.233  13.165   0.159
26850SOL    HW282390   8.108  13.153   0.075
26851SOL     OW82391   4.052  10.678  12.327
26851SOL    HW182392   3.994  10.745  12.291
26851SOL    HW282393   4.072  10.620  12.253
26852SOL     OW82394  10.283   2.273  14.710
26852SOL    HW182395  10.314   2.276  14.801
26852SOL    HW282396  10.348   2.325  14.662
26853SOL     OW82397  14.093  12.447   5.390
26853SOL    HW182398  14.111  12.512   5.321
26853SOL    HW282399  14.132  12.366   5.358
26854SOL     OW82400   9.548   1.175   5.237
26854SOL    HW182401   9.482   1.126   5.286
26854SOL    HW282402   9.499   1.238   5.185
26855SOL     OW82403   6.762   1.731  10.476
26855SOL    HW182404   6.724   1.650  10.441
26855SOL    HW282405   6.768   1.716  10.570
26856SOL     OW82406  12.603   7.891   9.465
26856SOL    HW182407  12.654   7.941   9.402
26856SOL    HW282408  12.548   7.833   9.411
26857SOL     OW82409  14.332   2.252   6.397
26857SOL    HW182410  14.272   2.293   6.459
26857SOL    HW282411  14.298   2.163   6.385
26858SOL     OW82412  14.803  11.851   7.580
26858SOL    HW182413  14.767  11.762   7.591
26858SOL    HW282414  14.739  11.908   7.622
26859SOL     OW82415   4.536   7.607   1.243
26859SOL    HW182416   4.520   7.700   1.230
26859SOL    HW282417   4.459   7.577   1.291
26860SOL     OW82418   3.458   4.780   6.782
26860SOL    HW182419   3.535   4.753   6.732
26860SOL    HW282420   3.482   4.866   6.818
26861SOL     OW82421   5.430  11.381   5.288
26861SOL    HW182422   5.369  11.453   5.271
26861SOL    HW282423   5.400  11.310   5.230
26862SOL     OW82424  13.914  12.146   8.263
26862SOL    HW182425  13.860  12.098   8.326
26862SOL    HW282426  13.928  12.232   8.304
26863SOL     OW82427   5.533  11.039  11.361
26863SOL    HW182428   5.602  11.018  11.424
26863SOL    HW282429   5.527  11.134  11.363
26864SOL     OW82430  12.970   9.555   2.499
26864SOL    HW182431  12.992   9.541   2.591
26864SOL    HW282432  13.048   9.528   2.451
26865SOL     OW82433  13.983   6.229  12.258
26865SOL    HW182434  14.061   6.279  12.235
26865SOL    HW282435  14.016   6.153  12.306
26866SOL     OW82436  11.751   5.275   7.877
26866SOL    HW182437  11.818   5.237   7.820
26866SOL    HW282438  11.668   5.250   7.838
26867SOL     OW82439   5.525   0.296   0.293
26867SOL    HW182440   5.446   0.335   0.330
26867SOL    HW282441   5.508   0.292   0.199
26868SOL     OW82442  13.848  11.776   1.134
26868SOL    HW182443  13.763  11.804   1.101
26868SOL    HW282444  13.884  11.723   1.063
26869SOL     OW82445   5.897  11.764   7.767
26869SOL    HW182446   5.884  11.730   7.678
26869SOL    HW282447   5.904  11.686   7.821
26870SOL     OW82448  12.663  12.805   2.612
26870SOL    HW182449  12.595  12.746   2.643
26870SOL    HW282450  12.616  12.877   2.571
26871SOL     OW82451   4.149   3.925  12.888
26871SOL    HW182452   4.077   3.936  12.950
26871SOL    HW282453   4.220   3.885  12.939
26872SOL     OW82454   8.932   0.113   4.910
26872SOL    HW182455   9.013   0.115   4.961
26872SOL    HW282456   8.870   0.164   4.962
26873SOL     OW82457   1.350   9.467  10.623
26873SOL    HW182458   1.414   9.397  10.609
26873SOL    HW282459   1.337   9.505  10.536
26874SOL     OW82460   6.106   3.811   7.128
26874SOL    HW182461   6.024   3.851   7.157
26874SOL    HW282462   6.096   3.801   7.033
26875SOL     OW82463  13.109  10.891  13.755
26875SOL    HW182464  13.160  10.818  13.719
26875SOL    HW282465  13.111  10.957  13.686
26876SOL     OW82466   5.885  11.468  10.865
26876SOL    HW182467   5.897  11.469  10.960
26876SOL    HW282468   5.825  11.395  10.849
26877SOL     OW82469   2.728  10.350  12.882
26877SOL    HW182470   2.755  10.418  12.820
26877SOL    HW282471   2.723  10.270  12.829
26878SOL     OW82472   4.815  12.383  13.684
26878SOL    HW182473   4.845  12.464  13.726
26878SOL    HW282474   4.834  12.314  13.749
26879SOL     OW82475   0.219   3.637  11.392
26879SOL    HW182476   0.257   3.626  11.479
26879SOL    HW282477   0.289   3.611  11.332
26880SOL     OW82478  14.075  11.456  11.696
26880SOL    HW182479  14.004  11.500  11.648
26880SOL    HW282480  14.063  11.484  11.787
26881SOL     OW82481   1.373   0.503   7.801
26881SOL    HW182482   1.367   0.564   7.728
26881SOL    HW282483   1.283   0.478   7.820
26882SOL     OW82484  11.578   0.333   7.815
26882SOL    HW182485  11.547   0.377   7.736
26882SOL    HW282486  11.620   0.402   7.866
26883SOL     OW82487   4.934  10.047  11.077
26883SOL    HW182488   4.884  10.066  11.157
26883SOL    HW282489   4.872   9.999  11.022
26884SOL     OW82490   0.312  14.405   6.788
26884SOL    HW182491   0.356  14.337   6.737
26884SOL    HW282492   0.294  14.475   6.725
26885SOL     OW82493  10.548  14.748   3.640
26885SOL    HW182494  10.604  14.819   3.671
26885SOL    HW282495  10.474  14.791   3.598
26886SOL     OW82496   7.958   2.080  11.671
26886SOL    HW182497   8.023   2.012  11.651
26886SOL    HW282498   7.922   2.054  11.756
26887SOL     OW82499   6.853   0.699   4.121
26887SOL    HW182500   6.922   0.722   4.183
26887SOL    HW282501   6.852   0.603   4.120
26888SOL     OW82502  10.462   3.765   5.592
26888SOL    HW182503  10.438   3.804   5.508
26888SOL    HW282504  10.409   3.812   5.657
26889SOL     OW82505   7.075   0.328   5.908
26889SOL    HW182506   7.010   0.393   5.937
26889SOL    HW282507   7.057   0.317   5.815
26890SOL     OW82508   8.785   5.606  10.679
26890SOL    HW182509   8.700   5.569  10.658
26890SOL    HW282510   8.766   5.691  10.719
26891SOL     OW82511   1.831   9.544   3.668
26891SOL    HW182512   1.894   9.521   3.600
26891SOL    HW282513   1.787   9.461   3.689
26892SOL     OW82514   9.074   7.985   0.706
26892SOL    HW182515   9.104   7.900   0.675
26892SOL    HW282516   9.126   8.001   0.785
26893SOL     OW82517   4.513   9.104   4.977
26893SOL    HW182518   4.571   9.180   4.967
26893SOL    HW282519   4.571   9.033   5.005
26894SOL     OW82520   8.286   8.462  14.702
26894SOL    HW182521   8.373   8.436  14.672
26894SOL    HW282522   8.273   8.412  14.783
26895SOL     OW82523   3.992   9.422  11.470
26895SOL    HW182524   4.052   9.481  11.513
26895SOL    HW282525   3.996   9.446  11.377
26896SOL     OW82526   5.142  14.377   3.565
26896SOL    HW182527   5.235  14.359   3.555
26896SOL    HW282528   5.100  14.332   3.491
26897SOL     OW82529  11.405   6.577   5.772
26897SOL    HW182530  11.490   6.537   5.790
26897SOL    HW282531  11.412   6.666   5.808
26898SOL     OW82532   6.173   8.651   5.316
26898SOL    HW182533   6.118   8.573   5.320
26898SOL    HW282534   6.111   8.724   5.321
26899SOL     OW82535  10.424   3.234   2.008
26899SOL    HW182536  10.463   3.294   1.944
26899SOL    HW282537  10.472   3.152   1.997
26900SOL     OW82538   8.591   6.557   0.281
26900SOL    HW182539   8.565   6.649   0.278
26900SOL    HW282540   8.687   6.558   0.274
26901SOL     OW82541   0.392   9.186   7.290
26901SOL    HW182542   0.482   9.163   7.315
26901SOL    HW282543   0.337   9.142   7.355
26902SOL     OW82544  12.120  13.285  12.035
26902SOL    HW182545  12.159  13.326  11.957
26902SOL    HW282546  12.163  13.199  12.041
26903SOL     OW82547   1.441   0.409  13.022
26903SOL    HW182548   1.351   0.400  12.988
26903SOL    HW282549   1.440   0.492  13.070
26904SOL     OW82550   6.244   1.712   5.401
26904SOL    HW182551   6.253   1.718   5.496
26904SOL    HW282552   6.306   1.776   5.367
26905SOL     OW82553   7.006  11.437   7.388
26905SOL    HW182554   7.055  11.370   7.436
26905SOL    HW282555   6.931  11.391   7.352
26906SOL     OW82556  12.055   5.820  14.646
26906SOL    HW182557  12.055   5.863  14.560
26906SOL    HW282558  12.115   5.747  14.636
26907SOL     OW82559   3.406   9.952  11.016
26907SOL    HW182560   3.323   9.997  11.034
26907SOL    HW282561   3.387   9.896  10.941
26908SOL     OW82562  11.616  13.248   8.797
26908SOL    HW182563  11.689  13.218   8.851
26908SOL    HW282564  11.633  13.210   8.710
26909SOL     OW82565  14.754   0.990  12.645
26909SOL    HW182566  14.703   1.071  12.650
26909SOL    HW282567  14.691   0.921  12.662
26910SOL     OW82568  14.073   3.650   3.663
26910SOL    HW182569  14.116   3.693   3.589
26910SOL    HW282570  14.142   3.640   3.728
26911SOL     OW82571   1.985  12.492  10.780
26911SOL    HW182572   2.067  12.541  10.774
26911SOL    HW282573   2.004  12.408  10.736
26912SOL     OW82574   1.717   3.597   5.754
26912SOL    HW182575   1.782   3.581   5.822
26912SOL    HW282576   1.739   3.683   5.718
26913SOL     OW82577  14.136   6.201   0.043
26913SOL    HW182578  14.198   6.274   0.048
26913SOL    HW282579  14.081   6.210   0.121
26914SOL     OW82580   1.692   7.519   2.105
26914SOL    HW182581   1.645   7.486   2.029
26914SOL    HW282582   1.759   7.578   2.069
26915SOL     OW82583  11.367  14.657   5.375
26915SOL    HW182584  11.330  14.744   5.390
26915SOL    HW282585  11.307  14.598   5.420
26916SOL     OW82586  14.327   3.680  12.404
26916SOL    HW182587  14.321   3.769  12.438
26916SOL    HW282588  14.412   3.648  12.435
26917SOL     OW82589   4.212   8.785   7.511
26917SOL    HW182590   4.212   8.867   7.463
26917SOL    HW282591   4.264   8.802   7.589
26918SOL     OW82592  11.129   7.957   1.925
26918SOL    HW182593  11.208   7.997   1.961
26918SOL    HW282594  11.093   8.023   1.866
26919SOL     OW82595   1.089   3.223  10.631
26919SOL    HW182596   1.060   3.270  10.709
26919SOL    HW282597   1.022   3.242  10.565
26920SOL     OW82598   1.850  13.931  11.654
26920SOL    HW182599   1.925  13.881  11.623
26920SOL    HW282600   1.887  14.002  11.706
26921SOL     OW82601  11.612   7.350  14.312
26921SOL    HW182602  11.696   7.327  14.274
26921SOL    HW282603  11.603   7.292  14.388
26922SOL     OW82604  13.787   3.969   4.522
26922SOL    HW182605  13.866   4.015   4.550
26922SOL    HW282606  13.716   4.030   4.539
26923SOL     OW82607   2.284   0.928   0.627
26923SOL    HW182608   2.229   0.972   0.692
26923SOL    HW282609   2.345   0.876   0.680
26924SOL     OW82610  11.672   6.227   1.529
26924SOL    HW182611  11.587   6.194   1.557
26924SOL    HW282612  11.680   6.312   1.571
26925SOL     OW82613   4.542   8.159   7.397
26925SOL    HW182614   4.458   8.161   7.443
26925SOL    HW282615   4.572   8.069   7.406
26926SOL     OW82616   5.964   9.926   1.725
26926SOL    HW182617   5.965   9.883   1.640
26926SOL    HW282618   5.968  10.019   1.705
26927SOL     OW82619   2.368   8.116  10.577
26927SOL    HW182620   2.440   8.066  10.615
26927SOL    HW282621   2.290   8.082  10.622
26928SOL     OW82622   5.972   9.605  10.375
26928SOL    HW182623   6.020   9.541  10.428
26928SOL    HW282624   5.927   9.552  10.309
26929SOL     OW82625   5.779   5.192   6.594
26929SOL    HW182626   5.825   5.218   6.674
26929SOL    HW282627   5.793   5.097   6.589
26930SOL     OW82628   7.607   4.165  14.012
26930SOL    HW182629   7.619   4.124  14.097
26930SOL    HW282630   7.651   4.250  14.019
26931SOL     OW82631   7.173  11.583  12.253
26931SOL    HW182632   7.229  11.622  12.186
26931SOL    HW282633   7.111  11.652  12.276
26932SOL     OW82634   0.047  12.840   2.224
26932SOL    HW182635   0.027  12.806   2.311
26932SOL    HW282636   0.110  12.910   2.239
26933SOL     OW82637   1.145   2.628   9.479
26933SOL    HW182638   1.050   2.637   9.477
26933SOL    HW282639   1.161   2.536   9.456
26934SOL     OW82640   7.308   9.075   4.661
26934SOL    HW182641   7.249   9.004   4.688
26934SOL    HW282642   7.284   9.149   4.716
26935SOL     OW82643   9.321  10.874  12.666
26935SOL    HW182644   9.304  10.967  12.680
26935SOL    HW282645   9.271  10.830  12.735
26936SOL     OW82646   5.420   8.841  14.801
26936SOL    HW182647   5.379   8.900  14.739
26936SOL    HW282648   5.398   8.753  14.769
26937SOL     OW82649  13.345   3.317   7.091
26937SOL    HW182650  13.266   3.298   7.039
26937SOL    HW282651  13.361   3.410   7.078
26938SOL     OW82652   9.061  14.430   3.618
26938SOL    HW182653   8.973  14.449   3.587
26938SOL    HW282654   9.094  14.363   3.559
26939SOL     OW82655   8.811  11.665   8.641
26939SOL    HW182656   8.755  11.732   8.680
26939SOL    HW282657   8.750  11.608   8.594
26940SOL     OW82658  11.583   8.280  10.451
26940SOL    HW182659  11.561   8.342  10.521
26940SOL    HW282660  11.644   8.218  10.491
26941SOL     OW82661   6.574   5.654   4.005
26941SOL    HW182662   6.481   5.633   3.996
26941SOL    HW282663   6.576   5.732   4.059
26942SOL     OW82664  10.269  13.916  12.897
26942SOL    HW182665  10.258  13.905  12.991
26942SOL    HW282666  10.218  13.994  12.875
26943SOL     OW82667   6.199   3.488   8.851
26943SOL    HW182668   6.170   3.463   8.763
26943SOL    HW282669   6.290   3.515   8.839
26944SOL     OW82670   4.942  11.988   0.526
26944SOL    HW182671   4.873  12.047   0.495
26944SOL    HW282672   4.964  12.020   0.613
26945SOL     OW82673   7.995  12.403   8.162
26945SOL    HW182674   8.035  12.423   8.078
26945SOL    HW282675   8.049  12.449   8.226
26946SOL     OW82676   6.211   4.319  12.151
26946SOL    HW182677   6.292   4.320  12.201
26946SOL    HW282678   6.195   4.410  12.128
26947SOL     OW82679   9.937   8.113  13.663
26947SOL    HW182680   9.971   8.190  13.618
26947SOL    HW282681   9.843   8.129  13.671
26948SOL     OW82682  10.635   9.703   9.847
26948SOL    HW182683  10.722   9.675   9.821
26948SOL    HW282684  10.576   9.637   9.811
26949SOL     OW82685  14.445  13.752   6.727
26949SOL    HW182686  14.427  13.794   6.811
26949SOL    HW282687  14.448  13.659   6.746
26950SOL     OW82688   5.078   3.461  14.504
26950SOL    HW182689   5.112   3.424  14.423
26950SOL    HW282690   5.105   3.553  14.501
26951SOL     OW82691  14.394  10.118   6.305
26951SOL    HW182692  14.315  10.152   6.348
26951SOL    HW282693  14.467  10.159   6.351
26952SOL     OW82694   2.121   9.687  14.378
26952SOL    HW182695   2.187   9.649  14.435
26952SOL    HW282696   2.119   9.628  14.302
26953SOL     OW82697   1.980   2.436   2.690
26953SOL    HW182698   1.905   2.464   2.638
26953SOL    HW282699   1.965   2.473   2.777
26954SOL     OW82700  13.813   0.311   7.426
26954SOL    HW182701  13.768   0.306   7.342
26954SOL    HW282702  13.888   0.368   7.410
26955SOL     OW82703  10.788   3.227   5.473
26955SOL    HW182704  10.854   3.193   5.533
26955SOL    HW282705  10.713   3.247   5.529
26956SOL     OW82706   6.581   9.544   4.768
26956SOL    HW182707   6.554   9.496   4.690
26956SOL    HW282708   6.532   9.503   4.840
26957SOL     OW82709   0.321   3.460   6.886
26957SOL    HW182710   0.306   3.409   6.807
26957SOL    HW282711   0.416   3.470   6.890
26958SOL     OW82712  10.543   7.867  12.782
26958SOL    HW182713  10.625   7.906  12.753
26958SOL    HW282714  10.482   7.940  12.788
26959SOL     OW82715   5.182   3.594   2.890
26959SOL    HW182716   5.240   3.608   2.965
26959SOL    HW282717   5.199   3.668   2.832
26960SOL     OW82718  10.322  10.560   2.872
26960SOL    HW182719  10.367  10.613   2.938
26960SOL    HW282720  10.392  10.512   2.828
26961SOL     OW82721  11.794   1.810  14.532
26961SOL    HW182722  11.812   1.903  14.548
26961SOL    HW282723  11.754   1.808  14.445
26962SOL     OW82724   8.337   1.489   4.242
26962SOL    HW182725   8.368   1.490   4.332
26962SOL    HW282726   8.340   1.397   4.216
26963SOL     OW82727   1.508   6.494  10.577
26963SOL    HW182728   1.504   6.513  10.671
26963SOL    HW282729   1.416   6.483  10.552
26964SOL     OW82730   0.205   7.087   9.145
26964SOL    HW182731   0.157   7.085   9.062
26964SOL    HW282732   0.188   7.001   9.184
26965SOL     OW82733  10.450  12.676  11.668
26965SOL    HW182734  10.467  12.748  11.607
26965SOL    HW282735  10.491  12.600  11.627
26966SOL     OW82736  14.355   4.409   9.789
26966SOL    HW182737  14.295   4.459   9.733
26966SOL    HW282738  14.320   4.320   9.787
26967SOL     OW82739   8.337  10.933   9.828
26967SOL    HW182740   8.397  10.919   9.756
26967SOL    HW282741   8.390  10.921   9.907
26968SOL     OW82742   6.219   4.727  10.655
26968SOL    HW182743   6.288   4.689  10.600
26968SOL    HW282744   6.151   4.753  10.594
26969SOL     OW82745  12.849  11.718   9.282
26969SOL    HW182746  12.858  11.635   9.234
26969SOL    HW282747  12.866  11.695   9.373
26970SOL     OW82748   2.275   1.060  14.483
26970SOL    HW182749   2.315   0.990  14.535
26970SOL    HW282750   2.226   1.014  14.414
26971SOL     OW82751   6.113   3.766   4.043
26971SOL    HW182752   6.185   3.808   4.090
26971SOL    HW282753   6.132   3.783   3.950
26972SOL     OW82754   5.436   5.317   9.396
26972SOL    HW182755   5.341   5.305   9.403
26972SOL    HW282756   5.462   5.257   9.326
26973SOL     OW82757  10.718   4.433   5.348
26973SOL    HW182758  10.811   4.421   5.327
26973SOL    HW282759  10.681   4.345   5.346
26974SOL     OW82760   7.258   4.949   2.217
26974SOL    HW182761   7.351   4.932   2.232
26974SOL    HW282762   7.256   5.034   2.173
26975SOL     OW82763   1.055   3.340   7.419
26975SOL    HW182764   1.130   3.378   7.372
26975SOL    HW282765   1.083   3.339   7.511
26976SOL     OW82766  14.430   1.020   4.498
26976SOL    HW182767  14.513   1.040   4.543
26976SOL    HW282768  14.455   1.001   4.408
26977SOL     OW82769  12.541   9.469   8.052
26977SOL    HW182770  12.597   9.487   8.128
26977SOL    HW282771  12.587   9.511   7.979
26978SOL     OW82772   2.917  12.737   9.460
26978SOL    HW182773   2.972  12.812   9.482
26978SOL    HW282774   2.979  12.666   9.444
26979SOL     OW82775   8.780  11.954  12.410
26979SOL    HW182776   8.712  11.893  12.439
26979SOL    HW282777   8.796  12.010  12.486
26980SOL     OW82778   5.393  11.520   9.385
26980SOL    HW182779   5.362  11.462   9.314
26980SOL    HW282780   5.482  11.542   9.359
26981SOL     OW82781   0.871   1.618   1.155
26981SOL    HW182782   0.954   1.572   1.148
26981SOL    HW282783   0.807   1.559   1.114
26982SOL     OW82784  14.727   5.672   0.376
26982SOL    HW182785  14.676   5.678   0.456
26982SOL    HW282786  14.663   5.658   0.307
26983SOL     OW82787   5.551  12.236   1.928
26983SOL    HW182788   5.608  12.218   1.853
26983SOL    HW282789   5.477  12.177   1.916
26984SOL     OW82790  10.687   5.854   7.835
26984SOL    HW182791  10.597   5.837   7.863
26984SOL    HW282792  10.738   5.852   7.916
26985SOL     OW82793  10.691   7.838   3.069
26985SOL    HW182794  10.684   7.933   3.077
26985SOL    HW282795  10.782   7.823   3.044
26986SOL     OW82796   2.671   8.432  10.045
26986SOL    HW182797   2.765   8.434  10.061
26986SOL    HW282798   2.663   8.397   9.956
26987SOL     OW82799   9.056  12.607   8.532
26987SOL    HW182800   9.127  12.544   8.517
26987SOL    HW282801   9.085  12.659   8.606
26988SOL     OW82802   3.183   7.673   8.317
26988SOL    HW182803   3.241   7.608   8.278
26988SOL    HW282804   3.095   7.646   8.289
26989SOL     OW82805   7.030   7.779   7.768
26989SOL    HW182806   6.956   7.768   7.828
26989SOL    HW282807   7.006   7.854   7.714
26990SOL     OW82808   6.172   4.755   4.854
26990SOL    HW182809   6.113   4.715   4.790
26990SOL    HW282810   6.159   4.849   4.841
26991SOL     OW82811   0.895   1.782   0.641
26991SOL    HW182812   0.923   1.691   0.654
26991SOL    HW282813   0.938   1.810   0.561
26992SOL     OW82814   8.755  13.697   6.497
26992SOL    HW182815   8.703  13.631   6.451
26992SOL    HW282816   8.804  13.647   6.562
26993SOL     OW82817   2.022  10.247   1.596
26993SOL    HW182818   1.950  10.258   1.534
26993SOL    HW282819   2.031  10.153   1.607
26994SOL     OW82820   1.994   9.877   7.827
26994SOL    HW182821   1.974   9.894   7.920
26994SOL    HW282822   2.087   9.898   7.818
26995SOL     OW82823   2.367  10.460  13.250
26995SOL    HW182824   2.291  10.433  13.199
26995SOL    HW282825   2.331  10.502  13.328
26996SOL     OW82826   8.579   9.389   2.034
26996SOL    HW182827   8.563   9.465   1.978
26996SOL    HW282828   8.546   9.315   1.983
26997SOL     OW82829   0.731  10.284  11.313
26997SOL    HW182830   0.637  10.275  11.324
26997SOL    HW282831   0.768  10.213  11.366
26998SOL     OW82832   4.246   4.952   1.236
26998SOL    HW182833   4.199   4.947   1.319
26998SOL    HW282834   4.280   4.864   1.221
26999SOL     OW82835   8.039  10.938  14.874
26999SOL    HW182836   8.035  10.898  14.787
26999SOL    HW282837   7.996  10.875   0.055
27000SOL     OW82838   7.582  10.393   0.101
27000SOL    HW182839   7.573  10.325   0.168
27000SOL    HW282840   7.643  10.356   0.038
27001SOL     OW82841  14.143   5.046   2.821
27001SOL    HW182842  14.200   5.046   2.897
27001SOL    HW282843  14.061   5.008   2.853
27002SOL     OW82844   5.165  10.206   1.161
27002SOL    HW182845   5.192  10.139   1.099
27002SOL    HW282846   5.193  10.288   1.121
27003SOL     OW82847   9.410   0.500   9.557
27003SOL    HW182848   9.321   0.465   9.555
27003SOL    HW282849   9.424   0.525   9.648
27004SOL     OW82850  10.718   2.668   2.886
27004SOL    HW182851  10.727   2.736   2.820
27004SOL    HW282852  10.724   2.715   2.970
27005SOL     OW82853   1.825   4.816   4.498
27005SOL    HW182854   1.748   4.856   4.457
27005SOL    HW282855   1.888   4.888   4.503
27006SOL     OW82856  12.033  12.795  13.013
27006SOL    HW182857  11.961  12.857  13.005
27006SOL    HW282858  12.032  12.746  12.931
27007SOL     OW82859   2.565   3.010   4.248
27007SOL    HW182860   2.536   3.057   4.326
27007SOL    HW282861   2.653   2.979   4.270
27008SOL     OW82862   8.009   0.368   2.885
27008SOL    HW182863   8.040   0.279   2.903
27008SOL    HW282864   8.001   0.409   2.971
27009SOL     OW82865   1.923  10.157   4.228
27009SOL    HW182866   1.988  10.157   4.158
27009SOL    HW282867   1.934  10.073   4.271
27010SOL     OW82868   3.345   8.063  10.949
27010SOL    HW182869   3.277   8.015  10.996
27010SOL    HW282870   3.392   8.111  11.017
27011SOL     OW82871  14.833  10.108   9.744
27011SOL    HW182872   0.045  10.076   9.726
27011SOL    HW282873  14.844  10.164   9.821
27012SOL     OW82874   5.065   9.160   0.297
27012SOL    HW182875   5.087   9.081   0.247
27012SOL    HW282876   5.009   9.211   0.238
27013SOL     OW82877  12.527  13.430   1.881
27013SOL    HW182878  12.463  13.421   1.952
27013SOL    HW282879  12.476  13.415   1.801
27014SOL     OW82880   5.423  11.474  13.194
27014SOL    HW182881   5.441  11.557  13.240
27014SOL    HW282882   5.510  11.440  13.172
27015SOL     OW82883   6.108   1.663  12.037
27015SOL    HW182884   6.016   1.674  12.013
27015SOL    HW282885   6.157   1.699  11.964
27016SOL     OW82886   2.112   2.614  14.628
27016SOL    HW182887   2.030   2.637  14.584
27016SOL    HW282888   2.166   2.573  14.559
27017SOL     OW82889  11.382  11.457   6.712
27017SOL    HW182890  11.356  11.365   6.723
27017SOL    HW282891  11.361  11.477   6.621
27018SOL     OW82892   3.226   2.189  10.874
27018SOL    HW182893   3.296   2.143  10.920
27018SOL    HW282894   3.221   2.147  10.788
27019SOL     OW82895   7.300  13.062   9.984
27019SOL    HW182896   7.223  13.005   9.978
27019SOL    HW282897   7.264  13.150   9.997
27020SOL     OW82898   3.186  13.723  11.083
27020SOL    HW182899   3.104  13.679  11.062
27020SOL    HW282900   3.252  13.654  11.084
27021SOL     OW82901   9.010   5.225   5.100
27021SOL    HW182902   8.943   5.187   5.158
27021SOL    HW282903   9.012   5.166   5.024
27022SOL     OW82904   4.851   2.432  13.505
27022SOL    HW182905   4.822   2.421  13.596
27022SOL    HW282906   4.810   2.514  13.477
27023SOL     OW82907  13.002  10.874   4.229
27023SOL    HW182908  13.059  10.950   4.227
27023SOL    HW282909  13.024  10.831   4.312
27024SOL     OW82910   4.514   7.390   8.139
27024SOL    HW182911   4.442   7.353   8.088
27024SOL    HW282912   4.581   7.323   8.139
27025SOL     OW82913   9.880  10.121  10.780
27025SOL    HW182914   9.883  10.069  10.700
27025SOL    HW282915   9.966  10.107  10.821
27026SOL     OW82916  12.765   8.749   6.576
27026SOL    HW182917  12.805   8.747   6.663
27026SOL    HW282918  12.791   8.666   6.536
27027SOL     OW82919  13.363  11.071   9.772
27027SOL    HW182920  13.379  10.977   9.785
27027SOL    HW282921  13.373  11.109   9.859
27028SOL     OW82922   3.929   8.876   2.995
27028SOL    HW182923   3.867   8.912   2.932
27028SOL    HW282924   3.995   8.945   3.007
27029SOL     OW82925   9.251   5.012  11.981
27029SOL    HW182926   9.202   5.039  12.059
27029SOL    HW282927   9.269   5.094  11.935
27030SOL     OW82928   1.338  11.113   5.913
27030SOL    HW182929   1.348  11.111   5.817
27030SOL    HW282930   1.363  11.025   5.941
27031SOL     OW82931   7.685   3.699  14.033
27031SOL    HW182932   7.690   3.781  13.983
27031SOL    HW282933   7.605   3.657  14.002
27032SOL     OW82934   3.506   1.005  12.366
27032SOL    HW182935   3.482   0.932  12.424
27032SOL    HW282936   3.484   1.083  12.416
27033SOL     OW82937   5.367   1.512   4.774
27033SOL    HW182938   5.434   1.545   4.834
27033SOL    HW282939   5.408   1.516   4.687
27034SOL     OW82940   3.958   6.494   9.715
27034SOL    HW182941   4.053   6.492   9.702
27034SOL    HW282942   3.923   6.478   9.627
27035SOL     OW82943   3.830   9.455   6.010
27035SOL    HW182944   3.842   9.442   6.104
27035SOL    HW282945   3.877   9.536   5.991
27036SOL     OW82946   1.732   0.809   4.827
27036SOL    HW182947   1.755   0.863   4.751
27036SOL    HW282948   1.666   0.861   4.874
27037SOL     OW82949   2.568  14.015  11.664
27037SOL    HW182950   2.499  14.020  11.598
27037SOL    HW282951   2.649  14.024  11.615
27038SOL     OW82952   9.530   0.537  13.866
27038SOL    HW182953   9.610   0.485  13.867
27038SOL    HW282954   9.552   0.616  13.915
27039SOL     OW82955   7.035   4.995  11.431
27039SOL    HW182956   7.113   5.014  11.482
27039SOL    HW282957   7.065   4.936  11.362
27040SOL     OW82958  12.560  12.189   4.607
27040SOL    HW182959  12.614  12.132   4.552
27040SOL    HW282960  12.474  12.189   4.564
27041SOL     OW82961   1.701   8.463   7.862
27041SOL    HW182962   1.746   8.517   7.797
27041SOL    HW282963   1.762   8.458   7.936
27042SOL     OW82964   5.251   2.203   6.654
27042SOL    HW182965   5.278   2.291   6.625
27042SOL    HW282966   5.304   2.186   6.732
27043SOL     OW82967   7.896   1.895   5.161
27043SOL    HW182968   7.847   1.977   5.159
27043SOL    HW282969   7.829   1.827   5.158
27044SOL     OW82970  10.581  12.274   1.984
27044SOL    HW182971  10.534  12.270   2.067
27044SOL    HW282972  10.525  12.324   1.926
27045SOL     OW82973  13.424  12.066   3.496
27045SOL    HW182974  13.428  12.161   3.484
27045SOL    HW282975  13.443  12.030   3.410
27046SOL     OW82976   2.935   0.538   0.224
27046SOL    HW182977   2.922   0.557   0.131
27046SOL    HW282978   2.945   0.625   0.265
27047SOL     OW82979   2.286   5.439   6.733
27047SOL    HW182980   2.243   5.524   6.741
27047SOL    HW282981   2.331   5.426   6.817
27048SOL     OW82982  14.185   0.610   0.291
27048SOL    HW182983  14.127   0.677   0.327
27048SOL    HW282984  14.130   0.533   0.282
27049SOL     OW82985  14.051   7.274   8.933
27049SOL    HW182986  14.063   7.339   9.002
27049SOL    HW282987  13.958   7.281   8.910
27050SOL     OW82988   9.764  14.480   3.938
27050SOL    HW182989   9.716  14.419   3.882
27050SOL    HW282990   9.718  14.563   3.926
27051SOL     OW82991   9.777   7.929   6.374
27051SOL    HW182992   9.765   7.862   6.442
27051SOL    HW282993   9.835   7.993   6.414
27052SOL     OW82994   0.552   1.981   6.775
27052SOL    HW182995   0.511   1.902   6.739
27052SOL    HW282996   0.587   1.953   6.860
27053SOL     OW82997   2.852  11.857   1.782
27053SOL    HW182998   2.932  11.811   1.807
27053SOL    HW282999   2.835  11.916   1.856
27054SOL     OW83000   9.358   3.217   9.540
27054SOL    HW183001   9.381   3.137   9.587
27054SOL    HW283002   9.313   3.271   9.604
27055SOL     OW83003   5.724  12.092   4.692
27055SOL    HW183004   5.701  12.061   4.780
27055SOL    HW283005   5.640  12.099   4.647
27056SOL     OW83006   2.443   9.350  12.656
27056SOL    HW183007   2.365   9.406  12.662
27056SOL    HW283008   2.511   9.408  12.621
27057SOL     OW83009  13.738   4.095   9.338
27057SOL    HW183010  13.818   4.060   9.376
27057SOL    HW283011  13.683   4.018   9.323
27058SOL     OW83012   3.256  10.188  14.181
27058SOL    HW183013   3.261  10.283  14.175
27058SOL    HW283014   3.335  10.157  14.136
27059SOL     OW83015  14.766   8.530   9.357
27059SOL    HW183016  14.842   8.530   9.300
27059SOL    HW283017  14.693   8.509   9.299
27060SOL     OW83018   0.774   2.950   1.289
27060SOL    HW183019   0.700   2.973   1.346
27060SOL    HW283020   0.759   2.858   1.267
27061SOL     OW83021   9.946   1.488   3.034
27061SOL    HW183022  10.037   1.465   3.015
27061SOL    HW283023   9.912   1.522   2.951
27062SOL     OW83024   1.627   7.674   9.591
27062SOL    HW183025   1.678   7.645   9.516
27062SOL    HW283026   1.663   7.626   9.665
27063SOL     OW83027  13.376   7.266   0.984
27063SOL    HW183028  13.375   7.237   1.076
27063SOL    HW283029  13.453   7.324   0.978
27064SOL     OW83030   8.320   9.040   4.465
27064SOL    HW183031   8.254   9.091   4.418
27064SOL    HW283032   8.270   8.987   4.527
27065SOL     OW83033   1.657   8.409   1.318
27065SOL    HW183034   1.614   8.450   1.393
27065SOL    HW283035   1.728   8.470   1.295
27066SOL     OW83036   5.195   3.264  12.512
27066SOL    HW183037   5.127   3.305  12.566
27066SOL    HW283038   5.241   3.205  12.572
27067SOL     OW83039   0.193  13.558   2.991
27067SOL    HW183040   0.212  13.537   2.899
27067SOL    HW283041   0.178  13.473   3.032
27068SOL     OW83042   0.046  11.755   0.260
27068SOL    HW183043   0.093  11.746   0.177
27068SOL    HW283044   0.019  11.846   0.263
27069SOL     OW83045   9.679   3.544   3.949
27069SOL    HW183046   9.699   3.457   3.985
27069SOL    HW283047   9.623   3.526   3.873
27070SOL     OW83048   1.103   4.649   5.009
27070SOL    HW183049   1.154   4.726   4.982
27070SOL    HW283050   1.015   4.683   5.022
27071SOL     OW83051   7.813  13.111   9.352
27071SOL    HW183052   7.880  13.178   9.366
27071SOL    HW283053   7.737  13.159   9.322
27072SOL     OW83054   4.642   3.753  14.499
27072SOL    HW183055   4.715   3.814  14.488
27072SOL    HW283056   4.615   3.765  14.591
27073SOL     OW83057   7.007   8.454  12.058
27073SOL    HW183058   6.955   8.534  12.055
27073SOL    HW283059   6.964   8.400  12.125
27074SOL     OW83060   6.404   3.802  12.900
27074SOL    HW183061   6.338   3.789  12.968
27074SOL    HW283062   6.377   3.744  12.829
27075SOL     OW83063  13.682  10.108  14.186
27075SOL    HW183064  13.635  10.191  14.172
27075SOL    HW283065  13.702  10.108  14.280
27076SOL     OW83066   6.493   6.319   2.078
27076SOL    HW183067   6.489   6.234   2.123
27076SOL    HW283068   6.405   6.330   2.041
27077SOL     OW83069   0.286   1.300   4.276
27077SOL    HW183070   0.244   1.380   4.308
27077SOL    HW283071   0.298   1.246   4.353
27078SOL     OW83072  10.455   0.889  13.586
27078SOL    HW183073  10.529   0.833  13.610
27078SOL    HW283074  10.452   0.885  13.490
27079SOL     OW83075   3.688   0.266   5.426
27079SOL    HW183076   3.695   0.174   5.453
27079SOL    HW283077   3.768   0.282   5.375
27080SOL     OW83078   5.431   6.272   0.095
27080SOL    HW183079   5.403   6.259   0.005
27080SOL    HW283080   5.381   6.208   0.146
27081SOL     OW83081  14.335   1.356  10.452
27081SOL    HW183082  14.392   1.431  10.436
27081SOL    HW283083  14.395   1.282  10.460
27082SOL     OW83084   9.462   7.894   9.046
27082SOL    HW183085   9.397   7.941   9.097
27082SOL    HW283086   9.460   7.935   8.960
27083SOL     OW83087  13.046   1.428   9.755
27083SOL    HW183088  13.056   1.508   9.703
27083SOL    HW283089  13.135   1.392   9.761
27084SOL     OW83090  14.788   8.033   4.738
27084SOL    HW183091  14.808   7.959   4.795
27084SOL    HW283092  14.724   8.000   4.676
27085SOL     OW83093   1.337  11.070  12.300
27085SOL    HW183094   1.374  11.158  12.297
27085SOL    HW283095   1.318  11.054  12.392
27086SOL     OW83096  13.693   3.815   0.988
27086SOL    HW183097  13.664   3.733   1.028
27086SOL    HW283098  13.612   3.861   0.965
27087SOL     OW83099   1.855  14.349   2.490
27087SOL    HW183100   1.809  14.393   2.561
27087SOL    HW283101   1.947  14.349   2.517
27088SOL     OW83102  10.563  10.499   4.244
27088SOL    HW183103  10.487  10.443   4.231
27088SOL    HW283104  10.637  10.439   4.254
27089SOL     OW83105  12.705   2.380   3.393
27089SOL    HW183106  12.718   2.448   3.460
27089SOL    HW283107  12.794   2.353   3.369
27090SOL     OW83108   8.923   1.813  12.905
27090SOL    HW183109   8.980   1.886  12.881
27090SOL    HW283110   8.836   1.839  12.876
27091SOL     OW83111   3.133  13.418   6.503
27091SOL    HW183112   3.176  13.344   6.547
27091SOL    HW283113   3.116  13.481   6.573
27092SOL     OW83114  13.641   8.204  14.767
27092SOL    HW183115  13.668   8.152  14.691
27092SOL    HW283116  13.586   8.145  14.818
27093SOL     OW83117   1.320   0.121   5.415
27093SOL    HW183118   1.281   0.080   5.493
27093SOL    HW283119   1.413   0.128   5.436
27094SOL     OW83120  10.578   1.136   6.934
27094SOL    HW183121  10.585   1.043   6.953
27094SOL    HW283122  10.646   1.151   6.867
27095SOL     OW83123   5.094  11.497   9.079
27095SOL    HW183124   5.106  11.521   8.987
27095SOL    HW283125   5.183  11.483   9.112
27096SOL     OW83126   8.241   7.705   9.828
27096SOL    HW183127   8.232   7.629   9.770
27096SOL    HW283128   8.155   7.715   9.869
27097SOL     OW83129  14.071   8.456   8.874
27097SOL    HW183130  13.977   8.443   8.876
27097SOL    HW283131  14.083   8.538   8.826
27098SOL     OW83132  12.412   9.293   4.640
27098SOL    HW183133  12.353   9.286   4.715
27098SOL    HW283134  12.425   9.387   4.628
27099SOL     OW83135   5.923  12.115   6.842
27099SOL    HW183136   5.935  12.026   6.875
27099SOL    HW283137   6.003  12.132   6.791
27100SOL     OW83138  14.445   2.824   4.560
27100SOL    HW183139  14.395   2.895   4.600
27100SOL    HW283140  14.411   2.744   4.600
27101SOL     OW83141   4.236   8.578   6.809
27101SOL    HW183142   4.234   8.672   6.794
27101SOL    HW283143   4.221   8.568   6.903
27102SOL     OW83144   1.614  11.755  11.803
27102SOL    HW183145   1.558  11.677  11.808
27102SOL    HW283146   1.666  11.753  11.883
27103SOL     OW83147  12.618   6.713  12.880
27103SOL    HW183148  12.688   6.678  12.935
27103SOL    HW283149  12.606   6.647  12.811
27104SOL     OW83150   8.217  14.240  10.547
27104SOL    HW183151   8.195  14.191  10.627
27104SOL    HW283152   8.133  14.270  10.513
27105SOL     OW83153   1.953  13.855  14.035
27105SOL    HW183154   1.977  13.861  13.942
27105SOL    HW283155   1.969  13.943  14.070
27106SOL     OW83156  14.509  12.233   2.357
27106SOL    HW183157  14.500  12.194   2.270
27106SOL    HW283158  14.520  12.327   2.340
27107SOL     OW83159  11.223   0.484   9.361
27107SOL    HW183160  11.255   0.543   9.292
27107SOL    HW283161  11.300   0.464   9.413
27108SOL     OW83162   5.420   4.604  13.786
27108SOL    HW183163   5.468   4.568  13.712
27108SOL    HW283164   5.328   4.594  13.762
27109SOL     OW83165  10.782   3.472   1.507
27109SOL    HW183166  10.821   3.527   1.575
27109SOL    HW283167  10.832   3.390   1.511
27110SOL     OW83168   7.009   1.439   5.223
27110SOL    HW183169   6.982   1.373   5.286
27110SOL    HW283170   7.096   1.466   5.253
27111SOL     OW83171   6.438  12.874  14.872
27111SOL    HW183172   6.348  12.880  14.840
27111SOL    HW283173   6.436  12.800   0.056
27112SOL     OW83174   9.666  10.418   7.605
27112SOL    HW183175   9.724  10.409   7.681
27112SOL    HW283176   9.693  10.499   7.563
27113SOL     OW83177   4.712  11.218  10.492
27113SOL    HW183178   4.800  11.229  10.528
27113SOL    HW283179   4.689  11.127  10.514
27114SOL     OW83180   8.009   7.578  11.798
27114SOL    HW183181   8.043   7.523  11.869
27114SOL    HW283182   8.059   7.551  11.721
27115SOL     OW83183  14.121   2.739   5.045
27115SOL    HW183184  14.034   2.728   5.084
27115SOL    HW283185  14.123   2.677   4.973
27116SOL     OW83186   3.290  12.005   0.880
27116SOL    HW183187   3.211  11.983   0.829
27116SOL    HW283188   3.285  11.949   0.957
27117SOL     OW83189  10.336   5.291  10.672
27117SOL    HW183190  10.419   5.243  10.670
27117SOL    HW283191  10.270   5.223  10.685
27118SOL     OW83192   8.701   6.202   8.663
27118SOL    HW183193   8.749   6.146   8.725
27118SOL    HW283194   8.631   6.240   8.716
27119SOL     OW83195  12.950  13.749   6.998
27119SOL    HW183196  12.980  13.729   6.910
27119SOL    HW283197  12.874  13.692   7.011
27120SOL     OW83198   5.718  11.951   0.501
27120SOL    HW183199   5.707  11.952   0.406
27120SOL    HW283200   5.657  11.884   0.531
27121SOL     OW83201   6.801   9.008   0.357
27121SOL    HW183202   6.752   9.040   0.432
27121SOL    HW283203   6.883   9.058   0.358
27122SOL     OW83204  13.726   2.652   3.006
27122SOL    HW183205  13.642   2.643   2.961
27122SOL    HW283206  13.749   2.744   2.995
27123SOL     OW83207  11.095   8.083   4.693
27123SOL    HW183208  11.037   8.016   4.656
27123SOL    HW283209  11.058   8.166   4.662
27124SOL     OW83210   4.322  12.752  13.718
27124SOL    HW183211   4.299  12.668  13.757
27124SOL    HW283212   4.239  12.785  13.683
27125SOL     OW83213   1.944  11.940   3.755
27125SOL    HW183214   1.900  11.892   3.826
27125SOL    HW283215   1.892  11.918   3.677
27126SOL     OW83216   8.472  14.566   1.460
27126SOL    HW183217   8.462  14.484   1.509
27126SOL    HW283218   8.544  14.611   1.503
27127SOL     OW83219   6.124   1.792   9.025
27127SOL    HW183220   6.099   1.723   8.963
27127SOL    HW283221   6.193   1.840   8.980
27128SOL     OW83222  14.205  11.828   2.166
27128SOL    HW183223  14.113  11.853   2.164
27128SOL    HW283224  14.205  11.734   2.149
27129SOL     OW83225   9.560   2.011  11.198
27129SOL    HW183226   9.490   1.947  11.194
27129SOL    HW283227   9.520   2.088  11.238
27130SOL     OW83228  11.189  14.278   6.746
27130SOL    HW183229  11.257  14.212   6.731
27130SOL    HW283230  11.173  14.316   6.659
27131SOL     OW83231   3.524  14.030   6.720
27131SOL    HW183232   3.506  13.936   6.718
27131SOL    HW283233   3.592  14.040   6.787
27132SOL     OW83234   9.433  10.661   2.449
27132SOL    HW183235   9.345  10.669   2.414
27132SOL    HW283236   9.461  10.573   2.425
27133SOL     OW83237   6.864  10.520  11.910
27133SOL    HW183238   6.796  10.584  11.933
27133SOL    HW283239   6.829  10.475  11.833
27134SOL     OW83240   4.362   0.317  10.077
27134SOL    HW183241   4.362   0.328  10.172
27134SOL    HW283242   4.331   0.228  10.063
27135SOL     OW83243  11.656  13.084   5.800
27135SOL    HW183244  11.750  13.084   5.815
27135SOL    HW283245  11.621  13.022   5.864
27136SOL     OW83246  12.991  12.325   7.137
27136SOL    HW183247  12.942  12.269   7.198
27136SOL    HW283248  13.083  12.309   7.158
27137SOL     OW83249  11.856   4.810   4.543
27137SOL    HW183250  11.796   4.782   4.611
27137SOL    HW283251  11.843   4.748   4.471
27138SOL     OW83252  11.309   6.544   3.755
27138SOL    HW183253  11.401   6.567   3.751
27138SOL    HW283254  11.304   6.476   3.823
27139SOL     OW83255   5.553   4.753   1.364
27139SOL    HW183256   5.465   4.714   1.369
27139SOL    HW283257   5.538   4.846   1.349
27140SOL     OW83258   1.855   5.038   6.454
27140SOL    HW183259   1.878   5.131   6.462
27140SOL    HW283260   1.768   5.031   6.494
27141SOL     OW83261  12.484  14.300   6.983
27141SOL    HW183262  12.564  14.350   7.002
27141SOL    HW283263  12.414  14.354   7.021
27142SOL     OW83264   9.348   8.340   1.605
27142SOL    HW183265   9.296   8.348   1.685
27142SOL    HW283266   9.395   8.257   1.614
27143SOL     OW83267  10.628   1.584  10.337
27143SOL    HW183268  10.700   1.636  10.303
27143SOL    HW283269  10.550   1.636  10.321
27144SOL     OW83270   3.006   8.719   2.134
27144SOL    HW183271   2.935   8.766   2.090
27144SOL    HW283272   2.984   8.725   2.227
27145SOL     OW83273   9.791  13.503   9.148
27145SOL    HW183274   9.724  13.534   9.209
27145SOL    HW283275   9.874  13.525   9.190
27146SOL     OW83276  13.219   0.011  12.953
27146SOL    HW183277  13.313   0.002  12.940
27146SOL    HW283278  13.205   0.106  12.960
27147SOL     OW83279   6.820   3.231  14.586
27147SOL    HW183280   6.791   3.146  14.555
27147SOL    HW283281   6.912   3.237  14.560
27148SOL     OW83282   1.670   7.569   2.388
27148SOL    HW183283   1.685   7.558   2.294
27148SOL    HW283284   1.666   7.664   2.401
27149SOL     OW83285   6.078   8.302   4.608
27149SOL    HW183286   6.001   8.295   4.553
27149SOL    HW283287   6.097   8.212   4.634
27150SOL     OW83288   9.991   9.197  12.646
27150SOL    HW183289   9.971   9.115  12.601
27150SOL    HW283290   9.943   9.193  12.728
27151SOL     OW83291   1.168  10.290  11.624
27151SOL    HW183292   1.179  10.286  11.529
27151SOL    HW283293   1.141  10.202  11.648
27152SOL     OW83294   5.557   3.723   7.020
27152SOL    HW183295   5.593   3.789   7.080
27152SOL    HW283296   5.498   3.672   7.074
27153SOL     OW83297  11.425   0.310  12.082
27153SOL    HW183298  11.495   0.320  12.017
27153SOL    HW283299  11.352   0.273  12.033
27154SOL     OW83300  11.428   6.492  12.892
27154SOL    HW183301  11.404   6.517  12.803
27154SOL    HW283302  11.521   6.469  12.886
27155SOL     OW83303   2.848  12.604  11.642
27155SOL    HW183304   2.839  12.622  11.736
27155SOL    HW283305   2.766  12.560  11.618
27156SOL     OW83306  13.209  12.245   2.740
27156SOL    HW183307  13.229  12.334   2.710
27156SOL    HW283308  13.288  12.195   2.721
27157SOL     OW83309   8.005   7.632   1.160
27157SOL    HW183310   8.098   7.646   1.138
27157SOL    HW283311   8.007   7.571   1.234
27158SOL     OW83312  12.222  12.135   1.106
27158SOL    HW183313  12.289  12.185   1.152
27158SOL    HW283314  12.158  12.200   1.077
27159SOL     OW83315   1.289   7.913   5.177
27159SOL    HW183316   1.246   7.989   5.217
27159SOL    HW283317   1.358   7.951   5.122
27160SOL     OW83318   2.512  12.389   7.876
27160SOL    HW183319   2.432  12.375   7.927
27160SOL    HW283320   2.486  12.450   7.807
27161SOL     OW83321   2.456  10.536   2.042
27161SOL    HW183322   2.402  10.460   2.018
27161SOL    HW283323   2.544  10.499   2.054
27162SOL     OW83324  10.932   3.839  14.851
27162SOL    HW183325  10.878   3.844   0.053
27162SOL    HW283326  10.925   3.926  14.812
27163SOL     OW83327   5.891  10.369   5.249
27163SOL    HW183328   5.920  10.395   5.336
27163SOL    HW283329   5.940  10.425   5.189
27164SOL     OW83330   2.176  12.420  12.981
27164SOL    HW183331   2.118  12.388  12.912
27164SOL    HW283332   2.225  12.343  13.009
27165SOL     OW83333   4.518   2.308   8.951
27165SOL    HW183334   4.593   2.266   8.994
27165SOL    HW283335   4.477   2.361   9.019
27166SOL     OW83336  13.604  14.673   2.955
27166SOL    HW183337  13.532  14.718   2.999
27166SOL    HW283338  13.565  14.592   2.923
27167SOL     OW83339  12.331   2.866  12.569
27167SOL    HW183340  12.308   2.833  12.483
27167SOL    HW283341  12.413   2.913  12.556
27168SOL     OW83342   5.925  11.816  14.161
27168SOL    HW183343   5.926  11.891  14.221
27168SOL    HW283344   5.877  11.847  14.084
27169SOL     OW83345   0.711   0.058   3.468
27169SOL    HW183346   0.711  14.840   3.486
27169SOL    HW283347   0.658   0.095   3.538
27170SOL     OW83348   0.656  13.196   1.976
27170SOL    HW183349   0.675  13.284   2.011
27170SOL    HW283350   0.715  13.188   1.901
27171SOL     OW83351   5.173  13.512   3.588
27171SOL    HW183352   5.181  13.424   3.551
27171SOL    HW283353   5.231  13.511   3.665
27172SOL     OW83354   6.098   6.113  13.895
27172SOL    HW183355   6.105   6.184  13.959
27172SOL    HW283356   6.101   6.033  13.947
27173SOL     OW83357   3.234  11.594  12.906
27173SOL    HW183358   3.212  11.511  12.949
27173SOL    HW283359   3.157  11.649  12.920
27174SOL     OW83360   6.797   8.999   3.801
27174SOL    HW183361   6.838   9.024   3.883
27174SOL    HW283362   6.780   8.905   3.810
27175SOL     OW83363  10.591   1.313   5.784
27175SOL    HW183364  10.638   1.235   5.753
27175SOL    HW283365  10.556   1.287   5.869
27176SOL     OW83366  14.242  12.038   9.907
27176SOL    HW183367  14.161  11.996   9.936
27176SOL    HW283368  14.308  11.969   9.912
27177SOL     OW83369   9.370   4.753   8.203
27177SOL    HW183370   9.287   4.775   8.245
27177SOL    HW283371   9.367   4.796   8.117
27178SOL     OW83372  11.649   2.177   2.285
27178SOL    HW183373  11.584   2.135   2.342
27178SOL    HW283374  11.624   2.151   2.196
27179SOL     OW83375   3.201   1.277   5.719
27179SOL    HW183376   3.278   1.220   5.722
27179SOL    HW283377   3.138   1.235   5.778
27180SOL     OW83378   7.353  12.665   8.852
27180SOL    HW183379   7.294  12.722   8.802
27180SOL    HW283380   7.318  12.667   8.941
27181SOL     OW83381   6.202   9.283   6.861
27181SOL    HW183382   6.143   9.230   6.914
27181SOL    HW283383   6.286   9.280   6.908
27182SOL     OW83384  12.862   9.117  10.192
27182SOL    HW183385  12.922   9.148  10.260
27182SOL    HW283386  12.897   9.154  10.111
27183SOL     OW83387   3.754   4.844   3.645
27183SOL    HW183388   3.836   4.880   3.679
27183SOL    HW283389   3.780   4.790   3.571
27184SOL     OW83390   0.765   3.185  14.155
27184SOL    HW183391   0.693   3.201  14.094
27184SOL    HW283392   0.816   3.265  14.153
27185SOL     OW83393   7.395   4.183  11.152
27185SOL    HW183394   7.326   4.117  11.160
27185SOL    HW283395   7.363   4.258  11.202
27186SOL     OW83396   5.092   0.732   8.183
27186SOL    HW183397   5.094   0.644   8.146
27186SOL    HW283398   5.065   0.720   8.274
27187SOL     OW83399  13.451   3.854   7.755
27187SOL    HW183400  13.429   3.839   7.846
27187SOL    HW283401  13.424   3.944   7.738
27188SOL     OW83402  11.150   4.589  13.617
27188SOL    HW183403  11.082   4.549  13.563
27188SOL    HW283404  11.101   4.642  13.681
27189SOL     OW83405  12.025   6.012  13.727
27189SOL    HW183406  12.047   6.103  13.744
27189SOL    HW283407  12.017   6.006  13.632
27190SOL     OW83408  13.605  10.438   4.418
27190SOL    HW183409  13.696  10.422   4.393
27190SOL    HW283410  13.584  10.368   4.480
27191SOL     OW83411  13.738   1.393   4.041
27191SOL    HW183412  13.787   1.402   3.960
27191SOL    HW283413  13.683   1.472   4.045
27192SOL     OW83414  11.255   5.881   6.610
27192SOL    HW183415  11.219   5.970   6.602
27192SOL    HW283416  11.222   5.835   6.533
27193SOL     OW83417   0.986   3.425   3.603
27193SOL    HW183418   0.932   3.504   3.601
27193SOL    HW283419   1.056   3.442   3.539
27194SOL     OW83420   0.883   8.849   2.897
27194SOL    HW183421   0.940   8.873   2.970
27194SOL    HW283422   0.844   8.932   2.869
27195SOL     OW83423   5.001  12.466   7.302
27195SOL    HW183424   4.930  12.410   7.333
27195SOL    HW283425   5.037  12.506   7.382
27196SOL     OW83426   8.985   2.452  12.390
27196SOL    HW183427   8.999   2.439  12.483
27196SOL    HW283428   9.070   2.430  12.350
27197SOL     OW83429  11.101   9.729  11.303
27197SOL    HW183430  11.167   9.796  11.286
27197SOL    HW283431  11.137   9.649  11.265
27198SOL     OW83432   7.701   6.955   1.918
27198SOL    HW183433   7.708   6.943   2.013
27198SOL    HW283434   7.621   7.006   1.906
27199SOL     OW83435   0.541   4.412   6.107
27199SOL    HW183436   0.621   4.393   6.156
27199SOL    HW283437   0.559   4.496   6.065
27200SOL     OW83438   9.941  13.415  12.738
27200SOL    HW183439   9.847  13.417  12.752
27200SOL    HW283440   9.979  13.444  12.820
27201SOL     OW83441   7.150  10.450   7.480
27201SOL    HW183442   7.108  10.531   7.451
27201SOL    HW283443   7.226  10.479   7.530
27202SOL     OW83444  11.740  12.451   5.488
27202SOL    HW183445  11.772  12.478   5.401
27202SOL    HW283446  11.645  12.462   5.483
27203SOL     OW83447   9.948   6.128   7.053
27203SOL    HW183448   9.964   6.153   6.962
27203SOL    HW283449  10.026   6.078   7.078
27204SOL     OW83450  11.687   2.330   8.834
27204SOL    HW183451  11.658   2.374   8.755
27204SOL    HW283452  11.645   2.377   8.906
27205SOL     OW83453  14.699   4.317   1.736
27205SOL    HW183454  14.776   4.270   1.705
27205SOL    HW283455  14.632   4.301   1.669
27206SOL     OW83456  12.358   7.631   9.493
27206SOL    HW183457  12.321   7.552   9.532
27206SOL    HW283458  12.375   7.689   9.568
27207SOL     OW83459   0.358  10.932   1.537
27207SOL    HW183460   0.359  10.881   1.456
27207SOL    HW283461   0.300  11.006   1.517
27208SOL     OW83462  11.799   5.433   3.365
27208SOL    HW183463  11.855   5.453   3.289
27208SOL    HW283464  11.718   5.399   3.327
27209SOL     OW83465  11.493  10.693   4.256
27209SOL    HW183466  11.516  10.618   4.200
27209SOL    HW283467  11.576  10.739   4.268
27210SOL     OW83468   9.973   9.965   0.449
27210SOL    HW183469  10.004   9.883   0.411
27210SOL    HW283470  10.008  10.033   0.393
27211SOL     OW83471  12.964   6.186  14.190
27211SOL    HW183472  12.940   6.273  14.221
27211SOL    HW283473  12.935   6.127  14.259
27212SOL     OW83474  14.476  13.933   8.138
27212SOL    HW183475  14.454  13.965   8.051
27212SOL    HW283476  14.565  13.965   8.154
27213SOL     OW83477  14.029  11.505  11.968
27213SOL    HW183478  13.941  11.497  12.003
27213SOL    HW283479  14.085  11.463  12.033
27214SOL     OW83480   8.257   2.070   6.503
27214SOL    HW183481   8.270   2.076   6.408
27214SOL    HW283482   8.168   2.103   6.516
27215SOL     OW83483  13.456   1.733   6.854
27215SOL    HW183484  13.396   1.691   6.793
27215SOL    HW283485  13.441   1.827   6.843
27216SOL     OW83486  10.553   3.184  12.155
27216SOL    HW183487  10.616   3.162  12.086
27216SOL    HW283488  10.514   3.100  12.180
27217SOL     OW83489   0.471   6.498  10.801
27217SOL    HW183490   0.479   6.450  10.718
27217SOL    HW283491   0.558   6.493  10.840
27218SOL     OW83492   9.231   4.613  11.274
27218SOL    HW183493   9.149   4.569  11.250
27218SOL    HW283494   9.230   4.695  11.225
27219SOL     OW83495   1.301  13.448   8.938
27219SOL    HW183496   1.295  13.526   8.883
27219SOL    HW283497   1.304  13.483   9.028
27220SOL     OW83498   2.404   7.111  14.621
27220SOL    HW183499   2.441   7.115  14.533
27220SOL    HW283500   2.335   7.044  14.615
27221SOL     OW83501  10.879   5.007   6.346
27221SOL    HW183502  10.848   4.919   6.363
27221SOL    HW283503  10.800   5.061   6.348
27222SOL     OW83504   9.674  14.189   0.449
27222SOL    HW183505   9.708  14.278   0.439
27222SOL    HW283506   9.750  14.133   0.435
27223SOL     OW83507  14.261   0.825   6.723
27223SOL    HW183508  14.285   0.917   6.734
27223SOL    HW283509  14.221   0.820   6.637
27224SOL     OW83510   9.131  13.859   3.347
27224SOL    HW183511   9.160  13.881   3.258
27224SOL    HW283512   9.066  13.789   3.334
27225SOL     OW83513  14.087  11.820   0.125
27225SOL    HW183514  14.004  11.785   0.093
27225SOL    HW283515  14.063  11.902   0.168
27226SOL     OW83516   4.371   0.009   6.035
27226SOL    HW183517   4.423   0.068   6.088
27226SOL    HW283518   4.318   0.066   5.980
27227SOL     OW83519   9.479  10.122   8.363
27227SOL    HW183520   9.542  10.055   8.337
27227SOL    HW283521   9.430  10.142   8.283
27228SOL     OW83522   4.045   8.189   6.310
27228SOL    HW183523   4.111   8.148   6.366
27228SOL    HW283524   3.969   8.131   6.316
27229SOL     OW83525  12.501  10.363  10.911
27229SOL    HW183526  12.555  10.441  10.897
27229SOL    HW283527  12.559  10.301  10.956
27230SOL     OW83528  12.852   7.323   3.146
27230SOL    HW183529  12.858   7.233   3.180
27230SOL    HW283530  12.932   7.334   3.094
27231SOL     OW83531  13.072  12.964  12.508
27231SOL    HW183532  13.137  12.963  12.437
27231SOL    HW283533  12.996  12.919  12.471
27232SOL     OW83534  11.762   1.492  12.439
27232SOL    HW183535  11.766   1.472  12.346
27232SOL    HW283536  11.769   1.407  12.483
27233SOL     OW83537   2.748  13.685   1.943
27233SOL    HW183538   2.789  13.698   2.028
27233SOL    HW283539   2.818  13.699   1.879
27234SOL     OW83540   5.702   7.809  14.070
27234SOL    HW183541   5.607   7.818  14.066
27234SOL    HW283542   5.723   7.742  14.005
27235SOL     OW83543   9.198   3.666   5.400
27235SOL    HW183544   9.224   3.689   5.489
27235SOL    HW283545   9.206   3.571   5.395
27236SOL     OW83546  11.098  10.735   7.838
27236SOL    HW183547  11.011  10.703   7.814
27236SOL    HW283548  11.144  10.659   7.872
27237SOL     OW83549   6.437   5.383   5.807
27237SOL    HW183550   6.347   5.397   5.777
27237SOL    HW283551   6.478   5.469   5.802
27238SOL     OW83552   2.361   0.301   2.452
27238SOL    HW183553   2.280   0.295   2.502
27238SOL    HW283554   2.401   0.383   2.480
27239SOL     OW83555   0.956   5.078   0.690
27239SOL    HW183556   0.994   5.091   0.603
27239SOL    HW283557   0.865   5.108   0.681
27240SOL     OW83558   5.931  12.904   7.687
27240SOL    HW183559   5.937  12.819   7.644
27240SOL    HW283560   5.997  12.958   7.643
27241SOL     OW83561  11.226   6.813   3.645
27241SOL    HW183562  11.279   6.742   3.609
27241SOL    HW283563  11.278   6.892   3.629
27242SOL     OW83564   8.410   6.006   1.726
27242SOL    HW183565   8.443   5.950   1.656
27242SOL    HW283566   8.460   5.980   1.803
27243SOL     OW83567   3.606   5.111   9.157
27243SOL    HW183568   3.687   5.133   9.111
27243SOL    HW283569   3.628   5.119   9.250
27244SOL     OW83570  12.521   1.037  11.937
27244SOL    HW183571  12.504   1.121  11.895
27244SOL    HW283572  12.616   1.037  11.954
27245SOL     OW83573  11.469   9.272   5.331
27245SOL    HW183574  11.450   9.330   5.258
27245SOL    HW283575  11.392   9.279   5.388
27246SOL     OW83576  10.626   7.760   0.529
27246SOL    HW183577  10.551   7.704   0.546
27246SOL    HW283578  10.683   7.708   0.473
27247SOL     OW83579   6.056   4.507  11.046
27247SOL    HW183580   6.070   4.419  11.013
27247SOL    HW283581   6.037   4.560  10.968
27248SOL     OW83582   5.809   8.996   7.978
27248SOL    HW183583   5.756   8.920   8.001
27248SOL    HW283584   5.891   8.985   8.027
27249SOL     OW83585   6.073  11.127   6.157
27249SOL    HW183586   6.001  11.177   6.117
27249SOL    HW283587   6.060  11.038   6.125
27250SOL     OW83588   8.636  12.828   0.061
27250SOL    HW183589   8.721  12.842   0.019
27250SOL    HW283590   8.601  12.749   0.020
27251SOL     OW83591  10.180   1.953   8.697
27251SOL    HW183592  10.170   2.044   8.670
27251SOL    HW283593  10.130   1.903   8.632
27252SOL     OW83594   0.201   1.704   9.041
27252SOL    HW183595   0.290   1.716   9.007
27252SOL    HW283596   0.206   1.625   9.094
27253SOL     OW83597   5.898  11.433   0.075
27253SOL    HW183598   5.974  11.432   0.133
27253SOL    HW283599   5.887  11.525   0.052
27254SOL     OW83600   7.578   9.407   5.498
27254SOL    HW183601   7.510   9.441   5.557
27254SOL    HW283602   7.540   9.329   5.459
27255SOL     OW83603   9.988   1.145  13.258
27255SOL    HW183604   9.943   1.086  13.319
27255SOL    HW283605  10.051   1.089  13.213
27256SOL     OW83606   7.098   5.486  11.989
27256SOL    HW183607   7.128   5.542  12.061
27256SOL    HW283608   7.111   5.539  11.910
27257SOL     OW83609  14.190  12.611  14.860
27257SOL    HW183610  14.238  12.666   0.046
27257SOL    HW283611  14.188  12.525   0.025
27258SOL     OW83612   8.619   9.517   4.169
27258SOL    HW183613   8.582   9.482   4.088
27258SOL    HW283614   8.713   9.527   4.151
27259SOL     OW83615   8.024  13.904  13.750
27259SOL    HW183616   8.033  14.000  13.754
27259SOL    HW283617   8.058  13.874  13.834
27260SOL     OW83618   2.391   4.110   7.011
27260SOL    HW183619   2.398   4.202   7.035
27260SOL    HW283620   2.381   4.110   6.916
27261SOL     OW83621  14.776   3.308  13.436
27261SOL    HW183622  14.855   3.278  13.391
27261SOL    HW283623  14.761   3.396  13.403
27262SOL     OW83624   4.641   1.151   3.176
27262SOL    HW183625   4.690   1.192   3.247
27262SOL    HW283626   4.663   1.058   3.182
27263SOL     OW83627   9.092  14.581  14.523
27263SOL    HW183628   9.019  14.638  14.546
27263SOL    HW283629   9.070  14.547  14.436
27264SOL     OW83630   9.301   2.418  10.986
27264SOL    HW183631   9.296   2.464  10.903
27264SOL    HW283632   9.338   2.333  10.964
27265SOL     OW83633   6.952  13.899   3.592
27265SOL    HW183634   6.858  13.883   3.597
27265SOL    HW283635   6.965  13.982   3.639
27266SOL     OW83636   2.780   8.529   0.037
27266SOL    HW183637   2.797   8.485  14.830
27266SOL    HW283638   2.737   8.611   0.012
27267SOL     OW83639   7.457   5.873   4.338
27267SOL    HW183640   7.486   5.782   4.336
27267SOL    HW283641   7.517   5.916   4.399
27268SOL     OW83642   4.155   9.396   6.883
27268SOL    HW183643   4.164   9.303   6.862
27268SOL    HW283644   4.129   9.436   6.800
27269SOL     OW83645  13.011  12.440  11.223
27269SOL    HW183646  12.951  12.417  11.294
27269SOL    HW283647  13.047  12.525  11.249
27270SOL     OW83648   2.841  11.253   9.072
27270SOL    HW183649   2.907  11.284   9.011
27270SOL    HW283650   2.889  11.233   9.152
27271SOL     OW83651  10.730   8.153   3.130
27271SOL    HW183652  10.643   8.187   3.150
27271SOL    HW283653  10.773   8.224   3.082
27272SOL     OW83654   1.509   8.894   3.057
27272SOL    HW183655   1.482   8.981   3.088
27272SOL    HW283656   1.587   8.874   3.108
27273SOL     OW83657   6.840   0.127   0.229
27273SOL    HW183658   6.814   0.071   0.302
27273SOL    HW283659   6.934   0.113   0.219
27274SOL     OW83660  10.374   8.122   9.418
27274SOL    HW183661  10.453   8.132   9.472
27274SOL    HW283662  10.371   8.200   9.364
27275SOL     OW83663   6.388   5.680   8.198
27275SOL    HW183664   6.422   5.657   8.284
27275SOL    HW283665   6.293   5.684   8.210
27276SOL     OW83666   4.549   6.619  13.500
27276SOL    HW183667   4.602   6.558  13.449
27276SOL    HW283668   4.546   6.699  13.447
27277SOL     OW83669   5.264  13.825   9.627
27277SOL    HW183670   5.260  13.920   9.628
27277SOL    HW283671   5.304  13.803   9.543
27278SOL     OW83672   0.768   1.266   7.335
27278SOL    HW183673   0.808   1.182   7.357
27278SOL    HW283674   0.762   1.312   7.419
27279SOL     OW83675   0.189  11.600  10.482
27279SOL    HW183676   0.246  11.676  10.491
27279SOL    HW283677   0.248  11.525  10.492
27280SOL     OW83678   5.940   2.305   2.504
27280SOL    HW183679   5.868   2.244   2.489
27280SOL    HW283680   5.975   2.280   2.590
27281SOL     OW83681  10.070  13.104   9.318
27281SOL    HW183682  10.098  13.123   9.407
27281SOL    HW283683  10.041  13.189   9.284
27282SOL     OW83684   9.039  11.647  12.942
27282SOL    HW183685   8.997  11.622  13.024
27282SOL    HW283686   9.092  11.571  12.917
27283SOL     OW83687   2.533  10.008  12.289
27283SOL    HW183688   2.457  10.039  12.238
27283SOL    HW283689   2.530   9.913  12.279
27284SOL     OW83690   6.830   5.305   9.848
27284SOL    HW183691   6.780   5.233   9.809
27284SOL    HW283692   6.884   5.263   9.914
27285SOL     OW83693   8.755  12.412   5.705
27285SOL    HW183694   8.775  12.338   5.647
27285SOL    HW283695   8.819  12.405   5.776
27286SOL     OW83696   1.214   8.512   8.741
27286SOL    HW183697   1.154   8.481   8.809
27286SOL    HW283698   1.172   8.590   8.706
27287SOL     OW83699   8.781   5.984   2.937
27287SOL    HW183700   8.834   6.017   3.011
27287SOL    HW283701   8.800   5.890   2.934
27288SOL     OW83702   3.994   3.856   8.345
27288SOL    HW183703   3.966   3.777   8.299
27288SOL    HW283704   3.964   3.843   8.435
27289SOL     OW83705   8.627   5.515   2.677
27289SOL    HW183706   8.606   5.576   2.748
27289SOL    HW283707   8.545   5.471   2.658
27290SOL     OW83708  10.219   4.384   2.438
27290SOL    HW183709  10.277   4.448   2.396
27290SOL    HW283710  10.196   4.323   2.368
27291SOL     OW83711  12.100   0.275  11.993
27291SOL    HW183712  12.144   0.340  12.048
27291SOL    HW283713  12.151   0.275  11.911
27292SOL     OW83714  14.777   2.440  10.752
27292SOL    HW183715  14.801   2.394  10.832
27292SOL    HW283716  14.851   2.425  10.693
27293SOL     OW83717   7.924   6.893   6.903
27293SOL    HW183718   7.929   6.964   6.839
27293SOL    HW283719   7.945   6.934   6.986
27294SOL     OW83720  13.243   6.992   2.229
27294SOL    HW183721  13.278   6.939   2.158
27294SOL    HW283722  13.182   6.934   2.275
27295SOL     OW83723   8.699  12.800  10.057
27295SOL    HW183724   8.770  12.771  10.114
27295SOL    HW283725   8.629  12.824  10.118
27296SOL     OW83726   5.544  13.203  12.229
27296SOL    HW183727   5.478  13.273  12.228
27296SOL    HW283728   5.557  13.180  12.137
27297SOL     OW83729   1.167   5.772   7.422
27297SOL    HW183730   1.195   5.706   7.486
27297SOL    HW283731   1.072   5.771   7.426
27298SOL     OW83732  10.141   1.801   7.830
27298SOL    HW183733  10.068   1.822   7.771
27298SOL    HW283734  10.198   1.744   7.779
27299SOL     OW83735   1.704   8.628   4.720
27299SOL    HW183736   1.747   8.706   4.755
27299SOL    HW283737   1.749   8.610   4.638
27300SOL     OW83738   6.042  12.132  10.682
27300SOL    HW183739   5.980  12.060  10.693
27300SOL    HW283740   6.007  12.182  10.607
27301SOL     OW83741  13.113   5.734  13.932
27301SOL    HW183742  13.051   5.705  13.865
27301SOL    HW283743  13.142   5.653  13.974
27302SOL     OW83744   2.030   0.308   9.713
27302SOL    HW183745   2.081   0.384   9.739
27302SOL    HW283746   1.961   0.301   9.779
27303SOL     OW83747   1.704  10.100   7.695
27303SOL    HW183748   1.614  10.070   7.679
27303SOL    HW283749   1.757  10.050   7.633
27304SOL     OW83750   6.076   1.170  10.017
27304SOL    HW183751   6.055   1.262  10.004
27304SOL    HW283752   5.991   1.127  10.026
27305SOL     OW83753   4.430   9.756  11.225
27305SOL    HW183754   4.347   9.709  11.230
27305SOL    HW283755   4.437   9.801  11.310
27306SOL     OW83756   2.338   3.561  11.510
27306SOL    HW183757   2.251   3.580  11.473
27306SOL    HW283758   2.322   3.551  11.604
27307SOL     OW83759   5.775   6.426   9.959
27307SOL    HW183760   5.703   6.436  10.021
27307SOL    HW283761   5.767   6.502   9.901
27308SOL     OW83762  12.592   8.079   8.551
27308SOL    HW183763  12.640   8.151   8.509
27308SOL    HW283764  12.657   8.035   8.605
27309SOL     OW83765   6.830  11.655   6.286
27309SOL    HW183766   6.880  11.577   6.263
27309SOL    HW283767   6.740  11.623   6.299
27310SOL     OW83768   6.839   5.485   5.666
27310SOL    HW183769   6.810   5.408   5.714
27310SOL    HW283770   6.924   5.461   5.630
27311SOL     OW83771   4.148  10.196  12.024
27311SOL    HW183772   4.096  10.120  12.049
27311SOL    HW283773   4.143  10.198  11.928
27312SOL     OW83774   7.978  14.436   4.237
27312SOL    HW183775   7.946  14.414   4.150
27312SOL    HW283776   7.903  14.475   4.281
27313SOL     OW83777  11.039   8.780   5.725
27313SOL    HW183778  11.106   8.826   5.776
27313SOL    HW283779  10.992   8.727   5.790
27314SOL     OW83780   9.371   2.711   2.373
27314SOL    HW183781   9.403   2.630   2.333
27314SOL    HW283782   9.450   2.753   2.407
27315SOL     OW83783   8.152  10.329  10.826
27315SOL    HW183784   8.117  10.293  10.745
27315SOL    HW283785   8.198  10.256  10.867
27316SOL     OW83786   1.038  14.614  11.093
27316SOL    HW183787   1.094  14.691  11.103
27316SOL    HW283788   1.060  14.579  11.006
27317SOL     OW83789   4.967  13.755   5.067
27317SOL    HW183790   5.040  13.776   5.009
27317SOL    HW283791   4.897  13.728   5.007
27318SOL     OW83792   3.653   8.548   6.042
27318SOL    HW183793   3.636   8.458   6.014
27318SOL    HW283794   3.639   8.600   5.963
27319SOL     OW83795   8.300   7.902   4.710
27319SOL    HW183796   8.318   7.845   4.635
27319SOL    HW283797   8.239   7.967   4.676
27320SOL     OW83798   1.554   9.835   3.629
27320SOL    HW183799   1.491   9.899   3.663
27320SOL    HW283800   1.500   9.772   3.581
27321SOL     OW83801   6.167   3.932   3.635
27321SOL    HW183802   6.130   4.019   3.623
27321SOL    HW283803   6.257   3.947   3.661
27322SOL     OW83804  10.392   0.534   5.043
27322SOL    HW183805  10.399   0.439   5.034
27322SOL    HW283806  10.316   0.557   4.990
27323SOL     OW83807  13.410   8.656   1.870
27323SOL    HW183808  13.388   8.579   1.921
27323SOL    HW283809  13.347   8.723   1.897
27324SOL     OW83810  10.686  13.297  10.394
27324SOL    HW183811  10.775  13.264  10.405
27324SOL    HW283812  10.652  13.306  10.483
27325SOL     OW83813  13.600   1.764  11.073
27325SOL    HW183814  13.568   1.813  10.997
27325SOL    HW283815  13.526   1.762  11.134
27326SOL     OW83816   9.095   2.884   8.108
27326SOL    HW183817   9.182   2.905   8.073
27326SOL    HW283818   9.048   2.846   8.034
27327SOL     OW83819  12.616  11.497   1.399
27327SOL    HW183820  12.629  11.485   1.305
27327SOL    HW283821  12.682  11.440   1.440
27328SOL     OW83822  13.491  11.184  14.440
27328SOL    HW183823  13.404  11.216  14.464
27328SOL    HW283824  13.508  11.224  14.355
27329SOL     OW83825  13.104   2.450   7.769
27329SOL    HW183826  13.143   2.380   7.822
27329SOL    HW283827  13.177   2.489   7.722
27330SOL     OW83828   4.965  11.047   1.224
27330SOL    HW183829   4.987  10.979   1.288
27330SOL    HW283830   4.995  11.128   1.265
27331SOL     OW83831  11.718   9.338  11.172
27331SOL    HW183832  11.718   9.245  11.192
27331SOL    HW283833  11.634   9.370  11.206
27332SOL     OW83834   9.380   8.333   6.393
27332SOL    HW183835   9.324   8.291   6.459
27332SOL    HW283836   9.469   8.310   6.420
27333SOL     OW83837  11.085   0.642  10.426
27333SOL    HW183838  11.039   0.648  10.510
27333SOL    HW283839  11.115   0.551  10.421
27334SOL     OW83840  13.490  11.632   7.314
27334SOL    HW183841  13.576  11.654   7.352
27334SOL    HW283842  13.429  11.643   7.387
27335SOL     OW83843   5.782   8.556  14.716
27335SOL    HW183844   5.793   8.567  14.621
27335SOL    HW283845   5.790   8.644  14.752
27336SOL     OW83846   2.945   6.843  12.360
27336SOL    HW183847   2.858   6.832  12.400
27336SOL    HW283848   2.991   6.761  12.381
27337SOL     OW83849   6.473  11.503   9.095
27337SOL    HW183850   6.463  11.594   9.067
27337SOL    HW283851   6.567  11.490   9.102
27338SOL     OW83852   8.544  13.562  14.207
27338SOL    HW183853   8.594  13.642  14.226
27338SOL    HW283854   8.460  13.594  14.175
27339SOL     OW83855   9.337   6.498   1.699
27339SOL    HW183856   9.346   6.501   1.795
27339SOL    HW283857   9.297   6.582   1.677
27340SOL     OW83858   5.319  12.635   9.433
27340SOL    HW183859   5.354  12.566   9.377
27340SOL    HW283860   5.246  12.671   9.384
27341SOL     OW83861   5.064  14.603  10.369
27341SOL    HW183862   5.060  14.544  10.294
27341SOL    HW283863   5.108  14.682  10.336
27342SOL     OW83864  14.727   8.219  14.101
27342SOL    HW183865  14.785   8.195  14.028
27342SOL    HW283866  14.640   8.223  14.062
27343SOL     OW83867   3.759   4.520  11.879
27343SOL    HW183868   3.674   4.562  11.887
27343SOL    HW283869   3.764   4.461  11.955
27344SOL     OW83870  14.455   4.131  12.531
27344SOL    HW183871  14.399   4.202  12.501
27344SOL    HW283872  14.493   4.095  12.450
27345SOL     OW83873  11.693   7.206   4.770
27345SOL    HW183874  11.656   7.253   4.845
27345SOL    HW283875  11.744   7.273   4.724
27346SOL     OW83876   3.006   0.821   0.560
27346SOL    HW183877   2.918   0.802   0.592
27346SOL    HW283878   3.000   0.814   0.465
27347SOL     OW83879   3.194   0.608   1.339
27347SOL    HW183880   3.123   0.672   1.344
27347SOL    HW283881   3.162   0.542   1.278
27348SOL     OW83882   7.985   2.057   3.193
27348SOL    HW183883   8.057   2.108   3.228
27348SOL    HW283884   7.970   1.988   3.258
27349SOL     OW83885   7.664   1.050   2.811
27349SOL    HW183886   7.613   1.068   2.732
27349SOL    HW283887   7.672   0.955   2.813
27350SOL     OW83888   1.444  10.278  11.018
27350SOL    HW183889   1.451  10.183  11.024
27350SOL    HW283890   1.365  10.293  10.966
27351SOL     OW83891   8.228  14.176   8.630
27351SOL    HW183892   8.247  14.091   8.670
27351SOL    HW283893   8.232  14.238   8.703
27352SOL     OW83894   8.840   7.961  11.264
27352SOL    HW183895   8.895   8.004  11.198
27352SOL    HW283896   8.774   7.914  11.213
27353SOL     OW83897   2.765   3.670   3.028
27353SOL    HW183898   2.811   3.703   3.105
27353SOL    HW283899   2.704   3.740   3.005
27354SOL     OW83900   0.362  13.331  13.788
27354SOL    HW183901   0.392  13.420  13.767
27354SOL    HW283902   0.431  13.274  13.753
27355SOL     OW83903   9.890   2.749   8.926
27355SOL    HW183904   9.950   2.679   8.903
27355SOL    HW283905   9.895   2.755   9.021
27356SOL     OW83906  13.615   9.231   0.268
27356SOL    HW183907  13.642   9.151   0.312
27356SOL    HW283908  13.521   9.221   0.255
27357SOL     OW83909   3.036   3.962   1.579
27357SOL    HW183910   2.987   4.032   1.535
27357SOL    HW283911   2.979   3.933   1.650
27358SOL     OW83912   3.989   3.889   9.256
27358SOL    HW183913   3.967   3.976   9.221
27358SOL    HW283914   3.913   3.865   9.309
27359SOL     OW83915   0.757   8.237   6.789
27359SOL    HW183916   0.746   8.143   6.807
27359SOL    HW283917   0.741   8.279   6.874
27360SOL     OW83918   3.411  11.849   0.336
27360SOL    HW183919   3.434  11.879   0.424
27360SOL    HW283920   3.414  11.928   0.282
27361SOL     OW83921   7.845  10.416   2.715
27361SOL    HW183922   7.775  10.440   2.654
27361SOL    HW283923   7.906  10.490   2.713
27362SOL     OW83924   9.542   6.407   3.716
27362SOL    HW183925   9.467   6.466   3.712
27362SOL    HW283926   9.613   6.460   3.752
27363SOL     OW83927  13.826  13.570   0.227
27363SOL    HW183928  13.810  13.640   0.163
27363SOL    HW283929  13.741  13.527   0.237
27364SOL     OW83930   3.818   4.390   8.437
27364SOL    HW183931   3.890   4.339   8.398
27364SOL    HW283932   3.751   4.324   8.458
27365SOL     OW83933  14.407  14.782   5.858
27365SOL    HW183934  14.460  14.712   5.822
27365SOL    HW283935  14.372  14.746   5.940
27366SOL     OW83936   9.190   7.194   5.491
27366SOL    HW183937   9.124   7.126   5.505
27366SOL    HW283938   9.165   7.264   5.552
27367SOL     OW83939   8.913  13.705   2.212
27367SOL    HW183940   8.910  13.800   2.211
27367SOL    HW283941   8.872  13.680   2.295
27368SOL     OW83942   7.316  12.601   1.773
27368SOL    HW183943   7.298  12.508   1.784
27368SOL    HW283944   7.230  12.643   1.773
27369SOL     OW83945   8.940   1.122   3.126
27369SOL    HW183946   8.917   1.141   3.035
27369SOL    HW283947   8.934   1.026   3.133
27370SOL     OW83948   5.676  10.455   1.970
27370SOL    HW183949   5.633  10.484   2.050
27370SOL    HW283950   5.768  10.447   1.994
27371SOL     OW83951   0.101   8.118   6.797
27371SOL    HW183952   0.027   8.070   6.834
27371SOL    HW283953   0.178   8.067   6.822
27372SOL     OW83954  10.668  12.549   0.095
27372SOL    HW183955  10.712  12.560   0.179
27372SOL    HW283956  10.695  12.625   0.043
27373SOL     OW83957  14.250  12.509   6.052
27373SOL    HW183958  14.251  12.481   5.961
27373SOL    HW283959  14.292  12.438   6.100
27374SOL     OW83960  10.261   1.676   6.356
27374SOL    HW183961  10.230   1.599   6.404
27374SOL    HW283962  10.280   1.643   6.268
27375SOL     OW83963  13.579   6.193   1.987
27375SOL    HW183964  13.582   6.198   2.082
27375SOL    HW283965  13.652   6.136   1.963
27376SOL     OW83966   8.064   1.556   5.532
27376SOL    HW183967   8.131   1.499   5.493
27376SOL    HW283968   8.114   1.625   5.574
27377SOL     OW83969   1.637   8.506  11.977
27377SOL    HW183970   1.652   8.593  11.940
27377SOL    HW283971   1.544   8.506  12.000
27378SOL     OW83972   5.406  13.633  11.101
27378SOL    HW183973   5.478  13.571  11.095
27378SOL    HW283974   5.448  13.718  11.116
27379SOL     OW83975  11.789   7.266   1.754
27379SOL    HW183976  11.842   7.260   1.674
27379SOL    HW283977  11.733   7.342   1.739
27380SOL     OW83978   6.301  10.560   5.237
27380SOL    HW183979   6.207  10.562   5.218
27380SOL    HW283980   6.343  10.549   5.152
27381SOL     OW83981  10.876   6.477   2.097
27381SOL    HW183982  10.919   6.501   2.179
27381SOL    HW283983  10.874   6.382   2.098
27382SOL     OW83984  11.399  12.981   2.826
27382SOL    HW183985  11.394  12.996   2.920
27382SOL    HW283986  11.492  12.991   2.805
27383SOL     OW83987   9.762   4.830   4.340
27383SOL    HW183988   9.809   4.781   4.274
27383SOL    HW283989   9.716   4.899   4.291
27384SOL     OW83990  14.561  11.215  11.579
27384SOL    HW183991  14.578  11.289  11.522
27384SOL    HW283992  14.468  11.196  11.566
27385SOL     OW83993   0.231   3.397   7.152
27385SOL    HW183994   0.262   3.396   7.061
27385SOL    HW283995   0.308   3.422   7.203
27386SOL     OW83996   8.580  10.807   7.228
27386SOL    HW183997   8.663  10.768   7.202
27386SOL    HW283998   8.516  10.736   7.218
27387SOL     OW83999   6.775  10.747   0.356
27387SOL    HW184000   6.783  10.741   0.261
27387SOL    HW284001   6.769  10.656   0.385
27388SOL     OW84002   9.316   8.410   4.846
27388SOL    HW184003   9.300   8.392   4.939
27388SOL    HW284004   9.379   8.345   4.819
27389SOL     OW84005   0.266  13.783   7.796
27389SOL    HW184006   0.361  13.778   7.804
27389SOL    HW284007   0.234  13.706   7.844
27390SOL     OW84008   6.350   7.952   5.818
27390SOL    HW184009   6.294   7.875   5.810
27390SOL    HW284010   6.437   7.917   5.835
27391SOL     OW84011   7.094   9.092   9.380
27391SOL    HW184012   7.010   9.081   9.424
27391SOL    HW284013   7.121   9.003   9.358
27392SOL     OW84014  11.123   9.775   4.329
27392SOL    HW184015  11.118   9.866   4.358
27392SOL    HW284016  11.032   9.746   4.324
27393SOL     OW84017  10.155   2.483  12.423
27393SOL    HW184018  10.140   2.487  12.518
27393SOL    HW284019  10.088   2.423  12.391
27394SOL     OW84020  12.926   6.978   9.062
27394SOL    HW184021  12.877   7.032   8.999
27394SOL    HW284022  12.992   6.934   9.009
27395SOL     OW84023  13.103   4.235  13.534
27395SOL    HW184024  13.068   4.287  13.606
27395SOL    HW284025  13.090   4.289  13.457
27396SOL     OW84026   3.585  13.946   8.009
27396SOL    HW184027   3.654  13.983   8.064
27396SOL    HW284028   3.591  13.852   8.023
27397SOL     OW84029  12.575  11.646   3.411
27397SOL    HW184030  12.495  11.695   3.395
27397SOL    HW284031  12.565  11.612   3.500
27398SOL     OW84032   5.264   1.491  11.205
27398SOL    HW184033   5.348   1.506  11.249
27398SOL    HW284034   5.282   1.505  11.112
27399SOL     OW84035   7.558   1.254  13.889
27399SOL    HW184036   7.629   1.231  13.949
27399SOL    HW284037   7.485   1.279  13.947
27400SOL     OW84038   6.268   8.677   8.570
27400SOL    HW184039   6.269   8.628   8.653
27400SOL    HW284040   6.260   8.609   8.503
27401SOL     OW84041  10.482   1.510   0.341
27401SOL    HW184042  10.548   1.533   0.406
27401SOL    HW284043  10.527   1.522   0.257
27402SOL     OW84044   9.556   1.627  14.395
27402SOL    HW184045   9.475   1.591  14.357
27402SOL    HW284046   9.568   1.577  14.476
27403SOL     OW84047  11.365   4.293  12.167
27403SOL    HW184048  11.424   4.368  12.161
27403SOL    HW284049  11.285   4.328  12.205
27404SOL     OW84050   3.557   6.829   1.770
27404SOL    HW184051   3.482   6.778   1.799
27404SOL    HW284052   3.612   6.767   1.722
27405SOL     OW84053   9.454  10.381   8.411
27405SOL    HW184054   9.473  10.288   8.416
27405SOL    HW284055   9.367  10.390   8.451
27406SOL     OW84056  13.796   6.999   6.976
27406SOL    HW184057  13.868   7.013   6.915
27406SOL    HW284058  13.811   7.062   7.046
27407SOL     OW84059   8.458   9.858  11.883
27407SOL    HW184060   8.507   9.939  11.867
27407SOL    HW284061   8.369   9.877  11.852
27408SOL     OW84062   2.544   3.202  11.008
27408SOL    HW184063   2.449   3.193  11.015
27408SOL    HW284064   2.557   3.286  10.963
27409SOL     OW84065  11.145  10.975   1.939
27409SOL    HW184066  11.137  10.983   1.844
27409SOL    HW284067  11.082  11.038   1.974
27410SOL     OW84068   8.266   4.347  12.183
27410SOL    HW184069   8.186   4.295  12.172
27410SOL    HW284070   8.294   4.328  12.273
27411SOL     OW84071   1.498  11.931   8.011
27411SOL    HW184072   1.441  11.854   8.004
27411SOL    HW284073   1.563  11.906   8.077
27412SOL     OW84074  10.696  14.383   5.906
27412SOL    HW184075  10.689  14.361   5.999
27412SOL    HW284076  10.627  14.448   5.892
27413SOL     OW84077   6.973  10.298  13.766
27413SOL    HW184078   7.014  10.385  13.761
27413SOL    HW284079   6.883  10.316  13.793
27414SOL     OW84080   5.990  10.697   2.348
27414SOL    HW184081   5.958  10.609   2.365
27414SOL    HW284082   6.026  10.692   2.259
27415SOL     OW84083  14.769   6.009   3.197
27415SOL    HW184084  14.815   6.036   3.118
27415SOL    HW284085  14.724   6.088   3.227
27416SOL     OW84086  11.488   4.955   0.342
27416SOL    HW184087  11.439   4.876   0.362
27416SOL    HW284088  11.424   5.013   0.301
27417SOL     OW84089  10.851   7.060   3.671
27417SOL    HW184090  10.837   7.154   3.655
27417SOL    HW284091  10.841   7.051   3.766
27418SOL     OW84092   3.535  10.008  14.219
27418SOL    HW184093   3.463   9.991  14.280
27418SOL    HW284094   3.614   9.994  14.271
27419SOL     OW84095  10.789  11.086   1.611
27419SOL    HW184096  10.722  11.109   1.674
27419SOL    HW284097  10.856  11.153   1.621
27420SOL     OW84098  14.005   0.867   9.112
27420SOL    HW184099  14.009   0.840   9.020
27420SOL    HW284100  14.002   0.962   9.109
27421SOL     OW84101  12.686   0.458  11.043
27421SOL    HW184102  12.622   0.485  10.977
27421SOL    HW284103  12.758   0.520  11.033
27422SOL     OW84104   1.916  13.806   1.748
27422SOL    HW184105   1.824  13.818   1.728
27422SOL    HW284106   1.930  13.858   1.828
27423SOL     OW84107  11.898  13.430   8.363
27423SOL    HW184108  11.823  13.488   8.353
27423SOL    HW284109  11.965  13.466   8.305
27424SOL     OW84110   3.240   8.358  11.689
27424SOL    HW184111   3.160   8.305  11.690
27424SOL    HW284112   3.259   8.372  11.597
27425SOL     OW84113   4.453   7.963   2.450
27425SOL    HW184114   4.495   7.887   2.490
27425SOL    HW284115   4.521   8.030   2.449
27426SOL     OW84116   6.556   8.431   8.537
27426SOL    HW184117   6.536   8.338   8.527
27426SOL    HW284118   6.546   8.447   8.631
27427SOL     OW84119   3.111   6.730   8.080
27427SOL    HW184120   3.137   6.822   8.081
27427SOL    HW284121   3.083   6.713   7.991
27428SOL     OW84122   1.364  11.980   2.845
27428SOL    HW184123   1.287  11.922   2.849
27428SOL    HW284124   1.431  11.927   2.802
27429SOL     OW84125  12.747   1.097  12.645
27429SOL    HW184126  12.660   1.114  12.682
27429SOL    HW284127  12.787   1.034  12.705
27430SOL     OW84128   1.273  14.545   5.520
27430SOL    HW184129   1.352  14.568   5.569
27430SOL    HW284130   1.235  14.472   5.568
27431SOL     OW84131   8.066   5.695   7.070
27431SOL    HW184132   7.977   5.665   7.055
27431SOL    HW284133   8.091   5.738   6.988
27432SOL     OW84134   6.475   1.895   8.273
27432SOL    HW184135   6.385   1.865   8.264
27432SOL    HW284136   6.519   1.866   8.193
27433SOL     OW84137   6.447   6.960  11.459
27433SOL    HW184138   6.408   6.879  11.425
27433SOL    HW284139   6.409   7.029  11.405
27434SOL     OW84140   8.102   7.337   4.096
27434SOL    HW184141   8.032   7.358   4.035
27434SOL    HW284142   8.105   7.412   4.156
27435SOL     OW84143   6.810   2.771   1.448
27435SOL    HW184144   6.760   2.844   1.411
27435SOL    HW284145   6.753   2.736   1.517
27436SOL     OW84146  14.180   7.921   0.654
27436SOL    HW184147  14.274   7.933   0.645
27436SOL    HW284148  14.144   8.010   0.654
27437SOL     OW84149   4.630   5.249   9.912
27437SOL    HW184150   4.721   5.258   9.885
27437SOL    HW284151   4.603   5.338   9.938
27438SOL     OW84152   7.634   8.175   3.759
27438SOL    HW184153   7.705   8.118   3.788
27438SOL    HW284154   7.554   8.130   3.785
27439SOL     OW84155   2.662   0.272   4.963
27439SOL    HW184156   2.630   0.360   4.942
27439SOL    HW284157   2.583   0.218   4.968
27440SOL     OW84158   8.754   0.498   3.541
27440SOL    HW184159   8.673   0.521   3.494
27440SOL    HW284160   8.745   0.542   3.625
27441SOL     OW84161   1.679  11.282  10.836
27441SOL    HW184162   1.755  11.336  10.816
27441SOL    HW284163   1.694  11.252  10.926
27442SOL     OW84164   5.744  12.971   6.559
27442SOL    HW184165   5.691  13.050   6.546
27442SOL    HW284166   5.821  12.984   6.505
27443SOL     OW84167   1.440   3.140   6.523
27443SOL    HW184168   1.477   3.169   6.606
27443SOL    HW284169   1.395   3.058   6.544
27444SOL     OW84170  14.281  11.995  14.615
27444SOL    HW184171  14.271  11.962  14.526
27444SOL    HW284172  14.273  11.918  14.670
27445SOL     OW84173   2.163  11.436   6.893
27445SOL    HW184174   2.236  11.388   6.856
27445SOL    HW284175   2.085  11.389   6.864
27446SOL     OW84176   8.649   2.597  13.267
27446SOL    HW184177   8.662   2.521  13.322
27446SOL    HW284178   8.584   2.570  13.202
27447SOL     OW84179   7.384   4.515  10.962
27447SOL    HW184180   7.318   4.551  10.902
27447SOL    HW284181   7.461   4.499  10.907
27448SOL     OW84182   2.844  11.497  11.299
27448SOL    HW184183   2.878  11.586  11.299
27448SOL    HW284184   2.898  11.450  11.364
27449SOL     OW84185  14.460   7.156   8.075
27449SOL    HW184186  14.547   7.120   8.058
27449SOL    HW284187  14.450   7.227   8.011
27450SOL     OW84188   1.373  11.602  13.965
27450SOL    HW184189   1.298  11.588  14.024
27450SOL    HW284190   1.374  11.696  13.949
27451SOL     OW84191  10.993  10.648   9.871
27451SOL    HW184192  11.017  10.724   9.818
27451SOL    HW284193  10.917  10.611   9.827
27452SOL     OW84194   6.223   0.348   9.831
27452SOL    HW184195   6.198   0.255   9.832
27452SOL    HW284196   6.200   0.380   9.918
27453SOL     OW84197   3.673   7.395   7.247
27453SOL    HW184198   3.734   7.326   7.222
27453SOL    HW284199   3.615   7.404   7.171
27454SOL     OW84200  14.512   4.811  13.423
27454SOL    HW184201  14.578   4.880  13.431
27454SOL    HW284202  14.549   4.737  13.473
27455SOL     OW84203   3.233  14.630   0.572
27455SOL    HW184204   3.225  14.721   0.544
27455SOL    HW284205   3.326  14.611   0.568
27456SOL     OW84206   7.895  14.769  12.125
27456SOL    HW184207   7.987  14.767  12.151
27456SOL    HW284208   7.896  14.769  12.030
27457SOL     OW84209   5.184   7.751   2.837
27457SOL    HW184210   5.272   7.722   2.860
27457SOL    HW284211   5.132   7.734   2.915
27458SOL     OW84212   7.957   0.869  13.843
27458SOL    HW184213   7.903   0.933  13.890
27458SOL    HW284214   7.902   0.790  13.842
27459SOL     OW84215   8.171   8.126   6.301
27459SOL    HW184216   8.228   8.107   6.227
27459SOL    HW284217   8.144   8.040   6.333
27460SOL     OW84218  14.028  13.086   3.206
27460SOL    HW184219  13.982  13.166   3.180
27460SOL    HW284220  14.115  13.095   3.167
27461SOL     OW84221   9.235   6.882   9.122
27461SOL    HW184222   9.302   6.944   9.150
27461SOL    HW284223   9.200   6.846   9.203
27462SOL     OW84224   0.061   3.038  14.512
27462SOL    HW184225   0.043   2.985  14.590
27462SOL    HW284226  14.860   3.094  14.502
27463SOL     OW84227   0.114   3.953   1.355
27463SOL    HW184228   0.102   3.873   1.406
27463SOL    HW284229   0.182   4.001   1.402
27464SOL     OW84230  10.982  10.876   1.325
27464SOL    HW184231  10.974  10.804   1.388
27464SOL    HW284232  11.066  10.861   1.283
27465SOL     OW84233   2.733   2.194  12.473
27465SOL    HW184234   2.724   2.114  12.421
27465SOL    HW284235   2.798   2.172  12.540
27466SOL     OW84236   1.086   6.958  13.116
27466SOL    HW184237   1.154   7.008  13.161
27466SOL    HW284238   1.126   6.937  13.031
27467SOL     OW84239   6.104   7.439   6.796
27467SOL    HW184240   6.143   7.359   6.758
27467SOL    HW284241   6.054   7.408   6.871
27468SOL     OW84242   3.610  11.737   7.557
27468SOL    HW184243   3.601  11.645   7.533
27468SOL    HW284244   3.521  11.766   7.576
27469SOL     OW84245   9.061   8.605  11.524
27469SOL    HW184246   9.136   8.559  11.561
27469SOL    HW284247   9.029   8.660  11.595
27470SOL     OW84248   8.592   4.715  13.782
27470SOL    HW184249   8.625   4.803  13.800
27470SOL    HW284250   8.671   4.662  13.772
27471SOL     OW84251   2.361   3.058   9.878
27471SOL    HW184252   2.267   3.044   9.869
27471SOL    HW284253   2.400   3.000   9.813
27472SOL     OW84254   7.831  10.182   5.945
27472SOL    HW184255   7.789  10.261   5.913
27472SOL    HW284256   7.800  10.113   5.886
27473SOL     OW84257   7.406   6.990   6.832
27473SOL    HW184258   7.485   7.015   6.785
27473SOL    HW284259   7.438   6.953   6.914
27474SOL     OW84260  14.781   1.548  10.367
27474SOL    HW184261  14.740   1.631  10.346
27474SOL    HW284262  14.864   1.548  10.319
27475SOL     OW84263   5.162   0.248   6.599
27475SOL    HW184264   5.172   0.343   6.594
27475SOL    HW284265   5.225   0.213   6.535
27476SOL     OW84266   3.984  11.027   2.500
27476SOL    HW184267   4.013  11.039   2.410
27476SOL    HW284268   4.063  10.998   2.547
27477SOL     OW84269   3.846   1.804   5.000
27477SOL    HW184270   3.921   1.751   4.972
27477SOL    HW284271   3.877   1.851   5.077
27478SOL     OW84272   5.285   4.093   5.868
27478SOL    HW184273   5.201   4.107   5.911
27478SOL    HW284274   5.294   3.998   5.862
27479SOL     OW84275   2.147   9.866   2.427
27479SOL    HW184276   2.117   9.945   2.472
27479SOL    HW284277   2.224   9.894   2.378
27480SOL     OW84278   1.343  12.065  10.705
27480SOL    HW184279   1.348  12.160  10.697
27480SOL    HW284280   1.374  12.032  10.621
27481SOL     OW84281   3.782   3.111   7.560
27481SOL    HW184282   3.707   3.168   7.542
27481SOL    HW284283   3.836   3.161   7.621
27482SOL     OW84284  14.112   7.287   2.662
27482SOL    HW184285  14.192   7.237   2.648
27482SOL    HW284286  14.100   7.336   2.581
27483SOL     OW84287   0.832   1.061  11.304
27483SOL    HW184288   0.774   1.010  11.247
27483SOL    HW284289   0.805   1.152  11.290
27484SOL     OW84290  14.869  14.452   1.168
27484SOL    HW184291   0.013  14.543   1.150
27484SOL    HW284292   0.066  14.403   1.130
27485SOL     OW84293   5.340   2.702   3.296
27485SOL    HW184294   5.384   2.780   3.264
27485SOL    HW284295   5.384   2.630   3.253
27486SOL     OW84296   1.818   4.131   5.250
27486SOL    HW184297   1.877   4.206   5.259
27486SOL    HW284298   1.874   4.061   5.217
27487SOL     OW84299   8.521   6.409  14.438
27487SOL    HW184300   8.598   6.361  14.406
27487SOL    HW284301   8.450   6.345  14.437
27488SOL     OW84302   3.963   9.044  14.278
27488SOL    HW184303   4.018   9.118  14.303
27488SOL    HW284304   3.874   9.076  14.287
27489SOL     OW84305  12.689   8.526   4.635
27489SOL    HW184306  12.705   8.565   4.721
27489SOL    HW284307  12.660   8.436   4.655
27490SOL     OW84308   0.773   3.603   7.457
27490SOL    HW184309   0.732   3.649   7.384
27490SOL    HW284310   0.765   3.510   7.434
27491SOL     OW84311   7.967  12.313   4.852
27491SOL    HW184312   7.891  12.256   4.854
27491SOL    HW284313   8.032  12.265   4.800
27492SOL     OW84314   9.043  14.843   3.631
27492SOL    HW184315   9.009  14.754   3.642
27492SOL    HW284316   8.965   0.022   3.631
27493SOL     OW84317  11.007   1.647  13.155
27493SOL    HW184318  10.982   1.726  13.107
27493SOL    HW284319  10.960   1.576  13.111
27494SOL     OW84320   4.217   6.071   9.712
27494SOL    HW184321   4.257   6.071   9.799
27494SOL    HW284322   4.290   6.051   9.653
27495SOL     OW84323   4.646  13.040  13.638
27495SOL    HW184324   4.634  12.947  13.653
27495SOL    HW284325   4.583  13.083  13.696
27496SOL     OW84326   0.844   2.014  11.575
27496SOL    HW184327   0.885   2.060  11.502
27496SOL    HW284328   0.750   2.019  11.558
27497SOL     OW84329  14.649   3.214  10.346
27497SOL    HW184330  14.733   3.251  10.372
27497SOL    HW284331  14.670   3.154  10.274
27498SOL     OW84332   3.507  10.109   3.661
27498SOL    HW184333   3.479  10.050   3.731
27498SOL    HW284334   3.426  10.133   3.616
27499SOL     OW84335   3.061  14.270   6.607
27499SOL    HW184336   3.013  14.323   6.671
27499SOL    HW284337   3.139  14.240   6.653
27500SOL     OW84338  13.265  13.600   3.209
27500SOL    HW184339  13.215  13.651   3.272
27500SOL    HW284340  13.313  13.665   3.158
27501SOL     OW84341   1.541  12.375   9.114
27501SOL    HW184342   1.549  12.451   9.058
27501SOL    HW284343   1.449  12.373   9.139
27502SOL     OW84344   7.386   2.705   6.226
27502SOL    HW184345   7.290   2.700   6.223
27502SOL    HW284346   7.416   2.632   6.172
27503SOL     OW84347  13.429   9.810   8.105
27503SOL    HW184348  13.522   9.828   8.111
27503SOL    HW284349  13.396   9.871   8.040
27504SOL     OW84350   8.516  12.207   1.790
27504SOL    HW184351   8.471  12.249   1.864
27504SOL    HW284352   8.447  12.196   1.724
27505SOL     OW84353  11.954   9.435  12.828
27505SOL    HW184354  11.921   9.524  12.835
27505SOL    HW284355  11.906   9.386  12.895
27506SOL     OW84356   3.230  14.042  12.818
27506SOL    HW184357   3.167  14.038  12.890
27506SOL    HW284358   3.200  14.115  12.764
27507SOL     OW84359  10.096   2.562   5.062
27507SOL    HW184360  10.048   2.612   4.997
27507SOL    HW284361  10.183   2.549   5.024
27508SOL     OW84362   5.457   6.344  12.870
27508SOL    HW184363   5.369   6.374  12.846
27508SOL    HW284364   5.442   6.267  12.924
27509SOL     OW84365   7.540  14.181  14.402
27509SOL    HW184366   7.590  14.242  14.456
27509SOL    HW284367   7.505  14.117  14.465
27510SOL     OW84368   2.005  12.452  13.190
27510SOL    HW184369   1.972  12.368  13.223
27510SOL    HW284370   2.068  12.427  13.122
27511SOL     OW84371  10.576   5.029   5.162
27511SOL    HW184372  10.529   5.014   5.081
27511SOL    HW284373  10.586   4.942   5.201
27512SOL     OW84374   5.582  14.391   7.816
27512SOL    HW184375   5.578  14.447   7.893
27512SOL    HW284376   5.583  14.452   7.742
27513SOL     OW84377   3.713   6.743   9.594
27513SOL    HW184378   3.630   6.748   9.546
27513SOL    HW284379   3.763   6.676   9.548
27514SOL     OW84380   9.017   5.976   4.894
27514SOL    HW184381   9.091   6.035   4.911
27514SOL    HW284382   9.006   5.979   4.799
27515SOL     OW84383   3.387  10.415   3.691
27515SOL    HW184384   3.363  10.506   3.706
27515SOL    HW284385   3.377  10.373   3.777
27516SOL     OW84386   1.586  12.436   0.470
27516SOL    HW184387   1.671  12.476   0.491
27516SOL    HW284388   1.579  12.363   0.532
27517SOL     OW84389   6.638   5.782  11.755
27517SOL    HW184390   6.672   5.823  11.676
27517SOL    HW284391   6.544   5.774  11.739
27518SOL     OW84392   8.079   4.034   5.069
27518SOL    HW184393   8.055   4.027   4.977
27518SOL    HW284394   7.997   4.015   5.116
27519SOL     OW84395   5.281   2.983   0.482
27519SOL    HW184396   5.195   3.022   0.496
27519SOL    HW284397   5.332   3.053   0.441
27520SOL     OW84398   2.892   8.296  13.209
27520SOL    HW184399   2.831   8.333  13.273
27520SOL    HW284400   2.842   8.226  13.167
27521SOL     OW84401   6.387   9.775   4.690
27521SOL    HW184402   6.477   9.762   4.660
27521SOL    HW284403   6.391   9.762   4.785
27522SOL     OW84404   5.334  11.976   2.619
27522SOL    HW184405   5.251  11.979   2.572
27522SOL    HW284406   5.314  12.008   2.707
27523SOL     OW84407   3.325   4.285   6.338
27523SOL    HW184408   3.279   4.366   6.362
27523SOL    HW284409   3.392   4.312   6.276
27524SOL     OW84410   4.229  14.211  10.165
27524SOL    HW184411   4.173  14.179  10.235
27524SOL    HW284412   4.280  14.282  10.205
27525SOL     OW84413   3.202   0.031   2.048
27525SOL    HW184414   3.236   0.048   2.136
27525SOL    HW284415   3.224  14.816   2.031
27526SOL     OW84416  11.485   9.214   1.150
27526SOL    HW184417  11.431   9.271   1.095
27526SOL    HW284418  11.550   9.177   1.090
27527SOL     OW84419  13.224  14.290   1.342
27527SOL    HW184420  13.243  14.371   1.295
27527SOL    HW284421  13.309  14.248   1.352
27528SOL     OW84422   2.553  14.806   2.173
27528SOL    HW184423   2.558  14.833   2.082
27528SOL    HW284424   2.484  14.860   2.211
27529SOL     OW84425   4.033   5.783  14.129
27529SOL    HW184426   4.113   5.808  14.082
27529SOL    HW284427   4.040   5.829  14.213
27530SOL     OW84428   3.925   7.974  12.554
27530SOL    HW184429   3.895   8.026  12.628
27530SOL    HW284430   3.998   7.923  12.588
27531SOL     OW84431   9.209   6.632   1.936
27531SOL    HW184432   9.269   6.674   1.997
27531SOL    HW284433   9.162   6.568   1.990
27532SOL     OW84434   1.580   4.580   1.511
27532SOL    HW184435   1.629   4.502   1.538
27532SOL    HW284436   1.646   4.646   1.496
27533SOL     OW84437   3.262   4.552   9.203
27533SOL    HW184438   3.323   4.504   9.258
27533SOL    HW284439   3.306   4.560   9.119
27534SOL     OW84440  12.547  10.442  12.221
27534SOL    HW184441  12.579  10.415  12.135
27534SOL    HW284442  12.454  10.462  12.207
27535SOL     OW84443   4.002   4.112   0.361
27535SOL    HW184444   4.073   4.139   0.420
27535SOL    HW284445   3.956   4.194   0.341
27536SOL     OW84446   6.168  11.941   2.118
27536SOL    HW184447   6.253  11.936   2.074
27536SOL    HW284448   6.110  11.982   2.055
27537SOL     OW84449   1.228   0.301   8.351
27537SOL    HW184450   1.184   0.229   8.396
27537SOL    HW284451   1.157   0.349   8.308
27538SOL     OW84452  11.588  11.124   1.699
27538SOL    HW184453  11.607  11.215   1.721
27538SOL    HW284454  11.552  11.086   1.780
27539SOL     OW84455  11.303  12.404   9.165
27539SOL    HW184456  11.344  12.471   9.220
27539SOL    HW284457  11.216  12.439   9.145
27540SOL     OW84458  14.395  13.532   7.237
27540SOL    HW184459  14.400  13.586   7.316
27540SOL    HW284460  14.310  13.552   7.199
27541SOL     OW84461  13.882  12.917   3.567
27541SOL    HW184462  13.852  12.840   3.615
27541SOL    HW284463  13.812  12.935   3.504
27542SOL     OW84464  12.317  12.300   1.806
27542SOL    HW184465  12.307  12.300   1.901
27542SOL    HW284466  12.398  12.252   1.790
27543SOL     OW84467   6.944   2.004  13.961
27543SOL    HW184468   6.943   2.005  14.057
27543SOL    HW284469   7.034   1.980  13.938
27544SOL     OW84470  11.970   4.725  13.677
27544SOL    HW184471  11.977   4.638  13.718
27544SOL    HW284472  11.877   4.746  13.681
27545SOL     OW84473   8.487   7.483   2.718
27545SOL    HW184474   8.449   7.534   2.647
27545SOL    HW284475   8.463   7.532   2.797
27546SOL     OW84476  10.881   7.593   9.578
27546SOL    HW184477  10.895   7.664   9.640
27546SOL    HW284478  10.941   7.612   9.506
27547SOL     OW84479   9.438  13.811  10.359
27547SOL    HW184480   9.451  13.902  10.386
27547SOL    HW284481   9.343  13.799  10.361
27548SOL     OW84482   6.450   7.141   5.608
27548SOL    HW184483   6.437   7.094   5.691
27548SOL    HW284484   6.367   7.128   5.561
27549SOL     OW84485   2.411   8.161   7.545
27549SOL    HW184486   2.340   8.143   7.607
27549SOL    HW284487   2.491   8.142   7.594
27550SOL     OW84488   5.797   0.377   8.447
27550SOL    HW184489   5.887   0.408   8.457
27550SOL    HW284490   5.785   0.370   8.352
27551SOL     OW84491   8.760   6.026   3.726
27551SOL    HW184492   8.769   6.029   3.630
27551SOL    HW284493   8.806   6.104   3.757
27552SOL     OW84494   8.714   5.065   9.761
27552SOL    HW184495   8.795   5.029   9.724
27552SOL    HW284496   8.737   5.087   9.851
27553SOL     OW84497   0.548  14.169  12.224
27553SOL    HW184498   0.611  14.102  12.196
27553SOL    HW284499   0.489  14.122  12.283
27554SOL     OW84500  14.820  13.448  11.722
27554SOL    HW184501  14.870  13.453  11.641
27554SOL    HW284502  14.812  13.354  11.739
27555SOL     OW84503   1.929  12.665   4.205
27555SOL    HW184504   1.910  12.632   4.293
27555SOL    HW284505   2.005  12.722   4.218
27556SOL     OW84506  10.642  10.295   3.915
27556SOL    HW184507  10.554  10.306   3.878
27556SOL    HW284508  10.627  10.266   4.005
27557SOL     OW84509   0.643  12.037   3.522
27557SOL    HW184510   0.730  12.054   3.486
27557SOL    HW284511   0.591  12.009   3.447
27558SOL     OW84512   3.422   2.267   8.042
27558SOL    HW184513   3.428   2.351   7.996
27558SOL    HW284514   3.413   2.291   8.134
27559SOL     OW84515   7.769   2.129   7.760
27559SOL    HW184516   7.725   2.107   7.843
27559SOL    HW284517   7.849   2.077   7.761
27560SOL     OW84518   9.347   6.637  12.624
27560SOL    HW184519   9.264   6.668  12.588
27560SOL    HW284520   9.323   6.570  12.687
27561SOL     OW84521  10.009   0.790   3.410
27561SOL    HW184522  10.020   0.864   3.470
27561SOL    HW284523  10.035   0.713   3.461
27562SOL     OW84524   4.154   1.747   8.637
27562SOL    HW184525   4.185   1.822   8.688
27562SOL    HW284526   4.075   1.780   8.592
27563SOL     OW84527  13.432  12.124   2.679
27563SOL    HW184528  13.482  12.050   2.712
27563SOL    HW284529  13.422  12.107   2.585
27564SOL     OW84530  14.125   8.196   3.531
27564SOL    HW184531  14.105   8.104   3.511
27564SOL    HW284532  14.068   8.245   3.471
27565SOL     OW84533   7.877  12.897   2.211
27565SOL    HW184534   7.962  12.861   2.187
27565SOL    HW284535   7.855  12.956   2.139
27566SOL     OW84536  12.002  13.885   3.160
27566SOL    HW184537  12.006  13.969   3.204
27566SOL    HW284538  11.912  13.877   3.128
27567SOL     OW84539   9.168   5.575   2.981
27567SOL    HW184540   9.169   5.604   2.890
27567SOL    HW284541   9.103   5.631   3.024
27568SOL     OW84542  13.405  14.614   9.195
27568SOL    HW184543  13.343  14.562   9.246
27568SOL    HW284544  13.378  14.602   9.104
27569SOL     OW84545   6.319   3.789  14.008
27569SOL    HW184546   6.286   3.746  13.930
27569SOL    HW284547   6.248   3.846  14.037
27570SOL     OW84548   7.067   7.368  10.201
27570SOL    HW184549   7.099   7.439  10.146
27570SOL    HW284550   7.114   7.290  10.169
27571SOL     OW84551   0.173  12.257   4.307
27571SOL    HW184552   0.228  12.335   4.303
27571SOL    HW284553   0.107  12.271   4.239
27572SOL     OW84554   3.700  13.926  10.861
27572SOL    HW184555   3.698  13.864  10.789
27572SOL    HW284556   3.675  13.874  10.938
27573SOL     OW84557  14.573  14.500  12.670
27573SOL    HW184558  14.641  14.567  12.664
27573SOL    HW284559  14.523  14.509  12.589
27574SOL     OW84560  12.715   3.294   3.935
27574SOL    HW184561  12.754   3.248   3.861
27574SOL    HW284562  12.634   3.331   3.900
27575SOL     OW84563  11.591   0.243  12.919
27575SOL    HW184564  11.610   0.167  12.974
27575SOL    HW284565  11.672   0.295  12.921
27576SOL     OW84566   6.085  14.168  13.398
27576SOL    HW184567   6.003  14.124  13.375
27576SOL    HW284568   6.102  14.143  13.488
27577SOL     OW84569   4.859   6.067  12.072
27577SOL    HW184570   4.900   6.082  12.157
27577SOL    HW284571   4.933   6.060  12.011
27578SOL     OW84572   5.148  14.057   3.795
27578SOL    HW184573   5.085  14.015   3.737
27578SOL    HW284574   5.110  14.143   3.815
27579SOL     OW84575   2.129   8.854   3.813
27579SOL    HW184576   2.207   8.802   3.793
27579SOL    HW284577   2.081   8.801   3.877
27580SOL     OW84578   3.826  14.516   2.569
27580SOL    HW184579   3.797  14.536   2.480
27580SOL    HW284580   3.865  14.429   2.563
27581SOL     OW84581   1.567   0.291  10.872
27581SOL    HW184582   1.625   0.252  10.936
27581SOL    HW284583   1.625   0.330  10.806
27582SOL     OW84584   2.916  12.663  12.563
27582SOL    HW184585   2.878  12.576  12.572
27582SOL    HW284586   2.868  12.703  12.490
27583SOL     OW84587   1.473   4.153  10.660
27583SOL    HW184588   1.531   4.121  10.729
27583SOL    HW284589   1.407   4.204  10.707
27584SOL     OW84590   3.848   0.072   4.966
27584SOL    HW184591   3.943   0.064   4.959
27584SOL    HW284592   3.826   0.020   5.044
27585SOL     OW84593   9.187   6.639   7.534
27585SOL    HW184594   9.170   6.604   7.621
27585SOL    HW284595   9.151   6.728   7.537
27586SOL     OW84596   5.130   0.697   2.142
27586SOL    HW184597   5.202   0.707   2.079
27586SOL    HW284598   5.051   0.718   2.091
27587SOL     OW84599   7.678   9.367   5.861
27587SOL    HW184600   7.719   9.368   5.774
27587SOL    HW284601   7.589   9.336   5.845
27588SOL     OW84602  10.999   0.261  13.591
27588SOL    HW184603  11.074   0.204  13.611
27588SOL    HW284604  11.021   0.303  13.508
27589SOL     OW84605   8.614   3.820   3.330
27589SOL    HW184606   8.646   3.855   3.247
27589SOL    HW284607   8.653   3.733   3.337
27590SOL     OW84608   0.619   8.929   0.507
27590SOL    HW184609   0.634   8.902   0.417
27590SOL    HW284610   0.628   9.025   0.505
27591SOL     OW84611  12.431   8.149   4.409
27591SOL    HW184612  12.409   8.056   4.404
27591SOL    HW284613  12.445   8.175   4.318
27592SOL     OW84614   0.014   9.519  10.591
27592SOL    HW184615   0.042   9.605  10.560
27592SOL    HW284616  14.829   9.538  10.662
27593SOL     OW84617   2.275   3.658  13.177
27593SOL    HW184618   2.356   3.699  13.145
27593SOL    HW284619   2.270   3.684  13.269
27594SOL     OW84620   1.395  11.860   1.706
27594SOL    HW184621   1.474  11.809   1.725
27594SOL    HW284622   1.332  11.833   1.773
27595SOL     OW84623   0.111   3.766  13.981
27595SOL    HW184624   0.052   3.729  14.047
27595SOL    HW284625   0.195   3.723  13.998
27596SOL     OW84626   6.405   2.346   5.589
27596SOL    HW184627   6.489   2.387   5.610
27596SOL    HW284628   6.426   2.253   5.577
27597SOL     OW84629   3.243   1.646   2.638
27597SOL    HW184630   3.314   1.598   2.681
27597SOL    HW284631   3.275   1.662   2.550
27598SOL     OW84632  10.967  12.410  10.163
27598SOL    HW184633  11.000  12.454  10.085
27598SOL    HW284634  10.943  12.322  10.133
27599SOL     OW84635   6.279   5.191   5.966
27599SOL    HW184636   6.246   5.257   6.027
27599SOL    HW284637   6.337   5.239   5.908
27600SOL     OW84638  14.237   6.107   9.548
27600SOL    HW184639  14.250   6.103   9.453
27600SOL    HW284640  14.203   6.194   9.564
27601SOL     OW84641   6.828   2.700   0.810
27601SOL    HW184642   6.799   2.784   0.775
27601SOL    HW284643   6.887   2.665   0.744
27602SOL     OW84644   7.903   5.669   6.656
27602SOL    HW184645   7.813   5.647   6.631
27602SOL    HW284646   7.895   5.748   6.708
27603SOL     OW84647   6.792   5.349   3.479
27603SOL    HW184648   6.761   5.405   3.407
27603SOL    HW284649   6.785   5.404   3.557
27604SOL     OW84650   7.281  11.968   3.068
27604SOL    HW184651   7.364  11.957   3.023
27604SOL    HW284652   7.304  11.979   3.160
27605SOL     OW84653   3.312  14.866   5.937
27605SOL    HW184654   3.304   0.082   5.960
27605SOL    HW284655   3.226  14.842   5.903
27606SOL     OW84656   0.169  12.514  12.416
27606SOL    HW184657   0.240  12.483  12.473
27606SOL    HW284658   0.167  12.609  12.430
27607SOL     OW84659  14.798   9.214   4.787
27607SOL    HW184660  14.787   9.292   4.734
27607SOL    HW284661  14.777   9.141   4.729
27608SOL     OW84662  13.672  12.993   5.073
27608SOL    HW184663  13.722  12.955   5.145
27608SOL    HW284664  13.607  13.049   5.116
27609SOL     OW84665   9.114   1.967  14.217
27609SOL    HW184666   9.078   1.943  14.132
27609SOL    HW284667   9.168   1.892  14.242
27610SOL     OW84668  10.749  13.498   1.240
27610SOL    HW184669  10.766  13.582   1.282
27610SOL    HW284670  10.680  13.458   1.294
27611SOL     OW84671   1.192   7.849  10.495
27611SOL    HW184672   1.216   7.941  10.507
27611SOL    HW284673   1.232   7.824  10.412
27612SOL     OW84674   1.926   6.998   9.549
27612SOL    HW184675   1.956   6.972   9.637
27612SOL    HW284676   1.889   7.085   9.562
27613SOL     OW84677   6.305   3.410  11.646
27613SOL    HW184678   6.278   3.329  11.603
27613SOL    HW284679   6.339   3.465  11.575
27614SOL     OW84680   0.437   5.391   9.794
27614SOL    HW184681   0.496   5.327   9.753
27614SOL    HW284682   0.399   5.344   9.869
27615SOL     OW84683  11.760   9.797  14.625
27615SOL    HW184684  11.793   9.786  14.714
27615SOL    HW284685  11.749   9.892  14.615
27616SOL     OW84686   2.919  12.583   1.252
27616SOL    HW184687   2.914  12.507   1.195
27616SOL    HW284688   2.989  12.637   1.215
27617SOL     OW84689   8.229   3.467   2.242
27617SOL    HW184690   8.179   3.456   2.322
27617SOL    HW284691   8.247   3.561   2.238
27618SOL     OW84692   0.251   3.734   0.759
27618SOL    HW184693   0.293   3.696   0.836
27618SOL    HW284694   0.300   3.814   0.742
27619SOL     OW84695   6.562   5.479  11.764
27619SOL    HW184696   6.625   5.423  11.719
27619SOL    HW284697   6.580   5.567  11.732
27620SOL     OW84698   8.963   9.247  13.316
27620SOL    HW184699   8.954   9.330  13.363
27620SOL    HW284700   8.971   9.273  13.224
27621SOL     OW84701   5.959   9.697   2.041
27621SOL    HW184702   5.910   9.777   2.023
27621SOL    HW284703   5.939   9.639   1.967
27622SOL     OW84704   8.028   7.036   7.113
27622SOL    HW184705   8.070   6.957   7.148
27622SOL    HW284706   8.102   7.093   7.092
27623SOL     OW84707   8.118  13.848  12.809
27623SOL    HW184708   8.174  13.926  12.804
27623SOL    HW284709   8.135  13.801  12.728
27624SOL     OW84710  14.024   8.892  13.000
27624SOL    HW184711  14.010   8.813  12.947
27624SOL    HW284712  14.066   8.954  12.940
27625SOL     OW84713   5.225   1.718   0.606
27625SOL    HW184714   5.157   1.724   0.539
27625SOL    HW284715   5.288   1.654   0.570
27626SOL     OW84716   2.185   0.330   5.203
27626SOL    HW184717   2.196   0.326   5.298
27626SOL    HW284718   2.100   0.289   5.186
27627SOL     OW84719   0.738   6.252   0.180
27627SOL    HW184720   0.682   6.281   0.108
27627SOL    HW284721   0.805   6.320   0.188
27628SOL     OW84722  13.054  10.738   4.465
27628SOL    HW184723  13.147  10.719   4.478
27628SOL    HW284724  13.032  10.798   4.536
27629SOL     OW84725   9.838   1.871   5.668
27629SOL    HW184726   9.781   1.829   5.733
27629SOL    HW284727   9.781   1.883   5.592
27630SOL     OW84728   8.650  14.432   8.567
27630SOL    HW184729   8.665  14.484   8.647
27630SOL    HW284730   8.738  14.416   8.533
27631SOL     OW84731   7.314   7.844   1.116
27631SOL    HW184732   7.259   7.885   1.050
27631SOL    HW284733   7.277   7.756   1.127
27632SOL     OW84734  13.662   1.132   9.114
27632SOL    HW184735  13.585   1.083   9.144
27632SOL    HW284736  13.727   1.064   9.095
27633SOL     OW84737   1.596   5.251   0.509
27633SOL    HW184738   1.612   5.290   0.595
27633SOL    HW284739   1.530   5.184   0.525
27634SOL     OW84740  10.988   4.818  10.409
27634SOL    HW184741  10.923   4.821  10.338
27634SOL    HW284742  10.989   4.727  10.436
27635SOL     OW84743  12.440  11.876   3.548
27635SOL    HW184744  12.481  11.951   3.591
27635SOL    HW284745  12.353  11.869   3.588
27636SOL     OW84746  13.915   4.245  14.824
27636SOL    HW184747  13.856   4.297   0.002
27636SOL    HW284748  13.982   4.307  14.795
27637SOL     OW84749   0.913   1.369  14.495
27637SOL    HW184750   0.893   1.390  14.586
27637SOL    HW284751   1.008   1.373  14.489
27638SOL     OW84752   1.877   8.302   4.123
27638SOL    HW184753   1.869   8.372   4.059
27638SOL    HW284754   1.955   8.254   4.096
27639SOL     OW84755   2.415  11.444   0.449
27639SOL    HW184756   2.470  11.520   0.468
27639SOL    HW284757   2.325  11.477   0.451
27640SOL     OW84758   1.294   6.195   2.259
27640SOL    HW184759   1.295   6.284   2.295
27640SOL    HW284760   1.314   6.207   2.166
27641SOL     OW84761  14.830   8.511  13.660
27641SOL    HW184762  14.753   8.455  13.647
27641SOL    HW284763  14.793   8.596  13.683
27642SOL     OW84764   9.648  13.385   2.922
27642SOL    HW184765   9.695  13.428   2.994
27642SOL    HW284766   9.713  13.328   2.881
27643SOL     OW84767  10.502   6.107   6.118
27643SOL    HW184768  10.499   6.181   6.057
27643SOL    HW284769  10.536   6.034   6.066
27644SOL     OW84770  11.687   4.358  11.486
27644SOL    HW184771  11.751   4.341  11.555
27644SOL    HW284772  11.610   4.391  11.533
27645SOL     OW84773   0.667   1.196   6.242
27645SOL    HW184774   0.727   1.123   6.249
27645SOL    HW284775   0.723   1.273   6.231
27646SOL     OW84776  13.031   6.978   4.085
27646SOL    HW184777  12.940   6.979   4.056
27646SOL    HW284778  13.062   7.068   4.070
27647SOL     OW84779   6.380  11.402   2.149
27647SOL    HW184780   6.351  11.435   2.064
27647SOL    HW284781   6.411  11.313   2.131
27648SOL     OW84782   0.414  13.494   7.373
27648SOL    HW184783   0.453  13.467   7.290
27648SOL    HW284784   0.418  13.590   7.372
27649SOL     OW84785   7.500   2.817  14.316
27649SOL    HW184786   7.482   2.806  14.409
27649SOL    HW284787   7.553   2.897  14.311
27650SOL     OW84788   4.609  12.650  13.943
27650SOL    HW184789   4.616  12.738  13.981
27650SOL    HW284790   4.518  12.625  13.957
27651SOL     OW84791  12.274   6.317   2.083
27651SOL    HW184792  12.365   6.293   2.100
27651SOL    HW284793  12.224   6.238   2.103
27652SOL     OW84794   6.240   2.564   4.479
27652SOL    HW184795   6.293   2.538   4.404
27652SOL    HW284796   6.153   2.580   4.444
27653SOL     OW84797   3.356   0.579  13.771
27653SOL    HW184798   3.352   0.510  13.837
27653SOL    HW284799   3.324   0.537  13.691
27654SOL     OW84800  14.841   7.596   7.464
27654SOL    HW184801   0.059   7.595   7.481
27654SOL    HW284802  14.833   7.601   7.369
27655SOL     OW84803   6.635   7.475   1.997
27655SOL    HW184804   6.655   7.389   2.032
27655SOL    HW284805   6.683   7.536   2.053
27656SOL     OW84806   1.722   5.754   3.581
27656SOL    HW184807   1.808   5.797   3.574
27656SOL    HW284808   1.679   5.774   3.498
27657SOL     OW84809   2.055   3.734   0.475
27657SOL    HW184810   2.076   3.821   0.442
27657SOL    HW284811   2.139   3.689   0.481
27658SOL     OW84812   7.286  12.475   3.458
27658SOL    HW184813   7.368  12.508   3.422
27658SOL    HW284814   7.236  12.554   3.479
27659SOL     OW84815   9.158   7.058   4.254
27659SOL    HW184816   9.149   7.011   4.171
27659SOL    HW284817   9.095   7.015   4.312
27660SOL     OW84818  14.319   8.798   0.589
27660SOL    HW184819  14.296   8.731   0.525
27660SOL    HW284820  14.235   8.835   0.615
27661SOL     OW84821  10.811  12.037  12.150
27661SOL    HW184822  10.767  11.973  12.206
27661SOL    HW284823  10.882  12.071  12.204
27662SOL     OW84824  14.475   9.560  12.190
27662SOL    HW184825  14.569   9.579  12.197
27662SOL    HW284826  14.462   9.486  12.249
27663SOL     OW84827   7.259   9.793   3.156
27663SOL    HW184828   7.213   9.811   3.238
27663SOL    HW284829   7.348   9.768   3.183
27664SOL     OW84830   1.295  13.761   1.787
27664SOL    HW184831   1.338  13.826   1.732
27664SOL    HW284832   1.308  13.792   1.876
27665SOL     OW84833   6.783   2.474   8.089
27665SOL    HW184834   6.798   2.388   8.051
27665SOL    HW284835   6.821   2.469   8.177
27666SOL     OW84836   4.378   9.466  12.998
27666SOL    HW184837   4.327   9.437  12.923
27666SOL    HW284838   4.429   9.390  13.024
27667SOL     OW84839  13.176   9.228  10.976
27667SOL    HW184840  13.146   9.236  10.886
27667SOL    HW284841  13.168   9.135  10.996
27668SOL     OW84842   2.473   4.448   1.103
27668SOL    HW184843   2.452   4.438   1.196
27668SOL    HW284844   2.564   4.421   1.096
27669SOL     OW84845  10.648   3.774   9.098
27669SOL    HW184846  10.584   3.726   9.044
27669SOL    HW284847  10.604   3.785   9.182
27670SOL     OW84848  13.325   6.659  11.918
27670SOL    HW184849  13.397   6.677  11.978
27670SOL    HW284850  13.254   6.629  11.974
27671SOL     OW84851   7.019   7.567   3.480
27671SOL    HW184852   6.974   7.651   3.476
27671SOL    HW284853   6.971   7.511   3.418
27672SOL     OW84854  13.193   9.671   3.940
27672SOL    HW184855  13.155   9.738   3.996
27672SOL    HW284856  13.256   9.625   3.996
27673SOL     OW84857  13.244  13.165   7.835
27673SOL    HW184858  13.305  13.238   7.848
27673SOL    HW284859  13.301  13.088   7.825
27674SOL     OW84860  14.071   3.903   9.856
27674SOL    HW184861  14.006   3.834   9.866
27674SOL    HW284862  14.024   3.984   9.875
27675SOL     OW84863   9.878   7.245  12.813
27675SOL    HW184864   9.811   7.311  12.829
27675SOL    HW284865   9.937   7.252  12.888
27676SOL     OW84866   6.705   7.139  14.259
27676SOL    HW184867   6.622   7.131  14.305
27676SOL    HW284868   6.683   7.130  14.166
27677SOL     OW84869   3.037   3.350  11.990
27677SOL    HW184870   2.992   3.266  11.988
27677SOL    HW284871   3.101   3.341  12.060
27678SOL     OW84872   8.401  12.188   3.715
27678SOL    HW184873   8.349  12.149   3.785
27678SOL    HW284874   8.490  12.195   3.752
27679SOL     OW84875   4.877  10.037  11.334
27679SOL    HW184876   4.853  10.124  11.367
27679SOL    HW284877   4.817   9.977  11.378
27680SOL     OW84878  14.661  13.257  10.657
27680SOL    HW184879  14.689  13.253  10.566
27680SOL    HW284880  14.719  13.322  10.697
27681SOL     OW84881  12.513   5.695  10.648
27681SOL    HW184882  12.552   5.754  10.712
27681SOL    HW284883  12.584   5.673  10.588
27682SOL     OW84884  13.622   9.790   3.577
27682SOL    HW184885  13.568   9.715   3.552
27682SOL    HW284886  13.698   9.786   3.519
27683SOL     OW84887   7.995   5.667   8.450
27683SOL    HW184888   8.038   5.661   8.535
27683SOL    HW284889   7.931   5.596   8.451
27684SOL     OW84890  10.410   6.623   2.995
27684SOL    HW184891  10.414   6.590   3.085
27684SOL    HW284892  10.471   6.568   2.947
27685SOL     OW84893   1.840  11.348  11.168
27685SOL    HW184894   1.934  11.364  11.154
27685SOL    HW284895   1.835  11.257  11.195
27686SOL     OW84896   1.445  11.156   3.091
27686SOL    HW184897   1.494  11.078   3.116
27686SOL    HW284898   1.503  11.229   3.115
27687SOL     OW84899   9.893  14.790  14.127
27687SOL    HW184900   9.868  14.705  14.093
27687SOL    HW284901   9.911  14.843  14.050
27688SOL     OW84902   8.367  13.453  12.527
27688SOL    HW184903   8.422  13.489  12.456
27688SOL    HW284904   8.405  13.367  12.545
27689SOL     OW84905   9.707   3.925  12.329
27689SOL    HW184906   9.749   3.904  12.413
27689SOL    HW284907   9.749   3.866  12.266
27690SOL     OW84908   8.850  14.665   0.178
27690SOL    HW184909   8.766  14.709   0.186
27690SOL    HW284910   8.903  14.701   0.250
27691SOL     OW84911  11.393   1.340  10.390
27691SOL    HW184912  11.357   1.361  10.476
27691SOL    HW284913  11.316   1.319  10.337
27692SOL     OW84914  14.301  11.172  10.852
27692SOL    HW184915  14.257  11.120  10.785
27692SOL    HW284916  14.386  11.194  10.814
27693SOL     OW84917   0.001   6.287   8.973
27693SOL    HW184918   0.093   6.303   8.956
27693SOL    HW284919  14.870   6.191   8.977
27694SOL     OW84920   2.119   5.679  14.747
27694SOL    HW184921   2.090   5.639  14.665
27694SOL    HW284922   2.135   5.605  14.806
27695SOL     OW84923   0.775   2.513   1.814
27695SOL    HW184924   0.730   2.596   1.799
27695SOL    HW284925   0.812   2.490   1.729
27696SOL     OW84926   6.473  12.147   2.997
27696SOL    HW184927   6.495  12.166   3.089
27696SOL    HW284928   6.438  12.228   2.963
27697SOL     OW84929   0.292   0.579  10.956
27697SOL    HW184930   0.342   0.505  10.991
27697SOL    HW284931   0.310   0.577  10.862
27698SOL     OW84932  13.587   2.277  10.572
27698SOL    HW184933  13.571   2.371  10.571
27698SOL    HW284934  13.526   2.240  10.509
27699SOL     OW84935   9.181  13.284   9.062
27699SOL    HW184936   9.115  13.324   9.006
27699SOL    HW284937   9.253  13.262   9.003
27700SOL     OW84938  11.974   6.076  10.653
27700SOL    HW184939  12.028   6.003  10.683
27700SOL    HW284940  12.036   6.144  10.628
27701SOL     OW84941   7.132   4.945   0.511
27701SOL    HW184942   7.140   4.908   0.423
27701SOL    HW284943   7.070   5.018   0.500
27702SOL     OW84944  14.684   8.920   2.971
27702SOL    HW184945  14.693   8.914   3.066
27702SOL    HW284946  14.594   8.949   2.957
27703SOL     OW84947   9.510   2.875  14.710
27703SOL    HW184948   9.469   2.911  14.788
27703SOL    HW284949   9.519   2.949  14.651
27704SOL     OW84950   1.122   2.562   0.827
27704SOL    HW184951   1.167   2.647   0.823
27704SOL    HW284952   1.053   2.568   0.762
27705SOL     OW84953   2.801   7.576   0.018
27705SOL    HW184954   2.754   7.512  14.842
27705SOL    HW284955   2.752   7.657   0.007
27706SOL     OW84956   8.736   1.268  11.831
27706SOL    HW184957   8.775   1.294  11.914
27706SOL    HW284958   8.730   1.350  11.781
27707SOL     OW84959   5.169   9.644   5.836
27707SOL    HW184960   5.244   9.603   5.878
27707SOL    HW284961   5.207   9.711   5.778
27708SOL     OW84962   9.438   9.479   4.506
27708SOL    HW184963   9.472   9.482   4.417
27708SOL    HW284964   9.418   9.571   4.528
27709SOL     OW84965   1.997   3.942  11.100
27709SOL    HW184966   1.905   3.919  11.084
27709SOL    HW284967   2.004   3.951  11.195
27710SOL     OW84968   3.784  10.905  10.757
27710SOL    HW184969   3.813  10.835  10.814
27710SOL    HW284970   3.713  10.867  10.705
27711SOL     OW84971  14.135   7.983   7.554
27711SOL    HW184972  14.181   7.939   7.625
27711SOL    HW284973  14.184   8.064   7.540
27712SOL     OW84974  13.027   7.578   6.800
27712SOL    HW184975  13.095   7.630   6.844
27712SOL    HW284976  12.946   7.626   6.816
27713SOL     OW84977  12.130  13.197   2.621
27713SOL    HW184978  12.076  13.126   2.587
27713SOL    HW284979  12.097  13.275   2.576
27714SOL     OW84980  14.420   6.176   2.164
27714SOL    HW184981  14.506   6.218   2.162
27714SOL    HW284982  14.365   6.231   2.108
27715SOL     OW84983   3.674   9.750   5.217
27715SOL    HW184984   3.758   9.706   5.230
27715SOL    HW284985   3.652   9.786   5.303
27716SOL     OW84986   6.200   1.383  12.675
27716SOL    HW184987   6.198   1.395  12.580
27716SOL    HW284988   6.285   1.419  12.702
27717SOL     OW84989   3.924  13.783   5.471
27717SOL    HW184990   3.958  13.776   5.561
27717SOL    HW284991   3.910  13.877   5.458
27718SOL     OW84992  10.081   7.896   6.607
27718SOL    HW184993  10.069   7.839   6.531
27718SOL    HW284994  10.117   7.839   6.675
27719SOL     OW84995   5.957   1.064  10.385
27719SOL    HW184996   5.934   1.045  10.476
27719SOL    HW284997   5.946   0.981  10.340
27720SOL     OW84998  13.821   2.242  12.966
27720SOL    HW184999  13.732   2.207  12.974
27720SOL    HW285000  13.839   2.238  12.872
27721SOL     OW85001   8.568   4.699   3.603
27721SOL    HW185002   8.522   4.777   3.573
27721SOL    HW285003   8.630   4.679   3.533
27722SOL     OW85004   9.441  13.224   4.711
27722SOL    HW185005   9.526  13.264   4.695
27722SOL    HW285006   9.393  13.289   4.762
27723SOL     OW85007   0.439  13.293   8.422
27723SOL    HW185008   0.371  13.239   8.381
27723SOL    HW285009   0.516  13.236   8.424
27724SOL     OW85010   2.829  11.609   3.983
27724SOL    HW185011   2.735  11.627   3.980
27724SOL    HW285012   2.835  11.525   4.029
27725SOL     OW85013   1.184   9.483  12.536
27725SOL    HW185014   1.242   9.406  12.539
27725SOL    HW285015   1.148   9.490  12.624
27726SOL     OW85016  14.558   2.284   7.553
27726SOL    HW185017  14.511   2.353   7.599
27726SOL    HW285018  14.648   2.290   7.586
27727SOL     OW85019   1.622   7.300   8.314
27727SOL    HW185020   1.666   7.231   8.265
27727SOL    HW285021   1.671   7.380   8.294
27728SOL     OW85022  12.283   1.381  12.528
27728SOL    HW185023  12.212   1.435  12.492
27728SOL    HW285024  12.241   1.297  12.547
27729SOL     OW85025  11.687   7.223   2.537
27729SOL    HW185026  11.655   7.313   2.543
27729SOL    HW285027  11.774   7.225   2.576
27730SOL     OW85028   4.952  11.256  14.623
27730SOL    HW185029   4.866  11.269  14.583
27730SOL    HW285030   4.944  11.173  14.670
27731SOL     OW85031   8.538  11.996   6.122
27731SOL    HW185032   8.586  11.978   6.041
27731SOL    HW285033   8.596  12.053   6.172
27732SOL     OW85034  12.535   1.525   1.776
27732SOL    HW185035  12.628   1.522   1.755
27732SOL    HW285036  12.525   1.468   1.852
27733SOL     OW85037   7.168  13.750   7.314
27733SOL    HW185038   7.235  13.686   7.337
27733SOL    HW285039   7.126  13.772   7.397
27734SOL     OW85040   8.837  12.795   8.931
27734SOL    HW185041   8.909  12.785   8.993
27734SOL    HW285042   8.848  12.723   8.870
27735SOL     OW85043   8.544   6.011  10.585
27735SOL    HW185044   8.535   6.016  10.680
27735SOL    HW285045   8.467   5.962  10.556
27736SOL     OW85046  13.415  13.570   4.923
27736SOL    HW185047  13.413  13.488   4.874
27736SOL    HW285048  13.508  13.592   4.928
27737SOL     OW85049   2.324   0.279  11.815
27737SOL    HW185050   2.389   0.279  11.885
27737SOL    HW285051   2.242   0.257  11.858
27738SOL     OW85052   4.967   6.820   4.107
27738SOL    HW185053   4.967   6.830   4.011
27738SOL    HW285054   4.900   6.881   4.137
27739SOL     OW85055  12.522   9.845  13.337
27739SOL    HW185056  12.603   9.795  13.348
27739SOL    HW285057  12.476   9.801  13.265
27740SOL     OW85058   4.260   2.968   8.799
27740SOL    HW185059   4.248   3.060   8.822
27740SOL    HW285060   4.333   2.968   8.737
27741SOL     OW85061  13.588   9.188   4.702
27741SOL    HW185062  13.543   9.162   4.783
27741SOL    HW285063  13.677   9.156   4.713
27742SOL     OW85064   7.455   1.833  11.767
27742SOL    HW185065   7.527   1.780  11.732
27742SOL    HW285066   7.499   1.901  11.818
27743SOL     OW85067  13.822  10.890   5.478
27743SOL    HW185068  13.843  10.981   5.498
27743SOL    HW285069  13.757  10.896   5.408
27744SOL     OW85070   1.087   4.228   1.956
27744SOL    HW185071   1.030   4.294   1.917
27744SOL    HW285072   1.036   4.195   2.030
27745SOL     OW85073   6.962   1.348  12.451
27745SOL    HW185074   6.873   1.352  12.416
27745SOL    HW285075   6.956   1.392  12.535
27746SOL     OW85076   4.284   2.171  12.288
27746SOL    HW185077   4.231   2.171  12.208
27746SOL    HW285078   4.262   2.254  12.331
27747SOL     OW85079   8.682  13.823  10.458
27747SOL    HW185080   8.694  13.738  10.415
27747SOL    HW285081   8.592  13.821  10.490
27748SOL     OW85082  12.983   3.935   9.717
27748SOL    HW185083  12.910   3.950   9.657
27748SOL    HW285084  13.042   3.876   9.670
27749SOL     OW85085   3.969   6.425  13.144
27749SOL    HW185086   3.989   6.369  13.069
27749SOL    HW285087   4.051   6.430  13.193
27750SOL     OW85088   5.499   9.905   8.361
27750SOL    HW185089   5.570   9.918   8.299
27750SOL    HW285090   5.544   9.887   8.444
27751SOL     OW85091  13.537  12.154   1.555
27751SOL    HW185092  13.557  12.149   1.461
27751SOL    HW285093  13.461  12.098   1.567
27752SOL     OW85094  13.931   2.235   5.570
27752SOL    HW185095  13.983   2.155   5.558
27752SOL    HW285096  13.851   2.205   5.614
27753SOL     OW85097   2.847  12.551   8.249
27753SOL    HW185098   2.804  12.598   8.178
27753SOL    HW285099   2.837  12.458   8.226
27754SOL     OW85100  12.414   5.458   5.402
27754SOL    HW185101  12.447   5.506   5.326
27754SOL    HW285102  12.323   5.438   5.380
27755SOL     OW85103   7.855   4.746   6.993
27755SOL    HW185104   7.908   4.759   7.072
27755SOL    HW285105   7.919   4.725   6.925
27756SOL     OW85106  10.394   9.013  12.009
27756SOL    HW185107  10.384   9.032  12.102
27756SOL    HW285108  10.365   8.922  12.000
27757SOL     OW85109   7.645   5.526  14.373
27757SOL    HW185110   7.679   5.442  14.340
27757SOL    HW285111   7.688   5.592  14.318
27758SOL     OW85112  12.073   9.762  11.219
27758SOL    HW185113  12.164   9.771  11.250
27758SOL    HW285114  12.082   9.731  11.129
27759SOL     OW85115  11.433   1.243   3.573
27759SOL    HW185116  11.421   1.233   3.479
27759SOL    HW285117  11.521   1.281   3.581
27760SOL     OW85118  13.533   4.241   9.904
27760SOL    HW185119  13.498   4.267   9.989
27760SOL    HW285120  13.498   4.153   9.890
27761SOL     OW85121   6.223  11.814   5.425
27761SOL    HW185122   6.171  11.882   5.383
27761SOL    HW285123   6.184  11.803   5.512
27762SOL     OW85124   1.800  10.083  11.060
27762SOL    HW185125   1.841   9.997  11.049
27762SOL    HW285126   1.813  10.127  10.976
27763SOL     OW85127   9.135   9.490   2.567
27763SOL    HW185128   9.086   9.519   2.490
27763SOL    HW285129   9.192   9.564   2.589
27764SOL     OW85130  13.853   9.035   0.271
27764SOL    HW185131  13.872   9.077   0.188
27764SOL    HW285132  13.914   8.961   0.276
27765SOL     OW85133   1.123   6.374  13.950
27765SOL    HW185134   1.092   6.314  13.881
27765SOL    HW285135   1.048   6.432  13.967
27766SOL     OW85136   0.936   4.079   7.630
27766SOL    HW185137   0.895   3.996   7.655
27766SOL    HW285138   0.918   4.137   7.704
27767SOL     OW85139   1.857  14.820  13.244
27767SOL    HW185140   1.841   0.038  13.253
27767SOL    HW285141   1.894  14.794  13.329
27768SOL     OW85142   8.010   9.802   8.968
27768SOL    HW185143   8.092   9.760   8.940
27768SOL    HW285144   7.947   9.731   8.975
27769SOL     OW85145  11.637   1.102   2.978
27769SOL    HW185146  11.664   1.012   2.997
27769SOL    HW285147  11.717   1.154   2.989
27770SOL     OW85148   4.676   3.273   1.823
27770SOL    HW185149   4.618   3.198   1.813
27770SOL    HW285150   4.618   3.348   1.836
27771SOL     OW85151  11.411  11.334   2.416
27771SOL    HW185152  11.346  11.277   2.457
27771SOL    HW285153  11.360  11.400   2.371
27772SOL     OW85154  13.082   9.190   2.114
27772SOL    HW185155  13.175   9.168   2.106
27772SOL    HW285156  13.079   9.285   2.106
27773SOL     OW85157   8.772   5.059  10.791
27773SOL    HW185158   8.738   4.992  10.732
27773SOL    HW285159   8.827   5.115  10.735
27774SOL     OW85160  10.126  11.045  14.837
27774SOL    HW185161  10.110  11.138  14.852
27774SOL    HW285162  10.096  11.002   0.040
27775SOL     OW85163  10.261   8.220   1.092
27775SOL    HW185164  10.273   8.284   1.023
27775SOL    HW285165  10.267   8.270   1.173
27776SOL     OW85166   7.351   5.530  11.731
27776SOL    HW185167   7.319   5.518  11.642
27776SOL    HW285168   7.298   5.601  11.767
27777SOL     OW85169   4.252  14.000   2.028
27777SOL    HW185170   4.296  13.965   1.951
27777SOL    HW285171   4.159  13.982   2.013
27778SOL     OW85172   6.534   8.487   1.288
27778SOL    HW185173   6.573   8.543   1.221
27778SOL    HW285174   6.609   8.442   1.327
27779SOL     OW85175   5.774   4.812  11.017
27779SOL    HW185176   5.821   4.784  11.095
27779SOL    HW285177   5.830   4.880  10.979
27780SOL     OW85178  10.635   2.369  12.965
27780SOL    HW185179  10.640   2.460  12.936
27780SOL    HW285180  10.722   2.349  12.997
27781SOL     OW85181  14.605  11.398  11.365
27781SOL    HW185182  14.632  11.318  11.320
27781SOL    HW285183  14.513  11.409  11.339
27782SOL     OW85184  11.170  10.848  11.465
27782SOL    HW185185  11.083  10.857  11.502
27782SOL    HW285186  11.160  10.874  11.373
27783SOL     OW85187   1.357  13.521   1.690
27783SOL    HW185188   1.346  13.604   1.735
27783SOL    HW285189   1.451  13.510   1.681
27784SOL     OW85190  12.719   1.165   5.006
27784SOL    HW185191  12.694   1.222   5.078
27784SOL    HW285192  12.647   1.102   4.999
27785SOL     OW85193   0.986  10.499   3.939
27785SOL    HW185194   0.917  10.502   4.006
27785SOL    HW285195   1.024  10.412   3.947
27786SOL     OW85196  13.983   0.212   2.398
27786SOL    HW185197  14.072   0.203   2.363
27786SOL    HW285198  13.974   0.306   2.415
27787SOL     OW85199  12.928   9.169  13.232
27787SOL    HW185200  12.874   9.103  13.190
27787SOL    HW285201  12.890   9.252  13.204
27788SOL     OW85202   1.292  14.117   0.303
27788SOL    HW185203   1.360  14.141   0.240
27788SOL    HW285204   1.246  14.043   0.262
27789SOL     OW85205  11.565   4.145  13.224
27789SOL    HW185206  11.629   4.153  13.153
27789SOL    HW285207  11.587   4.216  13.285
27790SOL     OW85208  13.581   4.708   2.267
27790SOL    HW185209  13.657   4.661   2.232
27790SOL    HW285210  13.510   4.688   2.206
27791SOL     OW85211   5.473   4.863  13.737
27791SOL    HW185212   5.559   4.850  13.697
27791SOL    HW285213   5.438   4.775  13.749
27792SOL     OW85214   7.533   6.175   4.070
27792SOL    HW185215   7.525   6.121   3.991
27792SOL    HW285216   7.443   6.187   4.100
27793SOL     OW85217  11.866  12.801   4.197
27793SOL    HW185218  11.921  12.752   4.259
27793SOL    HW285219  11.835  12.735   4.135
27794SOL     OW85220   3.345  12.739   7.246
27794SOL    HW185221   3.440  12.729   7.248
27794SOL    HW285222   3.331  12.831   7.223
27795SOL     OW85223   1.592   0.728   4.214
27795SOL    HW185224   1.542   0.652   4.242
27795SOL    HW285225   1.679   0.715   4.251
27796SOL     OW85226   0.740  13.944   1.405
27796SOL    HW185227   0.749  14.002   1.329
27796SOL    HW285228   0.830  13.921   1.429
27797SOL     OW85229   4.359   9.287   5.700
27797SOL    HW185230   4.451   9.262   5.704
27797SOL    HW285231   4.325   9.240   5.624
27798SOL     OW85232   3.700   9.084  14.861
27798SOL    HW185233   3.675   9.072   0.076
27798SOL    HW285234   3.630   9.139  14.824
27799SOL     OW85235  10.689  13.520   6.876
27799SOL    HW185236  10.695  13.480   6.963
27799SOL    HW285237  10.769  13.571   6.868
27800SOL     OW85238  11.274   0.972   6.449
27800SOL    HW185239  11.300   0.977   6.541
27800SOL    HW285240  11.356   0.981   6.400
27801SOL     OW85241   0.676   7.613   6.348
27801SOL    HW185242   0.698   7.660   6.428
27801SOL    HW285243   0.742   7.642   6.284
27802SOL     OW85244  11.897  13.276   0.958
27802SOL    HW185245  11.899  13.196   0.905
27802SOL    HW285246  11.934  13.250   1.042
27803SOL     OW85247   3.552   2.573   4.714
27803SOL    HW185248   3.477   2.611   4.669
27803SOL    HW285249   3.628   2.622   4.682
27804SOL     OW85250   7.767   3.821   0.147
27804SOL    HW185251   7.846   3.876   0.145
27804SOL    HW285252   7.791   3.745   0.200
27805SOL     OW85253  12.615   0.829   4.938
27805SOL    HW185254  12.659   0.801   4.859
27805SOL    HW285255  12.527   0.854   4.910
27806SOL     OW85256  11.762  14.707   1.364
27806SOL    HW185257  11.812  14.745   1.292
27806SOL    HW285258  11.814  14.631   1.392
27807SOL     OW85259   9.247   3.315   5.108
27807SOL    HW185260   9.327   3.367   5.095
27807SOL    HW285261   9.210   3.305   5.021
27808SOL     OW85262  10.182  14.428   8.939
27808SOL    HW185263  10.136  14.460   8.862
27808SOL    HW285264  10.229  14.504   8.973
27809SOL     OW85265   6.708   4.397   6.590
27809SOL    HW185266   6.614   4.399   6.572
27809SOL    HW285267   6.734   4.489   6.596
27810SOL     OW85268   5.372  11.579   6.298
27810SOL    HW185269   5.350  11.504   6.243
27810SOL    HW285270   5.454  11.554   6.340
27811SOL     OW85271  12.830   9.249   9.512
27811SOL    HW185272  12.871   9.212   9.434
27811SOL    HW285273  12.806   9.338   9.487
27812SOL     OW85274  10.515   6.246   7.597
27812SOL    HW185275  10.429   6.205   7.611
27812SOL    HW285276  10.569   6.214   7.669
27813SOL     OW85277   2.018   1.519  14.029
27813SOL    HW185278   2.047   1.462  13.958
27813SOL    HW285279   1.925   1.536  14.010
27814SOL     OW85280   7.373   0.246  10.740
27814SOL    HW185281   7.448   0.292  10.704
27814SOL    HW285282   7.320   0.314  10.782
27815SOL     OW85283   9.305  14.088   8.485
27815SOL    HW185284   9.359  14.031   8.541
27815SOL    HW285285   9.220  14.091   8.529
27816SOL     OW85286   0.142  13.139  10.762
27816SOL    HW185287   0.048  13.146  10.777
27816SOL    HW285288   0.177  13.103  10.843
27817SOL     OW85289   1.222   1.371  10.804
27817SOL    HW185290   1.263   1.432  10.866
27817SOL    HW285291   1.249   1.285  10.834
27818SOL     OW85292   4.385   6.448   7.282
27818SOL    HW185293   4.457   6.500   7.318
27818SOL    HW285294   4.420   6.413   7.200
27819SOL     OW85295   1.475   2.504  14.686
27819SOL    HW185296   1.527   2.498  14.606
27819SOL    HW285297   1.485   2.595  14.714
27820SOL     OW85298   9.258  11.225   8.840
27820SOL    HW185299   9.282  11.314   8.815
27820SOL    HW285300   9.339  11.175   8.830
27821SOL     OW85301   2.037   6.785   8.486
27821SOL    HW185302   1.950   6.768   8.449
27821SOL    HW285303   2.084   6.703   8.473
27822SOL     OW85304   4.606   7.860   3.455
27822SOL    HW185305   4.644   7.944   3.428
27822SOL    HW285306   4.680   7.800   3.458
27823SOL     OW85307   2.457   8.669   9.817
27823SOL    HW185308   2.469   8.636   9.728
27823SOL    HW285309   2.362   8.675   9.828
27824SOL     OW85310   0.306   9.328  10.104
27824SOL    HW185311   0.347   9.297  10.024
27824SOL    HW285312   0.348   9.412  10.122
27825SOL     OW85313   3.126   9.348   6.398
27825SOL    HW185314   3.134   9.426   6.344
27825SOL    HW285315   3.181   9.283   6.354
27826SOL     OW85316  10.124  10.600   5.705
27826SOL    HW185317  10.122  10.695   5.713
27826SOL    HW285318  10.181  10.571   5.776
27827SOL     OW85319   3.776  12.570   3.150
27827SOL    HW185320   3.735  12.520   3.080
27827SOL    HW285321   3.869  12.546   3.146
27828SOL     OW85322   1.686   0.754  12.904
27828SOL    HW185323   1.697   0.664  12.875
27828SOL    HW285324   1.604   0.783  12.863
27829SOL     OW85325   7.897  12.436   9.226
27829SOL    HW185326   7.851  12.417   9.144
27829SOL    HW285327   7.903  12.532   9.229
27830SOL     OW85328   4.187  13.209   1.446
27830SOL    HW185329   4.274  13.197   1.408
27830SOL    HW285330   4.199  13.192   1.539
27831SOL     OW85331  11.337   6.597  11.521
27831SOL    HW185332  11.403   6.547  11.473
27831SOL    HW285333  11.306   6.536  11.589
27832SOL     OW85334   4.135  10.631  11.182
27832SOL    HW185335   4.104  10.682  11.258
27832SOL    HW285336   4.214  10.588  11.214
27833SOL     OW85337  11.631  10.658  11.516
27833SOL    HW185338  11.539  10.668  11.490
27833SOL    HW285339  11.670  10.606  11.446
27834SOL     OW85340   4.629   7.870   7.278
27834SOL    HW185341   4.559   7.875   7.213
27834SOL    HW285342   4.584   7.851   7.360
27835SOL     OW85343   6.313   8.234   8.752
27835SOL    HW185344   6.313   8.326   8.726
27835SOL    HW285345   6.380   8.194   8.696
27836SOL     OW85346   0.157  11.073  13.114
27836SOL    HW185347   0.180  11.155  13.071
27836SOL    HW285348   0.071  11.088  13.152
27837SOL     OW85349   9.134  12.822   7.497
27837SOL    HW185350   9.138  12.783   7.410
27837SOL    HW285351   9.080  12.900   7.486
27838SOL     OW85352   5.038  14.698   7.062
27838SOL    HW185353   4.970  14.637   7.032
27838SOL    HW285354   5.116  14.643   7.073
27839SOL     OW85355   8.315   2.153  10.209
27839SOL    HW185356   8.283   2.148  10.299
27839SOL    HW285357   8.253   2.211  10.165
27840SOL     OW85358  14.265   2.767   7.638
27840SOL    HW185359  14.238   2.790   7.550
27840SOL    HW285360  14.199   2.704   7.668
27841SOL     OW85361  11.928   7.751   2.882
27841SOL    HW185362  11.951   7.740   2.974
27841SOL    HW285363  11.845   7.703   2.873
27842SOL     OW85364   1.537   1.707  11.883
27842SOL    HW185365   1.569   1.791  11.850
27842SOL    HW285366   1.443   1.720  11.895
27843SOL     OW85367  10.908   9.658   5.743
27843SOL    HW185368  10.840   9.701   5.691
27843SOL    HW285369  10.862   9.628   5.821
27844SOL     OW85370   8.084   7.435   1.390
27844SOL    HW185371   8.085   7.348   1.430
27844SOL    HW285372   8.145   7.486   1.443
27845SOL     OW85373   9.699   9.772  11.746
27845SOL    HW185374   9.733   9.810  11.827
27845SOL    HW285375   9.727   9.832  11.677
27846SOL     OW85376  12.337   9.204  14.119
27846SOL    HW185377  12.358   9.289  14.080
27846SOL    HW285378  12.248   9.215  14.153
27847SOL     OW85379   5.040  10.794   7.432
27847SOL    HW185380   5.080  10.833   7.510
27847SOL    HW285381   5.114  10.757   7.383
27848SOL     OW85382   1.602   5.553   3.245
27848SOL    HW185383   1.588   5.466   3.283
27848SOL    HW285384   1.601   5.612   3.320
27849SOL     OW85385   6.583  10.743   5.462
27849SOL    HW185386   6.659  10.697   5.498
27849SOL    HW285387   6.528  10.762   5.538
27850SOL     OW85388   0.190   6.107  14.289
27850SOL    HW185389   0.249   6.181  14.273
27850SOL    HW285390   0.179   6.106  14.384
27851SOL     OW85391   9.125  12.920  12.348
27851SOL    HW185392   9.111  13.011  12.320
27851SOL    HW285393   9.082  12.914  12.433
27852SOL     OW85394   3.769  13.942   3.090
27852SOL    HW185395   3.815  13.913   3.011
27852SOL    HW285396   3.789  14.035   3.097
27853SOL     OW85397   4.516  14.560   0.676
27853SOL    HW185398   4.585  14.546   0.741
27853SOL    HW285399   4.562  14.589   0.597
27854SOL     OW85400  11.032   2.979  13.404
27854SOL    HW185401  11.105   2.961  13.463
27854SOL    HW285402  11.073   2.994  13.319
27855SOL     OW85403   2.934   1.883  12.824
27855SOL    HW185404   2.894   1.949  12.880
27855SOL    HW285405   2.893   1.801  12.852
27856SOL     OW85406  11.896   7.609   0.687
27856SOL    HW185407  11.831   7.646   0.628
27856SOL    HW285408  11.980   7.638   0.651
27857SOL     OW85409   6.649   3.843  12.562
27857SOL    HW185410   6.735   3.873  12.592
27857SOL    HW285411   6.653   3.851  12.467
27858SOL     OW85412   7.246   4.168   3.820
27858SOL    HW185413   7.252   4.161   3.915
27858SOL    HW285414   7.223   4.259   3.803
27859SOL     OW85415   4.639  11.408   8.825
27859SOL    HW185416   4.644  11.396   8.920
27859SOL    HW285417   4.638  11.503   8.813
27860SOL     OW85418  12.709   6.711   9.659
27860SOL    HW185419  12.727   6.645   9.725
27860SOL    HW285420  12.745   6.792   9.695
27861SOL     OW85421  10.842   9.690   5.233
27861SOL    HW185422  10.824   9.760   5.296
27861SOL    HW285423  10.916   9.642   5.271
27862SOL     OW85424   1.496   5.810  10.810
27862SOL    HW185425   1.409   5.836  10.780
27862SOL    HW285426   1.529   5.886  10.857
27863SOL     OW85427  13.969   0.964   5.364
27863SOL    HW185428  13.899   1.010   5.319
27863SOL    HW285429  13.928   0.885   5.399
27864SOL     OW85430   9.954   8.366   3.507
27864SOL    HW185431   9.947   8.316   3.588
27864SOL    HW285432   9.985   8.452   3.535
27865SOL     OW85433   0.874  14.358   6.329
27865SOL    HW185434   0.919  14.442   6.337
27865SOL    HW285435   0.841  14.340   6.417
27866SOL     OW85436   9.093   4.565   8.206
27866SOL    HW185437   9.141   4.536   8.129
27866SOL    HW285438   9.042   4.489   8.233
27867SOL     OW85439   9.782   5.519   7.155
27867SOL    HW185440   9.773   5.532   7.249
27867SOL    HW285441   9.782   5.424   7.144
27868SOL     OW85442   5.489   8.487   8.416
27868SOL    HW185443   5.410   8.514   8.462
27868SOL    HW285444   5.508   8.399   8.449
27869SOL     OW85445   5.370  13.314   3.543
27869SOL    HW185446   5.430  13.260   3.594
27869SOL    HW285447   5.307  13.251   3.506
27870SOL     OW85448   7.264   4.700   6.312
27870SOL    HW185449   7.186   4.755   6.307
27870SOL    HW285450   7.231   4.611   6.301
27871SOL     OW85451   9.567   4.913   6.231
27871SOL    HW185452   9.493   4.966   6.201
27871SOL    HW285453   9.586   4.855   6.157
27872SOL     OW85454   4.631  11.233  11.120
27872SOL    HW185455   4.704  11.285  11.089
27872SOL    HW285456   4.555  11.292  11.113
27873SOL     OW85457   7.590  13.859   8.800
27873SOL    HW185458   7.533  13.935   8.811
27873SOL    HW285459   7.576  13.807   8.879
27874SOL     OW85460   6.816   5.215   0.438
27874SOL    HW185461   6.877   5.160   0.389
27874SOL    HW285462   6.805   5.293   0.384
27875SOL     OW85463   3.382   4.513  10.805
27875SOL    HW185464   3.294   4.476  10.805
27875SOL    HW285465   3.379   4.581  10.872
27876SOL     OW85466   5.144  14.595   4.138
27876SOL    HW185467   5.167  14.523   4.080
27876SOL    HW285468   5.225  14.617   4.183
27877SOL     OW85469   4.762  11.147   7.529
27877SOL    HW185470   4.676  11.109   7.542
27877SOL    HW285471   4.816  11.074   7.497
27878SOL     OW85472   2.494   2.912   2.168
27878SOL    HW185473   2.454   2.998   2.152
27878SOL    HW285474   2.426   2.863   2.216
27879SOL     OW85475  12.759   9.179   5.410
27879SOL    HW185476  12.769   9.109   5.475
27879SOL    HW285477  12.802   9.145   5.332
27880SOL     OW85478   9.446  14.466  11.336
27880SOL    HW185479   9.493  14.392  11.297
27880SOL    HW285480   9.478  14.470  11.426
27881SOL     OW85481   4.726   6.455  10.947
27881SOL    HW185482   4.696   6.364  10.945
27881SOL    HW285483   4.653   6.505  10.909
27882SOL     OW85484   5.585  12.538   1.726
27882SOL    HW185485   5.673  12.501   1.721
27882SOL    HW285486   5.580  12.577   1.813
27883SOL     OW85487   9.406   9.342   6.366
27883SOL    HW185488   9.475   9.289   6.406
27883SOL    HW285489   9.332   9.336   6.427
27884SOL     OW85490   0.217   2.863  11.489
27884SOL    HW185491   0.158   2.927  11.451
27884SOL    HW285492   0.305   2.896  11.470
27885SOL     OW85493   0.582   9.088  11.977
27885SOL    HW185494   0.625   9.055  11.898
27885SOL    HW285495   0.600   9.022  12.043
27886SOL     OW85496  12.922   7.858  10.185
27886SOL    HW185497  12.998   7.916  10.182
27886SOL    HW285498  12.929   7.813  10.269
27887SOL     OW85499  11.033   8.236  10.395
27887SOL    HW185500  11.030   8.142  10.415
27887SOL    HW285501  11.125   8.260  10.406
27888SOL     OW85502   2.941  14.051   9.493
27888SOL    HW185503   2.946  14.134   9.539
27888SOL    HW285504   2.849  14.025   9.499
27889SOL     OW85505   4.550   6.124   0.425
27889SOL    HW185506   4.490   6.143   0.353
27889SOL    HW285507   4.634   6.107   0.382
27890SOL     OW85508   8.345   8.722   4.969
27890SOL    HW185509   8.250   8.729   4.967
27890SOL    HW285510   8.367   8.669   4.893
27891SOL     OW85511   0.832  10.295   7.209
27891SOL    HW185512   0.760  10.351   7.181
27891SOL    HW285513   0.835  10.305   7.304
27892SOL     OW85514   0.842   9.894   9.137
27892SOL    HW185515   0.807   9.903   9.049
27892SOL    HW285516   0.932   9.865   9.125
27893SOL     OW85517   7.423   0.886   0.528
27893SOL    HW185518   7.436   0.875   0.622
27893SOL    HW285519   7.509   0.912   0.495
27894SOL     OW85520   3.186  10.092  14.447
27894SOL    HW185521   3.093  10.105  14.468
27894SOL    HW285522   3.194  10.122  14.356
27895SOL     OW85523   5.821  11.362   5.249
27895SOL    HW185524   5.836  11.272   5.278
27895SOL    HW285525   5.907  11.405   5.259
27896SOL     OW85526  11.424  12.047   4.802
27896SOL    HW185527  11.402  11.955   4.816
27896SOL    HW285528  11.388  12.093   4.878
27897SOL     OW85529   2.436  10.316   2.996
27897SOL    HW185530   2.415  10.395   3.047
27897SOL    HW285531   2.358  10.261   3.005
27898SOL     OW85532   6.759   0.832   0.661
27898SOL    HW185533   6.686   0.773   0.641
27898SOL    HW285534   6.813   0.831   0.582
27899SOL     OW85535   9.392  13.359   8.562
27899SOL    HW185536   9.463  13.423   8.575
27899SOL    HW285537   9.435  13.274   8.572
27900SOL     OW85538  13.020   9.962   4.406
27900SOL    HW185539  13.018  10.052   4.373
27900SOL    HW285540  12.934   9.926   4.383
27901SOL     OW85541   9.784   4.055   5.041
27901SOL    HW185542   9.806   3.977   5.092
27901SOL    HW285543   9.693   4.073   5.065
27902SOL     OW85544   7.391  13.244   5.507
27902SOL    HW185545   7.311  13.294   5.525
27902SOL    HW285546   7.407  13.194   5.587
27903SOL     OW85547   5.154  13.394   2.392
27903SOL    HW185548   5.064  13.404   2.363
27903SOL    HW285549   5.170  13.471   2.448
27904SOL     OW85550   0.768   4.960   1.016
27904SOL    HW185551   0.760   5.054   1.031
27904SOL    HW285552   0.769   4.951   0.921
27905SOL     OW85553  13.866  11.857   0.447
27905SOL    HW185554  13.934  11.857   0.515
27905SOL    HW285555  13.878  11.774   0.402
27906SOL     OW85556  11.023   6.923   5.509
27906SOL    HW185557  10.971   6.959   5.581
27906SOL    HW285558  11.050   7.000   5.459
27907SOL     OW85559   8.500  13.096   1.214
27907SOL    HW185560   8.456  13.027   1.164
27907SOL    HW285561   8.507  13.170   1.153
27908SOL     OW85562   3.655   2.852  14.763
27908SOL    HW185563   3.713   2.793  14.714
27908SOL    HW285564   3.635   2.803  14.843
27909SOL     OW85565  13.825   1.531   3.555
27909SOL    HW185566  13.729   1.526   3.552
27909SOL    HW285567  13.845   1.619   3.523
27910SOL     OW85568   7.564   7.624   0.747
27910SOL    HW185569   7.472   7.603   0.731
27910SOL    HW285570   7.608   7.539   0.748
27911SOL     OW85571   7.410   1.959   3.653
27911SOL    HW185572   7.440   1.868   3.658
27911SOL    HW285573   7.473   2.008   3.706
27912SOL     OW85574   4.670   6.841  10.887
27912SOL    HW185575   4.648   6.754  10.853
27912SOL    HW285576   4.592   6.869  10.933
27913SOL     OW85577   0.503   8.011   8.908
27913SOL    HW185578   0.575   8.039   8.966
27913SOL    HW285579   0.488   8.086   8.851
27914SOL     OW85580  12.830   3.760  14.543
27914SOL    HW185581  12.884   3.813  14.483
27914SOL    HW285582  12.745   3.804  14.543
27915SOL     OW85583   4.168  11.471   6.980
27915SOL    HW185584   4.154  11.495   6.889
27915SOL    HW285585   4.214  11.387   6.976
27916SOL     OW85586   2.995  13.281  13.979
27916SOL    HW185587   2.936  13.265  13.906
27916SOL    HW285588   3.045  13.200  13.988
27917SOL     OW85589   8.627   2.285  13.684
27917SOL    HW185590   8.716   2.274  13.718
27917SOL    HW285591   8.600   2.372  13.714
27918SOL     OW85592   7.719  12.500   1.817
27918SOL    HW185593   7.783  12.430   1.801
27918SOL    HW285594   7.738  12.566   1.750
27919SOL     OW85595   3.169   1.062   8.148
27919SOL    HW185596   3.143   1.047   8.057
27919SOL    HW285597   3.098   1.022   8.200
27920SOL     OW85598  12.186   2.197   3.821
27920SOL    HW185599  12.238   2.178   3.743
27920SOL    HW285600  12.121   2.261   3.792
27921SOL     OW85601   0.225   4.127   5.719
27921SOL    HW185602   0.208   4.157   5.629
27921SOL    HW285603   0.229   4.032   5.712
27922SOL     OW85604   0.501   5.664   7.907
27922SOL    HW185605   0.571   5.668   7.972
27922SOL    HW285606   0.516   5.740   7.851
27923SOL     OW85607   5.939   3.371   6.617
27923SOL    HW185608   5.886   3.447   6.592
27923SOL    HW285609   5.999   3.358   6.544
27924SOL     OW85610   2.335  11.843  10.606
27924SOL    HW185611   2.340  11.794  10.688
27924SOL    HW285612   2.401  11.802  10.550
27925SOL     OW85613   4.365  12.296   4.855
27925SOL    HW185614   4.329  12.317   4.941
27925SOL    HW285615   4.373  12.381   4.812
27926SOL     OW85616   4.530  12.439  13.771
27926SOL    HW185617   4.535  12.499  13.845
27926SOL    HW285618   4.619  12.404  13.763
27927SOL     OW85619  14.560   0.184   8.571
27927SOL    HW185620  14.634   0.125   8.558
27927SOL    HW285621  14.484   0.127   8.579
27928SOL     OW85622   8.802  14.705  14.273
27928SOL    HW185623   8.822  14.721  14.366
27928SOL    HW285624   8.878  14.656  14.241
27929SOL     OW85625   3.563   3.570   5.595
27929SOL    HW185626   3.534   3.491   5.550
27929SOL    HW285627   3.484   3.605   5.637
27930SOL     OW85628   0.700   4.944  10.369
27930SOL    HW185629   0.663   4.926  10.283
27930SOL    HW285630   0.795   4.941  10.355
27931SOL     OW85631   3.505   1.063   2.890
27931SOL    HW185632   3.468   1.059   2.978
27931SOL    HW285633   3.556   0.983   2.882
27932SOL     OW85634  14.461   1.962   4.248
27932SOL    HW185635  14.438   2.028   4.182
27932SOL    HW285636  14.378   1.923   4.274
27933SOL     OW85637   7.384  11.154  13.860
27933SOL    HW185638   7.377  11.123  13.951
27933SOL    HW285639   7.319  11.102  13.812
27934SOL     OW85640   2.077   5.222   1.074
27934SOL    HW185641   2.157   5.264   1.042
27934SOL    HW285642   2.076   5.240   1.168
27935SOL     OW85643   2.988   6.970   1.829
27935SOL    HW185644   3.052   7.011   1.770
27935SOL    HW285645   2.959   7.041   1.886
27936SOL     OW85646  10.192   5.628   9.031
27936SOL    HW185647  10.128   5.685   9.074
27936SOL    HW285648  10.229   5.576   9.102
27937SOL     OW85649  12.019  14.876  10.196
27937SOL    HW185650  12.029   0.074  10.255
27937SOL    HW285651  11.934   0.014  10.154
27938SOL     OW85652   3.009  10.729   2.396
27938SOL    HW185653   3.073  10.773   2.340
27938SOL    HW285654   3.061  10.682   2.461
27939SOL     OW85655   7.451   4.918   8.640
27939SOL    HW185656   7.417   4.837   8.677
27939SOL    HW285657   7.375   4.959   8.599
27940SOL     OW85658  10.682   6.542   4.659
27940SOL    HW185659  10.603   6.569   4.613
27940SOL    HW285660  10.730   6.623   4.675
27941SOL     OW85661  13.020  11.022  11.061
27941SOL    HW185662  12.947  11.030  11.123
27941SOL    HW285663  13.038  10.928  11.057
27942SOL     OW85664   0.165   8.931   2.929
27942SOL    HW185665   0.186   8.993   2.999
27942SOL    HW285666   0.105   8.978   2.871
27943SOL     OW85667   8.764   4.201   8.025
27943SOL    HW185668   8.766   4.265   7.954
27943SOL    HW285669   8.767   4.116   7.981
27944SOL     OW85670   7.677   3.257   5.123
27944SOL    HW185671   7.717   3.312   5.056
27944SOL    HW285672   7.619   3.315   5.171
27945SOL     OW85673   1.721  13.625   9.950
27945SOL    HW185674   1.689  13.546   9.994
27945SOL    HW285675   1.654  13.692   9.969
27946SOL     OW85676   1.025   6.075  13.022
27946SOL    HW185677   1.099   6.130  12.994
27946SOL    HW285678   0.958   6.091  12.956
27947SOL     OW85679   9.553   8.139  10.668
27947SOL    HW185680   9.479   8.122  10.727
27947SOL    HW285681   9.601   8.210  10.711
27948SOL     OW85682  10.280   7.975   8.867
27948SOL    HW185683  10.208   7.949   8.925
27948SOL    HW285684  10.287   8.070   8.878
27949SOL     OW85685  10.811  13.786  13.069
27949SOL    HW185686  10.841  13.808  13.157
27949SOL    HW285687  10.733  13.731  13.084
27950SOL     OW85688   7.925   7.274   6.445
27950SOL    HW185689   7.967   7.326   6.513
27950SOL    HW285690   7.863   7.335   6.404
27951SOL     OW85691  14.803   7.554  10.246
27951SOL    HW185692  14.750   7.562  10.325
27951SOL    HW285693  14.819   7.460  10.237
27952SOL     OW85694  14.830  13.194  11.770
27952SOL    HW185695  14.819  13.140  11.848
27952SOL    HW285696   0.035  13.162  11.730
27953SOL     OW85697   8.503  13.399   6.830
27953SOL    HW185698   8.483  13.331   6.895
27953SOL    HW285699   8.425  13.453   6.827
27954SOL     OW85700  14.845  13.861   7.139
27954SOL    HW185701   0.035  13.872   7.208
27954SOL    HW285702  14.867  13.927   7.073
27955SOL     OW85703   2.216   9.763   6.601
27955SOL    HW185704   2.182   9.849   6.575
27955SOL    HW285705   2.261   9.779   6.684
27956SOL     OW85706  10.169  10.752   4.551
27956SOL    HW185707  10.212  10.667   4.562
27956SOL    HW285708  10.241  10.814   4.538
27957SOL     OW85709   1.457   7.744   6.753
27957SOL    HW185710   1.526   7.783   6.700
27957SOL    HW285711   1.387   7.810   6.753
27958SOL     OW85712   6.204   2.192   9.198
27958SOL    HW185713   6.230   2.282   9.217
27958SOL    HW285714   6.279   2.139   9.227
27959SOL     OW85715  12.711   7.156   9.502
27959SOL    HW185716  12.775   7.127   9.566
27959SOL    HW285717  12.732   7.108   9.422
27960SOL     OW85718   1.531  12.324   5.403
27960SOL    HW185719   1.436  12.310   5.404
27960SOL    HW285720   1.543  12.413   5.435
27961SOL     OW85721  13.032  13.255   3.104
27961SOL    HW185722  13.065  13.331   3.151
27961SOL    HW285723  13.031  13.282   3.012
27962SOL     OW85724   3.338   1.296   6.334
27962SOL    HW185725   3.308   1.350   6.261
27962SOL    HW285726   3.359   1.359   6.403
27963SOL     OW85727  13.508  10.505  10.897
27963SOL    HW185728  13.533  10.580  10.843
27963SOL    HW285729  13.590  10.477  10.938
27964SOL     OW85730  11.660   6.820  13.012
27964SOL    HW185731  11.720   6.745  13.007
27964SOL    HW285732  11.715   6.891  13.047
27965SOL     OW85733  12.989   3.532  10.000
27965SOL    HW185734  12.929   3.479   9.948
27965SOL    HW285735  13.032   3.589   9.937
27966SOL     OW85736   3.073   4.647   9.742
27966SOL    HW185737   3.125   4.660   9.821
27966SOL    HW285738   3.091   4.724   9.687
27967SOL     OW85739  12.515   8.161   0.537
27967SOL    HW185740  12.547   8.073   0.558
27967SOL    HW285741  12.519   8.208   0.621
27968SOL     OW85742   3.510   7.083   9.707
27968SOL    HW185743   3.418   7.109   9.702
27968SOL    HW285744   3.553   7.154   9.753
27969SOL     OW85745   7.943  11.458  12.079
27969SOL    HW185746   7.948  11.384  12.018
27969SOL    HW285747   7.958  11.419  12.165
27970SOL     OW85748   4.053   0.310   8.414
27970SOL    HW185749   4.120   0.258   8.371
27970SOL    HW285750   3.970   0.275   8.381
27971SOL     OW85751   0.735  11.108   1.036
27971SOL    HW185752   0.665  11.161   0.996
27971SOL    HW285753   0.724  11.124   1.130
27972SOL     OW85754  11.454   7.054   2.324
27972SOL    HW185755  11.443   7.067   2.418
27972SOL    HW285756  11.481   6.962   2.316
27973SOL     OW85757   5.195   9.583  10.232
27973SOL    HW185758   5.176   9.573  10.326
27973SOL    HW285759   5.289   9.598  10.228
27974SOL     OW85760   7.793  14.701  10.445
27974SOL    HW185761   7.877  14.732  10.480
27974SOL    HW285762   7.753  14.653  10.518
27975SOL     OW85763  10.115  11.062   9.355
27975SOL    HW185764  10.062  11.042   9.432
27975SOL    HW285765  10.058  11.116   9.300
27976SOL     OW85766  11.974   5.780   0.534
27976SOL    HW185767  12.056   5.737   0.561
27976SOL    HW285768  11.971   5.766   0.439
27977SOL     OW85769  11.034  10.251   8.805
27977SOL    HW185770  11.072  10.308   8.737
27977SOL    HW285771  11.103  10.243   8.870
27978SOL     OW85772   9.567  13.449   8.123
27978SOL    HW185773   9.494  13.414   8.072
27978SOL    HW285774   9.569  13.396   8.202
27979SOL     OW85775   5.046   5.120   1.982
27979SOL    HW185776   5.132   5.091   1.953
27979SOL    HW285777   5.009   5.045   2.027
27980SOL     OW85778   6.831   9.928  13.166
27980SOL    HW185779   6.905   9.868  13.161
27980SOL    HW285780   6.759   9.875  13.201
27981SOL     OW85781  13.795   9.897  10.939
27981SOL    HW185782  13.800   9.811  10.981
27981SOL    HW285783  13.800   9.959  11.011
27982SOL     OW85784   5.783   3.832  13.357
27982SOL    HW185785   5.821   3.901  13.304
27982SOL    HW285786   5.780   3.756  13.298
27983SOL     OW85787   2.720  12.591   4.178
27983SOL    HW185788   2.699  12.548   4.095
27983SOL    HW285789   2.646  12.570   4.235
27984SOL     OW85790  11.865   7.747   5.545
27984SOL    HW185791  11.832   7.782   5.462
27984SOL    HW285792  11.934   7.686   5.520
27985SOL     OW85793   0.891   6.702   9.084
27985SOL    HW185794   0.842   6.691   9.003
27985SOL    HW285795   0.879   6.620   9.131
27986SOL     OW85796  14.203  10.188  10.756
27986SOL    HW185797  14.173  10.172  10.846
27986SOL    HW285798  14.233  10.102  10.726
27987SOL     OW85799   7.137  10.793   1.524
27987SOL    HW185800   7.115  10.811   1.433
27987SOL    HW285801   7.161  10.700   1.524
27988SOL     OW85802  14.721  11.515  10.955
27988SOL    HW185803  14.655  11.535  11.021
27988SOL    HW285804  14.801  11.556  10.988
27989SOL     OW85805  13.608   8.813   5.311
27989SOL    HW185806  13.596   8.897   5.356
27989SOL    HW285807  13.521   8.773   5.310
27990SOL     OW85808   1.250  14.579  14.290
27990SOL    HW185809   1.320  14.613  14.235
27990SOL    HW285810   1.219  14.501  14.244
27991SOL     OW85811   1.806   7.161  11.731
27991SOL    HW185812   1.744   7.115  11.788
27991SOL    HW285813   1.879   7.101  11.721
27992SOL     OW85814  12.744  13.909  10.142
27992SOL    HW185815  12.700  13.844  10.087
27992SOL    HW285816  12.782  13.971  10.079
27993SOL     OW85817   3.736   0.483   8.521
27993SOL    HW185818   3.817   0.534   8.529
27993SOL    HW285819   3.709   0.496   8.430
27994SOL     OW85820   8.483   8.246  14.469
27994SOL    HW185821   8.515   8.212  14.385
27994SOL    HW285822   8.416   8.184  14.496
27995SOL     OW85823  11.671  13.053  12.332
27995SOL    HW185824  11.667  13.130  12.390
27995SOL    HW285825  11.681  13.090  12.245
27996SOL     OW85826  13.443   7.726   2.566
27996SOL    HW185827  13.381   7.758   2.631
27996SOL    HW285828  13.410   7.639   2.541
27997SOL     OW85829   5.741   8.081   6.436
27997SOL    HW185830   5.758   7.996   6.394
27997SOL    HW285831   5.668   8.118   6.386
27998SOL     OW85832   9.461   2.679   1.280
27998SOL    HW185833   9.371   2.676   1.247
27998SOL    HW285834   9.460   2.748   1.347
27999SOL     OW85835   9.044   4.564   9.514
27999SOL    HW185836   9.059   4.593   9.604
27999SOL    HW285837   9.077   4.635   9.459
28000SOL     OW85838   2.387  12.139   0.862
28000SOL    HW185839   2.447  12.167   0.931
28000SOL    HW285840   2.444  12.104   0.793
28001SOL     OW85841  11.695   3.139   7.736
28001SOL    HW185842  11.620   3.111   7.788
28001SOL    HW285843  11.739   3.057   7.712
28002SOL     OW85844   6.647   2.237   0.508
28002SOL    HW185845   6.604   2.159   0.474
28002SOL    HW285846   6.648   2.298   0.435
28003SOL     OW85847  12.750  11.893   9.536
28003SOL    HW185848  12.689  11.934   9.475
28003SOL    HW285849  12.701  11.886   9.618
28004SOL     OW85850  13.814   5.338   6.304
28004SOL    HW185851  13.898   5.307   6.339
28004SOL    HW285852  13.792   5.414   6.357
28005SOL     OW85853  11.544   2.963   3.375
28005SOL    HW185854  11.559   2.871   3.396
28005SOL    HW285855  11.624   2.990   3.329
28006SOL     OW85856  12.565   8.569  10.270
28006SOL    HW185857  12.594   8.636  10.208
28006SOL    HW285858  12.470   8.563  10.257
28007SOL     OW85859   7.727   7.455   6.332
28007SOL    HW185860   7.734   7.548   6.354
28007SOL    HW285861   7.717   7.454   6.236
28008SOL     OW85862   2.746   8.597  12.502
28008SOL    HW185863   2.826   8.636  12.538
28008SOL    HW285864   2.728   8.523  12.560
28009SOL     OW85865   2.081   3.983   5.171
28009SOL    HW185866   2.019   3.914   5.196
28009SOL    HW285867   2.129   3.946   5.097
28010SOL     OW85868  12.602   4.561  10.477
28010SOL    HW185869  12.648   4.597  10.401
28010SOL    HW285870  12.558   4.636  10.516
28011SOL     OW85871  12.592   8.445   1.206
28011SOL    HW185872  12.572   8.420   1.296
28011SOL    HW285873  12.603   8.361   1.160
28012SOL     OW85874   4.176   6.182  14.486
28012SOL    HW185875   4.160   6.098  14.444
28012SOL    HW285876   4.258   6.170  14.534
28013SOL     OW85877   5.505   8.233   2.219
28013SOL    HW185878   5.555   8.166   2.265
28013SOL    HW285879   5.546   8.237   2.132
28014SOL     OW85880   2.445   0.798   8.222
28014SOL    HW185881   2.376   0.830   8.165
28014SOL    HW285882   2.442   0.703   8.213
28015SOL     OW85883   8.276  10.338   0.873
28015SOL    HW185884   8.318  10.364   0.955
28015SOL    HW285885   8.325  10.262   0.843
28016SOL     OW85886   9.566  13.539   3.329
28016SOL    HW185887   9.568  13.624   3.373
28016SOL    HW285888   9.575  13.560   3.236
28017SOL     OW85889  10.634   9.919  13.253
28017SOL    HW185890  10.663   9.913  13.162
28017SOL    HW285891  10.702   9.971  13.297
28018SOL     OW85892  13.946   4.590   5.926
28018SOL    HW185893  13.961   4.560   6.016
28018SOL    HW285894  13.890   4.523   5.888
28019SOL     OW85895   1.214  13.885   7.036
28019SOL    HW185896   1.262  13.882   7.119
28019SOL    HW285897   1.207  13.978   7.016
28020SOL     OW85898   0.287   3.192   9.408
28020SOL    HW185899   0.197   3.214   9.381
28020SOL    HW285900   0.338   3.269   9.384
28021SOL     OW85901   3.932   7.524   0.080
28021SOL    HW185902   3.972   7.547  14.872
28021SOL    HW285903   3.930   7.428   0.079
28022SOL     OW85904   9.884   5.244   0.405
28022SOL    HW185905   9.801   5.201   0.422
28022SOL    HW285906   9.947   5.198   0.460
28023SOL     OW85907  13.968  12.957   1.445
28023SOL    HW185908  13.928  13.027   1.497
28023SOL    HW285909  13.981  12.996   1.358
28024SOL     OW85910   5.005   2.593  12.624
28024SOL    HW185911   5.026   2.613  12.532
28024SOL    HW285912   5.059   2.517  12.645
28025SOL     OW85913  14.079   7.676   1.853
28025SOL    HW185914  14.125   7.594   1.831
28025SOL    HW285915  14.052   7.711   1.768
28026SOL     OW85916   4.007   8.304   1.337
28026SOL    HW185917   4.071   8.324   1.269
28026SOL    HW285918   3.924   8.295   1.290
28027SOL     OW85919   0.621  14.790  13.948
28027SOL    HW185920   0.647  14.712  13.998
28027SOL    HW285921   0.703  14.833  13.925
28028SOL     OW85922  12.431   8.811   8.819
28028SOL    HW185923  12.375   8.781   8.747
28028SOL    HW285924  12.519   8.782   8.795
28029SOL     OW85925   8.901   0.501  11.358
28029SOL    HW185926   8.965   0.472  11.424
28029SOL    HW285927   8.904   0.433  11.291
28030SOL     OW85928  14.808   3.859   5.340
28030SOL    HW185929  14.713   3.858   5.333
28030SOL    HW285930  14.833   3.768   5.353
28031SOL     OW85931   0.412   1.960   5.133
28031SOL    HW185932   0.460   1.930   5.210
28031SOL    HW285933   0.347   2.021   5.167
28032SOL     OW85934   3.797   1.799  13.504
28032SOL    HW185935   3.828   1.843  13.424
28032SOL    HW285936   3.711   1.765  13.480
28033SOL     OW85937   2.710   3.760  14.763
28033SOL    HW185938   2.647   3.714  14.706
28033SOL    HW285939   2.794   3.719  14.743
28034SOL     OW85940   3.267   2.193   2.519
28034SOL    HW185941   3.208   2.268   2.520
28034SOL    HW285942   3.210   2.117   2.524
28035SOL     OW85943   1.420  11.246  11.086
28035SOL    HW185944   1.512  11.218  11.086
28035SOL    HW285945   1.382  11.203  11.163
28036SOL     OW85946  11.508   9.529   8.985
28036SOL    HW185947  11.535   9.462   8.922
28036SOL    HW285948  11.476   9.601   8.930
28037SOL     OW85949   0.467  10.203  13.325
28037SOL    HW185950   0.376  10.230  13.313
28037SOL    HW285951   0.507  10.211  13.238
28038SOL     OW85952   3.843  14.829   4.372
28038SOL    HW185953   3.776  14.840   4.440
28038SOL    HW285954   3.872  14.738   4.381
28039SOL     OW85955   8.211   6.822   8.134
28039SOL    HW185956   8.262   6.819   8.215
28039SOL    HW285957   8.204   6.916   8.114
28040SOL     OW85958   9.774   1.698   3.639
28040SOL    HW185959   9.719   1.710   3.562
28040SOL    HW285960   9.804   1.607   3.633
28041SOL     OW85961   4.733   0.844  10.398
28041SOL    HW185962   4.733   0.935  10.369
28041SOL    HW285963   4.711   0.793  10.320
28042SOL     OW85964  11.587   8.318  11.339
28042SOL    HW185965  11.533   8.382  11.385
28042SOL    HW285966  11.618   8.259  11.408
28043SOL     OW85967   7.505   3.531   7.044
28043SOL    HW185968   7.568   3.603   7.044
28043SOL    HW285969   7.557   3.453   7.023
28044SOL     OW85970   0.256   5.589   8.078
28044SOL    HW185971   0.315   5.622   8.010
28044SOL    HW285972   0.307   5.591   8.159
28045SOL     OW85973   7.211   9.658   2.915
28045SOL    HW185974   7.219   9.726   2.983
28045SOL    HW285975   7.142   9.600   2.948
28046SOL     OW85976   7.734   1.554   0.001
28046SOL    HW185977   7.729   1.550   0.097
28046SOL    HW285978   7.825   1.534  14.857
28047SOL     OW85979  14.794   8.272  10.489
28047SOL    HW185980   0.006   8.238  10.499
28047SOL    HW285981  14.762   8.230  10.409
28048SOL     OW85982   6.413   1.732   7.921
28048SOL    HW185983   6.481   1.796   7.900
28048SOL    HW285984   6.445   1.690   8.001
28049SOL     OW85985   9.618  11.041  14.740
28049SOL    HW185986   9.668  10.959  14.746
28049SOL    HW285987   9.550  11.022  14.675
28050SOL     OW85988  14.127  12.741   6.252
28050SOL    HW185989  14.043  12.696   6.243
28050SOL    HW285990  14.107  12.816   6.308
28051SOL     OW85991  12.607   2.140   9.920
28051SOL    HW185992  12.620   2.176  10.008
28051SOL    HW285993  12.558   2.059   9.933
28052SOL     OW85994   1.043   9.461  13.744
28052SOL    HW185995   0.984   9.473  13.669
28052SOL    HW285996   1.100   9.389  13.718
28053SOL     OW85997  12.866   3.642   8.810
28053SOL    HW185998  12.887   3.559   8.767
28053SOL    HW285999  12.805   3.685   8.750
28054SOL     OW86000   8.985   2.787  12.493
28054SOL    HW186001   9.037   2.781  12.413
28054SOL    HW286002   8.900   2.821  12.465
28055SOL     OW86003   5.296  11.956   6.218
28055SOL    HW186004   5.227  12.021   6.201
28055SOL    HW286005   5.363  12.004   6.266
28056SOL     OW86006   9.556   0.351   5.057
28056SOL    HW186007   9.631   0.365   5.115
28056SOL    HW286008   9.483   0.332   5.116
28057SOL     OW86009   3.377  14.133  10.626
28057SOL    HW186010   3.309  14.109  10.562
28057SOL    HW286011   3.329  14.164  10.702
28058SOL     OW86012  13.139   0.607   6.352
28058SOL    HW186013  13.075   0.535   6.351
28058SOL    HW286014  13.095   0.676   6.402
28059SOL     OW86015  14.440  13.379  12.939
28059SOL    HW186016  14.503  13.354  12.872
28059SOL    HW286017  14.433  13.474  12.932
28060SOL     OW86018  14.449  14.169   9.948
28060SOL    HW186019  14.398  14.087   9.947
28060SOL    HW286020  14.449  14.197   9.856
28061SOL     OW86021  11.290  10.788  11.009
28061SOL    HW186022  11.380  10.819  11.007
28061SOL    HW286023  11.296  10.697  10.982
28062SOL     OW86024  11.202  14.460   7.984
28062SOL    HW186025  11.297  14.473   7.984
28062SOL    HW286026  11.190  14.377   8.030
28063SOL     OW86027  10.770  14.840   0.861
28063SOL    HW186028  10.725   0.048   0.848
28063SOL    HW286029  10.842  14.860   0.920
28064SOL     OW86030   7.926   8.788  13.453
28064SOL    HW186031   7.878   8.767  13.533
28064SOL    HW286032   7.880   8.863  13.416
28065SOL     OW86033  13.975   6.735   2.486
28065SOL    HW186034  14.030   6.723   2.408
28065SOL    HW286035  13.950   6.827   2.483
28066SOL     OW86036   0.779   0.600  13.730
28066SOL    HW186037   0.858   0.562  13.769
28066SOL    HW286038   0.769   0.685  13.773
28067SOL     OW86039   7.096   8.529   6.429
28067SOL    HW186040   7.020   8.529   6.487
28067SOL    HW286041   7.059   8.531   6.340
28068SOL     OW86042   2.821   6.503   4.863
28068SOL    HW186043   2.862   6.433   4.913
28068SOL    HW286044   2.890   6.569   4.853
28069SOL     OW86045  13.899   0.225   8.496
28069SOL    HW186046  13.873   0.135   8.516
28069SOL    HW286047  13.822   0.263   8.454
28070SOL     OW86048  12.290  12.913   6.359
28070SOL    HW186049  12.357  12.945   6.299
28070SOL    HW286050  12.270  12.825   6.328
28071SOL     OW86051  11.616   1.266  13.284
28071SOL    HW186052  11.668   1.192  13.254
28071SOL    HW286053  11.648   1.340  13.233
28072SOL     OW86054  10.603  12.457   4.012
28072SOL    HW186055  10.571  12.430   3.926
28072SOL    HW286056  10.675  12.517   3.994
28073SOL     OW86057   2.798   0.820   9.876
28073SOL    HW186058   2.735   0.819   9.804
28073SOL    HW286059   2.882   0.797   9.836
28074SOL     OW86060   7.622   5.686   6.785
28074SOL    HW186061   7.567   5.760   6.762
28074SOL    HW286062   7.575   5.610   6.751
28075SOL     OW86063   4.661   5.314  10.742
28075SOL    HW186064   4.628   5.335  10.655
28075SOL    HW286065   4.593   5.258  10.780
28076SOL     OW86066   5.686   1.997   8.838
28076SOL    HW186067   5.725   2.015   8.924
28076SOL    HW286068   5.673   1.902   8.838
28077SOL     OW86069   7.090   0.684   8.987
28077SOL    HW186070   7.072   0.629   8.910
28077SOL    HW286071   7.085   0.774   8.954
28078SOL     OW86072   4.739   5.809   3.084
28078SOL    HW186073   4.756   5.864   3.008
28078SOL    HW286074   4.648   5.780   3.073
28079SOL     OW86075   5.306  14.399  10.291
28079SOL    HW186076   5.260  14.447  10.223
28079SOL    HW286077   5.375  14.351  10.245
28080SOL     OW86078   6.187  13.369  12.920
28080SOL    HW186079   6.117  13.400  12.861
28080SOL    HW286080   6.225  13.449  12.955
28081SOL     OW86081  13.774   5.415   7.125
28081SOL    HW186082  13.706   5.466   7.082
28081SOL    HW286083  13.750   5.324   7.108
28082SOL     OW86084  13.223  13.759   0.980
28082SOL    HW186085  13.143  13.711   1.001
28082SOL    HW286086  13.272  13.762   1.062
28083SOL     OW86087  11.400  14.649   8.216
28083SOL    HW186088  11.376  14.608   8.133
28083SOL    HW286089  11.456  14.585   8.260
28084SOL     OW86090  10.227   9.148   2.679
28084SOL    HW186091  10.271   9.084   2.623
28084SOL    HW286092  10.200   9.098   2.756
28085SOL     OW86093  12.281   3.467  10.012
28085SOL    HW186094  12.229   3.504   9.941
28085SOL    HW286095  12.355   3.425   9.968
28086SOL     OW86096   1.202   0.769   4.321
28086SOL    HW186097   1.248   0.786   4.403
28086SOL    HW286098   1.241   0.829   4.258
28087SOL     OW86099  13.826  10.644   7.555
28087SOL    HW186100  13.775  10.571   7.590
28087SOL    HW286101  13.840  10.701   7.631
28088SOL     OW86102  13.692  12.611   2.346
28088SOL    HW186103  13.782  12.624   2.376
28088SOL    HW286104  13.691  12.647   2.257
28089SOL     OW86105   7.396  11.202   9.860
28089SOL    HW186106   7.484  11.181   9.828
28089SOL    HW286107   7.372  11.282   9.813
28090SOL     OW86108  12.908   6.963  14.298
28090SOL    HW186109  12.962   6.908  14.355
28090SOL    HW286110  12.935   7.052  14.319
28091SOL     OW86111   9.647  14.060  11.136
28091SOL    HW186112   9.658  14.062  11.041
28091SOL    HW286113   9.651  14.152  11.162
28092SOL     OW86114  11.481  10.111  10.688
28092SOL    HW186115  11.412  10.090  10.625
28092SOL    HW286116  11.562  10.102  10.638
28093SOL     OW86117   3.609   3.447   9.852
28093SOL    HW186118   3.553   3.429   9.927
28093SOL    HW286119   3.553   3.495   9.790
28094SOL     OW86120   1.968   9.420   6.218
28094SOL    HW186121   1.964   9.325   6.231
28094SOL    HW286122   2.057   9.436   6.186
28095SOL     OW86123   4.301  10.085   2.515
28095SOL    HW186124   4.225  10.139   2.494
28095SOL    HW286125   4.289  10.006   2.463
28096SOL     OW86126   1.995  13.959   0.975
28096SOL    HW186127   2.050  13.907   0.917
28096SOL    HW286128   1.930  13.897   1.009
28097SOL     OW86129  14.338   4.793   0.571
28097SOL    HW186130  14.365   4.868   0.519
28097SOL    HW286131  14.394   4.795   0.648
28098SOL     OW86132   8.610   3.569   3.109
28098SOL    HW186133   8.670   3.557   3.182
28098SOL    HW286134   8.578   3.659   3.118
28099SOL     OW86135   9.183   0.835  13.972
28099SOL    HW186136   9.174   0.739  13.977
28099SOL    HW286137   9.273   0.849  13.945
28100SOL     OW86138   9.493   6.406   5.436
28100SOL    HW186139   9.409   6.452   5.435
28100SOL    HW286140   9.488   6.350   5.513
28101SOL     OW86141  13.151   0.808  10.373
28101SOL    HW186142  13.124   0.803  10.465
28101SOL    HW286143  13.247   0.815  10.376
28102SOL     OW86144  10.143   0.460   9.248
28102SOL    HW186145  10.140   0.524   9.319
28102SOL    HW286146  10.222   0.484   9.198
28103SOL     OW86147   8.639   8.413   1.943
28103SOL    HW186148   8.548   8.439   1.936
28103SOL    HW286149   8.687   8.481   1.897
28104SOL     OW86150   8.468  13.624  10.386
28104SOL    HW186151   8.505  13.537  10.372
28104SOL    HW286152   8.378  13.618  10.355
28105SOL     OW86153  13.806  14.177   5.857
28105SOL    HW186154  13.796  14.271   5.843
28105SOL    HW286155  13.900  14.161   5.851
28106SOL     OW86156   1.293   6.735  11.994
28106SOL    HW186157   1.281   6.727  12.088
28106SOL    HW286158   1.205   6.751  11.960
28107SOL     OW86159  13.523   1.869   7.357
28107SOL    HW186160  13.578   1.826   7.422
28107SOL    HW286161  13.573   1.861   7.275
28108SOL     OW86162  11.997   6.061  13.463
28108SOL    HW186163  12.087   6.073  13.433
28108SOL    HW286164  11.950   6.138  13.433
28109SOL     OW86165   4.819   9.893   4.750
28109SOL    HW186166   4.783   9.863   4.834
28109SOL    HW286167   4.796   9.825   4.688
28110SOL     OW86168   3.379   3.812  10.064
28110SOL    HW186169   3.308   3.851  10.115
28110SOL    HW286170   3.417   3.885  10.016
28111SOL     OW86171  14.861  12.559   8.141
28111SOL    HW186172   0.081  12.560   8.140
28111SOL    HW286173  14.838  12.483   8.087
28112SOL     OW86174   0.614   4.211   0.625
28112SOL    HW186175   0.626   4.183   0.534
28112SOL    HW286176   0.521   4.236   0.630
28113SOL     OW86177   0.223  12.638   6.963
28113SOL    HW186178   0.315  12.618   6.976
28113SOL    HW286179   0.177  12.591   7.032
28114SOL     OW86180   6.578   3.608   0.666
28114SOL    HW186181   6.643   3.642   0.605
28114SOL    HW286182   6.621   3.534   0.709
28115SOL     OW86183   5.145   7.988   7.233
28115SOL    HW186184   5.068   7.963   7.284
28115SOL    HW286185   5.125   8.075   7.199
28116SOL     OW86186  12.948  14.497  10.420
28116SOL    HW186187  12.986  14.523  10.336
28116SOL    HW286188  12.867  14.548  10.426
28117SOL     OW86189   8.490  10.964   7.029
28117SOL    HW186190   8.524  10.910   7.100
28117SOL    HW286191   8.508  10.913   6.950
28118SOL     OW86192  10.428   5.169   7.917
28118SOL    HW186193  10.446   5.263   7.913
28118SOL    HW286194  10.334   5.164   7.934
28119SOL     OW86195   0.957   0.614   2.283
28119SOL    HW186196   0.927   0.629   2.194
28119SOL    HW286197   0.943   0.698   2.327
28120SOL     OW86198   6.127  14.229   0.631
28120SOL    HW186199   6.195  14.295   0.614
28120SOL    HW286200   6.050  14.263   0.584
28121SOL     OW86201   7.563   9.275   4.485
28121SOL    HW186202   7.648   9.232   4.487
28121SOL    HW286203   7.501   9.205   4.464
28122SOL     OW86204   3.126   5.007   0.997
28122SOL    HW186205   3.192   4.957   1.044
28122SOL    HW286206   3.159   5.097   0.996
28123SOL     OW86207  10.099   7.048  11.471
28123SOL    HW186208  10.011   7.053  11.509
28123SOL    HW286209  10.120   6.954  11.472
28124SOL     OW86210   9.135   3.890   2.473
28124SOL    HW186211   9.204   3.933   2.524
28124SOL    HW286212   9.182   3.831   2.415
28125SOL     OW86213   0.734   5.241   5.397
28125SOL    HW186214   0.772   5.157   5.371
28125SOL    HW286215   0.731   5.292   5.317
28126SOL     OW86216  14.218   8.141  12.615
28126SOL    HW186217  14.311   8.166  12.617
28126SOL    HW286218  14.206   8.103  12.528
28127SOL     OW86219  12.683  13.875   0.626
28127SOL    HW186220  12.760  13.924   0.597
28127SOL    HW286221  12.718  13.808   0.686
28128SOL     OW86222   3.500   7.643   3.685
28128SOL    HW186223   3.428   7.587   3.713
28128SOL    HW286224   3.568   7.582   3.658
28129SOL     OW86225  14.833  12.787   3.243
28129SOL    HW186226   0.011  12.718   3.206
28129SOL    HW286227  14.744  12.752   3.238
28130SOL     OW86228   0.201   2.500  10.825
28130SOL    HW186229   0.188   2.536  10.737
28130SOL    HW286230   0.159   2.563  10.883
28131SOL     OW86231  11.337   9.208   7.776
28131SOL    HW186232  11.427   9.177   7.774
28131SOL    HW286233  11.285   9.131   7.753
28132SOL     OW86234   7.529   4.405   0.452
28132SOL    HW186235   7.452   4.361   0.416
28132SOL    HW286236   7.525   4.386   0.546
28133SOL     OW86237   4.884  14.103  14.850
28133SOL    HW186238   4.838  14.074   0.052
28133SOL    HW286239   4.934  14.027  14.822
28134SOL     OW86240   2.439  12.836   0.547
28134SOL    HW186241   2.481  12.777   0.610
28134SOL    HW286242   2.359  12.791   0.521
28135SOL     OW86243   8.951   6.856   2.767
28135SOL    HW186244   9.001   6.908   2.829
28135SOL    HW286245   9.010   6.784   2.743
28136SOL     OW86246  14.035   7.634   3.502
28136SOL    HW186247  14.091   7.613   3.428
28136SOL    HW286248  13.974   7.560   3.508
28137SOL     OW86249  10.890   0.984  12.891
28137SOL    HW186250  10.812   1.039  12.885
28137SOL    HW286251  10.945   1.013  12.818
28138SOL     OW86252   4.825   3.732   8.607
28138SOL    HW186253   4.884   3.693   8.543
28138SOL    HW286254   4.846   3.688   8.689
28139SOL     OW86255  12.447   5.664   8.659
28139SOL    HW186256  12.427   5.753   8.632
28139SOL    HW286257  12.416   5.659   8.749
28140SOL     OW86258   1.922   8.634  14.241
28140SOL    HW186259   1.907   8.571  14.170
28140SOL    HW286260   1.968   8.584  14.308
28141SOL     OW86261   9.651   6.750   7.994
28141SOL    HW186262   9.616   6.686   7.932
28141SOL    HW286263   9.684   6.696   8.066
28142SOL     OW86264   6.495   7.709  11.553
28142SOL    HW186265   6.461   7.778  11.495
28142SOL    HW286266   6.563   7.753  11.604
28143SOL     OW86267   3.859   0.483  10.701
28143SOL    HW186268   3.873   0.563  10.752
28143SOL    HW286269   3.812   0.512  10.623
28144SOL     OW86270   7.137  10.291  13.541
28144SOL    HW186271   7.084  10.280  13.620
28144SOL    HW286272   7.104  10.225  13.480
28145SOL     OW86273   2.445   1.189   6.024
28145SOL    HW186274   2.406   1.128   6.086
28145SOL    HW286275   2.485   1.134   5.957
28146SOL     OW86276  10.904   2.745  14.749
28146SOL    HW186277  10.838   2.810  14.773
28146SOL    HW286278  10.986   2.794  14.745
28147SOL     OW86279   6.802   4.828  11.115
28147SOL    HW186280   6.834   4.742  11.144
28147SOL    HW286281   6.776   4.814  11.024
28148SOL     OW86282  14.770   8.530   2.399
28148SOL    HW186283  14.699   8.464   2.398
28148SOL    HW286284  14.745   8.591   2.468
28149SOL     OW86285  14.362  12.090  11.069
28149SOL    HW186286  14.432  12.100  11.005
28149SOL    HW286287  14.398  12.033  11.136
28150SOL     OW86288   6.699   0.332   5.546
28150SOL    HW186289   6.629   0.394   5.567
28150SOL    HW286290   6.753   0.378   5.481
28151SOL     OW86291   8.515  13.048  10.637
28151SOL    HW186292   8.585  13.003  10.590
28151SOL    HW286293   8.497  12.992  10.713
28152SOL     OW86294  10.957   9.579  10.922
28152SOL    HW186295  10.956   9.656  10.978
28152SOL    HW286296  10.865   9.564  10.900
28153SOL     OW86297   1.608  14.142   3.927
28153SOL    HW186298   1.579  14.170   3.840
28153SOL    HW286299   1.699  14.117   3.915
28154SOL     OW86300  10.229   1.514   2.763
28154SOL    HW186301  10.268   1.582   2.708
28154SOL    HW286302  10.294   1.443   2.763
28155SOL     OW86303   1.614  14.093   2.730
28155SOL    HW186304   1.528  14.082   2.771
28155SOL    HW286305   1.594  14.118   2.639
28156SOL     OW86306   9.734  11.933  11.093
28156SOL    HW186307   9.806  11.988  11.121
28156SOL    HW286308   9.681  11.920  11.172
28157SOL     OW86309   9.411   9.365   8.334
28157SOL    HW186310   9.450   9.452   8.322
28157SOL    HW286311   9.316   9.381   8.328
28158SOL     OW86312   9.840   7.395  12.565
28158SOL    HW186313   9.762   7.406  12.619
28158SOL    HW286314   9.901   7.347  12.620
28159SOL     OW86315   1.624   1.132   8.636
28159SOL    HW186316   1.547   1.177   8.600
28159SOL    HW286317   1.637   1.171   8.722
28160SOL     OW86318   5.627   1.276  11.044
28160SOL    HW186319   5.691   1.205  11.051
28160SOL    HW286320   5.543   1.231  11.032
28161SOL     OW86321  12.829   7.960  13.422
28161SOL    HW186322  12.874   8.008  13.491
28161SOL    HW286323  12.737   7.958  13.451
28162SOL     OW86324  11.584   0.102   7.950
28162SOL    HW186325  11.504   0.051   7.938
28162SOL    HW286326  11.571   0.180   7.896
28163SOL     OW86327   9.127   2.318  14.614
28163SOL    HW186328   9.169   2.327  14.528
28163SOL    HW286329   9.111   2.224  14.622
28164SOL     OW86330   6.767   9.158   9.743
28164SOL    HW186331   6.807   9.101   9.678
28164SOL    HW286332   6.685   9.113   9.767
28165SOL     OW86333   4.458  13.700   8.254
28165SOL    HW186334   4.506  13.774   8.215
28165SOL    HW286335   4.525  13.650   8.300
28166SOL     OW86336   1.727  12.997  13.307
28166SOL    HW186337   1.763  13.028  13.390
28166SOL    HW286338   1.789  12.930  13.277
28167SOL     OW86339   4.475   1.347  13.004
28167SOL    HW186340   4.536   1.319  13.072
28167SOL    HW286341   4.505   1.304  12.924
28168SOL     OW86342   7.008  13.055  10.101
28168SOL    HW186343   7.023  12.971  10.145
28168SOL    HW286344   7.042  13.121  10.162
28169SOL     OW86345   7.731   2.806  14.628
28169SOL    HW186346   7.793   2.740  14.660
28169SOL    HW286347   7.646   2.764  14.634
28170SOL     OW86348   9.885   3.093   2.306
28170SOL    HW186349   9.804   3.044   2.287
28170SOL    HW286350   9.912   3.128   2.221
28171SOL     OW86351   5.694   2.393   2.329
28171SOL    HW186352   5.772   2.391   2.272
28171SOL    HW286353   5.624   2.359   2.275
28172SOL     OW86354   2.664  14.834   1.528
28172SOL    HW186355   2.741  14.848   1.473
28172SOL    HW286356   2.688  14.759   1.584
28173SOL     OW86357   7.807   7.692  13.860
28173SOL    HW186358   7.722   7.733  13.879
28173SOL    HW286359   7.807   7.678  13.766
28174SOL     OW86360   9.220   2.886   9.681
28174SOL    HW186361   9.146   2.919   9.731
28174SOL    HW286362   9.292   2.946   9.703
28175SOL     OW86363   8.232  13.765   4.604
28175SOL    HW186364   8.265  13.855   4.599
28175SOL    HW286365   8.308  13.711   4.583
28176SOL     OW86366   6.702   5.165   7.843
28176SOL    HW186367   6.746   5.080   7.831
28176SOL    HW286368   6.609   5.143   7.848
28177SOL     OW86369   2.407   2.616   4.258
28177SOL    HW186370   2.457   2.678   4.204
28177SOL    HW286371   2.420   2.647   4.347
28178SOL     OW86372   3.206   0.507   9.413
28178SOL    HW186373   3.172   0.426   9.376
28178SOL    HW286374   3.130   0.547   9.456
28179SOL     OW86375   3.887  13.542   0.087
28179SOL    HW186376   3.915  13.450   0.087
28179SOL    HW286377   3.877  13.564  14.871
28180SOL     OW86378   6.132  14.141   5.908
28180SOL    HW186379   6.145  14.201   5.835
28180SOL    HW286380   6.211  14.088   5.910
28181SOL     OW86381   3.490   8.592   1.680
28181SOL    HW186382   3.531   8.648   1.745
28181SOL    HW286383   3.484   8.506   1.722
28182SOL     OW86384  12.146   3.613   3.232
28182SOL    HW186385  12.121   3.521   3.228
28182SOL    HW286386  12.208   3.625   3.160
28183SOL     OW86387   3.406  10.689   3.767
28183SOL    HW186388   3.362  10.737   3.696
28183SOL    HW286389   3.498  10.711   3.757
28184SOL     OW86390  11.202   2.898   5.646
28184SOL    HW186391  11.181   2.828   5.707
28184SOL    HW286392  11.288   2.875   5.611
28185SOL     OW86393  11.406   3.096   0.558
28185SOL    HW186394  11.482   3.149   0.578
28185SOL    HW286395  11.375   3.129   0.474
28186SOL     OW86396  11.604   5.325   3.208
28186SOL    HW186397  11.641   5.242   3.179
28186SOL    HW286398  11.542   5.349   3.140
28187SOL     OW86399   9.121   6.054  12.710
28187SOL    HW186400   9.175   6.103  12.649
28187SOL    HW286401   9.092   6.119  12.774
28188SOL     OW86402   4.837  10.766   2.201
28188SOL    HW186403   4.931  10.747   2.203
28188SOL    HW286404   4.810  10.747   2.111
28189SOL     OW86405  11.333   4.437   5.532
28189SOL    HW186406  11.270   4.474   5.471
28189SOL    HW286407  11.295   4.353   5.558
28190SOL     OW86408   8.776  13.480   8.386
28190SOL    HW186409   8.720  13.555   8.404
28190SOL    HW286410   8.728  13.405   8.420
28191SOL     OW86411  14.339   8.649  12.964
28191SOL    HW186412  14.326   8.684  13.052
28191SOL    HW286413  14.335   8.554  12.975
28192SOL     OW86414   4.797  14.622  12.387
28192SOL    HW186415   4.765  14.589  12.302
28192SOL    HW286416   4.839  14.546  12.427
28193SOL     OW86417   5.966   8.722   3.359
28193SOL    HW186418   5.875   8.693   3.363
28193SOL    HW286419   5.995   8.701   3.270
28194SOL     OW86420   7.797   8.830   5.039
28194SOL    HW186421   7.742   8.874   5.104
28194SOL    HW286422   7.756   8.851   4.955
28195SOL     OW86423   0.904  10.778  14.394
28195SOL    HW186424   0.951  10.728  14.328
28195SOL    HW286425   0.824  10.728  14.409
28196SOL     OW86426  10.528   1.078  11.970
28196SOL    HW186427  10.546   1.112  11.882
28196SOL    HW286428  10.594   1.009  11.982
28197SOL     OW86429  12.575   1.820   5.126
28197SOL    HW186430  12.489   1.847   5.156
28197SOL    HW286431  12.583   1.860   5.039
28198SOL     OW86432   1.366   1.527   8.005
28198SOL    HW186433   1.435   1.479   7.958
28198SOL    HW286434   1.347   1.603   7.949
28199SOL     OW86435   5.114   1.139   8.679
28199SOL    HW186436   5.123   1.179   8.593
28199SOL    HW286437   5.054   1.066   8.665
28200SOL     OW86438  10.390  14.207   9.481
28200SOL    HW186439  10.456  14.185   9.415
28200SOL    HW286440  10.330  14.133   9.481
28201SOL     OW86441   4.123  12.594   2.774
28201SOL    HW186442   4.174  12.516   2.753
28201SOL    HW286443   4.057  12.598   2.704
28202SOL     OW86444   5.675   3.405  12.781
28202SOL    HW186445   5.627   3.323  12.768
28202SOL    HW286446   5.612   3.463  12.823
28203SOL     OW86447   5.359   6.413  14.196
28203SOL    HW186448   5.300   6.481  14.229
28203SOL    HW286449   5.323   6.332  14.231
28204SOL     OW86450   6.079   0.889   9.176
28204SOL    HW186451   5.999   0.866   9.223
28204SOL    HW286452   6.136   0.812   9.188
28205SOL     OW86453   7.077   8.808   2.962
28205SOL    HW186454   7.160   8.835   3.000
28205SOL    HW286455   7.063   8.719   2.996
28206SOL     OW86456   0.034   0.578   0.986
28206SOL    HW186457  14.828   0.571   1.034
28206SOL    HW286458   0.011   0.560   0.895
28207SOL     OW86459   3.121  13.911   2.534
28207SOL    HW186460   3.183  13.983   2.524
28207SOL    HW286461   3.116  13.896   2.628
28208SOL     OW86462  14.316  10.625   8.352
28208SOL    HW186463  14.354  10.571   8.283
28208SOL    HW286464  14.391  10.664   8.397
28209SOL     OW86465  11.107  13.822  12.677
28209SOL    HW186466  11.017  13.815  12.644
28209SOL    HW286467  11.139  13.732  12.678
28210SOL     OW86468   9.277   5.230   4.147
28210SOL    HW186469   9.311   5.227   4.237
28210SOL    HW286470   9.189   5.194   4.154
28211SOL     OW86471   9.263  10.969  10.591
28211SOL    HW186472   9.210  11.022  10.651
28211SOL    HW286473   9.205  10.952  10.517
28212SOL     OW86474   6.466   4.382   2.863
28212SOL    HW186475   6.471   4.336   2.780
28212SOL    HW286476   6.474   4.313   2.929
28213SOL     OW86477   9.616  13.712   9.590
28213SOL    HW186478   9.522  13.731   9.589
28213SOL    HW286479   9.658  13.798   9.595
28214SOL     OW86480  14.184   8.334   2.853
28214SOL    HW186481  14.103   8.283   2.848
28214SOL    HW286482  14.224   8.323   2.766
28215SOL     OW86483  13.455   8.600   0.480
28215SOL    HW186484  13.369   8.624   0.515
28215SOL    HW286485  13.517   8.632   0.545
28216SOL     OW86486  14.721   5.472  12.033
28216SOL    HW186487  14.720   5.562  11.999
28216SOL    HW286488  14.671   5.422  11.970
28217SOL     OW86489   1.703   6.263   7.072
28217SOL    HW186490   1.680   6.245   6.981
28217SOL    HW286491   1.701   6.358   7.079
28218SOL     OW86492   1.697   6.830  10.507
28218SOL    HW186493   1.660   6.789  10.585
28218SOL    HW286494   1.744   6.758  10.463
28219SOL     OW86495   9.948   0.184   6.552
28219SOL    HW186496  10.001   0.134   6.490
28219SOL    HW286497   9.920   0.261   6.503
28220SOL     OW86498   2.562  14.412   3.950
28220SOL    HW186499   2.515  14.383   4.028
28220SOL    HW286500   2.566  14.508   3.959
28221SOL     OW86501   5.505   9.092   1.149
28221SOL    HW186502   5.478   9.091   1.241
28221SOL    HW286503   5.456   9.164   1.111
28222SOL     OW86504   9.119   0.913   0.105
28222SOL    HW186505   9.176   0.990   0.102
28222SOL    HW286506   9.037   0.942   0.066
28223SOL     OW86507   3.963  12.676   3.946
28223SOL    HW186508   3.924  12.664   3.860
28223SOL    HW286509   3.916  12.615   4.003
28224SOL     OW86510   1.505  12.005   8.518
28224SOL    HW186511   1.545  11.920   8.498
28224SOL    HW286512   1.497  12.005   8.614
28225SOL     OW86513   5.472   2.920   4.679
28225SOL    HW186514   5.402   2.969   4.723
28225SOL    HW286515   5.464   2.831   4.712
28226SOL     OW86516   4.839   6.131   2.586
28226SOL    HW186517   4.799   6.044   2.583
28226SOL    HW286518   4.908   6.128   2.519
28227SOL     OW86519   3.674  12.257   9.125
28227SOL    HW186520   3.753  12.302   9.155
28227SOL    HW286521   3.640  12.312   9.055
28228SOL     OW86522  11.161   9.662   6.049
28228SOL    HW186523  11.087   9.707   6.089
28228SOL    HW286524  11.236   9.720   6.064
28229SOL     OW86525   8.862  10.773   6.787
28229SOL    HW186526   8.935  10.741   6.734
28229SOL    HW286527   8.839  10.857   6.748
28230SOL     OW86528   4.837  10.084   5.054
28230SOL    HW186529   4.818  10.083   4.961
28230SOL    HW286530   4.912  10.025   5.064
28231SOL     OW86531   4.652  10.547  14.081
28231SOL    HW186532   4.662  10.501  13.998
28231SOL    HW286533   4.696  10.630  14.068
28232SOL     OW86534   0.955   1.201   1.162
28232SOL    HW186535   0.877   1.248   1.133
28232SOL    HW286536   1.027   1.241   1.112
28233SOL     OW86537   7.967   6.159   3.456
28233SOL    HW186538   8.042   6.180   3.399
28233SOL    HW286539   7.898   6.134   3.395
28234SOL     OW86540   2.160   9.208  13.014
28234SOL    HW186541   2.077   9.184  12.971
28234SOL    HW286542   2.227   9.191  12.948
28235SOL     OW86543  13.328   8.320  14.652
28235SOL    HW186544  13.382   8.272  14.589
28235SOL    HW286545  13.354   8.285  14.737
28236SOL     OW86546   3.743   6.684   3.107
28236SOL    HW186547   3.708   6.677   3.196
28236SOL    HW286548   3.797   6.763   3.108
28237SOL     OW86549  10.018   1.739   4.774
28237SOL    HW186550  10.036   1.657   4.727
28237SOL    HW286551  10.039   1.808   4.710
28238SOL     OW86552  14.648  11.200  10.114
28238SOL    HW186553  14.686  11.145  10.046
28238SOL    HW286554  14.694  11.284  10.106
28239SOL     OW86555   1.040  11.962   7.624
28239SOL    HW186556   1.089  11.893   7.579
28239SOL    HW286557   0.963  11.919   7.660
28240SOL     OW86558   5.595   5.960   8.947
28240SOL    HW186559   5.508   5.961   8.988
28240SOL    HW286560   5.644   6.027   8.994
28241SOL     OW86561   6.693  11.252   3.757
28241SOL    HW186562   6.612  11.295   3.730
28241SOL    HW286563   6.750  11.323   3.786
28242SOL     OW86564   7.296   0.439  11.648
28242SOL    HW186565   7.358   0.372  11.677
28242SOL    HW286566   7.267   0.481  11.729
28243SOL     OW86567   1.215   9.955   7.844
28243SOL    HW186568   1.250   9.871   7.813
28243SOL    HW286569   1.268  10.021   7.798
28244SOL     OW86570  14.758   9.313  12.194
28244SOL    HW186571  14.752   9.407  12.175
28244SOL    HW286572  14.806   9.278  12.119
28245SOL     OW86573   5.351   2.698   5.730
28245SOL    HW186574   5.335   2.684   5.824
28245SOL    HW286575   5.444   2.679   5.719
28246SOL     OW86576   5.259   5.064   3.065
28246SOL    HW186577   5.292   5.151   3.087
28246SOL    HW286578   5.246   5.021   3.150
28247SOL     OW86579   9.419   7.021  12.585
28247SOL    HW186580   9.504   7.055  12.614
28247SOL    HW286581   9.432   7.001  12.492
28248SOL     OW86582   2.565  12.886   1.171
28248SOL    HW186583   2.482  12.908   1.212
28248SOL    HW286584   2.600  12.814   1.224
28249SOL     OW86585   4.294  14.151   5.266
28249SOL    HW186586   4.345  14.077   5.233
28249SOL    HW286587   4.315  14.155   5.359
28250SOL     OW86588  12.032   7.381   2.647
28250SOL    HW186589  12.069   7.299   2.616
28250SOL    HW286590  11.963   7.356   2.708
28251SOL     OW86591   4.282   8.718   4.375
28251SOL    HW186592   4.264   8.776   4.301
28251SOL    HW286593   4.340   8.769   4.431
28252SOL     OW86594  10.289  12.193   2.528
28252SOL    HW186595  10.243  12.252   2.468
28252SOL    HW286596  10.226  12.123   2.547
28253SOL     OW86597   9.801   2.152  13.062
28253SOL    HW186598   9.828   2.068  13.101
28253SOL    HW286599   9.836   2.218  13.122
28254SOL     OW86600  11.474  12.618   0.296
28254SOL    HW186601  11.466  12.538   0.245
28254SOL    HW286602  11.545  12.667   0.254
28255SOL     OW86603  13.416   2.714   8.929
28255SOL    HW186604  13.335   2.740   8.886
28255SOL    HW286605  13.445   2.637   8.881
28256SOL     OW86606   7.914   5.966  11.169
28256SOL    HW186607   7.935   6.040  11.226
28256SOL    HW286608   7.997   5.943  11.129
28257SOL     OW86609   2.370  12.621   2.200
28257SOL    HW186610   2.453  12.582   2.175
28257SOL    HW286611   2.393  12.687   2.266
28258SOL     OW86612   3.245   0.313  11.341
28258SOL    HW186613   3.239   0.254  11.266
28258SOL    HW286614   3.159   0.306  11.384
28259SOL     OW86615  14.646   5.784   8.596
28259SOL    HW186616  14.559   5.745   8.587
28259SOL    HW286617  14.704   5.724   8.550
28260SOL     OW86618  10.116   1.159   6.953
28260SOL    HW186619  10.184   1.194   6.895
28260SOL    HW286620  10.090   1.234   7.007
28261SOL     OW86621  11.281  13.414   9.562
28261SOL    HW186622  11.194  13.388   9.592
28261SOL    HW286623  11.338  13.343   9.589
28262SOL     OW86624   0.695   5.547   1.899
28262SOL    HW186625   0.771   5.526   1.953
28262SOL    HW286626   0.671   5.464   1.858
28263SOL     OW86627   4.824   3.890  11.179
28263SOL    HW186628   4.845   3.983  11.181
28263SOL    HW286629   4.745   3.883  11.233
28264SOL     OW86630   3.530   3.788  11.107
28264SOL    HW186631   3.534   3.877  11.073
28264SOL    HW286632   3.479   3.739  11.042
28265SOL     OW86633   8.879  12.184   7.611
28265SOL    HW186634   8.808  12.179   7.547
28265SOL    HW286635   8.841  12.149   7.691
28266SOL     OW86636  11.616   1.667   3.598
28266SOL    HW186637  11.636   1.601   3.664
28266SOL    HW286638  11.697   1.678   3.549
28267SOL     OW86639   2.428  10.757   4.734
28267SOL    HW186640   2.338  10.761   4.702
28267SOL    HW286641   2.431  10.822   4.805
28268SOL     OW86642   4.020  14.708   1.389
28268SOL    HW186643   3.988  14.661   1.311
28268SOL    HW286644   3.949  14.766   1.413
28269SOL     OW86645  12.587   3.267  12.103
28269SOL    HW186646  12.644   3.341  12.124
28269SOL    HW286647  12.648   3.193  12.093
28270SOL     OW86648  12.553   2.476   5.792
28270SOL    HW186649  12.587   2.451   5.706
28270SOL    HW286650  12.571   2.399   5.848
28271SOL     OW86651  14.834   4.460   5.143
28271SOL    HW186652  14.825   4.467   5.238
28271SOL    HW286653   0.037   4.409   5.130
28272SOL     OW86654   4.263  10.668   2.722
28272SOL    HW186655   4.243  10.705   2.808
28272SOL    HW286656   4.192  10.607   2.705
28273SOL     OW86657   6.141   6.930  14.608
28273SOL    HW186658   6.136   6.834  14.610
28273SOL    HW286659   6.202   6.952  14.678
28274SOL     OW86660   1.069   9.989   0.981
28274SOL    HW186661   1.118   9.996   1.063
28274SOL    HW286662   1.102  10.061   0.927
28275SOL     OW86663   8.914  12.795   4.111
28275SOL    HW186664   8.944  12.721   4.058
28275SOL    HW286665   8.876  12.755   4.189
28276SOL     OW86666  10.841   2.545  11.338
28276SOL    HW186667  10.792   2.614  11.382
28276SOL    HW286668  10.777   2.508  11.276
28277SOL     OW86669  10.192  13.886   3.260
28277SOL    HW186670  10.278  13.909   3.225
28277SOL    HW286671  10.211  13.847   3.345
28278SOL     OW86672  13.099   4.597   9.570
28278SOL    HW186673  13.096   4.550   9.487
28278SOL    HW286674  13.090   4.529   9.637
28279SOL     OW86675   2.037   6.814  12.330
28279SOL    HW186676   2.072   6.894  12.371
28279SOL    HW286677   1.958   6.844  12.286
28280SOL     OW86678  10.092  11.793  14.563
28280SOL    HW186679  10.080  11.749  14.480
28280SOL    HW286680  10.138  11.874  14.541
28281SOL     OW86681   7.399  11.541   0.341
28281SOL    HW186682   7.351  11.464   0.372
28281SOL    HW286683   7.474  11.506   0.295
28282SOL     OW86684   5.606  12.436   8.617
28282SOL    HW186685   5.550  12.492   8.670
28282SOL    HW286686   5.673  12.405   8.677
28283SOL     OW86687   9.536   5.664   9.617
28283SOL    HW186688   9.564   5.584   9.662
28283SOL    HW286689   9.532   5.730   9.686
28284SOL     OW86690  12.944   1.290   0.331
28284SOL    HW186691  12.899   1.338   0.400
28284SOL    HW286692  13.034   1.324   0.332
28285SOL     OW86693   0.608   8.476  10.149
28285SOL    HW186694   0.515   8.482  10.130
28285SOL    HW286695   0.632   8.386  10.127
28286SOL     OW86696  14.344   4.245  10.076
28286SOL    HW186697  14.335   4.261   9.982
28286SOL    HW286698  14.327   4.330  10.117
28287SOL     OW86699   4.815   3.792   3.807
28287SOL    HW186700   4.864   3.856   3.755
28287SOL    HW286701   4.795   3.721   3.747
28288SOL     OW86702   5.815  14.140   9.218
28288SOL    HW186703   5.764  14.214   9.187
28288SOL    HW286704   5.837  14.091   9.139
28289SOL     OW86705  13.463  10.555  12.130
28289SOL    HW186706  13.428  10.468  12.147
28289SOL    HW286707  13.395  10.598  12.079
28290SOL     OW86708  13.992   7.483   6.007
28290SOL    HW186709  13.918   7.426   6.030
28290SOL    HW286710  14.067   7.444   6.051
28291SOL     OW86711   0.433   2.694   1.958
28291SOL    HW186712   0.499   2.720   1.894
28291SOL    HW286713   0.433   2.598   1.954
28292SOL     OW86714   5.870  14.232   7.666
28292SOL    HW186715   5.867  14.163   7.733
28292SOL    HW286716   5.822  14.196   7.592
28293SOL     OW86717  14.375  13.920  13.568
28293SOL    HW186718  14.367  14.004  13.611
28293SOL    HW286719  14.469  13.899  13.573
28294SOL     OW86720  14.463  10.543  14.306
28294SOL    HW186721  14.386  10.565  14.358
28294SOL    HW286722  14.537  10.574  14.359
28295SOL     OW86723  10.545   9.002  10.993
28295SOL    HW186724  10.618   9.064  10.979
28295SOL    HW286725  10.587   8.916  10.993
28296SOL     OW86726  12.007  11.112  11.147
28296SOL    HW186727  11.933  11.060  11.178
28296SOL    HW286728  11.988  11.128  11.055
28297SOL     OW86729  12.592   4.046   7.697
28297SOL    HW186730  12.551   4.099   7.765
28297SOL    HW286731  12.606   4.106   7.624
28298SOL     OW86732   9.072   5.416  12.630
28298SOL    HW186733   9.017   5.488  12.661
28298SOL    HW286734   9.152   5.458  12.600
28299SOL     OW86735   7.738  11.782   4.749
28299SOL    HW186736   7.687  11.849   4.794
28299SOL    HW286737   7.828  11.800   4.773
28300SOL     OW86738   5.335  13.679   7.417
28300SOL    HW186739   5.311  13.739   7.347
28300SOL    HW286740   5.276  13.604   7.407
28301SOL     OW86741   2.403  13.715  10.582
28301SOL    HW186742   2.328  13.657  10.568
28301SOL    HW286743   2.411  13.763  10.499
28302SOL     OW86744   5.541   4.021   5.620
28302SOL    HW186745   5.586   4.096   5.579
28302SOL    HW286746   5.590   4.005   5.700
28303SOL     OW86747  10.392   1.011   6.087
28303SOL    HW186748  10.451   0.974   6.153
28303SOL    HW286749  10.440   1.085   6.050
28304SOL     OW86750   4.766  14.043   1.654
28304SOL    HW186751   4.768  13.960   1.702
28304SOL    HW286752   4.711  14.100   1.707
28305SOL     OW86753   1.141   0.476  12.927
28305SOL    HW186754   1.049   0.504  12.931
28305SOL    HW286755   1.178   0.505  13.010
28306SOL     OW86756   6.773  11.090   2.259
28306SOL    HW186757   6.742  11.044   2.337
28306SOL    HW286758   6.794  11.020   2.197
28307SOL     OW86759  12.047   3.718   4.599
28307SOL    HW186760  12.137   3.689   4.584
28307SOL    HW286761  11.996   3.677   4.529
28308SOL     OW86762   8.772  10.790   0.748
28308SOL    HW186763   8.823  10.799   0.668
28308SOL    HW286764   8.746  10.698   0.750
28309SOL     OW86765   9.181  10.680   2.306
28309SOL    HW186766   9.121  10.755   2.310
28309SOL    HW286767   9.140  10.620   2.245
28310SOL     OW86768  14.153   0.326   8.507
28310SOL    HW186769  14.193   0.247   8.543
28310SOL    HW286770  14.059   0.309   8.511
28311SOL     OW86771   7.607   6.299   8.091
28311SOL    HW186772   7.544   6.292   8.163
28311SOL    HW286773   7.651   6.382   8.106
28312SOL     OW86774   4.986   2.604   6.256
28312SOL    HW186775   5.029   2.688   6.241
28312SOL    HW286776   4.992   2.591   6.351
28313SOL     OW86777  10.158   9.481  10.905
28313SOL    HW186778  10.175   9.545  10.836
28313SOL    HW286779  10.074   9.441  10.880
28314SOL     OW86780   4.945  13.227   9.038
28314SOL    HW186781   4.948  13.191   8.949
28314SOL    HW286782   4.852  13.230   9.060
28315SOL     OW86783  14.677   8.041  14.296
28315SOL    HW186784  14.616   8.080  14.359
28315SOL    HW286785  14.697   8.111  14.235
28316SOL     OW86786   4.684   6.644   1.710
28316SOL    HW186787   4.614   6.708   1.697
28316SOL    HW286788   4.646   6.580   1.770
28317SOL     OW86789   9.707  12.489   3.770
28317SOL    HW186790   9.789  12.452   3.737
28317SOL    HW286791   9.721  12.498   3.864
28318SOL     OW86792  10.877   4.529  12.006
28318SOL    HW186793  10.955   4.562  12.051
28318SOL    HW286794  10.852   4.600  11.947
28319SOL     OW86795  14.640   7.312   8.609
28319SOL    HW186796  14.592   7.341   8.531
28319SOL    HW286797  14.710   7.376   8.620
28320SOL     OW86798   3.709   8.388  13.714
28320SOL    HW186799   3.709   8.299  13.750
28320SOL    HW286800   3.740   8.377  13.624
28321SOL     OW86801   5.214   6.044   1.506
28321SOL    HW186802   5.170   5.969   1.465
28321SOL    HW286803   5.298   6.049   1.461
28322SOL     OW86804  10.818   8.485   0.193
28322SOL    HW186805  10.820   8.555   0.129
28322SOL    HW286806  10.755   8.514   0.259
28323SOL     OW86807   7.450   3.943  14.145
28323SOL    HW186808   7.424   3.859  14.107
28323SOL    HW286809   7.369   3.994  14.148
28324SOL     OW86810  14.045   7.414   2.118
28324SOL    HW186811  14.041   7.319   2.123
28324SOL    HW286812  13.963   7.440   2.078
28325SOL     OW86813   3.047  14.509   4.051
28325SOL    HW186814   3.126  14.459   4.032
28325SOL    HW286815   3.068  14.559   4.130
28326SOL     OW86816   5.422   9.597   5.945
28326SOL    HW186817   5.477   9.634   6.013
28326SOL    HW286818   5.445   9.646   5.866
28327SOL     OW86819   9.091  10.781   4.119
28327SOL    HW186820   9.100  10.758   4.027
28327SOL    HW286821   9.054  10.870   4.118
28328SOL     OW86822  14.605   7.896   6.178
28328SOL    HW186823  14.693   7.915   6.210
28328SOL    HW286824  14.615   7.889   6.083
28329SOL     OW86825   0.684   4.695   6.958
28329SOL    HW186826   0.621   4.638   6.914
28329SOL    HW286827   0.637   4.729   7.034
28330SOL     OW86828  10.891   3.618   1.712
28330SOL    HW186829  10.929   3.647   1.795
28330SOL    HW286830  10.952   3.650   1.645
28331SOL     OW86831   8.565   1.545  12.444
28331SOL    HW186832   8.543   1.464  12.397
28331SOL    HW286833   8.659   1.539  12.459
28332SOL     OW86834  10.742   1.407   8.116
28332SOL    HW186835  10.830   1.421   8.151
28332SOL    HW286836  10.756   1.359   8.034
28333SOL     OW86837   6.583   5.327   6.069
28333SOL    HW186838   6.554   5.338   5.978
28333SOL    HW286839   6.528   5.256   6.103
28334SOL     OW86840   1.045  10.146   2.699
28334SOL    HW186841   1.100  10.185   2.767
28334SOL    HW286842   1.089  10.169   2.617
28335SOL     OW86843   3.231   8.442  11.436
28335SOL    HW186844   3.290   8.497  11.383
28335SOL    HW286845   3.150   8.493  11.442
28336SOL     OW86846  11.805  11.106   2.280
28336SOL    HW186847  11.836  11.165   2.349
28336SOL    HW286848  11.713  11.129   2.268
28337SOL     OW86849  11.832  12.880   8.236
28337SOL    HW186850  11.916  12.924   8.250
28337SOL    HW286851  11.815  12.835   8.319
28338SOL     OW86852   6.621   0.940   8.891
28338SOL    HW186853   6.681   0.959   8.819
28338SOL    HW286854   6.676   0.941   8.970
28339SOL     OW86855   5.990   7.552   9.059
28339SOL    HW186856   6.062   7.580   9.003
28339SOL    HW286857   6.024   7.473   9.102
28340SOL     OW86858   7.459  14.117  14.813
28340SOL    HW186859   7.429  14.180  14.748
28340SOL    HW286860   7.530  14.069  14.769
28341SOL     OW86861   1.936   9.943  11.668
28341SOL    HW186862   1.982  10.026  11.650
28341SOL    HW286863   1.858   9.969  11.716
28342SOL     OW86864  11.484  11.936  13.106
28342SOL    HW186865  11.528  11.864  13.060
28342SOL    HW286866  11.433  11.980  13.038
28343SOL     OW86867  13.529   5.402   8.517
28343SOL    HW186868  13.492   5.481   8.477
28343SOL    HW286869  13.528   5.337   8.447
28344SOL     OW86870   4.462   4.545  11.630
28344SOL    HW186871   4.384   4.573  11.677
28344SOL    HW286872   4.428   4.497  11.554
28345SOL     OW86873   4.724   3.910  13.522
28345SOL    HW186874   4.695   3.875  13.606
28345SOL    HW286875   4.743   4.002  13.539
28346SOL     OW86876   7.807   1.715   3.535
28346SOL    HW186877   7.853   1.673   3.608
28346SOL    HW286878   7.795   1.644   3.471
28347SOL     OW86879   7.671   3.724   3.600
28347SOL    HW186880   7.612   3.658   3.564
28347SOL    HW286881   7.646   3.732   3.692
28348SOL     OW86882  10.715  11.282   8.264
28348SOL    HW186883  10.809  11.299   8.258
28348SOL    HW286884  10.696  11.230   8.186
28349SOL     OW86885  14.852   2.273   7.673
28349SOL    HW186886   0.054   2.328   7.670
28349SOL    HW286887  14.868   2.211   7.744
28350SOL     OW86888   5.291   2.601   6.353
28350SOL    HW186889   5.381   2.570   6.358
28350SOL    HW286890   5.243   2.530   6.311
28351SOL     OW86891  10.692   6.201   2.107
28351SOL    HW186892  10.711   6.279   2.159
28351SOL    HW286893  10.775   6.179   2.064
28352SOL     OW86894  12.408   9.394   3.708
28352SOL    HW186895  12.464   9.467   3.734
28352SOL    HW286896  12.337   9.394   3.772
28353SOL     OW86897   8.012  11.735   1.543
28353SOL    HW186898   8.013  11.657   1.599
28353SOL    HW286899   8.079  11.792   1.580
28354SOL     OW86900   0.323  12.535   7.403
28354SOL    HW186901   0.392  12.584   7.448
28354SOL    HW286902   0.341  12.444   7.425
28355SOL     OW86903   3.949   1.500   8.845
28355SOL    HW186904   3.948   1.534   8.756
28355SOL    HW286905   3.875   1.543   8.888
28356SOL     OW86906  12.251  10.504   7.140
28356SOL    HW186907  12.260  10.597   7.163
28356SOL    HW286908  12.333  10.464   7.169
28357SOL     OW86909   8.931  11.537   6.299
28357SOL    HW186910   8.857  11.537   6.239
28357SOL    HW286911   8.892  11.557   6.384
28358SOL     OW86912   3.510   3.758  10.655
28358SOL    HW186913   3.503   3.850  10.677
28358SOL    HW286914   3.466   3.713  10.727
28359SOL     OW86915   9.745   1.801   8.089
28359SOL    HW186916   9.754   1.765   8.177
28359SOL    HW286917   9.667   1.758   8.053
28360SOL     OW86918  12.773  11.046   2.777
28360SOL    HW186919  12.719  10.989   2.832
28360SOL    HW286920  12.729  11.131   2.780
28361SOL     OW86921   2.393   3.520   6.956
28361SOL    HW186922   2.443   3.594   6.992
28361SOL    HW286923   2.445   3.491   6.881
28362SOL     OW86924  12.716   1.889  11.954
28362SOL    HW186925  12.769   1.830  11.902
28362SOL    HW286926  12.779   1.943  12.002
28363SOL     OW86927  14.155   2.766   6.356
28363SOL    HW186928  14.112   2.715   6.425
28363SOL    HW286929  14.248   2.749   6.369
28364SOL     OW86930   5.774   4.894   2.878
28364SOL    HW186931   5.801   4.975   2.834
28364SOL    HW286932   5.734   4.922   2.959
28365SOL     OW86933   1.720  11.629   7.278
28365SOL    HW186934   1.683  11.707   7.319
28365SOL    HW286935   1.672  11.620   7.196
28366SOL     OW86936  13.708   7.336   4.161
28366SOL    HW186937  13.699   7.305   4.071
28366SOL    HW286938  13.719   7.431   4.152
28367SOL     OW86939  11.167  14.403   1.190
28367SOL    HW186940  11.251  14.430   1.153
28367SOL    HW286941  11.158  14.454   1.270
28368SOL     OW86942  11.649   5.159  13.763
28368SOL    HW186943  11.671   5.172  13.856
28368SOL    HW286944  11.597   5.235  13.740
28369SOL     OW86945   4.425  12.225  12.253
28369SOL    HW186946   4.504  12.190  12.213
28369SOL    HW286947   4.393  12.154  12.309
28370SOL     OW86948  10.547  10.821   2.788
28370SOL    HW186949  10.542  10.873   2.868
28370SOL    HW286950  10.621  10.762   2.801
28371SOL     OW86951   9.549  14.392   2.969
28371SOL    HW186952   9.479  14.377   3.034
28371SOL    HW286953   9.629  14.365   3.014
28372SOL     OW86954   7.632  14.464  12.499
28372SOL    HW186955   7.560  14.423  12.452
28372SOL    HW286956   7.674  14.521  12.435
28373SOL     OW86957   8.753  11.543   7.589
28373SOL    HW186958   8.687  11.549   7.519
28373SOL    HW286959   8.708  11.500   7.661
28374SOL     OW86960  10.875  12.976   8.155
28374SOL    HW186961  10.827  13.007   8.078
28374SOL    HW286962  10.939  13.045   8.173
28375SOL     OW86963   9.030   1.122  12.758
28375SOL    HW186964   9.057   1.048  12.813
28375SOL    HW286965   8.938   1.136  12.782
28376SOL     OW86966   8.597   1.253   9.029
28376SOL    HW186967   8.587   1.200   8.950
28376SOL    HW286968   8.603   1.343   8.997
28377SOL     OW86969   2.431   2.997   2.944
28377SOL    HW186970   2.371   3.005   2.870
28377SOL    HW286971   2.488   2.923   2.921
28378SOL     OW86972   3.974   3.240   4.818
28378SOL    HW186973   3.915   3.272   4.887
28378SOL    HW286974   4.057   3.285   4.836
28379SOL     OW86975   5.870   1.980  13.788
28379SOL    HW186976   5.866   2.060  13.735
28379SOL    HW286977   5.782   1.943  13.784
28380SOL     OW86978   0.970   5.870   8.971
28380SOL    HW186979   0.899   5.908   8.919
28380SOL    HW286980   0.926   5.827   9.044
28381SOL     OW86981   1.045   5.050  12.289
28381SOL    HW186982   0.973   5.023  12.232
28381SOL    HW286983   1.124   5.027  12.240
28382SOL     OW86984   2.802   4.244   7.128
28382SOL    HW186985   2.807   4.338   7.108
28382SOL    HW286986   2.859   4.203   7.064
28383SOL     OW86987   3.090  11.462  10.210
28383SOL    HW186988   3.159  11.465  10.145
28383SOL    HW286989   3.108  11.383  10.261
28384SOL     OW86990   8.626  10.153   5.891
28384SOL    HW186991   8.594  10.199   5.968
28384SOL    HW286992   8.580  10.070   5.891
28385SOL     OW86993   6.610   5.626   0.316
28385SOL    HW186994   6.658   5.691   0.366
28385SOL    HW286995   6.534   5.604   0.370
28386SOL     OW86996  11.062   8.584   4.099
28386SOL    HW186997  11.041   8.650   4.033
28386SOL    HW286998  11.143   8.544   4.068
28387SOL     OW86999   7.683   1.496   5.532
28387SOL    HW187000   7.690   1.514   5.438
28387SOL    HW287001   7.746   1.426   5.548
28388SOL     OW87002   4.123   3.374   6.539
28388SOL    HW187003   4.105   3.395   6.630
28388SOL    HW287004   4.145   3.458   6.499
28389SOL     OW87005  14.168   9.585  11.530
28389SOL    HW187006  14.075   9.603  11.541
28389SOL    HW287007  14.175   9.541  11.445
28390SOL     OW87008   9.234   0.775   4.282
28390SOL    HW187009   9.319   0.817   4.288
28390SOL    HW287010   9.241   0.716   4.207
28391SOL     OW87011  11.879  10.601  14.088
28391SOL    HW187012  11.912  10.516  14.119
28391SOL    HW287013  11.817  10.578  14.018
28392SOL     OW87014  14.297   9.278  12.431
28392SOL    HW187015  14.369   9.268  12.370
28392SOL    HW287016  14.223   9.308  12.378
28393SOL     OW87017   0.945   9.840  13.963
28393SOL    HW187018   0.892   9.871  14.036
28393SOL    HW287019   0.883   9.828  13.891
28394SOL     OW87020  14.382  13.138   7.333
28394SOL    HW187021  14.338  13.121   7.249
28394SOL    HW287022  14.438  13.213   7.316
28395SOL     OW87023  13.335  14.074  12.587
28395SOL    HW187024  13.307  14.059  12.497
28395SOL    HW287025  13.411  14.132  12.579
28396SOL     OW87026   8.386   5.578   8.795
28396SOL    HW187027   8.338   5.571   8.878
28396SOL    HW287028   8.476   5.552   8.818
28397SOL     OW87029   3.273  13.283  14.213
28397SOL    HW187030   3.351  13.337  14.197
28397SOL    HW287031   3.259  13.235  14.132
28398SOL     OW87032   4.991  10.689   2.541
28398SOL    HW187033   5.025  10.609   2.581
28398SOL    HW287034   4.909  10.662   2.499
28399SOL     OW87035  12.771   6.107   9.228
28399SOL    HW187036  12.785   6.130   9.136
28399SOL    HW287037  12.747   6.189   9.270
28400SOL     OW87038   3.005   7.979  13.065
28400SOL    HW187039   2.932   7.918  13.062
28400SOL    HW287040   3.018   7.996  13.158
28401SOL     OW87041   2.207   5.018   1.839
28401SOL    HW187042   2.257   5.100   1.840
28401SOL    HW287043   2.262   4.957   1.789
28402SOL     OW87044   6.863   1.143  10.281
28402SOL    HW187045   6.812   1.063  10.291
28402SOL    HW287046   6.861   1.184  10.368
28403SOL     OW87047   7.718   4.197   4.325
28403SOL    HW187048   7.704   4.191   4.420
28403SOL    HW287049   7.788   4.262   4.316
28404SOL     OW87050  10.481   1.146  14.661
28404SOL    HW187051  10.423   1.123  14.734
28404SOL    HW287052  10.437   1.221  14.619
28405SOL     OW87053  10.982   9.005   7.955
28405SOL    HW187054  11.016   9.094   7.944
28405SOL    HW287055  11.010   8.979   8.043
28406SOL     OW87056   9.927   3.448   1.154
28406SOL    HW187057   9.943   3.354   1.163
28406SOL    HW287058   9.916   3.462   1.061
28407SOL     OW87059   8.928   9.437  13.955
28407SOL    HW187060   8.854   9.407  13.902
28407SOL    HW287061   8.895   9.513  14.002
28408SOL     OW87062   0.747   4.504  14.756
28408SOL    HW187063   0.758   4.409  14.756
28408SOL    HW287064   0.754   4.529  14.664
28409SOL     OW87065   0.704   4.397   6.896
28409SOL    HW187066   0.635   4.458   6.870
28409SOL    HW287067   0.711   4.336   6.822
28410SOL     OW87068  10.556  10.206   5.826
28410SOL    HW187069  10.596  10.259   5.896
28410SOL    HW287070  10.620  10.138   5.808
28411SOL     OW87071  10.084   3.588   8.165
28411SOL    HW187072  10.060   3.517   8.225
28411SOL    HW287073  10.175   3.606   8.184
28412SOL     OW87074   9.227  11.538   9.425
28412SOL    HW187075   9.180  11.542   9.342
28412SOL    HW287076   9.318  11.551   9.401
28413SOL     OW87077  14.677  11.412  13.404
28413SOL    HW187078  14.622  11.456  13.339
28413SOL    HW287079  14.712  11.484  13.457
28414SOL     OW87080   4.709   6.367  10.590
28414SOL    HW187081   4.802   6.344  10.586
28414SOL    HW287082   4.665   6.284  10.609
28415SOL     OW87083  14.401   1.119   1.798
28415SOL    HW187084  14.308   1.139   1.812
28415SOL    HW287085  14.401   1.055   1.727
28416SOL     OW87086   7.950  10.023   9.737
28416SOL    HW187087   7.878  10.040   9.798
28416SOL    HW287088   7.908   9.988   9.659
28417SOL     OW87089  10.939   3.703   4.742
28417SOL    HW187090  10.958   3.647   4.667
28417SOL    HW287091  10.954   3.792   4.711
28418SOL     OW87092   1.622   6.744  13.918
28418SOL    HW187093   1.660   6.769  14.002
28418SOL    HW287094   1.591   6.654  13.932
28419SOL     OW87095  14.467  13.021  14.117
28419SOL    HW187096  14.420  12.989  14.039
28419SOL    HW287097  14.473  12.945  14.174
28420SOL     OW87098   7.082   0.555   8.315
28420SOL    HW187099   7.155   0.535   8.374
28420SOL    HW287100   7.007   0.570   8.374
28421SOL     OW87101   5.641   4.065   5.889
28421SOL    HW187102   5.563   4.091   5.938
28421SOL    HW287103   5.702   4.138   5.900
28422SOL     OW87104   2.637   5.381   6.350
28422SOL    HW187105   2.586   5.371   6.431
28422SOL    HW287106   2.621   5.300   6.302
28423SOL     OW87107   0.697   1.613   5.433
28423SOL    HW187108   0.643   1.583   5.506
28423SOL    HW287109   0.787   1.610   5.467
28424SOL     OW87110  12.604  12.892   5.403
28424SOL    HW187111  12.604  12.955   5.332
28424SOL    HW287112  12.637  12.811   5.364
28425SOL     OW87113  14.130   5.673   9.589
28425SOL    HW187114  14.075   5.619   9.645
28425SOL    HW287115  14.084   5.756   9.581
28426SOL     OW87116  10.636  12.399  14.739
28426SOL    HW187117  10.627  12.434  14.827
28426SOL    HW287118  10.731  12.388  14.727
28427SOL     OW87119  12.899  11.594  10.506
28427SOL    HW187120  12.816  11.610  10.462
28427SOL    HW287121  12.957  11.560  10.437
28428SOL     OW87122   3.643   5.183  12.166
28428SOL    HW187123   3.659   5.207  12.257
28428SOL    HW287124   3.572   5.119  12.170
28429SOL     OW87125   1.652   7.077   7.925
28429SOL    HW187126   1.619   7.063   8.013
28429SOL    HW287127   1.648   7.172   7.912
28430SOL     OW87128   1.969  12.508   2.402
28430SOL    HW187129   1.876  12.490   2.416
28430SOL    HW287130   2.001  12.432   2.352
28431SOL     OW87131  14.604  11.890  13.080
28431SOL    HW187132  14.606  11.985  13.093
28431SOL    HW287133  14.685  11.870  13.033
28432SOL     OW87134   1.384   7.442   7.948
28432SOL    HW187135   1.470   7.402   7.958
28432SOL    HW287136   1.339   7.385   7.886
28433SOL     OW87137   6.915   4.694   1.670
28433SOL    HW187138   6.982   4.642   1.627
28433SOL    HW287139   6.858   4.630   1.713
28434SOL     OW87140   3.168  14.077   7.425
28434SOL    HW187141   3.261  14.057   7.410
28434SOL    HW287142   3.154  14.056   7.517
28435SOL     OW87143   1.488  13.615  12.763
28435SOL    HW187144   1.408  13.666  12.777
28435SOL    HW287145   1.462  13.524  12.777
28436SOL     OW87146   1.108   6.219  10.923
28436SOL    HW187147   1.197   6.248  10.944
28436SOL    HW287148   1.079   6.171  11.000
28437SOL     OW87149  14.017  11.596   9.214
28437SOL    HW187150  14.096  11.621   9.166
28437SOL    HW287151  13.974  11.679   9.235
28438SOL     OW87152   0.776  10.413   9.584
28438SOL    HW187153   0.800  10.321   9.581
28438SOL    HW287154   0.810  10.449   9.502
28439SOL     OW87155   5.755   5.768   4.803
28439SOL    HW187156   5.683   5.733   4.856
28439SOL    HW287157   5.823   5.791   4.866
28440SOL     OW87158  11.444   3.457  14.820
28440SOL    HW187159  11.383   3.519  14.861
28440SOL    HW287160  11.529   3.501  14.825
28441SOL     OW87161  10.840   4.310   9.101
28441SOL    HW187162  10.848   4.220   9.134
28441SOL    HW287163  10.747   4.320   9.081
28442SOL     OW87164   7.169   2.900   3.128
28442SOL    HW187165   7.114   2.946   3.065
28442SOL    HW287166   7.206   2.969   3.183
28443SOL     OW87167  13.335   2.890   1.738
28443SOL    HW187168  13.346   2.959   1.804
28443SOL    HW287169  13.398   2.822   1.763
28444SOL     OW87170   9.030   5.123  12.619
28444SOL    HW187171   9.112   5.074  12.626
28444SOL    HW287172   9.056   5.215  12.628
28445SOL     OW87173   7.711   5.137   3.128
28445SOL    HW187174   7.751   5.182   3.202
28445SOL    HW287175   7.765   5.059   3.115
28446SOL     OW87176  14.843   4.624   9.122
28446SOL    HW187177   0.054   4.591   9.143
28446SOL    HW287178  14.801   4.552   9.075
28447SOL     OW87179   2.229   4.400   8.058
28447SOL    HW187180   2.274   4.329   8.013
28447SOL    HW287181   2.144   4.406   8.015
28448SOL     OW87182   5.519   0.891   1.704
28448SOL    HW187183   5.588   0.825   1.714
28448SOL    HW287184   5.566   0.975   1.709
28449SOL     OW87185   7.823   3.469   9.412
28449SOL    HW187186   7.780   3.415   9.345
28449SOL    HW287187   7.909   3.488   9.377
28450SOL     OW87188   3.920  14.717  12.023
28450SOL    HW187189   3.840  14.673  11.996
28450SOL    HW287190   3.989  14.652  12.013
28451SOL     OW87191   0.235   6.459   0.505
28451SOL    HW187192   0.169   6.520   0.472
28451SOL    HW287193   0.262   6.496   0.589
28452SOL     OW87194   0.715   2.125   5.695
28452SOL    HW187195   0.739   2.199   5.751
28452SOL    HW287196   0.792   2.112   5.639
28453SOL     OW87197  12.995   3.921   2.065
28453SOL    HW187198  12.945   3.996   2.098
28453SOL    HW287199  13.011   3.942   1.973
28454SOL     OW87200   6.347   3.066  12.163
28454SOL    HW187201   6.271   3.049  12.107
28454SOL    HW287202   6.405   2.991  12.147
28455SOL     OW87203   9.928   2.216   7.213
28455SOL    HW187204   9.908   2.132   7.254
28455SOL    HW287205   9.845   2.265   7.216
28456SOL     OW87206   0.595  12.953   8.456
28456SOL    HW187207   0.619  12.863   8.438
28456SOL    HW287208   0.678  12.999   8.463
28457SOL     OW87209  12.954  10.462   7.142
28457SOL    HW187210  12.946  10.399   7.213
28457SOL    HW287211  12.975  10.545   7.186
28458SOL     OW87212   7.902  13.623   2.128
28458SOL    HW187213   7.868  13.642   2.215
28458SOL    HW287214   7.907  13.709   2.085
28459SOL     OW87215   8.887  13.043   3.997
28459SOL    HW187216   8.933  12.966   4.031
28459SOL    HW287217   8.891  13.106   4.069
28460SOL     OW87218  14.205  12.827   4.185
28460SOL    HW187219  14.173  12.844   4.096
28460SOL    HW287220  14.297  12.856   4.183
28461SOL     OW87221  12.711  10.810  11.025
28461SOL    HW187222  12.794  10.785  11.065
28461SOL    HW287223  12.704  10.904  11.041
28462SOL     OW87224  10.554  12.990   5.892
28462SOL    HW187225  10.535  12.908   5.938
28462SOL    HW287226  10.645  12.981   5.864
28463SOL     OW87227   8.535   3.945   7.892
28463SOL    HW187228   8.553   3.888   7.818
28463SOL    HW287229   8.458   3.906   7.934
28464SOL     OW87230   0.323   9.873  12.457
28464SOL    HW187231   0.312   9.836  12.369
28464SOL    HW287232   0.411   9.848  12.483
28465SOL     OW87233  11.399  14.573  14.330
28465SOL    HW187234  11.452  14.573  14.409
28465SOL    HW287235  11.351  14.655  14.333
28466SOL     OW87236   9.489   2.656   8.072
28466SOL    HW187237   9.537   2.672   7.991
28466SOL    HW287238   9.445   2.572   8.057
28467SOL     OW87239   6.255  10.974   9.629
28467SOL    HW187240   6.289  10.907   9.688
28467SOL    HW287241   6.273  10.940   9.541
28468SOL     OW87242   7.292  10.261   3.916
28468SOL    HW187243   7.310  10.345   3.872
28468SOL    HW287244   7.347  10.198   3.869
28469SOL     OW87245   2.376   5.440   8.430
28469SOL    HW187246   2.409   5.528   8.411
28469SOL    HW287247   2.332   5.449   8.514
28470SOL     OW87248  13.163  12.319  11.543
28470SOL    HW187249  13.226  12.369  11.492
28470SOL    HW287250  13.092  12.380  11.560
28471SOL     OW87251   1.507   9.982   0.554
28471SOL    HW187252   1.499  10.060   0.499
28471SOL    HW287253   1.533  10.016   0.640
28472SOL     OW87254   6.247  14.210   3.877
28472SOL    HW187255   6.286  14.149   3.814
28472SOL    HW287256   6.297  14.199   3.957
28473SOL     OW87257  13.509   7.686   7.865
28473SOL    HW187258  13.531   7.599   7.900
28473SOL    HW287259  13.497   7.671   7.771
28474SOL     OW87260   3.790   1.422  14.090
28474SOL    HW187261   3.787   1.506  14.136
28474SOL    HW287262   3.711   1.422  14.036
28475SOL     OW87263  10.225   8.612   0.167
28475SOL    HW187264  10.240   8.541   0.229
28475SOL    HW287265  10.285   8.594   0.094
28476SOL     OW87266  14.437   0.098   4.063
28476SOL    HW187267  14.510   0.159   4.070
28476SOL    HW287268  14.397   0.099   4.150
28477SOL     OW87269  12.513   1.786  14.760
28477SOL    HW187270  12.449   1.788  14.831
28477SOL    HW287271  12.494   1.706  14.712
28478SOL     OW87272  13.811  12.697   8.456
28478SOL    HW187273  13.752  12.623   8.438
28478SOL    HW287274  13.899  12.661   8.446
28479SOL     OW87275   9.148  14.434   2.129
28479SOL    HW187276   9.234  14.444   2.169
28479SOL    HW287277   9.166  14.401   2.041
28480SOL     OW87278  13.476   7.101   4.213
28480SOL    HW187279  13.511   7.017   4.183
28480SOL    HW287280  13.444   7.144   4.134
28481SOL     OW87281   7.798   8.601   0.135
28481SOL    HW187282   7.875   8.565   0.089
28481SOL    HW287283   7.779   8.683   0.088
28482SOL     OW87284   8.094   4.477   0.753
28482SOL    HW187285   8.166   4.534   0.726
28482SOL    HW287286   8.069   4.510   0.839
28483SOL     OW87287   7.163  12.885   5.446
28483SOL    HW187288   7.082  12.923   5.413
28483SOL    HW287289   7.231  12.948   5.421
28484SOL     OW87290  12.965   1.690   9.101
28484SOL    HW187291  13.054   1.656   9.108
28484SOL    HW287292  12.976   1.781   9.073
28485SOL     OW87293   4.474  12.679   6.383
28485SOL    HW187294   4.461  12.717   6.470
28485SOL    HW287295   4.538  12.610   6.397
28486SOL     OW87296   8.433   4.158  10.116
28486SOL    HW187297   8.362   4.187  10.172
28486SOL    HW287298   8.407   4.185  10.028
28487SOL     OW87299  10.750   9.714  14.463
28487SOL    HW187300  10.657   9.714  14.487
28487SOL    HW287301  10.763   9.795  14.414
28488SOL     OW87302  14.074   9.627  10.134
28488SOL    HW187303  14.081   9.531  10.130
28488SOL    HW287304  14.083   9.656  10.044
28489SOL     OW87305  14.371  10.346   9.341
28489SOL    HW187306  14.353  10.438   9.321
28489SOL    HW287307  14.460  10.347   9.376
28490SOL     OW87308   9.492   2.931  13.640
28490SOL    HW187309   9.446   2.924  13.723
28490SOL    HW287310   9.423   2.943  13.575
28491SOL     OW87311  12.922  14.555   0.497
28491SOL    HW187312  12.967  14.489   0.445
28491SOL    HW287313  12.949  14.638   0.459
28492SOL     OW87314  13.722  13.469  11.162
28492SOL    HW187315  13.690  13.406  11.227
28492SOL    HW287316  13.653  13.536  11.159
28493SOL     OW87317   1.218   2.384  12.598
28493SOL    HW187318   1.133   2.418  12.569
28493SOL    HW287319   1.231   2.305  12.545
28494SOL     OW87320  10.581   6.515   6.949
28494SOL    HW187321  10.667   6.492   6.986
28494SOL    HW287322  10.523   6.445   6.979
28495SOL     OW87323   5.463  11.199  11.990
28495SOL    HW187324   5.406  11.275  11.989
28495SOL    HW287325   5.550  11.233  11.968
28496SOL     OW87326  12.887   9.972   1.262
28496SOL    HW187327  12.853   9.911   1.327
28496SOL    HW287328  12.918  10.047   1.314
28497SOL     OW87329   4.189   7.822  14.352
28497SOL    HW187330   4.275   7.858  14.328
28497SOL    HW287331   4.131   7.898  14.356
28498SOL     OW87332   8.360   7.316  12.263
28498SOL    HW187333   8.387   7.319  12.171
28498SOL    HW287334   8.268   7.342  12.262
28499SOL     OW87335   4.892   7.187   4.348
28499SOL    HW187336   4.850   7.217   4.429
28499SOL    HW287337   4.860   7.097   4.336
28500SOL     OW87338  11.952   1.740   5.912
28500SOL    HW187339  12.023   1.720   5.850
28500SOL    HW287340  11.976   1.693   5.991
28501SOL     OW87341   3.761   3.791  14.843
28501SOL    HW187342   3.754   3.886  14.842
28501SOL    HW287343   3.849   3.773   0.000
28502SOL     OW87344  14.663   1.623   9.364
28502SOL    HW187345  14.722   1.693   9.336
28502SOL    HW287346  14.615   1.661   9.438
28503SOL     OW87347   8.183   6.152   6.665
28503SOL    HW187348   8.200   6.135   6.758
28503SOL    HW287349   8.107   6.210   6.665
28504SOL     OW87350   6.712   3.063   0.417
28504SOL    HW187351   6.751   2.986   0.375
28504SOL    HW287352   6.779   3.092   0.479
28505SOL     OW87353  10.239   0.156   9.339
28505SOL    HW187354  10.155   0.116   9.317
28505SOL    HW287355  10.216   0.242   9.375
28506SOL     OW87356  11.672  14.764   0.948
28506SOL    HW187357  11.618  14.786   1.023
28506SOL    HW287358  11.734  14.837   0.941
28507SOL     OW87359   9.621   2.617   0.795
28507SOL    HW187360   9.531   2.607   0.825
28507SOL    HW287361   9.648   2.529   0.770
28508SOL     OW87362   0.533   5.211  13.590
28508SOL    HW187363   0.618   5.195  13.632
28508SOL    HW287364   0.489   5.273  13.648
28509SOL     OW87365  12.958  14.460   1.656
28509SOL    HW187366  12.928  14.550   1.669
28509SOL    HW287367  13.045  14.457   1.695
28510SOL     OW87368  12.650  11.851   0.907
28510SOL    HW187369  12.587  11.911   0.946
28510SOL    HW287370  12.599  11.774   0.884
28511SOL     OW87371   2.242   7.234   4.980
28511SOL    HW187372   2.302   7.251   4.908
28511SOL    HW287373   2.183   7.309   4.981
28512SOL     OW87374   0.982   8.746   5.750
28512SOL    HW187375   1.038   8.672   5.726
28512SOL    HW287376   0.953   8.725   5.839
28513SOL     OW87377   2.835   1.557  10.096
28513SOL    HW187378   2.897   1.524  10.030
28513SOL    HW287379   2.844   1.496  10.170
28514SOL     OW87380   2.069  12.815   2.334
28514SOL    HW187381   2.066  12.740   2.393
28514SOL    HW287382   2.063  12.777   2.247
28515SOL     OW87383   4.837   3.347   3.758
28515SOL    HW187384   4.907   3.285   3.741
28515SOL    HW287385   4.797   3.317   3.840
28516SOL     OW87386   8.626   7.225   8.279
28516SOL    HW187387   8.632   7.234   8.183
28516SOL    HW287388   8.574   7.300   8.307
28517SOL     OW87389   0.205  14.114  10.457
28517SOL    HW187390   0.112  14.101  10.440
28517SOL    HW287391   0.228  14.191  10.405
28518SOL     OW87392   2.803   4.807   5.636
28518SOL    HW187393   2.762   4.725   5.662
28518SOL    HW287394   2.748   4.875   5.677
28519SOL     OW87395   1.929   5.133  13.183
28519SOL    HW187396   1.971   5.048  13.171
28519SOL    HW287397   1.876   5.123  13.263
28520SOL     OW87398  12.086   9.065   2.181
28520SOL    HW187399  12.040   9.134   2.229
28520SOL    HW287400  12.020   9.031   2.120
28521SOL     OW87401  14.860   4.341   0.132
28521SOL    HW187402  14.795   4.404   0.103
28521SOL    HW287403  14.835   4.259   0.089
28522SOL     OW87404   4.716   5.082   4.641
28522SOL    HW187405   4.767   5.133   4.704
28522SOL    HW287406   4.625   5.091   4.670
28523SOL     OW87407   8.968  11.627   7.940
28523SOL    HW187408   8.902  11.669   7.884
28523SOL    HW287409   8.918  11.564   7.992
28524SOL     OW87410   7.419  13.999   9.928
28524SOL    HW187411   7.341  14.055   9.931
28524SOL    HW287412   7.430  13.969  10.019
28525SOL     OW87413  11.213   7.826   3.590
28525SOL    HW187414  11.306   7.826   3.566
28525SOL    HW287415  11.203   7.753   3.650
28526SOL     OW87416  13.765   0.839  13.020
28526SOL    HW187417  13.717   0.904  12.967
28526SOL    HW287418  13.698   0.776  13.046
28527SOL     OW87419   3.729  12.074  13.110
28527SOL    HW187420   3.817  12.038  13.124
28527SOL    HW287421   3.719  12.143  13.175
28528SOL     OW87422   0.002  11.983   3.324
28528SOL    HW187423  14.875  11.986   3.420
28528SOL    HW287424  14.794  12.018   3.296
28529SOL     OW87425   8.470  14.525   6.052
28529SOL    HW187426   8.511  14.463   6.111
28529SOL    HW287427   8.512  14.609   6.072
28530SOL     OW87428   3.377  10.667   9.773
28530SOL    HW187429   3.405  10.670   9.865
28530SOL    HW287430   3.429  10.597   9.734
28531SOL     OW87431   5.351   2.509   2.394
28531SOL    HW187432   5.431   2.561   2.409
28531SOL    HW287433   5.287   2.545   2.455
28532SOL     OW87434   6.427   7.864   0.676
28532SOL    HW187435   6.408   7.922   0.751
28532SOL    HW287436   6.495   7.805   0.708
28533SOL     OW87437  11.870   6.397   6.986
28533SOL    HW187438  11.937   6.354   7.039
28533SOL    HW287439  11.793   6.341   6.994
28534SOL     OW87440  11.983   8.667   8.634
28534SOL    HW187441  11.966   8.595   8.694
28534SOL    HW287442  11.931   8.647   8.557
28535SOL     OW87443   7.415   9.396  11.248
28535SOL    HW187444   7.482   9.412  11.315
28535SOL    HW287445   7.382   9.309  11.267
28536SOL     OW87446   0.567   6.006   1.791
28536SOL    HW187447   0.662   6.016   1.780
28536SOL    HW287448   0.558   5.962   1.876
28537SOL     OW87449  14.316  11.575  13.827
28537SOL    HW187450  14.286  11.566  13.736
28537SOL    HW287451  14.362  11.658  13.829
28538SOL     OW87452   2.554  14.189   4.624
28538SOL    HW187453   2.584  14.214   4.537
28538SOL    HW287454   2.631  14.149   4.665
28539SOL     OW87455   5.113  11.101   5.189
28539SOL    HW187456   5.137  11.016   5.154
28539SOL    HW287457   5.158  11.164   5.133
28540SOL     OW87458   7.121   9.681  14.045
28540SOL    HW187459   7.184   9.634  14.098
28540SOL    HW287460   7.148   9.664  13.954
28541SOL     OW87461   8.110   1.805   8.511
28541SOL    HW187462   8.174   1.757   8.460
28541SOL    HW287463   8.162   1.863   8.567
28542SOL     OW87464   8.664  11.087   6.021
28542SOL    HW187465   8.569  11.079   6.015
28542SOL    HW287466   8.695  10.997   6.034
28543SOL     OW87467  14.684   1.954   3.894
28543SOL    HW187468  14.735   2.035   3.905
28543SOL    HW287469  14.709   1.922   3.808
28544SOL     OW87470   0.933   8.491   4.879
28544SOL    HW187471   0.854   8.480   4.827
28544SOL    HW287472   0.902   8.502   4.969
28545SOL     OW87473   0.889  12.622   2.564
28545SOL    HW187474   0.843  12.632   2.480
28545SOL    HW287475   0.884  12.528   2.583
28546SOL     OW87476   2.313  11.929  13.096
28546SOL    HW187477   2.390  11.893  13.138
28546SOL    HW287478   2.308  11.883  13.012
28547SOL     OW87479   0.547   9.685   4.511
28547SOL    HW187480   0.578   9.655   4.425
28547SOL    HW287481   0.557   9.780   4.508
28548SOL     OW87482  11.685  12.129   7.088
28548SOL    HW187483  11.719  12.055   7.038
28548SOL    HW287484  11.619  12.168   7.031
28549SOL     OW87485  11.046  11.624   5.329
28549SOL    HW187486  11.138  11.638   5.352
28549SOL    HW287487  11.000  11.626   5.413
28550SOL     OW87488   1.432  12.018   9.138
28550SOL    HW187489   1.400  12.104   9.164
28550SOL    HW287490   1.360  11.979   9.089
28551SOL     OW87491  13.386  13.137   9.680
28551SOL    HW187492  13.433  13.181   9.751
28551SOL    HW287493  13.384  13.200   9.609
28552SOL     OW87494  11.987   6.665  13.241
28552SOL    HW187495  11.919   6.598  13.241
28552SOL    HW287496  12.061   6.624  13.198
28553SOL     OW87497   9.722  14.858   3.903
28553SOL    HW187498   9.711   0.016   3.991
28553SOL    HW287499   9.640  14.813   3.884
28554SOL     OW87500   8.260  13.016   4.172
28554SOL    HW187501   8.174  12.988   4.142
28554SOL    HW287502   8.296  13.067   4.100
28555SOL     OW87503   5.848   1.703   7.598
28555SOL    HW187504   5.793   1.677   7.524
28555SOL    HW287505   5.914   1.761   7.559
28556SOL     OW87506   6.942   2.920   5.820
28556SOL    HW187507   6.973   2.924   5.910
28556SOL    HW287508   6.929   3.011   5.794
28557SOL     OW87509   8.266   3.204  11.136
28557SOL    HW187510   8.342   3.218  11.192
28557SOL    HW287511   8.213   3.140  11.183
28558SOL     OW87512   3.151  12.348  12.291
28558SOL    HW187513   3.124  12.408  12.222
28558SOL    HW287514   3.174  12.405  12.365
28559SOL     OW87515   7.603   0.491  12.050
28559SOL    HW187516   7.643   0.497  12.137
28559SOL    HW287517   7.676   0.468  11.992
28560SOL     OW87518   8.134   8.436   6.364
28560SOL    HW187519   8.098   8.350   6.339
28560SOL    HW287520   8.115   8.493   6.290
28561SOL     OW87521   2.521   9.203  11.844
28561SOL    HW187522   2.598   9.224  11.898
28561SOL    HW287523   2.463   9.154  11.903
28562SOL     OW87524   9.225  11.060   8.016
28562SOL    HW187525   9.290  11.131   8.009
28562SOL    HW287526   9.232  11.031   8.107
28563SOL     OW87527   7.656   5.620  13.918
28563SOL    HW187528   7.572   5.586  13.949
28563SOL    HW287529   7.632   5.684  13.850
28564SOL     OW87530   2.360  14.525  11.117
28564SOL    HW187531   2.447  14.521  11.157
28564SOL    HW287532   2.368  14.591  11.048
28565SOL     OW87533   3.020  10.620  11.270
28565SOL    HW187534   3.070  10.593  11.192
28565SOL    HW287535   2.952  10.678  11.236
28566SOL     OW87536   5.678   0.067   1.258
28566SOL    HW187537   5.668   0.161   1.241
28566SOL    HW287538   5.772   0.051   1.250
28567SOL     OW87539  13.579   2.114   0.755
28567SOL    HW187540  13.521   2.101   0.680
28567SOL    HW287541  13.651   2.168   0.721
28568SOL     OW87542   1.887  12.120   5.160
28568SOL    HW187543   1.938  12.201   5.160
28568SOL    HW287544   1.825  12.131   5.088
28569SOL     OW87545   0.286  14.719  13.581
28569SOL    HW187546   0.345  14.734  13.508
28569SOL    HW287547   0.342  14.724  13.659
28570SOL     OW87548  11.656   2.811   6.138
28570SOL    HW187549  11.602   2.865   6.196
28570SOL    HW287550  11.592   2.759   6.088
28571SOL     OW87551   3.793   5.101  12.905
28571SOL    HW187552   3.826   5.164  12.969
28571SOL    HW287553   3.708   5.136  12.878
28572SOL     OW87554   1.242   2.918   2.405
28572SOL    HW187555   1.193   2.849   2.451
28572SOL    HW287556   1.306   2.948   2.469
28573SOL     OW87557   5.045   2.106   0.067
28573SOL    HW187558   5.007   2.039   0.123
28573SOL    HW287559   5.051   2.065  14.857
28574SOL     OW87560  13.785   5.264  12.248
28574SOL    HW187561  13.795   5.220  12.164
28574SOL    HW287562  13.755   5.196  12.308
28575SOL     OW87563  13.419   5.895   3.787
28575SOL    HW187564  13.391   5.973   3.739
28575SOL    HW287565  13.338   5.854   3.817
28576SOL     OW87566   8.490   3.210  11.299
28576SOL    HW187567   8.441   3.129  11.315
28576SOL    HW287568   8.581   3.183  11.291
28577SOL     OW87569   3.095   5.536   2.030
28577SOL    HW187570   3.009   5.499   2.047
28577SOL    HW287571   3.086   5.581   1.947
28578SOL     OW87572   9.249   5.130   9.304
28578SOL    HW187573   9.269   5.112   9.396
28578SOL    HW287574   9.256   5.045   9.261
28579SOL     OW87575   3.655   3.811   5.512
28579SOL    HW187576   3.635   3.723   5.543
28579SOL    HW287577   3.722   3.799   5.444
28580SOL     OW87578  12.992   8.088  14.384
28580SOL    HW187579  12.919   8.043  14.427
28580SOL    HW287580  13.041   8.128  14.455
28581SOL     OW87581  11.719   6.017  13.335
28581SOL    HW187582  11.716   6.112  13.325
28581SOL    HW287583  11.654   5.984  13.272
28582SOL     OW87584   1.036   2.912   4.856
28582SOL    HW187585   1.122   2.900   4.897
28582SOL    HW287586   1.003   2.994   4.894
28583SOL     OW87587   3.898   6.796   4.521
28583SOL    HW187588   3.955   6.843   4.582
28583SOL    HW287589   3.915   6.838   4.436
28584SOL     OW87590   7.924   8.864   4.300
28584SOL    HW187591   7.884   8.799   4.242
28584SOL    HW287592   7.926   8.944   4.247
28585SOL     OW87593   7.129  11.328   8.030
28585SOL    HW187594   7.109  11.403   7.974
28585SOL    HW287595   7.155  11.259   7.968
28586SOL     OW87596   2.923   5.116   6.314
28586SOL    HW187597   2.929   5.139   6.407
28586SOL    HW287598   3.013   5.099   6.288
28587SOL     OW87599  10.583  13.567   6.208
28587SOL    HW187600  10.507  13.583   6.264
28587SOL    HW287601  10.658  13.575   6.268
28588SOL     OW87602   1.359  14.427   7.013
28588SOL    HW187603   1.266  14.436   7.035
28588SOL    HW287604   1.375  14.333   7.012
28589SOL     OW87605   8.166   8.121   0.563
28589SOL    HW187606   8.094   8.075   0.519
28589SOL    HW287607   8.122   8.180   0.625
28590SOL     OW87608   5.829   7.848   9.323
28590SOL    HW187609   5.828   7.867   9.417
28590SOL    HW287610   5.921   7.852   9.299
28591SOL     OW87611  13.563   1.474   1.934
28591SOL    HW187612  13.510   1.496   2.011
28591SOL    HW287613  13.619   1.402   1.963
28592SOL     OW87614  11.441   7.725  12.314
28592SOL    HW187615  11.356   7.750  12.349
28592SOL    HW287616  11.439   7.629  12.311
28593SOL     OW87617   0.817   1.872  13.911
28593SOL    HW187618   0.766   1.794  13.935
28593SOL    HW287619   0.810   1.876  13.816
28594SOL     OW87620   0.598   5.456  12.186
28594SOL    HW187621   0.641   5.478  12.269
28594SOL    HW287622   0.510   5.491  12.194
28595SOL     OW87623   4.711   0.853  11.332
28595SOL    HW187624   4.677   0.768  11.305
28595SOL    HW287625   4.681   0.914  11.264
28596SOL     OW87626  11.645  14.224   8.950
28596SOL    HW187627  11.576  14.273   8.995
28596SOL    HW287628  11.598  14.171   8.885
28597SOL     OW87629   4.391  11.105   4.133
28597SOL    HW187630   4.431  11.144   4.211
28597SOL    HW287631   4.368  11.016   4.160
28598SOL     OW87632   3.341   0.005   7.357
28598SOL    HW187633   3.375   0.062   7.425
28598SOL    HW287634   3.247   0.024   7.353
28599SOL     OW87635   2.739  14.815  12.109
28599SOL    HW187636   2.738  14.754  12.183
28599SOL    HW287637   2.765  14.762  12.034
28600SOL     OW87638   2.625   8.477  10.389
28600SOL    HW187639   2.675   8.482  10.308
28600SOL    HW287640   2.592   8.387  10.392
28601SOL     OW87641  12.677   6.354   9.355
28601SOL    HW187642  12.730   6.433   9.341
28601SOL    HW287643  12.649   6.359   9.446
28602SOL     OW87644  12.772   8.408   8.799
28602SOL    HW187645  12.803   8.351   8.870
28602SOL    HW287646  12.846   8.415   8.739
28603SOL     OW87647  13.396   5.667   5.839
28603SOL    HW187648  13.488   5.660   5.812
28603SOL    HW287649  13.397   5.734   5.908
28604SOL     OW87650   8.995  13.628   7.115
28604SOL    HW187651   8.997  13.720   7.087
28604SOL    HW287652   8.902  13.607   7.120
28605SOL     OW87653   7.205   5.858   2.888
28605SOL    HW187654   7.261   5.867   2.811
28605SOL    HW287655   7.135   5.921   2.874
28606SOL     OW87656   0.352  14.807   7.915
28606SOL    HW187657   0.262  14.810   7.882
28606SOL    HW287658   0.356  14.876   7.980
28607SOL     OW87659   0.509   0.365   5.464
28607SOL    HW187660   0.415   0.382   5.471
28607SOL    HW287661   0.542   0.436   5.409
28608SOL     OW87662   5.306  12.340   2.755
28608SOL    HW187663   5.356  12.346   2.674
28608SOL    HW287664   5.228  12.291   2.731
28609SOL     OW87665   6.336  11.492   9.407
28609SOL    HW187666   6.421  11.448   9.392
28609SOL    HW287667   6.275  11.445   9.350
28610SOL     OW87668   4.789   2.105   9.798
28610SOL    HW187669   4.855   2.103   9.867
28610SOL    HW287670   4.808   2.186   9.750
28611SOL     OW87671   7.507   2.101   5.553
28611SOL    HW187672   7.504   2.165   5.482
28611SOL    HW287673   7.566   2.140   5.617
28612SOL     OW87674   8.456   2.706   1.205
28612SOL    HW187675   8.376   2.657   1.185
28612SOL    HW287676   8.526   2.652   1.170
28613SOL     OW87677  14.514   4.177   2.932
28613SOL    HW187678  14.544   4.239   2.866
28613SOL    HW287679  14.464   4.231   2.994
28614SOL     OW87680   7.046   2.693   8.542
28614SOL    HW187681   6.992   2.651   8.610
28614SOL    HW287682   6.982   2.723   8.477
28615SOL     OW87683   7.904   0.813   8.098
28615SOL    HW187684   7.890   0.900   8.135
28615SOL    HW287685   7.883   0.753   8.170
28616SOL     OW87686  10.969  10.196  11.434
28616SOL    HW187687  11.031  10.169  11.366
28616SOL    HW287688  10.884  10.193  11.391
28617SOL     OW87689  13.186   5.074   3.839
28617SOL    HW187690  13.110   5.114   3.883
28617SOL    HW287691  13.155   5.056   3.750
28618SOL     OW87692  11.495  10.904   5.223
28618SOL    HW187693  11.486  10.969   5.292
28618SOL    HW287694  11.407  10.865   5.215
28619SOL     OW87695  10.856   6.747   7.167
28619SOL    HW187696  10.853   6.836   7.203
28619SOL    HW287697  10.764   6.719   7.166
28620SOL     OW87698  11.062  10.367   2.631
28620SOL    HW187699  11.020  10.345   2.548
28620SOL    HW287700  11.140  10.311   2.634
28621SOL     OW87701  12.470   6.290   3.140
28621SOL    HW187702  12.442   6.259   3.054
28621SOL    HW287703  12.388   6.294   3.191
28622SOL     OW87704   7.408  13.398   7.587
28622SOL    HW187705   7.427  13.308   7.614
28622SOL    HW287706   7.347  13.430   7.653
28623SOL     OW87707  10.777  11.797   7.786
28623SOL    HW187708  10.794  11.772   7.695
28623SOL    HW287709  10.715  11.732   7.817
28624SOL     OW87710   4.902   8.319   5.031
28624SOL    HW187711   4.868   8.279   5.111
28624SOL    HW287712   4.870   8.409   5.034
28625SOL     OW87713   9.111  14.311   1.477
28625SOL    HW187714   9.024  14.275   1.459
28625SOL    HW287715   9.171  14.258   1.424
28626SOL     OW87716   3.822   9.485   7.793
28626SOL    HW187717   3.908   9.468   7.832
28626SOL    HW287718   3.768   9.513   7.867
28627SOL     OW87719   1.089   0.388   1.912
28627SOL    HW187720   1.138   0.310   1.885
28627SOL    HW287721   1.003   0.354   1.937
28628SOL     OW87722  13.141   0.812   5.032
28628SOL    HW187723  13.092   0.891   5.010
28628SOL    HW287724  13.232   0.840   5.032
28629SOL     OW87725   6.787  11.605   0.266
28629SOL    HW187726   6.821  11.601   0.176
28629SOL    HW287727   6.847  11.551   0.317
28630SOL     OW87728  11.768   3.875   3.857
28630SOL    HW187729  11.722   3.822   3.792
28630SOL    HW287730  11.743   3.837   3.941
28631SOL     OW87731   1.450  13.729   2.590
28631SOL    HW187732   1.479  13.641   2.565
28631SOL    HW287733   1.459  13.781   2.510
28632SOL     OW87734   0.664  12.716   1.168
28632SOL    HW187735   0.572  12.736   1.152
28632SOL    HW287736   0.686  12.651   1.102
28633SOL     OW87737  10.307   6.464  14.846
28633SOL    HW187738  10.368   6.491   0.039
28633SOL    HW287739  10.363   6.425  14.779
28634SOL     OW87740   1.932  13.826   7.413
28634SOL    HW187741   1.878  13.775   7.352
28634SOL    HW287742   1.900  13.915   7.404
28635SOL     OW87743  14.858   4.320  13.330
28635SOL    HW187744   0.034   4.267  13.270
28635SOL    HW287745  14.819   4.387  13.274
28636SOL     OW87746   4.089  13.452   4.927
28636SOL    HW187747   4.029  13.403   4.984
28636SOL    HW287748   4.047  13.451   4.841
28637SOL     OW87749   1.437   3.754   2.736
28637SOL    HW187750   1.464   3.764   2.828
28637SOL    HW287751   1.421   3.660   2.727
28638SOL     OW87752   1.404   6.085   4.576
28638SOL    HW187753   1.364   5.999   4.564
28638SOL    HW287754   1.488   6.068   4.619
28639SOL     OW87755   4.899  10.181  14.524
28639SOL    HW187756   4.991  10.189  14.548
28639SOL    HW287757   4.859  10.132  14.597
28640SOL     OW87758   7.636   5.443   7.179
28640SOL    HW187759   7.634   5.352   7.147
28640SOL    HW287760   7.666   5.494   7.104
28641SOL     OW87761  14.028   3.541   2.934
28641SOL    HW187762  14.114   3.502   2.949
28641SOL    HW287763  14.012   3.594   3.012
28642SOL     OW87764   0.099   3.399  11.527
28642SOL    HW187765   0.122   3.468  11.464
28642SOL    HW287766   0.004   3.399  11.529
28643SOL     OW87767   0.643   6.754   4.276
28643SOL    HW187768   0.697   6.831   4.291
28643SOL    HW287769   0.706   6.684   4.259
28644SOL     OW87770   8.633   9.769  14.654
28644SOL    HW187771   8.544   9.803  14.666
28644SOL    HW287772   8.655   9.731  14.739
28645SOL     OW87773   8.770   0.921   5.057
28645SOL    HW187774   8.718   1.001   5.064
28645SOL    HW287775   8.805   0.923   4.967
28646SOL     OW87776  10.176   1.622   2.191
28646SOL    HW187777  10.123   1.632   2.270
28646SOL    HW287778  10.252   1.679   2.206
28647SOL     OW87779   3.462   4.959   7.777
28647SOL    HW187780   3.416   5.028   7.825
28647SOL    HW287781   3.513   4.913   7.843
28648SOL     OW87782   9.331   8.015  10.777
28648SOL    HW187783   9.300   8.008  10.867
28648SOL    HW287784   9.322   7.926  10.742
28649SOL     OW87785   0.677  10.659   1.957
28649SOL    HW187786   0.724  10.632   1.878
28649SOL    HW287787   0.654  10.751   1.942
28650SOL     OW87788   6.280   8.345   2.284
28650SOL    HW187789   6.249   8.412   2.224
28650SOL    HW287790   6.283   8.388   2.370
28651SOL     OW87791  12.737   2.141  11.780
28651SOL    HW187792  12.764   2.152  11.872
28651SOL    HW287793  12.693   2.224  11.759
28652SOL     OW87794  14.579   0.077   8.110
28652SOL    HW187795  14.668   0.047   8.091
28652SOL    HW287796  14.549   0.019   8.181
28653SOL     OW87797   2.029   3.235   4.311
28653SOL    HW187798   2.058   3.198   4.228
28653SOL    HW287799   2.002   3.324   4.290
28654SOL     OW87800   9.594  12.171   5.692
28654SOL    HW187801   9.664  12.191   5.630
28654SOL    HW287802   9.598  12.242   5.756
28655SOL     OW87803   6.393   7.758   6.513
28655SOL    HW187804   6.325   7.749   6.447
28655SOL    HW287805   6.363   7.704   6.586
28656SOL     OW87806   8.204   3.586   0.123
28656SOL    HW187807   8.159   3.508   0.155
28656SOL    HW287808   8.201   3.647   0.196
28657SOL     OW87809   4.312  12.331   6.346
28657SOL    HW187810   4.234  12.279   6.362
28657SOL    HW287811   4.278  12.418   6.324
28658SOL     OW87812   3.476   2.194  12.520
28658SOL    HW187813   3.551   2.247  12.545
28658SOL    HW287814   3.470   2.127  12.589
28659SOL     OW87815   5.054  14.025   7.215
28659SOL    HW187816   4.985  14.081   7.251
28659SOL    HW287817   5.136  14.068   7.240
28660SOL     OW87818   1.207  10.586   3.785
28660SOL    HW187819   1.204  10.676   3.752
28660SOL    HW287820   1.125  10.576   3.834
28661SOL     OW87821   4.907   8.042  12.293
28661SOL    HW187822   4.970   8.025  12.222
28661SOL    HW287823   4.961   8.066  12.368
28662SOL     OW87824   4.651   3.290   2.691
28662SOL    HW187825   4.724   3.234   2.719
28662SOL    HW287826   4.592   3.231   2.645
28663SOL     OW87827  13.739   9.243  14.686
28663SOL    HW187828  13.775   9.329  14.660
28663SOL    HW287829  13.743   9.191  14.606
28664SOL     OW87830   9.837   8.078   1.415
28664SOL    HW187831   9.896   8.094   1.488
28664SOL    HW287832   9.893   8.037   1.348
28665SOL     OW87833   1.244   6.291  13.047
28665SOL    HW187834   1.246   6.286  13.142
28665SOL    HW287835   1.313   6.232  13.018
28666SOL     OW87836   9.026   6.871   9.905
28666SOL    HW187837   9.109   6.882   9.858
28666SOL    HW287838   9.041   6.911   9.991
28667SOL     OW87839   9.325   7.734   7.330
28667SOL    HW187840   9.374   7.664   7.373
28667SOL    HW287841   9.299   7.793   7.400
28668SOL     OW87842   5.531  14.102   3.878
28668SOL    HW187843   5.586  14.158   3.932
28668SOL    HW287844   5.592  14.050   3.826
28669SOL     OW87845   7.334   8.248   2.916
28669SOL    HW187846   7.319   8.200   2.835
28669SOL    HW287847   7.353   8.338   2.888
28670SOL     OW87848   5.655   4.643   3.234
28670SOL    HW187849   5.571   4.638   3.278
28670SOL    HW287850   5.662   4.734   3.205
28671SOL     OW87851   6.174   1.993   1.594
28671SOL    HW187852   6.250   2.036   1.555
28671SOL    HW287853   6.209   1.941   1.666
28672SOL     OW87854   1.376   6.499  13.962
28672SOL    HW187855   1.424   6.531  14.038
28672SOL    HW287856   1.291   6.473  13.996
28673SOL     OW87857   0.096   2.365   4.148
28673SOL    HW187858   0.009   2.404   4.135
28673SOL    HW287859   0.116   2.383   4.240
28674SOL     OW87860   4.470   7.209  11.593
28674SOL    HW187861   4.513   7.218  11.508
28674SOL    HW287862   4.432   7.296  11.610
28675SOL     OW87863   9.819  14.754   3.662
28675SOL    HW187864   9.792  14.796   3.744
28675SOL    HW287865   9.914  14.764   3.659
28676SOL     OW87866   0.453   9.481  12.034
28676SOL    HW187867   0.527   9.453  12.088
28676SOL    HW287868   0.492   9.536  11.966
28677SOL     OW87869   5.870  13.277   0.101
28677SOL    HW187870   5.961  13.261   0.075
28677SOL    HW287871   5.843  13.351   0.047
28678SOL     OW87872   9.528  14.324  10.259
28678SOL    HW187873   9.458  14.387  10.247
28678SOL    HW287874   9.496  14.244  10.217
28679SOL     OW87875  11.514  12.409  12.030
28679SOL    HW187876  11.532  12.389  12.121
28679SOL    HW287877  11.432  12.458  12.032
28680SOL     OW87878  11.307   1.846   5.131
28680SOL    HW187879  11.306   1.807   5.044
28680SOL    HW287880  11.396   1.830   5.163
28681SOL     OW87881  11.614   4.799   8.749
28681SOL    HW187882  11.691   4.743   8.737
28681SOL    HW287883  11.616   4.859   8.674
28682SOL     OW87884   1.304   4.032   5.831
28682SOL    HW187885   1.295   4.038   5.926
28682SOL    HW287886   1.384   4.081   5.811
28683SOL     OW87887   0.965   0.455  12.219
28683SOL    HW187888   1.054   0.489  12.212
28683SOL    HW287889   0.929   0.464  12.130
28684SOL     OW87890   7.285  10.940   4.995
28684SOL    HW187891   7.195  10.973   4.993
28684SOL    HW287892   7.298  10.899   4.910
28685SOL     OW87893  14.375   5.201  12.090
28685SOL    HW187894  14.338   5.287  12.110
28685SOL    HW287895  14.374   5.154  12.173
28686SOL     OW87896   3.328   4.372  14.243
28686SOL    HW187897   3.278   4.375  14.161
28686SOL    HW287898   3.347   4.464  14.263
28687SOL     OW87899   3.938   6.024   8.362
28687SOL    HW187900   3.851   6.046   8.328
28687SOL    HW287901   3.930   5.933   8.390
28688SOL     OW87902   1.112  11.659   7.803
28688SOL    HW187903   1.193  11.633   7.761
28688SOL    HW287904   1.051  11.675   7.731
28689SOL     OW87905  10.272   3.457  12.012
28689SOL    HW187906  10.290   3.427  12.101
28689SOL    HW287907  10.198   3.516  12.022
28690SOL     OW87908   2.517   0.541   6.604
28690SOL    HW187909   2.430   0.503   6.595
28690SOL    HW287910   2.501   0.630   6.634
28691SOL     OW87911   5.706   6.949   0.786
28691SOL    HW187912   5.753   6.867   0.797
28691SOL    HW287913   5.770   7.017   0.808
28692SOL     OW87914   7.710  13.990   3.652
28692SOL    HW187915   7.677  14.072   3.615
28692SOL    HW287916   7.637  13.955   3.703
28693SOL     OW87917  14.833  14.610   5.630
28693SOL    HW187918  14.786  14.547   5.576
28693SOL    HW287919   0.028  14.560   5.669
28694SOL     OW87920   5.095  10.644   1.694
28694SOL    HW187921   5.173  10.686   1.732
28694SOL    HW287922   5.030  10.714   1.691
28695SOL     OW87923   7.943   3.379   2.653
28695SOL    HW187924   7.983   3.382   2.740
28695SOL    HW287925   7.882   3.305   2.657
28696SOL     OW87926   8.807   8.305   1.680
28696SOL    HW187927   8.840   8.330   1.766
28696SOL    HW287928   8.714   8.329   1.681
28697SOL     OW87929  12.214   8.180  13.940
28697SOL    HW187930  12.299   8.156  13.977
28697SOL    HW287931  12.149   8.140  13.998
28698SOL     OW87932  10.107   1.646   8.033
28698SOL    HW187933  10.114   1.570   7.975
28698SOL    HW287934  10.089   1.719   7.974
28699SOL     OW87935   5.526   1.385   1.380
28699SOL    HW187936   5.587   1.426   1.442
28699SOL    HW287937   5.449   1.362   1.433
28700SOL     OW87938   2.086  10.186   7.906
28700SOL    HW187939   2.117  10.107   7.861
28700SOL    HW287940   2.138  10.189   7.986
28701SOL     OW87941   2.396   4.900   3.398
28701SOL    HW187942   2.392   4.978   3.343
28701SOL    HW287943   2.347   4.834   3.350
28702SOL     OW87944   0.797  14.821  12.362
28702SOL    HW187945   0.888  14.796  12.351
28702SOL    HW287946   0.774  14.864  12.279
28703SOL     OW87947   4.879   1.400   1.337
28703SOL    HW187948   4.791   1.366   1.323
28703SOL    HW287949   4.868   1.467   1.405
28704SOL     OW87950  10.525  12.022   4.980
28704SOL    HW187951  10.616  12.033   5.008
28704SOL    HW287952  10.501  12.107   4.942
28705SOL     OW87953  11.779   1.235  12.529
28705SOL    HW187954  11.741   1.150  12.510
28705SOL    HW287955  11.714   1.279  12.584
28706SOL     OW87956   6.931  12.548   1.503
28706SOL    HW187957   6.963  12.549   1.413
28706SOL    HW287958   6.872  12.474   1.507
28707SOL     OW87959  14.826  10.715   4.885
28707SOL    HW187960   0.022  10.686   4.830
28707SOL    HW287961  14.833  10.811   4.885
28708SOL     OW87962   0.384   3.169   4.738
28708SOL    HW187963   0.340   3.157   4.654
28708SOL    HW287964   0.313   3.188   4.800
28709SOL     OW87965   2.553  13.637   8.794
28709SOL    HW187966   2.513  13.631   8.881
28709SOL    HW287967   2.624  13.573   8.796
28710SOL     OW87968  13.669  12.790   7.750
28710SOL    HW187969  13.713  12.861   7.704
28710SOL    HW287970  13.735  12.721   7.757
28711SOL     OW87971  14.538   1.461   6.041
28711SOL    HW187972  14.446   1.487   6.038
28711SOL    HW287973  14.537   1.372   6.077
28712SOL     OW87974  13.249  13.173   6.002
28712SOL    HW187975  13.208  13.114   5.939
28712SOL    HW287976  13.295  13.116   6.063
28713SOL     OW87977   8.503   7.323   8.524
28713SOL    HW187978   8.566   7.350   8.591
28713SOL    HW287979   8.427   7.292   8.574
28714SOL     OW87980   6.144   7.047  13.383
28714SOL    HW187981   6.081   7.117  13.399
28714SOL    HW287982   6.228   7.093  13.377
28715SOL     OW87983   7.456   0.255  11.756
28715SOL    HW187984   7.435   0.256  11.849
28715SOL    HW287985   7.532   0.197  11.748
28716SOL     OW87986  11.539   8.794   0.651
28716SOL    HW187987  11.501   8.873   0.689
28716SOL    HW287988  11.524   8.726   0.716
28717SOL     OW87989   1.851   3.087  10.728
28717SOL    HW187990   1.835   3.054  10.639
28717SOL    HW287991   1.838   3.181  10.721
28718SOL     OW87992   8.861  14.169   1.519
28718SOL    HW187993   8.851  14.125   1.604
28718SOL    HW287994   8.823  14.256   1.532
28719SOL     OW87995  11.642  11.427   8.911
28719SOL    HW187996  11.728  11.468   8.898
28719SOL    HW287997  11.643  11.400   9.003
28720SOL     OW87998   5.729   1.580   3.789
28720SOL    HW187999   5.715   1.492   3.825
28720SOL    HW288000   5.673   1.582   3.711
28721SOL     OW88001  14.605   1.579   1.910
28721SOL    HW188002  14.559   1.624   1.839
28721SOL    HW288003  14.554   1.500   1.926
28722SOL     OW88004  13.898   9.128   0.014
28722SOL    HW188005  13.967   9.191  14.872
28722SOL    HW288006  13.821   9.165  14.847
28723SOL     OW88007  11.233   2.640   4.562
28723SOL    HW188008  11.279   2.721   4.585
28723SOL    HW288009  11.239   2.637   4.466
28724SOL     OW88010   0.835  11.120   6.958
28724SOL    HW188011   0.891  11.176   6.904
28724SOL    HW288012   0.751  11.119   6.912
28725SOL     OW88013   8.013   3.385   7.428
28725SOL    HW188014   8.077   3.384   7.357
28725SOL    HW288015   8.064   3.373   7.508
28726SOL     OW88016   0.088  11.642  13.140
28726SOL    HW188017   0.005  11.601  13.117
28726SOL    HW288018   0.063  11.728  13.174
28727SOL     OW88019  14.209   6.882   6.758
28727SOL    HW188020  14.229   6.821   6.829
28727SOL    HW288021  14.186   6.826   6.684
28728SOL     OW88022   7.254   3.700  14.171
28728SOL    HW188023   7.220   3.711  14.260
28728SOL    HW288024   7.180   3.720  14.114
28729SOL     OW88025   0.112   8.662  11.901
28729SOL    HW188026   0.052   8.647  11.974
28729SOL    HW288027   0.137   8.754  11.908
28730SOL     OW88028   5.940   0.199   9.492
28730SOL    HW188029   6.019   0.246   9.520
28730SOL    HW288030   5.877   0.268   9.471
28731SOL     OW88031   1.685  10.426  14.460
28731SOL    HW188032   1.601  10.467  14.438
28731SOL    HW288033   1.673  10.334  14.436
28732SOL     OW88034  12.452   5.886   8.929
28732SOL    HW188035  12.391   5.826   8.886
28732SOL    HW288036  12.481   5.839   9.007
28733SOL     OW88037  10.009   1.593   2.424
28733SOL    HW188038  10.047   1.654   2.488
28733SOL    HW288039   9.928   1.635   2.396
28734SOL     OW88040  10.624   4.798   6.054
28734SOL    HW188041  10.674   4.797   5.973
28734SOL    HW288042  10.645   4.883   6.094
28735SOL     OW88043   8.720  12.568   1.086
28735SOL    HW188044   8.788  12.508   1.054
28735SOL    HW288045   8.664  12.513   1.140
28736SOL     OW88046  14.034  10.732   9.466
28736SOL    HW188047  14.073  10.656   9.508
28736SOL    HW288048  14.009  10.789   9.538
28737SOL     OW88049  10.674   7.512   2.372
28737SOL    HW188050  10.716   7.566   2.305
28737SOL    HW288051  10.659   7.428   2.330
28738SOL     OW88052   8.147  14.651   9.587
28738SOL    HW188053   8.106  14.577   9.632
28738SOL    HW288054   8.190  14.700   9.656
28739SOL     OW88055   8.258  11.656   8.934
28739SOL    HW188056   8.327  11.688   8.992
28739SOL    HW288057   8.292  11.674   8.846
28740SOL     OW88058   8.066  10.314   4.806
28740SOL    HW188059   8.117  10.253   4.753
28740SOL    HW288060   8.031  10.377   4.744
28741SOL     OW88061   8.974   5.109   8.268
28741SOL    HW188062   8.948   5.150   8.186
28741SOL    HW288063   8.997   5.182   8.326
28742SOL     OW88064   5.775   9.792   6.982
28742SOL    HW188065   5.759   9.753   7.068
28742SOL    HW288066   5.707   9.859   6.973
28743SOL     OW88067  10.110   1.951  13.293
28743SOL    HW188068  10.111   1.960  13.388
28743SOL    HW288069  10.185   2.002  13.263
28744SOL     OW88070   9.095  14.516   5.546
28744SOL    HW188071   9.154  14.579   5.505
28744SOL    HW288072   9.153  14.449   5.583
28745SOL     OW88073   7.240   2.110   5.831
28745SOL    HW188074   7.306   2.171   5.863
28745SOL    HW288075   7.243   2.118   5.736
28746SOL     OW88076   9.508   9.107   1.816
28746SOL    HW188077   9.418   9.096   1.785
28746SOL    HW288078   9.561   9.058   1.753
28747SOL     OW88079   8.921  10.286   3.449
28747SOL    HW188080   8.898  10.198   3.417
28747SOL    HW288081   9.010  10.277   3.483
28748SOL     OW88082   6.057   9.444  11.426
28748SOL    HW188083   6.061   9.490  11.510
28748SOL    HW288084   6.055   9.351  11.449
28749SOL     OW88085  10.827   7.744  13.708
28749SOL    HW188086  10.869   7.807  13.649
28749SOL    HW288087  10.787   7.798  13.776
28750SOL     OW88088   8.375  12.892   4.730
28750SOL    HW188089   8.306  12.865   4.669
28750SOL    HW288090   8.384  12.986   4.715
28751SOL     OW88091  14.203   5.142   9.187
28751SOL    HW188092  14.165   5.059   9.215
28751SOL    HW288093  14.181   5.204   9.257
28752SOL     OW88094   3.804   9.936   2.451
28752SOL    HW188095   3.834   9.850   2.422
28752SOL    HW288096   3.736   9.959   2.387
28753SOL     OW88097  14.637  14.829   3.192
28753SOL    HW188098  14.636  14.871   3.278
28753SOL    HW288099  14.611   0.022   3.131
28754SOL     OW88100  14.212  11.707  11.965
28754SOL    HW188101  14.304  11.682  11.963
28754SOL    HW288102  14.164  11.624  11.957
28755SOL     OW88103  10.351   2.873   7.484
28755SOL    HW188104  10.325   2.780   7.489
28755SOL    HW288105  10.330   2.908   7.571
28756SOL     OW88106  10.548   6.565   7.838
28756SOL    HW188107  10.590   6.586   7.921
28756SOL    HW288108  10.454   6.576   7.854
28757SOL     OW88109   7.478   7.602   0.182
28757SOL    HW188110   7.512   7.621   0.094
28757SOL    HW288111   7.489   7.507   0.191
28758SOL     OW88112  14.713   9.705   2.097
28758SOL    HW188113  14.778   9.645   2.058
28758SOL    HW288114  14.663   9.738   2.023
28759SOL     OW88115   8.537   8.705  14.130
28759SOL    HW188116   8.606   8.718  14.065
28759SOL    HW288117   8.555   8.619  14.166
28760SOL     OW88118  12.916   4.100  12.615
28760SOL    HW188119  12.948   4.030  12.671
28760SOL    HW288120  12.994   4.138  12.576
28761SOL     OW88121   1.328   0.067   2.545
28761SOL    HW188122   1.247   0.117   2.542
28761SOL    HW288123   1.394   0.131   2.573
28762SOL     OW88124   6.773  13.205   4.825
28762SOL    HW188125   6.782  13.239   4.914
28762SOL    HW288126   6.697  13.252   4.790
28763SOL     OW88127   4.991   0.811   7.328
28763SOL    HW188128   4.942   0.889   7.300
28763SOL    HW288129   5.011   0.765   7.247
28764SOL     OW88130   4.991  12.899   5.809
28764SOL    HW188131   5.012  12.979   5.858
28764SOL    HW288132   5.061  12.838   5.832
28765SOL     OW88133   9.140  13.856   2.047
28765SOL    HW188134   9.095  13.853   1.962
28765SOL    HW288135   9.091  13.795   2.102
28766SOL     OW88136   7.602  10.982   0.823
28766SOL    HW188137   7.655  11.054   0.788
28766SOL    HW288138   7.582  11.008   0.913
28767SOL     OW88139   1.247  13.796  13.569
28767SOL    HW188140   1.192  13.755  13.503
28767SOL    HW288141   1.214  13.886  13.575
28768SOL     OW88142  10.161   0.790   4.504
28768SOL    HW188143  10.236   0.849   4.506
28768SOL    HW288144  10.087   0.843   4.533
28769SOL     OW88145   6.329   3.844   5.226
28769SOL    HW188146   6.353   3.932   5.195
28769SOL    HW288147   6.235   3.837   5.208
28770SOL     OW88148   8.288  10.845   3.118
28770SOL    HW188149   8.292  10.821   3.026
28770SOL    HW288150   8.356  10.792   3.160
28771SOL     OW88151   9.735   5.505  12.162
28771SOL    HW188152   9.734   5.421  12.118
28771SOL    HW288153   9.815   5.504  12.215
28772SOL     OW88154  10.511   8.885   0.218
28772SOL    HW188155  10.465   8.819   0.271
28772SOL    HW288156  10.518   8.846   0.132
28773SOL     OW88157  10.257  14.806   1.398
28773SOL    HW188158  10.202  14.743   1.446
28773SOL    HW288159  10.233   0.014   1.435
28774SOL     OW88160   9.064   1.153   5.431
28774SOL    HW188161   9.059   1.064   5.396
28774SOL    HW288162   8.975   1.187   5.425
28775SOL     OW88163   9.465   7.348  14.128
28775SOL    HW188164   9.471   7.255  14.149
28775SOL    HW288165   9.390   7.355  14.069
28776SOL     OW88166   6.982   2.031   5.262
28776SOL    HW188167   7.044   2.063   5.328
28776SOL    HW288168   7.025   1.954   5.225
28777SOL     OW88169  11.007  12.483   7.213
28777SOL    HW188170  11.032  12.427   7.286
28777SOL    HW288171  11.064  12.456   7.141
28778SOL     OW88172   4.657   2.982   0.366
28778SOL    HW188173   4.724   3.034   0.411
28778SOL    HW288174   4.707   2.915   0.318
28779SOL     OW88175   4.095   3.096   0.304
28779SOL    HW188176   4.006   3.121   0.328
28779SOL    HW288177   4.147   3.174   0.321
28780SOL     OW88178   9.871   7.471   7.235
28780SOL    HW188179   9.934   7.404   7.260
28780SOL    HW288180   9.796   7.423   7.201
28781SOL     OW88181   9.180  10.880   9.490
28781SOL    HW188182   9.115  10.824   9.533
28781SOL    HW288183   9.152  10.883   9.398
28782SOL     OW88184   2.221  11.351   6.211
28782SOL    HW188185   2.269  11.396   6.281
28782SOL    HW288186   2.287  11.295   6.170
28783SOL     OW88187  14.418  13.250  10.251
28783SOL    HW188188  14.481  13.304  10.204
28783SOL    HW288189  14.378  13.196  10.183
28784SOL     OW88190  12.119   4.867   4.508
28784SOL    HW188191  12.122   4.919   4.428
28784SOL    HW288192  12.028   4.836   4.513
28785SOL     OW88193  10.830   9.416  11.257
28785SOL    HW188194  10.910   9.372  11.227
28785SOL    HW288195  10.766   9.399  11.188
28786SOL     OW88196   6.473   2.263   5.155
28786SOL    HW188197   6.538   2.236   5.219
28786SOL    HW288198   6.496   2.216   5.075
28787SOL     OW88199   3.165   5.061   4.173
28787SOL    HW188200   3.247   5.055   4.125
28787SOL    HW288201   3.169   5.147   4.216
28788SOL     OW88202   9.089   5.270   1.734
28788SOL    HW188203   9.153   5.220   1.683
28788SOL    HW288204   9.045   5.325   1.669
28789SOL     OW88205   3.981   0.650   5.326
28789SOL    HW188206   3.966   0.568   5.373
28789SOL    HW288207   3.901   0.663   5.275
28790SOL     OW88208   3.487   7.146   2.259
28790SOL    HW188209   3.413   7.098   2.296
28790SOL    HW288210   3.562   7.121   2.314
28791SOL     OW88211   8.533   2.964   1.790
28791SOL    HW188212   8.622   2.990   1.816
28791SOL    HW288213   8.520   2.879   1.833
28792SOL     OW88214   3.784   7.497   8.362
28792SOL    HW188215   3.767   7.591   8.357
28792SOL    HW288216   3.858   7.483   8.303
28793SOL     OW88217   1.996   0.113  12.541
28793SOL    HW188218   1.959   0.097  12.628
28793SOL    HW288219   1.970   0.202  12.519
28794SOL     OW88220  11.323  10.344   9.420
28794SOL    HW188221  11.278  10.417   9.376
28794SOL    HW288222  11.281  10.339   9.506
28795SOL     OW88223  14.102   5.452   6.715
28795SOL    HW188224  14.130   5.541   6.692
28795SOL    HW288225  14.174   5.397   6.683
28796SOL     OW88226   0.050  12.329   5.102
28796SOL    HW188227   0.111  12.287   5.162
28796SOL    HW288228   0.027  12.412   5.145
28797SOL     OW88229   1.973  11.582   4.849
28797SOL    HW188230   1.909  11.639   4.808
28797SOL    HW288231   1.947  11.494   4.823
28798SOL     OW88232  10.032   8.263   2.803
28798SOL    HW188233  10.026   8.195   2.871
28798SOL    HW288234  10.018   8.217   2.721
28799SOL     OW88235   5.081  13.011  10.763
28799SOL    HW188236   5.071  12.942  10.697
28799SOL    HW288237   5.008  13.071  10.745
28800SOL     OW88238  13.052   8.930   8.380
28800SOL    HW188239  12.960   8.916   8.404
28800SOL    HW288240  13.078   8.848   8.338
28801SOL     OW88241   3.154  13.826   3.073
28801SOL    HW188242   3.229  13.885   3.074
28801SOL    HW288243   3.187  13.746   3.033
28802SOL     OW88244   3.017   7.215   8.624
28802SOL    HW188245   3.008   7.155   8.550
28802SOL    HW288246   2.959   7.288   8.604
28803SOL     OW88247   2.487  13.098   0.117
28803SOL    HW188248   2.502  13.106   0.211
28803SOL    HW288249   2.563  13.050   0.084
28804SOL     OW88250   4.729   0.501   6.794
28804SOL    HW188251   4.716   0.422   6.742
28804SOL    HW288252   4.739   0.571   6.730
28805SOL     OW88253   4.204   4.667   6.276
28805SOL    HW188254   4.150   4.631   6.206
28805SOL    HW288255   4.271   4.719   6.231
28806SOL     OW88256   9.949   1.580   5.338
28806SOL    HW188257   9.992   1.665   5.351
28806SOL    HW288258   9.991   1.544   5.260
28807SOL     OW88259   2.809   6.819   4.279
28807SOL    HW188260   2.739   6.880   4.257
28807SOL    HW288261   2.877   6.875   4.319
28808SOL     OW88262  10.427   5.222   9.811
28808SOL    HW188263  10.431   5.307   9.855
28808SOL    HW288264  10.515   5.185   9.823
28809SOL     OW88265   6.303   3.338   4.759
28809SOL    HW188266   6.371   3.350   4.825
28809SOL    HW288267   6.235   3.288   4.804
28810SOL     OW88268   1.646  10.484   8.845
28810SOL    HW188269   1.729  10.438   8.844
28810SOL    HW288270   1.582  10.420   8.814
28811SOL     OW88271   6.723   5.372  14.401
28811SOL    HW188272   6.638   5.413  14.408
28811SOL    HW288273   6.751   5.390  14.311
28812SOL     OW88274   2.739   3.981  10.255
28812SOL    HW188275   2.699   4.067  10.268
28812SOL    HW288276   2.725   3.961  10.162
28813SOL     OW88277  10.053  12.244  14.423
28813SOL    HW188278  10.129  12.278  14.376
28813SOL    HW288279  10.075  12.255  14.516
28814SOL     OW88280   5.666   0.373  14.654
28814SOL    HW188281   5.731   0.316  14.696
28814SOL    HW288282   5.677   0.458  14.697
28815SOL     OW88283   1.041  12.464   8.546
28815SOL    HW188284   1.022  12.509   8.628
28815SOL    HW288285   1.024  12.372   8.565
28816SOL     OW88286   6.045   1.479  13.316
28816SOL    HW188287   6.126   1.440  13.348
28816SOL    HW288288   6.007   1.522  13.393
28817SOL     OW88289   6.143  11.962   8.725
28817SOL    HW188290   6.091  12.042   8.716
28817SOL    HW288291   6.126  11.932   8.814
28818SOL     OW88292   8.936   5.785  13.698
28818SOL    HW188293   9.015   5.743  13.732
28818SOL    HW288294   8.888   5.714  13.655
28819SOL     OW88295   5.582   9.849  14.270
28819SOL    HW188296   5.675   9.847  14.245
28819SOL    HW288297   5.544   9.773  14.227
28820SOL     OW88298   0.483  11.164   5.935
28820SOL    HW188299   0.522  11.242   5.895
28820SOL    HW288300   0.508  11.169   6.027
28821SOL     OW88301   7.490  14.526   9.357
28821SOL    HW188302   7.582  14.513   9.381
28821SOL    HW288303   7.444  14.454   9.399
28822SOL     OW88304   8.288   1.786   4.379
28822SOL    HW188305   8.273   1.881   4.378
28822SOL    HW288306   8.248   1.754   4.298
28823SOL     OW88307   8.753  11.566   2.954
28823SOL    HW188308   8.707  11.604   3.029
28823SOL    HW288309   8.806  11.638   2.920
28824SOL     OW88310   9.147   8.178  11.939
28824SOL    HW188311   9.110   8.249  11.992
28824SOL    HW288312   9.098   8.180  11.857
28825SOL     OW88313   9.891   5.571   0.569
28825SOL    HW188314   9.934   5.523   0.640
28825SOL    HW288315   9.959   5.629   0.535
28826SOL     OW88316   7.768  11.834  14.496
28826SOL    HW188317   7.710  11.759  14.483
28826SOL    HW288318   7.812  11.845  14.412
28827SOL     OW88319   9.959   5.753  11.999
28827SOL    HW188320  10.030   5.814  11.979
28827SOL    HW288321   9.905   5.752  11.921
28828SOL     OW88322   1.982   0.500   9.318
28828SOL    HW188323   1.890   0.474   9.307
28828SOL    HW288324   1.983   0.593   9.294
28829SOL     OW88325  11.693   0.464  13.123
28829SOL    HW188326  11.656   0.548  13.095
28829SOL    HW288327  11.788   0.475  13.112
28830SOL     OW88328  11.321   7.427   3.356
28830SOL    HW188329  11.394   7.376   3.320
28830SOL    HW288330  11.331   7.514   3.317
28831SOL     OW88331  11.492   5.051   5.962
28831SOL    HW188332  11.493   4.989   5.890
28831SOL    HW288333  11.567   5.109   5.945
28832SOL     OW88334   6.784   3.165   9.682
28832SOL    HW188335   6.696   3.155   9.720
28832SOL    HW288336   6.772   3.143   9.590
28833SOL     OW88337   4.885   2.699   5.654
28833SOL    HW188338   4.844   2.784   5.673
28833SOL    HW288339   4.966   2.700   5.706
28834SOL     OW88340   1.808   2.355  14.572
28834SOL    HW188341   1.737   2.402  14.528
28834SOL    HW288342   1.864   2.325  14.500
28835SOL     OW88343   6.149  13.119   5.775
28835SOL    HW188344   6.150  13.069   5.693
28835SOL    HW288345   6.218  13.184   5.763
28836SOL     OW88346  11.403   7.593  14.744
28836SOL    HW188347  11.322   7.541  14.746
28836SOL    HW288348  11.393   7.656  14.815
28837SOL     OW88349   1.550   1.287  11.230
28837SOL    HW188350   1.599   1.307  11.150
28837SOL    HW288351   1.515   1.371  11.258
28838SOL     OW88352   6.232   1.138   1.928
28838SOL    HW188353   6.262   1.123   1.838
28838SOL    HW288354   6.146   1.179   1.918
28839SOL     OW88355  10.708   9.263  10.445
28839SOL    HW188356  10.687   9.248  10.353
28839SOL    HW288357  10.623   9.270  10.488
28840SOL     OW88358  14.445  10.130  11.765
28840SOL    HW188359  14.409  10.153  11.680
28840SOL    HW288360  14.385  10.064  11.800
28841SOL     OW88361  10.935  13.124   1.440
28841SOL    HW188362  10.978  13.064   1.379
28841SOL    HW288363  10.938  13.209   1.396
28842SOL     OW88364  10.015   0.927  10.483
28842SOL    HW188365  10.007   0.987  10.557
28842SOL    HW288366   9.930   0.933  10.438
28843SOL     OW88367  12.315   8.023  13.455
28843SOL    HW188368  12.245   8.076  13.493
28843SOL    HW288369  12.358   8.081  13.393
28844SOL     OW88370   7.584  10.750  13.777
28844SOL    HW188371   7.522  10.677  13.775
28844SOL    HW288372   7.669  10.710  13.756
28845SOL     OW88373   9.537  14.167  13.921
28845SOL    HW188374   9.516  14.166  14.014
28845SOL    HW288375   9.622  14.125  13.915
28846SOL     OW88376   6.544   8.449   9.630
28846SOL    HW188377   6.456   8.416   9.649
28846SOL    HW288378   6.603   8.376   9.651
28847SOL     OW88379  13.673   4.527   9.563
28847SOL    HW188380  13.755   4.544   9.610
28847SOL    HW288381  13.691   4.553   9.473
28848SOL     OW88382   5.265   8.476   7.213
28848SOL    HW188383   5.202   8.406   7.224
28848SOL    HW288384   5.350   8.432   7.209
28849SOL     OW88385   0.140  13.645  12.603
28849SOL    HW188386   0.171  13.622  12.515
28849SOL    HW288387   0.049  13.615  12.605
28850SOL     OW88388   3.409   0.308   0.823
28850SOL    HW188389   3.404   0.313   0.919
28850SOL    HW288390   3.497   0.339   0.803
28851SOL     OW88391   6.599  11.406   7.018
28851SOL    HW188392   6.520  11.355   6.998
28851SOL    HW288393   6.592  11.424   7.112
28852SOL     OW88394   8.476   0.797  11.852
28852SOL    HW188395   8.517   0.798  11.938
28852SOL    HW288396   8.499   0.713  11.814
28853SOL     OW88397  14.292  12.788  14.671
28853SOL    HW188398  14.284  12.719  14.737
28853SOL    HW288399  14.204  12.796  14.634
28854SOL     OW88400  12.611  12.738  13.768
28854SOL    HW188401  12.583  12.705  13.682
28854SOL    HW288402  12.664  12.816  13.748
28855SOL     OW88403   2.259   7.153   0.056
28855SOL    HW188404   2.226   7.234   0.095
28855SOL    HW288405   2.353   7.156   0.070
28856SOL     OW88406   2.717   1.960   7.240
28856SOL    HW188407   2.735   1.866   7.250
28856SOL    HW288408   2.772   1.986   7.165
28857SOL     OW88409  11.482  14.258  11.499
28857SOL    HW188410  11.482  14.226  11.589
28857SOL    HW288411  11.405  14.217  11.459
28858SOL     OW88412   8.145   8.903  10.412
28858SOL    HW188413   8.122   8.994  10.392
28858SOL    HW288414   8.237   8.907  10.435
28859SOL     OW88415   6.579  11.686  12.746
28859SOL    HW188416   6.584  11.693  12.651
28859SOL    HW288417   6.663  11.649  12.772
28860SOL     OW88418   9.291  13.852   4.802
28860SOL    HW188419   9.273  13.937   4.843
28860SOL    HW288420   9.382  13.857   4.773
28861SOL     OW88421   7.823   8.763   1.090
28861SOL    HW188422   7.892   8.733   1.031
28861SOL    HW288423   7.794   8.684   1.135
28862SOL     OW88424   9.566  13.672   8.290
28862SOL    HW188425   9.610  13.749   8.254
28862SOL    HW288426   9.596  13.599   8.235
28863SOL     OW88427   7.931   1.283   0.574
28863SOL    HW188428   7.954   1.334   0.496
28863SOL    HW288429   7.904   1.198   0.540
28864SOL     OW88430  11.015   3.874   0.739
28864SOL    HW188431  11.093   3.926   0.761
28864SOL    HW288432  11.010   3.809   0.810
28865SOL     OW88433  10.183  12.020   7.046
28865SOL    HW188434  10.242  11.990   6.977
28865SOL    HW288435  10.235  12.013   7.127
28866SOL     OW88436   9.472   0.848  10.873
28866SOL    HW188437   9.561   0.858  10.838
28866SOL    HW288438   9.483   0.796  10.952
28867SOL     OW88439   3.799  14.807   1.716
28867SOL    HW188440   3.737  14.795   1.645
28867SOL    HW288441   3.783  14.733   1.775
28868SOL     OW88442   1.319   2.946   1.472
28868SOL    HW188443   1.273   3.012   1.421
28868SOL    HW288444   1.287   2.863   1.439
28869SOL     OW88445   0.891   5.786   7.418
28869SOL    HW188446   0.864   5.718   7.356
28869SOL    HW288447   0.877   5.747   7.504
28870SOL     OW88448   4.275   2.841   8.197
28870SOL    HW188449   4.206   2.816   8.135
28870SOL    HW288450   4.349   2.785   8.174
28871SOL     OW88451   9.189  10.777  14.578
28871SOL    HW188452   9.102  10.789  14.616
28871SOL    HW288453   9.222  10.696  14.617
28872SOL     OW88454   4.333   2.381  13.920
28872SOL    HW188455   4.266   2.431  13.873
28872SOL    HW288456   4.344   2.301  13.868
28873SOL     OW88457  12.404   7.243   2.355
28873SOL    HW188458  12.386   7.220   2.263
28873SOL    HW288459  12.478   7.303   2.350
28874SOL     OW88460   2.702  10.625  14.768
28874SOL    HW188461   2.775  10.563  14.765
28874SOL    HW288462   2.679  10.639  14.676
28875SOL     OW88463  13.583  12.809   6.217
28875SOL    HW188464  13.531  12.747   6.269
28875SOL    HW288465  13.615  12.872   6.282
28876SOL     OW88466   4.867   0.441   6.476
28876SOL    HW188467   4.941   0.402   6.523
28876SOL    HW288468   4.790   0.401   6.517
28877SOL     OW88469   2.843   6.790  14.679
28877SOL    HW188470   2.782   6.765  14.748
28877SOL    HW288471   2.787   6.820  14.607
28878SOL     OW88472   9.828   1.569   4.454
28878SOL    HW188473   9.869   1.533   4.375
28878SOL    HW288474   9.876   1.527   4.526
28879SOL     OW88475   3.851   9.055   5.170
28879SOL    HW188476   3.770   9.102   5.192
28879SOL    HW288477   3.856   9.058   5.075
28880SOL     OW88478   2.398  12.552  13.499
28880SOL    HW188479   2.381  12.488  13.429
28880SOL    HW288480   2.347  12.629  13.473
28881SOL     OW88481   6.094  13.381  13.358
28881SOL    HW188482   6.072  13.345  13.272
28881SOL    HW288483   6.009  13.395  13.401
28882SOL     OW88484   0.917  13.018   8.194
28882SOL    HW188485   0.975  12.944   8.211
28882SOL    HW288486   0.882  13.002   8.106
28883SOL     OW88487  10.684   2.920  13.866
28883SOL    HW188488  10.716   2.838  13.902
28883SOL    HW288489  10.750   2.944  13.800
28884SOL     OW88490   2.611   7.501  11.040
28884SOL    HW188491   2.574   7.495  11.128
28884SOL    HW288492   2.662   7.421  11.030
28885SOL     OW88493   9.517  12.773   7.077
28885SOL    HW188494   9.583  12.760   7.009
28885SOL    HW288495   9.535  12.704   7.141
28886SOL     OW88496  10.376   0.664   7.093
28886SOL    HW188497  10.399   0.572   7.104
28886SOL    HW288498  10.319   0.665   7.017
28887SOL     OW88499   5.632   1.743   7.907
28887SOL    HW188500   5.585   1.771   7.985
28887SOL    HW288501   5.669   1.658   7.930
28888SOL     OW88502  12.935   8.029   9.899
28888SOL    HW188503  12.930   8.094   9.828
28888SOL    HW288504  13.027   8.003   9.900
28889SOL     OW88505   9.715  12.807   8.676
28889SOL    HW188506   9.711  12.819   8.582
28889SOL    HW288507   9.761  12.885   8.708
28890SOL     OW88508  11.055   8.625   5.490
28890SOL    HW188509  11.053   8.683   5.566
28890SOL    HW288510  11.129   8.567   5.506
28891SOL     OW88511   9.919   3.967   8.486
28891SOL    HW188512   9.945   3.952   8.395
28891SOL    HW288513   9.942   3.886   8.531
28892SOL     OW88514   2.732  10.135   5.153
28892SOL    HW188515   2.751  10.194   5.226
28892SOL    HW288516   2.644  10.161   5.124
28893SOL     OW88517   5.911   6.133   2.996
28893SOL    HW188518   5.984   6.192   2.974
28893SOL    HW288519   5.871   6.173   3.073
28894SOL     OW88520   2.975   2.801  11.264
28894SOL    HW188521   3.059   2.792  11.310
28894SOL    HW288522   2.935   2.879  11.304
28895SOL     OW88523   2.205   7.135   9.254
28895SOL    HW188524   2.168   7.217   9.221
28895SOL    HW288525   2.164   7.067   9.200
28896SOL     OW88526   8.868  13.202   0.145
28896SOL    HW188527   8.835  13.269   0.206
28896SOL    HW288528   8.936  13.246   0.095
28897SOL     OW88529   3.006   5.820   2.841
28897SOL    HW188530   3.076   5.869   2.798
28897SOL    HW288531   3.024   5.829   2.934
28898SOL     OW88532  10.872  13.981   2.775
28898SOL    HW188533  10.812  13.925   2.824
28898SOL    HW288534  10.958  13.961   2.812
28899SOL     OW88535   3.807  11.357   8.050
28899SOL    HW188536   3.778  11.443   8.080
28899SOL    HW288537   3.902  11.363   8.047
28900SOL     OW88538   2.997   5.534   4.745
28900SOL    HW188539   2.904   5.526   4.726
28900SOL    HW288540   3.001   5.593   4.820
28901SOL     OW88541   4.438   8.469  13.463
28901SOL    HW188542   4.404   8.447  13.376
28901SOL    HW288543   4.380   8.538  13.495
28902SOL     OW88544   7.299   8.926   2.114
28902SOL    HW188545   7.391   8.946   2.097
28902SOL    HW288546   7.276   8.978   2.191
28903SOL     OW88547   1.042   8.757   7.093
28903SOL    HW188548   1.049   8.846   7.129
28903SOL    HW288549   0.974   8.715   7.147
28904SOL     OW88550   6.732  12.322   9.112
28904SOL    HW188551   6.656  12.284   9.156
28904SOL    HW288552   6.707  12.326   9.019
28905SOL     OW88553  11.635  11.906  13.321
28905SOL    HW188554  11.583  11.913  13.241
28905SOL    HW288555  11.573  11.878  13.388
28906SOL     OW88556   9.634  14.799  10.569
28906SOL    HW188557   9.622  14.716  10.615
28906SOL    HW288558   9.650  14.774  10.478
28907SOL     OW88559  14.475   8.136  14.451
28907SOL    HW188560  14.389   8.171  14.426
28907SOL    HW288561  14.455   8.057  14.501
28908SOL     OW88562   8.144   4.507   7.680
28908SOL    HW188563   8.202   4.526   7.605
28908SOL    HW288564   8.204   4.500   7.755
28909SOL     OW88565  14.808   1.787   9.169
28909SOL    HW188566  14.874   1.781   9.099
28909SOL    HW288567  14.726   1.764   9.126
28910SOL     OW88568  12.694   0.412   5.064
28910SOL    HW188569  12.688   0.359   5.144
28910SOL    HW288570  12.745   0.358   5.004
28911SOL     OW88571   7.670  12.839   2.370
28911SOL    HW188572   7.634  12.767   2.317
28911SOL    HW288573   7.754  12.859   2.330
28912SOL     OW88574   4.942   8.008   8.834
28912SOL    HW188575   4.908   7.926   8.869
28912SOL    HW288576   5.036   7.992   8.821
28913SOL     OW88577   5.946   7.146   0.849
28913SOL    HW188578   6.005   7.202   0.899
28913SOL    HW288579   6.002   7.100   0.787
28914SOL     OW88580  13.060   6.767   7.882
28914SOL    HW188581  13.155   6.759   7.876
28914SOL    HW288582  13.040   6.737   7.971
28915SOL     OW88583   4.640  12.534   0.302
28915SOL    HW188584   4.672  12.608   0.354
28915SOL    HW288585   4.565  12.500   0.352
28916SOL     OW88586   3.252  10.785   3.402
28916SOL    HW188587   3.335  10.833   3.403
28916SOL    HW288588   3.223  10.783   3.493
28917SOL     OW88589   9.940   2.368   0.386
28917SOL    HW188590   9.957   2.309   0.459
28917SOL    HW288591   9.851   2.347   0.358
28918SOL     OW88592  12.245   3.623  11.893
28918SOL    HW188593  12.158   3.643  11.858
28918SOL    HW288594  12.233   3.541  11.941
28919SOL     OW88595  13.801   3.632   6.458
28919SOL    HW188596  13.814   3.592   6.372
28919SOL    HW288597  13.841   3.570   6.519
28920SOL     OW88598   2.522   9.126   2.951
28920SOL    HW188599   2.569   9.209   2.958
28920SOL    HW288600   2.480   9.128   2.865
28921SOL     OW88601   6.822   1.849   3.303
28921SOL    HW188602   6.841   1.811   3.389
28921SOL    HW288603   6.892   1.914   3.291
28922SOL     OW88604  14.086  13.672   2.476
28922SOL    HW188605  14.066  13.706   2.389
28922SOL    HW288606  14.139  13.594   2.460
28923SOL     OW88607  13.880   8.075   9.993
28923SOL    HW188608  13.904   8.050  10.082
28923SOL    HW288609  13.850   7.993   9.952
28924SOL     OW88610   8.828   7.313   3.116
28924SOL    HW188611   8.775   7.393   3.112
28924SOL    HW288612   8.764   7.243   3.133
28925SOL     OW88613   6.560   7.580  11.824
28925SOL    HW188614   6.649   7.592  11.857
28925SOL    HW288615   6.515   7.660  11.848
28926SOL     OW88616  12.776   3.615   2.435
28926SOL    HW188617  12.765   3.521   2.447
28926SOL    HW288618  12.857   3.623   2.385
28927SOL     OW88619   4.619   7.321  11.380
28927SOL    HW188620   4.579   7.406  11.362
28927SOL    HW288621   4.712   7.335  11.362
28928SOL     OW88622   6.065   9.280  14.393
28928SOL    HW188623   6.000   9.298  14.324
28928SOL    HW288624   6.030   9.325  14.470
28929SOL     OW88625   5.814   2.540   1.922
28929SOL    HW188626   5.868   2.500   1.990
28929SOL    HW288627   5.804   2.631   1.951
28930SOL     OW88628   4.199   4.330   9.034
28930SOL    HW188629   4.236   4.416   9.016
28930SOL    HW288630   4.157   4.338   9.119
28931SOL     OW88631   0.035   8.794   7.149
28931SOL    HW188632  14.844   8.743   7.103
28931SOL    HW288633   0.112   8.738   7.149
28932SOL     OW88634  14.155  14.208   4.230
28932SOL    HW188635  14.231  14.149   4.224
28932SOL    HW288636  14.191  14.289   4.265
28933SOL     OW88637   5.992  10.199   2.685
28933SOL    HW188638   5.931  10.234   2.751
28933SOL    HW288639   6.075  10.191   2.731
28934SOL     OW88640   4.464   7.267   2.035
28934SOL    HW188641   4.526   7.323   1.987
28934SOL    HW288642   4.383   7.318   2.035
28935SOL     OW88643   7.452  11.769  12.857
28935SOL    HW188644   7.522  11.756  12.793
28935SOL    HW288645   7.489  11.740  12.940
28936SOL     OW88646   2.043   6.059  12.742
28936SOL    HW188647   2.088   6.021  12.818
28936SOL    HW288648   1.951   6.062  12.768
28937SOL     OW88649  12.856   3.510  10.373
28937SOL    HW188650  12.790   3.546  10.314
28937SOL    HW288651  12.829   3.540  10.460
28938SOL     OW88652   3.773   8.122   0.628
28938SOL    HW188653   3.772   8.046   0.569
28938SOL    HW288654   3.697   8.173   0.602
28939SOL     OW88655   9.010  12.147   0.996
28939SOL    HW188656   8.918  12.147   0.967
28939SOL    HW288657   9.025  12.058   1.028
28940SOL     OW88658   5.596  13.499   3.779
28940SOL    HW188659   5.509  13.537   3.794
28940SOL    HW288660   5.582  13.405   3.788
28941SOL     OW88661   6.553   4.808  14.377
28941SOL    HW188662   6.576   4.900  14.388
28941SOL    HW288663   6.522   4.781  14.464
28942SOL     OW88664  12.578   4.353  10.638
28942SOL    HW188665  12.566   4.425  10.576
28942SOL    HW288666  12.490   4.335  10.671
28943SOL     OW88667   3.691  10.586  10.278
28943SOL    HW188668   3.649  10.672  10.285
28943SOL    HW288669   3.709  10.560  10.368
28944SOL     OW88670  11.258   5.702   1.230
28944SOL    HW188671  11.194   5.666   1.169
28944SOL    HW288672  11.323   5.746   1.174
28945SOL     OW88673  13.439   0.514   4.796
28945SOL    HW188674  13.402   0.497   4.883
28945SOL    HW288675  13.395   0.593   4.766
28946SOL     OW88676   5.246   9.475   1.695
28946SOL    HW188677   5.186   9.532   1.647
28946SOL    HW288678   5.320   9.532   1.716
28947SOL     OW88679  14.778   4.666  11.244
28947SOL    HW188680  14.778   4.761  11.244
28947SOL    HW288681  14.849   4.642  11.305
28948SOL     OW88682   7.565   6.054   7.126
28948SOL    HW188683   7.511   6.044   7.048
28948SOL    HW288684   7.585   5.964   7.153
28949SOL     OW88685   3.681   7.551   4.325
28949SOL    HW188686   3.765   7.597   4.334
28949SOL    HW288687   3.660   7.523   4.415
28950SOL     OW88688  12.006   2.766   7.722
28950SOL    HW188689  11.999   2.696   7.787
28950SOL    HW288690  12.092   2.754   7.682
28951SOL     OW88691   9.073  11.033   8.417
28951SOL    HW188692   9.044  11.089   8.345
28951SOL    HW288693   8.993  10.990   8.448
28952SOL     OW88694  12.594   1.003   6.569
28952SOL    HW188695  12.636   0.918   6.551
28952SOL    HW288696  12.587   1.006   6.664
28953SOL     OW88697  13.259   0.405  11.298
28953SOL    HW188698  13.199   0.433  11.229
28953SOL    HW288699  13.254   0.309  11.297
28954SOL     OW88700   6.635   8.811   6.577
28954SOL    HW188701   6.684   8.885   6.542
28954SOL    HW288702   6.677   8.791   6.660
28955SOL     OW88703   8.696  10.423   6.237
28955SOL    HW188704   8.737  10.506   6.262
28955SOL    HW288705   8.748  10.356   6.281
28956SOL     OW88706  10.024  13.618   9.261
28956SOL    HW188707  10.017  13.659   9.348
28956SOL    HW288708  10.117  13.597   9.253
28957SOL     OW88709   8.592   1.468   4.938
28957SOL    HW188710   8.557   1.442   5.023
28957SOL    HW288711   8.559   1.403   4.877
28958SOL     OW88712   6.763   9.309  14.746
28958SOL    HW188713   6.815   9.254  14.804
28958SOL    HW288714   6.673   9.301  14.780
28959SOL     OW88715   7.545   3.835  11.745
28959SOL    HW188716   7.489   3.890  11.801
28959SOL    HW288717   7.496   3.827  11.663
28960SOL     OW88718   4.835   6.383   0.192
28960SOL    HW188719   4.833   6.336   0.276
28960SOL    HW288720   4.777   6.332   0.135
28961SOL     OW88721  11.707   8.963   6.324
28961SOL    HW188722  11.702   8.910   6.244
28961SOL    HW288723  11.767   9.034   6.302
28962SOL     OW88724   0.871  11.692   2.735
28962SOL    HW188725   0.942  11.665   2.794
28962SOL    HW288726   0.791  11.680   2.787
28963SOL     OW88727   5.012   2.342   8.921
28963SOL    HW188728   5.006   2.389   8.837
28963SOL    HW288729   5.104   2.317   8.927
28964SOL     OW88730   0.512   4.320  10.888
28964SOL    HW188731   0.476   4.382  10.825
28964SOL    HW288732   0.579   4.272  10.839
28965SOL     OW88733   7.220   7.701   6.133
28965SOL    HW188734   7.218   7.704   6.038
28965SOL    HW288735   7.270   7.779   6.159
28966SOL     OW88736  12.755   0.099   5.068
28966SOL    HW188737  12.669   0.118   5.104
28966SOL    HW288738  12.814   0.103   5.143
28967SOL     OW88739  11.699   5.713   2.071
28967SOL    HW188740  11.616   5.716   2.025
28967SOL    HW288741  11.764   5.742   2.007
28968SOL     OW88742   4.275   8.176   4.359
28968SOL    HW188743   4.245   8.266   4.370
28968SOL    HW288744   4.303   8.172   4.267
28969SOL     OW88745   3.370  14.613   2.728
28969SOL    HW188746   3.376  14.649   2.640
28969SOL    HW288747   3.308  14.540   2.720
28970SOL     OW88748  11.546  12.506   3.335
28970SOL    HW188749  11.630  12.473   3.365
28970SOL    HW288750  11.534  12.588   3.382
28971SOL     OW88751   5.338   4.626  10.763
28971SOL    HW188752   5.351   4.712  10.803
28971SOL    HW288753   5.368   4.637  10.673
28972SOL     OW88754   9.236   5.785   9.802
28972SOL    HW188755   9.218   5.778   9.895
28972SOL    HW288756   9.331   5.776   9.795
28973SOL     OW88757   2.745   4.865   1.443
28973SOL    HW188758   2.834   4.897   1.455
28973SOL    HW288759   2.746   4.822   1.358
28974SOL     OW88760   6.437   5.198   0.583
28974SOL    HW188761   6.525   5.202   0.620
28974SOL    HW288762   6.436   5.117   0.531
28975SOL     OW88763  13.712  12.996   3.350
28975SOL    HW188764  13.755  13.022   3.268
28975SOL    HW288765  13.636  13.053   3.356
28976SOL     OW88766   8.223   1.558   2.286
28976SOL    HW188767   8.163   1.484   2.287
28976SOL    HW288768   8.294   1.533   2.346
28977SOL     OW88769  11.312   5.713   2.162
28977SOL    HW188770  11.317   5.663   2.081
28977SOL    HW288771  11.309   5.647   2.232
28978SOL     OW88772   3.222  12.621   9.082
28978SOL    HW188773   3.263  12.536   9.099
28978SOL    HW288774   3.293  12.684   9.094
28979SOL     OW88775   6.966   3.702  13.212
28979SOL    HW188776   6.929   3.781  13.249
28979SOL    HW288777   7.050   3.730  13.174
28980SOL     OW88778   5.867   7.310   5.890
28980SOL    HW188779   5.926   7.337   5.960
28980SOL    HW288780   5.795   7.373   5.893
28981SOL     OW88781   5.371   7.359  14.758
28981SOL    HW188782   5.412   7.283  14.800
28981SOL    HW288783   5.381   7.430  14.821
28982SOL     OW88784   6.588  10.498   9.421
28982SOL    HW188785   6.680  10.485   9.442
28982SOL    HW288786   6.548  10.527   9.503
28983SOL     OW88787   8.916   1.144  11.650
28983SOL    HW188788   8.840   1.178  11.697
28983SOL    HW288789   8.990   1.160  11.708
28984SOL     OW88790  10.581   1.278   9.345
28984SOL    HW188791  10.609   1.349   9.288
28984SOL    HW288792  10.644   1.208   9.330
28985SOL     OW88793   2.095   0.132   3.216
28985SOL    HW188794   2.116   0.196   3.284
28985SOL    HW288795   2.031   0.074   3.257
28986SOL     OW88796  11.512   7.963  14.679
28986SOL    HW188797  11.562   8.027  14.728
28986SOL    HW288798  11.573   7.931  14.612
28987SOL     OW88799   8.611  12.593  11.303
28987SOL    HW188800   8.636  12.524  11.242
28987SOL    HW288801   8.636  12.559  11.389
28988SOL     OW88802   9.735  13.455   8.891
28988SOL    HW188803   9.826  13.460   8.862
28988SOL    HW288804   9.738  13.480   8.983
28989SOL     OW88805  13.946   1.475   8.913
28989SOL    HW188806  13.877   1.409   8.911
28989SOL    HW288807  13.911   1.548   8.862
28990SOL     OW88808  10.399   2.156   6.537
28990SOL    HW188809  10.461   2.118   6.474
28990SOL    HW288810  10.313   2.125   6.507
28991SOL     OW88811   1.036   7.909   6.937
28991SOL    HW188812   1.026   7.974   6.867
28991SOL    HW288813   1.072   7.959   7.010
28992SOL     OW88814  12.957   4.149  13.899
28992SOL    HW188815  12.982   4.238  13.876
28992SOL    HW288816  13.030   4.117  13.952
28993SOL     OW88817   5.520  10.769   4.746
28993SOL    HW188818   5.448  10.720   4.784
28993SOL    HW288819   5.514  10.856   4.786
28994SOL     OW88820  11.352   4.603   1.183
28994SOL    HW188821  11.394   4.673   1.132
28994SOL    HW288822  11.307   4.650   1.254
28995SOL     OW88823   9.151   9.312   4.110
28995SOL    HW188824   9.226   9.255   4.093
28995SOL    HW288825   9.190   9.397   4.129
28996SOL     OW88826   4.070   0.017  12.164
28996SOL    HW188827   4.010   0.086  12.193
28996SOL    HW288828   4.014  14.830  12.119
28997SOL     OW88829   0.752  14.034   8.995
28997SOL    HW188830   0.714  14.102   9.051
28997SOL    HW288831   0.809  13.985   9.054
28998SOL     OW88832   0.500  13.644   2.585
28998SOL    HW188833   0.578  13.601   2.622
28998SOL    HW288834   0.427  13.591   2.616
28999SOL     OW88835   0.247   8.420  14.220
28999SOL    HW188836   0.166   8.463  14.193
28999SOL    HW288837   0.270   8.364  14.146
29000SOL     OW88838   1.891  12.719  13.209
29000SOL    HW188839   1.931  12.633  13.195
29000SOL    HW288840   1.857  12.715  13.298
29001SOL     OW88841  14.014   7.143   2.872
29001SOL    HW188842  14.044   7.171   2.785
29001SOL    HW288843  13.995   7.225   2.917
29002SOL     OW88844  10.979   2.488   2.111
29002SOL    HW188845  10.979   2.392   2.110
29002SOL    HW288846  10.972   2.510   2.204
29003SOL     OW88847   4.216   1.754   1.519
29003SOL    HW188848   4.185   1.665   1.504
29003SOL    HW288849   4.147   1.795   1.571
29004SOL     OW88850  12.235   5.285   6.707
29004SOL    HW188851  12.154   5.307   6.752
29004SOL    HW288852  12.281   5.226   6.766
29005SOL     OW88853  11.909  10.484  10.877
29005SOL    HW188854  11.993  10.447  10.903
29005SOL    HW288855  11.850  10.409  10.871
29006SOL     OW88856  13.322  13.353   9.508
29006SOL    HW188857  13.357  13.413   9.574
29006SOL    HW288858  13.228  13.368   9.509
29007SOL     OW88859   3.460   9.957   0.420
29007SOL    HW188860   3.496   9.870   0.401
29007SOL    HW288861   3.530  10.002   0.467
29008SOL     OW88862  13.626  12.389  12.338
29008SOL    HW188863  13.559  12.454  12.320
29008SOL    HW288864  13.630  12.335  12.259
29009SOL     OW88865   1.665   0.128  11.572
29009SOL    HW188866   1.729   0.068  11.611
29009SOL    HW288867   1.707   0.158  11.491
29010SOL     OW88868   5.148   7.568   3.307
29010SOL    HW188869   5.067   7.603   3.343
29010SOL    HW288870   5.194   7.645   3.274
29011SOL     OW88871   7.648   4.250   5.008
29011SOL    HW188872   7.606   4.172   4.973
29011SOL    HW288873   7.585   4.320   4.992
29012SOL     OW88874   7.714  12.920   8.734
29012SOL    HW188875   7.762  12.842   8.764
29012SOL    HW288876   7.716  12.914   8.639
29013SOL     OW88877   7.848  11.708   6.089
29013SOL    HW188878   7.840  11.637   6.152
29013SOL    HW288879   7.891  11.668   6.014
29014SOL     OW88880  13.507   9.013   6.447
29014SOL    HW188881  13.431   9.065   6.473
29014SOL    HW288882  13.515   8.946   6.515
29015SOL     OW88883   5.366   9.362  10.515
29015SOL    HW188884   5.325   9.276  10.510
29015SOL    HW288885   5.460   9.343  10.522
29016SOL     OW88886   1.252   1.147   2.635
29016SOL    HW188887   1.241   1.146   2.730
29016SOL    HW288888   1.166   1.172   2.601
29017SOL     OW88889   7.944   8.753   5.996
29017SOL    HW188890   7.980   8.761   5.908
29017SOL    HW288891   7.872   8.691   5.987
29018SOL     OW88892  10.619  12.411   9.383
29018SOL    HW188893  10.703  12.404   9.428
29018SOL    HW288894  10.600  12.322   9.353
29019SOL     OW88895  11.352   1.278  10.690
29019SOL    HW188896  11.263   1.248  10.708
29019SOL    HW288897  11.400   1.199  10.666
29020SOL     OW88898   1.123  10.594  14.601
29020SOL    HW188899   1.112  10.567  14.510
29020SOL    HW288900   1.155  10.515  14.646
29021SOL     OW88901  10.755  11.946  11.737
29021SOL    HW188902  10.689  11.988  11.792
29021SOL    HW288903  10.828  11.928  11.796
29022SOL     OW88904   0.573   7.336   2.949
29022SOL    HW188905   0.528   7.253   2.936
29022SOL    HW288906   0.547   7.390   2.875
29023SOL     OW88907  11.197   8.984   7.741
29023SOL    HW188908  11.114   8.947   7.771
29023SOL    HW288909  11.191   8.984   7.646
29024SOL     OW88910   3.519  12.676   2.835
29024SOL    HW188911   3.524  12.673   2.930
29024SOL    HW288912   3.428  12.654   2.814
29025SOL     OW88913   2.021   5.915  11.742
29025SOL    HW188914   2.014   5.993  11.796
29025SOL    HW288915   1.993   5.843  11.799
29026SOL     OW88916   4.660   0.415  14.108
29026SOL    HW188917   4.606   0.448  14.037
29026SOL    HW288918   4.614   0.438  14.188
29027SOL     OW88919  14.553   4.529   0.258
29027SOL    HW188920  14.483   4.465   0.246
29027SOL    HW288921  14.514   4.612   0.232
29028SOL     OW88922   6.804   0.143  11.648
29028SOL    HW188923   6.861   0.102  11.713
29028SOL    HW288924   6.864   0.176  11.581
29029SOL     OW88925  14.245   4.616  11.509
29029SOL    HW188926  14.182   4.548  11.485
29029SOL    HW288927  14.250   4.672  11.432
29030SOL     OW88928   8.636   8.925   8.424
29030SOL    HW188929   8.607   8.986   8.492
29030SOL    HW288930   8.555   8.901   8.378
29031SOL     OW88931   9.237   9.505   2.891
29031SOL    HW188932   9.174   9.538   2.955
29031SOL    HW288933   9.199   9.527   2.806
29032SOL     OW88934  14.121   5.110  13.288
29032SOL    HW188935  14.163   5.048  13.348
29032SOL    HW288936  14.190   5.136  13.228
29033SOL     OW88937   1.338  11.338   0.389
29033SOL    HW188938   1.252  11.330   0.348
29033SOL    HW288939   1.368  11.248   0.399
29034SOL     OW88940   9.001  11.062   4.057
29034SOL    HW188941   8.999  11.127   3.986
29034SOL    HW288942   9.052  11.104   4.126
29035SOL     OW88943   9.262   1.462   6.446
29035SOL    HW188944   9.289   1.553   6.434
29035SOL    HW288945   9.321   1.412   6.390
29036SOL     OW88946   3.864   9.851   3.119
29036SOL    HW188947   3.865   9.845   3.214
29036SOL    HW288948   3.803   9.783   3.091
29037SOL     OW88949   2.846  13.772   9.939
29037SOL    HW188950   2.914  13.793   9.874
29037SOL    HW288951   2.821  13.682   9.919
29038SOL     OW88952   6.860   5.509  11.059
29038SOL    HW188953   6.918   5.455  11.113
29038SOL    HW288954   6.910   5.588  11.040
29039SOL     OW88955   3.472   2.850   0.286
29039SOL    HW188956   3.544   2.907   0.261
29039SOL    HW288957   3.441   2.811   0.204
29040SOL     OW88958   6.396   6.071   4.340
29040SOL    HW188959   6.463   6.003   4.348
29040SOL    HW288960   6.428   6.142   4.395
29041SOL     OW88961   8.265  12.478  12.508
29041SOL    HW188962   8.307  12.481  12.594
29041SOL    HW288963   8.288  12.392  12.473
29042SOL     OW88964   8.470   0.735   0.381
29042SOL    HW188965   8.429   0.652   0.404
29042SOL    HW288966   8.561   0.725   0.410
29043SOL     OW88967   0.074  12.222  13.248
29043SOL    HW188968   0.051  12.288  13.183
29043SOL    HW288969   0.162  12.194  13.224
29044SOL     OW88970   0.890  12.558   7.350
29044SOL    HW188971   0.893  12.653   7.355
29044SOL    HW288972   0.878  12.539   7.257
29045SOL     OW88973  13.839   8.657   9.170
29045SOL    HW188974  13.917   8.692   9.214
29045SOL    HW288975  13.767   8.678   9.229
29046SOL     OW88976   4.720   8.439   1.147
29046SOL    HW188977   4.791   8.444   1.083
29046SOL    HW288978   4.725   8.350   1.181
29047SOL     OW88979  14.692  11.848  11.355
29047SOL    HW188980  14.709  11.888  11.440
29047SOL    HW288981  14.605  11.879  11.330
29048SOL     OW88982   9.611   1.898  10.368
29048SOL    HW188983   9.566   1.981  10.380
29048SOL    HW288984   9.597   1.850  10.449
29049SOL     OW88985   0.892  13.479   7.280
29049SOL    HW188986   0.963  13.507   7.222
29049SOL    HW288987   0.818  13.465   7.221
29050SOL     OW88988  12.611   9.401  12.949
29050SOL    HW188989  12.657   9.461  13.007
29050SOL    HW288990  12.544   9.360  13.004
29051SOL     OW88991   3.604  13.534   4.543
29051SOL    HW188992   3.675  13.494   4.492
29051SOL    HW288993   3.632  13.526   4.634
29052SOL     OW88994   4.872   1.829   8.293
29052SOL    HW188995   4.898   1.894   8.359
29052SOL    HW288996   4.953   1.810   8.246
29053SOL     OW88997  10.016  10.605   9.266
29053SOL    HW188998   9.968  10.551   9.329
29053SOL    HW288999   9.971  10.689   9.266
29054SOL     OW89000  12.566   7.542   7.294
29054SOL    HW189001  12.612   7.561   7.376
29054SOL    HW289002  12.596   7.455   7.269
29055SOL     OW89003  12.784   6.065   4.195
29055SOL    HW189004  12.861   6.093   4.146
29055SOL    HW289005  12.719   6.044   4.129
29056SOL     OW89006   3.280   9.805   8.641
29056SOL    HW189007   3.291   9.715   8.674
29056SOL    HW289008   3.186   9.817   8.635
29057SOL     OW89009   1.072   7.797   9.690
29057SOL    HW189010   1.035   7.766   9.772
29057SOL    HW289011   1.108   7.883   9.710
29058SOL     OW89012   6.239   5.751  10.675
29058SOL    HW189013   6.323   5.712  10.652
29058SOL    HW289014   6.187   5.678  10.708
29059SOL     OW89015   5.788  11.898  11.536
29059SOL    HW189016   5.756  11.953  11.465
29059SOL    HW289017   5.788  11.956  11.613
29060SOL     OW89018  10.485   3.776  14.507
29060SOL    HW189019  10.423   3.828  14.558
29060SOL    HW289020  10.569   3.789  14.550
29061SOL     OW89021   4.629  12.640  12.487
29061SOL    HW189022   4.699  12.585  12.521
29061SOL    HW289023   4.674  12.715  12.449
29062SOL     OW89024   4.302   4.379   9.666
29062SOL    HW189025   4.269   4.469   9.659
29062SOL    HW289026   4.333   4.358   9.578
29063SOL     OW89027  10.235   1.556  10.327
29063SOL    HW189028  10.144   1.540  10.353
29063SOL    HW289029  10.243   1.651  10.324
29064SOL     OW89030   1.049   8.543   4.485
29064SOL    HW189031   1.103   8.547   4.406
29064SOL    HW289032   1.106   8.502   4.551
29065SOL     OW89033   6.803  13.709   7.294
29065SOL    HW189034   6.756  13.693   7.376
29065SOL    HW289035   6.894  13.686   7.312
29066SOL     OW89036   2.461   8.367   0.350
29066SOL    HW189037   2.510   8.405   0.423
29066SOL    HW289038   2.525   8.311   0.305
29067SOL     OW89039   3.131   3.946   4.929
29067SOL    HW189040   3.102   4.029   4.967
29067SOL    HW289041   3.133   3.885   5.003
29068SOL     OW89042   1.023   8.197   4.672
29068SOL    HW189043   1.057   8.172   4.758
29068SOL    HW289044   1.094   8.246   4.632
29069SOL     OW89045  11.161   8.762   3.644
29069SOL    HW189046  11.203   8.848   3.648
29069SOL    HW289047  11.135   8.752   3.553
29070SOL     OW89048   9.174   5.032   9.988
29070SOL    HW189049   9.204   5.072   9.906
29070SOL    HW289050   9.242   4.968  10.009
29071SOL     OW89051  13.500   3.343   7.509
29071SOL    HW189052  13.568   3.402   7.475
29071SOL    HW289053  13.544   3.290   7.575
29072SOL     OW89054  11.890  11.255   9.725
29072SOL    HW189055  11.833  11.179   9.721
29072SOL    HW289056  11.933  11.257   9.639
29073SOL     OW89057   3.099  12.466  11.641
29073SOL    HW189058   3.008  12.493  11.640
29073SOL    HW289059   3.138  12.516  11.714
29074SOL     OW89060  14.274   7.203  14.832
29074SOL    HW189061  14.253   7.220   0.047
29074SOL    HW289062  14.235   7.277  14.784
29075SOL     OW89063   1.003   4.026   9.338
29075SOL    HW189064   0.967   4.011   9.250
29075SOL    HW289065   1.083   3.973   9.340
29076SOL     OW89066   2.743   9.130  13.271
29076SOL    HW189067   2.752   9.168  13.358
29076SOL    HW289068   2.789   9.046  13.277
29077SOL     OW89069  12.297   3.244   7.175
29077SOL    HW189070  12.362   3.175   7.190
29077SOL    HW289071  12.245   3.246   7.255
29078SOL     OW89072   6.653  14.226   8.669
29078SOL    HW189073   6.660  14.281   8.590
29078SOL    HW289074   6.660  14.136   8.637
29079SOL     OW89075  14.471   8.903   9.538
29079SOL    HW189076  14.497   8.813   9.556
29079SOL    HW289077  14.510   8.923   9.453
29080SOL     OW89078   6.321  10.504   4.600
29080SOL    HW189079   6.240  10.540   4.637
29080SOL    HW289080   6.361  10.455   4.672
29081SOL     OW89081   0.545   8.265  14.434
29081SOL    HW189082   0.542   8.182  14.481
29081SOL    HW289083   0.638   8.278  14.416
29082SOL     OW89084   2.809   9.998   7.068
29082SOL    HW189085   2.775  10.071   7.120
29082SOL    HW289086   2.864   9.950   7.129
29083SOL     OW89087   9.639   1.250   7.206
29083SOL    HW189088   9.657   1.324   7.264
29083SOL    HW289089   9.562   1.277   7.157
29084SOL     OW89090   2.205  10.495   9.188
29084SOL    HW189091   2.283  10.534   9.228
29084SOL    HW289092   2.204  10.404   9.220
29085SOL     OW89093  13.027   3.110   7.016
29085SOL    HW189094  13.092   3.051   6.978
29085SOL    HW289095  13.042   3.194   6.972
29086SOL     OW89096  11.382   0.975  10.400
29086SOL    HW189097  11.450   0.953  10.337
29086SOL    HW289098  11.300   0.970  10.351
29087SOL     OW89099   6.779  12.953  10.790
29087SOL    HW189100   6.866  12.918  10.810
29087SOL    HW289101   6.796  13.029  10.734
29088SOL     OW89102   2.245  14.163   6.811
29088SOL    HW189103   2.322  14.106   6.815
29088SOL    HW289104   2.250  14.202   6.723
29089SOL     OW89105   4.502  12.735   7.272
29089SOL    HW189106   4.408  12.738   7.252
29089SOL    HW289107   4.516  12.648   7.308
29090SOL     OW89108   0.455   2.538  12.744
29090SOL    HW189109   0.379   2.524  12.687
29090SOL    HW289110   0.463   2.634  12.749
29091SOL     OW89111  12.649   2.766   5.969
29091SOL    HW189112  12.736   2.732   5.947
29091SOL    HW289113  12.590   2.719   5.910
29092SOL     OW89114   1.764  14.240   2.044
29092SOL    HW189115   1.766  14.179   1.970
29092SOL    HW289116   1.810  14.317   2.012
29093SOL     OW89117  14.302   6.746   6.483
29093SOL    HW189118  14.388   6.705   6.495
29093SOL    HW289119  14.240   6.674   6.493
29094SOL     OW89120  14.534  12.049   2.530
29094SOL    HW189121  14.491  11.984   2.474
29094SOL    HW289122  14.547  12.124   2.472
29095SOL     OW89123   5.036  12.881  12.856
29095SOL    HW189124   5.110  12.823  12.877
29095SOL    HW289125   5.039  12.948  12.924
29096SOL     OW89126   0.967   6.749  10.364
29096SOL    HW189127   1.059   6.769  10.381
29096SOL    HW289128   0.948   6.793  10.281
29097SOL     OW89129   4.501  11.087   6.574
29097SOL    HW189130   4.593  11.076   6.547
29097SOL    HW289131   4.476  11.002   6.609
29098SOL     OW89132  13.510   8.024  13.198
29098SOL    HW189133  13.423   8.058  13.219
29098SOL    HW289134  13.519   8.036  13.103
29099SOL     OW89135   8.468  13.945  13.429
29099SOL    HW189136   8.379  13.932  13.397
29099SOL    HW289137   8.458  13.965  13.522
29100SOL     OW89138   7.076  14.416   4.962
29100SOL    HW189139   7.156  14.433   5.011
29100SOL    HW289140   7.077  14.321   4.946
29101SOL     OW89141   9.672  12.484  12.383
29101SOL    HW189142   9.719  12.567  12.391
29101SOL    HW289143   9.581  12.505  12.404
29102SOL     OW89144   5.685   4.874   8.026
29102SOL    HW189145   5.730   4.925   8.093
29102SOL    HW289146   5.655   4.939   7.963
29103SOL     OW89147   1.443   8.193   0.225
29103SOL    HW189148   1.492   8.263   0.269
29103SOL    HW289149   1.351   8.215   0.241
29104SOL     OW89150  10.822   7.659   0.073
29104SOL    HW189151  10.909   7.696   0.060
29104SOL    HW289152  10.828   7.570   0.038
29105SOL     OW89153  13.627  12.351   2.566
29105SOL    HW189154  13.560  12.296   2.606
29105SOL    HW289155  13.693  12.290   2.533
29106SOL     OW89156  14.212   1.417   1.608
29106SOL    HW189157  14.177   1.348   1.551
29106SOL    HW289158  14.193   1.385   1.697
29107SOL     OW89159   1.511   9.452  12.378
29107SOL    HW189160   1.502   9.373  12.430
29107SOL    HW289161   1.421   9.481  12.362
29108SOL     OW89162   9.620  14.457  12.949
29108SOL    HW189163   9.631  14.551  12.935
29108SOL    HW289164   9.668  14.416  12.877
29109SOL     OW89165  12.624  10.295  14.415
29109SOL    HW189166  12.630  10.388  14.437
29109SOL    HW289167  12.559  10.291  14.345
29110SOL     OW89168   9.291   4.202   4.483
29110SOL    HW189169   9.273   4.113   4.513
29110SOL    HW289170   9.375   4.197   4.438
29111SOL     OW89171  14.268   1.292   7.002
29111SOL    HW189172  14.293   1.209   7.043
29111SOL    HW289173  14.320   1.358   7.047
29112SOL     OW89174  13.394  14.023  11.253
29112SOL    HW189175  13.419  14.115  11.243
29112SOL    HW289176  13.433  13.979  11.177
29113SOL     OW89177  10.549   9.633   5.275
29113SOL    HW189178  10.560   9.565   5.342
29113SOL    HW289179  10.638   9.651   5.245
29114SOL     OW89180   8.052   2.882   0.064
29114SOL    HW189181   8.081   2.928  14.861
29114SOL    HW289182   8.117   2.904   0.130
29115SOL     OW89183   3.985  12.622  14.539
29115SOL    HW189184   3.935  12.625  14.458
29115SOL    HW289185   4.053  12.687  14.528
29116SOL     OW89186   4.894  10.463   7.853
29116SOL    HW189187   4.919  10.556   7.851
29116SOL    HW289188   4.951  10.424   7.919
29117SOL     OW89189   4.888   8.026   7.862
29117SOL    HW189190   4.871   7.974   7.940
29117SOL    HW289191   4.877   8.117   7.890
29118SOL     OW89192   1.180   3.475   9.883
29118SOL    HW189193   1.273   3.454   9.894
29118SOL    HW289194   1.134   3.395   9.908
29119SOL     OW89195  13.896  11.499   0.643
29119SOL    HW189196  13.972  11.455   0.605
29119SOL    HW289197  13.828  11.491   0.577
29120SOL     OW89198   6.352  14.507   7.276
29120SOL    HW189199   6.349  14.569   7.203
29120SOL    HW289200   6.433  14.458   7.262
29121SOL     OW89201   5.389  11.723   8.196
29121SOL    HW189202   5.332  11.661   8.240
29121SOL    HW289203   5.467  11.673   8.174
29122SOL     OW89204   3.734   5.418   5.121
29122SOL    HW189205   3.800   5.436   5.188
29122SOL    HW289206   3.768   5.342   5.073
29123SOL     OW89207   6.226   8.074   4.717
29123SOL    HW189208   6.235   8.046   4.808
29123SOL    HW289209   6.225   7.993   4.666
29124SOL     OW89210  12.867   6.952  13.779
29124SOL    HW189211  12.787   6.992  13.811
29124SOL    HW289212  12.852   6.857  13.787
29125SOL     OW89213   3.762   5.672   2.536
29125SOL    HW189214   3.670   5.648   2.541
29125SOL    HW289215   3.793   5.667   2.627
29126SOL     OW89216  14.482  10.993   0.226
29126SOL    HW189217  14.419  11.024   0.160
29126SOL    HW289218  14.466  11.050   0.302
29127SOL     OW89219  13.817  13.929   4.192
29127SOL    HW189220  13.776  13.886   4.117
29127SOL    HW289221  13.748  13.934   4.258
29128SOL     OW89222   7.995   3.161  13.499
29128SOL    HW189223   7.997   3.124  13.410
29128SOL    HW289224   8.030   3.249  13.489
29129SOL     OW89225   2.455   7.231   3.801
29129SOL    HW189226   2.382   7.198   3.854
29129SOL    HW289227   2.436   7.200   3.712
29130SOL     OW89228  10.470   0.297   4.288
29130SOL    HW189229  10.474   0.326   4.379
29130SOL    HW289230  10.435   0.372   4.240
29131SOL     OW89231  11.313   7.820   6.630
29131SOL    HW189232  11.350   7.751   6.574
29131SOL    HW289233  11.233   7.846   6.585
29132SOL     OW89234  12.014   4.569   6.893
29132SOL    HW189235  12.040   4.479   6.870
29132SOL    HW289236  11.997   4.565   6.987
29133SOL     OW89237   9.763   4.787  12.565
29133SOL    HW189238   9.836   4.778  12.627
29133SOL    HW289239   9.736   4.879  12.573
29134SOL     OW89240   9.763   2.952  13.985
29134SOL    HW189241   9.822   3.027  13.992
29134SOL    HW289242   9.736   2.951  13.893
29135SOL     OW89243   7.253   5.564  10.891
29135SOL    HW189244   7.255   5.652  10.853
29135SOL    HW289245   7.160   5.544  10.901
29136SOL     OW89246   1.935   5.014   1.871
29136SOL    HW189247   2.031   5.021   1.872
29136SOL    HW289248   1.913   4.978   1.957
29137SOL     OW89249   5.397   0.701  11.773
29137SOL    HW189250   5.411   0.614  11.735
29137SOL    HW289251   5.322   0.689  11.832
29138SOL     OW89252  12.385  11.456   3.868
29138SOL    HW189253  12.430  11.450   3.952
29138SOL    HW289254  12.298  11.418   3.885
29139SOL     OW89255   3.954   1.235  10.314
29139SOL    HW189256   4.002   1.162  10.273
29139SOL    HW289257   3.922   1.287  10.240
29140SOL     OW89258   0.340  13.246  13.200
29140SOL    HW189259   0.291  13.194  13.263
29140SOL    HW289260   0.382  13.314  13.252
29141SOL     OW89261   0.306  14.009   3.589
29141SOL    HW189262   0.238  14.076   3.582
29141SOL    HW289263   0.260  13.926   3.580
29142SOL     OW89264   2.970   0.901  13.016
29142SOL    HW189265   2.910   0.973  13.036
29142SOL    HW289266   3.055   0.930  13.050
29143SOL     OW89267  11.892   0.030   1.186
29143SOL    HW189268  11.986   0.042   1.172
29143SOL    HW289269  11.852   0.057   1.104
29144SOL     OW89270  12.826  10.098   7.166
29144SOL    HW189271  12.816  10.173   7.108
29144SOL    HW289272  12.749  10.102   7.223
29145SOL     OW89273   6.135   6.460  10.639
29145SOL    HW189274   6.089   6.542  10.623
29145SOL    HW289275   6.066   6.400  10.667
29146SOL     OW89276  10.354   8.829   9.444
29146SOL    HW189277  10.349   8.844   9.538
29146SOL    HW289278  10.291   8.892   9.407
29147SOL     OW89279   2.144  14.247   2.329
29147SOL    HW189280   2.053  14.219   2.323
29147SOL    HW289281   2.147  14.305   2.404
29148SOL     OW89282  13.110   1.077  13.930
29148SOL    HW189283  13.163   1.007  13.968
29148SOL    HW289284  13.167   1.154  13.931
29149SOL     OW89285   1.366   6.049  14.558
29149SOL    HW189286   1.302   6.080  14.494
29149SOL    HW289287   1.374   5.955  14.541
29150SOL     OW89288   8.143   2.751  13.524
29150SOL    HW189289   8.109   2.839  13.536
29150SOL    HW289290   8.212   2.742  13.589
29151SOL     OW89291   8.859   2.270  10.382
29151SOL    HW189292   8.858   2.205  10.312
29151SOL    HW289293   8.946   2.310  10.375
29152SOL     OW89294   8.316  10.797   7.502
29152SOL    HW189295   8.389  10.783   7.442
29152SOL    HW289296   8.282  10.708   7.519
29153SOL     OW89297   3.151   4.262   5.769
29153SOL    HW189298   3.241   4.293   5.758
29153SOL    HW289299   3.148   4.232   5.860
29154SOL     OW89300  11.220   2.069   7.926
29154SOL    HW189301  11.203   1.975   7.927
29154SOL    HW289302  11.133   2.109   7.922
29155SOL     OW89303   3.767   1.400   3.547
29155SOL    HW189304   3.778   1.305   3.549
29155SOL    HW289305   3.821   1.432   3.619
29156SOL     OW89306   1.910  11.188   1.710
29156SOL    HW189307   1.988  11.171   1.763
29156SOL    HW289308   1.943  11.235   1.634
29157SOL     OW89309   0.820   4.185   7.881
29157SOL    HW189310   0.733   4.218   7.858
29157SOL    HW289311   0.858   4.255   7.935
29158SOL     OW89312   4.964   1.665   4.282
29158SOL    HW189313   5.041   1.627   4.240
29158SOL    HW289314   4.997   1.745   4.324
29159SOL     OW89315   9.898   8.936   1.117
29159SOL    HW189316   9.982   8.981   1.107
29159SOL    HW289317   9.884   8.893   1.033
29160SOL     OW89318  12.728   5.398  12.153
29160SOL    HW189319  12.734   5.461  12.082
29160SOL    HW289320  12.676   5.442  12.221
29161SOL     OW89321   9.144  14.354  14.296
29161SOL    HW189322   9.186  14.330  14.213
29161SOL    HW289323   9.214  14.345  14.361
29162SOL     OW89324  10.682   7.454   5.215
29162SOL    HW189325  10.624   7.528   5.229
29162SOL    HW289326  10.640   7.404   5.144
29163SOL     OW89327  14.851  10.524   8.864
29163SOL    HW189328   0.005  10.574   8.940
29163SOL    HW289329  14.777  10.575   8.831
29164SOL     OW89330  10.072   2.816   1.280
29164SOL    HW189331  10.010   2.825   1.207
29164SOL    HW289332  10.071   2.901   1.324
29165SOL     OW89333   6.891   8.070   6.919
29165SOL    HW189334   6.797   8.061   6.905
29165SOL    HW289335   6.900   8.104   7.008
29166SOL     OW89336   6.766   3.863  10.659
29166SOL    HW189337   6.786   3.890  10.749
29166SOL    HW289338   6.744   3.945  10.614
29167SOL     OW89339   9.158   6.293  14.657
29167SOL    HW189340   9.075   6.278  14.703
29167SOL    HW289341   9.185   6.380  14.685
29168SOL     OW89342   0.138  11.553   7.547
29168SOL    HW189343   0.053  11.587   7.574
29168SOL    HW289344   0.183  11.535   7.630
29169SOL     OW89345  12.949   3.918  14.346
29169SOL    HW189346  13.012   3.887  14.281
29169SOL    HW289347  12.989   3.996  14.383
29170SOL     OW89348   1.851   0.335  14.868
29170SOL    HW189349   1.799   0.414  14.855
29170SOL    HW289350   1.856   0.295  14.782
29171SOL     OW89351  14.304   1.868   0.721
29171SOL    HW189352  14.231   1.814   0.690
29171SOL    HW289353  14.370   1.860   0.652
29172SOL     OW89354   2.981  14.495   9.818
29172SOL    HW189355   3.047  14.532   9.876
29172SOL    HW289356   3.022  14.493   9.732
29173SOL     OW89357   7.680   3.314  12.310
29173SOL    HW189358   7.613   3.247  12.321
29173SOL    HW289359   7.642   3.393  12.349
29174SOL     OW89360   1.940  10.014   7.507
29174SOL    HW189361   1.927   9.931   7.553
29174SOL    HW289362   1.932   9.992   7.414
29175SOL     OW89363  12.587  12.440   4.881
29175SOL    HW189364  12.615  12.464   4.793
29175SOL    HW289365  12.598  12.345   4.884
29176SOL     OW89366   6.985   6.965   9.416
29176SOL    HW189367   6.893   6.939   9.427
29176SOL    HW289368   6.987   7.012   9.333
29177SOL     OW89369   0.137   5.535   2.343
29177SOL    HW189370   0.153   5.606   2.406
29177SOL    HW289371   0.195   5.465   2.370
29178SOL     OW89372   3.630   6.887   4.549
29178SOL    HW189373   3.599   6.830   4.478
29178SOL    HW289374   3.725   6.872   4.550
29179SOL     OW89375   9.940   5.964  10.346
29179SOL    HW189376  10.014   6.020  10.370
29179SOL    HW289377   9.962   5.878  10.380
29180SOL     OW89378   6.450   9.621  11.182
29180SOL    HW189379   6.451   9.540  11.132
29180SOL    HW289380   6.413   9.686  11.121
29181SOL     OW89381   9.020  14.058   3.968
29181SOL    HW189382   9.011  14.147   3.935
29181SOL    HW289383   9.114  14.045   3.979
29182SOL     OW89384   0.373  12.194  11.219
29182SOL    HW189385   0.308  12.262  11.202
29182SOL    HW289386   0.330  12.135  11.282
29183SOL     OW89387   0.828  10.395   7.989
29183SOL    HW189388   0.842  10.353   8.074
29183SOL    HW289389   0.882  10.345   7.928
29184SOL     OW89390  11.159   5.148  10.749
29184SOL    HW189391  11.179   5.055  10.760
29184SOL    HW289392  11.225   5.179  10.686
29185SOL     OW89393   9.795  12.402   5.598
29185SOL    HW189394   9.826  12.370   5.682
29185SOL    HW289395   9.869  12.450   5.562
29186SOL     OW89396  13.133   5.373  13.696
29186SOL    HW189397  13.179   5.396  13.615
29186SOL    HW289398  13.088   5.291  13.674
29187SOL     OW89399   8.288  14.068   2.889
29187SOL    HW189400   8.321  13.979   2.894
29187SOL    HW289401   8.254  14.076   2.799
29188SOL     OW89402  14.202  10.999   8.347
29188SOL    HW189403  14.292  10.979   8.373
29188SOL    HW289404  14.158  11.021   8.430
29189SOL     OW89405   2.780  10.031   5.584
29189SOL    HW189406   2.690  10.018   5.613
29189SOL    HW289407   2.827  10.060   5.662
29190SOL     OW89408   2.931  12.538   5.552
29190SOL    HW189409   2.935  12.546   5.457
29190SOL    HW289410   2.953  12.446   5.569
29191SOL     OW89411   4.000   4.270   2.011
29191SOL    HW189412   3.978   4.338   1.947
29191SOL    HW289413   4.078   4.228   1.975
29192SOL     OW89414   1.782   9.806   5.337
29192SOL    HW189415   1.795   9.861   5.414
29192SOL    HW289416   1.835   9.847   5.268
29193SOL     OW89417   3.640   9.682   4.326
29193SOL    HW189418   3.711   9.729   4.371
29193SOL    HW289419   3.664   9.590   4.333
29194SOL     OW89420  12.760   8.050  12.373
29194SOL    HW189421  12.668   8.027  12.375
29194SOL    HW289422  12.762   8.146  12.365
29195SOL     OW89423  13.068   1.335   3.262
29195SOL    HW189424  13.130   1.367   3.327
29195SOL    HW289425  12.995   1.398   3.265
29196SOL     OW89426   0.491   9.004  11.417
29196SOL    HW189427   0.566   8.946  11.404
29196SOL    HW289428   0.497   9.031  11.509
29197SOL     OW89429   3.466   2.126   1.430
29197SOL    HW189430   3.414   2.049   1.410
29197SOL    HW289431   3.421   2.198   1.386
29198SOL     OW89432   4.020  11.076   9.500
29198SOL    HW189433   3.946  11.136   9.500
29198SOL    HW289434   4.017  11.035   9.586
29199SOL     OW89435   7.398  11.403  10.333
29199SOL    HW189436   7.303  11.410  10.343
29199SOL    HW289437   7.414  11.311  10.313
29200SOL     OW89438  10.954  13.060  14.115
29200SOL    HW189439  11.049  13.051  14.113
29200SOL    HW289440  10.924  12.980  14.160
29201SOL     OW89441   5.119  10.289  12.369
29201SOL    HW189442   5.131  10.194  12.357
29201SOL    HW289443   5.028  10.298  12.396
29202SOL     OW89444   3.252   9.572  11.315
29202SOL    HW189445   3.265   9.594  11.223
29202SOL    HW289446   3.210   9.650  11.352
29203SOL     OW89447   9.163   3.773  10.934
29203SOL    HW189448   9.082   3.789  10.885
29203SOL    HW289449   9.198   3.692  10.895
29204SOL     OW89450   4.634  10.940   1.550
29204SOL    HW189451   4.540  10.945   1.533
29204SOL    HW289452   4.666  10.881   1.481
29205SOL     OW89453  10.949   2.806   8.976
29205SOL    HW189454  10.942   2.807   9.072
29205SOL    HW289455  11.042   2.816   8.958
29206SOL     OW89456   4.984  13.325   0.077
29206SOL    HW189457   4.908  13.331   0.019
29206SOL    HW289458   5.055  13.294   0.021
29207SOL     OW89459   9.703   5.956   0.615
29207SOL    HW189460   9.675   5.937   0.705
29207SOL    HW289461   9.691   6.050   0.605
29208SOL     OW89462  14.459   6.859   9.261
29208SOL    HW189463  14.404   6.935   9.240
29208SOL    HW289464  14.458   6.854   9.357
29209SOL     OW89465   2.446   5.777   9.852
29209SOL    HW189466   2.536   5.760   9.825
29209SOL    HW289467   2.423   5.703   9.909
29210SOL     OW89468   8.732   3.883  10.542
29210SOL    HW189469   8.721   3.789  10.528
29210SOL    HW289470   8.825   3.894  10.560
29211SOL     OW89471  12.543  13.028   4.455
29211SOL    HW189472  12.521  12.956   4.513
29211SOL    HW289473  12.624  13.065   4.490
29212SOL     OW89474   0.185   6.402   8.635
29212SOL    HW189475   0.188   6.352   8.553
29212SOL    HW289476   0.166   6.492   8.608
29213SOL     OW89477   3.186  14.348   4.974
29213SOL    HW189478   3.111  14.403   4.953
29213SOL    HW289479   3.149  14.271   5.017
29214SOL     OW89480   5.526   7.539   4.765
29214SOL    HW189481   5.595   7.525   4.829
29214SOL    HW289482   5.445   7.515   4.810
29215SOL     OW89483   2.756  11.338   1.443
29215SOL    HW189484   2.727  11.281   1.372
29215SOL    HW289485   2.687  11.403   1.452
29216SOL     OW89486  12.717   1.944   3.427
29216SOL    HW189487  12.709   1.850   3.411
29216SOL    HW289488  12.773   1.976   3.357
29217SOL     OW89489   5.134   7.799   4.997
29217SOL    HW189490   5.053   7.835   4.961
29217SOL    HW289491   5.109   7.760   5.080
29218SOL     OW89492  12.747   3.467   1.730
29218SOL    HW189493  12.809   3.515   1.674
29218SOL    HW289494  12.770   3.375   1.718
29219SOL     OW89495   9.507  10.444  12.825
29219SOL    HW189496   9.536  10.401  12.744
29219SOL    HW289497   9.528  10.536  12.812
29220SOL     OW89498   2.707   3.321   4.768
29220SOL    HW189499   2.743   3.239   4.802
29220SOL    HW289500   2.646   3.351   4.835
29221SOL     OW89501   9.390  10.302   2.986
29221SOL    HW189502   9.356  10.391   2.974
29221SOL    HW289503   9.407  10.271   2.898
29222SOL     OW89504   2.576   7.654   9.861
29222SOL    HW189505   2.651   7.713   9.863
29222SOL    HW289506   2.579   7.612   9.775
29223SOL     OW89507  13.119  12.454   2.135
29223SOL    HW189508  13.061  12.412   2.199
29223SOL    HW289509  13.111  12.400   2.056
29224SOL     OW89510   6.929  13.012   5.845
29224SOL    HW189511   6.985  12.957   5.789
29224SOL    HW289512   6.912  13.090   5.792
29225SOL     OW89513   9.850  14.448   4.315
29225SOL    HW189514   9.802  14.528   4.335
29225SOL    HW289515   9.877  14.458   4.224
29226SOL     OW89516   3.014   9.266   0.931
29226SOL    HW189517   2.963   9.198   0.889
29226SOL    HW289518   3.095   9.222   0.959
29227SOL     OW89519   3.187   5.074   4.779
29227SOL    HW189520   3.279   5.049   4.784
29227SOL    HW289521   3.183   5.159   4.823
29228SOL     OW89522  12.814   5.937   1.790
29228SOL    HW189523  12.758   5.965   1.863
29228SOL    HW289524  12.752   5.920   1.718
29229SOL     OW89525  13.698   0.163   3.745
29229SOL    HW189526  13.717   0.191   3.834
29229SOL    HW289527  13.642   0.085   3.755
29230SOL     OW89528   8.196   5.032  11.128
29230SOL    HW189529   8.131   5.046  11.198
29230SOL    HW289530   8.161   5.080  11.053
29231SOL     OW89531   5.992   2.111  11.162
29231SOL    HW189532   5.998   2.188  11.219
29231SOL    HW289533   6.023   2.038  11.215
29232SOL     OW89534   0.571  13.276   4.388
29232SOL    HW189535   0.540  13.320   4.467
29232SOL    HW289536   0.646  13.328   4.359
29233SOL     OW89537   9.220  13.003  13.576
29233SOL    HW189538   9.168  12.974  13.502
29233SOL    HW289539   9.201  12.939  13.645
29234SOL     OW89540   6.264  13.480   7.872
29234SOL    HW189541   6.190  13.453   7.927
29234SOL    HW289542   6.231  13.554   7.822
29235SOL     OW89543  12.391  12.809  10.776
29235SOL    HW189544  12.435  12.806  10.861
29235SOL    HW289545  12.442  12.752  10.719
29236SOL     OW89546   5.783   9.850   1.323
29236SOL    HW189547   5.842   9.864   1.397
29236SOL    HW289548   5.798   9.759   1.298
29237SOL     OW89549   0.932  13.368   1.856
29237SOL    HW189550   0.982  13.389   1.778
29237SOL    HW289551   0.981  13.409   1.928
29238SOL     OW89552   0.562   8.730   5.282
29238SOL    HW189553   0.605   8.658   5.327
29238SOL    HW289554   0.629   8.765   5.222
29239SOL     OW89555   6.504   2.322   8.587
29239SOL    HW189556   6.518   2.295   8.497
29239SOL    HW289557   6.455   2.251   8.627
29240SOL     OW89558   0.280   9.103   9.613
29240SOL    HW189559   0.189   9.096   9.586
29240SOL    HW289560   0.286   9.049   9.692
29241SOL     OW89561   2.548  10.837   2.870
29241SOL    HW189562   2.637  10.872   2.877
29241SOL    HW289563   2.527  10.808   2.959
29242SOL     OW89564   8.421  14.634  12.258
29242SOL    HW189565   8.334  14.640  12.296
29242SOL    HW289566   8.450  14.545  12.277
29243SOL     OW89567   3.527  11.044   3.876
29243SOL    HW189568   3.565  10.969   3.831
29243SOL    HW289569   3.568  11.044   3.963
29244SOL     OW89570  14.033   2.074   3.427
29244SOL    HW189571  13.956   2.078   3.484
29244SOL    HW289572  14.060   2.166   3.417
29245SOL     OW89573   9.276  10.752  14.315
29245SOL    HW189574   9.251  10.840  14.287
29245SOL    HW289575   9.265  10.753  14.410
29246SOL     OW89576   6.179   9.939   9.990
29246SOL    HW189577   6.155   9.919  10.081
29246SOL    HW289578   6.100   9.920   9.940
29247SOL     OW89579  14.395   1.043   2.166
29247SOL    HW189580  14.324   1.029   2.103
29247SOL    HW289581  14.352   1.080   2.244
29248SOL     OW89582   5.675   8.491   9.127
29248SOL    HW189583   5.713   8.567   9.170
29248SOL    HW289584   5.728   8.479   9.048
29249SOL     OW89585   7.837  14.835  10.207
29249SOL    HW189586   7.930  14.859  10.214
29249SOL    HW289587   7.818  14.792  10.290
29250SOL     OW89588   2.330  12.258  14.462
29250SOL    HW189589   2.388  12.259  14.538
29250SOL    HW289590   2.243  12.278  14.498
29251SOL     OW89591   1.438   3.443   5.504
29251SOL    HW189592   1.366   3.501   5.528
29251SOL    HW289593   1.400   3.382   5.441
29252SOL     OW89594   0.163  14.628  10.706
29252SOL    HW189595   0.225  14.555  10.713
29252SOL    HW289596   0.219  14.705  10.693
29253SOL     OW89597   8.954  12.435  10.498
29253SOL    HW189598   8.911  12.422  10.583
29253SOL    HW289599   8.947  12.350  10.455
29254SOL     OW89600  14.152   1.610   2.276
29254SOL    HW189601  14.193   1.695   2.288
29254SOL    HW289602  14.135   1.578   2.365
29255SOL     OW89603   2.807   1.789   1.248
29255SOL    HW189604   2.747   1.863   1.241
29255SOL    HW289605   2.774   1.738   1.322
29256SOL     OW89606  14.510  12.774   2.620
29256SOL    HW189607  14.504  12.850   2.678
29256SOL    HW289608  14.422  12.738   2.618
29257SOL     OW89609   0.469  12.842  13.840
29257SOL    HW189610   0.401  12.776  13.826
29257SOL    HW289611   0.468  12.859  13.934
29258SOL     OW89612   2.490   3.689   2.904
29258SOL    HW189613   2.514   3.615   2.960
29258SOL    HW289614   2.485   3.652   2.816
29259SOL     OW89615   4.034  12.513   7.342
29259SOL    HW189616   3.949  12.473   7.326
29259SOL    HW289617   4.038  12.525   7.437
29260SOL     OW89618  13.957   4.847   3.689
29260SOL    HW189619  14.032   4.811   3.736
29260SOL    HW289620  13.923   4.773   3.638
29261SOL     OW89621  13.700   7.243   6.490
29261SOL    HW189622  13.741   7.259   6.575
29261SOL    HW289623  13.763   7.190   6.442
29262SOL     OW89624   3.192   1.640  11.699
29262SOL    HW189625   3.268   1.623  11.644
29262SOL    HW289626   3.122   1.662  11.637
29263SOL     OW89627  12.419   7.435  13.675
29263SOL    HW189628  12.365   7.412  13.751
29263SOL    HW289629  12.409   7.361  13.615
29264SOL     OW89630   4.624   1.968   5.106
29264SOL    HW189631   4.532   1.985   5.125
29264SOL    HW289632   4.660   2.053   5.081
29265SOL     OW89633  12.797  10.966   3.434
29265SOL    HW189634  12.734  11.034   3.458
29265SOL    HW289635  12.756  10.885   3.462
29266SOL     OW89636  10.488  13.161   7.221
29266SOL    HW189637  10.450  13.246   7.245
29266SOL    HW289638  10.557  13.147   7.286
29267SOL     OW89639   0.259   2.907   9.911
29267SOL    HW189640   0.326   2.866   9.856
29267SOL    HW289641   0.191   2.936   9.849
29268SOL     OW89642  11.779   3.249   9.043
29268SOL    HW189643  11.712   3.229   8.977
29268SOL    HW289644  11.821   3.165   9.060
29269SOL     OW89645  12.144   1.651   0.051
29269SOL    HW189646  12.220   1.604   0.084
29269SOL    HW289647  12.128   1.720   0.116
29270SOL     OW89648  14.335   9.836   9.380
29270SOL    HW189649  14.335   9.884   9.297
29270SOL    HW289650  14.422   9.795   9.384
29271SOL     OW89651   3.762  11.116   0.651
29271SOL    HW189652   3.714  11.105   0.734
29271SOL    HW289653   3.718  11.189   0.608
29272SOL     OW89654  10.750  11.304   6.850
29272SOL    HW189655  10.720  11.214   6.842
29272SOL    HW289656  10.671  11.357   6.844
29273SOL     OW89657  14.347  14.017   3.668
29273SOL    HW189658  14.435  14.048   3.647
29273SOL    HW289659  14.294  14.042   3.593
29274SOL     OW89660   1.406  12.208  13.247
29274SOL    HW189661   1.390  12.267  13.174
29274SOL    HW289662   1.493  12.232  13.279
29275SOL     OW89663   4.662   0.395   7.128
29275SOL    HW189664   4.570   0.418   7.141
29275SOL    HW289665   4.660   0.315   7.075
29276SOL     OW89666   2.697   2.232   5.200
29276SOL    HW189667   2.764   2.300   5.202
29276SOL    HW289668   2.724   2.169   5.267
29277SOL     OW89669   9.610   5.491  12.787
29277SOL    HW189670   9.637   5.580  12.812
29277SOL    HW289671   9.515   5.491  12.797
29278SOL     OW89672  12.488  12.316   4.324
29278SOL    HW189673  12.455  12.345   4.239
29278SOL    HW289674  12.486  12.220   4.320
29279SOL     OW89675   7.750   7.144  11.834
29279SOL    HW189676   7.830   7.111  11.793
29279SOL    HW289677   7.715   7.209  11.773
29280SOL     OW89678   3.908   9.891   0.570
29280SOL    HW189679   3.990   9.841   0.572
29280SOL    HW289680   3.909   9.942   0.651
29281SOL     OW89681   9.980   3.147  13.540
29281SOL    HW189682  10.023   3.061  13.535
29281SOL    HW289683   9.933   3.145  13.623
29282SOL     OW89684  10.262   9.710   7.571
29282SOL    HW189685  10.349   9.671   7.575
29282SOL    HW289686  10.272   9.786   7.514
29283SOL     OW89687   2.156   8.619   3.040
29283SOL    HW189688   2.144   8.536   2.994
29283SOL    HW289689   2.093   8.615   3.112
29284SOL     OW89690   2.404   5.587   1.436
29284SOL    HW189691   2.397   5.663   1.378
29284SOL    HW289692   2.483   5.541   1.406
29285SOL     OW89693   6.334  11.455  10.720
29285SOL    HW189694   6.254  11.502  10.743
29285SOL    HW289695   6.369  11.501  10.644
29286SOL     OW89696  12.154   2.407   3.054
29286SOL    HW189697  12.202   2.440   2.978
29286SOL    HW289698  12.163   2.312   3.049
29287SOL     OW89699  13.625   9.995   0.277
29287SOL    HW189700  13.633   9.991   0.182
29287SOL    HW289701  13.530   9.991   0.293
29288SOL     OW89702   6.961  13.324   6.252
29288SOL    HW189703   7.032  13.375   6.291
29288SOL    HW289704   6.967  13.342   6.158
29289SOL     OW89705   4.291   9.780   8.089
29289SOL    HW189706   4.214   9.783   8.032
29289SOL    HW289707   4.280   9.701   8.141
29290SOL     OW89708   3.553   4.631  14.028
29290SOL    HW189709   3.597   4.578  13.962
29290SOL    HW289710   3.624   4.662  14.084
29291SOL     OW89711   2.760   0.288   9.726
29291SOL    HW189712   2.681   0.332   9.756
29291SOL    HW289713   2.786   0.232   9.800
29292SOL     OW89714  11.780  12.649  12.170
29292SOL    HW189715  11.686  12.670  12.164
29292SOL    HW289716  11.800  12.605  12.088
29293SOL     OW89717   6.006   2.589   2.750
29293SOL    HW189718   6.089   2.587   2.798
29293SOL    HW289719   5.942   2.551   2.810
29294SOL     OW89720   7.044   0.843   5.884
29294SOL    HW189721   7.104   0.774   5.857
29294SOL    HW289722   7.019   0.886   5.802
29295SOL     OW89723  14.017   7.240   1.782
29295SOL    HW189724  13.990   7.263   1.693
29295SOL    HW289725  13.954   7.285   1.838
29296SOL     OW89726   4.657  11.463  11.810
29296SOL    HW189727   4.677  11.543  11.858
29296SOL    HW289728   4.718  11.398  11.845
29297SOL     OW89729  13.989  13.696  12.093
29297SOL    HW189730  14.061  13.633  12.089
29297SOL    HW289731  14.005  13.746  12.173
29298SOL     OW89732   4.613   7.821   2.824
29298SOL    HW189733   4.616   7.729   2.852
29298SOL    HW289734   4.540   7.858   2.873
29299SOL     OW89735   5.815  12.125  11.098
29299SOL    HW189736   5.888  12.165  11.050
29299SOL    HW289737   5.767  12.075  11.032
29300SOL     OW89738  11.256  12.024   0.258
29300SOL    HW189739  11.269  12.099   0.317
29300SOL    HW289740  11.325  11.963   0.283
29301SOL     OW89741   1.489   0.512   3.727
29301SOL    HW189742   1.543   0.586   3.756
29301SOL    HW289743   1.400   0.536   3.754
29302SOL     OW89744  12.113   9.113   9.410
29302SOL    HW189745  12.088   9.033   9.455
29302SOL    HW289746  12.203   9.130   9.438
29303SOL     OW89747  12.546  13.858   3.908
29303SOL    HW189748  12.519  13.946   3.880
29303SOL    HW289749  12.483  13.834   3.976
29304SOL     OW89750   5.941  14.733   4.808
29304SOL    HW189751   5.961  14.763   4.896
29304SOL    HW289752   5.954  14.809   4.752
29305SOL     OW89753   0.910  14.515   2.088
29305SOL    HW189754   0.898  14.441   2.029
29305SOL    HW289755   0.995  14.501   2.128
29306SOL     OW89756   9.328   0.597   9.254
29306SOL    HW189757   9.389   0.557   9.316
29306SOL    HW289758   9.379   0.608   9.174
29307SOL     OW89759   6.356  10.601   7.996
29307SOL    HW189760   6.335  10.609   8.089
29307SOL    HW289761   6.273  10.615   7.952
29308SOL     OW89762   0.106   7.467   2.973
29308SOL    HW189763   0.162   7.541   2.999
29308SOL    HW289764   0.058   7.500   2.897
29309SOL     OW89765   2.562   2.027   9.824
29309SOL    HW189766   2.562   1.947   9.877
29309SOL    HW289767   2.503   2.086   9.871
29310SOL     OW89768   3.771   6.877   9.247
29310SOL    HW189769   3.823   6.948   9.209
29310SOL    HW289770   3.835   6.819   9.288
29311SOL     OW89771   5.326  10.817   4.340
29311SOL    HW189772   5.409  10.775   4.362
29311SOL    HW289773   5.308  10.787   4.250
29312SOL     OW89774   8.633   2.862  11.845
29312SOL    HW189775   8.724   2.868  11.874
29312SOL    HW289776   8.582   2.868  11.925
29313SOL     OW89777  11.842  14.217   2.941
29313SOL    HW189778  11.896  14.293   2.919
29313SOL    HW289779  11.774  14.252   2.999
29314SOL     OW89780   8.676   2.604   7.478
29314SOL    HW189781   8.650   2.519   7.511
29314SOL    HW289782   8.611   2.625   7.411
29315SOL     OW89783   4.410   8.676   5.901
29315SOL    HW189784   4.420   8.594   5.951
29315SOL    HW289785   4.453   8.742   5.955
29316SOL     OW89786  10.094   1.293  13.972
29316SOL    HW189787  10.161   1.282  13.905
29316SOL    HW289788  10.084   1.387  13.981
29317SOL     OW89789   9.808   1.347  14.402
29317SOL    HW189790   9.867   1.422  14.414
29317SOL    HW289791   9.854   1.289  14.341
29318SOL     OW89792   8.631  10.272   5.063
29318SOL    HW189793   8.578  10.352   5.073
29318SOL    HW289794   8.712  10.291   5.109
29319SOL     OW89795   4.700  10.718  11.897
29319SOL    HW189796   4.735  10.660  11.829
29319SOL    HW289797   4.777  10.741  11.949
29320SOL     OW89798  10.109   8.528   7.098
29320SOL    HW189799  10.195   8.555   7.067
29320SOL    HW289800  10.114   8.539   7.193
29321SOL     OW89801   0.108  14.016  11.513
29321SOL    HW189802   0.181  13.967  11.552
29321SOL    HW289803   0.127  14.107  11.535
29322SOL     OW89804  11.934  12.921   6.960
29322SOL    HW189805  11.950  13.014   6.976
29322SOL    HW289806  11.897  12.918   6.872
29323SOL     OW89807   4.838  11.629   6.888
29323SOL    HW189808   4.784  11.682   6.830
29323SOL    HW289809   4.927  11.642   6.857
29324SOL     OW89810   2.889   5.017   2.654
29324SOL    HW189811   2.870   4.988   2.744
29324SOL    HW289812   2.940   4.946   2.616
29325SOL     OW89813   7.064   8.400  11.503
29325SOL    HW189814   7.041   8.311  11.529
29325SOL    HW289815   7.065   8.451  11.584
29326SOL     OW89816   5.974   5.476  13.727
29326SOL    HW189817   5.912   5.517  13.667
29326SOL    HW289818   5.922   5.454  13.804
29327SOL     OW89819   9.582   0.914  13.105
29327SOL    HW189820   9.604   1.006  13.091
29327SOL    HW289821   9.627   0.868  13.034
29328SOL     OW89822  10.686   7.434  14.657
29328SOL    HW189823  10.775   7.408  14.679
29328SOL    HW289824  10.655   7.367  14.596
29329SOL     OW89825   7.967   6.178  11.333
29329SOL    HW189826   7.901   6.234  11.293
29329SOL    HW289827   7.976   6.210  11.422
29330SOL     OW89828   3.977   9.629   3.452
29330SOL    HW189829   4.046   9.671   3.400
29330SOL    HW289830   4.023   9.561   3.501
29331SOL     OW89831  13.523   5.554  11.138
29331SOL    HW189832  13.461   5.575  11.069
29331SOL    HW289833  13.514   5.625  11.201
29332SOL     OW89834  12.737   1.206   2.317
29332SOL    HW189835  12.643   1.200   2.332
29332SOL    HW289836  12.745   1.232   2.225
29333SOL     OW89837  12.826   8.812  14.851
29333SOL    HW189838  12.854   8.722  14.831
29333SOL    HW289839  12.892   8.867  14.811
29334SOL     OW89840   6.239   1.895   1.222
29334SOL    HW189841   6.216   1.838   1.295
29334SOL    HW289842   6.335   1.898   1.223
29335SOL     OW89843  14.201   4.874  14.631
29335SOL    HW189844  14.267   4.846  14.694
29335SOL    HW289845  14.117   4.852  14.673
29336SOL     OW89846   2.779   4.830  13.690
29336SOL    HW189847   2.788   4.783  13.773
29336SOL    HW289848   2.743   4.915  13.714
29337SOL     OW89849   1.624   6.788   6.507
29337SOL    HW189850   1.637   6.814   6.598
29337SOL    HW289851   1.667   6.857   6.456
29338SOL     OW89852   1.716   0.915  13.132
29338SOL    HW189853   1.694   0.875  13.048
29338SOL    HW289854   1.636   0.961  13.159
29339SOL     OW89855  12.796   8.517   6.210
29339SOL    HW189856  12.706   8.511   6.240
29339SOL    HW289857  12.824   8.426   6.198
29340SOL     OW89858   4.088   2.624   6.202
29340SOL    HW189859   4.095   2.631   6.297
29340SOL    HW289860   4.061   2.533   6.186
29341SOL     OW89861   9.233   9.535  12.174
29341SOL    HW189862   9.279   9.485  12.241
29341SOL    HW289863   9.221   9.474  12.102
29342SOL     OW89864   4.364   6.828   9.067
29342SOL    HW189865   4.375   6.920   9.090
29342SOL    HW289866   4.415   6.818   8.986
29343SOL     OW89867  12.483   6.857   7.799
29343SOL    HW189868  12.439   6.922   7.744
29343SOL    HW289869  12.418   6.787   7.810
29344SOL     OW89870   2.119  11.646   2.308
29344SOL    HW189871   2.214  11.650   2.308
29344SOL    HW289872   2.099  11.554   2.327
29345SOL     OW89873   4.093   9.718  11.932
29345SOL    HW189874   4.087   9.764  12.016
29345SOL    HW289875   4.002   9.699  11.909
29346SOL     OW89876   8.642  10.317  11.538
29346SOL    HW189877   8.640  10.393  11.597
29346SOL    HW289878   8.554  10.312  11.502
29347SOL     OW89879   7.392  12.625   5.075
29347SOL    HW189880   7.329  12.610   5.146
29347SOL    HW289881   7.476  12.596   5.111
29348SOL     OW89882   2.056   4.954   7.758
29348SOL    HW189883   2.041   4.926   7.667
29348SOL    HW289884   2.149   4.977   7.761
29349SOL     OW89885  13.942  11.000  12.570
29349SOL    HW189886  14.016  10.961  12.523
29349SOL    HW289887  13.897  11.053  12.505
29350SOL     OW89888   8.394   4.382  11.217
29350SOL    HW189889   8.404   4.363  11.124
29350SOL    HW289890   8.380   4.477  11.220
29351SOL     OW89891   9.670  10.889   5.281
29351SOL    HW189892   9.594  10.940   5.310
29351SOL    HW289893   9.635  10.802   5.264
29352SOL     OW89894  14.649  10.142   1.990
29352SOL    HW189895  14.645  10.182   1.903
29352SOL    HW289896  14.743  10.136   2.009
29353SOL     OW89897  11.591   0.201   8.258
29353SOL    HW189898  11.655   0.138   8.292
29353SOL    HW289899  11.598   0.193   8.163
29354SOL     OW89900  12.051  11.124   5.181
29354SOL    HW189901  11.958  11.117   5.160
29354SOL    HW289902  12.071  11.043   5.228
29355SOL     OW89903   4.278   9.175   8.169
29355SOL    HW189904   4.287   9.260   8.212
29355SOL    HW289905   4.203   9.186   8.111
29356SOL     OW89906   8.110  13.383  14.547
29356SOL    HW189907   8.097  13.305  14.601
29356SOL    HW289908   8.201  13.409  14.564
29357SOL     OW89909  13.293  14.160   0.857
29357SOL    HW189910  13.225  14.225   0.877
29357SOL    HW289911  13.355  14.207   0.802
29358SOL     OW89912  11.453   0.976   2.770
29358SOL    HW189913  11.529   0.991   2.714
29358SOL    HW289914  11.487   0.927   2.845
29359SOL     OW89915  13.130  11.411   5.586
29359SOL    HW189916  13.112  11.351   5.514
29359SOL    HW289917  13.224  11.428   5.581
29360SOL     OW89918  11.116   1.717   2.638
29360SOL    HW189919  11.186   1.756   2.586
29360SOL    HW289920  11.037   1.734   2.588
29361SOL     OW89921   6.491   9.125   9.532
29361SOL    HW189922   6.530   9.211   9.518
29361SOL    HW289923   6.423   9.140   9.598
29362SOL     OW89924  13.808   8.662   0.401
29362SOL    HW189925  13.791   8.665   0.306
29362SOL    HW289926  13.758   8.736   0.436
29363SOL     OW89927   0.885   9.958   2.803
29363SOL    HW189928   0.950   9.899   2.842
29363SOL    HW289929   0.936  10.032   2.771
29364SOL     OW89930   2.759  10.992   2.991
29364SOL    HW189931   2.854  10.995   2.981
29364SOL    HW289932   2.744  10.995   3.086
29365SOL     OW89933   9.102   3.303  13.229
29365SOL    HW189934   9.037   3.247  13.272
29365SOL    HW289935   9.138   3.249  13.159
29366SOL     OW89936   2.692  14.671   5.443
29366SOL    HW189937   2.756  14.602   5.429
29366SOL    HW289938   2.691  14.720   5.361
29367SOL     OW89939   9.184   1.485   2.033
29367SOL    HW189940   9.167   1.439   1.951
29367SOL    HW289941   9.158   1.423   2.102
29368SOL     OW89942   1.953   1.420   9.259
29368SOL    HW189943   1.965   1.466   9.342
29368SOL    HW289944   1.897   1.478   9.208
29369SOL     OW89945   5.270  13.919   0.602
29369SOL    HW189946   5.226  13.885   0.524
29369SOL    HW289947   5.198  13.942   0.661
29370SOL     OW89948   1.910  12.219   4.527
29370SOL    HW189949   1.948  12.154   4.468
29370SOL    HW289950   1.821  12.188   4.542
29371SOL     OW89951  12.435   7.654  14.401
29371SOL    HW189952  12.515   7.697  14.369
29371SOL    HW289953  12.462   7.606  14.479
29372SOL     OW89954   2.824   3.882  13.136
29372SOL    HW189955   2.825   3.910  13.044
29372SOL    HW289956   2.814   3.787  13.132
29373SOL     OW89957  14.439   5.515   0.772
29373SOL    HW189958  14.531   5.536   0.789
29373SOL    HW289959  14.417   5.568   0.696
29374SOL     OW89960   8.657   3.068  12.617
29374SOL    HW189961   8.680   3.017  12.539
29374SOL    HW289962   8.731   3.128  12.630
29375SOL     OW89963  14.452   8.501   1.581
29375SOL    HW189964  14.515   8.510   1.509
29375SOL    HW289965  14.366   8.509   1.538
29376SOL     OW89966   6.392   7.547   6.722
29376SOL    HW189967   6.407   7.479   6.788
29376SOL    HW289968   6.340   7.504   6.655
29377SOL     OW89969  13.988  14.515   1.195
29377SOL    HW189970  13.999  14.434   1.245
29377SOL    HW289971  14.076  14.542   1.171
29378SOL     OW89972   9.384   0.563  13.142
29378SOL    HW189973   9.435   0.587  13.220
29378SOL    HW289974   9.450   0.538  13.077
29379SOL     OW89975   6.691   1.224   7.383
29379SOL    HW189976   6.752   1.277   7.331
29379SOL    HW289977   6.641   1.288   7.434
29380SOL     OW89978  12.396   1.194  10.814
29380SOL    HW189979  12.379   1.127  10.880
29380SOL    HW289980  12.475   1.239  10.845
29381SOL     OW89981  13.851  12.327   3.890
29381SOL    HW189982  13.822  12.289   3.807
29381SOL    HW289983  13.775  12.319   3.948
29382SOL     OW89984   1.561   7.570   4.141
29382SOL    HW189985   1.647   7.558   4.182
29382SOL    HW289986   1.580   7.593   4.050
29383SOL     OW89987  14.855   1.168   4.151
29383SOL    HW189988   0.062   1.196   4.190
29383SOL    HW289989  14.867   1.075   4.133
29384SOL     OW89990  12.428   4.129   5.960
29384SOL    HW189991  12.490   4.085   6.019
29384SOL    HW289992  12.379   4.057   5.920
29385SOL     OW89993   9.911   8.606   3.374
29385SOL    HW189994   9.859   8.579   3.298
29385SOL    HW289995   9.999   8.571   3.356
29386SOL     OW89996   2.484   9.680   1.168
29386SOL    HW189997   2.501   9.677   1.262
29386SOL    HW289998   2.393   9.709   1.161
29387SOL     OW89999   6.400   9.382   7.811
29387SOL    HW190000   6.401   9.288   7.795
29387SOL    HW290001   6.360   9.392   7.897
29388SOL     OW90002   6.722   2.700  13.687
29388SOL    HW190003   6.796   2.656  13.727
29388SOL    HW290004   6.649   2.639  13.698
29389SOL     OW90005  11.932   4.348   0.803
29389SOL    HW190006  11.906   4.432   0.765
29389SOL    HW290007  11.862   4.326   0.864
29390SOL     OW90008   9.636   4.903   5.689
29390SOL    HW190009   9.547   4.874   5.708
29390SOL    HW290010   9.624   4.978   5.630
29391SOL     OW90011   4.084  12.632  12.688
29391SOL    HW190012   4.175  12.646  12.661
29391SOL    HW290013   4.091  12.606  12.780
29392SOL     OW90014   6.532   4.707   6.153
29392SOL    HW190015   6.530   4.684   6.245
29392SOL    HW290016   6.498   4.796   6.149
29393SOL     OW90017   1.775   4.245   0.142
29393SOL    HW190018   1.732   4.254   0.227
29393SOL    HW290019   1.815   4.331   0.127
29394SOL     OW90020  13.051  11.403   5.121
29394SOL    HW190021  13.031  11.322   5.074
29394SOL    HW290022  13.081  11.373   5.207
29395SOL     OW90023   0.964   0.613   6.996
29395SOL    HW190024   0.997   0.646   6.912
29395SOL    HW290025   0.958   0.519   6.983
29396SOL     OW90026  13.057  14.797   6.254
29396SOL    HW190027  12.988  14.801   6.188
29396SOL    HW290028  13.049  14.710   6.292
29397SOL     OW90029   5.514   9.397  11.009
29397SOL    HW190030   5.583   9.350  10.964
29397SOL    HW290031   5.469   9.331  11.062
29398SOL     OW90032   9.908  12.485  13.400
29398SOL    HW190033   9.993  12.499  13.358
29398SOL    HW290034   9.845  12.483  13.328
29399SOL     OW90035   3.006   8.038  14.391
29399SOL    HW190036   3.014   7.943  14.391
29399SOL    HW290037   3.010   8.062  14.298
29400SOL     OW90038  12.167   5.675   3.785
29400SOL    HW190039  12.138   5.590   3.752
29400SOL    HW290040  12.193   5.723   3.707
29401SOL     OW90041   7.811  12.108   4.889
29401SOL    HW190042   7.722  12.084   4.865
29401SOL    HW290043   7.820  12.081   4.981
29402SOL     OW90044   1.243   7.762  11.130
29402SOL    HW190045   1.337   7.779  11.126
29402SOL    HW290046   1.235   7.685  11.187
29403SOL     OW90047   6.726   1.424  10.876
29403SOL    HW190048   6.691   1.344  10.915
29403SOL    HW290049   6.809   1.439  10.923
29404SOL     OW90050  14.301  13.020   7.090
29404SOL    HW190051  14.271  12.933   7.066
29404SOL    HW290052  14.233  13.079   7.059
29405SOL     OW90053   2.118  11.831   0.230
29405SOL    HW190054   2.062  11.870   0.162
29405SOL    HW290055   2.183  11.899   0.248
29406SOL     OW90056   5.686  11.678   4.693
29406SOL    HW190057   5.602  11.722   4.707
29406SOL    HW290058   5.748  11.727   4.747
29407SOL     OW90059  10.231  10.075   9.581
29407SOL    HW190060  10.323  10.051   9.578
29407SOL    HW290061  10.184   9.991   9.575
29408SOL     OW90062  13.497  12.963  10.487
29408SOL    HW190063  13.452  12.940  10.568
29408SOL    HW290064  13.590  12.963  10.511
29409SOL     OW90065  12.066  10.341  12.863
29409SOL    HW190066  12.153  10.302  12.873
29409SOL    HW290067  12.027  10.336  12.950
29410SOL     OW90068  11.833   1.959   6.109
29410SOL    HW190069  11.795   2.031   6.059
29410SOL    HW290070  11.902   1.924   6.053
29411SOL     OW90071   2.810  14.696   9.827
29411SOL    HW190072   2.866  14.622   9.804
29411SOL    HW290073   2.769  14.670   9.909
29412SOL     OW90074   3.720  13.965   7.751
29412SOL    HW190075   3.664  13.951   7.828
29412SOL    HW290076   3.802  13.923   7.773
29413SOL     OW90077   3.873   4.247  10.454
29413SOL    HW190078   3.927   4.191  10.510
29413SOL    HW290079   3.936   4.297  10.402
29414SOL     OW90080  13.677   9.070  12.454
29414SOL    HW190081  13.674   8.975  12.465
29414SOL    HW290082  13.758   9.096  12.497
29415SOL     OW90083  10.238   2.160   2.837
29415SOL    HW190084  10.188   2.084   2.867
29415SOL    HW290085  10.173   2.229   2.829
29416SOL     OW90086   6.930   5.522  13.130
29416SOL    HW190087   6.891   5.557  13.050
29416SOL    HW290088   6.924   5.593  13.193
29417SOL     OW90089  10.800   3.896   5.183
29417SOL    HW190090  10.839   3.819   5.224
29417SOL    HW290091  10.798   3.962   5.253
29418SOL     OW90092  11.842   5.055   9.568
29418SOL    HW190093  11.808   4.968   9.589
29418SOL    HW290094  11.774   5.115   9.597
29419SOL     OW90095   3.554   3.464  14.670
29419SOL    HW190096   3.598   3.459  14.755
29419SOL    HW290097   3.472   3.417  14.683
29420SOL     OW90098   1.452  14.453   6.532
29420SOL    HW190099   1.357  14.449   6.545
29420SOL    HW290100   1.482  14.363   6.547
29421SOL     OW90101   7.587   0.039   6.678
29421SOL    HW190102   7.521   0.072   6.617
29421SOL    HW290103   7.637   0.116   6.704
29422SOL     OW90104  12.649   2.682  11.653
29422SOL    HW190105  12.562   2.712  11.627
29422SOL    HW290106  12.699   2.682  11.572
29423SOL     OW90107   7.584   8.632   8.174
29423SOL    HW190108   7.652   8.591   8.228
29423SOL    HW290109   7.502   8.591   8.203
29424SOL     OW90110   4.658   3.176  10.558
29424SOL    HW190111   4.745   3.168  10.597
29424SOL    HW290112   4.638   3.088  10.526
29425SOL     OW90113  10.560  11.105  14.343
29425SOL    HW190114  10.608  11.134  14.420
29425SOL    HW290115  10.469  11.098  14.373
29426SOL     OW90116   6.635   5.997   5.482
29426SOL    HW190117   6.637   6.051   5.403
29426SOL    HW290118   6.719   6.013   5.524
29427SOL     OW90119   1.756   9.384   6.850
29427SOL    HW190120   1.674   9.341   6.828
29427SOL    HW290121   1.770   9.365   6.943
29428SOL     OW90122   6.446  14.197   4.451
29428SOL    HW190123   6.534  14.211   4.416
29428SOL    HW290124   6.421  14.281   4.488
29429SOL     OW90125   2.613   2.548   6.191
29429SOL    HW190126   2.588   2.455   6.188
29429SOL    HW290127   2.539   2.594   6.153
29430SOL     OW90128   9.297   5.084   5.390
29430SOL    HW190129   9.346   5.041   5.460
29430SOL    HW290130   9.208   5.094   5.426
29431SOL     OW90131   5.865   9.343  14.228
29431SOL    HW190132   5.774   9.315  14.214
29431SOL    HW290133   5.859   9.437  14.243
29432SOL     OW90134  12.652  11.213   8.509
29432SOL    HW190135  12.712  11.198   8.436
29432SOL    HW290136  12.633  11.307   8.506
29433SOL     OW90137  13.044   2.734   9.170
29433SOL    HW190138  13.138   2.754   9.177
29433SOL    HW290139  13.014   2.727   9.260
29434SOL     OW90140   0.190  12.287   6.171
29434SOL    HW190141   0.134  12.364   6.181
29434SOL    HW290142   0.241  12.283   6.251
29435SOL     OW90143  10.001   1.703  14.689
29435SOL    HW190144  10.046   1.634  14.737
29435SOL    HW290145   9.995   1.670  14.599
29436SOL     OW90146   4.908  13.483   1.363
29436SOL    HW190147   4.835  13.437   1.322
29436SOL    HW290148   4.958  13.413   1.407
29437SOL     OW90149   5.860   6.757  11.281
29437SOL    HW190150   5.947   6.717  11.277
29437SOL    HW290151   5.847   6.796  11.195
29438SOL     OW90152   3.165  12.205   1.346
29438SOL    HW190153   3.133  12.192   1.435
29438SOL    HW290154   3.227  12.134   1.332
29439SOL     OW90155   5.851  13.659   6.457
29439SOL    HW190156   5.897  13.584   6.496
29439SOL    HW290157   5.920  13.713   6.420
29440SOL     OW90158   6.412   6.726   5.356
29440SOL    HW190159   6.476   6.669   5.313
29440SOL    HW290160   6.412   6.697   5.447
29441SOL     OW90161   0.586  13.763  12.754
29441SOL    HW190162   0.543  13.730  12.675
29441SOL    HW290163   0.528  13.738  12.826
29442SOL     OW90164  10.423   3.405   5.249
29442SOL    HW190165  10.409   3.368   5.336
29442SOL    HW290166  10.483   3.479   5.264
29443SOL     OW90167   5.298  14.776   1.064
29443SOL    HW190168   5.357  14.719   1.113
29443SOL    HW290169   5.356  14.838   1.019
29444SOL     OW90170  14.463   2.422  12.596
29444SOL    HW190171  14.542   2.395  12.643
29444SOL    HW290172  14.403   2.453  12.665
29445SOL     OW90173   3.369  11.236   9.049
29445SOL    HW190174   3.316  11.202   9.121
29445SOL    HW290175   3.381  11.329   9.069
29446SOL     OW90176   0.564  14.591  14.201
29446SOL    HW190177   0.598  14.502  14.189
29446SOL    HW290178   0.621  14.630  14.267
29447SOL     OW90179   2.098   8.894   4.466
29447SOL    HW190180   2.009   8.928   4.471
29447SOL    HW290181   2.112   8.854   4.552
29448SOL     OW90182  10.447  12.372   0.187
29448SOL    HW190183  10.498  12.449   0.165
29448SOL    HW290184  10.509  12.299   0.181
29449SOL     OW90185  14.520   7.318   6.410
29449SOL    HW190186  14.593   7.261   6.387
29449SOL    HW290187  14.483   7.346   6.326
29450SOL     OW90188  13.541   3.517  11.842
29450SOL    HW190189  13.528   3.422  11.845
29450SOL    HW290190  13.636   3.528  11.844
29451SOL     OW90191   5.018   1.759   9.841
29451SOL    HW190192   4.927   1.787   9.826
29451SOL    HW290193   5.068   1.803   9.773
29452SOL     OW90194  12.305  11.599   4.790
29452SOL    HW190195  12.286  11.508   4.810
29452SOL    HW290196  12.392  11.614   4.825
29453SOL     OW90197  14.239  11.332   5.601
29453SOL    HW190198  14.328  11.305   5.624
29453SOL    HW290199  14.186  11.253   5.614
29454SOL     OW90200   7.892   2.257   2.601
29454SOL    HW190201   7.979   2.291   2.580
29454SOL    HW290202   7.865   2.211   2.522
29455SOL     OW90203  14.414   3.565   8.787
29455SOL    HW190204  14.357   3.594   8.859
29455SOL    HW290205  14.430   3.645   8.736
29456SOL     OW90206   7.214   7.017   2.533
29456SOL    HW190207   7.301   7.058   2.532
29456SOL    HW290208   7.178   7.037   2.446
29457SOL     OW90209  12.696   4.961   4.255
29457SOL    HW190210  12.742   4.883   4.226
29457SOL    HW290211  12.604   4.934   4.262
29458SOL     OW90212  14.076  11.247   3.552
29458SOL    HW190213  14.161  11.249   3.596
29458SOL    HW290214  14.068  11.158   3.519
29459SOL     OW90215   6.775   9.962  14.365
29459SOL    HW190216   6.690   9.990  14.330
29459SOL    HW290217   6.808   9.899  14.301
29460SOL     OW90218   6.051   7.306  11.916
29460SOL    HW190219   6.094   7.329  11.999
29460SOL    HW290220   6.007   7.386  11.889
29461SOL     OW90221   1.291   4.488   8.327
29461SOL    HW190222   1.356   4.469   8.259
29461SOL    HW290223   1.322   4.570   8.367
29462SOL     OW90224   8.567  13.281   6.306
29462SOL    HW190225   8.649  13.232   6.307
29462SOL    HW290226   8.523  13.254   6.225
29463SOL     OW90227   2.172  12.788   5.624
29463SOL    HW190228   2.211  12.711   5.582
29463SOL    HW290229   2.230  12.860   5.600
29464SOL     OW90230   8.710   6.555   5.600
29464SOL    HW190231   8.656   6.622   5.641
29464SOL    HW290232   8.648   6.493   5.563
29465SOL     OW90233   2.233  12.508   9.166
29465SOL    HW190234   2.188  12.584   9.200
29465SOL    HW290235   2.299  12.544   9.106
29466SOL     OW90236   9.970  12.344  13.006
29466SOL    HW190237   9.922  12.300  13.076
29466SOL    HW290238   9.917  12.421  12.986
29467SOL     OW90239   7.212   8.344  13.057
29467SOL    HW190240   7.167   8.302  12.984
29467SOL    HW290241   7.214   8.277  13.125
29468SOL     OW90242  13.954  12.399   9.736
29468SOL    HW190243  13.965  12.493   9.725
29468SOL    HW290244  14.039  12.362   9.710
29469SOL     OW90245   2.749   4.353   9.624
29469SOL    HW190246   2.796   4.349   9.707
29469SOL    HW290247   2.750   4.263   9.591
29470SOL     OW90248  13.295   3.346   7.992
29470SOL    HW190249  13.287   3.417   7.928
29470SOL    HW290250  13.226   3.285   7.968
29471SOL     OW90251   9.358   5.525  12.856
29471SOL    HW190252   9.322   5.538  12.944
29471SOL    HW290253   9.369   5.614  12.822
29472SOL     OW90254  13.129   3.781   5.735
29472SOL    HW190255  13.068   3.730   5.682
29472SOL    HW290256  13.103   3.872   5.721
29473SOL     OW90257   1.727  12.570  10.704
29473SOL    HW190258   1.822  12.566  10.713
29473SOL    HW290259   1.695  12.508  10.769
29474SOL     OW90260  13.997   5.154   2.560
29474SOL    HW190261  14.024   5.138   2.650
29474SOL    HW290262  13.997   5.249   2.551
29475SOL     OW90263   4.595   7.222   5.785
29475SOL    HW190264   4.637   7.304   5.759
29475SOL    HW290265   4.587   7.172   5.704
29476SOL     OW90266  11.096   4.256   6.315
29476SOL    HW190267  11.138   4.211   6.242
29476SOL    HW290268  11.026   4.308   6.274
29477SOL     OW90269   4.255   5.526  12.946
29477SOL    HW190270   4.310   5.456  12.981
29477SOL    HW290271   4.244   5.504  12.853
29478SOL     OW90272  10.925   4.005   4.024
29478SOL    HW190273  10.870   3.948   4.077
29478SOL    HW290274  10.894   4.093   4.044
29479SOL     OW90275   5.570  10.367   5.001
29479SOL    HW190276   5.591  10.408   4.918
29479SOL    HW290277   5.593  10.433   5.067
29480SOL     OW90278  10.083  10.056  11.018
29480SOL    HW190279  10.010  10.004  11.051
29480SOL    HW290280  10.062  10.146  11.044
29481SOL     OW90281   7.722  13.246   9.809
29481SOL    HW190282   7.644  13.190   9.809
29481SOL    HW290283   7.780  13.208   9.744
29482SOL     OW90284   4.579  13.401  13.141
29482SOL    HW190285   4.673  13.417  13.137
29482SOL    HW290286   4.540  13.489  13.147
29483SOL     OW90287   8.213   1.092   3.655
29483SOL    HW190288   8.180   1.171   3.699
29483SOL    HW290289   8.141   1.029   3.661
29484SOL     OW90290   4.850   7.851  14.023
29484SOL    HW190291   4.863   7.804  13.941
29484SOL    HW290292   4.757   7.842  14.042
29485SOL     OW90293   3.205   8.519  12.109
29485SOL    HW190294   3.147   8.560  12.045
29485SOL    HW290295   3.291   8.556  12.089
29486SOL     OW90296   1.529   4.602  11.567
29486SOL    HW190297   1.559   4.576  11.654
29486SOL    HW290298   1.471   4.531  11.539
29487SOL     OW90299   3.357   7.846  14.348
29487SOL    HW190300   3.413   7.779  14.387
29487SOL    HW290301   3.392   7.857  14.259
29488SOL     OW90302  12.799   9.727   5.870
29488SOL    HW190303  12.762   9.644   5.839
29488SOL    HW290304  12.731   9.792   5.852
29489SOL     OW90305   3.750  10.744   6.496
29489SOL    HW190306   3.737  10.651   6.513
29489SOL    HW290307   3.663  10.782   6.504
29490SOL     OW90308  13.055  13.011  13.620
29490SOL    HW190309  13.010  12.975  13.543
29490SOL    HW290310  13.023  12.959  13.693
29491SOL     OW90311  13.433  12.403   8.598
29491SOL    HW190312  13.337  12.401   8.594
29491SOL    HW290313  13.455  12.364   8.682
29492SOL     OW90314  12.605  14.299   2.282
29492SOL    HW190315  12.537  14.340   2.228
29492SOL    HW290316  12.576  14.208   2.290
29493SOL     OW90317   3.775   9.347  13.586
29493SOL    HW190318   3.773   9.345  13.682
29493SOL    HW290319   3.687   9.319  13.560
29494SOL     OW90320   4.164  10.152   5.693
29494SOL    HW190321   4.170  10.072   5.745
29494SOL    HW290322   4.120  10.215   5.751
29495SOL     OW90323   9.060   4.803   4.627
29495SOL    HW190324   9.098   4.744   4.562
29495SOL    HW290325   9.043   4.884   4.578
29496SOL     OW90326   3.360   7.846   8.960
29496SOL    HW190327   3.270   7.875   8.951
29496SOL    HW290328   3.359   7.785   9.033
29497SOL     OW90329   2.908   9.598  13.707
29497SOL    HW190330   2.943   9.685  13.726
29497SOL    HW290331   2.970   9.561  13.644
29498SOL     OW90332   4.495   4.910   3.081
29498SOL    HW190333   4.532   4.891   3.167
29498SOL    HW290334   4.440   4.988   3.095
29499SOL     OW90335   2.114  13.594   3.355
29499SOL    HW190336   2.079  13.551   3.278
29499SOL    HW290337   2.037  13.612   3.410
29500SOL     OW90338  14.071   6.677   3.012
29500SOL    HW190339  14.015   6.665   2.936
29500SOL    HW290340  14.138   6.739   2.983
29501SOL     OW90341   1.010   2.643   3.463
29501SOL    HW190342   0.987   2.579   3.530
29501SOL    HW290343   0.987   2.727   3.502
29502SOL     OW90344   4.002  13.501  13.340
29502SOL    HW190345   3.907  13.500  13.331
29502SOL    HW290346   4.030  13.415  13.310
29503SOL     OW90347   2.885  11.728   5.143
29503SOL    HW190348   2.966  11.763   5.106
29503SOL    HW290349   2.816  11.758   5.083
29504SOL     OW90350   1.840   9.001   8.881
29504SOL    HW190351   1.763   9.023   8.933
29504SOL    HW290352   1.834   9.056   8.803
29505SOL     OW90353   2.408  12.777   4.435
29505SOL    HW190354   2.355  12.731   4.500
29505SOL    HW290355   2.458  12.840   4.487
29506SOL     OW90356   0.264   5.453   1.353
29506SOL    HW190357   0.327   5.478   1.420
29506SOL    HW290358   0.278   5.517   1.282
29507SOL     OW90359  12.559  10.960  14.582
29507SOL    HW190360  12.635  10.903  14.576
29507SOL    HW290361  12.596  11.046  14.602
29508SOL     OW90362   5.460   1.387  12.005
29508SOL    HW190363   5.448   1.326  12.078
29508SOL    HW290364   5.502   1.336  11.937
29509SOL     OW90365   6.753   8.410  11.795
29509SOL    HW190366   6.679   8.369  11.840
29509SOL    HW290367   6.718   8.433  11.708
29510SOL     OW90368  11.056   8.757   6.628
29510SOL    HW190369  11.090   8.782   6.714
29510SOL    HW290370  11.029   8.840   6.588
29511SOL     OW90371   2.244   9.533   6.941
29511SOL    HW190372   2.334   9.564   6.941
29511SOL    HW290373   2.191   9.611   6.958
29512SOL     OW90374  11.794   9.142  12.459
29512SOL    HW190375  11.725   9.169  12.398
29512SOL    HW290376  11.863   9.207  12.448
29513SOL     OW90377  13.327  10.565   0.627
29513SOL    HW190378  13.292  10.589   0.713
29513SOL    HW290379  13.403  10.510   0.648
29514SOL     OW90380   0.257   3.449   8.143
29514SOL    HW190381   0.268   3.468   8.236
29514SOL    HW290382   0.187   3.384   8.140
29515SOL     OW90383  10.121  12.550   3.390
29515SOL    HW190384  10.062  12.617   3.355
29515SOL    HW290385  10.153  12.504   3.313
29516SOL     OW90386   4.722   9.617   1.866
29516SOL    HW190387   4.643   9.600   1.918
29516SOL    HW290388   4.707   9.571   1.783
29517SOL     OW90389   3.772  13.186   3.518
29517SOL    HW190390   3.724  13.157   3.596
29517SOL    HW290391   3.735  13.272   3.498
29518SOL     OW90392   0.718   8.892   4.163
29518SOL    HW190393   0.733   8.925   4.075
29518SOL    HW290394   0.775   8.815   4.170
29519SOL     OW90395   0.590   0.528  11.420
29519SOL    HW190396   0.672   0.499  11.379
29519SOL    HW290397   0.575   0.464  11.490
29520SOL     OW90398   5.600   3.958  12.444
29520SOL    HW190399   5.627   4.048  12.464
29520SOL    HW290400   5.533   3.968  12.376
29521SOL     OW90401   3.822   1.318   5.413
29521SOL    HW190402   3.765   1.241   5.420
29521SOL    HW290403   3.806   1.367   5.494
29522SOL     OW90404  10.710  14.452   8.591
29522SOL    HW190405  10.792  14.459   8.640
29522SOL    HW290406  10.663  14.533   8.611
29523SOL     OW90407  10.812   1.388  13.805
29523SOL    HW190408  10.786   1.416  13.892
29523SOL    HW290409  10.907   1.374  13.812
29524SOL     OW90410  12.198  11.484  11.085
29524SOL    HW190411  12.272  11.423  11.081
29524SOL    HW290412  12.171  11.494  10.994
29525SOL     OW90413  13.324  11.766   8.958
29525SOL    HW190414  13.326  11.681   8.914
29525SOL    HW290415  13.291  11.746   9.046
29526SOL     OW90416   6.847   2.213  12.281
29526SOL    HW190417   6.831   2.164  12.362
29526SOL    HW290418   6.942   2.229  12.281
29527SOL     OW90419   5.114   2.012  12.440
29527SOL    HW190420   5.202   1.976  12.436
29527SOL    HW290421   5.095   2.018  12.534
29528SOL     OW90422   7.164  12.072  13.269
29528SOL    HW190423   7.216  12.089  13.348
29528SOL    HW290424   7.152  12.157  13.229
29529SOL     OW90425  14.716  14.460   5.425
29529SOL    HW190426  14.800  14.473   5.380
29529SOL    HW290427  14.654  14.444   5.354
29530SOL     OW90428   1.823   5.664   9.599
29530SOL    HW190429   1.841   5.667   9.505
29530SOL    HW290430   1.835   5.572   9.623
29531SOL     OW90431  13.222  13.814  11.077
29531SOL    HW190432  13.195  13.839  11.166
29531SOL    HW290433  13.193  13.723  11.068
29532SOL     OW90434   2.070   2.127   9.326
29532SOL    HW190435   2.016   2.178   9.267
29532SOL    HW290436   2.131   2.190   9.365
29533SOL     OW90437  12.337  14.154   7.340
29533SOL    HW190438  12.303  14.190   7.258
29533SOL    HW290439  12.351  14.061   7.322
29534SOL     OW90440   1.528   6.954   7.616
29534SOL    HW190441   1.606   6.981   7.569
29534SOL    HW290442   1.481   6.897   7.555
29535SOL     OW90443   5.251   1.991   2.548
29535SOL    HW190444   5.275   2.063   2.606
29535SOL    HW290445   5.321   1.988   2.483
29536SOL     OW90446  12.543   1.247   9.992
29536SOL    HW190447  12.636   1.271   9.988
29536SOL    HW290448  12.501   1.301   9.925
29537SOL     OW90449   1.163   9.639   2.139
29537SOL    HW190450   1.080   9.612   2.180
29537SOL    HW290451   1.226   9.574   2.169
29538SOL     OW90452   4.202  13.441   5.490
29538SOL    HW190453   4.243  13.409   5.570
29538SOL    HW290454   4.115  13.401   5.490
29539SOL     OW90455   3.949   2.454   4.508
29539SOL    HW190456   3.952   2.363   4.479
29539SOL    HW290457   4.011   2.500   4.452
29540SOL     OW90458  10.919   7.167   1.331
29540SOL    HW190459  10.954   7.256   1.328
29540SOL    HW290460  10.877   7.162   1.417
29541SOL     OW90461   1.662   1.693  14.506
29541SOL    HW190462   1.664   1.651  14.591
29541SOL    HW290463   1.750   1.683  14.471
29542SOL     OW90464  14.354  13.485   5.119
29542SOL    HW190465  14.447  13.482   5.140
29542SOL    HW290466  14.347  13.550   5.048
29543SOL     OW90467   2.783   8.124   2.064
29543SOL    HW190468   2.818   8.135   2.153
29543SOL    HW290469   2.833   8.186   2.011
29544SOL     OW90470   9.037  14.578  14.201
29544SOL    HW190471   9.113  14.637  14.193
29544SOL    HW290472   9.073  14.497  14.236
29545SOL     OW90473   1.081   5.444  13.216
29545SOL    HW190474   1.083   5.529  13.260
29545SOL    HW290475   1.167   5.405  13.234
29546SOL     OW90476  13.984  11.340   9.654
29546SOL    HW190477  13.935  11.273   9.607
29546SOL    HW290478  14.031  11.389   9.586
29547SOL     OW90479   6.578   3.931   0.208
29547SOL    HW190480   6.618   3.847   0.187
29547SOL    HW290481   6.499   3.908   0.258
29548SOL     OW90482   4.338   9.042  11.869
29548SOL    HW190483   4.374   8.987  11.800
29548SOL    HW290484   4.275   9.100  11.825
29549SOL     OW90485   3.004  14.803  14.634
29549SOL    HW190486   3.040  14.715  14.620
29549SOL    HW290487   3.012  14.845  14.548
29550SOL     OW90488  10.625   6.320   8.495
29550SOL    HW190489  10.705   6.294   8.449
29550SOL    HW290490  10.649   6.313   8.588
29551SOL     OW90491   9.405   1.780  11.189
29551SOL    HW190492   9.319   1.762  11.152
29551SOL    HW290493   9.400   1.747  11.279
29552SOL     OW90494  12.080  11.325  13.744
29552SOL    HW190495  12.128  11.319  13.661
29552SOL    HW290496  12.149  11.333  13.810
29553SOL     OW90497   5.372  14.858  13.392
29553SOL    HW190498   5.464   0.002  13.413
29553SOL    HW290499   5.334  14.830  13.475
29554SOL     OW90500  11.952   4.366   1.476
29554SOL    HW190501  11.955   4.459   1.501
29554SOL    HW290502  11.928   4.368   1.383
29555SOL     OW90503   5.250   5.231   5.097
29555SOL    HW190504   5.160   5.207   5.080
29555SOL    HW290505   5.252   5.253   5.190
29556SOL     OW90506   5.688  14.833   6.920
29556SOL    HW190507   5.618  14.815   6.857
29556SOL    HW290508   5.710  14.746   6.956
29557SOL     OW90509   8.563  10.825  10.694
29557SOL    HW190510   8.569  10.756  10.761
29557SOL    HW290511   8.585  10.906  10.741
29558SOL     OW90512   7.533  12.154   4.196
29558SOL    HW190513   7.485  12.112   4.267
29558SOL    HW290514   7.470  12.215   4.157
29559SOL     OW90515   1.251   3.999  13.976
29559SOL    HW190516   1.266   3.923  13.920
29559SOL    HW290517   1.202   3.965  14.050
29560SOL     OW90518   4.412   2.416   2.100
29560SOL    HW190519   4.338   2.475   2.083
29560SOL    HW290520   4.371   2.330   2.108
29561SOL     OW90521  12.442   0.385   1.095
29561SOL    HW190522  12.426   0.374   1.189
29561SOL    HW290523  12.509   0.454   1.091
29562SOL     OW90524  13.411  11.393  14.629
29562SOL    HW190525  13.434  11.459  14.563
29562SOL    HW290526  13.324  11.363  14.603
29563SOL     OW90527  13.905   2.459   9.314
29563SOL    HW190528  13.851   2.538   9.318
29563SOL    HW290529  13.902   2.433   9.221
29564SOL     OW90530   3.069   9.728   4.757
29564SOL    HW190531   3.140   9.667   4.780
29564SOL    HW290532   3.078   9.739   4.662
29565SOL     OW90533  11.323   2.394   6.787
29565SOL    HW190534  11.246   2.354   6.747
29565SOL    HW290535  11.362   2.447   6.717
29566SOL     OW90536   8.149  14.106   3.825
29566SOL    HW190537   8.129  14.056   3.904
29566SOL    HW290538   8.232  14.150   3.844
29567SOL     OW90539  11.315   7.760   0.084
29567SOL    HW190540  11.221   7.778   0.079
29567SOL    HW290541  11.350   7.835   0.132
29568SOL     OW90542  11.813   3.044  10.578
29568SOL    HW190543  11.843   3.122  10.532
29568SOL    HW290544  11.751   3.003  10.518
29569SOL     OW90545   2.869   1.357   6.721
29569SOL    HW190546   2.895   1.431   6.666
29569SOL    HW290547   2.789   1.324   6.680
29570SOL     OW90548   7.879   1.223   2.793
29570SOL    HW190549   7.822   1.147   2.799
29570SOL    HW290550   7.951   1.195   2.736
29571SOL     OW90551  12.221  10.033   8.861
29571SOL    HW190552  12.265  10.045   8.776
29571SOL    HW290553  12.286   9.988   8.914
29572SOL     OW90554  12.956   3.726  10.819
29572SOL    HW190555  12.902   3.713  10.741
29572SOL    HW290556  12.937   3.816  10.846
29573SOL     OW90557   8.796   2.655   7.985
29573SOL    HW190558   8.705   2.641   8.010
29573SOL    HW290559   8.793   2.674   7.892
29574SOL     OW90560  10.815   1.032  10.716
29574SOL    HW190561  10.880   0.966  10.692
29574SOL    HW290562  10.790   1.073  10.634
29575SOL     OW90563  13.853   4.885   9.677
29575SOL    HW190564  13.936   4.869   9.632
29575SOL    HW290565  13.792   4.823   9.638
29576SOL     OW90566   2.154   4.195   3.941
29576SOL    HW190567   2.134   4.235   3.856
29576SOL    HW290568   2.135   4.102   3.929
29577SOL     OW90569  13.263  13.362   0.840
29577SOL    HW190570  13.329  13.364   0.771
29577SOL    HW290571  13.280  13.440   0.893
29578SOL     OW90572  11.979   4.597   7.751
29578SOL    HW190573  12.038   4.543   7.698
29578SOL    HW290574  11.907   4.620   7.693
29579SOL     OW90575  14.655   0.759   9.143
29579SOL    HW190576  14.733   0.734   9.193
29579SOL    HW290577  14.643   0.688   9.080
29580SOL     OW90578  12.776   0.186  10.142
29580SOL    HW190579  12.827   0.117  10.185
29580SOL    HW290580  12.827   0.266  10.157
29581SOL     OW90581   4.559   8.481   4.189
29581SOL    HW190582   4.608   8.553   4.148
29581SOL    HW290583   4.475   8.480   4.144
29582SOL     OW90584   8.303   1.632  14.786
29582SOL    HW190585   8.349   1.556  14.751
29582SOL    HW290586   8.325   1.704  14.727
29583SOL     OW90587  11.787  11.171   8.902
29583SOL    HW190588  11.794  11.241   8.837
29583SOL    HW290589  11.839  11.202   8.976
29584SOL     OW90590   0.655  14.263   3.069
29584SOL    HW190591   0.561  14.267   3.082
29584SOL    HW290592   0.667  14.267   2.974
29585SOL     OW90593   6.134  11.667   2.263
29585SOL    HW190594   6.106  11.757   2.278
29585SOL    HW290595   6.227  11.667   2.286
29586SOL     OW90596   2.940   9.669   3.264
29586SOL    HW190597   2.949   9.731   3.191
29586SOL    HW290598   2.999   9.702   3.331
29587SOL     OW90599   7.206  11.270   4.918
29587SOL    HW190600   7.219  11.326   4.841
29587SOL    HW290601   7.140  11.206   4.890
29588SOL     OW90602   8.603   1.218   2.290
29588SOL    HW190603   8.566   1.243   2.375
29588SOL    HW290604   8.602   1.298   2.238
29589SOL     OW90605   0.650  11.487   2.402
29589SOL    HW190606   0.638  11.446   2.488
29589SOL    HW290607   0.691  11.419   2.349
29590SOL     OW90608   8.597   8.998   9.779
29590SOL    HW190609   8.594   8.902   9.782
29590SOL    HW290610   8.644   9.018   9.699
29591SOL     OW90611   7.657   8.386   0.078
29591SOL    HW190612   7.721   8.457   0.069
29591SOL    HW290613   7.643   8.378   0.172
29592SOL     OW90614   7.291   9.313   8.357
29592SOL    HW190615   7.217   9.326   8.298
29592SOL    HW290616   7.322   9.224   8.338
29593SOL     OW90617   1.868  10.974  10.620
29593SOL    HW190618   1.831  10.985  10.533
29593SOL    HW290619   1.934  10.905  10.610
29594SOL     OW90620  11.149  12.818   6.771
29594SOL    HW190621  11.113  12.745   6.821
29594SOL    HW290622  11.145  12.892   6.831
29595SOL     OW90623  11.458   7.482  13.702
29595SOL    HW190624  11.414   7.484  13.787
29595SOL    HW290625  11.536   7.537  13.714
29596SOL     OW90626  10.933  13.267   2.908
29596SOL    HW190627  10.843  13.253   2.878
29596SOL    HW290628  10.930  13.351   2.953
29597SOL     OW90629   9.077   2.448   1.720
29597SOL    HW190630   9.099   2.469   1.630
29597SOL    HW290631   9.152   2.397   1.752
29598SOL     OW90632   4.302  12.382  12.040
29598SOL    HW190633   4.343  12.421  12.118
29598SOL    HW290634   4.370  12.324  12.004
29599SOL     OW90635  11.564   7.861  10.158
29599SOL    HW190636  11.572   7.930  10.224
29599SOL    HW290637  11.649   7.860  10.114
29600SOL     OW90638  10.821  14.705   1.974
29600SOL    HW190639  10.748  14.741   2.024
29600SOL    HW290640  10.891  14.695   2.038
29601SOL     OW90641   1.942   0.349  11.152
29601SOL    HW190642   1.970   0.439  11.133
29601SOL    HW290643   2.023   0.297  11.144
29602SOL     OW90644   9.032  10.122  11.754
29602SOL    HW190645   8.998  10.034  11.770
29602SOL    HW290646   9.124  10.108  11.732
29603SOL     OW90647  11.457   6.950   0.104
29603SOL    HW190648  11.373   6.990   0.126
29603SOL    HW290649  11.462   6.872   0.159
29604SOL     OW90650  14.530   5.175   2.277
29604SOL    HW190651  14.590   5.155   2.349
29604SOL    HW290652  14.540   5.269   2.263
29605SOL     OW90653   9.731   1.860   0.127
29605SOL    HW190654   9.707   1.844   0.218
29605SOL    HW290655   9.661   1.916   0.093
29606SOL     OW90656  13.787   6.500  11.693
29606SOL    HW190657  13.809   6.585  11.732
29606SOL    HW290658  13.754   6.522  11.606
29607SOL     OW90659   4.129   7.670  10.895
29607SOL    HW190660   4.152   7.709  10.979
29607SOL    HW290661   4.156   7.579  10.902
29608SOL     OW90662   6.430   3.758   9.457
29608SOL    HW190663   6.468   3.762   9.369
29608SOL    HW290664   6.371   3.682   9.454
29609SOL     OW90665   2.135   2.705   1.266
29609SOL    HW190666   2.105   2.628   1.218
29609SOL    HW290667   2.167   2.764   1.197
29610SOL     OW90668   3.002  10.612   9.733
29610SOL    HW190669   3.064  10.563   9.678
29610SOL    HW290670   2.916  10.591   9.695
29611SOL     OW90671   9.826   6.823   6.915
29611SOL    HW190672   9.867   6.894   6.965
29611SOL    HW290673   9.881   6.747   6.934
29612SOL     OW90674   7.204   5.415   7.990
29612SOL    HW190675   7.150   5.337   7.974
29612SOL    HW290676   7.274   5.408   7.925
29613SOL     OW90677   3.443  12.250   5.185
29613SOL    HW190678   3.500  12.305   5.239
29613SOL    HW290679   3.502  12.209   5.122
29614SOL     OW90680   4.964   7.384   1.453
29614SOL    HW190681   4.885   7.413   1.408
29614SOL    HW290682   5.012   7.333   1.387
29615SOL     OW90683  10.780   0.930   6.667
29615SOL    HW190684  10.745   1.016   6.646
29615SOL    HW290685  10.780   0.927   6.763
29616SOL     OW90686   4.894  13.440   7.458
29616SOL    HW190687   4.825  13.420   7.395
29616SOL    HW290688   4.932  13.355   7.479
29617SOL     OW90689  12.949   7.764  10.444
29617SOL    HW190690  12.999   7.739  10.522
29617SOL    HW290691  12.858   7.768  10.474
29618SOL     OW90692   5.709   6.902   8.514
29618SOL    HW190693   5.673   6.871   8.597
29618SOL    HW290694   5.640   6.886   8.450
29619SOL     OW90695   1.704   2.687   6.269
29619SOL    HW190696   1.733   2.769   6.228
29619SOL    HW290697   1.711   2.622   6.199
29620SOL     OW90698   8.937   5.181  12.374
29620SOL    HW190699   8.967   5.151  12.460
29620SOL    HW290700   8.867   5.121  12.351
29621SOL     OW90701  14.459  11.012  10.607
29621SOL    HW190702  14.484  11.105  10.611
29621SOL    HW290703  14.441  10.997  10.514
29622SOL     OW90704   8.087   1.539  13.950
29622SOL    HW190705   8.065   1.575  13.864
29622SOL    HW290706   8.161   1.481  13.934
29623SOL     OW90707  10.796  13.889   4.273
29623SOL    HW190708  10.810  13.908   4.366
29623SOL    HW290709  10.848  13.954   4.227
29624SOL     OW90710  10.065  11.687  12.670
29624SOL    HW190711  10.041  11.759  12.729
29624SOL    HW290712  10.113  11.731  12.599
29625SOL     OW90713   6.298   4.942   8.272
29625SOL    HW190714   6.205   4.936   8.254
29625SOL    HW290715   6.331   5.006   8.209
29626SOL     OW90716   1.289   4.593  10.349
29626SOL    HW190717   1.377   4.585  10.385
29626SOL    HW290718   1.302   4.631  10.262
29627SOL     OW90719  12.050   8.438   8.157
29627SOL    HW190720  12.103   8.442   8.237
29627SOL    HW290721  12.105   8.390   8.095
29628SOL     OW90722   9.020   0.179   7.751
29628SOL    HW190723   8.941   0.200   7.802
29628SOL    HW290724   8.997   0.202   7.661
29629SOL     OW90725  14.276  12.728  10.605
29629SOL    HW190726  14.299  12.792  10.673
29629SOL    HW290727  14.303  12.644  10.641
29630SOL     OW90728  13.345   0.178   4.253
29630SOL    HW190729  13.386   0.153   4.336
29630SOL    HW290730  13.376   0.267   4.236
29631SOL     OW90731   4.631   2.280   2.450
29631SOL    HW190732   4.548   2.327   2.463
29631SOL    HW290733   4.611   2.189   2.471
29632SOL     OW90734   7.678   6.752   8.599
29632SOL    HW190735   7.599   6.756   8.545
29632SOL    HW290736   7.706   6.843   8.608
29633SOL     OW90737   2.103  12.826   9.754
29633SOL    HW190738   2.187  12.781   9.742
29633SOL    HW290739   2.041  12.755   9.773
29634SOL     OW90740   5.234   8.116   4.758
29634SOL    HW190741   5.142   8.130   4.781
29634SOL    HW290742   5.231   8.052   4.687
29635SOL     OW90743   0.617  14.820   4.346
29635SOL    HW190744   0.555  14.773   4.402
29635SOL    HW290745   0.680  14.858   4.407
29636SOL     OW90746  11.967   0.155   3.208
29636SOL    HW190747  11.916   0.109   3.275
29636SOL    HW290748  11.911   0.229   3.182
29637SOL     OW90749   9.431   7.531   1.972
29637SOL    HW190750   9.510   7.493   1.935
29637SOL    HW290751   9.364   7.517   1.905
29638SOL     OW90752  11.920   2.559  12.849
29638SOL    HW190753  11.849   2.602  12.897
29638SOL    HW290754  11.999   2.602  12.879
29639SOL     OW90755   7.314   1.806   5.302
29639SOL    HW190756   7.337   1.849   5.385
29639SOL    HW290757   7.373   1.846   5.238
29640SOL     OW90758   9.466  11.435   2.588
29640SOL    HW190759   9.494  11.463   2.500
29640SOL    HW290760   9.425  11.514   2.625
29641SOL     OW90761   8.248   9.493   7.556
29641SOL    HW190762   8.191   9.458   7.624
29641SOL    HW290763   8.325   9.435   7.557
29642SOL     OW90764   4.711   3.971  13.259
29642SOL    HW190765   4.700   3.940  13.349
29642SOL    HW290766   4.668   3.904  13.206
29643SOL     OW90767   2.239   6.253   0.128
29643SOL    HW190768   2.259   6.347   0.136
29643SOL    HW290769   2.145   6.247   0.146
29644SOL     OW90770   8.230  10.941   5.629
29644SOL    HW190771   8.281  11.021   5.643
29644SOL    HW290772   8.278  10.874   5.677
29645SOL     OW90773   3.029  14.749   7.954
29645SOL    HW190774   3.035  14.818   7.889
29645SOL    HW290775   2.968  14.784   8.020
29646SOL     OW90776   7.673   4.462  11.655
29646SOL    HW190777   7.719   4.539  11.621
29646SOL    HW290778   7.585   4.495  11.676
29647SOL     OW90779   0.769   2.042   5.331
29647SOL    HW190780   0.817   2.037   5.413
29647SOL    HW290781   0.837   2.045   5.263
29648SOL     OW90782  11.660  13.343   9.174
29648SOL    HW190783  11.680  13.263   9.125
29648SOL    HW290784  11.702  13.412   9.124
29649SOL     OW90785   8.792   8.130  14.679
29649SOL    HW190786   8.842   8.209  14.657
29649SOL    HW290787   8.784   8.083  14.596
29650SOL     OW90788  10.242  13.038  12.804
29650SOL    HW190789  10.315  13.090  12.836
29650SOL    HW290790  10.236  13.060  12.711
29651SOL     OW90791   0.600   7.787   3.495
29651SOL    HW190792   0.562   7.701   3.478
29651SOL    HW290793   0.680   7.790   3.443
29652SOL     OW90794  14.356   6.387   0.091
29652SOL    HW190795  14.378   6.480   0.095
29652SOL    HW290796  14.440   6.342   0.099
29653SOL     OW90797   2.270  10.825   1.145
29653SOL    HW190798   2.338  10.807   1.210
29653SOL    HW290799   2.283  10.758   1.078
29654SOL     OW90800  10.846   4.095   1.025
29654SOL    HW190801  10.783   4.033   1.061
29654SOL    HW290802  10.854   4.163   1.093
29655SOL     OW90803  11.794   5.139  12.498
29655SOL    HW190804  11.763   5.111  12.584
29655SOL    HW290805  11.726   5.108  12.437
29656SOL     OW90806   1.025   7.956  12.009
29656SOL    HW190807   0.992   7.868  12.027
29656SOL    HW290808   0.966   8.014  12.057
29657SOL     OW90809   9.475   3.885  12.590
29657SOL    HW190810   9.502   3.911  12.678
29657SOL    HW290811   9.538   3.817  12.566
29658SOL     OW90812   5.505   4.449   0.389
29658SOL    HW190813   5.467   4.407   0.467
29658SOL    HW290814   5.598   4.426   0.393
29659SOL     OW90815  10.539  13.898  10.425
29659SOL    HW190816  10.563  13.936  10.340
29659SOL    HW290817  10.528  13.805  10.408
29660SOL     OW90818   3.720  12.559   8.162
29660SOL    HW190819   3.772  12.515   8.094
29660SOL    HW290820   3.664  12.620   8.114
29661SOL     OW90821   1.495   6.022   2.321
29661SOL    HW190822   1.419   6.079   2.312
29661SOL    HW290823   1.470   5.940   2.279
29662SOL     OW90824  10.023   0.227   5.363
29662SOL    HW190825  10.039   0.243   5.270
29662SOL    HW290826  10.026   0.132   5.372
29663SOL     OW90827   3.692   8.865  12.314
29663SOL    HW190828   3.669   8.783  12.270
29663SOL    HW290829   3.634   8.869  12.389
29664SOL     OW90830   1.616   0.010   7.048
29664SOL    HW190831   1.571  14.804   7.027
29664SOL    HW290832   1.709  14.865   7.044
29665SOL     OW90833   9.001   4.841  10.427
29665SOL    HW190834   8.917   4.809  10.393
29665SOL    HW290835   9.036   4.896  10.356
29666SOL     OW90836  12.520   3.479   4.818
29666SOL    HW190837  12.432   3.510   4.800
29666SOL    HW290838  12.577   3.551   4.790
29667SOL     OW90839   8.171   9.252   7.951
29667SOL    HW190840   8.117   9.273   8.028
29667SOL    HW290841   8.260   9.269   7.980
29668SOL     OW90842  11.548  12.110   2.865
29668SOL    HW190843  11.583  12.150   2.944
29668SOL    HW290844  11.484  12.046   2.896
29669SOL     OW90845  10.516   9.136   5.802
29669SOL    HW190846  10.488   9.161   5.890
29669SOL    HW290847  10.437   9.140   5.750
29670SOL     OW90848  12.275   1.719   5.863
29670SOL    HW190849  12.262   1.739   5.956
29670SOL    HW290850  12.222   1.642   5.848
29671SOL     OW90851   1.075   8.864   2.288
29671SOL    HW190852   1.099   8.902   2.203
29671SOL    HW290853   1.140   8.795   2.303
29672SOL     OW90854   2.259   5.203  13.777
29672SOL    HW190855   2.291   5.275  13.722
29672SOL    HW290856   2.251   5.129  13.716
29673SOL     OW90857   4.532  14.315  11.583
29673SOL    HW190858   4.607  14.261  11.559
29673SOL    HW290859   4.522  14.377  11.511
29674SOL     OW90860  10.426  13.331   0.051
29674SOL    HW190861  10.331  13.323   0.039
29674SOL    HW290862  10.437  13.369   0.138
29675SOL     OW90863   7.499   1.713   3.332
29675SOL    HW190864   7.500   1.734   3.425
29675SOL    HW290865   7.592   1.716   3.306
29676SOL     OW90866   8.102   4.520   4.036
29676SOL    HW190867   8.073   4.603   4.073
29676SOL    HW290868   8.082   4.526   3.943
29677SOL     OW90869   7.211  13.337  11.628
29677SOL    HW190870   7.302  13.366  11.630
29677SOL    HW290871   7.214  13.248  11.663
29678SOL     OW90872   1.604  11.476   3.746
29678SOL    HW190873   1.679  11.423   3.771
29678SOL    HW290874   1.622  11.501   3.655
29679SOL     OW90875   0.437  11.660   8.686
29679SOL    HW190876   0.510  11.664   8.625
29679SOL    HW290877   0.370  11.717   8.647
29680SOL     OW90878   8.088   7.059   4.550
29680SOL    HW190879   8.129   7.142   4.570
29680SOL    HW290880   7.994   7.075   4.562
29681SOL     OW90881   9.533   0.774   0.974
29681SOL    HW190882   9.473   0.788   1.047
29681SOL    HW290883   9.574   0.859   0.960
29682SOL     OW90884   2.487   4.327   3.933
29682SOL    HW190885   2.527   4.241   3.920
29682SOL    HW290886   2.404   4.307   3.978
29683SOL     OW90887   4.452   7.542   6.780
29683SOL    HW190888   4.517   7.500   6.725
29683SOL    HW290889   4.502   7.603   6.835
29684SOL     OW90890  12.986   0.768  13.920
29684SOL    HW190891  12.921   0.765  13.850
29684SOL    HW290892  12.971   0.852  13.964
29685SOL     OW90893   8.650   6.122   9.359
29685SOL    HW190894   8.615   6.035   9.343
29685SOL    HW290895   8.656   6.128   9.455
29686SOL     OW90896   6.270  11.918   2.997
29686SOL    HW190897   6.351  11.965   3.013
29686SOL    HW290898   6.228  11.964   2.924
29687SOL     OW90899   7.013   5.534   7.269
29687SOL    HW190900   6.970   5.449   7.259
29687SOL    HW290901   7.082   5.534   7.203
29688SOL     OW90902  11.715  12.220  13.936
29688SOL    HW190903  11.754  12.294  13.982
29688SOL    HW290904  11.625  12.247  13.918
29689SOL     OW90905  11.231  13.828  13.415
29689SOL    HW190906  11.263  13.782  13.338
29689SOL    HW290907  11.198  13.912  13.381
29690SOL     OW90908   0.695   6.877   7.972
29690SOL    HW190909   0.760   6.880   8.042
29690SOL    HW290910   0.706   6.960   7.925
29691SOL     OW90911   8.255   0.974   7.368
29691SOL    HW190912   8.279   1.066   7.355
29691SOL    HW290913   8.310   0.946   7.441
29692SOL     OW90914   6.399   9.780   1.070
29692SOL    HW190915   6.304   9.785   1.083
29692SOL    HW290916   6.416   9.689   1.047
29693SOL     OW90917   7.936   4.702  11.088
29693SOL    HW190918   7.967   4.774  11.143
29693SOL    HW290919   7.915   4.744  11.004
29694SOL     OW90920   7.267   7.987  12.854
29694SOL    HW190921   7.267   7.971  12.948
29694SOL    HW290922   7.360   7.985  12.829
29695SOL     OW90923  12.716  12.860  14.018
29695SOL    HW190924  12.737  12.878  14.110
29695SOL    HW290925  12.679  12.772  14.018
29696SOL     OW90926   4.400  11.075  12.827
29696SOL    HW190927   4.435  10.991  12.800
29696SOL    HW290928   4.308  11.058  12.847
29697SOL     OW90929   9.921   3.321  14.820
29697SOL    HW190930   9.886   3.244  14.865
29697SOL    HW290931   9.966   3.371   0.012
29698SOL     OW90932   8.765   2.157   1.498
29698SOL    HW190933   8.797   2.086   1.554
29698SOL    HW290934   8.800   2.136   1.411
29699SOL     OW90935   8.992   3.281   2.497
29699SOL    HW190936   8.947   3.364   2.515
29699SOL    HW290937   8.922   3.217   2.490
29700SOL     OW90938  12.133  10.186   4.921
29700SOL    HW190939  12.114  10.275   4.889
29700SOL    HW290940  12.047  10.144   4.926
29701SOL     OW90941  12.470   0.756  12.113
29701SOL    HW190942  12.485   0.849  12.099
29701SOL    HW290943  12.558   0.718  12.117
29702SOL     OW90944   3.510   8.260  10.659
29702SOL    HW190945   3.554   8.246  10.743
29702SOL    HW290946   3.420   8.231  10.674
29703SOL     OW90947   7.793   2.815   1.577
29703SOL    HW190948   7.880   2.780   1.558
29703SOL    HW290949   7.736   2.777   1.510
29704SOL     OW90950   3.709   3.748   3.327
29704SOL    HW190951   3.662   3.714   3.251
29704SOL    HW290952   3.790   3.698   3.330
29705SOL     OW90953   2.744   3.758  12.119
29705SOL    HW190954   2.822   3.807  12.147
29705SOL    HW290955   2.778   3.671  12.096
29706SOL     OW90956  10.496   8.950   8.646
29706SOL    HW190957  10.545   8.900   8.582
29706SOL    HW290958  10.465   9.027   8.598
29707SOL     OW90959   8.688  14.201   7.578
29707SOL    HW190960   8.631  14.192   7.654
29707SOL    HW290961   8.768  14.155   7.602
29708SOL     OW90962   9.180   1.386  10.173
29708SOL    HW190963   9.242   1.435  10.118
29708SOL    HW290964   9.234   1.343  10.239
29709SOL     OW90965   6.910  14.524   4.784
29709SOL    HW190966   6.831  14.521   4.838
29709SOL    HW290967   6.975  14.473   4.831
29710SOL     OW90968   0.856  13.233  11.621
29710SOL    HW190969   0.847  13.138  11.634
29710SOL    HW290970   0.856  13.268  11.710
29711SOL     OW90971   9.009   4.270   6.103
29711SOL    HW190972   9.065   4.347   6.097
29711SOL    HW290973   9.002   4.238   6.013
29712SOL     OW90974  11.182  12.773   1.490
29712SOL    HW190975  11.141  12.815   1.565
29712SOL    HW290976  11.217  12.845   1.438
29713SOL     OW90977  11.168  13.210   3.630
29713SOL    HW190978  11.148  13.281   3.569
29713SOL    HW290979  11.176  13.132   3.574
29714SOL     OW90980  13.945   6.425  12.027
29714SOL    HW190981  14.009   6.399  12.094
29714SOL    HW290982  13.998   6.459  11.955
29715SOL     OW90983  13.434   1.380   9.239
29715SOL    HW190984  13.463   1.466   9.268
29715SOL    HW290985  13.471   1.319   9.302
29716SOL     OW90986   6.638   5.977   9.486
29716SOL    HW190987   6.626   6.023   9.403
29716SOL    HW290988   6.554   5.987   9.531
29717SOL     OW90989   6.456   0.191  13.002
29717SOL    HW190990   6.446   0.234  12.917
29717SOL    HW290991   6.432   0.259  13.065
29718SOL     OW90992   0.203   0.260  12.748
29718SOL    HW190993   0.271   0.306  12.797
29718SOL    HW290994   0.229   0.168  12.750
29719SOL     OW90995   5.104   8.162   7.490
29719SOL    HW190996   5.152   8.177   7.572
29719SOL    HW290997   5.171   8.173   7.422
29720SOL     OW90998   4.838   3.968   1.662
29720SOL    HW190999   4.774   4.031   1.628
29720SOL    HW291000   4.892   4.020   1.722
29721SOL     OW91001   4.611   7.092   5.538
29721SOL    HW191002   4.548   7.033   5.496
29721SOL    HW291003   4.695   7.069   5.499
29722SOL     OW91004  11.690   5.602   5.743
29722SOL    HW191005  11.656   5.521   5.707
29722SOL    HW291006  11.741   5.576   5.819
29723SOL     OW91007  10.173  12.028  11.417
29723SOL    HW191008  10.152  11.954  11.474
29723SOL    HW291009  10.237  11.993  11.354
29724SOL     OW91010  10.089   2.919   4.125
29724SOL    HW191011  10.096   2.949   4.034
29724SOL    HW291012  10.037   2.987   4.169
29725SOL     OW91013  12.735   6.684   5.678
29725SOL    HW191014  12.767   6.633   5.603
29725SOL    HW291015  12.678   6.624   5.725
29726SOL     OW91016   9.791  13.063   5.349
29726SOL    HW191017   9.812  13.150   5.316
29726SOL    HW291018   9.697  13.063   5.361
29727SOL     OW91019  10.382   2.206   0.548
29727SOL    HW191020  10.314   2.178   0.487
29727SOL    HW291021  10.411   2.291   0.514
29728SOL     OW91022   7.084  12.185   5.066
29728SOL    HW191023   7.079  12.280   5.058
29728SOL    HW291024   6.995  12.158   5.090
29729SOL     OW91025   2.542   5.412   6.601
29729SOL    HW191026   2.590   5.494   6.596
29729SOL    HW291027   2.463   5.433   6.651
29730SOL     OW91028   0.140   7.987   6.420
29730SOL    HW191029   0.148   8.082   6.427
29730SOL    HW291030   0.228   7.954   6.439
29731SOL     OW91031  12.490   1.263   0.247
29731SOL    HW191032  12.523   1.240   0.334
29731SOL    HW291033  12.412   1.208   0.236
29732SOL     OW91034  11.468  11.537   5.213
29732SOL    HW191035  11.399  11.590   5.174
29732SOL    HW291036  11.548  11.564   5.167
29733SOL     OW91037   5.057  11.939  11.753
29733SOL    HW191038   5.082  12.024  11.790
29733SOL    HW291039   5.095  11.940  11.665
29734SOL     OW91040   7.023  13.941   3.331
29734SOL    HW191041   7.034  13.863   3.276
29734SOL    HW291042   6.985  13.908   3.413
29735SOL     OW91043   2.937   3.920   1.858
29735SOL    HW191044   2.960   3.831   1.882
29735SOL    HW291045   3.019   3.969   1.868
29736SOL     OW91046  13.963  10.408   5.488
29736SOL    HW191047  13.937  10.498   5.466
29736SOL    HW291048  13.932  10.355   5.414
29737SOL     OW91049   4.196  14.455   5.345
29737SOL    HW191050   4.196  14.362   5.325
29737SOL    HW291051   4.211  14.498   5.260
29738SOL     OW91052  12.324   0.333  13.423
29738SOL    HW191053  12.259   0.397  13.452
29738SOL    HW291054  12.272   0.265  13.380
29739SOL     OW91055  11.991   6.036   0.066
29739SOL    HW191056  11.937   6.035   0.145
29739SOL    HW291057  12.003   5.944   0.043
29740SOL     OW91058   3.132   6.386   0.528
29740SOL    HW191059   3.149   6.458   0.467
29740SOL    HW291060   3.040   6.365   0.516
29741SOL     OW91061  12.767   3.672  13.324
29741SOL    HW191062  12.699   3.739  13.336
29741SOL    HW291063  12.718   3.592  13.304
29742SOL     OW91064   5.227   0.393   7.708
29742SOL    HW191065   5.274   0.315   7.677
29742SOL    HW291066   5.275   0.467   7.669
29743SOL     OW91067  13.592   8.553   8.705
29743SOL    HW191068  13.606   8.642   8.672
29743SOL    HW291069  13.569   8.503   8.627
29744SOL     OW91070  12.906   7.249   6.071
29744SOL    HW191071  12.858   7.291   6.000
29744SOL    HW291072  12.957   7.320   6.112
29745SOL     OW91073   8.134  10.661  12.758
29745SOL    HW191074   8.167  10.674  12.847
29745SOL    HW291075   8.174  10.580  12.728
29746SOL     OW91076   5.179  12.490  11.810
29746SOL    HW191077   5.192  12.547  11.734
29746SOL    HW291078   5.226  12.535  11.881
29747SOL     OW91079   9.427  10.885   6.105
29747SOL    HW191080   9.486  10.946   6.149
29747SOL    HW291081   9.372  10.942   6.050
29748SOL     OW91082   5.987   3.809   7.871
29748SOL    HW191083   6.031   3.725   7.866
29748SOL    HW291084   6.050   3.872   7.834
29749SOL     OW91085  14.776   9.569  14.091
29749SOL    HW191086  14.840   9.608  14.031
29749SOL    HW291087  14.785   9.618  14.172
29750SOL     OW91088   4.169   9.779   9.072
29750SOL    HW191089   4.156   9.750   8.981
29750SOL    HW291090   4.264   9.777   9.084
29751SOL     OW91091   2.602   4.703   6.558
29751SOL    HW191092   2.571   4.728   6.471
29751SOL    HW291093   2.561   4.766   6.617
29752SOL     OW91094   7.133   4.748   8.931
29752SOL    HW191095   7.194   4.695   8.878
29752SOL    HW291096   7.185   4.823   8.959
29753SOL     OW91097  12.944  13.003   3.982
29753SOL    HW191098  13.027  12.954   3.974
29753SOL    HW291099  12.915  12.986   4.071
29754SOL     OW91100   5.425   2.650   0.947
29754SOL    HW191101   5.476   2.610   1.017
29754SOL    HW291102   5.385   2.575   0.902
29755SOL     OW91103  13.854  12.650   6.278
29755SOL    HW191104  13.788  12.672   6.212
29755SOL    HW291105  13.815  12.577   6.326
29756SOL     OW91106  10.182   4.909   2.180
29756SOL    HW191107  10.202   4.822   2.215
29756SOL    HW291108  10.153   4.960   2.256
29757SOL     OW91109   5.482  11.232  13.484
29757SOL    HW191110   5.529  11.199  13.560
29757SOL    HW291111   5.478  11.158  13.423
29758SOL     OW91112   7.302   8.810   8.230
29758SOL    HW191113   7.242   8.739   8.205
29758SOL    HW291114   7.369   8.767   8.282
29759SOL     OW91115  11.139   4.191  14.162
29759SOL    HW191116  11.063   4.136  14.178
29759SOL    HW291117  11.188   4.146  14.093
29760SOL     OW91118   3.427   4.855   7.381
29760SOL    HW191119   3.516   4.861   7.345
29760SOL    HW291120   3.439   4.816   7.468
29761SOL     OW91121  14.661   9.238   1.294
29761SOL    HW191122  14.700   9.313   1.340
29761SOL    HW291123  14.736   9.189   1.260
29762SOL     OW91124   0.769   8.707  10.518
29762SOL    HW191125   0.773   8.619  10.481
29762SOL    HW291126   0.707   8.700  10.591
29763SOL     OW91127   1.897   6.493  10.671
29763SOL    HW191128   1.831   6.429  10.643
29763SOL    HW291129   1.866   6.523  10.756
29764SOL     OW91130   8.718   8.219   3.778
29764SOL    HW191131   8.807   8.215   3.812
29764SOL    HW291132   8.666   8.259   3.848
29765SOL     OW91133  11.673  14.414   5.822
29765SOL    HW191134  11.674  14.333   5.771
29765SOL    HW291135  11.763  14.445   5.820
29766SOL     OW91136   4.804  11.296   3.882
29766SOL    HW191137   4.749  11.371   3.861
29766SOL    HW291138   4.763  11.259   3.961
29767SOL     OW91139  12.352   7.072  14.732
29767SOL    HW191140  12.393   7.066  14.819
29767SOL    HW291141  12.269   7.026  14.741
29768SOL     OW91142  12.563   3.902   9.013
29768SOL    HW191143  12.504   3.839   9.055
29768SOL    HW291144  12.651   3.868   9.030
29769SOL     OW91145   7.389  12.150  13.877
29769SOL    HW191146   7.365  12.058  13.861
29769SOL    HW291147   7.466  12.164  13.821
29770SOL     OW91148  11.185   3.804  12.245
29770SOL    HW191149  11.150   3.849  12.321
29770SOL    HW291150  11.252   3.745  12.280
29771SOL     OW91151   8.815   5.539  13.936
29771SOL    HW191152   8.840   5.600  14.006
29771SOL    HW291153   8.777   5.595  13.869
29772SOL     OW91154   7.096   7.739   4.076
29772SOL    HW191155   7.059   7.786   4.151
29772SOL    HW291156   7.126   7.656   4.113
29773SOL     OW91157   7.410   6.896   1.969
29773SOL    HW191158   7.405   6.982   2.012
29773SOL    HW291159   7.376   6.912   1.881
29774SOL     OW91160  14.517  11.241  12.357
29774SOL    HW191161  14.587  11.178  12.337
29774SOL    HW291162  14.508  11.293  12.277
29775SOL     OW91163   3.045   2.225   9.218
29775SOL    HW191164   3.023   2.178   9.137
29775SOL    HW291165   3.126   2.271   9.197
29776SOL     OW91166   9.194   2.561   5.323
29776SOL    HW191167   9.142   2.485   5.298
29776SOL    HW291168   9.254   2.527   5.390
29777SOL     OW91169   9.516  12.200   4.449
29777SOL    HW191170   9.512  12.139   4.376
29777SOL    HW291171   9.425  12.225   4.466
29778SOL     OW91172   2.523   1.736  13.808
29778SOL    HW191173   2.505   1.646  13.836
29778SOL    HW291174   2.584   1.770  13.873
29779SOL     OW91175   0.570   1.971   8.317
29779SOL    HW191176   0.609   1.946   8.400
29779SOL    HW291177   0.642   1.965   8.254
29780SOL     OW91178  11.349   7.785   7.765
29780SOL    HW191179  11.305   7.786   7.851
29780SOL    HW291180  11.293   7.840   7.710
29781SOL     OW91181   0.454   7.280   7.664
29781SOL    HW191182   0.438   7.263   7.756
29781SOL    HW291183   0.385   7.341   7.638
29782SOL     OW91184   1.999   4.532   1.985
29782SOL    HW191185   2.087   4.571   1.982
29782SOL    HW291186   1.958   4.561   1.904
29783SOL     OW91187  10.918  11.624   3.394
29783SOL    HW191188  10.881  11.535   3.398
29783SOL    HW291189  10.873  11.665   3.320
29784SOL     OW91190  10.223   0.952   6.653
29784SOL    HW191191  10.269   1.023   6.697
29784SOL    HW291192  10.292   0.891   6.627
29785SOL     OW91193  11.194   1.958  13.316
29785SOL    HW191194  11.216   2.047  13.287
29785SOL    HW291195  11.242   1.901  13.256
29786SOL     OW91196  14.868   2.325   2.274
29786SOL    HW191197   0.026   2.298   2.359
29786SOL    HW291198  14.857   2.419   2.281
29787SOL     OW91199   9.798   4.097  14.439
29787SOL    HW191200   9.792   4.004  14.460
29787SOL    HW291201   9.753   4.106  14.355
29788SOL     OW91202   5.855   3.974  12.152
29788SOL    HW191203   5.944   3.982  12.186
29788SOL    HW291204   5.823   4.065  12.149
29789SOL     OW91205   9.193   6.212   9.011
29789SOL    HW191206   9.167   6.284   8.953
29789SOL    HW291207   9.188   6.248   9.099
29790SOL     OW91208  11.695  12.662  13.861
29790SOL    HW191209  11.760  12.694  13.798
29790SOL    HW291210  11.662  12.741  13.904
29791SOL     OW91211   9.438   6.512  11.391
29791SOL    HW191212   9.416   6.521  11.483
29791SOL    HW291213   9.500   6.439  11.388
29792SOL     OW91214   5.354   3.544   6.333
29792SOL    HW191215   5.305   3.627   6.329
29792SOL    HW291216   5.356   3.523   6.427
29793SOL     OW91217   4.713   3.190   3.958
29793SOL    HW191218   4.708   3.263   4.020
29793SOL    HW291219   4.623   3.158   3.952
29794SOL     OW91220   3.308   7.429  14.367
29794SOL    HW191221   3.216   7.451  14.352
29794SOL    HW291222   3.354   7.467  14.292
29795SOL     OW91223  11.053   1.364   0.896
29795SOL    HW191224  11.062   1.458   0.882
29795SOL    HW291225  11.133   1.339   0.944
29796SOL     OW91226   4.175   9.980   9.461
29796SOL    HW191227   4.118   9.948   9.531
29796SOL    HW291228   4.238   9.909   9.447
29797SOL     OW91229   6.312  14.273   9.735
29797SOL    HW191230   6.276  14.228   9.658
29797SOL    HW291231   6.236  14.314   9.776
29798SOL     OW91232   7.847   8.675  14.454
29798SOL    HW191233   7.761   8.704  14.422
29798SOL    HW291234   7.896   8.655  14.374
29799SOL     OW91235   5.257  12.465   4.139
29799SOL    HW191236   5.253  12.405   4.214
29799SOL    HW291237   5.237  12.409   4.063
29800SOL     OW91238   0.289   8.033   5.881
29800SOL    HW191239   0.235   7.958   5.905
29800SOL    HW291240   0.325   8.064   5.964
29801SOL     OW91241  12.830  10.895  11.885
29801SOL    HW191242  12.743  10.869  11.917
29801SOL    HW291243  12.828  10.878  11.791
29802SOL     OW91244   5.769   2.996  14.650
29802SOL    HW191245   5.864   2.994  14.659
29802SOL    HW291246   5.737   2.982  14.740
29803SOL     OW91247   6.904  10.595   4.235
29803SOL    HW191248   6.993  10.630   4.231
29803SOL    HW291249   6.872  10.600   4.145
29804SOL     OW91250  10.639   4.393   2.481
29804SOL    HW191251  10.621   4.321   2.421
29804SOL    HW291252  10.733   4.410   2.472
29805SOL     OW91253   9.589  10.631   1.051
29805SOL    HW191254   9.542  10.565   1.102
29805SOL    HW291255   9.657  10.582   1.004
29806SOL     OW91256   2.379  10.990   6.974
29806SOL    HW191257   2.359  10.957   6.887
29806SOL    HW291258   2.468  10.959   6.992
29807SOL     OW91259   4.579   7.075   6.012
29807SOL    HW191260   4.670   7.096   6.033
29807SOL    HW291261   4.563   7.118   5.929
29808SOL     OW91262   4.126   6.192   8.579
29808SOL    HW191263   4.128   6.111   8.528
29808SOL    HW291264   4.213   6.197   8.618
29809SOL     OW91265   2.973   5.802   1.417
29809SOL    HW191266   3.005   5.825   1.505
29809SOL    HW291267   2.889   5.849   1.410
29810SOL     OW91268  10.985   7.353  13.609
29810SOL    HW191269  11.043   7.426  13.590
29810SOL    HW291270  10.990   7.297  13.531
29811SOL     OW91271   4.947   6.125  10.880
29811SOL    HW191272   4.918   6.114  10.970
29811SOL    HW291273   4.947   6.036  10.844
29812SOL     OW91274   6.350   9.581   3.779
29812SOL    HW191275   6.392   9.556   3.697
29812SOL    HW291276   6.308   9.501   3.810
29813SOL     OW91277   6.806   8.926   7.224
29813SOL    HW191278   6.885   8.879   7.198
29813SOL    HW291279   6.816   9.013   7.184
29814SOL     OW91280   0.767   0.150   2.960
29814SOL    HW191281   0.788   0.069   3.007
29814SOL    HW291282   0.852   0.190   2.942
29815SOL     OW91283  12.467  10.305   6.961
29815SOL    HW191284  12.378  10.337   6.948
29815SOL    HW291285  12.458  10.236   7.027
29816SOL     OW91286   8.320   5.563  12.716
29816SOL    HW191287   8.276   5.493  12.669
29816SOL    HW291288   8.405   5.572  12.672
29817SOL     OW91289   6.424   1.161  12.808
29817SOL    HW191290   6.488   1.134  12.873
29817SOL    HW291291   6.353   1.200  12.859
29818SOL     OW91292   9.456  10.942   4.954
29818SOL    HW191293   9.523  10.997   4.914
29818SOL    HW291294   9.375  10.965   4.908
29819SOL     OW91295  11.592   9.167  12.283
29819SOL    HW191296  11.577   9.247  12.233
29819SOL    HW291297  11.641   9.110  12.223
29820SOL     OW91298   9.215  10.104  10.872
29820SOL    HW191299   9.165  10.060  10.803
29820SOL    HW291300   9.194  10.055  10.952
29821SOL     OW91301   0.766   6.258   4.109
29821SOL    HW191302   0.857   6.282   4.124
29821SOL    HW291303   0.720   6.341   4.097
29822SOL     OW91304   9.105   1.149   4.178
29822SOL    HW191305   9.106   1.199   4.260
29822SOL    HW291306   9.027   1.180   4.132
29823SOL     OW91307   3.739   5.515   9.015
29823SOL    HW191308   3.761   5.529   8.923
29823SOL    HW291309   3.818   5.478   9.053
29824SOL     OW91310   6.060  11.178   7.921
29824SOL    HW191311   5.973  11.144   7.897
29824SOL    HW291312   6.042  11.242   7.990
29825SOL     OW91313   7.362   1.798   9.295
29825SOL    HW191314   7.401   1.714   9.318
29825SOL    HW291315   7.435   1.850   9.262
29826SOL     OW91316   6.790   6.103  13.441
29826SOL    HW191317   6.766   6.153  13.519
29826SOL    HW291318   6.883   6.087  13.450
29827SOL     OW91319   7.799  10.481   2.095
29827SOL    HW191320   7.789  10.576   2.105
29827SOL    HW291321   7.817  10.449   2.184
29828SOL     OW91322   7.496   2.096   0.542
29828SOL    HW191323   7.418   2.110   0.489
29828SOL    HW291324   7.464   2.053   0.621
29829SOL     OW91325   8.400  11.962  11.988
29829SOL    HW191326   8.374  11.896  12.051
29829SOL    HW291327   8.490  11.986  12.012
29830SOL     OW91328  11.473   7.191   1.598
29830SOL    HW191329  11.508   7.250   1.664
29830SOL    HW291330  11.396   7.236   1.563
29831SOL     OW91331   4.957  12.683   9.613
29831SOL    HW191332   5.036  12.631   9.596
29831SOL    HW291333   4.952  12.744   9.540
29832SOL     OW91334   9.157   8.570   5.884
29832SOL    HW191335   9.165   8.545   5.792
29832SOL    HW291336   9.243   8.606   5.907
29833SOL     OW91337  10.764   6.659   0.041
29833SOL    HW191338  10.789   6.574   0.077
29833SOL    HW291339  10.743   6.712   0.118
29834SOL     OW91340  13.174  11.696  13.272
29834SOL    HW191341  13.269  11.710  13.272
29834SOL    HW291342  13.142  11.752  13.343
29835SOL     OW91343   0.889  12.603  14.847
29835SOL    HW191344   0.914  12.660  14.774
29835SOL    HW291345   0.797  12.623  14.862
29836SOL     OW91346   2.117  10.485  11.416
29836SOL    HW191347   2.032  10.519  11.388
29836SOL    HW291348   2.098  10.436  11.496
29837SOL     OW91349  11.719   7.932   3.219
29837SOL    HW191350  11.797   7.948   3.165
29837SOL    HW291351  11.670   8.014   3.215
29838SOL     OW91352   3.579  13.027   3.698
29838SOL    HW191353   3.553  12.980   3.618
29838SOL    HW291354   3.589  12.958   3.764
29839SOL     OW91355   4.550   1.610   3.591
29839SOL    HW191356   4.473   1.667   3.597
29839SOL    HW291357   4.546   1.573   3.503
29840SOL     OW91358   9.376   5.146   6.548
29840SOL    HW191359   9.399   5.058   6.577
29840SOL    HW291360   9.291   5.136   6.507
29841SOL     OW91361  13.645   3.971   4.855
29841SOL    HW191362  13.698   4.036   4.808
29841SOL    HW291363  13.701   3.893   4.859
29842SOL     OW91364  12.976   2.477   4.410
29842SOL    HW191365  12.931   2.436   4.337
29842SOL    HW291366  13.069   2.461   4.393
29843SOL     OW91367  12.375  12.589   5.932
29843SOL    HW191368  12.440  12.660   5.934
29843SOL    HW291369  12.346  12.586   5.841
29844SOL     OW91370   9.916  13.663   4.421
29844SOL    HW191371   9.929  13.740   4.366
29844SOL    HW291372   9.822  13.661   4.436
29845SOL     OW91373   7.889   0.955   9.899
29845SOL    HW191374   7.912   0.919   9.984
29845SOL    HW291375   7.794   0.946   9.893
29846SOL     OW91376  12.619   2.852   7.201
29846SOL    HW191377  12.618   2.802   7.282
29846SOL    HW291378  12.694   2.911   7.210
29847SOL     OW91379  10.599  12.515   5.435
29847SOL    HW191380  10.559  12.470   5.361
29847SOL    HW291381  10.528  12.527   5.498
29848SOL     OW91382  14.807   6.305   1.467
29848SOL    HW191383   0.000   6.350   1.419
29848SOL    HW291384  14.811   6.215   1.437
29849SOL     OW91385  12.103   4.716  14.348
29849SOL    HW191386  12.172   4.652  14.363
29849SOL    HW291387  12.042   4.672  14.288
29850SOL     OW91388  14.768   7.216   2.107
29850SOL    HW191389  14.753   7.303   2.071
29850SOL    HW291390  14.843   7.226   2.165
29851SOL     OW91391  14.400  10.711  12.298
29851SOL    HW191392  14.419  10.805  12.301
29851SOL    HW291393  14.451  10.674  12.371
29852SOL     OW91394   7.493   3.110  12.344
29852SOL    HW191395   7.399   3.105  12.327
29852SOL    HW291396   7.524   3.020  12.335
29853SOL     OW91397  11.571  14.193  10.437
29853SOL    HW191398  11.525  14.141  10.371
29853SOL    HW291399  11.656  14.149  10.446
29854SOL     OW91400   4.365   1.119  12.596
29854SOL    HW191401   4.294   1.128  12.532
29854SOL    HW291402   4.444   1.147  12.549
29855SOL     OW91403   5.170   2.761  10.909
29855SOL    HW191404   5.255   2.791  10.876
29855SOL    HW291405   5.192   2.701  10.980
29856SOL     OW91406  11.243  11.063   2.315
29856SOL    HW191407  11.179  11.127   2.345
29856SOL    HW291408  11.217  11.043   2.225
29857SOL     OW91409  13.971   0.102   2.988
29857SOL    HW191410  13.885   0.072   2.960
29857SOL    HW291411  14.003   0.156   2.915
29858SOL     OW91412   0.742   2.727  10.324
29858SOL    HW191413   0.834   2.748  10.333
29858SOL    HW291414   0.718   2.757  10.236
29859SOL     OW91415  10.416  11.533  10.590
29859SOL    HW191416  10.470  11.495  10.520
29859SOL    HW291417  10.360  11.461  10.619
29860SOL     OW91418   7.124   7.950   8.883
29860SOL    HW191419   7.051   7.994   8.838
29860SOL    HW291420   7.174   8.022   8.922
29861SOL     OW91421  11.089  12.644  10.481
29861SOL    HW191422  11.034  12.650  10.559
29861SOL    HW291423  11.161  12.587  10.506
29862SOL     OW91424  11.318   4.269   2.972
29862SOL    HW191425  11.250   4.268   2.905
29862SOL    HW291426  11.387   4.323   2.934
29863SOL     OW91427   9.721   5.456   3.708
29863SOL    HW191428   9.736   5.382   3.650
29863SOL    HW291429   9.636   5.437   3.749
29864SOL     OW91430   5.535   6.550   0.496
29864SOL    HW191431   5.525   6.455   0.489
29864SOL    HW291432   5.455   6.585   0.457
29865SOL     OW91433  14.599  11.656   5.140
29865SOL    HW191434  14.685  11.614   5.140
29865SOL    HW291435  14.618  11.749   5.124
29866SOL     OW91436   3.859   2.727  13.120
29866SOL    HW191437   3.925   2.758  13.058
29866SOL    HW291438   3.803   2.803  13.136
29867SOL     OW91439   6.827   8.115   5.544
29867SOL    HW191440   6.861   8.054   5.478
29867SOL    HW291441   6.831   8.201   5.501
29868SOL     OW91442   4.986   8.041  10.441
29868SOL    HW191443   4.927   7.965  10.439
29868SOL    HW291444   4.929   8.115  10.423
29869SOL     OW91445   1.258   1.791  12.876
29869SOL    HW191446   1.316   1.868  12.876
29869SOL    HW291447   1.298   1.731  12.813
29870SOL     OW91448   0.176   4.259   9.849
29870SOL    HW191449   0.153   4.233   9.938
29870SOL    HW291450   0.104   4.226   9.795
29871SOL     OW91451  14.251   4.419   7.541
29871SOL    HW191452  14.233   4.438   7.448
29871SOL    HW291453  14.293   4.334   7.540
29872SOL     OW91454  12.979  13.350   4.674
29872SOL    HW191455  12.962  13.440   4.699
29872SOL    HW291456  12.906  13.327   4.616
29873SOL     OW91457   4.992  13.660   0.396
29873SOL    HW191458   4.934  13.587   0.373
29873SOL    HW291459   5.074  13.640   0.353
29874SOL     OW91460   7.735  11.853   8.306
29874SOL    HW191461   7.727  11.938   8.349
29874SOL    HW291462   7.706  11.790   8.372
29875SOL     OW91463   2.768  13.149   0.766
29875SOL    HW191464   2.811  13.214   0.821
29875SOL    HW291465   2.696  13.116   0.821
29876SOL     OW91466   6.844   2.626   8.738
29876SOL    HW191467   6.779   2.556   8.733
29876SOL    HW291468   6.883   2.616   8.824
29877SOL     OW91469  12.420  11.408  13.183
29877SOL    HW191470  12.480  11.333  13.186
29877SOL    HW291471  12.445  11.455  13.103
29878SOL     OW91472   8.050   8.931  11.897
29878SOL    HW191473   8.105   8.861  11.932
29878SOL    HW291474   8.076   8.938  11.805
29879SOL     OW91475  12.269   6.718  12.623
29879SOL    HW191476  12.272   6.673  12.708
29879SOL    HW291477  12.291   6.809  12.643
29880SOL     OW91478  14.322   5.688   4.910
29880SOL    HW191479  14.383   5.761   4.914
29880SOL    HW291480  14.320   5.663   4.817
29881SOL     OW91481   2.496   6.031  14.706
29881SOL    HW191482   2.453   5.962  14.755
29881SOL    HW291483   2.467   6.020  14.616
29882SOL     OW91484   0.958   5.538   6.990
29882SOL    HW191485   0.863   5.543   7.003
29882SOL    HW291486   0.994   5.597   7.057
29883SOL     OW91487   8.555   3.589   3.658
29883SOL    HW191488   8.539   3.684   3.654
29883SOL    HW291489   8.621   3.579   3.726
29884SOL     OW91490   8.330  11.441  11.027
29884SOL    HW191491   8.338  11.354  10.988
29884SOL    HW291492   8.342  11.426  11.121
29885SOL     OW91493   5.424  13.737   3.590
29885SOL    HW191494   5.408  13.746   3.684
29885SOL    HW291495   5.348  13.688   3.558
29886SOL     OW91496   7.049   5.951  10.306
29886SOL    HW191497   7.026   5.980  10.218
29886SOL    HW291498   6.970   5.964  10.358
29887SOL     OW91499   6.397   4.951   2.884
29887SOL    HW191500   6.445   5.027   2.852
29887SOL    HW291501   6.440   4.876   2.843
29888SOL     OW91502   6.135   6.339   0.077
29888SOL    HW191503   6.101   6.250   0.084
29888SOL    HW291504   6.058   6.395   0.083
29889SOL     OW91505   4.744   9.521   2.295
29889SOL    HW191506   4.757   9.609   2.332
29889SOL    HW291507   4.659   9.526   2.251
29890SOL     OW91508  13.670   0.201   1.923
29890SOL    HW191509  13.701   0.243   1.843
29890SOL    HW291510  13.750   0.182   1.973
29891SOL     OW91511  13.481   1.617   7.111
29891SOL    HW191512  13.451   1.666   7.034
29891SOL    HW291513  13.559   1.571   7.081
29892SOL     OW91514   6.924   2.539  13.854
29892SOL    HW191515   6.974   2.474  13.903
29892SOL    HW291516   6.889   2.599  13.920
29893SOL     OW91517   8.356  14.569  10.024
29893SOL    HW191518   8.278  14.621  10.043
29893SOL    HW291519   8.357  14.501  10.090
29894SOL     OW91520   2.122   1.892   5.275
29894SOL    HW191521   2.153   1.911   5.186
29894SOL    HW291522   2.029   1.873   5.265
29895SOL     OW91523  14.309   1.745   1.138
29895SOL    HW191524  14.222   1.741   1.178
29895SOL    HW291525  14.307   1.678   1.069
29896SOL     OW91526   4.415  14.428  12.632
29896SOL    HW191527   4.496  14.437  12.581
29896SOL    HW291528   4.431  14.481  12.711
29897SOL     OW91529  11.471   7.308  10.173
29897SOL    HW191530  11.492   7.319  10.080
29897SOL    HW291531  11.416   7.229  10.176
29898SOL     OW91532   8.513   4.310   0.183
29898SOL    HW191533   8.569   4.384   0.205
29898SOL    HW291534   8.467   4.338   0.104
29899SOL     OW91535   1.813   0.935   7.124
29899SOL    HW191536   1.797   0.851   7.168
29899SOL    HW291537   1.765   0.999   7.176
29900SOL     OW91538   2.962  11.017   4.205
29900SOL    HW191539   2.881  11.003   4.253
29900SOL    HW291540   3.027  10.965   4.252
29901SOL     OW91541   3.892   6.178  12.620
29901SOL    HW191542   3.849   6.143  12.698
29901SOL    HW291543   3.972   6.126  12.612
29902SOL     OW91544   2.604  13.338   9.362
29902SOL    HW191545   2.514  13.362   9.340
29902SOL    HW291546   2.598  13.248   9.394
29903SOL     OW91547   3.424  13.801  14.054
29903SOL    HW191548   3.337  13.813  14.015
29903SOL    HW291549   3.469  13.884  14.037
29904SOL     OW91550   8.170   8.319   5.547
29904SOL    HW191551   8.101   8.323   5.612
29904SOL    HW291552   8.149   8.243   5.493
29905SOL     OW91553  11.076  10.244  14.153
29905SOL    HW191554  11.016  10.170  14.160
29905SOL    HW291555  11.064  10.292  14.235
29906SOL     OW91556  12.252   5.715   4.759
29906SOL    HW191557  12.171   5.762   4.779
29906SOL    HW291558  12.232   5.624   4.777
29907SOL     OW91559  12.719   2.889  11.000
29907SOL    HW191560  12.810   2.863  11.016
29907SOL    HW291561  12.724   2.983  10.984
29908SOL     OW91562  14.688  10.091   7.375
29908SOL    HW191563  14.669  10.000   7.353
29908SOL    HW291564  14.784  10.096   7.373
29909SOL     OW91565   3.414   2.683  11.819
29909SOL    HW191566   3.349   2.672  11.889
29909SOL    HW291567   3.402   2.606  11.764
29910SOL     OW91568   0.035   7.722   2.016
29910SOL    HW191569   0.120   7.767   2.016
29910SOL    HW291570  14.848   7.792   2.032
29911SOL     OW91571   8.080   8.928  11.633
29911SOL    HW191572   8.101   8.835  11.623
29911SOL    HW291573   7.984   8.931  11.624
29912SOL     OW91574   9.573  10.509  11.288
29912SOL    HW191575   9.554  10.478  11.199
29912SOL    HW291576   9.625  10.588  11.275
29913SOL     OW91577   4.421  11.157   8.863
29913SOL    HW191578   4.359  11.224   8.832
29913SOL    HW291579   4.426  11.171   8.957
29914SOL     OW91580   3.888   9.146  11.798
29914SOL    HW191581   3.845   9.117  11.878
29914SOL    HW291582   3.901   9.067  11.747
29915SOL     OW91583  10.438  10.435  11.843
29915SOL    HW191584  10.521  10.432  11.796
29915SOL    HW291585  10.372  10.413  11.777
29916SOL     OW91586   4.282   9.288   7.361
29916SOL    HW191587   4.211   9.321   7.416
29916SOL    HW291588   4.281   9.344   7.284
29917SOL     OW91589   6.103   0.675   6.029
29917SOL    HW191590   6.091   0.669   5.934
29917SOL    HW291591   6.187   0.720   6.039
29918SOL     OW91592   1.591  10.517   1.073
29918SOL    HW191593   1.650  10.442   1.077
29918SOL    HW291594   1.623  10.569   0.999
29919SOL     OW91595   6.050  11.551   6.381
29919SOL    HW191596   5.972  11.503   6.410
29919SOL    HW291597   6.088  11.585   6.462
29920SOL     OW91598   9.228   7.723   7.605
29920SOL    HW191599   9.247   7.629   7.598
29920SOL    HW291600   9.154   7.727   7.665
29921SOL     OW91601   2.485   2.022   0.061
29921SOL    HW191602   2.404   2.047   0.017
29921SOL    HW291603   2.549   2.086   0.031
29922SOL     OW91604   4.030  11.768   9.215
29922SOL    HW191605   3.948  11.797   9.175
29922SOL    HW291606   4.097  11.790   9.150
29923SOL     OW91607   7.579   3.336  10.529
29923SOL    HW191608   7.660   3.284  10.536
29923SOL    HW291609   7.609   3.427  10.525
29924SOL     OW91610  13.897   6.056  14.174
29924SOL    HW191611  13.955   6.095  14.109
29924SOL    HW291612  13.890   5.964  14.149
29925SOL     OW91613   7.180   4.414   1.264
29925SOL    HW191614   7.260   4.418   1.211
29925SOL    HW291615   7.152   4.323   1.259
29926SOL     OW91616   2.587   8.241  14.605
29926SOL    HW191617   2.551   8.166  14.558
29926SOL    HW291618   2.680   8.242  14.581
29927SOL     OW91619   1.111  14.859   2.142
29927SOL    HW191620   1.127  14.832   2.051
29927SOL    HW291621   1.178  14.813   2.192
29928SOL     OW91622  10.127   0.549  12.064
29928SOL    HW191623  10.089   0.636  12.068
29928SOL    HW291624  10.163   0.534  12.151
29929SOL     OW91625   5.807   6.593   2.785
29929SOL    HW191626   5.821   6.684   2.812
29929SOL    HW291627   5.712   6.583   2.782
29930SOL     OW91628   1.465   6.888   3.735
29930SOL    HW191629   1.374   6.891   3.763
29930SOL    HW291630   1.502   6.814   3.782
29931SOL     OW91631  10.095  12.938   4.995
29931SOL    HW191632  10.085  12.928   5.090
29931SOL    HW291633  10.168  12.999   4.985
29932SOL     OW91634   6.781   2.952   7.817
29932SOL    HW191635   6.773   2.858   7.802
29932SOL    HW291636   6.811   2.959   7.907
29933SOL     OW91637   0.209   2.668   4.580
29933SOL    HW191638   0.284   2.726   4.560
29933SOL    HW291639   0.140   2.728   4.607
29934SOL     OW91640   5.182   9.106  13.694
29934SOL    HW191641   5.251   9.128  13.632
29934SOL    HW291642   5.157   9.016  13.671
29935SOL     OW91643   5.584   2.360  10.880
29935SOL    HW191644   5.643   2.341  10.808
29935SOL    HW291645   5.614   2.305  10.952
29936SOL     OW91646   5.585   6.627   1.660
29936SOL    HW191647   5.507   6.583   1.694
29936SOL    HW291648   5.644   6.634   1.735
29937SOL     OW91649   3.750  10.736  14.203
29937SOL    HW191650   3.751  10.655  14.152
29937SOL    HW291651   3.772  10.708  14.292
29938SOL     OW91652   7.338   2.029   4.901
29938SOL    HW191653   7.356   2.123   4.906
29938SOL    HW291654   7.243   2.022   4.912
29939SOL     OW91655   8.930  14.436   8.902
29939SOL    HW191656   8.912  14.352   8.860
29939SOL    HW291657   9.024  14.450   8.890
29940SOL     OW91658  14.040  13.454   9.337
29940SOL    HW191659  14.118  13.484   9.290
29940SOL    HW291660  14.055  13.481   9.427
29941SOL     OW91661  10.621  14.225   1.225
29941SOL    HW191662  10.589  14.155   1.282
29941SOL    HW291663  10.557  14.230   1.154
29942SOL     OW91664   3.282   0.453  13.541
29942SOL    HW191665   3.361   0.443  13.489
29942SOL    HW291666   3.221   0.388  13.506
29943SOL     OW91667   2.329  12.686   9.741
29943SOL    HW191668   2.380  12.633   9.681
29943SOL    HW291669   2.375  12.679   9.825
29944SOL     OW91670   3.559   0.661   5.361
29944SOL    HW191671   3.564   0.595   5.430
29944SOL    HW291672   3.568   0.744   5.408
29945SOL     OW91673   3.079  14.861  11.337
29945SOL    HW191674   3.041  14.784  11.381
29945SOL    HW291675   3.109   0.040  11.409
29946SOL     OW91676   7.240   1.749   3.246
29946SOL    HW191677   7.233   1.840   3.276
29946SOL    HW291678   7.318   1.715   3.290
29947SOL     OW91679   1.656  10.421   0.734
29947SOL    HW191680   1.642  10.512   0.762
29947SOL    HW291681   1.670  10.373   0.816
29948SOL     OW91682   8.976  10.532   5.695
29948SOL    HW191683   8.929  10.485   5.765
29948SOL    HW291684   8.913  10.537   5.623
29949SOL     OW91685  12.558   4.685   4.014
29949SOL    HW191686  12.571   4.618   4.081
29949SOL    HW291687  12.491   4.647   3.956
29950SOL     OW91688   2.587  14.048   2.611
29950SOL    HW191689   2.671  14.016   2.578
29950SOL    HW291690   2.576  14.133   2.568
29951SOL     OW91691   6.253   4.517   1.506
29951SOL    HW191692   6.273   4.436   1.553
29951SOL    HW291693   6.333   4.537   1.458
29952SOL     OW91694  14.148  11.791   3.022
29952SOL    HW191695  14.139  11.788   3.117
29952SOL    HW291696  14.090  11.722   2.990
29953SOL     OW91697   1.304  10.045   5.878
29953SOL    HW191698   1.269  10.126   5.841
29953SOL    HW291699   1.385  10.030   5.830
29954SOL     OW91700  13.158   3.272  10.727
29954SOL    HW191701  13.160   3.307  10.638
29954SOL    HW291702  13.171   3.349  10.783
29955SOL     OW91703  10.233  10.221   8.754
29955SOL    HW191704  10.193  10.145   8.796
29955SOL    HW291705  10.315  10.187   8.717
29956SOL     OW91706   0.515  13.467   9.963
29956SOL    HW191707   0.560  13.550   9.944
29956SOL    HW291708   0.585  13.403   9.971
29957SOL     OW91709   0.288   2.018   3.178
29957SOL    HW191710   0.358   1.953   3.171
29957SOL    HW291711   0.298   2.071   3.099
29958SOL     OW91712  10.200   3.219   1.860
29958SOL    HW191713  10.236   3.155   1.799
29958SOL    HW291714  10.273   3.239   1.919
29959SOL     OW91715   6.302   8.421   0.771
29959SOL    HW191716   6.268   8.511   0.766
29959SOL    HW291717   6.315   8.405   0.864
29960SOL     OW91718   1.951   3.649   4.443
29960SOL    HW191719   1.993   3.576   4.488
29960SOL    HW291720   1.927   3.710   4.512
29961SOL     OW91721   1.587   1.766  10.487
29961SOL    HW191722   1.624   1.716  10.560
29961SOL    HW291723   1.572   1.853  10.524
29962SOL     OW91724   8.375   7.886  13.924
29962SOL    HW191725   8.321   7.855  13.852
29962SOL    HW291726   8.367   7.819  13.992
29963SOL     OW91727   9.548   6.317  14.543
29963SOL    HW191728   9.536   6.375  14.617
29963SOL    HW291729   9.640   6.327  14.518
29964SOL     OW91730  11.825   5.949  10.434
29964SOL    HW191731  11.898   6.010  10.440
29964SOL    HW291732  11.860   5.875  10.385
29965SOL     OW91733   5.493   5.512   0.355
29965SOL    HW191734   5.511   5.433   0.406
29965SOL    HW291735   5.402   5.534   0.377
29966SOL     OW91736  10.121   7.044  11.165
29966SOL    HW191737  10.045   7.095  11.137
29966SOL    HW291738  10.129   7.062  11.259
29967SOL     OW91739  10.482  14.669  11.743
29967SOL    HW191740  10.516  14.584  11.771
29967SOL    HW291741  10.528  14.733  11.797
29968SOL     OW91742  14.320   6.725   2.718
29968SOL    HW191743  14.243   6.779   2.736
29968SOL    HW291744  14.284   6.648   2.672
29969SOL     OW91745  10.156   4.716   3.728
29969SOL    HW191746  10.077   4.670   3.701
29969SOL    HW291747  10.206   4.652   3.778
29970SOL     OW91748   0.767  11.904  12.043
29970SOL    HW191749   0.680  11.904  12.002
29970SOL    HW291750   0.820  11.959  11.985
29971SOL     OW91751   5.691   3.962  10.375
29971SOL    HW191752   5.758   3.894  10.387
29971SOL    HW291753   5.741   4.039  10.347
29972SOL     OW91754   9.506   9.881  11.328
29972SOL    HW191755   9.532   9.974  11.324
29972SOL    HW291756   9.483   9.866  11.420
29973SOL     OW91757   3.870   2.014   9.326
29973SOL    HW191758   3.829   2.099   9.340
29973SOL    HW291759   3.801   1.960   9.287
29974SOL     OW91760   1.155   1.596   0.462
29974SOL    HW191761   1.142   1.670   0.402
29974SOL    HW291762   1.191   1.636   0.541
29975SOL     OW91763   2.187  13.281   6.543
29975SOL    HW191764   2.144  13.293   6.458
29975SOL    HW291765   2.224  13.193   6.539
29976SOL     OW91766   2.996  11.566  11.780
29976SOL    HW191767   2.919  11.605  11.737
29976SOL    HW291768   3.070  11.600  11.731
29977SOL     OW91769   8.693   4.894   0.211
29977SOL    HW191770   8.773   4.940   0.186
29977SOL    HW291771   8.660   4.858   0.129
29978SOL     OW91772  11.518  10.374   3.766
29978SOL    HW191773  11.592  10.364   3.827
29978SOL    HW291774  11.441  10.352   3.818
29979SOL     OW91775  14.378   5.427   7.117
29979SOL    HW191776  14.439   5.392   7.183
29979SOL    HW291777  14.302   5.369   7.121
29980SOL     OW91778  14.137  14.485   7.763
29980SOL    HW191779  14.200  14.509   7.831
29980SOL    HW291780  14.158  14.542   7.689
29981SOL     OW91781   9.461   5.296   0.538
29981SOL    HW191782   9.497   5.209   0.523
29981SOL    HW291783   9.536   5.355   0.525
29982SOL     OW91784   3.518   1.243  12.183
29982SOL    HW191785   3.507   1.152  12.210
29982SOL    HW291786   3.451   1.290  12.233
29983SOL     OW91787   5.839   1.542   2.608
29983SOL    HW191788   5.765   1.555   2.550
29983SOL    HW291789   5.868   1.631   2.630
29984SOL     OW91790   1.887   7.662   1.955
29984SOL    HW191791   1.976   7.652   1.922
29984SOL    HW291792   1.833   7.672   1.877
29985SOL     OW91793  14.437  14.444   7.614
29985SOL    HW191794  14.458  14.535   7.592
29985SOL    HW291795  14.500  14.393   7.563
29986SOL     OW91796   1.319  10.951   9.968
29986SOL    HW191797   1.332  11.044   9.949
29986SOL    HW291798   1.224  10.939   9.961
29987SOL     OW91799   7.338   8.480   8.182
29987SOL    HW191800   7.290   8.461   8.101
29987SOL    HW291801   7.303   8.418   8.245
29988SOL     OW91802   1.888   4.533   5.635
29988SOL    HW191803   1.915   4.441   5.637
29988SOL    HW291804   1.815   4.539   5.697
29989SOL     OW91805   8.350   6.561   6.085
29989SOL    HW191806   8.298   6.517   6.018
29989SOL    HW291807   8.441   6.535   6.067
29990SOL     OW91808   7.829  13.986   8.983
29990SOL    HW191809   7.744  13.975   9.024
29990SOL    HW291810   7.868  13.899   8.984
29991SOL     OW91811   6.669  12.944   6.844
29991SOL    HW191812   6.640  12.877   6.783
29991SOL    HW291813   6.719  13.005   6.790
29992SOL     OW91814   8.339   0.671   5.683
29992SOL    HW191815   8.326   0.733   5.755
29992SOL    HW291816   8.275   0.698   5.617
29993SOL     OW91817   1.340   1.378   9.495
29993SOL    HW191818   1.391   1.302   9.525
29993SOL    HW291819   1.354   1.380   9.400
29994SOL     OW91820   0.961  10.526  10.132
29994SOL    HW191821   0.954  10.557  10.042
29994SOL    HW291822   1.046  10.558  10.162
29995SOL     OW91823   3.241   4.969  13.910
29995SOL    HW191824   3.312   4.955  13.973
29995SOL    HW291825   3.171   5.011  13.961
29996SOL     OW91826  13.249   2.480   5.461
29996SOL    HW191827  13.177   2.541   5.477
29996SOL    HW291828  13.209   2.394   5.463
29997SOL     OW91829   1.868   3.326   9.378
29997SOL    HW191830   1.815   3.389   9.328
29997SOL    HW291831   1.933   3.379   9.424
29998SOL     OW91832  14.316  12.999  10.674
29998SOL    HW191833  14.223  12.997  10.652
29998SOL    HW291834  14.332  13.087  10.707
29999SOL     OW91835   3.266   4.923   8.129
29999SOL    HW191836   3.326   4.962   8.192
29999SOL    HW291837   3.269   4.829   8.147
30000SOL     OW91838   4.593   3.039   5.521
30000SOL    HW191839   4.501   3.056   5.539
30000SOL    HW291840   4.598   2.945   5.505
30001SOL     OW91841  12.995   8.261  11.593
30001SOL    HW191842  12.968   8.353  11.598
30001SOL    HW291843  13.066   8.261  11.528
30002SOL     OW91844  11.769   9.727  12.425
30002SOL    HW191845  11.767   9.714  12.330
30002SOL    HW291846  11.807   9.646  12.459
30003SOL     OW91847   4.910  13.935   0.989
30003SOL    HW191848   4.943  13.846   0.982
30003SOL    HW291849   4.818  13.925   1.013
30004SOL     OW91850  10.967   5.529   1.701
30004SOL    HW191851  10.908   5.603   1.709
30004SOL    HW291852  10.912   5.458   1.668
30005SOL     OW91853  12.535   8.535   8.522
30005SOL    HW191854  12.525   8.522   8.428
30005SOL    HW291855  12.473   8.474   8.562
30006SOL     OW91856   7.750   6.935   3.569
30006SOL    HW191857   7.682   6.892   3.621
30006SOL    HW291858   7.730   6.913   3.479
30007SOL     OW91859   1.813   8.545   4.001
30007SOL    HW191860   1.828   8.615   3.937
30007SOL    HW291861   1.775   8.589   4.077
30008SOL     OW91862  13.505   6.739  12.122
30008SOL    HW191863  13.469   6.827  12.125
30008SOL    HW291864  13.453   6.689  12.184
30009SOL     OW91865   4.500  11.547   6.072
30009SOL    HW191866   4.571  11.564   6.011
30009SOL    HW291867   4.526  11.468   6.119
30010SOL     OW91868  13.411   4.504   0.527
30010SOL    HW191869  13.380   4.458   0.605
30010SOL    HW291870  13.376   4.454   0.453
30011SOL     OW91871  10.041   9.016  14.807
30011SOL    HW191872  10.108   9.035  14.741
30011SOL    HW291873  10.080   8.948  14.862
30012SOL     OW91874   4.079   4.902   0.406
30012SOL    HW191875   4.110   4.864   0.324
30012SOL    HW291876   4.124   4.853   0.474
30013SOL     OW91877   9.714   4.721  12.985
30013SOL    HW191878   9.648   4.764  12.930
30013SOL    HW291879   9.750   4.792  13.038
30014SOL     OW91880   2.207   7.840   1.030
30014SOL    HW191881   2.229   7.875   1.117
30014SOL    HW291882   2.268   7.768   1.016
30015SOL     OW91883   1.837   1.128   4.868
30015SOL    HW191884   1.745   1.154   4.877
30015SOL    HW291885   1.870   1.124   4.958
30016SOL     OW91886   4.930  11.451   3.018
30016SOL    HW191887   5.006  11.438   2.960
30016SOL    HW291888   4.949  11.531   3.066
30017SOL     OW91889   9.360   5.471  14.295
30017SOL    HW191890   9.297   5.402  14.312
30017SOL    HW291891   9.319   5.550  14.329
30018SOL     OW91892  11.663   4.136   2.881
30018SOL    HW191893  11.623   4.223   2.875
30018SOL    HW291894  11.723   4.142   2.955
30019SOL     OW91895   9.969   2.688   8.546
30019SOL    HW191896  10.041   2.733   8.500
30019SOL    HW291897   9.896   2.750   8.541
30020SOL     OW91898  10.268   4.577   9.256
30020SOL    HW191899  10.345   4.570   9.313
30020SOL    HW291900  10.286   4.517   9.183
30021SOL     OW91901   7.173   1.553  11.610
30021SOL    HW191902   7.212   1.632  11.573
30021SOL    HW291903   7.079   1.565  11.599
30022SOL     OW91904  14.309   1.784  14.456
30022SOL    HW191905  14.324   1.879  14.454
30022SOL    HW291906  14.396   1.746  14.443
30023SOL     OW91907  12.517  13.810   5.599
30023SOL    HW191908  12.606  13.791   5.569
30023SOL    HW291909  12.528  13.861   5.679
30024SOL     OW91910   3.595  10.223   4.033
30024SOL    HW191911   3.637  10.272   4.104
30024SOL    HW291912   3.516  10.273   4.013
30025SOL     OW91913   4.923   0.476   7.185
30025SOL    HW191914   4.941   0.556   7.136
30025SOL    HW291915   4.835   0.450   7.158
30026SOL     OW91916   5.977   9.757   5.911
30026SOL    HW191917   5.972   9.817   5.837
30026SOL    HW291918   6.018   9.678   5.876
30027SOL     OW91919   7.843  13.053   3.951
30027SOL    HW191920   7.930  13.035   3.986
30027SOL    HW291921   7.818  13.136   3.993
30028SOL     OW91922   7.550   9.612  13.579
30028SOL    HW191923   7.580   9.703  13.580
30028SOL    HW291924   7.532   9.591  13.670
30029SOL     OW91925  13.296  14.391  12.582
30029SOL    HW191926  13.253  14.456  12.638
30029SOL    HW291927  13.289  14.309  12.631
30030SOL     OW91928  10.004   6.880   4.058
30030SOL    HW191929  10.048   6.954   4.100
30030SOL    HW291930   9.926   6.864   4.111
30031SOL     OW91931   1.228  11.345   7.923
30031SOL    HW191932   1.308  11.398   7.924
30031SOL    HW291933   1.180  11.373   8.002
30032SOL     OW91934   2.300   3.043  12.963
30032SOL    HW191935   2.357   3.029  12.888
30032SOL    HW291936   2.359   3.074  13.032
30033SOL     OW91937   6.160  14.819   9.717
30033SOL    HW191938   6.212  14.741   9.695
30033SOL    HW291939   6.167  14.874   9.639
30034SOL     OW91940   5.031   1.633  14.807
30034SOL    HW191941   5.076   1.568  14.861
30034SOL    HW291942   5.099   1.697  14.786
30035SOL     OW91943   6.206   5.009  10.350
30035SOL    HW191944   6.260   4.939  10.313
30035SOL    HW291945   6.136   5.022  10.286
30036SOL     OW91946   3.688   9.053   1.042
30036SOL    HW191947   3.752   9.001   1.090
30036SOL    HW291948   3.709   9.039   0.950
30037SOL     OW91949   4.835   9.265   4.911
30037SOL    HW191950   4.796   9.350   4.930
30037SOL    HW291951   4.923   9.270   4.949
30038SOL     OW91952  10.253   0.648  11.061
30038SOL    HW191953  10.190   0.577  11.051
30038SOL    HW291954  10.215   0.706  11.127
30039SOL     OW91955   9.916  10.025   2.140
30039SOL    HW191956   9.926  10.020   2.045
30039SOL    HW291957   9.893   9.936   2.166
30040SOL     OW91958   3.544  12.571   3.576
30040SOL    HW191959   3.468  12.611   3.618
30040SOL    HW291960   3.528  12.477   3.580
30041SOL     OW91961   5.499   3.352  10.272
30041SOL    HW191962   5.434   3.323  10.207
30041SOL    HW291963   5.528   3.437  10.241
30042SOL     OW91964   2.243   6.735  11.123
30042SOL    HW191965   2.205   6.647  11.129
30042SOL    HW291966   2.332   6.724  11.157
30043SOL     OW91967   3.347   9.068   2.447
30043SOL    HW191968   3.358   9.133   2.377
30043SOL    HW291969   3.421   9.008   2.436
30044SOL     OW91970  10.003   5.166   1.793
30044SOL    HW191971  10.065   5.142   1.724
30044SOL    HW291972  10.023   5.104   1.864
30045SOL     OW91973  11.714  10.992   9.618
30045SOL    HW191974  11.776  10.933   9.661
30045SOL    HW291975  11.656  10.933   9.569
30046SOL     OW91976   2.485   8.136   6.520
30046SOL    HW191977   2.484   8.103   6.430
30046SOL    HW291978   2.575   8.122   6.549
30047SOL     OW91979   2.015  11.064   2.513
30047SOL    HW191980   1.959  11.113   2.453
30047SOL    HW291981   2.097  11.053   2.467
30048SOL     OW91982   3.020  13.488  14.546
30048SOL    HW191983   2.990  13.416  14.491
30048SOL    HW291984   3.007  13.567  14.493
30049SOL     OW91985   3.214  14.714   3.914
30049SOL    HW191986   3.224  14.797   3.868
30049SOL    HW291987   3.244  14.732   4.003
30050SOL     OW91988  14.470   9.061  10.440
30050SOL    HW191989  14.448   9.068  10.533
30050SOL    HW291990  14.389   9.085  10.395
30051SOL     OW91991   0.523  12.894   2.610
30051SOL    HW191992   0.547  12.878   2.519
30051SOL    HW291993   0.568  12.826   2.660
30052SOL     OW91994   5.361   1.561   8.536
30052SOL    HW191995   5.311   1.505   8.477
30052SOL    HW291996   5.365   1.645   8.490
30053SOL     OW91997   7.030   2.257  11.603
30053SOL    HW191998   6.979   2.183  11.568
30053SOL    HW291999   7.115   2.219  11.626
30054SOL     OW92000   1.866   7.317   5.257
30054SOL    HW192001   1.832   7.374   5.188
30054SOL    HW292002   1.797   7.251   5.270
30055SOL     OW92003  10.518  11.941  12.932
30055SOL    HW192004  10.467  11.943  13.013
30055SOL    HW292005  10.588  12.005  12.947
30056SOL     OW92006   1.515  12.723   8.467
30056SOL    HW192007   1.421  12.716   8.484
30056SOL    HW292008   1.521  12.772   8.385
30057SOL     OW92009  14.717   9.689  10.293
30057SOL    HW192010  14.774   9.731  10.357
30057SOL    HW292011  14.753   9.601  10.282
30058SOL     OW92012   0.833  14.826   1.526
30058SOL    HW192013   0.749  14.867   1.505
30058SOL    HW292014   0.866  14.876   1.601
30059SOL     OW92015   5.158  11.426   5.429
30059SOL    HW192016   5.149  11.502   5.488
30059SOL    HW292017   5.108  11.451   5.351
30060SOL     OW92018   0.524  13.796   7.401
30060SOL    HW192019   0.488  13.883   7.419
30060SOL    HW292020   0.613  13.812   7.372
30061SOL     OW92021  13.500   0.967   6.915
30061SOL    HW192022  13.592   0.964   6.889
30061SOL    HW292023  13.502   0.998   7.006
30062SOL     OW92024  11.077   5.871   5.316
30062SOL    HW192025  11.017   5.944   5.332
30062SOL    HW292026  11.157   5.913   5.283
30063SOL     OW92027   7.649   4.872   0.579
30063SOL    HW192028   7.581   4.807   0.565
30063SOL    HW292029   7.668   4.866   0.673
30064SOL     OW92030   8.333   7.085   0.469
30064SOL    HW192031   8.415   7.037   0.476
30064SOL    HW292032   8.354   7.174   0.495
30065SOL     OW92033   2.252  10.351  12.932
30065SOL    HW192034   2.226  10.443  12.935
30065SOL    HW292035   2.327  10.345  12.991
30066SOL     OW92036   3.398  11.829  12.817
30066SOL    HW192037   3.413  11.770  12.891
30066SOL    HW292038   3.335  11.783  12.762
30067SOL     OW92039   7.317   0.059  13.636
30067SOL    HW192040   7.366   0.117  13.577
30067SOL    HW292041   7.229   0.055  13.597
30068SOL     OW92042  12.517   0.169  13.271
30068SOL    HW192043  12.494   0.226  13.345
30068SOL    HW292044  12.607   0.141  13.290
30069SOL     OW92045   3.082   4.852   4.698
30069SOL    HW192046   3.119   4.935   4.730
30069SOL    HW292047   3.120   4.841   4.611
30070SOL     OW92048   6.813   2.714   4.484
30070SOL    HW192049   6.877   2.759   4.539
30070SOL    HW292050   6.842   2.622   4.484
30071SOL     OW92051  10.707  13.389   8.702
30071SOL    HW192052  10.670  13.316   8.653
30071SOL    HW292053  10.632  13.444   8.725
30072SOL     OW92054  14.789  14.441  10.111
30072SOL    HW192055  14.852  14.377  10.078
30072SOL    HW292056  14.785  14.425  10.205
30073SOL     OW92057  12.355   7.953   7.075
30073SOL    HW192058  12.350   8.038   7.120
30073SOL    HW292059  12.319   7.890   7.137
30074SOL     OW92060   5.604  10.393  12.415
30074SOL    HW192061   5.671  10.351  12.469
30074SOL    HW292062   5.574  10.324  12.356
30075SOL     OW92063  10.071  14.561   4.554
30075SOL    HW192064  10.028  14.634   4.509
30075SOL    HW292065  10.116  14.513   4.485
30076SOL     OW92066  10.890   5.559   0.308
30076SOL    HW192067  10.952   5.491   0.280
30076SOL    HW292068  10.857   5.596   0.226
30077SOL     OW92069   7.621   5.992   0.486
30077SOL    HW192070   7.561   5.964   0.555
30077SOL    HW292071   7.702   5.945   0.505
30078SOL     OW92072   9.589   1.072   1.811
30078SOL    HW192073   9.588   1.168   1.801
30078SOL    HW292074   9.540   1.057   1.892
30079SOL     OW92075   8.319   4.229   8.523
30079SOL    HW192076   8.410   4.202   8.538
30079SOL    HW292077   8.303   4.208   8.431
30080SOL     OW92078   8.806  14.412   4.175
30080SOL    HW192079   8.728  14.467   4.169
30080SOL    HW292080   8.854  14.447   4.250
30081SOL     OW92081   8.435   6.118   2.259
30081SOL    HW192082   8.399   6.080   2.179
30081SOL    HW292083   8.445   6.211   2.238
30082SOL     OW92084  11.615   3.738   4.664
30082SOL    HW192085  11.597   3.734   4.758
30082SOL    HW292086  11.649   3.826   4.650
30083SOL     OW92087   0.028  13.969   3.195
30083SOL    HW192088   0.030  13.885   3.241
30083SOL    HW292089   0.092  13.958   3.124
30084SOL     OW92090   0.592   8.909   6.920
30084SOL    HW192091   0.624   8.954   6.999
30084SOL    HW292092   0.537   8.974   6.877
30085SOL     OW92093  12.158   1.442   6.229
30085SOL    HW192094  12.139   1.505   6.298
30085SOL    HW292095  12.078   1.439   6.176
30086SOL     OW92096   1.779   0.174  10.195
30086SOL    HW192097   1.790   0.080  10.201
30086SOL    HW292098   1.690   0.186  10.162
30087SOL     OW92099   6.357   3.482  10.593
30087SOL    HW192100   6.328   3.540  10.522
30087SOL    HW292101   6.442   3.516  10.620
30088SOL     OW92102   3.861  13.534   0.977
30088SOL    HW192103   3.828  13.445   0.963
30088SOL    HW292104   3.791  13.590   0.946
30089SOL     OW92105   0.273   8.424   6.736
30089SOL    HW192106   0.193   8.460   6.698
30089SOL    HW292107   0.308   8.496   6.789
30090SOL     OW92108  11.478  12.325   0.206
30090SOL    HW192109  11.551  12.326   0.268
30090SOL    HW292110  11.400  12.318   0.261
30091SOL     OW92111   8.355   9.730  14.446
30091SOL    HW192112   8.395   9.647  14.421
30091SOL    HW292113   8.272   9.705  14.487
30092SOL     OW92114   8.063   3.319   4.387
30092SOL    HW192115   7.980   3.366   4.378
30092SOL    HW292116   8.129   3.387   4.395
30093SOL     OW92117   9.895  11.881   6.023
30093SOL    HW192118   9.987  11.863   6.003
30093SOL    HW292119   9.849  11.868   5.940
30094SOL     OW92120   2.350   5.040   9.293
30094SOL    HW192121   2.318   5.060   9.381
30094SOL    HW292122   2.365   5.125   9.253
30095SOL     OW92123  13.734  13.723  14.105
30095SOL    HW192124  13.779  13.639  14.112
30095SOL    HW292125  13.798  13.781  14.063
30096SOL     OW92126   2.055   6.248   1.039
30096SOL    HW192127   2.078   6.300   1.116
30096SOL    HW292128   2.091   6.297   0.965
30097SOL     OW92129  10.231  11.924   3.033
30097SOL    HW192130  10.240  11.842   3.082
30097SOL    HW292131  10.145  11.918   2.993
30098SOL     OW92132   9.667   2.289   0.289
30098SOL    HW192133   9.657   2.205   0.244
30098SOL    HW292134   9.578   2.322   0.300
30099SOL     OW92135   8.135  14.802   4.133
30099SOL    HW192136   8.104  14.742   4.066
30099SOL    HW292137   8.178  14.872   4.084
30100SOL     OW92138  11.832   1.034   4.176
30100SOL    HW192139  11.764   1.102   4.171
30100SOL    HW292140  11.818   0.992   4.260
30101SOL     OW92141   0.656   2.228   7.419
30101SOL    HW192142   0.673   2.149   7.368
30101SOL    HW292143   0.725   2.289   7.392
30102SOL     OW92144  13.675   7.366   1.486
30102SOL    HW192145  13.648   7.321   1.566
30102SOL    HW292146  13.759   7.326   1.463
30103SOL     OW92147  11.173   2.218  12.725
30103SOL    HW192148  11.221   2.301  12.720
30103SOL    HW292149  11.240   2.151  12.711
30104SOL     OW92150   7.288   1.942  11.141
30104SOL    HW192151   7.228   1.948  11.066
30104SOL    HW292152   7.328   2.029  11.146
30105SOL     OW92153   9.913  13.067  12.136
30105SOL    HW192154   9.859  13.146  12.129
30105SOL    HW292155   9.958  13.076  12.220
30106SOL     OW92156  10.248   3.024   5.722
30106SOL    HW192157  10.211   2.991   5.804
30106SOL    HW292158  10.295   2.950   5.685
30107SOL     OW92159   2.413   0.748  12.645
30107SOL    HW192160   2.337   0.767  12.699
30107SOL    HW292161   2.481   0.807  12.678
30108SOL     OW92162   9.262  11.775   1.628
30108SOL    HW192163   9.301  11.688   1.623
30108SOL    HW292164   9.171  11.759   1.656
30109SOL     OW92165   7.995   3.985  10.487
30109SOL    HW192166   7.942   3.964  10.563
30109SOL    HW292167   8.024   4.075  10.502
30110SOL     OW92168  13.572   6.330   9.451
30110SOL    HW192169  13.488   6.376   9.450
30110SOL    HW292170  13.549   6.239   9.467
30111SOL     OW92171  12.666  14.624  13.093
30111SOL    HW192172  12.726  14.598  13.162
30111SOL    HW292173  12.701  14.708  13.061
30112SOL     OW92174   7.792   1.257  11.024
30112SOL    HW192175   7.774   1.240  11.117
30112SOL    HW292176   7.706   1.274  10.986
30113SOL     OW92177   2.103   3.200  11.430
30113SOL    HW192178   2.076   3.174  11.518
30113SOL    HW292179   2.194   3.174  11.424
30114SOL     OW92180   7.158  10.718  10.631
30114SOL    HW192181   7.192  10.665  10.704
30114SOL    HW292182   7.199  10.680  10.553
30115SOL     OW92183   0.349  14.669   9.110
30115SOL    HW192184   0.346  14.581   9.072
30115SOL    HW292185   0.304  14.661   9.194
30116SOL     OW92186   4.300   0.110  10.695
30116SOL    HW192187   4.349   0.121  10.777
30116SOL    HW292188   4.275   0.198  10.669
30117SOL     OW92189   0.407  13.560  12.049
30117SOL    HW192190   0.388  13.516  11.966
30117SOL    HW292191   0.337  13.623  12.060
30118SOL     OW92192  13.875   0.540   9.274
30118SOL    HW192193  13.819   0.510   9.203
30118SOL    HW292194  13.864   0.473   9.342
30119SOL     OW92195   3.142   3.970   3.252
30119SOL    HW192196   3.127   4.043   3.192
30119SOL    HW292197   3.136   4.009   3.339
30120SOL     OW92198   2.699   0.784   1.696
30120SOL    HW192199   2.755   0.862   1.701
30120SOL    HW292200   2.610   0.820   1.691
30121SOL     OW92201  10.742  11.780   2.882
30121SOL    HW192202  10.649  11.802   2.879
30121SOL    HW292203  10.784  11.858   2.920
30122SOL     OW92204  10.787  12.544   7.552
30122SOL    HW192205  10.713  12.515   7.606
30122SOL    HW292206  10.843  12.467   7.546
30123SOL     OW92207   1.869   1.447   9.741
30123SOL    HW192208   1.932   1.377   9.729
30123SOL    HW292209   1.918   1.516   9.787
30124SOL     OW92210   0.867   6.592   1.603
30124SOL    HW192211   0.820   6.512   1.623
30124SOL    HW292212   0.825   6.660   1.656
30125SOL     OW92213  10.964   4.797  12.411
30125SOL    HW192214  10.999   4.880  12.442
30125SOL    HW292215  10.897   4.773  12.476
30126SOL     OW92216  14.501   0.712   6.855
30126SOL    HW192217  14.559   0.780   6.889
30126SOL    HW292218  14.428   0.761   6.816
30127SOL     OW92219   0.331   5.518   3.939
30127SOL    HW192220   0.397   5.507   4.007
30127SOL    HW292221   0.368   5.473   3.863
30128SOL     OW92222   2.288  10.690   3.949
30128SOL    HW192223   2.260  10.599   3.939
30128SOL    HW292224   2.384  10.685   3.950
30129SOL     OW92225   1.642  10.538   7.906
30129SOL    HW192226   1.707  10.501   7.846
30129SOL    HW292227   1.602  10.610   7.857
30130SOL     OW92228   5.594  11.430  11.113
30130SOL    HW192229   5.601  11.343  11.075
30130SOL    HW292230   5.559  11.484  11.041
30131SOL     OW92231  10.797   2.884   8.461
30131SOL    HW192232  10.844   2.882   8.544
30131SOL    HW292233  10.862   2.854   8.397
30132SOL     OW92234  11.159  14.502   7.366
30132SOL    HW192235  11.208  14.528   7.289
30132SOL    HW292236  11.222  14.508   7.438
30133SOL     OW92237   7.812   0.313  10.136
30133SOL    HW192238   7.773   0.399  10.156
30133SOL    HW292239   7.797   0.261  10.215
30134SOL     OW92240   0.626  11.712  13.914
30134SOL    HW192241   0.620  11.798  13.956
30134SOL    HW292242   0.672  11.730  13.831
30135SOL     OW92243   7.497   6.027  13.932
30135SOL    HW192244   7.458   6.017  13.845
30135SOL    HW292245   7.581   6.068  13.915
30136SOL     OW92246  10.927   0.673  12.484
30136SOL    HW192247  11.013   0.630  12.491
30136SOL    HW292248  10.939   0.742  12.419
30137SOL     OW92249  12.774   5.141   2.256
30137SOL    HW192250  12.769   5.056   2.212
30137SOL    HW292251  12.868   5.156   2.269
30138SOL     OW92252  13.682  14.753  12.667
30138SOL    HW192253  13.654  14.680  12.612
30138SOL    HW292254  13.744  14.801  12.613
30139SOL     OW92255   7.357  12.096  11.663
30139SOL    HW192256   7.446  12.117  11.692
30139SOL    HW292257   7.350  12.001  11.674
30140SOL     OW92258   3.372   7.381   4.840
30140SOL    HW192259   3.380   7.476   4.846
30140SOL    HW292260   3.402   7.349   4.925
30141SOL     OW92261   8.776  11.728   0.656
30141SOL    HW192262   8.746  11.637   0.648
30141SOL    HW292263   8.868  11.725   0.629
30142SOL     OW92264   0.170   4.633   5.408
30142SOL    HW192265   0.127   4.548   5.413
30142SOL    HW292266   0.244   4.618   5.349
30143SOL     OW92267  10.621   6.667  12.706
30143SOL    HW192268  10.589   6.734  12.765
30143SOL    HW292269  10.657   6.716  12.631
30144SOL     OW92270   8.063  14.764   9.340
30144SOL    HW192271   7.969  14.742   9.342
30144SOL    HW292272   8.091  14.754   9.431
30145SOL     OW92273   4.125  14.195  11.446
30145SOL    HW192274   4.041  14.179  11.403
30145SOL    HW292275   4.154  14.279  11.410
30146SOL     OW92276   1.189   1.410   5.978
30146SOL    HW192277   1.159   1.331   6.024
30146SOL    HW292278   1.170   1.481   6.040
30147SOL     OW92279   4.487  13.423  12.349
30147SOL    HW192280   4.419  13.355  12.355
30147SOL    HW292281   4.454  13.483  12.282
30148SOL     OW92282   6.391   0.424  10.709
30148SOL    HW192283   6.321   0.432  10.774
30148SOL    HW292284   6.444   0.502  10.721
30149SOL     OW92285  10.941   2.742   8.292
30149SOL    HW192286  11.025   2.700   8.311
30149SOL    HW292287  10.879   2.670   8.283
30150SOL     OW92288   2.452   9.766  14.304
30150SOL    HW192289   2.535   9.754  14.349
30150SOL    HW292290   2.449   9.694  14.240
30151SOL     OW92291   9.117  12.499   7.062
30151SOL    HW192292   9.209  12.491   7.036
30151SOL    HW292293   9.068  12.487   6.980
30152SOL     OW92294   4.033  10.220   9.869
30152SOL    HW192295   4.094  10.146   9.860
30152SOL    HW292296   3.977  10.195   9.943
30153SOL     OW92297   5.294  10.335   2.468
30153SOL    HW192298   5.242  10.406   2.431
30153SOL    HW292299   5.279  10.261   2.409
30154SOL     OW92300  10.887  10.234  10.974
30154SOL    HW192301  10.844  10.149  10.969
30154SOL    HW292302  10.846  10.277  11.049
30155SOL     OW92303  13.595   6.924  13.607
30155SOL    HW192304  13.600   6.838  13.648
30155SOL    HW292305  13.607   6.986  13.679
30156SOL     OW92306   0.505   5.078   4.581
30156SOL    HW192307   0.433   5.064   4.519
30156SOL    HW292308   0.545   5.160   4.553
30157SOL     OW92309   1.298   5.027   2.679
30157SOL    HW192310   1.246   5.106   2.692
30157SOL    HW292311   1.246   4.956   2.718
30158SOL     OW92312   1.131   9.884  11.388
30158SOL    HW192313   1.080   9.804  11.396
30158SOL    HW292314   1.168   9.882  11.300
30159SOL     OW92315  14.581  12.262   5.415
30159SOL    HW192316  14.567  12.205   5.491
30159SOL    HW292317  14.619  12.204   5.349
30160SOL     OW92318  11.990   2.385   1.545
30160SOL    HW192319  11.908   2.377   1.594
30160SOL    HW292320  12.059   2.368   1.609
30161SOL     OW92321   8.828   0.469   2.408
30161SOL    HW192322   8.829   0.538   2.343
30161SOL    HW292323   8.872   0.395   2.365
30162SOL     OW92324   3.480  13.198   2.984
30162SOL    HW192325   3.546  13.213   2.916
30162SOL    HW292326   3.499  13.110   3.016
30163SOL     OW92327  10.983   1.859   7.563
30163SOL    HW192328  10.985   1.954   7.573
30163SOL    HW292329  10.908   1.831   7.616
30164SOL     OW92330   1.254   1.485   7.709
30164SOL    HW192331   1.245   1.390   7.696
30164SOL    HW292332   1.348   1.498   7.721
30165SOL     OW92333   0.056   9.727   6.929
30165SOL    HW192334   0.083   9.647   6.973
30165SOL    HW292335   0.105   9.796   6.973
30166SOL     OW92336  14.868  13.230   8.555
30166SOL    HW192337  14.839  13.242   8.465
30166SOL    HW292338  14.846  13.138   8.575
30167SOL     OW92339   4.130   7.034   7.804
30167SOL    HW192340   4.190   7.076   7.742
30167SOL    HW292341   4.187   6.996   7.870
30168SOL     OW92342   3.158   8.060   5.341
30168SOL    HW192343   3.253   8.060   5.351
30168SOL    HW292344   3.141   7.996   5.271
30169SOL     OW92345  11.856  11.536   0.697
30169SOL    HW192346  11.946  11.563   0.711
30169SOL    HW292347  11.809  11.564   0.776
30170SOL     OW92348   5.774   2.633  11.915
30170SOL    HW192349   5.793   2.703  11.853
30170SOL    HW292350   5.831   2.651  11.990
30171SOL     OW92351   1.068   7.628  13.085
30171SOL    HW192352   1.061   7.534  13.102
30171SOL    HW292353   1.108   7.633  12.998
30172SOL     OW92354  14.800  10.373  13.956
30172SOL    HW192355  14.806  10.455  14.005
30172SOL    HW292356  14.820  10.305  14.020
30173SOL     OW92357   8.198  12.186   5.392
30173SOL    HW192358   8.196  12.131   5.314
30173SOL    HW292359   8.214  12.124   5.464
30174SOL     OW92360   9.382   4.302   0.917
30174SOL    HW192361   9.349   4.220   0.880
30174SOL    HW292362   9.303   4.356   0.930
30175SOL     OW92363  11.056   1.251   1.250
30175SOL    HW192364  11.105   1.271   1.330
30175SOL    HW292365  11.121   1.256   1.180
30176SOL     OW92366   8.392   1.517  12.041
30176SOL    HW192367   8.446   1.535  11.964
30176SOL    HW292368   8.381   1.422  12.040
30177SOL     OW92369  14.233  14.050   6.013
30177SOL    HW192370  14.177  14.116   6.054
30177SOL    HW292371  14.320  14.089   6.011
30178SOL     OW92372  12.670   7.786   7.160
30178SOL    HW192373  12.639   7.725   7.226
30178SOL    HW292374  12.692   7.866   7.209
30179SOL     OW92375  10.796   9.722   2.202
30179SOL    HW192376  10.872   9.670   2.230
30179SOL    HW292377  10.815   9.811   2.232
30180SOL     OW92378   9.328   7.013   0.040
30180SOL    HW192379   9.353   6.983   0.127
30180SOL    HW292380   9.253   7.071   0.056
30181SOL     OW92381  12.020   5.805   6.411
30181SOL    HW192382  12.041   5.737   6.348
30181SOL    HW292383  12.104   5.842   6.436
30182SOL     OW92384   1.956  13.969  13.077
30182SOL    HW192385   2.017  13.895  13.085
30182SOL    HW292386   1.888  13.950  13.141
30183SOL     OW92387   0.834   1.895   9.170
30183SOL    HW192388   0.917   1.867   9.132
30183SOL    HW292389   0.845   1.880   9.264
30184SOL     OW92390   2.794  10.353   4.469
30184SOL    HW192391   2.853  10.290   4.510
30184SOL    HW292392   2.815  10.349   4.376
30185SOL     OW92393  10.437   7.559   1.726
30185SOL    HW192394  10.366   7.495   1.730
30185SOL    HW292395  10.394   7.640   1.699
30186SOL     OW92396   3.948   6.966   0.648
30186SOL    HW192397   4.005   6.939   0.720
30186SOL    HW292398   3.859   6.956   0.682
30187SOL     OW92399   1.382   3.793   6.027
30187SOL    HW192400   1.411   3.816   5.939
30187SOL    HW292401   1.287   3.796   6.023
30188SOL     OW92402   3.057   6.380  12.014
30188SOL    HW192403   3.081   6.289  12.032
30188SOL    HW292404   2.980   6.375  11.958
30189SOL     OW92405   7.285  11.460   5.278
30189SOL    HW192406   7.234  11.449   5.197
30189SOL    HW292407   7.280  11.553   5.296
30190SOL     OW92408   6.936   5.456  11.476
30190SOL    HW192409   6.861   5.509  11.450
30190SOL    HW292410   6.946   5.392  11.405
30191SOL     OW92411   8.817   0.994   9.522
30191SOL    HW192412   8.823   1.045   9.441
30191SOL    HW292413   8.842   0.905   9.497
30192SOL     OW92414  11.444  14.113   4.560
30192SOL    HW192415  11.461  14.026   4.596
30192SOL    HW292416  11.404  14.162   4.632
30193SOL     OW92417   7.847  14.456  12.904
30193SOL    HW192418   7.827  14.417  12.818
30193SOL    HW292419   7.937  14.431  12.921
30194SOL     OW92420   6.649  11.417   3.259
30194SOL    HW192421   6.575  11.362   3.283
30194SOL    HW292422   6.614  11.505   3.257
30195SOL     OW92423   8.433   4.339  14.589
30195SOL    HW192424   8.467   4.404  14.527
30195SOL    HW292425   8.485   4.261  14.573
30196SOL     OW92426  14.758   2.696  14.158
30196SOL    HW192427  14.724   2.766  14.103
30196SOL    HW292428  14.829   2.657  14.107
30197SOL     OW92429   7.267  13.282  13.394
30197SOL    HW192430   7.328  13.224  13.441
30197SOL    HW292431   7.180  13.250  13.418
30198SOL     OW92432   2.578  10.427  13.950
30198SOL    HW192433   2.664  10.391  13.971
30198SOL    HW292434   2.517  10.374  14.001
30199SOL     OW92435  12.867   6.216   6.420
30199SOL    HW192436  12.906   6.133   6.446
30199SOL    HW292437  12.935   6.281   6.436
30200SOL     OW92438  13.965   6.527   5.372
30200SOL    HW192439  14.002   6.535   5.284
30200SOL    HW292440  14.039   6.545   5.430
30201SOL     OW92441  13.580   0.576   2.252
30201SOL    HW192442  13.650   0.639   2.266
30201SOL    HW292443  13.559   0.543   2.340
30202SOL     OW92444  11.714  11.529   3.769
30202SOL    HW192445  11.630  11.493   3.795
30202SOL    HW292446  11.692  11.604   3.714
30203SOL     OW92447   7.025   0.045   1.213
30203SOL    HW192448   6.974   0.077   1.288
30203SOL    HW292449   6.963   0.049   1.139
30204SOL     OW92450  13.785   4.193   7.840
30204SOL    HW192451  13.836   4.185   7.759
30204SOL    HW292452  13.700   4.227   7.812
30205SOL     OW92453  11.919   1.878  11.851
30205SOL    HW192454  11.965   1.961  11.837
30205SOL    HW292455  11.837   1.888  11.802
30206SOL     OW92456   8.154  13.898   2.414
30206SOL    HW192457   8.126  13.910   2.323
30206SOL    HW292458   8.112  13.970   2.461
30207SOL     OW92459  14.482  10.251   4.929
30207SOL    HW192460  14.399  10.295   4.946
30207SOL    HW292461  14.548  10.320   4.936
30208SOL     OW92462  13.746   0.014  13.970
30208SOL    HW192463  13.774  14.834  14.043
30208SOL    HW292464  13.669  14.846  13.935
30209SOL     OW92465   5.063  13.820   9.844
30209SOL    HW192466   4.972  13.805   9.816
30209SOL    HW292467   5.109  13.842   9.763
30210SOL     OW92468   9.235   4.812   1.179
30210SOL    HW192469   9.172   4.749   1.144
30210SOL    HW292470   9.204   4.897   1.148
30211SOL     OW92471   9.154   1.899  11.364
30211SOL    HW192472   9.066   1.877  11.335
30211SOL    HW292473   9.143   1.980  11.414
30212SOL     OW92474  10.734   6.813   3.539
30212SOL    HW192475  10.756   6.729   3.578
30212SOL    HW292476  10.793   6.875   3.582
30213SOL     OW92477  14.358   2.671   8.342
30213SOL    HW192478  14.398   2.718   8.415
30213SOL    HW292479  14.386   2.720   8.264
30214SOL     OW92480   1.741  11.238   9.030
30214SOL    HW192481   1.779  11.251   8.943
30214SOL    HW292482   1.670  11.174   9.016
30215SOL     OW92483  12.649   8.771   9.858
30215SOL    HW192484  12.654   8.795   9.951
30215SOL    HW292485  12.584   8.832   9.822
30216SOL     OW92486   9.015  10.753   4.469
30216SOL    HW192487   8.973  10.669   4.448
30216SOL    HW292488   9.107  10.739   4.448
30217SOL     OW92489  13.262  12.789  14.055
30217SOL    HW192490  13.218  12.827  14.131
30217SOL    HW292491  13.220  12.830  13.979
30218SOL     OW92492   9.262   0.468   3.838
30218SOL    HW192493   9.341   0.465   3.784
30218SOL    HW292494   9.192   0.493   3.777
30219SOL     OW92495  12.710  13.443  12.009
30219SOL    HW192496  12.707  13.483  12.095
30219SOL    HW292497  12.788  13.387  12.010
30220SOL     OW92498   0.727   3.745   4.088
30220SOL    HW192499   0.791   3.702   4.145
30220SOL    HW292500   0.671   3.674   4.057
30221SOL     OW92501  10.364   5.850   3.609
30221SOL    HW192502  10.371   5.816   3.698
30221SOL    HW292503  10.314   5.931   3.617
30222SOL     OW92504   4.153   9.761  11.261
30222SOL    HW192505   4.178   9.782  11.351
30222SOL    HW292506   4.108   9.840  11.229
30223SOL     OW92507  10.814   9.272   1.565
30223SOL    HW192508  10.883   9.264   1.498
30223SOL    HW292509  10.853   9.234   1.644
30224SOL     OW92510  12.608  13.915   0.294
30224SOL    HW192511  12.670  13.975   0.336
30224SOL    HW292512  12.608  13.942   0.202
30225SOL     OW92513   7.235   8.931   2.446
30225SOL    HW192514   7.155   8.920   2.395
30225SOL    HW292515   7.204   8.946   2.536
30226SOL     OW92516  14.648   9.803  10.043
30226SOL    HW192517  14.675   9.894  10.031
30226SOL    HW292518  14.696   9.774  10.120
30227SOL     OW92519  10.643   5.898  13.407
30227SOL    HW192520  10.706   5.964  13.436
30227SOL    HW292521  10.575   5.899  13.474
30228SOL     OW92522  11.070   8.409   2.090
30228SOL    HW192523  11.092   8.433   2.000
30228SOL    HW292524  10.997   8.466   2.113
30229SOL     OW92525   2.720  14.728   9.372
30229SOL    HW192526   2.695  14.641   9.404
30229SOL    HW292527   2.726  14.782   9.451
30230SOL     OW92528   8.426   0.018   8.460
30230SOL    HW192529   8.495  14.865   8.520
30230SOL    HW292530   8.441   0.112   8.450
30231SOL     OW92531  12.264   2.918   0.631
30231SOL    HW192532  12.298   2.828   0.626
30231SOL    HW292533  12.190   2.918   0.570
30232SOL     OW92534   3.069   1.439   2.698
30232SOL    HW192535   3.023   1.450   2.781
30232SOL    HW292536   3.132   1.512   2.696
30233SOL     OW92537   2.073  12.263  14.313
30233SOL    HW192538   2.138  12.199  14.283
30233SOL    HW292539   2.013  12.212  14.367
30234SOL     OW92540   5.639   0.733   4.505
30234SOL    HW192541   5.679   0.658   4.549
30234SOL    HW292542   5.666   0.724   4.414
30235SOL     OW92543   6.192   8.299   8.412
30235SOL    HW192544   6.192   8.204   8.398
30235SOL    HW292545   6.147   8.310   8.496
30236SOL     OW92546   2.340   0.395  11.265
30236SOL    HW192547   2.263   0.339  11.253
30236SOL    HW292548   2.368   0.379  11.355
30237SOL     OW92549   3.069   9.289   3.445
30237SOL    HW192550   3.065   9.350   3.519
30237SOL    HW292551   2.990   9.236   3.454
30238SOL     OW92552  10.435  12.636   6.338
30238SOL    HW192553  10.349  12.678   6.341
30238SOL    HW292554  10.495  12.702   6.373
30239SOL     OW92555   1.678  11.624   5.500
30239SOL    HW192556   1.590  11.661   5.499
30239SOL    HW292557   1.679  11.567   5.577
30240SOL     OW92558   4.379  12.126   0.725
30240SOL    HW192559   4.343  12.153   0.641
30240SOL    HW292560   4.304  12.098   0.776
30241SOL     OW92561  11.651  12.928   4.298
30241SOL    HW192562  11.714  12.862   4.269
30241SOL    HW292563  11.702  12.990   4.349
30242SOL     OW92564  11.210   9.318   1.403
30242SOL    HW192565  11.183   9.395   1.453
30242SOL    HW292566  11.267   9.352   1.334
30243SOL     OW92567   8.844  11.270   7.721
30243SOL    HW192568   8.895  11.279   7.801
30243SOL    HW292569   8.762  11.316   7.739
30244SOL     OW92570  13.809   4.686  13.556
30244SOL    HW192571  13.804   4.692  13.652
30244SOL    HW292572  13.897   4.653  13.539
30245SOL     OW92573   4.136  10.371   5.852
30245SOL    HW192574   4.118  10.462   5.828
30245SOL    HW292575   4.230  10.368   5.868
30246SOL     OW92576   5.357   8.994  10.800
30246SOL    HW192577   5.404   9.014  10.720
30246SOL    HW292578   5.417   8.938  10.850
30247SOL     OW92579  14.081   7.515  14.875
30247SOL    HW192580  14.039   7.466  14.805
30247SOL    HW292581  14.073   7.459   0.076
30248SOL     OW92582  12.648   5.119   2.821
30248SOL    HW192583  12.658   5.206   2.782
30248SOL    HW292584  12.585   5.131   2.892
30249SOL     OW92585   3.982  12.054  10.109
30249SOL    HW192586   3.939  12.001  10.175
30249SOL    HW292587   4.013  12.132  10.156
30250SOL     OW92588   7.052  13.402   3.207
30250SOL    HW192589   7.096  13.481   3.176
30250SOL    HW292590   7.113  13.363   3.270
30251SOL     OW92591   0.841  14.411   7.105
30251SOL    HW192592   0.756  14.372   7.126
30251SOL    HW292593   0.837  14.499   7.144
30252SOL     OW92594   4.382   6.208  12.357
30252SOL    HW192595   4.420   6.187  12.271
30252SOL    HW292596   4.324   6.134  12.376
30253SOL     OW92597   5.881  12.519   0.268
30253SOL    HW192598   5.880  12.432   0.307
30253SOL    HW292599   5.805  12.521   0.211
30254SOL     OW92600  14.636   4.411  14.787
30254SOL    HW192601  14.555   4.365  14.806
30254SOL    HW292602  14.657   4.386  14.697
30255SOL     OW92603   7.068   8.689   8.218
30255SOL    HW192604   7.069   8.597   8.243
30255SOL    HW292605   6.998   8.727   8.272
30256SOL     OW92606   2.241   0.074   5.561
30256SOL    HW192607   2.175   0.095   5.626
30256SOL    HW292608   2.268  14.861   5.583
30257SOL     OW92609   9.068  14.546   0.041
30257SOL    HW192610   9.002  14.582  14.858
30257SOL    HW292611   9.066  14.605   0.116
30258SOL     OW92612  10.571   6.394  10.952
30258SOL    HW192613  10.636   6.340  10.996
30258SOL    HW292614  10.527   6.335  10.891
30259SOL     OW92615   9.456   0.586   0.030
30259SOL    HW192616   9.438   0.641   0.107
30259SOL    HW292617   9.548   0.601   0.012
30260SOL     OW92618  12.706  14.438   5.123
30260SOL    HW192619  12.744  14.413   5.207
30260SOL    HW292620  12.775  14.422   5.059
30261SOL     OW92621  13.158   5.489  14.043
30261SOL    HW192622  13.078   5.465  13.996
30261SOL    HW292623  13.229   5.450  13.991
30262SOL     OW92624  10.341  11.503   6.337
30262SOL    HW192625  10.261  11.505   6.285
30262SOL    HW292626  10.377  11.416   6.321
30263SOL     OW92627   1.636  10.908   7.428
30263SOL    HW192628   1.543  10.893   7.417
30263SOL    HW292629   1.662  10.849   7.499
30264SOL     OW92630   2.960  11.027   9.324
30264SOL    HW192631   2.929  11.024   9.414
30264SOL    HW292632   2.900  10.971   9.276
30265SOL     OW92633  10.489   3.107   0.619
30265SOL    HW192634  10.427   3.135   0.686
30265SOL    HW292635  10.478   3.169   0.548
30266SOL     OW92636  14.215   2.522  11.821
30266SOL    HW192637  14.136   2.547  11.870
30266SOL    HW292638  14.244   2.602  11.778
30267SOL     OW92639   9.868  13.242  11.295
30267SOL    HW192640   9.778  13.212  11.308
30267SOL    HW292641   9.922  13.165  11.315
30268SOL     OW92642   4.746   3.189   7.484
30268SOL    HW192643   4.783   3.250   7.547
30268SOL    HW292644   4.657   3.220   7.470
30269SOL     OW92645  11.920   1.373   8.511
30269SOL    HW192646  12.000   1.418   8.538
30269SOL    HW292647  11.862   1.380   8.587
30270SOL     OW92648   1.268   9.137  12.087
30270SOL    HW192649   1.313   9.054  12.106
30270SOL    HW292650   1.267   9.143  11.992
30271SOL     OW92651   2.907   5.943   9.023
30271SOL    HW192652   2.939   5.868   9.073
30271SOL    HW292653   2.814   5.925   9.010
30272SOL     OW92654   3.949  10.808  10.298
30272SOL    HW192655   3.978  10.750  10.369
30272SOL    HW292656   3.898  10.876  10.342
30273SOL     OW92657   3.933   4.964   8.349
30273SOL    HW192658   3.936   4.887   8.292
30273SOL    HW292659   4.004   5.020   8.317
30274SOL     OW92660  13.950   8.402   0.205
30274SOL    HW192661  14.044   8.390   0.188
30274SOL    HW292662  13.941   8.390   0.299
30275SOL     OW92663   4.812   4.212  10.613
30275SOL    HW192664   4.836   4.292  10.660
30275SOL    HW292665   4.734   4.180  10.658
30276SOL     OW92666   3.165  14.162   5.928
30276SOL    HW192667   3.122  14.231   5.978
30276SOL    HW292668   3.202  14.104   5.995
30277SOL     OW92669   4.579  12.521  14.868
30277SOL    HW192670   4.501  12.469  14.850
30277SOL    HW292671   4.572  12.545   0.084
30278SOL     OW92672   4.030   6.790   1.609
30278SOL    HW192673   4.066   6.863   1.658
30278SOL    HW292674   3.980   6.740   1.673
30279SOL     OW92675  12.447   4.788  10.562
30279SOL    HW192676  12.429   4.872  10.603
30279SOL    HW292677  12.440   4.804  10.468
30280SOL     OW92678  11.374   0.149   6.121
30280SOL    HW192679  11.466   0.124   6.124
30280SOL    HW292680  11.370   0.230   6.173
30281SOL     OW92681  13.449   5.281  13.240
30281SOL    HW192682  13.367   5.270  13.289
30281SOL    HW292683  13.421   5.313  13.154
30282SOL     OW92684  13.201  14.719   3.073
30282SOL    HW192685  13.128  14.762   3.028
30282SOL    HW292686  13.161  14.678   3.150
30283SOL     OW92687   1.407   7.264   0.721
30283SOL    HW192688   1.335   7.326   0.736
30283SOL    HW292689   1.439   7.287   0.634
30284SOL     OW92690   2.014   1.241   3.482
30284SOL    HW192691   1.989   1.186   3.556
30284SOL    HW292692   2.020   1.181   3.408
30285SOL     OW92693   3.546   5.964   6.109
30285SOL    HW192694   3.538   5.943   6.016
30285SOL    HW292695   3.623   6.021   6.114
30286SOL     OW92696   5.476   7.372   4.190
30286SOL    HW192697   5.430   7.345   4.269
30286SOL    HW292698   5.433   7.324   4.119
30287SOL     OW92699   8.916   1.183  10.954
30287SOL    HW192700   8.991   1.231  10.919
30287SOL    HW292701   8.955   1.108  10.998
30288SOL     OW92702   6.668   7.888   1.114
30288SOL    HW192703   6.663   7.876   1.020
30288SOL    HW292704   6.748   7.841   1.140
30289SOL     OW92705   1.336   4.107   7.427
30289SOL    HW192706   1.363   4.066   7.345
30289SOL    HW292707   1.280   4.180   7.401
30290SOL     OW92708  10.471  13.980   3.168
30290SOL    HW192709  10.470  14.070   3.137
30290SOL    HW292710  10.564  13.958   3.176
30291SOL     OW92711   9.251   3.015  12.104
30291SOL    HW192712   9.245   3.106  12.131
30291SOL    HW292713   9.226   3.015  12.011
30292SOL     OW92714  13.214  11.852   4.477
30292SOL    HW192715  13.196  11.935   4.523
30292SOL    HW292716  13.141  11.842   4.417
30293SOL     OW92717   6.480   7.262  12.296
30293SOL    HW192718   6.497   7.320  12.370
30293SOL    HW292719   6.439   7.318  12.230
30294SOL     OW92720  11.877   5.020   3.642
30294SOL    HW192721  11.912   5.104   3.612
30294SOL    HW292722  11.883   4.962   3.566
30295SOL     OW92723   2.933   0.043   6.528
30295SOL    HW192724   2.987   0.043   6.607
30295SOL    HW292725   2.987   0.088   6.463
30296SOL     OW92726  12.009   9.571   8.752
30296SOL    HW192727  11.987   9.505   8.686
30296SOL    HW292728  11.944   9.640   8.739
30297SOL     OW92729   2.115   2.539   1.796
30297SOL    HW192730   2.152   2.450   1.800
30297SOL    HW292731   2.170   2.590   1.856
30298SOL     OW92732  10.899   7.940   4.141
30298SOL    HW192733  10.939   7.883   4.075
30298SOL    HW292734  10.875   8.019   4.094
30299SOL     OW92735   8.497   7.957  14.704
30299SOL    HW192736   8.508   7.870  14.742
30299SOL    HW292737   8.583   7.980  14.670
30300SOL     OW92738   9.131   9.679   4.028
30300SOL    HW192739   9.144   9.715   3.941
30300SOL    HW292740   9.201   9.613   4.037
30301SOL     OW92741  14.563  14.606   7.344
30301SOL    HW192742  14.559  14.665   7.419
30301SOL    HW292743  14.652  14.614   7.311
30302SOL     OW92744   5.480  14.076  14.497
30302SOL    HW192745   5.498  14.168  14.477
30302SOL    HW292746   5.411  14.078  14.563
30303SOL     OW92747  11.496   1.443  10.992
30303SOL    HW192748  11.488   1.348  10.989
30303SOL    HW292749  11.576   1.458  11.043
30304SOL     OW92750  11.493   8.889   7.034
30304SOL    HW192751  11.585   8.879   7.057
30304SOL    HW292752  11.493   8.901   6.939
30305SOL     OW92753  10.818   5.241   9.283
30305SOL    HW192754  10.831   5.335   9.269
30305SOL    HW292755  10.897   5.213   9.329
30306SOL     OW92756   3.019   4.391  13.053
30306SOL    HW192757   2.975   4.455  13.109
30306SOL    HW292758   3.079   4.345  13.113
30307SOL     OW92759   0.477   1.906   4.715
30307SOL    HW192760   0.530   1.846   4.663
30307SOL    HW292761   0.401   1.854   4.742
30308SOL     OW92762   5.752  14.091   8.478
30308SOL    HW192763   5.820  14.059   8.418
30308SOL    HW292764   5.671  14.053   8.444
30309SOL     OW92765   7.409   7.113   2.099
30309SOL    HW192766   7.500   7.131   2.123
30309SOL    HW292767   7.372   7.200   2.080
30310SOL     OW92768  12.728   3.389   6.565
30310SOL    HW192769  12.721   3.324   6.495
30310SOL    HW292770  12.819   3.385   6.592
30311SOL     OW92771   5.142   6.319  13.076
30311SOL    HW192772   5.150   6.352  12.986
30311SOL    HW292773   5.151   6.224  13.067
30312SOL     OW92774  14.865   6.416  13.809
30312SOL    HW192775  14.818   6.369  13.740
30312SOL    HW292776  14.797   6.444  13.870
30313SOL     OW92777   9.503   0.557   4.381
30313SOL    HW192778   9.452   0.615   4.438
30313SOL    HW292779   9.535   0.614   4.311
30314SOL     OW92780  14.052  13.245   4.675
30314SOL    HW192781  14.008  13.310   4.620
30314SOL    HW292782  14.142  13.242   4.641
30315SOL     OW92783  14.552   8.176   9.207
30315SOL    HW192784  14.592   8.231   9.140
30315SOL    HW292785  14.621   8.115   9.233
30316SOL     OW92786   5.648   6.945  12.740
30316SOL    HW192787   5.592   6.878  12.700
30316SOL    HW292788   5.663   7.008  12.670
30317SOL     OW92789   3.958  14.537   3.838
30317SOL    HW192790   3.929  14.558   3.926
30317SOL    HW292791   3.940  14.616   3.787
30318SOL     OW92792   1.938   5.229   7.597
30318SOL    HW192793   1.948   5.320   7.569
30318SOL    HW292794   2.024   5.190   7.581
30319SOL     OW92795   2.134   1.023   8.841
30319SOL    HW192796   2.196   1.069   8.784
30319SOL    HW292797   2.104   0.949   8.790
30320SOL     OW92798  14.708   1.441  10.598
30320SOL    HW192799  14.684   1.348  10.595
30320SOL    HW292800  14.713   1.468  10.507
30321SOL     OW92801   7.646   2.529  10.414
30321SOL    HW192802   7.560   2.527  10.371
30321SOL    HW292803   7.625   2.539  10.507
30322SOL     OW92804  14.050   7.242   9.971
30322SOL    HW192805  14.141   7.245   9.942
30322SOL    HW292806  14.045   7.306  10.042
30323SOL     OW92807  11.037   3.406   7.352
30323SOL    HW192808  11.053   3.407   7.257
30323SOL    HW292809  10.963   3.347   7.363
30324SOL     OW92810   0.788   8.344   5.548
30324SOL    HW192811   0.798   8.372   5.639
30324SOL    HW292812   0.699   8.309   5.543
30325SOL     OW92813  12.801   1.755  14.825
30325SOL    HW192814  12.714   1.788  14.807
30325SOL    HW292815  12.856   1.833  14.833
30326SOL     OW92816  13.120   5.034   9.557
30326SOL    HW192817  13.094   5.018   9.467
30326SOL    HW292818  13.147   5.126   9.559
30327SOL     OW92819  11.912   5.039   1.111
30327SOL    HW192820  11.989   4.987   1.088
30327SOL    HW292821  11.876   5.067   1.026
30328SOL     OW92822  14.578  14.467   5.175
30328SOL    HW192823  14.516  14.505   5.114
30328SOL    HW292824  14.655  14.445   5.122
30329SOL     OW92825  12.286   0.317  14.060
30329SOL    HW192826  12.204   0.353  14.025
30329SOL    HW292827  12.303   0.240  14.005
30330SOL     OW92828  11.189   3.338   7.559
30330SOL    HW192829  11.126   3.392   7.511
30330SOL    HW292830  11.136   3.295   7.627
30331SOL     OW92831   4.421  12.394   3.985
30331SOL    HW192832   4.418  12.435   4.071
30331SOL    HW292833   4.356  12.324   3.989
30332SOL     OW92834  14.070  10.850   2.564
30332SOL    HW192835  14.009  10.801   2.508
30332SOL    HW292836  14.020  10.869   2.643
30333SOL     OW92837  12.329   3.997   9.234
30333SOL    HW192838  12.277   3.922   9.205
30333SOL    HW292839  12.288   4.072   9.191
30334SOL     OW92840   1.343   2.520   1.526
30334SOL    HW192841   1.346   2.443   1.582
30334SOL    HW292842   1.369   2.592   1.584
30335SOL     OW92843   6.732  11.220   1.524
30335SOL    HW192844   6.737  11.315   1.522
30335SOL    HW292845   6.684  11.200   1.605
30336SOL     OW92846   4.836  12.445  12.222
30336SOL    HW192847   4.805  12.394  12.147
30336SOL    HW292848   4.820  12.536  12.197
30337SOL     OW92849  11.507   5.073   1.624
30337SOL    HW192850  11.561   5.030   1.691
30337SOL    HW292851  11.566   5.135   1.581
30338SOL     OW92852   8.951  13.111  10.359
30338SOL    HW192853   8.947  13.205  10.376
30338SOL    HW292854   8.872  13.076  10.399
30339SOL     OW92855  11.383   7.066   2.576
30339SOL    HW192856  11.341   6.980   2.581
30339SOL    HW292857  11.316   7.127   2.607
30340SOL     OW92858   1.936   4.436   4.449
30340SOL    HW192859   1.972   4.516   4.487
30340SOL    HW292860   1.947   4.447   4.355
30341SOL     OW92861   2.644   4.214   1.365
30341SOL    HW192862   2.569   4.195   1.308
30341SOL    HW292863   2.629   4.303   1.395
30342SOL     OW92864   4.021  12.450   3.011
30342SOL    HW192865   4.057  12.506   2.942
30342SOL    HW292866   4.059  12.484   3.092
30343SOL     OW92867   2.676  11.267   7.655
30343SOL    HW192868   2.722  11.286   7.736
30343SOL    HW292869   2.586  11.247   7.682
30344SOL     OW92870   2.351   1.065   9.916
30344SOL    HW192871   2.410   1.057   9.990
30344SOL    HW292872   2.404   1.102   9.845
30345SOL     OW92873   5.265   2.910   2.063
30345SOL    HW192874   5.345   2.889   2.015
30345SOL    HW292875   5.195   2.900   1.999
30346SOL     OW92876  14.211   4.630  10.399
30346SOL    HW192877  14.257   4.576  10.463
30346SOL    HW292878  14.125   4.645  10.438
30347SOL     OW92879   6.770   0.519  10.884
30347SOL    HW192880   6.804   0.562  10.806
30347SOL    HW292881   6.842   0.524  10.947
30348SOL     OW92882  12.193  14.016  10.642
30348SOL    HW192883  12.254  13.957  10.597
30348SOL    HW292884  12.210  14.001  10.735
30349SOL     OW92885  11.721  12.726   0.657
30349SOL    HW192886  11.815  12.722   0.637
30349SOL    HW292887  11.707  12.653   0.718
30350SOL     OW92888   9.173   0.705   0.275
30350SOL    HW192889   9.105   0.638   0.262
30350SOL    HW292890   9.155   0.770   0.208
30351SOL     OW92891   8.592  13.335   5.206
30351SOL    HW192892   8.518  13.292   5.161
30351SOL    HW292893   8.631  13.267   5.260
30352SOL     OW92894  10.477   4.691   9.431
30352SOL    HW192895  10.561   4.738   9.436
30352SOL    HW292896  10.427   4.724   9.505
30353SOL     OW92897  10.570  13.727   7.694
30353SOL    HW192898  10.519  13.721   7.614
30353SOL    HW292899  10.513  13.688   7.761
30354SOL     OW92900   0.466   4.409   4.873
30354SOL    HW192901   0.470   4.313   4.882
30354SOL    HW292902   0.378   4.432   4.902
30355SOL     OW92903   3.501   2.625   8.845
30355SOL    HW192904   3.511   2.681   8.922
30355SOL    HW292905   3.461   2.545   8.878
30356SOL     OW92906  10.306   1.727   1.566
30356SOL    HW192907  10.271   1.800   1.618
30356SOL    HW292908  10.319   1.765   1.479
30357SOL     OW92909  13.037  13.591   6.784
30357SOL    HW192910  13.110  13.608   6.725
30357SOL    HW292911  13.042  13.497   6.802
30358SOL     OW92912  13.886   0.187  10.578
30358SOL    HW192913  13.940   0.154  10.506
30358SOL    HW292914  13.797   0.163  10.554
30359SOL     OW92915   5.781   3.999  11.505
30359SOL    HW192916   5.759   4.014  11.597
30359SOL    HW292917   5.819   3.911  11.503
30360SOL     OW92918   1.045  11.013  13.538
30360SOL    HW192919   1.125  11.047  13.579
30360SOL    HW292920   1.005  11.089  13.497
30361SOL     OW92921   8.483   3.257   5.900
30361SOL    HW192922   8.397   3.228   5.868
30361SOL    HW292923   8.494   3.345   5.863
30362SOL     OW92924   0.207  10.275  13.391
30362SOL    HW192925   0.249  10.318  13.466
30362SOL    HW292926   0.123  10.319  13.381
30363SOL     OW92927  13.804   1.180   6.783
30363SOL    HW192928  13.890   1.181   6.741
30363SOL    HW292929  13.776   1.271   6.783
30364SOL     OW92930   4.947  12.911   1.563
30364SOL    HW192931   4.983  12.925   1.651
30364SOL    HW292932   5.021  12.921   1.504
30365SOL     OW92933  14.304  10.077   7.159
30365SOL    HW192934  14.258   9.996   7.136
30365SOL    HW292935  14.306  10.077   7.255
30366SOL     OW92936   1.000   7.279   0.445
30366SOL    HW192937   1.009   7.271   0.540
30366SOL    HW292938   0.906   7.271   0.429
30367SOL     OW92939   2.905   6.109   4.744
30367SOL    HW192940   2.828   6.138   4.794
30367SOL    HW292941   2.923   6.021   4.777
30368SOL     OW92942  11.746   8.858   4.690
30368SOL    HW192943  11.752   8.841   4.784
30368SOL    HW292944  11.797   8.788   4.650
30369SOL     OW92945   4.006  13.556   1.436
30369SOL    HW192946   3.943  13.582   1.368
30369SOL    HW292947   3.954  13.506   1.499
30370SOL     OW92948   3.348   6.333   1.372
30370SOL    HW192949   3.314   6.416   1.406
30370SOL    HW292950   3.371   6.351   1.281
30371SOL     OW92951   3.361   7.763   3.459
30371SOL    HW192952   3.315   7.701   3.402
30371SOL    HW292953   3.393   7.710   3.531
30372SOL     OW92954   8.852   4.402   3.569
30372SOL    HW192955   8.917   4.469   3.552
30372SOL    HW292956   8.894   4.343   3.632
30373SOL     OW92957   1.370  12.152   3.760
30373SOL    HW192958   1.297  12.214   3.761
30373SOL    HW292959   1.424  12.180   3.687
30374SOL     OW92960   6.608  12.791   4.187
30374SOL    HW192961   6.575  12.801   4.098
30374SOL    HW292962   6.587  12.874   4.230
30375SOL     OW92963  14.846   7.289  11.997
30375SOL    HW192964  14.797   7.365  11.965
30375SOL    HW292965  14.812   7.274  12.086
30376SOL     OW92966   7.399   7.102  12.797
30376SOL    HW192967   7.376   7.024  12.849
30376SOL    HW292968   7.370   7.175  12.852
30377SOL     OW92969  10.695  10.758   8.051
30377SOL    HW192970  10.642  10.682   8.031
30377SOL    HW292971  10.650  10.800   8.125
30378SOL     OW92972   7.729  13.990   5.096
30378SOL    HW192973   7.678  13.933   5.153
30378SOL    HW292974   7.802  13.935   5.066
30379SOL     OW92975  10.257   7.692   1.234
30379SOL    HW192976  10.293   7.759   1.292
30379SOL    HW292977  10.184   7.654   1.284
30380SOL     OW92978   4.994   1.243  10.379
30380SOL    HW192979   4.986   1.171  10.317
30380SOL    HW292980   4.951   1.212  10.459
30381SOL     OW92981   2.562  10.387  11.900
30381SOL    HW192982   2.492  10.409  11.961
30381SOL    HW292983   2.595  10.302  11.932
30382SOL     OW92984   5.769   1.971   2.965
30382SOL    HW192985   5.785   1.935   3.052
30382SOL    HW292986   5.857   1.983   2.928
30383SOL     OW92987  13.795  13.154   2.981
30383SOL    HW192988  13.838  13.096   2.918
30383SOL    HW292989  13.808  13.242   2.945
30384SOL     OW92990  10.179   6.861  12.850
30384SOL    HW192991  10.127   6.866  12.930
30384SOL    HW292992  10.189   6.767  12.834
30385SOL     OW92993   3.939   0.495   7.070
30385SOL    HW192994   3.983   0.563   7.018
30385SOL    HW292995   3.912   0.540   7.150
30386SOL     OW92996   5.022   2.835   0.937
30386SOL    HW192997   5.010   2.855   1.030
30386SOL    HW292998   5.018   2.739   0.932
30387SOL     OW92999   3.050  12.594   5.919
30387SOL    HW193000   3.080  12.646   5.844
30387SOL    HW293001   3.127  12.544   5.946
30388SOL     OW93002   2.292  10.717   0.650
30388SOL    HW193003   2.323  10.800   0.688
30388SOL    HW293004   2.336  10.712   0.565
30389SOL     OW93005   9.970  11.602  10.128
30389SOL    HW193006   9.988  11.569  10.040
30389SOL    HW293007   9.929  11.529  10.174
30390SOL     OW93008   0.117   7.317   9.711
30390SOL    HW193009   0.077   7.239   9.673
30390SOL    HW293010   0.076   7.391   9.666
30391SOL     OW93011  12.983   7.611   7.389
30391SOL    HW193012  12.967   7.537   7.447
30391SOL    HW293013  12.982   7.573   7.301
30392SOL     OW93014   9.859   3.111  10.881
30392SOL    HW193015   9.838   3.086  10.970
30392SOL    HW293016   9.839   3.034  10.828
30393SOL     OW93017   7.174  14.008  13.104
30393SOL    HW193018   7.169  14.102  13.090
30393SOL    HW293019   7.245  13.996  13.167
30394SOL     OW93020  14.527  10.066   9.820
30394SOL    HW193021  14.602  10.020   9.783
30394SOL    HW293022  14.455  10.049   9.758
30395SOL     OW93023  12.620   9.898   2.740
30395SOL    HW193024  12.585   9.912   2.828
30395SOL    HW293025  12.579   9.816   2.711
30396SOL     OW93026   1.559   8.192  12.948
30396SOL    HW193027   1.589   8.247  12.875
30396SOL    HW293028   1.639   8.153  12.982
30397SOL     OW93029  12.289  12.604   0.078
30397SOL    HW193030  12.282  12.696   0.053
30397SOL    HW293031  12.245  12.599   0.163
30398SOL     OW93032   7.348   5.070  13.782
30398SOL    HW193033   7.255   5.090  13.794
30398SOL    HW293034   7.349   4.976  13.762
30399SOL     OW93035   6.438   3.932   3.658
30399SOL    HW193036   6.525   3.971   3.646
30399SOL    HW293037   6.454   3.849   3.702
30400SOL     OW93038   6.826  10.260  12.804
30400SOL    HW193039   6.847  10.307  12.884
30400SOL    HW293040   6.832  10.167  12.828
30401SOL     OW93041   1.908   7.839  14.158
30401SOL    HW193042   1.821   7.800  14.158
30401SOL    HW293043   1.948   7.809  14.240
30402SOL     OW93044   6.936  10.145   3.636
30402SOL    HW193045   6.993  10.221   3.634
30402SOL    HW293046   6.924  10.126   3.730
30403SOL     OW93047   5.013   1.321   3.617
30403SOL    HW193048   5.038   1.311   3.525
30403SOL    HW293049   5.075   1.386   3.651
30404SOL     OW93050  10.023   3.972  12.982
30404SOL    HW193051  10.061   4.059  12.998
30404SOL    HW293052   9.975   3.983  12.900
30405SOL     OW93053   5.522  14.002  11.618
30405SOL    HW193054   5.513  13.910  11.643
30405SOL    HW293055   5.492  14.051  11.694
30406SOL     OW93056  14.536   3.323   8.862
30406SOL    HW193057  14.479   3.395   8.837
30406SOL    HW293058  14.484   3.244   8.850
30407SOL     OW93059   1.644   1.402   6.364
30407SOL    HW193060   1.685   1.396   6.278
30407SOL    HW293061   1.715   1.424   6.423
30408SOL     OW93062  14.475   0.676   3.276
30408SOL    HW193063  14.393   0.684   3.228
30408SOL    HW293064  14.541   0.660   3.209
30409SOL     OW93065   4.285   4.704   7.806
30409SOL    HW193066   4.300   4.797   7.789
30409SOL    HW293067   4.325   4.660   7.730
30410SOL     OW93068  10.639   1.386  14.403
30410SOL    HW193069  10.623   1.360  14.313
30410SOL    HW293070  10.710   1.450  14.398
30411SOL     OW93071   8.285   6.944   3.365
30411SOL    HW193072   8.312   7.033   3.389
30411SOL    HW293073   8.361   6.890   3.385
30412SOL     OW93074   9.720   4.956   3.874
30412SOL    HW193075   9.812   4.930   3.868
30412SOL    HW293076   9.699   4.945   3.967
30413SOL     OW93077   3.047   4.839  12.281
30413SOL    HW193078   3.131   4.794  12.283
30413SOL    HW293079   3.042   4.878  12.193
30414SOL     OW93080   5.959   3.650   5.780
30414SOL    HW193081   5.977   3.630   5.688
30414SOL    HW293082   5.952   3.564   5.822
30415SOL     OW93083   3.335   2.182   5.101
30415SOL    HW193084   3.409   2.204   5.156
30415SOL    HW293085   3.303   2.267   5.069
30416SOL     OW93086   5.555   4.352  13.133
30416SOL    HW193087   5.517   4.311  13.055
30416SOL    HW293088   5.483   4.399  13.173
30417SOL     OW93089   5.704   1.355  13.752
30417SOL    HW193090   5.745   1.394  13.675
30417SOL    HW293091   5.726   1.415  13.823
30418SOL     OW93092  12.017   3.649   1.387
30418SOL    HW193093  11.956   3.652   1.460
30418SOL    HW293094  11.987   3.717   1.326
30419SOL     OW93095  14.094   9.599   3.004
30419SOL    HW193096  13.999   9.586   2.998
30419SOL    HW293097  14.130   9.511   2.993
30420SOL     OW93098   1.429   6.172   0.342
30420SOL    HW193099   1.337   6.146   0.336
30420SOL    HW293100   1.464   6.118   0.413
30421SOL     OW93101   1.042   8.610  10.231
30421SOL    HW193102   1.023   8.533  10.284
30421SOL    HW293103   1.037   8.683  10.293
30422SOL     OW93104  11.621   5.486  13.078
30422SOL    HW193105  11.618   5.513  13.169
30422SOL    HW293106  11.713   5.463  13.063
30423SOL     OW93107   0.188  11.917   2.039
30423SOL    HW193108   0.170  12.001   1.997
30423SOL    HW293109   0.273  11.890   2.005
30424SOL     OW93110   2.685   8.723  11.358
30424SOL    HW193111   2.732   8.729  11.442
30424SOL    HW293112   2.677   8.629  11.341
30425SOL     OW93113  12.117  10.601  12.815
30425SOL    HW193114  12.163  10.625  12.896
30425SOL    HW293115  12.106  10.506  12.822
30426SOL     OW93116   3.975  13.961   1.957
30426SOL    HW193117   3.897  13.908   1.938
30426SOL    HW293118   3.940  14.043   1.992
30427SOL     OW93119  11.595  11.460   0.561
30427SOL    HW193120  11.570  11.457   0.654
30427SOL    HW293121  11.678  11.508   0.561
30428SOL     OW93122  14.487   1.578  10.413
30428SOL    HW193123  14.451   1.623  10.336
30428SOL    HW293124  14.535   1.647  10.460
30429SOL     OW93125   8.722   2.407   3.584
30429SOL    HW193126   8.775   2.480   3.553
30429SOL    HW293127   8.700   2.429   3.674
30430SOL     OW93128  13.085   8.862   9.048
30430SOL    HW193129  13.101   8.813   9.129
30430SOL    HW293130  13.001   8.831   9.016
30431SOL     OW93131   7.203   1.787   2.762
30431SOL    HW193132   7.273   1.797   2.826
30431SOL    HW293133   7.249   1.776   2.678
30432SOL     OW93134   1.582   2.962  13.636
30432SOL    HW193135   1.590   2.889  13.575
30432SOL    HW293136   1.582   2.922  13.723
30433SOL     OW93137   7.781  11.455   5.110
30433SOL    HW193138   7.720  11.435   5.181
30433SOL    HW293139   7.852  11.392   5.122
30434SOL     OW93140   5.275   3.645   8.678
30434SOL    HW193141   5.206   3.684   8.732
30434SOL    HW293142   5.249   3.666   8.588
30435SOL     OW93143   3.308   2.018   0.164
30435SOL    HW193144   3.351   2.098   0.137
30435SOL    HW293145   3.266   2.040   0.247
30436SOL     OW93146   4.324  13.707   1.984
30436SOL    HW193147   4.418  13.687   1.985
30436SOL    HW293148   4.303  13.722   1.892
30437SOL     OW93149   2.859   9.404  13.158
30437SOL    HW193150   2.861   9.499  13.155
30437SOL    HW293151   2.778   9.383  13.206
30438SOL     OW93152  10.164  12.033  10.903
30438SOL    HW193153  10.204  12.100  10.957
30438SOL    HW293154  10.197  12.048  10.815
30439SOL     OW93155   5.173   4.385   0.534
30439SOL    HW193156   5.181   4.372   0.439
30439SOL    HW293157   5.078   4.391   0.549
30440SOL     OW93158   7.032   4.139   9.133
30440SOL    HW193159   6.968   4.068   9.128
30440SOL    HW293160   7.038   4.161   9.226
30441SOL     OW93161   1.590   1.861   1.549
30441SOL    HW193162   1.636   1.891   1.628
30441SOL    HW293163   1.635   1.780   1.525
30442SOL     OW93164   5.701   9.274   2.245
30442SOL    HW193165   5.648   9.304   2.319
30442SOL    HW293166   5.786   9.314   2.259
30443SOL     OW93167   4.953  14.516  13.653
30443SOL    HW193168   4.863  14.486  13.671
30443SOL    HW293169   4.951  14.610  13.669
30444SOL     OW93170  12.241   5.273   4.571
30444SOL    HW193171  12.236   5.180   4.551
30444SOL    HW293172  12.150   5.302   4.575
30445SOL     OW93173   0.176   3.948   1.678
30445SOL    HW193174   0.270   3.950   1.697
30445SOL    HW293175   0.162   3.866   1.632
30446SOL     OW93176   2.905  14.316   3.882
30446SOL    HW193177   2.924  14.409   3.895
30446SOL    HW293178   2.899  14.305   3.788
30447SOL     OW93179   9.866   9.890   7.094
30447SOL    HW193180   9.927   9.818   7.108
30447SOL    HW293181   9.908   9.966   7.133
30448SOL     OW93182   6.347   8.679   2.433
30448SOL    HW193183   6.299   8.598   2.452
30448SOL    HW293184   6.280   8.747   2.429
30449SOL     OW93185   0.915  11.288   2.546
30449SOL    HW193186   0.957  11.316   2.627
30449SOL    HW293187   0.822  11.278   2.568
30450SOL     OW93188  13.749   0.696   1.707
30450SOL    HW193189  13.765   0.666   1.797
30450SOL    HW293190  13.738   0.790   1.715
30451SOL     OW93191   6.658   4.192  14.306
30451SOL    HW193192   6.606   4.130  14.256
30451SOL    HW293193   6.706   4.242  14.239
30452SOL     OW93194   2.541   7.651  11.901
30452SOL    HW193195   2.535   7.694  11.815
30452SOL    HW293196   2.591   7.712  11.955
30453SOL     OW93197   1.210  13.877   2.701
30453SOL    HW193198   1.151  13.807   2.673
30453SOL    HW293199   1.297  13.837   2.696
30454SOL     OW93200  11.020   7.053   7.897
30454SOL    HW193201  10.973   6.971   7.909
30454SOL    HW293202  11.027   7.063   7.802
30455SOL     OW93203   4.142   6.740   6.167
30455SOL    HW193204   4.231   6.714   6.190
30455SOL    HW293205   4.126   6.700   6.081
30456SOL     OW93206   7.330   5.000   0.680
30456SOL    HW193207   7.272   5.047   0.740
30456SOL    HW293208   7.271   4.967   0.611
30457SOL     OW93209   8.569  12.183  10.046
30457SOL    HW193210   8.628  12.141  10.109
30457SOL    HW293211   8.613  12.263  10.020
30458SOL     OW93212   5.529   2.108   3.889
30458SOL    HW193213   5.524   2.059   3.807
30458SOL    HW293214   5.480   2.054   3.952
30459SOL     OW93215   0.259  11.166  11.368
30459SOL    HW193216   0.249  11.176  11.463
30459SOL    HW293217   0.252  11.255  11.334
30460SOL     OW93218   8.123   9.990   9.158
30460SOL    HW193219   8.064   9.951   9.093
30460SOL    HW293220   8.066  10.014   9.231
30461SOL     OW93221   5.691   0.357  14.100
30461SOL    HW193222   5.780   0.330  14.080
30461SOL    HW293223   5.648   0.278  14.134
30462SOL     OW93224   9.346  13.772   1.872
30462SOL    HW193225   9.439  13.785   1.853
30462SOL    HW293226   9.327  13.833   1.944
30463SOL     OW93227   7.006  13.436   5.993
30463SOL    HW193228   6.961  13.518   5.972
30463SOL    HW293229   7.033  13.401   5.908
30464SOL     OW93230   2.902   7.727   9.481
30464SOL    HW193231   2.828   7.763   9.433
30464SOL    HW293232   2.863   7.685   9.558
30465SOL     OW93233   7.166   0.393  11.274
30465SOL    HW193234   7.112   0.322  11.308
30465SOL    HW293235   7.126   0.473  11.308
30466SOL     OW93236   6.402  10.569   7.571
30466SOL    HW193237   6.476  10.574   7.510
30466SOL    HW293238   6.336  10.519   7.523
30467SOL     OW93239   8.444   1.714  12.635
30467SOL    HW193240   8.475   1.663  12.561
30467SOL    HW293241   8.372   1.663  12.671
30468SOL     OW93242   5.813   7.512  11.528
30468SOL    HW193243   5.782   7.560  11.451
30468SOL    HW293244   5.896   7.474  11.500
30469SOL     OW93245   4.349  14.838  12.181
30469SOL    HW193246   4.362   0.011  12.263
30469SOL    HW293247   4.255  14.826  12.175
30470SOL     OW93248   8.133   1.116  11.165
30470SOL    HW193249   8.076   1.056  11.117
30470SOL    HW293250   8.197   1.060  11.207
30471SOL     OW93251   1.360   6.024   9.059
30471SOL    HW193252   1.421   6.029   9.132
30471SOL    HW293253   1.399   6.079   8.991
30472SOL     OW93254  10.504   9.483  13.924
30472SOL    HW193255  10.436   9.495  13.991
30472SOL    HW293256  10.497   9.391  13.900
30473SOL     OW93257  11.159  11.186  13.197
30473SOL    HW193258  11.141  11.247  13.269
30473SOL    HW293259  11.251  11.162  13.208
30474SOL     OW93260  14.374   7.836  14.141
30474SOL    HW193261  14.422   7.909  14.178
30474SOL    HW293262  14.392   7.763  14.201
30475SOL     OW93263   7.197   6.167   2.901
30475SOL    HW193264   7.203   6.143   2.809
30475SOL    HW293265   7.284   6.200   2.924
30476SOL     OW93266   1.449   1.340  14.127
30476SOL    HW193267   1.467   1.368  14.217
30476SOL    HW293268   1.355   1.353  14.116
30477SOL     OW93269   6.661   9.081   8.789
30477SOL    HW193270   6.721   9.097   8.861
30477SOL    HW293271   6.712   9.097   8.710
30478SOL     OW93272   9.268   6.723   5.334
30478SOL    HW193273   9.323   6.787   5.289
30478SOL    HW293274   9.269   6.646   5.277
30479SOL     OW93275   3.095   8.610   4.271
30479SOL    HW193276   3.151   8.607   4.348
30479SOL    HW293277   3.008   8.627   4.305
30480SOL     OW93278  11.801   3.195  12.542
30480SOL    HW193279  11.765   3.253  12.609
30480SOL    HW293280  11.724   3.149  12.507
30481SOL     OW93281   1.593   6.451   7.390
30481SOL    HW193282   1.513   6.399   7.382
30481SOL    HW293283   1.588   6.489   7.477
30482SOL     OW93284   5.495  14.165  11.826
30482SOL    HW193285   5.526  14.120  11.905
30482SOL    HW293286   5.552  14.242  11.819
30483SOL     OW93287  12.043   6.915  12.064
30483SOL    HW193288  11.975   6.873  12.012
30483SOL    HW293289  12.122   6.906  12.011
30484SOL     OW93290  13.013   4.272   1.047
30484SOL    HW193291  12.986   4.238   1.132
30484SOL    HW293292  13.094   4.226   1.027
30485SOL     OW93293  14.510   8.322   0.186
30485SOL    HW193294  14.577   8.264   0.223
30485SOL    HW293295  14.526   8.318   0.091
30486SOL     OW93296  10.956   1.549  14.032
30486SOL    HW193297  11.037   1.558  14.081
30486SOL    HW293298  10.940   1.635  13.994
30487SOL     OW93299   1.403  10.015   8.862
30487SOL    HW193300   1.381   9.947   8.798
30487SOL    HW293301   1.326  10.018   8.919
30488SOL     OW93302   4.968   9.195  14.381
30488SOL    HW193303   4.906   9.141  14.431
30488SOL    HW293304   4.921   9.278  14.368
30489SOL     OW93305   5.341  12.435   1.658
30489SOL    HW193306   5.287  12.490   1.715
30489SOL    HW293307   5.431  12.452   1.687
30490SOL     OW93308   6.160   2.158  12.471
30490SOL    HW193309   6.175   2.120  12.385
30490SOL    HW293310   6.126   2.246  12.452
30491SOL     OW93311  10.286   6.094   1.439
30491SOL    HW193312  10.329   6.179   1.448
30491SOL    HW293313  10.192   6.115   1.434
30492SOL     OW93314   1.576   5.911   4.936
30492SOL    HW193315   1.623   5.927   5.018
30492SOL    HW293316   1.593   5.819   4.916
30493SOL     OW93317  12.227   4.369  13.072
30493SOL    HW193318  12.298   4.334  13.125
30493SOL    HW293319  12.264   4.448  13.031
30494SOL     OW93320   4.716   6.009  14.227
30494SOL    HW193321   4.673   5.927  14.249
30494SOL    HW293322   4.805   5.983  14.203
30495SOL     OW93323   3.048   2.405   8.521
30495SOL    HW193324   2.982   2.459   8.480
30495SOL    HW293325   3.000   2.350   8.583
30496SOL     OW93326   3.568  12.892   4.147
30496SOL    HW193327   3.474  12.906   4.136
30496SOL    HW293328   3.590  12.939   4.227
30497SOL     OW93329   9.822   6.120  14.695
30497SOL    HW193330   9.917   6.124  14.708
30497SOL    HW293331   9.804   6.188  14.630
30498SOL     OW93332   8.008   1.012  12.826
30498SOL    HW193333   7.993   0.927  12.868
30498SOL    HW293334   8.029   1.071  12.898
30499SOL     OW93335   9.912  12.789  10.694
30499SOL    HW193336   9.826  12.819  10.724
30499SOL    HW293337   9.968  12.866  10.701
30500SOL     OW93338   0.979  11.773   1.324
30500SOL    HW193339   0.985  11.707   1.392
30500SOL    HW293340   1.070  11.797   1.306
30501SOL     OW93341   7.012   0.519  10.335
30501SOL    HW193342   7.059   0.437  10.353
30501SOL    HW293343   7.072   0.587  10.365
30502SOL     OW93344   1.467   0.625   6.512
30502SOL    HW193345   1.473   0.533   6.537
30502SOL    HW293346   1.376   0.650   6.531
30503SOL     OW93347   4.587   3.873  12.155
30503SOL    HW193348   4.566   3.785  12.187
30503SOL    HW293349   4.555   3.931  12.224
30504SOL     OW93350   0.276   7.312   0.995
30504SOL    HW193351   0.277   7.306   0.900
30504SOL    HW293352   0.332   7.387   1.015
30505SOL     OW93353  14.777   2.071  10.349
30505SOL    HW193354  14.872   2.083  10.356
30505SOL    HW293355  14.746   2.152  10.309
30506SOL     OW93356   6.317  13.308   4.036
30506SOL    HW193357   6.225  13.291   4.055
30506SOL    HW293358   6.350  13.227   3.998
30507SOL     OW93359   1.046   0.513   9.730
30507SOL    HW193360   1.034   0.441   9.668
30507SOL    HW293361   1.070   0.588   9.676
30508SOL     OW93362   6.746  10.489   0.464
30508SOL    HW193363   6.825  10.460   0.417
30508SOL    HW293364   6.674  10.465   0.405
30509SOL     OW93365   4.242   1.922  13.465
30509SOL    HW193366   4.292   1.856  13.513
30509SOL    HW293367   4.188   1.871  13.404
30510SOL     OW93368  14.509  14.580   8.502
30510SOL    HW193369  14.580  14.643   8.507
30510SOL    HW293370  14.532  14.512   8.565
30511SOL     OW93371   6.693   3.250   3.765
30511SOL    HW193372   6.744   3.328   3.785
30511SOL    HW293373   6.611   3.263   3.813
30512SOL     OW93374   2.337  14.147   4.445
30512SOL    HW193375   2.418  14.165   4.492
30512SOL    HW293376   2.327  14.052   4.449
30513SOL     OW93377   2.517   1.078   2.329
30513SOL    HW193378   2.490   1.165   2.298
30513SOL    HW293379   2.516   1.085   2.424
30514SOL     OW93380   0.378   1.950  14.696
30514SOL    HW193381   0.362   1.943  14.790
30514SOL    HW293382   0.367   1.861  14.662
30515SOL     OW93383  10.284  13.656   1.520
30515SOL    HW193384  10.229  13.689   1.449
30515SOL    HW293385  10.291  13.729   1.581
30516SOL     OW93386  11.820   1.453   8.738
30516SOL    HW193387  11.843   1.546   8.727
30516SOL    HW293388  11.817   1.440   8.833
30517SOL     OW93389  11.200  10.571  10.690
30517SOL    HW193390  11.160  10.489  10.659
30517SOL    HW293391  11.275  10.584  10.632
30518SOL     OW93392   9.861   5.091   5.395
30518SOL    HW193393   9.837   5.055   5.309
30518SOL    HW293394   9.955   5.110   5.387
30519SOL     OW93395   7.810  10.007  14.560
30519SOL    HW193396   7.897  10.030  14.529
30519SOL    HW293397   7.784   9.933  14.505
30520SOL     OW93398  13.023   6.185  11.218
30520SOL    HW193399  12.982   6.116  11.271
30520SOL    HW293400  13.020   6.152  11.128
30521SOL     OW93401  10.279  13.926  10.985
30521SOL    HW193402  10.356  13.892  11.031
30521SOL    HW293403  10.286  14.021  10.994
30522SOL     OW93404   7.775   1.230   4.630
30522SOL    HW193405   7.761   1.138   4.653
30522SOL    HW293406   7.783   1.275   4.714
30523SOL     OW93407  14.786  11.303   2.846
30523SOL    HW193408  14.746  11.389   2.861
30523SOL    HW293409  14.783  11.261   2.932
30524SOL     OW93410  10.224   2.094  10.927
30524SOL    HW193411  10.203   2.025  10.864
30524SOL    HW293412  10.178   2.068  11.007
30525SOL     OW93413  13.316   3.582   6.899
30525SOL    HW193414  13.364   3.610   6.977
30525SOL    HW293415  13.233   3.630   6.903
30526SOL     OW93416   7.181  14.059  11.201
30526SOL    HW193417   7.252  14.011  11.243
30526SOL    HW293418   7.197  14.151  11.224
30527SOL     OW93419   7.337   4.479  14.011
30527SOL    HW193420   7.264   4.452  13.956
30527SOL    HW293421   7.341   4.414  14.081
30528SOL     OW93422   1.941   5.772   5.920
30528SOL    HW193423   1.958   5.755   6.013
30528SOL    HW293424   1.852   5.740   5.905
30529SOL     OW93425   0.920   3.659   0.151
30529SOL    HW193426   0.960   3.705   0.077
30529SOL    HW293427   0.906   3.728   0.216
30530SOL     OW93428   8.096  11.873  13.924
30530SOL    HW193429   8.028  11.816  13.959
30530SOL    HW293430   8.124  11.829  13.843
30531SOL     OW93431   6.339   7.695   9.021
30531SOL    HW193432   6.253   7.709   8.982
30531SOL    HW293433   6.349   7.600   9.026
30532SOL     OW93434  11.209   5.650   8.594
30532SOL    HW193435  11.134   5.621   8.542
30532SOL    HW293436  11.244   5.725   8.545
30533SOL     OW93437   4.763  13.160   2.104
30533SOL    HW193438   4.734  13.113   2.182
30533SOL    HW293439   4.782  13.091   2.040
30534SOL     OW93440   3.677   6.534   9.223
30534SOL    HW193441   3.606   6.594   9.201
30534SOL    HW293442   3.739   6.543   9.151
30535SOL     OW93443   0.138  13.368   5.755
30535SOL    HW193444   0.232  13.377   5.741
30535SOL    HW293445   0.104  13.457   5.751
30536SOL     OW93446  14.498  11.817   6.948
30536SOL    HW193447  14.448  11.797   6.869
30536SOL    HW293448  14.553  11.739   6.961
30537SOL     OW93449   6.679  14.509  10.475
30537SOL    HW193450   6.625  14.497  10.397
30537SOL    HW293451   6.622  14.484  10.548
30538SOL     OW93452   6.266  10.359   6.154
30538SOL    HW193453   6.186  10.307   6.166
30538SOL    HW293454   6.293  10.381   6.243
30539SOL     OW93455  13.807  11.472  13.777
30539SOL    HW193456  13.878  11.501  13.835
30539SOL    HW293457  13.729  11.514  13.813
30540SOL     OW93458   3.682  13.028  12.257
30540SOL    HW193459   3.592  13.062  12.261
30540SOL    HW293460   3.736  13.106  12.249
30541SOL     OW93461  10.775   0.665   6.128
30541SOL    HW193462  10.833   0.590   6.145
30541SOL    HW293463  10.779   0.717   6.208
30542SOL     OW93464  11.645  14.261   6.286
30542SOL    HW193465  11.680  14.172   6.286
30542SOL    HW293466  11.608  14.273   6.199
30543SOL     OW93467   4.956   8.836   0.019
30543SOL    HW193468   4.925   8.751  14.864
30543SOL    HW293469   4.879   8.877   0.059
30544SOL     OW93470   2.200  11.695  13.800
30544SOL    HW193471   2.110  11.663  13.797
30544SOL    HW293472   2.250  11.628  13.753
30545SOL     OW93473  11.567   9.404  12.612
30545SOL    HW193474  11.517   9.451  12.679
30545SOL    HW293475  11.524   9.428  12.530
30546SOL     OW93476  14.680  12.425   4.911
30546SOL    HW193477  14.617  12.485   4.871
30546SOL    HW293478  14.627  12.370   4.969
30547SOL     OW93479  14.079   4.377  12.200
30547SOL    HW193480  14.158   4.429  12.186
30547SOL    HW293481  14.068   4.376  12.295
30548SOL     OW93482   8.652  14.473   5.484
30548SOL    HW193483   8.655  14.459   5.578
30548SOL    HW293484   8.743  14.489   5.459
30549SOL     OW93485   4.951   4.928  10.410
30549SOL    HW193486   4.899   4.860  10.366
30549SOL    HW293487   4.933   4.915  10.503
30550SOL     OW93488   3.998  10.793   7.697
30550SOL    HW193489   3.936  10.758   7.761
30550SOL    HW293490   4.017  10.720   7.639
30551SOL     OW93491   2.333  13.843  12.872
30551SOL    HW193492   2.353  13.765  12.819
30551SOL    HW293493   2.308  13.910  12.808
30552SOL     OW93494   0.243   9.334  11.499
30552SOL    HW193495   0.268   9.247  11.533
30552SOL    HW293496   0.231   9.320  11.405
30553SOL     OW93497   1.447   4.115   8.904
30553SOL    HW193498   1.388   4.113   8.829
30553SOL    HW293499   1.492   4.031   8.901
30554SOL     OW93500   3.432   1.109   8.497
30554SOL    HW193501   3.374   1.179   8.468
30554SOL    HW293502   3.440   1.051   8.421
30555SOL     OW93503   5.152   7.798   9.688
30555SOL    HW193504   5.241   7.789   9.656
30555SOL    HW293505   5.138   7.720   9.742
30556SOL     OW93506  13.323   7.018   6.922
30556SOL    HW193507  13.416   7.040   6.913
30556SOL    HW293508  13.322   6.925   6.944
30557SOL     OW93509  14.080   1.094  14.541
30557SOL    HW193510  14.082   1.164  14.607
30557SOL    HW293511  14.166   1.098  14.500
30558SOL     OW93512  12.587   2.132   0.197
30558SOL    HW193513  12.585   2.087   0.112
30558SOL    HW293514  12.538   2.213   0.182
30559SOL     OW93515  12.376   0.327  13.707
30559SOL    HW193516  12.385   0.238  13.742
30559SOL    HW293517  12.346   0.314  13.617
30560SOL     OW93518   3.724  11.814   3.089
30560SOL    HW193519   3.793  11.868   3.128
30560SOL    HW293520   3.758  11.724   3.096
30561SOL     OW93521   6.941   9.981  13.892
30561SOL    HW193522   6.975   9.947  13.809
30561SOL    HW293523   6.849   9.998  13.875
30562SOL     OW93524  10.153  14.691   2.774
30562SOL    HW193525  10.088  14.621   2.766
30562SOL    HW293526  10.216  14.657   2.838
30563SOL     OW93527  13.635  12.506   8.403
30563SOL    HW193528  13.577  12.552   8.343
30563SOL    HW293529  13.577  12.464   8.467
30564SOL     OW93530   9.594   5.649   4.155
30564SOL    HW193531   9.509   5.629   4.195
30564SOL    HW293532   9.636   5.708   4.217
30565SOL     OW93533  10.001   2.021   6.105
30565SOL    HW193534  10.026   2.112   6.117
30565SOL    HW293535   9.994   2.010   6.010
30566SOL     OW93536   4.343  11.749   2.001
30566SOL    HW193537   4.418  11.731   2.058
30566SOL    HW293538   4.353  11.689   1.927
30567SOL     OW93539   7.380   1.289   9.561
30567SOL    HW193540   7.293   1.298   9.600
30567SOL    HW293541   7.364   1.289   9.466
30568SOL     OW93542   3.469   5.758   0.108
30568SOL    HW193543   3.438   5.750   0.017
30568SOL    HW293544   3.532   5.687   0.118
30569SOL     OW93545   8.178   8.343  12.415
30569SOL    HW193546   8.240   8.378  12.351
30569SOL    HW293547   8.234   8.303  12.482
30570SOL     OW93548  12.516   1.123   0.955
30570SOL    HW193549  12.460   1.046   0.945
30570SOL    HW293550  12.534   1.128   1.049
30571SOL     OW93551   7.659   9.892   1.179
30571SOL    HW193552   7.640   9.983   1.155
30571SOL    HW293553   7.707   9.898   1.261
30572SOL     OW93554   6.243  13.268  14.542
30572SOL    HW193555   6.182  13.341  14.543
30572SOL    HW293556   6.322  13.303  14.500
30573SOL     OW93557   3.271   4.506   0.182
30573SOL    HW193558   3.247   4.574   0.119
30573SOL    HW293559   3.265   4.549   0.267
30574SOL     OW93560   7.582  12.817   3.203
30574SOL    HW193561   7.635  12.886   3.164
30574SOL    HW293562   7.496  12.827   3.162
30575SOL     OW93563  10.123   6.865   9.299
30575SOL    HW193564  10.044   6.890   9.252
30575SOL    HW293565  10.130   6.770   9.286
30576SOL     OW93566  11.319   5.157  13.634
30576SOL    HW193567  11.242   5.143  13.579
30576SOL    HW293568  11.311   5.090  13.702
30577SOL     OW93569  12.315   9.071   8.880
30577SOL    HW193570  12.339   8.978   8.876
30577SOL    HW293571  12.334   9.096   8.971
30578SOL     OW93572   3.094   8.415   5.752
30578SOL    HW193573   3.134   8.350   5.694
30578SOL    HW293574   3.129   8.498   5.722
30579SOL     OW93575  12.312   4.773   4.675
30579SOL    HW193576  12.393   4.792   4.628
30579SOL    HW293577  12.242   4.797   4.614
30580SOL     OW93578   7.332   5.938   5.469
30580SOL    HW193579   7.283   6.019   5.488
30580SOL    HW293580   7.271   5.868   5.494
30581SOL     OW93581   5.395   7.280  13.705
30581SOL    HW193582   5.386   7.374  13.690
30581SOL    HW293583   5.446   7.248  13.630
30582SOL     OW93584  14.862   8.865  14.158
30582SOL    HW193585   0.047   8.938  14.153
30582SOL    HW293586  14.802   8.888  14.229
30583SOL     OW93587   1.338   4.409  12.965
30583SOL    HW193588   1.280   4.350  13.013
30583SOL    HW293589   1.360   4.477  13.029
30584SOL     OW93590   9.168   2.883   2.377
30584SOL    HW193591   9.224   2.954   2.409
30584SOL    HW293592   9.228   2.809   2.368
30585SOL     OW93593  14.438   3.323  10.977
30585SOL    HW193594  14.497   3.252  10.954
30585SOL    HW293595  14.406   3.356  10.893
30586SOL     OW93596   4.801  10.334   2.067
30586SOL    HW193597   4.881  10.387   2.068
30586SOL    HW293598   4.832  10.245   2.051
30587SOL     OW93599  14.676  11.898   5.067
30587SOL    HW193600  14.731  11.949   5.007
30587SOL    HW293601  14.666  11.954   5.144
30588SOL     OW93602   8.862  13.904   1.087
30588SOL    HW193603   8.951  13.889   1.057
30588SOL    HW293604   8.866  13.896   1.182
30589SOL     OW93605  11.893  11.432   5.142
30589SOL    HW193606  11.845  11.384   5.209
30589SOL    HW293607  11.985  11.413   5.159
30590SOL     OW93608  10.621   7.186   7.250
30590SOL    HW193609  10.654   7.204   7.162
30590SOL    HW293610  10.695   7.143   7.295
30591SOL     OW93611  11.184   5.018   5.957
30591SOL    HW193612  11.265   5.067   5.947
30591SOL    HW293613  11.137   5.062   6.028
30592SOL     OW93614   4.951   8.170   3.741
30592SOL    HW193615   4.877   8.136   3.790
30592SOL    HW293616   5.014   8.196   3.808
30593SOL     OW93617   9.417   8.970   0.614
30593SOL    HW193618   9.393   9.048   0.664
30593SOL    HW293619   9.360   8.901   0.648
30594SOL     OW93620  14.662  13.995   5.903
30594SOL    HW193621  14.757  13.994   5.899
30594SOL    HW293622  14.642  13.984   5.996
30595SOL     OW93623   7.356   1.497   9.368
30595SOL    HW193624   7.356   1.408   9.332
30595SOL    HW293625   7.271   1.533   9.344
30596SOL     OW93626   7.629  11.529   3.884
30596SOL    HW193627   7.675  11.489   3.810
30596SOL    HW293628   7.688  11.515   3.958
30597SOL     OW93629  10.518   9.442   2.414
30597SOL    HW193630  10.529   9.476   2.503
30597SOL    HW293631  10.550   9.352   2.418
30598SOL     OW93632   6.588   8.872   9.572
30598SOL    HW193633   6.562   8.959   9.604
30598SOL    HW293634   6.531   8.811   9.617
30599SOL     OW93635   0.459   5.929  11.103
30599SOL    HW193636   0.424   5.911  11.190
30599SOL    HW293637   0.417   5.864  11.047
30600SOL     OW93638  11.959   3.842   8.401
30600SOL    HW193639  12.043   3.841   8.356
30600SOL    HW293640  11.968   3.910   8.467
30601SOL     OW93641  12.205   7.284  14.259
30601SOL    HW193642  12.241   7.241  14.336
30601SOL    HW293643  12.278   7.334  14.223
30602SOL     OW93644   6.292   4.226   3.334
30602SOL    HW193645   6.235   4.190   3.266
30602SOL    HW293646   6.347   4.153   3.361
30603SOL     OW93647  14.040   0.055  14.470
30603SOL    HW193648  14.105   0.121  14.495
30603SOL    HW293649  14.090  14.863  14.426
30604SOL     OW93650   0.020   7.367  10.535
30604SOL    HW193651   0.047   7.446  10.580
30604SOL    HW293652   0.010   7.302  10.604
30605SOL     OW93653  11.551  12.079   1.772
30605SOL    HW193654  11.471  12.069   1.824
30605SOL    HW293655  11.601  12.000   1.790
30606SOL     OW93656   6.778   2.816  12.123
30606SOL    HW193657   6.787   2.794  12.216
30606SOL    HW293658   6.836   2.891  12.111
30607SOL     OW93659   1.898  13.352   3.378
30607SOL    HW193660   1.900  13.356   3.283
30607SOL    HW293661   1.829  13.414   3.403
30608SOL     OW93662  14.623   8.682  14.016
30608SOL    HW193663  14.569   8.749  14.058
30608SOL    HW293664  14.579   8.600  14.037
30609SOL     OW93665   6.504  14.586  13.253
30609SOL    HW193666   6.589  14.625  13.231
30609SOL    HW293667   6.443  14.626  13.192
30610SOL     OW93668   0.197   8.448  12.896
30610SOL    HW193669   0.139   8.514  12.934
30610SOL    HW293670   0.150   8.415  12.819
30611SOL     OW93671   6.138   4.849   5.442
30611SOL    HW193672   6.189   4.923   5.477
30611SOL    HW293673   6.057   4.851   5.492
30612SOL     OW93674  11.695   6.166  11.033
30612SOL    HW193675  11.758   6.232  11.062
30612SOL    HW293676  11.749   6.102  10.986
30613SOL     OW93677   8.390   8.170   4.257
30613SOL    HW193678   8.326   8.214   4.201
30613SOL    HW293679   8.397   8.082   4.220
30614SOL     OW93680   5.094   4.343  10.202
30614SOL    HW193681   5.100   4.268  10.262
30614SOL    HW293682   5.164   4.402  10.230
30615SOL     OW93683  11.908   1.114  11.832
30615SOL    HW193684  11.840   1.174  11.800
30615SOL    HW293685  11.989   1.164  11.825
30616SOL     OW93686   1.827   2.631   0.792
30616SOL    HW193687   1.761   2.622   0.861
30616SOL    HW293688   1.815   2.554   0.737
30617SOL     OW93689  10.037   4.201   9.891
30617SOL    HW193690  10.013   4.108   9.902
30617SOL    HW293691  10.011   4.221   9.801
30618SOL     OW93692   9.715   7.251  10.322
30618SOL    HW193693   9.726   7.157  10.307
30618SOL    HW293694   9.625   7.270  10.294
30619SOL     OW93695   1.804   6.580  11.636
30619SOL    HW193696   1.761   6.666  11.636
30619SOL    HW293697   1.897   6.600  11.648
30620SOL     OW93698  12.276   1.035  12.487
30620SOL    HW193699  12.207   1.075  12.540
30620SOL    HW293700  12.266   1.073  12.400
30621SOL     OW93701  14.203   2.882   0.050
30621SOL    HW193702  14.151   2.960   0.030
30621SOL    HW293703  14.288   2.898   0.009
30622SOL     OW93704   7.270   8.527  11.974
30622SOL    HW193705   7.262   8.556  11.883
30622SOL    HW293706   7.183   8.493  11.996
30623SOL     OW93707  10.880   6.503  10.669
30623SOL    HW193708  10.877   6.504  10.574
30623SOL    HW293709  10.825   6.429  10.695
30624SOL     OW93710   2.622  10.876  14.856
30624SOL    HW193711   2.649  10.784  14.850
30624SOL    HW293712   2.550  10.884  14.793
30625SOL     OW93713   2.419   2.564  13.836
30625SOL    HW193714   2.404   2.470  13.843
30625SOL    HW293715   2.383   2.599  13.918
30626SOL     OW93716  12.217   9.855   0.451
30626SOL    HW193717  12.301   9.862   0.406
30626SOL    HW293718  12.167   9.932   0.422
30627SOL     OW93719  12.440   1.954   3.808
30627SOL    HW193720  12.466   2.002   3.887
30627SOL    HW293721  12.475   1.866   3.822
30628SOL     OW93722   9.807   1.403   4.124
30628SOL    HW193723   9.736   1.367   4.177
30628SOL    HW293724   9.877   1.422   4.187
30629SOL     OW93725   2.459   2.799   6.130
30629SOL    HW193726   2.473   2.773   6.039
30629SOL    HW293727   2.545   2.829   6.160
30630SOL     OW93728   2.155   1.559   3.360
30630SOL    HW193729   2.124   1.500   3.428
30630SOL    HW293730   2.213   1.506   3.306
30631SOL     OW93731   1.250  14.152  13.538
30631SOL    HW193732   1.161  14.118  13.546
30631SOL    HW293733   1.259  14.175  13.445
30632SOL     OW93734   0.619  11.174  14.134
30632SOL    HW193735   0.674  11.252  14.141
30632SOL    HW293736   0.659  11.112  14.195
30633SOL     OW93737   4.150   4.428   7.453
30633SOL    HW193738   4.222   4.438   7.516
30633SOL    HW293739   4.143   4.334   7.440
30634SOL     OW93740  13.109   9.664   0.930
30634SOL    HW193741  13.067   9.582   0.907
30634SOL    HW293742  13.038   9.728   0.934
30635SOL     OW93743   6.000   9.320   0.822
30635SOL    HW193744   5.996   9.245   0.762
30635SOL    HW293745   6.086   9.358   0.807
30636SOL     OW93746  11.565  12.278   8.037
30636SOL    HW193747  11.576  12.273   8.132
30636SOL    HW293748  11.567  12.187   8.008
30637SOL     OW93749  10.043  10.279   1.841
30637SOL    HW193750  10.021  10.251   1.752
30637SOL    HW293751   9.986  10.227   1.897
30638SOL     OW93752   1.709  10.147   0.762
30638SOL    HW193753   1.771  10.078   0.785
30638SOL    HW293754   1.747  10.190   0.686
30639SOL     OW93755   8.572  11.038   1.989
30639SOL    HW193756   8.582  10.945   1.970
30639SOL    HW293757   8.621  11.082   1.920
30640SOL     OW93758   2.355   5.793  10.518
30640SOL    HW193759   2.268   5.831  10.514
30640SOL    HW293760   2.339   5.698  10.523
30641SOL     OW93761  10.396   8.350  11.514
30641SOL    HW193762  10.377   8.411  11.442
30641SOL    HW293763  10.328   8.368  11.579
30642SOL     OW93764  10.931  13.177  13.124
30642SOL    HW193765  10.896  13.262  13.150
30642SOL    HW293766  11.019  13.174  13.160
30643SOL     OW93767   6.000   5.643   2.179
30643SOL    HW193768   5.930   5.672   2.120
30643SOL    HW293769   5.986   5.693   2.259
30644SOL     OW93770   4.815   8.416   1.431
30644SOL    HW193771   4.839   8.481   1.498
30644SOL    HW293772   4.821   8.464   1.349
30645SOL     OW93773  12.831  12.821  12.505
30645SOL    HW193774  12.886  12.793  12.579
30645SOL    HW293775  12.742  12.819  12.540
30646SOL     OW93776   7.951   0.433   7.105
30646SOL    HW193777   7.892   0.507   7.091
30646SOL    HW293778   7.908   0.360   7.061
30647SOL     OW93779   5.616  11.219   7.924
30647SOL    HW193780   5.609  11.194   7.832
30647SOL    HW293781   5.662  11.146   7.966
30648SOL     OW93782   7.415   5.545   8.605
30648SOL    HW193783   7.369   5.479   8.657
30648SOL    HW293784   7.439   5.499   8.524
30649SOL     OW93785  13.188  14.095  11.456
30649SOL    HW193786  13.209  14.188  11.464
30649SOL    HW293787  13.240  14.066  11.381
30650SOL     OW93788   7.561  14.013   4.283
30650SOL    HW193789   7.529  13.923   4.290
30650SOL    HW293790   7.559  14.046   4.372
30651SOL     OW93791   5.851  12.126   2.166
30651SOL    HW193792   5.865  12.160   2.077
30651SOL    HW293793   5.867  12.201   2.223
30652SOL     OW93794  13.919  11.787   9.390
30652SOL    HW193795  13.939  11.876   9.419
30652SOL    HW293796  13.904  11.738   9.471
30653SOL     OW93797  11.571   8.255   0.739
30653SOL    HW193798  11.643   8.255   0.676
30653SOL    HW293799  11.613   8.277   0.822
30654SOL     OW93800   9.531   3.647   9.613
30654SOL    HW193801   9.516   3.581   9.545
30654SOL    HW293802   9.470   3.718   9.590
30655SOL     OW93803   8.480   4.443  10.386
30655SOL    HW193804   8.429   4.444  10.468
30655SOL    HW293805   8.414   4.446  10.317
30656SOL     OW93806  12.960   1.720   4.605
30656SOL    HW193807  12.961   1.627   4.628
30656SOL    HW293808  12.880   1.754   4.647
30657SOL     OW93809   6.401  12.122   4.943
30657SOL    HW193810   6.321  12.163   4.910
30657SOL    HW293811   6.400  12.033   4.908
30658SOL     OW93812  11.208   8.212   6.443
30658SOL    HW193813  11.217   8.159   6.364
30658SOL    HW293814  11.197   8.301   6.411
30659SOL     OW93815   9.920   7.843  10.550
30659SOL    HW193816   9.899   7.773  10.489
30659SOL    HW293817  10.003   7.816  10.590
30660SOL     OW93818   8.805   0.884   6.397
30660SOL    HW193819   8.883   0.938   6.409
30660SOL    HW293820   8.732   0.940   6.425
30661SOL     OW93821  13.868   2.305   2.560
30661SOL    HW193822  13.956   2.308   2.598
30661SOL    HW293823  13.883   2.295   2.466
30662SOL     OW93824  10.875   8.440  14.365
30662SOL    HW193825  10.815   8.512  14.383
30662SOL    HW293826  10.907   8.457  14.276
30663SOL     OW93827   7.116   0.467   0.259
30663SOL    HW193828   7.151   0.483   0.347
30663SOL    HW293829   7.035   0.419   0.274
30664SOL     OW93830   0.852  12.263  10.378
30664SOL    HW193831   0.887  12.247  10.466
30664SOL    HW293832   0.808  12.181  10.354
30665SOL     OW93833   2.521   7.153   2.865
30665SOL    HW193834   2.429   7.177   2.875
30665SOL    HW293835   2.539   7.164   2.772
30666SOL     OW93836   1.885   9.883   5.588
30666SOL    HW193837   1.836   9.851   5.664
30666SOL    HW293838   1.971   9.842   5.595
30667SOL     OW93839  14.600   2.695  14.644
30667SOL    HW193840  14.615   2.764  14.579
30667SOL    HW293841  14.636   2.616  14.604
30668SOL     OW93842  10.604   5.900   8.276
30668SOL    HW193843  10.550   5.847   8.334
30668SOL    HW293844  10.556   5.982   8.267
30669SOL     OW93845  10.448   6.162   8.310
30669SOL    HW193846  10.510   6.220   8.354
30669SOL    HW293847  10.384   6.140   8.378
30670SOL     OW93848  13.619   8.935   4.166
30670SOL    HW193849  13.589   8.844   4.170
30670SOL    HW293850  13.696   8.933   4.110
30671SOL     OW93851   6.513  11.899   6.771
30671SOL    HW193852   6.565  11.970   6.731
30671SOL    HW293853   6.547  11.819   6.731
30672SOL     OW93854   0.137   1.810  10.294
30672SOL    HW193855   0.127   1.759  10.375
30672SOL    HW293856   0.078   1.767  10.232
30673SOL     OW93857  10.403   4.449  13.171
30673SOL    HW193858  10.309   4.442  13.152
30673SOL    HW293859  10.440   4.490  13.093
30674SOL     OW93860   2.476   4.926  10.674
30674SOL    HW193861   2.423   5.003  10.697
30674SOL    HW293862   2.541   4.960  10.612
30675SOL     OW93863   6.710   5.279  13.016
30675SOL    HW193864   6.642   5.294  12.950
30675SOL    HW293865   6.756   5.362  13.022
30676SOL     OW93866  10.817  12.834  14.264
30676SOL    HW193867  10.808  12.778  14.341
30676SOL    HW293868  10.757  12.907  14.281
30677SOL     OW93869   7.347   8.628   9.061
30677SOL    HW193870   7.381   8.635   9.150
30677SOL    HW293871   7.382   8.704   9.015
30678SOL     OW93872   6.443   3.781   1.228
30678SOL    HW193873   6.455   3.778   1.133
30678SOL    HW293874   6.349   3.799   1.240
30679SOL     OW93875   3.798   3.803  14.146
30679SOL    HW193876   3.821   3.716  14.179
30679SOL    HW293877   3.874   3.831  14.096
30680SOL     OW93878   6.259  10.405   2.000
30680SOL    HW193879   6.276  10.334   1.937
30680SOL    HW293880   6.260  10.362   2.085
30681SOL     OW93881  12.702   4.810   5.363
30681SOL    HW193882  12.797   4.810   5.359
30681SOL    HW293883  12.675   4.884   5.309
30682SOL     OW93884   1.218  13.061  13.739
30682SOL    HW193885   1.207  13.122  13.666
30682SOL    HW293886   1.131  13.024  13.753
30683SOL     OW93887   3.771   5.064  14.873
30683SOL    HW193888   3.767   5.031  14.783
30683SOL    HW293889   3.844   5.127  14.872
30684SOL     OW93890   1.470   6.349   0.022
30684SOL    HW193891   1.416   6.273   0.001
30684SOL    HW293892   1.486   6.343   0.116
30685SOL     OW93893   2.786  10.900  10.835
30685SOL    HW193894   2.695  10.922  10.812
30685SOL    HW293895   2.801  10.815  10.793
30686SOL     OW93896   6.885   3.624  12.968
30686SOL    HW193897   6.921   3.658  13.050
30686SOL    HW293898   6.800   3.667  12.959
30687SOL     OW93899   0.522   8.271   3.107
30687SOL    HW193900   0.522   8.244   3.016
30687SOL    HW293901   0.597   8.330   3.115
30688SOL     OW93902   5.668  10.013  12.826
30688SOL    HW193903   5.612   9.964  12.766
30688SOL    HW293904   5.757   9.996  12.795
30689SOL     OW93905  10.242   0.873   0.973
30689SOL    HW193906  10.198   0.938   0.918
30689SOL    HW293907  10.196   0.877   1.056
30690SOL     OW93908   8.191  11.997   0.871
30690SOL    HW193909   8.265  12.044   0.832
30690SOL    HW293910   8.116  12.020   0.817
30691SOL     OW93911   3.416   9.922   8.975
30691SOL    HW193912   3.419   9.827   8.984
30691SOL    HW293913   3.424   9.955   9.064
30692SOL     OW93914   2.494   2.051   4.342
30692SOL    HW193915   2.457   1.964   4.330
30692SOL    HW293916   2.588   2.039   4.327
30693SOL     OW93917   6.956   9.197  11.201
30693SOL    HW193918   6.862   9.209  11.189
30693SOL    HW293919   6.996   9.258  11.138
30694SOL     OW93920   2.435   0.417   3.865
30694SOL    HW193921   2.399   0.431   3.952
30694SOL    HW293922   2.367   0.449   3.805
30695SOL     OW93923   8.728   3.947   7.488
30695SOL    HW193924   8.682   3.909   7.413
30695SOL    HW293925   8.710   3.886   7.560
30696SOL     OW93926   0.022   5.394   1.516
30696SOL    HW193927   0.093   5.368   1.575
30696SOL    HW293928  14.821   5.350   1.552
30697SOL     OW93929   5.317   0.772  12.919
30697SOL    HW193930   5.324   0.841  12.985
30697SOL    HW293931   5.315   0.691  12.970
30698SOL     OW93932   1.969  10.201   9.319
30698SOL    HW193933   2.060  10.174   9.302
30698SOL    HW293934   1.968  10.221   9.412
30699SOL     OW93935   9.763  13.440  11.670
30699SOL    HW193936   9.833  13.503  11.684
30699SOL    HW293937   9.712  13.476  11.597
30700SOL     OW93938   6.157   6.600   2.195
30700SOL    HW193939   6.067   6.631   2.196
30700SOL    HW293940   6.169   6.558   2.280
30701SOL     OW93941   1.666   1.854  14.183
30701SOL    HW193942   1.646   1.906  14.261
30701SOL    HW293943   1.761   1.843  14.185
30702SOL     OW93944  13.332   2.622   5.711
30702SOL    HW193945  13.248   2.585   5.738
30702SOL    HW293946  13.397   2.569   5.758
30703SOL     OW93947   0.098   1.914   4.056
30703SOL    HW193948   0.118   2.007   4.051
30703SOL    HW293949   0.016   1.909   4.105
30704SOL     OW93950   7.712   6.138   1.350
30704SOL    HW193951   7.651   6.101   1.286
30704SOL    HW293952   7.664   6.210   1.390
30705SOL     OW93953  10.646  12.788   5.624
30705SOL    HW193954  10.641  12.706   5.576
30705SOL    HW293955  10.555  12.816   5.635
30706SOL     OW93956   4.005   6.780   9.358
30706SOL    HW193957   4.046   6.711   9.306
30706SOL    HW293958   4.078   6.822   9.403
30707SOL     OW93959   2.654   3.864   3.647
30707SOL    HW193960   2.666   3.889   3.556
30707SOL    HW293961   2.736   3.886   3.690
30708SOL     OW93962  14.590   4.211  12.809
30708SOL    HW193963  14.579   4.307  12.812
30708SOL    HW293964  14.538   4.184  12.733
30709SOL     OW93965   9.633   3.376   0.158
30709SOL    HW193966   9.659   3.295   0.114
30709SOL    HW293967   9.711   3.403   0.205
30710SOL     OW93968   5.806   1.072   5.380
30710SOL    HW193969   5.896   1.059   5.411
30710SOL    HW293970   5.814   1.075   5.285
30711SOL     OW93971   5.084  11.145  13.946
30711SOL    HW193972   4.998  11.105  13.935
30711SOL    HW293973   5.077  11.193  14.029
30712SOL     OW93974  13.159   5.169   4.160
30712SOL    HW193975  13.242   5.172   4.113
30712SOL    HW293976  13.112   5.247   4.130
30713SOL     OW93977   1.343  10.240   6.359
30713SOL    HW193978   1.388  10.181   6.298
30713SOL    HW293979   1.283  10.290   6.303
30714SOL     OW93980   7.117   3.481   2.090
30714SOL    HW193981   7.187   3.534   2.128
30714SOL    HW293982   7.102   3.520   2.004
30715SOL     OW93983   9.073   2.353   9.216
30715SOL    HW193984   9.054   2.317   9.302
30715SOL    HW293985   9.164   2.382   9.221
30716SOL     OW93986  14.282  12.658  12.073
30716SOL    HW193987  14.233  12.579  12.049
30716SOL    HW293988  14.353  12.626  12.129
30717SOL     OW93989  10.694  11.493   9.704
30717SOL    HW193990  10.649  11.415   9.672
30717SOL    HW293991  10.733  11.532   9.626
30718SOL     OW93992  10.560  11.912   8.483
30718SOL    HW193993  10.528  11.836   8.532
30718SOL    HW293994  10.532  11.987   8.534
30719SOL     OW93995   1.746   1.317   5.238
30719SOL    HW193996   1.739   1.390   5.300
30719SOL    HW293997   1.838   1.314   5.214
30720SOL     OW93998  13.656   2.940   6.201
30720SOL    HW193999  13.747   2.913   6.191
30720SOL    HW294000  13.618   2.929   6.114
30721SOL     OW94001   5.760   5.949   1.829
30721SOL    HW194002   5.728   5.972   1.916
30721SOL    HW294003   5.783   6.032   1.788
30722SOL     OW94004  10.125   4.126  13.308
30722SOL    HW194005  10.053   4.079  13.351
30722SOL    HW294006  10.082   4.196  13.258
30723SOL     OW94007  11.228   7.292  14.153
30723SOL    HW194008  11.155   7.230  14.149
30723SOL    HW294009  11.210   7.356  14.084
30724SOL     OW94010   1.170   5.639   5.281
30724SOL    HW194011   1.101   5.578   5.255
30724SOL    HW294012   1.243   5.583   5.306
30725SOL     OW94013   1.459   8.114  11.338
30725SOL    HW194014   1.508   8.070  11.407
30725SOL    HW294015   1.508   8.094  11.258
30726SOL     OW94016   1.110  12.497   6.614
30726SOL    HW194017   1.038  12.438   6.632
30726SOL    HW294018   1.132  12.481   6.523
30727SOL     OW94019   0.835   8.153   8.458
30727SOL    HW194020   0.926   8.126   8.453
30727SOL    HW294021   0.794   8.090   8.518
30728SOL     OW94022  11.333   0.757   5.638
30728SOL    HW194023  11.278   0.767   5.716
30728SOL    HW294024  11.354   0.847   5.613
30729SOL     OW94025   6.522  12.049   2.743
30729SOL    HW194026   6.502  12.083   2.830
30729SOL    HW294027   6.617  12.054   2.735
30730SOL     OW94028  13.102   6.242  10.112
30730SOL    HW194029  13.181   6.279  10.071
30730SOL    HW294030  13.051   6.318  10.140
30731SOL     OW94031   8.287   9.615  11.778
30731SOL    HW194032   8.279   9.710  11.789
30731SOL    HW294033   8.381   9.600  11.768
30732SOL     OW94034  13.881   5.977   1.418
30732SOL    HW194035  13.797   5.981   1.372
30732SOL    HW294036  13.938   5.929   1.358
30733SOL     OW94037  14.623   1.188  10.624
30733SOL    HW194038  14.652   1.112  10.573
30733SOL    HW294039  14.548   1.156  10.675
30734SOL     OW94040   4.315  12.443   1.498
30734SOL    HW194041   4.232  12.405   1.526
30734SOL    HW294042   4.367  12.369   1.468
30735SOL     OW94043   7.570   0.246   8.513
30735SOL    HW194044   7.654   0.280   8.545
30735SOL    HW294045   7.516   0.237   8.592
30736SOL     OW94046   0.356   7.011   5.064
30736SOL    HW194047   0.439   7.059   5.063
30736SOL    HW294048   0.293   7.071   5.023
30737SOL     OW94049   5.222  11.046   7.459
30737SOL    HW194050   5.226  11.138   7.486
30737SOL    HW294051   5.308  11.010   7.482
30738SOL     OW94052  12.235  13.675   6.049
30738SOL    HW194053  12.149  13.652   6.015
30738SOL    HW294054  12.296  13.627   5.993
30739SOL     OW94055  10.871  14.371   5.242
30739SOL    HW194056  10.866  14.345   5.150
30739SOL    HW294057  10.827  14.301   5.290
30740SOL     OW94058   6.279   2.634   2.849
30740SOL    HW194059   6.221   2.684   2.907
30740SOL    HW294060   6.363   2.680   2.852
30741SOL     OW94061   0.364  13.553   2.044
30741SOL    HW194062   0.386  13.580   1.955
30741SOL    HW294063   0.268  13.560   2.048
30742SOL     OW94064  12.802   2.988  13.923
30742SOL    HW194065  12.879   2.975  13.869
30742SOL    HW294066  12.769   2.900  13.941
30743SOL     OW94067  13.663  10.265   7.923
30743SOL    HW194068  13.686  10.196   7.987
30743SOL    HW294069  13.586  10.231   7.878
30744SOL     OW94070   1.348  10.551  13.832
30744SOL    HW194071   1.443  10.546  13.834
30744SOL    HW294072   1.328  10.620  13.768
30745SOL     OW94073   7.657  10.173   0.472
30745SOL    HW194074   7.625  10.167   0.382
30745SOL    HW294075   7.625  10.258   0.503
30746SOL     OW94076   9.254   3.718  10.610
30746SOL    HW194077   9.214   3.708  10.523
30746SOL    HW294078   9.306   3.799  10.603
30747SOL     OW94079   9.175   3.284  14.396
30747SOL    HW194080   9.093   3.260  14.353
30747SOL    HW294081   9.240   3.222  14.363
30748SOL     OW94082  14.244   8.865   6.145
30748SOL    HW194083  14.204   8.900   6.066
30748SOL    HW294084  14.196   8.784   6.164
30749SOL     OW94085  11.377   9.476   7.670
30749SOL    HW194086  11.428   9.427   7.606
30749SOL    HW294087  11.352   9.412   7.736
30750SOL     OW94088  14.114  14.770   0.703
30750SOL    HW194089  14.181  14.705   0.724
30750SOL    HW294090  14.042  14.751   0.763
30751SOL     OW94091   6.208   4.475   9.713
30751SOL    HW194092   6.201   4.553   9.767
30751SOL    HW294093   6.287   4.430   9.745
30752SOL     OW94094  11.217   1.555   6.904
30752SOL    HW194095  11.224   1.465   6.934
30752SOL    HW294096  11.302   1.576   6.867
30753SOL     OW94097   7.120  13.911   2.893
30753SOL    HW194098   7.091  14.001   2.876
30753SOL    HW294099   7.039  13.859   2.888
30754SOL     OW94100  13.450  13.277  12.310
30754SOL    HW194101  13.410  13.348  12.261
30754SOL    HW294102  13.376  13.227  12.346
30755SOL     OW94103   6.354   2.794   0.834
30755SOL    HW194104   6.282   2.738   0.864
30755SOL    HW294105   6.321   2.833   0.753
30756SOL     OW94106  11.007  14.748   3.039
30756SOL    HW194107  11.098  14.776   3.041
30756SOL    HW294108  10.957  14.828   3.056
30757SOL     OW94109   0.196  11.893   0.847
30757SOL    HW194110   0.286  11.875   0.876
30757SOL    HW294111   0.161  11.807   0.823
30758SOL     OW94112   5.473  11.758   4.162
30758SOL    HW194113   5.527  11.740   4.239
30758SOL    HW294114   5.409  11.687   4.159
30759SOL     OW94115   0.799   2.344   8.548
30759SOL    HW194116   0.829   2.296   8.625
30759SOL    HW294117   0.809   2.283   8.475
30760SOL     OW94118   8.614  12.508   2.125
30760SOL    HW194119   8.677  12.551   2.183
30760SOL    HW294120   8.642  12.533   2.037
30761SOL     OW94121  14.295   1.561   3.598
30761SOL    HW194122  14.272   1.645   3.638
30761SOL    HW294123  14.330   1.584   3.512
30762SOL     OW94124   3.145   9.487   9.473
30762SOL    HW194125   3.205   9.431   9.522
30762SOL    HW294126   3.096   9.426   9.418
30763SOL     OW94127   2.671   3.943   3.015
30763SOL    HW194128   2.730   4.005   3.057
30763SOL    HW294129   2.591   3.946   3.068
30764SOL     OW94130   9.666  13.255  11.838
30764SOL    HW194131   9.698  13.316  11.771
30764SOL    HW294132   9.670  13.306  11.919
30765SOL     OW94133  10.764  10.458   6.255
30765SOL    HW194134  10.819  10.518   6.205
30765SOL    HW294135  10.757  10.498   6.341
30766SOL     OW94136   3.318   6.006  11.610
30766SOL    HW194137   3.342   6.073  11.545
30766SOL    HW294138   3.308   6.055  11.691
30767SOL     OW94139   0.487  10.039  14.712
30767SOL    HW194140   0.574  10.024  14.751
30767SOL    HW294141   0.504  10.039  14.618
30768SOL     OW94142   1.556   5.018   9.129
30768SOL    HW194143   1.587   5.047   9.215
30768SOL    HW294144   1.635   5.007   9.077
30769SOL     OW94145   7.939  10.085  13.471
30769SOL    HW194146   7.965  10.143  13.399
30769SOL    HW294147   7.978  10.125  13.548
30770SOL     OW94148   6.560   4.993  13.810
30770SOL    HW194149   6.544   4.988  13.716
30770SOL    HW294150   6.655   4.985  13.820
30771SOL     OW94151   9.898   0.138   8.711
30771SOL    HW194152   9.921   0.171   8.624
30771SOL    HW294153   9.906   0.214   8.768
30772SOL     OW94154   6.896   3.588  11.978
30772SOL    HW194155   6.876   3.512  12.033
30772SOL    HW294156   6.907   3.660  12.040
30773SOL     OW94157  10.000   0.683   2.183
30773SOL    HW194158   9.939   0.751   2.153
30773SOL    HW294159   9.951   0.601   2.175
30774SOL     OW94160   0.589   9.883  14.449
30774SOL    HW194161   0.524   9.840  14.393
30774SOL    HW294162   0.592   9.973  14.416
30775SOL     OW94163  10.751  11.672   6.468
30775SOL    HW194164  10.726  11.698   6.379
30775SOL    HW294165  10.704  11.590   6.483
30776SOL     OW94166  11.196   4.723  12.691
30776SOL    HW194167  11.210   4.654  12.626
30776SOL    HW294168  11.228   4.685  12.773
30777SOL     OW94169   3.684   3.594   5.167
30777SOL    HW194170   3.712   3.596   5.076
30777SOL    HW294171   3.746   3.650   5.213
30778SOL     OW94172  14.569   5.437  14.676
30778SOL    HW194173  14.545   5.345  14.669
30778SOL    HW294174  14.506   5.474  14.738
30779SOL     OW94175   8.657  10.641  14.782
30779SOL    HW194176   8.690  10.714  14.834
30779SOL    HW294177   8.591  10.600  14.838
30780SOL     OW94178  12.586   4.952   0.012
30780SOL    HW194179  12.585   4.917  14.800
30780SOL    HW294180  12.512   4.910   0.056
30781SOL     OW94181   1.904   5.374   9.761
30781SOL    HW194182   1.813   5.381   9.791
30781SOL    HW294183   1.956   5.394   9.839
30782SOL     OW94184   2.714  12.697   2.545
30782SOL    HW194185   2.643  12.758   2.565
30782SOL    HW294186   2.701  12.674   2.453
30783SOL     OW94187  10.389  10.350   3.797
30783SOL    HW194188  10.316  10.337   3.857
30783SOL    HW294189  10.383  10.276   3.737
30784SOL     OW94190  13.949  12.696   2.627
30784SOL    HW194191  13.885  12.758   2.594
30784SOL    HW294192  13.976  12.645   2.551
30785SOL     OW94193  14.628   8.166   2.761
30785SOL    HW194194  14.633   8.256   2.793
30785SOL    HW294195  14.595   8.116   2.836
30786SOL     OW94196   7.045   0.912  14.260
30786SOL    HW194197   6.976   0.958  14.307
30786SOL    HW294198   7.089   0.980  14.209
30787SOL     OW94199   6.050   5.620   7.537
30787SOL    HW194200   5.956   5.630   7.548
30787SOL    HW294201   6.070   5.663   7.454
30788SOL     OW94202   8.961   9.837   3.520
30788SOL    HW194203   8.933   9.841   3.611
30788SOL    HW294204   8.955   9.744   3.497
30789SOL     OW94205  13.306   8.366   3.713
30789SOL    HW194206  13.233   8.308   3.693
30789SOL    HW294207  13.290   8.395   3.803
30790SOL     OW94208   1.919   5.559   8.446
30790SOL    HW194209   1.977   5.593   8.513
30790SOL    HW294210   1.959   5.476   8.419
30791SOL     OW94211   3.014   3.091   9.619
30791SOL    HW194212   3.061   3.043   9.688
30791SOL    HW294213   2.985   3.022   9.559
30792SOL     OW94214   7.478   5.762  13.281
30792SOL    HW194215   7.535   5.823  13.327
30792SOL    HW294216   7.409   5.742  13.344
30793SOL     OW94217   7.926   5.477  11.642
30793SOL    HW194218   7.901   5.388  11.666
30793SOL    HW294219   7.845   5.517  11.610
30794SOL     OW94220   5.215  12.306  10.866
30794SOL    HW194221   5.309  12.321  10.855
30794SOL    HW294222   5.174  12.365  10.802
30795SOL     OW94223   8.907  13.540   6.667
30795SOL    HW194224   8.987  13.529   6.616
30795SOL    HW294225   8.913  13.474   6.736
30796SOL     OW94226   8.732   5.542   6.476
30796SOL    HW194227   8.751   5.626   6.433
30796SOL    HW294228   8.814   5.518   6.519
30797SOL     OW94229   4.627  13.615  13.562
30797SOL    HW194230   4.566  13.620  13.489
30797SOL    HW294231   4.684  13.540  13.542
30798SOL     OW94232   9.588  12.898   0.003
30798SOL    HW194233   9.562  12.990   0.014
30798SOL    HW294234   9.512  12.857  14.837
30799SOL     OW94235  14.831   6.067   8.533
30799SOL    HW194236  14.857   6.062   8.441
30799SOL    HW294237  14.861   5.985   8.572
30800SOL     OW94238   5.363   9.469   7.054
30800SOL    HW194239   5.283   9.521   7.061
30800SOL    HW294240   5.357   9.405   7.124
30801SOL     OW94241  13.090  10.313   5.383
30801SOL    HW194242  13.108  10.401   5.417
30801SOL    HW294243  13.176  10.279   5.359
30802SOL     OW94244   1.569  11.986   6.052
30802SOL    HW194245   1.547  11.942   5.970
30802SOL    HW294246   1.612  11.918   6.105
30803SOL     OW94247  14.472  10.598   5.990
30803SOL    HW194248  14.389  10.568   6.028
30803SOL    HW294249  14.483  10.686   6.025
30804SOL     OW94250   8.038   9.848  13.402
30804SOL    HW194251   8.035   9.795  13.481
30804SOL    HW294252   8.006   9.934  13.430
30805SOL     OW94253   1.683   3.208   1.771
30805SOL    HW194254   1.745   3.259   1.824
30805SOL    HW294255   1.689   3.247   1.683
30806SOL     OW94256   3.934   8.433   0.822
30806SOL    HW194257   3.890   8.350   0.838
30806SOL    HW294258   3.967   8.427   0.732
30807SOL     OW94259   7.426  13.464  12.480
30807SOL    HW194260   7.450  13.545  12.525
30807SOL    HW294261   7.331  13.465  12.477
30808SOL     OW94262   0.680  14.271   8.622
30808SOL    HW194263   0.641  14.266   8.534
30808SOL    HW294264   0.734  14.351   8.619
30809SOL     OW94265   7.021   6.630   8.634
30809SOL    HW194266   7.034   6.724   8.630
30809SOL    HW294267   7.045   6.606   8.723
30810SOL     OW94268   2.305   5.420  11.588
30810SOL    HW194269   2.358   5.440  11.510
30810SOL    HW294270   2.215   5.419  11.556
30811SOL     OW94271   3.086   0.309   1.696
30811SOL    HW194272   3.104   0.396   1.730
30811SOL    HW294273   3.052   0.260   1.771
30812SOL     OW94274   1.097   1.326   4.466
30812SOL    HW194275   1.046   1.407   4.464
30812SOL    HW294276   1.171   1.343   4.407
30813SOL     OW94277   0.715   1.947   7.302
30813SOL    HW194278   0.767   1.912   7.230
30813SOL    HW294279   0.697   1.870   7.357
30814SOL     OW94280  13.203   8.097   8.408
30814SOL    HW194281  13.172   8.182   8.439
30814SOL    HW294282  13.249   8.116   8.327
30815SOL     OW94283  14.723   8.492   0.723
30815SOL    HW194284  14.789   8.524   0.786
30815SOL    HW294285  14.645   8.543   0.744
30816SOL     OW94286   0.858   7.951   4.124
30816SOL    HW194287   0.953   7.941   4.113
30816SOL    HW294288   0.833   7.877   4.179
30817SOL     OW94289   1.767   3.954  11.589
30817SOL    HW194290   1.732   4.007  11.518
30817SOL    HW294291   1.817   4.015  11.643
30818SOL     OW94292  12.073   5.803  13.082
30818SOL    HW194293  12.149   5.746  13.096
30818SOL    HW294294  12.027   5.802  13.166
30819SOL     OW94295   8.734  12.909   8.057
30819SOL    HW194296   8.682  12.957   7.992
30819SOL    HW294297   8.788  12.976   8.099
30820SOL     OW94298  14.510  14.199  14.367
30820SOL    HW194299  14.576  14.131  14.369
30820SOL    HW294300  14.439  14.163  14.314
30821SOL     OW94301  13.460   4.269  11.071
30821SOL    HW194302  13.448   4.174  11.071
30821SOL    HW294303  13.375   4.304  11.045
30822SOL     OW94304   8.706   2.686   0.626
30822SOL    HW194305   8.679   2.673   0.717
30822SOL    HW294306   8.801   2.695   0.630
30823SOL     OW94307   4.231   6.458  13.236
30823SOL    HW194308   4.321   6.455  13.202
30823SOL    HW294309   4.203   6.549  13.221
30824SOL     OW94310   0.941   1.993  14.165
30824SOL    HW194311   0.967   1.945  14.086
30824SOL    HW294312   0.877   1.935  14.207
30825SOL     OW94313  10.555  10.808   0.703
30825SOL    HW194314  10.635  10.765   0.670
30825SOL    HW294315  10.587  10.880   0.756
30826SOL     OW94316   3.401  14.556  10.125
30826SOL    HW194317   3.451  14.494  10.178
30826SOL    HW294318   3.427  14.642  10.158
30827SOL     OW94319   1.216  14.746   0.719
30827SOL    HW194320   1.273  14.729   0.794
30827SOL    HW294321   1.128  14.752   0.758
30828SOL     OW94322   1.538  13.562  12.281
30828SOL    HW194323   1.631  13.545  12.268
30828SOL    HW294324   1.503  13.571  12.192
30829SOL     OW94325   5.859  13.309  13.899
30829SOL    HW194326   5.820  13.232  13.941
30829SOL    HW294327   5.784  13.355  13.861
30830SOL     OW94328   2.187   7.372  11.051
30830SOL    HW194329   2.264   7.409  11.095
30830SOL    HW294330   2.162   7.298  11.107
30831SOL     OW94331   1.168   9.334   8.239
30831SOL    HW194332   1.229   9.279   8.288
30831SOL    HW294333   1.223   9.403   8.201
30832SOL     OW94334   1.774   9.338   3.318
30832SOL    HW194335   1.820   9.364   3.238
30832SOL    HW294336   1.837   9.355   3.388
30833SOL     OW94337   0.331   1.837   8.073
30833SOL    HW194338   0.393   1.891   8.023
30833SOL    HW294339   0.386   1.783   8.130
30834SOL     OW94340  14.368  12.995   3.953
30834SOL    HW194341  14.368  12.946   3.870
30834SOL    HW294342  14.276  13.016   3.969
30835SOL     OW94343   2.496   7.115   1.357
30835SOL    HW194344   2.439   7.176   1.405
30835SOL    HW294345   2.512   7.159   1.274
30836SOL     OW94346   0.642   2.558   5.950
30836SOL    HW194347   0.568   2.503   5.972
30836SOL    HW294348   0.694   2.562   6.030
30837SOL     OW94349   3.953  12.565  14.200
30837SOL    HW194350   3.906  12.492  14.241
30837SOL    HW294351   3.895  12.640  14.209
30838SOL     OW94352  13.639  11.745   5.939
30838SOL    HW194353  13.576  11.809   5.972
30838SOL    HW294354  13.587  11.668   5.918
30839SOL     OW94355  12.846   6.203  12.371
30839SOL    HW194356  12.848   6.291  12.334
30839SOL    HW294357  12.787   6.153  12.314
30840SOL     OW94358   1.133   5.980  12.378
30840SOL    HW194359   1.155   5.927  12.301
30840SOL    HW294360   1.101   6.062  12.341
30841SOL     OW94361   3.952  11.378   5.018
30841SOL    HW194362   4.005  11.424   4.953
30841SOL    HW294363   3.951  11.437   5.094
30842SOL     OW94364   2.114   7.734   2.425
30842SOL    HW194365   2.083   7.763   2.340
30842SOL    HW294366   2.161   7.810   2.461
30843SOL     OW94367  11.274   6.981  13.354
30843SOL    HW194368  11.229   6.910  13.399
30843SOL    HW294369  11.203   7.031  13.312
30844SOL     OW94370  11.063  14.664   4.874
30844SOL    HW194371  10.978  14.707   4.875
30844SOL    HW294372  11.109  14.704   4.800
30845SOL     OW94373   7.940   6.389   5.372
30845SOL    HW194374   7.989   6.318   5.413
30845SOL    HW294375   7.976   6.468   5.411
30846SOL     OW94376  12.580  11.950  13.621
30846SOL    HW194377  12.541  11.863  13.632
30846SOL    HW294378  12.634  11.941  13.543
30847SOL     OW94379   4.657   8.932   7.632
30847SOL    HW194380   4.738   8.981   7.638
30847SOL    HW294381   4.590   8.998   7.615
30848SOL     OW94382   5.319   6.886  10.492
30848SOL    HW194383   5.278   6.971  10.473
30848SOL    HW294384   5.352   6.857  10.407
30849SOL     OW94385  10.599  14.216   4.885
30849SOL    HW194386  10.611  14.214   4.790
30849SOL    HW294387  10.666  14.276   4.916
30850SOL     OW94388   8.224   3.563   7.282
30850SOL    HW194389   8.276   3.576   7.361
30850SOL    HW294390   8.228   3.469   7.265
30851SOL     OW94391  14.842   6.613  12.367
30851SOL    HW194392  14.797   6.565  12.437
30851SOL    HW294393  14.775   6.673  12.334
30852SOL     OW94394   4.397   3.792   0.962
30852SOL    HW194395   4.486   3.824   0.977
30852SOL    HW294396   4.367   3.843   0.887
30853SOL     OW94397   2.804   2.253   7.565
30853SOL    HW194398   2.750   2.276   7.490
30853SOL    HW294399   2.747   2.270   7.641
30854SOL     OW94400  11.907   3.549  14.611
30854SOL    HW194401  11.891   3.461  14.578
30854SOL    HW294402  11.971   3.537  14.681
30855SOL     OW94403   4.642   1.369   1.158
30855SOL    HW194404   4.624   1.303   1.091
30855SOL    HW294405   4.729   1.402   1.135
30856SOL     OW94406   9.678  12.634  11.814
30856SOL    HW194407   9.592  12.673  11.797
30856SOL    HW294408   9.739  12.707  11.804
30857SOL     OW94409   4.647  12.111  12.137
30857SOL    HW194410   4.610  12.060  12.065
30857SOL    HW294411   4.683  12.189  12.095
30858SOL     OW94412   3.750   7.222   1.311
30858SOL    HW194413   3.807   7.170   1.368
30858SOL    HW294414   3.807   7.292   1.278
30859SOL     OW94415  14.646   7.763   5.582
30859SOL    HW194416  14.602   7.845   5.601
30859SOL    HW294417  14.726   7.788   5.537
30860SOL     OW94418   4.615   9.340   2.919
30860SOL    HW194419   4.644   9.420   2.964
30860SOL    HW294420   4.675   9.330   2.845
30861SOL     OW94421   1.446  13.989   4.085
30861SOL    HW194422   1.353  13.975   4.067
30861SOL    HW294423   1.477  14.043   4.013
30862SOL     OW94424   5.920   3.387  12.921
30862SOL    HW194425   5.978   3.462  12.931
30862SOL    HW294426   5.842   3.423  12.877
30863SOL     OW94427   3.818   8.481   2.102
30863SOL    HW194428   3.838   8.418   2.032
30863SOL    HW294429   3.741   8.529   2.069
30864SOL     OW94430   6.335  10.239  10.474
30864SOL    HW194431   6.327  10.290  10.393
30864SOL    HW294432   6.379  10.158  10.448
30865SOL     OW94433   7.999   0.574   3.643
30865SOL    HW194434   8.084   0.548   3.607
30865SOL    HW294435   8.017   0.589   3.736
30866SOL     OW94436  10.900   4.040   7.733
30866SOL    HW194437  10.837   4.033   7.660
30866SOL    HW294438  10.858   4.099   7.795
30867SOL     OW94439  12.804   2.430   2.748
30867SOL    HW194440  12.832   2.520   2.733
30867SOL    HW294441  12.867   2.394   2.810
30868SOL     OW94442   9.610   1.130  11.877
30868SOL    HW194443   9.700   1.113  11.850
30868SOL    HW294444   9.560   1.127  11.796
30869SOL     OW94445  11.197  13.596   8.033
30869SOL    HW194446  11.274  13.549   8.064
30869SOL    HW294447  11.131  13.583   8.102
30870SOL     OW94448   1.330  14.090   2.170
30870SOL    HW194449   1.400  14.155   2.161
30870SOL    HW294450   1.321  14.079   2.265
30871SOL     OW94451   3.458   7.401   8.846
30871SOL    HW194452   3.382   7.404   8.904
30871SOL    HW294453   3.480   7.308   8.840
30872SOL     OW94454  13.575   1.942  13.961
30872SOL    HW194455  13.650   1.889  13.988
30872SOL    HW294456  13.612   2.027  13.938
30873SOL     OW94457  12.472  10.124  13.338
30873SOL    HW194458  12.491  10.033  13.362
30873SOL    HW294459  12.380  10.122  13.310
30874SOL     OW94460  10.367   1.165   8.412
30874SOL    HW194461  10.430   1.236   8.419
30874SOL    HW294462  10.300   1.185   8.477
30875SOL     OW94463   6.149   4.410   1.073
30875SOL    HW194464   6.067   4.389   1.115
30875SOL    HW294465   6.159   4.505   1.085
30876SOL     OW94466  14.232  13.476  11.193
30876SOL    HW194467  14.325  13.499  11.195
30876SOL    HW294468  14.196  13.530  11.123
30877SOL     OW94469  10.494   6.350   4.703
30877SOL    HW194470  10.448   6.332   4.621
30877SOL    HW294471  10.565   6.410   4.678
30878SOL     OW94472   2.979   3.086   2.410
30878SOL    HW194473   3.052   3.119   2.462
30878SOL    HW294474   3.011   3.085   2.320
30879SOL     OW94475  12.336   9.542   7.043
30879SOL    HW194476  12.283   9.488   7.103
30879SOL    HW294477  12.417   9.558   7.092
30880SOL     OW94478   6.115   6.066   0.154
30880SOL    HW194479   6.087   6.029   0.238
30880SOL    HW294480   6.210   6.053   0.153
30881SOL     OW94481   2.292  11.807  11.152
30881SOL    HW194482   2.307  11.885  11.206
30881SOL    HW294483   2.201  11.815  11.122
30882SOL     OW94484  11.311  11.640  13.394
30882SOL    HW194485  11.355  11.598  13.320
30882SOL    HW294486  11.380  11.653  13.459
30883SOL     OW94487   0.633  10.468  10.691
30883SOL    HW194488   0.706  10.440  10.745
30883SOL    HW294489   0.670  10.532  10.630
30884SOL     OW94490   0.211   7.714   7.654
30884SOL    HW194491   0.130   7.762   7.672
30884SOL    HW294492   0.268   7.735   7.727
30885SOL     OW94493  10.157   4.821  11.107
30885SOL    HW194494  10.224   4.812  11.040
30885SOL    HW294495  10.196   4.782  11.185
30886SOL     OW94496   9.776   4.727  13.858
30886SOL    HW194497   9.745   4.752  13.770
30886SOL    HW294498   9.720   4.653  13.883
30887SOL     OW94499  11.771  10.321   6.696
30887SOL    HW194500  11.798  10.396   6.643
30887SOL    HW294501  11.808  10.338   6.783
30888SOL     OW94502   5.686   6.118   2.481
30888SOL    HW194503   5.774   6.130   2.446
30888SOL    HW294504   5.694   6.141   2.574
30889SOL     OW94505   1.758  13.096   4.378
30889SOL    HW194506   1.798  13.097   4.465
30889SOL    HW294507   1.683  13.038   4.387
30890SOL     OW94508   8.284  10.479  13.499
30890SOL    HW194509   8.372  10.503  13.530
30890SOL    HW294510   8.231  10.557  13.513
30891SOL     OW94511  10.073  13.030   1.414
30891SOL    HW194512  10.165  13.051   1.398
30891SOL    HW294513  10.069  13.006   1.507
30892SOL     OW94514   3.002   1.096  13.835
30892SOL    HW194515   3.064   1.105  13.762
30892SOL    HW294516   3.044   1.139  13.909
30893SOL     OW94517  12.205   6.000   4.725
30893SOL    HW194518  12.117   5.963   4.735
30893SOL    HW294519  12.249   5.977   4.807
30894SOL     OW94520   2.471   3.709   3.903
30894SOL    HW194521   2.549   3.741   3.949
30894SOL    HW294522   2.414   3.678   3.973
30895SOL     OW94523   4.013   4.421   6.433
30895SOL    HW194524   4.002   4.342   6.486
30895SOL    HW294525   4.042   4.488   6.495
30896SOL     OW94526  11.980   3.554   4.816
30896SOL    HW194527  12.003   3.576   4.906
30896SOL    HW294528  12.019   3.623   4.763
30897SOL     OW94529  13.281  14.543   9.447
30897SOL    HW194530  13.356  14.508   9.495
30897SOL    HW294531  13.213  14.555   9.513
30898SOL     OW94532   8.755   8.932  11.350
30898SOL    HW194533   8.815   8.984  11.403
30898SOL    HW294534   8.701   8.885  11.413
30899SOL     OW94535   5.744   9.408   6.814
30899SOL    HW194536   5.720   9.446   6.899
30899SOL    HW294537   5.776   9.482   6.763
30900SOL     OW94538  10.525   9.497   4.905
30900SOL    HW194539  10.601   9.441   4.893
30900SOL    HW294540  10.525   9.554   4.827
30901SOL     OW94541   4.137  11.495  14.069
30901SOL    HW194542   4.083  11.565  14.031
30901SOL    HW294543   4.196  11.470  13.998
30902SOL     OW94544   2.281   6.142   4.244
30902SOL    HW194545   2.351   6.174   4.187
30902SOL    HW294546   2.325   6.121   4.326
30903SOL     OW94547  14.742   0.014   5.003
30903SOL    HW194548  14.736  14.829   4.931
30903SOL    HW294549  14.653   0.019   5.038
30904SOL     OW94550  11.489  13.849  12.065
30904SOL    HW194551  11.445  13.857  12.150
30904SOL    HW294552  11.468  13.931  12.020
30905SOL     OW94553  13.329   4.075   8.631
30905SOL    HW194554  13.258   4.120   8.585
30905SOL    HW294555  13.371   4.022   8.563
30906SOL     OW94556   9.352   0.169   9.639
30906SOL    HW194557   9.409   0.189   9.565
30906SOL    HW294558   9.297   0.247   9.648
30907SOL     OW94559   3.625   8.649   5.116
30907SOL    HW194560   3.641   8.604   5.200
30907SOL    HW294561   3.535   8.681   5.122
30908SOL     OW94562  11.939   1.588  10.421
30908SOL    HW194563  11.854   1.598  10.462
30908SOL    HW294564  11.999   1.637  10.477
30909SOL     OW94565  10.333   6.612  13.439
30909SOL    HW194566  10.347   6.650  13.352
30909SOL    HW294567  10.421   6.601  13.474
30910SOL     OW94568   9.877  14.000   3.504
30910SOL    HW194569   9.862  14.071   3.442
30910SOL    HW294570   9.887  14.044   3.588
30911SOL     OW94571   1.613   3.032   6.246
30911SOL    HW194572   1.610   3.041   6.341
30911SOL    HW294573   1.522   3.020   6.220
30912SOL     OW94574   7.697   1.911   9.532
30912SOL    HW194575   7.696   1.871   9.619
30912SOL    HW294576   7.652   1.847   9.477
30913SOL     OW94577  13.065  10.586   6.915
30913SOL    HW194578  12.983  10.593   6.865
30913SOL    HW294579  13.046  10.521   6.982
30914SOL     OW94580  11.529  10.067   7.675
30914SOL    HW194581  11.590  10.141   7.682
30914SOL    HW294582  11.464  10.095   7.611
30915SOL     OW94583   0.243   9.370   9.652
30915SOL    HW194584   0.165   9.400   9.699
30915SOL    HW294585   0.242   9.275   9.662
30916SOL     OW94586   9.867   6.632  13.794
30916SOL    HW194587   9.959   6.661  13.791
30916SOL    HW294588   9.834   6.652  13.706
30917SOL     OW94589   0.368  10.546  12.162
30917SOL    HW194590   0.412  10.570  12.080
30917SOL    HW294591   0.314  10.471  12.138
30918SOL     OW94592   8.080   2.218   5.148
30918SOL    HW194593   8.168   2.190   5.125
30918SOL    HW294594   8.025   2.187   5.077
30919SOL     OW94595   1.014   0.985  11.116
30919SOL    HW194596   1.101   1.017  11.140
30919SOL    HW294597   0.957   1.015  11.187
30920SOL     OW94598  10.233   4.158   6.899
30920SOL    HW194599  10.321   4.130   6.876
30920SOL    HW294600  10.224   4.138   6.992
30921SOL     OW94601  14.633   2.784   7.767
30921SOL    HW194602  14.667   2.753   7.683
30921SOL    HW294603  14.569   2.852   7.743
30922SOL     OW94604   8.379   2.173   4.652
30922SOL    HW194605   8.306   2.234   4.643
30922SOL    HW294606   8.398   2.173   4.746
30923SOL     OW94607   4.101   0.357   4.468
30923SOL    HW194608   4.083   0.412   4.392
30923SOL    HW294609   4.037   0.286   4.463
30924SOL     OW94610   9.580   8.773  10.434
30924SOL    HW194611   9.599   8.806  10.521
30924SOL    HW294612   9.619   8.837  10.375
30925SOL     OW94613  12.855  11.933   8.347
30925SOL    HW194614  12.898  12.016   8.325
30925SOL    HW294615  12.926  11.878   8.382
30926SOL     OW94616  12.861   1.995   9.332
30926SOL    HW194617  12.805   1.954   9.398
30926SOL    HW294618  12.873   2.085   9.363
30927SOL     OW94619   7.724   9.083   8.739
30927SOL    HW194620   7.772   9.155   8.697
30927SOL    HW294621   7.758   9.080   8.828
30928SOL     OW94622  10.702  11.170   0.122
30928SOL    HW194623  10.770  11.162   0.055
30928SOL    HW294624  10.651  11.246   0.094
30929SOL     OW94625   6.559   4.432  14.712
30929SOL    HW194626   6.505   4.354  14.702
30929SOL    HW294627   6.553   4.476  14.627
30930SOL     OW94628   4.377  13.001   4.963
30930SOL    HW194629   4.462  12.958   4.973
30930SOL    HW294630   4.397  13.083   4.917
30931SOL     OW94631  13.433  14.149   2.900
30931SOL    HW194632  13.513  14.099   2.915
30931SOL    HW294633  13.405  14.123   2.812
30932SOL     OW94634   2.784  10.621  10.734
30932SOL    HW194635   2.705  10.651  10.690
30932SOL    HW294636   2.847  10.605  10.664
30933SOL     OW94637   7.874   3.347   9.762
30933SOL    HW194638   7.838   3.411   9.701
30933SOL    HW294639   7.905   3.399   9.836
30934SOL     OW94640   2.219  10.404  11.789
30934SOL    HW194641   2.228  10.499  11.781
30934SOL    HW294642   2.276  10.380  11.862
30935SOL     OW94643   0.397   8.259   4.232
30935SOL    HW194644   0.482   8.216   4.229
30935SOL    HW294645   0.357   8.228   4.313
30936SOL     OW94646  13.086  11.432   2.764
30936SOL    HW194647  13.178  11.437   2.792
30936SOL    HW294648  13.069  11.339   2.755
30937SOL     OW94649   5.682   4.392   7.257
30937SOL    HW194650   5.704   4.310   7.302
30937SOL    HW294651   5.683   4.457   7.327
30938SOL     OW94652  13.767  12.557   8.917
30938SOL    HW194653  13.811  12.494   8.973
30938SOL    HW294654  13.756  12.511   8.833
30939SOL     OW94655  10.122  12.237   4.072
30939SOL    HW194656  10.198  12.236   4.014
30939SOL    HW294657  10.147  12.296   4.144
30940SOL     OW94658   2.978   7.168  11.214
30940SOL    HW194659   3.004   7.258  11.196
30940SOL    HW294660   3.046   7.115  11.174
30941SOL     OW94661  13.634   7.906   2.282
30941SOL    HW194662  13.587   7.824   2.271
30941SOL    HW294663  13.723   7.888   2.251
30942SOL     OW94664   3.397   9.546   7.473
30942SOL    HW194665   3.438   9.578   7.393
30942SOL    HW294666   3.317   9.597   7.482
30943SOL     OW94667   8.443  14.330   7.750
30943SOL    HW194668   8.421  14.354   7.660
30943SOL    HW294669   8.369  14.277   7.779
30944SOL     OW94670   9.068   5.587  10.751
30944SOL    HW194671   9.004   5.580  10.680
30944SOL    HW294672   9.071   5.680  10.772
30945SOL     OW94673  11.681  11.329   2.611
30945SOL    HW194674  11.754  11.332   2.549
30945SOL    HW294675  11.602  11.334   2.556
30946SOL     OW94676  12.180   0.267   4.791
30946SOL    HW194677  12.162   0.360   4.776
30946SOL    HW294678  12.274   0.258   4.777
30947SOL     OW94679   5.666  11.857   5.594
30947SOL    HW194680   5.717  11.814   5.662
30947SOL    HW294681   5.576  11.831   5.611
30948SOL     OW94682   2.487  12.459   5.606
30948SOL    HW194683   2.561  12.518   5.622
30948SOL    HW294684   2.520  12.373   5.633
30949SOL     OW94685   1.419   4.721   0.296
30949SOL    HW194686   1.477   4.770   0.238
30949SOL    HW294687   1.469   4.642   0.318
30950SOL     OW94688   4.197  10.003  10.754
30950SOL    HW194689   4.238   9.922  10.725
30950SOL    HW294690   4.129   9.975  10.816
30951SOL     OW94691   1.469   0.982  11.782
30951SOL    HW194692   1.412   0.915  11.821
30951SOL    HW294693   1.501   1.032  11.857
30952SOL     OW94694   3.435   0.296  10.943
30952SOL    HW194695   3.340   0.301  10.957
30952SOL    HW294696   3.450   0.352  10.867
30953SOL     OW94697   1.224   9.000   3.919
30953SOL    HW194698   1.225   8.923   3.976
30953SOL    HW294699   1.171   8.974   3.844
30954SOL     OW94700  11.145   6.895  13.037
30954SOL    HW194701  11.145   6.942  12.953
30954SOL    HW294702  11.237   6.890  13.062
30955SOL     OW94703   0.841  10.223  10.570
30955SOL    HW194704   0.849  10.270  10.487
30955SOL    HW294705   0.926  10.182  10.583
30956SOL     OW94706   3.994   0.050  10.109
30956SOL    HW194707   3.980  14.832  10.122
30956SOL    HW294708   3.979   0.088  10.196
30957SOL     OW94709   8.730   1.880  13.181
30957SOL    HW194710   8.783   1.803  13.162
30957SOL    HW294711   8.786   1.954  13.157
30958SOL     OW94712  11.307   2.491   4.077
30958SOL    HW194713  11.284   2.405   4.112
30958SOL    HW294714  11.270   2.491   3.989
30959SOL     OW94715   4.789   4.628  14.779
30959SOL    HW194716   4.730   4.625  14.704
30959SOL    HW294717   4.784   4.719  14.809
30960SOL     OW94718   5.305   1.696   8.008
30960SOL    HW194719   5.384   1.723   8.055
30960SOL    HW294720   5.326   1.711   7.915
30961SOL     OW94721   4.874   3.947  10.194
30961SOL    HW194722   4.860   3.880  10.126
30961SOL    HW294723   4.950   3.915  10.243
30962SOL     OW94724   4.729   1.975   2.695
30962SOL    HW194725   4.799   2.023   2.651
30962SOL    HW294726   4.653   1.986   2.636
30963SOL     OW94727   5.902   7.032   5.017
30963SOL    HW194728   5.836   7.101   5.020
30963SOL    HW294729   5.921   7.020   4.924
30964SOL     OW94730   7.022  12.706   8.732
30964SOL    HW194731   6.941  12.689   8.780
30964SOL    HW294732   7.039  12.799   8.745
30965SOL     OW94733  10.021  13.778  13.154
30965SOL    HW194734   9.963  13.841  13.195
30965SOL    HW294735  10.084  13.832  13.105
30966SOL     OW94736   3.188  12.933   2.117
30966SOL    HW194737   3.093  12.935   2.129
30966SOL    HW294738   3.203  12.973   2.032
30967SOL     OW94739   3.668   1.248   8.590
30967SOL    HW194740   3.595   1.200   8.553
30967SOL    HW294741   3.712   1.287   8.515
30968SOL     OW94742  13.081   1.656   9.569
30968SOL    HW194743  13.117   1.677   9.483
30968SOL    HW294744  13.024   1.730   9.591
30969SOL     OW94745  12.691  14.597   6.163
30969SOL    HW194746  12.697  14.502   6.154
30969SOL    HW294747  12.711  14.614   6.255
30970SOL     OW94748   3.888  12.441   7.979
30970SOL    HW194749   3.841  12.439   7.895
30970SOL    HW294750   3.980  12.427   7.955
30971SOL     OW94751   7.517   0.521   4.724
30971SOL    HW194752   7.544   0.429   4.719
30971SOL    HW294753   7.500   0.546   4.633
30972SOL     OW94754   5.985   7.448  11.117
30972SOL    HW194755   5.960   7.540  11.125
30972SOL    HW294756   5.987   7.415  11.207
30973SOL     OW94757   3.683   1.455   6.158
30973SOL    HW194758   3.625   1.522   6.195
30973SOL    HW294759   3.768   1.472   6.198
30974SOL     OW94760  12.627  14.664   9.013
30974SOL    HW194761  12.681  14.587   8.996
30974SOL    HW294762  12.625  14.670   9.109
30975SOL     OW94763  14.333   9.494  14.816
30975SOL    HW194764  14.385   9.472   0.017
30975SOL    HW294765  14.394   9.487  14.743
30976SOL     OW94766  14.285   2.896   9.541
30976SOL    HW194767  14.293   2.991   9.535
30976SOL    HW294768  14.335   2.873   9.619
30977SOL     OW94769   2.786  14.039   8.806
30977SOL    HW194770   2.764  13.950   8.777
30977SOL    HW294771   2.713  14.093   8.776
30978SOL     OW94772   7.571   4.680   3.257
30978SOL    HW194773   7.505   4.626   3.213
30978SOL    HW294774   7.564   4.655   3.350
30979SOL     OW94775   4.947   2.956   1.700
30979SOL    HW194776   4.955   2.930   1.791
30979SOL    HW294777   4.953   3.052   1.701
30980SOL     OW94778  13.715   9.414   0.722
30980SOL    HW194779  13.651   9.437   0.655
30980SOL    HW294780  13.795   9.396   0.673
30981SOL     OW94781  13.054   3.957   7.730
30981SOL    HW194782  13.103   3.890   7.682
30981SOL    HW294783  13.015   3.910   7.803
30982SOL     OW94784  11.406   7.994   2.578
30982SOL    HW194785  11.481   7.953   2.535
30982SOL    HW294786  11.331   7.941   2.551
30983SOL     OW94787   0.091  11.532   9.441
30983SOL    HW194788   0.136  11.597   9.386
30983SOL    HW294789   0.046  11.585   9.507
30984SOL     OW94790   2.401   8.341   9.961
30984SOL    HW194791   2.479   8.397   9.960
30984SOL    HW294792   2.434   8.253   9.946
30985SOL     OW94793  14.132  14.319  12.426
30985SOL    HW194794  14.146  14.267  12.347
30985SOL    HW294795  14.158  14.408  12.402
30986SOL     OW94796   0.451   7.034   7.540
30986SOL    HW194797   0.440   7.117   7.586
30986SOL    HW294798   0.370   7.023   7.490
30987SOL     OW94799   8.647  14.406   6.222
30987SOL    HW194800   8.614  14.381   6.308
30987SOL    HW294801   8.714  14.472   6.239
30988SOL     OW94802   7.002  11.141   1.144
30988SOL    HW194803   7.009  11.121   1.050
30988SOL    HW294804   7.027  11.233   1.150
30989SOL     OW94805   6.514   2.293   1.689
30989SOL    HW194806   6.453   2.285   1.616
30989SOL    HW294807   6.459   2.296   1.767
30990SOL     OW94808  14.304   2.849  14.406
30990SOL    HW194809  14.211   2.852  14.385
30990SOL    HW294810  14.348   2.866  14.322
30991SOL     OW94811  11.321   7.081  10.190
30991SOL    HW194812  11.378   7.031  10.249
30991SOL    HW294813  11.232   7.053  10.212
30992SOL     OW94814   7.056   4.634   7.116
30992SOL    HW194815   7.021   4.673   7.196
30992SOL    HW294816   6.982   4.586   7.078
30993SOL     OW94817   4.343  12.491   8.638
30993SOL    HW194818   4.383  12.455   8.558
30993SOL    HW294819   4.257  12.449   8.642
30994SOL     OW94820   2.260   3.158  11.921
30994SOL    HW194821   2.218   3.208  11.991
30994SOL    HW294822   2.337   3.211  11.898
30995SOL     OW94823  14.373  12.370   3.137
30995SOL    HW194824  14.339  12.418   3.062
30995SOL    HW294825  14.318  12.292   3.142
30996SOL     OW94826   1.714  13.752   4.563
30996SOL    HW194827   1.729  13.691   4.636
30996SOL    HW294828   1.730  13.838   4.600
30997SOL     OW94829   8.125   3.305   9.204
30997SOL    HW194830   8.044   3.321   9.252
30997SOL    HW294831   8.097   3.286   9.115
30998SOL     OW94832   1.141   5.248   4.212
30998SOL    HW194833   1.232   5.235   4.237
30998SOL    HW294834   1.143   5.325   4.154
30999SOL     OW94835   6.235   9.126   6.046
30999SOL    HW194836   6.241   9.102   6.138
30999SOL    HW294837   6.194   9.051   6.003
31000SOL     OW94838  11.100  13.888   6.311
31000SOL    HW194839  11.010  13.855   6.311
31000SOL    HW294840  11.094  13.976   6.274
31001SOL     OW94841   2.399   0.211   0.932
31001SOL    HW194842   2.411   0.279   0.866
31001SOL    HW294843   2.378   0.132   0.882
31002SOL     OW94844   3.757  12.368   3.554
31002SOL    HW194845   3.749  12.276   3.582
31002SOL    HW294846   3.736  12.419   3.632
31003SOL     OW94847  14.523  14.523   8.927
31003SOL    HW194848  14.523  14.482   9.014
31003SOL    HW294849  14.585  14.595   8.935
31004SOL     OW94850  12.191   2.684   5.631
31004SOL    HW194851  12.258   2.674   5.698
31004SOL    HW294852  12.212   2.768   5.589
31005SOL     OW94853  10.609   7.496   7.228
31005SOL    HW194854  10.585   7.409   7.196
31005SOL    HW294855  10.704   7.499   7.222
31006SOL     OW94856   1.707   2.608  12.931
31006SOL    HW194857   1.706   2.537  12.995
31006SOL    HW294858   1.755   2.679  12.974
31007SOL     OW94859  12.954   5.381   6.596
31007SOL    HW194860  13.016   5.324   6.642
31007SOL    HW294861  12.870   5.335   6.602
31008SOL     OW94862   2.998   6.637   7.852
31008SOL    HW194863   2.926   6.575   7.861
31008SOL    HW294864   2.987   6.675   7.765
31009SOL     OW94865  14.284   7.928   9.658
31009SOL    HW194866  14.195   7.965   9.660
31009SOL    HW294867  14.330   7.981   9.593
31010SOL     OW94868   6.523  14.120  11.982
31010SOL    HW194869   6.507  14.209  11.950
31010SOL    HW294870   6.448  14.069  11.948
31011SOL     OW94871   8.601   2.490  12.053
31011SOL    HW194872   8.619   2.553  11.984
31011SOL    HW294873   8.644   2.527  12.131
31012SOL     OW94874   2.233   0.210   4.203
31012SOL    HW194875   2.186   0.235   4.123
31012SOL    HW294876   2.175   0.145   4.244
31013SOL     OW94877  13.850   2.107   8.320
31013SOL    HW194878  13.824   2.082   8.231
31013SOL    HW294879  13.927   2.053   8.338
31014SOL     OW94880   0.663   8.312  12.866
31014SOL    HW194881   0.676   8.228  12.909
31014SOL    HW294882   0.569   8.316  12.851
31015SOL     OW94883   4.634  13.497   5.175
31015SOL    HW194884   4.597  13.411   5.196
31015SOL    HW294885   4.727  13.479   5.159
31016SOL     OW94886   4.051   3.950   9.797
31016SOL    HW194887   3.968   3.931   9.753
31016SOL    HW294888   4.032   4.026   9.851
31017SOL     OW94889   9.281   7.958   9.800
31017SOL    HW194890   9.369   7.990   9.814
31017SOL    HW294891   9.241   8.021   9.740
31018SOL     OW94892  11.013   9.383  13.448
31018SOL    HW194893  11.027   9.400  13.355
31018SOL    HW294894  11.099   9.397  13.488
31019SOL     OW94895   7.859  10.124   6.292
31019SOL    HW194896   7.859  10.079   6.208
31019SOL    HW294897   7.772  10.165   6.298
31020SOL     OW94898   0.213   6.991  12.849
31020SOL    HW194899   0.212   7.085  12.833
31020SOL    HW294900   0.273   6.980  12.922
31021SOL     OW94901   4.582   2.708   3.311
31021SOL    HW194902   4.663   2.678   3.351
31021SOL    HW294903   4.610   2.769   3.243
31022SOL     OW94904  10.203   9.490  12.928
31022SOL    HW194905  10.238   9.550  12.994
31022SOL    HW294906  10.281   9.453  12.886
31023SOL     OW94907   7.281  13.800   0.584
31023SOL    HW194908   7.193  13.804   0.621
31023SOL    HW294909   7.332  13.749   0.647
31024SOL     OW94910   2.892   5.992   8.011
31024SOL    HW194911   2.858   5.902   8.005
31024SOL    HW294912   2.935   6.007   7.927
31025SOL     OW94913  12.561  12.517  11.056
31025SOL    HW194914  12.476  12.500  11.015
31025SOL    HW294915  12.611  12.437  11.041
31026SOL     OW94916   1.929   6.509   6.233
31026SOL    HW194917   1.840   6.513   6.268
31026SOL    HW294918   1.985   6.529   6.309
31027SOL     OW94919  10.134   6.372   5.503
31027SOL    HW194920  10.083   6.450   5.484
31027SOL    HW294921  10.225   6.400   5.494
31028SOL     OW94922  14.106  10.222  14.670
31028SOL    HW194923  14.011  10.230  14.679
31028SOL    HW294924  14.119  10.131  14.643
31029SOL     OW94925   4.974   3.602  13.130
31029SOL    HW194926   4.923   3.616  13.210
31029SOL    HW294927   5.062   3.581  13.161
31030SOL     OW94928   0.427   1.718   5.030
31030SOL    HW194929   0.487   1.673   5.089
31030SOL    HW294930   0.418   1.806   5.067
31031SOL     OW94931   6.623   0.809  13.839
31031SOL    HW194932   6.690   0.767  13.786
31031SOL    HW294933   6.591   0.739  13.896
31032SOL     OW94934   5.130   8.257  11.960
31032SOL    HW194935   5.066   8.188  11.974
31032SOL    HW294936   5.213   8.211  11.948
31033SOL     OW94937  13.557  14.525  12.876
31033SOL    HW194938  13.574  14.564  12.962
31033SOL    HW294939  13.591  14.436  12.883
31034SOL     OW94940   0.554   1.900   2.455
31034SOL    HW194941   0.528   1.866   2.541
31034SOL    HW294942   0.639   1.940   2.469
31035SOL     OW94943  13.874  10.237   0.120
31035SOL    HW194944  13.869  10.227   0.215
31035SOL    HW294945  13.825  10.163   0.085
31036SOL     OW94946   5.091   2.317  10.891
31036SOL    HW194947   5.175   2.343  10.853
31036SOL    HW294948   5.114   2.271  10.971
31037SOL     OW94949  12.746  10.264   6.411
31037SOL    HW194950  12.710  10.246   6.324
31037SOL    HW294951  12.705  10.199   6.468
31038SOL     OW94952  13.111   4.178   7.014
31038SOL    HW194953  13.156   4.179   6.929
31038SOL    HW294954  13.139   4.097   7.055
31039SOL     OW94955   8.051   9.055  12.523
31039SOL    HW194956   8.023   9.093  12.439
31039SOL    HW294957   8.014   8.967  12.523
31040SOL     OW94958  13.404   5.073   1.323
31040SOL    HW194959  13.478   5.130   1.342
31040SOL    HW294960  13.415   5.048   1.231
31041SOL     OW94961   1.868  10.386  11.665
31041SOL    HW194962   1.798  10.367  11.603
31041SOL    HW294963   1.823  10.397  11.749
31042SOL     OW94964   9.061  10.190   2.798
31042SOL    HW194965   9.106  10.140   2.730
31042SOL    HW294966   9.037  10.125   2.864
31043SOL     OW94967   6.682   3.795  12.942
31043SOL    HW194968   6.730   3.872  12.972
31043SOL    HW294969   6.593   3.827  12.925
31044SOL     OW94970  12.153  14.617   9.896
31044SOL    HW194971  12.204  14.692   9.865
31044SOL    HW294972  12.191  14.596   9.982
31045SOL     OW94973  12.459   4.899  11.209
31045SOL    HW194974  12.396   4.853  11.153
31045SOL    HW294975  12.538   4.906  11.156
31046SOL     OW94976   3.405   3.646   5.274
31046SOL    HW194977   3.380   3.739   5.278
31046SOL    HW294978   3.500   3.648   5.260
31047SOL     OW94979   0.231   7.401   5.673
31047SOL    HW194980   0.277   7.427   5.752
31047SOL    HW294981   0.254   7.309   5.660
31048SOL     OW94982   2.325   7.358  14.713
31048SOL    HW194983   2.238   7.382  14.746
31048SOL    HW294984   2.332   7.265  14.731
31049SOL     OW94985   3.250   3.550   1.379
31049SOL    HW194986   3.238   3.630   1.429
31049SOL    HW294987   3.202   3.483   1.427
31050SOL     OW94988   4.113   7.014   1.797
31050SOL    HW194989   4.026   7.049   1.819
31050SOL    HW294990   4.174   7.076   1.837
31051SOL     OW94991   3.121  11.129  13.510
31051SOL    HW194992   3.149  11.077  13.586
31051SOL    HW294993   3.177  11.098  13.439
31052SOL     OW94994  11.329   7.175   6.996
31052SOL    HW194995  11.403   7.142   6.945
31052SOL    HW294996  11.345   7.143   7.085
31053SOL     OW94997  14.599   0.802   4.000
31053SOL    HW194998  14.524   0.804   4.060
31053SOL    HW294999  14.560   0.792   3.913
31054SOL     OW95000   4.837   2.368  11.032
31054SOL    HW195001   4.898   2.389  10.961
31054SOL    HW295002   4.860   2.428  11.103
31055SOL     OW95003   5.718  12.874   9.052
31055SOL    HW195004   5.670  12.872   9.135
31055SOL    HW295005   5.765  12.957   9.054
31056SOL     OW95006   8.866   4.416   2.226
31056SOL    HW195007   8.941   4.394   2.282
31056SOL    HW295008   8.790   4.386   2.275
31057SOL     OW95009   3.263   8.689   1.825
31057SOL    HW195010   3.293   8.635   1.752
31057SOL    HW295011   3.335   8.686   1.888
31058SOL     OW95012  11.978   3.403   1.234
31058SOL    HW195013  12.061   3.361   1.256
31058SOL    HW295014  11.985   3.491   1.268
31059SOL     OW95015   8.248   4.043   9.659
31059SOL    HW195016   8.232   4.071   9.749
31059SOL    HW295017   8.218   3.952   9.657
31060SOL     OW95018   7.583   9.521   0.930
31060SOL    HW195019   7.604   9.612   0.953
31060SOL    HW295020   7.660   9.471   0.956
31061SOL     OW95021   4.246   1.106   5.117
31061SOL    HW195022   4.173   1.047   5.100
31061SOL    HW295023   4.277   1.080   5.204
31062SOL     OW95024   7.475   9.375  10.146
31062SOL    HW195025   7.497   9.440  10.212
31062SOL    HW295026   7.386   9.348  10.168
31063SOL     OW95027  11.624   3.622  12.263
31063SOL    HW195028  11.688   3.558  12.233
31063SOL    HW295029  11.617   3.685  12.190
31064SOL     OW95030   5.793   1.163  14.366
31064SOL    HW195031   5.786   1.091  14.303
31064SOL    HW295032   5.738   1.232  14.328
31065SOL     OW95033   8.445   8.999   2.278
31065SOL    HW195034   8.527   8.979   2.233
31065SOL    HW295035   8.468   9.001   2.370
31066SOL     OW95036   9.300   2.277   0.574
31066SOL    HW195037   9.247   2.316   0.644
31066SOL    HW295038   9.241   2.214   0.533
31067SOL     OW95039  13.072   3.047  12.740
31067SOL    HW195040  12.991   3.087  12.709
31067SOL    HW295041  13.142   3.099  12.700
31068SOL     OW95042   0.485   0.243  12.414
31068SOL    HW195043   0.468   0.152  12.437
31068SOL    HW295044   0.425   0.294  12.469
31069SOL     OW95045  14.223   6.512   1.565
31069SOL    HW195046  14.221   6.491   1.471
31069SOL    HW295047  14.150   6.463   1.602
31070SOL     OW95048  14.612  14.028   3.502
31070SOL    HW195049  14.562  14.082   3.440
31070SOL    HW295050  14.683  14.085   3.532
31071SOL     OW95051   6.753   3.423   8.966
31071SOL    HW195052   6.666   3.410   9.005
31071SOL    HW295053   6.772   3.516   8.981
31072SOL     OW95054   9.711   4.851   7.911
31072SOL    HW195055   9.634   4.846   7.969
31072SOL    HW295056   9.685   4.802   7.833
31073SOL     OW95057   4.059   8.760   4.960
31073SOL    HW195058   4.090   8.713   4.883
31073SOL    HW295059   4.017   8.838   4.925
31074SOL     OW95060   7.474  11.268   8.896
31074SOL    HW195061   7.383  11.295   8.910
31074SOL    HW295062   7.519  11.294   8.976
31075SOL     OW95063   7.253  13.648  12.754
31075SOL    HW195064   7.196  13.664  12.679
31075SOL    HW295065   7.205  13.585  12.808
31076SOL     OW95066   5.061   3.416   3.989
31076SOL    HW195067   5.025   3.481   4.049
31076SOL    HW295068   5.005   3.421   3.911
31077SOL     OW95069   0.281  14.748   7.353
31077SOL    HW195070   0.366  14.703   7.356
31077SOL    HW295071   0.259  14.751   7.260
31078SOL     OW95072   6.003   3.167   4.022
31078SOL    HW195073   5.987   3.076   4.046
31078SOL    HW295074   5.918   3.199   3.991
31079SOL     OW95075  14.692  11.607   4.700
31079SOL    HW195076  14.767  11.666   4.708
31079SOL    HW295077  14.673  11.605   4.607
31080SOL     OW95078  10.532   5.126  12.096
31080SOL    HW195079  10.624   5.147  12.110
31080SOL    HW295080  10.500   5.194  12.037
31081SOL     OW95081   7.868   4.819   7.902
31081SOL    HW195082   7.914   4.886   7.851
31081SOL    HW295083   7.784   4.808   7.858
31082SOL     OW95084   8.629   5.264  10.302
31082SOL    HW195085   8.564   5.283  10.369
31082SOL    HW295086   8.707   5.313  10.329
31083SOL     OW95087   9.275   3.363  10.047
31083SOL    HW195088   9.334   3.381   9.974
31083SOL    HW295089   9.311   3.414  10.120
31084SOL     OW95090   1.365   8.883   3.374
31084SOL    HW195091   1.355   8.788   3.372
31084SOL    HW295092   1.360   8.910   3.282
31085SOL     OW95093   0.053   8.649   8.858
31085SOL    HW195094   0.042   8.555   8.873
31085SOL    HW295095   0.146   8.665   8.869
31086SOL     OW95096  12.957  10.531   0.259
31086SOL    HW195097  12.954  10.477   0.338
31086SOL    HW295098  13.037  10.583   0.270
31087SOL     OW95099   5.941  13.439  14.279
31087SOL    HW195100   5.924  13.463  14.188
31087SOL    HW295101   5.854  13.419  14.315
31088SOL     OW95102   8.918   5.528  14.494
31088SOL    HW195103   8.925   5.601  14.432
31088SOL    HW295104   8.844   5.551  14.550
31089SOL     OW95105  10.217   2.771   5.372
31089SOL    HW195106  10.230   2.863   5.394
31089SOL    HW295107  10.303   2.730   5.387
31090SOL     OW95108   0.558   9.777  10.323
31090SOL    HW195109   0.624   9.764  10.391
31090SOL    HW295110   0.561   9.871  10.305
31091SOL     OW95111   4.149   0.022   3.608
31091SOL    HW195112   4.226   0.078   3.600
31091SOL    HW295113   4.168  14.822   3.554
31092SOL     OW95114  13.111   6.776   2.321
31092SOL    HW195115  13.058   6.785   2.401
31092SOL    HW295116  13.060   6.717   2.265
31093SOL     OW95117   7.185  13.520   3.481
31093SOL    HW195118   7.134  13.473   3.547
31093SOL    HW295119   7.135  13.509   3.400
31094SOL     OW95120   5.201  10.027   3.612
31094SOL    HW195121   5.263   9.979   3.558
31094SOL    HW295122   5.199   9.979   3.695
31095SOL     OW95123  13.550   2.131   7.443
31095SOL    HW195124  13.519   2.050   7.402
31095SOL    HW295125  13.645   2.121   7.447
31096SOL     OW95126  13.991  14.818   7.268
31096SOL    HW195127  13.991  14.822   7.364
31096SOL    HW295128  14.025   0.026   7.241
31097SOL     OW95129   5.149   4.547   8.494
31097SOL    HW195130   5.147   4.538   8.589
31097SOL    HW295131   5.092   4.477   8.461
31098SOL     OW95132  10.900   8.645   3.693
31098SOL    HW195133  10.995   8.659   3.695
31098SOL    HW295134  10.863   8.728   3.720
31099SOL     OW95135   7.764   7.058  10.788
31099SOL    HW195136   7.773   6.962  10.791
31099SOL    HW295137   7.737   7.076  10.698
31100SOL     OW95138   1.050   1.635   9.200
31100SOL    HW195139   1.033   1.696   9.128
31100SOL    HW295140   1.140   1.605   9.186
31101SOL     OW95141  13.857   1.985   2.675
31101SOL    HW195142  13.837   2.074   2.704
31101SOL    HW295143  13.822   1.979   2.587
31102SOL     OW95144   6.681  12.263   3.707
31102SOL    HW195145   6.775  12.274   3.724
31102SOL    HW295146   6.639  12.293   3.788
31103SOL     OW95147   9.782  13.875   0.176
31103SOL    HW195148   9.689  13.894   0.169
31103SOL    HW295149   9.790  13.825   0.257
31104SOL     OW95150   1.249   2.056  12.683
31104SOL    HW195151   1.263   2.095  12.597
31104SOL    HW295152   1.188   2.116  12.727
31105SOL     OW95153  12.531   5.198  11.722
31105SOL    HW195154  12.579   5.126  11.762
31105SOL    HW295155  12.485   5.239  11.795
31106SOL     OW95156  14.077  10.859   1.262
31106SOL    HW195157  14.050  10.882   1.174
31106SOL    HW295158  14.172  10.848   1.257
31107SOL     OW95159   7.976   7.139  10.937
31107SOL    HW195160   8.051   7.097  10.894
31107SOL    HW295161   7.902   7.122  10.879
31108SOL     OW95162   6.054  13.033   6.031
31108SOL    HW195163   6.085  13.068   5.947
31108SOL    HW295164   6.095  13.089   6.097
31109SOL     OW95165   1.814   6.243   3.036
31109SOL    HW195166   1.768   6.161   3.055
31109SOL    HW295167   1.745   6.309   3.037
31110SOL     OW95168   2.657  13.149   1.267
31110SOL    HW195169   2.613  13.083   1.213
31110SOL    HW295170   2.747  13.150   1.235
31111SOL     OW95171   8.424   6.618   3.680
31111SOL    HW195172   8.358   6.587   3.618
31111SOL    HW295173   8.437   6.545   3.740
31112SOL     OW95174   2.432   4.889   7.878
31112SOL    HW195175   2.462   4.924   7.962
31112SOL    HW295176   2.357   4.834   7.901
31113SOL     OW95177  14.680   0.812   4.817
31113SOL    HW195178  14.619   0.743   4.843
31113SOL    HW295179  14.741   0.769   4.758
31114SOL     OW95180   6.321   5.269   1.855
31114SOL    HW195181   6.290   5.357   1.836
31114SOL    HW295182   6.341   5.231   1.770
31115SOL     OW95183   8.337  13.578   1.467
31115SOL    HW195184   8.348  13.553   1.559
31115SOL    HW295185   8.292  13.662   1.471
31116SOL     OW95186  14.358   1.751   5.675
31116SOL    HW195187  14.335   1.674   5.725
31116SOL    HW295188  14.329   1.732   5.585
31117SOL     OW95189  14.217   9.809   6.765
31117SOL    HW195190  14.205   9.868   6.691
31117SOL    HW295191  14.160   9.734   6.746
31118SOL     OW95192   8.456   3.477  11.228
31118SOL    HW195193   8.465   3.393  11.274
31118SOL    HW295194   8.362   3.493  11.225
31119SOL     OW95195  13.107   2.271  14.546
31119SOL    HW195196  13.023   2.226  14.544
31119SOL    HW295197  13.098   2.336  14.615
31120SOL     OW95198   9.295   7.440   1.113
31120SOL    HW195199   9.221   7.428   1.054
31120SOL    HW295200   9.372   7.419   1.060
31121SOL     OW95201   6.250  14.205  11.402
31121SOL    HW195202   6.192  14.143  11.448
31121SOL    HW295203   6.338  14.182  11.434
31122SOL     OW95204   9.328   7.098  13.645
31122SOL    HW195205   9.398   7.153  13.681
31122SOL    HW295206   9.371   7.016  13.621
31123SOL     OW95207   0.752  13.594   1.748
31123SOL    HW195208   0.742  13.643   1.667
31123SOL    HW295209   0.823  13.533   1.731
31124SOL     OW95210  12.191   9.858   4.368
31124SOL    HW195211  12.135   9.869   4.291
31124SOL    HW295212  12.144   9.795   4.423
31125SOL     OW95213   4.740  10.439   1.300
31125SOL    HW195214   4.797  10.364   1.318
31125SOL    HW295215   4.684  10.446   1.377
31126SOL     OW95216   3.099   7.951   8.701
31126SOL    HW195217   3.137   7.868   8.674
31126SOL    HW295218   3.124   8.013   8.632
31127SOL     OW95219   9.610  12.318   2.355
31127SOL    HW195220   9.607  12.287   2.265
31127SOL    HW295221   9.588  12.411   2.349
31128SOL     OW95222   9.312   2.971   7.256
31128SOL    HW195223   9.268   2.918   7.190
31128SOL    HW295224   9.244   3.030   7.289
31129SOL     OW95225  13.023  10.518  10.878
31129SOL    HW195226  12.927  10.520  10.887
31129SOL    HW295227  13.054  10.589  10.935
31130SOL     OW95228   1.617   2.232   2.835
31130SOL    HW195229   1.612   2.321   2.869
31130SOL    HW295230   1.711   2.218   2.818
31131SOL     OW95231   9.301   5.586   8.314
31131SOL    HW195232   9.359   5.511   8.301
31131SOL    HW295233   9.254   5.595   8.231
31132SOL     OW95234   4.674  14.246  12.550
31132SOL    HW195235   4.663  14.198  12.468
31132SOL    HW295236   4.750  14.302  12.536
31133SOL     OW95237  12.648   3.502   3.127
31133SOL    HW195238  12.667   3.569   3.062
31133SOL    HW295239  12.706   3.429   3.104
31134SOL     OW95240   0.001   1.706   6.437
31134SOL    HW195241  14.855   1.741   6.351
31134SOL    HW295242   0.096   1.707   6.440
31135SOL     OW95243   0.719  11.331   1.914
31135SOL    HW195244   0.786  11.267   1.936
31135SOL    HW295245   0.671  11.344   1.996
31136SOL     OW95246   8.777   7.252   5.041
31136SOL    HW195247   8.731   7.194   4.980
31136SOL    HW295248   8.743   7.340   5.021
31137SOL     OW95249   4.212  12.923   8.870
31137SOL    HW195250   4.218  13.012   8.905
31137SOL    HW295251   4.293  12.881   8.899
31138SOL     OW95252   0.345  11.054  10.490
31138SOL    HW195253   0.304  10.975  10.455
31138SOL    HW295254   0.404  11.022  10.559
31139SOL     OW95255  12.428   1.252   5.395
31139SOL    HW195256  12.408   1.270   5.487
31139SOL    HW295257  12.347   1.274   5.349
31140SOL     OW95258  12.143   7.229   1.808
31140SOL    HW195259  12.152   7.323   1.795
31140SOL    HW295260  12.076   7.219   1.875
31141SOL     OW95261   3.000   0.312  14.782
31141SOL    HW195262   3.064   0.312  14.853
31141SOL    HW295263   2.937   0.380  14.807
31142SOL     OW95264  12.540   3.764  13.859
31142SOL    HW195265  12.452   3.745  13.893
31142SOL    HW295266  12.569   3.840  13.908
31143SOL     OW95267   5.316   1.498  12.501
31143SOL    HW195268   5.410   1.501  12.522
31143SOL    HW295269   5.311   1.528  12.411
31144SOL     OW95270   4.041   7.514   8.233
31144SOL    HW195271   4.128   7.483   8.259
31144SOL    HW295272   4.055   7.555   8.147
31145SOL     OW95273   4.283   5.251  11.802
31145SOL    HW195274   4.228   5.179  11.833
31145SOL    HW295275   4.264   5.258  11.709
31146SOL     OW95276   4.180   5.862  12.805
31146SOL    HW195277   4.142   5.824  12.725
31146SOL    HW295278   4.128   5.826  12.876
31147SOL     OW95279   9.548   8.485  13.739
31147SOL    HW195280   9.472   8.475  13.796
31147SOL    HW295281   9.616   8.521  13.797
31148SOL     OW95282   1.286   3.326   8.005
31148SOL    HW195283   1.367   3.300   8.048
31148SOL    HW295284   1.217   3.304   8.068
31149SOL     OW95285  11.341   8.000  10.106
31149SOL    HW195286  11.392   8.074  10.136
31149SOL    HW295287  11.393   7.923  10.130
31150SOL     OW95288  14.853   4.853   6.726
31150SOL    HW195289   0.068   4.850   6.755
31150SOL    HW295290  14.826   4.761   6.723
31151SOL     OW95291   8.502  11.420   0.902
31151SOL    HW195292   8.574  11.443   0.843
31151SOL    HW295293   8.498  11.325   0.899
31152SOL     OW95294   8.989   6.701  11.512
31152SOL    HW195295   9.044   6.747  11.449
31152SOL    HW295296   8.985   6.611  11.480
31153SOL     OW95297  10.561  10.839   6.951
31153SOL    HW195298  10.558  10.921   6.901
31153SOL    HW295299  10.478  10.838   7.000
31154SOL     OW95300  12.070   7.353   1.127
31154SOL    HW195301  11.990   7.404   1.140
31154SOL    HW295302  12.052   7.269   1.168
31155SOL     OW95303  11.553  13.372   1.349
31155SOL    HW195304  11.536  13.391   1.256
31155SOL    HW295305  11.642  13.403   1.364
31156SOL     OW95306  13.146   7.095   0.522
31156SOL    HW195307  13.079   7.161   0.536
31156SOL    HW295308  13.132   7.031   0.593
31157SOL     OW95309  10.174   7.258   3.772
31157SOL    HW195310  10.145   7.173   3.739
31157SOL    HW295311  10.130   7.322   3.716
31158SOL     OW95312  12.924  14.833   2.623
31158SOL    HW195313  12.969  14.788   2.694
31158SOL    HW295314  12.964  14.799   2.543
31159SOL     OW95315   5.482   0.701   2.478
31159SOL    HW195316   5.451   0.623   2.433
31159SOL    HW295317   5.487   0.768   2.409
31160SOL     OW95318   2.922   9.798   0.467
31160SOL    HW195319   2.866   9.868   0.432
31160SOL    HW295320   2.963   9.838   0.544
31161SOL     OW95321   8.254   0.469  12.962
31161SOL    HW195322   8.201   0.389  12.961
31161SOL    HW295323   8.313   0.459  12.887
31162SOL     OW95324   3.234   2.655  10.015
31162SOL    HW195325   3.242   2.559  10.010
31162SOL    HW295326   3.289   2.687   9.943
31163SOL     OW95327   5.712   5.291   5.453
31163SOL    HW195328   5.641   5.257   5.399
31163SOL    HW295329   5.676   5.370   5.493
31164SOL     OW95330   2.073   4.175  10.170
31164SOL    HW195331   2.017   4.105  10.136
31164SOL    HW295332   2.131   4.198  10.097
31165SOL     OW95333  13.746   2.965   7.879
31165SOL    HW195334  13.784   2.940   7.795
31165SOL    HW295335  13.723   2.882   7.921
31166SOL     OW95336   8.717   6.383   1.400
31166SOL    HW195337   8.622   6.371   1.400
31166SOL    HW295338   8.752   6.301   1.435
31167SOL     OW95339  13.333   6.794   2.496
31167SOL    HW195340  13.268   6.781   2.428
31167SOL    HW295341  13.283   6.832   2.569
31168SOL     OW95342   8.996   4.685  13.298
31168SOL    HW195343   9.073   4.721  13.254
31168SOL    HW295344   9.032   4.641  13.375
31169SOL     OW95345   5.763   9.848   7.888
31169SOL    HW195346   5.837   9.902   7.859
31169SOL    HW295347   5.762   9.774   7.827
31170SOL     OW95348   4.889   7.771   5.548
31170SOL    HW195349   4.835   7.756   5.470
31170SOL    HW295350   4.833   7.821   5.607
31171SOL     OW95351   2.251   8.070   2.985
31171SOL    HW195352   2.340   8.074   3.020
31171SOL    HW295353   2.198   8.040   3.059
31172SOL     OW95354  12.744   0.157   1.723
31172SOL    HW195355  12.782   0.242   1.746
31172SOL    HW295356  12.650   0.174   1.717
31173SOL     OW95357   5.862   9.763  10.581
31173SOL    HW195358   5.839   9.833  10.520
31173SOL    HW295359   5.904   9.696  10.526
31174SOL     OW95360  11.520   4.641   3.006
31174SOL    HW195361  11.460   4.643   3.080
31174SOL    HW295362  11.545   4.549   2.999
31175SOL     OW95363   2.957   4.099   6.930
31175SOL    HW195364   2.873   4.071   6.892
31175SOL    HW295365   3.019   4.095   6.857
31176SOL     OW95366   8.363   1.030  14.870
31176SOL    HW195367   8.390   0.948   0.036
31176SOL    HW295368   8.270   1.017  14.851
31177SOL     OW95369   0.610   7.078   4.611
31177SOL    HW195370   0.533   7.043   4.655
31177SOL    HW295371   0.682   7.063   4.672
31178SOL     OW95372   6.975   9.733   8.990
31178SOL    HW195373   6.993   9.710   8.898
31178SOL    HW295374   7.051   9.698   9.037
31179SOL     OW95375   5.339  13.537   9.913
31179SOL    HW195376   5.339  13.517  10.007
31179SOL    HW295377   5.317  13.630   9.908
31180SOL     OW95378   4.765   2.597  12.729
31180SOL    HW195379   4.733   2.685  12.711
31180SOL    HW295380   4.841   2.587  12.672
31181SOL     OW95381   7.902  14.816  11.549
31181SOL    HW195382   7.842  14.759  11.499
31181SOL    HW295383   7.986  14.771  11.545
31182SOL     OW95384  12.860   6.908   0.188
31182SOL    HW195385  12.907   6.912   0.272
31182SOL    HW295386  12.924   6.937   0.123
31183SOL     OW95387   4.884  12.057   8.488
31183SOL    HW195388   4.816  12.006   8.532
31183SOL    HW295389   4.859  12.148   8.503
31184SOL     OW95390  12.190   7.222  14.537
31184SOL    HW195391  12.189   7.149  14.600
31184SOL    HW295392  12.098   7.240  14.520
31185SOL     OW95393   7.639  13.198  11.292
31185SOL    HW195394   7.674  13.170  11.377
31185SOL    HW295395   7.564  13.141  11.276
31186SOL     OW95396  10.198   9.581   9.609
31186SOL    HW195397  10.251   9.525   9.552
31186SOL    HW295398  10.239   9.573   9.695
31187SOL     OW95399   7.290   4.255   5.188
31187SOL    HW195400   7.206   4.299   5.176
31187SOL    HW295401   7.353   4.308   5.139
31188SOL     OW95402   9.705   9.049   2.542
31188SOL    HW195403   9.732   9.131   2.501
31188SOL    HW295404   9.771   9.033   2.610
31189SOL     OW95405   0.390  11.087   3.181
31189SOL    HW195406   0.416  11.173   3.212
31189SOL    HW295407   0.424  11.082   3.092
31190SOL     OW95408   1.340   8.251  13.294
31190SOL    HW195409   1.268   8.255  13.357
31190SOL    HW295410   1.299   8.267  13.210
31191SOL     OW95411  11.624  13.709   6.042
31191SOL    HW195412  11.541  13.685   6.001
31191SOL    HW295413  11.669  13.626   6.057
31192SOL     OW95414   1.122   6.776  13.948
31192SOL    HW195415   1.055   6.774  13.880
31192SOL    HW295416   1.186   6.841  13.918
31193SOL     OW95417   0.343   1.008   8.310
31193SOL    HW195418   0.322   0.960   8.230
31193SOL    HW295419   0.330   0.944   8.380
31194SOL     OW95420   6.457  10.713   2.358
31194SOL    HW195421   6.492  10.790   2.402
31194SOL    HW295422   6.398  10.748   2.291
31195SOL     OW95423  14.134   8.067   2.689
31195SOL    HW195424  14.065   8.001   2.683
31195SOL    HW295425  14.215   8.016   2.690
31196SOL     OW95426   1.073   1.054   4.395
31196SOL    HW195427   1.097   1.143   4.421
31196SOL    HW295428   1.097   1.000   4.471
31197SOL     OW95429   6.792  14.275   9.556
31197SOL    HW195430   6.837  14.313   9.631
31197SOL    HW295431   6.834  14.316   9.480
31198SOL     OW95432  11.963   8.538   8.987
31198SOL    HW195433  11.880   8.523   8.943
31198SOL    HW295434  12.003   8.451   8.991
31199SOL     OW95435   4.894  11.958   7.216
31199SOL    HW195436   4.987  11.942   7.201
31199SOL    HW295437   4.861  11.876   7.254
31200SOL     OW95438  10.996  14.821   1.735
31200SOL    HW195439  10.981  14.760   1.807
31200SOL    HW295440  10.911  14.861   1.719
31201SOL     OW95441   5.882   2.163   6.436
31201SOL    HW195442   5.944   2.136   6.369
31201SOL    HW295443   5.817   2.216   6.389
31202SOL     OW95444   5.948  13.658  12.907
31202SOL    HW195445   5.973  13.576  12.863
31202SOL    HW295446   6.018  13.719  12.885
31203SOL     OW95447  13.627  14.181  14.271
31203SOL    HW195448  13.557  14.169  14.207
31203SOL    HW295449  13.694  14.231  14.225
31204SOL     OW95450   1.473  14.056   3.667
31204SOL    HW195451   1.407  13.987   3.661
31204SOL    HW295452   1.547  14.023   3.616
31205SOL     OW95453  10.043  13.211   5.288
31205SOL    HW195454  10.075  13.188   5.375
31205SOL    HW295455  10.116  13.258   5.247
31206SOL     OW95456  12.039   2.509  10.578
31206SOL    HW195457  11.975   2.510  10.506
31206SOL    HW295458  12.054   2.416  10.594
31207SOL     OW95459   0.297   0.151   2.819
31207SOL    HW195460   0.271   0.227   2.872
31207SOL    HW295461   0.245   0.079   2.854
31208SOL     OW95462   1.387   7.952  11.702
31208SOL    HW195463   1.309   7.931  11.753
31208SOL    HW295464   1.368   7.918  11.614
31209SOL     OW95465   1.030   3.953   7.105
31209SOL    HW195466   0.949   3.902   7.110
31209SOL    HW295467   1.032   4.001   7.188
31210SOL     OW95468   6.785   3.571   0.074
31210SOL    HW195469   6.775   3.542  14.860
31210SOL    HW295470   6.812   3.493   0.122
31211SOL     OW95471   0.801  12.485   9.863
31211SOL    HW195472   0.826  12.447   9.948
31211SOL    HW295473   0.765  12.571   9.885
31212SOL     OW95474  13.091  10.841   0.788
31212SOL    HW195475  13.064  10.840   0.696
31212SOL    HW295476  13.009  10.849   0.836
31213SOL     OW95477   9.910   2.946   4.597
31213SOL    HW195478   9.901   2.969   4.689
31213SOL    HW295479   9.951   2.860   4.598
31214SOL     OW95480   1.849   2.377   1.499
31214SOL    HW195481   1.919   2.442   1.506
31214SOL    HW295482   1.769   2.425   1.519
31215SOL     OW95483  10.158   2.097   5.484
31215SOL    HW195484  10.172   2.182   5.524
31215SOL    HW295485  10.214   2.037   5.534
31216SOL     OW95486   8.565   5.448   9.460
31216SOL    HW195487   8.569   5.365   9.413
31216SOL    HW295488   8.512   5.430   9.537
31217SOL     OW95489  11.181  10.509   4.780
31217SOL    HW195490  11.272  10.479   4.785
31217SOL    HW295491  11.142  10.457   4.710
31218SOL     OW95492  10.823  13.906  14.193
31218SOL    HW195493  10.871  13.830  14.227
31218SOL    HW295494  10.890  13.957  14.146
31219SOL     OW95495  11.238   6.117   3.244
31219SOL    HW195496  11.219   6.129   3.151
31219SOL    HW295497  11.260   6.205   3.275
31220SOL     OW95498   5.909   2.036   9.824
31220SOL    HW195499   5.941   2.095   9.892
31220SOL    HW295500   5.817   2.020   9.848
31221SOL     OW95501   7.472  10.031  10.808
31221SOL    HW195502   7.517   9.973  10.746
31221SOL    HW295503   7.432   9.971  10.871
31222SOL     OW95504   1.111   9.404   6.734
31222SOL    HW195505   1.080   9.389   6.645
31222SOL    HW295506   1.156   9.322   6.757
31223SOL     OW95507   0.910  13.968   3.480
31223SOL    HW195508   0.859  13.912   3.422
31223SOL    HW295509   0.903  13.927   3.566
31224SOL     OW95510  11.381  12.620   1.162
31224SOL    HW195511  11.436  12.592   1.235
31224SOL    HW295512  11.433  12.687   1.118
31225SOL     OW95513   4.252  12.184   1.804
31225SOL    HW195514   4.195  12.107   1.812
31225SOL    HW295515   4.317  12.159   1.738
31226SOL     OW95516   4.763  13.109  14.480
31226SOL    HW195517   4.795  13.153  14.401
31226SOL    HW295518   4.830  13.045  14.501
31227SOL     OW95519   9.748   5.232   7.117
31227SOL    HW195520   9.784   5.210   7.203
31227SOL    HW295521   9.783   5.164   7.058
31228SOL     OW95522  10.726   4.880  14.233
31228SOL    HW195523  10.707   4.974  14.239
31228SOL    HW295524  10.821   4.875  14.224
31229SOL     OW95525   0.140  14.491  11.227
31229SOL    HW195526   0.185  14.422  11.177
31229SOL    HW295527   0.194  14.569  11.214
31230SOL     OW95528   4.505   9.777   6.870
31230SOL    HW195529   4.590   9.785   6.827
31230SOL    HW295530   4.493   9.683   6.883
31231SOL     OW95531  11.145  11.172   2.854
31231SOL    HW195532  11.170  11.210   2.938
31231SOL    HW295533  11.120  11.082   2.876
31232SOL     OW95534   2.796   0.174  10.428
31232SOL    HW195535   2.723   0.188  10.489
31232SOL    HW295536   2.764   0.107  10.368
31233SOL     OW95537  13.024   3.690  13.189
31233SOL    HW195538  12.936   3.669  13.219
31233SOL    HW295539  13.078   3.686  13.268
31234SOL     OW95540   9.972  10.683   7.861
31234SOL    HW195541  10.007  10.605   7.819
31234SOL    HW295542   9.888  10.655   7.897
31235SOL     OW95543   3.044   8.069   2.745
31235SOL    HW195544   2.962   8.037   2.783
31235SOL    HW295545   3.103   7.994   2.747
31236SOL     OW95546   6.479   5.584  10.663
31236SOL    HW195547   6.545   5.603  10.597
31236SOL    HW295548   6.472   5.489  10.663
31237SOL     OW95549   4.065   2.792  12.923
31237SOL    HW195550   4.041   2.836  12.842
31237SOL    HW295551   4.156   2.763  12.909
31238SOL     OW95552   6.872  12.540   7.206
31238SOL    HW195553   6.859  12.605   7.137
31238SOL    HW295554   6.965  12.542   7.225
31239SOL     OW95555   6.112  12.476   4.673
31239SOL    HW195556   6.083  12.455   4.584
31239SOL    HW295557   6.144  12.393   4.708
31240SOL     OW95558   5.906   0.016  12.911
31240SOL    HW195559   5.983   0.073  12.920
31240SOL    HW295560   5.922  14.842  12.832
31241SOL     OW95561  12.809   5.033  11.650
31241SOL    HW195562  12.826   5.111  11.597
31241SOL    HW295563  12.753   4.978  11.595
31242SOL     OW95564  11.925  10.530   7.475
31242SOL    HW195565  12.012  10.569   7.484
31242SOL    HW295566  11.880  10.554   7.556
31243SOL     OW95567   1.446   4.109  12.643
31243SOL    HW195568   1.396   4.182  12.606
31243SOL    HW295569   1.450   4.128  12.737
31244SOL     OW95570   5.106  10.620   4.681
31244SOL    HW195571   5.124  10.698   4.629
31244SOL    HW295572   5.018  10.636   4.717
31245SOL     OW95573   6.594   1.820  13.459
31245SOL    HW195574   6.538   1.865  13.522
31245SOL    HW295575   6.673   1.874  13.455
31246SOL     OW95576   6.582   6.139   6.944
31246SOL    HW195577   6.634   6.142   6.864
31246SOL    HW295578   6.561   6.046   6.955
31247SOL     OW95579   6.742   3.412  12.152
31247SOL    HW195580   6.705   3.324  12.156
31247SOL    HW295581   6.781   3.426  12.238
31248SOL     OW95582   2.327  14.525   9.490
31248SOL    HW195583   2.415  14.510   9.454
31248SOL    HW295584   2.339  14.597   9.552
31249SOL     OW95585   5.385   0.788   8.960
31249SOL    HW195586   5.329   0.790   8.883
31249SOL    HW295587   5.414   0.697   8.966
31250SOL     OW95588   5.610  14.533  12.091
31250SOL    HW195589   5.622  14.592  12.017
31250SOL    HW295590   5.693  14.537  12.139
31251SOL     OW95591   1.974  14.140   9.490
31251SOL    HW195592   1.965  14.168   9.581
31251SOL    HW295593   1.981  14.045   9.494
31252SOL     OW95594  11.848  11.132   6.980
31252SOL    HW195595  11.823  11.113   7.071
31252SOL    HW295596  11.888  11.050   6.949
31253SOL     OW95597   8.650   0.304   7.410
31253SOL    HW195598   8.584   0.235   7.402
31253SOL    HW295599   8.602   0.385   7.390
31254SOL     OW95600   1.603  14.095   4.393
31254SOL    HW195601   1.634  14.125   4.479
31254SOL    HW295602   1.529  14.037   4.414
31255SOL     OW95603  14.681   7.571   8.367
31255SOL    HW195604  14.649   7.501   8.310
31255SOL    HW295605  14.603   7.621   8.390
31256SOL     OW95606   0.796   4.438  12.009
31256SOL    HW195607   0.873   4.444  12.066
31256SOL    HW295608   0.828   4.468  11.924
31257SOL     OW95609  12.852   6.436   4.966
31257SOL    HW195610  12.767   6.447   5.011
31257SOL    HW295611  12.916   6.472   5.027
31258SOL     OW95612  10.941   6.494  11.088
31258SOL    HW195613  10.871   6.428  11.097
31258SOL    HW295614  10.897   6.570  11.049
31259SOL     OW95615  12.786   0.979   7.133
31259SOL    HW195616  12.756   0.895   7.100
31259SOL    HW295617  12.719   1.041   7.106
31260SOL     OW95618   7.207  12.636  14.738
31260SOL    HW195619   7.213  12.686  14.819
31260SOL    HW295620   7.214  12.545  14.765
31261SOL     OW95621   3.073   0.304  13.439
31261SOL    HW195622   3.014   0.291  13.513
31261SOL    HW295623   3.032   0.374  13.388
31262SOL     OW95624   6.447   0.714   6.855
31262SOL    HW195625   6.438   0.619   6.854
31262SOL    HW295626   6.528   0.731   6.902
31263SOL     OW95627   3.332   6.070  12.474
31263SOL    HW195628   3.407   6.081  12.533
31263SOL    HW295629   3.288   6.155  12.476
31264SOL     OW95630   3.299   8.310  10.358
31264SOL    HW195631   3.375   8.322  10.300
31264SOL    HW295632   3.251   8.393  10.352
31265SOL     OW95633   9.864  12.024   0.720
31265SOL    HW195634   9.924  12.075   0.666
31265SOL    HW295635   9.881  12.053   0.810
31266SOL     OW95636   9.708  12.664   5.783
31266SOL    HW195637   9.718  12.756   5.759
31266SOL    HW295638   9.762  12.616   5.721
31267SOL     OW95639  13.431   1.828  13.313
31267SOL    HW195640  13.522   1.808  13.336
31267SOL    HW295641  13.381   1.754  13.347
31268SOL     OW95642  13.776  13.745   0.018
31268SOL    HW195643  13.783  13.835   0.050
31268SOL    HW295644  13.817  13.747  14.808
31269SOL     OW95645   1.277   4.081   8.707
31269SOL    HW195646   1.267   4.140   8.633
31269SOL    HW295647   1.189   4.073   8.744
31270SOL     OW95648  14.513  13.556   6.905
31270SOL    HW195649  14.552  13.476   6.940
31270SOL    HW295650  14.542  13.625   6.965
31271SOL     OW95651  11.346   7.557  10.261
31271SOL    HW195652  11.402   7.484  10.235
31271SOL    HW295653  11.373   7.577  10.351
31272SOL     OW95654   1.254   4.937   1.922
31272SOL    HW195655   1.207   5.012   1.957
31272SOL    HW295656   1.315   4.974   1.858
31273SOL     OW95657   9.392   6.443   9.625
31273SOL    HW195658   9.303   6.422   9.597
31273SOL    HW295659   9.447   6.380   9.579
31274SOL     OW95660  13.041   5.139   3.320
31274SOL    HW195661  13.071   5.054   3.288
31274SOL    HW295662  13.111   5.199   3.297
31275SOL     OW95663  10.488  10.865   3.729
31275SOL    HW195664  10.495  10.910   3.813
31275SOL    HW295665  10.574  10.823   3.717
31276SOL     OW95666   3.613   2.517  12.209
31276SOL    HW195667   3.630   2.592  12.152
31276SOL    HW295668   3.564   2.554  12.282
31277SOL     OW95669   9.648   2.583   0.449
31277SOL    HW195670   9.590   2.528   0.396
31277SOL    HW295671   9.704   2.522   0.496
31278SOL     OW95672   3.484  12.057   8.012
31278SOL    HW195673   3.570  12.038   7.974
31278SOL    HW295674   3.432  11.979   7.995
31279SOL     OW95675  13.363   0.351   3.579
31279SOL    HW195676  13.346   0.259   3.600
31279SOL    HW295677  13.351   0.357   3.484
31280SOL     OW95678   3.962   7.506  14.671
31280SOL    HW195679   3.983   7.595  14.643
31280SOL    HW295680   3.992   7.451  14.598
31281SOL     OW95681   6.549  11.515  13.849
31281SOL    HW195682   6.537  11.467  13.766
31281SOL    HW295683   6.607  11.587  13.826
31282SOL     OW95684   9.140  10.785   6.246
31282SOL    HW195685   9.148  10.877   6.271
31282SOL    HW295686   9.222  10.745   6.276
31283SOL     OW95687   7.446  13.197  14.598
31283SOL    HW195688   7.356  13.168  14.584
31283SOL    HW295689   7.496  13.158  14.526
31284SOL     OW95690  11.063   6.085   7.637
31284SOL    HW195691  11.133   6.024   7.661
31284SOL    HW295692  11.109   6.161   7.603
31285SOL     OW95693  10.862   6.732   4.634
31285SOL    HW195694  10.946   6.742   4.679
31285SOL    HW295695  10.829   6.822   4.625
31286SOL     OW95696   9.218   7.021   7.909
31286SOL    HW195697   9.185   7.069   7.834
31286SOL    HW295698   9.313   7.032   7.905
31287SOL     OW95699   9.031  13.530   2.601
31287SOL    HW195700   8.948  13.484   2.596
31287SOL    HW295701   9.080  13.485   2.670
31288SOL     OW95702   9.919  11.515   3.528
31288SOL    HW195703   9.858  11.453   3.488
31288SOL    HW295704   9.894  11.600   3.491
31289SOL     OW95705  14.589   5.288   0.442
31289SOL    HW195706  14.647   5.351   0.485
31289SOL    HW295707  14.574   5.220   0.508
31290SOL     OW95708   2.796   8.935  10.412
31290SOL    HW195709   2.746   8.854  10.404
31290SOL    HW295710   2.785   8.961  10.504
31291SOL     OW95711   3.622   3.002  13.715
31291SOL    HW195712   3.610   2.915  13.677
31291SOL    HW295713   3.614   2.989  13.809
31292SOL     OW95714   5.684  14.334   9.481
31292SOL    HW195715   5.738  14.256   9.492
31292SOL    HW295716   5.746  14.403   9.455
31293SOL     OW95717   3.922   9.282  12.117
31293SOL    HW195718   3.885   9.197  12.092
31293SOL    HW295719   3.889   9.343  12.051
31294SOL     OW95720  14.006   6.941   5.875
31294SOL    HW195721  13.949   6.881   5.923
31294SOL    HW295722  14.092   6.930   5.915
31295SOL     OW95723   7.584   2.703  11.968
31295SOL    HW195724   7.648   2.644  11.929
31295SOL    HW295725   7.560   2.660  12.051
31296SOL     OW95726   0.039  10.794   1.620
31296SOL    HW195727   0.069  10.775   1.709
31296SOL    HW295728   0.076  10.724   1.567
31297SOL     OW95729  11.273  14.080  11.369
31297SOL    HW195730  11.205  14.019  11.342
31297SOL    HW295731  11.354  14.030  11.365
31298SOL     OW95732   3.397   7.486   7.102
31298SOL    HW195733   3.373   7.465   7.011
31298SOL    HW295734   3.390   7.581   7.107
31299SOL     OW95735  12.460  11.119  13.094
31299SOL    HW195736  12.499  11.031  13.088
31299SOL    HW295737  12.443  11.144  13.003
31300SOL     OW95738   2.840  13.071   2.019
31300SOL    HW195739   2.895  13.139   2.057
31300SOL    HW295740   2.754  13.111   2.009
31301SOL     OW95741   1.464  11.629  10.456
31301SOL    HW195742   1.464  11.544  10.412
31301SOL    HW295743   1.376  11.636  10.493
31302SOL     OW95744   6.402   8.723  13.818
31302SOL    HW195745   6.342   8.779  13.768
31302SOL    HW295746   6.420   8.649  13.760
31303SOL     OW95747  12.846  11.221  10.194
31303SOL    HW195748  12.931  11.254  10.224
31303SOL    HW295749  12.795  11.208  10.273
31304SOL     OW95750   2.215   1.855   5.534
31304SOL    HW195751   2.302   1.889   5.513
31304SOL    HW295752   2.162   1.880   5.458
31305SOL     OW95753   9.940  12.792   0.678
31305SOL    HW195754   9.955  12.773   0.586
31305SOL    HW295755   9.994  12.869   0.695
31306SOL     OW95756   3.222  12.413   4.194
31306SOL    HW195757   3.126  12.411   4.198
31306SOL    HW295758   3.243  12.406   4.101
31307SOL     OW95759   5.667   8.785   9.981
31307SOL    HW195760   5.672   8.765  10.074
31307SOL    HW295761   5.656   8.700   9.939
31308SOL     OW95762  13.206   1.436   2.526
31308SOL    HW195763  13.116   1.406   2.539
31308SOL    HW295764  13.259   1.357   2.526
31309SOL     OW95765  12.104   4.220   6.009
31309SOL    HW195766  12.137   4.162   5.940
31309SOL    HW295767  12.174   4.285   6.020
31310SOL     OW95768   6.901  14.856  10.294
31310SOL    HW195769   6.880   0.057  10.242
31310SOL    HW295770   6.835  14.855  10.363
31311SOL     OW95771   4.736   4.024   5.384
31311SOL    HW195772   4.692   4.073   5.315
31311SOL    HW295773   4.805   4.083   5.414
31312SOL     OW95774   5.917  11.127   1.489
31312SOL    HW195775   5.907  11.089   1.401
31312SOL    HW295776   5.968  11.062   1.537
31313SOL     OW95777   2.194   1.167   6.798
31313SOL    HW195778   2.124   1.129   6.851
31313SOL    HW295779   2.272   1.156   6.852
31314SOL     OW95780  11.383   8.947  10.259
31314SOL    HW195781  11.416   8.883  10.196
31314SOL    HW295782  11.457   8.963  10.317
31315SOL     OW95783   0.531  13.110  13.757
31315SOL    HW195784   0.594  13.110  13.829
31315SOL    HW295785   0.482  13.028  13.768
31316SOL     OW95786   7.531  11.243   3.025
31316SOL    HW195787   7.543  11.169   3.083
31316SOL    HW295788   7.596  11.230   2.956
31317SOL     OW95789  14.190   7.144   4.462
31317SOL    HW195790  14.106   7.126   4.505
31317SOL    HW295791  14.246   7.069   4.485
31318SOL     OW95792  11.201   8.204   0.488
31318SOL    HW195793  11.192   8.113   0.516
31318SOL    HW295794  11.130   8.216   0.425
31319SOL     OW95795   0.616   6.789  12.771
31319SOL    HW195796   0.700   6.834  12.779
31319SOL    HW295797   0.609   6.768  12.678
31320SOL     OW95798   2.018  13.226   5.204
31320SOL    HW195799   1.929  13.192   5.211
31320SOL    HW295800   2.057  13.177   5.132
31321SOL     OW95801   7.533   2.648   0.195
31321SOL    HW195802   7.492   2.586   0.256
31321SOL    HW295803   7.620   2.662   0.232
31322SOL     OW95804  12.869   8.223   8.993
31322SOL    HW195805  12.916   8.141   8.976
31322SOL    HW295806  12.779   8.195   9.010
31323SOL     OW95807  13.902   0.720   2.776
31323SOL    HW195808  13.859   0.639   2.804
31323SOL    HW295809  13.992   0.712   2.808
31324SOL     OW95810   5.326   1.602   6.466
31324SOL    HW195811   5.260   1.571   6.405
31324SOL    HW295812   5.401   1.625   6.411
31325SOL     OW95813   4.198  10.509  12.153
31325SOL    HW195814   4.258  10.582  12.142
31325SOL    HW295815   4.170  10.487  12.064
31326SOL     OW95816   0.266   5.862   0.839
31326SOL    HW195817   0.315   5.806   0.899
31326SOL    HW295818   0.210   5.802   0.789
31327SOL     OW95819   2.607   0.335   5.938
31327SOL    HW195820   2.651   0.263   5.894
31327SOL    HW295821   2.514   0.324   5.915
31328SOL     OW95822  13.734   0.859   9.085
31328SOL    HW195823  13.820   0.837   9.121
31328SOL    HW295824  13.674   0.846   9.159
31329SOL     OW95825   6.666   9.075   5.367
31329SOL    HW195826   6.731   9.040   5.428
31329SOL    HW295827   6.581   9.054   5.406
31330SOL     OW95828   8.889   4.490   0.857
31330SOL    HW195829   8.856   4.498   0.768
31330SOL    HW295830   8.831   4.546   0.909
31331SOL     OW95831  11.829   9.951  11.788
31331SOL    HW195832  11.875   9.888  11.842
31331SOL    HW295833  11.736   9.937  11.807
31332SOL     OW95834  10.674   4.338   3.802
31332SOL    HW195835  10.666   4.268   3.866
31332SOL    HW295836  10.620   4.409   3.838
31333SOL     OW95837  11.668   2.616  12.178
31333SOL    HW195838  11.640   2.533  12.139
31333SOL    HW295839  11.625   2.683  12.125
31334SOL     OW95840  14.122  12.976   5.412
31334SOL    HW195841  14.101  12.966   5.319
31334SOL    HW295842  14.090  13.063   5.434
31335SOL     OW95843   4.666   8.627  14.295
31335SOL    HW195844   4.624   8.543  14.277
31335SOL    HW295845   4.759   8.609  14.288
31336SOL     OW95846  14.572  12.016   3.788
31336SOL    HW195847  14.644  12.078   3.798
31336SOL    HW295848  14.493  12.069   3.798
31337SOL     OW95849  12.434   3.365   6.076
31337SOL    HW195850  12.361   3.381   6.136
31337SOL    HW295851  12.403   3.295   6.018
31338SOL     OW95852  14.359   9.581   7.935
31338SOL    HW195853  14.275   9.625   7.948
31338SOL    HW295854  14.392   9.617   7.852
31339SOL     OW95855  12.419  11.862   9.321
31339SOL    HW195856  12.339  11.882   9.370
31339SOL    HW295857  12.392  11.863   9.229
31340SOL     OW95858   4.080   9.465   8.232
31340SOL    HW195859   4.010   9.505   8.283
31340SOL    HW295860   4.044   9.459   8.143
31341SOL     OW95861   4.374  12.584   4.780
31341SOL    HW195862   4.391  12.615   4.869
31341SOL    HW295863   4.388  12.661   4.725
31342SOL     OW95864   9.004   5.206   0.396
31342SOL    HW195865   9.056   5.150   0.339
31342SOL    HW295866   9.048   5.202   0.481
31343SOL     OW95867  11.647   6.380   1.032
31343SOL    HW195868  11.689   6.357   1.115
31343SOL    HW295869  11.588   6.307   1.014
31344SOL     OW95870   7.713  13.410  13.317
31344SOL    HW195871   7.706  13.492  13.367
31344SOL    HW295872   7.719  13.439  13.226
31345SOL     OW95873   1.086   3.499   3.907
31345SOL    HW195874   1.025   3.470   3.839
31345SOL    HW295875   1.131   3.575   3.868
31346SOL     OW95876   0.371   0.681  12.940
31346SOL    HW195877   0.382   0.605  12.997
31346SOL    HW295878   0.300   0.657  12.881
31347SOL     OW95879   0.774   9.987   2.003
31347SOL    HW195880   0.858   9.943   1.990
31347SOL    HW295881   0.797  10.071   2.044
31348SOL     OW95882  14.466   1.721   2.667
31348SOL    HW195883  14.554   1.692   2.643
31348SOL    HW295884  14.479   1.809   2.702
31349SOL     OW95885  13.253   5.248   9.425
31349SOL    HW195886  13.229   5.305   9.352
31349SOL    HW295887  13.266   5.307   9.499
31350SOL     OW95888   3.827   8.459   9.533
31350SOL    HW195889   3.898   8.402   9.563
31350SOL    HW295890   3.777   8.478   9.613
31351SOL     OW95891   9.542   3.137   0.689
31351SOL    HW195892   9.463   3.123   0.636
31351SOL    HW295893   9.606   3.077   0.651
31352SOL     OW95894   6.628  12.696   6.196
31352SOL    HW195895   6.654  12.623   6.139
31352SOL    HW295896   6.554  12.663   6.246
31353SOL     OW95897   8.254   5.112   2.415
31353SOL    HW195898   8.334   5.162   2.398
31353SOL    HW295899   8.201   5.126   2.337
31354SOL     OW95900   6.338   9.786  10.998
31354SOL    HW195901   6.411   9.751  10.946
31354SOL    HW295902   6.261   9.741  10.964
31355SOL     OW95903   2.045  13.932   4.649
31355SOL    HW195904   1.990  14.006   4.624
31355SOL    HW295905   2.132  13.969   4.659
31356SOL     OW95906   9.080   4.415  14.274
31356SOL    HW195907   9.117   4.329  14.294
31356SOL    HW295908   9.035   4.441  14.355
31357SOL     OW95909   5.708   2.553   9.627
31357SOL    HW195910   5.713   2.560   9.722
31357SOL    HW295911   5.643   2.618   9.602
31358SOL     OW95912   9.049  10.417   5.366
31358SOL    HW195913   8.966  10.441   5.408
31358SOL    HW295914   9.095  10.500   5.354
31359SOL     OW95915   7.895   1.549   6.070
31359SOL    HW195916   7.948   1.628   6.076
31359SOL    HW295917   7.840   1.563   5.992
31360SOL     OW95918   1.209   3.014  12.547
31360SOL    HW195919   1.165   3.040  12.466
31360SOL    HW295920   1.199   2.919  12.550
31361SOL     OW95921   1.780   2.478   0.577
31361SOL    HW195922   1.829   2.463   0.496
31361SOL    HW295923   1.719   2.548   0.556
31362SOL     OW95924  10.235   6.321  13.521
31362SOL    HW195925  10.321   6.297  13.486
31362SOL    HW295926  10.221   6.410  13.490
31363SOL     OW95927   9.160  14.251  13.395
31363SOL    HW195928   9.214  14.260  13.473
31363SOL    HW295929   9.222  14.234  13.324
31364SOL     OW95930   7.044  10.509   2.872
31364SOL    HW195931   7.042  10.507   2.968
31364SOL    HW295932   7.131  10.477   2.849
31365SOL     OW95933  11.174   2.830  14.685
31365SOL    HW195934  11.246   2.864  14.736
31365SOL    HW295935  11.168   2.888  14.609
31366SOL     OW95936   0.837   0.846  14.443
31366SOL    HW195937   0.821   0.940  14.455
31366SOL    HW295938   0.926   0.833  14.474
31367SOL     OW95939   6.554   4.942   5.740
31367SOL    HW195940   6.546   4.851   5.711
31367SOL    HW295941   6.537   4.939   5.834
31368SOL     OW95942   8.041   8.543   9.298
31368SOL    HW195943   8.085   8.462   9.271
31368SOL    HW295944   8.099   8.613   9.270
31369SOL     OW95945   2.663  13.946   9.773
31369SOL    HW195946   2.621  14.027   9.802
31369SOL    HW295947   2.747  13.946   9.817
31370SOL     OW95948   4.496   4.002   7.303
31370SOL    HW195949   4.528   3.952   7.379
31370SOL    HW295950   4.484   3.936   7.235
31371SOL     OW95951   5.285   7.871  10.434
31371SOL    HW195952   5.254   7.818  10.360
31371SOL    HW295953   5.380   7.872  10.424
31372SOL     OW95954   9.960   2.005   2.197
31372SOL    HW195955   9.997   2.049   2.120
31372SOL    HW295956  10.031   2.003   2.261
31373SOL     OW95957   2.603   7.572  13.269
31373SOL    HW195958   2.527   7.523  13.299
31373SOL    HW295959   2.642   7.608  13.349
31374SOL     OW95960  11.519  12.522   6.464
31374SOL    HW195961  11.519  12.537   6.369
31374SOL    HW295962  11.428  12.535   6.490
31375SOL     OW95963   3.214   6.991   8.062
31375SOL    HW195964   3.234   7.040   8.141
31375SOL    HW295965   3.297   6.991   8.012
31376SOL     OW95966  13.380   3.336  10.299
31376SOL    HW195967  13.323   3.309  10.370
31376SOL    HW295968  13.334   3.408  10.256
31377SOL     OW95969   2.784   1.938   9.581
31377SOL    HW195970   2.692   1.914   9.582
31377SOL    HW295971   2.788   2.014   9.523
31378SOL     OW95972   4.056   8.065  14.334
31378SOL    HW195973   4.095   8.142  14.292
31378SOL    HW295974   4.063   8.084  14.428
31379SOL     OW95975  11.412   6.649   0.008
31379SOL    HW195976  11.506   6.662   0.024
31379SOL    HW295977  11.382   6.602   0.086
31380SOL     OW95978   0.387  12.232   6.925
31380SOL    HW195979   0.407  12.314   6.971
31380SOL    HW295980   0.400  12.165   6.992
31381SOL     OW95981  10.583   4.199   3.584
31381SOL    HW195982  10.654   4.136   3.579
31381SOL    HW295983  10.602   4.252   3.661
31382SOL     OW95984   8.133   4.674  10.259
31382SOL    HW195985   8.171   4.687  10.172
31382SOL    HW295986   8.138   4.579  10.273
31383SOL     OW95987   5.033   1.688   0.811
31383SOL    HW195988   5.095   1.707   0.741
31383SOL    HW295989   5.065   1.737   0.887
31384SOL     OW95990   5.841  11.650   3.626
31384SOL    HW195991   5.798  11.724   3.584
31384SOL    HW295992   5.778  11.620   3.692
31385SOL     OW95993   7.914   5.079   7.597
31385SOL    HW195994   7.990   5.080   7.655
31385SOL    HW295995   7.929   5.005   7.538
31386SOL     OW95996  10.289   6.575   0.936
31386SOL    HW195997  10.202   6.599   0.968
31386SOL    HW295998  10.329   6.528   1.009
31387SOL     OW95999   1.606  11.659   6.167
31387SOL    HW196000   1.610  11.565   6.182
31387SOL    HW296001   1.690  11.692   6.198
31388SOL     OW96002  14.229   7.753  12.234
31388SOL    HW196003  14.301   7.788  12.182
31388SOL    HW296004  14.252   7.662  12.249
31389SOL     OW96005   1.919   2.144  13.873
31389SOL    HW196006   1.929   2.087  13.948
31389SOL    HW296007   1.920   2.085  13.797
31390SOL     OW96008   6.820   9.240   0.787
31390SOL    HW196009   6.743   9.245   0.843
31390SOL    HW296010   6.787   9.208   0.703
31391SOL     OW96011  11.043   4.133  10.134
31391SOL    HW196012  10.966   4.083  10.110
31391SOL    HW296013  11.085   4.154  10.051
31392SOL     OW96014   5.234  13.190   9.349
31392SOL    HW196015   5.329  13.193   9.341
31392SOL    HW296016   5.210  13.276   9.383
31393SOL     OW96017  12.132  13.154   7.005
31393SOL    HW196018  12.162  13.206   7.079
31393SOL    HW296019  12.212  13.123   6.962
31394SOL     OW96020  13.361   0.784  13.354
31394SOL    HW196021  13.416   0.736  13.292
31394SOL    HW296022  13.408   0.777  13.437
31395SOL     OW96023  13.228  13.877  13.472
31395SOL    HW196024  13.179  13.955  13.498
31395SOL    HW296025  13.237  13.826  13.553
31396SOL     OW96026   1.874   6.597   3.196
31396SOL    HW196027   1.911   6.576   3.110
31396SOL    HW296028   1.806   6.531   3.210
31397SOL     OW96029   3.364   3.683   7.221
31397SOL    HW196030   3.349   3.589   7.213
31397SOL    HW296031   3.414   3.693   7.302
31398SOL     OW96032  11.942   1.695   6.309
31398SOL    HW196033  11.881   1.649   6.368
31398SOL    HW296034  11.939   1.645   6.228
31399SOL     OW96035  11.897   1.007   5.213
31399SOL    HW196036  11.891   0.918   5.177
31399SOL    HW296037  11.985   1.010   5.252
31400SOL     OW96038   5.167  13.324   7.657
31400SOL    HW196039   5.203  13.258   7.716
31400SOL    HW296040   5.083  13.347   7.695
31401SOL     OW96041  11.652   2.738   4.270
31401SOL    HW196042  11.676   2.794   4.197
31401SOL    HW296043  11.625   2.655   4.230
31402SOL     OW96044   7.814   2.592   6.205
31402SOL    HW196045   7.857   2.676   6.215
31402SOL    HW296046   7.783   2.591   6.114
31403SOL     OW96047  14.485  10.072   3.382
31403SOL    HW196048  14.394  10.068   3.356
31403SOL    HW296049  14.503  10.166   3.393
31404SOL     OW96050   8.301   7.318   9.251
31404SOL    HW196051   8.267   7.229   9.263
31404SOL    HW296052   8.227   7.375   9.270
31405SOL     OW96053   6.477   0.390  14.298
31405SOL    HW196054   6.507   0.439  14.222
31405SOL    HW296055   6.433   0.313  14.261
31406SOL     OW96056  10.914  12.212   0.979
31406SOL    HW196057  10.923  12.253   1.064
31406SOL    HW296058  10.849  12.265   0.933
31407SOL     OW96059   5.440   9.783  12.286
31407SOL    HW196060   5.479   9.813  12.204
31407SOL    HW296061   5.401   9.698  12.263
31408SOL     OW96062   2.695  10.263  14.555
31408SOL    HW196063   2.711  10.198  14.487
31408SOL    HW296064   2.600  10.260  14.569
31409SOL     OW96065  10.357  14.596   2.908
31409SOL    HW196066  10.429  14.585   2.845
31409SOL    HW296067  10.341  14.508   2.942
31410SOL     OW96068   7.619  12.174   3.810
31410SOL    HW196069   7.663  12.138   3.887
31410SOL    HW296070   7.615  12.269   3.828
31411SOL     OW96071  10.772   2.515   8.345
31411SOL    HW196072  10.742   2.426   8.332
31411SOL    HW296073  10.787   2.522   8.440
31412SOL     OW96074   7.535   8.593  13.761
31412SOL    HW196075   7.462   8.627  13.813
31412SOL    HW296076   7.522   8.631  13.674
31413SOL     OW96077   4.486   3.247  12.476
31413SOL    HW196078   4.529   3.333  12.481
31413SOL    HW296079   4.425   3.256  12.402
31414SOL     OW96080   6.722   8.936  13.378
31414SOL    HW196081   6.638   8.954  13.338
31414SOL    HW296082   6.777   9.011  13.356
31415SOL     OW96083  12.692   1.863   7.880
31415SOL    HW196084  12.598   1.866   7.897
31415SOL    HW296085  12.733   1.873   7.966
31416SOL     OW96086  12.782   7.016   4.856
31416SOL    HW196087  12.762   6.996   4.764
31416SOL    HW296088  12.754   7.107   4.867
31417SOL     OW96089   3.691  10.819  14.578
31417SOL    HW196090   3.638  10.874  14.520
31417SOL    HW296091   3.767  10.873  14.598
31418SOL     OW96092   3.946   8.239  12.186
31418SOL    HW196093   3.922   8.331  12.197
31418SOL    HW296094   3.862   8.192  12.182
31419SOL     OW96095   2.685   6.305   6.162
31419SOL    HW196096   2.661   6.361   6.236
31419SOL    HW296097   2.604   6.296   6.112
31420SOL     OW96098  13.455   9.437  14.121
31420SOL    HW196099  13.510   9.487  14.062
31420SOL    HW296100  13.387   9.399  14.065
31421SOL     OW96101  11.294   2.088   1.531
31421SOL    HW196102  11.294   2.135   1.614
31421SOL    HW296103  11.382   2.103   1.495
31422SOL     OW96104   3.795  11.561  13.357
31422SOL    HW196105   3.885  11.530  13.366
31422SOL    HW296106   3.744  11.482  13.346
31423SOL     OW96107   7.183  14.015   9.662
31423SOL    HW196108   7.272  13.992   9.635
31423SOL    HW296109   7.153  14.076   9.595
31424SOL     OW96110  13.960   8.601  10.748
31424SOL    HW196111  14.031   8.584  10.686
31424SOL    HW296112  13.902   8.662  10.701
31425SOL     OW96113   8.985   1.725   9.706
31425SOL    HW196114   9.030   1.682   9.633
31425SOL    HW296115   9.028   1.689   9.784
31426SOL     OW96116   3.668   9.820   5.467
31426SOL    HW196117   3.631   9.800   5.553
31426SOL    HW296118   3.762   9.804   5.477
31427SOL     OW96119   8.762   1.123  12.873
31427SOL    HW196120   8.677   1.163  12.852
31427SOL    HW296121   8.746   1.029  12.868
31428SOL     OW96122   7.247   9.283   5.412
31428SOL    HW196123   7.255   9.378   5.405
31428SOL    HW296124   7.214   9.268   5.501
31429SOL     OW96125  13.305  11.080   2.901
31429SOL    HW196126  13.232  11.103   2.843
31429SOL    HW296127  13.264  11.026   2.969
31430SOL     OW96128   1.698   2.284   6.747
31430SOL    HW196129   1.680   2.276   6.841
31430SOL    HW296130   1.684   2.376   6.727
31431SOL     OW96131   1.589   2.128   1.370
31431SOL    HW196132   1.524   2.101   1.305
31431SOL    HW296133   1.549   2.106   1.454
31432SOL     OW96134   4.384   0.815   2.483
31432SOL    HW196135   4.440   0.757   2.534
31432SOL    HW296136   4.311   0.760   2.456
31433SOL     OW96137   7.471  11.538   4.891
31433SOL    HW196138   7.539  11.496   4.839
31433SOL    HW296139   7.440  11.470   4.951
31434SOL     OW96140  14.603   0.358  12.155
31434SOL    HW196141  14.551   0.316  12.222
31434SOL    HW296142  14.567   0.446  12.147
31435SOL     OW96143  12.853   9.287  13.685
31435SOL    HW196144  12.891   9.364  13.729
31435SOL    HW296145  12.859   9.307  13.592
31436SOL     OW96146   4.334   0.944  14.280
31436SOL    HW196147   4.336   0.903  14.366
31436SOL    HW296148   4.258   1.002  14.283
31437SOL     OW96149   6.624   6.012   3.407
31437SOL    HW196150   6.620   6.099   3.445
31437SOL    HW296151   6.549   5.966   3.443
31438SOL     OW96152   9.966   0.244  11.198
31438SOL    HW196153   9.898   0.296  11.242
31438SOL    HW296154  10.020   0.210  11.269
31439SOL     OW96155   9.538  13.696   3.623
31439SOL    HW196156   9.624  13.653   3.625
31439SOL    HW296157   9.545  13.760   3.553
31440SOL     OW96158   0.933   4.957  10.603
31440SOL    HW196159   1.003   4.943  10.540
31440SOL    HW296160   0.914   4.869  10.638
31441SOL     OW96161   6.765   9.514   5.911
31441SOL    HW196162   6.797   9.600   5.937
31441SOL    HW296163   6.741   9.525   5.819
31442SOL     OW96164  11.982   2.620  13.427
31442SOL    HW196165  11.940   2.706  13.420
31442SOL    HW296166  11.965   2.579  13.342
31443SOL     OW96167   7.199   7.693   7.995
31443SOL    HW196168   7.267   7.757   8.016
31443SOL    HW296169   7.155   7.728   7.917
31444SOL     OW96170   3.111   3.282   3.265
31444SOL    HW196171   3.156   3.241   3.192
31444SOL    HW296172   3.024   3.242   3.265
31445SOL     OW96173   8.346   5.448  11.054
31445SOL    HW196174   8.400   5.398  10.993
31445SOL    HW296175   8.365   5.539  11.034
31446SOL     OW96176   2.969  13.405   8.265
31446SOL    HW196177   2.940  13.424   8.354
31446SOL    HW296178   3.064  13.416   8.269
31447SOL     OW96179   6.168   0.402   3.246
31447SOL    HW196180   6.233   0.417   3.177
31447SOL    HW296181   6.102   0.347   3.205
31448SOL     OW96182   2.979  10.050   4.419
31448SOL    HW196183   2.975  10.125   4.360
31448SOL    HW296184   2.999  10.087   4.504
31449SOL     OW96185   1.455  13.573  14.820
31449SOL    HW196186   1.481  13.547  14.731
31449SOL    HW296187   1.487  13.662  14.830
31450SOL     OW96188   9.395   1.175  13.737
31450SOL    HW196189   9.410   1.268  13.718
31450SOL    HW296190   9.380   1.172  13.832
31451SOL     OW96191   4.569   9.948   9.972
31451SOL    HW196192   4.649   9.963   9.922
31451SOL    HW296193   4.596   9.955  10.064
31452SOL     OW96194   1.323   2.463   7.971
31452SOL    HW196195   1.360   2.385   8.014
31452SOL    HW296196   1.384   2.483   7.901
31453SOL     OW96197   6.047   8.646   2.173
31453SOL    HW196198   6.101   8.726   2.174
31453SOL    HW296199   5.959   8.677   2.149
31454SOL     OW96200   9.232   3.479   7.357
31454SOL    HW196201   9.164   3.484   7.291
31454SOL    HW296202   9.277   3.563   7.352
31455SOL     OW96203  11.695   3.413   4.999
31455SOL    HW196204  11.749   3.346   5.040
31455SOL    HW296205  11.723   3.416   4.908
31456SOL     OW96206  11.550   2.210  14.603
31456SOL    HW196207  11.559   2.281  14.539
31456SOL    HW296208  11.456   2.189  14.601
31457SOL     OW96209   3.669  12.694  14.291
31457SOL    HW196210   3.599  12.681  14.355
31457SOL    HW296211   3.626  12.685  14.206
31458SOL     OW96212   5.231   4.746   5.288
31458SOL    HW196213   5.239   4.800   5.367
31458SOL    HW296214   5.155   4.691   5.304
31459SOL     OW96215   8.409   4.050  12.005
31459SOL    HW196216   8.366   3.994  11.940
31459SOL    HW296217   8.448   3.988  12.067
31460SOL     OW96218  11.035   9.220   0.821
31460SOL    HW196219  10.973   9.291   0.808
31460SOL    HW296220  11.039   9.176   0.736
31461SOL     OW96221   0.100   4.883   6.128
31461SOL    HW196222   0.074   4.791   6.130
31461SOL    HW296223   0.098   4.911   6.219
31462SOL     OW96224  10.998   6.271  11.701
31462SOL    HW196225  10.984   6.225  11.783
31462SOL    HW296226  10.920   6.326  11.690
31463SOL     OW96227   9.715   3.902   3.354
31463SOL    HW196228   9.781   3.950   3.306
31463SOL    HW296229   9.677   3.966   3.414
31464SOL     OW96230  12.425   7.283   1.560
31464SOL    HW196231  12.356   7.225   1.526
31464SOL    HW296232  12.436   7.349   1.491
31465SOL     OW96233   0.370   8.612   9.713
31465SOL    HW196234   0.430   8.560   9.659
31465SOL    HW296235   0.417   8.693   9.731
31466SOL     OW96236  10.701   4.260  10.967
31466SOL    HW196237  10.755   4.305  10.902
31466SOL    HW296238  10.742   4.281  11.051
31467SOL     OW96239   7.999   1.050   5.494
31467SOL    HW196240   8.043   1.061   5.410
31467SOL    HW296241   8.042   1.112   5.553
31468SOL     OW96242   0.792   5.249   7.301
31468SOL    HW196243   0.769   5.169   7.255
31468SOL    HW296244   0.856   5.222   7.366
31469SOL     OW96245  11.362   9.567   9.730
31469SOL    HW196246  11.456   9.568   9.746
31469SOL    HW296247  11.331   9.652   9.760
31470SOL     OW96248   3.910  13.780  10.284
31470SOL    HW196249   3.818  13.776  10.259
31470SOL    HW296250   3.914  13.735  10.368
31471SOL     OW96251   4.821   1.009   6.221
31471SOL    HW196252   4.858   1.096   6.203
31471SOL    HW296253   4.897   0.951   6.227
31472SOL     OW96254  12.275   8.551   7.121
31472SOL    HW196255  12.239   8.568   7.208
31472SOL    HW296256  12.370   8.547   7.134
31473SOL     OW96257   4.598   3.470  13.942
31473SOL    HW196258   4.581   3.433  13.856
31473SOL    HW296259   4.573   3.400  14.003
31474SOL     OW96260   7.523  11.547   6.113
31474SOL    HW196261   7.561  11.467   6.150
31474SOL    HW296262   7.559  11.552   6.025
31475SOL     OW96263  12.053   2.556   2.036
31475SOL    HW196264  12.026   2.625   2.097
31475SOL    HW296265  12.116   2.504   2.085
31476SOL     OW96266   3.164   6.226   4.776
31476SOL    HW196267   3.236   6.163   4.779
31476SOL    HW296268   3.088   6.174   4.748
31477SOL     OW96269  13.867  13.484   6.240
31477SOL    HW196270  13.775  13.459   6.241
31477SOL    HW296271  13.868  13.573   6.205
31478SOL     OW96272   5.482  14.717   6.290
31478SOL    HW196273   5.417  14.683   6.229
31478SOL    HW296274   5.463  14.811   6.296
31479SOL     OW96275   8.212   8.318   0.348
31479SOL    HW196276   8.116   8.322   0.344
31479SOL    HW296277   8.231   8.253   0.415
31480SOL     OW96278   7.836   4.811   0.363
31480SOL    HW196279   7.808   4.860   0.285
31480SOL    HW296280   7.768   4.831   0.428
31481SOL     OW96281   8.393  13.359  11.218
31481SOL    HW196282   8.358  13.352  11.129
31481SOL    HW296283   8.351  13.288  11.266
31482SOL     OW96284   7.841  12.049  10.748
31482SOL    HW196285   7.855  12.142  10.730
31482SOL    HW296286   7.842  12.043  10.844
31483SOL     OW96287  12.939   3.135  14.859
31483SOL    HW196288  13.008   3.125   0.048
31483SOL    HW296289  12.902   3.048  14.849
31484SOL     OW96290   9.514   8.876  13.845
31484SOL    HW196291   9.588   8.836  13.799
31484SOL    HW296292   9.474   8.934  13.780
31485SOL     OW96293   8.476  14.873   2.270
31485SOL    HW196294   8.489  14.780   2.290
31485SOL    HW296295   8.531   0.013   2.194
31486SOL     OW96296   5.195   8.905   6.869
31486SOL    HW196297   5.239   8.822   6.890
31486SOL    HW296298   5.108   8.896   6.909
31487SOL     OW96299   7.618   9.216   3.273
31487SOL    HW196300   7.675   9.166   3.332
31487SOL    HW296301   7.551   9.253   3.331
31488SOL     OW96302   7.440   2.313   3.969
31488SOL    HW196303   7.346   2.305   3.957
31488SOL    HW296304   7.467   2.381   3.906
31489SOL     OW96305  10.679   5.058   9.864
31489SOL    HW196306  10.715   5.039   9.950
31489SOL    HW296307  10.736   5.011   9.803
31490SOL     OW96308   0.833   5.728  12.781
31490SOL    HW196309   0.928   5.713  12.778
31490SOL    HW296310   0.818   5.804  12.725
31491SOL     OW96311   9.813   8.775   0.570
31491SOL    HW196312   9.892   8.741   0.527
31491SOL    HW296313   9.770   8.827   0.502
31492SOL     OW96314   0.512   5.700   6.083
31492SOL    HW196315   0.416   5.702   6.091
31492SOL    HW296316   0.543   5.727   6.169
31493SOL     OW96317   6.402   0.999  13.609
31493SOL    HW196318   6.349   1.026  13.684
31493SOL    HW296319   6.339   0.962  13.547
31494SOL     OW96320   1.783  13.626   2.870
31494SOL    HW196321   1.798  13.704   2.924
31494SOL    HW296322   1.761  13.661   2.783
31495SOL     OW96323   1.328  12.111  13.493
31495SOL    HW196324   1.344  12.123  13.399
31495SOL    HW296325   1.308  12.198  13.525
31496SOL     OW96326   9.750  12.233   4.154
31496SOL    HW196327   9.806  12.305   4.183
31496SOL    HW296328   9.804  12.155   4.162
31497SOL     OW96329   2.840   7.645   2.840
31497SOL    HW196330   2.922   7.693   2.850
31497SOL    HW296331   2.826   7.605   2.926
31498SOL     OW96332  10.116   0.872   8.691
31498SOL    HW196333  10.100   0.960   8.658
31498SOL    HW296334  10.199   0.879   8.738
31499SOL     OW96335   6.917   5.222   4.546
31499SOL    HW196336   6.991   5.283   4.537
31499SOL    HW296337   6.948   5.141   4.506
31500SOL     OW96338   6.978   7.676  12.076
31500SOL    HW196339   7.006   7.664  12.167
31500SOL    HW296340   6.972   7.771  12.066
31501SOL     OW96341   4.038  13.215   5.536
31501SOL    HW196342   3.953  13.185   5.567
31501SOL    HW296343   4.100  13.148   5.565
31502SOL     OW96344  10.234  12.920   0.150
31502SOL    HW196345  10.267  12.858   0.216
31502SOL    HW296346  10.291  12.906   0.074
31503SOL     OW96347   0.181   8.635   3.372
31503SOL    HW196348   0.203   8.658   3.282
31503SOL    HW296349   0.117   8.701   3.399
31504SOL     OW96350   3.137   9.618  12.037
31504SOL    HW196351   3.229   9.605  12.057
31504SOL    HW296352   3.136   9.647  11.946
31505SOL     OW96353  14.230   2.692   1.983
31505SOL    HW196354  14.147   2.721   1.944
31505SOL    HW296355  14.204   2.626   2.048
31506SOL     OW96356  14.256  11.610   4.708
31506SOL    HW196357  14.246  11.677   4.639
31506SOL    HW296358  14.294  11.657   4.782
31507SOL     OW96359  12.221   6.209   1.641
31507SOL    HW196360  12.284   6.137   1.648
31507SOL    HW296361  12.228   6.255   1.725
31508SOL     OW96362  13.888   7.213   6.079
31508SOL    HW196363  13.793   7.206   6.090
31508SOL    HW296364  13.924   7.165   6.154
31509SOL     OW96365   1.673  12.657   0.867
31509SOL    HW196366   1.660  12.745   0.830
31509SOL    HW296367   1.606  12.604   0.825
31510SOL     OW96368   6.300  13.374   1.493
31510SOL    HW196369   6.374  13.433   1.479
31510SOL    HW296370   6.265  13.399   1.579
31511SOL     OW96371   4.931  12.917   0.198
31511SOL    HW196372   4.928  12.984   0.129
31511SOL    HW296373   5.022  12.888   0.200
31512SOL     OW96374   7.269   4.395   0.933
31512SOL    HW196375   7.179   4.376   0.961
31512SOL    HW296376   7.309   4.437   1.010
31513SOL     OW96377   5.310   4.260   6.547
31513SOL    HW196378   5.246   4.196   6.578
31513SOL    HW296379   5.390   4.240   6.596
31514SOL     OW96380   7.989   0.997   7.305
31514SOL    HW196381   7.979   1.092   7.303
31514SOL    HW296382   8.080   0.984   7.332
31515SOL     OW96383   8.448   2.961   6.731
31515SOL    HW196384   8.536   2.981   6.698
31515SOL    HW296385   8.453   2.869   6.759
31516SOL     OW96386   1.223   5.821   8.931
31516SOL    HW196387   1.128   5.830   8.941
31516SOL    HW296388   1.260   5.870   9.004
31517SOL     OW96389   9.199   5.282   6.718
31517SOL    HW196390   9.265   5.252   6.656
31517SOL    HW296391   9.195   5.377   6.705
31518SOL     OW96392  10.935   1.005  13.326
31518SOL    HW196393  10.905   1.064  13.395
31518SOL    HW296394  10.891   0.922  13.345
31519SOL     OW96395   1.492   9.484   4.749
31519SOL    HW196396   1.561   9.417   4.743
31519SOL    HW296397   1.411   9.437   4.735
31520SOL     OW96398   0.263   5.046  10.739
31520SOL    HW196399   0.305   5.122  10.779
31520SOL    HW296400   0.181   5.079  10.704
31521SOL     OW96401  14.353  11.316   6.788
31521SOL    HW196402  14.301  11.288   6.864
31521SOL    HW296403  14.421  11.249   6.780
31522SOL     OW96404  11.726   6.191   6.596
31522SOL    HW196405  11.807   6.170   6.551
31522SOL    HW296406  11.746   6.267   6.650
31523SOL     OW96407  11.694   5.229   4.419
31523SOL    HW196408  11.711   5.290   4.347
31523SOL    HW296409  11.780   5.209   4.455
31524SOL     OW96410  11.242   6.459   7.770
31524SOL    HW196411  11.323   6.449   7.820
31524SOL    HW296412  11.248   6.546   7.731
31525SOL     OW96413   8.264   3.916  13.950
31525SOL    HW196414   8.339   3.963  13.988
31525SOL    HW296415   8.231   3.975  13.882
31526SOL     OW96416  13.641  13.810   7.651
31526SOL    HW196417  13.711  13.750   7.626
31526SOL    HW296418  13.577  13.753   7.695
31527SOL     OW96419  13.160   2.447   5.883
31527SOL    HW196420  13.226   2.381   5.863
31527SOL    HW296421  13.167   2.459   5.978
31528SOL     OW96422   9.133  11.693  14.165
31528SOL    HW196423   9.119  11.649  14.248
31528SOL    HW296424   9.227  11.683  14.148
31529SOL     OW96425   6.805   0.081   1.022
31529SOL    HW196426   6.845   0.148   0.967
31529SOL    HW296427   6.763   0.022   0.960
31530SOL     OW96428   0.791   1.112   4.915
31530SOL    HW196429   0.873   1.136   4.959
31530SOL    HW296430   0.815   1.105   4.822
31531SOL     OW96431   7.811   1.997   9.006
31531SOL    HW196432   7.811   2.064   9.074
31531SOL    HW296433   7.766   2.037   8.932
31532SOL     OW96434  13.858   8.652   1.608
31532SOL    HW196435  13.866   8.589   1.679
31532SOL    HW296436  13.837   8.600   1.531
31533SOL     OW96437   2.488  12.539   4.281
31533SOL    HW196438   2.458  12.609   4.339
31533SOL    HW296439   2.408  12.488   4.262
31534SOL     OW96440  11.954   4.428   6.251
31534SOL    HW196441  12.007   4.408   6.328
31534SOL    HW296442  11.930   4.520   6.261
31535SOL     OW96443   7.385   7.861   2.750
31535SOL    HW196444   7.414   7.809   2.675
31535SOL    HW296445   7.458   7.858   2.811
31536SOL     OW96446  12.862   2.110  13.359
31536SOL    HW196447  12.785   2.106  13.415
31536SOL    HW296448  12.930   2.061  13.406
31537SOL     OW96449   8.555   5.246  10.969
31537SOL    HW196450   8.627   5.284  11.020
31537SOL    HW296451   8.595   5.223  10.885
31538SOL     OW96452   9.764  13.928  11.962
31538SOL    HW196453   9.679  13.969  11.943
31538SOL    HW296454   9.756  13.839  11.929
31539SOL     OW96455   3.801   4.985  14.628
31539SOL    HW196456   3.778   5.042  14.554
31539SOL    HW296457   3.888   4.952  14.606
31540SOL     OW96458   7.585  10.138   1.080
31540SOL    HW196459   7.516  10.124   1.015
31540SOL    HW296460   7.621  10.224   1.058
31541SOL     OW96461   3.258   0.068   7.689
31541SOL    HW196462   3.168   0.035   7.681
31541SOL    HW296463   3.276   0.109   7.604
31542SOL     OW96464  10.692  12.328  10.011
31542SOL    HW196465  10.645  12.339  10.094
31542SOL    HW296466  10.741  12.246  10.022
31543SOL     OW96467   9.162  13.780   3.639
31543SOL    HW196468   9.161  13.773   3.544
31543SOL    HW296469   9.213  13.704   3.668
31544SOL     OW96470   3.702  10.871   4.253
31544SOL    HW196471   3.690  10.858   4.347
31544SOL    HW296472   3.648  10.802   4.212
31545SOL     OW96473   2.554   9.229   6.258
31545SOL    HW196474   2.491   9.261   6.194
31545SOL    HW296475   2.639   9.242   6.216
31546SOL     OW96476   8.618  13.547   3.835
31546SOL    HW196477   8.622  13.643   3.832
31546SOL    HW296478   8.699  13.521   3.878
31547SOL     OW96479   3.552   6.771   7.694
31547SOL    HW196480   3.556   6.788   7.600
31547SOL    HW296481   3.640   6.744   7.718
31548SOL     OW96482   2.972   0.416   8.183
31548SOL    HW196483   2.936   0.428   8.270
31548SOL    HW296484   2.998   0.503   8.154
31549SOL     OW96485   9.542   9.579  14.154
31549SOL    HW196486   9.473   9.518  14.128
31549SOL    HW296487   9.622   9.542  14.117
31550SOL     OW96488   3.725   2.360   3.646
31550SOL    HW196489   3.745   2.396   3.560
31550SOL    HW296490   3.710   2.267   3.630
31551SOL     OW96491   4.702   5.663  11.389
31551SOL    HW196492   4.699   5.596  11.457
31551SOL    HW296493   4.746   5.737  11.431
31552SOL     OW96494   2.599  10.674   3.735
31552SOL    HW196495   2.595  10.742   3.802
31552SOL    HW296496   2.586  10.593   3.782
31553SOL     OW96497   1.369  11.545   2.877
31553SOL    HW196498   1.369  11.602   2.800
31553SOL    HW296499   1.280  11.554   2.913
31554SOL     OW96500   8.014   8.071   5.745
31554SOL    HW196501   8.050   8.101   5.661
31554SOL    HW296502   7.949   8.005   5.721
31555SOL     OW96503  10.822   4.502   5.603
31555SOL    HW196504  10.872   4.572   5.560
31555SOL    HW296505  10.756   4.477   5.539
31556SOL     OW96506   4.608   7.497   5.706
31556SOL    HW196507   4.664   7.564   5.668
31556SOL    HW296508   4.535   7.545   5.744
31557SOL     OW96509  12.181   2.113   5.222
31557SOL    HW196510  12.096   2.124   5.265
31557SOL    HW296511  12.224   2.198   5.232
31558SOL     OW96512   2.887   0.137  10.785
31558SOL    HW196513   2.805   0.104  10.747
31558SOL    HW296514   2.951   0.130  10.714
31559SOL     OW96515   8.608  13.249  13.636
31559SOL    HW196516   8.601  13.327  13.580
31559SOL    HW296517   8.517  13.224  13.654
31560SOL     OW96518   5.398   0.112   9.816
31560SOL    HW196519   5.362   0.040   9.764
31560SOL    HW296520   5.485   0.081   9.843
31561SOL     OW96521  14.844  11.872  12.887
31561SOL    HW196522   0.057  11.838  12.875
31561SOL    HW296523  14.850  11.964  12.866
31562SOL     OW96524   0.729  11.058   9.086
31562SOL    HW196525   0.684  11.016   9.013
31562SOL    HW296526   0.687  11.144   9.094
31563SOL     OW96527  13.527  11.632  13.885
31563SOL    HW196528  13.436  11.620  13.912
31563SOL    HW296529  13.574  11.646  13.967
31564SOL     OW96530  14.441  11.003  13.170
31564SOL    HW196531  14.503  10.952  13.118
31564SOL    HW296532  14.450  10.969  13.259
31565SOL     OW96533  13.434   4.221  14.295
31565SOL    HW196534  13.396   4.199  14.380
31565SOL    HW296535  13.513   4.167  14.290
31566SOL     OW96536   7.163   6.219   1.253
31566SOL    HW196537   7.231   6.242   1.190
31566SOL    HW296538   7.105   6.161   1.204
31567SOL     OW96539   4.520   7.453   4.764
31567SOL    HW196540   4.570   7.375   4.787
31567SOL    HW296541   4.585   7.524   4.762
31568SOL     OW96542   9.741   8.956   7.502
31568SOL    HW196543   9.652   8.939   7.472
31568SOL    HW296544   9.730   9.018   7.574
31569SOL     OW96545   9.018   1.403   3.257
31569SOL    HW196546   8.967   1.468   3.209
31569SOL    HW296547   8.963   1.325   3.259
31570SOL     OW96548   6.522  12.716   1.661
31570SOL    HW196549   6.549  12.801   1.695
31570SOL    HW296550   6.572  12.704   1.581
31571SOL     OW96551  13.147  14.869   8.516
31571SOL    HW196552  13.140  14.813   8.439
31571SOL    HW296553  13.097  14.824   8.584
31572SOL     OW96554  12.952   4.700  14.357
31572SOL    HW196555  12.994   4.633  14.411
31572SOL    HW296556  12.886   4.739  14.415
31573SOL     OW96557   7.240  11.049  10.080
31573SOL    HW196558   7.241  11.143  10.068
31573SOL    HW296559   7.174  11.034  10.148
31574SOL     OW96560   5.205  13.837   4.928
31574SOL    HW196561   5.283  13.892   4.930
31574SOL    HW296562   5.234  13.756   4.886
31575SOL     OW96563   7.717   1.210   5.715
31575SOL    HW196564   7.755   1.151   5.780
31575SOL    HW296565   7.790   1.264   5.686
31576SOL     OW96566   5.963  10.049   3.128
31576SOL    HW196567   5.957  10.136   3.169
31576SOL    HW296568   5.934   9.988   3.196
31577SOL     OW96569   6.190  13.473  12.429
31577SOL    HW196570   6.144  13.433  12.355
31577SOL    HW296571   6.181  13.409  12.499
31578SOL     OW96572   7.769  11.099   7.699
31578SOL    HW196573   7.743  11.158   7.628
31578SOL    HW296574   7.760  11.012   7.661
31579SOL     OW96575  13.738   1.071   3.115
31579SOL    HW196576  13.826   1.035   3.118
31579SOL    HW296577  13.730   1.122   3.196
31580SOL     OW96578   5.337  13.103   4.585
31580SOL    HW196579   5.337  13.099   4.681
31580SOL    HW296580   5.424  13.072   4.560
31581SOL     OW96581   3.937   2.597  12.022
31581SOL    HW196582   3.962   2.630  12.109
31581SOL    HW296583   3.880   2.664  11.986
31582SOL     OW96584   0.283   8.043  10.465
31582SOL    HW196585   0.362   8.035  10.410
31582SOL    HW296586   0.254   7.953  10.478
31583SOL     OW96587   3.407   9.955   7.763
31583SOL    HW196588   3.349   9.889   7.802
31583SOL    HW296589   3.416  10.022   7.831
31584SOL     OW96590   6.131   3.960  12.187
31584SOL    HW196591   6.151   3.871  12.157
31584SOL    HW296592   6.201   3.979  12.250
31585SOL     OW96593   1.906  11.255   3.500
31585SOL    HW196594   1.936  11.233   3.412
31585SOL    HW296595   1.931  11.346   3.513
31586SOL     OW96596  12.618   1.282  14.640
31586SOL    HW196597  12.706   1.269  14.673
31586SOL    HW296598  12.572   1.200  14.658
31587SOL     OW96599  13.084   8.148   5.637
31587SOL    HW196600  13.163   8.109   5.674
31587SOL    HW296601  13.077   8.110   5.549
31588SOL     OW96602  14.266   9.055  14.576
31588SOL    HW196603  14.315   8.973  14.581
31588SOL    HW296604  14.203   9.050  14.648
31589SOL     OW96605  12.697   4.997   1.476
31589SOL    HW196606  12.774   4.959   1.518
31589SOL    HW296607  12.704   4.972   1.384
31590SOL     OW96608   6.681   7.156  11.047
31590SOL    HW196609   6.654   7.099  10.975
31590SOL    HW296610   6.616   7.226  11.047
31591SOL     OW96611   8.169  13.315  10.696
31591SOL    HW196612   8.096  13.273  10.741
31591SOL    HW296613   8.211  13.244  10.647
31592SOL     OW96614  14.454   8.229   1.997
31592SOL    HW196615  14.455   8.317   1.959
31592SOL    HW296616  14.543   8.196   1.984
31593SOL     OW96617   5.903   5.555   1.745
31593SOL    HW196618   5.928   5.473   1.704
31593SOL    HW296619   5.820   5.536   1.789
31594SOL     OW96620   5.347   1.253   7.068
31594SOL    HW196621   5.287   1.286   7.002
31594SOL    HW296622   5.360   1.327   7.128
31595SOL     OW96623   0.828   8.740   5.517
31595SOL    HW196624   0.745   8.695   5.536
31595SOL    HW296625   0.876   8.740   5.600
31596SOL     OW96626   1.515   6.340   9.466
31596SOL    HW196627   1.501   6.295   9.383
31596SOL    HW296628   1.594   6.393   9.450
31597SOL     OW96629   1.115   1.333   8.196
31597SOL    HW196630   1.059   1.394   8.244
31597SOL    HW296631   1.200   1.378   8.190
31598SOL     OW96632   5.261  13.996  10.319
31598SOL    HW196633   5.227  14.075  10.360
31598SOL    HW296634   5.183  13.952  10.284
31599SOL     OW96635  10.110   6.874  13.794
31599SOL    HW196636  10.117   6.784  13.762
31599SOL    HW296637  10.201   6.900  13.811
31600SOL     OW96638   9.464  13.489   4.373
31600SOL    HW196639   9.506  13.478   4.459
31600SOL    HW296640   9.379  13.529   4.393
31601SOL     OW96641  12.731  10.957   4.258
31601SOL    HW196642  12.744  10.948   4.353
31601SOL    HW296643  12.814  10.930   4.220
31602SOL     OW96644   1.995   7.890  13.064
31602SOL    HW196645   1.959   7.825  13.124
31602SOL    HW296646   1.951   7.873  12.980
31603SOL     OW96647   8.299  11.751   4.487
31603SOL    HW196648   8.270  11.792   4.405
31603SOL    HW296649   8.303  11.657   4.467
31604SOL     OW96650  10.727  10.493   2.407
31604SOL    HW196651  10.685  10.549   2.342
31604SOL    HW296652  10.766  10.554   2.469
31605SOL     OW96653   7.853   6.881   1.225
31605SOL    HW196654   7.793   6.949   1.196
31605SOL    HW296655   7.798   6.803   1.233
31606SOL     OW96656   2.173  13.903  14.724
31606SOL    HW196657   2.220  13.822  14.704
31606SOL    HW296658   2.241  13.963  14.755
31607SOL     OW96659   0.402   3.293   2.047
31607SOL    HW196660   0.439   3.227   1.988
31607SOL    HW296661   0.377   3.366   1.990
31608SOL     OW96662   4.978   0.013   5.366
31608SOL    HW196663   4.989   0.098   5.409
31608SOL    HW296664   5.066  14.867   5.335
31609SOL     OW96665  14.550   3.072   3.900
31609SOL    HW196666  14.455   3.058   3.900
31609SOL    HW296667  14.564   3.134   3.829
31610SOL     OW96668  14.840   7.603   7.958
31610SOL    HW196669  14.834   7.682   7.904
31610SOL    HW296670  14.751   7.569   7.963
31611SOL     OW96671   2.790  12.472   3.633
31611SOL    HW196672   2.821  12.459   3.722
31611SOL    HW296673   2.746  12.389   3.611
31612SOL     OW96674   9.741   5.802   9.045
31612SOL    HW196675   9.779   5.719   9.015
31612SOL    HW296676   9.656   5.807   9.001
31613SOL     OW96677   1.655  13.696   0.518
31613SOL    HW196678   1.571  13.657   0.542
31613SOL    HW296679   1.716  13.665   0.585
31614SOL     OW96680   3.205  10.587  13.785
31614SOL    HW196681   3.162  10.537  13.854
31614SOL    HW296682   3.250  10.521  13.732
31615SOL     OW96683   3.502   4.963  12.340
31615SOL    HW196684   3.537   4.972  12.429
31615SOL    HW296685   3.423   5.016  12.340
31616SOL     OW96686  12.819  14.364   2.421
31616SOL    HW196687  12.859  14.287   2.462
31616SOL    HW296688  12.738  14.331   2.383
31617SOL     OW96689   9.429   1.632   2.373
31617SOL    HW196690   9.360   1.598   2.429
31617SOL    HW296691   9.432   1.726   2.392
31618SOL     OW96692   4.746  13.280   4.727
31618SOL    HW196693   4.734  13.207   4.666
31618SOL    HW296694   4.659  13.294   4.763
31619SOL     OW96695  10.442  12.633   1.294
31619SOL    HW196696  10.515  12.693   1.277
31619SOL    HW296697  10.378  12.654   1.226
31620SOL     OW96698   9.652   5.630   0.752
31620SOL    HW196699   9.718   5.661   0.815
31620SOL    HW296700   9.702   5.579   0.689
31621SOL     OW96701  13.055   3.308   7.555
31621SOL    HW196702  12.984   3.286   7.495
31621SOL    HW296703  13.134   3.300   7.501
31622SOL     OW96704   3.936  14.432  14.568
31622SOL    HW196705   4.028  14.445  14.544
31622SOL    HW296706   3.887  14.485  14.504
31623SOL     OW96707  13.611   4.042  13.035
31623SOL    HW196708  13.649   4.078  12.954
31623SOL    HW296709  13.611   4.116  13.096
31624SOL     OW96710   4.552   1.815   8.058
31624SOL    HW196711   4.638   1.851   8.037
31624SOL    HW296712   4.527   1.858   8.141
31625SOL     OW96713   9.447   0.733   8.166
31625SOL    HW196714   9.401   0.672   8.223
31625SOL    HW296715   9.418   0.710   8.078
31626SOL     OW96716  10.751  12.408   1.339
31626SOL    HW196717  10.660  12.381   1.328
31626SOL    HW296718  10.782  12.361   1.416
31627SOL     OW96719   8.324   4.814   7.209
31627SOL    HW196720   8.323   4.831   7.303
31627SOL    HW296721   8.291   4.725   7.201
31628SOL     OW96722   3.481   4.128   6.621
31628SOL    HW196723   3.560   4.158   6.666
31628SOL    HW296724   3.441   4.208   6.587
31629SOL     OW96725   0.390  13.834   1.774
31629SOL    HW196726   0.421  13.746   1.797
31629SOL    HW296727   0.330  13.820   1.701
31630SOL     OW96728   4.871  13.670   2.118
31630SOL    HW196729   4.831  13.747   2.158
31630SOL    HW296730   4.964  13.692   2.111
31631SOL     OW96731   7.050   6.020   6.179
31631SOL    HW196732   6.959   6.046   6.162
31631SOL    HW296733   7.043   5.944   6.237
31632SOL     OW96734   0.862   8.725  12.771
31632SOL    HW196735   0.838   8.749  12.860
31632SOL    HW296736   0.855   8.807  12.722
31633SOL     OW96737   6.078   1.669  14.614
31633SOL    HW196738   6.098   1.726  14.539
31633SOL    HW296739   5.986   1.686  14.633
31634SOL     OW96740  13.170   1.279   8.724
31634SOL    HW196741  13.176   1.200   8.778
31634SOL    HW296742  13.252   1.283   8.676
31635SOL     OW96743   9.082   4.766   2.290
31635SOL    HW196744   9.106   4.756   2.198
31635SOL    HW296745   9.139   4.835   2.323
31636SOL     OW96746   1.850  12.169   1.385
31636SOL    HW196747   1.835  12.217   1.466
31636SOL    HW296748   1.891  12.087   1.412
31637SOL     OW96749   6.691  10.749  13.131
31637SOL    HW196750   6.745  10.682  13.173
31637SOL    HW296751   6.724  10.752  13.041
31638SOL     OW96752   5.104   2.847   8.715
31638SOL    HW196753   5.176   2.875   8.772
31638SOL    HW296754   5.060   2.779   8.765
31639SOL     OW96755   0.533   2.098   9.202
31639SOL    HW196756   0.558   2.083   9.294
31639SOL    HW296757   0.442   2.071   9.198
31640SOL     OW96758  11.185  13.639   6.353
31640SOL    HW196759  11.112  13.590   6.314
31640SOL    HW296760  11.167  13.730   6.333
31641SOL     OW96761  12.746   5.220  10.885
31641SOL    HW196762  12.795   5.218  10.967
31641SOL    HW296763  12.779   5.145  10.836
31642SOL     OW96764  10.693   4.976   5.695
31642SOL    HW196765  10.635   5.051   5.711
31642SOL    HW296766  10.761   5.011   5.637
31643SOL     OW96767  13.517   6.099  10.131
31643SOL    HW196768  13.582   6.041  10.092
31643SOL    HW296769  13.525   6.083  10.225
31644SOL     OW96770  11.088   3.669   6.958
31644SOL    HW196771  11.081   3.583   6.915
31644SOL    HW296772  11.180   3.676   6.983
31645SOL     OW96773  13.155   4.289   2.187
31645SOL    HW196774  13.238   4.260   2.225
31645SOL    HW296775  13.164   4.272   2.093
31646SOL     OW96776   2.353   0.832   8.490
31646SOL    HW196777   2.343   0.928   8.490
31646SOL    HW296778   2.395   0.813   8.406
31647SOL     OW96779  13.124   3.865   3.888
31647SOL    HW196780  13.161   3.784   3.923
31647SOL    HW296781  13.073   3.902   3.960
31648SOL     OW96782   6.727   7.461  13.510
31648SOL    HW196783   6.761   7.413  13.585
31648SOL    HW296784   6.638   7.487  13.537
31649SOL     OW96785   5.428   1.092  14.791
31649SOL    HW196786   5.350   1.037  14.779
31649SOL    HW296787   5.444   1.131  14.705
31650SOL     OW96788   4.734  11.758  13.165
31650SOL    HW196789   4.823  11.776  13.135
31650SOL    HW296790   4.710  11.676  13.122
31651SOL     OW96791  11.470   6.312   7.867
31651SOL    HW196792  11.541   6.285   7.925
31651SOL    HW296793  11.393   6.266   7.901
31652SOL     OW96794   0.462  11.523   3.696
31652SOL    HW196795   0.531  11.584   3.722
31652SOL    HW296796   0.452  11.537   3.602
31653SOL     OW96797   6.409   2.409   2.787
31653SOL    HW196798   6.367   2.491   2.812
31653SOL    HW296799   6.363   2.341   2.836
31654SOL     OW96800   0.342   5.820   3.376
31654SOL    HW196801   0.412   5.757   3.362
31654SOL    HW296802   0.344   5.837   3.470
31655SOL     OW96803   4.565  14.133  14.001
31655SOL    HW196804   4.597  14.107  13.915
31655SOL    HW296805   4.608  14.217  14.018
31656SOL     OW96806  10.481  12.138  10.896
31656SOL    HW196807  10.466  12.213  10.838
31656SOL    HW296808  10.576  12.134  10.905
31657SOL     OW96809   3.893   1.236   0.770
31657SOL    HW196810   3.883   1.213   0.678
31657SOL    HW296811   3.810   1.210   0.810
31658SOL     OW96812  14.018   1.860   7.389
31658SOL    HW196813  14.075   1.834   7.317
31658SOL    HW296814  13.933   1.875   7.347
31659SOL     OW96815   5.580   2.014   2.265
31659SOL    HW196816   5.565   1.976   2.179
31659SOL    HW296817   5.496   2.053   2.289
31660SOL     OW96818   7.029  14.644  14.345
31660SOL    HW196819   7.101  14.597  14.304
31660SOL    HW296820   7.056  14.736  14.343
31661SOL     OW96821  12.915  14.473   3.063
31661SOL    HW196822  12.939  14.426   3.143
31661SOL    HW296823  12.956  14.423   2.992
31662SOL     OW96824   7.518   6.689   2.371
31662SOL    HW196825   7.496   6.596   2.383
31662SOL    HW296826   7.517   6.725   2.459
31663SOL     OW96827  13.537  14.843  12.251
31663SOL    HW196828  13.535   0.033  12.320
31663SOL    HW296829  13.594  14.774  12.285
31664SOL     OW96830   2.347  14.122   2.185
31664SOL    HW196831   2.307  14.178   2.251
31664SOL    HW296832   2.332  14.168   2.102
31665SOL     OW96833   0.401   9.438  14.688
31665SOL    HW196834   0.432   9.507  14.747
31665SOL    HW296835   0.310   9.425  14.712
31666SOL     OW96836   0.366   0.319   0.937
31666SOL    HW196837   0.446   0.270   0.921
31666SOL    HW296838   0.297   0.253   0.941
31667SOL     OW96839   1.516   8.695  11.253
31667SOL    HW196840   1.577   8.672  11.183
31667SOL    HW296841   1.444   8.739  11.209
31668SOL     OW96842  10.231   5.504   9.556
31668SOL    HW196843  10.262   5.421   9.518
31668SOL    HW296844  10.136   5.493   9.562
31669SOL     OW96845   6.578  14.327  10.024
31669SOL    HW196846   6.521  14.250  10.021
31669SOL    HW296847   6.566  14.362  10.112
31670SOL     OW96848  10.996  13.023   9.132
31670SOL    HW196849  11.035  13.054   9.051
31670SOL    HW296850  10.939  12.950   9.105
31671SOL     OW96851  14.791  10.326   7.702
31671SOL    HW196852  14.799  10.232   7.717
31671SOL    HW296853  14.844  10.343   7.624
31672SOL     OW96854   5.325   3.792  12.943
31672SOL    HW196855   5.310   3.741  12.863
31672SOL    HW296856   5.340   3.726  13.010
31673SOL     OW96857   3.134   0.432   1.138
31673SOL    HW196858   3.091   0.383   1.068
31673SOL    HW296859   3.227   0.410   1.128
31674SOL     OW96860   6.972  10.650   8.336
31674SOL    HW196861   6.909  10.717   8.307
31674SOL    HW296862   7.056  10.696   8.337
31675SOL     OW96863   9.436   0.416  12.003
31675SOL    HW196864   9.398   0.342  11.956
31675SOL    HW296865   9.526   0.390  12.020
31676SOL     OW96866   6.726   2.550   3.183
31676SOL    HW196867   6.703   2.457   3.187
31676SOL    HW296868   6.717   2.581   3.273
31677SOL     OW96869   3.997   6.385   0.226
31677SOL    HW196870   3.905   6.384   0.254
31677SOL    HW296871   4.043   6.337   0.295
31678SOL     OW96872   7.912   4.528   6.691
31678SOL    HW196873   7.870   4.556   6.610
31678SOL    HW296874   7.968   4.455   6.665
31679SOL     OW96875  10.622  11.493  13.572
31679SOL    HW196876  10.621  11.489  13.476
31679SOL    HW296877  10.591  11.407  13.600
31680SOL     OW96878  13.945  14.404   8.999
31680SOL    HW196879  13.924  14.391   9.091
31680SOL    HW296880  14.028  14.360   8.986
31681SOL     OW96881   2.837   1.612   6.110
31681SOL    HW196882   2.887   1.573   6.037
31681SOL    HW296883   2.752   1.634   6.072
31682SOL     OW96884   1.843   5.567   4.693
31682SOL    HW196885   1.870   5.487   4.738
31682SOL    HW296886   1.879   5.558   4.604
31683SOL     OW96887   9.469   3.008  11.745
31683SOL    HW196888   9.516   3.009  11.829
31683SOL    HW296889   9.523   2.952  11.689
31684SOL     OW96890  10.221   4.483   5.662
31684SOL    HW196891  10.237   4.470   5.568
31684SOL    HW296892  10.268   4.564   5.683
31685SOL     OW96893   0.607   9.852   3.506
31685SOL    HW196894   0.622   9.935   3.460
31685SOL    HW296895   0.693   9.829   3.542
31686SOL     OW96896   9.006   1.109   8.559
31686SOL    HW196897   9.058   1.034   8.532
31686SOL    HW296898   8.920   1.095   8.521
31687SOL     OW96899   0.056  14.026   2.071
31687SOL    HW196900   0.039  14.047   1.979
31687SOL    HW296901   0.078  14.110   2.112
31688SOL     OW96902   5.076  12.999   1.300
31688SOL    HW196903   5.122  12.934   1.352
31688SOL    HW296904   5.119  12.997   1.215
31689SOL     OW96905   5.122  14.147   5.005
31689SOL    HW196906   5.045  14.090   5.013
31689SOL    HW296907   5.123  14.171   4.912
31690SOL     OW96908  12.988   8.150  12.071
31690SOL    HW196909  13.035   8.177  11.992
31690SOL    HW296910  13.031   8.198  12.142
31691SOL     OW96911   1.154   6.724   0.145
31691SOL    HW196912   1.235   6.687   0.109
31691SOL    HW296913   1.124   6.658   0.208
31692SOL     OW96914   7.289   7.443   0.399
31692SOL    HW196915   7.346   7.366   0.395
31692SOL    HW296916   7.307   7.491   0.318
31693SOL     OW96917   4.426   3.017   1.282
31693SOL    HW196918   4.453   3.109   1.273
31693SOL    HW296919   4.454   2.976   1.200
31694SOL     OW96920   6.970   4.495   9.778
31694SOL    HW196921   6.966   4.437   9.854
31694SOL    HW296922   7.050   4.469   9.732
31695SOL     OW96923   5.777   6.614  13.599
31695SOL    HW196924   5.700   6.669  13.587
31695SOL    HW296925   5.756   6.533  13.553
31696SOL     OW96926   7.008   2.578   5.609
31696SOL    HW196927   6.948   2.634   5.560
31696SOL    HW296928   6.951   2.521   5.660
31697SOL     OW96929   7.598   7.385   5.238
31697SOL    HW196930   7.525   7.336   5.200
31697SOL    HW296931   7.675   7.331   5.220
31698SOL     OW96932   5.077   9.397  11.223
31698SOL    HW196933   5.043   9.486  11.234
31698SOL    HW296934   5.058   9.375  11.132
31699SOL     OW96935  10.597  14.000  10.173
31699SOL    HW196936  10.551  14.065  10.119
31699SOL    HW296937  10.647  13.947  10.111
31700SOL     OW96938  14.848   3.202   9.354
31700SOL    HW196939  14.803   3.263   9.296
31700SOL    HW296940  14.859   3.249   9.436
31701SOL     OW96941   0.733  13.649  13.251
31701SOL    HW196942   0.800  13.675  13.188
31701SOL    HW296943   0.709  13.560  13.226
31702SOL     OW96944  12.761  13.117  10.302
31702SOL    HW196945  12.829  13.146  10.364
31702SOL    HW296946  12.785  13.028  10.280
31703SOL     OW96947  12.356   5.322   7.010
31703SOL    HW196948  12.393   5.243   7.049
31703SOL    HW296949  12.394   5.394   7.060
31704SOL     OW96950   2.682   8.483   1.302
31704SOL    HW196951   2.664   8.566   1.258
31704SOL    HW296952   2.597   8.439   1.306
31705SOL     OW96953   6.575   2.117   4.187
31705SOL    HW196954   6.618   2.165   4.258
31705SOL    HW296955   6.645   2.094   4.127
31706SOL     OW96956   9.327  14.444  10.125
31706SOL    HW196957   9.282  14.370  10.085
31706SOL    HW296958   9.259  14.492  10.172
31707SOL     OW96959   6.590   1.524   1.148
31707SOL    HW196960   6.569   1.519   1.241
31707SOL    HW296961   6.518   1.478   1.105
31708SOL     OW96962   0.608  10.683   2.529
31708SOL    HW196963   0.547  10.748   2.564
31708SOL    HW296964   0.662  10.659   2.604
31709SOL     OW96965  14.675  13.459   0.558
31709SOL    HW196966  14.763  13.422   0.555
31709SOL    HW296967  14.664  13.488   0.649
31710SOL     OW96968  14.432   8.029  12.327
31710SOL    HW196969  14.464   8.116  12.351
31710SOL    HW296970  14.506   7.971  12.344
31711SOL     OW96971   2.567  12.220   2.825
31711SOL    HW196972   2.486  12.268   2.840
31711SOL    HW296973   2.631  12.287   2.801
31712SOL     OW96974  12.684   3.979   8.226
31712SOL    HW196975  12.667   4.073   8.227
31712SOL    HW296976  12.607   3.941   8.184
31713SOL     OW96977   8.028  10.070   0.355
31713SOL    HW196978   8.011   9.976   0.368
31713SOL    HW296979   8.076  10.074   0.272
31714SOL     OW96980   3.106   3.557   0.055
31714SOL    HW196981   3.115   3.472   0.098
31714SOL    HW296982   3.095   3.619   0.127
31715SOL     OW96983  10.352   2.349   2.573
31715SOL    HW196984  10.379   2.384   2.657
31715SOL    HW296985  10.298   2.418   2.534
31716SOL     OW96986   6.270  13.959   8.225
31716SOL    HW196987   6.219  14.037   8.247
31716SOL    HW296988   6.326  13.987   8.152
31717SOL     OW96989   6.403   2.242   6.350
31717SOL    HW196990   6.437   2.176   6.289
31717SOL    HW296991   6.395   2.322   6.297
31718SOL     OW96992  10.972   1.440  12.389
31718SOL    HW196993  10.961   1.488  12.471
31718SOL    HW296994  11.034   1.370  12.410
31719SOL     OW96995  12.505  13.602  14.560
31719SOL    HW196996  12.455  13.540  14.507
31719SOL    HW296997  12.463  13.599  14.646
31720SOL     OW96998  13.824   8.871  10.085
31720SOL    HW196999  13.782   8.955  10.102
31720SOL    HW297000  13.911   8.893  10.051
31721SOL     OW97001   8.484   1.987  12.491
31721SOL    HW197002   8.496   1.987  12.397
31721SOL    HW297003   8.518   1.903  12.521
31722SOL     OW97004   0.741  10.589   4.426
31722SOL    HW197005   0.647  10.582   4.409
31722SOL    HW297006   0.747  10.632   4.511
31723SOL     OW97007   3.529  11.672  11.262
31723SOL    HW197008   3.516  11.631  11.176
31723SOL    HW297009   3.472  11.623  11.320
31724SOL     OW97010   8.792  10.149   9.274
31724SOL    HW197011   8.823  10.096   9.201
31724SOL    HW297012   8.699  10.166   9.254
31725SOL     OW97013   4.720  12.545   5.231
31725SOL    HW197014   4.734  12.511   5.320
31725SOL    HW297015   4.768  12.628   5.229
31726SOL     OW97016   0.695   1.003   1.989
31726SOL    HW197017   0.637   1.050   1.929
31726SOL    HW297018   0.641   0.931   2.022
31727SOL     OW97019   1.416   4.779   4.203
31727SOL    HW197020   1.399   4.799   4.111
31727SOL    HW297021   1.488   4.715   4.202
31728SOL     OW97022   6.693   3.582  14.459
31728SOL    HW197023   6.691   3.667  14.414
31728SOL    HW297024   6.707   3.519  14.388
31729SOL     OW97025   0.904  13.361   7.005
31729SOL    HW197026   0.924  13.448   6.970
31729SOL    HW297027   0.814  13.369   7.038
31730SOL     OW97028   6.472   3.889   5.541
31730SOL    HW197029   6.399   3.826   5.542
31730SOL    HW297030   6.430   3.974   5.530
31731SOL     OW97031  11.459   7.314   6.227
31731SOL    HW197032  11.469   7.405   6.201
31731SOL    HW297033  11.427   7.270   6.148
31732SOL     OW97034   1.078   9.092   0.005
31732SOL    HW197035   0.990   9.083   0.041
31732SOL    HW297036   1.135   9.058   0.074
31733SOL     OW97037  14.431   2.696   6.404
31733SOL    HW197038  14.479   2.677   6.324
31733SOL    HW297039  14.462   2.630   6.467
31734SOL     OW97040  13.386  10.009  12.615
31734SOL    HW197041  13.453   9.953  12.656
31734SOL    HW297042  13.431  10.049  12.540
31735SOL     OW97043  13.870  10.071   8.800
31735SOL    HW197044  13.957  10.048   8.767
31735SOL    HW297045  13.817  10.085   8.722
31736SOL     OW97046   2.007  13.678   5.039
31736SOL    HW197047   1.937  13.662   5.102
31736SOL    HW297048   1.973  13.748   4.982
31737SOL     OW97049  13.409   9.680  13.489
31737SOL    HW197050  13.337   9.639  13.442
31737SOL    HW297051  13.428   9.620  13.561
31738SOL     OW97052   4.562   4.056   9.396
31738SOL    HW197053   4.564   3.969   9.435
31738SOL    HW297054   4.553   4.040   9.302
31739SOL     OW97055   9.571   1.046   2.547
31739SOL    HW197056   9.555   1.122   2.492
31739SOL    HW297057   9.666   1.032   2.542
31740SOL     OW97058   1.742   5.401   7.032
31740SOL    HW197059   1.735   5.381   6.939
31740SOL    HW297060   1.666   5.360   7.072
31741SOL     OW97061   2.029   1.312   5.334
31741SOL    HW197062   1.993   1.349   5.415
31741SOL    HW297063   2.098   1.372   5.308
31742SOL     OW97064   5.611   1.703   7.433
31742SOL    HW197065   5.584   1.779   7.484
31742SOL    HW297066   5.601   1.730   7.342
31743SOL     OW97067  14.137   8.785  13.620
31743SOL    HW197068  14.166   8.854  13.560
31743SOL    HW297069  14.059   8.820  13.662
31744SOL     OW97070  13.853   8.836   0.904
31744SOL    HW197071  13.845   8.754   0.855
31744SOL    HW297072  13.810   8.901   0.848
31745SOL     OW97073   5.154   8.657   6.054
31745SOL    HW197074   5.195   8.637   5.970
31745SOL    HW297075   5.178   8.584   6.111
31746SOL     OW97076   1.894   2.682   1.693
31746SOL    HW197077   1.829   2.656   1.758
31746SOL    HW297078   1.955   2.608   1.689
31747SOL     OW97079  14.465   8.033   4.006
31747SOL    HW197080  14.499   8.042   3.917
31747SOL    HW297081  14.378   7.997   3.995
31748SOL     OW97082   9.306   8.812  13.329
31748SOL    HW197083   9.220   8.847  13.304
31748SOL    HW297084   9.295   8.785  13.420
31749SOL     OW97085   3.484   3.574  14.429
31749SOL    HW197086   3.522   3.525  14.356
31749SOL    HW297087   3.517   3.530  14.507
31750SOL     OW97088   4.217  12.102   2.863
31750SOL    HW197089   4.194  12.011   2.844
31750SOL    HW297090   4.178  12.120   2.948
31751SOL     OW97091   4.820   7.816  10.392
31751SOL    HW197092   4.781   7.861  10.317
31751SOL    HW297093   4.754   7.753  10.419
31752SOL     OW97094   3.403   1.215  12.526
31752SOL    HW197095   3.359   1.296  12.501
31752SOL    HW297096   3.416   1.223  12.620
31753SOL     OW97097  12.111   7.913   0.314
31753SOL    HW197098  12.052   7.955   0.251
31753SOL    HW297099  12.146   7.986   0.365
31754SOL     OW97100   7.244  12.548  11.566
31754SOL    HW197101   7.209  12.583  11.484
31754SOL    HW297102   7.245  12.453  11.552
31755SOL     OW97103   1.017  12.525  12.435
31755SOL    HW197104   0.980  12.518  12.347
31755SOL    HW297105   1.102  12.566  12.421
31756SOL     OW97106  10.954  12.641  10.727
31756SOL    HW197107  10.863  12.630  10.753
31756SOL    HW297108  11.004  12.588  10.790
31757SOL     OW97109   2.308  10.328   1.959
31757SOL    HW197110   2.271  10.359   1.876
31757SOL    HW297111   2.369  10.259   1.935
31758SOL     OW97112   9.414   4.534  12.517
31758SOL    HW197113   9.387   4.553  12.427
31758SOL    HW297114   9.380   4.446  12.534
31759SOL     OW97115   5.378   9.356   4.380
31759SOL    HW197116   5.323   9.336   4.304
31759SOL    HW297117   5.325   9.414   4.434
31760SOL     OW97118  14.817  13.362   9.463
31760SOL    HW197119  14.788  13.275   9.437
31760SOL    HW297120  14.770  13.379   9.545
31761SOL     OW97121   8.956   6.654  10.837
31761SOL    HW197122   9.036   6.697  10.807
31761SOL    HW297123   8.894   6.664  10.764
31762SOL     OW97124   9.436   5.569   3.093
31762SOL    HW197125   9.347   5.542   3.071
31762SOL    HW297126   9.427   5.661   3.119
31763SOL     OW97127  10.816  10.843   4.605
31763SOL    HW197128  10.851  10.785   4.672
31763SOL    HW297129  10.785  10.784   4.535
31764SOL     OW97130   7.016  10.104  10.115
31764SOL    HW197131   7.101  10.088  10.157
31764SOL    HW297132   6.953  10.064  10.174
31765SOL     OW97133   4.446   2.315   4.820
31765SOL    HW197134   4.445   2.411   4.817
31765SOL    HW297135   4.369   2.292   4.873
31766SOL     OW97136   9.709   4.325   1.726
31766SOL    HW197137   9.631   4.379   1.737
31766SOL    HW297138   9.763   4.373   1.663
31767SOL     OW97139   5.650  11.535   9.597
31767SOL    HW197140   5.573  11.519   9.651
31767SOL    HW297141   5.718  11.481   9.636
31768SOL     OW97142  10.854   0.932   3.752
31768SOL    HW197143  10.828   0.856   3.701
31768SOL    HW297144  10.812   1.006   3.708
31769SOL     OW97145   1.664  12.154   9.309
31769SOL    HW197146   1.608  12.124   9.381
31769SOL    HW297147   1.607  12.156   9.232
31770SOL     OW97148   6.437   4.963   9.119
31770SOL    HW197149   6.454   4.966   9.025
31770SOL    HW297150   6.515   5.001   9.159
31771SOL     OW97151  10.367   4.746   5.982
31771SOL    HW197152  10.327   4.833   5.993
31771SOL    HW297153  10.455   4.755   6.019
31772SOL     OW97154  13.853   4.276   8.487
31772SOL    HW197155  13.819   4.366   8.492
31772SOL    HW297156  13.821   4.234   8.567
31773SOL     OW97157  14.010   8.976  11.957
31773SOL    HW197158  13.934   9.004  12.008
31773SOL    HW297159  14.060   9.056  11.943
31774SOL     OW97160   7.731  10.283   8.113
31774SOL    HW197161   7.655  10.232   8.141
31774SOL    HW297162   7.716  10.371   8.148
31775SOL     OW97163   1.724  10.349   4.365
31775SOL    HW197164   1.792  10.282   4.373
31775SOL    HW297165   1.649  10.311   4.410
31776SOL     OW97166   4.266  14.711  11.260
31776SOL    HW197167   4.193  14.727  11.320
31776SOL    HW297168   4.226  14.705  11.174
31777SOL     OW97169   8.085  12.499  11.238
31777SOL    HW197170   8.142  12.472  11.311
31777SOL    HW297171   8.022  12.559  11.278
31778SOL     OW97172  13.822   2.826  14.430
31778SOL    HW197173  13.878   2.771  14.485
31778SOL    HW297174  13.765   2.763  14.385
31779SOL     OW97175   3.753  13.206  14.197
31779SOL    HW197176   3.685  13.143  14.169
31779SOL    HW297177   3.809  13.156  14.256
31780SOL     OW97178  13.525   4.189   4.082
31780SOL    HW197179  13.556   4.195   3.991
31780SOL    HW297180  13.534   4.096   4.104
31781SOL     OW97181   8.113   3.949  13.326
31781SOL    HW197182   8.093   3.880  13.390
31781SOL    HW297183   8.080   4.029  13.367
31782SOL     OW97184   8.331  13.807   6.368
31782SOL    HW197185   8.383  13.856   6.305
31782SOL    HW297186   8.255  13.776   6.319
31783SOL     OW97187   8.421   1.837  11.053
31783SOL    HW197188   8.357   1.768  11.033
31783SOL    HW297189   8.408   1.902  10.984
31784SOL     OW97190   7.823  13.532   4.528
31784SOL    HW197191   7.874  13.590   4.583
31784SOL    HW297192   7.755  13.497   4.585
31785SOL     OW97193   9.788   6.820   0.478
31785SOL    HW197194   9.752   6.893   0.427
31785SOL    HW297195   9.867   6.795   0.430
31786SOL     OW97196   7.439   2.383  13.645
31786SOL    HW197197   7.499   2.331  13.699
31786SOL    HW297198   7.496   2.425  13.580
31787SOL     OW97199   0.383   8.583   2.263
31787SOL    HW197200   0.288   8.578   2.254
31787SOL    HW297201   0.409   8.497   2.295
31788SOL     OW97202   3.201   2.361  13.597
31788SOL    HW197203   3.111   2.392  13.603
31788SOL    HW297204   3.215   2.312  13.678
31789SOL     OW97205  13.058   8.926   6.379
31789SOL    HW197206  13.058   9.006   6.326
31789SOL    HW297207  13.014   8.861   6.325
31790SOL     OW97208   3.443  13.534   5.823
31790SOL    HW197209   3.353  13.559   5.845
31790SOL    HW297210   3.498  13.584   5.882
31791SOL     OW97211   9.214   9.758  13.504
31791SOL    HW197212   9.236   9.852  13.506
31791SOL    HW297213   9.151   9.746  13.574
31792SOL     OW97214  13.782   1.570  11.028
31792SOL    HW197215  13.744   1.655  11.051
31792SOL    HW297216  13.874   1.590  11.009
31793SOL     OW97217   2.469   2.820  10.368
31793SOL    HW197218   2.554   2.828  10.411
31793SOL    HW297219   2.429   2.742  10.407
31794SOL     OW97220   5.478  12.096   0.765
31794SOL    HW197221   5.539  12.024   0.781
31794SOL    HW297222   5.403  12.076   0.821
31795SOL     OW97223  12.836   4.993  14.490
31795SOL    HW197224  12.854   5.085  14.508
31795SOL    HW297225  12.748   4.992  14.454
31796SOL     OW97226   3.308   2.183   6.497
31796SOL    HW197227   3.264   2.209   6.416
31796SOL    HW297228   3.401   2.185   6.476
31797SOL     OW97229   2.432   5.796   5.983
31797SOL    HW197230   2.494   5.761   6.047
31797SOL    HW297231   2.410   5.884   6.016
31798SOL     OW97232  14.002   6.482   7.582
31798SOL    HW197233  13.967   6.466   7.670
31798SOL    HW297234  14.012   6.394   7.545
31799SOL     OW97235   2.705  13.118   7.670
31799SOL    HW197236   2.613  13.098   7.690
31799SOL    HW297237   2.701  13.163   7.585
31800SOL     OW97238   3.815   0.484  13.452
31800SOL    HW197239   3.854   0.485  13.540
31800SOL    HW297240   3.886   0.455  13.395
31801SOL     OW97241   3.919   2.339   7.661
31801SOL    HW197242   3.855   2.269   7.674
31801SOL    HW297243   3.978   2.306   7.594
31802SOL     OW97244   2.208   4.670   1.872
31802SOL    HW197245   2.274   4.652   1.940
31802SOL    HW297246   2.259   4.697   1.796
31803SOL     OW97247   8.602   8.523  12.564
31803SOL    HW197248   8.635   8.525  12.654
31803SOL    HW297249   8.511   8.552  12.570
31804SOL     OW97250   4.561   2.253  10.483
31804SOL    HW197251   4.585   2.166  10.451
31804SOL    HW297252   4.473   2.242  10.519
31805SOL     OW97253  13.716   7.607   8.980
31805SOL    HW197254  13.798   7.598   8.932
31805SOL    HW297255  13.692   7.699   8.969
31806SOL     OW97256   2.163  12.350  11.826
31806SOL    HW197257   2.204  12.313  11.748
31806SOL    HW297258   2.160  12.277  11.888
31807SOL     OW97259  14.814   7.711   9.783
31807SOL    HW197260  14.774   7.779   9.836
31807SOL    HW297261   0.026   7.701   9.819
31808SOL     OW97262   8.891   7.624  14.510
31808SOL    HW197263   8.985   7.606  14.506
31808SOL    HW297264   8.866   7.605  14.600
31809SOL     OW97265   7.316  11.209   6.856
31809SOL    HW197266   7.278  11.124   6.877
31809SOL    HW297267   7.401  11.188   6.817
31810SOL     OW97268  13.075   4.271   5.651
31810SOL    HW197269  13.164   4.306   5.641
31810SOL    HW297270  13.018   4.340   5.616
31811SOL     OW97271   7.285  13.883   2.374
31811SOL    HW197272   7.345  13.951   2.342
31811SOL    HW297273   7.201  13.904   2.332
31812SOL     OW97274   9.735   6.449  13.482
31812SOL    HW197275   9.742   6.406  13.567
31812SOL    HW297276   9.731   6.543  13.503
31813SOL     OW97277   2.215  11.306   0.645
31813SOL    HW197278   2.199  11.295   0.738
31813SOL    HW297279   2.309  11.290   0.634
31814SOL     OW97280   3.716   5.983   0.027
31814SOL    HW197281   3.643   6.043   0.042
31814SOL    HW297282   3.699   5.909   0.084
31815SOL     OW97283  14.599  13.999   8.418
31815SOL    HW197284  14.513  14.038   8.404
31815SOL    HW297285  14.652  14.071   8.453
31816SOL     OW97286  10.197   5.854   1.188
31816SOL    HW197287  10.189   5.766   1.226
31816SOL    HW297288  10.290   5.874   1.195
31817SOL     OW97289  12.649   9.093   3.284
31817SOL    HW197290  12.579   9.159   3.285
31817SOL    HW297291  12.618   9.026   3.345
31818SOL     OW97292   4.395   0.380   1.767
31818SOL    HW197293   4.310   0.415   1.791
31818SOL    HW297294   4.445   0.457   1.739
31819SOL     OW97295   5.332   3.712  12.366
31819SOL    HW197296   5.397   3.702  12.436
31819SOL    HW297297   5.361   3.652  12.297
31820SOL     OW97298   8.590   3.632  12.951
31820SOL    HW197299   8.604   3.693  13.024
31820SOL    HW297300   8.579   3.547  12.992
31821SOL     OW97301   7.760   1.829  12.449
31821SOL    HW197302   7.748   1.749  12.500
31821SOL    HW297303   7.743   1.803  12.359
31822SOL     OW97304   2.658   2.459  14.355
31822SOL    HW197305   2.594   2.479  14.287
31822SOL    HW297306   2.715   2.536  14.358
31823SOL     OW97307   2.355  11.400   3.077
31823SOL    HW197308   2.282  11.435   3.026
31823SOL    HW297309   2.343  11.438   3.164
31824SOL     OW97310  12.189  13.197   0.668
31824SOL    HW197311  12.198  13.130   0.735
31824SOL    HW297312  12.257  13.177   0.604
31825SOL     OW97313   9.439   8.265  11.550
31825SOL    HW197314   9.437   8.189  11.609
31825SOL    HW297315   9.530   8.273  11.524
31826SOL     OW97316   3.767   1.081   4.944
31826SOL    HW197317   3.856   1.093   4.911
31826SOL    HW297318   3.779   1.046   5.032
31827SOL     OW97319  11.190   4.078   6.848
31827SOL    HW197320  11.233   4.163   6.835
31827SOL    HW297321  11.176   4.073   6.943
31828SOL     OW97322   9.391   8.435   0.806
31828SOL    HW197323   9.475   8.475   0.781
31828SOL    HW297324   9.344   8.424   0.724
31829SOL     OW97325  12.406  10.069   7.669
31829SOL    HW197326  12.359   9.991   7.640
31829SOL    HW297327  12.491  10.036   7.699
31830SOL     OW97328   5.175   5.233   7.379
31830SOL    HW197329   5.199   5.186   7.459
31830SOL    HW297330   5.138   5.316   7.411
31831SOL     OW97331  12.478  10.209  14.779
31831SOL    HW197332  12.567  10.177  14.768
31831SOL    HW297333  12.424  10.131  14.777
31832SOL     OW97334   0.940   6.922  10.136
31832SOL    HW197335   0.867   6.983  10.137
31832SOL    HW297336   0.980   6.933  10.050
31833SOL     OW97337   8.414   5.783  10.465
31833SOL    HW197338   8.487   5.780  10.403
31833SOL    HW297339   8.337   5.794  10.410
31834SOL     OW97340   3.697   6.449  12.791
31834SOL    HW197341   3.701   6.525  12.850
31834SOL    HW297342   3.783   6.448  12.749
31835SOL     OW97343   3.809   7.206   3.575
31835SOL    HW197344   3.854   7.125   3.600
31835SOL    HW297345   3.742   7.177   3.512
31836SOL     OW97346  13.194  14.533  10.520
31836SOL    HW197347  13.103  14.512  10.502
31836SOL    HW297348  13.191  14.620  10.560
31837SOL     OW97349  12.941  12.130  14.150
31837SOL    HW197350  13.016  12.187  14.131
31837SOL    HW297351  12.911  12.101  14.064
31838SOL     OW97352   1.949   4.778   6.702
31838SOL    HW197353   2.014   4.721   6.661
31838SOL    HW297354   1.869   4.763   6.652
31839SOL     OW97355   0.141   7.454  14.489
31839SOL    HW197356   0.214   7.395  14.470
31839SOL    HW297357   0.076   7.398  14.533
31840SOL     OW97358   4.527   4.102   1.759
31840SOL    HW197359   4.490   4.020   1.792
31840SOL    HW297360   4.610   4.111   1.806
31841SOL     OW97361   7.456   9.368   9.257
31841SOL    HW197362   7.509   9.295   9.289
31841SOL    HW297363   7.380   9.370   9.316
31842SOL     OW97364   5.458  11.371  10.685
31842SOL    HW197365   5.508  11.422  10.749
31842SOL    HW297366   5.413  11.305  10.737
31843SOL     OW97367  14.467   0.597  14.608
31843SOL    HW197368  14.436   0.620  14.521
31843SOL    HW297369  14.428   0.511  14.626
31844SOL     OW97370  12.912   4.525   5.103
31844SOL    HW197371  12.992   4.475   5.086
31844SOL    HW297372  12.899   4.576   5.023
31845SOL     OW97373   8.885  13.883   0.454
31845SOL    HW197374   8.873  13.916   0.365
31845SOL    HW297375   8.809  13.826   0.468
31846SOL     OW97376  12.162   1.222  11.858
31846SOL    HW197377  12.239   1.278  11.856
31846SOL    HW297378  12.193   1.141  11.898
31847SOL     OW97379   7.605  11.413   5.515
31847SOL    HW197380   7.597  11.402   5.420
31847SOL    HW297381   7.618  11.324   5.548
31848SOL     OW97382   1.558   0.280  12.349
31848SOL    HW197383   1.518   0.194  12.362
31848SOL    HW297384   1.523   0.311  12.265
31849SOL     OW97385   1.233   0.902   2.395
31849SOL    HW197386   1.318   0.934   2.424
31849SOL    HW297387   1.248   0.809   2.376
31850SOL     OW97388   7.506   3.520   3.525
31850SOL    HW197389   7.461   3.450   3.476
31850SOL    HW297390   7.447   3.595   3.517
31851SOL     OW97391   1.390  10.561   7.307
31851SOL    HW197392   1.296  10.577   7.296
31851SOL    HW297393   1.413  10.505   7.234
31852SOL     OW97394   2.996   6.949   9.049
31852SOL    HW197395   3.085   6.938   9.084
31852SOL    HW297396   2.981   7.044   9.051
31853SOL     OW97397   1.132   9.683   4.591
31853SOL    HW197398   1.060   9.632   4.553
31853SOL    HW297399   1.144   9.645   4.678
31854SOL     OW97400   8.129   0.035   3.521
31854SOL    HW197401   8.184   0.102   3.480
31854SOL    HW297402   8.050   0.083   3.548
31855SOL     OW97403   6.212   7.349   2.269
31855SOL    HW197404   6.220   7.263   2.309
31855SOL    HW297405   6.152   7.337   2.196
31856SOL     OW97406   1.361   8.155   4.686
31856SOL    HW197407   1.399   8.081   4.638
31856SOL    HW297408   1.418   8.167   4.761
31857SOL     OW97409  10.083  14.066  10.658
31857SOL    HW197410  10.052  14.114  10.581
31857SOL    HW297411  10.175  14.046  10.638
31858SOL     OW97412   0.414   4.123   8.703
31858SOL    HW197413   0.434   4.215   8.719
31858SOL    HW297414   0.427   4.112   8.609
31859SOL     OW97415   6.778   9.418  14.505
31859SOL    HW197416   6.768   9.409  14.600
31859SOL    HW297417   6.716   9.355  14.468
31860SOL     OW97418   8.738  10.071   8.217
31860SOL    HW197419   8.679  10.022   8.160
31860SOL    HW297420   8.683  10.094   8.293
31861SOL     OW97421   9.877   8.808   0.865
31861SOL    HW197422   9.825   8.815   0.785
31861SOL    HW297423   9.967   8.821   0.836
31862SOL     OW97424   3.798  14.681  12.297
31862SOL    HW197425   3.806  14.693  12.203
31862SOL    HW297426   3.785  14.587  12.308
31863SOL     OW97427  11.342   2.135   3.976
31863SOL    HW197428  11.405   2.172   3.914
31863SOL    HW297429  11.303   2.062   3.928
31864SOL     OW97430  11.178   8.484   5.958
31864SOL    HW197431  11.232   8.562   5.953
31864SOL    HW297432  11.173   8.452   5.867
31865SOL     OW97433   5.818  12.763   8.780
31865SOL    HW197434   5.774  12.786   8.862
31865SOL    HW297435   5.796  12.835   8.721
31866SOL     OW97436   9.237  13.531   8.138
31866SOL    HW197437   9.244  13.503   8.229
31866SOL    HW297438   9.267  13.622   8.139
31867SOL     OW97439   7.182   2.296   0.617
31867SOL    HW197440   7.117   2.366   0.619
31867SOL    HW297441   7.265   2.340   0.636
31868SOL     OW97442  10.147   0.282  14.656
31868SOL    HW197443  10.053   0.270  14.640
31868SOL    HW297444  10.156   0.269  14.751
31869SOL     OW97445  12.307  12.463  13.352
31869SOL    HW197446  12.291  12.469  13.258
31869SOL    HW297447  12.264  12.382  13.379
31870SOL     OW97448   1.837   8.794  11.133
31870SOL    HW197449   1.795   8.875  11.104
31870SOL    HW297450   1.927   8.801  11.102
31871SOL     OW97451   3.834  12.022  10.822
31871SOL    HW197452   3.815  12.020  10.916
31871SOL    HW297453   3.851  11.931  10.799
31872SOL     OW97454   7.775   5.494   8.474
31872SOL    HW197455   7.768   5.437   8.550
31872SOL    HW297456   7.708   5.560   8.487
31873SOL     OW97457   6.113   4.023  10.680
31873SOL    HW197458   6.166   4.046  10.604
31873SOL    HW297459   6.023   4.038  10.653
31874SOL     OW97460  13.398  14.667   2.292
31874SOL    HW197461  13.330  14.601   2.302
31874SOL    HW297462  13.460  14.648   2.363
31875SOL     OW97463   3.339   8.856   0.846
31875SOL    HW197464   3.356   8.797   0.920
31875SOL    HW297465   3.344   8.800   0.769
31876SOL     OW97466   6.312   6.473   7.794
31876SOL    HW197467   6.332   6.470   7.887
31876SOL    HW297468   6.379   6.530   7.757
31877SOL     OW97469   6.667   1.066   7.687
31877SOL    HW197470   6.612   1.110   7.623
31877SOL    HW297471   6.625   1.083   7.771
31878SOL     OW97472  12.300  11.293   1.159
31878SOL    HW197473  12.252  11.229   1.106
31878SOL    HW297474  12.256  11.291   1.244
31879SOL     OW97475   4.106  14.159  11.059
31879SOL    HW197476   4.162  14.176  10.983
31879SOL    HW297477   4.164  14.117  11.122
31880SOL     OW97478  10.273   8.381   2.779
31880SOL    HW197479  10.179   8.373   2.795
31880SOL    HW297480  10.306   8.292   2.785
31881SOL     OW97481  10.959   2.506  11.617
31881SOL    HW197482  10.945   2.516  11.523
31881SOL    HW297483  10.871   2.507  11.654
31882SOL     OW97484   1.601   0.621  11.042
31882SOL    HW197485   1.523   0.664  11.076
31882SOL    HW297486   1.671   0.684  11.055
31883SOL     OW97487  14.420   4.699   2.812
31883SOL    HW197488  14.392   4.642   2.740
31883SOL    HW297489  14.447   4.780   2.769
31884SOL     OW97490   9.001  10.583   2.097
31884SOL    HW197491   8.952  10.654   2.056
31884SOL    HW297492   8.936  10.533   2.146
31885SOL     OW97493   7.848   9.359   4.219
31885SOL    HW197494   7.874   9.359   4.312
31885SOL    HW297495   7.759   9.394   4.220
31886SOL     OW97496   0.256  14.324  10.880
31886SOL    HW197497   0.161  14.333  10.870
31886SOL    HW297498   0.269  14.300  10.972
31887SOL     OW97499   0.910   1.355   7.095
31887SOL    HW197500   0.893   1.262   7.078
31887SOL    HW297501   0.891   1.366   7.188
31888SOL     OW97502   2.735  11.601   9.183
31888SOL    HW197503   2.675  11.556   9.124
31888SOL    HW297504   2.792  11.532   9.217
31889SOL     OW97505   0.214   5.575  13.015
31889SOL    HW197506   0.255   5.519  12.948
31889SOL    HW297507   0.265   5.656  13.013
31890SOL     OW97508  11.836   6.541  13.583
31890SOL    HW197509  11.853   6.502  13.669
31890SOL    HW297510  11.844   6.635  13.597
31891SOL     OW97511   4.802  10.476   9.032
31891SOL    HW197512   4.716  10.439   9.054
31891SOL    HW297513   4.782  10.562   8.995
31892SOL     OW97514   0.747   7.003   5.593
31892SOL    HW197515   0.816   6.936   5.592
31892SOL    HW297516   0.747   7.035   5.684
31893SOL     OW97517   4.911  14.207   4.513
31893SOL    HW197518   4.820  14.192   4.541
31893SOL    HW297519   4.944  14.120   4.491
31894SOL     OW97520  12.119   2.461   5.469
31894SOL    HW197521  12.138   2.532   5.531
31894SOL    HW297522  12.042   2.491   5.422
31895SOL     OW97523   0.498  10.675  10.430
31895SOL    HW197524   0.446  10.707  10.504
31895SOL    HW297525   0.488  10.579  10.435
31896SOL     OW97526   9.794  10.791   9.142
31896SOL    HW197527   9.761  10.872   9.105
31896SOL    HW297528   9.716  10.742   9.168
31897SOL     OW97529   9.043   3.781   3.331
31897SOL    HW197530   8.977   3.719   3.361
31897SOL    HW297531   8.993   3.860   3.309
31898SOL     OW97532  12.470   3.265  10.272
31898SOL    HW197533  12.486   3.201  10.202
31898SOL    HW297534  12.520   3.232  10.347
31899SOL     OW97535   0.783  10.183   8.189
31899SOL    HW197536   0.863  10.165   8.238
31899SOL    HW297537   0.729  10.235   8.250
31900SOL     OW97538   4.948  11.184  13.614
31900SOL    HW197539   4.914  11.157  13.528
31900SOL    HW297540   4.880  11.156  13.676
31901SOL     OW97541   4.919   0.092  13.230
31901SOL    HW197542   4.891   0.176  13.193
31901SOL    HW297543   5.012   0.106  13.252
31902SOL     OW97544   0.934   9.466  14.191
31902SOL    HW197545   0.872   9.535  14.215
31902SOL    HW297546   0.893   9.385  14.224
31903SOL     OW97547   7.875  12.117   6.672
31903SOL    HW197548   7.825  12.170   6.608
31903SOL    HW297549   7.868  12.028   6.639
31904SOL     OW97550   2.975   0.563  14.031
31904SOL    HW197551   3.000   0.481  14.074
31904SOL    HW297552   2.880   0.564  14.032
31905SOL     OW97553   9.297   3.433   7.727
31905SOL    HW197554   9.380   3.479   7.711
31905SOL    HW297555   9.229   3.498   7.708
31906SOL     OW97556  13.663   8.819  13.845
31906SOL    HW197557  13.581   8.870  13.851
31906SOL    HW297558  13.698   8.822  13.934
31907SOL     OW97559   2.660   1.965   6.065
31907SOL    HW197560   2.638   1.879   6.029
31907SOL    HW297561   2.754   1.973   6.052
31908SOL     OW97562   1.249   8.341  10.018
31908SOL    HW197563   1.176   8.282  10.036
31908SOL    HW297564   1.277   8.371  10.105
31909SOL     OW97565   6.515   5.605   1.428
31909SOL    HW197566   6.550   5.579   1.342
31909SOL    HW297567   6.577   5.569   1.491
31910SOL     OW97568   4.491   6.072  13.901
31910SOL    HW197569   4.471   6.014  13.975
31910SOL    HW297570   4.408   6.085  13.857
31911SOL     OW97571   1.640   3.531  11.666
31911SOL    HW197572   1.656   3.599  11.731
31911SOL    HW297573   1.635   3.450  11.716
31912SOL     OW97574   2.496  11.860  13.900
31912SOL    HW197575   2.466  11.950  13.890
31912SOL    HW297576   2.444  11.826  13.973
31913SOL     OW97577   5.386   1.463   3.461
31913SOL    HW197578   5.388   1.523   3.386
31913SOL    HW297579   5.315   1.402   3.441
31914SOL     OW97580   0.912   1.120   3.354
31914SOL    HW197581   0.839   1.151   3.299
31914SOL    HW297582   0.988   1.125   3.297
31915SOL     OW97583  14.578  13.813   0.892
31915SOL    HW197584  14.494  13.817   0.847
31915SOL    HW297585  14.564  13.859   0.975
31916SOL     OW97586   2.488  12.271  13.688
31916SOL    HW197587   2.509  12.359  13.720
31916SOL    HW297588   2.572  12.228  13.679
31917SOL     OW97589  10.846   6.479   9.579
31917SOL    HW197590  10.789   6.555   9.592
31917SOL    HW297591  10.801   6.427   9.512
31918SOL     OW97592   3.101  13.759   3.699
31918SOL    HW197593   3.144  13.725   3.620
31918SOL    HW297594   3.024  13.805   3.665
31919SOL     OW97595  13.216   2.776   7.192
31919SOL    HW197596  13.122   2.784   7.178
31919SOL    HW297597  13.249   2.866   7.192
31920SOL     OW97598  10.417  12.243  12.329
31920SOL    HW197599  10.500  12.286  12.351
31920SOL    HW297600  10.442  12.174  12.267
31921SOL     OW97601   9.303  12.560  10.799
31921SOL    HW197602   9.367  12.504  10.842
31921SOL    HW297603   9.236  12.576  10.865
31922SOL     OW97604   1.669   6.922   9.538
31922SOL    HW197605   1.764   6.935   9.538
31922SOL    HW297606   1.643   6.934   9.630
31923SOL     OW97607   7.070   6.001   9.279
31923SOL    HW197608   6.983   6.031   9.253
31923SOL    HW297609   7.054   5.915   9.318
31924SOL     OW97610  13.203   8.254  13.724
31924SOL    HW197611  13.231   8.174  13.679
31924SOL    HW297612  13.256   8.257  13.803
31925SOL     OW97613  14.471   3.482  11.870
31925SOL    HW197614  14.541   3.421  11.845
31925SOL    HW297615  14.439   3.447  11.953
31926SOL     OW97616   8.101  11.331   2.906
31926SOL    HW197617   8.173  11.347   2.845
31926SOL    HW297618   8.142  11.289   2.981
31927SOL     OW97619   7.130  14.227   6.903
31927SOL    HW197620   7.043  14.195   6.923
31927SOL    HW297621   7.176  14.151   6.867
31928SOL     OW97622   3.663   0.588  12.553
31928SOL    HW197623   3.689   0.673  12.590
31928SOL    HW297624   3.695   0.524  12.617
31929SOL     OW97625  13.348  10.965   9.345
31929SOL    HW197626  13.429  10.920   9.366
31929SOL    HW297627  13.298  10.963   9.427
31930SOL     OW97628   7.534   7.989  11.403
31930SOL    HW197629   7.483   7.951  11.475
31930SOL    HW297630   7.560   7.914  11.350
31931SOL     OW97631   4.508   2.322   9.319
31931SOL    HW197632   4.584   2.279   9.279
31931SOL    HW297633   4.495   2.274   9.401
31932SOL     OW97634   1.296   6.966  13.843
31932SOL    HW197635   1.351   7.039  13.872
31932SOL    HW297636   1.225   7.007  13.794
31933SOL     OW97637   7.717  11.990  13.367
31933SOL    HW197638   7.772  11.930  13.417
31933SOL    HW297639   7.728  12.075  13.411
31934SOL     OW97640   0.737   8.064   1.619
31934SOL    HW197641   0.793   7.999   1.661
31934SOL    HW297642   0.785   8.147   1.630
31935SOL     OW97643   0.700  10.602   7.811
31935SOL    HW197644   0.726  10.599   7.719
31935SOL    HW297645   0.762  10.544   7.856
31936SOL     OW97646   2.268  14.596   8.471
31936SOL    HW197647   2.242  14.688   8.480
31936SOL    HW297648   2.263  14.578   8.377
31937SOL     OW97649   3.910   1.885   3.592
31937SOL    HW197650   3.892   1.803   3.544
31937SOL    HW297651   3.912   1.859   3.684
31938SOL     OW97652   1.612   3.187   0.452
31938SOL    HW197653   1.547   3.257   0.451
31938SOL    HW297654   1.683   3.220   0.508
31939SOL     OW97655   8.225   2.707   8.799
31939SOL    HW197656   8.191   2.701   8.888
31939SOL    HW297657   8.219   2.618   8.765
31940SOL     OW97658   7.350  10.092   6.910
31940SOL    HW197659   7.415  10.044   6.962
31940SOL    HW297660   7.299  10.024   6.867
31941SOL     OW97661   4.218   4.371   1.589
31941SOL    HW197662   4.197   4.451   1.541
31941SOL    HW297663   4.141   4.316   1.578
31942SOL     OW97664   4.045   4.890   4.294
31942SOL    HW197665   4.025   4.914   4.384
31942SOL    HW297666   4.138   4.868   4.295
31943SOL     OW97667  13.788   8.075   0.274
31943SOL    HW197668  13.762   8.144   0.213
31943SOL    HW297669  13.869   8.039   0.236
31944SOL     OW97670   0.344   1.576  12.771
31944SOL    HW197671   0.328   1.537  12.857
31944SOL    HW297672   0.265   1.626  12.753
31945SOL     OW97673  14.537  13.162   9.707
31945SOL    HW197674  14.588  13.083   9.694
31945SOL    HW297675  14.465  13.154   9.645
31946SOL     OW97676  10.036   6.316   8.005
31946SOL    HW197677   9.981   6.241   7.984
31946SOL    HW297678  10.106   6.314   7.940
31947SOL     OW97679   9.126  12.437   5.109
31947SOL    HW197680   9.219  12.459   5.113
31947SOL    HW297681   9.121  12.361   5.051
31948SOL     OW97682   3.437   4.148   1.353
31948SOL    HW197683   3.405   4.058   1.361
31948SOL    HW297684   3.373   4.199   1.404
31949SOL     OW97685   0.900   5.470   7.809
31949SOL    HW197686   0.834   5.406   7.837
31949SOL    HW297687   0.882   5.482   7.715
31950SOL     OW97688  14.201  10.626   2.911
31950SOL    HW197689  14.239  10.623   2.999
31950SOL    HW297690  14.257  10.685   2.862
31951SOL     OW97691   9.646   7.710   8.325
31951SOL    HW197692   9.604   7.733   8.408
31951SOL    HW297693   9.740   7.709   8.345
31952SOL     OW97694   4.941  11.904   3.101
31952SOL    HW197695   4.984  11.989   3.109
31952SOL    HW297696   4.953  11.880   3.009
31953SOL     OW97697  11.230   2.981  10.365
31953SOL    HW197698  11.164   3.047  10.387
31953SOL    HW297699  11.182   2.914  10.316
31954SOL     OW97700   3.864  10.188   2.540
31954SOL    HW197701   3.831  10.103   2.511
31954SOL    HW297702   3.858  10.185   2.635
31955SOL     OW97703   9.236   3.772   8.647
31955SOL    HW197704   9.169   3.706   8.664
31955SOL    HW297705   9.208   3.848   8.697
31956SOL     OW97706   7.484  13.273   1.506
31956SOL    HW197707   7.475  13.368   1.514
31956SOL    HW297708   7.525  13.259   1.421
31957SOL     OW97709   4.022   8.167   5.559
31957SOL    HW197710   4.001   8.260   5.547
31957SOL    HW297711   4.038   8.157   5.653
31958SOL     OW97712   4.198   1.234  11.571
31958SOL    HW197713   4.229   1.287  11.498
31958SOL    HW297714   4.151   1.296  11.627
31959SOL     OW97715   2.291   4.583  11.338
31959SOL    HW197716   2.223   4.580  11.405
31959SOL    HW297717   2.247   4.549  11.259
31960SOL     OW97718   6.826   1.065  14.309
31960SOL    HW197719   6.743   1.091  14.350
31960SOL    HW297720   6.814   1.086  14.216
31961SOL     OW97721   3.269  10.313  11.948
31961SOL    HW197722   3.296  10.284  12.034
31961SOL    HW297723   3.184  10.355  11.962
31962SOL     OW97724   3.765  13.782  10.622
31962SOL    HW197725   3.698  13.799  10.555
31962SOL    HW297726   3.831  13.730  10.578
31963SOL     OW97727   4.179   1.588  11.000
31963SOL    HW197728   4.116   1.558  11.065
31963SOL    HW297729   4.152   1.543  10.919
31964SOL     OW97730   2.541   5.002   3.710
31964SOL    HW197731   2.580   4.961   3.633
31964SOL    HW297732   2.615   5.014   3.770
31965SOL     OW97733  12.654   0.308   7.813
31965SOL    HW197734  12.656   0.331   7.720
31965SOL    HW297735  12.645   0.213   7.814
31966SOL     OW97736  10.646   2.865   2.663
31966SOL    HW197737  10.653   2.881   2.569
31966SOL    HW297738  10.578   2.926   2.693
31967SOL     OW97739  11.524   5.586   0.777
31967SOL    HW197740  11.554   5.510   0.828
31967SOL    HW297741  11.603   5.621   0.738
31968SOL     OW97742   9.334  11.989   7.894
31968SOL    HW197743   9.309  12.081   7.884
31968SOL    HW297744   9.263  11.950   7.945
31969SOL     OW97745   6.999   9.481  11.468
31969SOL    HW197746   6.918   9.484  11.417
31969SOL    HW297747   6.972   9.501  11.558
31970SOL     OW97748   1.366   9.306   4.368
31970SOL    HW197749   1.350   9.251   4.291
31970SOL    HW297750   1.460   9.300   4.383
31971SOL     OW97751  13.326   4.310  12.349
31971SOL    HW197752  13.289   4.386  12.395
31971SOL    HW297753  13.396   4.347  12.294
31972SOL     OW97754   8.969  12.509  10.861
31972SOL    HW197755   8.944  12.441  10.923
31972SOL    HW297756   9.044  12.553  10.902
31973SOL     OW97757   8.057   5.364   5.514
31973SOL    HW197758   8.016   5.335   5.595
31973SOL    HW297759   8.113   5.290   5.487
31974SOL     OW97760   9.154  13.931   0.490
31974SOL    HW197761   9.068  13.931   0.533
31974SOL    HW297762   9.145  13.869   0.418
31975SOL     OW97763   8.541   5.639  12.568
31975SOL    HW197764   8.496   5.708  12.519
31975SOL    HW297765   8.628   5.634  12.527
31976SOL     OW97766   5.888   5.431   4.768
31976SOL    HW197767   5.963   5.463   4.819
31976SOL    HW297768   5.817   5.425   4.832
31977SOL     OW97769   4.687   7.597  12.267
31977SOL    HW197770   4.748   7.622  12.337
31977SOL    HW297771   4.690   7.501  12.266
31978SOL     OW97772   8.197   5.165  12.697
31978SOL    HW197773   8.204   5.256  12.670
31978SOL    HW297774   8.126   5.129  12.644
31979SOL     OW97775  13.259   9.118  14.019
31979SOL    HW197776  13.208   9.148  13.943
31979SOL    HW297777  13.238   9.182  14.087
31980SOL     OW97778   2.300   8.467   2.194
31980SOL    HW197779   2.370   8.417   2.151
31980SOL    HW297780   2.346   8.536   2.242
31981SOL     OW97781   7.680   2.689   3.412
31981SOL    HW197782   7.771   2.701   3.439
31981SOL    HW297783   7.655   2.604   3.450
31982SOL     OW97784   3.265  11.953  14.014
31982SOL    HW197785   3.263  12.005  13.934
31982SOL    HW297786   3.195  11.989  14.069
31983SOL     OW97787  14.163   9.368   0.323
31983SOL    HW197788  14.152   9.286   0.277
31983SOL    HW297789  14.242   9.407   0.285
31984SOL     OW97790  10.172  11.407   3.215
31984SOL    HW197791  10.216  11.325   3.192
31984SOL    HW297792  10.164  11.405   3.310
31985SOL     OW97793   3.389   3.879   0.983
31985SOL    HW197794   3.410   3.804   0.927
31985SOL    HW297795   3.306   3.912   0.950
31986SOL     OW97796   1.325  13.640   5.765
31986SOL    HW197797   1.349  13.723   5.807
31986SOL    HW297798   1.271  13.665   5.690
31987SOL     OW97799   6.213  14.455   1.260
31987SOL    HW197800   6.141  14.403   1.225
31987SOL    HW297801   6.278  14.457   1.190
31988SOL     OW97802   5.127   5.315   3.423
31988SOL    HW197803   5.086   5.229   3.418
31988SOL    HW297804   5.218   5.298   3.448
31989SOL     OW97805  11.307   2.327   9.078
31989SOL    HW197806  11.226   2.307   9.124
31989SOL    HW297807  11.324   2.250   9.024
31990SOL     OW97808   2.777  13.013  10.914
31990SOL    HW197809   2.871  13.030  10.911
31990SOL    HW297810   2.765  12.954  10.988
31991SOL     OW97811   5.761   2.008   9.096
31991SOL    HW197812   5.833   2.009   9.159
31991SOL    HW297813   5.720   1.923   9.108
31992SOL     OW97814   1.633   8.946   6.507
31992SOL    HW197815   1.588   9.027   6.485
31992SOL    HW297816   1.704   8.940   6.443
31993SOL     OW97817   7.964   1.138   3.305
31993SOL    HW197818   7.897   1.072   3.323
31993SOL    HW297819   7.989   1.171   3.392
31994SOL     OW97820   1.324  13.128  14.070
31994SOL    HW197821   1.277  13.210  14.085
31994SOL    HW297822   1.308  13.076  14.149
31995SOL     OW97823   9.498   6.444   1.180
31995SOL    HW197824   9.505   6.363   1.231
31995SOL    HW297825   9.511   6.514   1.244
31996SOL     OW97826   2.920   7.351   7.132
31996SOL    HW197827   2.877   7.319   7.211
31996SOL    HW297828   2.929   7.445   7.146
31997SOL     OW97829   2.594   8.750   3.315
31997SOL    HW197830   2.512   8.798   3.324
31997SOL    HW297831   2.570   8.659   3.333
31998SOL     OW97832  10.388  13.142   3.155
31998SOL    HW197833  10.432  13.165   3.237
31998SOL    HW297834  10.307  13.100   3.182
31999SOL     OW97835   1.844   4.211   9.547
31999SOL    HW197836   1.759   4.229   9.508
31999SOL    HW297837   1.829   4.138   9.606
32000SOL     OW97838   1.451   5.440   9.606
32000SOL    HW197839   1.511   5.504   9.644
32000SOL    HW297840   1.371   5.491   9.588
32001SOL     OW97841  10.788  12.027   6.188
32001SOL    HW197842  10.766  12.120   6.189
32001SOL    HW297843  10.870  12.022   6.140
32002SOL     OW97844   5.456  12.164   0.309
32002SOL    HW197845   5.368  12.194   0.288
32002SOL    HW297846   5.442  12.092   0.372
32003SOL     OW97847  14.175   2.280   7.614
32003SOL    HW197848  14.194   2.372   7.598
32003SOL    HW297849  14.236   2.255   7.684
32004SOL     OW97850  14.361   3.358  12.778
32004SOL    HW197851  14.371   3.388  12.869
32004SOL    HW297852  14.440   3.308  12.760
32005SOL     OW97853   2.974  14.569  12.599
32005SOL    HW197854   2.989  14.503  12.666
32005SOL    HW297855   3.035  14.639  12.619
32006SOL     OW97856  11.241   3.787   3.104
32006SOL    HW197857  11.214   3.879   3.106
32006SOL    HW297858  11.256   3.764   3.195
32007SOL     OW97859  14.188   3.321   4.841
32007SOL    HW197860  14.221   3.406   4.812
32007SOL    HW297861  14.095   3.323   4.820
32008SOL     OW97862   9.370   9.192  10.033
32008SOL    HW197863   9.420   9.161   9.958
32008SOL    HW297864   9.358   9.115  10.088
32009SOL     OW97865   6.829   6.241   5.996
32009SOL    HW197866   6.810   6.223   6.088
32009SOL    HW297867   6.753   6.289   5.965
32010SOL     OW97868   8.294   4.421   3.467
32010SOL    HW197869   8.351   4.470   3.407
32010SOL    HW297870   8.317   4.454   3.554
32011SOL     OW97871   5.827  12.190  12.901
32011SOL    HW197872   5.866  12.162  12.984
32011SOL    HW297873   5.899  12.182  12.838
32012SOL     OW97874   7.299  10.607   7.996
32012SOL    HW197875   7.241  10.563   8.058
32012SOL    HW297876   7.328  10.537   7.938
32013SOL     OW97877  10.389   4.269  14.464
32013SOL    HW197878  10.482   4.274  14.441
32013SOL    HW297879  10.366   4.178  14.449
32014SOL     OW97880   7.818  10.579   3.192
32014SOL    HW197881   7.809  10.606   3.100
32014SOL    HW297882   7.904  10.612   3.217
32015SOL     OW97883   1.599   8.908  14.058
32015SOL    HW197884   1.527   8.948  14.108
32015SOL    HW297885   1.677   8.927  14.110
32016SOL     OW97886   9.544  10.931  11.259
32016SOL    HW197887   9.487  10.883  11.318
32016SOL    HW297888   9.534  11.023  11.285
32017SOL     OW97889   6.780   0.435  13.793
32017SOL    HW197890   6.699   0.446  13.842
32017SOL    HW297891   6.816   0.351  13.824
32018SOL     OW97892   6.252  13.014   8.701
32018SOL    HW197893   6.164  13.048   8.714
32018SOL    HW297894   6.242  12.941   8.640
32019SOL     OW97895   3.876   8.347  10.649
32019SOL    HW197896   3.797   8.377  10.604
32019SOL    HW297897   3.912   8.279  10.592
32020SOL     OW97898   7.994   4.440  12.944
32020SOL    HW197899   8.027   4.368  12.891
32020SOL    HW297900   8.003   4.517  12.887
32021SOL     OW97901   7.615   6.430  13.620
32021SOL    HW197902   7.680   6.496  13.646
32021SOL    HW297903   7.554   6.427  13.694
32022SOL     OW97904   1.508   5.144  14.523
32022SOL    HW197905   1.581   5.169  14.579
32022SOL    HW297906   1.431   5.182  14.565
32023SOL     OW97907   8.949   9.742   8.060
32023SOL    HW197908   8.866   9.756   8.105
32023SOL    HW297909   8.924   9.728   7.968
32024SOL     OW97910   4.092  13.256   6.199
32024SOL    HW197911   4.104  13.237   6.106
32024SOL    HW297912   4.152  13.328   6.217
32025SOL     OW97913  10.731  13.883   3.141
32025SOL    HW197914  10.748  13.819   3.211
32025SOL    HW297915  10.812  13.933   3.135
32026SOL     OW97916   4.336   0.773  10.249
32026SOL    HW197917   4.370   0.861  10.265
32026SOL    HW297918   4.406   0.729  10.200
32027SOL     OW97919   4.350   1.111   8.200
32027SOL    HW197920   4.370   1.158   8.281
32027SOL    HW297921   4.276   1.054   8.224
32028SOL     OW97922   6.008   0.855   1.913
32028SOL    HW197923   5.914   0.872   1.914
32028SOL    HW297924   6.043   0.907   1.985
32029SOL     OW97925   5.337   4.262   6.852
32029SOL    HW197926   5.340   4.350   6.814
32029SOL    HW297927   5.419   4.221   6.823
32030SOL     OW97928  12.949  13.996   6.202
32030SOL    HW197929  12.940  14.064   6.269
32030SOL    HW297930  12.965  13.916   6.253
32031SOL     OW97931  11.769  12.900   9.355
32031SOL    HW197932  11.723  12.982   9.335
32031SOL    HW297933  11.832  12.924   9.423
32032SOL     OW97934   8.519   0.388  14.775
32032SOL    HW197935   8.455   0.327  14.738
32032SOL    HW297936   8.559   0.429  14.699
32033SOL     OW97937   8.550   8.688   9.783
32033SOL    HW197938   8.464   8.645   9.785
32033SOL    HW297939   8.609   8.623   9.748
32034SOL     OW97940   8.327   6.175   9.036
32034SOL    HW197941   8.340   6.082   9.017
32034SOL    HW297942   8.282   6.175   9.121
32035SOL     OW97943  10.258   0.425   8.618
32035SOL    HW197944  10.246   0.333   8.642
32035SOL    HW297945  10.213   0.474   8.687
32036SOL     OW97946   3.900  13.643   6.431
32036SOL    HW197947   3.942  13.707   6.489
32036SOL    HW297948   3.835  13.693   6.382
32037SOL     OW97949   0.814  13.309   2.275
32037SOL    HW197950   0.764  13.340   2.199
32037SOL    HW297951   0.752  13.255   2.323
32038SOL     OW97952  13.264   8.563   4.740
32038SOL    HW197953  13.203   8.511   4.688
32038SOL    HW297954  13.286   8.637   4.683
32039SOL     OW97955   9.903   3.047   9.031
32039SOL    HW197956   9.990   3.048   8.991
32039SOL    HW297957   9.872   2.958   9.017
32040SOL     OW97958   5.133   9.697  11.984
32040SOL    HW197959   5.059   9.675  12.041
32040SOL    HW297960   5.195   9.742  12.043
32041SOL     OW97961   4.916  11.214  10.681
32041SOL    HW197962   4.989  11.237  10.738
32041SOL    HW297963   4.841  11.259  10.719
32042SOL     OW97964   9.634   3.364   7.389
32042SOL    HW197965   9.582   3.308   7.331
32042SOL    HW297966   9.709   3.310   7.414
32043SOL     OW97967   8.379  12.062   6.449
32043SOL    HW197968   8.299  12.098   6.411
32043SOL    HW297969   8.435  12.042   6.373
32044SOL     OW97970  11.588   6.620  13.448
32044SOL    HW197971  11.585   6.715  13.433
32044SOL    HW297972  11.677   6.603  13.477
32045SOL     OW97973  11.045   8.703   0.993
32045SOL    HW197974  10.989   8.660   0.928
32045SOL    HW297975  11.024   8.796   0.985
32046SOL     OW97976   4.063  12.952  13.876
32046SOL    HW197977   4.066  12.932  13.782
32046SOL    HW297978   4.155  12.958  13.902
32047SOL     OW97979   0.530   1.863   0.189
32047SOL    HW197980   0.511   1.823   0.274
32047SOL    HW297981   0.521   1.792   0.126
32048SOL     OW97982   6.079   0.190   2.646
32048SOL    HW197983   6.046   0.207   2.557
32048SOL    HW297984   6.174   0.195   2.637
32049SOL     OW97985   9.230  14.010  13.918
32049SOL    HW197986   9.304  13.977  13.868
32049SOL    HW297987   9.161  14.024  13.853
32050SOL     OW97988  11.861   3.542   8.732
32050SOL    HW197989  11.912   3.623   8.731
32050SOL    HW297990  11.802   3.550   8.657
32051SOL     OW97991   0.175  14.767   0.893
32051SOL    HW197992   0.196  14.857   0.919
32051SOL    HW297993   0.087  14.774   0.855
32052SOL     OW97994  11.651  12.601   4.881
32052SOL    HW197995  11.626  12.514   4.848
32052SOL    HW297996  11.576  12.657   4.861
32053SOL     OW97997   8.822   5.217   1.894
32053SOL    HW197998   8.748   5.158   1.907
32053SOL    HW297999   8.885   5.165   1.843
32054SOL     OW98000   7.494   3.279   7.435
32054SOL    HW198001   7.466   3.241   7.518
32054SOL    HW298002   7.425   3.256   7.373
32055SOL     OW98003   3.983  14.005  10.694
32055SOL    HW198004   3.900  13.960  10.711
32055SOL    HW298005   3.971  14.092  10.733
32056SOL     OW98006   0.474   8.262  14.817
32056SOL    HW198007   0.397   8.214  14.850
32056SOL    HW298008   0.524   8.197  14.769
32057SOL     OW98009   4.436   1.667   6.372
32057SOL    HW198010   4.358   1.624   6.408
32057SOL    HW298011   4.433   1.755   6.409
32058SOL     OW98012  12.196   1.634   8.388
32058SOL    HW198013  12.143   1.703   8.427
32058SOL    HW298014  12.197   1.655   8.294
32059SOL     OW98015   1.247  12.160   6.079
32059SOL    HW198016   1.186  12.094   6.113
32059SOL    HW298017   1.332  12.116   6.077
32060SOL     OW98018   3.981   4.212  12.415
32060SOL    HW198019   4.021   4.139  12.461
32060SOL    HW298020   3.889   4.210  12.441
32061SOL     OW98021   5.163   1.752  10.371
32061SOL    HW198022   5.137   1.753  10.279
32061SOL    HW298023   5.148   1.661  10.399
32062SOL     OW98024   2.085  14.156   4.343
32062SOL    HW198025   2.170  14.147   4.387
32062SOL    HW298026   2.092  14.237   4.292
32063SOL     OW98027  11.433   0.875   7.029
32063SOL    HW198028  11.362   0.884   7.093
32063SOL    HW298029  11.503   0.830   7.076
32064SOL     OW98030   2.049   3.065   9.213
32064SOL    HW198031   2.094   3.050   9.297
32064SOL    HW298032   1.957   3.071   9.235
32065SOL     OW98033   3.021  13.543  13.341
32065SOL    HW198034   3.069  13.616  13.302
32065SOL    HW298035   2.954  13.521  13.276
32066SOL     OW98036  14.017  11.118   8.676
32066SOL    HW198037  14.048  11.123   8.766
32066SOL    HW298038  13.999  11.209   8.651
32067SOL     OW98039  11.592   5.179  14.418
32067SOL    HW198040  11.513   5.233  14.426
32067SOL    HW298041  11.599   5.162  14.324
32068SOL     OW98042   3.141   9.572  13.553
32068SOL    HW198043   3.204   9.609  13.614
32068SOL    HW298044   3.178   9.487  13.528
32069SOL     OW98045   4.804   5.506   1.089
32069SOL    HW198046   4.766   5.548   1.012
32069SOL    HW298047   4.804   5.574   1.156
32070SOL     OW98048   1.156  14.335   4.538
32070SOL    HW198049   1.164  14.263   4.476
32070SOL    HW298050   1.236  14.386   4.525
32071SOL     OW98051   4.347  10.206   8.319
32071SOL    HW198052   4.339  10.113   8.337
32071SOL    HW298053   4.402  10.240   8.389
32072SOL     OW98054  13.338   4.728   1.136
32072SOL    HW198055  13.369   4.730   1.046
32072SOL    HW298056  13.277   4.655   1.139
32073SOL     OW98057  10.360  10.096   3.674
32073SOL    HW198058  10.314  10.079   3.592
32073SOL    HW298059  10.312  10.045   3.739
32074SOL     OW98060   9.449   0.850   8.774
32074SOL    HW198061   9.382   0.914   8.801
32074SOL    HW298062   9.399   0.782   8.729
32075SOL     OW98063   6.701   6.800   6.778
32075SOL    HW198064   6.728   6.726   6.833
32075SOL    HW298065   6.778   6.818   6.724
32076SOL     OW98066   1.237   6.369  11.338
32076SOL    HW198067   1.226   6.356  11.432
32076SOL    HW298068   1.212   6.285  11.299
32077SOL     OW98069   9.348  14.009   3.436
32077SOL    HW198070   9.290  13.937   3.415
32077SOL    HW298071   9.405  13.975   3.505
32078SOL     OW98072   2.233  12.046   5.561
32078SOL    HW198073   2.221  11.976   5.625
32078SOL    HW298074   2.154  12.041   5.506
32079SOL     OW98075   8.783   4.768  14.039
32079SOL    HW198076   8.776   4.673  14.037
32079SOL    HW298077   8.847   4.789  13.971
32080SOL     OW98078   4.374  10.325  12.875
32080SOL    HW198079   4.287  10.304  12.910
32080SOL    HW298080   4.417  10.240  12.865
32081SOL     OW98081   7.003  10.623   7.808
32081SOL    HW198082   7.089  10.660   7.831
32081SOL    HW298083   6.972  10.678   7.736
32082SOL     OW98084   8.647   4.666  12.034
32082SOL    HW198085   8.579   4.600  12.022
32082SOL    HW298086   8.682   4.649  12.121
32083SOL     OW98087  12.319  12.598   7.544
32083SOL    HW198088  12.357  12.604   7.456
32083SOL    HW298089  12.301  12.505   7.556
32084SOL     OW98090  12.166   4.497   7.594
32084SOL    HW198091  12.259   4.475   7.598
32084SOL    HW298092  12.123   4.414   7.575
32085SOL     OW98093   2.098   9.431   7.294
32085SOL    HW198094   2.153   9.499   7.256
32085SOL    HW298095   2.119   9.433   7.388
32086SOL     OW98096  14.191   8.225   7.288
32086SOL    HW198097  14.252   8.159   7.255
32086SOL    HW298098  14.201   8.298   7.227
32087SOL     OW98099  14.682  11.770   1.309
32087SOL    HW198100  14.678  11.724   1.392
32087SOL    HW298101  14.595  11.760   1.271
32088SOL     OW98102   1.125   7.554   2.098
32088SOL    HW198103   1.167   7.552   2.184
32088SOL    HW298104   1.195   7.580   2.038
32089SOL     OW98105   4.645   8.714  11.546
32089SOL    HW198106   4.701   8.651  11.501
32089SOL    HW298107   4.589   8.660  11.602
32090SOL     OW98108  10.502   6.563   9.452
32090SOL    HW198109  10.486   6.547   9.545
32090SOL    HW298110  10.471   6.652   9.438
32091SOL     OW98111   6.117   0.962   4.839
32091SOL    HW198112   6.038   0.912   4.859
32091SOL    HW298113   6.097   1.052   4.864
32092SOL     OW98114   3.778  14.437   1.565
32092SOL    HW198115   3.755  14.347   1.544
32092SOL    HW298116   3.871  14.435   1.584
32093SOL     OW98117  13.685   8.720  12.065
32093SOL    HW198118  13.780   8.713  12.079
32093SOL    HW298119  13.647   8.707  12.152
32094SOL     OW98120   6.474   1.566  10.108
32094SOL    HW198121   6.491   1.620  10.186
32094SOL    HW298122   6.386   1.532  10.122
32095SOL     OW98123  13.458  13.645  12.383
32095SOL    HW198124  13.380  13.632  12.437
32095SOL    HW298125  13.531  13.645  12.445
32096SOL     OW98126   7.711   5.282  12.822
32096SOL    HW198127   7.642   5.325  12.772
32096SOL    HW298128   7.672   5.266  12.908
32097SOL     OW98129   5.466  11.022   7.277
32097SOL    HW198130   5.456  11.115   7.255
32097SOL    HW298131   5.422  10.975   7.207
32098SOL     OW98132   7.937   8.050   9.875
32098SOL    HW198133   7.999   8.072   9.806
32098SOL    HW298134   7.972   8.092   9.953
32099SOL     OW98135  13.660  11.542   8.182
32099SOL    HW198136  13.650  11.457   8.141
32099SOL    HW298137  13.728  11.586   8.130
32100SOL     OW98138  12.023  10.309   8.003
32100SOL    HW198139  12.086  10.349   7.944
32100SOL    HW298140  12.044  10.345   8.089
32101SOL     OW98141  14.384   9.980  12.882
32101SOL    HW198142  14.450   9.994  12.950
32101SOL    HW298143  14.350   9.892  12.899
32102SOL     OW98144  14.178   2.199  12.728
32102SOL    HW198145  14.169   2.104  12.736
32102SOL    HW298146  14.171   2.216  12.634
32103SOL     OW98147   2.762   9.111  11.459
32103SOL    HW198148   2.675   9.114  11.418
32103SOL    HW298149   2.801   9.030  11.426
32104SOL     OW98150   2.919   7.474  13.918
32104SOL    HW198151   2.993   7.533  13.928
32104SOL    HW298152   2.958   7.386  13.923
32105SOL     OW98153   4.151  10.462   5.475
32105SOL    HW198154   4.185  10.530   5.416
32105SOL    HW298155   4.199  10.383   5.450
32106SOL     OW98156  10.575  10.460  10.715
32106SOL    HW198157  10.630  10.480  10.791
32106SOL    HW298158  10.494  10.425  10.753
32107SOL     OW98159  14.117   9.892   0.620
32107SOL    HW198160  14.182   9.950   0.660
32107SOL    HW298161  14.111   9.922   0.529
32108SOL     OW98162  10.758   8.902   7.632
32108SOL    HW198163  10.812   8.890   7.554
32108SOL    HW298164  10.670   8.874   7.605
32109SOL     OW98165   2.667   8.025   0.411
32109SOL    HW198166   2.631   7.936   0.412
32109SOL    HW298167   2.625   8.067   0.336
32110SOL     OW98168   6.735   0.843   3.861
32110SOL    HW198169   6.770   0.799   3.938
32110SOL    HW298170   6.667   0.901   3.895
32111SOL     OW98171  14.870   7.365   5.088
32111SOL    HW198172  14.825   7.450   5.091
32111SOL    HW298173  14.806   7.303   5.122
32112SOL     OW98174   9.213   5.688   3.309
32112SOL    HW198175   9.219   5.728   3.222
32112SOL    HW298176   9.293   5.716   3.354
32113SOL     OW98177  10.695   6.734   9.669
32113SOL    HW198178  10.717   6.753   9.760
32113SOL    HW298179  10.729   6.808   9.619
32114SOL     OW98180  12.041   3.944  12.851
32114SOL    HW198181  12.114   3.917  12.907
32114SOL    HW298182  12.083   3.989  12.778
32115SOL     OW98183   3.152   2.293   5.336
32115SOL    HW198184   3.192   2.266   5.254
32115SOL    HW298185   3.219   2.347   5.379
32116SOL     OW98186  12.203  11.161   7.359
32116SOL    HW198187  12.201  11.189   7.267
32116SOL    HW298188  12.123  11.196   7.396
32117SOL     OW98189   9.279   9.610   5.506
32117SOL    HW198190   9.202   9.606   5.449
32117SOL    HW298191   9.334   9.537   5.478
32118SOL     OW98192   1.806  14.598   7.480
32118SOL    HW198193   1.769  14.512   7.502
32118SOL    HW298194   1.868  14.616   7.550
32119SOL     OW98195  13.604   8.801   7.999
32119SOL    HW198196  13.588   8.797   7.905
32119SOL    HW298197  13.517   8.791   8.038
32120SOL     OW98198  14.464  13.992   7.159
32120SOL    HW198199  14.484  14.086   7.158
32120SOL    HW298200  14.513  13.955   7.086
32121SOL     OW98201   9.191  14.742   5.438
32121SOL    HW198202   9.222  14.697   5.360
32121SOL    HW298203   9.181  14.833   5.411
32122SOL     OW98204   0.150  13.137   9.725
32122SOL    HW198205   0.108  13.200   9.783
32122SOL    HW298206   0.226  13.105   9.774
32123SOL     OW98207   3.270   3.623  14.056
32123SOL    HW198208   3.278   3.528  14.062
32123SOL    HW298209   3.347   3.657  14.102
32124SOL     OW98210  12.386  10.757  14.847
32124SOL    HW198211  12.391  10.702  14.768
32124SOL    HW298212  12.305  10.807  14.836
32125SOL     OW98213   9.935  14.201   6.746
32125SOL    HW198214   9.923  14.273   6.807
32125SOL    HW298215   9.904  14.124   6.794
32126SOL     OW98216   5.887   2.846   9.298
32126SOL    HW198217   5.815   2.907   9.310
32126SOL    HW298218   5.886   2.826   9.204
32127SOL     OW98219  14.445  11.129   1.783
32127SOL    HW198220  14.396  11.067   1.837
32127SOL    HW298221  14.492  11.183   1.846
32128SOL     OW98222   1.264   5.116   0.262
32128SOL    HW198223   1.305   5.099   0.177
32128SOL    HW298224   1.271   5.033   0.309
32129SOL     OW98225  11.861   1.738   0.607
32129SOL    HW198226  11.875   1.797   0.681
32129SOL    HW298227  11.946   1.697   0.592
32130SOL     OW98228  10.047  11.949   5.749
32130SOL    HW198229  10.034  11.854   5.754
32130SOL    HW298230  10.019  11.972   5.660
32131SOL     OW98231  10.097   4.848   8.089
32131SOL    HW198232  10.186   4.844   8.052
32131SOL    HW298233  10.069   4.938   8.073
32132SOL     OW98234   7.769   8.584   3.838
32132SOL    HW198235   7.706   8.587   3.766
32132SOL    HW298236   7.848   8.546   3.799
32133SOL     OW98237   4.858   2.550   9.614
32133SOL    HW198238   4.952   2.548   9.597
32133SOL    HW298239   4.848   2.611   9.688
32134SOL     OW98240   7.260   6.641   5.581
32134SOL    HW198241   7.200   6.619   5.509
32134SOL    HW298242   7.308   6.560   5.597
32135SOL     OW98243   1.685   5.840   4.159
32135SOL    HW198244   1.768   5.886   4.169
32135SOL    HW298245   1.680   5.782   4.235
32136SOL     OW98246   5.173  12.730   2.713
32136SOL    HW198247   5.113  12.778   2.769
32136SOL    HW298248   5.143  12.748   2.624
32137SOL     OW98249   9.266   5.995   5.211
32137SOL    HW198250   9.293   5.903   5.215
32137SOL    HW298251   9.221   6.010   5.294
32138SOL     OW98252  14.177   7.492   0.901
32138SOL    HW198253  14.232   7.446   0.838
32138SOL    HW298254  14.194   7.585   0.886
32139SOL     OW98255  13.207   1.728   0.610
32139SOL    HW198256  13.233   1.723   0.702
32139SOL    HW298257  13.118   1.765   0.612
32140SOL     OW98258   8.465   1.853  13.049
32140SOL    HW198259   8.551   1.873  13.086
32140SOL    HW298260   8.485   1.809  12.966
32141SOL     OW98261   1.628  11.279  14.529
32141SOL    HW198262   1.688  11.237  14.591
32141SOL    HW298263   1.616  11.214  14.459
32142SOL     OW98264  10.358   5.453   0.327
32142SOL    HW198265  10.350   5.481   0.236
32142SOL    HW298266  10.298   5.379   0.335
32143SOL     OW98267  12.282   5.479   9.275
32143SOL    HW198268  12.276   5.398   9.325
32143SOL    HW298269  12.295   5.547   9.341
32144SOL     OW98270   8.605  12.061   7.259
32144SOL    HW198271   8.691  12.026   7.232
32144SOL    HW298272   8.564  11.990   7.308
32145SOL     OW98273   3.790   3.253   9.940
32145SOL    HW198274   3.734   3.314   9.892
32145SOL    HW298275   3.816   3.301  10.019
32146SOL     OW98276   7.123   9.513   5.091
32146SOL    HW198277   7.099   9.489   5.002
32146SOL    HW298278   7.039   9.518   5.138
32147SOL     OW98279   8.039   3.101  14.586
32147SOL    HW198280   8.085   3.174  14.627
32147SOL    HW298281   8.066   3.024  14.636
32148SOL     OW98282  13.688  10.060   4.233
32148SOL    HW198283  13.719  10.037   4.321
32148SOL    HW298284  13.626   9.990   4.210
32149SOL     OW98285  13.029   5.116  11.793
32149SOL    HW198286  12.954   5.101  11.736
32149SOL    HW298287  13.102   5.075  11.747
32150SOL     OW98288  11.800   5.414  12.407
32150SOL    HW198289  11.723   5.470  12.397
32150SOL    HW298290  11.766   5.333  12.445
32151SOL     OW98291  13.072  11.423   3.789
32151SOL    HW198292  13.125  11.344   3.788
32151SOL    HW298293  13.123  11.487   3.739
32152SOL     OW98294  10.120   1.535   9.821
32152SOL    HW198295  10.074   1.501   9.898
32152SOL    HW298296  10.066   1.508   9.747
32153SOL     OW98297  14.023  10.654  10.575
32153SOL    HW198298  13.963  10.678  10.646
32153SOL    HW298299  13.967  10.615  10.508
32154SOL     OW98300  14.183  14.872   1.432
32154SOL    HW198301  14.181   0.040   1.517
32154SOL    HW298302  14.114  14.806   1.438
32155SOL     OW98303   0.070   0.994   8.590
32155SOL    HW198304  14.858   0.983   8.555
32155SOL    HW298305   0.101   1.077   8.553
32156SOL     OW98306   8.091   2.930   9.386
32156SOL    HW198307   8.123   2.916   9.297
32156SOL    HW298308   8.064   2.843   9.415
32157SOL     OW98309  12.637   6.842   2.445
32157SOL    HW198310  12.730   6.862   2.454
32157SOL    HW298311  12.629   6.804   2.357
32158SOL     OW98312  14.482   6.098   5.067
32158SOL    HW198313  14.451   6.067   5.152
32158SOL    HW298314  14.489   6.018   5.014
32159SOL     OW98315   6.156  10.209   9.635
32159SOL    HW198316   6.149  10.185   9.543
32159SOL    HW298317   6.186  10.300   9.635
32160SOL     OW98318   2.305   4.093   3.277
32160SOL    HW198319   2.332   4.001   3.272
32160SOL    HW298320   2.223   4.091   3.327
32161SOL     OW98321   6.859  11.332   0.418
32161SOL    HW198322   6.876  11.278   0.342
32161SOL    HW298323   6.773  11.304   0.449
32162SOL     OW98324  11.641  13.985   3.578
32162SOL    HW198325  11.650  13.890   3.574
32162SOL    HW298326  11.709  14.018   3.520
32163SOL     OW98327  13.841   0.848   5.766
32163SOL    HW198328  13.747   0.862   5.776
32163SOL    HW298329  13.881   0.929   5.798
32164SOL     OW98330   6.880  11.623   7.550
32164SOL    HW198331   6.852  11.572   7.626
32164SOL    HW298332   6.918  11.559   7.490
32165SOL     OW98333   4.312   1.756   3.836
32165SOL    HW198334   4.320   1.767   3.741
32165SOL    HW298335   4.366   1.679   3.856
32166SOL     OW98336   0.006  11.813   6.153
32166SOL    HW198337   0.036  11.878   6.088
32166SOL    HW298338   0.046  11.842   6.235
32167SOL     OW98339   1.684   4.877   0.336
32167SOL    HW198340   1.644   4.893   0.421
32167SOL    HW298341   1.776   4.861   0.356
32168SOL     OW98342   8.311   2.064   1.101
32168SOL    HW198343   8.221   2.046   1.129
32168SOL    HW298344   8.316   2.159   1.094
32169SOL     OW98345   5.116   0.336  13.393
32169SOL    HW198346   5.169   0.264  13.360
32169SOL    HW298347   5.101   0.391  13.316
32170SOL     OW98348  12.270   0.849   4.393
32170SOL    HW198349  12.276   0.932   4.345
32170SOL    HW298350  12.238   0.786   4.328
32171SOL     OW98351  12.420   9.280   5.821
32171SOL    HW198352  12.476   9.230   5.761
32171SOL    HW298353  12.351   9.219   5.847
32172SOL     OW98354   8.885   3.507   4.606
32172SOL    HW198355   8.813   3.486   4.665
32172SOL    HW298356   8.938   3.427   4.603
32173SOL     OW98357   2.110  10.258   6.402
32173SOL    HW198358   2.115  10.226   6.312
32173SOL    HW298359   2.037  10.321   6.401
32174SOL     OW98360   7.786   1.647   9.762
32174SOL    HW198361   7.806   1.698   9.840
32174SOL    HW298362   7.872   1.627   9.724
32175SOL     OW98363   7.067  13.672   8.978
32175SOL    HW198364   7.051  13.747   9.035
32175SOL    HW298365   7.024  13.695   8.895
32176SOL     OW98366   0.071  11.485   1.080
32176SOL    HW198367   0.075  11.424   1.006
32176SOL    HW298368   0.159  11.480   1.120
32177SOL     OW98369  12.086   0.874   1.641
32177SOL    HW198370  12.093   0.938   1.711
32177SOL    HW298371  12.026   0.807   1.675
32178SOL     OW98372   2.813   9.466   7.316
32178SOL    HW198373   2.785   9.496   7.403
32178SOL    HW298374   2.757   9.390   7.298
32179SOL     OW98375   8.315   5.718   3.114
32179SOL    HW198376   8.333   5.629   3.084
32179SOL    HW298377   8.223   5.733   3.090
32180SOL     OW98378   7.380   1.563   8.690
32180SOL    HW198379   7.464   1.608   8.698
32180SOL    HW298380   7.357   1.572   8.598
32181SOL     OW98381  12.860   0.352  13.624
32181SOL    HW198382  12.872   0.339  13.718
32181SOL    HW298383  12.904   0.435  13.605
32182SOL     OW98384   3.677   8.042   8.041
32182SOL    HW198385   3.679   8.032   7.946
32182SOL    HW298386   3.761   8.009   8.071
32183SOL     OW98387   1.775   1.096   6.506
32183SOL    HW198388   1.807   1.153   6.437
32183SOL    HW298389   1.746   1.155   6.575
32184SOL     OW98390   1.771   2.869  12.092
32184SOL    HW198391   1.738   2.808  12.026
32184SOL    HW298392   1.750   2.827  12.176
32185SOL     OW98393   6.103  10.423   5.736
32185SOL    HW198394   6.136  10.335   5.718
32185SOL    HW298395   6.179  10.473   5.765
32186SOL     OW98396   9.886  10.442   2.163
32186SOL    HW198397   9.935  10.451   2.082
32186SOL    HW298398   9.822  10.514   2.160
32187SOL     OW98399   3.039   3.582   2.275
32187SOL    HW198400   3.007   3.590   2.365
32187SOL    HW298401   3.020   3.666   2.235
32188SOL     OW98402  12.993   2.228   9.277
32188SOL    HW198403  13.054   2.278   9.223
32188SOL    HW298404  13.023   2.241   9.367
32189SOL     OW98405   1.507   2.221   2.289
32189SOL    HW198406   1.515   2.252   2.379
32189SOL    HW298407   1.550   2.135   2.289
32190SOL     OW98408  11.496   2.475   4.901
32190SOL    HW198409  11.406   2.461   4.930
32190SOL    HW298410  11.488   2.500   4.809
32191SOL     OW98411   6.852  13.650   7.774
32191SOL    HW198412   6.883  13.585   7.837
32191SOL    HW298413   6.807  13.715   7.827
32192SOL     OW98414   4.470   7.752  10.101
32192SOL    HW198415   4.442   7.809  10.029
32192SOL    HW298416   4.487   7.812  10.174
32193SOL     OW98417   7.219   4.704   4.924
32193SOL    HW198418   7.213   4.641   4.852
32193SOL    HW298419   7.280   4.771   4.892
32194SOL     OW98420   0.847  11.961  13.571
32194SOL    HW198421   0.842  11.894  13.503
32194SOL    HW298422   0.756  11.990  13.582
32195SOL     OW98423   5.917   0.001   7.344
32195SOL    HW198424   5.920   0.084   7.391
32195SOL    HW298425   5.975  14.820   7.393
32196SOL     OW98426   3.987   1.113   1.562
32196SOL    HW198427   3.992   1.061   1.642
32196SOL    HW298428   3.936   1.190   1.587
32197SOL     OW98429  10.754  14.180   6.763
32197SOL    HW198430  10.830  14.223   6.801
32197SOL    HW298431  10.710  14.249   6.712
32198SOL     OW98432   9.291   6.518  12.901
32198SOL    HW198433   9.248   6.467  12.969
32198SOL    HW298434   9.341   6.585  12.948
32199SOL     OW98435   1.523  11.998   7.225
32199SOL    HW198436   1.520  11.922   7.168
32199SOL    HW298437   1.447  12.051   7.198
32200SOL     OW98438  10.164  12.250  11.584
32200SOL    HW198439  10.258  12.265  11.590
32200SOL    HW298440  10.153  12.182  11.518
32201SOL     OW98441   0.910   8.951   1.956
32201SOL    HW198442   0.920   8.857   1.940
32201SOL    HW298443   0.829   8.958   2.007
32202SOL     OW98444   0.043  10.422   8.554
32202SOL    HW198445   0.117  10.481   8.572
32202SOL    HW298446  14.851  10.449   8.616
32203SOL     OW98447   3.612  11.315   0.295
32203SOL    HW198448   3.611  11.328   0.201
32203SOL    HW298449   3.535  11.261   0.313
32204SOL     OW98450   5.896  10.808  14.076
32204SOL    HW198451   5.854  10.737  14.026
32204SOL    HW298452   5.934  10.865  14.010
32205SOL     OW98453  13.255   3.566   2.362
32205SOL    HW198454  13.246   3.646   2.415
32205SOL    HW298455  13.349   3.558   2.346
32206SOL     OW98456   8.580  13.630   7.817
32206SOL    HW198457   8.587  13.553   7.761
32206SOL    HW298458   8.652  13.623   7.879
32207SOL     OW98459  13.322   8.708  13.059
32207SOL    HW198460  13.330   8.753  13.143
32207SOL    HW298461  13.272   8.768  13.004
32208SOL     OW98462   3.619   1.995   7.052
32208SOL    HW198463   3.565   1.947   6.990
32208SOL    HW298464   3.568   2.074   7.073
32209SOL     OW98465   1.869   2.301   5.631
32209SOL    HW198466   1.914   2.359   5.569
32209SOL    HW298467   1.827   2.235   5.576
32210SOL     OW98468   2.374   1.281  12.305
32210SOL    HW198469   2.353   1.216  12.372
32210SOL    HW298470   2.410   1.355  12.353
32211SOL     OW98471   6.260   9.760   7.705
32211SOL    HW198472   6.212   9.721   7.778
32211SOL    HW298473   6.200   9.826   7.670
32212SOL     OW98474   3.537  14.850   3.494
32212SOL    HW198475   3.446  14.826   3.511
32212SOL    HW298476   3.585  14.819   3.571
32213SOL     OW98477  12.693  11.732   0.235
32213SOL    HW198478  12.701  11.808   0.292
32213SOL    HW298479  12.718  11.658   0.290
32214SOL     OW98480  14.667   1.035   4.628
32214SOL    HW198481  14.760   1.051   4.612
32214SOL    HW298482  14.667   0.964   4.693
32215SOL     OW98483   8.398   4.904   6.849
32215SOL    HW198484   8.359   4.819   6.829
32215SOL    HW298485   8.440   4.892   6.934
32216SOL     OW98486  10.022   6.141   2.825
32216SOL    HW198487   9.988   6.051   2.823
32216SOL    HW298488   9.950   6.193   2.860
32217SOL     OW98489  12.123   7.329   6.172
32217SOL    HW198490  12.036   7.304   6.204
32217SOL    HW298491  12.141   7.268   6.101
32218SOL     OW98492   5.563  14.793   5.515
32218SOL    HW198493   5.576  14.811   5.422
32218SOL    HW298494   5.481  14.743   5.518
32219SOL     OW98495   3.075   1.963  13.098
32219SOL    HW198496   3.097   1.952  13.191
32219SOL    HW298497   3.036   1.880  13.072
32220SOL     OW98498   9.096   6.168   3.993
32220SOL    HW198499   9.103   6.075   3.972
32220SOL    HW298500   9.016   6.175   4.045
32221SOL     OW98501   5.546   2.629   5.010
32221SOL    HW198502   5.506   2.661   4.929
32221SOL    HW298503   5.609   2.563   4.981
32222SOL     OW98504  11.792   9.233  14.838
32222SOL    HW198505  11.865   9.289  14.812
32222SOL    HW298506  11.742   9.220  14.757
32223SOL     OW98507   5.450   9.116   4.839
32223SOL    HW198508   5.438   9.147   4.749
32223SOL    HW298509   5.419   9.026   4.838
32224SOL     OW98510   3.558  11.258   4.544
32224SOL    HW198511   3.628  11.223   4.489
32224SOL    HW298512   3.491  11.190   4.545
32225SOL     OW98513   3.046  12.519   6.674
32225SOL    HW198514   3.089  12.600   6.704
32225SOL    HW298515   3.013  12.480   6.755
32226SOL     OW98516   2.012   8.984  10.572
32226SOL    HW198517   2.098   8.949  10.592
32226SOL    HW298518   2.027   9.077  10.556
32227SOL     OW98519  11.911   4.621   1.549
32227SOL    HW198520  11.821   4.611   1.581
32227SOL    HW298521  11.914   4.710   1.513
32228SOL     OW98522   0.867   7.155  12.727
32228SOL    HW198523   0.778   7.142  12.695
32228SOL    HW298524   0.860   7.153  12.822
32229SOL     OW98525   5.842   7.762   8.678
32229SOL    HW198526   5.761   7.731   8.717
32229SOL    HW298527   5.857   7.848   8.718
32230SOL     OW98528   1.164   5.612   1.462
32230SOL    HW198529   1.238   5.573   1.507
32230SOL    HW298530   1.093   5.611   1.526
32231SOL     OW98531   0.194   7.803   4.397
32231SOL    HW198532   0.274   7.829   4.351
32231SOL    HW298533   0.217   7.721   4.440
32232SOL     OW98534   6.342  10.970   7.970
32232SOL    HW198535   6.279  10.933   8.032
32232SOL    HW298536   6.310  10.942   7.884
32233SOL     OW98537   4.678  11.529   3.723
32233SOL    HW198538   4.723  11.600   3.769
32233SOL    HW298539   4.707  11.536   3.632
32234SOL     OW98540  14.790   0.416  11.998
32234SOL    HW198541  14.759   0.480  11.933
32234SOL    HW298542  14.711   0.392  12.046
32235SOL     OW98543   8.325   5.160  13.058
32235SOL    HW198544   8.266   5.096  13.020
32235SOL    HW298545   8.286   5.245  13.035
32236SOL     OW98546   0.571   3.608   1.728
32236SOL    HW198547   0.649   3.553   1.720
32236SOL    HW298548   0.500   3.547   1.748
32237SOL     OW98549   4.027   4.194   2.480
32237SOL    HW198550   4.010   4.269   2.423
32237SOL    HW298551   4.118   4.204   2.508
32238SOL     OW98552   3.803  13.056   1.881
32238SOL    HW198553   3.787  13.146   1.910
32238SOL    HW298554   3.746  13.002   1.936
32239SOL     OW98555  11.972  14.275   4.428
32239SOL    HW198556  12.051  14.267   4.481
32239SOL    HW298557  11.942  14.364   4.442
32240SOL     OW98558  14.640   1.402   7.229
32240SOL    HW198559  14.690   1.445   7.298
32240SOL    HW298560  14.548   1.415   7.253
32241SOL     OW98561   5.373   0.297  14.295
32241SOL    HW198562   5.402   0.367  14.353
32241SOL    HW298563   5.447   0.237  14.290
32242SOL     OW98564   6.494   8.381   6.412
32242SOL    HW198565   6.547   8.382   6.491
32242SOL    HW298566   6.405   8.397   6.442
32243SOL     OW98567   2.158  12.844   4.203
32243SOL    HW198568   2.247  12.862   4.173
32243SOL    HW298569   2.126  12.928   4.236
32244SOL     OW98570   0.885   2.680   9.485
32244SOL    HW198571   0.871   2.648   9.396
32244SOL    HW298572   0.800   2.715   9.512
32245SOL     OW98573   2.079  13.716   2.669
32245SOL    HW198574   2.137  13.653   2.627
32245SOL    HW298575   1.991  13.679   2.656
32246SOL     OW98576   2.881   6.318   2.382
32246SOL    HW198577   2.913   6.402   2.348
32246SOL    HW298578   2.902   6.321   2.475
32247SOL     OW98579  14.777   5.505  11.213
32247SOL    HW198580  14.704   5.472  11.161
32247SOL    HW298581  14.747   5.498  11.304
32248SOL     OW98582   6.824  10.967   6.450
32248SOL    HW198583   6.762  10.971   6.378
32248SOL    HW298584   6.773  10.932   6.523
32249SOL     OW98585   9.481   4.705   9.272
32249SOL    HW198586   9.409   4.768   9.279
32249SOL    HW298587   9.551   4.753   9.229
32250SOL     OW98588   3.116  10.230   9.153
32250SOL    HW198589   3.157  10.292   9.092
32250SOL    HW298590   3.032  10.209   9.112
32251SOL     OW98591   5.973   5.943   4.148
32251SOL    HW198592   5.896   5.885   4.154
32251SOL    HW298593   6.015   5.918   4.066
32252SOL     OW98594   3.406   6.794  11.483
32252SOL    HW198595   3.412   6.874  11.431
32252SOL    HW298596   3.362   6.821  11.564
32253SOL     OW98597   0.232  11.131   5.413
32253SOL    HW198598   0.176  11.179   5.474
32253SOL    HW298599   0.314  11.181   5.411
32254SOL     OW98600   9.613   8.421   6.247
32254SOL    HW198601   9.552   8.356   6.212
32254SOL    HW298602   9.650   8.463   6.170
32255SOL     OW98603   3.248   8.238   3.454
32255SOL    HW198604   3.307   8.285   3.513
32255SOL    HW298605   3.166   8.231   3.503
32256SOL     OW98606   3.836  10.852  11.900
32256SOL    HW198607   3.809  10.928  11.952
32256SOL    HW298608   3.759  10.831  11.847
32257SOL     OW98609  10.331   4.795  14.276
32257SOL    HW198610  10.237   4.778  14.269
32257SOL    HW298611  10.361   4.808  14.186
32258SOL     OW98612   0.468   4.148   3.117
32258SOL    HW198613   0.527   4.204   3.167
32258SOL    HW298614   0.429   4.206   3.051
32259SOL     OW98615   7.095   6.931   3.491
32259SOL    HW198616   7.056   6.933   3.578
32259SOL    HW298617   7.189   6.920   3.507
32260SOL     OW98618   1.480   3.732  10.840
32260SOL    HW198619   1.548   3.705  10.902
32260SOL    HW298620   1.498   3.681  10.761
32261SOL     OW98621  13.003   0.586   6.829
32261SOL    HW198622  13.039   0.513   6.778
32261SOL    HW298623  13.078   0.623   6.875
32262SOL     OW98624   0.040   6.981  14.496
32262SOL    HW198625  14.860   7.035  14.439
32262SOL    HW298626  14.869   6.898  14.504
32263SOL     OW98627   0.493  12.928   7.012
32263SOL    HW198628   0.505  12.833   7.021
32263SOL    HW298629   0.580  12.962   6.993
32264SOL     OW98630  13.980   1.899  13.855
32264SOL    HW198631  14.051   1.945  13.900
32264SOL    HW298632  14.024   1.827  13.809
32265SOL     OW98633   3.258   6.479   4.950
32265SOL    HW198634   3.262   6.393   4.908
32265SOL    HW298635   3.343   6.518   4.930
32266SOL     OW98636   5.656   8.739   6.046
32266SOL    HW198637   5.685   8.768   6.133
32266SOL    HW298638   5.576   8.789   6.030
32267SOL     OW98639   9.957   6.134   7.485
32267SOL    HW198640   9.931   6.165   7.398
32267SOL    HW298641  10.025   6.194   7.513
32268SOL     OW98642  12.383  11.434  12.637
32268SOL    HW198643  12.450  11.366  12.644
32268SOL    HW298644  12.421  11.499  12.577
32269SOL     OW98645   5.107   3.416   7.771
32269SOL    HW198646   5.107   3.389   7.862
32269SOL    HW298647   5.154   3.500   7.770
32270SOL     OW98648   2.886  13.829   9.272
32270SOL    HW198649   2.935  13.903   9.238
32270SOL    HW298650   2.904  13.829   9.366
32271SOL     OW98651   9.359  11.643   2.720
32271SOL    HW198652   9.307  11.621   2.797
32271SOL    HW298653   9.436  11.688   2.755
32272SOL     OW98654  13.131   8.449  12.620
32272SOL    HW198655  13.073   8.464  12.545
32272SOL    HW298656  13.184   8.529  12.625
32273SOL     OW98657   4.540   4.995   1.574
32273SOL    HW198658   4.532   5.069   1.634
32273SOL    HW298659   4.633   4.992   1.552
32274SOL     OW98660   5.855  11.821   5.801
32274SOL    HW198661   5.874  11.783   5.887
32274SOL    HW298662   5.866  11.915   5.813
32275SOL     OW98663   6.643   1.287   8.885
32275SOL    HW198664   6.560   1.242   8.901
32275SOL    HW298665   6.624   1.380   8.901
32276SOL     OW98666  12.020   5.713   6.827
32276SOL    HW198667  12.105   5.669   6.834
32276SOL    HW298668  12.036   5.800   6.862
32277SOL     OW98669   6.139  12.403   0.463
32277SOL    HW198670   6.066  12.356   0.426
32277SOL    HW298671   6.159  12.358   0.545
32278SOL     OW98672   7.031   5.472   3.325
32278SOL    HW198673   6.999   5.454   3.237
32278SOL    HW298674   6.970   5.426   3.383
32279SOL     OW98675   7.879   1.980  11.919
32279SOL    HW198676   7.793   1.993  11.879
32279SOL    HW298677   7.866   1.999  12.012
32280SOL     OW98678   6.437   3.819  14.501
32280SOL    HW198679   6.462   3.756  14.568
32280SOL    HW298680   6.354   3.786  14.467
32281SOL     OW98681   3.651   8.742   0.760
32281SOL    HW198682   3.666   8.740   0.854
32281SOL    HW298683   3.694   8.664   0.727
32282SOL     OW98684  14.115   3.664   1.867
32282SOL    HW198685  14.176   3.590   1.863
32282SOL    HW298686  14.126   3.708   1.783
32283SOL     OW98687   9.900   2.599   0.989
32283SOL    HW198688   9.868   2.517   0.951
32283SOL    HW298689   9.820   2.645   1.016
32284SOL     OW98690  10.638  11.407   1.689
32284SOL    HW198691  10.624  11.500   1.703
32284SOL    HW298692  10.663  11.373   1.775
32285SOL     OW98693   9.620   2.130   4.716
32285SOL    HW198694   9.573   2.209   4.742
32285SOL    HW298695   9.551   2.071   4.685
32286SOL     OW98696   5.083   3.644   7.314
32286SOL    HW198697   5.101   3.561   7.358
32286SOL    HW298698   5.160   3.660   7.260
32287SOL     OW98699   5.865   9.367   0.009
32287SOL    HW198700   5.815   9.299   0.054
32287SOL    HW298701   5.945   9.377   0.060
32288SOL     OW98702  11.061   4.941  13.965
32288SOL    HW198703  11.039   5.019  13.914
32288SOL    HW298704  11.074   4.973  14.054
32289SOL     OW98705   4.616   3.835   6.407
32289SOL    HW198706   4.534   3.847   6.360
32289SOL    HW298707   4.592   3.783   6.484
32290SOL     OW98708   0.688  10.789  13.758
32290SOL    HW198709   0.714  10.743  13.678
32290SOL    HW298710   0.699  10.882  13.737
32291SOL     OW98711  10.084  11.679   5.782
32291SOL    HW198712  10.080  11.680   5.878
32291SOL    HW298713  10.176  11.661   5.763
32292SOL     OW98714   9.911   0.918   4.509
32292SOL    HW198715   9.899   0.972   4.431
32292SOL    HW298716   9.846   0.849   4.502
32293SOL     OW98717   2.358  12.321   8.133
32293SOL    HW198718   2.311  12.281   8.060
32293SOL    HW298719   2.290  12.355   8.191
32294SOL     OW98720   3.711  13.533   4.803
32294SOL    HW198721   3.685  13.584   4.879
32294SOL    HW298722   3.680  13.444   4.821
32295SOL     OW98723  11.914   6.877   1.970
32295SOL    HW198724  11.957   6.841   1.892
32295SOL    HW298725  11.832   6.915   1.938
32296SOL     OW98726   7.922  10.071  14.847
32296SOL    HW198727   7.853  10.026  14.798
32296SOL    HW298728   7.875  10.114   0.043
32297SOL     OW98729   0.089  11.675  10.791
32297SOL    HW198730   0.099  11.632  10.876
32297SOL    HW298731   0.165  11.732  10.784
32298SOL     OW98732   7.674   4.753   5.647
32298SOL    HW198733   7.651   4.670   5.607
32298SOL    HW298734   7.646   4.819   5.584
32299SOL     OW98735   6.190   7.003   4.699
32299SOL    HW198736   6.211   6.944   4.771
32299SOL    HW298737   6.175   6.945   4.624
32300SOL     OW98738  10.469   3.350   5.969
32300SOL    HW198739  10.536   3.418   5.959
32300SOL    HW298740  10.417   3.357   5.888
32301SOL     OW98741   2.322  13.924   5.621
32301SOL    HW198742   2.384  13.971   5.566
32301SOL    HW298743   2.242  13.918   5.569
32302SOL     OW98744  11.190  12.954  12.564
32302SOL    HW198745  11.253  12.967  12.493
32302SOL    HW298746  11.180  12.859  12.570
32303SOL     OW98747   1.549   3.205  14.692
32303SOL    HW198748   1.497   3.281  14.663
32303SOL    HW298749   1.484   3.146  14.731
32304SOL     OW98750  12.669  11.171  10.385
32304SOL    HW198751  12.610  11.153  10.458
32304SOL    HW298752  12.622  11.139  10.308
32305SOL     OW98753  10.354  11.963   6.856
32305SOL    HW198754  10.333  11.911   6.779
32305SOL    HW298755  10.449  11.977   6.851
32306SOL     OW98756   3.404  11.437   6.641
32306SOL    HW198757   3.317  11.407   6.617
32306SOL    HW298758   3.463  11.389   6.583
32307SOL     OW98759   0.421  10.861   1.261
32307SOL    HW198760   0.509  10.865   1.224
32307SOL    HW298761   0.365  10.901   1.194
32308SOL     OW98762   6.187   2.876   3.589
32308SOL    HW198763   6.182   2.793   3.636
32308SOL    HW298764   6.261   2.922   3.629
32309SOL     OW98765   5.405   5.211   7.211
32309SOL    HW198766   5.399   5.303   7.186
32309SOL    HW298767   5.336   5.199   7.276
32310SOL     OW98768   5.487   0.752   7.463
32310SOL    HW198769   5.537   0.680   7.503
32310SOL    HW298770   5.396   0.725   7.470
32311SOL     OW98771   0.203  13.903   9.228
32311SOL    HW198772   0.112  13.875   9.218
32311SOL    HW298773   0.234  13.918   9.139
32312SOL     OW98774  13.662  11.301   5.698
32312SOL    HW198775  13.705  11.348   5.769
32312SOL    HW298776  13.667  11.360   5.623
32313SOL     OW98777  11.945  12.426   5.281
32313SOL    HW198778  11.879  12.426   5.211
32313SOL    HW298779  12.025  12.457   5.238
32314SOL     OW98780  13.196  12.472   9.191
32314SOL    HW198781  13.246  12.473   9.272
32314SOL    HW298782  13.192  12.379   9.167
32315SOL     OW98783   6.410   5.750  14.541
32315SOL    HW198784   6.347   5.727  14.609
32315SOL    HW298785   6.357   5.783  14.469
32316SOL     OW98786   0.835   2.910  14.069
32316SOL    HW198787   0.754   2.901  14.019
32316SOL    HW298788   0.821   2.987  14.124
32317SOL     OW98789   5.034   3.283   3.096
32317SOL    HW198790   5.121   3.316   3.073
32317SOL    HW298791   5.026   3.299   3.190
32318SOL     OW98792   2.952   2.799   7.356
32318SOL    HW198793   2.990   2.798   7.444
32318SOL    HW298794   2.992   2.724   7.311
32319SOL     OW98795   8.161   8.451   8.577
32319SOL    HW198796   8.153   8.407   8.492
32319SOL    HW298797   8.242   8.502   8.570
32320SOL     OW98798  14.406   3.145  11.762
32320SOL    HW198799  14.335   3.119  11.820
32320SOL    HW298800  14.480   3.090  11.787
32321SOL     OW98801   2.858   9.208   6.267
32321SOL    HW198802   2.919   9.257   6.322
32321SOL    HW298803   2.832   9.134   6.322
32322SOL     OW98804   8.361  13.266   0.424
32322SOL    HW198805   8.455  13.260   0.409
32322SOL    HW298806   8.350  13.348   0.471
32323SOL     OW98807  12.118   5.198   6.483
32323SOL    HW198808  12.156   5.212   6.570
32323SOL    HW298809  12.046   5.137   6.498
32324SOL     OW98810   2.687   0.353   0.551
32324SOL    HW198811   2.733   0.299   0.616
32324SOL    HW298812   2.640   0.418   0.603
32325SOL     OW98813  13.889   4.450  14.425
32325SOL    HW198814  13.847   4.374  14.465
32325SOL    HW298815  13.889   4.516  14.494
32326SOL     OW98816   3.280  13.572   0.810
32326SOL    HW198817   3.332  13.506   0.855
32326SOL    HW298818   3.325  13.655   0.829
32327SOL     OW98819   8.993   1.413   6.900
32327SOL    HW198820   8.994   1.426   6.995
32327SOL    HW298821   8.976   1.319   6.890
32328SOL     OW98822   5.563   6.201   8.764
32328SOL    HW198823   5.550   6.125   8.820
32328SOL    HW298824   5.626   6.255   8.812
32329SOL     OW98825  13.424   4.644   1.479
32329SOL    HW198826  13.408   4.736   1.496
32329SOL    HW298827  13.488   4.644   1.407
32330SOL     OW98828   8.946   3.806   7.176
32330SOL    HW198829   8.980   3.730   7.128
32330SOL    HW298830   8.942   3.875   7.110
32331SOL     OW98831   7.474   7.303   8.678
32331SOL    HW198832   7.438   7.252   8.751
32331SOL    HW298833   7.531   7.367   8.719
32332SOL     OW98834  14.002   4.761  13.343
32332SOL    HW198835  14.031   4.690  13.401
32332SOL    HW298836  14.061   4.834  13.363
32333SOL     OW98837   6.811  11.026   3.814
32333SOL    HW198838   6.869  11.006   3.741
32333SOL    HW298839   6.760  11.102   3.785
32334SOL     OW98840  10.786  12.731  11.080
32334SOL    HW198841  10.811  12.653  11.031
32334SOL    HW298842  10.702  12.758  11.042
32335SOL     OW98843   4.643   5.649  11.997
32335SOL    HW198844   4.712   5.685  11.940
32335SOL    HW298845   4.576   5.717  11.999
32336SOL     OW98846  11.338   4.571   6.663
32336SOL    HW198847  11.326   4.608   6.575
32336SOL    HW298848  11.309   4.641   6.722
32337SOL     OW98849   8.378   9.937   7.637
32337SOL    HW198850   8.370  10.015   7.582
32337SOL    HW298851   8.342   9.866   7.585
32338SOL     OW98852   8.640  13.846   6.905
32338SOL    HW198853   8.625  13.880   6.816
32338SOL    HW298854   8.663  13.754   6.891
32339SOL     OW98855   3.190  14.226   4.199
32339SOL    HW198856   3.104  14.207   4.162
32339SOL    HW298857   3.177  14.226   4.293
32340SOL     OW98858   2.472   5.530  14.682
32340SOL    HW198859   2.388   5.497  14.650
32340SOL    HW298860   2.451   5.572  14.765
32341SOL     OW98861   5.002   2.242   3.846
32341SOL    HW198862   4.972   2.321   3.892
32341SOL    HW298863   4.944   2.173   3.877
32342SOL     OW98864   9.261   1.629   6.195
32342SOL    HW198865   9.190   1.567   6.181
32342SOL    HW298866   9.234   1.680   6.272
32343SOL     OW98867   2.650  12.480   3.292
32343SOL    HW198868   2.572  12.467   3.238
32343SOL    HW298869   2.673  12.392   3.322
32344SOL     OW98870  14.678  12.347  12.707
32344SOL    HW198871  14.621  12.305  12.643
32344SOL    HW298872  14.766  12.339  12.671
32345SOL     OW98873  14.813   8.609   4.498
32345SOL    HW198874  14.775   8.696   4.511
32345SOL    HW298875  14.815   8.598   4.403
32346SOL     OW98876  11.261   9.074   2.336
32346SOL    HW198877  11.176   9.065   2.378
32346SOL    HW298878  11.290   8.984   2.320
32347SOL     OW98879   9.447  10.242   7.066
32347SOL    HW198880   9.440  10.231   7.161
32347SOL    HW298881   9.359  10.221   7.034
32348SOL     OW98882   0.862   1.987  12.317
32348SOL    HW198883   0.941   1.935  12.330
32348SOL    HW298884   0.892   2.077  12.317
32349SOL     OW98885   8.967   8.034   2.028
32349SOL    HW198886   9.037   8.030   2.094
32349SOL    HW298887   8.888   8.009   2.077
32350SOL     OW98888   6.871   9.090  14.475
32350SOL    HW198889   6.782   9.095  14.440
32350SOL    HW298890   6.860   9.102  14.570
32351SOL     OW98891   1.879  13.579   6.011
32351SOL    HW198892   1.871  13.661   5.962
32351SOL    HW298893   1.943  13.528   5.961
32352SOL     OW98894  10.158   3.749   2.569
32352SOL    HW198895  10.237   3.785   2.530
32352SOL    HW298896  10.112   3.706   2.497
32353SOL     OW98897  10.521   0.803  12.152
32353SOL    HW198898  10.575   0.816  12.074
32353SOL    HW298899  10.431   0.819  12.123
32354SOL     OW98900   1.266   5.230  12.796
32354SOL    HW198901   1.329   5.297  12.770
32354SOL    HW298902   1.264   5.169  12.723
32355SOL     OW98903  12.757   4.556  14.246
32355SOL    HW198904  12.839   4.593  14.279
32355SOL    HW298905  12.725   4.502  14.319
32356SOL     OW98906   9.987   3.365  12.031
32356SOL    HW198907  10.001   3.459  12.015
32356SOL    HW298908  10.072   3.334  12.062
32357SOL     OW98909   4.208   7.589  12.191
32357SOL    HW198910   4.293   7.631  12.175
32357SOL    HW298911   4.143   7.653  12.162
32358SOL     OW98912   0.817   4.992  12.111
32358SOL    HW198913   0.819   4.901  12.083
32358SOL    HW298914   0.749   5.032  12.057
32359SOL     OW98915   6.834  10.536   3.212
32359SOL    HW198916   6.915  10.568   3.174
32359SOL    HW298917   6.861  10.486   3.289
32360SOL     OW98918  10.467  12.872   3.318
32360SOL    HW198919  10.562  12.874   3.333
32360SOL    HW298920  10.458  12.868   3.223
32361SOL     OW98921   5.139   4.285   1.027
32361SOL    HW198922   5.148   4.226   1.102
32361SOL    HW298923   5.055   4.260   0.987
32362SOL     OW98924   1.623  12.394  13.869
32362SOL    HW198925   1.719  12.393  13.867
32362SOL    HW298926   1.601  12.351  13.951
32363SOL     OW98927   6.654   5.592   7.604
32363SOL    HW198928   6.728   5.532   7.605
32363SOL    HW298929   6.693   5.679   7.609
32364SOL     OW98930   5.469   8.114  13.210
32364SOL    HW198931   5.535   8.178  13.184
32364SOL    HW298932   5.388   8.145  13.169
32365SOL     OW98933   0.939  12.165   6.342
32365SOL    HW198934   1.034  12.165   6.344
32365SOL    HW298935   0.913  12.104   6.411
32366SOL     OW98936  11.748   4.674  14.458
32366SOL    HW198937  11.721   4.711  14.374
32366SOL    HW298938  11.778   4.750  14.509
32367SOL     OW98939   3.906   2.210   4.389
32367SOL    HW198940   3.861   2.187   4.471
32367SOL    HW298941   3.940   2.127   4.356
32368SOL     OW98942   6.903   6.275  12.483
32368SOL    HW198943   6.834   6.340  12.471
32368SOL    HW298944   6.984   6.324  12.473
32369SOL     OW98945  13.333   5.641   2.359
32369SOL    HW198946  13.299   5.730   2.372
32369SOL    HW298947  13.428   5.650   2.371
32370SOL     OW98948   9.061   3.924   9.302
32370SOL    HW198949   9.093   4.012   9.281
32370SOL    HW298950   9.135   3.882   9.347
32371SOL     OW98951   6.958   5.050   4.355
32371SOL    HW198952   6.915   5.095   4.282
32371SOL    HW298953   6.968   4.960   4.324
32372SOL     OW98954   9.794  10.154   0.643
32372SOL    HW198955   9.869  10.197   0.683
32372SOL    HW298956   9.833  10.085   0.588
32373SOL     OW98957   0.781   7.453  12.935
32373SOL    HW198958   0.795   7.548  12.933
32373SOL    HW298959   0.840   7.418  12.868
32374SOL     OW98960   0.674   6.650   5.099
32374SOL    HW198961   0.630   6.617   5.178
32374SOL    HW298962   0.610   6.709   5.059
32375SOL     OW98963  10.684  11.344   2.492
32375SOL    HW198964  10.606  11.399   2.480
32375SOL    HW298965  10.649  11.258   2.515
32376SOL     OW98966  14.552  11.278   2.506
32376SOL    HW198967  14.591  11.301   2.422
32376SOL    HW298968  14.625  11.280   2.568
32377SOL     OW98969   8.288   7.586   5.960
32377SOL    HW198970   8.333   7.594   6.044
32377SOL    HW298971   8.248   7.672   5.946
32378SOL     OW98972   7.666   0.228   0.888
32378SOL    HW198973   7.707   0.205   0.805
32378SOL    HW298974   7.658   0.145   0.935
32379SOL     OW98975  11.035   5.393   6.562
32379SOL    HW198976  11.030   5.308   6.519
32379SOL    HW298977  11.127   5.417   6.559
32380SOL     OW98978  13.760  12.524   7.639
32380SOL    HW198979  13.758  12.586   7.566
32380SOL    HW298980  13.743  12.439   7.598
32381SOL     OW98981  11.613   6.691   3.517
32381SOL    HW198982  11.630   6.780   3.548
32381SOL    HW298983  11.697   6.660   3.484
32382SOL     OW98984  13.480   6.339   7.843
32382SOL    HW198985  13.431   6.260   7.820
32382SOL    HW298986  13.559   6.306   7.887
32383SOL     OW98987   0.518  13.880  13.883
32383SOL    HW198988   0.573  13.809  13.851
32383SOL    HW298989   0.432  13.839  13.895
32384SOL     OW98990   8.200   9.209   8.376
32384SOL    HW198991   8.166   9.243   8.293
32384SOL    HW298992   8.251   9.282   8.413
32385SOL     OW98993   9.208   9.304  10.819
32385SOL    HW198994   9.239   9.278  10.733
32385SOL    HW298995   9.142   9.239  10.842
32386SOL     OW98996  12.389   3.640  12.958
32386SOL    HW198997  12.386   3.657  13.053
32386SOL    HW298998  12.450   3.706  12.924
32387SOL     OW98999   9.695  13.806   4.093
32387SOL    HW199000   9.691  13.773   4.183
32387SOL    HW299001   9.607  13.792   4.059
32388SOL     OW99002  14.510  12.805   1.626
32388SOL    HW199003  14.555  12.748   1.688
32388SOL    HW299004  14.563  12.802   1.547
32389SOL     OW99005   9.067   8.214   8.498
32389SOL    HW199006   9.036   8.296   8.459
32389SOL    HW299007   8.986   8.169   8.524
32390SOL     OW99008   3.759   5.472   3.884
32390SOL    HW199009   3.811   5.550   3.866
32390SOL    HW299010   3.710   5.494   3.963
32391SOL     OW99011  14.725  14.081   6.626
32391SOL    HW199012  14.699  14.055   6.538
32391SOL    HW299013  14.725  13.999   6.676
32392SOL     OW99014  11.413  11.623   0.450
32392SOL    HW199015  11.394  11.571   0.372
32392SOL    HW299016  11.481  11.574   0.496
32393SOL     OW99017  10.791   6.023   9.128
32393SOL    HW199018  10.742   5.941   9.128
32393SOL    HW299019  10.849   6.017   9.203
32394SOL     OW99020  14.280   8.812  13.975
32394SOL    HW199021  14.276   8.908  13.979
32394SOL    HW299022  14.189   8.784  13.985
32395SOL     OW99023  12.901   8.837   8.680
32395SOL    HW199024  12.985   8.796   8.701
32395SOL    HW299025  12.838   8.792   8.737
32396SOL     OW99026  12.294   6.025   3.070
32396SOL    HW199027  12.219   6.017   3.129
32396SOL    HW299028  12.264   6.083   3.000
32397SOL     OW99029   5.407   5.685   8.587
32397SOL    HW199030   5.348   5.610   8.589
32397SOL    HW299031   5.448   5.681   8.500
32398SOL     OW99032  10.871   4.214   0.325
32398SOL    HW199033  10.799   4.195   0.385
32398SOL    HW299034  10.886   4.308   0.336
32399SOL     OW99035   3.574  14.243   5.813
32399SOL    HW199036   3.545  14.291   5.736
32399SOL    HW299037   3.632  14.305   5.859
32400SOL     OW99038  13.610   3.542   1.018
32400SOL    HW199039  13.639   3.471   0.961
32400SOL    HW299040  13.619   3.507   1.106
32401SOL     OW99041   0.504  12.489   6.403
32401SOL    HW199042   0.466  12.524   6.323
32401SOL    HW299043   0.502  12.563   6.464
32402SOL     OW99044  11.965   0.734   4.859
32402SOL    HW199045  11.901   0.676   4.817
32402SOL    HW299046  11.940   0.733   4.952
32403SOL     OW99047   6.476   7.095   1.800
32403SOL    HW199048   6.549   7.155   1.784
32403SOL    HW299049   6.517   7.015   1.834
32404SOL     OW99050  10.605   4.047  14.456
32404SOL    HW199051  10.632   3.987  14.525
32404SOL    HW299052  10.664   4.122  14.466
32405SOL     OW99053  13.290   5.921  13.612
32405SOL    HW199054  13.312   5.999  13.562
32405SOL    HW299055  13.244   5.955  13.689
32406SOL     OW99056   0.371  10.910  13.131
32406SOL    HW199057   0.407  10.917  13.043
32406SOL    HW299058   0.289  10.958  13.127
32407SOL     OW99059   4.754  10.941   0.226
32407SOL    HW199060   4.673  10.966   0.271
32407SOL    HW299061   4.732  10.860   0.180
32408SOL     OW99062  11.884  13.607  13.314
32408SOL    HW199063  11.951  13.566  13.260
32408SOL    HW299064  11.877  13.696  13.279
32409SOL     OW99065  11.583   5.986  10.552
32409SOL    HW199066  11.658   5.998  10.494
32409SOL    HW299067  11.616   6.004  10.640
32410SOL     OW99068  13.242   9.835   4.323
32410SOL    HW199069  13.166   9.853   4.377
32410SOL    HW299070  13.262   9.743   4.339
32411SOL     OW99071   5.467   5.630  11.713
32411SOL    HW199072   5.485   5.714  11.672
32411SOL    HW299073   5.430   5.651  11.799
32412SOL     OW99074   4.272  14.857   3.134
32412SOL    HW199075   4.224  14.776   3.117
32412SOL    HW299076   4.308   0.006   3.049
32413SOL     OW99077  11.854   2.335   7.183
32413SOL    HW199078  11.852   2.265   7.248
32413SOL    HW299079  11.839   2.290   7.100
32414SOL     OW99080   4.443   4.666  14.795
32414SOL    HW199081   4.512   4.665  14.729
32414SOL    HW299082   4.384   4.596  14.768
32415SOL     OW99083   9.912   8.903   6.610
32415SOL    HW199084   9.817   8.891   6.613
32415SOL    HW299085   9.924   8.990   6.571
32416SOL     OW99086   4.860   0.024  11.817
32416SOL    HW199087   4.909   0.091  11.864
32416SOL    HW299088   4.823   0.069  11.741
32417SOL     OW99089   2.013   4.515  14.173
32417SOL    HW199090   1.932   4.486  14.216
32417SOL    HW299091   2.029   4.603  14.207
32418SOL     OW99092  14.325   2.303   6.747
32418SOL    HW199093  14.416   2.273   6.753
32418SOL    HW299094  14.327   2.393   6.780
32419SOL     OW99095   8.651   7.503   4.471
32419SOL    HW199096   8.570   7.553   4.481
32419SOL    HW299097   8.659   7.454   4.553
32420SOL     OW99098   3.704   1.333  11.518
32420SOL    HW199099   3.705   1.243  11.550
32420SOL    HW299100   3.703   1.325  11.423
32421SOL     OW99101   7.765   3.834   0.970
32421SOL    HW199102   7.671   3.850   0.965
32421SOL    HW299103   7.782   3.817   1.063
32422SOL     OW99104   6.672  10.179   9.590
32422SOL    HW199105   6.729  10.115   9.547
32422SOL    HW299106   6.606  10.200   9.524
32423SOL     OW99107   9.626   7.789   4.191
32423SOL    HW199108   9.554   7.735   4.224
32423SOL    HW299109   9.631   7.862   4.253
32424SOL     OW99110  11.153   9.218   4.904
32424SOL    HW199111  11.073   9.184   4.944
32424SOL    HW299112  11.159   9.171   4.820
32425SOL     OW99113  11.839  11.792   7.198
32425SOL    HW199114  11.893  11.725   7.156
32425SOL    HW299115  11.824  11.858   7.130
32426SOL     OW99116  11.905   4.822   1.365
32426SOL    HW199117  11.840   4.815   1.295
32426SOL    HW299118  11.985   4.853   1.321
32427SOL     OW99119  10.652   7.259   6.971
32427SOL    HW199120  10.628   7.222   6.886
32427SOL    HW299121  10.748   7.253   6.973
32428SOL     OW99122  14.583   5.218   7.803
32428SOL    HW199123  14.505   5.272   7.791
32428SOL    HW299124  14.653   5.267   7.758
32429SOL     OW99125  12.136   2.777   7.478
32429SOL    HW199126  12.070   2.735   7.423
32429SOL    HW299127  12.119   2.871   7.470
32430SOL     OW99128  11.759   8.726   0.198
32430SOL    HW199129  11.728   8.647   0.154
32430SOL    HW299130  11.823   8.763   0.137
32431SOL     OW99131   9.228   3.008  14.440
32431SOL    HW199132   9.279   2.930  14.417
32431SOL    HW299133   9.166   3.018  14.368
32432SOL     OW99134   7.783  10.868   1.841
32432SOL    HW199135   7.866  10.905   1.871
32432SOL    HW299136   7.726  10.943   1.829
32433SOL     OW99137  11.715   1.505  11.109
32433SOL    HW199138  11.708   1.514  11.204
32433SOL    HW299139  11.801   1.464  11.095
32434SOL     OW99140  14.795   6.274   5.152
32434SOL    HW199141  14.840   6.222   5.085
32434SOL    HW299142  14.767   6.210   5.217
32435SOL     OW99143   0.658   2.984   7.585
32435SOL    HW199144   0.650   2.888   7.580
32435SOL    HW299145   0.744   3.002   7.548
32436SOL     OW99146   0.428   7.394   6.586
32436SOL    HW199147   0.434   7.306   6.549
32436SOL    HW299148   0.447   7.382   6.679
32437SOL     OW99149   8.328   6.667   9.416
32437SOL    HW199150   8.247   6.652   9.465
32437SOL    HW299151   8.322   6.608   9.341
32438SOL     OW99152   7.164   6.183  14.831
32438SOL    HW199153   7.078   6.191  14.872
32438SOL    HW299154   7.149   6.130  14.753
32439SOL     OW99155   1.555   9.621  13.118
32439SOL    HW199156   1.563   9.699  13.062
32439SOL    HW299157   1.619   9.560  13.083
32440SOL     OW99158   2.486   5.867  14.019
32440SOL    HW199159   2.416   5.919  13.980
32440SOL    HW299160   2.565   5.893  13.971
32441SOL     OW99161   3.652  12.451   2.929
32441SOL    HW199162   3.619  12.526   2.880
32441SOL    HW299163   3.639  12.376   2.871
32442SOL     OW99164   3.812  12.756   8.580
32442SOL    HW199165   3.847  12.819   8.644
32442SOL    HW299166   3.890  12.715   8.543
32443SOL     OW99167   2.008   9.110  10.235
32443SOL    HW199168   2.069   9.036  10.240
32443SOL    HW299169   1.995   9.124  10.141
32444SOL     OW99170   9.871   1.336   1.328
32444SOL    HW199171   9.843   1.350   1.237
32444SOL    HW299172   9.813   1.391   1.380
32445SOL     OW99173  11.624  10.996   0.006
32445SOL    HW199174  11.706  10.959   0.040
32445SOL    HW299175  11.632  10.986  14.787
32446SOL     OW99176   8.475  13.449   5.435
32446SOL    HW199177   8.523  13.531   5.444
32446SOL    HW299178   8.518  13.404   5.362
32447SOL     OW99179   7.093   3.854  10.670
32447SOL    HW199180   7.109   3.800  10.747
32447SOL    HW299181   7.045   3.797  10.610
32448SOL     OW99182   6.652   8.359   7.500
32448SOL    HW199183   6.719   8.420   7.531
32448SOL    HW299184   6.678   8.274   7.537
32449SOL     OW99185   6.042  10.215   3.570
32449SOL    HW199186   6.095  10.295   3.573
32449SOL    HW299187   6.039  10.186   3.662
32450SOL     OW99188   8.910   6.480   9.374
32450SOL    HW199189   8.889   6.405   9.319
32450SOL    HW299190   8.850   6.549   9.345
32451SOL     OW99191   9.519   7.301   8.794
32451SOL    HW199192   9.549   7.262   8.711
32451SOL    HW299193   9.485   7.387   8.769
32452SOL     OW99194   1.112   0.424   4.050
32452SOL    HW199195   1.101   0.465   4.136
32452SOL    HW299196   1.110   0.330   4.067
32453SOL     OW99197  12.027   0.205  10.619
32453SOL    HW199198  11.968   0.151  10.672
32453SOL    HW299199  12.093   0.236  10.680
32454SOL     OW99200   0.880  14.070   7.114
32454SOL    HW199201   0.906  14.028   7.032
32454SOL    HW299202   0.962  14.092   7.157
32455SOL     OW99203  14.086   7.741   9.834
32455SOL    HW199204  14.010   7.793   9.804
32455SOL    HW299205  14.120   7.790   9.909
32456SOL     OW99206   8.095  14.793   5.520
32456SOL    HW199207   8.084   0.012   5.509
32456SOL    HW299208   8.188  14.778   5.501
32457SOL     OW99209  12.510   4.690   2.088
32457SOL    HW199210  12.443   4.687   2.156
32457SOL    HW299211  12.559   4.770   2.104
32458SOL     OW99212  13.283   1.099  12.593
32458SOL    HW199213  13.273   1.004  12.593
32458SOL    HW299214  13.211   1.131  12.647
32459SOL     OW99215  12.662   6.047   9.503
32459SOL    HW199216  12.718   6.107   9.553
32459SOL    HW299217  12.691   6.059   9.412
32460SOL     OW99218  11.815   3.565   2.797
32460SOL    HW199219  11.741   3.557   2.858
32460SOL    HW299220  11.880   3.615   2.846
32461SOL     OW99221   5.103   3.825   3.202
32461SOL    HW199222   5.035   3.764   3.230
32461SOL    HW299223   5.184   3.775   3.206
32462SOL     OW99224   3.171   0.052   2.689
32462SOL    HW199225   3.120  14.849   2.669
32462SOL    HW299226   3.114   0.103   2.746
32463SOL     OW99227   9.289  14.447  11.706
32463SOL    HW199228   9.277  14.542  11.702
32463SOL    HW299229   9.266  14.424  11.796
32464SOL     OW99230  10.573   8.365   8.163
32464SOL    HW199231  10.592   8.271   8.157
32464SOL    HW299232  10.558   8.380   8.256
32465SOL     OW99233   8.542   3.207  10.608
32465SOL    HW199234   8.452   3.185  10.631
32465SOL    HW299235   8.594   3.171  10.680
32466SOL     OW99236   7.774   2.571  12.386
32466SOL    HW199237   7.685   2.536  12.384
32466SOL    HW299238   7.778   2.622  12.466
32467SOL     OW99239  11.440  10.180   5.462
32467SOL    HW199240  11.437  10.090   5.495
32467SOL    HW299241  11.359  10.220   5.492
32468SOL     OW99242   1.573  11.331   7.630
32468SOL    HW199243   1.621  11.400   7.675
32468SOL    HW299244   1.599  11.339   7.538
32469SOL     OW99245   8.654   1.654   9.546
32469SOL    HW199246   8.583   1.604   9.587
32469SOL    HW299247   8.719   1.666   9.616
32470SOL     OW99248  12.906   1.236  12.970
32470SOL    HW199249  12.862   1.192  13.043
32470SOL    HW299250  12.999   1.228  12.991
32471SOL     OW99251   0.268   9.267   1.430
32471SOL    HW199252   0.245   9.231   1.344
32471SOL    HW299253   0.270   9.362   1.416
32472SOL     OW99254   9.701  12.701  13.046
32472SOL    HW199255   9.728  12.633  12.985
32472SOL    HW299256   9.772  12.766  13.043
32473SOL     OW99257   5.562  13.805   7.066
32473SOL    HW199258   5.633  13.869   7.062
32473SOL    HW299259   5.482  13.856   7.054
32474SOL     OW99260  14.762  14.861   1.310
32474SOL    HW199261  14.805  14.871   1.396
32474SOL    HW299262  14.747   0.074   1.280
32475SOL     OW99263  11.213   6.788  12.378
32475SOL    HW199264  11.246   6.872  12.411
32475SOL    HW299265  11.119   6.802  12.368
32476SOL     OW99266   9.487   1.427   0.209
32476SOL    HW199267   9.459   1.359   0.148
32476SOL    HW299268   9.570   1.394   0.245
32477SOL     OW99269   8.177   1.071  14.391
32477SOL    HW199270   8.132   1.024  14.461
32477SOL    HW299271   8.267   1.082  14.424
32478SOL     OW99272   8.085   4.118   9.902
32478SOL    HW199273   8.161   4.176   9.896
32478SOL    HW299274   8.062   4.120   9.995
32479SOL     OW99275   9.951  13.822  14.174
32479SOL    HW199276   9.943  13.917  14.178
32479SOL    HW299277  10.044  13.805  14.188
32480SOL     OW99278  14.095  14.068   5.234
32480SOL    HW199279  14.115  13.974   5.228
32480SOL    HW299280  14.166  14.103   5.288
32481SOL     OW99281  13.728   2.116   1.842
32481SOL    HW199282  13.703   2.121   1.750
32481SOL    HW299283  13.818   2.085   1.841
32482SOL     OW99284  12.654   6.544   7.251
32482SOL    HW199285  12.617   6.511   7.333
32482SOL    HW299286  12.578   6.558   7.194
32483SOL     OW99287   8.967  12.373  14.705
32483SOL    HW199288   8.979  12.375  14.610
32483SOL    HW299289   9.032  12.310  14.736
32484SOL     OW99290  10.132   0.086  13.334
32484SOL    HW199291  10.181   0.085  13.251
32484SOL    HW299292  10.045   0.054  13.310
32485SOL     OW99293  13.828   8.987   3.946
32485SOL    HW199294  13.818   9.045   3.870
32485SOL    HW299295  13.777   8.909   3.924
32486SOL     OW99296  12.453   4.821  10.308
32486SOL    HW199297  12.402   4.782  10.236
32486SOL    HW299298  12.544   4.811  10.280
32487SOL     OW99299   3.904   3.377  11.855
32487SOL    HW199300   3.968   3.404  11.790
32487SOL    HW299301   3.853   3.457  11.872
32488SOL     OW99302   0.464   6.546   5.263
32488SOL    HW199303   0.425   6.516   5.345
32488SOL    HW299304   0.445   6.639   5.260
32489SOL     OW99305   6.089   5.603   5.413
32489SOL    HW199306   5.995   5.607   5.433
32489SOL    HW299307   6.126   5.682   5.453
32490SOL     OW99308   0.555  13.824   5.329
32490SOL    HW199309   0.580  13.732   5.317
32490SOL    HW299310   0.580  13.867   5.247
32491SOL     OW99311   7.835  13.805   7.216
32491SOL    HW199312   7.899  13.780   7.283
32491SOL    HW299313   7.797  13.886   7.248
32492SOL     OW99314  11.277   9.252  11.424
32492SOL    HW199315  11.340   9.237  11.354
32492SOL    HW299316  11.296   9.341  11.455
32493SOL     OW99317  14.157   9.300  10.635
32493SOL    HW199318  14.218   9.373  10.634
32493SOL    HW299319  14.185   9.246  10.709
32494SOL     OW99320  12.709   2.888   6.313
32494SOL    HW199321  12.667   2.882   6.399
32494SOL    HW299322  12.692   2.803   6.272
32495SOL     OW99323   0.228   5.299   0.416
32495SOL    HW199324   0.173   5.342   0.481
32495SOL    HW299325   0.190   5.212   0.406
32496SOL     OW99326   4.246  10.125   1.448
32496SOL    HW199327   4.288  10.068   1.513
32496SOL    HW299328   4.165  10.154   1.491
32497SOL     OW99329  10.307   7.239   9.584
32497SOL    HW199330  10.313   7.225   9.679
32497SOL    HW299331  10.215   7.257   9.568
32498SOL     OW99332  10.022  10.668  11.044
32498SOL    HW199333   9.946  10.725  11.053
32498SOL    HW299334  10.082  10.696  11.113
32499SOL     OW99335   0.106   5.136   5.977
32499SOL    HW199336   0.131   5.193   6.050
32499SOL    HW299337   0.072   5.056   6.020
32500SOL     OW99338   1.782  13.673   9.370
32500SOL    HW199339   1.783  13.742   9.304
32500SOL    HW299340   1.857  13.617   9.349
32501SOL     OW99341  10.365   3.529   1.698
32501SOL    HW199342  10.366   3.619   1.731
32501SOL    HW299343  10.295   3.528   1.633
32502SOL     OW99344   7.874   4.422   9.892
32502SOL    HW199345   7.789   4.465   9.890
32502SOL    HW299346   7.888   4.400   9.984
32503SOL     OW99347  11.374   4.031  14.807
32503SOL    HW199348  11.342   4.121  14.820
32503SOL    HW299349  11.347   3.984   0.010
32504SOL     OW99350   0.040   2.219   5.548
32504SOL    HW199351   0.030   2.270   5.629
32504SOL    HW299352  14.828   2.189   5.528
32505SOL     OW99353   7.845   3.210   3.769
32505SOL    HW199354   7.808   3.122   3.766
32505SOL    HW299355   7.803   3.256   3.697
32506SOL     OW99356   9.852  13.126   8.651
32506SOL    HW199357   9.882  13.179   8.577
32506SOL    HW299358   9.932  13.101   8.698
32507SOL     OW99359  11.912   5.663  12.554
32507SOL    HW199360  11.971   5.590  12.537
32507SOL    HW299361  11.825   5.623  12.553
32508SOL     OW99362   7.049  11.859  14.082
32508SOL    HW199363   7.136  11.883  14.113
32508SOL    HW299364   6.991  11.924  14.121
32509SOL     OW99365  14.712  11.462  11.619
32509SOL    HW199366  14.807  11.470  11.608
32509SOL    HW299367  14.679  11.450  11.530
32510SOL     OW99368   6.385  14.332   9.344
32510SOL    HW199369   6.352  14.299   9.261
32510SOL    HW299370   6.371  14.427   9.340
32511SOL     OW99371  14.782   9.420   5.160
32511SOL    HW199372  14.786   9.420   5.255
32511SOL    HW299373  14.779   9.328   5.136
32512SOL     OW99374  13.524  11.903   0.670
32512SOL    HW199375  13.445  11.855   0.647
32512SOL    HW299376  13.584  11.887   0.598
32513SOL     OW99377   8.701   6.695   3.695
32513SOL    HW199378   8.717   6.677   3.788
32513SOL    HW299379   8.628   6.639   3.671
32514SOL     OW99380   7.243   9.166  13.188
32514SOL    HW199381   7.173   9.229  13.172
32514SOL    HW299382   7.322   9.219  13.196
32515SOL     OW99383  12.730   2.643   5.141
32515SOL    HW199384  12.764   2.589   5.212
32515SOL    HW299385  12.770   2.606   5.062
32516SOL     OW99386   1.416   8.495  10.523
32516SOL    HW199387   1.468   8.576  10.520
32516SOL    HW299388   1.361   8.507  10.601
32517SOL     OW99389   2.181  11.718  12.502
32517SOL    HW199390   2.269  11.754  12.516
32517SOL    HW299391   2.183  11.633  12.547
32518SOL     OW99392   8.655   8.259   7.276
32518SOL    HW199393   8.567   8.287   7.303
32518SOL    HW299394   8.654   8.267   7.181
32519SOL     OW99395  13.027   1.946  13.177
32519SOL    HW199396  13.019   1.935  13.272
32519SOL    HW299397  12.939   1.967  13.147
32520SOL     OW99398  10.833  11.097   3.475
32520SOL    HW199399  10.744  11.070   3.499
32520SOL    HW299400  10.888  11.059   3.543
32521SOL     OW99401   6.856   5.871  14.561
32521SOL    HW199402   6.818   5.945  14.515
32521SOL    HW299403   6.802   5.861  14.639
32522SOL     OW99404  12.172   3.559   8.225
32522SOL    HW199405  12.251   3.527   8.181
32522SOL    HW299406  12.104   3.497   8.199
32523SOL     OW99407   6.082   3.727   4.634
32523SOL    HW199408   6.046   3.744   4.547
32523SOL    HW299409   6.107   3.635   4.632
32524SOL     OW99410  11.999   2.706   8.976
32524SOL    HW199411  11.953   2.628   8.944
32524SOL    HW299412  12.088   2.697   8.940
32525SOL     OW99413  10.428  12.037  13.580
32525SOL    HW199414  10.432  11.969  13.648
32525SOL    HW299415  10.506  12.021  13.527
32526SOL     OW99416   1.796   8.159   1.751
32526SOL    HW199417   1.884   8.196   1.746
32526SOL    HW299418   1.773   8.139   1.660
32527SOL     OW99419   8.053   1.561   6.613
32527SOL    HW199420   8.031   1.654   6.617
32527SOL    HW299421   8.105   1.552   6.533
32528SOL     OW99422   8.181   3.030   8.809
32528SOL    HW199423   8.177   2.935   8.807
32528SOL    HW299424   8.263   3.049   8.855
32529SOL     OW99425  11.443   4.449   2.543
32529SOL    HW199426  11.397   4.524   2.506
32529SOL    HW299427  11.381   4.377   2.537
32530SOL     OW99428  13.779  12.402  10.397
32530SOL    HW199429  13.835  12.362  10.464
32530SOL    HW299430  13.738  12.328  10.353
32531SOL     OW99431   2.234   5.799   9.664
32531SOL    HW199432   2.149   5.818   9.706
32531SOL    HW299433   2.290   5.772   9.737
32532SOL     OW99434  12.086   9.665  10.569
32532SOL    HW199435  12.170   9.620  10.561
32532SOL    HW299436  12.040   9.617  10.639
32533SOL     OW99437  11.705   2.642  10.203
32533SOL    HW199438  11.643   2.715  10.208
32533SOL    HW299439  11.656   2.573  10.158
32534SOL     OW99440   3.069   6.886  14.798
32534SOL    HW199441   3.033   6.970  14.770
32534SOL    HW299442   3.014   6.820  14.756
32535SOL     OW99443  14.108   5.732   6.903
32535SOL    HW199444  14.203   5.736   6.901
32535SOL    HW299445  14.089   5.649   6.948
32536SOL     OW99446  14.548  11.270   1.976
32536SOL    HW199447  14.515  11.359   1.991
32536SOL    HW299448  14.576  11.240   2.062
32537SOL     OW99449  13.425   6.662   8.357
32537SOL    HW199450  13.507   6.661   8.406
32537SOL    HW299451  13.376   6.587   8.392
32538SOL     OW99452  14.342  11.715  12.364
32538SOL    HW199453  14.388  11.799  12.355
32538SOL    HW299454  14.390  11.669  12.433
32539SOL     OW99455   2.595   6.319   0.247
32539SOL    HW199456   2.593   6.230   0.283
32539SOL    HW299457   2.627   6.308   0.158
32540SOL     OW99458   6.047   9.206   4.033
32540SOL    HW199459   5.954   9.227   4.046
32540SOL    HW299460   6.057   9.118   4.069
32541SOL     OW99461   2.924  10.651   3.889
32541SOL    HW199462   2.901  10.743   3.898
32541SOL    HW299463   3.017  10.647   3.915
32542SOL     OW99464   9.683   3.106   8.640
32542SOL    HW199465   9.710   3.024   8.598
32542SOL    HW299466   9.588   3.100   8.645
32543SOL     OW99467   4.657  10.538   5.143
32543SOL    HW199468   4.695  10.543   5.231
32543SOL    HW299469   4.571  10.580   5.151
32544SOL     OW99470  10.563   4.520   5.764
32544SOL    HW199471  10.540   4.613   5.762
32544SOL    HW299472  10.638   4.513   5.705
32545SOL     OW99473   9.815  14.215   1.657
32545SOL    HW199474   9.806  14.144   1.720
32545SOL    HW299475   9.813  14.295   1.711
32546SOL     OW99476   8.466  13.226   8.835
32546SOL    HW199477   8.397  13.281   8.799
32546SOL    HW299478   8.419  13.152   8.875
32547SOL     OW99479   6.043   7.357   6.095
32547SOL    HW199480   5.999   7.342   6.179
32547SOL    HW299481   6.117   7.413   6.116
32548SOL     OW99482   8.760   5.881   3.959
32548SOL    HW199483   8.670   5.911   3.975
32548SOL    HW299484   8.792   5.940   3.890
32549SOL     OW99485   5.684   5.999   1.485
32549SOL    HW199486   5.761   5.988   1.429
32549SOL    HW299487   5.697   6.083   1.528
32550SOL     OW99488   8.519   1.328   0.245
32550SOL    HW199489   8.460   1.253   0.242
32550SOL    HW299490   8.466   1.400   0.277
32551SOL     OW99491   9.286   0.016   4.160
32551SOL    HW199492   9.336   0.005   4.241
32551SOL    HW299493   9.268  14.803   4.130
32552SOL     OW99494   3.459  14.876   6.190
32552SOL    HW199495   3.392  14.871   6.121
32552SOL    HW299496   3.536  14.837   6.150
32553SOL     OW99497   0.709   2.683  12.487
32553SOL    HW199498   0.742   2.762  12.531
32553SOL    HW299499   0.614   2.696  12.484
32554SOL     OW99500  11.072   6.649  11.824
32554SOL    HW199501  11.149   6.654  11.767
32554SOL    HW299502  11.105   6.671  11.911
32555SOL     OW99503   4.074   5.831   2.707
32555SOL    HW199504   4.043   5.786   2.628
32555SOL    HW299505   4.142   5.891   2.675
32556SOL     OW99506  12.506   8.479   1.551
32556SOL    HW199507  12.517   8.571   1.529
32556SOL    HW299508  12.418   8.473   1.588
32557SOL     OW99509   5.398  11.103   8.934
32557SOL    HW199510   5.464  11.118   9.001
32557SOL    HW299511   5.316  11.092   8.982
32558SOL     OW99512   0.270  13.958   8.968
32558SOL    HW199513   0.226  13.926   8.889
32558SOL    HW299514   0.363  13.943   8.952
32559SOL     OW99515   9.627   3.338   9.684
32559SOL    HW199516   9.665   3.260   9.645
32559SOL    HW299517   9.614   3.398   9.611
32560SOL     OW99518  13.683   6.147   6.244
32560SOL    HW199519  13.734   6.228   6.241
32560SOL    HW299520  13.717   6.095   6.171
32561SOL     OW99521   4.099   7.538   2.485
32561SOL    HW199522   4.085   7.610   2.546
32561SOL    HW299523   4.128   7.465   2.540
32562SOL     OW99524   1.934   0.829  14.164
32562SOL    HW199525   1.925   0.802  14.072
32562SOL    HW299526   1.945   0.747  14.212
32563SOL     OW99527   0.891   7.707   3.461
32563SOL    HW199528   0.864   7.644   3.527
32563SOL    HW299529   0.877   7.663   3.378
32564SOL     OW99530   2.629   2.245   7.821
32564SOL    HW199531   2.636   2.170   7.881
32564SOL    HW299532   2.705   2.300   7.842
32565SOL     OW99533   6.493   4.580   5.023
32565SOL    HW199534   6.458   4.633   5.095
32565SOL    HW299535   6.497   4.491   5.058
32566SOL     OW99536   8.538   7.050   4.257
32566SOL    HW199537   8.494   7.100   4.326
32566SOL    HW299538   8.522   6.958   4.280
32567SOL     OW99539   5.585   1.236   7.802
32567SOL    HW199540   5.542   1.160   7.843
32567SOL    HW299541   5.516   1.301   7.796
32568SOL     OW99542   4.802  10.548   4.445
32568SOL    HW199543   4.769  10.633   4.475
32568SOL    HW299544   4.894  10.564   4.425
32569SOL     OW99545   6.294   6.949   1.560
32569SOL    HW199546   6.355   6.985   1.496
32569SOL    HW299547   6.215   6.928   1.510
32570SOL     OW99548  10.743  12.248  11.029
32570SOL    HW199549  10.782  12.161  11.026
32570SOL    HW299550  10.667  12.238  11.087
32571SOL     OW99551   6.214  13.752   4.258
32571SOL    HW199552   6.296  13.718   4.295
32571SOL    HW299553   6.206  13.708   4.174
32572SOL     OW99554   4.582   5.988  12.718
32572SOL    HW199555   4.532   5.929  12.773
32572SOL    HW299556   4.587   6.070  12.768
32573SOL     OW99557   5.814  11.188  13.013
32573SOL    HW199558   5.876  11.231  12.954
32573SOL    HW299559   5.847  11.099  13.023
32574SOL     OW99560  12.282   1.542   1.679
32574SOL    HW199561  12.370   1.546   1.716
32574SOL    HW299562  12.268   1.629   1.641
32575SOL     OW99563   7.116   8.583   4.016
32575SOL    HW199564   7.034   8.547   4.051
32575SOL    HW299565   7.175   8.508   4.012
32576SOL     OW99566   0.304  12.956  14.116
32576SOL    HW199567   0.333  13.001  14.195
32576SOL    HW299568   0.246  13.018  14.072
32577SOL     OW99569   9.258   2.811  13.055
32577SOL    HW199570   9.321   2.855  12.998
32577SOL    HW299571   9.252   2.722  13.021
32578SOL     OW99572  11.071   9.509  11.995
32578SOL    HW199573  11.164   9.533  11.993
32578SOL    HW299574  11.070   9.414  11.985
32579SOL     OW99575  10.927   7.530  11.274
32579SOL    HW199576  10.929   7.564  11.363
32579SOL    HW299577  10.851   7.573  11.234
32580SOL     OW99578   6.106   7.449   4.507
32580SOL    HW199579   6.057   7.511   4.562
32580SOL    HW299580   6.081   7.363   4.541
32581SOL     OW99581   2.885  10.369  10.209
32581SOL    HW199582   2.898  10.457  10.173
32581SOL    HW299583   2.876  10.313  10.132
32582SOL     OW99584   9.966  13.492  11.378
32582SOL    HW199585   9.909  13.418  11.357
32582SOL    HW299586   9.918  13.541  11.445
32583SOL     OW99587  11.243   3.615   0.924
32583SOL    HW199588  11.276   3.565   0.999
32583SOL    HW299589  11.148   3.610   0.932
32584SOL     OW99590   7.200  14.180   0.306
32584SOL    HW199591   7.196  14.247   0.374
32584SOL    HW299592   7.281  14.198   0.260
32585SOL     OW99593   2.444   7.614   6.942
32585SOL    HW199594   2.377   7.548   6.961
32585SOL    HW299595   2.437   7.676   7.014
32586SOL     OW99596   9.205  12.076   2.105
32586SOL    HW199597   9.194  12.163   2.144
32586SOL    HW299598   9.179  12.015   2.174
32587SOL     OW99599   7.783  13.152   4.735
32587SOL    HW199600   7.755  13.243   4.726
32587SOL    HW299601   7.832  13.150   4.817
32588SOL     OW99602  14.059   1.941   2.918
32588SOL    HW199603  14.029   2.023   2.879
32588SOL    HW299604  14.081   1.886   2.843
32589SOL     OW99605   0.975   0.099  11.672
32589SOL    HW199606   1.058   0.139  11.646
32589SOL    HW299607   0.992   0.004  11.668
32590SOL     OW99608  11.966   1.253   4.518
32590SOL    HW199609  12.026   1.186   4.551
32590SOL    HW299610  11.881   1.209   4.515
32591SOL     OW99611   0.468   8.838   2.904
32591SOL    HW199612   0.374   8.838   2.918
32591SOL    HW299613   0.479   8.859   2.811
32592SOL     OW99614  13.230   2.479  14.382
32592SOL    HW199615  13.321   2.455  14.399
32592SOL    HW299616  13.179   2.406  14.417
32593SOL     OW99617   4.827   8.293  11.529
32593SOL    HW199618   4.836   8.297  11.624
32593SOL    HW299619   4.734   8.310  11.513
32594SOL     OW99620   9.542  10.149   8.967
32594SOL    HW199621   9.496  10.222   8.924
32594SOL    HW299622   9.473  10.086   8.988
32595SOL     OW99623  10.182   3.024   4.417
32595SOL    HW199624  10.201   2.989   4.331
32595SOL    HW299625  10.093   3.060   4.409
32596SOL     OW99626  12.335   7.163   3.510
32596SOL    HW199627  12.348   7.068   3.509
32596SOL    HW299628  12.398   7.197   3.447
32597SOL     OW99629   1.655   6.461   7.876
32597SOL    HW199630   1.702   6.388   7.916
32597SOL    HW299631   1.721   6.507   7.824
32598SOL     OW99632   4.809   9.466  14.288
32598SOL    HW199633   4.826   9.417  14.208
32598SOL    HW299634   4.804   9.557  14.261
32599SOL     OW99635  12.444   9.669   3.414
32599SOL    HW199636  12.524   9.685   3.464
32599SOL    HW299637  12.402   9.754   3.407
32600SOL     OW99638   4.602  14.030   8.192
32600SOL    HW199639   4.515  14.039   8.153
32600SOL    HW299640   4.640  13.953   8.149
32601SOL     OW99641   3.952   6.001   4.665
32601SOL    HW199642   4.021   5.935   4.662
32601SOL    HW299643   3.994   6.081   4.635
32602SOL     OW99644   1.991  13.390  13.028
32602SOL    HW199645   1.964  13.416  13.115
32602SOL    HW299646   2.079  13.354  13.039
32603SOL     OW99647  10.166  14.492   8.279
32603SOL    HW199648  10.194  14.505   8.189
32603SOL    HW299649  10.120  14.573   8.302
32604SOL     OW99650  12.325  12.346  12.102
32604SOL    HW199651  12.237  12.366  12.069
32604SOL    HW299652  12.374  12.427  12.088
32605SOL     OW99653   7.990   0.353   0.649
32605SOL    HW199654   8.028   0.270   0.623
32605SOL    HW299655   8.012   0.413   0.578
32606SOL     OW99656   2.427   6.391   7.758
32606SOL    HW199657   2.353   6.437   7.718
32606SOL    HW299658   2.458   6.331   7.690
32607SOL     OW99659   0.199   4.316   2.144
32607SOL    HW199660   0.138   4.251   2.109
32607SOL    HW299661   0.197   4.387   2.079
32608SOL     OW99662   1.046   0.579   0.244
32608SOL    HW199663   1.094   0.568   0.326
32608SOL    HW299664   1.091   0.651   0.199
32609SOL     OW99665   1.213   5.109  11.021
32609SOL    HW199666   1.152   5.082  11.090
32609SOL    HW299667   1.160   5.166  10.965
32610SOL     OW99668   2.515   1.842   2.594
32610SOL    HW199669   2.568   1.765   2.576
32610SOL    HW299670   2.431   1.823   2.552
32611SOL     OW99671   1.281   9.244   3.787
32611SOL    HW199672   1.279   9.159   3.832
32611SOL    HW299673   1.372   9.254   3.760
32612SOL     OW99674   7.564   6.657   5.552
32612SOL    HW199675   7.517   6.609   5.485
32612SOL    HW299676   7.506   6.730   5.575
32613SOL     OW99677   3.477   5.784   4.167
32613SOL    HW199678   3.566   5.816   4.178
32613SOL    HW299679   3.449   5.816   4.081
32614SOL     OW99680   9.696   9.936   5.253
32614SOL    HW199681   9.752   9.986   5.312
32614SOL    HW299682   9.636   9.889   5.310
32615SOL     OW99683  13.147   3.409  10.497
32615SOL    HW199684  13.073   3.429  10.440
32615SOL    HW299685  13.184   3.494  10.520
32616SOL     OW99686  12.237  12.022   0.403
32616SOL    HW199687  12.173  12.048   0.337
32616SOL    HW299688  12.322  12.040   0.362
32617SOL     OW99689  12.080  10.428   0.048
32617SOL    HW199690  12.006  10.419  14.865
32617SOL    HW299691  12.068  10.514   0.089
32618SOL     OW99692   0.835   8.793   1.157
32618SOL    HW199693   0.771   8.856   1.191
32618SOL    HW299694   0.822   8.715   1.210
32619SOL     OW99695   1.087   7.846   6.021
32619SOL    HW199696   1.055   7.912   6.083
32619SOL    HW299697   1.170   7.881   5.989
32620SOL     OW99698   4.028   2.141   7.494
32620SOL    HW199699   4.074   2.104   7.569
32620SOL    HW299700   3.994   2.065   7.447
32621SOL     OW99701   8.724   9.448   9.302
32621SOL    HW199702   8.795   9.505   9.274
32621SOL    HW299703   8.747   9.362   9.267
32622SOL     OW99704   4.020   5.859   5.311
32622SOL    HW199705   4.074   5.787   5.277
32622SOL    HW299706   4.080   5.909   5.367
32623SOL     OW99707  11.136   1.883   1.014
32623SOL    HW199708  11.207   1.942   1.038
32623SOL    HW299709  11.136   1.884   0.918
32624SOL     OW99710   1.313  13.260  14.406
32624SOL    HW199711   1.328  13.168  14.384
32624SOL    HW299712   1.324  13.264  14.501
32625SOL     OW99713  10.213  13.299   8.820
32625SOL    HW199714  10.142  13.355   8.790
32625SOL    HW299715  10.230  13.240   8.746
32626SOL     OW99716  13.443   8.236   6.962
32626SOL    HW199717  13.361   8.278   6.987
32626SOL    HW299718  13.440   8.151   7.007
32627SOL     OW99719   3.951   8.668   0.484
32627SOL    HW199720   3.906   8.724   0.420
32627SOL    HW299721   3.924   8.579   0.461
32628SOL     OW99722   8.159   2.162  11.142
32628SOL    HW199723   8.083   2.128  11.094
32628SOL    HW299724   8.234   2.136  11.089
32629SOL     OW99725   4.507   0.423   8.655
32629SOL    HW199726   4.418   0.395   8.631
32629SOL    HW299727   4.494   0.491   8.720
32630SOL     OW99728  10.286   2.791   2.375
32630SOL    HW199729  10.311   2.860   2.436
32630SOL    HW299730  10.368   2.752   2.346
32631SOL     OW99731   6.739  11.541   8.725
32631SOL    HW199732   6.769  11.470   8.782
32631SOL    HW299733   6.810  11.606   8.730
32632SOL     OW99734   4.483   4.024  12.355
32632SOL    HW199735   4.394   4.034  12.390
32632SOL    HW299736   4.537   4.081  12.410
32633SOL     OW99737  11.128   1.670  11.812
32633SOL    HW199738  11.088   1.697  11.895
32633SOL    HW299739  11.063   1.693  11.745
32634SOL     OW99740   7.716   6.223  13.923
32634SOL    HW199741   7.781   6.249  13.858
32634SOL    HW299742   7.693   6.305  13.968
32635SOL     OW99743  10.375  11.654   5.058
32635SOL    HW199744  10.363  11.561   5.077
32635SOL    HW299745  10.287  11.686   5.040
32636SOL     OW99746  11.723  10.986   5.441
32636SOL    HW199747  11.636  11.006   5.477
32636SOL    HW299748  11.755  10.915   5.497
32637SOL     OW99749  14.390   2.766   5.085
32637SOL    HW199750  14.297   2.777   5.103
32637SOL    HW299751  14.417   2.695   5.143
32638SOL     OW99752   0.771  10.421  14.399
32638SOL    HW199753   0.722  10.467  14.467
32638SOL    HW299754   0.817  10.351  14.445
32639SOL     OW99755   1.068  14.484   0.794
32639SOL    HW199756   0.999  14.419   0.777
32639SOL    HW299757   1.024  14.568   0.785
32640SOL     OW99758  13.295   6.151   3.667
32640SOL    HW199759  13.243   6.201   3.731
32640SOL    HW299760  13.311   6.212   3.595
32641SOL     OW99761  14.727   3.422   4.839
32641SOL    HW199762  14.781   3.479   4.784
32641SOL    HW299763  14.658   3.392   4.780
32642SOL     OW99764   6.716  13.976  11.133
32642SOL    HW199765   6.715  13.884  11.106
32642SOL    HW299766   6.757  14.022  11.059
32643SOL     OW99767   8.389   5.682  14.020
32643SOL    HW199768   8.482   5.699  14.037
32643SOL    HW299769   8.388   5.599  13.974
32644SOL     OW99770   3.048   3.905  10.721
32644SOL    HW199771   3.046   3.934  10.630
32644SOL    HW299772   2.957   3.907  10.750
32645SOL     OW99773   5.900  10.170  10.075
32645SOL    HW199774   5.963  10.189  10.006
32645SOL    HW299775   5.953  10.164  10.155
32646SOL     OW99776   1.381   3.882   0.483
32646SOL    HW199777   1.353   3.874   0.392
32646SOL    HW299778   1.403   3.792   0.509
32647SOL     OW99779   0.182   6.947   1.153
32647SOL    HW199780   0.200   6.946   1.059
32647SOL    HW299781   0.177   6.854   1.177
32648SOL     OW99782  10.541   4.755   0.319
32648SOL    HW199783  10.474   4.812   0.357
32648SOL    HW299784  10.492   4.684   0.278
32649SOL     OW99785   9.104   3.050   8.304
32649SOL    HW199786   9.092   2.981   8.238
32649SOL    HW299787   9.198   3.065   8.306
32650SOL     OW99788   6.212   7.846   1.790
32650SOL    HW199789   6.173   7.854   1.878
32650SOL    HW299790   6.299   7.809   1.806
32651SOL     OW99791  10.955   0.341   6.984
32651SOL    HW199792  11.033   0.345   7.040
32651SOL    HW299793  10.983   0.380   6.901
32652SOL     OW99794  13.479   6.675   9.843
32652SOL    HW199795  13.527   6.592   9.834
32652SOL    HW299796  13.546   6.742   9.836
32653SOL     OW99797   5.774  13.255  11.526
32653SOL    HW199798   5.844  13.255  11.460
32653SOL    HW299799   5.712  13.190  11.495
32654SOL     OW99800   0.332   9.905   7.440
32654SOL    HW199801   0.392   9.976   7.417
32654SOL    HW299802   0.257   9.949   7.478
32655SOL     OW99803   3.149   7.703  11.680
32655SOL    HW199804   3.117   7.617  11.650
32655SOL    HW299805   3.243   7.691  11.692
32656SOL     OW99806   9.144   9.851   9.296
32656SOL    HW199807   9.153   9.883   9.385
32656SOL    HW299808   9.049   9.853   9.279
32657SOL     OW99809   3.075   3.802  12.293
32657SOL    HW199810   3.138   3.770  12.358
32657SOL    HW299811   3.079   3.897  12.301
32658SOL     OW99812  13.295  11.519   8.846
32658SOL    HW199813  13.224  11.502   8.784
32658SOL    HW299814  13.302  11.439   8.898
32659SOL     OW99815  11.993   6.639  14.697
32659SOL    HW199816  12.076   6.626  14.742
32659SOL    HW299817  12.009   6.611  14.607
32660SOL     OW99818  10.615   5.387   1.130
32660SOL    HW199819  10.706   5.409   1.150
32660SOL    HW299820  10.605   5.296   1.157
32661SOL     OW99821   2.332   4.413   6.620
32661SOL    HW199822   2.419   4.442   6.593
32661SOL    HW299823   2.278   4.421   6.541
32662SOL     OW99824   5.251  12.716   5.664
32662SOL    HW199825   5.244  12.753   5.577
32662SOL    HW299826   5.235  12.622   5.653
32663SOL     OW99827  14.399  10.155   6.735
32663SOL    HW199828  14.439  10.078   6.773
32663SOL    HW299829  14.456  10.178   6.661
32664SOL     OW99830   4.333   8.625   9.197
32664SOL    HW199831   4.417   8.661   9.167
32664SOL    HW299832   4.296   8.584   9.119
32665SOL     OW99833   8.305  10.534   1.827
32665SOL    HW199834   8.217  10.564   1.805
32665SOL    HW299835   8.321  10.459   1.769
32666SOL     OW99836   7.274   3.566  13.131
32666SOL    HW199837   7.252   3.652  13.094
32666SOL    HW299838   7.321   3.521  13.061
32667SOL     OW99839   7.994   7.890   8.725
32667SOL    HW199840   8.005   7.983   8.707
32667SOL    HW299841   8.079   7.851   8.706
32668SOL     OW99842  11.340  12.192  10.615
32668SOL    HW199843  11.267  12.208  10.674
32668SOL    HW299844  11.418  12.206  10.669
32669SOL     OW99845   8.286  13.010   0.464
32669SOL    HW199846   8.324  13.098   0.466
32669SOL    HW299847   8.324  12.966   0.540
32670SOL     OW99848   7.702   6.285   3.464
32670SOL    HW199849   7.742   6.238   3.390
32670SOL    HW299850   7.614   6.307   3.435
32671SOL     OW99851  13.222   1.374  11.429
32671SOL    HW199852  13.193   1.286  11.405
32671SOL    HW299853  13.317   1.369  11.429
32672SOL     OW99854   4.237   8.044  11.197
32672SOL    HW199855   4.149   8.071  11.172
32672SOL    HW299856   4.245   8.069  11.289
32673SOL     OW99857   0.909  11.787   6.624
32673SOL    HW199858   0.816  11.765   6.617
32673SOL    HW299859   0.941  11.734   6.696
32674SOL     OW99860  13.193   9.909   7.125
32674SOL    HW199861  13.113   9.929   7.077
32674SOL    HW299862  13.248   9.987   7.114
32675SOL     OW99863   2.533   7.534   9.057
32675SOL    HW199864   2.594   7.476   9.102
32675SOL    HW299865   2.588   7.582   8.995
32676SOL     OW99866   4.543   1.765   5.662
32676SOL    HW199867   4.482   1.750   5.590
32676SOL    HW299868   4.490   1.757   5.741
32677SOL     OW99869  13.121  13.636   4.901
32677SOL    HW199870  13.214  13.624   4.918
32677SOL    HW299871  13.104  13.728   4.923
32678SOL     OW99872   2.454   8.036  11.422
32678SOL    HW199873   2.527   8.047  11.360
32678SOL    HW299874   2.414   8.123  11.428
32679SOL     OW99875   6.779   9.692   9.200
32679SOL    HW199876   6.841   9.719   9.269
32679SOL    HW299877   6.835   9.676   9.124
32680SOL     OW99878   8.384  12.147   0.308
32680SOL    HW199879   8.446  12.109   0.246
32680SOL    HW299880   8.371  12.237   0.277
32681SOL     OW99881   7.465  10.787   3.940
32681SOL    HW199882   7.481  10.880   3.926
32681SOL    HW299883   7.543  10.744   3.904
32682SOL     OW99884  10.064  14.699  12.565
32682SOL    HW199885  10.033  14.714  12.476
32682SOL    HW299886  10.070  14.787  12.604
32683SOL     OW99887  14.401  10.076  10.105
32683SOL    HW199888  14.425  10.014  10.174
32683SOL    HW299889  14.409  10.026  10.024
32684SOL     OW99890  12.773   3.088   4.109
32684SOL    HW199891  12.745   3.128   4.192
32684SOL    HW299892  12.756   3.156   4.043
32685SOL     OW99893   8.897   9.998  13.824
32685SOL    HW199894   8.960   9.987  13.753
32685SOL    HW299895   8.813  10.015  13.780
32686SOL     OW99896  10.976   2.939  14.193
32686SOL    HW199897  10.959   2.846  14.179
32686SOL    HW299898  10.911   2.965  14.259
32687SOL     OW99899   1.250  14.658   6.208
32687SOL    HW199900   1.207  14.743   6.214
32687SOL    HW299901   1.344  14.678   6.217
32688SOL     OW99902   4.204  13.165   1.714
32688SOL    HW199903   4.135  13.118   1.761
32688SOL    HW299904   4.282  13.153   1.768
32689SOL     OW99905  12.320   3.177   1.672
32689SOL    HW199906  12.259   3.249   1.686
32689SOL    HW299907  12.405   3.218   1.664
32690SOL     OW99908  11.996   7.615  12.201
32690SOL    HW199909  11.906   7.631  12.172
32690SOL    HW299910  11.996   7.635  12.294
32691SOL     OW99911   1.148   9.044   5.026
32691SOL    HW199912   1.159   9.000   4.942
32691SOL    HW299913   1.125   9.134   5.004
32692SOL     OW99914   1.169  13.094  13.353
32692SOL    HW199915   1.165  13.168  13.414
32692SOL    HW299916   1.261  13.071  13.349
32693SOL     OW99917  11.749  11.985  10.118
32693SOL    HW199918  11.741  11.891  10.105
32693SOL    HW299919  11.839  11.997  10.150
32694SOL     OW99920   7.847   3.674   2.503
32694SOL    HW199921   7.910   3.739   2.471
32694SOL    HW299922   7.896   3.593   2.507
32695SOL     OW99923  12.803  11.034   3.887
32695SOL    HW199924  12.846  10.969   3.830
32695SOL    HW299925  12.722  10.991   3.914
32696SOL     OW99926   1.076  10.296   3.029
32696SOL    HW199927   0.988  10.312   2.997
32696SOL    HW299928   1.063  10.249   3.112
32697SOL     OW99929   9.012   6.065   3.502
32697SOL    HW199930   8.939   6.087   3.445
32697SOL    HW299931   9.016   6.137   3.566
32698SOL     OW99932   8.698   5.148   9.050
32698SOL    HW199933   8.687   5.058   9.081
32698SOL    HW299934   8.792   5.157   9.034
32699SOL     OW99935  11.293   5.627  12.434
32699SOL    HW199936  11.223   5.643  12.496
32699SOL    HW299937  11.250   5.628  12.348
32700SOL     OW99938   2.755   4.696   3.857
32700SOL    HW199939   2.691   4.643   3.812
32700SOL    HW299940   2.731   4.787   3.836
32701SOL     OW99941   1.059   0.427   5.063
32701SOL    HW199942   1.110   0.353   5.095
32701SOL    HW299943   0.968   0.397   5.066
32702SOL     OW99944   9.500   4.678  14.370
32702SOL    HW199945   9.569   4.629  14.416
32702SOL    HW299946   9.512   4.768  14.400
32703SOL     OW99947   8.033  11.946   4.532
32703SOL    HW199948   8.087  11.925   4.456
32703SOL    HW299949   8.075  11.900   4.605
32704SOL     OW99950   1.101   5.139   4.451
32704SOL    HW199951   1.177   5.082   4.441
32704SOL    HW299952   1.095   5.186   4.368
32705SOL     OW99953   4.258   3.688   5.947
32705SOL    HW199954   4.314   3.671   5.871
32705SOL    HW299955   4.215   3.771   5.927
32706SOL     OW99956   8.171  10.283   3.108
32706SOL    HW199957   8.156  10.195   3.074
32706SOL    HW299958   8.116  10.339   3.054
32707SOL     OW99959   7.692   5.906   9.868
32707SOL    HW199960   7.610   5.899   9.918
32707SOL    HW299961   7.670   5.872   9.781
32708SOL     OW99962   3.930  12.371  11.396
32708SOL    HW199963   3.980  12.445  11.362
32708SOL    HW299964   3.928  12.384  11.491
32709SOL     OW99965   1.453   1.374  13.635
32709SOL    HW199966   1.472   1.285  13.665
32709SOL    HW299967   1.385   1.363  13.569
32710SOL     OW99968   2.441   0.538   8.283
32710SOL    HW199969   2.526   0.557   8.324
32710SOL    HW299970   2.383   0.520   8.357
32711SOL     OW99971   1.502  13.744   7.521
32711SOL    HW199972   1.563  13.723   7.592
32711SOL    HW299973   1.516  13.837   7.502
32712SOL     OW99974   6.683   6.204  11.729
32712SOL    HW199975   6.659   6.151  11.805
32712SOL    HW299976   6.756   6.258  11.760
32713SOL     OW99977   0.299   8.918  12.225
32713SOL    HW199978   0.379   8.898  12.176
32713SOL    HW299979   0.292   8.847  12.288
32714SOL     OW99980   5.213   0.134  13.240
32714SOL    HW199981   5.242   0.115  13.151
32714SOL    HW299982   5.270   0.079  13.295
32715SOL     OW99983   3.490  11.963   2.687
32715SOL    HW199984   3.471  11.903   2.759
32715SOL    HW299985   3.582  11.949   2.667
32716SOL     OW99986   5.023   9.075  14.718
32716SOL    HW199987   4.947   9.115  14.760
32716SOL    HW299988   5.054   9.010  14.781
32717SOL     OW99989   1.890  12.735   7.454
32717SOL    HW199990   1.824  12.728   7.523
32717SOL    HW299991   1.970  12.699   7.492
32718SOL     OW99992  13.968  14.515  14.358
32718SOL    HW199993  13.875  14.509  14.379
32718SOL    HW299994  14.011  14.453  14.417
32719SOL     OW99995   8.108   5.113   0.774
32719SOL    HW199996   8.117   5.090   0.682
32719SOL    HW299997   8.089   5.207   0.773
32720SOL     OW99998  10.344  12.757   0.327
32720SOL    HW199999  10.361  12.684   0.385
32720SOL    HW2    0  10.430  12.783   0.294
32721SOL     OW    1  12.561   7.499   3.592
32721SOL    HW1    2  12.592   7.590   3.592
32721SOL    HW2    3  12.553   7.476   3.500
32722SOL     OW    4   8.452  10.236   9.268
32722SOL    HW1    5   8.437  10.147   9.236
32722SOL    HW2    6   8.427  10.233   9.360
32723SOL     OW    7   3.084   2.981   3.305
32723SOL    HW1    8   3.167   3.000   3.262
32723SOL    HW2    9   3.100   3.000   3.398
32724SOL     OW   10   4.958   3.781  12.906
32724SOL    HW1   11   4.982   3.706  12.960
32724SOL    HW2   12   4.952   3.854  12.968
32725SOL     OW   13  10.342  14.369   5.712
32725SOL    HW1   14  10.250  14.378   5.738
32725SOL    HW2   15  10.391  14.375   5.794
32726SOL     OW   16  13.168   7.561   1.344
32726SOL    HW1   17  13.112   7.520   1.410
32726SOL    HW2   18  13.110   7.579   1.271
32727SOL     OW   19   0.090   2.695   5.698
32727SOL    HW1   20   0.042   2.753   5.758
32727SOL    HW2   21   0.182   2.716   5.714
32728SOL     OW   22  10.986   1.913  14.170
32728SOL    HW1   23  10.898   1.878  14.185
32728SOL    HW2   24  10.977   1.967  14.092
32729SOL     OW   25   0.089   7.908   2.761
32729SOL    HW1   26   0.060   7.957   2.838
32729SOL    HW2   27   0.029   7.833   2.757
32730SOL     OW   28  13.711   4.333   9.221
32730SOL    HW1   29  13.709   4.243   9.254
32730SOL    HW2   30  13.657   4.331   9.142
32731SOL     OW   31   3.450  10.922  13.302
32731SOL    HW1   32   3.435  10.833  13.271
32731SOL    HW2   33   3.443  10.916  13.397
32732SOL     OW   34   6.355   3.226   8.694
32732SOL    HW1   35   6.448   3.208   8.681
32732SOL    HW2   36   6.317   3.140   8.716
32733SOL     OW   37   5.027  10.487   0.410
32733SOL    HW1   38   5.019  10.395   0.385
32733SOL    HW2   39   5.026  10.534   0.326
32734SOL     OW   40  10.577   2.984   3.799
32734SOL    HW1   41  10.550   3.025   3.717
32734SOL    HW2   42  10.572   3.055   3.864
32735SOL     OW   43   0.380   7.200  13.282
32735SOL    HW1   44   0.303   7.253  13.263
32735SOL    HW2   45   0.347   7.126  13.332
32736SOL     OW   46  13.348  12.165   2.141
32736SOL    HW1   47  13.295  12.093   2.174
32736SOL    HW2   48  13.359  12.223   2.216
32737SOL     OW   49   8.486  14.242  10.495
32737SOL    HW1   50   8.493  14.189  10.415
32737SOL    HW2   51   8.392  14.249  10.511
32738SOL     OW   52   8.152   9.965   3.319
32738SOL    HW1   53   8.101   9.941   3.397
32738SOL    HW2   54   8.090   9.955   3.247
32739SOL     OW   55   3.014  10.783   0.993
32739SOL    HW1   56   3.009  10.762   0.900
32739SOL    HW2   57   3.055  10.869   0.997
32740SOL     OW   58   0.329   5.478   0.712
32740SOL    HW1   59   0.403   5.500   0.655
32740SOL    HW2   60   0.339   5.538   0.786
32741SOL     OW   61  11.876   8.925   5.723
32741SOL    HW1   62  11.788   8.888   5.733
32741SOL    HW2   63  11.891   8.973   5.805
32742SOL     OW   64   3.084   6.897  13.107
32742SOL    HW1   65   3.134   6.880  13.187
32742SOL    HW2   66   3.054   6.810  13.080
32743SOL     OW   67   2.742   4.581   3.468
32743SOL    HW1   68   2.651   4.553   3.478
32743SOL    HW2   69   2.793   4.507   3.501
32744SOL     OW   70   6.057  10.844   8.379
32744SOL    HW1   71   5.977  10.867   8.426
32744SOL    HW2   72   6.126  10.848   8.445
32745SOL     OW   73   4.001   3.553  11.502
32745SOL    HW1   74   4.063   3.617  11.537
32745SOL    HW2   75   4.057   3.485  11.463
32746SOL     OW   76  11.612   5.706  13.651
32746SOL    HW1   77  11.650   5.794  13.657
32746SOL    HW2   78  11.522   5.717  13.681
32747SOL     OW   79  14.788  13.560   9.287
32747SOL    HW1   80  14.809  13.497   9.355
32747SOL    HW2   81  14.716  13.521   9.238
32748SOL     OW   82   2.827   4.521   7.134
32748SOL    HW1   83   2.893   4.545   7.199
32748SOL    HW2   84   2.854   4.567   7.054
32749SOL     OW   85   6.825   0.567   8.582
32749SOL    HW1   86   6.781   0.647   8.552
32749SOL    HW2   87   6.817   0.507   8.508
32750SOL     OW   88   9.273   6.325   5.958
32750SOL    HW1   89   9.306   6.236   5.943
32750SOL    HW2   90   9.351   6.379   5.963
32751SOL     OW   91  11.009   7.398   5.306
32751SOL    HW1   92  10.966   7.388   5.222
32751SOL    HW2   93  11.102   7.410   5.284
32752SOL     OW   94   3.850   5.078   2.094
32752SOL    HW1   95   3.871   5.161   2.138
32752SOL    HW2   96   3.756   5.067   2.107
32753SOL     OW   97   8.992   5.153  13.962
32753SOL    HW1   98   8.963   5.178  14.050
32753SOL    HW2   99   8.912   5.154  13.910
32754SOL     OW  100   6.222  12.291   0.715
32754SOL    HW1  101   6.148  12.280   0.774
32754SOL    HW2  102   6.218  12.215   0.656
32755SOL     OW  103   2.238   9.272   3.750
32755SOL    HW1  104   2.271   9.256   3.662
32755SOL    HW2  105   2.151   9.232   3.750
32756SOL     OW  106   4.735  13.953   6.764
32756SOL    HW1  107   4.679  14.013   6.714
32756SOL    HW2  108   4.778  14.009   6.829
32757SOL     OW  109  10.711   9.652   3.071
32757SOL    HW1  110  10.703   9.590   3.144
32757SOL    HW2  111  10.708   9.598   2.993
32758SOL     OW  112   2.704   7.127   8.465
32758SOL    HW1  113   2.706   7.179   8.545
32758SOL    HW2  114   2.644   7.174   8.407
32759SOL     OW  115   6.798   6.189   3.600
32759SOL    HW1  116   6.846   6.137   3.664
32759SOL    HW2  117   6.707   6.164   3.613
32760SOL     OW  118   3.460   6.762   9.495
32760SOL    HW1  119   3.434   6.854   9.495
32760SOL    HW2  120   3.411   6.723   9.423
32761SOL     OW  121   0.668   8.528  13.416
32761SOL    HW1  122   0.713   8.591  13.360
32761SOL    HW2  123   0.649   8.577  13.497
32762SOL     OW  124   7.184   7.566   0.121
32762SOL    HW1  125   7.266   7.612   0.107
32762SOL    HW2  126   7.158   7.536   0.034
32763SOL     OW  127  13.196   9.362  13.634
32763SOL    HW1  128  13.138   9.397  13.567
32763SOL    HW2  129  13.284   9.375  13.600
32764SOL     OW  130  10.129  14.513   4.809
32764SOL    HW1  131  10.224  14.505   4.804
32764SOL    HW2  132  10.103  14.548   4.724
32765SOL     OW  133   2.261  12.837  13.363
32765SOL    HW1  134   2.355  12.834  13.379
32765SOL    HW2  135   2.226  12.892  13.433
32766SOL     OW  136   1.534   1.551  10.315
32766SOL    HW1  137   1.560   1.624  10.372
32766SOL    HW2  138   1.454   1.581  10.273
32767SOL     OW  139   6.368   4.158   6.649
32767SOL    HW1  140   6.346   4.242   6.608
32767SOL    HW2  141   6.414   4.182   6.730
32768SOL     OW  142   3.179  11.314   9.852
32768SOL    HW1  143   3.123  11.236   9.850
32768SOL    HW2  144   3.242  11.296   9.922
32769SOL     OW  145  11.066   3.765   3.931
32769SOL    HW1  146  11.137   3.821   3.900
32769SOL    HW2  147  10.997   3.826   3.959
32770SOL     OW  148   6.896   4.801  14.305
32770SOL    HW1  149   6.886   4.849  14.387
32770SOL    HW2  150   6.813   4.811  14.260
32771SOL     OW  151   8.336  12.126   9.275
32771SOL    HW1  152   8.353  12.145   9.182
32771SOL    HW2  153   8.246  12.154   9.289
32772SOL     OW  154   2.026  12.635   1.763
32772SOL    HW1  155   2.110  12.672   1.791
32772SOL    HW2  156   2.023  12.651   1.669
32773SOL     OW  157   4.030  14.570   4.964
32773SOL    HW1  158   4.019  14.608   5.051
32773SOL    HW2  159   3.986  14.485   4.969
32774SOL     OW  160   9.185   2.217   6.774
32774SOL    HW1  161   9.196   2.142   6.833
32774SOL    HW2  162   9.124   2.186   6.707
32775SOL     OW  163  11.994  12.541   4.147
32775SOL    HW1  164  12.047  12.569   4.222
32775SOL    HW2  165  12.058  12.525   4.078
32776SOL     OW  166  13.549   1.500   3.005
32776SOL    HW1  167  13.581   1.471   2.919
32776SOL    HW2  168  13.463   1.460   3.013
32777SOL     OW  169   0.365  12.600  11.341
32777SOL    HW1  170   0.359  12.695  11.333
32777SOL    HW2  171   0.432  12.575  11.277
32778SOL     OW  172   1.455  14.548  12.262
32778SOL    HW1  173   1.475  14.502  12.344
32778SOL    HW2  174   1.370  14.512  12.235
32779SOL     OW  175   3.486   5.070   0.247
32779SOL    HW1  176   3.414   5.119   0.287
32779SOL    HW2  177   3.493   5.107   0.159
32780SOL     OW  178   3.177  10.432   5.736
32780SOL    HW1  179   3.169  10.403   5.827
32780SOL    HW2  180   3.271  10.430   5.719
32781SOL     OW  181  12.872   5.225  14.020
32781SOL    HW1  182  12.953   5.263  14.054
32781SOL    HW2  183  12.847   5.158  14.084
32782SOL     OW  184   1.694   3.282   1.104
32782SOL    HW1  185   1.785   3.308   1.088
32782SOL    HW2  186   1.699   3.220   1.177
32783SOL     OW  187  13.888   9.660   9.211
32783SOL    HW1  188  13.970   9.663   9.260
32783SOL    HW2  189  13.907   9.710   9.131
32784SOL     OW  190   3.900  10.731   2.358
32784SOL    HW1  191   3.822  10.786   2.368
32784SOL    HW2  192   3.868  10.641   2.369
32785SOL     OW  193  13.496  14.115  14.053
32785SOL    HW1  194  13.402  14.110  14.070
32785SOL    HW2  195  13.523  14.024  14.040
32786SOL     OW  196  11.511   0.634   0.556
32786SOL    HW1  197  11.557   0.618   0.639
32786SOL    HW2  198  11.474   0.549   0.532
32787SOL     OW  199   5.775   8.403   4.807
32787SOL    HW1  200   5.754   8.367   4.721
32787SOL    HW2  201   5.709   8.472   4.820
32788SOL     OW  202   8.955   3.620   6.484
32788SOL    HW1  203   8.911   3.673   6.551
32788SOL    HW2  204   9.041   3.603   6.521
32789SOL     OW  205   8.106  12.280   6.649
32789SOL    HW1  206   8.139  12.228   6.575
32789SOL    HW2  207   8.018  12.246   6.665
32790SOL     OW  208   5.160   8.550   4.990
32790SOL    HW1  209   5.230   8.572   4.929
32790SOL    HW2  210   5.199   8.485   5.049
32791SOL     OW  211   7.246  11.737  10.866
32791SOL    HW1  212   7.151  11.726  10.857
32791SOL    HW2  213   7.255  11.809  10.929
32792SOL     OW  214   4.148   2.610  11.838
32792SOL    HW1  215   4.228   2.591  11.887
32792SOL    HW2  216   4.078   2.610  11.904
32793SOL     OW  217  11.843   9.290  13.810
32793SOL    HW1  218  11.806   9.292  13.721
32793SOL    HW2  219  11.849   9.196  13.830
32794SOL     OW  220  13.043   9.025   3.538
32794SOL    HW1  221  13.130   9.032   3.498
32794SOL    HW2  222  12.982   9.045   3.467
32795SOL     OW  223   3.589   3.327   1.250
32795SOL    HW1  224   3.650   3.261   1.283
32795SOL    HW2  225   3.502   3.292   1.272
32796SOL     OW  226  10.455   0.318  14.292
32796SOL    HW1  227  10.404   0.261  14.349
32796SOL    HW2  228  10.398   0.333  14.216
32797SOL     OW  229   1.167   9.691  13.880
32797SOL    HW1  230   1.086   9.732  13.909
32797SOL    HW2  231   1.142   9.602  13.855
32798SOL     OW  232   1.600   2.834   6.764
32798SOL    HW1  233   1.595   2.824   6.669
32798SOL    HW2  234   1.517   2.875   6.788
32799SOL     OW  235  10.068  13.964   8.747
32799SOL    HW1  236   9.978  13.979   8.776
32799SOL    HW2  237  10.122  14.002   8.817
32800SOL     OW  238   1.946   0.141   4.216
32800SOL    HW1  239   1.882   0.147   4.288
32800SOL    HW2  240   1.999   0.064   4.237
32801SOL     OW  241  12.361   5.179   8.461
32801SOL    HW1  242  12.398   5.216   8.381
32801SOL    HW2  243  12.435   5.171   8.521
32802SOL     OW  244   5.825   4.114   6.477
32802SOL    HW1  245   5.866   4.105   6.391
32802SOL    HW2  246   5.765   4.039   6.483
32803SOL     OW  247  12.511   3.307  11.299
32803SOL    HW1  248  12.486   3.302  11.391
32803SOL    HW2  249  12.433   3.280  11.251
32804SOL     OW  250   5.074   3.046   7.926
32804SOL    HW1  251   5.136   3.102   7.971
32804SOL    HW2  252   5.004   3.105   7.897
32805SOL     OW  253   1.361  13.365   0.323
32805SOL    HW1  254   1.370  13.275   0.293
32805SOL    HW2  255   1.321  13.358   0.409
32806SOL     OW  256  12.398   9.945   3.459
32806SOL    HW1  257  12.485   9.983   3.447
32806SOL    HW2  258  12.394   9.924   3.553
32807SOL     OW  259   1.364   7.854   0.559
32807SOL    HW1  260   1.318   7.862   0.643
32807SOL    HW2  261   1.436   7.916   0.565
32808SOL     OW  262   7.726   0.074   9.633
32808SOL    HW1  263   7.705   0.078   9.540
32808SOL    HW2  264   7.689  14.867   9.662
32809SOL     OW  265  13.241  13.574  12.525
32809SOL    HW1  266  13.199  13.645  12.575
32809SOL    HW2  267  13.202  13.494  12.559
32810SOL     OW  268   7.073  14.465   9.000
32810SOL    HW1  269   6.998  14.476   8.941
32810SOL    HW2  270   7.107  14.553   9.012
32811SOL     OW  271   0.985   6.366   5.742
32811SOL    HW1  272   0.909   6.315   5.771
32811SOL    HW2  273   1.060   6.315   5.772
32812SOL     OW  274   6.388  12.844  11.802
32812SOL    HW1  275   6.366  12.892  11.881
32812SOL    HW2  276   6.483  12.855  11.793
32813SOL     OW  277  11.731   4.661   5.166
32813SOL    HW1  278  11.781   4.696   5.092
32813SOL    HW2  279  11.709   4.739   5.218
32814SOL     OW  280   8.294   1.488   5.404
32814SOL    HW1  281   8.375   1.505   5.453
32814SOL    HW2  282   8.323   1.470   5.315
32815SOL     OW  283   7.697  14.474   8.732
32815SOL    HW1  284   7.692  14.514   8.646
32815SOL    HW2  285   7.732  14.386   8.716
32816SOL     OW  286  12.722   0.754   8.223
32816SOL    HW1  287  12.678   0.738   8.139
32816SOL    HW2  288  12.791   0.687   8.226
32817SOL     OW  289   7.310   9.318   2.565
32817SOL    HW1  290   7.238   9.319   2.627
32817SOL    HW2  291   7.270   9.292   2.482
32818SOL     OW  292   5.902   2.116  14.498
32818SOL    HW1  293   5.829   2.167  14.462
32818SOL    HW2  294   5.909   2.145  14.589
32819SOL     OW  295   7.966   6.863   9.464
32819SOL    HW1  296   7.891   6.890   9.518
32819SOL    HW2  297   7.925   6.824   9.386
32820SOL     OW  298   8.825  11.995   1.964
32820SOL    HW1  299   8.811  11.981   2.058
32820SOL    HW2  300   8.819  12.090   1.953
32821SOL     OW  301   5.841  10.471   4.188
32821SOL    HW1  302   5.790  10.444   4.111
32821SOL    HW2  303   5.799  10.425   4.261
32822SOL     OW  304   5.881  10.448   3.751
32822SOL    HW1  305   5.970  10.473   3.775
32822SOL    HW2  306   5.847  10.524   3.703
32823SOL     OW  307  14.257   5.887  10.182
32823SOL    HW1  308  14.336   5.922  10.141
32823SOL    HW2  309  14.199   5.963  10.191
32824SOL     OW  310  10.146   4.445  13.143
32824SOL    HW1  311  10.128   4.508  13.213
32824SOL    HW2  312  10.103   4.481  13.066
32825SOL     OW  313   7.490   9.118   8.856
32825SOL    HW1  314   7.553   9.115   8.785
32825SOL    HW2  315   7.507   9.201   8.901
32826SOL     OW  316   0.316  10.475  11.857
32826SOL    HW1  317   0.404  10.451  11.887
32826SOL    HW2  318   0.325  10.483  11.762
32827SOL     OW  319   3.422   0.541   9.237
32827SOL    HW1  320   3.349   0.539   9.298
32827SOL    HW2  321   3.383   0.520   9.152
32828SOL     OW  322   6.139   6.644  11.960
32828SOL    HW1  323   6.045   6.660  11.946
32828SOL    HW2  324   6.157   6.564  11.911
32829SOL     OW  325  14.099   2.036  14.288
32829SOL    HW1  326  14.051   1.957  14.314
32829SOL    HW2  327  14.031   2.099  14.264
32830SOL     OW  328   3.126   1.662  14.564
32830SOL    HW1  329   3.085   1.583  14.600
32830SOL    HW2  330   3.072   1.734  14.597
32831SOL     OW  331   0.160   7.229   7.942
32831SOL    HW1  332   0.230   7.170   7.917
32831SOL    HW2  333   0.126   7.262   7.859
32832SOL     OW  334   8.541  14.206   2.858
32832SOL    HW1  335   8.553  14.184   2.951
32832SOL    HW2  336   8.460  14.161   2.834
32833SOL     OW  337   9.532   6.443   6.374
32833SOL    HW1  338   9.585   6.522   6.380
32833SOL    HW2  339   9.555   6.393   6.452
32834SOL     OW  340   3.745   1.297   8.109
32834SOL    HW1  341   3.652   1.304   8.085
32834SOL    HW2  342   3.782   1.382   8.086
32835SOL     OW  343   3.418  11.590  12.083
32835SOL    HW1  344   3.424  11.616  11.991
32835SOL    HW2  345   3.509  11.586  12.113
32836SOL     OW  346  10.594   4.450  10.478
32836SOL    HW1  347  10.574   4.373  10.531
32836SOL    HW2  348  10.577   4.524  10.536
32837SOL     OW  349  14.524  11.851   0.144
32837SOL    HW1  350  14.583  11.926   0.148
32837SOL    HW2  351  14.581  11.778   0.117
32838SOL     OW  352   1.339  13.197  10.025
32838SOL    HW1  353   1.370  13.137  10.093
32838SOL    HW2  354   1.417  13.218   9.974
32839SOL     OW  355   3.663  12.918   6.995
32839SOL    HW1  356   3.733  12.982   6.985
32839SOL    HW2  357   3.639  12.923   7.087
32840SOL     OW  358  10.802  14.088  10.328
32840SOL    HW1  359  10.808  14.184  10.321
32840SOL    HW2  360  10.725  14.066  10.276
32841SOL     OW  361  12.314  11.630   6.257
32841SOL    HW1  362  12.251  11.683   6.207
32841SOL    HW2  363  12.280  11.541   6.252
32842SOL     OW  364  13.895   7.295  12.025
32842SOL    HW1  365  13.963   7.319  11.962
32842SOL    HW2  366  13.837   7.236  11.978
32843SOL     OW  367  14.444   7.102   7.033
32843SOL    HW1  368  14.369   7.050   7.062
32843SOL    HW2  369  14.519   7.043   7.044
32844SOL     OW  370   3.322  12.701  13.881
32844SOL    HW1  371   3.395  12.703  13.943
32844SOL    HW2  372   3.251  12.658  13.930
32845SOL     OW  373  13.458   0.336   6.903
32845SOL    HW1  374  13.416   0.271   6.846
32845SOL    HW2  375  13.430   0.312   6.991
32846SOL     OW  376   9.255   1.568   3.101
32846SOL    HW1  377   9.299   1.555   3.185
32846SOL    HW2  378   9.213   1.484   3.082
32847SOL     OW  379   3.077   8.641  13.808
32847SOL    HW1  380   3.044   8.594  13.884
32847SOL    HW2  381   3.080   8.733  13.835
32848SOL     OW  382   8.124   4.999  13.012
32848SOL    HW1  383   8.118   4.982  12.918
32848SOL    HW2  384   8.042   5.043  13.033
32849SOL     OW  385   0.393  10.089   5.251
32849SOL    HW1  386   0.476  10.043   5.240
32849SOL    HW2  387   0.373  10.081   5.344
32850SOL     OW  388   2.198  12.810   6.309
32850SOL    HW1  389   2.123  12.853   6.268
32850SOL    HW2  390   2.173  12.718   6.314
32851SOL     OW  391   2.296  14.440  12.718
32851SOL    HW1  392   2.235  14.404  12.783
32851SOL    HW2  393   2.372  14.467  12.768
32852SOL     OW  394  11.763   6.651   5.473
32852SOL    HW1  395  11.819   6.615   5.404
32852SOL    HW2  396  11.683   6.599   5.468
32853SOL     OW  397   7.353  14.705  11.360
32853SOL    HW1  398   7.265  14.740  11.343
32853SOL    HW2  399   7.400  14.719  11.278
32854SOL     OW  400  14.691  14.111  11.239
32854SOL    HW1  401  14.646  14.187  11.276
32854SOL    HW2  402  14.666  14.111  11.147
32855SOL     OW  403   0.149  13.134   2.089
32855SOL    HW1  404   0.180  13.147   2.179
32855SOL    HW2  405   0.225  13.153   2.035
32856SOL     OW  406  10.785   0.149   7.365
32856SOL    HW1  407  10.767   0.242   7.378
32856SOL    HW2  408  10.718   0.120   7.303
32857SOL     OW  409   3.670   8.843   6.588
32857SOL    HW1  410   3.748   8.790   6.604
32857SOL    HW2  411   3.606   8.781   6.553
32858SOL     OW  412  11.262   4.918  10.002
32858SOL    HW1  413  11.312   4.873  10.070
32858SOL    HW2  414  11.239   4.850   9.940
32859SOL     OW  415  11.589   6.893   6.167
32859SOL    HW1  416  11.605   6.965   6.228
32859SOL    HW2  417  11.646   6.823   6.199
32860SOL     OW  418   2.215   5.666   4.242
32860SOL    HW1  419   2.250   5.580   4.266
32860SOL    HW2  420   2.175   5.700   4.322
32861SOL     OW  421  13.941  13.745   7.559
32861SOL    HW1  422  13.962  13.660   7.599
32861SOL    HW2  423  13.919  13.801   7.634
32862SOL     OW  424   6.564   0.603   6.618
32862SOL    HW1  425   6.568   0.686   6.665
32862SOL    HW2  426   6.525   0.542   6.681
32863SOL     OW  427   1.300  11.377   2.348
32863SOL    HW1  428   1.260  11.292   2.363
32863SOL    HW2  429   1.307  11.416   2.435
32864SOL     OW  430   0.283   4.127   4.227
32864SOL    HW1  431   0.338   4.192   4.272
32864SOL    HW2  432   0.290   4.152   4.134
32865SOL     OW  433   8.476  14.132   9.411
32865SOL    HW1  434   8.411  14.082   9.362
32865SOL    HW2  435   8.560  14.107   9.372
32866SOL     OW  436   3.378   0.749  13.312
32866SOL    HW1  437   3.361   0.696  13.234
32866SOL    HW2  438   3.296   0.745  13.361
32867SOL     OW  439   9.293   5.418   4.730
32867SOL    HW1  440   9.222   5.382   4.676
32867SOL    HW2  441   9.262   5.410   4.820
32868SOL     OW  442   9.456   5.939  11.600
32868SOL    HW1  443   9.472   5.919  11.692
32868SOL    HW2  444   9.474   5.857  11.554
32869SOL     OW  445   2.371   8.336   3.350
32869SOL    HW1  446   2.343   8.253   3.389
32869SOL    HW2  447   2.461   8.347   3.379
32870SOL     OW  448   2.228   8.451   8.591
32870SOL    HW1  449   2.270   8.537   8.586
32870SOL    HW2  450   2.215   8.436   8.685
32871SOL     OW  451   9.039   5.102   4.200
32871SOL    HW1  452   9.010   5.069   4.286
32871SOL    HW2  453   8.976   5.064   4.138
32872SOL     OW  454  13.124  12.336  12.028
32872SOL    HW1  455  13.080  12.419  12.009
32872SOL    HW2  456  13.152  12.303  11.942
32873SOL     OW  457   6.572  14.859   3.837
32873SOL    HW1  458   6.600  14.781   3.885
32873SOL    HW2  459   6.477  14.850   3.829
32874SOL     OW  460   9.404   3.609   1.683
32874SOL    HW1  461   9.433   3.630   1.772
32874SOL    HW2  462   9.368   3.521   1.690
32875SOL     OW  463  13.030  13.426   8.001
32875SOL    HW1  464  12.999  13.516   7.987
32875SOL    HW2  465  13.120  13.427   7.971
32876SOL     OW  466   9.499   2.963   6.453
32876SOL    HW1  467   9.552   2.884   6.465
32876SOL    HW2  468   9.535   3.026   6.515
32877SOL     OW  469  12.253   8.711  10.967
32877SOL    HW1  470  12.263   8.806  10.966
32877SOL    HW2  471  12.206   8.693  11.049
32878SOL     OW  472  10.128   6.054  14.565
32878SOL    HW1  473  10.214   6.022  14.593
32878SOL    HW2  474  10.077   5.975  14.548
32879SOL     OW  475  12.188   4.981   8.388
32879SOL    HW1  476  12.243   5.057   8.407
32879SOL    HW2  477  12.103   5.018   8.367
32880SOL     OW  478   0.627   4.572   4.987
32880SOL    HW1  479   0.597   4.659   4.960
32880SOL    HW2  480   0.563   4.512   4.949
32881SOL     OW  481  13.209   4.096   0.384
32881SOL    HW1  482  13.167   4.178   0.356
32881SOL    HW2  483  13.151   4.027   0.350
32882SOL     OW  484   4.952  12.518   1.529
32882SOL    HW1  485   4.964  12.456   1.600
32882SOL    HW2  486   4.878  12.573   1.556
32883SOL     OW  487   9.748   7.537   4.839
32883SOL    HW1  488   9.686   7.470   4.867
32883SOL    HW2  489   9.808   7.491   4.780
32884SOL     OW  490   3.244   1.734  14.337
32884SOL    HW1  491   3.197   1.813  14.310
32884SOL    HW2  492   3.189   1.697  14.406
32885SOL     OW  493   4.110   4.288  11.585
32885SOL    HW1  494   4.084   4.196  11.598
32885SOL    HW2  495   4.101   4.326  11.672
32886SOL     OW  496   4.185   8.738   1.134
32886SOL    HW1  497   4.100   8.717   1.174
32886SOL    HW2  498   4.243   8.753   1.208
32887SOL     OW  499  13.232  10.617   4.878
32887SOL    HW1  500  13.164  10.681   4.899
32887SOL    HW2  501  13.192  10.532   4.894
32888SOL     OW  502   4.112   2.236  14.212
32888SOL    HW1  503   4.068   2.301  14.157
32888SOL    HW2  504   4.103   2.154  14.162
32889SOL     OW  505   3.885   8.133   3.025
32889SOL    HW1  506   3.808   8.100   2.978
32889SOL    HW2  507   3.959   8.107   2.971
32890SOL     OW  508  12.176   4.828   6.053
32890SOL    HW1  509  12.099   4.834   6.109
32890SOL    HW2  510  12.221   4.748   6.084
32891SOL     OW  511   0.552  11.224  12.433
32891SOL    HW1  512   0.640  11.256  12.414
32891SOL    HW2  513   0.501  11.247  12.355
32892SOL     OW  514  10.129   5.225   6.036
32892SOL    HW1  515  10.216   5.244   6.071
32892SOL    HW2  516  10.069   5.268   6.097
32893SOL     OW  517   8.541   5.775  12.288
32893SOL    HW1  518   8.614   5.829  12.319
32893SOL    HW2  519   8.582   5.699  12.247
32894SOL     OW  520   0.337   1.182   4.502
32894SOL    HW1  521   0.357   1.266   4.544
32894SOL    HW2  522   0.422   1.139   4.492
32895SOL     OW  523  13.622   2.917  13.433
32895SOL    HW1  524  13.699   2.861  13.437
32895SOL    HW2  525  13.567   2.877  13.365
32896SOL     OW  526   8.595   4.116   8.545
32896SOL    HW1  527   8.595   4.041   8.486
32896SOL    HW2  528   8.606   4.192   8.487
32897SOL     OW  529   1.452   0.053  12.425
32897SOL    HW1  530   1.379   0.001  12.390
32897SOL    HW2  531   1.527  14.871  12.422
32898SOL     OW  532   6.068   7.594   3.361
32898SOL    HW1  533   6.058   7.687   3.381
32898SOL    HW2  534   5.998   7.576   3.297
32899SOL     OW  535   0.769   2.619  14.383
32899SOL    HW1  536   0.734   2.702  14.414
32899SOL    HW2  537   0.829   2.644  14.312
32900SOL     OW  538  11.185  11.055  14.175
32900SOL    HW1  539  11.280  11.064  14.168
32900SOL    HW2  540  11.170  10.961  14.165
32901SOL     OW  541   0.761   9.654   1.575
32901SOL    HW1  542   0.817   9.623   1.646
32901SOL    HW2  543   0.694   9.706   1.619
32902SOL     OW  544  12.646   5.674   3.453
32902SOL    HW1  545  12.578   5.740   3.440
32902SOL    HW2  546  12.609   5.593   3.416
32903SOL     OW  547  14.596   6.709   4.000
32903SOL    HW1  548  14.584   6.744   3.912
32903SOL    HW2  549  14.635   6.782   4.049
32904SOL     OW  550  11.961   2.734   3.952
32904SOL    HW1  551  12.037   2.791   3.963
32904SOL    HW2  552  11.960   2.711   3.860
32905SOL     OW  553  13.768  14.405   0.571
32905SOL    HW1  554  13.741  14.493   0.544
32905SOL    HW2  555  13.812  14.369   0.494
32906SOL     OW  556   4.046  13.197   3.568
32906SOL    HW1  557   4.072  13.284   3.538
32906SOL    HW2  558   3.950  13.198   3.563
32907SOL     OW  559  11.517   3.275  11.207
32907SOL    HW1  560  11.518   3.250  11.300
32907SOL    HW2  561  11.524   3.371  11.208
32908SOL     OW  562  13.846  13.057  13.109
32908SOL    HW1  563  13.891  13.131  13.151
32908SOL    HW2  564  13.761  13.092  13.085
32909SOL     OW  565  13.147   2.732   4.989
32909SOL    HW1  566  13.116   2.803   5.044
32909SOL    HW2  567  13.178   2.775   4.909
32910SOL     OW  568   2.032   4.571   9.954
32910SOL    HW1  569   1.947   4.567   9.999
32910SOL    HW2  570   2.092   4.524  10.012
32911SOL     OW  571  12.733  13.653   9.637
32911SOL    HW1  572  12.700  13.682   9.552
32911SOL    HW2  573  12.807  13.711   9.655
32912SOL     OW  574  13.449   9.469  14.414
32912SOL    HW1  575  13.538   9.447  14.439
32912SOL    HW2  576  13.445   9.450  14.320
32913SOL     OW  577  10.432  11.744   6.053
32913SOL    HW1  578  10.499  11.707   5.995
32913SOL    HW2  579  10.471  11.739   6.140
32914SOL     OW  580   3.246   7.518  10.079
32914SOL    HW1  581   3.214   7.489  10.164
32914SOL    HW2  582   3.291   7.600  10.097
32915SOL     OW  583   9.859  13.877  10.079
32915SOL    HW1  584   9.777  13.828  10.076
32915SOL    HW2  585   9.849  13.936  10.154
32916SOL     OW  586   9.048  14.007   5.597
32916SOL    HW1  587   9.002  14.081   5.638
32916SOL    HW2  588   9.024  13.932   5.651
32917SOL     OW  589   1.794   4.917   3.825
32917SOL    HW1  590   1.768   4.898   3.915
32917SOL    HW2  591   1.889   4.921   3.827
32918SOL     OW  592  11.021  13.367  10.108
32918SOL    HW1  593  10.955  13.298  10.114
32918SOL    HW2  594  11.009  13.404  10.021
32919SOL     OW  595  14.691   0.651  11.549
32919SOL    HW1  596  14.651   0.575  11.589
32919SOL    HW2  597  14.623   0.687  11.492
32920SOL     OW  598   2.598   0.169  13.579
32920SOL    HW1  599   2.592   0.249  13.526
32920SOL    HW2  600   2.624   0.199  13.666
32921SOL     OW  601  12.058   3.253   4.866
32921SOL    HW1  602  12.015   3.336   4.846
32921SOL    HW2  603  12.077   3.258   4.960
32922SOL     OW  604   5.188   0.400  11.380
32922SOL    HW1  605   5.142   0.372  11.301
32922SOL    HW2  606   5.186   0.496  11.377
32923SOL     OW  607   6.803   9.881   3.087
32923SOL    HW1  608   6.811   9.786   3.087
32923SOL    HW2  609   6.755   9.901   3.007
32924SOL     OW  610   4.274   4.445   7.997
32924SOL    HW1  611   4.335   4.440   7.924
32924SOL    HW2  612   4.187   4.451   7.956
32925SOL     OW  613   2.697  14.609  11.844
32925SOL    HW1  614   2.610  14.573  11.865
32925SOL    HW2  615   2.738  14.542  11.790
32926SOL     OW  616   7.852   6.103   8.726
32926SOL    HW1  617   7.931   6.068   8.768
32926SOL    HW2  618   7.801   6.026   8.702
32927SOL     OW  619   3.501  10.643   9.040
32927SOL    HW1  620   3.471  10.711   9.100
32927SOL    HW2  621   3.529  10.690   8.961
32928SOL     OW  622   5.441   9.755   2.920
32928SOL    HW1  623   5.502   9.682   2.931
32928SOL    HW2  624   5.488   9.831   2.956
32929SOL     OW  625   1.245   3.054   3.065
32929SOL    HW1  626   1.211   2.967   3.044
32929SOL    HW2  627   1.250   3.055   3.161
32930SOL     OW  628  14.801   3.950   7.339
32930SOL    HW1  629  14.761   3.867   7.366
32930SOL    HW2  630  14.872   3.924   7.280
32931SOL     OW  631  10.444  14.548  13.895
32931SOL    HW1  632  10.483  14.520  13.978
32931SOL    HW2  633  10.450  14.643  13.897
32932SOL     OW  634  12.897  11.624  13.121
32932SOL    HW1  635  12.920  11.557  13.186
32932SOL    HW2  636  12.910  11.707  13.167
32933SOL     OW  637   1.755   5.934   9.893
32933SOL    HW1  638   1.680   5.969   9.846
32933SOL    HW2  639   1.718   5.886   9.967
32934SOL     OW  640   2.864   5.067   6.860
32934SOL    HW1  641   2.943   5.104   6.821
32934SOL    HW2  642   2.799   5.067   6.790
32935SOL     OW  643   2.182   8.340   4.267
32935SOL    HW1  644   2.269   8.318   4.233
32935SOL    HW2  645   2.123   8.279   4.224
32936SOL     OW  646   9.234   1.521  14.101
32936SOL    HW1  647   9.300   1.527  14.031
32936SOL    HW2  648   9.172   1.456  14.070
32937SOL     OW  649   0.996   2.796   1.109
32937SOL    HW1  650   1.067   2.810   1.046
32937SOL    HW2  651   0.944   2.877   1.104
32938SOL     OW  652  11.443   8.730   1.139
32938SOL    HW1  653  11.381   8.803   1.136
32938SOL    HW2  654  11.514   8.761   1.196
32939SOL     OW  655  11.776   6.099   6.210
32939SOL    HW1  656  11.727   6.147   6.143
32939SOL    HW2  657  11.710   6.043   6.252
32940SOL     OW  658   9.115  14.489   1.246
32940SOL    HW1  659   9.196  14.464   1.202
32940SOL    HW2  660   9.117  14.441   1.329
32941SOL     OW  661   0.226   9.520   1.347
32941SOL    HW1  662   0.233   9.549   1.256
32941SOL    HW2  663   0.294   9.569   1.393
32942SOL     OW  664  12.700  14.549   4.255
32942SOL    HW1  665  12.704  14.535   4.350
32942SOL    HW2  666  12.688  14.643   4.245
32943SOL     OW  667  13.108   2.994  13.212
32943SOL    HW1  668  13.155   2.939  13.275
32943SOL    HW2  669  13.089   3.075  13.260
32944SOL     OW  670   3.462   8.735  14.147
32944SOL    HW1  671   3.479   8.800  14.215
32944SOL    HW2  672   3.548   8.700  14.125
32945SOL     OW  673   2.221   9.512   3.899
32945SOL    HW1  674   2.218   9.438   3.839
32945SOL    HW2  675   2.141   9.561   3.882
32946SOL     OW  676   4.402   6.420   0.845
32946SOL    HW1  677   4.433   6.441   0.933
32946SOL    HW2  678   4.421   6.499   0.794
32947SOL     OW  679   1.070   7.124   2.423
32947SOL    HW1  680   1.021   7.069   2.484
32947SOL    HW2  681   1.107   7.193   2.477
32948SOL     OW  682   1.297   9.097   3.238
32948SOL    HW1  683   1.279   9.112   3.331
32948SOL    HW2  684   1.333   9.180   3.207
32949SOL     OW  685  11.860  13.170   8.126
32949SOL    HW1  686  11.949  13.205   8.132
32949SOL    HW2  687  11.872  13.076   8.116
32950SOL     OW  688   3.865  10.698   7.946
32950SOL    HW1  689   3.927  10.709   8.018
32950SOL    HW2  690   3.887  10.614   7.907
32951SOL     OW  691   6.314   3.647   8.457
32951SOL    HW1  692   6.288   3.600   8.536
32951SOL    HW2  693   6.375   3.587   8.413
32952SOL     OW  694   5.926  13.736   0.916
32952SOL    HW1  695   5.897  13.773   0.833
32952SOL    HW2  696   5.976  13.806   0.957
32953SOL     OW  697  14.295   0.430   0.717
32953SOL    HW1  698  14.289   0.336   0.698
32953SOL    HW2  699  14.341   0.467   0.642
32954SOL     OW  700   4.494   3.750   7.897
32954SOL    HW1  701   4.435   3.676   7.879
32954SOL    HW2  702   4.473   3.776   7.987
32955SOL     OW  703  10.453  11.682   0.793
32955SOL    HW1  704  10.485  11.692   0.704
32955SOL    HW2  705  10.425  11.770   0.819
32956SOL     OW  706  12.147   3.290   3.918
32956SOL    HW1  707  12.132   3.381   3.943
32956SOL    HW2  708  12.227   3.265   3.965
32957SOL     OW  709  14.299  11.658  14.616
32957SOL    HW1  710  14.340  11.680  14.699
32957SOL    HW2  711  14.339  11.575  14.590
32958SOL     OW  712   0.643  12.483   5.860
32958SOL    HW1  713   0.681  12.516   5.941
32958SOL    HW2  714   0.597  12.403   5.886
32959SOL     OW  715   0.483  12.942   6.410
32959SOL    HW1  716   0.540  12.867   6.392
32959SOL    HW2  717   0.473  12.943   6.505
32960SOL     OW  718   6.470  14.366   0.778
32960SOL    HW1  719   6.447  14.373   0.871
32960SOL    HW2  720   6.537  14.298   0.775
32961SOL     OW  721   8.040   3.215   0.517
32961SOL    HW1  722   8.122   3.259   0.494
32961SOL    HW2  723   8.069   3.138   0.567
32962SOL     OW  724  14.390  13.888  12.996
32962SOL    HW1  725  14.328  13.961  12.990
32962SOL    HW2  726  14.471  13.922  12.959
32963SOL     OW  727   0.776   8.778   6.305
32963SOL    HW1  728   0.749   8.786   6.396
32963SOL    HW2  729   0.708   8.725   6.264
32964SOL     OW  730  12.738  13.156   4.569
32964SOL    HW1  731  12.819  13.110   4.593
32964SOL    HW2  732  12.767  13.223   4.506
32965SOL     OW  733   3.709   0.378   1.854
32965SOL    HW1  734   3.688   0.424   1.773
32965SOL    HW2  735   3.769   0.308   1.828
32966SOL     OW  736   0.030  12.798   1.319
32966SOL    HW1  737   0.041  12.771   1.228
32966SOL    HW2  738   0.071  12.884   1.325
32967SOL     OW  739   2.679   3.665   2.171
32967SOL    HW1  740   2.735   3.657   2.094
32967SOL    HW2  741   2.590   3.655   2.137
32968SOL     OW  742   4.298  10.520  12.477
32968SOL    HW1  743   4.227  10.583  12.490
32968SOL    HW2  744   4.378  10.569  12.499
32969SOL     OW  745  12.862   5.841  12.913
32969SOL    HW1  746  12.778   5.887  12.907
32969SOL    HW2  747  12.923   5.906  12.947
32970SOL     OW  748   3.438   7.761   7.059
32970SOL    HW1  749   3.456   7.855   7.068
32970SOL    HW2  750   3.488   7.734   6.982
32971SOL     OW  751   0.049   5.866   5.432
32971SOL    HW1  752   0.082   5.948   5.393
32971SOL    HW2  753  14.867   5.830   5.365
32972SOL     OW  754   5.717   8.635   3.398
32972SOL    HW1  755   5.652   8.568   3.422
32972SOL    HW2  756   5.701   8.706   3.460
32973SOL     OW  757   0.329   2.765   3.274
32973SOL    HW1  758   0.393   2.695   3.288
32973SOL    HW2  759   0.319   2.770   3.179
32974SOL     OW  760   5.413   7.237  12.937
32974SOL    HW1  761   5.508   7.232  12.933
32974SOL    HW2  762   5.384   7.146  12.936
32975SOL     OW  763   3.922   8.440   4.441
32975SOL    HW1  764   3.923   8.530   4.475
32975SOL    HW2  765   3.884   8.448   4.354
32976SOL     OW  766   9.695  13.713   7.605
32976SOL    HW1  767   9.781  13.675   7.623
32976SOL    HW2  768   9.633  13.643   7.626
32977SOL     OW  769   0.017   8.635  12.934
32977SOL    HW1  770  14.832   8.655  12.864
32977SOL    HW2  771   0.092   8.692  12.917
32978SOL     OW  772  13.322   7.781   5.633
32978SOL    HW1  773  13.230   7.792   5.610
32978SOL    HW2  774  13.353   7.869   5.653
32979SOL     OW  775   3.517   7.453  10.038
32979SOL    HW1  776   3.569   7.509  10.096
32979SOL    HW2  777   3.429   7.456  10.073
32980SOL     OW  778   2.504   9.235  10.533
32980SOL    HW1  779   2.457   9.271  10.458
32980SOL    HW2  780   2.488   9.141  10.529
32981SOL     OW  781   1.522   0.742   2.625
32981SOL    HW1  782   1.572   0.802   2.681
32981SOL    HW2  783   1.521   0.785   2.539
32982SOL     OW  784   0.090   0.172  11.896
32982SOL    HW1  785   0.114   0.194  11.986
32982SOL    HW2  786   0.103   0.253  11.847
32983SOL     OW  787   4.785   7.661  12.009
32983SOL    HW1  788   4.750   7.625  12.091
32983SOL    HW2  789   4.709   7.666  11.951
32984SOL     OW  790   6.890  11.784   0.483
32984SOL    HW1  791   6.891  11.731   0.563
32984SOL    HW2  792   6.827  11.740   0.426
32985SOL     OW  793   3.627   0.689   6.882
32985SOL    HW1  794   3.666   0.676   6.796
32985SOL    HW2  795   3.585   0.775   6.876
32986SOL     OW  796   2.150   0.293   3.001
32986SOL    HW1  797   2.240   0.306   3.033
32986SOL    HW2  798   2.115   0.223   3.056
32987SOL     OW  799   2.526   5.139   9.608
32987SOL    HW1  800   2.574   5.222   9.612
32987SOL    HW2  801   2.547   5.102   9.522
32988SOL     OW  802   4.488   3.334  13.699
32988SOL    HW1  803   4.438   3.255  13.723
32988SOL    HW2  804   4.565   3.301  13.653
32989SOL     OW  805   9.213   3.382   5.365
32989SOL    HW1  806   9.205   3.354   5.274
32989SOL    HW2  807   9.186   3.306   5.416
32990SOL     OW  808   5.427   8.805  14.407
32990SOL    HW1  809   5.347   8.817  14.355
32990SOL    HW2  810   5.401   8.826  14.497
32991SOL     OW  811   8.961  12.672   2.029
32991SOL    HW1  812   8.950  12.766   2.040
32991SOL    HW2  813   8.874  12.635   2.048
32992SOL     OW  814   2.036  12.771  11.340
32992SOL    HW1  815   2.089  12.771  11.420
32992SOL    HW2  816   2.101  12.765  11.270
32993SOL     OW  817  11.950   6.940  14.278
32993SOL    HW1  818  11.908   6.854  14.288
32993SOL    HW2  819  11.927   6.987  14.358
32994SOL     OW  820   1.574  12.858   1.614
32994SOL    HW1  821   1.557  12.810   1.533
32994SOL    HW2  822   1.563  12.950   1.591
32995SOL     OW  823  12.165  13.766   0.743
32995SOL    HW1  824  12.084  13.720   0.763
32995SOL    HW2  825  12.176  13.829   0.814
32996SOL     OW  826   8.679   8.723   1.697
32996SOL    HW1  827   8.641   8.704   1.612
32996SOL    HW2  828   8.682   8.819   1.701
32997SOL     OW  829   9.683   0.580   3.352
32997SOL    HW1  830   9.748   0.527   3.397
32997SOL    HW2  831   9.733   0.644   3.302
32998SOL     OW  832   1.228  11.457  11.036
32998SOL    HW1  833   1.277  11.378  11.059
32998SOL    HW2  834   1.177  11.432  10.959
32999SOL     OW  835   7.303   8.117   2.651
32999SOL    HW1  836   7.327   8.035   2.693
32999SOL    HW2  837   7.372   8.132   2.586
33000SOL     OW  838   1.777   1.007   9.917
33000SOL    HW1  839   1.799   1.098   9.897
33000SOL    HW2  840   1.734   1.011  10.002
33001SOL     OW  841  10.801   5.756  13.701
33001SOL    HW1  842  10.722   5.716  13.665
33001SOL    HW2  843  10.795   5.848  13.678
33002SOL     OW  844  10.855   8.126  12.278
33002SOL    HW1  845  10.910   8.063  12.232
33002SOL    HW2  846  10.768   8.086  12.279
33003SOL     OW  847  14.786   0.176  12.775
33003SOL    HW1  848  14.820   0.118  12.707
33003SOL    HW2  849  14.860   0.234  12.797
33004SOL     OW  850  11.264  13.512   2.917
33004SOL    HW1  851  11.197  13.542   2.855
33004SOL    HW2  852  11.288  13.590   2.966
33005SOL     OW  853   0.767  11.137  13.454
33005SOL    HW1  854   0.731  11.223  13.477
33005SOL    HW2  855   0.690  11.081  13.443
33006SOL     OW  856   2.067   8.567   0.104
33006SOL    HW1  857   2.153   8.609   0.098
33006SOL    HW2  858   2.075   8.489   0.049
33007SOL     OW  859  12.543   0.749   7.863
33007SOL    HW1  860  12.515   0.841   7.866
33007SOL    HW2  861  12.618   0.749   7.804
33008SOL     OW  862   0.892  11.789   9.732
33008SOL    HW1  863   0.873  11.798   9.639
33008SOL    HW2  864   0.885  11.878   9.767
33009SOL     OW  865  12.963   2.171   5.279
33009SOL    HW1  866  12.925   2.093   5.239
33009SOL    HW2  867  13.052   2.144   5.303
33010SOL     OW  868  13.035   9.958   5.892
33010SOL    HW1  869  13.125   9.931   5.908
33010SOL    HW2  870  12.991   9.878   5.862
33011SOL     OW  871   0.227   8.045   0.915
33011SOL    HW1  872   0.273   8.021   0.995
33011SOL    HW2  873   0.134   8.036   0.937
33012SOL     OW  874   4.659   4.754   8.819
33012SOL    HW1  875   4.632   4.804   8.742
33012SOL    HW2  876   4.734   4.702   8.789
33013SOL     OW  877   6.472   4.422  11.051
33013SOL    HW1  878   6.421   4.456  10.978
33013SOL    HW2  879   6.414   4.432  11.127
33014SOL     OW  880  10.825   8.144  14.287
33014SOL    HW1  881  10.756   8.164  14.350
33014SOL    HW2  882  10.780   8.102  14.214
33015SOL     OW  883  13.177   9.449  14.496
33015SOL    HW1  884  13.150   9.539  14.515
33015SOL    HW2  885  13.272   9.453  14.493
33016SOL     OW  886   8.087   5.753  11.390
33016SOL    HW1  887   8.164   5.800  11.356
33016SOL    HW2  888   8.115   5.662  11.394
33017SOL     OW  889   9.522   5.709  11.437
33017SOL    HW1  890   9.604   5.660  11.433
33017SOL    HW2  891   9.464   5.653  11.489
33018SOL     OW  892   5.877  13.563  14.036
33018SOL    HW1  893   5.793  13.607  14.049
33018SOL    HW2  894   5.854  13.478  13.998
33019SOL     OW  895   4.484   9.222   7.056
33019SOL    HW1  896   4.522   9.263   7.134
33019SOL    HW2  897   4.559   9.201   7.001
33020SOL     OW  898   6.369   9.431   8.348
33020SOL    HW1  899   6.310   9.507   8.351
33020SOL    HW2  900   6.366   9.402   8.257
33021SOL     OW  901  14.588   0.682   3.531
33021SOL    HW1  902  14.568   0.700   3.439
33021SOL    HW2  903  14.682   0.694   3.538
33022SOL     OW  904  12.138   5.685  14.326
33022SOL    HW1  905  12.185   5.622  14.380
33022SOL    HW2  906  12.194   5.762  14.323
33023SOL     OW  907   7.266   9.307   3.786
33023SOL    HW1  908   7.184   9.274   3.749
33023SOL    HW2  909   7.242   9.346   3.870
33024SOL     OW  910  12.541   8.213   7.676
33024SOL    HW1  911  12.474   8.160   7.720
33024SOL    HW2  912  12.568   8.277   7.742
33025SOL     OW  913   5.723  11.189   8.686
33025SOL    HW1  914   5.771  11.171   8.767
33025SOL    HW2  915   5.633  11.205   8.714
33026SOL     OW  916   4.853  10.105   4.249
33026SOL    HW1  917   4.850  10.143   4.337
33026SOL    HW2  918   4.787  10.154   4.200
33027SOL     OW  919   1.615   2.440  10.699
33027SOL    HW1  920   1.613   2.535  10.715
33027SOL    HW2  921   1.528   2.420  10.664
33028SOL     OW  922  13.574   5.827   6.698
33028SOL    HW1  923  13.590   5.884   6.623
33028SOL    HW2  924  13.654   5.832   6.750
33029SOL     OW  925  14.857   1.768  14.447
33029SOL    HW1  926  14.789   1.729  14.392
33029SOL    HW2  927   0.032   1.822  14.388
33030SOL     OW  928   6.502   8.555  10.760
33030SOL    HW1  929   6.408   8.547  10.774
33030SOL    HW2  930   6.542   8.512  10.835
33031SOL     OW  931  13.250  14.319   6.161
33031SOL    HW1  932  13.330  14.315   6.108
33031SOL    HW2  933  13.241  14.232   6.199
33032SOL     OW  934   5.892   4.395  10.109
33032SOL    HW1  935   5.818   4.379  10.051
33032SOL    HW2  936   5.969   4.387  10.052
33033SOL     OW  937   3.341   9.260   8.758
33033SOL    HW1  938   3.384   9.285   8.840
33033SOL    HW2  939   3.304   9.174   8.775
33034SOL     OW  940   5.986   9.865   5.060
33034SOL    HW1  941   6.020   9.947   5.025
33034SOL    HW2  942   5.899   9.856   5.019
33035SOL     OW  943   3.310   3.061   0.948
33035SOL    HW1  944   3.392   3.042   0.993
33035SOL    HW2  945   3.244   3.062   1.017
33036SOL     OW  946   1.334   8.966   5.237
33036SOL    HW1  947   1.418   8.977   5.192
33036SOL    HW2  948   1.269   8.981   5.168
33037SOL     OW  949   9.502   5.160   7.817
33037SOL    HW1  950   9.407   5.171   7.810
33037SOL    HW2  951   9.529   5.127   7.732
33038SOL     OW  952   6.479  12.032   3.830
33038SOL    HW1  953   6.546  12.019   3.762
33038SOL    HW2  954   6.518  11.996   3.909
33039SOL     OW  955  13.963   3.452   1.574
33039SOL    HW1  956  13.927   3.486   1.492
33039SOL    HW2  957  14.058   3.451   1.561
33040SOL     OW  958  12.921   1.660  14.605
33040SOL    HW1  959  12.903   1.581  14.555
33040SOL    HW2  960  12.871   1.649  14.686
33041SOL     OW  961   9.252  10.176  10.250
33041SOL    HW1  962   9.170  10.206  10.210
33041SOL    HW2  963   9.305  10.255  10.259
33042SOL     OW  964  10.766   5.353   2.904
33042SOL    HW1  965  10.719   5.285   2.854
33042SOL    HW2  966  10.856   5.322   2.907
33043SOL     OW  967  12.681  11.900  14.368
33043SOL    HW1  968  12.686  11.833  14.301
33043SOL    HW2  969  12.702  11.855  14.450
33044SOL     OW  970   2.345  14.393   8.036
33044SOL    HW1  971   2.415  14.329   8.031
33044SOL    HW2  972   2.328  14.418   7.945
33045SOL     OW  973   1.071  14.707  12.403
33045SOL    HW1  974   1.082  14.737  12.494
33045SOL    HW2  975   1.068  14.612  12.410
33046SOL     OW  976   7.732  13.790   1.161
33046SOL    HW1  977   7.639  13.791   1.181
33046SOL    HW2  978   7.751  13.697   1.144
33047SOL     OW  979   5.080   3.264   0.568
33047SOL    HW1  980   5.113   3.215   0.644
33047SOL    HW2  981   5.115   3.353   0.580
33048SOL     OW  982   1.657  13.790  10.991
33048SOL    HW1  983   1.676  13.711  10.941
33048SOL    HW2  984   1.692  13.772  11.078
33049SOL     OW  985   6.024   7.395  11.377
33049SOL    HW1  986   6.057   7.330  11.438
33049SOL    HW2  987   6.058   7.479  11.409
33050SOL     OW  988   0.685   4.379   5.409
33050SOL    HW1  989   0.774   4.361   5.379
33050SOL    HW2  990   0.671   4.471   5.389
33051SOL     OW  991   8.875   3.361   6.467
33051SOL    HW1  992   8.884   3.456   6.464
33051SOL    HW2  993   8.797   3.345   6.520
33052SOL     OW  994   1.439  13.760   4.258
33052SOL    HW1  995   1.426  13.833   4.198
33052SOL    HW2  996   1.522  13.721   4.229
33053SOL     OW  997   9.590   0.697   1.912
33053SOL    HW1  998   9.672   0.696   1.861
33053SOL    HW2  999   9.525   0.732   1.851
33054SOL     OW 1000  13.792   5.780   9.874
33054SOL    HW1 1001  13.855   5.751   9.808
33054SOL    HW2 1002  13.728   5.709   9.879
33055SOL     OW 1003  13.553   8.224   6.708
33055SOL    HW1 1004  13.518   8.226   6.797
33055SOL    HW2 1005  13.607   8.145   6.705
33056SOL     OW 1006   3.850   1.725   0.939
33056SOL    HW1 1007   3.884   1.655   0.882
33056SOL    HW2 1008   3.823   1.794   0.879
33057SOL     OW 1009   5.383   0.886  12.086
33057SOL    HW1 1010   5.476   0.887  12.062
33057SOL    HW2 1011   5.374   0.810  12.143
33058SOL     OW 1012   8.803   4.896  11.992
33058SOL    HW1 1013   8.895   4.870  11.996
33058SOL    HW2 1014   8.755   4.813  11.998
33059SOL     OW 1015   8.355  11.193   8.603
33059SOL    HW1 1016   8.305  11.268   8.571
33059SOL    HW2 1017   8.402  11.161   8.526
33060SOL     OW 1018  10.957   5.884  10.062
33060SOL    HW1 1019  10.975   5.823  10.133
33060SOL    HW2 1020  10.881   5.847  10.017
33061SOL     OW 1021  12.036  12.970   2.486
33061SOL    HW1 1022  12.096  12.939   2.418
33061SOL    HW2 1023  11.985  13.039   2.442
33062SOL     OW 1024   3.744   2.189  10.629
33062SOL    HW1 1025   3.825   2.139  10.617
33062SOL    HW2 1026   3.752   2.263  10.568
33063SOL     OW 1027   2.682  13.404  13.417
33063SOL    HW1 1028   2.686  13.470  13.348
33063SOL    HW2 1029   2.652  13.452  13.494
33064SOL     OW 1030  13.810   8.304   6.299
33064SOL    HW1 1031  13.822   8.302   6.394
33064SOL    HW2 1032  13.717   8.324   6.288
33065SOL     OW 1033   5.786  12.488  10.814
33065SOL    HW1 1034   5.796  12.549  10.741
33065SOL    HW2 1035   5.865  12.500  10.866
33066SOL     OW 1036   6.405   9.360   3.286
33066SOL    HW1 1037   6.399   9.269   3.256
33066SOL    HW2 1038   6.453   9.405   3.217
33067SOL     OW 1039  13.304  13.567   5.771
33067SOL    HW1 1040  13.220  13.594   5.809
33067SOL    HW2 1041  13.283  13.487   5.722
33068SOL     OW 1042  10.737  10.006   6.128
33068SOL    HW1 1043  10.766  10.047   6.210
33068SOL    HW2 1044  10.660  10.056   6.102
33069SOL     OW 1045   3.216   0.389  10.401
33069SOL    HW1 1046   3.191   0.469  10.447
33069SOL    HW2 1047   3.237   0.327  10.471
33070SOL     OW 1048   3.547  14.258  12.670
33070SOL    HW1 1049   3.475  14.273  12.608
33070SOL    HW2 1050   3.622  14.238  12.614
33071SOL     OW 1051   6.628  11.505   8.251
33071SOL    HW1 1052   6.649  11.412   8.248
33071SOL    HW2 1053   6.708  11.546   8.284
33072SOL     OW 1054   7.877  12.580   8.369
33072SOL    HW1 1055   7.961  12.625   8.356
33072SOL    HW2 1056   7.893  12.491   8.338
33073SOL     OW 1057   8.777   7.704   5.648
33073SOL    HW1 1058   8.698   7.678   5.696
33073SOL    HW2 1059   8.753   7.784   5.603
33074SOL     OW 1060   4.528   5.860   7.133
33074SOL    HW1 1061   4.592   5.794   7.159
33074SOL    HW2 1062   4.567   5.904   7.058
33075SOL     OW 1063  13.848  14.207   3.016
33075SOL    HW1 1064  13.837  14.232   3.108
33075SOL    HW2 1065  13.840  14.290   2.968
33076SOL     OW 1066   0.543  12.152  10.383
33076SOL    HW1 1067   0.610  12.160  10.451
33076SOL    HW2 1068   0.559  12.226  10.324
33077SOL     OW 1069   4.144  10.101   4.751
33077SOL    HW1 1070   4.088  10.054   4.813
33077SOL    HW2 1071   4.215  10.135   4.805
33078SOL     OW 1072  11.024  10.060   7.405
33078SOL    HW1 1073  10.944  10.064   7.458
33078SOL    HW2 1074  11.006   9.994   7.339
33079SOL     OW 1075   0.628   4.223   4.190
33079SOL    HW1 1076   0.575   4.147   4.168
33079SOL    HW2 1077   0.617   4.282   4.116
33080SOL     OW 1078  12.830   1.183  14.787
33080SOL    HW1 1079  12.861   1.103  14.830
33080SOL    HW2 1080  12.821   1.246  14.859
33081SOL     OW 1081  10.762   2.395   5.439
33081SOL    HW1 1082  10.761   2.487   5.465
33081SOL    HW2 1083  10.670   2.371   5.432
33082SOL     OW 1084   9.510   0.929   4.576
33082SOL    HW1 1085   9.575   0.935   4.646
33082SOL    HW2 1086   9.478   0.839   4.582
33083SOL     OW 1087  12.063  11.563   2.207
33083SOL    HW1 1088  12.044  11.627   2.275
33083SOL    HW2 1089  12.077  11.616   2.128
33084SOL     OW 1090  10.237   4.906   7.734
33084SOL    HW1 1091  10.207   4.882   7.646
33084SOL    HW2 1092  10.212   4.998   7.743
33085SOL     OW 1093  13.486   7.960  10.005
33085SOL    HW1 1094  13.570   7.930   9.970
33085SOL    HW2 1095  13.503   8.049  10.036
33086SOL     OW 1096   3.568  13.685   2.298
33086SOL    HW1 1097   3.484  13.718   2.328
33086SOL    HW2 1098   3.603  13.637   2.373
33087SOL     OW 1099   1.844   5.174  11.674
33087SOL    HW1 1100   1.751   5.152  11.681
33087SOL    HW2 1101   1.887   5.112  11.733
33088SOL     OW 1102  11.479   6.487  10.551
33088SOL    HW1 1103  11.399   6.470  10.602
33088SOL    HW2 1104  11.532   6.541  10.609
33089SOL     OW 1105   3.201   4.309  11.747
33089SOL    HW1 1106   3.123   4.271  11.788
33089SOL    HW2 1107   3.272   4.289  11.808
33090SOL     OW 1108  13.537   5.851  10.905
33090SOL    HW1 1109  13.579   5.868  10.989
33090SOL    HW2 1110  13.489   5.769  10.917
33091SOL     OW 1111   5.960   1.254  12.004
33091SOL    HW1 1112   5.893   1.226  12.066
33091SOL    HW2 1113   5.920   1.327  11.957
33092SOL     OW 1114  14.222   6.591  13.611
33092SOL    HW1 1115  14.157   6.541  13.661
33092SOL    HW2 1116  14.263   6.525  13.554
33093SOL     OW 1117   7.685   6.319   6.921
33093SOL    HW1 1118   7.698   6.224   6.922
33093SOL    HW2 1119   7.679   6.341   6.828
33094SOL     OW 1120   5.591  10.580  12.936
33094SOL    HW1 1121   5.634  10.497  12.914
33094SOL    HW2 1122   5.655  10.647  12.912
33095SOL     OW 1123   5.395   5.475   4.406
33095SOL    HW1 1124   5.357   5.563   4.413
33095SOL    HW2 1125   5.484   5.484   4.440
33096SOL     OW 1126   7.613   9.370  14.053
33096SOL    HW1 1127   7.601   9.277  14.031
33096SOL    HW2 1128   7.653   9.409  13.976
33097SOL     OW 1129   8.514   6.319   6.274
33097SOL    HW1 1130   8.428   6.294   6.308
33097SOL    HW2 1131   8.505   6.315   6.179
33098SOL     OW 1132  14.763  10.478   8.346
33098SOL    HW1 1133  14.794  10.567   8.326
33098SOL    HW2 1134  14.797  10.461   8.434
33099SOL     OW 1135  12.406   0.489   9.259
33099SOL    HW1 1136  12.383   0.474   9.167
33099SOL    HW2 1137  12.499   0.512   9.257
33100SOL     OW 1138   5.953   5.066   3.781
33100SOL    HW1 1139   6.040   5.045   3.817
33100SOL    HW2 1140   5.960   5.157   3.753
33101SOL     OW 1141   7.062  10.612   5.329
33101SOL    HW1 1142   6.994  10.680   5.324
33101SOL    HW2 1143   7.099  10.621   5.417
33102SOL     OW 1144   3.727   2.008   1.246
33102SOL    HW1 1145   3.727   2.061   1.326
33102SOL    HW2 1146   3.704   1.920   1.275
33103SOL     OW 1147  14.506  12.650  11.636
33103SOL    HW1 1148  14.478  12.590  11.705
33103SOL    HW2 1149  14.545  12.594  11.570
33104SOL     OW 1150   1.237  13.388   5.089
33104SOL    HW1 1151   1.313  13.436   5.122
33104SOL    HW2 1152   1.162  13.429   5.131
33105SOL     OW 1153  10.809   8.970   1.105
33105SOL    HW1 1154  10.770   9.055   1.086
33105SOL    HW2 1155  10.755   8.934   1.175
33106SOL     OW 1156  13.611   1.357   4.929
33106SOL    HW1 1157  13.611   1.274   4.976
33106SOL    HW2 1158  13.647   1.421   4.991
33107SOL     OW 1159   0.154   8.381   4.775
33107SOL    HW1 1160   0.162   8.477   4.777
33107SOL    HW2 1161   0.062   8.365   4.795
33108SOL     OW 1162  10.161   1.356   2.506
33108SOL    HW1 1163  10.143   1.441   2.466
33108SOL    HW2 1164  10.076   1.325   2.538
33109SOL     OW 1165   0.981  12.349  13.069
33109SOL    HW1 1166   0.945  12.365  13.156
33109SOL    HW2 1167   0.917  12.292  13.027
33110SOL     OW 1168   4.813  14.383   2.260
33110SOL    HW1 1169   4.736  14.438   2.245
33110SOL    HW2 1170   4.883  14.444   2.281
33111SOL     OW 1171   2.248   5.518  14.251
33111SOL    HW1 1172   2.179   5.452  14.257
33111SOL    HW2 1173   2.323   5.470  14.214
33112SOL     OW 1174  14.444   9.125   8.254
33112SOL    HW1 1175  14.411   9.211   8.228
33112SOL    HW2 1176  14.455   9.130   8.349
33113SOL     OW 1177   0.415   7.916   2.280
33113SOL    HW1 1178   0.465   7.838   2.256
33113SOL    HW2 1179   0.474   7.989   2.265
33114SOL     OW 1180   4.756   5.027   0.405
33114SOL    HW1 1181   4.705   4.949   0.380
33114SOL    HW2 1182   4.690   5.095   0.417
33115SOL     OW 1183  13.334   8.393   5.796
33115SOL    HW1 1184  13.271   8.449   5.842
33115SOL    HW2 1185  13.339   8.431   5.708
33116SOL     OW 1186   4.287   4.079  13.928
33116SOL    HW1 1187   4.228   4.140  13.883
33116SOL    HW2 1188   4.230   4.012  13.965
33117SOL     OW 1189   8.979  14.244   6.179
33117SOL    HW1 1190   8.897  14.210   6.144
33117SOL    HW2 1191   9.047  14.188   6.141
33118SOL     OW 1192   9.955  11.085   9.599
33118SOL    HW1 1193  10.007  11.078   9.680
33118SOL    HW2 1194   9.961  11.177   9.575
33119SOL     OW 1195   8.644   0.438   4.404
33119SOL    HW1 1196   8.675   0.429   4.314
33119SOL    HW2 1197   8.679   0.361   4.449
33120SOL     OW 1198   5.459   6.256  11.994
33120SOL    HW1 1199   5.388   6.200  12.026
33120SOL    HW2 1200   5.436   6.344  12.023
33121SOL     OW 1201   7.677   5.226   1.734
33121SOL    HW1 1202   7.697   5.134   1.716
33121SOL    HW2 1203   7.717   5.274   1.661
33122SOL     OW 1204  12.065   0.448  10.772
33122SOL    HW1 1205  11.990   0.406  10.813
33122SOL    HW2 1206  12.027   0.505  10.705
33123SOL     OW 1207   4.824   7.182   1.545
33123SOL    HW1 1208   4.870   7.266   1.544
33123SOL    HW2 1209   4.792   7.172   1.455
33124SOL     OW 1210   8.796   6.258   0.554
33124SOL    HW1 1211   8.886   6.262   0.585
33124SOL    HW2 1212   8.765   6.171   0.579
33125SOL     OW 1213   4.740   9.551   7.555
33125SOL    HW1 1214   4.737   9.481   7.490
33125SOL    HW2 1215   4.803   9.614   7.520
33126SOL     OW 1216   3.128  14.704   5.322
33126SOL    HW1 1217   3.109  14.726   5.414
33126SOL    HW2 1218   3.168  14.783   5.287
33127SOL     OW 1219   6.626   4.689  12.433
33127SOL    HW1 1220   6.698   4.627  12.445
33127SOL    HW2 1221   6.555   4.654  12.487
33128SOL     OW 1222   8.426  13.336  12.861
33128SOL    HW1 1223   8.478  13.411  12.892
33128SOL    HW2 1224   8.340  13.350  12.898
33129SOL     OW 1225   9.000  11.515  10.356
33129SOL    HW1 1226   9.022  11.498  10.264
33129SOL    HW2 1227   8.966  11.432  10.389
33130SOL     OW 1228   2.011  14.051   0.018
33130SOL    HW1 1229   2.014  13.979   0.081
33130SOL    HW2 1230   2.076  14.027  14.828
33131SOL     OW 1231   0.669  10.476   6.296
33131SOL    HW1 1232   0.600  10.484   6.231
33131SOL    HW2 1233   0.623  10.480   6.380
33132SOL     OW 1234   8.243   9.462   0.015
33132SOL    HW1 1235   8.320   9.477   0.070
33132SOL    HW2 1236   8.196   9.545   0.017
33133SOL     OW 1237  14.315   0.182   3.490
33133SOL    HW1 1238  14.380   0.227   3.436
33133SOL    HW2 1239  14.318   0.227   3.574
33134SOL     OW 1240   3.510   7.999   4.683
33134SOL    HW1 1241   3.506   7.904   4.684
33134SOL    HW2 1242   3.529   8.022   4.592
33135SOL     OW 1243   4.965   0.403   8.656
33135SOL    HW1 1244   5.033   0.412   8.722
33135SOL    HW2 1245   4.905   0.476   8.672
33136SOL     OW 1246   2.887  10.595  12.384
33136SOL    HW1 1247   2.906  10.512  12.340
33136SOL    HW2 1248   2.906  10.662  12.318
33137SOL     OW 1249  12.733  11.754   2.367
33137SOL    HW1 1250  12.725  11.785   2.277
33137SOL    HW2 1251  12.745  11.834   2.419
33138SOL     OW 1252   5.366   8.589   9.984
33138SOL    HW1 1253   5.364   8.679   9.951
33138SOL    HW2 1254   5.452   8.556   9.959
33139SOL     OW 1255   2.238   7.746   4.179
33139SOL    HW1 1256   2.151   7.783   4.197
33139SOL    HW2 1257   2.236   7.661   4.221
33140SOL     OW 1258   1.711   4.058   7.426
33140SOL    HW1 1259   1.689   4.080   7.516
33140SOL    HW2 1260   1.721   4.142   7.382
33141SOL     OW 1261   7.947   7.797  12.100
33141SOL    HW1 1262   7.961   7.826  12.010
33141SOL    HW2 1263   8.020   7.836  12.149
33142SOL     OW 1264   2.094   0.993   9.984
33142SOL    HW1 1265   2.157   1.044   9.933
33142SOL    HW2 1266   2.148   0.941  10.044
33143SOL     OW 1267   5.166  11.684   1.668
33143SOL    HW1 1268   5.171  11.670   1.573
33143SOL    HW2 1269   5.252  11.719   1.692
33144SOL     OW 1270  11.121  10.266   9.112
33144SOL    HW1 1271  11.045  10.211   9.092
33144SOL    HW2 1272  11.191  10.204   9.129
33145SOL     OW 1273  12.634   2.918   9.019
33145SOL    HW1 1274  12.710   2.870   8.985
33145SOL    HW2 1275  12.585   2.944   8.941
33146SOL     OW 1276   5.522   9.209  10.218
33146SOL    HW1 1277   5.441   9.257  10.201
33146SOL    HW2 1278   5.539   9.162  10.137
33147SOL     OW 1279   0.293   8.458   0.037
33147SOL    HW1 1280   0.361   8.397   0.008
33147SOL    HW2 1281   0.236   8.469  14.836
33148SOL     OW 1282   4.317   0.351  10.348
33148SOL    HW1 1283   4.260   0.428  10.350
33148SOL    HW2 1284   4.401   0.384  10.379
33149SOL     OW 1285  13.882  12.854   1.818
33149SOL    HW1 1286  13.966  12.823   1.851
33149SOL    HW2 1287  13.820  12.784   1.842
33150SOL     OW 1288   2.843  10.519  14.266
33150SOL    HW1 1289   2.870  10.438  14.308
33150SOL    HW2 1290   2.752  10.503  14.238
33151SOL     OW 1291  12.541  12.242  10.784
33151SOL    HW1 1292  12.515  12.334  10.786
33151SOL    HW2 1293  12.499  12.207  10.705
33152SOL     OW 1294   0.902  13.321  11.083
33152SOL    HW1 1295   0.920  13.311  11.176
33152SOL    HW2 1296   0.984  13.351  11.045
33153SOL     OW 1297  14.812   5.521   4.469
33153SOL    HW1 1298  14.787   5.432   4.493
33153SOL    HW2 1299   0.020   5.535   4.513
33154SOL     OW 1300  10.506  14.289  10.205
33154SOL    HW1 1301  10.518  14.198  10.233
33154SOL    HW2 1302  10.539  14.341  10.278
33155SOL     OW 1303   1.507   7.342   1.985
33155SOL    HW1 1304   1.577   7.278   1.998
33155SOL    HW2 1305   1.470   7.355   2.073
33156SOL     OW 1306   5.983   0.775   4.092
33156SOL    HW1 1307   5.987   0.871   4.094
33156SOL    HW2 1308   5.889   0.755   4.098
33157SOL     OW 1309   3.390  11.001   8.909
33157SOL    HW1 1310   3.470  11.008   8.856
33157SOL    HW2 1311   3.380  11.087   8.948
33158SOL     OW 1312   8.014   7.729   2.674
33158SOL    HW1 1313   8.078   7.697   2.610
33158SOL    HW2 1314   7.941   7.761   2.621
33159SOL     OW 1315   9.553  10.841   2.120
33159SOL    HW1 1316   9.568  10.935   2.104
33159SOL    HW2 1317   9.458  10.831   2.116
33160SOL     OW 1318  13.600   9.503   8.921
33160SOL    HW1 1319  13.620   9.500   9.015
33160SOL    HW2 1320  13.616   9.414   8.891
33161SOL     OW 1321   7.243   7.060   4.268
33161SOL    HW1 1322   7.267   7.042   4.177
33161SOL    HW2 1323   7.319   7.106   4.303
33162SOL     OW 1324  10.408   2.797  10.003
33162SOL    HW1 1325  10.435   2.787   9.912
33162SOL    HW2 1326  10.488   2.825  10.049
33163SOL     OW 1327  14.094   6.096   4.932
33163SOL    HW1 1328  14.027   6.028   4.934
33163SOL    HW2 1329  14.176   6.048   4.924
33164SOL     OW 1330  13.130   3.830   8.147
33164SOL    HW1 1331  13.054   3.872   8.108
33164SOL    HW2 1332  13.125   3.739   8.118
33165SOL     OW 1333   8.427   7.623  13.566
33165SOL    HW1 1334   8.450   7.710  13.533
33165SOL    HW2 1335   8.364   7.589  13.503
33166SOL     OW 1336   8.271   9.842  11.451
33166SOL    HW1 1337   8.282   9.877  11.362
33166SOL    HW2 1338   8.352   9.867  11.496
33167SOL     OW 1339  13.169   5.708  10.795
33167SOL    HW1 1340  13.224   5.738  10.722
33167SOL    HW2 1341  13.087   5.680  10.754
33168SOL     OW 1342   0.210   4.497  12.859
33168SOL    HW1 1343   0.183   4.407  12.842
33168SOL    HW2 1344   0.167   4.521  12.941
33169SOL     OW 1345   0.546   1.542   0.747
33169SOL    HW1 1346   0.521   1.626   0.709
33169SOL    HW2 1347   0.464   1.494   0.754
33170SOL     OW 1348   2.343   4.762   9.239
33170SOL    HW1 1349   2.266   4.759   9.296
33170SOL    HW2 1350   2.382   4.847   9.256
33171SOL     OW 1351   5.077  14.360  11.146
33171SOL    HW1 1352   5.142  14.403  11.091
33171SOL    HW2 1353   5.122  14.340  11.227
33172SOL     OW 1354   6.653   0.018   0.009
33172SOL    HW1 1355   6.694   0.020  14.799
33172SOL    HW2 1356   6.724   0.039   0.069
33173SOL     OW 1357  10.460   7.663   9.749
33173SOL    HW1 1358  10.511   7.609   9.688
33173SOL    HW2 1359  10.524   7.724   9.785
33174SOL     OW 1360  14.836  14.530   4.015
33174SOL    HW1 1361  14.857  14.619   3.985
33174SOL    HW2 1362   0.042  14.482   4.006
33175SOL     OW 1363   2.618  12.805   7.589
33175SOL    HW1 1364   2.647  12.774   7.674
33175SOL    HW2 1365   2.543  12.861   7.608
33176SOL     OW 1366   6.468   9.964   2.117
33176SOL    HW1 1367   6.379   9.954   2.150
33176SOL    HW2 1368   6.458   9.967   2.022
33177SOL     OW 1369  14.494   4.279   2.646
33177SOL    HW1 1370  14.581   4.242   2.634
33177SOL    HW2 1371  14.469   4.311   2.559
33178SOL     OW 1372   2.428  10.605   2.816
33178SOL    HW1 1373   2.484  10.682   2.830
33178SOL    HW2 1374   2.374  10.600   2.895
33179SOL     OW 1375  12.548   0.212  12.721
33179SOL    HW1 1376  12.588   0.230  12.636
33179SOL    HW2 1377  12.607   0.252  12.784
33180SOL     OW 1378   2.170   5.753   9.397
33180SOL    HW1 1379   2.195   5.755   9.489
33180SOL    HW2 1380   2.253   5.753   9.350
33181SOL     OW 1381   4.799   7.516   0.617
33181SOL    HW1 1382   4.828   7.607   0.608
33181SOL    HW2 1383   4.873   7.465   0.584
33182SOL     OW 1384   8.050   2.661   5.795
33182SOL    HW1 1385   8.098   2.739   5.767
33182SOL    HW2 1386   8.033   2.612   5.715
33183SOL     OW 1387   3.043   3.183   8.614
33183SOL    HW1 1388   3.037   3.232   8.696
33183SOL    HW2 1389   3.068   3.248   8.548
33184SOL     OW 1390  14.773  10.177   8.635
33184SOL    HW1 1391  14.761  10.270   8.621
33184SOL    HW2 1392  14.768  10.138   8.548
33185SOL     OW 1393   9.293   0.743   4.965
33185SOL    HW1 1394   9.221   0.773   4.911
33185SOL    HW2 1395   9.278   0.782   5.051
33186SOL     OW 1396   5.389   9.339   8.594
33186SOL    HW1 1397   5.419   9.429   8.601
33186SOL    HW2 1398   5.466   9.286   8.616
33187SOL     OW 1399   0.092   6.420   4.464
33187SOL    HW1 1400   0.095   6.397   4.557
33187SOL    HW2 1401   0.182   6.445   4.443
33188SOL     OW 1402   7.986   1.973   6.369
33188SOL    HW1 1403   8.006   1.890   6.414
33188SOL    HW2 1404   7.907   2.005   6.411
33189SOL     OW 1405   1.428  14.042  10.113
33189SOL    HW1 1406   1.417  14.116  10.053
33189SOL    HW2 1407   1.520  14.047  10.140
33190SOL     OW 1408   9.632   0.326  12.261
33190SOL    HW1 1409   9.665   0.332  12.172
33190SOL    HW2 1410   9.605   0.234  12.270
33191SOL     OW 1411  13.802   3.433   8.088
33191SOL    HW1 1412  13.898   3.442   8.086
33191SOL    HW2 1413  13.772   3.484   8.013
33192SOL     OW 1414  11.792   7.868  10.544
33192SOL    HW1 1415  11.725   7.801  10.563
33192SOL    HW2 1416  11.825   7.893  10.630
33193SOL     OW 1417   5.552  12.156  10.142
33193SOL    HW1 1418   5.555  12.151  10.046
33193SOL    HW2 1419   5.591  12.074  10.171
33194SOL     OW 1420   3.881   7.062   8.704
33194SOL    HW1 1421   3.914   7.081   8.617
33194SOL    HW2 1422   3.789   7.090   8.701
33195SOL     OW 1423   0.739   2.091   9.032
33195SOL    HW1 1424   0.664   2.117   9.086
33195SOL    HW2 1425   0.776   2.016   9.079
33196SOL     OW 1426  13.974   4.675  10.514
33196SOL    HW1 1427  13.932   4.638  10.592
33196SOL    HW2 1428  13.955   4.769  10.520
33197SOL     OW 1429   2.058   8.125   7.344
33197SOL    HW1 1430   2.049   8.214   7.310
33197SOL    HW2 1431   1.985   8.115   7.404
33198SOL     OW 1432  12.083   4.555   0.632
33198SOL    HW1 1433  12.177   4.565   0.648
33198SOL    HW2 1434  12.078   4.493   0.559
33199SOL     OW 1435   1.399   5.062   6.470
33199SOL    HW1 1436   1.411   5.069   6.375
33199SOL    HW2 1437   1.308   5.036   6.481
33200SOL     OW 1438  12.199   5.873  10.692
33200SOL    HW1 1439  12.231   5.810  10.756
33200SOL    HW2 1440  12.239   5.845  10.610
33201SOL     OW 1441   5.147   3.457  13.329
33201SOL    HW1 1442   5.125   3.365  13.314
33201SOL    HW2 1443   5.173   3.460  13.422
33202SOL     OW 1444   4.313  10.242   6.144
33202SOL    HW1 1445   4.381  10.225   6.080
33202SOL    HW2 1446   4.304  10.338   6.145
33203SOL     OW 1447   7.559  10.603   3.424
33203SOL    HW1 1448   7.576  10.654   3.345
33203SOL    HW2 1449   7.613  10.524   3.413
33204SOL     OW 1450  13.256   4.818   9.648
33204SOL    HW1 1451  13.219   4.739   9.609
33204SOL    HW2 1452  13.199   4.889   9.618
33205SOL     OW 1453  13.445   2.336  14.074
33205SOL    HW1 1454  13.459   2.288  13.992
33205SOL    HW2 1455  13.370   2.292  14.114
33206SOL     OW 1456  12.418  14.833   5.137
33206SOL    HW1 1457  12.336  14.808   5.179
33206SOL    HW2 1458  12.485  14.791   5.191
33207SOL     OW 1459   1.585  14.023   0.710
33207SOL    HW1 1460   1.669  13.995   0.672
33207SOL    HW2 1461   1.519  13.981   0.655
33208SOL     OW 1462   1.537  11.972  14.118
33208SOL    HW1 1463   1.491  12.026  14.182
33208SOL    HW2 1464   1.620  11.950  14.160
33209SOL     OW 1465   0.945   3.181   1.344
33209SOL    HW1 1466   0.876   3.118   1.321
33209SOL    HW2 1467   1.025   3.128   1.350
33210SOL     OW 1468   6.032  10.167  13.182
33210SOL    HW1 1469   6.045  10.252  13.140
33210SOL    HW2 1470   6.067  10.104  13.119
33211SOL     OW 1471   9.136   7.800   6.198
33211SOL    HW1 1472   9.174   7.848   6.272
33211SOL    HW2 1473   9.208   7.792   6.136
33212SOL     OW 1474  10.066   1.388   9.224
33212SOL    HW1 1475  10.025   1.429   9.148
33212SOL    HW2 1476  10.064   1.455   9.292
33213SOL     OW 1477  11.897   4.019   4.892
33213SOL    HW1 1478  11.919   4.106   4.928
33213SOL    HW2 1479  11.913   4.027   4.798
33214SOL     OW 1480   5.452   4.880   7.204
33214SOL    HW1 1481   5.517   4.859   7.271
33214SOL    HW2 1482   5.415   4.795   7.179
33215SOL     OW 1483   3.926  13.545   2.402
33215SOL    HW1 1484   4.011  13.510   2.373
33215SOL    HW2 1485   3.920  13.630   2.360
33216SOL     OW 1486  13.445   6.685   5.784
33216SOL    HW1 1487  13.432   6.690   5.689
33216SOL    HW2 1488  13.417   6.596   5.807
33217SOL     OW 1489   9.065  11.809  10.908
33217SOL    HW1 1490   9.134  11.812  10.841
33217SOL    HW2 1491   9.102  11.755  10.977
33218SOL     OW 1492   7.615  10.118  12.473
33218SOL    HW1 1493   7.645  10.027  12.471
33218SOL    HW2 1494   7.545  10.119  12.538
33219SOL     OW 1495   4.625   3.918   0.615
33219SOL    HW1 1496   4.576   3.990   0.573
33219SOL    HW2 1497   4.713   3.925   0.578
33220SOL     OW 1498   0.901   9.169   5.489
33220SOL    HW1 1499   0.812   9.180   5.521
33220SOL    HW2 1500   0.946   9.119   5.557
33221SOL     OW 1501  10.976  12.613  13.527
33221SOL    HW1 1502  11.015  12.634  13.442
33221SOL    HW2 1503  10.897  12.563  13.506
33222SOL     OW 1504   3.063   4.218   4.684
33222SOL    HW1 1505   3.007   4.185   4.754
33222SOL    HW2 1506   3.035   4.309   4.671
33223SOL     OW 1507  12.564   3.002   7.548
33223SOL    HW1 1508  12.511   2.980   7.625
33223SOL    HW2 1509  12.612   2.922   7.528
33224SOL     OW 1510   4.186   2.869   0.554
33224SOL    HW1 1511   4.167   2.796   0.495
33224SOL    HW2 1512   4.275   2.895   0.532
33225SOL     OW 1513  14.265   5.740   3.645
33225SOL    HW1 1514  14.292   5.828   3.619
33225SOL    HW2 1515  14.347   5.691   3.655
33226SOL     OW 1516  14.447   1.491   9.946
33226SOL    HW1 1517  14.418   1.536  10.025
33226SOL    HW2 1518  14.409   1.541   9.873
33227SOL     OW 1519   1.173   8.913   4.797
33227SOL    HW1 1520   1.245   8.931   4.736
33227SOL    HW2 1521   1.154   8.820   4.784
33228SOL     OW 1522   9.623   3.954   2.291
33228SOL    HW1 1523   9.666   4.033   2.259
33228SOL    HW2 1524   9.690   3.910   2.343
33229SOL     OW 1525   8.990  11.731  14.765
33229SOL    HW1 1526   9.052  11.738  14.693
33229SOL    HW2 1527   9.044  11.725  14.844
33230SOL     OW 1528   7.995   0.312   4.206
33230SOL    HW1 1529   8.048   0.325   4.284
33230SOL    HW2 1530   8.057   0.312   4.133
33231SOL     OW 1531  12.902  14.432  14.323
33231SOL    HW1 1532  12.839  14.385  14.377
33231SOL    HW2 1533  12.849  14.483  14.262
33232SOL     OW 1534   0.835  13.293   1.358
33232SOL    HW1 1535   0.783  13.235   1.413
33232SOL    HW2 1536   0.905  13.237   1.324
33233SOL     OW 1537  14.303   3.236  12.389
33233SOL    HW1 1538  14.260   3.320  12.407
33233SOL    HW2 1539  14.234   3.180  12.355
33234SOL     OW 1540  10.682  10.188   2.192
33234SOL    HW1 1541  10.740  10.229   2.128
33234SOL    HW2 1542  10.594  10.203   2.158
33235SOL     OW 1543   4.824   5.886  11.514
33235SOL    HW1 1544   4.905   5.838  11.531
33235SOL    HW2 1545   4.852   5.970  11.478
33236SOL     OW 1546   0.730  10.034  10.883
33236SOL    HW1 1547   0.800   9.973  10.907
33236SOL    HW2 1548   0.708  10.012  10.792
33237SOL     OW 1549   0.282  11.221   6.382
33237SOL    HW1 1550   0.339  11.145   6.370
33237SOL    HW2 1551   0.342  11.295   6.386
33238SOL     OW 1552  13.707  12.664  10.533
33238SOL    HW1 1553  13.679  12.676  10.624
33238SOL    HW2 1554  13.748  12.577  10.532
33239SOL     OW 1555   4.293   2.110   8.517
33239SOL    HW1 1556   4.304   2.090   8.424
33239SOL    HW2 1557   4.353   2.182   8.534
33240SOL     OW 1558   0.054  13.724  11.319
33240SOL    HW1 1559   0.120  13.781  11.278
33240SOL    HW2 1560  14.847  13.769  11.304
33241SOL     OW 1561  12.310   5.340   8.902
33241SOL    HW1 1562  12.266   5.318   8.819
33241SOL    HW2 1563  12.402   5.321   8.886
33242SOL     OW 1564   9.287   0.331   0.119
33242SOL    HW1 1565   9.310   0.420   0.146
33242SOL    HW2 1566   9.368   0.281   0.129
33243SOL     OW 1567   5.940   9.870  12.665
33243SOL    HW1 1568   5.958   9.817  12.742
33243SOL    HW2 1569   5.867   9.827  12.622
33244SOL     OW 1570   9.220   8.107   2.171
33244SOL    HW1 1571   9.202   8.199   2.192
33244SOL    HW2 1572   9.295   8.110   2.112
33245SOL     OW 1573  10.911  13.820   0.029
33245SOL    HW1 1574  10.897  13.776  14.822
33245SOL    HW2 1575  10.827  13.861   0.049
33246SOL     OW 1576  12.791  12.429   7.622
33246SOL    HW1 1577  12.825  12.519   7.620
33246SOL    HW2 1578  12.859  12.379   7.667
33247SOL     OW 1579   8.384   8.051   7.165
33247SOL    HW1 1580   8.475   8.052   7.136
33247SOL    HW2 1581   8.385   7.998   7.245
33248SOL     OW 1582   4.173  13.893  13.813
33248SOL    HW1 1583   4.154  13.913  13.721
33248SOL    HW2 1584   4.211  13.974  13.848
33249SOL     OW 1585   5.000   1.502  10.308
33249SOL    HW1 1586   4.989   1.407  10.313
33249SOL    HW2 1587   4.988   1.532  10.398
33250SOL     OW 1588   7.207   9.036   7.000
33250SOL    HW1 1589   7.215   9.130   6.985
33250SOL    HW2 1590   7.279   9.015   7.060
33251SOL     OW 1591   3.787   5.016  12.466
33251SOL    HW1 1592   3.728   5.087  12.441
33251SOL    HW2 1593   3.861   5.061  12.507
33252SOL     OW 1594   6.639  13.769  14.678
33252SOL    HW1 1595   6.681  13.690  14.646
33252SOL    HW2 1596   6.570  13.738  14.737
33253SOL     OW 1597   8.500   7.239  11.137
33253SOL    HW1 1598   8.572   7.215  11.196
33253SOL    HW2 1599   8.532   7.219  11.050
33254SOL     OW 1600   5.100   0.355  12.921
33254SOL    HW1 1601   5.015   0.320  12.896
33254SOL    HW2 1602   5.148   0.363  12.838
33255SOL     OW 1603   8.871  12.647   4.375
33255SOL    HW1 1604   8.875  12.552   4.366
33255SOL    HW2 1605   8.953  12.670   4.419
33256SOL     OW 1606   7.249   0.320   1.972
33256SOL    HW1 1607   7.208   0.258   2.033
33256SOL    HW2 1608   7.253   0.402   2.020
33257SOL     OW 1609   7.921   4.962   5.264
33257SOL    HW1 1610   7.864   5.032   5.233
33257SOL    HW2 1611   7.993   4.960   5.202
33258SOL     OW 1612   7.297   9.787   9.304
33258SOL    HW1 1613   7.261   9.728   9.237
33258SOL    HW2 1614   7.221   9.832   9.340
33259SOL     OW 1615  12.529   2.585  13.313
33259SOL    HW1 1616  12.568   2.567  13.399
33259SOL    HW2 1617  12.435   2.579  13.328
33260SOL     OW 1618   9.305   5.741   9.410
33260SOL    HW1 1619   9.381   5.739   9.468
33260SOL    HW2 1620   9.247   5.805   9.450
33261SOL     OW 1621  11.452   8.399   0.532
33261SOL    HW1 1622  11.498   8.351   0.601
33261SOL    HW2 1623  11.366   8.356   0.527
33262SOL     OW 1624   6.228   9.016   7.573
33262SOL    HW1 1625   6.142   9.019   7.531
33262SOL    HW2 1626   6.272   8.941   7.531
33263SOL     OW 1627  10.704   8.077   7.138
33263SOL    HW1 1628  10.667   7.990   7.155
33263SOL    HW2 1629  10.637   8.121   7.085
33264SOL     OW 1630   2.383   4.682   0.635
33264SOL    HW1 1631   2.295   4.720   0.630
33264SOL    HW2 1632   2.410   4.697   0.725
33265SOL     OW 1633   2.924  10.160   0.606
33265SOL    HW1 1634   3.001  10.158   0.663
33265SOL    HW2 1635   2.862  10.100   0.647
33266SOL     OW 1636   9.658   0.922   8.646
33266SOL    HW1 1637   9.580   0.870   8.668
33266SOL    HW2 1638   9.708   0.926   8.727
33267SOL     OW 1639   0.098   2.493   1.567
33267SOL    HW1 1640   0.023   2.534   1.612
33267SOL    HW2 1641   0.087   2.400   1.583
33268SOL     OW 1642   0.220   9.658  11.475
33268SOL    HW1 1643   0.208   9.574  11.518
33268SOL    HW2 1644   0.295   9.698  11.520
33269SOL     OW 1645   0.590  10.898   5.438
33269SOL    HW1 1646   0.618  10.810   5.464
33269SOL    HW2 1647   0.661  10.931   5.383
33270SOL     OW 1648   0.569  14.092  11.890
33270SOL    HW1 1649   0.602  14.057  11.973
33270SOL    HW2 1650   0.498  14.034  11.864
33271SOL     OW 1651  11.483   0.064  11.306
33271SOL    HW1 1652  11.554   0.052  11.243
33271SOL    HW2 1653  11.527   0.098  11.384
33272SOL     OW 1654   3.500   1.058   7.866
33272SOL    HW1 1655   3.547   0.984   7.905
33272SOL    HW2 1656   3.422   1.018   7.827
33273SOL     OW 1657  14.710   1.214  13.004
33273SOL    HW1 1658  14.672   1.295  13.038
33273SOL    HW2 1659  14.685   1.147  13.068
33274SOL     OW 1660   1.502   3.044   2.128
33274SOL    HW1 1661   1.502   3.049   2.224
33274SOL    HW2 1662   1.452   3.120   2.100
33275SOL     OW 1663   9.104  14.752   9.811
33275SOL    HW1 1664   9.041  14.685   9.837
33275SOL    HW2 1665   9.111  14.743   9.716
33276SOL     OW 1666   8.398   0.810   2.069
33276SOL    HW1 1667   8.317   0.817   2.119
33276SOL    HW2 1668   8.393   0.724   2.027
33277SOL     OW 1669   6.527   0.408   5.216
33277SOL    HW1 1670   6.623   0.401   5.214
33277SOL    HW2 1671   6.498   0.368   5.134
33278SOL     OW 1672   3.342   4.311   2.467
33278SOL    HW1 1673   3.271   4.372   2.444
33278SOL    HW2 1674   3.422   4.358   2.444
33279SOL     OW 1675   4.554  10.842  13.480
33279SOL    HW1 1676   4.540  10.934  13.458
33279SOL    HW2 1677   4.524  10.794  13.403
33280SOL     OW 1678   0.622  10.944   2.210
33280SOL    HW1 1679   0.641  10.949   2.116
33280SOL    HW2 1680   0.669  10.866   2.240
33281SOL     OW 1681   1.688   6.852  11.651
33281SOL    HW1 1682   1.767   6.906  11.652
33281SOL    HW2 1683   1.662   6.846  11.743
33282SOL     OW 1684   0.031   2.170   7.901
33282SOL    HW1 1685   0.044   2.247   7.955
33282SOL    HW2 1686   0.022   2.098   7.963
33283SOL     OW 1687   7.816   0.010   5.017
33283SOL    HW1 1688   7.891  14.861   5.071
33283SOL    HW2 1689   7.831   0.102   4.996
33284SOL     OW 1690   8.772   6.944   0.745
33284SOL    HW1 1691   8.761   6.950   0.840
33284SOL    HW2 1692   8.867   6.941   0.732
33285SOL     OW 1693   8.688  12.677   5.574
33285SOL    HW1 1694   8.712  12.585   5.579
33285SOL    HW2 1695   8.752  12.722   5.630
33286SOL     OW 1696   2.444   2.766   0.482
33286SOL    HW1 1697   2.512   2.700   0.496
33286SOL    HW2 1698   2.393   2.766   0.563
33287SOL     OW 1699   6.525   7.730   8.424
33287SOL    HW1 1700   6.433   7.742   8.448
33287SOL    HW2 1701   6.563   7.684   8.499
33288SOL     OW 1702  14.001   8.991   5.650
33288SOL    HW1 1703  13.929   8.928   5.657
33288SOL    HW2 1704  13.963   9.065   5.602
33289SOL     OW 1705   9.591   6.793   7.066
33289SOL    HW1 1706   9.588   6.815   7.159
33289SOL    HW2 1707   9.586   6.878   7.021
33290SOL     OW 1708   3.157   6.228  10.517
33290SOL    HW1 1709   3.229   6.197  10.571
33290SOL    HW2 1710   3.196   6.292  10.458
33291SOL     OW 1711   1.873   0.085   2.319
33291SOL    HW1 1712   1.910   0.098   2.231
33291SOL    HW2 1713   1.931   0.020   2.360
33292SOL     OW 1714  12.841   0.017   9.018
33292SOL    HW1 1715  12.794  14.823   8.972
33292SOL    HW2 1716  12.802   0.018   9.105
33293SOL     OW 1717   2.864  10.256   0.169
33293SOL    HW1 1718   2.823  10.343   0.165
33293SOL    HW2 1719   2.893  10.248   0.260
33294SOL     OW 1720   6.897   1.359  11.421
33294SOL    HW1 1721   6.819   1.414  11.414
33294SOL    HW2 1722   6.863   1.270  11.421
33295SOL     OW 1723   8.761   2.466   4.562
33295SOL    HW1 1724   8.742   2.379   4.597
33295SOL    HW2 1725   8.850   2.484   4.593
33296SOL     OW 1726  13.419   8.600  11.240
33296SOL    HW1 1727  13.406   8.677  11.186
33296SOL    HW2 1728  13.467   8.632  11.316
33297SOL     OW 1729   7.634  12.179   3.529
33297SOL    HW1 1730   7.710  12.195   3.472
33297SOL    HW2 1731   7.664  12.204   3.616
33298SOL     OW 1732   1.266   9.005   1.282
33298SOL    HW1 1733   1.345   8.985   1.332
33298SOL    HW2 1734   1.195   8.961   1.330
33299SOL     OW 1735   5.274   1.592  13.535
33299SOL    HW1 1736   5.204   1.531  13.512
33299SOL    HW2 1737   5.350   1.536  13.552
33300SOL     OW 1738   0.862   1.300   2.373
33300SOL    HW1 1739   0.845   1.328   2.283
33300SOL    HW2 1740   0.835   1.208   2.374
33301SOL     OW 1741   1.198  14.637   4.702
33301SOL    HW1 1742   1.257  14.569   4.732
33301SOL    HW2 1743   1.255  14.701   4.658
33302SOL     OW 1744   7.909   3.700   1.945
33302SOL    HW1 1745   7.864   3.616   1.929
33302SOL    HW2 1746   8.002   3.677   1.950
33303SOL     OW 1747   6.660   4.679   0.185
33303SOL    HW1 1748   6.667   4.760   0.135
33303SOL    HW2 1749   6.695   4.701   0.271
33304SOL     OW 1750   6.677   2.448   0.331
33304SOL    HW1 1751   6.737   2.506   0.379
33304SOL    HW2 1752   6.699   2.460   0.239
33305SOL     OW 1753  13.055  14.159   4.759
33305SOL    HW1 1754  13.040  14.217   4.684
33305SOL    HW2 1755  12.977  14.104   4.762
33306SOL     OW 1756  10.639   3.532  10.329
33306SOL    HW1 1757  10.627   3.589  10.253
33306SOL    HW2 1758  10.555   3.486  10.337
33307SOL     OW 1759   3.099   2.019   7.853
33307SOL    HW1 1760   3.092   2.106   7.812
33307SOL    HW2 1761   3.031   1.967   7.810
33308SOL     OW 1762  13.105   4.113   9.901
33308SOL    HW1 1763  13.167   4.061   9.952
33308SOL    HW2 1764  13.101   4.071   9.816
33309SOL     OW 1765  11.524   6.785   1.288
33309SOL    HW1 1766  11.435   6.779   1.322
33309SOL    HW2 1767  11.559   6.865   1.327
33310SOL     OW 1768   3.238   5.116   2.016
33310SOL    HW1 1769   3.279   5.068   1.944
33310SOL    HW2 1770   3.195   5.049   2.070
33311SOL     OW 1771   7.264   7.371  14.588
33311SOL    HW1 1772   7.231   7.352  14.499
33311SOL    HW2 1773   7.258   7.466  14.596
33312SOL     OW 1774   2.491  11.413   4.801
33312SOL    HW1 1775   2.414  11.470   4.812
33312SOL    HW2 1776   2.563  11.474   4.784
33313SOL     OW 1777   6.240   5.882  12.541
33313SOL    HW1 1778   6.260   5.866  12.448
33313SOL    HW2 1779   6.184   5.959  12.540
33314SOL     OW 1780   4.495  11.346   7.807
33314SOL    HW1 1781   4.564  11.368   7.744
33314SOL    HW2 1782   4.469  11.431   7.844
33315SOL     OW 1783   9.486   4.904  11.486
33315SOL    HW1 1784   9.425   4.830  11.494
33315SOL    HW2 1785   9.541   4.898  11.564
33316SOL     OW 1786   3.556   8.828  14.500
33316SOL    HW1 1787   3.590   8.835  14.590
33316SOL    HW2 1788   3.610   8.759  14.461
33317SOL     OW 1789   4.532   6.077  13.023
33317SOL    HW1 1790   4.537   5.982  13.012
33317SOL    HW2 1791   4.592   6.096  13.095
33318SOL     OW 1792   5.265  14.118  12.690
33318SOL    HW1 1793   5.201  14.048  12.706
33318SOL    HW2 1794   5.255  14.138  12.597
33319SOL     OW 1795   6.960   9.330   6.482
33319SOL    HW1 1796   6.959   9.322   6.578
33319SOL    HW2 1797   6.964   9.240   6.450
33320SOL     OW 1798  13.923   4.677  12.261
33320SOL    HW1 1799  13.925   4.762  12.305
33320SOL    HW2 1800  14.010   4.668  12.222
33321SOL     OW 1801   7.426   1.211   1.573
33321SOL    HW1 1802   7.510   1.256   1.583
33321SOL    HW2 1803   7.372   1.243   1.645
33322SOL     OW 1804   4.320   8.935  14.014
33322SOL    HW1 1805   4.229   8.914  14.037
33322SOL    HW2 1806   4.367   8.852  14.026
33323SOL     OW 1807  10.448   1.843   9.845
33323SOL    HW1 1808  10.530   1.796   9.862
33323SOL    HW2 1809  10.390   1.776   9.808
33324SOL     OW 1810  14.348  12.040   5.078
33324SOL    HW1 1811  14.268  12.049   5.025
33324SOL    HW2 1812  14.330  11.968   5.138
33325SOL     OW 1813   9.185  12.099  11.945
33325SOL    HW1 1814   9.130  12.169  11.980
33325SOL    HW2 1815   9.237  12.140  11.877
33326SOL     OW 1816   1.889   8.003   0.357
33326SOL    HW1 1817   1.883   7.958   0.441
33326SOL    HW2 1818   1.929   7.939   0.298
33327SOL     OW 1819  13.531  11.461   9.091
33327SOL    HW1 1820  13.441  11.492   9.083
33327SOL    HW2 1821  13.543  11.405   9.014
33328SOL     OW 1822  12.457  12.239  13.176
33328SOL    HW1 1823  12.400  12.242  13.253
33328SOL    HW2 1824  12.529  12.298  13.197
33329SOL     OW 1825   5.568   9.463   1.639
33329SOL    HW1 1826   5.580   9.495   1.550
33329SOL    HW2 1827   5.582   9.540   1.694
33330SOL     OW 1828   8.609   7.264  11.493
33330SOL    HW1 1829   8.517   7.289  11.481
33330SOL    HW2 1830   8.617   7.179  11.450
33331SOL     OW 1831   8.304  12.671   0.806
33331SOL    HW1 1832   8.354  12.658   0.725
33331SOL    HW2 1833   8.215  12.688   0.777
33332SOL     OW 1834  13.997  13.418   1.644
33332SOL    HW1 1835  14.069  13.356   1.638
33332SOL    HW2 1836  14.033  13.493   1.691
33333SOL     OW 1837  12.484   9.375  12.330
33333SOL    HW1 1838  12.472   9.297  12.384
33333SOL    HW2 1839  12.571   9.366  12.293
33334SOL     OW 1840   5.772   8.666  14.048
33334SOL    HW1 1841   5.773   8.588  13.993
33334SOL    HW2 1842   5.691   8.658  14.099
33335SOL     OW 1843   5.461  13.063  11.796
33335SOL    HW1 1844   5.378  13.086  11.840
33335SOL    HW2 1845   5.439  13.063  11.703
33336SOL     OW 1846   6.790  12.857  12.880
33336SOL    HW1 1847   6.706  12.817  12.858
33336SOL    HW2 1848   6.806  12.919  12.809
33337SOL     OW 1849  13.417   2.547   7.207
33337SOL    HW1 1850  13.473   2.561   7.284
33337SOL    HW2 1851  13.352   2.617   7.211
33338SOL     OW 1852   2.353   3.592  11.811
33338SOL    HW1 1853   2.293   3.652  11.855
33338SOL    HW2 1854   2.438   3.637  11.813
33339SOL     OW 1855   6.587   8.188  12.816
33339SOL    HW1 1856   6.528   8.126  12.774
33339SOL    HW2 1857   6.529   8.250  12.861
33340SOL     OW 1858   6.715   1.366  14.205
33340SOL    HW1 1859   6.784   1.300  14.208
33340SOL    HW2 1860   6.702   1.383  14.111
33341SOL     OW 1861   1.376   2.596  10.823
33341SOL    HW1 1862   1.333   2.520  10.864
33341SOL    HW2 1863   1.432   2.631  10.892
33342SOL     OW 1864   4.237  12.399  10.681
33342SOL    HW1 1865   4.210  12.307  10.685
33342SOL    HW2 1866   4.331  12.396  10.667
33343SOL     OW 1867  13.021   3.760   2.299
33343SOL    HW1 1868  13.086   3.693   2.276
33343SOL    HW2 1869  12.990   3.794   2.215
33344SOL     OW 1870   7.290   5.633   7.496
33344SOL    HW1 1871   7.194   5.645   7.496
33344SOL    HW2 1872   7.314   5.629   7.404
33345SOL     OW 1873   4.113   5.379   2.967
33345SOL    HW1 1874   4.060   5.394   3.045
33345SOL    HW2 1875   4.186   5.325   2.998
33346SOL     OW 1876   5.616  13.784   6.796
33346SOL    HW1 1877   5.703  13.811   6.767
33346SOL    HW2 1878   5.621  13.783   6.891
33347SOL     OW 1879  13.920  12.510   6.786
33347SOL    HW1 1880  13.836  12.485   6.748
33347SOL    HW2 1881  13.899  12.534   6.876
33348SOL     OW 1882   4.746  10.526  10.238
33348SOL    HW1 1883   4.695  10.544  10.159
33348SOL    HW2 1884   4.837  10.519  10.208
33349SOL     OW 1885   6.113  10.383  13.015
33349SOL    HW1 1886   6.161  10.363  12.934
33349SOL    HW2 1887   6.136  10.474  13.034
33350SOL     OW 1888   3.159   9.220   9.748
33350SOL    HW1 1889   3.099   9.294   9.759
33350SOL    HW2 1890   3.176   9.189   9.837
33351SOL     OW 1891   2.971   4.175   4.202
33351SOL    HW1 1892   2.922   4.169   4.284
33351SOL    HW2 1893   2.941   4.100   4.150
33352SOL     OW 1894   1.184   3.539   8.160
33352SOL    HW1 1895   1.129   3.608   8.198
33352SOL    HW2 1896   1.234   3.585   8.092
33353SOL     OW 1897   1.916   5.772  10.468
33353SOL    HW1 1898   1.890   5.815  10.549
33353SOL    HW2 1899   1.992   5.821  10.438
33354SOL     OW 1900   8.209   2.880  11.784
33354SOL    HW1 1901   8.121   2.870  11.747
33354SOL    HW2 1902   8.197   2.872  11.879
33355SOL     OW 1903   9.739   1.783   9.115
33355SOL    HW1 1904   9.717   1.796   9.207
33355SOL    HW2 1905   9.823   1.827   9.104
33356SOL     OW 1906  10.445  11.015   0.501
33356SOL    HW1 1907  10.456  10.948   0.569
33356SOL    HW2 1908  10.533  11.052   0.490
33357SOL     OW 1909  11.722   4.114   3.532
33357SOL    HW1 1910  11.817   4.126   3.536
33357SOL    HW2 1911  11.707   4.067   3.450
33358SOL     OW 1912  13.436   8.613   6.113
33358SOL    HW1 1913  13.342   8.599   6.103
33358SOL    HW2 1914  13.444   8.689   6.170
33359SOL     OW 1915   6.313  14.274  14.864
33359SOL    HW1 1916   6.281  14.235  14.782
33359SOL    HW2 1917   6.237  14.322   0.021
33360SOL     OW 1918   5.827  14.653   8.548
33360SOL    HW1 1919   5.760  14.604   8.596
33360SOL    HW2 1920   5.812  14.744   8.573
33361SOL     OW 1921   8.997  13.784  13.183
33361SOL    HW1 1922   8.934  13.712  13.174
33361SOL    HW2 1923   8.988  13.834  13.101
33362SOL     OW 1924  13.266   9.441  11.144
33362SOL    HW1 1925  13.359   9.423  11.130
33362SOL    HW2 1926  13.221   9.366  11.107
33363SOL     OW 1927   8.711   6.577   4.328
33363SOL    HW1 1928   8.787   6.547   4.278
33363SOL    HW2 1929   8.650   6.504   4.326
33364SOL     OW 1930   2.032   4.285  13.979
33364SOL    HW1 1931   2.034   4.351  14.048
33364SOL    HW2 1932   2.080   4.324  13.906
33365SOL     OW 1933  11.492   3.119   6.446
33365SOL    HW1 1934  11.460   3.055   6.383
33365SOL    HW2 1935  11.557   3.072   6.498
33366SOL     OW 1936   5.646   3.266   2.037
33366SOL    HW1 1937   5.606   3.194   2.086
33366SOL    HW2 1938   5.736   3.270   2.069
33367SOL     OW 1939   8.682   7.644  12.796
33367SOL    HW1 1940   8.698   7.660  12.889
33367SOL    HW2 1941   8.702   7.727  12.753
33368SOL     OW 1942  14.597   3.193   5.880
33368SOL    HW1 1943  14.595   3.102   5.908
33368SOL    HW2 1944  14.625   3.190   5.788
33369SOL     OW 1945  10.072   1.097   3.953
33369SOL    HW1 1946  10.143   1.033   3.948
33369SOL    HW2 1947   9.994   1.049   3.924
33370SOL     OW 1948   2.552   7.212  13.124
33370SOL    HW1 1949   2.478   7.240  13.177
33370SOL    HW2 1950   2.627   7.215  13.184
33371SOL     OW 1951   1.372  10.530  10.764
33371SOL    HW1 1952   1.347  10.594  10.830
33371SOL    HW2 1953   1.370  10.579  10.681
33372SOL     OW 1954   8.080   2.597   6.072
33372SOL    HW1 1955   8.066   2.505   6.093
33372SOL    HW2 1956   8.055   2.605   5.980
33373SOL     OW 1957  11.442   1.769   1.951
33373SOL    HW1 1958  11.354   1.802   1.971
33373SOL    HW2 1959  11.439   1.747   1.858
33374SOL     OW 1960   3.716   9.067  14.348
33374SOL    HW1 1961   3.679   9.135  14.403
33374SOL    HW2 1962   3.729   8.993  14.407
33375SOL     OW 1963  12.935  14.589  10.764
33375SOL    HW1 1964  12.993  14.663  10.744
33375SOL    HW2 1965  12.863  14.628  10.814
33376SOL     OW 1966  10.853  11.531   5.179
33376SOL    HW1 1967  10.927  11.590   5.195
33376SOL    HW2 1968  10.786  11.587   5.140
33377SOL     OW 1969  14.824  14.088   3.716
33377SOL    HW1 1970  14.738  14.093   3.758
33377SOL    HW2 1971   0.000  14.033   3.773
33378SOL     OW 1972   0.018   2.821  12.164
33378SOL    HW1 1973   0.109   2.806  12.189
33378SOL    HW2 1974  14.859   2.733  12.152
33379SOL     OW 1975   3.500  13.048   8.162
33379SOL    HW1 1976   3.560  13.058   8.237
33379SOL    HW2 1977   3.414  13.034   8.202
33380SOL     OW 1978   4.426   5.049  11.418
33380SOL    HW1 1979   4.347   5.043  11.364
33380SOL    HW2 1980   4.394   5.055  11.507
33381SOL     OW 1981   5.835  14.538   4.130
33381SOL    HW1 1982   5.767  14.578   4.185
33381SOL    HW2 1983   5.787  14.502   4.056
33382SOL     OW 1984   4.550  13.954  13.251
33382SOL    HW1 1985   4.530  14.005  13.329
33382SOL    HW2 1986   4.535  14.014  13.178
33383SOL     OW 1987   4.149   5.570  11.558
33383SOL    HW1 1988   4.189   5.529  11.634
33383SOL    HW2 1989   4.116   5.654  11.590
33384SOL     OW 1990  10.663   3.520   1.022
33384SOL    HW1 1991  10.637   3.558   1.106
33384SOL    HW2 1992  10.748   3.479   1.039
33385SOL     OW 1993  12.055  12.689  10.736
33385SOL    HW1 1994  12.020  12.708  10.649
33385SOL    HW2 1995  12.100  12.605  10.726
33386SOL     OW 1996  11.650   4.599   1.644
33386SOL    HW1 1997  11.594   4.676   1.642
33386SOL    HW2 1998  11.589   4.525   1.641
33387SOL     OW 1999  13.165   1.906   2.753
33387SOL    HW1 2000  13.113   1.894   2.674
33387SOL    HW2 2001  13.207   1.821   2.767
33388SOL     OW 2002   0.248   6.063   3.263
33388SOL    HW1 2003   0.168   6.019   3.236
33388SOL    HW2 2004   0.309   5.992   3.284
33389SOL     OW 2005   5.117  11.789  13.235
33389SOL    HW1 2006   5.201  11.757  13.204
33389SOL    HW2 2007   5.075  11.826  13.158
33390SOL     OW 2008  10.192  10.919   8.677
33390SOL    HW1 2009  10.141  10.982   8.728
33390SOL    HW2 2010  10.127  10.867   8.630
33391SOL     OW 2011   2.169   0.140   9.046
33391SOL    HW1 2012   2.165   0.183   9.132
33391SOL    HW2 2013   2.262   0.123   9.032
33392SOL     OW 2014  10.326  11.284   9.571
33392SOL    HW1 2015  10.409  11.268   9.616
33392SOL    HW2 2016  10.290  11.362   9.613
33393SOL     OW 2017  11.456  11.060  14.146
33393SOL    HW1 2018  11.529  11.051  14.207
33393SOL    HW2 2019  11.497  11.059  14.060
33394SOL     OW 2020   2.436  11.125   5.737
33394SOL    HW1 2021   2.421  11.130   5.832
33394SOL    HW2 2022   2.364  11.174   5.699
33395SOL     OW 2023  13.490  14.342   1.878
33395SOL    HW1 2024  13.543  14.287   1.821
33395SOL    HW2 2025  13.451  14.281   1.941
33396SOL     OW 2026   7.197   5.603   9.790
33396SOL    HW1 2027   7.203   5.680   9.734
33396SOL    HW2 2028   7.267   5.613   9.854
33397SOL     OW 2029   8.207  12.602   9.605
33397SOL    HW1 2030   8.145  12.552   9.657
33397SOL    HW2 2031   8.267  12.536   9.569
33398SOL     OW 2032  10.571   6.073   5.472
33398SOL    HW1 2033  10.647   6.131   5.474
33398SOL    HW2 2034  10.517   6.107   5.401
33399SOL     OW 2035   8.012   8.314  11.226
33399SOL    HW1 2036   8.097   8.270  11.224
33399SOL    HW2 2037   8.032   8.405  11.208
33400SOL     OW 2038  14.028   5.366   0.882
33400SOL    HW1 2039  13.973   5.346   0.807
33400SOL    HW2 2040  14.103   5.413   0.845
33401SOL     OW 2041   7.795   7.703  13.119
33401SOL    HW1 2042   7.867   7.713  13.057
33401SOL    HW2 2043   7.722   7.750  13.079
33402SOL     OW 2044   6.536   6.805  14.382
33402SOL    HW1 2045   6.483   6.806  14.462
33402SOL    HW2 2046   6.529   6.715  14.349
33403SOL     OW 2047   7.768   3.986   5.856
33403SOL    HW1 2048   7.744   4.005   5.765
33403SOL    HW2 2049   7.759   4.070   5.901
33404SOL     OW 2050   8.746  12.996  12.559
33404SOL    HW1 2051   8.762  13.090  12.553
33404SOL    HW2 2052   8.822  12.962  12.607
33405SOL     OW 2053  14.389   3.146  13.467
33405SOL    HW1 2054  14.415   3.235  13.443
33405SOL    HW2 2055  14.328   3.119  13.399
33406SOL     OW 2056  13.324   2.929   3.324
33406SOL    HW1 2057  13.354   2.849   3.280
33406SOL    HW2 2058  13.258   2.898   3.387
33407SOL     OW 2059   1.500   1.573   6.559
33407SOL    HW1 2060   1.521   1.524   6.480
33407SOL    HW2 2061   1.471   1.506   6.622
33408SOL     OW 2062   7.720   4.678   1.659
33408SOL    HW1 2063   7.649   4.670   1.596
33408SOL    HW2 2064   7.737   4.589   1.689
33409SOL     OW 2065   7.313  14.876  10.849
33409SOL    HW1 2066   7.227   0.019  10.887
33409SOL    HW2 2067   7.334   0.077  10.797
33410SOL     OW 2068   3.360   3.164  11.064
33410SOL    HW1 2069   3.426   3.096  11.078
33410SOL    HW2 2070   3.306   3.131  10.992
33411SOL     OW 2071  10.793   4.682  12.611
33411SOL    HW1 2072  10.833   4.690  12.697
33411SOL    HW2 2073  10.706   4.644  12.628
33412SOL     OW 2074  13.901   0.267   6.465
33412SOL    HW1 2075  13.883   0.214   6.542
33412SOL    HW2 2076  13.825   0.325   6.458
33413SOL     OW 2077   5.802   4.532  11.231
33413SOL    HW1 2078   5.874   4.497  11.180
33413SOL    HW2 2079   5.793   4.472  11.305
33414SOL     OW 2080   7.094   0.318  12.104
33414SOL    HW1 2081   7.108   0.278  12.018
33414SOL    HW2 2082   7.121   0.250  12.166
33415SOL     OW 2083   8.075   3.072  10.454
33415SOL    HW1 2084   8.008   3.139  10.439
33415SOL    HW2 2085   8.027   2.989  10.448
33416SOL     OW 2086   8.703   6.096  11.153
33416SOL    HW1 2087   8.789   6.122  11.187
33416SOL    HW2 2088   8.640   6.136  11.213
33417SOL     OW 2089   0.097   0.178   7.282
33417SOL    HW1 2090   0.020   0.232   7.265
33417SOL    HW2 2091   0.156   0.198   7.209
33418SOL     OW 2092   3.678   8.655  12.115
33418SOL    HW1 2093   3.604   8.595  12.117
33418SOL    HW2 2094   3.735   8.620  12.047
33419SOL     OW 2095   8.365   1.825  14.256
33419SOL    HW1 2096   8.430   1.845  14.189
33419SOL    HW2 2097   8.302   1.897  14.251
33420SOL     OW 2098   6.166  13.525   3.252
33420SOL    HW1 2099   6.111  13.447   3.254
33420SOL    HW2 2100   6.108  13.594   3.219
33421SOL     OW 2101   0.854   9.058   9.477
33421SOL    HW1 2102   0.885   9.131   9.531
33421SOL    HW2 2103   0.771   9.031   9.518
33422SOL     OW 2104   5.208   8.013   8.801
33422SOL    HW1 2105   5.275   7.951   8.770
33422SOL    HW2 2106   5.243   8.047   8.884
33423SOL     OW 2107   1.490   9.188  13.040
33423SOL    HW1 2108   1.574   9.154  13.072
33423SOL    HW2 2109   1.455   9.116  12.988
33424SOL     OW 2110   8.656   2.527   5.687
33424SOL    HW1 2111   8.679   2.553   5.597
33424SOL    HW2 2112   8.688   2.599   5.741
33425SOL     OW 2113  13.096  13.177  10.275
33425SOL    HW1 2114  13.036  13.252  10.272
33425SOL    HW2 2115  13.112  13.163  10.368
33426SOL     OW 2116   8.054   1.030   2.018
33426SOL    HW1 2117   8.083   0.946   1.984
33426SOL    HW2 2118   8.107   1.095   1.972
33427SOL     OW 2119   6.023   1.567   5.491
33427SOL    HW1 2120   6.064   1.534   5.571
33427SOL    HW2 2121   6.079   1.639   5.463
33428SOL     OW 2122   1.807   4.153  13.149
33428SOL    HW1 2123   1.817   4.058  13.155
33428SOL    HW2 2124   1.720   4.170  13.187
33429SOL     OW 2125   9.722   5.879   7.577
33429SOL    HW1 2126   9.776   5.821   7.631
33429SOL    HW2 2127   9.683   5.941   7.639
33430SOL     OW 2128   1.419   1.778  10.030
33430SOL    HW1 2129   1.462   1.830  10.098
33430SOL    HW2 2130   1.367   1.714  10.079
33431SOL     OW 2131  12.637   8.124   4.148
33431SOL    HW1 2132  12.700   8.185   4.189
33431SOL    HW2 2133  12.562   8.179   4.125
33432SOL     OW 2134   0.405   9.608   5.356
33432SOL    HW1 2135   0.415   9.634   5.448
33432SOL    HW2 2136   0.347   9.675   5.319
33433SOL     OW 2137   1.653   3.047   4.969
33433SOL    HW1 2138   1.707   3.065   4.892
33433SOL    HW2 2139   1.697   2.975   5.014
33434SOL     OW 2140   6.498   9.974   6.427
33434SOL    HW1 2141   6.539   9.984   6.513
33434SOL    HW2 2142   6.549  10.032   6.370
33435SOL     OW 2143   9.945   9.458  13.044
33435SOL    HW1 2144   9.892   9.461  12.965
33435SOL    HW2 2145  10.034   9.440  13.013
33436SOL     OW 2146   9.555  12.920  13.832
33436SOL    HW1 2147   9.509  12.969  13.900
33436SOL    HW2 2148   9.612  12.985  13.791
33437SOL     OW 2149   5.002  12.609   5.320
33437SOL    HW1 2150   5.053  12.547   5.268
33437SOL    HW2 2151   4.940  12.555   5.368
33438SOL     OW 2152  13.287   7.185   8.777
33438SOL    HW1 2153  13.312   7.272   8.808
33438SOL    HW2 2154  13.206   7.199   8.728
33439SOL     OW 2155   5.062   8.650  10.250
33439SOL    HW1 2156   5.119   8.664  10.326
33439SOL    HW2 2157   5.107   8.583  10.199
33440SOL     OW 2158   6.031   4.738   5.900
33440SOL    HW1 2159   6.091   4.810   5.918
33440SOL    HW2 2160   6.052   4.711   5.811
33441SOL     OW 2161   3.153   6.597   7.562
33441SOL    HW1 2162   3.223   6.662   7.560
33441SOL    HW2 2163   3.076   6.642   7.529
33442SOL     OW 2164  12.070   5.490   5.339
33442SOL    HW1 2165  12.072   5.493   5.434
33442SOL    HW2 2166  12.028   5.571   5.312
33443SOL     OW 2167   6.122   6.589   8.949
33443SOL    HW1 2168   6.167   6.567   8.867
33443SOL    HW2 2169   6.183   6.563   9.018
33444SOL     OW 2170  10.088   2.105   8.407
33444SOL    HW1 2171  10.099   2.165   8.481
33444SOL    HW2 2172  10.171   2.111   8.360
33445SOL     OW 2173  10.251  12.652   5.371
33445SOL    HW1 2174  10.300  12.607   5.439
33445SOL    HW2 2175  10.308  12.723   5.342
33446SOL     OW 2176  14.428   7.005  11.293
33446SOL    HW1 2177  14.429   6.989  11.387
33446SOL    HW2 2178  14.489   6.939  11.257
33447SOL     OW 2179   1.471   6.766   5.454
33447SOL    HW1 2180   1.514   6.702   5.511
33447SOL    HW2 2181   1.514   6.849   5.474
33448SOL     OW 2182   3.910   4.757   6.887
33448SOL    HW1 2183   3.847   4.779   6.956
33448SOL    HW2 2184   3.917   4.662   6.891
33449SOL     OW 2185  12.338  12.976   5.728
33449SOL    HW1 2186  12.299  12.981   5.815
33449SOL    HW2 2187  12.331  13.065   5.693
33450SOL     OW 2188  13.199  12.771   4.062
33450SOL    HW1 2189  13.276  12.723   4.094
33450SOL    HW2 2190  13.199  12.853   4.111
33451SOL     OW 2191   0.392   9.425   7.944
33451SOL    HW1 2192   0.353   9.350   7.990
33451SOL    HW2 2193   0.436   9.386   7.868
33452SOL     OW 2194   3.897  11.695   7.592
33452SOL    HW1 2195   3.810  11.714   7.558
33452SOL    HW2 2196   3.951  11.682   7.514
33453SOL     OW 2197   2.203  12.153   1.296
33453SOL    HW1 2198   2.181  12.117   1.382
33453SOL    HW2 2199   2.247  12.081   1.251
33454SOL     OW 2200   7.956   3.332  10.044
33454SOL    HW1 2201   8.017   3.359  10.113
33454SOL    HW2 2202   7.894   3.406  10.037
33455SOL     OW 2203   8.122  10.385   6.603
33455SOL    HW1 2204   8.179  10.399   6.679
33455SOL    HW2 2205   8.081  10.470   6.587
33456SOL     OW 2206   8.551   5.726   4.193
33456SOL    HW1 2207   8.557   5.680   4.109
33456SOL    HW2 2208   8.484   5.679   4.242
33457SOL     OW 2209   9.216  11.167   4.196
33457SOL    HW1 2210   9.254  11.251   4.167
33457SOL    HW2 2211   9.279  11.133   4.259
33458SOL     OW 2212   9.418   6.077   0.415
33458SOL    HW1 2213   9.510   6.106   0.416
33458SOL    HW2 2214   9.390   6.092   0.325
33459SOL     OW 2215  13.920   1.228   0.484
33459SOL    HW1 2216  13.882   1.141   0.479
33459SOL    HW2 2217  13.889   1.273   0.406
33460SOL     OW 2218   2.287  10.406   7.328
33460SOL    HW1 2219   2.344  10.430   7.401
33460SOL    HW2 2220   2.198  10.425   7.361
33461SOL     OW 2221   3.962   6.305   8.293
33461SOL    HW1 2222   4.042   6.354   8.315
33461SOL    HW2 2223   3.982   6.215   8.316
33462SOL     OW 2224  12.002   8.660   8.003
33462SOL    HW1 2225  12.008   8.578   8.052
33462SOL    HW2 2226  11.942   8.714   8.055
33463SOL     OW 2227  12.065  10.555  11.324
33463SOL    HW1 2228  12.138  10.595  11.371
33463SOL    HW2 2229  12.090  10.464  11.314
33464SOL     OW 2230   1.910   1.934   0.707
33464SOL    HW1 2231   1.859   1.930   0.788
33464SOL    HW2 2232   1.844   1.937   0.637
33465SOL     OW 2233   6.430   7.003   3.230
33465SOL    HW1 2234   6.467   6.939   3.170
33465SOL    HW2 2235   6.442   7.087   3.186
33466SOL     OW 2236  11.021   3.576  10.384
33466SOL    HW1 2237  11.038   3.636  10.457
33466SOL    HW2 2238  10.931   3.545  10.399
33467SOL     OW 2239  14.739   9.379   1.814
33467SOL    HW1 2240  14.777   9.303   1.769
33467SOL    HW2 2241  14.712   9.437   1.743
33468SOL     OW 2242   5.389   4.641  14.254
33468SOL    HW1 2243   5.478   4.611  14.275
33468SOL    HW2 2244   5.338   4.623  14.333
33469SOL     OW 2245   9.150  11.016   6.835
33469SOL    HW1 2246   9.098  10.995   6.913
33469SOL    HW2 2247   9.124  11.105   6.812
33470SOL     OW 2248  11.815   8.672   3.723
33470SOL    HW1 2249  11.829   8.656   3.816
33470SOL    HW2 2250  11.890   8.725   3.695
33471SOL     OW 2251  12.914  11.766   0.937
33471SOL    HW1 2252  12.970  11.840   0.919
33471SOL    HW2 2253  12.828  11.791   0.903
33472SOL     OW 2254   2.451   6.607   2.982
33472SOL    HW1 2255   2.499   6.571   2.908
33472SOL    HW2 2256   2.387   6.539   3.005
33473SOL     OW 2257  12.446   8.099   3.175
33473SOL    HW1 2258  12.353   8.077   3.164
33473SOL    HW2 2259  12.453   8.132   3.265
33474SOL     OW 2260  13.651  13.656  12.606
33474SOL    HW1 2261  13.729  13.604  12.626
33474SOL    HW2 2262  13.596  13.648  12.683
33475SOL     OW 2263  14.822   0.759   3.833
33475SOL    HW1 2264   0.011   0.801   3.777
33475SOL    HW2 2265  14.739   0.800   3.809
33476SOL     OW 2266  14.194   0.210   9.592
33476SOL    HW1 2267  14.264   0.274   9.583
33476SOL    HW2 2268  14.203   0.153   9.515
33477SOL     OW 2269   3.981   6.457   3.140
33477SOL    HW1 2270   3.983   6.543   3.181
33477SOL    HW2 2271   4.040   6.465   3.066
33478SOL     OW 2272   2.289   7.032   0.785
33478SOL    HW1 2273   2.268   7.111   0.835
33478SOL    HW2 2274   2.230   7.036   0.710
33479SOL     OW 2275   3.985   7.387   9.531
33479SOL    HW1 2276   3.947   7.319   9.587
33479SOL    HW2 2277   4.061   7.346   9.491
33480SOL     OW 2278  13.591  11.082   4.156
33480SOL    HW1 2279  13.565  11.043   4.240
33480SOL    HW2 2280  13.686  11.093   4.163
33481SOL     OW 2281   9.068   1.563   8.937
33481SOL    HW1 2282   9.077   1.471   8.961
33481SOL    HW2 2283   9.059   1.562   8.842
33482SOL     OW 2284   6.736   9.407   3.863
33482SOL    HW1 2285   6.714   9.500   3.871
33482SOL    HW2 2286   6.695   9.366   3.939
33483SOL     OW 2287   8.293   5.596  13.608
33483SOL    HW1 2288   8.233   5.538  13.655
33483SOL    HW2 2289   8.265   5.588  13.516
33484SOL     OW 2290   2.218  10.176   8.148
33484SOL    HW1 2291   2.182  10.205   8.232
33484SOL    HW2 2292   2.302  10.221   8.141
33485SOL     OW 2293   4.772  12.933   1.944
33485SOL    HW1 2294   4.754  12.850   1.989
33485SOL    HW2 2295   4.694  12.950   1.892
33486SOL     OW 2296   2.660   6.746   8.847
33486SOL    HW1 2297   2.617   6.819   8.893
33486SOL    HW2 2298   2.752   6.773   8.841
33487SOL     OW 2299   1.730   6.836   1.071
33487SOL    HW1 2300   1.634   6.838   1.068
33487SOL    HW2 2301   1.753   6.750   1.037
33488SOL     OW 2302   9.735   7.473  12.111
33488SOL    HW1 2303   9.809   7.505  12.059
33488SOL    HW2 2304   9.670   7.446  12.046
33489SOL     OW 2305   1.504  12.457  10.336
33489SOL    HW1 2306   1.571  12.397  10.368
33489SOL    HW2 2307   1.439  12.400  10.295
33490SOL     OW 2308  12.256   2.719   6.731
33490SOL    HW1 2309  12.319   2.647   6.724
33490SOL    HW2 2310  12.296   2.779   6.793
33491SOL     OW 2311  11.105   3.922   1.961
33491SOL    HW1 2312  11.074   4.011   1.980
33491SOL    HW2 2313  11.041   3.865   2.004
33492SOL     OW 2314  11.432   7.596   2.933
33492SOL    HW1 2315  11.369   7.653   2.977
33492SOL    HW2 2316  11.415   7.509   2.969
33493SOL     OW 2317  13.320   2.299  11.868
33493SOL    HW1 2318  13.378   2.370  11.842
33493SOL    HW2 2319  13.317   2.241  11.792
33494SOL     OW 2320   7.286   3.052  10.224
33494SOL    HW1 2321   7.347   3.093  10.162
33494SOL    HW2 2322   7.213   3.023  10.169
33495SOL     OW 2323   0.382   5.474   6.798
33495SOL    HW1 2324   0.315   5.496   6.733
33495SOL    HW2 2325   0.355   5.522   6.877
33496SOL     OW 2326   8.622  13.685   2.792
33496SOL    HW1 2327   8.541  13.690   2.843
33496SOL    HW2 2328   8.640  13.776   2.767
33497SOL     OW 2329   5.274   4.499   3.495
33497SOL    HW1 2330   5.358   4.541   3.481
33497SOL    HW2 2331   5.270   4.483   3.589
33498SOL     OW 2332   6.968  13.078   2.679
33498SOL    HW1 2333   7.004  13.137   2.745
33498SOL    HW2 2334   6.874  13.094   2.681
33499SOL     OW 2335   9.529  10.879   2.959
33499SOL    HW1 2336   9.594  10.819   2.924
33499SOL    HW2 2337   9.522  10.856   3.051
33500SOL     OW 2338   3.946   3.884   8.617
33500SOL    HW1 2339   3.960   3.970   8.656
33500SOL    HW2 2340   3.938   3.824   8.692
33501SOL     OW 2341   2.449   6.270   4.961
33501SOL    HW1 2342   2.425   6.310   5.045
33501SOL    HW2 2343   2.413   6.181   4.967
33502SOL     OW 2344   5.316   3.938  10.807
33502SOL    HW1 2345   5.370   3.976  10.876
33502SOL    HW2 2346   5.359   3.964  10.726
33503SOL     OW 2347   3.707   3.763   5.919
33503SOL    HW1 2348   3.724   3.835   5.980
33503SOL    HW2 2349   3.784   3.707   5.926
33504SOL     OW 2350   1.200   4.627   6.741
33504SOL    HW1 2351   1.202   4.721   6.727
33504SOL    HW2 2352   1.107   4.604   6.741
33505SOL     OW 2353   9.289   0.023   0.173
33505SOL    HW1 2354   9.373   0.069   0.176
33505SOL    HW2 2355   9.235   0.074   0.112
33506SOL     OW 2356   2.586   3.793  10.433
33506SOL    HW1 2357   2.660   3.748  10.475
33506SOL    HW2 2358   2.626   3.854  10.372
33507SOL     OW 2359   5.172  14.061   6.811
33507SOL    HW1 2360   5.234  14.036   6.743
33507SOL    HW2 2361   5.211  14.138   6.852
33508SOL     OW 2362   8.577  11.546   7.395
33508SOL    HW1 2363   8.536  11.586   7.319
33508SOL    HW2 2364   8.571  11.452   7.380
33509SOL     OW 2365  14.532  14.829   0.559
33509SOL    HW1 2366  14.448  14.790   0.533
33509SOL    HW2 2367  14.597  14.785   0.503
33510SOL     OW 2368   5.202  14.829   6.227
33510SOL    HW1 2369   5.205   0.020   6.295
33510SOL    HW2 2370   5.273  14.853   6.167
33511SOL     OW 2371   1.908   3.212   5.747
33511SOL    HW1 2372   1.844   3.278   5.773
33511SOL    HW2 2373   1.929   3.234   5.656
33512SOL     OW 2374  11.522  12.228   6.855
33512SOL    HW1 2375  11.539  12.322   6.864
33512SOL    HW2 2376  11.474  12.220   6.772
33513SOL     OW 2377   6.272   7.643   0.432
33513SOL    HW1 2378   6.347   7.584   0.442
33513SOL    HW2 2379   6.203   7.588   0.397
33514SOL     OW 2380  10.394  10.930   5.311
33514SOL    HW1 2381  10.474  10.912   5.261
33514SOL    HW2 2382  10.345  10.992   5.256
33515SOL     OW 2383   6.469   6.818   9.734
33515SOL    HW1 2384   6.558   6.788   9.717
33515SOL    HW2 2385   6.413   6.747   9.701
33516SOL     OW 2386   0.140  10.422   1.967
33516SOL    HW1 2387   0.150  10.401   2.060
33516SOL    HW2 2388   0.228  10.447   1.939
33517SOL     OW 2389   0.427   3.084   2.510
33517SOL    HW1 2390   0.506   3.138   2.499
33517SOL    HW2 2391   0.384   3.089   2.425
33518SOL     OW 2392  10.306   6.800   9.791
33518SOL    HW1 2393  10.255   6.754   9.725
33518SOL    HW2 2394  10.241   6.832   9.854
33519SOL     OW 2395   3.378  11.500   1.560
33519SOL    HW1 2396   3.293  11.543   1.553
33519SOL    HW2 2397   3.436  11.552   1.504
33520SOL     OW 2398   1.319  10.141   5.245
33520SOL    HW1 2399   1.371  10.062   5.233
33520SOL    HW2 2400   1.240  10.110   5.290
33521SOL     OW 2401   6.238  12.895   1.208
33521SOL    HW1 2402   6.228  12.975   1.260
33521SOL    HW2 2403   6.283  12.834   1.267
33522SOL     OW 2404   4.885  14.176   3.987
33522SOL    HW1 2405   4.910  14.231   3.913
33522SOL    HW2 2406   4.810  14.220   4.026
33523SOL     OW 2407   5.124  11.471   2.357
33523SOL    HW1 2408   5.092  11.487   2.268
33523SOL    HW2 2409   5.044  11.461   2.410
33524SOL     OW 2410  14.200   1.019   7.689
33524SOL    HW1 2411  14.266   1.063   7.743
33524SOL    HW2 2412  14.135   0.988   7.751
33525SOL     OW 2413   7.587  12.642   5.840
33525SOL    HW1 2414   7.550  12.554   5.835
33525SOL    HW2 2415   7.680  12.630   5.821
33526SOL     OW 2416   7.553   6.996   4.552
33526SOL    HW1 2417   7.556   6.922   4.491
33526SOL    HW2 2418   7.488   6.971   4.617
33527SOL     OW 2419  13.032   7.160   8.370
33527SOL    HW1 2420  13.103   7.223   8.382
33527SOL    HW2 2421  13.015   7.162   8.275
33528SOL     OW 2422  13.485   6.229  13.252
33528SOL    HW1 2423  13.530   6.243  13.169
33528SOL    HW2 2424  13.451   6.315  13.276
33529SOL     OW 2425   8.135  10.367   8.138
33529SOL    HW1 2426   8.170  10.333   8.056
33529SOL    HW2 2427   8.166  10.457   8.142
33530SOL     OW 2428  11.115   8.687   4.439
33530SOL    HW1 2429  11.116   8.591   4.436
33530SOL    HW2 2430  11.024   8.709   4.462
33531SOL     OW 2431   2.656   1.310   0.356
33531SOL    HW1 2432   2.653   1.372   0.429
33531SOL    HW2 2433   2.580   1.331   0.303
33532SOL     OW 2434  10.920   3.814   0.501
33532SOL    HW1 2435  10.827   3.835   0.510
33532SOL    HW2 2436  10.956   3.824   0.589
33533SOL     OW 2437   0.027   7.742  12.589
33533SOL    HW1 2438   0.044   7.672  12.527
33533SOL    HW2 2439  14.872   7.697  12.668
33534SOL     OW 2440   2.229   1.410   6.096
33534SOL    HW1 2441   2.149   1.446   6.135
33534SOL    HW2 2442   2.251   1.335   6.152
33535SOL     OW 2443  14.749   5.742   9.989
33535SOL    HW1 2444  14.799   5.668   9.955
33535SOL    HW2 2445  14.672   5.703  10.029
33536SOL     OW 2446  14.157   6.642  10.892
33536SOL    HW1 2447  14.237   6.687  10.917
33536SOL    HW2 2448  14.182   6.551  10.883
33537SOL     OW 2449  11.885   9.997   0.602
33537SOL    HW1 2450  11.930   9.928   0.649
33537SOL    HW2 2451  11.796   9.998   0.638
33538SOL     OW 2452   7.444   7.853   1.757
33538SOL    HW1 2453   7.436   7.934   1.707
33538SOL    HW2 2454   7.512   7.871   1.822
33539SOL     OW 2455   6.618   3.133   4.569
33539SOL    HW1 2456   6.580   3.052   4.604
33539SOL    HW2 2457   6.564   3.152   4.492
33540SOL     OW 2458  12.475   5.753  14.652
33540SOL    HW1 2459  12.483   5.772  14.746
33540SOL    HW2 2460  12.494   5.836  14.609
33541SOL     OW 2461  10.110  10.766  12.236
33541SOL    HW1 2462  10.149  10.679  12.230
33541SOL    HW2 2463  10.162  10.812  12.301
33542SOL     OW 2464  14.586  10.679   9.775
33542SOL    HW1 2465  14.585  10.761   9.824
33542SOL    HW2 2466  14.518  10.626   9.815
33543SOL     OW 2467   1.218   0.914   0.213
33543SOL    HW1 2468   1.158   0.894   0.142
33543SOL    HW2 2469   1.246   0.828   0.245
33544SOL     OW 2470   0.148   9.327  14.717
33544SOL    HW1 2471   0.107   9.248  14.751
33544SOL    HW2 2472   0.101   9.345  14.636
33545SOL     OW 2473   3.816  11.036  12.504
33545SOL    HW1 2474   3.879  11.078  12.562
33545SOL    HW2 2475   3.764  10.980  12.561
33546SOL     OW 2476   8.580  11.791  12.495
33546SOL    HW1 2477   8.625  11.713  12.528
33546SOL    HW2 2478   8.502  11.798  12.550
33547SOL     OW 2479   4.365  10.422   1.381
33547SOL    HW1 2480   4.322  10.336   1.378
33547SOL    HW2 2481   4.408  10.423   1.466
33548SOL     OW 2482  13.242   9.993  11.148
33548SOL    HW1 2483  13.228   9.960  11.059
33548SOL    HW2 2484  13.157  10.027  11.175
33549SOL     OW 2485   5.653  14.074  12.054
33549SOL    HW1 2486   5.698  14.153  12.024
33549SOL    HW2 2487   5.721  14.020  12.093
33550SOL     OW 2488  12.597   6.909   8.509
33550SOL    HW1 2489  12.644   6.991   8.492
33550SOL    HW2 2490  12.602   6.861   8.426
33551SOL     OW 2491   3.830   2.995   8.973
33551SOL    HW1 2492   3.878   2.963   8.896
33551SOL    HW2 2493   3.861   2.940   9.045
33552SOL     OW 2494   7.280   9.296  12.545
33552SOL    HW1 2495   7.270   9.299  12.640
33552SOL    HW2 2496   7.190   9.287  12.512
33553SOL     OW 2497  13.615  12.736  13.822
33553SOL    HW1 2498  13.545  12.671  13.809
33553SOL    HW2 2499  13.587  12.785  13.899
33554SOL     OW 2500   3.839  13.873   8.729
33554SOL    HW1 2501   3.758  13.919   8.709
33554SOL    HW2 2502   3.853  13.888   8.822
33555SOL     OW 2503   5.149   7.127  10.457
33555SOL    HW1 2504   5.062   7.164  10.439
33555SOL    HW2 2505   5.206   7.203  10.464
33556SOL     OW 2506   7.244   9.699  11.654
33556SOL    HW1 2507   7.331   9.704  11.695
33556SOL    HW2 2508   7.188   9.752  11.711
33557SOL     OW 2509  12.730   7.908   1.106
33557SOL    HW1 2510  12.820   7.940   1.110
33557SOL    HW2 2511  12.732   7.823   1.149
33558SOL     OW 2512   5.329  12.866  12.105
33558SOL    HW1 2513   5.420  12.869  12.135
33558SOL    HW2 2514   5.313  12.773  12.086
33559SOL     OW 2515   7.133   2.300  10.196
33559SOL    HW1 2516   7.223   2.286  10.165
33559SOL    HW2 2517   7.113   2.221  10.246
33560SOL     OW 2518  14.107  13.700  10.258
33560SOL    HW1 2519  14.198  13.731  10.260
33560SOL    HW2 2520  14.113  13.613  10.219
33561SOL     OW 2521  12.995  10.763   6.450
33561SOL    HW1 2522  12.929  10.694   6.462
33561SOL    HW2 2523  12.948  10.845   6.464
33562SOL     OW 2524   8.662   4.826   0.486
33562SOL    HW1 2525   8.674   4.801   0.394
33562SOL    HW2 2526   8.569   4.849   0.492
33563SOL     OW 2527   3.965   5.884   0.019
33563SOL    HW1 2528   4.005   5.968   0.043
33563SOL    HW2 2529   3.881   5.908  14.856
33564SOL     OW 2530   1.770  11.581   3.553
33564SOL    HW1 2531   1.756  11.595   3.460
33564SOL    HW2 2532   1.864  11.596   3.566
33565SOL     OW 2533   0.493   0.927   1.656
33565SOL    HW1 2534   0.515   0.967   1.572
33565SOL    HW2 2535   0.489   1.001   1.718
33566SOL     OW 2536  10.321   6.326   6.821
33566SOL    HW1 2537  10.379   6.329   6.896
33566SOL    HW2 2538  10.280   6.412   6.818
33567SOL     OW 2539   9.359   8.555   3.447
33567SOL    HW1 2540   9.366   8.482   3.508
33567SOL    HW2 2541   9.446   8.595   3.447
33568SOL     OW 2542   6.594  13.026   6.096
33568SOL    HW1 2543   6.659  12.956   6.100
33568SOL    HW2 2544   6.614  13.083   6.170
33569SOL     OW 2545  14.121   6.228   3.241
33569SOL    HW1 2546  14.192   6.267   3.291
33569SOL    HW2 2547  14.127   6.134   3.259
33570SOL     OW 2548   8.401  13.168   5.081
33570SOL    HW1 2549   8.454  13.099   5.040
33570SOL    HW2 2550   8.347  13.122   5.145
33571SOL     OW 2551   3.544   1.058  12.923
33571SOL    HW1 2552   3.500   0.983  12.885
33571SOL    HW2 2553   3.544   1.040  13.018
33572SOL     OW 2554  14.069   1.819   2.574
33572SOL    HW1 2555  14.081   1.882   2.503
33572SOL    HW2 2556  14.000   1.857   2.628
33573SOL     OW 2557   4.147   1.148   2.888
33573SOL    HW1 2558   4.118   1.063   2.853
33573SOL    HW2 2559   4.236   1.132   2.920
33574SOL     OW 2560   9.916   2.027   4.308
33574SOL    HW1 2561   9.853   2.090   4.343
33574SOL    HW2 2562   9.871   1.986   4.234
33575SOL     OW 2563  13.454   9.529   1.498
33575SOL    HW1 2564  13.477   9.573   1.416
33575SOL    HW2 2565  13.536   9.491   1.529
33576SOL     OW 2566   0.420   1.177   7.908
33576SOL    HW1 2567   0.497   1.159   7.962
33576SOL    HW2 2568   0.389   1.262   7.939
33577SOL     OW 2569   4.063  13.560   6.865
33577SOL    HW1 2570   4.086  13.477   6.907
33577SOL    HW2 2571   4.142  13.586   6.818
33578SOL     OW 2572   9.994  12.721   0.426
33578SOL    HW1 2573  10.067  12.659   0.429
33578SOL    HW2 2574   9.973  12.728   0.333
33579SOL     OW 2575  11.409  12.627   4.353
33579SOL    HW1 2576  11.428  12.708   4.305
33579SOL    HW2 2577  11.342  12.653   4.416
33580SOL     OW 2578   4.233  11.880   5.850
33580SOL    HW1 2579   4.158  11.838   5.890
33580SOL    HW2 2580   4.253  11.954   5.907
33581SOL     OW 2581   9.817   3.404   3.652
33581SOL    HW1 2582   9.780   3.492   3.658
33581SOL    HW2 2583   9.901   3.410   3.697
33582SOL     OW 2584  13.133  11.305   4.361
33582SOL    HW1 2585  13.217  11.344   4.384
33582SOL    HW2 2586  13.151  11.249   4.286
33583SOL     OW 2587   9.809   9.392   8.265
33583SOL    HW1 2588   9.879   9.358   8.210
33583SOL    HW2 2589   9.730   9.379   8.212
33584SOL     OW 2590  11.367   9.514   3.174
33584SOL    HW1 2591  11.433   9.481   3.236
33584SOL    HW2 2592  11.400   9.488   3.088
33585SOL     OW 2593   2.940   2.000   9.779
33585SOL    HW1 2594   2.887   1.986   9.701
33585SOL    HW2 2595   2.900   1.944   9.846
33586SOL     OW 2596  13.331   8.873   2.646
33586SOL    HW1 2597  13.303   8.941   2.708
33586SOL    HW2 2598  13.296   8.792   2.682
33587SOL     OW 2599  11.380  11.456   0.231
33587SOL    HW1 2600  11.411  11.366   0.226
33587SOL    HW2 2601  11.351  11.477   0.143
33588SOL     OW 2602  14.067  13.329  12.045
33588SOL    HW1 2603  13.979  13.364  12.028
33588SOL    HW2 2604  14.084  13.269  11.973
33589SOL     OW 2605   2.387   0.780   5.389
33589SOL    HW1 2606   2.456   0.775   5.324
33589SOL    HW2 2607   2.354   0.690   5.397
33590SOL     OW 2608  11.146   3.139   8.840
33590SOL    HW1 2609  11.155   3.044   8.830
33590SOL    HW2 2610  11.071   3.162   8.784
33591SOL     OW 2611   6.213   5.393   3.695
33591SOL    HW1 2612   6.286   5.332   3.700
33591SOL    HW2 2613   6.202   5.409   3.601
33592SOL     OW 2614   8.105  12.099   6.406
33592SOL    HW1 2615   8.096  12.166   6.339
33592SOL    HW2 2616   8.059  12.023   6.370
33593SOL     OW 2617   3.748   0.857   5.718
33593SOL    HW1 2618   3.676   0.853   5.655
33593SOL    HW2 2619   3.794   0.938   5.697
33594SOL     OW 2620  10.638  10.590   4.866
33594SOL    HW1 2621  10.656  10.556   4.953
33594SOL    HW2 2622  10.550  10.559   4.845
33595SOL     OW 2623  14.397   5.946   3.495
33595SOL    HW1 2624  14.489   5.969   3.481
33595SOL    HW2 2625  14.357   6.026   3.530
33596SOL     OW 2626   3.409   2.060  11.012
33596SOL    HW1 2627   3.483   2.026  10.961
33596SOL    HW2 2628   3.442   2.066  11.102
33597SOL     OW 2629   4.908   6.076  13.124
33597SOL    HW1 2630   4.942   6.037  13.204
33597SOL    HW2 2631   4.832   6.127  13.153
33598SOL     OW 2632  11.824   8.678   2.008
33598SOL    HW1 2633  11.878   8.721   2.074
33598SOL    HW2 2634  11.825   8.586   2.033
33599SOL     OW 2635   0.924   3.874  13.604
33599SOL    HW1 2636   0.936   3.895  13.512
33599SOL    HW2 2637   0.829   3.876  13.617
33600SOL     OW 2638   8.743   3.743   5.922
33600SOL    HW1 2639   8.781   3.655   5.920
33600SOL    HW2 2640   8.688   3.744   6.001
33601SOL     OW 2641   5.984   6.510   5.282
33601SOL    HW1 2642   5.984   6.507   5.377
33601SOL    HW2 2643   5.892   6.520   5.258
33602SOL     OW 2644  13.014   2.373   6.700
33602SOL    HW1 2645  13.024   2.291   6.749
33602SOL    HW2 2646  13.070   2.435   6.747
33603SOL     OW 2647   5.442  11.689   2.599
33603SOL    HW1 2648   5.426  11.653   2.512
33603SOL    HW2 2649   5.417  11.781   2.592
33604SOL     OW 2650   9.805  11.709   6.773
33604SOL    HW1 2651   9.850  11.767   6.712
33604SOL    HW2 2652   9.749  11.654   6.718
33605SOL     OW 2653   8.146   0.284   8.991
33605SOL    HW1 2654   8.159   0.204   9.042
33605SOL    HW2 2655   8.235   0.317   8.977
33606SOL     OW 2656   9.129   1.030   0.879
33606SOL    HW1 2657   9.199   0.969   0.856
33606SOL    HW2 2658   9.052   0.975   0.892
33607SOL     OW 2659   1.237   4.354  13.640
33607SOL    HW1 2660   1.284   4.437  13.649
33607SOL    HW2 2661   1.301   4.287  13.663
33608SOL     OW 2662   0.807   5.728   1.720
33608SOL    HW1 2663   0.738   5.679   1.766
33608SOL    HW2 2664   0.801   5.817   1.756
33609SOL     OW 2665   7.063  11.225   7.564
33609SOL    HW1 2666   7.139  11.245   7.619
33609SOL    HW2 2667   7.088  11.145   7.518
33610SOL     OW 2668   1.357   0.441  10.342
33610SOL    HW1 2669   1.376   0.439  10.248
33610SOL    HW2 2670   1.363   0.533  10.366
33611SOL     OW 2671   8.980  13.711   8.074
33611SOL    HW1 2672   8.967  13.717   8.169
33611SOL    HW2 2673   9.071  13.737   8.060
33612SOL     OW 2674   2.177   5.538   2.784
33612SOL    HW1 2675   2.257   5.488   2.797
33612SOL    HW2 2676   2.199   5.627   2.813
33613SOL     OW 2677   9.604   8.523  14.331
33613SOL    HW1 2678   9.679   8.582  14.334
33613SOL    HW2 2679   9.552   8.547  14.408
33614SOL     OW 2680   6.222   2.876   0.324
33614SOL    HW1 2681   6.140   2.894   0.277
33614SOL    HW2 2682   6.193   2.836   0.407
33615SOL     OW 2683  10.191   5.956   6.859
33615SOL    HW1 2684  10.138   6.028   6.826
33615SOL    HW2 2685  10.212   5.980   6.949
33616SOL     OW 2686   2.877  13.953  11.251
33616SOL    HW1 2687   2.839  14.037  11.225
33616SOL    HW2 2688   2.968  13.958  11.222
33617SOL     OW 2689   4.891  13.882  13.604
33617SOL    HW1 2690   4.875  13.813  13.669
33617SOL    HW2 2691   4.860  13.846  13.521
33618SOL     OW 2692   4.034   7.620   5.579
33618SOL    HW1 2693   3.967   7.577   5.526
33618SOL    HW2 2694   4.072   7.685   5.520
33619SOL     OW 2695  10.534   7.842  12.447
33619SOL    HW1 2696  10.614   7.803  12.483
33619SOL    HW2 2697  10.468   7.827  12.514
33620SOL     OW 2698  14.392  11.785   6.702
33620SOL    HW1 2699  14.470  11.783   6.646
33620SOL    HW2 2700  14.347  11.703   6.682
33621SOL     OW 2701  12.900  10.139   1.994
33621SOL    HW1 2702  12.931  10.229   1.993
33621SOL    HW2 2703  12.899  10.115   2.087
33622SOL     OW 2704   9.152   1.039   8.124
33622SOL    HW1 2705   9.164   1.004   8.213
33622SOL    HW2 2706   9.197   1.123   8.125
33623SOL     OW 2707   0.357   1.253  14.635
33623SOL    HW1 2708   0.406   1.334  14.651
33623SOL    HW2 2709   0.338   1.219  14.723
33624SOL     OW 2710  14.201   0.642   2.343
33624SOL    HW1 2711  14.179   0.733   2.327
33624SOL    HW2 2712  14.242   0.641   2.429
33625SOL     OW 2713  14.851   2.347  11.721
33625SOL    HW1 2714  14.863   2.345  11.626
33625SOL    HW2 2715  14.822   2.259  11.744
33626SOL     OW 2716   9.308   7.539   9.687
33626SOL    HW1 2717   9.288   7.605   9.621
33626SOL    HW2 2718   9.353   7.587   9.756
33627SOL     OW 2719   1.921   2.696  10.103
33627SOL    HW1 2720   1.908   2.782  10.065
33627SOL    HW2 2721   1.834   2.668  10.132
33628SOL     OW 2722   4.172  12.373  12.464
33628SOL    HW1 2723   4.255  12.332  12.490
33628SOL    HW2 2724   4.191  12.409  12.377
33629SOL     OW 2725   5.045   7.525  12.373
33629SOL    HW1 2726   5.131   7.522  12.415
33629SOL    HW2 2727   5.058   7.483  12.288
33630SOL     OW 2728  12.545  12.003   7.726
33630SOL    HW1 2729  12.472  12.032   7.781
33630SOL    HW2 2730  12.603  12.079   7.720
33631SOL     OW 2731  10.938   2.047  10.684
33631SOL    HW1 2732  10.860   2.097  10.709
33631SOL    HW2 2733  11.011   2.108  10.697
33632SOL     OW 2734  12.162  11.782   6.886
33632SOL    HW1 2735  12.144  11.870   6.851
33632SOL    HW2 2736  12.089  11.729   6.854
33633SOL     OW 2737   0.881   8.212  13.096
33633SOL    HW1 2738   0.795   8.191  13.059
33633SOL    HW2 2739   0.889   8.307  13.084
33634SOL     OW 2740   4.348   5.548  11.374
33634SOL    HW1 2741   4.274   5.557  11.433
33634SOL    HW2 2742   4.408   5.489  11.419
33635SOL     OW 2743   2.498  10.900   6.088
33635SOL    HW1 2744   2.568  10.857   6.039
33635SOL    HW2 2745   2.522  10.992   6.089
33636SOL     OW 2746  10.748   5.202   2.649
33636SOL    HW1 2747  10.666   5.153   2.651
33636SOL    HW2 2748  10.774   5.203   2.557
33637SOL     OW 2749   8.339   1.328   6.155
33637SOL    HW1 2750   8.379   1.409   6.122
33637SOL    HW2 2751   8.253   1.356   6.187
33638SOL     OW 2752   3.926  11.416   1.052
33638SOL    HW1 2753   3.922  11.348   0.984
33638SOL    HW2 2754   4.008  11.462   1.033
33639SOL     OW 2755   8.613   1.898  10.005
33639SOL    HW1 2756   8.531   1.848  10.011
33639SOL    HW2 2757   8.608   1.941   9.920
33640SOL     OW 2758   6.913  12.307  11.824
33640SOL    HW1 2759   6.992  12.292  11.877
33640SOL    HW2 2760   6.891  12.220  11.790
33641SOL     OW 2761  12.604  10.486   9.361
33641SOL    HW1 2762  12.593  10.546   9.287
33641SOL    HW2 2763  12.586  10.400   9.325
33642SOL     OW 2764   8.188   5.026   2.887
33642SOL    HW1 2765   8.174   4.931   2.895
33642SOL    HW2 2766   8.275   5.040   2.925
33643SOL     OW 2767  13.325   7.708   8.817
33643SOL    HW1 2768  13.256   7.705   8.750
33643SOL    HW2 2769  13.298   7.777   8.877
33644SOL     OW 2770   6.757  13.973  12.043
33644SOL    HW1 2771   6.695  14.032  12.001
33644SOL    HW2 2772   6.719  13.886  12.031
33645SOL     OW 2773   5.988   0.565   8.082
33645SOL    HW1 2774   6.081   0.550   8.098
33645SOL    HW2 2775   5.984   0.593   7.991
33646SOL     OW 2776  12.716  14.372   8.091
33646SOL    HW1 2777  12.749  14.364   8.002
33646SOL    HW2 2778  12.712  14.467   8.107
33647SOL     OW 2779   5.692   3.476   3.941
33647SOL    HW1 2780   5.699   3.468   3.846
33647SOL    HW2 2781   5.772   3.523   3.966
33648SOL     OW 2782  12.154   0.497  14.724
33648SOL    HW1 2783  12.185   0.452  14.646
33648SOL    HW2 2784  12.099   0.568  14.691
33649SOL     OW 2785   8.618   3.519  11.681
33649SOL    HW1 2786   8.525   3.534  11.694
33649SOL    HW2 2787   8.634   3.542  11.590
33650SOL     OW 2788   5.957   0.031   3.564
33650SOL    HW1 2789   5.945  14.874   3.475
33650SOL    HW2 2790   6.025   0.098   3.556
33651SOL     OW 2791  14.301   8.954  12.628
33651SOL    HW1 2792  14.340   8.973  12.543
33651SOL    HW2 2793  14.363   8.894  12.670
33652SOL     OW 2794   0.940  14.734   9.426
33652SOL    HW1 2795   0.910  14.643   9.418
33652SOL    HW2 2796   1.034  14.726   9.445
33653SOL     OW 2797   7.836  14.289   0.827
33653SOL    HW1 2798   7.762  14.232   0.846
33653SOL    HW2 2799   7.913  14.239   0.854
33654SOL     OW 2800   1.028   2.606   8.341
33654SOL    HW1 2801   0.976   2.534   8.304
33654SOL    HW2 2802   1.096   2.623   8.276
33655SOL     OW 2803   3.165   1.441  11.904
33655SOL    HW1 2804   3.170   1.520  11.849
33655SOL    HW2 2805   3.150   1.370  11.842
33656SOL     OW 2806   9.086   6.449   4.975
33656SOL    HW1 2807   9.122   6.363   4.952
33656SOL    HW2 2808   9.024   6.468   4.905
33657SOL     OW 2809   8.191   8.548   6.971
33657SOL    HW1 2810   8.155   8.635   6.991
33657SOL    HW2 2811   8.118   8.488   6.985
33658SOL     OW 2812  13.284   2.233  12.753
33658SOL    HW1 2813  13.208   2.193  12.710
33658SOL    HW2 2814  13.354   2.228  12.689
33659SOL     OW 2815   8.941   5.949   2.160
33659SOL    HW1 2816   8.848   5.963   2.175
33659SOL    HW2 2817   8.945   5.876   2.098
33660SOL     OW 2818   8.893   7.214   1.910
33660SOL    HW1 2819   8.883   7.138   1.967
33660SOL    HW2 2820   8.962   7.189   1.848
33661SOL     OW 2821   2.882   9.969   9.747
33661SOL    HW1 2822   2.855   9.905   9.680
33661SOL    HW2 2823   2.978   9.965   9.745
33662SOL     OW 2824  10.800   9.929  11.574
33662SOL    HW1 2825  10.867   9.874  11.534
33662SOL    HW2 2826  10.781   9.995  11.507
33663SOL     OW 2827   2.621  11.763   0.886
33663SOL    HW1 2828   2.661  11.844   0.918
33663SOL    HW2 2829   2.690  11.698   0.896
33664SOL     OW 2830  12.026  14.067   0.028
33664SOL    HW1 2831  11.951  14.042   0.082
33664SOL    HW2 2832  12.102  14.031   0.073
33665SOL     OW 2833   8.167   9.586   8.333
33665SOL    HW1 2834   8.095   9.616   8.388
33665SOL    HW2 2835   8.131   9.582   8.245
33666SOL     OW 2836   1.465  14.113   6.997
33666SOL    HW1 2837   1.488  14.066   6.916
33666SOL    HW2 2838   1.489  14.053   7.067
33667SOL     OW 2839  13.142   3.221   7.796
33667SOL    HW1 2840  13.063   3.225   7.850
33667SOL    HW2 2841  13.126   3.284   7.725
33668SOL     OW 2842   1.062   1.128   3.013
33668SOL    HW1 2843   1.028   1.097   2.929
33668SOL    HW2 2844   1.074   1.048   3.065
33669SOL     OW 2845  11.937   0.968  13.756
33669SOL    HW1 2846  11.929   0.881  13.716
33669SOL    HW2 2847  11.894   0.959  13.842
33670SOL     OW 2848   2.842  10.002   1.720
33670SOL    HW1 2849   2.830   9.929   1.659
33670SOL    HW2 2850   2.763  10.055   1.709
33671SOL     OW 2851   1.004   0.789   6.216
33671SOL    HW1 2852   0.951   0.861   6.182
33671SOL    HW2 2853   1.091   0.827   6.228
33672SOL     OW 2854   0.697   0.439  13.221
33672SOL    HW1 2855   0.681   0.357  13.174
33672SOL    HW2 2856   0.744   0.412  13.300
33673SOL     OW 2857   2.651  11.146   8.739
33673SOL    HW1 2858   2.734  11.114   8.773
33673SOL    HW2 2859   2.586  11.118   8.804
33674SOL     OW 2860  10.840  10.828   4.975
33674SOL    HW1 2861  10.895  10.902   4.951
33674SOL    HW2 2862  10.862  10.760   4.911
33675SOL     OW 2863   6.082   6.191   4.370
33675SOL    HW1 2864   6.040   6.172   4.454
33675SOL    HW2 2865   6.044   6.128   4.309
33676SOL     OW 2866  13.359   4.089   7.666
33676SOL    HW1 2867  13.267   4.068   7.651
33676SOL    HW2 2868  13.359   4.146   7.744
33677SOL     OW 2869  10.398   9.941  12.998
33677SOL    HW1 2870  10.379  10.029  12.964
33677SOL    HW2 2871  10.494   9.935  12.996
33678SOL     OW 2872  10.303  14.829  13.513
33678SOL    HW1 2873  10.266  14.779  13.586
33678SOL    HW2 2874  10.229   0.005  13.481
33679SOL     OW 2875   2.630   7.399  11.630
33679SOL    HW1 2876   2.714   7.382  11.673
33679SOL    HW2 2877   2.631   7.493  11.612
33680SOL     OW 2878  11.036  12.149  12.284
33680SOL    HW1 2879  11.054  12.160  12.378
33680SOL    HW2 2880  11.111  12.098  12.252
33681SOL     OW 2881  12.408  14.601  12.682
33681SOL    HW1 2882  12.382  14.676  12.736
33681SOL    HW2 2883  12.501  14.590  12.700
33682SOL     OW 2884   6.665   2.896   3.458
33682SOL    HW1 2885   6.683   2.931   3.545
33682SOL    HW2 2886   6.737   2.929   3.404
33683SOL     OW 2887  10.760  11.150  12.443
33683SOL    HW1 2888  10.827  11.173  12.379
33683SOL    HW2 2889  10.697  11.222  12.439
33684SOL     OW 2890   8.332   9.630  12.882
33684SOL    HW1 2891   8.387   9.683  12.940
33684SOL    HW2 2892   8.284   9.572  12.941
33685SOL     OW 2893   8.749  11.839   0.271
33685SOL    HW1 2894   8.793  11.765   0.313
33685SOL    HW2 2895   8.750  11.818   0.178
33686SOL     OW 2896  12.009   6.083   4.427
33686SOL    HW1 2897  11.973   5.994   4.427
33686SOL    HW2 2898  12.103   6.070   4.440
33687SOL     OW 2899   6.824  13.189  12.689
33687SOL    HW1 2900   6.794  13.247  12.619
33687SOL    HW2 2901   6.745  13.170  12.739
33688SOL     OW 2902   9.117  13.276   9.740
33688SOL    HW1 2903   9.108  13.182   9.756
33688SOL    HW2 2904   9.208  13.295   9.760
33689SOL     OW 2905  10.871  14.146  10.591
33689SOL    HW1 2906  10.875  14.145  10.495
33689SOL    HW2 2907  10.818  14.071  10.614
33690SOL     OW 2908  11.441   0.690  12.322
33690SOL    HW1 2909  11.481   0.683  12.236
33690SOL    HW2 2910  11.378   0.619  12.326
33691SOL     OW 2911   5.744   2.982  11.919
33691SOL    HW1 2912   5.663   2.949  11.959
33691SOL    HW2 2913   5.780   3.042  11.985
33692SOL     OW 2914   8.442  14.752  12.699
33692SOL    HW1 2915   8.481  14.770  12.613
33692SOL    HW2 2916   8.425  14.658  12.699
33693SOL     OW 2917   3.207  13.014  13.165
33693SOL    HW1 2918   3.227  13.093  13.214
33693SOL    HW2 2919   3.258  12.945  13.208
33694SOL     OW 2920   0.597  11.711   0.692
33694SOL    HW1 2921   0.530  11.778   0.706
33694SOL    HW2 2922   0.676  11.760   0.670
33695SOL     OW 2923   0.867  14.545  10.736
33695SOL    HW1 2924   0.917  14.528  10.656
33695SOL    HW2 2925   0.921  14.510  10.807
33696SOL     OW 2926   5.035   0.292   7.993
33696SOL    HW1 2927   4.948   0.318   8.023
33696SOL    HW2 2928   5.072   0.243   8.066
33697SOL     OW 2929  10.053   1.149   4.246
33697SOL    HW1 2930  10.148   1.160   4.245
33697SOL    HW2 2931  10.032   1.114   4.159
33698SOL     OW 2932   9.688   9.948   3.439
33698SOL    HW1 2933   9.718   9.939   3.349
33698SOL    HW2 2934   9.659  10.039   3.445
33699SOL     OW 2935   5.829  13.517   8.252
33699SOL    HW1 2936   5.815  13.505   8.159
33699SOL    HW2 2937   5.856  13.609   8.260
33700SOL     OW 2938   2.088   1.252   7.457
33700SOL    HW1 2939   2.110   1.166   7.422
33700SOL    HW2 2940   2.026   1.289   7.394
33701SOL     OW 2941  13.944   4.761   2.151
33701SOL    HW1 2942  13.873   4.697   2.139
33701SOL    HW2 2943  13.916   4.814   2.226
33702SOL     OW 2944  11.229  13.765  14.320
33702SOL    HW1 2945  11.279  13.723  14.389
33702SOL    HW2 2946  11.295  13.790  14.255
33703SOL     OW 2947   6.766   5.684   6.460
33703SOL    HW1 2948   6.731   5.603   6.422
33703SOL    HW2 2949   6.818   5.723   6.390
33704SOL     OW 2950   0.975   2.062   7.783
33704SOL    HW1 2951   0.980   2.106   7.698
33704SOL    HW2 2952   0.913   2.115   7.833
33705SOL     OW 2953   1.537   4.635   5.168
33705SOL    HW1 2954   1.515   4.724   5.196
33705SOL    HW2 2955   1.577   4.595   5.244
33706SOL     OW 2956  11.018   9.916   0.044
33706SOL    HW1 2957  10.986   9.829   0.070
33706SOL    HW2 2958  11.106   9.900   0.009
33707SOL     OW 2959   4.954   9.405   8.317
33707SOL    HW1 2960   5.041   9.367   8.327
33707SOL    HW2 2961   4.895   9.339   8.354
33708SOL     OW 2962   4.822  10.678   6.170
33708SOL    HW1 2963   4.761  10.629   6.225
33708SOL    HW2 2964   4.892  10.704   6.229
33709SOL     OW 2965  11.287   5.150   7.425
33709SOL    HW1 2966  11.205   5.103   7.444
33709SOL    HW2 2967  11.284   5.227   7.482
33710SOL     OW 2968   4.480   1.954   8.272
33710SOL    HW1 2969   4.461   2.048   8.262
33710SOL    HW2 2970   4.395   1.911   8.262
33711SOL     OW 2971  10.089  10.021   8.931
33711SOL    HW1 2972  10.121  10.063   9.010
33711SOL    HW2 2973   9.994  10.030   8.937
33712SOL     OW 2974   0.343   5.209   2.097
33712SOL    HW1 2975   0.396   5.132   2.076
33712SOL    HW2 2976   0.406   5.281   2.103
33713SOL     OW 2977   9.236   9.705   9.794
33713SOL    HW1 2978   9.296   9.778   9.811
33713SOL    HW2 2979   9.234   9.657   9.877
33714SOL     OW 2980   3.358   0.256   3.933
33714SOL    HW1 2981   3.356   0.338   3.884
33714SOL    HW2 2982   3.450   0.229   3.930
33715SOL     OW 2983   8.200   2.928   6.858
33715SOL    HW1 2984   8.122   2.905   6.808
33715SOL    HW2 2985   8.272   2.919   6.795
33716SOL     OW 2986   6.402   3.585  14.684
33716SOL    HW1 2987   6.313   3.605  14.711
33716SOL    HW2 2988   6.393   3.517  14.618
33717SOL     OW 2989   4.597   7.617   7.984
33717SOL    HW1 2990   4.687   7.649   7.983
33717SOL    HW2 2991   4.604   7.526   8.010
33718SOL     OW 2992  12.066  11.966   7.423
33718SOL    HW1 2993  12.013  11.891   7.451
33718SOL    HW2 2994  12.143  11.927   7.383
33719SOL     OW 2995   3.862  11.402   6.766
33719SOL    HW1 2996   3.954  11.424   6.779
33719SOL    HW2 2997   3.858  11.307   6.773
33720SOL     OW 2998   9.585   9.322  13.571
33720SOL    HW1 2999   9.664   9.343  13.522
33720SOL    HW2 3000   9.546   9.407  13.591
33721SOL     OW 3001   9.118  11.143   9.053
33721SOL    HW1 3002   9.145  11.193   8.976
33721SOL    HW2 3003   9.166  11.182   9.126
33722SOL     OW 3004   5.909  12.967   0.048
33722SOL    HW1 3005   5.914  12.872   0.041
33722SOL    HW2 3006   5.823  12.984   0.088
33723SOL     OW 3007   1.264   4.527  11.475
33723SOL    HW1 3008   1.246   4.565  11.389
33723SOL    HW2 3009   1.208   4.449  11.478
33724SOL     OW 3010   3.134  14.389   7.530
33724SOL    HW1 3011   3.053  14.341   7.547
33724SOL    HW2 3012   3.177  14.396   7.615
33725SOL     OW 3013   8.385  13.535   1.728
33725SOL    HW1 3014   8.338  13.515   1.808
33725SOL    HW2 3015   8.477  13.530   1.752
33726SOL     OW 3016  13.693   5.728   6.318
33726SOL    HW1 3017  13.731   5.815   6.326
33726SOL    HW2 3018  13.760   5.669   6.353
33727SOL     OW 3019   5.694   0.960   3.083
33727SOL    HW1 3020   5.675   0.901   3.010
33727SOL    HW2 3021   5.740   1.034   3.044
33728SOL     OW 3022   3.272   0.757   9.000
33728SOL    HW1 3023   3.352   0.756   8.947
33728SOL    HW2 3024   3.246   0.665   9.006
33729SOL     OW 3025  12.131   8.168   2.548
33729SOL    HW1 3026  12.062   8.235   2.552
33729SOL    HW2 3027  12.115   8.113   2.625
33730SOL     OW 3028   2.908   6.590   9.286
33730SOL    HW1 3029   2.974   6.570   9.352
33730SOL    HW2 3030   2.958   6.604   9.205
33731SOL     OW 3031   5.683   4.313   9.999
33731SOL    HW1 3032   5.605   4.363  10.021
33731SOL    HW2 3033   5.679   4.236  10.055
33732SOL     OW 3034  12.555   0.967  10.960
33732SOL    HW1 3035  12.476   0.916  10.980
33732SOL    HW2 3036  12.546   1.046  11.013
33733SOL     OW 3037   4.509   0.281  11.793
33733SOL    HW1 3038   4.439   0.266  11.856
33733SOL    HW2 3039   4.468   0.262  11.708
33734SOL     OW 3040   5.802  13.933   5.239
33734SOL    HW1 3041   5.730  13.995   5.251
33734SOL    HW2 3042   5.794  13.904   5.148
33735SOL     OW 3043  14.054   2.922  14.255
33735SOL    HW1 3044  13.984   2.884  14.308
33735SOL    HW2 3045  14.021   2.917  14.165
33736SOL     OW 3046   1.062   7.029   9.369
33736SOL    HW1 3047   1.122   6.956   9.355
33736SOL    HW2 3048   1.100   7.102   9.321
33737SOL     OW 3049   5.723  12.683  13.015
33737SOL    HW1 3050   5.635  12.710  12.991
33737SOL    HW2 3051   5.719  12.671  13.110
33738SOL     OW 3052   3.913   0.999   1.355
33738SOL    HW1 3053   3.963   1.034   1.429
33738SOL    HW2 3054   3.898   0.907   1.378
33739SOL     OW 3055   4.658   9.945  11.673
33739SOL    HW1 3056   4.707   9.888  11.733
33739SOL    HW2 3057   4.674  10.033  11.706
33740SOL     OW 3058  11.613  13.230  14.742
33740SOL    HW1 3059  11.574  13.296  14.685
33740SOL    HW2 3060  11.567  13.149  14.721
33741SOL     OW 3061   5.923  11.206   4.802
33741SOL    HW1 3062   5.958  11.194   4.713
33741SOL    HW2 3063   5.951  11.128   4.849
33742SOL     OW 3064   0.578   8.143  10.739
33742SOL    HW1 3065   0.605   8.217  10.794
33742SOL    HW2 3066   0.570   8.181  10.651
33743SOL     OW 3067   6.378   4.687   7.197
33743SOL    HW1 3068   6.412   4.653   7.115
33743SOL    HW2 3069   6.456   4.708   7.249
33744SOL     OW 3070   4.735  11.837   9.870
33744SOL    HW1 3071   4.694  11.800   9.948
33744SOL    HW2 3072   4.668  11.894   9.832
33745SOL     OW 3073  10.543  10.055  10.728
33745SOL    HW1 3074  10.610  10.063  10.796
33745SOL    HW2 3075  10.466  10.022  10.773
33746SOL     OW 3076   2.409  13.954   5.179
33746SOL    HW1 3077   2.456  13.988   5.254
33746SOL    HW2 3078   2.476  13.937   5.113
33747SOL     OW 3079   2.769   5.478   2.912
33747SOL    HW1 3080   2.761   5.387   2.884
33747SOL    HW2 3081   2.846   5.511   2.866
33748SOL     OW 3082   0.589  14.162   5.527
33748SOL    HW1 3083   0.583  14.067   5.534
33748SOL    HW2 3084   0.664  14.177   5.471
33749SOL     OW 3085   7.715   5.647   5.257
33749SOL    HW1 3086   7.651   5.687   5.196
33749SOL    HW2 3087   7.760   5.582   5.204
33750SOL     OW 3088  10.380   8.154  14.186
33750SOL    HW1 3089  10.383   8.183  14.095
33750SOL    HW2 3090  10.362   8.060  14.181
33751SOL     OW 3091  12.318  14.237   1.063
33751SOL    HW1 3092  12.363  14.281   0.992
33751SOL    HW2 3093  12.247  14.296   1.087
33752SOL     OW 3094   2.403   5.211  12.156
33752SOL    HW1 3095   2.494   5.219  12.184
33752SOL    HW2 3096   2.405   5.145  12.086
33753SOL     OW 3097   4.205   8.944  11.096
33753SOL    HW1 3098   4.202   9.008  11.024
33753SOL    HW2 3099   4.280   8.889  11.076
33754SOL     OW 3100   4.546  10.007   9.179
33754SOL    HW1 3101   4.498   9.925   9.170
33754SOL    HW2 3102   4.552  10.022   9.273
33755SOL     OW 3103  10.233   9.917   1.792
33755SOL    HW1 3104  10.159   9.858   1.781
33755SOL    HW2 3105  10.272   9.891   1.876
33756SOL     OW 3106   4.624   7.734  11.757
33756SOL    HW1 3107   4.579   7.817  11.743
33756SOL    HW2 3108   4.677   7.722  11.677
33757SOL     OW 3109   7.385  12.397  14.345
33757SOL    HW1 3110   7.290  12.399  14.357
33757SOL    HW2 3111   7.415  12.482  14.377
33758SOL     OW 3112   3.706  13.568  10.127
33758SOL    HW1 3113   3.747  13.579  10.041
33758SOL    HW2 3114   3.688  13.657  10.156
33759SOL     OW 3115   0.800   2.371   5.811
33759SOL    HW1 3116   0.780   2.403   5.723
33759SOL    HW2 3117   0.740   2.419   5.868
33760SOL     OW 3118  11.919  11.996   3.458
33760SOL    HW1 3119  11.998  11.950   3.486
33760SOL    HW2 3120  11.939  12.089   3.472
33761SOL     OW 3121   5.033   9.287   0.640
33761SOL    HW1 3122   4.953   9.238   0.662
33761SOL    HW2 3123   5.084   9.286   0.721
33762SOL     OW 3124   3.720   4.041  11.913
33762SOL    HW1 3125   3.740   4.027  11.820
33762SOL    HW2 3126   3.714   4.136  11.923
33763SOL     OW 3127   5.840  14.159   3.339
33763SOL    HW1 3128   5.831  14.164   3.434
33763SOL    HW2 3129   5.925  14.200   3.321
33764SOL     OW 3130   4.563   7.429   2.657
33764SOL    HW1 3131   4.585   7.458   2.746
33764SOL    HW2 3132   4.646   7.428   2.611
33765SOL     OW 3133  10.890   3.198  10.671
33765SOL    HW1 3134  10.845   3.245  10.600
33765SOL    HW2 3135  10.837   3.121  10.686
33766SOL     OW 3136  10.920   3.404  11.712
33766SOL    HW1 3137  10.979   3.453  11.655
33766SOL    HW2 3138  10.978   3.370  11.781
33767SOL     OW 3139  10.083  10.253   4.313
33767SOL    HW1 3140  10.022  10.305   4.261
33767SOL    HW2 3141  10.036  10.172   4.332
33768SOL     OW 3142   5.523   2.796   0.703
33768SOL    HW1 3143   5.458   2.779   0.771
33768SOL    HW2 3144   5.477   2.777   0.621
33769SOL     OW 3145   8.999   3.464   9.086
33769SOL    HW1 3146   8.953   3.530   9.034
33769SOL    HW2 3147   8.985   3.382   9.039
33770SOL     OW 3148  14.744   9.895   2.303
33770SOL    HW1 3149  14.815   9.888   2.367
33770SOL    HW2 3150  14.781   9.948   2.232
33771SOL     OW 3151  10.327   6.403   9.258
33771SOL    HW1 3152  10.323   6.308   9.244
33771SOL    HW2 3153  10.377   6.412   9.339
33772SOL     OW 3154   5.595   6.701  13.048
33772SOL    HW1 3155   5.557   6.662  12.970
33772SOL    HW2 3156   5.665   6.758  13.015
33773SOL     OW 3157   4.207   8.509   1.942
33773SOL    HW1 3158   4.148   8.437   1.962
33773SOL    HW2 3159   4.286   8.467   1.910
33774SOL     OW 3160  13.829   0.503   1.092
33774SOL    HW1 3161  13.751   0.485   1.040
33774SOL    HW2 3162  13.814   0.457   1.175
33775SOL     OW 3163  11.672   1.497   0.200
33775SOL    HW1 3164  11.681   1.403   0.215
33775SOL    HW2 3165  11.609   1.504   0.129
33776SOL     OW 3166   2.655   3.011   5.608
33776SOL    HW1 3167   2.593   3.083   5.597
33776SOL    HW2 3168   2.635   2.975   5.695
33777SOL     OW 3169   5.516   0.103  10.608
33777SOL    HW1 3170   5.556   0.079  10.691
33777SOL    HW2 3171   5.568   0.177  10.577
33778SOL     OW 3172   7.592   7.147   0.766
33778SOL    HW1 3173   7.633   7.100   0.693
33778SOL    HW2 3174   7.629   7.235   0.762
33779SOL     OW 3175   9.713   5.324   6.347
33779SOL    HW1 3176   9.680   5.330   6.437
33779SOL    HW2 3177   9.642   5.281   6.299
33780SOL     OW 3178   4.018  12.050   4.498
33780SOL    HW1 3179   4.050  12.139   4.510
33780SOL    HW2 3180   4.093  12.001   4.465
33781SOL     OW 3181   3.051   6.357   3.550
33781SOL    HW1 3182   2.969   6.380   3.595
33781SOL    HW2 3183   3.024   6.300   3.478
33782SOL     OW 3184  10.007   6.712   5.046
33782SOL    HW1 3185   9.934   6.773   5.033
33782SOL    HW2 3186   9.968   6.638   5.092
33783SOL     OW 3187   7.051  12.833   7.460
33783SOL    HW1 3188   7.033  12.820   7.366
33783SOL    HW2 3189   7.147  12.834   7.466
33784SOL     OW 3190  12.882   7.395   7.591
33784SOL    HW1 3191  12.956   7.350   7.550
33784SOL    HW2 3192  12.882   7.363   7.681
33785SOL     OW 3193  14.169   5.521   6.331
33785SOL    HW1 3194  14.117   5.573   6.269
33785SOL    HW2 3195  14.248   5.500   6.282
33786SOL     OW 3196  12.357   0.757   2.903
33786SOL    HW1 3197  12.375   0.848   2.927
33786SOL    HW2 3198  12.373   0.708   2.984
33787SOL     OW 3199   6.661  10.363   2.016
33787SOL    HW1 3200   6.686  10.280   2.056
33787SOL    HW2 3201   6.610  10.339   1.939
33788SOL     OW 3202  10.366   6.496   1.210
33788SOL    HW1 3203  10.353   6.404   1.233
33788SOL    HW2 3204  10.454   6.516   1.241
33789SOL     OW 3205  11.313   5.235  12.188
33789SOL    HW1 3206  11.398   5.265  12.156
33789SOL    HW2 3207  11.318   5.139  12.184
33790SOL     OW 3208   8.821  13.214  13.350
33790SOL    HW1 3209   8.733  13.225  13.312
33790SOL    HW2 3210   8.814  13.134  13.403
33791SOL     OW 3211  11.216   5.375  14.617
33791SOL    HW1 3212  11.137   5.425  14.636
33791SOL    HW2 3213  11.278   5.439  14.582
33792SOL     OW 3214   5.302  13.723   2.229
33792SOL    HW1 3215   5.353  13.753   2.304
33792SOL    HW2 3216   5.361  13.665   2.181
33793SOL     OW 3217   5.179   1.891  11.354
33793SOL    HW1 3218   5.130   1.814  11.385
33793SOL    HW2 3219   5.165   1.956  11.423
33794SOL     OW 3220   5.101   7.988  13.158
33794SOL    HW1 3221   5.141   8.009  13.074
33794SOL    HW2 3222   5.011   8.019  13.150
33795SOL     OW 3223   1.408   6.897  14.162
33795SOL    HW1 3224   1.412   6.964  14.094
33795SOL    HW2 3225   1.497   6.860  14.163
33796SOL     OW 3226   1.337  13.911   0.596
33796SOL    HW1 3227   1.262  13.866   0.559
33796SOL    HW2 3228   1.303  13.995   0.627
33797SOL     OW 3229   4.544   4.634   4.419
33797SOL    HW1 3230   4.571   4.723   4.443
33797SOL    HW2 3231   4.619   4.598   4.371
33798SOL     OW 3232  11.031  13.274  14.750
33798SOL    HW1 3233  11.029  13.200  14.811
33798SOL    HW2 3234  10.991  13.240  14.670
33799SOL     OW 3235   8.717  12.586   1.874
33799SOL    HW1 3236   8.702  12.555   1.785
33799SOL    HW2 3237   8.696  12.679   1.870
33800SOL     OW 3238   6.627   7.898   8.221
33800SOL    HW1 3239   6.625   7.911   8.127
33800SOL    HW2 3240   6.554   7.840   8.240
33801SOL     OW 3241  13.486   0.901  10.717
33801SOL    HW1 3242  13.473   0.830  10.654
33801SOL    HW2 3243  13.559   0.872  10.771
33802SOL     OW 3244  11.147   0.491  10.705
33802SOL    HW1 3245  11.188   0.430  10.766
33802SOL    HW2 3246  11.132   0.570  10.756
33803SOL     OW 3247   1.791   7.585   8.507
33803SOL    HW1 3248   1.817   7.677   8.499
33803SOL    HW2 3249   1.706   7.588   8.552
33804SOL     OW 3250   0.699   7.422   5.809
33804SOL    HW1 3251   0.779   7.474   5.818
33804SOL    HW2 3252   0.664   7.417   5.898
33805SOL     OW 3253  12.857   2.988   7.198
33805SOL    HW1 3254  12.894   3.057   7.144
33805SOL    HW2 3255  12.904   2.909   7.172
33806SOL     OW 3256   7.480  12.416   9.810
33806SOL    HW1 3257   7.535  12.415   9.889
33806SOL    HW2 3258   7.420  12.342   9.823
33807SOL     OW 3259  13.082  12.688   2.693
33807SOL    HW1 3260  13.096  12.780   2.670
33807SOL    HW2 3261  12.987  12.678   2.694
33808SOL     OW 3262  14.330   1.066   6.792
33808SOL    HW1 3263  14.388   1.134   6.758
33808SOL    HW2 3264  14.318   1.090   6.884
33809SOL     OW 3265   2.917   4.665   3.261
33809SOL    HW1 3266   2.840   4.662   3.205
33809SOL    HW2 3267   2.884   4.647   3.349
33810SOL     OW 3268  14.436   4.911  10.542
33810SOL    HW1 3269  14.383   4.898  10.463
33810SOL    HW2 3270  14.372   4.934  10.610
33811SOL     OW 3271   2.832  10.233   9.596
33811SOL    HW1 3272   2.825  10.151   9.645
33811SOL    HW2 3273   2.923  10.235   9.566
33812SOL     OW 3274   8.963   1.001   8.853
33812SOL    HW1 3275   8.975   1.023   8.760
33812SOL    HW2 3276   8.876   0.963   8.858
33813SOL     OW 3277  12.145   1.897   9.529
33813SOL    HW1 3278  12.166   1.985   9.561
33813SOL    HW2 3279  12.221   1.844   9.554
33814SOL     OW 3280   3.253  13.173  10.161
33814SOL    HW1 3281   3.266  13.249  10.217
33814SOL    HW2 3282   3.206  13.206  10.085
33815SOL     OW 3283  12.259   2.183   4.949
33815SOL    HW1 3284  12.268   2.115   4.882
33815SOL    HW2 3285  12.219   2.139   5.024
33816SOL     OW 3286  13.151   3.911  11.733
33816SOL    HW1 3287  13.211   3.836  11.735
33816SOL    HW2 3288  13.184   3.966  11.663
33817SOL     OW 3289   1.538  11.569  11.517
33817SOL    HW1 3290   1.445  11.586  11.532
33817SOL    HW2 3291   1.566  11.517  11.592
33818SOL     OW 3292   9.980  14.421   1.955
33818SOL    HW1 3293  10.026  14.482   1.898
33818SOL    HW2 3294  10.043  14.401   2.024
33819SOL     OW 3295  14.307   9.770   2.376
33819SOL    HW1 3296  14.230   9.826   2.376
33819SOL    HW2 3297  14.376   9.824   2.336
33820SOL     OW 3298   9.272   9.043   2.197
33820SOL    HW1 3299   9.269   9.021   2.291
33820SOL    HW2 3300   9.363   9.067   2.182
33821SOL     OW 3301   3.124  13.318  10.401
33821SOL    HW1 3302   3.176  13.316  10.481
33821SOL    HW2 3303   3.035  13.337  10.431
33822SOL     OW 3304   2.948   7.998   3.894
33822SOL    HW1 3305   2.878   7.936   3.911
33822SOL    HW2 3306   3.028   7.950   3.915
33823SOL     OW 3307   4.540  11.798   2.840
33823SOL    HW1 3308   4.611  11.735   2.835
33823SOL    HW2 3309   4.577  11.872   2.889
33824SOL     OW 3310   4.101   0.841  13.534
33824SOL    HW1 3311   4.148   0.780  13.478
33824SOL    HW2 3312   4.169   0.884  13.586
33825SOL     OW 3313  10.703   6.208   0.410
33825SOL    HW1 3314  10.631   6.149   0.434
33825SOL    HW2 3315  10.752   6.220   0.491
33826SOL     OW 3316   4.431  14.418   4.388
33826SOL    HW1 3317   4.343  14.384   4.372
33826SOL    HW2 3318   4.439  14.418   4.484
33827SOL     OW 3319   2.041  10.779  10.583
33827SOL    HW1 3320   2.071  10.692  10.557
33827SOL    HW2 3321   2.084  10.839  10.521
33828SOL     OW 3322  12.214   1.958   0.953
33828SOL    HW1 3323  12.299   1.983   0.988
33828SOL    HW2 3324  12.177   1.900   1.020
33829SOL     OW 3325  11.918   9.485  14.773
33829SOL    HW1 3326  11.937   9.510  14.682
33829SOL    HW2 3327  11.909   9.569  14.819
33830SOL     OW 3328   2.980   3.272  14.724
33830SOL    HW1 3329   2.939   3.252  14.808
33830SOL    HW2 3330   2.963   3.365  14.710
33831SOL     OW 3331   0.610   8.442   7.468
33831SOL    HW1 3332   0.542   8.509   7.482
33831SOL    HW2 3333   0.685   8.491   7.436
33832SOL     OW 3334  10.547   6.795  13.727
33832SOL    HW1 3335  10.507   6.744  13.798
33832SOL    HW2 3336  10.618   6.740  13.695
33833SOL     OW 3337   5.763   4.278  12.136
33833SOL    HW1 3338   5.775   4.349  12.198
33833SOL    HW2 3339   5.718   4.318  12.062
33834SOL     OW 3340   7.514   3.232   9.615
33834SOL    HW1 3341   7.475   3.223   9.702
33834SOL    HW2 3342   7.474   3.312   9.580
33835SOL     OW 3343   9.419   1.279  14.798
33835SOL    HW1 3344   9.407   1.368  14.763
33835SOL    HW2 3345   9.450   1.229  14.723
33836SOL     OW 3346  13.278   2.392   4.138
33836SOL    HW1 3347  13.265   2.394   4.233
33836SOL    HW2 3348  13.271   2.483   4.111
33837SOL     OW 3349   2.387  11.476   3.773
33837SOL    HW1 3350   2.369  11.527   3.694
33837SOL    HW2 3351   2.462  11.421   3.750
33838SOL     OW 3352  10.491   1.014  10.572
33838SOL    HW1 3353  10.559   1.077  10.547
33838SOL    HW2 3354  10.525   0.929  10.545
33839SOL     OW 3355  13.989   2.676  11.932
33839SOL    HW1 3356  13.957   2.705  11.847
33839SOL    HW2 3357  13.912   2.636  11.974
33840SOL     OW 3358   6.925   7.759   1.228
33840SOL    HW1 3359   7.008   7.731   1.187
33840SOL    HW2 3360   6.915   7.702   1.304
33841SOL     OW 3361   1.083  10.850   0.681
33841SOL    HW1 3362   1.149  10.868   0.613
33841SOL    HW2 3363   0.999  10.857   0.635
33842SOL     OW 3364   5.556  12.940   3.119
33842SOL    HW1 3365   5.578  12.876   3.187
33842SOL    HW2 3366   5.462  12.930   3.107
33843SOL     OW 3367  10.422   6.170   8.053
33843SOL    HW1 3368  10.437   6.161   8.147
33843SOL    HW2 3369  10.362   6.245   8.045
33844SOL     OW 3370   9.562   0.344  12.866
33844SOL    HW1 3371   9.646   0.302  12.847
33844SOL    HW2 3372   9.582   0.438  12.868
33845SOL     OW 3373   0.652  14.009  12.726
33845SOL    HW1 3374   0.625  13.929  12.770
33845SOL    HW2 3375   0.746  14.016  12.742
33846SOL     OW 3376   9.526   9.713   1.020
33846SOL    HW1 3377   9.537   9.707   0.925
33846SOL    HW2 3378   9.515   9.807   1.037
33847SOL     OW 3379  13.825   4.060   5.569
33847SOL    HW1 3380  13.840   4.085   5.478
33847SOL    HW2 3381  13.911   4.033   5.601
33848SOL     OW 3382   0.545   0.628  11.866
33848SOL    HW1 3383   0.586   0.675  11.793
33848SOL    HW2 3384   0.451   0.640  11.852
33849SOL     OW 3385   4.716   9.023   2.845
33849SOL    HW1 3386   4.685   9.114   2.837
33849SOL    HW2 3387   4.803   9.024   2.806
33850SOL     OW 3388   8.577   8.034   1.552
33850SOL    HW1 3389   8.618   8.120   1.555
33850SOL    HW2 3390   8.487   8.049   1.581
33851SOL     OW 3391  12.995   5.682   1.053
33851SOL    HW1 3392  13.009   5.765   1.008
33851SOL    HW2 3393  12.997   5.704   1.146
33852SOL     OW 3394   8.502   0.883  11.558
33852SOL    HW1 3395   8.474   0.796  11.529
33852SOL    HW2 3396   8.499   0.879  11.654
33853SOL     OW 3397  11.507   3.336   9.819
33853SOL    HW1 3398  11.513   3.241   9.811
33853SOL    HW2 3399  11.414   3.353   9.834
33854SOL     OW 3400  10.160   0.559   2.412
33854SOL    HW1 3401  10.125   0.648   2.422
33854SOL    HW2 3402  10.213   0.546   2.491
33855SOL     OW 3403   8.754  13.497   2.587
33855SOL    HW1 3404   8.716  13.535   2.666
33855SOL    HW2 3405   8.782  13.572   2.534
33856SOL     OW 3406  11.061   5.289   1.909
33856SOL    HW1 3407  10.987   5.239   1.946
33856SOL    HW2 3408  11.095   5.233   1.839
33857SOL     OW 3409  13.677   2.672  11.832
33857SOL    HW1 3410  13.687   2.706  11.921
33857SOL    HW2 3411  13.625   2.738  11.787
33858SOL     OW 3412   7.779   3.203  10.218
33858SOL    HW1 3413   7.797   3.196  10.124
33858SOL    HW2 3414   7.795   3.116  10.252
33859SOL     OW 3415   2.213   3.946  12.749
33859SOL    HW1 3416   2.167   3.909  12.673
33859SOL    HW2 3417   2.287   3.887  12.764
33860SOL     OW 3418   7.216   4.015   5.188
33860SOL    HW1 3419   7.154   4.013   5.116
33860SOL    HW2 3420   7.243   4.107   5.194
33861SOL     OW 3421   1.829  13.340   0.998
33861SOL    HW1 3422   1.819  13.364   0.905
33861SOL    HW2 3423   1.877  13.414   1.036
33862SOL     OW 3424   9.548   4.072   6.151
33862SOL    HW1 3425   9.605   4.136   6.194
33862SOL    HW2 3426   9.468   4.072   6.205
33863SOL     OW 3427   7.228  10.330  11.008
33863SOL    HW1 3428   7.178  10.251  11.027
33863SOL    HW2 3429   7.178  10.401  11.049
33864SOL     OW 3430  12.105   8.317   8.942
33864SOL    HW1 3431  12.168   8.290   9.009
33864SOL    HW2 3432  12.069   8.236   8.908
33865SOL     OW 3433  10.959   3.143  11.509
33865SOL    HW1 3434  10.944   3.231  11.475
33865SOL    HW2 3435  11.049   3.123  11.485
33866SOL     OW 3436   3.303   3.214   7.418
33866SOL    HW1 3437   3.388   3.256   7.430
33866SOL    HW2 3438   3.298   3.151   7.490
33867SOL     OW 3439   3.972   9.969   4.922
33867SOL    HW1 3440   3.986   9.876   4.937
33867SOL    HW2 3441   3.880   9.983   4.945
33868SOL     OW 3442  14.146  14.396  11.627
33868SOL    HW1 3443  14.116  14.449  11.701
33868SOL    HW2 3444  14.086  14.418  11.556
33869SOL     OW 3445   0.843   0.980  11.986
33869SOL    HW1 3446   0.924   1.026  11.968
33869SOL    HW2 3447   0.865   0.887  11.976
33870SOL     OW 3448  11.147   5.282   1.360
33870SOL    HW1 3449  11.144   5.295   1.265
33870SOL    HW2 3450  11.175   5.367   1.394
33871SOL     OW 3451  12.602  11.084   7.363
33871SOL    HW1 3452  12.622  11.048   7.449
33871SOL    HW2 3453  12.572  11.173   7.380
33872SOL     OW 3454   1.994   1.062   4.261
33872SOL    HW1 3455   1.907   1.061   4.221
33872SOL    HW2 3456   2.000   1.147   4.305
33873SOL     OW 3457  11.811   0.398   5.640
33873SOL    HW1 3458  11.792   0.335   5.570
33873SOL    HW2 3459  11.732   0.400   5.693
33874SOL     OW 3460   3.145   7.180  14.452
33874SOL    HW1 3461   3.204   7.247  14.418
33874SOL    HW2 3462   3.138   7.199  14.545
33875SOL     OW 3463   6.564   2.177   8.358
33875SOL    HW1 3464   6.532   2.088   8.342
33875SOL    HW2 3465   6.651   2.164   8.395
33876SOL     OW 3466   7.382   3.730  10.104
33876SOL    HW1 3467   7.391   3.773  10.018
33876SOL    HW2 3468   7.430   3.788  10.164
33877SOL     OW 3469   0.661   8.139   3.489
33877SOL    HW1 3470   0.738   8.094   3.522
33877SOL    HW2 3471   0.588   8.102   3.539
33878SOL     OW 3472  14.389  10.558  14.014
33878SOL    HW1 3473  14.406  10.551  14.108
33878SOL    HW2 3474  14.325  10.629  14.007
33879SOL     OW 3475   4.174  14.367   8.780
33879SOL    HW1 3476   4.255  14.376   8.831
33879SOL    HW2 3477   4.130  14.451   8.790
33880SOL     OW 3478   0.647   8.609  14.094
33880SOL    HW1 3479   0.738   8.601  14.122
33880SOL    HW2 3480   0.597   8.562  14.162
33881SOL     OW 3481   9.973   2.845   7.461
33881SOL    HW1 3482  10.056   2.885   7.434
33881SOL    HW2 3483   9.994   2.752   7.470
33882SOL     OW 3484   8.891   7.922   4.046
33882SOL    HW1 3485   8.914   8.012   4.070
33882SOL    HW2 3486   8.903   7.872   4.127
33883SOL     OW 3487   2.319   8.310   2.580
33883SOL    HW1 3488   2.267   8.388   2.600
33883SOL    HW2 3489   2.410   8.339   2.586
33884SOL     OW 3490   2.636   2.711   2.453
33884SOL    HW1 3491   2.673   2.782   2.401
33884SOL    HW2 3492   2.648   2.632   2.399
33885SOL     OW 3493   9.813  10.243  13.338
33885SOL    HW1 3494   9.902  10.208  13.344
33885SOL    HW2 3495   9.826  10.334  13.310
33886SOL     OW 3496  12.032   2.168   0.883
33886SOL    HW1 3497  12.019   2.221   0.962
33886SOL    HW2 3498  12.082   2.092   0.914
33887SOL     OW 3499   6.187   0.353   4.207
33887SOL    HW1 3500   6.246   0.427   4.218
33887SOL    HW2 3501   6.120   0.384   4.146
33888SOL     OW 3502   6.345   1.373   7.035
33888SOL    HW1 3503   6.290   1.326   7.096
33888SOL    HW2 3504   6.311   1.350   6.949
33889SOL     OW 3505   8.389   9.036   1.826
33889SOL    HW1 3506   8.320   9.034   1.893
33889SOL    HW2 3507   8.346   9.072   1.749
33890SOL     OW 3508   2.042  14.764  12.716
33890SOL    HW1 3509   2.068  14.850  12.748
33890SOL    HW2 3510   1.948  14.771  12.700
33891SOL     OW 3511   6.114   4.705   0.126
33891SOL    HW1 3512   6.167   4.643   0.176
33891SOL    HW2 3513   6.032   4.712   0.176
33892SOL     OW 3514   5.685   0.180   4.954
33892SOL    HW1 3515   5.669   0.258   5.008
33892SOL    HW2 3516   5.602   0.162   4.912
33893SOL     OW 3517  12.311  10.883   0.819
33893SOL    HW1 3518  12.311  10.971   0.782
33893SOL    HW2 3519  12.404  10.857   0.819
33894SOL     OW 3520   8.214   7.575  13.721
33894SOL    HW1 3521   8.287   7.607  13.669
33894SOL    HW2 3522   8.166   7.654  13.747
33895SOL     OW 3523  13.773   4.252  14.576
33895SOL    HW1 3524  13.710   4.180  14.574
33895SOL    HW2 3525  13.796   4.260  14.669
33896SOL     OW 3526   6.063   9.214  13.051
33896SOL    HW1 3527   5.978   9.229  13.092
33896SOL    HW2 3528   6.073   9.119  13.049
33897SOL     OW 3529  14.051  12.979   6.358
33897SOL    HW1 3530  14.093  13.063   6.339
33897SOL    HW2 3531  14.011  12.992   6.444
33898SOL     OW 3532   2.256   4.715  12.168
33898SOL    HW1 3533   2.246   4.623  12.190
33898SOL    HW2 3534   2.276   4.757  12.251
33899SOL     OW 3535  11.009   1.419   4.527
33899SOL    HW1 3536  11.056   1.416   4.611
33899SOL    HW2 3537  10.922   1.385   4.548
33900SOL     OW 3538   5.899   5.357  13.971
33900SOL    HW1 3539   5.832   5.290  13.964
33900SOL    HW2 3540   5.982   5.309  13.969
33901SOL     OW 3541  13.899   2.496  14.438
33901SOL    HW1 3542  13.923   2.493  14.345
33901SOL    HW2 3543  13.971   2.452  14.483
33902SOL     OW 3544   9.639   0.241   7.256
33902SOL    HW1 3545   9.564   0.299   7.244
33902SOL    HW2 3546   9.668   0.220   7.167
33903SOL     OW 3547   2.439   4.100  12.180
33903SOL    HW1 3548   2.368   4.127  12.240
33903SOL    HW2 3549   2.519   4.130  12.224
33904SOL     OW 3550   6.766   4.249  11.466
33904SOL    HW1 3551   6.722   4.164  11.462
33904SOL    HW2 3552   6.706   4.304  11.517
33905SOL     OW 3553  13.704   5.977   0.342
33905SOL    HW1 3554  13.654   6.008   0.266
33905SOL    HW2 3555  13.665   6.022   0.416
33906SOL     OW 3556   3.623   6.995   3.760
33906SOL    HW1 3557   3.661   7.081   3.780
33906SOL    HW2 3558   3.664   6.970   3.677
33907SOL     OW 3559   5.341   3.049   4.024
33907SOL    HW1 3560   5.270   3.103   4.058
33907SOL    HW2 3561   5.397   3.032   4.099
33908SOL     OW 3562   2.523  12.383   8.468
33908SOL    HW1 3563   2.592  12.428   8.518
33908SOL    HW2 3564   2.562  12.368   8.382
33909SOL     OW 3565   5.067   6.227  13.338
33909SOL    HW1 3566   5.026   6.282  13.405
33909SOL    HW2 3567   5.037   6.265  13.255
33910SOL     OW 3568   6.228  14.801   5.336
33910SOL    HW1 3569   6.226   0.020   5.329
33910SOL    HW2 3570   6.225  14.785   5.430
33911SOL     OW 3571   6.348   2.033   3.536
33911SOL    HW1 3572   6.302   2.108   3.573
33911SOL    HW2 3573   6.348   1.968   3.606
33912SOL     OW 3574   5.637   0.173  11.344
33912SOL    HW1 3575   5.581   0.099  11.365
33912SOL    HW2 3576   5.703   0.137  11.285
33913SOL     OW 3577  10.388  12.198   8.298
33913SOL    HW1 3578  10.458  12.164   8.243
33913SOL    HW2 3579  10.429  12.268   8.349
33914SOL     OW 3580   5.961  12.022   4.368
33914SOL    HW1 3581   6.036  12.080   4.385
33914SOL    HW2 3582   5.892  12.056   4.425
33915SOL     OW 3583   7.522  11.555   7.208
33915SOL    HW1 3584   7.573  11.549   7.288
33915SOL    HW2 3585   7.522  11.649   7.187
33916SOL     OW 3586   2.373   3.552  12.842
33916SOL    HW1 3587   2.326   3.547  12.759
33916SOL    HW2 3588   2.377   3.645  12.862
33917SOL     OW 3589   8.942  11.523   9.898
33917SOL    HW1 3590   9.032  11.506   9.923
33917SOL    HW2 3591   8.945  11.529   9.802
33918SOL     OW 3592  12.321   6.892   8.452
33918SOL    HW1 3593  12.409   6.914   8.482
33918SOL    HW2 3594  12.328   6.801   8.423
33919SOL     OW 3595  13.620   8.585   4.465
33919SOL    HW1 3596  13.695   8.529   4.485
33919SOL    HW2 3597  13.557   8.527   4.422
33920SOL     OW 3598   0.923   0.093   1.719
33920SOL    HW1 3599   0.883   0.030   1.779
33920SOL    HW2 3600   1.009   0.112   1.758
33921SOL     OW 3601   3.986   0.622   6.131
33921SOL    HW1 3602   3.974   0.700   6.076
33921SOL    HW2 3603   4.079   0.621   6.151
33922SOL     OW 3604  12.196   1.562   6.769
33922SOL    HW1 3605  12.252   1.638   6.787
33922SOL    HW2 3606  12.121   1.573   6.828
33923SOL     OW 3607   4.642  13.518   8.321
33923SOL    HW1 3608   4.715  13.485   8.269
33923SOL    HW2 3609   4.662  13.490   8.410
33924SOL     OW 3610  13.998   0.481   7.414
33924SOL    HW1 3611  13.999   0.565   7.460
33924SOL    HW2 3612  14.064   0.489   7.346
33925SOL     OW 3613   6.502   5.945   0.982
33925SOL    HW1 3614   6.465   5.951   0.894
33925SOL    HW2 3615   6.427   5.930   1.039
33926SOL     OW 3616   4.931   5.908   8.805
33926SOL    HW1 3617   4.920   5.984   8.747
33926SOL    HW2 3618   5.019   5.876   8.786
33927SOL     OW 3619  10.512  11.361  12.481
33927SOL    HW1 3620  10.463  11.284  12.452
33927SOL    HW2 3621  10.445  11.430  12.489
33928SOL     OW 3622   6.787  10.440  12.322
33928SOL    HW1 3623   6.698  10.441  12.285
33928SOL    HW2 3624   6.819  10.352  12.305
33929SOL     OW 3625  14.694   9.219   2.854
33929SOL    HW1 3626  14.682   9.128   2.882
33929SOL    HW2 3627  14.648   9.225   2.770
33930SOL     OW 3628  12.135  14.808  12.735
33930SOL    HW1 3629  12.153  14.815  12.641
33930SOL    HW2 3630  12.124   0.023  12.764
33931SOL     OW 3631  14.161   7.332  14.333
33931SOL    HW1 3632  14.229   7.268  14.313
33931SOL    HW2 3633  14.079   7.285  14.316
33932SOL     OW 3634   1.611  12.447  10.893
33932SOL    HW1 3635   1.516  12.443  10.887
33932SOL    HW2 3636   1.630  12.462  10.985
33933SOL     OW 3637  14.153   8.948  10.115
33933SOL    HW1 3638  14.241   8.983  10.098
33933SOL    HW2 3639  14.156   8.859  10.080
33934SOL     OW 3640  10.942  13.853   6.994
33934SOL    HW1 3641  10.872  13.882   7.053
33934SOL    HW2 3642  11.017  13.837   7.051
33935SOL     OW 3643   3.966   5.268  14.382
33935SOL    HW1 3644   3.952   5.350  14.334
33935SOL    HW2 3645   3.941   5.199  14.320
33936SOL     OW 3646  13.640   0.787   3.902
33936SOL    HW1 3647  13.601   0.795   3.815
33936SOL    HW2 3648  13.726   0.749   3.886
33937SOL     OW 3649  13.024   8.652  10.749
33937SOL    HW1 3650  13.025   8.627  10.657
33937SOL    HW2 3651  12.955   8.597  10.788
33938SOL     OW 3652   2.134  13.100   8.331
33938SOL    HW1 3653   2.224  13.089   8.363
33938SOL    HW2 3654   2.122  13.194   8.325
33939SOL     OW 3655   8.223   6.013  13.921
33939SOL    HW1 3656   8.197   5.954  13.992
33939SOL    HW2 3657   8.269   5.956  13.859
33940SOL     OW 3658   3.742   3.845  12.715
33940SOL    HW1 3659   3.802   3.797  12.659
33940SOL    HW2 3660   3.672   3.875  12.657
33941SOL     OW 3661   2.097  12.270   7.522
33941SOL    HW1 3662   2.047  12.192   7.544
33941SOL    HW2 3663   2.186  12.252   7.555
33942SOL     OW 3664  12.492   4.113  13.667
33942SOL    HW1 3665  12.533   4.178  13.610
33942SOL    HW2 3666  12.565   4.073  13.714
33943SOL     OW 3667   4.543   1.750   2.112
33943SOL    HW1 3668   4.579   1.757   2.024
33943SOL    HW2 3669   4.587   1.819   2.162
33944SOL     OW 3670   2.195  14.519   3.156
33944SOL    HW1 3671   2.177  14.512   3.249
33944SOL    HW2 3672   2.270  14.461   3.142
33945SOL     OW 3673  11.970   8.542  10.324
33945SOL    HW1 3674  11.943   8.457  10.358
33945SOL    HW2 3675  11.982   8.528  10.230
33946SOL     OW 3676   7.849  13.307   1.359
33946SOL    HW1 3677   7.863  13.392   1.317
33946SOL    HW2 3678   7.882  13.319   1.448
33947SOL     OW 3679   4.734   1.902  14.268
33947SOL    HW1 3680   4.791   1.844  14.218
33947SOL    HW2 3681   4.781   1.985  14.270
33948SOL     OW 3682   8.250   7.206   5.900
33948SOL    HW1 3683   8.211   7.251   5.974
33948SOL    HW2 3684   8.319   7.151   5.938
33949SOL     OW 3685   9.278   2.488   7.921
33949SOL    HW1 3686   9.258   2.577   7.892
33949SOL    HW2 3687   9.258   2.433   7.845
33950SOL     OW 3688   1.782  10.292   9.094
33950SOL    HW1 3689   1.843  10.344   9.043
33950SOL    HW2 3690   1.827  10.276   9.177
33951SOL     OW 3691   5.287   2.035  12.984
33951SOL    HW1 3692   5.310   2.010  12.894
33951SOL    HW2 3693   5.208   1.985  13.003
33952SOL     OW 3694   4.649   3.437   3.035
33952SOL    HW1 3695   4.701   3.508   2.997
33952SOL    HW2 3696   4.695   3.357   3.011
33953SOL     OW 3697   5.850   4.168  13.706
33953SOL    HW1 3698   5.910   4.243  13.711
33953SOL    HW2 3699   5.908   4.092  13.696
33954SOL     OW 3700  14.412   9.722  12.514
33954SOL    HW1 3701  14.498   9.710  12.472
33954SOL    HW2 3702  14.411   9.658  12.585
33955SOL     OW 3703   8.981   1.460   9.218
33955SOL    HW1 3704   9.054   1.399   9.209
33955SOL    HW2 3705   8.971   1.498   9.131
33956SOL     OW 3706   8.741   9.844   6.124
33956SOL    HW1 3707   8.722   9.758   6.161
33956SOL    HW2 3708   8.802   9.884   6.186
33957SOL     OW 3709   2.984   5.991   5.077
33957SOL    HW1 3710   3.072   6.022   5.057
33957SOL    HW2 3711   2.943   6.064   5.123
33958SOL     OW 3712  14.754   7.803  14.219
33958SOL    HW1 3713  14.742   7.890  14.256
33958SOL    HW2 3714  14.777   7.818  14.127
33959SOL     OW 3715  11.575  14.480  10.419
33959SOL    HW1 3716  11.595  14.387  10.410
33959SOL    HW2 3717  11.496  14.493  10.366
33960SOL     OW 3718  14.020  11.906   9.714
33960SOL    HW1 3719  13.998  11.815   9.734
33960SOL    HW2 3720  14.026  11.949   9.799
33961SOL     OW 3721   7.739   3.115  14.774
33961SOL    HW1 3722   7.792   3.040  14.746
33961SOL    HW2 3723   7.656   3.104  14.727
33962SOL     OW 3724   4.139   9.570  13.746
33962SOL    HW1 3725   4.227   9.536  13.760
33962SOL    HW2 3726   4.124   9.560  13.652
33963SOL     OW 3727   2.526   6.578   9.366
33963SOL    HW1 3728   2.566   6.499   9.328
33963SOL    HW2 3729   2.512   6.636   9.291
33964SOL     OW 3730   6.724   5.470   0.750
33964SOL    HW1 3731   6.698   5.388   0.708
33964SOL    HW2 3732   6.786   5.443   0.818
33965SOL     OW 3733   2.685   8.443  11.330
33965SOL    HW1 3734   2.648   8.380  11.392
33965SOL    HW2 3735   2.622   8.445  11.258
33966SOL     OW 3736   6.111  10.448   7.057
33966SOL    HW1 3737   6.079  10.488   7.138
33966SOL    HW2 3738   6.069  10.362   7.054
33967SOL     OW 3739   1.251   3.857  14.470
33967SOL    HW1 3740   1.338   3.879  14.501
33967SOL    HW2 3741   1.192   3.915  14.519
33968SOL     OW 3742  13.225  11.314   7.233
33968SOL    HW1 3743  13.154  11.377   7.218
33968SOL    HW2 3744  13.305  11.365   7.217
33969SOL     OW 3745   9.693  10.212   2.161
33969SOL    HW1 3746   9.748  10.138   2.138
33969SOL    HW2 3747   9.750  10.269   2.213
33970SOL     OW 3748   2.387  12.828   9.388
33970SOL    HW1 3749   2.413  12.812   9.297
33970SOL    HW2 3750   2.429  12.758   9.438
33971SOL     OW 3751  13.505   1.575   7.575
33971SOL    HW1 3752  13.482   1.482   7.571
33971SOL    HW2 3753  13.560   1.583   7.653
33972SOL     OW 3754   4.549   3.636   8.797
33972SOL    HW1 3755   4.637   3.642   8.760
33972SOL    HW2 3756   4.546   3.705   8.863
33973SOL     OW 3757   9.847   1.717   8.658
33973SOL    HW1 3758   9.824   1.809   8.666
33973SOL    HW2 3759   9.789   1.671   8.718
33974SOL     OW 3760  13.069   0.690   9.217
33974SOL    HW1 3761  13.041   0.647   9.298
33974SOL    HW2 3762  13.096   0.618   9.160
33975SOL     OW 3763  10.839   3.906  11.734
33975SOL    HW1 3764  10.870   3.865  11.814
33975SOL    HW2 3765  10.897   3.871  11.665
33976SOL     OW 3766   1.142   6.963   8.804
33976SOL    HW1 3767   1.076   6.984   8.871
33976SOL    HW2 3768   1.124   7.024   8.733
33977SOL     OW 3769   7.132   6.905   9.651
33977SOL    HW1 3770   7.074   6.937   9.582
33977SOL    HW2 3771   7.104   6.814   9.665
33978SOL     OW 3772   6.399  10.270  14.164
33978SOL    HW1 3773   6.344  10.348  14.161
33978SOL    HW2 3774   6.370  10.217  14.090
33979SOL     OW 3775  13.397   1.119   6.696
33979SOL    HW1 3776  13.432   1.047   6.749
33979SOL    HW2 3777  13.352   1.075   6.624
33980SOL     OW 3778   7.847   9.628   2.312
33980SOL    HW1 3779   7.910   9.603   2.381
33980SOL    HW2 3780   7.846   9.724   2.314
33981SOL     OW 3781   3.927  10.733  11.010
33981SOL    HW1 3782   3.985  10.808  11.006
33981SOL    HW2 3783   3.975  10.669  11.063
33982SOL     OW 3784  10.988   8.807   8.957
33982SOL    HW1 3785  10.905   8.787   8.915
33982SOL    HW2 3786  11.030   8.870   8.899
33983SOL     OW 3787  11.705   3.185  13.571
33983SOL    HW1 3788  11.677   3.247  13.638
33983SOL    HW2 3789  11.800   3.177  13.583
33984SOL     OW 3790   2.050   3.166   4.049
33984SOL    HW1 3791   2.107   3.138   3.977
33984SOL    HW2 3792   1.982   3.218   4.007
33985SOL     OW 3793   2.067   5.425   9.963
33985SOL    HW1 3794   2.028   5.430  10.050
33985SOL    HW2 3795   2.112   5.509   9.953
33986SOL     OW 3796   0.729  11.450   5.977
33986SOL    HW1 3797   0.641  11.459   6.013
33986SOL    HW2 3798   0.761  11.366   6.010
33987SOL     OW 3799  13.812  11.206   5.024
33987SOL    HW1 3800  13.861  11.268   5.078
33987SOL    HW2 3801  13.857  11.122   5.037
33988SOL     OW 3802   9.594  13.321  14.300
33988SOL    HW1 3803   9.668  13.350  14.247
33988SOL    HW2 3804   9.613  13.229  14.319
33989SOL     OW 3805   7.730  12.738   9.407
33989SOL    HW1 3806   7.717  12.793   9.330
33989SOL    HW2 3807   7.825  12.732   9.416
33990SOL     OW 3808   1.489   0.911  14.132
33990SOL    HW1 3809   1.445   0.975  14.076
33990SOL    HW2 3810   1.578   0.943  14.140
33991SOL     OW 3811   9.067  10.770   7.125
33991SOL    HW1 3812   9.023  10.849   7.094
33991SOL    HW2 3813   9.105  10.731   7.046
33992SOL     OW 3814   8.287  11.121   0.301
33992SOL    HW1 3815   8.343  11.070   0.360
33992SOL    HW2 3816   8.335  11.203   0.286
33993SOL     OW 3817   6.009   2.104  11.846
33993SOL    HW1 3818   5.924   2.108  11.802
33993SOL    HW2 3819   6.073   2.098  11.775
33994SOL     OW 3820   5.997   8.467  14.846
33994SOL    HW1 3821   5.917   8.478  14.796
33994SOL    HW2 3822   5.986   8.383   0.015
33995SOL     OW 3823   6.003   4.319   0.015
33995SOL    HW1 3824   6.089   4.348   0.046
33995SOL    HW2 3825   6.009   4.327  14.796
33996SOL     OW 3826   8.250   2.405  14.506
33996SOL    HW1 3827   8.342   2.381  14.498
33996SOL    HW2 3828   8.205   2.347  14.445
33997SOL     OW 3829  14.155   4.719   3.826
33997SOL    HW1 3830  14.245   4.727   3.859
33997SOL    HW2 3831  14.140   4.625   3.821
33998SOL     OW 3832  10.542  12.726  13.622
33998SOL    HW1 3833  10.527  12.779  13.700
33998SOL    HW2 3834  10.636  12.706  13.624
33999SOL     OW 3835  11.670  14.022  14.775
33999SOL    HW1 3836  11.668  13.970  14.694
33999SOL    HW2 3837  11.635  14.107  14.749
34000SOL     OW 3838   8.376   0.340  11.067
34000SOL    HW1 3839   8.428   0.304  10.995
34000SOL    HW2 3840   8.286   0.316  11.046
34001SOL     OW 3841   3.122   7.074   5.639
34001SOL    HW1 3842   3.107   7.164   5.669
34001SOL    HW2 3843   3.117   7.021   5.719
34002SOL     OW 3844  13.243  12.539   8.228
34002SOL    HW1 3845  13.299  12.601   8.275
34002SOL    HW2 3846  13.244  12.460   8.282
34003SOL     OW 3847  10.736  14.541   1.674
34003SOL    HW1 3848  10.644  14.546   1.650
34003SOL    HW2 3849  10.737  14.489   1.755
34004SOL     OW 3850   9.900   1.596  11.669
34004SOL    HW1 3851   9.835   1.559  11.730
34004SOL    HW2 3852   9.899   1.690  11.688
34005SOL     OW 3853   1.697  12.481   2.442
34005SOL    HW1 3854   1.628  12.438   2.393
34005SOL    HW2 3855   1.651  12.531   2.509
34006SOL     OW 3856  12.921   9.538  13.781
34006SOL    HW1 3857  13.011   9.543  13.812
34006SOL    HW2 3858  12.909   9.618  13.730
34007SOL     OW 3859   6.901   2.954  12.709
34007SOL    HW1 3860   6.849   3.014  12.655
34007SOL    HW2 3861   6.905   2.997  12.794
34008SOL     OW 3862  10.313   8.935   9.703
34008SOL    HW1 3863  10.273   9.022   9.709
34008SOL    HW2 3864  10.391   8.941   9.758
34009SOL     OW 3865  10.476   4.196  10.041
34009SOL    HW1 3866  10.504   4.177  10.131
34009SOL    HW2 3867  10.549   4.247  10.004
34010SOL     OW 3868  10.816  12.392  14.055
34010SOL    HW1 3869  10.833  12.485  14.068
34010SOL    HW2 3870  10.868  12.370  13.977
34011SOL     OW 3871   6.257  11.037   0.305
34011SOL    HW1 3872   6.294  10.954   0.337
34011SOL    HW2 3873   6.182  11.053   0.362
34012SOL     OW 3874   1.826   2.824   0.584
34012SOL    HW1 3875   1.814   2.905   0.634
34012SOL    HW2 3876   1.833   2.755   0.651
34013SOL     OW 3877   8.694   8.829   5.741
34013SOL    HW1 3878   8.637   8.885   5.794
34013SOL    HW2 3879   8.772   8.883   5.725
34014SOL     OW 3880  14.055   2.690   8.306
34014SOL    HW1 3881  14.148   2.671   8.305
34014SOL    HW2 3882  14.029   2.688   8.214
34015SOL     OW 3883   6.037  11.083   3.276
34015SOL    HW1 3884   6.066  11.172   3.293
34015SOL    HW2 3885   6.118  11.033   3.264
34016SOL     OW 3886   7.774   3.579   9.656
34016SOL    HW1 3887   7.787   3.527   9.577
34016SOL    HW2 3888   7.829   3.657   9.643
34017SOL     OW 3889   9.181   4.612  11.813
34017SOL    HW1 3890   9.273   4.587  11.814
34017SOL    HW2 3891   9.142   4.562  11.885
34018SOL     OW 3892   2.207   9.882   0.832
34018SOL    HW1 3893   2.217   9.834   0.914
34018SOL    HW2 3894   2.224   9.973   0.854
34019SOL     OW 3895   6.746   8.071   0.811
34019SOL    HW1 3896   6.723   8.004   0.747
34019SOL    HW2 3897   6.838   8.090   0.794
34020SOL     OW 3898   6.977  12.045   5.581
34020SOL    HW1 3899   6.990  12.037   5.675
34020SOL    HW2 3900   7.062  12.022   5.543
34021SOL     OW 3901  14.196  14.375  14.512
34021SOL    HW1 3902  14.243  14.309  14.564
34021SOL    HW2 3903  14.197  14.453  14.568
34022SOL     OW 3904   9.261   2.273   9.968
34022SOL    HW1 3905   9.192   2.218  10.004
34022SOL    HW2 3906   9.317   2.213   9.919
34023SOL     OW 3907   9.484   9.735  11.100
34023SOL    HW1 3908   9.504   9.809  11.157
34023SOL    HW2 3909   9.440   9.672  11.157
34024SOL     OW 3910  10.765  11.101  11.563
34024SOL    HW1 3911  10.683  11.069  11.600
34024SOL    HW2 3912  10.738  11.162  11.494
34025SOL     OW 3913   4.618   2.888   3.107
34025SOL    HW1 3914   4.606   2.957   3.042
34025SOL    HW2 3915   4.543   2.829   3.093
34026SOL     OW 3916   5.106  14.512  10.102
34026SOL    HW1 3917   5.141  14.525  10.014
34026SOL    HW2 3918   5.047  14.437  10.094
34027SOL     OW 3919   9.375  12.725   4.536
34027SOL    HW1 3920   9.466  12.698   4.547
34027SOL    HW2 3921   9.377  12.820   4.541
34028SOL     OW 3922  11.095   4.873   4.138
34028SOL    HW1 3923  11.180   4.832   4.154
34028SOL    HW2 3924  11.060   4.827   4.061
34029SOL     OW 3925   0.214   2.772   1.482
34029SOL    HW1 3926   0.232   2.694   1.534
34029SOL    HW2 3927   0.280   2.770   1.412
34030SOL     OW 3928   2.781   0.548   1.343
34030SOL    HW1 3929   2.720   0.620   1.326
34030SOL    HW2 3930   2.802   0.556   1.436
34031SOL     OW 3931   3.639  14.084  10.684
34031SOL    HW1 3932   3.543  14.086  10.677
34031SOL    HW2 3933   3.656  14.021  10.754
34032SOL     OW 3934   1.383   1.341  13.146
34032SOL    HW1 3935   1.327   1.295  13.083
34032SOL    HW2 3936   1.374   1.433  13.122
34033SOL     OW 3937  11.981   2.884  14.003
34033SOL    HW1 3938  12.034   2.807  14.026
34033SOL    HW2 3939  11.955   2.922  14.087
34034SOL     OW 3940  14.389   9.085   1.296
34034SOL    HW1 3941  14.331   9.151   1.334
34034SOL    HW2 3942  14.477   9.110   1.323
34035SOL     OW 3943  12.422   4.806   8.912
34035SOL    HW1 3944  12.381   4.877   8.864
34035SOL    HW2 3945  12.515   4.812   8.889
34036SOL     OW 3946  11.328   2.915   2.370
34036SOL    HW1 3947  11.368   2.831   2.392
34036SOL    HW2 3948  11.286   2.943   2.452
34037SOL     OW 3949   7.969   1.516   4.541
34037SOL    HW1 3950   7.888   1.523   4.490
34037SOL    HW2 3951   7.938   1.489   4.628
34038SOL     OW 3952   7.557   2.557   8.094
34038SOL    HW1 3953   7.633   2.568   8.152
34038SOL    HW2 3954   7.596   2.534   8.009
34039SOL     OW 3955   2.667  10.371   2.083
34039SOL    HW1 3956   2.698  10.342   2.168
34039SOL    HW2 3957   2.652  10.290   2.033
34040SOL     OW 3958   6.936   5.938  11.879
34040SOL    HW1 3959   6.999   5.936  11.951
34040SOL    HW2 3960   6.862   5.887  11.911
34041SOL     OW 3961  12.095  13.017   1.335
34041SOL    HW1 3962  12.117  13.013   1.428
34041SOL    HW2 3963  12.133  12.937   1.298
34042SOL     OW 3964   6.380   7.052   2.850
34042SOL    HW1 3965   6.312   7.103   2.893
34042SOL    HW2 3966   6.332   6.992   2.793
34043SOL     OW 3967  13.740  12.671   4.214
34043SOL    HW1 3968  13.715  12.603   4.276
34043SOL    HW2 3969  13.722  12.753   4.260
34044SOL     OW 3970   8.574   2.369   5.912
34044SOL    HW1 3971   8.506   2.310   5.879
34044SOL    HW2 3972   8.589   2.430   5.840
34045SOL     OW 3973   6.074  13.421  12.156
34045SOL    HW1 3974   6.135  13.378  12.097
34045SOL    HW2 3975   6.012  13.466  12.099
34046SOL     OW 3976   5.719   2.123   2.485
34046SOL    HW1 3977   5.702   2.094   2.396
34046SOL    HW2 3978   5.709   2.044   2.539
34047SOL     OW 3979  13.936   1.643  13.227
34047SOL    HW1 3980  13.858   1.659  13.173
34047SOL    HW2 3981  14.009   1.648  13.165
34048SOL     OW 3982  12.433  13.240   3.733
34048SOL    HW1 3983  12.502  13.247   3.667
34048SOL    HW2 3984  12.436  13.324   3.779
34049SOL     OW 3985   6.901  12.429   2.923
34049SOL    HW1 3986   6.910  12.386   3.008
34049SOL    HW2 3987   6.955  12.508   2.930
34050SOL     OW 3988   8.991   0.350   9.949
34050SOL    HW1 3989   9.049   0.275   9.937
34050SOL    HW2 3990   9.017   0.387  10.033
34051SOL     OW 3991   2.223   4.444  10.090
34051SOL    HW1 3992   2.311   4.462  10.124
34051SOL    HW2 3993   2.237   4.389  10.013
34052SOL     OW 3994   9.858   5.923  13.447
34052SOL    HW1 3995   9.888   6.011  13.470
34052SOL    HW2 3996   9.820   5.932  13.360
34053SOL     OW 3997   9.387   5.194  12.602
34053SOL    HW1 3998   9.331   5.117  12.598
34053SOL    HW2 3999   9.474   5.162  12.577
34054SOL     OW 4000   7.113  14.392  10.078
34054SOL    HW1 4001   7.110  14.474  10.127
34054SOL    HW2 4002   7.021  14.372  10.058
34055SOL     OW 4003   2.242   8.930   8.650
34055SOL    HW1 4004   2.334   8.942   8.628
34055SOL    HW2 4005   2.242   8.915   8.744
34056SOL     OW 4006  10.364   8.742  12.418
34056SOL    HW1 4007  10.445   8.777  12.379
34056SOL    HW2 4008  10.316   8.706  12.343
34057SOL     OW 4009   1.243   0.605   3.862
34057SOL    HW1 4010   1.207   0.688   3.892
34057SOL    HW2 4011   1.197   0.539   3.915
34058SOL     OW 4012   3.385   9.194   2.201
34058SOL    HW1 4013   3.445   9.250   2.151
34058SOL    HW2 4014   3.389   9.109   2.157
34059SOL     OW 4015  12.021  13.698   7.102
34059SOL    HW1 4016  12.006  13.697   7.197
34059SOL    HW2 4017  12.085  13.768   7.089
34060SOL     OW 4018   9.644   3.640  13.489
34060SOL    HW1 4019   9.588   3.563  13.486
34060SOL    HW2 4020   9.586   3.714  13.472
34061SOL     OW 4021   5.608  14.591  10.203
34061SOL    HW1 4022   5.557  14.624  10.129
34061SOL    HW2 4023   5.670  14.530  10.164
34062SOL     OW 4024  12.628   4.579  11.709
34062SOL    HW1 4025  12.673   4.528  11.641
34062SOL    HW2 4026  12.571   4.515  11.752
34063SOL     OW 4027  11.364   5.153   0.659
34063SOL    HW1 4028  11.441   5.210   0.657
34063SOL    HW2 4029  11.397   5.066   0.637
34064SOL     OW 4030  13.968   4.325   7.184
34064SOL    HW1 4031  14.054   4.348   7.219
34064SOL    HW2 4032  13.950   4.391   7.117
34065SOL     OW 4033   5.749   8.792   1.483
34065SOL    HW1 4034   5.709   8.726   1.427
34065SOL    HW2 4035   5.786   8.743   1.556
34066SOL     OW 4036   6.880  12.589  14.240
34066SOL    HW1 4037   6.789  12.601  14.212
34066SOL    HW2 4038   6.928  12.660  14.196
34067SOL     OW 4039   9.326   0.549  11.002
34067SOL    HW1 4040   9.335   0.477  11.065
34067SOL    HW2 4041   9.265   0.609  11.044
34068SOL     OW 4042   4.363   7.912   0.160
34068SOL    HW1 4043   4.398   7.840   0.213
34068SOL    HW2 4044   4.440   7.957   0.126
34069SOL     OW 4045   3.393   6.093   8.871
34069SOL    HW1 4046   3.313   6.055   8.908
34069SOL    HW2 4047   3.388   6.074   8.777
34070SOL     OW 4048  12.204   8.619   0.388
34070SOL    HW1 4049  12.139   8.657   0.446
34070SOL    HW2 4050  12.173   8.639   0.300
34071SOL     OW 4051   8.314   7.497   3.901
34071SOL    HW1 4052   8.369   7.479   3.977
34071SOL    HW2 4053   8.366   7.557   3.847
34072SOL     OW 4054  10.312   6.489   8.770
34072SOL    HW1 4055  10.252   6.415   8.779
34072SOL    HW2 4056  10.336   6.511   8.860
34073SOL     OW 4057  12.850   6.770  12.173
34073SOL    HW1 4058  12.846   6.786  12.267
34073SOL    HW2 4059  12.771   6.719  12.154
34074SOL     OW 4060  13.664  13.110   5.518
34074SOL    HW1 4061  13.600  13.081   5.452
34074SOL    HW2 4062  13.663  13.206   5.512
34075SOL     OW 4063  13.115  11.666   7.881
34075SOL    HW1 4064  13.203  11.631   7.895
34075SOL    HW2 4065  13.105  11.667   7.786
34076SOL     OW 4066   0.410   2.724  12.072
34076SOL    HW1 4067   0.504   2.737  12.079
34076SOL    HW2 4068   0.400   2.651  12.011
34077SOL     OW 4069   9.536   1.316   1.261
34077SOL    HW1 4070   9.495   1.341   1.344
34077SOL    HW2 4071   9.562   1.399   1.221
34078SOL     OW 4072   9.765   3.453  14.629
34078SOL    HW1 4073   9.732   3.518  14.691
34078SOL    HW2 4074   9.814   3.391  14.683
34079SOL     OW 4075  11.979   3.324   6.470
34079SOL    HW1 4076  12.016   3.272   6.541
34079SOL    HW2 4077  11.967   3.412   6.508
34080SOL     OW 4078   3.960  14.309   4.057
34080SOL    HW1 4079   3.967  14.402   4.080
34080SOL    HW2 4080   3.891  14.305   3.992
34081SOL     OW 4081  14.158   9.670  10.536
34081SOL    HW1 4082  14.179   9.761  10.559
34081SOL    HW2 4083  14.243   9.632  10.512
34082SOL     OW 4084   8.984   8.863   5.230
34082SOL    HW1 4085   8.975   8.958   5.224
34082SOL    HW2 4086   8.906   8.835   5.278
34083SOL     OW 4087   7.141   9.274   4.337
34083SOL    HW1 4088   7.195   9.195   4.327
34083SOL    HW2 4089   7.204   9.345   4.345
34084SOL     OW 4090   0.106   7.784   5.495
34084SOL    HW1 4091   0.200   7.796   5.488
34084SOL    HW2 4092   0.080   7.740   5.414
34085SOL     OW 4093   3.691   0.621   6.072
34085SOL    HW1 4094   3.637   0.655   6.001
34085SOL    HW2 4095   3.779   0.655   6.054
34086SOL     OW 4096  12.895   7.032   7.642
34086SOL    HW1 4097  12.961   7.079   7.692
34086SOL    HW2 4098  12.935   6.946   7.625
34087SOL     OW 4099   9.088   4.251   3.185
34087SOL    HW1 4100   9.105   4.238   3.092
34087SOL    HW2 4101   9.099   4.345   3.199
34088SOL     OW 4102   3.074   4.415   1.504
34088SOL    HW1 4103   3.100   4.335   1.458
34088SOL    HW2 4104   3.063   4.480   1.435
34089SOL     OW 4105   9.169   8.846   6.221
34089SOL    HW1 4106   9.165   8.918   6.284
34089SOL    HW2 4107   9.236   8.873   6.158
34090SOL     OW 4108  13.271   1.376   6.712
34090SOL    HW1 4109  13.247   1.357   6.803
34090SOL    HW2 4110  13.295   1.290   6.676
34091SOL     OW 4111  14.192  10.322   4.535
34091SOL    HW1 4112  14.234  10.358   4.613
34091SOL    HW2 4113  14.200  10.227   4.544
34092SOL     OW 4114   1.707  14.542   8.522
34092SOL    HW1 4115   1.712  14.598   8.600
34092SOL    HW2 4116   1.614  14.542   8.499
34093SOL     OW 4117   1.028  13.695   2.622
34093SOL    HW1 4118   1.101  13.634   2.630
34093SOL    HW2 4119   0.959  13.644   2.579
34094SOL     OW 4120   2.984   8.989   5.828
34094SOL    HW1 4121   2.979   8.988   5.733
34094SOL    HW2 4122   3.064   9.038   5.848
34095SOL     OW 4123   8.600  12.699   0.898
34095SOL    HW1 4124   8.559  12.615   0.875
34095SOL    HW2 4125   8.646  12.682   0.980
34096SOL     OW 4126  11.218   2.928  11.220
34096SOL    HW1 4127  11.161   2.852  11.231
34096SOL    HW2 4128  11.269   2.933  11.301
34097SOL     OW 4129   5.287  14.704   5.565
34097SOL    HW1 4130   5.206  14.660   5.538
34097SOL    HW2 4131   5.258  14.786   5.606
34098SOL     OW 4132   0.134   5.648   1.555
34098SOL    HW1 4133   0.114   5.556   1.538
34098SOL    HW2 4134   0.104   5.694   1.477
34099SOL     OW 4135   9.495   5.807   8.954
34099SOL    HW1 4136   9.423   5.746   8.936
34099SOL    HW2 4137   9.468   5.889   8.912
34100SOL     OW 4138  12.507  12.410  13.737
34100SOL    HW1 4139  12.519  12.491  13.688
34100SOL    HW2 4140  12.589  12.398  13.785
34101SOL     OW 4141   4.306   0.770   8.014
34101SOL    HW1 4142   4.294   0.719   8.094
34101SOL    HW2 4143   4.396   0.802   8.020
34102SOL     OW 4144   1.607  13.525   3.934
34102SOL    HW1 4145   1.622  13.594   3.999
34102SOL    HW2 4146   1.580  13.449   3.986
34103SOL     OW 4147   3.460  11.831   5.797
34103SOL    HW1 4148   3.417  11.752   5.764
34103SOL    HW2 4149   3.445  11.897   5.729
34104SOL     OW 4150  11.832  11.387   2.829
34104SOL    HW1 4151  11.760  11.356   2.775
34104SOL    HW2 4152  11.838  11.481   2.811
34105SOL     OW 4153   0.716  10.674  10.157
34105SOL    HW1 4154   0.794  10.620  10.148
34105SOL    HW2 4155   0.649  10.615  10.191
34106SOL     OW 4156   6.631   0.650   5.031
34106SOL    HW1 4157   6.702   0.715   5.028
34106SOL    HW2 4158   6.584   0.661   4.948
34107SOL     OW 4159   2.301   1.337   1.399
34107SOL    HW1 4160   2.327   1.429   1.392
34107SOL    HW2 4161   2.375   1.295   1.442
34108SOL     OW 4162   6.819   5.774  11.346
34108SOL    HW1 4163   6.788   5.834  11.414
34108SOL    HW2 4164   6.761   5.789  11.271
34109SOL     OW 4165   3.317   0.154  10.143
34109SOL    HW1 4166   3.317   0.248  10.157
34109SOL    HW2 4167   3.372   0.142  10.066
34110SOL     OW 4168   3.612  13.676  14.217
34110SOL    HW1 4169   3.540  13.708  14.162
34110SOL    HW2 4170   3.576  13.600  14.261
34111SOL     OW 4171   5.985   6.497  13.849
34111SOL    HW1 4172   6.037   6.533  13.777
34111SOL    HW2 4173   5.978   6.569  13.912
34112SOL     OW 4174   8.141  10.384   0.124
34112SOL    HW1 4175   8.144  10.360   0.217
34112SOL    HW2 4176   8.139  10.479   0.124
34113SOL     OW 4177  12.882  13.531   3.186
34113SOL    HW1 4178  12.933  13.599   3.140
34113SOL    HW2 4179  12.791  13.553   3.166
34114SOL     OW 4180   9.551  10.886   1.183
34114SOL    HW1 4181   9.570  10.799   1.147
34114SOL    HW2 4182   9.624  10.941   1.155
34115SOL     OW 4183   7.493   1.218   5.582
34115SOL    HW1 4184   7.578   1.228   5.624
34115SOL    HW2 4185   7.465   1.308   5.564
34116SOL     OW 4186  10.702   0.225  10.077
34116SOL    HW1 4187  10.617   0.181  10.069
34116SOL    HW2 4188  10.742   0.184  10.154
34117SOL     OW 4189  13.622   5.266  13.449
34117SOL    HW1 4190  13.552   5.263  13.384
34117SOL    HW2 4191  13.695   5.221  13.408
34118SOL     OW 4192   0.204   2.525   3.711
34118SOL    HW1 4193   0.253   2.548   3.631
34118SOL    HW2 4194   0.160   2.606   3.736
34119SOL     OW 4195   2.200   7.124   8.801
34119SOL    HW1 4196   2.188   7.207   8.755
34119SOL    HW2 4197   2.262   7.143   8.871
34120SOL     OW 4198  14.682  12.093   8.296
34120SOL    HW1 4199  14.674  12.033   8.370
34120SOL    HW2 4200  14.621  12.058   8.231
34121SOL     OW 4201  12.601   0.556   7.212
34121SOL    HW1 4202  12.645   0.590   7.134
34121SOL    HW2 4203  12.508   0.575   7.197
34122SOL     OW 4204   9.927  14.642   1.333
34122SOL    HW1 4205   9.885  14.566   1.374
34122SOL    HW2 4206  10.000  14.605   1.284
34123SOL     OW 4207   8.632   5.768   2.550
34123SOL    HW1 4208   8.606   5.751   2.460
34123SOL    HW2 4209   8.676   5.688   2.579
34124SOL     OW 4210  13.811  13.106  10.212
34124SOL    HW1 4211  13.850  13.034  10.163
34124SOL    HW2 4212  13.786  13.068  10.296
34125SOL     OW 4213   9.932  11.918   2.974
34125SOL    HW1 4214   9.870  11.959   3.035
34125SOL    HW2 4215   9.908  11.826   2.974
34126SOL     OW 4216   8.286  12.881   8.056
34126SOL    HW1 4217   8.338  12.826   7.998
34126SOL    HW2 4218   8.200  12.887   8.013
34127SOL     OW 4219   7.508   8.464   4.817
34127SOL    HW1 4220   7.535   8.548   4.781
34127SOL    HW2 4221   7.568   8.401   4.777
34128SOL     OW 4222   3.480   9.916   7.392
34128SOL    HW1 4223   3.405   9.869   7.355
34128SOL    HW2 4224   3.460  10.008   7.377
34129SOL     OW 4225   3.522  12.919  14.699
34129SOL    HW1 4226   3.614  12.946  14.704
34129SOL    HW2 4227   3.479  12.968  14.769
34130SOL     OW 4228   0.661   0.364   0.799
34130SOL    HW1 4229   0.683   0.412   0.879
34130SOL    HW2 4230   0.742   0.319   0.775
34131SOL     OW 4231   0.199   4.067  12.520
34131SOL    HW1 4232   0.222   4.005  12.589
34131SOL    HW2 4233   0.108   4.046  12.499
34132SOL     OW 4234  13.301   9.424   2.525
34132SOL    HW1 4235  13.357   9.346   2.522
34132SOL    HW2 4236  13.308   9.462   2.437
34133SOL     OW 4237   3.609   5.183   6.154
34133SOL    HW1 4238   3.667   5.107   6.149
34133SOL    HW2 4239   3.635   5.229   6.234
34134SOL     OW 4240   9.193   2.751   6.176
34134SOL    HW1 4241   9.264   2.814   6.172
34134SOL    HW2 4242   9.126   2.787   6.117
34135SOL     OW 4243  11.206   9.629  11.534
34135SOL    HW1 4244  11.158   9.670  11.463
34135SOL    HW2 4245  11.249   9.701  11.580
34136SOL     OW 4246  10.169  14.033  13.991
34136SOL    HW1 4247  10.161  14.025  13.896
34136SOL    HW2 4248  10.203  14.122  14.004
34137SOL     OW 4249   5.319   9.750   2.640
34137SOL    HW1 4250   5.325   9.748   2.736
34137SOL    HW2 4251   5.404   9.718   2.610
34138SOL     OW 4252  11.720   6.851   7.463
34138SOL    HW1 4253  11.795   6.894   7.422
34138SOL    HW2 4254  11.731   6.867   7.557
34139SOL     OW 4255   2.254   8.565   8.040
34139SOL    HW1 4256   2.238   8.653   8.072
34139SOL    HW2 4257   2.309   8.577   7.962
34140SOL     OW 4258   0.615   5.049  11.918
34140SOL    HW1 4259   0.565   5.126  11.944
34140SOL    HW2 4260   0.578   5.024  11.833
34141SOL     OW 4261   2.010   4.846   4.846
34141SOL    HW1 4262   2.084   4.800   4.886
34141SOL    HW2 4263   1.982   4.908   4.913
34142SOL     OW 4264   5.677   7.515   4.041
34142SOL    HW1 4265   5.661   7.533   3.948
34142SOL    HW2 4266   5.600   7.465   4.069
34143SOL     OW 4267   0.099  11.045  13.737
34143SOL    HW1 4268   0.163  10.995  13.686
34143SOL    HW2 4269   0.151  11.087  13.806
34144SOL     OW 4270   8.015   5.107  13.349
34144SOL    HW1 4271   8.110   5.118  13.338
34144SOL    HW2 4272   8.001   5.013  13.339
34145SOL     OW 4273  14.361  11.356  11.839
34145SOL    HW1 4274  14.315  11.279  11.807
34145SOL    HW2 4275  14.454  11.338  11.822
34146SOL     OW 4276   2.449   0.092   9.012
34146SOL    HW1 4277   2.540   0.083   9.041
34146SOL    HW2 4278   2.417   0.003   9.006
34147SOL     OW 4279   1.303  12.244   9.221
34147SOL    HW1 4280   1.218  12.219   9.257
34147SOL    HW2 4281   1.282  12.291   9.140
34148SOL     OW 4282   8.104   4.674   2.628
34148SOL    HW1 4283   8.052   4.721   2.693
34148SOL    HW2 4284   8.157   4.741   2.586
34149SOL     OW 4285   4.002  10.450  10.627
34149SOL    HW1 4286   4.091  10.456  10.663
34149SOL    HW2 4287   3.988  10.357  10.612
34150SOL     OW 4288   1.842  14.120   8.788
34150SOL    HW1 4289   1.812  14.165   8.867
34150SOL    HW2 4290   1.844  14.027   8.812
34151SOL     OW 4291  12.182   1.888   6.380
34151SOL    HW1 4292  12.106   1.847   6.338
34151SOL    HW2 4293  12.251   1.821   6.375
34152SOL     OW 4294   9.766   0.417   5.261
34152SOL    HW1 4295   9.709   0.457   5.326
34152SOL    HW2 4296   9.848   0.401   5.308
34153SOL     OW 4297   4.918   9.792   3.834
34153SOL    HW1 4298   4.843   9.850   3.827
34153SOL    HW2 4299   4.934   9.763   3.744
34154SOL     OW 4300   4.326   1.837   2.829
34154SOL    HW1 4301   4.281   1.785   2.762
34154SOL    HW2 4302   4.348   1.773   2.897
34155SOL     OW 4303   1.787   6.019   2.358
34155SOL    HW1 4304   1.801   5.941   2.412
34155SOL    HW2 4305   1.694   6.017   2.337
34156SOL     OW 4306   2.118   9.244  12.206
34156SOL    HW1 4307   2.159   9.330  12.211
34156SOL    HW2 4308   2.179   9.190  12.156
34157SOL     OW 4309  13.437  13.324  10.671
34157SOL    HW1 4310  13.449  13.235  10.703
34157SOL    HW2 4311  13.526  13.360  10.668
34158SOL     OW 4312  13.250  12.274  14.355
34158SOL    HW1 4313  13.251  12.331  14.279
34158SOL    HW2 4314  13.327  12.299  14.406
34159SOL     OW 4315   2.120   1.365   1.149
34159SOL    HW1 4316   2.185   1.400   1.210
34159SOL    HW2 4317   2.044   1.344   1.204
34160SOL     OW 4318   7.668  10.285  11.302
34160SOL    HW1 4319   7.687  10.373  11.271
34160SOL    HW2 4320   7.636  10.298  11.391
34161SOL     OW 4321  12.695   0.994   2.946
34161SOL    HW1 4322  12.725   0.917   2.995
34161SOL    HW2 4323  12.771   1.019   2.893
34162SOL     OW 4324   1.058  13.192   2.360
34162SOL    HW1 4325   1.068  13.112   2.307
34162SOL    HW2 4326   0.993  13.243   2.313
34163SOL     OW 4327  10.429   5.574  13.861
34163SOL    HW1 4328  10.393   5.558  13.773
34163SOL    HW2 4329  10.376   5.519  13.919
34164SOL     OW 4330   6.635   6.826   5.923
34164SOL    HW1 4331   6.721   6.785   5.921
34164SOL    HW2 4332   6.577   6.766   5.875
34165SOL     OW 4333   4.015   5.220  12.524
34165SOL    HW1 4334   4.000   5.292  12.463
34165SOL    HW2 4335   4.106   5.230  12.551
34166SOL     OW 4336   4.593  14.157   4.918
34166SOL    HW1 4337   4.609  14.084   4.977
34166SOL    HW2 4338   4.679  14.180   4.884
34167SOL     OW 4339   6.374   9.489  11.420
34167SOL    HW1 4340   6.293   9.449  11.388
34167SOL    HW2 4341   6.408   9.537  11.344
34168SOL     OW 4342  11.701  12.957   0.508
34168SOL    HW1 4343  11.686  12.893   0.578
34168SOL    HW2 4344  11.774  13.010   0.540
34169SOL     OW 4345  12.606   5.384   6.487
34169SOL    HW1 4346  12.663   5.309   6.502
34169SOL    HW2 4347  12.611   5.401   6.393
34170SOL     OW 4348   6.548   0.057   8.034
34170SOL    HW1 4349   6.528  14.855   8.085
34170SOL    HW2 4350   6.634   0.039   7.996
34171SOL     OW 4351  11.989  12.335   6.897
34171SOL    HW1 4352  11.917  12.371   6.845
34171SOL    HW2 4353  11.986  12.384   6.979
34172SOL     OW 4354   0.971   5.432  10.605
34172SOL    HW1 4355   1.004   5.362  10.662
34172SOL    HW2 4356   0.959   5.390  10.520
34173SOL     OW 4357  14.615   1.228  11.828
34173SOL    HW1 4358  14.639   1.274  11.908
34173SOL    HW2 4359  14.561   1.155  11.857
34174SOL     OW 4360   4.767  13.007   9.156
34174SOL    HW1 4361   4.801  12.959   9.081
34174SOL    HW2 4362   4.841  13.061   9.186
34175SOL     OW 4363   7.548  11.727   4.535
34175SOL    HW1 4364   7.615  11.743   4.601
34175SOL    HW2 4365   7.468  11.714   4.585
34176SOL     OW 4366  12.338   4.209   6.916
34176SOL    HW1 4367  12.383   4.133   6.878
34176SOL    HW2 4368  12.402   4.280   6.910
34177SOL     OW 4369  14.448  13.444   6.214
34177SOL    HW1 4370  14.542  13.451   6.200
34177SOL    HW2 4371  14.417  13.391   6.141
34178SOL     OW 4372   1.915   9.638  12.929
34178SOL    HW1 4373   2.004   9.614  12.955
34178SOL    HW2 4374   1.860   9.608  13.001
34179SOL     OW 4375   4.219   2.508  12.991
34179SOL    HW1 4376   4.205   2.438  13.054
34179SOL    HW2 4377   4.270   2.574  13.039
34180SOL     OW 4378  13.323   4.739   0.810
34180SOL    HW1 4379  13.234   4.734   0.776
34180SOL    HW2 4380  13.372   4.784   0.741
34181SOL     OW 4381   5.529   3.639  10.649
34181SOL    HW1 4382   5.503   3.693  10.574
34181SOL    HW2 4383   5.598   3.582  10.614
34182SOL     OW 4384   9.421  11.600  14.597
34182SOL    HW1 4385   9.407  11.505  14.599
34182SOL    HW2 4386   9.438  11.623  14.688
34183SOL     OW 4387   1.669  12.820   5.656
34183SOL    HW1 4388   1.752  12.868   5.649
34183SOL    HW2 4389   1.602  12.887   5.663
34184SOL     OW 4390   2.205   9.751   1.714
34184SOL    HW1 4391   2.141   9.791   1.772
34184SOL    HW2 4392   2.162   9.673   1.680
34185SOL     OW 4393   6.986  13.343   5.222
34185SOL    HW1 4394   6.958  13.433   5.205
34185SOL    HW2 4395   6.953  13.294   5.147
34186SOL     OW 4396  12.899   1.369   6.188
34186SOL    HW1 4397  12.807   1.351   6.202
34186SOL    HW2 4398  12.909   1.372   6.093
34187SOL     OW 4399   9.609   2.005  14.582
34187SOL    HW1 4400   9.644   1.918  14.601
34187SOL    HW2 4401   9.630   2.020  14.490
34188SOL     OW 4402   0.404  13.981   8.502
34188SOL    HW1 4403   0.441  14.048   8.444
34188SOL    HW2 4404   0.361  13.919   8.443
34189SOL     OW 4405   0.929   7.346   1.977
34189SOL    HW1 4406   1.006   7.349   2.033
34189SOL    HW2 4407   0.965   7.342   1.888
34190SOL     OW 4408   5.914   7.763   7.283
34190SOL    HW1 4409   5.961   7.736   7.362
34190SOL    HW2 4410   5.918   7.687   7.226
34191SOL     OW 4411  14.093   4.743   3.224
34191SOL    HW1 4412  14.080   4.832   3.258
34191SOL    HW2 4413  14.115   4.756   3.132
34192SOL     OW 4414   5.473  10.483  14.813
34192SOL    HW1 4415   5.530  10.452   0.007
34192SOL    HW2 4416   5.384  10.467  14.845
34193SOL     OW 4417   7.090  11.523   3.205
34193SOL    HW1 4418   7.095  11.611   3.167
34193SOL    HW2 4419   7.028  11.477   3.149
34194SOL     OW 4420   0.558   0.652   7.856
34194SOL    HW1 4421   0.486   0.629   7.798
34194SOL    HW2 4422   0.516   0.692   7.932
34195SOL     OW 4423   9.927  10.757  14.527
34195SOL    HW1 4424   9.974  10.760  14.610
34195SOL    HW2 4425   9.918  10.849  14.501
34196SOL     OW 4426  11.065  13.007  14.611
34196SOL    HW1 4427  11.093  13.037  14.524
34196SOL    HW2 4428  11.147  12.988  14.657
34197SOL     OW 4429  12.108   6.009  12.870
34197SOL    HW1 4430  12.060   5.974  12.795
34197SOL    HW2 4431  12.089   5.948  12.941
34198SOL     OW 4432   7.833   7.424  14.553
34198SOL    HW1 4433   7.796   7.375  14.479
34198SOL    HW2 4434   7.916   7.457  14.520
34199SOL     OW 4435   7.854   9.635   1.762
34199SOL    HW1 4436   7.911   9.604   1.832
34199SOL    HW2 4437   7.908   9.697   1.712
34200SOL     OW 4438   8.769  13.630  13.192
34200SOL    HW1 4439   8.792  13.544  13.226
34200SOL    HW2 4440   8.729  13.675  13.267
34201SOL     OW 4441   8.435   0.977   8.309
34201SOL    HW1 4442   8.477   1.058   8.281
34201SOL    HW2 4443   8.463   0.911   8.245
34202SOL     OW 4444  13.359  14.247  11.739
34202SOL    HW1 4445  13.309  14.314  11.785
34202SOL    HW2 4446  13.367  14.281  11.649
34203SOL     OW 4447   0.019   1.286  12.593
34203SOL    HW1 4448   0.035   1.271  12.686
34203SOL    HW2 4449   0.081   1.354  12.569
34204SOL     OW 4450   9.249  13.096   8.155
34204SOL    HW1 4451   9.162  13.065   8.183
34204SOL    HW2 4452   9.300  13.016   8.144
34205SOL     OW 4453   7.223  14.502  11.518
34205SOL    HW1 4454   7.316  14.486  11.533
34205SOL    HW2 4455   7.220  14.549  11.434
34206SOL     OW 4456   5.256  11.916  11.021
34206SOL    HW1 4457   5.341  11.900  11.061
34206SOL    HW2 4458   5.225  11.829  10.995
34207SOL     OW 4459  11.307  11.801   1.160
34207SOL    HW1 4460  11.342  11.843   1.082
34207SOL    HW2 4461  11.342  11.711   1.156
34208SOL     OW 4462   5.947   5.847  12.802
34208SOL    HW1 4463   5.977   5.778  12.742
34208SOL    HW2 4464   5.972   5.816  12.889
34209SOL     OW 4465   6.449  13.858   1.349
34209SOL    HW1 4466   6.437  13.930   1.411
34209SOL    HW2 4467   6.477  13.784   1.404
34210SOL     OW 4468   8.278   4.941   4.169
34210SOL    HW1 4469   8.295   4.922   4.077
34210SOL    HW2 4470   8.305   4.862   4.215
34211SOL     OW 4471   6.596   3.224  10.247
34211SOL    HW1 4472   6.508   3.196  10.222
34211SOL    HW2 4473   6.640   3.240  10.164
34212SOL     OW 4474  11.232  13.639  13.188
34212SOL    HW1 4475  11.293  13.565  13.191
34212SOL    HW2 4476  11.251  13.682  13.104
34213SOL     OW 4477   1.736   6.756   2.380
34213SOL    HW1 4478   1.675   6.721   2.315
34213SOL    HW2 4479   1.814   6.780   2.329
34214SOL     OW 4480   8.793   9.243   4.597
34214SOL    HW1 4481   8.710   9.198   4.579
34214SOL    HW2 4482   8.771   9.308   4.664
34215SOL     OW 4483  11.319   3.808   2.074
34215SOL    HW1 4484  11.246   3.858   2.038
34215SOL    HW2 4485  11.390   3.820   2.010
34216SOL     OW 4486   2.931  11.201   2.412
34216SOL    HW1 4487   3.024  11.204   2.387
34216SOL    HW2 4488   2.927  11.248   2.496
34217SOL     OW 4489   6.858   8.118   7.940
34217SOL    HW1 4490   6.940   8.150   7.900
34217SOL    HW2 4491   6.790   8.142   7.877
34218SOL     OW 4492   0.840   7.730   8.902
34218SOL    HW1 4493   0.844   7.736   8.807
34218SOL    HW2 4494   0.921   7.685   8.927
34219SOL     OW 4495   9.356   5.484   1.472
34219SOL    HW1 4496   9.409   5.473   1.393
34219SOL    HW2 4497   9.364   5.401   1.519
34220SOL     OW 4498   6.232  10.000   6.414
34220SOL    HW1 4499   6.327   9.988   6.415
34220SOL    HW2 4500   6.199   9.921   6.370
34221SOL     OW 4501   5.249  13.271   1.310
34221SOL    HW1 4502   5.331  13.226   1.291
34221SOL    HW2 4503   5.188  13.238   1.245
34222SOL     OW 4504   3.100  12.215  11.490
34222SOL    HW1 4505   3.088  12.295  11.541
34222SOL    HW2 4506   3.182  12.178  11.523
34223SOL     OW 4507   1.316   2.999  13.521
34223SOL    HW1 4508   1.411   3.007  13.531
34223SOL    HW2 4509   1.304   2.968  13.431
34224SOL     OW 4510  10.354   2.323   4.510
34224SOL    HW1 4511  10.310   2.325   4.595
34224SOL    HW2 4512  10.316   2.247   4.465
34225SOL     OW 4513   7.320  12.384   5.728
34225SOL    HW1 4514   7.308  12.294   5.698
34225SOL    HW2 4515   7.388  12.419   5.671
34226SOL     OW 4516  14.082   4.967  12.846
34226SOL    HW1 4517  14.079   4.945  12.753
34226SOL    HW2 4518  14.019   5.039  12.856
34227SOL     OW 4519   5.185   5.194  12.732
34227SOL    HW1 4520   5.119   5.241  12.783
34227SOL    HW2 4521   5.166   5.215  12.641
34228SOL     OW 4522   6.346  11.891   2.628
34228SOL    HW1 4523   6.400  11.951   2.678
34228SOL    HW2 4524   6.257  11.908   2.658
34229SOL     OW 4525   6.663  13.811  10.889
34229SOL    HW1 4526   6.632  13.769  10.969
34229SOL    HW2 4527   6.719  13.745  10.847
34230SOL     OW 4528   0.465   3.281   5.898
34230SOL    HW1 4529   0.370   3.291   5.906
34230SOL    HW2 4530   0.477   3.229   5.818
34231SOL     OW 4531   7.356   9.675   4.679
34231SOL    HW1 4532   7.323   9.647   4.593
34231SOL    HW2 4533   7.300   9.748   4.703
34232SOL     OW 4534   6.160  10.331  10.676
34232SOL    HW1 4535   6.200  10.258  10.629
34232SOL    HW2 4536   6.223  10.403  10.666
34233SOL     OW 4537   8.427   4.305   2.302
34233SOL    HW1 4538   8.484   4.324   2.228
34233SOL    HW2 4539   8.339   4.305   2.265
34234SOL     OW 4540   6.186   9.584  12.468
34234SOL    HW1 4541   6.181   9.572  12.563
34234SOL    HW2 4542   6.271   9.549  12.443
34235SOL     OW 4543  13.118  10.079   8.280
34235SOL    HW1 4544  13.023  10.083   8.269
34235SOL    HW2 4545  13.140   9.987   8.266
34236SOL     OW 4546   0.240   5.120   6.973
34236SOL    HW1 4547   0.259   5.209   7.002
34236SOL    HW2 4548   0.234   5.069   7.054
34237SOL     OW 4549  12.452   2.890  11.655
34237SOL    HW1 4550  12.436   2.956  11.723
34237SOL    HW2 4551  12.514   2.932  11.595
34238SOL     OW 4552  14.876  12.663   5.489
34238SOL    HW1 4553   0.036  12.586   5.533
34238SOL    HW2 4554  14.782  12.646   5.486
34239SOL     OW 4555   1.586   3.347  12.006
34239SOL    HW1 4556   1.659   3.299  12.044
34239SOL    HW2 4557   1.591   3.329  11.912
34240SOL     OW 4558   1.106   6.165  13.772
34240SOL    HW1 4559   1.179   6.120  13.814
34240SOL    HW2 4560   1.088   6.112  13.694
34241SOL     OW 4561  13.585   7.462   8.767
34241SOL    HW1 4562  13.614   7.521   8.836
34241SOL    HW2 4563  13.491   7.452   8.781
34242SOL     OW 4564  10.315  10.323  10.790
34242SOL    HW1 4565  10.276  10.368  10.864
34242SOL    HW2 4566  10.250  10.331  10.720
34243SOL     OW 4567   4.659  13.621   3.264
34243SOL    HW1 4568   4.753  13.636   3.256
34243SOL    HW2 4569   4.627  13.695   3.315
34244SOL     OW 4570   4.327   9.911   0.716
34244SOL    HW1 4571   4.369   9.937   0.798
34244SOL    HW2 4572   4.287   9.991   0.683
34245SOL     OW 4573   5.067   0.954   0.472
34245SOL    HW1 4574   5.018   0.873   0.463
34245SOL    HW2 4575   5.010   1.021   0.433
34246SOL     OW 4576   3.203   1.182   5.350
34246SOL    HW1 4577   3.243   1.269   5.364
34246SOL    HW2 4578   3.110   1.200   5.343
34247SOL     OW 4579  13.776  11.497  12.081
34247SOL    HW1 4580  13.758  11.494  12.175
34247SOL    HW2 4581  13.745  11.413  12.048
34248SOL     OW 4582  13.192  10.926   3.105
34248SOL    HW1 4583  13.117  10.881   3.143
34248SOL    HW2 4584  13.264  10.865   3.115
34249SOL     OW 4585   3.835  13.605   9.879
34249SOL    HW1 4586   3.907  13.543   9.893
34249SOL    HW2 4587   3.801  13.582   9.792
34250SOL     OW 4588  14.817  12.999   0.489
34250SOL    HW1 4589  14.842  12.909   0.506
34250SOL    HW2 4590  14.722  12.996   0.474
34251SOL     OW 4591   8.862   0.979   0.922
34251SOL    HW1 4592   8.786   0.961   0.978
34251SOL    HW2 4593   8.834   1.050   0.864
34252SOL     OW 4594   8.790   6.390   2.117
34252SOL    HW1 4595   8.753   6.463   2.068
34252SOL    HW2 4596   8.752   6.312   2.077
34253SOL     OW 4597  13.959  14.000   3.852
34253SOL    HW1 4598  14.040  13.994   3.903
34253SOL    HW2 4599  13.917  14.080   3.883
34254SOL     OW 4600   9.014   0.358   0.774
34254SOL    HW1 4601   8.943   0.420   0.760
34254SOL    HW2 4602   9.094   0.407   0.751
34255SOL     OW 4603  12.614  13.714   2.726
34255SOL    HW1 4604  12.541  13.676   2.775
34255SOL    HW2 4605  12.575  13.785   2.675
34256SOL     OW 4606  12.529   3.598   7.903
34256SOL    HW1 4607  12.501   3.519   7.856
34256SOL    HW2 4608  12.485   3.670   7.857
34257SOL     OW 4609   7.708   0.677  13.906
34257SOL    HW1 4610   7.757   0.618  13.849
34257SOL    HW2 4611   7.670   0.742  13.847
34258SOL     OW 4612  11.431   4.227   1.862
34258SOL    HW1 4613  11.487   4.296   1.897
34258SOL    HW2 4614  11.360   4.218   1.926
34259SOL     OW 4615   2.542   4.800   4.956
34259SOL    HW1 4616   2.496   4.827   4.877
34259SOL    HW2 4617   2.619   4.857   4.959
34260SOL     OW 4618  13.919   0.043   3.551
34260SOL    HW1 4619  13.844   0.058   3.493
34260SOL    HW2 4620  13.880   0.029   3.637
34261SOL     OW 4621   6.073  12.708   0.252
34261SOL    HW1 4622   5.996  12.652   0.257
34261SOL    HW2 4623   6.102  12.701   0.161
34262SOL     OW 4624  10.146  11.816   8.652
34262SOL    HW1 4625  10.166  11.872   8.578
34262SOL    HW2 4626  10.231  11.799   8.693
34263SOL     OW 4627   6.609  11.094   3.504
34263SOL    HW1 4628   6.562  11.169   3.466
34263SOL    HW2 4629   6.696  11.128   3.523
34264SOL     OW 4630   6.648   1.950   5.424
34264SOL    HW1 4631   6.657   1.995   5.340
34264SOL    HW2 4632   6.689   1.865   5.410
34265SOL     OW 4633   1.348   5.277   5.243
34265SOL    HW1 4634   1.315   5.261   5.332
34265SOL    HW2 4635   1.317   5.364   5.221
34266SOL     OW 4636   1.582   7.558  10.515
34266SOL    HW1 4637   1.587   7.594  10.426
34266SOL    HW2 4638   1.673   7.537  10.537
34267SOL     OW 4639   7.101   5.251  10.333
34267SOL    HW1 4640   7.172   5.310  10.308
34267SOL    HW2 4641   7.142   5.188  10.393
34268SOL     OW 4642  11.576   2.190   9.480
34268SOL    HW1 4643  11.631   2.134   9.425
34268SOL    HW2 4644  11.552   2.263   9.422
34269SOL     OW 4645   0.064   2.715   9.045
34269SOL    HW1 4646   0.090   2.632   9.084
34269SOL    HW2 4647   0.084   2.780   9.112
34270SOL     OW 4648   1.386   3.342  14.509
34270SOL    HW1 4649   1.472   3.374  14.480
34270SOL    HW2 4650   1.350   3.296  14.433
34271SOL     OW 4651   1.817   5.190   1.323
34271SOL    HW1 4652   1.857   5.180   1.409
34271SOL    HW2 4653   1.840   5.279   1.296
34272SOL     OW 4654  11.759   4.493   2.842
34272SOL    HW1 4655  11.824   4.427   2.817
34272SOL    HW2 4656  11.796   4.576   2.812
34273SOL     OW 4657   6.639  14.687   1.986
34273SOL    HW1 4658   6.729  14.675   2.016
34273SOL    HW2 4659   6.634  14.780   1.962
34274SOL     OW 4660   4.707  13.789   8.103
34274SOL    HW1 4661   4.780  13.772   8.162
34274SOL    HW2 4662   4.673  13.702   8.082
34275SOL     OW 4663   8.492   0.116  13.136
34275SOL    HW1 4664   8.483   0.091  13.044
34275SOL    HW2 4665   8.481   0.211  13.135
34276SOL     OW 4666   1.998   9.201   9.960
34276SOL    HW1 4667   1.956   9.174   9.879
34276SOL    HW2 4668   1.987   9.296   9.963
34277SOL     OW 4669  10.789   4.044   9.244
34277SOL    HW1 4670  10.825   3.966   9.201
34277SOL    HW2 4671  10.698   4.021   9.263
34278SOL     OW 4672   7.004   6.342  11.331
34278SOL    HW1 4673   7.010   6.374  11.241
34278SOL    HW2 4674   7.024   6.418  11.385
34279SOL     OW 4675  14.693   6.562   1.204
34279SOL    HW1 4676  14.621   6.539   1.263
34279SOL    HW2 4677  14.728   6.478   1.175
34280SOL     OW 4678   2.654  13.938  14.758
34280SOL    HW1 4679   2.727  13.876  14.761
34280SOL    HW2 4680   2.589  13.901  14.818
34281SOL     OW 4681   2.419   0.447   7.086
34281SOL    HW1 4682   2.414   0.357   7.052
34281SOL    HW2 4683   2.507   0.454   7.122
34282SOL     OW 4684   9.740   8.282  12.534
34282SOL    HW1 4685   9.781   8.312  12.616
34282SOL    HW2 4686   9.806   8.299  12.467
34283SOL     OW 4687   5.993   1.348  11.264
34283SOL    HW1 4688   6.043   1.317  11.339
34283SOL    HW2 4689   6.030   1.435  11.245
34284SOL     OW 4690  12.764   9.108   8.342
34284SOL    HW1 4691  12.775   9.039   8.407
34284SOL    HW2 4692  12.674   9.138   8.353
34285SOL     OW 4693   7.937  13.888   1.940
34285SOL    HW1 4694   7.853  13.898   1.894
34285SOL    HW2 4695   7.994  13.846   1.875
34286SOL     OW 4696   8.723  10.798   9.753
34286SOL    HW1 4697   8.643  10.841   9.724
34286SOL    HW2 4698   8.734  10.724   9.693
34287SOL     OW 4699  13.065  10.153   5.021
34287SOL    HW1 4700  13.130  10.136   4.953
34287SOL    HW2 4701  13.071  10.078   5.080
34288SOL     OW 4702  13.153  13.171  10.916
34288SOL    HW1 4703  13.157  13.250  10.861
34288SOL    HW2 4704  13.151  13.099  10.854
34289SOL     OW 4705  11.100  10.631  10.133
34289SOL    HW1 4706  11.030  10.570  10.157
34289SOL    HW2 4707  11.076  10.661  10.045
34290SOL     OW 4708   6.951   2.329   8.776
34290SOL    HW1 4709   6.877   2.275   8.802
34290SOL    HW2 4710   6.965   2.388   8.850
34291SOL     OW 4711   4.616   9.621   4.354
34291SOL    HW1 4712   4.706   9.627   4.323
34291SOL    HW2 4713   4.585   9.535   4.324
34292SOL     OW 4714  11.118   7.205   5.891
34292SOL    HW1 4715  11.109   7.287   5.843
34292SOL    HW2 4716  11.170   7.149   5.834
34293SOL     OW 4717  13.330   3.527   7.647
34293SOL    HW1 4718  13.392   3.458   7.625
34293SOL    HW2 4719  13.336   3.535   7.742
34294SOL     OW 4720   0.577  11.428   4.087
34294SOL    HW1 4721   0.594  11.496   4.152
34294SOL    HW2 4722   0.527  11.362   4.135
34295SOL     OW 4723  12.217  13.762   4.359
34295SOL    HW1 4724  12.233  13.668   4.367
34295SOL    HW2 4725  12.234  13.797   4.446
34296SOL     OW 4726   8.769   1.575   4.132
34296SOL    HW1 4727   8.714   1.648   4.160
34296SOL    HW2 4728   8.854   1.615   4.113
34297SOL     OW 4729   6.163  11.095  10.284
34297SOL    HW1 4730   6.245  11.048  10.300
34297SOL    HW2 4731   6.097  11.026  10.275
34298SOL     OW 4732  12.322  12.626   5.205
34298SOL    HW1 4733  12.366  12.655   5.125
34298SOL    HW2 4734  12.265  12.700   5.228
34299SOL     OW 4735  10.259   8.781   9.049
34299SOL    HW1 4736  10.236   8.847   8.983
34299SOL    HW2 4737  10.206   8.705   9.026
34300SOL     OW 4738   6.129  13.258   0.131
34300SOL    HW1 4739   6.185  13.202   0.184
34300SOL    HW2 4740   6.174  13.266   0.047
34301SOL     OW 4741   1.990   7.944  10.239
34301SOL    HW1 4742   1.896   7.931  10.233
34301SOL    HW2 4743   2.011   7.924  10.330
34302SOL     OW 4744   6.946  11.082   7.760
34302SOL    HW1 4745   6.999  11.133   7.699
34302SOL    HW2 4746   7.007  11.058   7.830
34303SOL     OW 4747  11.760  10.426  13.288
34303SOL    HW1 4748  11.670  10.456  13.274
34303SOL    HW2 4749  11.781  10.376  13.208
34304SOL     OW 4750  11.963   9.666   3.423
34304SOL    HW1 4751  11.963   9.580   3.381
34304SOL    HW2 4752  11.897   9.716   3.375
34305SOL     OW 4753   9.384   7.434   7.943
34305SOL    HW1 4754   9.341   7.505   7.991
34305SOL    HW2 4755   9.473   7.465   7.928
34306SOL     OW 4756   1.309   2.109   0.096
34306SOL    HW1 4757   1.247   2.128   0.026
34306SOL    HW2 4758   1.288   2.020   0.123
34307SOL     OW 4759   7.674  10.862   7.088
34307SOL    HW1 4760   7.616  10.790   7.062
34307SOL    HW2 4761   7.673  10.922   7.013
34308SOL     OW 4762   7.056   0.219   1.514
34308SOL    HW1 4763   7.139   0.194   1.475
34308SOL    HW2 4764   7.076   0.296   1.567
34309SOL     OW 4765   0.044  10.433  12.850
34309SOL    HW1 4766   0.135  10.450  12.824
34309SOL    HW2 4767   0.016  10.362  12.793
34310SOL     OW 4768   5.558   9.327   5.514
34310SOL    HW1 4769   5.584   9.413   5.483
34310SOL    HW2 4770   5.482   9.344   5.570
34311SOL     OW 4771   8.245   0.333   2.599
34311SOL    HW1 4772   8.305   0.301   2.531
34311SOL    HW2 4773   8.168   0.278   2.591
34312SOL     OW 4774   3.676   1.095   9.316
34312SOL    HW1 4775   3.707   1.022   9.369
34312SOL    HW2 4776   3.756   1.134   9.281
34313SOL     OW 4777   8.192   3.763  13.128
34313SOL    HW1 4778   8.174   3.819  13.052
34313SOL    HW2 4779   8.157   3.812  13.203
34314SOL     OW 4780  13.354  13.401  13.430
34314SOL    HW1 4781  13.264  13.433  13.426
34314SOL    HW2 4782  13.346  13.310  13.458
34315SOL     OW 4783   0.911   3.475   7.908
34315SOL    HW1 4784   0.924   3.418   7.984
34315SOL    HW2 4785   0.909   3.416   7.833
34316SOL     OW 4786   5.712   9.863   4.955
34316SOL    HW1 4787   5.700   9.862   4.860
34316SOL    HW2 4788   5.666   9.940   4.985
34317SOL     OW 4789   4.837  11.932   3.974
34317SOL    HW1 4790   4.877  12.012   3.940
34317SOL    HW2 4791   4.743  11.943   3.957
34318SOL     OW 4792   1.205   5.969  11.523
34318SOL    HW1 4793   1.264   6.003  11.591
34318SOL    HW2 4794   1.120   6.008  11.544
34319SOL     OW 4795   8.633   0.629  11.688
34319SOL    HW1 4796   8.723   0.655  11.671
34319SOL    HW2 4797   8.607   0.578  11.611
34320SOL     OW 4798  13.996  10.393   8.297
34320SOL    HW1 4799  13.994  10.338   8.219
34320SOL    HW2 4800  14.038  10.337   8.363
34321SOL     OW 4801   7.975   1.967   8.081
34321SOL    HW1 4802   7.975   2.060   8.056
34321SOL    HW2 4803   8.054   1.957   8.134
34322SOL     OW 4804   6.583  11.879   6.270
34322SOL    HW1 4805   6.515  11.864   6.204
34322SOL    HW2 4806   6.657  11.913   6.221
34323SOL     OW 4807   4.361   7.872  13.703
34323SOL    HW1 4808   4.355   7.910  13.791
34323SOL    HW2 4809   4.439   7.911  13.665
34324SOL     OW 4810   1.176   6.242   3.415
34324SOL    HW1 4811   1.167   6.201   3.329
34324SOL    HW2 4812   1.105   6.203   3.467
34325SOL     OW 4813  14.722   9.230   8.138
34325SOL    HW1 4814  14.726   9.190   8.051
34325SOL    HW2 4815  14.629   9.246   8.152
34326SOL     OW 4816  13.587   8.640   9.619
34326SOL    HW1 4817  13.630   8.676   9.696
34326SOL    HW2 4818  13.649   8.575   9.584
34327SOL     OW 4819  12.509   5.177   3.046
34327SOL    HW1 4820  12.497   5.267   3.079
34327SOL    HW2 4821  12.439   5.128   3.088
34328SOL     OW 4822   5.266  10.390   3.902
34328SOL    HW1 4823   5.349  10.438   3.904
34328SOL    HW2 4824   5.256  10.362   3.811
34329SOL     OW 4825   5.483  12.989   2.055
34329SOL    HW1 4826   5.492  13.039   2.136
34329SOL    HW2 4827   5.513  13.049   1.986
34330SOL     OW 4828   2.969   4.057   2.585
34330SOL    HW1 4829   2.895   4.061   2.645
34330SOL    HW2 4830   2.929   4.052   2.498
34331SOL     OW 4831  10.728   9.016   7.861
34331SOL    HW1 4832  10.817   9.022   7.895
34331SOL    HW2 4833  10.735   8.961   7.783
34332SOL     OW 4834  14.626  11.807  10.573
34332SOL    HW1 4835  14.568  11.825  10.646
34332SOL    HW2 4836  14.642  11.712  10.578
34333SOL     OW 4837   5.020   8.239  12.573
34333SOL    HW1 4838   5.036   8.262  12.664
34333SOL    HW2 4839   5.107   8.221  12.537
34334SOL     OW 4840   4.060   9.533  12.487
34334SOL    HW1 4841   4.068   9.576  12.401
34334SOL    HW2 4842   4.075   9.604  12.550
34335SOL     OW 4843  14.276   6.636   9.735
34335SOL    HW1 4844  14.336   6.701   9.772
34335SOL    HW2 4845  14.230   6.599   9.810
34336SOL     OW 4846   3.416   7.801  12.043
34336SOL    HW1 4847   3.445   7.880  12.088
34336SOL    HW2 4848   3.326   7.820  12.016
34337SOL     OW 4849   8.951  14.106  12.259
34337SOL    HW1 4850   8.895  14.107  12.337
34337SOL    HW2 4851   9.037  14.079  12.292
34338SOL     OW 4852  14.845   0.740   9.510
34338SOL    HW1 4853  14.828   0.759   9.602
34338SOL    HW2 4854  14.843   0.644   9.504
34339SOL     OW 4855   7.587   5.510   0.584
34339SOL    HW1 4856   7.659   5.535   0.526
34339SOL    HW2 4857   7.509   5.547   0.542
34340SOL     OW 4858   2.581  14.483   8.205
34340SOL    HW1 4859   2.510  14.462   8.145
34340SOL    HW2 4860   2.593  14.577   8.195
34341SOL     OW 4861   4.204   4.940   5.908
34341SOL    HW1 4862   4.168   4.959   5.821
34341SOL    HW2 4863   4.257   5.016   5.930
34342SOL     OW 4864  13.752   7.536   0.200
34342SOL    HW1 4865  13.684   7.592   0.238
34342SOL    HW2 4866  13.734   7.449   0.235
34343SOL     OW 4867  13.622  13.092   7.916
34343SOL    HW1 4868  13.696  13.076   7.857
34343SOL    HW2 4869  13.639  13.180   7.951
34344SOL     OW 4870   2.094   4.681   5.309
34344SOL    HW1 4871   1.998   4.677   5.311
34344SOL    HW2 4872   2.118   4.626   5.235
34345SOL     OW 4873   2.428   4.995   6.258
34345SOL    HW1 4874   2.360   5.060   6.274
34345SOL    HW2 4875   2.510   5.044   6.263
34346SOL     OW 4876   4.975   9.913   2.830
34346SOL    HW1 4877   4.913   9.932   2.759
34346SOL    HW2 4878   5.031   9.990   2.834
34347SOL     OW 4879   2.380   5.934   3.340
34347SOL    HW1 4880   2.348   5.903   3.424
34347SOL    HW2 4881   2.444   5.869   3.312
34348SOL     OW 4882   7.576   1.682   9.428
34348SOL    HW1 4883   7.593   1.595   9.392
34348SOL    HW2 4884   7.545   1.665   9.517
34349SOL     OW 4885   4.195   4.349  10.886
34349SOL    HW1 4886   4.267   4.295  10.917
34349SOL    HW2 4887   4.234   4.404  10.818
34350SOL     OW 4888   3.482   4.985  14.276
34350SOL    HW1 4889   3.440   4.939  14.350
34350SOL    HW2 4890   3.573   4.956  14.279
34351SOL     OW 4891   9.029   6.749   1.383
34351SOL    HW1 4892   9.008   6.842   1.388
34351SOL    HW2 4893   9.113   6.740   1.426
34352SOL     OW 4894   5.871  13.005  10.414
34352SOL    HW1 4895   5.937  12.971  10.475
34352SOL    HW2 4896   5.901  12.975  10.328
34353SOL     OW 4897  14.144   7.394   6.783
34353SOL    HW1 4898  14.212   7.440   6.734
34353SOL    HW2 4899  14.062   7.435   6.755
34354SOL     OW 4900   1.142   5.675   7.168
34354SOL    HW1 4901   1.170   5.707   7.254
34354SOL    HW2 4902   1.128   5.754   7.117
34355SOL     OW 4903   3.347   8.883   3.890
34355SOL    HW1 4904   3.384   8.826   3.822
34355SOL    HW2 4905   3.341   8.969   3.848
34356SOL     OW 4906   0.744   5.315  13.855
34356SOL    HW1 4907   0.705   5.396  13.822
34356SOL    HW2 4908   0.763   5.264  13.777
34357SOL     OW 4909   5.667   9.711   8.545
34357SOL    HW1 4910   5.760   9.708   8.523
34357SOL    HW2 4911   5.658   9.653   8.620
34358SOL     OW 4912  12.957   4.198  12.137
34358SOL    HW1 4913  13.041   4.159  12.160
34358SOL    HW2 4914  12.910   4.206  12.221
34359SOL     OW 4915  11.246   6.283   2.033
34359SOL    HW1 4916  11.260   6.196   2.070
34359SOL    HW2 4917  11.311   6.291   1.964
34360SOL     OW 4918   3.697  11.514   6.480
34360SOL    HW1 4919   3.780  11.465   6.478
34360SOL    HW2 4920   3.644  11.472   6.412
34361SOL     OW 4921   0.019  13.070   9.502
34361SOL    HW1 4922   0.049  13.114   9.423
34361SOL    HW2 4923   0.070  13.110   9.573
34362SOL     OW 4924   7.784   8.101   0.576
34362SOL    HW1 4925   7.846   8.171   0.598
34362SOL    HW2 4926   7.839   8.031   0.541
34363SOL     OW 4927   8.520   3.699   4.574
34363SOL    HW1 4928   8.440   3.746   4.547
34363SOL    HW2 4929   8.503   3.674   4.664
34364SOL     OW 4930   5.809   9.324  11.467
34364SOL    HW1 4931   5.834   9.240  11.507
34364SOL    HW2 4932   5.762   9.300  11.388
34365SOL     OW 4933  10.699   5.662   1.791
34365SOL    HW1 4934  10.723   5.584   1.841
34365SOL    HW2 4935  10.606   5.674   1.808
34366SOL     OW 4936  10.744   5.325  14.782
34366SOL    HW1 4937  10.651   5.311  14.765
34366SOL    HW2 4938  10.787   5.304  14.699
34367SOL     OW 4939   0.675   2.759   5.731
34367SOL    HW1 4940   0.606   2.825   5.722
34367SOL    HW2 4941   0.638   2.692   5.787
34368SOL     OW 4942  13.560  12.353  11.748
34368SOL    HW1 4943  13.638  12.371  11.696
34368SOL    HW2 4944  13.544  12.259  11.736
34369SOL     OW 4945   3.816   6.718   7.706
34369SOL    HW1 4946   3.870   6.667   7.646
34369SOL    HW2 4947   3.874   6.734   7.781
34370SOL     OW 4948  11.828   2.725  14.651
34370SOL    HW1 4949  11.793   2.644  14.613
34370SOL    HW2 4950  11.923   2.713  14.649
34371SOL     OW 4951  14.723   2.408   8.756
34371SOL    HW1 4952  14.639   2.436   8.793
34371SOL    HW2 4953  14.765   2.489   8.726
34372SOL     OW 4954   5.939   4.468  13.817
34372SOL    HW1 4955   5.976   4.513  13.741
34372SOL    HW2 4956   5.960   4.525  13.891
34373SOL     OW 4957  10.883   1.693   5.675
34373SOL    HW1 4958  10.946   1.744   5.725
34373SOL    HW2 4959  10.857   1.622   5.735
34374SOL     OW 4960   6.893  13.516  13.547
34374SOL    HW1 4961   6.848  13.596  13.521
34374SOL    HW2 4962   6.862  13.450  13.486
34375SOL     OW 4963  13.595   2.732   5.462
34375SOL    HW1 4964  13.653   2.798   5.424
34375SOL    HW2 4965  13.552   2.691   5.387
34376SOL     OW 4966   4.798  12.295   3.032
34376SOL    HW1 4967   4.886  12.318   3.002
34376SOL    HW2 4968   4.779  12.357   3.103
34377SOL     OW 4969   1.535   0.132   6.047
34377SOL    HW1 4970   1.442   0.148   6.033
34377SOL    HW2 4971   1.577   0.215   6.024
34378SOL     OW 4972   9.895   6.525  11.453
34378SOL    HW1 4973   9.879   6.474  11.373
34378SOL    HW2 4974   9.943   6.602  11.423
34379SOL     OW 4975   8.833  13.369  13.769
34379SOL    HW1 4976   8.812  13.284  13.729
34379SOL    HW2 4977   8.765  13.382  13.834
34380SOL     OW 4978  12.050   9.583   1.667
34380SOL    HW1 4979  11.975   9.614   1.617
34380SOL    HW2 4980  12.115   9.653   1.660
34381SOL     OW 4981   3.795  13.806   3.784
34381SOL    HW1 4982   3.839  13.857   3.853
34381SOL    HW2 4983   3.854  13.733   3.767
34382SOL     OW 4984   9.311   3.172   5.907
34382SOL    HW1 4985   9.278   3.177   5.997
34382SOL    HW2 4986   9.277   3.251   5.865
34383SOL     OW 4987   6.959  10.004   9.107
34383SOL    HW1 4988   7.029  10.044   9.057
34383SOL    HW2 4989   6.887   9.994   9.045
34384SOL     OW 4990   3.594   9.233   6.160
34384SOL    HW1 4991   3.662   9.298   6.178
34384SOL    HW2 4992   3.598   9.173   6.234
34385SOL     OW 4993  12.105   4.522   4.724
34385SOL    HW1 4994  12.076   4.612   4.714
34385SOL    HW2 4995  12.088   4.481   4.639
34386SOL     OW 4996  14.197   6.504   2.644
34386SOL    HW1 4997  14.103   6.521   2.639
34386SOL    HW2 4998  14.207   6.440   2.715
34387SOL     OW 4999   0.134   5.471   8.453
34387SOL    HW1 5000   0.159   5.390   8.409
34387SOL    HW2 5001   0.128   5.447   8.545
34388SOL     OW 5002   6.545  11.216  10.203
34388SOL    HW1 5003   6.586  11.277  10.141
34388SOL    HW2 5004   6.589  11.232  10.286
34389SOL     OW 5005   8.655   4.170   0.878
34389SOL    HW1 5006   8.620   4.169   0.788
34389SOL    HW2 5007   8.577   4.174   0.934
34390SOL     OW 5008  12.896   3.666   9.401
34390SOL    HW1 5009  12.940   3.584   9.379
34390SOL    HW2 5010  12.806   3.653   9.373
34391SOL     OW 5011  13.286   3.721  13.809
34391SOL    HW1 5012  13.245   3.656  13.751
34391SOL    HW2 5013  13.348   3.767  13.753
34392SOL     OW 5014   4.707  14.324   6.887
34392SOL    HW1 5015   4.675  14.312   6.976
34392SOL    HW2 5016   4.672  14.249   6.839
34393SOL     OW 5017  10.197  11.686   3.142
34393SOL    HW1 5018  10.104  11.682   3.120
34393SOL    HW2 5019  10.226  11.595   3.140
34394SOL     OW 5020   7.534  11.810   3.979
34394SOL    HW1 5021   7.508  11.832   3.889
34394SOL    HW2 5022   7.528  11.715   3.984
34395SOL     OW 5023   5.751   1.404   4.871
34395SOL    HW1 5024   5.796   1.354   4.804
34395SOL    HW2 5025   5.745   1.345   4.946
34396SOL     OW 5026  11.677  14.522   6.419
34396SOL    HW1 5027  11.663  14.439   6.374
34396SOL    HW2 5028  11.645  14.588   6.359
34397SOL     OW 5029   6.365   3.331  12.620
34397SOL    HW1 5030   6.424   3.406  12.625
34397SOL    HW2 5031   6.297   3.358  12.559
34398SOL     OW 5032   7.811  14.173   0.167
34398SOL    HW1 5033   7.773  14.107   0.226
34398SOL    HW2 5034   7.869  14.224   0.222
34399SOL     OW 5035  13.863  11.767   4.847
34399SOL    HW1 5036  13.938  11.819   4.877
34399SOL    HW2 5037  13.849  11.795   4.757
34400SOL     OW 5038   4.542   2.242   4.135
34400SOL    HW1 5039   4.599   2.170   4.109
34400SOL    HW2 5040   4.502   2.272   4.054
34401SOL     OW 5041   7.830   3.765   0.713
34401SOL    HW1 5042   7.839   3.671   0.698
34401SOL    HW2 5043   7.814   3.774   0.807
34402SOL     OW 5044  14.709   3.620  13.557
34402SOL    HW1 5045  14.630   3.640  13.506
34402SOL    HW2 5046  14.706   3.682  13.630
34403SOL     OW 5047   2.384   1.483   0.008
34403SOL    HW1 5048   2.462   1.529  14.853
34403SOL    HW2 5049   2.327   1.552   0.042
34404SOL     OW 5050   7.229  12.786  10.936
34404SOL    HW1 5051   7.247  12.702  10.893
34404SOL    HW2 5052   7.300  12.843  10.906
34405SOL     OW 5053   9.861   4.783   5.755
34405SOL    HW1 5054   9.912   4.852   5.798
34405SOL    HW2 5055   9.784   4.828   5.720
34406SOL     OW 5056  13.550  13.259  13.803
34406SOL    HW1 5057  13.555  13.196  13.732
34406SOL    HW2 5058  13.587  13.340  13.767
34407SOL     OW 5059   1.734  11.501  14.442
34407SOL    HW1 5060   1.682  11.428  14.477
34407SOL    HW2 5061   1.820  11.462  14.422
34408SOL     OW 5062  11.767   9.984  13.884
34408SOL    HW1 5063  11.787   9.941  13.801
34408SOL    HW2 5064  11.851  10.021  13.912
34409SOL     OW 5065   4.493  10.039   4.142
34409SOL    HW1 5066   4.425  10.040   4.074
34409SOL    HW2 5067   4.569  10.000   4.100
34410SOL     OW 5068  12.474  12.579   9.017
34410SOL    HW1 5069  12.524  12.614   8.943
34410SOL    HW2 5070  12.540  12.563   9.085
34411SOL     OW 5071  10.306   1.725   6.784
34411SOL    HW1 5072  10.242   1.680   6.729
34411SOL    HW2 5073  10.311   1.673   6.864
34412SOL     OW 5074  10.824  10.699   3.449
34412SOL    HW1 5075  10.785  10.654   3.374
34412SOL    HW2 5076  10.916  10.672   3.447
34413SOL     OW 5077   0.254  13.913   4.425
34413SOL    HW1 5078   0.319  13.961   4.375
34413SOL    HW2 5079   0.294  13.900   4.511
34414SOL     OW 5080   4.840   3.550   6.065
34414SOL    HW1 5081   4.842   3.646   6.062
34414SOL    HW2 5082   4.749   3.529   6.087
34415SOL     OW 5083   0.502   9.438  11.587
34415SOL    HW1 5084   0.419   9.391  11.585
34415SOL    HW2 5085   0.562   9.385  11.534
34416SOL     OW 5086   6.112  10.923  14.271
34416SOL    HW1 5087   6.035  10.912  14.216
34416SOL    HW2 5088   6.145  10.834  14.283
34417SOL     OW 5089   6.870   2.085  11.465
34417SOL    HW1 5090   6.809   2.053  11.532
34417SOL    HW2 5091   6.830   2.058  11.382
34418SOL     OW 5092   5.877  12.514   6.754
34418SOL    HW1 5093   5.903  12.598   6.716
34418SOL    HW2 5094   5.935  12.504   6.830
34419SOL     OW 5095   7.071   3.690   5.186
34419SOL    HW1 5096   6.980   3.702   5.213
34419SOL    HW2 5097   7.120   3.686   5.269
34420SOL     OW 5098   4.305   2.093   6.091
34420SOL    HW1 5099   4.237   2.026   6.099
34420SOL    HW2 5100   4.286   2.155   6.161
34421SOL     OW 5101   0.869  14.553   1.527
34421SOL    HW1 5102   0.866  14.642   1.492
34421SOL    HW2 5103   0.782  14.517   1.509
34422SOL     OW 5104  10.851   9.429   3.549
34422SOL    HW1 5105  10.889   9.463   3.468
34422SOL    HW2 5106  10.917   9.448   3.616
34423SOL     OW 5107   5.793  13.139   6.181
34423SOL    HW1 5108   5.822  13.210   6.124
34423SOL    HW2 5109   5.770  13.068   6.121
34424SOL     OW 5110   7.891  12.314  11.149
34424SOL    HW1 5111   7.959  12.360  11.197
34424SOL    HW2 5112   7.811  12.364  11.168
34425SOL     OW 5113   0.834   2.710   3.957
34425SOL    HW1 5114   0.924   2.702   3.989
34425SOL    HW2 5115   0.781   2.667   4.024
34426SOL     OW 5116   9.940   5.439   6.901
34426SOL    HW1 5117   9.856   5.445   6.946
34426SOL    HW2 5118   9.937   5.355   6.856
34427SOL     OW 5119   8.685   9.326   8.365
34427SOL    HW1 5120   8.607   9.309   8.418
34427SOL    HW2 5121   8.746   9.256   8.389
34428SOL     OW 5122   9.793  10.029   3.810
34428SOL    HW1 5123   9.800   9.938   3.784
34428SOL    HW2 5124   9.882  10.055   3.833
34429SOL     OW 5125   1.924   0.575  14.308
34429SOL    HW1 5126   1.976   0.515  14.363
34429SOL    HW2 5127   1.837   0.574  14.348
34430SOL     OW 5128   7.970  14.577   7.763
34430SOL    HW1 5129   8.007  14.644   7.706
34430SOL    HW2 5130   8.046  14.531   7.799
34431SOL     OW 5131   3.593   6.685   5.853
34431SOL    HW1 5132   3.519   6.637   5.889
34431SOL    HW2 5133   3.645   6.619   5.808
34432SOL     OW 5134   4.136  12.490   6.232
34432SOL    HW1 5135   4.173  12.510   6.146
34432SOL    HW2 5136   4.076  12.418   6.215
34433SOL     OW 5137   8.517   2.630   4.994
34433SOL    HW1 5138   8.572   2.708   4.983
34433SOL    HW2 5139   8.428   2.664   5.001
34434SOL     OW 5140  14.351   8.719   9.154
34434SOL    HW1 5141  14.287   8.683   9.217
34434SOL    HW2 5142  14.433   8.723   9.203
34435SOL     OW 5143  13.329   6.560   5.103
34435SOL    HW1 5144  13.360   6.486   5.155
34435SOL    HW2 5145  13.406   6.589   5.054
34436SOL     OW 5146  11.233  14.088   9.788
34436SOL    HW1 5147  11.293  14.124   9.853
34436SOL    HW2 5148  11.251  13.994   9.787
34437SOL     OW 5149   3.535   9.925   7.010
34437SOL    HW1 5150   3.467   9.972   7.059
34437SOL    HW2 5151   3.487   9.883   6.938
34438SOL     OW 5152   8.717  12.013   8.349
34438SOL    HW1 5153   8.763  12.075   8.292
34438SOL    HW2 5154   8.787  11.967   8.395
34439SOL     OW 5155   0.946   7.933   2.520
34439SOL    HW1 5156   0.858   7.916   2.487
34439SOL    HW2 5157   0.940   7.916   2.614
34440SOL     OW 5158  12.090   8.999  14.345
34440SOL    HW1 5159  12.034   9.056  14.292
34440SOL    HW2 5160  12.164   8.978  14.287
34441SOL     OW 5161   0.373   4.768   7.803
34441SOL    HW1 5162   0.320   4.843   7.776
34441SOL    HW2 5163   0.461   4.804   7.817
34442SOL     OW 5164   8.321   9.144  10.073
34442SOL    HW1 5165   8.332   9.187  10.158
34442SOL    HW2 5166   8.323   9.050  10.093
34443SOL     OW 5167   3.580   6.485   1.944
34443SOL    HW1 5168   3.647   6.511   2.008
34443SOL    HW2 5169   3.563   6.393   1.963
34444SOL     OW 5170   4.662  14.711   0.463
34444SOL    HW1 5171   4.680  14.805   0.463
34444SOL    HW2 5172   4.607  14.698   0.386
34445SOL     OW 5173   5.255   2.172   5.436
34445SOL    HW1 5174   5.178   2.139   5.484
34445SOL    HW2 5175   5.223   2.186   5.347
34446SOL     OW 5176  11.618   8.326   4.525
34446SOL    HW1 5177  11.599   8.262   4.457
34446SOL    HW2 5178  11.712   8.317   4.541
34447SOL     OW 5179   0.110  14.759   8.206
34447SOL    HW1 5180   0.151  14.790   8.287
34447SOL    HW2 5181   0.082  14.670   8.226
34448SOL     OW 5182   6.040   8.004   7.594
34448SOL    HW1 5183   5.976   8.016   7.664
34448SOL    HW2 5184   6.050   7.909   7.586
34449SOL     OW 5185   7.131   6.259   9.203
34449SOL    HW1 5186   7.107   6.176   9.244
34449SOL    HW2 5187   7.053   6.285   9.154
34450SOL     OW 5188   6.710  11.408   1.960
34450SOL    HW1 5189   6.705  11.323   1.916
34450SOL    HW2 5190   6.797  11.409   2.000
34451SOL     OW 5191   8.299  12.447   8.658
34451SOL    HW1 5192   8.382  12.399   8.662
34451SOL    HW2 5193   8.323  12.538   8.673
34452SOL     OW 5194  14.442  12.644   4.148
34452SOL    HW1 5195  14.528  12.621   4.113
34452SOL    HW2 5196  14.388  12.661   4.071
34453SOL     OW 5197   0.467  10.211   2.288
34453SOL    HW1 5198   0.478  10.273   2.361
34453SOL    HW2 5199   0.431  10.133   2.329
34454SOL     OW 5200   4.875   7.325  11.296
34454SOL    HW1 5201   4.951   7.339  11.238
34454SOL    HW2 5202   4.865   7.230  11.300
34455SOL     OW 5203  11.606   2.290   1.740
34455SOL    HW1 5204  11.608   2.209   1.688
34455SOL    HW2 5205  11.694   2.298   1.776
34456SOL     OW 5206   4.658   7.319   3.323
34456SOL    HW1 5207   4.650   7.373   3.402
34456SOL    HW2 5208   4.730   7.259   3.343
34457SOL     OW 5209  10.838   8.456  13.921
34457SOL    HW1 5210  10.892   8.472  13.844
34457SOL    HW2 5211  10.899   8.420  13.986
34458SOL     OW 5212   7.679  12.196   9.218
34458SOL    HW1 5213   7.720  12.260   9.160
34458SOL    HW2 5214   7.676  12.240   9.303
34459SOL     OW 5215   9.698   7.143  10.652
34459SOL    HW1 5216   9.720   7.200  10.579
34459SOL    HW2 5217   9.654   7.068  10.611
34460SOL     OW 5218   2.431  10.591   3.489
34460SOL    HW1 5219   2.482  10.603   3.570
34460SOL    HW2 5220   2.408  10.498   3.490
34461SOL     OW 5221   8.565   2.549   8.084
34461SOL    HW1 5222   8.608   2.536   8.168
34461SOL    HW2 5223   8.567   2.462   8.043
34462SOL     OW 5224   4.529   8.380   7.207
34462SOL    HW1 5225   4.610   8.427   7.186
34462SOL    HW2 5226   4.558   8.304   7.258
34463SOL     OW 5227   3.492   2.985  14.217
34463SOL    HW1 5228   3.404   3.019  14.233
34463SOL    HW2 5229   3.530   2.973  14.304
34464SOL     OW 5230  12.787   5.262   7.701
34464SOL    HW1 5231  12.729   5.191   7.729
34464SOL    HW2 5232  12.744   5.342   7.730
34465SOL     OW 5233   5.719   3.445   3.651
34465SOL    HW1 5234   5.676   3.401   3.578
34465SOL    HW2 5235   5.808   3.463   3.620
34466SOL     OW 5236  12.803  12.631   5.577
34466SOL    HW1 5237  12.807  12.627   5.672
34466SOL    HW2 5238  12.834  12.719   5.556
34467SOL     OW 5239   5.016   7.581  13.381
34467SOL    HW1 5240   4.994   7.595  13.289
34467SOL    HW2 5241   5.084   7.514  13.379
34468SOL     OW 5242   8.542   1.303   2.651
34468SOL    HW1 5243   8.566   1.346   2.569
34468SOL    HW2 5244   8.600   1.342   2.717
34469SOL     OW 5245   4.951   1.699   9.183
34469SOL    HW1 5246   4.962   1.726   9.092
34469SOL    HW2 5247   4.945   1.781   9.232
34470SOL     OW 5248  11.293   7.627  11.476
34470SOL    HW1 5249  11.368   7.588  11.519
34470SOL    HW2 5250  11.253   7.554  11.427
34471SOL     OW 5251   5.801   3.262  11.850
34471SOL    HW1 5252   5.879   3.236  11.802
34471SOL    HW2 5253   5.734   3.273  11.784
34472SOL     OW 5254   5.424   3.034  13.733
34472SOL    HW1 5255   5.478   2.955  13.733
34472SOL    HW2 5256   5.476   3.099  13.686
34473SOL     OW 5257   1.074   0.550  10.645
34473SOL    HW1 5258   1.107   0.515  10.728
34473SOL    HW2 5259   1.067   0.644  10.659
34474SOL     OW 5260   1.694   5.977   3.029
34474SOL    HW1 5261   1.598   5.971   3.024
34474SOL    HW2 5262   1.723   5.959   2.939
34475SOL     OW 5263   4.208   9.882   4.285
34475SOL    HW1 5264   4.205   9.902   4.379
34475SOL    HW2 5265   4.295   9.844   4.272
34476SOL     OW 5266   7.432   3.202   2.888
34476SOL    HW1 5267   7.402   3.286   2.922
34476SOL    HW2 5268   7.454   3.150   2.965
34477SOL     OW 5269  11.700   7.625   2.307
34477SOL    HW1 5270  11.719   7.668   2.224
34477SOL    HW2 5271  11.783   7.587   2.334
34478SOL     OW 5272   2.723   8.658   5.356
34478SOL    HW1 5273   2.728   8.706   5.273
34478SOL    HW2 5274   2.689   8.723   5.419
34479SOL     OW 5275   6.710  14.355   5.605
34479SOL    HW1 5276   6.684  14.445   5.588
34479SOL    HW2 5277   6.707  14.312   5.519
34480SOL     OW 5278  10.584  11.010   9.121
34480SOL    HW1 5279  10.524  10.951   9.166
34480SOL    HW2 5280  10.671  10.970   9.132
34481SOL     OW 5281  14.561   4.493  11.466
34481SOL    HW1 5282  14.493   4.557  11.487
34481SOL    HW2 5283  14.569   4.497  11.371
34482SOL     OW 5284   9.964   1.112   6.740
34482SOL    HW1 5285   9.985   1.019   6.731
34482SOL    HW2 5286  10.000   1.137   6.825
34483SOL     OW 5287  10.309  12.365   8.585
34483SOL    HW1 5288  10.245  12.354   8.514
34483SOL    HW2 5289  10.385  12.313   8.557
34484SOL     OW 5290  14.787   4.049   4.132
34484SOL    HW1 5291  14.816   4.022   4.219
34484SOL    HW2 5292  14.692   4.046   4.136
34485SOL     OW 5293   5.597  10.386   5.911
34485SOL    HW1 5294   5.673  10.408   5.856
34485SOL    HW2 5295   5.535  10.345   5.851
34486SOL     OW 5296   1.325   7.578   1.877
34486SOL    HW1 5297   1.308   7.625   1.795
34486SOL    HW2 5298   1.282   7.493   1.865
34487SOL     OW 5299   8.261   8.414   7.348
34487SOL    HW1 5300   8.259   8.484   7.282
34487SOL    HW2 5301   8.247   8.334   7.298
34488SOL     OW 5302   4.613   9.869   6.541
34488SOL    HW1 5303   4.532   9.920   6.536
34488SOL    HW2 5304   4.629   9.841   6.451
34489SOL     OW 5305   4.681   9.483  11.684
34489SOL    HW1 5306   4.655   9.424  11.755
34489SOL    HW2 5307   4.681   9.570  11.723
34490SOL     OW 5308   2.641   4.843   3.528
34490SOL    HW1 5309   2.554   4.826   3.494
34490SOL    HW2 5310   2.694   4.768   3.500
34491SOL     OW 5311  13.055  11.746  12.884
34491SOL    HW1 5312  12.968  11.712  12.906
34491SOL    HW2 5313  13.052  11.837  12.911
34492SOL     OW 5314   2.380  12.228   5.087
34492SOL    HW1 5315   2.375  12.144   5.043
34492SOL    HW2 5316   2.398  12.206   5.179
34493SOL     OW 5317   0.403   0.033  11.363
34493SOL    HW1 5318   0.452   0.019  11.282
34493SOL    HW2 5319   0.342   0.104  11.343
34494SOL     OW 5320  13.720   3.894  10.572
34494SOL    HW1 5321  13.792   3.850  10.616
34494SOL    HW2 5322  13.762   3.948  10.505
34495SOL     OW 5323   0.724   5.558   3.957
34495SOL    HW1 5324   0.704   5.476   4.001
34495SOL    HW2 5325   0.728   5.623   4.027
34496SOL     OW 5326  14.444   9.623   6.698
34496SOL    HW1 5327  14.524   9.654   6.739
34496SOL    HW2 5328  14.450   9.528   6.701
34497SOL     OW 5329   4.046   0.604   6.604
34497SOL    HW1 5330   4.069   0.526   6.553
34497SOL    HW2 5331   4.128   0.653   6.610
34498SOL     OW 5332   3.788   6.519   4.739
34498SOL    HW1 5333   3.854   6.482   4.680
34498SOL    HW2 5334   3.839   6.551   4.814
34499SOL     OW 5335  14.342   4.277   9.528
34499SOL    HW1 5336  14.367   4.186   9.512
34499SOL    HW2 5337  14.414   4.313   9.579
34500SOL     OW 5338  13.669   8.615  13.118
34500SOL    HW1 5339  13.636   8.536  13.161
34500SOL    HW2 5340  13.694   8.585  13.030
34501SOL     OW 5341  12.196  13.111   9.458
34501SOL    HW1 5342  12.232  13.148   9.539
34501SOL    HW2 5343  12.194  13.016   9.473
34502SOL     OW 5344   0.636   7.868   2.853
34502SOL    HW1 5345   0.583   7.892   2.929
34502SOL    HW2 5346   0.642   7.773   2.857
34503SOL     OW 5347   5.872   9.412   5.639
34503SOL    HW1 5348   5.960   9.441   5.616
34503SOL    HW2 5349   5.814   9.465   5.584
34504SOL     OW 5350   2.384  10.156  14.747
34504SOL    HW1 5351   2.441  10.102  14.801
34504SOL    HW2 5352   2.415  10.142  14.657
34505SOL     OW 5353  12.833   4.286   5.398
34505SOL    HW1 5354  12.860   4.373   5.426
34505SOL    HW2 5355  12.791   4.300   5.314
34506SOL     OW 5356   7.109  13.174   4.475
34506SOL    HW1 5357   7.158  13.094   4.461
34506SOL    HW2 5358   7.114  13.190   4.569
34507SOL     OW 5359   1.665   8.107   4.155
34507SOL    HW1 5360   1.699   8.083   4.069
34507SOL    HW2 5361   1.706   8.192   4.175
34508SOL     OW 5362  11.882   9.020   4.323
34508SOL    HW1 5363  11.952   9.056   4.269
34508SOL    HW2 5364  11.809   9.008   4.262
34509SOL     OW 5365   7.573  13.275   1.248
34509SOL    HW1 5366   7.665  13.299   1.253
34509SOL    HW2 5367   7.563  13.231   1.164
34510SOL     OW 5368   0.811  10.214   9.167
34510SOL    HW1 5369   0.828  10.127   9.131
34510SOL    HW2 5370   0.866  10.219   9.245
34511SOL     OW 5371  10.378   6.926  10.393
34511SOL    HW1 5372  10.395   6.882  10.476
34511SOL    HW2 5373  10.430   7.007  10.397
34512SOL     OW 5374  10.452   6.075   9.231
34512SOL    HW1 5375  10.526   6.096   9.287
34512SOL    HW2 5376  10.435   5.982   9.245
34513SOL     OW 5377   9.145   9.161  11.739
34513SOL    HW1 5378   9.076   9.155  11.806
34513SOL    HW2 5379   9.197   9.082  11.750
34514SOL     OW 5380   9.417  12.845  11.446
34514SOL    HW1 5381   9.326  12.815  11.447
34514SOL    HW2 5382   9.444  12.834  11.355
34515SOL     OW 5383   5.358   0.953   7.309
34515SOL    HW1 5384   5.409   0.886   7.355
34515SOL    HW2 5385   5.370   0.933   7.216
34516SOL     OW 5386  12.820  11.454   4.825
34516SOL    HW1 5387  12.832  11.359   4.835
34516SOL    HW2 5388  12.868  11.476   4.745
34517SOL     OW 5389   9.340  13.791   8.639
34517SOL    HW1 5390   9.382  13.718   8.684
34517SOL    HW2 5391   9.410  13.854   8.625
34518SOL     OW 5392   4.125   8.777   1.955
34518SOL    HW1 5393   4.138   8.683   1.943
34518SOL    HW2 5394   4.206   8.807   1.997
34519SOL     OW 5395   8.907   9.623   1.337
34519SOL    HW1 5396   8.978   9.574   1.378
34519SOL    HW2 5397   8.829   9.571   1.351
34520SOL     OW 5398   2.290   6.075   1.900
34520SOL    HW1 5399   2.295   6.110   1.989
34520SOL    HW2 5400   2.285   6.153   1.844
34521SOL     OW 5401  14.788   7.113   7.068
34521SOL    HW1 5402   0.003   7.091   7.088
34521SOL    HW2 5403  14.790   7.207   7.048
34522SOL     OW 5404   9.867   8.366  11.648
34522SOL    HW1 5405   9.843   8.421  11.722
34522SOL    HW2 5406   9.835   8.279  11.671
34523SOL     OW 5407  12.400   2.971   4.436
34523SOL    HW1 5408  12.376   3.059   4.407
34523SOL    HW2 5409  12.361   2.962   4.522
34524SOL     OW 5410   6.812   6.743   2.268
34524SOL    HW1 5411   6.837   6.703   2.351
34524SOL    HW2 5412   6.888   6.728   2.211
34525SOL     OW 5413   6.760   2.837   5.514
34525SOL    HW1 5414   6.810   2.835   5.596
34525SOL    HW2 5415   6.669   2.828   5.542
34526SOL     OW 5416   2.233   3.493   7.888
34526SOL    HW1 5417   2.153   3.473   7.936
34526SOL    HW2 5418   2.297   3.517   7.955
34527SOL     OW 5419   9.922  12.469   3.004
34527SOL    HW1 5420   9.929  12.545   2.945
34527SOL    HW2 5421   9.909  12.394   2.945
34528SOL     OW 5422  11.403   3.662   2.526
34528SOL    HW1 5423  11.330   3.600   2.530
34528SOL    HW2 5424  11.385   3.724   2.596
34529SOL     OW 5425   4.533  14.571   2.956
34529SOL    HW1 5426   4.458  14.584   2.898
34529SOL    HW2 5427   4.494  14.551   3.041
34530SOL     OW 5428  14.809  10.659   7.943
34530SOL    HW1 5429  14.722  10.695   7.959
34530SOL    HW2 5430  14.869  10.720   7.986
34531SOL     OW 5431  13.689   8.676   3.532
34531SOL    HW1 5432  13.681   8.599   3.475
34531SOL    HW2 5433  13.782   8.684   3.549
34532SOL     OW 5434   1.757   1.833   8.811
34532SOL    HW1 5435   1.747   1.764   8.746
34532SOL    HW2 5436   1.852   1.846   8.818
34533SOL     OW 5437   4.762  11.781   7.821
34533SOL    HW1 5438   4.678  11.766   7.779
34533SOL    HW2 5439   4.795  11.862   7.781
34534SOL     OW 5440   5.333  10.175   2.796
34534SOL    HW1 5441   5.375  10.093   2.824
34534SOL    HW2 5442   5.394  10.212   2.733
34535SOL     OW 5443   9.336  13.242   8.845
34535SOL    HW1 5444   9.398  13.184   8.801
34535SOL    HW2 5445   9.371  13.330   8.831
34536SOL     OW 5446  11.873  13.296   3.148
34536SOL    HW1 5447  11.965  13.309   3.124
34536SOL    HW2 5448  11.875  13.249   3.231
34537SOL     OW 5449   7.457   2.324  14.709
34537SOL    HW1 5450   7.407   2.405  14.721
34537SOL    HW2 5451   7.396   2.255  14.732
34538SOL     OW 5452   6.644   1.852   8.895
34538SOL    HW1 5453   6.624   1.883   8.984
34538SOL    HW2 5454   6.690   1.769   8.908
34539SOL     OW 5455  13.051  14.821   0.871
34539SOL    HW1 5456  13.001   0.020   0.902
34539SOL    HW2 5457  12.999  14.785   0.799
34540SOL     OW 5458  13.544  12.330  12.605
34540SOL    HW1 5459  13.575  12.347  12.516
34540SOL    HW2 5460  13.538  12.417  12.646
34541SOL     OW 5461   3.095  10.445   4.744
34541SOL    HW1 5462   3.167  10.414   4.799
34541SOL    HW2 5463   3.042  10.499   4.803
34542SOL     OW 5464   1.188  10.106   2.467
34542SOL    HW1 5465   1.276  10.125   2.432
34542SOL    HW2 5466   1.163  10.024   2.424
34543SOL     OW 5467  12.479   9.842   6.129
34543SOL    HW1 5468  12.547   9.782   6.160
34543SOL    HW2 5469  12.450   9.887   6.208
34544SOL     OW 5470   2.479   9.984   8.144
34544SOL    HW1 5471   2.409   9.944   8.195
34544SOL    HW2 5472   2.482  10.075   8.175
34545SOL     OW 5473   1.649  14.599   5.611
34545SOL    HW1 5474   1.627  14.642   5.694
34545SOL    HW2 5475   1.729  14.550   5.630
34546SOL     OW 5476  10.084   6.442   4.281
34546SOL    HW1 5477  10.151   6.496   4.322
34546SOL    HW2 5478  10.121   6.416   4.197
34547SOL     OW 5479  10.315   0.516  13.865
34547SOL    HW1 5480  10.372   0.569  13.809
34547SOL    HW2 5481  10.313   0.563  13.948
34548SOL     OW 5482   0.284   1.301  11.884
34548SOL    HW1 5483   0.359   1.348  11.848
34548SOL    HW2 5484   0.321   1.226  11.930
34549SOL     OW 5485  12.375  12.953  11.721
34549SOL    HW1 5486  12.469  12.954  11.742
34549SOL    HW2 5487  12.366  13.014  11.648
34550SOL     OW 5488   4.260  12.631  11.198
34550SOL    HW1 5489   4.279  12.725  11.203
34550SOL    HW2 5490   4.345  12.589  11.208
34551SOL     OW 5491   4.827   8.481   5.855
34551SOL    HW1 5492   4.766   8.407   5.846
34551SOL    HW2 5493   4.880   8.458   5.931
34552SOL     OW 5494   9.751  11.249   2.266
34552SOL    HW1 5495   9.738  11.166   2.313
34552SOL    HW2 5496   9.790  11.307   2.331
34553SOL     OW 5497  11.025   1.798   5.909
34553SOL    HW1 5498  11.104   1.803   5.962
34553SOL    HW2 5499  10.953   1.801   5.972
34554SOL     OW 5500   5.163   6.572  11.008
34554SOL    HW1 5501   5.085   6.559  10.955
34554SOL    HW2 5502   5.171   6.491  11.059
34555SOL     OW 5503  14.817  11.246   8.832
34555SOL    HW1 5504  14.746  11.188   8.859
34555SOL    HW2 5505  14.779  11.300   8.762
34556SOL     OW 5506  12.979   5.642   5.306
34556SOL    HW1 5507  12.924   5.626   5.230
34556SOL    HW2 5508  13.058   5.684   5.271
34557SOL     OW 5509   2.650   6.591   8.402
34557SOL    HW1 5510   2.665   6.497   8.398
34557SOL    HW2 5511   2.685   6.624   8.319
34558SOL     OW 5512   1.266   9.739   7.653
34558SOL    HW1 5513   1.235   9.659   7.695
34558SOL    HW2 5514   1.354   9.718   7.622
34559SOL     OW 5515   4.591   6.117  11.489
34559SOL    HW1 5516   4.502   6.102  11.456
34559SOL    HW2 5517   4.640   6.150  11.414
34560SOL     OW 5518   1.313   3.257   5.964
34560SOL    HW1 5519   1.407   3.274   5.970
34560SOL    HW2 5520   1.275   3.339   5.935
34561SOL     OW 5521   8.978   7.323   2.683
34561SOL    HW1 5522   8.926   7.394   2.647
34561SOL    HW2 5523   8.937   7.243   2.649
34562SOL     OW 5524   6.872  13.660   5.942
34562SOL    HW1 5525   6.777  13.655   5.932
34562SOL    HW2 5526   6.885  13.702   6.027
34563SOL     OW 5527   7.393  14.665  14.673
34563SOL    HW1 5528   7.355  14.710  14.598
34563SOL    HW2 5529   7.318  14.640  14.727
34564SOL     OW 5530   0.217  10.152   6.860
34564SOL    HW1 5531   0.201  10.114   6.774
34564SOL    HW2 5532   0.242  10.079   6.915
34565SOL     OW 5533   9.406   2.591  14.350
34565SOL    HW1 5534   9.393   2.674  14.394
34565SOL    HW2 5535   9.435   2.615  14.261
34566SOL     OW 5536  11.805   6.599   7.178
34566SOL    HW1 5537  11.856   6.542   7.120
34566SOL    HW2 5538  11.869   6.660   7.215
34567SOL     OW 5539  14.779   2.330  13.406
34567SOL    HW1 5540  14.779   2.255  13.464
34567SOL    HW2 5541  14.866   2.368  13.414
34568SOL     OW 5542   4.063   2.012   2.280
34568SOL    HW1 5543   4.064   2.107   2.292
34568SOL    HW2 5544   4.104   1.977   2.360
34569SOL     OW 5545  12.984  11.521   9.107
34569SOL    HW1 5546  13.046  11.510   9.035
34569SOL    HW2 5547  13.028  11.483   9.183
34570SOL     OW 5548   2.845  10.899   8.124
34570SOL    HW1 5549   2.857  10.861   8.037
34570SOL    HW2 5550   2.893  10.982   8.120
34571SOL     OW 5551   0.543   5.863   3.093
34571SOL    HW1 5552   0.529   5.776   3.131
34571SOL    HW2 5553   0.458   5.886   3.055
34572SOL     OW 5554   4.484   3.753   8.183
34572SOL    HW1 5555   4.421   3.820   8.208
34572SOL    HW2 5556   4.513   3.715   8.266
34573SOL     OW 5557   4.192  10.632   8.494
34573SOL    HW1 5558   4.220  10.662   8.580
34573SOL    HW2 5559   4.211  10.538   8.494
34574SOL     OW 5560   7.666   3.435   6.175
34574SOL    HW1 5561   7.640   3.521   6.142
34574SOL    HW2 5562   7.760   3.429   6.158
34575SOL     OW 5563   5.194   0.650   7.462
34575SOL    HW1 5564   5.121   0.614   7.513
34575SOL    HW2 5565   5.155   0.720   7.410
34576SOL     OW 5566   3.222   6.348   0.217
34576SOL    HW1 5567   3.177   6.310   0.293
34576SOL    HW2 5568   3.181   6.307   0.142
34577SOL     OW 5569   5.508  10.886   7.510
34577SOL    HW1 5570   5.512  10.948   7.437
34577SOL    HW2 5571   5.519  10.800   7.469
34578SOL     OW 5572   5.691   1.078  11.932
34578SOL    HW1 5573   5.688   0.986  11.958
34578SOL    HW2 5574   5.734   1.122  12.006
34579SOL     OW 5575   4.240   9.123   2.009
34579SOL    HW1 5576   4.327   9.149   2.038
34579SOL    HW2 5577   4.228   9.035   2.045
34580SOL     OW 5578   1.701   1.222   1.077
34580SOL    HW1 5579   1.667   1.175   1.153
34580SOL    HW2 5580   1.625   1.266   1.039
34581SOL     OW 5581   2.739   4.549   6.022
34581SOL    HW1 5582   2.742   4.478   6.087
34581SOL    HW2 5583   2.661   4.599   6.045
34582SOL     OW 5584   6.120  13.034  12.200
34582SOL    HW1 5585   6.116  13.105  12.264
34582SOL    HW2 5586   6.155  12.959  12.248
34583SOL     OW 5587   3.999   8.273   0.582
34583SOL    HW1 5588   3.940   8.200   0.601
34583SOL    HW2 5589   3.952   8.325   0.516
34584SOL     OW 5590  13.591   9.535   0.532
34584SOL    HW1 5591  13.641   9.616   0.542
34584SOL    HW2 5592  13.615   9.502   0.446
34585SOL     OW 5593  11.613   1.924  12.246
34585SOL    HW1 5594  11.540   1.884  12.200
34585SOL    HW2 5595  11.690   1.875  12.216
34586SOL     OW 5596   7.765  14.276   4.395
34586SOL    HW1 5597   7.794  14.199   4.346
34586SOL    HW2 5598   7.845  14.311   4.435
34587SOL     OW 5599   9.872   5.143   6.542
34587SOL    HW1 5600   9.861   5.187   6.457
34587SOL    HW2 5601   9.938   5.076   6.525
34588SOL     OW 5602   4.370   8.146   4.091
34588SOL    HW1 5603   4.453   8.163   4.047
34588SOL    HW2 5604   4.330   8.075   4.041
34589SOL     OW 5605   4.683   3.483   0.352
34589SOL    HW1 5606   4.725   3.428   0.287
34589SOL    HW2 5607   4.696   3.573   0.322
34590SOL     OW 5608   2.894   9.513   5.419
34590SOL    HW1 5609   2.876   9.420   5.409
34590SOL    HW2 5610   2.910   9.544   5.330
34591SOL     OW 5611  10.218   8.750  12.620
34591SOL    HW1 5612  10.154   8.813  12.587
34591SOL    HW2 5613  10.290   8.753  12.556
34592SOL     OW 5614   2.692  12.942  14.455
34592SOL    HW1 5615   2.707  12.872  14.518
34592SOL    HW2 5616   2.602  12.928  14.426
34593SOL     OW 5617  14.844   0.432  13.013
34593SOL    HW1 5618  14.752   0.443  13.036
34593SOL    HW2 5619   0.002   0.521  13.009
34594SOL     OW 5620   6.943   8.153  12.635
34594SOL    HW1 5621   6.920   8.234  12.591
34594SOL    HW2 5622   6.929   8.085  12.569
34595SOL     OW 5623  10.325   0.026  10.829
34595SOL    HW1 5624  10.334   0.121  10.840
34595SOL    HW2 5625  10.237   0.006  10.862
34596SOL     OW 5626   7.294  14.492   5.091
34596SOL    HW1 5627   7.314  14.450   5.175
34596SOL    HW2 5628   7.280  14.584   5.112
34597SOL     OW 5629   5.480  12.481  14.017
34597SOL    HW1 5630   5.416  12.524  13.961
34597SOL    HW2 5631   5.476  12.529  14.100
34598SOL     OW 5632  14.495   8.780  12.775
34598SOL    HW1 5633  14.445   8.740  12.847
34598SOL    HW2 5634  14.569   8.721  12.762
34599SOL     OW 5635   1.081  10.451   0.161
34599SOL    HW1 5636   1.143  10.473   0.230
34599SOL    HW2 5637   0.999  10.493   0.187
34600SOL     OW 5638  10.939  11.153  14.233
34600SOL    HW1 5639  11.030  11.126  14.218
34600SOL    HW2 5640  10.909  11.094  14.303
34601SOL     OW 5641  11.171   4.565   5.318
34601SOL    HW1 5642  11.188   4.650   5.277
34601SOL    HW2 5643  11.103   4.583   5.383
34602SOL     OW 5644   0.775  12.368   8.747
34602SOL    HW1 5645   0.784  12.355   8.653
34602SOL    HW2 5646   0.828  12.300   8.787
34603SOL     OW 5647   5.533   1.251   4.618
34603SOL    HW1 5648   5.597   1.183   4.597
34603SOL    HW2 5649   5.582   1.316   4.669
34604SOL     OW 5650   1.695  11.437  12.961
34604SOL    HW1 5651   1.726  11.375  13.027
34604SOL    HW2 5652   1.697  11.522  13.005
34605SOL     OW 5653   7.024   8.553   5.387
34605SOL    HW1 5654   7.094   8.612   5.415
34605SOL    HW2 5655   7.067   8.488   5.332
34606SOL     OW 5656   1.281   5.197   8.178
34606SOL    HW1 5657   1.295   5.103   8.162
34606SOL    HW2 5658   1.218   5.223   8.111
34607SOL     OW 5659   7.213   8.525  13.595
34607SOL    HW1 5660   7.223   8.508  13.689
34607SOL    HW2 5661   7.294   8.568  13.570
34608SOL     OW 5662   6.935   6.299   0.387
34608SOL    HW1 5663   6.847   6.334   0.376
34608SOL    HW2 5664   6.985   6.335   0.313
34609SOL     OW 5665   3.199   7.624   6.346
34609SOL    HW1 5666   3.190   7.716   6.321
34609SOL    HW2 5667   3.186   7.575   6.264
34610SOL     OW 5668   3.572   3.295   7.455
34610SOL    HW1 5669   3.615   3.288   7.369
34610SOL    HW2 5670   3.596   3.382   7.487
34611SOL     OW 5671   8.885   3.642   0.233
34611SOL    HW1 5672   8.870   3.736   0.237
34611SOL    HW2 5673   8.887   3.622   0.139
34612SOL     OW 5674   8.627  12.377  10.590
34612SOL    HW1 5675   8.613  12.343  10.678
34612SOL    HW2 5676   8.652  12.468  10.603
34613SOL     OW 5677   1.122   0.498   7.767
34613SOL    HW1 5678   1.084   0.475   7.851
34613SOL    HW2 5679   1.126   0.594   7.767
34614SOL     OW 5680   8.616  13.266   3.639
34614SOL    HW1 5681   8.600  13.336   3.703
34614SOL    HW2 5682   8.650  13.194   3.692
34615SOL     OW 5683  11.214   8.731   2.600
34615SOL    HW1 5684  11.290   8.756   2.653
34615SOL    HW2 5685  11.237   8.759   2.511
34616SOL     OW 5686   9.249   6.777   1.706
34616SOL    HW1 5687   9.213   6.759   1.793
34616SOL    HW2 5688   9.218   6.865   1.686
34617SOL     OW 5689  11.218   6.617   9.815
34617SOL    HW1 5690  11.261   6.608   9.900
34617SOL    HW2 5691  11.221   6.711   9.797
34618SOL     OW 5692  13.526   8.032   4.875
34618SOL    HW1 5693  13.458   8.051   4.940
34618SOL    HW2 5694  13.605   8.073   4.910
34619SOL     OW 5695  10.635   9.590   1.094
34619SOL    HW1 5696  10.576   9.516   1.075
34619SOL    HW2 5697  10.623   9.606   1.188
34620SOL     OW 5698   5.379   1.953   4.039
34620SOL    HW1 5699   5.319   1.905   3.982
34620SOL    HW2 5700   5.371   1.911   4.124
34621SOL     OW 5701   1.639   1.107   7.250
34621SOL    HW1 5702   1.587   1.057   7.313
34621SOL    HW2 5703   1.574   1.152   7.196
34622SOL     OW 5704  11.953   2.326  14.253
34622SOL    HW1 5705  11.982   2.255  14.195
34622SOL    HW2 5706  12.033   2.364  14.288
34623SOL     OW 5707   2.908  11.641   1.520
34623SOL    HW1 5708   2.891  11.720   1.572
34623SOL    HW2 5709   2.838  11.580   1.545
34624SOL     OW 5710   5.731   2.381  11.470
34624SOL    HW1 5711   5.747   2.358  11.561
34624SOL    HW2 5712   5.692   2.302  11.432
34625SOL     OW 5713  13.220   7.702  13.065
34625SOL    HW1 5714  13.232   7.745  12.980
34625SOL    HW2 5715  13.163   7.627  13.046
34626SOL     OW 5716  13.428   6.506  14.624
34626SOL    HW1 5717  13.451   6.585  14.672
34626SOL    HW2 5718  13.512   6.463  14.605
34627SOL     OW 5719   0.708   8.902  10.053
34627SOL    HW1 5720   0.744   8.818  10.023
34627SOL    HW2 5721   0.687   8.887  10.145
34628SOL     OW 5722   6.955  11.749  10.910
34628SOL    HW1 5723   6.951  11.674  10.969
34628SOL    HW2 5724   6.873  11.745  10.861
34629SOL     OW 5725   2.285   8.134   3.511
34629SOL    HW1 5726   2.365   8.129   3.563
34629SOL    HW2 5727   2.274   8.046   3.474
34630SOL     OW 5728  14.301   6.174   2.419
34630SOL    HW1 5729  14.360   6.242   2.452
34630SOL    HW2 5730  14.349   6.133   2.348
34631SOL     OW 5731  13.871  10.695   8.760
34631SOL    HW1 5732  13.883  10.693   8.665
34631SOL    HW2 5733  13.896  10.784   8.785
34632SOL     OW 5734   8.004   9.555   6.602
34632SOL    HW1 5735   7.993   9.501   6.524
34632SOL    HW2 5736   8.082   9.608   6.584
34633SOL     OW 5737  10.494   0.589  13.658
34633SOL    HW1 5738  10.567   0.651  13.660
34633SOL    HW2 5739  10.533   0.505  13.681
34634SOL     OW 5740   0.949   5.560   3.190
34634SOL    HW1 5741   1.003   5.545   3.113
34634SOL    HW2 5742   1.010   5.557   3.264
34635SOL     OW 5743   8.823   7.922   9.030
34635SOL    HW1 5744   8.809   7.842   8.978
34635SOL    HW2 5745   8.741   7.935   9.076
34636SOL     OW 5746   3.363  14.426   3.519
34636SOL    HW1 5747   3.433  14.433   3.585
34636SOL    HW2 5748   3.403  14.378   3.447
34637SOL     OW 5749   2.899   8.834   8.207
34637SOL    HW1 5750   2.840   8.771   8.247
34637SOL    HW2 5751   2.933   8.885   8.280
34638SOL     OW 5752   4.091   9.553   6.658
34638SOL    HW1 5753   4.028   9.593   6.718
34638SOL    HW2 5754   4.166   9.613   6.659
34639SOL     OW 5755   8.520   4.171   6.481
34639SOL    HW1 5756   8.442   4.222   6.459
34639SOL    HW2 5757   8.591   4.235   6.475
34640SOL     OW 5758   1.284  11.430   6.989
34640SOL    HW1 5759   1.303  11.446   7.081
34640SOL    HW2 5760   1.329  11.347   6.969
34641SOL     OW 5761   5.024   6.010   0.549
34641SOL    HW1 5762   4.988   5.949   0.613
34641SOL    HW2 5763   4.977   6.092   0.565
34642SOL     OW 5764  14.406  12.908  11.634
34642SOL    HW1 5765  14.443  12.820  11.643
34642SOL    HW2 5766  14.469  12.965  11.678
34643SOL     OW 5767  14.238   3.811   9.185
34643SOL    HW1 5768  14.205   3.871   9.119
34643SOL    HW2 5769  14.169   3.807   9.251
34644SOL     OW 5770   0.391  13.460  10.238
34644SOL    HW1 5771   0.317  13.404  10.212
34644SOL    HW2 5772   0.439  13.474  10.156
34645SOL     OW 5773  11.652  10.974   8.366
34645SOL    HW1 5774  11.588  11.045   8.371
34645SOL    HW2 5775  11.602  10.895   8.386
34646SOL     OW 5776  14.121  11.225  12.655
34646SOL    HW1 5777  14.089  11.293  12.714
34646SOL    HW2 5778  14.068  11.148  12.676
34647SOL     OW 5779   8.347   9.381   1.193
34647SOL    HW1 5780   8.392   9.444   1.137
34647SOL    HW2 5781   8.412   9.312   1.207
34648SOL     OW 5782   0.562   2.127   0.811
34648SOL    HW1 5783   0.485   2.183   0.798
34648SOL    HW2 5784   0.552   2.094   0.900
34649SOL     OW 5785   2.676  14.854  14.055
34649SOL    HW1 5786   2.620  14.837  13.979
34649SOL    HW2 5787   2.714   0.064  14.037
34650SOL     OW 5788   7.952   9.497   0.821
34650SOL    HW1 5789   7.893   9.459   0.887
34650SOL    HW2 5790   8.025   9.531   0.872
34651SOL     OW 5791   4.039   2.062   1.892
34651SOL    HW1 5792   4.008   2.045   1.803
34651SOL    HW2 5793   3.960   2.068   1.945
34652SOL     OW 5794  13.566   7.438   8.016
34652SOL    HW1 5795  13.517   7.426   8.098
34652SOL    HW2 5796  13.643   7.383   8.026
34653SOL     OW 5797  11.692   0.611  11.343
34653SOL    HW1 5798  11.643   0.691  11.325
34653SOL    HW2 5799  11.784   0.638  11.343
34654SOL     OW 5800   3.467   5.436   4.395
34654SOL    HW1 5801   3.447   5.527   4.416
34654SOL    HW2 5802   3.413   5.385   4.456
34655SOL     OW 5803  12.084   5.363  13.259
34655SOL    HW1 5804  12.136   5.422  13.313
34655SOL    HW2 5805  12.148   5.311  13.211
34656SOL     OW 5806   0.349   5.067  13.780
34656SOL    HW1 5807   0.330   4.998  13.844
34656SOL    HW2 5808   0.360   5.020  13.697
34657SOL     OW 5809   6.180   5.438   8.155
34657SOL    HW1 5810   6.158   5.530   8.167
34657SOL    HW2 5811   6.272   5.439   8.128
34658SOL     OW 5812  11.659   6.453  10.046
34658SOL    HW1 5813  11.599   6.386  10.014
34658SOL    HW2 5814  11.638   6.530   9.993
34659SOL     OW 5815   6.089  14.483   0.130
34659SOL    HW1 5816   6.073  14.511   0.221
34659SOL    HW2 5817   6.003  14.463   0.095
34660SOL     OW 5818  14.426   0.342  14.352
34660SOL    HW1 5819  14.439   0.334  14.257
34660SOL    HW2 5820  14.430   0.436  14.368
34661SOL     OW 5821  11.471  14.791  13.236
34661SOL    HW1 5822  11.522  14.793  13.317
34661SOL    HW2 5823  11.380  14.795  13.266
34662SOL     OW 5824   7.304  14.135  13.632
34662SOL    HW1 5825   7.293  14.054  13.583
34662SOL    HW2 5826   7.370  14.115  13.698
34663SOL     OW 5827   5.171  12.591   5.949
34663SOL    HW1 5828   5.197  12.619   6.037
34663SOL    HW2 5829   5.254  12.575   5.904
34664SOL     OW 5830  10.400  14.422   4.807
34664SOL    HW1 5831  10.470  14.413   4.742
34664SOL    HW2 5832  10.417  14.352   4.870
34665SOL     OW 5833   5.697   2.897  14.399
34665SOL    HW1 5834   5.784   2.883  14.361
34665SOL    HW2 5835   5.714   2.918  14.491
34666SOL     OW 5836   9.552  11.211  13.376
34666SOL    HW1 5837   9.538  11.283  13.438
34666SOL    HW2 5838   9.644  11.217  13.353
34667SOL     OW 5839   2.225   4.297   5.298
34667SOL    HW1 5840   2.225   4.270   5.206
34667SOL    HW2 5841   2.296   4.360   5.306
34668SOL     OW 5842  10.972   6.941  13.257
34668SOL    HW1 5843  11.051   6.909  13.214
34668SOL    HW2 5844  10.936   6.865  13.302
34669SOL     OW 5845  14.759   4.103  12.440
34669SOL    HW1 5846  14.712   4.063  12.366
34669SOL    HW2 5847  14.720   4.062  12.518
34670SOL     OW 5848  10.284   2.622   4.848
34670SOL    HW1 5849  10.247   2.711   4.854
34670SOL    HW2 5850  10.379   2.635   4.850
34671SOL     OW 5851   0.837   2.941   9.300
34671SOL    HW1 5852   0.779   2.866   9.294
34671SOL    HW2 5853   0.785   3.009   9.344
34672SOL     OW 5854   5.390  12.614  11.151
34672SOL    HW1 5855   5.413  12.551  11.219
34672SOL    HW2 5856   5.396  12.565  11.069
34673SOL     OW 5857   2.572  14.196  12.485
34673SOL    HW1 5858   2.577  14.102  12.504
34673SOL    HW2 5859   2.631  14.236  12.548
34674SOL     OW 5860   6.856   4.262  12.697
34674SOL    HW1 5861   6.853   4.314  12.617
34674SOL    HW2 5862   6.915   4.310  12.755
34675SOL     OW 5863   0.636   6.941   2.589
34675SOL    HW1 5864   0.569   6.916   2.653
34675SOL    HW2 5865   0.587   6.987   2.520
34676SOL     OW 5866   4.366   9.504  10.251
34676SOL    HW1 5867   4.409   9.548  10.325
34676SOL    HW2 5868   4.429   9.512  10.179
34677SOL     OW 5869   9.773  12.800   5.129
34677SOL    HW1 5870   9.721  12.876   5.106
34677SOL    HW2 5871   9.863  12.833   5.136
34678SOL     OW 5872  11.393   2.569  12.389
34678SOL    HW1 5873  11.308   2.561  12.345
34678SOL    HW2 5874  11.448   2.502  12.348
34679SOL     OW 5875   3.232  13.568   3.001
34679SOL    HW1 5876   3.159  13.511   2.978
34679SOL    HW2 5877   3.276  13.523   3.073
34680SOL     OW 5878   8.762   0.149   7.035
34680SOL    HW1 5879   8.795   0.210   7.101
34680SOL    HW2 5880   8.688   0.106   7.077
34681SOL     OW 5881  13.721  10.109   3.163
34681SOL    HW1 5882  13.641  10.080   3.207
34681SOL    HW2 5883  13.693  10.182   3.107
34682SOL     OW 5884   9.941   4.820   7.736
34682SOL    HW1 5885   9.880   4.805   7.809
34682SOL    HW2 5886  10.013   4.870   7.775
34683SOL     OW 5887  14.231   1.341  10.028
34683SOL    HW1 5888  14.287   1.266  10.047
34683SOL    HW2 5889  14.293   1.413  10.011
34684SOL     OW 5890   7.824   3.935   4.208
34684SOL    HW1 5891   7.833   4.029   4.223
34684SOL    HW2 5892   7.842   3.925   4.114
34685SOL     OW 5893  12.485   6.279   9.181
34685SOL    HW1 5894  12.421   6.350   9.174
34685SOL    HW2 5895  12.554   6.315   9.236
34686SOL     OW 5896  14.047   0.964   2.923
34686SOL    HW1 5897  14.125   1.019   2.926
34686SOL    HW2 5898  14.076   0.883   2.880
34687SOL     OW 5899   2.392   9.801  10.867
34687SOL    HW1 5900   2.355   9.857  10.935
34687SOL    HW2 5901   2.480   9.835  10.854
34688SOL     OW 5902   0.237   8.157   5.531
34688SOL    HW1 5903   0.321   8.115   5.553
34688SOL    HW2 5904   0.216   8.123   5.444
34689SOL     OW 5905  10.767   2.943  10.645
34689SOL    HW1 5906  10.845   2.901  10.608
34689SOL    HW2 5907  10.706   2.948  10.572
34690SOL     OW 5908   4.093  12.736   0.818
34690SOL    HW1 5909   4.066  12.826   0.801
34690SOL    HW2 5910   4.182  12.731   0.782
34691SOL     OW 5911  11.884   4.473   1.841
34691SOL    HW1 5912  11.971   4.512   1.837
34691SOL    HW2 5913  11.838   4.509   1.765
34692SOL     OW 5914  11.875   6.556   4.435
34692SOL    HW1 5915  11.893   6.462   4.440
34692SOL    HW2 5916  11.961   6.596   4.422
34693SOL     OW 5917   6.445   0.439  13.786
34693SOL    HW1 5918   6.427   0.520  13.737
34693SOL    HW2 5919   6.488   0.382  13.722
34694SOL     OW 5920   2.507   6.540  11.683
34694SOL    HW1 5921   2.485   6.632  11.699
34694SOL    HW2 5922   2.459   6.518  11.603
34695SOL     OW 5923   9.634   7.693   5.450
34695SOL    HW1 5924   9.614   7.779   5.486
34695SOL    HW2 5925   9.693   7.710   5.377
34696SOL     OW 5926   8.980   1.249  11.384
34696SOL    HW1 5927   8.972   1.230  11.478
34696SOL    HW2 5928   8.916   1.319  11.369
34697SOL     OW 5929   3.213   9.108   7.740
34697SOL    HW1 5930   3.243   9.179   7.683
34697SOL    HW2 5931   3.267   9.118   7.819
34698SOL     OW 5932  11.882   6.987  10.265
34698SOL    HW1 5933  11.879   7.080  10.290
34698SOL    HW2 5934  11.860   6.940  10.346
34699SOL     OW 5935  14.833   0.958   1.336
34699SOL    HW1 5936  14.793   1.019   1.398
34699SOL    HW2 5937  14.792   0.978   1.253
34700SOL     OW 5938  10.685  11.201   3.796
34700SOL    HW1 5939  10.705  11.294   3.781
34700SOL    HW2 5940  10.623  11.179   3.726
34701SOL     OW 5941   8.622   6.650   9.959
34701SOL    HW1 5942   8.688   6.635   9.891
34701SOL    HW2 5943   8.661   6.715  10.017
34702SOL     OW 5944   0.146   2.363   9.425
34702SOL    HW1 5945   0.077   2.393   9.485
34702SOL    HW2 5946   0.185   2.288   9.469
34703SOL     OW 5947  14.746   9.067   7.490
34703SOL    HW1 5948  14.713   9.050   7.578
34703SOL    HW2 5949  14.765   9.161   7.490
34704SOL     OW 5950   0.432   8.026   5.657
34704SOL    HW1 5951   0.480   7.944   5.668
34704SOL    HW2 5952   0.379   8.033   5.736
34705SOL     OW 5953  12.088   3.776   7.013
34705SOL    HW1 5954  12.170   3.790   7.061
34705SOL    HW2 5955  12.033   3.850   7.037
34706SOL     OW 5956   5.104   7.716   1.773
34706SOL    HW1 5957   5.133   7.682   1.688
34706SOL    HW2 5958   5.028   7.771   1.752
34707SOL     OW 5959  13.005   7.807   6.992
34707SOL    HW1 5960  13.091   7.766   6.986
34707SOL    HW2 5961  13.011   7.864   7.069
34708SOL     OW 5962   4.843  10.958  10.623
34708SOL    HW1 5963   4.830  11.037  10.675
34708SOL    HW2 5964   4.758  10.915  10.622
34709SOL     OW 5965   7.006   6.131  10.997
34709SOL    HW1 5966   7.017   6.040  10.971
34709SOL    HW2 5967   6.948   6.169  10.931
34710SOL     OW 5968  10.406  11.536   1.982
34710SOL    HW1 5969  10.323  11.556   2.025
34710SOL    HW2 5970  10.472  11.545   2.051
34711SOL     OW 5971   0.455   1.480  11.754
34711SOL    HW1 5972   0.489   1.469  11.666
34711SOL    HW2 5973   0.436   1.574  11.762
34712SOL     OW 5974   6.155  14.288   8.670
34712SOL    HW1 5975   6.184  14.205   8.632
34712SOL    HW2 5976   6.116  14.336   8.597
34713SOL     OW 5977  14.836  12.219   2.854
34713SOL    HW1 5978  14.808  12.152   2.791
34713SOL    HW2 5979  14.838  12.300   2.803
34714SOL     OW 5980   7.787  11.419   0.782
34714SOL    HW1 5981   7.841  11.497   0.777
34714SOL    HW2 5982   7.699  11.448   0.757
34715SOL     OW 5983  13.235   6.736   7.288
34715SOL    HW1 5984  13.309   6.702   7.338
34715SOL    HW2 5985  13.182   6.659   7.269
34716SOL     OW 5986  12.076   9.396   9.353
34716SOL    HW1 5987  12.098   9.305   9.334
34716SOL    HW2 5988  11.980   9.399   9.345
34717SOL     OW 5989   9.133   1.823   3.165
34717SOL    HW1 5990   9.204   1.792   3.109
34717SOL    HW2 5991   9.170   1.897   3.212
34718SOL     OW 5992   4.332   4.233   8.574
34718SOL    HW1 5993   4.317   4.325   8.553
34718SOL    HW2 5994   4.294   4.185   8.500
34719SOL     OW 5995   7.706  14.245  12.257
34719SOL    HW1 5996   7.617  14.275  12.279
34719SOL    HW2 5997   7.724  14.286  12.173
34720SOL     OW 5998  13.186  13.815   6.117
34720SOL    HW1 5999  13.162  13.838   6.207
34720SOL    HW2 6000  13.248  13.742   6.127
34721SOL     OW 6001  12.790  11.665  12.701
34721SOL    HW1 6002  12.756  11.636  12.785
34721SOL    HW2 6003  12.738  11.742  12.679
34722SOL     OW 6004  14.462  10.064   6.043
34722SOL    HW1 6005  14.437  10.103   6.127
34722SOL    HW2 6006  14.438   9.972   6.051
34723SOL     OW 6007   5.907   7.509   5.651
34723SOL    HW1 6008   5.979   7.479   5.707
34723SOL    HW2 6009   5.877   7.431   5.605
34724SOL     OW 6010   4.852   6.371   8.295
34724SOL    HW1 6011   4.791   6.417   8.352
34724SOL    HW2 6012   4.919   6.336   8.354
34725SOL     OW 6013   5.882   0.319  13.253
34725SOL    HW1 6014   5.853   0.382  13.319
34725SOL    HW2 6015   5.807   0.309  13.195
34726SOL     OW 6016  14.526   9.047   9.771
34726SOL    HW1 6017  14.503   8.998   9.693
34726SOL    HW2 6018  14.492   8.994   9.844
34727SOL     OW 6019   5.886   9.325  12.840
34727SOL    HW1 6020   5.890   9.285  12.753
34727SOL    HW2 6021   5.940   9.269  12.895
34728SOL     OW 6022   7.736   1.487   2.776
34728SOL    HW1 6023   7.817   1.538   2.768
34728SOL    HW2 6024   7.765   1.398   2.792
34729SOL     OW 6025   4.048  12.643   4.378
34729SOL    HW1 6026   4.106  12.661   4.452
34729SOL    HW2 6027   3.960  12.661   4.413
34730SOL     OW 6028   8.141   8.428   5.840
34730SOL    HW1 6029   8.193   8.349   5.859
34730SOL    HW2 6030   8.199   8.500   5.864
34731SOL     OW 6031   6.295   7.261   1.673
34731SOL    HW1 6032   6.361   7.207   1.717
34731SOL    HW2 6033   6.264   7.206   1.600
34732SOL     OW 6034   1.914   5.095   4.039
34732SOL    HW1 6035   1.992   5.060   3.996
34732SOL    HW2 6036   1.885   5.025   4.099
34733SOL     OW 6037   7.030   6.646   9.650
34733SOL    HW1 6038   6.974   6.672   9.577
34733SOL    HW2 6039   6.992   6.564   9.682
34734SOL     OW 6040  12.229   0.944   2.157
34734SOL    HW1 6041  12.283   0.869   2.132
34734SOL    HW2 6042  12.293   1.012   2.179
34735SOL     OW 6043   1.435   0.995  14.694
34735SOL    HW1 6044   1.375   1.070  14.694
34735SOL    HW2 6045   1.492   1.011  14.769
34736SOL     OW 6046  11.655   1.975  13.740
34736SOL    HW1 6047  11.564   2.005  13.744
34736SOL    HW2 6048  11.703   2.037  13.795
34737SOL     OW 6049  14.280   8.653   8.400
34737SOL    HW1 6050  14.309   8.740   8.375
34737SOL    HW2 6051  14.360   8.600   8.402
34738SOL     OW 6052   9.901   2.507   6.693
34738SOL    HW1 6053   9.831   2.482   6.632
34738SOL    HW2 6054   9.940   2.424   6.721
34739SOL     OW 6055   5.345   3.667  10.850
34739SOL    HW1 6056   5.423   3.650  10.797
34739SOL    HW2 6057   5.334   3.762  10.844
34740SOL     OW 6058   1.276  12.511  11.150
34740SOL    HW1 6059   1.256  12.505  11.244
34740SOL    HW2 6060   1.367  12.484  11.142
34741SOL     OW 6061   2.020   6.172   3.190
34741SOL    HW1 6062   2.045   6.234   3.258
34741SOL    HW2 6063   1.935   6.205   3.158
34742SOL     OW 6064   9.127  13.408   7.254
34742SOL    HW1 6065   9.084  13.475   7.201
34742SOL    HW2 6066   9.121  13.328   7.202
34743SOL     OW 6067  14.739  10.190   4.250
34743SOL    HW1 6068  14.741  10.282   4.276
34743SOL    HW2 6069  14.671  10.151   4.304
34744SOL     OW 6070   9.548  11.254   4.258
34744SOL    HW1 6071   9.598  11.239   4.178
34744SOL    HW2 6072   9.610  11.295   4.318
34745SOL     OW 6073   9.736   8.242  14.459
34745SOL    HW1 6074   9.775   8.224  14.374
34745SOL    HW2 6075   9.650   8.200  14.455
34746SOL     OW 6076  12.200   5.533   1.737
34746SOL    HW1 6077  12.165   5.488   1.814
34746SOL    HW2 6078  12.171   5.479   1.663
34747SOL     OW 6079   1.924   1.793   2.846
34747SOL    HW1 6080   1.935   1.801   2.752
34747SOL    HW2 6081   1.829   1.785   2.858
34748SOL     OW 6082  13.333   9.232  10.560
34748SOL    HW1 6083  13.354   9.324  10.544
34748SOL    HW2 6084  13.405   9.183  10.519
34749SOL     OW 6085   4.957   8.993   6.686
34749SOL    HW1 6086   5.019   9.061   6.711
34749SOL    HW2 6087   5.011   8.914   6.679
34750SOL     OW 6088   4.160   7.354   7.091
34750SOL    HW1 6089   4.161   7.367   6.996
34750SOL    HW2 6090   4.214   7.275   7.104
34751SOL     OW 6091   1.792   4.659   2.446
34751SOL    HW1 6092   1.799   4.661   2.351
34751SOL    HW2 6093   1.700   4.643   2.464
34752SOL     OW 6094   9.804  11.254   4.016
34752SOL    HW1 6095   9.799  11.283   4.107
34752SOL    HW2 6096   9.872  11.309   3.977
34753SOL     OW 6097  13.231   4.703  11.759
34753SOL    HW1 6098  13.268   4.727  11.674
34753SOL    HW2 6099  13.146   4.746  11.762
34754SOL     OW 6100  14.715  14.071  10.978
34754SOL    HW1 6101  14.770  14.143  10.947
34754SOL    HW2 6102  14.776  13.999  10.993
34755SOL     OW 6103   1.801   0.787   5.103
34755SOL    HW1 6104   1.755   0.787   5.019
34755SOL    HW2 6105   1.856   0.708   5.100
34756SOL     OW 6106   6.868   9.722  10.321
34756SOL    HW1 6107   6.800   9.681  10.374
34756SOL    HW2 6108   6.940   9.658  10.321
34757SOL     OW 6109   3.848   2.524  11.417
34757SOL    HW1 6110   3.766   2.475  11.427
34757SOL    HW2 6111   3.835   2.603  11.469
34758SOL     OW 6112  13.719   5.111   9.473
34758SOL    HW1 6113  13.763   5.026   9.474
34758SOL    HW2 6114  13.672   5.112   9.389
34759SOL     OW 6115  14.274   8.561   7.704
34759SOL    HW1 6116  14.358   8.530   7.739
34759SOL    HW2 6117  14.240   8.619   7.772
34760SOL     OW 6118  13.574  10.566   9.858
34760SOL    HW1 6119  13.491  10.520   9.853
34760SOL    HW2 6120  13.578  10.598   9.948
34761SOL     OW 6121  13.067   4.348  11.813
34761SOL    HW1 6122  13.127   4.347  11.887
34761SOL    HW2 6123  13.123   4.361  11.737
34762SOL     OW 6124  14.297   7.201   3.551
34762SOL    HW1 6125  14.351   7.126   3.525
34762SOL    HW2 6126  14.314   7.267   3.484
34763SOL     OW 6127  12.408   6.802   3.727
34763SOL    HW1 6128  12.359   6.807   3.809
34763SOL    HW2 6129  12.343   6.820   3.659
34764SOL     OW 6130   5.574   8.657  14.214
34764SOL    HW1 6131   5.529   8.698  14.289
34764SOL    HW2 6132   5.503   8.629  14.156
34765SOL     OW 6133   5.316  13.512  12.510
34765SOL    HW1 6134   5.266  13.545  12.435
34765SOL    HW2 6135   5.391  13.571  12.517
34766SOL     OW 6136   3.650   3.269  13.699
34766SOL    HW1 6137   3.742   3.292  13.711
34766SOL    HW2 6138   3.648   3.174  13.704
34767SOL     OW 6139   8.828   1.912   8.253
34767SOL    HW1 6140   8.810   2.006   8.249
34767SOL    HW2 6141   8.773   1.874   8.185
34768SOL     OW 6142   2.868  13.349   9.755
34768SOL    HW1 6143   2.934  13.408   9.791
34768SOL    HW2 6144   2.916  13.294   9.693
34769SOL     OW 6145   8.695  12.799   2.374
34769SOL    HW1 6146   8.727  12.883   2.407
34769SOL    HW2 6147   8.648  12.821   2.294
34770SOL     OW 6148   2.472  13.863  13.157
34770SOL    HW1 6149   2.424  13.940  13.126
34770SOL    HW2 6150   2.495  13.816  13.076
34771SOL     OW 6151   0.338   1.625   9.639
34771SOL    HW1 6152   0.370   1.598   9.553
34771SOL    HW2 6153   0.243   1.627   9.631
34772SOL     OW 6154   4.140  13.877   8.684
34772SOL    HW1 6155   4.050  13.854   8.706
34772SOL    HW2 6156   4.164  13.815   8.615
34773SOL     OW 6157  14.603   1.715   9.615
34773SOL    HW1 6158  14.596   1.621   9.631
34773SOL    HW2 6159  14.681   1.741   9.664
34774SOL     OW 6160   4.281  13.121   9.600
34774SOL    HW1 6161   4.193  13.091   9.576
34774SOL    HW2 6162   4.274  13.145   9.692
34775SOL     OW 6163  13.354   8.510  12.090
34775SOL    HW1 6164  13.422   8.455  12.050
34775SOL    HW2 6165  13.382   8.521  12.180
34776SOL     OW 6166   9.973   4.401   9.695
34776SOL    HW1 6167  10.066   4.424   9.688
34776SOL    HW2 6168   9.938   4.417   9.607
34777SOL     OW 6169   5.396  10.822  10.632
34777SOL    HW1 6170   5.351  10.742  10.604
34777SOL    HW2 6171   5.367  10.835  10.723
34778SOL     OW 6172   0.939  14.045  12.761
34778SOL    HW1 6173   0.952  14.027  12.854
34778SOL    HW2 6174   0.978  13.969  12.717
34779SOL     OW 6175  13.269   0.008   0.708
34779SOL    HW1 6176  13.236  14.842   0.629
34779SOL    HW2 6177  13.190   0.026   0.760
34780SOL     OW 6178   7.104   9.491   1.518
34780SOL    HW1 6179   7.098   9.505   1.423
34780SOL    HW2 6180   7.197   9.500   1.538
34781SOL     OW 6181   6.939   6.979   5.676
34781SOL    HW1 6182   6.893   7.062   5.686
34781SOL    HW2 6183   7.026   7.004   5.645
34782SOL     OW 6184  14.803  10.206  14.185
34782SOL    HW1 6185  14.791  10.252  14.268
34782SOL    HW2 6186  14.738  10.135  14.187
34783SOL     OW 6187  10.083   8.832   0.158
34783SOL    HW1 6188  10.132   8.750   0.157
34783SOL    HW2 6189  10.059   8.844   0.250
34784SOL     OW 6190   5.413  10.962  13.928
34784SOL    HW1 6191   5.367  10.966  14.012
34784SOL    HW2 6192   5.506  10.970  13.951
34785SOL     OW 6193   3.439   3.030   5.246
34785SOL    HW1 6194   3.419   3.101   5.185
34785SOL    HW2 6195   3.496   3.070   5.312
34786SOL     OW 6196  12.542   3.567   8.476
34786SOL    HW1 6197  12.487   3.518   8.536
34786SOL    HW2 6198  12.584   3.633   8.531
34787SOL     OW 6199  10.934   4.878   2.828
34787SOL    HW1 6200  10.854   4.929   2.836
34787SOL    HW2 6201  10.955   4.881   2.735
34788SOL     OW 6202   2.720  10.018   0.073
34788SOL    HW1 6203   2.742   9.948   0.133
34788SOL    HW2 6204   2.738  10.099   0.121
34789SOL     OW 6205   5.092  12.823  14.485
34789SOL    HW1 6206   5.004  12.793  14.465
34789SOL    HW2 6207   5.085  12.918  14.487
34790SOL     OW 6208  10.999   3.297   3.618
34790SOL    HW1 6209  10.904   3.297   3.631
34790SOL    HW2 6210  11.029   3.217   3.661
34791SOL     OW 6211   6.196   5.514   6.384
34791SOL    HW1 6212   6.284   5.550   6.398
34791SOL    HW2 6213   6.202   5.467   6.301
34792SOL     OW 6214   9.394   1.881  13.935
34792SOL    HW1 6215   9.385   1.920  13.848
34792SOL    HW2 6216   9.364   1.791  13.924
34793SOL     OW 6217  13.072   3.682  14.856
34793SOL    HW1 6218  13.054   3.605  14.803
34793SOL    HW2 6219  13.065   3.756  14.796
34794SOL     OW 6220  13.745   1.993  11.226
34794SOL    HW1 6221  13.660   2.032  11.245
34794SOL    HW2 6222  13.741   1.906  11.267
34795SOL     OW 6223   6.786  11.066   1.310
34795SOL    HW1 6224   6.783  11.137   1.374
34795SOL    HW2 6225   6.861  11.088   1.255
34796SOL     OW 6226   8.723   6.037   8.885
34796SOL    HW1 6227   8.808   6.039   8.928
34796SOL    HW2 6228   8.661   6.017   8.956
34797SOL     OW 6229   6.136  12.395   8.374
34797SOL    HW1 6230   6.225  12.425   8.389
34797SOL    HW2 6231   6.145  12.306   8.341
34798SOL     OW 6232  10.315   6.001   7.858
34798SOL    HW1 6233  10.348   5.913   7.878
34798SOL    HW2 6234  10.355   6.058   7.924
34799SOL     OW 6235  12.592   8.207   9.017
34799SOL    HW1 6236  12.545   8.260   8.953
34799SOL    HW2 6237  12.553   8.230   9.101
34800SOL     OW 6238   7.148   0.161  11.884
34800SOL    HW1 6239   7.218   0.098  11.901
34800SOL    HW2 6240   7.078   0.109  11.845
34801SOL     OW 6241  13.375   6.052  13.018
34801SOL    HW1 6242  13.351   6.081  12.930
34801SOL    HW2 6243  13.389   6.133  13.067
34802SOL     OW 6244  12.196  14.807   8.685
34802SOL    HW1 6245  12.243  14.823   8.767
34802SOL    HW2 6246  12.251  14.745   8.638
34803SOL     OW 6247   3.510   0.013   0.416
34803SOL    HW1 6248   3.464   0.048   0.340
34803SOL    HW2 6249   3.442  14.875   0.481
34804SOL     OW 6250  11.400   7.801   1.469
34804SOL    HW1 6251  11.329   7.764   1.522
34804SOL    HW2 6252  11.360   7.817   1.384
34805SOL     OW 6253   1.713   3.730   1.275
34805SOL    HW1 6254   1.623   3.753   1.253
34805SOL    HW2 6255   1.739   3.794   1.342
34806SOL     OW 6256   4.390   2.279   6.547
34806SOL    HW1 6257   4.374   2.353   6.489
34806SOL    HW2 6258   4.325   2.289   6.617
34807SOL     OW 6259   4.764   1.568  14.385
34807SOL    HW1 6260   4.671   1.584  14.370
34807SOL    HW2 6261   4.790   1.506  14.317
34808SOL     OW 6262   8.538   2.153   0.277
34808SOL    HW1 6263   8.568   2.184   0.362
34808SOL    HW2 6264   8.572   2.216   0.214
34809SOL     OW 6265   1.788   6.650   4.769
34809SOL    HW1 6266   1.831   6.582   4.821
34809SOL    HW2 6267   1.773   6.721   4.831
34810SOL     OW 6268   0.529  11.941   9.563
34810SOL    HW1 6269   0.561  12.027   9.536
34810SOL    HW2 6270   0.448  11.959   9.610
34811SOL     OW 6271  14.822   3.724   2.036
34811SOL    HW1 6272  14.824   3.753   2.127
34811SOL    HW2 6273  14.806   3.630   2.041
34812SOL     OW 6274   6.009   1.893   5.451
34812SOL    HW1 6275   6.087   1.883   5.398
34812SOL    HW2 6276   5.939   1.911   5.388
34813SOL     OW 6277   6.071  12.416   4.421
34813SOL    HW1 6278   6.113  12.331   4.405
34813SOL    HW2 6279   6.009  12.426   4.348
34814SOL     OW 6280   3.483  10.168   9.640
34814SOL    HW1 6281   3.553  10.233   9.646
34814SOL    HW2 6282   3.487  10.136   9.550
34815SOL     OW 6283   7.882  12.563   1.265
34815SOL    HW1 6284   7.791  12.594   1.254
34815SOL    HW2 6285   7.875  12.488   1.324
34816SOL     OW 6286  13.675  13.973  10.556
34816SOL    HW1 6287  13.659  13.883  10.527
34816SOL    HW2 6288  13.666  13.970  10.651
34817SOL     OW 6289  14.722   8.207   7.286
34817SOL    HW1 6290  14.658   8.228   7.219
34817SOL    HW2 6291  14.713   8.277   7.351
34818SOL     OW 6292   9.086   8.925   4.562
34818SOL    HW1 6293   8.998   8.915   4.597
34818SOL    HW2 6294   9.106   9.018   4.575
34819SOL     OW 6295   6.299  14.240  10.449
34819SOL    HW1 6296   6.218  14.289  10.463
34819SOL    HW2 6297   6.341  14.239  10.535
34820SOL     OW 6298   7.697   8.943   0.709
34820SOL    HW1 6299   7.618   8.953   0.655
34820SOL    HW2 6300   7.665   8.918   0.795
34821SOL     OW 6301   2.335   1.101  12.737
34821SOL    HW1 6302   2.256   1.111  12.791
34821SOL    HW2 6303   2.308   1.132  12.650
34822SOL     OW 6304  11.959  14.509   1.458
34822SOL    HW1 6305  12.027  14.452   1.493
34822SOL    HW2 6306  11.943  14.476   1.369
34823SOL     OW 6307   8.383   5.108   7.197
34823SOL    HW1 6308   8.404   5.105   7.291
34823SOL    HW2 6309   8.395   5.018   7.167
34824SOL     OW 6310   0.451   6.126   9.037
34824SOL    HW1 6311   0.401   6.206   9.024
34824SOL    HW2 6312   0.500   6.141   9.118
34825SOL     OW 6313   1.689  13.186   2.876
34825SOL    HW1 6314   1.727  13.100   2.892
34825SOL    HW2 6315   1.729  13.243   2.942
34826SOL     OW 6316   2.985  11.343   9.533
34826SOL    HW1 6317   2.924  11.377   9.468
34826SOL    HW2 6318   3.068  11.387   9.514
34827SOL     OW 6319   4.123   1.498   2.055
34827SOL    HW1 6320   4.206   1.530   2.019
34827SOL    HW2 6321   4.125   1.526   2.147
34828SOL     OW 6322   8.948   1.698  13.145
34828SOL    HW1 6323   8.938   1.713  13.051
34828SOL    HW2 6324   9.004   1.621  13.151
34829SOL     OW 6325   6.175   4.543  14.491
34829SOL    HW1 6326   6.199   4.621  14.540
34829SOL    HW2 6327   6.216   4.555  14.405
34830SOL     OW 6328   8.996   0.789   6.000
34830SOL    HW1 6329   8.946   0.844   5.940
34830SOL    HW2 6330   9.017   0.711   5.950
34831SOL     OW 6331   1.454   8.532   0.325
34831SOL    HW1 6332   1.432   8.522   0.418
34831SOL    HW2 6333   1.532   8.588   0.325
34832SOL     OW 6334  12.784  12.384   1.766
34832SOL    HW1 6335  12.836  12.431   1.701
34832SOL    HW2 6336  12.732  12.453   1.809
34833SOL     OW 6337   8.675  11.601   3.947
34833SOL    HW1 6338   8.770  11.609   3.957
34833SOL    HW2 6339   8.646  11.691   3.928
34834SOL     OW 6340  13.404   3.917  12.113
34834SOL    HW1 6341  13.467   3.855  12.077
34834SOL    HW2 6342  13.323   3.867  12.122
34835SOL     OW 6343  10.284   2.150  12.887
34835SOL    HW1 6344  10.342   2.082  12.923
34835SOL    HW2 6345  10.309   2.230  12.933
34836SOL     OW 6346   7.308  14.793  13.196
34836SOL    HW1 6347   7.372  14.792  13.267
34836SOL    HW2 6348   7.326  14.713  13.146
34837SOL     OW 6349   1.711  13.266  13.731
34837SOL    HW1 6350   1.636  13.290  13.676
34837SOL    HW2 6351   1.784  13.257  13.671
34838SOL     OW 6352   5.178   9.113  13.335
34838SOL    HW1 6353   5.102   9.055  13.339
34838SOL    HW2 6354   5.252   9.056  13.359
34839SOL     OW 6355   0.039  10.900  12.234
34839SOL    HW1 6356   0.045  10.902  12.329
34839SOL    HW2 6357   0.117  10.853  12.206
34840SOL     OW 6358   6.573  12.735   5.411
34840SOL    HW1 6359   6.659  12.717   5.450
34840SOL    HW2 6360   6.583  12.821   5.370
34841SOL     OW 6361   3.516   1.901   5.334
34841SOL    HW1 6362   3.577   1.974   5.335
34841SOL    HW2 6363   3.560   1.832   5.283
34842SOL     OW 6364   3.617  11.058  10.237
34842SOL    HW1 6365   3.539  11.030  10.285
34842SOL    HW2 6366   3.658  11.123  10.293
34843SOL     OW 6367   4.202  11.547   5.568
34843SOL    HW1 6368   4.295  11.524   5.567
34843SOL    HW2 6369   4.187  11.584   5.655
34844SOL     OW 6370   0.378   7.461   9.609
34844SOL    HW1 6371   0.350   7.392   9.668
34844SOL    HW2 6372   0.298   7.492   9.567
34845SOL     OW 6373   7.721   8.312   9.466
34845SOL    HW1 6374   7.744   8.219   9.465
34845SOL    HW2 6375   7.651   8.320   9.401
34846SOL     OW 6376   2.673   3.862   1.731
34846SOL    HW1 6377   2.701   3.911   1.653
34846SOL    HW2 6378   2.748   3.866   1.791
34847SOL     OW 6379   9.173  11.602   2.908
34847SOL    HW1 6380   9.171  11.533   2.975
34847SOL    HW2 6381   9.106  11.665   2.936
34848SOL     OW 6382   7.646   1.687   6.601
34848SOL    HW1 6383   7.588   1.639   6.659
34848SOL    HW2 6384   7.629   1.652   6.514
34849SOL     OW 6385   4.355   3.448   5.724
34849SOL    HW1 6386   4.419   3.421   5.658
34849SOL    HW2 6387   4.337   3.368   5.774
34850SOL     OW 6388   2.015   7.001   0.510
34850SOL    HW1 6389   2.027   7.006   0.415
34850SOL    HW2 6390   1.935   7.050   0.527
34851SOL     OW 6391   2.769   7.033   2.809
34851SOL    HW1 6392   2.711   7.071   2.874
34851SOL    HW2 6393   2.854   7.075   2.824
34852SOL     OW 6394  10.129  12.662   5.123
34852SOL    HW1 6395  10.086  12.736   5.165
34852SOL    HW2 6396  10.169  12.614   5.196
34853SOL     OW 6397   6.582   6.689   7.410
34853SOL    HW1 6398   6.580   6.610   7.357
34853SOL    HW2 6399   6.655   6.740   7.374
34854SOL     OW 6400  12.866   9.783   1.028
34854SOL    HW1 6401  12.877   9.833   1.108
34854SOL    HW2 6402  12.819   9.704   1.055
34855SOL     OW 6403  11.314   3.096   6.700
34855SOL    HW1 6404  11.384   3.137   6.650
34855SOL    HW2 6405  11.269   3.040   6.636
34856SOL     OW 6406   5.414   0.835   6.059
34856SOL    HW1 6407   5.383   0.759   6.010
34856SOL    HW2 6408   5.456   0.891   5.993
34857SOL     OW 6409   1.001   2.317   5.020
34857SOL    HW1 6410   0.997   2.347   4.930
34857SOL    HW2 6411   0.911   2.288   5.039
34858SOL     OW 6412   6.517   5.215   3.200
34858SOL    HW1 6413   6.583   5.267   3.247
34858SOL    HW2 6414   6.441   5.216   3.258
34859SOL     OW 6415   6.845   4.143   6.081
34859SOL    HW1 6416   6.801   4.201   6.143
34859SOL    HW2 6417   6.934   4.134   6.117
34860SOL     OW 6418   3.815  13.468  14.107
34860SOL    HW1 6419   3.780  13.396  14.159
34860SOL    HW2 6420   3.739  13.525  14.091
34861SOL     OW 6421   9.234   8.135   5.518
34861SOL    HW1 6422   9.179   8.134   5.440
34861SOL    HW2 6423   9.315   8.176   5.489
34862SOL     OW 6424  11.442  13.177  13.227
34862SOL    HW1 6425  11.520  13.192  13.280
34862SOL    HW2 6426  11.476  13.155  13.140
34863SOL     OW 6427  11.796   6.787   3.956
34863SOL    HW1 6428  11.737   6.859   3.977
34863SOL    HW2 6429  11.882   6.827   3.949
34864SOL     OW 6430   8.331   8.009  10.283
34864SOL    HW1 6431   8.384   8.070  10.231
34864SOL    HW2 6432   8.391   7.937  10.304
34865SOL     OW 6433   9.858   7.731   9.090
34865SOL    HW1 6434   9.811   7.780   9.023
34865SOL    HW2 6435   9.792   7.674   9.130
34866SOL     OW 6436   7.150  10.059  11.100
34866SOL    HW1 6437   7.222  10.037  11.160
34866SOL    HW2 6438   7.074  10.070  11.156
34867SOL     OW 6439   2.620   3.820   5.710
34867SOL    HW1 6440   2.644   3.737   5.751
34867SOL    HW2 6441   2.536   3.843   5.749
34868SOL     OW 6442  11.211   0.218  11.207
34868SOL    HW1 6443  11.186   0.167  11.130
34868SOL    HW2 6444  11.304   0.200  11.218
34869SOL     OW 6445   1.882  12.548  11.874
34869SOL    HW1 6446   1.952  12.552  11.808
34869SOL    HW2 6447   1.847  12.637  11.877
34870SOL     OW 6448  10.986   7.911   0.288
34870SOL    HW1 6449  11.071   7.938   0.254
34870SOL    HW2 6450  10.923   7.965   0.239
34871SOL     OW 6451   6.436  14.275   9.061
34871SOL    HW1 6452   6.508  14.212   9.051
34871SOL    HW2 6453   6.357  14.222   9.054
34872SOL     OW 6454  12.802   6.471  12.752
34872SOL    HW1 6455  12.865   6.400  12.739
34872SOL    HW2 6456  12.850   6.537  12.801
34873SOL     OW 6457   6.230   5.734   5.771
34873SOL    HW1 6458   6.214   5.763   5.681
34873SOL    HW2 6459   6.204   5.808   5.825
34874SOL     OW 6460   4.496   8.933   4.292
34874SOL    HW1 6461   4.456   8.976   4.216
34874SOL    HW2 6462   4.457   8.977   4.368
34875SOL     OW 6463   1.814   7.578   4.682
34875SOL    HW1 6464   1.802   7.595   4.589
34875SOL    HW2 6465   1.729   7.596   4.722
34876SOL     OW 6466   0.694   9.027   8.251
34876SOL    HW1 6467   0.647   8.951   8.216
34876SOL    HW2 6468   0.754   8.990   8.316
34877SOL     OW 6469   5.404   3.644  14.356
34877SOL    HW1 6470   5.467   3.705  14.319
34877SOL    HW2 6471   5.449   3.606  14.432
34878SOL     OW 6472  10.045  12.842  12.845
34878SOL    HW1 6473  10.092  12.926  12.841
34878SOL    HW2 6474   9.992  12.840  12.766
34879SOL     OW 6475  12.657   8.759   1.237
34879SOL    HW1 6476  12.742   8.769   1.195
34879SOL    HW2 6477  12.637   8.666   1.230
34880SOL     OW 6478   8.451  10.772  10.029
34880SOL    HW1 6479   8.534  10.738  10.062
34880SOL    HW2 6480   8.408  10.695   9.990
34881SOL     OW 6481   6.340   5.205  11.541
34881SOL    HW1 6482   6.424   5.193  11.497
34881SOL    HW2 6483   6.291   5.264  11.484
34882SOL     OW 6484  11.219  13.290   6.594
34882SOL    HW1 6485  11.222  13.274   6.688
34882SOL    HW2 6486  11.191  13.381   6.586
34883SOL     OW 6487   2.975   3.677   3.526
34883SOL    HW1 6488   3.022   3.623   3.461
34883SOL    HW2 6489   3.031   3.674   3.604
34884SOL     OW 6490   6.870   3.145   4.416
34884SOL    HW1 6491   6.799   3.113   4.471
34884SOL    HW2 6492   6.828   3.166   4.332
34885SOL     OW 6493  10.431   8.123   5.072
34885SOL    HW1 6494  10.460   8.214   5.070
34885SOL    HW2 6495  10.335   8.129   5.073
34886SOL     OW 6496  12.429   9.966   6.496
34886SOL    HW1 6497  12.361   9.925   6.550
34886SOL    HW2 6498  12.380  10.026   6.439
34887SOL     OW 6499   8.015   6.517   5.148
34887SOL    HW1 6500   7.983   6.469   5.224
34887SOL    HW2 6501   8.040   6.449   5.086
34888SOL     OW 6502  14.009   2.742   9.110
34888SOL    HW1 6503  14.015   2.801   9.185
34888SOL    HW2 6504  13.941   2.781   9.055
34889SOL     OW 6505   9.007  12.840   6.937
34889SOL    HW1 6506   8.961  12.787   6.871
34889SOL    HW2 6507   9.100  12.833   6.913
34890SOL     OW 6508  14.868   5.416  14.689
34890SOL    HW1 6509   0.072   5.421  14.638
34890SOL    HW2 6510  14.798   5.431  14.626
34891SOL     OW 6511   2.846  13.496  14.817
34891SOL    HW1 6512   2.907  13.478  14.746
34891SOL    HW2 6513   2.863  13.587  14.842
34892SOL     OW 6514   6.932   0.022   5.638
34892SOL    HW1 6515   6.985   0.080   5.583
34892SOL    HW2 6516   6.875   0.081   5.688
34893SOL     OW 6517  14.339   2.202  13.236
34893SOL    HW1 6518  14.311   2.278  13.288
34893SOL    HW2 6519  14.270   2.137  13.250
34894SOL     OW 6520   0.491   1.992   7.908
34894SOL    HW1 6521   0.581   2.024   7.916
34894SOL    HW2 6522   0.486   1.957   7.818
34895SOL     OW 6523   1.364   4.548   6.955
34895SOL    HW1 6524   1.296   4.586   6.900
34895SOL    HW2 6525   1.412   4.489   6.896
34896SOL     OW 6526  10.524  10.685   8.961
34896SOL    HW1 6527  10.430  10.704   8.969
34896SOL    HW2 6528  10.550  10.661   9.050
34897SOL     OW 6529   9.882  10.765   0.455
34897SOL    HW1 6530   9.964  10.726   0.484
34897SOL    HW2 6531   9.884  10.757   0.360
34898SOL     OW 6532   6.313  14.374   1.504
34898SOL    HW1 6533   6.277  14.400   1.419
34898SOL    HW2 6534   6.238  14.377   1.564
34899SOL     OW 6535  14.106   3.934   5.635
34899SOL    HW1 6536  14.119   3.954   5.542
34899SOL    HW2 6537  14.147   4.008   5.681
34900SOL     OW 6538   5.631  12.468   8.344
34900SOL    HW1 6539   5.715  12.428   8.319
34900SOL    HW2 6540   5.634  12.473   8.439
34901SOL     OW 6541   0.965   4.253   3.545
34901SOL    HW1 6542   0.909   4.210   3.480
34901SOL    HW2 6543   0.904   4.303   3.599
34902SOL     OW 6544   9.813  12.408  11.768
34902SOL    HW1 6545   9.756  12.477  11.803
34902SOL    HW2 6546   9.808  12.420  11.673
34903SOL     OW 6547   3.813  11.244   2.564
34903SOL    HW1 6548   3.869  11.168   2.551
34903SOL    HW2 6549   3.784  11.238   2.655
34904SOL     OW 6550   0.291   0.822   6.970
34904SOL    HW1 6551   0.274   0.788   6.882
34904SOL    HW2 6552   0.352   0.759   7.009
34905SOL     OW 6553  11.326   5.275  14.364
34905SOL    HW1 6554  11.291   5.259  14.451
34905SOL    HW2 6555  11.248   5.290  14.310
34906SOL     OW 6556   3.942  14.664  10.754
34906SOL    HW1 6557   3.863  14.614  10.776
34906SOL    HW2 6558   3.973  14.625  10.672
34907SOL     OW 6559   3.207  13.080  13.975
34907SOL    HW1 6560   3.262  13.070  13.897
34907SOL    HW2 6561   3.176  12.992  13.994
34908SOL     OW 6562   2.219   5.821   4.576
34908SOL    HW1 6563   2.222   5.732   4.611
34908SOL    HW2 6564   2.156   5.815   4.503
34909SOL     OW 6565   3.342  13.171   1.846
34909SOL    HW1 6566   3.429  13.185   1.809
34909SOL    HW2 6567   3.334  13.237   1.915
34910SOL     OW 6568   7.458   5.487   5.740
34910SOL    HW1 6569   7.542   5.498   5.695
34910SOL    HW2 6570   7.397   5.542   5.692
34911SOL     OW 6571  10.739  12.108  13.151
34911SOL    HW1 6572  10.732  12.181  13.213
34911SOL    HW2 6573  10.696  12.141  13.072
34912SOL     OW 6574   9.157  11.135   7.277
34912SOL    HW1 6575   9.080  11.189   7.263
34912SOL    HW2 6576   9.141  11.092   7.361
34913SOL     OW 6577  13.745   3.363  11.657
34913SOL    HW1 6578  13.743   3.393  11.566
34913SOL    HW2 6579  13.661   3.319  11.670
34914SOL     OW 6580  11.424   4.031   5.619
34914SOL    HW1 6581  11.338   4.064   5.593
34914SOL    HW2 6582  11.476   4.110   5.634
34915SOL     OW 6583   0.178   3.293   9.054
34915SOL    HW1 6584   0.134   3.275   8.971
34915SOL    HW2 6585   0.232   3.216   9.071
34916SOL     OW 6586   3.745  13.335   7.729
34916SOL    HW1 6587   3.737  13.278   7.652
34916SOL    HW2 6588   3.655  13.359   7.751
34917SOL     OW 6589   7.558   8.311   7.348
34917SOL    HW1 6590   7.504   8.291   7.271
34917SOL    HW2 6591   7.501   8.292   7.423
34918SOL     OW 6592  10.609  14.837   9.682
34918SOL    HW1 6593  10.529   0.011   9.671
34918SOL    HW2 6594  10.659  14.854   9.603
34919SOL     OW 6595   3.748   2.238   8.411
34919SOL    HW1 6596   3.736   2.165   8.351
34919SOL    HW2 6597   3.832   2.276   8.387
34920SOL     OW 6598   2.832   3.198   6.818
34920SOL    HW1 6599   2.823   3.261   6.889
34920SOL    HW2 6600   2.742   3.181   6.789
34921SOL     OW 6601   0.472   2.594   4.697
34921SOL    HW1 6602   0.517   2.678   4.710
34921SOL    HW2 6603   0.384   2.608   4.733
34922SOL     OW 6604  11.842   9.501   6.133
34922SOL    HW1 6605  11.889   9.444   6.072
34922SOL    HW2 6606  11.868   9.590   6.107
34923SOL     OW 6607   3.960  10.306   6.699
34923SOL    HW1 6608   3.902  10.362   6.750
34923SOL    HW2 6609   3.903  10.263   6.636
34924SOL     OW 6610   2.180   3.919   6.955
34924SOL    HW1 6611   2.134   3.869   7.022
34924SOL    HW2 6612   2.238   3.977   7.004
34925SOL     OW 6613  11.011   3.403   0.877
34925SOL    HW1 6614  10.953   3.471   0.843
34925SOL    HW2 6615  10.987   3.325   0.827
34926SOL     OW 6616  13.127   2.936   9.827
34926SOL    HW1 6617  13.144   2.955   9.735
34926SOL    HW2 6618  13.084   3.016   9.860
34927SOL     OW 6619  13.363   4.916   5.527
34927SOL    HW1 6620  13.364   5.002   5.484
34927SOL    HW2 6621  13.402   4.932   5.612
34928SOL     OW 6622  14.474   7.422  10.077
34928SOL    HW1 6623  14.511   7.486  10.017
34928SOL    HW2 6624  14.550   7.373  10.109
34929SOL     OW 6625   3.979   2.267   5.013
34929SOL    HW1 6626   3.906   2.325   4.992
34929SOL    HW2 6627   3.993   2.217   4.932
34930SOL     OW 6628   7.013   6.584   4.565
34930SOL    HW1 6629   6.978   6.617   4.647
34930SOL    HW2 6630   6.966   6.633   4.497
34931SOL     OW 6631   0.070   0.220   4.593
34931SOL    HW1 6632  14.870   0.202   4.539
34931SOL    HW2 6633   0.114   0.293   4.550
34932SOL     OW 6634   1.869   7.899   3.785
34932SOL    HW1 6635   1.910   7.850   3.857
34932SOL    HW2 6636   1.937   7.959   3.754
34933SOL     OW 6637   8.683   5.403   8.348
34933SOL    HW1 6638   8.604   5.417   8.400
34933SOL    HW2 6639   8.652   5.363   8.267
34934SOL     OW 6640   2.394   7.754   3.064
34934SOL    HW1 6641   2.397   7.704   3.146
34934SOL    HW2 6642   2.304   7.746   3.033
34935SOL     OW 6643   1.320   1.736   7.599
34935SOL    HW1 6644   1.289   1.669   7.661
34935SOL    HW2 6645   1.358   1.804   7.654
34936SOL     OW 6646   0.700   4.330   5.835
34936SOL    HW1 6647   0.784   4.345   5.879
34936SOL    HW2 6648   0.653   4.413   5.844
34937SOL     OW 6649   0.651   7.697   5.002
34937SOL    HW1 6650   0.646   7.698   4.907
34937SOL    HW2 6651   0.744   7.698   5.022
34938SOL     OW 6652   4.553   6.432   7.874
34938SOL    HW1 6653   4.492   6.460   7.943
34938SOL    HW2 6654   4.624   6.389   7.922
34939SOL     OW 6655   5.087   9.719   3.628
34939SOL    HW1 6656   5.100   9.625   3.616
34939SOL    HW2 6657   5.171   9.750   3.661
34940SOL     OW 6658   0.291   7.239   0.728
34940SOL    HW1 6659   0.275   7.267   0.638
34940SOL    HW2 6660   0.282   7.144   0.726
34941SOL     OW 6661   1.486  12.200   5.774
34941SOL    HW1 6662   1.549  12.142   5.730
34941SOL    HW2 6663   1.522  12.212   5.862
34942SOL     OW 6664   0.267  11.476  10.739
34942SOL    HW1 6665   0.190  11.533  10.746
34942SOL    HW2 6666   0.263  11.443  10.649
34943SOL     OW 6667  11.207  10.324   5.057
34943SOL    HW1 6668  11.153  10.260   5.010
34943SOL    HW2 6669  11.296  10.307   5.025
34944SOL     OW 6670  10.251   6.648   4.375
34944SOL    HW1 6671  10.335   6.640   4.419
34944SOL    HW2 6672  10.199   6.705   4.432
34945SOL     OW 6673   5.924   4.848   9.488
34945SOL    HW1 6674   5.909   4.792   9.412
34945SOL    HW2 6675   5.841   4.847   9.536
34946SOL     OW 6676  12.090   6.916  13.287
34946SOL    HW1 6677  12.053   6.828  13.287
34946SOL    HW2 6678  12.185   6.902  13.295
34947SOL     OW 6679   1.521   9.206   6.861
34947SOL    HW1 6680   1.588   9.141   6.882
34947SOL    HW2 6681   1.438   9.158   6.864
34948SOL     OW 6682   5.099  11.734   0.719
34948SOL    HW1 6683   5.043  11.809   0.698
34948SOL    HW2 6684   5.188  11.766   0.704
34949SOL     OW 6685   0.556   3.714   8.188
34949SOL    HW1 6686   0.535   3.647   8.123
34949SOL    HW2 6687   0.651   3.708   8.200
34950SOL     OW 6688  13.357  11.751   6.335
34950SOL    HW1 6689  13.283  11.766   6.277
34950SOL    HW2 6690  13.392  11.666   6.308
34951SOL     OW 6691  11.543  14.628  11.158
34951SOL    HW1 6692  11.542  14.586  11.244
34951SOL    HW2 6693  11.583  14.714  11.174
34952SOL     OW 6694   5.596  11.094  13.712
34952SOL    HW1 6695   5.671  11.152  13.702
34952SOL    HW2 6696   5.609  11.051  13.796
34953SOL     OW 6697   3.029   5.099  12.390
34953SOL    HW1 6698   3.023   5.135  12.301
34953SOL    HW2 6699   3.051   5.007  12.377
34954SOL     OW 6700   5.686   1.281   0.995
34954SOL    HW1 6701   5.621   1.257   0.929
34954SOL    HW2 6702   5.770   1.275   0.949
34955SOL     OW 6703   6.592  10.646   3.194
34955SOL    HW1 6704   6.670  10.592   3.204
34955SOL    HW2 6705   6.625  10.733   3.174
34956SOL     OW 6706   4.330   7.178   7.656
34956SOL    HW1 6707   4.359   7.124   7.583
34956SOL    HW2 6708   4.381   7.258   7.650
34957SOL     OW 6709   0.114  14.369   9.275
34957SOL    HW1 6710   0.183  14.406   9.331
34957SOL    HW2 6711   0.159  14.309   9.217
34958SOL     OW 6712   9.495  12.484   3.294
34958SOL    HW1 6713   9.520  12.467   3.385
34958SOL    HW2 6714   9.510  12.577   3.282
34959SOL     OW 6715  11.476  14.607  12.197
34959SOL    HW1 6716  11.527  14.552  12.257
34959SOL    HW2 6717  11.534  14.682  12.179
34960SOL     OW 6718  11.335   9.375  10.080
34960SOL    HW1 6719  11.371   9.288  10.060
34960SOL    HW2 6720  11.254   9.380  10.028
34961SOL     OW 6721   0.235  14.668  10.328
34961SOL    HW1 6722   0.224  14.705  10.241
34961SOL    HW2 6723   0.318  14.619  10.324
34962SOL     OW 6724  10.998   6.124   5.908
34962SOL    HW1 6725  10.996   6.029   5.895
34962SOL    HW2 6726  11.082   6.152   5.872
34963SOL     OW 6727  11.652   8.973   8.482
34963SOL    HW1 6728  11.637   8.880   8.466
34963SOL    HW2 6729  11.661   9.011   8.394
34964SOL     OW 6730   6.329   0.418  11.826
34964SOL    HW1 6731   6.351   0.510  11.843
34964SOL    HW2 6732   6.347   0.406  11.733
34965SOL     OW 6733   1.992   0.499   1.290
34965SOL    HW1 6734   1.955   0.411   1.294
34965SOL    HW2 6735   2.013   0.519   1.382
34966SOL     OW 6736   8.557  14.416   1.710
34966SOL    HW1 6737   8.614  14.370   1.772
34966SOL    HW2 6738   8.586  14.507   1.715
34967SOL     OW 6739  11.089  10.722   9.097
34967SOL    HW1 6740  11.050  10.654   9.151
34967SOL    HW2 6741  11.145  10.771   9.158
34968SOL     OW 6742   6.514   0.508   8.319
34968SOL    HW1 6743   6.577   0.568   8.279
34968SOL    HW2 6744   6.557   0.422   8.313
34969SOL     OW 6745  12.799   9.065   5.648
34969SOL    HW1 6746  12.883   9.106   5.631
34969SOL    HW2 6747  12.800   9.046   5.742
34970SOL     OW 6748  13.938   8.723  12.181
34970SOL    HW1 6749  14.021   8.677  12.192
34970SOL    HW2 6750  13.932   8.781  12.257
34971SOL     OW 6751  14.463   5.969  10.440
34971SOL    HW1 6752  14.504   5.917  10.372
34971SOL    HW2 6753  14.417   5.905  10.495
34972SOL     OW 6754   7.876   6.766  12.848
34972SOL    HW1 6755   7.897   6.840  12.906
34972SOL    HW2 6756   7.946   6.767  12.783
34973SOL     OW 6757  12.983   4.013   6.674
34973SOL    HW1 6758  13.003   4.106   6.686
34973SOL    HW2 6759  12.910   3.997   6.733
34974SOL     OW 6760   8.707  11.036  12.657
34974SOL    HW1 6761   8.689  10.963  12.598
34974SOL    HW2 6762   8.655  11.016  12.735
34975SOL     OW 6763  13.347   7.281   0.452
34975SOL    HW1 6764  13.416   7.216   0.461
34975SOL    HW2 6765  13.269   7.240   0.489
34976SOL     OW 6766  11.133   8.144   5.923
34976SOL    HW1 6767  11.214   8.103   5.894
34976SOL    HW2 6768  11.097   8.184   5.844
34977SOL     OW 6769   4.557  13.641   2.301
34977SOL    HW1 6770   4.528  13.550   2.307
34977SOL    HW2 6771   4.549  13.662   2.207
34978SOL     OW 6772   0.581  10.787   3.818
34978SOL    HW1 6773   0.588  10.694   3.840
34978SOL    HW2 6774   0.641  10.798   3.744
34979SOL     OW 6775   7.562   5.937   2.935
34979SOL    HW1 6776   7.509   5.930   3.014
34979SOL    HW2 6777   7.544   5.857   2.886
34980SOL     OW 6778   7.302   2.860   7.575
34980SOL    HW1 6779   7.210   2.856   7.603
34980SOL    HW2 6780   7.350   2.817   7.645
34981SOL     OW 6781   0.771  14.174   5.320
34981SOL    HW1 6782   0.735  14.224   5.247
34981SOL    HW2 6783   0.834  14.115   5.280
34982SOL     OW 6784   6.423   0.283   6.455
34982SOL    HW1 6785   6.388   0.373   6.459
34982SOL    HW2 6786   6.345   0.229   6.440
34983SOL     OW 6787  10.474   2.260   8.078
34983SOL    HW1 6788  10.441   2.348   8.059
34983SOL    HW2 6789  10.469   2.214   7.994
34984SOL     OW 6790  12.341  13.246   4.507
34984SOL    HW1 6791  12.262  13.203   4.476
34984SOL    HW2 6792  12.412  13.185   4.485
34985SOL     OW 6793   5.290  14.501   0.756
34985SOL    HW1 6794   5.381  14.514   0.780
34985SOL    HW2 6795   5.241  14.511   0.838
34986SOL     OW 6796   8.040   7.160   9.178
34986SOL    HW1 6797   8.058   7.079   9.225
34986SOL    HW2 6798   8.072   7.146   9.090
34987SOL     OW 6799   7.867  13.862  14.523
34987SOL    HW1 6800   7.924  13.834  14.595
34987SOL    HW2 6801   7.920  13.923  14.472
34988SOL     OW 6802  11.471   8.836   5.000
34988SOL    HW1 6803  11.503   8.802   5.084
34988SOL    HW2 6804  11.377   8.850   5.014
34989SOL     OW 6805   2.990   0.956  11.011
34989SOL    HW1 6806   2.910   0.973  11.060
34989SOL    HW2 6807   2.960   0.937  10.922
34990SOL     OW 6808   1.685  10.133   5.959
34990SOL    HW1 6809   1.676  10.077   6.035
34990SOL    HW2 6810   1.646  10.083   5.887
34991SOL     OW 6811   3.310   9.137   3.803
34991SOL    HW1 6812   3.253   9.206   3.770
34991SOL    HW2 6813   3.358   9.177   3.875
34992SOL     OW 6814   2.691  13.326   6.349
34992SOL    HW1 6815   2.685  13.313   6.444
34992SOL    HW2 6816   2.785  13.339   6.333
34993SOL     OW 6817  14.772  12.395  14.095
34993SOL    HW1 6818  14.837  12.410  14.027
34993SOL    HW2 6819  14.822  12.395  14.177
34994SOL     OW 6820   7.465  10.575  13.432
34994SOL    HW1 6821   7.495  10.504  13.376
34994SOL    HW2 6822   7.516  10.651  13.404
34995SOL     OW 6823   6.324   6.511   9.917
34995SOL    HW1 6824   6.289   6.532  10.004
34995SOL    HW2 6825   6.259   6.450   9.880
34996SOL     OW 6826   7.209   7.455   7.465
34996SOL    HW1 6827   7.218   7.528   7.526
34996SOL    HW2 6828   7.164   7.387   7.516
34997SOL     OW 6829  12.140   8.305   6.807
34997SOL    HW1 6830  12.101   8.380   6.852
34997SOL    HW2 6831  12.127   8.231   6.867
34998SOL     OW 6832   6.088  14.305  12.043
34998SOL    HW1 6833   6.086  14.341  12.132
34998SOL    HW2 6834   6.133  14.371  11.991
34999SOL     OW 6835   9.045  11.997  13.302
34999SOL    HW1 6836   8.990  12.021  13.226
34999SOL    HW2 6837   9.124  12.049  13.291
35000SOL     OW 6838  10.184   2.524  14.828
35000SOL    HW1 6839  10.151   2.445  14.786
35000SOL    HW2 6840  10.262   2.547  14.778
35001SOL     OW 6841  13.213  13.844   5.299
35001SOL    HW1 6842  13.211  13.891   5.382
35001SOL    HW2 6843  13.298  13.800   5.297
35002SOL     OW 6844   1.791  12.766   1.392
35002SOL    HW1 6845   1.787  12.745   1.299
35002SOL    HW2 6846   1.703  12.798   1.413
35003SOL     OW 6847  10.765   5.672  10.215
35003SOL    HW1 6848  10.754   5.664  10.120
35003SOL    HW2 6849  10.858   5.687  10.227
35004SOL     OW 6850  12.397  11.720  14.557
35004SOL    HW1 6851  12.367  11.645  14.608
35004SOL    HW2 6852  12.489  11.731  14.582
35005SOL     OW 6853  12.875  10.293   3.206
35005SOL    HW1 6854  12.790  10.327   3.179
35005SOL    HW2 6855  12.938  10.337   3.150
35006SOL     OW 6856   8.272  12.517  13.864
35006SOL    HW1 6857   8.294  12.540  13.954
35006SOL    HW2 6858   8.186  12.556  13.849
35007SOL     OW 6859   5.001   6.339   7.180
35007SOL    HW1 6860   5.076   6.398   7.189
35007SOL    HW2 6861   5.013   6.298   7.094
35008SOL     OW 6862   2.619  13.570   2.735
35008SOL    HW1 6863   2.619  13.526   2.650
35008SOL    HW2 6864   2.568  13.650   2.721
35009SOL     OW 6865   8.961   9.801  12.211
35009SOL    HW1 6866   9.009   9.803  12.294
35009SOL    HW2 6867   9.003   9.732  12.160
35010SOL     OW 6868   6.896   2.504   2.120
35010SOL    HW1 6869   6.843   2.492   2.041
35010SOL    HW2 6870   6.839   2.553   2.180
35011SOL     OW 6871   4.303   4.900  13.790
35011SOL    HW1 6872   4.370   4.921  13.856
35011SOL    HW2 6873   4.306   4.973  13.729
35012SOL     OW 6874   3.393   2.571  13.576
35012SOL    HW1 6875   3.338   2.493  13.566
35012SOL    HW2 6876   3.339   2.633  13.624
35013SOL     OW 6877  11.380   2.007   1.121
35013SOL    HW1 6878  11.456   2.064   1.121
35013SOL    HW2 6879  11.406   1.930   1.071
35014SOL     OW 6880  11.124   6.769  11.499
35014SOL    HW1 6881  11.213   6.736  11.512
35014SOL    HW2 6882  11.074   6.692  11.473
35015SOL     OW 6883   8.327   2.660   8.078
35015SOL    HW1 6884   8.334   2.729   8.144
35015SOL    HW2 6885   8.417   2.636   8.059
35016SOL     OW 6886   1.265   5.441   4.451
35016SOL    HW1 6887   1.189   5.487   4.486
35016SOL    HW2 6888   1.264   5.462   4.357
35017SOL     OW 6889  10.431   5.036   7.031
35017SOL    HW1 6890  10.393   5.116   6.995
35017SOL    HW2 6891  10.420   4.971   6.962
35018SOL     OW 6892   7.516   4.610   8.546
35018SOL    HW1 6893   7.464   4.601   8.466
35018SOL    HW2 6894   7.514   4.522   8.586
35019SOL     OW 6895  14.242   5.795  14.253
35019SOL    HW1 6896  14.334   5.797  14.278
35019SOL    HW2 6897  14.207   5.879  14.282
35020SOL     OW 6898   9.496   6.819   2.598
35020SOL    HW1 6899   9.503   6.902   2.552
35020SOL    HW2 6900   9.418   6.828   2.653
35021SOL     OW 6901   5.696   1.979   0.494
35021SOL    HW1 6902   5.697   2.060   0.442
35021SOL    HW2 6903   5.620   1.931   0.463
35022SOL     OW 6904   6.781   0.016   4.323
35022SOL    HW1 6905   6.791  14.812   4.271
35022SOL    HW2 6906   6.704   0.059   4.286
35023SOL     OW 6907   3.768   9.212  10.909
35023SOL    HW1 6908   3.831   9.284  10.902
35023SOL    HW2 6909   3.783   9.160  10.830
35024SOL     OW 6910   2.052  12.614  11.653
35024SOL    HW1 6911   2.063  12.535  11.599
35024SOL    HW2 6912   2.141  12.646  11.667
35025SOL     OW 6913   7.897   5.085  12.701
35025SOL    HW1 6914   7.859   5.168  12.731
35025SOL    HW2 6915   7.861   5.019  12.760
35026SOL     OW 6916   8.820   7.031  13.483
35026SOL    HW1 6917   8.911   7.043  13.510
35026SOL    HW2 6918   8.799   6.941  13.511
35027SOL     OW 6919   1.614   1.987   5.625
35027SOL    HW1 6920   1.666   1.997   5.705
35027SOL    HW2 6921   1.525   2.012   5.651
35028SOL     OW 6922   0.953   7.452   7.525
35028SOL    HW1 6923   0.879   7.425   7.579
35028SOL    HW2 6924   0.919   7.449   7.435
35029SOL     OW 6925  13.223  13.838   0.356
35029SOL    HW1 6926  13.241  13.744   0.359
35029SOL    HW2 6927  13.215  13.857   0.262
35030SOL     OW 6928  11.701  11.840   4.701
35030SOL    HW1 6929  11.647  11.919   4.706
35030SOL    HW2 6930  11.739  11.831   4.789
35031SOL     OW 6931   6.982   6.058   5.528
35031SOL    HW1 6932   7.065   6.103   5.511
35031SOL    HW2 6933   6.962   6.078   5.619
35032SOL     OW 6934  11.493   8.362   5.111
35032SOL    HW1 6935  11.464   8.281   5.067
35032SOL    HW2 6936  11.538   8.411   5.042
35033SOL     OW 6937   2.474  11.251   0.628
35033SOL    HW1 6938   2.461  11.314   0.557
35033SOL    HW2 6939   2.568  11.256   0.647
35034SOL     OW 6940  11.240   2.488  12.638
35034SOL    HW1 6941  11.303   2.488  12.567
35034SOL    HW2 6942  11.155   2.477  12.595
35035SOL     OW 6943   6.684   5.768  12.639
35035SOL    HW1 6944   6.596   5.737  12.618
35035SOL    HW2 6945   6.675   5.863  12.645
35036SOL     OW 6946   1.720   5.656   2.659
35036SOL    HW1 6947   1.751   5.741   2.691
35036SOL    HW2 6948   1.797   5.599   2.663
35037SOL     OW 6949   9.329   8.575   5.343
35037SOL    HW1 6950   9.306   8.656   5.298
35037SOL    HW2 6951   9.248   8.525   5.345
35038SOL     OW 6952   4.034   7.581  11.804
35038SOL    HW1 6953   4.006   7.514  11.866
35038SOL    HW2 6954   3.990   7.558  11.722
35039SOL     OW 6955   6.522   7.273   4.283
35039SOL    HW1 6956   6.465   7.201   4.309
35039SOL    HW2 6957   6.594   7.270   4.346
35040SOL     OW 6958   7.845  10.965   8.559
35040SOL    HW1 6959   7.801  10.893   8.603
35040SOL    HW2 6960   7.887  10.925   8.483
35041SOL     OW 6961   2.937  11.074   5.394
35041SOL    HW1 6962   2.897  10.987   5.395
35041SOL    HW2 6963   3.018  11.063   5.345
35042SOL     OW 6964  10.265  11.209  13.108
35042SOL    HW1 6965  10.337  11.231  13.168
35042SOL    HW2 6966  10.280  11.118  13.084
35043SOL     OW 6967   2.373   6.357   3.809
35043SOL    HW1 6968   2.357   6.336   3.717
35043SOL    HW2 6969   2.425   6.437   3.807
35044SOL     OW 6970   5.501   3.378   1.627
35044SOL    HW1 6971   5.564   3.318   1.588
35044SOL    HW2 6972   5.425   3.323   1.647
35045SOL     OW 6973  12.774   7.778   2.609
35045SOL    HW1 6974  12.792   7.770   2.702
35045SOL    HW2 6975  12.783   7.872   2.590
35046SOL     OW 6976   2.837  10.656   4.575
35046SOL    HW1 6977   2.750  10.677   4.542
35046SOL    HW2 6978   2.876  10.601   4.507
35047SOL     OW 6979   4.480  10.738   5.146
35047SOL    HW1 6980   4.497  10.833   5.150
35047SOL    HW2 6981   4.423  10.727   5.071
35048SOL     OW 6982   8.651  13.211   8.148
35048SOL    HW1 6983   8.647  13.176   8.060
35048SOL    HW2 6984   8.667  13.136   8.204
35049SOL     OW 6985   2.036  14.790   5.988
35049SOL    HW1 6986   1.942  14.808   5.987
35049SOL    HW2 6987   2.041  14.694   5.983
35050SOL     OW 6988   8.743   4.606   5.424
35050SOL    HW1 6989   8.789   4.534   5.382
35050SOL    HW2 6990   8.761   4.596   5.517
35051SOL     OW 6991   5.015  14.555  13.255
35051SOL    HW1 6992   5.024  14.540  13.161
35051SOL    HW2 6993   5.086  14.616  13.276
35052SOL     OW 6994  12.329   7.776   9.066
35052SOL    HW1 6995  12.394   7.763   9.136
35052SOL    HW2 6996  12.349   7.708   9.002
35053SOL     OW 6997   0.640  13.153   0.123
35053SOL    HW1 6998   0.685  13.127   0.043
35053SOL    HW2 6999   0.692  13.116   0.194
35054SOL     OW 7000   1.962   2.357   4.568
35054SOL    HW1 7001   1.926   2.416   4.503
35054SOL    HW2 7002   1.892   2.294   4.585
35055SOL     OW 7003  12.263   3.838  13.636
35055SOL    HW1 7004  12.252   3.850  13.730
35055SOL    HW2 7005  12.349   3.797  13.626
35056SOL     OW 7006   6.618   5.052  14.486
35056SOL    HW1 7007   6.582   5.047  14.574
35056SOL    HW2 7008   6.563   5.115  14.440
35057SOL     OW 7009   0.337   4.223   3.977
35057SOL    HW1 7010   0.404   4.178   3.925
35057SOL    HW2 7011   0.336   4.313   3.943
35058SOL     OW 7012  13.193  13.378   5.110
35058SOL    HW1 7013  13.126  13.445   5.122
35058SOL    HW2 7014  13.210  13.378   5.016
35059SOL     OW 7015  13.222  14.166   9.302
35059SOL    HW1 7016  13.256  14.112   9.230
35059SOL    HW2 7017  13.195  14.102   9.368
35060SOL     OW 7018   2.887  12.811   8.622
35060SOL    HW1 7019   2.875  12.731   8.673
35060SOL    HW2 7020   2.798  12.836   8.597
35061SOL     OW 7021   3.826   7.786   7.127
35061SOL    HW1 7022   3.875   7.808   7.206
35061SOL    HW2 7023   3.772   7.711   7.152
35062SOL     OW 7024   8.035  13.069  11.190
35062SOL    HW1 7025   7.996  13.156  11.177
35062SOL    HW2 7026   8.002  13.017  11.118
35063SOL     OW 7027  13.625   5.595   9.951
35063SOL    HW1 7028  13.539   5.566   9.920
35063SOL    HW2 7029  13.679   5.516   9.951
35064SOL     OW 7030   5.661   0.239   2.388
35064SOL    HW1 7031   5.661   0.285   2.304
35064SOL    HW2 7032   5.605   0.292   2.444
35065SOL     OW 7033  12.589   1.826   4.064
35065SOL    HW1 7034  12.516   1.769   4.040
35065SOL    HW2 7035  12.639   1.775   4.128
35066SOL     OW 7036   8.752   2.239  11.136
35066SOL    HW1 7037   8.799   2.297  11.076
35066SOL    HW2 7038   8.737   2.292  11.214
35067SOL     OW 7039   4.415  11.655   4.849
35067SOL    HW1 7040   4.343  11.663   4.910
35067SOL    HW2 7041   4.383  11.694   4.768
35068SOL     OW 7042   5.429  12.431   9.296
35068SOL    HW1 7043   5.417  12.346   9.255
35068SOL    HW2 7044   5.505  12.469   9.251
35069SOL     OW 7045  13.080   4.875  10.923
35069SOL    HW1 7046  13.021   4.850  10.994
35069SOL    HW2 7047  13.134   4.945  10.961
35070SOL     OW 7048  14.496   5.515   8.018
35070SOL    HW1 7049  14.588   5.529   8.037
35070SOL    HW2 7050  14.493   5.487   7.927
35071SOL     OW 7051   4.342   9.216  10.649
35071SOL    HW1 7052   4.267   9.188  10.597
35071SOL    HW2 7053   4.362   9.304  10.617
35072SOL     OW 7054   9.435  10.753   3.950
35072SOL    HW1 7055   9.380  10.688   3.906
35072SOL    HW2 7056   9.375  10.823   3.974
35073SOL     OW 7057   5.263  10.254  13.040
35073SOL    HW1 7058   5.341  10.234  12.988
35073SOL    HW2 7059   5.287  10.333  13.088
35074SOL     OW 7060   8.313   8.610   2.696
35074SOL    HW1 7061   8.239   8.603   2.636
35074SOL    HW2 7062   8.295   8.688   2.748
35075SOL     OW 7063   6.989   6.290  13.881
35075SOL    HW1 7064   7.079   6.262  13.896
35075SOL    HW2 7065   6.984   6.377  13.920
35076SOL     OW 7066   2.741   9.050   1.695
35076SOL    HW1 7067   2.755   9.139   1.663
35076SOL    HW2 7068   2.748   9.058   1.791
35077SOL     OW 7069   5.460   4.068   7.294
35077SOL    HW1 7070   5.472   3.980   7.258
35077SOL    HW2 7071   5.462   4.126   7.217
35078SOL     OW 7072   5.944   9.870  11.635
35078SOL    HW1 7073   6.009   9.930  11.673
35078SOL    HW2 7074   5.958   9.876  11.540
35079SOL     OW 7075   1.736   9.971   1.028
35079SOL    HW1 7076   1.764   9.883   1.003
35079SOL    HW2 7077   1.648   9.979   0.989
35080SOL     OW 7078  10.031  11.121   8.833
35080SOL    HW1 7079  10.083  11.131   8.912
35080SOL    HW2 7080  10.041  11.204   8.786
35081SOL     OW 7081   2.389  14.482   7.526
35081SOL    HW1 7082   2.397  14.479   7.622
35081SOL    HW2 7083   2.469  14.526   7.497
35082SOL     OW 7084   3.464   3.710   4.928
35082SOL    HW1 7085   3.515   3.654   4.987
35082SOL    HW2 7086   3.514   3.712   4.847
35083SOL     OW 7087   0.513  11.134   4.219
35083SOL    HW1 7088   0.576  11.072   4.184
35083SOL    HW2 7089   0.520  11.125   4.314
35084SOL     OW 7090   9.660  10.745   6.263
35084SOL    HW1 7091   9.729  10.679   6.264
35084SOL    HW2 7092   9.700  10.821   6.221
35085SOL     OW 7093   1.063   8.532   0.765
35085SOL    HW1 7094   0.975   8.499   0.744
35085SOL    HW2 7095   1.081   8.496   0.852
35086SOL     OW 7096   4.128   0.363   3.699
35086SOL    HW1 7097   4.054   0.325   3.653
35086SOL    HW2 7098   4.110   0.347   3.792
35087SOL     OW 7099  10.136   3.372   0.407
35087SOL    HW1 7100  10.203   3.432   0.440
35087SOL    HW2 7101  10.110   3.320   0.483
35088SOL     OW 7102   8.465   4.557   3.277
35088SOL    HW1 7103   8.510   4.474   3.264
35088SOL    HW2 7104   8.421   4.574   3.194
35089SOL     OW 7105   6.701  10.534   2.355
35089SOL    HW1 7106   6.635  10.603   2.356
35089SOL    HW2 7107   6.667  10.469   2.294
35090SOL     OW 7108  12.891   4.787   9.619
35090SOL    HW1 7109  12.970   4.737   9.598
35090SOL    HW2 7110  12.828   4.722   9.649
35091SOL     OW 7111   3.261  11.923   9.167
35091SOL    HW1 7112   3.196  11.854   9.177
35091SOL    HW2 7113   3.281  11.925   9.074
35092SOL     OW 7114  12.752  11.124   8.923
35092SOL    HW1 7115  12.784  11.175   8.848
35092SOL    HW2 7116  12.822  11.131   8.988
35093SOL     OW 7117  11.004  14.392   5.969
35093SOL    HW1 7118  10.984  14.434   6.053
35093SOL    HW2 7119  10.927  14.338   5.951
35094SOL     OW 7120  12.570   8.599   0.215
35094SOL    HW1 7121  12.544   8.510   0.237
35094SOL    HW2 7122  12.507   8.627   0.149
35095SOL     OW 7123   1.603   5.839   5.297
35095SOL    HW1 7124   1.657   5.820   5.374
35095SOL    HW2 7125   1.554   5.918   5.321
35096SOL     OW 7126   9.153  12.000  12.582
35096SOL    HW1 7127   9.232  12.053  12.576
35096SOL    HW2 7128   9.176  11.928  12.641
35097SOL     OW 7129   3.173   0.993  11.797
35097SOL    HW1 7130   3.176   0.980  11.892
35097SOL    HW2 7131   3.080   0.982  11.774
35098SOL     OW 7132   6.516   9.578   6.640
35098SOL    HW1 7133   6.563   9.535   6.711
35098SOL    HW2 7134   6.548   9.536   6.561
35099SOL     OW 7135   7.538  13.688   9.045
35099SOL    HW1 7136   7.575  13.614   9.093
35099SOL    HW2 7137   7.454  13.656   9.013
35100SOL     OW 7138  13.189   3.225   1.182
35100SOL    HW1 7139  13.229   3.309   1.159
35100SOL    HW2 7140  13.105   3.225   1.137
35101SOL     OW 7141  12.675   8.013   5.096
35101SOL    HW1 7142  12.587   8.000   5.130
35101SOL    HW2 7143  12.692   8.107   5.105
35102SOL     OW 7144   1.802  13.178  10.037
35102SOL    HW1 7145   1.796  13.159   9.944
35102SOL    HW2 7146   1.748  13.111  10.079
35103SOL     OW 7147   1.285   2.729   0.664
35103SOL    HW1 7148   1.347   2.781   0.613
35103SOL    HW2 7149   1.269   2.651   0.611
35104SOL     OW 7150  10.814   2.767   9.500
35104SOL    HW1 7151  10.829   2.712   9.577
35104SOL    HW2 7152  10.719   2.767   9.489
35105SOL     OW 7153  14.813   7.498   9.604
35105SOL    HW1 7154  14.829   7.572   9.662
35105SOL    HW2 7155  14.718   7.485   9.606
35106SOL     OW 7156  14.041   5.259  11.749
35106SOL    HW1 7157  14.008   5.180  11.792
35106SOL    HW2 7158  13.990   5.266  11.669
35107SOL     OW 7159   2.080   9.541   9.198
35107SOL    HW1 7160   2.130   9.555   9.117
35107SOL    HW2 7161   2.001   9.594   9.186
35108SOL     OW 7162   4.359  14.724  14.470
35108SOL    HW1 7163   4.309  14.768  14.401
35108SOL    HW2 7164   4.418  14.792  14.504
35109SOL     OW 7165   3.115  12.563   1.708
35109SOL    HW1 7166   3.150  12.580   1.795
35109SOL    HW2 7167   3.084  12.649   1.678
35110SOL     OW 7168  14.507  12.889   6.550
35110SOL    HW1 7169  14.488  12.901   6.457
35110SOL    HW2 7170  14.570  12.957   6.571
35111SOL     OW 7171   0.182   5.168   7.426
35111SOL    HW1 7172   0.218   5.207   7.347
35111SOL    HW2 7173   0.154   5.243   7.479
35112SOL     OW 7174  13.759  12.435   1.921
35112SOL    HW1 7175  13.710  12.431   2.003
35112SOL    HW2 7176  13.737  12.354   1.876
35113SOL     OW 7177   2.469  14.608   8.937
35113SOL    HW1 7178   2.553  14.571   8.910
35113SOL    HW2 7179   2.483  14.702   8.938
35114SOL     OW 7180  12.371   9.840  11.264
35114SOL    HW1 7181  12.452   9.824  11.313
35114SOL    HW2 7182  12.366   9.767  11.202
35115SOL     OW 7183  14.122   6.269   0.866
35115SOL    HW1 7184  14.135   6.227   0.781
35115SOL    HW2 7185  14.100   6.360   0.844
35116SOL     OW 7186   7.325   7.561   5.608
35116SOL    HW1 7187   7.386   7.501   5.567
35116SOL    HW2 7188   7.296   7.619   5.537
35117SOL     OW 7189   6.682  11.248  13.949
35117SOL    HW1 7190   6.596  11.217  13.920
35117SOL    HW2 7191   6.682  11.341  13.929
35118SOL     OW 7192   1.694   8.301   7.288
35118SOL    HW1 7193   1.746   8.270   7.214
35118SOL    HW2 7194   1.668   8.390   7.263
35119SOL     OW 7195  12.487   1.758  12.611
35119SOL    HW1 7196  12.434   1.687  12.647
35119SOL    HW2 7197  12.490   1.824  12.680
35120SOL     OW 7198  14.570   0.023   1.948
35120SOL    HW1 7199  14.582   0.008   1.855
35120SOL    HW2 7200  14.510   0.098   1.953
35121SOL     OW 7201  14.344   0.466  12.427
35121SOL    HW1 7202  14.344   0.379  12.389
35121SOL    HW2 7203  14.318   0.453  12.518
35122SOL     OW 7204  14.081   8.240   6.340
35122SOL    HW1 7205  14.155   8.279   6.294
35122SOL    HW2 7206  14.005   8.262   6.287
35123SOL     OW 7207  13.045   8.390  14.265
35123SOL    HW1 7208  13.066   8.349  14.349
35123SOL    HW2 7209  13.042   8.484  14.285
35124SOL     OW 7210   4.508  12.718  12.777
35124SOL    HW1 7211   4.509  12.680  12.689
35124SOL    HW2 7212   4.577  12.784  12.775
35125SOL     OW 7213  14.170   6.196  10.223
35125SOL    HW1 7214  14.224   6.232  10.152
35125SOL    HW2 7215  14.147   6.271  10.277
35126SOL     OW 7216  13.527  10.178   5.889
35126SOL    HW1 7217  13.481  10.260   5.909
35126SOL    HW2 7218  13.572  10.155   5.970
35127SOL     OW 7219   2.279  13.550   0.086
35127SOL    HW1 7220   2.242  13.477   0.136
35127SOL    HW2 7221   2.350  13.511   0.034
35128SOL     OW 7222   3.902  12.899  11.964
35128SOL    HW1 7223   3.896  12.872  11.873
35128SOL    HW2 7224   3.825  12.861  12.006
35129SOL     OW 7225  11.244   9.808   6.768
35129SOL    HW1 7226  11.207   9.732   6.723
35129SOL    HW2 7227  11.329   9.821   6.726
35130SOL     OW 7228   9.706   8.879  14.602
35130SOL    HW1 7229   9.711   8.923  14.687
35130SOL    HW2 7230   9.770   8.809  14.608
35131SOL     OW 7231   5.685   2.977   5.725
35131SOL    HW1 7232   5.645   2.892   5.709
35131SOL    HW2 7233   5.629   3.017   5.792
35132SOL     OW 7234   8.430  14.384   7.204
35132SOL    HW1 7235   8.476  14.438   7.140
35132SOL    HW2 7236   8.338  14.408   7.195
35133SOL     OW 7237   2.595   4.399  12.068
35133SOL    HW1 7238   2.638   4.346  12.135
35133SOL    HW2 7239   2.634   4.486  12.077
35134SOL     OW 7240   8.767  12.373  14.029
35134SOL    HW1 7241   8.725  12.456  14.008
35134SOL    HW2 7242   8.710  12.306  13.990
35135SOL     OW 7243  14.645  10.358   9.380
35135SOL    HW1 7244  14.651  10.393   9.469
35135SOL    HW2 7245  14.734  10.328   9.360
35136SOL     OW 7246   0.101   1.972   6.009
35136SOL    HW1 7247   0.140   2.007   5.929
35136SOL    HW2 7248   0.162   1.998   6.078
35137SOL     OW 7249   0.964  10.488  13.477
35137SOL    HW1 7250   0.934  10.564  13.428
35137SOL    HW2 7251   1.059  10.484  13.460
35138SOL     OW 7252   0.702   9.535   3.452
35138SOL    HW1 7253   0.676   9.456   3.499
35138SOL    HW2 7254   0.639   9.541   3.380
35139SOL     OW 7255  10.844  13.372   9.492
35139SOL    HW1 7256  10.750  13.353   9.497
35139SOL    HW2 7257  10.874  13.326   9.414
35140SOL     OW 7258   8.834   8.569   1.834
35140SOL    HW1 7259   8.912   8.570   1.779
35140SOL    HW2 7260   8.771   8.624   1.787
35141SOL     OW 7261   1.011   2.979  12.333
35141SOL    HW1 7262   1.015   2.885  12.312
35141SOL    HW2 7263   0.948   2.985  12.404
35142SOL     OW 7264  12.209   3.918  11.615
35142SOL    HW1 7265  12.155   3.942  11.691
35142SOL    HW2 7266  12.172   3.834  11.585
35143SOL     OW 7267   1.567  14.247   2.232
35143SOL    HW1 7268   1.534  14.335   2.216
35143SOL    HW2 7269   1.644  14.239   2.174
35144SOL     OW 7270   3.742   0.747   3.357
35144SOL    HW1 7271   3.707   0.721   3.272
35144SOL    HW2 7272   3.707   0.835   3.372
35145SOL     OW 7273   5.413   8.821   9.578
35145SOL    HW1 7274   5.350   8.800   9.508
35145SOL    HW2 7275   5.463   8.740   9.589
35146SOL     OW 7276   7.157  11.647   1.534
35146SOL    HW1 7277   7.120  11.589   1.601
35146SOL    HW2 7278   7.228  11.693   1.579
35147SOL     OW 7279   6.906   6.184   3.152
35147SOL    HW1 7280   6.919   6.106   3.206
35147SOL    HW2 7281   6.907   6.257   3.215
35148SOL     OW 7282   9.821   9.714   5.089
35148SOL    HW1 7283   9.812   9.803   5.125
35148SOL    HW2 7284   9.742   9.669   5.118
35149SOL     OW 7285   5.312  13.093   3.843
35149SOL    HW1 7286   5.261  13.089   3.924
35149SOL    HW2 7287   5.257  13.145   3.784
35150SOL     OW 7288   6.138   4.897   9.950
35150SOL    HW1 7289   6.132   4.802   9.945
35150SOL    HW2 7290   6.164   4.924   9.861
35151SOL     OW 7291   9.801   1.645   6.250
35151SOL    HW1 7292   9.802   1.740   6.267
35151SOL    HW2 7293   9.874   1.630   6.191
35152SOL     OW 7294  13.286   8.105   1.408
35152SOL    HW1 7295  13.330   8.038   1.461
35152SOL    HW2 7296  13.255   8.057   1.331
35153SOL     OW 7297  10.642   7.490   6.777
35153SOL    HW1 7298  10.637   7.398   6.801
35153SOL    HW2 7299  10.682   7.533   6.853
35154SOL     OW 7300   0.989   8.205  12.639
35154SOL    HW1 7301   1.028   8.176  12.721
35154SOL    HW2 7302   0.961   8.295  12.657
35155SOL     OW 7303   8.195   9.664  13.608
35155SOL    HW1 7304   8.215   9.639  13.518
35155SOL    HW2 7305   8.279   9.696  13.643
35156SOL     OW 7306  13.929   1.978  12.067
35156SOL    HW1 7307  13.964   1.903  12.019
35156SOL    HW2 7308  13.899   1.941  12.150
35157SOL     OW 7309   6.615   8.902  14.102
35157SOL    HW1 7310   6.646   8.984  14.141
35157SOL    HW2 7311   6.552   8.868  14.165
35158SOL     OW 7312   7.332   8.434   0.731
35158SOL    HW1 7313   7.248   8.453   0.771
35158SOL    HW2 7314   7.396   8.479   0.787
35159SOL     OW 7315  10.084   5.414   6.530
35159SOL    HW1 7316  10.119   5.493   6.571
35159SOL    HW2 7317  10.023   5.379   6.594
35160SOL     OW 7318   1.268  10.119   4.405
35160SOL    HW1 7319   1.210  10.102   4.331
35160SOL    HW2 7320   1.210  10.149   4.475
35161SOL     OW 7321   6.757   6.345   9.986
35161SOL    HW1 7322   6.748   6.370  10.078
35161SOL    HW2 7323   6.667   6.336   9.954
35162SOL     OW 7324  12.461  11.241  10.694
35162SOL    HW1 7325  12.462  11.317  10.752
35162SOL    HW2 7326  12.370  11.237  10.662
35163SOL     OW 7327   3.288  12.984   7.129
35163SOL    HW1 7328   3.340  13.062   7.110
35163SOL    HW2 7329   3.240  12.967   7.048
35164SOL     OW 7330   5.838   9.447  10.190
35164SOL    HW1 7331   5.744   9.454  10.173
35164SOL    HW2 7332   5.850   9.359  10.224
35165SOL     OW 7333   6.501  14.095   9.876
35165SOL    HW1 7334   6.423  14.130   9.833
35165SOL    HW2 7335   6.564  14.084   9.804
35166SOL     OW 7336   5.903   0.453   1.625
35166SOL    HW1 7337   5.945   0.389   1.683
35166SOL    HW2 7338   5.885   0.405   1.545
35167SOL     OW 7339   3.463   9.166  13.781
35167SOL    HW1 7340   3.518   9.089  13.768
35167SOL    HW2 7341   3.502   9.211  13.856
35168SOL     OW 7342   4.250   4.879   9.536
35168SOL    HW1 7343   4.327   4.873   9.479
35168SOL    HW2 7344   4.192   4.940   9.491
35169SOL     OW 7345   0.503   6.492   0.497
35169SOL    HW1 7346   0.534   6.401   0.497
35169SOL    HW2 7347   0.407   6.484   0.500
35170SOL     OW 7348  12.155   9.970  14.528
35170SOL    HW1 7349  12.163   9.905  14.458
35170SOL    HW2 7350  12.143   9.918  14.608
35171SOL     OW 7351  10.416   1.878   4.949
35171SOL    HW1 7352  10.323   1.890   4.966
35171SOL    HW2 7353  10.437   1.944   4.883
35172SOL     OW 7354  12.611  13.835   1.103
35172SOL    HW1 7355  12.572  13.750   1.083
35172SOL    HW2 7356  12.664  13.819   1.181
35173SOL     OW 7357   1.457   3.988   4.782
35173SOL    HW1 7358   1.393   4.005   4.851
35173SOL    HW2 7359   1.508   4.069   4.777
35174SOL     OW 7360   8.350   2.746  13.308
35174SOL    HW1 7361   8.433   2.772  13.348
35174SOL    HW2 7362   8.289   2.736  13.381
35175SOL     OW 7363  12.301   3.123   8.029
35175SOL    HW1 7364  12.262   3.171   7.956
35175SOL    HW2 7365  12.295   3.183   8.103
35176SOL     OW 7366  11.797   1.821   7.860
35176SOL    HW1 7367  11.806   1.902   7.810
35176SOL    HW2 7368  11.840   1.755   7.806
35177SOL     OW 7369   8.428   0.767  12.664
35177SOL    HW1 7370   8.447   0.861  12.670
35177SOL    HW2 7371   8.460   0.731  12.747
35178SOL     OW 7372   3.631   3.511   9.512
35178SOL    HW1 7373   3.562   3.512   9.445
35178SOL    HW2 7374   3.596   3.563   9.584
35179SOL     OW 7375   0.866   0.001   7.103
35179SOL    HW1 7376   0.819   0.061   7.161
35179SOL    HW2 7377   0.958   0.010   7.127
35180SOL     OW 7378  14.103   0.920   4.567
35180SOL    HW1 7379  14.115   0.893   4.476
35180SOL    HW2 7380  14.192   0.917   4.604
35181SOL     OW 7381  12.114  13.166  11.228
35181SOL    HW1 7382  12.036  13.203  11.269
35181SOL    HW2 7383  12.100  13.072  11.229
35182SOL     OW 7384  14.579   9.010  11.764
35182SOL    HW1 7385  14.572   8.921  11.730
35182SOL    HW2 7386  14.672   9.031  11.761
35183SOL     OW 7387  13.452   8.734   3.133
35183SOL    HW1 7388  13.435   8.716   3.226
35183SOL    HW2 7389  13.547   8.736   3.127
35184SOL     OW 7390   5.425   9.539   4.043
35184SOL    HW1 7391   5.480   9.570   3.971
35184SOL    HW2 7392   5.437   9.444   4.044
35185SOL     OW 7393   9.570   8.405   8.769
35185SOL    HW1 7394   9.518   8.406   8.688
35185SOL    HW2 7395   9.572   8.496   8.798
35186SOL     OW 7396   7.639   9.207  14.742
35186SOL    HW1 7397   7.574   9.261  14.787
35186SOL    HW2 7398   7.590   9.161  14.674
35187SOL     OW 7399   6.693  13.809   7.926
35187SOL    HW1 7400   6.606  13.778   7.899
35187SOL    HW2 7401   6.679  13.845   8.013
35188SOL     OW 7402  12.669   9.193   0.494
35188SOL    HW1 7403  12.760   9.165   0.495
35188SOL    HW2 7404  12.627   9.138   0.429
35189SOL     OW 7405   1.872   7.362   3.884
35189SOL    HW1 7406   1.815   7.287   3.865
35189SOL    HW2 7407   1.895   7.351   3.977
35190SOL     OW 7408  14.528   2.415   0.767
35190SOL    HW1 7409  14.472   2.369   0.829
35190SOL    HW2 7410  14.563   2.489   0.816
35191SOL     OW 7411  11.817   8.628   4.551
35191SOL    HW1 7412  11.841   8.538   4.574
35191SOL    HW2 7413  11.858   8.643   4.466
35192SOL     OW 7414   5.940   2.669   0.216
35192SOL    HW1 7415   5.910   2.662   0.306
35192SOL    HW2 7416   6.015   2.609   0.211
35193SOL     OW 7417  10.410   6.689   3.369
35193SOL    HW1 7418  10.403   6.600   3.335
35193SOL    HW2 7419  10.490   6.724   3.329
35194SOL     OW 7420   8.777   0.324  10.203
35194SOL    HW1 7421   8.850   0.306  10.262
35194SOL    HW2 7422   8.796   0.271  10.125
35195SOL     OW 7423   0.958   9.340   6.508
35195SOL    HW1 7424   1.018   9.293   6.450
35195SOL    HW2 7425   0.875   9.340   6.462
35196SOL     OW 7426  11.986  11.207   8.085
35196SOL    HW1 7427  11.925  11.253   8.028
35196SOL    HW2 7428  12.070  11.250   8.070
35197SOL     OW 7429   6.651   6.948  12.571
35197SOL    HW1 7430   6.645   7.014  12.502
35197SOL    HW2 7431   6.582   6.885  12.550
35198SOL     OW 7432  10.157   9.306  14.451
35198SOL    HW1 7433  10.178   9.316  14.544
35198SOL    HW2 7434  10.062   9.299  14.449
35199SOL     OW 7435  10.554   7.284   7.780
35199SOL    HW1 7436  10.545   7.379   7.773
35199SOL    HW2 7437  10.528   7.251   7.694
35200SOL     OW 7438   9.183   2.829  12.283
35200SOL    HW1 7439   9.194   2.902  12.221
35200SOL    HW2 7440   9.216   2.753  12.235
35201SOL     OW 7441   2.130   7.583   7.157
35201SOL    HW1 7442   2.064   7.538   7.104
35201SOL    HW2 7443   2.149   7.663   7.108
35202SOL     OW 7444   2.721  12.932   6.886
35202SOL    HW1 7445   2.770  12.878   6.947
35202SOL    HW2 7446   2.752  13.021   6.901
35203SOL     OW 7447  10.077   5.952   0.911
35203SOL    HW1 7448  10.150   5.923   0.965
35203SOL    HW2 7449  10.007   5.972   0.974
35204SOL     OW 7450   2.734   7.667   4.556
35204SOL    HW1 7451   2.792   7.733   4.519
35204SOL    HW2 7452   2.731   7.687   4.650
35205SOL     OW 7453  10.425  10.188   4.931
35205SOL    HW1 7454  10.455  10.204   4.842
35205SOL    HW2 7455  10.376  10.267   4.954
35206SOL     OW 7456  14.532  11.644   4.439
35206SOL    HW1 7457  14.566  11.733   4.432
35206SOL    HW2 7458  14.439  11.655   4.458
35207SOL     OW 7459  10.580   1.865   2.655
35207SOL    HW1 7460  10.640   1.881   2.582
35207SOL    HW2 7461  10.569   1.951   2.696
35208SOL     OW 7462   1.204  11.922   9.356
35208SOL    HW1 7463   1.236  11.968   9.278
35208SOL    HW2 7464   1.215  11.829   9.335
35209SOL     OW 7465  11.701  11.445  12.687
35209SOL    HW1 7466  11.733  11.535  12.681
35209SOL    HW2 7467  11.757  11.396  12.627
35210SOL     OW 7468  10.174   9.637   0.613
35210SOL    HW1 7469  10.237   9.705   0.638
35210SOL    HW2 7470  10.228   9.568   0.575
35211SOL     OW 7471   8.053   9.379  14.667
35211SOL    HW1 7472   8.139   9.398  14.704
35211SOL    HW2 7473   8.019   9.307  14.720
35212SOL     OW 7474   5.212   2.456   2.177
35212SOL    HW1 7475   5.260   2.484   2.255
35212SOL    HW2 7476   5.136   2.515   2.174
35213SOL     OW 7477  13.656  11.592  11.392
35213SOL    HW1 7478  13.618  11.586  11.305
35213SOL    HW2 7479  13.596  11.648  11.441
35214SOL     OW 7480   5.326  11.802   9.324
35214SOL    HW1 7481   5.362  11.725   9.281
35214SOL    HW2 7482   5.396  11.833   9.382
35215SOL     OW 7483  14.513  14.684   2.757
35215SOL    HW1 7484  14.434  14.633   2.775
35215SOL    HW2 7485  14.562  14.632   2.693
35216SOL     OW 7486  12.060  11.858   8.138
35216SOL    HW1 7487  12.147  11.863   8.176
35216SOL    HW2 7488  12.015  11.790   8.189
35217SOL     OW 7489  10.477  10.502   5.896
35217SOL    HW1 7490  10.513  10.434   5.953
35217SOL    HW2 7491  10.506  10.477   5.808
35218SOL     OW 7492   8.335   6.943   4.497
35218SOL    HW1 7493   8.242   6.934   4.515
35218SOL    HW2 7494   8.353   6.880   4.428
35219SOL     OW 7495   7.232   7.169   3.144
35219SOL    HW1 7496   7.188   7.178   3.228
35219SOL    HW2 7497   7.161   7.167   3.080
35220SOL     OW 7498   8.637   2.439  10.709
35220SOL    HW1 7499   8.689   2.519  10.704
35220SOL    HW2 7500   8.578   2.454  10.783
35221SOL     OW 7501   1.300   5.244   6.936
35221SOL    HW1 7502   1.385   5.201   6.937
35221SOL    HW2 7503   1.317   5.332   6.970
35222SOL     OW 7504   0.157   6.975   7.095
35222SOL    HW1 7505   0.239   7.020   7.115
35222SOL    HW2 7506   0.167   6.945   7.005
35223SOL     OW 7507   3.667   2.394   4.332
35223SOL    HW1 7508   3.647   2.486   4.315
35223SOL    HW2 7509   3.736   2.397   4.398
35224SOL     OW 7510  11.847   1.362  11.558
35224SOL    HW1 7511  11.774   1.422  11.545
35224SOL    HW2 7512  11.864   1.365  11.652
35225SOL     OW 7513  10.403  10.162   5.456
35225SOL    HW1 7514  10.386  10.084   5.510
35225SOL    HW2 7515  10.498  10.170   5.456
35226SOL     OW 7516   4.439  12.552  13.255
35226SOL    HW1 7517   4.457  12.543  13.349
35226SOL    HW2 7518   4.418  12.463  13.226
35227SOL     OW 7519   5.395   0.130   3.813
35227SOL    HW1 7520   5.417   0.042   3.842
35227SOL    HW2 7521   5.414   0.130   3.719
35228SOL     OW 7522  12.752   1.568   2.519
35228SOL    HW1 7523  12.746   1.601   2.430
35228SOL    HW2 7524  12.743   1.645   2.575
35229SOL     OW 7525  14.427   3.342  11.382
35229SOL    HW1 7526  14.463   3.254  11.396
35229SOL    HW2 7527  14.377   3.360  11.462
35230SOL     OW 7528   2.226   5.138   7.522
35230SOL    HW1 7529   2.259   5.161   7.609
35230SOL    HW2 7530   2.273   5.058   7.499
35231SOL     OW 7531   2.594   0.029   1.932
35231SOL    HW1 7532   2.617   0.112   1.973
35231SOL    HW2 7533   2.559   0.053   1.846
35232SOL     OW 7534   2.296  10.571   9.542
35232SOL    HW1 7535   2.296  10.638   9.610
35232SOL    HW2 7536   2.204  10.545   9.534
35233SOL     OW 7537   6.210   3.165  11.258
35233SOL    HW1 7538   6.212   3.071  11.240
35233SOL    HW2 7539   6.289   3.199  11.216
35234SOL     OW 7540   7.250   5.696   0.011
35234SOL    HW1 7541   7.257   5.784   0.048
35234SOL    HW2 7542   7.335   5.682  14.845
35235SOL     OW 7543  13.240   4.676  10.133
35235SOL    HW1 7544  13.176   4.614  10.098
35235SOL    HW2 7545  13.279   4.717  10.056
35236SOL     OW 7546   7.860   4.603   9.476
35236SOL    HW1 7547   7.794   4.658   9.517
35236SOL    HW2 7548   7.943   4.644   9.499
35237SOL     OW 7549   3.032  10.242   5.597
35237SOL    HW1 7550   3.095  10.297   5.645
35237SOL    HW2 7551   3.079  10.216   5.518
35238SOL     OW 7552  10.182  11.131  13.415
35238SOL    HW1 7553  10.256  11.140  13.475
35238SOL    HW2 7554  10.213  11.168  13.332
35239SOL     OW 7555   9.565   3.416  11.973
35239SOL    HW1 7556   9.544   3.365  11.895
35239SOL    HW2 7557   9.593   3.501  11.939
35240SOL     OW 7558   2.439  11.508  13.937
35240SOL    HW1 7559   2.389  11.454  13.876
35240SOL    HW2 7560   2.498  11.559  13.881
35241SOL     OW 7561   5.213  14.041   2.719
35241SOL    HW1 7562   5.153  14.099   2.765
35241SOL    HW2 7563   5.287  14.096   2.695
35242SOL     OW 7564   0.541   5.568   9.584
35242SOL    HW1 7565   0.521   5.524   9.667
35242SOL    HW2 7566   0.636   5.567   9.579
35243SOL     OW 7567   8.829  11.295  11.944
35243SOL    HW1 7568   8.864  11.378  11.914
35243SOL    HW2 7569   8.757  11.318  12.002
35244SOL     OW 7570   2.557   0.755   9.288
35244SOL    HW1 7571   2.534   0.798   9.370
35244SOL    HW2 7572   2.639   0.796   9.261
35245SOL     OW 7573   2.149   6.326   8.270
35245SOL    HW1 7574   2.108   6.333   8.184
35245SOL    HW2 7575   2.122   6.406   8.316
35246SOL     OW 7576  12.163  13.427  11.179
35246SOL    HW1 7577  12.159  13.340  11.216
35246SOL    HW2 7578  12.135  13.416  11.088
35247SOL     OW 7579   6.605   4.164  13.200
35247SOL    HW1 7580   6.544   4.091  13.210
35247SOL    HW2 7581   6.642   4.153  13.113
35248SOL     OW 7582   2.753   7.554  12.846
35248SOL    HW1 7583   2.720   7.466  12.830
35248SOL    HW2 7584   2.790   7.581  12.762
35249SOL     OW 7585  12.121   8.775   2.055
35249SOL    HW1 7586  12.170   8.776   2.138
35249SOL    HW2 7587  12.128   8.684   2.025
35250SOL     OW 7588   1.203   4.042   3.142
35250SOL    HW1 7589   1.160   4.122   3.173
35250SOL    HW2 7590   1.295   4.068   3.130
35251SOL     OW 7591  10.615  13.611   7.319
35251SOL    HW1 7592  10.532  13.608   7.368
35251SOL    HW2 7593  10.678  13.648   7.381
35252SOL     OW 7594   9.248  10.474  12.943
35252SOL    HW1 7595   9.323  10.440  12.894
35252SOL    HW2 7596   9.286  10.542  13.000
35253SOL     OW 7597  11.956  14.511   5.900
35253SOL    HW1 7598  12.007  14.534   5.978
35253SOL    HW2 7599  12.021  14.473   5.840
35254SOL     OW 7600  10.517   2.245  12.755
35254SOL    HW1 7601  10.435   2.234  12.801
35254SOL    HW2 7602  10.581   2.264  12.823
35255SOL     OW 7603   4.732  12.218   8.263
35255SOL    HW1 7604   4.776  12.252   8.341
35255SOL    HW2 7605   4.677  12.147   8.295
35256SOL     OW 7606   6.960   3.746  13.608
35256SOL    HW1 7607   6.984   3.697  13.687
35256SOL    HW2 7608   6.866   3.733  13.600
35257SOL     OW 7609   6.553  13.916   6.518
35257SOL    HW1 7610   6.484  13.904   6.453
35257SOL    HW2 7611   6.628  13.869   6.481
35258SOL     OW 7612   2.317   9.916  11.114
35258SOL    HW1 7613   2.310  10.011  11.112
35258SOL    HW2 7614   2.275   9.890  11.196
35259SOL     OW 7615   5.605   2.298  12.761
35259SOL    HW1 7616   5.590   2.388  12.790
35259SOL    HW2 7617   5.559   2.292  12.677
35260SOL     OW 7618   7.234   4.371   4.104
35260SOL    HW1 7619   7.315   4.415   4.079
35260SOL    HW2 7620   7.262   4.296   4.157
35261SOL     OW 7621  13.020   8.132   6.759
35261SOL    HW1 7622  12.951   8.134   6.826
35261SOL    HW2 7623  13.015   8.217   6.717
35262SOL     OW 7624  12.925  11.946   0.127
35262SOL    HW1 7625  12.911  11.893   0.048
35262SOL    HW2 7626  12.915  12.036   0.097
35263SOL     OW 7627   5.988  12.066   4.716
35263SOL    HW1 7628   5.964  11.978   4.746
35263SOL    HW2 7629   5.906  12.104   4.685
35264SOL     OW 7630  12.986  12.030  12.718
35264SOL    HW1 7631  13.063  12.052  12.770
35264SOL    HW2 7632  12.912  12.059  12.771
35265SOL     OW 7633  14.087   5.880   2.141
35265SOL    HW1 7634  14.106   5.888   2.048
35265SOL    HW2 7635  14.027   5.806   2.147
35266SOL     OW 7636  12.174   7.218  13.070
35266SOL    HW1 7637  12.257   7.236  13.116
35266SOL    HW2 7638  12.199   7.160  12.999
35267SOL     OW 7639   1.712   2.720  12.300
35267SOL    HW1 7640   1.636   2.714  12.359
35267SOL    HW2 7641   1.786   2.739  12.358
35268SOL     OW 7642   1.522   5.323   1.162
35268SOL    HW1 7643   1.605   5.367   1.146
35268SOL    HW2 7644   1.525   5.245   1.107
35269SOL     OW 7645   0.040   0.803  10.607
35269SOL    HW1 7646   0.095   0.732  10.573
35269SOL    HW2 7647  14.827   0.774  10.592
35270SOL     OW 7648   1.502   5.305  11.175
35270SOL    HW1 7649   1.469   5.373  11.233
35270SOL    HW2 7650   1.482   5.223  11.219
35271SOL     OW 7651  11.190  14.202  14.603
35271SOL    HW1 7652  11.136  14.247  14.538
35271SOL    HW2 7653  11.129  14.148  14.653
35272SOL     OW 7654   1.095   3.487   0.221
35272SOL    HW1 7655   1.049   3.404   0.235
35272SOL    HW2 7656   1.026   3.549   0.197
35273SOL     OW 7657   1.128   3.261   1.638
35273SOL    HW1 7658   1.110   3.320   1.711
35273SOL    HW2 7659   1.217   3.231   1.652
35274SOL     OW 7660   9.411  10.228  14.448
35274SOL    HW1 7661   9.371  10.169  14.385
35274SOL    HW2 7662   9.424  10.310  14.400
35275SOL     OW 7663   2.491   1.805   8.428
35275SOL    HW1 7664   2.536   1.826   8.345
35275SOL    HW2 7665   2.469   1.713   8.420
35276SOL     OW 7666   3.138  11.363   6.071
35276SOL    HW1 7667   3.064  11.306   6.050
35276SOL    HW2 7668   3.215  11.307   6.059
35277SOL     OW 7669   3.764   3.311   7.767
35277SOL    HW1 7670   3.812   3.385   7.730
35277SOL    HW2 7671   3.739   3.340   7.854
35278SOL     OW 7672  11.191   3.416   3.461
35278SOL    HW1 7673  11.119   3.401   3.523
35278SOL    HW2 7674  11.252   3.344   3.478
35279SOL     OW 7675  12.201   8.873   4.588
35279SOL    HW1 7676  12.127   8.919   4.627
35279SOL    HW2 7677  12.251   8.941   4.542
35280SOL     OW 7678   4.375  13.733  12.610
35280SOL    HW1 7679   4.463  13.745  12.573
35280SOL    HW2 7680   4.351  13.819  12.643
35281SOL     OW 7681  10.037   5.542   4.805
35281SOL    HW1 7682  10.015   5.479   4.736
35281SOL    HW2 7683  10.053   5.624   4.758
35282SOL     OW 7684   9.705   3.345  10.869
35282SOL    HW1 7685   9.652   3.319  10.794
35282SOL    HW2 7686   9.765   3.272  10.882
35283SOL     OW 7687  12.686   7.628  14.585
35283SOL    HW1 7688  12.603   7.656  14.625
35283SOL    HW2 7689  12.684   7.666  14.497
35284SOL     OW 7690   4.651   2.358  10.142
35284SOL    HW1 7691   4.572   2.331  10.188
35284SOL    HW2 7692   4.620   2.418  10.074
35285SOL     OW 7693   4.386  12.839   5.660
35285SOL    HW1 7694   4.436  12.761   5.639
35285SOL    HW2 7695   4.356  12.872   5.575
35286SOL     OW 7696   9.448   3.434   9.860
35286SOL    HW1 7697   9.383   3.452   9.791
35286SOL    HW2 7698   9.517   3.386   9.814
35287SOL     OW 7699   9.541  14.773   1.651
35287SOL    HW1 7700   9.475  14.836   1.622
35287SOL    HW2 7701   9.558  14.795   1.743
35288SOL     OW 7702  14.422   4.078   8.962
35288SOL    HW1 7703  14.474   4.023   9.022
35288SOL    HW2 7704  14.451   4.051   8.875
35289SOL     OW 7705   1.803  10.374   1.011
35289SOL    HW1 7706   1.844  10.300   0.967
35289SOL    HW2 7707   1.870  10.442   1.013
35290SOL     OW 7708   1.632   6.510   8.993
35290SOL    HW1 7709   1.689   6.528   8.919
35290SOL    HW2 7710   1.615   6.595   9.033
35291SOL     OW 7711  13.980   7.913   4.062
35291SOL    HW1 7712  13.894   7.885   4.031
35291SOL    HW2 7713  13.970   8.007   4.079
35292SOL     OW 7714   5.368   0.567   6.821
35292SOL    HW1 7715   5.272   0.575   6.828
35292SOL    HW2 7716   5.391   0.625   6.749
35293SOL     OW 7717   1.867   8.247   4.694
35293SOL    HW1 7718   1.840   8.266   4.604
35293SOL    HW2 7719   1.787   8.251   4.745
35294SOL     OW 7720   6.740   7.887   6.201
35294SOL    HW1 7721   6.769   7.817   6.142
35294SOL    HW2 7722   6.706   7.840   6.278
35295SOL     OW 7723   7.131   9.582   7.298
35295SOL    HW1 7724   7.103   9.507   7.351
35295SOL    HW2 7725   7.115   9.658   7.354
35296SOL     OW 7726   0.086   1.106   2.964
35296SOL    HW1 7727   0.027   1.181   2.973
35296SOL    HW2 7728   0.032   1.039   2.922
35297SOL     OW 7729   5.513  14.383  12.395
35297SOL    HW1 7730   5.475  14.374  12.482
35297SOL    HW2 7731   5.442  14.364  12.335
35298SOL     OW 7732   4.362   8.918   5.489
35298SOL    HW1 7733   4.272   8.886   5.489
35298SOL    HW2 7734   4.356   9.010   5.466
35299SOL     OW 7735   0.209   4.562   5.772
35299SOL    HW1 7736   0.170   4.479   5.799
35299SOL    HW2 7737   0.144   4.601   5.714
35300SOL     OW 7738   4.466  11.137   6.163
35300SOL    HW1 7739   4.406  11.099   6.226
35300SOL    HW2 7740   4.503  11.063   6.116
35301SOL     OW 7741  11.178   2.648   2.007
35301SOL    HW1 7742  11.247   2.643   2.072
35301SOL    HW2 7743  11.124   2.571   2.023
35302SOL     OW 7744  11.049  12.041   3.686
35302SOL    HW1 7745  11.126  12.093   3.709
35302SOL    HW2 7746  11.061  12.020   3.594
35303SOL     OW 7747   5.170   7.331   5.252
35303SOL    HW1 7748   5.143   7.347   5.161
35303SOL    HW2 7749   5.157   7.237   5.264
35304SOL     OW 7750  12.601   0.190   5.308
35304SOL    HW1 7751  12.530   0.132   5.335
35304SOL    HW2 7752  12.585   0.272   5.355
35305SOL     OW 7753  14.064   2.876  10.228
35305SOL    HW1 7754  14.050   2.800  10.284
35305SOL    HW2 7755  14.015   2.855  10.148
35306SOL     OW 7756  11.163   8.531  14.167
35306SOL    HW1 7757  11.109   8.453  14.152
35306SOL    HW2 7758  11.174   8.569  14.081
35307SOL     OW 7759   4.311   5.765  14.720
35307SOL    HW1 7760   4.352   5.850  14.738
35307SOL    HW2 7761   4.337   5.709  14.792
35308SOL     OW 7762  12.647  11.415   5.141
35308SOL    HW1 7763  12.714  11.433   5.075
35308SOL    HW2 7764  12.648  11.319   5.150
35309SOL     OW 7765   3.027   3.310   4.292
35309SOL    HW1 7766   3.030   3.239   4.356
35309SOL    HW2 7767   3.031   3.265   4.207
35310SOL     OW 7768   3.271   9.764   3.313
35310SOL    HW1 7769   3.319   9.843   3.340
35310SOL    HW2 7770   3.222   9.791   3.236
35311SOL     OW 7771   6.349   6.280   4.604
35311SOL    HW1 7772   6.402   6.232   4.668
35311SOL    HW2 7773   6.260   6.245   4.616
35312SOL     OW 7774   7.747   3.034   4.991
35312SOL    HW1 7775   7.817   2.980   5.028
35312SOL    HW2 7776   7.752   3.116   5.040
35313SOL     OW 7777   6.442  11.854  10.259
35313SOL    HW1 7778   6.373  11.916  10.283
35313SOL    HW2 7779   6.404  11.768  10.274
35314SOL     OW 7780   3.735   0.781  12.741
35314SOL    HW1 7781   3.760   0.870  12.768
35314SOL    HW2 7782   3.668   0.754  12.804
35315SOL     OW 7783   3.525   5.750  11.705
35315SOL    HW1 7784   3.548   5.784  11.619
35315SOL    HW2 7785   3.523   5.827  11.762
35316SOL     OW 7786   4.295   5.374   7.258
35316SOL    HW1 7787   4.272   5.435   7.328
35316SOL    HW2 7788   4.337   5.300   7.303
35317SOL     OW 7789  14.729   5.220  11.291
35317SOL    HW1 7790  14.649   5.264  11.320
35317SOL    HW2 7791  14.758   5.270  11.215
35318SOL     OW 7792  12.815   4.420   0.808
35318SOL    HW1 7793  12.738   4.373   0.777
35318SOL    HW2 7794  12.889   4.372   0.771
35319SOL     OW 7795  11.938   4.183   9.777
35319SOL    HW1 7796  12.031   4.204   9.774
35319SOL    HW2 7797  11.902   4.223   9.697
35320SOL     OW 7798   5.752  12.443   3.207
35320SOL    HW1 7799   5.713  12.507   3.147
35320SOL    HW2 7800   5.683  12.378   3.221
35321SOL     OW 7801   3.737   4.290   4.323
35321SOL    HW1 7802   3.726   4.198   4.301
35321SOL    HW2 7803   3.649   4.328   4.311
35322SOL     OW 7804   2.858   7.050  14.311
35322SOL    HW1 7805   2.788   7.062  14.375
35322SOL    HW2 7806   2.923   6.996  14.357
35323SOL     OW 7807   9.453   8.158  14.647
35323SOL    HW1 7808   9.432   8.244  14.682
35323SOL    HW2 7809   9.518   8.122  14.707
35324SOL     OW 7810   7.601  10.271   2.336
35324SOL    HW1 7811   7.541  10.235   2.271
35324SOL    HW2 7812   7.601  10.207   2.407
35325SOL     OW 7813   4.225   7.917  13.006
35325SOL    HW1 7814   4.309   7.892  12.967
35325SOL    HW2 7815   4.235   7.896  13.099
35326SOL     OW 7816   9.919   8.404   1.315
35326SOL    HW1 7817   9.958   8.319   1.336
35326SOL    HW2 7818   9.968   8.467   1.368
35327SOL     OW 7819  10.267   4.284   5.051
35327SOL    HW1 7820  10.272   4.380   5.053
35327SOL    HW2 7821  10.173   4.265   5.051
35328SOL     OW 7822  10.079   6.333  14.839
35328SOL    HW1 7823  10.009   6.373   0.015
35328SOL    HW2 7824  10.158   6.379  14.866
35329SOL     OW 7825   4.858   6.635  11.256
35329SOL    HW1 7826   4.780   6.630  11.312
35329SOL    HW2 7827   4.928   6.664  11.314
35330SOL     OW 7828   1.440   6.325   8.489
35330SOL    HW1 7829   1.420   6.418   8.494
35330SOL    HW2 7830   1.515   6.313   8.547
35331SOL     OW 7831  12.054   5.113   9.368
35331SOL    HW1 7832  12.046   5.141   9.277
35331SOL    HW2 7833  11.965   5.089   9.394
35332SOL     OW 7834   5.639   3.534   2.180
35332SOL    HW1 7835   5.671   3.598   2.117
35332SOL    HW2 7836   5.545   3.529   2.164
35333SOL     OW 7837   2.215   3.293   5.390
35333SOL    HW1 7838   2.294   3.347   5.390
35333SOL    HW2 7839   2.246   3.205   5.369
35334SOL     OW 7840  14.174   2.648  11.256
35334SOL    HW1 7841  14.189   2.590  11.331
35334SOL    HW2 7842  14.234   2.615  11.189
35335SOL     OW 7843   0.489  10.436   9.654
35335SOL    HW1 7844   0.461  10.526   9.670
35335SOL    HW2 7845   0.530  10.438   9.568
35336SOL     OW 7846   6.083   4.975   0.804
35336SOL    HW1 7847   6.090   5.063   0.842
35336SOL    HW2 7848   6.144   4.977   0.730
35337SOL     OW 7849   9.978   7.719   7.871
35337SOL    HW1 7850   9.964   7.731   7.965
35337SOL    HW2 7851  10.042   7.648   7.866
35338SOL     OW 7852   4.666  13.984   9.910
35338SOL    HW1 7853   4.639  14.074   9.889
35338SOL    HW2 7854   4.687  13.986  10.003
35339SOL     OW 7855   8.813  13.572   4.783
35339SOL    HW1 7856   8.886  13.632   4.765
35339SOL    HW2 7857   8.855  13.490   4.808
35340SOL     OW 7858   3.904   7.193   9.692
35340SOL    HW1 7859   3.891   7.107   9.652
35340SOL    HW2 7860   3.979   7.182   9.750
35341SOL     OW 7861  14.760   5.394   7.668
35341SOL    HW1 7862  14.727   5.429   7.584
35341SOL    HW2 7863  14.855   5.391   7.657
35342SOL     OW 7864   5.125   1.821   3.067
35342SOL    HW1 7865   5.142   1.848   2.977
35342SOL    HW2 7866   5.175   1.883   3.120
35343SOL     OW 7867  13.470  11.840   5.556
35343SOL    HW1 7868  13.448  11.933   5.548
35343SOL    HW2 7869  13.558  11.833   5.519
35344SOL     OW 7870   0.996   4.217  11.866
35344SOL    HW1 7871   0.931   4.276  11.829
35344SOL    HW2 7872   1.009   4.150  11.800
35345SOL     OW 7873  11.858   4.662   3.928
35345SOL    HW1 7874  11.789   4.682   3.866
35345SOL    HW2 7875  11.911   4.595   3.885
35346SOL     OW 7876   2.373  13.562  12.765
35346SOL    HW1 7877   2.409  13.477  12.789
35346SOL    HW2 7878   2.421  13.587  12.686
35347SOL     OW 7879  11.377  11.172   2.680
35347SOL    HW1 7880  11.295  11.174   2.729
35347SOL    HW2 7881  11.440  11.217   2.736
35348SOL     OW 7882   3.532   4.669  12.121
35348SOL    HW1 7883   3.608   4.716  12.156
35348SOL    HW2 7884   3.461   4.733  12.124
35349SOL     OW 7885  10.116   0.250   2.395
35349SOL    HW1 7886  10.133   0.249   2.300
35349SOL    HW2 7887  10.201   0.230   2.434
35350SOL     OW 7888   8.187   4.078   8.923
35350SOL    HW1 7889   8.136   3.999   8.944
35350SOL    HW2 7890   8.154   4.144   8.983
35351SOL     OW 7891   3.145   5.612   3.847
35351SOL    HW1 7892   3.088   5.677   3.888
35351SOL    HW2 7893   3.138   5.535   3.903
35352SOL     OW 7894  11.363   4.005   8.720
35352SOL    HW1 7895  11.283   4.054   8.733
35352SOL    HW2 7896  11.414   4.057   8.658
35353SOL     OW 7897   8.387  10.870   8.576
35353SOL    HW1 7898   8.329  10.905   8.508
35353SOL    HW2 7899   8.343  10.892   8.659
35354SOL     OW 7900   6.730  12.041   1.248
35354SOL    HW1 7901   6.804  12.005   1.198
35354SOL    HW2 7902   6.656  12.038   1.187
35355SOL     OW 7903  12.507   3.052  10.122
35355SOL    HW1 7904  12.436   3.002  10.081
35355SOL    HW2 7905  12.569   2.985  10.152
35356SOL     OW 7906   2.998   6.204   8.528
35356SOL    HW1 7907   2.957   6.205   8.614
35356SOL    HW2 7908   2.981   6.292   8.493
35357SOL     OW 7909  11.810   7.086   0.784
35357SOL    HW1 7910  11.826   7.023   0.854
35357SOL    HW2 7911  11.806   7.171   0.829
35358SOL     OW 7912  10.605   3.210   4.736
35358SOL    HW1 7913  10.652   3.129   4.754
35358SOL    HW2 7914  10.512   3.187   4.744
35359SOL     OW 7915   6.825  10.210  13.143
35359SOL    HW1 7916   6.846  10.119  13.163
35359SOL    HW2 7917   6.903  10.243  13.099
35360SOL     OW 7918   7.668   4.908   5.038
35360SOL    HW1 7919   7.581   4.937   5.066
35360SOL    HW2 7920   7.711   4.879   5.118
35361SOL     OW 7921  12.280   0.493   2.079
35361SOL    HW1 7922  12.330   0.572   2.102
35361SOL    HW2 7923  12.337   0.421   2.105
35362SOL     OW 7924   9.830  14.310  10.519
35362SOL    HW1 7925   9.799  14.347  10.436
35362SOL    HW2 7926   9.895  14.244  10.492
35363SOL     OW 7927  10.893   7.432   3.100
35363SOL    HW1 7928  10.874   7.345   3.135
35363SOL    HW2 7929  10.810   7.479   3.106
35364SOL     OW 7930   3.346   7.543   0.912
35364SOL    HW1 7931   3.319   7.457   0.944
35364SOL    HW2 7932   3.277   7.602   0.942
35365SOL     OW 7933   3.464   0.334   6.490
35365SOL    HW1 7934   3.507   0.379   6.563
35365SOL    HW2 7935   3.491   0.384   6.413
35366SOL     OW 7936  11.922   7.566   9.523
35366SOL    HW1 7937  11.837   7.572   9.479
35366SOL    HW2 7938  11.985   7.554   9.451
35367SOL     OW 7939   5.781  14.145  14.545
35367SOL    HW1 7940   5.721  14.219  14.547
35367SOL    HW2 7941   5.801  14.128  14.637
35368SOL     OW 7942   2.470   2.621   5.912
35368SOL    HW1 7943   2.416   2.549   5.944
35368SOL    HW2 7944   2.556   2.582   5.897
35369SOL     OW 7945   4.209   2.105  10.384
35369SOL    HW1 7946   4.206   2.178  10.446
35369SOL    HW2 7947   4.286   2.123  10.329
35370SOL     OW 7948   7.091   1.076   2.003
35370SOL    HW1 7949   7.147   1.136   1.953
35370SOL    HW2 7950   7.092   1.111   2.092
35371SOL     OW 7951   1.135   5.605   3.774
35371SOL    HW1 7952   1.202   5.603   3.707
35371SOL    HW2 7953   1.164   5.673   3.836
35372SOL     OW 7954   7.664  12.733   1.231
35372SOL    HW1 7955   7.663  12.818   1.275
35372SOL    HW2 7956   7.571  12.711   1.220
35373SOL     OW 7957  12.396  12.705   4.864
35373SOL    HW1 7958  12.450  12.785   4.867
35373SOL    HW2 7959  12.450  12.642   4.817
35374SOL     OW 7960   4.383  10.683   9.471
35374SOL    HW1 7961   4.317  10.619   9.497
35374SOL    HW2 7962   4.439  10.637   9.409
35375SOL     OW 7963   7.531  13.716   5.775
35375SOL    HW1 7964   7.439  13.712   5.749
35375SOL    HW2 7965   7.579  13.691   5.696
35376SOL     OW 7966  12.355   7.073   2.800
35376SOL    HW1 7967  12.408   7.090   2.722
35376SOL    HW2 7968  12.400   7.001   2.844
35377SOL     OW 7969   6.686  10.125   2.147
35377SOL    HW1 7970   6.615  10.064   2.168
35377SOL    HW2 7971   6.749  10.113   2.219
35378SOL     OW 7972   3.407   9.908   2.770
35378SOL    HW1 7973   3.486   9.952   2.800
35378SOL    HW2 7974   3.386   9.846   2.839
35379SOL     OW 7975   4.552   0.341   3.527
35379SOL    HW1 7976   4.618   0.404   3.555
35379SOL    HW2 7977   4.480   0.395   3.493
35380SOL     OW 7978   1.556   4.516  12.141
35380SOL    HW1 7979   1.614   4.592  12.131
35380SOL    HW2 7980   1.609   4.452  12.189
35381SOL     OW 7981   1.872   7.240  13.811
35381SOL    HW1 7982   1.826   7.182  13.751
35381SOL    HW2 7983   1.880   7.323  13.763
35382SOL     OW 7984   2.070  10.535  14.173
35382SOL    HW1 7985   2.052  10.450  14.134
35382SOL    HW2 7986   2.001  10.547  14.239
35383SOL     OW 7987  13.027   7.192  13.099
35383SOL    HW1 7988  13.068   7.227  13.020
35383SOL    HW2 7989  13.045   7.098  13.095
35384SOL     OW 7990   1.550   2.656  12.108
35384SOL    HW1 7991   1.610   2.685  12.176
35384SOL    HW2 7992   1.473   2.712  12.118
35385SOL     OW 7993   9.728   2.286  12.815
35385SOL    HW1 7994   9.759   2.284  12.905
35385SOL    HW2 7995   9.677   2.366  12.808
35386SOL     OW 7996   9.233  12.261   8.640
35386SOL    HW1 7997   9.327  12.262   8.658
35386SOL    HW2 7998   9.200  12.342   8.681
35387SOL     OW 7999   7.277   3.558   9.072
35387SOL    HW1 8000   7.370   3.553   9.093
35387SOL    HW2 8001   7.253   3.468   9.049
35388SOL     OW 8002  13.122  13.451  13.095
35388SOL    HW1 8003  13.111  13.502  13.014
35388SOL    HW2 8004  13.106  13.514  13.165
35389SOL     OW 8005   3.115   4.578   3.653
35389SOL    HW1 8006   3.070   4.663   3.655
35389SOL    HW2 8007   3.202   4.598   3.620
35390SOL     OW 8008   3.699  13.973  14.552
35390SOL    HW1 8009   3.768  13.914  14.582
35390SOL    HW2 8010   3.721  14.057  14.592
35391SOL     OW 8011   6.229  14.266   6.779
35391SOL    HW1 8012   6.247  14.349   6.823
35391SOL    HW2 8013   6.314  14.223   6.771
35392SOL     OW 8014   6.394  13.761   8.384
35392SOL    HW1 8015   6.414  13.735   8.473
35392SOL    HW2 8016   6.343  13.842   8.394
35393SOL     OW 8017   4.478   0.376   0.571
35393SOL    HW1 8018   4.534   0.390   0.647
35393SOL    HW2 8019   4.405   0.437   0.583
35394SOL     OW 8020   0.580   7.445  10.609
35394SOL    HW1 8021   0.545   7.360  10.582
35394SOL    HW2 8022   0.645   7.425  10.675
35395SOL     OW 8023  12.746   6.051   2.115
35395SOL    HW1 8024  12.697   5.979   2.153
35395SOL    HW2 8025  12.831   6.048   2.160
35396SOL     OW 8026   4.484  14.225  12.202
35396SOL    HW1 8027   4.470  14.131  12.207
35396SOL    HW2 8028   4.578  14.236  12.215
35397SOL     OW 8029   6.740  14.831   0.463
35397SOL    HW1 8030   6.690  14.765   0.415
35397SOL    HW2 8031   6.807  14.781   0.509
35398SOL     OW 8032   9.635  12.117   7.233
35398SOL    HW1 8033   9.723  12.153   7.216
35398SOL    HW2 8034   9.639  12.085   7.323
35399SOL     OW 8035   2.372   7.324   5.351
35399SOL    HW1 8036   2.332   7.250   5.303
35399SOL    HW2 8037   2.447   7.349   5.297
35400SOL     OW 8038  10.956   0.135   6.822
35400SOL    HW1 8039  10.980   0.200   6.888
35400SOL    HW2 8040  10.963   0.181   6.738
35401SOL     OW 8041   3.116  11.349  12.962
35401SOL    HW1 8042   3.115  11.302  12.879
35401SOL    HW2 8043   3.040  11.315  13.010
35402SOL     OW 8044  11.658   4.188   1.123
35402SOL    HW1 8045  11.677   4.271   1.079
35402SOL    HW2 8046  11.564   4.174   1.108
35403SOL     OW 8047   5.478  11.227   2.938
35403SOL    HW1 8048   5.404  11.172   2.911
35403SOL    HW2 8049   5.443  11.316   2.937
35404SOL     OW 8050   7.747   5.410   3.308
35404SOL    HW1 8051   7.732   5.499   3.339
35404SOL    HW2 8052   7.665   5.364   3.327
35405SOL     OW 8053   4.881   0.311   2.575
35405SOL    HW1 8054   4.905   0.224   2.606
35405SOL    HW2 8055   4.793   0.301   2.539
35406SOL     OW 8056   6.566   9.261   8.370
35406SOL    HW1 8057   6.576   9.324   8.298
35406SOL    HW2 8058   6.497   9.298   8.425
35407SOL     OW 8059   2.025  13.668  14.605
35407SOL    HW1 8060   1.980  13.716  14.675
35407SOL    HW2 8061   1.956  13.650  14.540
35408SOL     OW 8062   7.310   4.493   1.977
35408SOL    HW1 8063   7.304   4.474   1.883
35408SOL    HW2 8064   7.403   4.484   1.997
35409SOL     OW 8065   2.409   4.833  11.289
35409SOL    HW1 8066   2.320   4.858  11.268
35409SOL    HW2 8067   2.408   4.737  11.288
35410SOL     OW 8068   1.554  11.986   3.475
35410SOL    HW1 8069   1.548  12.081   3.466
35410SOL    HW2 8070   1.522  11.952   3.391
35411SOL     OW 8071  10.626   9.956   7.653
35411SOL    HW1 8072  10.622   9.933   7.745
35411SOL    HW2 8073  10.627  10.052   7.652
35412SOL     OW 8074   1.408   3.140  10.419
35412SOL    HW1 8075   1.327   3.191  10.411
35412SOL    HW2 8076   1.457   3.161  10.339
35413SOL     OW 8077   7.105   7.292   7.049
35413SOL    HW1 8078   7.038   7.333   6.994
35413SOL    HW2 8079   7.187   7.306   7.002
35414SOL     OW 8080   2.356   6.190   7.261
35414SOL    HW1 8081   2.298   6.266   7.271
35414SOL    HW2 8082   2.340   6.160   7.172
35415SOL     OW 8083  13.665  14.448   6.701
35415SOL    HW1 8084  13.645  14.355   6.714
35415SOL    HW2 8085  13.745  14.448   6.648
35416SOL     OW 8086   4.423  10.029   0.931
35416SOL    HW1 8087   4.391  10.029   1.021
35416SOL    HW2 8088   4.484  10.103   0.927
35417SOL     OW 8089   7.643   2.400   9.459
35417SOL    HW1 8090   7.732   2.366   9.456
35417SOL    HW2 8091   7.589   2.324   9.483
35418SOL     OW 8092   8.571   6.644   4.695
35418SOL    HW1 8093   8.555   6.632   4.788
35418SOL    HW2 8094   8.488   6.625   4.653
35419SOL     OW 8095   5.796  12.235   4.431
35419SOL    HW1 8096   5.706  12.207   4.447
35419SOL    HW2 8097   5.819  12.288   4.508
35420SOL     OW 8098  10.005   5.185   9.333
35420SOL    HW1 8099   9.997   5.252   9.400
35420SOL    HW2 8100   9.932   5.202   9.273
35421SOL     OW 8101  13.471   4.802  10.858
35421SOL    HW1 8102  13.500   4.873  10.800
35421SOL    HW2 8103  13.476   4.839  10.946
35422SOL     OW 8104  14.850   0.461  10.393
35422SOL    HW1 8105   0.052   0.509  10.421
35422SOL    HW2 8106  14.795   0.528  10.352
35423SOL     OW 8107   1.834   1.094  10.872
35423SOL    HW1 8108   1.825   1.072  10.965
35423SOL    HW2 8109   1.769   1.163  10.857
35424SOL     OW 8110  13.677   6.065  14.348
35424SOL    HW1 8111  13.750   6.025  14.301
35424SOL    HW2 8112  13.599   6.030  14.305
35425SOL     OW 8113   7.618  11.436  12.743
35425SOL    HW1 8114   7.553  11.427  12.813
35425SOL    HW2 8115   7.693  11.386  12.773
35426SOL     OW 8116  12.425  12.470   5.403
35426SOL    HW1 8117  12.490  12.408   5.369
35426SOL    HW2 8118  12.382  12.505   5.325
35427SOL     OW 8119  12.293  14.007  13.627
35427SOL    HW1 8120  12.375  13.990  13.579
35427SOL    HW2 8121  12.229  13.949  13.585
35428SOL     OW 8122  10.047   1.194   2.949
35428SOL    HW1 8123  10.074   1.130   2.882
35428SOL    HW2 8124   9.951   1.193   2.945
35429SOL     OW 8125   9.467   3.713  12.230
35429SOL    HW1 8126   9.486   3.806  12.247
35429SOL    HW2 8127   9.468   3.705  12.135
35430SOL     OW 8128   1.385   5.406   2.278
35430SOL    HW1 8129   1.335   5.476   2.320
35430SOL    HW2 8130   1.477   5.430   2.295
35431SOL     OW 8131   7.244  13.088   7.501
35431SOL    HW1 8132   7.302  13.062   7.573
35431SOL    HW2 8133   7.269  13.032   7.428
35432SOL     OW 8134   8.960  10.511  13.854
35432SOL    HW1 8135   8.915  10.585  13.813
35432SOL    HW2 8136   9.050  10.541  13.865
35433SOL     OW 8137   4.247   6.787   8.302
35433SOL    HW1 8138   4.283   6.854   8.361
35433SOL    HW2 8139   4.300   6.795   8.223
35434SOL     OW 8140   3.184   4.207   9.674
35434SOL    HW1 8141   3.143   4.194   9.588
35434SOL    HW2 8142   3.274   4.232   9.654
35435SOL     OW 8143   8.636   3.466   2.749
35435SOL    HW1 8144   8.598   3.392   2.700
35435SOL    HW2 8145   8.677   3.425   2.826
35436SOL     OW 8146   9.104   1.479  13.125
35436SOL    HW1 8147   9.065   1.402  13.084
35436SOL    HW2 8148   9.194   1.482  13.091
35437SOL     OW 8149   5.807   7.095   1.622
35437SOL    HW1 8150   5.782   7.158   1.554
35437SOL    HW2 8151   5.879   7.138   1.669
35438SOL     OW 8152  14.094  13.406  14.110
35438SOL    HW1 8153  14.112  13.368  14.024
35438SOL    HW2 8154  14.100  13.501  14.096
35439SOL     OW 8155   0.897  12.377   4.712
35439SOL    HW1 8156   0.862  12.289   4.729
35439SOL    HW2 8157   0.861  12.401   4.627
35440SOL     OW 8158  13.557   6.991   1.140
35440SOL    HW1 8159  13.499   6.947   1.078
35440SOL    HW2 8160  13.626   6.927   1.158
35441SOL     OW 8161   5.668   4.163   1.053
35441SOL    HW1 8162   5.598   4.121   1.103
35441SOL    HW2 8163   5.631   4.245   1.022
35442SOL     OW 8164   3.342   7.491   2.785
35442SOL    HW1 8165   3.320   7.398   2.794
35442SOL    HW2 8166   3.319   7.530   2.869
35443SOL     OW 8167   6.753   4.841  12.968
35443SOL    HW1 8168   6.676   4.894  12.949
35443SOL    HW2 8169   6.725   4.751  12.947
35444SOL     OW 8170   3.965  10.774   3.597
35444SOL    HW1 8171   3.910  10.719   3.541
35444SOL    HW2 8172   3.904  10.835   3.639
35445SOL     OW 8173  13.192   2.254  12.395
35445SOL    HW1 8174  13.217   2.269  12.304
35445SOL    HW2 8175  13.203   2.339  12.437
35446SOL     OW 8176   6.728  14.755   1.559
35446SOL    HW1 8177   6.767  14.760   1.471
35446SOL    HW2 8178   6.675  14.675   1.557
35447SOL     OW 8179   8.733   5.830   6.662
35447SOL    HW1 8180   8.642   5.848   6.688
35447SOL    HW2 8181   8.729   5.814   6.568
35448SOL     OW 8182   3.312   2.809   8.647
35448SOL    HW1 8183   3.303   2.721   8.610
35448SOL    HW2 8184   3.397   2.809   8.690
35449SOL     OW 8185  13.231   7.672   6.941
35449SOL    HW1 8186  13.293   7.661   7.013
35449SOL    HW2 8187  13.284   7.661   6.862
35450SOL     OW 8188   8.764   5.274   0.352
35450SOL    HW1 8189   8.755   5.367   0.373
35450SOL    HW2 8190   8.850   5.249   0.386
35451SOL     OW 8191   8.376   9.576   9.335
35451SOL    HW1 8192   8.334   9.640   9.279
35451SOL    HW2 8193   8.398   9.624   9.415
35452SOL     OW 8194  11.827   5.918   8.830
35452SOL    HW1 8195  11.742   5.905   8.872
35452SOL    HW2 8196  11.838   5.841   8.774
35453SOL     OW 8197   4.109   7.237   5.654
35453SOL    HW1 8198   4.187   7.265   5.701
35453SOL    HW2 8199   4.142   7.194   5.575
35454SOL     OW 8200  10.774   8.181  10.320
35454SOL    HW1 8201  10.863   8.213  10.337
35454SOL    HW2 8202  10.717   8.248  10.358
35455SOL     OW 8203   4.900   1.295   1.802
35455SOL    HW1 8204   4.856   1.330   1.725
35455SOL    HW2 8205   4.993   1.308   1.784
35456SOL     OW 8206   9.938   2.497   1.672
35456SOL    HW1 8207   9.999   2.535   1.608
35456SOL    HW2 8208   9.973   2.523   1.757
35457SOL     OW 8209   0.116   2.920  11.126
35457SOL    HW1 8210   0.189   2.867  11.095
35457SOL    HW2 8211   0.049   2.912  11.057
35458SOL     OW 8212   7.948   9.351  10.479
35458SOL    HW1 8213   7.924   9.259  10.463
35458SOL    HW2 8214   8.024   9.346  10.537
35459SOL     OW 8215   3.762   7.353  14.033
35459SOL    HW1 8216   3.785   7.329  13.944
35459SOL    HW2 8217   3.837   7.403  14.065
35460SOL     OW 8218  14.236  13.231  13.246
35460SOL    HW1 8219  14.279  13.315  13.261
35460SOL    HW2 8220  14.146  13.253  13.223
35461SOL     OW 8221   1.802   0.353  11.917
35461SOL    HW1 8222   1.721   0.404  11.917
35461SOL    HW2 8223   1.782   0.276  11.970
35462SOL     OW 8224   7.994   6.487  14.743
35462SOL    HW1 8225   7.965   6.578  14.750
35462SOL    HW2 8226   7.914   6.439  14.722
35463SOL     OW 8227   2.569   3.975  12.732
35463SOL    HW1 8228   2.526   3.936  12.656
35463SOL    HW2 8229   2.539   4.066  12.733
35464SOL     OW 8230   7.989   8.245   3.503
35464SOL    HW1 8231   7.918   8.235   3.438
35464SOL    HW2 8232   8.060   8.191   3.469
35465SOL     OW 8233   5.312   4.894   6.904
35465SOL    HW1 8234   5.264   4.816   6.932
35465SOL    HW2 8235   5.334   4.876   6.812
35466SOL     OW 8236   1.199  10.214  11.363
35466SOL    HW1 8237   1.197  10.127  11.325
35466SOL    HW2 8238   1.160  10.271  11.297
35467SOL     OW 8239  12.107   5.383   1.497
35467SOL    HW1 8240  12.053   5.324   1.444
35467SOL    HW2 8241  12.169   5.421   1.435
35468SOL     OW 8242  13.080   3.904  14.670
35468SOL    HW1 8243  13.154   3.889  14.612
35468SOL    HW2 8244  13.004   3.871  14.623
35469SOL     OW 8245   5.176  12.615  13.176
35469SOL    HW1 8246   5.181  12.642  13.084
35469SOL    HW2 8247   5.263  12.634  13.211
35470SOL     OW 8248   3.765   9.934   7.385
35470SOL    HW1 8249   3.783   9.978   7.302
35470SOL    HW2 8250   3.671   9.946   7.398
35471SOL     OW 8251   7.667   6.918   3.952
35471SOL    HW1 8252   7.756   6.909   3.919
35471SOL    HW2 8253   7.613   6.929   3.874
35472SOL     OW 8254  10.169  10.831   1.584
35472SOL    HW1 8255  10.094  10.888   1.566
35472SOL    HW2 8256  10.197  10.856   1.671
35473SOL     OW 8257   6.857   7.218   8.280
35473SOL    HW1 8258   6.816   7.277   8.342
35473SOL    HW2 8259   6.822   7.243   8.195
35474SOL     OW 8260  10.803   6.939   9.476
35474SOL    HW1 8261  10.880   6.961   9.528
35474SOL    HW2 8262  10.794   7.011   9.414
35475SOL     OW 8263   4.921   5.458   2.778
35475SOL    HW1 8264   4.922   5.493   2.867
35475SOL    HW2 8265   4.835   5.480   2.743
35476SOL     OW 8266  14.225   9.857  14.097
35476SOL    HW1 8267  14.262   9.908  14.169
35476SOL    HW2 8268  14.300   9.840  14.039
35477SOL     OW 8269   0.534  14.463   8.212
35477SOL    HW1 8270   0.626  14.460   8.239
35477SOL    HW2 8271   0.538  14.473   8.116
35478SOL     OW 8272   5.545   3.891   2.131
35478SOL    HW1 8273   5.631   3.850   2.132
35478SOL    HW2 8274   5.561   3.980   2.162
35479SOL     OW 8275   4.917   4.587   7.227
35479SOL    HW1 8276   4.872   4.553   7.304
35479SOL    HW2 8277   5.001   4.618   7.259
35480SOL     OW 8278  12.078   2.613   5.120
35480SOL    HW1 8279  12.126   2.556   5.059
35480SOL    HW2 8280  12.021   2.666   5.063
35481SOL     OW 8281   7.721   9.298   7.165
35481SOL    HW1 8282   7.752   9.258   7.246
35481SOL    HW2 8283   7.741   9.234   7.097
35482SOL     OW 8284   5.919   7.120   8.070
35482SOL    HW1 8285   5.850   7.176   8.033
35482SOL    HW2 8286   5.873   7.042   8.100
35483SOL     OW 8287  13.998   0.565   4.425
35483SOL    HW1 8288  14.067   0.557   4.491
35483SOL    HW2 8289  14.023   0.641   4.373
35484SOL     OW 8290  10.765   8.644  11.900
35484SOL    HW1 8291  10.686   8.652  11.847
35484SOL    HW2 8292  10.824   8.590  11.846
35485SOL     OW 8293   7.444   2.753  12.565
35485SOL    HW1 8294   7.357   2.768  12.600
35485SOL    HW2 8295   7.459   2.825  12.504
35486SOL     OW 8296   5.185  10.008  11.717
35486SOL    HW1 8297   5.259   9.957  11.748
35486SOL    HW2 8298   5.149  10.049  11.795
35487SOL     OW 8299   9.427   3.385   4.297
35487SOL    HW1 8300   9.485   3.453   4.262
35487SOL    HW2 8301   9.376   3.356   4.221
35488SOL     OW 8302   3.949   6.478  14.662
35488SOL    HW1 8303   3.882   6.526  14.711
35488SOL    HW2 8304   3.905   6.452  14.581
35489SOL     OW 8305   5.582  11.206   9.552
35489SOL    HW1 8306   5.604  11.147   9.624
35489SOL    HW2 8307   5.544  11.283   9.595
35490SOL     OW 8308   6.113  14.791   7.515
35490SOL    HW1 8309   6.191  14.738   7.526
35490SOL    HW2 8310   6.089  14.817   7.604
35491SOL     OW 8311  12.027  13.582   2.093
35491SOL    HW1 8312  12.068  13.566   2.008
35491SOL    HW2 8313  12.085  13.540   2.156
35492SOL     OW 8314   7.171   3.354   3.642
35492SOL    HW1 8315   7.184   3.352   3.547
35492SOL    HW2 8316   7.129   3.271   3.662
35493SOL     OW 8317  11.637   4.681   4.705
35493SOL    HW1 8318  11.572   4.705   4.771
35493SOL    HW2 8319  11.662   4.591   4.729
35494SOL     OW 8320   0.847  12.056   3.253
35494SOL    HW1 8321   0.928  12.079   3.208
35494SOL    HW2 8322   0.793  12.135   3.246
35495SOL     OW 8323  10.273   8.388  10.882
35495SOL    HW1 8324  10.267   8.484  10.885
35495SOL    HW2 8325  10.211   8.359  10.949
35496SOL     OW 8326  13.272   9.104   6.521
35496SOL    HW1 8327  13.264   9.111   6.616
35496SOL    HW2 8328  13.190   9.063   6.493
35497SOL     OW 8329   6.618   3.313   0.005
35497SOL    HW1 8330   6.671   3.373  14.829
35497SOL    HW2 8331   6.669   3.298   0.084
35498SOL     OW 8332   8.296   6.249   7.343
35498SOL    HW1 8333   8.325   6.178   7.286
35498SOL    HW2 8334   8.309   6.215   7.432
35499SOL     OW 8335   8.013  12.761   9.483
35499SOL    HW1 8336   8.011  12.832   9.548
35499SOL    HW2 8337   8.090  12.709   9.507
35500SOL     OW 8338   4.852   1.504   6.041
35500SOL    HW1 8339   4.877   1.417   6.074
35500SOL    HW2 8340   4.801   1.543   6.112
35501SOL     OW 8341   8.542   2.349   9.453
35501SOL    HW1 8342   8.619   2.379   9.404
35501SOL    HW2 8343   8.515   2.269   9.407
35502SOL     OW 8344   6.804   8.911   6.017
35502SOL    HW1 8345   6.788   8.860   5.938
35502SOL    HW2 8346   6.794   8.849   6.089
35503SOL     OW 8347   5.006  12.245   2.217
35503SOL    HW1 8348   4.981  12.205   2.301
35503SOL    HW2 8349   5.098  12.267   2.228
35504SOL     OW 8350   0.345  14.689   6.242
35504SOL    HW1 8351   0.340  14.619   6.306
35504SOL    HW2 8352   0.396  14.758   6.286
35505SOL     OW 8353  14.330   6.232  10.015
35505SOL    HW1 8354  14.346   6.149   9.970
35505SOL    HW2 8355  14.308   6.294   9.945
35506SOL     OW 8356   9.355  12.494  11.265
35506SOL    HW1 8357   9.439  12.522  11.229
35506SOL    HW2 8358   9.366  12.401  11.282
35507SOL     OW 8359   3.153   1.298  12.147
35507SOL    HW1 8360   3.141   1.351  12.068
35507SOL    HW2 8361   3.211   1.350  12.202
35508SOL     OW 8362   0.064  13.580  10.390
35508SOL    HW1 8363   0.041  13.642  10.459
35508SOL    HW2 8364   0.152  13.550  10.413
35509SOL     OW 8365   4.167   1.322   4.305
35509SOL    HW1 8366   4.263   1.331   4.305
35509SOL    HW2 8367   4.139   1.355   4.390
35510SOL     OW 8368   7.394  12.050   6.639
35510SOL    HW1 8369   7.406  12.128   6.693
35510SOL    HW2 8370   7.311  12.013   6.671
35511SOL     OW 8371   9.940  10.052   2.486
35511SOL    HW1 8372   9.854  10.011   2.474
35511SOL    HW2 8373   9.981  10.046   2.400
35512SOL     OW 8374  10.562  14.695   7.859
35512SOL    HW1 8375  10.614  14.648   7.794
35512SOL    HW2 8376  10.471  14.680   7.833
35513SOL     OW 8377   3.042   2.179  11.126
35513SOL    HW1 8378   3.123   2.136  11.098
35513SOL    HW2 8379   3.068   2.231  11.202
35514SOL     OW 8380  12.276   4.810  14.797
35514SOL    HW1 8381  12.187   4.774  14.806
35514SOL    HW2 8382  12.305   4.780  14.711
35515SOL     OW 8383  13.534  13.793   5.686
35515SOL    HW1 8384  13.456  13.753   5.724
35515SOL    HW2 8385  13.508  13.883   5.668
35516SOL     OW 8386  14.389   8.030   4.816
35516SOL    HW1 8387  14.421   8.027   4.725
35516SOL    HW2 8388  14.295   8.019   4.808
35517SOL     OW 8389   0.009  13.715  13.615
35517SOL    HW1 8390  14.842  13.737  13.533
35517SOL    HW2 8391  14.819  13.730  13.682
35518SOL     OW 8392  11.084   9.664  13.578
35518SOL    HW1 8393  11.020   9.620  13.522
35518SOL    HW2 8394  11.169   9.636  13.544
35519SOL     OW 8395  14.436   2.739   5.974
35519SOL    HW1 8396  14.382   2.680   5.922
35519SOL    HW2 8397  14.374   2.797   6.018
35520SOL     OW 8398   9.779   9.239   2.359
35520SOL    HW1 8399   9.737   9.317   2.322
35520SOL    HW2 8400   9.868   9.269   2.382
35521SOL     OW 8401  13.999  12.219  11.828
35521SOL    HW1 8402  13.950  12.298  11.807
35521SOL    HW2 8403  13.934  12.161  11.869
35522SOL     OW 8404  14.773  10.481   5.388
35522SOL    HW1 8405  14.859  10.472   5.348
35522SOL    HW2 8406  14.712  10.448   5.322
35523SOL     OW 8407  11.132  14.687   8.464
35523SOL    HW1 8408  11.079  14.629   8.409
35523SOL    HW2 8409  11.220  14.681   8.426
35524SOL     OW 8410   1.793   7.414  11.652
35524SOL    HW1 8411   1.878   7.430  11.610
35524SOL    HW2 8412   1.805   7.332  11.699
35525SOL     OW 8413   5.255  13.914  13.301
35525SOL    HW1 8414   5.251  13.818  13.296
35525SOL    HW2 8415   5.343  13.932  13.331
35526SOL     OW 8416   9.839   6.821  11.779
35526SOL    HW1 8417   9.876   6.894  11.829
35526SOL    HW2 8418   9.835   6.854  11.689
35527SOL     OW 8419   3.423  13.203   8.911
35527SOL    HW1 8420   3.438  13.283   8.961
35527SOL    HW2 8421   3.354  13.227   8.849
35528SOL     OW 8422   0.284   0.593   0.907
35528SOL    HW1 8423   0.343   0.519   0.889
35528SOL    HW2 8424   0.204   0.552   0.941
35529SOL     OW 8425   8.552  11.451   5.496
35529SOL    HW1 8426   8.462  11.429   5.520
35529SOL    HW2 8427   8.544  11.511   5.422
35530SOL     OW 8428  11.011  11.906  10.248
35530SOL    HW1 8429  11.069  11.912  10.172
35530SOL    HW2 8430  11.047  11.835  10.301
35531SOL     OW 8431   7.950  13.855   5.754
35531SOL    HW1 8432   8.018  13.892   5.698
35531SOL    HW2 8433   7.970  13.761   5.757
35532SOL     OW 8434  11.283   2.039  11.965
35532SOL    HW1 8435  11.272   2.061  11.873
35532SOL    HW2 8436  11.356   2.093  11.994
35533SOL     OW 8437   6.022  12.683  10.843
35533SOL    HW1 8438   5.989  12.720  10.761
35533SOL    HW2 8439   6.116  12.698  10.840
35534SOL     OW 8440   9.859   5.411  13.441
35534SOL    HW1 8441   9.846   5.505  13.456
35534SOL    HW2 8442   9.906   5.380  13.519
35535SOL     OW 8443   8.992   2.883   1.702
35535SOL    HW1 8444   9.036   2.826   1.765
35535SOL    HW2 8445   9.009   2.972   1.734
35536SOL     OW 8446   7.536   1.112   1.193
35536SOL    HW1 8447   7.608   1.060   1.228
35536SOL    HW2 8448   7.575   1.197   1.174
35537SOL     OW 8449  11.688   6.012   1.053
35537SOL    HW1 8450  11.630   6.080   1.019
35537SOL    HW2 8451  11.776   6.049   1.042
35538SOL     OW 8452  11.802   3.812   1.556
35538SOL    HW1 8453  11.758   3.881   1.506
35538SOL    HW2 8454  11.797   3.841   1.647
35539SOL     OW 8455  10.302  13.371   7.301
35539SOL    HW1 8456  10.225  13.323   7.331
35539SOL    HW2 8457  10.267  13.442   7.247
35540SOL     OW 8458   8.631   3.660  12.495
35540SOL    HW1 8459   8.607   3.567  12.497
35540SOL    HW2 8460   8.565   3.702  12.551
35541SOL     OW 8461  10.193   7.547   7.433
35541SOL    HW1 8462  10.184   7.613   7.502
35541SOL    HW2 8463  10.185   7.463   7.479
35542SOL     OW 8464   1.823   5.153   2.209
35542SOL    HW1 8465   1.886   5.081   2.206
35542SOL    HW2 8466   1.847   5.203   2.286
35543SOL     OW 8467  14.264  10.007   4.842
35543SOL    HW1 8468  14.352  10.041   4.854
35543SOL    HW2 8469  14.227  10.059   4.770
35544SOL     OW 8470   5.375  10.975   8.687
35544SOL    HW1 8471   5.293  10.930   8.711
35544SOL    HW2 8472   5.393  11.033   8.761
35545SOL     OW 8473  10.491   7.447  11.052
35545SOL    HW1 8474  10.423   7.466  11.116
35545SOL    HW2 8475  10.573   7.459  11.100
35546SOL     OW 8476   1.986   5.351   6.437
35546SOL    HW1 8477   2.074   5.385   6.450
35546SOL    HW2 8478   1.945   5.412   6.376
35547SOL     OW 8479  11.638  11.488  12.136
35547SOL    HW1 8480  11.710  11.502  12.074
35547SOL    HW2 8481  11.675  11.512  12.221
35548SOL     OW 8482  10.281   6.965  11.833
35548SOL    HW1 8483  10.342   7.031  11.799
35548SOL    HW2 8484  10.223   6.946  11.759
35549SOL     OW 8485   9.288   6.760   7.018
35549SOL    HW1 8486   9.285   6.671   7.053
35549SOL    HW2 8487   9.381   6.775   6.999
35550SOL     OW 8488  14.824   1.623  11.011
35550SOL    HW1 8489  14.760   1.553  11.025
35550SOL    HW2 8490  14.784   1.700  11.051
35551SOL     OW 8491   3.711   7.560  10.252
35551SOL    HW1 8492   3.776   7.580  10.184
35551SOL    HW2 8493   3.696   7.644  10.296
35552SOL     OW 8494  12.040   4.337   8.979
35552SOL    HW1 8495  11.954   4.315   8.943
35552SOL    HW2 8496  12.077   4.400   8.916
35553SOL     OW 8497   9.781  10.502  14.022
35553SOL    HW1 8498   9.756  10.574  14.081
35553SOL    HW2 8499   9.700  10.453  14.010
35554SOL     OW 8500   3.196  12.067   6.995
35554SOL    HW1 8501   3.275  12.106   6.957
35554SOL    HW2 8502   3.190  12.105   7.082
35555SOL     OW 8503   2.383   3.644   7.447
35555SOL    HW1 8504   2.381   3.737   7.424
35555SOL    HW2 8505   2.457   3.635   7.507
35556SOL     OW 8506   9.830   2.879   2.867
35556SOL    HW1 8507   9.905   2.828   2.896
35556SOL    HW2 8508   9.867   2.963   2.839
35557SOL     OW 8509   7.025  11.799   3.382
35557SOL    HW1 8510   7.111  11.786   3.423
35557SOL    HW2 8511   7.044  11.803   3.288
35558SOL     OW 8512  10.713   6.862   6.013
35558SOL    HW1 8513  10.694   6.771   6.034
35558SOL    HW2 8514  10.729   6.904   6.098
35559SOL     OW 8515   8.922  12.882  13.807
35559SOL    HW1 8516   9.002  12.925  13.834
35559SOL    HW2 8517   8.852  12.934  13.846
35560SOL     OW 8518   7.867   4.482  10.402
35560SOL    HW1 8519   7.897   4.493  10.493
35560SOL    HW2 8520   7.779   4.519  10.401
35561SOL     OW 8521  10.000   5.204   8.671
35561SOL    HW1 8522  10.058   5.237   8.602
35561SOL    HW2 8523   9.959   5.127   8.633
35562SOL     OW 8524   6.300   5.003  13.559
35562SOL    HW1 8525   6.347   5.007  13.475
35562SOL    HW2 8526   6.269   5.093  13.573
35563SOL     OW 8527   0.017   3.782   3.716
35563SOL    HW1 8528   0.045   3.754   3.802
35563SOL    HW2 8529  14.800   3.761   3.713
35564SOL     OW 8530   3.129  14.150  12.558
35564SOL    HW1 8531   3.086  14.218  12.507
35564SOL    HW2 8532   3.162  14.088  12.493
35565SOL     OW 8533   9.285   1.487  12.356
35565SOL    HW1 8534   9.260   1.525  12.272
35565SOL    HW2 8535   9.283   1.561  12.417
35566SOL     OW 8536  10.899   0.802   8.368
35566SOL    HW1 8537  10.994   0.791   8.363
35566SOL    HW2 8538  10.870   0.732   8.427
35567SOL     OW 8539   7.246   7.556   3.089
35567SOL    HW1 8540   7.226   7.649   3.084
35567SOL    HW2 8541   7.285   7.543   3.175
35568SOL     OW 8542   2.633  14.493   6.773
35568SOL    HW1 8543   2.630  14.464   6.682
35568SOL    HW2 8544   2.542  14.487   6.803
35569SOL     OW 8545   7.652   3.523   2.662
35569SOL    HW1 8546   7.722   3.531   2.598
35569SOL    HW2 8547   7.630   3.429   2.662
35570SOL     OW 8548  11.681   7.378   7.881
35570SOL    HW1 8549  11.753   7.318   7.863
35570SOL    HW2 8550  11.722   7.463   7.892
35571SOL     OW 8551  14.592   4.421   9.655
35571SOL    HW1 8552  14.653   4.418   9.729
35571SOL    HW2 8553  14.507   4.441   9.695
35572SOL     OW 8554  14.829   4.837   8.549
35572SOL    HW1 8555  14.838   4.923   8.591
35572SOL    HW2 8556  14.760   4.793   8.598
35573SOL     OW 8557   2.693  11.230  10.147
35573SOL    HW1 8558   2.619  11.291  10.140
35573SOL    HW2 8559   2.656  11.144  10.129
35574SOL     OW 8560   8.042   1.789  12.222
35574SOL    HW1 8561   8.054   1.881  12.244
35574SOL    HW2 8562   8.130   1.753  12.220
35575SOL     OW 8563   3.394   4.161  11.578
35575SOL    HW1 8564   3.419   4.253  11.583
35575SOL    HW2 8565   3.324   4.152  11.644
35576SOL     OW 8566   6.966  10.256   8.586
35576SOL    HW1 8567   6.911  10.330   8.608
35576SOL    HW2 8568   6.930  10.223   8.503
35577SOL     OW 8569   9.409  12.275   9.962
35577SOL    HW1 8570   9.431  12.361   9.927
35577SOL    HW2 8571   9.358  12.293  10.041
35578SOL     OW 8572   8.203  14.724  11.892
35578SOL    HW1 8573   8.262  14.700  11.820
35578SOL    HW2 8574   8.244  14.686  11.969
35579SOL     OW 8575   7.777   3.115   9.650
35579SOL    HW1 8576   7.825   3.187   9.690
35579SOL    HW2 8577   7.695   3.154   9.621
35580SOL     OW 8578   8.704   4.761   6.891
35580SOL    HW1 8579   8.666   4.809   6.966
35580SOL    HW2 8580   8.761   4.825   6.849
35581SOL     OW 8581   8.823  11.674   1.125
35581SOL    HW1 8582   8.888  11.693   1.193
35581SOL    HW2 8583   8.747  11.640   1.172
35582SOL     OW 8584   6.247  12.326  10.069
35582SOL    HW1 8585   6.311  12.264  10.103
35582SOL    HW2 8586   6.276  12.345   9.980
35583SOL     OW 8587  11.835  11.611  14.041
35583SOL    HW1 8588  11.887  11.589  14.119
35583SOL    HW2 8589  11.825  11.528  13.995
35584SOL     OW 8590  10.398   5.608  14.214
35584SOL    HW1 8591  10.326   5.568  14.163
35584SOL    HW2 8592  10.384   5.702  14.206
35585SOL     OW 8593   2.805   3.397   0.833
35585SOL    HW1 8594   2.785   3.428   0.921
35585SOL    HW2 8595   2.893   3.361   0.840
35586SOL     OW 8596   6.800  14.101   2.537
35586SOL    HW1 8597   6.725  14.062   2.491
35586SOL    HW2 8598   6.876  14.078   2.484
35587SOL     OW 8599   2.601  10.600  11.185
35587SOL    HW1 8600   2.679  10.544  11.178
35587SOL    HW2 8601   2.560  10.595  11.099
35588SOL     OW 8602   5.595  11.662  13.000
35588SOL    HW1 8603   5.533  11.612  12.948
35588SOL    HW2 8604   5.637  11.597  13.057
35589SOL     OW 8605  11.028   4.722  13.819
35589SOL    HW1 8606  11.046   4.792  13.882
35589SOL    HW2 8607  10.964   4.760  13.759
35590SOL     OW 8608   6.491   8.227   6.927
35590SOL    HW1 8609   6.466   8.206   7.017
35590SOL    HW2 8610   6.562   8.166   6.907
35591SOL     OW 8611   0.502  12.346  12.828
35591SOL    HW1 8612   0.589  12.378  12.804
35591SOL    HW2 8613   0.486  12.385  12.914
35592SOL     OW 8614  14.014   5.152   2.095
35592SOL    HW1 8615  13.977   5.078   2.143
35592SOL    HW2 8616  13.989   5.229   2.147
35593SOL     OW 8617   4.596   6.773   0.373
35593SOL    HW1 8618   4.515   6.793   0.419
35593SOL    HW2 8619   4.585   6.683   0.341
35594SOL     OW 8620   7.276   4.304  14.247
35594SOL    HW1 8621   7.248   4.213  14.253
35594SOL    HW2 8622   7.226   4.349  14.315
35595SOL     OW 8623   8.177   3.296   7.230
35595SOL    HW1 8624   8.261   3.274   7.269
35595SOL    HW2 8625   8.167   3.234   7.158
35596SOL     OW 8626  13.809   8.152   8.746
35596SOL    HW1 8627  13.763   8.156   8.663
35596SOL    HW2 8628  13.902   8.160   8.723
35597SOL     OW 8629   7.267  10.423  12.733
35597SOL    HW1 8630   7.297  10.448  12.645
35597SOL    HW2 8631   7.258  10.327  12.729
35598SOL     OW 8632  12.556   9.926  11.752
35598SOL    HW1 8633  12.580   9.967  11.835
35598SOL    HW2 8634  12.461   9.930  11.750
35599SOL     OW 8635   9.475   2.876   1.458
35599SOL    HW1 8636   9.457   2.801   1.515
35599SOL    HW2 8637   9.560   2.908   1.487
35600SOL     OW 8638   6.097   8.114  13.789
35600SOL    HW1 8639   6.147   8.033  13.798
35600SOL    HW2 8640   6.141   8.177  13.846
35601SOL     OW 8641  11.593  13.705   1.358
35601SOL    HW1 8642  11.631  13.649   1.290
35601SOL    HW2 8643  11.658  13.775   1.370
35602SOL     OW 8644   2.110   3.024  12.326
35602SOL    HW1 8645   2.047   2.998  12.259
35602SOL    HW2 8646   2.082   3.110  12.355
35603SOL     OW 8647  13.903   9.447   8.706
35603SOL    HW1 8648  13.897   9.431   8.800
35603SOL    HW2 8649  13.953   9.528   8.698
35604SOL     OW 8650   6.911   6.575   6.388
35604SOL    HW1 8651   6.928   6.669   6.390
35604SOL    HW2 8652   6.920   6.547   6.478
35605SOL     OW 8653   9.161   3.694   0.306
35605SOL    HW1 8654   9.067   3.689   0.324
35605SOL    HW2 8655   9.202   3.639   0.372
35606SOL     OW 8656   9.714   7.984  14.855
35606SOL    HW1 8657   9.730   7.950  14.767
35606SOL    HW2 8658   9.772   7.933   0.035
35607SOL     OW 8659   8.554   3.107  10.358
35607SOL    HW1 8660   8.554   3.132  10.451
35607SOL    HW2 8661   8.629   3.153  10.321
35608SOL     OW 8662   3.975  10.732  13.834
35608SOL    HW1 8663   3.942  10.807  13.785
35608SOL    HW2 8664   3.899  10.673  13.841
35609SOL     OW 8665   1.433   1.215   1.681
35609SOL    HW1 8666   1.381   1.191   1.758
35609SOL    HW2 8667   1.380   1.281   1.636
35610SOL     OW 8668   1.623  13.828   2.806
35610SOL    HW1 8669   1.652  13.913   2.772
35610SOL    HW2 8670   1.564  13.795   2.739
35611SOL     OW 8671   0.515  14.578   4.848
35611SOL    HW1 8672   0.517  14.565   4.943
35611SOL    HW2 8673   0.608  14.586   4.823
35612SOL     OW 8674   5.888   1.195  12.791
35612SOL    HW1 8675   5.846   1.275  12.762
35612SOL    HW2 8676   5.973   1.223  12.824
35613SOL     OW 8677   0.816   9.595  11.272
35613SOL    HW1 8678   0.891   9.602  11.331
35613SOL    HW2 8679   0.838   9.652  11.198
35614SOL     OW 8680  10.881   4.744   6.486
35614SOL    HW1 8681  10.910   4.659   6.517
35614SOL    HW2 8682  10.876   4.735   6.391
35615SOL     OW 8683   2.119   6.170   6.209
35615SOL    HW1 8684   2.031   6.152   6.177
35615SOL    HW2 8685   2.146   6.250   6.164
35616SOL     OW 8686   3.045   0.788   7.085
35616SOL    HW1 8687   3.061   0.695   7.098
35616SOL    HW2 8688   3.078   0.806   6.997
35617SOL     OW 8689   5.108   7.885   3.278
35617SOL    HW1 8690   5.087   7.926   3.362
35617SOL    HW2 8691   5.201   7.903   3.265
35618SOL     OW 8692   5.925  14.811   2.132
35618SOL    HW1 8693   5.859  14.841   2.194
35618SOL    HW2 8694   5.945  14.721   2.159
35619SOL     OW 8695   1.832  10.249   6.310
35619SOL    HW1 8696   1.844  10.329   6.260
35619SOL    HW2 8697   1.827  10.179   6.244
35620SOL     OW 8698   2.525  11.484   5.605
35620SOL    HW1 8699   2.587  11.528   5.662
35620SOL    HW2 8700   2.577  11.415   5.563
35621SOL     OW 8701  14.280   8.401   0.765
35621SOL    HW1 8702  14.332   8.368   0.692
35621SOL    HW2 8703  14.326   8.480   0.795
35622SOL     OW 8704  14.189   1.731  13.728
35622SOL    HW1 8705  14.212   1.642  13.701
35622SOL    HW2 8706  14.268   1.764  13.772
35623SOL     OW 8707  11.912   1.562  10.832
35623SOL    HW1 8708  11.949   1.501  10.767
35623SOL    HW2 8709  11.958   1.540  10.913
35624SOL     OW 8710   4.610  13.762  13.986
35624SOL    HW1 8711   4.516  13.754  13.972
35624SOL    HW2 8712   4.646  13.779  13.900
35625SOL     OW 8713  12.752   9.664  12.374
35625SOL    HW1 8714  12.802   9.649  12.454
35625SOL    HW2 8715  12.811   9.637  12.304
35626SOL     OW 8716   6.692   6.233   2.854
35626SOL    HW1 8717   6.698   6.140   2.879
35626SOL    HW2 8718   6.779   6.268   2.872
35627SOL     OW 8719   0.545  13.854   0.148
35627SOL    HW1 8720   0.535  13.762   0.172
35627SOL    HW2 8721   0.540  13.901   0.231
35628SOL     OW 8722  10.891   5.367  14.551
35628SOL    HW1 8723  10.905   5.455  14.586
35628SOL    HW2 8724  10.917   5.372  14.459
35629SOL     OW 8725   9.411  12.615   7.539
35629SOL    HW1 8726   9.484  12.678   7.530
35629SOL    HW2 8727   9.371  12.638   7.623
35630SOL     OW 8728   1.476  14.490   4.694
35630SOL    HW1 8729   1.535  14.565   4.691
35630SOL    HW2 8730   1.441  14.483   4.605
35631SOL     OW 8731   0.154  11.056   8.700
35631SOL    HW1 8732   0.231  11.088   8.746
35631SOL    HW2 8733   0.081  11.102   8.740
35632SOL     OW 8734  12.742  13.456   5.190
35632SOL    HW1 8735  12.677  13.521   5.164
35632SOL    HW2 8736  12.755  13.403   5.111
35633SOL     OW 8737   8.140   2.035  11.375
35633SOL    HW1 8738   8.133   2.086  11.294
35633SOL    HW2 8739   8.058   2.052  11.421
35634SOL     OW 8740   1.358   8.436   6.287
35634SOL    HW1 8741   1.306   8.464   6.212
35634SOL    HW2 8742   1.376   8.344   6.272
35635SOL     OW 8743   4.013   5.722   5.592
35635SOL    HW1 8744   4.003   5.707   5.686
35635SOL    HW2 8745   4.106   5.739   5.581
35636SOL     OW 8746   1.298   9.649   4.882
35636SOL    HW1 8747   1.333   9.613   4.963
35636SOL    HW2 8748   1.220   9.596   4.865
35637SOL     OW 8749   0.811   4.973   0.123
35637SOL    HW1 8750   0.848   4.891   0.091
35637SOL    HW2 8751   0.798   4.960   0.217
35638SOL     OW 8752  11.147   3.212   2.798
35638SOL    HW1 8753  11.241   3.224   2.815
35638SOL    HW2 8754  11.127   3.127   2.837
35639SOL     OW 8755   3.320   1.585   1.226
35639SOL    HW1 8756   3.326   1.632   1.309
35639SOL    HW2 8757   3.385   1.628   1.170
35640SOL     OW 8758  13.537  12.633   6.546
35640SOL    HW1 8759  13.603  12.576   6.585
35640SOL    HW2 8760  13.531  12.604   6.455
35641SOL     OW 8761   0.256   2.270  12.719
35641SOL    HW1 8762   0.318   2.251  12.790
35641SOL    HW2 8763   0.183   2.211  12.736
35642SOL     OW 8764  11.053   0.737   2.890
35642SOL    HW1 8765  11.093   0.796   2.954
35642SOL    HW2 8766  11.098   0.756   2.808
35643SOL     OW 8767   5.193   0.154  12.383
35643SOL    HW1 8768   5.125   0.116  12.439
35643SOL    HW2 8769   5.148   0.173  12.301
35644SOL     OW 8770   8.860  14.779   1.524
35644SOL    HW1 8771   8.883  14.739   1.440
35644SOL    HW2 8772   8.896  14.867   1.519
35645SOL     OW 8773   2.379   4.195   2.382
35645SOL    HW1 8774   2.468   4.223   2.400
35645SOL    HW2 8775   2.324   4.266   2.417
35646SOL     OW 8776   4.027   4.592   6.654
35646SOL    HW1 8777   4.053   4.683   6.668
35646SOL    HW2 8778   4.071   4.544   6.724
35647SOL     OW 8779   3.028  11.547  13.279
35647SOL    HW1 8780   3.098  11.538  13.214
35647SOL    HW2 8781   3.074  11.565  13.361
35648SOL     OW 8782  12.757  14.650   8.060
35648SOL    HW1 8783  12.802  14.713   8.117
35648SOL    HW2 8784  12.787  14.671   7.972
35649SOL     OW 8785   2.462   1.988   7.511
35649SOL    HW1 8786   2.419   2.019   7.591
35649SOL    HW2 8787   2.441   2.054   7.445
35650SOL     OW 8788   0.640   5.519   2.303
35650SOL    HW1 8789   0.731   5.550   2.305
35650SOL    HW2 8790   0.622   5.490   2.392
35651SOL     OW 8791  13.846   7.149   5.814
35651SOL    HW1 8792  13.842   7.193   5.900
35651SOL    HW2 8793  13.895   7.069   5.831
35652SOL     OW 8794  13.901  10.848  14.385
35652SOL    HW1 8795  13.925  10.905  14.312
35652SOL    HW2 8796  13.957  10.876  14.457
35653SOL     OW 8797   7.916  11.990   1.939
35653SOL    HW1 8798   7.881  11.908   1.975
35653SOL    HW2 8799   7.867  12.002   1.857
35654SOL     OW 8800  12.462  10.406   6.260
35654SOL    HW1 8801  12.377  10.402   6.217
35654SOL    HW2 8802  12.500  10.319   6.246
35655SOL     OW 8803   8.528   2.281   3.110
35655SOL    HW1 8804   8.466   2.208   3.114
35655SOL    HW2 8805   8.595   2.259   3.175
35656SOL     OW 8806   6.385   0.141  11.768
35656SOL    HW1 8807   6.323   0.207  11.799
35656SOL    HW2 8808   6.470   0.185  11.770
35657SOL     OW 8809  12.562  12.690   1.424
35657SOL    HW1 8810  12.577  12.644   1.506
35657SOL    HW2 8811  12.494  12.754   1.444
35658SOL     OW 8812   7.767   0.495   4.470
35658SOL    HW1 8813   7.723   0.450   4.398
35658SOL    HW2 8814   7.749   0.588   4.454
35659SOL     OW 8815   5.211   8.224   6.139
35659SOL    HW1 8816   5.291   8.252   6.094
35659SOL    HW2 8817   5.190   8.139   6.100
35660SOL     OW 8818   4.105   4.664  14.807
35660SOL    HW1 8819   4.139   4.753  14.813
35660SOL    HW2 8820   4.159   4.622  14.741
35661SOL     OW 8821   6.592  13.051  14.290
35661SOL    HW1 8822   6.520  13.032  14.350
35661SOL    HW2 8823   6.650  13.109  14.339
35662SOL     OW 8824  10.381  10.430   5.615
35662SOL    HW1 8825  10.406  10.343   5.585
35662SOL    HW2 8826  10.290  10.421   5.644
35663SOL     OW 8827   4.978   5.822   0.968
35663SOL    HW1 8828   5.013   5.905   1.001
35663SOL    HW2 8829   5.006   5.756   1.032
35664SOL     OW 8830  13.411   1.926   7.748
35664SOL    HW1 8831  13.368   1.928   7.834
35664SOL    HW2 8832  13.374   1.850   7.704
35665SOL     OW 8833  13.073   3.388   0.391
35665SOL    HW1 8834  13.145   3.450   0.403
35665SOL    HW2 8835  13.114   3.311   0.351
35666SOL     OW 8836  12.556   4.599   1.657
35666SOL    HW1 8837  12.557   4.612   1.562
35666SOL    HW2 8838  12.645   4.621   1.685
35667SOL     OW 8839   9.524  13.075   9.417
35667SOL    HW1 8840   9.609  13.042   9.446
35667SOL    HW2 8841   9.542  13.120   9.334
35668SOL     OW 8842   4.268   6.153  11.057
35668SOL    HW1 8843   4.251   6.232  11.108
35668SOL    HW2 8844   4.287   6.085  11.122
35669SOL     OW 8845   4.661  12.212   8.969
35669SOL    HW1 8846   4.587  12.208   9.029
35669SOL    HW2 8847   4.727  12.155   9.007
35670SOL     OW 8848   6.029   2.723  12.709
35670SOL    HW1 8849   6.051   2.802  12.758
35670SOL    HW2 8850   5.989   2.754  12.628
35671SOL     OW 8851   3.457   1.389   8.721
35671SOL    HW1 8852   3.542   1.349   8.703
35671SOL    HW2 8853   3.426   1.420   8.636
35672SOL     OW 8854  14.388  13.858   8.859
35672SOL    HW1 8855  14.379  13.902   8.774
35672SOL    HW2 8856  14.334  13.909   8.919
35673SOL     OW 8857   3.552   0.550   1.164
35673SOL    HW1 8858   3.634   0.587   1.132
35673SOL    HW2 8859   3.499   0.626   1.187
35674SOL     OW 8860   5.534  14.158   5.675
35674SOL    HW1 8861   5.529  14.070   5.637
35674SOL    HW2 8862   5.529  14.143   5.770
35675SOL     OW 8863  14.174  12.590   0.610
35675SOL    HW1 8864  14.234  12.542   0.667
35675SOL    HW2 8865  14.115  12.636   0.671
35676SOL     OW 8866   8.648  10.029   8.869
35676SOL    HW1 8867   8.554  10.017   8.857
35676SOL    HW2 8868   8.676  10.077   8.791
35677SOL     OW 8869   0.119  10.667  12.660
35677SOL    HW1 8870   0.175  10.715  12.599
35677SOL    HW2 8871   0.167  10.668  12.742
35678SOL     OW 8872   3.031   7.904   1.266
35678SOL    HW1 8873   3.029   7.991   1.226
35678SOL    HW2 8874   3.104   7.860   1.223
35679SOL     OW 8875   4.067   7.266  12.754
35679SOL    HW1 8876   4.043   7.193  12.811
35679SOL    HW2 8877   3.983   7.299  12.721
35680SOL     OW 8878   0.673  11.192   0.466
35680SOL    HW1 8879   0.682  11.123   0.400
35680SOL    HW2 8880   0.580  11.192   0.488
35681SOL     OW 8881  12.072   9.681  13.879
35681SOL    HW1 8882  12.134   9.689  13.807
35681SOL    HW2 8883  12.091   9.756  13.936
35682SOL     OW 8884  13.286   4.391   3.262
35682SOL    HW1 8885  13.380   4.383   3.248
35682SOL    HW2 8886  13.249   4.399   3.174
35683SOL     OW 8887   8.378   0.571   4.337
35683SOL    HW1 8888   8.445   0.533   4.394
35683SOL    HW2 8889   8.356   0.654   4.378
35684SOL     OW 8890  11.189   6.283  11.942
35684SOL    HW1 8891  11.112   6.226  11.945
35684SOL    HW2 8892  11.194   6.322  12.029
35685SOL     OW 8893  11.069  12.326   7.439
35685SOL    HW1 8894  11.075  12.328   7.534
35685SOL    HW2 8895  11.159  12.336   7.408
35686SOL     OW 8896  10.292   7.458   5.420
35686SOL    HW1 8897  10.321   7.538   5.463
35686SOL    HW2 8898  10.296   7.478   5.326
35687SOL     OW 8899   2.015   3.496   4.229
35687SOL    HW1 8900   1.992   3.557   4.299
35687SOL    HW2 8901   2.070   3.547   4.170
35688SOL     OW 8902   4.215   4.097   1.021
35688SOL    HW1 8903   4.176   4.016   0.989
35688SOL    HW2 8904   4.247   4.076   1.109
35689SOL     OW 8905   5.302   3.439   9.679
35689SOL    HW1 8906   5.268   3.413   9.594
35689SOL    HW2 8907   5.386   3.392   9.686
35690SOL     OW 8908   4.430   6.531   1.078
35690SOL    HW1 8909   4.491   6.465   1.109
35690SOL    HW2 8910   4.432   6.599   1.146
35691SOL     OW 8911   1.386   1.107   0.151
35691SOL    HW1 8912   1.336   1.027   0.168
35691SOL    HW2 8913   1.457   1.105   0.216
35692SOL     OW 8914   1.509   4.029  14.736
35692SOL    HW1 8915   1.474   4.104  14.785
35692SOL    HW2 8916   1.603   4.034  14.749
35693SOL     OW 8917  10.338   9.205  10.977
35693SOL    HW1 8918  10.412   9.144  10.975
35693SOL    HW2 8919  10.375   9.286  11.013
35694SOL     OW 8920   5.794   6.391   0.524
35694SOL    HW1 8921   5.755   6.453   0.462
35694SOL    HW2 8922   5.866   6.351   0.477
35695SOL     OW 8923   2.627   7.371  13.544
35695SOL    HW1 8924   2.671   7.313  13.481
35695SOL    HW2 8925   2.669   7.456  13.532
35696SOL     OW 8926  12.429   6.414  14.309
35696SOL    HW1 8927  12.478   6.419  14.227
35696SOL    HW2 8928  12.488   6.451  14.375
35697SOL     OW 8929   2.939   0.171   3.301
35697SOL    HW1 8930   3.030   0.171   3.330
35697SOL    HW2 8931   2.889   0.186   3.381
35698SOL     OW 8932   3.636   6.053   1.023
35698SOL    HW1 8933   3.613   5.960   1.031
35698SOL    HW2 8934   3.629   6.071   0.929
35699SOL     OW 8935  14.522   2.553  13.793
35699SOL    HW1 8936  14.589   2.587  13.734
35699SOL    HW2 8937  14.542   2.459  13.800
35700SOL     OW 8938  13.139   3.524  10.829
35700SOL    HW1 8939  13.082   3.600  10.826
35700SOL    HW2 8940  13.226   3.558  10.808
35701SOL     OW 8941  11.791   9.268  13.530
35701SOL    HW1 8942  11.800   9.338  13.465
35701SOL    HW2 8943  11.831   9.192  13.488
35702SOL     OW 8944   4.776  10.073   6.401
35702SOL    HW1 8945   4.787  10.004   6.466
35702SOL    HW2 8946   4.848  10.058   6.339
35703SOL     OW 8947  10.555   7.573   3.837
35703SOL    HW1 8948  10.540   7.615   3.922
35703SOL    HW2 8949  10.481   7.512   3.828
35704SOL     OW 8950   7.931   6.256   0.584
35704SOL    HW1 8951   8.004   6.195   0.589
35704SOL    HW2 8952   7.961   6.333   0.632
35705SOL     OW 8953  14.084   0.088  10.387
35705SOL    HW1 8954  14.005   0.058  10.341
35705SOL    HW2 8955  14.156   0.055  10.333
35706SOL     OW 8956   6.647   6.367   4.249
35706SOL    HW1 8957   6.642   6.376   4.344
35706SOL    HW2 8958   6.559   6.392   4.219
35707SOL     OW 8959  12.496  11.216  13.471
35707SOL    HW1 8960  12.471  11.276  13.400
35707SOL    HW2 8961  12.489  11.268  13.550
35708SOL     OW 8962   9.587   8.118   0.256
35708SOL    HW1 8963   9.641   8.146   0.183
35708SOL    HW2 8964   9.551   8.199   0.292
35709SOL     OW 8965  10.464  10.854   8.571
35709SOL    HW1 8966  10.383  10.897   8.600
35709SOL    HW2 8967  10.522  10.859   8.647
35710SOL     OW 8968   9.662   4.315   4.784
35710SOL    HW1 8969   9.641   4.359   4.702
35710SOL    HW2 8970   9.758   4.308   4.784
35711SOL     OW 8971  11.661   2.452   0.414
35711SOL    HW1 8972  11.697   2.433   0.501
35711SOL    HW2 8973  11.700   2.536   0.389
35712SOL     OW 8974  10.614   1.919  13.396
35712SOL    HW1 8975  10.694   1.925  13.448
35712SOL    HW2 8976  10.630   1.976  13.321
35713SOL     OW 8977   3.059   7.285  10.517
35713SOL    HW1 8978   3.097   7.326  10.595
35713SOL    HW2 8979   2.967   7.270  10.540
35714SOL     OW 8980  13.655   4.793   9.103
35714SOL    HW1 8981  13.671   4.879   9.140
35714SOL    HW2 8982  13.637   4.810   9.010
35715SOL     OW 8983  14.459  11.987   9.402
35715SOL    HW1 8984  14.511  12.014   9.477
35715SOL    HW2 8985  14.370  11.979   9.436
35716SOL     OW 8986   5.122   0.962  10.521
35716SOL    HW1 8987   5.192   1.018  10.554
35716SOL    HW2 8988   5.151   0.935  10.434
35717SOL     OW 8989  14.829   5.914   9.542
35717SOL    HW1 8990  14.838   5.851   9.471
35717SOL    HW2 8991  14.833   6.000   9.500
35718SOL     OW 8992   6.358   8.944   1.492
35718SOL    HW1 8993   6.426   8.900   1.442
35718SOL    HW2 8994   6.285   8.954   1.431
35719SOL     OW 8995  14.766  10.324  14.784
35719SOL    HW1 8996  14.852  10.344  14.822
35719SOL    HW2 8997  14.769  10.363  14.697
35720SOL     OW 8998   4.070   9.741  12.659
35720SOL    HW1 8999   4.016   9.737  12.738
35720SOL    HW2 9000   4.158   9.763  12.691
35721SOL     OW 9001   3.733   8.343   2.616
35721SOL    HW1 9002   3.666   8.303   2.671
35721SOL    HW2 9003   3.812   8.291   2.632
35722SOL     OW 9004   6.458   2.910   2.217
35722SOL    HW1 9005   6.464   2.961   2.298
35722SOL    HW2 9006   6.369   2.927   2.184
35723SOL     OW 9007   2.866   9.953   2.454
35723SOL    HW1 9008   2.846   9.867   2.418
35723SOL    HW2 9009   2.881  10.008   2.377
35724SOL     OW 9010   3.338   8.868  11.566
35724SOL    HW1 9011   3.356   8.897  11.477
35724SOL    HW2 9012   3.406   8.804  11.585
35725SOL     OW 9013   1.346  14.037  11.596
35725SOL    HW1 9014   1.344  14.088  11.515
35725SOL    HW2 9015   1.407  14.084  11.653
35726SOL     OW 9016  14.852   2.266  11.442
35726SOL    HW1 9017  14.783   2.200  11.434
35726SOL    HW2 9018   0.013   2.271  11.354
35727SOL     OW 9019   8.080   6.433  11.474
35727SOL    HW1 9020   8.054   6.351  11.516
35727SOL    HW2 9021   8.000   6.464  11.431
35728SOL     OW 9022  11.307  13.298  14.755
35728SOL    HW1 9023  11.323  13.241  14.679
35728SOL    HW2 9024  11.213  13.289  14.773
35729SOL     OW 9025   4.234   9.642  10.789
35729SOL    HW1 9026   4.298   9.680  10.849
35729SOL    HW2 9027   4.150   9.677  10.819
35730SOL     OW 9028  11.449   8.431   8.317
35730SOL    HW1 9029  11.365   8.434   8.363
35730SOL    HW2 9030  11.439   8.361   8.253
35731SOL     OW 9031   7.153   8.658   9.241
35731SOL    HW1 9032   7.167   8.700   9.156
35731SOL    HW2 9033   7.140   8.566   9.220
35732SOL     OW 9034   1.285   5.715   8.434
35732SOL    HW1 9035   1.231   5.792   8.415
35732SOL    HW2 9036   1.299   5.719   8.529
35733SOL     OW 9037   5.468  10.699  12.715
35733SOL    HW1 9038   5.560  10.681  12.696
35733SOL    HW2 9039   5.457  10.673  12.807
35734SOL     OW 9040  13.817   4.845   5.815
35734SOL    HW1 9041  13.822   4.751   5.795
35734SOL    HW2 9042  13.809   4.849   5.910
35735SOL     OW 9043   6.288   5.848   2.168
35735SOL    HW1 9044   6.234   5.901   2.227
35735SOL    HW2 9045   6.290   5.762   2.209
35736SOL     OW 9046   7.181   0.454   1.199
35736SOL    HW1 9047   7.173   0.514   1.125
35736SOL    HW2 9048   7.154   0.506   1.275
35737SOL     OW 9049  10.725   8.714   4.198
35737SOL    HW1 9050  10.725   8.620   4.181
35737SOL    HW2 9051  10.640   8.745   4.164
35738SOL     OW 9052   9.885   4.433   1.565
35738SOL    HW1 9053   9.960   4.439   1.624
35738SOL    HW2 9054   9.924   4.426   1.478
35739SOL     OW 9055  12.079   5.360  12.687
35739SOL    HW1 9056  12.100   5.355  12.594
35739SOL    HW2 9057  12.091   5.271  12.719
35740SOL     OW 9058  14.516   0.020  11.637
35740SOL    HW1 9059  14.530   0.112  11.616
35740SOL    HW2 9060  14.483  14.857  11.556
35741SOL     OW 9061  10.036   4.281  11.251
35741SOL    HW1 9062   9.977   4.341  11.205
35741SOL    HW2 9063   9.977   4.225  11.302
35742SOL     OW 9064  14.825   5.286   1.822
35742SOL    HW1 9065  14.753   5.285   1.759
35742SOL    HW2 9066  14.813   5.368   1.871
35743SOL     OW 9067  14.850  14.432  10.387
35743SOL    HW1 9068  14.797  14.400  10.460
35743SOL    HW2 9069   0.005  14.517  10.415
35744SOL     OW 9070   2.497  12.519  14.836
35744SOL    HW1 9071   2.422  12.578  14.831
35744SOL    HW2 9072   2.550  12.553   0.032
35745SOL     OW 9073   0.755   5.914   8.798
35745SOL    HW1 9074   0.692   5.980   8.771
35745SOL    HW2 9075   0.703   5.852   8.849
35746SOL     OW 9076   5.267   4.828   3.977
35746SOL    HW1 9077   5.353   4.788   3.970
35746SOL    HW2 9078   5.271   4.905   3.920
35747SOL     OW 9079   0.561   3.958  13.862
35747SOL    HW1 9080   0.474   3.983  13.892
35747SOL    HW2 9081   0.579   4.016  13.789
35748SOL     OW 9082   9.600   0.189  14.389
35748SOL    HW1 9083   9.585   0.279  14.362
35748SOL    HW2 9084   9.588   0.190  14.484
35749SOL     OW 9085   5.272   6.671  13.484
35749SOL    HW1 9086   5.192   6.671  13.537
35749SOL    HW2 9087   5.247   6.627  13.403
35750SOL     OW 9088  11.983  12.583   8.857
35750SOL    HW1 9089  12.023  12.627   8.782
35750SOL    HW2 9090  11.912  12.532   8.820
35751SOL     OW 9091  11.515   7.235   5.341
35751SOL    HW1 9092  11.500   7.188   5.259
35751SOL    HW2 9093  11.512   7.168   5.408
35752SOL     OW 9094   2.577   0.688   7.640
35752SOL    HW1 9095   2.622   0.645   7.567
35752SOL    HW2 9096   2.549   0.617   7.697
35753SOL     OW 9097   7.928  11.626   5.840
35753SOL    HW1 9098   7.991  11.574   5.789
35753SOL    HW2 9099   7.853  11.637   5.782
35754SOL     OW 9100   0.364   1.134  10.077
35754SOL    HW1 9101   0.345   1.118  10.170
35754SOL    HW2 9102   0.322   1.061  10.032
35755SOL     OW 9103   5.818  14.098   2.270
35755SOL    HW1 9104   5.771  14.018   2.245
35755SOL    HW2 9105   5.837  14.086   2.363
35756SOL     OW 9106   4.001  14.226  12.675
35756SOL    HW1 9107   3.956  14.171  12.610
35756SOL    HW2 9108   4.058  14.283  12.623
35757SOL     OW 9109  11.931  10.578   1.314
35757SOL    HW1 9110  11.910  10.573   1.221
35757SOL    HW2 9111  11.947  10.488   1.341
35758SOL     OW 9112   5.076   5.011  13.889
35758SOL    HW1 9113   5.059   4.928  13.845
35758SOL    HW2 9114   5.146   4.992  13.951
35759SOL     OW 9115   9.310  12.838  14.794
35759SOL    HW1 9116   9.261  12.775  14.847
35759SOL    HW2 9117   9.320  12.795  14.709
35760SOL     OW 9118  12.062   2.689   1.808
35760SOL    HW1 9119  12.049   2.637   1.887
35760SOL    HW2 9120  12.151   2.723   1.817
35761SOL     OW 9121   4.322   4.713   6.532
35761SOL    HW1 9122   4.354   4.634   6.577
35761SOL    HW2 9123   4.284   4.682   6.451
35762SOL     OW 9124  13.313   7.785   0.020
35762SOL    HW1 9125  13.280   7.777  14.806
35762SOL    HW2 9126  13.363   7.867   0.019
35763SOL     OW 9127   5.461  10.447   9.924
35763SOL    HW1 9128   5.495  10.361   9.899
35763SOL    HW2 9129   5.481  10.503   9.849
35764SOL     OW 9130   5.959   6.928   3.358
35764SOL    HW1 9131   6.039   6.946   3.408
35764SOL    HW2 9132   5.889   6.962   3.413
35765SOL     OW 9133   3.030   4.699   0.294
35765SOL    HW1 9134   2.958   4.641   0.268
35765SOL    HW2 9135   3.030   4.697   0.390
35766SOL     OW 9136  10.637   8.400   6.078
35766SOL    HW1 9137  10.646   8.333   6.010
35766SOL    HW2 9138  10.552   8.441   6.060
35767SOL     OW 9139   7.311   9.986   2.959
35767SOL    HW1 9140   7.256  10.047   3.008
35767SOL    HW2 9141   7.296   9.901   3.001
35768SOL     OW 9142   8.614   8.245   7.779
35768SOL    HW1 9143   8.614   8.154   7.811
35768SOL    HW2 9144   8.528   8.279   7.804
35769SOL     OW 9145   8.388   4.474   7.823
35769SOL    HW1 9146   8.454   4.500   7.758
35769SOL    HW2 9147   8.388   4.378   7.820
35770SOL     OW 9148   7.369   3.457   2.547
35770SOL    HW1 9149   7.383   3.442   2.453
35770SOL    HW2 9150   7.299   3.395   2.570
35771SOL     OW 9151   2.087  10.445   2.634
35771SOL    HW1 9152   2.012  10.434   2.576
35771SOL    HW2 9153   2.059  10.511   2.698
35772SOL     OW 9154   1.842   3.196   8.693
35772SOL    HW1 9155   1.871   3.286   8.707
35772SOL    HW2 9156   1.754   3.193   8.733
35773SOL     OW 9157   2.226   1.055   4.805
35773SOL    HW1 9158   2.264   1.061   4.892
35773SOL    HW2 9159   2.151   0.996   4.814
35774SOL     OW 9160  14.179   4.258   8.408
35774SOL    HW1 9161  14.084   4.268   8.405
35774SOL    HW2 9162  14.194   4.164   8.416
35775SOL     OW 9163   3.668   2.732   9.336
35775SOL    HW1 9164   3.676   2.770   9.424
35775SOL    HW2 9165   3.654   2.639   9.352
35776SOL     OW 9166  10.686   8.394   1.322
35776SOL    HW1 9167  10.666   8.322   1.382
35776SOL    HW2 9168  10.696   8.351   1.237
35777SOL     OW 9169  11.011  11.562   4.248
35777SOL    HW1 9170  11.100  11.572   4.215
35777SOL    HW2 9171  10.982  11.651   4.267
35778SOL     OW 9172   1.828   8.095   7.095
35778SOL    HW1 9173   1.864   8.126   7.012
35778SOL    HW2 9174   1.882   8.020   7.118
35779SOL     OW 9175  14.305   7.669  11.927
35779SOL    HW1 9176  14.305   7.721  11.847
35779SOL    HW2 9177  14.328   7.731  11.996
35780SOL     OW 9178  13.625   4.936   2.360
35780SOL    HW1 9179  13.614   4.854   2.311
35780SOL    HW2 9180  13.572   5.000   2.312
35781SOL     OW 9181   1.423   0.663  13.075
35781SOL    HW1 9182   1.475   0.689  13.151
35781SOL    HW2 9183   1.429   0.736  13.015
35782SOL     OW 9184   3.878   5.955  12.317
35782SOL    HW1 9185   3.941   6.027  12.323
35782SOL    HW2 9186   3.804   5.984  12.371
35783SOL     OW 9187   8.696   7.889  12.709
35783SOL    HW1 9188   8.654   7.974  12.727
35783SOL    HW2 9189   8.790   7.909  12.708
35784SOL     OW 9190  13.681   0.587   6.060
35784SOL    HW1 9191  13.705   0.665   6.111
35784SOL    HW2 9192  13.765   0.550   6.031
35785SOL     OW 9193  12.548   6.122   4.882
35785SOL    HW1 9194  12.557   6.084   4.795
35785SOL    HW2 9195  12.620   6.185   4.887
35786SOL     OW 9196  12.554  14.126   4.248
35786SOL    HW1 9197  12.562  14.039   4.285
35786SOL    HW2 9198  12.644  14.157   4.239
35787SOL     OW 9199   2.108   1.024   9.135
35787SOL    HW1 9200   2.124   0.982   9.051
35787SOL    HW2 9201   2.093   1.116   9.114
35788SOL     OW 9202  10.388   2.671   6.254
35788SOL    HW1 9203  10.399   2.582   6.289
35788SOL    HW2 9204  10.359   2.723   6.329
35789SOL     OW 9205   5.911   8.945   1.018
35789SOL    HW1 9206   5.966   8.906   1.086
35789SOL    HW2 9207   5.974   8.981   0.954
35790SOL     OW 9208   2.165  13.522  11.748
35790SOL    HW1 9209   2.246  13.481  11.777
35790SOL    HW2 9210   2.174  13.530  11.653
35791SOL     OW 9211   5.441   3.573   4.519
35791SOL    HW1 9212   5.517   3.599   4.570
35791SOL    HW2 9213   5.477   3.514   4.452
35792SOL     OW 9214   3.361   3.041   6.128
35792SOL    HW1 9215   3.358   3.130   6.093
35792SOL    HW2 9216   3.449   3.010   6.108
35793SOL     OW 9217   3.976   2.311   3.777
35793SOL    HW1 9218   3.898   2.347   3.735
35793SOL    HW2 9219   4.036   2.385   3.783
35794SOL     OW 9220  12.366   2.977   7.310
35794SOL    HW1 9221  12.355   2.949   7.401
35794SOL    HW2 9222  12.452   2.944   7.285
35795SOL     OW 9223  12.696  10.314   1.247
35795SOL    HW1 9224  12.647  10.233   1.261
35795SOL    HW2 9225  12.774  10.287   1.198
35796SOL     OW 9226   1.128   2.235   7.165
35796SOL    HW1 9227   1.063   2.274   7.106
35796SOL    HW2 9228   1.186   2.307   7.188
35797SOL     OW 9229   5.922  13.260   2.489
35797SOL    HW1 9230   5.986  13.224   2.428
35797SOL    HW2 9231   5.921  13.354   2.470
35798SOL     OW 9232  10.671   7.258  11.132
35798SOL    HW1 9233  10.723   7.236  11.209
35798SOL    HW2 9234  10.601   7.192  11.130
35799SOL     OW 9235  14.804   7.691   3.220
35799SOL    HW1 9236  14.773   7.604   3.196
35799SOL    HW2 9237  14.756   7.751   3.162
35800SOL     OW 9238  10.566   2.313  13.621
35800SOL    HW1 9239  10.486   2.316  13.569
35800SOL    HW2 9240  10.550   2.244  13.686
35801SOL     OW 9241   4.615   0.471   6.019
35801SOL    HW1 9242   4.681   0.435   6.078
35801SOL    HW2 9243   4.640   0.438   5.932
35802SOL     OW 9244   2.010   5.883  11.106
35802SOL    HW1 9245   2.053   5.825  11.169
35802SOL    HW2 9246   1.948   5.934  11.159
35803SOL     OW 9247   6.368   4.737   0.350
35803SOL    HW1 9248   6.324   4.653   0.338
35803SOL    HW2 9249   6.416   4.751   0.268
35804SOL     OW 9250   8.957   9.722   8.546
35804SOL    HW1 9251   8.989   9.727   8.456
35804SOL    HW2 9252   9.024   9.672   8.592
35805SOL     OW 9253   0.927   1.872  11.242
35805SOL    HW1 9254   0.965   1.930  11.308
35805SOL    HW2 9255   0.990   1.800  11.235
35806SOL     OW 9256   3.217   0.698   8.485
35806SOL    HW1 9257   3.217   0.782   8.529
35806SOL    HW2 9258   3.299   0.657   8.510
35807SOL     OW 9259  13.688   5.639   5.917
35807SOL    HW1 9260  13.758   5.700   5.897
35807SOL    HW2 9261  13.728   5.575   5.976
35808SOL     OW 9262   1.270  12.404   3.617
35808SOL    HW1 9263   1.319  12.411   3.699
35808SOL    HW2 9264   1.337  12.417   3.549
35809SOL     OW 9265   0.313  13.396   9.490
35809SOL    HW1 9266   0.352  13.416   9.575
35809SOL    HW2 9267   0.219  13.391   9.508
35810SOL     OW 9268   4.673   1.419   4.117
35810SOL    HW1 9269   4.727   1.369   4.177
35810SOL    HW2 9270   4.585   1.382   4.127
35811SOL     OW 9271   4.352  13.842   1.009
35811SOL    HW1 9272   4.432  13.884   0.977
35811SOL    HW2 9273   4.325  13.783   0.939
35812SOL     OW 9274   9.709  14.862  12.549
35812SOL    HW1 9275   9.667  14.777  12.561
35812SOL    HW2 9276   9.754   0.002  12.632
35813SOL     OW 9277   1.309   0.851  10.787
35813SOL    HW1 9278   1.304   0.766  10.830
35813SOL    HW2 9279   1.242   0.848  10.719
35814SOL     OW 9280   8.753   9.874   4.190
35814SOL    HW1 9281   8.755   9.947   4.252
35814SOL    HW2 9282   8.835   9.826   4.206
35815SOL     OW 9283   1.498   2.731   3.684
35815SOL    HW1 9284   1.550   2.797   3.638
35815SOL    HW2 9285   1.538   2.726   3.771
35816SOL     OW 9286   7.052   1.812  12.449
35816SOL    HW1 9287   7.040   1.724  12.413
35816SOL    HW2 9288   7.098   1.860  12.380
35817SOL     OW 9289  14.533   6.613   8.464
35817SOL    HW1 9290  14.570   6.701   8.471
35817SOL    HW2 9291  14.452   6.624   8.414
35818SOL     OW 9292  10.949   4.033   2.967
35818SOL    HW1 9293  10.885   3.963   2.958
35818SOL    HW2 9294  11.002   4.028   2.888
35819SOL     OW 9295   1.387  10.260   7.278
35819SOL    HW1 9296   1.396  10.306   7.194
35819SOL    HW2 9297   1.473  10.269   7.320
35820SOL     OW 9298   2.579   2.016   5.757
35820SOL    HW1 9299   2.668   1.995   5.727
35820SOL    HW2 9300   2.552   1.938   5.806
35821SOL     OW 9301  10.082  14.435   7.977
35821SOL    HW1 9302  10.178  14.426   7.977
35821SOL    HW2 9303  10.050  14.345   7.990
35822SOL     OW 9304   3.249   2.060   8.231
35822SOL    HW1 9305   3.234   2.150   8.260
35822SOL    HW2 9306   3.170   2.039   8.180
35823SOL     OW 9307   5.682   6.321   0.186
35823SOL    HW1 9308   5.601   6.333   0.137
35823SOL    HW2 9309   5.658   6.265   0.260
35824SOL     OW 9310   9.668   9.103   4.536
35824SOL    HW1 9311   9.724   9.041   4.583
35824SOL    HW2 9312   9.722   9.136   4.465
35825SOL     OW 9313  11.805  12.520   8.287
35825SOL    HW1 9314  11.856  12.488   8.362
35825SOL    HW2 9315  11.714  12.507   8.312
35826SOL     OW 9316   6.505   0.752   4.810
35826SOL    HW1 9317   6.489   0.839   4.773
35826SOL    HW2 9318   6.417   0.715   4.822
35827SOL     OW 9319   7.643   5.809  14.632
35827SOL    HW1 9320   7.654   5.715  14.619
35827SOL    HW2 9321   7.717   5.849  14.586
35828SOL     OW 9322   7.663   2.854   5.511
35828SOL    HW1 9323   7.722   2.891   5.576
35828SOL    HW2 9324   7.692   2.891   5.427
35829SOL     OW 9325   9.532   1.335   8.858
35829SOL    HW1 9326   9.476   1.258   8.868
35829SOL    HW2 9327   9.546   1.367   8.947
35830SOL     OW 9328   9.774  12.261   3.405
35830SOL    HW1 9329   9.723  12.278   3.326
35830SOL    HW2 9330   9.810  12.347   3.429
35831SOL     OW 9331   0.441   6.080  13.158
35831SOL    HW1 9332   0.504   6.050  13.224
35831SOL    HW2 9333   0.454   6.175  13.155
35832SOL     OW 9334  11.826   7.082   9.084
35832SOL    HW1 9335  11.750   7.072   9.143
35832SOL    HW2 9336  11.868   6.996   9.086
35833SOL     OW 9337  14.592   4.715   1.834
35833SOL    HW1 9338  14.567   4.702   1.925
35833SOL    HW2 9339  14.530   4.663   1.784
35834SOL     OW 9340  10.671  14.109  10.971
35834SOL    HW1 9341  10.758  14.146  10.961
35834SOL    HW2 9342  10.662  14.048  10.897
35835SOL     OW 9343   7.564   1.794   8.874
35835SOL    HW1 9344   7.571   1.763   8.783
35835SOL    HW2 9345   7.567   1.890   8.867
35836SOL     OW 9346  14.102   6.539   0.043
35836SOL    HW1 9347  14.007   6.532   0.050
35836SOL    HW2 9348  14.135   6.484   0.114
35837SOL     OW 9349   9.271   4.330   2.377
35837SOL    HW1 9350   9.211   4.387   2.425
35837SOL    HW2 9351   9.215   4.281   2.316
35838SOL     OW 9352   8.721  14.415   7.427
35838SOL    HW1 9353   8.687  14.339   7.475
35838SOL    HW2 9354   8.682  14.491   7.472
35839SOL     OW 9355   9.620  12.942   0.826
35839SOL    HW1 9356   9.538  12.909   0.863
35839SOL    HW2 9357   9.594  13.012   0.766
35840SOL     OW 9358   3.327   5.392  13.249
35840SOL    HW1 9359   3.262   5.445  13.294
35840SOL    HW2 9360   3.407   5.402  13.300
35841SOL     OW 9361   7.068   1.296  11.902
35841SOL    HW1 9362   7.069   1.202  11.883
35841SOL    HW2 9363   6.983   1.311  11.942
35842SOL     OW 9364  12.652   2.574   7.871
35842SOL    HW1 9365  12.716   2.503   7.866
35842SOL    HW2 9366  12.705   2.653   7.857
35843SOL     OW 9367   7.124  13.885   1.576
35843SOL    HW1 9368   7.065  13.960   1.571
35843SOL    HW2 9369   7.201  13.919   1.622
35844SOL     OW 9370   1.781  10.483   5.388
35844SOL    HW1 9371   1.827  10.539   5.325
35844SOL    HW2 9372   1.773  10.399   5.344
35845SOL     OW 9373   3.278   1.406   0.376
35845SOL    HW1 9374   3.280   1.397   0.280
35845SOL    HW2 9375   3.215   1.477   0.392
35846SOL     OW 9376   1.748  14.688  10.254
35846SOL    HW1 9377   1.658  14.706  10.227
35846SOL    HW2 9378   1.784  14.635  10.183
35847SOL     OW 9379  11.556   1.082   3.888
35847SOL    HW1 9380  11.558   1.114   3.978
35847SOL    HW2 9381  11.463   1.068   3.870
35848SOL     OW 9382   3.241   4.066   2.583
35848SOL    HW1 9383   3.273   4.156   2.583
35848SOL    HW2 9384   3.146   4.074   2.597
35849SOL     OW 9385   3.309   5.510  11.919
35849SOL    HW1 9386   3.381   5.539  11.975
35849SOL    HW2 9387   3.344   5.433  11.874
35850SOL     OW 9388   3.484  11.892   7.214
35850SOL    HW1 9389   3.395  11.856   7.211
35850SOL    HW2 9390   3.540  11.819   7.188
35851SOL     OW 9391  12.422   8.614   5.624
35851SOL    HW1 9392  12.512   8.643   5.641
35851SOL    HW2 9393  12.416   8.528   5.666
35852SOL     OW 9394  11.878   4.844   5.850
35852SOL    HW1 9395  11.874   4.937   5.873
35852SOL    HW2 9396  11.806   4.805   5.898
35853SOL     OW 9397   4.772   2.310  14.412
35853SOL    HW1 9398   4.852   2.362  14.405
35853SOL    HW2 9399   4.797   2.235  14.467
35854SOL     OW 9400   9.670   5.328   0.189
35854SOL    HW1 9401   9.641   5.405   0.140
35854SOL    HW2 9402   9.677   5.358   0.279
35855SOL     OW 9403   2.286   0.345  12.455
35855SOL    HW1 9404   2.195   0.374  12.459
35855SOL    HW2 9405   2.327   0.383  12.532
35856SOL     OW 9406   2.358  14.330  10.190
35856SOL    HW1 9407   2.308  14.407  10.165
35856SOL    HW2 9408   2.372  14.339  10.284
35857SOL     OW 9409   3.973   9.478   2.852
35857SOL    HW1 9410   3.891   9.496   2.805
35857SOL    HW2 9411   4.039   9.470   2.783
35858SOL     OW 9412   5.117   3.322   1.875
35858SOL    HW1 9413   5.077   3.377   1.943
35858SOL    HW2 9414   5.196   3.287   1.917
35859SOL     OW 9415   9.598   1.968   2.650
35859SOL    HW1 9416   9.691   1.964   2.668
35859SOL    HW2 9417   9.566   2.043   2.700
35860SOL     OW 9418   1.666  13.010   2.439
35860SOL    HW1 9419   1.725  12.936   2.455
35860SOL    HW2 9420   1.722  13.077   2.398
35861SOL     OW 9421   7.421   7.928   4.086
35861SOL    HW1 9422   7.373   7.929   4.168
35861SOL    HW2 9423   7.508   7.895   4.109
35862SOL     OW 9424   8.154   2.107  13.492
35862SOL    HW1 9425   8.067   2.131  13.525
35862SOL    HW2 9426   8.191   2.188  13.459
35863SOL     OW 9427  10.087   7.305   9.444
35863SOL    HW1 9428  10.138   7.257   9.379
35863SOL    HW2 9429   9.997   7.299   9.413
35864SOL     OW 9430  13.864   5.093  14.631
35864SOL    HW1 9431  13.816   5.173  14.609
35864SOL    HW2 9432  13.866   5.044  14.549
35865SOL     OW 9433  11.579   4.647  11.383
35865SOL    HW1 9434  11.498   4.614  11.422
35865SOL    HW2 9435  11.649   4.602  11.430
35866SOL     OW 9436  13.641   3.474  13.243
35866SOL    HW1 9437  13.652   3.381  13.265
35866SOL    HW2 9438  13.729   3.504  13.220
35867SOL     OW 9439  12.575  12.865  12.584
35867SOL    HW1 9440  12.572  12.829  12.673
35867SOL    HW2 9441  12.499  12.827  12.540
35868SOL     OW 9442   0.295  12.258   7.415
35868SOL    HW1 9443   0.367  12.218   7.367
35868SOL    HW2 9444   0.223  12.196   7.405
35869SOL     OW 9445  11.749   6.540   5.174
35869SOL    HW1 9446  11.735   6.447   5.155
35869SOL    HW2 9447  11.732   6.584   5.091
35870SOL     OW 9448   9.318   9.230   2.809
35870SOL    HW1 9449   9.245   9.175   2.837
35870SOL    HW2 9450   9.289   9.319   2.826
35871SOL     OW 9451   2.164  11.269   7.296
35871SOL    HW1 9452   2.173  11.189   7.244
35871SOL    HW2 9453   2.070  11.279   7.308
35872SOL     OW 9454  13.618   7.599   6.196
35872SOL    HW1 9455  13.642   7.654   6.122
35872SOL    HW2 9456  13.697   7.547   6.214
35873SOL     OW 9457   2.192   0.655  10.844
35873SOL    HW1 9458   2.249   0.675  10.770
35873SOL    HW2 9459   2.104   0.676  10.813
35874SOL     OW 9460   9.198  10.018   2.590
35874SOL    HW1 9461   9.222   9.926   2.605
35874SOL    HW2 9462   9.130  10.013   2.522
35875SOL     OW 9463   1.313   3.794   2.228
35875SOL    HW1 9464   1.280   3.708   2.203
35875SOL    HW2 9465   1.401   3.777   2.262
35876SOL     OW 9466   8.420  11.970   3.528
35876SOL    HW1 9467   8.419  12.059   3.564
35876SOL    HW2 9468   8.406  11.913   3.604
35877SOL     OW 9469   1.021   4.710   6.040
35877SOL    HW1 9470   1.101   4.748   6.075
35877SOL    HW2 9471   0.959   4.713   6.112
35878SOL     OW 9472   6.936   7.440   8.714
35878SOL    HW1 9473   7.004   7.432   8.782
35878SOL    HW2 9474   6.929   7.352   8.677
35879SOL     OW 9475   2.414  10.588  10.438
35879SOL    HW1 9476   2.501  10.556  10.414
35879SOL    HW2 9477   2.372  10.608  10.354
35880SOL     OW 9478   0.816   1.996   1.742
35880SOL    HW1 9479   0.874   2.017   1.815
35880SOL    HW2 9480   0.741   2.055   1.755
35881SOL     OW 9481   0.675   4.046   8.273
35881SOL    HW1 9482   0.720   3.997   8.341
35881SOL    HW2 9483   0.723   4.026   8.193
35882SOL     OW 9484  14.318   2.517  14.335
35882SOL    HW1 9485  14.292   2.532  14.245
35882SOL    HW2 9486  14.412   2.537  14.337
35883SOL     OW 9487  11.311  11.111  14.863
35883SOL    HW1 9488  11.367  11.186  14.843
35883SOL    HW2 9489  11.334  11.045  14.797
35884SOL     OW 9490   5.242   2.567  14.329
35884SOL    HW1 9491   5.233   2.656  14.294
35884SOL    HW2 9492   5.336   2.552  14.334
35885SOL     OW 9493  11.900  13.783   8.362
35885SOL    HW1 9494  11.818  13.741   8.339
35885SOL    HW2 9495  11.902  13.782   8.458
35886SOL     OW 9496   8.964   5.691   2.556
35886SOL    HW1 9497   8.941   5.781   2.581
35886SOL    HW2 9498   8.911   5.673   2.479
35887SOL     OW 9499   2.134   6.893  12.781
35887SOL    HW1 9500   2.157   6.843  12.859
35887SOL    HW2 9501   2.179   6.977  12.793
35888SOL     OW 9502  10.752   5.620   3.988
35888SOL    HW1 9503  10.701   5.688   4.032
35888SOL    HW2 9504  10.713   5.537   4.016
35889SOL     OW 9505  11.008   1.062   1.607
35889SOL    HW1 9506  11.079   1.011   1.569
35889SOL    HW2 9507  10.934   1.049   1.548
35890SOL     OW 9508  13.124   4.273   8.480
35890SOL    HW1 9509  13.138   4.353   8.430
35890SOL    HW2 9510  13.035   4.245   8.457
35891SOL     OW 9511  13.256   3.740  11.068
35891SOL    HW1 9512  13.281   3.707  10.982
35891SOL    HW2 9513  13.177   3.791  11.052
35892SOL     OW 9514  11.334   0.267   1.235
35892SOL    HW1 9515  11.317   0.188   1.286
35892SOL    HW2 9516  11.278   0.259   1.158
35893SOL     OW 9517   0.132   1.762  12.704
35893SOL    HW1 9518   0.056   1.753  12.762
35893SOL    HW2 9519   0.166   1.849  12.725
35894SOL     OW 9520   4.085   7.282  11.491
35894SOL    HW1 9521   4.065   7.247  11.577
35894SOL    HW2 9522   4.166   7.332  11.503
35895SOL     OW 9523   3.938   2.220   1.127
35895SOL    HW1 9524   3.947   2.129   1.156
35895SOL    HW2 9525   3.918   2.213   1.034
35896SOL     OW 9526   8.871   8.708  12.048
35896SOL    HW1 9527   8.789   8.757  12.048
35896SOL    HW2 9528   8.849   8.624  12.006
35897SOL     OW 9529   7.652   6.928   7.449
35897SOL    HW1 9530   7.596   7.006   7.443
35897SOL    HW2 9531   7.637   6.881   7.367
35898SOL     OW 9532  14.522   7.996   0.295
35898SOL    HW1 9533  14.578   8.009   0.372
35898SOL    HW2 9534  14.582   8.002   0.221
35899SOL     OW 9535   2.196  11.293   3.968
35899SOL    HW1 9536   2.195  11.296   4.064
35899SOL    HW2 9537   2.188  11.384   3.941
35900SOL     OW 9538  11.675   1.919   4.430
35900SOL    HW1 9539  11.584   1.939   4.407
35900SOL    HW2 9540  11.715   1.892   4.348
35901SOL     OW 9541  12.485  11.725  13.367
35901SOL    HW1 9542  12.576  11.702  13.383
35901SOL    HW2 9543  12.488  11.783  13.291
35902SOL     OW 9544   5.135   8.780   2.110
35902SOL    HW1 9545   5.222   8.751   2.139
35902SOL    HW2 9546   5.074   8.729   2.163
35903SOL     OW 9547  13.790  12.511   1.610
35903SOL    HW1 9548  13.868  12.458   1.625
35903SOL    HW2 9549  13.820  12.582   1.554
35904SOL     OW 9550  13.951  10.373   6.906
35904SOL    HW1 9551  13.980  10.457   6.941
35904SOL    HW2 9552  14.032  10.331   6.875
35905SOL     OW 9553   4.148  10.169   3.276
35905SOL    HW1 9554   4.093  10.129   3.208
35905SOL    HW2 9555   4.237  10.157   3.244
35906SOL     OW 9556   6.306  11.159  11.238
35906SOL    HW1 9557   6.334  11.237  11.191
35906SOL    HW2 9558   6.248  11.114  11.178
35907SOL     OW 9559  13.826  12.307   6.272
35907SOL    HW1 9560  13.838  12.213   6.283
35907SOL    HW2 9561  13.891  12.333   6.207
35908SOL     OW 9562   6.822  13.645   5.517
35908SOL    HW1 9563   6.908  13.662   5.554
35908SOL    HW2 9564   6.795  13.562   5.556
35909SOL     OW 9565   5.090   8.209   8.030
35909SOL    HW1 9566   5.076   8.241   8.119
35909SOL    HW2 9567   5.016   8.243   7.980
35910SOL     OW 9568   5.423   1.658   2.196
35910SOL    HW1 9569   5.361   1.597   2.237
35910SOL    HW2 9570   5.369   1.720   2.149
35911SOL     OW 9571   9.482  12.988   8.393
35911SOL    HW1 9572   9.507  12.987   8.301
35911SOL    HW2 9573   9.408  12.928   8.398
35912SOL     OW 9574  12.761  13.143   4.188
35912SOL    HW1 9575  12.679  13.185   4.164
35912SOL    HW2 9576  12.819  13.215   4.213
35913SOL     OW 9577   9.962   0.289  12.056
35913SOL    HW1 9578   9.995   0.375  12.030
35913SOL    HW2 9579  10.020   0.227  12.013
35914SOL     OW 9580   9.551  14.012  14.462
35914SOL    HW1 9581   9.582  13.923  14.446
35914SOL    HW2 9582   9.546  14.019  14.557
35915SOL     OW 9583   1.448   1.213   3.824
35915SOL    HW1 9584   1.494   1.296   3.813
35915SOL    HW2 9585   1.516   1.146   3.818
35916SOL     OW 9586   2.087   4.590   6.959
35916SOL    HW1 9587   2.058   4.500   6.972
35916SOL    HW2 9588   2.151   4.605   7.029
35917SOL     OW 9589  10.899   4.109   6.476
35917SOL    HW1 9590  10.970   4.157   6.433
35917SOL    HW2 9591  10.819   4.145   6.438
35918SOL     OW 9592  11.240   9.805   7.858
35918SOL    HW1 9593  11.241   9.831   7.766
35918SOL    HW2 9594  11.319   9.752   7.869
35919SOL     OW 9595   1.912  10.053   6.756
35919SOL    HW1 9596   1.987  10.020   6.705
35919SOL    HW2 9597   1.863  10.107   6.694
35920SOL     OW 9598   1.164  11.240  12.048
35920SOL    HW1 9599   1.174  11.288  11.966
35920SOL    HW2 9600   1.233  11.274  12.104
35921SOL     OW 9601  11.405   5.732   6.764
35921SOL    HW1 9602  11.355   5.800   6.718
35921SOL    HW2 9603  11.485   5.778   6.793
35922SOL     OW 9604  13.801   0.033  10.303
35922SOL    HW1 9605  13.715   0.055  10.268
35922SOL    HW2 9606  13.785  14.832  10.357
35923SOL     OW 9607   5.978  13.962   0.442
35923SOL    HW1 9608   5.915  13.947   0.512
35923SOL    HW2 9609   5.928  13.950   0.362
35924SOL     OW 9610   6.583  11.459   0.960
35924SOL    HW1 9611   6.641  11.434   1.032
35924SOL    HW2 9612   6.564  11.551   0.975
35925SOL     OW 9613   0.456   9.647   3.384
35925SOL    HW1 9614   0.504   9.728   3.404
35925SOL    HW2 9615   0.403   9.631   3.462
35926SOL     OW 9616   7.135  10.187   4.368
35926SOL    HW1 9617   7.181  10.108   4.396
35926SOL    HW2 9618   7.142  10.187   4.273
35927SOL     OW 9619  10.164  13.508   0.469
35927SOL    HW1 9620  10.126  13.466   0.546
35927SOL    HW2 9621  10.247  13.462   0.455
35928SOL     OW 9622   2.496   0.734  11.910
35928SOL    HW1 9623   2.442   0.741  11.831
35928SOL    HW2 9624   2.489   0.820  11.951
35929SOL     OW 9625   6.421  12.233  11.435
35929SOL    HW1 9626   6.341  12.228  11.383
35929SOL    HW2 9627   6.392  12.267  11.520
35930SOL     OW 9628   7.577  10.390   0.608
35930SOL    HW1 9629   7.491  10.428   0.623
35930SOL    HW2 9630   7.637  10.465   0.615
35931SOL     OW 9631  11.954   7.145  12.304
35931SOL    HW1 9632  12.001   7.228  12.305
35931SOL    HW2 9633  12.022   7.078  12.314
35932SOL     OW 9634  11.435  14.170   6.751
35932SOL    HW1 9635  11.488  14.247   6.771
35932SOL    HW2 9636  11.499  14.102   6.730
35933SOL     OW 9637  10.503   8.914   7.517
35933SOL    HW1 9638  10.540   8.910   7.430
35933SOL    HW2 9639  10.487   9.007   7.533
35934SOL     OW 9640   0.203   6.229   0.848
35934SOL    HW1 9641   0.296   6.242   0.831
35934SOL    HW2 9642   0.172   6.178   0.774
35935SOL     OW 9643   2.861   1.884   6.429
35935SOL    HW1 9644   2.815   1.816   6.381
35935SOL    HW2 9645   2.808   1.899   6.507
35936SOL     OW 9646   0.849   5.109   4.557
35936SOL    HW1 9647   0.933   5.143   4.526
35936SOL    HW2 9648   0.797   5.100   4.477
35937SOL     OW 9649  12.193   5.478  10.824
35937SOL    HW1 9650  12.108   5.493  10.865
35937SOL    HW2 9651  12.235   5.565  10.823
35938SOL     OW 9652   5.008   6.793  12.392
35938SOL    HW1 9653   4.917   6.764  12.400
35938SOL    HW2 9654   5.002   6.888  12.389
35939SOL     OW 9655  12.464   4.637   6.665
35939SOL    HW1 9656  12.373   4.637   6.694
35939SOL    HW2 9657  12.460   4.672   6.576
35940SOL     OW 9658  12.742  12.608   5.316
35940SOL    HW1 9659  12.812  12.602   5.251
35940SOL    HW2 9660  12.783  12.584   5.399
35941SOL     OW 9661   6.332   0.791   0.168
35941SOL    HW1 9662   6.406   0.816   0.113
35941SOL    HW2 9663   6.349   0.835   0.252
35942SOL     OW 9664   4.984  11.920  13.003
35942SOL    HW1 9665   5.004  11.986  13.069
35942SOL    HW2 9666   5.028  11.950  12.924
35943SOL     OW 9667   6.509   2.259   2.566
35943SOL    HW1 9668   6.470   2.301   2.643
35943SOL    HW2 9669   6.539   2.174   2.598
35944SOL     OW 9670   8.934   5.949   0.189
35944SOL    HW1 9671   8.888   5.865   0.196
35944SOL    HW2 9672   8.997   5.948   0.261
35945SOL     OW 9673  11.804   8.273   5.080
35945SOL    HW1 9674  11.824   8.191   5.034
35945SOL    HW2 9675  11.731   8.251   5.138
35946SOL     OW 9676   1.997   1.924   3.669
35946SOL    HW1 9677   2.005   1.930   3.574
35946SOL    HW2 9678   2.060   1.988   3.703
35947SOL     OW 9679  14.876  12.254   5.846
35947SOL    HW1 9680  14.831  12.210   5.774
35947SOL    HW2 9681   0.019  12.184   5.908
35948SOL     OW 9682   9.561   6.748   5.448
35948SOL    HW1 9683   9.519   6.781   5.369
35948SOL    HW2 9684   9.489   6.714   5.501
35949SOL     OW 9685   4.239   8.140  11.449
35949SOL    HW1 9686   4.304   8.178  11.509
35949SOL    HW2 9687   4.183   8.087  11.506
35950SOL     OW 9688   3.790   7.455   8.705
35950SOL    HW1 9689   3.778   7.370   8.748
35950SOL    HW2 9690   3.723   7.511   8.745
35951SOL     OW 9691  12.419   2.489  12.444
35951SOL    HW1 9692  12.369   2.478  12.525
35951SOL    HW2 9693  12.354   2.481  12.374
35952SOL     OW 9694  11.654   2.626   8.310
35952SOL    HW1 9695  11.685   2.562   8.245
35952SOL    HW2 9696  11.704   2.705   8.291
35953SOL     OW 9697   9.038   8.947   3.721
35953SOL    HW1 9698   9.032   8.899   3.804
35953SOL    HW2 9699   9.079   8.886   3.660
35954SOL     OW 9700  11.237   2.921   7.131
35954SOL    HW1 9701  11.159   2.976   7.130
35954SOL    HW2 9702  11.220   2.858   7.201
35955SOL     OW 9703   3.933   2.793   5.999
35955SOL    HW1 9704   3.953   2.722   5.938
35955SOL    HW2 9705   3.962   2.760   6.084
35956SOL     OW 9706  10.236   5.460   1.801
35956SOL    HW1 9707  10.153   5.501   1.825
35956SOL    HW2 9708  10.286   5.459   1.883
35957SOL     OW 9709   8.720   7.572   3.196
35957SOL    HW1 9710   8.752   7.661   3.181
35957SOL    HW2 9711   8.636   7.583   3.239
35958SOL     OW 9712   0.631   9.989   5.960
35958SOL    HW1 9713   0.561   9.977   5.896
35958SOL    HW2 9714   0.585  10.011   6.042
35959SOL     OW 9715   8.965   0.433  14.447
35959SOL    HW1 9716   9.025   0.417  14.373
35959SOL    HW2 9717   9.011   0.497  14.501
35960SOL     OW 9718  12.750  11.702  13.484
35960SOL    HW1 9719  12.797  11.635  13.533
35960SOL    HW2 9720  12.814  11.736  13.421
35961SOL     OW 9721   7.395  14.437   6.479
35961SOL    HW1 9722   7.401  14.391   6.563
35961SOL    HW2 9723   7.468  14.401   6.428
35962SOL     OW 9724   8.569  11.480   4.245
35962SOL    HW1 9725   8.623  11.445   4.316
35962SOL    HW2 9726   8.624  11.545   4.202
35963SOL     OW 9727   5.158  11.375  11.294
35963SOL    HW1 9728   5.245  11.415  11.283
35963SOL    HW2 9729   5.163  11.332  11.379
35964SOL     OW 9730   8.346  10.978   2.588
35964SOL    HW1 9731   8.321  10.918   2.517
35964SOL    HW2 9732   8.263  11.007   2.625
35965SOL     OW 9733   5.186   5.666   7.302
35965SOL    HW1 9734   5.267   5.706   7.335
35965SOL    HW2 9735   5.148   5.623   7.379
35966SOL     OW 9736  10.643   6.897   4.979
35966SOL    HW1 9737  10.592   6.897   5.060
35966SOL    HW2 9738  10.730   6.927   5.005
35967SOL     OW 9739   7.537  11.285   1.318
35967SOL    HW1 9740   7.563  11.193   1.322
35967SOL    HW2 9741   7.579  11.318   1.238
35968SOL     OW 9742   2.019   2.822  13.344
35968SOL    HW1 9743   2.077   2.842  13.417
35968SOL    HW2 9744   2.060   2.864  13.268
35969SOL     OW 9745   7.776   2.733   6.915
35969SOL    HW1 9746   7.777   2.719   6.820
35969SOL    HW2 9747   7.688   2.705   6.942
35970SOL     OW 9748   2.425   8.513   5.418
35970SOL    HW1 9749   2.466   8.529   5.333
35970SOL    HW2 9750   2.485   8.453   5.462
35971SOL     OW 9751   0.844   4.144  14.775
35971SOL    HW1 9752   0.752   4.148  14.747
35971SOL    HW2 9753   0.888   4.210  14.722
35972SOL     OW 9754  12.771   3.980   3.412
35972SOL    HW1 9755  12.757   3.937   3.496
35972SOL    HW2 9756  12.781   3.909   3.349
35973SOL     OW 9757   2.087   9.288  11.095
35973SOL    HW1 9758   2.117   9.242  11.173
35973SOL    HW2 9759   2.105   9.227  11.023
35974SOL     OW 9760   8.400   9.780   0.932
35974SOL    HW1 9761   8.387   9.708   0.871
35974SOL    HW2 9762   8.362   9.856   0.888
35975SOL     OW 9763  14.312   9.730   4.916
35975SOL    HW1 9764  14.249   9.800   4.899
35975SOL    HW2 9765  14.359   9.718   4.833
35976SOL     OW 9766   9.256   4.206  13.281
35976SOL    HW1 9767   9.219   4.290  13.256
35976SOL    HW2 9768   9.284   4.218  13.372
35977SOL     OW 9769  11.039  11.125  11.041
35977SOL    HW1 9770  10.965  11.096  10.989
35977SOL    HW2 9771  11.051  11.217  11.018
35978SOL     OW 9772  12.380   0.007  12.432
35978SOL    HW1 9773  12.473   0.030  12.442
35978SOL    HW2 9774  12.380  14.817  12.363
35979SOL     OW 9775   0.567   2.417   7.997
35979SOL    HW1 9776   0.478   2.447   7.978
35979SOL    HW2 9777   0.597   2.476   8.067
35980SOL     OW 9778   7.731   3.476   8.442
35980SOL    HW1 9779   7.663   3.529   8.400
35980SOL    HW2 9780   7.787   3.448   8.369
35981SOL     OW 9781   6.165  10.861   5.419
35981SOL    HW1 9782   6.183  10.902   5.503
35981SOL    HW2 9783   6.252  10.850   5.379
35982SOL     OW 9784   9.653   2.780   5.574
35982SOL    HW1 9785   9.637   2.766   5.667
35982SOL    HW2 9786   9.744   2.754   5.561
35983SOL     OW 9787   8.081  11.065   1.520
35983SOL    HW1 9788   8.030  11.145   1.528
35983SOL    HW2 9789   8.127  11.074   1.436
35984SOL     OW 9790  13.007  12.679  11.389
35984SOL    HW1 9791  12.987  12.763  11.431
35984SOL    HW2 9792  12.983  12.613  11.454
35985SOL     OW 9793   3.816   6.624  14.328
35985SOL    HW1 9794   3.862   6.600  14.247
35985SOL    HW2 9795   3.826   6.719  14.334
35986SOL     OW 9796   4.361   5.600  11.800
35986SOL    HW1 9797   4.416   5.534  11.844
35986SOL    HW2 9798   4.305   5.634  11.869
35987SOL     OW 9799   7.233   0.737  14.296
35987SOL    HW1 9800   7.207   0.677  14.225
35987SOL    HW2 9801   7.172   0.811  14.287
35988SOL     OW 9802   9.277  11.828  10.730
35988SOL    HW1 9803   9.330  11.755  10.696
35988SOL    HW2 9804   9.246  11.873  10.652
35989SOL     OW 9805   0.281  11.165  12.848
35989SOL    HW1 9806   0.328  11.210  12.918
35989SOL    HW2 9807   0.332  11.184  12.769
35990SOL     OW 9808   1.476   5.782  13.701
35990SOL    HW1 9809   1.524   5.700  13.706
35990SOL    HW2 9810   1.543   5.850  13.700
35991SOL     OW 9811   9.316   2.110   1.238
35991SOL    HW1 9812   9.246   2.045   1.227
35991SOL    HW2 9813   9.293   2.155   1.320
35992SOL     OW 9814   8.959   9.762   5.907
35992SOL    HW1 9815   8.894   9.742   5.975
35992SOL    HW2 9816   8.957   9.858   5.901
35993SOL     OW 9817  12.768  10.851   7.125
35993SOL    HW1 9818  12.841  10.819   7.179
35993SOL    HW2 9819  12.810  10.911   7.063
35994SOL     OW 9820   6.711   4.204   0.210
35994SOL    HW1 9821   6.675   4.279   0.162
35994SOL    HW2 9822   6.672   4.128   0.168
35995SOL     OW 9823  11.063   8.692   4.862
35995SOL    HW1 9824  11.128   8.649   4.807
35995SOL    HW2 9825  11.086   8.785   4.859
35996SOL     OW 9826   1.885   7.827   9.871
35996SOL    HW1 9827   1.854   7.758   9.930
35996SOL    HW2 9828   1.922   7.780   9.796
35997SOL     OW 9829   5.272   1.289  11.712
35997SOL    HW1 9830   5.326   1.269  11.789
35997SOL    HW2 9831   5.182   1.292  11.746
35998SOL     OW 9832   3.576   7.456  12.792
35998SOL    HW1 9833   3.666   7.457  12.759
35998SOL    HW2 9834   3.581   7.411  12.876
35999SOL     OW 9835   3.354   3.692   4.235
35999SOL    HW1 9836   3.358   3.756   4.306
35999SOL    HW2 9837   3.299   3.622   4.268
36000SOL     OW 9838  14.040  14.764   4.140
36000SOL    HW1 9839  14.110  14.707   4.171
36000SOL    HW2 9840  14.065  14.851   4.169
36001SOL     OW 9841   8.126   0.234  13.009
36001SOL    HW1 9842   8.169   0.149  13.003
36001SOL    HW2 9843   8.032   0.213  13.010
36002SOL     OW 9844   8.831   5.622   2.324
36002SOL    HW1 9845   8.846   5.544   2.270
36002SOL    HW2 9846   8.736   5.631   2.327
36003SOL     OW 9847  13.861  13.034   0.622
36003SOL    HW1 9848  13.843  13.024   0.715
36003SOL    HW2 9849  13.783  12.999   0.578
36004SOL     OW 9850  12.384   1.340  11.908
36004SOL    HW1 9851  12.474   1.352  11.880
36004SOL    HW2 9852  12.382   1.371  11.998
36005SOL     OW 9853   4.803   1.717   9.607
36005SOL    HW1 9854   4.894   1.744   9.592
36005SOL    HW2 9855   4.807   1.663   9.685
36006SOL     OW 9856  14.410   6.231  12.074
36006SOL    HW1 9857  14.381   6.275  11.994
36006SOL    HW2 9858  14.400   6.138  12.055
36007SOL     OW 9859   7.674   1.001   8.479
36007SOL    HW1 9860   7.604   1.037   8.534
36007SOL    HW2 9861   7.750   1.056   8.497
36008SOL     OW 9862   6.526  10.418   1.493
36008SOL    HW1 9863   6.452  10.378   1.539
36008SOL    HW2 9864   6.596  10.354   1.499
36009SOL     OW 9865   5.861   7.684  11.155
36009SOL    HW1 9866   5.784   7.692  11.212
36009SOL    HW2 9867   5.914   7.762  11.174
36010SOL     OW 9868   3.202   1.756   3.753
36010SOL    HW1 9869   3.269   1.765   3.821
36010SOL    HW2 9870   3.140   1.827   3.771
36011SOL     OW 9871   1.497  11.109  13.088
36011SOL    HW1 9872   1.533  11.022  13.071
36011SOL    HW2 9873   1.573  11.163  13.109
36012SOL     OW 9874   0.369   6.947   4.708
36012SOL    HW1 9875   0.318   7.013   4.660
36012SOL    HW2 9876   0.306   6.907   4.768
36013SOL     OW 9877  13.145  13.922  14.115
36013SOL    HW1 9878  13.053  13.895  14.124
36013SOL    HW2 9879  13.193  13.865  14.175
36014SOL     OW 9880   5.086   0.488  11.736
36014SOL    HW1 9881   5.170   0.521  11.704
36014SOL    HW2 9882   5.025   0.504  11.663
36015SOL     OW 9883  10.801   5.896   2.254
36015SOL    HW1 9884  10.893   5.890   2.279
36015SOL    HW2 9885  10.800   5.868   2.162
36016SOL     OW 9886   0.365   4.944   6.142
36016SOL    HW1 9887   0.276   4.910   6.139
36016SOL    HW2 9888   0.357   5.034   6.111
36017SOL     OW 9889   9.155   0.639   5.572
36017SOL    HW1 9890   9.147   0.655   5.478
36017SOL    HW2 9891   9.065   0.627   5.602
36018SOL     OW 9892  12.915   4.539  13.170
36018SOL    HW1 9893  12.821   4.523  13.165
36018SOL    HW2 9894  12.923   4.632  13.189
36019SOL     OW 9895   7.545  10.468  10.422
36019SOL    HW1 9896   7.582  10.382  10.441
36019SOL    HW2 9897   7.599  10.529  10.473
36020SOL     OW 9898  14.111  13.736   9.094
36020SOL    HW1 9899  14.028  13.695   9.070
36020SOL    HW2 9900  14.119  13.810   9.034
36021SOL     OW 9901   6.389   4.556   9.414
36021SOL    HW1 9902   6.394   4.486   9.349
36021SOL    HW2 9903   6.464   4.613   9.394
36022SOL     OW 9904  13.437  14.595  12.024
36022SOL    HW1 9905  13.381  14.612  12.100
36022SOL    HW2 9906  13.522  14.630  12.049
36023SOL     OW 9907  14.591   0.173   9.040
36023SOL    HW1 9908  14.515   0.129   9.003
36023SOL    HW2 9909  14.633   0.216   8.966
36024SOL     OW 9910   5.085   1.253  14.334
36024SOL    HW1 9911   4.995   1.232  14.310
36024SOL    HW2 9912   5.099   1.342  14.302
36025SOL     OW 9913   2.004   1.943  11.185
36025SOL    HW1 9914   2.058   1.972  11.111
36025SOL    HW2 9915   1.963   1.863  11.154
36026SOL     OW 9916   9.088  10.575   0.245
36026SOL    HW1 9917   9.129  10.585   0.331
36026SOL    HW2 9918   9.162  10.569   0.184
36027SOL     OW 9919  13.882   3.317   3.194
36027SOL    HW1 9920  13.940   3.391   3.206
36027SOL    HW2 9921  13.938   3.240   3.204
36028SOL     OW 9922   2.792   8.325   4.492
36028SOL    HW1 9923   2.758   8.246   4.534
36028SOL    HW2 9924   2.870   8.296   4.445
36029SOL     OW 9925  13.881  13.670  14.661
36029SOL    HW1 9926  13.832  13.659  14.580
36029SOL    HW2 9927  13.968  13.700  14.633
36030SOL     OW 9928   8.525   4.208  10.722
36030SOL    HW1 9929   8.497   4.128  10.677
36030SOL    HW2 9930   8.566   4.261  10.653
36031SOL     OW 9931  10.941   5.041   5.529
36031SOL    HW1 9932  10.989   5.019   5.608
36031SOL    HW2 9933  11.002   5.022   5.458
36032SOL     OW 9934   8.844   6.338  14.115
36032SOL    HW1 9935   8.865   6.253  14.077
36032SOL    HW2 9936   8.757   6.327  14.152
36033SOL     OW 9937   5.054   7.809   6.389
36033SOL    HW1 9938   5.065   7.750   6.314
36033SOL    HW2 9939   4.967   7.789   6.422
36034SOL     OW 9940   8.342   8.767   3.917
36034SOL    HW1 9941   8.255   8.767   3.957
36034SOL    HW2 9942   8.393   8.829   3.969
36035SOL     OW 9943   3.169   3.329   9.068
36035SOL    HW1 9944   3.133   3.373   9.145
36035SOL    HW2 9945   3.093   3.314   9.011
36036SOL     OW 9946  10.901  10.737   2.493
36036SOL    HW1 9947  10.959  10.704   2.562
36036SOL    HW2 9948  10.957  10.747   2.417
36037SOL     OW 9949   2.658  12.849   6.478
36037SOL    HW1 9950   2.726  12.792   6.443
36037SOL    HW2 9951   2.645  12.819   6.568
36038SOL     OW 9952  10.623   0.408   2.442
36038SOL    HW1 9953  10.544   0.457   2.466
36038SOL    HW2 9954  10.690   0.476   2.431
36039SOL     OW 9955   4.532  14.827   2.617
36039SOL    HW1 9956   4.499   0.023   2.563
36039SOL    HW2 9957   4.484  14.750   2.586
36040SOL     OW 9958  12.156   2.891   6.039
36040SOL    HW1 9959  12.090   2.823   6.056
36040SOL    HW2 9960  12.219   2.881   6.110
36041SOL     OW 9961  12.794   4.250  10.777
36041SOL    HW1 9962  12.715   4.287  10.739
36041SOL    HW2 9963  12.866   4.290  10.729
36042SOL     OW 9964  12.568  12.313   1.458
36042SOL    HW1 9965  12.498  12.284   1.400
36042SOL    HW2 9966  12.561  12.255   1.534
36043SOL     OW 9967  12.199   9.014  12.788
36043SOL    HW1 9968  12.154   9.003  12.872
36043SOL    HW2 9969  12.291   9.021  12.812
36044SOL     OW 9970   7.575   7.173   2.819
36044SOL    HW1 9971   7.525   7.245   2.857
36044SOL    HW2 9972   7.626   7.138   2.893
36045SOL     OW 9973  14.412   5.900   3.055
36045SOL    HW1 9974  14.351   5.974   3.049
36045SOL    HW2 9975  14.493   5.933   3.017
36046SOL     OW 9976   8.828  13.812  14.244
36046SOL    HW1 9977   8.766  13.808  14.316
36046SOL    HW2 9978   8.907  13.771  14.278
36047SOL     OW 9979  13.677  14.277   7.836
36047SOL    HW1 9980  13.704  14.198   7.788
36047SOL    HW2 9981  13.733  14.346   7.801
36048SOL     OW 9982  14.846   8.256   2.253
36048SOL    HW1 9983  14.875   8.239   2.343
36048SOL    HW2 9984  14.852   8.351   2.244
36049SOL     OW 9985   8.705   9.189  12.537
36049SOL    HW1 9986   8.761   9.246  12.485
36049SOL    HW2 9987   8.702   9.230  12.623
36050SOL     OW 9988  13.599   3.959   5.986
36050SOL    HW1 9989  13.616   3.873   6.025
36050SOL    HW2 9990  13.558   4.010   6.055
36051SOL     OW 9991   1.023   0.206  13.488
36051SOL    HW1 9992   0.969   0.279  13.461
36051SOL    HW2 9993   1.084   0.192  13.415
36052SOL     OW 9994   2.133   9.183  11.335
36052SOL    HW1 9995   2.115   9.269  11.371
36052SOL    HW2 9996   2.056   9.131  11.357
36053SOL     OW 9997   8.735   5.009   1.109
36053SOL    HW1 9998   8.703   5.059   1.035
36053SOL    HW2 9999   8.773   5.075   1.168
36054SOL     OW10000   9.656   5.034   4.118
36054SOL    HW110001   9.639   5.127   4.099
36054SOL    HW210002   9.582   4.988   4.079
36055SOL     OW10003   0.396   1.647  14.511
36055SOL    HW110004   0.411   1.614  14.422
36055SOL    HW210005   0.464   1.604  14.563
36056SOL     OW10006  11.066   8.289   0.259
36056SOL    HW110007  11.141   8.280   0.201
36056SOL    HW210008  10.992   8.302   0.201
36057SOL     OW10009   1.513   2.331   3.199
36057SOL    HW110010   1.423   2.313   3.173
36057SOL    HW210011   1.507   2.356   3.291
36058SOL     OW10012   6.054  10.557   9.498
36058SOL    HW110013   6.141  10.521   9.482
36058SOL    HW210014   6.043  10.553   9.593
36059SOL     OW10015  11.151   0.245  11.960
36059SOL    HW110016  11.163   0.162  12.005
36059SOL    HW210017  11.057   0.261  11.964
36060SOL     OW10018  12.545   5.548  11.344
36060SOL    HW110019  12.532   5.457  11.370
36060SOL    HW210020  12.457   5.580  11.326
36061SOL     OW10021   3.314   7.699   5.718
36061SOL    HW110022   3.385   7.697   5.782
36061SOL    HW210023   3.356   7.682   5.634
36062SOL     OW10024  10.240  14.389   5.243
36062SOL    HW110025  10.258  14.468   5.191
36062SOL    HW210026  10.326  14.361   5.274
36063SOL     OW10027   5.872  13.069   2.908
36063SOL    HW110028   5.830  13.154   2.896
36063SOL    HW210029   5.803  13.006   2.887
36064SOL     OW10030  12.703  10.149   2.625
36064SOL    HW110031  12.648  10.079   2.657
36064SOL    HW210032  12.784  10.106   2.596
36065SOL     OW10033  11.856  10.115   0.915
36065SOL    HW110034  11.843  10.111   1.010
36065SOL    HW210035  11.873  10.024   0.889
36066SOL     OW10036   0.563   0.716   0.916
36066SOL    HW110037   0.500   0.654   0.953
36066SOL    HW210038   0.645   0.668   0.912
36067SOL     OW10039   5.812   1.363   9.502
36067SOL    HW110040   5.842   1.393   9.588
36067SOL    HW210041   5.854   1.421   9.439
36068SOL     OW10042   9.119   5.536   9.695
36068SOL    HW110043   9.132   5.631   9.698
36068SOL    HW210044   9.150   5.510   9.608
36069SOL     OW10045   8.655  13.593  11.568
36069SOL    HW110046   8.619  13.670  11.613
36069SOL    HW210047   8.582  13.558  11.518
36070SOL     OW10048   7.576  11.928   5.703
36070SOL    HW110049   7.531  11.858   5.655
36070SOL    HW210050   7.544  11.920   5.793
36071SOL     OW10051   7.621   8.283  11.784
36071SOL    HW110052   7.609   8.189  11.788
36071SOL    HW210053   7.546   8.319  11.832
36072SOL     OW10054   0.739   1.038  14.753
36072SOL    HW110055   0.672   0.971  14.735
36072SOL    HW210056   0.758   1.076  14.667
36073SOL     OW10057   7.760   2.493   2.367
36073SOL    HW110058   7.674   2.454   2.347
36073SOL    HW210059   7.743   2.551   2.441
36074SOL     OW10060   4.162   5.899   3.788
36074SOL    HW110061   4.149   5.860   3.875
36074SOL    HW210062   4.256   5.888   3.771
36075SOL     OW10063   4.776   3.732   9.935
36075SOL    HW110064   4.807   3.746   9.846
36075SOL    HW210065   4.692   3.686   9.924
36076SOL     OW10066   3.431   9.663   4.530
36076SOL    HW110067   3.485   9.693   4.458
36076SOL    HW210068   3.411   9.742   4.580
36077SOL     OW10069   8.674   2.060   0.852
36077SOL    HW110070   8.686   2.068   0.758
36077SOL    HW210071   8.751   2.012   0.882
36078SOL     OW10072   7.546   9.762  11.107
36078SOL    HW110073   7.610   9.834  11.105
36078SOL    HW210074   7.464   9.802  11.079
36079SOL     OW10075   5.533   2.978  10.247
36079SOL    HW110076   5.600   3.043  10.227
36079SOL    HW210077   5.452   3.028  10.257
36080SOL     OW10078   2.504   8.088  11.762
36080SOL    HW110079   2.561   8.157  11.796
36080SOL    HW210080   2.435   8.134  11.716
36081SOL     OW10081   4.286   0.214  11.993
36081SOL    HW110082   4.315   0.277  12.059
36081SOL    HW210083   4.257   0.138  12.044
36082SOL     OW10084  13.582   4.596   8.272
36082SOL    HW110085  13.579   4.530   8.203
36082SOL    HW210086  13.635   4.667   8.235
36083SOL     OW10087   2.038   8.350  11.031
36083SOL    HW110088   2.015   8.262  11.002
36083SOL    HW210089   1.981   8.365  11.107
36084SOL     OW10090   5.277  11.196   3.208
36084SOL    HW110091   5.365  11.161   3.193
36084SOL    HW210092   5.219  11.120   3.201
36085SOL     OW10093  11.358  14.648   6.808
36085SOL    HW110094  11.340  14.556   6.827
36085SOL    HW210095  11.432  14.646   6.748
36086SOL     OW10096  12.197  12.817   9.480
36086SOL    HW110097  12.228  12.739   9.434
36086SOL    HW210098  12.123  12.786   9.532
36087SOL     OW10099  14.621  11.499   0.501
36087SOL    HW110100  14.557  11.536   0.440
36087SOL    HW210101  14.624  11.406   0.478
36088SOL     OW10102   9.026  12.333   0.157
36088SOL    HW110103   9.089  12.354   0.226
36088SOL    HW210104   9.071  12.269   0.102
36089SOL     OW10105  12.831   2.041   1.641
36089SOL    HW110106  12.877   2.013   1.721
36089SOL    HW210107  12.892   2.020   1.570
36090SOL     OW10108  12.435   5.971  11.185
36090SOL    HW110109  12.527   5.994  11.171
36090SOL    HW210110  12.434   5.927  11.271
36091SOL     OW10111   8.257   5.364   9.527
36091SOL    HW110112   8.166   5.337   9.520
36091SOL    HW210113   8.306   5.294   9.484
36092SOL     OW10114  13.327   0.005   1.044
36092SOL    HW110115  13.419  14.859   1.057
36092SOL    HW210116  13.290  14.806   0.998
36093SOL     OW10117   7.536  11.376   5.239
36093SOL    HW110118   7.454  11.425   5.249
36093SOL    HW210119   7.513  11.303   5.182
36094SOL     OW10120   2.991   6.782   6.581
36094SOL    HW110121   2.974   6.731   6.661
36094SOL    HW210122   2.952   6.730   6.511
36095SOL     OW10123   4.810  14.644   9.284
36095SOL    HW110124   4.748  14.704   9.325
36095SOL    HW210125   4.775  14.630   9.196
36096SOL     OW10126   6.171  13.520   6.408
36096SOL    HW110127   6.150  13.598   6.357
36096SOL    HW210128   6.105  13.456   6.384
36097SOL     OW10129   1.310   9.115  13.261
36097SOL    HW110130   1.358   9.153  13.188
36097SOL    HW210131   1.282   9.029  13.230
36098SOL     OW10132   1.312   1.097   0.949
36098SOL    HW110133   1.290   1.020   1.000
36098SOL    HW210134   1.273   1.082   0.863
36099SOL     OW10135   3.893   5.524   6.827
36099SOL    HW110136   3.950   5.588   6.785
36099SOL    HW210137   3.813   5.573   6.846
36100SOL     OW10138   9.772  14.468  10.302
36100SOL    HW110139   9.704  14.412  10.265
36100SOL    HW210140   9.733  14.556  10.301
36101SOL     OW10141   2.051   4.742   4.257
36101SOL    HW110142   2.031   4.649   4.248
36101SOL    HW210143   1.975   4.779   4.302
36102SOL     OW10144   3.255   6.876  12.084
36102SOL    HW110145   3.186   6.810  12.083
36102SOL    HW210146   3.288   6.875  12.174
36103SOL     OW10147   1.584   7.987   9.236
36103SOL    HW110148   1.505   7.933   9.237
36103SOL    HW210149   1.599   8.009   9.328
36104SOL     OW10150   9.639   4.470   0.674
36104SOL    HW110151   9.661   4.549   0.625
36104SOL    HW210152   9.621   4.405   0.606
36105SOL     OW10153  12.119  10.230  14.646
36105SOL    HW110154  12.074  10.292  14.590
36105SOL    HW210155  12.183  10.187  14.589
36106SOL     OW10156   5.740   4.090  13.220
36106SOL    HW110157   5.705   4.055  13.302
36106SOL    HW210158   5.681   4.161  13.196
36107SOL     OW10159  13.275   9.924   6.747
36107SOL    HW110160  13.274   9.844   6.800
36107SOL    HW210161  13.335   9.982   6.793
36108SOL     OW10162   3.167   6.415  14.539
36108SOL    HW110163   3.119   6.333  14.531
36108SOL    HW210164   3.099   6.483  14.539
36109SOL     OW10165   9.711  10.793  14.738
36109SOL    HW110166   9.787  10.803  14.681
36109SOL    HW210167   9.721  10.707  14.779
36110SOL     OW10168  13.903   3.979  10.283
36110SOL    HW110169  13.898   4.025  10.367
36110SOL    HW210170  13.950   4.039  10.225
36111SOL     OW10171   2.583  13.165  14.042
36111SOL    HW110172   2.600  13.111  13.965
36111SOL    HW210173   2.662  13.218  14.052
36112SOL     OW10174   2.759   7.095  14.554
36112SOL    HW110175   2.700   7.162  14.521
36112SOL    HW210176   2.702   7.022  14.578
36113SOL     OW10177   0.723  11.430   1.357
36113SOL    HW110178   0.691  11.411   1.269
36113SOL    HW210179   0.706  11.523   1.370
36114SOL     OW10180  10.748   5.113   1.731
36114SOL    HW110181  10.656   5.088   1.738
36114SOL    HW210182  10.795   5.031   1.720
36115SOL     OW10183  11.483  11.876   2.477
36115SOL    HW110184  11.412  11.907   2.422
36115SOL    HW210185  11.479  11.780   2.470
36116SOL     OW10186   0.858   9.232   0.975
36116SOL    HW110187   0.907   9.208   0.897
36116SOL    HW210188   0.904   9.188   1.047
36117SOL     OW10189   8.475   0.283   9.657
36117SOL    HW110190   8.443   0.317   9.574
36117SOL    HW210191   8.461   0.189   9.652
36118SOL     OW10192   7.351   6.819  12.106
36118SOL    HW110193   7.339   6.865  12.023
36118SOL    HW210194   7.378   6.887  12.167
36119SOL     OW10195   1.093   0.939  14.171
36119SOL    HW110196   1.049   1.006  14.224
36119SOL    HW210197   1.147   0.988  14.110
36120SOL     OW10198  12.215   0.569   5.610
36120SOL    HW110199  12.223   0.510   5.536
36120SOL    HW210200  12.123   0.562   5.638
36121SOL     OW10201  10.311   7.878  12.147
36121SOL    HW110202  10.317   7.800  12.091
36121SOL    HW210203  10.401   7.912  12.151
36122SOL     OW10204   9.935   5.035   4.524
36122SOL    HW110205   9.841   5.016   4.532
36122SOL    HW210206   9.963   5.055   4.613
36123SOL     OW10207   9.590  14.020  10.873
36123SOL    HW110208   9.622  14.065  10.795
36123SOL    HW210209   9.497  14.007  10.857
36124SOL     OW10210  14.244  10.555   2.514
36124SOL    HW110211  14.152  10.572   2.533
36124SOL    HW210212  14.267  10.482   2.571
36125SOL     OW10213  12.435   4.204   8.588
36125SOL    HW110214  12.409   4.131   8.530
36125SOL    HW210215  12.474   4.161   8.664
36126SOL     OW10216  11.008   0.936   1.854
36126SOL    HW110217  11.007   0.848   1.818
36126SOL    HW210218  11.008   0.994   1.778
36127SOL     OW10219   1.635  12.525  11.726
36127SOL    HW110220   1.580  12.518  11.803
36127SOL    HW210221   1.724  12.535  11.760
36128SOL     OW10222   4.317   3.561   6.376
36128SOL    HW110223   4.325   3.526   6.287
36128SOL    HW210224   4.333   3.655   6.365
36129SOL     OW10225   1.677   4.381  10.661
36129SOL    HW110226   1.728   4.408  10.584
36129SOL    HW210227   1.690   4.287  10.666
36130SOL     OW10228  10.813   8.112   1.555
36130SOL    HW110229  10.743   8.088   1.495
36130SOL    HW210230  10.771   8.167   1.621
36131SOL     OW10231   5.387   2.780   5.187
36131SOL    HW110232   5.417   2.709   5.130
36131SOL    HW210233   5.465   2.807   5.235
36132SOL     OW10234  12.893   7.289   5.477
36132SOL    HW110235  12.807   7.309   5.441
36132SOL    HW210236  12.910   7.360   5.540
36133SOL     OW10237   3.540   9.990   1.251
36133SOL    HW110238   3.463   9.944   1.285
36133SOL    HW210239   3.614   9.948   1.297
36134SOL     OW10240   8.384   9.959   4.453
36134SOL    HW110241   8.385  10.016   4.376
36134SOL    HW210242   8.432   9.880   4.426
36135SOL     OW10243  10.287   0.346   9.809
36135SOL    HW110244  10.366   0.364   9.859
36135SOL    HW210245  10.247   0.270   9.851
36136SOL     OW10246  10.895   4.123  13.214
36136SOL    HW110247  10.803   4.097  13.213
36136SOL    HW210248  10.896   4.210  13.175
36137SOL     OW10249   7.872   7.147   8.180
36137SOL    HW110250   7.835   7.198   8.108
36137SOL    HW210251   7.919   7.076   8.136
36138SOL     OW10252   1.822   4.998  10.010
36138SOL    HW110253   1.747   4.956   9.968
36138SOL    HW210254   1.895   4.982   9.950
36139SOL     OW10255   0.486  13.175  13.483
36139SOL    HW110256   0.511  13.146  13.571
36139SOL    HW210257   0.530  13.114  13.424
36140SOL     OW10258   0.493   4.582  14.134
36140SOL    HW110259   0.443   4.579  14.052
36140SOL    HW210260   0.487   4.673  14.163
36141SOL     OW10261  14.167   2.539   9.263
36141SOL    HW110262  14.095   2.475   9.270
36141SOL    HW210263  14.127   2.615   9.221
36142SOL     OW10264   6.610  11.906   7.589
36142SOL    HW110265   6.634  11.997   7.573
36142SOL    HW210266   6.623  11.863   7.505
36143SOL     OW10267  13.598   2.881  10.042
36143SOL    HW110268  13.510   2.887  10.004
36143SOL    HW210269  13.589   2.922  10.128
36144SOL     OW10270   4.251   4.433   3.441
36144SOL    HW110271   4.291   4.495   3.380
36144SOL    HW210272   4.294   4.350   3.423
36145SOL     OW10273  12.787   8.601   7.628
36145SOL    HW110274  12.864   8.626   7.679
36145SOL    HW210275  12.713   8.634   7.679
36146SOL     OW10276   6.521  10.411   4.754
36146SOL    HW110277   6.504  10.328   4.709
36146SOL    HW210278   6.579  10.459   4.695
36147SOL     OW10279  10.572   0.291  11.160
36147SOL    HW110280  10.651   0.339  11.134
36147SOL    HW210281  10.579   0.207  11.115
36148SOL     OW10282   4.748   6.659  11.973
36148SOL    HW110283   4.773   6.607  12.049
36148SOL    HW210284   4.821   6.649  11.912
36149SOL     OW10285  13.629  14.588   8.204
36149SOL    HW110286  13.717  14.595   8.240
36149SOL    HW210287  13.598  14.501   8.230
36150SOL     OW10288   8.567   6.431  11.112
36150SOL    HW110289   8.652   6.475  11.106
36150SOL    HW210290   8.574   6.376  11.190
36151SOL     OW10291   6.398   5.037  14.038
36151SOL    HW110292   6.362   4.949  14.051
36151SOL    HW210293   6.473   5.023  13.980
36152SOL     OW10294   9.159  11.812   8.085
36152SOL    HW110295   9.219  11.744   8.114
36152SOL    HW210296   9.096  11.767   8.029
36153SOL     OW10297   8.007   6.758   8.352
36153SOL    HW110298   8.062   6.809   8.412
36153SOL    HW210299   8.034   6.786   8.265
36154SOL     OW10300   1.761   7.428   6.580
36154SOL    HW110301   1.846   7.470   6.596
36154SOL    HW210302   1.751   7.367   6.653
36155SOL     OW10303  11.187   3.961   1.257
36155SOL    HW110304  11.186   3.870   1.227
36155SOL    HW210305  11.156   4.012   1.182
36156SOL     OW10306   7.626   9.047  11.639
36156SOL    HW110307   7.625   9.018  11.548
36156SOL    HW210308   7.534   9.046  11.665
36157SOL     OW10309   0.863  13.858   6.383
36157SOL    HW110310   0.915  13.827   6.457
36157SOL    HW210311   0.901  13.942   6.359
36158SOL     OW10312   3.884   1.694   5.461
36158SOL    HW110313   3.836   1.612   5.474
36158SOL    HW210314   3.820   1.763   5.479
36159SOL     OW10315   8.873  13.022  14.266
36159SOL    HW110316   8.823  13.024  14.348
36159SOL    HW210317   8.912  13.109  14.259
36160SOL     OW10318   1.798   9.264  11.729
36160SOL    HW110319   1.802   9.322  11.804
36160SOL    HW210320   1.879   9.213  11.734
36161SOL     OW10321   7.392  12.246  11.989
36161SOL    HW110322   7.422  12.337  11.992
36161SOL    HW210323   7.297  12.251  11.993
36162SOL     OW10324   3.394   8.789   8.919
36162SOL    HW110325   3.371   8.699   8.898
36162SOL    HW210326   3.464   8.811   8.857
36163SOL     OW10327  11.726  13.365   1.787
36163SOL    HW110328  11.741  13.405   1.701
36163SOL    HW210329  11.631  13.359   1.794
36164SOL     OW10330  10.285   1.991   3.101
36164SOL    HW110331  10.190   1.996   3.090
36164SOL    HW210332  10.307   1.900   3.083
36165SOL     OW10333  11.731  10.987   2.699
36165SOL    HW110334  11.750  10.894   2.714
36165SOL    HW210335  11.667  10.987   2.628
36166SOL     OW10336   9.151   5.288  14.261
36166SOL    HW110337   9.125   5.199  14.238
36166SOL    HW210338   9.138   5.339  14.181
36167SOL     OW10339   0.608   0.196   6.745
36167SOL    HW110340   0.653   0.116   6.775
36167SOL    HW210341   0.522   0.166   6.718
36168SOL     OW10342   3.948  11.843   2.571
36168SOL    HW110343   3.982  11.912   2.514
36168SOL    HW210344   3.856  11.834   2.545
36169SOL     OW10345   3.261  14.658   2.473
36169SOL    HW110346   3.249  14.578   2.421
36169SOL    HW210347   3.182  14.663   2.527
36170SOL     OW10348   8.928  12.465   9.524
36170SOL    HW110349   8.871  12.540   9.508
36170SOL    HW210350   9.005  12.481   9.470
36171SOL     OW10351  10.923   5.301  12.878
36171SOL    HW110352  10.968   5.343  12.804
36171SOL    HW210353  10.894   5.374  12.933
36172SOL     OW10354  11.821   0.563  13.925
36172SOL    HW110355  11.768   0.540  14.001
36172SOL    HW210356  11.770   0.533  13.850
36173SOL     OW10357  14.020   4.590  11.868
36173SOL    HW110358  14.032   4.606  11.961
36173SOL    HW210359  13.958   4.517  11.864
36174SOL     OW10360  12.269  13.986   0.131
36174SOL    HW110361  12.319  13.946   0.202
36174SOL    HW210362  12.313  14.070   0.115
36175SOL     OW10363   5.384  13.133  13.900
36175SOL    HW110364   5.390  13.095  13.988
36175SOL    HW210365   5.395  13.059  13.841
36176SOL     OW10366   0.967  12.421   9.005
36176SOL    HW110367   0.923  12.459   9.082
36176SOL    HW210368   0.912  12.346   8.982
36177SOL     OW10369  10.502   4.092   6.839
36177SOL    HW110370  10.468   4.112   6.752
36177SOL    HW210371  10.579   4.149   6.849
36178SOL     OW10372  13.803   4.911  13.205
36178SOL    HW110373  13.879   4.854  13.214
36178SOL    HW210374  13.732   4.851  13.181
36179SOL     OW10375   2.459   6.701   1.672
36179SOL    HW110376   2.518   6.678   1.601
36179SOL    HW210377   2.419   6.784   1.645
36180SOL     OW10378  10.054   9.385  11.349
36180SOL    HW110379  10.016   9.472  11.339
36180SOL    HW210380   9.988   9.325  11.315
36181SOL     OW10381   7.029  14.015   2.413
36181SOL    HW110382   7.008  13.943   2.472
36181SOL    HW210383   7.028  13.976   2.325
36182SOL     OW10384   6.213   8.261  13.967
36182SOL    HW110385   6.225   8.244  14.060
36182SOL    HW210386   6.173   8.348  13.963
36183SOL     OW10387   3.503   2.394   1.932
36183SOL    HW110388   3.474   2.352   1.851
36183SOL    HW210389   3.435   2.458   1.952
36184SOL     OW10390   7.228   3.925  11.064
36184SOL    HW110391   7.277   3.894  11.141
36184SOL    HW210392   7.192   3.846  11.024
36185SOL     OW10393   3.057   7.683   7.291
36185SOL    HW110394   3.105   7.609   7.328
36185SOL    HW210395   2.977   7.644   7.255
36186SOL     OW10396   0.153   8.870  13.672
36186SOL    HW110397   0.201   8.912  13.744
36186SOL    HW210398   0.072   8.839  13.712
36187SOL     OW10399  10.788  12.954   1.809
36187SOL    HW110400  10.703  12.971   1.771
36187SOL    HW210401  10.769  12.927   1.899
36188SOL     OW10402  11.950   9.080   5.984
36188SOL    HW110403  11.991   9.094   6.070
36188SOL    HW210404  11.862   9.116   5.994
36189SOL     OW10405   7.234   9.551   5.331
36189SOL    HW110406   7.327   9.543   5.313
36189SOL    HW210407   7.198   9.597   5.255
36190SOL     OW10408   9.216  14.118  12.587
36190SOL    HW110409   9.201  14.082  12.499
36190SOL    HW210410   9.286  14.182  12.575
36191SOL     OW10411   6.300  13.464   4.811
36191SOL    HW110412   6.390  13.440   4.791
36191SOL    HW210413   6.248  13.421   4.744
36192SOL     OW10414  10.689   1.678   9.890
36192SOL    HW110415  10.749   1.608   9.863
36192SOL    HW210416  10.617   1.632   9.934
36193SOL     OW10417   3.653   0.958   2.515
36193SOL    HW110418   3.661   0.884   2.455
36193SOL    HW210419   3.743   0.992   2.522
36194SOL     OW10420  12.871   6.146   8.974
36194SOL    HW110421  12.944   6.190   8.930
36194SOL    HW210422  12.857   6.066   8.924
36195SOL     OW10423   2.132   6.488  13.296
36195SOL    HW110424   2.145   6.421  13.363
36195SOL    HW210425   2.124   6.570  13.345
36196SOL     OW10426   9.486   6.789   0.492
36196SOL    HW110427   9.502   6.868   0.544
36196SOL    HW210428   9.538   6.721   0.535
36197SOL     OW10429  14.616   0.904  13.948
36197SOL    HW110430  14.540   0.869  13.995
36197SOL    HW210431  14.603   0.878  13.857
36198SOL     OW10432   5.119   0.134   0.179
36198SOL    HW110433   5.031   0.127   0.216
36198SOL    HW210434   5.138   0.228   0.183
36199SOL     OW10435  12.456   4.845  13.482
36199SOL    HW110436  12.506   4.926  13.492
36199SOL    HW210437  12.518   4.783  13.445
36200SOL     OW10438  12.488   9.035   3.576
36200SOL    HW110439  12.547   8.963   3.557
36200SOL    HW210440  12.426   8.999   3.640
36201SOL     OW10441  11.527  11.185   2.223
36201SOL    HW110442  11.491  11.229   2.300
36201SOL    HW210443  11.471  11.213   2.151
36202SOL     OW10444  12.815  12.152  14.386
36202SOL    HW110445  12.862  12.156  14.304
36202SOL    HW210446  12.764  12.071  14.381
36203SOL     OW10447   1.864   6.136   6.098
36203SOL    HW110448   1.828   6.223   6.078
36203SOL    HW210449   1.793   6.092   6.146
36204SOL     OW10450   7.140  14.029   9.264
36204SOL    HW110451   7.098  14.003   9.182
36204SOL    HW210452   7.192  14.106   9.241
36205SOL     OW10453   8.546   1.893   1.356
36205SOL    HW110454   8.608   1.923   1.422
36205SOL    HW210455   8.461   1.925   1.386
36206SOL     OW10456   0.146   5.026   4.163
36206SOL    HW110457   0.066   4.980   4.187
36206SOL    HW210458   0.135   5.114   4.200
36207SOL     OW10459   3.828   7.615   6.665
36207SOL    HW110460   3.755   7.559   6.637
36207SOL    HW210461   3.786   7.682   6.720
36208SOL     OW10462   2.490   2.829   3.856
36208SOL    HW110463   2.511   2.778   3.778
36208SOL    HW210464   2.519   2.918   3.836
36209SOL     OW10465   0.203  10.459   9.213
36209SOL    HW110466   0.261  10.418   9.149
36209SOL    HW210467   0.148  10.518   9.161
36210SOL     OW10468   6.770   6.795  14.708
36210SOL    HW110469   6.863   6.785  14.730
36210SOL    HW210470   6.768   6.795  14.612
36211SOL     OW10471  12.563  14.304   1.643
36211SOL    HW110472  12.579  14.285   1.550
36211SOL    HW210473  12.644  14.279   1.687
36212SOL     OW10474   7.819   6.974   4.996
36212SOL    HW110475   7.854   6.966   4.907
36212SOL    HW210476   7.827   6.885   5.032
36213SOL     OW10477  11.245   8.066   6.219
36213SOL    HW110478  11.192   8.120   6.161
36213SOL    HW210479  11.273   7.992   6.164
36214SOL     OW10480   2.285  13.429   0.429
36214SOL    HW110481   2.239  13.388   0.357
36214SOL    HW210482   2.334  13.358   0.471
36215SOL     OW10483   1.642   0.407   8.632
36215SOL    HW110484   1.574   0.387   8.567
36215SOL    HW210485   1.723   0.410   8.581
36216SOL     OW10486  12.676  11.236   3.496
36216SOL    HW110487  12.592  11.226   3.541
36216SOL    HW210488  12.736  11.268   3.563
36217SOL     OW10489  11.636   1.149  14.390
36217SOL    HW110490  11.681   1.093  14.327
36217SOL    HW210491  11.565   1.190  14.340
36218SOL     OW10492   7.676  14.521   6.066
36218SOL    HW110493   7.745  14.457   6.086
36218SOL    HW210494   7.598  14.486   6.107
36219SOL     OW10495   8.824   5.024   6.108
36219SOL    HW110496   8.782   5.102   6.145
36219SOL    HW210497   8.817   5.036   6.013
36220SOL     OW10498   9.585   7.086  11.578
36220SOL    HW110499   9.523   7.151  11.544
36220SOL    HW210500   9.530   7.014  11.609
36221SOL     OW10501  14.214   1.212   5.070
36221SOL    HW110502  14.298   1.197   5.113
36221SOL    HW210503  14.213   1.306   5.052
36222SOL     OW10504   5.983  11.483   7.136
36222SOL    HW110505   6.029  11.429   7.071
36222SOL    HW210506   5.920  11.424   7.176
36223SOL     OW10507  13.061   7.120  14.539
36223SOL    HW110508  13.074   7.182  14.467
36223SOL    HW210509  12.967   7.118  14.552
36224SOL     OW10510  11.040   3.117  14.692
36224SOL    HW110511  11.111   3.106  14.628
36224SOL    HW210512  10.973   3.167  14.645
36225SOL     OW10513   5.188   8.701   6.407
36225SOL    HW110514   5.175   8.646   6.329
36225SOL    HW210515   5.166   8.644   6.481
36226SOL     OW10516  13.077   2.458   1.338
36226SOL    HW110517  13.113   2.470   1.426
36226SOL    HW210518  13.052   2.366   1.333
36227SOL     OW10519  11.968   4.999  14.614
36227SOL    HW110520  12.017   5.045  14.682
36227SOL    HW210521  11.879   4.994  14.649
36228SOL     OW10522   9.930   0.735   7.803
36228SOL    HW110523   9.923   0.816   7.853
36228SOL    HW210524   9.906   0.666   7.865
36229SOL     OW10525  14.064  13.574  13.839
36229SOL    HW110526  14.063  13.497  13.782
36229SOL    HW210527  14.155  13.604  13.836
36230SOL     OW10528  14.835   1.680  10.750
36230SOL    HW110529  14.778   1.616  10.708
36230SOL    HW210530  14.833   1.657  10.843
36231SOL     OW10531  12.230  13.355   3.945
36231SOL    HW110532  12.185  13.423   3.895
36231SOL    HW210533  12.283  13.403   4.009
36232SOL     OW10534   6.986   7.802   7.166
36232SOL    HW110535   7.003   7.812   7.072
36232SOL    HW210536   7.020   7.715   7.187
36233SOL     OW10537   4.264   7.498   0.939
36233SOL    HW110538   4.244   7.491   1.033
36233SOL    HW210539   4.186   7.464   0.896
36234SOL     OW10540   8.713   3.865   5.536
36234SOL    HW110541   8.685   3.906   5.618
36234SOL    HW210542   8.633   3.855   5.486
36235SOL     OW10543  11.904   3.802   3.480
36235SOL    HW110544  11.963   3.876   3.468
36235SOL    HW210545  11.893   3.766   3.392
36236SOL     OW10546  13.304   8.787  14.428
36236SOL    HW110547  13.339   8.873  14.453
36236SOL    HW210548  13.304   8.788  14.333
36237SOL     OW10549   1.977   7.876   4.230
36237SOL    HW110550   1.949   7.822   4.156
36237SOL    HW210551   1.897   7.891   4.280
36238SOL     OW10552   0.939   2.724  12.309
36238SOL    HW110553   0.864   2.742  12.366
36238SOL    HW210554   0.913   2.646  12.260
36239SOL     OW10555  13.096   4.406  13.312
36239SOL    HW110556  13.029   4.451  13.261
36239SOL    HW210557  13.173   4.462  13.305
36240SOL     OW10558   4.795  12.364   3.904
36240SOL    HW110559   4.703  12.347   3.925
36240SOL    HW210560   4.812  12.450   3.941
36241SOL     OW10561   1.817   1.489  11.583
36241SOL    HW110562   1.864   1.568  11.607
36241SOL    HW210563   1.727   1.518  11.565
36242SOL     OW10564   0.293   4.467   3.851
36242SOL    HW110565   0.357   4.537   3.860
36242SOL    HW210566   0.208   4.511   3.860
36243SOL     OW10567   1.821   3.588   2.774
36243SOL    HW110568   1.754   3.592   2.843
36243SOL    HW210569   1.781   3.634   2.700
36244SOL     OW10570   8.657  13.935   6.627
36244SOL    HW110571   8.640  14.018   6.582
36244SOL    HW210572   8.723  13.892   6.573
36245SOL     OW10573   6.628   1.779   2.086
36245SOL    HW110574   6.650   1.861   2.130
36245SOL    HW210575   6.624   1.715   2.157
36246SOL     OW10576  13.637   3.339   8.308
36246SOL    HW110577  13.722   3.337   8.352
36246SOL    HW210578  13.657   3.318   8.216
36247SOL     OW10579   1.063   4.500   5.494
36247SOL    HW110580   1.015   4.442   5.435
36247SOL    HW210581   1.103   4.442   5.558
36248SOL     OW10582   0.431   3.336   8.661
36248SOL    HW110583   0.472   3.249   8.663
36248SOL    HW210584   0.337   3.318   8.661
36249SOL     OW10585   2.245   4.645  10.500
36249SOL    HW110586   2.188   4.595  10.443
36249SOL    HW210587   2.238   4.602  10.585
36250SOL     OW10588  14.490   0.352  13.407
36250SOL    HW110589  14.505   0.288  13.476
36250SOL    HW210590  14.441   0.305  13.340
36251SOL     OW10591  13.693  10.807   7.934
36251SOL    HW110592  13.616  10.787   7.880
36251SOL    HW210593  13.691  10.742   8.004
36252SOL     OW10594   3.941   8.452   7.390
36252SOL    HW110595   3.907   8.531   7.349
36252SOL    HW210596   3.875   8.427   7.455
36253SOL     OW10597   1.594   4.425   7.350
36253SOL    HW110598   1.569   4.419   7.442
36253SOL    HW210599   1.613   4.518   7.336
36254SOL     OW10600   5.502  11.968  13.934
36254SOL    HW110601   5.465  11.933  13.853
36254SOL    HW210602   5.465  11.913  14.003
36255SOL     OW10603   9.593   4.266  11.953
36255SOL    HW110604   9.531   4.289  12.021
36255SOL    HW210605   9.652   4.341  11.948
36256SOL     OW10606   2.079   2.904   6.021
36256SOL    HW110607   2.118   2.977   5.973
36256SOL    HW210608   2.102   2.826   5.970
36257SOL     OW10609  14.853   0.070  12.537
36257SOL    HW110610  14.793   0.112  12.476
36257SOL    HW210611   0.059   0.063  12.488
36258SOL     OW10612   2.702   0.898  12.131
36258SOL    HW110613   2.784   0.942  12.112
36258SOL    HW210614   2.727   0.809  12.153
36259SOL     OW10615  12.999  14.067   2.719
36259SOL    HW110616  13.021  14.034   2.806
36259SOL    HW210617  13.063  14.136   2.702
36260SOL     OW10618   2.682   0.832  14.370
36260SOL    HW110619   2.616   0.806  14.306
36260SOL    HW210620   2.711   0.919  14.342
36261SOL     OW10621   2.118   2.957   8.515
36261SOL    HW110622   2.188   3.020   8.505
36261SOL    HW210623   2.123   2.929   8.607
36262SOL     OW10624   6.055   1.614  10.730
36262SOL    HW110625   6.029   1.702  10.702
36262SOL    HW210626   6.150   1.618  10.734
36263SOL     OW10627  12.535  12.857   1.209
36263SOL    HW110628  12.577  12.772   1.221
36263SOL    HW210629  12.580  12.915   1.272
36264SOL     OW10630  11.311  11.575   3.580
36264SOL    HW110631  11.316  11.528   3.497
36264SOL    HW210632  11.270  11.513   3.640
36265SOL     OW10633  14.136  14.687  13.482
36265SOL    HW110634  14.125  14.635  13.562
36265SOL    HW210635  14.047  14.711  13.457
36266SOL     OW10636   9.182  14.132   2.814
36266SOL    HW110637   9.189  14.115   2.720
36266SOL    HW210638   9.251  14.195   2.833
36267SOL     OW10639  11.317   0.328   0.860
36267SOL    HW110640  11.253   0.298   0.924
36267SOL    HW210641  11.336   0.419   0.885
36268SOL     OW10642  12.725   6.237   5.753
36268SOL    HW110643  12.671   6.168   5.713
36268SOL    HW210644  12.791   6.258   5.686
36269SOL     OW10645   1.748  14.768   1.335
36269SOL    HW110646   1.720  14.682   1.302
36269SOL    HW210647   1.711  14.831   1.273
36270SOL     OW10648   7.984   7.960   0.417
36270SOL    HW110649   8.075   7.960   0.386
36270SOL    HW210650   7.932   7.941   0.339
36271SOL     OW10651   3.209   9.504  10.624
36271SOL    HW110652   3.199   9.558  10.545
36271SOL    HW210653   3.142   9.436  10.615
36272SOL     OW10654   1.914   7.859   7.200
36272SOL    HW110655   1.969   7.808   7.141
36272SOL    HW210656   1.844   7.800   7.226
36273SOL     OW10657   6.121   5.830   1.545
36273SOL    HW110658   6.210   5.807   1.517
36273SOL    HW210659   6.123   5.820   1.640
36274SOL     OW10660  13.850   3.495  12.557
36274SOL    HW110661  13.934   3.522  12.521
36274SOL    HW210662  13.808   3.446  12.487
36275SOL     OW10663  12.466   3.605  11.249
36275SOL    HW110664  12.539   3.547  11.270
36275SOL    HW210665  12.469   3.672  11.318
36276SOL     OW10666   2.428   9.688   5.618
36276SOL    HW110667   2.371   9.640   5.558
36276SOL    HW210668   2.411   9.781   5.599
36277SOL     OW10669   3.470  13.482  14.362
36277SOL    HW110670   3.379  13.493  14.336
36277SOL    HW210671   3.471  13.502  14.456
36278SOL     OW10672   0.105  14.387  13.510
36278SOL    HW110673   0.086  14.472  13.549
36278SOL    HW210674   0.198  14.373  13.527
36279SOL     OW10675  10.211  12.402  13.569
36279SOL    HW110676  10.238  12.407  13.661
36279SOL    HW210677  10.184  12.310  13.558
36280SOL     OW10678   5.821  10.949   3.420
36280SOL    HW110679   5.910  10.963   3.452
36280SOL    HW210680   5.812  11.009   3.346
36281SOL     OW10681   4.090  13.399  14.557
36281SOL    HW110682   4.181  13.377  14.577
36281SOL    HW210683   4.049  13.410  14.642
36282SOL     OW10684   1.870  14.763  10.586
36282SOL    HW110685   1.804  14.826  10.615
36282SOL    HW210686   1.824  14.679  10.583
36283SOL     OW10687  11.461  12.126   9.777
36283SOL    HW110688  11.439  12.056   9.715
36283SOL    HW210689  11.538  12.094   9.823
36284SOL     OW10690   9.325  11.243   8.513
36284SOL    HW110691   9.357  11.187   8.583
36284SOL    HW210692   9.376  11.216   8.436
36285SOL     OW10693   5.176  12.687   1.719
36285SOL    HW110694   5.221  12.762   1.758
36285SOL    HW210695   5.099  12.674   1.773
36286SOL     OW10696  14.123   1.694  14.683
36286SOL    HW110697  14.188   1.754  14.647
36286SOL    HW210698  14.084   1.741  14.756
36287SOL     OW10699  14.800   2.240   8.308
36287SOL    HW110700  14.775   2.176   8.374
36287SOL    HW210701  14.826   2.317   8.359
36288SOL     OW10702   2.483   5.545   3.618
36288SOL    HW110703   2.551   5.572   3.681
36288SOL    HW210704   2.501   5.452   3.602
36289SOL     OW10705   9.331  14.590   3.614
36289SOL    HW110706   9.245  14.559   3.586
36289SOL    HW210707   9.393  14.542   3.559
36290SOL     OW10708   8.646   6.256  10.413
36290SOL    HW110709   8.587   6.201  10.465
36290SOL    HW210710   8.660   6.207  10.332
36291SOL     OW10711  12.964  13.540   7.206
36291SOL    HW110712  12.962  13.628   7.245
36291SOL    HW210713  13.041  13.541   7.150
36292SOL     OW10714  14.190   9.517  11.283
36292SOL    HW110715  14.278   9.538  11.252
36292SOL    HW210716  14.153   9.462  11.214
36293SOL     OW10717  10.294   4.538   4.955
36293SOL    HW110718  10.385   4.550   4.926
36293SOL    HW210719  10.242   4.543   4.875
36294SOL     OW10720   6.482   3.647   0.070
36294SOL    HW110721   6.396   3.688   0.079
36294SOL    HW210722   6.481   3.607  14.859
36295SOL     OW10723   6.381   8.396   2.982
36295SOL    HW110724   6.374   8.303   3.003
36295SOL    HW210725   6.304   8.414   2.927
36296SOL     OW10726   1.198   9.189   7.271
36296SOL    HW110727   1.167   9.277   7.250
36296SOL    HW210728   1.231   9.197   7.361
36297SOL     OW10729  14.150   5.110  14.395
36297SOL    HW110730  14.081   5.053  14.429
36297SOL    HW210731  14.224   5.096  14.453
36298SOL     OW10732  12.852  14.266   0.132
36298SOL    HW110733  12.857  14.310   0.047
36298SOL    HW210734  12.764  14.229   0.134
36299SOL     OW10735   8.981   2.284   5.466
36299SOL    HW110736   9.038   2.336   5.522
36299SOL    HW210737   9.031   2.271   5.386
36300SOL     OW10738  12.998  13.005   7.770
36300SOL    HW110739  12.936  13.052   7.826
36300SOL    HW210740  13.077  13.059   7.770
36301SOL     OW10741   9.673  12.447   0.114
36301SOL    HW110742   9.704  12.479   0.029
36301SOL    HW210743   9.693  12.517   0.176
36302SOL     OW10744   0.067   8.137  13.392
36302SOL    HW110745   0.014   8.063  13.364
36302SOL    HW210746   0.010   8.213  13.380
36303SOL     OW10747   8.811   5.812   9.768
36303SOL    HW110748   8.729   5.860   9.774
36303SOL    HW210749   8.879   5.880   9.765
36304SOL     OW10750   7.138   9.283   0.644
36304SOL    HW110751   7.210   9.271   0.583
36304SOL    HW210752   7.060   9.285   0.589
36305SOL     OW10753   3.156  12.067   2.256
36305SOL    HW110754   3.131  12.147   2.302
36305SOL    HW210755   3.233  12.035   2.304
36306SOL     OW10756  13.995   9.963   7.769
36306SOL    HW110757  14.013   9.872   7.748
36306SOL    HW210758  13.926   9.959   7.835
36307SOL     OW10759  13.331   9.700   6.992
36307SOL    HW110760  13.389   9.662   7.058
36307SOL    HW210761  13.284   9.769   7.037
36308SOL     OW10762   2.460   7.063  10.478
36308SOL    HW110763   2.431   7.137  10.531
36308SOL    HW210764   2.542   7.034  10.518
36309SOL     OW10765   1.790  11.244  12.023
36309SOL    HW110766   1.710  11.290  12.048
36309SOL    HW210767   1.803  11.267  11.931
36310SOL     OW10768   6.883   3.721   8.549
36310SOL    HW110769   6.870   3.775   8.471
36310SOL    HW210770   6.967   3.749   8.585
36311SOL     OW10771   1.124   4.278  11.414
36311SOL    HW110772   1.031   4.298  11.424
36311SOL    HW210773   1.129   4.183  11.422
36312SOL     OW10774   7.225   9.832   1.552
36312SOL    HW110775   7.175   9.815   1.472
36312SOL    HW210776   7.233   9.747   1.595
36313SOL     OW10777   3.176   7.679  13.656
36313SOL    HW110778   3.167   7.697  13.562
36313SOL    HW210779   3.235   7.603  13.660
36314SOL     OW10780  10.874   9.891   7.964
36314SOL    HW110781  10.897   9.817   7.907
36314SOL    HW210782  10.926   9.877   8.043
36315SOL     OW10783  11.986   7.082   1.160
36315SOL    HW110784  12.034   7.013   1.114
36315SOL    HW210785  11.894   7.060   1.145
36316SOL     OW10786  14.340   9.560   7.623
36316SOL    HW110787  14.311   9.473   7.653
36316SOL    HW210788  14.309   9.565   7.533
36317SOL     OW10789   4.234   6.605   6.713
36317SOL    HW110790   4.160   6.639   6.763
36317SOL    HW210791   4.304   6.593   6.778
36318SOL     OW10792   8.774  11.890  11.908
36318SOL    HW110793   8.715  11.894  11.832
36318SOL    HW210794   8.737  11.822  11.963
36319SOL     OW10795   7.339  14.577  12.547
36319SOL    HW110796   7.304  14.509  12.490
36319SOL    HW210797   7.276  14.649  12.542
36320SOL     OW10798  14.389   1.068   7.092
36320SOL    HW110799  14.479   1.083   7.061
36320SOL    HW210800  14.400   1.015   7.170
36321SOL     OW10801   1.114  12.032   4.656
36321SOL    HW110802   1.158  11.972   4.595
36321SOL    HW210803   1.151  12.011   4.741
36322SOL     OW10804   4.549   3.134   6.719
36322SOL    HW110805   4.531   3.114   6.810
36322SOL    HW210806   4.592   3.055   6.685
36323SOL     OW10807   3.102   0.869   4.279
36323SOL    HW110808   3.113   0.811   4.354
36323SOL    HW210809   3.181   0.922   4.277
36324SOL     OW10810   2.371  12.519  11.637
36324SOL    HW110811   2.466  12.506  11.631
36324SOL    HW210812   2.334  12.439  11.600
36325SOL     OW10813   3.661   0.149   9.583
36325SOL    HW110814   3.647   0.228   9.531
36325SOL    HW210815   3.600   0.084   9.546
36326SOL     OW10816   9.283   0.381   8.097
36326SOL    HW110817   9.289   0.308   8.035
36326SOL    HW210818   9.189   0.394   8.109
36327SOL     OW10819   4.993   9.883   0.663
36327SOL    HW110820   4.993   9.972   0.628
36327SOL    HW210821   4.952   9.830   0.595
36328SOL     OW10822   0.163  14.393  11.469
36328SOL    HW110823   0.248  14.348  11.470
36328SOL    HW210824   0.170  14.456  11.397
36329SOL     OW10825  13.005   8.217  11.020
36329SOL    HW110826  13.081   8.173  11.058
36329SOL    HW210827  13.010   8.307  11.052
36330SOL     OW10828   1.448  13.749   7.242
36330SOL    HW110829   1.446  13.750   7.337
36330SOL    HW210830   1.506  13.821   7.218
36331SOL     OW10831  12.373   7.782   4.633
36331SOL    HW110832  12.434   7.841   4.678
36331SOL    HW210833  12.422   7.700   4.622
36332SOL     OW10834   6.293   8.208   5.607
36332SOL    HW110835   6.293   8.224   5.513
36332SOL    HW210836   6.369   8.153   5.622
36333SOL     OW10837  12.142   6.660   3.457
36333SOL    HW110838  12.094   6.695   3.382
36333SOL    HW210839  12.234   6.676   3.436
36334SOL     OW10840  10.008   3.652  12.558
36334SOL    HW110841   9.995   3.626  12.649
36334SOL    HW210842  10.090   3.609  12.532
36335SOL     OW10843   0.016  11.339   7.448
36335SOL    HW110844   0.053  11.414   7.495
36335SOL    HW210845  14.810  11.372   7.412
36336SOL     OW10846   3.036   5.414   2.797
36336SOL    HW110847   3.084   5.340   2.835
36336SOL    HW210848   3.091   5.490   2.816
36337SOL     OW10849   9.279   2.654   0.222
36337SOL    HW110850   9.323   2.738   0.230
36337SOL    HW210851   9.240   2.655   0.134
36338SOL     OW10852  13.004   4.847   0.278
36338SOL    HW110853  12.915   4.855   0.243
36338SOL    HW210854  12.993   4.845   0.373
36339SOL     OW10855   6.879   5.508   3.037
36339SOL    HW110856   6.844   5.457   2.964
36339SOL    HW210857   6.967   5.534   3.008
36340SOL     OW10858   7.530   5.471   6.014
36340SOL    HW110859   7.519   5.506   5.926
36340SOL    HW210860   7.444   5.433   6.035
36341SOL     OW10861   9.765  11.798   7.738
36341SOL    HW110862   9.741  11.764   7.652
36341SOL    HW210863   9.814  11.878   7.719
36342SOL     OW10864  12.118   9.357   8.547
36342SOL    HW110865  12.117   9.272   8.590
36342SOL    HW210866  12.026   9.379   8.535
36343SOL     OW10867   3.279   1.197  14.164
36343SOL    HW110868   3.259   1.125  14.105
36343SOL    HW210869   3.369   1.180  14.194
36344SOL     OW10870  13.858   9.336   3.976
36344SOL    HW110871  13.896   9.328   3.889
36344SOL    HW210872  13.773   9.292   3.969
36345SOL     OW10873   9.682  11.341  11.493
36345SOL    HW110874   9.731  11.396  11.432
36345SOL    HW210875   9.743  11.325  11.565
36346SOL     OW10876   2.566  13.391   3.164
36346SOL    HW110877   2.503  13.324   3.136
36346SOL    HW210878   2.592  13.365   3.252
36347SOL     OW10879  14.710   5.933  12.219
36347SOL    HW110880  14.699   5.959  12.127
36347SOL    HW210881  14.803   5.947  12.236
36348SOL     OW10882   2.289  12.742  11.494
36348SOL    HW110883   2.345  12.768  11.421
36348SOL    HW210884   2.326  12.658  11.524
36349SOL     OW10885   7.064  10.575  14.828
36349SOL    HW110886   7.054  10.630   0.029
36349SOL    HW210887   6.988  10.516  14.832
36350SOL     OW10888  10.287   7.678   0.959
36350SOL    HW110889  10.290   7.674   1.054
36350SOL    HW210890  10.256   7.767   0.940
36351SOL     OW10891   5.024   7.724   5.251
36351SOL    HW110892   5.013   7.806   5.299
36351SOL    HW210893   5.075   7.668   5.310
36352SOL     OW10894   9.378   4.292  12.814
36352SOL    HW110895   9.431   4.268  12.738
36352SOL    HW210896   9.287   4.280  12.785
36353SOL     OW10897   2.324   7.316  10.533
36353SOL    HW110898   2.348   7.390  10.590
36353SOL    HW210899   2.349   7.345  10.445
36354SOL     OW10900   2.998   1.673   7.159
36354SOL    HW110901   3.019   1.762   7.186
36354SOL    HW210902   3.070   1.649   7.100
36355SOL     OW10903   9.557   7.635  12.585
36355SOL    HW110904   9.586   7.609  12.498
36355SOL    HW210905   9.558   7.553  12.635
36356SOL     OW10906   2.659   4.511   4.077
36356SOL    HW110907   2.600   4.440   4.055
36356SOL    HW210908   2.687   4.547   3.993
36357SOL     OW10909  14.585   9.767   9.441
36357SOL    HW110910  14.629   9.726   9.515
36357SOL    HW210911  14.627   9.729   9.364
36358SOL     OW10912   5.866   3.001   6.757
36358SOL    HW110913   5.958   3.020   6.772
36358SOL    HW210914   5.850   2.919   6.804
36359SOL     OW10915  12.215   9.081   5.849
36359SOL    HW110916  12.216   9.070   5.754
36359SOL    HW210917  12.127   9.054   5.875
36360SOL     OW10918   0.733   6.643   7.507
36360SOL    HW110919   0.743   6.736   7.527
36360SOL    HW210920   0.740   6.637   7.412
36361SOL     OW10921  14.203  10.341   7.992
36361SOL    HW110922  14.142  10.406   8.028
36361SOL    HW210923  14.165  10.318   7.907
36362SOL     OW10924  12.540  12.064  13.890
36362SOL    HW110925  12.464  12.007  13.896
36362SOL    HW210926  12.595  12.024  13.823
36363SOL     OW10927   7.871   9.760   5.403
36363SOL    HW110928   7.912   9.788   5.321
36363SOL    HW210929   7.777   9.759   5.383
36364SOL     OW10930  11.441   1.193   5.157
36364SOL    HW110931  11.523   1.161   5.195
36364SOL    HW210932  11.416   1.126   5.093
36365SOL     OW10933  13.346  11.634   9.555
36365SOL    HW110934  13.398  11.564   9.517
36365SOL    HW210935  13.359  11.625   9.650
36366SOL     OW10936  13.375  11.622   5.087
36366SOL    HW110937  13.352  11.606   5.179
36366SOL    HW210938  13.417  11.541   5.059
36367SOL     OW10939   7.991   1.728  10.801
36367SOL    HW110940   8.028   1.805  10.758
36367SOL    HW210941   7.986   1.662  10.732
36368SOL     OW10942  10.337   4.962  13.930
36368SOL    HW110943  10.406   4.917  13.980
36368SOL    HW210944  10.329   5.047  13.972
36369SOL     OW10945  13.822  14.637   1.848
36369SOL    HW110946  13.728  14.628   1.832
36369SOL    HW210947  13.828  14.664   1.939
36370SOL     OW10948   1.622   3.173   8.831
36370SOL    HW110949   1.600   3.225   8.908
36370SOL    HW210950   1.543   3.122   8.812
36371SOL     OW10951   8.498  10.200   5.390
36371SOL    HW110952   8.517  10.135   5.323
36371SOL    HW210953   8.541  10.280   5.359
36372SOL     OW10954   6.724  11.325  10.739
36372SOL    HW110955   6.772  11.283  10.810
36372SOL    HW210956   6.693  11.407  10.777
36373SOL     OW10957  12.908   8.350   7.554
36373SOL    HW110958  12.848   8.401   7.609
36373SOL    HW210959  12.862   8.339   7.471
36374SOL     OW10960   8.663  13.916   4.524
36374SOL    HW110961   8.634  13.953   4.607
36374SOL    HW210962   8.626  13.974   4.458
36375SOL     OW10963  10.690   9.692   3.441
36375SOL    HW110964  10.707   9.615   3.387
36375SOL    HW210965  10.741   9.676   3.521
36376SOL     OW10966   3.875   8.026   9.664
36376SOL    HW110967   3.813   8.038   9.592
36376SOL    HW210968   3.828   8.057   9.741
36377SOL     OW10969   5.178  11.928  14.558
36377SOL    HW110970   5.171  12.007  14.505
36377SOL    HW210971   5.221  11.865  14.500
36378SOL     OW10972   6.902  12.050   4.746
36378SOL    HW110973   6.907  12.021   4.837
36378SOL    HW210974   6.843  11.987   4.704
36379SOL     OW10975  10.147   4.270   3.927
36379SOL    HW110976  10.200   4.347   3.949
36379SOL    HW210977  10.151   4.264   3.832
36380SOL     OW10978   4.244   4.693   0.528
36380SOL    HW110979   4.282   4.710   0.442
36380SOL    HW210980   4.315   4.712   0.590
36381SOL     OW10981  14.654  12.559   0.523
36381SOL    HW110982  14.579  12.547   0.466
36381SOL    HW210983  14.617  12.598   0.603
36382SOL     OW10984   0.706   9.214   5.721
36382SOL    HW110985   0.770   9.237   5.788
36382SOL    HW210986   0.652   9.292   5.712
36383SOL     OW10987  14.295   1.485   5.755
36383SOL    HW110988  14.329   1.396   5.748
36383SOL    HW210989  14.205   1.478   5.723
36384SOL     OW10990  13.565   9.390   3.206
36384SOL    HW110991  13.598   9.326   3.143
36384SOL    HW210992  13.473   9.400   3.184
36385SOL     OW10993  13.075   6.607   0.054
36385SOL    HW110994  13.063   6.602  14.836
36385SOL    HW210995  13.135   6.535   0.075
36386SOL     OW10996   4.037  14.491   6.555
36386SOL    HW110997   4.000  14.565   6.603
36386SOL    HW210998   3.964  14.431   6.544
36387SOL     OW10999  10.797   0.443   2.121
36387SOL    HW111000  10.704   0.444   2.143
36387SOL    HW211001  10.818   0.534   2.102
36388SOL     OW11002   7.819  11.704   7.179
36388SOL    HW111003   7.857  11.761   7.112
36388SOL    HW211004   7.725  11.708   7.162
36389SOL     OW11005  13.581   1.121  12.702
36389SOL    HW111006  13.561   1.070  12.781
36389SOL    HW211007  13.499   1.125  12.654
36390SOL     OW11008   8.772   6.387  11.450
36390SOL    HW111009   8.852   6.402  11.500
36390SOL    HW211010   8.788   6.429  11.365
36391SOL     OW11011   4.514   9.080  11.136
36391SOL    HW111012   4.504   9.176  11.136
36391SOL    HW211013   4.547   9.060  11.049
36392SOL     OW11014   1.122  14.804  12.637
36392SOL    HW111015   1.206  14.846  12.655
36392SOL    HW211016   1.118  14.732  12.700
36393SOL     OW11017   3.319  10.531   5.331
36393SOL    HW111018   3.360  10.449   5.355
36393SOL    HW211019   3.306  10.578   5.414
36394SOL     OW11020   2.441  14.568   3.422
36394SOL    HW111021   2.536  14.565   3.435
36394SOL    HW211022   2.424  14.658   3.395
36395SOL     OW11023   0.087   4.221   0.616
36395SOL    HW111024   0.105   4.314   0.633
36395SOL    HW211025   0.092   4.180   0.703
36396SOL     OW11026   5.182   9.766   5.323
36396SOL    HW111027   5.112   9.829   5.304
36396SOL    HW211028   5.245   9.779   5.252
36397SOL     OW11029  12.124  14.098   2.004
36397SOL    HW111030  12.133  14.142   1.920
36397SOL    HW211031  12.129  14.004   1.982
36398SOL     OW11032   4.085   8.328  12.703
36398SOL    HW111033   4.057   8.285  12.784
36398SOL    HW211034   4.044   8.414  12.705
36399SOL     OW11035   2.664   8.434  12.313
36399SOL    HW111036   2.689   8.501  12.377
36399SOL    HW211037   2.587   8.471  12.270
36400SOL     OW11038   8.885  12.362  13.232
36400SOL    HW111039   8.815  12.319  13.281
36400SOL    HW211040   8.895  12.447  13.275
36401SOL     OW11041   8.857   2.135   3.275
36401SOL    HW111042   8.936   2.189   3.271
36401SOL    HW211043   8.834   2.132   3.367
36402SOL     OW11044   9.113   4.632  12.124
36402SOL    HW111045   9.036   4.606  12.073
36402SOL    HW211046   9.082   4.701  12.182
36403SOL     OW11047   2.515  10.720   3.130
36403SOL    HW111048   2.457  10.785   3.170
36403SOL    HW211049   2.478  10.635   3.157
36404SOL     OW11050   9.498   1.617   1.641
36404SOL    HW111051   9.440   1.675   1.691
36404SOL    HW211052   9.564   1.589   1.705
36405SOL     OW11053  11.494  11.756  12.361
36405SOL    HW111054  11.509  11.834  12.415
36405SOL    HW211055  11.424  11.709  12.405
36406SOL     OW11056   6.712   9.122  11.443
36406SOL    HW111057   6.777   9.066  11.400
36406SOL    HW211058   6.677   9.176  11.372
36407SOL     OW11059  11.794   5.122   6.773
36407SOL    HW111060  11.757   5.072   6.846
36407SOL    HW211061  11.765   5.075   6.695
36408SOL     OW11062  12.619   5.490  13.133
36408SOL    HW111063  12.669   5.566  13.163
36408SOL    HW211064  12.556   5.526  13.071
36409SOL     OW11065   8.139  10.027  10.274
36409SOL    HW111066   8.129  10.085  10.199
36409SOL    HW211067   8.185   9.951  10.239
36410SOL     OW11068  11.562   1.869   5.315
36410SOL    HW111069  11.559   1.953   5.361
36410SOL    HW211070  11.644   1.872   5.266
36411SOL     OW11071   5.259   0.918   7.021
36411SOL    HW111072   5.245   0.996   6.966
36411SOL    HW211073   5.348   0.891   7.002
36412SOL     OW11074   9.097  11.125  10.760
36412SOL    HW111075   9.017  11.073  10.752
36412SOL    HW211076   9.078  11.189  10.828
36413SOL     OW11077   4.144   2.352  13.537
36413SOL    HW111078   4.131   2.446  13.526
36413SOL    HW211079   4.072   2.312  13.488
36414SOL     OW11080  11.170  10.566  13.031
36414SOL    HW111081  11.209  10.644  13.071
36414SOL    HW211082  11.231  10.495  13.052
36415SOL     OW11083   2.423   7.654   5.776
36415SOL    HW111084   2.467   7.631   5.694
36415SOL    HW211085   2.490   7.697   5.828
36416SOL     OW11086   3.671   7.675   7.345
36416SOL    HW111087   3.664   7.584   7.317
36416SOL    HW211088   3.745   7.676   7.405
36417SOL     OW11089  14.348   7.698  12.882
36417SOL    HW111090  14.272   7.753  12.863
36417SOL    HW211091  14.410   7.718  12.812
36418SOL     OW11092   9.888   7.117   8.101
36418SOL    HW111093   9.891   7.046   8.037
36418SOL    HW211094   9.842   7.188   8.056
36419SOL     OW11095   3.927   5.845   9.855
36419SOL    HW111096   4.004   5.799   9.824
36419SOL    HW211097   3.898   5.898   9.781
36420SOL     OW11098   9.879   8.829   7.146
36420SOL    HW111099   9.941   8.790   7.084
36420SOL    HW211100   9.839   8.754   7.189
36421SOL     OW11101   1.750   2.346   9.581
36421SOL    HW111102   1.716   2.398   9.655
36421SOL    HW211103   1.764   2.259   9.617
36422SOL     OW11104  10.894   7.959  11.979
36422SOL    HW111105  10.864   7.888  11.922
36422SOL    HW211106  10.911   7.916  12.063
36423SOL     OW11107  12.733   9.351   8.528
36423SOL    HW111108  12.791   9.291   8.480
36423SOL    HW211109  12.665   9.295   8.564
36424SOL     OW11110   3.476  14.248   9.657
36424SOL    HW111111   3.530  14.300   9.598
36424SOL    HW211112   3.434  14.312   9.714
36425SOL     OW11113   8.076   7.593  12.758
36425SOL    HW111114   8.007   7.659  12.761
36425SOL    HW211115   8.041   7.520  12.810
36426SOL     OW11116  10.182   6.211   3.120
36426SOL    HW111117  10.136   6.230   3.038
36426SOL    HW211118  10.275   6.224   3.099
36427SOL     OW11119  14.418   6.366   1.200
36427SOL    HW111120  14.434   6.353   1.293
36427SOL    HW211121  14.498   6.335   1.157
36428SOL     OW11122   4.125   9.006  13.136
36428SOL    HW111123   4.110   9.065  13.062
36428SOL    HW211124   4.060   9.033  13.201
36429SOL     OW11125   9.337   8.913   4.467
36429SOL    HW111126   9.320   8.901   4.373
36429SOL    HW211127   9.251   8.903   4.508
36430SOL     OW11128   9.308   2.253   8.832
36430SOL    HW111129   9.305   2.164   8.866
36430SOL    HW211130   9.217   2.278   8.820
36431SOL     OW11131   8.149  12.944  10.369
36431SOL    HW111132   8.130  12.962  10.277
36431SOL    HW211133   8.120  12.854  10.383
36432SOL     OW11134   6.544   7.205   0.900
36432SOL    HW111135   6.507   7.248   0.823
36432SOL    HW211136   6.491   7.126   0.911
36433SOL     OW11137   1.694  13.818   3.844
36433SOL    HW111138   1.645  13.756   3.898
36433SOL    HW211139   1.648  13.818   3.760
36434SOL     OW11140   6.594   5.668   2.942
36434SOL    HW111141   6.571   5.594   2.887
36434SOL    HW211142   6.545   5.656   3.023
36435SOL     OW11143  10.635  12.133   7.507
36435SOL    HW111144  10.635  12.053   7.453
36435SOL    HW211145  10.577  12.112   7.580
36436SOL     OW11146  10.175   9.378   1.649
36436SOL    HW111147  10.098   9.337   1.610
36436SOL    HW211148  10.248   9.348   1.595
36437SOL     OW11149   1.761  11.754   0.750
36437SOL    HW111150   1.731  11.845   0.754
36437SOL    HW211151   1.745  11.720   0.837
36438SOL     OW11152  12.771   2.819  12.632
36438SOL    HW111153  12.752   2.726  12.638
36438SOL    HW211154  12.740   2.855  12.716
36439SOL     OW11155   4.783   1.988   0.401
36439SOL    HW111156   4.734   2.049   0.346
36439SOL    HW211157   4.754   1.901   0.373
36440SOL     OW11158   7.419  12.853   8.348
36440SOL    HW111159   7.366  12.829   8.424
36440SOL    HW211160   7.357  12.858   8.276
36441SOL     OW11161   9.213   5.157  10.825
36441SOL    HW111162   9.284   5.175  10.887
36441SOL    HW211163   9.218   5.229  10.762
36442SOL     OW11164   9.179  12.068   7.606
36442SOL    HW111165   9.247  12.135   7.614
36442SOL    HW211166   9.097  12.116   7.617
36443SOL     OW11167  12.953  13.626  13.268
36443SOL    HW111168  12.878  13.574  13.239
36443SOL    HW211169  12.914  13.698  13.318
36444SOL     OW11170  13.479   1.473   3.952
36444SOL    HW111171  13.480   1.386   3.992
36444SOL    HW211172  13.414   1.522   4.002
36445SOL     OW11173   5.317  13.131  11.585
36445SOL    HW111174   5.250  13.156  11.649
36445SOL    HW211175   5.298  13.185  11.509
36446SOL     OW11176   4.604   8.782   0.090
36446SOL    HW111177   4.601   8.858   0.032
36446SOL    HW211178   4.587   8.818   0.177
36447SOL     OW11179   7.343   2.118   7.970
36447SOL    HW111180   7.343   2.196   7.914
36447SOL    HW211181   7.292   2.054   7.922
36448SOL     OW11182  14.005   4.809   0.552
36448SOL    HW111183  13.990   4.730   0.603
36448SOL    HW211184  14.098   4.805   0.528
36449SOL     OW11185  10.551   7.583   8.783
36449SOL    HW111186  10.507   7.628   8.855
36449SOL    HW211187  10.601   7.651   8.739
36450SOL     OW11188   4.867  10.911  13.188
36450SOL    HW111189   4.933  10.912  13.119
36450SOL    HW211190   4.845  10.818  13.198
36451SOL     OW11191  14.560   4.631  12.571
36451SOL    HW111192  14.598   4.611  12.486
36451SOL    HW211193  14.589   4.720  12.590
36452SOL     OW11194   0.826   3.187   0.000
36452SOL    HW111195   0.784   3.103   0.019
36452SOL    HW211196   0.837   3.188  14.781
36453SOL     OW11197  14.059   6.031   2.368
36453SOL    HW111198  14.079   5.962   2.305
36453SOL    HW211199  14.138   6.086   2.368
36454SOL     OW11200   3.485   0.748  12.876
36454SOL    HW111201   3.485   0.688  12.950
36454SOL    HW211202   3.411   0.720  12.822
36455SOL     OW11203   9.404  11.881   8.790
36455SOL    HW111204   9.317  11.886   8.829
36455SOL    HW211205   9.405  11.797   8.744
36456SOL     OW11206   4.412  11.220   1.448
36456SOL    HW111207   4.352  11.214   1.522
36456SOL    HW211208   4.384  11.149   1.389
36457SOL     OW11209   5.291   0.313   1.658
36457SOL    HW111210   5.289   0.408   1.666
36457SOL    HW211211   5.275   0.296   1.565
36458SOL     OW11212   5.752  14.798   8.183
36458SOL    HW111213   5.687  14.743   8.226
36458SOL    HW211214   5.781  14.858   8.251
36459SOL     OW11215   1.039   7.957   4.519
36459SOL    HW111216   1.046   8.036   4.573
36459SOL    HW211217   1.065   7.987   4.431
36460SOL     OW11218  12.110  10.905  11.412
36460SOL    HW111219  12.194  10.865  11.433
36460SOL    HW211220  12.114  10.992  11.453
36461SOL     OW11221   3.179   8.908  10.515
36461SOL    HW111222   3.135   8.874  10.437
36461SOL    HW211223   3.273   8.905  10.493
36462SOL     OW11224  12.034  11.229  11.839
36462SOL    HW111225  11.959  11.249  11.784
36462SOL    HW211226  12.032  11.134  11.849
36463SOL     OW11227  13.717  12.089   5.085
36463SOL    HW111228  13.681  12.151   5.148
36463SOL    HW211229  13.644  12.070   5.026
36464SOL     OW11230   0.221   2.515   0.576
36464SOL    HW111231   0.313   2.512   0.600
36464SOL    HW211232   0.219   2.562   0.492
36465SOL     OW11233   4.773   8.240  12.077
36465SOL    HW111234   4.850   8.287  12.109
36465SOL    HW211235   4.782   8.152  12.114
36466SOL     OW11236  12.967  11.978  13.017
36466SOL    HW111237  12.989  11.934  13.099
36466SOL    HW211238  12.871  11.979  13.016
36467SOL     OW11239   3.301   5.300   3.617
36467SOL    HW111240   3.294   5.215   3.660
36467SOL    HW211241   3.384   5.337   3.649
36468SOL     OW11242   5.806   2.013  10.590
36468SOL    HW111243   5.889   2.045  10.555
36468SOL    HW211244   5.831   1.939  10.646
36469SOL     OW11245   8.408   8.825   1.218
36469SOL    HW111246   8.372   8.787   1.137
36469SOL    HW211247   8.359   8.906   1.231
36470SOL     OW11248   1.715   7.612  11.850
36470SOL    HW111249   1.632   7.578  11.884
36470SOL    HW211250   1.750   7.541  11.797
36471SOL     OW11251   3.237   7.196   8.291
36471SOL    HW111252   3.280   7.159   8.368
36471SOL    HW211253   3.146   7.210   8.319
36472SOL     OW11254   1.781   8.743   4.193
36472SOL    HW111255   1.760   8.709   4.280
36472SOL    HW211256   1.781   8.838   4.203
36473SOL     OW11257   0.242   2.394   7.602
36473SOL    HW111258   0.300   2.392   7.526
36473SOL    HW211259   0.302   2.398   7.677
36474SOL     OW11260   3.601   0.012   8.659
36474SOL    HW111261   3.602   0.008   8.563
36474SOL    HW211262   3.691  14.865   8.684
36475SOL     OW11263  12.642   1.905   7.338
36475SOL    HW111264  12.636   1.824   7.389
36475SOL    HW211265  12.631   1.975   7.402
36476SOL     OW11266   9.063  10.702   7.676
36476SOL    HW111267   9.130  10.739   7.733
36476SOL    HW211268   9.088  10.610   7.667
36477SOL     OW11269   4.954   2.264   5.029
36477SOL    HW111270   4.879   2.241   4.973
36477SOL    HW211271   4.992   2.342   4.988
36478SOL     OW11272   3.849  10.215   2.825
36478SOL    HW111273   3.769  10.265   2.805
36478SOL    HW211274   3.916  10.281   2.841
36479SOL     OW11275  13.768  13.077   5.903
36479SOL    HW111276  13.850  13.046   5.942
36479SOL    HW211277  13.794  13.153   5.850
36480SOL     OW11278   1.810   8.050   9.078
36480SOL    HW111279   1.736   8.025   9.133
36480SOL    HW211280   1.777   8.043   8.988
36481SOL     OW11281   7.426   4.100  13.302
36481SOL    HW111282   7.343   4.115  13.257
36481SOL    HW211283   7.492   4.139  13.244
36482SOL     OW11284  14.162  11.761   1.326
36482SOL    HW111285  14.111  11.727   1.400
36482SOL    HW211286  14.202  11.684   1.287
36483SOL     OW11287   7.787   8.227  12.665
36483SOL    HW111288   7.710   8.241  12.721
36483SOL    HW211289   7.780   8.294  12.597
36484SOL     OW11290  13.052   1.841   7.852
36484SOL    HW111291  12.996   1.809   7.782
36484SOL    HW211292  13.069   1.932   7.830
36485SOL     OW11293  11.426   2.651  11.355
36485SOL    HW111294  11.357   2.585  11.365
36485SOL    HW211295  11.403   2.720  11.417
36486SOL     OW11296   3.188  14.192  10.434
36486SOL    HW111297   3.097  14.162  10.437
36486SOL    HW211298   3.194  14.242  10.352
36487SOL     OW11299  11.364   2.256   8.561
36487SOL    HW111300  11.437   2.208   8.522
36487SOL    HW211301  11.306   2.188   8.595
36488SOL     OW11302  11.221  13.343   3.346
36488SOL    HW111303  11.126  13.351   3.338
36488SOL    HW211304  11.251  13.324   3.258
36489SOL     OW11305   2.025   5.839   5.462
36489SOL    HW111306   2.058   5.927   5.480
36489SOL    HW211307   2.080   5.807   5.390
36490SOL     OW11308  10.012   1.377  10.775
36490SOL    HW111309  10.086   1.431  10.746
36490SOL    HW211310  10.051   1.314  10.836
36491SOL     OW11311  14.021   1.004   7.886
36491SOL    HW111312  14.070   0.948   7.946
36491SOL    HW211313  13.931   0.974   7.894
36492SOL     OW11314  13.335   9.811  11.522
36492SOL    HW111315  13.302   9.773  11.441
36492SOL    HW211316  13.398   9.877  11.493
36493SOL     OW11317   3.566   2.364   9.099
36493SOL    HW111318   3.620   2.377   9.022
36493SOL    HW211319   3.626   2.330   9.165
36494SOL     OW11320  10.102   1.688   7.302
36494SOL    HW111321  10.035   1.706   7.236
36494SOL    HW211322  10.093   1.594   7.320
36495SOL     OW11323  12.068   6.486   5.963
36495SOL    HW111324  12.103   6.559   6.014
36495SOL    HW211325  12.013   6.527   5.897
36496SOL     OW11326   9.451   8.692  12.642
36496SOL    HW111327   9.513   8.653  12.705
36496SOL    HW211328   9.414   8.617  12.596
36497SOL     OW11329   2.328  11.365   7.506
36497SOL    HW111330   2.384  11.309   7.452
36497SOL    HW211331   2.240  11.356   7.468
36498SOL     OW11332  14.648   9.556   2.988
36498SOL    HW111333  14.726   9.610   3.003
36498SOL    HW211334  14.658   9.524   2.899
36499SOL     OW11335  13.688   2.420   0.128
36499SOL    HW111336  13.638   2.497   0.099
36499SOL    HW211337  13.749   2.454   0.193
36500SOL     OW11338  11.163   3.363   2.296
36500SOL    HW111339  11.208   3.279   2.294
36500SOL    HW211340  11.228   3.425   2.262
36501SOL     OW11341   7.271   1.053  12.126
36501SOL    HW111342   7.254   1.028  12.216
36501SOL    HW211343   7.200   1.012  12.076
36502SOL     OW11344   5.640   9.450   0.330
36502SOL    HW111345   5.657   9.411   0.244
36502SOL    HW211346   5.555   9.414   0.355
36503SOL     OW11347  10.446  12.624   9.762
36503SOL    HW111348  10.445  12.556   9.830
36503SOL    HW211349  10.525  12.605   9.711
36504SOL     OW11350   6.356  12.150   9.604
36504SOL    HW111351   6.398  12.067   9.626
36504SOL    HW211352   6.285  12.126   9.544
36505SOL     OW11353   4.000  14.264   7.669
36505SOL    HW111354   4.059  14.198   7.705
36505SOL    HW211355   4.046  14.347   7.683
36506SOL     OW11356   4.824   7.780   4.111
36506SOL    HW111357   4.755   7.722   4.079
36506SOL    HW211358   4.904   7.726   4.108
36507SOL     OW11359   3.321   5.965  11.110
36507SOL    HW111360   3.287   5.973  11.020
36507SOL    HW211361   3.273   6.031  11.160
36508SOL     OW11362  14.873   1.309  11.432
36508SOL    HW111363  14.855   1.403  11.425
36508SOL    HW211364   0.089   1.304  11.455
36509SOL     OW11365   8.388   6.710   6.682
36509SOL    HW111366   8.324   6.780   6.695
36509SOL    HW211367   8.433   6.734   6.601
36510SOL     OW11368  12.453   6.723   2.122
36510SOL    HW111369  12.441   6.766   2.038
36510SOL    HW211370  12.540   6.751   2.151
36511SOL     OW11371   2.398   4.184  11.455
36511SOL    HW111372   2.434   4.138  11.532
36511SOL    HW211373   2.385   4.274  11.485
36512SOL     OW11374  13.102   4.689  10.458
36512SOL    HW111375  13.122   4.691  10.551
36512SOL    HW211376  13.188   4.687  10.415
36513SOL     OW11377   9.823  13.747   7.921
36513SOL    HW111378   9.895  13.807   7.899
36513SOL    HW211379   9.835  13.673   7.862
36514SOL     OW11380   9.603  10.681   3.431
36514SOL    HW111381   9.545  10.726   3.370
36514SOL    HW211382   9.617  10.744   3.502
36515SOL     OW11383   4.209  13.904  10.461
36515SOL    HW111384   4.303  13.888  10.452
36515SOL    HW211385   4.183  13.847  10.534
36516SOL     OW11386  11.229  12.813   7.314
36516SOL    HW111387  11.221  12.898   7.271
36516SOL    HW211388  11.296  12.767   7.264
36517SOL     OW11389   1.226  12.603   7.964
36517SOL    HW111390   1.299  12.563   7.916
36517SOL    HW211391   1.156  12.610   7.900
36518SOL     OW11392   3.515   8.231  12.873
36518SOL    HW111393   3.501   8.165  12.941
36518SOL    HW211394   3.472   8.309  12.907
36519SOL     OW11395   5.932   2.098   5.088
36519SOL    HW111396   6.020   2.121   5.057
36519SOL    HW211397   5.927   2.133   5.177
36520SOL     OW11398   7.206   3.108  14.273
36520SOL    HW111399   7.265   3.078  14.204
36520SOL    HW211400   7.242   3.193  14.299
36521SOL     OW11401   4.980   7.343   0.468
36521SOL    HW111402   4.986   7.423   0.415
36521SOL    HW211403   4.993   7.272   0.405
36522SOL     OW11404  12.594  12.017   4.336
36522SOL    HW111405  12.598  12.021   4.240
36522SOL    HW211406  12.674  11.970   4.361
36523SOL     OW11407   3.066   2.210   0.882
36523SOL    HW111408   2.989   2.188   0.933
36523SOL    HW211409   3.105   2.284   0.927
36524SOL     OW11410   2.037  12.399  10.019
36524SOL    HW111411   1.941  12.395  10.016
36524SOL    HW211412   2.063  12.317  10.061
36525SOL     OW11413   0.226  12.622   3.142
36525SOL    HW111414   0.261  12.641   3.055
36525SOL    HW211415   0.204  12.529   3.139
36526SOL     OW11416   5.814  10.440   5.757
36526SOL    HW111417   5.828  10.531   5.730
36526SOL    HW211418   5.901  10.401   5.753
36527SOL     OW11419  14.640  13.654   5.608
36527SOL    HW111420  14.589  13.577   5.634
36527SOL    HW211421  14.585  13.729   5.631
36528SOL     OW11422   7.856   5.519   7.438
36528SOL    HW111423   7.908   5.527   7.518
36528SOL    HW211424   7.821   5.608   7.424
36529SOL     OW11425   9.329   1.147  11.156
36529SOL    HW111426   9.391   1.208  11.114
36529SOL    HW211427   9.247   1.195  11.159
36530SOL     OW11428   3.102   8.239   1.412
36530SOL    HW111429   3.121   8.212   1.502
36530SOL    HW211430   3.019   8.287   1.418
36531SOL     OW11431   9.417   8.603  10.814
36531SOL    HW111432   9.480   8.671  10.836
36531SOL    HW211433   9.394   8.620  10.723
36532SOL     OW11434   5.200  14.501  11.956
36532SOL    HW111435   5.240  14.546  11.882
36532SOL    HW211436   5.140  14.566  11.994
36533SOL     OW11437   6.746   6.540   0.508
36533SOL    HW111438   6.731   6.594   0.430
36533SOL    HW211439   6.751   6.603   0.580
36534SOL     OW11440  12.865  11.139   8.664
36534SOL    HW111441  12.888  11.067   8.605
36534SOL    HW211442  12.795  11.185   8.619
36535SOL     OW11443   2.676   1.171   1.247
36535SOL    HW111444   2.750   1.187   1.188
36535SOL    HW211445   2.692   1.229   1.322
36536SOL     OW11446  13.819  12.827  13.674
36536SOL    HW111447  13.753  12.816  13.743
36536SOL    HW211448  13.769  12.825  13.593
36537SOL     OW11449   6.857   0.986   9.642
36537SOL    HW111450   6.815   0.913   9.687
36537SOL    HW211451   6.826   1.064   9.688
36538SOL     OW11452   6.912   5.005   1.471
36538SOL    HW111453   6.885   5.091   1.504
36538SOL    HW211454   6.831   4.954   1.468
36539SOL     OW11455   2.689   8.254   7.986
36539SOL    HW111456   2.741   8.334   7.989
36539SOL    HW211457   2.664   8.238   8.077
36540SOL     OW11458  14.762   1.695   2.487
36540SOL    HW111459  14.854   1.706   2.465
36540SOL    HW211460  14.735   1.617   2.439
36541SOL     OW11461   4.965   6.893   8.979
36541SOL    HW111462   4.940   6.876   9.070
36541SOL    HW211463   5.057   6.865   8.974
36542SOL     OW11464  11.044   8.249  12.460
36542SOL    HW111465  11.000   8.219  12.380
36542SOL    HW211466  11.137   8.238  12.442
36543SOL     OW11467   4.534  14.149   4.031
36543SOL    HW111468   4.563  14.120   4.118
36543SOL    HW211469   4.541  14.245   4.035
36544SOL     OW11470   8.684   0.210  11.091
36544SOL    HW111471   8.723   0.297  11.102
36544SOL    HW211472   8.640   0.214  11.006
36545SOL     OW11473   5.265   7.974   6.039
36545SOL    HW111474   5.187   7.965   5.984
36545SOL    HW211475   5.264   7.896   6.095
36546SOL     OW11476   3.611   9.179   5.233
36546SOL    HW111477   3.587   9.218   5.317
36546SOL    HW211478   3.537   9.122   5.211
36547SOL     OW11479  13.628   2.717  10.746
36547SOL    HW111480  13.552   2.772  10.768
36547SOL    HW211481  13.697   2.747  10.806
36548SOL     OW11482   8.872   4.584   1.984
36548SOL    HW111483   8.955   4.631   1.981
36548SOL    HW211484   8.888   4.512   2.045
36549SOL     OW11485   2.982   7.594   4.185
36549SOL    HW111486   2.936   7.516   4.217
36549SOL    HW211487   2.988   7.582   4.091
36550SOL     OW11488   9.717   5.152   0.951
36550SOL    HW111489   9.627   5.168   0.925
36550SOL    HW211490   9.731   5.208   1.026
36551SOL     OW11491   4.840   4.648   6.982
36551SOL    HW111492   4.748   4.622   6.975
36551SOL    HW211493   4.866   4.618   7.069
36552SOL     OW11494  14.486  13.200   1.829
36552SOL    HW111495  14.549  13.270   1.847
36552SOL    HW211496  14.414  13.244   1.783
36553SOL     OW11497  10.351  13.376  10.564
36553SOL    HW111498  10.337  13.463  10.601
36553SOL    HW211499  10.381  13.323  10.638
36554SOL     OW11500   3.725   1.967   0.024
36554SOL    HW111501   3.716   2.052  14.857
36554SOL    HW211502   3.671   1.907  14.848
36555SOL     OW11503   5.794  11.380   2.072
36555SOL    HW111504   5.872  11.326   2.088
36555SOL    HW211505   5.808  11.458   2.127
36556SOL     OW11506   8.110   0.226  10.147
36556SOL    HW111507   8.067   0.302  10.108
36556SOL    HW211508   8.064   0.211  10.229
36557SOL     OW11509   8.797  12.214   9.410
36557SOL    HW111510   8.711  12.257   9.400
36557SOL    HW211511   8.853  12.282   9.446
36558SOL     OW11512   6.386   9.769   4.963
36558SOL    HW111513   6.430   9.854   4.956
36558SOL    HW211514   6.449   9.713   5.007
36559SOL     OW11515   5.809  12.628   9.457
36559SOL    HW111516   5.734  12.657   9.510
36559SOL    HW211517   5.770  12.583   9.382
36560SOL     OW11518   1.474  11.757   1.017
36560SOL    HW111519   1.501  11.849   1.005
36560SOL    HW211520   1.466  11.723   0.928
36561SOL     OW11521   0.784  10.643  11.799
36561SOL    HW111522   0.869  10.598  11.794
36561SOL    HW211523   0.806  10.735  11.806
36562SOL     OW11524   5.842   7.913   4.964
36562SOL    HW111525   5.899   7.976   4.920
36562SOL    HW211526   5.893   7.831   4.963
36563SOL     OW11527   5.127   4.739   7.353
36563SOL    HW111528   5.208   4.786   7.373
36563SOL    HW211529   5.060   4.806   7.351
36564SOL     OW11530  12.207  14.167   8.873
36564SOL    HW111531  12.173  14.252   8.902
36564SOL    HW211532  12.231  14.122   8.954
36565SOL     OW11533   7.005   1.447  14.471
36565SOL    HW111534   6.996   1.529  14.519
36565SOL    HW211535   7.076   1.462  14.409
36566SOL     OW11536   8.017   8.130   4.182
36566SOL    HW111537   8.054   8.078   4.253
36566SOL    HW211538   7.926   8.101   4.176
36567SOL     OW11539   0.693   3.770   5.349
36567SOL    HW111540   0.627   3.730   5.406
36567SOL    HW211541   0.661   3.754   5.260
36568SOL     OW11542   4.520   7.048   3.207
36568SOL    HW111543   4.589   6.996   3.247
36568SOL    HW211544   4.556   7.137   3.203
36569SOL     OW11545  11.078  12.939   0.116
36569SOL    HW111546  11.070  12.982   0.201
36569SOL    HW211547  11.155  12.882   0.125
36570SOL     OW11548   5.756   2.828   5.057
36570SOL    HW111549   5.719   2.744   5.081
36570SOL    HW211550   5.820   2.808   4.989
36571SOL     OW11551   5.807  12.766   3.677
36571SOL    HW111552   5.766  12.734   3.757
36571SOL    HW211553   5.782  12.702   3.610
36572SOL     OW11554  10.125   4.075   6.431
36572SOL    HW111555  10.165   3.990   6.447
36572SOL    HW211556  10.160   4.103   6.347
36573SOL     OW11557   9.812   6.131  12.160
36573SOL    HW111558   9.880   6.189  12.193
36573SOL    HW211559   9.812   6.056  12.220
36574SOL     OW11560   0.089   3.051   9.731
36574SOL    HW111561   0.000   3.052   9.695
36574SOL    HW211562   0.099   3.138   9.770
36575SOL     OW11563   7.682   0.286   6.779
36575SOL    HW111564   7.629   0.348   6.830
36575SOL    HW211565   7.712   0.337   6.704
36576SOL     OW11566  11.830   9.474  12.512
36576SOL    HW111567  11.755   9.434  12.557
36576SOL    HW211568  11.904   9.418  12.536
36577SOL     OW11569  14.597  12.829  12.280
36577SOL    HW111570  14.601  12.912  12.232
36577SOL    HW211571  14.598  12.855  12.373
36578SOL     OW11572  11.595  12.090   9.457
36578SOL    HW111573  11.515  12.047   9.490
36578SOL    HW211574  11.581  12.183   9.475
36579SOL     OW11575   9.957   8.677   5.631
36579SOL    HW111576   9.985   8.586   5.642
36579SOL    HW211577  10.039   8.726   5.626
36580SOL     OW11578   8.886   9.897   0.608
36580SOL    HW111579   8.807   9.876   0.558
36580SOL    HW211580   8.949   9.925   0.542
36581SOL     OW11581   4.103   5.344   5.315
36581SOL    HW111582   4.130   5.299   5.396
36581SOL    HW211583   4.018   5.383   5.336
36582SOL     OW11584   5.617   2.205   4.255
36582SOL    HW111585   5.621   2.158   4.172
36582SOL    HW211586   5.707   2.229   4.274
36583SOL     OW11587  10.591   5.967   1.663
36583SOL    HW111588  10.511   5.921   1.689
36583SOL    HW211589  10.563   6.058   1.652
36584SOL     OW11590   6.066  12.446   6.385
36584SOL    HW111591   5.971  12.461   6.382
36584SOL    HW211592   6.103  12.519   6.336
36585SOL     OW11593  14.475  10.296   8.885
36585SOL    HW111594  14.448  10.266   8.798
36585SOL    HW211595  14.448  10.388   8.888
36586SOL     OW11596   2.573   4.345  11.800
36586SOL    HW111597   2.506   4.277  11.792
36586SOL    HW211598   2.611   4.332  11.887
36587SOL     OW11599   7.809   3.517  12.758
36587SOL    HW111600   7.893   3.560  12.741
36587SOL    HW211601   7.790   3.469  12.678
36588SOL     OW11602   9.793   1.164  12.589
36588SOL    HW111603   9.786   1.104  12.515
36588SOL    HW211604   9.721   1.227  12.575
36589SOL     OW11605  12.749   0.974  13.623
36589SOL    HW111606  12.665   0.972  13.578
36589SOL    HW211607  12.814   0.971  13.553
36590SOL     OW11608   3.498   0.530  11.743
36590SOL    HW111609   3.503   0.532  11.839
36590SOL    HW211610   3.424   0.472  11.724
36591SOL     OW11611  14.777   3.908   0.166
36591SOL    HW111612  14.843   3.977   0.173
36591SOL    HW211613  14.719   3.923   0.240
36592SOL     OW11614  13.032   7.668   1.752
36592SOL    HW111615  13.076   7.725   1.689
36592SOL    HW211616  12.939   7.691   1.746
36593SOL     OW11617   5.653  12.881  14.088
36593SOL    HW111618   5.660  12.806  14.147
36593SOL    HW211619   5.590  12.940  14.130
36594SOL     OW11620  11.025   6.434  14.776
36594SOL    HW111621  10.953   6.431  14.714
36594SOL    HW211622  11.043   6.527  14.788
36595SOL     OW11623  11.914  13.189   3.935
36595SOL    HW111624  11.837  13.135   3.919
36595SOL    HW211625  11.919  13.248   3.859
36596SOL     OW11626  10.168   3.115   9.387
36596SOL    HW111627  10.128   3.067   9.460
36596SOL    HW211628  10.190   3.200   9.424
36597SOL     OW11629  14.333   4.854  13.032
36597SOL    HW111630  14.255   4.897  12.997
36597SOL    HW211631  14.404   4.915  13.015
36598SOL     OW11632  11.172  13.506   9.869
36598SOL    HW111633  11.140  13.421   9.837
36598SOL    HW211634  11.267  13.497   9.868
36599SOL     OW11635  13.905  10.972   4.942
36599SOL    HW111636  13.829  10.918   4.924
36599SOL    HW211637  13.968  10.913   4.984
36600SOL     OW11638  11.148   3.457   5.330
36600SOL    HW111639  11.073   3.434   5.276
36600SOL    HW211640  11.187   3.534   5.287
36601SOL     OW11641  12.522   7.725   3.318
36601SOL    HW111642  12.595   7.730   3.379
36601SOL    HW211643  12.549   7.660   3.252
36602SOL     OW11644   3.650   6.407   7.742
36602SOL    HW111645   3.575   6.466   7.733
36602SOL    HW211646   3.714   6.440   7.679
36603SOL     OW11647   4.516   2.866   9.459
36603SOL    HW111648   4.531   2.781   9.417
36603SOL    HW211649   4.564   2.928   9.405
36604SOL     OW11650  13.975   4.675   5.553
36604SOL    HW111651  13.894   4.636   5.585
36604SOL    HW211652  13.947   4.757   5.512
36605SOL     OW11653   5.182   3.584   6.066
36605SOL    HW111654   5.165   3.635   6.145
36605SOL    HW211655   5.201   3.495   6.098
36606SOL     OW11656   0.622   9.068   7.423
36606SOL    HW111657   0.711   9.075   7.458
36606SOL    HW211658   0.575   9.014   7.487
36607SOL     OW11659   7.719   7.906  12.213
36607SOL    HW111660   7.663   7.917  12.136
36607SOL    HW211661   7.794   7.856  12.181
36608SOL     OW11662   4.818  14.352   4.861
36608SOL    HW111663   4.907  14.330   4.832
36608SOL    HW211664   4.826  14.364   4.956
36609SOL     OW11665   5.838   1.706  12.618
36609SOL    HW111666   5.891   1.771  12.664
36609SOL    HW211667   5.864   1.713  12.527
36610SOL     OW11668   5.329   1.821   1.584
36610SOL    HW111669   5.409   1.873   1.585
36610SOL    HW211670   5.349   1.747   1.527
36611SOL     OW11671   3.831   6.042   9.685
36611SOL    HW111672   3.820   6.123   9.735
36611SOL    HW211673   3.848   6.072   9.596
36612SOL     OW11674   1.626  10.678  11.214
36612SOL    HW111675   1.564  10.605  11.220
36612SOL    HW211676   1.652  10.680  11.122
36613SOL     OW11677   0.292   2.957  14.159
36613SOL    HW111678   0.269   3.050  14.150
36613SOL    HW211679   0.376   2.958  14.204
36614SOL     OW11680   3.104   2.053   3.522
36614SOL    HW111681   3.145   2.073   3.438
36614SOL    HW211682   3.175   2.061   3.586
36615SOL     OW11683   6.009  10.198   8.376
36615SOL    HW111684   5.995  10.293   8.374
36615SOL    HW211685   6.083  10.186   8.436
36616SOL     OW11686   1.068   1.595  11.732
36616SOL    HW111687   1.057   1.599  11.637
36616SOL    HW211688   0.981   1.617  11.767
36617SOL     OW11689   3.648   7.245   9.876
36617SOL    HW111690   3.618   7.336   9.874
36617SOL    HW211691   3.740   7.249   9.850
36618SOL     OW11692   4.557  14.511   6.258
36618SOL    HW111693   4.503  14.590   6.268
36618SOL    HW211694   4.628  14.522   6.321
36619SOL     OW11695  11.018  10.369  12.830
36619SOL    HW111696  10.993  10.379  12.921
36619SOL    HW211697  11.111  10.394  12.828
36620SOL     OW11698  12.041  14.131  13.120
36620SOL    HW111699  12.126  14.088  13.115
36620SOL    HW211700  12.055  14.218  13.081
36621SOL     OW11701  14.148  13.748  14.632
36621SOL    HW111702  14.171  13.802  14.556
36621SOL    HW211703  14.227  13.698  14.651
36622SOL     OW11704  14.479   2.780   0.977
36622SOL    HW111705  14.440   2.743   0.897
36622SOL    HW211706  14.570   2.751   0.975
36623SOL     OW11707   1.865  13.570   7.789
36623SOL    HW111708   1.926  13.578   7.716
36623SOL    HW211709   1.915  13.596   7.866
36624SOL     OW11710   4.222   2.521  11.033
36624SOL    HW111711   4.249   2.433  11.061
36624SOL    HW211712   4.181   2.559  11.110
36625SOL     OW11713   2.986  12.276   5.604
36625SOL    HW111714   3.055  12.259   5.540
36625SOL    HW211715   2.917  12.214   5.581
36626SOL     OW11716   2.314  12.376   2.515
36626SOL    HW111717   2.239  12.411   2.467
36626SOL    HW211718   2.355  12.452   2.555
36627SOL     OW11719   0.469   1.809   1.919
36627SOL    HW111720   0.470   1.891   1.869
36627SOL    HW211721   0.521   1.828   1.997
36628SOL     OW11722   9.470   2.647  13.499
36628SOL    HW111723   9.377   2.632  13.520
36628SOL    HW211724   9.501   2.704  13.570
36629SOL     OW11725   7.566   4.626  12.282
36629SOL    HW111726   7.605   4.672  12.356
36629SOL    HW211727   7.542   4.695  12.221
36630SOL     OW11728   9.969   8.862   3.874
36630SOL    HW111729  10.055   8.833   3.904
36630SOL    HW211730   9.987   8.928   3.807
36631SOL     OW11731   0.144  10.536   4.663
36631SOL    HW111732   0.235  10.567   4.655
36631SOL    HW211733   0.151  10.441   4.660
36632SOL     OW11734   8.948   7.448   7.499
36632SOL    HW111735   8.966   7.518   7.435
36632SOL    HW211736   9.034   7.426   7.534
36633SOL     OW11737  12.239  11.658   9.006
36633SOL    HW111738  12.332  11.681   9.007
36633SOL    HW211739  12.193  11.741   9.016
36634SOL     OW11740   8.555   3.094  11.718
36634SOL    HW111741   8.570   3.005  11.750
36634SOL    HW211742   8.635   3.142  11.742
36635SOL     OW11743  10.930   5.895   9.683
36635SOL    HW111744  10.911   5.982   9.718
36635SOL    HW211745  10.846   5.866   9.646
36636SOL     OW11746  13.689   6.580   9.565
36636SOL    HW111747  13.617   6.564   9.504
36636SOL    HW211748  13.689   6.503   9.623
36637SOL     OW11749   4.577   0.149   9.549
36637SOL    HW111750   4.499   0.201   9.569
36637SOL    HW211751   4.611   0.124   9.635
36638SOL     OW11752   2.865   8.766   3.346
36638SOL    HW111753   2.776   8.770   3.314
36638SOL    HW211754   2.874   8.677   3.381
36639SOL     OW11755   0.493   3.277   5.449
36639SOL    HW111756   0.499   3.229   5.367
36639SOL    HW211757   0.438   3.222   5.505
36640SOL     OW11758  10.184   7.526  12.831
36640SOL    HW111759  10.227   7.446  12.862
36640SOL    HW211760  10.256   7.583  12.803
36641SOL     OW11761  11.143  13.880  13.006
36641SOL    HW111762  11.089  13.816  13.052
36641SOL    HW211763  11.139  13.853  12.914
36642SOL     OW11764   1.135   1.611   8.772
36642SOL    HW111765   1.212   1.652   8.811
36642SOL    HW211766   1.068   1.680   8.773
36643SOL     OW11767   1.541  12.409   0.783
36643SOL    HW111768   1.518  12.412   0.876
36643SOL    HW211769   1.627  12.367   0.780
36644SOL     OW11770  14.254  14.590   3.066
36644SOL    HW111771  14.272  14.682   3.086
36644SOL    HW211772  14.218  14.555   3.148
36645SOL     OW11773   3.998  14.459   6.971
36645SOL    HW111774   4.054  14.500   7.036
36645SOL    HW211775   4.044  14.379   6.946
36646SOL     OW11776  13.845   0.196   4.648
36646SOL    HW111777  13.769   0.249   4.624
36646SOL    HW211778  13.822   0.160   4.733
36647SOL     OW11779   9.085   2.030   5.685
36647SOL    HW111780   9.110   2.029   5.777
36647SOL    HW211781   9.103   1.941   5.655
36648SOL     OW11782   7.332  14.618  12.942
36648SOL    HW111783   7.373  14.627  12.856
36648SOL    HW211784   7.238  14.622  12.924
36649SOL     OW11785   4.725   4.979   9.152
36649SOL    HW111786   4.796   4.937   9.104
36649SOL    HW211787   4.769   5.019   9.228
36650SOL     OW11788  14.523   2.597   2.560
36650SOL    HW111789  14.494   2.513   2.526
36650SOL    HW211790  14.451   2.626   2.616
36651SOL     OW11791   0.403   1.230   6.176
36651SOL    HW111792   0.489   1.195   6.199
36651SOL    HW211793   0.345   1.154   6.177
36652SOL     OW11794  13.452   4.074  13.528
36652SOL    HW111795  13.408   4.136  13.470
36652SOL    HW211796  13.385   4.047  13.591
36653SOL     OW11797  13.987   9.865   4.198
36653SOL    HW111798  13.954   9.834   4.113
36653SOL    HW211799  14.013   9.786   4.244
36654SOL     OW11800  10.184  11.340   3.491
36654SOL    HW111801  10.202  11.332   3.585
36654SOL    HW211802  10.103  11.390   3.486
36655SOL     OW11803  13.296  14.604  12.770
36655SOL    HW111804  13.314  14.698  12.773
36655SOL    HW211805  13.382  14.563  12.779
36656SOL     OW11806   4.197   4.842   1.603
36656SOL    HW111807   4.238   4.869   1.685
36656SOL    HW211808   4.246   4.764   1.576
36657SOL     OW11809  14.454  14.655   4.368
36657SOL    HW111810  14.419  14.741   4.390
36657SOL    HW211811  14.385  14.612   4.318
36658SOL     OW11812   1.907   4.862   9.145
36658SOL    HW111813   1.891   4.871   9.051
36658SOL    HW211814   1.908   4.952   9.178
36659SOL     OW11815  14.104   6.825   2.261
36659SOL    HW111816  14.051   6.902   2.282
36659SOL    HW211817  14.189   6.842   2.301
36660SOL     OW11818  11.159  13.043  11.388
36660SOL    HW111819  11.073  13.085  11.389
36660SOL    HW211820  11.212  13.100  11.333
36661SOL     OW11821   6.144   0.806   0.866
36661SOL    HW111822   6.064   0.755   0.852
36661SOL    HW211823   6.197   0.789   0.788
36662SOL     OW11824   4.400  10.482   7.221
36662SOL    HW111825   4.470  10.439   7.172
36662SOL    HW211826   4.441  10.508   7.304
36663SOL     OW11827   5.874   8.697   4.878
36663SOL    HW111828   5.891   8.612   4.837
36663SOL    HW211829   5.807   8.737   4.824
36664SOL     OW11830  14.481   8.247   4.962
36664SOL    HW111831  14.444   8.161   4.941
36664SOL    HW211832  14.462   8.300   4.884
36665SOL     OW11833   7.746   5.516   2.481
36665SOL    HW111834   7.725   5.575   2.554
36665SOL    HW211835   7.809   5.565   2.428
36666SOL     OW11836   9.111  11.404   1.510
36666SOL    HW111837   9.038  11.372   1.563
36666SOL    HW211838   9.130  11.333   1.449
36667SOL     OW11839   1.006  13.006   9.079
36667SOL    HW111840   1.003  13.025   8.985
36667SOL    HW211841   1.026  12.913   9.085
36668SOL     OW11842  11.656   3.335   0.146
36668SOL    HW111843  11.588   3.274   0.118
36668SOL    HW211844  11.684   3.379   0.066
36669SOL     OW11845  10.060   0.192  10.723
36669SOL    HW111846   9.995   0.196  10.794
36669SOL    HW211847  10.141   0.163  10.767
36670SOL     OW11848  13.363  11.467  13.614
36670SOL    HW111849  13.428  11.537  13.620
36670SOL    HW211850  13.285  11.504  13.656
36671SOL     OW11851   4.758   5.679   7.191
36671SOL    HW111852   4.789   5.664   7.101
36671SOL    HW211853   4.773   5.595   7.235
36672SOL     OW11854   0.922   1.225   8.493
36672SOL    HW111855   0.871   1.154   8.534
36672SOL    HW211856   1.011   1.211   8.524
36673SOL     OW11857   3.942  14.202  14.148
36673SOL    HW111858   3.869  14.194  14.209
36673SOL    HW211859   3.913  14.157  14.069
36674SOL     OW11860   7.631   4.034   1.746
36674SOL    HW111861   7.589   3.950   1.765
36674SOL    HW211862   7.565   4.082   1.696
36675SOL     OW11863   9.267   9.736   6.257
36675SOL    HW111864   9.358   9.709   6.254
36675SOL    HW211865   9.235   9.726   6.167
36676SOL     OW11866   8.378   4.706   9.601
36676SOL    HW111867   8.412   4.694   9.513
36676SOL    HW211868   8.455   4.725   9.655
36677SOL     OW11869  10.742   9.740   6.835
36677SOL    HW111870  10.771   9.713   6.748
36677SOL    HW211871  10.671   9.802   6.819
36678SOL     OW11872  10.185   4.142  11.021
36678SOL    HW111873  10.163   4.179  11.107
36678SOL    HW211874  10.277   4.165  11.008
36679SOL     OW11875   1.539   9.576   3.518
36679SOL    HW111876   1.453   9.577   3.560
36679SOL    HW211877   1.575   9.490   3.538
36680SOL     OW11878   3.916  14.275  10.753
36680SOL    HW111879   3.846  14.269  10.688
36680SOL    HW211880   3.991  14.309  10.703
36681SOL     OW11881   1.662   2.444   6.076
36681SOL    HW111882   1.676   2.510   6.008
36681SOL    HW211883   1.569   2.449   6.097
36682SOL     OW11884  14.561   4.489  13.415
36682SOL    HW111885  14.623   4.550  13.455
36682SOL    HW211886  14.537   4.530  13.331
36683SOL     OW11887   4.113  11.869   1.364
36683SOL    HW111888   4.192  11.920   1.343
36683SOL    HW211889   4.046  11.905   1.307
36684SOL     OW11890   9.162   2.554   1.033
36684SOL    HW111891   9.080   2.564   0.984
36684SOL    HW211892   9.169   2.459   1.047
36685SOL     OW11893   3.190   6.105   0.856
36685SOL    HW111894   3.169   6.175   0.917
36685SOL    HW211895   3.248   6.146   0.792
36686SOL     OW11896   5.633   3.909   9.875
36686SOL    HW111897   5.646   3.918   9.780
36686SOL    HW211898   5.569   3.839   9.884
36687SOL     OW11899  14.840   9.754   1.516
36687SOL    HW111900  14.871   9.844   1.510
36687SOL    HW211901   0.034   9.708   1.563
36688SOL     OW11902  11.959   6.671   0.102
36688SOL    HW111903  11.956   6.660   0.007
36688SOL    HW211904  11.919   6.591   0.137
36689SOL     OW11905   3.947   2.132   2.882
36689SOL    HW111906   3.852   2.145   2.893
36689SOL    HW211907   3.986   2.184   2.952
36690SOL     OW11908   0.864   4.896   7.016
36690SOL    HW111909   0.854   4.953   6.940
36690SOL    HW211910   0.834   4.810   6.987
36691SOL     OW11911   1.916  14.204   0.452
36691SOL    HW111912   1.932  14.164   0.366
36691SOL    HW211913   1.863  14.140   0.499
36692SOL     OW11914   2.231   0.901   8.071
36692SOL    HW111915   2.148   0.869   8.106
36692SOL    HW211916   2.212   0.921   7.979
36693SOL     OW11917   9.430  10.087   5.439
36693SOL    HW111918   9.461  10.156   5.497
36693SOL    HW211919   9.488  10.013   5.457
36694SOL     OW11920   6.077  13.664   5.971
36694SOL    HW111921   6.129  13.707   5.904
36694SOL    HW211922   6.124  13.583   5.990
36695SOL     OW11923   1.094   0.857  14.510
36695SOL    HW111924   1.130   0.834  14.595
36695SOL    HW211925   1.164   0.905  14.466
36696SOL     OW11926   0.304  12.624   6.190
36696SOL    HW111927   0.280  12.580   6.108
36696SOL    HW211928   0.349  12.703   6.163
36697SOL     OW11929  11.078  13.923  12.327
36697SOL    HW111930  10.991  13.909  12.365
36697SOL    HW211931  11.094  14.017  12.340
36698SOL     OW11932   6.739   5.279   4.747
36698SOL    HW111933   6.800   5.253   4.678
36698SOL    HW211934   6.739   5.374   4.744
36699SOL     OW11935   6.591   1.234   4.627
36699SOL    HW111936   6.673   1.265   4.588
36699SOL    HW211937   6.619   1.177   4.699
36700SOL     OW11938   5.437   8.810   0.208
36700SOL    HW111939   5.436   8.796   0.113
36700SOL    HW211940   5.394   8.732   0.244
36701SOL     OW11941   5.575   1.774   3.501
36701SOL    HW111942   5.616   1.688   3.495
36701SOL    HW211943   5.496   1.767   3.447
36702SOL     OW11944   2.259   9.344   2.939
36702SOL    HW111945   2.290   9.297   2.861
36702SOL    HW211946   2.332   9.339   3.001
36703SOL     OW11947   0.017   1.662  10.107
36703SOL    HW111948   0.076   1.608  10.054
36703SOL    HW211949  14.806   1.633  10.082
36704SOL     OW11950   2.517   1.019  10.967
36704SOL    HW111951   2.495   0.931  10.998
36704SOL    HW211952   2.564   1.059  11.040
36705SOL     OW11953  11.510   4.562   8.872
36705SOL    HW111954  11.498   4.595   8.783
36705SOL    HW211955  11.605   4.553   8.882
36706SOL     OW11956   3.728   7.789   3.899
36706SOL    HW111957   3.813   7.815   3.863
36706SOL    HW211958   3.730   7.693   3.895
36707SOL     OW11959   3.476   1.163  11.689
36707SOL    HW111960   3.470   1.105  11.765
36707SOL    HW211961   3.385   1.184  11.668
36708SOL     OW11962   1.298   1.748   5.550
36708SOL    HW111963   1.335   1.764   5.638
36708SOL    HW211964   1.278   1.654   5.550
36709SOL     OW11965   2.237  11.058   7.880
36709SOL    HW111966   2.234  11.152   7.866
36709SOL    HW211967   2.149  11.034   7.908
36710SOL     OW11968   0.897   8.959   3.962
36710SOL    HW111969   0.908   9.019   3.888
36710SOL    HW211970   0.864   8.878   3.922
36711SOL     OW11971   3.054   2.334   3.683
36711SOL    HW111972   2.990   2.328   3.754
36711SOL    HW211973   3.025   2.270   3.618
36712SOL     OW11974  11.823  10.729  14.850
36712SOL    HW111975  11.790  10.700   0.059
36712SOL    HW211976  11.819  10.651  14.795
36713SOL     OW11977   4.454  12.590   9.965
36713SOL    HW111978   4.437  12.537   9.887
36713SOL    HW211979   4.509  12.534  10.020
36714SOL     OW11980   8.522   2.590   0.194
36714SOL    HW111981   8.584   2.518   0.188
36714SOL    HW211982   8.559   2.649   0.260
36715SOL     OW11983  11.588  13.221   1.064
36715SOL    HW111984  11.667  13.202   1.012
36715SOL    HW211985  11.573  13.315   1.052
36716SOL     OW11986   0.125  10.780  13.466
36716SOL    HW111987   0.133  10.748  13.376
36716SOL    HW211988   0.153  10.871  13.462
36717SOL     OW11989  13.822  10.353  10.172
36717SOL    HW111990  13.792  10.432  10.218
36717SOL    HW211991  13.917  10.357  10.177
36718SOL     OW11992  10.334   4.658   7.830
36718SOL    HW111993  10.294   4.719   7.768
36718SOL    HW211994  10.378   4.713   7.894
36719SOL     OW11995   3.045  12.265   3.698
36719SOL    HW111996   2.999  12.304   3.773
36719SOL    HW211997   3.040  12.332   3.629
36720SOL     OW11998   7.853   0.173  12.982
36720SOL    HW111999   7.807   0.089  12.979
36720SOL    HW212000   7.866   0.197  12.891
36721SOL     OW12001   7.305   0.878  12.690
36721SOL    HW112002   7.357   0.863  12.769
36721SOL    HW212003   7.361   0.847  12.619
36722SOL     OW12004  11.299   4.395  13.732
36722SOL    HW112005  11.251   4.469  13.694
36722SOL    HW212006  11.231   4.339  13.769
36723SOL     OW12007   1.452  11.096  13.984
36723SOL    HW112008   1.527  11.042  13.956
36723SOL    HW212009   1.490  11.161  14.043
36724SOL     OW12010   3.652  13.383   5.492
36724SOL    HW112011   3.573  13.435   5.477
36724SOL    HW212012   3.682  13.359   5.404
36725SOL     OW12013   3.209  10.682   5.952
36725SOL    HW112014   3.262  10.760   5.968
36725SOL    HW212015   3.242  10.617   6.014
36726SOL     OW12016   2.512   8.091   0.188
36726SOL    HW112017   2.451   8.017   0.184
36726SOL    HW212018   2.479   8.153   0.123
36727SOL     OW12019   0.467   1.910  13.159
36727SOL    HW112020   0.515   1.828  13.171
36727SOL    HW212021   0.516   1.957  13.091
36728SOL     OW12022  10.195   9.777  13.081
36728SOL    HW112023  10.108   9.797  13.047
36728SOL    HW212024  10.254   9.837  13.034
36729SOL     OW12025   1.396   0.311   4.456
36729SOL    HW112026   1.342   0.311   4.535
36729SOL    HW212027   1.379   0.396   4.415
36730SOL     OW12028   3.790   1.305   1.772
36730SOL    HW112029   3.751   1.385   1.737
36730SOL    HW212030   3.877   1.332   1.803
36731SOL     OW12031   0.875  11.842   7.344
36731SOL    HW112032   0.877  11.804   7.256
36731SOL    HW212033   0.966  11.868   7.360
36732SOL     OW12034  11.708   3.994   8.029
36732SOL    HW112035  11.779   3.959   7.977
36732SOL    HW212036  11.637   4.010   7.966
36733SOL     OW12037  12.814   3.244  14.012
36733SOL    HW112038  12.811   3.166  13.958
36733SOL    HW212039  12.810   3.211  14.102
36734SOL     OW12040   6.656   9.211   6.250
36734SOL    HW112041   6.692   9.126   6.279
36734SOL    HW212042   6.726   9.249   6.197
36735SOL     OW12043   1.298  12.023   5.224
36735SOL    HW112044   1.224  12.080   5.242
36735SOL    HW212045   1.370  12.059   5.276
36736SOL     OW12046  12.120  12.793  11.683
36736SOL    HW112047  12.148  12.718  11.631
36736SOL    HW212048  12.195  12.852  11.681
36737SOL     OW12049   0.287  14.807   9.763
36737SOL    HW112050   0.379  14.826   9.743
36737SOL    HW212051   0.281  14.712   9.763
36738SOL     OW12052   0.409  11.818   7.972
36738SOL    HW112053   0.348  11.872   8.021
36738SOL    HW212054   0.354  11.752   7.930
36739SOL     OW12055   8.784   2.096   8.536
36739SOL    HW112056   8.748   2.173   8.579
36739SOL    HW212057   8.712   2.060   8.485
36740SOL     OW12058   7.845   2.077   4.232
36740SOL    HW112059   7.768   2.023   4.249
36740SOL    HW212060   7.827   2.160   4.276
36741SOL     OW12061   1.199   3.422   3.395
36741SOL    HW112062   1.122   3.459   3.352
36741SOL    HW212063   1.188   3.327   3.385
36742SOL     OW12064   8.123   7.495   3.513
36742SOL    HW112065   8.093   7.503   3.422
36742SOL    HW212066   8.210   7.455   3.506
36743SOL     OW12067   8.383  12.884   8.309
36743SOL    HW112068   8.336  12.876   8.226
36743SOL    HW212069   8.321  12.854   8.375
36744SOL     OW12070   7.333   2.961  11.335
36744SOL    HW112071   7.390   3.032  11.365
36744SOL    HW212072   7.321   2.979  11.241
36745SOL     OW12073   7.606   6.684  11.801
36745SOL    HW112074   7.531   6.624  11.796
36745SOL    HW212075   7.615   6.704  11.894
36746SOL     OW12076   1.957   4.370   5.317
36746SOL    HW112077   2.052   4.355   5.315
36746SOL    HW212078   1.945   4.438   5.383
36747SOL     OW12079   1.984   0.899   5.869
36747SOL    HW112080   1.913   0.948   5.830
36747SOL    HW212081   2.063   0.949   5.848
36748SOL     OW12082   9.556   7.751  14.691
36748SOL    HW112083   9.515   7.727  14.774
36748SOL    HW212084   9.636   7.699  14.687
36749SOL     OW12085  12.818   8.079   7.750
36749SOL    HW112086  12.800   8.168   7.718
36749SOL    HW212087  12.905   8.058   7.714
36750SOL     OW12088   6.111  13.135   1.975
36750SOL    HW112089   6.164  13.055   1.975
36750SOL    HW212090   6.044  13.119   2.042
36751SOL     OW12091   2.541   6.944   0.759
36751SOL    HW112092   2.520   6.851   0.761
36751SOL    HW212093   2.456   6.988   0.763
36752SOL     OW12094  11.054   2.600   4.210
36752SOL    HW112095  11.083   2.532   4.150
36752SOL    HW212096  11.131   2.619   4.264
36753SOL     OW12097  14.439  12.623   9.377
36753SOL    HW112098  14.460  12.685   9.447
36753SOL    HW212099  14.516  12.625   9.320
36754SOL     OW12100   5.235   8.288   0.738
36754SOL    HW112101   5.260   8.204   0.777
36754SOL    HW212102   5.283   8.353   0.789
36755SOL     OW12103  14.758   5.647   3.027
36755SOL    HW112104  14.781   5.687   3.111
36755SOL    HW212105  14.721   5.562   3.050
36756SOL     OW12106   9.962   9.702  12.305
36756SOL    HW112107   9.879   9.661  12.329
36756SOL    HW212108   9.962   9.699  12.209
36757SOL     OW12109  12.412  11.754   9.642
36757SOL    HW112110  12.465  11.831   9.662
36757SOL    HW212111  12.328  11.771   9.685
36758SOL     OW12112   0.677   5.300  11.547
36758SOL    HW112113   0.741   5.363  11.578
36758SOL    HW212114   0.688   5.300  11.452
36759SOL     OW12115   1.518   2.360  11.653
36759SOL    HW112116   1.497   2.269  11.676
36759SOL    HW212117   1.589   2.384  11.712
36760SOL     OW12118  14.266   3.378   6.367
36760SOL    HW112119  14.222   3.352   6.286
36760SOL    HW212120  14.220   3.329   6.435
36761SOL     OW12121   7.183   6.427   6.999
36761SOL    HW112122   7.195   6.441   6.905
36761SOL    HW212123   7.223   6.342   7.016
36762SOL     OW12124   5.071   6.328  11.354
36762SOL    HW112125   5.016   6.249  11.351
36762SOL    HW212126   5.143   6.308  11.295
36763SOL     OW12127  13.719  13.823  10.271
36763SOL    HW112128  13.651  13.847  10.208
36763SOL    HW212129  13.798  13.866  10.238
36764SOL     OW12130   8.621   9.502  12.453
36764SOL    HW112131   8.637   9.589  12.489
36764SOL    HW212132   8.558   9.462  12.514
36765SOL     OW12133   4.563  13.087   0.001
36765SOL    HW112134   4.641  13.139  14.858
36765SOL    HW212135   4.595  13.012   0.052
36766SOL     OW12136   0.934   4.320   5.299
36766SOL    HW112137   0.930   4.380   5.224
36766SOL    HW212138   0.948   4.234   5.260
36767SOL     OW12139   2.254  14.862   8.789
36767SOL    HW112140   2.235  14.768   8.796
36767SOL    HW212141   2.203   0.026   8.859
36768SOL     OW12142  12.831   5.119   9.071
36768SOL    HW112143  12.829   5.195   9.130
36768SOL    HW212144  12.924   5.098   9.063
36769SOL     OW12145   5.561   9.967   1.233
36769SOL    HW112146   5.575  10.039   1.171
36769SOL    HW212147   5.649   9.941   1.261
36770SOL     OW12148  12.291   9.932   5.946
36770SOL    HW112149  12.273   9.857   5.888
36770SOL    HW212150  12.364   9.902   6.001
36771SOL     OW12151   5.969   9.739  12.364
36771SOL    HW112152   6.049   9.700  12.400
36771SOL    HW212153   5.903   9.724  12.432
36772SOL     OW12154   2.775   5.478   6.780
36772SOL    HW112155   2.723   5.426   6.841
36772SOL    HW212156   2.809   5.413   6.717
36773SOL     OW12157   7.616   6.786   2.144
36773SOL    HW112158   7.530   6.807   2.107
36773SOL    HW212159   7.598   6.766   2.236
36774SOL     OW12160  14.115   7.993   4.808
36774SOL    HW112161  14.051   8.032   4.748
36774SOL    HW212162  14.113   8.050   4.885
36775SOL     OW12163  13.465   5.052   7.133
36775SOL    HW112164  13.400   5.091   7.192
36775SOL    HW212165  13.414   5.003   7.069
36776SOL     OW12166   6.116   9.225   1.089
36776SOL    HW112167   6.079   9.244   1.003
36776SOL    HW212168   6.044   9.238   1.150
36777SOL     OW12169   6.812   8.535   0.941
36777SOL    HW112170   6.843   8.445   0.949
36777SOL    HW212171   6.892   8.588   0.943
36778SOL     OW12172   2.655   2.356   3.614
36778SOL    HW112173   2.569   2.317   3.599
36778SOL    HW212174   2.662   2.364   3.709
36779SOL     OW12175   1.513   3.128  14.030
36779SOL    HW112176   1.521   3.036  14.004
36779SOL    HW212177   1.590   3.145  14.084
36780SOL     OW12178   9.992   0.810   2.607
36780SOL    HW112179   9.944   0.841   2.683
36780SOL    HW212180  10.047   0.739   2.641
36781SOL     OW12181  11.340   2.253   7.030
36781SOL    HW112182  11.323   2.275   6.938
36781SOL    HW212183  11.418   2.198   7.028
36782SOL     OW12184   4.481   8.342   5.195
36782SOL    HW112185   4.566   8.386   5.189
36782SOL    HW212186   4.425   8.390   5.134
36783SOL     OW12187   8.535   1.850   3.688
36783SOL    HW112188   8.609   1.854   3.749
36783SOL    HW212189   8.547   1.926   3.630
36784SOL     OW12190   3.709   6.880  10.115
36784SOL    HW112191   3.677   6.971  10.112
36784SOL    HW212192   3.769   6.873  10.042
36785SOL     OW12193  13.730   1.487   7.055
36785SOL    HW112194  13.765   1.552   7.116
36785SOL    HW212195  13.792   1.415   7.059
36786SOL     OW12196   2.673   0.350  13.178
36786SOL    HW112197   2.716   0.300  13.247
36786SOL    HW212198   2.582   0.321  13.181
36787SOL     OW12199   8.852   5.544   9.424
36787SOL    HW112200   8.852   5.637   9.445
36787SOL    HW212201   8.763   5.515   9.443
36788SOL     OW12202  14.413   1.879   1.855
36788SOL    HW112203  14.456   1.931   1.787
36788SOL    HW212204  14.483   1.859   1.918
36789SOL     OW12205   2.151  14.738   2.960
36789SOL    HW112206   2.225  14.798   2.962
36789SOL    HW212207   2.165  14.680   3.035
36790SOL     OW12208   9.917   0.958   0.093
36790SOL    HW112209   9.931   0.943   0.186
36790SOL    HW212210   9.964   0.887   0.050
36791SOL     OW12211   1.632   0.766  11.999
36791SOL    HW112212   1.686   0.844  11.995
36791SOL    HW212213   1.542   0.799  12.004
36792SOL     OW12214   7.783   6.813   2.546
36792SOL    HW112215   7.696   6.828   2.582
36792SOL    HW212216   7.800   6.890   2.492
36793SOL     OW12217   6.241   3.915   6.627
36793SOL    HW112218   6.279   4.003   6.625
36793SOL    HW212219   6.222   3.898   6.719
36794SOL     OW12220  12.185  11.210  14.518
36794SOL    HW112221  12.162  11.122  14.547
36794SOL    HW212222  12.181  11.206  14.422
36795SOL     OW12223   5.443  14.347   3.801
36795SOL    HW112224   5.424  14.320   3.711
36795SOL    HW212225   5.452  14.265   3.849
36796SOL     OW12226  11.562  14.421   3.690
36796SOL    HW112227  11.587  14.340   3.734
36796SOL    HW212228  11.570  14.488   3.757
36797SOL     OW12229   8.113  11.786  12.934
36797SOL    HW112230   8.043  11.793  12.998
36797SOL    HW212231   8.182  11.736  12.978
36798SOL     OW12232  10.124  14.015   7.384
36798SOL    HW112233  10.076  14.023   7.301
36798SOL    HW212234  10.167  14.099   7.395
36799SOL     OW12235  13.496   0.113   2.424
36799SOL    HW112236  13.557   0.089   2.494
36799SOL    HW212237  13.415   0.135   2.469
36800SOL     OW12238   5.295  10.917   7.089
36800SOL    HW112239   5.279  10.837   7.039
36800SOL    HW212240   5.211  10.964   7.086
36801SOL     OW12241  13.669   0.453   0.842
36801SOL    HW112242  13.635   0.453   0.753
36801SOL    HW212243  13.764   0.464   0.832
36802SOL     OW12244  10.266   5.092   6.624
36802SOL    HW112245  10.342   5.087   6.566
36802SOL    HW212246  10.191   5.072   6.567
36803SOL     OW12247   7.985   7.772  10.305
36803SOL    HW112248   7.902   7.804  10.270
36803SOL    HW212249   7.984   7.678  10.287
36804SOL     OW12250   8.362   7.309   7.564
36804SOL    HW112251   8.351   7.355   7.480
36804SOL    HW212252   8.409   7.371   7.619
36805SOL     OW12253   3.246  14.461   5.258
36805SOL    HW112254   3.242  14.427   5.168
36805SOL    HW212255   3.198  14.544   5.255
36806SOL     OW12256   5.210  10.217   8.768
36806SOL    HW112257   5.169  10.137   8.802
36806SOL    HW212258   5.283  10.185   8.714
36807SOL     OW12259  11.417   2.925   4.283
36807SOL    HW112260  11.502   2.882   4.289
36807SOL    HW212261  11.432   3.015   4.314
36808SOL     OW12262   8.119  14.045   7.221
36808SOL    HW112263   8.080  14.102   7.287
36808SOL    HW212264   8.142  13.965   7.268
36809SOL     OW12265  10.180   0.391  13.354
36809SOL    HW112266  10.169   0.296  13.355
36809SOL    HW212267  10.099   0.424  13.313
36810SOL     OW12268  12.022   2.224   1.149
36810SOL    HW112269  11.965   2.291   1.186
36810SOL    HW212270  11.995   2.143   1.193
36811SOL     OW12271  11.374  10.201   2.094
36811SOL    HW112272  11.463  10.209   2.128
36811SOL    HW212273  11.319  10.200   2.173
36812SOL     OW12274   4.291   8.612   1.397
36812SOL    HW112275   4.227   8.616   1.468
36812SOL    HW212276   4.334   8.698   1.399
36813SOL     OW12277  12.656   3.298   8.019
36813SOL    HW112278  12.627   3.255   7.938
36813SOL    HW212279  12.678   3.388   7.992
36814SOL     OW12280  12.725   2.027   1.297
36814SOL    HW112281  12.762   1.984   1.374
36814SOL    HW212282  12.685   2.107   1.332
36815SOL     OW12283   0.994   2.102   6.919
36815SOL    HW112284   1.021   2.112   6.828
36815SOL    HW212285   1.061   2.047   6.958
36816SOL     OW12286   1.962   1.534   7.489
36816SOL    HW112287   1.926   1.467   7.429
36816SOL    HW212288   2.001   1.599   7.431
36817SOL     OW12289   3.194  11.907   5.340
36817SOL    HW112290   3.278  11.942   5.311
36817SOL    HW212291   3.174  11.838   5.277
36818SOL     OW12292  10.925  10.310   9.629
36818SOL    HW112293  10.947  10.218   9.642
36818SOL    HW212294  10.875  10.312   9.547
36819SOL     OW12295   3.075  11.031   4.901
36819SOL    HW112296   3.045  10.960   4.844
36819SOL    HW212297   3.028  11.109   4.870
36820SOL     OW12298   1.065  14.050  11.140
36820SOL    HW112299   1.141  14.037  11.197
36820SOL    HW212300   1.035  13.961  11.121
36821SOL     OW12301   1.937   3.852   2.582
36821SOL    HW112302   1.980   3.936   2.598
36821SOL    HW212303   1.945   3.805   2.664
36822SOL     OW12304   6.245   4.340  10.660
36822SOL    HW112305   6.203   4.379  10.583
36822SOL    HW212306   6.335   4.324  10.633
36823SOL     OW12307   4.739   2.323  12.202
36823SOL    HW112308   4.754   2.363  12.116
36823SOL    HW212309   4.821   2.336  12.249
36824SOL     OW12310  10.521  10.170  13.289
36824SOL    HW112311  10.542  10.091  13.240
36824SOL    HW212312  10.541  10.148  13.380
36825SOL     OW12313   7.528  13.344   4.979
36825SOL    HW112314   7.545  13.252   4.957
36825SOL    HW212315   7.445  13.343   5.026
36826SOL     OW12316  10.972  13.789   4.029
36826SOL    HW112317  10.903  13.810   4.090
36826SOL    HW212318  10.927  13.765   3.948
36827SOL     OW12319  10.343   3.206  14.150
36827SOL    HW112320  10.282   3.150  14.197
36827SOL    HW212321  10.430   3.178  14.180
36828SOL     OW12322   7.806   4.598   6.071
36828SOL    HW112323   7.767   4.670   6.121
36828SOL    HW212324   7.894   4.628   6.050
36829SOL     OW12325  14.003  12.573   1.244
36829SOL    HW112326  13.987  12.610   1.331
36829SOL    HW212327  14.044  12.644   1.195
36830SOL     OW12328   7.144   1.137   9.695
36830SOL    HW112329   7.144   1.043   9.682
36830SOL    HW212330   7.052   1.160   9.707
36831SOL     OW12331   9.289  13.891   5.372
36831SOL    HW112332   9.196  13.909   5.385
36831SOL    HW212333   9.309  13.925   5.285
36832SOL     OW12334   7.768   5.086   5.911
36832SOL    HW112335   7.783   4.996   5.883
36832SOL    HW212336   7.813   5.139   5.845
36833SOL     OW12337   2.176   6.034   1.167
36833SOL    HW112338   2.137   6.074   1.089
36833SOL    HW212339   2.125   6.070   1.240
36834SOL     OW12340   2.115  11.136  10.741
36834SOL    HW112341   2.029  11.108  10.710
36834SOL    HW212342   2.126  11.223  10.704
36835SOL     OW12343   4.600   8.346   2.106
36835SOL    HW112344   4.543   8.406   2.154
36835SOL    HW212345   4.645   8.296   2.174
36836SOL     OW12346  13.014   0.359   7.244
36836SOL    HW112347  13.056   0.377   7.328
36836SOL    HW212348  12.996   0.445   7.207
36837SOL     OW12349  12.712   1.638  13.086
36837SOL    HW112350  12.723   1.672  12.997
36837SOL    HW212351  12.718   1.716  13.142
36838SOL     OW12352   3.769  14.176   8.473
36838SOL    HW112353   3.860  14.205   8.478
36838SOL    HW212354   3.726  14.242   8.418
36839SOL     OW12355   5.060   9.528  14.509
36839SOL    HW112356   5.114   9.606  14.495
36839SOL    HW212357   5.120   9.454  14.492
36840SOL     OW12358   9.180   8.068   3.991
36840SOL    HW112359   9.189   7.975   4.011
36840SOL    HW212360   9.246   8.111   4.045
36841SOL     OW12361   7.845  10.762   1.297
36841SOL    HW112362   7.842  10.831   1.230
36841SOL    HW212363   7.820  10.806   1.378
36842SOL     OW12364   6.240   8.602  10.759
36842SOL    HW112365   6.189   8.672  10.718
36842SOL    HW212366   6.199   8.521  10.728
36843SOL     OW12367  11.276   0.353   8.016
36843SOL    HW112368  11.332   0.276   8.032
36843SOL    HW212369  11.202   0.318   7.966
36844SOL     OW12370   0.190   2.426   2.097
36844SOL    HW112371   0.265   2.442   2.155
36844SOL    HW212372   0.146   2.350   2.135
36845SOL     OW12373   9.580  14.627   5.415
36845SOL    HW112374   9.514  14.614   5.347
36845SOL    HW212375   9.661  14.643   5.367
36846SOL     OW12376   4.491   2.337   6.852
36846SOL    HW112377   4.571   2.339   6.904
36846SOL    HW212378   4.506   2.400   6.782
36847SOL     OW12379   0.369  11.335   4.948
36847SOL    HW112380   0.343  11.260   5.000
36847SOL    HW212381   0.434  11.381   5.001
36848SOL     OW12382   5.066  13.696  12.894
36848SOL    HW112383   5.159  13.675  12.884
36848SOL    HW212384   5.044  13.746  12.816
36849SOL     OW12385  12.816  14.088   0.400
36849SOL    HW112386  12.868  14.032   0.457
36849SOL    HW212387  12.880  14.147   0.360
36850SOL     OW12388   5.312  11.165   4.603
36850SOL    HW112389   5.292  11.256   4.580
36850SOL    HW212390   5.383  11.140   4.544
36851SOL     OW12391   7.742  12.382   9.008
36851SOL    HW112392   7.663  12.436   9.014
36851SOL    HW212393   7.744  12.354   8.917
36852SOL     OW12394   2.723  14.495   7.493
36852SOL    HW112395   2.790  14.509   7.426
36852SOL    HW212396   2.681  14.580   7.504
36853SOL     OW12397   1.888   7.295   0.911
36853SOL    HW112398   1.821   7.315   0.847
36853SOL    HW212399   1.850   7.227   0.967
36854SOL     OW12400  13.002   9.452  11.413
36854SOL    HW112401  12.919   9.433  11.456
36854SOL    HW212402  13.013   9.381  11.349
36855SOL     OW12403  10.732   4.288   7.290
36855SOL    HW112404  10.646   4.291   7.247
36855SOL    HW212405  10.793   4.266   7.220
36856SOL     OW12406  11.781   7.592   4.970
36856SOL    HW112407  11.728   7.538   5.029
36856SOL    HW212408  11.861   7.542   4.956
36857SOL     OW12409   2.338   8.048   6.724
36857SOL    HW112410   2.402   8.072   6.658
36857SOL    HW212411   2.313   8.132   6.764
36858SOL     OW12412   9.280   9.078   1.707
36858SOL    HW112413   9.273   9.029   1.625
36858SOL    HW212414   9.224   9.029   1.768
36859SOL     OW12415   0.051  10.787  14.449
36859SOL    HW112416   0.135  10.831  14.464
36859SOL    HW212417  14.861  10.853  14.467
36860SOL     OW12418   8.205   0.870  13.737
36860SOL    HW112419   8.127   0.851  13.788
36860SOL    HW212420   8.273   0.815  13.775
36861SOL     OW12421  12.134   0.390   6.555
36861SOL    HW112422  12.195   0.317   6.547
36861SOL    HW212423  12.176   0.449   6.617
36862SOL     OW12424   5.342  14.871  14.448
36862SOL    HW112425   5.266  14.861  14.506
36862SOL    HW212426   5.417   0.002  14.507
36863SOL     OW12427   0.712  10.864  14.022
36863SOL    HW112428   0.767  10.942  14.022
36863SOL    HW212429   0.701  10.842  13.930
36864SOL     OW12430   3.863   4.647  12.745
36864SOL    HW112431   3.843   4.559  12.715
36864SOL    HW212432   3.778   4.690  12.753
36865SOL     OW12433   6.840  14.420   7.202
36865SOL    HW112434   6.840  14.412   7.297
36865SOL    HW212435   6.904  14.489   7.184
36866SOL     OW12436  10.557  12.786  14.616
36866SOL    HW112437  10.466  12.755  14.614
36866SOL    HW212438  10.607  12.714  14.576
36867SOL     OW12439   7.764   5.125   2.040
36867SOL    HW112440   7.764   5.195   2.105
36867SOL    HW212441   7.767   5.171   1.956
36868SOL     OW12442  11.976  10.363   0.897
36868SOL    HW112443  12.054  10.322   0.860
36868SOL    HW212444  11.911  10.293   0.901
36869SOL     OW12445   5.100   8.693   1.135
36869SOL    HW112446   5.164   8.623   1.143
36869SOL    HW212447   5.115   8.729   1.047
36870SOL     OW12448   4.597   9.893  14.639
36870SOL    HW112449   4.523   9.954  14.636
36870SOL    HW212450   4.558   9.808  14.657
36871SOL     OW12451  11.930  12.777  12.532
36871SOL    HW112452  11.971  12.708  12.480
36871SOL    HW212453  11.944  12.857  12.482
36872SOL     OW12454  10.492  12.926  10.001
36872SOL    HW112455  10.501  13.003  10.056
36872SOL    HW212456  10.583  12.901   9.980
36873SOL     OW12457   8.192   3.500   7.928
36873SOL    HW112458   8.162   3.591   7.922
36873SOL    HW212459   8.213   3.488   8.021
36874SOL     OW12460  10.360   8.711   2.439
36874SOL    HW112461  10.325   8.749   2.358
36874SOL    HW212462  10.282   8.680   2.486
36875SOL     OW12463   9.555   8.850   0.803
36875SOL    HW112464   9.525   8.893   0.723
36875SOL    HW212465   9.558   8.757   0.781
36876SOL     OW12466  13.928  14.589   3.529
36876SOL    HW112467  13.914  14.682   3.548
36876SOL    HW212468  14.016  14.571   3.562
36877SOL     OW12469   8.124  14.817  10.961
36877SOL    HW112470   8.096  14.815  11.053
36877SOL    HW212471   8.045  14.840  10.913
36878SOL     OW12472   1.074   1.604   6.715
36878SOL    HW112473   1.047   1.573   6.801
36878SOL    HW212474   1.051   1.532   6.656
36879SOL     OW12475   7.827   8.701   7.617
36879SOL    HW112476   7.753   8.720   7.674
36879SOL    HW212477   7.880   8.637   7.664
36880SOL     OW12478   1.530   2.574   8.748
36880SOL    HW112479   1.438   2.596   8.732
36880SOL    HW212480   1.539   2.484   8.716
36881SOL     OW12481  14.585   1.585   4.832
36881SOL    HW112482  14.620   1.658   4.780
36881SOL    HW212483  14.548   1.627   4.910
36882SOL     OW12484  10.138  11.625  13.960
36882SOL    HW112485  10.100  11.539  13.940
36882SOL    HW212486  10.233  11.610  13.956
36883SOL     OW12487  14.544  10.862   6.092
36883SOL    HW112488  14.532  10.957   6.089
36883SOL    HW212489  14.620  10.850   6.148
36884SOL     OW12490  10.341   2.572   1.960
36884SOL    HW112491  10.399   2.647   1.947
36884SOL    HW212492  10.401   2.499   1.979
36885SOL     OW12493  13.930  13.642   4.032
36885SOL    HW112494  13.954  13.677   4.118
36885SOL    HW212495  13.841  13.674   4.017
36886SOL     OW12496   2.676   2.196  14.766
36886SOL    HW112497   2.723   2.218  14.846
36886SOL    HW212498   2.602   2.257  14.765
36887SOL     OW12499  12.872   1.318   3.547
36887SOL    HW112500  12.784   1.287   3.570
36887SOL    HW212501  12.920   1.238   3.528
36888SOL     OW12502   3.339   8.716   5.133
36888SOL    HW112503   3.283   8.763   5.194
36888SOL    HW212504   3.297   8.631   5.122
36889SOL     OW12505   8.364   4.461   3.015
36889SOL    HW112506   8.317   4.391   2.970
36889SOL    HW212507   8.398   4.517   2.945
36890SOL     OW12508   9.791   1.838   2.914
36890SOL    HW112509   9.812   1.843   3.008
36890SOL    HW212510   9.853   1.775   2.879
36891SOL     OW12511   5.790   4.927  12.765
36891SOL    HW112512   5.761   4.971  12.685
36891SOL    HW212513   5.864   4.979  12.795
36892SOL     OW12514  10.788   9.999  10.881
36892SOL    HW112515  10.766   9.910  10.908
36892SOL    HW212516  10.827   9.989  10.794
36893SOL     OW12517  12.438   0.539   4.998
36893SOL    HW112518  12.514   0.483   5.012
36893SOL    HW212519  12.414   0.525   4.906
36894SOL     OW12520  10.637  10.044   8.211
36894SOL    HW112521  10.690  10.003   8.280
36894SOL    HW212522  10.696  10.107   8.169
36895SOL     OW12523   4.279  11.073   1.132
36895SOL    HW112524   4.301  11.154   1.086
36895SOL    HW212525   4.260  11.010   1.063
36896SOL     OW12526   9.128   0.319  11.033
36896SOL    HW112527   9.061   0.268  11.079
36896SOL    HW212528   9.175   0.366  11.102
36897SOL     OW12529  14.021  11.987  10.368
36897SOL    HW112530  14.035  11.902  10.411
36897SOL    HW212531  14.076  12.048  10.418
36898SOL     OW12532   7.950   6.767  14.779
36898SOL    HW112533   7.940   6.829  14.851
36898SOL    HW212534   8.038   6.782  14.746
36899SOL     OW12535   6.704  11.599   2.855
36899SOL    HW112536   6.650  11.656   2.910
36899SOL    HW212537   6.648  11.577   2.781
36900SOL     OW12538   4.349  11.745  14.028
36900SOL    HW112539   4.373  11.756  14.120
36900SOL    HW212540   4.374  11.655  14.008
36901SOL     OW12541  11.929   9.899   3.884
36901SOL    HW112542  11.853   9.914   3.940
36901SOL    HW212543  11.902   9.931   3.798
36902SOL     OW12544   0.550   0.843   0.671
36902SOL    HW112545   0.622   0.906   0.669
36902SOL    HW212546   0.538   0.824   0.764
36903SOL     OW12547   6.833   5.477   9.641
36903SOL    HW112548   6.888   5.424   9.699
36903SOL    HW212549   6.838   5.565   9.679
36904SOL     OW12550   2.315   0.979   6.626
36904SOL    HW112551   2.272   1.036   6.690
36904SOL    HW212552   2.344   0.904   6.678
36905SOL     OW12553  12.723   4.718   8.932
36905SOL    HW112554  12.698   4.708   9.024
36905SOL    HW212555  12.786   4.789   8.932
36906SOL     OW12556  13.610  14.488   8.961
36906SOL    HW112557  13.547  14.551   8.926
36906SOL    HW212558  13.598  14.493   9.056
36907SOL     OW12559   4.515   1.594  12.723
36907SOL    HW112560   4.575   1.543  12.668
36907SOL    HW212561   4.492   1.669  12.670
36908SOL     OW12562   2.202   3.398   3.449
36908SOL    HW112563   2.211   3.446   3.531
36908SOL    HW212564   2.291   3.393   3.414
36909SOL     OW12565   7.832  12.661  12.946
36909SOL    HW112566   7.873  12.710  12.875
36909SOL    HW212567   7.855  12.710  13.025
36910SOL     OW12568  12.591   9.534   4.579
36910SOL    HW112569  12.557   9.617   4.613
36910SOL    HW212570  12.636   9.494   4.653
36911SOL     OW12571  11.877   8.338  14.345
36911SOL    HW112572  11.970   8.348  14.329
36911SOL    HW212573  11.835   8.362  14.262
36912SOL     OW12574  10.108   3.946   3.055
36912SOL    HW112575  10.068   4.021   3.099
36912SOL    HW212576  10.110   3.971   2.963
36913SOL     OW12577  14.271   7.580  10.222
36913SOL    HW112578  14.219   7.529  10.284
36913SOL    HW212579  14.318   7.515  10.170
36914SOL     OW12580   9.022  13.750   4.834
36914SOL    HW112581   9.000  13.838   4.864
36914SOL    HW212582   9.116  13.752   4.818
36915SOL     OW12583   1.694   0.104  14.195
36915SOL    HW112584   1.632   0.168  14.160
36915SOL    HW212585   1.747   0.154  14.258
36916SOL     OW12586   3.700   5.030  10.093
36916SOL    HW112587   3.655   5.072  10.020
36916SOL    HW212588   3.719   4.942  10.061
36917SOL     OW12589  11.111   9.269   3.996
36917SOL    HW112590  11.089   9.213   4.071
36917SOL    HW212591  11.148   9.348   4.036
36918SOL     OW12592   7.111   7.842   2.752
36918SOL    HW112593   7.086   7.768   2.696
36918SOL    HW212594   7.204   7.853   2.736
36919SOL     OW12595  14.319   5.951  11.983
36919SOL    HW112596  14.244   5.972  12.037
36919SOL    HW212597  14.297   5.868  11.941
36920SOL     OW12598   1.197   5.315   6.365
36920SOL    HW112599   1.220   5.236   6.315
36920SOL    HW212600   1.232   5.299   6.452
36921SOL     OW12601   1.497  10.442   9.991
36921SOL    HW112602   1.533  10.389  10.061
36921SOL    HW212603   1.462  10.520  10.034
36922SOL     OW12604   8.671   0.235  10.651
36922SOL    HW112605   8.713   0.149  10.651
36922SOL    HW212606   8.702   0.278  10.572
36923SOL     OW12607   8.879   7.384   1.103
36923SOL    HW112608   8.897   7.303   1.150
36923SOL    HW212609   8.795   7.370   1.061
36924SOL     OW12610  14.654  10.237  13.277
36924SOL    HW112611  14.634  10.293  13.203
36924SOL    HW212612  14.705  10.292  13.336
36925SOL     OW12613   0.153   8.498   3.832
36925SOL    HW112614   0.217   8.569   3.835
36925SOL    HW212615   0.180   8.444   3.758
36926SOL     OW12616  10.070   8.809  13.324
36926SOL    HW112617  10.029   8.867  13.388
36926SOL    HW212618  10.147   8.858  13.294
36927SOL     OW12619  10.900  10.417   6.960
36927SOL    HW112620  10.883  10.511   6.966
36927SOL    HW212621  10.920  10.391   7.050
36928SOL     OW12622   7.020   1.967   6.371
36928SOL    HW112623   6.940   2.009   6.401
36928SOL    HW212624   7.091   2.018   6.411
36929SOL     OW12625  13.540   9.764   9.232
36929SOL    HW112626  13.462   9.802   9.193
36929SOL    HW212627  13.513   9.677   9.262
36930SOL     OW12628  13.202   5.421   5.087
36930SOL    HW112629  13.120   5.410   5.039
36930SOL    HW212630  13.177   5.421   5.179
36931SOL     OW12631  12.949  10.922   8.521
36931SOL    HW112632  13.010  10.878   8.580
36931SOL    HW212633  12.936  10.861   8.449
36932SOL     OW12634   5.812   9.678   7.256
36932SOL    HW112635   5.746   9.636   7.312
36932SOL    HW212636   5.894   9.667   7.303
36933SOL     OW12637  10.389   8.072   8.481
36933SOL    HW112638  10.455   8.036   8.421
36933SOL    HW212639  10.359   7.997   8.531
36934SOL     OW12640  13.171   6.557  12.318
36934SOL    HW112641  13.250   6.512  12.287
36934SOL    HW212642  13.201   6.644  12.344
36935SOL     OW12643   4.592  14.840   9.363
36935SOL    HW112644   4.600   0.038   9.422
36935SOL    HW212645   4.501  14.810   9.374
36936SOL     OW12646   0.174   3.598   5.609
36936SOL    HW112647   0.085   3.629   5.626
36936SOL    HW212648   0.172   3.505   5.629
36937SOL     OW12649  11.712  12.234   3.085
36937SOL    HW112650  11.669  12.202   3.164
36937SOL    HW212651  11.693  12.328   3.084
36938SOL     OW12652  10.158  13.582   8.371
36938SOL    HW112653  10.101  13.625   8.308
36938SOL    HW212654  10.145  13.631   8.452
36939SOL     OW12655  12.745   5.419  14.251
36939SOL    HW112656  12.744   5.327  14.278
36939SOL    HW212657  12.700   5.419  14.166
36940SOL     OW12658   7.459   8.370   6.118
36940SOL    HW112659   7.548   8.384   6.085
36940SOL    HW212660   7.471   8.347   6.210
36941SOL     OW12661   6.694   8.655   9.464
36941SOL    HW112662   6.695   8.733   9.520
36941SOL    HW212663   6.658   8.586   9.520
36942SOL     OW12664   2.460  13.970  11.924
36942SOL    HW112665   2.478  14.052  11.970
36942SOL    HW212666   2.508  13.978  11.841
36943SOL     OW12667  12.029  14.057   6.878
36943SOL    HW112668  11.977  14.132   6.848
36943SOL    HW212669  11.968  13.984   6.877
36944SOL     OW12670  10.773  12.939  13.947
36944SOL    HW112671  10.864  12.958  13.969
36944SOL    HW212672  10.745  12.876  14.014
36945SOL     OW12673   8.744  13.446  11.779
36945SOL    HW112674   8.701  13.501  11.714
36945SOL    HW212675   8.682  13.375  11.795
36946SOL     OW12676   8.774  10.964   7.385
36946SOL    HW112677   8.737  11.045   7.419
36946SOL    HW212678   8.712  10.937   7.317
36947SOL     OW12679   0.744   4.866   8.590
36947SOL    HW112680   0.759   4.813   8.668
36947SOL    HW212681   0.706   4.805   8.526
36948SOL     OW12682  14.000   9.809   6.366
36948SOL    HW112683  14.093   9.826   6.357
36948SOL    HW212684  13.990   9.716   6.343
36949SOL     OW12685   9.280   0.217   6.700
36949SOL    HW112686   9.305   0.125   6.699
36949SOL    HW212687   9.185   0.217   6.694
36950SOL     OW12688   8.275   6.885   2.455
36950SOL    HW112689   8.339   6.821   2.424
36950SOL    HW212690   8.190   6.841   2.442
36951SOL     OW12691   4.367   0.534   3.432
36951SOL    HW112692   4.282   0.573   3.449
36951SOL    HW212693   4.380   0.544   3.337
36952SOL     OW12694   5.904  14.086   2.625
36952SOL    HW112695   5.942  14.174   2.622
36952SOL    HW212696   5.929  14.052   2.711
36953SOL     OW12697   8.565   7.587  14.601
36953SOL    HW112698   8.656   7.588  14.571
36953SOL    HW212699   8.519   7.644  14.541
36954SOL     OW12700   1.184  13.786   2.991
36954SOL    HW112701   1.096  13.806   3.023
36954SOL    HW212702   1.186  13.824   2.903
36955SOL     OW12703   3.103  10.040   3.716
36955SOL    HW112704   3.153  10.107   3.669
36955SOL    HW212705   3.098   9.966   3.656
36956SOL     OW12706  12.981   7.226   2.324
36956SOL    HW112707  13.021   7.266   2.246
36956SOL    HW212708  12.926   7.156   2.288
36957SOL     OW12709  12.351  13.377  13.185
36957SOL    HW112710  12.445  13.380  13.168
36957SOL    HW212711  12.320  13.304  13.133
36958SOL     OW12712  13.734  13.731   5.928
36958SOL    HW112713  13.663  13.677   5.894
36958SOL    HW212714  13.696  13.819   5.935
36959SOL     OW12715   0.356   4.909   9.538
36959SOL    HW112716   0.321   4.993   9.510
36959SOL    HW212717   0.351   4.853   9.460
36960SOL     OW12718   5.372  10.944   7.871
36960SOL    HW112719   5.458  10.936   7.912
36960SOL    HW212720   5.316  10.887   7.924
36961SOL     OW12721   9.630  11.948   2.860
36961SOL    HW112722   9.543  11.984   2.843
36961SOL    HW212723   9.617  11.854   2.865
36962SOL     OW12724   5.091  12.801   4.002
36962SOL    HW112725   5.026  12.731   4.004
36962SOL    HW212726   5.038  12.882   4.003
36963SOL     OW12727   4.322   7.495   5.588
36963SOL    HW112728   4.347   7.437   5.517
36963SOL    HW212729   4.247   7.544   5.555
36964SOL     OW12730   9.643   4.686  12.035
36964SOL    HW112731   9.669   4.706  12.124
36964SOL    HW212732   9.553   4.719  12.028
36965SOL     OW12733   5.478  14.647   9.990
36965SOL    HW112734   5.400  14.647   9.935
36965SOL    HW212735   5.542  14.699   9.940
36966SOL     OW12736   1.440   9.276  10.861
36966SOL    HW112737   1.521   9.306  10.820
36966SOL    HW212738   1.468   9.220  10.933
36967SOL     OW12739   8.047   6.592   5.507
36967SOL    HW112740   8.004   6.623   5.587
36967SOL    HW212741   8.020   6.655   5.440
36968SOL     OW12742   9.260   7.514   4.360
36968SOL    HW112743   9.204   7.590   4.374
36968SOL    HW212744   9.209   7.456   4.304
36969SOL     OW12745   2.341   6.686  12.693
36969SOL    HW112746   2.353   6.706  12.601
36969SOL    HW212747   2.366   6.766  12.739
36970SOL     OW12748   5.882   2.735   9.039
36970SOL    HW112749   5.793   2.705   9.022
36970SOL    HW212750   5.934   2.655   9.040
36971SOL     OW12751   5.219   2.186   9.682
36971SOL    HW112752   5.274   2.231   9.618
36971SOL    HW212753   5.195   2.254   9.745
36972SOL     OW12754   8.725  10.231  11.247
36972SOL    HW112755   8.773  10.188  11.176
36972SOL    HW212756   8.785  10.298  11.280
36973SOL     OW12757   9.002   6.935   8.490
36973SOL    HW112758   8.968   7.020   8.463
36973SOL    HW212759   8.946   6.871   8.445
36974SOL     OW12760   5.275  10.521  12.119
36974SOL    HW112761   5.360  10.481  12.098
36974SOL    HW212762   5.280  10.540  12.212
36975SOL     OW12763  10.689   0.339   6.572
36975SOL    HW112764  10.606   0.312   6.613
36975SOL    HW212765  10.716   0.416   6.622
36976SOL     OW12766  11.407   4.733   8.097
36976SOL    HW112767  11.462   4.792   8.148
36976SOL    HW212768  11.318   4.764   8.112
36977SOL     OW12769   5.489   1.458   9.103
36977SOL    HW112770   5.420   1.523   9.090
36977SOL    HW212771   5.449   1.375   9.078
36978SOL     OW12772  13.966   3.527  13.934
36978SOL    HW112773  13.952   3.617  13.964
36978SOL    HW212774  14.054   3.527  13.898
36979SOL     OW12775   6.336   4.989   4.358
36979SOL    HW112776   6.348   4.920   4.293
36979SOL    HW212777   6.386   5.063   4.324
36980SOL     OW12778  13.172   5.692   2.748
36980SOL    HW112779  13.101   5.674   2.686
36980SOL    HW212780  13.143   5.649   2.829
36981SOL     OW12781   4.690   3.717  12.869
36981SOL    HW112782   4.782   3.743  12.863
36981SOL    HW212783   4.658   3.722  12.779
36982SOL     OW12784   2.918   0.273   4.919
36982SOL    HW112785   2.928   0.368   4.913
36982SOL    HW212786   2.824   0.259   4.933
36983SOL     OW12787   3.852   5.236   7.698
36983SOL    HW112788   3.848   5.212   7.791
36983SOL    HW212789   3.782   5.300   7.687
36984SOL     OW12790  14.410   5.166  14.458
36984SOL    HW112791  14.481   5.108  14.483
36984SOL    HW212792  14.401   5.154  14.363
36985SOL     OW12793   6.605   3.163  12.193
36985SOL    HW112794   6.514   3.133  12.195
36985SOL    HW212795   6.641   3.125  12.112
36986SOL     OW12796  12.339   2.341   5.583
36986SOL    HW112797  12.270   2.284   5.617
36986SOL    HW212798  12.296   2.394   5.516
36987SOL     OW12799   5.573   8.363  14.828
36987SOL    HW112800   5.667   8.351  14.811
36987SOL    HW212801   5.570   8.404   0.038
36988SOL     OW12802  12.985  11.870   5.015
36988SOL    HW112803  13.009  11.875   5.108
36988SOL    HW212804  12.955  11.780   5.003
36989SOL     OW12805  12.427   5.646   2.343
36989SOL    HW112806  12.354   5.707   2.330
36989SOL    HW212807  12.431   5.595   2.263
36990SOL     OW12808  14.333   7.163   6.558
36990SOL    HW112809  14.372   7.149   6.644
36990SOL    HW212810  14.396   7.221   6.513
36991SOL     OW12811  10.440  13.437   9.881
36991SOL    HW112812  10.526  13.397   9.893
36991SOL    HW212813  10.458  13.519   9.836
36992SOL     OW12814   1.250   1.126   1.899
36992SOL    HW112815   1.247   1.081   1.984
36992SOL    HW212816   1.165   1.109   1.859
36993SOL     OW12817   6.441  11.721   7.065
36993SOL    HW112818   6.423  11.659   6.995
36993SOL    HW212819   6.480  11.668   7.134
36994SOL     OW12820   5.908   5.047   0.064
36994SOL    HW112821   5.952   4.998  14.870
36994SOL    HW212822   5.961   5.125   0.076
36995SOL     OW12823   0.833  12.538   3.126
36995SOL    HW112824   0.924  12.516   3.147
36995SOL    HW212825   0.839  12.619   3.075
36996SOL     OW12826   0.948  14.548   4.036
36996SOL    HW112827   1.005  14.600   3.980
36996SOL    HW212828   0.868  14.536   3.984
36997SOL     OW12829   5.331   2.418  13.270
36997SOL    HW112830   5.254   2.392  13.320
36997SOL    HW212831   5.350   2.342  13.214
36998SOL     OW12832   2.742   7.831   3.962
36998SOL    HW112833   2.714   7.756   3.909
36998SOL    HW212834   2.763   7.793   4.048
36999SOL     OW12835   1.954  14.093   5.892
36999SOL    HW112836   2.037  14.133   5.918
36999SOL    HW212837   1.893  14.167   5.883
37000SOL     OW12838  13.840  12.173   7.119
37000SOL    HW112839  13.791  12.169   7.037
37000SOL    HW212840  13.777  12.204   7.183
37001SOL     OW12841   0.086  14.292   5.232
37001SOL    HW112842   0.028  14.217   5.218
37001SOL    HW212843   0.097  14.296   5.327
37002SOL     OW12844   0.947  12.293  12.629
37002SOL    HW112845   0.978  12.367  12.577
37002SOL    HW212846   0.862  12.322  12.664
37003SOL     OW12847   7.988   9.009   3.327
37003SOL    HW112848   7.953   8.995   3.239
37003SOL    HW212849   7.959   8.932   3.376
37004SOL     OW12850  11.412   9.496   4.708
37004SOL    HW112851  11.348   9.500   4.637
37004SOL    HW212852  11.471   9.425   4.684
37005SOL     OW12853  10.706   2.365   7.182
37005SOL    HW112854  10.701   2.310   7.260
37005SOL    HW212855  10.683   2.307   7.110
37006SOL     OW12856   9.605   3.936  14.175
37006SOL    HW112857   9.555   3.866  14.134
37006SOL    HW212858   9.690   3.934  14.131
37007SOL     OW12859  14.826  13.405  12.685
37007SOL    HW112860  14.740  13.365  12.701
37007SOL    HW212861  14.843  13.458  12.763
37008SOL     OW12862  14.712   4.980  13.443
37008SOL    HW112863  14.724   5.069  13.409
37008SOL    HW212864  14.758   4.980  13.527
37009SOL     OW12865   9.282   6.217  13.976
37009SOL    HW112866   9.295   6.307  14.005
37009SOL    HW212867   9.222   6.223  13.902
37010SOL     OW12868   1.070   6.855   7.889
37010SOL    HW112869   1.092   6.948   7.899
37010SOL    HW212870   0.995   6.853   7.831
37011SOL     OW12871   1.969   4.932  14.853
37011SOL    HW112872   1.912   4.997  14.812
37011SOL    HW212873   2.054   4.976  14.860
37012SOL     OW12874   7.551   0.404   5.788
37012SOL    HW112875   7.604   0.326   5.801
37012SOL    HW212876   7.552   0.418   5.693
37013SOL     OW12877   8.811   9.625   4.433
37013SOL    HW112878   8.825   9.538   4.394
37013SOL    HW212879   8.873   9.681   4.386
37014SOL     OW12880   1.563   9.738   4.715
37014SOL    HW112881   1.547   9.647   4.738
37014SOL    HW212882   1.476   9.779   4.718
37015SOL     OW12883  14.759   2.510  12.388
37015SOL    HW112884  14.667   2.531  12.372
37015SOL    HW212885  14.765   2.415  12.376
37016SOL     OW12886   4.884   0.509   9.913
37016SOL    HW112887   4.968   0.492   9.872
37016SOL    HW212888   4.821   0.459   9.861
37017SOL     OW12889   4.649  12.730   2.063
37017SOL    HW112890   4.693  12.650   2.094
37017SOL    HW212891   4.595  12.758   2.137
37018SOL     OW12892  13.900   7.043   1.011
37018SOL    HW112893  13.835   7.111   0.995
37018SOL    HW212894  13.965   7.084   1.068
37019SOL     OW12895  10.106   8.571   7.394
37019SOL    HW112896  10.153   8.635   7.447
37019SOL    HW212897  10.143   8.486   7.420
37020SOL     OW12898  14.394  11.944  14.265
37020SOL    HW112899  14.312  11.920  14.309
37020SOL    HW212900  14.391  11.897  14.182
37021SOL     OW12901   3.344   9.143   3.316
37021SOL    HW112902   3.364   9.053   3.344
37021SOL    HW212903   3.276   9.172   3.377
37022SOL     OW12904   2.030   5.737  12.854
37022SOL    HW112905   2.015   5.685  12.933
37022SOL    HW212906   2.063   5.675  12.790
37023SOL     OW12907  13.854   2.238   2.284
37023SOL    HW112908  13.784   2.214   2.222
37023SOL    HW212909  13.934   2.238   2.231
37024SOL     OW12910   4.867  12.456   5.487
37024SOL    HW112911   4.805  12.454   5.560
37024SOL    HW212912   4.906  12.368   5.487
37025SOL     OW12913   2.106  11.381  11.081
37025SOL    HW112914   2.187  11.433  11.084
37025SOL    HW212915   2.135  11.294  11.054
37026SOL     OW12916  13.807   8.249   3.141
37026SOL    HW112917  13.735   8.222   3.084
37026SOL    HW212918  13.783   8.217   3.227
37027SOL     OW12919   0.173   1.700   4.964
37027SOL    HW112920   0.265   1.681   4.982
37027SOL    HW212921   0.142   1.747   5.042
37028SOL     OW12922   0.024   0.453   9.549
37028SOL    HW112923  14.810   0.423   9.559
37028SOL    HW212924   0.059   0.457   9.638
37029SOL     OW12925   3.470   6.747  12.001
37029SOL    HW112926   3.396   6.794  12.039
37029SOL    HW212927   3.510   6.811  11.941
37030SOL     OW12928   6.669   8.604  14.327
37030SOL    HW112929   6.683   8.691  14.364
37030SOL    HW212930   6.633   8.620  14.239
37031SOL     OW12931  10.293  10.480   6.982
37031SOL    HW112932  10.299  10.438   6.897
37031SOL    HW212933  10.200  10.502   6.992
37032SOL     OW12934  14.607   8.988  11.304
37032SOL    HW112935  14.653   9.072  11.294
37032SOL    HW212936  14.624   8.942  11.222
37033SOL     OW12937  11.411   5.712   5.064
37033SOL    HW112938  11.376   5.689   4.978
37033SOL    HW212939  11.340   5.693   5.124
37034SOL     OW12940   4.371   6.829   0.511
37034SOL    HW112941   4.381   6.924   0.513
37034SOL    HW212942   4.280   6.815   0.485
37035SOL     OW12943   5.637   0.460  11.777
37035SOL    HW112944   5.551   0.450  11.818
37035SOL    HW212945   5.689   0.388  11.814
37036SOL     OW12946   6.288   5.645  11.471
37036SOL    HW112947   6.214   5.686  11.427
37036SOL    HW212948   6.357   5.641  11.404
37037SOL     OW12949   0.223   4.368   0.279
37037SOL    HW112950   0.298   4.339   0.226
37037SOL    HW212951   0.148   4.360   0.221
37038SOL     OW12952   4.751  12.300   6.889
37038SOL    HW112953   4.720  12.232   6.829
37038SOL    HW212954   4.846  12.293   6.887
37039SOL     OW12955  12.700  13.105  12.706
37039SOL    HW112956  12.656  13.029  12.667
37039SOL    HW212957  12.639  13.137  12.772
37040SOL     OW12958   1.643   9.609   4.072
37040SOL    HW112959   1.587   9.532   4.073
37040SOL    HW212960   1.656   9.630   3.979
37041SOL     OW12961   7.329   8.837  11.363
37041SOL    HW112962   7.252   8.805  11.409
37041SOL    HW212963   7.312   8.816  11.271
37042SOL     OW12964  13.234  12.537   7.088
37042SOL    HW112965  13.258  12.599   7.020
37042SOL    HW212966  13.164  12.580   7.138
37043SOL     OW12967  13.553  11.185   9.544
37043SOL    HW112968  13.518  11.185   9.634
37043SOL    HW212969  13.500  11.120   9.498
37044SOL     OW12970  11.619  14.677   0.454
37044SOL    HW112971  11.695  14.731   0.474
37044SOL    HW212972  11.569  14.674   0.536
37045SOL     OW12973   4.709   1.378   5.355
37045SOL    HW112974   4.655   1.395   5.432
37045SOL    HW212975   4.767   1.453   5.348
37046SOL     OW12976   6.348  11.354   0.987
37046SOL    HW112977   6.416  11.337   0.922
37046SOL    HW212978   6.392  11.406   1.054
37047SOL     OW12979   3.933  13.000  12.428
37047SOL    HW112980   3.899  12.911  12.438
37047SOL    HW212981   3.869  13.055  12.473
37048SOL     OW12982   5.287   3.804   5.872
37048SOL    HW112983   5.379   3.787   5.889
37048SOL    HW212984   5.241   3.734   5.919
37049SOL     OW12985  11.433   3.442   7.708
37049SOL    HW112986  11.354   3.424   7.656
37049SOL    HW212987  11.505   3.415   7.651
37050SOL     OW12988   7.222   1.513   2.666
37050SOL    HW112989   7.306   1.528   2.709
37050SOL    HW212990   7.212   1.587   2.607
37051SOL     OW12991  12.994  13.550   5.148
37051SOL    HW112992  12.999  13.604   5.069
37051SOL    HW212993  12.901  13.547   5.170
37052SOL     OW12994  11.624   1.699   7.451
37052SOL    HW112995  11.582   1.613   7.451
37052SOL    HW212996  11.715   1.680   7.475
37053SOL     OW12997   2.321   5.415   4.307
37053SOL    HW112998   2.286   5.343   4.359
37053SOL    HW212999   2.345   5.375   4.223
37054SOL     OW13000  10.858   1.391   0.258
37054SOL    HW113001  10.914   1.314   0.262
37054SOL    HW213002  10.861   1.419   0.167
37055SOL     OW13003   2.479  11.844  13.502
37055SOL    HW113004   2.542  11.915  13.515
37055SOL    HW213005   2.501  11.807  13.416
37056SOL     OW13006   6.978   6.424   0.655
37056SOL    HW113007   7.011   6.381   0.576
37056SOL    HW213008   6.885   6.439   0.636
37057SOL     OW13009   3.672   0.864   8.009
37057SOL    HW113010   3.702   0.810   8.083
37057SOL    HW213011   3.589   0.824   7.983
37058SOL     OW13012  13.712   4.717   6.724
37058SOL    HW113013  13.657   4.717   6.646
37058SOL    HW213014  13.800   4.733   6.691
37059SOL     OW13015  11.156   4.905   7.795
37059SOL    HW113016  11.154   4.914   7.699
37059SOL    HW213017  11.063   4.902   7.820
37060SOL     OW13018  14.652   4.475   2.510
37060SOL    HW113019  14.588   4.546   2.509
37060SOL    HW213020  14.726   4.510   2.559
37061SOL     OW13021   9.961  10.095  12.505
37061SOL    HW113022   9.888  10.033  12.507
37061SOL    HW213023   9.948  10.144  12.423
37062SOL     OW13024   6.668   9.427  12.906
37062SOL    HW113025   6.617   9.497  12.865
37062SOL    HW213026   6.747   9.420  12.854
37063SOL     OW13027  10.712   0.748   3.991
37063SOL    HW113028  10.652   0.760   3.918
37063SOL    HW213029  10.760   0.668   3.970
37064SOL     OW13030  12.244  11.528   7.786
37064SOL    HW113031  12.243  11.608   7.839
37064SOL    HW213032  12.300  11.550   7.711
37065SOL     OW13033  12.078  12.977   7.435
37065SOL    HW113034  12.101  12.909   7.498
37065SOL    HW213035  11.991  12.951   7.403
37066SOL     OW13036   6.531  13.033   4.276
37066SOL    HW113037   6.501  13.124   4.283
37066SOL    HW213038   6.618  13.033   4.316
37067SOL     OW13039   2.135   7.988  13.595
37067SOL    HW113040   2.064   7.934  13.629
37067SOL    HW213041   2.107   8.011  13.507
37068SOL     OW13042   5.911   5.792   5.045
37068SOL    HW113043   5.850   5.798   5.118
37068SOL    HW213044   5.952   5.878   5.040
37069SOL     OW13045   4.668   6.214  13.243
37069SOL    HW113046   4.693   6.302  13.273
37069SOL    HW213047   4.599   6.187  13.303
37070SOL     OW13048  11.338   8.790  10.515
37070SOL    HW113049  11.286   8.740  10.578
37070SOL    HW213050  11.327   8.743  10.432
37071SOL     OW13051   7.953  10.694  10.330
37071SOL    HW113052   7.938  10.787  10.314
37071SOL    HW213053   7.930  10.652  10.247
37072SOL     OW13054  14.764   5.135   8.510
37072SOL    HW113055  14.674   5.104   8.520
37072SOL    HW213056  14.773   5.153   8.416
37073SOL     OW13057  10.298   9.655   8.065
37073SOL    HW113058  10.206   9.641   8.045
37073SOL    HW213059  10.299   9.733   8.120
37074SOL     OW13060   1.831   1.813   8.124
37074SOL    HW113061   1.830   1.795   8.218
37074SOL    HW213062   1.748   1.779   8.093
37075SOL     OW13063   1.180   2.768   9.155
37075SOL    HW113064   1.221   2.842   9.109
37075SOL    HW213065   1.253   2.712   9.180
37076SOL     OW13066   5.907   4.090  14.228
37076SOL    HW113067   5.904   4.022  14.294
37076SOL    HW213068   5.831   4.145  14.246
37077SOL     OW13069   7.759   8.064   4.155
37077SOL    HW113070   7.774   7.979   4.113
37077SOL    HW213071   7.724   8.042   4.241
37078SOL     OW13072   8.658   4.242   5.727
37078SOL    HW113073   8.660   4.153   5.762
37078SOL    HW213074   8.708   4.238   5.646
37079SOL     OW13075   8.836  14.505   1.848
37079SOL    HW113076   8.915  14.486   1.797
37079SOL    HW213077   8.868  14.524   1.936
37080SOL     OW13078   1.175   0.047   4.439
37080SOL    HW113079   1.138   0.095   4.365
37080SOL    HW213080   1.156   0.102   4.515
37081SOL     OW13081   5.034  14.197  11.920
37081SOL    HW113082   5.065  14.288  11.921
37081SOL    HW213083   4.940  14.204  11.936
37082SOL     OW13084  11.023  10.842   9.689
37082SOL    HW113085  11.097  10.899   9.709
37082SOL    HW213086  11.011  10.852   9.594
37083SOL     OW13087  10.777   9.293  13.729
37083SOL    HW113088  10.839   9.364  13.746
37083SOL    HW213089  10.700   9.337  13.693
37084SOL     OW13090   1.951   1.575  11.831
37084SOL    HW113091   1.986   1.540  11.913
37084SOL    HW213092   1.996   1.524  11.763
37085SOL     OW13093   6.584   6.101   7.426
37085SOL    HW113094   6.558   6.125   7.337
37085SOL    HW213095   6.525   6.030   7.449
37086SOL     OW13096   4.822   1.807   4.975
37086SOL    HW113097   4.904   1.791   5.023
37086SOL    HW213098   4.759   1.831   5.042
37087SOL     OW13099  11.444  13.384   5.936
37087SOL    HW113100  11.436  13.474   5.904
37087SOL    HW213101  11.528  13.382   5.982
37088SOL     OW13102  13.664  14.026   2.867
37088SOL    HW113103  13.726  14.058   2.932
37088SOL    HW213104  13.718  13.978   2.804
37089SOL     OW13105   9.797   7.836   9.498
37089SOL    HW113106   9.841   7.869   9.420
37089SOL    HW213107   9.866   7.791   9.547
37090SOL     OW13108   2.126   1.213   7.912
37090SOL    HW113109   2.056   1.195   7.975
37090SOL    HW213110   2.087   1.195   7.827
37091SOL     OW13111   5.216   4.577   8.122
37091SOL    HW113112   5.219   4.514   8.194
37091SOL    HW213113   5.128   4.565   8.084
37092SOL     OW13114  12.891   2.323  13.169
37092SOL    HW113115  12.872   2.410  13.204
37092SOL    HW213116  12.896   2.266  13.246
37093SOL     OW13117  11.798   0.042   3.714
37093SOL    HW113118  11.818   0.104   3.645
37093SOL    HW213119  11.717   0.075   3.753
37094SOL     OW13120  14.650   8.869   5.702
37094SOL    HW113121  14.745   8.857   5.706
37094SOL    HW213122  14.629   8.866   5.609
37095SOL     OW13123   2.710  14.801  13.585
37095SOL    HW113124   2.669   0.010  13.568
37095SOL    HW213125   2.776  14.819  13.651
37096SOL     OW13126   1.713   6.802  14.214
37096SOL    HW113127   1.720   6.825  14.307
37096SOL    HW213128   1.671   6.716  14.214
37097SOL     OW13129   5.724  11.902   4.250
37097SOL    HW113130   5.667  11.968   4.210
37097SOL    HW213131   5.806  11.948   4.267
37098SOL     OW13132   9.215   7.278   2.026
37098SOL    HW113133   9.164   7.358   2.010
37098SOL    HW213134   9.284   7.305   2.087
37099SOL     OW13135  11.247   5.840  14.782
37099SOL    HW113136  11.320   5.777  14.779
37099SOL    HW213137  11.197   5.814  14.859
37100SOL     OW13138   9.447   6.725  14.592
37100SOL    HW113139   9.353   6.729  14.574
37100SOL    HW213140   9.453   6.698  14.683
37101SOL     OW13141   6.761   7.727   3.640
37101SOL    HW113142   6.736   7.689   3.556
37101SOL    HW213143   6.817   7.801   3.617
37102SOL     OW13144   8.984   4.199   2.398
37102SOL    HW113145   8.889   4.199   2.408
37102SOL    HW213146   9.015   4.132   2.458
37103SOL     OW13147  12.585  13.325   3.362
37103SOL    HW113148  12.621  13.236   3.363
37103SOL    HW213149  12.661  13.382   3.362
37104SOL     OW13150   0.019   9.487   9.792
37104SOL    HW113151  14.873   9.507   9.882
37104SOL    HW213152  14.849   9.405   9.773
37105SOL     OW13153   3.838  11.840  10.215
37105SOL    HW113154   3.753  11.884  10.222
37105SOL    HW213155   3.828  11.760  10.266
37106SOL     OW13156  12.681   3.690   4.739
37106SOL    HW113157  12.624   3.766   4.752
37106SOL    HW213158  12.769   3.726   4.737
37107SOL     OW13159  13.906   2.169  11.486
37107SOL    HW113160  13.922   2.173  11.392
37107SOL    HW213161  13.939   2.253  11.520
37108SOL     OW13162  12.238  10.749   4.710
37108SOL    HW113163  12.286  10.685   4.657
37108SOL    HW213164  12.304  10.814   4.733
37109SOL     OW13165   5.594  12.813  12.180
37109SOL    HW113166   5.689  12.824  12.168
37109SOL    HW213167   5.577  12.723  12.155
37110SOL     OW13168  13.509   0.367   1.120
37110SOL    HW113169  13.548   0.439   1.070
37110SOL    HW213170  13.423   0.354   1.079
37111SOL     OW13171   3.112  13.906   3.937
37111SOL    HW113172   3.059  13.833   3.904
37111SOL    HW213173   3.173  13.926   3.867
37112SOL     OW13174   7.667   6.309   8.560
37112SOL    HW113175   7.645   6.220   8.530
37112SOL    HW213176   7.597   6.364   8.525
37113SOL     OW13177   8.471   2.232  12.582
37113SOL    HW113178   8.491   2.141  12.562
37113SOL    HW213179   8.376   2.235  12.592
37114SOL     OW13180  13.052   8.670   4.263
37114SOL    HW113181  13.020   8.727   4.194
37114SOL    HW213182  12.995   8.687   4.338
37115SOL     OW13183   7.342   3.956  10.586
37115SOL    HW113184   7.265   3.901  10.601
37115SOL    HW213185   7.374   3.976  10.674
37116SOL     OW13186   8.133   5.424   9.894
37116SOL    HW113187   8.063   5.460   9.840
37116SOL    HW213188   8.171   5.354   9.841
37117SOL     OW13189  11.933   4.927   1.769
37117SOL    HW113190  11.866   4.861   1.787
37117SOL    HW213191  12.010   4.898   1.819
37118SOL     OW13192  14.062   6.747   6.235
37118SOL    HW113193  14.013   6.788   6.165
37118SOL    HW213194  14.005   6.752   6.312
37119SOL     OW13195   2.614   8.839   9.330
37119SOL    HW113196   2.697   8.877   9.302
37119SOL    HW213197   2.554   8.914   9.336
37120SOL     OW13198   3.161  14.598   7.354
37120SOL    HW113199   3.168  14.562   7.442
37120SOL    HW213200   3.188  14.527   7.296
37121SOL     OW13201   1.318   2.914  11.350
37121SOL    HW113202   1.303   3.001  11.314
37121SOL    HW213203   1.410   2.895  11.331
37122SOL     OW13204   3.133   2.465   1.940
37122SOL    HW113205   3.212   2.498   1.982
37122SOL    HW213206   3.137   2.502   1.851
37123SOL     OW13207   6.819   8.581   7.166
37123SOL    HW113208   6.864   8.609   7.246
37123SOL    HW213209   6.732   8.554   7.196
37124SOL     OW13210  12.807  10.781  11.365
37124SOL    HW113211  12.733  10.733  11.328
37124SOL    HW213212  12.885  10.739  11.329
37125SOL     OW13213   1.825  14.529   7.178
37125SOL    HW113214   1.782  14.594   7.122
37125SOL    HW213215   1.777  14.448   7.163
37126SOL     OW13216  10.682   5.019   7.117
37126SOL    HW113217  10.590   5.026   7.092
37126SOL    HW213218  10.702   5.104   7.158
37127SOL     OW13219   4.075   9.947   6.653
37127SOL    HW113220   4.003   9.994   6.696
37127SOL    HW213221   4.065   9.857   6.683
37128SOL     OW13222   3.330  11.826   7.567
37128SOL    HW113223   3.256  11.810   7.626
37128SOL    HW213224   3.290  11.848   7.483
37129SOL     OW13225   1.937   4.415   1.358
37129SOL    HW113226   1.866   4.470   1.324
37129SOL    HW213227   1.996   4.404   1.283
37130SOL     OW13228   7.632   8.245   8.583
37130SOL    HW113229   7.695   8.255   8.655
37130SOL    HW213230   7.562   8.308   8.603
37131SOL     OW13231   1.997  14.128   8.402
37131SOL    HW113232   2.088  14.105   8.424
37131SOL    HW213233   1.967  14.179   8.477
37132SOL     OW13234   8.817   4.350  13.231
37132SOL    HW113235   8.725   4.344  13.255
37132SOL    HW213236   8.865   4.340  13.314
37133SOL     OW13237   6.632   7.309   1.248
37133SOL    HW113238   6.567   7.271   1.306
37133SOL    HW213239   6.582   7.362   1.186
37134SOL     OW13240   3.805   0.414   8.197
37134SOL    HW113241   3.765   0.334   8.231
37134SOL    HW213242   3.853   0.387   8.119
37135SOL     OW13243   4.658   4.507   5.678
37135SOL    HW113244   4.636   4.414   5.688
37135SOL    HW213245   4.605   4.536   5.604
37136SOL     OW13246   2.636  12.519   1.651
37136SOL    HW113247   2.618  12.609   1.677
37136SOL    HW213248   2.725  12.522   1.616
37137SOL     OW13249   0.048   7.256   2.333
37137SOL    HW113250   0.067   7.328   2.393
37137SOL    HW213251   0.023   7.183   2.389
37138SOL     OW13252   9.358   8.317  10.867
37138SOL    HW113253   9.373   8.408  10.841
37138SOL    HW213254   9.445   8.279  10.875
37139SOL     OW13255   5.386   3.759   9.693
37139SOL    HW113256   5.314   3.814   9.724
37139SOL    HW213257   5.423   3.719   9.772
37140SOL     OW13258   1.548   4.358   6.844
37140SOL    HW113259   1.590   4.435   6.804
37140SOL    HW213260   1.557   4.289   6.777
37141SOL     OW13261  12.201   7.803  11.105
37141SOL    HW113262  12.243   7.811  11.019
37141SOL    HW213263  12.108   7.819  11.088
37142SOL     OW13264   7.851  13.606   7.915
37142SOL    HW113265   7.927  13.632   7.863
37142SOL    HW213266   7.781  13.666   7.887
37143SOL     OW13267  11.645  14.687   3.247
37143SOL    HW113268  11.552  14.671   3.260
37143SOL    HW213269  11.688  14.623   3.304
37144SOL     OW13270   4.498  12.017   4.346
37144SOL    HW113271   4.523  11.945   4.288
37144SOL    HW213272   4.576  12.072   4.350
37145SOL     OW13273   8.360  10.290   9.927
37145SOL    HW113274   8.389  10.262   9.840
37145SOL    HW213275   8.274  10.248   9.938
37146SOL     OW13276   8.591  11.358   8.769
37146SOL    HW113277   8.508  11.311   8.761
37146SOL    HW213278   8.608  11.394   8.682
37147SOL     OW13279  10.568   6.981   2.882
37147SOL    HW113280  10.565   7.012   2.792
37147SOL    HW213281  10.503   6.911   2.886
37148SOL     OW13282   9.395  12.666  14.066
37148SOL    HW113283   9.301  12.651  14.059
37148SOL    HW213284   9.403  12.757  14.096
37149SOL     OW13285   9.787  11.050   3.391
37149SOL    HW113286   9.793  10.974   3.333
37149SOL    HW213287   9.717  11.028   3.452
37150SOL     OW13288   2.065   1.249   9.725
37150SOL    HW113289   2.077   1.220   9.634
37150SOL    HW213290   2.153   1.249   9.761
37151SOL     OW13291   0.527   2.708   0.898
37151SOL    HW113292   0.453   2.766   0.914
37151SOL    HW213293   0.503   2.626   0.941
37152SOL     OW13294   4.267   5.242   0.492
37152SOL    HW113295   4.176   5.216   0.502
37152SOL    HW213296   4.296   5.197   0.413
37153SOL     OW13297  14.503   7.181   3.270
37153SOL    HW113298  14.414   7.214   3.256
37153SOL    HW213299  14.536   7.163   3.182
37154SOL     OW13300   1.530   6.368   1.925
37154SOL    HW113301   1.607   6.367   1.982
37154SOL    HW213302   1.528   6.457   1.890
37155SOL     OW13303   8.321   2.066   1.721
37155SOL    HW113304   8.264   2.004   1.766
37155SOL    HW213305   8.276   2.151   1.731
37156SOL     OW13306  10.218   7.233  10.977
37156SOL    HW113307  10.126   7.246  10.998
37156SOL    HW213308  10.256   7.199  11.059
37157SOL     OW13309   7.181   0.059   4.660
37157SOL    HW113310   7.148   0.065   4.570
37157SOL    HW213311   7.252  14.871   4.655
37158SOL     OW13312   2.928  11.763   0.555
37158SOL    HW113313   2.874  11.686   0.571
37158SOL    HW213314   2.956  11.755   0.464
37159SOL     OW13315   1.055   8.068   7.606
37159SOL    HW113316   1.059   8.002   7.675
37159SOL    HW213317   1.062   8.152   7.652
37160SOL     OW13318   6.780  14.106   3.203
37160SOL    HW113319   6.817  14.161   3.273
37160SOL    HW213320   6.855  14.056   3.170
37161SOL     OW13321   0.342   8.456   5.513
37161SOL    HW113322   0.422   8.457   5.462
37161SOL    HW213323   0.311   8.365   5.508
37162SOL     OW13324  10.583  12.202   0.469
37162SOL    HW113325  10.511  12.145   0.496
37162SOL    HW213326  10.563  12.224   0.378
37163SOL     OW13327   7.292   7.960   2.001
37163SOL    HW113328   7.269   7.962   1.908
37163SOL    HW213329   7.298   7.867   2.023
37164SOL     OW13330  14.251   4.174   2.742
37164SOL    HW113331  14.328   4.227   2.720
37164SOL    HW213332  14.286   4.097   2.786
37165SOL     OW13333   1.937   4.915   3.043
37165SOL    HW113334   1.992   4.921   3.120
37165SOL    HW213335   1.883   4.995   3.046
37166SOL     OW13336   1.459   8.563   4.574
37166SOL    HW113337   1.426   8.622   4.505
37166SOL    HW213338   1.529   8.613   4.616
37167SOL     OW13339   0.630   4.347   3.315
37167SOL    HW113340   0.710   4.394   3.292
37167SOL    HW213341   0.660   4.263   3.349
37168SOL     OW13342   0.618   5.461   5.972
37168SOL    HW113343   0.598   5.547   6.006
37168SOL    HW213344   0.570   5.456   5.889
37169SOL     OW13345   9.611  11.684   3.961
37169SOL    HW113346   9.570  11.689   4.047
37169SOL    HW213347   9.594  11.769   3.921
37170SOL     OW13348  10.010   9.541  13.487
37170SOL    HW113349  10.100   9.519  13.461
37170SOL    HW213350   9.978   9.598  13.418
37171SOL     OW13351   1.407  12.643   9.279
37171SOL    HW113352   1.373  12.671   9.364
37171SOL    HW213353   1.502  12.644   9.290
37172SOL     OW13354  14.165  14.512   3.662
37172SOL    HW113355  14.139  14.490   3.751
37172SOL    HW213356  14.226  14.585   3.673
37173SOL     OW13357  10.360   0.040  12.040
37173SOL    HW113358  10.354   0.131  12.071
37173SOL    HW213359  10.435   0.040  11.980
37174SOL     OW13360   3.828   7.814  14.086
37174SOL    HW113361   3.772   7.811  14.008
37174SOL    HW213362   3.905   7.864  14.058
37175SOL     OW13363   2.440   5.387   2.775
37175SOL    HW113364   2.487   5.389   2.692
37175SOL    HW213365   2.484   5.319   2.826
37176SOL     OW13366  12.249   8.813   4.979
37176SOL    HW113367  12.184   8.744   4.968
37176SOL    HW213368  12.320   8.789   4.920
37177SOL     OW13369   4.854  13.798  10.608
37177SOL    HW113370   4.928  13.835  10.558
37177SOL    HW213371   4.785  13.864  10.601
37178SOL     OW13372   9.195   5.184   2.672
37178SOL    HW113373   9.112   5.230   2.661
37178SOL    HW213374   9.261   5.246   2.642
37179SOL     OW13375  11.653   9.025  13.331
37179SOL    HW113376  11.624   8.934  13.320
37179SOL    HW213377  11.739   9.017  13.372
37180SOL     OW13378   0.920   3.730   3.599
37180SOL    HW113379   0.845   3.725   3.659
37180SOL    HW213380   0.972   3.803   3.632
37181SOL     OW13381   4.426  13.815   9.873
37181SOL    HW113382   4.512  13.858   9.877
37181SOL    HW213383   4.366  13.876   9.916
37182SOL     OW13384  11.253   2.156   0.074
37182SOL    HW113385  11.222   2.222   0.012
37182SOL    HW213386  11.184   2.151   0.140
37183SOL     OW13387   0.689   0.368   9.421
37183SOL    HW113388   0.707   0.374   9.327
37183SOL    HW213389   0.744   0.296   9.451
37184SOL     OW13390   6.958   2.909  11.503
37184SOL    HW113391   6.982   2.984  11.449
37184SOL    HW213392   7.036   2.891  11.556
37185SOL     OW13393   6.227   3.552   9.339
37185SOL    HW113394   6.184   3.535   9.423
37185SOL    HW213395   6.179   3.499   9.276
37186SOL     OW13396   3.687  11.071  13.235
37186SOL    HW113397   3.623  11.003  13.258
37186SOL    HW213398   3.763  11.022  13.202
37187SOL     OW13399   0.356   0.989   7.259
37187SOL    HW113400   0.276   0.939   7.245
37187SOL    HW213401   0.351   1.061   7.196
37188SOL     OW13402  11.280  11.733   1.621
37188SOL    HW113403  11.265  11.676   1.546
37188SOL    HW213404  11.362  11.703   1.659
37189SOL     OW13405  10.096   6.304   0.825
37189SOL    HW113406  10.092   6.381   0.882
37189SOL    HW213407  10.140   6.238   0.878
37190SOL     OW13408   4.272   9.974  12.598
37190SOL    HW113409   4.326   9.988  12.520
37190SOL    HW213410   4.303   9.891  12.634
37191SOL     OW13411   5.189   0.401   0.007
37191SOL    HW113412   5.229   0.348  14.814
37191SOL    HW213413   5.230   0.487  14.875
37192SOL     OW13414  13.345   3.175  10.051
37192SOL    HW113415  13.350   3.190  10.145
37192SOL    HW213416  13.255   3.146  10.036
37193SOL     OW13417   1.368  12.436   3.884
37193SOL    HW113418   1.295  12.437   3.945
37193SOL    HW213419   1.442  12.471   3.934
37194SOL     OW13420   4.790   2.446   4.694
37194SOL    HW113421   4.754   2.369   4.651
37194SOL    HW213422   4.870   2.466   4.645
37195SOL     OW13423   6.128   6.060   8.411
37195SOL    HW113424   6.109   6.151   8.388
37195SOL    HW213425   6.054   6.034   8.466
37196SOL     OW13426   7.836  14.676  13.621
37196SOL    HW113427   7.741  14.688  13.623
37196SOL    HW213428   7.866  14.702  13.708
37197SOL     OW13429  12.421  14.626   1.016
37197SOL    HW113430  12.489  14.559   1.030
37197SOL    HW213431  12.471  14.705   0.994
37198SOL     OW13432   3.714   9.294   8.075
37198SOL    HW113433   3.758   9.256   8.151
37198SOL    HW213434   3.752   9.250   8.000
37199SOL     OW13435   6.181   4.137  14.560
37199SOL    HW113436   6.246   4.170  14.497
37199SOL    HW213437   6.231   4.080  14.618
37200SOL     OW13438   0.938  14.269  14.643
37200SOL    HW113439   1.030  14.280  14.619
37200SOL    HW213440   0.939  14.200  14.710
37201SOL     OW13441  12.109   3.316   5.131
37201SOL    HW113442  12.204   3.315   5.118
37201SOL    HW213443  12.095   3.378   5.203
37202SOL     OW13444   2.775   7.606   3.799
37202SOL    HW113445   2.856   7.595   3.849
37202SOL    HW213446   2.722   7.530   3.821
37203SOL     OW13447   6.642  13.105   7.840
37203SOL    HW113448   6.651  13.021   7.795
37203SOL    HW213449   6.730  13.143   7.838
37204SOL     OW13450   3.469   6.666  13.120
37204SOL    HW113451   3.397   6.651  13.181
37204SOL    HW213452   3.480   6.583  13.073
37205SOL     OW13453   5.691   7.306  12.868
37205SOL    HW113454   5.716   7.321  12.777
37205SOL    HW213455   5.711   7.389  12.912
37206SOL     OW13456   9.392   2.845   2.085
37206SOL    HW113457   9.380   2.940   2.075
37206SOL    HW213458   9.366   2.828   2.176
37207SOL     OW13459   2.278  13.211  11.280
37207SOL    HW113460   2.316  13.288  11.239
37207SOL    HW213461   2.202  13.189  11.226
37208SOL     OW13462   0.759  12.585   6.078
37208SOL    HW113463   0.779  12.545   6.162
37208SOL    HW213464   0.821  12.657   6.069
37209SOL     OW13465   9.793   2.265  14.609
37209SOL    HW113466   9.774   2.289  14.518
37209SOL    HW213467   9.725   2.201  14.631
37210SOL     OW13468  11.479  11.589   4.785
37210SOL    HW113469  11.522  11.553   4.862
37210SOL    HW213470  11.536  11.565   4.712
37211SOL     OW13471   4.092   6.649   0.972
37211SOL    HW113472   4.183   6.672   0.953
37211SOL    HW213473   4.040   6.712   0.921
37212SOL     OW13474   8.715   3.468  14.454
37212SOL    HW113475   8.743   3.378  14.468
37212SOL    HW213476   8.690   3.472  14.362
37213SOL     OW13477   3.775  12.930   9.621
37213SOL    HW113478   3.695  12.982   9.627
37213SOL    HW213479   3.747  12.846   9.585
37214SOL     OW13480   8.474   5.445   8.515
37214SOL    HW113481   8.496   5.453   8.608
37214SOL    HW213482   8.424   5.363   8.510
37215SOL     OW13483  12.129   3.783   4.187
37215SOL    HW113484  12.186   3.732   4.246
37215SOL    HW213485  12.132   3.735   4.104
37216SOL     OW13486  12.525   2.047   6.564
37216SOL    HW113487  12.545   1.956   6.583
37216SOL    HW213488  12.582   2.097   6.623
37217SOL     OW13489   5.713   3.061   0.638
37217SOL    HW113490   5.800   3.032   0.611
37217SOL    HW213491   5.666   2.979   0.656
37218SOL     OW13492  10.115  11.660   4.132
37218SOL    HW113493  10.119  11.591   4.199
37218SOL    HW213494  10.028  11.651   4.094
37219SOL     OW13495   1.940   0.024   9.140
37219SOL    HW113496   2.025   0.042   9.098
37219SOL    HW213497   1.921  14.809   9.119
37220SOL     OW13498  11.109  11.890   7.605
37220SOL    HW113499  11.169  11.960   7.580
37220SOL    HW213500  11.101  11.898   7.700
37221SOL     OW13501   0.453   6.280   3.198
37221SOL    HW113502   0.378   6.232   3.233
37221SOL    HW213503   0.503   6.214   3.149
37222SOL     OW13504  10.303   3.112   0.809
37222SOL    HW113505  10.291   3.120   0.904
37222SOL    HW213506  10.279   3.021   0.790
37223SOL     OW13507   0.948   8.973  10.728
37223SOL    HW113508   0.960   9.028  10.806
37223SOL    HW213509   1.000   9.016  10.661
37224SOL     OW13510  12.260   9.296   5.547
37224SOL    HW113511  12.236   9.204   5.559
37224SOL    HW213512  12.307   9.319   5.627
37225SOL     OW13513   5.940   1.509   6.155
37225SOL    HW113514   5.859   1.482   6.111
37225SOL    HW213515   5.911   1.577   6.217
37226SOL     OW13516   5.294  11.889  10.202
37226SOL    HW113517   5.204  11.885  10.234
37226SOL    HW213518   5.286  11.935  10.117
37227SOL     OW13519   7.085   1.291   5.880
37227SOL    HW113520   7.145   1.222   5.850
37227SOL    HW213521   7.142   1.366   5.898
37228SOL     OW13522  13.541  14.603  13.712
37228SOL    HW113523  13.529  14.509  13.722
37228SOL    HW213524  13.479  14.642  13.773
37229SOL     OW13525   1.805  13.280   7.499
37229SOL    HW113526   1.832  13.192   7.471
37229SOL    HW213527   1.770  13.320   7.419
37230SOL     OW13528   3.017   6.245   9.288
37230SOL    HW113529   3.002   6.151   9.296
37230SOL    HW213530   3.110   6.257   9.309
37231SOL     OW13531   6.101   2.130   0.462
37231SOL    HW113532   6.013   2.165   0.475
37231SOL    HW213533   6.089   2.035   0.458
37232SOL     OW13534  13.756   5.876  13.872
37232SOL    HW113535  13.758   5.794  13.920
37232SOL    HW213536  13.711   5.855  13.790
37233SOL     OW13537   5.720  14.566  12.437
37233SOL    HW113538   5.774  14.508  12.492
37233SOL    HW213539   5.642  14.514  12.417
37234SOL     OW13540   2.958  11.338   2.651
37234SOL    HW113541   3.030  11.329   2.714
37234SOL    HW213542   2.989  11.404   2.589
37235SOL     OW13543   4.008   0.360   6.107
37235SOL    HW113544   3.992   0.453   6.124
37235SOL    HW213545   3.944   0.314   6.161
37236SOL     OW13546   5.197   2.586  10.582
37236SOL    HW113547   5.114   2.608  10.624
37236SOL    HW213548   5.243   2.534  10.648
37237SOL     OW13549   6.592   2.597   6.947
37237SOL    HW113550   6.517   2.643   6.983
37237SOL    HW213551   6.625   2.655   6.878
37238SOL     OW13552  11.462  11.324   3.278
37238SOL    HW113553  11.390  11.386   3.285
37238SOL    HW213554  11.514  11.337   3.357
37239SOL     OW13555   0.244   3.044   1.128
37239SOL    HW113556   0.338   3.035   1.108
37239SOL    HW213557   0.214   3.115   1.071
37240SOL     OW13558  14.436   8.694   0.201
37240SOL    HW113559  14.391   8.657   0.276
37240SOL    HW213560  14.527   8.705   0.230
37241SOL     OW13561   9.475   5.253   6.194
37241SOL    HW113562   9.428   5.171   6.208
37241SOL    HW213563   9.408   5.312   6.157
37242SOL     OW13564   6.402   6.788   7.880
37242SOL    HW113565   6.404   6.861   7.818
37242SOL    HW213566   6.457   6.721   7.841
37243SOL     OW13567  12.873  12.044   1.882
37243SOL    HW113568  12.796  12.027   1.828
37243SOL    HW213569  12.896  11.959   1.919
37244SOL     OW13570   1.549   7.548   3.123
37244SOL    HW113571   1.576   7.598   3.200
37244SOL    HW213572   1.454   7.550   3.125
37245SOL     OW13573   8.175   5.872   1.231
37245SOL    HW113574   8.216   5.934   1.292
37245SOL    HW213575   8.247   5.816   1.203
37246SOL     OW13576  12.010   4.069   9.350
37246SOL    HW113577  11.928   4.119   9.349
37246SOL    HW213578  11.986   3.985   9.390
37247SOL     OW13579   2.965   1.712   4.473
37247SOL    HW113580   3.014   1.697   4.555
37247SOL    HW213581   2.883   1.751   4.502
37248SOL     OW13582   0.160  12.744  11.602
37248SOL    HW113583   0.164  12.649  11.613
37248SOL    HW213584   0.201  12.760  11.517
37249SOL     OW13585  12.369   0.960   9.961
37249SOL    HW113586  12.438   0.995  10.017
37249SOL    HW213587  12.413   0.897   9.905
37250SOL     OW13588  11.077   2.226   2.714
37250SOL    HW113589  11.139   2.279   2.765
37250SOL    HW213590  11.015   2.194   2.779
37251SOL     OW13591   4.180   7.978   4.509
37251SOL    HW113592   4.206   8.057   4.462
37251SOL    HW213593   4.084   7.976   4.501
37252SOL     OW13594   1.422   8.296   9.215
37252SOL    HW113595   1.394   8.387   9.229
37252SOL    HW213596   1.510   8.292   9.251
37253SOL     OW13597   6.826   1.622   1.988
37253SOL    HW113598   6.758   1.679   2.022
37253SOL    HW213599   6.780   1.546   1.953
37254SOL     OW13600   3.511   1.564   3.656
37254SOL    HW113601   3.588   1.510   3.640
37254SOL    HW213602   3.538   1.653   3.635
37255SOL     OW13603   1.292   9.947  12.494
37255SOL    HW113604   1.208   9.922  12.454
37255SOL    HW213605   1.276  10.034  12.529
37256SOL     OW13606  10.469   5.064   1.776
37256SOL    HW113607  10.415   4.992   1.745
37256SOL    HW213608  10.499   5.036   1.863
37257SOL     OW13609   1.388   8.264   8.563
37257SOL    HW113610   1.332   8.325   8.612
37257SOL    HW213611   1.475   8.303   8.568
37258SOL     OW13612   0.742   6.891   3.550
37258SOL    HW113613   0.800   6.817   3.530
37258SOL    HW213614   0.654   6.859   3.531
37259SOL     OW13615   3.934   0.628   7.939
37259SOL    HW113616   3.842   0.610   7.919
37259SOL    HW213617   3.932   0.705   7.996
37260SOL     OW13618   5.613   4.212  11.375
37260SOL    HW113619   5.637   4.123  11.400
37260SOL    HW213620   5.684   4.267  11.409
37261SOL     OW13621   2.875   7.158   4.908
37261SOL    HW113622   2.945   7.167   4.843
37261SOL    HW213623   2.861   7.064   4.915
37262SOL     OW13624  10.360  10.565   7.899
37262SOL    HW113625  10.351  10.591   7.991
37262SOL    HW213626  10.358  10.647   7.850
37263SOL     OW13627   4.676   1.772  11.509
37263SOL    HW113628   4.679   1.760  11.604
37263SOL    HW213629   4.595   1.728  11.483
37264SOL     OW13630   3.707   7.284  11.249
37264SOL    HW113631   3.697   7.287  11.153
37264SOL    HW213632   3.789   7.237  11.262
37265SOL     OW13633   3.951  11.466  11.731
37265SOL    HW113634   3.907  11.465  11.645
37265SOL    HW213635   4.001  11.384  11.733
37266SOL     OW13636   4.554  13.419  13.771
37266SOL    HW113637   4.481  13.458  13.819
37266SOL    HW213638   4.574  13.482  13.702
37267SOL     OW13639   3.608   4.735  12.809
37267SOL    HW113640   3.633   4.771  12.894
37267SOL    HW213641   3.547   4.665  12.830
37268SOL     OW13642   6.457   4.577  11.483
37268SOL    HW113643   6.510   4.654  11.459
37268SOL    HW213644   6.416   4.551  11.401
37269SOL     OW13645   0.155   7.377   4.698
37269SOL    HW113646   0.091   7.447   4.709
37269SOL    HW213647   0.210   7.382   4.776
37270SOL     OW13648   7.110   1.184   1.661
37270SOL    HW113649   7.155   1.100   1.658
37270SOL    HW213650   7.140   1.224   1.744
37271SOL     OW13651   6.147   2.790  14.552
37271SOL    HW113652   6.122   2.859  14.613
37271SOL    HW213653   6.085   2.719  14.569
37272SOL     OW13654  10.644   3.319   8.518
37272SOL    HW113655  10.627   3.285   8.431
37272SOL    HW213656  10.646   3.242   8.575
37273SOL     OW13657  13.621   7.669  11.931
37273SOL    HW113658  13.569   7.749  11.935
37273SOL    HW213659  13.560   7.599  11.951
37274SOL     OW13660   4.972   2.214   5.978
37274SOL    HW113661   4.978   2.303   5.942
37274SOL    HW213662   4.878   2.197   5.983
37275SOL     OW13663   4.875   5.544   2.272
37275SOL    HW113664   4.902   5.527   2.362
37275SOL    HW213665   4.871   5.458   2.231
37276SOL     OW13666  10.769   7.094  13.093
37276SOL    HW113667  10.862   7.088  13.112
37276SOL    HW213668  10.727   7.042  13.162
37277SOL     OW13669  10.649  14.271   6.176
37277SOL    HW113670  10.715  14.206   6.199
37277SOL    HW213671  10.599  14.230   6.105
37278SOL     OW13672   0.510  12.505  11.605
37278SOL    HW113673   0.436  12.490  11.545
37278SOL    HW213674   0.533  12.418  11.637
37279SOL     OW13675   8.317   6.336   2.585
37279SOL    HW113676   8.348   6.327   2.676
37279SOL    HW213677   8.385   6.387   2.542
37280SOL     OW13678   5.583   3.599  13.379
37280SOL    HW113679   5.531   3.587  13.459
37280SOL    HW213680   5.640   3.674  13.399
37281SOL     OW13681  13.054   2.976  13.808
37281SOL    HW113682  13.108   3.038  13.856
37281SOL    HW213683  13.101   2.960  13.726
37282SOL     OW13684   7.166  12.407   0.089
37282SOL    HW113685   7.158  12.333   0.149
37282SOL    HW213686   7.259  12.432   0.095
37283SOL     OW13687   5.092   7.388   6.071
37283SOL    HW113688   5.042   7.387   6.152
37283SOL    HW213689   5.170   7.336   6.090
37284SOL     OW13690   7.542  11.199  13.262
37284SOL    HW113691   7.449  11.221  13.255
37284SOL    HW213692   7.581  11.277  13.301
37285SOL     OW13693   4.716   4.677  11.612
37285SOL    HW113694   4.747   4.595  11.650
37285SOL    HW213695   4.620   4.668  11.613
37286SOL     OW13696   2.527  11.369   5.899
37286SOL    HW113697   2.558  11.294   5.848
37286SOL    HW213698   2.480  11.331   5.973
37287SOL     OW13699   3.652   2.017   3.092
37287SOL    HW113700   3.559   2.024   3.069
37287SOL    HW213701   3.665   2.085   3.159
37288SOL     OW13702   9.034  12.172  10.830
37288SOL    HW113703   9.091  12.189  10.754
37288SOL    HW213704   8.960  12.125  10.794
37289SOL     OW13705   3.531   5.723   3.513
37289SOL    HW113706   3.589   5.754   3.582
37289SOL    HW213707   3.448   5.704   3.558
37290SOL     OW13708   0.525  10.005   9.896
37290SOL    HW113709   0.555   9.967   9.814
37290SOL    HW213710   0.594   9.985   9.959
37291SOL     OW13711   1.639   9.198   6.209
37291SOL    HW113712   1.644   9.285   6.248
37291SOL    HW213713   1.729   9.176   6.184
37292SOL     OW13714   8.226   0.733   8.434
37292SOL    HW113715   8.154   0.671   8.433
37292SOL    HW213716   8.191   0.810   8.389
37293SOL     OW13717  14.684   3.847  14.408
37293SOL    HW113718  14.767   3.805  14.434
37293SOL    HW213719  14.617   3.782  14.432
37294SOL     OW13720   1.082   2.792  14.458
37294SOL    HW113721   1.125   2.851  14.521
37294SOL    HW213722   1.125   2.812  14.375
37295SOL     OW13723   6.436   0.072  13.710
37295SOL    HW113724   6.476   0.125  13.641
37295SOL    HW213725   6.423  14.862  13.671
37296SOL     OW13726   8.706  10.818  12.488
37296SOL    HW113727   8.754  10.752  12.438
37296SOL    HW213728   8.615  10.791  12.482
37297SOL     OW13729   6.157   0.131  12.030
37297SOL    HW113730   6.231   0.140  12.091
37297SOL    HW213731   6.096   0.199  12.057
37298SOL     OW13732  10.172   0.942  13.233
37298SOL    HW113733  10.149   0.932  13.326
37298SOL    HW213734  10.147   0.859  13.194
37299SOL     OW13735   0.850  11.634  12.066
37299SOL    HW113736   0.784  11.578  12.107
37299SOL    HW213737   0.805  11.717  12.049
37300SOL     OW13738   5.679  10.144   4.801
37300SOL    HW113739   5.659  10.157   4.894
37300SOL    HW213740   5.597  10.114   4.763
37301SOL     OW13741  11.662   1.504  11.394
37301SOL    HW113742  11.586   1.560  11.384
37301SOL    HW213743  11.625   1.418  11.416
37302SOL     OW13744  12.497   2.637   6.396
37302SOL    HW113745  12.436   2.704   6.426
37302SOL    HW213746  12.519   2.587   6.475
37303SOL     OW13747  10.251   0.261  12.856
37303SOL    HW113748  10.254   0.270  12.761
37303SOL    HW213749  10.319   0.320  12.888
37304SOL     OW13750   3.227   7.145   9.413
37304SOL    HW113751   3.174   7.078   9.456
37304SOL    HW213752   3.273   7.099   9.343
37305SOL     OW13753   8.789   4.875  13.362
37305SOL    HW113754   8.702   4.840  13.382
37305SOL    HW213755   8.845   4.798  13.356
37306SOL     OW13756  11.171   4.505   4.899
37306SOL    HW113757  11.086   4.502   4.944
37306SOL    HW213758  11.179   4.419   4.857
37307SOL     OW13759   6.165   4.526   7.244
37307SOL    HW113760   6.212   4.463   7.189
37307SOL    HW213761   6.211   4.609   7.230
37308SOL     OW13762   6.970   7.202  14.839
37308SOL    HW113763   6.946   7.129   0.018
37308SOL    HW213764   7.011   7.162  14.762
37309SOL     OW13765  14.307   1.980   6.046
37309SOL    HW113766  14.260   2.008   6.124
37309SOL    HW213767  14.252   1.914   6.006
37310SOL     OW13768   8.910  11.240   7.267
37310SOL    HW113769   8.937  11.327   7.297
37310SOL    HW213770   8.829  11.222   7.314
37311SOL     OW13771   7.815  14.469   5.775
37311SOL    HW113772   7.872  14.466   5.852
37311SOL    HW213773   7.835  14.389   5.727
37312SOL     OW13774   8.816   9.777   2.642
37312SOL    HW113775   8.891   9.744   2.690
37312SOL    HW213776   8.829   9.748   2.552
37313SOL     OW13777  11.454   5.285   5.042
37313SOL    HW113778  11.515   5.356   5.061
37313SOL    HW213779  11.379   5.328   5.002
37314SOL     OW13780  14.793   3.390   9.144
37314SOL    HW113781  14.849   3.437   9.083
37314SOL    HW213782  14.735   3.338   9.087
37315SOL     OW13783   9.330   6.466  14.402
37315SOL    HW113784   9.394   6.506  14.343
37315SOL    HW213785   9.380   6.401  14.451
37316SOL     OW13786   0.496  10.298  11.558
37316SOL    HW113787   0.487  10.383  11.601
37316SOL    HW213788   0.582  10.266  11.585
37317SOL     OW13789   8.928   9.236  10.806
37317SOL    HW113790   8.847   9.185  10.814
37317SOL    HW213791   8.901   9.315  10.758
37318SOL     OW13792  10.922  10.854   9.366
37318SOL    HW113793  10.900  10.841   9.274
37318SOL    HW213794  10.963  10.941   9.368
37319SOL     OW13795   7.316   6.595   9.086
37319SOL    HW113796   7.341   6.517   9.136
37319SOL    HW213797   7.362   6.667   9.129
37320SOL     OW13798   8.609   0.216   2.770
37320SOL    HW113799   8.612   0.281   2.701
37320SOL    HW213800   8.693   0.223   2.815
37321SOL     OW13801   9.886   1.418  13.238
37321SOL    HW113802   9.811   1.417  13.298
37321SOL    HW213803   9.924   1.331  13.246
37322SOL     OW13804   3.822   2.868  12.398
37322SOL    HW113805   3.764   2.931  12.440
37322SOL    HW213806   3.852   2.812  12.470
37323SOL     OW13807  10.771   1.319   4.616
37323SOL    HW113808  10.761   1.281   4.703
37323SOL    HW213809  10.681   1.337   4.588
37324SOL     OW13810  11.132   1.967  10.344
37324SOL    HW113811  11.102   1.964  10.435
37324SOL    HW213812  11.128   2.059  10.320
37325SOL     OW13813   5.089   1.200   8.406
37325SOL    HW113814   4.994   1.188   8.405
37325SOL    HW213815   5.112   1.219   8.315
37326SOL     OW13816   2.162  11.590   0.614
37326SOL    HW113817   2.188  11.498   0.614
37326SOL    HW213818   2.163  11.615   0.521
37327SOL     OW13819  10.000   8.084  10.801
37327SOL    HW113820   9.970   8.168  10.835
37327SOL    HW213821   9.927   8.052  10.748
37328SOL     OW13822  13.049  13.171   8.126
37328SOL    HW113823  13.134  13.193   8.088
37328SOL    HW213824  12.985  13.207   8.066
37329SOL     OW13825   3.182   4.751  11.244
37329SOL    HW113826   3.246   4.782  11.309
37329SOL    HW213827   3.146   4.831  11.207
37330SOL     OW13828  14.575  13.229   3.029
37330SOL    HW113829  14.646  13.172   3.058
37330SOL    HW213830  14.614  13.285   2.963
37331SOL     OW13831   8.518   9.612   8.850
37331SOL    HW113832   8.601   9.644   8.816
37331SOL    HW213833   8.538   9.584   8.940
37332SOL     OW13834   6.091   3.799   1.496
37332SOL    HW113835   6.132   3.776   1.413
37332SOL    HW213836   6.119   3.730   1.556
37333SOL     OW13837   5.435  12.914  14.416
37333SOL    HW113838   5.493  12.838  14.425
37333SOL    HW213839   5.352  12.877  14.384
37334SOL     OW13840  13.687  12.867  10.757
37334SOL    HW113841  13.682  12.788  10.811
37334SOL    HW213842  13.710  12.937  10.819
37335SOL     OW13843  11.523  14.789   1.486
37335SOL    HW113844  11.488  14.725   1.547
37335SOL    HW213845  11.593  14.743   1.439
37336SOL     OW13846   7.401   3.839   8.186
37336SOL    HW113847   7.429   3.792   8.107
37336SOL    HW213848   7.343   3.778   8.231
37337SOL     OW13849   3.759   5.842   6.909
37337SOL    HW113850   3.832   5.812   6.856
37337SOL    HW213851   3.756   5.937   6.895
37338SOL     OW13852   0.705  14.595  10.362
37338SOL    HW113853   0.636  14.532  10.342
37338SOL    HW213854   0.660  14.680  10.359
37339SOL     OW13855   5.651   8.950  14.351
37339SOL    HW113856   5.568   8.934  14.396
37339SOL    HW213857   5.717   8.913  14.408
37340SOL     OW13858  10.739   8.286   1.071
37340SOL    HW113859  10.718   8.193   1.062
37340SOL    HW213860  10.819   8.297   1.019
37341SOL     OW13861   2.214   2.763   9.900
37341SOL    HW113862   2.260   2.719   9.829
37341SOL    HW213863   2.274   2.758   9.974
37342SOL     OW13864  13.202   4.153  10.371
37342SOL    HW113865  13.260   4.187  10.439
37342SOL    HW213866  13.136   4.221  10.358
37343SOL     OW13867  11.676   0.331   0.888
37343SOL    HW113868  11.607   0.293   0.942
37343SOL    HW213869  11.631   0.401   0.839
37344SOL     OW13870   0.270   5.910   0.065
37344SOL    HW113871   0.251   5.875  14.854
37344SOL    HW213872   0.227   5.850   0.125
37345SOL     OW13873  11.084   6.508  12.128
37345SOL    HW113874  11.030   6.519  12.050
37345SOL    HW213875  11.023   6.518  12.201
37346SOL     OW13876   5.179  12.330  10.042
37346SOL    HW113877   5.173  12.407  10.098
37346SOL    HW213878   5.256  12.346   9.987
37347SOL     OW13879   0.876   0.049   8.338
37347SOL    HW113880   0.829   0.003   8.268
37347SOL    HW213881   0.814   0.115   8.368
37348SOL     OW13882   3.883  13.922   5.981
37348SOL    HW113883   3.874  13.935   6.075
37348SOL    HW213884   3.796  13.896   5.951
37349SOL     OW13885  12.485   9.649  14.714
37349SOL    HW113886  12.580   9.642  14.700
37349SOL    HW213887  12.448   9.582  14.657
37350SOL     OW13888   9.900  10.478   9.471
37350SOL    HW113889   9.817  10.515   9.500
37350SOL    HW213890   9.937  10.437   9.549
37351SOL     OW13891  13.697   9.295   5.383
37351SOL    HW113892  13.635   9.368   5.375
37351SOL    HW213893  13.665   9.245   5.457
37352SOL     OW13894   2.944   3.466   3.064
37352SOL    HW113895   2.896   3.390   3.098
37352SOL    HW213896   2.876   3.530   3.043
37353SOL     OW13897  10.747  10.425   5.268
37353SOL    HW113898  10.825  10.473   5.295
37353SOL    HW213899  10.691  10.491   5.227
37354SOL     OW13900  14.046   0.362  13.355
37354SOL    HW113901  14.089   0.447  13.358
37354SOL    HW213902  14.073   0.318  13.436
37355SOL     OW13903   4.625   6.195  12.510
37355SOL    HW113904   4.538   6.200  12.470
37355SOL    HW213905   4.623   6.114  12.561
37356SOL     OW13906  12.248   8.618  12.639
37356SOL    HW113907  12.320   8.652  12.692
37356SOL    HW213908  12.264   8.651  12.551
37357SOL     OW13909   7.489  12.069   8.226
37357SOL    HW113910   7.463  12.020   8.304
37357SOL    HW213911   7.584  12.059   8.221
37358SOL     OW13912  14.689   9.573   1.611
37358SOL    HW113913  14.617   9.579   1.548
37358SOL    HW213914  14.751   9.640   1.584
37359SOL     OW13915   2.735  13.596   8.218
37359SOL    HW113916   2.684  13.541   8.276
37359SOL    HW213917   2.808  13.540   8.190
37360SOL     OW13918   6.716   4.461  13.819
37360SOL    HW113919   6.748   4.375  13.790
37360SOL    HW213920   6.789   4.520  13.804
37361SOL     OW13921   5.140   4.486   9.191
37361SOL    HW113922   5.056   4.455   9.225
37361SOL    HW213923   5.200   4.480   9.266
37362SOL     OW13924   0.803   4.813   8.879
37362SOL    HW113925   0.718   4.788   8.913
37362SOL    HW213926   0.855   4.835   8.956
37363SOL     OW13927   5.391   9.227   7.195
37363SOL    HW113928   5.375   9.165   7.124
37363SOL    HW213929   5.395   9.173   7.274
37364SOL     OW13930  12.309   9.204   9.662
37364SOL    HW113931  12.329   9.280   9.717
37364SOL    HW213932  12.394   9.171   9.635
37365SOL     OW13933   0.764  10.468  13.146
37365SOL    HW113934   0.822  10.535  13.182
37365SOL    HW213935   0.685  10.473  13.199
37366SOL     OW13936   6.671   1.783   2.571
37366SOL    HW113937   6.592   1.747   2.611
37366SOL    HW213938   6.690   1.862   2.621
37367SOL     OW13939   1.855  11.940   9.434
37367SOL    HW113940   1.785  11.991   9.475
37367SOL    HW213941   1.811  11.868   9.390
37368SOL     OW13942   4.911   2.943   7.561
37368SOL    HW113943   4.825   2.985   7.556
37368SOL    HW213944   4.894   2.852   7.537
37369SOL     OW13945  13.974   7.488   4.499
37369SOL    HW113946  13.921   7.410   4.515
37369SOL    HW213947  13.947   7.517   4.412
37370SOL     OW13948   3.570  11.353   6.270
37370SOL    HW113949   3.480  11.385   6.269
37370SOL    HW213950   3.613  11.401   6.200
37371SOL     OW13951  12.755   4.031   3.813
37371SOL    HW113952  12.672   4.052   3.855
37371SOL    HW213953  12.752   3.936   3.798
37372SOL     OW13954   1.997  14.016   3.544
37372SOL    HW113955   1.944  13.988   3.469
37372SOL    HW213956   2.072  14.062   3.505
37373SOL     OW13957   2.737  12.820   1.671
37373SOL    HW113958   2.682  12.894   1.696
37373SOL    HW213959   2.827  12.854   1.677
37374SOL     OW13960   4.569   7.685  13.317
37374SOL    HW113961   4.560   7.722  13.405
37374SOL    HW213962   4.606   7.598  13.331
37375SOL     OW13963   7.952   2.012  12.542
37375SOL    HW113964   7.870   1.972  12.514
37375SOL    HW213965   8.010   2.003  12.467
37376SOL     OW13966   4.189   5.318   8.964
37376SOL    HW113967   4.155   5.363   8.887
37376SOL    HW213968   4.277   5.356   8.976
37377SOL     OW13969   7.824   7.357  13.067
37377SOL    HW113970   7.795   7.418  13.134
37377SOL    HW213971   7.758   7.288  13.066
37378SOL     OW13972  12.732   5.068  13.130
37378SOL    HW113973  12.773   5.153  13.146
37378SOL    HW213974  12.783   5.030  13.059
37379SOL     OW13975   4.194  11.079   0.778
37379SOL    HW113976   4.235  11.010   0.831
37379SOL    HW213977   4.241  11.159   0.802
37380SOL     OW13978  13.262  13.979   4.680
37380SOL    HW113979  13.211  14.059   4.693
37380SOL    HW213980  13.314  13.971   4.760
37381SOL     OW13981   8.561  14.229  14.796
37381SOL    HW113982   8.619  14.164  14.756
37381SOL    HW213983   8.593  14.313  14.762
37382SOL     OW13984   7.882  13.241  14.255
37382SOL    HW113985   7.915  13.250  14.165
37382SOL    HW213986   7.888  13.328  14.292
37383SOL     OW13987   9.468   7.308  14.860
37383SOL    HW113988   9.454   7.216  14.839
37383SOL    HW213989   9.480   7.351  14.775
37384SOL     OW13990   6.306   0.991  12.631
37384SOL    HW113991   6.345   1.072  12.664
37384SOL    HW213992   6.381   0.933  12.615
37385SOL     OW13993  12.434   6.720   9.739
37385SOL    HW113994  12.529   6.735   9.739
37385SOL    HW213995  12.399   6.789   9.795
37386SOL     OW13996   9.826   9.539   9.719
37386SOL    HW113997   9.823   9.615   9.660
37386SOL    HW213998   9.739   9.536   9.759
37387SOL     OW13999   5.392  12.549  10.596
37387SOL    HW114000   5.463  12.594  10.550
37387SOL    HW214001   5.327  12.531  10.528
37388SOL     OW14002   2.882   5.325  14.267
37388SOL    HW114003   2.936   5.403  14.253
37388SOL    HW214004   2.937   5.267  14.321
37389SOL     OW14005   3.533   3.381   5.284
37389SOL    HW114006   3.450   3.429   5.286
37389SOL    HW214007   3.590   3.434   5.229
37390SOL     OW14008   6.814   7.532   6.665
37390SOL    HW114009   6.852   7.548   6.751
37390SOL    HW214010   6.727   7.571   6.669
37391SOL     OW14011   6.725  10.286   4.119
37391SOL    HW114012   6.715  10.218   4.051
37391SOL    HW214013   6.801  10.257   4.170
37392SOL     OW14014   8.246   1.835   9.715
37392SOL    HW114015   8.153   1.844   9.694
37392SOL    HW214016   8.278   1.925   9.720
37393SOL     OW14017  14.275   9.520  13.128
37393SOL    HW114018  14.220   9.598  13.119
37393SOL    HW214019  14.353   9.550  13.173
37394SOL     OW14020   7.017   6.187  12.714
37394SOL    HW114021   6.959   6.127  12.762
37394SOL    HW214022   6.969   6.208  12.634
37395SOL     OW14023  10.789   2.329   2.407
37395SOL    HW114024  10.881   2.357   2.407
37395SOL    HW214025  10.787   2.255   2.347
37396SOL     OW14026   2.818   2.021   4.984
37396SOL    HW114027   2.836   2.111   4.956
37396SOL    HW214028   2.904   1.978   4.982
37397SOL     OW14029  14.624   0.238  11.486
37397SOL    HW114030  14.690   0.169  11.489
37397SOL    HW214031  14.645   0.288  11.407
37398SOL     OW14032   5.106   3.257   1.081
37398SOL    HW114033   5.193   3.272   1.118
37398SOL    HW214034   5.105   3.306   0.999
37399SOL     OW14035   4.586   9.995  14.102
37399SOL    HW114036   4.656   9.955  14.051
37399SOL    HW214037   4.628  10.021  14.184
37400SOL     OW14038   0.233   0.710   2.165
37400SOL    HW114039   0.152   0.762   2.164
37400SOL    HW214040   0.216   0.641   2.230
37401SOL     OW14041   8.273   4.232   3.172
37401SOL    HW114042   8.290   4.211   3.263
37401SOL    HW214043   8.310   4.320   3.160
37402SOL     OW14044   0.019  12.282  10.797
37402SOL    HW114045  14.801  12.297  10.797
37402SOL    HW214046   0.034  12.224  10.872
37403SOL     OW14047   5.546   5.595   9.424
37403SOL    HW114048   5.497   5.616   9.504
37403SOL    HW214049   5.521   5.505   9.404
37404SOL     OW14050   4.024  14.317   9.991
37404SOL    HW114051   4.066  14.282  10.070
37404SOL    HW214052   3.933  14.287   9.997
37405SOL     OW14053  13.602   6.712   8.876
37405SOL    HW114054  13.565   6.643   8.931
37405SOL    HW214055  13.641   6.774   8.938
37406SOL     OW14056   5.543  13.930   9.283
37406SOL    HW114057   5.548  14.026   9.280
37406SOL    HW214058   5.596  13.906   9.359
37407SOL     OW14059  12.679   2.272   6.967
37407SOL    HW114060  12.686   2.220   6.886
37407SOL    HW214061  12.586   2.288   6.978
37408SOL     OW14062  11.620   4.469   1.982
37408SOL    HW114063  11.653   4.472   2.071
37408SOL    HW214064  11.687   4.421   1.933
37409SOL     OW14065   6.594  14.242   7.618
37409SOL    HW114066   6.532  14.312   7.641
37409SOL    HW214067   6.557  14.201   7.540
37410SOL     OW14068   3.314   4.964   1.363
37410SOL    HW114069   3.289   5.056   1.370
37410SOL    HW214070   3.405   4.962   1.391
37411SOL     OW14071   3.820   3.714   6.605
37411SOL    HW114072   3.753   3.650   6.627
37411SOL    HW214073   3.772   3.783   6.559
37412SOL     OW14074  12.885   6.309  14.466
37412SOL    HW114075  12.844   6.224  14.451
37412SOL    HW214076  12.829   6.371  14.419
37413SOL     OW14077  12.132   4.845  12.155
37413SOL    HW114078  12.165   4.761  12.122
37413SOL    HW214079  12.154   4.908  12.086
37414SOL     OW14080   9.024   4.968   2.793
37414SOL    HW114081   9.038   5.014   2.875
37414SOL    HW214082   9.092   4.900   2.791
37415SOL     OW14083   5.577   6.880  13.338
37415SOL    HW114084   5.668   6.877  13.308
37415SOL    HW214085   5.526   6.897  13.259
37416SOL     OW14086   4.795   1.481   9.205
37416SOL    HW114087   4.865   1.438   9.155
37416SOL    HW214088   4.822   1.572   9.210
37417SOL     OW14089   5.922   2.743  11.141
37417SOL    HW114090   5.826   2.750  11.140
37417SOL    HW214091   5.949   2.768  11.053
37418SOL     OW14092   7.208   6.199   5.506
37418SOL    HW114093   7.214   6.243   5.421
37418SOL    HW214094   7.288   6.225   5.552
37419SOL     OW14095  14.753  12.518   9.330
37419SOL    HW114096  14.760  12.613   9.326
37419SOL    HW214097  14.813  12.491   9.399
37420SOL     OW14098   6.887   9.573   9.990
37420SOL    HW114099   6.825   9.520   9.940
37420SOL    HW214100   6.858   9.663   9.976
37421SOL     OW14101   8.181  10.684   8.322
37421SOL    HW114102   8.213  10.719   8.239
37421SOL    HW214103   8.170  10.760   8.378
37422SOL     OW14104  11.647   6.862   2.212
37422SOL    HW114105  11.713   6.794   2.197
37422SOL    HW214106  11.697   6.939   2.238
37423SOL     OW14107   3.759   4.708   4.390
37423SOL    HW114108   3.816   4.635   4.416
37423SOL    HW214109   3.819   4.777   4.365
37424SOL     OW14110   7.367  10.940   6.930
37424SOL    HW114111   7.354  10.878   6.858
37424SOL    HW214112   7.461  10.960   6.927
37425SOL     OW14113   2.327   6.821   9.698
37425SOL    HW114114   2.388   6.893   9.711
37425SOL    HW214115   2.383   6.743   9.689
37426SOL     OW14116   9.053  13.894   5.230
37426SOL    HW114117   8.970  13.887   5.184
37426SOL    HW214118   9.106  13.823   5.195
37427SOL     OW14119   0.761  11.045   2.860
37427SOL    HW114120   0.787  10.958   2.829
37427SOL    HW214121   0.675  11.032   2.899
37428SOL     OW14122  13.724   8.867   2.259
37428SOL    HW114123  13.729   8.913   2.342
37428SOL    HW214124  13.813   8.872   2.223
37429SOL     OW14125  12.714   3.051   3.310
37429SOL    HW114126  12.690   2.967   3.272
37429SOL    HW214127  12.794   3.076   3.263
37430SOL     OW14128   7.783  10.605  14.820
37430SOL    HW114129   7.845  10.678  14.820
37430SOL    HW214130   7.810  10.550  14.746
37431SOL     OW14131  12.805   7.655   1.205
37431SOL    HW114132  12.824   7.584   1.266
37431SOL    HW214133  12.888   7.674   1.163
37432SOL     OW14134   6.751   5.010   7.404
37432SOL    HW114135   6.737   4.999   7.498
37432SOL    HW214136   6.747   5.104   7.390
37433SOL     OW14137  12.730   2.205   8.745
37433SOL    HW114138  12.667   2.250   8.690
37433SOL    HW214139  12.815   2.219   8.702
37434SOL     OW14140   7.428   3.973  10.865
37434SOL    HW114141   7.362   4.010  10.924
37434SOL    HW214142   7.495   4.040  10.859
37435SOL     OW14143   2.031   2.150   6.433
37435SOL    HW114144   1.984   2.143   6.516
37435SOL    HW214145   2.058   2.242   6.428
37436SOL     OW14146  11.725  14.202   1.436
37436SOL    HW114147  11.729  14.291   1.402
37436SOL    HW214148  11.715  14.213   1.531
37437SOL     OW14149   1.375   5.455  11.589
37437SOL    HW114150   1.364   5.545  11.619
37437SOL    HW214151   1.335   5.402  11.658
37438SOL     OW14152  12.181  14.247  10.975
37438SOL    HW114153  12.086  14.238  10.971
37438SOL    HW214154  12.214  14.167  10.935
37439SOL     OW14155   9.975  14.654   3.127
37439SOL    HW114156  10.006  14.565   3.108
37439SOL    HW214157   9.899  14.641   3.184
37440SOL     OW14158   6.180   8.515   1.543
37440SOL    HW114159   6.199   8.561   1.460
37440SOL    HW214160   6.091   8.543   1.565
37441SOL     OW14161   8.368   6.124  14.285
37441SOL    HW114162   8.393   6.031  14.290
37441SOL    HW214163   8.370   6.153  14.376
37442SOL     OW14164   8.001   2.206   3.513
37442SOL    HW114165   8.096   2.208   3.508
37442SOL    HW214166   7.982   2.152   3.590
37443SOL     OW14167  13.431  13.987   7.888
37443SOL    HW114168  13.522  13.983   7.920
37443SOL    HW214169  13.439  14.020   7.799
37444SOL     OW14170   6.625  12.608  13.312
37444SOL    HW114171   6.622  12.582  13.220
37444SOL    HW214172   6.617  12.525  13.360
37445SOL     OW14173   7.417  12.795   3.548
37445SOL    HW114174   7.358  12.777   3.475
37445SOL    HW214175   7.407  12.889   3.565
37446SOL     OW14176   7.152   0.003   8.552
37446SOL    HW114177   7.210  14.817   8.508
37446SOL    HW214178   7.087   0.027   8.486
37447SOL     OW14179   7.608   4.302  11.383
37447SOL    HW114180   7.522   4.282  11.420
37447SOL    HW214181   7.631   4.387  11.421
37448SOL     OW14182   4.819   3.381   0.151
37448SOL    HW114183   4.880   3.315   0.185
37448SOL    HW214184   4.798   3.350   0.063
37449SOL     OW14185   3.751   0.595   8.851
37449SOL    HW114186   3.723   0.666   8.792
37449SOL    HW214187   3.678   0.533   8.850
37450SOL     OW14188   0.413  12.426   4.174
37450SOL    HW114189   0.494  12.453   4.216
37450SOL    HW214190   0.364  12.508   4.162
37451SOL     OW14191   0.109   7.037  12.599
37451SOL    HW114192   0.116   6.971  12.530
37451SOL    HW214193   0.136   6.991  12.679
37452SOL     OW14194  12.900  10.762   1.176
37452SOL    HW114195  12.833  10.706   1.215
37452SOL    HW214196  12.852  10.822   1.119
37453SOL     OW14197   4.259   7.441   1.999
37453SOL    HW114198   4.299   7.523   1.970
37453SOL    HW214199   4.181   7.468   2.047
37454SOL     OW14200   4.284   7.287   0.426
37454SOL    HW114201   4.198   7.266   0.462
37454SOL    HW214202   4.266   7.355   0.361
37455SOL     OW14203   6.063   7.921   1.371
37455SOL    HW114204   6.096   7.864   1.441
37455SOL    HW214205   5.981   7.880   1.343
37456SOL     OW14206   4.097   3.410   3.042
37456SOL    HW114207   4.035   3.377   2.977
37456SOL    HW214208   4.138   3.331   3.078
37457SOL     OW14209   7.481   1.591  10.454
37457SOL    HW114210   7.546   1.521  10.447
37457SOL    HW214211   7.419   1.573  10.383
37458SOL     OW14212  11.147   7.407  10.103
37458SOL    HW114213  11.198   7.443  10.176
37458SOL    HW214214  11.146   7.477  10.038
37459SOL     OW14215   3.412   7.411   5.190
37459SOL    HW114216   3.378   7.328   5.157
37459SOL    HW214217   3.499   7.391   5.222
37460SOL     OW14218   9.537  13.067   6.335
37460SOL    HW114219   9.534  13.155   6.372
37460SOL    HW214220   9.583  13.015   6.401
37461SOL     OW14221   7.803  11.250  12.854
37461SOL    HW114222   7.842  11.175  12.809
37461SOL    HW214223   7.751  11.211  12.925
37462SOL     OW14224  12.312  13.074   9.817
37462SOL    HW114225  12.277  13.151   9.771
37462SOL    HW214226  12.379  13.040   9.757
37463SOL     OW14227   7.584  10.797   6.469
37463SOL    HW114228   7.635  10.740   6.410
37463SOL    HW214229   7.549  10.737   6.535
37464SOL     OW14230   2.416  12.324   9.040
37464SOL    HW114231   2.331  12.288   9.065
37464SOL    HW214232   2.470  12.314   9.118
37465SOL     OW14233  10.856  14.758  13.094
37465SOL    HW114234  10.777  14.769  13.041
37465SOL    HW214235  10.908  14.837  13.078
37466SOL     OW14236   3.177   9.618   6.310
37466SOL    HW114237   3.254   9.670   6.288
37466SOL    HW214238   3.123   9.619   6.231
37467SOL     OW14239  13.317   5.637   9.041
37467SOL    HW114240  13.387   5.702   9.042
37467SOL    HW214241  13.354   5.563   8.993
37468SOL     OW14242   1.215   3.374   4.394
37468SOL    HW114243   1.175   3.349   4.311
37468SOL    HW214244   1.230   3.468   4.385
37469SOL     OW14245   1.103  13.913   9.197
37469SOL    HW114246   1.011  13.890   9.187
37469SOL    HW214247   1.150  13.831   9.185
37470SOL     OW14248   2.172  13.072   7.849
37470SOL    HW114249   2.166  13.051   7.755
37470SOL    HW214250   2.096  13.128   7.866
37471SOL     OW14251   8.720  10.620   1.278
37471SOL    HW114252   8.645  10.608   1.218
37471SOL    HW214253   8.740  10.532   1.310
37472SOL     OW14254   2.327  14.832   1.424
37472SOL    HW114255   2.390  14.838   1.496
37472SOL    HW214256   2.280   0.038   1.426
37473SOL     OW14257   2.506  11.905  14.222
37473SOL    HW114258   2.550  11.820  14.211
37473SOL    HW214259   2.426  11.884  14.271
37474SOL     OW14260   3.163   4.853   7.152
37474SOL    HW114261   3.219   4.836   7.227
37474SOL    HW214262   3.220   4.840   7.076
37475SOL     OW14263   7.084   2.699  10.207
37475SOL    HW114264   7.097   2.786  10.168
37475SOL    HW214265   7.069   2.716  10.300
37476SOL     OW14266  14.552   0.913   6.011
37476SOL    HW114267  14.508   0.845   6.062
37476SOL    HW214268  14.619   0.866   5.962
37477SOL     OW14269   3.885   4.444  13.229
37477SOL    HW114270   3.932   4.393  13.295
37477SOL    HW214271   3.952   4.503  13.192
37478SOL     OW14272  14.785  14.362  12.330
37478SOL    HW114273  14.735  14.299  12.279
37478SOL    HW214274  14.792  14.322  12.417
37479SOL     OW14275   1.905   8.411   2.003
37479SOL    HW114276   1.959   8.385   1.929
37479SOL    HW214277   1.911   8.338   2.064
37480SOL     OW14278   6.615  10.673  10.780
37480SOL    HW114279   6.623  10.762  10.746
37480SOL    HW214280   6.690  10.627  10.743
37481SOL     OW14281   7.289   0.318   5.559
37481SOL    HW114282   7.266   0.265   5.482
37481SOL    HW214283   7.349   0.263   5.609
37482SOL     OW14284  10.709  11.305   4.643
37482SOL    HW114285  10.764  11.228   4.660
37482SOL    HW214286  10.771  11.377   4.634
37483SOL     OW14287  10.669   5.847   4.122
37483SOL    HW114288  10.665   5.925   4.067
37483SOL    HW214289  10.699   5.879   4.207
37484SOL     OW14290   2.316   1.368  13.553
37484SOL    HW114291   2.394   1.334  13.596
37484SOL    HW214292   2.345   1.446  13.507
37485SOL     OW14293   1.439   3.206   3.532
37485SOL    HW114294   1.509   3.218   3.596
37485SOL    HW214295   1.365   3.256   3.567
37486SOL     OW14296  13.601   2.679  14.812
37486SOL    HW114297  13.551   2.723  14.744
37486SOL    HW214298  13.651   2.748  14.855
37487SOL     OW14299   9.965  12.096   1.907
37487SOL    HW114300   9.925  12.075   1.991
37487SOL    HW214301  10.048  12.048   1.907
37488SOL     OW14302   1.787   0.403   1.754
37488SOL    HW114303   1.746   0.490   1.753
37488SOL    HW214304   1.810   0.389   1.846
37489SOL     OW14305   8.092   8.304  14.528
37489SOL    HW114306   8.169   8.357  14.551
37489SOL    HW214307   8.061   8.268  14.611
37490SOL     OW14308   1.409  11.084   2.144
37490SOL    HW114309   1.318  11.058   2.133
37490SOL    HW214310   1.425  11.078   2.238
37491SOL     OW14311   7.075   7.015  10.236
37491SOL    HW114312   7.047   6.928  10.264
37491SOL    HW214313   7.153   7.034  10.289
37492SOL     OW14314   6.652  13.048   0.043
37492SOL    HW114315   6.575  12.991   0.038
37492SOL    HW214316   6.696  13.021   0.123
37493SOL     OW14317   9.610  13.694  10.156
37493SOL    HW114318   9.557  13.754  10.208
37493SOL    HW214319   9.650  13.635  10.221
37494SOL     OW14320   5.118   9.441  12.804
37494SOL    HW114321   5.102   9.375  12.872
37494SOL    HW214322   5.103   9.394  12.722
37495SOL     OW14323  10.505   4.909  13.018
37495SOL    HW114324  10.512   4.890  13.112
37495SOL    HW214325  10.569   4.979  13.003
37496SOL     OW14326   0.938   7.148   8.019
37496SOL    HW114327   0.956   7.194   7.937
37496SOL    HW214328   0.996   7.189   8.083
37497SOL     OW14329   3.078  10.408  13.964
37497SOL    HW114330   3.077  10.313  13.950
37497SOL    HW214331   3.118  10.418  14.051
37498SOL     OW14332   7.906   5.602   8.745
37498SOL    HW114333   7.861   5.683   8.724
37498SOL    HW214334   7.997   5.618   8.721
37499SOL     OW14335   7.448  14.841   0.754
37499SOL    HW114336   7.530  14.816   0.796
37499SOL    HW214337   7.473  14.859   0.663
37500SOL     OW14338   5.982  12.676  11.986
37500SOL    HW114339   5.938  12.733  12.049
37500SOL    HW214340   5.916  12.611  11.963
37501SOL     OW14341   6.618   8.629   6.357
37501SOL    HW114342   6.577   8.544   6.374
37501SOL    HW214343   6.599   8.681   6.436
37502SOL     OW14344   6.244   7.267  13.085
37502SOL    HW114345   6.171   7.246  13.026
37502SOL    HW214346   6.294   7.333  13.037
37503SOL     OW14347   2.028   6.136   1.367
37503SOL    HW114348   1.934   6.127   1.353
37503SOL    HW214349   2.040   6.115   1.460
37504SOL     OW14350   8.552   5.202   9.291
37504SOL    HW114351   8.570   5.175   9.201
37504SOL    HW214352   8.465   5.167   9.309
37505SOL     OW14353   7.753   8.728  14.135
37505SOL    HW114354   7.708   8.773  14.206
37505SOL    HW214355   7.843   8.719  14.165
37506SOL     OW14356   7.786   2.913   3.772
37506SOL    HW114357   7.711   2.875   3.818
37506SOL    HW214358   7.801   2.854   3.698
37507SOL     OW14359  13.314   9.380   1.242
37507SOL    HW114360  13.231   9.424   1.259
37507SOL    HW214361  13.369   9.402   1.318
37508SOL     OW14362   0.782  10.234   1.620
37508SOL    HW114363   0.783  10.245   1.524
37508SOL    HW214364   0.840  10.302   1.653
37509SOL     OW14365   4.202  12.508   2.432
37509SOL    HW114366   4.163  12.438   2.483
37509SOL    HW214367   4.205  12.474   2.342
37510SOL     OW14368   6.458  11.241  14.227
37510SOL    HW114369   6.442  11.317  14.170
37510SOL    HW214370   6.418  11.168  14.181
37511SOL     OW14371   6.067   5.674   4.799
37511SOL    HW114372   6.012   5.679   4.876
37511SOL    HW214373   6.154   5.699   4.830
37512SOL     OW14374  13.892   7.850   2.229
37512SOL    HW114375  13.934   7.924   2.273
37512SOL    HW214376  13.964   7.799   2.192
37513SOL     OW14377  13.102  13.158   9.478
37513SOL    HW114378  13.120  13.170   9.571
37513SOL    HW214379  13.046  13.080   9.474
37514SOL     OW14380   2.270   2.449   5.648
37514SOL    HW114381   2.333   2.425   5.716
37514SOL    HW214382   2.297   2.399   5.571
37515SOL     OW14383   5.657   0.338   3.308
37515SOL    HW114384   5.606   0.318   3.229
37515SOL    HW214385   5.723   0.401   3.279
37516SOL     OW14386   5.964   8.977   3.007
37516SOL    HW114387   6.026   8.989   3.079
37516SOL    HW214388   5.897   9.044   3.021
37517SOL     OW14389  14.197   7.150   2.054
37517SOL    HW114390  14.126   7.139   1.990
37517SOL    HW214391  14.260   7.082   2.032
37518SOL     OW14392   3.368   9.251   2.918
37518SOL    HW114393   3.315   9.176   2.890
37518SOL    HW214394   3.304   9.314   2.953
37519SOL     OW14395  14.501   7.875   1.699
37519SOL    HW114396  14.547   7.959   1.710
37519SOL    HW214397  14.556   7.826   1.637
37520SOL     OW14398   1.284   2.364  10.962
37520SOL    HW114399   1.196   2.336  10.940
37520SOL    HW214400   1.331   2.283  10.983
37521SOL     OW14401   2.802   5.544   5.189
37521SOL    HW114402   2.800   5.637   5.164
37521SOL    HW214403   2.727   5.506   5.144
37522SOL     OW14404   7.765  10.431   3.431
37522SOL    HW114405   7.804  10.487   3.364
37522SOL    HW214406   7.821  10.353   3.433
37523SOL     OW14407  12.309   3.319  13.244
37523SOL    HW114408  12.319   3.369  13.325
37523SOL    HW214409  12.262   3.378  13.185
37524SOL     OW14410  13.010  13.018   1.283
37524SOL    HW114411  12.973  12.965   1.354
37524SOL    HW214412  12.938  13.034   1.223
37525SOL     OW14413  10.118   9.041   1.422
37525SOL    HW114414  10.087   8.970   1.478
37525SOL    HW214415  10.039   9.075   1.379
37526SOL     OW14416   2.074  14.579  12.526
37526SOL    HW114417   2.079  14.659  12.578
37526SOL    HW214418   2.155  14.578  12.475
37527SOL     OW14419   4.911  12.197  14.161
37527SOL    HW114420   4.973  12.265  14.136
37527SOL    HW214421   4.919  12.191  14.257
37528SOL     OW14422   0.975   8.469   8.097
37528SOL    HW114423   1.057   8.506   8.065
37528SOL    HW214424   0.973   8.492   8.190
37529SOL     OW14425   1.220   8.459   6.533
37529SOL    HW114426   1.173   8.502   6.462
37529SOL    HW214427   1.309   8.446   6.500
37530SOL     OW14428   8.278   5.859   4.025
37530SOL    HW114429   8.189   5.834   4.051
37530SOL    HW214430   8.329   5.778   4.033
37531SOL     OW14431   8.074   2.494   1.394
37531SOL    HW114432   8.167   2.485   1.373
37531SOL    HW214433   8.035   2.412   1.364
37532SOL     OW14434   4.882  11.659   3.889
37532SOL    HW114435   4.876  11.748   3.923
37532SOL    HW214436   4.946  11.615   3.945
37533SOL     OW14437  10.440   7.059  14.495
37533SOL    HW114438  10.393   7.101  14.423
37533SOL    HW214439  10.511   7.011  14.451
37534SOL     OW14440   0.243   7.299  12.077
37534SOL    HW114441   0.271   7.379  12.033
37534SOL    HW214442   0.160   7.277  12.035
37535SOL     OW14443  12.514   2.149   7.927
37535SOL    HW114444  12.597   2.165   7.882
37535SOL    HW214445  12.538   2.138   8.019
37536SOL     OW14446   4.463   5.619   0.014
37536SOL    HW114447   4.406   5.546   0.036
37536SOL    HW214448   4.550   5.580   0.006
37537SOL     OW14449   3.947   3.251   9.326
37537SOL    HW114450   3.852   3.237   9.328
37537SOL    HW214451   3.985   3.165   9.345
37538SOL     OW14452   4.128   1.863   2.075
37538SOL    HW114453   4.120   1.918   1.997
37538SOL    HW214454   4.120   1.924   2.148
37539SOL     OW14455  13.719   1.067  10.940
37539SOL    HW114456  13.685   0.980  10.958
37539SOL    HW214457  13.642   1.123  10.938
37540SOL     OW14458   3.269   7.192  10.065
37540SOL    HW114459   3.202   7.258  10.048
37540SOL    HW214460   3.249   7.160  10.153
37541SOL     OW14461   4.440  13.370   3.605
37541SOL    HW114462   4.393  13.405   3.528
37541SOL    HW214463   4.532  13.388   3.586
37542SOL     OW14464   5.416   1.032   9.662
37542SOL    HW114465   5.347   0.976   9.629
37542SOL    HW214466   5.450   1.077   9.584
37543SOL     OW14467  13.661  14.432  11.387
37543SOL    HW114468  13.670  14.520  11.349
37543SOL    HW214469  13.614  14.382  11.320
37544SOL     OW14470   3.401   6.178   5.743
37544SOL    HW114471   3.314   6.148   5.767
37544SOL    HW214472   3.386   6.254   5.687
37545SOL     OW14473   7.935   8.511   4.345
37545SOL    HW114474   7.982   8.594   4.339
37545SOL    HW214475   7.935   8.477   4.255
37546SOL     OW14476  10.256   5.482  11.590
37546SOL    HW114477  10.165   5.477  11.559
37546SOL    HW214478  10.302   5.416  11.538
37547SOL     OW14479   4.506  10.741   1.965
37547SOL    HW114480   4.602  10.739   1.965
37547SOL    HW214481   4.483  10.734   1.872
37548SOL     OW14482  13.604  13.250   8.919
37548SOL    HW114483  13.532  13.222   8.863
37548SOL    HW214484  13.682  13.213   8.877
37549SOL     OW14485   4.716   2.459   1.362
37549SOL    HW114486   4.770   2.521   1.412
37549SOL    HW214487   4.645   2.512   1.327
37550SOL     OW14488   5.557  11.229   5.726
37550SOL    HW114489   5.525  11.315   5.698
37550SOL    HW214490   5.589  11.188   5.646
37551SOL     OW14491   7.415  10.487   0.313
37551SOL    HW114492   7.400  10.469   0.220
37551SOL    HW214493   7.412  10.583   0.320
37552SOL     OW14494  12.096   6.983   0.122
37552SOL    HW114495  12.142   6.916   0.172
37552SOL    HW214496  12.093   6.949   0.033
37553SOL     OW14497   9.952   4.412   6.581
37553SOL    HW114498   9.878   4.352   6.587
37553SOL    HW214499  10.015   4.380   6.645
37554SOL     OW14500   4.643  11.249   1.299
37554SOL    HW114501   4.568  11.252   1.358
37554SOL    HW214502   4.636  11.329   1.247
37555SOL     OW14503   1.034   8.377  13.422
37555SOL    HW114504   0.993   8.293  13.405
37555SOL    HW214505   0.992   8.408  13.502
37556SOL     OW14506  12.785  10.986   2.077
37556SOL    HW114507  12.722  10.923   2.041
37556SOL    HW214508  12.867  10.965   2.032
37557SOL     OW14509   1.117   9.789   8.476
37557SOL    HW114510   1.174   9.816   8.405
37557SOL    HW214511   1.144   9.699   8.496
37558SOL     OW14512  10.768   6.324  12.091
37558SOL    HW114513  10.740   6.400  12.041
37558SOL    HW214514  10.688   6.290  12.131
37559SOL     OW14515   7.938  13.859   1.320
37559SOL    HW114516   7.859  13.823   1.280
37559SOL    HW214517   8.006  13.848   1.254
37560SOL     OW14518   6.552   0.849   2.326
37560SOL    HW114519   6.602   0.850   2.245
37560SOL    HW214520   6.541   0.941   2.349
37561SOL     OW14521  12.956  13.503  14.068
37561SOL    HW114522  12.934  13.500  14.161
37561SOL    HW214523  13.047  13.532  14.065
37562SOL     OW14524   6.601   1.460  10.373
37562SOL    HW114525   6.534   1.518  10.409
37562SOL    HW214526   6.558   1.375  10.365
37563SOL     OW14527   4.641  12.684   9.187
37563SOL    HW114528   4.650  12.643   9.101
37563SOL    HW214529   4.616  12.612   9.245
37564SOL     OW14530  14.339   4.109   7.866
37564SOL    HW114531  14.314   4.138   7.778
37564SOL    HW214532  14.416   4.160   7.887
37565SOL     OW14533  10.906   0.246   0.814
37565SOL    HW114534  10.942   0.171   0.767
37565SOL    HW214535  10.839   0.282   0.755
37566SOL     OW14536  11.106   6.334   1.666
37566SOL    HW114537  11.106   6.386   1.746
37566SOL    HW214538  11.014   6.324   1.643
37567SOL     OW14539   0.640   8.714   4.523
37567SOL    HW114540   0.664   8.631   4.481
37567SOL    HW214541   0.721   8.745   4.563
37568SOL     OW14542   8.100  12.158   1.850
37568SOL    HW114543   8.185  12.117   1.834
37568SOL    HW214544   8.043  12.086   1.874
37569SOL     OW14545   8.930   6.217  10.145
37569SOL    HW114546   8.840   6.238  10.169
37569SOL    HW214547   8.953   6.282  10.078
37570SOL     OW14548  12.766   3.030   0.806
37570SOL    HW114549  12.684   3.074   0.827
37570SOL    HW214550  12.809   3.020   0.891
37571SOL     OW14551   2.574  13.911   4.104
37571SOL    HW114552   2.485  13.934   4.131
37571SOL    HW214553   2.569  13.904   4.009
37572SOL     OW14554  10.358   1.792  14.368
37572SOL    HW114555  10.277   1.814  14.415
37572SOL    HW214556  10.394   1.718  14.417
37573SOL     OW14557  10.378   7.385   9.251
37573SOL    HW114558  10.427   7.343   9.180
37573SOL    HW214559  10.338   7.312   9.298
37574SOL     OW14560  10.750   7.925   6.460
37574SOL    HW114561  10.660   7.910   6.490
37574SOL    HW214562  10.805   7.888   6.529
37575SOL     OW14563  14.304   2.318   1.806
37575SOL    HW114564  14.330   2.408   1.788
37575SOL    HW214565  14.375   2.283   1.860
37576SOL     OW14566   4.372  11.063   0.274
37576SOL    HW114567   4.383  11.016   0.192
37576SOL    HW214568   4.346  10.996   0.337
37577SOL     OW14569   8.243   6.545   7.749
37577SOL    HW114570   8.191   6.606   7.697
37577SOL    HW214571   8.179   6.492   7.795
37578SOL     OW14572  10.017  14.452  10.175
37578SOL    HW114573  10.006  14.420  10.085
37578SOL    HW214574   9.929  14.453  10.212
37579SOL     OW14575   9.049   5.528   6.360
37579SOL    HW114576   9.106   5.458   6.328
37579SOL    HW214577   9.081   5.607   6.317
37580SOL     OW14578  12.063   0.100  11.255
37580SOL    HW114579  11.987   0.107  11.313
37580SOL    HW214580  12.133   0.070  11.312
37581SOL     OW14581  13.403   6.449  12.239
37581SOL    HW114582  13.442   6.399  12.310
37581SOL    HW214583  13.438   6.411  12.159
37582SOL     OW14584   3.400   1.603   8.291
37582SOL    HW114585   3.417   1.683   8.241
37582SOL    HW214586   3.363   1.542   8.227
37583SOL     OW14587  10.961   0.645   1.845
37583SOL    HW114588  10.960   0.622   1.938
37583SOL    HW214589  11.021   0.581   1.805
37584SOL     OW14590   5.281   1.787   4.266
37584SOL    HW114591   5.225   1.823   4.335
37584SOL    HW214592   5.226   1.722   4.222
37585SOL     OW14593   8.342   5.198   5.379
37585SOL    HW114594   8.371   5.138   5.448
37585SOL    HW214595   8.377   5.161   5.299
37586SOL     OW14596  11.785   5.874  12.145
37586SOL    HW114597  11.739   5.958  12.144
37586SOL    HW214598  11.804   5.859  12.238
37587SOL     OW14599   6.281  11.041   7.360
37587SOL    HW114600   6.312  11.077   7.443
37587SOL    HW214601   6.286  10.946   7.372
37588SOL     OW14602   1.171   1.410  14.429
37588SOL    HW114603   1.200   1.488  14.382
37588SOL    HW214604   1.247   1.384  14.481
37589SOL     OW14605  13.657   4.485   6.871
37589SOL    HW114606  13.635   4.543   6.944
37589SOL    HW214607  13.714   4.538   6.814
37590SOL     OW14608   8.668   8.611   8.838
37590SOL    HW114609   8.735   8.581   8.777
37590SOL    HW214610   8.716   8.665   8.901
37591SOL     OW14611   3.376  13.025   9.371
37591SOL    HW114612   3.383  13.116   9.403
37591SOL    HW214613   3.442  13.019   9.303
37592SOL     OW14614   2.064  11.014  14.783
37592SOL    HW114615   2.065  11.001   0.001
37592SOL    HW214616   2.053  10.927  14.746
37593SOL     OW14617   8.511   5.476  10.094
37593SOL    HW114618   8.567   5.407  10.129
37593SOL    HW214619   8.558   5.508  10.017
37594SOL     OW14620  10.761  13.707   1.582
37594SOL    HW114621  10.733  13.620   1.610
37594SOL    HW214622  10.736  13.712   1.490
37595SOL     OW14623  12.084  14.806   6.001
37595SOL    HW114624  12.155  14.815   6.066
37595SOL    HW214625  12.095  14.717   5.967
37596SOL     OW14626   4.013  13.214  12.844
37596SOL    HW114627   4.086  13.251  12.794
37596SOL    HW214628   4.040  13.124  12.862
37597SOL     OW14629   4.594   2.989   3.572
37597SOL    HW114630   4.586   2.938   3.653
37597SOL    HW214631   4.522   3.052   3.577
37598SOL     OW14632   4.622  12.174   4.741
37598SOL    HW114633   4.548  12.214   4.787
37598SOL    HW214634   4.620  12.082   4.769
37599SOL     OW14635  14.847  12.671  10.534
37599SOL    HW114636   0.062  12.663  10.507
37599SOL    HW214637  14.819  12.756  10.500
37600SOL     OW14638  14.683   8.780   0.307
37600SOL    HW114639  14.772   8.813   0.319
37600SOL    HW214640  14.645   8.781   0.395
37601SOL     OW14641   6.866   8.339   5.932
37601SOL    HW114642   6.773   8.324   5.950
37601SOL    HW214643   6.867   8.402   5.859
37602SOL     OW14644   8.010   0.519   5.371
37602SOL    HW114645   7.973   0.457   5.434
37602SOL    HW214646   7.953   0.596   5.377
37603SOL     OW14647  13.571   8.102  13.586
37603SOL    HW114648  13.598   8.035  13.523
37603SOL    HW214649  13.645   8.111  13.645
37604SOL     OW14650  12.285  11.754   5.221
37604SOL    HW114651  12.309  11.781   5.132
37604SOL    HW214652  12.320  11.665   5.229
37605SOL     OW14653   0.662  14.476   4.223
37605SOL    HW114654   0.731  14.426   4.179
37605SOL    HW214655   0.692  14.566   4.218
37606SOL     OW14656   1.650   0.347   1.507
37606SOL    HW114657   1.707   0.367   1.581
37606SOL    HW214658   1.562   0.371   1.537
37607SOL     OW14659   8.885   8.467   0.380
37607SOL    HW114660   8.955   8.507   0.431
37607SOL    HW214661   8.804   8.500   0.420
37608SOL     OW14662   4.170   9.522   5.844
37608SOL    HW114663   4.132   9.436   5.863
37608SOL    HW214664   4.180   9.523   5.749
37609SOL     OW14665  14.193  10.451  11.228
37609SOL    HW114666  14.281  10.480  11.203
37609SOL    HW214667  14.134  10.495  11.167
37610SOL     OW14668   7.078   4.188   8.593
37610SOL    HW114669   7.145   4.247   8.558
37610SOL    HW214670   7.059   4.222   8.681
37611SOL     OW14671   4.323  14.325   3.022
37611SOL    HW114672   4.353  14.271   2.948
37611SOL    HW214673   4.281  14.263   3.082
37612SOL     OW14674  13.730   6.834   3.151
37612SOL    HW114675  13.790   6.906   3.129
37612SOL    HW214676  13.780   6.755   3.132
37613SOL     OW14677   0.919  10.641  14.835
37613SOL    HW114678   0.970  10.635  14.755
37613SOL    HW214679   0.829  10.653  14.805
37614SOL     OW14680   8.061  11.630   8.183
37614SOL    HW114681   8.037  11.717   8.150
37614SOL    HW214682   7.978  11.582   8.187
37615SOL     OW14683   6.332   7.091   2.028
37615SOL    HW114684   6.387   7.086   1.950
37615SOL    HW214685   6.382   7.146   2.088
37616SOL     OW14686   0.165   6.793   7.646
37616SOL    HW114687   0.195   6.727   7.708
37616SOL    HW214688   0.080   6.761   7.616
37617SOL     OW14689  14.714  12.540   4.085
37617SOL    HW114690  14.789  12.496   4.124
37617SOL    HW214691  14.752  12.615   4.039
37618SOL     OW14692  11.755  11.966  13.801
37618SOL    HW114693  11.741  12.060  13.811
37618SOL    HW214694  11.742  11.931  13.889
37619SOL     OW14695   8.171   4.214  11.842
37619SOL    HW114696   8.206   4.128  11.863
37619SOL    HW214697   8.230   4.248  11.774
37620SOL     OW14698  11.109   1.259   6.286
37620SOL    HW114699  11.150   1.286   6.368
37620SOL    HW214700  11.048   1.190   6.312
37621SOL     OW14701   8.167  12.058   7.141
37621SOL    HW114702   8.133  12.081   7.228
37621SOL    HW214703   8.161  12.140   7.092
37622SOL     OW14704   1.869  12.668   8.213
37622SOL    HW114705   1.907  12.593   8.168
37622SOL    HW214706   1.846  12.635   8.299
37623SOL     OW14707  10.904   9.166  14.095
37623SOL    HW114708  10.854   9.220  14.156
37623SOL    HW214709  10.983   9.217  14.076
37624SOL     OW14710  13.879  12.858   3.100
37624SOL    HW114711  13.914  12.772   3.127
37624SOL    HW214712  13.929  12.921   3.151
37625SOL     OW14713   1.591   7.494   8.837
37625SOL    HW114714   1.596   7.574   8.784
37625SOL    HW214715   1.576   7.424   8.774
37626SOL     OW14716  13.449   9.258   5.633
37626SOL    HW114717  13.407   9.201   5.697
37626SOL    HW214718  13.420   9.346   5.658
37627SOL     OW14719   7.268  11.958  12.433
37627SOL    HW114720   7.310  12.029  12.384
37627SOL    HW214721   7.331  11.886  12.429
37628SOL     OW14722   1.060   0.846  10.660
37628SOL    HW114723   0.994   0.869  10.725
37628SOL    HW214724   1.010   0.831  10.580
37629SOL     OW14725   0.948   7.359  10.009
37629SOL    HW114726   0.945   7.278   9.958
37629SOL    HW214727   0.856   7.382  10.023
37630SOL     OW14728   0.953  12.386   5.911
37630SOL    HW114729   0.919  12.307   5.953
37630SOL    HW214730   0.898  12.457   5.944
37631SOL     OW14731   0.803  11.174   6.028
37631SOL    HW114732   0.786  11.178   5.934
37631SOL    HW214733   0.876  11.114   6.037
37632SOL     OW14734   1.078  10.939   6.288
37632SOL    HW114735   0.983  10.949   6.289
37632SOL    HW214736   1.098  10.885   6.364
37633SOL     OW14737  12.688  14.837  14.845
37633SOL    HW114738  12.664  14.863  14.757
37633SOL    HW214739  12.675   0.040   0.022
37634SOL     OW14740  14.639   2.695  11.994
37634SOL    HW114741  14.725   2.652  11.992
37634SOL    HW214742  14.584   2.635  12.046
37635SOL     OW14743  11.103   1.603   9.427
37635SOL    HW114744  11.184   1.614   9.378
37635SOL    HW214745  11.065   1.522   9.394
37636SOL     OW14746   6.218   1.373   2.182
37636SOL    HW114747   6.178   1.298   2.225
37636SOL    HW214748   6.272   1.413   2.250
37637SOL     OW14749   5.556  12.066   9.438
37637SOL    HW114750   5.466  12.085   9.464
37637SOL    HW214751   5.607  12.072   9.519
37638SOL     OW14752   4.711  14.028  12.911
37638SOL    HW114753   4.639  13.971  12.936
37638SOL    HW214754   4.668  14.102  12.867
37639SOL     OW14755   4.447  10.879   3.171
37639SOL    HW114756   4.489  10.794   3.188
37639SOL    HW214757   4.519  10.936   3.145
37640SOL     OW14758   9.046   7.157   7.101
37640SOL    HW114759   8.979   7.163   7.033
37640SOL    HW214760   8.997   7.142   7.182
37641SOL     OW14761  13.815   9.453  12.502
37641SOL    HW114762  13.848   9.364  12.510
37641SOL    HW214763  13.721   9.445  12.513
37642SOL     OW14764  12.528  12.637  13.539
37642SOL    HW114765  12.549  12.694  13.465
37642SOL    HW214766  12.458  12.580  13.505
37643SOL     OW14767  14.414  14.642  10.705
37643SOL    HW114768  14.331  14.626  10.750
37643SOL    HW214769  14.389  14.659  10.614
37644SOL     OW14770   3.335  13.594  12.699
37644SOL    HW114771   3.326  13.687  12.676
37644SOL    HW214772   3.370  13.595  12.788
37645SOL     OW14773   6.421   2.749  12.490
37645SOL    HW114774   6.452   2.776  12.577
37645SOL    HW214775   6.466   2.807  12.429
37646SOL     OW14776   5.994   1.311   0.331
37646SOL    HW114777   5.941   1.241   0.294
37646SOL    HW214778   6.084   1.281   0.321
37647SOL     OW14779  13.906   4.663   0.879
37647SOL    HW114780  13.833   4.609   0.909
37647SOL    HW214781  13.935   4.622   0.798
37648SOL     OW14782  14.737  14.101  14.714
37648SOL    HW114783  14.702  14.113  14.802
37648SOL    HW214784  14.782  14.183  14.694
37649SOL     OW14785   0.833   2.912   1.646
37649SOL    HW114786   0.842   2.827   1.603
37649SOL    HW214787   0.921   2.951   1.639
37650SOL     OW14788  13.569   9.081  10.099
37650SOL    HW114789  13.599   9.150  10.159
37650SOL    HW214790  13.610   9.102  10.016
37651SOL     OW14791  14.160   4.697   2.936
37651SOL    HW114792  14.155   4.643   2.858
37651SOL    HW214793  14.249   4.732   2.937
37652SOL     OW14794   5.472   8.516   3.789
37652SOL    HW114795   5.502   8.602   3.762
37652SOL    HW214796   5.425   8.531   3.871
37653SOL     OW14797  12.104  13.994  10.023
37653SOL    HW114798  12.169  14.059   9.998
37653SOL    HW214799  12.058  13.973   9.942
37654SOL     OW14800   4.211   4.622   8.210
37654SOL    HW114801   4.134   4.679   8.223
37654SOL    HW214802   4.200   4.588   8.121
37655SOL     OW14803  14.824   2.080   9.866
37655SOL    HW114804  14.831   2.096   9.772
37655SOL    HW214805  14.732   2.094   9.886
37656SOL     OW14806   3.163   7.402   4.403
37656SOL    HW114807   3.244   7.369   4.442
37656SOL    HW214808   3.185   7.490   4.372
37657SOL     OW14809   7.584   2.539   2.741
37657SOL    HW114810   7.653   2.577   2.686
37657SOL    HW214811   7.504   2.584   2.713
37658SOL     OW14812  13.406   3.002  12.382
37658SOL    HW114813  13.391   2.957  12.465
37658SOL    HW214814  13.360   3.085  12.390
37659SOL     OW14815   6.540   1.822   4.397
37659SOL    HW114816   6.451   1.787   4.398
37659SOL    HW214817   6.579   1.788   4.316
37660SOL     OW14818   2.294  12.924  14.707
37660SOL    HW114819   2.364  12.986  14.727
37660SOL    HW214820   2.257  12.956  14.625
37661SOL     OW14821  12.544   2.652   0.991
37661SOL    HW114822  12.465   2.597   0.997
37661SOL    HW214823  12.518   2.725   0.934
37662SOL     OW14824  13.297  13.324   3.302
37662SOL    HW114825  13.271  13.415   3.290
37662SOL    HW214826  13.224  13.284   3.350
37663SOL     OW14827   7.516   8.666   4.087
37663SOL    HW114828   7.526   8.582   4.133
37663SOL    HW214829   7.456   8.716   4.142
37664SOL     OW14830  10.465   1.065  13.041
37664SOL    HW114831  10.410   1.100  13.111
37664SOL    HW214832  10.418   0.988  13.010
37665SOL     OW14833  12.911   1.976  13.684
37665SOL    HW114834  12.920   2.066  13.715
37665SOL    HW214835  12.913   1.924  13.764
37666SOL     OW14836  10.761   9.955   5.830
37666SOL    HW114837  10.740   9.929   5.920
37666SOL    HW214838  10.855   9.973   5.831
37667SOL     OW14839   1.204   9.734   9.332
37667SOL    HW114840   1.155   9.654   9.351
37667SOL    HW214841   1.201   9.741   9.236
37668SOL     OW14842   9.167   5.253   0.605
37668SOL    HW114843   9.161   5.158   0.618
37668SOL    HW214844   9.259   5.273   0.622
37669SOL     OW14845   3.615  13.567   1.832
37669SOL    HW114846   3.598  13.526   1.917
37669SOL    HW214847   3.540  13.543   1.778
37670SOL     OW14848   8.508  12.608  13.221
37670SOL    HW114849   8.453  12.590  13.298
37670SOL    HW214850   8.447  12.641  13.155
37671SOL     OW14851   9.153  14.356  11.959
37671SOL    HW114852   9.113  14.269  11.953
37671SOL    HW214853   9.124  14.390  12.043
37672SOL     OW14854   4.862  11.646   9.445
37672SOL    HW114855   4.872  11.633   9.539
37672SOL    HW214856   4.935  11.702   9.420
37673SOL     OW14857   2.370   2.044   5.085
37673SOL    HW114858   2.414   2.013   5.007
37673SOL    HW214859   2.412   1.997   5.157
37674SOL     OW14860   9.323  10.160   3.663
37674SOL    HW114861   9.335  10.159   3.568
37674SOL    HW214862   9.233  10.130   3.675
37675SOL     OW14863   8.961   8.353   9.607
37675SOL    HW114864   8.942   8.264   9.639
37675SOL    HW214865   9.056   8.355   9.598
37676SOL     OW14866  10.396  11.528  14.050
37676SOL    HW114867  10.459  11.539  13.978
37676SOL    HW214868  10.447  11.544  14.129
37677SOL     OW14869   7.710   6.434   9.915
37677SOL    HW114870   7.731   6.354   9.867
37677SOL    HW214871   7.638   6.473   9.866
37678SOL     OW14872   8.752   4.638  12.310
37678SOL    HW114873   8.711   4.682  12.384
37678SOL    HW214874   8.826   4.590  12.348
37679SOL     OW14875  12.700   2.565   3.866
37679SOL    HW114876  12.782   2.545   3.912
37679SOL    HW214877  12.643   2.491   3.886
37680SOL     OW14878   9.136  14.184   3.501
37680SOL    HW114879   9.217  14.134   3.490
37680SOL    HW214880   9.070  14.119   3.524
37681SOL     OW14881   3.284   5.731   8.627
37681SOL    HW114882   3.246   5.818   8.621
37681SOL    HW214883   3.306   5.721   8.720
37682SOL     OW14884   0.119   9.818   3.966
37682SOL    HW114885   0.205   9.781   3.945
37682SOL    HW214886   0.100   9.877   3.894
37683SOL     OW14887   1.073   5.101   5.134
37683SOL    HW114888   1.109   5.189   5.124
37683SOL    HW214889   1.031   5.082   5.050
37684SOL     OW14890  11.874   8.176   7.880
37684SOL    HW114891  11.838   8.256   7.843
37684SOL    HW214892  11.942   8.149   7.818
37685SOL     OW14893   4.270  14.710   1.644
37685SOL    HW114894   4.227  14.721   1.559
37685SOL    HW214895   4.279  14.616   1.655
37686SOL     OW14896   1.404  10.253   2.657
37686SOL    HW114897   1.337  10.302   2.611
37686SOL    HW214898   1.462  10.319   2.694
37687SOL     OW14899   6.958  13.706  10.804
37687SOL    HW114900   6.922  13.783  10.760
37687SOL    HW214901   7.042  13.735  10.839
37688SOL     OW14902   8.170   6.923   5.440
37688SOL    HW114903   8.254   6.940   5.396
37688SOL    HW214904   8.188   6.940   5.532
37689SOL     OW14905  12.228   8.192   0.973
37689SOL    HW114906  12.163   8.195   0.903
37689SOL    HW214907  12.312   8.185   0.927
37690SOL     OW14908  10.540   0.353   7.525
37690SOL    HW114909  10.546   0.298   7.604
37690SOL    HW214910  10.489   0.429   7.553
37691SOL     OW14911   4.095   2.572  14.845
37691SOL    HW114912   4.166   2.591  14.784
37691SOL    HW214913   4.052   2.656  14.859
37692SOL     OW14914   7.426  13.931   7.680
37692SOL    HW114915   7.451  13.845   7.646
37692SOL    HW214916   7.438  13.991   7.607
37693SOL     OW14917  11.141  11.988  13.153
37693SOL    HW114918  11.234  11.966  13.145
37693SOL    HW214919  11.096  11.922  13.099
37694SOL     OW14920  11.143   2.537   8.811
37694SOL    HW114921  11.101   2.469   8.863
37694SOL    HW214922  11.162   2.495   8.727
37695SOL     OW14923  10.956   6.604  11.346
37695SOL    HW114924  10.963   6.693  11.312
37695SOL    HW214925  10.943   6.549  11.268
37696SOL     OW14926   7.506   0.804  12.885
37696SOL    HW114927   7.563   0.872  12.921
37696SOL    HW214928   7.554   0.722  12.898
37697SOL     OW14929   8.919   3.282  13.893
37697SOL    HW114930   8.884   3.362  13.853
37697SOL    HW214931   9.012   3.284  13.872
37698SOL     OW14932  11.236   4.650   2.824
37698SOL    HW114933  11.200   4.727   2.868
37698SOL    HW214934  11.286   4.604   2.892
37699SOL     OW14935   8.604   2.841   8.243
37699SOL    HW114936   8.680   2.863   8.297
37699SOL    HW214937   8.632   2.861   8.154
37700SOL     OW14938   8.750  10.120   2.397
37700SOL    HW114939   8.711  10.207   2.398
37700SOL    HW214940   8.695  10.070   2.337
37701SOL     OW14941   8.036  13.913   4.062
37701SOL    HW114942   8.027  13.861   3.982
37701SOL    HW214943   8.021  13.851   4.133
37702SOL     OW14944   2.715   3.369   8.841
37702SOL    HW114945   2.656   3.294   8.841
37702SOL    HW214946   2.656   3.445   8.850
37703SOL     OW14947   1.473   1.004   9.976
37703SOL    HW114948   1.407   0.949  10.018
37703SOL    HW214949   1.480   0.969   9.887
37704SOL     OW14950  13.842   0.766   5.493
37704SOL    HW114951  13.853   0.779   5.588
37704SOL    HW214952  13.756   0.724   5.485
37705SOL     OW14953   0.650  13.964  11.464
37705SOL    HW114954   0.710  13.970  11.539
37705SOL    HW214955   0.671  14.042  11.411
37706SOL     OW14956   4.227   0.895   4.466
37706SOL    HW114957   4.246   0.809   4.504
37706SOL    HW214958   4.294   0.953   4.504
37707SOL     OW14959  11.176  12.907  13.651
37707SOL    HW114960  11.252  12.911  13.710
37707SOL    HW214961  11.134  12.823  13.672
37708SOL     OW14962   0.393   9.694   1.487
37708SOL    HW114963   0.384   9.765   1.423
37708SOL    HW214964   0.411   9.738   1.570
37709SOL     OW14965   3.833   3.635   4.945
37709SOL    HW114966   3.924   3.615   4.922
37709SOL    HW214967   3.816   3.720   4.905
37710SOL     OW14968   4.297  13.745   3.066
37710SOL    HW114969   4.211  13.744   3.108
37710SOL    HW214970   4.298  13.665   3.013
37711SOL     OW14971  10.838  14.414   9.910
37711SOL    HW114972  10.890  14.386   9.985
37711SOL    HW214973  10.871  14.361   9.837
37712SOL     OW14974   7.106   4.664  11.967
37712SOL    HW114975   7.013   4.667  11.946
37712SOL    HW214976   7.138   4.751  11.944
37713SOL     OW14977  10.646  13.167  13.943
37713SOL    HW114978  10.562  13.134  13.976
37713SOL    HW214979  10.701  13.088  13.936
37714SOL     OW14980   8.264   7.213  11.806
37714SOL    HW114981   8.324   7.273  11.850
37714SOL    HW214982   8.241   7.257  11.725
37715SOL     OW14983   8.210   5.685   4.961
37715SOL    HW114984   8.230   5.598   4.925
37715SOL    HW214985   8.133   5.671   5.016
37716SOL     OW14986   3.860  11.302   1.661
37716SOL    HW114987   3.837  11.395   1.671
37716SOL    HW214988   3.805  11.272   1.589
37717SOL     OW14989   1.582   3.454  10.052
37717SOL    HW114990   1.589   3.536  10.005
37717SOL    HW214991   1.499   3.416  10.022
37718SOL     OW14992  10.077  10.745   0.984
37718SOL    HW114993  10.089  10.839   0.977
37718SOL    HW214994  10.163  10.708   0.963
37719SOL     OW14995  10.020  12.377   7.962
37719SOL    HW114996  10.021  12.384   7.867
37719SOL    HW214997   9.952  12.312   7.981
37720SOL     OW14998   6.272   6.832   2.720
37720SOL    HW114999   6.329   6.761   2.747
37720SOL    HW215000   6.210   6.792   2.660
37721SOL     OW15001  13.922  11.230  11.596
37721SOL    HW115002  14.012  11.226  11.627
37721SOL    HW215003  13.912  11.320  11.563
37722SOL     OW15004   6.656  10.617   8.708
37722SOL    HW115005   6.725  10.579   8.653
37722SOL    HW215006   6.693  10.616   8.796
37723SOL     OW15007  14.867   0.865   2.141
37723SOL    HW115008  14.860   0.829   2.229
37723SOL    HW215009  14.781   0.850   2.102
37724SOL     OW15010   4.710   4.990  11.432
37724SOL    HW115011   4.750   5.072  11.461
37724SOL    HW215012   4.616   5.004  11.440
37725SOL     OW15013   3.620  11.545  12.274
37725SOL    HW115014   3.687  11.613  12.272
37725SOL    HW215015   3.560  11.573  12.344
37726SOL     OW15016   5.988  13.124  14.253
37726SOL    HW115017   6.007  13.209  14.293
37726SOL    HW215018   5.930  13.081  14.315
37727SOL     OW15019   9.217   8.269  12.802
37727SOL    HW115020   9.146   8.282  12.739
37727SOL    HW215021   9.248   8.180  12.786
37728SOL     OW15022  10.606  11.326  13.902
37728SOL    HW115023  10.615  11.421  13.890
37728SOL    HW215024  10.647  11.309  13.987
37729SOL     OW15025  12.867   8.195   4.538
37729SOL    HW115026  12.789   8.208   4.591
37729SOL    HW215027  12.872   8.100   4.526
37730SOL     OW15028   3.233   6.504   3.681
37730SOL    HW115029   3.216   6.481   3.773
37730SOL    HW215030   3.180   6.443   3.631
37731SOL     OW15031  10.262  12.789   2.567
37731SOL    HW115032  10.346  12.744   2.576
37731SOL    HW215033  10.279  12.877   2.600
37732SOL     OW15034   9.257   8.895   5.306
37732SOL    HW115035   9.284   8.920   5.218
37732SOL    HW215036   9.162   8.905   5.306
37733SOL     OW15037   2.903   2.458  12.415
37733SOL    HW115038   2.930   2.395  12.348
37733SOL    HW215039   2.981   2.469  12.470
37734SOL     OW15040   4.498   4.918  12.067
37734SOL    HW115041   4.447   4.995  12.043
37734SOL    HW215042   4.573   4.919  12.008
37735SOL     OW15043  14.859   6.707  13.220
37735SOL    HW115044   0.055   6.647  13.243
37735SOL    HW215045  14.862   6.712  13.125
37736SOL     OW15046  12.848  12.236  10.659
37736SOL    HW115047  12.905  12.176  10.708
37736SOL    HW215048  12.762  12.194  10.661
37737SOL     OW15049   7.912   9.067  10.393
37737SOL    HW115050   7.911   9.014  10.472
37737SOL    HW215051   7.847   9.026  10.336
37738SOL     OW15052   5.009   6.782   6.251
37738SOL    HW115053   4.929   6.805   6.299
37738SOL    HW215054   4.978   6.753   6.165
37739SOL     OW15055  10.530   2.495   4.396
37739SOL    HW115056  10.465   2.440   4.439
37739SOL    HW215057  10.589   2.434   4.353
37740SOL     OW15058  11.857   3.991   0.068
37740SOL    HW115059  11.864   3.928   0.140
37740SOL    HW215060  11.901   3.949  14.871
37741SOL     OW15061  10.736   8.285   2.052
37741SOL    HW115062  10.788   8.241   2.120
37741SOL    HW215063  10.646   8.278   2.082
37742SOL     OW15064   3.889  10.684  10.074
37742SOL    HW115065   3.945  10.726  10.138
37742SOL    HW215066   3.840  10.618  10.123
37743SOL     OW15067   7.304   7.957   7.589
37743SOL    HW115068   7.370   7.984   7.653
37743SOL    HW215069   7.221   7.990   7.625
37744SOL     OW15070   3.095  12.701   5.684
37744SOL    HW115071   3.031  12.650   5.635
37744SOL    HW215072   3.125  12.768   5.623
37745SOL     OW15073   9.073  12.132   9.288
37745SOL    HW115074   9.079  12.069   9.361
37745SOL    HW215075   8.991  12.177   9.302
37746SOL     OW15076  10.108   8.915   0.774
37746SOL    HW115077  10.181   8.928   0.713
37746SOL    HW215078  10.125   8.977   0.845
37747SOL     OW15079  11.095  11.832   7.904
37747SOL    HW115080  11.029  11.778   7.947
37747SOL    HW215081  11.099  11.912   7.956
37748SOL     OW15082   9.785   5.299   7.396
37748SOL    HW115083   9.705   5.350   7.410
37748SOL    HW215084   9.804   5.260   7.481
37749SOL     OW15085  12.221   0.417  13.118
37749SOL    HW115086  12.271   0.392  13.196
37749SOL    HW215087  12.266   0.375  13.045
37750SOL     OW15088  14.783   5.786   1.686
37750SOL    HW115089  14.706   5.788   1.628
37750SOL    HW215090  14.851   5.743   1.634
37751SOL     OW15091  14.653   1.899   3.444
37751SOL    HW115092  14.659   1.809   3.477
37751SOL    HW215093  14.688   1.895   3.355
37752SOL     OW15094  11.648   7.208   8.744
37752SOL    HW115095  11.663   7.198   8.650
37752SOL    HW215096  11.665   7.121   8.780
37753SOL     OW15097  11.010   6.833  11.134
37753SOL    HW115098  10.942   6.888  11.172
37753SOL    HW215099  10.974   6.803  11.051
37754SOL     OW15100   0.676  11.819   0.253
37754SOL    HW115101   0.674  11.914   0.264
37754SOL    HW215102   0.732  11.788   0.324
37755SOL     OW15103   0.011  10.276  10.010
37755SOL    HW115104  14.850  10.209  10.066
37755SOL    HW215105   0.044  10.343  10.070
37756SOL     OW15106  12.495   4.189   5.035
37756SOL    HW115107  12.419   4.135   5.014
37756SOL    HW215108  12.520   4.227   4.950
37757SOL     OW15109   0.936   6.129  11.974
37757SOL    HW115110   0.991   6.184  11.919
37757SOL    HW215111   0.976   6.043  11.970
37758SOL     OW15112  13.958   7.052   0.187
37758SOL    HW115113  13.969   6.971   0.237
37758SOL    HW215114  13.865   7.054   0.165
37759SOL     OW15115   2.537   3.019   7.973
37759SOL    HW115116   2.573   3.016   7.885
37759SOL    HW215117   2.475   3.092   7.971
37760SOL     OW15118   5.327   1.398   6.709
37760SOL    HW115119   5.250   1.391   6.765
37760SOL    HW215120   5.319   1.482   6.665
37761SOL     OW15121   1.934  10.841   0.734
37761SOL    HW115122   1.911  10.753   0.705
37761SOL    HW215123   1.917  10.897   0.658
37762SOL     OW15124   1.545   2.336   7.321
37762SOL    HW115125   1.462   2.379   7.300
37762SOL    HW215126   1.610   2.381   7.266
37763SOL     OW15127   2.237  14.573  11.580
37763SOL    HW115128   2.223  14.581  11.485
37763SOL    HW215129   2.331  14.582  11.591
37764SOL     OW15130   0.352   0.444   2.299
37764SOL    HW115131   0.388   0.403   2.220
37764SOL    HW215132   0.408   0.521   2.314
37765SOL     OW15133  10.397  12.864   5.675
37765SOL    HW115134  10.343  12.936   5.644
37765SOL    HW215135  10.376  12.856   5.768
37766SOL     OW15136  11.445   5.112   9.360
37766SOL    HW115137  11.460   5.024   9.394
37766SOL    HW215138  11.531   5.140   9.328
37767SOL     OW15139   0.009   4.524   4.756
37767SOL    HW115140  14.848   4.531   4.668
37767SOL    HW215141  14.811   4.538   4.815
37768SOL     OW15142   7.405   5.843   8.269
37768SOL    HW115143   7.381   5.774   8.207
37768SOL    HW215144   7.453   5.907   8.217
37769SOL     OW15145  10.148   5.069  10.677
37769SOL    HW115146  10.099   5.032  10.751
37769SOL    HW215147  10.220   5.008  10.663
37770SOL     OW15148   5.865   3.522   1.616
37770SOL    HW115149   5.937   3.572   1.654
37770SOL    HW215150   5.798   3.521   1.683
37771SOL     OW15151  12.079   9.185   6.593
37771SOL    HW115152  12.000   9.155   6.548
37771SOL    HW215153  12.144   9.117   6.576
37772SOL     OW15154   0.718  10.389   3.547
37772SOL    HW115155   0.807  10.406   3.579
37772SOL    HW215156   0.689  10.312   3.596
37773SOL     OW15157   8.642   3.746   9.751
37773SOL    HW115158   8.608   3.668   9.708
37773SOL    HW215159   8.602   3.819   9.704
37774SOL     OW15160   5.496   2.188  13.391
37774SOL    HW115161   5.541   2.177  13.475
37774SOL    HW215162   5.550   2.140  13.328
37775SOL     OW15163   4.367   3.748   5.671
37775SOL    HW115164   4.415   3.789   5.598
37775SOL    HW215165   4.363   3.655   5.647
37776SOL     OW15166  11.124  14.002  14.400
37776SOL    HW115167  11.176  13.926  14.374
37776SOL    HW215168  11.181  14.053  14.458
37777SOL     OW15169   5.310  13.793  11.705
37777SOL    HW115170   5.270  13.873  11.739
37777SOL    HW215171   5.318  13.808  11.611
37778SOL     OW15172   3.970   7.003  12.792
37778SOL    HW115173   4.011   6.930  12.838
37778SOL    HW215174   3.876   6.992  12.806
37779SOL     OW15175  11.585   6.303   0.146
37779SOL    HW115176  11.541   6.220   0.161
37779SOL    HW215177  11.668   6.296   0.193
37780SOL     OW15178   5.930   5.997   4.526
37780SOL    HW115179   5.844   6.034   4.544
37780SOL    HW215180   5.916   5.902   4.529
37781SOL     OW15181  11.785   9.459  10.365
37781SOL    HW115182  11.757   9.464  10.457
37781SOL    HW215183  11.704   9.464  10.315
37782SOL     OW15184   6.901   1.974   1.291
37782SOL    HW115185   6.901   1.894   1.238
37782SOL    HW215186   6.968   1.958   1.357
37783SOL     OW15187   4.881   0.644   4.605
37783SOL    HW115188   4.968   0.606   4.617
37783SOL    HW215189   4.864   0.636   4.511
37784SOL     OW15190   4.008   3.364   7.586
37784SOL    HW115191   4.021   3.307   7.510
37784SOL    HW215192   4.095   3.397   7.606
37785SOL     OW15193   9.429   6.582   7.436
37785SOL    HW115194   9.494   6.637   7.479
37785SOL    HW215195   9.344   6.616   7.466
37786SOL     OW15196   5.651  13.033  11.409
37786SOL    HW115197   5.742  13.005  11.404
37786SOL    HW215198   5.633  13.074  11.324
37787SOL     OW15199  14.083   9.638  14.056
37787SOL    HW115200  14.100   9.730  14.075
37787SOL    HW215201  14.137   9.619  13.978
37788SOL     OW15202   7.416  14.290   0.162
37788SOL    HW115203   7.428  14.241   0.080
37788SOL    HW215204   7.503  14.325   0.183
37789SOL     OW15205   1.343   1.125  10.860
37789SOL    HW115206   1.276   1.126  10.929
37789SOL    HW215207   1.326   1.044  10.812
37790SOL     OW15208   1.207   0.250  10.461
37790SOL    HW115209   1.222   0.236  10.554
37790SOL    HW215210   1.269   0.318  10.436
37791SOL     OW15211   2.069   2.373  10.950
37791SOL    HW115212   2.050   2.430  10.876
37791SOL    HW215213   1.983   2.339  10.976
37792SOL     OW15214  11.056   4.327  13.513
37792SOL    HW115215  11.058   4.277  13.595
37792SOL    HW215216  11.147   4.334  13.487
37793SOL     OW15217   0.867   3.054   4.666
37793SOL    HW115218   0.947   3.087   4.625
37793SOL    HW215219   0.879   3.070   4.760
37794SOL     OW15220   6.352   9.613   2.409
37794SOL    HW115221   6.276   9.583   2.358
37794SOL    HW215222   6.420   9.630   2.344
37795SOL     OW15223  12.937   1.393   5.526
37795SOL    HW115224  12.876   1.452   5.481
37795SOL    HW215225  12.899   1.306   5.514
37796SOL     OW15226  10.319   6.562   3.575
37796SOL    HW115227  10.356   6.609   3.499
37796SOL    HW215228  10.306   6.630   3.641
37797SOL     OW15229   1.169  11.546   9.157
37797SOL    HW115230   1.179  11.589   9.072
37797SOL    HW215231   1.175  11.452   9.138
37798SOL     OW15232   4.082  12.153   5.005
37798SOL    HW115233   4.092  12.063   4.976
37798SOL    HW215234   4.053  12.200   4.927
37799SOL     OW15235  14.375   3.090  10.694
37799SOL    HW115236  14.412   3.034  10.763
37799SOL    HW215237  14.445   3.151  10.672
37800SOL     OW15238  14.047  11.000   6.736
37800SOL    HW115239  14.096  10.965   6.662
37800SOL    HW215240  14.114  11.027   6.800
37801SOL     OW15241  12.788   0.437   5.792
37801SOL    HW115242  12.833   0.458   5.711
37801SOL    HW215243  12.855   0.443   5.860
37802SOL     OW15244   2.707  10.615   7.447
37802SOL    HW115245   2.663  10.652   7.370
37802SOL    HW215246   2.758  10.687   7.483
37803SOL     OW15247   7.198  11.151   5.895
37803SOL    HW115248   7.215  11.099   5.974
37803SOL    HW215249   7.278  11.201   5.881
37804SOL     OW15250  13.865   7.955  11.898
37804SOL    HW115251  13.808   7.985  11.827
37804SOL    HW215252  13.923   7.891  11.857
37805SOL     OW15253   5.954   9.863   4.654
37805SOL    HW115254   6.012   9.925   4.697
37805SOL    HW215255   5.997   9.842   4.572
37806SOL     OW15256   0.711  13.711  13.764
37806SOL    HW115257   0.763  13.663  13.828
37806SOL    HW215258   0.720  13.661  13.683
37807SOL     OW15259   8.877   6.261   8.167
37807SOL    HW115260   8.839   6.256   8.254
37807SOL    HW215261   8.902   6.171   8.146
37808SOL     OW15262   5.197   1.531   8.757
37808SOL    HW115263   5.119   1.487   8.722
37808SOL    HW215264   5.246   1.558   8.679
37809SOL     OW15265   9.689   8.611   6.010
37809SOL    HW115266   9.732   8.666   5.945
37809SOL    HW215267   9.680   8.667   6.087
37810SOL     OW15268   1.552  13.343   4.872
37810SOL    HW115269   1.558  13.427   4.825
37810SOL    HW215270   1.634  13.338   4.922
37811SOL     OW15271  10.362   7.108   7.279
37811SOL    HW115272  10.309   7.187   7.275
37811SOL    HW215273  10.446   7.137   7.316
37812SOL     OW15274   0.655   7.056   9.534
37812SOL    HW115275   0.594   6.999   9.487
37812SOL    HW215276   0.691   7.112   9.466
37813SOL     OW15277   0.255   4.513  10.085
37813SOL    HW115278   0.281   4.437  10.034
37813SOL    HW215279   0.208   4.477  10.161
37814SOL     OW15280  10.961   3.679   9.762
37814SOL    HW115281  10.915   3.663   9.680
37814SOL    HW215282  10.961   3.594   9.806
37815SOL     OW15283   5.801   3.361   6.844
37815SOL    HW115284   5.728   3.421   6.830
37815SOL    HW215285   5.849   3.362   6.761
37816SOL     OW15286  11.488   2.183  12.818
37816SOL    HW115287  11.560   2.141  12.771
37816SOL    HW215288  11.511   2.276  12.819
37817SOL     OW15289  11.507  13.627  10.774
37817SOL    HW115290  11.461  13.708  10.799
37817SOL    HW215291  11.465  13.601  10.692
37818SOL     OW15292   9.528   3.850   1.067
37818SOL    HW115293   9.492   3.847   1.156
37818SOL    HW215294   9.592   3.921   1.070
37819SOL     OW15295   6.808  11.716   1.575
37819SOL    HW115296   6.735  11.755   1.622
37819SOL    HW215297   6.877  11.706   1.641
37820SOL     OW15298  13.379   4.902   0.305
37820SOL    HW115299  13.422   4.985   0.323
37820SOL    HW215300  13.288   4.925   0.287
37821SOL     OW15301   8.356   5.978   3.237
37821SOL    HW115302   8.336   5.956   3.328
37821SOL    HW215303   8.350   5.895   3.191
37822SOL     OW15304   3.268   0.720  14.731
37822SOL    HW115305   3.240   0.653  14.669
37822SOL    HW215306   3.311   0.786  14.678
37823SOL     OW15307   3.743   8.710  14.094
37823SOL    HW115308   3.738   8.634  14.037
37823SOL    HW215309   3.795   8.774  14.045
37824SOL     OW15310   4.315   3.005  12.054
37824SOL    HW115311   4.240   3.003  11.995
37824SOL    HW215312   4.302   2.930  12.112
37825SOL     OW15313   3.154   5.273  12.578
37825SOL    HW115314   3.141   5.256  12.671
37825SOL    HW215315   3.114   5.198  12.534
37826SOL     OW15316   5.208  12.726   1.019
37826SOL    HW115317   5.128  12.683   0.989
37826SOL    HW215318   5.239  12.672   1.092
37827SOL     OW15319  13.427  11.736  11.432
37827SOL    HW115320  13.388  11.696  11.354
37827SOL    HW215321  13.460  11.821  11.401
37828SOL     OW15322  11.178   5.344   4.987
37828SOL    HW115323  11.198   5.344   5.081
37828SOL    HW215324  11.111   5.277   4.976
37829SOL     OW15325   4.238  10.302   1.125
37829SOL    HW115326   4.290  10.381   1.135
37829SOL    HW215327   4.154  10.322   1.166
37830SOL     OW15328  10.088  10.023   1.241
37830SOL    HW115329  10.121   9.963   1.174
37830SOL    HW215330  10.166  10.064   1.278
37831SOL     OW15331  14.777   1.338  11.073
37831SOL    HW115332  14.828   1.278  11.019
37831SOL    HW215333  14.757   1.288  11.152
37832SOL     OW15334  10.442  14.323   7.532
37832SOL    HW115335  10.470  14.281   7.613
37832SOL    HW215336  10.520  14.370   7.501
37833SOL     OW15337  12.849   5.021  12.894
37833SOL    HW115338  12.928   4.970  12.874
37833SOL    HW215339  12.806   5.032  12.809
37834SOL     OW15340   3.140  14.186   1.081
37834SOL    HW115341   3.099  14.171   1.166
37834SOL    HW215342   3.067  14.201   1.021
37835SOL     OW15343   9.079   7.874   5.776
37835SOL    HW115344   9.081   7.934   5.851
37835SOL    HW215345   9.162   7.827   5.782
37836SOL     OW15346   6.596  13.098   5.830
37836SOL    HW115347   6.583  13.043   5.907
37836SOL    HW215348   6.647  13.173   5.862
37837SOL     OW15349   5.563   1.018   9.901
37837SOL    HW115350   5.520   0.996   9.818
37837SOL    HW215351   5.498   1.072   9.947
37838SOL     OW15352   3.827   1.137   4.485
37838SOL    HW115353   3.897   1.129   4.421
37838SOL    HW215354   3.867   1.181   4.560
37839SOL     OW15355  13.742  12.715   9.768
37839SOL    HW115356  13.800  12.756   9.703
37839SOL    HW215357  13.690  12.788   9.802
37840SOL     OW15358   2.709   1.372   0.011
37840SOL    HW115359   2.764   1.367   0.088
37840SOL    HW215360   2.628   1.413   0.042
37841SOL     OW15361  10.422  14.272   3.199
37841SOL    HW115362  10.394  14.316   3.118
37841SOL    HW215363  10.517  14.283   3.201
37842SOL     OW15364  12.862  14.457   0.918
37842SOL    HW115365  12.926  14.478   0.850
37842SOL    HW215366  12.843  14.365   0.905
37843SOL     OW15367   1.822  12.439   9.311
37843SOL    HW115368   1.916  12.431   9.326
37843SOL    HW215369   1.796  12.354   9.274
37844SOL     OW15370  13.344   3.853  12.889
37844SOL    HW115371  13.418   3.877  12.945
37844SOL    HW215372  13.320   3.935  12.846
37845SOL     OW15373   6.039   3.122   1.703
37845SOL    HW115374   6.056   3.036   1.664
37845SOL    HW215375   5.994   3.171   1.634
37846SOL     OW15376  11.778  11.277   4.732
37846SOL    HW115377  11.855  11.326   4.701
37846SOL    HW215378  11.814  11.194   4.764
37847SOL     OW15379   2.014  10.322  13.992
37847SOL    HW115380   2.037  10.269  13.916
37847SOL    HW215381   1.948  10.383  13.958
37848SOL     OW15382  10.262  10.239   6.378
37848SOL    HW115383  10.335  10.200   6.329
37848SOL    HW215384  10.269  10.201   6.466
37849SOL     OW15385   8.061   7.516  10.292
37849SOL    HW115386   8.030   7.476  10.373
37849SOL    HW215387   8.153   7.535  10.308
37850SOL     OW15388   8.270   7.860   5.468
37850SOL    HW115389   8.212   7.816   5.530
37850SOL    HW215390   8.351   7.810   5.470
37851SOL     OW15391   4.452   6.574  11.089
37851SOL    HW115392   4.459   6.554  11.182
37851SOL    HW215393   4.368   6.535  11.063
37852SOL     OW15394   7.235   3.059   1.188
37852SOL    HW115395   7.239   2.977   1.238
37852SOL    HW215396   7.312   3.108   1.216
37853SOL     OW15397   3.145   4.729   7.490
37853SOL    HW115398   3.167   4.817   7.521
37853SOL    HW215399   3.104   4.687   7.565
37854SOL     OW15400   9.345  14.542   7.237
37854SOL    HW115401   9.314  14.535   7.146
37854SOL    HW215402   9.425  14.593   7.231
37855SOL     OW15403   6.357   0.275   2.615
37855SOL    HW115404   6.327   0.342   2.555
37855SOL    HW215405   6.430   0.315   2.662
37856SOL     OW15406   5.183  14.020  14.462
37856SOL    HW115407   5.198  14.096  14.519
37856SOL    HW215408   5.214  14.048  14.376
37857SOL     OW15409   4.046   4.723   9.240
37857SOL    HW115410   3.962   4.766   9.254
37857SOL    HW215411   4.108   4.795   9.227
37858SOL     OW15412  10.125   7.802  10.220
37858SOL    HW115413  10.180   7.848  10.156
37858SOL    HW215414  10.064   7.869  10.251
37859SOL     OW15415   9.437   6.947   5.616
37859SOL    HW115416   9.485   6.896   5.551
37859SOL    HW215417   9.345   6.922   5.602
37860SOL     OW15418   4.405  12.305   2.998
37860SOL    HW115419   4.325  12.269   2.960
37860SOL    HW215420   4.472  12.240   2.980
37861SOL     OW15421  11.294  13.444   5.301
37861SOL    HW115422  11.336  13.367   5.340
37861SOL    HW215423  11.207  13.414   5.275
37862SOL     OW15424   5.984   8.140   2.821
37862SOL    HW115425   6.031   8.084   2.884
37862SOL    HW215426   5.977   8.086   2.742
37863SOL     OW15427  14.833   6.481   0.169
37863SOL    HW115428   0.048   6.463   0.191
37863SOL    HW215429  14.800   6.533   0.242
37864SOL     OW15430   2.481  13.724  12.562
37864SOL    HW115431   2.415  13.791  12.542
37864SOL    HW215432   2.524  13.708  12.478
37865SOL     OW15433  12.779  13.213   2.490
37865SOL    HW115434  12.779  13.171   2.576
37865SOL    HW215435  12.796  13.305   2.508
37866SOL     OW15436   4.209   6.199   5.062
37866SOL    HW115437   4.141   6.137   5.089
37866SOL    HW215438   4.289   6.147   5.056
37867SOL     OW15439  10.165   9.789  12.485
37867SOL    HW115440  10.094   9.783  12.420
37867SOL    HW215441  10.132   9.742  12.561
37868SOL     OW15442  11.213   1.688  10.657
37868SOL    HW115443  11.232   1.738  10.578
37868SOL    HW215444  11.292   1.696  10.711
37869SOL     OW15445  10.097  11.903   9.093
37869SOL    HW115446  10.155  11.837   9.130
37869SOL    HW215447  10.052  11.859   9.021
37870SOL     OW15448  12.784  14.254   2.723
37870SOL    HW115449  12.861  14.310   2.718
37870SOL    HW215450  12.816  14.166   2.702
37871SOL     OW15451   1.267   7.817   2.595
37871SOL    HW115452   1.223   7.748   2.645
37871SOL    HW215453   1.242   7.800   2.504
37872SOL     OW15454   5.402   9.246  14.372
37872SOL    HW115455   5.334   9.256  14.438
37872SOL    HW215456   5.381   9.312  14.306
37873SOL     OW15457   9.014  13.599   1.156
37873SOL    HW115458   9.061  13.525   1.195
37873SOL    HW215459   8.932  13.604   1.205
37874SOL     OW15460  11.377   9.196   6.017
37874SOL    HW115461  11.307   9.258   5.993
37874SOL    HW215462  11.385   9.205   6.112
37875SOL     OW15463   3.571   9.476   4.914
37875SOL    HW115464   3.519   9.524   4.850
37875SOL    HW215465   3.510   9.457   4.986
37876SOL     OW15466  13.696   7.136  13.775
37876SOL    HW115467  13.681   7.222  13.737
37876SOL    HW215468  13.746   7.154  13.855
37877SOL     OW15469   3.291   1.366  13.720
37877SOL    HW115470   3.354   1.424  13.678
37877SOL    HW215471   3.307   1.379  13.814
37878SOL     OW15472  11.088   9.610   3.220
37878SOL    HW115473  11.182   9.590   3.220
37878SOL    HW215474  11.061   9.599   3.129
37879SOL     OW15475   9.778   0.114   5.173
37879SOL    HW115476   9.810   0.201   5.198
37879SOL    HW215477   9.778   0.115   5.077
37880SOL     OW15478   5.864   7.974   5.914
37880SOL    HW115479   5.950   8.009   5.935
37880SOL    HW215480   5.862   7.969   5.818
37881SOL     OW15481  13.912   9.911   5.331
37881SOL    HW115482  13.997   9.943   5.299
37881SOL    HW215483  13.933   9.865   5.412
37882SOL     OW15484   9.071   2.719   5.633
37882SOL    HW115485   9.143   2.780   5.617
37882SOL    HW215486   8.992   2.768   5.609
37883SOL     OW15487  11.586   1.467   5.716
37883SOL    HW115488  11.596   1.493   5.807
37883SOL    HW215489  11.577   1.550   5.668
37884SOL     OW15490   0.422   1.670  12.139
37884SOL    HW115491   0.370   1.737  12.183
37884SOL    HW215492   0.379   1.587  12.161
37885SOL     OW15493   8.073   8.946   1.735
37885SOL    HW115494   8.125   8.980   1.663
37885SOL    HW215495   7.998   8.904   1.693
37886SOL     OW15496   9.629   0.794  12.643
37886SOL    HW115497   9.697   0.760  12.585
37886SOL    HW215498   9.594   0.870  12.598
37887SOL     OW15499  12.644   2.096  11.022
37887SOL    HW115500  12.642   2.118  10.929
37887SOL    HW215501  12.724   2.044  11.032
37888SOL     OW15502   1.658  12.385  14.255
37888SOL    HW115503   1.596  12.455  14.278
37888SOL    HW215504   1.605  12.322  14.206
37889SOL     OW15505  12.566   3.461   3.779
37889SOL    HW115506  12.505   3.535   3.772
37889SOL    HW215507  12.564   3.422   3.691
37890SOL     OW15508   0.032   0.905   4.095
37890SOL    HW115509  14.842   0.855   4.047
37890SOL    HW215510   0.109   0.904   4.039
37891SOL     OW15511   7.627  12.380   6.786
37891SOL    HW115512   7.713  12.404   6.750
37891SOL    HW215513   7.604  12.300   6.739
37892SOL     OW15514   7.797   6.394  12.000
37892SOL    HW115515   7.864   6.367  12.063
37892SOL    HW215516   7.839   6.385  11.914
37893SOL     OW15517  10.855  11.039   6.222
37893SOL    HW115518  10.889  11.076   6.303
37893SOL    HW215519  10.932  11.003   6.177
37894SOL     OW15520   0.503   6.076  10.336
37894SOL    HW115521   0.433   6.137  10.312
37894SOL    HW215522   0.491   6.002  10.276
37895SOL     OW15523   6.976  12.071   1.640
37895SOL    HW115524   6.886  12.099   1.654
37895SOL    HW215525   7.002  12.031   1.723
37896SOL     OW15526  14.760  13.818   2.219
37896SOL    HW115527  14.833  13.805   2.280
37896SOL    HW215528  14.801  13.849   2.139
37897SOL     OW15529   8.581   1.641   6.688
37897SOL    HW115530   8.643   1.593   6.743
37897SOL    HW215531   8.624   1.644   6.602
37898SOL     OW15532   0.016   5.947  10.777
37898SOL    HW115533   0.031   5.961  10.683
37898SOL    HW215534   0.015   6.035  10.814
37899SOL     OW15535   2.010   7.029  13.268
37899SOL    HW115536   2.086   6.986  13.229
37899SOL    HW215537   2.005   6.994  13.357
37900SOL     OW15538   7.351  13.365   3.841
37900SOL    HW115539   7.401  13.290   3.808
37900SOL    HW215540   7.392  13.384   3.926
37901SOL     OW15541   1.973   5.854   3.579
37901SOL    HW115542   1.985   5.852   3.674
37901SOL    HW215543   2.016   5.775   3.547
37902SOL     OW15544   7.559   0.787  11.768
37902SOL    HW115545   7.613   0.750  11.838
37902SOL    HW215546   7.547   0.879  11.793
37903SOL     OW15547   9.697   9.625  14.858
37903SOL    HW115548   9.681   9.704  14.807
37903SOL    HW215549   9.721   9.559  14.793
37904SOL     OW15550   7.897  13.913   8.109
37904SOL    HW115551   7.858  13.999   8.120
37904SOL    HW215552   7.958  13.904   8.182
37905SOL     OW15553  14.240  14.412   4.941
37905SOL    HW115554  14.164  14.362   4.972
37905SOL    HW215555  14.260  14.374   4.855
37906SOL     OW15556   0.373  11.237   1.181
37906SOL    HW115557   0.309  11.167   1.170
37906SOL    HW215558   0.452  11.205   1.138
37907SOL     OW15559  13.070   2.332   2.573
37907SOL    HW115560  13.121   2.279   2.634
37907SOL    HW215561  12.979   2.305   2.587
37908SOL     OW15562   0.318   7.709   7.367
37908SOL    HW115563   0.409   7.732   7.351
37908SOL    HW215564   0.312   7.697   7.462
37909SOL     OW15565   9.520  14.263   7.957
37909SOL    HW115566   9.494  14.311   8.036
37909SOL    HW215567   9.467  14.301   7.887
37910SOL     OW15568  13.145   4.075   8.834
37910SOL    HW115569  13.114   3.999   8.784
37910SOL    HW215570  13.227   4.099   8.792
37911SOL     OW15571   3.656   9.064   8.979
37911SOL    HW115572   3.748   9.040   8.969
37911SOL    HW215573   3.633   9.034   9.067
37912SOL     OW15574   6.228  12.841   4.331
37912SOL    HW115575   6.262  12.756   4.361
37912SOL    HW215576   6.133  12.829   4.330
37913SOL     OW15577  10.457  13.464  12.218
37913SOL    HW115578  10.470  13.409  12.141
37913SOL    HW215579  10.448  13.553  12.183
37914SOL     OW15580   5.683   5.325  13.523
37914SOL    HW115581   5.589   5.315  13.508
37914SOL    HW215582   5.696   5.420  13.527
37915SOL     OW15583  12.316  10.068   5.429
37915SOL    HW115584  12.381  10.129   5.393
37915SOL    HW215585  12.242  10.122   5.453
37916SOL     OW15586   7.808   1.770   9.292
37916SOL    HW115587   7.749   1.739   9.223
37916SOL    HW215588   7.772   1.733   9.373
37917SOL     OW15589   4.848   6.309   9.847
37917SOL    HW115590   4.884   6.395   9.866
37917SOL    HW215591   4.848   6.264   9.931
37918SOL     OW15592  13.354  12.496   9.493
37918SOL    HW115593  13.444  12.526   9.480
37918SOL    HW215594  13.360  12.401   9.491
37919SOL     OW15595   8.177  14.874  12.730
37919SOL    HW115596   8.273  14.876  12.734
37919SOL    HW215597   8.152  14.821  12.806
37920SOL     OW15598   4.561  13.918   6.455
37920SOL    HW115599   4.508  13.938   6.378
37920SOL    HW215600   4.529  13.977   6.523
37921SOL     OW15601   9.699  12.758   2.525
37921SOL    HW115602   9.657  12.687   2.476
37921SOL    HW215603   9.651  12.836   2.498
37922SOL     OW15604  13.633  12.303   8.180
37922SOL    HW115605  13.633  12.208   8.192
37922SOL    HW215606  13.635  12.339   8.268
37923SOL     OW15607   6.455  11.682   1.092
37923SOL    HW115608   6.418  11.700   1.178
37923SOL    HW215609   6.380  11.679   1.033
37924SOL     OW15610   7.543   9.359   9.003
37924SOL    HW115611   7.504   9.446   8.993
37924SOL    HW215612   7.508   9.326   9.085
37925SOL     OW15613  10.599   1.676   6.291
37925SOL    HW115614  10.625   1.762   6.324
37925SOL    HW215615  10.563   1.693   6.205
37926SOL     OW15616  10.770   1.594  11.008
37926SOL    HW115617  10.838   1.645  11.051
37926SOL    HW215618  10.777   1.618  10.915
37927SOL     OW15619   1.628   7.686   4.854
37927SOL    HW115620   1.710   7.725   4.881
37927SOL    HW215621   1.594   7.644   4.933
37928SOL     OW15622  12.067   4.854  12.842
37928SOL    HW115623  11.979   4.819  12.828
37928SOL    HW215624  12.101   4.803  12.916
37929SOL     OW15625   1.340   5.724   9.343
37929SOL    HW115626   1.265   5.702   9.287
37929SOL    HW215627   1.417   5.709   9.287
37930SOL     OW15628   2.424   1.585  14.245
37930SOL    HW115629   2.426   1.495  14.279
37930SOL    HW215630   2.508   1.622  14.271
37931SOL     OW15631   4.982  14.380   8.445
37931SOL    HW115632   4.991  14.359   8.538
37931SOL    HW215633   4.911  14.324   8.415
37932SOL     OW15634   6.950   8.050   7.618
37932SOL    HW115635   6.888   8.122   7.607
37932SOL    HW215636   6.924   7.986   7.552
37933SOL     OW15637   3.697  10.675   3.530
37933SOL    HW115638   3.731  10.636   3.449
37933SOL    HW215639   3.688  10.602   3.590
37934SOL     OW15640   3.397   0.979  13.605
37934SOL    HW115641   3.464   1.035  13.644
37934SOL    HW215642   3.438   0.943  13.527
37935SOL     OW15643   4.159   9.076  14.750
37935SOL    HW115644   4.157   9.023  14.670
37935SOL    HW215645   4.075   9.122  14.750
37936SOL     OW15646   2.389  12.135  12.153
37936SOL    HW115647   2.318  12.148  12.090
37936SOL    HW215648   2.355  12.171  12.235
37937SOL     OW15649  12.632   7.403   2.304
37937SOL    HW115650  12.601   7.476   2.358
37937SOL    HW215651  12.707   7.439   2.255
37938SOL     OW15652   7.637   2.212  14.545
37938SOL    HW115653   7.609   2.142  14.485
37938SOL    HW215654   7.560   2.230  14.598
37939SOL     OW15655   6.621   1.892   3.011
37939SOL    HW115656   6.715   1.906   3.004
37939SOL    HW215657   6.613   1.801   3.041
37940SOL     OW15658   1.779  11.566  12.604
37940SOL    HW115659   1.842  11.628  12.643
37940SOL    HW215660   1.775  11.494  12.668
37941SOL     OW15661  13.832   2.252  12.185
37941SOL    HW115662  13.845   2.274  12.092
37941SOL    HW215663  13.888   2.177  12.200
37942SOL     OW15664   9.037   8.864   0.492
37942SOL    HW115665   9.035   8.946   0.442
37942SOL    HW215666   8.954   8.822   0.472
37943SOL     OW15667   0.089   1.665   6.019
37943SOL    HW115668   0.158   1.599   6.019
37943SOL    HW215669   0.135   1.748   6.022
37944SOL     OW15670  10.846   2.840   4.201
37944SOL    HW115671  10.894   2.761   4.224
37944SOL    HW215672  10.860   2.899   4.274
37945SOL     OW15673  13.598   7.459  12.632
37945SOL    HW115674  13.577   7.375  12.591
37945SOL    HW215675  13.680   7.486  12.591
37946SOL     OW15676  14.558   7.477   8.903
37946SOL    HW115677  14.534   7.460   8.994
37946SOL    HW215678  14.593   7.394   8.871
37947SOL     OW15679   5.718   0.700   1.403
37947SOL    HW115680   5.686   0.789   1.389
37947SOL    HW215681   5.807   0.701   1.367
37948SOL     OW15682   0.490   4.318   9.999
37948SOL    HW115683   0.512   4.232   9.964
37948SOL    HW215684   0.521   4.315  10.090
37949SOL     OW15685  12.593  14.821   0.941
37949SOL    HW115686  12.629   0.006   1.005
37949SOL    HW215687  12.540  14.876   0.883
37950SOL     OW15688   6.421  13.418   2.298
37950SOL    HW115689   6.490  13.472   2.337
37950SOL    HW215690   6.381  13.373   2.373
37951SOL     OW15691   1.196   0.990   1.581
37951SOL    HW115692   1.252   1.046   1.527
37951SOL    HW215693   1.155   1.050   1.643
37952SOL     OW15694   6.174   4.345   6.491
37952SOL    HW115695   6.092   4.369   6.534
37952SOL    HW215696   6.148   4.317   6.403
37953SOL     OW15697   6.001   3.739   9.765
37953SOL    HW115698   6.033   3.649   9.754
37953SOL    HW215699   5.943   3.753   9.690
37954SOL     OW15700   2.771   9.338   6.011
37954SOL    HW115701   2.822   9.282   6.069
37954SOL    HW215702   2.797   9.427   6.034
37955SOL     OW15703   5.597   2.494   1.119
37955SOL    HW115704   5.625   2.545   1.195
37955SOL    HW215705   5.679   2.461   1.081
37956SOL     OW15706   9.570  10.388   2.001
37956SOL    HW115707   9.620  10.455   2.047
37956SOL    HW215708   9.593  10.306   2.045
37957SOL     OW15709  14.426  11.153  11.188
37957SOL    HW115710  14.461  11.096  11.256
37957SOL    HW215711  14.414  11.095  11.112
37958SOL     OW15712  13.269   7.921   5.147
37958SOL    HW115713  13.286   7.831   5.117
37958SOL    HW215714  13.355   7.962   5.151
37959SOL     OW15715  12.220   9.247  12.095
37959SOL    HW115716  12.186   9.212  12.177
37959SOL    HW215717  12.258   9.171  12.050
37960SOL     OW15718   7.717   6.074   3.709
37960SOL    HW115719   7.694   6.151   3.657
37960SOL    HW215720   7.744   6.009   3.645
37961SOL     OW15721   3.706   6.164  13.212
37961SOL    HW115722   3.732   6.129  13.297
37961SOL    HW215723   3.748   6.106  13.148
37962SOL     OW15724  12.818  14.546  13.328
37962SOL    HW115725  12.887  14.499  13.374
37962SOL    HW215726  12.739  14.529  13.379
37963SOL     OW15727   0.989  10.387  12.907
37963SOL    HW115728   1.011  10.474  12.873
37963SOL    HW215729   0.899  10.395  12.936
37964SOL     OW15730   1.186   2.087   0.397
37964SOL    HW115731   1.132   2.116   0.470
37964SOL    HW215732   1.203   2.167   0.347
37965SOL     OW15733   9.590  13.171   6.963
37965SOL    HW115734   9.559  13.260   6.979
37965SOL    HW215735   9.522  13.132   6.907
37966SOL     OW15736   0.106   7.187   6.757
37966SOL    HW115737   0.068   7.124   6.696
37966SOL    HW215738   0.080   7.272   6.722
37967SOL     OW15739   8.419   3.730   6.581
37967SOL    HW115740   8.383   3.766   6.501
37967SOL    HW215741   8.413   3.635   6.570
37968SOL     OW15742   6.314  14.232   5.357
37968SOL    HW115743   6.253  14.160   5.339
37968SOL    HW215744   6.258  14.304   5.386
37969SOL     OW15745   9.373   1.964  10.678
37969SOL    HW115746   9.288   2.008  10.678
37969SOL    HW215747   9.363   1.893  10.615
37970SOL     OW15748   8.607   6.192   1.970
37970SOL    HW115749   8.557   6.111   1.979
37970SOL    HW215750   8.593   6.218   1.879
37971SOL     OW15751  10.923   8.330   9.806
37971SOL    HW115752  11.013   8.325   9.840
37971SOL    HW215753  10.929   8.392   9.734
37972SOL     OW15754   1.269   4.511   7.904
37972SOL    HW115755   1.363   4.527   7.904
37972SOL    HW215756   1.258   4.431   7.955
37973SOL     OW15757   1.865   2.553   5.249
37973SOL    HW115758   1.893   2.518   5.164
37973SOL    HW215759   1.769   2.544   5.248
37974SOL     OW15760   2.505  13.494   1.766
37974SOL    HW115761   2.522  13.552   1.692
37974SOL    HW215762   2.506  13.406   1.728
37975SOL     OW15763   1.343  14.673   2.966
37975SOL    HW115764   1.366  14.642   3.054
37975SOL    HW215765   1.262  14.722   2.978
37976SOL     OW15766  12.848   4.419   3.273
37976SOL    HW115767  12.921   4.419   3.335
37976SOL    HW215768  12.785   4.358   3.310
37977SOL     OW15769  12.639   7.380  14.776
37977SOL    HW115770  12.578   7.434  14.827
37977SOL    HW215771  12.623   7.406  14.685
37978SOL     OW15772  10.987  11.597   7.270
37978SOL    HW115773  11.078  11.568   7.265
37978SOL    HW215774  10.943  11.549   7.200
37979SOL     OW15775   8.830  12.981  14.551
37979SOL    HW115776   8.780  13.021  14.622
37979SOL    HW215777   8.766  12.927  14.504
37980SOL     OW15778   8.055  14.849   7.960
37980SOL    HW115779   8.112  14.811   7.894
37980SOL    HW215780   7.968  14.847   7.921
37981SOL     OW15781   4.771   5.114   2.598
37981SOL    HW115782   4.844   5.101   2.658
37981SOL    HW215783   4.705   5.050   2.627
37982SOL     OW15784   7.433   7.357   2.948
37982SOL    HW115785   7.495   7.373   3.018
37982SOL    HW215786   7.347   7.365   2.989
37983SOL     OW15787   3.598   7.135  12.085
37983SOL    HW115788   3.649   7.115  12.006
37983SOL    HW215789   3.664   7.155  12.151
37984SOL     OW15790   6.838  13.356  12.093
37984SOL    HW115791   6.761  13.300  12.104
37984SOL    HW215792   6.806  13.429  12.040
37985SOL     OW15793   9.993   4.893   3.912
37985SOL    HW115794  10.006   4.986   3.928
37985SOL    HW215795  10.052   4.871   3.840
37986SOL     OW15796   5.841  12.998  10.864
37986SOL    HW115797   5.835  12.905  10.886
37986SOL    HW215798   5.788  13.007  10.784
37987SOL     OW15799  13.874   9.263  11.343
37987SOL    HW115800  13.838   9.196  11.400
37987SOL    HW215801  13.964   9.275  11.374
37988SOL     OW15802   2.561  10.373   8.379
37988SOL    HW115803   2.609  10.412   8.452
37988SOL    HW215804   2.567  10.437   8.309
37989SOL     OW15805   1.791   0.653   8.666
37989SOL    HW115806   1.707   0.607   8.661
37989SOL    HW215807   1.856   0.583   8.674
37990SOL     OW15808   8.028   6.468   0.728
37990SOL    HW115809   7.974   6.510   0.794
37990SOL    HW215810   8.056   6.539   0.671
37991SOL     OW15811   2.996  13.904  13.443
37991SOL    HW115812   2.994  13.985  13.493
37991SOL    HW215813   3.089  13.890  13.423
37992SOL     OW15814   5.069   5.748   9.967
37992SOL    HW115815   5.158   5.755   9.933
37992SOL    HW215816   5.080   5.745  10.062
37993SOL     OW15817  12.404   1.960   9.694
37993SOL    HW115818  12.339   1.956   9.765
37993SOL    HW215819  12.468   1.892   9.717
37994SOL     OW15820   6.275   1.307   4.244
37994SOL    HW115821   6.203   1.344   4.295
37994SOL    HW215822   6.353   1.327   4.296
37995SOL     OW15823  10.530   9.351  11.162
37995SOL    HW115824  10.477   9.377  11.237
37995SOL    HW215825  10.521   9.424  11.100
37996SOL     OW15826   9.457   4.882   4.405
37996SOL    HW115827   9.549   4.907   4.409
37996SOL    HW215828   9.425   4.893   4.495
37997SOL     OW15829   0.865   2.926  13.700
37997SOL    HW115830   0.936   2.919  13.636
37997SOL    HW215831   0.858   2.838  13.738
37998SOL     OW15832   1.498  11.133   4.057
37998SOL    HW115833   1.518  11.090   3.975
37998SOL    HW215834   1.547  11.083   4.123
37999SOL     OW15835   5.047   6.332   7.990
37999SOL    HW115836   5.040   6.265   7.923
37999SOL    HW215837   5.072   6.411   7.943
38000SOL     OW15838   8.824   3.568  11.253
38000SOL    HW115839   8.837   3.544  11.162
38000SOL    HW215840   8.905   3.541  11.297
38001SOL     OW15841  12.290   8.731   8.593
38001SOL    HW115842  12.355   8.698   8.531
38001SOL    HW215843  12.266   8.654   8.645
38002SOL     OW15844   7.490   2.492  12.416
38002SOL    HW115845   7.461   2.442  12.492
38002SOL    HW215846   7.476   2.583  12.441
38003SOL     OW15847   1.997   3.179  13.962
38003SOL    HW115848   1.940   3.116  14.004
38003SOL    HW215849   2.027   3.236  14.033
38004SOL     OW15850   3.269   0.684   6.287
38004SOL    HW115851   3.233   0.679   6.199
38004SOL    HW215852   3.347   0.739   6.278
38005SOL     OW15853   8.257   2.960   1.129
38005SOL    HW115854   8.215   3.040   1.098
38005SOL    HW215855   8.346   2.987   1.152
38006SOL     OW15856   8.569  12.069   0.140
38006SOL    HW115857   8.619  11.989   0.154
38006SOL    HW215858   8.587  12.094   0.050
38007SOL     OW15859   1.407  10.428   5.879
38007SOL    HW115860   1.452  10.446   5.797
38007SOL    HW215861   1.321  10.394   5.852
38008SOL     OW15862  11.185   3.831  14.009
38008SOL    HW115863  11.248   3.873  13.950
38008SOL    HW215864  11.231   3.827  14.094
38009SOL     OW15865   4.587   8.157  14.290
38009SOL    HW115866   4.572   8.223  14.222
38009SOL    HW215867   4.674   8.121  14.271
38010SOL     OW15868   0.865   3.059   2.404
38010SOL    HW115869   0.875   2.974   2.362
38010SOL    HW215870   0.955   3.093   2.410
38011SOL     OW15871   7.349  14.872   2.563
38011SOL    HW115872   7.369   0.089   2.558
38011SOL    HW215873   7.253  14.869   2.570
38012SOL     OW15874   3.820  13.076   1.592
38012SOL    HW115875   3.880  13.060   1.666
38012SOL    HW215876   3.813  12.991   1.549
38013SOL     OW15877   4.762   3.829   2.922
38013SOL    HW115878   4.834   3.884   2.891
38013SOL    HW215879   4.799   3.741   2.928
38014SOL     OW15880  14.061   3.905   6.084
38014SOL    HW115881  14.117   3.983   6.088
38014SOL    HW215882  14.005   3.911   6.161
38015SOL     OW15883  13.406  10.409  13.814
38015SOL    HW115884  13.360  10.379  13.735
38015SOL    HW215885  13.494  10.372  13.805
38016SOL     OW15886  10.834   6.223   3.378
38016SOL    HW115887  10.916   6.253   3.418
38016SOL    HW215888  10.856   6.141   3.334
38017SOL     OW15889   4.739  11.241  13.814
38017SOL    HW115890   4.737  11.298  13.890
38017SOL    HW215891   4.777  11.160  13.846
38018SOL     OW15892  13.214   5.884  10.159
38018SOL    HW115893  13.187   5.952  10.221
38018SOL    HW215894  13.141   5.822  10.158
38019SOL     OW15895   6.038  14.297   8.936
38019SOL    HW115896   6.096  14.303   8.860
38019SOL    HW215897   5.987  14.218   8.921
38020SOL     OW15898  14.658   2.790   3.818
38020SOL    HW115899  14.571   2.778   3.779
38020SOL    HW215900  14.647   2.862   3.880
38021SOL     OW15901  13.130   0.013   6.505
38021SOL    HW115902  13.225   0.018   6.513
38021SOL    HW215903  13.113   0.009   6.411
38022SOL     OW15904  13.111   6.910   8.757
38022SOL    HW115905  13.195   6.896   8.714
38022SOL    HW215906  13.126   6.983   8.816
38023SOL     OW15907   2.129  14.170   1.045
38023SOL    HW115908   2.142  14.167   1.140
38023SOL    HW215909   2.070  14.097   1.027
38024SOL     OW15910   2.053   2.265  10.425
38024SOL    HW115911   2.080   2.254  10.516
38024SOL    HW215912   1.980   2.205  10.414
38025SOL     OW15913   4.378   8.213  14.503
38025SOL    HW115914   4.383   8.288  14.444
38025SOL    HW215915   4.285   8.201  14.519
38026SOL     OW15916   4.374   9.674   5.155
38026SOL    HW115917   4.304   9.698   5.094
38026SOL    HW215918   4.439   9.628   5.102
38027SOL     OW15919   5.426   8.584   4.050
38027SOL    HW115920   5.335   8.565   4.074
38027SOL    HW215921   5.478   8.533   4.112
38028SOL     OW15922   8.649  14.709   6.398
38028SOL    HW115923   8.696  14.631   6.429
38028SOL    HW215924   8.691  14.782   6.444
38029SOL     OW15925  11.855  10.783   8.176
38029SOL    HW115926  11.826  10.795   8.266
38029SOL    HW215927  11.792  10.722   8.138
38030SOL     OW15928   7.464  10.870   4.221
38030SOL    HW115929   7.444  10.813   4.147
38030SOL    HW215930   7.442  10.958   4.190
38031SOL     OW15931  12.046  10.770   6.318
38031SOL    HW115932  12.093  10.845   6.282
38031SOL    HW215933  11.988  10.806   6.384
38032SOL     OW15934   6.970   1.767   8.524
38032SOL    HW115935   6.995   1.823   8.597
38032SOL    HW215936   7.005   1.811   8.447
38033SOL     OW15937   0.276   6.437   0.150
38033SOL    HW115938   0.328   6.417   0.228
38033SOL    HW215939   0.270   6.354   0.103
38034SOL     OW15940   1.111   3.583  13.688
38034SOL    HW115941   1.189   3.540  13.651
38034SOL    HW215942   1.042   3.569  13.624
38035SOL     OW15943  12.591   3.866  14.358
38035SOL    HW115944  12.502   3.901  14.362
38035SOL    HW215945  12.580   3.777  14.324
38036SOL     OW15946  10.439   1.182  12.713
38036SOL    HW115947  10.484   1.099  12.724
38036SOL    HW215948  10.489   1.229  12.647
38037SOL     OW15949   1.558  12.454   7.502
38037SOL    HW115950   1.497  12.432   7.573
38037SOL    HW215951   1.501  12.473   7.428
38038SOL     OW15952   6.697   0.774   5.526
38038SOL    HW115953   6.788   0.742   5.527
38038SOL    HW215954   6.704   0.862   5.489
38039SOL     OW15955   1.394  11.918   5.622
38039SOL    HW115956   1.478  11.925   5.668
38039SOL    HW215957   1.404  11.974   5.545
38040SOL     OW15958   9.618   4.950   2.793
38040SOL    HW115959   9.678   4.920   2.724
38040SOL    HW215960   9.537   4.973   2.746
38041SOL     OW15961   4.535  10.646  14.585
38041SOL    HW115962   4.551  10.736  14.554
38041SOL    HW215963   4.440  10.636  14.580
38042SOL     OW15964   2.561   6.553   1.892
38042SOL    HW115965   2.624   6.485   1.868
38042SOL    HW215966   2.547   6.603   1.811
38043SOL     OW15967  14.244   5.916  13.748
38043SOL    HW115968  14.241   5.875  13.835
38043SOL    HW215969  14.158   5.896  13.710
38044SOL     OW15970   8.470   6.732   4.325
38044SOL    HW115971   8.561   6.715   4.348
38044SOL    HW215972   8.457   6.688   4.242
38045SOL     OW15973   8.023   5.899   5.122
38045SOL    HW115974   7.956   5.875   5.058
38045SOL    HW215975   7.975   5.949   5.189
38046SOL     OW15976   9.471   7.156   7.932
38046SOL    HW115977   9.478   7.148   8.027
38046SOL    HW215978   9.440   7.246   7.918
38047SOL     OW15979   3.684  11.505  14.013
38047SOL    HW115980   3.726  11.525  14.096
38047SOL    HW215981   3.709  11.415  13.994
38048SOL     OW15982   1.238   5.707  14.361
38048SOL    HW115983   1.209   5.694  14.270
38048SOL    HW215984   1.169   5.760  14.400
38049SOL     OW15985   7.392   7.340  11.316
38049SOL    HW115986   7.393   7.362  11.223
38049SOL    HW215987   7.331   7.403  11.354
38050SOL     OW15988  12.918   2.683  14.005
38050SOL    HW115989  12.936   2.669  14.098
38050SOL    HW215990  12.826   2.711  14.003
38051SOL     OW15991   1.948  11.203  13.415
38051SOL    HW115992   2.017  11.142  13.389
38051SOL    HW215993   1.873  11.146  13.435
38052SOL     OW15994  11.272   2.911   1.057
38052SOL    HW115995  11.293   2.973   0.987
38052SOL    HW215996  11.189   2.943   1.093
38053SOL     OW15997  13.589   4.821   3.072
38053SOL    HW115998  13.518   4.869   3.114
38053SOL    HW215999  13.669   4.861   3.106
38054SOL     OW16000  10.223   5.756   1.980
38054SOL    HW116001  10.212   5.721   2.068
38054SOL    HW216002  10.221   5.851   1.992
38055SOL     OW16003  10.619   6.911  12.201
38055SOL    HW116004  10.528   6.917  12.174
38055SOL    HW216005  10.652   7.001  12.197
38056SOL     OW16006  14.458  11.036   8.074
38056SOL    HW116007  14.406  11.111   8.106
38056SOL    HW216008  14.530  11.076   8.025
38057SOL     OW16009   9.706   7.041   0.258
38057SOL    HW116010   9.791   6.997   0.260
38057SOL    HW216011   9.720   7.123   0.306
38058SOL     OW16012   9.591   0.860   9.344
38058SOL    HW116013   9.601   0.825   9.256
38058SOL    HW216014   9.626   0.792   9.402
38059SOL     OW16015   0.649  13.000  11.872
38059SOL    HW116016   0.616  13.088  11.889
38059SOL    HW216017   0.616  12.947  11.945
38060SOL     OW16018   7.062   5.097   0.848
38060SOL    HW116019   7.056   5.004   0.867
38060SOL    HW216020   7.059   5.103   0.753
38061SOL     OW16021   1.157   8.866  12.237
38061SOL    HW116022   1.242   8.832  12.266
38061SOL    HW216023   1.100   8.789  12.238
38062SOL     OW16024   8.785   6.608   9.722
38062SOL    HW116025   8.732   6.651   9.656
38062SOL    HW216026   8.869   6.654   9.719
38063SOL     OW16027   8.812   1.140  10.086
38063SOL    HW116028   8.888   1.118  10.033
38063SOL    HW216029   8.846   1.196  10.156
38064SOL     OW16030  14.165   6.112  11.147
38064SOL    HW116031  14.227   6.184  11.136
38064SOL    HW216032  14.213   6.048  11.200
38065SOL     OW16033  14.740  14.248   0.382
38065SOL    HW116034  14.772  14.179   0.323
38065SOL    HW216035  14.794  14.240   0.460
38066SOL     OW16036   0.846   2.894  12.572
38066SOL    HW116037   0.879   2.866  12.657
38066SOL    HW216038   0.845   2.990  12.577
38067SOL     OW16039   2.537   9.215   3.768
38067SOL    HW116040   2.497   9.133   3.798
38067SOL    HW216041   2.464   9.267   3.735
38068SOL     OW16042  11.234   0.246   6.830
38068SOL    HW116043  11.297   0.178   6.807
38068SOL    HW216044  11.270   0.286   6.909
38069SOL     OW16045   5.558   4.567   9.615
38069SOL    HW116046   5.562   4.533   9.526
38069SOL    HW216047   5.605   4.502   9.668
38070SOL     OW16048  13.635   7.809   7.561
38070SOL    HW116049  13.713   7.761   7.535
38070SOL    HW216050  13.627   7.880   7.496
38071SOL     OW16051   5.172   8.760  10.660
38071SOL    HW116052   5.211   8.846  10.673
38071SOL    HW216053   5.182   8.716  10.745
38072SOL     OW16054   3.440   8.983   5.038
38072SOL    HW116055   3.422   8.909   5.096
38072SOL    HW216056   3.355   9.026   5.026
38073SOL     OW16057   1.006  13.096   1.300
38073SOL    HW116058   1.067  13.068   1.368
38073SOL    HW216059   0.972  13.014   1.263
38074SOL     OW16060   1.573   8.231   1.119
38074SOL    HW116061   1.543   8.254   1.206
38074SOL    HW216062   1.620   8.309   1.089
38075SOL     OW16063   0.139  13.825   8.754
38075SOL    HW116064   0.199  13.756   8.726
38075SOL    HW216065   0.058  13.780   8.774
38076SOL     OW16066  11.515   0.373   5.575
38076SOL    HW116067  11.512   0.285   5.613
38076SOL    HW216068  11.427   0.408   5.590
38077SOL     OW16069   3.869   4.481   5.968
38077SOL    HW116070   3.912   4.516   5.890
38077SOL    HW216071   3.785   4.526   5.971
38078SOL     OW16072  14.768   0.260  14.228
38078SOL    HW116073  14.766   0.164  14.224
38078SOL    HW216074  14.681   0.287  14.200
38079SOL     OW16075  13.650   7.338   2.861
38079SOL    HW116076  13.566   7.361   2.822
38079SOL    HW216077  13.627   7.287   2.939
38080SOL     OW16078   6.003   8.769   1.693
38080SOL    HW116079   6.041   8.782   1.606
38080SOL    HW216080   5.940   8.840   1.703
38081SOL     OW16081   4.354   9.598   6.477
38081SOL    HW116082   4.302   9.521   6.455
38081SOL    HW216083   4.326   9.623   6.565
38082SOL     OW16084   3.640   4.161   2.420
38082SOL    HW116085   3.556   4.116   2.405
38082SOL    HW216086   3.690   4.144   2.340
38083SOL     OW16087   9.356   9.106   4.062
38083SOL    HW116088   9.440   9.142   4.090
38083SOL    HW216089   9.373   9.014   4.045
38084SOL     OW16090  10.401   1.968   4.412
38084SOL    HW116091  10.365   1.918   4.339
38084SOL    HW216092  10.338   2.039   4.426
38085SOL     OW16093  11.822   6.964  10.553
38085SOL    HW116094  11.805   7.051  10.587
38085SOL    HW216095  11.782   6.905  10.618
38086SOL     OW16096  10.781   5.812   1.519
38086SOL    HW116097  10.714   5.829   1.585
38086SOL    HW216098  10.857   5.861   1.549
38087SOL     OW16099   4.762   1.032   3.704
38087SOL    HW116100   4.830   1.043   3.771
38087SOL    HW216101   4.682   1.012   3.754
38088SOL     OW16102   4.038   1.335   5.877
38088SOL    HW116103   4.091   1.366   5.950
38088SOL    HW216104   4.090   1.354   5.799
38089SOL     OW16105   6.606   1.183   1.050
38089SOL    HW116106   6.668   1.256   1.059
38089SOL    HW216107   6.522   1.219   1.076
38090SOL     OW16108   5.075   1.198   7.592
38090SOL    HW116109   5.104   1.127   7.649
38090SOL    HW216110   5.119   1.182   7.509
38091SOL     OW16111  12.297   3.347   3.516
38091SOL    HW116112  12.343   3.358   3.433
38091SOL    HW216113  12.356   3.386   3.581
38092SOL     OW16114   6.212   3.186  13.604
38092SOL    HW116115   6.293   3.176  13.552
38092SOL    HW216116   6.220   3.120  13.673
38093SOL     OW16117   9.857   2.324  11.797
38093SOL    HW116118   9.831   2.252  11.855
38093SOL    HW216119   9.881   2.281  11.715
38094SOL     OW16120  12.227   9.480  12.917
38094SOL    HW116121  12.291   9.425  12.872
38094SOL    HW216122  12.148   9.473  12.863
38095SOL     OW16123  13.920  13.088   6.564
38095SOL    HW116124  13.847  13.135   6.605
38095SOL    HW216125  13.990  13.090   6.629
38096SOL     OW16126   6.408   4.515   1.950
38096SOL    HW116127   6.455   4.595   1.928
38096SOL    HW216128   6.316   4.542   1.954
38097SOL     OW16129   6.628  14.031  11.497
38097SOL    HW116130   6.695  14.086  11.537
38097SOL    HW216131   6.671  13.947  11.484
38098SOL     OW16132   2.672   5.669  13.520
38098SOL    HW116133   2.596   5.726  13.511
38098SOL    HW216134   2.638   5.581  13.501
38099SOL     OW16135   1.129   1.862   8.594
38099SOL    HW116136   1.220   1.864   8.622
38099SOL    HW216137   1.130   1.816   8.510
38100SOL     OW16138   5.759  13.070   2.381
38100SOL    HW116139   5.806  13.147   2.412
38100SOL    HW216140   5.678  13.068   2.433
38101SOL     OW16141  14.339   4.682   9.959
38101SOL    HW116142  14.421   4.685  10.010
38101SOL    HW216143  14.363   4.640   9.877
38102SOL     OW16144   6.533   0.573   5.456
38102SOL    HW116145   6.602   0.638   5.472
38102SOL    HW216146   6.551   0.540   5.368
38103SOL     OW16147   1.231  12.732   7.608
38103SOL    HW116148   1.176  12.809   7.597
38103SOL    HW216149   1.181  12.675   7.667
38104SOL     OW16150   1.633   6.614   9.920
38104SOL    HW116151   1.636   6.562  10.000
38104SOL    HW216152   1.542   6.606   9.890
38105SOL     OW16153   1.858  11.451  12.348
38105SOL    HW116154   1.890  11.366  12.378
38105SOL    HW216155   1.837  11.498  12.429
38106SOL     OW16156   6.804   3.790   2.305
38106SOL    HW116157   6.899   3.799   2.319
38106SOL    HW216158   6.797   3.740   2.224
38107SOL     OW16159   3.805  14.259   3.817
38107SOL    HW116160   3.799  14.304   3.733
38107SOL    HW216161   3.716  14.227   3.833
38108SOL     OW16162   5.126  13.140   6.922
38108SOL    HW116163   5.220  13.160   6.925
38108SOL    HW216164   5.120  13.049   6.953
38109SOL     OW16165   1.785   0.893   1.074
38109SOL    HW116166   1.755   0.938   1.153
38109SOL    HW216167   1.841   0.823   1.107
38110SOL     OW16168   3.309  13.489   0.164
38110SOL    HW116169   3.335  13.562   0.108
38110SOL    HW216170   3.213  13.491   0.163
38111SOL     OW16171   6.949   6.592   3.547
38111SOL    HW116172   6.974   6.504   3.578
38111SOL    HW216173   7.008   6.651   3.593
38112SOL     OW16174  10.287  12.648   5.945
38112SOL    HW116175  10.329  12.614   6.024
38112SOL    HW216176  10.291  12.575   5.883
38113SOL     OW16177  12.575  11.392  11.069
38113SOL    HW116178  12.600  11.468  11.121
38113SOL    HW216179  12.518  11.341  11.127
38114SOL     OW16180   0.822  11.452  13.723
38114SOL    HW116181   0.866  11.536  13.735
38114SOL    HW216182   0.798  11.424  13.812
38115SOL     OW16183   3.738   4.260   5.884
38115SOL    HW116184   3.743   4.174   5.927
38115SOL    HW216185   3.799   4.315   5.934
38116SOL     OW16186   2.400  10.999   9.469
38116SOL    HW116187   2.481  11.034   9.432
38116SOL    HW216188   2.333  11.017   9.404
38117SOL     OW16189  12.263   8.502   1.214
38117SOL    HW116190  12.312   8.435   1.262
38117SOL    HW216191  12.317   8.520   1.136
38118SOL     OW16192   6.126   5.104  13.773
38118SOL    HW116193   6.101   5.025  13.822
38118SOL    HW216194   6.044   5.139  13.740
38119SOL     OW16195   0.789  14.815   1.890
38119SOL    HW116196   0.739  14.760   1.829
38119SOL    HW216197   0.802  14.761   1.967
38120SOL     OW16198  14.209   3.773   3.312
38120SOL    HW116199  14.287   3.825   3.332
38120SOL    HW216200  14.180   3.804   3.227
38121SOL     OW16201  11.903  14.300   7.349
38121SOL    HW116202  11.971  14.272   7.410
38121SOL    HW216203  11.909  14.239   7.276
38122SOL     OW16204   5.323   8.976   8.703
38122SOL    HW116205   5.379   9.040   8.658
38122SOL    HW216206   5.268   9.029   8.760
38123SOL     OW16207   0.456  10.880   2.659
38123SOL    HW116208   0.395  10.950   2.683
38123SOL    HW216209   0.526  10.923   2.611
38124SOL     OW16210   8.447   7.029  10.107
38124SOL    HW116211   8.473   6.994  10.022
38124SOL    HW216212   8.416   6.953  10.156
38125SOL     OW16213   7.712   2.575   5.960
38125SOL    HW116214   7.744   2.495   5.919
38125SOL    HW216215   7.673   2.625   5.888
38126SOL     OW16216   8.129   2.049  12.299
38126SOL    HW116217   8.114   2.128  12.247
38126SOL    HW216218   8.224   2.037  12.299
38127SOL     OW16219   7.193  11.720  14.494
38127SOL    HW116220   7.244  11.676  14.426
38127SOL    HW216221   7.245  11.798  14.516
38128SOL     OW16222  13.904  14.682   0.182
38128SOL    HW116223  13.924  14.653   0.093
38128SOL    HW216224  13.970  14.638   0.237
38129SOL     OW16225  12.464   7.274  11.626
38129SOL    HW116226  12.451   7.257  11.533
38129SOL    HW216227  12.486   7.189  11.664
38130SOL     OW16228   5.120   2.846  12.654
38130SOL    HW116229   5.062   2.905  12.605
38130SOL    HW216230   5.075   2.762  12.653
38131SOL     OW16231   0.304   3.353  13.577
38131SOL    HW116232   0.224   3.377  13.623
38131SOL    HW216233   0.370   3.413  13.611
38132SOL     OW16234   9.707   3.181   3.163
38132SOL    HW116235   9.667   3.268   3.157
38132SOL    HW216236   9.800   3.199   3.178
38133SOL     OW16237  14.279   0.544   4.522
38133SOL    HW116238  14.350   0.483   4.545
38133SOL    HW216239  14.311   0.629   4.552
38134SOL     OW16240   2.898   1.566  13.346
38134SOL    HW116241   2.939   1.481  13.361
38134SOL    HW216242   2.805   1.546  13.335
38135SOL     OW16243   0.252   4.364  12.116
38135SOL    HW116244   0.181   4.308  12.146
38135SOL    HW216245   0.321   4.351  12.181
38136SOL     OW16246  11.384   2.883  13.226
38136SOL    HW116247  11.434   2.935  13.290
38136SOL    HW216248  11.355   2.807  13.275
38137SOL     OW16249   2.657   9.413   7.591
38137SOL    HW116250   2.602   9.345   7.554
38137SOL    HW216251   2.703   9.370   7.663
38138SOL     OW16252   6.341   1.349  11.461
38138SOL    HW116253   6.354   1.321  11.552
38138SOL    HW216254   6.292   1.277  11.420
38139SOL     OW16255  14.284   2.584   8.648
38139SOL    HW116256  14.226   2.614   8.719
38139SOL    HW216257  14.328   2.663   8.618
38140SOL     OW16258  12.208  12.455   3.663
38140SOL    HW116259  12.151  12.503   3.723
38140SOL    HW216260  12.287  12.508   3.658
38141SOL     OW16261  14.492   6.663   8.781
38141SOL    HW116262  14.548   6.736   8.808
38141SOL    HW216263  14.547   6.585   8.790
38142SOL     OW16264  13.666   1.728  12.519
38142SOL    HW116265  13.613   1.659  12.558
38142SOL    HW216266  13.718   1.763  12.591
38143SOL     OW16267  14.076  12.747  11.481
38143SOL    HW116268  14.037  12.832  11.459
38143SOL    HW216269  14.110  12.758  11.570
38144SOL     OW16270   2.614   2.367   9.369
38144SOL    HW116271   2.569   2.315   9.302
38144SOL    HW216272   2.628   2.306   9.441
38145SOL     OW16273  10.205   3.349   7.999
38145SOL    HW116274  10.218   3.266   7.952
38145SOL    HW216275  10.112   3.351   8.021
38146SOL     OW16276   8.247   3.316   0.403
38146SOL    HW116277   8.291   3.348   0.482
38146SOL    HW216278   8.311   3.331   0.333
38147SOL     OW16279   5.659   5.417   6.352
38147SOL    HW116280   5.640   5.402   6.445
38147SOL    HW216281   5.637   5.508   6.337
38148SOL     OW16282  12.254   9.808   6.630
38148SOL    HW116283  12.291   9.806   6.718
38148SOL    HW216284  12.174   9.860   6.639
38149SOL     OW16285  10.125   6.822   5.740
38149SOL    HW116286  10.062   6.894   5.747
38149SOL    HW216287  10.086   6.752   5.793
38150SOL     OW16288  14.779  11.733  12.559
38150SOL    HW116289  14.848  11.712  12.497
38150SOL    HW216290  14.758  11.650  12.602
38151SOL     OW16291   3.364  14.406   4.098
38151SOL    HW116292   3.434  14.364   4.149
38151SOL    HW216293   3.287  14.402   4.155
38152SOL     OW16294  11.255   5.166   9.187
38152SOL    HW116295  11.320   5.138   9.251
38152SOL    HW216296  11.184   5.103   9.195
38153SOL     OW16297   5.661  13.792   1.715
38153SOL    HW116298   5.569  13.772   1.727
38153SOL    HW216299   5.680  13.861   1.779
38154SOL     OW16300   5.768   8.267   7.400
38154SOL    HW116301   5.691   8.239   7.448
38154SOL    HW216302   5.814   8.186   7.377
38155SOL     OW16303   9.667   0.197   0.852
38155SOL    HW116304   9.651   0.279   0.805
38155SOL    HW216305   9.584   0.149   0.844
38156SOL     OW16306   6.076   1.051  12.399
38156SOL    HW116307   5.988   1.053  12.438
38156SOL    HW216308   6.131   1.098  12.461
38157SOL     OW16309   5.033   5.137  11.322
38157SOL    HW116310   5.053   5.058  11.272
38157SOL    HW216311   4.963   5.179  11.272
38158SOL     OW16312  14.313  11.932  13.039
38158SOL    HW116313  14.286  11.846  13.005
38158SOL    HW216314  14.398  11.916  13.079
38159SOL     OW16315   7.544  12.925   0.103
38159SOL    HW116316   7.485  13.000   0.111
38159SOL    HW216317   7.604  12.948   0.032
38160SOL     OW16318   6.229   2.738   5.152
38160SOL    HW116319   6.209   2.757   5.060
38160SOL    HW216320   6.260   2.821   5.188
38161SOL     OW16321   1.981   2.134   8.740
38161SOL    HW116322   2.060   2.153   8.689
38161SOL    HW216323   2.013   2.091   8.819
38162SOL     OW16324  12.008   2.582   7.955
38162SOL    HW116325  12.013   2.511   8.019
38162SOL    HW216326  12.078   2.642   7.980
38163SOL     OW16327   8.871  14.170   5.737
38163SOL    HW116328   8.856  14.100   5.800
38163SOL    HW216329   8.864  14.251   5.788
38164SOL     OW16330  13.674  13.542   9.926
38164SOL    HW116331  13.718  13.612   9.878
38164SOL    HW216332  13.581  13.561   9.916
38165SOL     OW16333  11.394   8.746   9.202
38165SOL    HW116334  11.453   8.682   9.163
38165SOL    HW216335  11.444   8.828   9.202
38166SOL     OW16336  13.123  14.100   4.288
38166SOL    HW116337  13.058  14.116   4.220
38166SOL    HW216338  13.104  14.166   4.355
38167SOL     OW16339   2.399   7.571   6.526
38167SOL    HW116340   2.483   7.530   6.545
38167SOL    HW216341   2.419   7.638   6.461
38168SOL     OW16342   8.981   3.697   3.807
38168SOL    HW116343   8.954   3.637   3.876
38168SOL    HW216344   9.076   3.689   3.803
38169SOL     OW16345   7.737   0.904   5.750
38169SOL    HW116346   7.788   0.984   5.767
38169SOL    HW216347   7.778   0.838   5.805
38170SOL     OW16348   0.984   0.691   8.930
38170SOL    HW116349   0.965   0.606   8.968
38170SOL    HW216350   1.079   0.699   8.932
38171SOL     OW16351  11.374   7.460  14.376
38171SOL    HW116352  11.365   7.407  14.297
38171SOL    HW216353  11.468   7.456  14.396
38172SOL     OW16354   8.033   2.687   1.562
38172SOL    HW116355   8.099   2.749   1.532
38172SOL    HW216356   8.042   2.612   1.503
38173SOL     OW16357  10.494   0.143   2.820
38173SOL    HW116358  10.549   0.090   2.878
38173SOL    HW216359  10.432   0.081   2.781
38174SOL     OW16360  11.166   2.911   0.164
38174SOL    HW116361  11.088   2.884   0.212
38174SOL    HW216362  11.235   2.852   0.196
38175SOL     OW16363   5.514   2.756   2.418
38175SOL    HW116364   5.510   2.810   2.497
38175SOL    HW216365   5.608   2.750   2.398
38176SOL     OW16366   3.575   4.206   2.051
38176SOL    HW116367   3.650   4.190   2.108
38176SOL    HW216368   3.571   4.301   2.041
38177SOL     OW16369   3.806  11.535   2.594
38177SOL    HW116370   3.802  11.552   2.500
38177SOL    HW216371   3.845  11.448   2.602
38178SOL     OW16372   8.686   3.228   6.298
38178SOL    HW116373   8.654   3.306   6.343
38178SOL    HW216374   8.622   3.213   6.228
38179SOL     OW16375   5.309   1.399   2.296
38179SOL    HW116376   5.257   1.322   2.270
38179SOL    HW216377   5.397   1.365   2.309
38180SOL     OW16378  14.107  14.397   6.762
38180SOL    HW116379  14.189  14.414   6.809
38180SOL    HW216380  14.041  14.388   6.831
38181SOL     OW16381   0.961   0.881   9.910
38181SOL    HW116382   1.013   0.911   9.835
38181SOL    HW216383   0.876   0.858   9.873
38182SOL     OW16384   8.760  10.676   7.038
38182SOL    HW116385   8.843  10.654   7.080
38182SOL    HW216386   8.782  10.689   6.946
38183SOL     OW16387  14.095   3.070   3.635
38183SOL    HW116388  14.056   3.157   3.630
38183SOL    HW216389  14.040   3.016   3.577
38184SOL     OW16390  14.134  10.677  13.670
38184SOL    HW116391  14.073  10.709  13.737
38184SOL    HW216392  14.206  10.739  13.671
38185SOL     OW16393   7.730   2.319   8.059
38185SOL    HW116394   7.700   2.239   8.017
38185SOL    HW216395   7.760   2.375   7.987
38186SOL     OW16396   1.831   3.644  10.293
38186SOL    HW116397   1.886   3.594  10.353
38186SOL    HW216398   1.846   3.735  10.317
38187SOL     OW16399   6.955   3.084  11.072
38187SOL    HW116400   6.932   2.992  11.061
38187SOL    HW216401   6.965   3.117  10.982
38188SOL     OW16402  10.272   7.334  11.881
38188SOL    HW116403  10.267   7.303  11.971
38188SOL    HW216404  10.268   7.255  11.828
38189SOL     OW16405  11.247   3.825  12.876
38189SOL    HW116406  11.218   3.853  12.963
38189SOL    HW216407  11.343   3.819  12.884
38190SOL     OW16408   2.449   5.102  11.903
38190SOL    HW116409   2.488   5.029  11.855
38190SOL    HW216410   2.510   5.174  11.891
38191SOL     OW16411   7.209   5.032  10.778
38191SOL    HW116412   7.191   5.126  10.775
38191SOL    HW216413   7.280   5.023  10.842
38192SOL     OW16414  13.084  14.798   2.356
38192SOL    HW116415  13.167  14.752   2.365
38192SOL    HW216416  13.018  14.729   2.348
38193SOL     OW16417   4.665  12.901   0.179
38193SOL    HW116418   4.761  12.894   0.181
38193SOL    HW216419   4.642  12.944   0.261
38194SOL     OW16420   6.214  10.683  14.354
38194SOL    HW116421   6.298  10.715  14.387
38194SOL    HW216422   6.237  10.614  14.293
38195SOL     OW16423   5.039  13.368   7.140
38195SOL    HW116424   5.011  13.457   7.117
38195SOL    HW216425   5.127  13.361   7.103
38196SOL     OW16426  11.278  13.233  11.612
38196SOL    HW116427  11.369  13.220  11.639
38196SOL    HW216428  11.262  13.164  11.548
38197SOL     OW16429  11.618  10.234   5.268
38197SOL    HW116430  11.547  10.213   5.329
38197SOL    HW216431  11.679  10.288   5.318
38198SOL     OW16432  13.051   3.213   5.280
38198SOL    HW116433  13.126   3.231   5.223
38198SOL    HW216434  12.976   3.206   5.221
38199SOL     OW16435  12.919   5.602   0.533
38199SOL    HW116436  12.886   5.674   0.479
38199SOL    HW216437  12.850   5.535   0.528
38200SOL     OW16438   3.413   0.089   1.831
38200SOL    HW116439   3.411   0.047   1.745
38200SOL    HW216440   3.332   0.062   1.873
38201SOL     OW16441   3.275  14.201   1.900
38201SOL    HW116442   3.333  14.154   1.960
38201SOL    HW216443   3.241  14.133   1.841
38202SOL     OW16444  14.082  11.702   7.414
38202SOL    HW116445  14.069  11.679   7.322
38202SOL    HW216446  14.119  11.790   7.412
38203SOL     OW16447  14.704  14.426  14.549
38203SOL    HW116448  14.697  14.516  14.518
38203SOL    HW216449  14.753  14.381  14.480
38204SOL     OW16450  14.233   0.489  13.033
38204SOL    HW116451  14.281   0.406  13.032
38204SOL    HW216452  14.288   0.548  13.086
38205SOL     OW16453   1.191   7.404   7.678
38205SOL    HW116454   1.261   7.395   7.613
38205SOL    HW216455   1.115   7.432   7.627
38206SOL     OW16456   4.625   0.272   7.674
38206SOL    HW116457   4.546   0.268   7.620
38206SOL    HW216458   4.661   0.359   7.657
38207SOL     OW16459   0.312   2.202   7.949
38207SOL    HW116460   0.352   2.121   7.918
38207SOL    HW216461   0.218   2.189   7.934
38208SOL     OW16462   7.666   7.799   8.777
38208SOL    HW116463   7.655   7.764   8.689
38208SOL    HW216464   7.753   7.839   8.776
38209SOL     OW16465   7.494  12.822   4.487
38209SOL    HW116466   7.496  12.751   4.423
38209SOL    HW216467   7.501  12.779   4.572
38210SOL     OW16468   5.237   4.316  13.662
38210SOL    HW116469   5.179   4.253  13.620
38210SOL    HW216470   5.321   4.304  13.619
38211SOL     OW16471   8.616   0.391  11.921
38211SOL    HW116472   8.662   0.392  11.837
38211SOL    HW216473   8.554   0.464  11.915
38212SOL     OW16474  10.944   1.420   3.037
38212SOL    HW116475  10.893   1.498   3.016
38212SOL    HW216476  11.028   1.433   2.993
38213SOL     OW16477  13.610   5.829   3.614
38213SOL    HW116478  13.616   5.916   3.576
38213SOL    HW216479  13.527   5.829   3.661
38214SOL     OW16480   1.158  13.973  14.662
38214SOL    HW116481   1.185  14.033  14.593
38214SOL    HW216482   1.072  13.941  14.635
38215SOL     OW16483   8.451   2.627   3.947
38215SOL    HW116484   8.437   2.661   4.035
38215SOL    HW216485   8.375   2.657   3.897
38216SOL     OW16486   7.359  10.813   0.843
38216SOL    HW116487   7.428  10.877   0.824
38216SOL    HW216488   7.307  10.810   0.762
38217SOL     OW16489   9.562   6.076   9.200
38217SOL    HW116490   9.588   6.011   9.265
38217SOL    HW216491   9.472   6.052   9.176
38218SOL     OW16492   5.629   7.994   5.130
38218SOL    HW116493   5.705   7.998   5.073
38218SOL    HW216494   5.589   7.908   5.111
38219SOL     OW16495   4.358  12.422  14.560
38219SOL    HW116496   4.398  12.508  14.542
38219SOL    HW216497   4.344  12.384  14.473
38220SOL     OW16498  14.121   6.991  14.599
38220SOL    HW116499  14.057   7.048  14.642
38220SOL    HW216500  14.198   6.993  14.656
38221SOL     OW16501   0.694   7.785   9.410
38221SOL    HW116502   0.762   7.841   9.447
38221SOL    HW216503   0.615   7.807   9.459
38222SOL     OW16504  10.639   7.883   9.771
38222SOL    HW116505  10.643   7.977   9.789
38222SOL    HW216506  10.730   7.857   9.758
38223SOL     OW16507  13.301  11.965  11.788
38223SOL    HW116508  13.266  12.051  11.764
38223SOL    HW216509  13.295  11.962  11.883
38224SOL     OW16510   9.822  13.041   4.859
38224SOL    HW116511   9.863  13.110   4.807
38224SOL    HW216512   9.893  13.006   4.913
38225SOL     OW16513   0.711  10.051  14.014
38225SOL    HW116514   0.769  10.114  14.057
38225SOL    HW216515   0.735  10.057  13.921
38226SOL     OW16516   9.153  14.617  11.421
38226SOL    HW116517   9.163  14.647  11.331
38226SOL    HW216518   9.171  14.523  11.418
38227SOL     OW16519  13.626  12.191  10.301
38227SOL    HW116520  13.578  12.108  10.292
38227SOL    HW216521  13.618  12.232  10.215
38228SOL     OW16522  11.694   3.583   8.499
38228SOL    HW116523  11.651   3.515   8.447
38228SOL    HW216524  11.742   3.635   8.435
38229SOL     OW16525  10.228  11.955   5.258
38229SOL    HW116526  10.211  11.873   5.304
38229SOL    HW216527  10.154  12.011   5.281
38230SOL     OW16528  13.246   4.271   9.109
38230SOL    HW116529  13.168   4.216   9.105
38230SOL    HW216530  13.284   4.265   9.022
38231SOL     OW16531   9.691  11.260   5.080
38231SOL    HW116532   9.724  11.171   5.066
38231SOL    HW216533   9.601  11.248   5.108
38232SOL     OW16534  11.455  10.969   3.910
38232SOL    HW116535  11.540  10.928   3.927
38232SOL    HW216536  11.416  10.916   3.840
38233SOL     OW16537  11.343   9.587  14.814
38233SOL    HW116538  11.357   9.650  14.743
38233SOL    HW216539  11.351   9.639   0.017
38234SOL     OW16540   7.310   9.536  12.182
38234SOL    HW116541   7.360   9.513  12.261
38234SOL    HW216542   7.360   9.498  12.110
38235SOL     OW16543   5.746   6.232  12.864
38235SOL    HW116544   5.652   6.237  12.847
38235SOL    HW216545   5.783   6.304  12.813
38236SOL     OW16546  14.170   7.758   0.857
38236SOL    HW116547  14.163   7.813   0.778
38236SOL    HW216548  14.081   7.757   0.892
38237SOL     OW16549   6.065   7.171  11.526
38237SOL    HW116550   5.978   7.134  11.539
38237SOL    HW216551   6.109   7.109  11.467
38238SOL     OW16552   2.060  13.020   6.791
38238SOL    HW116553   2.031  12.931   6.770
38238SOL    HW216554   2.102  13.051   6.711
38239SOL     OW16555  10.904  13.690   2.097
38239SOL    HW116556  10.975  13.632   2.068
38239SOL    HW216557  10.934  13.725   2.180
38240SOL     OW16558  12.621   8.500   6.728
38240SOL    HW116559  12.546   8.442   6.718
38240SOL    HW216560  12.674   8.484   6.650
38241SOL     OW16561   1.309   4.052   4.991
38241SOL    HW116562   1.359   4.084   5.066
38241SOL    HW216563   1.234   4.006   5.029
38242SOL     OW16564   7.807   5.709   4.547
38242SOL    HW116565   7.894   5.722   4.585
38242SOL    HW216566   7.818   5.734   4.455
38243SOL     OW16567   7.997   5.785   4.077
38243SOL    HW116568   7.969   5.765   3.988
38243SOL    HW216569   8.008   5.699   4.119
38244SOL     OW16570  12.813   1.331   8.055
38244SOL    HW116571  12.776   1.410   8.015
38244SOL    HW216572  12.850   1.282   7.981
38245SOL     OW16573   3.742   4.759  10.782
38245SOL    HW116574   3.714   4.668  10.786
38245SOL    HW216575   3.669   4.806  10.742
38246SOL     OW16576   0.905   8.310  14.365
38246SOL    HW116577   0.946   8.314  14.451
38246SOL    HW216578   0.948   8.379  14.315
38247SOL     OW16579   5.419  10.561   8.768
38247SOL    HW116580   5.427  10.559   8.863
38247SOL    HW216581   5.327  10.580   8.751
38248SOL     OW16582  14.812  14.026   9.640
38248SOL    HW116583  14.830  13.939   9.605
38248SOL    HW216584   0.016  14.075   9.626
38249SOL     OW16585   9.708   0.433   2.675
38249SOL    HW116586   9.706   0.524   2.703
38249SOL    HW216587   9.778   0.430   2.609
38250SOL     OW16588   0.869  14.204   1.911
38250SOL    HW116589   0.962  14.225   1.919
38250SOL    HW216590   0.856  14.131   1.972
38251SOL     OW16591  14.383   6.862   9.842
38251SOL    HW116592  14.288   6.869   9.849
38251SOL    HW216593  14.405   6.917   9.767
38252SOL     OW16594  14.065   0.888   1.326
38252SOL    HW116595  14.115   0.815   1.289
38252SOL    HW216596  14.100   0.965   1.281
38253SOL     OW16597   2.769   2.261   4.651
38253SOL    HW116598   2.735   2.256   4.740
38253SOL    HW216599   2.797   2.172   4.630
38254SOL     OW16600   3.887  10.642   0.667
38254SOL    HW116601   3.920  10.593   0.592
38254SOL    HW216602   3.906  10.733   0.648
38255SOL     OW16603   0.975   1.796   8.930
38255SOL    HW116604   0.940   1.851   8.860
38255SOL    HW216605   1.067   1.821   8.936
38256SOL     OW16606  11.874   8.148  10.957
38256SOL    HW116607  11.950   8.091  10.970
38256SOL    HW216608  11.870   8.201  11.037
38257SOL     OW16609  12.284   5.325  10.219
38257SOL    HW116610  12.378   5.345  10.220
38257SOL    HW216611  12.260   5.319  10.311
38258SOL     OW16612   5.769   6.686  12.703
38258SOL    HW116613   5.849   6.696  12.652
38258SOL    HW216614   5.752   6.773  12.739
38259SOL     OW16615   6.515  13.714   0.328
38259SOL    HW116616   6.480  13.699   0.416
38259SOL    HW216617   6.518  13.809   0.320
38260SOL     OW16618   8.123  11.624   6.263
38260SOL    HW116619   8.167  11.648   6.182
38260SOL    HW216620   8.100  11.532   6.251
38261SOL     OW16621   6.570   2.276   0.763
38261SOL    HW116622   6.630   2.285   0.690
38261SOL    HW216623   6.622   2.300   0.840
38262SOL     OW16624   3.090  14.132   7.702
38262SOL    HW116625   3.068  14.064   7.765
38262SOL    HW216626   3.088  14.213   7.752
38263SOL     OW16627  12.112   8.758   3.746
38263SOL    HW116628  12.084   8.837   3.792
38263SOL    HW216629  12.104   8.688   3.812
38264SOL     OW16630   5.627  12.790  13.840
38264SOL    HW116631   5.605  12.837  13.921
38264SOL    HW216632   5.683  12.851  13.792
38265SOL     OW16633   5.858   4.641   7.957
38265SOL    HW116634   5.789   4.575   7.961
38265SOL    HW216635   5.822   4.717   8.003
38266SOL     OW16636   2.841  14.754   8.607
38266SOL    HW116637   2.781  14.780   8.676
38266SOL    HW216638   2.926  14.789   8.634
38267SOL     OW16639  14.355   7.668  14.406
38267SOL    HW116640  14.358   7.574  14.426
38267SOL    HW216641  14.442   7.700  14.429
38268SOL     OW16642   2.190  14.411  11.841
38268SOL    HW116643   2.187  14.470  11.917
38268SOL    HW216644   2.185  14.469  11.765
38269SOL     OW16645   8.107  13.242  13.271
38269SOL    HW116646   8.016  13.213  13.273
38269SOL    HW216647   8.131  13.250  13.363
38270SOL     OW16648   6.448   3.402   2.690
38270SOL    HW116649   6.466   3.325   2.636
38270SOL    HW216650   6.353   3.407   2.694
38271SOL     OW16651   8.789  13.893   2.650
38271SOL    HW116652   8.876  13.862   2.675
38271SOL    HW216653   8.789  13.986   2.674
38272SOL     OW16654   8.489   7.918   4.449
38272SOL    HW116655   8.562   7.954   4.399
38272SOL    HW216656   8.456   7.993   4.500
38273SOL     OW16657  10.772  13.215   5.549
38273SOL    HW116658  10.804  13.293   5.502
38273SOL    HW216659  10.714  13.250   5.616
38274SOL     OW16660   5.214  13.688   6.311
38274SOL    HW116661   5.256  13.682   6.225
38274SOL    HW216662   5.173  13.602   6.323
38275SOL     OW16663   9.165   2.665   1.331
38275SOL    HW116664   9.118   2.683   1.249
38275SOL    HW216665   9.102   2.685   1.400
38276SOL     OW16666  12.091   9.816   2.724
38276SOL    HW116667  12.111   9.726   2.751
38276SOL    HW216668  12.162   9.868   2.762
38277SOL     OW16669  10.229  13.716   3.021
38277SOL    HW116670  10.159  13.652   3.012
38277SOL    HW216671  10.206  13.767   3.099
38278SOL     OW16672  11.375   7.222  12.633
38278SOL    HW116673  11.352   7.314  12.647
38278SOL    HW216674  11.419   7.195  12.714
38279SOL     OW16675   0.029   2.566   7.617
38279SOL    HW116676   0.104   2.511   7.594
38279SOL    HW216677  14.837   2.503   7.642
38280SOL     OW16678   8.992   0.631  11.995
38280SOL    HW116679   9.039   0.565  12.046
38280SOL    HW216680   8.901   0.601  11.995
38281SOL     OW16681   7.305   7.293   6.077
38281SOL    HW116682   7.331   7.305   5.985
38281SOL    HW216683   7.363   7.351   6.126
38282SOL     OW16684   3.915  10.238  14.055
38282SOL    HW116685   3.982  10.204  13.995
38282SOL    HW216686   3.932  10.194  14.138
38283SOL     OW16687  11.538   7.921   8.593
38283SOL    HW116688  11.500   7.847   8.642
38283SOL    HW216689  11.526   7.897   8.501
38284SOL     OW16690   0.643   9.218   1.731
38284SOL    HW116691   0.733   9.203   1.762
38284SOL    HW216692   0.653   9.279   1.659
38285SOL     OW16693  11.179   9.333   5.880
38285SOL    HW116694  11.087   9.325   5.854
38285SOL    HW216695  11.211   9.410   5.835
38286SOL     OW16696  11.625   0.074   8.614
38286SOL    HW116697  11.577  14.868   8.604
38286SOL    HW216698  11.677   0.061   8.694
38287SOL     OW16699   9.187   5.118  13.522
38287SOL    HW116700   9.110   5.120  13.466
38287SOL    HW216701   9.168   5.050  13.587
38288SOL     OW16702   6.404  10.385   8.793
38288SOL    HW116703   6.468  10.405   8.862
38288SOL    HW216704   6.433  10.301   8.758
38289SOL     OW16705   7.174  12.415   6.279
38289SOL    HW116706   7.175  12.493   6.335
38289SOL    HW216707   7.195  12.343   6.337
38290SOL     OW16708  10.515   6.883   4.728
38290SOL    HW116709  10.522   6.944   4.655
38290SOL    HW216710  10.582   6.912   4.790
38291SOL     OW16711   8.790   2.443   9.003
38291SOL    HW116712   8.834   2.525   8.980
38291SOL    HW216713   8.698   2.459   8.982
38292SOL     OW16714  10.250   0.769   5.165
38292SOL    HW116715  10.263   0.674   5.168
38292SOL    HW216716  10.284   0.795   5.079
38293SOL     OW16717   0.684  12.789   9.154
38293SOL    HW116718   0.694  12.884   9.163
38293SOL    HW216719   0.716  12.753   9.236
38294SOL     OW16720   5.090  10.399   2.173
38294SOL    HW116721   5.116  10.469   2.233
38294SOL    HW216722   5.149  10.327   2.194
38295SOL     OW16723   9.968   6.307  12.276
38295SOL    HW116724   9.938   6.390  12.313
38295SOL    HW216725  10.038   6.279  12.335
38296SOL     OW16726   0.829   6.995   8.790
38296SOL    HW116727   0.863   6.945   8.864
38296SOL    HW216728   0.830   7.086   8.821
38297SOL     OW16729  13.872   2.740  11.516
38297SOL    HW116730  13.841   2.780  11.435
38297SOL    HW216731  13.964   2.766  11.523
38298SOL     OW16732   9.802   4.960   3.530
38298SOL    HW116733   9.712   4.947   3.562
38298SOL    HW216734   9.838   5.028   3.587
38299SOL     OW16735   3.274   9.855   5.588
38299SOL    HW116736   3.255   9.904   5.669
38299SOL    HW216737   3.357   9.811   5.606
38300SOL     OW16738  10.393   6.243  12.843
38300SOL    HW116739  10.444   6.313  12.803
38300SOL    HW216740  10.303   6.260  12.813
38301SOL     OW16741   2.759  12.280   9.076
38301SOL    HW116742   2.678  12.261   9.125
38301SOL    HW216743   2.807  12.340   9.133
38302SOL     OW16744   6.644   3.035  11.952
38302SOL    HW116745   6.598   3.090  11.888
38302SOL    HW216746   6.712   2.992  11.901
38303SOL     OW16747   2.831   7.125   3.976
38303SOL    HW116748   2.784   7.130   4.059
38303SOL    HW216749   2.915   7.169   3.994
38304SOL     OW16750   7.036   7.348   0.385
38304SOL    HW116751   7.070   7.266   0.349
38304SOL    HW216752   7.110   7.409   0.380
38305SOL     OW16753   4.175  11.249   9.897
38305SOL    HW116754   4.096  11.196   9.907
38305SOL    HW216755   4.214  11.218   9.816
38306SOL     OW16756  14.206   7.892   5.991
38306SOL    HW116757  14.141   7.869   6.057
38306SOL    HW216758  14.244   7.974   6.022
38307SOL     OW16759   0.437  12.066   6.519
38307SOL    HW116760   0.499  12.032   6.584
38307SOL    HW216761   0.380  12.125   6.568
38308SOL     OW16762   9.414   3.014   8.576
38308SOL    HW116763   9.381   3.064   8.651
38308SOL    HW216764   9.385   2.924   8.592
38309SOL     OW16765  11.727  10.817   7.147
38309SOL    HW116766  11.780  10.809   7.227
38309SOL    HW216767  11.649  10.765   7.165
38310SOL     OW16768  11.733   1.602   6.742
38310SOL    HW116769  11.810   1.571   6.788
38310SOL    HW216770  11.740   1.697   6.743
38311SOL     OW16771   8.921  12.012   7.000
38311SOL    HW116772   9.001  11.968   7.030
38311SOL    HW216773   8.882  11.951   6.938
38312SOL     OW16774  11.532   3.730   4.311
38312SOL    HW116775  11.520   3.825   4.311
38312SOL    HW216776  11.443   3.695   4.308
38313SOL     OW16777  11.829   1.109   2.246
38313SOL    HW116778  11.783   1.128   2.165
38313SOL    HW216779  11.854   1.196   2.279
38314SOL     OW16780   2.667   8.267   8.286
38314SOL    HW116781   2.758   8.287   8.310
38314SOL    HW216782   2.618   8.280   8.366
38315SOL     OW16783   8.289   3.610   9.184
38315SOL    HW116784   8.339   3.605   9.102
38315SOL    HW216785   8.197   3.604   9.156
38316SOL     OW16786   9.353   8.493   1.207
38316SOL    HW116787   9.413   8.470   1.279
38316SOL    HW216788   9.346   8.412   1.156
38317SOL     OW16789   4.542   8.147   3.867
38317SOL    HW116790   4.468   8.200   3.839
38317SOL    HW216791   4.535   8.067   3.816
38318SOL     OW16792   6.535  11.386   2.891
38318SOL    HW116793   6.617  11.434   2.903
38318SOL    HW216794   6.559  11.311   2.837
38319SOL     OW16795  11.098   5.249   9.731
38319SOL    HW116796  11.165   5.310   9.764
38319SOL    HW216797  11.149   5.180   9.688
38320SOL     OW16798   9.491  14.856  14.229
38320SOL    HW116799   9.546  14.872  14.153
38320SOL    HW216800   9.488   0.064  14.275
38321SOL     OW16801  11.898   5.878  11.272
38321SOL    HW116802  11.828   5.936  11.245
38321SOL    HW216803  11.927   5.835  11.192
38322SOL     OW16804  12.543  11.478   2.213
38322SOL    HW116805  12.576  11.390   2.192
38322SOL    HW216806  12.572  11.492   2.303
38323SOL     OW16807   8.268   0.933  12.075
38323SOL    HW116808   8.340   0.876  12.100
38323SOL    HW216809   8.287   0.957  11.984
38324SOL     OW16810  13.285   3.331  14.423
38324SOL    HW116811  13.228   3.309  14.496
38324SOL    HW216812  13.242   3.294  14.346
38325SOL     OW16813  12.559   3.356   0.111
38325SOL    HW116814  12.484   3.399   0.153
38325SOL    HW216815  12.621   3.341   0.182
38326SOL     OW16816  12.952  10.938   7.793
38326SOL    HW116817  12.858  10.938   7.812
38326SOL    HW216818  12.962  11.006   7.726
38327SOL     OW16819  11.961  14.865   6.487
38327SOL    HW116820  11.957   0.041   6.408
38327SOL    HW216821  12.016  14.790   6.463
38328SOL     OW16822   7.320   4.558   2.527
38328SOL    HW116823   7.262   4.617   2.574
38328SOL    HW216824   7.302   4.471   2.564
38329SOL     OW16825   2.741   3.292   5.728
38329SOL    HW116826   2.726   3.251   5.643
38329SOL    HW216827   2.663   3.344   5.744
38330SOL     OW16828   5.068   4.021   4.685
38330SOL    HW116829   5.150   4.052   4.646
38330SOL    HW216830   5.073   3.926   4.681
38331SOL     OW16831   0.803   4.443   4.235
38331SOL    HW116832   0.811   4.448   4.331
38331SOL    HW216833   0.770   4.355   4.218
38332SOL     OW16834  12.410   5.216  14.816
38332SOL    HW116835  12.492   5.243  14.856
38332SOL    HW216836  12.436   5.167  14.738
38333SOL     OW16837   0.146   7.813   5.945
38333SOL    HW116838   0.135   7.757   5.868
38333SOL    HW216839   0.203   7.763   6.003
38334SOL     OW16840   8.583   1.554   7.493
38334SOL    HW116841   8.634   1.629   7.459
38334SOL    HW216842   8.578   1.494   7.418
38335SOL     OW16843   2.378   0.933   3.493
38335SOL    HW116844   2.445   0.989   3.454
38335SOL    HW216845   2.316   0.917   3.422
38336SOL     OW16846  12.853  10.936  14.461
38336SOL    HW116847  12.910  11.005  14.494
38336SOL    HW216848  12.890  10.914  14.375
38337SOL     OW16849  14.392   5.415   7.765
38337SOL    HW116850  14.394   5.481   7.695
38337SOL    HW216851  14.300   5.389   7.770
38338SOL     OW16852  10.551   6.167   7.290
38338SOL    HW116853  10.590   6.138   7.372
38338SOL    HW216854  10.557   6.091   7.232
38339SOL     OW16855  12.592  14.758   8.758
38339SOL    HW116856  12.672  14.735   8.712
38339SOL    HW216857  12.610  14.736   8.850
38340SOL     OW16858  11.223   7.276   0.596
38340SOL    HW116859  11.150   7.247   0.540
38340SOL    HW216860  11.215   7.372   0.597
38341SOL     OW16861   3.354  10.701  13.149
38341SOL    HW116862   3.414  10.684  13.076
38341SOL    HW216863   3.279  10.745  13.109
38342SOL     OW16864   5.128  11.101   0.049
38342SOL    HW116865   5.036  11.075   0.044
38342SOL    HW216866   5.126  11.188   0.089
38343SOL     OW16867   2.752   9.049  13.537
38343SOL    HW116868   2.663   9.047  13.502
38343SOL    HW216869   2.772   8.957  13.556
38344SOL     OW16870   3.776  13.119  10.831
38344SOL    HW116871   3.865  13.131  10.863
38344SOL    HW216872   3.779  13.038  10.780
38345SOL     OW16873  10.617   5.576   0.423
38345SOL    HW116874  10.699   5.532   0.444
38345SOL    HW216875  10.556   5.505   0.405
38346SOL     OW16876   5.003   5.621   8.259
38346SOL    HW116877   4.909   5.602   8.258
38346SOL    HW216878   5.008   5.716   8.259
38347SOL     OW16879   1.952   7.891   5.653
38347SOL    HW116880   2.033   7.840   5.645
38347SOL    HW216881   1.954   7.924   5.743
38348SOL     OW16882   4.069   6.990   6.984
38348SOL    HW116883   4.046   6.967   6.894
38348SOL    HW216884   4.159   7.023   6.979
38349SOL     OW16885  13.683   8.141  14.498
38349SOL    HW116886  13.686   8.236  14.492
38349SOL    HW216887  13.591   8.119  14.492
38350SOL     OW16888  10.078   8.523   2.233
38350SOL    HW116889  10.070   8.618   2.222
38350SOL    HW216890  10.112   8.512   2.321
38351SOL     OW16891   3.194  10.124  13.382
38351SOL    HW116892   3.213  10.042  13.428
38351SOL    HW216893   3.170  10.096  13.293
38352SOL     OW16894   0.406  10.586   1.294
38352SOL    HW116895   0.498  10.558   1.296
38352SOL    HW216896   0.410  10.679   1.271
38353SOL     OW16897  11.023   1.082   8.207
38353SOL    HW116898  11.078   1.005   8.193
38353SOL    HW216899  10.940   1.060   8.163
38354SOL     OW16900   5.835   4.522   0.978
38354SOL    HW116901   5.831   4.609   1.016
38354SOL    HW216902   5.862   4.536   0.887
38355SOL     OW16903  10.128   4.071   7.180
38355SOL    HW116904  10.059   4.030   7.233
38355SOL    HW216905  10.153   4.148   7.230
38356SOL     OW16906   9.479   4.607  14.660
38356SOL    HW116907   9.462   4.515  14.641
38356SOL    HW216908   9.573   4.618  14.646
38357SOL     OW16909   7.461   3.431  14.773
38357SOL    HW116910   7.526   3.387  14.717
38357SOL    HW216911   7.433   3.507  14.722
38358SOL     OW16912   2.946  14.707   1.488
38358SOL    HW116913   2.978  14.765   1.558
38358SOL    HW216914   2.963  14.756   1.408
38359SOL     OW16915  12.797   5.583   9.553
38359SOL    HW116916  12.871   5.638   9.529
38359SOL    HW216917  12.764   5.621   9.634
38360SOL     OW16918  13.608  10.002   9.406
38360SOL    HW116919  13.592   9.912   9.434
38360SOL    HW216920  13.553  10.055   9.464
38361SOL     OW16921   7.367  10.551  13.752
38361SOL    HW116922   7.358  10.515  13.663
38361SOL    HW216923   7.321  10.489  13.808
38362SOL     OW16924   4.624   5.387  11.202
38362SOL    HW116925   4.582   5.408  11.285
38362SOL    HW216926   4.551   5.375  11.141
38363SOL     OW16927  13.889  14.242  13.118
38363SOL    HW116928  13.983  14.225  13.126
38363SOL    HW216929  13.869  14.298  13.194
38364SOL     OW16930  12.555   6.160  11.708
38364SOL    HW116931  12.580   6.242  11.666
38364SOL    HW216932  12.476   6.182  11.758
38365SOL     OW16933   2.991   3.480   6.434
38365SOL    HW116934   3.008   3.574   6.448
38365SOL    HW216935   3.077   3.439   6.440
38366SOL     OW16936  10.104   8.283  10.066
38366SOL    HW116937  10.085   8.237   9.984
38366SOL    HW216938  10.032   8.259  10.124
38367SOL     OW16939   0.934  14.575   0.292
38367SOL    HW116940   0.852  14.585   0.339
38367SOL    HW216941   0.945  14.657   0.244
38368SOL     OW16942   9.537   7.766  10.984
38368SOL    HW116943   9.538   7.702  11.055
38368SOL    HW216944   9.450   7.805  10.988
38369SOL     OW16945   2.440  14.263   4.153
38369SOL    HW116946   2.359  14.304   4.183
38369SOL    HW216947   2.413  14.207   4.080
38370SOL     OW16948  13.234  12.987   3.193
38370SOL    HW116949  13.284  12.971   3.112
38370SOL    HW216950  13.182  13.065   3.174
38371SOL     OW16951   7.595  13.841   6.594
38371SOL    HW116952   7.577  13.875   6.507
38371SOL    HW216953   7.684  13.871   6.613
38372SOL     OW16954   7.523   1.259   7.174
38372SOL    HW116955   7.601   1.310   7.153
38372SOL    HW216956   7.487   1.301   7.252
38373SOL     OW16957  11.704   3.078   5.852
38373SOL    HW116958  11.754   3.137   5.797
38373SOL    HW216959  11.769   3.030   5.903
38374SOL     OW16960  11.438   2.142   8.907
38374SOL    HW116961  11.439   2.114   8.815
38374SOL    HW216962  11.503   2.086   8.950
38375SOL     OW16963   5.282  10.467   8.042
38375SOL    HW116964   5.204  10.433   8.087
38375SOL    HW216965   5.248  10.527   7.977
38376SOL     OW16966  12.201   6.521  11.934
38376SOL    HW116967  12.113   6.557  11.948
38376SOL    HW216968  12.256   6.598  11.919
38377SOL     OW16969   7.796  12.927   5.189
38377SOL    HW116970   7.766  12.905   5.101
38377SOL    HW216971   7.891  12.936   5.181
38378SOL     OW16972  13.333   8.082   5.685
38378SOL    HW116973  13.418   8.062   5.646
38378SOL    HW216974  13.344   8.169   5.723
38379SOL     OW16975   7.834   6.379   7.142
38379SOL    HW116976   7.782   6.363   7.063
38379SOL    HW216977   7.779   6.435   7.195
38380SOL     OW16978  13.608  13.143   0.822
38380SOL    HW116979  13.670  13.205   0.860
38380SOL    HW216980  13.586  13.084   0.894
38381SOL     OW16981  14.686   2.504   5.845
38381SOL    HW116982  14.606   2.452   5.837
38381SOL    HW216983  14.677   2.571   5.778
38382SOL     OW16984   6.538   6.435   9.757
38382SOL    HW116985   6.472   6.503   9.743
38382SOL    HW216986   6.489   6.360   9.791
38383SOL     OW16987   7.636  10.626  10.138
38383SOL    HW116988   7.696  10.701  10.145
38383SOL    HW216989   7.579  10.633  10.214
38384SOL     OW16990   3.373  10.062   1.538
38384SOL    HW116991   3.300  10.112   1.501
38384SOL    HW216992   3.338   9.974   1.550
38385SOL     OW16993   1.477  12.400   9.719
38385SOL    HW116994   1.489  12.406   9.624
38385SOL    HW216995   1.529  12.472   9.754
38386SOL     OW16996   5.094  11.537   0.934
38386SOL    HW116997   5.097  11.468   0.869
38386SOL    HW216998   5.105  11.618   0.884
38387SOL     OW16999   9.450  11.231   3.721
38387SOL    HW117000   9.404  11.311   3.696
38387SOL    HW217001   9.471  11.242   3.813
38388SOL     OW17002   1.035   9.552   4.840
38388SOL    HW117003   0.977   9.590   4.906
38388SOL    HW217004   0.991   9.472   4.812
38389SOL     OW17005   2.027  13.751   0.754
38389SOL    HW117006   2.054  13.660   0.747
38389SOL    HW217007   2.079  13.796   0.687
38390SOL     OW17008   0.690   5.182  12.544
38390SOL    HW117009   0.677   5.104  12.490
38390SOL    HW217010   0.716   5.250  12.481
38391SOL     OW17011   1.394  14.489   9.791
38391SOL    HW117012   1.399  14.522   9.702
38391SOL    HW217013   1.477  14.444   9.805
38392SOL     OW17014   2.479   3.674   0.114
38392SOL    HW117015   2.452   3.765   0.100
38392SOL    HW217016   2.572   3.673   0.092
38393SOL     OW17017   3.098  13.566  13.990
38393SOL    HW117018   3.055  13.481  13.999
38393SOL    HW217019   3.162  13.553  13.921
38394SOL     OW17020  11.729   2.714   0.366
38394SOL    HW117021  11.730   2.766   0.286
38394SOL    HW217022  11.820   2.716   0.397
38395SOL     OW17023  12.409  10.955   7.837
38395SOL    HW117024  12.320  10.933   7.864
38395SOL    HW217025  12.398  11.010   7.760
38396SOL     OW17026   4.594   2.785   0.662
38396SOL    HW117027   4.523   2.845   0.638
38396SOL    HW217028   4.674   2.838   0.655
38397SOL     OW17029   4.645  12.470   2.813
38397SOL    HW117030   4.573  12.516   2.856
38397SOL    HW217031   4.697  12.433   2.885
38398SOL     OW17032   7.066   2.264   2.209
38398SOL    HW117033   7.077   2.326   2.138
38398SOL    HW217034   6.974   2.273   2.235
38399SOL     OW17035   4.112  14.685   9.918
38399SOL    HW117036   4.045  14.640   9.866
38399SOL    HW217037   4.098  14.778   9.900
38400SOL     OW17038   3.319   5.154  12.368
38400SOL    HW117039   3.292   5.201  12.289
38400SOL    HW217040   3.310   5.218  12.439
38401SOL     OW17041   9.666   7.563   8.604
38401SOL    HW117042   9.578   7.600   8.590
38401SOL    HW217043   9.725   7.633   8.576
38402SOL     OW17044   6.532   5.447  13.907
38402SOL    HW117045   6.582   5.503  13.848
38402SOL    HW217046   6.491   5.382  13.849
38403SOL     OW17047   3.534  11.504  12.949
38403SOL    HW117048   3.569  11.569  13.009
38403SOL    HW217049   3.446  11.485  12.982
38404SOL     OW17050  14.321   6.296   7.069
38404SOL    HW117051  14.265   6.219   7.067
38404SOL    HW217052  14.313   6.330   7.159
38405SOL     OW17053   9.742   0.962  10.076
38405SOL    HW117054   9.746   0.959   9.981
38405SOL    HW217055   9.653   0.992  10.096
38406SOL     OW17056  13.192  13.826   8.996
38406SOL    HW117057  13.242  13.744   9.002
38406SOL    HW217058  13.195  13.849   8.904
38407SOL     OW17059  10.031   5.579   4.322
38407SOL    HW117060  10.017   5.602   4.414
38407SOL    HW217061  10.044   5.484   4.323
38408SOL     OW17062   7.009  12.405   6.055
38408SOL    HW117063   7.062  12.419   6.134
38408SOL    HW217064   7.033  12.317   6.025
38409SOL     OW17065   6.348   5.774  10.041
38409SOL    HW117066   6.343   5.691   9.992
38409SOL    HW217067   6.420   5.822   9.999
38410SOL     OW17068   6.688  13.823   5.640
38410SOL    HW117069   6.741  13.765   5.586
38410SOL    HW217070   6.606  13.775   5.654
38411SOL     OW17071  13.197  13.616   8.196
38411SOL    HW117072  13.131  13.675   8.231
38411SOL    HW217073  13.148  13.539   8.168
38412SOL     OW17074   2.067  12.015  11.464
38412SOL    HW117075   2.061  11.920  11.454
38412SOL    HW217076   1.976  12.043  11.478
38413SOL     OW17077   4.867  11.312  10.186
38413SOL    HW117078   4.785  11.311  10.235
38413SOL    HW217079   4.933  11.334  10.251
38414SOL     OW17080   1.304   3.695   4.966
38414SOL    HW117081   1.300   3.714   5.060
38414SOL    HW217082   1.387   3.734   4.937
38415SOL     OW17083   7.671   0.749   9.154
38415SOL    HW117084   7.643   0.765   9.244
38415SOL    HW217085   7.594   0.710   9.112
38416SOL     OW17086  12.390   7.419  11.855
38416SOL    HW117087  12.423   7.390  11.770
38416SOL    HW217088  12.329   7.489  11.835
38417SOL     OW17089   7.297  13.845   2.046
38417SOL    HW117090   7.365  13.780   2.063
38417SOL    HW217091   7.306  13.864   1.952
38418SOL     OW17092  11.503   2.624   3.107
38418SOL    HW117093  11.598   2.632   3.115
38418SOL    HW217094  11.475   2.708   3.070
38419SOL     OW17095  12.954   3.893  12.092
38419SOL    HW117096  12.974   3.956  12.022
38419SOL    HW217097  13.039   3.855  12.113
38420SOL     OW17098   1.528   8.096  11.009
38420SOL    HW117099   1.505   8.178  10.967
38420SOL    HW217100   1.602   8.062  10.958
38421SOL     OW17101   6.405   5.026  13.306
38421SOL    HW117102   6.357   4.969  13.247
38421SOL    HW217103   6.413   5.109  13.259
38422SOL     OW17104   7.115   0.913   7.121
38422SOL    HW117105   7.203   0.951   7.130
38422SOL    HW217106   7.129   0.818   7.129
38423SOL     OW17107   2.685   1.177   5.650
38423SOL    HW117108   2.590   1.172   5.639
38423SOL    HW217109   2.720   1.163   5.562
38424SOL     OW17110   0.662  14.315   5.110
38424SOL    HW117111   0.632  14.405   5.104
38424SOL    HW217112   0.619  14.270   5.037
38425SOL     OW17113  13.968   4.101  10.512
38425SOL    HW117114  14.044   4.063  10.556
38425SOL    HW217115  13.980   4.195  10.519
38426SOL     OW17116  13.682   6.092   3.116
38426SOL    HW117117  13.616   6.065   3.052
38426SOL    HW217118  13.753   6.029   3.104
38427SOL     OW17119   4.827   2.571   3.017
38427SOL    HW117120   4.850   2.664   3.016
38427SOL    HW217121   4.808   2.549   2.926
38428SOL     OW17122  14.256   2.201   4.872
38428SOL    HW117123  14.214   2.116   4.882
38428SOL    HW217124  14.304   2.214   4.954
38429SOL     OW17125   9.707   4.788   9.761
38429SOL    HW117126   9.755   4.867   9.737
38429SOL    HW217127   9.741   4.720   9.704
38430SOL     OW17128   9.798   7.878   4.470
38430SOL    HW117129   9.752   7.821   4.532
38430SOL    HW217130   9.889   7.849   4.472
38431SOL     OW17131  12.449   2.291   6.139
38431SOL    HW117132  12.504   2.300   6.217
38431SOL    HW217133  12.375   2.237   6.168
38432SOL     OW17134   9.003   3.222  10.918
38432SOL    HW117135   8.942   3.188  10.983
38432SOL    HW217136   8.971   3.310  10.897
38433SOL     OW17137   4.852  11.498   9.196
38433SOL    HW117138   4.935  11.508   9.150
38433SOL    HW217139   4.861  11.552   9.274
38434SOL     OW17140   0.945   2.965  13.287
38434SOL    HW117141   0.889   2.938  13.360
38434SOL    HW217142   0.983   3.048  13.316
38435SOL     OW17143   5.816  14.374   0.112
38435SOL    HW117144   5.781  14.459   0.137
38435SOL    HW217145   5.767  14.311   0.165
38436SOL     OW17146   1.739   9.823   6.837
38436SOL    HW117147   1.784   9.906   6.824
38436SOL    HW217148   1.792   9.759   6.790
38437SOL     OW17149   5.951  14.464   4.953
38437SOL    HW117150   5.895  14.450   5.029
38437SOL    HW217151   5.931  14.552   4.923
38438SOL     OW17152   0.864   3.188  13.857
38438SOL    HW117153   0.936   3.160  13.915
38438SOL    HW217154   0.847   3.112  13.802
38439SOL     OW17155   4.717   9.703   7.306
38439SOL    HW117156   4.633   9.722   7.263
38439SOL    HW217157   4.772   9.669   7.236
38440SOL     OW17158  11.282  14.773   2.944
38440SOL    HW117159  11.320  14.691   2.913
38440SOL    HW217160  11.245  14.814   2.866
38441SOL     OW17161   2.741   3.565  13.914
38441SOL    HW117162   2.813   3.505  13.930
38441SOL    HW217163   2.738   3.622  13.991
38442SOL     OW17164   3.134  11.823   5.018
38442SOL    HW117165   3.219  11.846   5.056
38442SOL    HW217166   3.107  11.900   4.969
38443SOL     OW17167  13.634  11.151   7.328
38443SOL    HW117168  13.606  11.156   7.419
38443SOL    HW217169  13.554  11.162   7.278
38444SOL     OW17170   1.429   4.295   1.362
38444SOL    HW117171   1.484   4.330   1.432
38444SOL    HW217172   1.488   4.237   1.313
38445SOL     OW17173  10.665  10.235  10.558
38445SOL    HW117174  10.646  10.164  10.619
38445SOL    HW217175  10.606  10.306  10.584
38446SOL     OW17176  11.979  10.422   4.317
38446SOL    HW117177  12.055  10.479   4.306
38446SOL    HW217178  11.927  10.464   4.385
38447SOL     OW17179   4.715   7.729   0.848
38447SOL    HW117180   4.765   7.765   0.775
38447SOL    HW217181   4.631   7.704   0.809
38448SOL     OW17182   2.266   6.476   9.080
38448SOL    HW117183   2.278   6.551   9.023
38448SOL    HW217184   2.354   6.439   9.092
38449SOL     OW17185   9.000   9.750   5.380
38449SOL    HW117186   9.065   9.815   5.403
38449SOL    HW217187   8.972   9.713   5.463
38450SOL     OW17188   5.972  14.195   3.848
38450SOL    HW117189   5.954  14.207   3.941
38450SOL    HW217190   6.067  14.203   3.840
38451SOL     OW17191   5.732   2.476  13.935
38451SOL    HW117192   5.793   2.477  13.862
38451SOL    HW217193   5.665   2.412  13.911
38452SOL     OW17194   5.200   1.183   8.949
38452SOL    HW117195   5.161   1.256   8.996
38452SOL    HW217196   5.150   1.177   8.868
38453SOL     OW17197   9.897   6.864   6.635
38453SOL    HW117198   9.805   6.842   6.622
38453SOL    HW217199   9.924   6.814   6.712
38454SOL     OW17200  12.324   5.014  14.332
38454SOL    HW117201  12.333   5.007  14.237
38454SOL    HW217202  12.231   5.034  14.346
38455SOL     OW17203  13.167   1.966   7.290
38455SOL    HW117204  13.141   1.906   7.360
38455SOL    HW217205  13.245   1.926   7.251
38456SOL     OW17206   8.775  11.591   1.548
38456SOL    HW117207   8.707  11.524   1.549
38456SOL    HW217208   8.728  11.673   1.532
38457SOL     OW17209   7.335   3.553   5.640
38457SOL    HW117210   7.282   3.581   5.715
38457SOL    HW217211   7.419   3.527   5.679
38458SOL     OW17212   8.596  12.711   6.676
38458SOL    HW117213   8.618  12.804   6.673
38458SOL    HW217214   8.544  12.701   6.756
38459SOL     OW17215   1.608  13.495   1.341
38459SOL    HW117216   1.692  13.530   1.368
38459SOL    HW217217   1.628  13.411   1.300
38460SOL     OW17218   2.209   2.054   3.758
38460SOL    HW117219   2.277   1.990   3.777
38460SOL    HW217220   2.218   2.120   3.828
38461SOL     OW17221   3.049   0.595  14.557
38461SOL    HW117222   3.068   0.516  14.607
38461SOL    HW217223   2.957   0.586  14.532
38462SOL     OW17224   1.038  10.682   4.826
38462SOL    HW117225   0.966  10.645   4.878
38462SOL    HW217226   1.111  10.688   4.887
38463SOL     OW17227  14.643   1.713  14.277
38463SOL    HW117228  14.561   1.684  14.236
38463SOL    HW217229  14.690   1.757  14.207
38464SOL     OW17230  11.106   6.912   0.494
38464SOL    HW117231  11.060   6.996   0.501
38464SOL    HW217232  11.198   6.933   0.511
38465SOL     OW17233   0.609   3.992   2.805
38465SOL    HW117234   0.600   3.898   2.791
38465SOL    HW217235   0.618   4.028   2.717
38466SOL     OW17236   0.284   4.945  12.429
38466SOL    HW117237   0.246   4.950  12.516
38466SOL    HW217238   0.223   4.994  12.373
38467SOL     OW17239   1.669   4.666   6.256
38467SOL    HW117240   1.663   4.614   6.176
38467SOL    HW217241   1.705   4.751   6.227
38468SOL     OW17242   1.277  12.318  10.570
38468SOL    HW117243   1.367  12.341  10.546
38468SOL    HW217244   1.223  12.369  10.510
38469SOL     OW17245   3.833   9.742   6.380
38469SOL    HW117246   3.804   9.816   6.326
38469SOL    HW217247   3.921   9.767   6.408
38470SOL     OW17248   3.224   6.785   5.333
38470SOL    HW117249   3.168   6.742   5.268
38470SOL    HW217250   3.276   6.848   5.282
38471SOL     OW17251   7.109  14.409   2.067
38471SOL    HW117252   7.114  14.498   2.031
38471SOL    HW217253   7.015  14.394   2.080
38472SOL     OW17254   1.520  14.816   6.703
38472SOL    HW117255   1.499  14.782   6.615
38472SOL    HW217256   1.482  14.752   6.763
38473SOL     OW17257  14.855   9.729   3.227
38473SOL    HW117258   0.007   9.782   3.301
38473SOL    HW217259  14.840   9.792   3.156
38474SOL     OW17260   7.539   1.422  12.545
38474SOL    HW117261   7.480   1.474  12.491
38474SOL    HW217262   7.615   1.407  12.489
38475SOL     OW17263  10.616   9.260   8.310
38475SOL    HW117264  10.552   9.230   8.374
38475SOL    HW217265  10.668   9.183   8.289
38476SOL     OW17266   7.982   5.514   4.150
38476SOL    HW117267   7.889   5.519   4.128
38476SOL    HW217268   8.013   5.437   4.102
38477SOL     OW17269   5.605  10.650   3.145
38477SOL    HW117270   5.682  10.666   3.201
38477SOL    HW217271   5.636  10.669   3.056
38478SOL     OW17272   9.198  12.429   8.156
38478SOL    HW117273   9.115  12.384   8.143
38478SOL    HW217274   9.236  12.437   8.069
38479SOL     OW17275  11.689   4.247   4.614
38479SOL    HW117276  11.677   4.307   4.688
38479SOL    HW217277  11.656   4.296   4.538
38480SOL     OW17278  12.442  10.567   9.533
38480SOL    HW117279  12.383  10.612   9.473
38480SOL    HW217280  12.512  10.533   9.478
38481SOL     OW17281   1.439  14.832  11.918
38481SOL    HW117282   1.522  14.786  11.906
38481SOL    HW217283   1.414  14.860  11.830
38482SOL     OW17284  12.142   5.617   0.886
38482SOL    HW117285  12.214   5.587   0.942
38482SOL    HW217286  12.065   5.610   0.942
38483SOL     OW17287   5.933   2.566   1.593
38483SOL    HW117288   5.965   2.499   1.653
38483SOL    HW217289   6.002   2.576   1.528
38484SOL     OW17290   1.636   1.574  11.362
38484SOL    HW117291   1.547   1.545  11.381
38484SOL    HW217292   1.650   1.650  11.418
38485SOL     OW17293   7.713  14.510   1.612
38485SOL    HW117294   7.688  14.594   1.651
38485SOL    HW217295   7.758  14.463   1.682
38486SOL     OW17296  14.203  11.421  12.165
38486SOL    HW117297  14.294  11.415  12.135
38486SOL    HW217298  14.198  11.363  12.240
38487SOL     OW17299   5.243   2.410   4.136
38487SOL    HW117300   5.153   2.429   4.109
38487SOL    HW217301   5.243   2.425   4.230
38488SOL     OW17302   3.556   2.083   7.450
38488SOL    HW117303   3.621   2.037   7.397
38488SOL    HW217304   3.511   2.014   7.499
38489SOL     OW17305   8.935   8.072  12.472
38489SOL    HW117306   8.922   8.006  12.540
38489SOL    HW217307   8.929   8.024  12.390
38490SOL     OW17308   4.174  12.874   5.099
38490SOL    HW117309   4.098  12.868   5.041
38490SOL    HW217310   4.230  12.941   5.059
38491SOL     OW17311   3.727  13.436   7.393
38491SOL    HW117312   3.740  13.512   7.450
38491SOL    HW217313   3.756  13.361   7.445
38492SOL     OW17314   4.875   3.250  10.681
38492SOL    HW117315   4.809   3.311  10.713
38492SOL    HW217316   4.950   3.305  10.660
38493SOL     OW17317  11.806  14.335   2.497
38493SOL    HW117318  11.830  14.244   2.513
38493SOL    HW217319  11.888  14.383   2.507
38494SOL     OW17320   4.879   7.119   8.649
38494SOL    HW117321   4.937   7.174   8.701
38494SOL    HW217322   4.937   7.058   8.604
38495SOL     OW17323   2.178   7.779   6.804
38495SOL    HW117324   2.270   7.760   6.786
38495SOL    HW217325   2.142   7.802   6.719
38496SOL     OW17326   7.500  11.236   9.376
38496SOL    HW117327   7.477  11.143   9.384
38496SOL    HW217328   7.473  11.275   9.459
38497SOL     OW17329   4.206  11.424  14.796
38497SOL    HW117330   4.286  11.471  14.818
38497SOL    HW217331   4.149  11.436  14.871
38498SOL     OW17332   7.977   9.388   1.374
38498SOL    HW117333   7.966   9.328   1.448
38498SOL    HW217334   7.895   9.437   1.371
38499SOL     OW17335   9.719  10.955   0.581
38499SOL    HW117336   9.733  10.970   0.675
38499SOL    HW217337   9.781  10.886   0.558
38500SOL     OW17338  13.183   7.685   4.546
38500SOL    HW117339  13.141   7.709   4.629
38500SOL    HW217340  13.276   7.701   4.560
38501SOL     OW17341   2.518   2.656  10.684
38501SOL    HW117342   2.574   2.621  10.615
38501SOL    HW217343   2.562   2.738  10.710
38502SOL     OW17344   5.371  11.031   5.375
38502SOL    HW117345   5.385  11.024   5.280
38502SOL    HW217346   5.285  11.073   5.383
38503SOL     OW17347   7.818  13.607  13.879
38503SOL    HW117348   7.812  13.685  13.933
38503SOL    HW217349   7.868  13.545  13.932
38504SOL     OW17350   9.602   4.244  10.734
38504SOL    HW117351   9.661   4.169  10.731
38504SOL    HW217352   9.612   4.279  10.823
38505SOL     OW17353  14.688   3.734  13.796
38505SOL    HW117354  14.773   3.744  13.838
38505SOL    HW217355  14.631   3.797  13.841
38506SOL     OW17356  12.849   5.756   3.962
38506SOL    HW117357  12.847   5.682   4.022
38506SOL    HW217358  12.771   5.745   3.908
38507SOL     OW17359   3.673   2.488   9.454
38507SOL    HW117360   3.665   2.471   9.548
38507SOL    HW217361   3.591   2.456   9.417
38508SOL     OW17362   7.357   4.190  12.743
38508SOL    HW117363   7.447   4.176  12.712
38508SOL    HW217364   7.364   4.262  12.805
38509SOL     OW17365   3.950  12.995   7.255
38509SOL    HW117366   3.869  13.043   7.238
38509SOL    HW217367   4.019  13.053   7.223
38510SOL     OW17368  11.377   8.478  13.695
38510SOL    HW117369  11.446   8.413  13.714
38510SOL    HW217370  11.302   8.425  13.669
38511SOL     OW17371   7.705   0.416  14.064
38511SOL    HW117372   7.616   0.415  14.098
38511SOL    HW217373   7.726   0.508  14.053
38512SOL     OW17374   5.135  13.303   8.498
38512SOL    HW117375   5.128  13.267   8.409
38512SOL    HW217376   5.182  13.386   8.486
38513SOL     OW17377   0.050  13.109  12.769
38513SOL    HW117378  14.876  13.103  12.688
38513SOL    HW217379   0.054  13.203  12.787
38514SOL     OW17380  11.381  11.049   6.968
38514SOL    HW117381  11.402  11.014   7.054
38514SOL    HW217382  11.294  11.016   6.949
38515SOL     OW17383  13.467  11.589   2.930
38515SOL    HW117384  13.482  11.500   2.898
38515SOL    HW217385  13.451  11.579   3.024
38516SOL     OW17386   6.138   2.019   2.564
38516SOL    HW117387   6.144   2.072   2.484
38516SOL    HW217388   6.229   2.010   2.593
38517SOL     OW17389   8.249   5.533   3.919
38517SOL    HW117390   8.325   5.529   3.976
38517SOL    HW217391   8.285   5.528   3.830
38518SOL     OW17392  11.810  12.117  14.550
38518SOL    HW117393  11.722  12.080  14.548
38518SOL    HW217394  11.835  12.116  14.642
38519SOL     OW17395   0.068   4.007  10.332
38519SOL    HW117396   0.138   3.945  10.349
38519SOL    HW217397  14.865   3.967  10.369
38520SOL     OW17398  14.143  13.109  11.881
38520SOL    HW117399  14.219  13.078  11.929
38520SOL    HW217400  14.170  13.109  11.789
38521SOL     OW17401   1.629   6.976   5.564
38521SOL    HW117402   1.688   6.907   5.597
38521SOL    HW217403   1.678   7.057   5.578
38522SOL     OW17404   6.627   3.951   2.443
38522SOL    HW117405   6.700   3.922   2.389
38522SOL    HW217406   6.633   3.897   2.522
38523SOL     OW17407  13.488   9.234   7.692
38523SOL    HW117408  13.481   9.267   7.781
38523SOL    HW217409  13.460   9.143   7.697
38524SOL     OW17410   4.090   5.057   7.982
38524SOL    HW117411   4.095   5.060   8.077
38524SOL    HW217412   4.152   5.125   7.953
38525SOL     OW17413   8.387   0.753   3.158
38525SOL    HW117414   8.354   0.749   3.247
38525SOL    HW217415   8.359   0.671   3.118
38526SOL     OW17416   4.286  14.450   9.535
38526SOL    HW117417   4.282  14.424   9.443
38526SOL    HW217418   4.299  14.369   9.582
38527SOL     OW17419   3.709  12.607   3.834
38527SOL    HW117420   3.672  12.520   3.846
38527SOL    HW217421   3.730  12.611   3.741
38528SOL     OW17422   2.626  13.207   7.017
38528SOL    HW117423   2.578  13.275   7.064
38528SOL    HW217424   2.589  13.207   6.929
38529SOL     OW17425   9.022   6.553  14.481
38529SOL    HW117426   9.016   6.568  14.386
38529SOL    HW217427   9.107   6.512  14.494
38530SOL     OW17428   6.283  12.747   5.488
38530SOL    HW117429   6.369  12.731   5.451
38530SOL    HW217430   6.300  12.794   5.569
38531SOL     OW17431   7.694   9.834   2.741
38531SOL    HW117432   7.604   9.820   2.711
38531SOL    HW217433   7.708   9.767   2.808
38532SOL     OW17434   9.747   2.315   1.492
38532SOL    HW117435   9.770   2.356   1.576
38532SOL    HW217436   9.706   2.385   1.442
38533SOL     OW17437   3.296   8.924   6.944
38533SOL    HW117438   3.313   8.974   6.864
38533SOL    HW217439   3.351   8.846   6.935
38534SOL     OW17440  14.701  10.205   1.599
38534SOL    HW117441  14.707  10.121   1.646
38534SOL    HW217442  14.749  10.266   1.653
38535SOL     OW17443  12.393  13.516   2.499
38535SOL    HW117444  12.371  13.604   2.532
38535SOL    HW217445  12.345  13.457   2.557
38536SOL     OW17446  10.109   3.332  10.236
38536SOL    HW117447  10.130   3.376  10.153
38536SOL    HW217448  10.013   3.330  10.238
38537SOL     OW17449  12.676   8.876   3.453
38537SOL    HW117450  12.757   8.831   3.480
38537SOL    HW217451  12.671   8.861   3.359
38538SOL     OW17452   3.199   6.792   9.797
38538SOL    HW117453   3.251   6.737   9.739
38538SOL    HW217454   3.261   6.821   9.864
38539SOL     OW17455  11.186   8.604   0.662
38539SOL    HW117456  11.097   8.617   0.695
38539SOL    HW217457  11.235   8.572   0.738
38540SOL     OW17458  12.323   4.667   4.380
38540SOL    HW117459  12.315   4.599   4.447
38540SOL    HW217460  12.243   4.718   4.388
38541SOL     OW17461   5.498   4.046   0.462
38541SOL    HW117462   5.513   4.078   0.373
38541SOL    HW217463   5.419   4.091   0.491
38542SOL     OW17464   9.205   1.362  10.625
38542SOL    HW117465   9.257   1.439  10.644
38542SOL    HW217466   9.136   1.392  10.566
38543SOL     OW17467  13.817   6.619   8.210
38543SOL    HW117468  13.733   6.639   8.169
38543SOL    HW217469  13.862   6.562   8.148
38544SOL     OW17470  10.209   6.570  11.409
38544SOL    HW117471  10.211   6.533  11.320
38544SOL    HW217472  10.228   6.496  11.466
38545SOL     OW17473  14.211   3.442   9.939
38545SOL    HW117474  14.178   3.438   9.850
38545SOL    HW217475  14.246   3.530   9.948
38546SOL     OW17476  13.031  12.455   2.415
38546SOL    HW117477  12.974  12.515   2.463
38546SOL    HW217478  13.116  12.462   2.459
38547SOL     OW17479   5.487  12.362  10.330
38547SOL    HW117480   5.495  12.296  10.262
38547SOL    HW217481   5.577  12.379  10.358
38548SOL     OW17482  13.953   6.936  11.942
38548SOL    HW117483  13.991   6.915  12.027
38548SOL    HW217484  13.871   6.982  11.963
38549SOL     OW17485  11.120   4.160   8.271
38549SOL    HW117486  11.136   4.106   8.349
38549SOL    HW217487  11.075   4.102   8.211
38550SOL     OW17488   8.568  10.300  10.906
38550SOL    HW117489   8.578  10.287  10.812
38550SOL    HW217490   8.597  10.217  10.945
38551SOL     OW17491   9.801   1.983   8.619
38551SOL    HW117492   9.706   1.980   8.605
38551SOL    HW217493   9.821   2.076   8.627
38552SOL     OW17494   0.825  14.493   9.419
38552SOL    HW117495   0.775  14.479   9.500
38552SOL    HW217496   0.758  14.502   9.351
38553SOL     OW17497   3.190   2.812   6.926
38553SOL    HW117498   3.201   2.880   6.860
38553SOL    HW217499   3.117   2.759   6.894
38554SOL     OW17500   8.942   8.058   7.334
38554SOL    HW117501   8.991   8.047   7.416
38554SOL    HW217502   8.863   8.005   7.346
38555SOL     OW17503   9.243  13.365  11.616
38555SOL    HW117504   9.221  13.391  11.527
38555SOL    HW217505   9.171  13.399  11.670
38556SOL     OW17506   1.319   9.899   4.687
38556SOL    HW117507   1.306   9.973   4.628
38556SOL    HW217508   1.298   9.822   4.633
38557SOL     OW17509   4.576   6.444   8.925
38557SOL    HW117510   4.555   6.478   8.838
38557SOL    HW217511   4.543   6.511   8.985
38558SOL     OW17512  12.210  14.081   5.911
38558SOL    HW117513  12.276  14.124   5.857
38558SOL    HW217514  12.127  14.120   5.885
38559SOL     OW17515   6.600   9.082  13.164
38559SOL    HW117516   6.676   9.040  13.124
38559SOL    HW217517   6.526   9.055  13.109
38560SOL     OW17518   2.441   9.374   7.292
38560SOL    HW117519   2.396   9.298   7.329
38560SOL    HW217520   2.502   9.337   7.228
38561SOL     OW17521   4.540  12.967   1.135
38561SOL    HW117522   4.514  12.877   1.155
38561SOL    HW217523   4.635  12.967   1.147
38562SOL     OW17524  11.490  11.260   5.276
38562SOL    HW117525  11.458  11.350   5.280
38562SOL    HW217526  11.527  11.251   5.188
38563SOL     OW17527   8.393   3.268   2.942
38563SOL    HW117528   8.427   3.201   3.001
38563SOL    HW217529   8.368   3.340   2.999
38564SOL     OW17530   7.457  13.351   8.860
38564SOL    HW117531   7.543  13.393   8.859
38564SOL    HW217532   7.428  13.357   8.951
38565SOL     OW17533  13.113   4.879  13.151
38565SOL    HW117534  13.024   4.869  13.184
38565SOL    HW217535  13.103   4.886  13.056
38566SOL     OW17536   5.903   1.826   4.265
38566SOL    HW117537   5.833   1.873   4.220
38566SOL    HW217538   5.981   1.842   4.213
38567SOL     OW17539  10.840   4.108  10.656
38567SOL    HW117540  10.859   4.198  10.628
38567SOL    HW217541  10.877   4.101  10.744
38568SOL     OW17542  12.581   9.760  10.938
38568SOL    HW117543  12.505   9.730  10.987
38568SOL    HW217544  12.611   9.683  10.890
38569SOL     OW17545   8.482   4.904  13.392
38569SOL    HW117546   8.425   4.881  13.465
38569SOL    HW217547   8.503   4.996  13.406
38570SOL     OW17548   3.320   9.981  13.656
38570SOL    HW117549   3.395  10.034  13.627
38570SOL    HW217550   3.356   9.892  13.664
38571SOL     OW17551   5.074   4.617   9.812
38571SOL    HW117552   5.127   4.697   9.816
38571SOL    HW217553   5.090   4.582   9.724
38572SOL     OW17554   7.792   2.902   0.818
38572SOL    HW117555   7.738   2.925   0.894
38572SOL    HW217556   7.757   2.818   0.789
38573SOL     OW17557  13.598  13.070   8.633
38573SOL    HW117558  13.674  13.078   8.690
38573SOL    HW217559  13.555  13.156   8.637
38574SOL     OW17560   5.520  12.421   2.553
38574SOL    HW117561   5.549  12.346   2.501
38574SOL    HW217562   5.503  12.490   2.489
38575SOL     OW17563   9.113   8.678   5.064
38575SOL    HW117564   9.103   8.762   5.108
38575SOL    HW217565   9.132   8.700   4.973
38576SOL     OW17566  14.251   4.276  13.068
38576SOL    HW117567  14.209   4.361  13.081
38576SOL    HW217568  14.300   4.261  13.149
38577SOL     OW17569   5.806   8.011   0.709
38577SOL    HW117570   5.850   8.096   0.713
38577SOL    HW217571   5.731   8.021   0.768
38578SOL     OW17572   3.723   9.669  14.452
38578SOL    HW117573   3.651   9.617  14.416
38578SOL    HW217574   3.688   9.758  14.455
38579SOL     OW17575  12.175  11.289  13.981
38579SOL    HW117576  12.105  11.227  14.001
38579SOL    HW217577  12.185  11.341  14.061
38580SOL     OW17578  14.775   6.508   4.765
38580SOL    HW117579  14.756   6.535   4.675
38580SOL    HW217580  14.714   6.436   4.781
38581SOL     OW17581   5.653  11.395  14.830
38581SOL    HW117582   5.735  11.392   0.003
38581SOL    HW217583   5.598  11.328  14.870
38582SOL     OW17584   9.608   9.242   3.817
38582SOL    HW117585   9.582   9.150   3.808
38582SOL    HW217586   9.526   9.290   3.822
38583SOL     OW17587   3.458   5.418   2.889
38583SOL    HW117588   3.428   5.358   2.821
38583SOL    HW217589   3.548   5.440   2.864
38584SOL     OW17590   4.780   6.665  12.482
38584SOL    HW117591   4.814   6.702  12.563
38584SOL    HW217592   4.691   6.700  12.475
38585SOL     OW17593  13.273   9.505  10.240
38585SOL    HW117594  13.314   9.501  10.326
38585SOL    HW217595  13.346   9.512  10.179
38586SOL     OW17596   0.548   6.701  14.323
38586SOL    HW117597   0.513   6.622  14.364
38586SOL    HW217598   0.470   6.752  14.299
38587SOL     OW17599   3.391   3.940  13.032
38587SOL    HW117600   3.339   3.860  13.038
38587SOL    HW217601   3.461   3.919  12.969
38588SOL     OW17602   2.501   5.371   0.712
38588SOL    HW117603   2.569   5.305   0.728
38588SOL    HW217604   2.424   5.338   0.759
38589SOL     OW17605   5.848   5.198   2.796
38589SOL    HW117606   5.836   5.234   2.708
38589SOL    HW217607   5.942   5.186   2.803
38590SOL     OW17608  14.561  14.348  11.660
38590SOL    HW117609  14.533  14.340  11.569
38590SOL    HW217610  14.657  14.354  11.655
38591SOL     OW17611  13.258   7.160   8.012
38591SOL    HW117612  13.308   7.197   8.084
38591SOL    HW217613  13.168   7.156   8.044
38592SOL     OW17614   6.346   0.535   6.470
38592SOL    HW117615   6.284   0.594   6.513
38592SOL    HW217616   6.432   0.563   6.501
38593SOL     OW17617   8.852   7.161   5.651
38593SOL    HW117618   8.851   7.240   5.598
38593SOL    HW217619   8.799   7.183   5.728
38594SOL     OW17620   6.901   2.214   1.844
38594SOL    HW117621   6.968   2.146   1.846
38594SOL    HW217622   6.824   2.174   1.882
38595SOL     OW17623   7.683   9.396  12.602
38595SOL    HW117624   7.758   9.376  12.658
38595SOL    HW217625   7.649   9.310  12.576
38596SOL     OW17626   3.292   3.069   3.096
38596SOL    HW117627   3.356   3.058   3.166
38596SOL    HW217628   3.255   2.982   3.082
38597SOL     OW17629   4.113   7.863   5.449
38597SOL    HW117630   4.173   7.938   5.446
38597SOL    HW217631   4.137   7.810   5.373
38598SOL     OW17632  13.215   7.931   1.219
38598SOL    HW117633  13.129   7.931   1.176
38598SOL    HW217634  13.237   7.839   1.229
38599SOL     OW17635  12.134  13.212  12.569
38599SOL    HW117636  12.102  13.229  12.658
38599SOL    HW217637  12.089  13.276  12.514
38600SOL     OW17638   3.689   6.685  14.576
38600SOL    HW117639   3.715   6.646  14.492
38600SOL    HW217640   3.767   6.731  14.607
38601SOL     OW17641  11.258  10.588   6.232
38601SOL    HW117642  11.285  10.649   6.301
38601SOL    HW217643  11.276  10.502   6.268
38602SOL     OW17644  13.065   0.664  11.554
38602SOL    HW117645  13.106   0.683  11.469
38602SOL    HW217646  12.992   0.724  11.559
38603SOL     OW17647   2.933   8.857  12.891
38603SOL    HW117648   2.863   8.796  12.914
38603SOL    HW217649   2.896   8.944  12.904
38604SOL     OW17650   1.294  14.517   8.188
38604SOL    HW117651   1.356  14.579   8.149
38604SOL    HW217652   1.212  14.565   8.193
38605SOL     OW17653   0.471   2.479  11.208
38605SOL    HW117654   0.471   2.502  11.301
38605SOL    HW217655   0.518   2.552  11.166
38606SOL     OW17656   7.956  11.488  14.546
38606SOL    HW117657   8.011  11.564  14.527
38606SOL    HW217658   7.978  11.425  14.478
38607SOL     OW17659  14.578  12.261  11.700
38607SOL    HW117660  14.542  12.179  11.732
38607SOL    HW217661  14.536  12.329  11.752
38608SOL     OW17662   0.072   2.409   5.776
38608SOL    HW117663   0.101   2.492   5.737
38608SOL    HW217664  14.862   2.428   5.811
38609SOL     OW17665   2.121   1.399   8.504
38609SOL    HW117666   2.169   1.404   8.421
38609SOL    HW217667   2.154   1.472   8.556
38610SOL     OW17668   7.340   0.017   9.146
38610SOL    HW117669   7.384  14.832   9.205
38610SOL    HW217670   7.402   0.029   9.074
38611SOL     OW17671   7.052   2.050  14.465
38611SOL    HW117672   7.131   2.104  14.457
38611SOL    HW217673   7.039   2.040  14.559
38612SOL     OW17674   9.145  11.158  13.125
38612SOL    HW117675   9.101  11.244  13.128
38612SOL    HW217676   9.201  11.157  13.203
38613SOL     OW17677   6.060   6.452  10.145
38613SOL    HW117678   6.009   6.484  10.219
38613SOL    HW217679   5.998   6.448  10.072
38614SOL     OW17680  13.928   9.345   6.936
38614SOL    HW117681  14.003   9.300   6.896
38614SOL    HW217682  13.913   9.420   6.879
38615SOL     OW17683  11.700   2.816  13.371
38615SOL    HW117684  11.628   2.863  13.414
38615SOL    HW217685  11.718   2.866  13.292
38616SOL     OW17686   9.808   2.402   1.925
38616SOL    HW117687   9.760   2.395   1.842
38616SOL    HW217688   9.821   2.311   1.953
38617SOL     OW17689   7.706   7.716   3.570
38617SOL    HW117690   7.721   7.809   3.555
38617SOL    HW217691   7.784   7.686   3.616
38618SOL     OW17692   8.302  11.867   0.063
38618SOL    HW117693   8.351  11.861   0.145
38618SOL    HW217694   8.214  11.893   0.091
38619SOL     OW17695   6.072   0.213   0.803
38619SOL    HW117696   6.018   0.232   0.880
38619SOL    HW217697   6.127   0.291   0.793
38620SOL     OW17698   2.613  14.267   9.526
38620SOL    HW117699   2.679  14.204   9.497
38620SOL    HW217700   2.533  14.214   9.537
38621SOL     OW17701   3.908   3.045   7.902
38621SOL    HW117702   3.923   2.974   7.840
38621SOL    HW217703   3.891   3.122   7.847
38622SOL     OW17704   4.368  14.023  11.200
38622SOL    HW117705   4.366  13.940  11.152
38622SOL    HW217706   4.415  14.002  11.281
38623SOL     OW17707   3.876  13.837   4.259
38623SOL    HW117708   3.926  13.919   4.255
38623SOL    HW217709   3.896  13.800   4.344
38624SOL     OW17710  10.117  13.075   0.800
38624SOL    HW117711  10.052  13.124   0.749
38624SOL    HW217712  10.185  13.053   0.736
38625SOL     OW17713   0.586   7.708  10.165
38625SOL    HW117714   0.615   7.667  10.084
38625SOL    HW217715   0.667   7.735  10.208
38626SOL     OW17716  14.014  11.628  14.697
38626SOL    HW117717  14.103  11.637  14.660
38626SOL    HW217718  13.974  11.714  14.685
38627SOL     OW17719  10.211   5.625   1.314
38627SOL    HW117720  10.291   5.573   1.325
38627SOL    HW217721  10.185   5.648   1.403
38628SOL     OW17722  13.988   3.236  11.042
38628SOL    HW117723  13.981   3.192  10.957
38628SOL    HW217724  14.081   3.232  11.064
38629SOL     OW17725   4.558   6.076   2.020
38629SOL    HW117726   4.569   6.080   1.925
38629SOL    HW217727   4.635   6.121   2.054
38630SOL     OW17728   0.756  14.004   8.067
38630SOL    HW117729   0.737  14.006   8.161
38630SOL    HW217730   0.686  13.951   8.030
38631SOL     OW17731  11.578   2.454   1.953
38631SOL    HW117732  11.650   2.516   1.939
38631SOL    HW217733  11.590   2.388   1.885
38632SOL     OW17734   0.644   9.319  13.661
38632SOL    HW117735   0.675   9.385  13.725
38632SOL    HW217736   0.685   9.237  13.690
38633SOL     OW17737  11.304   1.515  12.500
38633SOL    HW117738  11.267   1.458  12.567
38633SOL    HW217739  11.380   1.555  12.542
38634SOL     OW17740  11.927   5.198   5.427
38634SOL    HW117741  11.981   5.185   5.505
38634SOL    HW217742  11.846   5.237   5.459
38635SOL     OW17743  12.230   1.218   8.314
38635SOL    HW117744  12.294   1.160   8.273
38635SOL    HW217745  12.147   1.173   8.304
38636SOL     OW17746   5.723   2.465   3.560
38636SOL    HW117747   5.695   2.383   3.602
38636SOL    HW217748   5.723   2.445   3.466
38637SOL     OW17749   4.917   7.554   0.968
38637SOL    HW117750   4.870   7.637   0.958
38637SOL    HW217751   5.009   7.579   0.971
38638SOL     OW17752  12.079   2.696   1.478
38638SOL    HW117753  12.081   2.600   1.475
38638SOL    HW217754  12.061   2.717   1.570
38639SOL     OW17755   1.644   4.590   4.214
38639SOL    HW117756   1.617   4.499   4.203
38639SOL    HW217757   1.625   4.610   4.306
38640SOL     OW17758   3.113   7.689  10.639
38640SOL    HW117759   3.193   7.707  10.590
38640SOL    HW217760   3.086   7.774  10.673
38641SOL     OW17761   8.036   6.524   2.344
38641SOL    HW117762   8.034   6.584   2.418
38641SOL    HW217763   7.953   6.538   2.299
38642SOL     OW17764  14.631   8.952  14.659
38642SOL    HW117765  14.563   8.890  14.635
38642SOL    HW217766  14.595   9.038  14.636
38643SOL     OW17767  13.017   6.970  14.824
38643SOL    HW117768  12.964   7.009  14.755
38643SOL    HW217769  13.107   6.976  14.792
38644SOL     OW17770   1.366   1.367   6.715
38644SOL    HW117771   1.287   1.322   6.746
38644SOL    HW217772   1.418   1.381   6.794
38645SOL     OW17773   0.515  13.407   1.423
38645SOL    HW117774   0.558  13.492   1.431
38645SOL    HW217775   0.435  13.416   1.474
38646SOL     OW17776   6.651  10.023   0.244
38646SOL    HW117777   6.673  10.089   0.180
38646SOL    HW217778   6.729  10.016   0.300
38647SOL     OW17779  11.588  14.163  13.163
38647SOL    HW117780  11.552  14.092  13.217
38647SOL    HW217781  11.515  14.189  13.107
38648SOL     OW17782   9.890  11.103  10.843
38648SOL    HW117783   9.927  11.189  10.865
38648SOL    HW217784   9.962  11.057  10.800
38649SOL     OW17785  12.617   8.963  12.567
38649SOL    HW117786  12.662   8.903  12.508
38649SOL    HW217787  12.637   8.930  12.655
38650SOL     OW17788   5.694  11.248  11.814
38650SOL    HW117789   5.748  11.271  11.739
38650SOL    HW217790   5.750  11.193  11.869
38651SOL     OW17791   3.203  12.938   1.839
38651SOL    HW117792   3.157  12.929   1.756
38651SOL    HW217793   3.244  13.024   1.835
38652SOL     OW17794  11.947   7.822   8.740
38652SOL    HW117795  11.924   7.798   8.651
38652SOL    HW217796  11.943   7.741   8.790
38653SOL     OW17797   1.166   3.244   4.875
38653SOL    HW117798   1.259   3.223   4.866
38653SOL    HW217799   1.164   3.338   4.891
38654SOL     OW17800   2.501   2.106   1.709
38654SOL    HW117801   2.595   2.088   1.705
38654SOL    HW217802   2.459   2.020   1.694
38655SOL     OW17803   0.260   4.856   5.545
38655SOL    HW117804   0.344   4.870   5.502
38655SOL    HW217805   0.231   4.771   5.512
38656SOL     OW17806  12.093   1.972  13.067
38656SOL    HW117807  12.007   2.013  13.063
38656SOL    HW217808  12.140   2.007  12.992
38657SOL     OW17809  11.659   1.461  10.751
38657SOL    HW117810  11.738   1.502  10.785
38657SOL    HW217811  11.600   1.455  10.827
38658SOL     OW17812   5.829   0.503   6.932
38658SOL    HW117813   5.860   0.525   6.844
38658SOL    HW217814   5.746   0.551   6.940
38659SOL     OW17815   8.183   8.948   2.390
38659SOL    HW117816   8.140   8.871   2.353
38659SOL    HW217817   8.247   8.974   2.323
38660SOL     OW17818  11.373  11.486   4.439
38660SOL    HW117819  11.314  11.485   4.515
38660SOL    HW217820  11.317  11.515   4.367
38661SOL     OW17821  10.025   7.254   0.834
38661SOL    HW117822  10.067   7.170   0.852
38661SOL    HW217823  10.096   7.318   0.837
38662SOL     OW17824   7.569   8.386  13.437
38662SOL    HW117825   7.660   8.360  13.428
38662SOL    HW217826   7.531   8.321  13.497
38663SOL     OW17827  14.850  13.761   5.177
38663SOL    HW117828  14.832  13.730   5.089
38663SOL    HW217829   0.024  13.842   5.164
38664SOL     OW17830   0.798   9.554   9.752
38664SOL    HW117831   0.709   9.588   9.757
38664SOL    HW217832   0.838   9.578   9.836
38665SOL     OW17833  12.413   0.275   4.337
38665SOL    HW117834  12.319   0.258   4.343
38665SOL    HW217835  12.451   0.225   4.409
38666SOL     OW17836   8.366   9.694   2.877
38666SOL    HW117837   8.356   9.774   2.826
38666SOL    HW217838   8.289   9.692   2.934
38667SOL     OW17839   7.838   6.621   2.123
38667SOL    HW117840   7.782   6.696   2.101
38667SOL    HW217841   7.874   6.592   2.039
38668SOL     OW17842   1.558   1.027   0.399
38668SOL    HW117843   1.539   1.103   0.453
38668SOL    HW217844   1.653   1.028   0.389
38669SOL     OW17845   0.740   1.322   3.486
38669SOL    HW117846   0.796   1.302   3.411
38669SOL    HW217847   0.777   1.402   3.524
38670SOL     OW17848   6.574   9.450   2.223
38670SOL    HW117849   6.628   9.454   2.303
38670SOL    HW217850   6.537   9.538   2.215
38671SOL     OW17851  10.435   0.200  11.828
38671SOL    HW117852  10.507   0.139  11.811
38671SOL    HW217853  10.477   0.285  11.840
38672SOL     OW17854   9.125   2.706   6.764
38672SOL    HW117855   9.158   2.747   6.684
38672SOL    HW217856   9.176   2.625   6.772
38673SOL     OW17857   5.109   5.985   2.196
38673SOL    HW117858   5.098   5.890   2.190
38673SOL    HW217859   5.104   6.015   2.105
38674SOL     OW17860  13.016  10.849  14.243
38674SOL    HW117861  13.005  10.907  14.168
38674SOL    HW217862  13.110  10.843  14.256
38675SOL     OW17863   2.863   6.196  13.574
38675SOL    HW117864   2.769   6.181  13.557
38675SOL    HW217865   2.908   6.136  13.514
38676SOL     OW17866   1.916  10.849   3.587
38676SOL    HW117867   1.983  10.787   3.613
38676SOL    HW217868   1.834  10.801   3.595
38677SOL     OW17869  10.619  11.821   2.043
38677SOL    HW117870  10.691  11.779   2.090
38677SOL    HW217871  10.654  11.906   2.015
38678SOL     OW17872  13.739  10.312   4.098
38678SOL    HW117873  13.813  10.346   4.149
38678SOL    HW217874  13.743  10.217   4.113
38679SOL     OW17875  13.583   0.490   0.565
38679SOL    HW117876  13.493   0.470   0.591
38679SOL    HW217877  13.575   0.559   0.500
38680SOL     OW17878   6.357   1.511   5.243
38680SOL    HW117879   6.416   1.466   5.303
38680SOL    HW217880   6.330   1.590   5.290
38681SOL     OW17881  10.295   0.370   9.507
38681SOL    HW117882  10.309   0.350   9.599
38681SOL    HW217883  10.382   0.389   9.473
38682SOL     OW17884  10.126   3.356   4.085
38682SOL    HW117885  10.058   3.364   4.152
38682SOL    HW217886  10.190   3.424   4.108
38683SOL     OW17887   0.302  12.898   7.923
38683SOL    HW117888   0.315  12.805   7.945
38683SOL    HW217889   0.368  12.916   7.857
38684SOL     OW17890   2.626  13.055   6.289
38684SOL    HW117891   2.615  12.995   6.363
38684SOL    HW217892   2.671  13.131   6.327
38685SOL     OW17893   6.912  10.144   5.449
38685SOL    HW117894   7.000  10.138   5.485
38685SOL    HW217895   6.885  10.234   5.468
38686SOL     OW17896  10.013  11.142   8.510
38686SOL    HW117897   9.937  11.200   8.509
38686SOL    HW217898   9.977  11.055   8.495
38687SOL     OW17899   4.526   5.848   4.358
38687SOL    HW117900   4.539   5.753   4.358
38687SOL    HW217901   4.459   5.863   4.425
38688SOL     OW17902   5.557   2.937   2.637
38688SOL    HW117903   5.475   2.985   2.650
38688SOL    HW217904   5.625   3.004   2.637
38689SOL     OW17905   6.069   1.507   9.302
38689SOL    HW117906   6.095   1.442   9.367
38689SOL    HW217907   6.067   1.458   9.219
38690SOL     OW17908  12.209   8.682   9.320
38690SOL    HW117909  12.148   8.613   9.348
38690SOL    HW217910  12.156   8.741   9.266
38691SOL     OW17911   1.189   0.516  13.269
38691SOL    HW117912   1.149   0.554  13.348
38691SOL    HW217913   1.176   0.422  13.278
38692SOL     OW17914  11.313   4.738   4.241
38692SOL    HW117915  11.341   4.698   4.323
38692SOL    HW217916  11.390   4.784   4.209
38693SOL     OW17917  12.429   4.105   3.466
38693SOL    HW117918  12.499   4.041   3.451
38693SOL    HW217919  12.474   4.182   3.500
38694SOL     OW17920   2.246   9.524   1.228
38694SOL    HW117921   2.274   9.524   1.319
38694SOL    HW217922   2.289   9.448   1.190
38695SOL     OW17923   3.087  12.022   4.856
38695SOL    HW117924   3.171  12.065   4.837
38695SOL    HW217925   3.024  12.094   4.862
38696SOL     OW17926  11.619   4.613  11.758
38696SOL    HW117927  11.709   4.628  11.788
38696SOL    HW217928  11.573   4.694  11.777
38697SOL     OW17929  10.689  10.223   7.102
38697SOL    HW117930  10.780  10.250   7.115
38697SOL    HW217931  10.647  10.299   7.062
38698SOL     OW17932   2.465  11.077  10.418
38698SOL    HW117933   2.420  11.111  10.495
38698SOL    HW217934   2.399  11.078  10.349
38699SOL     OW17935   9.996   5.898   5.328
38699SOL    HW117936  10.012   5.805   5.345
38699SOL    HW217937   9.976   5.902   5.235
38700SOL     OW17938  13.423  14.367   4.840
38700SOL    HW117939  13.518  14.381   4.838
38700SOL    HW217940  13.398  14.361   4.748
38701SOL     OW17941  14.086   1.164   5.496
38701SOL    HW117942  14.038   1.103   5.440
38701SOL    HW217943  14.048   1.250   5.476
38702SOL     OW17944   4.670   4.898  11.837
38702SOL    HW117945   4.748   4.858  11.877
38702SOL    HW217946   4.646   4.838  11.766
38703SOL     OW17947   4.546  11.837   3.944
38703SOL    HW117948   4.468  11.781   3.937
38703SOL    HW217949   4.543  11.892   3.866
38704SOL     OW17950   2.156   1.860   9.337
38704SOL    HW117951   2.138   1.953   9.344
38704SOL    HW217952   2.070   1.821   9.318
38705SOL     OW17953   9.843   5.174   1.488
38705SOL    HW117954   9.893   5.254   1.508
38705SOL    HW217955   9.902   5.122   1.433
38706SOL     OW17956  10.393   4.880   9.204
38706SOL    HW117957  10.361   4.793   9.227
38706SOL    HW217958  10.353   4.938   9.268
38707SOL     OW17959   3.783   3.351  12.465
38707SOL    HW117960   3.714   3.413  12.441
38707SOL    HW217961   3.833   3.339  12.384
38708SOL     OW17962   0.801   2.442  11.064
38708SOL    HW117963   0.872   2.504  11.049
38708SOL    HW217964   0.781   2.450  11.158
38709SOL     OW17965   3.969  14.283   9.109
38709SOL    HW117966   4.007  14.220   9.171
38709SOL    HW217967   4.015  14.365   9.128
38710SOL     OW17968   1.988   2.696  11.343
38710SOL    HW117969   1.977   2.671  11.251
38710SOL    HW217970   1.945   2.626  11.392
38711SOL     OW17971  14.861   4.178   9.101
38711SOL    HW117972  14.820   4.142   9.023
38711SOL    HW217973  14.789   4.190   9.163
38712SOL     OW17974   9.986   6.714   3.002
38712SOL    HW117975  10.070   6.729   3.045
38712SOL    HW217976   9.955   6.802   2.978
38713SOL     OW17977   0.389   8.403  13.699
38713SOL    HW117978   0.367   8.354  13.620
38713SOL    HW217979   0.305   8.422  13.740
38714SOL     OW17980   4.228  11.387   9.534
38714SOL    HW117981   4.280  11.467   9.537
38714SOL    HW217982   4.160  11.399   9.600
38715SOL     OW17983   5.103   6.575  12.199
38715SOL    HW117984   5.137   6.656  12.237
38715SOL    HW217985   5.011   6.573  12.226
38716SOL     OW17986  14.082   4.799   1.911
38716SOL    HW117987  14.041   4.793   1.997
38716SOL    HW217988  14.019   4.847   1.858
38717SOL     OW17989  14.603   2.597   6.134
38717SOL    HW117990  14.525   2.619   6.083
38717SOL    HW217991  14.676   2.622   6.078
38718SOL     OW17992   5.178  12.281  14.539
38718SOL    HW117993   5.127  12.339  14.595
38718SOL    HW217994   5.257  12.260  14.589
38719SOL     OW17995   9.702   0.343  11.995
38719SOL    HW117996   9.794   0.325  12.015
38719SOL    HW217997   9.688   0.304  11.909
38720SOL     OW17998   8.962  11.031   9.877
38720SOL    HW117999   8.885  11.058   9.827
38720SOL    HW218000   8.960  11.086   9.956
38721SOL     OW18001  12.029   8.111   1.145
38721SOL    HW118002  11.994   8.177   1.204
38721SOL    HW218003  12.096   8.157   1.094
38722SOL     OW18004   0.786  10.773   1.344
38722SOL    HW118005   0.766  10.851   1.397
38722SOL    HW218006   0.729  10.781   1.268
38723SOL     OW18007  13.617   5.081   9.124
38723SOL    HW118008  13.591   5.075   9.031
38723SOL    HW218009  13.682   5.151   9.126
38724SOL     OW18010  12.243   5.443   1.085
38724SOL    HW118011  12.159   5.396   1.090
38724SOL    HW218012  12.309   5.374   1.082
38725SOL     OW18013   0.562  13.128  10.313
38725SOL    HW118014   0.607  13.212  10.305
38725SOL    HW218015   0.530  13.127  10.403
38726SOL     OW18016   4.318   3.864   3.775
38726SOL    HW118017   4.360   3.789   3.817
38726SOL    HW218018   4.319   3.843   3.682
38727SOL     OW18019  13.262   6.414   0.092
38727SOL    HW118020  13.204   6.377   0.160
38727SOL    HW218021  13.316   6.340   0.064
38728SOL     OW18022  13.976   2.152   1.535
38728SOL    HW118023  13.997   2.244   1.551
38728SOL    HW218024  14.054   2.104   1.562
38729SOL     OW18025   0.824   9.773  13.669
38729SOL    HW118026   0.895   9.837  13.670
38729SOL    HW218027   0.744   9.826  13.668
38730SOL     OW18028  11.193  14.447   9.153
38730SOL    HW118029  11.115  14.466   9.206
38730SOL    HW218030  11.263  14.497   9.194
38731SOL     OW18031  13.407   9.851  13.000
38731SOL    HW118032  13.347   9.920  13.029
38731SOL    HW218033  13.449   9.821  13.080
38732SOL     OW18034   4.619  10.131   7.042
38732SOL    HW118035   4.714  10.137   7.040
38732SOL    HW218036   4.599  10.082   7.121
38733SOL     OW18037  12.206   4.467  13.544
38733SOL    HW118038  12.149   4.448  13.470
38733SOL    HW218039  12.147   4.469  13.620
38734SOL     OW18040   5.741   6.188   4.975
38734SOL    HW118041   5.672   6.231   4.925
38734SOL    HW218042   5.701   6.107   5.007
38735SOL     OW18043   8.765  10.026   6.943
38735SOL    HW118044   8.740  10.062   6.858
38735SOL    HW218045   8.684   9.992   6.980
38736SOL     OW18046   5.996   2.547  14.490
38736SOL    HW118047   5.964   2.531  14.401
38736SOL    HW218048   5.938   2.495  14.546
38737SOL     OW18049  12.446   8.181  14.068
38737SOL    HW118050  12.502   8.203  13.994
38737SOL    HW218051  12.486   8.226  14.143
38738SOL     OW18052   6.649   2.103   2.752
38738SOL    HW118053   6.736   2.111   2.713
38738SOL    HW218054   6.654   2.153   2.833
38739SOL     OW18055   2.063   8.454   7.495
38739SOL    HW118056   2.153   8.424   7.484
38739SOL    HW218057   2.054   8.469   7.589
38740SOL     OW18058   1.135   0.493   6.349
38740SOL    HW118059   1.215   0.440   6.350
38740SOL    HW218060   1.065   0.430   6.330
38741SOL     OW18061  12.250  14.809   6.959
38741SOL    HW118062  12.293  14.798   7.044
38741SOL    HW218063  12.293  14.746   6.901
38742SOL     OW18064   6.348  11.895   0.729
38742SOL    HW118065   6.436  11.918   0.759
38742SOL    HW218066   6.358  11.880   0.635
38743SOL     OW18067   9.597   4.689   8.348
38743SOL    HW118068   9.530   4.684   8.279
38743SOL    HW218069   9.644   4.770   8.330
38744SOL     OW18070   1.842   0.051   8.381
38744SOL    HW118071   1.767   0.090   8.337
38744SOL    HW218072   1.910   0.046   8.314
38745SOL     OW18073   7.765   6.608   6.665
38745SOL    HW118074   7.834   6.669   6.641
38745SOL    HW218075   7.684   6.652   6.637
38746SOL     OW18076   7.826  11.967   5.142
38746SOL    HW118077   7.840  12.013   5.225
38746SOL    HW218078   7.783  11.885   5.166
38747SOL     OW18079   4.242   1.196   1.521
38747SOL    HW118080   4.264   1.202   1.428
38747SOL    HW218081   4.149   1.175   1.522
38748SOL     OW18082   6.150   0.145   6.216
38748SOL    HW118083   6.154   0.240   6.216
38748SOL    HW218084   6.172   0.120   6.126
38749SOL     OW18085  14.618  11.287  11.829
38749SOL    HW118086  14.606  11.256  11.739
38749SOL    HW218087  14.674  11.364  11.821
38750SOL     OW18088   2.235   8.832   2.888
38750SOL    HW118089   2.190   8.774   2.949
38750SOL    HW218090   2.165   8.880   2.844
38751SOL     OW18091   7.511  12.155   7.739
38751SOL    HW118092   7.573  12.088   7.766
38751SOL    HW218093   7.560  12.211   7.679
38752SOL     OW18094  10.849   9.856   0.691
38752SOL    HW118095  10.779   9.807   0.736
38752SOL    HW218096  10.929   9.831   0.738
38753SOL     OW18097   5.529   2.264   0.785
38753SOL    HW118098   5.490   2.181   0.812
38753SOL    HW218099   5.459   2.328   0.795
38754SOL     OW18100   5.470  13.106  13.475
38754SOL    HW118101   5.480  13.101  13.380
38754SOL    HW218102   5.437  13.194  13.491
38755SOL     OW18103  11.742   1.896   5.117
38755SOL    HW118104  11.730   1.991   5.106
38755SOL    HW218105  11.729   1.860   5.030
38756SOL     OW18106   7.263   5.209   1.001
38756SOL    HW118107   7.295   5.267   0.932
38756SOL    HW218108   7.183   5.170   0.966
38757SOL     OW18109  12.913   0.590   9.421
38757SOL    HW118110  12.966   0.599   9.500
38757SOL    HW218111  12.830   0.631   9.444
38758SOL     OW18112  13.069   5.864  12.481
38758SOL    HW118113  13.016   5.806  12.427
38758SOL    HW218114  13.081   5.943  12.428
38759SOL     OW18115   5.067  11.695  11.912
38759SOL    HW118116   5.080  11.769  11.852
38759SOL    HW218117   5.039  11.735  11.994
38760SOL     OW18118   5.258  11.206   3.832
38760SOL    HW118119   5.295  11.135   3.780
38760SOL    HW218120   5.194  11.248   3.775
38761SOL     OW18121   4.306   6.758   5.708
38761SOL    HW118122   4.371   6.784   5.643
38761SOL    HW218123   4.222   6.775   5.665
38762SOL     OW18124  14.117  10.072   5.596
38762SOL    HW118125  14.200  10.108   5.565
38762SOL    HW218126  14.100  10.116   5.679
38763SOL     OW18127  10.992   6.554   0.204
38763SOL    HW118128  11.013   6.647   0.213
38763SOL    HW218129  11.014   6.516   0.290
38764SOL     OW18130   1.061   1.803  10.898
38764SOL    HW118131   1.002   1.876  10.880
38764SOL    HW218132   1.128   1.839  10.955
38765SOL     OW18133  14.836   0.582  11.796
38765SOL    HW118134  14.854   0.668  11.834
38765SOL    HW218135  14.807   0.601  11.707
38766SOL     OW18136   3.738  11.010  14.799
38766SOL    HW118137   3.720  11.097  14.762
38766SOL    HW218138   3.717  11.019   0.015
38767SOL     OW18139   5.362   9.003   0.600
38767SOL    HW118140   5.380   9.037   0.687
38767SOL    HW218141   5.448   8.987   0.561
38768SOL     OW18142  13.548   4.819   1.921
38768SOL    HW118143  13.461   4.850   1.948
38768SOL    HW218144  13.607   4.891   1.945
38769SOL     OW18145   9.402   7.309   9.051
38769SOL    HW118146   9.439   7.308   8.963
38769SOL    HW218147   9.326   7.366   9.045
38770SOL     OW18148  10.042   2.015   5.799
38770SOL    HW118149  10.116   2.039   5.743
38770SOL    HW218150   9.986   1.962   5.743
38771SOL     OW18151   9.451   0.524   5.272
38771SOL    HW118152   9.487   0.499   5.357
38771SOL    HW218153   9.497   0.605   5.249
38772SOL     OW18154   9.069   5.310  10.059
38772SOL    HW118155   9.039   5.303   9.969
38772SOL    HW218156   9.087   5.403  10.071
38773SOL     OW18157   7.826   3.769   4.933
38773SOL    HW118158   7.825   3.815   5.017
38773SOL    HW218159   7.762   3.698   4.944
38774SOL     OW18160  12.179   7.771   0.096
38774SOL    HW118161  12.161   7.830   0.023
38774SOL    HW218162  12.181   7.829   0.173
38775SOL     OW18163   8.056  12.328   3.549
38775SOL    HW118164   7.999  12.383   3.603
38775SOL    HW218165   8.030  12.238   3.570
38776SOL     OW18166   3.298   8.054  13.631
38776SOL    HW118167   3.351   8.134  13.631
38776SOL    HW218168   3.287   8.032  13.539
38777SOL     OW18169   4.642   8.133   6.453
38777SOL    HW118170   4.592   8.207   6.486
38777SOL    HW218171   4.592   8.056   6.479
38778SOL     OW18172   0.718   4.376  13.594
38778SOL    HW118173   0.674   4.428  13.526
38778SOL    HW218174   0.810   4.398  13.584
38779SOL     OW18175  12.740   3.359   9.402
38779SOL    HW118176  12.682   3.430   9.377
38779SOL    HW218177  12.689   3.279   9.388
38780SOL     OW18178  10.639   3.178   8.978
38780SOL    HW118179  10.690   3.121   9.035
38780SOL    HW218180  10.626   3.258   9.029
38781SOL     OW18181   4.600   0.273   7.371
38781SOL    HW118182   4.690   0.260   7.401
38781SOL    HW218183   4.609   0.322   7.289
38782SOL     OW18184   7.669  10.305   7.618
38782SOL    HW118185   7.697  10.278   7.705
38782SOL    HW218186   7.681  10.227   7.563
38783SOL     OW18187   8.390  12.136   4.658
38783SOL    HW118188   8.405  12.155   4.750
38783SOL    HW218189   8.463  12.080   4.632
38784SOL     OW18190   5.078   9.064  10.773
38784SOL    HW118191   5.160   9.048  10.821
38784SOL    HW218192   5.106   9.102  10.690
38785SOL     OW18193   7.992  11.096   3.212
38785SOL    HW118194   8.002  11.114   3.305
38785SOL    HW218195   8.080  11.103   3.176
38786SOL     OW18196  12.539  13.402   6.167
38786SOL    HW118197  12.502  13.348   6.098
38786SOL    HW218198  12.609  13.349   6.205
38787SOL     OW18199   0.904   1.988  14.506
38787SOL    HW118200   0.834   2.024  14.451
38787SOL    HW218201   0.860   1.965  14.588
38788SOL     OW18202   3.657   9.116  12.644
38788SOL    HW118203   3.606   9.062  12.583
38788SOL    HW218204   3.732   9.144  12.593
38789SOL     OW18205   6.677  14.353   8.416
38789SOL    HW118206   6.614  14.324   8.351
38789SOL    HW218207   6.760  14.313   8.389
38790SOL     OW18208   3.140  10.859  14.333
38790SOL    HW118209   3.197  10.820  14.399
38790SOL    HW218210   3.090  10.786  14.297
38791SOL     OW18211   3.916   7.013   7.950
38791SOL    HW118212   3.917   6.917   7.959
38791SOL    HW218213   3.990   7.033   7.893
38792SOL     OW18214  12.313   3.137   1.948
38792SOL    HW118215  12.220   3.152   1.966
38792SOL    HW218216  12.322   3.148   1.854
38793SOL     OW18217  11.686  10.652  10.350
38793SOL    HW118218  11.682  10.556  10.345
38793SOL    HW218219  11.629  10.674  10.424
38794SOL     OW18220   9.959   3.223   9.811
38794SOL    HW118221  10.035   3.257   9.764
38794SOL    HW218222   9.916   3.300   9.848
38795SOL     OW18223  12.998  10.533  10.491
38795SOL    HW118224  12.993  10.624  10.519
38795SOL    HW218225  12.918  10.493  10.527
38796SOL     OW18226   2.620   2.282   6.112
38796SOL    HW118227   2.596   2.190   6.122
38796SOL    HW218228   2.715   2.282   6.114
38797SOL     OW18229  12.164  12.048   1.767
38797SOL    HW118230  12.125  12.091   1.843
38797SOL    HW218231  12.092  11.997   1.729
38798SOL     OW18232   0.420  13.296   5.418
38798SOL    HW118233   0.334  13.321   5.384
38798SOL    HW218234   0.483  13.340   5.361
38799SOL     OW18235  14.098  10.554  14.251
38799SOL    HW118236  14.140  10.629  14.209
38799SOL    HW218237  14.034  10.524  14.187
38800SOL     OW18238   8.801  11.491   2.637
38800SOL    HW118239   8.893  11.511   2.656
38800SOL    HW218240   8.803  11.407   2.593
38801SOL     OW18241  12.665   3.026   6.607
38801SOL    HW118242  12.729   3.007   6.676
38801SOL    HW218243  12.718   3.067   6.538
38802SOL     OW18244   3.594  10.262   6.347
38802SOL    HW118245   3.563  10.266   6.256
38802SOL    HW218246   3.657  10.190   6.348
38803SOL     OW18247  14.296  12.488  14.045
38803SOL    HW118248  14.307  12.394  14.029
38803SOL    HW218249  14.213  12.510  14.003
38804SOL     OW18250   9.478   9.849   7.764
38804SOL    HW118251   9.445   9.759   7.767
38804SOL    HW218252   9.471   9.874   7.672
38805SOL     OW18253   5.007   4.585   0.051
38805SOL    HW118254   4.940   4.567  14.861
38805SOL    HW218255   5.032   4.676   0.035
38806SOL     OW18256   6.135   8.178   9.588
38806SOL    HW118257   6.126   8.254   9.645
38806SOL    HW218258   6.229   8.166   9.578
38807SOL     OW18259  13.213  10.716  10.307
38807SOL    HW118260  13.273  10.681  10.242
38807SOL    HW218261  13.135  10.662  10.300
38808SOL     OW18262   4.752  10.547  13.469
38808SOL    HW118263   4.779  10.566  13.379
38808SOL    HW218264   4.717  10.630  13.501
38809SOL     OW18265  13.933   6.440   3.797
38809SOL    HW118266  13.934   6.524   3.751
38809SOL    HW218267  13.922   6.464   3.890
38810SOL     OW18268   0.160  11.959   7.070
38810SOL    HW118269   0.108  11.934   7.147
38810SOL    HW218270   0.164  12.055   7.075
38811SOL     OW18271   6.714   7.986   3.335
38811SOL    HW118272   6.639   7.949   3.287
38811SOL    HW218273   6.674   8.034   3.407
38812SOL     OW18274  11.876  10.945   3.050
38812SOL    HW118275  11.906  11.012   2.989
38812SOL    HW218276  11.957  10.909   3.087
38813SOL     OW18277   7.003   9.216   5.294
38813SOL    HW118278   6.950   9.292   5.268
38813SOL    HW218279   7.090   9.251   5.308
38814SOL     OW18280   8.310   6.401  13.780
38814SOL    HW118281   8.389   6.432  13.825
38814SOL    HW218282   8.332   6.313  13.751
38815SOL     OW18283   5.418  11.694   4.999
38815SOL    HW118284   5.360  11.619   5.014
38815SOL    HW218285   5.497  11.656   4.961
38816SOL     OW18286   1.847  12.502   1.520
38816SOL    HW118287   1.829  12.596   1.519
38816SOL    HW218288   1.883  12.485   1.606
38817SOL     OW18289   3.719   4.817  12.225
38817SOL    HW118290   3.809   4.798  12.251
38817SOL    HW218291   3.684   4.872  12.295
38818SOL     OW18292   0.316   8.684   0.174
38818SOL    HW118293   0.316   8.616   0.107
38818SOL    HW218294   0.294   8.637   0.255
38819SOL     OW18295   3.286   9.226  12.719
38819SOL    HW118296   3.281   9.183  12.634
38819SOL    HW218297   3.230   9.174  12.776
38820SOL     OW18298   1.466   7.708   1.172
38820SOL    HW118299   1.500   7.797   1.162
38820SOL    HW218300   1.394   7.716   1.234
38821SOL     OW18301   8.844   2.073   0.081
38821SOL    HW118302   8.802   2.159   0.085
38821SOL    HW218303   8.775   2.014   0.054
38822SOL     OW18304   8.699   1.164   0.796
38822SOL    HW118305   8.716   1.248   0.752
38822SOL    HW218306   8.604   1.152   0.790
38823SOL     OW18307   7.697  12.315  14.339
38823SOL    HW118308   7.680  12.221  14.330
38823SOL    HW218309   7.612  12.353  14.359
38824SOL     OW18310   2.437   3.403  14.689
38824SOL    HW118311   2.459   3.444  14.606
38824SOL    HW218312   2.519   3.399  14.738
38825SOL     OW18313   7.864   3.912   2.101
38825SOL    HW118314   7.883   3.836   2.046
38825SOL    HW218315   7.776   3.939   2.075
38826SOL     OW18316   7.613   9.519  14.768
38826SOL    HW118317   7.559   9.553  14.697
38826SOL    HW218318   7.690   9.481  14.724
38827SOL     OW18319  10.085   5.521  13.131
38827SOL    HW118320  10.115   5.448  13.185
38827SOL    HW218321  10.105   5.599  13.183
38828SOL     OW18322  10.661  13.744   1.329
38828SOL    HW118323  10.726  13.787   1.274
38828SOL    HW218324  10.595  13.811   1.344
38829SOL     OW18325   8.695  10.700  10.184
38829SOL    HW118326   8.668  10.647  10.258
38829SOL    HW218327   8.719  10.785  10.222
38830SOL     OW18328   8.455  10.528   8.068
38830SOL    HW118329   8.510  10.582   8.012
38830SOL    HW218330   8.480  10.438   8.047
38831SOL     OW18331   9.166   0.888   6.194
38831SOL    HW118332   9.184   0.808   6.243
38831SOL    HW218333   9.115   0.858   6.118
38832SOL     OW18334  12.347  14.652   3.684
38832SOL    HW118335  12.358  14.642   3.779
38832SOL    HW218336  12.253  14.646   3.670
38833SOL     OW18337   6.551  10.133  11.483
38833SOL    HW118338   6.488  10.153  11.413
38833SOL    HW218339   6.628  10.100  11.437
38834SOL     OW18340  13.438  11.471   0.002
38834SOL    HW118341  13.372  11.416   0.045
38834SOL    HW218342  13.439  11.441  14.787
38835SOL     OW18343   6.535   2.849   6.003
38835SOL    HW118344   6.549   2.897   5.922
38835SOL    HW218345   6.524   2.916   6.070
38836SOL     OW18346   2.396   4.518   9.809
38836SOL    HW118347   2.417   4.507   9.716
38836SOL    HW218348   2.456   4.587   9.839
38837SOL     OW18349   2.242   2.745  10.631
38837SOL    HW118350   2.223   2.832  10.664
38837SOL    HW218351   2.333   2.729  10.658
38838SOL     OW18352   2.017   5.396  13.270
38838SOL    HW118353   1.995   5.435  13.186
38838SOL    HW218354   1.952   5.327  13.282
38839SOL     OW18355   9.713   9.226  13.148
38839SOL    HW118356   9.704   9.133  13.168
38839SOL    HW218357   9.754   9.265  13.226
38840SOL     OW18358   8.163   2.023   0.489
38840SOL    HW118359   8.258   2.031   0.496
38840SOL    HW218360   8.141   2.063   0.404
38841SOL     OW18361   3.269   6.753  13.352
38841SOL    HW118362   3.200   6.746  13.418
38841SOL    HW218363   3.317   6.833  13.377
38842SOL     OW18364   6.920   9.881   4.414
38842SOL    HW118365   7.008   9.903   4.447
38842SOL    HW218366   6.879   9.835   4.487
38843SOL     OW18367   1.733   5.002   7.035
38843SOL    HW118368   1.795   5.069   7.065
38843SOL    HW218369   1.781   4.920   7.042
38844SOL     OW18370   2.335  11.458   9.956
38844SOL    HW118371   2.420  11.482   9.919
38844SOL    HW218372   2.273  11.519   9.914
38845SOL     OW18373  13.098   1.790   2.091
38845SOL    HW118374  13.099   1.720   2.157
38845SOL    HW218375  13.172   1.846   2.115
38846SOL     OW18376  12.035   1.073   9.568
38846SOL    HW118377  12.066   1.161   9.545
38846SOL    HW218378  12.082   1.052   9.649
38847SOL     OW18379   1.953  14.443   3.021
38847SOL    HW118380   1.918  14.354   3.016
38847SOL    HW218381   2.000  14.445   3.105
38848SOL     OW18382   6.313   3.484   7.304
38848SOL    HW118383   6.272   3.505   7.388
38848SOL    HW218384   6.371   3.558   7.286
38849SOL     OW18385  12.615  14.514   1.136
38849SOL    HW118386  12.622  14.605   1.165
38849SOL    HW218387  12.701  14.476   1.156
38850SOL     OW18388   2.989   0.257   2.435
38850SOL    HW118389   3.068   0.312   2.429
38850SOL    HW218390   2.999   0.210   2.518
38851SOL     OW18391  13.112  11.135   3.817
38851SOL    HW118392  13.192  11.183   3.839
38851SOL    HW218393  13.065  11.127   3.900
38852SOL     OW18394   5.405   1.322   8.764
38852SOL    HW118395   5.343   1.263   8.806
38852SOL    HW218396   5.354   1.400   8.741
38853SOL     OW18397  13.976  10.285  13.427
38853SOL    HW118398  14.040  10.355  13.443
38853SOL    HW218399  13.992  10.259  13.336
38854SOL     OW18400   5.789  11.726  10.173
38854SOL    HW118401   5.802  11.726  10.078
38854SOL    HW218402   5.741  11.646  10.191
38855SOL     OW18403   1.385   3.748   9.477
38855SOL    HW118404   1.307   3.725   9.527
38855SOL    HW218405   1.451   3.684   9.504
38856SOL     OW18406   6.166  10.525   3.474
38856SOL    HW118407   6.132  10.455   3.418
38856SOL    HW218408   6.220  10.578   3.415
38857SOL     OW18409   2.959   2.423   3.338
38857SOL    HW118410   3.047   2.398   3.309
38857SOL    HW218411   2.940   2.364   3.411
38858SOL     OW18412   9.328   8.475   9.005
38858SOL    HW118413   9.244   8.434   9.027
38858SOL    HW218414   9.329   8.477   8.909
38859SOL     OW18415   2.764  10.179   4.856
38859SOL    HW118416   2.800  10.185   4.944
38859SOL    HW218417   2.708  10.102   4.858
38860SOL     OW18418   5.619  11.068   5.960
38860SOL    HW118419   5.587  11.123   5.888
38860SOL    HW218420   5.557  10.996   5.966
38861SOL     OW18421   2.435  12.728   8.452
38861SOL    HW118422   2.394  12.789   8.513
38861SOL    HW218423   2.380  12.650   8.455
38862SOL     OW18424  10.778  14.494   2.693
38862SOL    HW118425  10.802  14.401   2.685
38862SOL    HW218426  10.850  14.541   2.652
38863SOL     OW18427  13.109  13.508   2.004
38863SOL    HW118428  13.067  13.512   2.091
38863SOL    HW218429  13.046  13.550   1.946
38864SOL     OW18430   7.191   1.957   9.416
38864SOL    HW118431   7.246   1.904   9.357
38864SOL    HW218432   7.241   1.961   9.498
38865SOL     OW18433   7.480  14.723   7.769
38865SOL    HW118434   7.532  14.792   7.809
38865SOL    HW218435   7.545  14.658   7.740
38866SOL     OW18436   1.175  14.738   1.636
38866SOL    HW118437   1.131  14.743   1.551
38866SOL    HW218438   1.216  14.824   1.646
38867SOL     OW18439   0.192  11.206   1.943
38867SOL    HW118440   0.168  11.119   1.909
38867SOL    HW218441   0.281  11.220   1.911
38868SOL     OW18442   4.251   8.739   9.804
38868SOL    HW118443   4.199   8.681   9.749
38868SOL    HW218444   4.315   8.682   9.845
38869SOL     OW18445  11.973   8.751   0.793
38869SOL    HW118446  11.999   8.664   0.825
38869SOL    HW218447  11.934   8.793   0.870
38870SOL     OW18448   9.323   9.070   9.218
38870SOL    HW118449   9.321   8.980   9.186
38870SOL    HW218450   9.366   9.063   9.303
38871SOL     OW18451   3.742   1.383  14.374
38871SOL    HW118452   3.766   1.378  14.282
38871SOL    HW218453   3.667   1.325  14.383
38872SOL     OW18454   2.094   7.334   7.567
38872SOL    HW118455   2.113   7.404   7.505
38872SOL    HW218456   2.072   7.379   7.649
38873SOL     OW18457   2.059  12.062   3.389
38873SOL    HW118458   2.151  12.083   3.372
38873SOL    HW218459   2.037  11.996   3.323
38874SOL     OW18460   0.936   9.232   9.270
38874SOL    HW118461   0.936   9.166   9.340
38874SOL    HW218462   0.853   9.279   9.281
38875SOL     OW18463   8.862  12.383  11.804
38875SOL    HW118464   8.926  12.315  11.782
38875SOL    HW218465   8.897  12.425  11.883
38876SOL     OW18466   4.258   4.929   9.800
38876SOL    HW118467   4.231   5.021   9.808
38876SOL    HW218468   4.251   4.910   9.707
38877SOL     OW18469  10.527   3.591   3.277
38877SOL    HW118470  10.469   3.548   3.340
38877SOL    HW218471  10.590   3.639   3.332
38878SOL     OW18472   6.892   9.564   0.663
38878SOL    HW118473   6.921   9.495   0.604
38878SOL    HW218474   6.942   9.550   0.744
38879SOL     OW18475  12.791  11.463   5.824
38879SOL    HW118476  12.791  11.440   5.917
38879SOL    HW218477  12.781  11.379   5.778
38880SOL     OW18478   3.273   6.490  10.697
38880SOL    HW118479   3.339   6.508  10.629
38880SOL    HW218480   3.300   6.406  10.735
38881SOL     OW18481   4.454   6.673   6.190
38881SOL    HW118482   4.475   6.595   6.240
38881SOL    HW218483   4.503   6.743   6.233
38882SOL     OW18484   6.091  12.758   6.347
38882SOL    HW118485   6.163  12.750   6.284
38882SOL    HW218486   6.053  12.844   6.329
38883SOL     OW18487   0.890   8.451   6.666
38883SOL    HW118488   0.899   8.405   6.750
38883SOL    HW218489   0.866   8.382   6.604
38884SOL     OW18490  14.289   2.513   0.475
38884SOL    HW118491  14.291   2.422   0.505
38884SOL    HW218492  14.362   2.519   0.413
38885SOL     OW18493   5.392  13.734  13.444
38885SOL    HW118494   5.450  13.706  13.373
38885SOL    HW218495   5.433  13.813  13.478
38886SOL     OW18496   2.324   2.103   6.661
38886SOL    HW118497   2.264   2.166   6.700
38886SOL    HW218498   2.400   2.104   6.719
38887SOL     OW18499  14.406   8.597   3.435
38887SOL    HW118500  14.363   8.521   3.475
38887SOL    HW218501  14.432   8.651   3.510
38888SOL     OW18502  11.653   4.019   1.426
38888SOL    HW118503  11.643   4.094   1.368
38888SOL    HW218504  11.637   4.053   1.514
38889SOL     OW18505   7.451   3.503   9.343
38889SOL    HW118506   7.395   3.516   9.420
38889SOL    HW218507   7.417   3.423   9.303
38890SOL     OW18508  11.660   2.557   4.565
38890SOL    HW118509  11.626   2.641   4.535
38890SOL    HW218510  11.582   2.510   4.595
38891SOL     OW18511   1.024   3.430   0.871
38891SOL    HW118512   0.958   3.494   0.844
38891SOL    HW218513   1.007   3.414   0.963
38892SOL     OW18514   6.827  11.279   3.417
38892SOL    HW118515   6.781  11.318   3.343
38892SOL    HW218516   6.870  11.353   3.461
38893SOL     OW18517   7.541   4.282   6.886
38893SOL    HW118518   7.505   4.325   6.809
38893SOL    HW218519   7.632   4.263   6.863
38894SOL     OW18520   5.513  13.630   8.917
38894SOL    HW118521   5.569  13.696   8.958
38894SOL    HW218522   5.550  13.617   8.830
38895SOL     OW18523   5.143   4.024  11.452
38895SOL    HW118524   5.066   4.081  11.457
38895SOL    HW218525   5.176   4.036  11.363
38896SOL     OW18526   8.987   2.045  13.473
38896SOL    HW118527   9.082   2.056  13.476
38896SOL    HW218528   8.961   2.082  13.390
38897SOL     OW18529   6.746   7.186   3.106
38897SOL    HW118530   6.834   7.175   3.071
38897SOL    HW218531   6.689   7.183   3.029
38898SOL     OW18532   8.305   0.786   2.414
38898SOL    HW118533   8.315   0.845   2.488
38898SOL    HW218534   8.394   0.762   2.390
38899SOL     OW18535   7.213   9.640  10.879
38899SOL    HW118536   7.276   9.594  10.934
38899SOL    HW218537   7.133   9.587  10.884
38900SOL     OW18538   0.514  13.083  10.708
38900SOL    HW118539   0.593  13.062  10.658
38900SOL    HW218540   0.525  13.037  10.792
38901SOL     OW18541   9.558   9.823   9.276
38901SOL    HW118542   9.524   9.817   9.365
38901SOL    HW218543   9.599   9.910   9.272
38902SOL     OW18544   7.773  10.784  14.280
38902SOL    HW118545   7.692  10.738  14.261
38902SOL    HW218546   7.842  10.724  14.252
38903SOL     OW18547   2.732  11.273  13.448
38903SOL    HW118548   2.709  11.213  13.519
38903SOL    HW218549   2.738  11.217  13.371
38904SOL     OW18550   3.135   9.744   5.177
38904SOL    HW118551   3.120   9.740   5.271
38904SOL    HW218552   3.090   9.667   5.142
38905SOL     OW18553   0.517   3.717  13.483
38905SOL    HW118554   0.518   3.640  13.539
38905SOL    HW218555   0.431   3.756  13.497
38906SOL     OW18556   6.302   2.514  12.016
38906SOL    HW118557   6.343   2.537  11.933
38906SOL    HW218558   6.374   2.490  12.074
38907SOL     OW18559  14.122  11.222   0.912
38907SOL    HW118560  14.067  11.289   0.951
38907SOL    HW218561  14.200  11.269   0.882
38908SOL     OW18562  13.213   3.756   7.595
38908SOL    HW118563  13.268   3.734   7.670
38908SOL    HW218564  13.209   3.675   7.543
38909SOL     OW18565  14.693   3.902   3.889
38909SOL    HW118566  14.682   3.941   3.802
38909SOL    HW218567  14.742   3.968   3.938
38910SOL     OW18568   8.246   0.404   3.633
38910SOL    HW118569   8.329   0.431   3.673
38910SOL    HW218570   8.269   0.329   3.578
38911SOL     OW18571   2.736   7.473  11.995
38911SOL    HW118572   2.683   7.517  11.928
38911SOL    HW218573   2.701   7.384  11.999
38912SOL     OW18574  10.102   4.186   7.435
38912SOL    HW118575  10.052   4.135   7.498
38912SOL    HW218576  10.060   4.272   7.435
38913SOL     OW18577   0.183   1.515  12.542
38913SOL    HW118578   0.198   1.596  12.591
38913SOL    HW218579   0.251   1.515  12.475
38914SOL     OW18580  11.877   1.157   9.896
38914SOL    HW118581  11.808   1.177   9.959
38914SOL    HW218582  11.954   1.142   9.949
38915SOL     OW18583   7.209  10.017   6.164
38915SOL    HW118584   7.274   9.955   6.130
38915SOL    HW218585   7.141   9.963   6.204
38916SOL     OW18586   1.681  10.944   4.716
38916SOL    HW118587   1.678  10.851   4.694
38916SOL    HW218588   1.665  10.989   4.634
38917SOL     OW18589   3.754   7.867   0.228
38917SOL    HW118590   3.816   7.795   0.235
38917SOL    HW218591   3.703   7.847   0.150
38918SOL     OW18592   5.031   2.142  13.657
38918SOL    HW118593   5.028   2.086  13.580
38918SOL    HW218594   4.945   2.184  13.660
38919SOL     OW18595   9.311  14.135   1.825
38919SOL    HW118596   9.372  14.146   1.753
38919SOL    HW218597   9.366  14.132   1.903
38920SOL     OW18598  14.200  11.894   9.239
38920SOL    HW118599  14.213  11.852   9.154
38920SOL    HW218600  14.149  11.973   9.219
38921SOL     OW18601  13.269   8.254   6.148
38921SOL    HW118602  13.198   8.236   6.087
38921SOL    HW218603  13.349   8.233   6.100
38922SOL     OW18604   3.566   7.214  14.172
38922SOL    HW118605   3.581   7.125  14.141
38922SOL    HW218606   3.634   7.266  14.130
38923SOL     OW18607   4.104  10.246   2.431
38923SOL    HW118608   4.112  10.340   2.416
38923SOL    HW218609   4.024  10.236   2.483
38924SOL     OW18610   0.254  13.311   4.644
38924SOL    HW118611   0.167  13.333   4.678
38924SOL    HW218612   0.313  13.371   4.691
38925SOL     OW18613  11.918  12.756   2.642
38925SOL    HW118614  11.972  12.828   2.609
38925SOL    HW218615  11.900  12.702   2.565
38926SOL     OW18616  10.960   0.154   3.018
38926SOL    HW118617  10.999   0.236   2.987
38926SOL    HW218618  10.919   0.116   2.941
38927SOL     OW18619  11.948   8.955   5.439
38927SOL    HW118620  11.919   8.977   5.527
38927SOL    HW218621  11.937   8.860   5.433
38928SOL     OW18622  11.737  10.806   4.342
38928SOL    HW118623  11.793  10.780   4.270
38928SOL    HW218624  11.764  10.895   4.363
38929SOL     OW18625   5.965  12.873   4.371
38929SOL    HW118626   5.950  12.965   4.350
38929SOL    HW218627   5.898  12.852   4.436
38930SOL     OW18628   4.328  11.842   6.882
38930SOL    HW118629   4.313  11.924   6.929
38930SOL    HW218630   4.358  11.781   6.949
38931SOL     OW18631  13.439   6.613   3.027
38931SOL    HW118632  13.387   6.533   3.014
38931SOL    HW218633  13.516   6.601   2.972
38932SOL     OW18634  12.938   8.285   5.407
38932SOL    HW118635  12.963   8.259   5.495
38932SOL    HW218636  12.859   8.338   5.420
38933SOL     OW18637   5.356   8.660   5.401
38933SOL    HW118638   5.413   8.605   5.454
38933SOL    HW218639   5.332   8.605   5.326
38934SOL     OW18640  13.466  14.321   5.746
38934SOL    HW118641  13.449  14.325   5.840
38934SOL    HW218642  13.524  14.395   5.729
38935SOL     OW18643  10.495   9.034  13.771
38935SOL    HW118644  10.512   9.051  13.679
38935SOL    HW218645  10.571   8.985  13.801
38936SOL     OW18646  13.838   1.549   1.504
38936SOL    HW118647  13.829   1.610   1.578
38936SOL    HW218648  13.801   1.596   1.429
38937SOL     OW18649   3.050   4.914   3.799
38937SOL    HW118650   3.122   4.977   3.801
38937SOL    HW218651   3.076   4.845   3.861
38938SOL     OW18652   2.505  14.810  13.851
38938SOL    HW118653   2.412  14.808  13.829
38938SOL    HW218654   2.549  14.783  13.770
38939SOL     OW18655  12.462  10.611   8.182
38939SOL    HW118656  12.394  10.674   8.204
38939SOL    HW218657  12.531  10.628   8.246
38940SOL     OW18658  11.277  11.607   2.222
38940SOL    HW118659  11.202  11.552   2.197
38940SOL    HW218660  11.241  11.668   2.287
38941SOL     OW18661  10.153   1.953   9.053
38941SOL    HW118662  10.209   2.000   8.991
38941SOL    HW218663  10.206   1.947   9.132
38942SOL     OW18664   0.268   7.768  10.510
38942SOL    HW118665   0.261   7.678  10.480
38942SOL    HW218666   0.354   7.797  10.481
38943SOL     OW18667   7.090   9.828  10.710
38943SOL    HW118668   7.102   9.919  10.735
38943SOL    HW218669   7.129   9.778  10.781
38944SOL     OW18670   1.678   3.611   4.215
38944SOL    HW118671   1.616   3.590   4.146
38944SOL    HW218672   1.763   3.581   4.182
38945SOL     OW18673   4.365   4.420   4.554
38945SOL    HW118674   4.448   4.455   4.521
38945SOL    HW218675   4.302   4.492   4.542
38946SOL     OW18676   9.777   0.095   7.708
38946SOL    HW118677   9.690   0.105   7.745
38946SOL    HW218678   9.765   0.106   7.614
38947SOL     OW18679  11.276  13.564  12.904
38947SOL    HW118680  11.255  13.478  12.938
38947SOL    HW218681  11.250  13.561  12.812
38948SOL     OW18682   1.480   8.890   8.263
38948SOL    HW118683   1.568   8.907   8.297
38948SOL    HW218684   1.455   8.973   8.222
38949SOL     OW18685   6.361   9.884  13.845
38949SOL    HW118686   6.376   9.960  13.790
38949SOL    HW218687   6.373   9.809  13.787
38950SOL     OW18688   1.357   4.589  13.684
38950SOL    HW118689   1.352   4.684  13.675
38950SOL    HW218690   1.401   4.575  13.768
38951SOL     OW18691   6.247  12.493   2.628
38951SOL    HW118692   6.334  12.455   2.615
38951SOL    HW218693   6.186  12.419   2.623
38952SOL     OW18694   3.651   8.371  10.451
38952SOL    HW118695   3.585   8.354  10.518
38952SOL    HW218696   3.607   8.351  10.368
38953SOL     OW18697  14.571   0.313   4.843
38953SOL    HW118698  14.616   0.381   4.792
38953SOL    HW218699  14.492   0.294   4.792
38954SOL     OW18700   5.594   1.756   0.153
38954SOL    HW118701   5.615   1.693   0.084
38954SOL    HW218702   5.671   1.812   0.158
38955SOL     OW18703   0.656  13.384  11.527
38955SOL    HW118704   0.739  13.342  11.550
38955SOL    HW218705   0.594  13.312  11.516
38956SOL     OW18706   8.474   9.728   2.406
38956SOL    HW118707   8.419   9.679   2.345
38956SOL    HW218708   8.484   9.814   2.365
38957SOL     OW18709   8.775  11.569  12.664
38957SOL    HW118710   8.799  11.659  12.688
38957SOL    HW218711   8.757  11.526  12.748
38958SOL     OW18712   2.669   5.637   6.472
38958SOL    HW118713   2.685   5.558   6.421
38958SOL    HW218714   2.700   5.708   6.416
38959SOL     OW18715   9.598   3.603   4.620
38959SOL    HW118716   9.675   3.612   4.676
38959SOL    HW218717   9.541   3.542   4.667
38960SOL     OW18718   9.713   9.072   7.768
38960SOL    HW118719   9.640   9.115   7.813
38960SOL    HW218720   9.720   8.987   7.811
38961SOL     OW18721   3.475   0.963   0.812
38961SOL    HW118722   3.389   0.972   0.771
38961SOL    HW218723   3.510   1.052   0.816
38962SOL     OW18724  11.142   7.019  11.614
38962SOL    HW118725  11.133   6.931  11.578
38962SOL    HW218726  11.164   7.073  11.538
38963SOL     OW18727   4.287   7.706   8.145
38963SOL    HW118728   4.294   7.788   8.096
38963SOL    HW218729   4.199   7.674   8.127
38964SOL     OW18730  10.553  11.863  14.528
38964SOL    HW118731  10.536  11.777  14.565
38964SOL    HW218732  10.583  11.916  14.602
38965SOL     OW18733   4.836   7.700  12.495
38965SOL    HW118734   4.891   7.778  12.507
38965SOL    HW218735   4.899   7.628  12.489
38966SOL     OW18736  11.537   8.362   5.367
38966SOL    HW118737  11.535   8.357   5.271
38966SOL    HW218738  11.445   8.355   5.392
38967SOL     OW18739   2.515   8.895   8.627
38967SOL    HW118740   2.535   8.813   8.671
38967SOL    HW218741   2.560   8.962   8.679
38968SOL     OW18742   0.386   8.919   4.101
38968SOL    HW118743   0.367   9.012   4.107
38968SOL    HW218744   0.475   8.911   4.134
38969SOL     OW18745   7.562   9.920  12.884
38969SOL    HW118746   7.499   9.873  12.939
38969SOL    HW218747   7.508   9.973  12.826
38970SOL     OW18748   1.637   9.594   6.044
38970SOL    HW118749   1.546   9.604   6.017
38970SOL    HW218750   1.676   9.537   5.977
38971SOL     OW18751   0.456  11.863   0.039
38971SOL    HW118752   0.480  11.916  14.839
38971SOL    HW218753   0.470  11.921   0.114
38972SOL     OW18754   0.439   6.654   9.873
38972SOL    HW118755   0.507   6.623   9.813
38972SOL    HW218756   0.428   6.582   9.936
38973SOL     OW18757   8.604   4.460   8.358
38973SOL    HW118758   8.558   4.464   8.274
38973SOL    HW218759   8.696   4.444   8.335
38974SOL     OW18760  10.631  12.022   6.756
38974SOL    HW118761  10.679  12.104   6.744
38974SOL    HW218762  10.656  11.969   6.680
38975SOL     OW18763   1.648   9.387   1.568
38975SOL    HW118764   1.567   9.411   1.523
38975SOL    HW218765   1.677   9.307   1.526
38976SOL     OW18766  10.193   0.515   4.607
38976SOL    HW118767  10.159   0.602   4.586
38976SOL    HW218768  10.283   0.531   4.635
38977SOL     OW18769  12.150  11.012   9.569
38977SOL    HW118770  12.125  11.021   9.477
38977SOL    HW218771  12.194  11.094   9.591
38978SOL     OW18772   0.471   9.942  10.740
38978SOL    HW118773   0.497  10.025  10.699
38978SOL    HW218774   0.386   9.961  10.780
38979SOL     OW18775   3.308  12.948   4.168
38979SOL    HW118776   3.236  12.891   4.194
38979SOL    HW218777   3.317  13.010   4.241
38980SOL     OW18778   3.965  12.937   8.728
38980SOL    HW118779   4.042  12.981   8.764
38980SOL    HW218780   3.910  13.009   8.697
38981SOL     OW18781   5.022   8.985   1.423
38981SOL    HW118782   5.116   9.002   1.427
38981SOL    HW218783   4.998   8.961   1.513
38982SOL     OW18784   8.318   4.886   1.494
38982SOL    HW118785   8.238   4.840   1.468
38982SOL    HW218786   8.300   4.915   1.584
38983SOL     OW18787   4.975   0.922  14.855
38983SOL    HW118788   4.906   0.860  14.831
38983SOL    HW218789   4.936   0.976   0.047
38984SOL     OW18790   6.540  12.758   5.859
38984SOL    HW118791   6.498  12.721   5.936
38984SOL    HW218792   6.632  12.734   5.867
38985SOL     OW18793   2.280   9.850   8.278
38985SOL    HW118794   2.319   9.814   8.357
38985SOL    HW218795   2.263   9.774   8.222
38986SOL     OW18796   2.292   0.266  14.656
38986SOL    HW118797   2.254   0.301  14.575
38986SOL    HW218798   2.217   0.247  14.711
38987SOL     OW18799   3.719  12.114   5.861
38987SOL    HW118800   3.709  12.205   5.890
38987SOL    HW218801   3.812  12.105   5.840
38988SOL     OW18802   5.337   1.385   8.276
38988SOL    HW118803   5.265   1.382   8.214
38988SOL    HW218804   5.324   1.308   8.332
38989SOL     OW18805   5.960  14.788   4.111
38989SOL    HW118806   5.932  14.698   4.129
38989SOL    HW218807   5.982  14.788   4.018
38990SOL     OW18808   9.480   7.628   0.056
38990SOL    HW118809   9.526   7.647   0.138
38990SOL    HW218810   9.530   7.554   0.019
38991SOL     OW18811  10.142  11.753   3.599
38991SOL    HW118812  10.144  11.742   3.504
38991SOL    HW218813  10.111  11.669   3.632
38992SOL     OW18814   1.244   4.492   0.416
38992SOL    HW118815   1.311   4.427   0.437
38992SOL    HW218816   1.293   4.571   0.394
38993SOL     OW18817  13.270  10.449  14.361
38993SOL    HW118818  13.289  10.371  14.413
38993SOL    HW218819  13.356  10.480  14.332
38994SOL     OW18820  11.665   9.582   3.004
38994SOL    HW118821  11.743   9.637   3.012
38994SOL    HW218822  11.699   9.493   2.990
38995SOL     OW18823  11.520   2.791  12.041
38995SOL    HW118824  11.559   2.855  11.981
38995SOL    HW218825  11.468   2.734  11.985
38996SOL     OW18826   3.506  10.326   6.810
38996SOL    HW118827   3.480  10.278   6.889
38996SOL    HW218828   3.551  10.261   6.756
38997SOL     OW18829   2.781  14.276   2.342
38997SOL    HW118830   2.708  14.223   2.374
38997SOL    HW218831   2.747  14.366   2.341
38998SOL     OW18832  13.996   4.598  13.786
38998SOL    HW118833  13.921   4.547  13.816
38998SOL    HW218834  14.022   4.650  13.861
38999SOL     OW18835  14.260  13.585   9.288
38999SOL    HW118836  14.323  13.520   9.258
38999SOL    HW218837  14.276  13.661   9.231
39000SOL     OW18838   8.285   9.739   1.174
39000SOL    HW118839   8.373   9.730   1.212
39000SOL    HW218840   8.301   9.749   1.080
39001SOL     OW18841   9.282  12.903   7.173
39001SOL    HW118842   9.227  12.839   7.218
39001SOL    HW218843   9.363  12.856   7.155
39002SOL     OW18844   5.599   1.879  14.569
39002SOL    HW118845   5.512   1.901  14.536
39002SOL    HW218846   5.585   1.855  14.660
39003SOL     OW18847   7.144   3.682   8.090
39003SOL    HW118848   7.091   3.609   8.059
39003SOL    HW218849   7.174   3.726   8.010
39004SOL     OW18850   5.466   0.415  11.997
39004SOL    HW118851   5.410   0.337  11.999
39004SOL    HW218852   5.407   0.488  12.013
39005SOL     OW18853  13.656   8.517   4.974
39005SOL    HW118854  13.566   8.544   4.991
39005SOL    HW218855  13.697   8.595   4.936
39006SOL     OW18856   1.569   9.725   6.578
39006SOL    HW118857   1.506   9.653   6.583
39006SOL    HW218858   1.648   9.690   6.618
39007SOL     OW18859   6.623   9.808  14.549
39007SOL    HW118860   6.610   9.715  14.531
39007SOL    HW218861   6.697   9.833  14.494
39008SOL     OW18862   4.738   9.388   0.272
39008SOL    HW118863   4.815   9.426   0.230
39008SOL    HW218864   4.666   9.408   0.213
39009SOL     OW18865   2.757  11.938  11.480
39009SOL    HW118866   2.819  11.994  11.434
39009SOL    HW218867   2.760  11.968  11.571
39010SOL     OW18868   2.101   1.341   1.609
39010SOL    HW118869   2.175   1.310   1.558
39010SOL    HW218870   2.064   1.412   1.556
39011SOL     OW18871   6.854  13.011  13.420
39011SOL    HW118872   6.762  13.017  13.394
39011SOL    HW218873   6.884  12.927  13.384
39012SOL     OW18874   4.609   8.656   6.889
39012SOL    HW118875   4.589   8.592   6.820
39012SOL    HW218876   4.704   8.670   6.880
39013SOL     OW18877  11.557   5.343  12.091
39013SOL    HW118878  11.628   5.288  12.057
39013SOL    HW218879  11.592   5.432  12.091
39014SOL     OW18880   0.773   0.080   0.138
39014SOL    HW118881   0.780   0.091   0.043
39014SOL    HW218882   0.862   0.063   0.168
39015SOL     OW18883  14.134   2.522   1.031
39015SOL    HW118884  14.163   2.483   1.113
39015SOL    HW218885  14.052   2.477   1.011
39016SOL     OW18886   9.241   3.613  13.688
39016SOL    HW118887   9.262   3.545  13.624
39016SOL    HW218888   9.254   3.571  13.773
39017SOL     OW18889   8.550   4.778   1.154
39017SOL    HW118890   8.470   4.823   1.183
39017SOL    HW218891   8.614   4.848   1.142
39018SOL     OW18892   1.304   0.414  11.410
39018SOL    HW118893   1.397   0.434  11.411
39018SOL    HW218894   1.260   0.499  11.400
39019SOL     OW18895   1.507   6.431   1.604
39019SOL    HW118896   1.535   6.522   1.613
39019SOL    HW218897   1.588   6.383   1.585
39020SOL     OW18898  10.178   3.789   8.616
39020SOL    HW118899  10.199   3.870   8.662
39020SOL    HW218900  10.262   3.752   8.591
39021SOL     OW18901   8.859  12.619  14.655
39021SOL    HW118902   8.773  12.605  14.616
39021SOL    HW218903   8.883  12.535  14.693
39022SOL     OW18904  14.424   2.397   2.822
39022SOL    HW118905  14.347   2.409   2.877
39022SOL    HW218906  14.498   2.400   2.882
39023SOL     OW18907  11.469   1.879   6.280
39023SOL    HW118908  11.514   1.958   6.307
39023SOL    HW218909  11.539   1.819   6.253
39024SOL     OW18910   6.433  11.699  11.010
39024SOL    HW118911   6.448  11.703  11.105
39024SOL    HW218912   6.339  11.711  11.001
39025SOL     OW18913   8.050   4.679  14.357
39025SOL    HW118914   8.140   4.703  14.378
39025SOL    HW218915   8.037   4.595  14.400
39026SOL     OW18916  10.771  11.532   5.622
39026SOL    HW118917  10.813  11.613   5.593
39026SOL    HW218918  10.694  11.560   5.671
39027SOL     OW18919  11.491   0.532  11.707
39027SOL    HW118920  11.478   0.624  11.729
39027SOL    HW218921  11.407   0.504  11.669
39028SOL     OW18922  14.495   0.511  10.562
39028SOL    HW118923  14.427   0.481  10.502
39028SOL    HW218924  14.466   0.480  10.648
39029SOL     OW18925  10.543   8.594  11.705
39029SOL    HW118926  10.551   8.688  11.692
39029SOL    HW218927  10.592   8.555  11.632
39030SOL     OW18928   5.677  11.502  10.256
39030SOL    HW118929   5.609  11.537  10.314
39030SOL    HW218930   5.708  11.423  10.300
39031SOL     OW18931   6.286   5.938   7.166
39031SOL    HW118932   6.327   5.897   7.243
39031SOL    HW218933   6.279   6.031   7.189
39032SOL     OW18934   3.795   4.674   7.760
39032SOL    HW118935   3.861   4.725   7.807
39032SOL    HW218936   3.732   4.649   7.828
39033SOL     OW18937  13.021  12.779   1.830
39033SOL    HW118938  12.938  12.812   1.795
39033SOL    HW218939  13.075  12.857   1.842
39034SOL     OW18940   9.882   6.578  10.687
39034SOL    HW118941   9.836   6.638  10.628
39034SOL    HW218942   9.972   6.608  10.686
39035SOL     OW18943  14.102  11.865   0.562
39035SOL    HW118944  14.089  11.878   0.656
39035SOL    HW218945  14.124  11.952   0.529
39036SOL     OW18946  10.278  10.664  12.705
39036SOL    HW118947  10.256  10.721  12.778
39036SOL    HW218948  10.274  10.576  12.742
39037SOL     OW18949   0.174  14.106   4.037
39037SOL    HW118950   0.111  14.058   4.091
39037SOL    HW218951   0.231  14.038   4.002
39038SOL     OW18952  13.204  14.818  10.585
39038SOL    HW118953  13.118  14.852  10.609
39038SOL    HW218954  13.253   0.019  10.557
39039SOL     OW18955   0.863  11.454   5.273
39039SOL    HW118956   0.916  11.440   5.194
39039SOL    HW218957   0.865  11.549   5.286
39040SOL     OW18958  14.817   4.150   5.604
39040SOL    HW118959  14.856   4.097   5.674
39040SOL    HW218960  14.785   4.086   5.541
39041SOL     OW18961  12.415   0.700   2.198
39041SOL    HW118962  12.379   0.683   2.285
39041SOL    HW218963  12.509   0.691   2.209
39042SOL     OW18964   1.747   1.932   3.398
39042SOL    HW118965   1.681   1.864   3.406
39042SOL    HW218966   1.720   2.000   3.459
39043SOL     OW18967   3.897   8.125  11.382
39043SOL    HW118968   3.810   8.097  11.408
39043SOL    HW218969   3.952   8.048  11.394
39044SOL     OW18970   7.206   3.962  13.878
39044SOL    HW118971   7.282   3.911  13.850
39044SOL    HW218972   7.240   4.051  13.892
39045SOL     OW18973   1.666  14.163  12.263
39045SOL    HW118974   1.728  14.091  12.258
39045SOL    HW218975   1.582  14.125  12.236
39046SOL     OW18976  10.721   5.619  11.015
39046SOL    HW118977  10.670   5.590  11.090
39046SOL    HW218978  10.811   5.598  11.038
39047SOL     OW18979   9.837   2.173   4.914
39047SOL    HW118980   9.816   2.234   4.984
39047SOL    HW218981   9.756   2.165   4.864
39048SOL     OW18982   3.720  12.254   0.806
39048SOL    HW118983   3.800  12.220   0.847
39048SOL    HW218984   3.743  12.263   0.714
39049SOL     OW18985   7.181   3.870   0.535
39049SOL    HW118986   7.137   3.915   0.463
39049SOL    HW218987   7.109   3.841   0.592
39050SOL     OW18988   7.430   2.036  12.682
39050SOL    HW118989   7.456   1.944  12.681
39050SOL    HW218990   7.349   2.037  12.732
39051SOL     OW18991   0.196  10.060   3.040
39051SOL    HW118992   0.108  10.042   3.072
39051SOL    HW218993   0.251  10.054   3.118
39052SOL     OW18994   6.385   4.542   7.465
39052SOL    HW118995   6.353   4.452   7.478
39052SOL    HW218996   6.326   4.579   7.400
39053SOL     OW18997  10.972   7.823  12.208
39053SOL    HW118998  10.915   7.772  12.266
39053SOL    HW218999  11.055   7.829  12.255
39054SOL     OW19000   6.563  10.123   3.305
39054SOL    HW119001   6.544  10.106   3.213
39054SOL    HW219002   6.527  10.210   3.321
39055SOL     OW19003   3.302   0.105   7.001
39055SOL    HW119004   3.248   0.028   6.986
39055SOL    HW219005   3.298   0.154   6.918
39056SOL     OW19006  12.794   6.309  11.651
39056SOL    HW119007  12.848   6.333  11.576
39056SOL    HW219008  12.835   6.230  11.686
39057SOL     OW19009   7.230   2.962   5.702
39057SOL    HW119010   7.291   2.946   5.630
39057SOL    HW219011   7.147   2.923   5.673
39058SOL     OW19012   9.553   3.844  14.429
39058SOL    HW119013   9.585   3.754  14.424
39058SOL    HW219014   9.567   3.880  14.342
39059SOL     OW19015   1.766   3.885   0.100
39059SOL    HW119016   1.860   3.873   0.101
39059SOL    HW219017   1.748   3.930   0.017
39060SOL     OW19018  13.163   2.032   6.413
39060SOL    HW119019  13.212   2.083   6.478
39060SOL    HW219020  13.214   2.043   6.332
39061SOL     OW19021   3.910   0.967  10.203
39061SOL    HW119022   3.924   0.906  10.131
39061SOL    HW219023   3.954   1.048  10.175
39062SOL     OW19024  14.181   6.409  12.180
39062SOL    HW119025  14.265   6.378  12.147
39062SOL    HW219026  14.203   6.454  12.262
39063SOL     OW19027   0.238   3.704   7.720
39063SOL    HW119028   0.194   3.631   7.764
39063SOL    HW219029   0.327   3.672   7.704
39064SOL     OW19030   3.976  13.210  13.584
39064SOL    HW119031   4.067  13.234  13.570
39064SOL    HW219032   3.972  13.117  13.563
39065SOL     OW19033   1.601  12.548   5.031
39065SOL    HW119034   1.615  12.569   5.123
39065SOL    HW219035   1.595  12.633   4.987
39066SOL     OW19036   2.845   4.146   2.311
39066SOL    HW119037   2.817   4.057   2.289
39066SOL    HW219038   2.904   4.170   2.240
39067SOL     OW19039   3.067   4.221   3.889
39067SOL    HW119040   2.974   4.243   3.879
39067SOL    HW219041   3.108   4.303   3.916
39068SOL     OW19042   2.710  14.614   0.689
39068SOL    HW119043   2.645  14.664   0.738
39068SOL    HW219044   2.663  14.582   0.612
39069SOL     OW19045   2.514   5.106  12.477
39069SOL    HW119046   2.482   5.101  12.567
39069SOL    HW219047   2.438   5.085  12.422
39070SOL     OW19048  10.461   5.414  13.092
39070SOL    HW119049  10.388   5.354  13.076
39070SOL    HW219050  10.535   5.356  13.109
39071SOL     OW19051  14.393   2.041  14.369
39071SOL    HW119052  14.476   2.088  14.382
39071SOL    HW219053  14.326   2.109  14.375
39072SOL     OW19054   8.810   8.140  14.299
39072SOL    HW119055   8.854   8.223  14.316
39072SOL    HW219056   8.881   8.077  14.288
39073SOL     OW19057   3.464   9.704   9.237
39073SOL    HW119058   3.422   9.640   9.181
39073SOL    HW219059   3.491   9.654   9.314
39074SOL     OW19060   6.251  11.705   0.931
39074SOL    HW119061   6.273  11.633   0.872
39074SOL    HW219062   6.268  11.784   0.881
39075SOL     OW19063   0.515   4.808   4.873
39075SOL    HW119064   0.577   4.867   4.829
39075SOL    HW219065   0.485   4.858   4.949
39076SOL     OW19066   1.530   3.840   7.430
39076SOL    HW119067   1.576   3.922   7.408
39076SOL    HW219068   1.437   3.861   7.421
39077SOL     OW19069  10.733   2.371   9.075
39077SOL    HW119070  10.649   2.393   9.115
39077SOL    HW219071  10.777   2.316   9.140
39078SOL     OW19072   5.734  14.723  10.572
39078SOL    HW119073   5.654  14.740  10.523
39078SOL    HW219074   5.714  14.748  10.662
39079SOL     OW19075   3.084  11.436   6.618
39079SOL    HW119076   3.079  11.397   6.531
39079SOL    HW219077   3.040  11.521   6.608
39080SOL     OW19078   1.979   0.883   2.665
39080SOL    HW119079   1.968   0.911   2.574
39080SOL    HW219080   2.074   0.875   2.677
39081SOL     OW19081   7.096  10.285  11.993
39081SOL    HW119082   7.007  10.249  11.987
39081SOL    HW219083   7.082  10.378  12.013
39082SOL     OW19084   3.713  11.973   2.148
39082SOL    HW119085   3.721  11.890   2.101
39082SOL    HW219086   3.672  12.033   2.086
39083SOL     OW19087  10.332  14.579   6.145
39083SOL    HW119088  10.310  14.585   6.052
39083SOL    HW219089  10.413  14.527   6.147
39084SOL     OW19090  12.659  10.153   4.304
39084SOL    HW119091  12.646  10.062   4.332
39084SOL    HW219092  12.603  10.162   4.227
39085SOL     OW19093  11.204   2.762   3.789
39085SOL    HW119094  11.194   2.806   3.873
39085SOL    HW219095  11.118   2.768   3.749
39086SOL     OW19096   6.995   6.759   2.075
39086SOL    HW119097   6.963   6.732   1.990
39086SOL    HW219098   6.998   6.855   2.070
39087SOL     OW19099  12.032   7.739   3.116
39087SOL    HW119100  12.001   7.791   3.189
39087SOL    HW219101  12.076   7.664   3.156
39088SOL     OW19102  10.744  11.316  14.132
39088SOL    HW119103  10.810  11.364  14.082
39088SOL    HW219104  10.794  11.250  14.180
39089SOL     OW19105   2.206   1.575  12.273
39089SOL    HW119106   2.261   1.646  12.307
39089SOL    HW219107   2.257   1.496  12.288
39090SOL     OW19108   3.599  10.314   0.827
39090SOL    HW119109   3.641  10.289   0.909
39090SOL    HW219110   3.602  10.410   0.827
39091SOL     OW19111  14.797   6.410   2.995
39091SOL    HW119112  14.797   6.504   3.010
39091SOL    HW219113  14.759   6.372   3.074
39092SOL     OW19114   7.488   0.861   2.421
39092SOL    HW119115   7.396   0.878   2.401
39092SOL    HW219116   7.532   0.861   2.336
39093SOL     OW19117   1.613   5.511  11.976
39093SOL    HW119118   1.705   5.524  11.997
39093SOL    HW219119   1.606   5.418  11.956
39094SOL     OW19120  14.250   4.274  10.818
39094SOL    HW119121  14.317   4.206  10.817
39094SOL    HW219122  14.168   4.228  10.799
39095SOL     OW19123   6.913  10.138   5.845
39095SOL    HW119124   6.927  10.049   5.811
39095SOL    HW219125   6.818  10.148   5.848
39096SOL     OW19126   3.092   9.248   4.382
39096SOL    HW119127   3.050   9.321   4.428
39096SOL    HW219128   3.183   9.276   4.371
39097SOL     OW19129   7.961   5.087  13.611
39097SOL    HW119130   7.994   5.097  13.522
39097SOL    HW219131   7.867   5.107  13.604
39098SOL     OW19132   9.181   3.688   9.594
39098SOL    HW119133   9.209   3.773   9.629
39098SOL    HW219134   9.200   3.695   9.500
39099SOL     OW19135   0.026  13.754  10.633
39099SOL    HW119136  14.807  13.762  10.633
39099SOL    HW219137   0.057  13.840  10.662
39100SOL     OW19138   8.740   3.875  10.913
39100SOL    HW119139   8.708   3.800  10.963
39100SOL    HW219140   8.687   3.949  10.943
39101SOL     OW19141   2.280  14.126   9.752
39101SOL    HW119142   2.306  14.036   9.733
39101SOL    HW219143   2.347  14.157   9.814
39102SOL     OW19144   2.801  12.916   2.979
39102SOL    HW119145   2.847  12.983   3.029
39102SOL    HW219146   2.815  12.835   3.029
39103SOL     OW19147   3.585  11.236   7.424
39103SOL    HW119148   3.605  11.213   7.515
39103SOL    HW219149   3.590  11.153   7.377
39104SOL     OW19150   2.361  13.509   4.537
39104SOL    HW119151   2.270  13.537   4.531
39104SOL    HW219152   2.384  13.523   4.629
39105SOL     OW19153   4.942  14.022   3.274
39105SOL    HW119154   5.008  13.956   3.251
39105SOL    HW219155   4.863  13.971   3.292
39106SOL     OW19156  11.215  11.273   0.732
39106SOL    HW119157  11.289  11.214   0.749
39106SOL    HW219158  11.210  11.328   0.811
39107SOL     OW19159  14.715  12.069   5.283
39107SOL    HW119160  14.692  11.989   5.330
39107SOL    HW219161  14.805  12.055   5.254
39108SOL     OW19162   8.604  14.630   9.026
39108SOL    HW119163   8.632  14.710   9.071
39108SOL    HW219164   8.552  14.583   9.091
39109SOL     OW19165   6.013  12.776   2.974
39109SOL    HW119166   6.056  12.815   3.050
39109SOL    HW219167   5.923  12.809   2.978
39110SOL     OW19168   2.115  13.719  14.299
39110SOL    HW119169   2.160  13.801  14.278
39110SOL    HW219170   2.167  13.681  14.369
39111SOL     OW19171   9.179  13.259  14.309
39111SOL    HW119172   9.094  13.299  14.328
39111SOL    HW219173   9.166  13.166  14.327
39112SOL     OW19174  12.064   1.369  12.847
39112SOL    HW119175  12.121   1.371  12.924
39112SOL    HW219176  12.017   1.452  12.851
39113SOL     OW19177  12.097  13.431  10.888
39113SOL    HW119178  12.128  13.346  10.857
39113SOL    HW219179  12.024  13.453  10.830
39114SOL     OW19180  12.962   5.679   4.402
39114SOL    HW119181  12.967   5.583   4.403
39114SOL    HW219182  12.997   5.703   4.316
39115SOL     OW19183   8.907   2.892   7.357
39115SOL    HW119184   8.970   2.856   7.419
39115SOL    HW219185   8.877   2.816   7.308
39116SOL     OW19186  13.894  10.293   3.567
39116SOL    HW119187  13.978  10.334   3.587
39116SOL    HW219188  13.916  10.214   3.519
39117SOL     OW19189   6.976   0.195   9.150
39117SOL    HW119190   6.936   0.118   9.110
39117SOL    HW219191   6.946   0.268   9.097
39118SOL     OW19192   6.200   1.287   9.442
39118SOL    HW119193   6.255   1.216   9.408
39118SOL    HW219194   6.130   1.242   9.489
39119SOL     OW19195   7.013   3.832   9.923
39119SOL    HW119196   7.092   3.887   9.923
39119SOL    HW219197   7.016   3.788  10.007
39120SOL     OW19198   0.972  13.629  14.360
39120SOL    HW119199   0.902  13.648  14.422
39120SOL    HW219200   1.048  13.676  14.393
39121SOL     OW19201   5.868   0.457   1.116
39121SOL    HW119202   5.913   0.535   1.149
39121SOL    HW219203   5.930   0.385   1.130
39122SOL     OW19204  10.236   9.693  10.726
39122SOL    HW119205  10.167   9.711  10.662
39122SOL    HW219206  10.317   9.719  10.682
39123SOL     OW19207   0.595   0.154  10.423
39123SOL    HW119208   0.602   0.079  10.482
39123SOL    HW219209   0.655   0.219  10.461
39124SOL     OW19210   4.543   6.211   7.572
39124SOL    HW119211   4.469   6.266   7.598
39124SOL    HW219212   4.507   6.123   7.565
39125SOL     OW19213   8.137   1.085   0.753
39125SOL    HW119214   8.172   1.111   0.838
39125SOL    HW219215   8.158   1.158   0.695
39126SOL     OW19216  11.928   5.371  11.133
39126SOL    HW119217  11.988   5.299  11.114
39126SOL    HW219218  11.844   5.328  11.149
39127SOL     OW19219   0.331  13.830   5.871
39127SOL    HW119220   0.362  13.752   5.826
39127SOL    HW219221   0.411  13.878   5.895
39128SOL     OW19222   0.798  14.605   3.640
39128SOL    HW119223   0.793  14.684   3.693
39128SOL    HW219224   0.720  14.607   3.585
39129SOL     OW19225  14.572   0.907   7.634
39129SOL    HW119226  14.661   0.941   7.631
39129SOL    HW219227  14.568   0.843   7.562
39130SOL     OW19228   3.272   4.193  13.000
39130SOL    HW119229   3.302   4.102  13.006
39130SOL    HW219230   3.226   4.208  13.083
39131SOL     OW19231  10.377   5.376  13.367
39131SOL    HW119232  10.323   5.314  13.318
39131SOL    HW219233  10.397   5.446  13.305
39132SOL     OW19234  13.749   3.360   2.027
39132SOL    HW119235  13.750   3.265   2.033
39132SOL    HW219236  13.817   3.380   1.962
39133SOL     OW19237   3.723   9.903   5.006
39133SOL    HW119238   3.691   9.984   5.046
39133SOL    HW219239   3.716   9.837   5.075
39134SOL     OW19240   2.942   2.646  12.837
39134SOL    HW119241   2.991   2.619  12.915
39134SOL    HW219242   2.850   2.635  12.862
39135SOL     OW19243  14.401   9.829   1.490
39135SOL    HW119244  14.343   9.757   1.514
39135SOL    HW219245  14.480   9.787   1.458
39136SOL     OW19246   8.544   7.727   8.509
39136SOL    HW119247   8.547   7.822   8.516
39136SOL    HW219248   8.505   7.697   8.591
39137SOL     OW19249   6.891  11.618   5.951
39137SOL    HW119250   6.977  11.609   5.910
39137SOL    HW219251   6.830  11.588   5.884
39138SOL     OW19252  10.897   9.108   5.000
39138SOL    HW119253  10.850   9.141   5.077
39138SOL    HW219254  10.896   9.013   5.011
39139SOL     OW19255  11.913   6.219   7.819
39139SOL    HW119256  11.852   6.145   7.821
39139SOL    HW219257  11.868   6.286   7.767
39140SOL     OW19258   5.437   2.706  10.601
39140SOL    HW119259   5.444   2.728  10.694
39140SOL    HW219260   5.347   2.676  10.590
39141SOL     OW19261   3.552   3.302  11.334
39141SOL    HW119262   3.565   3.389  11.373
39141SOL    HW219263   3.461   3.280  11.352
39142SOL     OW19264  13.024  14.283   6.596
39142SOL    HW119265  13.009  14.271   6.689
39142SOL    HW219266  13.068  14.368   6.589
39143SOL     OW19267   6.423   6.349  12.696
39143SOL    HW119268   6.334   6.371  12.670
39143SOL    HW219269   6.413   6.278  12.759
39144SOL     OW19270   5.022   9.690   5.002
39144SOL    HW119271   5.056   9.779   5.009
39144SOL    HW219272   4.930   9.697   5.029
39145SOL     OW19273   4.237   9.684  12.229
39145SOL    HW119274   4.183   9.608  12.205
39145SOL    HW219275   4.179   9.759  12.221
39146SOL     OW19276  14.334   2.501   7.527
39146SOL    HW119277  14.364   2.478   7.439
39146SOL    HW219278  14.264   2.565   7.512
39147SOL     OW19279   4.575   4.502   1.874
39147SOL    HW119280   4.582   4.414   1.838
39147SOL    HW219281   4.648   4.550   1.834
39148SOL     OW19282   0.742   7.079   3.753
39148SOL    HW119283   0.750   7.159   3.700
39148SOL    HW219284   0.730   7.009   3.689
39149SOL     OW19285   3.453   3.980  10.399
39149SOL    HW119286   3.517   4.004  10.467
39149SOL    HW219287   3.406   4.062  10.381
39150SOL     OW19288   4.345   9.888  13.521
39150SOL    HW119289   4.251   9.897  13.538
39150SOL    HW219290   4.373   9.974  13.490
39151SOL     OW19291   8.786  12.721   9.349
39151SOL    HW119292   8.820  12.763   9.270
39151SOL    HW219293   8.813  12.779   9.421
39152SOL     OW19294  10.881  10.019   2.561
39152SOL    HW119295  10.952   9.980   2.611
39152SOL    HW219296  10.919  10.098   2.523
39153SOL     OW19297   6.324   3.768   4.904
39153SOL    HW119298   6.306   3.810   4.820
39153SOL    HW219299   6.303   3.836   4.969
39154SOL     OW19300  12.953  11.699   8.525
39154SOL    HW119301  12.921  11.620   8.481
39154SOL    HW219302  13.039  11.714   8.487
39155SOL     OW19303  10.340   3.577  14.149
39155SOL    HW119304  10.264   3.530  14.113
39155SOL    HW219305  10.338   3.557  14.243
39156SOL     OW19306   5.444  14.500  11.680
39156SOL    HW119307   5.438  14.579  11.733
39156SOL    HW219308   5.519  14.452  11.715
39157SOL     OW19309   7.682   1.406  10.482
39157SOL    HW119310   7.641   1.322  10.501
39157SOL    HW219311   7.757   1.409  10.541
39158SOL     OW19312   5.073   9.963   9.378
39158SOL    HW119313   5.089   9.956   9.284
39158SOL    HW219314   5.012  10.036   9.387
39159SOL     OW19315   9.195   9.237   5.076
39159SOL    HW119316   9.230   9.315   5.034
39159SOL    HW219317   9.236   9.164   5.030
39160SOL     OW19318  10.425   5.476   6.627
39160SOL    HW119319  10.493   5.528   6.669
39160SOL    HW219320  10.342   5.511   6.660
39161SOL     OW19321   8.531   1.217   8.257
39161SOL    HW119322   8.588   1.215   8.180
39161SOL    HW219323   8.557   1.295   8.305
39162SOL     OW19324   6.259  13.133  10.241
39162SOL    HW119325   6.268  13.152  10.147
39162SOL    HW219326   6.166  13.146  10.259
39163SOL     OW19327   4.585   4.417  14.183
39163SOL    HW119328   4.522   4.488  14.197
39163SOL    HW219329   4.565   4.353  14.252
39164SOL     OW19330   1.939  14.592  11.584
39164SOL    HW119331   1.901  14.651  11.519
39164SOL    HW219332   2.034  14.601  11.571
39165SOL     OW19333   9.372  10.041  14.683
39165SOL    HW119334   9.277  10.033  14.683
39165SOL    HW219335   9.394  10.064  14.592
39166SOL     OW19336   6.011   4.858   2.664
39166SOL    HW119337   6.044   4.937   2.706
39166SOL    HW219338   5.994   4.798   2.737
39167SOL     OW19339  14.853  13.544  11.971
39167SOL    HW119340  14.862  13.512  11.881
39167SOL    HW219341  14.800  13.624  11.962
39168SOL     OW19342   5.743   0.736   6.267
39168SOL    HW119343   5.703   0.674   6.328
39168SOL    HW219344   5.676   0.802   6.252
39169SOL     OW19345  12.820  11.874  11.307
39169SOL    HW119346  12.849  11.966  11.307
39169SOL    HW219347  12.885  11.829  11.361
39170SOL     OW19348  10.719   1.377  13.089
39170SOL    HW119349  10.676   1.412  13.166
39170SOL    HW219350  10.804   1.346  13.121
39171SOL     OW19351   2.766   0.782  13.563
39171SOL    HW119352   2.812   0.770  13.480
39171SOL    HW219353   2.834   0.813  13.623
39172SOL     OW19354  13.869   8.931   6.391
39172SOL    HW119355  13.803   9.000   6.401
39172SOL    HW219356  13.822   8.857   6.354
39173SOL     OW19357  10.580   4.161  10.287
39173SOL    HW119358  10.599   4.197  10.374
39173SOL    HW219359  10.573   4.067  10.300
39174SOL     OW19360   1.699   1.789  12.594
39174SOL    HW119361   1.690   1.823  12.505
39174SOL    HW219362   1.609   1.777  12.624
39175SOL     OW19363   9.194  11.055   6.274
39175SOL    HW119364   9.142  11.130   6.244
39175SOL    HW219365   9.284  11.077   6.252
39176SOL     OW19366   4.547   9.914   2.176
39176SOL    HW119367   4.602   9.912   2.097
39176SOL    HW219368   4.465   9.951   2.146
39177SOL     OW19369   6.291  12.973   2.884
39177SOL    HW119370   6.320  12.912   2.817
39177SOL    HW219371   6.213  13.015   2.848
39178SOL     OW19372   7.940   6.103  13.226
39178SOL    HW119373   7.977   6.180  13.182
39178SOL    HW219374   7.879   6.067  13.162
39179SOL     OW19375   8.152  10.809   2.855
39179SOL    HW119376   8.059  10.801   2.835
39179SOL    HW219377   8.176  10.896   2.825
39180SOL     OW19378  13.718   0.529   2.811
39180SOL    HW119379  13.693   0.442   2.845
39180SOL    HW219380  13.636   0.566   2.779
39181SOL     OW19381   1.391   7.845   3.586
39181SOL    HW119382   1.460   7.910   3.573
39181SOL    HW219383   1.329   7.887   3.646
39182SOL     OW19384   3.768   8.037   4.180
39182SOL    HW119385   3.800   8.117   4.139
39182SOL    HW219386   3.750   7.978   4.107
39183SOL     OW19387  14.721   8.330  13.311
39183SOL    HW119388  14.697   8.412  13.268
39183SOL    HW219389  14.661   8.265  13.275
39184SOL     OW19390   6.203   5.849   5.507
39184SOL    HW119391   6.284   5.855   5.457
39184SOL    HW219392   6.159   5.933   5.492
39185SOL     OW19393   3.906  10.163   1.046
39185SOL    HW119394   3.944  10.078   1.068
39185SOL    HW219395   3.814  10.156   1.073
39186SOL     OW19396   1.634  13.424  10.094
39186SOL    HW119397   1.548  13.437  10.135
39186SOL    HW219398   1.620  13.353  10.031
39187SOL     OW19399   5.831   0.889   5.823
39187SOL    HW119400   5.830   0.834   5.901
39187SOL    HW219401   5.751   0.866   5.777
39188SOL     OW19402  10.139   2.443   8.374
39188SOL    HW119403  10.183   2.528   8.383
39188SOL    HW219404  10.057   2.454   8.422
39189SOL     OW19405  11.764   9.940   6.758
39189SOL    HW119406  11.804   9.960   6.674
39189SOL    HW219407  11.821   9.875   6.798
39190SOL     OW19408   8.242   5.193   9.780
39190SOL    HW119409   8.188   5.188   9.701
39190SOL    HW219410   8.277   5.105   9.791
39191SOL     OW19411  10.468   3.054   2.785
39191SOL    HW119412  10.523   3.131   2.769
39191SOL    HW219413  10.412   3.079   2.858
39192SOL     OW19414   6.285  12.020  13.085
39192SOL    HW119415   6.348  12.034  13.014
39192SOL    HW219416   6.296  11.928  13.109
39193SOL     OW19417   4.483   9.142   9.614
39193SOL    HW119418   4.461   9.049   9.623
39193SOL    HW219419   4.401   9.184   9.589
39194SOL     OW19420   4.198   6.405  12.041
39194SOL    HW119421   4.104   6.392  12.032
39194SOL    HW219422   4.219   6.475  11.979
39195SOL     OW19423   1.545   5.066   2.577
39195SOL    HW119424   1.547   5.042   2.485
39195SOL    HW219425   1.455   5.051   2.605
39196SOL     OW19426   5.977   7.247   3.229
39196SOL    HW119427   5.892   7.251   3.272
39196SOL    HW219428   6.035   7.205   3.293
39197SOL     OW19429   8.966   2.834   3.656
39197SOL    HW119430   8.894   2.896   3.661
39197SOL    HW219431   9.031   2.877   3.600
39198SOL     OW19432  11.898   7.765   9.992
39198SOL    HW119433  11.822   7.759   9.935
39198SOL    HW219434  11.914   7.675  10.020
39199SOL     OW19435   3.180   9.780  13.915
39199SOL    HW119436   3.244   9.741  13.857
39199SOL    HW219437   3.227   9.794  13.997
39200SOL     OW19438   4.375   5.488   4.462
39200SOL    HW119439   4.363   5.437   4.542
39200SOL    HW219440   4.356   5.578   4.488
39201SOL     OW19441   5.720   9.550  11.583
39201SOL    HW119442   5.752   9.485  11.519
39201SOL    HW219443   5.793   9.560  11.644
39202SOL     OW19444   3.845   6.704   3.860
39202SOL    HW119445   3.939   6.685   3.864
39202SOL    HW219446   3.803   6.620   3.879
39203SOL     OW19447   5.170   7.905   1.474
39203SOL    HW119448   5.146   7.816   1.448
39203SOL    HW219449   5.107   7.927   1.543
39204SOL     OW19450  12.919   2.142   0.365
39204SOL    HW119451  12.883   2.212   0.312
39204SOL    HW219452  12.842   2.103   0.409
39205SOL     OW19453   8.957  14.129  11.715
39205SOL    HW119454   8.900  14.054  11.699
39205SOL    HW219455   9.001  14.110  11.798
39206SOL     OW19456   4.599   9.637  10.788
39206SOL    HW119457   4.551   9.692  10.851
39206SOL    HW219458   4.647   9.575  10.842
39207SOL     OW19459   5.381   7.195   1.015
39207SOL    HW119460   5.321   7.176   0.944
39207SOL    HW219461   5.444   7.122   1.013
39208SOL     OW19462  11.421  11.142   3.680
39208SOL    HW119463  11.431  11.116   3.772
39208SOL    HW219464  11.329  11.166   3.671
39209SOL     OW19465   5.118  12.374  14.796
39209SOL    HW119466   5.092  12.287  14.824
39209SOL    HW219467   5.041  12.429  14.811
39210SOL     OW19468   9.258  12.293   0.870
39210SOL    HW119469   9.222  12.240   0.941
39210SOL    HW219470   9.325  12.347   0.912
39211SOL     OW19471   0.124   8.368   5.236
39211SOL    HW119472   0.055   8.385   5.300
39211SOL    HW219473   0.147   8.276   5.250
39212SOL     OW19474   6.677   2.699  11.898
39212SOL    HW119475   6.712   2.729  11.982
39212SOL    HW219476   6.718   2.614  11.883
39213SOL     OW19477   2.075   0.341  13.395
39213SOL    HW119478   2.145   0.347  13.460
39213SOL    HW219479   2.004   0.295  13.440
39214SOL     OW19480  11.219  14.808  11.063
39214SOL    HW119481  11.220  14.803  11.159
39214SOL    HW219482  11.264  14.728  11.035
39215SOL     OW19483   7.400   7.951   6.168
39215SOL    HW119484   7.357   8.014   6.226
39215SOL    HW219485   7.350   7.955   6.087
39216SOL     OW19486   8.093  12.811  12.311
39216SOL    HW119487   8.181  12.848  12.308
39216SOL    HW219488   8.094  12.753  12.386
39217SOL     OW19489   6.448   0.563   1.846
39217SOL    HW119490   6.497   0.554   1.765
39217SOL    HW219491   6.394   0.640   1.833
39218SOL     OW19492  12.099  10.672  12.044
39218SOL    HW119493  12.015  10.669  12.090
39218SOL    HW219494  12.154  10.729  12.098
39219SOL     OW19495   6.533   2.928  10.230
39219SOL    HW119496   6.481   2.848  10.223
39219SOL    HW219497   6.485   2.983  10.292
39220SOL     OW19498  14.843   8.404   7.460
39220SOL    HW119499  14.858   8.489   7.501
39220SOL    HW219500   0.054   8.370   7.441
39221SOL     OW19501   9.037   5.080   5.792
39221SOL    HW119502   9.066   5.140   5.861
39221SOL    HW219503   8.943   5.069   5.807
39222SOL     OW19504   3.268   6.776   4.410
39222SOL    HW119505   3.345   6.719   4.408
39222SOL    HW219506   3.202   6.725   4.458
39223SOL     OW19507   1.130   5.603   1.939
39223SOL    HW119508   1.054   5.560   1.979
39223SOL    HW219509   1.204   5.549   1.965
39224SOL     OW19510   4.140   0.231   3.958
39224SOL    HW119511   4.101   0.284   4.028
39224SOL    HW219512   4.219   0.193   3.998
39225SOL     OW19513  12.797   0.675   0.544
39225SOL    HW119514  12.830   0.652   0.630
39225SOL    HW219515  12.708   0.706   0.559
39226SOL     OW19516   2.003  11.054   9.346
39226SOL    HW119517   1.925  11.041   9.399
39226SOL    HW219518   2.003  11.148   9.327
39227SOL     OW19519   2.354   6.823   5.537
39227SOL    HW119520   2.371   6.898   5.480
39227SOL    HW219521   2.361   6.747   5.480
39228SOL     OW19522   5.512  14.567   6.518
39228SOL    HW119523   5.512  14.624   6.441
39228SOL    HW219524   5.474  14.485   6.486
39229SOL     OW19525   1.955   5.432   5.080
39229SOL    HW119526   1.986   5.364   5.139
39229SOL    HW219527   2.033   5.484   5.060
39230SOL     OW19528  13.239  10.645  13.710
39230SOL    HW119529  13.294  10.721  13.691
39230SOL    HW219530  13.300  10.575  13.731
39231SOL     OW19531  10.097  11.698   1.139
39231SOL    HW119532  10.156  11.634   1.178
39231SOL    HW219533  10.153  11.754   1.085
39232SOL     OW19534   0.581   5.686   5.415
39232SOL    HW119535   0.494   5.724   5.411
39232SOL    HW219536   0.631   5.733   5.348
39233SOL     OW19537   1.315   7.511  12.888
39233SOL    HW119538   1.389   7.511  12.827
39233SOL    HW219539   1.307   7.603  12.915
39234SOL     OW19540  11.570   1.205   5.491
39234SOL    HW119541  11.587   1.278   5.550
39234SOL    HW219542  11.631   1.216   5.419
39235SOL     OW19543   3.666  12.858   3.906
39235SOL    HW119544   3.637  12.870   3.996
39235SOL    HW219545   3.676  12.763   3.896
39236SOL     OW19546   9.681   2.737   3.108
39236SOL    HW119547   9.692   2.807   3.044
39236SOL    HW219548   9.740   2.668   3.077
39237SOL     OW19549   4.406   5.935  13.368
39237SOL    HW119550   4.419   6.029  13.374
39237SOL    HW219551   4.326   5.925  13.316
39238SOL     OW19552  11.745  11.264   8.290
39238SOL    HW119553  11.805  11.191   8.278
39238SOL    HW219554  11.661  11.222   8.311
39239SOL     OW19555   9.828   9.776   1.021
39239SOL    HW119556   9.881   9.732   0.954
39239SOL    HW219557   9.749   9.803   0.975
39240SOL     OW19558  10.657  12.140  14.399
39240SOL    HW119559  10.732  12.161  14.344
39240SOL    HW219560  10.671  12.049  14.425
39241SOL     OW19561   7.163   1.701  14.677
39241SOL    HW119562   7.233   1.636  14.670
39241SOL    HW219563   7.175   1.740  14.763
39242SOL     OW19564   2.378   9.785   1.514
39242SOL    HW119565   2.334   9.854   1.464
39242SOL    HW219566   2.324   9.773   1.592
39243SOL     OW19567   8.627  10.916   0.922
39243SOL    HW119568   8.630  10.834   0.971
39243SOL    HW219569   8.682  10.900   0.845
39244SOL     OW19570  12.587   0.151  10.450
39244SOL    HW119571  12.574   0.067  10.408
39244SOL    HW219572  12.548   0.215  10.390
39245SOL     OW19573  14.566   7.025   2.157
39245SOL    HW119574  14.624   7.092   2.122
39245SOL    HW219575  14.605   7.002   2.242
39246SOL     OW19576  11.709  13.438   6.083
39246SOL    HW119577  11.788  13.395   6.051
39246SOL    HW219578  11.716  13.432   6.179
39247SOL     OW19579  12.003  12.976  12.066
39247SOL    HW119580  12.036  12.890  12.041
39247SOL    HW219581  11.960  13.009  11.987
39248SOL     OW19582   4.383   1.718   2.485
39248SOL    HW119583   4.345   1.699   2.571
39248SOL    HW219584   4.470   1.680   2.488
39249SOL     OW19585   8.730   4.885   7.324
39249SOL    HW119586   8.804   4.845   7.370
39249SOL    HW219587   8.770   4.931   7.250
39250SOL     OW19588   5.175   4.915  13.603
39250SOL    HW119589   5.200   5.002  13.636
39250SOL    HW219590   5.259   4.872  13.584
39251SOL     OW19591  12.792  11.474   6.128
39251SOL    HW119592  12.839  11.527   6.192
39251SOL    HW219593  12.703  11.467   6.163
39252SOL     OW19594   2.198   9.196   4.684
39252SOL    HW119595   2.230   9.281   4.715
39252SOL    HW219596   2.278   9.145   4.670
39253SOL     OW19597   8.541   5.885  14.322
39253SOL    HW119598   8.609   5.945  14.291
39253SOL    HW219599   8.555   5.879  14.416
39254SOL     OW19600   8.189   5.459  11.317
39254SOL    HW119601   8.263   5.473  11.258
39254SOL    HW219602   8.125   5.410  11.266
39255SOL     OW19603   8.670  14.037   2.371
39255SOL    HW119604   8.604  13.970   2.389
39255SOL    HW219605   8.654  14.105   2.437
39256SOL     OW19606  11.201  12.746   6.276
39256SOL    HW119607  11.254  12.667   6.265
39256SOL    HW219608  11.117  12.725   6.234
39257SOL     OW19609   0.511  13.146   4.144
39257SOL    HW119610   0.592  13.121   4.098
39257SOL    HW219611   0.540  13.176   4.230
39258SOL     OW19612  10.991   6.385   5.758
39258SOL    HW119613  11.061   6.384   5.823
39258SOL    HW219614  10.949   6.470   5.769
39259SOL     OW19615   8.504  11.365  13.063
39259SOL    HW119616   8.520  11.272  13.075
39259SOL    HW219617   8.568  11.408  13.120
39260SOL     OW19618  12.189   8.714   5.565
39260SOL    HW119619  12.276   8.686   5.592
39260SOL    HW219620  12.148   8.635   5.530
39261SOL     OW19621   5.867  10.482   2.487
39261SOL    HW119622   5.787  10.432   2.472
39261SOL    HW219623   5.867  10.499   2.581
39262SOL     OW19624   7.153  13.616  11.691
39262SOL    HW119625   7.119  13.583  11.774
39262SOL    HW219626   7.164  13.538  11.637
39263SOL     OW19627   3.886   7.462  12.898
39263SOL    HW119628   3.828   7.414  12.957
39263SOL    HW219629   3.852   7.442  12.811
39264SOL     OW19630  10.637   8.825   8.035
39264SOL    HW119631  10.623   8.907   7.986
39264SOL    HW219632  10.656   8.854   8.124
39265SOL     OW19633  13.702  13.988   2.030
39265SOL    HW119634  13.673  13.966   1.941
39265SOL    HW219635  13.640  13.942   2.087
39266SOL     OW19636  12.022  10.797  12.646
39266SOL    HW119637  11.928  10.785  12.657
39266SOL    HW219638  12.062  10.734  12.705
39267SOL     OW19639  14.155  12.154  10.553
39267SOL    HW119640  14.199  12.096  10.615
39267SOL    HW219641  14.221  12.221  10.531
39268SOL     OW19642   2.564   6.204   9.495
39268SOL    HW119643   2.492   6.265   9.483
39268SOL    HW219644   2.526   6.132   9.546
39269SOL     OW19645   3.659   5.233   1.789
39269SOL    HW119646   3.603   5.172   1.741
39269SOL    HW219647   3.748   5.198   1.778
39270SOL     OW19648  10.288   2.947   0.436
39270SOL    HW119649  10.331   2.981   0.514
39270SOL    HW219650  10.211   3.002   0.424
39271SOL     OW19651   3.522  14.319   3.272
39271SOL    HW119652   3.561  14.238   3.240
39271SOL    HW219653   3.581  14.388   3.241
39272SOL     OW19654   5.673  10.081  13.664
39272SOL    HW119655   5.603  10.017  13.653
39272SOL    HW219656   5.675  10.129  13.581
39273SOL     OW19657   4.364   9.141   0.249
39273SOL    HW119658   4.282   9.096   0.231
39273SOL    HW219659   4.339   9.234   0.255
39274SOL     OW19660  13.290   6.324   1.353
39274SOL    HW119661  13.255   6.275   1.279
39274SOL    HW219662  13.373   6.359   1.321
39275SOL     OW19663  12.564  12.782   5.937
39275SOL    HW119664  12.543  12.854   5.997
39275SOL    HW219665  12.574  12.824   5.851
39276SOL     OW19666  10.350   4.886   6.823
39276SOL    HW119667  10.347   4.816   6.758
39276SOL    HW219668  10.320   4.964   6.776
39277SOL     OW19669   6.956  12.076   7.871
39277SOL    HW119670   7.027  12.093   7.933
39277SOL    HW219671   6.879  12.062   7.926
39278SOL     OW19672   7.765  12.019   4.551
39278SOL    HW119673   7.855  11.998   4.526
39278SOL    HW219674   7.763  12.007   4.646
39279SOL     OW19675   6.964   2.953   3.459
39279SOL    HW119676   7.045   2.997   3.429
39279SOL    HW219677   6.933   2.906   3.382
39280SOL     OW19678  12.534   6.157   0.775
39280SOL    HW119679  12.451   6.206   0.774
39280SOL    HW219680  12.574   6.181   0.859
39281SOL     OW19681   7.217  13.802   7.807
39281SOL    HW119682   7.154  13.871   7.825
39281SOL    HW219683   7.291  13.847   7.766
39282SOL     OW19684   2.466   2.917  12.563
39282SOL    HW119685   2.383   2.958  12.588
39282SOL    HW219686   2.533   2.968  12.609
39283SOL     OW19687   3.002   3.355   8.821
39283SOL    HW119688   2.906   3.357   8.828
39283SOL    HW219689   3.024   3.439   8.780
39284SOL     OW19690  12.408   2.641  14.631
39284SOL    HW119691  12.445   2.598  14.708
39284SOL    HW219692  12.400   2.733  14.656
39285SOL     OW19693  13.449   2.538   0.785
39285SOL    HW119694  13.404   2.511   0.705
39285SOL    HW219695  13.458   2.457   0.836
39286SOL     OW19696  10.685  12.661   3.125
39286SOL    HW119697  10.694  12.728   3.193
39286SOL    HW219698  10.632  12.592   3.165
39287SOL     OW19699  10.976   4.379   4.449
39287SOL    HW119700  10.964   4.293   4.410
39287SOL    HW219701  10.890   4.400   4.485
39288SOL     OW19702  12.118   5.695   1.378
39288SOL    HW119703  12.141   5.773   1.429
39288SOL    HW219704  12.191   5.635   1.391
39289SOL     OW19705   5.218  14.468  14.735
39289SOL    HW119706   5.136  14.424  14.760
39289SOL    HW219707   5.266  14.477  14.817
39290SOL     OW19708  11.120   7.729   8.373
39290SOL    HW119709  11.206   7.691   8.351
39290SOL    HW219710  11.077   7.661   8.425
39291SOL     OW19711  11.845  12.141  10.597
39291SOL    HW119712  11.794  12.095  10.664
39291SOL    HW219713  11.792  12.135  10.518
39292SOL     OW19714   0.328  11.532   5.381
39292SOL    HW119715   0.341  11.623   5.355
39292SOL    HW219716   0.415  11.492   5.372
39293SOL     OW19717   8.513   6.225  13.913
39293SOL    HW119718   8.594   6.230  13.861
39293SOL    HW219719   8.452   6.178  13.857
39294SOL     OW19720   2.573   3.917   4.216
39294SOL    HW119721   2.626   3.961   4.282
39294SOL    HW219722   2.634   3.858   4.171
39295SOL     OW19723  12.469   5.939   3.234
39295SOL    HW119724  12.401   5.982   3.182
39295SOL    HW219725  12.551   5.979   3.204
39296SOL     OW19726   0.856   5.252  11.872
39296SOL    HW119727   0.941   5.211  11.854
39296SOL    HW219728   0.794   5.180  11.873
39297SOL     OW19729  10.546   8.011  10.032
39297SOL    HW119730  10.557   7.921  10.061
39297SOL    HW219731  10.628   8.032   9.987
39298SOL     OW19732   6.556  12.769   6.676
39298SOL    HW119733   6.641  12.788   6.635
39298SOL    HW219734   6.529  12.687   6.636
39299SOL     OW19735   5.917   9.948  14.029
39299SOL    HW119736   5.979   9.875  14.038
39299SOL    HW219737   5.940   9.989  13.945
39300SOL     OW19738   8.661  13.543   3.057
39300SOL    HW119739   8.683  13.602   2.985
39300SOL    HW219740   8.583  13.583   3.097
39301SOL     OW19741   7.987   1.337   3.556
39301SOL    HW119742   7.976   1.293   3.640
39301SOL    HW219743   7.969   1.429   3.575
39302SOL     OW19744   2.427   7.851   0.856
39302SOL    HW119745   2.353   7.901   0.891
39302SOL    HW219746   2.450   7.895   0.774
39303SOL     OW19747  14.847   3.191   7.898
39303SOL    HW119748  14.754   3.204   7.880
39303SOL    HW219749   0.014   3.218   7.817
39304SOL     OW19750   1.641  11.126   0.061
39304SOL    HW119751   1.723  11.122   0.109
39304SOL    HW219752   1.607  11.036   0.064
39305SOL     OW19753  13.072   5.966   2.463
39305SOL    HW119754  13.083   6.001   2.551
39305SOL    HW219755  12.980   5.939   2.459
39306SOL     OW19756   5.244   2.594   9.328
39306SOL    HW119757   5.340   2.588   9.326
39306SOL    HW219758   5.214   2.510   9.292
39307SOL     OW19759   3.526  13.347  12.662
39307SOL    HW119760   3.496  13.260  12.634
39307SOL    HW219761   3.448  13.402  12.659
39308SOL     OW19762   3.258  13.586  14.220
39308SOL    HW119763   3.208  13.653  14.267
39308SOL    HW219764   3.211  13.574  14.138
39309SOL     OW19765   9.538   8.964  12.046
39309SOL    HW119766   9.448   8.932  12.057
39309SOL    HW219767   9.592   8.897  12.088
39310SOL     OW19768   8.886  12.747  14.197
39310SOL    HW119769   8.908  12.726  14.288
39310SOL    HW219770   8.859  12.839  14.199
39311SOL     OW19771  14.626   2.574   3.487
39311SOL    HW119772  14.639   2.655   3.537
39311SOL    HW219773  14.714   2.538   3.478
39312SOL     OW19774  12.857  11.516   7.780
39312SOL    HW119775  12.892  11.583   7.839
39312SOL    HW219776  12.773  11.553   7.751
39313SOL     OW19777   4.876   7.213  13.202
39313SOL    HW119778   4.970   7.199  13.210
39313SOL    HW219779   4.840   7.127  13.183
39314SOL     OW19780  11.923   4.345  10.562
39314SOL    HW119781  12.018   4.351  10.570
39314SOL    HW219782  11.904   4.251  10.557
39315SOL     OW19783   9.636   4.492   5.481
39315SOL    HW119784   9.729   4.506   5.502
39315SOL    HW219785   9.620   4.547   5.405
39316SOL     OW19786   3.573  10.546   9.359
39316SOL    HW119787   3.531  10.487   9.296
39316SOL    HW219788   3.663  10.553   9.329
39317SOL     OW19789  10.259  12.261   6.847
39317SOL    HW119790  10.272  12.170   6.818
39317SOL    HW219791  10.205  12.254   6.925
39318SOL     OW19792  12.999  14.706   5.320
39318SOL    HW119793  12.964  14.691   5.232
39318SOL    HW219794  12.931  14.673   5.378
39319SOL     OW19795  11.487   9.419  12.185
39319SOL    HW119796  11.469   9.448  12.274
39319SOL    HW219797  11.434   9.477  12.130
39320SOL     OW19798  14.712  12.740  11.397
39320SOL    HW119799  14.744  12.747  11.487
39320SOL    HW219800  14.629  12.788  11.397
39321SOL     OW19801   8.080   9.591  12.407
39321SOL    HW119802   8.017   9.646  12.453
39321SOL    HW219803   8.098   9.638  12.326
39322SOL     OW19804   4.708   8.940  12.363
39322SOL    HW119805   4.802   8.934  12.381
39322SOL    HW219806   4.702   8.936  12.267
39323SOL     OW19807   2.333   4.774  13.891
39323SOL    HW119808   2.327   4.747  13.800
39323SOL    HW219809   2.405   4.724  13.927
39324SOL     OW19810   5.443  10.080  14.798
39324SOL    HW119811   5.491  10.039  14.871
39324SOL    HW219812   5.387  10.010  14.765
39325SOL     OW19813   8.966  12.193   6.650
39325SOL    HW119814   8.962  12.277   6.604
39325SOL    HW219815   8.911  12.205   6.727
39326SOL     OW19816   4.217  13.067   2.483
39326SOL    HW119817   4.231  12.996   2.546
39326SOL    HW219818   4.153  13.124   2.526
39327SOL     OW19819   5.446  10.078   8.715
39327SOL    HW119820   5.461   9.983   8.707
39327SOL    HW219821   5.508  10.106   8.782
39328SOL     OW19822   3.559   1.624  13.549
39328SOL    HW119823   3.555   1.550  13.489
39328SOL    HW219824   3.468   1.637  13.577
39329SOL     OW19825  11.339   5.717   9.950
39329SOL    HW119826  11.288   5.796   9.933
39329SOL    HW219827  11.298   5.679  10.028
39330SOL     OW19828  11.637   9.824  12.044
39330SOL    HW119829  11.650   9.746  12.098
39330SOL    HW219830  11.624   9.895  12.107
39331SOL     OW19831   9.212   8.334   0.988
39331SOL    HW119832   9.266   8.256   0.985
39331SOL    HW219833   9.252   8.394   0.924
39332SOL     OW19834  14.537   3.702   4.796
39332SOL    HW119835  14.555   3.746   4.713
39332SOL    HW219836  14.606   3.732   4.855
39333SOL     OW19837  14.771   9.167   5.048
39333SOL    HW119838  14.783   9.194   4.957
39333SOL    HW219839  14.822   9.086   5.056
39334SOL     OW19840   3.271   3.460   0.648
39334SOL    HW119841   3.301   3.470   0.738
39334SOL    HW219842   3.274   3.365   0.632
39335SOL     OW19843  10.077   8.294  11.068
39335SOL    HW119844  10.041   8.359  11.128
39335SOL    HW219845  10.029   8.307  10.986
39336SOL     OW19846   4.761  13.317  12.321
39336SOL    HW119847   4.779  13.248  12.385
39336SOL    HW219848   4.680  13.357  12.351
39337SOL     OW19849   8.667   5.932   3.262
39337SOL    HW119850   8.609   5.991   3.310
39337SOL    HW219851   8.644   5.845   3.295
39338SOL     OW19852   4.921   2.240  10.194
39338SOL    HW119853   4.846   2.300  10.193
39338SOL    HW219854   4.914   2.195  10.277
39339SOL     OW19855  12.700   2.859   2.106
39339SOL    HW119856  12.703   2.891   2.197
39339SOL    HW219857  12.682   2.937   2.054
39340SOL     OW19858   4.555   3.296   2.201
39340SOL    HW119859   4.550   3.341   2.117
39340SOL    HW219860   4.490   3.226   2.194
39341SOL     OW19861   8.308   1.872   2.247
39341SOL    HW119862   8.368   1.886   2.320
39341SOL    HW219863   8.254   1.951   2.245
39342SOL     OW19864  13.182  14.529   3.681
39342SOL    HW119865  13.227  14.558   3.760
39342SOL    HW219866  13.121  14.601   3.661
39343SOL     OW19867   3.794  13.098  13.858
39343SOL    HW119868   3.869  13.039  13.873
39343SOL    HW219869   3.831  13.170  13.806
39344SOL     OW19870  13.263  14.641  14.302
39344SOL    HW119871  13.343  14.690  14.319
39344SOL    HW219872  13.227  14.622  14.388
39345SOL     OW19873  11.563  14.449   1.477
39345SOL    HW119874  11.493  14.500   1.517
39345SOL    HW219875  11.543  14.448   1.384
39346SOL     OW19876   2.893   5.890   8.664
39346SOL    HW119877   2.887   5.798   8.689
39346SOL    HW219878   2.932   5.933   8.741
39347SOL     OW19879   9.083   2.670  11.280
39347SOL    HW119880   9.023   2.698  11.348
39347SOL    HW219881   9.097   2.747  11.225
39348SOL     OW19882   3.366  14.651   7.560
39348SOL    HW119883   3.363  14.656   7.464
39348SOL    HW219884   3.344  14.739   7.589
39349SOL     OW19885   1.192   3.977   7.739
39349SOL    HW119886   1.116   4.001   7.685
39349SOL    HW219887   1.260   4.040   7.715
39350SOL     OW19888   2.086   7.871  12.415
39350SOL    HW119889   2.108   7.843  12.504
39350SOL    HW219890   2.132   7.809  12.358
39351SOL     OW19891   7.289  12.075   4.632
39351SOL    HW119892   7.288  12.170   4.643
39351SOL    HW219893   7.327  12.042   4.714
39352SOL     OW19894   7.586  13.615   0.118
39352SOL    HW119895   7.564  13.578   0.032
39352SOL    HW219896   7.618  13.703   0.098
39353SOL     OW19897   8.312  12.867   2.529
39353SOL    HW119898   8.311  12.922   2.608
39353SOL    HW219899   8.364  12.791   2.554
39354SOL     OW19900   1.431   6.474  11.152
39354SOL    HW119901   1.482   6.539  11.200
39354SOL    HW219902   1.359   6.451  11.211
39355SOL     OW19903   5.977   8.650   3.614
39355SOL    HW119904   5.961   8.657   3.520
39355SOL    HW219905   6.072   8.637   3.621
39356SOL     OW19906  12.001   3.522   2.102
39356SOL    HW119907  12.010   3.614   2.076
39356SOL    HW219908  11.926   3.522   2.162
39357SOL     OW19909   5.435   1.693   6.214
39357SOL    HW119910   5.395   1.621   6.167
39357SOL    HW219911   5.496   1.732   6.151
39358SOL     OW19912   3.601  14.396   8.993
39358SOL    HW119913   3.526  14.362   8.944
39358SOL    HW219914   3.574  14.483   9.021
39359SOL     OW19915   0.187  10.136   4.807
39359SOL    HW119916   0.115  10.092   4.852
39359SOL    HW219917   0.265  10.087   4.832
39360SOL     OW19918  14.655   6.867  11.769
39360SOL    HW119919  14.712   6.936  11.803
39360SOL    HW219920  14.715   6.795  11.748
39361SOL     OW19921   2.031  10.463  12.055
39361SOL    HW119922   2.038  10.518  11.977
39361SOL    HW219923   1.948  10.416  12.044
39362SOL     OW19924  11.565   4.933   1.982
39362SOL    HW119925  11.589   4.992   2.054
39362SOL    HW219926  11.642   4.878   1.968
39363SOL     OW19927   5.919   8.415   9.559
39363SOL    HW119928   6.008   8.415   9.595
39363SOL    HW219929   5.928   8.370   9.474
39364SOL     OW19930   7.162   8.383  10.373
39364SOL    HW119931   7.179   8.293  10.347
39364SOL    HW219932   7.227   8.401  10.441
39365SOL     OW19933   7.881   5.215  11.693
39365SOL    HW119934   7.850   5.220  11.602
39365SOL    HW219935   7.893   5.122  11.709
39366SOL     OW19936  12.112   9.534   3.649
39366SOL    HW119937  12.146   9.616   3.614
39366SOL    HW219938  12.065   9.559   3.728
39367SOL     OW19939  13.210  13.140   5.238
39367SOL    HW119940  13.181  13.229   5.220
39367SOL    HW219941  13.185  13.090   5.161
39368SOL     OW19942   1.628  11.891   0.387
39368SOL    HW119943   1.654  11.809   0.429
39368SOL    HW219944   1.710  11.937   0.369
39369SOL     OW19945   7.105  14.654   9.340
39369SOL    HW119946   7.094  14.662   9.245
39369SOL    HW219947   7.194  14.687   9.357
39370SOL     OW19948   4.536   0.890   0.216
39370SOL    HW119949   4.472   0.958   0.196
39370SOL    HW219950   4.484   0.809   0.224
39371SOL     OW19951   7.287   8.100   6.908
39371SOL    HW119952   7.301   8.027   6.849
39371SOL    HW219953   7.275   8.176   6.851
39372SOL     OW19954  12.442  10.044  10.365
39372SOL    HW119955  12.464   9.972  10.424
39372SOL    HW219956  12.411  10.001  10.285
39373SOL     OW19957  10.219  14.005  11.384
39373SOL    HW119958  10.169  13.927  11.360
39373SOL    HW219959  10.295  13.972  11.432
39374SOL     OW19960  14.029   4.408   1.059
39374SOL    HW119961  14.020   4.324   1.014
39374SOL    HW219962  13.940   4.444   1.060
39375SOL     OW19963   2.200   3.855  12.281
39375SOL    HW119964   2.281   3.817  12.247
39375SOL    HW219965   2.170   3.914  12.211
39376SOL     OW19966   4.789   1.489   3.874
39376SOL    HW119967   4.741   1.454   3.949
39376SOL    HW219968   4.815   1.412   3.824
39377SOL     OW19969  13.057   9.302   5.043
39377SOL    HW119970  13.004   9.243   4.990
39377SOL    HW219971  13.096   9.245   5.110
39378SOL     OW19972  13.443   2.618   0.150
39378SOL    HW119973  13.491   2.651   0.074
39378SOL    HW219974  13.360   2.665   0.149
39379SOL     OW19975   4.142   7.194  14.085
39379SOL    HW119976   4.175   7.235  14.005
39379SOL    HW219977   4.138   7.266  14.149
39380SOL     OW19978  12.008   7.054  11.090
39380SOL    HW119979  12.023   6.961  11.073
39380SOL    HW219980  11.937   7.078  11.031
39381SOL     OW19981   6.443   1.334  13.484
39381SOL    HW119982   6.495   1.412  13.505
39381SOL    HW219983   6.493   1.261  13.522
39382SOL     OW19984   9.295   0.356   2.608
39382SOL    HW119985   9.332   0.289   2.551
39382SOL    HW219986   9.239   0.408   2.551
39383SOL     OW19987   6.263  13.676  10.938
39383SOL    HW119988   6.178  13.718  10.927
39383SOL    HW219989   6.251  13.588  10.902
39384SOL     OW19990  12.108   4.700  13.089
39384SOL    HW119991  12.170   4.638  13.051
39384SOL    HW219992  12.155   4.739  13.162
39385SOL     OW19993   9.872  13.075  13.543
39385SOL    HW119994   9.833  12.999  13.499
39385SOL    HW219995   9.948  13.098  13.489
39386SOL     OW19996   3.746   7.183   0.619
39386SOL    HW119997   3.720   7.184   0.527
39386SOL    HW219998   3.696   7.111   0.657
39387SOL     OW19999  11.390   4.170   5.284
39387SOL    HW120000  11.473   4.184   5.329
39387SOL    HW220001  11.409   4.103   5.219
39388SOL     OW20002  13.635   7.333   5.400
39388SOL    HW120003  13.591   7.263   5.449
39388SOL    HW220004  13.669   7.392   5.468
39389SOL     OW20005   8.074   1.353   8.778
39389SOL    HW120006   8.150   1.368   8.834
39389SOL    HW220007   8.028   1.437   8.778
39390SOL     OW20008   2.092   8.635  12.257
39390SOL    HW120009   2.087   8.687  12.337
39390SOL    HW220010   2.082   8.544  12.286
39391SOL     OW20011   9.877   8.959  10.985
39391SOL    HW120012   9.923   8.883  10.949
39391SOL    HW220013   9.945   9.025  10.997
39392SOL     OW20014   2.358   7.530  13.943
39392SOL    HW120015   2.331   7.600  14.002
39392SOL    HW220016   2.454   7.530  13.947
39393SOL     OW20017   9.517   4.480   6.977
39393SOL    HW120018   9.534   4.419   6.905
39393SOL    HW220019   9.490   4.425   7.050
39394SOL     OW20020  11.862   3.895  13.208
39394SOL    HW120021  11.926   3.966  13.201
39394SOL    HW220022  11.827   3.886  13.119
39395SOL     OW20023   3.771  11.553  14.263
39395SOL    HW120024   3.700  11.543  14.326
39395SOL    HW220025   3.851  11.544  14.315
39396SOL     OW20026   8.801   8.224   7.562
39396SOL    HW120027   8.779   8.279   7.487
39396SOL    HW220028   8.744   8.254   7.632
39397SOL     OW20029  14.440   8.837   9.936
39397SOL    HW120030  14.462   8.762   9.991
39397SOL    HW220031  14.388   8.800   9.865
39398SOL     OW20032   9.820   0.977   2.419
39398SOL    HW120033   9.792   0.895   2.460
39398SOL    HW220034   9.884   0.950   2.353
39399SOL     OW20035   6.004  12.233  14.229
39399SOL    HW120036   6.005  12.317  14.275
39399SOL    HW220037   5.919  12.194  14.253
39400SOL     OW20038  13.093   9.822  13.787
39400SOL    HW120039  13.073   9.805  13.695
39400SOL    HW220040  13.180   9.863  13.786
39401SOL     OW20041  12.894   9.425   0.619
39401SOL    HW120042  12.920   9.334   0.628
39401SOL    HW220043  12.821   9.424   0.556
39402SOL     OW20044  14.822   0.988   7.633
39402SOL    HW120045  14.795   1.076   7.658
39402SOL    HW220046   0.032   1.000   7.593
39403SOL     OW20047   2.850   1.322   7.277
39403SOL    HW120048   2.855   1.326   7.182
39403SOL    HW220049   2.764   1.357   7.298
39404SOL     OW20050   6.681   2.037   6.876
39404SOL    HW120051   6.725   1.994   6.949
39404SOL    HW220052   6.747   2.042   6.807
39405SOL     OW20053   7.860   0.745   1.927
39405SOL    HW120054   7.945   0.748   1.882
39405SOL    HW220055   7.804   0.804   1.877
39406SOL     OW20056  12.130   2.910   7.187
39406SOL    HW120057  12.079   2.966   7.246
39406SOL    HW220058  12.221   2.931   7.207
39407SOL     OW20059   6.662   9.270   4.104
39407SOL    HW120060   6.726   9.254   4.172
39407SOL    HW220061   6.627   9.184   4.081
39408SOL     OW20062   0.381   2.380   4.978
39408SOL    HW120063   0.423   2.303   4.939
39408SOL    HW220064   0.421   2.386   5.065
39409SOL     OW20065   9.757   4.691   3.628
39409SOL    HW120066   9.668   4.683   3.594
39409SOL    HW220067   9.792   4.768   3.584
39410SOL     OW20068   7.778   6.548   1.762
39410SOL    HW120069   7.817   6.494   1.693
39410SOL    HW220070   7.757   6.487   1.832
39411SOL     OW20071   1.281   4.780   7.686
39411SOL    HW120072   1.257   4.839   7.757
39411SOL    HW220073   1.362   4.738   7.717
39412SOL     OW20074   7.484  12.042   2.565
39412SOL    HW120075   7.436  12.084   2.637
39412SOL    HW220076   7.533  11.972   2.608
39413SOL     OW20077  14.740   3.052   2.329
39413SOL    HW120078  14.814   3.049   2.389
39413SOL    HW220079  14.760   2.987   2.262
39414SOL     OW20080   5.954  13.444   6.605
39414SOL    HW120081   5.920  13.363   6.642
39414SOL    HW220082   5.963  13.503   6.681
39415SOL     OW20083   5.986  10.074   6.567
39415SOL    HW120084   5.995  10.155   6.616
39415SOL    HW220085   6.042  10.086   6.490
39416SOL     OW20086   3.074   3.823  14.139
39416SOL    HW120087   3.134   3.758  14.103
39416SOL    HW220088   3.055   3.882  14.066
39417SOL     OW20089   5.413   1.795   8.449
39417SOL    HW120090   5.341   1.856   8.465
39417SOL    HW220091   5.491   1.841   8.480
39418SOL     OW20092   0.078   6.725   4.615
39418SOL    HW120093   0.082   6.805   4.667
39418SOL    HW220094   0.131   6.662   4.664
39419SOL     OW20095   9.165   1.144  11.827
39419SOL    HW120096   9.244   1.171  11.781
39419SOL    HW220097   9.142   1.060  11.788
39420SOL     OW20098   9.375   9.885   5.113
39420SOL    HW120099   9.347   9.794   5.106
39420SOL    HW220100   9.406   9.895   5.203
39421SOL     OW20101   3.428   3.601   0.471
39421SOL    HW120102   3.425   3.677   0.530
39421SOL    HW220103   3.385   3.531   0.520
39422SOL     OW20104  13.668   1.446  13.118
39422SOL    HW120105  13.602   1.500  13.160
39422SOL    HW220106  13.621   1.367  13.090
39423SOL     OW20107  11.471  10.882  10.616
39423SOL    HW120108  11.520  10.942  10.560
39423SOL    HW220109  11.514  10.798  10.604
39424SOL     OW20110   7.183  13.222   0.769
39424SOL    HW120111   7.198  13.135   0.805
39424SOL    HW220112   7.228  13.220   0.684
39425SOL     OW20113   4.824   3.129   2.004
39425SOL    HW120114   4.888   3.201   2.005
39425SOL    HW220115   4.759   3.155   1.939
39426SOL     OW20116  10.130  11.471  12.426
39426SOL    HW120117  10.057  11.531  12.412
39426SOL    HW220118  10.146  11.433  12.340
39427SOL     OW20119   5.608  12.731   1.262
39427SOL    HW120120   5.648  12.703   1.344
39427SOL    HW220121   5.523  12.769   1.288
39428SOL     OW20122   0.501  14.228   8.852
39428SOL    HW120123   0.550  14.256   8.774
39428SOL    HW220124   0.413  14.210   8.820
39429SOL     OW20125   4.897  11.236   9.222
39429SOL    HW120126   4.849  11.319   9.222
39429SOL    HW220127   4.831  11.170   9.202
39430SOL     OW20128  10.771   1.550  11.736
39430SOL    HW120129  10.801   1.638  11.714
39430SOL    HW220130  10.681   1.562  11.766
39431SOL     OW20131   8.084   7.850   8.086
39431SOL    HW120132   8.105   7.772   8.137
39431SOL    HW220133   7.990   7.845   8.071
39432SOL     OW20134  10.401  13.891   2.895
39432SOL    HW120135  10.331  13.942   2.856
39432SOL    HW220136  10.357  13.815   2.934
39433SOL     OW20137   0.978   1.013  13.849
39433SOL    HW120138   0.951   0.954  13.779
39433SOL    HW220139   0.907   1.009  13.912
39434SOL     OW20140   3.889   6.786  10.942
39434SOL    HW120141   3.922   6.830  10.864
39434SOL    HW220142   3.896   6.693  10.923
39435SOL     OW20143   9.168  12.215   6.360
39435SOL    HW120144   9.081  12.180   6.382
39435SOL    HW220145   9.158  12.310   6.366
39436SOL     OW20146  11.054  12.727   3.843
39436SOL    HW120147  11.114  12.727   3.917
39436SOL    HW220148  11.072  12.645   3.797
39437SOL     OW20149  14.386   0.794  14.064
39437SOL    HW120150  14.376   0.698  14.060
39437SOL    HW220151  14.299   0.828  14.047
39438SOL     OW20152   7.974  14.403   7.098
39438SOL    HW120153   7.911  14.426   7.030
39438SOL    HW220154   7.952  14.313   7.121
39439SOL     OW20155   7.894   0.159   9.341
39439SOL    HW120156   7.817   0.104   9.327
39439SOL    HW220157   7.948   0.145   9.263
39440SOL     OW20158  11.378  11.831   7.833
39440SOL    HW120159  11.414  11.743   7.849
39440SOL    HW220160  11.286  11.823   7.855
39441SOL     OW20161   6.690   3.996  13.446
39441SOL    HW120162   6.609   4.026  13.406
39441SOL    HW220163   6.727   4.074  13.486
39442SOL     OW20164  10.209  14.051   1.353
39442SOL    HW120165  10.155  14.124   1.382
39442SOL    HW220166  10.234  14.074   1.263
39443SOL     OW20167  13.225   8.301   8.581
39443SOL    HW120168  13.290   8.364   8.550
39443SOL    HW220169  13.260   8.269   8.664
39444SOL     OW20170   9.758   2.094  13.475
39444SOL    HW120171   9.774   2.155  13.403
39444SOL    HW220172   9.762   2.008  13.434
39445SOL     OW20173   4.816   6.269   1.935
39445SOL    HW120174   4.789   6.275   2.026
39445SOL    HW220175   4.750   6.318   1.887
39446SOL     OW20176   1.664   0.685   9.598
39446SOL    HW120177   1.638   0.661   9.509
39446SOL    HW220178   1.699   0.774   9.590
39447SOL     OW20179   9.573  11.048  11.700
39447SOL    HW120180   9.666  11.068  11.707
39447SOL    HW220181   9.550  11.069  11.609
39448SOL     OW20182   4.143   6.105  12.533
39448SOL    HW120183   4.215   6.127  12.592
39448SOL    HW220184   4.132   6.010  12.543
39449SOL     OW20185   2.824  12.429  13.418
39449SOL    HW120186   2.791  12.351  13.372
39449SOL    HW220187   2.768  12.437  13.495
39450SOL     OW20188   1.349  14.217  13.287
39450SOL    HW120189   1.334  14.308  13.262
39450SOL    HW220190   1.353  14.169  13.204
39451SOL     OW20191  14.154   8.511  10.565
39451SOL    HW120192  14.200   8.542  10.486
39451SOL    HW220193  14.094   8.445  10.533
39452SOL     OW20194   1.461   8.636  14.459
39452SOL    HW120195   1.507   8.720  14.467
39452SOL    HW220196   1.495   8.583  14.532
39453SOL     OW20197   0.340  12.222  10.044
39453SOL    HW120198   0.250  12.250  10.024
39453SOL    HW220199   0.351  12.243  10.137
39454SOL     OW20200  12.080  13.633  11.376
39454SOL    HW120201  12.102  13.601  11.288
39454SOL    HW220202  11.990  13.664  11.369
39455SOL     OW20203   4.153   5.773   4.046
39455SOL    HW120204   4.189   5.686   4.025
39455SOL    HW220205   4.143   5.772   4.141
39456SOL     OW20206   9.306  10.734  10.320
39456SOL    HW120207   9.258  10.659  10.356
39456SOL    HW220208   9.243  10.805  10.320
39457SOL     OW20209   7.304   4.915  10.306
39457SOL    HW120210   7.214   4.936  10.281
39457SOL    HW220211   7.339   4.997  10.340
39458SOL     OW20212   0.426   1.776   3.471
39458SOL    HW120213   0.483   1.840   3.429
39458SOL    HW220214   0.412   1.709   3.405
39459SOL     OW20215   9.191   7.259   1.293
39459SOL    HW120216   9.207   7.327   1.227
39459SOL    HW220217   9.275   7.248   1.337
39460SOL     OW20218   3.293  13.825   8.468
39460SOL    HW120219   3.332  13.907   8.496
39460SOL    HW220220   3.361  13.759   8.481
39461SOL     OW20221  10.670  14.574   9.539
39461SOL    HW120222  10.583  14.614   9.539
39461SOL    HW220223  10.728  14.645   9.567
39462SOL     OW20224   1.112   5.890   1.066
39462SOL    HW120225   1.099   5.801   1.099
39462SOL    HW220226   1.042   5.941   1.107
39463SOL     OW20227  14.009  11.904  10.007
39463SOL    HW120228  14.015  11.817  10.046
39463SOL    HW220229  13.939  11.948  10.056
39464SOL     OW20230  13.153   4.846   1.845
39464SOL    HW120231  13.175   4.815   1.933
39464SOL    HW220232  13.169   4.770   1.788
39465SOL     OW20233   3.020   0.479  10.656
39465SOL    HW120234   3.084   0.545  10.630
39465SOL    HW220235   3.061   0.436  10.732
39466SOL     OW20236   3.849  11.006   1.741
39466SOL    HW120237   3.839  11.091   1.697
39466SOL    HW220238   3.890  10.950   1.675
39467SOL     OW20239   3.123   5.202   4.447
39467SOL    HW120240   3.037   5.191   4.487
39467SOL    HW220241   3.158   5.113   4.441
39468SOL     OW20242   5.923   6.550   8.516
39468SOL    HW120243   5.875   6.575   8.437
39468SOL    HW220244   5.866   6.485   8.558
39469SOL     OW20245   2.893   7.942   5.211
39469SOL    HW120246   2.828   8.012   5.219
39469SOL    HW220247   2.843   7.861   5.214
39470SOL     OW20248   9.947   4.892  14.012
39470SOL    HW120249   9.893   4.825  13.972
39470SOL    HW220250  10.006   4.844  14.070
39471SOL     OW20251   5.406   9.537  13.170
39471SOL    HW120252   5.477   9.577  13.119
39471SOL    HW220253   5.394   9.596  13.245
39472SOL     OW20254   7.672   2.813   0.519
39472SOL    HW120255   7.645   2.903   0.539
39472SOL    HW220256   7.732   2.822   0.445
39473SOL     OW20257   8.579   2.124   1.137
39473SOL    HW120258   8.636   2.111   1.061
39473SOL    HW220259   8.548   2.036   1.159
39474SOL     OW20260   9.791   7.356  13.196
39474SOL    HW120261   9.876   7.322  13.170
39474SOL    HW220262   9.728   7.294  13.160
39475SOL     OW20263   1.191   1.794   5.312
39475SOL    HW120264   1.226   1.712   5.277
39475SOL    HW220265   1.197   1.785   5.407
39476SOL     OW20266   1.691  12.988   3.735
39476SOL    HW120267   1.713  12.959   3.824
39476SOL    HW220268   1.727  13.077   3.730
39477SOL     OW20269  10.641  10.801  10.719
39477SOL    HW120270  10.736  10.798  10.733
39477SOL    HW220271  10.627  10.749  10.640
39478SOL     OW20272   1.596   5.643   4.834
39478SOL    HW120273   1.677   5.598   4.808
39478SOL    HW220274   1.539   5.636   4.757
39479SOL     OW20275  13.853  13.248  11.425
39479SOL    HW120276  13.794  13.313  11.464
39479SOL    HW220277  13.935  13.296  11.414
39480SOL     OW20278   7.387  13.385   9.365
39480SOL    HW120279   7.343  13.388   9.449
39480SOL    HW220280   7.335  13.443   9.308
39481SOL     OW20281   4.069   3.177   3.245
39481SOL    HW120282   4.101   3.130   3.168
39481SOL    HW220283   3.980   3.203   3.221
39482SOL     OW20284   4.442  12.378   9.463
39482SOL    HW120285   4.370  12.416   9.412
39482SOL    HW220286   4.516  12.435   9.445
39483SOL     OW20287   2.109  10.984   6.538
39483SOL    HW120288   2.070  11.068   6.516
39483SOL    HW220289   2.120  10.940   6.454
39484SOL     OW20290   0.429   4.090   8.441
39484SOL    HW120291   0.484   4.061   8.368
39484SOL    HW220292   0.340   4.068   8.413
39485SOL     OW20293   3.407   2.773   3.974
39485SOL    HW120294   3.476   2.707   3.971
39485SOL    HW220295   3.327   2.722   3.989
39486SOL     OW20296   1.498   0.715   2.953
39486SOL    HW120297   1.477   0.805   2.930
39486SOL    HW220298   1.591   0.705   2.933
39487SOL     OW20299  11.423  10.107   6.826
39487SOL    HW120300  11.411  10.042   6.895
39487SOL    HW220301  11.338  10.150   6.819
39488SOL     OW20302  13.751   6.270   7.481
39488SOL    HW120303  13.787   6.243   7.565
39488SOL    HW220304  13.666   6.226   7.476
39489SOL     OW20305  12.581   8.030  13.002
39489SOL    HW120306  12.581   8.099  12.936
39489SOL    HW220307  12.664   7.984  12.987
39490SOL     OW20308   3.772  10.799  11.383
39490SOL    HW120309   3.863  10.778  11.362
39490SOL    HW220310   3.751  10.874  11.326
39491SOL     OW20311   5.508   0.342   6.257
39491SOL    HW120312   5.595   0.345   6.218
39491SOL    HW220313   5.522   0.363   6.350
39492SOL     OW20314  10.285  11.319   8.064
39492SOL    HW120315  10.354  11.350   8.122
39492SOL    HW220316  10.206  11.319   8.118
39493SOL     OW20317  14.484   7.421  13.837
39493SOL    HW120318  14.497   7.378  13.753
39493SOL    HW220319  14.412   7.483  13.821
39494SOL     OW20320   8.385  12.014   5.632
39494SOL    HW120321   8.457  12.014   5.568
39494SOL    HW220322   8.408  11.944   5.694
39495SOL     OW20323  14.124  13.223  14.304
39495SOL    HW120324  14.131  13.159  14.232
39495SOL    HW220325  14.085  13.300  14.263
39496SOL     OW20326   6.511   8.443   3.318
39496SOL    HW120327   6.537   8.510   3.382
39496SOL    HW220328   6.416   8.436   3.329
39497SOL     OW20329   4.810   4.998   6.217
39497SOL    HW120330   4.828   4.941   6.142
39497SOL    HW220331   4.769   4.941   6.281
39498SOL     OW20332   0.421  13.732  14.644
39498SOL    HW120333   0.326  13.731  14.636
39498SOL    HW220334   0.440  13.661  14.706
39499SOL     OW20335   0.506  12.389   1.730
39499SOL    HW120336   0.479  12.480   1.746
39499SOL    HW220337   0.460  12.365   1.649
39500SOL     OW20338   9.606   9.029   9.164
39500SOL    HW120339   9.696   8.999   9.155
39500SOL    HW220340   9.557   8.950   9.189
39501SOL     OW20341  10.409   9.280  11.904
39501SOL    HW120342  10.386   9.198  11.948
39501SOL    HW220343  10.342   9.291  11.837
39502SOL     OW20344   5.178   3.165   5.516
39502SOL    HW120345   5.199   3.072   5.511
39502SOL    HW220346   5.262   3.207   5.536
39503SOL     OW20347   3.652   3.164  13.335
39503SOL    HW120348   3.578   3.187  13.392
39503SOL    HW220349   3.724   3.219  13.366
39504SOL     OW20350   2.863   7.009   9.283
39504SOL    HW120351   2.847   6.931   9.336
39504SOL    HW220352   2.906   6.976   9.204
39505SOL     OW20353   1.421   4.476  13.358
39505SOL    HW120354   1.427   4.546  13.293
39505SOL    HW220355   1.403   4.521  13.440
39506SOL     OW20356   3.596  13.232   1.693
39506SOL    HW120357   3.620  13.143   1.665
39506SOL    HW220358   3.673  13.285   1.674
39507SOL     OW20359   7.487   8.417   7.825
39507SOL    HW120360   7.432   8.495   7.827
39507SOL    HW220361   7.575   8.449   7.846
39508SOL     OW20362  13.224   5.916   4.795
39508SOL    HW120363  13.270   5.883   4.872
39508SOL    HW220364  13.170   5.843   4.766
39509SOL     OW20365   4.215   2.989  13.111
39509SOL    HW120366   4.166   2.946  13.041
39509SOL    HW220367   4.233   3.077  13.078
39510SOL     OW20368  10.893  11.616   4.016
39510SOL    HW120369  10.843  11.538   3.990
39510SOL    HW220370  10.925  11.596   4.104
39511SOL     OW20371  14.336  10.393  12.150
39511SOL    HW120372  14.424  10.411  12.118
39511SOL    HW220373  14.346  10.379  12.244
39512SOL     OW20374   8.804  13.550  11.232
39512SOL    HW120375   8.843  13.615  11.291
39512SOL    HW220376   8.879  13.500  11.199
39513SOL     OW20377   2.479   4.026   5.491
39513SOL    HW120378   2.520   4.000   5.574
39513SOL    HW220379   2.405   4.080   5.517
39514SOL     OW20380   1.442   1.454   4.105
39514SOL    HW120381   1.526   1.418   4.133
39514SOL    HW220382   1.464   1.517   4.037
39515SOL     OW20383   2.014   7.256   5.926
39515SOL    HW120384   2.091   7.311   5.938
39515SOL    HW220385   1.966   7.297   5.854
39516SOL     OW20386   4.166   5.361   5.045
39516SOL    HW120387   4.212   5.279   5.029
39516SOL    HW220388   4.145   5.359   5.138
39517SOL     OW20389   2.341  11.638   7.548
39517SOL    HW120390   2.332  11.543   7.537
39517SOL    HW220391   2.303  11.675   7.468
39518SOL     OW20392  12.801   4.986  14.173
39518SOL    HW120393  12.760   4.915  14.123
39518SOL    HW220394  12.746   4.995  14.250
39519SOL     OW20395  13.069  12.891   0.895
39519SOL    HW120396  13.137  12.881   0.962
39519SOL    HW220397  13.112  12.939   0.824
39520SOL     OW20398   9.076   7.155   6.594
39520SOL    HW120399   9.049   7.064   6.604
39520SOL    HW220400   9.011   7.193   6.535
39521SOL     OW20401   0.152  14.392   1.964
39521SOL    HW120402   0.163  14.463   2.028
39521SOL    HW220403   0.223  14.331   1.983
39522SOL     OW20404  10.735  12.105  12.870
39522SOL    HW120405  10.751  12.054  12.790
39522SOL    HW220406  10.780  12.188  12.855
39523SOL     OW20407   7.337   1.700  10.714
39523SOL    HW120408   7.251   1.669  10.684
39523SOL    HW220409   7.399   1.657  10.655
39524SOL     OW20410   3.016   3.854  11.045
39524SOL    HW120411   2.994   3.946  11.060
39524SOL    HW220412   3.080   3.856  10.974
39525SOL     OW20413   1.257   1.571  11.019
39525SOL    HW120414   1.344   1.563  11.059
39525SOL    HW220415   1.261   1.653  10.970
39526SOL     OW20416  13.204   8.661   0.586
39526SOL    HW120417  13.227   8.719   0.659
39526SOL    HW220418  13.138   8.602   0.622
39527SOL     OW20419  12.817   8.146   4.886
39527SOL    HW120420  12.807   8.092   4.964
39527SOL    HW220421  12.886   8.208   4.908
39528SOL     OW20422   7.060   0.096  10.811
39528SOL    HW120423   7.044   0.138  10.895
39528SOL    HW220424   7.084   0.168  10.753
39529SOL     OW20425   6.465   4.234   4.370
39529SOL    HW120426   6.548   4.275   4.392
39529SOL    HW220427   6.402   4.274   4.430
39530SOL     OW20428   5.709   5.682   0.125
39530SOL    HW120429   5.756   5.763   0.107
39530SOL    HW220430   5.643   5.676   0.055
39531SOL     OW20431   4.738  12.675   1.201
39531SOL    HW120432   4.701  12.640   1.282
39531SOL    HW220433   4.685  12.635   1.132
39532SOL     OW20434   7.056   6.077   7.235
39532SOL    HW120435   6.974   6.093   7.282
39532SOL    HW220436   7.106   6.158   7.247
39533SOL     OW20437  10.774   0.632   9.943
39533SOL    HW120438  10.708   0.680   9.893
39533SOL    HW220439  10.854   0.640   9.891
39534SOL     OW20440  14.871   4.059   8.458
39534SOL    HW120441  14.792   4.091   8.415
39534SOL    HW220442   0.067   4.096   8.407
39535SOL     OW20443   3.433  11.881   1.611
39535SOL    HW120444   3.430  11.788   1.635
39535SOL    HW220445   3.424  11.927   1.695
39536SOL     OW20446  12.448   5.546   9.028
39536SOL    HW120447  12.378   5.509   8.976
39536SOL    HW220448  12.439   5.505   9.114
39537SOL     OW20449   5.264  14.411   8.729
39537SOL    HW120450   5.170  14.411   8.711
39537SOL    HW220451   5.275  14.476   8.798
39538SOL     OW20452   2.396   2.285  13.891
39538SOL    HW120453   2.369   2.203  13.931
39538SOL    HW220454   2.397   2.266  13.797
39539SOL     OW20455   4.891   7.869   9.396
39539SOL    HW120456   4.941   7.856   9.315
39539SOL    HW220457   4.843   7.787   9.408
39540SOL     OW20458   0.068   1.011  12.385
39540SOL    HW120459   0.015   1.024  12.463
39540SOL    HW220460   0.045   0.922  12.355
39541SOL     OW20461   4.790  11.871   3.348
39541SOL    HW120462   4.845  11.862   3.270
39541SOL    HW220463   4.837  11.934   3.403
39542SOL     OW20464   2.401   8.227   5.268
39542SOL    HW120465   2.312   8.261   5.282
39542SOL    HW220466   2.422   8.180   5.348
39543SOL     OW20467  10.570   7.892  10.751
39543SOL    HW120468  10.636   7.852  10.694
39543SOL    HW220469  10.546   7.822  10.812
39544SOL     OW20470   3.304   4.675   6.958
39544SOL    HW120471   3.306   4.580   6.949
39544SOL    HW220472   3.372   4.706   6.897
39545SOL     OW20473  14.584   1.465  13.104
39545SOL    HW120474  14.525   1.521  13.153
39545SOL    HW220475  14.641   1.525  13.056
39546SOL     OW20476   6.580   5.343  12.432
39546SOL    HW120477   6.622   5.291  12.364
39546SOL    HW220478   6.498   5.297  12.451
39547SOL     OW20479   0.285  10.740   3.324
39547SOL    HW120480   0.200  10.724   3.366
39547SOL    HW220481   0.266  10.742   3.230
39548SOL     OW20482   3.458   5.043   4.785
39548SOL    HW120483   3.495   5.063   4.871
39548SOL    HW220484   3.523   5.076   4.723
39549SOL     OW20485   8.724   5.801   6.378
39549SOL    HW120486   8.759   5.889   6.368
39549SOL    HW220487   8.650   5.796   6.318
39550SOL     OW20488  11.674   5.519  10.384
39550SOL    HW120489  11.624   5.596  10.409
39550SOL    HW220490  11.766   5.547  10.389
39551SOL     OW20491   4.818   7.820   6.538
39551SOL    HW120492   4.771   7.881   6.594
39551SOL    HW220493   4.750   7.764   6.501
39552SOL     OW20494   4.015   6.629   8.814
39552SOL    HW120495   4.019   6.552   8.758
39552SOL    HW220496   4.089   6.684   8.785
39553SOL     OW20497  12.718   9.426   5.280
39553SOL    HW120498  12.705   9.362   5.350
39553SOL    HW220499  12.813   9.437   5.275
39554SOL     OW20500  14.155   5.282   7.151
39554SOL    HW120501  14.141   5.215   7.084
39554SOL    HW220502  14.146   5.235   7.234
39555SOL     OW20503  13.817   4.248   7.406
39555SOL    HW120504  13.870   4.263   7.327
39555SOL    HW220505  13.823   4.329   7.455
39556SOL     OW20506  14.296   5.355   1.611
39556SOL    HW120507  14.221   5.321   1.661
39556SOL    HW220508  14.324   5.280   1.558
39557SOL     OW20509  12.889   2.884   8.937
39557SOL    HW120510  12.963   2.825   8.954
39557SOL    HW220511  12.884   2.940   9.014
39558SOL     OW20512  10.372   2.405   7.585
39558SOL    HW120513  10.295   2.360   7.618
39558SOL    HW220514  10.344   2.497   7.577
39559SOL     OW20515  14.570  11.845  14.675
39559SOL    HW120516  14.642  11.891  14.718
39559SOL    HW220517  14.492  11.893  14.702
39560SOL     OW20518   0.580   6.183  13.564
39560SOL    HW120519   0.617   6.267  13.592
39560SOL    HW220520   0.608   6.175  13.473
39561SOL     OW20521  13.834  10.614   8.337
39561SOL    HW120522  13.906  10.552   8.346
39561SOL    HW220523  13.876  10.699   8.322
39562SOL     OW20524   5.691   3.057   4.911
39562SOL    HW120525   5.727   3.058   4.822
39562SOL    HW220526   5.734   2.983   4.953
39563SOL     OW20527  12.035   1.796  14.705
39563SOL    HW120528  12.077   1.752  14.779
39563SOL    HW220529  11.967   1.735  14.677
39564SOL     OW20530   1.163   3.877   1.851
39564SOL    HW120531   1.143   3.904   1.940
39564SOL    HW220532   1.244   3.826   1.859
39565SOL     OW20533   0.692  13.473   0.948
39565SOL    HW120534   0.636  13.509   1.017
39565SOL    HW220535   0.729  13.393   0.986
39566SOL     OW20536   1.040   7.333   3.143
39566SOL    HW120537   1.055   7.337   3.048
39566SOL    HW220538   1.047   7.239   3.164
39567SOL     OW20539  13.824  14.133  11.685
39567SOL    HW120540  13.901  14.106  11.634
39567SOL    HW220541  13.829  14.079  11.765
39568SOL     OW20542   1.294   2.490   0.475
39568SOL    HW120543   1.267   2.460   0.388
39568SOL    HW220544   1.303   2.410   0.527
39569SOL     OW20545   3.307   3.464   6.134
39569SOL    HW120546   3.389   3.505   6.107
39569SOL    HW220547   3.239   3.526   6.107
39570SOL     OW20548   9.442   2.618   1.931
39570SOL    HW120549   9.369   2.557   1.938
39570SOL    HW220550   9.421   2.688   1.993
39571SOL     OW20551   6.703  14.565  14.560
39571SOL    HW120552   6.745  14.552  14.475
39571SOL    HW220553   6.657  14.483  14.577
39572SOL     OW20554   3.148   3.908   0.836
39572SOL    HW120555   3.167   3.878   0.747
39572SOL    HW220556   3.104   3.992   0.825
39573SOL     OW20557   1.578   0.229   0.690
39573SOL    HW120558   1.642   0.276   0.743
39573SOL    HW220559   1.509   0.205   0.752
39574SOL     OW20560   6.820   9.868   7.588
39574SOL    HW120561   6.900   9.902   7.547
39574SOL    HW220562   6.764   9.945   7.599
39575SOL     OW20563  12.294   2.129   6.706
39575SOL    HW120564  12.358   2.123   6.635
39575SOL    HW220565  12.210   2.137   6.662
39576SOL     OW20566   3.865  13.184  11.251
39576SOL    HW120567   3.792  13.140  11.294
39576SOL    HW220568   3.852  13.277  11.269
39577SOL     OW20569   1.942   7.429  14.217
39577SOL    HW120570   2.011   7.410  14.153
39577SOL    HW220571   1.987   7.437  14.301
39578SOL     OW20572  14.433  10.879   6.896
39578SOL    HW120573  14.507  10.818   6.898
39578SOL    HW220574  14.471  10.964   6.915
39579SOL     OW20575   2.362   7.140  12.384
39579SOL    HW120576   2.435   7.201  12.396
39579SOL    HW220577   2.322   7.166  12.301
39580SOL     OW20578   1.160   7.709  14.295
39580SOL    HW120579   1.136   7.801  14.303
39580SOL    HW220580   1.086   7.669  14.250
39581SOL     OW20581   3.392   9.961   9.267
39581SOL    HW120582   3.418   9.872   9.244
39581SOL    HW220583   3.464   9.994   9.321
39582SOL     OW20584   1.109  14.448  10.878
39582SOL    HW120585   1.183  14.460  10.818
39582SOL    HW220586   1.104  14.354  10.891
39583SOL     OW20587   9.914   1.745  12.790
39583SOL    HW120588   9.864   1.672  12.753
39583SOL    HW220589   9.861   1.823  12.771
39584SOL     OW20590  11.553  12.886   5.980
39584SOL    HW120591  11.625  12.822   5.985
39584SOL    HW220592  11.537  12.910   6.071
39585SOL     OW20593  14.691  14.322  13.251
39585SOL    HW120594  14.683  14.238  13.297
39585SOL    HW220595  14.678  14.388  13.319
39586SOL     OW20596   8.278   2.448   1.131
39586SOL    HW120597   8.349   2.498   1.091
39586SOL    HW220598   8.231   2.409   1.057
39587SOL     OW20599  14.470   6.639   0.154
39587SOL    HW120600  14.510   6.591   0.226
39587SOL    HW220601  14.416   6.706   0.196
39588SOL     OW20602   7.500   7.447  12.337
39588SOL    HW120603   7.550   7.496  12.402
39588SOL    HW220604   7.443   7.390  12.388
39589SOL     OW20605   5.786   7.624   1.271
39589SOL    HW120606   5.782   7.715   1.301
39589SOL    HW220607   5.855   7.584   1.325
39590SOL     OW20608   9.990   9.007  11.612
39590SOL    HW120609  10.074   9.007  11.658
39590SOL    HW220610   9.934   8.951  11.666
39591SOL     OW20611   7.911   6.335  12.310
39591SOL    HW120612   7.951   6.382  12.383
39591SOL    HW220613   7.984   6.311  12.253
39592SOL     OW20614   0.004  11.680   9.664
39592SOL    HW120615  14.820  11.706   9.733
39592SOL    HW220616   0.091  11.700   9.699
39593SOL     OW20617   8.353   8.364   4.794
39593SOL    HW120618   8.370   8.338   4.884
39593SOL    HW220619   8.389   8.452   4.787
39594SOL     OW20620   4.973   9.485   4.337
39594SOL    HW120621   4.935   9.571   4.318
39594SOL    HW220622   5.062   9.505   4.367
39595SOL     OW20623   2.363   7.351   6.036
39595SOL    HW120624   2.395   7.365   6.125
39595SOL    HW220625   2.393   7.263   6.012
39596SOL     OW20626  10.984  14.636  12.164
39596SOL    HW120627  11.062  14.684  12.191
39596SOL    HW220628  11.017  14.554  12.127
39597SOL     OW20629   4.072   8.549  13.862
39597SOL    HW120630   4.029   8.581  13.782
39597SOL    HW220631   4.004   8.498  13.906
39598SOL     OW20632  10.823  12.035   9.645
39598SOL    HW120633  10.753  12.015   9.706
39598SOL    HW220634  10.849  12.124   9.666
39599SOL     OW20635   5.173   6.424  12.444
39599SOL    HW120636   5.163   6.383  12.358
39599SOL    HW220637   5.150   6.355  12.507
39600SOL     OW20638   0.858   5.555   2.718
39600SOL    HW120639   0.878   5.482   2.776
39600SOL    HW220640   0.939   5.605   2.713
39601SOL     OW20641   2.062   8.632   2.089
39601SOL    HW120642   1.993   8.573   2.058
39601SOL    HW220643   2.142   8.579   2.087
39602SOL     OW20644   6.481   5.314   4.011
39602SOL    HW120645   6.494   5.361   4.094
39602SOL    HW220646   6.524   5.369   3.946
39603SOL     OW20647  12.868  14.239  10.456
39603SOL    HW120648  12.786  14.227  10.503
39603SOL    HW220649  12.895  14.329  10.476
39604SOL     OW20650   6.618   4.406  11.645
39604SOL    HW120651   6.549   4.353  11.685
39604SOL    HW220652   6.571   4.467  11.588
39605SOL     OW20653  10.689   2.161   0.640
39605SOL    HW120654  10.683   2.066   0.629
39605SOL    HW220655  10.732   2.192   0.560
39606SOL     OW20656   2.301   9.489   2.071
39606SOL    HW120657   2.293   9.545   2.148
39606SOL    HW220658   2.325   9.548   2.000
39607SOL     OW20659  14.034  12.874   9.219
39607SOL    HW120660  14.030  12.862   9.124
39607SOL    HW220661  13.950  12.914   9.242
39608SOL     OW20662   5.573   1.723   9.694
39608SOL    HW120663   5.534   1.662   9.631
39608SOL    HW220664   5.667   1.702   9.693
39609SOL     OW20665   5.041   5.080  14.408
39609SOL    HW120666   5.028   4.989  14.436
39609SOL    HW220667   4.975   5.094  14.341
39610SOL     OW20668  11.899   7.867   2.499
39610SOL    HW120669  11.959   7.814   2.552
39610SOL    HW220670  11.814   7.824   2.509
39611SOL     OW20671  11.178   4.315   2.511
39611SOL    HW120672  11.202   4.222   2.509
39611SOL    HW220673  11.159   4.336   2.420
39612SOL     OW20674   6.515  12.799   0.692
39612SOL    HW120675   6.434  12.773   0.737
39612SOL    HW220676   6.488  12.866   0.630
39613SOL     OW20677  14.048   4.781  14.008
39613SOL    HW120678  14.136   4.818  14.013
39613SOL    HW220679  13.992   4.845  14.052
39614SOL     OW20680   8.680   0.626   9.363
39614SOL    HW120681   8.627   0.701   9.389
39614SOL    HW220682   8.768   0.646   9.394
39615SOL     OW20683  12.650   1.791   8.610
39615SOL    HW120684  12.594   1.850   8.659
39615SOL    HW220685  12.727   1.779   8.666
39616SOL     OW20686  10.741  12.902   3.314
39616SOL    HW120687  10.834  12.880   3.304
39616SOL    HW220688  10.736  12.994   3.288
39617SOL     OW20689   3.713  14.201   7.258
39617SOL    HW120690   3.644  14.193   7.323
39617SOL    HW220691   3.684  14.147   7.185
39618SOL     OW20692   9.398  14.705  13.832
39618SOL    HW120693   9.336  14.774  13.807
39618SOL    HW220694   9.345  14.625  13.831
39619SOL     OW20695   0.654  11.715   1.351
39619SOL    HW120696   0.586  11.730   1.286
39619SOL    HW220697   0.722  11.778   1.330
39620SOL     OW20698   7.584   5.926   8.972
39620SOL    HW120699   7.624   6.013   8.962
39620SOL    HW220700   7.658   5.866   8.976
39621SOL     OW20701   3.066   2.655   3.785
39621SOL    HW120702   3.092   2.625   3.698
39621SOL    HW220703   3.106   2.593   3.846
39622SOL     OW20704   4.417   2.979   5.026
39622SOL    HW120705   4.461   2.950   4.946
39622SOL    HW220706   4.471   3.051   5.058
39623SOL     OW20707   8.490   8.032  11.830
39623SOL    HW120708   8.441   7.973  11.888
39623SOL    HW220709   8.423   8.071  11.773
39624SOL     OW20710   3.107   7.182  11.566
39624SOL    HW120711   3.093   7.276  11.574
39624SOL    HW220712   3.176   7.163  11.630
39625SOL     OW20713  12.628   7.053   3.346
39625SOL    HW120714  12.564   7.025   3.280
39625SOL    HW220715  12.650   6.972   3.394
39626SOL     OW20716   3.746   5.076   3.367
39626SOL    HW120717   3.657   5.081   3.400
39626SOL    HW220718   3.740   5.021   3.288
39627SOL     OW20719   2.006   4.875  13.247
39627SOL    HW120720   1.928   4.860  13.300
39627SOL    HW220721   2.079   4.843  13.300
39628SOL     OW20722   4.058  13.538   7.428
39628SOL    HW120723   3.973  13.574   7.453
39628SOL    HW220724   4.038  13.480   7.354
39629SOL     OW20725   9.898   3.474  11.305
39629SOL    HW120726   9.961   3.497  11.373
39629SOL    HW220727   9.886   3.555  11.256
39630SOL     OW20728   9.798   2.389   4.691
39630SOL    HW120729   9.718   2.405   4.643
39630SOL    HW220730   9.780   2.422   4.780
39631SOL     OW20731  13.439   2.753   0.578
39631SOL    HW120732  13.483   2.714   0.654
39631SOL    HW220733  13.499   2.737   0.505
39632SOL     OW20734   7.932   3.373  10.385
39632SOL    HW120735   8.006   3.388  10.326
39632SOL    HW220736   7.871   3.320  10.335
39633SOL     OW20737   4.312   9.106   2.873
39633SOL    HW120738   4.237   9.092   2.930
39633SOL    HW220739   4.344   9.193   2.895
39634SOL     OW20740   1.662  10.693   2.743
39634SOL    HW120741   1.689  10.773   2.788
39634SOL    HW220742   1.626  10.724   2.660
39635SOL     OW20743   0.260   7.617  13.622
39635SOL    HW120744   0.349   7.646  13.600
39635SOL    HW220745   0.272   7.530  13.660
39636SOL     OW20746  10.908   8.946   1.398
39636SOL    HW120747  10.898   9.037   1.372
39636SOL    HW220748  10.884   8.896   1.320
39637SOL     OW20749  13.668   9.753  12.003
39637SOL    HW120750  13.741   9.805  12.038
39637SOL    HW220751  13.704   9.710  11.925
39638SOL     OW20752   3.774  11.291   7.078
39638SOL    HW120753   3.835  11.268   7.148
39638SOL    HW220754   3.779  11.218   7.017
39639SOL     OW20755   8.679  12.985   0.643
39639SOL    HW120756   8.742  12.916   0.663
39639SOL    HW220757   8.730  13.055   0.602
39640SOL     OW20758  10.590   5.463   9.602
39640SOL    HW120759  10.673   5.494   9.637
39640SOL    HW220760  10.531   5.461   9.677
39641SOL     OW20761   5.726   0.614   4.942
39641SOL    HW120762   5.767   0.696   4.915
39641SOL    HW220763   5.637   0.639   4.968
39642SOL     OW20764   4.308   9.154   8.915
39642SOL    HW120765   4.271   9.071   8.946
39642SOL    HW220766   4.401   9.137   8.907
39643SOL     OW20767   9.682  14.842   6.653
39643SOL    HW120768   9.724   0.050   6.667
39643SOL    HW220769   9.679  14.832   6.557
39644SOL     OW20770  13.415   6.541   2.672
39644SOL    HW120771  13.322   6.552   2.693
39644SOL    HW220772  13.422   6.569   2.581
39645SOL     OW20773  14.471   1.109   3.708
39645SOL    HW120774  14.510   1.129   3.794
39645SOL    HW220775  14.388   1.067   3.729
39646SOL     OW20776   1.140  13.788   0.470
39646SOL    HW120777   1.136  13.700   0.434
39646SOL    HW220778   1.061  13.797   0.523
39647SOL     OW20779  14.504  10.334  13.900
39647SOL    HW120780  14.454  10.396  13.953
39647SOL    HW220781  14.596  10.354  13.920
39648SOL     OW20782   1.844  12.262   9.678
39648SOL    HW120783   1.808  12.349   9.663
39648SOL    HW220784   1.891  12.241   9.597
39649SOL     OW20785  12.285   8.832   8.216
39649SOL    HW120786  12.225   8.900   8.247
39649SOL    HW220787  12.354   8.829   8.282
39650SOL     OW20788   1.392  14.051   1.091
39650SOL    HW120789   1.449  14.038   1.015
39650SOL    HW220790   1.444  14.105   1.151
39651SOL     OW20791   5.382   8.009  12.300
39651SOL    HW120792   5.334   7.926  12.306
39651SOL    HW220793   5.407   8.016  12.208
39652SOL     OW20794  14.103   5.755  11.890
39652SOL    HW120795  14.029   5.694  11.891
39652SOL    HW220796  14.084   5.816  11.962
39653SOL     OW20797  14.184   0.718   2.885
39653SOL    HW120798  14.215   0.627   2.896
39653SOL    HW220799  14.238   0.769   2.946
39654SOL     OW20800  10.113  10.672   7.569
39654SOL    HW120801  10.093  10.582   7.594
39654SOL    HW220802  10.206  10.670   7.546
39655SOL     OW20803   7.372   9.325  14.570
39655SOL    HW120804   7.283   9.358  14.586
39655SOL    HW220805   7.421   9.401  14.540
39656SOL     OW20806  13.087   4.826   5.512
39656SOL    HW120807  13.039   4.851   5.434
39656SOL    HW220808  13.171   4.871   5.505
39657SOL     OW20809  11.735   1.326   6.175
39657SOL    HW120810  11.732   1.235   6.147
39657SOL    HW220811  11.723   1.321   6.270
39658SOL     OW20812   2.280   7.959   4.016
39658SOL    HW120813   2.286   7.880   4.069
39658SOL    HW220814   2.370   7.985   4.000
39659SOL     OW20815  10.023   7.635   4.626
39659SOL    HW120816   9.959   7.569   4.599
39659SOL    HW220817  10.076   7.652   4.548
39660SOL     OW20818   2.153   9.802   6.990
39660SOL    HW120819   2.225   9.820   6.930
39660SOL    HW220820   2.100   9.882   6.989
39661SOL     OW20821  12.984  12.564   8.441
39661SOL    HW120822  12.996  12.654   8.409
39661SOL    HW220823  12.912  12.529   8.387
39662SOL     OW20824   1.214   4.060   5.389
39662SOL    HW120825   1.171   4.010   5.459
39662SOL    HW220826   1.148   4.068   5.321
39663SOL     OW20827   4.142  13.772  14.593
39663SOL    HW120828   4.132  13.863  14.567
39663SOL    HW220829   4.149  13.724  14.510
39664SOL     OW20830   9.700   7.313   0.114
39664SOL    HW120831   9.618   7.342   0.073
39664SOL    HW220832   9.682   7.223   0.143
39665SOL     OW20833  12.116   7.051  14.080
39665SOL    HW120834  12.048   7.001  14.124
39665SOL    HW220835  12.137   7.122  14.140
39666SOL     OW20836   6.394   6.697   1.217
39666SOL    HW120837   6.387   6.792   1.210
39666SOL    HW220838   6.483   6.682   1.248
39667SOL     OW20839   7.459   4.640   6.627
39667SOL    HW120840   7.546   4.643   6.669
39667SOL    HW220841   7.415   4.719   6.658
39668SOL     OW20842   2.801  13.764  13.612
39668SOL    HW120843   2.740  13.722  13.552
39668SOL    HW220844   2.846  13.829  13.559
39669SOL     OW20845   5.090  13.677   6.799
39669SOL    HW120846   5.181  13.699   6.775
39669SOL    HW220847   5.053  13.642   6.718
39670SOL     OW20848  11.887   8.497   7.234
39670SOL    HW120849  11.914   8.472   7.145
39670SOL    HW220850  11.825   8.568   7.221
39671SOL     OW20851   1.700   2.812   2.625
39671SOL    HW120852   1.621   2.793   2.575
39671SOL    HW220853   1.735   2.726   2.648
39672SOL     OW20854   2.831  13.376  12.712
39672SOL    HW120855   2.750  13.324  12.712
39672SOL    HW220856   2.817  13.442  12.645
39673SOL     OW20857  13.349  14.365   8.637
39673SOL    HW120858  13.367  14.277   8.603
39673SOL    HW220859  13.382  14.424   8.569
39674SOL     OW20860   9.725   7.245   7.117
39674SOL    HW120861   9.651   7.185   7.107
39674SOL    HW220862   9.774   7.236   7.035
39675SOL     OW20863  13.387   8.081  14.510
39675SOL    HW120864  13.375   8.024  14.586
39675SOL    HW220865  13.332   8.043  14.442
39676SOL     OW20866  10.721   9.724  14.083
39676SOL    HW120867  10.763   9.688  14.161
39676SOL    HW220868  10.632   9.689  14.085
39677SOL     OW20869   4.774  11.603  13.881
39677SOL    HW120870   4.810  11.640  13.801
39677SOL    HW220871   4.756  11.679  13.937
39678SOL     OW20872   9.366   6.262   5.664
39678SOL    HW120873   9.355   6.189   5.726
39678SOL    HW220874   9.281   6.269   5.621
39679SOL     OW20875  13.342   3.301   0.477
39679SOL    HW120876  13.317   3.385   0.439
39679SOL    HW220877  13.421   3.319   0.527
39680SOL     OW20878  14.785  12.876   4.291
39680SOL    HW120879  14.875  12.847   4.303
39680SOL    HW220880  14.732  12.813   4.341
39681SOL     OW20881   7.089  13.262  11.411
39681SOL    HW120882   7.151  13.190  11.407
39681SOL    HW220883   7.116  13.313  11.488
39682SOL     OW20884   7.068   3.111   8.537
39682SOL    HW120885   7.041   3.202   8.548
39682SOL    HW220886   7.022   3.063   8.606
39683SOL     OW20887   1.856   5.760  10.922
39683SOL    HW120888   1.907   5.810  10.986
39683SOL    HW220889   1.822   5.685  10.972
39684SOL     OW20890   8.997   8.715   3.036
39684SOL    HW120891   8.953   8.649   2.983
39684SOL    HW220892   8.934   8.786   3.045
39685SOL     OW20893   6.998   3.214  10.146
39685SOL    HW120894   6.916   3.178  10.111
39685SOL    HW220895   7.001   3.303  10.112
39686SOL     OW20896   8.359  13.439  14.611
39686SOL    HW120897   8.397  13.366  14.660
39686SOL    HW220898   8.419  13.512  14.625
39687SOL     OW20899  12.248  14.589   9.318
39687SOL    HW120900  12.199  14.660   9.358
39687SOL    HW220901  12.331  14.628   9.291
39688SOL     OW20902   3.429   1.002   8.238
39688SOL    HW120903   3.339   1.011   8.206
39688SOL    HW220904   3.480   0.981   8.161
39689SOL     OW20905   0.458   0.471   9.578
39689SOL    HW120906   0.535   0.433   9.536
39689SOL    HW220907   0.493   0.543   9.631
39690SOL     OW20908   6.768   8.748   5.187
39690SOL    HW120909   6.836   8.805   5.149
39690SOL    HW220910   6.694   8.756   5.127
39691SOL     OW20911   1.478   7.874  11.134
39691SOL    HW120912   1.505   7.918  11.053
39691SOL    HW220913   1.549   7.893  11.195
39692SOL     OW20914  12.106   6.947   7.898
39692SOL    HW120915  12.136   6.904   7.978
39692SOL    HW220916  12.064   7.027   7.929
39693SOL     OW20917   4.345  10.810   8.315
39693SOL    HW120918   4.280  10.749   8.349
39693SOL    HW220919   4.359  10.872   8.387
39694SOL     OW20920  12.320  14.382   6.015
39694SOL    HW120921  12.247  14.420   6.066
39694SOL    HW220922  12.367  14.328   6.078
39695SOL     OW20923   2.021   5.397  14.404
39695SOL    HW120924   1.995   5.309  14.434
39695SOL    HW220925   1.967   5.457  14.455
39696SOL     OW20926   0.072  11.427   9.832
39696SOL    HW120927   0.041  11.498   9.776
39696SOL    HW220928   0.013  11.429   9.908
39697SOL     OW20929   7.397  11.552  11.761
39697SOL    HW120930   7.401  11.457  11.751
39697SOL    HW220931   7.351  11.565  11.843
39698SOL     OW20932   6.322   4.754  14.042
39698SOL    HW120933   6.404   4.709  14.026
39698SOL    HW220934   6.283   4.765  13.955
39699SOL     OW20935   9.341   0.641   8.641
39699SOL    HW120936   9.311   0.560   8.683
39699SOL    HW220937   9.329   0.625   8.547
39700SOL     OW20938  13.558   9.089   5.066
39700SOL    HW120939  13.560   9.004   5.021
39700SOL    HW220940  13.645   9.098   5.104
39701SOL     OW20941  10.430   5.474   0.053
39701SOL    HW120942  10.436   5.427  14.846
39701SOL    HW220943  10.430   5.567   0.028
39702SOL     OW20944  13.717  12.357  11.514
39702SOL    HW120945  13.744  12.265  11.523
39702SOL    HW220946  13.792  12.399  11.473
39703SOL     OW20947   4.877  12.253   9.229
39703SOL    HW120948   4.871  12.179   9.289
39703SOL    HW220949   4.896  12.215   9.144
39704SOL     OW20950   1.798   1.696   0.041
39704SOL    HW120951   1.869   1.634   0.025
39704SOL    HW220952   1.739   1.684  14.842
39705SOL     OW20953  12.794  11.041  12.183
39705SOL    HW120954  12.859  11.110  12.196
39705SOL    HW220955  12.803  11.018  12.090
39706SOL     OW20956   5.603  12.151   5.546
39706SOL    HW120957   5.516  12.161   5.585
39706SOL    HW220958   5.615  12.056   5.538
39707SOL     OW20959  14.090  10.399   1.120
39707SOL    HW120960  14.155  10.337   1.088
39707SOL    HW220961  14.021  10.343   1.158
39708SOL     OW20962   2.759  12.626   4.673
39708SOL    HW120963   2.704  12.548   4.662
39708SOL    HW220964   2.841  12.592   4.710
39709SOL     OW20965   9.909   9.515   0.272
39709SOL    HW120966   9.921   9.422   0.291
39709SOL    HW220967   9.942   9.526   0.183
39710SOL     OW20968  11.287   5.342   7.640
39710SOL    HW120969  11.257   5.316   7.727
39710SOL    HW220970  11.331   5.426   7.654
39711SOL     OW20971   1.006   1.448  12.712
39711SOL    HW120972   1.013   1.431  12.806
39711SOL    HW220973   1.065   1.384  12.672
39712SOL     OW20974   9.145  12.255   4.307
39712SOL    HW120975   9.185  12.199   4.240
39712SOL    HW220976   9.219  12.296   4.352
39713SOL     OW20977   9.828   9.656   8.301
39713SOL    HW120978   9.801   9.676   8.212
39713SOL    HW220979   9.821   9.561   8.308
39714SOL     OW20980  12.151   0.108  14.601
39714SOL    HW120981  12.199   0.182  14.563
39714SOL    HW220982  12.151   0.042  14.532
39715SOL     OW20983   6.908  13.884   4.030
39715SOL    HW120984   6.886  13.951   3.965
39715SOL    HW220985   6.952  13.932   4.101
39716SOL     OW20986  13.434   4.107   5.257
39716SOL    HW120987  13.344   4.081   5.239
39716SOL    HW220988  13.462   4.048   5.328
39717SOL     OW20989  10.518  12.299  10.644
39717SOL    HW120990  10.493  12.235  10.577
39717SOL    HW220991  10.436  12.339  10.671
39718SOL     OW20992   1.224   5.249   5.946
39718SOL    HW120993   1.304   5.239   5.895
39718SOL    HW220994   1.160   5.282   5.883
39719SOL     OW20995  12.834  12.807  12.985
39719SOL    HW120996  12.890  12.839  12.914
39719SOL    HW220997  12.745  12.832  12.959
39720SOL     OW20998   6.407   5.915   8.046
39720SOL    HW120999   6.430   5.841   8.102
39720SOL    HW221000   6.343   5.879   7.984
39721SOL     OW21001  11.789   8.569  10.697
39721SOL    HW121002  11.697   8.545  10.683
39721SOL    HW221003  11.795   8.659  10.667
39722SOL     OW21004   7.680  14.384   5.406
39722SOL    HW121005   7.597  14.368   5.451
39722SOL    HW221006   7.669  14.341   5.321
39723SOL     OW21007  14.353   0.623  14.342
39723SOL    HW121008  14.330   0.716  14.337
39723SOL    HW221009  14.331   0.588  14.256
39724SOL     OW21010   8.578  14.015  12.732
39724SOL    HW121011   8.671  13.996  12.725
39724SOL    HW221012   8.566  14.040  12.824
39725SOL     OW21013   2.092   4.327   1.030
39725SOL    HW121014   2.063   4.250   0.981
39725SOL    HW221015   2.166   4.295   1.082
39726SOL     OW21016  14.230   5.606   1.701
39726SOL    HW121017  14.214   5.662   1.625
39726SOL    HW221018  14.229   5.517   1.666
39727SOL     OW21019   8.194  11.298   4.665
39727SOL    HW121020   8.177  11.388   4.695
39727SOL    HW221021   8.223  11.252   4.744
39728SOL     OW21022  13.923   3.777  10.749
39728SOL    HW121023  14.011   3.813  10.757
39728SOL    HW221024  13.897   3.756  10.839
39729SOL     OW21025   5.112   0.474   4.547
39729SOL    HW121026   5.092   0.385   4.516
39729SOL    HW221027   5.206   0.473   4.563
39730SOL     OW21028  13.521   2.234  13.841
39730SOL    HW121029  13.600   2.260  13.794
39730SOL    HW221030  13.468   2.188  13.775
39731SOL     OW21031   9.386   2.087   9.819
39731SOL    HW121032   9.441   2.042   9.755
39731SOL    HW221033   9.313   2.027   9.834
39732SOL     OW21034   3.595  13.573   6.384
39732SOL    HW121035   3.535  13.528   6.324
39732SOL    HW221036   3.582  13.528   6.468
39733SOL     OW21037   0.306   7.815   8.298
39733SOL    HW121038   0.282   7.739   8.245
39733SOL    HW221039   0.353   7.779   8.373
39734SOL     OW21040   1.286   4.502   5.126
39734SOL    HW121041   1.372   4.542   5.111
39734SOL    HW221042   1.224   4.564   5.086
39735SOL     OW21043   7.120  14.700  14.724
39735SOL    HW121044   7.089  14.687  14.814
39735SOL    HW221045   7.072  14.634  14.673
39736SOL     OW21046   6.522   0.030   9.796
39736SOL    HW121047   6.510  14.817   9.764
39736SOL    HW221048   6.465   0.036   9.873
39737SOL     OW21049   9.835   0.988   5.536
39737SOL    HW121050   9.898   1.009   5.604
39737SOL    HW221051   9.802   1.072   5.506
39738SOL     OW21052   1.905   3.056   1.717
39738SOL    HW121053   1.896   2.983   1.655
39738SOL    HW221054   1.823   3.104   1.709
39739SOL     OW21055  13.103  10.099  10.544
39739SOL    HW121056  13.063  10.024  10.589
39739SOL    HW221057  13.154  10.143  10.611
39740SOL     OW21058   7.075  13.354   2.779
39740SOL    HW121059   7.113  13.403   2.706
39740SOL    HW221060   7.145  13.351   2.845
39741SOL     OW21061  11.530   0.944  14.667
39741SOL    HW121062  11.536   0.877  14.599
39741SOL    HW221063  11.439   0.972  14.666
39742SOL     OW21064   8.255  14.783   2.469
39742SOL    HW121065   8.179  14.792   2.412
39742SOL    HW221066   8.326  14.829   2.423
39743SOL     OW21067   1.904  11.007  12.080
39743SOL    HW121068   1.957  10.968  12.010
39743SOL    HW221069   1.844  11.065  12.033
39744SOL     OW21070  11.255   6.652   1.812
39744SOL    HW121071  11.279   6.698   1.892
39744SOL    HW221072  11.174   6.606   1.834
39745SOL     OW21073   2.183   8.285  10.436
39745SOL    HW121074   2.248   8.242  10.492
39745SOL    HW221075   2.202   8.254  10.348
39746SOL     OW21076  13.674   6.507   6.309
39746SOL    HW121077  13.695   6.592   6.348
39746SOL    HW221078  13.756   6.459   6.308
39747SOL     OW21079  11.022   9.495   4.203
39747SOL    HW121080  11.060   9.495   4.290
39747SOL    HW221081  10.928   9.482   4.217
39748SOL     OW21082   5.030   7.422   4.945
39748SOL    HW121083   4.966   7.355   4.968
39748SOL    HW221084   5.005   7.498   4.997
39749SOL     OW21085  11.372   1.168  13.293
39749SOL    HW121086  11.345   1.139  13.206
39749SOL    HW221087  11.466   1.181  13.287
39750SOL     OW21088   3.913  13.809   2.229
39750SOL    HW121089   3.861  13.764   2.163
39750SOL    HW221090   4.004  13.798   2.199
39751SOL     OW21091   6.735   4.948   0.784
39751SOL    HW121092   6.662   4.888   0.795
39751SOL    HW221093   6.757   4.975   0.874
39752SOL     OW21094   9.316   0.861  10.251
39752SOL    HW121095   9.294   0.803  10.324
39752SOL    HW221096   9.294   0.810  10.173
39753SOL     OW21097   4.336   3.263   0.323
39753SOL    HW121098   4.375   3.248   0.237
39753SOL    HW221099   4.380   3.200   0.380
39754SOL     OW21100   2.639   9.817   6.121
39754SOL    HW121101   2.638   9.773   6.036
39754SOL    HW221102   2.682   9.755   6.180
39755SOL     OW21103   1.766   6.974   9.253
39755SOL    HW121104   1.805   6.892   9.224
39755SOL    HW221105   1.714   6.950   9.330
39756SOL     OW21106   6.847   3.144  12.915
39756SOL    HW121107   6.763   3.115  12.949
39756SOL    HW221108   6.827   3.223  12.865
39757SOL     OW21109  10.842   3.813  14.421
39757SOL    HW121110  10.833   3.718  14.416
39757SOL    HW221111  10.811   3.836  14.508
39758SOL     OW21112   6.199   3.435   0.291
39758SOL    HW121113   6.202   3.353   0.339
39758SOL    HW221114   6.255   3.420   0.214
39759SOL     OW21115  13.503  10.752   2.951
39759SOL    HW121116  13.485  10.845   2.942
39759SOL    HW221117  13.462  10.728   3.035
39760SOL     OW21118   9.218   7.079   5.992
39760SOL    HW121119   9.281   7.008   6.000
39760SOL    HW221120   9.153   7.061   6.061
39761SOL     OW21121   9.285   7.084   8.468
39761SOL    HW121122   9.191   7.100   8.480
39761SOL    HW221123   9.303   7.005   8.519
39762SOL     OW21124   6.755   5.252   5.800
39762SOL    HW121125   6.825   5.193   5.827
39762SOL    HW221126   6.682   5.194   5.777
39763SOL     OW21127   3.022  13.340   0.365
39763SOL    HW121128   3.013  13.433   0.344
39763SOL    HW221129   2.998  13.295   0.284
39764SOL     OW21130   3.432  10.629   6.258
39764SOL    HW121131   3.435  10.680   6.339
39764SOL    HW221132   3.524  10.611   6.238
39765SOL     OW21133  10.988   9.860   9.844
39765SOL    HW121134  10.942   9.806   9.781
39765SOL    HW221135  11.015   9.937   9.795
39766SOL     OW21136  12.153   1.038   7.992
39766SOL    HW121137  12.078   0.993   8.032
39766SOL    HW221138  12.202   0.969   7.948
39767SOL     OW21139  11.062   3.162  10.471
39767SOL    HW121140  10.987   3.161  10.531
39767SOL    HW221141  11.137   3.185  10.527
39768SOL     OW21142  11.663  12.632   8.778
39768SOL    HW121143  11.688  12.691   8.849
39768SOL    HW221144  11.577  12.663   8.750
39769SOL     OW21145  13.629   8.524   2.696
39769SOL    HW121146  13.721   8.511   2.717
39769SOL    HW221147  13.630   8.582   2.620
39770SOL     OW21148  13.677   4.499   8.518
39770SOL    HW121149  13.744   4.558   8.552
39770SOL    HW221150  13.631   4.550   8.451
39771SOL     OW21151   0.074  13.340   2.520
39771SOL    HW121152   0.139  13.291   2.470
39771SOL    HW221153  14.875  13.281   2.525
39772SOL     OW21154   4.038   8.735  11.146
39772SOL    HW121155   4.017   8.705  11.058
39772SOL    HW221156   4.107   8.800  11.134
39773SOL     OW21157   6.315   1.574   0.348
39773SOL    HW121158   6.393   1.525   0.320
39773SOL    HW221159   6.333   1.597   0.439
39774SOL     OW21160   4.425  11.618   4.244
39774SOL    HW121161   4.496  11.679   4.227
39774SOL    HW221162   4.434  11.596   4.337
39775SOL     OW21163   2.318   8.878  14.504
39775SOL    HW121164   2.266   8.947  14.546
39775SOL    HW221165   2.318   8.807  14.568
39776SOL     OW21166   3.435   9.922  14.842
39776SOL    HW121167   3.392   9.975  14.775
39776SOL    HW221168   3.419   9.970   0.047
39777SOL     OW21169   7.783   7.997  14.666
39777SOL    HW121170   7.819   7.912  14.639
39777SOL    HW221171   7.859   8.046  14.697
39778SOL     OW21172   7.055   3.149  14.871
39778SOL    HW121173   7.112   3.136  14.795
39778SOL    HW221174   7.067   3.241   0.018
39779SOL     OW21175   2.618   2.889  14.562
39779SOL    HW121176   2.600   2.882  14.655
39779SOL    HW221177   2.678   2.963  14.554
39780SOL     OW21178   2.823   0.219   5.280
39780SOL    HW121179   2.838   0.311   5.259
39780SOL    HW221180   2.862   0.171   5.207
39781SOL     OW21181   3.520   0.095   6.822
39781SOL    HW121182   3.459   0.161   6.790
39781SOL    HW221183   3.534   0.118   6.914
39782SOL     OW21184   5.044   5.011   8.620
39782SOL    HW121185   5.119   4.963   8.654
39782SOL    HW221186   5.022   4.967   8.538
39783SOL     OW21187   7.124   2.321  11.071
39783SOL    HW121188   7.091   2.333  10.982
39783SOL    HW221189   7.215   2.297  11.060
39784SOL     OW21190   9.067  13.789   2.707
39784SOL    HW121191   9.158  13.779   2.734
39784SOL    HW221192   9.049  13.713   2.652
39785SOL     OW21193  14.848  14.003  10.080
39785SOL    HW121194  14.860  14.091  10.044
39785SOL    HW221195  14.868  13.945  10.006
39786SOL     OW21196  14.220  13.426   2.464
39786SOL    HW121197  14.198  13.430   2.371
39786SOL    HW221198  14.297  13.482   2.473
39787SOL     OW21199  12.238   1.910   0.523
39787SOL    HW121200  12.152   1.951   0.534
39787SOL    HW221201  12.300   1.981   0.537
39788SOL     OW21202   1.399  13.093  11.486
39788SOL    HW121203   1.458  13.047  11.427
39788SOL    HW221204   1.452  13.109  11.564
39789SOL     OW21205   1.944   9.687   8.818
39789SOL    HW121206   1.910   9.771   8.786
39789SOL    HW221207   2.037   9.689   8.794
39790SOL     OW21208  10.509   4.399   0.430
39790SOL    HW121209  10.455   4.448   0.368
39790SOL    HW221210  10.569   4.464   0.466
39791SOL     OW21211   6.524   1.592   8.143
39791SOL    HW121212   6.554   1.505   8.170
39791SOL    HW221213   6.471   1.623   8.216
39792SOL     OW21214  14.187   0.897   6.042
39792SOL    HW121215  14.116   0.905   6.105
39792SOL    HW221216  14.238   0.978   6.054
39793SOL     OW21217   2.350  10.044   3.009
39793SOL    HW121218   2.366   9.950   3.005
39793SOL    HW221219   2.300  10.063   2.930
39794SOL     OW21220  12.755   6.417   2.387
39794SOL    HW121221  12.798   6.471   2.454
39794SOL    HW221222  12.665   6.409   2.417
39795SOL     OW21223   0.321  12.921   3.940
39795SOL    HW121224   0.324  12.970   4.021
39795SOL    HW221225   0.410  12.888   3.928
39796SOL     OW21226  14.437  14.744   1.428
39796SOL    HW121227  14.441  14.660   1.382
39796SOL    HW221228  14.346  14.773   1.416
39797SOL     OW21229  11.005  14.731   7.159
39797SOL    HW121230  11.001  14.724   7.064
39797SOL    HW221231  11.076  14.673   7.185
39798SOL     OW21232   8.851  10.795   9.415
39798SOL    HW121233   8.893  10.759   9.493
39798SOL    HW221234   8.812  10.877   9.444
39799SOL     OW21235   1.554   9.577   8.410
39799SOL    HW121236   1.635   9.529   8.395
39799SOL    HW221237   1.580   9.654   8.461
39800SOL     OW21238   9.503   1.919   3.964
39800SOL    HW121239   9.510   1.894   4.056
39800SOL    HW221240   9.469   1.840   3.921
39801SOL     OW21241  11.911  11.321   2.429
39801SOL    HW121242  11.920  11.414   2.409
39801SOL    HW221243  11.999  11.292   2.453
39802SOL     OW21244   5.715  11.274  12.432
39802SOL    HW121245   5.732  11.269  12.526
39802SOL    HW221246   5.620  11.273  12.425
39803SOL     OW21247   0.534  12.182   4.468
39803SOL    HW121248   0.543  12.173   4.374
39803SOL    HW221249   0.468  12.117   4.493
39804SOL     OW21250   4.812  13.630   8.717
39804SOL    HW121251   4.800  13.572   8.792
39804SOL    HW221252   4.723  13.643   8.684
39805SOL     OW21253  11.153  12.651  14.076
39805SOL    HW121254  11.217  12.582  14.057
39805SOL    HW221255  11.207  12.728  14.094
39806SOL     OW21256   5.663   7.934   4.245
39806SOL    HW121257   5.674   7.899   4.333
39806SOL    HW221258   5.661   7.857   4.188
39807SOL     OW21259   0.072   9.680   9.109
39807SOL    HW121260   0.129   9.668   9.185
39807SOL    HW221261   0.015   9.752   9.133
39808SOL     OW21262   0.022   6.884  10.365
39808SOL    HW121263  14.874   6.894  10.272
39808SOL    HW221264   0.085   6.954  10.380
39809SOL     OW21265   8.223  12.790   4.942
39809SOL    HW121266   8.276  12.816   4.866
39809SOL    HW221267   8.252  12.701   4.961
39810SOL     OW21268   4.577  10.962  10.596
39810SOL    HW121269   4.490  10.934  10.567
39810SOL    HW221270   4.564  10.993  10.686
39811SOL     OW21271  10.433   7.908   4.073
39811SOL    HW121272  10.502   7.869   4.127
39811SOL    HW221273  10.449   8.003   4.077
39812SOL     OW21274  10.223  13.814  13.685
39812SOL    HW121275  10.247  13.782  13.598
39812SOL    HW221276  10.277  13.892  13.698
39813SOL     OW21277  10.827   1.318   3.732
39813SOL    HW121278  10.797   1.327   3.823
39813SOL    HW221279  10.761   1.263   3.690
39814SOL     OW21280   3.506   9.798  12.471
39814SOL    HW121281   3.454   9.782  12.393
39814SOL    HW221282   3.461   9.750  12.541
39815SOL     OW21283  12.068   7.300   9.680
39815SOL    HW121284  12.154   7.341   9.667
39815SOL    HW221285  12.018   7.364   9.729
39816SOL     OW21286   2.267   8.714   8.509
39816SOL    HW121287   2.238   8.793   8.554
39816SOL    HW221288   2.344   8.742   8.459
39817SOL     OW21289   6.317   5.480   7.446
39817SOL    HW121290   6.229   5.519   7.446
39817SOL    HW221291   6.301   5.386   7.445
39818SOL     OW21292   9.261   7.212   0.714
39818SOL    HW121293   9.228   7.216   0.804
39818SOL    HW221294   9.346   7.257   0.719
39819SOL     OW21295   9.160   6.415   9.204
39819SOL    HW121296   9.105   6.473   9.151
39819SOL    HW221297   9.118   6.416   9.290
39820SOL     OW21298   1.963  10.140   3.532
39820SOL    HW121299   2.025  10.118   3.463
39820SOL    HW221300   1.944  10.233   3.520
39821SOL     OW21301  11.883  12.885   8.704
39821SOL    HW121302  11.836  12.959   8.666
39821SOL    HW221303  11.973  12.915   8.711
39822SOL     OW21304   6.207   6.664   2.512
39822SOL    HW121305   6.150   6.592   2.484
39822SOL    HW221306   6.182   6.737   2.456
39823SOL     OW21307  13.508  13.158   3.337
39823SOL    HW121308  13.505  13.165   3.241
39823SOL    HW221309  13.444  13.221   3.368
39824SOL     OW21310  13.570   6.061   0.118
39824SOL    HW121311  13.522   6.129   0.071
39824SOL    HW221312  13.652   6.053   0.070
39825SOL     OW21313  14.781  11.982   3.001
39825SOL    HW121314  14.798  12.070   2.968
39825SOL    HW221315  14.867  11.946   3.022
39826SOL     OW21316   3.579   6.619  12.548
39826SOL    HW121317   3.490   6.583  12.551
39826SOL    HW221318   3.594   6.651  12.637
39827SOL     OW21319  11.567   1.938   9.883
39827SOL    HW121320  11.507   2.004   9.850
39827SOL    HW221321  11.511   1.861   9.899
39828SOL     OW21322   7.332   3.285  11.852
39828SOL    HW121323   7.265   3.353  11.861
39828SOL    HW221324   7.415   3.334  11.848
39829SOL     OW21325  13.711  11.498   9.698
39829SOL    HW121326  13.671  11.428   9.750
39829SOL    HW221327  13.805  11.479   9.699
39830SOL     OW21328  14.287   9.366   0.738
39830SOL    HW121329  14.354   9.316   0.692
39830SOL    HW221330  14.330   9.393   0.820
39831SOL     OW21331   5.804   3.191   4.571
39831SOL    HW121332   5.800   3.273   4.621
39831SOL    HW221333   5.868   3.208   4.502
39832SOL     OW21334   5.156   4.819   8.249
39832SOL    HW121335   5.179   4.735   8.208
39832SOL    HW221336   5.239   4.856   8.276
39833SOL     OW21337   5.180   4.362   1.697
39833SOL    HW121338   5.128   4.441   1.684
39833SOL    HW221339   5.270   4.393   1.705
39834SOL     OW21340  13.753   5.172   5.008
39834SOL    HW121341  13.672   5.127   4.985
39834SOL    HW221342  13.745   5.259   4.969
39835SOL     OW21343   5.938  14.308   0.478
39835SOL    HW121344   5.934  14.341   0.388
39835SOL    HW221345   5.849  14.317   0.511
39836SOL     OW21346   3.016   3.731  14.521
39836SOL    HW121347   3.102   3.728  14.563
39836SOL    HW221348   3.016   3.812  14.471
39837SOL     OW21349  12.410  10.922   5.887
39837SOL    HW121350  12.464  10.997   5.913
39837SOL    HW221351  12.335  10.924   5.947
39838SOL     OW21352   2.568   4.953   5.633
39838SOL    HW121353   2.507   4.935   5.562
39838SOL    HW221354   2.632   5.013   5.594
39839SOL     OW21355   4.242   1.249  13.556
39839SOL    HW121356   4.251   1.236  13.462
39839SOL    HW221357   4.288   1.332  13.573
39840SOL     OW21358   5.373   2.707   0.483
39840SOL    HW121359   5.347   2.794   0.452
39840SOL    HW221360   5.290   2.664   0.507
39841SOL     OW21361   4.536   5.918   1.771
39841SOL    HW121362   4.503   5.864   1.699
39841SOL    HW221363   4.500   5.878   1.850
39842SOL     OW21364   7.961   9.143   1.998
39842SOL    HW121365   7.998   9.198   1.930
39842SOL    HW221366   7.935   9.205   2.067
39843SOL     OW21367   7.471  13.475  10.827
39843SOL    HW121368   7.421  13.409  10.779
39843SOL    HW221369   7.535  13.508  10.764
39844SOL     OW21370   0.579   8.879  12.161
39844SOL    HW121371   0.573   8.790  12.127
39844SOL    HW221372   0.656   8.878  12.218
39845SOL     OW21373   3.981   0.732   2.290
39845SOL    HW121374   3.952   0.726   2.198
39845SOL    HW221375   4.004   0.824   2.302
39846SOL     OW21376   8.991   0.986   2.314
39846SOL    HW121377   8.946   0.951   2.391
39846SOL    HW221378   9.080   1.005   2.344
39847SOL     OW21379  10.964  10.493  11.755
39847SOL    HW121380  10.973  10.416  11.811
39847SOL    HW221381  10.995  10.464  11.670
39848SOL     OW21382  14.347   4.431   2.414
39848SOL    HW121383  14.372   4.354   2.363
39848SOL    HW221384  14.276   4.471   2.364
39849SOL     OW21385   8.149  10.698   0.580
39849SOL    HW121386   8.080  10.760   0.557
39849SOL    HW221387   8.102  10.624   0.619
39850SOL     OW21388   4.823  14.092  10.763
39850SOL    HW121389   4.910  14.102  10.723
39850SOL    HW221390   4.834  14.127  10.852
39851SOL     OW21391   0.118   8.350   8.445
39851SOL    HW121392   0.096   8.276   8.389
39851SOL    HW221393   0.186   8.397   8.397
39852SOL     OW21394  11.529  13.998   0.323
39852SOL    HW121395  11.502  14.089   0.311
39852SOL    HW221396  11.485  13.971   0.404
39853SOL     OW21397  10.925   5.620   6.444
39853SOL    HW121398  10.842   5.572   6.432
39853SOL    HW221399  10.982   5.557   6.488
39854SOL     OW21400  11.542   8.430  14.539
39854SOL    HW121401  11.635   8.409  14.532
39854SOL    HW221402  11.514   8.440  14.448
39855SOL     OW21403  12.280   4.530   1.585
39855SOL    HW121404  12.365   4.558   1.618
39855SOL    HW221405  12.241   4.609   1.548
39856SOL     OW21406  13.594   4.195   4.516
39856SOL    HW121407  13.670   4.242   4.482
39856SOL    HW221408  13.585   4.225   4.607
39857SOL     OW21409   5.603  12.180   5.897
39857SOL    HW121410   5.544  12.106   5.885
39857SOL    HW221411   5.662  12.178   5.822
39858SOL     OW21412   2.886  10.175   3.981
39858SOL    HW121413   2.970  10.130   3.981
39858SOL    HW221414   2.848  10.156   3.896
39859SOL     OW21415   6.763  11.707   3.245
39859SOL    HW121416   6.794  11.719   3.334
39859SOL    HW221417   6.825  11.755   3.190
39860SOL     OW21418  12.774   7.065  10.542
39860SOL    HW121419  12.866   7.058  10.515
39860SOL    HW221420  12.725   7.066  10.460
39861SOL     OW21421   4.904   9.584  10.351
39861SOL    HW121422   4.861   9.632  10.421
39861SOL    HW221423   4.980   9.637  10.328
39862SOL     OW21424  10.119   7.492   9.630
39862SOL    HW121425  10.120   7.448   9.545
39862SOL    HW221426  10.129   7.421   9.693
39863SOL     OW21427  11.248   9.131   1.776
39863SOL    HW121428  11.314   9.200   1.775
39863SOL    HW221429  11.288   9.060   1.726
39864SOL     OW21430   1.169  14.091   3.436
39864SOL    HW121431   1.200  14.044   3.358
39864SOL    HW221432   1.085  14.050   3.457
39865SOL     OW21433  12.025   6.673  11.759
39865SOL    HW121434  12.057   6.706  11.675
39865SOL    HW221435  11.948   6.727  11.778
39866SOL     OW21436   8.140  14.249  11.594
39866SOL    HW121437   8.102  14.314  11.654
39866SOL    HW221438   8.064  14.209  11.551
39867SOL     OW21439  11.114  14.231   0.983
39867SOL    HW121440  11.201  14.232   0.943
39867SOL    HW221441  11.123  14.284   1.062
39868SOL     OW21442   5.775   1.875  11.445
39868SOL    HW121443   5.713   1.926  11.497
39868SOL    HW221444   5.860   1.893  11.484
39869SOL     OW21445   9.579   8.985   1.557
39869SOL    HW121446   9.583   9.054   1.490
39869SOL    HW221447   9.604   8.905   1.510
39870SOL     OW21448   3.954   8.591  12.151
39870SOL    HW121449   4.003   8.558  12.076
39870SOL    HW221450   3.930   8.680  12.128
39871SOL     OW21451   3.208   7.379   9.559
39871SOL    HW121452   3.297   7.378   9.592
39871SOL    HW221453   3.200   7.299   9.508
39872SOL     OW21454  12.437  11.730  14.126
39872SOL    HW121455  12.391  11.749  14.044
39872SOL    HW221456  12.530  11.727  14.101
39873SOL     OW21457   9.850  13.951   3.876
39873SOL    HW121458   9.773  13.940   3.932
39873SOL    HW221459   9.849  14.042   3.849
39874SOL     OW21460   2.308   7.201   5.623
39874SOL    HW121461   2.224   7.190   5.580
39874SOL    HW221462   2.296   7.277   5.681
39875SOL     OW21463  14.770   4.798   9.648
39875SOL    HW121464  14.813   4.712   9.641
39875SOL    HW221465  14.760   4.812   9.743
39876SOL     OW21466   4.326   3.569   3.133
39876SOL    HW121467   4.248   3.565   3.077
39876SOL    HW221468   4.313   3.500   3.198
39877SOL     OW21469   1.766  13.285   9.500
39877SOL    HW121470   1.851  13.317   9.528
39877SOL    HW221471   1.785  13.221   9.431
39878SOL     OW21472  14.746  10.485   0.332
39878SOL    HW121473  14.750  10.515   0.241
39878SOL    HW221474  14.653  10.481   0.352
39879SOL     OW21475   4.910   9.892   6.187
39879SOL    HW121476   4.981   9.869   6.248
39879SOL    HW221477   4.926   9.837   6.111
39880SOL     OW21478   6.301  13.851   6.766
39880SOL    HW121479   6.317  13.786   6.834
39880SOL    HW221480   6.281  13.800   6.687
39881SOL     OW21481  11.173  14.806  10.671
39881SOL    HW121482  11.159  14.713  10.686
39881SOL    HW221483  11.134  14.848  10.748
39882SOL     OW21484   2.746  13.876  10.514
39882SOL    HW121485   2.755  13.782  10.501
39882SOL    HW221486   2.824  13.914  10.473
39883SOL     OW21487  12.959   2.409   0.928
39883SOL    HW121488  13.050   2.405   0.956
39883SOL    HW221489  12.929   2.495   0.958
39884SOL     OW21490   3.004   1.500  13.712
39884SOL    HW121491   3.039   1.540  13.633
39884SOL    HW221492   3.066   1.431  13.734
39885SOL     OW21493  12.944   8.764   6.791
39885SOL    HW121494  12.949   8.858   6.771
39885SOL    HW221495  13.035   8.735   6.795
39886SOL     OW21496   0.471  12.831   4.574
39886SOL    HW121497   0.435  12.920   4.578
39886SOL    HW221498   0.510  12.818   4.660
39887SOL     OW21499   0.789  10.628   2.748
39887SOL    HW121500   0.833  10.656   2.829
39887SOL    HW221501   0.725  10.563   2.777
39888SOL     OW21502  11.624   3.289  13.221
39888SOL    HW121503  11.565   3.251  13.286
39888SOL    HW221504  11.586   3.374  13.200
39889SOL     OW21505   1.740   6.616  11.930
39889SOL    HW121506   1.709   6.530  11.957
39889SOL    HW221507   1.663   6.673  11.938
39890SOL     OW21508  12.755  11.675  12.288
39890SOL    HW121509  12.778  11.595  12.335
39890SOL    HW221510  12.698  11.647  12.217
39891SOL     OW21511  14.630  10.963   1.460
39891SOL    HW121512  14.703  10.990   1.516
39891SOL    HW221513  14.643  10.870   1.446
39892SOL     OW21514   5.718  12.985  13.396
39892SOL    HW121515   5.652  13.035  13.444
39892SOL    HW221516   5.800  13.002  13.443
39893SOL     OW21517  12.675   4.968  11.860
39893SOL    HW121518  12.721   4.886  11.879
39893SOL    HW221519  12.722   5.006  11.786
39894SOL     OW21520   2.780  11.790  12.842
39894SOL    HW121521   2.723  11.828  12.775
39894SOL    HW221522   2.722  11.769  12.915
39895SOL     OW21523   0.054   1.833  13.216
39895SOL    HW121524  14.854   1.782  13.241
39895SOL    HW221525   0.018   1.915  13.182
39896SOL     OW21526   9.733  13.092   3.490
39896SOL    HW121527   9.672  13.074   3.561
39896SOL    HW221528   9.803  13.028   3.501
39897SOL     OW21529   0.945   9.327   9.640
39897SOL    HW121530   0.908   9.410   9.670
39897SOL    HW221531   0.944   9.270   9.717
39898SOL     OW21532  12.199  11.090   4.727
39898SOL    HW121533  12.272  11.047   4.773
39898SOL    HW221534  12.197  11.179   4.764
39899SOL     OW21535   8.653   3.714  12.211
39899SOL    HW121536   8.663   3.712  12.306
39899SOL    HW221537   8.732   3.671  12.178
39900SOL     OW21538  13.468  10.770  14.623
39900SOL    HW121539  13.453  10.677  14.608
39900SOL    HW221540  13.380  10.809  14.622
39901SOL     OW21541   1.991  12.070   6.151
39901SOL    HW121542   1.973  12.025   6.234
39901SOL    HW221543   2.002  12.000   6.087
39902SOL     OW21544   4.385  14.253  11.915
39902SOL    HW121545   4.448  14.190  11.880
39902SOL    HW221546   4.409  14.264  12.007
39903SOL     OW21547   1.688   2.629  11.868
39903SOL    HW121548   1.646   2.687  11.805
39903SOL    HW221549   1.624   2.618  11.938
39904SOL     OW21550   4.916  10.967   6.917
39904SOL    HW121551   4.982  11.030   6.889
39904SOL    HW221552   4.857  11.018   6.973
39905SOL     OW21553   1.403   4.875  14.559
39905SOL    HW121554   1.429   4.849  14.647
39905SOL    HW221555   1.411   4.970  14.558
39906SOL     OW21556  13.385  13.683   8.028
39906SOL    HW121557  13.313  13.676   8.090
39906SOL    HW221558  13.358  13.753   7.969
39907SOL     OW21559  14.414   8.429  13.850
39907SOL    HW121560  14.402   8.523  13.836
39907SOL    HW221561  14.474   8.401  13.781
39908SOL     OW21562   8.880   2.583  10.972
39908SOL    HW121563   8.907   2.491  10.961
39908SOL    HW221564   8.847   2.609  10.886
39909SOL     OW21565  10.007   9.955   4.099
39909SOL    HW121566  10.015  10.019   4.028
39909SOL    HW221567   9.968  10.005   4.171
39910SOL     OW21568   8.992  13.100   6.814
39910SOL    HW121569   8.904  13.111   6.778
39910SOL    HW221570   8.993  13.010   6.848
39911SOL     OW21571   9.423   8.838   8.184
39911SOL    HW121572   9.492   8.817   8.121
39911SOL    HW221573   9.353   8.876   8.130
39912SOL     OW21574   8.069   8.049   2.553
39912SOL    HW121575   8.132   8.061   2.481
39912SOL    HW221576   7.994   8.007   2.511
39913SOL     OW21577   1.025   8.119   6.765
39913SOL    HW121578   0.952   8.180   6.778
39913SOL    HW221579   1.103   8.168   6.793
39914SOL     OW21580   9.119   8.928   8.106
39914SOL    HW121581   9.116   8.836   8.078
39914SOL    HW221582   9.049   8.936   8.170
39915SOL     OW21583  12.879   4.905   8.225
39915SOL    HW121584  12.823   4.866   8.292
39915SOL    HW221585  12.941   4.959   8.274
39916SOL     OW21586   6.822   2.878   8.629
39916SOL    HW121587   6.827   2.786   8.652
39916SOL    HW221588   6.887   2.921   8.685
39917SOL     OW21589   6.939   3.402   1.046
39917SOL    HW121590   6.993   3.481   1.040
39917SOL    HW221591   6.878   3.420   1.118
39918SOL     OW21592   5.456   0.533   4.089
39918SOL    HW121593   5.416   0.461   4.040
39918SOL    HW221594   5.535   0.494   4.127
39919SOL     OW21595   9.653   6.831   4.885
39919SOL    HW121596   9.720   6.855   4.948
39919SOL    HW221597   9.646   6.735   4.893
39920SOL     OW21598   7.301   3.607  14.609
39920SOL    HW121599   7.226   3.616  14.551
39920SOL    HW221600   7.347   3.690  14.603
39921SOL     OW21601   5.781  12.425   7.232
39921SOL    HW121602   5.708  12.389   7.284
39921SOL    HW221603   5.813  12.350   7.182
39922SOL     OW21604   7.600  14.768   9.147
39922SOL    HW121605   7.682  14.816   9.139
39922SOL    HW221606   7.592  14.720   9.064
39923SOL     OW21607  11.202   8.976  12.261
39923SOL    HW121608  11.278   8.935  12.303
39923SOL    HW221609  11.240   9.032  12.193
39924SOL     OW21610   8.939   8.730   6.241
39924SOL    HW121611   8.957   8.637   6.256
39924SOL    HW221612   9.026   8.771   6.238
39925SOL     OW21613   4.133   3.287   0.819
39925SOL    HW121614   4.202   3.349   0.839
39925SOL    HW221615   4.160   3.205   0.860
39926SOL     OW21616   9.187   4.070   5.445
39926SOL    HW121617   9.203   4.024   5.528
39926SOL    HW221618   9.099   4.042   5.419
39927SOL     OW21619   3.539  10.486   9.628
39927SOL    HW121620   3.630  10.513   9.625
39927SOL    HW221621   3.509  10.491   9.537
39928SOL     OW21622  12.233   2.381  14.646
39928SOL    HW121623  12.226   2.293  14.684
39928SOL    HW221624  12.325   2.389  14.621
39929SOL     OW21625   0.066   3.398   9.529
39929SOL    HW121626   0.089   3.407   9.437
39929SOL    HW221627   0.041   3.487   9.557
39930SOL     OW21628   1.802   0.526   1.106
39930SOL    HW121629   1.892   0.496   1.117
39930SOL    HW221630   1.750   0.462   1.155
39931SOL     OW21631  11.455  11.148   8.411
39931SOL    HW121632  11.432  11.095   8.486
39931SOL    HW221633  11.375  11.152   8.358
39932SOL     OW21634   2.642   0.943  12.507
39932SOL    HW121635   2.694   1.014  12.545
39932SOL    HW221636   2.566   0.986  12.469
39933SOL     OW21637   1.453   2.017  13.333
39933SOL    HW121638   1.405   1.935  13.324
39933SOL    HW221639   1.495   2.029  13.248
39934SOL     OW21640   0.582   4.040   9.030
39934SOL    HW121641   0.544   4.069   9.113
39934SOL    HW221642   0.599   4.121   8.982
39935SOL     OW21643   6.157  10.025  12.704
39935SOL    HW121644   6.229  10.019  12.641
39935SOL    HW221645   6.082   9.985  12.658
39936SOL     OW21646  11.688   7.493   4.030
39936SOL    HW121647  11.614   7.514   4.088
39936SOL    HW221648  11.657   7.517   3.943
39937SOL     OW21649   7.564   8.246   5.156
39937SOL    HW121650   7.551   8.272   5.247
39937SOL    HW221651   7.651   8.278   5.133
39938SOL     OW21652   0.223   7.438   7.622
39938SOL    HW121653   0.217   7.533   7.635
39938SOL    HW221654   0.141   7.405   7.659
39939SOL     OW21655  12.149   2.086  14.707
39939SOL    HW121656  12.127   1.993  14.714
39939SOL    HW221657  12.119   2.111  14.620
39940SOL     OW21658   4.800  10.302   5.544
39940SOL    HW121659   4.841  10.364   5.605
39940SOL    HW221660   4.806  10.345   5.459
39941SOL     OW21661  11.571   0.679   2.414
39941SOL    HW121662  11.662   0.700   2.435
39941SOL    HW221663  11.524   0.761   2.429
39942SOL     OW21664  14.035   1.417   6.836
39942SOL    HW121665  14.065   1.502   6.866
39942SOL    HW221666  14.062   1.413   6.744
39943SOL     OW21667   0.739   4.109   1.088
39943SOL    HW121668   0.718   4.111   0.995
39943SOL    HW221669   0.778   4.195   1.106
39944SOL     OW21670  10.581  12.202   5.518
39944SOL    HW121671  10.549  12.113   5.501
39944SOL    HW221672  10.584  12.209   5.614
39945SOL     OW21673   8.730   4.109   0.441
39945SOL    HW121674   8.824   4.108   0.425
39945SOL    HW221675   8.697   4.180   0.386
39946SOL     OW21676   0.182   1.906   3.420
39946SOL    HW121677   0.185   1.939   3.330
39946SOL    HW221678   0.272   1.885   3.441
39947SOL     OW21679   7.164   5.798   4.502
39947SOL    HW121680   7.069   5.793   4.508
39947SOL    HW221681   7.185   5.758   4.417
39948SOL     OW21682  14.054   5.877   1.877
39948SOL    HW121683  14.135   5.850   1.834
39948SOL    HW221684  14.015   5.940   1.816
39949SOL     OW21685   1.736   9.942   3.867
39949SOL    HW121686   1.788   9.951   3.787
39949SOL    HW221687   1.703   9.852   3.864
39950SOL     OW21688   8.781  13.556   4.407
39950SOL    HW121689   8.847  13.580   4.341
39950SOL    HW221690   8.783  13.460   4.409
39951SOL     OW21691   5.442   5.727   7.406
39951SOL    HW121692   5.491   5.645   7.396
39951SOL    HW221693   5.500   5.794   7.370
39952SOL     OW21694   8.270   8.536   4.096
39952SOL    HW121695   8.271   8.495   4.010
39952SOL    HW221696   8.199   8.601   4.091
39953SOL     OW21697  11.590   3.041   9.344
39953SOL    HW121698  11.561   3.029   9.254
39953SOL    HW221699  11.566   2.960   9.388
39954SOL     OW21700  10.756   8.611   9.268
39954SOL    HW121701  10.762   8.575   9.179
39954SOL    HW221702  10.672   8.656   9.270
39955SOL     OW21703   2.180   3.192   0.095
39955SOL    HW121704   2.132   3.216   0.016
39955SOL    HW221705   2.226   3.271   0.121
39956SOL     OW21706   2.077   3.086   1.198
39956SOL    HW121707   2.048   3.163   1.148
39956SOL    HW221708   2.033   3.013   1.156
39957SOL     OW21709  12.916   4.117   1.255
39957SOL    HW121710  12.832   4.113   1.302
39957SOL    HW221711  12.921   4.035   1.207
39958SOL     OW21712   4.951   9.839   5.549
39958SOL    HW121713   5.037   9.825   5.510
39958SOL    HW221714   4.936   9.933   5.542
39959SOL     OW21715   1.059   6.609  14.662
39959SOL    HW121716   1.153   6.594  14.661
39959SOL    HW221717   1.031   6.593  14.572
39960SOL     OW21718   7.131  14.266   7.630
39960SOL    HW121719   7.225  14.278   7.615
39960SOL    HW221720   7.112  14.316   7.709
39961SOL     OW21721   3.645  10.572   4.406
39961SOL    HW121722   3.703  10.538   4.474
39961SOL    HW221723   3.607  10.494   4.365
39962SOL     OW21724   8.142   4.975   5.109
39962SOL    HW121725   8.142   4.951   5.016
39962SOL    HW221726   8.231   5.006   5.126
39963SOL     OW21727  14.731   5.377   2.592
39963SOL    HW121728  14.739   5.367   2.497
39963SOL    HW221729  14.819   5.404   2.620
39964SOL     OW21730  10.795   2.109  12.005
39964SOL    HW121731  10.873   2.164  12.002
39964SOL    HW221732  10.723   2.172  12.016
39965SOL     OW21733   8.740   5.927   1.010
39965SOL    HW121734   8.751   5.887   0.924
39965SOL    HW221735   8.827   5.958   1.034
39966SOL     OW21736   8.180  14.409   8.327
39966SOL    HW121737   8.182  14.478   8.261
39966SOL    HW221738   8.249  14.434   8.389
39967SOL     OW21739   5.680   2.203  10.070
39967SOL    HW121740   5.775   2.209  10.065
39967SOL    HW221741   5.664   2.130  10.130
39968SOL     OW21742   8.098  13.400   0.638
39968SOL    HW121743   8.181  13.358   0.663
39968SOL    HW221744   8.120  13.449   0.559
39969SOL     OW21745  13.808  13.426   4.957
39969SOL    HW121746  13.874  13.411   4.890
39969SOL    HW221747  13.853  13.476   5.025
39970SOL     OW21748   5.001   1.756   8.888
39970SOL    HW121749   5.031   1.666   8.875
39970SOL    HW221750   4.906   1.752   8.874
39971SOL     OW21751   9.577   9.701  12.200
39971SOL    HW121752   9.558   9.719  12.292
39971SOL    HW221753   9.644   9.766  12.176
39972SOL     OW21754  13.045  10.412   4.957
39972SOL    HW121755  13.063  10.326   4.995
39972SOL    HW221756  12.964  10.400   4.908
39973SOL     OW21757   5.524  11.820  11.491
39973SOL    HW121758   5.495  11.885  11.426
39973SOL    HW221759   5.597  11.863  11.536
39974SOL     OW21760   4.052   7.484   6.232
39974SOL    HW121761   3.965   7.520   6.211
39974SOL    HW221762   4.056   7.485   6.328
39975SOL     OW21763   3.743  10.586  10.546
39975SOL    HW121764   3.711  10.657  10.602
39975SOL    HW221765   3.818  10.550  10.594
39976SOL     OW21766  14.235   1.684   3.987
39976SOL    HW121767  14.197   1.612   3.935
39976SOL    HW221768  14.289   1.732   3.924
39977SOL     OW21769   8.294   6.110  10.395
39977SOL    HW121770   8.379   6.086  10.359
39977SOL    HW221771   8.236   6.115  10.319
39978SOL     OW21772  10.339   2.733   1.585
39978SOL    HW121773  10.395   2.705   1.513
39978SOL    HW221774  10.284   2.657   1.603
39979SOL     OW21775   9.593   0.832   9.020
39979SOL    HW121776   9.527   0.846   8.953
39979SOL    HW221777   9.671   0.876   8.986
39980SOL     OW21778  12.581   1.174  11.584
39980SOL    HW121779  12.667   1.159  11.545
39980SOL    HW221780  12.600   1.211  11.670
39981SOL     OW21781   2.454   9.903  13.248
39981SOL    HW121782   2.531   9.870  13.295
39981SOL    HW221783   2.402   9.947  13.315
39982SOL     OW21784   5.988   7.530   1.417
39982SOL    HW121785   5.993   7.464   1.487
39982SOL    HW221786   6.052   7.596   1.442
39983SOL     OW21787   2.495  14.257  13.016
39983SOL    HW121788   2.588  14.259  12.995
39983SOL    HW221789   2.460  14.340  12.984
39984SOL     OW21790   3.821   7.632   5.770
39984SOL    HW121791   3.772   7.562   5.812
39984SOL    HW221792   3.889   7.588   5.719
39985SOL     OW21793  12.865   5.126   0.973
39985SOL    HW121794  12.869   5.218   0.945
39985SOL    HW221795  12.955   5.106   0.999
39986SOL     OW21796  13.672   0.787  13.778
39986SOL    HW121797  13.719   0.712  13.813
39986SOL    HW221798  13.715   0.863  13.818
39987SOL     OW21799   5.468   9.549   5.176
39987SOL    HW121800   5.385   9.587   5.148
39987SOL    HW221801   5.447   9.506   5.259
39988SOL     OW21802  13.432   1.687   1.492
39988SOL    HW121803  13.453   1.664   1.582
39988SOL    HW221804  13.434   1.782   1.490
39989SOL     OW21805   7.999   1.089   5.097
39989SOL    HW121806   8.068   1.028   5.121
39989SOL    HW221807   8.045   1.166   5.063
39990SOL     OW21808   4.661  11.397   7.591
39990SOL    HW121809   4.659  11.444   7.508
39990SOL    HW221810   4.710  11.317   7.571
39991SOL     OW21811   3.673   6.772   5.219
39991SOL    HW121812   3.612   6.700   5.235
39991SOL    HW221813   3.688   6.811   5.305
39992SOL     OW21814  10.829  12.150  10.159
39992SOL    HW121815  10.819  12.159  10.254
39992SOL    HW221816  10.873  12.065  10.148
39993SOL     OW21817  10.714   5.646   4.514
39993SOL    HW121818  10.768   5.661   4.592
39993SOL    HW221819  10.706   5.551   4.509
39994SOL     OW21820   7.863   0.275  14.740
39994SOL    HW121821   7.825   0.244  14.658
39994SOL    HW221822   7.956   0.251  14.734
39995SOL     OW21823   2.251   3.042   8.213
39995SOL    HW121824   2.253   3.078   8.301
39995SOL    HW221825   2.159   3.046   8.187
39996SOL     OW21826   1.676  13.214   5.562
39996SOL    HW121827   1.695  13.293   5.612
39996SOL    HW221828   1.627  13.158   5.623
39997SOL     OW21829  10.152   5.922   6.281
39997SOL    HW121830  10.094   5.878   6.343
39997SOL    HW221831  10.121   6.013   6.278
39998SOL     OW21832   3.665   4.567   9.042
39998SOL    HW121833   3.678   4.644   9.099
39998SOL    HW221834   3.687   4.493   9.098
39999SOL     OW21835   1.762   0.634  11.792
39999SOL    HW121836   1.682   0.647  11.842
39999SOL    HW221837   1.833   0.644  11.856
40000SOL     OW21838  14.000   7.790   1.583
40000SOL    HW121839  14.073   7.848   1.603
40000SOL    HW221840  13.941   7.843   1.530
40001SOL     OW21841   7.344   7.774   0.439
40001SOL    HW121842   7.400   7.754   0.363
40001SOL    HW221843   7.387   7.848   0.481
40002SOL     OW21844   8.089   5.771  10.428
40002SOL    HW121845   8.096   5.682  10.396
40002SOL    HW221846   8.028   5.766  10.502
40003SOL     OW21847   5.946   5.315   1.615
40003SOL    HW121848   5.965   5.258   1.690
40003SOL    HW221849   6.016   5.298   1.553
40004SOL     OW21850   0.909   5.244   8.791
40004SOL    HW121851   0.926   5.318   8.850
40004SOL    HW221852   0.995   5.205   8.777
40005SOL     OW21853  13.607  14.623   7.745
40005SOL    HW121854  13.577  14.538   7.713
40005SOL    HW221855  13.527  14.672   7.763
40006SOL     OW21856   3.115   8.073   3.681
40006SOL    HW121857   3.032   8.034   3.709
40006SOL    HW221858   3.153   8.108   3.761
40007SOL     OW21859  12.370   8.407   3.551
40007SOL    HW121860  12.348   8.442   3.465
40007SOL    HW221861  12.442   8.462   3.582
40008SOL     OW21862   3.274  14.074   3.597
40008SOL    HW121863   3.192  14.089   3.549
40008SOL    HW221864   3.257  14.109   3.685
40009SOL     OW21865  13.314   2.797   9.212
40009SOL    HW121866  13.393   2.771   9.259
40009SOL    HW221867  13.320   2.892   9.206
40010SOL     OW21868   7.705   5.472  10.561
40010SOL    HW121869   7.648   5.453  10.636
40010SOL    HW221870   7.647   5.512  10.496
40011SOL     OW21871  13.341  12.626   4.277
40011SOL    HW121872  13.342  12.695   4.344
40011SOL    HW221873  13.264  12.573   4.298
40012SOL     OW21874  11.030   4.465  12.819
40012SOL    HW121875  11.104   4.414  12.851
40012SOL    HW221876  10.968   4.400  12.785
40013SOL     OW21877   7.578  14.489  11.722
40013SOL    HW121878   7.607  14.542  11.648
40013SOL    HW221879   7.543  14.409  11.682
40014SOL     OW21880   1.811   6.700   5.208
40014SOL    HW121881   1.780   6.618   5.169
40014SOL    HW221882   1.903   6.706   5.183
40015SOL     OW21883   4.775   5.587  14.392
40015SOL    HW121884   4.840   5.603  14.324
40015SOL    HW221885   4.760   5.492  14.389
40016SOL     OW21886   6.412   3.826   7.460
40016SOL    HW121887   6.454   3.742   7.481
40016SOL    HW221888   6.470   3.891   7.499
40017SOL     OW21889   8.385   5.784   1.054
40017SOL    HW121890   8.454   5.728   1.020
40017SOL    HW221891   8.334   5.809   0.977
40018SOL     OW21892   5.053   9.254  14.120
40018SOL    HW121893   5.070   9.225  14.209
40018SOL    HW221894   4.979   9.201  14.091
40019SOL     OW21895   1.139  10.126   4.861
40019SOL    HW121896   1.157  10.032   4.867
40019SOL    HW221897   1.061  10.138   4.915
40020SOL     OW21898  13.699   3.491   3.323
40020SOL    HW121899  13.743   3.407   3.310
40020SOL    HW221900  13.762   3.543   3.373
40021SOL     OW21901  14.872   2.966   6.571
40021SOL    HW121902  14.787   3.010   6.566
40021SOL    HW221903   0.059   3.031   6.542
40022SOL     OW21904   5.502  11.622  14.334
40022SOL    HW121905   5.545  11.568  14.401
40022SOL    HW221906   5.550  11.603  14.254
40023SOL     OW21907   5.257   6.811   0.640
40023SOL    HW121908   5.287   6.887   0.590
40023SOL    HW221909   5.304   6.817   0.723
40024SOL     OW21910  14.191   8.284   4.581
40024SOL    HW121911  14.276   8.311   4.617
40024SOL    HW221912  14.196   8.189   4.576
40025SOL     OW21913   5.542  14.234   2.852
40025SOL    HW121914   5.500  14.320   2.853
40025SOL    HW221915   5.552  14.213   2.759
40026SOL     OW21916  11.001   7.640  13.018
40026SOL    HW121917  10.932   7.614  13.078
40026SOL    HW221918  10.964   7.713  12.969
40027SOL     OW21919   1.384   9.609   8.934
40027SOL    HW121920   1.355   9.547   9.001
40027SOL    HW221921   1.307   9.621   8.878
40028SOL     OW21922   3.611   2.911   7.532
40028SOL    HW121923   3.622   2.898   7.438
40028SOL    HW221924   3.686   2.965   7.558
40029SOL     OW21925   2.170  13.989  13.308
40029SOL    HW121926   2.167  13.894  13.307
40029SOL    HW221927   2.201  14.013  13.221
40030SOL     OW21928  11.881  12.847   9.025
40030SOL    HW121929  11.929  12.828   9.105
40030SOL    HW221930  11.905  12.776   8.965
40031SOL     OW21931  10.048  11.910   1.284
40031SOL    HW121932  10.052  11.875   1.373
40031SOL    HW221933  10.030  11.834   1.229
40032SOL     OW21934  11.214  13.317   6.885
40032SOL    HW121935  11.302  13.288   6.910
40032SOL    HW221936  11.167  13.236   6.865
40033SOL     OW21937   7.394  14.234   3.178
40033SOL    HW121938   7.403  14.262   3.087
40033SOL    HW221939   7.374  14.141   3.173
40034SOL     OW21940   7.714  10.307   6.691
40034SOL    HW121941   7.724  10.216   6.664
40034SOL    HW221942   7.620  10.318   6.704
40035SOL     OW21943   3.838  13.012   3.309
40035SOL    HW121944   3.878  12.942   3.361
40035SOL    HW221945   3.815  13.079   3.373
40036SOL     OW21946   3.307   3.326  14.033
40036SOL    HW121947   3.222   3.288  14.057
40036SOL    HW221948   3.323   3.293  13.944
40037SOL     OW21949  13.984  14.320   2.162
40037SOL    HW121950  13.972  14.356   2.074
40037SOL    HW221951  13.918  14.251   2.170
40038SOL     OW21952   2.129   2.886   3.603
40038SOL    HW121953   2.147   2.810   3.548
40038SOL    HW221954   2.216   2.922   3.622
40039SOL     OW21955  14.129  12.066   4.891
40039SOL    HW121956  14.140  12.041   4.799
40039SOL    HW221957  14.119  11.983   4.937
40040SOL     OW21958  12.913   4.029   4.046
40040SOL    HW121959  12.891   4.016   3.954
40040SOL    HW221960  12.864   3.960   4.091
40041SOL     OW21961  13.122  12.039   7.526
40041SOL    HW121962  13.133  12.048   7.620
40041SOL    HW221963  13.049  11.978   7.516
40042SOL     OW21964  11.560   7.619  14.529
40042SOL    HW121965  11.504   7.638  14.454
40042SOL    HW221966  11.500   7.585  14.595
40043SOL     OW21967   0.432   1.941   6.208
40043SOL    HW121968   0.446   2.012   6.146
40043SOL    HW221969   0.443   1.861   6.157
40044SOL     OW21970   8.723   7.252   3.796
40044SOL    HW121971   8.742   7.346   3.802
40044SOL    HW221972   8.632   7.248   3.769
40045SOL     OW21973   5.157   1.291  12.617
40045SOL    HW121974   5.234   1.247  12.654
40045SOL    HW221975   5.188   1.379  12.595
40046SOL     OW21976   5.547  11.564   9.010
40046SOL    HW121977   5.552  11.587   8.917
40046SOL    HW221978   5.638  11.546   9.034
40047SOL     OW21979  12.852   9.382  14.049
40047SOL    HW121980  12.903   9.447  14.001
40047SOL    HW221981  12.831   9.425  14.132
40048SOL     OW21982  12.735   0.511  10.321
40048SOL    HW121983  12.815   0.468  10.291
40048SOL    HW221984  12.670   0.441  10.323
40049SOL     OW21985  13.117  14.307   8.505
40049SOL    HW121986  13.131  14.219   8.469
40049SOL    HW221987  13.200  14.330   8.546
40050SOL     OW21988  10.753  11.793  10.333
40050SOL    HW121989  10.831  11.809  10.280
40050SOL    HW221990  10.713  11.716  10.294
40051SOL     OW21991   3.852  10.424  12.128
40051SOL    HW121992   3.835  10.518  12.139
40051SOL    HW221993   3.904  10.418  12.048
40052SOL     OW21994  12.300   0.623  14.216
40052SOL    HW121995  12.389   0.591  14.202
40052SOL    HW221996  12.283   0.680  14.142
40053SOL     OW21997  11.820   8.288  11.190
40053SOL    HW121998  11.860   8.231  11.255
40053SOL    HW221999  11.733   8.308  11.226
40054SOL     OW22000   0.332   9.317   5.606
40054SOL    HW122001   0.363   9.247   5.664
40054SOL    HW222002   0.396   9.319   5.535
40055SOL     OW22003   4.908   0.481   3.389
40055SOL    HW122004   4.998   0.501   3.415
40055SOL    HW222005   4.915   0.458   3.296
40056SOL     OW22006   9.792   7.861   8.078
40056SOL    HW122007   9.699   7.881   8.069
40056SOL    HW222008   9.803   7.835   8.169
40057SOL     OW22009  12.490   6.094   5.672
40057SOL    HW122010  12.492   6.093   5.576
40057SOL    HW222011  12.412   6.043   5.695
40058SOL     OW22012  11.417   2.543   1.365
40058SOL    HW122013  11.377   2.475   1.310
40058SOL    HW222014  11.490   2.499   1.408
40059SOL     OW22015   2.273   4.398   3.280
40059SOL    HW122016   2.292   4.304   3.285
40059SOL    HW222017   2.298   4.422   3.190
40060SOL     OW22018   9.695  13.444   2.337
40060SOL    HW122019   9.621  13.394   2.370
40060SOL    HW222020   9.770  13.412   2.388
40061SOL     OW22021  12.841   2.682   2.702
40061SOL    HW122022  12.795   2.738   2.640
40061SOL    HW222023  12.932   2.686   2.675
40062SOL     OW22024   7.325   4.869  14.525
40062SOL    HW122025   7.379   4.797  14.493
40062SOL    HW222026   7.388   4.936  14.551
40063SOL     OW22027   3.573  10.693  12.936
40063SOL    HW122028   3.637  10.636  12.894
40063SOL    HW222029   3.527  10.735  12.864
40064SOL     OW22030   0.010   6.349   1.113
40064SOL    HW122031   0.053   6.321   1.193
40064SOL    HW222032   0.081   6.387   1.060
40065SOL     OW22033   7.318   1.489  14.633
40065SOL    HW122034   7.412   1.506  14.630
40065SOL    HW222035   7.310   1.394  14.631
40066SOL     OW22036  10.575   8.178  11.831
40066SOL    HW122037  10.666   8.190  11.805
40066SOL    HW222038  10.533   8.138  11.755
40067SOL     OW22039  14.565   5.034   4.328
40067SOL    HW122040  14.535   5.066   4.243
40067SOL    HW222041  14.498   5.063   4.390
40068SOL     OW22042   5.702  11.004   3.750
40068SOL    HW122043   5.669  10.946   3.819
40068SOL    HW222044   5.791  11.026   3.779
40069SOL     OW22045   1.625   7.930   4.724
40069SOL    HW122046   1.642   7.846   4.767
40069SOL    HW222047   1.541   7.918   4.680
40070SOL     OW22048   7.493   9.274   6.195
40070SOL    HW122049   7.400   9.259   6.181
40070SOL    HW222050   7.536   9.203   6.147
40071SOL     OW22051   3.342   5.777   4.909
40071SOL    HW122052   3.293   5.728   4.975
40071SOL    HW222053   3.374   5.710   4.849
40072SOL     OW22054   1.171   1.637   9.464
40072SOL    HW122055   1.116   1.590   9.402
40072SOL    HW222056   1.237   1.573   9.490
40073SOL     OW22057   8.110   5.829   5.654
40073SOL    HW122058   8.115   5.905   5.712
40073SOL    HW222059   8.022   5.834   5.616
40074SOL     OW22060   3.409  10.022  12.724
40074SOL    HW122061   3.469   9.956  12.689
40074SOL    HW222062   3.375  10.066  12.646
40075SOL     OW22063   5.044  14.330   8.963
40075SOL    HW122064   5.125  14.285   8.986
40075SOL    HW222065   5.039  14.402   9.026
40076SOL     OW22066   5.326  13.802   9.950
40076SOL    HW122067   5.376  13.881   9.971
40076SOL    HW222068   5.237  13.833   9.933
40077SOL     OW22069   3.779  13.461  11.320
40077SOL    HW122070   3.806  13.553  11.311
40077SOL    HW222071   3.787  13.444  11.414
40078SOL     OW22072   1.720   7.790   6.892
40078SOL    HW122073   1.707   7.801   6.798
40078SOL    HW222074   1.704   7.876   6.929
40079SOL     OW22075  12.856   3.202   3.729
40079SOL    HW122076  12.818   3.168   3.648
40079SOL    HW222077  12.930   3.255   3.701
40080SOL     OW22078   4.141   4.575  10.034
40080SOL    HW122079   4.219   4.572   9.979
40080SOL    HW222080   4.155   4.506  10.099
40081SOL     OW22081   3.270   2.611   1.391
40081SOL    HW122082   3.184   2.622   1.431
40081SOL    HW222083   3.332   2.626   1.463
40082SOL     OW22084   5.803   4.129   0.829
40082SOL    HW122085   5.771   4.047   0.792
40082SOL    HW222086   5.772   4.128   0.920
40083SOL     OW22087  14.744   8.170   8.982
40083SOL    HW122088  14.707   8.165   8.894
40083SOL    HW222089  14.800   8.092   8.989
40084SOL     OW22090   0.269  12.879   8.331
40084SOL    HW122091   0.332  12.807   8.327
40084SOL    HW222092   0.305  12.939   8.397
40085SOL     OW22093   7.649  11.030  14.253
40085SOL    HW122094   7.676  10.943  14.283
40085SOL    HW222095   7.725  11.086  14.271
40086SOL     OW22096  13.511   0.606   5.850
40086SOL    HW122097  13.432   0.638   5.893
40086SOL    HW222098  13.572   0.586   5.922
40087SOL     OW22099   8.624  10.532   7.676
40087SOL    HW122100   8.646  10.510   7.585
40087SOL    HW222101   8.707  10.558   7.715
40088SOL     OW22102  10.619   7.361   4.948
40088SOL    HW122103  10.580   7.439   4.910
40088SOL    HW222104  10.682   7.331   4.882
40089SOL     OW22105   5.043   6.339  14.139
40089SOL    HW122106   5.095   6.416  14.115
40089SOL    HW222107   5.108   6.268  14.145
40090SOL     OW22108   9.385   3.538   3.490
40090SOL    HW122109   9.366   3.631   3.477
40090SOL    HW222110   9.348   3.495   3.413
40091SOL     OW22111  13.352  12.128   7.091
40091SOL    HW122112  13.371  12.155   7.180
40091SOL    HW222113  13.349  12.209   7.040
40092SOL     OW22114   7.692  14.403  14.578
40092SOL    HW122115   7.663  14.418  14.668
40092SOL    HW222116   7.641  14.465  14.526
40093SOL     OW22117   9.347  12.900   0.844
40093SOL    HW122118   9.319  12.822   0.892
40093SOL    HW222119   9.270  12.925   0.792
40094SOL     OW22120   5.361   5.632  13.252
40094SOL    HW122121   5.351   5.678  13.169
40094SOL    HW222122   5.281   5.579  13.259
40095SOL     OW22123   6.368  11.221  11.513
40095SOL    HW122124   6.306  11.179  11.573
40095SOL    HW222125   6.368  11.165  11.435
40096SOL     OW22126   7.372   9.323   5.088
40096SOL    HW122127   7.317   9.372   5.149
40096SOL    HW222128   7.322   9.322   5.007
40097SOL     OW22129   9.667   8.251   5.301
40097SOL    HW122130   9.732   8.195   5.341
40097SOL    HW222131   9.705   8.339   5.306
40098SOL     OW22132   1.264  14.346   2.776
40098SOL    HW122133   1.213  14.360   2.856
40098SOL    HW222134   1.224  14.404   2.711
40099SOL     OW22135   8.536  11.040   4.558
40099SOL    HW122136   8.613  11.073   4.512
40099SOL    HW222137   8.511  10.962   4.510
40100SOL     OW22138  12.262   2.326   7.326
40100SOL    HW122139  12.221   2.333   7.239
40100SOL    HW222140  12.287   2.416   7.347
40101SOL     OW22141  10.213  14.736  10.188
40101SOL    HW122142  10.288  14.679  10.174
40101SOL    HW222143  10.162  14.729  10.108
40102SOL     OW22144   4.207   3.394   4.851
40102SOL    HW122145   4.218   3.411   4.945
40102SOL    HW222146   4.156   3.469   4.820
40103SOL     OW22147   7.579  13.016   8.187
40103SOL    HW122148   7.521  12.966   8.243
40103SOL    HW222149   7.549  13.107   8.195
40104SOL     OW22150   4.162  13.575  11.185
40104SOL    HW122151   4.153  13.521  11.106
40104SOL    HW222152   4.087  13.634  11.181
40105SOL     OW22153   5.514   2.510   3.125
40105SOL    HW122154   5.472   2.439   3.075
40105SOL    HW222155   5.555   2.565   3.059
40106SOL     OW22156  10.746  10.914   9.752
40106SOL    HW122157  10.787  10.997   9.731
40106SOL    HW222158  10.818  10.851   9.755
40107SOL     OW22159  14.320  14.672   4.766
40107SOL    HW122160  14.314  14.584   4.729
40107SOL    HW222161  14.251  14.675   4.832
40108SOL     OW22162   0.402   3.934   1.437
40108SOL    HW122163   0.435   3.864   1.381
40108SOL    HW222164   0.384   3.891   1.521
40109SOL     OW22165   5.235   2.560   1.857
40109SOL    HW122166   5.239   2.547   1.762
40109SOL    HW222167   5.327   2.564   1.884
40110SOL     OW22168   8.573   3.543  13.784
40110SOL    HW122169   8.614   3.600  13.717
40110SOL    HW222170   8.626   3.557  13.862
40111SOL     OW22171  14.075   7.411   9.180
40111SOL    HW122172  14.152   7.356   9.195
40111SOL    HW222173  14.016   7.390   9.253
40112SOL     OW22174   1.558   2.854  13.892
40112SOL    HW122175   1.474   2.809  13.903
40112SOL    HW222176   1.622   2.783  13.890
40113SOL     OW22177   0.047  11.905  11.203
40113SOL    HW122178  14.829  11.905  11.216
40113SOL    HW222179   0.078  11.979  11.255
40114SOL     OW22180   3.363   4.253  10.258
40114SOL    HW122181   3.457   4.266  10.270
40114SOL    HW222182   3.348   4.268  10.165
40115SOL     OW22183   1.630  11.452  13.301
40115SOL    HW122184   1.535  11.456  13.294
40115SOL    HW222185   1.654  11.533  13.347
40116SOL     OW22186  13.558  11.139  13.983
40116SOL    HW122187  13.494  11.080  14.023
40116SOL    HW222188  13.524  11.156  13.896
40117SOL     OW22189   1.743   8.613  12.385
40117SOL    HW122190   1.760   8.586  12.475
40117SOL    HW222191   1.652   8.588  12.369
40118SOL     OW22192  11.855   7.628   8.302
40118SOL    HW122193  11.857   7.544   8.346
40118SOL    HW222194  11.919   7.681   8.348
40119SOL     OW22195   0.481   8.777   6.209
40119SOL    HW122196   0.463   8.713   6.140
40119SOL    HW222197   0.460   8.732   6.290
40120SOL     OW22198   4.172   0.512  11.584
40120SOL    HW122199   4.143   0.506  11.493
40120SOL    HW222200   4.195   0.604  11.595
40121SOL     OW22201   4.859   0.839   4.028
40121SOL    HW122202   4.901   0.822   4.112
40121SOL    HW222203   4.815   0.923   4.039
40122SOL     OW22204   2.390  10.840   2.643
40122SOL    HW122205   2.361  10.749   2.643
40122SOL    HW222206   2.419  10.856   2.733
40123SOL     OW22207  10.324  14.522   0.973
40123SOL    HW122208  10.410  14.527   1.016
40123SOL    HW222209  10.334  14.576   0.894
40124SOL     OW22210   9.485  13.598   8.798
40124SOL    HW122211   9.525  13.588   8.712
40124SOL    HW222212   9.536  13.540   8.855
40125SOL     OW22213   2.834  12.940   3.517
40125SOL    HW122214   2.763  12.997   3.488
40125SOL    HW222215   2.807  12.852   3.490
40126SOL     OW22216  13.991  14.696   9.104
40126SOL    HW122217  13.918  14.728   9.052
40126SOL    HW222218  13.950  14.658   9.182
40127SOL     OW22219   8.429   6.368  12.728
40127SOL    HW122220   8.418   6.460  12.751
40127SOL    HW222221   8.496   6.368  12.659
40128SOL     OW22222   1.513  11.831   2.671
40128SOL    HW122223   1.481  11.865   2.588
40128SOL    HW222224   1.602  11.867   2.679
40129SOL     OW22225   9.022  10.135   6.180
40129SOL    HW122226   8.944  10.153   6.232
40129SOL    HW222227   9.083  10.094   6.241
40130SOL     OW22228  10.287  11.809  14.862
40130SOL    HW122229  10.338  11.756  14.800
40130SOL    HW222230  10.342  11.885   0.002
40131SOL     OW22231   7.282   4.939  12.500
40131SOL    HW122232   7.319   5.004  12.559
40131SOL    HW222233   7.264   4.988  12.419
40132SOL     OW22234   4.355   0.172   4.430
40132SOL    HW122235   4.335   0.237   4.497
40132SOL    HW222236   4.448   0.187   4.410
40133SOL     OW22237  14.672   5.671   3.523
40133SOL    HW122238  14.613   5.656   3.450
40133SOL    HW222239  14.706   5.759   3.509
40134SOL     OW22240  11.410  13.850   2.647
40134SOL    HW122241  11.471  13.803   2.704
40134SOL    HW222242  11.461  13.923   2.614
40135SOL     OW22243   2.048  12.753   9.210
40135SOL    HW122244   1.959  12.716   9.211
40135SOL    HW222245   2.057  12.794   9.296
40136SOL     OW22246  12.035  11.283  14.784
40136SOL    HW122247  12.130  11.285  14.797
40136SOL    HW222248  12.015  11.191  14.767
40137SOL     OW22249   9.885   0.839   1.432
40137SOL    HW122250   9.799   0.833   1.389
40137SOL    HW222251   9.902   0.933   1.436
40138SOL     OW22252   7.145   6.668   9.912
40138SOL    HW122253   7.121   6.651   9.821
40138SOL    HW222254   7.182   6.585   9.943
40139SOL     OW22255   6.380  10.576  10.240
40139SOL    HW122256   6.372  10.666  10.209
40139SOL    HW222257   6.298  10.558  10.286
40140SOL     OW22258   2.622  14.354   6.524
40140SOL    HW122259   2.714  14.333   6.511
40140SOL    HW222260   2.578  14.269   6.524
40141SOL     OW22261   7.447   7.185   1.654
40141SOL    HW122262   7.432   7.180   1.560
40141SOL    HW222263   7.409   7.104   1.689
40142SOL     OW22264   4.303   9.864   2.003
40142SOL    HW122265   4.226   9.807   2.015
40142SOL    HW222266   4.273   9.950   2.031
40143SOL     OW22267   3.090   2.309   0.576
40143SOL    HW122268   3.113   2.402   0.581
40143SOL    HW222269   3.035   2.294   0.653
40144SOL     OW22270   8.216   1.679  10.630
40144SOL    HW122271   8.238   1.613  10.564
40144SOL    HW222272   8.205   1.629  10.711
40145SOL     OW22273   0.762  13.929  13.016
40145SOL    HW122274   0.794  13.842  13.039
40145SOL    HW222275   0.839  13.985  13.023
40146SOL     OW22276   2.068   9.321  13.654
40146SOL    HW122277   2.050   9.364  13.738
40146SOL    HW222278   2.012   9.243  13.654
40147SOL     OW22279   9.325  13.553   4.806
40147SOL    HW122280   9.238  13.526   4.778
40147SOL    HW222281   9.316  13.647   4.823
40148SOL     OW22282  10.923  11.639   8.028
40148SOL    HW122283  10.840  11.608   7.991
40148SOL    HW222284  10.958  11.564   8.075
40149SOL     OW22285  11.192   0.875   9.806
40149SOL    HW122286  11.125   0.806   9.803
40149SOL    HW222287  11.177   0.918   9.890
40150SOL     OW22288  12.059   8.203   1.828
40150SOL    HW122289  12.035   8.110   1.820
40150SOL    HW222290  12.152   8.206   1.803
40151SOL     OW22291  12.483   4.480  14.876
40151SOL    HW122292  12.394   4.447  14.869
40151SOL    HW222293  12.482   4.537   0.077
40152SOL     OW22294   8.776  13.391  12.188
40152SOL    HW122295   8.840  13.429  12.249
40152SOL    HW222296   8.770  13.454  12.117
40153SOL     OW22297   6.127  13.716   9.627
40153SOL    HW122298   6.086  13.740   9.710
40153SOL    HW222299   6.216  13.692   9.651
40154SOL     OW22300   0.427   1.259  10.852
40154SOL    HW122301   0.361   1.327  10.834
40154SOL    HW222302   0.425   1.249  10.947
40155SOL     OW22303  13.560   7.058   8.017
40155SOL    HW122304  13.466   7.043   8.020
40155SOL    HW222305  13.587   7.065   8.109
40156SOL     OW22306   8.389   7.582   0.656
40156SOL    HW122307   8.373   7.660   0.709
40156SOL    HW222308   8.437   7.615   0.580
40157SOL     OW22309  11.642   5.067  10.336
40157SOL    HW122310  11.660   5.135  10.402
40157SOL    HW222311  11.550   5.081  10.313
40158SOL     OW22312   7.678   6.604   8.062
40158SOL    HW122313   7.719   6.628   8.145
40158SOL    HW222314   7.587   6.633   8.071
40159SOL     OW22315  10.639  11.029   4.467
40159SOL    HW122316  10.688  11.095   4.418
40159SOL    HW222317  10.698  11.001   4.536
40160SOL     OW22318   3.371   4.788   4.730
40160SOL    HW122319   3.280   4.789   4.757
40160SOL    HW222320   3.405   4.874   4.755
40161SOL     OW22321   4.995  10.480  14.749
40161SOL    HW122322   4.920  10.478  14.690
40161SOL    HW222323   5.058  10.420  14.710
40162SOL     OW22324  12.164   1.408   4.863
40162SOL    HW122325  12.125   1.330   4.903
40162SOL    HW222326  12.199   1.457   4.936
40163SOL     OW22327   0.841  13.209  14.531
40163SOL    HW122328   0.928  13.236  14.500
40163SOL    HW222329   0.788  13.288  14.523
40164SOL     OW22330  14.340   7.181  11.951
40164SOL    HW122331  14.410   7.244  11.937
40164SOL    HW222332  14.384   7.101  11.979
40165SOL     OW22333  12.108  10.173   7.704
40165SOL    HW122334  12.199  10.152   7.682
40165SOL    HW222335  12.075  10.094   7.747
40166SOL     OW22336   0.027   1.568   3.148
40166SOL    HW122337  14.810   1.590   3.145
40166SOL    HW222338   0.053   1.566   3.056
40167SOL     OW22339   2.051   3.074  13.462
40167SOL    HW122340   2.064   3.160  13.504
40167SOL    HW222341   1.959   3.074  13.436
40168SOL     OW22342  11.275   0.673   9.197
40168SOL    HW122343  11.301   0.750   9.148
40168SOL    HW222344  11.225   0.620   9.134
40169SOL     OW22345   0.356   1.229   7.474
40169SOL    HW122346   0.406   1.242   7.393
40169SOL    HW222347   0.417   1.182   7.532
40170SOL     OW22348   9.718   9.005   8.516
40170SOL    HW122349   9.774   9.082   8.521
40170SOL    HW222350   9.715   8.972   8.605
40171SOL     OW22351  13.627   9.304  13.792
40171SOL    HW122352  13.575   9.267  13.721
40171SOL    HW222353  13.710   9.329  13.752
40172SOL     OW22354  10.037   8.295   8.855
40172SOL    HW122355   9.986   8.215   8.852
40172SOL    HW222356  10.005   8.346   8.780
40173SOL     OW22357   8.385  10.424   6.345
40173SOL    HW122358   8.300  10.459   6.318
40173SOL    HW222359   8.371  10.394   6.434
40174SOL     OW22360  10.676   0.239  12.119
40174SOL    HW122361  10.683   0.324  12.163
40174SOL    HW222362  10.762   0.199  12.131
40175SOL     OW22363  12.751   0.198  10.859
40175SOL    HW122364  12.755   0.143  10.937
40175SOL    HW222365  12.662   0.185  10.826
40176SOL     OW22366   8.405   5.418  13.907
40176SOL    HW122367   8.426   5.329  13.934
40176SOL    HW222368   8.330   5.408  13.848
40177SOL     OW22369   0.979   9.859   0.733
40177SOL    HW122370   0.919   9.795   0.771
40177SOL    HW222371   1.029   9.892   0.808
40178SOL     OW22372   7.914  11.413   7.583
40178SOL    HW122373   7.933  11.319   7.591
40178SOL    HW222374   7.889  11.440   7.671
40179SOL     OW22375   1.152   3.908   2.745
40179SOL    HW122376   1.187   3.996   2.762
40179SOL    HW222377   1.218   3.849   2.782
40180SOL     OW22378   4.820  12.829   8.954
40180SOL    HW122379   4.748  12.769   8.934
40180SOL    HW222380   4.874  12.828   8.875
40181SOL     OW22381   7.621   6.161   5.543
40181SOL    HW122382   7.597   6.207   5.462
40181SOL    HW222383   7.679   6.091   5.513
40182SOL     OW22384  11.725   2.177  14.823
40182SOL    HW122385  11.661   2.176  14.752
40182SOL    HW222386  11.689   2.117   0.012
40183SOL     OW22387   0.324   1.902   9.634
40183SOL    HW122388   0.376   1.946   9.701
40183SOL    HW222389   0.326   1.810   9.658
40184SOL     OW22390   6.660  13.727   9.872
40184SOL    HW122391   6.687  13.816   9.894
40184SOL    HW222392   6.591  13.706   9.935
40185SOL     OW22393   2.387   4.200   0.261
40185SOL    HW122394   2.359   4.278   0.213
40185SOL    HW222395   2.345   4.207   0.346
40186SOL     OW22396   8.490  14.528  11.053
40186SOL    HW122397   8.570  14.529  11.105
40186SOL    HW222398   8.438  14.600  11.089
40187SOL     OW22399  11.718   2.188   6.020
40187SOL    HW122400  11.761   2.269   6.048
40187SOL    HW222401  11.626   2.201   6.042
40188SOL     OW22402  12.897   8.020   2.558
40188SOL    HW122403  12.947   7.961   2.502
40188SOL    HW222404  12.863   8.087   2.499
40189SOL     OW22405   8.723   3.323  11.053
40189SOL    HW122406   8.701   3.382  10.981
40189SOL    HW222407   8.674   3.358  11.128
40190SOL     OW22408   6.543  13.647   4.946
40190SOL    HW122409   6.626  13.673   4.906
40190SOL    HW222410   6.477  13.666   4.880
40191SOL     OW22411   0.663   0.459   6.503
40191SOL    HW122412   0.622   0.505   6.576
40191SOL    HW222413   0.729   0.520   6.470
40192SOL     OW22414   7.663   0.503   2.672
40192SOL    HW122415   7.753   0.535   2.672
40192SOL    HW222416   7.627   0.530   2.588
40193SOL     OW22417   3.942   7.648   9.792
40193SOL    HW122418   3.868   7.684   9.743
40193SOL    HW222419   4.018   7.663   9.736
40194SOL     OW22420   0.018  12.762   5.852
40194SOL    HW122421   0.080  12.800   5.915
40194SOL    HW222422  14.813  12.754   5.902
40195SOL     OW22423   5.411   2.622  10.185
40195SOL    HW122424   5.333   2.639  10.238
40195SOL    HW222425   5.382   2.559  10.119
40196SOL     OW22426   6.851  12.800   4.549
40196SOL    HW122427   6.800  12.720   4.559
40196SOL    HW222428   6.941  12.774   4.568
40197SOL     OW22429  13.855  14.613   4.939
40197SOL    HW122430  13.838  14.624   5.033
40197SOL    HW222431  13.769  14.590   4.902
40198SOL     OW22432   0.157   9.097   3.380
40198SOL    HW122433   0.097   9.130   3.447
40198SOL    HW222434   0.169   9.005   3.401
40199SOL     OW22435   6.218   5.186  14.583
40199SOL    HW122436   6.227   5.207  14.490
40199SOL    HW222437   6.124   5.190  14.600
40200SOL     OW22438  11.627   8.397   8.560
40200SOL    HW122439  11.563   8.398   8.489
40200SOL    HW222440  11.581   8.355   8.633
40201SOL     OW22441  14.691   5.805   0.643
40201SOL    HW122442  14.598   5.785   0.635
40201SOL    HW222443  14.718   5.764   0.725
40202SOL     OW22444   6.296  14.632   7.878
40202SOL    HW122445   6.233  14.645   7.808
40202SOL    HW222446   6.256  14.674   7.955
40203SOL     OW22447   4.527   0.590  12.575
40203SOL    HW122448   4.438   0.592  12.539
40203SOL    HW222449   4.582   0.574  12.498
40204SOL     OW22450  11.374   2.024  13.532
40204SOL    HW122451  11.299   1.999  13.478
40204SOL    HW222452  11.368   1.967  13.609
40205SOL     OW22453  11.710   3.531  11.018
40205SOL    HW122454  11.675   3.571  10.938
40205SOL    HW222455  11.638   3.533  11.080
40206SOL     OW22456  10.839   4.507   0.994
40206SOL    HW122457  10.863   4.430   0.942
40206SOL    HW222458  10.916   4.563   0.993
40207SOL     OW22459  10.662  11.469  13.321
40207SOL    HW122460  10.735  11.408  13.316
40207SOL    HW222461  10.647  11.497  13.231
40208SOL     OW22462  11.080   1.678  10.984
40208SOL    HW122463  11.072   1.716  11.072
40208SOL    HW222464  11.044   1.745  10.926
40209SOL     OW22465  10.974   9.629  14.243
40209SOL    HW122466  10.926   9.614  14.324
40209SOL    HW222467  11.024   9.709  14.259
40210SOL     OW22468   8.321   0.800   9.103
40210SOL    HW122469   8.376   0.722   9.097
40210SOL    HW222470   8.239   0.775   9.061
40211SOL     OW22471   6.983   2.469  14.561
40211SOL    HW122472   6.905   2.513  14.596
40211SOL    HW222473   7.031   2.439  14.639
40212SOL     OW22474   1.589  13.704   0.941
40212SOL    HW122475   1.525  13.645   0.901
40212SOL    HW222476   1.541  13.785   0.956
40213SOL     OW22477   5.467  13.509  13.615
40213SOL    HW122478   5.419  13.456  13.551
40213SOL    HW222479   5.441  13.599  13.596
40214SOL     OW22480   0.786   1.214   9.080
40214SOL    HW122481   0.853   1.178   9.022
40214SOL    HW222482   0.827   1.290   9.121
40215SOL     OW22483   7.644   0.687   3.668
40215SOL    HW122484   7.675   0.596   3.663
40215SOL    HW222485   7.549   0.680   3.658
40216SOL     OW22486   1.903   3.009   5.519
40216SOL    HW122487   1.836   3.039   5.581
40216SOL    HW222488   1.973   2.975   5.575
40217SOL     OW22489   7.963  14.637   2.390
40217SOL    HW122490   7.893  14.684   2.345
40217SOL    HW222491   8.030  14.623   2.323
40218SOL     OW22492   2.082   1.629  11.387
40218SOL    HW122493   1.993   1.616  11.353
40218SOL    HW222494   2.080   1.717  11.424
40219SOL     OW22495  10.799   4.879  10.209
40219SOL    HW122496  10.716   4.889  10.257
40219SOL    HW222497  10.820   4.967  10.180
40220SOL     OW22498  13.548  10.250  13.453
40220SOL    HW122499  13.633  10.285  13.424
40220SOL    HW222500  13.491  10.327  13.458
40221SOL     OW22501  10.619  10.276   9.749
40221SOL    HW122502  10.596  10.185   9.730
40221SOL    HW222503  10.603  10.322   9.666
40222SOL     OW22504   7.187   1.739   8.824
40222SOL    HW122505   7.233   1.823   8.825
40222SOL    HW222506   7.228   1.689   8.754
40223SOL     OW22507   9.216  14.420   6.326
40223SOL    HW122508   9.171  14.427   6.410
40223SOL    HW222509   9.178  14.490   6.273
40224SOL     OW22510   3.213  12.538   5.009
40224SOL    HW122511   3.304  12.559   5.030
40224SOL    HW222512   3.214  12.443   4.992
40225SOL     OW22513   7.644   0.157   2.081
40225SOL    HW122514   7.583   0.211   2.030
40225SOL    HW222515   7.720   0.146   2.024
40226SOL     OW22516  11.226   5.521   2.735
40226SOL    HW122517  11.181   5.517   2.819
40226SOL    HW222518  11.188   5.597   2.691
40227SOL     OW22519   4.017  10.369   1.386
40227SOL    HW122520   3.945  10.308   1.368
40227SOL    HW222521   4.055  10.338   1.468
40228SOL     OW22522   1.294  11.526   1.707
40228SOL    HW122523   1.353  11.534   1.782
40228SOL    HW222524   1.305  11.436   1.677
40229SOL     OW22525  12.993   8.567   2.048
40229SOL    HW122526  13.083   8.582   2.079
40229SOL    HW222527  12.970   8.649   2.004
40230SOL     OW22528   8.405   4.109   5.521
40230SOL    HW122529   8.489   4.139   5.556
40230SOL    HW222530   8.365   4.188   5.486
40231SOL     OW22531   8.098  12.371  14.697
40231SOL    HW122532   8.044  12.326  14.633
40231SOL    HW222533   8.176  12.397  14.648
40232SOL     OW22534  14.290  10.725  11.064
40232SOL    HW122535  14.270  10.730  10.971
40232SOL    HW222536  14.355  10.655  11.071
40233SOL     OW22537  12.489   3.209  12.754
40233SOL    HW122538  12.468   3.228  12.845
40233SOL    HW222539  12.425   3.260  12.704
40234SOL     OW22540  12.525   3.918   6.285
40234SOL    HW122541  12.472   3.953   6.356
40234SOL    HW222542  12.553   3.995   6.236
40235SOL     OW22543   0.816  12.830   7.484
40235SOL    HW122544   0.736  12.779   7.474
40235SOL    HW222545   0.806  12.902   7.422
40236SOL     OW22546   0.692   4.404   2.440
40236SOL    HW122547   0.664   4.443   2.357
40236SOL    HW222548   0.753   4.468   2.477
40237SOL     OW22549   7.911  10.402   7.379
40237SOL    HW122550   7.872  10.489   7.386
40237SOL    HW222551   7.908  10.366   7.467
40238SOL     OW22552  14.603   3.884   9.626
40238SOL    HW122553  14.650   3.920   9.551
40238SOL    HW222554  14.659   3.903   9.701
40239SOL     OW22555   8.563   9.879  12.814
40239SOL    HW122556   8.553   9.852  12.905
40239SOL    HW222557   8.571   9.975  12.819
40240SOL     OW22558   2.064  10.519   1.272
40240SOL    HW122559   2.079  10.612   1.287
40240SOL    HW222560   2.138  10.475   1.313
40241SOL     OW22561   3.812  14.652  10.154
40241SOL    HW122562   3.770  14.584  10.102
40241SOL    HW222563   3.773  14.734  10.123
40242SOL     OW22564   5.490   1.186   3.120
40242SOL    HW122565   5.509   1.197   3.214
40242SOL    HW222566   5.533   1.104   3.097
40243SOL     OW22567   6.118  10.227  12.106
40243SOL    HW122568   6.053  10.212  12.038
40243SOL    HW222569   6.136  10.140  12.142
40244SOL     OW22570   9.288  13.356  10.625
40244SOL    HW122571   9.366  13.330  10.576
40244SOL    HW222572   9.228  13.391  10.559
40245SOL     OW22573   6.057  14.275  10.823
40245SOL    HW122574   6.069  14.203  10.762
40245SOL    HW222575   6.017  14.345  10.770
40246SOL     OW22576  14.812  13.756   4.311
40246SOL    HW122577  14.834  13.679   4.258
40246SOL    HW222578  14.842  13.735   4.399
40247SOL     OW22579   8.834  10.542   5.451
40247SOL    HW122580   8.829  10.637   5.462
40247SOL    HW222581   8.744  10.516   5.429
40248SOL     OW22582  11.569   6.347   4.303
40248SOL    HW122583  11.655   6.345   4.346
40248SOL    HW222584  11.589   6.369   4.212
40249SOL     OW22585  11.412   7.461   2.105
40249SOL    HW122586  11.368   7.378   2.121
40249SOL    HW222587  11.411   7.471   2.010
40250SOL     OW22588   8.558   0.103  11.648
40250SOL    HW122589   8.493   0.068  11.588
40250SOL    HW222590   8.579   0.030  11.707
40251SOL     OW22591   9.662   6.116   7.088
40251SOL    HW122592   9.642   6.205   7.060
40251SOL    HW222593   9.758   6.114   7.092
40252SOL     OW22594   5.087  12.087   1.679
40252SOL    HW122595   5.084  12.032   1.600
40252SOL    HW222596   5.176  12.076   1.712
40253SOL     OW22597  12.243   9.552   6.184
40253SOL    HW122598  12.185   9.622   6.152
40253SOL    HW222599  12.310   9.597   6.235
40254SOL     OW22600   0.315   0.941   7.987
40254SOL    HW122601   0.340   1.030   7.964
40254SOL    HW222602   0.220   0.940   7.979
40255SOL     OW22603  11.512   0.366   1.395
40255SOL    HW122604  11.424   0.360   1.357
40255SOL    HW222605  11.570   0.331   1.328
40256SOL     OW22606   8.367  14.627   9.430
40256SOL    HW122607   8.294  14.643   9.490
40256SOL    HW222608   8.436  14.687   9.459
40257SOL     OW22609  13.476   5.084  13.773
40257SOL    HW122610  13.561   5.042  13.784
40257SOL    HW222611  13.497   5.173  13.743
40258SOL     OW22612   7.661   8.573   2.035
40258SOL    HW122613   7.643   8.630   1.960
40258SOL    HW222614   7.607   8.609   2.105
40259SOL     OW22615   6.023   7.470   4.901
40259SOL    HW122616   5.986   7.415   4.970
40259SOL    HW222617   5.955   7.474   4.834
40260SOL     OW22618  12.987   1.407   3.935
40260SOL    HW122619  12.913   1.448   3.980
40260SOL    HW222620  13.015   1.337   3.993
40261SOL     OW22621   4.137  13.308   0.188
40261SOL    HW122622   4.123  13.253   0.265
40261SOL    HW222623   4.230  13.301   0.170
40262SOL     OW22624  12.918  10.498  11.452
40262SOL    HW122625  12.977  10.430  11.419
40262SOL    HW222626  12.856  10.512  11.380
40263SOL     OW22627  13.802   2.063   5.262
40263SOL    HW122628  13.737   2.085   5.329
40263SOL    HW222629  13.842   2.147   5.238
40264SOL     OW22630   3.038  14.186  13.621
40264SOL    HW122631   2.952  14.175  13.661
40264SOL    HW222632   3.089  14.233  13.687
40265SOL     OW22633   7.366   6.142   5.062
40265SOL    HW122634   7.436   6.078   5.065
40265SOL    HW222635   7.383   6.192   4.982
40266SOL     OW22636  11.875   3.825  13.509
40266SOL    HW122637  11.958   3.870  13.494
40266SOL    HW222638  11.897   3.750  13.564
40267SOL     OW22639   3.828  13.018  13.211
40267SOL    HW122640   3.829  12.944  13.151
40267SOL    HW222641   3.917  13.019  13.248
40268SOL     OW22642   9.537   8.292   7.844
40268SOL    HW122643   9.621   8.323   7.878
40268SOL    HW222644   9.558   8.211   7.797
40269SOL     OW22645   6.246  14.777   5.643
40269SOL    HW122646   6.321  14.808   5.693
40269SOL    HW222647   6.221  14.694   5.685
40270SOL     OW22648   6.591   9.957   7.715
40270SOL    HW122649   6.613   9.888   7.777
40270SOL    HW222650   6.543   9.912   7.645
40271SOL     OW22651   3.001   4.074   0.101
40271SOL    HW122652   3.058   4.024   0.159
40271SOL    HW222653   3.058   4.140   0.062
40272SOL     OW22654   9.762   9.871   1.681
40272SOL    HW122655   9.766   9.942   1.617
40272SOL    HW222656   9.691   9.815   1.651
40273SOL     OW22657  10.829   1.620   2.882
40273SOL    HW122658  10.818   1.557   2.811
40273SOL    HW222659  10.753   1.678   2.875
40274SOL     OW22660   4.953  13.404  11.713
40274SOL    HW122661   5.031  13.394  11.659
40274SOL    HW222662   4.909  13.482  11.677
40275SOL     OW22663   8.206  10.069   1.931
40275SOL    HW122664   8.266  10.122   1.880
40275SOL    HW222665   8.262  10.018   1.990
40276SOL     OW22666   0.578   9.824  12.510
40276SOL    HW122667   0.539   9.738  12.525
40276SOL    HW222668   0.671   9.807  12.498
40277SOL     OW22669   0.765   4.750   2.826
40277SOL    HW122670   0.808   4.769   2.910
40277SOL    HW222671   0.672   4.757   2.845
40278SOL     OW22672  13.772   1.229   3.591
40278SOL    HW122673  13.794   1.319   3.614
40278SOL    HW222674  13.842   1.176   3.630
40279SOL     OW22675  11.880   4.586   5.711
40279SOL    HW122676  11.872   4.639   5.790
40279SOL    HW222677  11.909   4.648   5.643
40280SOL     OW22678   1.211   9.200   0.559
40280SOL    HW122679   1.213   9.293   0.583
40280SOL    HW222680   1.270   9.158   0.622
40281SOL     OW22681   8.387   6.890  10.616
40281SOL    HW122682   8.439   6.952  10.564
40281SOL    HW222683   8.317   6.863  10.556
40282SOL     OW22684   8.286  13.170   7.238
40282SOL    HW122685   8.349  13.240   7.224
40282SOL    HW222686   8.339  13.091   7.249
40283SOL     OW22687  12.118  11.829   5.899
40283SOL    HW122688  12.085  11.753   5.851
40283SOL    HW222689  12.057  11.900   5.878
40284SOL     OW22690   0.918   9.684   7.536
40284SOL    HW122691   0.864   9.616   7.497
40284SOL    HW222692   0.898   9.681   7.629
40285SOL     OW22693   4.984   8.995  12.298
40285SOL    HW122694   5.028   9.079  12.287
40285SOL    HW222695   5.046   8.931  12.263
40286SOL     OW22696  12.381   8.250  11.397
40286SOL    HW122697  12.397   8.156  11.399
40286SOL    HW222698  12.293   8.260  11.433
40287SOL     OW22699  10.305  10.684   4.255
40287SOL    HW122700  10.372  10.725   4.201
40287SOL    HW222701  10.353  10.645   4.328
40288SOL     OW22702   5.341   5.793  10.538
40288SOL    HW122703   5.422   5.785  10.486
40288SOL    HW222704   5.283   5.725  10.503
40289SOL     OW22705   3.735  13.618   5.628
40289SOL    HW122706   3.819  13.589   5.663
40289SOL    HW222707   3.707  13.547   5.570
40290SOL     OW22708  13.391   1.920   5.606
40290SOL    HW122709  13.413   1.840   5.558
40290SOL    HW222710  13.308   1.901   5.649
40291SOL     OW22711   8.480   7.412   1.185
40291SOL    HW122712   8.390   7.392   1.158
40291SOL    HW222713   8.522   7.443   1.105
40292SOL     OW22714   4.996  13.341  11.024
40292SOL    HW122715   5.007  13.249  11.050
40292SOL    HW222716   5.075  13.384  11.057
40293SOL     OW22717   4.259  12.500   7.662
40293SOL    HW122718   4.235  12.567   7.726
40293SOL    HW222719   4.188  12.435   7.669
40294SOL     OW22720   0.071  10.757   6.038
40294SOL    HW122721   0.029  10.675   6.014
40294SOL    HW222722   0.001  10.809   6.079
40295SOL     OW22723   8.761   9.950  12.061
40295SOL    HW122724   8.819   9.914  12.128
40295SOL    HW222725   8.803   9.927  11.978
40296SOL     OW22726   0.751   0.706  12.571
40296SOL    HW122727   0.734   0.624  12.617
40296SOL    HW222728   0.665   0.734  12.540
40297SOL     OW22729  13.367   4.786  10.354
40297SOL    HW122730  13.461   4.765  10.353
40297SOL    HW222731  13.332   4.740  10.277
40298SOL     OW22732   7.205  10.063  14.018
40298SOL    HW122733   7.139  10.066  13.949
40298SOL    HW222734   7.276  10.009  13.982
40299SOL     OW22735   0.758   1.266   0.801
40299SOL    HW122736   0.687   1.220   0.847
40299SOL    HW222737   0.725   1.278   0.712
40300SOL     OW22738   2.383  12.721   1.549
40300SOL    HW122739   2.354  12.630   1.548
40300SOL    HW222740   2.346  12.759   1.470
40301SOL     OW22741  12.466   0.001   8.528
40301SOL    HW122742  12.408  14.809   8.492
40301SOL    HW222743  12.505  14.837   8.605
40302SOL     OW22744   9.228   7.791  10.022
40302SOL    HW122745   9.246   7.846   9.945
40302SOL    HW222746   9.278   7.832  10.093
40303SOL     OW22747   1.202   4.408   9.411
40303SOL    HW122748   1.211   4.498   9.379
40303SOL    HW222749   1.292   4.379   9.427
40304SOL     OW22750   0.963   1.613   5.551
40304SOL    HW122751   1.006   1.538   5.592
40304SOL    HW222752   1.001   1.689   5.595
40305SOL     OW22753   8.340   2.607   3.307
40305SOL    HW122754   8.268   2.573   3.253
40305SOL    HW222755   8.376   2.529   3.350
40306SOL     OW22756   2.764   2.200   1.454
40306SOL    HW122757   2.708   2.277   1.442
40306SOL    HW222758   2.716   2.129   1.411
40307SOL     OW22759  11.641   5.383   2.792
40307SOL    HW122760  11.724   5.413   2.829
40307SOL    HW222761  11.664   5.354   2.703
40308SOL     OW22762  11.381   8.906  14.721
40308SOL    HW122763  11.448   8.873  14.661
40308SOL    HW222764  11.310   8.936  14.663
40309SOL     OW22765   4.814   3.226   3.427
40309SOL    HW122766   4.843   3.142   3.390
40309SOL    HW222767   4.774   3.203   3.510
40310SOL     OW22768   5.909   4.385   4.749
40310SOL    HW122769   5.814   4.397   4.756
40310SOL    HW222770   5.944   4.474   4.743
40311SOL     OW22771   6.806   4.312   5.208
40311SOL    HW122772   6.784   4.404   5.226
40311SOL    HW222773   6.818   4.273   5.295
40312SOL     OW22774   3.823   6.646   2.826
40312SOL    HW122775   3.759   6.676   2.890
40312SOL    HW222776   3.846   6.557   2.855
40313SOL     OW22777  11.353   6.799   0.706
40313SOL    HW122778  11.383   6.709   0.695
40313SOL    HW222779  11.433   6.852   0.706
40314SOL     OW22780   2.960  12.415   4.234
40314SOL    HW122781   2.881  12.460   4.265
40314SOL    HW222782   2.928  12.329   4.205
40315SOL     OW22783   2.323   3.559   9.799
40315SOL    HW122784   2.279   3.643   9.784
40315SOL    HW222785   2.402   3.563   9.744
40316SOL     OW22786  12.782  11.815   6.349
40316SOL    HW122787  12.827  11.824   6.433
40316SOL    HW222788  12.690  11.798   6.373
40317SOL     OW22789   3.111   1.736  12.584
40317SOL    HW122790   3.106   1.729  12.680
40317SOL    HW222791   3.205   1.738  12.565
40318SOL     OW22792   4.926  14.408   1.013
40318SOL    HW122793   4.910  14.368   1.098
40318SOL    HW222794   5.003  14.463   1.027
40319SOL     OW22795  13.205  13.878   0.072
40319SOL    HW122796  13.123  13.921   0.046
40319SOL    HW222797  13.272  13.945   0.058
40320SOL     OW22798   3.376   7.921   5.446
40320SOL    HW122799   3.459   7.887   5.478
40320SOL    HW222800   3.347   7.856   5.381
40321SOL     OW22801   9.060  14.543   3.860
40321SOL    HW122802   9.030  14.465   3.908
40321SOL    HW222803   9.104  14.508   3.783
40322SOL     OW22804   4.191   9.361  14.089
40322SOL    HW122805   4.119   9.321  14.041
40322SOL    HW222806   4.189   9.319  14.175
40323SOL     OW22807  12.922   9.652  11.904
40323SOL    HW122808  13.004   9.605  11.921
40323SOL    HW222809  12.949   9.730  11.856
40324SOL     OW22810   7.946   0.069   5.867
40324SOL    HW122811   7.933   0.003   5.935
40324SOL    HW222812   8.022   0.038   5.818
40325SOL     OW22813  10.171   9.279  11.790
40325SOL    HW122814  10.134   9.328  11.864
40325SOL    HW222815  10.101   9.279  11.725
40326SOL     OW22816  11.288   4.697   4.706
40326SOL    HW122817  11.276   4.635   4.778
40326SOL    HW222818  11.266   4.782   4.744
40327SOL     OW22819   6.351  11.730   1.350
40327SOL    HW122820   6.422  11.791   1.371
40327SOL    HW222821   6.322  11.698   1.436
40328SOL     OW22822   4.208   1.288  13.255
40328SOL    HW122823   4.179   1.276  13.165
40328SOL    HW222824   4.275   1.220  13.267
40329SOL     OW22825   8.992   5.257   5.490
40329SOL    HW122826   8.918   5.273   5.432
40329SOL    HW222827   8.953   5.240   5.576
40330SOL     OW22828   7.012   4.169   1.116
40330SOL    HW122829   6.976   4.245   1.070
40330SOL    HW222830   6.997   4.095   1.057
40331SOL     OW22831  10.948   1.943   9.702
40331SOL    HW122832  10.970   1.966   9.793
40331SOL    HW222833  10.971   1.850   9.695
40332SOL     OW22834   0.298   3.067   7.938
40332SOL    HW122835   0.382   3.045   7.897
40332SOL    HW222836   0.282   3.158   7.913
40333SOL     OW22837   4.795  10.293  13.577
40333SOL    HW122838   4.770  10.386  13.581
40333SOL    HW222839   4.779  10.268  13.486
40334SOL     OW22840   6.006   4.672   4.157
40334SOL    HW122841   5.984   4.761   4.129
40334SOL    HW222842   5.965   4.615   4.091
40335SOL     OW22843   1.177  13.159   3.192
40335SOL    HW122844   1.262  13.198   3.215
40335SOL    HW222845   1.128  13.160   3.274
40336SOL     OW22846   8.051  11.481   1.664
40336SOL    HW122847   8.093  11.517   1.743
40336SOL    HW222848   8.005  11.403   1.696
40337SOL     OW22849  14.661   4.517   6.048
40337SOL    HW122850  14.581   4.553   6.086
40337SOL    HW222851  14.653   4.422   6.059
40338SOL     OW22852  11.823   1.285  14.770
40338SOL    HW122853  11.890   1.316  14.831
40338SOL    HW222854  11.763   1.235  14.825
40339SOL     OW22855  13.070   7.265  14.280
40339SOL    HW122856  13.057   7.234  14.190
40339SOL    HW222857  13.100   7.355  14.271
40340SOL     OW22858   1.196  12.784   3.725
40340SOL    HW122859   1.135  12.710   3.719
40340SOL    HW222860   1.139  12.862   3.724
40341SOL     OW22861   4.270   4.235   4.991
40341SOL    HW122862   4.203   4.301   4.973
40341SOL    HW222863   4.322   4.232   4.911
40342SOL     OW22864   6.558   1.800  14.826
40342SOL    HW122865   6.483   1.769  14.775
40342SOL    HW222866   6.627   1.737  14.808
40343SOL     OW22867   1.931   2.375  14.310
40343SOL    HW122868   1.877   2.435  14.259
40343SOL    HW222869   1.928   2.293  14.261
40344SOL     OW22870  11.247   8.697  11.259
40344SOL    HW122871  11.209   8.782  11.283
40344SOL    HW222872  11.172   8.640  11.245
40345SOL     OW22873   5.505   5.171   6.259
40345SOL    HW122874   5.559   5.250   6.245
40345SOL    HW222875   5.566   5.107   6.296
40346SOL     OW22876  11.201   6.129  13.094
40346SOL    HW122877  11.183   6.217  13.063
40346SOL    HW222878  11.202   6.137  13.189
40347SOL     OW22879  14.344  12.316   7.712
40347SOL    HW122880  14.255  12.281   7.701
40347SOL    HW222881  14.368  12.291   7.801
40348SOL     OW22882  13.346  11.059   8.770
40348SOL    HW122883  13.355  10.991   8.703
40348SOL    HW222884  13.254  11.082   8.769
40349SOL     OW22885   0.836   7.475   4.970
40349SOL    HW122886   0.834   7.456   4.876
40349SOL    HW222887   0.839   7.571   4.975
40350SOL     OW22888   3.440  12.494   8.053
40350SOL    HW122889   3.450  12.411   8.099
40350SOL    HW222890   3.429  12.469   7.961
40351SOL     OW22891  10.331   7.057   3.085
40351SOL    HW122892  10.258   7.052   3.147
40351SOL    HW222893  10.388   7.125   3.121
40352SOL     OW22894   5.161   8.372  13.895
40352SOL    HW122895   5.255   8.369  13.880
40352SOL    HW222896   5.147   8.318  13.973
40353SOL     OW22897   5.813   9.286   1.669
40353SOL    HW122898   5.819   9.351   1.600
40353SOL    HW222899   5.797   9.203   1.622
40354SOL     OW22900   0.854   8.583   2.831
40354SOL    HW122901   0.824   8.535   2.908
40354SOL    HW222902   0.846   8.675   2.855
40355SOL     OW22903   7.874  13.900   7.529
40355SOL    HW122904   7.939  13.838   7.564
40355SOL    HW222905   7.925  13.978   7.507
40356SOL     OW22906  12.060   1.056   0.035
40356SOL    HW122907  12.079   1.062  14.818
40356SOL    HW222908  12.097   0.972   0.061
40357SOL     OW22909   4.369   1.419   2.320
40357SOL    HW122910   4.434   1.455   2.380
40357SOL    HW222911   4.400   1.445   2.233
40358SOL     OW22912  12.163   7.107   4.911
40358SOL    HW122913  12.092   7.062   4.956
40358SOL    HW222914  12.224   7.131   4.980
40359SOL     OW22915   9.493   1.989   8.695
40359SOL    HW122916   9.448   1.914   8.735
40359SOL    HW222917   9.541   2.029   8.768
40360SOL     OW22918   2.721   1.396   9.497
40360SOL    HW122919   2.710   1.327   9.432
40360SOL    HW222920   2.782   1.360   9.561
40361SOL     OW22921   7.859   7.108   6.706
40361SOL    HW122922   7.892   7.165   6.637
40361SOL    HW222923   7.771   7.085   6.679
40362SOL     OW22924   5.683   5.470   1.857
40362SOL    HW122925   5.617   5.504   1.796
40362SOL    HW222926   5.675   5.374   1.850
40363SOL     OW22927   1.843   5.018   0.717
40363SOL    HW122928   1.825   5.058   0.802
40363SOL    HW222929   1.899   4.943   0.737
40364SOL     OW22930   7.463  11.286   2.224
40364SOL    HW122931   7.433  11.323   2.307
40364SOL    HW222932   7.392  11.228   2.197
40365SOL     OW22933   3.886   2.248   9.073
40365SOL    HW122934   3.857   2.223   9.161
40365SOL    HW222935   3.972   2.287   9.086
40366SOL     OW22936   8.039  10.272  12.148
40366SOL    HW122937   8.087  10.192  12.163
40366SOL    HW222938   7.950  10.253  12.178
40367SOL     OW22939   4.935   4.109   2.880
40367SOL    HW122940   5.014   4.133   2.929
40367SOL    HW222941   4.967   4.076   2.796
40368SOL     OW22942   0.395   7.467   1.518
40368SOL    HW122943   0.332   7.406   1.558
40368SOL    HW222944   0.475   7.455   1.568
40369SOL     OW22945  10.221   1.795   3.815
40369SOL    HW122946  10.168   1.770   3.740
40369SOL    HW222947  10.194   1.884   3.835
40370SOL     OW22948   7.121   7.312   2.709
40370SOL    HW122949   7.026   7.304   2.705
40370SOL    HW222950   7.137   7.405   2.722
40371SOL     OW22951   1.323   7.417  11.677
40371SOL    HW122952   1.383   7.347  11.652
40371SOL    HW222953   1.326   7.418  11.773
40372SOL     OW22954   3.181  13.199   4.545
40372SOL    HW122955   3.234  13.190   4.466
40372SOL    HW222956   3.095  13.165   4.520
40373SOL     OW22957  10.569   7.445   1.940
40373SOL    HW122958  10.602   7.517   1.995
40373SOL    HW222959  10.528   7.489   1.866
40374SOL     OW22960   4.102   1.841   3.981
40374SOL    HW122961   4.129   1.840   4.073
40374SOL    HW222962   4.181   1.817   3.932
40375SOL     OW22963   4.445   8.779  14.209
40375SOL    HW122964   4.514   8.715  14.227
40375SOL    HW222965   4.491   8.860  14.189
40376SOL     OW22966  10.598   8.869  14.388
40376SOL    HW122967  10.648   8.906  14.315
40376SOL    HW222968  10.508   8.867  14.356
40377SOL     OW22969   4.861   4.158  11.195
40377SOL    HW122970   4.874   4.205  11.113
40377SOL    HW222971   4.930   4.191  11.253
40378SOL     OW22972   4.935   5.781   0.681
40378SOL    HW122973   4.980   5.797   0.763
40378SOL    HW222974   4.877   5.707   0.699
40379SOL     OW22975  13.801   0.278  11.572
40379SOL    HW122976  13.812   0.370  11.597
40379SOL    HW222977  13.725   0.277  11.515
40380SOL     OW22978   8.994   5.077  13.329
40380SOL    HW122979   8.957   4.989  13.332
40380SOL    HW222980   9.004   5.095  13.235
40381SOL     OW22981   5.314  10.156  10.657
40381SOL    HW122982   5.349  10.085  10.605
40381SOL    HW222983   5.272  10.113  10.732
40382SOL     OW22984  10.958   6.535   3.922
40382SOL    HW122985  10.919   6.594   3.985
40382SOL    HW222986  11.009   6.591   3.864
40383SOL     OW22987   6.857   4.051   3.378
40383SOL    HW122988   6.884   4.010   3.295
40383SOL    HW222989   6.851   3.978   3.439
40384SOL     OW22990  14.276  14.718   5.136
40384SOL    HW122991  14.217  14.773   5.085
40384SOL    HW222992  14.363  14.743   5.106
40385SOL     OW22993   6.252   1.087   9.239
40385SOL    HW122994   6.182   1.028   9.210
40385SOL    HW222995   6.330   1.056   9.191
40386SOL     OW22996   3.610   9.413   2.471
40386SOL    HW122997   3.684   9.429   2.530
40386SOL    HW222998   3.552   9.488   2.485
40387SOL     OW22999  13.417   1.292  12.477
40387SOL    HW123000  13.479   1.249  12.418
40387SOL    HW223001  13.365   1.221  12.513
40388SOL     OW23002   4.101   1.653   5.290
40388SOL    HW123003   4.106   1.725   5.228
40388SOL    HW223004   4.027   1.674   5.346
40389SOL     OW23005   8.421   8.025   3.242
40389SOL    HW123006   8.393   8.029   3.151
40389SOL    HW223007   8.477   8.101   3.254
40390SOL     OW23008  12.517  11.990  14.670
40390SOL    HW123009  12.528  12.003  14.576
40390SOL    HW223010  12.604  12.003  14.707
40391SOL     OW23011   3.359  14.131   8.048
40391SOL    HW123012   3.387  14.219   8.023
40391SOL    HW223013   3.441  14.082   8.055
40392SOL     OW23014  12.960   8.594   5.043
40392SOL    HW123015  12.963   8.687   5.021
40392SOL    HW223016  12.924   8.591   5.131
40393SOL     OW23017   9.516   2.061   0.111
40393SOL    HW123018   9.455   2.105   0.171
40393SOL    HW223019   9.499   2.101   0.026
40394SOL     OW23020  13.569   1.473   7.335
40394SOL    HW123021  13.561   1.524   7.416
40394SOL    HW223022  13.524   1.527   7.270
40395SOL     OW23023  13.550   2.313  11.361
40395SOL    HW123024  13.478   2.349  11.309
40395SOL    HW223025  13.582   2.388  11.411
40396SOL     OW23026   4.964   6.645   1.632
40396SOL    HW123027   5.009   6.719   1.674
40396SOL    HW223028   4.874   6.651   1.665
40397SOL     OW23029  13.559   6.119   1.521
40397SOL    HW123030  13.554   6.109   1.426
40397SOL    HW223031  13.586   6.033   1.553
40398SOL     OW23032  14.660   2.921  13.242
40398SOL    HW123033  14.607   3.000  13.245
40398SOL    HW223034  14.597   2.849  13.239
40399SOL     OW23035   6.348   3.508  14.386
40399SOL    HW123036   6.257   3.510  14.357
40399SOL    HW223037   6.399   3.532  14.309
40400SOL     OW23038  12.867   4.498   7.033
40400SOL    HW123039  12.822   4.414   7.022
40400SOL    HW223040  12.951   4.486   6.988
40401SOL     OW23041   4.853   3.378   7.673
40401SOL    HW123042   4.943   3.389   7.701
40401SOL    HW223043   4.806   3.452   7.714
40402SOL     OW23044   9.847  14.770  10.838
40402SOL    HW123045   9.776  14.732  10.890
40402SOL    HW223046   9.863  14.705  10.769
40403SOL     OW23047   2.930  14.858  11.104
40403SOL    HW123048   2.976  14.855  11.188
40403SOL    HW223049   2.900   0.072  11.096
40404SOL     OW23050   9.321  11.473  11.102
40404SOL    HW123051   9.231  11.451  11.077
40404SOL    HW223052   9.339  11.555  11.057
40405SOL     OW23053   5.155   4.924   4.559
40405SOL    HW123054   5.062   4.905   4.543
40405SOL    HW223055   5.154   5.005   4.609
40406SOL     OW23056   3.735  13.595   5.106
40406SOL    HW123057   3.710  13.640   5.187
40406SOL    HW223058   3.807  13.537   5.133
40407SOL     OW23059  12.929  11.653   0.497
40407SOL    HW123060  12.966  11.730   0.455
40407SOL    HW223061  12.851  11.686   0.542
40408SOL     OW23062   1.765   4.556  11.435
40408SOL    HW123063   1.743   4.490  11.501
40408SOL    HW223064   1.710   4.631  11.457
40409SOL     OW23065  10.693  14.001  11.634
40409SOL    HW123066  10.629  14.072  11.631
40409SOL    HW223067  10.657  13.941  11.699
40410SOL     OW23068   3.313  11.384   0.203
40410SOL    HW123069   3.336  11.450   0.138
40410SOL    HW223070   3.217  11.386   0.205
40411SOL     OW23071  11.834   3.487   7.526
40411SOL    HW123072  11.835   3.575   7.566
40411SOL    HW223073  11.743   3.460   7.530
40412SOL     OW23074   9.623   4.425   7.635
40412SOL    HW123075   9.703   4.421   7.687
40412SOL    HW223076   9.654   4.426   7.544
40413SOL     OW23077   1.232   1.624  13.946
40413SOL    HW123078   1.196   1.707  13.977
40413SOL    HW223079   1.275   1.646  13.864
40414SOL     OW23080  11.073   0.005   8.022
40414SOL    HW123081  11.168   0.007   8.013
40414SOL    HW223082  11.040   0.054   7.947
40415SOL     OW23083   3.767   1.855   4.745
40415SOL    HW123084   3.787   1.787   4.681
40415SOL    HW223085   3.802   1.821   4.827
40416SOL     OW23086  12.757   8.663  13.946
40416SOL    HW123087  12.797   8.687  13.863
40416SOL    HW223088  12.774   8.737  14.004
40417SOL     OW23089   6.222   2.256   2.968
40417SOL    HW123090   6.136   2.217   2.953
40417SOL    HW223091   6.279   2.181   2.985
40418SOL     OW23092  14.296   1.880  13.169
40418SOL    HW123093  14.219   1.924  13.205
40418SOL    HW223094  14.348   1.856  13.246
40419SOL     OW23095   4.465   5.706   5.869
40419SOL    HW123096   4.408   5.767   5.916
40419SOL    HW223097   4.441   5.620   5.903
40420SOL     OW23098  10.139   1.550  13.916
40420SOL    HW123099  10.172   1.570  13.828
40420SOL    HW223100  10.197   1.598  13.975
40421SOL     OW23101   7.142   5.970   2.022
40421SOL    HW123102   7.110   5.986   1.933
40421SOL    HW223103   7.080   6.017   2.079
40422SOL     OW23104  10.785   8.888   3.765
40422SOL    HW123105  10.735   8.969   3.773
40422SOL    HW223106  10.871   8.908   3.802
40423SOL     OW23107  12.406   2.702   7.781
40423SOL    HW123108  12.332   2.649   7.753
40423SOL    HW223109  12.471   2.638   7.811
40424SOL     OW23110   1.916   3.592   0.834
40424SOL    HW123111   1.864   3.512   0.821
40424SOL    HW223112   1.890   3.624   0.920
40425SOL     OW23113   2.889   2.032   4.568
40425SOL    HW123114   2.968   2.041   4.622
40425SOL    HW223115   2.922   2.035   4.478
40426SOL     OW23116   8.026   3.106  14.308
40426SOL    HW123117   8.009   3.196  14.281
40426SOL    HW223118   8.037   3.111  14.403
40427SOL     OW23119   0.614  13.673  10.761
40427SOL    HW123120   0.523  13.662  10.789
40427SOL    HW223121   0.630  13.598  10.704
40428SOL     OW23122  13.217  14.701   7.012
40428SOL    HW123123  13.235  14.754   6.934
40428SOL    HW223124  13.131  14.731   7.042
40429SOL     OW23125   4.022   8.569   8.463
40429SOL    HW123126   4.051   8.479   8.481
40429SOL    HW223127   4.093   8.624   8.495
40430SOL     OW23128  11.363   0.316   9.805
40430SOL    HW123129  11.441   0.287   9.853
40430SOL    HW223130  11.308   0.238   9.800
40431SOL     OW23131  14.545   5.987   2.679
40431SOL    HW123132  14.602   6.063   2.676
40431SOL    HW223133  14.544   5.954   2.589
40432SOL     OW23134   2.773   4.628  10.888
40432SOL    HW123135   2.737   4.556  10.837
40432SOL    HW223136   2.867   4.625  10.871
40433SOL     OW23137   2.636   4.315   9.915
40433SOL    HW123138   2.726   4.344   9.925
40433SOL    HW223139   2.600   4.372   9.847
40434SOL     OW23140   5.599   7.100  10.317
40434SOL    HW123141   5.581   7.007  10.302
40434SOL    HW223142   5.519   7.144  10.290
40435SOL     OW23143  10.718   7.438   9.034
40435SOL    HW123144  10.659   7.364   9.054
40435SOL    HW223145  10.805   7.404   9.054
40436SOL     OW23146   4.267   3.618   8.349
40436SOL    HW123147   4.303   3.680   8.412
40436SOL    HW223148   4.247   3.670   8.272
40437SOL     OW23149   9.150   8.227   3.204
40437SOL    HW123150   9.179   8.234   3.113
40437SOL    HW223151   9.185   8.143   3.233
40438SOL     OW23152   8.533   3.597   1.987
40438SOL    HW123153   8.471   3.668   1.970
40438SOL    HW223154   8.615   3.627   1.948
40439SOL     OW23155  14.227  10.078   3.339
40439SOL    HW123156  14.180  10.076   3.255
40439SOL    HW223157  14.159  10.097   3.404
40440SOL     OW23158   7.202  14.588   8.464
40440SOL    HW123159   7.243  14.526   8.525
40440SOL    HW223160   7.274  14.617   8.408
40441SOL     OW23161   5.301   5.769   9.857
40441SOL    HW123162   5.344   5.854   9.860
40441SOL    HW223163   5.318   5.736   9.769
40442SOL     OW23164   5.484  10.008   2.337
40442SOL    HW123165   5.566  10.013   2.387
40442SOL    HW223166   5.469   9.914   2.325
40443SOL     OW23167   4.504  14.774   2.201
40443SOL    HW123168   4.464  14.768   2.114
40443SOL    HW223169   4.512  14.868   2.217
40444SOL     OW23170  11.502   7.511   0.918
40444SOL    HW123171  11.461   7.590   0.954
40444SOL    HW223172  11.504   7.449   0.991
40445SOL     OW23173   3.298   3.041  13.632
40445SOL    HW123174   3.345   3.100  13.572
40445SOL    HW223175   3.214   3.026  13.589
40446SOL     OW23176   6.949   3.625   4.743
40446SOL    HW123177   6.935   3.556   4.807
40446SOL    HW223178   6.884   3.692   4.766
40447SOL     OW23179   6.946  12.863   0.061
40447SOL    HW123180   6.988  12.789   0.105
40447SOL    HW223181   6.910  12.916   0.131
40448SOL     OW23182  14.552  10.745  11.828
40448SOL    HW123183  14.570  10.653  11.848
40448SOL    HW223184  14.637  10.782  11.806
40449SOL     OW23185  12.230  10.948   6.122
40449SOL    HW123186  12.257  10.938   6.214
40449SOL    HW223187  12.229  11.043   6.108
40450SOL     OW23188   3.310  13.739   2.377
40450SOL    HW123189   3.249  13.783   2.436
40450SOL    HW223190   3.273  13.652   2.364
40451SOL     OW23191   2.735   4.005   2.772
40451SOL    HW123192   2.718   3.945   2.844
40451SOL    HW223193   2.668   4.073   2.781
40452SOL     OW23194   3.168   5.011   2.384
40452SOL    HW123195   3.167   4.947   2.455
40452SOL    HW223196   3.219   5.084   2.418
40453SOL     OW23197   5.027   7.190   1.243
40453SOL    HW123198   4.950   7.134   1.256
40453SOL    HW223199   5.099   7.142   1.284
40454SOL     OW23200   5.264  12.360   6.950
40454SOL    HW123201   5.312  12.280   6.969
40454SOL    HW223202   5.310  12.428   7.000
40455SOL     OW23203  14.112  13.440   2.223
40455SOL    HW123204  14.124  13.401   2.136
40455SOL    HW223205  14.087  13.530   2.205
40456SOL     OW23206   3.626   5.367   7.017
40456SOL    HW123207   3.667   5.421   7.085
40456SOL    HW223208   3.696   5.349   6.955
40457SOL     OW23209   5.531   1.629   1.801
40457SOL    HW123210   5.591   1.673   1.741
40457SOL    HW223211   5.445   1.664   1.779
40458SOL     OW23212   1.843   1.856   6.027
40458SOL    HW123213   1.906   1.928   6.016
40458SOL    HW223214   1.760   1.899   6.044
40459SOL     OW23215   5.821   3.383   5.611
40459SOL    HW123216   5.766   3.323   5.561
40459SOL    HW223217   5.793   3.371   5.702
40460SOL     OW23218   2.370   7.449  12.373
40460SOL    HW123219   2.384   7.543  12.364
40460SOL    HW223220   2.306   7.427  12.304
40461SOL     OW23221   5.177  11.251  13.493
40461SOL    HW123222   5.093  11.223  13.531
40461SOL    HW223223   5.243  11.205  13.545
40462SOL     OW23224   1.947  14.787   5.547
40462SOL    HW123225   1.952  14.708   5.602
40462SOL    HW223226   1.967  14.859   5.607
40463SOL     OW23227   9.017  14.762   4.302
40463SOL    HW123228   8.926  14.771   4.332
40463SOL    HW223229   9.026  14.828   4.234
40464SOL     OW23230  11.382   8.065   1.941
40464SOL    HW123231  11.403   8.104   1.857
40464SOL    HW223232  11.330   8.132   1.986
40465SOL     OW23233   6.125   7.018  13.743
40465SOL    HW123234   6.047   6.965  13.761
40465SOL    HW223235   6.182   6.960  13.692
40466SOL     OW23236   9.116   5.769   6.540
40466SOL    HW123237   9.052   5.763   6.470
40466SOL    HW223238   9.155   5.856   6.530
40467SOL     OW23239   6.276   5.907   3.070
40467SOL    HW123240   6.325   5.961   3.008
40467SOL    HW223241   6.226   5.970   3.122
40468SOL     OW23242   4.597   0.061  10.484
40468SOL    HW123243   4.616   0.092  10.572
40468SOL    HW223244   4.675   0.085  10.433
40469SOL     OW23245   5.872   7.864   2.932
40469SOL    HW123246   5.892   7.781   2.889
40469SOL    HW223247   5.957   7.904   2.951
40470SOL     OW23248   0.524   6.588  12.208
40470SOL    HW123249   0.483   6.525  12.267
40470SOL    HW223250   0.450   6.631  12.164
40471SOL     OW23251   5.871  13.734  10.829
40471SOL    HW123252   5.801  13.797  10.845
40471SOL    HW223253   5.919  13.729  10.911
40472SOL     OW23254  12.414  11.658   0.401
40472SOL    HW123255  12.323  11.688   0.409
40472SOL    HW223256  12.466  11.738   0.405
40473SOL     OW23257   0.785   0.517   9.211
40473SOL    HW123258   0.731   0.587   9.175
40473SOL    HW223259   0.801   0.459   9.136
40474SOL     OW23260   5.964   9.805   5.602
40474SOL    HW123261   5.870   9.789   5.607
40474SOL    HW223262   5.976   9.855   5.521
40475SOL     OW23263  14.504  12.917   6.263
40475SOL    HW123264  14.482  12.944   6.175
40475SOL    HW223265  14.600  12.919   6.267
40476SOL     OW23266  14.172  12.829   8.884
40476SOL    HW123267  14.230  12.754   8.880
40476SOL    HW223268  14.103  12.803   8.944
40477SOL     OW23269  11.672  12.412   1.093
40477SOL    HW123270  11.704  12.348   1.157
40477SOL    HW223271  11.741  12.477   1.087
40478SOL     OW23272   1.845   9.775   6.046
40478SOL    HW123273   1.775   9.724   6.087
40478SOL    HW223274   1.924   9.724   6.061
40479SOL     OW23275   0.304   2.728  13.737
40479SOL    HW123276   0.262   2.715  13.653
40479SOL    HW223277   0.285   2.819  13.760
40480SOL     OW23278   6.898  11.616   4.080
40480SOL    HW123279   6.882  11.689   4.021
40480SOL    HW223280   6.966  11.565   4.037
40481SOL     OW23281   5.451   3.913  13.966
40481SOL    HW123282   5.506   3.969  13.912
40481SOL    HW223283   5.420   3.845  13.907
40482SOL     OW23284  11.852  14.376   1.223
40482SOL    HW123285  11.809  14.431   1.158
40482SOL    HW223286  11.832  14.287   1.195
40483SOL     OW23287  10.237   6.751   1.204
40483SOL    HW123288  10.176   6.751   1.278
40483SOL    HW223289  10.290   6.673   1.216
40484SOL     OW23290   9.717   1.469  14.004
40484SOL    HW123291   9.743   1.517  14.083
40484SOL    HW223292   9.653   1.404  14.036
40485SOL     OW23293  10.669   6.225  14.227
40485SOL    HW123294  10.600   6.290  14.245
40485SOL    HW223295  10.674   6.174  14.307
40486SOL     OW23296  12.261   7.300   7.103
40486SOL    HW123297  12.273   7.258   7.018
40486SOL    HW223298  12.242   7.392   7.082
40487SOL     OW23299  12.142   6.574   6.879
40487SOL    HW123300  12.187   6.493   6.903
40487SOL    HW223301  12.198   6.614   6.812
40488SOL     OW23302   5.386   4.526   3.109
40488SOL    HW123303   5.433   4.568   3.037
40488SOL    HW223304   5.455   4.496   3.169
40489SOL     OW23305   9.633  10.499   2.782
40489SOL    HW123306   9.583  10.419   2.798
40489SOL    HW223307   9.712  10.469   2.738
40490SOL     OW23308  12.847   8.876  14.526
40490SOL    HW123309  12.771   8.932  14.511
40490SOL    HW223310  12.913   8.934  14.564
40491SOL     OW23311   7.742   6.692   3.767
40491SOL    HW123312   7.810   6.753   3.735
40491SOL    HW223313   7.769   6.607   3.733
40492SOL     OW23314   3.676  13.347   4.211
40492SOL    HW123315   3.649  13.278   4.150
40492SOL    HW223316   3.598  13.401   4.222
40493SOL     OW23317  13.541   0.765   0.860
40493SOL    HW123318  13.561   0.713   0.938
40493SOL    HW223319  13.534   0.855   0.892
40494SOL     OW23320   3.642   1.888   3.814
40494SOL    HW123321   3.573   1.831   3.849
40494SOL    HW223322   3.723   1.839   3.829
40495SOL     OW23323   2.391   0.679   1.891
40495SOL    HW123324   2.331   0.641   1.955
40495SOL    HW223325   2.382   0.773   1.901
40496SOL     OW23326   2.386  12.855   3.351
40496SOL    HW123327   2.421  12.806   3.425
40496SOL    HW223328   2.292  12.835   3.351
40497SOL     OW23329   3.532   0.684   2.082
40497SOL    HW123330   3.545   0.608   2.138
40497SOL    HW223331   3.548   0.652   1.993
40498SOL     OW23332   3.394   1.085   1.846
40498SOL    HW123333   3.430   1.158   1.895
40498SOL    HW223334   3.360   1.026   1.913
40499SOL     OW23335   8.877   4.085   4.094
40499SOL    HW123336   8.808   4.140   4.132
40499SOL    HW223337   8.920   4.045   4.170
40500SOL     OW23338  14.553  10.559   6.631
40500SOL    HW123339  14.461  10.539   6.647
40500SOL    HW223340  14.583  10.600   6.711
40501SOL     OW23341  14.577  14.278   2.025
40501SOL    HW123342  14.627  14.214   1.973
40501SOL    HW223343  14.492  14.236   2.039
40502SOL     OW23344   0.814   7.218   6.552
40502SOL    HW123345   0.804   7.128   6.584
40502SOL    HW223346   0.872   7.259   6.616
40503SOL     OW23347  12.637   8.339   3.889
40503SOL    HW123348  12.723   8.318   3.925
40503SOL    HW223349  12.575   8.305   3.954
40504SOL     OW23350  10.422   9.213  13.998
40504SOL    HW123351  10.439   9.142  13.936
40504SOL    HW223352  10.327   9.211  14.010
40505SOL     OW23353   7.804   0.900  13.469
40505SOL    HW123354   7.898   0.907  13.452
40505SOL    HW223355   7.769   0.985  13.444
40506SOL     OW23356  13.147   1.368   4.407
40506SOL    HW123357  13.082   1.391   4.474
40506SOL    HW223358  13.197   1.448   4.394
40507SOL     OW23359   3.443   6.842   8.714
40507SOL    HW123360   3.516   6.856   8.654
40507SOL    HW223361   3.484   6.816   8.796
40508SOL     OW23362   3.555  13.625  13.877
40508SOL    HW123363   3.523  13.536  13.894
40508SOL    HW223364   3.494  13.682  13.924
40509SOL     OW23365   1.845  13.988   3.316
40509SOL    HW123366   1.766  14.026   3.278
40509SOL    HW223367   1.916  14.015   3.257
40510SOL     OW23368  11.272   2.441  10.786
40510SOL    HW123369  11.253   2.492  10.864
40510SOL    HW223370  11.337   2.492  10.739
40511SOL     OW23371   5.169  14.789   2.257
40511SOL    HW123372   5.247  14.845   2.261
40511SOL    HW223373   5.190  14.725   2.189
40512SOL     OW23374   3.027  12.649   7.917
40512SOL    HW123375   2.974  12.707   7.972
40512SOL    HW223376   2.968  12.577   7.895
40513SOL     OW23377   9.135   8.415   6.601
40513SOL    HW123378   9.047   8.445   6.625
40513SOL    HW223379   9.121   8.330   6.560
40514SOL     OW23380   0.966   7.757   0.539
40514SOL    HW123381   1.006   7.827   0.486
40514SOL    HW223382   1.039   7.712   0.579
40515SOL     OW23383   5.737   4.013  10.886
40515SOL    HW123384   5.824   3.997  10.922
40515SOL    HW223385   5.753   4.039  10.795
40516SOL     OW23386   9.111   1.954   1.300
40516SOL    HW123387   9.108   1.873   1.250
40516SOL    HW223388   9.134   1.927   1.389
40517SOL     OW23389   8.100   0.600  14.688
40517SOL    HW123390   8.133   0.688  14.672
40517SOL    HW223391   8.098   0.559  14.602
40518SOL     OW23392   8.325   6.332   1.929
40518SOL    HW123393   8.270   6.340   2.007
40518SOL    HW223394   8.415   6.337   1.963
40519SOL     OW23395   7.947   8.256   6.231
40519SOL    HW123396   8.020   8.195   6.246
40519SOL    HW223397   7.906   8.225   6.150
40520SOL     OW23398   7.983   6.543   0.243
40520SOL    HW123399   8.049   6.600   0.203
40520SOL    HW223400   8.026   6.458   0.250
40521SOL     OW23401   2.898   5.835  13.277
40521SOL    HW123402   2.803   5.845  13.287
40521SOL    HW223403   2.908   5.784  13.197
40522SOL     OW23404   8.151  11.460   5.215
40522SOL    HW123405   8.097  11.466   5.294
40522SOL    HW223406   8.129  11.376   5.176
40523SOL     OW23407   6.294  13.485   9.368
40523SOL    HW123408   6.359  13.477   9.438
40523SOL    HW223409   6.210  13.490   9.413
40524SOL     OW23410   4.582  13.583   0.587
40524SOL    HW123411   4.605  13.565   0.496
40524SOL    HW223412   4.648  13.646   0.616
40525SOL     OW23413  13.077   7.667   9.822
40525SOL    HW123414  13.137   7.707   9.885
40525SOL    HW223415  12.991   7.704   9.842
40526SOL     OW23416   2.297  10.360   9.839
40526SOL    HW123417   2.313  10.447   9.803
40526SOL    HW223418   2.264  10.309   9.765
40527SOL     OW23419  12.047   4.619  14.638
40527SOL    HW123420  12.008   4.699  14.603
40527SOL    HW223421  12.088   4.577  14.562
40528SOL     OW23422   1.665   5.932   1.630
40528SOL    HW123423   1.738   5.871   1.638
40528SOL    HW223424   1.593   5.879   1.596
40529SOL     OW23425   4.372  14.642   5.916
40529SOL    HW123426   4.342  14.584   5.987
40529SOL    HW223427   4.367  14.730   5.953
40530SOL     OW23428   9.094   7.547   0.692
40530SOL    HW123429   9.118   7.610   0.624
40530SOL    HW223430   9.136   7.465   0.666
40531SOL     OW23431   9.446   2.125  10.421
40531SOL    HW123432   9.355   2.094  10.428
40531SOL    HW223433   9.440   2.206  10.370
40532SOL     OW23434   9.050  13.345   5.281
40532SOL    HW123435   9.007  13.420   5.322
40532SOL    HW223436   8.990  13.318   5.212
40533SOL     OW23437  10.859   2.644  14.502
40533SOL    HW123438  10.935   2.585  14.497
40533SOL    HW223439  10.851   2.665  14.595
40534SOL     OW23440   9.755   3.206   6.409
40534SOL    HW123441   9.782   3.296   6.388
40534SOL    HW223442   9.837   3.156   6.410
40535SOL     OW23443   9.531   1.697  10.174
40535SOL    HW123444   9.517   1.773  10.230
40535SOL    HW223445   9.613   1.716  10.128
40536SOL     OW23446  10.677   3.887  14.666
40536SOL    HW123447  10.765   3.915  14.690
40536SOL    HW223448  10.622   3.909  14.741
40537SOL     OW23449  10.254   4.613   6.341
40537SOL    HW123450  10.266   4.617   6.436
40537SOL    HW223451  10.164   4.583   6.330
40538SOL     OW23452  13.633   9.000   0.013
40538SOL    HW123453  13.651   9.059   0.086
40538SOL    HW223454  13.696   8.929   0.023
40539SOL     OW23455   8.362   7.073  12.428
40539SOL    HW123456   8.363   7.138  12.358
40539SOL    HW223457   8.321   7.118  12.502
40540SOL     OW23458   5.592   1.361   5.325
40540SOL    HW123459   5.505   1.393   5.301
40540SOL    HW223460   5.646   1.440   5.329
40541SOL     OW23461   6.448   6.972   1.109
40541SOL    HW123462   6.542   6.964   1.093
40541SOL    HW223463   6.409   6.963   1.022
40542SOL     OW23464   5.311   3.631   9.113
40542SOL    HW123465   5.220   3.609   9.093
40542SOL    HW223466   5.304   3.706   9.173
40543SOL     OW23467   8.888   1.952   2.425
40543SOL    HW123468   8.866   1.988   2.511
40543SOL    HW223469   8.850   2.014   2.362
40544SOL     OW23470   8.574   0.672   2.406
40544SOL    HW123471   8.617   0.753   2.378
40544SOL    HW223472   8.598   0.663   2.498
40545SOL     OW23473  11.576   0.745   4.868
40545SOL    HW123474  11.586   0.721   4.960
40545SOL    HW223475  11.490   0.710   4.844
40546SOL     OW23476   6.567   6.287   3.192
40546SOL    HW123477   6.507   6.348   3.236
40546SOL    HW223478   6.654   6.322   3.210
40547SOL     OW23479  12.042   6.333   4.578
40547SOL    HW123480  12.007   6.248   4.548
40547SOL    HW223481  12.107   6.310   4.644
40548SOL     OW23482  11.737  11.261  11.812
40548SOL    HW123483  11.664  11.323  11.800
40548SOL    HW223484  11.704  11.199  11.877
40549SOL     OW23485   3.644   9.532  13.161
40549SOL    HW123486   3.700   9.609  13.167
40549SOL    HW223487   3.592   9.546  13.081
40550SOL     OW23488   3.001   9.310   2.784
40550SOL    HW123489   2.955   9.227   2.795
40550SOL    HW223490   2.955   9.353   2.712
40551SOL     OW23491  11.756   4.033   8.873
40551SOL    HW123492  11.765   4.010   8.966
40551SOL    HW223493  11.705   3.961   8.836
40552SOL     OW23494   3.496   5.048   0.988
40552SOL    HW123495   3.423   5.108   1.000
40552SOL    HW223496   3.461   4.962   1.008
40553SOL     OW23497   0.894   6.904   8.155
40553SOL    HW123498   0.958   6.910   8.226
40553SOL    HW223499   0.930   6.959   8.085
40554SOL     OW23500   5.079   6.619  11.591
40554SOL    HW123501   5.000   6.570  11.567
40554SOL    HW223502   5.096   6.675  11.515
40555SOL     OW23503   4.405   4.965  10.273
40555SOL    HW123504   4.475   4.907  10.305
40555SOL    HW223505   4.374   4.922  10.193
40556SOL     OW23506   2.271  13.990   0.215
40556SOL    HW123507   2.327  14.016   0.141
40556SOL    HW223508   2.199  13.941   0.175
40557SOL     OW23509   8.316   4.795   3.938
40557SOL    HW123510   8.347   4.706   3.923
40557SOL    HW223511   8.230   4.797   3.897
40558SOL     OW23512   4.240   1.908   9.172
40558SOL    HW123513   4.253   1.994   9.211
40558SOL    HW223514   4.295   1.908   9.094
40559SOL     OW23515   7.158   0.835   0.468
40559SOL    HW123516   7.248   0.866   0.457
40559SOL    HW223517   7.128   0.874   0.550
40560SOL     OW23518   9.632   5.206   9.944
40560SOL    HW123519   9.724   5.227   9.931
40560SOL    HW223520   9.632   5.123   9.992
40561SOL     OW23521   3.072   4.984   3.003
40561SOL    HW123522   2.980   4.987   2.977
40561SOL    HW223523   3.077   4.911   3.065
40562SOL     OW23524   3.507   1.469   0.765
40562SOL    HW123525   3.533   1.558   0.789
40562SOL    HW223526   3.417   1.461   0.797
40563SOL     OW23527  11.450   8.690  12.668
40563SOL    HW123528  11.528   8.737  12.641
40563SOL    HW223529  11.378   8.750  12.649
40564SOL     OW23530  11.267   7.119   1.870
40564SOL    HW123531  11.324   7.042   1.868
40564SOL    HW223532  11.268   7.153   1.781
40565SOL     OW23533  11.764   1.409   1.962
40565SOL    HW123534  11.836   1.349   1.980
40565SOL    HW223535  11.716   1.414   2.044
40566SOL     OW23536   1.453   7.771   2.035
40566SOL    HW123537   1.489   7.736   2.117
40566SOL    HW223538   1.425   7.694   1.986
40567SOL     OW23539   9.540   7.846  13.610
40567SOL    HW123540   9.557   7.862  13.703
40567SOL    HW223541   9.446   7.864  13.599
40568SOL     OW23542  10.247   6.439   0.577
40568SOL    HW123543  10.332   6.460   0.616
40568SOL    HW223544  10.193   6.411   0.651
40569SOL     OW23545  13.760  10.281  13.092
40569SOL    HW123546  13.689  10.222  13.116
40569SOL    HW223547  13.729  10.368  13.117
40570SOL     OW23548   4.443   3.969  11.914
40570SOL    HW123549   4.479   3.967  12.002
40570SOL    HW223550   4.474   4.051  11.877
40571SOL     OW23551  13.619  13.223  13.049
40571SOL    HW123552  13.579  13.249  13.132
40571SOL    HW223553  13.549  13.177  13.003
40572SOL     OW23554   9.629   7.885   6.132
40572SOL    HW123555   9.668   7.941   6.200
40572SOL    HW223556   9.676   7.908   6.052
40573SOL     OW23557   0.417  14.415   3.808
40573SOL    HW123558   0.408  14.507   3.785
40573SOL    HW223559   0.409  14.368   3.725
40574SOL     OW23560   4.920   5.592  13.211
40574SOL    HW123561   4.910   5.505  13.172
40574SOL    HW223562   4.963   5.644  13.143
40575SOL     OW23563   1.246   7.973  13.879
40575SOL    HW123564   1.209   7.990  13.965
40575SOL    HW223565   1.214   7.886  13.856
40576SOL     OW23566   7.763   2.111   1.251
40576SOL    HW123567   7.694   2.174   1.273
40576SOL    HW223568   7.781   2.066   1.334
40577SOL     OW23569   4.330   5.130  13.079
40577SOL    HW123570   4.361   5.112  12.990
40577SOL    HW223571   4.381   5.206  13.108
40578SOL     OW23572   3.369   6.604   3.461
40578SOL    HW123573   3.379   6.558   3.544
40578SOL    HW223574   3.317   6.681   3.482
40579SOL     OW23575   6.489   7.321   3.348
40579SOL    HW123576   6.454   7.294   3.264
40579SOL    HW223577   6.569   7.270   3.359
40580SOL     OW23578   9.740   9.073   9.477
40580SOL    HW123579   9.752   9.144   9.413
40580SOL    HW223580   9.823   9.026   9.477
40581SOL     OW23581   6.846   2.597  14.288
40581SOL    HW123582   6.908   2.578  14.359
40581SOL    HW223583   6.819   2.511  14.256
40582SOL     OW23584   5.881   6.607   5.808
40582SOL    HW123585   5.825   6.636   5.736
40582SOL    HW223586   5.917   6.523   5.779
40583SOL     OW23587   6.857   4.501   4.584
40583SOL    HW123588   6.878   4.411   4.609
40583SOL    HW223589   6.905   4.516   4.502
40584SOL     OW23590  11.296   3.914   0.727
40584SOL    HW123591  11.333   3.933   0.813
40584SOL    HW223592  11.309   3.820   0.716
40585SOL     OW23593  10.945   4.675   5.414
40585SOL    HW123594  10.987   4.761   5.411
40585SOL    HW223595  10.875   4.680   5.348
40586SOL     OW23596   8.252   8.138  13.918
40586SOL    HW123597   8.284   8.182  13.997
40586SOL    HW223598   8.292   8.051  13.921
40587SOL     OW23599  14.502  14.740   5.362
40587SOL    HW123600  14.563  14.666   5.363
40587SOL    HW223601  14.507  14.777   5.450
40588SOL     OW23602   1.832  13.633   6.436
40588SOL    HW123603   1.809  13.549   6.396
40588SOL    HW223604   1.871  13.684   6.365
40589SOL     OW23605   5.893   4.038   8.722
40589SOL    HW123606   5.826   4.026   8.655
40589SOL    HW223607   5.905   3.951   8.760
40590SOL     OW23608   0.035   2.539   9.706
40590SOL    HW123609   0.072   2.613   9.658
40590SOL    HW223610  14.857   2.494   9.643
40591SOL     OW23611  10.313   9.394   6.235
40591SOL    HW123612  10.256   9.402   6.158
40591SOL    HW223613  10.296   9.306   6.268
40592SOL     OW23614   4.608   8.976   8.557
40592SOL    HW123615   4.693   9.006   8.525
40592SOL    HW223616   4.599   8.887   8.523
40593SOL     OW23617   1.866   8.569   2.546
40593SOL    HW123618   1.789   8.527   2.508
40593SOL    HW223619   1.898   8.507   2.611
40594SOL     OW23620  13.333   0.721   9.488
40594SOL    HW123621  13.279   0.799   9.491
40594SOL    HW223622  13.278   0.653   9.449
40595SOL     OW23623  14.644   6.449   8.807
40595SOL    HW123624  14.680   6.397   8.879
40595SOL    HW223625  14.698   6.426   8.731
40596SOL     OW23626   1.509   2.611  11.558
40596SOL    HW123627   1.519   2.672  11.631
40596SOL    HW223628   1.510   2.524  11.599
40597SOL     OW23629   9.251   7.075  13.201
40597SOL    HW123630   9.255   7.164  13.166
40597SOL    HW223631   9.242   7.019  13.123
40598SOL     OW23632   9.255   0.318   9.170
40598SOL    HW123633   9.223   0.407   9.155
40598SOL    HW223634   9.316   0.326   9.244
40599SOL     OW23635  13.750  14.607  12.035
40599SOL    HW123636  13.746  14.513  12.016
40599SOL    HW223637  13.826  14.638  11.986
40600SOL     OW23638  13.953   0.384   0.321
40600SOL    HW123639  13.864   0.349   0.333
40600SOL    HW223640  14.010   0.321   0.364
40601SOL     OW23641   0.754  10.538   3.243
40601SOL    HW123642   0.742  10.600   3.315
40601SOL    HW223643   0.685  10.472   3.256
40602SOL     OW23644   6.267   6.483  10.350
40602SOL    HW123645   6.219   6.458  10.271
40602SOL    HW223646   6.199   6.505  10.414
40603SOL     OW23647   4.455   5.169   6.367
40603SOL    HW123648   4.482   5.253   6.404
40603SOL    HW223649   4.469   5.106   6.437
40604SOL     OW23650  12.159   4.489   5.157
40604SOL    HW123651  12.128   4.505   5.246
40604SOL    HW223652  12.148   4.574   5.113
40605SOL     OW23653   9.451  13.745  13.282
40605SOL    HW123654   9.385  13.680  13.257
40605SOL    HW223655   9.415  13.788  13.359
40606SOL     OW23656   5.561   3.553   6.129
40606SOL    HW123657   5.632   3.611   6.157
40606SOL    HW223658   5.501   3.549   6.204
40607SOL     OW23659  10.809   0.271  13.821
40607SOL    HW123660  10.874   0.291  13.889
40607SOL    HW223661  10.858   0.275  13.739
40608SOL     OW23662   6.158   8.464   2.016
40608SOL    HW123663   6.219   8.507   1.956
40608SOL    HW223664   6.121   8.534   2.069
40609SOL     OW23665  14.579  12.985  10.749
40609SOL    HW123666  14.612  13.074  10.756
40609SOL    HW223667  14.502  12.992  10.692
40610SOL     OW23668  13.925   7.023   8.439
40610SOL    HW123669  13.925   7.087   8.509
40610SOL    HW223670  13.943   6.939   8.482
40611SOL     OW23671   4.584  14.765   5.788
40611SOL    HW123672   4.640  14.827   5.835
40611SOL    HW223673   4.524  14.732   5.855
40612SOL     OW23674  11.063  12.897   9.368
40612SOL    HW123675  11.024  12.925   9.451
40612SOL    HW223676  11.038  12.965   9.306
40613SOL     OW23677   0.971   2.551  11.606
40613SOL    HW123678   1.013   2.529  11.523
40613SOL    HW223679   0.943   2.642  11.596
40614SOL     OW23680   5.087   6.086   9.676
40614SOL    HW123681   5.132   6.036   9.608
40614SOL    HW223682   5.000   6.103   9.640
40615SOL     OW23683  11.456  11.904   0.436
40615SOL    HW123684  11.519  11.918   0.366
40615SOL    HW223685  11.435  11.810   0.431
40616SOL     OW23686   2.679   6.740  11.114
40616SOL    HW123687   2.713   6.811  11.169
40616SOL    HW223688   2.753   6.715  11.059
40617SOL     OW23689   5.025   0.275   5.416
40617SOL    HW123690   5.078   0.304   5.490
40617SOL    HW223691   5.034   0.344   5.351
40618SOL     OW23692   0.355   0.346   9.827
40618SOL    HW123693   0.272   0.309   9.799
40618SOL    HW223694   0.382   0.402   9.754
40619SOL     OW23695  10.116   3.714   1.326
40619SOL    HW123696  10.039   3.770   1.317
40619SOL    HW223697  10.144   3.697   1.236
40620SOL     OW23698   6.860   0.810   4.992
40620SOL    HW123699   6.824   0.846   5.073
40620SOL    HW223700   6.821   0.863   4.923
40621SOL     OW23701   3.416  14.248  14.524
40621SOL    HW123702   3.412  14.159  14.489
40621SOL    HW223703   3.327  14.266  14.553
40622SOL     OW23704   0.002   9.198   3.608
40622SOL    HW123705  14.794   9.158   3.631
40622SOL    HW223706  14.855   9.283   3.570
40623SOL     OW23707  11.147   7.112   5.365
40623SOL    HW123708  11.194   7.134   5.285
40623SOL    HW223709  11.092   7.188   5.383
40624SOL     OW23710   3.664   0.396   0.746
40624SOL    HW123711   3.642   0.466   0.684
40624SOL    HW223712   3.758   0.405   0.761
40625SOL     OW23713   5.032   8.672   4.409
40625SOL    HW123714   5.103   8.728   4.379
40625SOL    HW223715   5.031   8.683   4.504
40626SOL     OW23716   5.260  12.529   4.533
40626SOL    HW123717   5.261  12.624   4.544
40626SOL    HW223718   5.338  12.498   4.578
40627SOL     OW23719   7.048  10.560  13.797
40627SOL    HW123720   7.136  10.585  13.769
40627SOL    HW223721   7.046  10.582  13.890
40628SOL     OW23722  12.117   2.519   1.084
40628SOL    HW123723  12.168   2.582   1.134
40628SOL    HW223724  12.040   2.501   1.138
40629SOL     OW23725  11.770  12.855  13.291
40629SOL    HW123726  11.789  12.945  13.263
40629SOL    HW223727  11.706  12.824  13.227
40630SOL     OW23728   8.926   9.358   6.518
40630SOL    HW123729   8.927   9.282   6.459
40630SOL    HW223730   8.892   9.429   6.464
40631SOL     OW23731   3.743   3.993   8.127
40631SOL    HW123732   3.758   4.052   8.201
40631SOL    HW223733   3.676   4.037   8.075
40632SOL     OW23734   1.635   4.277  14.113
40632SOL    HW123735   1.581   4.201  14.135
40632SOL    HW223736   1.676   4.255  14.030
40633SOL     OW23737   5.362   4.014  14.453
40633SOL    HW123738   5.282   4.021  14.505
40633SOL    HW223739   5.433   4.014  14.517
40634SOL     OW23740   4.211   6.891   2.137
40634SOL    HW123741   4.217   6.891   2.233
40634SOL    HW223742   4.120   6.868   2.119
40635SOL     OW23743   1.123   1.628  10.409
40635SOL    HW123744   1.101   1.676  10.489
40635SOL    HW223745   1.113   1.692  10.339
40636SOL     OW23746  14.412   8.605   4.530
40636SOL    HW123747  14.405   8.621   4.436
40636SOL    HW223748  14.461   8.680   4.563
40637SOL     OW23749   1.043  13.784   1.987
40637SOL    HW123750   1.046  13.739   1.903
40637SOL    HW223751   1.128  13.828   1.994
40638SOL     OW23752   8.717   8.492  10.536
40638SOL    HW123753   8.657   8.473  10.608
40638SOL    HW223754   8.720   8.587  10.531
40639SOL     OW23755  12.146   5.227   4.989
40639SOL    HW123756  12.217   5.187   5.039
40639SOL    HW223757  12.082   5.254   5.056
40640SOL     OW23758   1.947   1.600   1.785
40640SOL    HW123759   1.908   1.657   1.852
40640SOL    HW223760   1.872   1.560   1.741
40641SOL     OW23761   2.906   3.783   3.239
40641SOL    HW123762   2.958   3.857   3.207
40641SOL    HW223763   2.950   3.757   3.320
40642SOL     OW23764  11.493   6.984   7.783
40642SOL    HW123765  11.565   6.925   7.805
40642SOL    HW223766  11.476   7.033   7.863
40643SOL     OW23767   3.437  10.967   5.289
40643SOL    HW123768   3.510  10.911   5.263
40643SOL    HW223769   3.391  10.987   5.207
40644SOL     OW23770   5.170   1.239  11.272
40644SOL    HW123771   5.218   1.223  11.353
40644SOL    HW223772   5.201   1.325  11.243
40645SOL     OW23773   4.201   6.370  10.731
40645SOL    HW123774   4.201   6.363  10.636
40645SOL    HW223775   4.232   6.285  10.762
40646SOL     OW23776  14.550  12.895   1.071
40646SOL    HW123777  14.493  12.841   1.126
40646SOL    HW223778  14.520  12.878   0.982
40647SOL     OW23779   1.603  10.371   0.456
40647SOL    HW123780   1.599  10.432   0.529
40647SOL    HW223781   1.692  10.336   0.459
40648SOL     OW23782  12.713  12.196   7.033
40648SOL    HW123783  12.720  12.267   7.097
40648SOL    HW223784  12.740  12.118   7.081
40649SOL     OW23785   6.993  10.061  13.444
40649SOL    HW123786   7.015   9.997  13.376
40649SOL    HW223787   6.897  10.064  13.444
40650SOL     OW23788  11.646  10.146   1.788
40650SOL    HW123789  11.703  10.084   1.834
40650SOL    HW223790  11.566  10.147   1.840
40651SOL     OW23791   9.585   5.761  10.751
40651SOL    HW123792   9.553   5.825  10.687
40651SOL    HW223793   9.588   5.679  10.703
40652SOL     OW23794   1.598   4.168   6.647
40652SOL    HW123795   1.650   4.089   6.637
40652SOL    HW223796   1.540   4.169   6.571
40653SOL     OW23797   9.784  10.140  13.082
40653SOL    HW123798   9.705  10.164  13.034
40653SOL    HW223799   9.768  10.168  13.172
40654SOL     OW23800   2.458   1.935   3.682
40654SOL    HW123801   2.529   1.885   3.721
40654SOL    HW223802   2.455   1.906   3.591
40655SOL     OW23803  11.327  11.176   1.117
40655SOL    HW123804  11.296  11.236   1.049
40655SOL    HW223805  11.414  11.148   1.087
40656SOL     OW23806  13.205   5.061   2.968
40656SOL    HW123807  13.254   5.104   2.898
40656SOL    HW223808  13.190   5.131   3.033
40657SOL     OW23809  13.041   6.808  11.112
40657SOL    HW123810  13.025   6.873  11.044
40657SOL    HW223811  12.956   6.796  11.155
40658SOL     OW23812   4.226  11.609   1.455
40658SOL    HW123813   4.178  11.536   1.415
40658SOL    HW223814   4.184  11.687   1.420
40659SOL     OW23815   1.874   8.481  12.613
40659SOL    HW123816   1.941   8.447  12.554
40659SOL    HW223817   1.922   8.511  12.690
40660SOL     OW23818   0.801   9.943   8.004
40660SOL    HW123819   0.895   9.937   8.017
40660SOL    HW223820   0.766   9.968   8.090
40661SOL     OW23821   9.360   2.622   0.875
40661SOL    HW123822   9.309   2.559   0.925
40661SOL    HW223823   9.325   2.707   0.901
40662SOL     OW23824  14.864   4.816  11.739
40662SOL    HW123825  14.854   4.859  11.654
40662SOL    HW223826  14.830   4.728  11.724
40663SOL     OW23827   9.221   6.197  13.189
40663SOL    HW123828   9.177   6.144  13.122
40663SOL    HW223829   9.252   6.133  13.253
40664SOL     OW23830   8.042   9.706  11.439
40664SOL    HW123831   8.116   9.759  11.467
40664SOL    HW223832   8.043   9.631  11.498
40665SOL     OW23833   1.507   0.857   9.746
40665SOL    HW123834   1.431   0.819   9.701
40665SOL    HW223835   1.579   0.799   9.725
40666SOL     OW23836   9.516   0.240   5.539
40666SOL    HW123837   9.582   0.221   5.605
40666SOL    HW223838   9.550   0.318   5.494
40667SOL     OW23839   0.124  12.600   1.498
40667SOL    HW123840   0.204  12.649   1.518
40667SOL    HW223841   0.058  12.668   1.486
40668SOL     OW23842  12.669  14.717  14.441
40668SOL    HW123843  12.621  14.647  14.397
40668SOL    HW223844  12.603  14.784  14.459
40669SOL     OW23845  12.414   7.194   8.749
40669SOL    HW123846  12.411   7.214   8.655
40669SOL    HW223847  12.434   7.100   8.753
40670SOL     OW23848   3.924   7.141  10.230
40670SOL    HW123849   3.932   7.234  10.209
40670SOL    HW223850   3.926   7.138  10.326
40671SOL     OW23851   2.993   4.716   0.567
40671SOL    HW123852   3.032   4.762   0.642
40671SOL    HW223853   2.916   4.673   0.602
40672SOL     OW23854   8.918   6.862  11.976
40672SOL    HW123855   8.955   6.779  11.946
40672SOL    HW223856   8.825   6.856  11.955
40673SOL     OW23857  13.072  11.917   1.345
40673SOL    HW123858  13.003  11.855   1.320
40673SOL    HW223859  13.150  11.884   1.301
40674SOL     OW23860   1.679  13.962  11.408
40674SOL    HW123861   1.746  13.897  11.388
40674SOL    HW223862   1.683  13.972  11.503
40675SOL     OW23863   6.492  12.159  13.965
40675SOL    HW123864   6.532  12.115  13.891
40675SOL    HW223865   6.483  12.091  14.032
40676SOL     OW23866   3.949   0.777   2.989
40676SOL    HW123867   3.876   0.759   3.048
40676SOL    HW223868   4.028   0.759   3.041
40677SOL     OW23869   4.000   8.042   7.940
40677SOL    HW123870   4.066   8.079   7.998
40677SOL    HW223871   4.033   7.955   7.918
40678SOL     OW23872   0.791   2.490  11.341
40678SOL    HW123873   0.736   2.431  11.392
40678SOL    HW223874   0.747   2.575  11.347
40679SOL     OW23875  14.345  13.910  14.505
40679SOL    HW123876  14.344  13.856  14.426
40679SOL    HW223877  14.434  13.899  14.539
40680SOL     OW23878   1.941   0.841   0.621
40680SOL    HW123879   1.993   0.865   0.698
40680SOL    HW223880   1.970   0.753   0.599
40681SOL     OW23881   2.470   6.982   0.275
40681SOL    HW123882   2.435   6.984   0.186
40681SOL    HW223883   2.553   6.936   0.267
40682SOL     OW23884   1.894  11.312   4.811
40682SOL    HW123885   1.831  11.261   4.862
40682SOL    HW223886   1.869  11.298   4.720
40683SOL     OW23887   6.327   6.843   0.242
40683SOL    HW123888   6.344   6.749   0.253
40683SOL    HW223889   6.245   6.847   0.193
40684SOL     OW23890  13.574   6.578   4.129
40684SOL    HW123891  13.557   6.529   4.209
40684SOL    HW223892  13.523   6.533   4.062
40685SOL     OW23893   0.402   6.453   7.910
40685SOL    HW123894   0.432   6.441   7.819
40685SOL    HW223895   0.481   6.441   7.963
40686SOL     OW23896   6.810  10.971  10.851
40686SOL    HW123897   6.764  10.914  10.914
40686SOL    HW223898   6.842  11.044  10.904
40687SOL     OW23899   0.290   9.713  11.227
40687SOL    HW123900   0.369   9.659  11.222
40687SOL    HW223901   0.266   9.713  11.320
40688SOL     OW23902   4.706   3.575  13.387
40688SOL    HW123903   4.643   3.505  13.400
40688SOL    HW223904   4.785   3.544  13.432
40689SOL     OW23905  13.423  10.875   8.562
40689SOL    HW123906  13.445  10.955   8.515
40689SOL    HW223907  13.502  10.821   8.554
40690SOL     OW23908   8.650  11.198   5.008
40690SOL    HW123909   8.648  11.131   4.940
40690SOL    HW223910   8.558  11.214   5.029
40691SOL     OW23911   9.338   6.767   8.897
40691SOL    HW123912   9.316   6.807   8.981
40691SOL    HW223913   9.253   6.740   8.861
40692SOL     OW23914   7.861  13.559  14.798
40692SOL    HW123915   7.846  13.599   0.007
40692SOL    HW223916   7.925  13.616  14.755
40693SOL     OW23917   4.332   5.665   6.498
40693SOL    HW123918   4.422   5.694   6.484
40693SOL    HW223919   4.334   5.617   6.580
40694SOL     OW23920   3.911   8.751  10.900
40694SOL    HW123921   3.831   8.786  10.861
40694SOL    HW223922   3.977   8.818  10.884
40695SOL     OW23923  12.567  13.054   8.453
40695SOL    HW123924  12.652  13.022   8.484
40695SOL    HW223925  12.517  12.974   8.435
40696SOL     OW23926   2.222  13.412   7.532
40696SOL    HW123927   2.234  13.456   7.447
40696SOL    HW223928   2.167  13.473   7.582
40697SOL     OW23929  10.930   3.393  11.392
40697SOL    HW123930  10.876   3.422  11.318
40697SOL    HW223931  10.994   3.464  11.403
40698SOL     OW23932  14.738   6.336  12.984
40698SOL    HW123933  14.781   6.324  13.068
40698SOL    HW223934  14.678   6.261  12.977
40699SOL     OW23935   8.726   8.683  13.926
40699SOL    HW123936   8.751   8.619  13.859
40699SOL    HW223937   8.758   8.767  13.892
40700SOL     OW23938   2.655   7.390   6.597
40700SOL    HW123939   2.695   7.329   6.659
40700SOL    HW223940   2.706   7.380   6.517
40701SOL     OW23941  11.646  13.771  10.339
40701SOL    HW123942  11.685  13.843  10.289
40701SOL    HW223943  11.654  13.695  10.282
40702SOL     OW23944   4.398   8.939  13.681
40702SOL    HW123945   4.486   8.964  13.708
40702SOL    HW223946   4.345   9.018  13.695
40703SOL     OW23947  11.596   8.638   6.561
40703SOL    HW123948  11.638   8.563   6.518
40703SOL    HW223949  11.504   8.613   6.566
40704SOL     OW23950   1.042   8.064  13.223
40704SOL    HW123951   0.976   7.998  13.244
40704SOL    HW223952   0.992   8.140  13.195
40705SOL     OW23953  10.023   5.042   0.555
40705SOL    HW123954  10.116   5.050   0.536
40705SOL    HW223955  10.011   4.950   0.580
40706SOL     OW23956  11.449   6.040   1.616
40706SOL    HW123957  11.433   5.975   1.548
40706SOL    HW223958  11.362   6.063   1.649
40707SOL     OW23959  13.165   0.488  13.263
40707SOL    HW123960  13.160   0.450  13.351
40707SOL    HW223961  13.094   0.552  13.260
40708SOL     OW23962  11.848   3.429  10.166
40708SOL    HW123963  11.768   3.453  10.213
40708SOL    HW223964  11.820   3.419  10.075
40709SOL     OW23965   0.130   5.238   2.707
40709SOL    HW123966   0.123   5.333   2.715
40709SOL    HW223967   0.220   5.219   2.731
40710SOL     OW23968   7.274  10.031   8.552
40710SOL    HW123969   7.293   9.990   8.636
40710SOL    HW223970   7.251  10.121   8.573
40711SOL     OW23971  13.610   6.026   4.256
40711SOL    HW123972  13.671   6.095   4.230
40711SOL    HW223973  13.618   5.960   4.188
40712SOL     OW23974  13.042   2.288  10.195
40712SOL    HW123975  13.110   2.220  10.189
40712SOL    HW223976  13.053   2.340  10.116
40713SOL     OW23977  11.974   0.919  10.660
40713SOL    HW123978  12.068   0.937  10.662
40713SOL    HW223979  11.934   1.003  10.681
40714SOL     OW23980   5.635  12.218   8.157
40714SOL    HW123981   5.580  12.229   8.235
40714SOL    HW223982   5.587  12.156   8.102
40715SOL     OW23983  10.856  11.962  10.789
40715SOL    HW123984  10.869  11.983  10.696
40715SOL    HW223985  10.933  11.910  10.812
40716SOL     OW23986   5.876  12.148   0.636
40716SOL    HW123987   5.814  12.084   0.602
40716SOL    HW223988   5.910  12.109   0.716
40717SOL     OW23989   8.313  12.959  11.948
40717SOL    HW123990   8.226  12.988  11.975
40717SOL    HW223991   8.310  12.863  11.956
40718SOL     OW23992  12.853  10.690   1.641
40718SOL    HW123993  12.929  10.744   1.619
40718SOL    HW223994  12.841  10.633   1.566
40719SOL     OW23995  11.444   6.282   3.526
40719SOL    HW123996  11.527   6.326   3.543
40719SOL    HW223997  11.466   6.189   3.522
40720SOL     OW23998  14.447   0.461   1.727
40720SOL    HW123999  14.357   0.444   1.700
40720SOL    HW224000  14.495   0.383   1.700
40721SOL     OW24001   5.299  11.899   8.457
40721SOL    HW124002   5.356  11.877   8.382
40721SOL    HW224003   5.359  11.934   8.523
40722SOL     OW24004  14.158   0.128  14.147
40722SOL    HW124005  14.186   0.057  14.205
40722SOL    HW224006  14.146   0.203  14.204
40723SOL     OW24007   9.993   4.872   3.374
40723SOL    HW124008   9.975   4.781   3.351
40723SOL    HW224009   9.914   4.900   3.422
40724SOL     OW24010   3.771  14.541   5.788
40724SOL    HW124011   3.864  14.554   5.770
40724SOL    HW224012   3.727  14.608   5.734
40725SOL     OW24013  12.882  11.928   7.945
40725SOL    HW124014  12.905  12.003   7.889
40725SOL    HW224015  12.878  11.854   7.885
40726SOL     OW24016  11.972   8.091  11.822
40726SOL    HW124017  12.024   8.071  11.744
40726SOL    HW224018  11.986   8.184  11.837
40727SOL     OW24019   7.103   5.276   1.242
40727SOL    HW124020   7.155   5.297   1.165
40727SOL    HW224021   7.012   5.276   1.211
40728SOL     OW24022  10.957   7.310   9.067
40728SOL    HW124023  10.961   7.245   9.137
40728SOL    HW224024  10.931   7.261   8.989
40729SOL     OW24025   4.962   0.336  14.112
40729SOL    HW124026   4.893   0.334  14.046
40729SOL    HW224027   4.945   0.258  14.166
40730SOL     OW24028   5.918  13.497   9.714
40730SOL    HW124029   5.828  13.495   9.747
40730SOL    HW224030   5.960  13.568   9.763
40731SOL     OW24031  13.949   1.119  11.979
40731SOL    HW124032  14.039   1.152  11.981
40731SOL    HW224033  13.923   1.114  12.071
40732SOL     OW24034   2.726  13.059  11.218
40732SOL    HW124035   2.735  12.963  11.212
40732SOL    HW224036   2.679  13.073  11.301
40733SOL     OW24037   1.591  10.729  14.355
40733SOL    HW124038   1.529  10.657  14.349
40733SOL    HW224039   1.638  10.728  14.271
40734SOL     OW24040   6.117  11.799   5.686
40734SOL    HW124041   6.036  11.812   5.734
40734SOL    HW224042   6.180  11.857   5.729
40735SOL     OW24043  14.227   9.238   2.252
40735SOL    HW124044  14.272   9.219   2.169
40735SOL    HW224045  14.262   9.174   2.313
40736SOL     OW24046   9.566   1.522   3.212
40736SOL    HW124047   9.567   1.610   3.173
40736SOL    HW224048   9.480   1.515   3.252
40737SOL     OW24049   0.002  10.843  10.679
40737SOL    HW124050  14.862  10.933  10.707
40737SOL    HW224051  14.832  10.789  10.744
40738SOL     OW24052   6.233   0.715   4.792
40738SOL    HW124053   6.201   0.698   4.880
40738SOL    HW224054   6.185   0.793   4.763
40739SOL     OW24055   7.209   0.303   3.747
40739SOL    HW124056   7.223   0.342   3.833
40739SOL    HW224057   7.182   0.376   3.692
40740SOL     OW24058  11.634   8.251   2.742
40740SOL    HW124059  11.676   8.200   2.673
40740SOL    HW224060  11.696   8.322   2.760
40741SOL     OW24061   6.490  11.515   7.574
40741SOL    HW124062   6.497  11.533   7.668
40741SOL    HW224063   6.530  11.428   7.563
40742SOL     OW24064   3.501  11.585   1.310
40742SOL    HW124065   3.525  11.567   1.219
40742SOL    HW224066   3.460  11.672   1.307
40743SOL     OW24067   0.386   2.763   6.402
40743SOL    HW124068   0.462   2.703   6.400
40743SOL    HW224069   0.406   2.828   6.335
40744SOL     OW24070   5.861  10.341   1.693
40744SOL    HW124071   5.860  10.436   1.701
40744SOL    HW224072   5.771  10.318   1.668
40745SOL     OW24073   3.153   3.328   1.508
40745SOL    HW124074   3.068   3.318   1.551
40745SOL    HW224075   3.217   3.312   1.578
40746SOL     OW24076   8.600  12.053   5.456
40746SOL    HW124077   8.587  12.145   5.436
40746SOL    HW224078   8.593  12.009   5.371
40747SOL     OW24079   2.739   7.157   3.203
40747SOL    HW124080   2.796   7.231   3.183
40747SOL    HW224081   2.716   7.121   3.117
40748SOL     OW24082  14.199  14.747   8.127
40748SOL    HW124083  14.275  14.793   8.093
40748SOL    HW224084  14.197  14.665   8.079
40749SOL     OW24085  12.674   5.499   8.759
40749SOL    HW124086  12.609   5.563   8.727
40749SOL    HW224087  12.757   5.531   8.724
40750SOL     OW24088   8.989   2.673   1.534
40750SOL    HW124089   8.901   2.638   1.519
40750SOL    HW224090   8.976   2.749   1.590
40751SOL     OW24091   9.376   6.976   7.434
40751SOL    HW124092   9.449   6.932   7.478
40751SOL    HW224093   9.374   6.938   7.346
40752SOL     OW24094  13.201   2.877   4.754
40752SOL    HW124095  13.254   2.825   4.693
40752SOL    HW224096  13.212   2.967   4.722
40753SOL     OW24097  14.716   3.625   1.543
40753SOL    HW124098  14.687   3.602   1.455
40753SOL    HW224099  14.686   3.553   1.598
40754SOL     OW24100   1.841   5.060  10.539
40754SOL    HW124101   1.812   5.075  10.449
40754SOL    HW224102   1.768   5.092  10.592
40755SOL     OW24103   7.917   1.675  11.988
40755SOL    HW124104   7.930   1.684  11.894
40755SOL    HW224105   7.960   1.752  12.026
40756SOL     OW24106   1.211  10.761  11.448
40756SOL    HW124107   1.242  10.699  11.382
40756SOL    HW224108   1.163  10.708  11.511
40757SOL     OW24109   1.570   9.323   3.660
40757SOL    HW124110   1.514   9.252   3.628
40757SOL    HW224111   1.628   9.281   3.724
40758SOL     OW24112   6.818   9.307  11.870
40758SOL    HW124113   6.885   9.321  11.803
40758SOL    HW224114   6.743   9.272  11.823
40759SOL     OW24115  11.124   0.183  13.930
40759SOL    HW124116  11.109   0.163  14.023
40759SOL    HW224117  11.107   0.277  13.922
40760SOL     OW24118   4.025   5.035  10.697
40760SOL    HW124119   4.072   5.104  10.743
40760SOL    HW224120   4.018   4.964  10.761
40761SOL     OW24121   9.369   0.751  14.657
40761SOL    HW124122   9.428   0.713  14.592
40761SOL    HW224123   9.423   0.763  14.735
40762SOL     OW24124   6.121  12.810   9.438
40762SOL    HW124125   6.102  12.837   9.349
40762SOL    HW224126   6.110  12.889   9.491
40763SOL     OW24127   9.234   2.020   5.946
40763SOL    HW124128   9.291   1.977   6.009
40763SOL    HW224129   9.165   2.059   6.000
40764SOL     OW24130  13.945  10.668   3.830
40764SOL    HW124131  14.011  10.690   3.764
40764SOL    HW224132  13.886  10.608   3.786
40765SOL     OW24133   7.635   2.881  13.197
40765SOL    HW124134   7.646   2.942  13.270
40765SOL    HW224135   7.723   2.872  13.160
40766SOL     OW24136   4.050  14.070   4.174
40766SOL    HW124137   4.125  14.086   4.231
40766SOL    HW224138   4.012  14.157   4.158
40767SOL     OW24139  10.231   3.495  12.490
40767SOL    HW124140  10.292   3.452  12.549
40767SOL    HW224141  10.277   3.574  12.460
40768SOL     OW24142  14.427   7.366  14.107
40768SOL    HW124143  14.470   7.425  14.169
40768SOL    HW224144  14.459   7.393  14.021
40769SOL     OW24145  13.743   0.564  12.470
40769SOL    HW124146  13.677   0.503  12.440
40769SOL    HW224147  13.759   0.621  12.395
40770SOL     OW24148   2.278  13.862   4.146
40770SOL    HW124149   2.219  13.909   4.087
40770SOL    HW224150   2.244  13.772   4.147
40771SOL     OW24151  13.594   8.856   8.776
40771SOL    HW124152  13.530   8.845   8.705
40771SOL    HW224153  13.540   8.865   8.855
40772SOL     OW24154   1.587   5.228   5.082
40772SOL    HW124155   1.521   5.229   5.150
40772SOL    HW224156   1.661   5.181   5.121
40773SOL     OW24157   0.477  13.716   4.545
40773SOL    HW124158   0.433  13.767   4.613
40773SOL    HW224159   0.515  13.642   4.592
40774SOL     OW24160   3.485  14.213   3.802
40774SOL    HW124161   3.391  14.201   3.817
40774SOL    HW224162   3.489  14.273   3.727
40775SOL     OW24163   6.338   3.401   4.227
40775SOL    HW124164   6.264   3.461   4.230
40775SOL    HW224165   6.403   3.446   4.173
40776SOL     OW24166   2.418   8.392   2.945
40776SOL    HW124167   2.343   8.333   2.934
40776SOL    HW224168   2.417   8.448   2.867
40777SOL     OW24169   1.469  14.744  14.513
40777SOL    HW124170   1.514  14.660  14.508
40777SOL    HW224171   1.460  14.772  14.422
40778SOL     OW24172  12.159   0.903   8.935
40778SOL    HW124173  12.166   0.923   9.028
40778SOL    HW224174  12.250   0.897   8.905
40779SOL     OW24175   7.457   3.995   3.750
40779SOL    HW124176   7.512   3.998   3.829
40779SOL    HW224177   7.406   4.075   3.753
40780SOL     OW24178  11.118   0.025  11.581
40780SOL    HW124179  11.137   0.093  11.645
40780SOL    HW224180  11.041  14.856  11.616
40781SOL     OW24181   3.881   4.957  13.250
40781SOL    HW124182   3.866   5.051  13.255
40781SOL    HW224183   3.933   4.945  13.172
40782SOL     OW24184  11.909   9.260  10.249
40782SOL    HW124185  11.835   9.223  10.201
40782SOL    HW224186  11.883   9.350  10.268
40783SOL     OW24187   2.498   0.135  10.030
40783SOL    HW124188   2.520   0.101   9.944
40783SOL    HW224189   2.405   0.158  10.023
40784SOL     OW24190  13.436  13.786  11.382
40784SOL    HW124191  13.361  13.728  11.379
40784SOL    HW224192  13.407  13.866  11.339
40785SOL     OW24193   3.790  12.827  11.398
40785SOL    HW124194   3.734  12.820  11.321
40785SOL    HW224195   3.814  12.737  11.419
40786SOL     OW24196   9.369  12.230  12.188
40786SOL    HW124197   9.360  12.162  12.122
40786SOL    HW224198   9.283  12.273  12.190
40787SOL     OW24199   1.460   5.045   3.975
40787SOL    HW124200   1.444   5.107   3.905
40787SOL    HW224201   1.493   4.966   3.931
40788SOL     OW24202   5.201   9.348   0.885
40788SOL    HW124203   5.172   9.314   0.970
40788SOL    HW224204   5.273   9.408   0.906
40789SOL     OW24205   3.785   3.100  11.885
40789SOL    HW124206   3.713   3.113  11.947
40789SOL    HW224207   3.796   3.185  11.842
40790SOL     OW24208   1.412   1.647   4.484
40790SOL    HW124209   1.317   1.634   4.477
40790SOL    HW224210   1.436   1.687   4.400
40791SOL     OW24211  10.307  14.294  13.931
40791SOL    HW124212  10.289  14.295  13.837
40791SOL    HW224213  10.351  14.377  13.948
40792SOL     OW24214   7.679   3.946   2.878
40792SOL    HW124215   7.768   3.978   2.866
40792SOL    HW224216   7.635   4.016   2.927
40793SOL     OW24217  13.951  12.970   6.092
40793SOL    HW124218  13.946  12.949   6.186
40793SOL    HW224219  13.965  13.064   6.089
40794SOL     OW24220   0.099   9.057  12.616
40794SOL    HW124221   0.070   9.126  12.676
40794SOL    HW224222   0.018   9.025  12.576
40795SOL     OW24223   1.918   2.279   0.750
40795SOL    HW124224   1.929   2.197   0.702
40795SOL    HW224225   1.869   2.336   0.690
40796SOL     OW24226   3.234   5.702   7.724
40796SOL    HW124227   3.327   5.702   7.699
40796SOL    HW224228   3.209   5.610   7.723
40797SOL     OW24229   0.021   7.186   5.393
40797SOL    HW124230  14.854   7.156   5.313
40797SOL    HW224231   0.061   7.107   5.430
40798SOL     OW24232  14.126   1.715   8.209
40798SOL    HW124233  14.168   1.737   8.126
40798SOL    HW224234  14.110   1.620   8.204
40799SOL     OW24235   9.671  14.233   9.734
40799SOL    HW124236   9.708  14.305   9.786
40799SOL    HW224237   9.583  14.263   9.711
40800SOL     OW24238   4.130   2.423  11.656
40800SOL    HW124239   4.144   2.504  11.705
40800SOL    HW224240   4.037   2.404  11.667
40801SOL     OW24241   6.139   0.544   0.480
40801SOL    HW124242   6.066   0.605   0.491
40801SOL    HW224243   6.120   0.499   0.398
40802SOL     OW24244  10.521   1.593   5.501
40802SOL    HW124245  10.550   1.560   5.416
40802SOL    HW224246  10.576   1.670   5.517
40803SOL     OW24247   1.660  12.234   1.767
40803SOL    HW124248   1.718  12.159   1.759
40803SOL    HW224249   1.596  12.223   1.697
40804SOL     OW24250  13.594  14.396  10.718
40804SOL    HW124251  13.672  14.375  10.666
40804SOL    HW224252  13.522  14.350  10.674
40805SOL     OW24253   0.385   5.209   8.067
40805SOL    HW124254   0.376   5.184   7.975
40805SOL    HW224255   0.398   5.304   8.065
40806SOL     OW24256  13.165  14.481   0.069
40806SOL    HW124257  13.119  14.565   0.071
40806SOL    HW224258  13.238  14.492   0.130
40807SOL     OW24259   0.899   3.607   5.072
40807SOL    HW124260   0.924   3.676   5.134
40807SOL    HW224261   0.819   3.570   5.108
40808SOL     OW24262  12.926   6.692   8.601
40808SOL    HW124263  12.932   6.774   8.651
40808SOL    HW224264  12.886   6.630   8.662
40809SOL     OW24265   3.615   7.455   3.328
40809SOL    HW124266   3.599   7.546   3.301
40809SOL    HW224267   3.602   7.404   3.248
40810SOL     OW24268  14.571   9.220   0.108
40810SOL    HW124269  14.577   9.125   0.098
40810SOL    HW224270  14.662   9.250   0.110
40811SOL     OW24271   0.450  12.686   6.586
40811SOL    HW124272   0.438  12.780   6.599
40811SOL    HW224273   0.361  12.651   6.579
40812SOL     OW24274   3.699   0.156   7.094
40812SOL    HW124275   3.760   0.083   7.088
40812SOL    HW224276   3.670   0.156   7.185
40813SOL     OW24277   9.927   6.154   7.790
40813SOL    HW124278   9.846   6.188   7.752
40813SOL    HW224279   9.902   6.069   7.827
40814SOL     OW24280   2.098   7.266  10.646
40814SOL    HW124281   2.180   7.284  10.601
40814SOL    HW224282   2.030   7.281  10.580
40815SOL     OW24283   6.762   5.398   2.828
40815SOL    HW124284   6.671   5.413   2.801
40815SOL    HW224285   6.814   5.437   2.758
40816SOL     OW24286   3.878  10.192  10.610
40816SOL    HW124287   3.910  10.107  10.578
40816SOL    HW224288   3.783  10.184  10.608
40817SOL     OW24289   4.562   8.564   9.573
40817SOL    HW124290   4.490   8.517   9.530
40817SOL    HW224291   4.569   8.521   9.659
40818SOL     OW24292   3.458   8.459   6.356
40818SOL    HW124293   3.494   8.546   6.368
40818SOL    HW224294   3.523   8.412   6.304
40819SOL     OW24295  12.435   5.598   0.518
40819SOL    HW124296  12.431   5.504   0.532
40819SOL    HW224297  12.356   5.633   0.560
40820SOL     OW24298  10.701   3.105   0.210
40820SOL    HW124299  10.693   3.180   0.269
40820SOL    HW224300  10.656   3.034   0.255
40821SOL     OW24301  14.430   7.143   8.630
40821SOL    HW124302  14.507   7.197   8.613
40821SOL    HW224303  14.385   7.187   8.702
40822SOL     OW24304   5.988   8.631   8.889
40822SOL    HW124305   5.915   8.569   8.888
40822SOL    HW224306   6.039   8.607   8.967
40823SOL     OW24307   5.840  10.717   7.268
40823SOL    HW124308   5.925  10.675   7.256
40823SOL    HW224309   5.846  10.758   7.354
40824SOL     OW24310  12.834   8.704   5.261
40824SOL    HW124311  12.754   8.732   5.216
40824SOL    HW224312  12.841   8.762   5.336
40825SOL     OW24313   7.195   4.419  10.502
40825SOL    HW124314   7.241   4.454  10.427
40825SOL    HW224315   7.198   4.324  10.490
40826SOL     OW24316   0.126  11.338   0.583
40826SOL    HW124317   0.132  11.418   0.530
40826SOL    HW224318   0.046  11.296   0.553
40827SOL     OW24319  12.093  10.991  14.258
40827SOL    HW124320  12.026  11.028  14.200
40827SOL    HW224321  12.105  10.901  14.228
40828SOL     OW24322   8.390   7.529   8.093
40828SOL    HW124323   8.388   7.543   8.188
40828SOL    HW224324   8.324   7.462   8.077
40829SOL     OW24325   6.683   6.978   3.713
40829SOL    HW124326   6.642   6.949   3.632
40829SOL    HW224327   6.642   6.925   3.781
40830SOL     OW24328   9.200  10.281   4.249
40830SOL    HW124329   9.182  10.287   4.155
40830SOL    HW224330   9.290  10.312   4.257
40831SOL     OW24331   8.128   4.242   7.364
40831SOL    HW124332   8.094   4.177   7.302
40831SOL    HW224333   8.146   4.319   7.310
40832SOL     OW24334  13.809   7.254   4.531
40832SOL    HW124335  13.807   7.221   4.441
40832SOL    HW224336  13.720   7.238   4.564
40833SOL     OW24337  13.264   5.364  14.459
40833SOL    HW124338  13.323   5.419  14.510
40833SOL    HW224339  13.206   5.425  14.414
40834SOL     OW24340  11.919  11.100   6.110
40834SOL    HW124341  11.974  11.173   6.082
40834SOL    HW224342  11.921  11.104   6.206
40835SOL     OW24343   0.248   6.186   0.050
40835SOL    HW124344   0.154   6.201   0.046
40835SOL    HW224345   0.258   6.091   0.054
40836SOL     OW24346  13.871   9.740   9.767
40836SOL    HW124347  13.961   9.725   9.796
40836SOL    HW224348  13.870   9.712   9.675
40837SOL     OW24349   7.572   9.454   4.703
40837SOL    HW124350   7.509   9.520   4.675
40837SOL    HW224351   7.582   9.397   4.626
40838SOL     OW24352   1.834  12.087   7.187
40838SOL    HW124353   1.738  12.092   7.188
40838SOL    HW224354   1.854  12.015   7.127
40839SOL     OW24355  12.511  12.773  11.009
40839SOL    HW124356  12.588  12.806  10.963
40839SOL    HW224357  12.531  12.681  11.029
40840SOL     OW24358   2.505  11.042  10.845
40840SOL    HW124359   2.525  11.117  10.902
40840SOL    HW224360   2.502  10.967  10.904
40841SOL     OW24361   9.992  10.834  13.983
40841SOL    HW124362  10.026  10.748  13.958
40841SOL    HW224363  10.068  10.881  14.018
40842SOL     OW24364   6.560   8.252  14.813
40842SOL    HW124365   6.506   8.180  14.782
40842SOL    HW224366   6.630   8.261  14.747
40843SOL     OW24367  12.303   1.656   4.502
40843SOL    HW124368  12.229   1.595   4.500
40843SOL    HW224369  12.341   1.645   4.589
40844SOL     OW24370   9.632   9.349   5.402
40844SOL    HW124371   9.670   9.301   5.328
40844SOL    HW224372   9.688   9.326   5.477
40845SOL     OW24373   2.586   4.605   1.801
40845SOL    HW124374   2.669   4.637   1.764
40845SOL    HW224375   2.612   4.556   1.879
40846SOL     OW24376   1.644  10.991   8.567
40846SOL    HW124377   1.672  10.900   8.553
40846SOL    HW224378   1.685  11.040   8.496
40847SOL     OW24379   7.297  12.073   4.903
40847SOL    HW124380   7.244  12.134   4.954
40847SOL    HW224381   7.378  12.063   4.953
40848SOL     OW24382  13.686  10.415  13.795
40848SOL    HW124383  13.771  10.395  13.834
40848SOL    HW224384  13.706  10.438  13.704
40849SOL     OW24385  12.815   0.366  13.179
40849SOL    HW124386  12.859   0.451  13.187
40849SOL    HW224387  12.885   0.304  13.160
40850SOL     OW24388   2.779   0.398  12.825
40850SOL    HW124389   2.780   0.361  12.736
40850SOL    HW224390   2.704   0.457  12.825
40851SOL     OW24391  13.790  12.899   2.520
40851SOL    HW124392  13.850  12.972   2.527
40851SOL    HW224393  13.758  12.902   2.430
40852SOL     OW24394   9.936   2.660  14.777
40852SOL    HW124395  10.024   2.647  14.811
40852SOL    HW224396   9.939   2.625  14.688
40853SOL     OW24397   1.478   4.913   6.013
40853SOL    HW124398   1.480   4.998   5.970
40853SOL    HW224399   1.543   4.860   5.965
40854SOL     OW24400  11.497  10.522   0.050
40854SOL    HW124401  11.471  10.614   0.057
40854SOL    HW224402  11.569  10.512   0.112
40855SOL     OW24403   4.300   7.018  14.600
40855SOL    HW124404   4.306   6.995  14.693
40855SOL    HW224405   4.349   6.949  14.555
40856SOL     OW24406  11.370   8.417   2.627
40856SOL    HW124407  11.434   8.407   2.699
40856SOL    HW224408  11.296   8.461   2.668
40857SOL     OW24409   8.336  10.465  10.602
40857SOL    HW124410   8.379  10.380  10.606
40857SOL    HW224411   8.244  10.444  10.581
40858SOL     OW24412   4.401   5.718   3.421
40858SOL    HW124413   4.368   5.645   3.473
40858SOL    HW224414   4.489   5.692   3.396
40859SOL     OW24415  13.238  10.359   3.711
40859SOL    HW124416  13.169  10.424   3.706
40859SOL    HW224417  13.198  10.278   3.680
40860SOL     OW24418   5.970  12.420   5.018
40860SOL    HW124419   5.953  12.326   5.023
40860SOL    HW224420   6.062  12.429   5.041
40861SOL     OW24421   2.567   3.397   3.654
40861SOL    HW124422   2.631   3.373   3.721
40861SOL    HW224423   2.490   3.426   3.704
40862SOL     OW24424  11.249  12.389   2.814
40862SOL    HW124425  11.177  12.449   2.794
40862SOL    HW224426  11.209  12.317   2.863
40863SOL     OW24427   4.862  11.853  10.981
40863SOL    HW124428   4.876  11.825  11.071
40863SOL    HW224429   4.853  11.948  10.987
40864SOL     OW24430   9.887   8.768  10.393
40864SOL    HW124431   9.869   8.828  10.321
40864SOL    HW224432   9.815   8.782  10.455
40865SOL     OW24433   4.042   4.436  14.491
40865SOL    HW124434   4.084   4.388  14.420
40865SOL    HW224435   3.954   4.400  14.497
40866SOL     OW24436   6.647  12.617   0.420
40866SOL    HW124437   6.599  12.695   0.394
40866SOL    HW224438   6.730  12.649   0.453
40867SOL     OW24439  14.282  11.204   8.192
40867SOL    HW124440  14.232  11.285   8.197
40867SOL    HW224441  14.243  11.148   8.259
40868SOL     OW24442  11.475  10.097  12.672
40868SOL    HW124443  11.459  10.133  12.584
40868SOL    HW224444  11.566  10.069  12.670
40869SOL     OW24445   5.864   3.167  13.108
40869SOL    HW124446   5.850   3.221  13.030
40869SOL    HW224447   5.837   3.223  13.181
40870SOL     OW24448   7.806   1.980   0.165
40870SOL    HW124449   7.870   1.912   0.186
40870SOL    HW224450   7.774   1.957   0.078
40871SOL     OW24451   0.484  11.571  12.888
40871SOL    HW124452   0.399  11.614  12.898
40871SOL    HW224453   0.520  11.569  12.976
40872SOL     OW24454   0.218   7.151  13.634
40872SOL    HW124455   0.242   7.115  13.549
40872SOL    HW224456   0.142   7.101  13.662
40873SOL     OW24457  14.231   8.149   4.263
40873SOL    HW124458  14.148   8.150   4.215
40873SOL    HW224459  14.226   8.224   4.322
40874SOL     OW24460   8.657   4.723   4.163
40874SOL    HW124461   8.669   4.734   4.068
40874SOL    HW224462   8.746   4.720   4.198
40875SOL     OW24463  10.583   0.674  14.867
40875SOL    HW124464  10.522   0.602   0.009
40875SOL    HW224465  10.549   0.715  14.787
40876SOL     OW24466   4.841   2.751  11.395
40876SOL    HW124467   4.753   2.774  11.424
40876SOL    HW224468   4.893   2.751  11.476
40877SOL     OW24469   5.905   0.617  12.007
40877SOL    HW124470   5.952   0.564  11.943
40877SOL    HW224471   5.964   0.620  12.083
40878SOL     OW24472   5.201  13.919   2.462
40878SOL    HW124473   5.200  13.969   2.544
40878SOL    HW224474   5.157  13.975   2.399
40879SOL     OW24475  12.112   0.769   0.507
40879SOL    HW124476  12.077   0.702   0.448
40879SOL    HW224477  12.064   0.755   0.589
40880SOL     OW24478  14.758   0.997   0.165
40880SOL    HW124479  14.726   0.948   0.089
40880SOL    HW224480  14.789   1.080   0.129
40881SOL     OW24481   1.068  11.623  12.577
40881SOL    HW124482   1.077  11.704  12.627
40881SOL    HW224483   1.157  11.587  12.575
40882SOL     OW24484   1.974   4.568   7.637
40882SOL    HW124485   2.016   4.545   7.720
40882SOL    HW224486   1.965   4.485   7.591
40883SOL     OW24487   2.365   9.414   3.512
40883SOL    HW124488   2.447   9.393   3.469
40883SOL    HW224489   2.391   9.460   3.592
40884SOL     OW24490   7.918  12.078  12.716
40884SOL    HW124491   7.858  12.153  12.719
40884SOL    HW224492   7.916  12.049  12.625
40885SOL     OW24493   8.625  14.134  13.261
40885SOL    HW124494   8.581  14.075  13.324
40885SOL    HW224495   8.716  14.104  13.262
40886SOL     OW24496   6.768   3.270   8.720
40886SOL    HW124497   6.797   3.344   8.667
40886SOL    HW224498   6.765   3.303   8.809
40887SOL     OW24499   2.373  13.188   5.236
40887SOL    HW124500   2.345  13.176   5.145
40887SOL    HW224501   2.469  13.181   5.233
40888SOL     OW24502   8.388  12.627  13.472
40888SOL    HW124503   8.471  12.625  13.520
40888SOL    HW224504   8.355  12.716  13.485
40889SOL     OW24505  11.717   4.119   9.570
40889SOL    HW124506  11.644   4.114   9.632
40889SOL    HW224507  11.779   4.053   9.601
40890SOL     OW24508  13.430   5.517   4.968
40890SOL    HW124509  13.468   5.453   4.908
40890SOL    HW224510  13.350   5.475   5.000
40891SOL     OW24511   1.074   7.469   1.287
40891SOL    HW124512   1.006   7.476   1.354
40891SOL    HW224513   1.123   7.551   1.294
40892SOL     OW24514   7.307   3.672   6.096
40892SOL    HW124515   7.265   3.713   6.172
40892SOL    HW224516   7.288   3.730   6.023
40893SOL     OW24517  13.801   7.624  10.842
40893SOL    HW124518  13.746   7.648  10.917
40893SOL    HW224519  13.775   7.686  10.773
40894SOL     OW24520  12.034   5.296   7.805
40894SOL    HW124521  11.998   5.337   7.726
40894SOL    HW224522  12.105   5.354   7.832
40895SOL     OW24523   4.333   0.702   5.121
40895SOL    HW124524   4.417   0.698   5.166
40895SOL    HW224525   4.282   0.631   5.160
40896SOL     OW24526  11.165  14.596   6.165
40896SOL    HW124527  11.084  14.550   6.188
40896SOL    HW224528  11.148  14.687   6.187
40897SOL     OW24529  12.030   2.201   2.614
40897SOL    HW124530  12.117   2.187   2.651
40897SOL    HW224531  11.971   2.148   2.668
40898SOL     OW24532  10.125   0.985   1.215
40898SOL    HW124533  10.052   0.926   1.196
40898SOL    HW224534  10.085   1.059   1.259
40899SOL     OW24535  10.424   9.005   1.934
40899SOL    HW124536  10.477   8.937   1.976
40899SOL    HW224537  10.474   9.085   1.949
40900SOL     OW24538   7.697   0.208   0.092
40900SOL    HW124539   7.716   0.218  14.875
40900SOL    HW224540   7.708   0.296   0.129
40901SOL     OW24541  10.200   0.341  12.609
40901SOL    HW124542  10.257   0.335  12.532
40901SOL    HW224543  10.147   0.419  12.593
40902SOL     OW24544   4.104  11.929   8.650
40902SOL    HW124545   4.080  11.964   8.564
40902SOL    HW224546   4.173  11.866   8.632
40903SOL     OW24547   3.031   9.418   3.673
40903SOL    HW124548   3.046   9.513   3.676
40903SOL    HW224549   3.000   9.396   3.760
40904SOL     OW24550   1.923   0.316  13.000
40904SOL    HW124551   1.964   0.292  13.082
40904SOL    HW224552   1.873   0.396  13.020
40905SOL     OW24553  11.487  13.414   3.363
40905SOL    HW124554  11.507  13.358   3.288
40905SOL    HW224555  11.402  13.384   3.393
40906SOL     OW24556  13.121  11.736   6.630
40906SOL    HW124557  13.027  11.752   6.623
40906SOL    HW224558  13.160  11.823   6.625
40907SOL     OW24559   6.741   0.059  12.565
40907SOL    HW124560   6.801   0.128  12.538
40907SOL    HW224561   6.783  14.854  12.534
40908SOL     OW24562   4.476   3.125   2.567
40908SOL    HW124563   4.475   3.052   2.629
40908SOL    HW224564   4.404   3.107   2.507
40909SOL     OW24565  11.029   7.261  13.110
40909SOL    HW124566  11.021   7.282  13.017
40909SOL    HW224567  11.117   7.225  13.119
40910SOL     OW24568   4.559   0.184   6.158
40910SOL    HW124569   4.650   0.206   6.177
40910SOL    HW224570   4.508   0.231   6.224
40911SOL     OW24571   3.741   1.271  10.953
40911SOL    HW124572   3.687   1.323  10.894
40911SOL    HW224573   3.795   1.335  11.000
40912SOL     OW24574   1.400   9.198   8.329
40912SOL    HW124575   1.461   9.246   8.273
40912SOL    HW224576   1.437   9.205   8.417
40913SOL     OW24577   3.169   8.541  10.362
40913SOL    HW124578   3.103   8.504  10.420
40913SOL    HW224579   3.141   8.632  10.347
40914SOL     OW24580   8.473  13.226   2.260
40914SOL    HW124581   8.415  13.180   2.320
40914SOL    HW224582   8.504  13.301   2.309
40915SOL     OW24583   9.420  12.455   5.154
40915SOL    HW124584   9.509  12.489   5.144
40915SOL    HW224585   9.432  12.371   5.199
40916SOL     OW24586   1.849   9.783   2.811
40916SOL    HW124587   1.917   9.752   2.750
40916SOL    HW224588   1.813   9.703   2.848
40917SOL     OW24589  13.404   6.643   1.899
40917SOL    HW124590  13.488   6.635   1.853
40917SOL    HW224591  13.408   6.576   1.967
40918SOL     OW24592  14.416   6.733  10.633
40918SOL    HW124593  14.450   6.733  10.722
40918SOL    HW224594  14.326   6.764  10.642
40919SOL     OW24595   9.462   5.981   6.379
40919SOL    HW124596   9.397   6.013   6.441
40919SOL    HW224597   9.497   6.061   6.339
40920SOL     OW24598  13.514   3.050   1.542
40920SOL    HW124599  13.435   3.061   1.488
40920SOL    HW224600  13.499   3.104   1.619
40921SOL     OW24601   7.281  11.457   9.454
40921SOL    HW124602   7.216  11.527   9.449
40921SOL    HW224603   7.311  11.458   9.546
40922SOL     OW24604   8.335  14.818   0.324
40922SOL    HW124605   8.263  14.758   0.309
40922SOL    HW224606   8.324  14.848   0.414
40923SOL     OW24607  12.419   5.063   9.266
40923SOL    HW124608  12.363   5.044   9.190
40923SOL    HW224609  12.508   5.049   9.233
40924SOL     OW24610  13.193  14.204   2.591
40924SOL    HW124611  13.256  14.275   2.580
40924SOL    HW224612  13.231  14.131   2.542
40925SOL     OW24613  12.829   4.099   0.782
40925SOL    HW124614  12.898   4.088   0.717
40925SOL    HW224615  12.873   4.089   0.866
40926SOL     OW24616   5.386  12.147  14.665
40926SOL    HW124617   5.463  12.204  14.677
40926SOL    HW224618   5.356  12.129  14.754
40927SOL     OW24619   7.283   1.530   9.871
40927SOL    HW124620   7.248   1.453   9.915
40927SOL    HW224621   7.253   1.522   9.780
40928SOL     OW24622   9.658   3.439  13.170
40928SOL    HW124623   9.677   3.345  13.160
40928SOL    HW224624   9.613   3.445  13.254
40929SOL     OW24625  11.657   4.070   3.281
40929SOL    HW124626  11.665   3.987   3.233
40929SOL    HW224627  11.582   4.114   3.241
40930SOL     OW24628   1.657   8.082   9.493
40930SOL    HW124629   1.671   8.135   9.571
40930SOL    HW224630   1.739   8.088   9.445
40931SOL     OW24631   9.374  12.747   5.182
40931SOL    HW124632   9.386  12.774   5.091
40931SOL    HW224633   9.380  12.651   5.179
40932SOL     OW24634   4.774  10.080   0.400
40932SOL    HW124635   4.752  10.026   0.476
40932SOL    HW224636   4.775  10.019   0.326
40933SOL     OW24637  14.645   3.139   1.477
40933SOL    HW124638  14.707   3.150   1.406
40933SOL    HW224639  14.681   3.068   1.531
40934SOL     OW24640   6.197  10.089  13.374
40934SOL    HW124641   6.119  10.111  13.324
40934SOL    HW224642   6.269  10.104  13.312
40935SOL     OW24643  12.942   8.926   0.869
40935SOL    HW124644  12.950   8.887   0.782
40935SOL    HW224645  13.031   8.955   0.891
40936SOL     OW24646   3.383   3.233  13.799
40936SOL    HW124647   3.343   3.150  13.772
40936SOL    HW224648   3.464   3.238  13.749
40937SOL     OW24649   2.934   6.504  10.340
40937SOL    HW124650   2.950   6.578  10.281
40937SOL    HW224651   2.874   6.448  10.291
40938SOL     OW24652   7.443   7.190   5.105
40938SOL    HW124653   7.505   7.145   5.048
40938SOL    HW224654   7.383   7.122   5.134
40939SOL     OW24655   8.244   2.922   7.138
40939SOL    HW124656   8.172   2.972   7.177
40939SOL    HW224657   8.228   2.926   7.044
40940SOL     OW24658  13.331  13.965   9.796
40940SOL    HW124659  13.267  14.015   9.846
40940SOL    HW224660  13.283  13.887   9.768
40941SOL     OW24661   5.244   3.267   6.319
40941SOL    HW124662   5.322   3.317   6.294
40941SOL    HW224663   5.270   3.219   6.398
40942SOL     OW24664  10.050   4.901  14.614
40942SOL    HW124665   9.961   4.892  14.580
40942SOL    HW224666  10.038   4.918  14.708
40943SOL     OW24667   8.065   2.286   9.675
40943SOL    HW124668   8.009   2.361   9.696
40943SOL    HW224669   8.014   2.210   9.703
40944SOL     OW24670   4.154   3.132   4.282
40944SOL    HW124671   4.158   3.202   4.347
40944SOL    HW224672   4.154   3.178   4.198
40945SOL     OW24673   8.501   3.946   1.474
40945SOL    HW124674   8.554   4.026   1.477
40945SOL    HW224675   8.420   3.973   1.431
40946SOL     OW24676   9.201   5.186   4.504
40946SOL    HW124677   9.290   5.192   4.468
40946SOL    HW224678   9.166   5.105   4.467
40947SOL     OW24679  12.837   7.929   4.728
40947SOL    HW124680  12.930   7.927   4.706
40947SOL    HW224681  12.827   8.005   4.786
40948SOL     OW24682   8.461  11.517  11.828
40948SOL    HW124683   8.417  11.444  11.872
40948SOL    HW224684   8.392  11.582  11.816
40949SOL     OW24685   6.003   5.996  11.735
40949SOL    HW124686   6.072   5.945  11.777
40949SOL    HW224687   5.921   5.955  11.764
40950SOL     OW24688   6.250   0.896   3.539
40950SOL    HW124689   6.186   0.835   3.503
40950SOL    HW224690   6.329   0.843   3.550
40951SOL     OW24691   7.960   1.615   2.868
40951SOL    HW124692   7.914   1.576   2.942
40951SOL    HW224693   7.969   1.708   2.891
40952SOL     OW24694   7.633  11.660   8.889
40952SOL    HW124695   7.712  11.606   8.887
40952SOL    HW224696   7.653  11.730   8.951
40953SOL     OW24697   0.573   7.372  14.772
40953SOL    HW124698   0.544   7.303  14.713
40953SOL    HW224699   0.578   7.451  14.718
40954SOL     OW24700  14.522   2.350   8.277
40954SOL    HW124701  14.527   2.443   8.253
40954SOL    HW224702  14.611   2.326   8.300
40955SOL     OW24703  10.905  13.996  12.032
40955SOL    HW124704  10.997  13.970  12.025
40955SOL    HW224705  10.887  13.995  12.126
40956SOL     OW24706   2.081   9.755  10.752
40956SOL    HW124707   2.173   9.748  10.776
40956SOL    HW224708   2.072   9.842  10.715
40957SOL     OW24709   5.519  10.919   3.319
40957SOL    HW124710   5.614  10.913   3.326
40957SOL    HW224711   5.501  10.903   3.227
40958SOL     OW24712  11.312   7.456   9.691
40958SOL    HW124713  11.372   7.465   9.617
40958SOL    HW224714  11.362   7.407   9.756
40959SOL     OW24715  14.301   4.862   7.365
40959SOL    HW124716  14.241   4.895   7.432
40959SOL    HW224717  14.326   4.775   7.395
40960SOL     OW24718   7.262   5.201   2.111
40960SOL    HW124719   7.336   5.243   2.155
40960SOL    HW224720   7.300   5.166   2.030
40961SOL     OW24721   9.767  13.946   6.872
40961SOL    HW124722   9.723  13.965   6.955
40961SOL    HW224723   9.837  13.885   6.896
40962SOL     OW24724   9.203  11.610   6.378
40962SOL    HW124725   9.109  11.602   6.366
40962SOL    HW224726   9.216  11.700   6.410
40963SOL     OW24727   3.482   2.136  10.583
40963SOL    HW124728   3.476   2.224  10.548
40963SOL    HW224729   3.540   2.145  10.659
40964SOL     OW24730  12.097  14.390   2.676
40964SOL    HW124731  12.190  14.367   2.677
40964SOL    HW224732  12.079  14.412   2.585
40965SOL     OW24733  10.170  12.037   2.240
40965SOL    HW124734  10.218  11.971   2.191
40965SOL    HW224735  10.119  11.988   2.304
40966SOL     OW24736  11.884   4.483  10.924
40966SOL    HW124737  11.945   4.486  10.850
40966SOL    HW224738  11.879   4.573  10.955
40967SOL     OW24739  11.639   8.710   3.023
40967SOL    HW124740  11.548   8.684   3.009
40967SOL    HW224741  11.659   8.679   3.112
40968SOL     OW24742   6.574   9.372   1.725
40968SOL    HW124743   6.561   9.291   1.674
40968SOL    HW224744   6.623   9.429   1.666
40969SOL     OW24745   1.062   5.974  14.249
40969SOL    HW124746   1.086   6.050  14.197
40969SOL    HW224747   0.985   5.937  14.204
40970SOL     OW24748   3.632   0.775   2.836
40970SOL    HW124749   3.571   0.757   2.764
40970SOL    HW224750   3.716   0.789   2.793
40971SOL     OW24751  10.539   0.758   2.738
40971SOL    HW124752  10.602   0.775   2.809
40971SOL    HW224753  10.593   0.747   2.660
40972SOL     OW24754   4.871   2.960   3.821
40972SOL    HW124755   4.817   3.033   3.853
40972SOL    HW224756   4.843   2.885   3.874
40973SOL     OW24757  11.613   3.847  13.373
40973SOL    HW124758  11.702   3.844  13.408
40973SOL    HW224759  11.625   3.862  13.279
40974SOL     OW24760  12.393   6.180   6.829
40974SOL    HW124761  12.401   6.245   6.760
40974SOL    HW224762  12.305   6.144   6.819
40975SOL     OW24763   9.603  11.135   2.899
40975SOL    HW124764   9.598  11.040   2.906
40975SOL    HW224765   9.608  11.151   2.804
40976SOL     OW24766  12.871  13.281  13.053
40976SOL    HW124767  12.960  13.317  13.059
40976SOL    HW224768  12.816  13.357  13.032
40977SOL     OW24769  10.243   7.514   8.614
40977SOL    HW124770  10.325   7.564   8.626
40977SOL    HW224771  10.182   7.556   8.674
40978SOL     OW24772  10.683   8.649   7.809
40978SOL    HW124773  10.677   8.556   7.829
40978SOL    HW224774  10.664   8.692   7.892
40979SOL     OW24775   3.851   1.972   5.206
40979SOL    HW124776   3.870   2.065   5.208
40979SOL    HW224777   3.894   1.936   5.283
40980SOL     OW24778   9.493   3.443   0.668
40980SOL    HW124779   9.533   3.489   0.741
40980SOL    HW224780   9.525   3.353   0.675
40981SOL     OW24781   3.206   7.915  13.974
40981SOL    HW124782   3.294   7.916  14.012
40981SOL    HW224783   3.207   7.987  13.911
40982SOL     OW24784  11.229   4.626   8.368
40982SOL    HW124785  11.173   4.552   8.393
40982SOL    HW224786  11.309   4.586   8.334
40983SOL     OW24787   8.253   0.497   9.178
40983SOL    HW124788   8.192   0.428   9.205
40983SOL    HW224789   8.197   0.563   9.136
40984SOL     OW24790   0.957   7.909  14.522
40984SOL    HW124791   0.934   7.816  14.531
40984SOL    HW224792   1.024   7.924  14.589
40985SOL     OW24793   7.697  13.214  11.000
40985SOL    HW124794   7.657  13.141  11.048
40985SOL    HW224795   7.718  13.279  11.068
40986SOL     OW24796  14.656  12.361  10.909
40986SOL    HW124797  14.627  12.405  10.989
40986SOL    HW224798  14.601  12.398  10.841
40987SOL     OW24799  11.372   3.632  12.352
40987SOL    HW124800  11.357   3.586  12.435
40987SOL    HW224801  11.466   3.623  12.337
40988SOL     OW24802   3.353  12.337  10.763
40988SOL    HW124803   3.298  12.416  10.761
40988SOL    HW224804   3.394  12.334  10.677
40989SOL     OW24805   8.249   2.394   0.462
40989SOL    HW124806   8.285   2.369   0.377
40989SOL    HW224807   8.167   2.438   0.441
40990SOL     OW24808   9.927   4.339  10.508
40990SOL    HW124809  10.002   4.397  10.509
40990SOL    HW224810   9.861   4.385  10.560
40991SOL     OW24811   4.950  10.969   8.434
40991SOL    HW124812   4.926  10.908   8.504
40991SOL    HW224813   5.028  11.014   8.467
40992SOL     OW24814   0.020   5.204  10.636
40992SOL    HW124815   0.030   5.195  10.541
40992SOL    HW224816  14.847   5.285  10.647
40993SOL     OW24817   8.036   8.734   4.658
40993SOL    HW124818   8.095   8.803   4.688
40993SOL    HW224819   8.085   8.653   4.669
40994SOL     OW24820   3.635  12.351  12.733
40994SOL    HW124821   3.612  12.280  12.792
40994SOL    HW224822   3.718  12.324  12.694
40995SOL     OW24823   6.608   3.227   2.915
40995SOL    HW124824   6.531   3.171   2.923
40995SOL    HW224825   6.615   3.270   3.000
40996SOL     OW24826   6.588   6.764   0.019
40996SOL    HW124827   6.554   6.847  14.863
40996SOL    HW224828   6.671   6.752  14.850
40997SOL     OW24829   9.900   7.830   3.400
40997SOL    HW124830   9.971   7.889   3.423
40997SOL    HW224831   9.940   7.767   3.340
40998SOL     OW24832   3.319   2.384  10.306
40998SOL    HW124833   3.239   2.349  10.345
40998SOL    HW224834   3.384   2.380  10.376
40999SOL     OW24835  13.963   6.983  13.926
40999SOL    HW124836  13.903   6.912  13.903
40999SOL    HW224837  14.003   7.009  13.843
41000SOL     OW24838   6.812  14.438  11.707
41000SOL    HW124839   6.819  14.527  11.674
41000SOL    HW224840   6.771  14.446  11.792
41001SOL     OW24841   6.966  12.268  10.683
41001SOL    HW124842   6.950  12.346  10.735
41001SOL    HW224843   6.909  12.201  10.722
41002SOL     OW24844   5.597  10.616  13.836
41002SOL    HW124845   5.597  10.535  13.784
41002SOL    HW224846   5.512  10.618  13.878
41003SOL     OW24847   1.009   5.906  10.453
41003SOL    HW124848   0.939   5.900  10.518
41003SOL    HW224849   0.964   5.928  10.371
41004SOL     OW24850   5.087   1.751   1.111
41004SOL    HW124851   5.001   1.792   1.118
41004SOL    HW224852   5.074   1.661   1.140
41005SOL     OW24853   1.449   7.750   5.970
41005SOL    HW124854   1.426   7.839   5.946
41005SOL    HW224855   1.416   7.740   6.060
41006SOL     OW24856  12.390   9.390   2.555
41006SOL    HW124857  12.317   9.415   2.613
41006SOL    HW224858  12.359   9.411   2.467
41007SOL     OW24859   9.737  11.041   1.785
41007SOL    HW124860   9.812  10.983   1.800
41007SOL    HW224861   9.762  11.093   1.708
41008SOL     OW24862  13.964   6.605   4.628
41008SOL    HW124863  14.059   6.602   4.620
41008SOL    HW224864  13.932   6.538   4.569
41009SOL     OW24865  13.599  12.997   1.770
41009SOL    HW124866  13.591  13.049   1.690
41009SOL    HW224867  13.690  12.969   1.771
41010SOL     OW24868   3.882   6.806  14.728
41010SOL    HW124869   3.870   6.740  14.796
41010SOL    HW224870   3.864   6.890  14.771
41011SOL     OW24871   3.663  12.418   2.061
41011SOL    HW124872   3.690  12.508   2.080
41011SOL    HW224873   3.591  12.401   2.121
41012SOL     OW24874   3.454   6.258   5.162
41012SOL    HW124875   3.380   6.217   5.207
41012SOL    HW224876   3.522   6.266   5.230
41013SOL     OW24877   0.673  11.624  13.363
41013SOL    HW124878   0.759  11.665  13.351
41013SOL    HW224879   0.628  11.636  13.279
41014SOL     OW24880   2.282  13.764   3.302
41014SOL    HW124881   2.362  13.715   3.285
41014SOL    HW224882   2.215  13.698   3.318
41015SOL     OW24883   4.509  10.423   1.610
41015SOL    HW124884   4.586  10.478   1.596
41015SOL    HW224885   4.474  10.451   1.695
41016SOL     OW24886  11.673   9.732   9.360
41016SOL    HW124887  11.663   9.712   9.267
41016SOL    HW224888  11.584   9.735   9.394
41017SOL     OW24889  12.260  10.014   9.259
41017SOL    HW124890  12.334   9.963   9.293
41017SOL    HW224891  12.209   9.951   9.209
41018SOL     OW24892  11.662   9.900   0.290
41018SOL    HW124893  11.638   9.970   0.351
41018SOL    HW224894  11.587   9.892   0.232
41019SOL     OW24895   2.491  10.436   4.923
41019SOL    HW124896   2.540  10.511   4.955
41019SOL    HW224897   2.545  10.400   4.852
41020SOL     OW24898  11.003  14.437   1.613
41020SOL    HW124899  10.983  14.344   1.604
41020SOL    HW224900  10.962  14.479   1.537
41021SOL     OW24901   2.272   2.322  11.390
41021SOL    HW124902   2.320   2.240  11.403
41021SOL    HW224903   2.277   2.337  11.295
41022SOL     OW24904   5.992   1.911   8.294
41022SOL    HW124905   6.059   1.846   8.315
41022SOL    HW224906   6.007   1.982   8.357
41023SOL     OW24907   1.507   0.368   6.610
41023SOL    HW124908   1.508   0.310   6.687
41023SOL    HW224909   1.560   0.321   6.545
41024SOL     OW24910  12.780   9.452   1.713
41024SOL    HW124911  12.796   9.543   1.738
41024SOL    HW224912  12.685   9.448   1.700
41025SOL     OW24913   8.823  12.153   0.458
41025SOL    HW124914   8.900  12.164   0.515
41025SOL    HW224915   8.820  12.060   0.439
41026SOL     OW24916   5.472  10.552   6.069
41026SOL    HW124917   5.475  10.508   6.154
41026SOL    HW224918   5.517  10.492   6.009
41027SOL     OW24919   8.793   0.724   1.864
41027SOL    HW124920   8.739   0.699   1.789
41027SOL    HW224921   8.734   0.769   1.923
41028SOL     OW24922   2.164   3.122   5.800
41028SOL    HW124923   2.072   3.137   5.777
41028SOL    HW224924   2.212   3.186   5.748
41029SOL     OW24925   9.991   4.751   4.687
41029SOL    HW124926   9.904   4.711   4.691
41029SOL    HW224927   9.998   4.784   4.597
41030SOL     OW24928   2.826   9.697   2.331
41030SOL    HW124929   2.896   9.643   2.294
41030SOL    HW224930   2.757   9.634   2.354
41031SOL     OW24931   0.537   5.821   9.219
41031SOL    HW124932   0.461   5.790   9.269
41031SOL    HW224933   0.533   5.773   9.137
41032SOL     OW24934   5.440   8.287   4.657
41032SOL    HW124935   5.375   8.224   4.691
41032SOL    HW224936   5.494   8.235   4.597
41033SOL     OW24937   9.503   8.436   9.551
41033SOL    HW124938   9.497   8.528   9.577
41033SOL    HW224939   9.560   8.436   9.475
41034SOL     OW24940   6.659   2.355   3.574
41034SOL    HW124941   6.668   2.428   3.513
41034SOL    HW224942   6.725   2.292   3.545
41035SOL     OW24943  14.213   4.621   0.395
41035SOL    HW124944  14.237   4.529   0.397
41035SOL    HW224945  14.276   4.664   0.452
41036SOL     OW24946  10.840   4.185  14.147
41036SOL    HW124947  10.887   4.157  14.225
41036SOL    HW224948  10.859   4.117  14.082
41037SOL     OW24949  10.852   0.719   8.652
41037SOL    HW124950  10.793   0.649   8.679
41037SOL    HW224951  10.937   0.677   8.641
41038SOL     OW24952   6.807   2.939   8.364
41038SOL    HW124953   6.723   2.899   8.344
41038SOL    HW224954   6.811   2.940   8.460
41039SOL     OW24955   4.701   4.001   3.136
41039SOL    HW124956   4.790   4.009   3.169
41039SOL    HW224957   4.709   3.953   3.054
41040SOL     OW24958   8.538   2.743   3.533
41040SOL    HW124959   8.457   2.769   3.577
41040SOL    HW224960   8.512   2.672   3.474
41041SOL     OW24961  10.231   8.483   4.750
41041SOL    HW124962  10.221   8.492   4.845
41041SOL    HW224963  10.230   8.573   4.717
41042SOL     OW24964   0.040   0.348   4.164
41042SOL    HW124965   0.127   0.365   4.130
41042SOL    HW224966   0.000   0.434   4.174
41043SOL     OW24967   0.624   2.908   4.615
41043SOL    HW124968   0.665   2.983   4.659
41043SOL    HW224969   0.546   2.890   4.667
41044SOL     OW24970   4.699  10.000  13.445
41044SOL    HW124971   4.706  10.062  13.373
41044SOL    HW224972   4.605   9.988  13.457
41045SOL     OW24973  14.006   8.879  14.804
41045SOL    HW124974  13.993   8.954  14.863
41045SOL    HW224975  13.948   8.896  14.730
41046SOL     OW24976   7.250   6.551   3.623
41046SOL    HW124977   7.317   6.487   3.644
41046SOL    HW224978   7.192   6.551   3.700
41047SOL     OW24979  14.410   1.919   7.800
41047SOL    HW124980  14.352   1.891   7.730
41047SOL    HW224981  14.370   1.999   7.835
41048SOL     OW24982  14.579   9.758   1.840
41048SOL    HW124983  14.572   9.681   1.783
41048SOL    HW224984  14.518   9.822   1.803
41049SOL     OW24985   7.545  12.454   5.579
41049SOL    HW124986   7.581  12.543   5.583
41049SOL    HW224987   7.606  12.401   5.631
41050SOL     OW24988  12.071   0.710  13.370
41050SOL    HW124989  11.976   0.713  13.358
41050SOL    HW224990  12.105   0.678  13.286
41051SOL     OW24991   5.572   0.138  14.535
41051SOL    HW124992   5.641   0.072  14.543
41051SOL    HW224993   5.615   0.220  14.559
41052SOL     OW24994   1.733  10.123  11.835
41052SOL    HW124995   1.641  10.134  11.812
41052SOL    HW224996   1.761  10.209  11.865
41053SOL     OW24997  11.382  11.822   6.646
41053SOL    HW124998  11.440  11.789   6.715
41053SOL    HW224999  11.297  11.832   6.690
41054SOL     OW25000   9.366   2.402   5.696
41054SOL    HW125001   9.275   2.416   5.668
41054SOL    HW225002   9.384   2.474   5.756
41055SOL     OW25003   0.693   3.032   2.600
41055SOL    HW125004   0.645   3.115   2.608
41055SOL    HW225005   0.742   3.040   2.518
41056SOL     OW25006   4.155   5.711   7.767
41056SOL    HW125007   4.136   5.623   7.732
41056SOL    HW225008   4.089   5.767   7.727
41057SOL     OW25009  10.845  10.385   0.901
41057SOL    HW125010  10.843  10.360   0.994
41057SOL    HW225011  10.921  10.442   0.894
41058SOL     OW25012   9.639  12.618   0.342
41058SOL    HW125013   9.611  12.531   0.369
41058SOL    HW225014   9.654  12.665   0.424
41059SOL     OW25015   4.044   6.257   1.508
41059SOL    HW125016   4.083   6.180   1.548
41059SOL    HW225017   4.091   6.267   1.425
41060SOL     OW25018  10.343   0.882   5.858
41060SOL    HW125019  10.331   0.802   5.909
41060SOL    HW225020  10.344   0.952   5.923
41061SOL     OW25021   7.401  11.880  14.172
41061SOL    HW125022   7.432  11.970  14.163
41061SOL    HW225023   7.442  11.834  14.098
41062SOL     OW25024   8.045  14.799  10.535
41062SOL    HW125025   8.032  14.872  10.474
41062SOL    HW225026   8.128  14.818  10.578
41063SOL     OW25027   3.911  10.646   8.468
41063SOL    HW125028   3.944  10.688   8.388
41063SOL    HW225029   3.980  10.585   8.493
41064SOL     OW25030  10.370   7.645   6.944
41064SOL    HW125031  10.354   7.605   7.029
41064SOL    HW225032  10.326   7.588   6.882
41065SOL     OW25033   5.294  13.756   1.575
41065SOL    HW125034   5.340  13.742   1.492
41065SOL    HW225035   5.207  13.787   1.549
41066SOL     OW25036  10.141   1.765   2.586
41066SOL    HW125037  10.129   1.840   2.527
41066SOL    HW225038  10.169   1.804   2.669
41067SOL     OW25039   4.249   2.786   5.204
41067SOL    HW125040   4.185   2.829   5.261
41067SOL    HW225041   4.302   2.858   5.170
41068SOL     OW25042   0.424  11.759   4.163
41068SOL    HW125043   0.332  11.782   4.169
41068SOL    HW225044   0.462  11.824   4.105
41069SOL     OW25045   8.154   4.062   5.343
41069SOL    HW125046   8.124   4.072   5.253
41069SOL    HW225047   8.248   4.045   5.335
41070SOL     OW25048  14.748   0.254   6.223
41070SOL    HW125049  14.690   0.317   6.267
41070SOL    HW225050  14.700   0.171   6.228
41071SOL     OW25051   4.102  10.930  10.990
41071SOL    HW125052   4.168  10.952  10.925
41071SOL    HW225053   4.126  10.980  11.067
41072SOL     OW25054   7.653  12.973   0.855
41072SOL    HW125055   7.728  12.921   0.886
41072SOL    HW225056   7.620  12.924   0.779
41073SOL     OW25057   6.607  13.557   1.742
41073SOL    HW125058   6.564  13.547   1.827
41073SOL    HW225059   6.654  13.641   1.749
41074SOL     OW25060  12.999   7.238   0.142
41074SOL    HW125061  13.023   7.325   0.176
41074SOL    HW225062  12.919   7.254   0.092
41075SOL     OW25063  14.853   8.767  12.158
41075SOL    HW125064   0.009   8.855  12.143
41075SOL    HW225065  14.758   8.774  12.145
41076SOL     OW25066  12.075   4.255   2.587
41076SOL    HW125067  12.138   4.190   2.556
41076SOL    HW225068  12.107   4.338   2.551
41077SOL     OW25069   4.561   2.366   5.877
41077SOL    HW125070   4.599   2.402   5.797
41077SOL    HW225071   4.469   2.351   5.856
41078SOL     OW25072   0.499   0.172   3.996
41078SOL    HW125073   0.492   0.268   3.999
41078SOL    HW225074   0.463   0.143   4.080
41079SOL     OW25075   0.795   8.708  13.832
41079SOL    HW125076   0.726   8.775  13.829
41079SOL    HW225077   0.766   8.647  13.899
41080SOL     OW25078   8.134  12.783   6.775
41080SOL    HW125079   8.168  12.699   6.743
41080SOL    HW225080   8.043  12.784   6.746
41081SOL     OW25081   2.218   3.730   2.507
41081SOL    HW125082   2.268   3.812   2.506
41081SOL    HW225083   2.127   3.757   2.520
41082SOL     OW25084   4.794   8.373  13.768
41082SOL    HW125085   4.706   8.344  13.743
41082SOL    HW225086   4.851   8.340  13.699
41083SOL     OW25087   1.747   3.991   8.030
41083SOL    HW125088   1.773   3.900   8.015
41083SOL    HW225089   1.708   3.991   8.118
41084SOL     OW25090  11.162   5.667  11.021
41084SOL    HW125091  11.157   5.581  10.980
41084SOL    HW225092  11.214   5.653  11.101
41085SOL     OW25093   3.566   1.450  10.779
41085SOL    HW125094   3.511   1.406  10.714
41085SOL    HW225095   3.617   1.513  10.727
41086SOL     OW25096  14.002   9.707   8.665
41086SOL    HW125097  14.090   9.729   8.696
41086SOL    HW225098  13.951   9.786   8.683
41087SOL     OW25099   0.084   9.756   5.057
41087SOL    HW125100   0.080   9.663   5.081
41087SOL    HW225101   0.014   9.797   5.108
41088SOL     OW25102  13.149   6.796   4.255
41088SOL    HW125103  13.185   6.734   4.192
41088SOL    HW225104  13.099   6.858   4.202
41089SOL     OW25105  10.361   9.651   3.889
41089SOL    HW125106  10.303   9.620   3.959
41089SOL    HW225107  10.409   9.573   3.862
41090SOL     OW25108   9.102   0.028   3.017
41090SOL    HW125109   9.155   0.092   2.969
41090SOL    HW225110   9.077  14.839   2.952
41091SOL     OW25111   8.057   5.152  12.442
41091SOL    HW125112   8.005   5.207  12.501
41091SOL    HW225113   8.109   5.215  12.391
41092SOL     OW25114  13.052   3.763   0.752
41092SOL    HW125115  13.056   3.823   0.827
41092SOL    HW225116  13.121   3.699   0.770
41093SOL     OW25117   1.445   5.291  14.875
41093SOL    HW125118   1.363   5.326   0.033
41093SOL    HW225119   1.507   5.297   0.072
41094SOL     OW25120  13.428   7.162   3.294
41094SOL    HW125121  13.417   7.238   3.351
41094SOL    HW225122  13.422   7.198   3.205
41095SOL     OW25123   5.293   7.640  14.338
41095SOL    HW125124   5.237   7.677  14.270
41095SOL    HW225125   5.242   7.567  14.373
41096SOL     OW25126   1.749  14.531   1.698
41096SOL    HW125127   1.659  14.565   1.695
41096SOL    HW225128   1.798  14.588   1.640
41097SOL     OW25129   1.605   7.042   9.777
41097SOL    HW125130   1.572   7.130   9.758
41097SOL    HW225131   1.560   7.017   9.857
41098SOL     OW25132   6.690   0.560  13.243
41098SOL    HW125133   6.714   0.474  13.278
41098SOL    HW225134   6.643   0.540  13.161
41099SOL     OW25135   9.349  11.750  12.998
41099SOL    HW125136   9.337  11.838  13.035
41099SOL    HW225137   9.270  11.703  13.024
41100SOL     OW25138   9.044   6.329  13.823
41100SOL    HW125139   8.982   6.271  13.867
41100SOL    HW225140   9.042   6.301  13.731
41101SOL     OW25141   1.647  12.087  14.549
41101SOL    HW125142   1.698  12.010  14.573
41101SOL    HW225143   1.579  12.093  14.616
41102SOL     OW25144  12.187   3.152  10.357
41102SOL    HW125145  12.215   3.142  10.448
41102SOL    HW225146  12.253   3.210  10.318
41103SOL     OW25147   4.499  13.960  10.439
41103SOL    HW125148   4.537  13.955  10.527
41103SOL    HW225149   4.491  14.054  10.422
41104SOL     OW25150  13.215  12.676   4.634
41104SOL    HW125151  13.227  12.734   4.709
41104SOL    HW225152  13.303  12.650   4.609
41105SOL     OW25153   8.966  14.591   0.902
41105SOL    HW125154   9.056  14.559   0.910
41105SOL    HW225155   8.949  14.592   0.807
41106SOL     OW25156   1.253   9.846  14.133
41106SOL    HW125157   1.242   9.808  14.220
41106SOL    HW225158   1.190   9.800  14.077
41107SOL     OW25159   5.412   3.999  13.238
41107SOL    HW125160   5.437   4.084  13.202
41107SOL    HW225161   5.338   3.971  13.185
41108SOL     OW25162   9.129   7.743   0.980
41108SOL    HW125163   9.214   7.704   0.962
41108SOL    HW225164   9.147   7.836   0.994
41109SOL     OW25165   5.419  11.990   0.523
41109SOL    HW125166   5.395  11.912   0.572
41109SOL    HW225167   5.475  12.040   0.582
41110SOL     OW25168   7.974  10.320   1.524
41110SOL    HW125169   7.909  10.311   1.453
41110SOL    HW225170   7.938  10.267   1.595
41111SOL     OW25171   5.769   3.692   4.951
41111SOL    HW125172   5.777   3.600   4.975
41111SOL    HW225173   5.855   3.716   4.916
41112SOL     OW25174   6.427  14.396  11.976
41112SOL    HW125175   6.389  14.412  11.889
41112SOL    HW225176   6.398  14.470  12.029
41113SOL     OW25177   5.385   8.276   8.045
41113SOL    HW125178   5.292   8.253   8.041
41113SOL    HW225179   5.425   8.225   7.974
41114SOL     OW25180   4.138  10.648   8.981
41114SOL    HW125181   4.129  10.732   9.025
41114SOL    HW225182   4.107  10.584   9.045
41115SOL     OW25183   9.355   7.500  11.304
41115SOL    HW125184   9.425   7.559  11.332
41115SOL    HW225185   9.338   7.524  11.213
41116SOL     OW25186   4.714  11.849   0.737
41116SOL    HW125187   4.759  11.853   0.653
41116SOL    HW225188   4.694  11.756   0.750
41117SOL     OW25189   2.658   8.299  11.540
41117SOL    HW125190   2.563   8.288  11.543
41117SOL    HW225191   2.683   8.324  11.629
41118SOL     OW25192   1.893   4.746   0.790
41118SOL    HW125193   1.956   4.706   0.849
41118SOL    HW225194   1.822   4.775   0.847
41119SOL     OW25195  13.824   2.430  11.800
41119SOL    HW125196  13.762   2.503  11.807
41119SOL    HW225197  13.770   2.356  11.774
41120SOL     OW25198  11.431   9.332  10.441
41120SOL    HW125199  11.455   9.414  10.397
41120SOL    HW225200  11.337   9.340  10.457
41121SOL     OW25201   9.107   2.627   0.505
41121SOL    HW125202   9.202   2.631   0.512
41121SOL    HW225203   9.091   2.589   0.419
41122SOL     OW25204   5.227   4.619  14.034
41122SOL    HW125205   5.274   4.640  14.115
41122SOL    HW225206   5.282   4.552  13.992
41123SOL     OW25207  11.723   6.912   3.646
41123SOL    HW125208  11.698   6.903   3.738
41123SOL    HW225209  11.757   7.002   3.638
41124SOL     OW25210  11.453  12.429  11.326
41124SOL    HW125211  11.386  12.490  11.295
41124SOL    HW225212  11.536  12.471  11.304
41125SOL     OW25213   9.050  12.434   4.718
41125SOL    HW125214   9.053  12.506   4.655
41125SOL    HW225215   9.133  12.441   4.767
41126SOL     OW25216  14.361   9.379   2.635
41126SOL    HW125217  14.416   9.439   2.685
41126SOL    HW225218  14.375   9.404   2.544
41127SOL     OW25219   1.530   4.975   7.337
41127SOL    HW125220   1.626   4.970   7.338
41127SOL    HW225221   1.506   4.995   7.427
41128SOL     OW25222   0.681   7.271  13.687
41128SOL    HW125223   0.652   7.322  13.612
41128SOL    HW225224   0.640   7.185  13.675
41129SOL     OW25225   5.710   7.742  13.121
41129SOL    HW125226   5.709   7.779  13.032
41129SOL    HW225227   5.734   7.816  13.177
41130SOL     OW25228  13.971  14.643  13.189
41130SOL    HW125229  13.989  14.724  13.238
41130SOL    HW225230  13.923  14.673  13.111
41131SOL     OW25231  13.143   4.580  14.774
41131SOL    HW125232  13.077   4.649  14.783
41131SOL    HW225233  13.121   4.517  14.842
41132SOL     OW25234   3.399  12.354   3.145
41132SOL    HW125235   3.407  12.281   3.083
41132SOL    HW225236   3.470  12.340   3.208
41133SOL     OW25237   4.671   9.094  11.362
41133SOL    HW125238   4.617   9.081  11.284
41133SOL    HW225239   4.761   9.097  11.329
41134SOL     OW25240   1.153   8.583  13.854
41134SOL    HW125241   1.239   8.541  13.858
41134SOL    HW225242   1.135   8.608  13.945
41135SOL     OW25243   3.371   3.011  12.897
41135SOL    HW125244   3.334   2.999  12.810
41135SOL    HW225245   3.448   2.954  12.899
41136SOL     OW25246   9.632   5.647   6.627
41136SOL    HW125247   9.603   5.566   6.583
41136SOL    HW225248   9.623   5.715   6.560
41137SOL     OW25249   9.113  12.984  14.125
41137SOL    HW125250   9.025  12.971  14.160
41137SOL    HW225251   9.100  13.039  14.047
41138SOL     OW25252   6.244  12.224  14.529
41138SOL    HW125253   6.182  12.172  14.580
41138SOL    HW225254   6.330  12.192  14.556
41139SOL     OW25255   9.895   6.108   3.757
41139SOL    HW125256   9.928   6.187   3.800
41139SOL    HW225257   9.832   6.072   3.819
41140SOL     OW25258   7.697   2.712  12.626
41140SOL    HW125259   7.698   2.705  12.722
41140SOL    HW225260   7.604   2.721  12.604
41141SOL     OW25261   3.755   9.903  13.430
41141SOL    HW125262   3.771   9.844  13.356
41141SOL    HW225263   3.811   9.978  13.414
41142SOL     OW25264   1.883   8.958   3.071
41142SOL    HW125265   1.964   9.010   3.068
41142SOL    HW225266   1.879   8.916   2.985
41143SOL     OW25267   7.193   0.412   7.143
41143SOL    HW125268   7.130   0.477   7.174
41143SOL    HW225269   7.262   0.413   7.208
41144SOL     OW25270   6.977   4.355   0.915
41144SOL    HW125271   6.950   4.339   0.825
41144SOL    HW225272   6.982   4.450   0.923
41145SOL     OW25273   9.403  12.452   7.097
41145SOL    HW125274   9.488  12.439   7.055
41145SOL    HW225275   9.416  12.424   7.187
41146SOL     OW25276   9.064  13.525   3.054
41146SOL    HW125277   8.992  13.576   3.016
41146SOL    HW225278   9.021  13.462   3.112
41147SOL     OW25279   8.933   7.983  10.244
41147SOL    HW125280   8.928   8.048  10.314
41147SOL    HW225281   8.922   7.899  10.288
41148SOL     OW25282   5.205  10.860   5.079
41148SOL    HW125283   5.128  10.820   5.039
41148SOL    HW225284   5.267  10.787   5.089
41149SOL     OW25285   2.627  10.641  14.467
41149SOL    HW125286   2.692  10.604  14.407
41149SOL    HW225287   2.549  10.588  14.454
41150SOL     OW25288  13.765   6.062   7.218
41150SOL    HW125289  13.685   6.050   7.268
41150SOL    HW225290  13.801   5.974   7.208
41151SOL     OW25291   4.922   8.689   8.356
41151SOL    HW125292   4.956   8.762   8.408
41151SOL    HW225293   4.828   8.704   8.352
41152SOL     OW25294   0.379  10.506   3.682
41152SOL    HW125295   0.411  10.421   3.654
41152SOL    HW225296   0.415  10.519   3.769
41153SOL     OW25297   2.869   6.043   5.514
41153SOL    HW125298   2.833   5.959   5.543
41153SOL    HW225299   2.961   6.040   5.540
41154SOL     OW25300   2.458   3.926  12.493
41154SOL    HW125301   2.422   3.874  12.422
41154SOL    HW225302   2.412   4.010  12.487
41155SOL     OW25303   2.029   4.238  11.032
41155SOL    HW125304   2.013   4.254  10.939
41155SOL    HW225305   2.016   4.144  11.043
41156SOL     OW25306   7.876  13.328   3.370
41156SOL    HW125307   7.947  13.318   3.434
41156SOL    HW225308   7.796  13.315   3.421
41157SOL     OW25309   3.991  10.359  11.045
41157SOL    HW125310   4.025  10.410  11.118
41157SOL    HW225311   4.063  10.301  11.020
41158SOL     OW25312   8.619  11.113  11.785
41158SOL    HW125313   8.696  11.151  11.742
41158SOL    HW225314   8.546  11.133  11.727
41159SOL     OW25315   6.488   2.102  10.352
41159SOL    HW125316   6.471   2.034  10.287
41159SOL    HW225317   6.513   2.179  10.301
41160SOL     OW25318  13.960  13.637   1.381
41160SOL    HW125319  13.978  13.684   1.299
41160SOL    HW225320  13.865  13.628   1.382
41161SOL     OW25321   4.755  14.304  12.231
41161SOL    HW125322   4.785  14.388  12.197
41161SOL    HW225323   4.785  14.240  12.166
41162SOL     OW25324   0.901   0.279   2.063
41162SOL    HW125325   0.868   0.191   2.045
41162SOL    HW225326   0.823   0.335   2.063
41163SOL     OW25327   7.655   1.866  13.285
41163SOL    HW125328   7.587   1.929  13.261
41163SOL    HW225329   7.715   1.865  13.211
41164SOL     OW25330   0.328  12.214   7.695
41164SOL    HW125331   0.330  12.229   7.600
41164SOL    HW225332   0.258  12.150   7.708
41165SOL     OW25333   9.122   9.948   1.689
41165SOL    HW125334   9.135  10.036   1.654
41165SOL    HW225335   9.205   9.903   1.673
41166SOL     OW25336   1.963   4.165   6.127
41166SOL    HW125337   1.982   4.072   6.140
41166SOL    HW225338   1.926   4.169   6.039
41167SOL     OW25339   7.397  10.940   6.099
41167SOL    HW125340   7.305  10.959   6.120
41167SOL    HW225341   7.425  11.012   6.044
41168SOL     OW25342   3.079   8.934  13.886
41168SOL    HW125343   3.017   9.005  13.902
41168SOL    HW225344   3.150   8.950  13.948
41169SOL     OW25345   6.984   6.062   5.828
41169SOL    HW125346   6.944   6.105   5.903
41169SOL    HW225347   6.936   5.979   5.819
41170SOL     OW25348   8.925   5.392   2.884
41170SOL    HW125349   8.858   5.367   2.948
41170SOL    HW225350   8.982   5.451   2.932
41171SOL     OW25351  10.862   5.147   2.412
41171SOL    HW125352  10.907   5.230   2.423
41171SOL    HW225353  10.804   5.160   2.337
41172SOL     OW25354  10.345  10.557   8.208
41172SOL    HW125355  10.390  10.598   8.282
41172SOL    HW225356  10.331  10.466   8.236
41173SOL     OW25357   3.523   1.021  14.103
41173SOL    HW125358   3.602   1.009  14.051
41173SOL    HW225359   3.546   0.989  14.190
41174SOL     OW25360   8.049   6.337   1.335
41174SOL    HW125361   8.023   6.247   1.318
41174SOL    HW225362   8.018   6.386   1.259
41175SOL     OW25363   3.237  13.313   2.150
41175SOL    HW125364   3.218  13.227   2.187
41175SOL    HW225365   3.317  13.342   2.194
41176SOL     OW25366   3.622  13.854   8.397
41176SOL    HW125367   3.607  13.797   8.321
41176SOL    HW225368   3.716  13.847   8.414
41177SOL     OW25369   4.426  10.242  14.355
41177SOL    HW125370   4.394  10.264  14.267
41177SOL    HW225371   4.515  10.278  14.358
41178SOL     OW25372   5.149   0.523   6.607
41178SOL    HW125373   5.108   0.604   6.639
41178SOL    HW225374   5.232   0.552   6.569
41179SOL     OW25375  14.565   8.719  12.104
41179SOL    HW125376  14.481   8.757  12.078
41179SOL    HW225377  14.544   8.663  12.179
41180SOL     OW25378  14.768   4.033  14.180
41180SOL    HW125379  14.753   3.946  14.145
41180SOL    HW225380  14.823   4.018  14.257
41181SOL     OW25381   1.045   9.505   9.370
41181SOL    HW125382   0.972   9.560   9.397
41181SOL    HW225383   1.005   9.425   9.338
41182SOL     OW25384  14.437   6.378   2.511
41182SOL    HW125385  14.470   6.394   2.599
41182SOL    HW225386  14.379   6.452   2.493
41183SOL     OW25387  10.260   6.668  12.323
41183SOL    HW125388  10.248   6.760  12.347
41183SOL    HW225389  10.291   6.627  12.403
41184SOL     OW25390   3.795  14.018   8.178
41184SOL    HW125391   3.792  14.000   8.272
41184SOL    HW225392   3.863  13.959   8.144
41185SOL     OW25393  11.527   6.051   3.846
41185SOL    HW125394  11.496   5.988   3.781
41185SOL    HW225395  11.621   6.033   3.854
41186SOL     OW25396   7.614   1.426  10.214
41186SOL    HW125397   7.653   1.351  10.169
41186SOL    HW225398   7.650   1.422  10.303
41187SOL     OW25399   7.316   6.079   9.942
41187SOL    HW125400   7.327   6.093   9.848
41187SOL    HW225401   7.223   6.096   9.957
41188SOL     OW25402   4.281   7.177   6.456
41188SOL    HW125403   4.345   7.178   6.385
41188SOL    HW225404   4.266   7.269   6.476
41189SOL     OW25405  12.747   0.950  10.399
41189SOL    HW125406  12.778   1.038  10.379
41189SOL    HW225407  12.755   0.943  10.494
41190SOL     OW25408   6.831   3.782   3.474
41190SOL    HW125409   6.754   3.739   3.436
41190SOL    HW225410   6.896   3.713   3.481
41191SOL     OW25411   4.617  13.658   2.002
41191SOL    HW125412   4.593  13.565   2.002
41191SOL    HW225413   4.708  13.660   2.033
41192SOL     OW25414   4.631  12.773   3.893
41192SOL    HW125415   4.554  12.718   3.888
41192SOL    HW225416   4.597  12.862   3.902
41193SOL     OW25417  10.688   7.392   6.276
41193SOL    HW125418  10.710   7.349   6.194
41193SOL    HW225419  10.676   7.484   6.253
41194SOL     OW25420   8.714   4.351   7.127
41194SOL    HW125421   8.756   4.435   7.111
41194SOL    HW225422   8.781   4.298   7.170
41195SOL     OW25423   3.750   1.352  10.470
41195SOL    HW125424   3.672   1.343  10.416
41195SOL    HW225425   3.822   1.321  10.414
41196SOL     OW25426  13.546  13.367   6.881
41196SOL    HW125427  13.553  13.316   6.961
41196SOL    HW225428  13.530  13.456   6.910
41197SOL     OW25429   5.064   8.127  14.562
41197SOL    HW125430   5.097   8.041  14.538
41197SOL    HW225431   5.026   8.115  14.649
41198SOL     OW25432  10.685   1.917   0.022
41198SOL    HW125433  10.683   1.895  14.805
41198SOL    HW225434  10.753   1.985   0.029
41199SOL     OW25435   6.710   7.164  13.481
41199SOL    HW125436   6.644   7.231  13.464
41199SOL    HW225437   6.663   7.081  13.479
41200SOL     OW25438   0.724   3.575  11.496
41200SOL    HW125439   0.764   3.526  11.424
41200SOL    HW225440   0.774   3.548  11.573
41201SOL     OW25441   2.386   0.490  14.135
41201SOL    HW125442   2.365   0.526  14.049
41201SOL    HW225443   2.399   0.396  14.120
41202SOL     OW25444   4.064  10.174   6.027
41202SOL    HW125445   4.085  10.247   5.968
41202SOL    HW225446   4.129  10.181   6.097
41203SOL     OW25447  13.215   6.820  12.370
41203SOL    HW125448  13.252   6.874  12.300
41203SOL    HW225449  13.158   6.879  12.419
41204SOL     OW25450  10.828  14.072   6.087
41204SOL    HW125451  10.903  14.112   6.131
41204SOL    HW225452  10.864  13.996   6.042
41205SOL     OW25453   1.929  11.863   1.454
41205SOL    HW125454   1.864  11.823   1.396
41205SOL    HW225455   1.998  11.797   1.460
41206SOL     OW25456   2.575   4.968  10.389
41206SOL    HW125457   2.486   4.931  10.387
41206SOL    HW225458   2.630   4.900  10.349
41207SOL     OW25459   8.966   0.358  13.419
41207SOL    HW125460   9.032   0.402  13.470
41207SOL    HW225461   8.951   0.415  13.343
41208SOL     OW25462   7.758   2.982  12.154
41208SOL    HW125463   7.752   3.077  12.154
41208SOL    HW225464   7.787   2.960  12.065
41209SOL     OW25465   7.092   0.605   9.397
41209SOL    HW125466   7.104   0.550   9.319
41209SOL    HW225467   7.160   0.576   9.457
41210SOL     OW25468  13.794  10.522   7.196
41210SOL    HW125469  13.763  10.439   7.161
41210SOL    HW225470  13.880  10.503   7.233
41211SOL     OW25471   4.138  10.695   6.853
41211SOL    HW125472   4.194  10.618   6.849
41211SOL    HW225473   4.090  10.686   6.936
41212SOL     OW25474  11.367   9.028  13.715
41212SOL    HW125475  11.434   9.076  13.667
41212SOL    HW225476  11.289   9.033  13.660
41213SOL     OW25477   1.117   1.343   0.486
41213SOL    HW125478   1.052   1.314   0.423
41213SOL    HW225479   1.133   1.435   0.463
41214SOL     OW25480   4.198   6.634  11.542
41214SOL    HW125481   4.290   6.619  11.519
41214SOL    HW225482   4.201   6.707  11.604
41215SOL     OW25483  13.880   2.824   0.658
41215SOL    HW125484  13.962   2.792   0.620
41215SOL    HW225485  13.817   2.754   0.642
41216SOL     OW25486   2.991   3.653   2.526
41216SOL    HW125487   2.905   3.651   2.568
41216SOL    HW225488   3.041   3.717   2.577
41217SOL     OW25489   5.794   0.807   0.835
41217SOL    HW125490   5.698   0.802   0.843
41217SOL    HW225491   5.822   0.716   0.826
41218SOL     OW25492  10.138  14.124   6.263
41218SOL    HW125493  10.149  14.218   6.279
41218SOL    HW225494  10.051  14.104   6.297
41219SOL     OW25495   9.555   1.401   9.875
41219SOL    HW125496   9.608   1.391   9.954
41219SOL    HW225497   9.527   1.312   9.854
41220SOL     OW25498   5.256   6.538  13.973
41220SOL    HW125499   5.222   6.627  13.980
41220SOL    HW225500   5.351   6.549  13.965
41221SOL     OW25501  14.600   2.308   4.879
41221SOL    HW125502  14.529   2.265   4.928
41221SOL    HW225503  14.577   2.401   4.882
41222SOL     OW25504   1.501  11.450   6.592
41222SOL    HW125505   1.416  11.439   6.636
41222SOL    HW225506   1.486  11.520   6.529
41223SOL     OW25507  10.172   7.876   2.080
41223SOL    HW125508  10.241   7.810   2.076
41223SOL    HW225509  10.094   7.827   2.107
41224SOL     OW25510   2.727  13.885   1.545
41224SOL    HW125511   2.687  13.856   1.628
41224SOL    HW225512   2.791  13.817   1.525
41225SOL     OW25513   2.437   1.345   5.299
41225SOL    HW125514   2.395   1.423   5.337
41225SOL    HW225515   2.503   1.380   5.240
41226SOL     OW25516   1.964  13.164  11.983
41226SOL    HW125517   1.986  13.256  11.968
41226SOL    HW225518   1.942  13.130  11.896
41227SOL     OW25519   9.241  10.617   3.811
41227SOL    HW125520   9.237  10.529   3.849
41227SOL    HW225521   9.201  10.608   3.724
41228SOL     OW25522   0.179  14.467  11.880
41228SOL    HW125523   0.191  14.537  11.817
41228SOL    HW225524   0.085  14.461  11.893
41229SOL     OW25525   1.031   5.803   0.729
41229SOL    HW125526   0.978   5.881   0.713
41229SOL    HW225527   1.121   5.836   0.739
41230SOL     OW25528  14.622   5.929  11.952
41230SOL    HW125529  14.602   5.982  11.875
41230SOL    HW225530  14.538   5.887  11.974
41231SOL     OW25531   0.580   0.188   9.870
41231SOL    HW125532   0.517   0.260   9.865
41231SOL    HW225533   0.642   0.215   9.938
41232SOL     OW25534   4.517   4.716   7.247
41232SOL    HW125535   4.557   4.635   7.217
41232SOL    HW225536   4.424   4.706   7.225
41233SOL     OW25537  12.741   9.957  12.232
41233SOL    HW125538  12.760   9.878  12.283
41233SOL    HW225539  12.828   9.995  12.215
41234SOL     OW25540   1.658   7.108  11.983
41234SOL    HW125541   1.717   7.155  12.042
41234SOL    HW225542   1.591   7.172  11.959
41235SOL     OW25543  12.026   0.109   5.229
41235SOL    HW125544  12.119   0.098   5.250
41235SOL    HW225545  12.022   0.097   5.134
41236SOL     OW25546   0.088   3.190   3.859
41236SOL    HW125547   0.156   3.239   3.906
41236SOL    HW225548   0.034   3.152   3.929
41237SOL     OW25549   1.531   0.230  10.081
41237SOL    HW125550   1.526   0.318  10.120
41237SOL    HW225551   1.448   0.189  10.105
41238SOL     OW25552   9.520   0.843   4.297
41238SOL    HW125553   9.601   0.878   4.262
41238SOL    HW225554   9.513   0.881   4.385
41239SOL     OW25555   9.942  11.219  13.476
41239SOL    HW125556  10.032  11.198  13.448
41239SOL    HW225557   9.895  11.237  13.394
41240SOL     OW25558   5.083   5.748   7.069
41240SOL    HW125559   5.091   5.721   7.161
41240SOL    HW225560   5.119   5.674   7.020
41241SOL     OW25561   3.071   8.540   9.949
41241SOL    HW125562   3.114   8.479   9.889
41241SOL    HW225563   3.132   8.614   9.955
41242SOL     OW25564   9.002   2.337   1.345
41242SOL    HW125565   8.956   2.368   1.266
41242SOL    HW225566   8.961   2.386   1.417
41243SOL     OW25567  12.289  10.086   0.631
41243SOL    HW125568  12.223  10.076   0.563
41243SOL    HW225569  12.308   9.997   0.659
41244SOL     OW25570   9.325   9.747   1.877
41244SOL    HW125571   9.382   9.789   1.941
41244SOL    HW225572   9.278   9.680   1.927
41245SOL     OW25573   2.800   0.008   9.619
41245SOL    HW125574   2.821  14.834   9.697
41245SOL    HW225575   2.785   0.097   9.650
41246SOL     OW25576  13.840  14.064   9.057
41246SOL    HW125577  13.835  13.976   9.021
41246SOL    HW225578  13.774  14.065   9.127
41247SOL     OW25579   9.996  12.671  10.070
41247SOL    HW125580  10.010  12.623  10.151
41247SOL    HW225581  10.060  12.742  10.073
41248SOL     OW25582   7.530   6.351   9.596
41248SOL    HW125583   7.595   6.416   9.571
41248SOL    HW225584   7.545   6.278   9.536
41249SOL     OW25585  10.266   8.498   5.027
41249SOL    HW125586  10.347   8.465   5.064
41249SOL    HW225587  10.225   8.548   5.098
41250SOL     OW25588   2.000   1.616   9.934
41250SOL    HW125589   2.092   1.618   9.960
41250SOL    HW225590   1.954   1.579  10.009
41251SOL     OW25591  12.494   4.076  10.125
41251SOL    HW125592  12.407   4.045  10.149
41251SOL    HW225593  12.549   4.056  10.201
41252SOL     OW25594   5.359  10.691   3.866
41252SOL    HW125595   5.288  10.686   3.802
41252SOL    HW225596   5.421  10.623   3.838
41253SOL     OW25597  14.374   1.807   3.774
41253SOL    HW125598  14.454   1.758   3.757
41253SOL    HW225599  14.375   1.877   3.710
41254SOL     OW25600   2.897  10.537   3.423
41254SOL    HW125601   2.891  10.453   3.468
41254SOL    HW225602   2.943  10.594   3.484
41255SOL     OW25603   2.596  11.318   3.689
41255SOL    HW125604   2.658  11.390   3.698
41255SOL    HW225605   2.643  11.241   3.721
41256SOL     OW25606  11.426   5.335   4.468
41256SOL    HW125607  11.407   5.423   4.437
41256SOL    HW225608  11.517   5.320   4.443
41257SOL     OW25609   9.528  10.705   1.545
41257SOL    HW125610   9.547  10.727   1.637
41257SOL    HW225611   9.445  10.749   1.526
41258SOL     OW25612   4.370  14.603   5.140
41258SOL    HW125613   4.407  14.546   5.073
41258SOL    HW225614   4.433  14.599   5.212
41259SOL     OW25615   5.295   3.617   8.248
41259SOL    HW125616   5.373   3.669   8.267
41259SOL    HW225617   5.298   3.601   8.154
41260SOL     OW25618   2.999   1.180   8.528
41260SOL    HW125619   3.048   1.198   8.608
41260SOL    HW225620   3.040   1.234   8.461
41261SOL     OW25621  14.511   9.194  10.750
41261SOL    HW125622  14.495   9.100  10.736
41261SOL    HW225623  14.597   9.209  10.712
41262SOL     OW25624   1.369   7.708   6.263
41262SOL    HW125625   1.278   7.678   6.268
41262SOL    HW225626   1.412   7.665   6.337
41263SOL     OW25627   9.310   3.786   3.454
41263SOL    HW125628   9.233   3.804   3.401
41263SOL    HW225629   9.290   3.825   3.539
41264SOL     OW25630   6.720   6.207   8.866
41264SOL    HW125631   6.693   6.277   8.805
41264SOL    HW225632   6.638   6.181   8.908
41265SOL     OW25633   3.919   0.465   0.826
41265SOL    HW125634   3.908   0.437   0.917
41265SOL    HW225635   4.006   0.434   0.802
41266SOL     OW25636   9.176   5.670  14.676
41266SOL    HW125637   9.183   5.763  14.699
41266SOL    HW225638   9.261   5.649  14.637
41267SOL     OW25639   5.454  11.578  10.919
41267SOL    HW125640   5.367  11.618  10.912
41267SOL    HW225641   5.501  11.608  10.842
41268SOL     OW25642   0.738   3.919   6.848
41268SOL    HW125643   0.692   3.934   6.931
41268SOL    HW225644   0.684   3.962   6.782
41269SOL     OW25645   6.194  14.621  11.600
41269SOL    HW125646   6.121  14.600  11.542
41269SOL    HW225647   6.177  14.710  11.630
41270SOL     OW25648  14.526   6.872   5.928
41270SOL    HW125649  14.501   6.824   6.007
41270SOL    HW225650  14.602   6.924   5.954
41271SOL     OW25651  14.246   0.017  14.861
41271SOL    HW125652  14.224   0.087   0.045
41271SOL    HW225653  14.289  14.827   0.039
41272SOL     OW25654   0.141  11.986   2.451
41272SOL    HW125655   0.212  11.923   2.452
41272SOL    HW225656   0.063  11.935   2.433
41273SOL     OW25657  10.026  14.715   2.128
41273SOL    HW125658  10.082  14.788   2.101
41273SOL    HW225659   9.954  14.716   2.065
41274SOL     OW25660   4.553   1.341  10.163
41274SOL    HW125661   4.642   1.306  10.155
41274SOL    HW225662   4.512   1.319  10.079
41275SOL     OW25663   2.021   2.433   9.626
41275SOL    HW125664   2.020   2.529   9.630
41275SOL    HW225665   1.942   2.411   9.577
41276SOL     OW25666  12.058  10.635  11.715
41276SOL    HW125667  12.028  10.544  11.711
41276SOL    HW225668  11.978  10.687  11.719
41277SOL     OW25669   4.463   9.353  11.157
41277SOL    HW125670   4.535   9.402  11.198
41277SOL    HW225671   4.395   9.349  11.224
41278SOL     OW25672   6.166  13.000  14.794
41278SOL    HW125673   6.120  13.012  14.711
41278SOL    HW225674   6.096  12.994  14.859
41279SOL     OW25675   3.429   6.772  10.546
41279SOL    HW125676   3.442   6.855  10.499
41279SOL    HW225677   3.472   6.707  10.490
41280SOL     OW25678  14.072   2.789  14.647
41280SOL    HW125679  14.097   2.834  14.728
41280SOL    HW225680  14.140   2.723  14.634
41281SOL     OW25681   4.705  11.111   6.991
41281SOL    HW125682   4.652  11.118   7.071
41281SOL    HW225683   4.750  11.195   6.984
41282SOL     OW25684  14.036   5.466   1.394
41282SOL    HW125685  14.069   5.511   1.317
41282SOL    HW225686  13.999   5.535   1.449
41283SOL     OW25687   0.292   2.984  13.830
41283SOL    HW125688   0.297   2.968  13.924
41283SOL    HW225689   0.231   3.057  13.821
41284SOL     OW25690   2.099   7.985   3.187
41284SOL    HW125691   2.151   7.944   3.257
41284SOL    HW225692   2.008   7.977   3.217
41285SOL     OW25693  10.581   2.725   4.536
41285SOL    HW125694  10.559   2.650   4.480
41285SOL    HW225695  10.570   2.692   4.626
41286SOL     OW25696  12.266   3.285  10.879
41286SOL    HW125697  12.188   3.333  10.849
41286SOL    HW225698  12.231   3.212  10.931
41287SOL     OW25699  14.587   9.761   8.495
41287SOL    HW125700  14.649   9.705   8.449
41287SOL    HW225701  14.522   9.784   8.428
41288SOL     OW25702  14.591  10.151   1.356
41288SOL    HW125703  14.510  10.202   1.348
41288SOL    HW225704  14.616  10.161   1.448
41289SOL     OW25705   4.315   1.005   9.246
41289SOL    HW125706   4.285   1.095   9.230
41289SOL    HW225707   4.406   1.015   9.274
41290SOL     OW25708   1.837   9.152  10.823
41290SOL    HW125709   1.783   9.150  10.743
41290SOL    HW225710   1.850   9.245  10.839
41291SOL     OW25711   2.447  13.818   8.438
41291SOL    HW125712   2.447  13.728   8.473
41291SOL    HW225713   2.499  13.868   8.500
41292SOL     OW25714  10.810   3.680   3.754
41292SOL    HW125715  10.870   3.755   3.751
41292SOL    HW225716  10.741   3.701   3.692
41293SOL     OW25717   6.804   2.713   9.052
41293SOL    HW125718   6.834   2.744   9.137
41293SOL    HW225719   6.885   2.701   9.002
41294SOL     OW25720   8.998   9.879   7.716
41294SOL    HW125721   8.933   9.809   7.719
41294SOL    HW225722   9.030   9.879   7.626
41295SOL     OW25723   1.779   4.067   8.434
41295SOL    HW125724   1.772   4.138   8.497
41295SOL    HW225725   1.752   4.106   8.351
41296SOL     OW25726   9.777   8.702   0.238
41296SOL    HW125727   9.687   8.733   0.240
41296SOL    HW225728   9.770   8.609   0.216
41297SOL     OW25729   3.297   6.882   8.339
41297SOL    HW125730   3.318   6.953   8.400
41297SOL    HW225731   3.216   6.845   8.372
41298SOL     OW25732   4.146  13.382  11.000
41298SOL    HW125733   4.173  13.390  10.909
41298SOL    HW225734   4.170  13.292  11.025
41299SOL     OW25735  10.748   0.872   0.091
41299SOL    HW125736  10.730   0.964   0.069
41299SOL    HW225737  10.703   0.822   0.024
41300SOL     OW25738   5.344   8.529   5.818
41300SOL    HW125739   5.317   8.457   5.762
41300SOL    HW225740   5.385   8.487   5.893
41301SOL     OW25741   4.585  11.273   1.748
41301SOL    HW125742   4.646  11.199   1.743
41301SOL    HW225743   4.499  11.235   1.728
41302SOL     OW25744  12.983   9.957   1.787
41302SOL    HW125745  12.971  10.006   1.869
41302SOL    HW225746  12.942  10.012   1.720
41303SOL     OW25747   6.923   4.997   5.819
41303SOL    HW125748   6.922   4.902   5.828
41303SOL    HW225749   6.887   5.013   5.732
41304SOL     OW25750  10.856   3.647  10.974
41304SOL    HW125751  10.795   3.719  10.957
41304SOL    HW225752  10.832   3.579  10.911
41305SOL     OW25753   2.707   2.935  12.924
41305SOL    HW125754   2.802   2.927  12.937
41305SOL    HW225755   2.675   2.845  12.935
41306SOL     OW25756   0.281   9.282   8.165
41306SOL    HW125757   0.240   9.360   8.201
41306SOL    HW225758   0.213   9.215   8.167
41307SOL     OW25759   1.640   5.345   8.524
41307SOL    HW125760   1.601   5.396   8.595
41307SOL    HW225761   1.655   5.409   8.454
41308SOL     OW25762   5.221   6.362  10.773
41308SOL    HW125763   5.298   6.416  10.789
41308SOL    HW225764   5.205   6.317  10.856
41309SOL     OW25765   8.884   7.188   9.373
41309SOL    HW125766   8.856   7.097   9.365
41309SOL    HW225767   8.837   7.233   9.302
41310SOL     OW25768   0.545  14.542   7.587
41310SOL    HW125769   0.549  14.610   7.654
41310SOL    HW225770   0.622  14.488   7.602
41311SOL     OW25771   7.242   5.383   3.732
41311SOL    HW125772   7.150   5.355   3.739
41311SOL    HW225773   7.244   5.436   3.652
41312SOL     OW25774   2.981   2.291  11.973
41312SOL    HW125775   2.938   2.279  11.888
41312SOL    HW225776   3.074   2.277  11.955
41313SOL     OW25777  10.650  10.044   5.191
41313SOL    HW125778  10.625  10.092   5.270
41313SOL    HW225779  10.663   9.954   5.221
41314SOL     OW25780   1.666   9.976   6.407
41314SOL    HW125781   1.632   9.924   6.479
41314SOL    HW225782   1.721  10.042   6.448
41315SOL     OW25783  11.884  10.920   0.861
41315SOL    HW125784  11.947  10.939   0.792
41315SOL    HW225785  11.910  10.834   0.894
41316SOL     OW25786  13.848  13.452  14.177
41316SOL    HW125787  13.943  13.450  14.176
41316SOL    HW225788  13.822  13.383  14.116
41317SOL     OW25789  11.459   5.581   8.345
41317SOL    HW125790  11.432   5.492   8.369
41317SOL    HW225791  11.428   5.591   8.255
41318SOL     OW25792  13.885  13.853   7.315
41318SOL    HW125793  13.829  13.782   7.284
41318SOL    HW225794  13.910  13.826   7.404
41319SOL     OW25795   0.047   5.802   1.084
41319SOL    HW125796  14.830   5.804   1.064
41319SOL    HW225797   0.070   5.895   1.096
41320SOL     OW25798   6.129   6.588   4.613
41320SOL    HW125799   6.070   6.562   4.683
41320SOL    HW225800   6.096   6.673   4.584
41321SOL     OW25801   0.823   4.221   6.711
41321SOL    HW125802   0.778   4.149   6.667
41321SOL    HW225803   0.870   4.180   6.783
41322SOL     OW25804   4.190   9.617  13.161
41322SOL    HW125805   4.134   9.552  13.203
41322SOL    HW225806   4.259   9.566  13.119
41323SOL     OW25807   7.858  10.377  14.642
41323SOL    HW125808   7.778  10.326  14.654
41323SOL    HW225809   7.923  10.333  14.696
41324SOL     OW25810   0.245   5.658   6.988
41324SOL    HW125811   0.278   5.639   7.076
41324SOL    HW225812   0.187   5.733   6.999
41325SOL     OW25813   0.661   2.699   2.329
41325SOL    HW125814   0.637   2.661   2.413
41325SOL    HW225815   0.756   2.683   2.322
41326SOL     OW25816  13.453   1.138   3.128
41326SOL    HW125817  13.436   1.187   3.208
41326SOL    HW225818  13.548   1.132   3.122
41327SOL     OW25819  13.850   6.302   9.687
41327SOL    HW125820  13.935   6.340   9.664
41327SOL    HW225821  13.871   6.228   9.744
41328SOL     OW25822   4.997   7.867   9.149
41328SOL    HW125823   4.954   7.842   9.067
41328SOL    HW225824   5.012   7.961   9.140
41329SOL     OW25825   6.457  14.014   8.052
41329SOL    HW125826   6.511  14.082   8.012
41329SOL    HW225827   6.460  13.941   7.990
41330SOL     OW25828   4.937   8.298   6.073
41330SOL    HW125829   5.018   8.266   6.113
41330SOL    HW225830   4.867   8.254   6.122
41331SOL     OW25831   9.288   0.399  11.226
41331SOL    HW125832   9.319   0.311  11.248
41331SOL    HW225833   9.285   0.444  11.311
41332SOL     OW25834  14.861  13.773   9.127
41332SOL    HW125835  14.828  13.712   9.193
41332SOL    HW225836  14.782  13.807   9.084
41333SOL     OW25837   0.061   1.092   7.298
41333SOL    HW125838   0.117   1.162   7.265
41333SOL    HW225839   0.107   1.059   7.375
41334SOL     OW25840   7.650   4.372   9.488
41334SOL    HW125841   7.732   4.421   9.485
41334SOL    HW225842   7.587   4.428   9.441
41335SOL     OW25843  12.888   0.957   1.853
41335SOL    HW125844  12.874   1.044   1.816
41335SOL    HW225845  12.957   0.969   1.918
41336SOL     OW25846   7.400   9.855   6.035
41336SOL    HW125847   7.374   9.796   5.964
41336SOL    HW225848   7.430   9.934   5.990
41337SOL     OW25849   5.881  11.385   9.688
41337SOL    HW125850   5.923  11.305   9.656
41337SOL    HW225851   5.822  11.355   9.758
41338SOL     OW25852   4.127   8.675   2.462
41338SOL    HW125853   4.150   8.619   2.536
41338SOL    HW225854   4.034   8.660   2.447
41339SOL     OW25855   6.589   2.424   7.744
41339SOL    HW125856   6.632   2.433   7.659
41339SOL    HW225857   6.522   2.357   7.730
41340SOL     OW25858  14.458  11.670  12.093
41340SOL    HW125859  14.413  11.697  12.173
41340SOL    HW225860  14.481  11.579  12.108
41341SOL     OW25861   9.149   9.396   8.260
41341SOL    HW125862   9.127   9.448   8.183
41341SOL    HW225863   9.075   9.409   8.320
41342SOL     OW25864   2.336   4.673  13.615
41342SOL    HW125865   2.370   4.589  13.645
41342SOL    HW225866   2.413   4.720  13.581
41343SOL     OW25867  14.402  10.104  13.779
41343SOL    HW125868  14.410  10.022  13.826
41343SOL    HW225869  14.463  10.163  13.824
41344SOL     OW25870   0.743   1.589  13.662
41344SOL    HW125871   0.690   1.652  13.710
41344SOL    HW225872   0.833   1.620  13.672
41345SOL     OW25873   5.019  14.270  14.455
41345SOL    HW125874   4.958  14.198  14.437
41345SOL    HW225875   5.042  14.304  14.368
41346SOL     OW25876   1.311   5.652   2.470
41346SOL    HW125877   1.371   5.599   2.522
41346SOL    HW225878   1.367   5.709   2.418
41347SOL     OW25879   8.683   2.464   5.118
41347SOL    HW125880   8.767   2.444   5.076
41347SOL    HW225881   8.640   2.524   5.057
41348SOL     OW25882   5.600   1.306   9.953
41348SOL    HW125883   5.559   1.339   9.873
41348SOL    HW225884   5.527   1.285  10.011
41349SOL     OW25885   6.873   5.687  12.937
41349SOL    HW125886   6.842   5.768  12.979
41349SOL    HW225887   6.967   5.699  12.927
41350SOL     OW25888   4.436   8.611   7.123
41350SOL    HW125889   4.468   8.529   7.160
41350SOL    HW225890   4.495   8.630   7.051
41351SOL     OW25891   6.797  11.100  12.784
41351SOL    HW125892   6.885  11.104  12.821
41351SOL    HW225893   6.809  11.109  12.690
41352SOL     OW25894   7.683  11.504  10.395
41352SOL    HW125895   7.630  11.424  10.393
41352SOL    HW225896   7.696  11.526  10.302
41353SOL     OW25897   7.436  10.082  11.575
41353SOL    HW125898   7.480  10.017  11.520
41353SOL    HW225899   7.379  10.130  11.514
41354SOL     OW25900   0.598   9.556   6.375
41354SOL    HW125901   0.659   9.583   6.442
41354SOL    HW225902   0.524   9.616   6.383
41355SOL     OW25903   8.965  13.272   4.558
41355SOL    HW125904   8.979  13.364   4.538
41355SOL    HW225905   8.904  13.242   4.491
41356SOL     OW25906   6.750   4.174   9.686
41356SOL    HW125907   6.706   4.101   9.644
41356SOL    HW225908   6.798   4.217   9.616
41357SOL     OW25909  12.523   7.658   1.178
41357SOL    HW125910  12.615   7.634   1.191
41357SOL    HW225911  12.485   7.653   1.266
41358SOL     OW25912   2.378   9.675  11.442
41358SOL    HW125913   2.419   9.761  11.432
41358SOL    HW225914   2.451   9.615  11.453
41359SOL     OW25915  14.871   8.961   4.027
41359SOL    HW125916   0.038   8.988   3.945
41359SOL    HW225917   0.007   9.035   4.086
41360SOL     OW25918   9.804   5.663  13.504
41360SOL    HW125919   9.715   5.688  13.527
41360SOL    HW225920   9.841   5.741  13.461
41361SOL     OW25921  14.134   1.517   3.203
41361SOL    HW125922  14.043   1.539   3.183
41361SOL    HW225923  14.130   1.428   3.238
41362SOL     OW25924   0.904  14.382   4.956
41362SOL    HW125925   0.860  14.327   5.021
41362SOL    HW225926   0.926  14.462   5.003
41363SOL     OW25927   5.624   9.743   3.672
41363SOL    HW125928   5.635   9.702   3.586
41363SOL    HW225929   5.677   9.822   3.669
41364SOL     OW25930   8.577  10.028   6.246
41364SOL    HW125931   8.505   9.979   6.287
41364SOL    HW225932   8.604   9.974   6.172
41365SOL     OW25933  10.662   2.711  12.311
41365SOL    HW125934  10.617   2.651  12.372
41365SOL    HW225935  10.745   2.732  12.354
41366SOL     OW25936   5.681   8.304   8.684
41366SOL    HW125937   5.599   8.286   8.729
41366SOL    HW225938   5.668   8.271   8.595
41367SOL     OW25939  13.510   0.461  13.524
41367SOL    HW125940  13.420   0.451  13.490
41367SOL    HW225941  13.563   0.480  13.446
41368SOL     OW25942   9.431  11.567   0.214
41368SOL    HW125943   9.429  11.472   0.228
41368SOL    HW225944   9.386  11.603   0.290
41369SOL     OW25945   7.436   6.138  14.809
41369SOL    HW125946   7.445   6.145   0.028
41369SOL    HW225947   7.354   6.183  14.790
41370SOL     OW25948  10.864   5.178  10.151
41370SOL    HW125949  10.909   5.226  10.221
41370SOL    HW225950  10.819   5.246  10.102
41371SOL     OW25951   1.651   1.557   2.822
41371SOL    HW125952   1.639   1.648   2.849
41371SOL    HW225953   1.744   1.548   2.805
41372SOL     OW25954   4.243  12.958  11.965
41372SOL    HW125955   4.247  12.864  11.984
41372SOL    HW225956   4.184  12.993  12.033
41373SOL     OW25957   1.104   8.366   1.827
41373SOL    HW125958   1.151   8.438   1.868
41373SOL    HW225959   1.148   8.353   1.743
41374SOL     OW25960   4.120  13.751   3.467
41374SOL    HW125961   4.216  13.749   3.465
41374SOL    HW225962   4.098  13.742   3.560
41375SOL     OW25963  10.774   6.572  14.118
41375SOL    HW125964  10.835   6.537  14.183
41375SOL    HW225965  10.828   6.629  14.064
41376SOL     OW25966  13.127  13.001  11.134
41376SOL    HW125967  13.140  13.085  11.090
41376SOL    HW225968  13.167  13.013  11.220
41377SOL     OW25969  12.023   8.378   5.855
41377SOL    HW125970  12.068   8.407   5.934
41377SOL    HW225971  12.088   8.391   5.785
41378SOL     OW25972  14.112   1.475   6.573
41378SOL    HW125973  14.121   1.443   6.483
41378SOL    HW225974  14.178   1.427   6.623
41379SOL     OW25975   6.649   6.392  11.138
41379SOL    HW125976   6.603   6.356  11.062
41379SOL    HW225977   6.737   6.410  11.106
41380SOL     OW25978   8.380   6.815   2.043
41380SOL    HW125979   8.353   6.809   1.951
41380SOL    HW225980   8.420   6.901   2.051
41381SOL     OW25981  10.920   7.857  14.308
41381SOL    HW125982  10.922   7.952  14.294
41381SOL    HW225983  11.002   7.839  14.355
41382SOL     OW25984   8.332   2.006   2.853
41382SOL    HW125985   8.273   1.933   2.832
41382SOL    HW225986   8.317   2.069   2.782
41383SOL     OW25987   6.608   3.013   5.788
41383SOL    HW125988   6.573   3.056   5.710
41383SOL    HW225989   6.604   3.081   5.855
41384SOL     OW25990  14.464  10.739   1.883
41384SOL    HW125991  14.427  10.790   1.811
41384SOL    HW225992  14.503  10.662   1.841
41385SOL     OW25993   5.410  13.284   4.921
41385SOL    HW125994   5.411  13.360   4.979
41385SOL    HW225995   5.475  13.303   4.855
41386SOL     OW25996  11.953   7.400   4.949
41386SOL    HW125997  11.909   7.320   4.920
41386SOL    HW225998  12.021   7.415   4.883
41387SOL     OW25999   4.458   4.489   7.582
41387SOL    HW126000   4.504   4.429   7.524
41387SOL    HW226001   4.492   4.576   7.558
41388SOL     OW26002   5.672   8.496   6.753
41388SOL    HW126003   5.698   8.414   6.794
41388SOL    HW226004   5.730   8.504   6.677
41389SOL     OW26005  10.497  13.635  10.508
41389SOL    HW126006  10.487  13.653  10.601
41389SOL    HW226007  10.523  13.543  10.504
41390SOL     OW26008   4.531  14.459   1.689
41390SOL    HW126009   4.547  14.553   1.698
41390SOL    HW226010   4.603  14.427   1.635
41391SOL     OW26011   7.185  12.204   1.515
41391SOL    HW126012   7.113  12.159   1.559
41391SOL    HW226013   7.206  12.278   1.572
41392SOL     OW26014   9.492   7.530   7.455
41392SOL    HW126015   9.581   7.539   7.422
41392SOL    HW226016   9.499   7.545   7.549
41393SOL     OW26017   1.759   6.215  11.004
41393SOL    HW126018   1.804   6.221  11.088
41393SOL    HW226019   1.829   6.220  10.939
41394SOL     OW26020   1.401   8.299  11.993
41394SOL    HW126021   1.387   8.297  11.898
41394SOL    HW226022   1.316   8.323  12.030
41395SOL     OW26023   8.001   8.314   2.589
41395SOL    HW126024   8.032   8.223   2.588
41395SOL    HW226025   7.910   8.307   2.618
41396SOL     OW26026  13.876  12.973  14.782
41396SOL    HW126027  13.915  13.059  14.798
41396SOL    HW226028  13.947  12.922  14.743
41397SOL     OW26029   9.207   8.547  11.824
41397SOL    HW126030   9.226   8.475  11.764
41397SOL    HW226031   9.137   8.513  11.881
41398SOL     OW26032  11.285   1.884   4.541
41398SOL    HW126033  11.191   1.867   4.530
41398SOL    HW226034  11.295   1.901   4.635
41399SOL     OW26035   7.220   0.884   9.419
41399SOL    HW126036   7.264   0.808   9.380
41399SOL    HW226037   7.230   0.871   9.514
41400SOL     OW26038   8.320  10.213  10.393
41400SOL    HW126039   8.267  10.141  10.359
41400SOL    HW226040   8.374  10.241  10.318
41401SOL     OW26041  10.825   0.692  14.173
41401SOL    HW126042  10.865   0.645  14.247
41401SOL    HW226043  10.871   0.776  14.170
41402SOL     OW26044   3.732  12.544   1.792
41402SOL    HW126045   3.647  12.587   1.807
41402SOL    HW226046   3.736  12.476   1.859
41403SOL     OW26047  11.302  12.479  10.576
41403SOL    HW126048  11.276  12.418  10.645
41403SOL    HW226049  11.330  12.423  10.504
41404SOL     OW26050  12.942  10.253   8.105
41404SOL    HW126051  12.946  10.274   8.198
41404SOL    HW226052  12.860  10.205   8.095
41405SOL     OW26053   0.723   0.040   0.738
41405SOL    HW126054   0.683   0.059   0.653
41405SOL    HW226055   0.788   0.108   0.750
41406SOL     OW26056  10.151  12.475   9.763
41406SOL    HW126057  10.056  12.460   9.763
41406SOL    HW226058  10.177  12.461   9.853
41407SOL     OW26059   1.050   1.088  12.753
41407SOL    HW126060   1.001   1.026  12.806
41407SOL    HW226061   1.025   1.067  12.663
41408SOL     OW26062   5.845   2.672  14.815
41408SOL    HW126063   5.852   2.708   0.028
41408SOL    HW226064   5.929   2.629  14.800
41409SOL     OW26065   1.332  13.974   0.004
41409SOL    HW126066   1.281  13.960  14.801
41409SOL    HW226067   1.272  13.955   0.076
41410SOL     OW26068   4.334   9.209  13.232
41410SOL    HW126069   4.353   9.253  13.315
41410SOL    HW226070   4.317   9.118  13.258
41411SOL     OW26071   0.696   6.174   4.604
41411SOL    HW126072   0.649   6.258   4.596
41411SOL    HW226073   0.638   6.111   4.562
41412SOL     OW26074   0.912  14.511  14.144
41412SOL    HW126075   0.933  14.420  14.126
41412SOL    HW226076   0.847  14.534  14.078
41413SOL     OW26077   7.518   1.000   3.515
41413SOL    HW126078   7.479   0.961   3.593
41413SOL    HW226079   7.446   1.005   3.452
41414SOL     OW26080  11.793   8.303   5.975
41414SOL    HW126081  11.865   8.338   5.922
41414SOL    HW226082  11.835   8.276   6.057
41415SOL     OW26083   9.056   5.724   0.629
41415SOL    HW126084   9.140   5.718   0.675
41415SOL    HW226085   9.024   5.634   0.627
41416SOL     OW26086   3.891  11.639   6.165
41416SOL    HW126087   3.795  11.630   6.166
41416SOL    HW226088   3.923  11.560   6.208
41417SOL     OW26089  13.277  12.330   6.891
41417SOL    HW126090  13.265  12.393   6.962
41417SOL    HW226091  13.204  12.347   6.831
41418SOL     OW26092   9.948   0.394   4.860
41418SOL    HW126093   9.922   0.478   4.822
41418SOL    HW226094  10.018   0.363   4.802
41419SOL     OW26095   4.359   3.653   1.182
41419SOL    HW126096   4.450   3.668   1.207
41419SOL    HW226097   4.347   3.705   1.103
41420SOL     OW26098   7.446  10.055   3.805
41420SOL    HW126099   7.534  10.093   3.810
41420SOL    HW226100   7.461   9.965   3.776
41421SOL     OW26101  14.541   3.501   2.505
41421SOL    HW126102  14.525   3.554   2.427
41421SOL    HW226103  14.629   3.465   2.492
41422SOL     OW26104   0.037   7.340   9.096
41422SOL    HW126105  14.853   7.286   9.044
41422SOL    HW226106   0.103   7.278   9.128
41423SOL     OW26107   4.937  10.553  12.260
41423SOL    HW126108   5.032  10.548  12.259
41423SOL    HW226109   4.908  10.466  12.288
41424SOL     OW26110   5.709   5.602   3.791
41424SOL    HW126111   5.740   5.549   3.717
41424SOL    HW226112   5.616   5.579   3.799
41425SOL     OW26113   0.740   8.459   4.481
41425SOL    HW126114   0.728   8.377   4.528
41425SOL    HW226115   0.831   8.484   4.498
41426SOL     OW26116  13.287   6.177   4.767
41426SOL    HW126117  13.271   6.083   4.769
41426SOL    HW226118  13.203   6.215   4.739
41427SOL     OW26119   1.187   5.596  10.399
41427SOL    HW126120   1.218   5.687  10.393
41427SOL    HW226121   1.092   5.603  10.391
41428SOL     OW26122  10.752   3.626   4.486
41428SOL    HW126123  10.749   3.711   4.531
41428SOL    HW226124  10.845   3.609   4.474
41429SOL     OW26125   1.135   7.620  10.866
41429SOL    HW126126   1.226   7.617  10.837
41429SOL    HW226127   1.140   7.621  10.961
41430SOL     OW26128   2.853   3.710   7.049
41430SOL    HW126129   2.919   3.693   7.117
41430SOL    HW226130   2.797   3.633   7.051
41431SOL     OW26131  10.397   2.282   0.109
41431SOL    HW126132  10.474   2.333   0.135
41431SOL    HW226133  10.325   2.322   0.158
41432SOL     OW26134   6.714   8.645   8.907
41432SOL    HW126135   6.739   8.717   8.965
41432SOL    HW226136   6.638   8.605   8.950
41433SOL     OW26137   3.526  11.828  10.776
41433SOL    HW126138   3.611  11.832  10.821
41433SOL    HW226139   3.462  11.851  10.844
41434SOL     OW26140  10.629   6.827  10.594
41434SOL    HW126141  10.538   6.828  10.625
41434SOL    HW226142  10.633   6.755  10.532
41435SOL     OW26143   8.715   3.252   0.118
41435SOL    HW126144   8.798   3.228   0.077
41435SOL    HW226145   8.741   3.302   0.196
41436SOL     OW26146  14.464   9.726  10.768
41436SOL    HW126147  14.394   9.749  10.829
41436SOL    HW226148  14.545   9.742  10.817
41437SOL     OW26149   6.015  12.610   2.251
41437SOL    HW126150   6.093  12.653   2.288
41437SOL    HW226151   5.946  12.676   2.258
41438SOL     OW26152   4.764   9.219   1.431
41438SOL    HW126153   4.840   9.249   1.480
41438SOL    HW226154   4.696   9.206   1.498
41439SOL     OW26155   0.526   4.047   0.347
41439SOL    HW126156   0.436   4.070   0.373
41439SOL    HW226157   0.549   3.974   0.405
41440SOL     OW26158   2.683   8.168  13.965
41440SOL    HW126159   2.644   8.081  13.955
41440SOL    HW226160   2.680   8.186  14.059
41441SOL     OW26161   5.487  13.709   9.729
41441SOL    HW126162   5.434  13.720   9.650
41441SOL    HW226163   5.434  13.747   9.799
41442SOL     OW26164   2.273  11.773  14.298
41442SOL    HW126165   2.208  11.745  14.362
41442SOL    HW226166   2.290  11.695  14.245
41443SOL     OW26167  11.725   3.194   3.884
41443SOL    HW126168  11.657   3.162   3.825
41443SOL    HW226169  11.683   3.201   3.969
41444SOL     OW26170   3.157   0.553   0.577
41444SOL    HW126171   3.173   0.459   0.581
41444SOL    HW226172   3.061   0.561   0.585
41445SOL     OW26173   1.693  12.234  10.720
41445SOL    HW126174   1.760  12.197  10.777
41445SOL    HW226175   1.659  12.309  10.768
41446SOL     OW26176   7.629   5.794  11.334
41446SOL    HW126177   7.543   5.793  11.290
41446SOL    HW226178   7.636   5.883  11.369
41447SOL     OW26179   5.395  12.934  13.707
41447SOL    HW126180   5.435  12.848  13.704
41447SOL    HW226181   5.430  12.980  13.630
41448SOL     OW26182  14.387   6.883   8.972
41448SOL    HW126183  14.329   6.898   9.047
41448SOL    HW226184  14.426   6.797   8.989
41449SOL     OW26185   1.298   6.576   7.798
41449SOL    HW126186   1.335   6.654   7.840
41449SOL    HW226187   1.253   6.530   7.869
41450SOL     OW26188   8.756  13.161   2.110
41450SOL    HW126189   8.819  13.200   2.171
41450SOL    HW226190   8.673  13.164   2.157
41451SOL     OW26191   6.570   1.930   6.345
41451SOL    HW126192   6.486   1.894   6.373
41451SOL    HW226193   6.548   1.987   6.271
41452SOL     OW26194   0.161   0.301  13.164
41452SOL    HW126195   0.109   0.308  13.244
41452SOL    HW226196   0.100   0.326  13.094
41453SOL     OW26197   1.984   6.096  10.633
41453SOL    HW126198   2.026   6.089  10.719
41453SOL    HW226199   1.915   6.030  10.634
41454SOL     OW26200   2.546  14.107  11.002
41454SOL    HW126201   2.470  14.058  11.033
41454SOL    HW226202   2.588  14.049  10.939
41455SOL     OW26203  12.956   2.567   8.977
41455SOL    HW126204  12.956   2.622   9.056
41455SOL    HW226205  12.863   2.550   8.961
41456SOL     OW26206  13.121  13.286  11.866
41456SOL    HW126207  13.082  13.258  11.784
41456SOL    HW226208  13.195  13.341  11.839
41457SOL     OW26209   8.269   7.477  11.699
41457SOL    HW126210   8.252   7.540  11.629
41457SOL    HW226211   8.346   7.511  11.744
41458SOL     OW26212  12.999   0.435  12.709
41458SOL    HW126213  12.978   0.516  12.663
41458SOL    HW226214  13.014   0.461  12.800
41459SOL     OW26215   7.123  11.069   4.333
41459SOL    HW126216   7.083  11.130   4.396
41459SOL    HW226217   7.143  11.123   4.257
41460SOL     OW26218   5.626  10.778  11.974
41460SOL    HW126219   5.531  10.767  11.970
41460SOL    HW226220   5.639  10.857  12.027
41461SOL     OW26221  13.811   6.319   1.197
41461SOL    HW126222  13.819   6.402   1.150
41461SOL    HW226223  13.820   6.252   1.129
41462SOL     OW26224  10.263   5.562   7.629
41462SOL    HW126225  10.299   5.475   7.607
41462SOL    HW226226  10.222   5.591   7.548
41463SOL     OW26227   1.018   8.685   6.511
41463SOL    HW126228   1.071   8.714   6.586
41463SOL    HW226229   0.974   8.606   6.542
41464SOL     OW26230  11.395  11.834   6.998
41464SOL    HW126231  11.456  11.853   6.927
41464SOL    HW226232  11.368  11.743   6.985
41465SOL     OW26233  12.149   8.246   7.597
41465SOL    HW126234  12.089   8.244   7.522
41465SOL    HW226235  12.114   8.316   7.653
41466SOL     OW26236   0.650  11.116   7.452
41466SOL    HW126237   0.722  11.054   7.465
41466SOL    HW226238   0.668  11.156   7.367
41467SOL     OW26239   1.105   0.165   1.403
41467SOL    HW126240   1.164   0.218   1.455
41467SOL    HW226241   1.064   0.226   1.341
41468SOL     OW26242  14.537  13.060   3.550
41468SOL    HW126243  14.608  13.040   3.489
41468SOL    HW226244  14.555  13.150   3.579
41469SOL     OW26245  11.687  14.317   7.512
41469SOL    HW126246  11.736  14.280   7.439
41469SOL    HW226247  11.754  14.346   7.574
41470SOL     OW26248   2.308  10.146   7.247
41470SOL    HW126249   2.298  10.152   7.152
41470SOL    HW226250   2.302  10.236   7.278
41471SOL     OW26251  14.332  14.368  12.228
41471SOL    HW126252  14.358  14.281  12.198
41471SOL    HW226253  14.271  14.400  12.162
41472SOL     OW26254   0.536   4.135   5.909
41472SOL    HW126255   0.459   4.145   5.853
41472SOL    HW226256   0.595   4.205   5.881
41473SOL     OW26257   1.256   1.303   4.247
41473SOL    HW126258   1.165   1.288   4.224
41473SOL    HW226259   1.289   1.362   4.179
41474SOL     OW26260   9.152   9.181   1.169
41474SOL    HW126261   9.150   9.155   1.077
41474SOL    HW226262   9.133   9.275   1.167
41475SOL     OW26263   0.850   5.535   8.800
41475SOL    HW126264   0.882   5.529   8.890
41475SOL    HW226265   0.918   5.583   8.753
41476SOL     OW26266   7.370   3.599   2.815
41476SOL    HW126267   7.419   3.548   2.750
41476SOL    HW226268   7.406   3.573   2.899
41477SOL     OW26269   9.885   4.180   8.929
41477SOL    HW126270   9.841   4.114   8.984
41477SOL    HW226271   9.850   4.164   8.841
41478SOL     OW26272   2.319   3.332   7.174
41478SOL    HW126273   2.306   3.415   7.128
41478SOL    HW226274   2.242   3.324   7.230
41479SOL     OW26275   8.286   6.327   4.468
41479SOL    HW126276   8.344   6.288   4.532
41479SOL    HW226277   8.203   6.279   4.478
41480SOL     OW26278   0.125   2.745   3.465
41480SOL    HW126279   0.193   2.791   3.417
41480SOL    HW226280   0.153   2.653   3.465
41481SOL     OW26281  13.012  13.425   2.888
41481SOL    HW126282  12.958  13.436   2.810
41481SOL    HW226283  13.002  13.507   2.936
41482SOL     OW26284   2.836  14.337   4.464
41482SOL    HW126285   2.820  14.394   4.388
41482SOL    HW226286   2.778  14.262   4.450
41483SOL     OW26287   2.823   9.164   9.072
41483SOL    HW126288   2.734   9.180   9.101
41483SOL    HW226289   2.852   9.247   9.033
41484SOL     OW26290   6.800   5.028   5.575
41484SOL    HW126291   6.795   4.978   5.494
41484SOL    HW226292   6.720   5.003   5.623
41485SOL     OW26293   4.143  12.317  14.026
41485SOL    HW126294   4.098  12.234  14.042
41485SOL    HW226295   4.079  12.370  13.979
41486SOL     OW26296   8.822  12.905   6.037
41486SOL    HW126297   8.808  12.918   5.943
41486SOL    HW226298   8.823  12.994   6.073
41487SOL     OW26299   8.751   0.295   5.054
41487SOL    HW126300   8.757   0.390   5.059
41487SOL    HW226301   8.740   0.266   5.144
41488SOL     OW26302  12.659   8.388   2.533
41488SOL    HW126303  12.734   8.343   2.570
41488SOL    HW226304  12.695   8.468   2.495
41489SOL     OW26305   0.272   1.479   0.822
41489SOL    HW126306   0.229   1.466   0.738
41489SOL    HW226307   0.224   1.423   0.883
41490SOL     OW26308   5.758   9.349   5.886
41490SOL    HW126309   5.792   9.366   5.798
41490SOL    HW226310   5.823   9.291   5.926
41491SOL     OW26311   0.369  12.591   9.079
41491SOL    HW126312   0.318  12.512   9.063
41491SOL    HW226313   0.374  12.597   9.175
41492SOL     OW26314   0.272   0.608  12.475
41492SOL    HW126315   0.201   0.576  12.531
41492SOL    HW226316   0.351   0.597  12.528
41493SOL     OW26317   5.022  11.796   9.967
41493SOL    HW126318   4.980  11.710   9.972
41493SOL    HW226319   4.956  11.857   9.999
41494SOL     OW26320  14.777   1.803   0.593
41494SOL    HW126321  14.768   1.848   0.677
41494SOL    HW226322  14.778   1.873   0.528
41495SOL     OW26323  10.612   3.989   8.736
41495SOL    HW126324  10.643   3.934   8.808
41495SOL    HW226325  10.558   4.056   8.779
41496SOL     OW26326  11.873  10.613  13.746
41496SOL    HW126327  11.919  10.592  13.827
41496SOL    HW226328  11.935  10.665  13.695
41497SOL     OW26329   1.011   0.558   8.543
41497SOL    HW126330   0.933   0.554   8.599
41497SOL    HW226331   1.082   0.527   8.599
41498SOL     OW26332   6.488   8.138   0.877
41498SOL    HW126333   6.502   8.218   0.929
41498SOL    HW226334   6.576   8.112   0.850
41499SOL     OW26335   2.240  12.163   8.738
41499SOL    HW126336   2.306  12.231   8.751
41499SOL    HW226337   2.283  12.082   8.764
41500SOL     OW26338  11.434  13.441   0.691
41500SOL    HW126339  11.524  13.454   0.718
41500SOL    HW226340  11.426  13.347   0.676
41501SOL     OW26341   7.894   5.086   7.143
41501SOL    HW126342   7.821   5.061   7.199
41501SOL    HW226343   7.943   5.150   7.194
41502SOL     OW26344   0.341   0.782   5.057
41502SOL    HW126345   0.322   0.876   5.055
41502SOL    HW226346   0.276   0.746   5.117
41503SOL     OW26347   7.421   9.475  12.424
41503SOL    HW126348   7.380   9.395  12.455
41503SOL    HW226349   7.515   9.456  12.427
41504SOL     OW26350   3.502   4.237  13.553
41504SOL    HW126351   3.543   4.268  13.472
41504SOL    HW226352   3.566   4.177  13.591
41505SOL     OW26353   5.702   8.598   8.681
41505SOL    HW126354   5.616   8.616   8.720
41505SOL    HW226355   5.690   8.516   8.634
41506SOL     OW26356  11.892   6.218   2.571
41506SOL    HW126357  11.819   6.166   2.537
41506SOL    HW226358  11.850   6.286   2.624
41507SOL     OW26359  10.426   5.372   8.357
41507SOL    HW126360  10.480   5.423   8.416
41507SOL    HW226361  10.447   5.281   8.378
41508SOL     OW26362  13.483   0.115   8.956
41508SOL    HW126363  13.578   0.127   8.964
41508SOL    HW226364  13.452   0.197   8.917
41509SOL     OW26365   3.022  10.153   8.508
41509SOL    HW126366   2.984  10.241   8.501
41509SOL    HW226367   3.061  10.137   8.423
41510SOL     OW26368   2.028   6.888   3.424
41510SOL    HW126369   1.991   6.800   3.434
41510SOL    HW226370   2.120   6.879   3.445
41511SOL     OW26371   3.785   5.730   3.207
41511SOL    HW126372   3.748   5.781   3.136
41511SOL    HW226373   3.730   5.652   3.213
41512SOL     OW26374   3.539   8.815   1.320
41512SOL    HW126375   3.470   8.836   1.383
41512SOL    HW226376   3.584   8.899   1.306
41513SOL     OW26377   4.432   5.811  12.877
41513SOL    HW126378   4.345   5.815  12.837
41513SOL    HW226379   4.441   5.721  12.906
41514SOL     OW26380   1.946   9.837   5.056
41514SOL    HW126381   2.017   9.885   5.014
41514SOL    HW226382   1.895   9.802   4.983
41515SOL     OW26383   3.072  13.738   8.340
41515SOL    HW126384   3.034  13.670   8.395
41515SOL    HW226385   3.145  13.772   8.392
41516SOL     OW26386  14.227   7.322   8.703
41516SOL    HW126387  14.166   7.325   8.630
41516SOL    HW226388  14.178   7.277   8.773
41517SOL     OW26389   3.991   7.289   1.107
41517SOL    HW126390   4.028   7.313   1.022
41517SOL    HW226391   3.926   7.222   1.087
41518SOL     OW26392  12.462  10.336   7.679
41518SOL    HW126393  12.496  10.351   7.767
41518SOL    HW226394  12.418  10.251   7.684
41519SOL     OW26395   3.759   8.382   7.591
41519SOL    HW126396   3.674   8.347   7.618
41519SOL    HW226397   3.821   8.346   7.654
41520SOL     OW26398  13.321   9.702   0.737
41520SOL    HW126399  13.308   9.647   0.659
41520SOL    HW226400  13.244   9.685   0.790
41521SOL     OW26401   0.341   5.719   2.808
41521SOL    HW126402   0.370   5.796   2.759
41521SOL    HW226403   0.422   5.674   2.833
41522SOL     OW26404   0.054  13.566   2.360
41522SOL    HW126405   0.076  13.493   2.419
41522SOL    HW226406   0.085  13.644   2.405
41523SOL     OW26407   6.949  11.702   8.707
41523SOL    HW126408   6.958  11.766   8.636
41523SOL    HW226409   7.013  11.730   8.773
41524SOL     OW26410   1.650   1.075  10.183
41524SOL    HW126411   1.574   1.101  10.129
41524SOL    HW226412   1.709   1.150  10.178
41525SOL     OW26413   9.676  10.011   4.981
41525SOL    HW126414   9.681  10.002   5.077
41525SOL    HW226415   9.600  10.066   4.966
41526SOL     OW26416  13.257   4.361   9.667
41526SOL    HW126417  13.320   4.412   9.615
41526SOL    HW226418  13.267   4.271   9.635
41527SOL     OW26419   3.462  11.521   8.044
41527SOL    HW126420   3.508  11.438   8.054
41527SOL    HW226421   3.531  11.587   8.053
41528SOL     OW26422   8.864   4.787  11.520
41528SOL    HW126423   8.827   4.835  11.446
41528SOL    HW226424   8.883   4.855  11.585
41529SOL     OW26425   3.507   4.369   4.236
41529SOL    HW126426   3.497   4.339   4.146
41529SOL    HW226427   3.418   4.391   4.264
41530SOL     OW26428  14.288   2.616  12.758
41530SOL    HW126429  14.279   2.602  12.852
41530SOL    HW226430  14.319   2.706  12.750
41531SOL     OW26431   0.132   9.278   2.990
41531SOL    HW126432   0.086   9.228   2.922
41531SOL    HW226433   0.144   9.365   2.951
41532SOL     OW26434   0.617   4.344   8.287
41532SOL    HW126435   0.708   4.347   8.318
41532SOL    HW226436   0.605   4.254   8.258
41533SOL     OW26437   2.238   3.009   1.415
41533SOL    HW126438   2.195   2.928   1.442
41533SOL    HW226439   2.181   3.045   1.347
41534SOL     OW26440  11.283   5.513   9.723
41534SOL    HW126441  11.215   5.577   9.703
41534SOL    HW226442  11.315   5.537   9.810
41535SOL     OW26443   3.078  14.850   7.343
41535SOL    HW126444   3.106  14.760   7.355
41535SOL    HW226445   3.027  14.849   7.262
41536SOL     OW26446  14.650   2.114   2.939
41536SOL    HW126447  14.596   2.065   3.000
41536SOL    HW226448  14.615   2.092   2.853
41537SOL     OW26449   1.640   1.999   2.308
41537SOL    HW126450   1.621   1.983   2.401
41537SOL    HW226451   1.626   1.914   2.266
41538SOL     OW26452   6.158   0.408   8.659
41538SOL    HW126453   6.137   0.315   8.652
41538SOL    HW226454   6.240   0.418   8.611
41539SOL     OW26455   7.709   0.124  14.521
41539SOL    HW126456   7.647   0.073  14.574
41539SOL    HW226457   7.654   0.167  14.455
41540SOL     OW26458   8.615   0.350   6.373
41540SOL    HW126459   8.688   0.403   6.341
41540SOL    HW226460   8.628   0.345   6.468
41541SOL     OW26461   4.818   3.018  14.747
41541SOL    HW126462   4.913   3.005  14.739
41541SOL    HW226463   4.809   3.111  14.768
41542SOL     OW26464   0.924   9.981   8.756
41542SOL    HW126465   1.004  10.013   8.715
41542SOL    HW226466   0.896   9.908   8.701
41543SOL     OW26467   8.088  10.439   3.350
41543SOL    HW126468   8.164  10.433   3.408
41543SOL    HW226469   8.087  10.355   3.304
41544SOL     OW26470  13.237  10.830   8.268
41544SOL    HW126471  13.205  10.758   8.322
41544SOL    HW226472  13.251  10.791   8.182
41545SOL     OW26473   4.841   9.906   1.239
41545SOL    HW126474   4.768   9.947   1.285
41545SOL    HW226475   4.868   9.971   1.175
41546SOL     OW26476  13.884   1.629  10.203
41546SOL    HW126477  13.905   1.644  10.295
41546SOL    HW226478  13.788   1.631  10.200
41547SOL     OW26479  10.694   6.126  11.336
41547SOL    HW126480  10.758   6.170  11.281
41547SOL    HW226481  10.681   6.041  11.294
41548SOL     OW26482  11.176  14.517  11.672
41548SOL    HW126483  11.236  14.546  11.603
41548SOL    HW226484  11.089  14.536  11.637
41549SOL     OW26485  13.736   3.701   4.898
41549SOL    HW126486  13.701   3.699   4.809
41549SOL    HW226487  13.800   3.629   4.901
41550SOL     OW26488   6.952  10.231   4.912
41550SOL    HW126489   6.973  10.186   4.994
41550SOL    HW226490   6.856  10.238   4.913
41551SOL     OW26491   5.398   5.047  10.266
41551SOL    HW126492   5.376   5.062  10.358
41551SOL    HW226493   5.425   4.955  10.262
41552SOL     OW26494   2.533   7.459   7.704
41552SOL    HW126495   2.572   7.415   7.629
41552SOL    HW226496   2.607   7.482   7.760
41553SOL     OW26497   7.251   0.365   2.756
41553SOL    HW126498   7.311   0.333   2.824
41553SOL    HW226499   7.308   0.406   2.692
41554SOL     OW26500   5.602   8.888  11.230
41554SOL    HW126501   5.534   8.904  11.295
41554SOL    HW226502   5.618   8.793  11.235
41555SOL     OW26503  14.136  10.793   5.984
41555SOL    HW126504  14.166  10.881   5.961
41555SOL    HW226505  14.071  10.772   5.916
41556SOL     OW26506   0.101   3.239   8.122
41556SOL    HW126507   0.046   3.217   8.048
41556SOL    HW226508   0.177   3.181   8.114
41557SOL     OW26509   0.084   6.532  14.689
41557SOL    HW126510   0.034   6.582  14.754
41557SOL    HW226511   0.052   6.443  14.699
41558SOL     OW26512   0.072  14.575  14.491
41558SOL    HW126513   0.044  14.624  14.568
41558SOL    HW226514   0.146  14.625  14.456
41559SOL     OW26515   8.666  14.405  12.828
41559SOL    HW126516   8.743  14.348  12.835
41559SOL    HW226517   8.697  14.480  12.776
41560SOL     OW26518   4.818  10.263   4.484
41560SOL    HW126519   4.818  10.358   4.475
41560SOL    HW226520   4.737  10.234   4.441
41561SOL     OW26521   7.045   9.326  10.948
41561SOL    HW126522   7.053   9.233  10.925
41561SOL    HW226523   7.040   9.371  10.864
41562SOL     OW26524  12.423   8.269  13.706
41562SOL    HW126525  12.358   8.246  13.772
41562SOL    HW226526  12.504   8.228  13.738
41563SOL     OW26527   9.249   0.742   3.516
41563SOL    HW126528   9.210   0.655   3.523
41563SOL    HW226529   9.193   0.789   3.454
41564SOL     OW26530  12.401   7.579   8.855
41564SOL    HW126531  12.455   7.651   8.822
41564SOL    HW226532  12.314   7.597   8.819
41565SOL     OW26533  10.450   9.927   2.496
41565SOL    HW126534  10.495  10.011   2.485
41565SOL    HW226535  10.429   9.900   2.406
41566SOL     OW26536   1.916   2.174   5.314
41566SOL    HW126537   1.903   2.105   5.249
41566SOL    HW226538   1.993   2.222   5.282
41567SOL     OW26539   7.445   6.356   5.957
41567SOL    HW126540   7.429   6.308   6.039
41567SOL    HW226541   7.533   6.330   5.931
41568SOL     OW26542   8.522   4.172   8.812
41568SOL    HW126543   8.600   4.134   8.854
41568SOL    HW226544   8.525   4.138   8.722
41569SOL     OW26545   4.120   2.991   5.921
41569SOL    HW126546   4.099   2.931   5.993
41569SOL    HW226547   4.095   2.944   5.842
41570SOL     OW26548   2.456  10.053   4.799
41570SOL    HW126549   2.407  10.090   4.725
41570SOL    HW226550   2.517   9.991   4.758
41571SOL     OW26551   1.301   9.827   7.194
41571SOL    HW126552   1.235   9.896   7.184
41571SOL    HW226553   1.266   9.771   7.264
41572SOL     OW26554   7.716   5.574   1.824
41572SOL    HW126555   7.674   5.637   1.765
41572SOL    HW226556   7.665   5.494   1.814
41573SOL     OW26557  14.812  14.001   4.896
41573SOL    HW126558  14.817  14.057   4.974
41573SOL    HW226559   0.008  14.032   4.841
41574SOL     OW26560  12.556   2.558  14.847
41574SOL    HW126561  12.594   2.641  14.874
41574SOL    HW226562  12.628   2.495  14.855
41575SOL     OW26563   7.347  12.444   5.377
41575SOL    HW126564   7.330  12.535   5.404
41575SOL    HW226565   7.430  12.422   5.419
41576SOL     OW26566   9.723   3.853   0.230
41576SOL    HW126567   9.815   3.880   0.228
41576SOL    HW226568   9.701   3.840   0.137
41577SOL     OW26569   2.607   0.840  11.512
41577SOL    HW126570   2.604   0.884  11.597
41577SOL    HW226571   2.535   0.879  11.462
41578SOL     OW26572   7.955   2.496  13.600
41578SOL    HW126573   7.979   2.589  13.592
41578SOL    HW226574   7.964   2.461  13.511
41579SOL     OW26575   8.573   6.324   0.103
41579SOL    HW126576   8.549   6.355   0.015
41579SOL    HW226577   8.596   6.404   0.150
41580SOL     OW26578   5.945  12.284   1.973
41580SOL    HW126579   6.010  12.348   2.001
41580SOL    HW226580   5.882  12.335   1.922
41581SOL     OW26581   0.754   2.998   8.256
41581SOL    HW126582   0.765   2.961   8.169
41581SOL    HW226583   0.832   2.971   8.305
41582SOL     OW26584   2.556   3.003   0.303
41582SOL    HW126585   2.547   2.938   0.373
41582SOL    HW226586   2.491   2.975   0.237
41583SOL     OW26587  11.479  14.326  13.521
41583SOL    HW126588  11.457  14.233  13.528
41583SOL    HW226589  11.400  14.372  13.551
41584SOL     OW26590  11.041   6.702  10.384
41584SOL    HW126591  10.970   6.647  10.416
41584SOL    HW226592  11.080   6.739  10.464
41585SOL     OW26593  13.508   6.932   4.771
41585SOL    HW126594  13.490   6.988   4.847
41585SOL    HW226595  13.461   6.974   4.699
41586SOL     OW26596  14.641  10.952   7.476
41586SOL    HW126597  14.696  11.004   7.534
41586SOL    HW226598  14.676  10.863   7.483
41587SOL     OW26599  10.308  14.329   2.978
41587SOL    HW126600  10.258  14.250   2.959
41587SOL    HW226601  10.396  14.310   2.944
41588SOL     OW26602   8.155   3.580   4.427
41588SOL    HW126603   8.168   3.617   4.514
41588SOL    HW226604   8.074   3.620   4.395
41589SOL     OW26605   7.756   0.840   4.985
41589SOL    HW126606   7.768   0.925   4.942
41589SOL    HW226607   7.664   0.817   4.967
41590SOL     OW26608  11.465   5.997   9.157
41590SOL    HW126609  11.449   6.067   9.220
41590SOL    HW226610  11.388   5.941   9.164
41591SOL     OW26611   8.262   0.589  13.932
41591SOL    HW126612   8.175   0.594  13.893
41591SOL    HW226613   8.316   0.546  13.865
41592SOL     OW26614  10.029   0.494   5.413
41592SOL    HW126615  10.073   0.514   5.331
41592SOL    HW226616  10.013   0.400   5.409
41593SOL     OW26617   2.211   2.870   4.441
41593SOL    HW126618   2.265   2.947   4.425
41593SOL    HW226619   2.273   2.800   4.460
41594SOL     OW26620  13.044   4.660   4.794
41594SOL    HW126621  13.073   4.572   4.771
41594SOL    HW226622  12.949   4.653   4.803
41595SOL     OW26623   1.628   8.266  13.418
41595SOL    HW126624   1.670   8.325  13.355
41595SOL    HW226625   1.542   8.248  13.380
41596SOL     OW26626   4.769   6.747  14.622
41596SOL    HW126627   4.712   6.781  14.552
41596SOL    HW226628   4.712   6.691  14.674
41597SOL     OW26629  10.324   3.218   4.761
41597SOL    HW126630  10.319   3.225   4.856
41597SOL    HW226631  10.253   3.274   4.729
41598SOL     OW26632   4.934   5.662  14.155
41598SOL    HW126633   4.989   5.613  14.094
41598SOL    HW226634   4.924   5.748  14.113
41599SOL     OW26635  14.680   0.787   9.762
41599SOL    HW126636  14.632   0.794   9.845
41599SOL    HW226637  14.624   0.734   9.706
41600SOL     OW26638   1.299   2.289   6.914
41600SOL    HW126639   1.342   2.366   6.948
41600SOL    HW226640   1.225   2.323   6.863
41601SOL     OW26641   7.798   1.070   5.305
41601SOL    HW126642   7.851   1.038   5.378
41601SOL    HW226643   7.844   1.040   5.226
41602SOL     OW26644   0.995   6.304   4.375
41602SOL    HW126645   1.039   6.365   4.434
41602SOL    HW226646   1.035   6.318   4.290
41603SOL     OW26647   1.646  13.636   5.566
41603SOL    HW126648   1.710  13.702   5.593
41603SOL    HW226649   1.611  13.669   5.483
41604SOL     OW26650   2.577   7.222   8.699
41604SOL    HW126651   2.545   7.239   8.787
41604SOL    HW226652   2.632   7.145   8.707
41605SOL     OW26653  12.511  11.489  10.817
41605SOL    HW126654  12.529  11.463  10.907
41605SOL    HW226655  12.570  11.563  10.800
41606SOL     OW26656  11.201  14.018   2.686
41606SOL    HW126657  11.128  14.000   2.627
41606SOL    HW226658  11.267  13.952   2.663
41607SOL     OW26659   8.442   1.180   7.427
41607SOL    HW126660   8.401   1.211   7.346
41607SOL    HW226661   8.532   1.160   7.402
41608SOL     OW26662   7.726   8.543   8.442
41608SOL    HW126663   7.634   8.534   8.466
41608SOL    HW226664   7.768   8.466   8.480
41609SOL     OW26665   8.712   3.088  12.322
41609SOL    HW126666   8.714   3.056  12.232
41609SOL    HW226667   8.716   3.184  12.313
41610SOL     OW26668  10.535  11.056  10.096
41610SOL    HW126669  10.443  11.049  10.120
41610SOL    HW226670  10.547  11.148  10.071
41611SOL     OW26671   4.698  13.811  11.787
41611SOL    HW126672   4.759  13.870  11.742
41611SOL    HW226673   4.659  13.759  11.717
41612SOL     OW26674   9.906   1.032  11.844
41612SOL    HW126675   9.992   1.072  11.859
41612SOL    HW226676   9.924   0.939  11.834
41613SOL     OW26677  10.458   4.533   6.943
41613SOL    HW126678  10.450   4.515   6.849
41613SOL    HW226679  10.544   4.574   6.953
41614SOL     OW26680  11.689   2.039   1.148
41614SOL    HW126681  11.715   2.126   1.118
41614SOL    HW226682  11.767   2.005   1.193
41615SOL     OW26683   5.927   5.020  10.923
41615SOL    HW126684   5.843   5.060  10.899
41615SOL    HW226685   5.988   5.051  10.856
41616SOL     OW26686   4.194   3.396   2.206
41616SOL    HW126687   4.112   3.432   2.241
41616SOL    HW226688   4.175   3.378   2.114
41617SOL     OW26689  10.553   9.863   4.429
41617SOL    HW126690  10.489   9.904   4.488
41617SOL    HW226691  10.532   9.900   4.343
41618SOL     OW26692   2.290   4.787  12.442
41618SOL    HW126693   2.262   4.791  12.534
41618SOL    HW226694   2.381   4.758  12.446
41619SOL     OW26695   1.360   5.619   1.733
41619SOL    HW126696   1.340   5.525   1.736
41619SOL    HW226697   1.283   5.661   1.772
41620SOL     OW26698  10.560   1.494   8.281
41620SOL    HW126699  10.475   1.510   8.240
41620SOL    HW226700  10.612   1.450   8.214
41621SOL     OW26701  12.175   0.099   1.719
41621SOL    HW126702  12.240   0.109   1.789
41621SOL    HW226703  12.120   0.026   1.748
41622SOL     OW26704  12.046   9.665   4.157
41622SOL    HW126705  12.048   9.710   4.072
41622SOL    HW226706  12.135   9.632   4.169
41623SOL     OW26707   8.632   2.622  11.727
41623SOL    HW126708   8.630   2.714  11.751
41623SOL    HW226709   8.556   2.610  11.670
41624SOL     OW26710   1.263  12.760   9.069
41624SOL    HW126711   1.194  12.701   9.038
41624SOL    HW226712   1.306  12.711   9.139
41625SOL     OW26713  11.888   2.513   8.822
41625SOL    HW126714  11.948   2.521   8.748
41625SOL    HW226715  11.859   2.422   8.819
41626SOL     OW26716  11.263  11.704   9.117
41626SOL    HW126717  11.225  11.770   9.059
41626SOL    HW226718  11.312  11.756   9.181
41627SOL     OW26719  14.387   1.337   3.469
41627SOL    HW126720  14.415   1.289   3.547
41627SOL    HW226721  14.339   1.413   3.503
41628SOL     OW26722   0.503   2.686  13.353
41628SOL    HW126723   0.435   2.753  13.353
41628SOL    HW226724   0.585   2.734  13.361
41629SOL     OW26725   2.705   7.837   0.058
41629SOL    HW126726   2.682   7.927   0.082
41629SOL    HW226727   2.772   7.848  14.866
41630SOL     OW26728  10.754   4.036   8.538
41630SOL    HW126729  10.698   4.016   8.613
41630SOL    HW226730  10.817   4.100   8.571
41631SOL     OW26731   9.802  13.037   8.190
41631SOL    HW126732   9.790  13.079   8.105
41631SOL    HW226733   9.885  12.990   8.183
41632SOL     OW26734   2.649   0.021   0.434
41632SOL    HW126735   2.662   0.074   0.513
41632SOL    HW226736   2.555   0.010   0.427
41633SOL     OW26737   0.166   2.046   2.127
41633SOL    HW126738   0.094   2.031   2.188
41633SOL    HW226739   0.167   1.968   2.071
41634SOL     OW26740   8.696   9.338   5.231
41634SOL    HW126741   8.732   9.382   5.154
41634SOL    HW226742   8.761   9.353   5.300
41635SOL     OW26743   2.602   4.791   7.473
41635SOL    HW126744   2.610   4.811   7.566
41635SOL    HW226745   2.636   4.869   7.429
41636SOL     OW26746  13.611   5.872   7.427
41636SOL    HW126747  13.688   5.860   7.482
41636SOL    HW226748  13.537   5.853   7.485
41637SOL     OW26749  11.929   6.276   6.341
41637SOL    HW126750  11.870   6.228   6.284
41637SOL    HW226751  12.010   6.225   6.342
41638SOL     OW26752  10.790   4.889   3.585
41638SOL    HW126753  10.799   4.794   3.577
41638SOL    HW226754  10.697   4.904   3.602
41639SOL     OW26755   4.998  10.142  11.895
41639SOL    HW126756   4.945  10.213  11.932
41639SOL    HW226757   5.064  10.125  11.961
41640SOL     OW26758  14.215   2.035   9.543
41640SOL    HW126759  14.140   1.976   9.536
41640SOL    HW226760  14.282   1.995   9.487
41641SOL     OW26761   6.642   7.500   7.810
41641SOL    HW126762   6.684   7.563   7.870
41641SOL    HW226763   6.715   7.457   7.766
41642SOL     OW26764   1.916  11.741   2.170
41642SOL    HW126765   1.901  11.677   2.101
41642SOL    HW226766   1.997  11.712   2.212
41643SOL     OW26767  10.519  10.375   0.568
41643SOL    HW126768  10.467  10.407   0.494
41643SOL    HW226769  10.499  10.436   0.639
41644SOL     OW26770  14.589   1.270  14.127
41644SOL    HW126771  14.649   1.262  14.201
41644SOL    HW226772  14.617   1.202  14.066
41645SOL     OW26773   1.429   2.067   1.157
41645SOL    HW126774   1.347   2.088   1.203
41645SOL    HW226775   1.434   2.131   1.086
41646SOL     OW26776   1.584  13.025   7.362
41646SOL    HW126777   1.502  13.073   7.373
41646SOL    HW226778   1.610  13.001   7.451
41647SOL     OW26779  12.396   9.505   1.057
41647SOL    HW126780  12.374   9.443   0.988
41647SOL    HW226781  12.335   9.578   1.044
41648SOL     OW26782   8.065   6.570   2.769
41648SOL    HW126783   8.111   6.487   2.758
41648SOL    HW226784   7.990   6.549   2.825
41649SOL     OW26785   5.514   9.011  10.575
41649SOL    HW126786   5.529   8.981  10.485
41649SOL    HW226787   5.566   9.091  10.582
41650SOL     OW26788  13.276   1.752  12.462
41650SOL    HW126789  13.308   1.669  12.426
41650SOL    HW226790  13.183   1.738  12.475
41651SOL     OW26791   8.401   5.663   0.784
41651SOL    HW126792   8.495   5.673   0.776
41651SOL    HW226793   8.365   5.710   0.709
41652SOL     OW26794   1.189   3.663   2.948
41652SOL    HW126795   1.172   3.599   2.879
41652SOL    HW226796   1.125   3.644   3.015
41653SOL     OW26797   0.941   4.428  13.982
41653SOL    HW126798   1.008   4.475  13.931
41653SOL    HW226799   0.949   4.337  13.955
41654SOL     OW26800   2.092   6.188   4.765
41654SOL    HW126801   2.124   6.257   4.707
41654SOL    HW226802   2.044   6.128   4.707
41655SOL     OW26803   2.816   5.639   5.860
41655SOL    HW126804   2.743   5.632   5.922
41655SOL    HW226805   2.849   5.728   5.873
41656SOL     OW26806   7.183   3.931   5.983
41656SOL    HW126807   7.185   3.951   5.889
41656SOL    HW226808   7.094   3.898   5.997
41657SOL     OW26809  14.081   8.963   0.685
41657SOL    HW126810  14.059   8.964   0.592
41657SOL    HW226811  14.037   9.040   0.721
41658SOL     OW26812  12.623  12.163   4.871
41658SOL    HW126813  12.602  12.181   4.780
41658SOL    HW226814  12.663  12.076   4.870
41659SOL     OW26815  12.291  10.919   6.378
41659SOL    HW126816  12.297  10.985   6.446
41659SOL    HW226817  12.380  10.885   6.369
41660SOL     OW26818  13.697   5.252   3.739
41660SOL    HW126819  13.633   5.322   3.728
41660SOL    HW226820  13.782   5.294   3.727
41661SOL     OW26821   8.221  13.244  12.343
41661SOL    HW126822   8.294  13.220  12.399
41661SOL    HW226823   8.218  13.340  12.347
41662SOL     OW26824   8.255  10.316  13.277
41662SOL    HW126825   8.238  10.371  13.354
41662SOL    HW226826   8.322  10.254  13.306
41663SOL     OW26827  14.721   2.245   1.827
41663SOL    HW126828  14.684   2.242   1.915
41663SOL    HW226829  14.812   2.216   1.839
41664SOL     OW26830  14.611  11.302   3.744
41664SOL    HW126831  14.636  11.231   3.685
41664SOL    HW226832  14.694  11.332   3.782
41665SOL     OW26833   6.545  12.336   4.607
41665SOL    HW126834   6.495  12.257   4.628
41665SOL    HW226835   6.527  12.352   4.514
41666SOL     OW26836   3.174   3.545   4.362
41666SOL    HW126837   3.120   3.484   4.311
41666SOL    HW226838   3.116   3.574   4.433
41667SOL     OW26839   6.413  12.461   1.041
41667SOL    HW126840   6.486  12.468   1.103
41667SOL    HW226841   6.342  12.424   1.093
41668SOL     OW26842  11.733   9.079  13.980
41668SOL    HW126843  11.752   8.987  13.962
41668SOL    HW226844  11.643   9.091  13.949
41669SOL     OW26845   5.220   8.805   0.477
41669SOL    HW126846   5.146   8.848   0.434
41669SOL    HW226847   5.254   8.871   0.538
41670SOL     OW26848   8.401   3.277   9.681
41670SOL    HW126849   8.322   3.238   9.643
41670SOL    HW226850   8.377   3.297   9.772
41671SOL     OW26851   7.865   8.930  11.433
41671SOL    HW126852   7.816   9.009  11.408
41671SOL    HW226853   7.797   8.863  11.445
41672SOL     OW26854  13.104   5.085   5.996
41672SOL    HW126855  13.023   5.131   5.976
41672SOL    HW226856  13.100   5.005   5.942
41673SOL     OW26857   3.628   3.148  14.713
41673SOL    HW126858   3.541   3.182  14.735
41673SOL    HW226859   3.617   3.053  14.709
41674SOL     OW26860  11.830  11.226  10.592
41674SOL    HW126861  11.763  11.198  10.654
41674SOL    HW226862  11.816  11.320  10.583
41675SOL     OW26863   3.785   6.029  10.542
41675SOL    HW126864   3.869   5.985  10.554
41675SOL    HW226865   3.719   5.959  10.553
41676SOL     OW26866   0.687  12.077  11.562
41676SOL    HW126867   0.711  12.169  11.567
41676SOL    HW226868   0.754  12.031  11.612
41677SOL     OW26869   7.130   4.881  14.183
41677SOL    HW126870   7.047   4.843  14.212
41677SOL    HW226871   7.143   4.956  14.240
41678SOL     OW26872   3.908   9.595   1.512
41678SOL    HW126873   3.924   9.502   1.531
41678SOL    HW226874   3.966   9.615   1.440
41679SOL     OW26875   3.322   6.715   6.468
41679SOL    HW126876   3.282   6.799   6.492
41679SOL    HW226877   3.388   6.700   6.536
41680SOL     OW26878   6.202  13.196   9.717
41680SOL    HW126879   6.216  13.290   9.705
41680SOL    HW226880   6.290  13.160   9.727
41681SOL     OW26881  13.133  14.555   1.414
41681SOL    HW126882  13.096  14.642   1.399
41681SOL    HW226883  13.208  14.551   1.355
41682SOL     OW26884   1.081   6.487   8.231
41682SOL    HW126885   0.987   6.494   8.217
41682SOL    HW226886   1.118   6.565   8.191
41683SOL     OW26887   1.472   9.966   2.640
41683SOL    HW126888   1.457  10.061   2.642
41683SOL    HW226889   1.552   9.956   2.587
41684SOL     OW26890  13.645   7.641   2.963
41684SOL    HW126891  13.660   7.561   2.912
41684SOL    HW226892  13.607   7.609   3.045
41685SOL     OW26893   2.685  13.885  13.830
41685SOL    HW126894   2.738  13.854  13.757
41685SOL    HW226895   2.690  13.814  13.894
41686SOL     OW26896   3.381   6.574   1.061
41686SOL    HW126897   3.393   6.668   1.052
41686SOL    HW226898   3.301   6.564   1.113
41687SOL     OW26899   1.573   3.724   3.890
41687SOL    HW126900   1.664   3.700   3.910
41687SOL    HW226901   1.553   3.674   3.811
41688SOL     OW26902  14.642  14.681  13.216
41688SOL    HW126903  14.551  14.676  13.246
41688SOL    HW226904  14.694  14.665  13.295
41689SOL     OW26905  12.471   0.452  12.380
41689SOL    HW126906  12.563   0.462  12.359
41689SOL    HW226907  12.451   0.361  12.360
41690SOL     OW26908  13.584   1.048   1.933
41690SOL    HW126909  13.612   1.109   2.001
41690SOL    HW226910  13.513   0.998   1.972
41691SOL     OW26911   5.819  14.570  11.848
41691SOL    HW126912   5.914  14.560  11.847
41691SOL    HW226913   5.805  14.655  11.890
41692SOL     OW26914   6.662   9.171   4.689
41692SOL    HW126915   6.592   9.135   4.744
41692SOL    HW226916   6.655   9.123   4.607
41693SOL     OW26917  10.911  11.456   2.519
41693SOL    HW126918  10.829  11.428   2.477
41693SOL    HW226919  10.896  11.439   2.613
41694SOL     OW26920   8.609  13.279   0.666
41694SOL    HW126921   8.704  13.285   0.665
41694SOL    HW226922   8.579  13.364   0.634
41695SOL     OW26923   4.418   1.517   2.061
41695SOL    HW126924   4.503   1.508   2.017
41695SOL    HW226925   4.412   1.610   2.082
41696SOL     OW26926   6.748  13.047   0.733
41696SOL    HW126927   6.736  12.975   0.671
41696SOL    HW226928   6.676  13.107   0.714
41697SOL     OW26929   5.768   5.214  14.367
41697SOL    HW126930   5.711   5.291  14.372
41697SOL    HW226931   5.722   5.147  14.416
41698SOL     OW26932  12.868  10.450  12.100
41698SOL    HW126933  12.857  10.496  12.017
41698SOL    HW226934  12.842  10.360  12.080
41699SOL     OW26935  10.615   8.361  12.424
41699SOL    HW126936  10.653   8.449  12.424
41699SOL    HW226937  10.531   8.371  12.380
41700SOL     OW26938   5.528   0.037   0.440
41700SOL    HW126939   5.575   0.052   0.522
41700SOL    HW226940   5.529   0.123   0.396
41701SOL     OW26941   6.740   9.191   9.356
41701SOL    HW126942   6.781   9.241   9.427
41701SOL    HW226943   6.714   9.257   9.292
41702SOL     OW26944   2.053   4.724   7.924
41702SOL    HW126945   2.108   4.686   7.855
41702SOL    HW226946   2.026   4.809   7.888
41703SOL     OW26947   7.575   0.941   0.209
41703SOL    HW126948   7.509   0.993   0.254
41703SOL    HW226949   7.538   0.926   0.122
41704SOL     OW26950   0.886  10.053  12.771
41704SOL    HW126951   0.929  10.079  12.853
41704SOL    HW226952   0.792  10.063  12.789
41705SOL     OW26953   3.773   7.847   6.863
41705SOL    HW126954   3.815   7.931   6.841
41705SOL    HW226955   3.806   7.827   6.951
41706SOL     OW26956   6.187   5.369  14.364
41706SOL    HW126957   6.110   5.344  14.313
41706SOL    HW226958   6.243   5.414  14.301
41707SOL     OW26959   6.097   3.529   7.876
41707SOL    HW126960   6.055   3.443   7.883
41707SOL    HW226961   6.184   3.516   7.914
41708SOL     OW26962   1.787   9.272  12.853
41708SOL    HW126963   1.830   9.202  12.804
41708SOL    HW226964   1.800   9.350  12.799
41709SOL     OW26965  14.644   1.540   6.985
41709SOL    HW126966  14.687   1.480   7.045
41709SOL    HW226967  14.644   1.494   6.901
41710SOL     OW26968   1.472   3.226   2.783
41710SOL    HW126969   1.522   3.288   2.835
41710SOL    HW226970   1.465   3.268   2.697
41711SOL     OW26971  10.424   3.647   7.137
41711SOL    HW126972  10.440   3.674   7.046
41711SOL    HW226973  10.473   3.710   7.189
41712SOL     OW26974   9.250   3.657   3.833
41712SOL    HW126975   9.277   3.663   3.925
41712SOL    HW226976   9.276   3.569   3.806
41713SOL     OW26977   7.808  11.762   2.025
41713SOL    HW126978   7.890  11.716   2.046
41713SOL    HW226979   7.747  11.692   2.001
41714SOL     OW26980   4.496   4.861  13.513
41714SOL    HW126981   4.552   4.784  13.526
41714SOL    HW226982   4.490   4.902  13.599
41715SOL     OW26983  14.204   4.512   4.345
41715SOL    HW126984  14.112   4.527   4.324
41715SOL    HW226985  14.251   4.539   4.266
41716SOL     OW26986   3.700   6.717   7.032
41716SOL    HW126987   3.730   6.786   7.091
41716SOL    HW226988   3.778   6.662   7.018
41717SOL     OW26989   4.667   1.401   2.203
41717SOL    HW126990   4.652   1.467   2.271
41717SOL    HW226991   4.760   1.379   2.210
41718SOL     OW26992   3.899  12.832   7.463
41718SOL    HW126993   3.992  12.824   7.486
41718SOL    HW226994   3.899  12.882   7.382
41719SOL     OW26995  10.258  11.113   7.749
41719SOL    HW126996  10.218  11.199   7.737
41719SOL    HW226997  10.185  11.052   7.739
41720SOL     OW26998   3.840   0.179   3.897
41720SOL    HW126999   3.786   0.238   3.844
41720SOL    HW227000   3.826   0.207   3.987
41721SOL     OW27001   4.372   6.420   7.673
41721SOL    HW127002   4.371   6.515   7.661
41721SOL    HW227003   4.434   6.405   7.743
41722SOL     OW27004  12.473  14.173  11.434
41722SOL    HW127005  12.512  14.247  11.387
41722SOL    HW227006  12.395  14.210  11.475
41723SOL     OW27007   4.242  14.409   9.260
41723SOL    HW127008   4.161  14.457   9.244
41723SOL    HW227009   4.274  14.387   9.173
41724SOL     OW27010   8.112   4.111   1.679
41724SOL    HW127011   8.176   4.183   1.680
41724SOL    HW227012   8.125   4.067   1.763
41725SOL     OW27013  11.759   6.314  14.661
41725SOL    HW127014  11.764   6.232  14.711
41725SOL    HW227015  11.829   6.306  14.596
41726SOL     OW27016   6.467   7.629  14.593
41726SOL    HW127017   6.374   7.622  14.569
41726SOL    HW227018   6.514   7.603  14.514
41727SOL     OW27019  14.567  10.359  12.993
41727SOL    HW127020  14.614  10.280  12.965
41727SOL    HW227021  14.596  10.427  12.933
41728SOL     OW27022   0.502  10.481   6.507
41728SOL    HW127023   0.511  10.407   6.567
41728SOL    HW227024   0.408  10.502   6.509
41729SOL     OW27025  14.057  13.116  10.690
41729SOL    HW127026  14.071  13.210  10.679
41729SOL    HW227027  14.028  13.106  10.780
41730SOL     OW27028   3.927   5.720   0.278
41730SOL    HW127029   3.964   5.792   0.227
41730SOL    HW227030   3.881   5.762   0.350
41731SOL     OW27031  14.176  13.253   0.820
41731SOL    HW127032  14.227  13.281   0.743
41731SOL    HW227033  14.190  13.324   0.883
41732SOL     OW27034   5.143   7.185  13.205
41732SOL    HW127035   5.196   7.262  13.184
41732SOL    HW227036   5.198   7.110  13.183
41733SOL     OW27037   5.385  14.402  12.145
41733SOL    HW127038   5.460  14.460  12.131
41733SOL    HW227039   5.333  14.409  12.065
41734SOL     OW27040  14.487   7.451   6.156
41734SOL    HW127041  14.525   7.510   6.221
41734SOL    HW227042  14.562   7.409   6.114
41735SOL     OW27043   8.771  14.364  14.688
41735SOL    HW127044   8.838  14.366  14.756
41735SOL    HW227045   8.818  14.340  14.608
41736SOL     OW27046   6.721   6.075   4.997
41736SOL    HW127047   6.807   6.088   5.038
41736SOL    HW227048   6.728   5.991   4.953
41737SOL     OW27049   5.726   0.833  12.309
41737SOL    HW127050   5.779   0.895  12.358
41737SOL    HW227051   5.722   0.755  12.364
41738SOL     OW27052   2.701   6.509   3.375
41738SOL    HW127053   2.662   6.422   3.373
41738SOL    HW227054   2.637   6.565   3.329
41739SOL     OW27055   5.818   2.420   8.835
41739SOL    HW127056   5.902   2.436   8.878
41739SOL    HW227057   5.827   2.332   8.797
41740SOL     OW27058  10.934   1.769   6.605
41740SOL    HW127059  10.854   1.718   6.616
41740SOL    HW227060  10.943   1.818   6.687
41741SOL     OW27061   2.120  13.780   2.912
41741SOL    HW127062   2.099  13.753   2.822
41741SOL    HW227063   2.213  13.799   2.911
41742SOL     OW27064  12.554   4.751  14.678
41742SOL    HW127065  12.520   4.724  14.593
41742SOL    HW227066  12.532   4.679  14.737
41743SOL     OW27067   4.887  12.173   1.233
41743SOL    HW127068   4.909  12.139   1.147
41743SOL    HW227069   4.829  12.107   1.271
41744SOL     OW27070  10.636   9.677  13.388
41744SOL    HW127071  10.574   9.617  13.348
41744SOL    HW227072  10.622   9.760  13.343
41745SOL     OW27073   1.950  10.923  10.155
41745SOL    HW127074   1.979  10.949  10.067
41745SOL    HW227075   1.969  10.830  10.159
41746SOL     OW27076   5.937   9.314   5.013
41746SOL    HW127077   5.884   9.253   4.962
41746SOL    HW227078   5.982   9.368   4.948
41747SOL     OW27079   3.486  11.123   8.283
41747SOL    HW127080   3.519  11.170   8.360
41747SOL    HW227081   3.476  11.033   8.314
41748SOL     OW27082   4.028   8.008   5.075
41748SOL    HW127083   4.044   8.078   5.139
41748SOL    HW227084   4.016   8.054   4.992
41749SOL     OW27085  14.568   3.996   5.554
41749SOL    HW127086  14.549   3.906   5.581
41749SOL    HW227087  14.574   4.045   5.636
41750SOL     OW27088   1.948   4.490  11.857
41750SOL    HW127089   1.940   4.419  11.794
41750SOL    HW227090   2.022   4.542  11.825
41751SOL     OW27091  11.574  13.229   0.167
41751SOL    HW127092  11.529  13.209   0.084
41751SOL    HW227093  11.541  13.315   0.191
41752SOL     OW27094   6.880  14.461   3.565
41752SOL    HW127095   6.846  14.550   3.567
41752SOL    HW227096   6.897  14.440   3.656
41753SOL     OW27097   5.573  14.628   5.991
41753SOL    HW127098   5.620  14.633   5.908
41753SOL    HW227099   5.641  14.609   6.056
41754SOL     OW27100   3.542   5.731   9.033
41754SOL    HW127101   3.636   5.723   9.053
41754SOL    HW227102   3.503   5.653   9.072
41755SOL     OW27103   6.162   9.414   4.415
41755SOL    HW127104   6.210   9.445   4.492
41755SOL    HW227105   6.110   9.340   4.448
41756SOL     OW27106  11.689   2.614   9.750
41756SOL    HW127107  11.693   2.588   9.842
41756SOL    HW227108  11.778   2.603   9.718
41757SOL     OW27109  14.810   0.997   3.204
41757SOL    HW127110  14.720   1.005   3.235
41757SOL    HW227111  14.838   1.088   3.190
41758SOL     OW27112  11.769   8.224   6.786
41758SOL    HW127113  11.792   8.317   6.790
41758SOL    HW227114  11.787   8.199   6.695
41759SOL     OW27115   2.624   0.701   4.079
41759SOL    HW127116   2.600   0.793   4.095
41759SOL    HW227117   2.544   0.652   4.097
41760SOL     OW27118   4.189   4.779   0.195
41760SOL    HW127119   4.278   4.750   0.211
41760SOL    HW227120   4.198   4.852   0.135
41761SOL     OW27121   9.522   2.413   5.411
41761SOL    HW127122   9.519   2.333   5.463
41761SOL    HW227123   9.480   2.480   5.466
41762SOL     OW27124   2.772   7.212   1.864
41762SOL    HW127125   2.765   7.276   1.793
41762SOL    HW227126   2.778   7.128   1.819
41763SOL     OW27127   6.578   1.151   1.640
41763SOL    HW127128   6.596   1.081   1.702
41763SOL    HW227129   6.661   1.198   1.631
41764SOL     OW27130  11.140   2.108   9.852
41764SOL    HW127131  11.069   2.122   9.915
41764SOL    HW227132  11.175   2.022   9.874
41765SOL     OW27133  13.857   5.543   2.777
41765SOL    HW127134  13.857   5.630   2.736
41765SOL    HW227135  13.915   5.491   2.723
41766SOL     OW27136  12.930   1.653   6.579
41766SOL    HW127137  12.973   1.640   6.494
41766SOL    HW227138  12.837   1.638   6.561
41767SOL     OW27139   2.201   1.994   5.787
41767SOL    HW127140   2.213   1.966   5.696
41767SOL    HW227141   2.137   2.065   5.781
41768SOL     OW27142  13.109  13.341   5.678
41768SOL    HW127143  13.082  13.249   5.686
41768SOL    HW227144  13.028  13.388   5.657
41769SOL     OW27145  10.314   5.813   3.038
41769SOL    HW127146  10.224   5.800   3.068
41769SOL    HW227147  10.354   5.868   3.106
41770SOL     OW27148   4.074   2.527   9.868
41770SOL    HW127149   3.995   2.512   9.817
41770SOL    HW227150   4.126   2.447   9.858
41771SOL     OW27151   3.086  11.777   0.330
41771SOL    HW127152   3.142  11.852   0.351
41771SOL    HW227153   3.097  11.765   0.236
41772SOL     OW27154   2.496  10.179   0.658
41772SOL    HW127155   2.572  10.122   0.664
41772SOL    HW227156   2.462  10.184   0.748
41773SOL     OW27157   5.645  13.670  14.100
41773SOL    HW127158   5.643  13.765  14.103
41773SOL    HW227159   5.556  13.645  14.074
41774SOL     OW27160   1.184   0.012   8.177
41774SOL    HW127161   1.171   0.029   8.270
41774SOL    HW227162   1.144  14.803   8.162
41775SOL     OW27163  14.818   1.456   7.813
41775SOL    HW127164  14.765   1.535   7.804
41775SOL    HW227165  14.865   1.467   7.895
41776SOL     OW27166  11.617   8.903  12.574
41776SOL    HW127167  11.694   8.922  12.521
41776SOL    HW227168  11.606   8.980  12.630
41777SOL     OW27169  13.485  12.582   2.551
41777SOL    HW127170  13.516  12.613   2.466
41777SOL    HW227171  13.529  12.498   2.563
41778SOL     OW27172   3.775   8.664  14.361
41778SOL    HW127173   3.791   8.693  14.271
41778SOL    HW227174   3.719   8.586  14.352
41779SOL     OW27175  13.496   3.585   1.699
41779SOL    HW127176  13.492   3.539   1.783
41779SOL    HW227177  13.589   3.606   1.688
41780SOL     OW27178   4.817   7.686   5.933
41780SOL    HW127179   4.816   7.625   6.007
41780SOL    HW227180   4.798   7.632   5.856
41781SOL     OW27181   7.479   5.668   2.770
41781SOL    HW127182   7.464   5.696   2.680
41781SOL    HW227183   7.423   5.590   2.780
41782SOL     OW27184   7.473  10.452  10.706
41782SOL    HW127185   7.474  10.447  10.610
41782SOL    HW227186   7.565  10.450  10.731
41783SOL     OW27187   4.441   2.155   9.576
41783SOL    HW127188   4.442   2.067   9.538
41783SOL    HW227189   4.467   2.143   9.667
41784SOL     OW27190   9.179   2.634  11.847
41784SOL    HW127191   9.244   2.611  11.913
41784SOL    HW227192   9.223   2.698  11.791
41785SOL     OW27193   9.395   9.554  11.273
41785SOL    HW127194   9.346   9.624  11.317
41785SOL    HW227195   9.337   9.478  11.278
41786SOL     OW27196  12.330  12.178   4.813
41786SOL    HW127197  12.329  12.130   4.896
41786SOL    HW227198  12.422  12.201   4.800
41787SOL     OW27199   0.891   0.798   5.334
41787SOL    HW127200   0.842   0.880   5.343
41787SOL    HW227201   0.857   0.742   5.404
41788SOL     OW27202  13.429   1.670   9.894
41788SOL    HW127203  13.468   1.597   9.942
41788SOL    HW227204  13.473   1.748   9.928
41789SOL     OW27205  10.849  13.415  13.249
41789SOL    HW127206  10.805  13.444  13.170
41789SOL    HW227207  10.778  13.387  13.307
41790SOL     OW27208  10.766  12.352  10.538
41790SOL    HW127209  10.691  12.330  10.594
41790SOL    HW227210  10.786  12.270  10.492
41791SOL     OW27211   7.806   3.453   0.915
41791SOL    HW127212   7.751   3.426   0.842
41791SOL    HW227213   7.747   3.503   0.972
41792SOL     OW27214   8.033   6.187   5.525
41792SOL    HW127215   7.981   6.111   5.551
41792SOL    HW227216   8.100   6.152   5.466
41793SOL     OW27217  10.366  13.506  14.150
41793SOL    HW127218  10.280  13.544  14.133
41793SOL    HW227219  10.405  13.562  14.218
41794SOL     OW27220   8.060   4.222   6.082
41794SOL    HW127221   8.123   4.150   6.077
41794SOL    HW227222   8.002   4.198   6.155
41795SOL     OW27223   4.228   8.992   9.388
41795SOL    HW127224   4.213   9.009   9.481
41795SOL    HW227225   4.265   9.074   9.355
41796SOL     OW27226   0.142   1.025   5.302
41796SOL    HW127227   0.147   1.116   5.331
41796SOL    HW227228   0.062   1.021   5.249
41797SOL     OW27229   7.175   0.326  10.483
41797SOL    HW127230   7.259   0.366  10.460
41797SOL    HW227231   7.183   0.236  10.451
41798SOL     OW27232   0.266   1.539  11.363
41798SOL    HW127233   0.177   1.566  11.388
41798SOL    HW227234   0.257   1.506  11.274
41799SOL     OW27235   9.773   3.117   5.047
41799SOL    HW127236   9.684   3.090   5.026
41799SOL    HW227237   9.768   3.149   5.137
41800SOL     OW27238   6.939   0.905   3.610
41800SOL    HW127239   7.010   0.841   3.600
41800SOL    HW227240   6.907   0.892   3.699
41801SOL     OW27241  11.375   6.231   0.720
41801SOL    HW127242  11.348   6.311   0.675
41801SOL    HW227243  11.296   6.177   0.722
41802SOL     OW27244   9.655  14.155  10.639
41802SOL    HW127245   9.583  14.217  10.627
41802SOL    HW227246   9.733  14.202  10.610
41803SOL     OW27247   5.471   3.443  11.261
41803SOL    HW127248   5.432   3.431  11.347
41803SOL    HW227249   5.505   3.356  11.238
41804SOL     OW27250  12.977   7.480   4.496
41804SOL    HW127251  13.033   7.437   4.562
41804SOL    HW227252  13.003   7.572   4.499
41805SOL     OW27253   1.372   9.265   0.302
41805SOL    HW127254   1.433   9.211   0.352
41805SOL    HW227255   1.345   9.333   0.362
41806SOL     OW27256   4.234  12.069   3.498
41806SOL    HW127257   4.263  12.069   3.590
41806SOL    HW227258   4.297  12.125   3.453
41807SOL     OW27259   8.240   2.354  10.768
41807SOL    HW127260   8.326   2.348  10.809
41807SOL    HW227261   8.256   2.399  10.685
41808SOL     OW27262   7.469   8.677   5.522
41808SOL    HW127263   7.379   8.692   5.552
41808SOL    HW227264   7.523   8.693   5.599
41809SOL     OW27265   2.889   5.416   2.250
41809SOL    HW127266   2.847   5.338   2.286
41809SOL    HW227267   2.898   5.475   2.325
41810SOL     OW27268   3.627   5.478  10.436
41810SOL    HW127269   3.651   5.407  10.376
41810SOL    HW227270   3.532   5.489  10.424
41811SOL     OW27271   7.818  14.013   0.596
41811SOL    HW127272   7.913  14.009   0.599
41811SOL    HW227273   7.790  13.921   0.595
41812SOL     OW27274   6.842   0.453   5.124
41812SOL    HW127275   6.828   0.367   5.084
41812SOL    HW227276   6.775   0.509   5.085
41813SOL     OW27277   5.083  13.425  12.963
41813SOL    HW127278   5.054  13.512  12.936
41813SOL    HW227279   5.161  13.408  12.909
41814SOL     OW27280  13.466  12.060   1.871
41814SOL    HW127281  13.426  12.102   1.947
41814SOL    HW227282  13.520  12.129   1.832
41815SOL     OW27283  12.616   9.292   3.561
41815SOL    HW127284  12.543   9.341   3.599
41815SOL    HW227285  12.590   9.201   3.570
41816SOL     OW27286   2.621  12.631   1.017
41816SOL    HW127287   2.615  12.656   1.109
41816SOL    HW227288   2.692  12.567   1.014
41817SOL     OW27289   3.928   0.142  13.110
41817SOL    HW127290   3.839   0.109  13.119
41817SOL    HW227291   3.919   0.237  13.110
41818SOL     OW27292   5.106   0.701   7.102
41818SOL    HW127293   5.117   0.633   7.036
41818SOL    HW227294   5.163   0.772   7.073
41819SOL     OW27295  13.206   4.271   5.358
41819SOL    HW127296  13.182   4.180   5.377
41819SOL    HW227297  13.161   4.322   5.425
41820SOL     OW27298  12.755   8.827   9.585
41820SOL    HW127299  12.682   8.889   9.590
41820SOL    HW227300  12.768   8.798   9.675
41821SOL     OW27301   9.444   9.219   0.375
41821SOL    HW127302   9.475   9.134   0.343
41821SOL    HW227303   9.524   9.270   0.387
41822SOL     OW27304   8.285   4.172   4.823
41822SOL    HW127305   8.217   4.108   4.842
41822SOL    HW227306   8.292   4.225   4.902
41823SOL     OW27307   0.044   4.890   4.608
41823SOL    HW127308   0.049   4.851   4.695
41823SOL    HW227309  14.827   4.906   4.594
41824SOL     OW27310   0.951   6.344  11.248
41824SOL    HW127311   0.991   6.426  11.276
41824SOL    HW227312   0.893   6.320  11.321
41825SOL     OW27313   9.541  13.566  14.861
41825SOL    HW127314   9.574  13.544   0.072
41825SOL    HW227315   9.620  13.570  14.806
41826SOL     OW27316   4.252   8.854   6.865
41826SOL    HW127317   4.316   8.901   6.812
41826SOL    HW227318   4.245   8.905   6.946
41827SOL     OW27319  10.148  11.178   4.458
41827SOL    HW127320  10.162  11.132   4.540
41827SOL    HW227321  10.222  11.151   4.403
41828SOL     OW27322  12.515   7.999  10.741
41828SOL    HW127323  12.473   7.974  10.823
41828SOL    HW227324  12.470   8.080  10.715
41829SOL     OW27325  11.109   3.321  13.195
41829SOL    HW127326  11.157   3.239  13.188
41829SOL    HW227327  11.041   3.316  13.128
41830SOL     OW27328   9.089  11.945  11.363
41830SOL    HW127329   9.044  11.955  11.447
41830SOL    HW227330   9.050  11.868  11.323
41831SOL     OW27331  13.886  14.591   5.885
41831SOL    HW127332  13.932  14.660   5.931
41831SOL    HW227333  13.953  14.526   5.866
41832SOL     OW27334   2.964   5.805   1.942
41832SOL    HW127335   2.988   5.734   1.883
41832SOL    HW227336   2.897   5.768   1.999
41833SOL     OW27337   9.062   3.939   6.742
41833SOL    HW127338   9.099   3.997   6.676
41833SOL    HW227339   9.137   3.890   6.776
41834SOL     OW27340  11.958  11.693  10.952
41834SOL    HW127341  12.011  11.670  11.028
41834SOL    HW227342  11.888  11.749  10.987
41835SOL     OW27343   1.547  10.842  13.074
41835SOL    HW127344   1.510  10.772  13.019
41835SOL    HW227345   1.544  10.805  13.163
41836SOL     OW27346  12.131  14.687   8.081
41836SOL    HW127347  12.068  14.759   8.085
41836SOL    HW227348  12.093  14.627   8.017
41837SOL     OW27349   4.030   1.970   5.410
41837SOL    HW127350   3.998   1.926   5.489
41837SOL    HW227351   4.049   2.059   5.439
41838SOL     OW27352   5.097   1.832  11.727
41838SOL    HW127353   5.058   1.869  11.648
41838SOL    HW227354   5.141   1.753  11.697
41839SOL     OW27355   1.465   7.971  12.535
41839SOL    HW127356   1.400   8.034  12.503
41839SOL    HW227357   1.435   7.887  12.502
41840SOL     OW27358   7.408   9.918   9.965
41840SOL    HW127359   7.357   9.905  10.045
41840SOL    HW227360   7.420  10.012   9.958
41841SOL     OW27361   7.582   3.236   1.707
41841SOL    HW127362   7.574   3.141   1.715
41841SOL    HW227363   7.492   3.268   1.711
41842SOL     OW27364   5.746   5.671   2.043
41842SOL    HW127365   5.726   5.593   1.991
41842SOL    HW227366   5.696   5.741   2.000
41843SOL     OW27367   3.732   6.287   1.251
41843SOL    HW127368   3.804   6.287   1.188
41843SOL    HW227369   3.717   6.194   1.270
41844SOL     OW27370   7.635   9.521   8.500
41844SOL    HW127371   7.567   9.472   8.547
41844SOL    HW227372   7.598   9.609   8.489
41845SOL     OW27373  14.817   7.859  10.276
41845SOL    HW127374  14.765   7.843  10.197
41845SOL    HW227375  14.823   7.773  10.318
41846SOL     OW27376  12.108  11.814  12.611
41846SOL    HW127377  12.165  11.736  12.606
41846SOL    HW227378  12.158  11.876  12.664
41847SOL     OW27379   4.117   9.762   0.026
41847SOL    HW127380   4.145   9.672   0.009
41847SOL    HW227381   4.080   9.759   0.115
41848SOL     OW27382   0.737   1.569  11.164
41848SOL    HW127383   0.826   1.596  11.184
41848SOL    HW227384   0.739   1.549  11.070
41849SOL     OW27385   0.700  13.385   7.899
41849SOL    HW127386   0.795  13.383   7.916
41849SOL    HW227387   0.682  13.475   7.873
41850SOL     OW27388   5.149   6.541  13.280
41850SOL    HW127389   5.176   6.472  13.219
41850SOL    HW227390   5.065   6.573  13.245
41851SOL     OW27391   3.077  14.152  11.500
41851SOL    HW127392   3.064  14.224  11.438
41851SOL    HW227393   3.117  14.194  11.576
41852SOL     OW27394   2.279   6.498   4.870
41852SOL    HW127395   2.350   6.560   4.889
41852SOL    HW227396   2.309   6.415   4.907
41853SOL     OW27397   8.407  11.215   1.398
41853SOL    HW127398   8.438  11.147   1.457
41853SOL    HW227399   8.315  11.192   1.381
41854SOL     OW27400   0.191   9.442  13.806
41854SOL    HW127401   0.147   9.448  13.891
41854SOL    HW227402   0.277   9.482  13.820
41855SOL     OW27403   5.205  10.670   7.000
41855SOL    HW127404   5.115  10.639   7.009
41855SOL    HW227405   5.230  10.647   6.911
41856SOL     OW27406   1.002   0.545  14.630
41856SOL    HW127407   1.066   0.572  14.564
41856SOL    HW227408   1.047   0.558  14.713
41857SOL     OW27409   3.497   6.921  13.055
41857SOL    HW127410   3.527   6.958  13.138
41857SOL    HW227411   3.475   6.830  13.076
41858SOL     OW27412   1.554   8.053   2.331
41858SOL    HW127413   1.523   7.964   2.313
41858SOL    HW227414   1.628   8.042   2.391
41859SOL     OW27415  12.317   2.184   2.673
41859SOL    HW127416  12.318   2.103   2.724
41859SOL    HW227417  12.398   2.228   2.697
41860SOL     OW27418   9.449  11.249   5.196
41860SOL    HW127419   9.366  11.210   5.170
41860SOL    HW227420   9.492  11.181   5.249
41861SOL     OW27421   6.956  12.334   4.724
41861SOL    HW127422   7.020  12.373   4.783
41861SOL    HW227423   6.949  12.243   4.753
41862SOL     OW27424   2.116  14.443   9.694
41862SOL    HW127425   2.109  14.351   9.720
41862SOL    HW227426   2.203  14.451   9.656
41863SOL     OW27427  12.923  14.401  13.084
41863SOL    HW127428  12.975  14.468  13.041
41863SOL    HW227429  12.877  14.447  13.154
41864SOL     OW27430   0.939   2.190   3.684
41864SOL    HW127431   1.004   2.121   3.680
41864SOL    HW227432   0.873   2.158   3.746
41865SOL     OW27433  14.269  11.778  11.282
41865SOL    HW127434  14.287  11.738  11.367
41865SOL    HW227435  14.205  11.719  11.241
41866SOL     OW27436   2.625   9.111  13.008
41866SOL    HW127437   2.646   9.092  13.100
41866SOL    HW227438   2.707   9.142  12.971
41867SOL     OW27439  11.849  13.792   8.056
41867SOL    HW127440  11.905  13.716   8.039
41867SOL    HW227441  11.848  13.800   8.151
41868SOL     OW27442   5.370   4.088   8.930
41868SOL    HW127443   5.360   4.038   8.849
41868SOL    HW227444   5.465   4.098   8.940
41869SOL     OW27445  13.325  14.793   2.736
41869SOL    HW127446  13.317   0.006   2.703
41869SOL    HW227447  13.262  14.789   2.809
41870SOL     OW27448  10.217  14.672   0.528
41870SOL    HW127449  10.146  14.622   0.487
41870SOL    HW227450  10.266  14.709   0.454
41871SOL     OW27451   6.585   3.224   9.276
41871SOL    HW127452   6.533   3.174   9.339
41871SOL    HW227453   6.577   3.315   9.305
41872SOL     OW27454   0.247   4.869  11.808
41872SOL    HW127455   0.243   4.889  11.714
41872SOL    HW227456   0.156   4.856  11.834
41873SOL     OW27457  13.804  14.127  10.121
41873SOL    HW127458  13.868  14.056  10.126
41873SOL    HW227459  13.750  14.117  10.200
41874SOL     OW27460   4.959   9.682  12.188
41874SOL    HW127461   4.903   9.620  12.141
41874SOL    HW227462   4.904   9.760  12.200
41875SOL     OW27463   7.718  14.477   9.922
41875SOL    HW127464   7.687  14.392   9.891
41875SOL    HW227465   7.790  14.456   9.982
41876SOL     OW27466   4.214  11.547  10.922
41876SOL    HW127467   4.175  11.553  10.835
41876SOL    HW227468   4.235  11.637  10.945
41877SOL     OW27469   1.731  10.418  14.730
41877SOL    HW127470   1.690  10.395  14.646
41877SOL    HW227471   1.719  10.339  14.783
41878SOL     OW27472  11.206   2.042   8.616
41878SOL    HW127473  11.204   2.011   8.525
41878SOL    HW227474  11.131   1.998   8.657
41879SOL     OW27475  14.514  11.733  11.692
41879SOL    HW127476  14.587  11.674  11.712
41879SOL    HW227477  14.455  11.681  11.638
41880SOL     OW27478  12.642   3.772   1.399
41880SOL    HW127479  12.723   3.797   1.442
41880SOL    HW227480  12.611   3.852   1.356
41881SOL     OW27481   4.840   7.351  14.366
41881SOL    HW127482   4.793   7.421  14.411
41881SOL    HW227483   4.916   7.332  14.421
41882SOL     OW27484  12.478  11.408   6.518
41882SOL    HW127485  12.392  11.370   6.498
41882SOL    HW227486  12.481  11.412   6.614
41883SOL     OW27487   3.210   8.368   6.297
41883SOL    HW127488   3.290   8.417   6.315
41883SOL    HW227489   3.213   8.294   6.358
41884SOL     OW27490   6.655   5.456   4.179
41884SOL    HW127491   6.654   5.528   4.116
41884SOL    HW227492   6.718   5.482   4.245
41885SOL     OW27493   3.203   2.131   0.416
41885SOL    HW127494   3.151   2.209   0.438
41885SOL    HW227495   3.244   2.105   0.498
41886SOL     OW27496  13.929   8.444   8.445
41886SOL    HW127497  13.987   8.498   8.499
41886SOL    HW227498  13.950   8.354   8.470
41887SOL     OW27499  12.489  12.271   6.832
41887SOL    HW127500  12.536  12.192   6.861
41887SOL    HW227501  12.554  12.321   6.783
41888SOL     OW27502   2.746  11.031   3.806
41888SOL    HW127503   2.829  11.013   3.849
41888SOL    HW227504   2.684  10.971   3.848
41889SOL     OW27505   8.452  14.048   7.483
41889SOL    HW127506   8.547  14.048   7.480
41889SOL    HW227507   8.425  13.979   7.422
41890SOL     OW27508   4.651  13.731   4.305
41890SOL    HW127509   4.676  13.691   4.388
41890SOL    HW227510   4.633  13.823   4.327
41891SOL     OW27511   0.261   1.867   6.441
41891SOL    HW127512   0.302   1.899   6.360
41891SOL    HW227513   0.274   1.938   6.504
41892SOL     OW27514   8.186   3.675   3.749
41892SOL    HW127515   8.182   3.580   3.760
41892SOL    HW227516   8.111   3.695   3.692
41893SOL     OW27517  11.017  10.781   8.384
41893SOL    HW127518  11.031  10.784   8.479
41893SOL    HW227519  10.945  10.842   8.368
41894SOL     OW27520   6.135   3.279   1.913
41894SOL    HW127521   6.098   3.258   1.828
41894SOL    HW227522   6.205   3.215   1.926
41895SOL     OW27523   8.684   4.590   7.737
41895SOL    HW127524   8.698   4.562   7.646
41895SOL    HW227525   8.718   4.518   7.789
41896SOL     OW27526   4.881   8.862   9.788
41896SOL    HW127527   4.910   8.779   9.750
41896SOL    HW227528   4.905   8.855   9.880
41897SOL     OW27529  12.478   8.011  11.443
41897SOL    HW127530  12.464   7.930  11.394
41897SOL    HW227531  12.572   8.028  11.437
41898SOL     OW27532  13.898   5.942   3.070
41898SOL    HW127533  13.886   5.856   3.111
41898SOL    HW227534  13.971   5.930   3.009
41899SOL     OW27535   0.486   9.617  13.511
41899SOL    HW127536   0.485   9.570  13.594
41899SOL    HW227537   0.422   9.572  13.457
41900SOL     OW27538   7.668   1.324  11.659
41900SOL    HW127539   7.650   1.390  11.727
41900SOL    HW227540   7.597   1.336  11.596
41901SOL     OW27541   3.167   0.462   2.390
41901SOL    HW127542   3.104   0.529   2.367
41901SOL    HW227543   3.219   0.449   2.310
41902SOL     OW27544  11.182   3.503   2.535
41902SOL    HW127545  11.140   3.434   2.485
41902SOL    HW227546  11.122   3.523   2.607
41903SOL     OW27547   2.532   1.945   4.888
41903SOL    HW127548   2.528   1.871   4.949
41903SOL    HW227549   2.625   1.956   4.871
41904SOL     OW27550   9.962  14.187   6.477
41904SOL    HW127551   9.978  14.177   6.571
41904SOL    HW227552   9.877  14.230   6.472
41905SOL     OW27553   3.858   2.743   2.059
41905SOL    HW127554   3.787   2.787   2.013
41905SOL    HW227555   3.863   2.657   2.017
41906SOL     OW27556  13.885   3.685   9.899
41906SOL    HW127557  13.800   3.689   9.855
41906SOL    HW227558  13.882   3.603   9.950
41907SOL     OW27559  11.234   7.290  10.406
41907SOL    HW127560  11.185   7.214  10.437
41907SOL    HW227561  11.229   7.284  10.310
41908SOL     OW27562  12.704   9.357   6.146
41908SOL    HW127563  12.614   9.365   6.116
41908SOL    HW227564  12.734   9.448   6.156
41909SOL     OW27565   5.351   6.052  11.326
41909SOL    HW127566   5.334   6.109  11.401
41909SOL    HW227567   5.418   6.098  11.275
41910SOL     OW27568  14.580   7.840   7.592
41910SOL    HW127569  14.617   7.926   7.612
41910SOL    HW227570  14.587   7.832   7.497
41911SOL     OW27571  10.007   0.188   3.705
41911SOL    HW127572  10.004   0.097   3.735
41911SOL    HW227573   9.925   0.200   3.658
41912SOL     OW27574   3.401   1.842   7.209
41912SOL    HW127575   3.311   1.867   7.232
41912SOL    HW227576   3.441   1.923   7.177
41913SOL     OW27577  10.324   9.073   5.525
41913SOL    HW127578  10.377   9.006   5.569
41913SOL    HW227579  10.364   9.081   5.438
41914SOL     OW27580   0.218  10.612   5.521
41914SOL    HW127581   0.233  10.558   5.443
41914SOL    HW227582   0.238  10.701   5.493
41915SOL     OW27583   7.143  12.778  13.537
41915SOL    HW127584   7.105  12.802  13.452
41915SOL    HW227585   7.090  12.704  13.567
41916SOL     OW27586  11.060  12.438   5.036
41916SOL    HW127587  10.975  12.459   5.074
41916SOL    HW227588  11.063  12.342   5.036
41917SOL     OW27589   2.361   0.122  10.720
41917SOL    HW127590   2.309   0.140  10.642
41917SOL    HW227591   2.358   0.026  10.729
41918SOL     OW27592  13.302   5.673   0.284
41918SOL    HW127593  13.319   5.766   0.269
41918SOL    HW227594  13.223   5.655   0.233
41919SOL     OW27595   0.877   7.868   5.848
41919SOL    HW127596   0.888   7.790   5.794
41919SOL    HW227597   0.963   7.881   5.890
41920SOL     OW27598  11.425   2.565  14.632
41920SOL    HW127599  11.502   2.507  14.625
41920SOL    HW227600  11.396   2.554  14.723
41921SOL     OW27601   8.288  12.340   8.184
41921SOL    HW127602   8.244  12.396   8.249
41921SOL    HW227603   8.381  12.361   8.193
41922SOL     OW27604   9.752   2.496  11.199
41922SOL    HW127605   9.658   2.481  11.190
41922SOL    HW227606   9.766   2.580  11.156
41923SOL     OW27607   4.098   1.091  14.268
41923SOL    HW127608   4.056   1.166  14.226
41923SOL    HW227609   4.026   1.033  14.292
41924SOL     OW27610   1.105   5.696   9.186
41924SOL    HW127611   1.132   5.662   9.101
41924SOL    HW227612   1.021   5.738   9.170
41925SOL     OW27613   1.979   6.753   6.454
41925SOL    HW127614   1.934   6.764   6.538
41925SOL    HW227615   2.023   6.668   6.461
41926SOL     OW27616  13.710  10.204   0.798
41926SOL    HW127617  13.718  10.273   0.732
41926SOL    HW227618  13.797  10.164   0.802
41927SOL     OW27619  14.284   5.355   3.902
41927SOL    HW127620  14.247   5.396   3.824
41927SOL    HW227621  14.229   5.278   3.917
41928SOL     OW27622   4.227   3.877  10.792
41928SOL    HW127623   4.316   3.879  10.827
41928SOL    HW227624   4.236   3.830  10.709
41929SOL     OW27625  12.176   6.231   2.914
41929SOL    HW127626  12.163   6.315   2.958
41929SOL    HW227627  12.090   6.191   2.912
41930SOL     OW27628   6.770   5.975   2.155
41930SOL    HW127629   6.735   6.049   2.105
41930SOL    HW227630   6.803   6.014   2.236
41931SOL     OW27631  12.839   6.488   6.698
41931SOL    HW127632  12.930   6.461   6.708
41931SOL    HW227633  12.828   6.501   6.604
41932SOL     OW27634   2.246   9.085   3.319
41932SOL    HW127635   2.280   9.026   3.386
41932SOL    HW227636   2.289   9.056   3.238
41933SOL     OW27637   1.588   1.784   3.663
41933SOL    HW127638   1.495   1.782   3.684
41933SOL    HW227639   1.594   1.741   3.577
41934SOL     OW27640  12.763  10.726   0.566
41934SOL    HW127641  12.725  10.714   0.479
41934SOL    HW227642  12.690  10.708   0.626
41935SOL     OW27643  14.828   1.449  14.402
41935SOL    HW127644   0.005   1.477  14.476
41935SOL    HW227645   0.014   1.444  14.329
41936SOL     OW27646   1.248   3.143  10.160
41936SOL    HW127647   1.215   3.197  10.088
41936SOL    HW227648   1.344   3.150  10.154
41937SOL     OW27649   6.184   9.821   2.147
41937SOL    HW127650   6.215   9.737   2.180
41937SOL    HW227651   6.107   9.800   2.095
41938SOL     OW27652   9.149   6.994   3.723
41938SOL    HW127653   9.222   7.028   3.776
41938SOL    HW227654   9.190   6.929   3.665
41939SOL     OW27655  13.541   9.592   0.906
41939SOL    HW127656  13.578   9.529   0.845
41939SOL    HW227657  13.456   9.615   0.869
41940SOL     OW27658  10.909  10.437  10.747
41940SOL    HW127659  10.896  10.364  10.808
41940SOL    HW227660  10.927  10.395  10.663
41941SOL     OW27661  13.092   2.168   4.117
41941SOL    HW127662  13.171   2.222   4.113
41941SOL    HW227663  13.027   2.223   4.160
41942SOL     OW27664  12.491   5.997  14.525
41942SOL    HW127665  12.520   6.010  14.435
41942SOL    HW227666  12.430   6.069  14.541
41943SOL     OW27667   6.171   2.704   0.512
41943SOL    HW127668   6.230   2.640   0.552
41943SOL    HW227669   6.090   2.655   0.494
41944SOL     OW27670   5.784   9.855   0.954
41944SOL    HW127671   5.716   9.884   0.893
41944SOL    HW227672   5.860   9.911   0.934
41945SOL     OW27673   4.538   9.164   8.762
41945SOL    HW127674   4.547   9.103   8.689
41945SOL    HW227675   4.601   9.132   8.827
41946SOL     OW27676   9.255  14.258  14.040
41946SOL    HW127677   9.206  14.195  13.987
41946SOL    HW227678   9.328  14.208  14.075
41947SOL     OW27679  11.177   3.179   5.158
41947SOL    HW127680  11.190   3.162   5.252
41947SOL    HW227681  11.108   3.244   5.155
41948SOL     OW27682   5.559   8.890   6.850
41948SOL    HW127683   5.634   8.947   6.834
41948SOL    HW227684   5.553   8.836   6.771
41949SOL     OW27685   1.121   5.080   1.450
41949SOL    HW127686   1.119   5.165   1.494
41949SOL    HW227687   1.029   5.055   1.441
41950SOL     OW27688   0.600   1.966  12.728
41950SOL    HW127689   0.587   1.883  12.775
41950SOL    HW227690   0.551   1.955  12.647
41951SOL     OW27691   3.536   0.661   1.798
41951SOL    HW127692   3.557   0.591   1.737
41951SOL    HW227693   3.458   0.703   1.762
41952SOL     OW27694   7.126  11.315   9.263
41952SOL    HW127695   7.142  11.222   9.277
41952SOL    HW227696   7.186  11.359   9.323
41953SOL     OW27697   1.974   5.960   4.175
41953SOL    HW127698   2.057   6.003   4.195
41953SOL    HW227699   1.968   5.962   4.080
41954SOL     OW27700  12.897   9.890   8.680
41954SOL    HW127701  12.929   9.828   8.745
41954SOL    HW227702  12.943   9.867   8.599
41955SOL     OW27703   2.901  13.042  14.298
41955SOL    HW127704   2.910  13.135  14.318
41955SOL    HW227705   2.817  13.017  14.336
41956SOL     OW27706   7.216   7.003   8.883
41956SOL    HW127707   7.147   6.945   8.917
41956SOL    HW227708   7.202   7.004   8.788
41957SOL     OW27709   9.392   8.302   5.864
41957SOL    HW127710   9.308   8.327   5.903
41957SOL    HW227711   9.425   8.383   5.825
41958SOL     OW27712  12.119   3.341   7.426
41958SOL    HW127713  12.161   3.320   7.509
41958SOL    HW227714  12.123   3.437   7.421
41959SOL     OW27715   5.299   4.924  14.214
41959SOL    HW127716   5.347   4.842  14.218
41959SOL    HW227717   5.313   4.956  14.125
41960SOL     OW27718   1.341   2.479   4.113
41960SOL    HW127719   1.275   2.422   4.151
41960SOL    HW227720   1.309   2.497   4.024
41961SOL     OW27721   6.884  11.603   8.318
41961SOL    HW127722   6.923  11.681   8.279
41961SOL    HW227723   6.947  11.533   8.301
41962SOL     OW27724   3.579   4.945  12.637
41962SOL    HW127725   3.666   4.960  12.601
41962SOL    HW227726   3.595   4.894  12.717
41963SOL     OW27727   2.639   5.597   6.047
41963SOL    HW127728   2.704   5.567   6.111
41963SOL    HW227729   2.563   5.540   6.062
41964SOL     OW27730   4.836   0.312  11.279
41964SOL    HW127731   4.768   0.345  11.338
41964SOL    HW227732   4.839   0.218  11.295
41965SOL     OW27733  12.229  12.072  12.703
41965SOL    HW127734  12.201  12.163  12.715
41965SOL    HW227735  12.305  12.078  12.646
41966SOL     OW27736   8.738   1.608  13.464
41966SOL    HW127737   8.798   1.680  13.443
41966SOL    HW227738   8.672   1.647  13.521
41967SOL     OW27739  12.912   7.087   3.569
41967SOL    HW127740  12.824   7.068   3.600
41967SOL    HW227741  12.966   7.089   3.648
41968SOL     OW27742   8.606  13.050   9.921
41968SOL    HW127743   8.511  13.044   9.913
41968SOL    HW227744   8.635  12.960   9.933
41969SOL     OW27745   9.218  11.280  10.423
41969SOL    HW127746   9.249  11.249  10.337
41969SOL    HW227747   9.295  11.276  10.479
41970SOL     OW27748   2.222   6.649   3.770
41970SOL    HW127749   2.250   6.601   3.693
41970SOL    HW227750   2.289   6.716   3.782
41971SOL     OW27751   6.903   7.040  11.168
41971SOL    HW127752   6.957   6.961  11.156
41971SOL    HW227753   6.920   7.091  11.089
41972SOL     OW27754   3.396  10.131  13.053
41972SOL    HW127755   3.318  10.152  13.001
41972SOL    HW227756   3.411  10.210  13.105
41973SOL     OW27757   4.303   8.893   8.297
41973SOL    HW127758   4.378   8.922   8.246
41973SOL    HW227759   4.316   8.932   8.384
41974SOL     OW27760   2.145  10.035   9.519
41974SOL    HW127761   2.206   9.969   9.485
41974SOL    HW227762   2.059  10.004   9.493
41975SOL     OW27763  14.108   2.591   7.422
41975SOL    HW127764  14.096   2.661   7.358
41975SOL    HW227765  14.080   2.512   7.377
41976SOL     OW27766   0.794  14.318   6.582
41976SOL    HW127767   0.861  14.320   6.651
41976SOL    HW227768   0.750  14.234   6.595
41977SOL     OW27769   9.579   2.828  12.327
41977SOL    HW127770   9.668   2.859  12.341
41977SOL    HW227771   9.527   2.872  12.394
41978SOL     OW27772  10.678   0.271   9.689
41978SOL    HW127773  10.634   0.327   9.753
41978SOL    HW227774  10.728   0.209   9.742
41979SOL     OW27775   2.776   0.206  11.414
41979SOL    HW127776   2.747   0.270  11.349
41979SOL    HW227777   2.817   0.257  11.483
41980SOL     OW27778   6.424   4.997   7.796
41980SOL    HW127779   6.364   5.044   7.739
41980SOL    HW227780   6.367   4.953   7.860
41981SOL     OW27781  14.655   8.202   1.387
41981SOL    HW127782  14.736   8.193   1.337
41981SOL    HW227783  14.609   8.120   1.373
41982SOL     OW27784   2.847   9.391   6.904
41982SOL    HW127785   2.879   9.351   6.824
41982SOL    HW227786   2.925   9.404   6.958
41983SOL     OW27787   3.168   8.412   3.680
41983SOL    HW127788   3.191   8.469   3.607
41983SOL    HW227789   3.249   8.365   3.700
41984SOL     OW27790   8.671   2.713  10.641
41984SOL    HW127791   8.652   2.725  10.548
41984SOL    HW227792   8.711   2.795  10.668
41985SOL     OW27793   2.981   1.531   0.918
41985SOL    HW127794   3.035   1.467   0.964
41985SOL    HW227795   3.040   1.569   0.853
41986SOL     OW27796  14.812   8.674  11.649
41986SOL    HW127797  14.869   8.662  11.724
41986SOL    HW227798  14.864   8.646  11.574
41987SOL     OW27799   6.583   2.209  11.837
41987SOL    HW127800   6.650   2.257  11.886
41987SOL    HW227801   6.501   2.251  11.861
41988SOL     OW27802   6.518   0.618  10.914
41988SOL    HW127803   6.517   0.699  10.863
41988SOL    HW227804   6.608   0.586  10.907
41989SOL     OW27805   6.612  13.917   3.871
41989SOL    HW127806   6.680  13.863   3.914
41989SOL    HW227807   6.536  13.909   3.929
41990SOL     OW27808  14.601   7.573   9.880
41990SOL    HW127809  14.584   7.508   9.812
41990SOL    HW227810  14.655   7.639   9.837
41991SOL     OW27811  11.229   1.569  12.249
41991SOL    HW127812  11.263   1.491  12.204
41991SOL    HW227813  11.246   1.552  12.341
41992SOL     OW27814  12.488  14.360   0.290
41992SOL    HW127815  12.456  14.450   0.283
41992SOL    HW227816  12.545  14.360   0.367
41993SOL     OW27817   3.954  13.490   4.699
41993SOL    HW127818   3.936  13.490   4.605
41993SOL    HW227819   3.868  13.505   4.739
41994SOL     OW27820   9.432  11.468   3.888
41994SOL    HW127821   9.356  11.518   3.856
41994SOL    HW227822   9.499  11.534   3.905
41995SOL     OW27823   0.066   5.555  13.894
41995SOL    HW127824   0.055   5.549  13.989
41995SOL    HW227825   0.000   5.619  13.866
41996SOL     OW27826  10.059   0.704   2.945
41996SOL    HW127827  10.093   0.746   3.024
41996SOL    HW227828  10.031   0.617   2.974
41997SOL     OW27829  13.562   9.979   0.882
41997SOL    HW127830  13.615   9.902   0.859
41997SOL    HW227831  13.618  10.054   0.861
41998SOL     OW27832   4.084   0.089   9.841
41998SOL    HW127833   4.172   0.115   9.870
41998SOL    HW227834   4.033   0.084   9.922
41999SOL     OW27835   7.967   6.896  11.926
41999SOL    HW127836   7.943   6.805  11.942
41999SOL    HW227837   7.943   6.942  12.006
42000SOL     OW27838   3.431   7.718  11.544
42000SOL    HW127839   3.384   7.765  11.476
42000SOL    HW227840   3.419   7.625  11.521
42001SOL     OW27841   0.010   9.833   8.578
42001SOL    HW127842  14.827   9.759   8.583
42001SOL    HW227843   0.097   9.795   8.589
42002SOL     OW27844   6.008   3.609   5.158
42002SOL    HW127845   6.083   3.564   5.118
42002SOL    HW227846   5.932   3.565   5.120
42003SOL     OW27847   9.102   1.852  12.375
42003SOL    HW127848   9.095   1.920  12.443
42003SOL    HW227849   9.104   1.770  12.424
42004SOL     OW27850   9.681  12.237   2.103
42004SOL    HW127851   9.647  12.298   2.038
42004SOL    HW227852   9.669  12.151   2.063
42005SOL     OW27853  14.410   5.043   7.936
42005SOL    HW127854  14.429   4.949   7.934
42005SOL    HW227855  14.484   5.084   7.892
42006SOL     OW27856   4.105   1.839   0.172
42006SOL    HW127857   4.141   1.789   0.099
42006SOL    HW227858   4.032   1.889   0.133
42007SOL     OW27859   3.446  10.988  12.567
42007SOL    HW127860   3.390  10.917  12.598
42007SOL    HW227861   3.476  11.031  12.647
42008SOL     OW27862   1.425   8.969  12.901
42008SOL    HW127863   1.428   8.925  12.816
42008SOL    HW227864   1.387   8.904  12.960
42009SOL     OW27865   5.885  11.861   6.960
42009SOL    HW127866   5.910  11.774   6.928
42009SOL    HW227867   5.942  11.876   7.034
42010SOL     OW27868  14.242   5.504  14.226
42010SOL    HW127869  14.301   5.511  14.300
42010SOL    HW227870  14.210   5.593  14.211
42011SOL     OW27871   2.860   6.628   5.763
42011SOL    HW127872   2.771   6.659   5.748
42011SOL    HW227873   2.914   6.680   5.703
42012SOL     OW27874  12.890   9.339  12.894
42012SOL    HW127875  12.893   9.424  12.851
42012SOL    HW227876  12.817   9.346  12.956
42013SOL     OW27877   3.676   5.540   0.168
42013SOL    HW127878   3.615   5.557   0.239
42013SOL    HW227879   3.763   5.552   0.207
42014SOL     OW27880   4.985   0.450  10.586
42014SOL    HW127881   4.967   0.544  10.586
42014SOL    HW227882   5.080   0.443  10.584
42015SOL     OW27883  10.766   5.171   8.528
42015SOL    HW127884  10.827   5.244   8.512
42015SOL    HW227885  10.800   5.099   8.474
42016SOL     OW27886   6.236  11.991   6.791
42016SOL    HW127887   6.299  11.921   6.775
42016SOL    HW227888   6.291  12.068   6.807
42017SOL     OW27889   5.623   5.475   1.499
42017SOL    HW127890   5.651   5.567   1.495
42017SOL    HW227891   5.530   5.477   1.476
42018SOL     OW27892   2.949   8.436   6.341
42018SOL    HW127893   2.896   8.357   6.350
42018SOL    HW227894   3.039   8.405   6.338
42019SOL     OW27895  12.805   6.894   5.852
42019SOL    HW127896  12.891   6.894   5.894
42019SOL    HW227897  12.800   6.811   5.806
42020SOL     OW27898  13.930   9.088  10.717
42020SOL    HW127899  13.960   9.157  10.657
42020SOL    HW227900  13.923   9.131  10.802
42021SOL     OW27901   9.570   5.778  12.864
42021SOL    HW127902   9.637   5.830  12.820
42021SOL    HW227903   9.535   5.836  12.932
42022SOL     OW27904   2.480   4.274  10.920
42022SOL    HW127905   2.422   4.346  10.944
42022SOL    HW227906   2.536   4.261  10.996
42023SOL     OW27907   0.153  11.942   5.598
42023SOL    HW127908   0.209  11.944   5.520
42023SOL    HW227909   0.211  11.970   5.669
42024SOL     OW27910  12.221   4.268  10.542
42024SOL    HW127911  12.265   4.311  10.468
42024SOL    HW227912  12.263   4.306  10.619
42025SOL     OW27913  12.654  10.468   3.418
42025SOL    HW127914  12.611  10.450   3.335
42025SOL    HW227915  12.636  10.390   3.471
42026SOL     OW27916   9.215   4.491   0.018
42026SOL    HW127917   9.196   4.401   0.046
42026SOL    HW227918   9.132   4.522  14.857
42027SOL     OW27919   4.045   9.950  12.140
42027SOL    HW127920   3.967   9.975  12.089
42027SOL    HW227921   4.029   9.987  12.227
42028SOL     OW27922  13.266   9.268   9.826
42028SOL    HW127923  13.172   9.281   9.814
42028SOL    HW227924  13.274   9.178   9.858
42029SOL     OW27925   2.941   6.105  10.785
42029SOL    HW127926   2.874   6.039  10.765
42029SOL    HW227927   2.892   6.187  10.794
42030SOL     OW27928   0.330   9.002  13.503
42030SOL    HW127929   0.276   8.941  13.554
42030SOL    HW227930   0.371   9.058  13.569
42031SOL     OW27931  14.231  11.571  12.706
42031SOL    HW127932  14.145  11.528  12.711
42031SOL    HW227933  14.231  11.631  12.781
42032SOL     OW27934   5.174   8.910   6.133
42032SOL    HW127935   5.129   8.962   6.066
42032SOL    HW227936   5.163   8.819   6.104
42033SOL     OW27937   2.963   1.724   6.674
42033SOL    HW127938   2.939   1.811   6.641
42033SOL    HW227939   2.992   1.676   6.597
42034SOL     OW27940   0.115   1.417   9.410
42034SOL    HW127941   0.198   1.387   9.449
42034SOL    HW227942   0.098   1.501   9.452
42035SOL     OW27943   7.133   5.621   2.950
42035SOL    HW127944   7.192   5.592   3.019
42035SOL    HW227945   7.142   5.716   2.948
42036SOL     OW27946  10.950   7.285   4.312
42036SOL    HW127947  10.866   7.240   4.315
42036SOL    HW227948  10.929   7.371   4.273
42037SOL     OW27949   4.534   3.912   3.374
42037SOL    HW127950   4.626   3.932   3.355
42037SOL    HW227951   4.510   3.847   3.309
42038SOL     OW27952   2.133   7.002  12.483
42038SOL    HW127953   2.138   6.945  12.559
42038SOL    HW227954   2.222   7.036  12.473
42039SOL     OW27955   1.779  12.381  10.057
42039SOL    HW127956   1.684  12.375  10.044
42039SOL    HW227957   1.792  12.361  10.150
42040SOL     OW27958   3.305  14.478   5.985
42040SOL    HW127959   3.376  14.498   5.924
42040SOL    HW227960   3.343  14.412   6.044
42041SOL     OW27961  14.602   7.953   3.361
42041SOL    HW127962  14.649   7.959   3.444
42041SOL    HW227963  14.533   8.019   3.367
42042SOL     OW27964  13.316   6.150   0.984
42042SOL    HW127965  13.347   6.231   1.025
42042SOL    HW227966  13.222   6.165   0.970
42043SOL     OW27967  12.776   1.442  13.246
42043SOL    HW127968  12.722   1.483  13.178
42043SOL    HW227969  12.783   1.508  13.314
42044SOL     OW27970   6.958   3.474   7.967
42044SOL    HW127971   7.030   3.412   7.979
42044SOL    HW227972   6.932   3.464   7.876
42045SOL     OW27973  14.749   6.247   7.780
42045SOL    HW127974  14.684   6.296   7.729
42045SOL    HW227975  14.828   6.300   7.775
42046SOL     OW27976   7.701  11.999   0.129
42046SOL    HW127977   7.742  12.023   0.046
42046SOL    HW227978   7.770  12.011   0.194
42047SOL     OW27979   9.714   5.821   8.095
42047SOL    HW127980   9.655   5.894   8.114
42047SOL    HW227981   9.795   5.862   8.067
42048SOL     OW27982  11.116   2.871   1.371
42048SOL    HW127983  11.037   2.889   1.422
42048SOL    HW227984  11.122   2.776   1.368
42049SOL     OW27985   3.639   6.795  13.602
42049SOL    HW127986   3.599   6.716  13.636
42049SOL    HW227987   3.641   6.783  13.507
42050SOL     OW27988   7.762   1.130   4.967
42050SOL    HW127989   7.731   1.217   4.990
42050SOL    HW227990   7.838   1.117   5.023
42051SOL     OW27991   1.733   7.103   1.015
42051SOL    HW127992   1.741   7.008   1.014
42051SOL    HW227993   1.639   7.119   1.022
42052SOL     OW27994   3.946   3.603   8.215
42052SOL    HW127995   3.874   3.637   8.162
42052SOL    HW227996   3.984   3.533   8.162
42053SOL     OW27997  13.864   6.702  11.845
42053SOL    HW127998  13.891   6.793  11.834
42053SOL    HW227999  13.819   6.700  11.929
42054SOL     OW28000  13.157   8.865   7.907
42054SOL    HW128001  13.194   8.891   7.992
42054SOL    HW228002  13.126   8.947   7.869
42055SOL     OW28003  10.811   8.926  13.427
42055SOL    HW128004  10.862   8.933  13.508
42055SOL    HW228005  10.864   8.972  13.361
42056SOL     OW28006   9.603   1.402   2.950
42056SOL    HW128007   9.518   1.410   2.907
42056SOL    HW228008   9.585   1.419   3.043
42057SOL     OW28009   3.889  10.451   0.464
42057SOL    HW128010   3.906  10.359   0.482
42057SOL    HW228011   3.968  10.481   0.419
42058SOL     OW28012   6.456   3.037   9.464
42058SOL    HW128013   6.381   3.096   9.470
42058SOL    HW228014   6.435   2.966   9.524
42059SOL     OW28015  13.518  13.506   1.246
42059SOL    HW128016  13.601  13.480   1.205
42059SOL    HW228017  13.476  13.423   1.268
42060SOL     OW28018   4.003   4.300  13.419
42060SOL    HW128019   4.064   4.254  13.477
42060SOL    HW228020   3.973   4.375  13.469
42061SOL     OW28021  13.200   2.365   1.066
42061SOL    HW128022  13.203   2.461   1.058
42061SOL    HW228023  13.279   2.336   1.020
42062SOL     OW28024   5.865  11.120   8.912
42062SOL    HW128025   5.930  11.143   8.978
42062SOL    HW228026   5.830  11.036   8.940
42063SOL     OW28027   0.013   8.651   7.629
42063SOL    HW128028   0.052   8.583   7.684
42063SOL    HW228029  14.861   8.718   7.691
42064SOL     OW28030   1.190   5.682   9.977
42064SOL    HW128031   1.248   5.728   9.916
42064SOL    HW228032   1.249   5.632  10.033
42065SOL     OW28033   1.245   6.102  11.275
42065SOL    HW128034   1.170   6.069  11.225
42065SOL    HW228035   1.247   6.049  11.354
42066SOL     OW28036   2.188  11.585   7.985
42066SOL    HW128037   2.228  11.636   7.915
42066SOL    HW228038   2.249  11.514   8.002
42067SOL     OW28039   4.828   5.630   4.437
42067SOL    HW128040   4.857   5.539   4.439
42067SOL    HW228041   4.760   5.632   4.369
42068SOL     OW28042   5.608   7.619   8.608
42068SOL    HW128043   5.647   7.651   8.526
42068SOL    HW228044   5.546   7.551   8.580
42069SOL     OW28045  10.307  11.404  10.162
42069SOL    HW128046  10.308  11.309  10.171
42069SOL    HW228047  10.250  11.435  10.233
42070SOL     OW28048   0.883   3.748  12.139
42070SOL    HW128049   0.901   3.679  12.075
42070SOL    HW228050   0.788   3.748  12.149
42071SOL     OW28051   9.790  12.830   8.385
42071SOL    HW128052   9.769  12.917   8.351
42071SOL    HW228053   9.881  12.835   8.413
42072SOL     OW28054   8.465  12.817  11.404
42072SOL    HW128055   8.385  12.782  11.444
42072SOL    HW228056   8.503  12.742  11.358
42073SOL     OW28057   3.736   0.639  14.829
42073SOL    HW128058   3.774   0.613   0.037
42073SOL    HW228059   3.644   0.614  14.836
42074SOL     OW28060   2.117  10.951   0.895
42074SOL    HW128061   2.167  10.877   0.930
42074SOL    HW228062   2.051  10.910   0.839
42075SOL     OW28063   8.890  13.922   1.360
42075SOL    HW128064   8.899  14.010   1.399
42075SOL    HW228065   8.956  13.869   1.405
42076SOL     OW28066  12.081   3.140   0.756
42076SOL    HW128067  12.022   3.104   0.822
42076SOL    HW228068  12.114   3.064   0.708
42077SOL     OW28069   2.245   7.724  13.734
42077SOL    HW128070   2.225   7.671  13.811
42077SOL    HW228071   2.193   7.804  13.745
42078SOL     OW28072   4.961   7.814   1.155
42078SOL    HW128073   5.034   7.805   1.092
42078SOL    HW228074   4.989   7.762   1.231
42079SOL     OW28075   3.316   8.723  10.204
42079SOL    HW128076   3.314   8.633  10.235
42079SOL    HW228077   3.408   8.749  10.211
42080SOL     OW28078   7.649  10.397   4.107
42080SOL    HW128079   7.570  10.450   4.104
42080SOL    HW228080   7.720  10.459   4.124
42081SOL     OW28081   7.512   7.038   7.131
42081SOL    HW128082   7.453   7.034   7.207
42081SOL    HW228083   7.494   7.124   7.092
42082SOL     OW28084   6.979  12.596  11.933
42082SOL    HW128085   6.999  12.558  12.019
42082SOL    HW228086   6.941  12.523  11.883
42083SOL     OW28087   3.528   2.294   3.201
42083SOL    HW128088   3.523   2.259   3.289
42083SOL    HW228089   3.461   2.247   3.152
42084SOL     OW28090  11.305   4.777  12.351
42084SOL    HW128091  11.270   4.709  12.407
42084SOL    HW228092  11.319   4.734  12.266
42085SOL     OW28093   5.768  11.578   4.149
42085SOL    HW128094   5.739  11.604   4.236
42085SOL    HW228095   5.833  11.509   4.165
42086SOL     OW28096  12.032   4.995  14.368
42086SOL    HW128097  12.058   4.903  14.359
42086SOL    HW228098  12.006   5.004  14.460
42087SOL     OW28099  14.520   8.290   7.062
42087SOL    HW128100  14.489   8.209   7.023
42087SOL    HW228101  14.527   8.351   6.989
42088SOL     OW28102   6.760   2.123   6.366
42088SOL    HW128103   6.715   2.040   6.354
42088SOL    HW228104   6.701   2.175   6.420
42089SOL     OW28105  11.915   9.667  11.572
42089SOL    HW128106  11.908   9.756  11.539
42089SOL    HW228107  11.871   9.669  11.658
42090SOL     OW28108   7.400  14.234   9.375
42090SOL    HW128109   7.395  14.143   9.405
42090SOL    HW228110   7.327  14.243   9.314
42091SOL     OW28111   8.328   9.203   2.108
42091SOL    HW128112   8.259   9.153   2.065
42091SOL    HW228113   8.373   9.140   2.164
42092SOL     OW28114   8.402  10.210   7.237
42092SOL    HW128115   8.394  10.179   7.147
42092SOL    HW228116   8.325  10.266   7.251
42093SOL     OW28117   7.492   7.024   5.880
42093SOL    HW128118   7.560   6.964   5.910
42093SOL    HW228119   7.444   6.975   5.814
42094SOL     OW28120   8.113  11.587  11.082
42094SOL    HW128121   8.053  11.524  11.123
42094SOL    HW228122   8.182  11.532  11.045
42095SOL     OW28123  12.717  11.656   9.073
42095SOL    HW128124  12.751  11.724   9.131
42095SOL    HW228125  12.769  11.665   8.993
42096SOL     OW28126   6.424   7.978  14.874
42096SOL    HW128127   6.416   8.043   0.067
42096SOL    HW228128   6.368   7.906   0.025
42097SOL     OW28129  11.089   8.932   3.173
42097SOL    HW128130  11.160   8.995   3.184
42097SOL    HW228131  11.030   8.948   3.246
42098SOL     OW28132  11.497   4.880   4.126
42098SOL    HW128133  11.576   4.884   4.073
42098SOL    HW228134  11.471   4.971   4.138
42099SOL     OW28135   6.619   4.637  12.808
42099SOL    HW128136   6.600   4.725  12.777
42099SOL    HW228137   6.553   4.581  12.766
42100SOL     OW28138  12.739   9.650   6.119
42100SOL    HW128139  12.723   9.677   6.028
42100SOL    HW228140  12.830   9.676   6.136
42101SOL     OW28141   1.828   0.836   6.068
42101SOL    HW128142   1.884   0.833   5.990
42101SOL    HW228143   1.885   0.806   6.139
42102SOL     OW28144  10.664   3.596   5.557
42102SOL    HW128145  10.598   3.665   5.571
42102SOL    HW228146  10.618   3.515   5.579
42103SOL     OW28147   2.920  10.481  13.605
42103SOL    HW128148   2.998  10.442  13.643
42103SOL    HW228149   2.924  10.458  13.512
42104SOL     OW28150  10.398   4.310   7.455
42104SOL    HW128151  10.338   4.381   7.478
42104SOL    HW228152  10.445   4.342   7.378
42105SOL     OW28153  12.273   7.363   1.314
42105SOL    HW128154  12.284   7.271   1.337
42105SOL    HW228155  12.181   7.371   1.291
42106SOL     OW28156   2.316  11.698   6.602
42106SOL    HW128157   2.373  11.692   6.525
42106SOL    HW228158   2.356  11.767   6.656
42107SOL     OW28159  14.603  11.282   4.552
42107SOL    HW128160  14.588  11.338   4.627
42107SOL    HW228161  14.527  11.297   4.495
42108SOL     OW28162   2.836   3.503   4.347
42108SOL    HW128163   2.877   3.586   4.321
42108SOL    HW228164   2.890   3.436   4.306
42109SOL     OW28165  14.158  10.269  14.027
42109SOL    HW128166  14.179  10.281  13.934
42109SOL    HW228167  14.243  10.269  14.071
42110SOL     OW28168   5.428   6.971  11.451
42110SOL    HW128169   5.477   7.004  11.376
42110SOL    HW228170   5.464   6.884  11.467
42111SOL     OW28171   0.226  13.243   5.074
42111SOL    HW128172   0.181  13.293   5.142
42111SOL    HW228173   0.233  13.155   5.110
42112SOL     OW28174   4.443   8.396   4.814
42112SOL    HW128175   4.476   8.309   4.838
42112SOL    HW228176   4.518   8.438   4.772
42113SOL     OW28177  10.980   3.813  11.957
42113SOL    HW128178  10.946   3.879  12.017
42113SOL    HW228179  10.982   3.732  12.009
42114SOL     OW28180  11.617   3.060  10.370
42114SOL    HW128181  11.558   3.135  10.369
42114SOL    HW228182  11.693   3.089  10.319
42115SOL     OW28183   6.833  11.072   5.843
42115SOL    HW128184   6.860  11.102   5.756
42115SOL    HW228185   6.755  11.019   5.826
42116SOL     OW28186  11.225   7.839   7.064
42116SOL    HW128187  11.295   7.904   7.064
42116SOL    HW228188  11.257   7.769   7.121
42117SOL     OW28189   0.971   7.824  12.796
42117SOL    HW128190   1.047   7.831  12.853
42117SOL    HW228191   0.922   7.749  12.831
42118SOL     OW28192   2.614   9.423   3.924
42118SOL    HW128193   2.598   9.423   4.018
42118SOL    HW228194   2.581   9.338   3.894
42119SOL     OW28195   7.027  13.240   9.459
42119SOL    HW128196   7.038  13.153   9.421
42119SOL    HW228197   7.090  13.242   9.531
42120SOL     OW28198   3.592   8.365   7.291
42120SOL    HW128199   3.615   8.298   7.356
42120SOL    HW228200   3.512   8.331   7.251
42121SOL     OW28201   6.861  14.347   0.947
42121SOL    HW128202   6.784  14.310   0.990
42121SOL    HW228203   6.932  14.287   0.970
42122SOL     OW28204  12.076   6.082   3.206
42122SOL    HW128205  12.012   6.058   3.273
42122SOL    HW228206  12.023   6.117   3.134
42123SOL     OW28207  13.852   4.630   4.674
42123SOL    HW128208  13.765   4.637   4.714
42123SOL    HW228209  13.905   4.695   4.721
42124SOL     OW28210   5.280   8.148  12.501
42124SOL    HW128211   5.312   8.107  12.421
42124SOL    HW228212   5.343   8.218  12.518
42125SOL     OW28213   3.773   3.169   8.461
42125SOL    HW128214   3.826   3.125   8.529
42125SOL    HW228215   3.685   3.172   8.498
42126SOL     OW28216  14.391   4.759   5.735
42126SOL    HW128217  14.298   4.772   5.756
42126SOL    HW228218  14.415   4.835   5.683
42127SOL     OW28219   5.921   4.534   9.698
42127SOL    HW128220   5.856   4.466   9.714
42127SOL    HW228221   6.004   4.495   9.726
42128SOL     OW28222   7.988   9.464   4.003
42128SOL    HW128223   7.940   9.420   4.074
42128SOL    HW228224   7.996   9.554   4.033
42129SOL     OW28225   6.591   3.220   5.965
42129SOL    HW128226   6.561   3.229   6.055
42129SOL    HW228227   6.681   3.252   5.966
42130SOL     OW28228   3.325   4.528  10.400
42130SOL    HW128229   3.391   4.492  10.460
42130SOL    HW228230   3.366   4.523  10.314
42131SOL     OW28231  10.790  14.606   0.310
42131SOL    HW128232  10.854  14.671   0.282
42131SOL    HW228233  10.839  14.545   0.365
42132SOL     OW28234   7.974   0.834  11.459
42132SOL    HW128235   8.062   0.801  11.480
42132SOL    HW228236   7.916   0.788  11.520
42133SOL     OW28237   3.514   1.760   0.826
42133SOL    HW128238   3.491   1.799   0.910
42133SOL    HW228239   3.447   1.792   0.766
42134SOL     OW28240   9.421   8.561  14.537
42134SOL    HW128241   9.456   8.558  14.626
42134SOL    HW228242   9.341   8.507  14.541
42135SOL     OW28243   5.490   0.531   8.927
42135SOL    HW128244   5.415   0.486   8.966
42135SOL    HW228245   5.506   0.485   8.844
42136SOL     OW28246   6.144   1.743   1.419
42136SOL    HW128247   6.104   1.815   1.468
42136SOL    HW228248   6.131   1.666   1.474
42137SOL     OW28249  13.220  11.023   5.407
42137SOL    HW128250  13.271  10.996   5.331
42137SOL    HW228251  13.275  11.000   5.482
42138SOL     OW28252   9.561  12.756   1.881
42138SOL    HW128253   9.641  12.703   1.890
42138SOL    HW228254   9.555  12.804   1.963
42139SOL     OW28255   1.848   1.075   5.719
42139SOL    HW128256   1.895   1.061   5.638
42139SOL    HW228257   1.856   1.169   5.735
42140SOL     OW28258  12.582   6.741   6.377
42140SOL    HW128259  12.516   6.737   6.308
42140SOL    HW228260  12.580   6.832   6.408
42141SOL     OW28261   4.859   1.262  10.861
42141SOL    HW128262   4.845   1.293  10.951
42141SOL    HW228263   4.783   1.207  10.843
42142SOL     OW28264  12.669  13.783   9.374
42142SOL    HW128265  12.677  13.869   9.415
42142SOL    HW228266  12.752  13.770   9.329
42143SOL     OW28267  12.403  10.960  13.491
42143SOL    HW128268  12.418  10.920  13.405
42143SOL    HW228269  12.446  11.045  13.485
42144SOL     OW28270   6.779  12.329   0.826
42144SOL    HW128271   6.694  12.372   0.828
42144SOL    HW228272   6.835  12.388   0.775
42145SOL     OW28273   2.208   1.211  12.110
42145SOL    HW128274   2.116   1.233  12.126
42145SOL    HW228275   2.256   1.259  12.177
42146SOL     OW28276   0.162   6.943   0.829
42146SOL    HW128277   0.136   6.853   0.808
42146SOL    HW228278   0.087   6.996   0.804
42147SOL     OW28279  12.628  12.945  11.799
42147SOL    HW128280  12.692  13.015  11.786
42147SOL    HW228281  12.642  12.915  11.888
42148SOL     OW28282   9.985  10.732   2.039
42148SOL    HW128283   9.926  10.783   2.095
42148SOL    HW228284  10.045  10.690   2.100
42149SOL     OW28285   9.227   4.803   7.405
42149SOL    HW128286   9.254   4.877   7.350
42149SOL    HW228287   9.215   4.841   7.492
42150SOL     OW28288  10.936   0.516   8.097
42150SOL    HW128289  10.875   0.585   8.072
42150SOL    HW228290  10.893   0.435   8.069
42151SOL     OW28291   4.125   2.271  12.030
42151SOL    HW128292   4.030   2.265  12.019
42151SOL    HW228293   4.145   2.364  12.022
42152SOL     OW28294   4.996   3.403   4.580
42152SOL    HW128295   5.062   3.449   4.632
42152SOL    HW228296   5.023   3.311   4.583
42153SOL     OW28297  10.119   3.004  12.122
42153SOL    HW128298  10.040   2.952  12.137
42153SOL    HW228299  10.102   3.086  12.167
42154SOL     OW28300   7.013   6.652  11.808
42154SOL    HW128301   7.006   6.737  11.765
42154SOL    HW228302   7.093   6.658  11.860
42155SOL     OW28303  10.501   4.589   2.166
42155SOL    HW128304  10.502   4.604   2.261
42155SOL    HW228305  10.410   4.568   2.146
42156SOL     OW28306   2.183   5.528   4.914
42156SOL    HW128307   2.222   5.544   5.000
42156SOL    HW228308   2.231   5.453   4.879
42157SOL     OW28309  14.524   2.111   0.046
42157SOL    HW128310  14.517   2.029   0.094
42157SOL    HW228311  14.484   2.176   0.103
42158SOL     OW28312  11.115   5.707   4.556
42158SOL    HW128313  11.080   5.640   4.616
42158SOL    HW228314  11.057   5.782   4.567
42159SOL     OW28315   2.054   7.572   0.983
42159SOL    HW128316   2.087   7.657   1.012
42159SOL    HW228317   2.065   7.574   0.888
42160SOL     OW28318  14.009   1.274  14.740
42160SOL    HW128319  14.065   1.327  14.796
42160SOL    HW228320  13.960   1.338  14.688
42161SOL     OW28321   2.353   0.134   5.877
42161SOL    HW128322   2.260   0.114   5.887
42161SOL    HW228323   2.390   0.121   5.964
42162SOL     OW28324   3.877   6.174   8.671
42162SOL    HW128325   3.824   6.212   8.601
42162SOL    HW228326   3.958   6.146   8.627
42163SOL     OW28327   5.747   6.992  14.144
42163SOL    HW128328   5.838   6.994  14.117
42163SOL    HW228329   5.744   6.924  14.212
42164SOL     OW28330   7.223   7.653  13.240
42164SOL    HW128331   7.258   7.603  13.314
42164SOL    HW228332   7.256   7.607  13.162
42165SOL     OW28333  12.726  14.484   3.982
42165SOL    HW128334  12.714  14.498   4.076
42165SOL    HW228335  12.643  14.448   3.953
42166SOL     OW28336   7.237   2.699   2.803
42166SOL    HW128337   7.287   2.774   2.773
42166SOL    HW228338   7.155   2.702   2.754
42167SOL     OW28339   7.268   3.531  11.531
42167SOL    HW128340   7.209   3.456  11.524
42167SOL    HW228341   7.344   3.497  11.578
42168SOL     OW28342   3.015  13.711   1.895
42168SOL    HW128343   3.018  13.783   1.956
42168SOL    HW228344   3.107  13.692   1.875
42169SOL     OW28345   1.614   4.163   5.415
42169SOL    HW128346   1.612   4.081   5.465
42169SOL    HW228347   1.692   4.157   5.360
42170SOL     OW28348   2.847  10.332   7.541
42170SOL    HW128349   2.784  10.298   7.606
42170SOL    HW228350   2.860  10.423   7.566
42171SOL     OW28351   5.306  14.780  14.188
42171SOL    HW128352   5.324  14.854  14.130
42171SOL    HW228353   5.309  14.817  14.276
42172SOL     OW28354   5.958  13.750   9.846
42172SOL    HW128355   5.874  13.791   9.868
42172SOL    HW228356   6.021  13.791   9.906
42173SOL     OW28357   5.913  14.330   5.595
42173SOL    HW128358   5.913  14.237   5.618
42173SOL    HW228359   5.933  14.375   5.677
42174SOL     OW28360   1.927  13.948   6.733
42174SOL    HW128361   1.871  14.020   6.764
42174SOL    HW228362   1.952  13.972   6.644
42175SOL     OW28363  14.408   1.674  12.736
42175SOL    HW128364  14.393   1.748  12.794
42175SOL    HW228365  14.390   1.597  12.790
42176SOL     OW28366   0.963   4.350   5.929
42176SOL    HW128367   0.986   4.296   5.853
42176SOL    HW228368   1.012   4.431   5.916
42177SOL     OW28369   8.819   3.872   4.855
42177SOL    HW128370   8.903   3.831   4.874
42177SOL    HW228371   8.783   3.894   4.941
42178SOL     OW28372  14.637  13.651   1.811
42178SOL    HW128373  14.710  13.683   1.865
42178SOL    HW228374  14.559  13.667   1.865
42179SOL     OW28375   1.029  14.275  13.874
42179SOL    HW128376   1.042  14.180  13.871
42179SOL    HW228377   0.941  14.288  13.841
42180SOL     OW28378  13.980  11.257   6.676
42180SOL    HW128379  13.884  11.253   6.682
42180SOL    HW228380  14.009  11.172   6.708
42181SOL     OW28381  10.798  12.474   5.169
42181SOL    HW128382  10.725  12.460   5.109
42181SOL    HW228383  10.793  12.567   5.192
42182SOL     OW28384   5.133  10.086   9.806
42182SOL    HW128385   5.153  10.028   9.732
42182SOL    HW228386   5.110  10.027   9.877
42183SOL     OW28387  14.624  13.754   6.510
42183SOL    HW128388  14.625  13.683   6.447
42183SOL    HW228389  14.566  13.724   6.580
42184SOL     OW28390   6.447   4.251   5.820
42184SOL    HW128391   6.473   4.176   5.873
42184SOL    HW228392   6.476   4.327   5.872
42185SOL     OW28393   0.390   9.866   6.694
42185SOL    HW128394   0.409   9.807   6.621
42185SOL    HW228395   0.455   9.846   6.760
42186SOL     OW28396   2.401  13.311   7.150
42186SOL    HW128397   2.351  13.318   7.068
42186SOL    HW228398   2.348  13.254   7.206
42187SOL     OW28399   6.967   2.653  11.416
42187SOL    HW128400   7.055   2.681  11.390
42187SOL    HW228401   6.921   2.735  11.435
42188SOL     OW28402   3.105   7.199   1.253
42188SOL    HW128403   3.179   7.231   1.304
42188SOL    HW228404   3.041   7.170   1.318
42189SOL     OW28405  10.797  14.194  12.968
42189SOL    HW128406  10.833  14.271  12.925
42189SOL    HW228407  10.747  14.229  13.042
42190SOL     OW28408   3.175  13.206   5.975
42190SOL    HW128409   3.198  13.176   6.063
42190SOL    HW228410   3.113  13.277   5.989
42191SOL     OW28411   0.509   9.863  14.090
42191SOL    HW128412   0.579   9.927  14.095
42191SOL    HW228413   0.447   9.888  14.158
42192SOL     OW28414   4.593   4.622  10.667
42192SOL    HW128415   4.653   4.555  10.700
42192SOL    HW228416   4.524   4.627  10.732
42193SOL     OW28417   6.873  11.155  14.102
42193SOL    HW128418   6.967  11.150  14.086
42193SOL    HW228419   6.835  11.173  14.016
42194SOL     OW28420   9.811   9.282  12.005
42194SOL    HW128421   9.775   9.354  11.952
42194SOL    HW228422   9.857   9.326  12.077
42195SOL     OW28423  12.284   3.493   8.967
42195SOL    HW128424  12.211   3.440   8.999
42195SOL    HW228425  12.265   3.505   8.874
42196SOL     OW28426   7.187  10.163   0.904
42196SOL    HW128427   7.268  10.113   0.910
42196SOL    HW228428   7.178  10.183   0.811
42197SOL     OW28429   8.311   5.969  14.676
42197SOL    HW128430   8.265   5.891  14.647
42197SOL    HW228431   8.304   5.967  14.772
42198SOL     OW28432  11.546  13.422   2.455
42198SOL    HW128433  11.617  13.430   2.519
42198SOL    HW228434  11.579  13.359   2.390
42199SOL     OW28435   3.230   0.412  12.692
42199SOL    HW128436   3.276   0.412  12.776
42199SOL    HW228437   3.301   0.414  12.627
42200SOL     OW28438   6.651   7.828  14.671
42200SOL    HW128439   6.667   7.841  14.764
42200SOL    HW228440   6.574   7.772  14.667
42201SOL     OW28441  13.161   3.293  14.175
42201SOL    HW128442  13.176   3.245  14.094
42201SOL    HW228443  13.153   3.385  14.147
42202SOL     OW28444   4.626  10.591  11.050
42202SOL    HW128445   4.636  10.610  10.957
42202SOL    HW228446   4.613  10.496  11.055
42203SOL     OW28447  10.469   6.327  11.582
42203SOL    HW128448  10.425   6.288  11.506
42203SOL    HW228449  10.513   6.404  11.547
42204SOL     OW28450   6.416  12.347   8.265
42204SOL    HW128451   6.354  12.309   8.203
42204SOL    HW228452   6.443  12.273   8.319
42205SOL     OW28453  11.166   3.381   8.007
42205SOL    HW128454  11.197   3.471   8.014
42205SOL    HW228455  11.093   3.376   8.068
42206SOL     OW28456   2.100  11.024   5.387
42206SOL    HW128457   2.102  11.119   5.381
42206SOL    HW228458   2.083  10.994   5.298
42207SOL     OW28459   2.211  14.126   0.794
42207SOL    HW128460   2.171  14.149   0.878
42207SOL    HW228461   2.298  14.092   0.817
42208SOL     OW28462  13.010   4.295   4.402
42208SOL    HW128463  12.959   4.376   4.402
42208SOL    HW228464  13.067   4.303   4.325
42209SOL     OW28465   6.853   1.008   0.225
42209SOL    HW128466   6.849   1.076   0.291
42209SOL    HW228467   6.924   1.035   0.166
42210SOL     OW28468   6.762  10.245   2.858
42210SOL    HW128469   6.725  10.199   2.783
42210SOL    HW228470   6.768  10.336   2.830
42211SOL     OW28471   6.188   8.988  12.844
42211SOL    HW128472   6.103   8.944  12.837
42211SOL    HW228473   6.201   9.029  12.759
42212SOL     OW28474   7.924   4.396   5.312
42212SOL    HW128475   7.940   4.336   5.384
42212SOL    HW228476   7.835   4.429   5.326
42213SOL     OW28477   3.410   5.957  13.830
42213SOL    HW128478   3.331   6.012  13.822
42213SOL    HW228479   3.379   5.868  13.813
42214SOL     OW28480   7.148   1.422  12.159
42214SOL    HW128481   7.109   1.368  12.090
42214SOL    HW228482   7.088   1.414  12.233
42215SOL     OW28483   0.428   7.446   2.736
42215SOL    HW128484   0.388   7.533   2.744
42215SOL    HW228485   0.460   7.443   2.645
42216SOL     OW28486  14.427   9.649  11.608
42216SOL    HW128487  14.408   9.621  11.697
42216SOL    HW228488  14.343   9.639  11.562
42217SOL     OW28489  12.125  10.884   7.827
42217SOL    HW128490  12.051  10.927   7.869
42217SOL    HW228491  12.085  10.822   7.766
42218SOL     OW28492   9.829   7.506   6.023
42218SOL    HW128493   9.857   7.461   5.943
42218SOL    HW228494   9.734   7.501   6.021
42219SOL     OW28495   7.722  13.902   5.391
42219SOL    HW128496   7.670  13.973   5.429
42219SOL    HW228497   7.690  13.823   5.434
42220SOL     OW28498   2.693   5.201   1.257
42220SOL    HW128499   2.642   5.164   1.185
42220SOL    HW228500   2.779   5.219   1.219
42221SOL     OW28501   5.459  11.897   9.736
42221SOL    HW128502   5.484  11.856   9.653
42221SOL    HW228503   5.370  11.865   9.752
42222SOL     OW28504   2.047  14.060   7.367
42222SOL    HW128505   2.029  14.085   7.277
42222SOL    HW228506   2.055  13.964   7.364
42223SOL     OW28507  13.202   7.189  13.352
42223SOL    HW128508  13.132   7.225  13.297
42223SOL    HW228509  13.158   7.127  13.410
42224SOL     OW28510  14.215   2.091   2.643
42224SOL    HW128511  14.162   2.084   2.563
42224SOL    HW228512  14.172   2.160   2.694
42225SOL     OW28513   7.044  13.776   8.292
42225SOL    HW128514   7.124  13.729   8.267
42225SOL    HW228515   6.996  13.713   8.346
42226SOL     OW28516  11.181  14.554   9.694
42226SOL    HW128517  11.249  14.490   9.675
42226SOL    HW228518  11.160  14.541   9.786
42227SOL     OW28519  10.037  14.212   9.198
42227SOL    HW128520   9.943  14.211   9.179
42227SOL    HW228521  10.045  14.268   9.275
42228SOL     OW28522  14.844  14.633  12.318
42228SOL    HW128523  14.818  14.541  12.309
42228SOL    HW228524   0.061  14.634  12.293
42229SOL     OW28525   0.493   6.433  10.079
42229SOL    HW128526   0.412   6.382  10.088
42229SOL    HW228527   0.536   6.396  10.002
42230SOL     OW28528  12.972  14.759   0.324
42230SOL    HW128529  13.022  14.768   0.242
42230SOL    HW228530  12.956  14.848   0.353
42231SOL     OW28531   1.544   4.495   0.405
42231SOL    HW128532   1.562   4.405   0.379
42231SOL    HW228533   1.628   4.527   0.439
42232SOL     OW28534  14.029  11.826   8.870
42232SOL    HW128535  14.096  11.810   8.936
42232SOL    HW228536  14.021  11.744   8.822
42233SOL     OW28537  12.032   5.257   7.428
42233SOL    HW128538  11.974   5.313   7.478
42233SOL    HW228539  11.988   5.246   7.343
42234SOL     OW28540   2.728   7.152  12.545
42234SOL    HW128541   2.792   7.101  12.595
42234SOL    HW228542   2.761   7.153  12.456
42235SOL     OW28543   7.010   7.813   5.908
42235SOL    HW128544   6.932   7.774   5.869
42235SOL    HW228545   7.004   7.906   5.886
42236SOL     OW28546   5.744  13.517   6.192
42236SOL    HW128547   5.796  13.450   6.148
42236SOL    HW228548   5.800  13.547   6.264
42237SOL     OW28549  13.873   7.725   7.424
42237SOL    HW128550  13.949   7.768   7.463
42237SOL    HW228551  13.904   7.638   7.400
42238SOL     OW28552   8.460   4.611   0.355
42238SOL    HW128553   8.368   4.594   0.337
42238SOL    HW228554   8.491   4.656   0.276
42239SOL     OW28555  11.985   5.185   0.145
42239SOL    HW128556  12.064   5.143   0.111
42239SOL    HW228557  11.914   5.127   0.120
42240SOL     OW28558  10.427   9.197   8.012
42240SOL    HW128559  10.494   9.216   7.946
42240SOL    HW228560  10.424   9.276   8.066
42241SOL     OW28561   4.555   3.898  11.291
42241SOL    HW128562   4.539   3.840  11.365
42241SOL    HW228563   4.469   3.936  11.271
42242SOL     OW28564   9.383   1.663   3.866
42242SOL    HW128565   9.335   1.741   3.839
42242SOL    HW228566   9.382   1.607   3.788
42243SOL     OW28567   9.096   3.045   1.036
42243SOL    HW128568   9.164   3.039   1.104
42243SOL    HW228569   9.038   2.971   1.054
42244SOL     OW28570   8.997   1.854  10.292
42244SOL    HW128571   8.972   1.836  10.201
42244SOL    HW228572   8.914   1.868  10.337
42245SOL     OW28573   4.038  11.777   6.488
42245SOL    HW128574   3.961  11.826   6.458
42245SOL    HW228575   4.082  11.752   6.407
42246SOL     OW28576  13.762   5.900   5.381
42246SOL    HW128577  13.691   5.843   5.351
42246SOL    HW228578  13.733   5.988   5.358
42247SOL     OW28579  14.618   2.098   5.525
42247SOL    HW128580  14.536   2.137   5.557
42247SOL    HW228581  14.618   2.010   5.561
42248SOL     OW28582  12.389  10.355   1.843
42248SOL    HW128583  12.411  10.448   1.847
42248SOL    HW228584  12.466  10.313   1.805
42249SOL     OW28585   0.657   7.388   9.084
42249SOL    HW128586   0.642   7.379   8.990
42249SOL    HW228587   0.589   7.332   9.123
42250SOL     OW28588  13.363   4.403   5.004
42250SOL    HW128589  13.346   4.363   4.918
42250SOL    HW228590  13.433   4.350   5.041
42251SOL     OW28591   6.204   2.266   6.782
42251SOL    HW128592   6.154   2.347   6.785
42251SOL    HW228593   6.212   2.247   6.688
42252SOL     OW28594   1.414   4.395   1.805
42252SOL    HW128595   1.378   4.443   1.730
42252SOL    HW228596   1.384   4.305   1.792
42253SOL     OW28597  13.333   6.898   8.232
42253SOL    HW128598  13.254   6.878   8.283
42253SOL    HW228599  13.382   6.816   8.231
42254SOL     OW28600   5.842   2.242   5.313
42254SOL    HW128601   5.790   2.214   5.389
42254SOL    HW228602   5.777   2.280   5.254
42255SOL     OW28603   2.748   6.195   7.834
42255SOL    HW128604   2.741   6.198   7.929
42255SOL    HW228605   2.808   6.121   7.817
42256SOL     OW28606   2.540   2.113  13.410
42256SOL    HW128607   2.567   2.043  13.470
42256SOL    HW228608   2.588   2.096  13.329
42257SOL     OW28609   1.074   9.458   3.089
42257SOL    HW128610   1.130   9.461   3.167
42257SOL    HW228611   1.057   9.550   3.070
42258SOL     OW28612  11.269  14.030  12.573
42258SOL    HW128613  11.286  14.068  12.659
42258SOL    HW228614  11.215  13.953  12.591
42259SOL     OW28615  13.165   3.734  12.170
42259SOL    HW128616  13.173   3.638  12.169
42259SOL    HW228617  13.153   3.755  12.263
42260SOL     OW28618   7.808   0.851   3.329
42260SOL    HW128619   7.719   0.872   3.299
42260SOL    HW228620   7.807   0.756   3.341
42261SOL     OW28621   0.068  11.686  13.434
42261SOL    HW128622   0.016  11.767  13.432
42261SOL    HW228623   0.107  11.681  13.347
42262SOL     OW28624   4.810  13.311  14.748
42262SOL    HW128625   4.734  13.273  14.706
42262SOL    HW228626   4.858  13.354  14.678
42263SOL     OW28627   5.275   8.165   7.741
42263SOL    HW128628   5.224   8.175   7.822
42263SOL    HW228629   5.362   8.140   7.771
42264SOL     OW28630   4.349   5.341  13.486
42264SOL    HW128631   4.385   5.333  13.575
42264SOL    HW228632   4.426   5.339  13.429
42265SOL     OW28633   9.400   2.798   4.515
42265SOL    HW128634   9.459   2.860   4.558
42265SOL    HW228635   9.346   2.853   4.457
42266SOL     OW28636  11.905   0.930  11.099
42266SOL    HW128637  11.840   0.988  11.061
42266SOL    HW228638  11.987   0.979  11.095
42267SOL     OW28639   7.698   5.079  13.746
42267SOL    HW128640   7.771   5.093  13.806
42267SOL    HW228641   7.687   4.984  13.743
42268SOL     OW28642   5.134   9.402  14.812
42268SOL    HW128643   5.219   9.361  14.796
42268SOL    HW228644   5.125   9.467  14.742
42269SOL     OW28645  11.975   8.698  14.870
42269SOL    HW128646  11.997   8.673  14.781
42269SOL    HW228647  11.942   8.787  14.863
42270SOL     OW28648   6.114   4.240  13.063
42270SOL    HW128649   6.038   4.262  13.010
42270SOL    HW228650   6.188   4.247  13.003
42271SOL     OW28651   7.107   8.210  12.849
42271SOL    HW128652   7.171   8.139  12.855
42271SOL    HW228653   7.050   8.184  12.776
42272SOL     OW28654   3.721   2.531   0.977
42272SOL    HW128655   3.718   2.467   1.048
42272SOL    HW228656   3.700   2.480   0.899
42273SOL     OW28657  14.019   6.280   3.598
42273SOL    HW128658  14.009   6.354   3.658
42273SOL    HW228659  14.053   6.209   3.652
42274SOL     OW28660   7.023  11.802  12.319
42274SOL    HW128661   7.070  11.855  12.383
42274SOL    HW228662   6.932  11.802  12.349
42275SOL     OW28663  14.118  14.525   6.232
42275SOL    HW128664  14.144  14.467   6.303
42275SOL    HW228665  14.034  14.562   6.260
42276SOL     OW28666  11.385   2.858   6.911
42276SOL    HW128667  11.451   2.927   6.920
42276SOL    HW228668  11.317   2.882   6.974
42277SOL     OW28669  13.281  10.387  10.824
42277SOL    HW128670  13.359  10.440  10.837
42277SOL    HW228671  13.209  10.451  10.826
42278SOL     OW28672   8.214  10.766   7.057
42278SOL    HW128673   8.187  10.821   6.984
42278SOL    HW228674   8.301  10.733   7.032
42279SOL     OW28675  10.037   1.869   5.235
42279SOL    HW128676   9.945   1.848   5.217
42279SOL    HW228677  10.033   1.943   5.296
42280SOL     OW28678  13.118   9.712   1.861
42280SOL    HW128679  13.179   9.709   1.787
42280SOL    HW228680  13.050   9.774   1.833
42281SOL     OW28681   8.439   3.004   0.125
42281SOL    HW128682   8.533   2.992   0.131
42281SOL    HW228683   8.420   2.998   0.032
42282SOL     OW28684   9.678  12.638   6.399
42282SOL    HW128685   9.742  12.707   6.381
42282SOL    HW228686   9.602  12.684   6.433
42283SOL     OW28687  13.884   9.567   6.764
42283SOL    HW128688  13.858   9.643   6.711
42283SOL    HW228689  13.953   9.525   6.713
42284SOL     OW28690   5.034   5.976   7.580
42284SOL    HW128691   5.015   6.057   7.626
42284SOL    HW228692   4.993   5.987   7.494
42285SOL     OW28693   8.938   5.629   9.920
42285SOL    HW128694   8.899   5.687   9.855
42285SOL    HW228695   8.950   5.546   9.874
42286SOL     OW28696   4.981  11.782   9.106
42286SOL    HW128697   5.059  11.727   9.098
42286SOL    HW228698   4.922  11.750   9.037
42287SOL     OW28699   5.262   3.969   6.203
42287SOL    HW128700   5.265   4.059   6.235
42287SOL    HW228701   5.209   3.973   6.124
42288SOL     OW28702   9.646   3.806  10.643
42288SOL    HW128703   9.627   3.755  10.565
42288SOL    HW228704   9.709   3.753  10.692
42289SOL     OW28705   8.492   9.835   1.824
42289SOL    HW128706   8.573   9.784   1.821
42289SOL    HW228707   8.424   9.773   1.800
42290SOL     OW28708   3.286  10.297   8.544
42290SOL    HW128709   3.333  10.216   8.563
42290SOL    HW228710   3.200  10.269   8.513
42291SOL     OW28711  14.530   9.082   5.143
42291SOL    HW128712  14.523   9.088   5.238
42291SOL    HW228713  14.605   9.137   5.121
42292SOL     OW28714   3.568   0.226  11.580
42292SOL    HW128715   3.596   0.156  11.639
42292SOL    HW228716   3.638   0.291  11.584
42293SOL     OW28717   2.744   3.763  13.714
42293SOL    HW128718   2.694   3.744  13.635
42293SOL    HW228719   2.745   3.681  13.763
42294SOL     OW28720  11.399   8.996   0.795
42294SOL    HW128721  11.333   8.960   0.737
42294SOL    HW228722  11.371   8.969   0.883
42295SOL     OW28723   9.744   2.391  10.773
42295SOL    HW128724   9.789   2.347  10.845
42295SOL    HW228725   9.708   2.321  10.719
42296SOL     OW28726  13.072   9.203  11.949
42296SOL    HW128727  13.045   9.206  11.857
42296SOL    HW228728  13.150   9.148  11.950
42297SOL     OW28729   3.375   1.828   6.425
42297SOL    HW128730   3.350   1.866   6.509
42297SOL    HW228731   3.294   1.831   6.373
42298SOL     OW28732   8.402  11.137  11.655
42298SOL    HW128733   8.358  11.069  11.604
42298SOL    HW228734   8.364  11.130  11.743
42299SOL     OW28735  14.807   5.512   1.073
42299SOL    HW128736   0.006   5.454   1.064
42299SOL    HW228737  14.796   5.523   1.167
42300SOL     OW28738  12.793   2.764   4.193
42300SOL    HW128739  12.722   2.808   4.238
42300SOL    HW228740  12.790   2.798   4.104
42301SOL     OW28741  10.749  11.690  13.927
42301SOL    HW128742  10.762  11.710  13.835
42301SOL    HW228743  10.671  11.740  13.952
42302SOL     OW28744   0.943  13.080   5.580
42302SOL    HW128745   1.005  13.011   5.603
42302SOL    HW228746   0.882  13.037   5.519
42303SOL     OW28747  14.285   8.328  14.313
42303SOL    HW128748  14.229   8.252  14.295
42303SOL    HW228749  14.287   8.376  14.230
42304SOL     OW28750  12.123   4.841   2.357
42304SOL    HW128751  12.048   4.900   2.352
42304SOL    HW228752  12.098   4.775   2.422
42305SOL     OW28753   5.206   5.078   9.616
42305SOL    HW128754   5.199   5.165   9.655
42305SOL    HW228755   5.140   5.078   9.547
42306SOL     OW28756  11.918   2.943   5.449
42306SOL    HW128757  11.959   2.892   5.379
42306SOL    HW228758  11.877   2.878   5.506
42307SOL     OW28759   4.436   6.540   0.296
42307SOL    HW128760   4.409   6.476   0.230
42307SOL    HW228761   4.405   6.503   0.379
42308SOL     OW28762  10.627   8.898   2.342
42308SOL    HW128763  10.611   8.810   2.378
42308SOL    HW228764  10.668   8.946   2.413
42309SOL     OW28765   9.818   9.615   5.486
42309SOL    HW128766   9.787   9.537   5.531
42309SOL    HW228767   9.890   9.585   5.430
42310SOL     OW28768   3.387  11.890  13.174
42310SOL    HW128769   3.464  11.898  13.118
42310SOL    HW228770   3.404  11.951  13.246
42311SOL     OW28771   5.593   3.649  12.468
42311SOL    HW128772   5.652   3.573  12.472
42311SOL    HW228773   5.618   3.701  12.545
42312SOL     OW28774  10.321   2.845   0.743
42312SOL    HW128775  10.242   2.805   0.781
42312SOL    HW228776  10.344   2.788   0.670
42313SOL     OW28777  13.821   9.542   1.314
42313SOL    HW128778  13.840   9.463   1.363
42313SOL    HW228779  13.884   9.542   1.241
42314SOL     OW28780   2.382   3.002   8.881
42314SOL    HW128781   2.330   3.000   8.961
42314SOL    HW228782   2.373   2.914   8.845
42315SOL     OW28783  13.279   3.025   1.364
42315SOL    HW128784  13.238   3.104   1.328
42315SOL    HW228785  13.239   2.953   1.315
42316SOL     OW28786  11.469  13.877  11.693
42316SOL    HW128787  11.466  13.860  11.599
42316SOL    HW228788  11.464  13.791  11.734
42317SOL     OW28789  11.426   4.249   9.411
42317SOL    HW128790  11.492   4.267   9.344
42317SOL    HW228791  11.342   4.261   9.366
42318SOL     OW28792   6.051  13.904   9.072
42318SOL    HW128793   6.000  13.845   9.016
42318SOL    HW228794   6.041  13.868   9.160
42319SOL     OW28795   9.795   3.383   2.314
42319SOL    HW128796   9.700   3.369   2.307
42319SOL    HW228797   9.832   3.295   2.316
42320SOL     OW28798   4.527   8.176   8.054
42320SOL    HW128799   4.587   8.174   7.979
42320SOL    HW228800   4.574   8.130   8.123
42321SOL     OW28801   0.595  10.608   8.612
42321SOL    HW128802   0.558  10.642   8.694
42321SOL    HW228803   0.542  10.531   8.592
42322SOL     OW28804  13.234   5.694  13.495
42322SOL    HW128805  13.266   5.773  13.540
42322SOL    HW228806  13.140   5.692  13.513
42323SOL     OW28807  13.554  13.968   1.172
42323SOL    HW128808  13.530  13.976   1.079
42323SOL    HW228809  13.496  13.900   1.206
42324SOL     OW28810   8.901   1.861   6.789
42324SOL    HW128811   8.943   1.803   6.726
42324SOL    HW228812   8.840   1.914   6.737
42325SOL     OW28813  13.820   8.480   5.218
42325SOL    HW128814  13.850   8.562   5.256
42325SOL    HW228815  13.749   8.504   5.159
42326SOL     OW28816   8.105  11.065   2.727
42326SOL    HW128817   8.061  11.107   2.653
42326SOL    HW228818   8.096  11.127   2.799
42327SOL     OW28819   4.612  11.462   9.088
42327SOL    HW128820   4.546  11.453   9.157
42327SOL    HW228821   4.695  11.466   9.135
42328SOL     OW28822   5.541   1.438  11.248
42328SOL    HW128823   5.571   1.383  11.176
42328SOL    HW228824   5.591   1.519  11.240
42329SOL     OW28825   6.123  12.516   6.917
42329SOL    HW128826   6.179  12.456   6.965
42329SOL    HW228827   6.184  12.571   6.867
42330SOL     OW28828  13.099   6.218   5.530
42330SOL    HW128829  13.078   6.231   5.437
42330SOL    HW228830  13.053   6.137   5.554
42331SOL     OW28831   8.230  13.783   7.567
42331SOL    HW128832   8.169  13.731   7.620
42331SOL    HW228833   8.243  13.863   7.618
42332SOL     OW28834   1.637   2.849  11.662
42332SOL    HW128835   1.728   2.860  11.689
42332SOL    HW228836   1.639   2.862  11.567
42333SOL     OW28837   7.966  13.828   5.313
42333SOL    HW128838   8.029  13.879   5.363
42333SOL    HW228839   7.881  13.851   5.351
42334SOL     OW28840  14.373   6.189   2.991
42334SOL    HW128841  14.443   6.204   2.927
42334SOL    HW228842  14.394   6.248   3.064
42335SOL     OW28843   5.334   6.360  11.263
42335SOL    HW128844   5.347   6.311  11.344
42335SOL    HW228845   5.370   6.447  11.280
42336SOL     OW28846  12.614   5.116   0.738
42336SOL    HW128847  12.522   5.092   0.729
42336SOL    HW228848  12.636   5.095   0.829
42337SOL     OW28849  12.970   2.225   3.860
42337SOL    HW128850  12.881   2.260   3.858
42337SOL    HW228851  13.006   2.255   3.943
42338SOL     OW28852   2.319   9.747   4.863
42338SOL    HW128853   2.296   9.826   4.914
42338SOL    HW228854   2.406   9.723   4.894
42339SOL     OW28855   2.821  12.151  14.274
42339SOL    HW128856   2.729  12.175  14.271
42339SOL    HW228857   2.830  12.079  14.211
42340SOL     OW28858  13.411  14.285  11.234
42340SOL    HW128859  13.320  14.311  11.242
42340SOL    HW228860  13.435  14.308  11.145
42341SOL     OW28861   7.108   3.317   2.573
42341SOL    HW128862   7.074   3.230   2.596
42341SOL    HW228863   7.031   3.366   2.545
42342SOL     OW28864  13.129   1.348   4.773
42342SOL    HW128865  13.123   1.332   4.867
42342SOL    HW228866  13.213   1.310   4.747
42343SOL     OW28867   5.148  12.870   6.124
42343SOL    HW128868   5.105  12.932   6.066
42343SOL    HW228869   5.091  12.865   6.201
42344SOL     OW28870   5.208   7.449   3.061
42344SOL    HW128871   5.227   7.356   3.069
42344SOL    HW228872   5.180   7.475   3.150
42345SOL     OW28873  10.646  14.617   0.077
42345SOL    HW128874  10.565  14.612   0.128
42345SOL    HW228875  10.714  14.583   0.135
42346SOL     OW28876   0.099   6.307   6.466
42346SOL    HW128877   0.091   6.320   6.561
42346SOL    HW228878   0.095   6.212   6.455
42347SOL     OW28879  10.696   9.709   0.873
42347SOL    HW128880  10.694   9.658   0.954
42347SOL    HW228881  10.627   9.671   0.820
42348SOL     OW28882  11.361   4.309   6.871
42348SOL    HW128883  11.434   4.323   6.811
42348SOL    HW228884  11.379   4.368   6.944
42349SOL     OW28885   9.850   6.700   6.125
42349SOL    HW128886   9.836   6.606   6.134
42349SOL    HW228887   9.894   6.725   6.206
42350SOL     OW28888   1.661   2.566   1.467
42350SOL    HW128889   1.705   2.615   1.398
42350SOL    HW228890   1.616   2.632   1.519
42351SOL     OW28891  13.916   1.289  13.050
42351SOL    HW128892  13.867   1.369  13.034
42351SOL    HW228893  13.852   1.218  13.040
42352SOL     OW28894   1.312   4.366   4.454
42352SOL    HW128895   1.293   4.277   4.484
42352SOL    HW228896   1.297   4.421   4.531
42353SOL     OW28897  13.123   0.311  14.717
42353SOL    HW128898  13.043   0.361  14.702
42353SOL    HW228899  13.094   0.227  14.751
42354SOL     OW28900   0.458   0.843   2.161
42354SOL    HW128901   0.376   0.801   2.140
42354SOL    HW228902   0.439   0.896   2.239
42355SOL     OW28903  10.307   1.931   1.992
42355SOL    HW128904  10.364   1.921   1.915
42355SOL    HW228905  10.367   1.951   2.064
42356SOL     OW28906   0.576   9.233   0.141
42356SOL    HW128907   0.506   9.214   0.078
42356SOL    HW228908   0.530   9.243   0.225
42357SOL     OW28909  12.917   7.934   8.370
42357SOL    HW128910  12.942   7.970   8.284
42357SOL    HW228911  12.989   7.876   8.393
42358SOL     OW28912   0.022   8.342   9.824
42358SOL    HW128913   0.064   8.269   9.870
42358SOL    HW228914   0.001   8.306   9.737
42359SOL     OW28915   6.414   4.086  11.606
42359SOL    HW128916   6.442   4.142  11.678
42359SOL    HW228917   6.447   3.999  11.629
42360SOL     OW28918   0.303   4.285  14.722
42360SOL    HW128919   0.303   4.215  14.788
42360SOL    HW228920   0.249   4.354  14.761
42361SOL     OW28921   1.725  12.816   6.741
42361SOL    HW128922   1.731  12.889   6.803
42361SOL    HW228923   1.734  12.738   6.794
42362SOL     OW28924   3.428   7.630   9.855
42362SOL    HW128925   3.472   7.558   9.899
42362SOL    HW228926   3.438   7.704   9.915
42363SOL     OW28927   6.017   7.271  12.414
42363SOL    HW128928   6.064   7.307  12.338
42363SOL    HW228929   5.967   7.345  12.448
42364SOL     OW28930  13.137   6.466   1.019
42364SOL    HW128931  13.077   6.483   0.946
42364SOL    HW228932  13.098   6.391   1.065
42365SOL     OW28933  13.588   8.210   9.100
42365SOL    HW128934  13.683   8.203   9.099
42365SOL    HW228935  13.559   8.149   9.032
42366SOL     OW28936  10.689   3.457  11.164
42366SOL    HW128937  10.665   3.511  11.239
42366SOL    HW228938  10.744   3.514  11.110
42367SOL     OW28939   0.633   6.451   6.406
42367SOL    HW128940   0.552   6.404   6.388
42367SOL    HW228941   0.696   6.417   6.342
42368SOL     OW28942   6.783   8.624   3.525
42368SOL    HW128943   6.789   8.533   3.495
42368SOL    HW228944   6.834   8.625   3.606
42369SOL     OW28945  12.096   1.773   4.062
42369SOL    HW128946  12.077   1.764   4.155
42369SOL    HW228947  12.134   1.860   4.053
42370SOL     OW28948   7.242  13.568   7.991
42370SOL    HW128949   7.320  13.520   7.962
42370SOL    HW228950   7.246  13.651   7.943
42371SOL     OW28951   8.236  11.913   7.527
42371SOL    HW128952   8.177  11.844   7.558
42371SOL    HW228953   8.185  11.959   7.460
42372SOL     OW28954   0.530   1.313   5.369
42372SOL    HW128955   0.482   1.383   5.414
42372SOL    HW228956   0.535   1.243   5.434
42373SOL     OW28957   1.223   7.960   7.243
42373SOL    HW128958   1.140   8.006   7.254
42373SOL    HW228959   1.224   7.894   7.311
42374SOL     OW28960   4.985  14.182  13.742
42374SOL    HW128961   5.013  14.161  13.653
42374SOL    HW228962   4.892  14.201  13.734
42375SOL     OW28963   3.648   9.029   7.244
42375SOL    HW128964   3.566   9.067   7.213
42375SOL    HW228965   3.667   8.959   7.182
42376SOL     OW28966   4.297   1.477  12.327
42376SOL    HW128967   4.308   1.510  12.238
42376SOL    HW228968   4.361   1.406  12.334
42377SOL     OW28969   1.701  14.591   9.957
42377SOL    HW128970   1.751  14.586   9.876
42377SOL    HW228971   1.635  14.659   9.940
42378SOL     OW28972  12.865  10.554   5.365
42378SOL    HW128973  12.934  10.613   5.395
42378SOL    HW228974  12.876  10.474   5.416
42379SOL     OW28975  11.563   1.182   9.249
42379SOL    HW128976  11.560   1.092   9.282
42379SOL    HW228977  11.485   1.190   9.194
42380SOL     OW28978   1.345   5.460  13.507
42380SOL    HW128979   1.366   5.429  13.419
42380SOL    HW228980   1.299   5.543  13.492
42381SOL     OW28981   1.629  13.282  13.196
42381SOL    HW128982   1.663  13.219  13.260
42381SOL    HW228983   1.707  13.321  13.157
42382SOL     OW28984   4.892   1.896   6.804
42382SOL    HW128985   4.837   1.942   6.740
42382SOL    HW228986   4.978   1.936   6.795
42383SOL     OW28987   9.415   9.982   2.049
42383SOL    HW128988   9.481   9.933   2.000
42383SOL    HW228989   9.399  10.061   1.997
42384SOL     OW28990   0.216   9.374   6.056
42384SOL    HW128991   0.145   9.436   6.074
42384SOL    HW228992   0.178   9.289   6.078
42385SOL     OW28993   2.503  10.019   4.258
42385SOL    HW128994   2.410  10.035   4.275
42385SOL    HW228995   2.527  10.085   4.193
42386SOL     OW28996   5.520  11.431   5.998
42386SOL    HW128997   5.582  11.360   6.018
42386SOL    HW228998   5.434  11.392   6.008
42387SOL     OW28999   1.401   8.140  14.091
42387SOL    HW129000   1.369   8.086  14.019
42387SOL    HW229001   1.386   8.086  14.169
42388SOL     OW29002  10.493  13.112   7.816
42388SOL    HW129003  10.545  13.039   7.781
42388SOL    HW229004  10.403  13.080   7.812
42389SOL     OW29005  13.364   4.395   6.500
42389SOL    HW129006  13.386   4.466   6.559
42389SOL    HW229007  13.412   4.414   6.419
42390SOL     OW29008   1.472   6.504   1.333
42390SOL    HW129009   1.402   6.463   1.385
42390SOL    HW229010   1.455   6.475   1.243
42391SOL     OW29011  13.814   3.758  12.733
42391SOL    HW129012  13.814   3.680  12.677
42391SOL    HW229013  13.742   3.811  12.701
42392SOL     OW29014   5.482  11.951   6.812
42392SOL    HW129015   5.471  11.856   6.803
42392SOL    HW229016   5.512  11.962   6.903
42393SOL     OW29017   6.445   0.772   4.403
42393SOL    HW129018   6.518   0.796   4.345
42393SOL    HW229019   6.405   0.856   4.426
42394SOL     OW29020   5.929   0.471   6.685
42394SOL    HW129021   5.997   0.537   6.671
42394SOL    HW229022   5.854   0.502   6.635
42395SOL     OW29023   0.973   3.419  12.554
42395SOL    HW129024   1.056   3.400  12.510
42395SOL    HW229025   0.929   3.480  12.495
42396SOL     OW29026   2.711   2.534  13.904
42396SOL    HW129027   2.658   2.601  13.861
42396SOL    HW229028   2.798   2.572  13.910
42397SOL     OW29029  14.700   1.334   2.667
42397SOL    HW129030  14.704   1.321   2.572
42397SOL    HW229031  14.733   1.252   2.704
42398SOL     OW29032   4.746   2.469   2.769
42398SOL    HW129033   4.792   2.412   2.707
42398SOL    HW229034   4.685   2.411   2.814
42399SOL     OW29035  11.094  14.167   3.964
42399SOL    HW129036  11.081  14.262   3.970
42399SOL    HW229037  11.134  14.153   3.879
42400SOL     OW29038  13.195   5.451  11.349
42400SOL    HW129039  13.204   5.452  11.254
42400SOL    HW229040  13.285   5.444  11.381
42401SOL     OW29041  12.978  12.523  13.095
42401SOL    HW129042  12.982  12.429  13.112
42401SOL    HW229043  13.068  12.548  13.078
42402SOL     OW29044   0.956   4.293   9.334
42402SOL    HW129045   0.985   4.203   9.318
42402SOL    HW229046   1.035   4.340   9.359
42403SOL     OW29047   1.837   3.480   8.710
42403SOL    HW129048   1.781   3.534   8.765
42403SOL    HW229049   1.902   3.541   8.674
42404SOL     OW29050  10.296   0.668  10.152
42404SOL    HW129051  10.333   0.581  10.144
42404SOL    HW229052  10.201   0.654  10.149
42405SOL     OW29053   3.118   1.618   0.422
42405SOL    HW129054   3.120   1.705   0.382
42405SOL    HW229055   3.055   1.627   0.494
42406SOL     OW29056   5.331   0.728   7.751
42406SOL    HW129057   5.236   0.727   7.740
42406SOL    HW229058   5.360   0.807   7.706
42407SOL     OW29059   0.357   4.972   2.709
42407SOL    HW129060   0.303   4.994   2.633
42407SOL    HW229061   0.361   5.053   2.760
42408SOL     OW29062   7.769   6.606  14.457
42408SOL    HW129063   7.838   6.591  14.391
42408SOL    HW229064   7.722   6.523  14.460
42409SOL     OW29065   3.947   1.041  11.691
42409SOL    HW129066   3.879   1.069  11.631
42409SOL    HW229067   3.923   0.951  11.715
42410SOL     OW29068   4.955   1.419   8.687
42410SOL    HW129069   4.894   1.395   8.756
42410SOL    HW229070   4.899   1.446   8.614
42411SOL     OW29071   4.013   1.470   9.804
42411SOL    HW129072   4.053   1.404   9.747
42411SOL    HW229073   3.973   1.532   9.743
42412SOL     OW29074  13.271   6.950   9.900
42412SOL    HW129075  13.258   6.858   9.925
42412SOL    HW229076  13.218   6.961   9.821
42413SOL     OW29077  14.444   5.120   8.493
42413SOL    HW129078  14.349   5.130   8.491
42413SOL    HW229079  14.467   5.085   8.407
42414SOL     OW29080   6.978  10.421   2.350
42414SOL    HW129081   6.974  10.405   2.444
42414SOL    HW229082   6.890  10.452   2.327
42415SOL     OW29083  13.537   5.511  14.221
42415SOL    HW129084  13.518   5.586  14.278
42415SOL    HW229085  13.625   5.485  14.245
42416SOL     OW29086  14.133   6.389   5.554
42416SOL    HW129087  14.209   6.370   5.609
42416SOL    HW229088  14.153   6.349   5.470
42417SOL     OW29089   4.969  11.305   6.052
42417SOL    HW129090   5.042  11.358   6.017
42417SOL    HW229091   4.891  11.349   6.019
42418SOL     OW29092   4.885  10.044   2.069
42418SOL    HW129093   4.929   9.963   2.092
42418SOL    HW229094   4.831  10.022   1.993
42419SOL     OW29095   5.872  14.614   2.589
42419SOL    HW129096   5.852  14.706   2.571
42419SOL    HW229097   5.965  14.606   2.569
42420SOL     OW29098   0.288   7.271   9.377
42420SOL    HW129099   0.328   7.214   9.443
42420SOL    HW229100   0.341   7.258   9.298
42421SOL     OW29101   7.402   2.740   7.799
42421SOL    HW129102   7.481   2.793   7.812
42421SOL    HW229103   7.435   2.650   7.792
42422SOL     OW29104   3.365  12.986  10.000
42422SOL    HW129105   3.335  13.049  10.065
42422SOL    HW229106   3.304  12.995   9.928
42423SOL     OW29107  11.321  12.768  11.771
42423SOL    HW129108  11.407  12.784  11.810
42423SOL    HW229109  11.340  12.719  11.691
42424SOL     OW29110   5.426   5.568   4.809
42424SOL    HW129111   5.428   5.522   4.892
42424SOL    HW229112   5.404   5.501   4.744
42425SOL     OW29113   2.028  14.597  14.340
42425SOL    HW129114   2.067  14.632  14.420
42425SOL    HW229115   2.012  14.504  14.358
42426SOL     OW29116  12.469   5.630   0.254
42426SOL    HW129117  12.467   5.600   0.345
42426SOL    HW229118  12.385   5.604   0.218
42427SOL     OW29119   1.353  14.132  13.039
42427SOL    HW129120   1.301  14.093  12.969
42427SOL    HW229121   1.414  14.190  12.994
42428SOL     OW29122   4.065  13.878   8.163
42428SOL    HW129123   4.065  13.899   8.256
42428SOL    HW229124   4.095  13.787   8.158
42429SOL     OW29125  11.656   3.555  10.327
42429SOL    HW129126  11.733   3.572  10.382
42429SOL    HW229127  11.590   3.522  10.389
42430SOL     OW29128   6.825   4.336   3.024
42430SOL    HW129129   6.776   4.276   2.969
42430SOL    HW229130   6.875   4.390   2.963
42431SOL     OW29131   1.053   2.064  10.559
42431SOL    HW129132   1.032   2.062  10.466
42431SOL    HW229133   0.968   2.071  10.603
42432SOL     OW29134   7.528  13.958  11.071
42432SOL    HW129135   7.478  13.944  11.152
42432SOL    HW229136   7.499  14.044  11.040
42433SOL     OW29137  11.297  14.120  12.173
42433SOL    HW129138  11.214  14.145  12.215
42433SOL    HW229139  11.359  14.113  12.245
42434SOL     OW29140   1.109   6.852   4.100
42434SOL    HW129141   1.020   6.862   4.067
42434SOL    HW229142   1.113   6.911   4.176
42435SOL     OW29143   3.938   3.704   2.776
42435SOL    HW129144   3.907   3.764   2.844
42435SOL    HW229145   3.905   3.618   2.802
42436SOL     OW29146   6.670   0.802   7.017
42436SOL    HW129147   6.734   0.748   6.972
42436SOL    HW229148   6.688   0.891   6.987
42437SOL     OW29149   1.286  10.139  14.777
42437SOL    HW129150   1.278  10.067  14.841
42437SOL    HW229151   1.333  10.100  14.703
42438SOL     OW29152   5.292   1.854   9.702
42438SOL    HW129153   5.291   1.921   9.634
42438SOL    HW229154   5.381   1.816   9.698
42439SOL     OW29155   2.879  13.132   1.112
42439SOL    HW129156   2.951  13.070   1.122
42439SOL    HW229157   2.922  13.216   1.098
42440SOL     OW29158  10.020  14.852   3.881
42440SOL    HW129159   9.927  14.861   3.904
42440SOL    HW229160  10.047  14.771   3.925
42441SOL     OW29161  10.496   2.281   2.955
42441SOL    HW129162  10.479   2.191   2.927
42441SOL    HW229163  10.412   2.313   2.985
42442SOL     OW29164   7.210  13.577  14.084
42442SOL    HW129165   7.123  13.565  14.045
42442SOL    HW229166   7.270  13.568  14.010
42443SOL     OW29167  11.205   7.600   3.795
42443SOL    HW129168  11.134   7.633   3.850
42443SOL    HW229169  11.178   7.510   3.775
42444SOL     OW29170  11.373   7.132   8.833
42444SOL    HW129171  11.361   7.086   8.916
42444SOL    HW229172  11.456   7.099   8.799
42445SOL     OW29173   8.906   3.985   3.276
42445SOL    HW129174   8.886   4.056   3.215
42445SOL    HW229175   8.871   4.014   3.360
42446SOL     OW29176   1.616   9.007  11.837
42446SOL    HW129177   1.553   9.074  11.866
42446SOL    HW229178   1.607   9.006  11.742
42447SOL     OW29179   0.251   3.892   6.153
42447SOL    HW129180   0.339   3.857   6.151
42447SOL    HW229181   0.263   3.987   6.160
42448SOL     OW29182  12.761  11.446   5.392
42448SOL    HW129183  12.746  11.454   5.298
42448SOL    HW229184  12.743  11.354   5.412
42449SOL     OW29185   2.009   5.939   7.626
42449SOL    HW129186   2.082   5.878   7.621
42449SOL    HW229187   1.956   5.908   7.700
42450SOL     OW29188  12.866   8.216   6.946
42450SOL    HW129189  12.771   8.222   6.951
42450SOL    HW229190  12.897   8.306   6.956
42451SOL     OW29191   5.507  10.241   3.177
42451SOL    HW129192   5.476  10.194   3.254
42451SOL    HW229193   5.602  10.240   3.184
42452SOL     OW29194  13.391   4.062  11.834
42452SOL    HW129195  13.301   4.033  11.822
42452SOL    HW229196  13.409   4.046  11.927
42453SOL     OW29197  12.602   1.174   7.133
42453SOL    HW129198  12.644   1.258   7.149
42453SOL    HW229199  12.510   1.196   7.116
42454SOL     OW29200   5.700   5.174  13.913
42454SOL    HW129201   5.611   5.196  13.940
42454SOL    HW229202   5.704   5.079  13.920
42455SOL     OW29203  10.743   2.656   1.337
42455SOL    HW129204  10.766   2.564   1.329
42455SOL    HW229205  10.778   2.697   1.257
42456SOL     OW29206   0.602   4.907  14.410
42456SOL    HW129207   0.686   4.908  14.364
42456SOL    HW229208   0.626   4.895  14.502
42457SOL     OW29209   1.609   6.603  12.363
42457SOL    HW129210   1.553   6.550  12.420
42457SOL    HW229211   1.689   6.617  12.413
42458SOL     OW29212   9.373  11.252   5.574
42458SOL    HW129213   9.458  11.296   5.572
42458SOL    HW229214   9.318  11.304   5.515
42459SOL     OW29215   4.464   5.794  11.290
42459SOL    HW129216   4.433   5.708  11.319
42459SOL    HW229217   4.528   5.820  11.356
42460SOL     OW29218   5.785  13.473  14.745
42460SOL    HW129219   5.818  13.505  14.661
42460SOL    HW229220   5.773  13.379  14.732
42461SOL     OW29221   2.869   3.388   9.093
42461SOL    HW129222   2.917   3.470   9.097
42461SOL    HW229223   2.817   3.393   9.013
42462SOL     OW29224   0.183   7.183   4.957
42462SOL    HW129225   0.101   7.228   4.979
42462SOL    HW229226   0.247   7.253   4.945
42463SOL     OW29227  14.525  13.012   4.468
42463SOL    HW129228  14.509  13.035   4.377
42463SOL    HW229229  14.583  12.936   4.465
42464SOL     OW29230   0.850   1.209  12.193
42464SOL    HW129231   0.770   1.258  12.179
42464SOL    HW229232   0.883   1.190  12.105
42465SOL     OW29233   8.904   4.548   1.510
42465SOL    HW129234   8.900   4.514   1.420
42465SOL    HW229235   8.905   4.643   1.500
42466SOL     OW29236   6.578   4.111   1.122
42466SOL    HW129237   6.665   4.108   1.084
42466SOL    HW229238   6.529   4.170   1.064
42467SOL     OW29239   6.615  13.237   1.722
42467SOL    HW129240   6.577  13.324   1.737
42467SOL    HW229241   6.564  13.179   1.778
42468SOL     OW29242  11.889   4.938   2.965
42468SOL    HW129243  11.941   4.860   2.980
42468SOL    HW229244  11.952   5.003   2.934
42469SOL     OW29245   4.514   3.112  11.352
42469SOL    HW129246   4.596   3.150  11.386
42469SOL    HW229247   4.486   3.174  11.284
42470SOL     OW29248  14.692   3.151   2.624
42470SOL    HW129249  14.634   3.138   2.699
42470SOL    HW229250  14.764   3.089   2.639
42471SOL     OW29251   1.189   8.294   8.024
42471SOL    HW129252   1.254   8.287   8.093
42471SOL    HW229253   1.148   8.207   8.021
42472SOL     OW29254  13.425   6.109  13.860
42472SOL    HW129255  13.515   6.143  13.864
42472SOL    HW229256  13.436   6.014  13.867
42473SOL     OW29257   6.931   0.830   0.927
42473SOL    HW129258   6.850   0.857   0.970
42473SOL    HW229259   6.905   0.812   0.836
42474SOL     OW29260   7.503   4.296  10.372
42474SOL    HW129261   7.455   4.220  10.406
42474SOL    HW229262   7.443   4.337  10.310
42475SOL     OW29263   5.074   5.178   0.849
42475SOL    HW129264   5.015   5.231   0.902
42475SOL    HW229265   5.068   5.216   0.761
42476SOL     OW29266   8.601   6.332   4.262
42476SOL    HW129267   8.633   6.273   4.332
42476SOL    HW229268   8.544   6.277   4.209
42477SOL     OW29269   6.834  10.168   4.337
42477SOL    HW129270   6.765  10.138   4.396
42477SOL    HW229271   6.915  10.158   4.387
42478SOL     OW29272   7.880   9.049   8.960
42478SOL    HW129273   7.951   9.087   8.907
42478SOL    HW229274   7.913   9.052   9.050
42479SOL     OW29275   1.200   6.546   9.341
42479SOL    HW129276   1.238   6.484   9.279
42479SOL    HW229277   1.107   6.550   9.318
42480SOL     OW29278  12.730   1.765   6.408
42480SOL    HW129279  12.799   1.829   6.395
42480SOL    HW229280  12.697   1.746   6.320
42481SOL     OW29281   8.312  13.142  10.478
42481SOL    HW129282   8.389  13.124  10.531
42481SOL    HW229283   8.292  13.059  10.435
42482SOL     OW29284   7.508   2.486   0.885
42482SOL    HW129285   7.433   2.427   0.891
42482SOL    HW229286   7.584   2.428   0.880
42483SOL     OW29287  14.358   9.195   9.433
42483SOL    HW129288  14.311   9.260   9.380
42483SOL    HW229289  14.424   9.246   9.480
42484SOL     OW29290   9.123   5.731   7.001
42484SOL    HW129291   9.053   5.676   7.037
42484SOL    HW229292   9.081   5.778   6.929
42485SOL     OW29293   1.658   7.938  10.152
42485SOL    HW129294   1.702   8.006  10.101
42485SOL    HW229295   1.570   7.972  10.166
42486SOL     OW29296   5.238  10.821   9.422
42486SOL    HW129297   5.220  10.728   9.441
42486SOL    HW229298   5.246  10.861   9.509
42487SOL     OW29299  10.024   8.533  10.353
42487SOL    HW129300   9.981   8.523  10.269
42487SOL    HW229301   9.988   8.613  10.389
42488SOL     OW29302  10.756   1.842   7.734
42488SOL    HW129303  10.759   1.936   7.753
42488SOL    HW229304  10.686   1.808   7.790
42489SOL     OW29305   9.973   3.520  14.424
42489SOL    HW129306   9.948   3.590  14.364
42489SOL    HW229307   9.893   3.498  14.471
42490SOL     OW29308   3.957  10.447   7.818
42490SOL    HW129309   3.884  10.387   7.823
42490SOL    HW229310   4.033  10.392   7.799
42491SOL     OW29311  11.180   9.148  10.161
42491SOL    HW129312  11.136   9.064  10.171
42491SOL    HW229313  11.262   9.128  10.115
42492SOL     OW29314  11.940   4.800   7.241
42492SOL    HW129315  11.960   4.708   7.221
42492SOL    HW229316  11.976   4.849   7.167
42493SOL     OW29317  12.349   4.581  12.967
42493SOL    HW129318  12.386   4.536  12.891
42493SOL    HW229319  12.386   4.669  12.963
42494SOL     OW29320   0.731   8.342   9.771
42494SOL    HW129321   0.652   8.333   9.825
42494SOL    HW229322   0.789   8.271   9.802
42495SOL     OW29323  11.703   5.570   4.056
42495SOL    HW129324  11.749   5.640   4.009
42495SOL    HW229325  11.713   5.493   4.001
42496SOL     OW29326   5.027  13.254  12.443
42496SOL    HW129327   5.006  13.209  12.525
42496SOL    HW229328   5.056  13.185  12.384
42497SOL     OW29329  11.130  13.520  13.407
42497SOL    HW129330  11.212  13.511  13.457
42497SOL    HW229331  11.157  13.557  13.323
42498SOL     OW29332  13.399   1.235  10.266
42498SOL    HW129333  13.445   1.196  10.191
42498SOL    HW229334  13.425   1.182  10.341
42499SOL     OW29335   2.208   1.858   6.077
42499SOL    HW129336   2.180   1.878   6.166
42499SOL    HW229337   2.157   1.917   6.022
42500SOL     OW29338   4.258   9.531   4.557
42500SOL    HW129339   4.291   9.525   4.467
42500SOL    HW229340   4.266   9.443   4.592
42501SOL     OW29341   8.175   4.069   5.782
42501SOL    HW129342   8.133   4.027   5.707
42501SOL    HW229343   8.195   4.158   5.753
42502SOL     OW29344   5.601   5.013   6.974
42502SOL    HW129345   5.678   5.069   6.957
42502SOL    HW229346   5.636   4.924   6.973
42503SOL     OW29347  12.674   8.742   0.525
42503SOL    HW129348  12.671   8.765   0.432
42503SOL    HW229349  12.585   8.714   0.546
42504SOL     OW29350   0.926   2.986   6.634
42504SOL    HW129351   0.999   2.938   6.673
42504SOL    HW229352   0.962   3.022   6.553
42505SOL     OW29353  14.487   6.534   5.291
42505SOL    HW129354  14.400   6.573   5.278
42505SOL    HW229355  14.488   6.459   5.233
42506SOL     OW29356  12.381  11.931   5.530
42506SOL    HW129357  12.427  12.014   5.541
42506SOL    HW229358  12.315  11.950   5.463
42507SOL     OW29359   1.740   8.554  10.819
42507SOL    HW129360   1.761   8.636  10.773
42507SOL    HW229361   1.780   8.564  10.905
42508SOL     OW29362  10.518  10.153   6.274
42508SOL    HW129363  10.544  10.209   6.347
42508SOL    HW229364  10.543  10.065   6.301
42509SOL     OW29365  10.938  14.810   5.429
42509SOL    HW129366  10.959  14.741   5.491
42509SOL    HW229367  10.906  14.764   5.351
42510SOL     OW29368   3.798  10.693  12.190
42510SOL    HW129369   3.710  10.705  12.156
42510SOL    HW229370   3.844  10.774  12.166
42511SOL     OW29371   8.684   3.900   4.336
42511SOL    HW129372   8.673   3.805   4.345
42511SOL    HW229373   8.751   3.922   4.400
42512SOL     OW29374  11.872   8.564   1.085
42512SOL    HW129375  11.842   8.655   1.078
42512SOL    HW229376  11.930   8.553   1.009
42513SOL     OW29377   5.773   1.277   4.292
42513SOL    HW129378   5.844   1.237   4.244
42513SOL    HW229379   5.790   1.371   4.287
42514SOL     OW29380   4.046  14.751  11.470
42514SOL    HW129381   3.954  14.736  11.492
42514SOL    HW229382   4.058  14.845  11.484
42515SOL     OW29383  13.419   9.158   3.746
42515SOL    HW129384  13.337   9.162   3.794
42515SOL    HW229385  13.456   9.073   3.767
42516SOL     OW29386   7.241  10.761   8.387
42516SOL    HW129387   7.233  10.815   8.465
42516SOL    HW229388   7.240  10.671   8.419
42517SOL     OW29389  11.665  13.389   8.116
42517SOL    HW129390  11.673  13.366   8.024
42517SOL    HW229391  11.719  13.324   8.162
42518SOL     OW29392  12.760  12.290   2.726
42518SOL    HW129393  12.699  12.343   2.777
42518SOL    HW229394  12.792  12.225   2.788
42519SOL     OW29395  10.249  11.202  11.996
42519SOL    HW129396  10.180  11.180  11.934
42519SOL    HW229397  10.310  11.129  11.991
42520SOL     OW29398  11.302  11.964   2.960
42520SOL    HW129399  11.339  11.963   3.048
42520SOL    HW229400  11.244  12.040   2.958
42521SOL     OW29401  10.596   8.295  13.581
42521SOL    HW129402  10.502   8.279  13.579
42521SOL    HW229403  10.614   8.341  13.500
42522SOL     OW29404  10.296   5.504   2.088
42522SOL    HW129405  10.355   5.475   2.157
42522SOL    HW229406  10.209   5.492   2.124
42523SOL     OW29407  10.777   9.392   1.907
42523SOL    HW129408  10.796   9.368   1.998
42523SOL    HW229409  10.845   9.455   1.883
42524SOL     OW29410   3.852   1.295   6.391
42524SOL    HW129411   3.917   1.250   6.444
42524SOL    HW229412   3.774   1.240   6.394
42525SOL     OW29413  13.535   8.327   6.453
42525SOL    HW129414  13.487   8.408   6.471
42525SOL    HW229415  13.535   8.280   6.536
42526SOL     OW29416   7.599   9.854   6.701
42526SOL    HW129417   7.669   9.809   6.749
42526SOL    HW229418   7.644   9.903   6.632
42527SOL     OW29419   8.708  14.814  13.407
42527SOL    HW129420   8.766  14.776  13.341
42527SOL    HW229421   8.737   0.028  13.417
42528SOL     OW29422   6.129  13.353   3.742
42528SOL    HW129423   6.127  13.347   3.838
42528SOL    HW229424   6.066  13.421   3.721
42529SOL     OW29425  11.962  12.886   1.660
42529SOL    HW129426  11.926  12.807   1.701
42529SOL    HW229427  11.893  12.916   1.601
42530SOL     OW29428   5.383   9.744   0.453
42530SOL    HW129429   5.442   9.774   0.384
42530SOL    HW229430   5.334   9.672   0.413
42531SOL     OW29431   6.558  13.656   6.079
42531SOL    HW129432   6.478  13.705   6.060
42531SOL    HW229433   6.539  13.608   6.160
42532SOL     OW29434  12.020  12.667   6.922
42532SOL    HW129435  11.962  12.610   6.872
42532SOL    HW229436  11.976  12.752   6.923
42533SOL     OW29437   5.635   1.258   3.369
42533SOL    HW129438   5.694   1.185   3.386
42533SOL    HW229439   5.566   1.248   3.435
42534SOL     OW29440   6.930   1.671   2.608
42534SOL    HW129441   7.004   1.730   2.620
42534SOL    HW229442   6.858   1.728   2.581
42535SOL     OW29443  13.983  11.467  12.697
42535SOL    HW129444  13.925  11.425  12.633
42535SOL    HW229445  13.929  11.479  12.774
42536SOL     OW29446   2.283  12.789   5.277
42536SOL    HW129447   2.321  12.746   5.354
42536SOL    HW229448   2.359  12.824   5.230
42537SOL     OW29449   7.651  12.938   1.593
42537SOL    HW129450   7.633  12.933   1.500
42537SOL    HW229451   7.651  13.031   1.614
42538SOL     OW29452   6.278   2.101  12.215
42538SOL    HW129453   6.356   2.148  12.245
42538SOL    HW229454   6.310   2.042  12.147
42539SOL     OW29455  14.856   5.515  13.503
42539SOL    HW129456  14.774   5.540  13.546
42539SOL    HW229457   0.047   5.525  13.571
42540SOL     OW29458   8.000   3.050  12.386
42540SOL    HW129459   8.007   2.988  12.458
42540SOL    HW229460   7.915   3.031  12.346
42541SOL     OW29461   6.409  10.717  13.366
42541SOL    HW129462   6.403  10.760  13.281
42541SOL    HW229463   6.500  10.731  13.393
42542SOL     OW29464   2.754  10.160   1.136
42542SOL    HW129465   2.690  10.190   1.201
42542SOL    HW229466   2.742  10.065   1.134
42543SOL     OW29467   4.849   1.878   5.672
42543SOL    HW129468   4.773   1.823   5.687
42543SOL    HW229469   4.918   1.839   5.725
42544SOL     OW29470  10.495   1.289   7.932
42544SOL    HW129471  10.573   1.276   7.986
42544SOL    HW229472  10.423   1.297   7.996
42545SOL     OW29473   9.005  14.279   6.826
42545SOL    HW129474   8.986  14.365   6.865
42545SOL    HW229475   8.921  14.234   6.825
42546SOL     OW29476   7.664  11.924   2.192
42546SOL    HW129477   7.710  11.850   2.151
42546SOL    HW229478   7.664  11.992   2.124
42547SOL     OW29479   7.613   0.663   0.492
42547SOL    HW129480   7.658   0.713   0.560
42547SOL    HW229481   7.572   0.590   0.539
42548SOL     OW29482   1.366  14.694   8.605
42548SOL    HW129483   1.274  14.703   8.631
42548SOL    HW229484   1.407  14.774   8.637
42549SOL     OW29485  12.548   3.948  14.080
42549SOL    HW129486  12.561   3.931  14.173
42549SOL    HW229487  12.502   4.033  14.078
42550SOL     OW29488   9.841  10.694  11.687
42550SOL    HW129489   9.749  10.705  11.709
42550SOL    HW229490   9.877  10.640  11.757
42551SOL     OW29491  13.567   8.185   3.017
42551SOL    HW129492  13.550   8.117   2.953
42551SOL    HW229493  13.547   8.267   2.972
42552SOL     OW29494   6.280  11.211  12.851
42552SOL    HW129495   6.264  11.117  12.847
42552SOL    HW229496   6.261  11.235  12.942
42553SOL     OW29497  10.660  13.415   4.640
42553SOL    HW129498  10.734  13.354   4.636
42553SOL    HW229499  10.626  13.418   4.551
42554SOL     OW29500   6.599  13.912   7.297
42554SOL    HW129501   6.610  13.823   7.329
42554SOL    HW229502   6.590  13.903   7.202
42555SOL     OW29503  10.497   4.740   2.733
42555SOL    HW129504  10.532   4.706   2.815
42555SOL    HW229505  10.402   4.730   2.742
42556SOL     OW29506   2.623  11.983  10.766
42556SOL    HW129507   2.642  11.891  10.787
42556SOL    HW229508   2.542  12.002  10.813
42557SOL     OW29509  14.042   1.427   5.690
42557SOL    HW129510  13.995   1.488   5.634
42557SOL    HW229511  13.976   1.396   5.752
42558SOL     OW29512   8.493  13.198   6.061
42558SOL    HW129513   8.407  13.159   6.081
42558SOL    HW229514   8.513  13.166   5.973
42559SOL     OW29515  14.032   9.655   7.106
42559SOL    HW129516  13.937   9.654   7.096
42559SOL    HW229517  14.057   9.563   7.112
42560SOL     OW29518  13.254   0.865   6.214
42560SOL    HW129519  13.186   0.826   6.160
42560SOL    HW229520  13.289   0.936   6.160
42561SOL     OW29521   4.550   1.634  12.386
42561SOL    HW129522   4.558   1.699  12.456
42561SOL    HW229523   4.456   1.634  12.365
42562SOL     OW29524   7.335   4.025   4.475
42562SOL    HW129525   7.286   3.969   4.535
42562SOL    HW229526   7.367   4.097   4.530
42563SOL     OW29527  10.665   8.924  10.134
42563SOL    HW129528  10.651   8.845  10.185
42563SOL    HW229529  10.729   8.899  10.067
42564SOL     OW29530   6.237   6.285   1.749
42564SOL    HW129531   6.279   6.302   1.834
42564SOL    HW229532   6.167   6.350   1.744
42565SOL     OW29533   8.497   7.885   2.815
42565SOL    HW129534   8.493   7.981   2.821
42565SOL    HW229535   8.562   7.869   2.746
42566SOL     OW29536   5.837   6.865  11.028
42566SOL    HW129537   5.907   6.818  10.983
42566SOL    HW229538   5.766   6.869  10.964
42567SOL     OW29539   2.284  11.231   8.267
42567SOL    HW129540   2.291  11.322   8.293
42567SOL    HW229541   2.349  11.220   8.198
42568SOL     OW29542   4.854  11.598   6.192
42568SOL    HW129543   4.929  11.585   6.249
42568SOL    HW229544   4.797  11.523   6.210
42569SOL     OW29545   7.301   4.467   9.771
42569SOL    HW129546   7.335   4.556   9.765
42569SOL    HW229547   7.331   4.424   9.691
42570SOL     OW29548   9.749   1.069   9.435
42570SOL    HW129549   9.707   0.993   9.395
42570SOL    HW229550   9.832   1.037   9.468
42571SOL     OW29551   9.991  11.397  13.972
42571SOL    HW129552   9.916  11.439  13.931
42571SOL    HW229553   9.957  11.314  14.007
42572SOL     OW29554   9.128   9.342  10.061
42572SOL    HW129555   9.194   9.278  10.036
42572SOL    HW229556   9.104   9.318  10.150
42573SOL     OW29557  14.643   3.145  10.900
42573SOL    HW129558  14.704   3.140  10.826
42573SOL    HW229559  14.699   3.150  10.977
42574SOL     OW29560   3.340   8.780  12.084
42574SOL    HW129561   3.289   8.858  12.061
42574SOL    HW229562   3.413   8.814  12.137
42575SOL     OW29563   0.355   3.991  12.784
42575SOL    HW129564   0.429   4.030  12.737
42575SOL    HW229565   0.395   3.919  12.834
42576SOL     OW29566   8.595   0.675  12.876
42576SOL    HW129567   8.587   0.581  12.861
42576SOL    HW229568   8.549   0.690  12.959
42577SOL     OW29569   6.051   8.419  14.201
42577SOL    HW129570   6.131   8.367  14.212
42577SOL    HW229571   5.990   8.359  14.157
42578SOL     OW29572  14.455   9.280   5.388
42578SOL    HW129573  14.534   9.331   5.405
42578SOL    HW229574  14.383   9.343   5.396
42579SOL     OW29575   3.945   2.182  11.095
42579SOL    HW129576   3.851   2.171  11.080
42579SOL    HW229577   3.987   2.122  11.033
42580SOL     OW29578   6.418  12.739  11.541
42580SOL    HW129579   6.370  12.740  11.624
42580SOL    HW229580   6.464  12.823  11.539
42581SOL     OW29581   4.772  13.664   4.903
42581SOL    HW129582   4.677  13.659   4.907
42581SOL    HW229583   4.795  13.613   4.825
42582SOL     OW29584   3.308  11.162  12.825
42582SOL    HW129585   3.333  11.133  12.913
42582SOL    HW229586   3.387  11.201  12.789
42583SOL     OW29587  10.645   7.156   6.711
42583SOL    HW129588  10.606   7.105   6.640
42583SOL    HW229589  10.716   7.205   6.670
42584SOL     OW29590   9.945   4.482   0.602
42584SOL    HW129591   9.883   4.435   0.547
42584SOL    HW229592   9.961   4.423   0.676
42585SOL     OW29593   0.835  12.313   1.577
42585SOL    HW129594   0.774  12.311   1.504
42585SOL    HW229595   0.786  12.274   1.650
42586SOL     OW29596   9.251   2.938  10.191
42586SOL    HW129597   9.277   2.853  10.154
42586SOL    HW229598   9.282   3.002  10.128
42587SOL     OW29599   7.641  12.983   1.313
42587SOL    HW129600   7.666  13.029   1.232
42587SOL    HW229601   7.564  13.031   1.345
42588SOL     OW29602   5.745   3.966   4.572
42588SOL    HW129603   5.812   3.930   4.514
42588SOL    HW229604   5.686   4.014   4.513
42589SOL     OW29605  11.631  13.746   1.721
42589SOL    HW129606  11.643  13.665   1.771
42589SOL    HW229607  11.709  13.798   1.740
42590SOL     OW29608   0.348   6.707  10.316
42590SOL    HW129609   0.423   6.647  10.312
42590SOL    HW229610   0.374   6.773  10.381
42591SOL     OW29611  11.666  13.458   0.850
42591SOL    HW129612  11.680  13.548   0.879
42591SOL    HW229613  11.752  13.416   0.857
42592SOL     OW29614  11.295   8.312  10.375
42592SOL    HW129615  11.323   8.359  10.297
42592SOL    HW229616  11.374   8.270  10.408
42593SOL     OW29617  13.631   1.504   8.717
42593SOL    HW129618  13.597   1.583   8.758
42593SOL    HW229619  13.646   1.444   8.789
42594SOL     OW29620   5.646   8.221   8.435
42594SOL    HW129621   5.706   8.169   8.382
42594SOL    HW229622   5.562   8.215   8.389
42595SOL     OW29623  14.035   0.706   6.758
42595SOL    HW129624  14.124   0.733   6.777
42595SOL    HW229625  14.010   0.650   6.831
42596SOL     OW29626   6.203   3.484   9.967
42596SOL    HW129627   6.116   3.517   9.948
42596SOL    HW229628   6.213   3.493  10.062
42597SOL     OW29629   9.930   8.294   2.283
42597SOL    HW129630   9.921   8.352   2.359
42597SOL    HW229631  10.020   8.309   2.253
42598SOL     OW29632   1.731  12.101   6.444
42598SOL    HW129633   1.718  12.169   6.378
42598SOL    HW229634   1.735  12.148   6.527
42599SOL     OW29635  10.456  10.757   1.384
42599SOL    HW129636  10.526  10.806   1.427
42599SOL    HW229637  10.502  10.698   1.324
42600SOL     OW29638   7.544  14.824  12.116
42600SOL    HW129639   7.567  14.753  12.056
42600SOL    HW229640   7.616   0.011  12.108
42601SOL     OW29641   9.499  10.898   1.808
42601SOL    HW129642   9.587  10.933   1.816
42601SOL    HW229643   9.462  10.904   1.896
42602SOL     OW29644   1.642  10.699  13.301
42602SOL    HW129645   1.722  10.753  13.301
42602SOL    HW229646   1.663  10.626  13.359
42603SOL     OW29647   3.222   2.504   3.990
42603SOL    HW129648   3.182   2.468   4.069
42603SOL    HW229649   3.291   2.441   3.967
42604SOL     OW29650   7.448  13.276   8.152
42604SOL    HW129651   7.364  13.260   8.109
42604SOL    HW229652   7.426  13.319   8.234
42605SOL     OW29653   2.010   0.855   4.864
42605SOL    HW129654   2.016   0.789   4.795
42605SOL    HW229655   1.935   0.909   4.839
42606SOL     OW29656   2.169  11.981   2.963
42606SOL    HW129657   2.156  11.904   3.017
42606SOL    HW229658   2.081  12.006   2.935
42607SOL     OW29659   9.806  12.162  13.236
42607SOL    HW129660   9.744  12.214  13.186
42607SOL    HW229661   9.763  12.077  13.247
42608SOL     OW29662   7.498  14.298   8.390
42608SOL    HW129663   7.500  14.355   8.313
42608SOL    HW229664   7.584  14.307   8.430
42609SOL     OW29665  14.682   6.856   8.439
42609SOL    HW129666  14.747   6.843   8.508
42609SOL    HW229667  14.729   6.904   8.371
42610SOL     OW29668   7.377   6.009   2.242
42610SOL    HW129669   7.315   6.077   2.216
42610SOL    HW229670   7.454   6.057   2.272
42611SOL     OW29671  11.060  11.094  12.590
42611SOL    HW129672  10.986  11.034  12.589
42611SOL    HW229673  11.109  11.071  12.669
42612SOL     OW29674   0.702   0.794   0.277
42612SOL    HW129675   0.620   0.769   0.233
42612SOL    HW229676   0.701   0.742   0.358
42613SOL     OW29677   5.510   3.861   1.433
42613SOL    HW129678   5.603   3.840   1.443
42613SOL    HW229679   5.466   3.801   1.493
42614SOL     OW29680  10.684   2.670   7.450
42614SOL    HW129681  10.710   2.667   7.542
42614SOL    HW229682  10.740   2.606   7.406
42615SOL     OW29683   4.365   1.772   5.472
42615SOL    HW129684   4.393   1.730   5.390
42615SOL    HW229685   4.281   1.813   5.450
42616SOL     OW29686   9.540   9.073  12.897
42616SOL    HW129687   9.567   9.134  12.965
42616SOL    HW229688   9.489   9.006  12.943
42617SOL     OW29689   9.018  12.728  11.742
42617SOL    HW129690   8.935  12.680  11.744
42617SOL    HW229691   8.992  12.819  11.722
42618SOL     OW29692   9.326  10.766   4.640
42618SOL    HW129693   9.240  10.764   4.682
42618SOL    HW229694   9.316  10.714   4.561
42619SOL     OW29695   5.753  12.919   1.648
42619SOL    HW129696   5.827  12.938   1.706
42619SOL    HW229697   5.740  13.001   1.599
42620SOL     OW29698   8.046   1.202   9.097
42620SOL    HW129699   8.063   1.115   9.133
42620SOL    HW229700   8.130   1.230   9.060
42621SOL     OW29701   5.457   0.894  10.825
42621SOL    HW129702   5.481   0.983  10.800
42621SOL    HW229703   5.431   0.901  10.917
42622SOL     OW29704  13.588   2.336   9.797
42622SOL    HW129705  13.558   2.270   9.860
42622SOL    HW229706  13.611   2.412   9.851
42623SOL     OW29707   7.913  14.351   1.171
42623SOL    HW129708   7.958  14.293   1.109
42623SOL    HW229709   7.871  14.291   1.232
42624SOL     OW29710   2.366   2.701   5.653
42624SOL    HW129711   2.416   2.687   5.734
42624SOL    HW229712   2.342   2.612   5.625
42625SOL     OW29713  11.885   5.314   0.787
42625SOL    HW129714  11.900   5.220   0.798
42625SOL    HW229715  11.926   5.354   0.864
42626SOL     OW29716   9.731   5.238   2.179
42626SOL    HW129717   9.715   5.309   2.117
42626SOL    HW229718   9.757   5.163   2.125
42627SOL     OW29719   8.852   5.449  13.581
42627SOL    HW129720   8.804   5.388  13.526
42627SOL    HW229721   8.784   5.500  13.625
42628SOL     OW29722   2.750   5.052   8.679
42628SOL    HW129723   2.802   5.123   8.716
42628SOL    HW229724   2.663   5.089   8.668
42629SOL     OW29725  10.718   7.920   0.727
42629SOL    HW129726  10.811   7.942   0.717
42629SOL    HW229727  10.701   7.857   0.657
42630SOL     OW29728   8.016   4.236   3.041
42630SOL    HW129729   8.005   4.316   2.989
42630SOL    HW229730   8.104   4.243   3.078
42631SOL     OW29731   2.914   4.232  11.507
42631SOL    HW129732   2.992   4.277  11.474
42631SOL    HW229733   2.934   4.139  11.498
42632SOL     OW29734  14.637  14.169  12.200
42632SOL    HW129735  14.563  14.157  12.140
42632SOL    HW229736  14.610  14.124  12.280
42633SOL     OW29737  11.772   6.019   9.370
42633SOL    HW129738  11.713   5.968   9.426
42633SOL    HW229739  11.859   6.001   9.406
42634SOL     OW29740   8.261   9.535  12.036
42634SOL    HW129741   8.263   9.544  11.940
42634SOL    HW229742   8.351   9.514  12.059
42635SOL     OW29743   2.216   2.053   9.728
42635SOL    HW129744   2.144   2.005   9.686
42635SOL    HW229745   2.194   2.053   9.821
42636SOL     OW29746   7.331  11.012   9.088
42636SOL    HW129747   7.326  11.019   8.993
42636SOL    HW229748   7.304  10.922   9.107
42637SOL     OW29749   5.425   0.550  13.312
42637SOL    HW129750   5.366   0.548  13.237
42637SOL    HW229751   5.513   0.545  13.274
42638SOL     OW29752   1.486   9.425   7.831
42638SOL    HW129753   1.515   9.413   7.921
42638SOL    HW229754   1.424   9.354   7.816
42639SOL     OW29755  12.902   1.550   3.263
42639SOL    HW129756  12.810   1.544   3.288
42639SOL    HW229757  12.901   1.546   3.168
42640SOL     OW29758   1.826   6.949   2.877
42640SOL    HW129759   1.773   6.926   2.953
42640SOL    HW229760   1.909   6.904   2.890
42641SOL     OW29761   6.660   4.996   6.459
42641SOL    HW129762   6.749   4.960   6.464
42641SOL    HW229763   6.616   4.961   6.537
42642SOL     OW29764   1.409  11.588   0.263
42642SOL    HW129765   1.461  11.574   0.342
42642SOL    HW229766   1.350  11.514   0.260
42643SOL     OW29767  13.646   0.033   0.479
42643SOL    HW129768  13.660  14.815   0.470
42643SOL    HW229769  13.606   0.043   0.566
42644SOL     OW29770   3.976  12.279   6.032
42644SOL    HW129771   3.892  12.301   5.993
42644SOL    HW229772   3.956  12.266   6.125
42645SOL     OW29773   2.912   5.350   8.989
42645SOL    HW129774   2.860   5.425   8.958
42645SOL    HW229775   2.960   5.322   8.911
42646SOL     OW29776   9.685   6.546   2.884
42646SOL    HW129777   9.690   6.517   2.974
42646SOL    HW229778   9.651   6.636   2.889
42647SOL     OW29779  10.986   6.110   3.846
42647SOL    HW129780  11.081   6.103   3.853
42647SOL    HW229781  10.969   6.126   3.753
42648SOL     OW29782   5.090   0.271  10.167
42648SOL    HW129783   5.067   0.226  10.249
42648SOL    HW229784   5.009   0.314  10.139
42649SOL     OW29785   2.333   3.424   0.727
42649SOL    HW129786   2.390   3.423   0.803
42649SOL    HW229787   2.274   3.498   0.741
42650SOL     OW29788   1.015   6.681   3.123
42650SOL    HW129789   1.047   6.594   3.147
42650SOL    HW229790   0.925   6.682   3.155
42651SOL     OW29791  12.597   3.130  12.498
42651SOL    HW129792  12.575   3.162  12.586
42651SOL    HW229793  12.614   3.209  12.447
42652SOL     OW29794   1.858   7.841   8.525
42652SOL    HW129795   1.807   7.902   8.577
42652SOL    HW229796   1.847   7.871   8.435
42653SOL     OW29797  13.096   9.886   4.077
42653SOL    HW129798  13.085   9.978   4.053
42653SOL    HW229799  13.140   9.889   4.162
42654SOL     OW29800   2.400   8.955   1.996
42654SOL    HW129801   2.384   9.049   2.004
42654SOL    HW229802   2.330   8.914   2.046
42655SOL     OW29803   1.309   5.423  14.399
42655SOL    HW129804   1.303   5.391  14.489
42655SOL    HW229805   1.268   5.509  14.401
42656SOL     OW29806   7.124   2.458   1.056
42656SOL    HW129807   7.042   2.474   1.105
42656SOL    HW229808   7.162   2.545   1.045
42657SOL     OW29809  10.335   9.074   7.276
42657SOL    HW129810  10.389   9.145   7.310
42657SOL    HW229811  10.245   9.100   7.297
42658SOL     OW29812   9.973   3.614   8.689
42658SOL    HW129813  10.000   3.547   8.751
42658SOL    HW229814  10.046   3.675   8.686
42659SOL     OW29815   3.435   8.349   3.581
42659SOL    HW129816   3.492   8.395   3.520
42659SOL    HW229817   3.493   8.317   3.650
42660SOL     OW29818  13.997   2.703   7.751
42660SOL    HW129819  13.912   2.661   7.740
42660SOL    HW229820  13.991   2.783   7.699
42661SOL     OW29821  11.393   3.609   8.904
42661SOL    HW129822  11.411   3.516   8.895
42661SOL    HW229823  11.309   3.622   8.861
42662SOL     OW29824   9.772   2.940   3.548
42662SOL    HW129825   9.705   2.984   3.495
42662SOL    HW229826   9.846   2.929   3.488
42663SOL     OW29827   1.145   4.634  12.716
42663SOL    HW129828   1.144   4.689  12.637
42663SOL    HW229829   1.235   4.601  12.720
42664SOL     OW29830   6.041   7.723   3.683
42664SOL    HW129831   6.061   7.629   3.683
42664SOL    HW229832   6.047   7.749   3.591
42665SOL     OW29833  11.216   8.686   0.230
42665SOL    HW129834  11.276   8.712   0.300
42665SOL    HW229835  11.135   8.661   0.275
42666SOL     OW29836  12.848   1.285  11.022
42666SOL    HW129837  12.806   1.312  11.104
42666SOL    HW229838  12.875   1.367  10.981
42667SOL     OW29839   6.856   3.907   4.320
42667SOL    HW129840   6.764   3.927   4.338
42667SOL    HW229841   6.905   3.966   4.378
42668SOL     OW29842   1.925   9.975   4.700
42668SOL    HW129843   1.886   9.954   4.616
42668SOL    HW229844   1.882  10.056   4.727
42669SOL     OW29845   5.430  10.511   3.309
42669SOL    HW129846   5.485  10.539   3.235
42669SOL    HW229847   5.400  10.423   3.285
42670SOL     OW29848   5.510   7.169   0.110
42670SOL    HW129849   5.598   7.185   0.143
42670SOL    HW229850   5.452   7.197   0.180
42671SOL     OW29851   0.366   8.235   2.226
42671SOL    HW129852   0.452   8.268   2.253
42671SOL    HW229853   0.331   8.193   2.305
42672SOL     OW29854   6.591   6.048   1.870
42672SOL    HW129855   6.626   5.960   1.883
42672SOL    HW229856   6.505   6.047   1.910
42673SOL     OW29857   8.221  11.933  11.658
42673SOL    HW129858   8.176  11.893  11.584
42673SOL    HW229859   8.314  11.926  11.637
42674SOL     OW29860   2.933  10.540   5.440
42674SOL    HW129861   3.016  10.492   5.446
42674SOL    HW229862   2.878  10.487   5.383
42675SOL     OW29863   2.897   8.247   7.029
42675SOL    HW129864   2.978   8.261   7.076
42675SOL    HW229865   2.894   8.153   7.013
42676SOL     OW29866   1.199   4.872  13.372
42676SOL    HW129867   1.187   4.907  13.460
42676SOL    HW229868   1.177   4.780  13.379
42677SOL     OW29869   1.247   0.716   2.714
42677SOL    HW129870   1.177   0.727   2.651
42677SOL    HW229871   1.327   0.742   2.667
42678SOL     OW29872   2.146   4.076  14.858
42678SOL    HW129873   2.090   4.122   0.046
42678SOL    HW229874   2.133   3.983   0.000
42679SOL     OW29875  13.225   4.970  14.782
42679SOL    HW129876  13.144   4.918  14.780
42679SOL    HW229877  13.218   5.028  14.706
42680SOL     OW29878   3.919   3.699   0.230
42680SOL    HW129879   3.823   3.694   0.230
42680SOL    HW229880   3.940   3.757   0.304
42681SOL     OW29881  11.597   7.006   9.282
42681SOL    HW129882  11.664   7.021   9.349
42681SOL    HW229883  11.518   7.047   9.317
42682SOL     OW29884   8.161   7.579   0.453
42682SOL    HW129885   8.108   7.616   0.382
42682SOL    HW229886   8.166   7.649   0.518
42683SOL     OW29887  13.129   0.169  11.257
42683SOL    HW129888  13.135   0.126  11.172
42683SOL    HW229889  13.039   0.202  11.261
42684SOL     OW29890  10.312   2.735  14.004
42684SOL    HW129891  10.313   2.814  13.950
42684SOL    HW229892  10.223   2.700  13.995
42685SOL     OW29893  10.003   6.365   4.536
42685SOL    HW129894   9.944   6.296   4.507
42685SOL    HW229895  10.039   6.402   4.455
42686SOL     OW29896   3.988  14.136   8.790
42686SOL    HW129897   4.063  14.189   8.819
42686SOL    HW229898   3.977  14.070   8.858
42687SOL     OW29899  10.644   9.189  12.563
42687SOL    HW129900  10.734   9.200  12.593
42687SOL    HW229901  10.612   9.113  12.612
42688SOL     OW29902   8.456   6.961  13.825
42688SOL    HW129903   8.461   7.000  13.737
42688SOL    HW229904   8.438   6.868  13.809
42689SOL     OW29905   5.917   0.726   0.520
42689SOL    HW129906   5.847   0.755   0.461
42689SOL    HW229907   5.888   0.640   0.550
42690SOL     OW29908   5.998   5.579  13.191
42690SOL    HW129909   6.017   5.658  13.140
42690SOL    HW229910   5.928   5.536  13.142
42691SOL     OW29911   7.443   2.423   0.613
42691SOL    HW129912   7.477   2.510   0.592
42691SOL    HW229913   7.521   2.370   0.629
42692SOL     OW29914   2.174  13.673   6.168
42692SOL    HW129915   2.109  13.646   6.233
42692SOL    HW229916   2.206  13.591   6.130
42693SOL     OW29917  11.553  14.509   9.188
42693SOL    HW129918  11.515  14.424   9.168
42693SOL    HW229919  11.642  14.489   9.217
42694SOL     OW29920   2.443  13.584  13.295
42694SOL    HW129921   2.356  13.623  13.290
42694SOL    HW229922   2.503  13.658  13.304
42695SOL     OW29923  10.943   8.337  11.363
42695SOL    HW129924  10.882   8.290  11.306
42695SOL    HW229925  10.967   8.275  11.431
42696SOL     OW29926   7.792   6.609  13.696
42696SOL    HW129927   7.860   6.636  13.634
42696SOL    HW229928   7.790   6.679  13.761
42697SOL     OW29929   4.399   1.240  12.072
42697SOL    HW129930   4.378   1.329  12.043
42697SOL    HW229931   4.490   1.246  12.102
42698SOL     OW29932  12.676   6.907   5.467
42698SOL    HW129933  12.711   6.821   5.493
42698SOL    HW229934  12.696   6.964   5.541
42699SOL     OW29935   1.626  14.484   3.774
42699SOL    HW129936   1.708  14.441   3.802
42699SOL    HW229937   1.589  14.425   3.709
42700SOL     OW29938  13.357   1.251   2.718
42700SOL    HW129939  13.315   1.203   2.789
42700SOL    HW229940  13.406   1.184   2.670
42701SOL     OW29941  12.231  10.660   6.907
42701SOL    HW129942  12.229  10.664   7.003
42701SOL    HW229943  12.307  10.605   6.887
42702SOL     OW29944   6.327  11.449   6.674
42702SOL    HW129945   6.310  11.400   6.754
42702SOL    HW229946   6.422  11.445   6.663
42703SOL     OW29947   1.514   9.931   9.661
42703SOL    HW129948   1.476   9.862   9.606
42703SOL    HW229949   1.607   9.909   9.665
42704SOL     OW29950   6.103   0.620   9.258
42704SOL    HW129951   6.060   0.534   9.259
42704SOL    HW229952   6.074   0.663   9.338
42705SOL     OW29953   7.697  10.351   6.384
42705SOL    HW129954   7.620  10.404   6.367
42705SOL    HW229955   7.697  10.337   6.479
42706SOL     OW29956  13.345   1.518  11.778
42706SOL    HW129957  13.301   1.592  11.819
42706SOL    HW229958  13.363   1.548  11.688
42707SOL     OW29959  10.293   0.071   5.502
42707SOL    HW129960  10.286   0.161   5.472
42707SOL    HW229961  10.368   0.071   5.562
42708SOL     OW29962   0.422   1.480  13.868
42708SOL    HW129963   0.483   1.467  13.795
42708SOL    HW229964   0.469   1.537  13.929
42709SOL     OW29965  13.687   4.110  14.267
42709SOL    HW129966  13.704   4.020  14.236
42709SOL    HW229967  13.685   4.102  14.362
42710SOL     OW29968   0.004   1.748   2.166
42710SOL    HW129969  14.867   1.655   2.184
42710SOL    HW229970   0.058   1.749   2.087
42711SOL     OW29971   6.485   4.523   0.518
42711SOL    HW129972   6.402   4.516   0.471
42711SOL    HW229973   6.500   4.618   0.527
42712SOL     OW29974   8.089  12.888   7.569
42712SOL    HW129975   8.092  12.983   7.554
42712SOL    HW229976   8.175  12.857   7.542
42713SOL     OW29977   2.784   3.064  10.922
42713SOL    HW129978   2.846   3.104  10.982
42713SOL    HW229979   2.711   3.125  10.918
42714SOL     OW29980   7.038   8.777   9.456
42714SOL    HW129981   7.072   8.734   9.535
42714SOL    HW229982   7.069   8.723   9.384
42715SOL     OW29983   0.573  12.283   2.108
42715SOL    HW129984   0.633  12.354   2.131
42715SOL    HW229985   0.491  12.328   2.088
42716SOL     OW29986   5.414   9.439   6.788
42716SOL    HW129987   5.395   9.436   6.882
42716SOL    HW229988   5.411   9.347   6.760
42717SOL     OW29989   4.916   0.159   8.555
42717SOL    HW129990   4.822   0.170   8.542
42717SOL    HW229991   4.946   0.242   8.590
42718SOL     OW29992  11.485  13.017  13.826
42718SOL    HW129993  11.461  12.925  13.817
42718SOL    HW229994  11.498  13.048  13.737
42719SOL     OW29995  12.186   5.446   4.264
42719SOL    HW129996  12.250   5.484   4.323
42719SOL    HW229997  12.158   5.518   4.208
42720SOL     OW29998   9.862  11.348  10.224
42720SOL    HW129999   9.827  11.259  10.224
42720SOL    HW230000   9.930  11.348  10.292
42721SOL     OW30001   0.029  13.835   9.890
42721SOL    HW130002  14.839  13.780   9.847
42721SOL    HW230003   0.099  13.844   9.826
42722SOL     OW30004  14.801  11.312  12.446
42722SOL    HW130005  14.739  11.385  12.447
42722SOL    HW230006  14.785  11.266  12.528
42723SOL     OW30007   1.942   7.275   3.151
42723SOL    HW130008   1.960   7.187   3.186
42723SOL    HW230009   1.853   7.294   3.181
42724SOL     OW30010   6.725   3.372   2.266
42724SOL    HW130011   6.720   3.452   2.317
42724SOL    HW230012   6.819   3.359   2.251
42725SOL     OW30013   9.575   7.210  13.126
42725SOL    HW130014   9.520   7.183  13.199
42725SOL    HW230015   9.554   7.303  13.113
42726SOL     OW30016   2.738  14.201   0.232
42726SOL    HW130017   2.739  14.105   0.222
42726SOL    HW230018   2.792  14.233   0.160
42727SOL     OW30019   0.309  12.060   9.637
42727SOL    HW130020   0.356  12.126   9.687
42727SOL    HW230021   0.217  12.086   9.642
42728SOL     OW30022  14.565   3.746   0.344
42728SOL    HW130023  14.503   3.708   0.405
42728SOL    HW230024  14.560   3.840   0.359
42729SOL     OW30025  12.988   5.311   7.911
42729SOL    HW130026  12.923   5.253   7.872
42729SOL    HW230027  13.017   5.366   7.838
42730SOL     OW30028   1.264  13.447   4.814
42730SOL    HW130029   1.347  13.400   4.808
42730SOL    HW230030   1.246  13.452   4.908
42731SOL     OW30031   4.548   4.309   6.033
42731SOL    HW130032   4.591   4.393   6.047
42731SOL    HW230033   4.537   4.302   5.938
42732SOL     OW30034   4.830  11.142   1.631
42732SOL    HW130035   4.759  11.087   1.597
42732SOL    HW230036   4.859  11.194   1.556
42733SOL     OW30037  13.019   5.671   8.825
42733SOL    HW130038  13.004   5.589   8.871
42733SOL    HW230039  13.055   5.646   8.740
42734SOL     OW30040   7.275   0.909   3.840
42734SOL    HW130041   7.229   0.989   3.816
42734SOL    HW230042   7.334   0.934   3.910
42735SOL     OW30043   0.500   2.730  10.704
42735SOL    HW130044   0.416   2.769  10.727
42735SOL    HW230045   0.500   2.728  10.608
42736SOL     OW30046  10.774   6.592   4.363
42736SOL    HW130047  10.780   6.497   4.359
42736SOL    HW230048  10.806   6.615   4.451
42737SOL     OW30049  14.491   2.538   5.187
42737SOL    HW130050  14.567   2.486   5.211
42737SOL    HW230051  14.480   2.523   5.093
42738SOL     OW30052   1.728  10.991  14.022
42738SOL    HW130053   1.743  11.015  14.113
42738SOL    HW230054   1.802  11.029  13.975
42739SOL     OW30055  11.199   1.474   7.736
42739SOL    HW130056  11.125   1.412   7.731
42739SOL    HW230057  11.183   1.535   7.664
42740SOL     OW30058  11.908   7.846  10.809
42740SOL    HW130059  11.854   7.838  10.887
42740SOL    HW230060  11.988   7.889  10.839
42741SOL     OW30061   2.782   1.107   3.181
42741SOL    HW130062   2.818   1.023   3.151
42741SOL    HW230063   2.798   1.168   3.109
42742SOL     OW30064   3.562   6.486   8.637
42742SOL    HW130065   3.613   6.568   8.637
42742SOL    HW230066   3.594   6.439   8.560
42743SOL     OW30067  11.683  14.103  14.325
42743SOL    HW130068  11.646  14.127  14.240
42743SOL    HW230069  11.708  14.011  14.315
42744SOL     OW30070  12.575  12.867   5.671
42744SOL    HW130071  12.498  12.919   5.693
42744SOL    HW230072  12.598  12.893   5.582
42745SOL     OW30073   9.757  13.867   8.742
42745SOL    HW130074   9.770  13.800   8.809
42745SOL    HW230075   9.776  13.823   8.659
42746SOL     OW30076  13.412   6.450   1.011
42746SOL    HW130077  13.321   6.465   1.037
42746SOL    HW230078  13.444   6.536   0.983
42747SOL     OW30079   2.020  12.417   3.415
42747SOL    HW130080   2.113  12.398   3.427
42747SOL    HW230081   2.004  12.494   3.470
42748SOL     OW30082   4.492   3.621  13.607
42748SOL    HW130083   4.573   3.580  13.576
42748SOL    HW230084   4.456   3.559  13.671
42749SOL     OW30085   6.017   5.750  13.514
42749SOL    HW130086   6.017   5.831  13.463
42749SOL    HW230087   6.109   5.733  13.531
42750SOL     OW30088   3.899  10.772   7.283
42750SOL    HW130089   3.839  10.722   7.339
42750SOL    HW230090   3.972  10.796   7.340
42751SOL     OW30091   7.323   9.581   0.608
42751SOL    HW130092   7.323   9.585   0.513
42751SOL    HW230093   7.379   9.506   0.629
42752SOL     OW30094  13.024  13.319   6.845
42752SOL    HW130095  12.987  13.259   6.909
42752SOL    HW230096  13.109  13.281   6.821
42753SOL     OW30097   9.980  12.970  11.366
42753SOL    HW130098  10.064  12.925  11.359
42753SOL    HW230099   9.915  12.902  11.346
42754SOL     OW30100   3.959   8.998   6.706
42754SOL    HW130101   3.957   8.903   6.720
42754SOL    HW230102   3.869   9.026   6.722
42755SOL     OW30103  13.601   5.061   1.049
42755SOL    HW130104  13.570   5.075   0.959
42755SOL    HW230105  13.638   5.145   1.075
42756SOL     OW30106   3.704   8.633  10.370
42756SOL    HW130107   3.686   8.539  10.366
42756SOL    HW230108   3.689   8.657  10.462
42757SOL     OW30109   6.019   2.062  10.895
42757SOL    HW130110   6.009   2.068  10.990
42757SOL    HW230111   5.981   2.142  10.861
42758SOL     OW30112   2.786  11.677  12.332
42758SOL    HW130113   2.862  11.679  12.390
42758SOL    HW230114   2.792  11.758  12.281
42759SOL     OW30115   0.274   3.534   8.864
42759SOL    HW130116   0.303   3.606   8.921
42759SOL    HW230117   0.186   3.513   8.896
42760SOL     OW30118   3.152   1.484  10.036
42760SOL    HW130119   3.159   1.444  10.123
42760SOL    HW230120   3.183   1.416   9.976
42761SOL     OW30121  12.098   3.113  12.611
42761SOL    HW130122  12.171   3.052  12.623
42761SOL    HW230123  12.025   3.071  12.656
42762SOL     OW30124  14.338  13.606  13.026
42762SOL    HW130125  14.308  13.593  13.116
42762SOL    HW230126  14.333  13.700  13.012
42763SOL     OW30127   0.280  13.534   3.616
42763SOL    HW130128   0.323  13.466   3.565
42763SOL    HW230129   0.199  13.493   3.647
42764SOL     OW30130   2.504   6.685   0.639
42764SOL    HW130131   2.450   6.696   0.561
42764SOL    HW230132   2.492   6.594   0.664
42765SOL     OW30133   6.950   3.241  12.281
42765SOL    HW130134   6.965   3.330  12.310
42765SOL    HW230135   6.871   3.213  12.328
42766SOL     OW30136   8.260   4.710  14.527
42766SOL    HW130137   8.270   4.720  14.621
42766SOL    HW230138   8.348   4.688  14.495
42767SOL     OW30139   6.409  13.069   1.555
42767SOL    HW130140   6.319  13.040   1.573
42767SOL    HW230141   6.456  13.051   1.637
42768SOL     OW30142   3.595   0.849  14.753
42768SOL    HW130143   3.558   0.899  14.825
42768SOL    HW230144   3.657   0.790  14.796
42769SOL     OW30145   7.214  10.303   5.197
42769SOL    HW130146   7.189  10.238   5.262
42769SOL    HW230147   7.256  10.373   5.248
42770SOL     OW30148  14.041   0.922  11.649
42770SOL    HW130149  14.036   0.978  11.572
42770SOL    HW230150  14.132   0.929  11.678
42771SOL     OW30151   3.194   7.298   0.239
42771SOL    HW130152   3.207   7.299   0.144
42771SOL    HW230153   3.135   7.372   0.255
42772SOL     OW30154   7.327  10.329  13.929
42772SOL    HW130155   7.346  10.276  13.852
42772SOL    HW230156   7.254  10.285  13.972
42773SOL     OW30157  12.843   4.201  14.515
42773SOL    HW130158  12.761   4.157  14.534
42773SOL    HW230159  12.887   4.208  14.600
42774SOL     OW30160   1.130   2.504   6.134
42774SOL    HW130161   1.090   2.444   6.197
42774SOL    HW230162   1.056   2.543   6.088
42775SOL     OW30163   9.822   4.125   2.185
42775SOL    HW130164   9.778   4.177   2.118
42775SOL    HW230165   9.803   4.169   2.267
42776SOL     OW30166   1.670   7.377   0.779
42776SOL    HW130167   1.613   7.449   0.804
42776SOL    HW230168   1.617   7.323   0.721
42777SOL     OW30169  12.579   3.895  13.359
42777SOL    HW130170  12.581   3.867  13.451
42777SOL    HW230171  12.490   3.929  13.347
42778SOL     OW30172   3.072   0.666   5.331
42778SOL    HW130173   3.084   0.644   5.239
42778SOL    HW230174   3.157   0.702   5.359
42779SOL     OW30175   7.025  12.862  10.272
42779SOL    HW130176   7.109  12.835  10.311
42779SOL    HW230177   6.974  12.892  10.347
42780SOL     OW30178  14.215   2.786  12.046
42780SOL    HW130179  14.267   2.762  11.969
42780SOL    HW230180  14.129   2.746  12.030
42781SOL     OW30181   7.829  13.527  12.056
42781SOL    HW130182   7.834  13.609  12.006
42781SOL    HW230183   7.915  13.487  12.045
42782SOL     OW30184   9.421   9.397   7.155
42782SOL    HW130185   9.478   9.414   7.080
42782SOL    HW230186   9.478   9.405   7.231
42783SOL     OW30187   0.084   0.704   8.694
42783SOL    HW130188   0.048   0.792   8.698
42783SOL    HW230189   0.067   0.666   8.780
42784SOL     OW30190  13.824  11.151  12.357
42784SOL    HW130191  13.816  11.241  12.326
42784SOL    HW230192  13.741  11.109  12.332
42785SOL     OW30193   3.188   1.186   2.966
42785SOL    HW130194   3.184   1.173   3.061
42785SOL    HW230195   3.274   1.225   2.951
42786SOL     OW30196   3.877   9.370   3.733
42786SOL    HW130197   3.825   9.420   3.671
42786SOL    HW230198   3.967   9.378   3.702
42787SOL     OW30199   1.055   0.050   5.895
42787SOL    HW130200   1.042  14.855   5.957
42787SOL    HW230201   0.970   0.093   5.889
42788SOL     OW30202  13.985   7.004  10.767
42788SOL    HW130203  13.900   7.045  10.749
42788SOL    HW230204  14.021   6.986  10.680
42789SOL     OW30205  12.309   5.308   6.284
42789SOL    HW130206  12.241   5.289   6.349
42789SOL    HW230207  12.339   5.397   6.306
42790SOL     OW30208  11.804   2.832   8.237
42790SOL    HW130209  11.836   2.921   8.247
42790SOL    HW230210  11.761   2.830   8.152
42791SOL     OW30211   8.181   7.247   9.602
42791SOL    HW130212   8.087   7.231   9.593
42791SOL    HW230213   8.193   7.262   9.696
42792SOL     OW30214   1.456   4.106   3.068
42792SOL    HW130215   1.538   4.077   3.028
42792SOL    HW230216   1.468   4.200   3.084
42793SOL     OW30217   0.948   3.984   8.664
42793SOL    HW130218   0.963   3.890   8.672
42793SOL    HW230219   0.962   4.018   8.753
42794SOL     OW30220  10.977  12.352   5.353
42794SOL    HW130221  11.046  12.294   5.320
42794SOL    HW230222  10.916  12.360   5.280
42795SOL     OW30223   4.685   3.902  14.759
42795SOL    HW130224   4.718   3.992  14.753
42795SOL    HW230225   4.630   3.902  14.837
42796SOL     OW30226   3.638   3.572  12.377
42796SOL    HW130227   3.579   3.575  12.452
42796SOL    HW230228   3.580   3.572  12.301
42797SOL     OW30229   0.816  10.402   7.483
42797SOL    HW130230   0.837  10.343   7.556
42797SOL    HW230231   0.866  10.481   7.501
42798SOL     OW30232   5.862   0.387   4.621
42798SOL    HW130233   5.832   0.383   4.530
42798SOL    HW230234   5.921   0.312   4.630
42799SOL     OW30235   0.974   9.155  11.317
42799SOL    HW130236   1.035   9.132  11.246
42799SOL    HW230237   0.909   9.085  11.317
42800SOL     OW30238   7.864  12.002   6.071
42800SOL    HW130239   7.867  11.909   6.047
42800SOL    HW230240   7.947  12.037   6.039
42801SOL     OW30241   8.091   5.018   5.776
42801SOL    HW130242   8.052   5.085   5.719
42801SOL    HW230243   8.017   4.967   5.807
42802SOL     OW30244   6.572   1.763   0.359
42802SOL    HW130245   6.541   1.678   0.326
42802SOL    HW230246   6.613   1.742   0.443
42803SOL     OW30247   2.091   3.598  13.559
42803SOL    HW130248   2.157   3.585  13.627
42803SOL    HW230249   2.016   3.547  13.589
42804SOL     OW30250  11.457   3.109   5.767
42804SOL    HW130251  11.432   3.200   5.779
42804SOL    HW230252  11.546   3.103   5.800
42805SOL     OW30253   0.323   6.016   0.437
42805SOL    HW130254   0.399   5.982   0.391
42805SOL    HW230255   0.339   5.995   0.529
42806SOL     OW30256   9.674   3.735   4.402
42806SOL    HW130257   9.750   3.793   4.417
42806SOL    HW230258   9.645   3.712   4.490
42807SOL     OW30259   3.255   1.378  11.532
42807SOL    HW130260   3.190   1.352  11.598
42807SOL    HW230261   3.215   1.354  11.449
42808SOL     OW30262   1.167   2.966  10.336
42808SOL    HW130263   1.197   3.007  10.416
42808SOL    HW230264   1.167   3.036  10.270
42809SOL     OW30265   7.793   3.082   0.382
42809SOL    HW130266   7.836   3.074   0.297
42809SOL    HW230267   7.862   3.114   0.440
42810SOL     OW30268  13.071   1.265  12.689
42810SOL    HW130269  13.011   1.220  12.629
42810SOL    HW230270  13.017   1.288  12.764
42811SOL     OW30271   8.575  14.565   4.175
42811SOL    HW130272   8.545  14.550   4.265
42811SOL    HW230273   8.495  14.562   4.123
42812SOL     OW30274  10.443   1.779   6.546
42812SOL    HW130275  10.381   1.773   6.474
42812SOL    HW230276  10.391   1.763   6.625
42813SOL     OW30277   1.592   1.271   5.871
42813SOL    HW130278   1.597   1.208   5.943
42813SOL    HW230279   1.684   1.294   5.853
42814SOL     OW30280  13.726  14.512   4.214
42814SOL    HW130281  13.804  14.489   4.265
42814SOL    HW230282  13.662  14.539   4.280
42815SOL     OW30283   3.553   2.280   7.620
42815SOL    HW130284   3.587   2.230   7.546
42815SOL    HW230285   3.504   2.351   7.580
42816SOL     OW30286   9.520  13.232   5.690
42816SOL    HW130287   9.429  13.222   5.720
42816SOL    HW230288   9.513  13.291   5.615
42817SOL     OW30289  13.219  13.999  11.719
42817SOL    HW130290  13.180  14.023  11.635
42817SOL    HW230291  13.284  14.067  11.735
42818SOL     OW30292  13.293   5.015  11.921
42818SOL    HW130293  13.288   5.037  11.828
42818SOL    HW230294  13.374   5.057  11.951
42819SOL     OW30295  11.668  14.779  12.144
42819SOL    HW130296  11.716  14.807  12.222
42819SOL    HW230297  11.702  14.835  12.074
42820SOL     OW30298  13.016  11.305   6.015
42820SOL    HW130299  12.940  11.257   5.981
42820SOL    HW230300  12.980  11.366   6.079
42821SOL     OW30301   5.961  14.093  11.462
42821SOL    HW130302   5.900  14.098  11.536
42821SOL    HW230303   6.001  14.007  11.470
42822SOL     OW30304   5.835   2.378   7.421
42822SOL    HW130305   5.754   2.339   7.452
42822SOL    HW230306   5.826   2.471   7.441
42823SOL     OW30307   6.043   0.364  12.136
42823SOL    HW130308   6.104   0.433  12.111
42823SOL    HW230309   5.965   0.410  12.165
42824SOL     OW30310  14.243   2.435  14.728
42824SOL    HW130311  14.244   2.428  14.823
42824SOL    HW230312  14.311   2.500  14.708
42825SOL     OW30313  13.883   3.879   0.427
42825SOL    HW130314  13.837   3.819   0.484
42825SOL    HW230315  13.816   3.912   0.367
42826SOL     OW30316   8.483   4.638   6.371
42826SOL    HW130317   8.562   4.656   6.421
42826SOL    HW230318   8.497   4.680   6.287
42827SOL     OW30319  14.066   1.171   1.787
42827SOL    HW130320  14.055   1.079   1.763
42827SOL    HW230321  14.003   1.218   1.732
42828SOL     OW30322   1.809   9.476   9.966
42828SOL    HW130323   1.783   9.440   9.881
42828SOL    HW230324   1.730   9.520   9.999
42829SOL     OW30325   2.086  10.312  10.307
42829SOL    HW130326   2.048  10.224  10.306
42829SOL    HW230327   2.132  10.319  10.223
42830SOL     OW30328   7.038  13.743  12.100
42830SOL    HW130329   7.101  13.685  12.058
42830SOL    HW230330   7.040  13.823  12.047
42831SOL     OW30331   4.416  12.805   4.641
42831SOL    HW130332   4.478  12.783   4.572
42831SOL    HW230333   4.372  12.883   4.609
42832SOL     OW30334   4.285   8.542   0.350
42832SOL    HW130335   4.268   8.632   0.378
42832SOL    HW230336   4.284   8.546   0.254
42833SOL     OW30337   3.411  14.864  12.072
42833SOL    HW130338   3.412   0.081  12.054
42833SOL    HW230339   3.392  14.857  12.166
42834SOL     OW30340   9.791   5.734   3.747
42834SOL    HW130341   9.857   5.748   3.680
42834SOL    HW230342   9.743   5.657   3.719
42835SOL     OW30343   0.610   9.248  14.113
42835SOL    HW130344   0.617   9.327  14.058
42835SOL    HW230345   0.700   9.225  14.134
42836SOL     OW30346   4.880   9.621   3.233
42836SOL    HW130347   4.916   9.697   3.278
42836SOL    HW230348   4.947   9.597   3.170
42837SOL     OW30349   1.830   9.578  14.526
42837SOL    HW130350   1.889   9.567  14.451
42837SOL    HW230351   1.747   9.606  14.488
42838SOL     OW30352   7.141   6.029  10.547
42838SOL    HW130353   7.207   6.098  10.559
42838SOL    HW230354   7.144   6.010  10.453
42839SOL     OW30355   9.318   5.684   5.211
42839SOL    HW130356   9.382   5.703   5.279
42839SOL    HW230357   9.272   5.606   5.243
42840SOL     OW30358  13.844   3.901   5.168
42840SOL    HW130359  13.765   3.851   5.149
42840SOL    HW230360  13.892   3.847   5.230
42841SOL     OW30361   2.951  12.984   6.377
42841SOL    HW130362   2.921  12.957   6.290
42841SOL    HW230363   2.970  12.902   6.423
42842SOL     OW30364   1.038   6.922  14.872
42842SOL    HW130365   0.965   6.895  14.817
42842SOL    HW230366   1.053   6.848   0.054
42843SOL     OW30367   0.373   8.538   6.343
42843SOL    HW130368   0.319   8.602   6.388
42843SOL    HW230369   0.312   8.489   6.288
42844SOL     OW30370  11.455   9.537  13.080
42844SOL    HW130371  11.410   9.619  13.060
42844SOL    HW230372  11.538   9.563  13.120
42845SOL     OW30373   9.671   8.689  14.823
42845SOL    HW130374   9.745   8.690  14.762
42845SOL    HW230375   9.688   8.761   0.006
42846SOL     OW30376   7.986  14.376   4.560
42846SOL    HW130377   8.041  14.410   4.629
42846SOL    HW230378   8.047  14.344   4.494
42847SOL     OW30379   3.931   1.225   7.535
42847SOL    HW130380   3.918   1.197   7.444
42847SOL    HW230381   3.990   1.160   7.572
42848SOL     OW30382   5.880   7.753  10.867
42848SOL    HW130383   5.789   7.728  10.849
42848SOL    HW230384   5.890   7.737  10.961
42849SOL     OW30385   0.494  12.236   5.325
42849SOL    HW130386   0.527  12.259   5.412
42849SOL    HW230387   0.564  12.262   5.265
42850SOL     OW30388  13.591   6.895  14.568
42850SOL    HW130389  13.668   6.885  14.513
42850SOL    HW230390  13.527   6.941  14.513
42851SOL     OW30391  10.015  10.205  14.862
42851SOL    HW130392  10.015  10.154   0.067
42851SOL    HW230393  10.033  10.295   0.014
42852SOL     OW30394  10.940   0.378   5.246
42852SOL    HW130395  10.952   0.369   5.152
42852SOL    HW230396  10.866   0.438   5.256
42853SOL     OW30397   3.323   8.039   7.688
42853SOL    HW130398   3.329   8.038   7.592
42853SOL    HW230399   3.343   7.950   7.715
42854SOL     OW30400  12.659  12.515   0.018
42854SOL    HW130401  12.610  12.594  14.871
42854SOL    HW230402  12.678  12.474  14.810
42855SOL     OW30403  13.806  10.900   1.043
42855SOL    HW130404  13.788  10.834   0.977
42855SOL    HW230405  13.894  10.932   1.023
42856SOL     OW30406  14.268  10.831  14.742
42856SOL    HW130407  14.212  10.902  14.773
42856SOL    HW230408  14.322  10.809  14.818
42857SOL     OW30409   9.871   7.411   4.606
42857SOL    HW130410   9.885   7.317   4.593
42857SOL    HW230411   9.784   7.427   4.570
42858SOL     OW30412   2.168  10.455   0.564
42858SOL    HW130413   2.214  10.537   0.580
42858SOL    HW230414   2.082  10.468   0.605
42859SOL     OW30415  11.753   4.785   6.755
42859SOL    HW130416  11.699   4.847   6.805
42859SOL    HW230417  11.743   4.812   6.664
42860SOL     OW30418  12.851   3.357   8.691
42860SOL    HW130419  12.914   3.290   8.668
42860SOL    HW230420  12.795   3.365   8.614
42861SOL     OW30421  10.496   1.550  11.030
42861SOL    HW130422  10.490   1.502  10.947
42861SOL    HW230423  10.589   1.571  11.039
42862SOL     OW30424   0.694   7.694   4.709
42862SOL    HW130425   0.753   7.621   4.690
42862SOL    HW230426   0.697   7.747   4.629
42863SOL     OW30427  14.772   5.011   7.694
42863SOL    HW130428  14.679   5.019   7.714
42863SOL    HW230429  14.817   5.047   7.771
42864SOL     OW30430  10.300   8.866   5.859
42864SOL    HW130431  10.228   8.861   5.921
42864SOL    HW230432  10.379   8.860   5.914
42865SOL     OW30433  11.237  10.754   5.505
42865SOL    HW130434  11.205  10.694   5.572
42865SOL    HW230435  11.319  10.789   5.540
42866SOL     OW30436  12.731   8.273   5.165
42866SOL    HW130437  12.791   8.319   5.223
42866SOL    HW230438  12.686   8.342   5.117
42867SOL     OW30439  14.355   6.733   5.527
42867SOL    HW130440  14.425   6.716   5.465
42867SOL    HW230441  14.379   6.816   5.568
42868SOL     OW30442  14.633   9.373   7.334
42868SOL    HW130443  14.563   9.325   7.378
42868SOL    HW230444  14.598   9.391   7.247
42869SOL     OW30445  12.075   8.935   1.168
42869SOL    HW130446  12.089   9.026   1.195
42869SOL    HW230447  12.162   8.896   1.168
42870SOL     OW30448   5.011   9.324   1.612
42870SOL    HW130449   4.969   9.353   1.693
42870SOL    HW230450   5.040   9.235   1.631
42871SOL     OW30451  10.516   9.416   6.489
42871SOL    HW130452  10.508   9.324   6.465
42871SOL    HW230453  10.425   9.446   6.500
42872SOL     OW30454   3.679  11.751   9.926
42872SOL    HW130455   3.689  11.822   9.988
42872SOL    HW230456   3.584  11.742   9.915
42873SOL     OW30457   6.476   2.228   5.883
42873SOL    HW130458   6.551   2.173   5.905
42873SOL    HW230459   6.514   2.304   5.840
42874SOL     OW30460   1.217   0.938   5.174
42874SOL    HW130461   1.281   0.896   5.116
42874SOL    HW230462   1.176   0.866   5.221
42875SOL     OW30463  12.396  11.959   3.253
42875SOL    HW130464  12.323  11.902   3.231
42875SOL    HW230465  12.410  11.945   3.346
42876SOL     OW30466  13.680   9.703  10.393
42876SOL    HW130467  13.674   9.746  10.307
42876SOL    HW230468  13.771   9.673  10.398
42877SOL     OW30469  11.248   9.576   8.335
42877SOL    HW130470  11.230   9.484   8.315
42877SOL    HW230471  11.162   9.614   8.354
42878SOL     OW30472   8.758   5.200  13.512
42878SOL    HW130473   8.814   5.130  13.481
42878SOL    HW230474   8.672   5.180  13.476
42879SOL     OW30475   0.727  10.568  12.855
42879SOL    HW130476   0.691  10.486  12.820
42879SOL    HW230477   0.722  10.556  12.950
42880SOL     OW30478   5.247   5.456  11.631
42880SOL    HW130479   5.326   5.510  11.640
42880SOL    HW230480   5.270   5.391  11.564
42881SOL     OW30481   5.499  11.208  14.589
42881SOL    HW130482   5.421  11.158  14.615
42881SOL    HW230483   5.486  11.295  14.627
42882SOL     OW30484   4.995   3.722   5.188
42882SOL    HW130485   4.997   3.673   5.106
42882SOL    HW230486   4.903   3.724   5.214
42883SOL     OW30487  10.099  11.582  13.513
42883SOL    HW130488  10.056  11.648  13.568
42883SOL    HW230489  10.039  11.568  13.440
42884SOL     OW30490  13.912   6.028  10.613
42884SOL    HW130491  14.004   6.006  10.625
42884SOL    HW230492  13.864   5.958  10.658
42885SOL     OW30493   4.790  10.695   2.914
42885SOL    HW130494   4.698  10.719   2.910
42885SOL    HW230495   4.795  10.611   2.867
42886SOL     OW30496   5.432  14.106   1.430
42886SOL    HW130497   5.487  14.181   1.452
42886SOL    HW230498   5.493  14.037   1.403
42887SOL     OW30499  11.857   4.906   8.504
42887SOL    HW130500  11.766   4.930   8.519
42887SOL    HW230501  11.856   4.855   8.423
42888SOL     OW30502  12.517   5.796  11.549
42888SOL    HW130503  12.568   5.864  11.505
42888SOL    HW230504  12.512   5.724  11.486
42889SOL     OW30505   4.192   6.479  10.221
42889SOL    HW130506   4.178   6.574  10.214
42889SOL    HW230507   4.258   6.460  10.155
42890SOL     OW30508   4.263   9.046   7.056
42890SOL    HW130509   4.333   9.104   7.025
42890SOL    HW230510   4.309   8.978   7.107
42891SOL     OW30511   8.736  11.178  14.213
42891SOL    HW130512   8.709  11.235  14.285
42891SOL    HW230513   8.762  11.096  14.254
42892SOL     OW30514   4.360   4.826   2.197
42892SOL    HW130515   4.412   4.862   2.269
42892SOL    HW230516   4.419   4.768   2.151
42893SOL     OW30517  13.818   4.433   0.119
42893SOL    HW130518  13.872   4.507   0.147
42893SOL    HW230519  13.731   4.452   0.156
42894SOL     OW30520  13.641   1.928   7.118
42894SOL    HW130521  13.641   1.865   7.046
42894SOL    HW230522  13.617   2.011   7.077
42895SOL     OW30523  14.325   5.709   7.837
42895SOL    HW130524  14.233   5.733   7.845
42895SOL    HW230525  14.328   5.617   7.863
42896SOL     OW30526   9.327   1.612   9.249
42896SOL    HW130527   9.273   1.533   9.242
42896SOL    HW230528   9.266   1.679   9.280
42897SOL     OW30529  10.933   1.679   2.413
42897SOL    HW130530  10.954   1.603   2.467
42897SOL    HW230531  10.892   1.643   2.335
42898SOL     OW30532   3.409   5.270  13.980
42898SOL    HW130533   3.433   5.296  13.891
42898SOL    HW230534   3.313   5.270  13.979
42899SOL     OW30535  10.551   2.612  11.889
42899SOL    HW130536  10.538   2.531  11.938
42899SOL    HW230537  10.637   2.643  11.917
42900SOL     OW30538   8.008   2.630   7.555
42900SOL    HW130539   7.971   2.552   7.596
42900SOL    HW230540   8.101   2.612   7.548
42901SOL     OW30541   3.879   3.125  11.604
42901SOL    HW130542   3.971   3.103  11.618
42901SOL    HW230543   3.831   3.065  11.661
42902SOL     OW30544   3.921  13.866   0.578
42902SOL    HW130545   3.972  13.792   0.612
42902SOL    HW230546   3.934  13.862   0.483
42903SOL     OW30547   7.219   0.916   2.418
42903SOL    HW130548   7.146   0.864   2.386
42903SOL    HW230549   7.201   0.929   2.511
42904SOL     OW30550  13.660   6.642  10.437
42904SOL    HW130551  13.568   6.617  10.433
42904SOL    HW230552  13.694   6.597  10.515
42905SOL     OW30553   0.448   0.234   0.657
42905SOL    HW130554   0.390   0.237   0.733
42905SOL    HW230555   0.532   0.269   0.689
42906SOL     OW30556  14.691   3.972   3.586
42906SOL    HW130557  14.726   3.970   3.497
42906SOL    HW230558  14.622   4.037   3.584
42907SOL     OW30559   4.207   7.803   7.808
42907SOL    HW130560   4.249   7.721   7.781
42907SOL    HW230561   4.271   7.846   7.864
42908SOL     OW30562   5.940   7.679   4.606
42908SOL    HW130563   5.897   7.604   4.647
42908SOL    HW230564   5.869   7.730   4.566
42909SOL     OW30565  14.863   9.718   9.594
42909SOL    HW130566  14.858   9.639   9.649
42909SOL    HW230567  14.867   9.790   9.656
42910SOL     OW30568   3.239   9.233   1.633
42910SOL    HW130569   3.267   9.190   1.714
42910SOL    HW230570   3.170   9.177   1.599
42911SOL     OW30571   8.246   5.214   1.605
42911SOL    HW130572   8.163   5.215   1.652
42911SOL    HW230573   8.300   5.150   1.652
42912SOL     OW30574  10.508   8.296   3.244
42912SOL    HW130575  10.424   8.328   3.211
42912SOL    HW230576  10.528   8.353   3.319
42913SOL     OW30577   6.461   8.068   6.458
42913SOL    HW130578   6.375   8.061   6.414
42913SOL    HW230579   6.485   8.160   6.446
42914SOL     OW30580   2.457   8.118  10.937
42914SOL    HW130581   2.445   8.197  10.885
42914SOL    HW230582   2.502   8.057  10.878
42915SOL     OW30583   5.847   8.511   0.409
42915SOL    HW130584   5.780   8.450   0.439
42915SOL    HW230585   5.815   8.597   0.435
42916SOL     OW30586   4.941   6.531   1.362
42916SOL    HW130587   4.852   6.511   1.391
42916SOL    HW230588   4.978   6.585   1.431
42917SOL     OW30589   8.832   5.089   7.821
42917SOL    HW130590   8.761   5.073   7.758
42917SOL    HW230591   8.794   5.067   7.906
42918SOL     OW30592  12.594   3.619  10.266
42918SOL    HW130593  12.504   3.621  10.298
42918SOL    HW230594  12.587   3.636  10.173
42919SOL     OW30595   4.085  12.778   3.274
42919SOL    HW130596   4.165  12.811   3.315
42919SOL    HW230597   4.087  12.813   3.185
42920SOL     OW30598  13.356   3.601  14.433
42920SOL    HW130599  13.376   3.604  14.339
42920SOL    HW230600  13.309   3.518  14.445
42921SOL     OW30601   6.408  12.891   8.342
42921SOL    HW130602   6.412  12.961   8.276
42921SOL    HW230603   6.466  12.823   8.308
42922SOL     OW30604  11.047   7.084  12.651
42922SOL    HW130605  10.982   7.014  12.657
42922SOL    HW230606  11.124   7.042  12.612
42923SOL     OW30607  14.621   4.363   8.245
42923SOL    HW130608  14.526   4.370   8.239
42923SOL    HW230609  14.646   4.431   8.307
42924SOL     OW30610   2.617   0.783   5.256
42924SOL    HW130611   2.636   0.698   5.218
42924SOL    HW230612   2.698   0.810   5.299
42925SOL     OW30613   8.150   7.512  11.250
42925SOL    HW130614   8.094   7.440  11.220
42925SOL    HW230615   8.142   7.579  11.181
42926SOL     OW30616   0.118   8.802   4.230
42926SOL    HW130617   0.178   8.799   4.305
42926SOL    HW230618   0.156   8.867   4.171
42927SOL     OW30619   2.797   7.002  11.497
42927SOL    HW130620   2.773   6.918  11.536
42927SOL    HW230621   2.831   7.053  11.570
42928SOL     OW30622  10.904   7.307  10.959
42928SOL    HW130623  10.878   7.258  10.881
42928SOL    HW230624  10.824   7.353  10.986
42929SOL     OW30625  14.076   4.453   5.026
42929SOL    HW130626  14.000   4.397   5.015
42929SOL    HW230627  14.040   4.541   5.037
42930SOL     OW30628   0.848   7.589   9.594
42930SOL    HW130629   0.915   7.530   9.627
42930SOL    HW230630   0.887   7.628   9.516
42931SOL     OW30631  12.180  13.930  14.019
42931SOL    HW130632  12.240  13.998  13.990
42931SOL    HW230633  12.206  13.852  13.971
42932SOL     OW30634  10.571  10.680   7.256
42932SOL    HW130635  10.656  10.713   7.226
42932SOL    HW230636  10.520  10.759   7.275
42933SOL     OW30637   5.818   4.574  13.480
42933SOL    HW130638   5.836   4.537  13.394
42933SOL    HW230639   5.875   4.525  13.540
42934SOL     OW30640  14.750   6.568   5.848
42934SOL    HW130641  14.824   6.564   5.787
42934SOL    HW230642  14.748   6.660   5.876
42935SOL     OW30643  10.012  12.621   4.065
42935SOL    HW130644  10.104  12.648   4.070
42935SOL    HW230645  10.007  12.539   4.114
42936SOL     OW30646   4.838   7.594   5.133
42936SOL    HW130647   4.894   7.641   5.195
42936SOL    HW230648   4.842   7.503   5.161
42937SOL     OW30649  14.303   3.845  10.207
42937SOL    HW130650  14.222   3.802  10.232
42937SOL    HW230651  14.332   3.798  10.128
42938SOL     OW30652   0.354  12.934  10.316
42938SOL    HW130653   0.331  12.962  10.405
42938SOL    HW230654   0.435  12.981  10.297
42939SOL     OW30655   1.710  14.141  14.158
42939SOL    HW130656   1.633  14.096  14.192
42939SOL    HW230657   1.677  14.193  14.084
42940SOL     OW30658  13.483   8.917   3.833
42940SOL    HW130659  13.414   8.851   3.829
42940SOL    HW230660  13.561   8.868   3.861
42941SOL     OW30661   3.682   7.734   9.369
42941SOL    HW130662   3.654   7.649   9.403
42941SOL    HW230663   3.777   7.732   9.376
42942SOL     OW30664   8.812   9.424   8.925
42942SOL    HW130665   8.774   9.422   8.837
42942SOL    HW230666   8.855   9.339   8.935
42943SOL     OW30667   2.527   3.389   2.988
42943SOL    HW130668   2.572   3.317   3.032
42943SOL    HW230669   2.441   3.393   3.030
42944SOL     OW30670   7.775   6.937   9.662
42944SOL    HW130671   7.815   7.010   9.710
42944SOL    HW230672   7.712   6.979   9.604
42945SOL     OW30673   9.860   6.114   2.007
42945SOL    HW130674   9.850   6.029   1.965
42945SOL    HW230675   9.805   6.109   2.085
42946SOL     OW30676  14.241   7.037   9.181
42946SOL    HW130677  14.165   7.038   9.123
42946SOL    HW230678  14.274   7.127   9.180
42947SOL     OW30679   4.471  14.703   8.983
42947SOL    HW130680   4.413  14.766   9.027
42947SOL    HW230681   4.420  14.671   8.909
42948SOL     OW30682   5.558  12.867   2.356
42948SOL    HW130683   5.524  12.949   2.318
42948SOL    HW230684   5.531  12.870   2.447
42949SOL     OW30685  13.206   1.505  12.720
42949SOL    HW130686  13.163   1.436  12.669
42949SOL    HW230687  13.159   1.585  12.696
42950SOL     OW30688   5.626  11.761   6.190
42950SOL    HW130689   5.639  11.703   6.265
42950SOL    HW230690   5.544  11.731   6.151
42951SOL     OW30691   0.727   1.359  12.867
42951SOL    HW130692   0.742   1.360  12.772
42951SOL    HW230693   0.810   1.388  12.904
42952SOL     OW30694   2.139   0.557  13.226
42952SOL    HW130695   2.122   0.479  13.279
42952SOL    HW230696   2.066   0.617  13.247
42953SOL     OW30697   2.399   9.752  13.003
42953SOL    HW130698   2.409   9.802  13.084
42953SOL    HW230699   2.440   9.807  12.936
42954SOL     OW30700  11.011   5.236   8.116
42954SOL    HW130701  10.942   5.211   8.054
42954SOL    HW230702  11.077   5.168   8.106
42955SOL     OW30703  12.491  12.593   7.769
42955SOL    HW130704  12.420  12.590   7.705
42955SOL    HW230705  12.563  12.637   7.724
42956SOL     OW30706   0.614   6.370   8.728
42956SOL    HW130707   0.552   6.297   8.721
42956SOL    HW230708   0.691   6.332   8.771
42957SOL     OW30709   0.332   8.103   2.500
42957SOL    HW130710   0.397   8.077   2.566
42957SOL    HW230711   0.324   8.026   2.443
42958SOL     OW30712   2.603  11.923   0.075
42958SOL    HW130713   2.575  11.998   0.127
42958SOL    HW230714   2.561  11.847   0.117
42959SOL     OW30715  11.756   2.257   8.376
42959SOL    HW130716  11.812   2.303   8.439
42959SOL    HW230717  11.769   2.304   8.294
42960SOL     OW30718   7.578   8.135  12.080
42960SOL    HW130719   7.619   8.133  12.167
42960SOL    HW230720   7.585   8.226  12.052
42961SOL     OW30721  11.227  11.299  11.742
42961SOL    HW130722  11.151  11.252  11.707
42961SOL    HW230723  11.208  11.307  11.836
42962SOL     OW30724   7.945   6.028   2.361
42962SOL    HW130725   8.028   6.053   2.402
42962SOL    HW230726   7.879   6.080   2.407
42963SOL     OW30727   7.623  12.690   6.901
42963SOL    HW130728   7.705  12.646   6.922
42963SOL    HW230729   7.591  12.724   6.984
42964SOL     OW30730   0.739   2.380   2.380
42964SOL    HW130731   0.687   2.424   2.448
42964SOL    HW230732   0.778   2.450   2.329
42965SOL     OW30733   9.882  13.230   6.152
42965SOL    HW130734   9.927  13.150   6.177
42965SOL    HW230735   9.849  13.213   6.063
42966SOL     OW30736   2.647   6.827  13.984
42966SOL    HW130737   2.551   6.827  13.975
42966SOL    HW230738   2.677   6.890  13.919
42967SOL     OW30739  11.861  13.581   0.527
42967SOL    HW130740  11.892  13.658   0.479
42967SOL    HW230741  11.766  13.581   0.513
42968SOL     OW30742  13.228  11.155   7.455
42968SOL    HW130743  13.284  11.201   7.517
42968SOL    HW230744  13.225  11.212   7.378
42969SOL     OW30745   5.319   5.650   5.959
42969SOL    HW130746   5.411   5.634   5.979
42969SOL    HW230747   5.309   5.623   5.868
42970SOL     OW30748   6.556   9.596   1.273
42970SOL    HW130749   6.514   9.561   1.351
42970SOL    HW230750   6.487   9.648   1.230
42971SOL     OW30751  12.193   4.171   7.920
42971SOL    HW130752  12.211   4.238   7.855
42971SOL    HW230753  12.138   4.107   7.875
42972SOL     OW30754  14.528   9.800   4.725
42972SOL    HW130755  14.560   9.858   4.794
42972SOL    HW230756  14.498   9.859   4.656
42973SOL     OW30757   7.914   1.605   2.466
42973SOL    HW130758   7.918   1.510   2.467
42973SOL    HW230759   7.834   1.627   2.514
42974SOL     OW30760   8.633   7.363   0.333
42974SOL    HW130761   8.541   7.381   0.352
42974SOL    HW230762   8.670   7.449   0.313
42975SOL     OW30763   8.414   1.847   5.279
42975SOL    HW130764   8.320   1.832   5.270
42975SOL    HW230765   8.421   1.939   5.305
42976SOL     OW30766   0.366   0.890  14.427
42976SOL    HW130767   0.335   0.835  14.498
42976SOL    HW230768   0.392   0.829  14.358
42977SOL     OW30769  14.567   6.554   3.185
42977SOL    HW130770  14.479   6.533   3.214
42977SOL    HW230771  14.569   6.649   3.179
42978SOL     OW30772   7.737   2.609   1.928
42978SOL    HW130773   7.808   2.623   1.865
42978SOL    HW230774   7.779   2.618   2.014
42979SOL     OW30775   3.796   3.345   4.989
42979SOL    HW130776   3.785   3.440   4.984
42979SOL    HW230777   3.708   3.311   4.999
42980SOL     OW30778   8.548   7.965   1.988
42980SOL    HW130779   8.633   7.964   1.945
42980SOL    HW230780   8.485   7.951   1.918
42981SOL     OW30781   4.569  12.178   5.830
42981SOL    HW130782   4.533  12.248   5.884
42981SOL    HW230783   4.632  12.133   5.887
42982SOL     OW30784   4.000   3.092   2.172
42982SOL    HW130785   4.016   3.172   2.121
42982SOL    HW230786   3.960   3.122   2.253
42983SOL     OW30787   7.049   3.265   1.545
42983SOL    HW130788   6.993   3.285   1.620
42983SOL    HW230789   7.044   3.170   1.535
42984SOL     OW30790   5.251   2.352   8.412
42984SOL    HW130791   5.277   2.358   8.320
42984SOL    HW230792   5.161   2.385   8.414
42985SOL     OW30793  10.792   3.262  10.075
42985SOL    HW130794  10.711   3.262  10.126
42985SOL    HW230795  10.855   3.214  10.129
42986SOL     OW30796  13.649   2.522  11.489
42986SOL    HW130797  13.600   2.604  11.488
42986SOL    HW230798  13.729   2.543  11.538
42987SOL     OW30799  14.727   7.837  10.830
42987SOL    HW130800  14.702   7.817  10.740
42987SOL    HW230801  14.652   7.808  10.882
42988SOL     OW30802  13.899  10.009   0.790
42988SOL    HW130803  13.966   9.961   0.742
42988SOL    HW230804  13.818   9.961   0.772
42989SOL     OW30805   7.952  13.143   8.426
42989SOL    HW130806   7.942  13.097   8.343
42989SOL    HW230807   7.869  13.189   8.438
42990SOL     OW30808   7.401   8.293   5.419
42990SOL    HW130809   7.420   8.209   5.461
42990SOL    HW230810   7.412   8.358   5.489
42991SOL     OW30811  12.833   8.404  12.437
42991SOL    HW130812  12.767   8.443  12.380
42991SOL    HW230813  12.912   8.455  12.420
42992SOL     OW30814  13.099   6.204   1.185
42992SOL    HW130815  13.053   6.189   1.268
42992SOL    HW230816  13.065   6.137   1.126
42993SOL     OW30817  14.190   7.414   7.773
42993SOL    HW130818  14.112   7.367   7.803
42993SOL    HW230819  14.220   7.364   7.697
42994SOL     OW30820   9.171   7.299  12.346
42994SOL    HW130821   9.251   7.350  12.360
42994SOL    HW230822   9.101   7.364  12.349
42995SOL     OW30823  11.754  12.111   5.072
42995SOL    HW130824  11.788  12.055   5.141
42995SOL    HW230825  11.830  12.160   5.040
42996SOL     OW30826   8.440   0.842  11.048
42996SOL    HW130827   8.391   0.761  11.036
42996SOL    HW230828   8.529   0.814  11.071
42997SOL     OW30829   8.902  12.397   1.459
42997SOL    HW130830   8.970  12.401   1.526
42997SOL    HW230831   8.940  12.441   1.383
42998SOL     OW30832  11.837   9.019   0.661
42998SOL    HW130833  11.931   9.018   0.645
42998SOL    HW230834  11.808   8.932   0.636
42999SOL     OW30835   7.968  10.292  12.673
42999SOL    HW130836   8.023  10.251  12.606
42999SOL    HW230837   8.003  10.262  12.756
43000SOL     OW30838  11.179  10.547  12.497
43000SOL    HW130839  11.207  10.627  12.453
43000SOL    HW230840  11.085  10.557  12.509
43001SOL     OW30841   3.120   6.957   1.100
43001SOL    HW130842   3.093   7.030   1.156
43001SOL    HW230843   3.059   6.886   1.122
43002SOL     OW30844  11.484   3.537  11.209
43002SOL    HW130845  11.426   3.586  11.152
43002SOL    HW230846  11.508   3.600  11.278
43003SOL     OW30847   7.811  13.670   2.382
43003SOL    HW130848   7.756  13.743   2.408
43003SOL    HW230849   7.774  13.594   2.428
43004SOL     OW30850  13.284   0.759   1.289
43004SOL    HW130851  13.224   0.734   1.219
43004SOL    HW230852  13.291   0.854   1.283
43005SOL     OW30853   7.261   0.910   8.975
43005SOL    HW130854   7.227   0.955   9.052
43005SOL    HW230855   7.238   0.967   8.902
43006SOL     OW30856   4.874   7.059  11.296
43006SOL    HW130857   4.917   7.020  11.372
43006SOL    HW230858   4.864   6.986  11.234
43007SOL     OW30859   8.824   7.766   0.931
43007SOL    HW130860   8.919   7.756   0.941
43007SOL    HW230861   8.806   7.855   0.959
43008SOL     OW30862   0.777   7.757   3.891
43008SOL    HW130863   0.730   7.695   3.947
43008SOL    HW230864   0.830   7.809   3.951
43009SOL     OW30865   5.629   6.556  14.160
43009SOL    HW130866   5.681   6.535  14.237
43009SOL    HW230867   5.539   6.541  14.188
43010SOL     OW30868   0.307   8.793   5.204
43010SOL    HW130869   0.287   8.723   5.142
43010SOL    HW230870   0.390   8.766   5.245
43011SOL     OW30871  11.024   7.766  10.569
43011SOL    HW130872  11.071   7.749  10.487
43011SOL    HW230873  11.035   7.860  10.583
43012SOL     OW30874  11.049  14.094   6.529
43012SOL    HW130875  11.076  14.055   6.612
43012SOL    HW230876  10.960  14.060   6.515
43013SOL     OW30877   4.146   6.296  11.567
43013SOL    HW130878   4.051   6.306  11.569
43013SOL    HW230879   4.179   6.385  11.569
43014SOL     OW30880   9.236  11.978  14.403
43014SOL    HW130881   9.217  11.933  14.485
43014SOL    HW230882   9.330  11.996  14.406
43015SOL     OW30883  11.559  10.734   1.781
43015SOL    HW130884  11.586  10.753   1.871
43015SOL    HW230885  11.634  10.691   1.742
43016SOL     OW30886   8.252   2.511   7.396
43016SOL    HW130887   8.290   2.581   7.450
43016SOL    HW230888   8.289   2.430   7.432
43017SOL     OW30889   1.014  14.837   2.618
43017SOL    HW130890   0.929  14.868   2.586
43017SOL    HW230891   1.068   0.039   2.623
43018SOL     OW30892   8.624  14.374  11.981
43018SOL    HW130893   8.584  14.319  12.049
43018SOL    HW230894   8.551  14.403  11.927
43019SOL     OW30895   5.769   8.789   3.120
43019SOL    HW130896   5.748   8.829   3.204
43019SOL    HW230897   5.861   8.812   3.105
43020SOL     OW30898   7.639  12.624   2.573
43020SOL    HW130899   7.545  12.612   2.559
43020SOL    HW230900   7.670  12.668   2.494
43021SOL     OW30901   0.429  14.480   0.959
43021SOL    HW130902   0.508  14.533   0.942
43021SOL    HW230903   0.375  14.491   0.881
43022SOL     OW30904   1.772   4.299   2.527
43022SOL    HW130905   1.727   4.335   2.450
43022SOL    HW230906   1.703   4.291   2.593
43023SOL     OW30907   9.355   9.378   6.854
43023SOL    HW130908   9.321   9.337   6.934
43023SOL    HW230909   9.348   9.310   6.787
43024SOL     OW30910   7.506   4.875  12.213
43024SOL    HW130911   7.490   4.913  12.299
43024SOL    HW230912   7.526   4.950  12.156
43025SOL     OW30913  13.968   0.706   7.575
43025SOL    HW130914  14.053   0.750   7.566
43025SOL    HW230915  13.905   0.778   7.582
43026SOL     OW30916   0.521  12.017   1.905
43026SOL    HW130917   0.598  12.073   1.914
43026SOL    HW230918   0.449  12.078   1.890
43027SOL     OW30919   6.951  13.533  14.006
43027SOL    HW130920   6.901  13.483  14.070
43027SOL    HW230921   6.947  13.481  13.926
43028SOL     OW30922   4.771  10.123  14.275
43028SOL    HW130923   4.804  10.141  14.363
43028SOL    HW230924   4.848  10.131  14.218
43029SOL     OW30925   2.514   2.458   0.455
43029SOL    HW130926   2.508   2.468   0.360
43029SOL    HW230927   2.425   2.473   0.487
43030SOL     OW30928   4.969   7.446   0.060
43030SOL    HW130929   4.899   7.410   0.006
43030SOL    HW230930   5.024   7.494  14.874
43031SOL     OW30931  10.171   8.658   2.646
43031SOL    HW130932  10.176   8.656   2.742
43031SOL    HW230933  10.096   8.714   2.627
43032SOL     OW30934   2.595   1.138  11.469
43032SOL    HW130935   2.609   1.215  11.414
43032SOL    HW230936   2.679   1.123  11.512
43033SOL     OW30937   1.915  14.589   3.633
43033SOL    HW130938   1.887  14.515   3.579
43033SOL    HW230939   1.893  14.563   3.722
43034SOL     OW30940   1.632   5.244  10.366
43034SOL    HW130941   1.602   5.260  10.456
43034SOL    HW230942   1.555   5.257  10.312
43035SOL     OW30943  10.564  12.541   2.808
43035SOL    HW130944  10.526  12.603   2.745
43035SOL    HW230945  10.522  12.458   2.786
43036SOL     OW30946   0.868   9.427   8.739
43036SOL    HW130947   0.781   9.443   8.775
43036SOL    HW230948   0.929   9.455   8.807
43037SOL     OW30949   5.653   5.806  10.142
43037SOL    HW130950   5.606   5.765  10.214
43037SOL    HW230951   5.724   5.746  10.122
43038SOL     OW30952  10.521  12.699   2.581
43038SOL    HW130953  10.542  12.625   2.524
43038SOL    HW230954  10.603  12.746   2.593
43039SOL     OW30955   5.158   7.693   2.543
43039SOL    HW130956   5.160   7.718   2.636
43039SOL    HW230957   5.079   7.639   2.535
43040SOL     OW30958  10.154   5.661   0.391
43040SOL    HW130959  10.220   5.592   0.390
43040SOL    HW230960  10.200   5.739   0.422
43041SOL     OW30961  13.456  12.909   8.065
43041SOL    HW130962  13.527  12.965   8.037
43041SOL    HW230963  13.409  12.887   7.985
43042SOL     OW30964  10.455  14.675  14.587
43042SOL    HW130965  10.550  14.671  14.577
43042SOL    HW230966  10.441  14.742  14.653
43043SOL     OW30967   4.674   0.268   3.931
43043SOL    HW130968   4.638   0.343   3.883
43043SOL    HW230969   4.630   0.192   3.893
43044SOL     OW30970  13.931   8.272   1.390
43044SOL    HW130971  13.880   8.352   1.400
43044SOL    HW230972  13.870   8.209   1.352
43045SOL     OW30973   9.739   6.069   2.264
43045SOL    HW130974   9.695   5.990   2.296
43045SOL    HW230975   9.830   6.057   2.292
43046SOL     OW30976  10.661  14.715  11.274
43046SOL    HW130977  10.646  14.772  11.198
43046SOL    HW230978  10.740  14.667  11.252
43047SOL     OW30979  12.871   5.182  13.453
43047SOL    HW130980  12.889   5.206  13.362
43047SOL    HW230981  12.951   5.139  13.483
43048SOL     OW30982   2.812   0.101  13.008
43048SOL    HW130983   2.905   0.090  12.987
43048SOL    HW230984   2.781   0.168  12.946
43049SOL     OW30985   2.260   3.722   8.263
43049SOL    HW130986   2.317   3.679   8.199
43049SOL    HW230987   2.172   3.691   8.242
43050SOL     OW30988  10.578  10.553  13.875
43050SOL    HW130989  10.509  10.492  13.903
43050SOL    HW230990  10.530  10.633  13.851
43051SOL     OW30991   8.356   9.727   3.253
43051SOL    HW130992   8.294   9.774   3.307
43051SOL    HW230993   8.405   9.672   3.314
43052SOL     OW30994   6.735   2.356  12.021
43052SOL    HW130995   6.808   2.400  11.979
43052SOL    HW230996   6.774   2.305  12.092
43053SOL     OW30997   5.394   7.836   9.538
43053SOL    HW130998   5.457   7.765   9.534
43053SOL    HW230999   5.414   7.881   9.621
43054SOL     OW31000   2.693   8.426   0.934
43054SOL    HW131001   2.656   8.338   0.932
43054SOL    HW231002   2.628   8.481   0.890
43055SOL     OW31003   9.269   3.835   6.881
43055SOL    HW131004   9.312   3.771   6.938
43055SOL    HW231005   9.341   3.880   6.837
43056SOL     OW31006  12.201   7.178   5.914
43056SOL    HW131007  12.175   7.221   5.832
43056SOL    HW231008  12.287   7.214   5.934
43057SOL     OW31009  11.433  13.816  14.145
43057SOL    HW131010  11.440  13.862  14.061
43057SOL    HW231011  11.522  13.785  14.162
43058SOL     OW31012   8.466   7.001   1.565
43058SOL    HW131013   8.536   6.980   1.504
43058SOL    HW231014   8.438   6.917   1.600
43059SOL     OW31015  12.398  12.535   4.489
43059SOL    HW131016  12.330  12.500   4.546
43059SOL    HW231017  12.429  12.460   4.438
43060SOL     OW31018  13.176   8.474   5.989
43060SOL    HW131019  13.207   8.439   6.072
43060SOL    HW231020  13.090   8.433   5.976
43061SOL     OW31021   9.292   4.569   8.437
43061SOL    HW131022   9.346   4.647   8.427
43061SOL    HW231023   9.246   4.562   8.354
43062SOL     OW31024   5.043   0.956  11.055
43062SOL    HW131025   4.952   0.940  11.027
43062SOL    HW231026   5.035   0.985  11.146
43063SOL     OW31027  13.363   3.680  10.811
43063SOL    HW131028  13.375   3.726  10.728
43063SOL    HW231029  13.432   3.613  10.811
43064SOL     OW31030   0.537  11.742  13.122
43064SOL    HW131031   0.453  11.719  13.160
43064SOL    HW231032   0.516  11.804  13.053
43065SOL     OW31033   3.265   4.419   8.206
43065SOL    HW131034   3.335   4.353   8.209
43065SOL    HW231035   3.310   4.502   8.224
43066SOL     OW31036   0.116   5.583  11.362
43066SOL    HW131037   0.089   5.499  11.327
43066SOL    HW231038   0.035   5.633  11.372
43067SOL     OW31039   9.499  10.741   6.609
43067SOL    HW131040   9.470  10.809   6.669
43067SOL    HW231041   9.588  10.767   6.584
43068SOL     OW31042   7.569   6.232  12.851
43068SOL    HW131043   7.562   6.315  12.805
43068SOL    HW231044   7.499   6.178  12.814
43069SOL     OW31045   2.172   5.521   8.146
43069SOL    HW131046   2.083   5.487   8.131
43069SOL    HW231047   2.219   5.448   8.186
43070SOL     OW31048   3.725  12.932   1.244
43070SOL    HW131049   3.654  12.920   1.307
43070SOL    HW231050   3.805  12.914   1.294
43071SOL     OW31051   6.341   7.930  13.359
43071SOL    HW131052   6.285   7.992  13.406
43071SOL    HW231053   6.306   7.929  13.270
43072SOL     OW31054   4.870  11.859  11.292
43072SOL    HW131055   4.875  11.838  11.386
43072SOL    HW231056   4.926  11.936  11.282
43073SOL     OW31057   5.114   6.146   9.325
43073SOL    HW131058   5.127   6.181   9.237
43073SOL    HW231059   5.143   6.055   9.319
43074SOL     OW31060   4.051   3.752   6.451
43074SOL    HW131061   3.998   3.730   6.527
43074SOL    HW231062   4.032   3.684   6.387
43075SOL     OW31063   0.292   1.088   0.810
43075SOL    HW131064   0.264   1.003   0.845
43075SOL    HW231065   0.249   1.152   0.867
43076SOL     OW31066  11.139   5.155  11.923
43076SOL    HW131067  11.206   5.211  11.964
43076SOL    HW231068  11.151   5.070  11.964
43077SOL     OW31069   9.966  12.913   1.761
43077SOL    HW131070  10.004  13.000   1.772
43077SOL    HW231071   9.968  12.874   1.848
43078SOL     OW31072   3.437   7.727   6.421
43078SOL    HW131073   3.479   7.664   6.478
43078SOL    HW231074   3.345   7.701   6.420
43079SOL     OW31075   0.632   4.524   1.878
43079SOL    HW131076   0.694   4.557   1.814
43079SOL    HW231077   0.620   4.432   1.856
43080SOL     OW31078   7.312  14.856   0.256
43080SOL    HW131079   7.331   0.021   0.172
43080SOL    HW231080   7.227   0.013   0.282
43081SOL     OW31081   4.184   3.818  12.624
43081SOL    HW131082   4.101   3.782  12.591
43081SOL    HW231083   4.163   3.851  12.711
43082SOL     OW31084  10.728  14.256   4.133
43082SOL    HW131085  10.781  14.332   4.157
43082SOL    HW231086  10.690  14.280   4.048
43083SOL     OW31087   7.308  10.897   9.642
43083SOL    HW131088   7.348  10.933   9.563
43083SOL    HW231089   7.286  10.807   9.618
43084SOL     OW31090   4.683  14.802   0.057
43084SOL    HW131091   4.706  14.712   0.034
43084SOL    HW231092   4.665  14.844  14.849
43085SOL     OW31093   6.950  12.309   4.447
43085SOL    HW131094   6.939  12.311   4.542
43085SOL    HW231095   6.901  12.232   4.419
43086SOL     OW31096   6.963   4.265  14.080
43086SOL    HW131097   6.881   4.316  14.079
43086SOL    HW231098   7.008   4.294  14.159
43087SOL     OW31099   0.456  12.959   6.689
43087SOL    HW131100   0.424  13.034   6.739
43087SOL    HW231101   0.513  12.912   6.750
43088SOL     OW31102   9.196   8.941   1.476
43088SOL    HW131103   9.240   8.857   1.487
43088SOL    HW231104   9.227   8.973   1.391
43089SOL     OW31105   1.031   9.302   3.915
43089SOL    HW131106   1.025   9.385   3.868
43089SOL    HW231107   1.111   9.262   3.883
43090SOL     OW31108   8.576  12.195  13.993
43090SOL    HW131109   8.612  12.152  14.070
43090SOL    HW231110   8.482  12.199  14.009
43091SOL     OW31111   1.957   9.140   6.190
43091SOL    HW131112   2.031   9.103   6.237
43091SOL    HW231113   1.888   9.073   6.197
43092SOL     OW31114   4.372   6.534   1.876
43092SOL    HW131115   4.329   6.596   1.935
43092SOL    HW231116   4.320   6.539   1.795
43093SOL     OW31117  12.276   4.089   2.495
43093SOL    HW131118  12.340   4.155   2.520
43093SOL    HW231119  12.328   4.009   2.482
43094SOL     OW31120  13.854   9.882   2.291
43094SOL    HW131121  13.829   9.802   2.336
43094SOL    HW231122  13.779   9.941   2.302
43095SOL     OW31123   7.778   3.527  10.017
43095SOL    HW131124   7.712   3.559   9.956
43095SOL    HW231125   7.761   3.576  10.098
43096SOL     OW31126   9.200  13.325   8.366
43096SOL    HW131127   9.186  13.231   8.372
43096SOL    HW231128   9.268  13.344   8.431
43097SOL     OW31129   1.862  13.685   0.265
43097SOL    HW131130   1.798  13.710   0.331
43097SOL    HW231131   1.829  13.602   0.231
43098SOL     OW31132   1.775  14.806   3.551
43098SOL    HW131133   1.700  14.800   3.609
43098SOL    HW231134   1.824  14.725   3.568
43099SOL     OW31135   0.143  12.022  10.653
43099SOL    HW131136   0.079  12.066  10.709
43099SOL    HW231137   0.172  11.947  10.705
43100SOL     OW31138   9.949  10.285   6.537
43100SOL    HW131139   9.971  10.353   6.602
43100SOL    HW231140   9.985  10.318   6.455
43101SOL     OW31141  12.979  11.609   6.310
43101SOL    HW131142  12.922  11.686   6.320
43101SOL    HW231143  13.038  11.632   6.239
43102SOL     OW31144   1.112   0.927   4.612
43102SOL    HW131145   1.171   0.987   4.657
43102SOL    HW231146   1.088   0.863   4.679
43103SOL     OW31147  12.003  10.271  13.457
43103SOL    HW131148  12.001  10.183  13.495
43103SOL    HW231149  11.925  10.314  13.492
43104SOL     OW31150   7.551   4.455   0.144
43104SOL    HW131151   7.628   4.406   0.117
43104SOL    HW231152   7.565   4.474   0.237
43105SOL     OW31153   9.913   7.353   1.517
43105SOL    HW131154   9.833   7.320   1.477
43105SOL    HW231155   9.889   7.375   1.607
43106SOL     OW31156  14.270   6.756   8.444
43106SOL    HW131157  14.267   6.736   8.537
43106SOL    HW231158  14.179   6.746   8.414
43107SOL     OW31159   9.443   7.306   5.475
43107SOL    HW131160   9.365   7.254   5.456
43107SOL    HW231161   9.416   7.365   5.545
43108SOL     OW31162   2.370   8.852   3.445
43108SOL    HW131163   2.401   8.794   3.514
43108SOL    HW231164   2.293   8.809   3.410
43109SOL     OW31165   2.573  11.340   0.930
43109SOL    HW131166   2.612  11.421   0.963
43109SOL    HW231167   2.489  11.367   0.894
43110SOL     OW31168  13.888   8.600  10.231
43110SOL    HW131169  13.860   8.658  10.160
43110SOL    HW231170  13.979   8.624  10.248
43111SOL     OW31171  12.561   3.753  13.586
43111SOL    HW131172  12.526   3.665  13.576
43111SOL    HW231173  12.572   3.764  13.681
43112SOL     OW31174   5.830  10.905   0.547
43112SOL    HW131175   5.757  10.876   0.602
43112SOL    HW231176   5.885  10.957   0.606
43113SOL     OW31177   7.313   5.293  14.159
43113SOL    HW131178   7.227   5.257  14.143
43113SOL    HW231179   7.341   5.254  14.242
43114SOL     OW31180   5.614   6.638  14.712
43114SOL    HW131181   5.701   6.674  14.730
43114SOL    HW231182   5.575   6.699  14.649
43115SOL     OW31183   7.947   0.494   7.700
43115SOL    HW131184   7.898   0.499   7.782
43115SOL    HW231185   7.948   0.401   7.677
43116SOL     OW31186   3.130   2.603   2.260
43116SOL    HW131187   3.100   2.620   2.349
43116SOL    HW231188   3.224   2.592   2.267
43117SOL     OW31189   8.447   7.001   6.435
43117SOL    HW131190   8.395   7.005   6.515
43117SOL    HW231191   8.500   6.922   6.445
43118SOL     OW31192   7.117   9.834   1.296
43118SOL    HW131193   7.153   9.883   1.222
43118SOL    HW231194   7.080   9.755   1.255
43119SOL     OW31195   1.528   8.100  10.670
43119SOL    HW131196   1.584   8.029  10.701
43119SOL    HW231197   1.573   8.180  10.697
43120SOL     OW31198  11.947  12.529   2.006
43120SOL    HW131199  12.013  12.585   2.046
43120SOL    HW231200  11.983  12.506   1.920
43121SOL     OW31201  11.359   4.758   5.532
43121SOL    HW131202  11.367   4.686   5.595
43121SOL    HW231203  11.412   4.731   5.457
43122SOL     OW31204  14.835   6.888   5.171
43122SOL    HW131205  14.763   6.951   5.170
43122SOL    HW231206  14.840   6.855   5.081
43123SOL     OW31207   6.128   5.056   0.493
43123SOL    HW131208   6.064   5.021   0.432
43123SOL    HW231209   6.200   5.085   0.438
43124SOL     OW31210   7.014  14.783   3.028
43124SOL    HW131211   7.049  14.863   2.988
43124SOL    HW231212   7.045  14.786   3.118
43125SOL     OW31213   9.658   7.811   0.907
43125SOL    HW131214   9.732   7.827   0.849
43125SOL    HW231215   9.633   7.897   0.939
43126SOL     OW31216   0.582  10.431   1.002
43126SOL    HW131217   0.604  10.461   1.090
43126SOL    HW231218   0.565  10.511   0.953
43127SOL     OW31219  11.790  12.977   1.461
43127SOL    HW131220  11.825  13.063   1.483
43127SOL    HW231221  11.703  12.994   1.426
43128SOL     OW31222   4.302   4.233   2.487
43128SOL    HW131223   4.360   4.229   2.563
43128SOL    HW231224   4.323   4.154   2.437
43129SOL     OW31225   7.880   1.091  10.227
43129SOL    HW131226   7.809   1.098  10.163
43129SOL    HW231227   7.933   1.170  10.213
43130SOL     OW31228   0.076  12.376  10.525
43130SOL    HW131229  14.872  12.426  10.534
43130SOL    HW231230   0.084  12.327  10.607
43131SOL     OW31231  10.127   0.988   6.198
43131SOL    HW131232  10.217   0.994   6.167
43131SOL    HW231233  10.086   1.070   6.168
43132SOL     OW31234  13.435   7.870   6.081
43132SOL    HW131235  13.341   7.884   6.077
43132SOL    HW231236  13.472   7.947   6.036
43133SOL     OW31237   5.632   2.508   8.462
43133SOL    HW131238   5.551   2.460   8.481
43133SOL    HW231239   5.649   2.559   8.542
43134SOL     OW31240  11.443  11.686  10.807
43134SOL    HW131241  11.433  11.688  10.712
43134SOL    HW231242  11.524  11.637  10.822
43135SOL     OW31243   8.077  10.018   4.354
43135SOL    HW131244   8.149  10.011   4.292
43135SOL    HW231245   8.041   9.929   4.359
43136SOL     OW31246  13.654  10.132  12.877
43136SOL    HW131247  13.693  10.182  12.949
43136SOL    HW231248  13.672  10.184  12.799
43137SOL     OW31249   1.576   6.748   2.836
43137SOL    HW131250   1.659   6.701   2.826
43137SOL    HW231251   1.551   6.733   2.927
43138SOL     OW31252   2.589   2.013  12.282
43138SOL    HW131253   2.583   1.980  12.371
43138SOL    HW231254   2.498   2.015  12.251
43139SOL     OW31255  10.809   4.757   7.174
43139SOL    HW131256  10.808   4.847   7.143
43139SOL    HW231257  10.730   4.718   7.136
43140SOL     OW31258   8.610   6.893  12.176
43140SOL    HW131259   8.579   6.983  12.166
43140SOL    HW231260   8.556   6.842  12.116
43141SOL     OW31261   4.136   4.200   7.061
43141SOL    HW131262   4.210   4.257   7.040
43141SOL    HW231263   4.154   4.120   7.011
43142SOL     OW31264   6.021   5.079  13.431
43142SOL    HW131265   6.060   5.017  13.493
43142SOL    HW231266   5.956   5.128  13.482
43143SOL     OW31267   7.231   1.577  12.925
43143SOL    HW131268   7.264   1.577  13.014
43143SOL    HW231269   7.234   1.485  12.898
43144SOL     OW31270  13.717   5.426   0.038
43144SOL    HW131271  13.766   5.393  14.839
43144SOL    HW231272  13.678   5.348   0.078
43145SOL     OW31273   3.092   5.024   7.771
43145SOL    HW131274   3.168   5.078   7.793
43145SOL    HW231275   3.080   4.967   7.847
43146SOL     OW31276  13.592   6.516  14.373
43146SOL    HW131277  13.523   6.577  14.349
43146SOL    HW231278  13.553   6.429  14.358
43147SOL     OW31279   2.196  14.541   7.798
43147SOL    HW131280   2.112  14.580   7.775
43147SOL    HW231281   2.258  14.613   7.793
43148SOL     OW31282  11.970   6.410   9.397
43148SOL    HW131283  11.894   6.386   9.343
43148SOL    HW231284  12.015   6.478   9.346
43149SOL     OW31285  10.946  12.501   0.500
43149SOL    HW131286  10.991  12.419   0.516
43149SOL    HW231287  11.010  12.556   0.456
43150SOL     OW31288  13.090  12.717   7.265
43150SOL    HW131289  13.027  12.702   7.335
43150SOL    HW231290  13.037  12.747   7.191
43151SOL     OW31291  14.793   1.521   7.432
43151SOL    HW131292  14.856   1.503   7.502
43151SOL    HW231293  14.797   1.615   7.420
43152SOL     OW31294   5.680   8.206  12.759
43152SOL    HW131295   5.618   8.135  12.742
43152SOL    HW231296   5.743   8.202  12.687
43153SOL     OW31297  10.561   1.233   6.052
43153SOL    HW131298  10.535   1.295   6.120
43153SOL    HW231299  10.655   1.221   6.065
43154SOL     OW31300   4.995   4.070   5.142
43154SOL    HW131301   5.015   3.976   5.140
43154SOL    HW231302   4.993   4.093   5.234
43155SOL     OW31303   8.978   2.682  14.208
43155SOL    HW131304   8.921   2.605  14.201
43155SOL    HW231305   8.921   2.750  14.243
43156SOL     OW31306   9.603  13.849   2.559
43156SOL    HW131307   9.595  13.819   2.649
43156SOL    HW231308   9.513  13.860   2.529
43157SOL     OW31309   1.298   1.272   6.471
43157SOL    HW131310   1.343   1.327   6.535
43157SOL    HW231311   1.258   1.333   6.410
43158SOL     OW31312   8.074   8.530  11.440
43158SOL    HW131313   8.087   8.437  11.459
43158SOL    HW231314   7.982   8.546  11.458
43159SOL     OW31315  11.349   1.514   8.937
43159SOL    HW131316  11.410   1.569   8.888
43159SOL    HW231317  11.274   1.504   8.879
43160SOL     OW31318   4.185   7.116   2.868
43160SOL    HW131319   4.256   7.124   2.804
43160SOL    HW231320   4.216   7.050   2.930
43161SOL     OW31321  11.093   0.719  13.992
43161SOL    HW131322  11.042   0.789  14.034
43161SOL    HW231323  11.061   0.716  13.902
43162SOL     OW31324   8.311   6.483   9.176
43162SOL    HW131325   8.381   6.505   9.116
43162SOL    HW231326   8.341   6.405   9.222
43163SOL     OW31327   5.379   5.507   7.154
43163SOL    HW131328   5.374   5.566   7.229
43163SOL    HW231329   5.317   5.544   7.090
43164SOL     OW31330   0.434   5.032  11.378
43164SOL    HW131331   0.511   4.979  11.355
43164SOL    HW231332   0.448   5.114  11.332
43165SOL     OW31333   1.121  10.574   5.085
43165SOL    HW131334   1.027  10.558   5.085
43165SOL    HW231335   1.161  10.487   5.077
43166SOL     OW31336  10.421   1.607  12.174
43166SOL    HW131337  10.463   1.661  12.107
43166SOL    HW231338  10.480   1.532  12.184
43167SOL     OW31339   2.179  12.746   0.429
43167SOL    HW131340   2.129  12.827   0.428
43167SOL    HW231341   2.117  12.678   0.401
43168SOL     OW31342  12.747   7.609   6.980
43168SOL    HW131343  12.721   7.687   7.031
43168SOL    HW231344  12.812   7.566   7.034
43169SOL     OW31345   5.885   6.456   0.038
43169SOL    HW131346   5.819   6.400   0.078
43169SOL    HW231347   5.835   6.531   0.004
43170SOL     OW31348   7.275  13.703   5.670
43170SOL    HW131349   7.180  13.691   5.674
43170SOL    HW231350   7.297  13.689   5.578
43171SOL     OW31351   2.694  11.771   9.374
43171SOL    HW131352   2.610  11.745   9.412
43171SOL    HW231353   2.717  11.700   9.314
43172SOL     OW31354  10.543  13.566   9.629
43172SOL    HW131355  10.564  13.472   9.629
43172SOL    HW231356  10.574  13.598   9.544
43173SOL     OW31357   4.269  14.318   4.599
43173SOL    HW131358   4.175  14.334   4.606
43173SOL    HW231359   4.288  14.255   4.668
43174SOL     OW31360   4.055  10.661   6.130
43174SOL    HW131361   3.992  10.666   6.057
43174SOL    HW231362   4.005  10.690   6.206
43175SOL     OW31363   2.909  11.916   4.168
43175SOL    HW131364   2.919  11.886   4.258
43175SOL    HW231365   2.814  11.910   4.151
43176SOL     OW31366   5.499   1.981   9.466
43176SOL    HW131367   5.478   1.932   9.386
43176SOL    HW231368   5.436   2.054   9.466
43177SOL     OW31369   8.709   3.483   3.866
43177SOL    HW131370   8.653   3.419   3.912
43177SOL    HW231371   8.794   3.475   3.909
43178SOL     OW31372   5.035   5.740  11.613
43178SOL    HW131373   5.009   5.648  11.613
43178SOL    HW231374   5.048   5.761  11.706
43179SOL     OW31375  14.523  11.246   0.330
43179SOL    HW131376  14.455  11.305   0.297
43179SOL    HW231377  14.580  11.231   0.255
43180SOL     OW31378   5.408  12.036  10.819
43180SOL    HW131379   5.333  12.027  10.878
43180SOL    HW231380   5.381  12.100  10.754
43181SOL     OW31381  10.643   1.666   9.631
43181SOL    HW131382  10.683   1.681   9.717
43181SOL    HW231383  10.554   1.638   9.651
43182SOL     OW31384   5.397   7.994  13.826
43182SOL    HW131385   5.470   8.047  13.794
43182SOL    HW231386   5.370   7.942  13.750
43183SOL     OW31387   5.885   3.823   3.417
43183SOL    HW131388   5.979   3.813   3.404
43183SOL    HW231389   5.874   3.838   3.511
43184SOL     OW31390  11.828  14.227   8.259
43184SOL    HW131391  11.832  14.293   8.190
43184SOL    HW231392  11.852  14.274   8.339
43185SOL     OW31393   1.222   4.293   2.584
43185SOL    HW131394   1.249   4.217   2.532
43185SOL    HW231395   1.228   4.264   2.675
43186SOL     OW31396  13.014   1.736   1.606
43186SOL    HW131397  13.107   1.725   1.628
43186SOL    HW231398  13.013   1.806   1.541
43187SOL     OW31399   7.216  13.666   5.074
43187SOL    HW131400   7.291  13.704   5.120
43187SOL    HW231401   7.236  13.573   5.069
43188SOL     OW31402   3.076   5.959   9.685
43188SOL    HW131403   3.121   5.897   9.742
43188SOL    HW231404   3.036   6.023   9.744
43189SOL     OW31405  12.840   3.996  10.828
43189SOL    HW131406  12.816   4.081  10.790
43189SOL    HW231407  12.761   3.967  10.874
43190SOL     OW31408   3.715   7.477   1.768
43190SOL    HW131409   3.732   7.389   1.800
43190SOL    HW231410   3.709   7.467   1.673
43191SOL     OW31411   2.653  10.038  10.605
43191SOL    HW131412   2.632  10.130  10.620
43191SOL    HW231413   2.689  10.036  10.516
43192SOL     OW31414  12.001   0.804   7.999
43192SOL    HW131415  11.926   0.781   7.945
43192SOL    HW231416  12.077   0.780   7.946
43193SOL     OW31417  10.867  12.032  13.552
43193SOL    HW131418  10.847  12.126  13.550
43193SOL    HW231419  10.952  12.025  13.509
43194SOL     OW31420  14.481   3.872   0.672
43194SOL    HW131421  14.456   3.906   0.758
43194SOL    HW231422  14.569   3.907   0.657
43195SOL     OW31423  10.810  13.548  11.362
43195SOL    HW131424  10.750  13.614  11.395
43195SOL    HW231425  10.863  13.594  11.296
43196SOL     OW31426   1.475   1.135   9.517
43196SOL    HW131427   1.558   1.178   9.535
43196SOL    HW231428   1.473   1.060   9.576
43197SOL     OW31429   6.622   8.947  12.044
43197SOL    HW131430   6.538   8.975  12.007
43197SOL    HW231431   6.598   8.894  12.119
43198SOL     OW31432   9.308  14.504  13.238
43198SOL    HW131433   9.263  14.588  13.245
43198SOL    HW231434   9.321  14.491  13.144
43199SOL     OW31435   5.335   2.921   6.059
43199SOL    HW131436   5.257   2.974   6.047
43199SOL    HW231437   5.308   2.833   6.032
43200SOL     OW31438   1.168   7.517   1.612
43200SOL    HW131439   1.208   7.602   1.596
43200SOL    HW231440   1.208   7.459   1.548
43201SOL     OW31441  10.699   6.785   9.931
43201SOL    HW131442  10.617   6.755   9.969
43201SOL    HW231443  10.731   6.852   9.991
43202SOL     OW31444   8.751  13.145  14.764
43202SOL    HW131445   8.814  13.196  14.713
43202SOL    HW231446   8.770  13.168  14.855
43203SOL     OW31447   2.971  12.823   6.118
43203SOL    HW131448   3.062  12.828   6.089
43203SOL    HW231449   2.920  12.829   6.037
43204SOL     OW31450   0.129   0.398   8.897
43204SOL    HW131451   0.092   0.405   8.809
43204SOL    HW231452   0.115   0.485   8.936
43205SOL     OW31453  12.971   2.227   6.248
43205SOL    HW131454  12.967   2.314   6.208
43205SOL    HW231455  13.064   2.206   6.249
43206SOL     OW31456  13.167   2.877   0.832
43206SOL    HW131457  13.237   2.920   0.882
43206SOL    HW231458  13.104   2.947   0.814
43207SOL     OW31459  11.629   3.716   2.358
43207SOL    HW131460  11.686   3.761   2.420
43207SOL    HW231461  11.540   3.741   2.385
43208SOL     OW31462   4.965   9.514   0.181
43208SOL    HW131463   5.052   9.516   0.139
43208SOL    HW231464   4.984   9.495   0.273
43209SOL     OW31465   7.713  13.934   6.159
43209SOL    HW131466   7.798  13.975   6.177
43209SOL    HW231467   7.704  13.938   6.064
43210SOL     OW31468  13.295  10.447   1.513
43210SOL    HW131469  13.311  10.353   1.517
43210SOL    HW231470  13.318  10.472   1.423
43211SOL     OW31471   5.614   9.211  14.534
43211SOL    HW131472   5.642   9.127  14.569
43211SOL    HW231473   5.552   9.189  14.465
43212SOL     OW31474  11.707   1.161  13.625
43212SOL    HW131475  11.704   1.100  13.699
43212SOL    HW231476  11.615   1.180  13.606
43213SOL     OW31477   2.261  14.039   2.615
43213SOL    HW131478   2.236  14.025   2.524
43213SOL    HW231479   2.270  14.134   2.623
43214SOL     OW31480   9.321   9.047   8.370
43214SOL    HW131481   9.368   9.118   8.327
43214SOL    HW231482   9.357   8.967   8.332
43215SOL     OW31483   7.962   2.770  11.699
43215SOL    HW131484   7.974   2.718  11.620
43215SOL    HW231485   7.911   2.713  11.757
43216SOL     OW31486   3.518   7.801   2.954
43216SOL    HW131487   3.497   7.739   2.884
43216SOL    HW231488   3.447   7.791   3.017
43217SOL     OW31489   3.607   3.633   7.066
43217SOL    HW131490   3.655   3.586   7.134
43217SOL    HW231491   3.527   3.663   7.109
43218SOL     OW31492   7.025   9.063   6.411
43218SOL    HW131493   7.095   9.046   6.348
43218SOL    HW231494   7.034   8.994   6.477
43219SOL     OW31495  13.915   2.910  11.724
43219SOL    HW131496  13.975   2.978  11.693
43219SOL    HW231497  13.891   2.862  11.645
43220SOL     OW31498   1.060   7.198  11.858
43220SOL    HW131499   1.065   7.163  11.947
43220SOL    HW231500   1.113   7.277  11.859
43221SOL     OW31501   3.564   8.304  10.173
43221SOL    HW131502   3.652   8.283  10.141
43221SOL    HW231503   3.506   8.247  10.121
43222SOL     OW31504  10.780   3.691   6.782
43222SOL    HW131505  10.811   3.770   6.737
43222SOL    HW231506  10.834   3.620   6.745
43223SOL     OW31507   3.249   4.057  13.967
43223SOL    HW131508   3.242   4.076  14.060
43223SOL    HW231509   3.342   4.041  13.952
43224SOL     OW31510   2.852   8.752   0.954
43224SOL    HW131511   2.760   8.731   0.966
43224SOL    HW231512   2.866   8.751   0.859
43225SOL     OW31513   3.135   7.208   4.797
43225SOL    HW131514   3.179   7.136   4.843
43225SOL    HW231515   3.193   7.284   4.812
43226SOL     OW31516   4.947   0.238   0.582
43226SOL    HW131517   4.873   0.200   0.534
43226SOL    HW231518   5.020   0.178   0.566
43227SOL     OW31519  14.764   3.895  11.079
43227SOL    HW131520  14.765   3.961  11.148
43227SOL    HW231521  14.757   3.812  11.126
43228SOL     OW31522   9.673   9.187  14.675
43228SOL    HW131523   9.711   9.137  14.748
43228SOL    HW231524   9.635   9.120  14.619
43229SOL     OW31525   5.650   6.092   7.910
43229SOL    HW131526   5.703   6.146   7.969
43229SOL    HW231527   5.688   6.109   7.823
43230SOL     OW31528  10.919   6.971   2.916
43230SOL    HW131529  10.964   7.055   2.909
43230SOL    HW231530  10.866   6.979   2.995
43231SOL     OW31531   0.535   8.275  10.506
43231SOL    HW131532   0.541   8.236  10.419
43231SOL    HW231533   0.486   8.356  10.493
43232SOL     OW31534   7.920  13.772   4.316
43232SOL    HW131535   7.965  13.692   4.342
43232SOL    HW231536   7.870  13.797   4.394
43233SOL     OW31537   4.890   0.398   9.665
43233SOL    HW131538   4.980   0.429   9.654
43233SOL    HW231539   4.889   0.313   9.621
43234SOL     OW31540   9.477  11.518  13.422
43234SOL    HW131541   9.417  11.500  13.350
43234SOL    HW231542   9.438  11.474  13.498
43235SOL     OW31543   3.782   4.961   6.472
43235SOL    HW131544   3.849   5.029   6.461
43235SOL    HW231545   3.821   4.883   6.434
43236SOL     OW31546  13.808   7.361   9.403
43236SOL    HW131547  13.810   7.360   9.498
43236SOL    HW231548  13.771   7.447   9.381
43237SOL     OW31549   0.197   3.176   1.372
43237SOL    HW131550   0.197   3.113   1.444
43237SOL    HW231551   0.263   3.143   1.311
43238SOL     OW31552   0.142   8.285   9.526
43238SOL    HW131553   0.125   8.197   9.560
43238SOL    HW231554   0.143   8.274   9.431
43239SOL     OW31555   6.602   0.113   5.070
43239SOL    HW131556   6.538   0.092   5.002
43239SOL    HW231557   6.645   0.029   5.089
43240SOL     OW31558   9.816   0.447   3.803
43240SOL    HW131559   9.831   0.397   3.722
43240SOL    HW231560   9.732   0.490   3.789
43241SOL     OW31561  13.218  11.766   2.514
43241SOL    HW131562  13.246  11.755   2.605
43241SOL    HW231563  13.132  11.724   2.509
43242SOL     OW31564   5.743   8.536  14.412
43242SOL    HW131565   5.697   8.455  14.435
43242SOL    HW231566   5.698   8.568  14.334
43243SOL     OW31567   7.300   4.895   6.678
43243SOL    HW131568   7.250   4.950   6.617
43243SOL    HW231569   7.388   4.932   6.676
43244SOL     OW31570   5.072  14.391   6.311
43244SOL    HW131571   5.037  14.340   6.237
43244SOL    HW231572   5.073  14.330   6.384
43245SOL     OW31573   5.780   9.292   5.273
43245SOL    HW131574   5.815   9.313   5.187
43245SOL    HW231575   5.767   9.378   5.315
43246SOL     OW31576   1.950   0.427   8.212
43246SOL    HW131577   1.866   0.425   8.166
43246SOL    HW231578   2.009   0.376   8.156
43247SOL     OW31579  14.476  14.429  10.224
43247SOL    HW131580  14.441  14.474  10.301
43247SOL    HW231581  14.407  14.439  10.157
43248SOL     OW31582  14.045  13.135  13.478
43248SOL    HW131583  13.950  13.128  13.466
43248SOL    HW231584  14.082  13.078  13.411
43249SOL     OW31585  14.544   2.012  11.083
43249SOL    HW131586  14.615   1.950  11.065
43249SOL    HW231587  14.476   1.960  11.125
43250SOL     OW31588   9.978  10.383   5.625
43250SOL    HW131589   9.987  10.326   5.701
43250SOL    HW231590  10.022  10.464   5.650
43251SOL     OW31591  14.120   3.822  11.448
43251SOL    HW131592  14.067   3.789  11.375
43251SOL    HW231593  14.090   3.912  11.461
43252SOL     OW31594  10.178   8.612   8.689
43252SOL    HW131595  10.171   8.667   8.611
43252SOL    HW231596  10.088   8.581   8.704
43253SOL     OW31597   9.317  13.752   6.562
43253SOL    HW131598   9.411  13.738   6.548
43253SOL    HW231599   9.311  13.783   6.652
43254SOL     OW31600   3.221   5.212   1.654
43254SOL    HW131601   3.229   5.262   1.735
43254SOL    HW231602   3.155   5.145   1.674
43255SOL     OW31603   7.187   9.368   8.757
43255SOL    HW131604   7.102   9.333   8.733
43255SOL    HW231605   7.188   9.367   8.852
43256SOL     OW31606   4.567   0.887  13.315
43256SOL    HW131607   4.591   0.811  13.262
43256SOL    HW231608   4.638   0.896  13.378
43257SOL     OW31609   0.750  11.490   9.638
43257SOL    HW131610   0.655  11.488   9.635
43257SOL    HW231611   0.774  11.570   9.591
43258SOL     OW31612  10.946  14.073   7.479
43258SOL    HW131613  10.854  14.062   7.502
43258SOL    HW231614  10.945  14.137   7.408
43259SOL     OW31615   9.985   5.169   3.973
43259SOL    HW131616   9.998   5.264   3.980
43259SOL    HW231617   9.983   5.138   4.063
43260SOL     OW31618   0.736  11.539  14.451
43260SOL    HW131619   0.743  11.627  14.488
43260SOL    HW231620   0.726  11.482  14.526
43261SOL     OW31621  12.208   2.610   8.343
43261SOL    HW131622  12.165   2.691   8.372
43261SOL    HW231623  12.251   2.634   8.261
43262SOL     OW31624   6.592  10.109  14.535
43262SOL    HW131625   6.619  10.019  14.549
43262SOL    HW231626   6.614  10.127  14.444
43263SOL     OW31627   2.198   9.076  10.949
43263SOL    HW131628   2.290   9.052  10.952
43263SOL    HW231629   2.189   9.128  10.869
43264SOL     OW31630   9.081  11.512   2.598
43264SOL    HW131631   9.078  11.422   2.632
43264SOL    HW231632   9.152  11.554   2.646
43265SOL     OW31633   0.160   5.221  12.736
43265SOL    HW131634   0.173   5.126  12.741
43265SOL    HW231635   0.248   5.256  12.722
43266SOL     OW31636  10.805   0.635  11.300
43266SOL    HW131637  10.889   0.681  11.306
43266SOL    HW231638  10.811   0.566  11.366
43267SOL     OW31639   2.737   8.109   6.606
43267SOL    HW131640   2.800   8.038   6.595
43267SOL    HW231641   2.767   8.156   6.684
43268SOL     OW31642   7.487   7.011  12.553
43268SOL    HW131643   7.454   7.036  12.639
43268SOL    HW231644   7.410   7.007  12.498
43269SOL     OW31645  12.840  13.576   0.478
43269SOL    HW131646  12.867  13.516   0.408
43269SOL    HW231647  12.757  13.612   0.449
43270SOL     OW31648  10.027   0.420   1.771
43270SOL    HW131649   9.991   0.473   1.699
43270SOL    HW231650   9.952   0.368   1.801
43271SOL     OW31651  10.267  13.784   1.158
43271SOL    HW131652  10.195  13.765   1.217
43271SOL    HW231653  10.261  13.878   1.140
43272SOL     OW31654  13.034   2.068   4.494
43272SOL    HW131655  13.059   1.984   4.456
43272SOL    HW231656  13.110   2.095   4.546
43273SOL     OW31657  10.174   9.293   3.989
43273SOL    HW131658  10.166   9.297   3.894
43273SOL    HW231659  10.090   9.325   4.022
43274SOL     OW31660  11.615   2.396   1.481
43274SOL    HW131661  11.647   2.306   1.473
43274SOL    HW231662  11.572   2.399   1.567
43275SOL     OW31663  12.423   1.132   9.456
43275SOL    HW131664  12.367   1.209   9.446
43275SOL    HW231665  12.492   1.161   9.516
43276SOL     OW31666  11.966  11.617   3.004
43276SOL    HW131667  12.042  11.577   3.046
43276SOL    HW231668  11.896  11.553   3.015
43277SOL     OW31669   7.200   7.347   5.717
43277SOL    HW131670   7.201   7.431   5.671
43277SOL    HW231671   7.290   7.336   5.748
43278SOL     OW31672   5.503   5.900  11.630
43278SOL    HW131673   5.512   5.972  11.692
43278SOL    HW231674   5.547   5.931  11.551
43279SOL     OW31675  14.395  14.364   6.247
43279SOL    HW131676  14.417  14.274   6.223
43279SOL    HW231677  14.313  14.356   6.297
43280SOL     OW31678  14.118   8.585   3.891
43280SOL    HW131679  14.127   8.679   3.904
43280SOL    HW231680  14.204   8.549   3.913
43281SOL     OW31681  12.040  13.189   8.497
43281SOL    HW131682  12.054  13.122   8.431
43281SOL    HW231683  11.997  13.261   8.450
43282SOL     OW31684   4.183   2.214  13.762
43282SOL    HW131685   4.097   2.195  13.801
43282SOL    HW231686   4.163   2.252  13.676
43283SOL     OW31687  14.130   0.461   1.438
43283SOL    HW131688  14.145   0.522   1.366
43283SOL    HW231689  14.047   0.419   1.416
43284SOL     OW31690   3.434   5.691   6.917
43284SOL    HW131691   3.421   5.782   6.892
43284SOL    HW231692   3.528   5.682   6.931
43285SOL     OW31693   8.459   7.451  12.811
43285SOL    HW131694   8.457   7.413  12.723
43285SOL    HW231695   8.483   7.543  12.798
43286SOL     OW31696  10.693   8.285   3.494
43286SOL    HW131697  10.638   8.298   3.571
43286SOL    HW231698  10.713   8.192   3.492
43287SOL     OW31699  13.825   1.810  14.055
43287SOL    HW131700  13.827   1.719  14.027
43287SOL    HW231701  13.875   1.857  13.988
43288SOL     OW31702   9.419  11.866  10.338
43288SOL    HW131703   9.386  11.917  10.263
43288SOL    HW231704   9.362  11.788  10.340
43289SOL     OW31705   5.645   5.690  11.383
43289SOL    HW131706   5.710   5.633  11.343
43289SOL    HW231707   5.569   5.686  11.325
43290SOL     OW31708   2.850   2.985  10.282
43290SOL    HW131709   2.794   2.910  10.265
43290SOL    HW231710   2.845   2.999  10.376
43291SOL     OW31711  14.162   2.877  12.917
43291SOL    HW131712  14.249   2.860  12.882
43291SOL    HW231713  14.109   2.804  12.885
43292SOL     OW31714   9.191   6.757   2.584
43292SOL    HW131715   9.157   6.746   2.495
43292SOL    HW231716   9.240   6.676   2.601
43293SOL     OW31717  12.566   1.558   5.954
43293SOL    HW131718  12.559   1.504   6.032
43293SOL    HW231719  12.538   1.501   5.882
43294SOL     OW31720   4.047  10.274   3.512
43294SOL    HW131721   4.079  10.252   3.425
43294SOL    HW231722   4.062  10.368   3.520
43295SOL     OW31723  10.777  11.898   2.532
43295SOL    HW131724  10.700  11.842   2.549
43295SOL    HW231725  10.780  11.906   2.437
43296SOL     OW31726  10.968  14.445   2.156
43296SOL    HW131727  11.004  14.463   2.069
43296SOL    HW231728  10.924  14.527   2.181
43297SOL     OW31729  10.040  12.172   3.323
43297SOL    HW131730  10.081  12.227   3.390
43297SOL    HW231731   9.946  12.184   3.338
43298SOL     OW31732  13.934   5.035  12.583
43298SOL    HW131733  13.851   5.084  12.580
43298SOL    HW231734  13.908   4.944  12.592
43299SOL     OW31735   4.095  12.687   8.497
43299SOL    HW131736   4.093  12.772   8.454
43299SOL    HW231737   4.154  12.699   8.572
43300SOL     OW31738   5.954   0.050   1.246
43300SOL    HW131739   6.021  14.859   1.260
43300SOL    HW231740   5.952   0.061   1.151
43301SOL     OW31741  14.156  10.978  14.522
43301SOL    HW131742  14.134  11.057  14.573
43301SOL    HW231743  14.172  10.911  14.589
43302SOL     OW31744  12.555   2.512  11.263
43302SOL    HW131745  12.588   2.533  11.176
43302SOL    HW231746  12.569   2.418  11.272
43303SOL     OW31747   6.494   7.291   2.587
43303SOL    HW131748   6.508   7.302   2.492
43303SOL    HW231749   6.446   7.209   2.595
43304SOL     OW31750   4.176  14.094  13.162
43304SOL    HW131751   4.155  14.018  13.107
43304SOL    HW231752   4.120  14.084  13.239
43305SOL     OW31753   1.652   1.837   2.901
43305SOL    HW131754   1.683   1.892   2.973
43305SOL    HW231755   1.570   1.878   2.874
43306SOL     OW31756  12.602   8.555  12.936
43306SOL    HW131757  12.614   8.507  12.855
43306SOL    HW231758  12.520   8.521  12.973
43307SOL     OW31759   3.103   1.478   9.445
43307SOL    HW131760   3.115   1.466   9.351
43307SOL    HW231761   3.188   1.457   9.483
43308SOL     OW31762   0.621   1.966   3.389
43308SOL    HW131763   0.604   1.993   3.479
43308SOL    HW231764   0.614   2.046   3.338
43309SOL     OW31765   7.568   5.848   7.493
43309SOL    HW131766   7.501   5.839   7.560
43309SOL    HW231767   7.547   5.930   7.449
43310SOL     OW31768  11.161   1.534   2.843
43310SOL    HW131769  11.129   1.596   2.777
43310SOL    HW231770  11.257   1.537   2.834
43311SOL     OW31771  11.243   2.705   7.320
43311SOL    HW131772  11.258   2.618   7.282
43311SOL    HW231773  11.216   2.688   7.410
43312SOL     OW31774   3.455  12.667   5.888
43312SOL    HW131775   3.469  12.751   5.845
43312SOL    HW231776   3.511  12.670   5.966
43313SOL     OW31777   1.944   4.710  14.718
43313SOL    HW131778   1.965   4.778  14.782
43313SOL    HW231779   1.982   4.630  14.754
43314SOL     OW31780  13.009   5.956   5.199
43314SOL    HW131781  13.046   6.000   5.123
43314SOL    HW231782  13.084   5.934   5.254
43315SOL     OW31783  12.579   3.186   8.435
43315SOL    HW131784  12.512   3.159   8.372
43315SOL    HW231785  12.551   3.147   8.518
43316SOL     OW31786   3.058   6.596   7.017
43316SOL    HW131787   3.040   6.540   6.941
43316SOL    HW231788   3.149   6.623   7.005
43317SOL     OW31789   9.157  13.909   3.079
43317SOL    HW131790   9.080  13.870   3.039
43317SOL    HW231791   9.148  14.003   3.061
43318SOL     OW31792   8.921   9.583   3.434
43318SOL    HW131793   9.017   9.575   3.429
43318SOL    HW231794   8.891   9.494   3.450
43319SOL     OW31795  13.100   6.509   3.256
43319SOL    HW131796  13.031   6.522   3.190
43319SOL    HW231797  13.165   6.454   3.212
43320SOL     OW31798  12.692  14.318   6.161
43320SOL    HW131799  12.626  14.261   6.200
43320SOL    HW231800  12.775  14.284   6.192
43321SOL     OW31801   3.902   7.401   5.226
43321SOL    HW131802   3.924   7.422   5.135
43321SOL    HW231803   3.907   7.305   5.231
43322SOL     OW31804   7.509   6.580   1.709
43322SOL    HW131805   7.598   6.546   1.713
43322SOL    HW231806   7.512   6.648   1.641
43323SOL     OW31807   3.315  10.681  10.412
43323SOL    HW131808   3.309  10.599  10.363
43323SOL    HW231809   3.283  10.659  10.499
43324SOL     OW31810   6.410   9.127   7.973
43324SOL    HW131811   6.379   9.037   7.986
43324SOL    HW231812   6.458   9.123   7.890
43325SOL     OW31813   8.280  14.518   0.131
43325SOL    HW131814   8.210  14.576   0.161
43325SOL    HW231815   8.271  14.514   0.036
43326SOL     OW31816   4.970  14.471   1.847
43326SOL    HW131817   4.927  14.407   1.904
43326SOL    HW231818   4.899  14.521   1.808
43327SOL     OW31819  14.137   4.166   3.116
43327SOL    HW131820  14.188   4.229   3.167
43327SOL    HW231821  14.143   4.197   3.026
43328SOL     OW31822   0.935   7.984   5.398
43328SOL    HW131823   0.919   8.044   5.325
43328SOL    HW231824   0.944   7.898   5.356
43329SOL     OW31825   3.755   1.551  11.968
43329SOL    HW131826   3.751   1.458  11.947
43329SOL    HW231827   3.671   1.570  12.011
43330SOL     OW31828   9.345  13.866   2.514
43330SOL    HW131829   9.280  13.815   2.465
43330SOL    HW231830   9.334  13.839   2.605
43331SOL     OW31831   9.865   4.228   9.446
43331SOL    HW131832   9.960   4.219   9.457
43331SOL    HW231833   9.855   4.308   9.393
43332SOL     OW31834   9.483   2.195  11.820
43332SOL    HW131835   9.519   2.280  11.796
43332SOL    HW231836   9.465   2.152  11.737
43333SOL     OW31837   6.161   6.349   5.463
43333SOL    HW131838   6.160   6.348   5.368
43333SOL    HW231839   6.154   6.442   5.486
43334SOL     OW31840  14.462   1.536  13.895
43334SOL    HW131841  14.453   1.544  13.990
43334SOL    HW231842  14.528   1.468  13.883
43335SOL     OW31843   2.882   5.483  11.054
43335SOL    HW131844   2.969   5.447  11.071
43335SOL    HW231845   2.893   5.578  11.063
43336SOL     OW31846   3.476   2.436  11.990
43336SOL    HW131847   3.406   2.500  12.003
43336SOL    HW231848   3.544   2.463  12.051
43337SOL     OW31849   7.450   4.232   3.350
43337SOL    HW131850   7.518   4.176   3.387
43337SOL    HW231851   7.491   4.318   3.343
43338SOL     OW31852  10.031  14.051   3.078
43338SOL    HW131853  10.089  14.054   3.002
43338SOL    HW231854  10.087  14.020   3.150
43339SOL     OW31855   3.331   6.417  11.895
43339SOL    HW131856   3.265   6.451  11.955
43339SOL    HW231857   3.343   6.326  11.921
43340SOL     OW31858   8.411  13.947  14.527
43340SOL    HW131859   8.395  13.995  14.608
43340SOL    HW231860   8.410  14.015  14.459
43341SOL     OW31861   5.207   8.986   1.137
43341SOL    HW131862   5.239   8.957   1.223
43341SOL    HW231863   5.251   8.929   1.074
43342SOL     OW31864  10.041   3.817  10.410
43342SOL    HW131865  10.096   3.862  10.475
43342SOL    HW231866  10.062   3.725  10.421
43343SOL     OW31867   5.526   8.412   7.200
43343SOL    HW131868   5.558   8.494   7.162
43343SOL    HW231869   5.567   8.344   7.148
43344SOL     OW31870   4.146   6.035   3.166
43344SOL    HW131871   4.121   5.944   3.149
43344SOL    HW231872   4.161   6.038   3.261
43345SOL     OW31873  10.989   1.723   0.447
43345SOL    HW131874  11.047   1.653   0.479
43345SOL    HW231875  10.939   1.750   0.524
43346SOL     OW31876   1.579   5.784   7.638
43346SOL    HW131877   1.540   5.872   7.633
43346SOL    HW231878   1.548   5.749   7.721
43347SOL     OW31879   9.832  13.336   6.399
43347SOL    HW131880   9.904  13.293   6.445
43347SOL    HW231881   9.850  13.321   6.307
43348SOL     OW31882   5.019   3.868   0.802
43348SOL    HW131883   5.112   3.891   0.802
43348SOL    HW231884   4.976   3.944   0.764
43349SOL     OW31885   1.978   6.339   8.042
43349SOL    HW131886   2.052   6.330   7.981
43349SOL    HW231887   1.906   6.292   7.998
43350SOL     OW31888   8.693  13.503  12.593
43350SOL    HW131889   8.683  13.519  12.687
43350SOL    HW231890   8.619  13.551  12.554
43351SOL     OW31891   5.007   5.506   7.471
43351SOL    HW131892   4.954   5.488   7.393
43351SOL    HW231893   4.961   5.578   7.515
43352SOL     OW31894   0.224   8.915   4.579
43352SOL    HW131895   0.240   8.830   4.537
43352SOL    HW231896   0.281   8.976   4.532
43353SOL     OW31897  10.225   4.024   8.767
43353SOL    HW131898  10.180   4.071   8.837
43353SOL    HW231899  10.261   4.093   8.711
43354SOL     OW31900   6.401  13.603   0.612
43354SOL    HW131901   6.468  13.643   0.667
43354SOL    HW231902   6.326  13.662   0.618
43355SOL     OW31903   5.671  13.730  10.475
43355SOL    HW131904   5.748  13.749  10.422
43355SOL    HW231905   5.630  13.815  10.491
43356SOL     OW31906   3.290   1.224   1.035
43356SOL    HW131907   3.259   1.136   1.013
43356SOL    HW231908   3.321   1.260   0.952
43357SOL     OW31909   2.332   0.631   1.342
43357SOL    HW131910   2.320   0.706   1.400
43357SOL    HW231911   2.252   0.580   1.350
43358SOL     OW31912   0.160  13.658   4.817
43358SOL    HW131913   0.182  13.565   4.811
43358SOL    HW231914   0.083  13.661   4.874
43359SOL     OW31915   6.135  14.702   2.695
43359SOL    HW131916   6.198  14.761   2.736
43359SOL    HW231917   6.062  14.698   2.757
43360SOL     OW31918   4.673   4.080  11.592
43360SOL    HW131919   4.714   3.997  11.617
43360SOL    HW231920   4.746   4.142  11.589
43361SOL     OW31921   7.526  10.539   7.767
43361SOL    HW131922   7.510  10.446   7.753
43361SOL    HW231923   7.476  10.583   7.698
43362SOL     OW31924  12.557   6.643   4.558
43362SOL    HW131925  12.582   6.713   4.617
43362SOL    HW231926  12.495   6.590   4.608
43363SOL     OW31927   1.993   3.264   6.082
43363SOL    HW131928   2.088   3.259   6.072
43363SOL    HW231929   1.976   3.219   6.165
43364SOL     OW31930   1.400  13.954  10.525
43364SOL    HW131931   1.325  14.004  10.495
43364SOL    HW231932   1.368  13.863  10.530
43365SOL     OW31933   5.499   1.856  10.131
43365SOL    HW131934   5.495   1.918  10.204
43365SOL    HW231935   5.425   1.798  10.144
43366SOL     OW31936   5.932   0.735  13.064
43366SOL    HW131937   5.904   0.793  12.993
43366SOL    HW231938   5.954   0.794  13.136
43367SOL     OW31939   4.884   8.423   1.955
43367SOL    HW131940   4.950   8.489   1.975
43367SOL    HW231941   4.804   8.457   1.994
43368SOL     OW31942   9.403   6.088  14.626
43368SOL    HW131943   9.436   6.160  14.572
43368SOL    HW231944   9.382   6.129  14.710
43369SOL     OW31945   6.408  10.509   2.529
43369SOL    HW131946   6.415  10.436   2.467
43369SOL    HW231947   6.423  10.587   2.476
43370SOL     OW31948   1.600   8.227   3.215
43370SOL    HW131949   1.557   8.292   3.270
43370SOL    HW231950   1.667   8.275   3.168
43371SOL     OW31951   8.168  12.552   6.122
43371SOL    HW131952   8.263  12.549   6.114
43371SOL    HW231953   8.152  12.553   6.217
43372SOL     OW31954   1.453   7.151   0.983
43372SOL    HW131955   1.433   7.169   0.891
43372SOL    HW231956   1.412   7.224   1.030
43373SOL     OW31957   8.532   9.912   8.094
43373SOL    HW131958   8.441   9.907   8.124
43373SOL    HW231959   8.528   9.890   8.001
43374SOL     OW31960  10.020   2.182   0.920
43374SOL    HW131961  10.098   2.195   0.974
43374SOL    HW231962   9.991   2.093   0.941
43375SOL     OW31963  10.199   3.884  10.906
43375SOL    HW131964  10.110   3.851  10.896
43375SOL    HW231965  10.188   3.973  10.938
43376SOL     OW31966   3.139  11.162   1.843
43376SOL    HW131967   3.092  11.144   1.925
43376SOL    HW231968   3.075  11.208   1.789
43377SOL     OW31969   5.492  12.556   8.814
43377SOL    HW131970   5.526  12.622   8.874
43377SOL    HW231971   5.415  12.520   8.857
43378SOL     OW31972   8.331   3.150   9.135
43378SOL    HW131973   8.382   3.210   9.081
43378SOL    HW231974   8.257   3.202   9.166
43379SOL     OW31975   1.387  14.300   5.022
43379SOL    HW131976   1.351  14.212   5.038
43379SOL    HW231977   1.327  14.339   4.958
43380SOL     OW31978   8.296   3.520  13.117
43380SOL    HW131979   8.242   3.597  13.136
43380SOL    HW231980   8.357   3.551  13.050
43381SOL     OW31981   8.369  14.283   4.331
43381SOL    HW131982   8.323  14.349   4.278
43381SOL    HW231983   8.300  14.230   4.369
43382SOL     OW31984   3.388  11.081   9.473
43382SOL    HW131985   3.333  11.003   9.472
43382SOL    HW231986   3.477  11.048   9.480
43383SOL     OW31987   6.892   9.059   4.043
43383SOL    HW131988   6.898   9.006   4.122
43383SOL    HW231989   6.929   9.144   4.068
43384SOL     OW31990   8.659  10.988   3.761
43384SOL    HW131991   8.742  11.018   3.798
43384SOL    HW231992   8.604  10.968   3.836
43385SOL     OW31993   1.220   4.860   1.544
43385SOL    HW131994   1.243   4.819   1.460
43385SOL    HW231995   1.192   4.949   1.520
43386SOL     OW31996   5.213  11.786   2.828
43386SOL    HW131997   5.277  11.778   2.757
43386SOL    HW231998   5.261  11.756   2.906
43387SOL     OW31999   9.743   4.177  10.973
43387SOL    HW132000   9.805   4.229  11.023
43387SOL    HW232001   9.787   4.160  10.889
43388SOL     OW32002   2.443   4.690  10.104
43388SOL    HW132003   2.363   4.743  10.109
43388SOL    HW232004   2.493   4.728  10.032
43389SOL     OW32005  12.313   0.922   0.939
43389SOL    HW132006  12.337   0.836   0.904
43389SOL    HW232007  12.255   0.902   1.012
43390SOL     OW32008  11.289  10.467   9.999
43390SOL    HW132009  11.232  10.522  10.053
43390SOL    HW232010  11.229  10.404   9.957
43391SOL     OW32011  12.194   3.447   6.247
43391SOL    HW132012  12.271   3.488   6.288
43391SOL    HW232013  12.148   3.519   6.204
43392SOL     OW32014   5.888   6.673   2.189
43392SOL    HW132015   5.801   6.680   2.227
43392SOL    HW232016   5.876   6.690   2.096
43393SOL     OW32017   4.695   2.197  14.796
43393SOL    HW132018   4.633   2.255  14.753
43393SOL    HW232019   4.709   2.126  14.733
43394SOL     OW32020   7.671   5.930  13.348
43394SOL    HW132021   7.674   6.008  13.403
43394SOL    HW232022   7.710   5.958  13.265
43395SOL     OW32023   5.553  14.049   3.054
43395SOL    HW132024   5.552  14.102   2.975
43395SOL    HW232025   5.483  14.086   3.109
43396SOL     OW32026   8.660  13.082   5.323
43396SOL    HW132027   8.604  13.005   5.328
43396SOL    HW232028   8.721  13.063   5.251
43397SOL     OW32029   8.987   6.488   5.613
43397SOL    HW132030   8.898   6.490   5.647
43397SOL    HW232031   8.994   6.566   5.559
43398SOL     OW32032  10.920   6.317   5.260
43398SOL    HW132033  10.911   6.386   5.326
43398SOL    HW232034  11.008   6.329   5.225
43399SOL     OW32035   5.593   7.688   5.107
43399SOL    HW132036   5.577   7.599   5.140
43399SOL    HW232037   5.520   7.705   5.047
43400SOL     OW32038  10.442   1.240   1.857
43400SOL    HW132039  10.374   1.196   1.908
43400SOL    HW232040  10.395   1.308   1.808
43401SOL     OW32041   0.824  10.053   6.513
43401SOL    HW132042   0.820  10.103   6.595
43401SOL    HW232043   0.822  10.120   6.445
43402SOL     OW32044   1.013   9.411   5.414
43402SOL    HW132045   0.981   9.327   5.448
43402SOL    HW232046   1.050   9.455   5.491
43403SOL     OW32047   9.393   1.426   1.474
43403SOL    HW132048   9.306   1.450   1.442
43403SOL    HW232049   9.429   1.507   1.510
43404SOL     OW32050   7.618   9.837   4.605
43404SOL    HW132051   7.537   9.887   4.620
43404SOL    HW232052   7.688   9.896   4.631
43405SOL     OW32053   7.453   3.219   4.493
43405SOL    HW132054   7.396   3.285   4.454
43405SOL    HW232055   7.404   3.137   4.483
43406SOL     OW32056   9.773   1.805   3.901
43406SOL    HW132057   9.712   1.760   3.959
43406SOL    HW232058   9.778   1.748   3.824
43407SOL     OW32059   8.834   7.743   4.636
43407SOL    HW132060   8.739   7.737   4.642
43407SOL    HW232061   8.866   7.682   4.703
43408SOL     OW32062   1.266   2.785  10.099
43408SOL    HW132063   1.223   2.839  10.033
43408SOL    HW232064   1.246   2.829  10.182
43409SOL     OW32065  11.528  12.603   5.343
43409SOL    HW132066  11.467  12.540   5.305
43409SOL    HW232067  11.505  12.606   5.436
43410SOL     OW32068   0.604  14.053   4.064
43410SOL    HW132069   0.590  13.990   3.993
43410SOL    HW232070   0.528  14.042   4.122
43411SOL     OW32071   9.912  14.418   7.766
43411SOL    HW132072   9.954  14.459   7.842
43411SOL    HW232073   9.867  14.342   7.801
43412SOL     OW32074  13.118   9.199   8.415
43412SOL    HW132075  13.125   9.106   8.433
43412SOL    HW232076  13.104   9.240   8.500
43413SOL     OW32077   4.084   1.186   3.689
43413SOL    HW132078   4.139   1.110   3.711
43413SOL    HW232079   4.064   1.175   3.596
43414SOL     OW32080   5.194   8.161  10.660
43414SOL    HW132081   5.219   8.098  10.728
43414SOL    HW232082   5.250   8.237  10.676
43415SOL     OW32083  13.758   9.562   9.938
43415SOL    HW132084  13.786   9.642   9.894
43415SOL    HW232085  13.815   9.494   9.903
43416SOL     OW32086   4.774  14.379  10.510
43416SOL    HW132087   4.741  14.392  10.599
43416SOL    HW232088   4.869  14.373  10.521
43417SOL     OW32089   0.298   3.949   7.855
43417SOL    HW132090   0.269   3.868   7.811
43417SOL    HW232091   0.382   3.925   7.894
43418SOL     OW32092   5.652   1.870  12.432
43418SOL    HW132093   5.702   1.949  12.452
43418SOL    HW232094   5.702   1.799  12.471
43419SOL     OW32095   8.956   5.750   5.009
43419SOL    HW132096   8.919   5.728   5.095
43419SOL    HW232097   9.010   5.827   5.025
43420SOL     OW32098   8.240   0.540   7.778
43420SOL    HW132099   8.298   0.498   7.715
43420SOL    HW232100   8.193   0.467   7.819
43421SOL     OW32101   6.273   9.666  11.587
43421SOL    HW132102   6.228   9.588  11.621
43421SOL    HW232103   6.337   9.631  11.526
43422SOL     OW32104   3.192   3.763   1.526
43422SOL    HW132105   3.264   3.765   1.589
43422SOL    HW232106   3.136   3.837   1.551
43423SOL     OW32107  10.453   2.426   8.415
43423SOL    HW132108  10.372   2.376   8.403
43423SOL    HW232109  10.510   2.368   8.465
43424SOL     OW32110  12.263   7.537   4.178
43424SOL    HW132111  12.304   7.615   4.140
43424SOL    HW232112  12.320   7.513   4.250
43425SOL     OW32113   5.023   1.899   0.294
43425SOL    HW132114   5.116   1.918   0.285
43425SOL    HW232115   5.019   1.804   0.308
43426SOL     OW32116  10.003   7.583   6.841
43426SOL    HW132117   9.954   7.511   6.880
43426SOL    HW232118   9.949   7.660   6.856
43427SOL     OW32119   5.965  10.039  11.897
43427SOL    HW132120   5.968   9.976  11.968
43427SOL    HW232121   5.886  10.091  11.914
43428SOL     OW32122   8.774  12.942   7.656
43428SOL    HW132123   8.793  12.853   7.628
43428SOL    HW232124   8.838  12.960   7.725
43429SOL     OW32125   3.063   2.659   4.313
43429SOL    HW132126   2.972   2.631   4.311
43429SOL    HW232127   3.112   2.584   4.279
43430SOL     OW32128   5.374   3.748   2.292
43430SOL    HW132129   5.434   3.769   2.220
43430SOL    HW232130   5.297   3.803   2.275
43431SOL     OW32131  10.423   2.689  12.703
43431SOL    HW132132  10.405   2.650  12.618
43431SOL    HW232133  10.337   2.713  12.737
43432SOL     OW32134   7.121   1.109   4.661
43432SOL    HW132135   7.112   1.155   4.744
43432SOL    HW232136   7.175   1.032   4.681
43433SOL     OW32137   6.361  12.963  13.854
43433SOL    HW132138   6.408  12.883  13.876
43433SOL    HW232139   6.397  13.029  13.914
43434SOL     OW32140   0.252  11.140   5.125
43434SOL    HW132141   0.260  11.114   5.217
43434SOL    HW232142   0.164  11.174   5.117
43435SOL     OW32143   4.297  13.627   7.282
43435SOL    HW132144   4.216  13.650   7.329
43435SOL    HW232145   4.365  13.679   7.325
43436SOL     OW32146  12.040   5.908   0.909
43436SOL    HW132147  12.000   5.821   0.912
43436SOL    HW232148  12.132   5.892   0.929
43437SOL     OW32149  11.723   9.352   5.668
43437SOL    HW132150  11.814   9.381   5.672
43437SOL    HW232151  11.716   9.306   5.584
43438SOL     OW32152  13.240  11.652   9.228
43438SOL    HW132153  13.221  11.562   9.255
43438SOL    HW232154  13.193  11.706   9.291
43439SOL     OW32155  14.725   5.415   3.909
43439SOL    HW132156  14.819   5.407   3.923
43439SOL    HW232157  14.715   5.492   3.854
43440SOL     OW32158   9.950   4.335   4.775
43440SOL    HW132159   9.958   4.293   4.861
43440SOL    HW232160   9.989   4.273   4.714
43441SOL     OW32161  14.564   7.006   6.349
43441SOL    HW132162  14.515   6.954   6.412
43441SOL    HW232163  14.497   7.052   6.299
43442SOL     OW32164   3.889  10.097   6.488
43442SOL    HW132165   3.838  10.054   6.420
43442SOL    HW232166   3.959  10.143   6.440
43443SOL     OW32167   4.287   2.212   1.862
43443SOL    HW132168   4.312   2.187   1.951
43443SOL    HW232169   4.198   2.178   1.851
43444SOL     OW32170   7.702   2.112   5.223
43444SOL    HW132171   7.633   2.166   5.260
43444SOL    HW232172   7.660   2.027   5.208
43445SOL     OW32173   9.807  10.998  11.837
43445SOL    HW132174   9.780  10.983  11.928
43445SOL    HW232175   9.854  10.918  11.813
43446SOL     OW32176   3.728   7.957  10.772
43446SOL    HW132177   3.785   8.009  10.828
43446SOL    HW232178   3.784   7.886  10.740
43447SOL     OW32179   5.744  14.175   6.524
43447SOL    HW132180   5.673  14.149   6.465
43447SOL    HW232181   5.804  14.101   6.524
43448SOL     OW32182  13.445  14.316  10.110
43448SOL    HW132183  13.441  14.221  10.101
43448SOL    HW232184  13.412  14.334  10.198
43449SOL     OW32185   2.033  12.378   3.071
43449SOL    HW132186   1.968  12.368   3.140
43449SOL    HW232187   2.102  12.315   3.094
43450SOL     OW32188  12.978   3.369   1.454
43450SOL    HW132189  13.011   3.294   1.504
43450SOL    HW232190  13.048   3.434   1.461
43451SOL     OW32191   8.768  10.789  13.084
43451SOL    HW132192   8.721  10.811  13.165
43451SOL    HW232193   8.823  10.865  13.067
43452SOL     OW32194   4.320  11.466   8.076
43452SOL    HW132195   4.371  11.490   7.998
43452SOL    HW232196   4.286  11.550   8.108
43453SOL     OW32197  14.490   9.762   0.975
43453SOL    HW132198  14.496   9.806   1.060
43453SOL    HW232199  14.572   9.784   0.931
43454SOL     OW32200   3.311  10.391  13.576
43454SOL    HW132201   3.332  10.306  13.538
43454SOL    HW232202   3.303  10.450  13.501
43455SOL     OW32203   5.558   2.029   5.968
43455SOL    HW132204   5.466   2.002   5.970
43455SOL    HW232205   5.600   1.976   6.035
43456SOL     OW32206  10.281   1.899   9.354
43456SOL    HW132207  10.247   1.872   9.439
43456SOL    HW232208  10.262   1.826   9.295
43457SOL     OW32209   4.983  11.145  12.104
43457SOL    HW132210   4.990  11.184  12.191
43457SOL    HW232211   4.996  11.051  12.119
43458SOL     OW32212  12.763  11.224   7.164
43458SOL    HW132213  12.817  11.162   7.116
43458SOL    HW232214  12.723  11.173   7.235
43459SOL     OW32215  11.767   0.017   7.746
43459SOL    HW132216  11.713   0.053   7.817
43459SOL    HW232217  11.857   0.036   7.772
43460SOL     OW32218   7.436  11.740   5.088
43460SOL    HW132219   7.350  11.733   5.129
43460SOL    HW232220   7.438  11.666   5.026
43461SOL     OW32221   0.818   4.788   9.989
43461SOL    HW132222   0.789   4.698   9.982
43461SOL    HW232223   0.745   4.834  10.030
43462SOL     OW32224  14.366  11.193   8.585
43462SOL    HW132225  14.304  11.266   8.588
43462SOL    HW232226  14.325  11.125   8.637
43463SOL     OW32227   5.921  13.977   6.596
43463SOL    HW132228   5.956  13.926   6.523
43463SOL    HW232229   5.905  13.913   6.665
43464SOL     OW32230   2.057  10.361  13.144
43464SOL    HW132231   2.083  10.305  13.071
43464SOL    HW232232   2.056  10.302  13.220
43465SOL     OW32233  13.308  13.214  13.100
43465SOL    HW132234  13.346  13.264  13.172
43465SOL    HW232235  13.260  13.279  13.048
43466SOL     OW32236  11.332   7.117  14.813
43466SOL    HW132237  11.305   7.135  14.722
43466SOL    HW232238  11.416   7.073  14.805
43467SOL     OW32239   7.915  14.234   4.931
43467SOL    HW132240   7.923  14.327   4.952
43467SOL    HW232241   7.974  14.191   4.992
43468SOL     OW32242  13.662  13.378   4.350
43468SOL    HW132243  13.706  13.294   4.334
43468SOL    HW232244  13.733  13.438   4.374
43469SOL     OW32245   3.005   9.266   8.319
43469SOL    HW132246   3.065   9.275   8.245
43469SOL    HW232247   3.013   9.348   8.367
43470SOL     OW32248   5.398  11.642   0.955
43470SOL    HW132249   5.438  11.556   0.969
43470SOL    HW232250   5.371  11.642   0.863
43471SOL     OW32251   3.806  12.061   4.671
43471SOL    HW132252   3.874  12.050   4.605
43471SOL    HW232253   3.823  12.147   4.710
43472SOL     OW32254   2.800   7.155   0.083
43472SOL    HW132255   2.851   7.130   0.160
43472SOL    HW232256   2.716   7.186   0.119
43473SOL     OW32257  14.647   1.021   6.327
43473SOL    HW132258  14.613   1.044   6.240
43473SOL    HW232259  14.610   0.934   6.344
43474SOL     OW32260  10.692  11.660  12.525
43474SOL    HW132261  10.628  11.612  12.472
43474SOL    HW232262  10.638  11.715  12.582
43475SOL     OW32263   5.983  11.102   6.400
43475SOL    HW132264   6.051  11.106   6.333
43475SOL    HW232265   5.962  11.009   6.408
43476SOL     OW32266  13.356   4.241   6.794
43476SOL    HW132267  13.327   4.318   6.843
43476SOL    HW232268  13.283   4.222   6.736
43477SOL     OW32269  14.783   7.081   0.751
43477SOL    HW132270  14.805   7.162   0.796
43477SOL    HW232271  14.740   7.109   0.670
43478SOL     OW32272   0.848  10.382  10.811
43478SOL    HW132273   0.863  10.341  10.896
43478SOL    HW232274   0.860  10.311  10.747
43479SOL     OW32275   6.557   6.438   6.746
43479SOL    HW132276   6.606   6.359   6.723
43479SOL    HW232277   6.547   6.484   6.663
43480SOL     OW32278  12.398   4.489   4.647
43480SOL    HW132279  12.314   4.489   4.692
43480SOL    HW232280  12.435   4.576   4.665
43481SOL     OW32281  11.157   4.007  10.342
43481SOL    HW132282  11.082   4.004  10.402
43481SOL    HW232283  11.120   4.036  10.259
43482SOL     OW32284   8.232  10.644   4.369
43482SOL    HW132285   8.217  10.652   4.275
43482SOL    HW232286   8.261  10.732   4.396
43483SOL     OW32287   4.016   2.907   4.386
43483SOL    HW132288   4.048   2.997   4.376
43483SOL    HW232289   4.047   2.879   4.472
43484SOL     OW32290  12.398   1.749   6.769
43484SOL    HW132291  12.480   1.771   6.725
43484SOL    HW232292  12.412   1.777   6.860
43485SOL     OW32293   5.515   0.375   6.553
43485SOL    HW132294   5.585   0.317   6.582
43485SOL    HW232295   5.437   0.346   6.602
43486SOL     OW32296   1.270  10.003   0.742
43486SOL    HW132297   1.320  10.083   0.723
43486SOL    HW232298   1.286   9.947   0.666
43487SOL     OW32299   7.350   4.980   6.336
43487SOL    HW132300   7.359   4.893   6.375
43487SOL    HW232301   7.317   4.963   6.248
43488SOL     OW32302   2.854   7.437   8.599
43488SOL    HW132303   2.891   7.495   8.532
43488SOL    HW232304   2.763   7.423   8.571
43489SOL     OW32305   1.730   1.032   3.536
43489SOL    HW132306   1.735   0.983   3.454
43489SOL    HW232307   1.688   1.115   3.512
43490SOL     OW32308  14.821   1.784   8.304
43490SOL    HW132309  14.827   1.854   8.238
43490SOL    HW232310   0.036   1.761   8.321
43491SOL     OW32311   9.422   1.440  12.969
43491SOL    HW132312   9.493   1.390  13.009
43491SOL    HW232313   9.364   1.374  12.930
43492SOL     OW32314  11.238   6.076  13.985
43492SOL    HW132315  11.319   6.052  14.029
43492SOL    HW232316  11.266   6.115  13.903
43493SOL     OW32317  11.862  13.835   1.867
43493SOL    HW132318  11.833  13.903   1.927
43493SOL    HW232319  11.825  13.754   1.902
43494SOL     OW32320   4.932   3.037   5.265
43494SOL    HW132321   4.837   3.045   5.254
43494SOL    HW232322   4.945   2.950   5.303
43495SOL     OW32323   5.074  13.464   2.716
43495SOL    HW132324   5.120  13.534   2.669
43495SOL    HW232325   5.085  13.486   2.809
43496SOL     OW32326   1.368   6.903   9.108
43496SOL    HW132327   1.359   6.998   9.116
43496SOL    HW232328   1.304   6.867   9.169
43497SOL     OW32329  11.230   8.992   7.481
43497SOL    HW132330  11.319   9.023   7.466
43497SOL    HW232331  11.187   9.000   7.396
43498SOL     OW32332  11.850   0.406   6.500
43498SOL    HW132333  11.850   0.343   6.428
43498SOL    HW232334  11.942   0.423   6.518
43499SOL     OW32335   1.493   2.343   3.481
43499SOL    HW132336   1.540   2.265   3.509
43499SOL    HW232337   1.479   2.393   3.561
43500SOL     OW32338   6.895   6.806   5.869
43500SOL    HW132339   6.900   6.870   5.797
43500SOL    HW232340   6.910   6.859   5.948
43501SOL     OW32341   5.913   4.795   5.580
43501SOL    HW132342   5.850   4.724   5.591
43501SOL    HW232343   5.859   4.871   5.560
43502SOL     OW32344   6.140   0.197   2.936
43502SOL    HW132345   6.213   0.136   2.943
43502SOL    HW232346   6.135   0.218   2.843
43503SOL     OW32347  13.212   5.309  11.761
43503SOL    HW132348  13.228   5.347  11.847
43503SOL    HW232349  13.132   5.257  11.773
43504SOL     OW32350   1.552   2.071  10.566
43504SOL    HW132351   1.505   2.068  10.483
43504SOL    HW232352   1.485   2.062  10.633
43505SOL     OW32353   9.875   6.713   7.704
43505SOL    HW132354   9.826   6.671   7.634
43505SOL    HW232355   9.960   6.733   7.665
43506SOL     OW32356   9.209   8.649   1.400
43506SOL    HW132357   9.252   8.590   1.338
43506SOL    HW232358   9.275   8.665   1.467
43507SOL     OW32359   9.385   3.778   5.243
43507SOL    HW132360   9.304   3.747   5.282
43507SOL    HW232361   9.448   3.778   5.315
43508SOL     OW32362   4.959   2.300   9.292
43508SOL    HW132363   4.932   2.390   9.306
43508SOL    HW232364   4.881   2.248   9.310
43509SOL     OW32365   0.333   0.180   6.665
43509SOL    HW132366   0.309   0.213   6.578
43509SOL    HW232367   0.276   0.227   6.725
43510SOL     OW32368  12.318  13.874   2.274
43510SOL    HW132369  12.345  13.957   2.235
43510SOL    HW232370  12.335  13.885   2.367
43511SOL     OW32371   7.824   3.753   1.246
43511SOL    HW132372   7.912   3.774   1.276
43511SOL    HW232373   7.778   3.723   1.324
43512SOL     OW32374   4.364  14.385   0.556
43512SOL    HW132375   4.422  14.444   0.603
43512SOL    HW232376   4.327  14.329   0.624
43513SOL     OW32377   5.575   4.142   9.306
43513SOL    HW132378   5.603   4.218   9.255
43513SOL    HW232379   5.636   4.138   9.379
43514SOL     OW32380   6.506   6.163   4.795
43514SOL    HW132381   6.461   6.123   4.869
43514SOL    HW232382   6.597   6.169   4.823
43515SOL     OW32383   2.562   5.411   8.810
43515SOL    HW132384   2.621   5.405   8.735
43515SOL    HW232385   2.530   5.500   8.808
43516SOL     OW32386   7.712   2.455  13.695
43516SOL    HW132387   7.805   2.459  13.674
43516SOL    HW232388   7.709   2.432  13.788
43517SOL     OW32389  12.497   7.244   4.757
43517SOL    HW132390  12.472   7.153   4.774
43517SOL    HW232391  12.417   7.294   4.769
43518SOL     OW32392   6.456   5.029   3.894
43518SOL    HW132393   6.539   5.034   3.941
43518SOL    HW232394   6.419   5.117   3.901
43519SOL     OW32395  12.495  14.823   2.676
43519SOL    HW132396  12.422  14.777   2.633
43519SOL    HW232397  12.502  14.781   2.762
43520SOL     OW32398   1.528  10.046   9.294
43520SOL    HW132399   1.617  10.027   9.266
43520SOL    HW232400   1.517  10.140   9.276
43521SOL     OW32401   7.067   2.244   5.087
43521SOL    HW132402   6.990   2.302   5.091
43521SOL    HW232403   7.051   2.179   5.155
43522SOL     OW32404  13.427  10.039  11.341
43522SOL    HW132405  13.401  10.124  11.376
43522SOL    HW232406  13.355  10.014  11.283
43523SOL     OW32407   3.224  10.649  10.664
43523SOL    HW132408   3.304  10.679  10.707
43523SOL    HW232409   3.177  10.601  10.732
43524SOL     OW32410   4.039   0.646   5.630
43524SOL    HW132411   4.049   0.684   5.543
43524SOL    HW232412   4.120   0.669   5.676
43525SOL     OW32413   7.974  12.829   5.476
43525SOL    HW132414   8.044  12.766   5.495
43525SOL    HW232415   7.897  12.775   5.458
43526SOL     OW32416   2.805   6.308   7.587
43526SOL    HW132417   2.812   6.249   7.512
43526SOL    HW232418   2.749   6.261   7.649
43527SOL     OW32419  13.274  12.876   8.389
43527SOL    HW132420  13.319  12.898   8.308
43527SOL    HW232421  13.339  12.829   8.441
43528SOL     OW32422  11.311  10.406  11.855
43528SOL    HW132423  11.382  10.421  11.917
43528SOL    HW232424  11.244  10.361  11.906
43529SOL     OW32425   7.795   6.885   0.259
43529SOL    HW132426   7.741   6.822   0.307
43529SOL    HW232427   7.879   6.842   0.248
43530SOL     OW32428   6.637  12.331  14.398
43530SOL    HW132429   6.608  12.362  14.313
43530SOL    HW232430   6.695  12.400  14.431
43531SOL     OW32431   7.453   4.168   0.036
43531SOL    HW132432   7.448   4.257   0.001
43531SOL    HW232433   7.440   4.180   0.131
43532SOL     OW32434   2.404   7.551   3.777
43532SOL    HW132435   2.384   7.491   3.705
43532SOL    HW232436   2.473   7.508   3.827
43533SOL     OW32437   9.665   5.706   2.728
43533SOL    HW132438   9.588   5.760   2.710
43533SOL    HW232439   9.633   5.637   2.785
43534SOL     OW32440   9.706   3.975   9.021
43534SOL    HW132441   9.677   3.886   9.002
43534SOL    HW232442   9.632   4.030   8.995
43535SOL     OW32443  13.413   5.980   6.451
43535SOL    HW132444  13.507   5.995   6.464
43535SOL    HW232445  13.403   5.885   6.460
43536SOL     OW32446   1.781   8.114  14.609
43536SOL    HW132447   1.747   8.203  14.601
43536SOL    HW232448   1.875   8.126  14.621
43537SOL     OW32449   1.976   9.095   9.416
43537SOL    HW132450   1.973   9.113   9.510
43537SOL    HW232451   1.965   9.181   9.374
43538SOL     OW32452   1.496   5.529  10.797
43538SOL    HW132453   1.519   5.621  10.782
43538SOL    HW232454   1.444   5.530  10.877
43539SOL     OW32455   9.382   7.172   2.585
43539SOL    HW132456   9.330   7.168   2.505
43539SOL    HW232457   9.357   7.093   2.634
43540SOL     OW32458   0.663   7.109   8.135
43540SOL    HW132459   0.610   7.050   8.188
43540SOL    HW232460   0.738   7.056   8.108
43541SOL     OW32461  10.089   6.762   7.565
43541SOL    HW132462  10.171   6.720   7.539
43541SOL    HW232463  10.116   6.850   7.592
43542SOL     OW32464  12.398  11.836  12.123
43542SOL    HW132465  12.467  11.786  12.079
43542SOL    HW232466  12.433  11.855  12.210
43543SOL     OW32467  11.581  12.504   8.449
43543SOL    HW132468  11.619  12.589   8.470
43543SOL    HW232469  11.558  12.466   8.534
43544SOL     OW32470  13.278   2.301   2.215
43544SOL    HW132471  13.292   2.283   2.308
43544SOL    HW232472  13.366   2.312   2.179
43545SOL     OW32473   4.255   4.416  11.189
43545SOL    HW132474   4.340   4.429  11.147
43545SOL    HW232475   4.191   4.447  11.124
43546SOL     OW32476   6.608   8.928   5.647
43546SOL    HW132477   6.552   8.987   5.597
43546SOL    HW232478   6.649   8.984   5.714
43547SOL     OW32479  11.154   5.761   3.698
43547SOL    HW132480  11.143   5.700   3.771
43547SOL    HW232481  11.074   5.751   3.647
43548SOL     OW32482   5.443   5.454   7.700
43548SOL    HW132483   5.425   5.430   7.791
43548SOL    HW232484   5.363   5.430   7.652
43549SOL     OW32485   4.365   0.208   6.902
43549SOL    HW132486   4.396   0.299   6.903
43549SOL    HW232487   4.438   0.157   6.937
43550SOL     OW32488   3.580   9.438  11.028
43550SOL    HW132489   3.531   9.498  10.972
43550SOL    HW232490   3.623   9.378  10.967
43551SOL     OW32491  10.264  13.353   3.974
43551SOL    HW132492  10.211  13.422   4.013
43551SOL    HW232493  10.201  13.291   3.937
43552SOL     OW32494  10.330   7.896   1.414
43552SOL    HW132495  10.338   7.988   1.388
43552SOL    HW232496  10.353   7.894   1.506
43553SOL     OW32497   4.174  12.275   8.688
43553SOL    HW132498   4.128  12.231   8.759
43553SOL    HW232499   4.267  12.262   8.709
43554SOL     OW32500  11.841   7.979  12.289
43554SOL    HW132501  11.803   7.894  12.314
43554SOL    HW232502  11.855   8.024  12.372
43555SOL     OW32503   5.032   8.248   0.096
43555SOL    HW132504   4.967   8.284   0.156
43555SOL    HW232505   4.982   8.189   0.040
43556SOL     OW32506   8.492   5.510   0.122
43556SOL    HW132507   8.449   5.437   0.166
43556SOL    HW232508   8.538   5.471   0.048
43557SOL     OW32509   9.839   7.391   4.136
43557SOL    HW132510   9.818   7.437   4.055
43557SOL    HW232511   9.842   7.459   4.203
43558SOL     OW32512   5.861   1.277  11.507
43558SOL    HW132513   5.765   1.276  11.507
43558SOL    HW232514   5.884   1.269  11.414
43559SOL     OW32515  11.451   8.687  11.097
43559SOL    HW132516  11.375   8.701  11.153
43559SOL    HW232517  11.424   8.619  11.035
43560SOL     OW32518   9.861   9.096  10.680
43560SOL    HW132519   9.823   9.180  10.655
43560SOL    HW232520   9.941   9.120  10.728
43561SOL     OW32521   4.731  11.601   5.941
43561SOL    HW132522   4.785  11.650   6.003
43561SOL    HW232523   4.762  11.628   5.855
43562SOL     OW32524   0.377   6.383  11.848
43562SOL    HW132525   0.389   6.468  11.806
43562SOL    HW232526   0.282   6.369  11.847
43563SOL     OW32527   9.373  11.464  11.749
43563SOL    HW132528   9.433  11.419  11.690
43563SOL    HW232529   9.390  11.557  11.734
43564SOL     OW32530  11.468   1.685   2.258
43564SOL    HW132531  11.509   1.604   2.227
43564SOL    HW232532  11.394   1.698   2.200
43565SOL     OW32533   1.831   4.057   7.722
43565SOL    HW132534   1.903   4.051   7.785
43565SOL    HW232535   1.827   4.150   7.699
43566SOL     OW32536   0.476   0.504   3.664
43566SOL    HW132537   0.518   0.566   3.605
43566SOL    HW232538   0.541   0.486   3.732
43567SOL     OW32539   4.993   8.747  13.169
43567SOL    HW132540   5.020   8.655  13.166
43567SOL    HW232541   5.062   8.794  13.121
43568SOL     OW32542  11.849  13.116   2.357
43568SOL    HW132543  11.777  13.161   2.311
43568SOL    HW232544  11.895  13.067   2.289
43569SOL     OW32545  13.190   5.912   5.390
43569SOL    HW132546  13.213   5.950   5.475
43569SOL    HW232547  13.246   5.834   5.383
43570SOL     OW32548   6.371   2.027   3.044
43570SOL    HW132549   6.371   1.996   3.135
43570SOL    HW232550   6.454   1.996   3.008
43571SOL     OW32551  12.906   8.258   2.734
43571SOL    HW132552  12.852   8.183   2.711
43571SOL    HW232553  12.980   8.222   2.781
43572SOL     OW32554   6.849  13.588   5.210
43572SOL    HW132555   6.851  13.583   5.306
43572SOL    HW232556   6.887  13.673   5.190
43573SOL     OW32557  10.479   1.354   4.551
43573SOL    HW132558  10.500   1.310   4.469
43573SOL    HW232559  10.426   1.290   4.599
43574SOL     OW32560   0.109   4.805   2.501
43574SOL    HW132561   0.090   4.897   2.522
43574SOL    HW232562   0.197   4.807   2.463
43575SOL     OW32563   9.200   8.345  13.069
43575SOL    HW132564   9.202   8.302  12.984
43575SOL    HW232565   9.290   8.371  13.086
43576SOL     OW32566  11.860   1.699   2.230
43576SOL    HW132567  11.816   1.722   2.148
43576SOL    HW232568  11.853   1.778   2.284
43577SOL     OW32569  10.349   4.258   2.120
43577SOL    HW132570  10.322   4.176   2.078
43577SOL    HW232571  10.438   4.273   2.089
43578SOL     OW32572  12.746   8.011  10.611
43578SOL    HW132573  12.707   7.934  10.570
43578SOL    HW232574  12.694   8.026  10.690
43579SOL     OW32575   2.971   8.342   5.980
43579SOL    HW132576   3.012   8.362   5.895
43579SOL    HW232577   3.005   8.409   6.039
43580SOL     OW32578   6.435   9.074   6.327
43580SOL    HW132579   6.470   9.057   6.415
43580SOL    HW232580   6.504   9.122   6.282
43581SOL     OW32581  14.565   1.642   8.226
43581SOL    HW132582  14.527   1.693   8.154
43581SOL    HW232583  14.653   1.678   8.237
43582SOL     OW32584   7.669   3.367   8.692
43582SOL    HW132585   7.716   3.404   8.617
43582SOL    HW232586   7.730   3.377   8.765
43583SOL     OW32587   8.779  12.910  10.563
43583SOL    HW132588   8.799  12.904  10.657
43583SOL    HW232589   8.853  12.866  10.520
43584SOL     OW32590   0.476   4.823   1.732
43584SOL    HW132591   0.434   4.779   1.806
43584SOL    HW232592   0.419   4.806   1.658
43585SOL     OW32593  13.426   9.579   8.475
43585SOL    HW132594  13.509   9.612   8.439
43585SOL    HW232595  13.392   9.651   8.528
43586SOL     OW32596  13.841   7.019  14.374
43586SOL    HW132597  13.815   6.963  14.447
43586SOL    HW232598  13.843   7.107  14.410
43587SOL     OW32599  14.618   4.778   3.871
43587SOL    HW132600  14.656   4.798   3.785
43587SOL    HW232601  14.642   4.854   3.925
43588SOL     OW32602   3.467   5.620   3.817
43588SOL    HW132603   3.539   5.656   3.766
43588SOL    HW232604   3.433   5.695   3.866
43589SOL     OW32605   0.171  13.574   6.409
43589SOL    HW132606   0.237  13.532   6.355
43589SOL    HW232607   0.164  13.663   6.374
43590SOL     OW32608   1.143   8.885  13.676
43590SOL    HW132609   1.217   8.827  13.658
43590SOL    HW232610   1.106   8.850  13.757
43591SOL     OW32611  14.662   8.568  13.164
43591SOL    HW132612  14.621   8.655  13.163
43591SOL    HW232613  14.661   8.541  13.072
43592SOL     OW32614   5.139   2.322  12.687
43592SOL    HW132615   5.122   2.228  12.679
43592SOL    HW232616   5.160   2.334  12.780
43593SOL     OW32617   5.856   2.171  12.404
43593SOL    HW132618   5.936   2.220  12.424
43593SOL    HW232619   5.870   2.137  12.316
43594SOL     OW32620  10.084   0.103  10.375
43594SOL    HW132621  10.145   0.036  10.343
43594SOL    HW232622  10.035   0.060  10.445
43595SOL     OW32623  12.123   4.625   3.708
43595SOL    HW132624  12.157   4.702   3.753
43595SOL    HW232625  12.189   4.557   3.722
43596SOL     OW32626   1.832  12.890   3.489
43596SOL    HW132627   1.774  12.931   3.554
43596SOL    HW232628   1.881  12.825   3.538
43597SOL     OW32629   2.463   9.575   3.725
43597SOL    HW132630   2.432   9.556   3.813
43597SOL    HW232631   2.552   9.608   3.738
43598SOL     OW32632   4.863   3.427   7.137
43598SOL    HW132633   4.907   3.485   7.075
43598SOL    HW232634   4.817   3.487   7.197
43599SOL     OW32635  12.012   3.612  11.070
43599SOL    HW132636  12.030   3.535  11.125
43599SOL    HW232637  11.917   3.619  11.068
43600SOL     OW32638   4.048   3.267   1.723
43600SOL    HW132639   4.043   3.295   1.632
43600SOL    HW232640   4.115   3.198   1.723
43601SOL     OW32641  10.700  14.437  12.733
43601SOL    HW132642  10.759  14.461  12.804
43601SOL    HW232643  10.646  14.515  12.719
43602SOL     OW32644   0.326  10.750   9.210
43602SOL    HW132645   0.301  10.658   9.200
43602SOL    HW232646   0.242  10.797   9.208
43603SOL     OW32647  11.380   1.940   5.579
43603SOL    HW132648  11.306   1.880   5.579
43603SOL    HW232649  11.379   1.979   5.491
43604SOL     OW32650   3.668  10.445   5.686
43604SOL    HW132651   3.739  10.444   5.751
43604SOL    HW232652   3.693  10.514   5.625
43605SOL     OW32653  10.008   4.528  12.184
43605SOL    HW132654   9.985   4.517  12.276
43605SOL    HW232655   9.981   4.618  12.162
43606SOL     OW32656   9.076  12.326   1.897
43606SOL    HW132657   9.120  12.245   1.922
43606SOL    HW232658   8.988  12.299   1.871
43607SOL     OW32659   7.984  12.488   4.633
43607SOL    HW132660   8.078  12.493   4.615
43607SOL    HW232661   7.977  12.423   4.703
43608SOL     OW32662  12.796   8.381  11.319
43608SOL    HW132663  12.753   8.393  11.404
43608SOL    HW232664  12.886   8.357  11.342
43609SOL     OW32665  10.619  14.216  13.687
43609SOL    HW132666  10.600  14.308  13.673
43609SOL    HW232667  10.640  14.209  13.780
43610SOL     OW32668   9.970   1.781  13.633
43610SOL    HW132669   9.932   1.707  13.587
43610SOL    HW232670   9.935   1.775  13.722
43611SOL     OW32671   3.500  10.805   4.606
43611SOL    HW132672   3.508  10.758   4.689
43611SOL    HW232673   3.587  10.799   4.566
43612SOL     OW32674  12.412   8.539   2.543
43612SOL    HW132675  12.349   8.467   2.540
43612SOL    HW232676  12.497   8.499   2.526
43613SOL     OW32677   0.979   8.385   3.731
43613SOL    HW132678   0.936   8.318   3.785
43613SOL    HW232679   0.908   8.425   3.682
43614SOL     OW32680   9.279  14.103   6.694
43614SOL    HW132681   9.304  14.177   6.639
43614SOL    HW232682   9.361  14.059   6.716
43615SOL     OW32683  11.169   8.405   6.270
43615SOL    HW132684  11.222   8.445   6.201
43615SOL    HW232685  11.079   8.423   6.244
43616SOL     OW32686  13.258  10.083   1.765
43616SOL    HW132687  13.206  10.003   1.777
43616SOL    HW232688  13.274  10.114   1.854
43617SOL     OW32689   6.723  13.193  10.343
43617SOL    HW132690   6.809  13.225  10.368
43617SOL    HW232691   6.716  13.107  10.383
43618SOL     OW32692   6.633   0.235   1.378
43618SOL    HW132693   6.677   0.204   1.457
43618SOL    HW232694   6.668   0.323   1.364
43619SOL     OW32695   6.764  12.079  12.892
43619SOL    HW132696   6.809  12.074  12.808
43619SOL    HW232697   6.794  12.161  12.931
43620SOL     OW32698   6.159   9.525   6.428
43620SOL    HW132699   6.071   9.488   6.436
43620SOL    HW232700   6.183   9.551   6.518
43621SOL     OW32701   4.177   9.913   5.856
43621SOL    HW132702   4.105   9.872   5.904
43621SOL    HW232703   4.188   9.858   5.778
43622SOL     OW32704   6.592  12.253   2.388
43622SOL    HW132705   6.540  12.172   2.388
43622SOL    HW232706   6.624  12.261   2.299
43623SOL     OW32707   4.929  14.713   6.651
43623SOL    HW132708   4.915  14.624   6.618
43623SOL    HW232709   4.994  14.703   6.721
43624SOL     OW32710  12.314   2.803   0.012
43624SOL    HW132711  12.369   2.879   0.031
43624SOL    HW232712  12.303   2.759   0.096
43625SOL     OW32713  12.625   7.909   3.155
43625SOL    HW132714  12.558   7.976   3.164
43625SOL    HW232715  12.584   7.829   3.188
43626SOL     OW32716  11.412   1.853   7.584
43626SOL    HW132717  11.478   1.811   7.528
43626SOL    HW232718  11.332   1.804   7.567
43627SOL     OW32719   5.776  11.469   7.666
43627SOL    HW132720   5.852  11.426   7.626
43627SOL    HW232721   5.795  11.469   7.760
43628SOL     OW32722  14.388   8.472  14.508
43628SOL    HW132723  14.324   8.522  14.558
43628SOL    HW232724  14.336   8.427  14.441
43629SOL     OW32725  12.332   0.902   5.639
43629SOL    HW132726  12.280   0.860   5.570
43629SOL    HW232727  12.365   0.830   5.692
43630SOL     OW32728  14.251   0.300  13.889
43630SOL    HW132729  14.211   0.225  13.933
43630SOL    HW232730  14.301   0.262  13.817
43631SOL     OW32731   5.679  10.866   5.324
43631SOL    HW132732   5.768  10.831   5.333
43631SOL    HW232733   5.673  10.896   5.233
43632SOL     OW32734  11.152   3.767  14.693
43632SOL    HW132735  11.086   3.788  14.758
43632SOL    HW232736  11.144   3.673  14.679
43633SOL     OW32737  10.452  14.130  12.263
43633SOL    HW132738  10.408  14.159  12.343
43633SOL    HW232739  10.483  14.211  12.222
43634SOL     OW32740  14.818   0.663   7.306
43634SOL    HW132741  14.761   0.589   7.285
43634SOL    HW232742  14.759   0.731   7.336
43635SOL     OW32743  12.054  12.838   0.959
43635SOL    HW132744  12.096  12.789   0.887
43635SOL    HW232745  12.115  12.830   1.032
43636SOL     OW32746  13.102   4.547   6.865
43636SOL    HW132747  13.101   4.642   6.847
43636SOL    HW232748  13.179   4.534   6.920
43637SOL     OW32749   0.071   2.401   8.916
43637SOL    HW132750  14.862   2.390   8.874
43637SOL    HW232751   0.050   2.424   9.007
43638SOL     OW32752   2.859   9.063   3.884
43638SOL    HW132753   2.870   9.008   3.807
43638SOL    HW232754   2.854   9.153   3.850
43639SOL     OW32755  11.215   5.718  12.823
43639SOL    HW132756  11.307   5.726  12.799
43639SOL    HW232757  11.189   5.806  12.850
43640SOL     OW32758  11.987   3.276  14.183
43640SOL    HW132759  11.937   3.357  14.173
43640SOL    HW232760  11.995   3.242  14.094
43641SOL     OW32761   7.624  12.367   8.472
43641SOL    HW132762   7.640  12.456   8.504
43641SOL    HW232763   7.536  12.346   8.504
43642SOL     OW32764   1.301   5.967  13.877
43642SOL    HW132765   1.232   5.901  13.879
43642SOL    HW232766   1.378   5.921  13.846
43643SOL     OW32767   8.210  13.819   1.193
43643SOL    HW132768   8.270  13.888   1.164
43643SOL    HW232769   8.232  13.807   1.286
43644SOL     OW32770  11.605  13.681  14.764
43644SOL    HW132771  11.619  13.701  14.857
43644SOL    HW232772  11.516  13.644  14.762
43645SOL     OW32773  12.411   6.285   5.915
43645SOL    HW132774  12.439   6.252   6.001
43645SOL    HW232775  12.465   6.238   5.852
43646SOL     OW32776   0.642  14.295  13.049
43646SOL    HW132777   0.633  14.212  13.001
43646SOL    HW232778   0.582  14.355  13.005
43647SOL     OW32779   6.886   5.700   4.077
43647SOL    HW132780   6.814   5.739   4.028
43647SOL    HW232781   6.929   5.642   4.014
43648SOL     OW32782  13.499   8.592   2.353
43648SOL    HW132783  13.556   8.519   2.331
43648SOL    HW232784  13.558   8.662   2.380
43649SOL     OW32785   5.639  10.954   1.430
43649SOL    HW132786   5.645  11.025   1.495
43649SOL    HW232787   5.631  10.875   1.482
43650SOL     OW32788   0.505   4.219   2.530
43650SOL    HW132789   0.444   4.210   2.456
43650SOL    HW232790   0.573   4.278   2.498
43651SOL     OW32791   0.142  10.424   5.699
43651SOL    HW132792   0.228  10.396   5.732
43651SOL    HW232793   0.161  10.499   5.643
43652SOL     OW32794  10.070  14.844  14.522
43652SOL    HW132795  10.013   0.016  14.582
43652SOL    HW232796  10.108  14.774  14.576
43653SOL     OW32797  14.800   9.077  12.393
43653SOL    HW132798  14.787   9.162  12.352
43653SOL    HW232799  14.873   9.038  12.344
43654SOL     OW32800   8.778   0.910   5.564
43654SOL    HW132801   8.702   0.961   5.590
43654SOL    HW232802   8.820   0.885   5.647
43655SOL     OW32803   4.629  13.383   1.982
43655SOL    HW132804   4.640  13.373   1.888
43655SOL    HW232805   4.656  13.299   2.019
43656SOL     OW32806   0.455   4.422   1.586
43656SOL    HW132807   0.413   4.415   1.672
43656SOL    HW232808   0.435   4.510   1.557
43657SOL     OW32809   9.198   9.646   6.004
43657SOL    HW132810   9.122   9.687   5.962
43657SOL    HW232811   9.259   9.629   5.933
43658SOL     OW32812  11.458  11.002   1.898
43658SOL    HW132813  11.506  10.959   1.968
43658SOL    HW232814  11.427  10.931   1.842
43659SOL     OW32815   9.893   6.836   7.236
43659SOL    HW132816   9.937   6.890   7.171
43659SOL    HW232817   9.886   6.750   7.195
43660SOL     OW32818   7.941   4.547   2.359
43660SOL    HW132819   7.848   4.527   2.351
43660SOL    HW232820   7.951   4.633   2.318
43661SOL     OW32821   4.138   8.269   4.035
43661SOL    HW132822   4.168   8.188   3.994
43661SOL    HW232823   4.217   8.307   4.073
43662SOL     OW32824   0.243   5.047   4.486
43662SOL    HW132825   0.250   5.027   4.392
43662SOL    HW232826   0.190   4.976   4.521
43663SOL     OW32827   9.220   9.149   7.416
43663SOL    HW132828   9.267   9.153   7.499
43663SOL    HW232829   9.278   9.101   7.358
43664SOL     OW32830   0.997  11.442   3.411
43664SOL    HW132831   0.940  11.365   3.404
43664SOL    HW232832   0.938  11.513   3.439
43665SOL     OW32833   4.143   3.596   1.662
43665SOL    HW132834   4.083   3.547   1.605
43665SOL    HW232835   4.123   3.564   1.750
43666SOL     OW32836   5.285   7.775   5.755
43666SOL    HW132837   5.285   7.801   5.663
43666SOL    HW232838   5.250   7.686   5.755
43667SOL     OW32839   9.719   5.764   9.994
43667SOL    HW132840   9.805   5.802  10.012
43667SOL    HW232841   9.673   5.770  10.077
43668SOL     OW32842   4.887   2.931  14.190
43668SOL    HW132843   4.965   2.968  14.231
43668SOL    HW232844   4.838   3.007  14.158
43669SOL     OW32845   0.722   4.098   3.419
43669SOL    HW132846   0.675   4.081   3.500
43669SOL    HW232847   0.718   4.016   3.370
43670SOL     OW32848   3.423   9.069   0.404
43670SOL    HW132849   3.503   9.032   0.441
43670SOL    HW232850   3.378   8.995   0.364
43671SOL     OW32851   4.192   2.843   0.846
43671SOL    HW132852   4.221   2.867   0.758
43671SOL    HW232853   4.099   2.821   0.835
43672SOL     OW32854   4.578   7.562  12.891
43672SOL    HW132855   4.639   7.635  12.887
43672SOL    HW232856   4.624   7.489  12.850
43673SOL     OW32857  12.071  14.602   3.721
43673SOL    HW132858  12.086  14.511   3.694
43673SOL    HW232859  11.977  14.616   3.709
43674SOL     OW32860   2.580   5.297   3.367
43674SOL    HW132861   2.546   5.286   3.456
43674SOL    HW232862   2.621   5.384   3.368
43675SOL     OW32863  12.585   4.076   7.383
43675SOL    HW132864  12.540   4.104   7.304
43675SOL    HW232865  12.627   4.156   7.416
43676SOL     OW32866   8.046   3.144   4.088
43676SOL    HW132867   8.059   3.148   4.182
43676SOL    HW232868   8.130   3.169   4.050
43677SOL     OW32869  11.090   8.206   9.302
43677SOL    HW132870  11.046   8.288   9.324
43677SOL    HW232871  11.053   8.181   9.218
43678SOL     OW32872  12.579   7.967   9.902
43678SOL    HW132873  12.653   7.993   9.957
43678SOL    HW232874  12.502   7.988   9.954
43679SOL     OW32875   2.384  10.994  13.878
43679SOL    HW132876   2.379  11.038  13.963
43679SOL    HW232877   2.460  10.936  13.886
43680SOL     OW32878  13.003   7.545   9.555
43680SOL    HW132879  13.011   7.466   9.608
43680SOL    HW232880  13.002   7.617   9.618
43681SOL     OW32881   4.164   2.260   9.803
43681SOL    HW132882   4.221   2.239   9.730
43681SOL    HW232883   4.223   2.267   9.878
43682SOL     OW32884   8.891  10.484   5.980
43682SOL    HW132885   8.818  10.441   6.023
43682SOL    HW232886   8.950  10.508   6.052
43683SOL     OW32887   7.357  10.600   8.687
43683SOL    HW132888   7.361  10.589   8.592
43683SOL    HW232889   7.434  10.555   8.721
43684SOL     OW32890   8.471   4.345   7.228
43684SOL    HW132891   8.489   4.312   7.315
43684SOL    HW232892   8.556   4.346   7.184
43685SOL     OW32893   4.152   6.426   9.181
43685SOL    HW132894   4.152   6.521   9.187
43685SOL    HW232895   4.244   6.402   9.165
43686SOL     OW32896   3.395   7.053   4.878
43686SOL    HW132897   3.408   7.107   4.956
43686SOL    HW232898   3.477   7.003   4.870
43687SOL     OW32899   5.286   7.825   7.492
43687SOL    HW132900   5.273   7.871   7.575
43687SOL    HW232901   5.199   7.798   7.465
43688SOL     OW32902  12.243   4.032   4.112
43688SOL    HW132903  12.202   4.087   4.045
43688SOL    HW232904  12.179   3.964   4.131
43689SOL     OW32905  13.238  14.842   8.949
43689SOL    HW132906  13.326  14.876   8.929
43689SOL    HW232907  13.179   0.036   8.921
43690SOL     OW32908  12.049  10.736   5.187
43690SOL    HW132909  12.014  10.652   5.217
43690SOL    HW232910  12.067  10.723   5.094
43691SOL     OW32911   7.013   0.460   4.814
43691SOL    HW132912   7.094   0.439   4.860
43691SOL    HW232913   6.944   0.444   4.878
43692SOL     OW32914  12.562   0.403   8.470
43692SOL    HW132915  12.531   0.350   8.396
43692SOL    HW232916  12.573   0.491   8.433
43693SOL     OW32917   0.852   3.245  12.232
43693SOL    HW132918   0.873   3.157  12.265
43693SOL    HW232919   0.782   3.275  12.290
43694SOL     OW32920  10.714   0.103   3.674
43694SOL    HW132921  10.765   0.161   3.617
43694SOL    HW232922  10.775   0.078   3.743
43695SOL     OW32923   4.815   5.597   6.932
43695SOL    HW132924   4.767   5.585   6.850
43695SOL    HW232925   4.858   5.513   6.947
43696SOL     OW32926  13.216   4.404  10.833
43696SOL    HW132927  13.293   4.460  10.821
43696SOL    HW232928  13.149   4.443  10.778
43697SOL     OW32929   9.684   6.978  13.836
43697SOL    HW132930   9.765   7.008  13.877
43697SOL    HW232931   9.666   7.043  13.769
43698SOL     OW32932  10.469  11.437   0.912
43698SOL    HW132933  10.553  11.465   0.950
43698SOL    HW232934  10.439  11.513   0.863
43699SOL     OW32935   7.717  13.520   9.734
43699SOL    HW132936   7.698  13.428   9.748
43699SOL    HW232937   7.645  13.567   9.776
43700SOL     OW32938  11.589   8.992  10.692
43700SOL    HW132939  11.681   9.012  10.710
43700SOL    HW232940  11.570   8.915  10.746
43701SOL     OW32941  11.080  14.044  11.634
43701SOL    HW132942  11.077  14.029  11.539
43701SOL    HW232943  11.002  14.097  11.652
43702SOL     OW32944   1.669   0.632   7.895
43702SOL    HW132945   1.619   0.713   7.896
43702SOL    HW232946   1.604   0.564   7.879
43703SOL     OW32947   4.911  13.566  11.290
43703SOL    HW132948   4.910  13.470  11.280
43703SOL    HW232949   4.879  13.581  11.379
43704SOL     OW32950  13.611  13.661  13.185
43704SOL    HW132951  13.565  13.698  13.110
43704SOL    HW232952  13.703  13.657  13.158
43705SOL     OW32953   2.713   2.631   1.499
43705SOL    HW132954   2.661   2.648   1.420
43705SOL    HW232955   2.703   2.536   1.514
43706SOL     OW32956  10.032   2.694   2.946
43706SOL    HW132957  10.103   2.657   2.893
43706SOL    HW232958  10.011   2.625   3.009
43707SOL     OW32959  11.926   5.062   8.234
43707SOL    HW132960  11.947   5.075   8.141
43707SOL    HW232961  11.919   5.151   8.269
43708SOL     OW32962  11.128  12.075   7.305
43708SOL    HW132963  11.077  11.995   7.290
43708SOL    HW232964  11.063  12.144   7.316
43709SOL     OW32965  11.389   1.217   2.637
43709SOL    HW132966  11.412   1.149   2.701
43709SOL    HW232967  11.294   1.219   2.638
43710SOL     OW32968  12.590   1.234  10.476
43710SOL    HW132969  12.595   1.209  10.568
43710SOL    HW232970  12.679   1.222  10.443
43711SOL     OW32971   6.126   0.498   0.938
43711SOL    HW132972   6.083   0.510   1.022
43711SOL    HW232973   6.211   0.541   0.948
43712SOL     OW32974  13.581  14.864  14.628
43712SOL    HW132975  13.584  14.819  14.544
43712SOL    HW232976  13.673   0.006  14.649
43713SOL     OW32977  13.974   8.227  12.983
43713SOL    HW132978  14.009   8.234  13.072
43713SOL    HW232979  14.016   8.149  12.947
43714SOL     OW32980  12.992  11.784   4.330
43714SOL    HW132981  13.022  11.812   4.244
43714SOL    HW232982  12.984  11.689   4.323
43715SOL     OW32983   2.427   1.306   0.205
43715SOL    HW132984   2.359   1.238   0.197
43715SOL    HW232985   2.410   1.365   0.131
43716SOL     OW32986   5.089   5.237   7.832
43716SOL    HW132987   4.995   5.223   7.844
43716SOL    HW232988   5.106   5.323   7.870
43717SOL     OW32989  10.649   8.915   4.750
43717SOL    HW132990  10.605   8.997   4.768
43717SOL    HW232991  10.741   8.932   4.768
43718SOL     OW32992   3.283  14.022   1.630
43718SOL    HW132993   3.305  13.949   1.688
43718SOL    HW232994   3.188  14.016   1.620
43719SOL     OW32995   0.878   4.560   9.331
43719SOL    HW132996   0.885   4.466   9.352
43719SOL    HW232997   0.920   4.604   9.405
43720SOL     OW32998  10.988   5.526   4.297
43720SOL    HW132999  10.974   5.616   4.268
43720SOL    HW233000  11.005   5.534   4.391
43721SOL     OW33001  10.020   3.937   8.239
43721SOL    HW133002  10.028   3.920   8.145
43721SOL    HW233003  10.111   3.945   8.269
43722SOL     OW33004   5.375   1.433   3.987
43722SOL    HW133005   5.446   1.413   4.048
43722SOL    HW233006   5.409   1.406   3.901
43723SOL     OW33007   4.022  10.461  11.935
43723SOL    HW133008   4.076  10.431  11.862
43723SOL    HW233009   4.041  10.555  11.942
43724SOL     OW33010   2.949   3.857   0.415
43724SOL    HW133011   3.002   3.801   0.358
43724SOL    HW233012   2.989   3.944   0.408
43725SOL     OW33013   6.956   4.836   7.301
43725SOL    HW133014   6.881   4.875   7.346
43725SOL    HW233015   7.032   4.870   7.348
43726SOL     OW33016   6.840   7.083   4.260
43726SOL    HW133017   6.792   7.007   4.228
43726SOL    HW233018   6.823   7.085   4.354
43727SOL     OW33019   3.352  10.321   7.084
43727SOL    HW133020   3.290  10.333   7.013
43727SOL    HW233021   3.386  10.410   7.101
43728SOL     OW33022  10.209   7.938   2.904
43728SOL    HW133023  10.255   8.006   2.854
43728SOL    HW233024  10.271   7.914   2.973
43729SOL     OW33025   5.002   8.413   9.417
43729SOL    HW133026   5.058   8.398   9.493
43729SOL    HW233027   5.064   8.418   9.343
43730SOL     OW33028  10.852   4.860   1.762
43730SOL    HW133029  10.841   4.786   1.822
43730SOL    HW233030  10.939   4.848   1.725
43731SOL     OW33031   5.568   0.067  13.708
43731SOL    HW133032   5.575   0.092  13.616
43731SOL    HW233033   5.531   0.144  13.752
43732SOL     OW33034   9.301   0.928   5.615
43732SOL    HW133035   9.342   0.981   5.683
43732SOL    HW233036   9.274   0.847   5.660
43733SOL     OW33037   5.412   9.045   3.241
43733SOL    HW133038   5.331   9.094   3.226
43733SOL    HW233039   5.391   8.985   3.312
43734SOL     OW33040   3.570   0.882   5.521
43734SOL    HW133041   3.486   0.870   5.564
43734SOL    HW233042   3.568   0.971   5.486
43735SOL     OW33043  12.680   0.672   5.141
43735SOL    HW133044  12.700   0.584   5.109
43735SOL    HW233045  12.640   0.716   5.066
43736SOL     OW33046   4.720   7.544   0.328
43736SOL    HW133047   4.666   7.466   0.312
43736SOL    HW233048   4.732   7.546   0.423
43737SOL     OW33049   7.347  11.516  11.010
43737SOL    HW133050   7.327  11.582  10.944
43737SOL    HW233051   7.438  11.535  11.035
43738SOL     OW33052  10.446   7.582   5.220
43738SOL    HW133053  10.358   7.554   5.194
43738SOL    HW233054  10.455   7.670   5.183
43739SOL     OW33055  10.476   4.261   2.708
43739SOL    HW133056  10.511   4.314   2.780
43739SOL    HW233057  10.518   4.296   2.630
43740SOL     OW33058   2.518   3.450   4.917
43740SOL    HW133059   2.572   3.472   4.993
43740SOL    HW233060   2.434   3.424   4.954
43741SOL     OW33061  12.269   6.826   2.318
43741SOL    HW133062  12.223   6.885   2.258
43741SOL    HW233063  12.342   6.791   2.266
43742SOL     OW33064   1.701  11.084   0.486
43742SOL    HW133065   1.723  11.134   0.407
43742SOL    HW233066   1.733  11.138   0.558
43743SOL     OW33067  13.299   4.703   6.097
43743SOL    HW133068  13.287   4.774   6.034
43743SOL    HW233069  13.243   4.633   6.065
43744SOL     OW33070   4.540   2.913   4.802
43744SOL    HW133071   4.454   2.897   4.762
43744SOL    HW233072   4.599   2.857   4.752
43745SOL     OW33073   3.831   2.691   8.905
43745SOL    HW133074   3.795   2.627   8.843
43745SOL    HW233075   3.886   2.748   8.852
43746SOL     OW33076  10.784   3.068  14.327
43746SOL    HW133077  10.820   3.145  14.370
43746SOL    HW233078  10.742   3.019  14.397
43747SOL     OW33079   1.163  10.227   4.629
43747SOL    HW133080   1.135  10.195   4.714
43747SOL    HW233081   1.119  10.311   4.618
43748SOL     OW33082  13.273   0.234   2.125
43748SOL    HW133083  13.314   0.149   2.144
43748SOL    HW233084  13.347   0.294   2.114
43749SOL     OW33085   7.256  13.261   6.827
43749SOL    HW133086   7.309  13.318   6.770
43749SOL    HW233087   7.202  13.321   6.877
43750SOL     OW33088  14.873  10.935   9.511
43750SOL    HW133089  14.841  10.856   9.468
43750SOL    HW233090   0.092  10.931   9.502
43751SOL     OW33091   3.176   7.648   9.448
43751SOL    HW133092   3.085   7.674   9.462
43751SOL    HW233093   3.185   7.565   9.495
43752SOL     OW33094   5.949  10.484   8.350
43752SOL    HW133095   6.001  10.530   8.283
43752SOL    HW233096   5.864  10.527   8.347
43753SOL     OW33097   3.802   0.239   2.674
43753SOL    HW133098   3.821   0.244   2.580
43753SOL    HW233099   3.800   0.329   2.703
43754SOL     OW33100   0.286  14.056   6.923
43754SOL    HW133101   0.326  14.018   6.845
43754SOL    HW233102   0.192  14.042   6.911
43755SOL     OW33103   2.958   9.018   7.722
43755SOL    HW133104   3.048   9.048   7.708
43755SOL    HW233105   2.961   8.969   7.804
43756SOL     OW33106   4.498  11.484   1.876
43756SOL    HW133107   4.410  11.481   1.839
43756SOL    HW233108   4.539  11.402   1.848
43757SOL     OW33109  13.284   4.210  10.652
43757SOL    HW133110  13.207   4.196  10.707
43757SOL    HW233111  13.321   4.292  10.684
43758SOL     OW33112   1.042   4.031  14.303
43758SOL    HW133113   0.993   3.976  14.364
43758SOL    HW233114   1.108   3.972  14.266
43759SOL     OW33115   2.331   8.676   3.853
43759SOL    HW133116   2.389   8.659   3.927
43759SOL    HW233117   2.288   8.592   3.837
43760SOL     OW33118  14.039   1.753  11.924
43760SOL    HW133119  14.125   1.762  11.882
43760SOL    HW233120  14.020   1.659  11.922
43761SOL     OW33121  12.361   6.635   8.400
43761SOL    HW133122  12.300   6.570   8.436
43761SOL    HW233123  12.338   6.641   8.308
43762SOL     OW33124   3.935   2.746   3.478
43762SOL    HW133125   3.852   2.791   3.492
43762SOL    HW233126   4.000   2.817   3.472
43763SOL     OW33127   3.199   7.677   4.617
43763SOL    HW133128   3.206   7.692   4.523
43763SOL    HW233129   3.286   7.696   4.651
43764SOL     OW33130   2.496   6.638   6.008
43764SOL    HW133131   2.587   6.612   6.019
43764SOL    HW233132   2.468   6.664   6.096
43765SOL     OW33133   3.821   2.633   2.966
43765SOL    HW133134   3.749   2.645   3.027
43765SOL    HW233135   3.785   2.656   2.881
43766SOL     OW33136   9.609   0.836  11.818
43766SOL    HW133137   9.565   0.921  11.813
43766SOL    HW233138   9.683   0.843  11.757
43767SOL     OW33139   8.696   4.201  12.563
43767SOL    HW133140   8.743   4.212  12.646
43767SOL    HW233141   8.730   4.119  12.528
43768SOL     OW33142  10.625   3.377  10.764
43768SOL    HW133143  10.685   3.377  10.839
43768SOL    HW233144  10.545   3.337  10.797
43769SOL     OW33145  10.083   0.725   4.900
43769SOL    HW133146  10.032   0.670   4.841
43769SOL    HW233147  10.021   0.750   4.969
43770SOL     OW33148  12.017   6.903   9.417
43770SOL    HW133149  12.066   6.902   9.499
43770SOL    HW233150  12.084   6.913   9.349
43771SOL     OW33151   9.378   2.675   0.587
43771SOL    HW133152   9.362   2.689   0.680
43771SOL    HW233153   9.462   2.629   0.584
43772SOL     OW33154   5.500   6.874  11.021
43772SOL    HW133155   5.463   6.812  10.959
43772SOL    HW233156   5.589   6.841  11.037
43773SOL     OW33157   2.346   6.844   6.805
43773SOL    HW133158   2.395   6.910   6.754
43773SOL    HW233159   2.381   6.760   6.775
43774SOL     OW33160  11.363  10.475   9.154
43774SOL    HW133161  11.275  10.438   9.157
43774SOL    HW233162  11.368  10.531   9.232
43775SOL     OW33163   3.884   8.068   6.656
43775SOL    HW133164   3.963   8.034   6.613
43775SOL    HW233165   3.918   8.115   6.732
43776SOL     OW33166   3.777  11.809   5.833
43776SOL    HW133167   3.805  11.852   5.752
43776SOL    HW233168   3.692  11.848   5.854
43777SOL     OW33169   2.647   1.300   3.792
43777SOL    HW133170   2.718   1.362   3.774
43777SOL    HW233171   2.596   1.341   3.861
43778SOL     OW33172   0.333  12.590   9.376
43778SOL    HW133173   0.426  12.604   9.397
43778SOL    HW233174   0.294  12.677   9.380
43779SOL     OW33175  13.015   6.564   5.163
43779SOL    HW133176  13.107   6.572   5.138
43779SOL    HW233177  12.976   6.648   5.139
43780SOL     OW33178   5.077   4.633   3.988
43780SOL    HW133179   5.005   4.696   3.988
43780SOL    HW233180   5.156   4.688   3.988
43781SOL     OW33181  12.983   2.283   8.608
43781SOL    HW133182  13.016   2.197   8.580
43781SOL    HW233183  12.975   2.333   8.527
43782SOL     OW33184  14.403  10.281   7.618
43782SOL    HW133185  14.314  10.264   7.648
43782SOL    HW233186  14.399  10.271   7.523
43783SOL     OW33187   7.053   6.752   8.315
43783SOL    HW133188   6.987   6.817   8.341
43783SOL    HW233189   7.006   6.693   8.256
43784SOL     OW33190  11.322   3.358   6.408
43784SOL    HW133191  11.272   3.307   6.343
43784SOL    HW233192  11.371   3.292   6.456
43785SOL     OW33193   3.171  11.368   0.740
43785SOL    HW133194   3.231  11.315   0.793
43785SOL    HW233195   3.188  11.341   0.650
43786SOL     OW33196   8.854   5.823   5.597
43786SOL    HW133197   8.899   5.803   5.515
43786SOL    HW233198   8.772   5.865   5.571
43787SOL     OW33199   7.713   4.434  12.833
43787SOL    HW133200   7.802   4.444  12.869
43787SOL    HW233201   7.724   4.443  12.739
43788SOL     OW33202   0.525   9.629   1.874
43788SOL    HW133203   0.540   9.684   1.797
43788SOL    HW233204   0.613   9.606   1.905
43789SOL     OW33205  13.038   0.417  12.414
43789SOL    HW133206  13.126   0.411  12.453
43789SOL    HW233207  13.055   0.419  12.320
43790SOL     OW33208  11.033  13.980   1.845
43790SOL    HW133209  11.039  14.063   1.892
43790SOL    HW233210  10.944  13.978   1.811
43791SOL     OW33211  10.234   0.716   6.863
43791SOL    HW133212  10.290   0.768   6.806
43791SOL    HW233213  10.179   0.665   6.803
43792SOL     OW33214  12.943   6.402   7.711
43792SOL    HW133215  12.977   6.379   7.797
43792SOL    HW233216  13.010   6.372   7.649
43793SOL     OW33217   0.105   0.452   5.677
43793SOL    HW133218   0.159   0.518   5.720
43793SOL    HW233219   0.053   0.502   5.614
43794SOL     OW33220  11.374   5.855   3.606
43794SOL    HW133221  11.308   5.809   3.658
43794SOL    HW233222  11.331   5.871   3.521
43795SOL     OW33223   6.202   4.651   6.774
43795SOL    HW133224   6.281   4.599   6.789
43795SOL    HW233225   6.135   4.586   6.752
43796SOL     OW33226   4.303  14.184  14.484
43796SOL    HW133227   4.314  14.116  14.550
43796SOL    HW233228   4.332  14.264  14.527
43797SOL     OW33229   4.454   7.547   1.533
43797SOL    HW133230   4.520   7.568   1.598
43797SOL    HW233231   4.403   7.628   1.524
43798SOL     OW33232   9.412  10.217   1.441
43798SOL    HW133233   9.463  10.298   1.437
43798SOL    HW233234   9.346  10.226   1.372
43799SOL     OW33235  14.798  14.400   4.989
43799SOL    HW133236  14.846  14.350   5.055
43799SOL    HW233237  14.867  14.438   4.934
43800SOL     OW33238  12.225   8.793   7.913
43800SOL    HW133239  12.284   8.809   7.986
43800SOL    HW233240  12.147   8.755   7.952
43801SOL     OW33241   6.039  13.992   1.930
43801SOL    HW133242   6.056  13.905   1.894
43801SOL    HW233243   6.081  14.053   1.870
43802SOL     OW33244  10.251  14.203  11.648
43802SOL    HW133245  10.279  14.293  11.637
43802SOL    HW233246  10.317  14.151  11.602
43803SOL     OW33247   6.840   2.475   7.426
43803SOL    HW133248   6.922   2.428   7.412
43803SOL    HW233249   6.774   2.424   7.379
43804SOL     OW33250   5.822  11.024  13.365
43804SOL    HW133251   5.849  10.960  13.431
43804SOL    HW233252   5.904  11.051  13.323
43805SOL     OW33253   1.633   0.082   1.555
43805SOL    HW133254   1.640   0.167   1.512
43805SOL    HW233255   1.658   0.019   1.487
43806SOL     OW33256   9.217   2.164   3.192
43806SOL    HW133257   9.197   2.194   3.281
43806SOL    HW233258   9.212   2.243   3.138
43807SOL     OW33259  10.624  11.433  13.036
43807SOL    HW133260  10.537  11.470  13.050
43807SOL    HW233261  10.613  11.373  12.962
43808SOL     OW33262   2.143  13.870   6.935
43808SOL    HW133263   2.099  13.900   6.855
43808SOL    HW233264   2.236  13.883   6.917
43809SOL     OW33265   7.108   6.469   4.984
43809SOL    HW133266   7.104   6.438   4.893
43809SOL    HW233267   7.046   6.414   5.031
43810SOL     OW33268   8.460   4.326  12.683
43810SOL    HW133269   8.382   4.289  12.643
43810SOL    HW233270   8.484   4.265  12.752
43811SOL     OW33271  14.572   8.357   1.021
43811SOL    HW133272  14.535   8.443   1.000
43811SOL    HW233273  14.524   8.328   1.098
43812SOL     OW33274   0.811   6.035   9.640
43812SOL    HW133275   0.847   5.956   9.680
43812SOL    HW233276   0.822   6.102   9.707
43813SOL     OW33277   1.342  13.804   8.160
43813SOL    HW133278   1.401  13.847   8.222
43813SOL    HW233279   1.334  13.715   8.192
43814SOL     OW33280   6.033   0.567  14.102
43814SOL    HW133281   5.945   0.594  14.124
43814SOL    HW233282   6.090   0.616  14.161
43815SOL     OW33283  11.147  11.981   8.990
43815SOL    HW133284  11.092  12.025   9.055
43815SOL    HW233285  11.226  12.034   8.986
43816SOL     OW33286   8.708   8.011   5.963
43816SOL    HW133287   8.753   8.056   5.891
43816SOL    HW233288   8.753   7.927   5.971
43817SOL     OW33289   7.422   5.898  10.880
43817SOL    HW133290   7.516   5.910  10.895
43817SOL    HW233291   7.385   5.885  10.968
43818SOL     OW33292   8.460  12.111   2.619
43818SOL    HW133293   8.538  12.128   2.672
43818SOL    HW233294   8.453  12.187   2.562
43819SOL     OW33295  10.938   1.319   6.881
43819SOL    HW133296  10.954   1.247   6.941
43819SOL    HW233297  10.928   1.278   6.795
43820SOL     OW33298  14.619   7.139   9.567
43820SOL    HW133299  14.592   7.223   9.529
43820SOL    HW233300  14.679   7.102   9.502
43821SOL     OW33301   1.095   8.735  11.880
43821SOL    HW133302   1.049   8.651  11.879
43821SOL    HW233303   1.065   8.780  11.958
43822SOL     OW33304   9.084  12.965   4.379
43822SOL    HW133305   9.051  13.021   4.309
43822SOL    HW233306   9.153  13.016   4.420
43823SOL     OW33307   2.792   8.003  13.482
43823SOL    HW133308   2.861   8.007  13.548
43823SOL    HW233309   2.832   8.037  13.402
43824SOL     OW33310  13.665  12.283   7.528
43824SOL    HW133311  13.574  12.288   7.558
43824SOL    HW233312  13.658  12.264   7.434
43825SOL     OW33313  12.422  10.638   4.127
43825SOL    HW133314  12.502  10.620   4.078
43825SOL    HW233315  12.453  10.661   4.215
43826SOL     OW33316  12.592   4.952   9.504
43826SOL    HW133317  12.571   4.987   9.417
43826SOL    HW233318  12.660   4.887   9.489
43827SOL     OW33319  14.768   4.348   6.670
43827SOL    HW133320  14.791   4.294   6.594
43827SOL    HW233321  14.785   4.292   6.745
43828SOL     OW33322   8.093   5.086   5.443
43828SOL    HW133323   8.167   5.089   5.382
43828SOL    HW233324   8.028   5.031   5.399
43829SOL     OW33325   3.152  12.703   1.168
43829SOL    HW133326   3.167  12.614   1.200
43829SOL    HW233327   3.240  12.737   1.151
43830SOL     OW33328   0.027   4.276  12.307
43830SOL    HW133329  14.823   4.308  12.266
43830SOL    HW233330  14.872   4.211  12.371
43831SOL     OW33331   7.017  12.889   0.633
43831SOL    HW133332   7.034  12.980   0.654
43831SOL    HW233333   6.992  12.848   0.716
43832SOL     OW33334  13.352   4.771  12.503
43832SOL    HW133335  13.298   4.813  12.436
43832SOL    HW233336  13.439   4.811  12.492
43833SOL     OW33337   8.410   3.177  12.589
43833SOL    HW133338   8.385   3.177  12.497
43833SOL    HW233339   8.501   3.148  12.590
43834SOL     OW33340   9.589   2.780   2.534
43834SOL    HW133341   9.671   2.769   2.486
43834SOL    HW233342   9.598   2.725   2.612
43835SOL     OW33343  13.887  11.068   8.155
43835SOL    HW133344  13.969  11.066   8.104
43835SOL    HW233345  13.824  11.111   8.097
43836SOL     OW33346   9.278   6.205   7.228
43836SOL    HW133347   9.328   6.125   7.243
43836SOL    HW233348   9.193   6.188   7.268
43837SOL     OW33349   1.078   5.973   1.635
43837SOL    HW133350   1.093   5.915   1.710
43837SOL    HW233351   1.163   6.011   1.617
43838SOL     OW33352  10.897   3.557  12.013
43838SOL    HW133353  10.970   3.498  11.994
43838SOL    HW233354  10.848   3.561  11.931
43839SOL     OW33355  10.814   5.279  12.017
43839SOL    HW133356  10.782   5.361  11.977
43839SOL    HW233357  10.840   5.305  12.106
43840SOL     OW33358   3.287   0.416   6.212
43840SOL    HW133359   3.277   0.509   6.233
43840SOL    HW233360   3.372   0.393   6.249
43841SOL     OW33361   1.653   9.817  11.307
43841SOL    HW133362   1.610   9.804  11.392
43841SOL    HW233363   1.742   9.845  11.329
43842SOL     OW33364   0.255  10.915   7.421
43842SOL    HW133365   0.247  10.857   7.496
43842SOL    HW233366   0.273  11.001   7.458
43843SOL     OW33367   2.066   4.560   1.601
43843SOL    HW133368   2.028   4.586   1.684
43843SOL    HW233369   1.996   4.513   1.556
43844SOL     OW33370   7.717   8.814  10.884
43844SOL    HW133371   7.676   8.872  10.820
43844SOL    HW233372   7.787   8.771  10.835
43845SOL     OW33373   7.759  12.776  12.650
43845SOL    HW133374   7.667  12.751  12.636
43845SOL    HW233375   7.809  12.706  12.609
43846SOL     OW33376   9.181  14.129  10.439
43846SOL    HW133377   9.147  14.209  10.478
43846SOL    HW233378   9.117  14.061  10.463
43847SOL     OW33379  12.690   2.084   3.654
43847SOL    HW133380  12.708   2.007   3.599
43847SOL    HW233381  12.671   2.154   3.592
43848SOL     OW33382   3.583  13.482   2.116
43848SOL    HW133383   3.561  13.420   2.185
43848SOL    HW233384   3.584  13.567   2.160
43849SOL     OW33385   2.444  11.333   9.355
43849SOL    HW133386   2.485  11.338   9.268
43849SOL    HW233387   2.401  11.247   9.356
43850SOL     OW33388  10.970  12.478   9.554
43850SOL    HW133389  10.909  12.536   9.508
43850SOL    HW233390  11.040  12.535   9.584
43851SOL     OW33391   6.758  13.693   1.385
43851SOL    HW133392   6.835  13.750   1.380
43851SOL    HW233393   6.792  13.605   1.374
43852SOL     OW33394  14.495   2.942   3.542
43852SOL    HW133395  14.466   2.886   3.613
43852SOL    HW233396  14.591   2.932   3.540
43853SOL     OW33397   4.825  12.323   8.498
43853SOL    HW133398   4.890  12.394   8.498
43853SOL    HW233399   4.784  12.328   8.585
43854SOL     OW33400   8.787   7.856   7.908
43854SOL    HW133401   8.834   7.938   7.890
43854SOL    HW233402   8.700   7.870   7.872
43855SOL     OW33403  11.359  10.459   5.953
43855SOL    HW133404  11.443  10.497   5.927
43855SOL    HW233405  11.308  10.534   5.985
43856SOL     OW33406  11.894   5.407   6.181
43856SOL    HW133407  11.835   5.337   6.208
43856SOL    HW233408  11.953   5.366   6.118
43857SOL     OW33409   1.240   3.920   9.297
43857SOL    HW133410   1.258   3.983   9.228
43857SOL    HW233411   1.324   3.878   9.314
43858SOL     OW33412   1.573  13.340   2.677
43858SOL    HW133413   1.528  13.402   2.735
43858SOL    HW233414   1.617  13.279   2.737
43859SOL     OW33415   6.184   7.909   0.541
43859SOL    HW133416   6.231   7.935   0.620
43859SOL    HW233417   6.237   7.838   0.503
43860SOL     OW33418  12.469   5.233   8.197
43860SOL    HW133419  12.410   5.163   8.171
43860SOL    HW233420  12.480   5.286   8.118
43861SOL     OW33421   4.642   5.969   2.420
43861SOL    HW133422   4.729   5.945   2.389
43861SOL    HW233423   4.639   5.936   2.510
43862SOL     OW33424   3.172   5.909   7.924
43862SOL    HW133425   3.118   5.974   7.877
43862SOL    HW233426   3.160   5.828   7.875
43863SOL     OW33427   1.791   4.342  13.389
43863SOL    HW133428   1.733   4.289  13.335
43863SOL    HW233429   1.804   4.422  13.338
43864SOL     OW33430  12.276   1.635   0.886
43864SOL    HW133431  12.248   1.726   0.880
43864SOL    HW233432  12.362   1.638   0.927
43865SOL     OW33433   6.888   0.543  11.603
43865SOL    HW133434   6.939   0.463  11.590
43865SOL    HW233435   6.900   0.591  11.521
43866SOL     OW33436  14.178  13.482  11.679
43866SOL    HW133437  14.177  13.448  11.589
43866SOL    HW233438  14.090  13.517  11.692
43867SOL     OW33439  10.084   5.405   3.662
43867SOL    HW133440  10.106   5.498   3.670
43867SOL    HW233441  10.163   5.365   3.625
43868SOL     OW33442   5.395   4.515   6.722
43868SOL    HW133443   5.485   4.491   6.699
43868SOL    HW233444   5.341   4.475   6.654
43869SOL     OW33445   8.555   0.972   5.706
43869SOL    HW133446   8.505   0.920   5.768
43869SOL    HW233447   8.492   0.996   5.637
43870SOL     OW33448   0.600   7.777   5.714
43870SOL    HW133449   0.686   7.788   5.673
43870SOL    HW233450   0.607   7.694   5.762
43871SOL     OW33451   2.142   6.050  12.378
43871SOL    HW133452   2.169   6.082  12.292
43871SOL    HW233453   2.078   5.981  12.359
43872SOL     OW33454   9.769  11.934   2.072
43872SOL    HW133455   9.681  11.945   2.034
43872SOL    HW233456   9.793  11.844   2.050
43873SOL     OW33457  14.335   4.442   4.013
43873SOL    HW133458  14.372   4.376   4.072
43873SOL    HW233459  14.296   4.391   3.942
43874SOL     OW33460   1.778   1.687   8.356
43874SOL    HW133461   1.722   1.763   8.372
43874SOL    HW233462   1.724   1.611   8.377
43875SOL     OW33463   5.108  11.918   1.432
43875SOL    HW133464   5.178  11.970   1.393
43875SOL    HW233465   5.146  11.831   1.442
43876SOL     OW33466   1.879  10.569  14.346
43876SOL    HW133467   1.802  10.527  14.386
43876SOL    HW233468   1.938  10.584  14.420
43877SOL     OW33469   0.403   7.366  14.405
43877SOL    HW133470   0.456   7.440  14.434
43877SOL    HW233471   0.400   7.308  14.481
43878SOL     OW33472  11.420   7.248   5.943
43878SOL    HW133473  11.392   7.315   5.881
43878SOL    HW233474  11.497   7.209   5.903
43879SOL     OW33475  14.506   5.382   4.053
43879SOL    HW133476  14.441   5.375   3.983
43879SOL    HW233477  14.590   5.394   4.007
43880SOL     OW33478   8.745   0.491  11.061
43880SOL    HW133479   8.818   0.473  11.001
43880SOL    HW233480   8.734   0.586  11.058
43881SOL     OW33481   1.026  11.259   9.602
43881SOL    HW133482   0.994  11.297   9.683
43881SOL    HW233483   0.977  11.303   9.533
43882SOL     OW33484   7.462   8.738   4.460
43882SOL    HW133485   7.488   8.667   4.402
43882SOL    HW233486   7.368   8.749   4.443
43883SOL     OW33487  12.335   8.013  10.029
43883SOL    HW133488  12.243   8.020  10.002
43883SOL    HW233489  12.360   8.102  10.053
43884SOL     OW33490   5.774   6.841  11.851
43884SOL    HW133491   5.789   6.780  11.923
43884SOL    HW233492   5.848   6.828  11.792
43885SOL     OW33493   9.163   5.830   8.230
43885SOL    HW133494   9.079   5.805   8.192
43885SOL    HW233495   9.166   5.784   8.314
43886SOL     OW33496   4.329   0.261   0.024
43886SOL    HW133497   4.405   0.320   0.026
43886SOL    HW233498   4.301   0.255   0.115
43887SOL     OW33499   3.868   7.249   0.048
43887SOL    HW133500   3.912   7.164   0.040
43887SOL    HW233501   3.819   7.259  14.843
43888SOL     OW33502  13.603   1.827  10.535
43888SOL    HW133503  13.671   1.844  10.470
43888SOL    HW233504  13.603   1.731  10.545
43889SOL     OW33505  12.486  13.654   8.383
43889SOL    HW133506  12.425  13.580   8.388
43889SOL    HW233507  12.528  13.656   8.469
43890SOL     OW33508   7.127   1.074  12.864
43890SOL    HW133509   7.049   1.046  12.912
43890SOL    HW233510   7.154   0.997  12.815
43891SOL     OW33511   5.915   0.772  13.821
43891SOL    HW133512   5.956   0.686  13.814
43891SOL    HW233513   5.875   0.774  13.908
43892SOL     OW33514  14.345   4.354   2.001
43892SOL    HW133515  14.277   4.415   2.031
43892SOL    HW233516  14.397   4.406   1.939
43893SOL     OW33517   2.359   0.219   3.375
43893SOL    HW133518   2.405   0.253   3.298
43893SOL    HW233519   2.345   0.295   3.430
43894SOL     OW33520  12.125  11.761   0.425
43894SOL    HW133521  12.061  11.754   0.354
43894SOL    HW233522  12.149  11.854   0.427
43895SOL     OW33523   5.458   8.449   1.045
43895SOL    HW133524   5.387   8.432   1.107
43895SOL    HW233525   5.417   8.496   0.973
43896SOL     OW33526  14.781  11.977   5.809
43896SOL    HW133527  14.720  11.905   5.795
43896SOL    HW233528  14.867  11.940   5.789
43897SOL     OW33529   3.105  14.809   6.732
43897SOL    HW133530   3.149  14.790   6.815
43897SOL    HW233531   3.173  14.797   6.665
43898SOL     OW33532   9.547  13.980   8.612
43898SOL    HW133533   9.600  14.047   8.569
43898SOL    HW233534   9.610  13.930   8.664
43899SOL     OW33535   6.157  12.428   9.032
43899SOL    HW133536   6.212  12.484   9.087
43899SOL    HW233537   6.192  12.340   9.043
43900SOL     OW33538   4.284  14.606  13.581
43900SOL    HW133539   4.335  14.586  13.660
43900SOL    HW233540   4.314  14.693  13.555
43901SOL     OW33541   1.386   8.702   1.436
43901SOL    HW133542   1.430   8.627   1.476
43901SOL    HW233543   1.390   8.771   1.503
43902SOL     OW33544  12.022   9.305   2.345
43902SOL    HW133545  11.931   9.332   2.328
43902SOL    HW233546  12.018   9.264   2.431
43903SOL     OW33547   1.885   3.339  11.343
43903SOL    HW133548   1.890   3.387  11.426
43903SOL    HW233549   1.941   3.263  11.357
43904SOL     OW33550   5.688   3.099  10.760
43904SOL    HW133551   5.623   3.166  10.780
43904SOL    HW233552   5.761   3.147  10.722
43905SOL     OW33553   1.375  13.298  11.249
43905SOL    HW133554   1.390  13.237  11.177
43905SOL    HW233555   1.371  13.242  11.327
43906SOL     OW33556   1.034  11.101  13.095
43906SOL    HW133557   1.114  11.117  13.145
43906SOL    HW233558   0.968  11.079  13.161
43907SOL     OW33559   5.699  13.083   0.185
43907SOL    HW133560   5.634  13.138   0.230
43907SOL    HW233561   5.771  13.143   0.166
43908SOL     OW33562   0.368   5.448   7.715
43908SOL    HW133563   0.427   5.474   7.644
43908SOL    HW233564   0.379   5.517   7.781
43909SOL     OW33565  13.540   4.985  11.526
43909SOL    HW133566  13.592   4.955  11.600
43909SOL    HW233567  13.481   5.050  11.563
43910SOL     OW33568   2.391   5.283  14.016
43910SOL    HW133569   2.483   5.273  13.993
43910SOL    HW233570   2.344   5.269  13.933
43911SOL     OW33571   6.354   1.442   9.214
43911SOL    HW133572   6.349   1.391   9.134
43911SOL    HW233573   6.334   1.380   9.284
43912SOL     OW33574   8.599  10.163  11.980
43912SOL    HW133575   8.524  10.144  12.036
43912SOL    HW233576   8.663  10.095  12.002
43913SOL     OW33577   4.246   3.122  12.611
43913SOL    HW133578   4.307   3.171  12.556
43913SOL    HW233579   4.252   3.032  12.580
43914SOL     OW33580  13.166   3.379   5.792
43914SOL    HW133581  13.196   3.291   5.815
43914SOL    HW233582  13.177   3.384   5.697
43915SOL     OW33583   3.165   8.468  13.184
43915SOL    HW133584   3.107   8.499  13.115
43915SOL    HW233585   3.109   8.417  13.243
43916SOL     OW33586   2.743   5.992  12.368
43916SOL    HW133587   2.774   5.903  12.382
43916SOL    HW233588   2.710   5.992  12.278
43917SOL     OW33589   0.034   1.983   1.404
43917SOL    HW133590   0.073   2.061   1.364
43917SOL    HW233591   0.100   1.915   1.395
43918SOL     OW33592   5.147   0.154  13.842
43918SOL    HW133593   5.083   0.199  13.897
43918SOL    HW233594   5.232   0.182  13.876
43919SOL     OW33595  13.923   4.605   7.060
43919SOL    HW133596  13.951   4.650   6.980
43919SOL    HW233597  13.991   4.626   7.124
43920SOL     OW33598   3.917  14.257   9.674
43920SOL    HW133599   3.988  14.193   9.668
43920SOL    HW233600   3.863  14.227   9.746
43921SOL     OW33601   2.908  11.895   4.646
43921SOL    HW133602   2.965  11.846   4.585
43921SOL    HW233603   2.967  11.923   4.716
43922SOL     OW33604  13.004   3.322   6.619
43922SOL    HW133605  12.998   3.234   6.582
43922SOL    HW233606  13.083   3.359   6.579
43923SOL     OW33607   0.400   8.727   4.425
43923SOL    HW133608   0.367   8.639   4.409
43923SOL    HW233609   0.469   8.716   4.490
43924SOL     OW33610   2.703  12.685   5.975
43924SOL    HW133611   2.726  12.595   5.998
43924SOL    HW233612   2.667  12.722   6.055
43925SOL     OW33613   6.832   2.334  14.129
43925SOL    HW133614   6.806   2.347  14.038
43925SOL    HW233615   6.878   2.250  14.129
43926SOL     OW33616   0.373  14.461   8.513
43926SOL    HW133617   0.394  14.538   8.566
43926SOL    HW233618   0.341  14.497   8.431
43927SOL     OW33619   3.977   5.143   6.457
43927SOL    HW133620   3.940   5.225   6.490
43927SOL    HW233621   4.041   5.170   6.391
43928SOL     OW33622  14.754  11.214   0.175
43928SOL    HW133623  14.793  11.301   0.188
43928SOL    HW233624  14.823  11.162   0.135
43929SOL     OW33625   8.507   8.287  14.808
43929SOL    HW133626   8.557   8.367  14.795
43929SOL    HW233627   8.520   8.237  14.728
43930SOL     OW33628   9.629  12.050   9.534
43930SOL    HW133629   9.679  12.131   9.523
43930SOL    HW233630   9.559  12.073   9.595
43931SOL     OW33631   4.974   9.723  13.338
43931SOL    HW133632   5.038   9.669  13.292
43931SOL    HW233633   4.889   9.681  13.319
43932SOL     OW33634   1.274  11.306   2.635
43932SOL    HW133635   1.304  11.397   2.636
43932SOL    HW233636   1.354  11.255   2.647
43933SOL     OW33637   9.376   7.951   0.297
43933SOL    HW133638   9.450   8.012   0.297
43933SOL    HW233639   9.307   7.998   0.343
43934SOL     OW33640  11.564   8.274  12.224
43934SOL    HW133641  11.528   8.222  12.296
43934SOL    HW233642  11.565   8.214  12.149
43935SOL     OW33643   2.360   1.163  11.663
43935SOL    HW133644   2.386   1.224  11.733
43935SOL    HW233645   2.430   1.172  11.598
43936SOL     OW33646   1.538   0.256  11.953
43936SOL    HW133647   1.561   0.176  12.000
43936SOL    HW233648   1.459   0.233  11.904
43937SOL     OW33649  12.592   8.387  10.939
43937SOL    HW133650  12.567   8.411  11.028
43937SOL    HW233651  12.608   8.293  10.943
43938SOL     OW33652   2.758   9.847  14.007
43938SOL    HW133653   2.829   9.846  13.943
43938SOL    HW233654   2.688   9.897  13.964
43939SOL     OW33655   9.056   1.360   8.386
43939SOL    HW133656   9.058   1.274   8.426
43939SOL    HW233657   9.145   1.373   8.351
43940SOL     OW33658  14.870   8.156   1.213
43940SOL    HW133659   0.060   8.217   1.246
43940SOL    HW233660  14.871   8.168   1.118
43941SOL     OW33661   7.428   4.742   8.255
43941SOL    HW133662   7.494   4.748   8.185
43941SOL    HW233663   7.424   4.830   8.291
43942SOL     OW33664   1.608  10.254  10.161
43942SOL    HW133665   1.642  10.177  10.116
43942SOL    HW233666   1.582  10.223  10.247
43943SOL     OW33667   7.258  10.686  12.093
43943SOL    HW133668   7.305  10.615  12.138
43943SOL    HW233669   7.327  10.736  12.049
43944SOL     OW33670   1.732   4.697  12.867
43944SOL    HW133671   1.820   4.674  12.897
43944SOL    HW233672   1.742   4.782  12.825
43945SOL     OW33673   8.727   6.243  13.127
43945SOL    HW133674   8.796   6.189  13.165
43945SOL    HW233675   8.739   6.236  13.032
43946SOL     OW33676   3.915   7.735   8.958
43946SOL    HW133677   3.997   7.700   8.995
43946SOL    HW233678   3.928   7.830   8.957
43947SOL     OW33679   7.357   6.718   6.364
43947SOL    HW133680   7.304   6.664   6.305
43947SOL    HW233681   7.326   6.807   6.348
43948SOL     OW33682   5.787  13.962   3.149
43948SOL    HW133683   5.708  13.974   3.096
43948SOL    HW233684   5.765  14.002   3.234
43949SOL     OW33685   8.910   7.165   3.451
43949SOL    HW133686   8.915   7.080   3.495
43949SOL    HW233687   8.817   7.186   3.451
43950SOL     OW33688   7.249   2.416   7.146
43950SOL    HW133689   7.267   2.408   7.052
43950SOL    HW233690   7.336   2.419   7.186
43951SOL     OW33691   6.663   2.210   4.628
43951SOL    HW133692   6.622   2.123   4.623
43951SOL    HW233693   6.641   2.252   4.545
43952SOL     OW33694   7.737   2.281   0.990
43952SOL    HW133695   7.783   2.211   1.035
43952SOL    HW233696   7.749   2.358   1.046
43953SOL     OW33697   8.507   4.202   8.255
43953SOL    HW133698   8.500   4.282   8.204
43953SOL    HW233699   8.597   4.172   8.242
43954SOL     OW33700  11.821  13.689  11.410
43954SOL    HW133701  11.746  13.630  11.401
43954SOL    HW233702  11.782  13.774  11.430
43955SOL     OW33703   8.462  10.218   1.458
43955SOL    HW133704   8.443  10.153   1.526
43955SOL    HW233705   8.526  10.176   1.401
43956SOL     OW33706   3.797   8.249   4.828
43956SOL    HW133707   3.722   8.289   4.783
43956SOL    HW233708   3.865   8.244   4.760
43957SOL     OW33709   7.249   0.876  13.934
43957SOL    HW133710   7.195   0.805  13.970
43957SOL    HW233711   7.284   0.840  13.853
43958SOL     OW33712  11.547  14.457   7.254
43958SOL    HW133713  11.554  14.436   7.347
43958SOL    HW233714  11.467  14.411   7.226
43959SOL     OW33715   6.157  12.132   0.092
43959SOL    HW133716   6.067  12.102   0.090
43959SOL    HW233717   6.197  12.084   0.165
43960SOL     OW33718   2.696   0.289   1.241
43960SOL    HW133719   2.771   0.346   1.257
43960SOL    HW233720   2.621   0.337   1.277
43961SOL     OW33721  13.041  13.889   1.460
43961SOL    HW133722  13.028  13.981   1.480
43961SOL    HW233723  13.072  13.851   1.543
43962SOL     OW33724   8.605   9.072  11.763
43962SOL    HW133725   8.542   9.138  11.793
43962SOL    HW233726   8.656   9.051  11.841
43963SOL     OW33727   9.546   2.459   8.714
43963SOL    HW133728   9.494   2.381   8.694
43963SOL    HW233729   9.591   2.480   8.632
43964SOL     OW33730   9.120   4.496   2.704
43964SOL    HW133731   9.042   4.520   2.753
43964SOL    HW233732   9.103   4.525   2.615
43965SOL     OW33733   7.199   3.983   5.715
43965SOL    HW133734   7.182   3.950   5.626
43965SOL    HW233735   7.168   4.074   5.713
43966SOL     OW33736   5.865  14.091   5.677
43966SOL    HW133737   5.903  14.012   5.639
43966SOL    HW233738   5.771  14.072   5.685
43967SOL     OW33739  11.069  12.183   5.114
43967SOL    HW133740  11.139  12.140   5.163
43967SOL    HW233741  10.989  12.137   5.140
43968SOL     OW33742  12.446   2.679  10.019
43968SOL    HW133743  12.462   2.592   9.984
43968SOL    HW233744  12.426   2.733   9.943
43969SOL     OW33745   7.924   2.762   9.906
43969SOL    HW133746   7.864   2.723   9.970
43969SOL    HW233747   7.969   2.831   9.955
43970SOL     OW33748  11.886  10.620   1.022
43970SOL    HW133749  11.910  10.550   0.962
43970SOL    HW233750  11.970  10.659   1.048
43971SOL     OW33751  14.358  10.717  12.974
43971SOL    HW133752  14.444  10.759  12.978
43971SOL    HW233753  14.372  10.631  13.015
43972SOL     OW33754   2.885   3.094   5.871
43972SOL    HW133755   2.810   3.093   5.811
43972SOL    HW233756   2.935   3.172   5.846
43973SOL     OW33757   8.373   8.112  10.549
43973SOL    HW133758   8.343   8.085  10.463
43973SOL    HW233759   8.302   8.086  10.608
43974SOL     OW33760   6.464   0.719   3.494
43974SOL    HW133761   6.534   0.784   3.502
43974SOL    HW233762   6.510   0.635   3.490
43975SOL     OW33763  14.322  11.996  11.603
43975SOL    HW133764  14.265  11.926  11.571
43975SOL    HW233765  14.393  11.950  11.648
43976SOL     OW33766   0.715  10.280  12.167
43976SOL    HW133767   0.808  10.302  12.161
43976SOL    HW233768   0.673  10.362  12.195
43977SOL     OW33769   3.063   8.758   3.910
43977SOL    HW133770   2.994   8.799   3.858
43977SOL    HW233771   3.141   8.810   3.892
43978SOL     OW33772   0.974  12.687  14.332
43978SOL    HW133773   1.067  12.697  14.351
43978SOL    HW233774   0.934  12.769  14.361
43979SOL     OW33775  14.004   4.285   6.371
43979SOL    HW133776  14.029   4.225   6.441
43979SOL    HW233777  13.963   4.359   6.417
43980SOL     OW33778   0.035  12.113   4.066
43980SOL    HW133779  14.863  12.070   3.996
43980SOL    HW233780   0.063  12.196   4.028
43981SOL     OW33781   8.002   1.609   5.010
43981SOL    HW133782   8.095   1.591   5.027
43981SOL    HW233783   7.981   1.682   5.069
43982SOL     OW33784   6.992  14.396   9.401
43982SOL    HW133785   6.930  14.389   9.329
43982SOL    HW233786   7.024  14.486   9.397
43983SOL     OW33787   9.262  13.691   8.405
43983SOL    HW133788   9.344  13.704   8.358
43983SOL    HW233789   9.277  13.729   8.491
43984SOL     OW33790  12.321  12.956   7.239
43984SOL    HW133791  12.352  13.042   7.212
43984SOL    HW233792  12.249  12.974   7.299
43985SOL     OW33793  10.422  12.773   3.049
43985SOL    HW133794  10.349  12.726   3.010
43985SOL    HW233795  10.494  12.710   3.047
43986SOL     OW33796   2.685   0.018   9.171
43986SOL    HW133797   2.667  14.835   9.244
43986SOL    HW233798   2.754  14.851   9.121
43987SOL     OW33799   1.378   1.005  10.290
43987SOL    HW133800   1.368   0.998  10.385
43987SOL    HW233801   1.473   1.008  10.276
43988SOL     OW33802  11.471  12.794   6.250
43988SOL    HW133803  11.513  12.874   6.280
43988SOL    HW233804  11.378  12.816   6.246
43989SOL     OW33805  13.335  11.656   5.699
43989SOL    HW133806  13.385  11.714   5.641
43989SOL    HW233807  13.285  11.716   5.754
43990SOL     OW33808   6.314   3.813   9.180
43990SOL    HW133809   6.260   3.842   9.106
43990SOL    HW233810   6.294   3.720   9.188
43991SOL     OW33811   2.210  13.589   8.910
43991SOL    HW133812   2.151  13.558   8.979
43991SOL    HW233813   2.297  13.588   8.951
43992SOL     OW33814   9.071   4.528   5.863
43992SOL    HW133815   8.991   4.477   5.849
43992SOL    HW233816   9.052   4.613   5.825
43993SOL     OW33817   9.771   8.097   0.926
43993SOL    HW133818   9.827   8.132   0.857
43993SOL    HW233819   9.794   8.148   1.004
43994SOL     OW33820   1.965   0.181   5.184
43994SOL    HW133821   1.997   0.105   5.232
43994SOL    HW233822   1.960   0.152   5.093
43995SOL     OW33823   3.892  11.526   7.066
43995SOL    HW133824   3.881  11.433   7.047
43995SOL    HW233825   3.974  11.549   7.022
43996SOL     OW33826   3.172  12.885   0.213
43996SOL    HW133827   3.203  12.962   0.260
43996SOL    HW233828   3.091  12.861   0.258
43997SOL     OW33829   2.188   7.379  13.125
43997SOL    HW133830   2.274   7.373  13.084
43997SOL    HW233831   2.126   7.379  13.052
43998SOL     OW33832   0.957   2.890   8.421
43998SOL    HW133833   1.017   2.927   8.485
43998SOL    HW233834   0.994   2.804   8.400
43999SOL     OW33835   5.884  11.487   0.873
43999SOL    HW133836   5.812  11.425   0.879
43999SOL    HW233837   5.951  11.452   0.931
44000SOL     OW33838   1.530   5.617   0.096
44000SOL    HW133839   1.443   5.649   0.120
44000SOL    HW233840   1.567   5.586   0.179
44001SOL     OW33841   9.551   6.025   6.787
44001SOL    HW133842   9.600   5.968   6.846
44001SOL    HW233843   9.464   5.985   6.782
44002SOL     OW33844  12.003   8.840  14.020
44002SOL    HW133845  12.070   8.863  14.084
44002SOL    HW233846  12.046   8.849  13.935
44003SOL     OW33847   6.372  14.554  12.558
44003SOL    HW133848   6.423  14.625  12.597
44003SOL    HW233849   6.361  14.580  12.467
44004SOL     OW33850   9.187   3.640   4.310
44004SOL    HW133851   9.155   3.554   4.281
44004SOL    HW233852   9.170   3.641   4.404
44005SOL     OW33853   0.421   3.600   9.421
44005SOL    HW133854   0.448   3.657   9.349
44005SOL    HW233855   0.341   3.559   9.390
44006SOL     OW33856   9.485  14.108  14.189
44006SOL    HW133857   9.549  14.082  14.255
44006SOL    HW233858   9.421  14.037  14.188
44007SOL     OW33859   5.779  10.118  14.486
44007SOL    HW133860   5.816  10.092  14.571
44007SOL    HW233861   5.793  10.213  14.482
44008SOL     OW33862   6.983   9.790  10.988
44008SOL    HW133863   6.987   9.708  11.038
44008SOL    HW233864   6.972   9.858  11.055
44009SOL     OW33865   8.223   9.892  11.736
44009SOL    HW133866   8.147   9.948  11.754
44009SOL    HW233867   8.226   9.885  11.641
44010SOL     OW33868   8.077  11.293   9.473
44010SOL    HW133869   8.100  11.264   9.384
44010SOL    HW233870   8.133  11.240   9.530
44011SOL     OW33871   1.253   5.522   4.830
44011SOL    HW133872   1.323   5.466   4.864
44011SOL    HW233873   1.202   5.464   4.773
44012SOL     OW33874  10.730  10.753   3.695
44012SOL    HW133875  10.777  10.740   3.612
44012SOL    HW233876  10.799  10.775   3.758
44013SOL     OW33877  11.386   7.500   7.888
44013SOL    HW133878  11.462   7.442   7.879
44013SOL    HW233879  11.424   7.588   7.894
44014SOL     OW33880   8.637   2.119   6.080
44014SOL    HW133881   8.610   2.176   6.008
44014SOL    HW233882   8.696   2.173   6.133
44015SOL     OW33883   4.663   9.580   3.074
44015SOL    HW133884   4.731   9.585   3.141
44015SOL    HW233885   4.680   9.655   3.017
44016SOL     OW33886   0.100   0.165   4.885
44016SOL    HW133887   0.132   0.163   4.795
44016SOL    HW233888   0.038   0.093   4.890
44017SOL     OW33889   5.427  10.084   9.616
44017SOL    HW133890   5.394  10.131   9.540
44017SOL    HW233891   5.375  10.004   9.620
44018SOL     OW33892   8.733   0.935   9.782
44018SOL    HW133893   8.694   1.004   9.835
44018SOL    HW233894   8.733   0.971   9.693
44019SOL     OW33895   6.036  14.451   3.327
44019SOL    HW133896   6.117  14.496   3.303
44019SOL    HW233897   6.032  14.458   3.423
44020SOL     OW33898  10.143  12.412  14.654
44020SOL    HW133899  10.103  12.406  14.741
44020SOL    HW233900  10.133  12.504  14.628
44021SOL     OW33901   2.519   1.519   9.085
44021SOL    HW133902   2.485   1.479   9.165
44021SOL    HW233903   2.487   1.462   9.015
44022SOL     OW33904  10.747   4.084   2.766
44022SOL    HW133905  10.838   4.091   2.796
44022SOL    HW233906  10.713   4.008   2.813
44023SOL     OW33907   3.377   2.239  12.180
44023SOL    HW133908   3.432   2.287  12.118
44023SOL    HW233909   3.291   2.238  12.138
44024SOL     OW33910   2.287  13.463   3.543
44024SOL    HW133911   2.255  13.512   3.467
44024SOL    HW233912   2.375  13.497   3.558
44025SOL     OW33913   1.924  10.746   9.582
44025SOL    HW133914   1.924  10.651   9.595
44025SOL    HW233915   1.992  10.761   9.516
44026SOL     OW33916  10.251   7.124   2.692
44026SOL    HW133917  10.315   7.060   2.724
44026SOL    HW233918  10.204   7.079   2.623
44027SOL     OW33919   6.126   4.765   3.545
44027SOL    HW133920   6.213   4.746   3.510
44027SOL    HW233921   6.074   4.688   3.522
44028SOL     OW33922   2.511   0.984   7.680
44028SOL    HW133923   2.571   0.910   7.686
44028SOL    HW233924   2.425   0.946   7.697
44029SOL     OW33925  11.471   6.275   6.469
44029SOL    HW133926  11.550   6.250   6.516
44029SOL    HW233927  11.431   6.192   6.443
44030SOL     OW33928  14.238   7.893   3.952
44030SOL    HW133929  14.165   7.903   4.013
44030SOL    HW233930  14.197   7.889   3.866
44031SOL     OW33931   5.545   5.798  13.675
44031SOL    HW133932   5.488   5.786  13.598
44031SOL    HW233933   5.629   5.826  13.638
44032SOL     OW33934  14.455   8.269  12.937
44032SOL    HW133935  14.434   8.205  12.869
44032SOL    HW233936  14.541   8.303  12.912
44033SOL     OW33937   4.246   5.775  13.901
44033SOL    HW133938   4.245   5.694  13.850
44033SOL    HW233939   4.182   5.832  13.857
44034SOL     OW33940   1.617  11.839  11.513
44034SOL    HW133941   1.616  11.843  11.609
44034SOL    HW233942   1.613  11.745  11.493
44035SOL     OW33943   4.319   3.357   2.674
44035SOL    HW133944   4.381   3.381   2.742
44035SOL    HW233945   4.373   3.327   2.601
44036SOL     OW33946   2.122   8.415   5.680
44036SOL    HW133947   2.128   8.392   5.587
44036SOL    HW233948   2.074   8.343   5.720
44037SOL     OW33949   1.327  12.774   3.991
44037SOL    HW133950   1.277  12.694   4.005
44037SOL    HW233951   1.310  12.798   3.899
44038SOL     OW33952   0.834   7.602   7.959
44038SOL    HW133953   0.857   7.524   7.908
44038SOL    HW233954   0.827   7.672   7.893
44039SOL     OW33955   0.245   0.905   4.631
44039SOL    HW133956   0.267   0.901   4.724
44039SOL    HW233957   0.201   0.989   4.620
44040SOL     OW33958  14.608  12.098  10.961
44040SOL    HW133959  14.650  12.179  10.930
44040SOL    HW233960  14.633  12.093  11.053
44041SOL     OW33961  12.446   9.428   6.042
44041SOL    HW133962  12.430   9.364   5.973
44041SOL    HW233963  12.359   9.446   6.079
44042SOL     OW33964   7.288   5.459   2.785
44042SOL    HW133965   7.281   5.517   2.709
44042SOL    HW233966   7.226   5.495   2.848
44043SOL     OW33967   6.615  14.351   1.181
44043SOL    HW133968   6.663  14.312   1.254
44043SOL    HW233969   6.651  14.440   1.173
44044SOL     OW33970   5.805   5.204   6.876
44044SOL    HW133971   5.885   5.205   6.928
44044SOL    HW233972   5.751   5.275   6.912
44045SOL     OW33973   9.380  13.690  12.905
44045SOL    HW133974   9.392  13.656  12.816
44045SOL    HW233975   9.374  13.785  12.894
44046SOL     OW33976   3.557   0.988  13.387
44046SOL    HW133977   3.611   1.067  13.390
44046SOL    HW233978   3.618   0.919  13.360
44047SOL     OW33979  14.305   7.491   4.383
44047SOL    HW133980  14.363   7.419   4.356
44047SOL    HW233981  14.251   7.453   4.453
44048SOL     OW33982   2.499   8.565   8.218
44048SOL    HW133983   2.480   8.633   8.283
44048SOL    HW233984   2.578   8.521   8.251
44049SOL     OW33985  13.134   0.456  12.156
44049SOL    HW133986  13.158   0.547  12.138
44049SOL    HW233987  13.213   0.406  12.140
44050SOL     OW33988   2.811   2.753  14.250
44050SOL    HW133989   2.742   2.802  14.207
44050SOL    HW233990   2.847   2.814  14.314
44051SOL     OW33991   8.630  10.550   0.512
44051SOL    HW133992   8.549  10.499   0.503
44051SOL    HW233993   8.674  10.540   0.428
44052SOL     OW33994  11.028   8.275   6.864
44052SOL    HW133995  11.064   8.218   6.797
44052SOL    HW233996  11.022   8.361   6.822
44053SOL     OW33997   6.170   2.549   3.587
44053SOL    HW133998   6.091   2.519   3.632
44053SOL    HW233999   6.160   2.516   3.497
44054SOL     OW34000  13.244   2.704  14.261
44054SOL    HW134001  13.324   2.706  14.209
44054SOL    HW234002  13.237   2.614  14.292
44055SOL     OW34003  12.591  12.118   3.099
44055SOL    HW134004  12.509  12.073   3.118
44055SOL    HW234005  12.649  12.049   3.067
44056SOL     OW34006  10.307   1.632   3.555
44056SOL    HW134007  10.294   1.690   3.480
44056SOL    HW234008  10.373   1.677   3.608
44057SOL     OW34009   1.302   6.974   2.442
44057SOL    HW134010   1.358   7.036   2.488
44057SOL    HW234011   1.226   7.026   2.414
44058SOL     OW34012  11.243   3.464   4.455
44058SOL    HW134013  11.231   3.380   4.499
44058SOL    HW234014  11.262   3.442   4.364
44059SOL     OW34015   0.920   3.480  11.312
44059SOL    HW134016   0.896   3.440  11.229
44059SOL    HW234017   0.967   3.412  11.359
44060SOL     OW34018  14.769  14.703  12.585
44060SOL    HW134019  14.787  14.670  12.497
44060SOL    HW234020  14.794  14.795  12.582
44061SOL     OW34021  13.258   6.934   6.595
44061SOL    HW134022  13.195   6.895   6.656
44061SOL    HW234023  13.208   6.947   6.514
44062SOL     OW34024   8.285   5.234  11.652
44062SOL    HW134025   8.279   5.215  11.745
44062SOL    HW234026   8.279   5.329  11.646
44063SOL     OW34027   8.914   9.521   9.146
44063SOL    HW134028   9.005   9.496   9.127
44063SOL    HW234029   8.865   9.487   9.071
44064SOL     OW34030   5.597   9.092  11.064
44064SOL    HW134031   5.637   9.047  10.990
44064SOL    HW234032   5.612   9.034  11.139
44065SOL     OW34033   8.759   8.343  11.936
44065SOL    HW134034   8.669   8.345  11.970
44065SOL    HW234035   8.761   8.414  11.872
44066SOL     OW34036  13.011   3.921  12.803
44066SOL    HW134037  13.047   3.847  12.852
44066SOL    HW234038  12.919   3.924  12.830
44067SOL     OW34039   3.860   1.609  10.810
44067SOL    HW134040   3.864   1.585  10.903
44067SOL    HW234041   3.780   1.661  10.802
44068SOL     OW34042   9.584  11.672   1.438
44068SOL    HW134043   9.499  11.694   1.400
44068SOL    HW234044   9.570  11.588   1.482
44069SOL     OW34045  13.682  10.529  11.878
44069SOL    HW134046  13.635  10.502  11.957
44069SOL    HW234047  13.658  10.621  11.866
44070SOL     OW34048   1.046   4.733   5.738
44070SOL    HW134049   1.025   4.776   5.820
44070SOL    HW234050   1.138   4.752   5.722
44071SOL     OW34051   7.777  12.204   8.119
44071SOL    HW134052   7.837  12.278   8.105
44071SOL    HW234053   7.741  12.220   8.206
44072SOL     OW34054  13.877   7.823  13.318
44072SOL    HW134055  13.793   7.837  13.363
44072SOL    HW234056  13.907   7.737  13.347
44073SOL     OW34057   4.104   6.457   8.571
44073SOL    HW134058   4.180   6.498   8.528
44073SOL    HW234059   4.125   6.364   8.573
44074SOL     OW34060   4.317  10.708   4.897
44074SOL    HW134061   4.228  10.737   4.919
44074SOL    HW234062   4.305  10.620   4.862
44075SOL     OW34063   5.584  14.264   4.326
44075SOL    HW134064   5.662  14.228   4.369
44075SOL    HW234065   5.520  14.193   4.329
44076SOL     OW34066   1.830   2.250  12.321
44076SOL    HW134067   1.892   2.260  12.249
44076SOL    HW234068   1.758   2.199  12.284
44077SOL     OW34069   3.768   7.494  14.336
44077SOL    HW134070   3.704   7.422  14.341
44077SOL    HW234071   3.852   7.452  14.356
44078SOL     OW34072   4.018   0.838   0.078
44078SOL    HW134073   4.038   0.915   0.131
44078SOL    HW234074   3.931   0.810   0.109
44079SOL     OW34075   3.372  13.972   6.348
44079SOL    HW134076   3.419  14.051   6.375
44079SOL    HW234077   3.419  13.900   6.390
44080SOL     OW34078  10.257  10.034  11.316
44080SOL    HW134079  10.319   9.968  11.346
44080SOL    HW234080  10.311  10.103  11.277
44081SOL     OW34081  14.322   3.659  11.522
44081SOL    HW134082  14.246   3.712  11.498
44081SOL    HW234083  14.344   3.688  11.611
44082SOL     OW34084  12.675   5.464   1.150
44082SOL    HW134085  12.740   5.428   1.091
44082SOL    HW234086  12.713   5.453   1.237
44083SOL     OW34087   7.824   5.237   9.794
44083SOL    HW134088   7.852   5.210   9.882
44083SOL    HW234089   7.905   5.238   9.742
44084SOL     OW34090   0.438   4.622  11.275
44084SOL    HW134091   0.415   4.556  11.209
44084SOL    HW234092   0.482   4.572  11.344
44085SOL     OW34093  13.486  10.410   3.998
44085SOL    HW134094  13.427  10.354   4.049
44085SOL    HW234095  13.573  10.390   4.033
44086SOL     OW34096  13.430   3.388   6.230
44086SOL    HW134097  13.398   3.366   6.142
44086SOL    HW234098  13.499   3.324   6.248
44087SOL     OW34099   3.818   8.116  13.803
44087SOL    HW134100   3.878   8.094  13.731
44087SOL    HW234101   3.769   8.035  13.818
44088SOL     OW34102   0.769  11.504   4.418
44088SOL    HW134103   0.807  11.521   4.332
44088SOL    HW234104   0.674  11.514   4.405
44089SOL     OW34105   6.167  12.996  11.382
44089SOL    HW134106   6.243  13.019  11.328
44089SOL    HW234107   6.186  13.032  11.468
44090SOL     OW34108  11.962  13.206   1.869
44090SOL    HW134109  11.874  13.244   1.862
44090SOL    HW234110  11.948  13.118   1.903
44091SOL     OW34111   9.969  11.673  11.821
44091SOL    HW134112  10.001  11.719  11.899
44091SOL    HW234113   9.890  11.629  11.851
44092SOL     OW34114   6.258  14.317   8.387
44092SOL    HW134115   6.255  14.406   8.422
44092SOL    HW234116   6.335  14.277   8.428
44093SOL     OW34117   0.239   1.538   1.756
44093SOL    HW134118   0.144   1.534   1.759
44093SOL    HW234119   0.259   1.624   1.720
44094SOL     OW34120  12.171   1.833  12.472
44094SOL    HW134121  12.117   1.771  12.521
44094SOL    HW234122  12.261   1.815  12.502
44095SOL     OW34123  12.670   6.688   7.684
44095SOL    HW134124  12.727   6.757   7.648
44095SOL    HW234125  12.627   6.729   7.759
44096SOL     OW34126   6.132  14.336   5.164
44096SOL    HW134127   6.089  14.390   5.098
44096SOL    HW234128   6.124  14.385   5.245
44097SOL     OW34129  14.647   2.862   1.251
44097SOL    HW134130  14.705   2.936   1.268
44097SOL    HW234131  14.703   2.796   1.210
44098SOL     OW34132  12.560   3.457  10.844
44098SOL    HW134133  12.502   3.504  10.904
44098SOL    HW234134  12.531   3.483  10.757
44099SOL     OW34135   9.061  14.775  10.469
44099SOL    HW134136   9.084  14.731  10.387
44099SOL    HW234137   9.143  14.782  10.517
44100SOL     OW34138   7.856   3.356  14.646
44100SOL    HW134139   7.847   3.266  14.677
44100SOL    HW234140   7.941   3.385  14.678
44101SOL     OW34141   4.965  10.789   4.967
44101SOL    HW134142   4.889  10.824   4.921
44101SOL    HW234143   4.951  10.694   4.967
44102SOL     OW34144   8.821   3.689   3.566
44102SOL    HW134145   8.880   3.697   3.641
44102SOL    HW234146   8.743   3.738   3.591
44103SOL     OW34147   0.039   9.776  14.678
44103SOL    HW134148   0.002   9.854  14.720
44103SOL    HW234149   0.133   9.787  14.685
44104SOL     OW34150  11.483   8.808   3.898
44104SOL    HW134151  11.550   8.876   3.908
44104SOL    HW234152  11.512   8.756   3.823
44105SOL     OW34153   4.229   4.521   5.235
44105SOL    HW134154   4.171   4.584   5.278
44105SOL    HW234155   4.272   4.571   5.166
44106SOL     OW34156  13.613   4.006   2.154
44106SOL    HW134157  13.642   3.946   2.086
44106SOL    HW234158  13.671   3.990   2.228
44107SOL     OW34159   8.743   6.867   8.909
44107SOL    HW134160   8.828   6.871   8.953
44107SOL    HW234161   8.680   6.852   8.979
44108SOL     OW34162   8.568  13.465   8.188
44108SOL    HW134163   8.585  13.514   8.269
44108SOL    HW234164   8.623  13.388   8.194
44109SOL     OW34165  14.057  11.973   4.351
44109SOL    HW134166  14.031  12.050   4.301
44109SOL    HW234167  14.150  11.962   4.331
44110SOL     OW34168   5.343   3.335  13.791
44110SOL    HW134169   5.284   3.327  13.715
44110SOL    HW234170   5.314   3.267  13.851
44111SOL     OW34171   4.717   8.263   8.692
44111SOL    HW134172   4.745   8.182   8.649
44111SOL    HW234173   4.759   8.260   8.778
44112SOL     OW34174   5.773  12.090   9.628
44112SOL    HW134175   5.781  12.010   9.680
44112SOL    HW234176   5.796  12.161   9.689
44113SOL     OW34177   8.853   9.353   4.360
44113SOL    HW134178   8.924   9.290   4.349
44113SOL    HW234179   8.808   9.325   4.440
44114SOL     OW34180   2.325  12.878  12.705
44114SOL    HW134181   2.256  12.943  12.689
44114SOL    HW234182   2.353  12.852  12.617
44115SOL     OW34183  11.633   0.908  10.772
44115SOL    HW134184  11.602   0.956  10.695
44115SOL    HW234185  11.719   0.875  10.746
44116SOL     OW34186   5.356   8.900  13.328
44116SOL    HW134187   5.441   8.888  13.285
44116SOL    HW234188   5.320   8.811  13.334
44117SOL     OW34189  10.072  10.721   4.139
44117SOL    HW134190  10.157  10.702   4.178
44117SOL    HW234191  10.070  10.669   4.059
44118SOL     OW34192  10.290  11.479   3.988
44118SOL    HW134193  10.383  11.479   4.012
44118SOL    HW234194  10.257  11.563   4.018
44119SOL     OW34195  11.687   7.022  11.260
44119SOL    HW134196  11.604   7.005  11.304
44119SOL    HW234197  11.752   6.976  11.312
44120SOL     OW34198  14.635  10.748   8.967
44120SOL    HW134199  14.611  10.723   9.056
44120SOL    HW234200  14.683  10.830   8.976
44121SOL     OW34201   7.541  14.496  14.818
44121SOL    HW134202   7.509  14.539   0.021
44121SOL    HW234203   7.516  14.555  14.747
44122SOL     OW34204  14.538   3.430   5.479
44122SOL    HW134205  14.514   3.391   5.395
44122SOL    HW234206  14.458   3.475   5.507
44123SOL     OW34207  11.586  11.449  14.216
44123SOL    HW134208  11.678  11.437  14.193
44123SOL    HW234209  11.587  11.462  14.311
44124SOL     OW34210  11.639  13.691   7.945
44124SOL    HW134211  11.587  13.691   8.025
44124SOL    HW234212  11.728  13.712   7.974
44125SOL     OW34213   8.265   0.834  14.276
44125SOL    HW134214   8.228   0.919  14.300
44125SOL    HW234215   8.330   0.854  14.208
44126SOL     OW34216   7.698   3.581  10.311
44126SOL    HW134217   7.712   3.598  10.404
44126SOL    HW234218   7.643   3.502  10.309
44127SOL     OW34219   3.345   5.299   6.866
44127SOL    HW134220   3.439   5.316   6.876
44127SOL    HW234221   3.314   5.372   6.812
44128SOL     OW34222  11.818   9.596   6.588
44128SOL    HW134223  11.868   9.658   6.640
44128SOL    HW234224  11.857   9.601   6.500
44129SOL     OW34225  12.292  11.731   1.989
44129SOL    HW134226  12.305  11.646   1.946
44129SOL    HW234227  12.348  11.791   1.941
44130SOL     OW34228  14.693   9.064   4.572
44130SOL    HW134229  14.695   9.044   4.479
44130SOL    HW234230  14.605   9.100   4.587
44131SOL     OW34231   9.366   1.801   1.785
44131SOL    HW134232   9.337   1.767   1.869
44131SOL    HW234233   9.290   1.850   1.751
44132SOL     OW34234   9.421  10.148   2.536
44132SOL    HW134235   9.458  10.119   2.452
44132SOL    HW234236   9.348  10.090   2.552
44133SOL     OW34237   6.525   4.810   1.592
44133SOL    HW134238   6.477   4.839   1.513
44133SOL    HW234239   6.605   4.770   1.558
44134SOL     OW34240   0.585   1.250   7.015
44134SOL    HW134241   0.651   1.181   7.026
44134SOL    HW234242   0.506   1.203   6.987
44135SOL     OW34243   5.584   9.436   9.317
44135SOL    HW134244   5.546   9.368   9.372
44135SOL    HW234245   5.621   9.500   9.378
44136SOL     OW34246  13.385  12.428  12.111
44136SOL    HW134247  13.297  12.393  12.096
44136SOL    HW234248  13.372  12.498  12.175
44137SOL     OW34249  12.389   2.722   2.628
44137SOL    HW134250  12.324   2.684   2.688
44137SOL    HW234251  12.454   2.762   2.685
44138SOL     OW34252   2.991   8.274  14.166
44138SOL    HW134253   2.968   8.189  14.126
44138SOL    HW234254   3.070   8.256  14.216
44139SOL     OW34255   1.654   6.478  10.154
44139SOL    HW134256   1.645   6.495  10.248
44139SOL    HW234257   1.676   6.385  10.149
44140SOL     OW34258   2.568   2.261   5.584
44140SOL    HW134259   2.648   2.310   5.605
44140SOL    HW234260   2.581   2.175   5.625
44141SOL     OW34261  12.917   8.220   8.066
44141SOL    HW134262  13.001   8.209   8.021
44141SOL    HW234263  12.855   8.241   7.996
44142SOL     OW34264   0.193   6.515   6.361
44142SOL    HW134265   0.140   6.443   6.395
44142SOL    HW234266   0.167   6.523   6.269
44143SOL     OW34267   0.976   5.472   9.024
44143SOL    HW134268   0.940   5.454   9.111
44143SOL    HW234269   1.058   5.422   9.021
44144SOL     OW34270   7.594  14.714   9.931
44144SOL    HW134271   7.507  14.676   9.943
44144SOL    HW234272   7.647  14.641   9.897
44145SOL     OW34273   7.021   8.000   2.981
44145SOL    HW134274   7.072   7.986   2.901
44145SOL    HW234275   6.948   7.939   2.973
44146SOL     OW34276  14.753   2.675   9.339
44146SOL    HW134277  14.811   2.750   9.352
44146SOL    HW234278  14.707   2.665   9.422
44147SOL     OW34279   7.361  13.181  12.714
44147SOL    HW134280   7.403  13.241  12.775
44147SOL    HW234281   7.271  13.171  12.747
44148SOL     OW34282   6.155  11.228   5.748
44148SOL    HW134283   6.068  11.198   5.775
44148SOL    HW234284   6.147  11.323   5.744
44149SOL     OW34285  11.519   4.233  11.739
44149SOL    HW134286  11.555   4.161  11.688
44149SOL    HW234287  11.463   4.281  11.677
44150SOL     OW34288   6.098  10.655   4.710
44150SOL    HW134289   6.028  10.707   4.751
44150SOL    HW234290   6.072  10.649   4.618
44151SOL     OW34291   7.887   2.990   6.654
44151SOL    HW134292   7.858   2.999   6.745
44151SOL    HW234293   7.919   3.078   6.631
44152SOL     OW34294   0.142  12.986  11.407
44152SOL    HW134295   0.152  13.019  11.497
44152SOL    HW234296   0.127  13.065  11.355
44153SOL     OW34297   0.570  14.746  11.189
44153SOL    HW134298   0.625  14.702  11.125
44153SOL    HW234299   0.619  14.742  11.271
44154SOL     OW34300  12.716   4.963   7.521
44154SOL    HW134301  12.792   4.920   7.559
44154SOL    HW234302  12.651   4.964   7.592
44155SOL     OW34303   5.995  13.525   4.860
44155SOL    HW134304   5.990  13.472   4.940
44155SOL    HW234305   6.019  13.463   4.792
44156SOL     OW34306  11.716  13.613   8.286
44156SOL    HW134307  11.676  13.566   8.213
44156SOL    HW234308  11.650  13.608   8.356
44157SOL     OW34309   1.466  11.434   9.270
44157SOL    HW134310   1.526  11.383   9.325
44157SOL    HW234311   1.393  11.456   9.328
44158SOL     OW34312   3.943   7.848   8.664
44158SOL    HW134313   3.854   7.827   8.692
44158SOL    HW234314   3.959   7.789   8.591
44159SOL     OW34315   6.098   6.609   5.527
44159SOL    HW134316   6.153   6.625   5.604
44159SOL    HW234317   6.061   6.695   5.506
44160SOL     OW34318   5.165   1.541  14.320
44160SOL    HW134319   5.145   1.579  14.405
44160SOL    HW234320   5.232   1.599  14.283
44161SOL     OW34321   8.915   8.907   4.929
44161SOL    HW134322   9.002   8.882   4.899
44161SOL    HW234323   8.930   8.952   5.012
44162SOL     OW34324   1.787  12.966  14.686
44162SOL    HW134325   1.841  13.022  14.630
44162SOL    HW234326   1.706  13.015  14.698
44163SOL     OW34327   8.772   6.971  12.627
44163SOL    HW134328   8.799   6.984  12.536
44163SOL    HW234329   8.849   6.937  12.671
44164SOL     OW34330  10.411   5.993   5.684
44164SOL    HW134331  10.493   5.986   5.634
44164SOL    HW234332  10.351   6.038   5.625
44165SOL     OW34333   9.268   4.493   4.079
44165SOL    HW134334   9.326   4.425   4.045
44165SOL    HW234335   9.320   4.539   4.144
44166SOL     OW34336   6.592   0.494   8.753
44166SOL    HW134337   6.552   0.564   8.803
44166SOL    HW234338   6.684   0.520   8.743
44167SOL     OW34339  12.101   9.995   6.809
44167SOL    HW134340  12.138   9.985   6.897
44167SOL    HW234341  12.126  10.084   6.782
44168SOL     OW34342   3.216  11.412   1.070
44168SOL    HW134343   3.162  11.465   1.130
44168SOL    HW234344   3.258  11.477   1.013
44169SOL     OW34345   8.169  13.845   9.089
44169SOL    HW134346   8.193  13.759   9.054
44169SOL    HW234347   8.073  13.844   9.090
44170SOL     OW34348   6.833   6.331  12.059
44170SOL    HW134349   6.814   6.241  12.086
44170SOL    HW234350   6.764   6.384  12.099
44171SOL     OW34351   7.749   6.921  14.311
44171SOL    HW134352   7.685   6.992  14.325
44171SOL    HW234353   7.701   6.841  14.331
44172SOL     OW34354   6.880  12.652   9.141
44172SOL    HW134355   6.929  12.572   9.161
44172SOL    HW234356   6.816  12.660   9.212
44173SOL     OW34357  13.953   8.579   2.169
44173SOL    HW134358  13.957   8.667   2.207
44173SOL    HW234359  13.946   8.593   2.075
44174SOL     OW34360   1.470  10.325  14.133
44174SOL    HW134361   1.506  10.380  14.064
44174SOL    HW234362   1.542  10.314  14.195
44175SOL     OW34363  12.890   1.036   0.439
44175SOL    HW134364  12.804   1.031   0.480
44175SOL    HW234365  12.880   1.101   0.369
44176SOL     OW34366   2.998  13.870  12.279
44176SOL    HW134367   2.961  13.900  12.362
44176SOL    HW234368   2.996  13.775  12.285
44177SOL     OW34369   7.893  10.062  10.421
44177SOL    HW134370   7.857   9.977  10.445
44177SOL    HW234371   7.967  10.041  10.364
44178SOL     OW34372   6.849   7.010   6.042
44178SOL    HW134373   6.826   7.090   6.089
44178SOL    HW234374   6.792   7.010   5.966
44179SOL     OW34375   2.663   8.656   9.539
44179SOL    HW134376   2.632   8.715   9.470
44179SOL    HW234377   2.651   8.569   9.503
44180SOL     OW34378   4.702  13.324   6.948
44180SOL    HW134379   4.691  13.409   6.991
44180SOL    HW234380   4.642  13.327   6.873
44181SOL     OW34381   0.233   5.959   8.345
44181SOL    HW134382   0.298   6.008   8.295
44181SOL    HW234383   0.211   5.884   8.290
44182SOL     OW34384  11.296   2.124  11.712
44182SOL    HW134385  11.252   2.160  11.635
44182SOL    HW234386  11.378   2.173  11.717
44183SOL     OW34387   5.410   3.236   2.502
44183SOL    HW134388   5.440   3.197   2.584
44183SOL    HW234389   5.334   3.185   2.476
44184SOL     OW34390  10.413   5.996  13.520
44184SOL    HW134391  10.446   6.072  13.471
44184SOL    HW234392  10.395   6.030  13.607
44185SOL     OW34393  10.117  12.862   0.973
44185SOL    HW134394  10.113  12.949   0.933
44185SOL    HW234395  10.183  12.815   0.922
44186SOL     OW34396  11.321   9.901   8.485
44186SOL    HW134397  11.381   9.971   8.509
44186SOL    HW234398  11.247   9.945   8.444
44187SOL     OW34399  11.428  13.442   7.450
44187SOL    HW134400  11.415  13.516   7.391
44187SOL    HW234401  11.518  13.414   7.433
44188SOL     OW34402   2.567  12.279   9.273
44188SOL    HW134403   2.548  12.200   9.323
44188SOL    HW234404   2.605  12.339   9.338
44189SOL     OW34405  12.711   7.208   1.509
44189SOL    HW134406  12.622   7.187   1.536
44189SOL    HW234407  12.730   7.292   1.551
44190SOL     OW34408   0.173  11.131   3.343
44190SOL    HW134409   0.185  11.177   3.425
44190SOL    HW234410   0.259  11.095   3.322
44191SOL     OW34411   9.542   1.504  14.657
44191SOL    HW134412   9.473   1.552  14.703
44191SOL    HW234413   9.614   1.499  14.721
44192SOL     OW34414   9.533  12.409  11.578
44192SOL    HW134415   9.441  12.422  11.554
44192SOL    HW234416   9.536  12.321  11.615
44193SOL     OW34417   8.987   7.380   4.729
44193SOL    HW134418   9.035   7.311   4.683
44193SOL    HW234419   8.915   7.401   4.670
44194SOL     OW34420   6.833   8.761   2.451
44194SOL    HW134421   6.878   8.703   2.513
44194SOL    HW234422   6.903   8.806   2.405
44195SOL     OW34423  13.926   3.227   1.125
44195SOL    HW134424  13.916   3.132   1.127
44195SOL    HW234425  13.866   3.259   1.191
44196SOL     OW34426   5.533   1.141   7.495
44196SOL    HW134427   5.453   1.128   7.444
44196SOL    HW234428   5.546   1.236   7.494
44197SOL     OW34429   7.895   0.675  12.443
44197SOL    HW134430   7.972   0.642  12.398
44197SOL    HW234431   7.925   0.755  12.486
44198SOL     OW34432   6.247   3.441   1.632
44198SOL    HW134433   6.171   3.432   1.574
44198SOL    HW234434   6.283   3.352   1.637
44199SOL     OW34435   9.772   0.779  11.603
44199SOL    HW134436   9.840   0.799  11.538
44199SOL    HW234437   9.691   0.811  11.564
44200SOL     OW34438   5.091   8.225   6.519
44200SOL    HW134439   5.151   8.299   6.530
44200SOL    HW234440   5.145   8.157   6.479
44201SOL     OW34441  14.792   7.672   2.748
44201SOL    HW134442  14.755   7.674   2.659
44201SOL    HW234443  14.715   7.679   2.805
44202SOL     OW34444  14.757  11.341   8.119
44202SOL    HW134445  14.699  11.354   8.044
44202SOL    HW234446  14.709  11.379   8.193
44203SOL     OW34447   9.639   2.831  10.448
44203SOL    HW134448   9.646   2.735  10.457
44203SOL    HW234449   9.623   2.845  10.355
44204SOL     OW34450   0.225  12.434   0.987
44204SOL    HW134451   0.170  12.398   0.917
44204SOL    HW234452   0.172  12.427   1.066
44205SOL     OW34453   5.213   1.976   7.480
44205SOL    HW134454   5.204   2.071   7.484
44205SOL    HW234455   5.307   1.960   7.492
44206SOL     OW34456  10.893  10.952  14.397
44206SOL    HW134457  10.938  10.871  14.372
44206SOL    HW234458  10.800  10.933  14.385
44207SOL     OW34459   7.589  12.520   3.624
44207SOL    HW134460   7.547  12.464   3.558
44207SOL    HW234461   7.571  12.609   3.595
44208SOL     OW34462   6.530  14.390   6.687
44208SOL    HW134463   6.617  14.353   6.694
44208SOL    HW234464   6.538  14.479   6.723
44209SOL     OW34465  11.026  13.261  13.451
44209SOL    HW134466  11.057  13.348  13.428
44209SOL    HW234467  10.939  13.255  13.412
44210SOL     OW34468  14.702   7.000   6.129
44210SOL    HW134469  14.677   7.082   6.086
44210SOL    HW234470  14.671   7.010   6.219
44211SOL     OW34471   0.742  14.104   6.090
44211SOL    HW134472   0.775  14.191   6.114
44211SOL    HW234473   0.791  14.044   6.145
44212SOL     OW34474   9.864   8.365   9.479
44212SOL    HW134475   9.923   8.295   9.450
44212SOL    HW234476   9.908   8.402   9.556
44213SOL     OW34477  13.563  14.276   8.108
44213SOL    HW134478  13.591  14.304   8.021
44213SOL    HW234479  13.643  14.244   8.150
44214SOL     OW34480   1.324  10.811   5.887
44214SOL    HW134481   1.307  10.752   5.813
44214SOL    HW234482   1.238  10.846   5.909
44215SOL     OW34483  11.184  11.193   9.689
44215SOL    HW134484  11.150  11.280   9.710
44215SOL    HW234485  11.230  11.165   9.768
44216SOL     OW34486   1.219   2.954   8.225
44216SOL    HW134487   1.241   2.901   8.301
44216SOL    HW234488   1.170   3.028   8.261
44217SOL     OW34489  12.695   2.915  12.873
44217SOL    HW134490  12.699   3.002  12.913
44217SOL    HW234491  12.601   2.896  12.865
44218SOL     OW34492   7.303   8.441   8.865
44218SOL    HW134493   7.301   8.512   8.930
44218SOL    HW234494   7.368   8.380   8.898
44219SOL     OW34495  10.538   9.924  11.149
44219SOL    HW134496  10.475   9.976  11.099
44219SOL    HW234497  10.485   9.855  11.190
44220SOL     OW34498   5.063   5.629  11.327
44220SOL    HW134499   5.138   5.678  11.362
44220SOL    HW234500   5.020   5.593  11.405
44221SOL     OW34501  10.403   2.979  12.955
44221SOL    HW134502  10.393   3.063  12.911
44221SOL    HW234503  10.331   2.926  12.921
44222SOL     OW34504  12.063  14.212   9.762
44222SOL    HW134505  12.048  14.283   9.699
44222SOL    HW234506  12.082  14.257   9.844
44223SOL     OW34507  10.143   1.844  10.815
44223SOL    HW134508  10.229   1.802  10.809
44223SOL    HW234509  10.086   1.777  10.852
44224SOL     OW34510  12.662   2.255   5.957
44224SOL    HW134511  12.744   2.281   5.997
44224SOL    HW234512  12.595   2.276   6.022
44225SOL     OW34513   0.255   0.363   1.556
44225SOL    HW134514   0.274   0.269   1.552
44225SOL    HW234515   0.324   0.399   1.612
44226SOL     OW34516  10.633   8.569   7.003
44226SOL    HW134517  10.567   8.598   6.939
44226SOL    HW234518  10.588   8.571   7.087
44227SOL     OW34519  14.550   6.470  10.195
44227SOL    HW134520  14.550   6.426  10.110
44227SOL    HW234521  14.494   6.546  10.183
44228SOL     OW34522   3.611   8.324   4.271
44228SOL    HW134523   3.613   8.399   4.329
44228SOL    HW234524   3.701   8.313   4.241
44229SOL     OW34525   3.654   7.347  13.514
44229SOL    HW134526   3.562   7.343  13.539
44229SOL    HW234527   3.702   7.317  13.592
44230SOL     OW34528   1.146   2.340   8.465
44230SOL    HW134529   1.074   2.301   8.415
44230SOL    HW234530   1.117   2.430   8.481
44231SOL     OW34531   4.114   8.878   6.190
44231SOL    HW134532   4.092   8.858   6.281
44231SOL    HW234533   4.171   8.955   6.195
44232SOL     OW34534   9.691  13.900   0.958
44232SOL    HW134535   9.657  13.818   0.993
44232SOL    HW234536   9.746  13.874   0.884
44233SOL     OW34537   6.066   3.858   5.173
44233SOL    HW134538   6.039   3.767   5.165
44233SOL    HW234539   6.034   3.900   5.093
44234SOL     OW34540   7.245   9.049   0.778
44234SOL    HW134541   7.184   9.111   0.739
44234SOL    HW234542   7.305   9.103   0.830
44235SOL     OW34543  12.459   9.115  14.663
44235SOL    HW134544  12.375   9.118  14.709
44235SOL    HW234545  12.474   9.204  14.632
44236SOL     OW34546   6.432  12.848   0.435
44236SOL    HW134547   6.379  12.775   0.469
44236SOL    HW234548   6.368  12.909   0.399
44237SOL     OW34549   4.059   7.899  13.985
44237SOL    HW134550   4.127   7.878  13.922
44237SOL    HW234551   4.058   7.994  13.990
44238SOL     OW34552   2.054  12.689   0.104
44238SOL    HW134553   2.088  12.770   0.144
44238SOL    HW234554   2.069  12.622   0.171
44239SOL     OW34555  11.219  11.098  11.537
44239SOL    HW134556  11.156  11.119  11.469
44239SOL    HW234557  11.213  11.003  11.547
44240SOL     OW34558  11.531   8.714   4.512
44240SOL    HW134559  11.499   8.627   4.487
44240SOL    HW234560  11.612   8.697   4.558
44241SOL     OW34561   5.332   2.239   3.307
44241SOL    HW134562   5.271   2.304   3.272
44241SOL    HW234563   5.419   2.272   3.285
44242SOL     OW34564  13.681   1.697   1.681
44242SOL    HW134565  13.704   1.607   1.705
44242SOL    HW234566  13.608   1.719   1.739
44243SOL     OW34567   5.855   6.244   8.083
44243SOL    HW134568   5.804   6.249   8.164
44243SOL    HW234569   5.886   6.334   8.069
44244SOL     OW34570  10.232   2.458  10.003
44244SOL    HW134571  10.295   2.439  10.073
44244SOL    HW234572  10.212   2.373   9.965
44245SOL     OW34573   4.234   1.406  14.444
44245SOL    HW134574   4.193   1.396  14.530
44245SOL    HW234575   4.164   1.438  14.388
44246SOL     OW34576   2.675  10.023   2.690
44246SOL    HW134577   2.740  10.045   2.623
44246SOL    HW234578   2.591  10.044   2.649
44247SOL     OW34579  11.072  14.258  11.354
44247SOL    HW134580  11.085  14.327  11.288
44247SOL    HW234581  11.144  14.197  11.339
44248SOL     OW34582   4.376   2.085   5.586
44248SOL    HW134583   4.417   2.102   5.502
44248SOL    HW234584   4.448   2.089   5.649
44249SOL     OW34585  11.776   0.209   6.941
44249SOL    HW134586  11.770   0.254   7.025
44249SOL    HW234587  11.799   0.278   6.878
44250SOL     OW34588   3.953   6.625  12.156
44250SOL    HW134589   3.902   6.688  12.104
44250SOL    HW234590   3.887   6.574  12.202
44251SOL     OW34591   9.580   7.226  13.673
44251SOL    HW134592   9.675   7.216  13.667
44251SOL    HW234593   9.567   7.299  13.733
44252SOL     OW34594   0.882   9.947   0.482
44252SOL    HW134595   0.900   9.904   0.566
44252SOL    HW234596   0.935  10.027   0.484
44253SOL     OW34597   3.524   0.222   8.835
44253SOL    HW134598   3.571   0.166   8.774
44253SOL    HW234599   3.431   0.203   8.819
44254SOL     OW34600   5.223   9.195   7.741
44254SOL    HW134601   5.246   9.257   7.671
44254SOL    HW234602   5.234   9.244   7.822
44255SOL     OW34603   7.887  13.842   9.371
44255SOL    HW134604   7.797  13.859   9.341
44255SOL    HW234605   7.892  13.886   9.456
44256SOL     OW34606   5.115   9.225   2.553
44256SOL    HW134607   5.157   9.311   2.557
44256SOL    HW234608   5.185   9.166   2.525
44257SOL     OW34609   2.977  14.566   1.200
44257SOL    HW134610   2.939  14.509   1.133
44257SOL    HW234611   2.905  14.622   1.227
44258SOL     OW34612  10.388   5.134   5.375
44258SOL    HW134613  10.457   5.086   5.331
44258SOL    HW234614  10.406   5.226   5.355
44259SOL     OW34615  14.344  14.006   1.487
44259SOL    HW134616  14.360  13.961   1.404
44259SOL    HW234617  14.425  13.992   1.537
44260SOL     OW34618   4.070   6.802   5.565
44260SOL    HW134619   4.115   6.831   5.486
44260SOL    HW234620   4.035   6.882   5.604
44261SOL     OW34621  11.272   0.255   4.655
44261SOL    HW134622  11.249   0.198   4.729
44261SOL    HW234623  11.240   0.208   4.578
44262SOL     OW34624   7.510  12.550  12.565
44262SOL    HW134625   7.423  12.562  12.603
44262SOL    HW234626   7.523  12.629  12.512
44263SOL     OW34627  11.738   2.831  11.781
44263SOL    HW134628  11.763   2.739  11.773
44263SOL    HW234629  11.643   2.831  11.779
44264SOL     OW34630   2.799   3.842   0.823
44264SOL    HW134631   2.873   3.803   0.776
44264SOL    HW234632   2.726   3.783   0.805
44265SOL     OW34633   1.338  14.459   8.908
44265SOL    HW134634   1.383  14.503   8.835
44265SOL    HW234635   1.255  14.431   8.872
44266SOL     OW34636  13.213  13.317   4.811
44266SOL    HW134637  13.134  13.277   4.847
44266SOL    HW234638  13.186  13.404   4.783
44267SOL     OW34639  12.012  12.570   7.596
44267SOL    HW134640  11.969  12.575   7.511
44267SOL    HW234641  12.097  12.531   7.578
44268SOL     OW34642   4.914   2.027  10.857
44268SOL    HW134643   4.884   1.946  10.815
44268SOL    HW234644   4.929   2.087  10.785
44269SOL     OW34645   5.983   7.719   2.258
44269SOL    HW134646   5.894   7.723   2.222
44269SOL    HW234647   5.974   7.749   2.348
44270SOL     OW34648   3.980  10.897   0.623
44270SOL    HW134649   4.042  10.939   0.682
44270SOL    HW234650   3.906  10.958   0.618
44271SOL     OW34651   3.134   8.904  13.404
44271SOL    HW134652   3.199   8.899  13.474
44271SOL    HW234653   3.186   8.910  13.323
44272SOL     OW34654   1.541   2.986   3.949
44272SOL    HW134655   1.543   2.994   4.045
44272SOL    HW234656   1.506   3.069   3.919
44273SOL     OW34657   8.800   1.088  10.509
44273SOL    HW134658   8.845   1.093  10.593
44273SOL    HW234659   8.713   1.054  10.530
44274SOL     OW34660  11.551  11.829  12.095
44274SOL    HW134661  11.513  11.795  12.176
44274SOL    HW234662  11.481  11.821  12.031
44275SOL     OW34663  10.689  14.193   3.181
44275SOL    HW134664  10.748  14.194   3.106
44275SOL    HW234665  10.740  14.232   3.252
44276SOL     OW34666  12.715  13.456   1.656
44276SOL    HW134667  12.749  13.381   1.606
44276SOL    HW234668  12.640  13.421   1.704
44277SOL     OW34669   1.343  13.939  10.925
44277SOL    HW134670   1.391  14.021  10.928
44277SOL    HW234671   1.340  13.909  11.016
44278SOL     OW34672   3.388   1.519   9.734
44278SOL    HW134673   3.368   1.448   9.673
44278SOL    HW234674   3.482   1.509   9.752
44279SOL     OW34675   2.182   8.761   4.243
44279SOL    HW134676   2.278   8.759   4.241
44279SOL    HW234677   2.161   8.819   4.316
44280SOL     OW34678   3.210  11.623  11.560
44280SOL    HW134679   3.210  11.718  11.561
44280SOL    HW234680   3.296  11.599  11.524
44281SOL     OW34681  12.176  10.889   7.383
44281SOL    HW134682  12.188  10.984   7.386
44281SOL    HW234683  12.250  10.854   7.432
44282SOL     OW34684  12.863   6.747  13.506
44282SOL    HW134685  12.817   6.755  13.590
44282SOL    HW234686  12.948   6.710  13.530
44283SOL     OW34687   3.360   0.558   0.234
44283SOL    HW134688   3.379   0.517   0.319
44283SOL    HW234689   3.345   0.650   0.255
44284SOL     OW34690   1.882   8.428  14.027
44284SOL    HW134691   1.833   8.402  13.949
44284SOL    HW234692   1.937   8.352  14.047
44285SOL     OW34693  13.563   0.889   8.065
44285SOL    HW134694  13.560   0.849   8.152
44285SOL    HW234695  13.472   0.898   8.039
44286SOL     OW34696  11.652   3.863   4.931
44286SOL    HW134697  11.589   3.928   4.898
44286SOL    HW234698  11.737   3.896   4.905
44287SOL     OW34699  12.906  11.127   8.330
44287SOL    HW134700  12.915  11.047   8.381
44287SOL    HW234701  12.988  11.133   8.280
44288SOL     OW34702  11.386   3.466   1.112
44288SOL    HW134703  11.447   3.463   1.038
44288SOL    HW234704  11.442   3.463   1.190
44289SOL     OW34705  12.677   0.621  10.599
44289SOL    HW134706  12.595   0.575  10.619
44289SOL    HW234707  12.706   0.583  10.516
44290SOL     OW34708   9.678  10.602   7.924
44290SOL    HW134709   9.634  10.532   7.973
44290SOL    HW234710   9.606  10.658   7.894
44291SOL     OW34711   2.106  13.867   9.506
44291SOL    HW134712   2.052  13.814   9.564
44291SOL    HW234713   2.192  13.825   9.508
44292SOL     OW34714   9.620  10.977   3.577
44292SOL    HW134715   9.538  11.024   3.560
44292SOL    HW234716   9.638  10.991   3.670
44293SOL     OW34717   6.620   0.382   7.834
44293SOL    HW134718   6.537   0.335   7.832
44293SOL    HW234719   6.597   0.472   7.859
44294SOL     OW34720   4.691  11.908  12.493
44294SOL    HW134721   4.674  11.848  12.567
44294SOL    HW234722   4.619  11.970  12.495
44295SOL     OW34723   0.398   1.765   6.701
44295SOL    HW134724   0.342   1.783   6.777
44295SOL    HW234725   0.408   1.670   6.700
44296SOL     OW34726   7.042   4.459  12.188
44296SOL    HW134727   7.100   4.521  12.145
44296SOL    HW234728   6.973   4.513  12.226
44297SOL     OW34729  14.177   0.590   6.211
44297SOL    HW134730  14.090   0.584   6.251
44297SOL    HW234731  14.184   0.682   6.184
44298SOL     OW34732   2.728   6.054   3.322
44298SOL    HW134733   2.726   5.983   3.259
44298SOL    HW234734   2.819   6.085   3.321
44299SOL     OW34735   9.724   0.201   3.650
44299SOL    HW134736   9.692   0.161   3.570
44299SOL    HW234737   9.665   0.170   3.719
44300SOL     OW34738   6.428   1.635   8.399
44300SOL    HW134739   6.404   1.568   8.463
44300SOL    HW234740   6.514   1.665   8.428
44301SOL     OW34741   8.067  11.233  11.273
44301SOL    HW134742   8.121  11.280  11.337
44301SOL    HW234743   8.040  11.153  11.318
44302SOL     OW34744   5.119   9.005   5.861
44302SOL    HW134745   5.205   9.019   5.821
44302SOL    HW234746   5.069   8.957   5.795
44303SOL     OW34747  11.218   9.437   2.817
44303SOL    HW134748  11.145   9.457   2.876
44303SOL    HW234749  11.278   9.384   2.870
44304SOL     OW34750   4.925  12.206   5.543
44304SOL    HW134751   4.935  12.185   5.636
44304SOL    HW234752   4.986  12.148   5.498
44305SOL     OW34753  10.565   3.918  10.330
44305SOL    HW134754  10.473   3.891  10.337
44305SOL    HW234755  10.614   3.841  10.360
44306SOL     OW34756   0.297   5.866   4.202
44306SOL    HW134757   0.350   5.913   4.137
44306SOL    HW234758   0.230   5.822   4.151
44307SOL     OW34759   9.407   4.269   4.023
44307SOL    HW134760   9.351   4.192   4.014
44307SOL    HW234761   9.478   4.255   3.961
44308SOL     OW34762  13.447  10.789  13.219
44308SOL    HW134763  13.499  10.797  13.139
44308SOL    HW234764  13.512  10.784  13.289
44309SOL     OW34765   2.361  11.615  11.652
44309SOL    HW134766   2.368  11.660  11.568
44309SOL    HW234767   2.444  11.569  11.662
44310SOL     OW34768  10.722   2.972   0.513
44310SOL    HW134769  10.765   3.056   0.503
44310SOL    HW234770  10.634   2.993   0.543
44311SOL     OW34771  14.366  14.565   2.439
44311SOL    HW134772  14.323  14.508   2.376
44311SOL    HW234773  14.297  14.591   2.500
44312SOL     OW34774   7.922   7.527   8.227
44312SOL    HW134775   7.868   7.607   8.227
44312SOL    HW234776   7.901   7.484   8.144
44313SOL     OW34777  13.177   2.488   1.567
44313SOL    HW134778  13.128   2.455   1.643
44313SOL    HW234779  13.259   2.519   1.605
44314SOL     OW34780  10.480   8.868   1.079
44314SOL    HW134781  10.546   8.828   1.135
44314SOL    HW234782  10.418   8.908   1.139
44315SOL     OW34783   9.731   5.120  11.216
44315SOL    HW134784   9.783   5.045  11.186
44315SOL    HW234785   9.767   5.195  11.168
44316SOL     OW34786   9.151   7.204   3.979
44316SOL    HW134787   9.095   7.186   4.055
44316SOL    HW234788   9.095   7.255   3.920
44317SOL     OW34789  14.515   4.446   3.654
44317SOL    HW134790  14.564   4.473   3.732
44317SOL    HW234791  14.425   4.476   3.671
44318SOL     OW34792   0.702   9.907   8.303
44318SOL    HW134793   0.665   9.870   8.382
44318SOL    HW234794   0.762   9.975   8.334
44319SOL     OW34795  13.138   7.681  14.093
44319SOL    HW134796  13.083   7.734  14.036
44319SOL    HW234797  13.179   7.745  14.153
44320SOL     OW34798   5.465   9.281  11.817
44320SOL    HW134799   5.436   9.197  11.854
44320SOL    HW234800   5.534   9.258  11.755
44321SOL     OW34801  14.734   7.956   5.808
44321SOL    HW134802  14.780   8.025   5.856
44321SOL    HW234803  14.765   7.964   5.718
44322SOL     OW34804   4.862  10.559   1.013
44322SOL    HW134805   4.895  10.600   1.093
44322SOL    HW234806   4.776  10.525   1.037
44323SOL     OW34807  13.508   7.779   3.995
44323SOL    HW134808  13.456   7.731   4.060
44323SOL    HW234809  13.460   7.768   3.913
44324SOL     OW34810  13.767   9.638   3.760
44324SOL    HW134811  13.742   9.715   3.709
44324SOL    HW234812  13.704   9.636   3.833
44325SOL     OW34813  14.638   4.175   7.712
44325SOL    HW134814  14.670   4.264   7.701
44325SOL    HW234815  14.718   4.121   7.710
44326SOL     OW34816  13.997   3.431  14.225
44326SOL    HW134817  14.071   3.390  14.271
44326SOL    HW234818  14.016   3.416  14.132
44327SOL     OW34819  10.007   1.599   1.966
44327SOL    HW134820  10.063   1.616   2.042
44327SOL    HW234821  10.004   1.682   1.920
44328SOL     OW34822  12.520   9.014   2.643
44328SOL    HW134823  12.585   9.074   2.606
44328SOL    HW234824  12.477   8.975   2.566
44329SOL     OW34825   4.595   3.177   1.557
44329SOL    HW134826   4.574   3.134   1.640
44329SOL    HW234827   4.579   3.270   1.574
44330SOL     OW34828  11.414   0.362  11.085
44330SOL    HW134829  11.469   0.424  11.038
44330SOL    HW234830  11.406   0.399  11.173
44331SOL     OW34831   1.474   3.985   6.813
44331SOL    HW134832   1.498   4.065   6.766
44331SOL    HW234833   1.434   3.929   6.746
44332SOL     OW34834  13.937   7.554   1.032
44332SOL    HW134835  13.899   7.478   1.077
44332SOL    HW234836  14.016   7.520   0.992
44333SOL     OW34837   0.795   8.892   1.465
44333SOL    HW134838   0.720   8.894   1.525
44333SOL    HW234839   0.801   8.801   1.438
44334SOL     OW34840   6.963   8.867   5.028
44334SOL    HW134841   6.940   8.836   4.941
44334SOL    HW234842   6.910   8.945   5.041
44335SOL     OW34843   0.318  10.602  11.099
44335SOL    HW134844   0.278  10.687  11.081
44335SOL    HW234845   0.256  10.557  11.156
44336SOL     OW34846   7.755   2.325   4.309
44336SOL    HW134847   7.667   2.295   4.287
44336SOL    HW234848   7.742   2.384   4.383
44337SOL     OW34849   1.030   1.782   6.314
44337SOL    HW134850   0.975   1.860   6.328
44337SOL    HW234851   1.076   1.771   6.397
44338SOL     OW34852  14.500   4.944  11.439
44338SOL    HW134853  14.509   5.036  11.461
44338SOL    HW234854  14.491   4.900  11.524
44339SOL     OW34855   5.289   7.950  10.815
44339SOL    HW134856   5.275   8.003  10.893
44339SOL    HW234857   5.273   7.860  10.843
44340SOL     OW34858   6.903  11.323   2.222
44340SOL    HW134859   6.837  11.389   2.244
44340SOL    HW234860   6.858  11.239   2.232
44341SOL     OW34861   1.311   8.582   5.127
44341SOL    HW134862   1.236   8.641   5.128
44341SOL    HW234863   1.381   8.633   5.087
44342SOL     OW34864   6.049   7.214   1.438
44342SOL    HW134865   6.078   7.123   1.426
44342SOL    HW234866   6.023   7.242   1.351
44343SOL     OW34867  13.420  11.504   1.763
44343SOL    HW134868  13.385  11.524   1.676
44343SOL    HW234869  13.508  11.469   1.747
44344SOL     OW34870  10.297   4.048   0.235
44344SOL    HW134871  10.254   4.051   0.150
44344SOL    HW234872  10.280   4.134   0.273
44345SOL     OW34873  14.548   5.899   8.324
44345SOL    HW134874  14.496   5.847   8.262
44345SOL    HW234875  14.510   5.987   8.320
44346SOL     OW34876  11.597  10.992   6.189
44346SOL    HW134877  11.514  10.950   6.213
44346SOL    HW234878  11.635  10.935   6.123
44347SOL     OW34879   2.442  13.300  12.219
44347SOL    HW134880   2.382  13.255  12.160
44347SOL    HW234881   2.386  13.331  12.291
44348SOL     OW34882   1.792   9.445  13.089
44348SOL    HW134883   1.771   9.381  13.021
44348SOL    HW234884   1.857   9.401  13.144
44349SOL     OW34885  10.666   5.425  10.839
44349SOL    HW134886  10.670   5.495  10.905
44349SOL    HW234887  10.648   5.346  10.889
44350SOL     OW34888  10.515  10.716   2.293
44350SOL    HW134889  10.503  10.667   2.212
44350SOL    HW234890  10.462  10.670   2.358
44351SOL     OW34891  13.917  13.105   0.298
44351SOL    HW134892  13.967  13.084   0.219
44351SOL    HW234893  13.947  13.193   0.322
44352SOL     OW34894   1.865   9.663   4.840
44352SOL    HW134895   1.956   9.675   4.814
44352SOL    HW234896   1.814   9.704   4.770
44353SOL     OW34897  12.952  12.297  12.338
44353SOL    HW134898  12.913  12.221  12.380
44353SOL    HW234899  12.888  12.324  12.272
44354SOL     OW34900  11.977   5.578   9.930
44354SOL    HW134901  12.057   5.548   9.973
44354SOL    HW234902  11.952   5.657   9.978
44355SOL     OW34903   5.923   1.547   2.149
44355SOL    HW134904   5.886   1.473   2.197
44355SOL    HW234905   5.849   1.583   2.099
44356SOL     OW34906  12.391  11.153  13.960
44356SOL    HW134907  12.315  11.211  13.955
44356SOL    HW234908  12.377  11.090  13.890
44357SOL     OW34909   2.491   9.631   7.432
44357SOL    HW134910   2.447   9.570   7.373
44357SOL    HW234911   2.565   9.582   7.467
44358SOL     OW34912   2.645   6.027  12.119
44358SOL    HW134913   2.582   6.060  12.055
44358SOL    HW234914   2.707   5.976  12.067
44359SOL     OW34915   5.686   2.650  10.975
44359SOL    HW134916   5.610   2.625  10.922
44359SOL    HW234917   5.736   2.710  10.919
44360SOL     OW34918   8.059  12.913   5.136
44360SOL    HW134919   8.110  12.882   5.060
44360SOL    HW234920   8.122  12.963   5.188
44361SOL     OW34921   8.245   5.203   7.470
44361SOL    HW134922   8.253   5.288   7.425
44361SOL    HW234923   8.250   5.225   7.563
44362SOL     OW34924   0.285   2.118  13.067
44362SOL    HW134925   0.325   2.201  13.041
44362SOL    HW234926   0.332   2.092  13.146
44363SOL     OW34927   7.933   5.820  13.805
44363SOL    HW134928   8.014   5.863  13.833
44363SOL    HW234929   7.950   5.790  13.716
44364SOL     OW34930   5.692   1.687   6.558
44364SOL    HW134931   5.671   1.775   6.526
44364SOL    HW234932   5.677   1.630   6.483
44365SOL     OW34933   7.954   4.738   7.521
44365SOL    HW134934   7.879   4.693   7.483
44365SOL    HW234935   8.000   4.670   7.570
44366SOL     OW34936   7.140   0.110   2.922
44366SOL    HW134937   7.092   0.166   2.861
44366SOL    HW234938   7.214   0.164   2.949
44367SOL     OW34939   7.962   1.888   5.473
44367SOL    HW134940   7.933   1.980   5.473
44367SOL    HW234941   7.886   1.838   5.445
44368SOL     OW34942   7.811   2.066   8.305
44368SOL    HW134943   7.840   2.127   8.373
44368SOL    HW234944   7.876   2.076   8.235
44369SOL     OW34945   2.854  14.160   0.984
44369SOL    HW134946   2.853  14.256   0.977
44369SOL    HW234947   2.804  14.141   1.064
44370SOL     OW34948   3.468   4.294   5.789
44370SOL    HW134949   3.556   4.305   5.825
44370SOL    HW234950   3.445   4.381   5.755
44371SOL     OW34951   5.288  10.888   5.788
44371SOL    HW134952   5.193  10.892   5.774
44371SOL    HW234953   5.321  10.835   5.716
44372SOL     OW34954   3.640   4.775   7.038
44372SOL    HW134955   3.635   4.785   7.133
44372SOL    HW234956   3.587   4.846   7.004
44373SOL     OW34957   8.716   4.901   4.462
44373SOL    HW134958   8.711   4.824   4.405
44373SOL    HW234959   8.649   4.886   4.528
44374SOL     OW34960   7.253  11.309  10.087
44374SOL    HW134961   7.347  11.321  10.105
44374SOL    HW234962   7.245  11.321   9.993
44375SOL     OW34963   2.640  14.374   1.691
44375SOL    HW134964   2.633  14.280   1.672
44375SOL    HW234965   2.715  14.403   1.638
44376SOL     OW34966   9.364  14.278   4.168
44376SOL    HW134967   9.434  14.258   4.230
44376SOL    HW234968   9.303  14.334   4.216
44377SOL     OW34969  14.442   2.828   1.478
44377SOL    HW134970  14.499   2.841   1.403
44377SOL    HW234971  14.500   2.794   1.546
44378SOL     OW34972   2.308  10.332   5.771
44378SOL    HW134973   2.214  10.339   5.788
44378SOL    HW234974   2.316  10.253   5.717
44379SOL     OW34975  10.917   9.786   8.970
44379SOL    HW134976  10.919   9.856   8.904
44379SOL    HW234977  10.935   9.706   8.921
44380SOL     OW34978   7.482  10.888   9.952
44380SOL    HW134979   7.576  10.876   9.940
44380SOL    HW234980   7.462  10.841  10.033
44381SOL     OW34981  14.065   0.987   2.164
44381SOL    HW134982  14.051   0.933   2.086
44381SOL    HW234983  14.082   1.075   2.130
44382SOL     OW34984   9.787  14.321   2.116
44382SOL    HW134985   9.853  14.366   2.064
44382SOL    HW234986   9.760  14.246   2.062
44383SOL     OW34987  14.759  12.378   9.081
44383SOL    HW134988  14.826  12.313   9.101
44383SOL    HW234989  14.752  12.431   9.160
44384SOL     OW34990   6.855   5.072  13.119
44384SOL    HW134991   6.839   4.990  13.071
44384SOL    HW234992   6.809   5.139  13.069
44385SOL     OW34993  10.506   9.526   9.062
44385SOL    HW134994  10.565   9.487   8.998
44385SOL    HW234995  10.420   9.525   9.019
44386SOL     OW34996   4.836   9.602   4.046
44386SOL    HW134997   4.872   9.665   3.983
44386SOL    HW234998   4.914   9.563   4.087
44387SOL     OW34999   2.920  10.982   2.005
44387SOL    HW135000   2.989  10.925   2.037
44387SOL    HW235001   2.848  10.923   1.983
44388SOL     OW35002   7.477   5.760   2.195
44388SOL    HW135003   7.391   5.803   2.194
44388SOL    HW235004   7.480   5.716   2.280
44389SOL     OW35005   2.284   4.857   7.576
44389SOL    HW135006   2.347   4.837   7.645
44389SOL    HW235007   2.283   4.779   7.520
44390SOL     OW35008  11.087   8.585   1.862
44390SOL    HW135009  11.154   8.647   1.835
44390SOL    HW235010  11.047   8.556   1.779
44391SOL     OW35011   3.490  13.062  10.871
44391SOL    HW135012   3.584  13.045  10.867
44391SOL    HW235013   3.456  13.029  10.788
44392SOL     OW35014  11.712  10.269   7.718
44392SOL    HW135015  11.729  10.223   7.800
44392SOL    HW235016  11.795  10.266   7.671
44393SOL     OW35017   8.055   4.210   1.087
44393SOL    HW135018   8.117   4.273   1.123
44393SOL    HW235019   7.969   4.247   1.105
44394SOL     OW35020   1.470  11.895   2.431
44394SOL    HW135021   1.389  11.875   2.384
44394SOL    HW235022   1.538  11.888   2.364
44395SOL     OW35023   9.767  10.408   3.728
44395SOL    HW135024   9.776  10.415   3.823
44395SOL    HW235025   9.679  10.441   3.709
44396SOL     OW35026   4.138   4.693  13.732
44396SOL    HW135027   4.215   4.636  13.726
44396SOL    HW235028   4.174   4.779  13.751
44397SOL     OW35029   7.823   8.189  10.396
44397SOL    HW135030   7.851   8.278  10.421
44397SOL    HW235031   7.905   8.142  10.382
44398SOL     OW35032  14.022   5.504   4.140
44398SOL    HW135033  14.085   5.543   4.080
44398SOL    HW235034  13.991   5.578   4.193
44399SOL     OW35035   9.160  12.688   7.268
44399SOL    HW135036   9.210  12.611   7.296
44399SOL    HW235037   9.138  12.671   7.177
44400SOL     OW35038   8.761   2.256   8.805
44400SOL    HW135039   8.763   2.291   8.894
44400SOL    HW235040   8.667   2.248   8.784
44401SOL     OW35041  13.621   8.932  13.443
44401SOL    HW135042  13.704   8.960  13.482
44401SOL    HW235043  13.645   8.896  13.358
44402SOL     OW35044  12.898  12.692  11.843
44402SOL    HW135045  12.949  12.755  11.793
44402SOL    HW235046  12.818  12.680  11.791
44403SOL     OW35047  10.007  14.026   5.791
44403SOL    HW135048  10.040  14.052   5.877
44403SOL    HW235049  10.085  13.999   5.742
44404SOL     OW35050   4.044  12.142   8.865
44404SOL    HW135051   4.065  12.053   8.836
44404SOL    HW235052   3.958  12.160   8.826
44405SOL     OW35053   5.906  14.829  10.133
44405SOL    HW135054   5.916  14.847  10.227
44405SOL    HW235055   5.822  14.868  10.110
44406SOL     OW35056   8.558   8.594   2.593
44406SOL    HW135057   8.530   8.635   2.511
44406SOL    HW235058   8.477   8.583   2.643
44407SOL     OW35059  11.518   6.803   5.920
44407SOL    HW135060  11.519   6.859   5.998
44407SOL    HW235061  11.609   6.804   5.890
44408SOL     OW35062   5.606  10.216   9.794
44408SOL    HW135063   5.552  10.168   9.731
44408SOL    HW235064   5.692  10.222   9.752
44409SOL     OW35065   6.778  14.329   1.408
44409SOL    HW135066   6.865  14.369   1.409
44409SOL    HW235067   6.792  14.243   1.367
44410SOL     OW35068   7.968   4.401  13.718
44410SOL    HW135069   8.021   4.375  13.793
44410SOL    HW235070   7.948   4.320  13.672
44411SOL     OW35071  14.711   6.023  13.168
44411SOL    HW135072  14.700   5.933  13.136
44411SOL    HW235073  14.802   6.044  13.147
44412SOL     OW35074  13.513  10.622   4.916
44412SOL    HW135075  13.426  10.658   4.898
44412SOL    HW235076  13.496  10.546   4.972
44413SOL     OW35077   4.933   7.079  12.436
44413SOL    HW135078   4.903   7.123  12.357
44413SOL    HW235079   4.927   7.145  12.505
44414SOL     OW35080   1.016  14.006   7.950
44414SOL    HW135081   0.933  14.016   7.998
44414SOL    HW235082   1.070  14.080   7.978
44415SOL     OW35083  11.633   0.280   7.365
44415SOL    HW135084  11.716   0.273   7.319
44415SOL    HW235085  11.633   0.207   7.427
44416SOL     OW35086  13.251   9.558   9.179
44416SOL    HW135087  13.300   9.509   9.244
44416SOL    HW235088  13.212   9.491   9.123
44417SOL     OW35089   7.758   9.804   3.359
44417SOL    HW135090   7.794   9.788   3.272
44417SOL    HW235091   7.834   9.812   3.416
44418SOL     OW35092  14.295   2.122  10.663
44418SOL    HW135093  14.366   2.127  10.726
44418SOL    HW235094  14.335   2.146  10.579
44419SOL     OW35095   3.083  10.328   9.511
44419SOL    HW135096   3.123  10.270   9.446
44419SOL    HW235097   3.105  10.416   9.480
44420SOL     OW35098   9.577   7.207   1.946
44420SOL    HW135099   9.644   7.260   1.903
44420SOL    HW235100   9.573   7.127   1.893
44421SOL     OW35101  10.302  10.858   4.915
44421SOL    HW135102  10.253  10.778   4.935
44421SOL    HW235103  10.374  10.829   4.859
44422SOL     OW35104   5.738   7.731   2.182
44422SOL    HW135105   5.721   7.819   2.218
44422SOL    HW235106   5.666   7.678   2.216
44423SOL     OW35107   1.298   9.917   6.889
44423SOL    HW135108   1.260   9.830   6.891
44423SOL    HW235109   1.374   9.909   6.831
44424SOL     OW35110  11.625   6.252  12.331
44424SOL    HW135111  11.709   6.244  12.375
44424SOL    HW235112  11.581   6.325  12.375
44425SOL     OW35113   6.778   6.605   6.967
44425SOL    HW135114   6.760   6.599   7.061
44425SOL    HW235115   6.822   6.522   6.946
44426SOL     OW35116   9.568   1.555  12.113
44426SOL    HW135117   9.576   1.508  12.196
44426SOL    HW235118   9.526   1.638  12.136
44427SOL     OW35119   1.975   7.563  14.824
44427SOL    HW135120   1.912   7.551   0.019
44427SOL    HW235121   1.986   7.475  14.787
44428SOL     OW35122   3.976   9.555  11.241
44428SOL    HW135123   4.069   9.567  11.221
44428SOL    HW235124   3.952   9.635  11.288
44429SOL     OW35125   0.083  13.771   6.269
44429SOL    HW135126   0.078  13.866   6.281
44429SOL    HW235127   0.049  13.755   6.181
44430SOL     OW35128  11.221  10.235   7.095
44430SOL    HW135129  11.166  10.157   7.083
44430SOL    HW235130  11.305  10.210   7.057
44431SOL     OW35131   1.841  11.796   4.014
44431SOL    HW135132   1.893  11.719   3.994
44431SOL    HW235133   1.750  11.768   4.001
44432SOL     OW35134  14.152   7.882  13.304
44432SOL    HW135135  14.057   7.873  13.316
44432SOL    HW235136  14.163   7.890  13.209
44433SOL     OW35137   9.654   3.998   9.695
44433SOL    HW135138   9.733   4.011   9.748
44433SOL    HW235139   9.685   4.001   9.604
44434SOL     OW35140  10.616  14.493   3.535
44434SOL    HW135141  10.532  14.453   3.515
44434SOL    HW235142  10.595  14.578   3.574
44435SOL     OW35143   3.869  13.977   9.926
44435SOL    HW135144   3.797  13.920   9.901
44435SOL    HW235145   3.931  13.920   9.971
44436SOL     OW35146   3.903   9.249   1.427
44436SOL    HW135147   3.843   9.256   1.353
44436SOL    HW235148   3.851   9.206   1.496
44437SOL     OW35149   5.594  14.628   8.008
44437SOL    HW135150   5.548  14.675   7.938
44437SOL    HW235151   5.666  14.687   8.033
44438SOL     OW35152   6.608   6.222   0.109
44438SOL    HW135153   6.609   6.314   0.137
44438SOL    HW235154   6.564   6.176   0.181
44439SOL     OW35155   0.258  12.320  13.610
44439SOL    HW135156   0.304  12.269  13.677
44439SOL    HW235157   0.328  12.370  13.567
44440SOL     OW35158  13.906  12.243  11.006
44440SOL    HW135159  13.992  12.213  11.035
44440SOL    HW235160  13.879  12.306  11.074
44441SOL     OW35161   0.953   3.832   0.995
44441SOL    HW135162   0.874   3.878   1.023
44441SOL    HW235163   0.966   3.860   0.904
44442SOL     OW35164   0.438   2.486   6.152
44442SOL    HW135165   0.370   2.418   6.159
44442SOL    HW235166   0.462   2.506   6.242
44443SOL     OW35167   1.972  11.379   3.099
44443SOL    HW135168   1.939  11.294   3.127
44443SOL    HW235169   2.063  11.362   3.074
44444SOL     OW35170   9.995   7.514   0.358
44444SOL    HW135171   9.923   7.489   0.416
44444SOL    HW235172  10.049   7.435   0.352
44445SOL     OW35173   4.570   7.951   8.335
44445SOL    HW135174   4.610   7.868   8.308
44445SOL    HW235175   4.633   8.017   8.307
44446SOL     OW35176  14.544   2.332  11.402
44446SOL    HW135177  14.578   2.307  11.316
44446SOL    HW235178  14.583   2.268  11.463
44447SOL     OW35179   2.149   5.483   9.670
44447SOL    HW135180   2.128   5.514   9.582
44447SOL    HW235181   2.076   5.424   9.692
44448SOL     OW35182   1.083   3.720   8.718
44448SOL    HW135183   1.155   3.750   8.663
44448SOL    HW235184   1.031   3.662   8.661
44449SOL     OW35185  10.326   5.639   3.453
44449SOL    HW135186  10.304   5.676   3.367
44449SOL    HW235187  10.296   5.704   3.516
44450SOL     OW35188  10.483  10.676  13.420
44450SOL    HW135189  10.405  10.645  13.373
44450SOL    HW235190  10.480  10.771  13.409
44451SOL     OW35191   3.453   0.938  11.882
44451SOL    HW135192   3.371   0.907  11.845
44451SOL    HW235193   3.521   0.894  11.830
44452SOL     OW35194   8.355   3.843   5.582
44452SOL    HW135195   8.271   3.857   5.626
44452SOL    HW235196   8.367   3.920   5.527
44453SOL     OW35197   3.495  14.705   7.058
44453SOL    HW135198   3.495  14.788   7.107
44453SOL    HW235199   3.568  14.713   6.998
44454SOL     OW35200   5.299   4.666   4.603
44454SOL    HW135201   5.260   4.753   4.598
44454SOL    HW235202   5.256   4.624   4.677
44455SOL     OW35203   6.318   5.506  12.895
44455SOL    HW135204   6.364   5.576  12.942
44455SOL    HW235205   6.305   5.541  12.807
44456SOL     OW35206   0.977   8.421   0.353
44456SOL    HW135207   0.999   8.330   0.370
44456SOL    HW235208   1.033   8.471   0.412
44457SOL     OW35209  11.158   3.014  13.158
44457SOL    HW135210  11.228   2.955  13.185
44457SOL    HW235211  11.170   3.027  13.064
44458SOL     OW35212   2.677  10.919  12.785
44458SOL    HW135213   2.697  10.874  12.703
44458SOL    HW235214   2.719  11.005  12.776
44459SOL     OW35215   8.820   3.496  12.775
44459SOL    HW135216   8.760   3.568  12.756
44459SOL    HW235217   8.814   3.439  12.698
44460SOL     OW35218  14.306   4.237  11.422
44460SOL    HW135219  14.365   4.162  11.429
44460SOL    HW235220  14.335   4.283  11.344
44461SOL     OW35221   8.299  14.282   3.136
44461SOL    HW135222   8.228  14.346   3.138
44461SOL    HW235223   8.313  14.264   3.043
44462SOL     OW35224   1.789  13.942  13.288
44462SOL    HW135225   1.816  13.929  13.379
44462SOL    HW235226   1.729  13.869  13.270
44463SOL     OW35227   3.484   2.007  14.331
44463SOL    HW135228   3.577   1.992  14.348
44463SOL    HW235229   3.448   2.035  14.416
44464SOL     OW35230   2.049  10.999   9.915
44464SOL    HW135231   1.991  11.015   9.840
44464SOL    HW235232   2.137  11.015   9.881
44465SOL     OW35233   4.361  11.452   5.268
44465SOL    HW135234   4.404  11.448   5.354
44465SOL    HW235235   4.286  11.394   5.277
44466SOL     OW35236   4.734   7.774  12.863
44466SOL    HW135237   4.781   7.844  12.817
44466SOL    HW235238   4.797   7.740  12.926
44467SOL     OW35239   9.458   5.616   8.685
44467SOL    HW135240   9.424   5.704   8.668
44467SOL    HW235241   9.415   5.589   8.766
44468SOL     OW35242  11.633   8.009  10.386
44468SOL    HW135243  11.543   8.004  10.418
44468SOL    HW235244  11.682   7.954  10.447
44469SOL     OW35245   7.350  10.568   0.650
44469SOL    HW135246   7.282  10.533   0.708
44469SOL    HW235247   7.301  10.610   0.579
44470SOL     OW35248   1.109   3.805  12.883
44470SOL    HW135249   1.099   3.898  12.862
44470SOL    HW235250   1.023   3.767  12.865
44471SOL     OW35251   0.345   0.836  10.242
44471SOL    HW135252   0.339   0.926  10.276
44471SOL    HW235253   0.407   0.793  10.301
44472SOL     OW35254   1.051   0.074   3.893
44472SOL    HW135255   0.997   0.135   3.842
44472SOL    HW235256   1.119   0.129   3.931
44473SOL     OW35257   5.896   5.430   9.539
44473SOL    HW135258   5.827   5.411   9.603
44473SOL    HW235259   5.849   5.439   9.456
44474SOL     OW35260   5.771   9.660  10.017
44474SOL    HW135261   5.712   9.591   9.986
44474SOL    HW235262   5.858   9.622  10.011
44475SOL     OW35263   9.314   3.149  13.657
44475SOL    HW135264   9.408   3.144  13.672
44475SOL    HW235265   9.299   3.096  13.579
44476SOL     OW35266   1.968   7.092   2.480
44476SOL    HW135267   1.950   7.097   2.574
44476SOL    HW235268   2.034   7.159   2.465
44477SOL     OW35269   0.894   0.850  10.444
44477SOL    HW135270   0.877   0.759  10.419
44477SOL    HW235271   0.808   0.891  10.444
44478SOL     OW35272  13.989   9.061  11.088
44478SOL    HW135273  14.023   9.023  11.007
44478SOL    HW235274  14.057   9.045  11.153
44479SOL     OW35275  14.123   9.231  11.455
44479SOL    HW135276  14.113   9.293  11.527
44479SOL    HW235277  14.215   9.238  11.430
44480SOL     OW35278   7.915   7.638  14.338
44480SOL    HW135279   7.943   7.664  14.251
44480SOL    HW235280   7.970   7.562  14.360
44481SOL     OW35281  12.665  12.568  14.042
44481SOL    HW135282  12.639  12.478  14.023
44481SOL    HW235283  12.760  12.564  14.053
44482SOL     OW35284  13.940   5.597   4.631
44482SOL    HW135285  13.992   5.545   4.693
44482SOL    HW235286  13.850   5.566   4.644
44483SOL     OW35287  12.895   8.097  13.647
44483SOL    HW135288  12.865   8.166  13.705
44483SOL    HW235289  12.991   8.103  13.650
44484SOL     OW35290   3.354   8.130   5.622
44484SOL    HW135291   3.423   8.194   5.606
44484SOL    HW235292   3.356   8.072   5.546
44485SOL     OW35293   7.533   6.165   3.146
44485SOL    HW135294   7.450   6.123   3.169
44485SOL    HW235295   7.513   6.218   3.070
44486SOL     OW35296  10.044   0.881   6.475
44486SOL    HW135297  10.103   0.934   6.529
44486SOL    HW235298  10.055   0.917   6.386
44487SOL     OW35299   1.055   7.750   8.106
44487SOL    HW135300   0.989   7.689   8.073
44487SOL    HW235301   1.110   7.769   8.030
44488SOL     OW35302  11.207   1.794   8.155
44488SOL    HW135303  11.140   1.782   8.087
44488SOL    HW235304  11.281   1.742   8.124
44489SOL     OW35305   4.193   5.018  11.228
44489SOL    HW135306   4.182   4.925  11.211
44489SOL    HW235307   4.108   5.046  11.262
44490SOL     OW35308   6.775   7.092  11.849
44490SOL    HW135309   6.781   7.047  11.933
44490SOL    HW235310   6.708   7.044  11.801
44491SOL     OW35311   2.841   2.340   5.696
44491SOL    HW135312   2.893   2.262   5.713
44491SOL    HW235313   2.878   2.407   5.755
44492SOL     OW35314   3.273   7.083   3.479
44492SOL    HW135315   3.325   7.012   3.518
44492SOL    HW235316   3.184   7.067   3.511
44493SOL     OW35317  14.626   3.889   9.057
44493SOL    HW135318  14.582   3.806   9.039
44493SOL    HW235319  14.717   3.874   9.031
44494SOL     OW35320   2.246  10.850   8.123
44494SOL    HW135321   2.175  10.793   8.095
44494SOL    HW235322   2.302  10.860   8.046
44495SOL     OW35323  14.432   7.322  13.588
44495SOL    HW135324  14.373   7.278  13.525
44495SOL    HW235325  14.463   7.399  13.540
44496SOL     OW35326  10.266  14.812  13.811
44496SOL    HW135327  10.199  14.832  13.876
44496SOL    HW235328  10.302   0.021  13.787
44497SOL     OW35329  12.025   0.239   2.235
44497SOL    HW135330  11.996   0.290   2.159
44497SOL    HW235331  12.029   0.302   2.306
44498SOL     OW35332   4.173   5.529   3.312
44498SOL    HW135333   4.131   5.521   3.398
44498SOL    HW235334   4.208   5.442   3.294
44499SOL     OW35335   9.809  13.325  14.783
44499SOL    HW135336   9.801  13.409  14.739
44499SOL    HW235337   9.847  13.345  14.868
44500SOL     OW35338   1.529  12.656   7.029
44500SOL    HW135339   1.597  12.708   7.072
44500SOL    HW235340   1.491  12.604   7.100
44501SOL     OW35341  10.985   7.308  12.837
44501SOL    HW135342  11.038   7.266  12.769
44501SOL    HW235343  10.927   7.367  12.789
44502SOL     OW35344   2.810   4.626   8.569
44502SOL    HW135345   2.804   4.602   8.661
44502SOL    HW235346   2.879   4.693   8.566
44503SOL     OW35347   2.312   1.809  10.611
44503SOL    HW135348   2.249   1.874  10.642
44503SOL    HW235349   2.336   1.839  10.524
44504SOL     OW35350   4.744  10.098   9.738
44504SOL    HW135351   4.803  10.167   9.709
44504SOL    HW235352   4.684  10.085   9.664
44505SOL     OW35353  13.520   7.194   5.101
44505SOL    HW135354  13.433   7.233   5.111
44505SOL    HW235355  13.514   7.110   5.146
44506SOL     OW35356   0.137   7.105  14.725
44506SOL    HW135357   0.082   7.181  14.706
44506SOL    HW235358   0.129   7.050  14.647
44507SOL     OW35359   4.871   2.879   8.299
44507SOL    HW135360   4.858   2.804   8.356
44507SOL    HW235361   4.917   2.943   8.353
44508SOL     OW35362   9.793   9.781  13.842
44508SOL    HW135363   9.730   9.839  13.802
44508SOL    HW235364   9.864   9.775  13.778
44509SOL     OW35365  10.461   9.627  14.181
44509SOL    HW135366  10.385   9.683  14.165
44509SOL    HW235367  10.438   9.577  14.259
44510SOL     OW35368   5.955  12.946   1.839
44510SOL    HW135369   5.931  13.028   1.882
44510SOL    HW235370   5.948  12.880   1.909
44511SOL     OW35371   1.458   3.874   6.281
44511SOL    HW135372   1.456   3.851   6.188
44511SOL    HW235373   1.368   3.901   6.301
44512SOL     OW35374   5.856   9.612   2.312
44512SOL    HW135375   5.857   9.707   2.298
44512SOL    HW235376   5.880   9.575   2.227
44513SOL     OW35377   0.687   1.789   2.086
44513SOL    HW135378   0.761   1.805   2.027
44513SOL    HW235379   0.716   1.717   2.143
44514SOL     OW35380   4.300   3.355   8.101
44514SOL    HW135381   4.365   3.399   8.156
44514SOL    HW235382   4.332   3.266   8.091
44515SOL     OW35383  10.392   0.520   8.065
44515SOL    HW135384  10.457   0.587   8.085
44515SOL    HW235385  10.341   0.556   7.992
44516SOL     OW35386   8.603   2.619   0.848
44516SOL    HW135387   8.522   2.649   0.807
44516SOL    HW235388   8.584   2.529   0.874
44517SOL     OW35389   4.272  14.545  10.097
44517SOL    HW135390   4.199  14.519  10.153
44517SOL    HW235391   4.231  14.590  10.023
44518SOL     OW35392   9.164  14.593  12.870
44518SOL    HW135393   9.229  14.523  12.869
44518SOL    HW235394   9.103  14.570  12.800
44519SOL     OW35395   0.865   0.600   7.463
44519SOL    HW135396   0.884   0.622   7.555
44519SOL    HW235397   0.922   0.525   7.445
44520SOL     OW35398  13.071   8.399  13.956
44520SOL    HW135399  13.152   8.358  13.927
44520SOL    HW235400  13.075   8.394  14.052
44521SOL     OW35401   8.348   4.213   9.871
44521SOL    HW135402   8.351   4.306   9.852
44521SOL    HW235403   8.416   4.175   9.816
44522SOL     OW35404   2.525   7.698  12.887
44522SOL    HW135405   2.516   7.754  12.964
44522SOL    HW235406   2.594   7.636  12.910
44523SOL     OW35407   8.388   8.983   5.081
44523SOL    HW135408   8.366   8.900   5.039
44523SOL    HW235409   8.329   8.988   5.156
44524SOL     OW35410   0.318   2.982  14.602
44524SOL    HW135411   0.348   2.922  14.533
44524SOL    HW235412   0.234   3.016  14.569
44525SOL     OW35413  10.000   5.672  13.733
44525SOL    HW135414  10.008   5.737  13.802
44525SOL    HW235415   9.916   5.690  13.691
44526SOL     OW35416   0.746   8.414  10.849
44526SOL    HW135417   0.742   8.411  10.944
44526SOL    HW235418   0.701   8.496  10.825
44527SOL     OW35419   0.073  12.092   8.870
44527SOL    HW135420   0.151  12.147   8.860
44527SOL    HW235421   0.040  12.082   8.780
44528SOL     OW35422   2.757  13.151   8.624
44528SOL    HW135423   2.796  13.072   8.588
44528SOL    HW235424   2.823  13.219   8.609
44529SOL     OW35425  12.263  11.518   4.354
44529SOL    HW135426  12.223  11.442   4.396
44529SOL    HW235427  12.193  11.554   4.300
44530SOL     OW35428   2.466  10.183   5.041
44530SOL    HW135429   2.460  10.123   4.967
44530SOL    HW235430   2.454  10.270   5.003
44531SOL     OW35431   6.787  12.118   6.231
44531SOL    HW135432   6.813  12.051   6.168
44531SOL    HW235433   6.855  12.115   6.299
44532SOL     OW35434  14.343   5.909   3.895
44532SOL    HW135435  14.431   5.945   3.881
44532SOL    HW235436  14.358   5.816   3.910
44533SOL     OW35437   7.995  11.495   9.857
44533SOL    HW135438   8.000  11.537   9.771
44533SOL    HW235439   8.083  11.504   9.893
44534SOL     OW35440  14.165  14.044   7.553
44534SOL    HW135441  14.185  14.135   7.531
44534SOL    HW235442  14.240  13.994   7.520
44535SOL     OW35443   3.619   9.314  10.611
44535SOL    HW135444   3.673   9.382  10.571
44535SOL    HW235445   3.643   9.234  10.563
44536SOL     OW35446   5.257  12.833  14.216
44536SOL    HW135447   5.198  12.895  14.257
44536SOL    HW235448   5.203  12.784  14.154
44537SOL     OW35449  14.721   6.903  12.167
44537SOL    HW135450  14.681   6.941  12.089
44537SOL    HW235451  14.665   6.930  12.239
44538SOL     OW35452   0.245   2.810   3.940
44538SOL    HW135453   0.330   2.784   3.903
44538SOL    HW235454   0.182   2.791   3.870
44539SOL     OW35455   5.565   0.300   8.587
44539SOL    HW135456   5.507   0.376   8.594
44539SOL    HW235457   5.623   0.322   8.514
44540SOL     OW35458  10.063   1.844  10.290
44540SOL    HW135459   9.978   1.828  10.331
44540SOL    HW235460  10.043   1.900  10.215
44541SOL     OW35461   5.145  14.558   5.346
44541SOL    HW135462   5.092  14.542   5.424
44541SOL    HW235463   5.212  14.620   5.375
44542SOL     OW35464   7.924  13.451   1.921
44542SOL    HW135465   8.004  13.397   1.916
44542SOL    HW235466   7.939  13.510   1.995
44543SOL     OW35467   8.533   0.810   0.065
44543SOL    HW135468   8.541   0.717   0.083
44543SOL    HW235469   8.608   0.850   0.110
44544SOL     OW35470   8.710   5.684   4.611
44544SOL    HW135471   8.621   5.722   4.611
44544SOL    HW235472   8.721   5.650   4.522
44545SOL     OW35473   9.223  14.850  14.595
44545SOL    HW135474   9.201   0.039  14.529
44545SOL    HW235475   9.196  14.767  14.556
44546SOL     OW35476   0.461   6.273   0.759
44546SOL    HW135477   0.509   6.321   0.691
44546SOL    HW235478   0.506   6.296   0.841
44547SOL     OW35479   4.501   9.415   3.277
44547SOL    HW135480   4.508   9.435   3.184
44547SOL    HW235481   4.591   9.417   3.309
44548SOL     OW35482  10.385   2.228  10.758
44548SOL    HW135483  10.354   2.178  10.832
44548SOL    HW235484  10.413   2.312  10.795
44549SOL     OW35485   5.668  10.828  14.494
44549SOL    HW135486   5.734  10.773  14.452
44549SOL    HW235487   5.609  10.765  14.537
44550SOL     OW35488   5.824   2.885  10.909
44550SOL    HW135489   5.898   2.893  10.849
44550SOL    HW235490   5.772   2.963  10.893
44551SOL     OW35491   7.632   6.537   9.240
44551SOL    HW135492   7.538   6.532   9.224
44551SOL    HW235493   7.664   6.448   9.222
44552SOL     OW35494  12.207   8.338  14.628
44552SOL    HW135495  12.254   8.407  14.675
44552SOL    HW235496  12.276   8.280  14.595
44553SOL     OW35497   7.694   5.930   2.112
44553SOL    HW135498   7.619   5.884   2.150
44553SOL    HW235499   7.689   6.018   2.148
44554SOL     OW35500   8.625  12.472  10.111
44554SOL    HW135501   8.597  12.413  10.182
44554SOL    HW235502   8.685  12.533  10.153
44555SOL     OW35503  10.542  11.105   8.891
44555SOL    HW135504  10.603  11.066   8.828
44555SOL    HW235505  10.569  11.071   8.976
44556SOL     OW35506  13.304   6.449  14.082
44556SOL    HW135507  13.293   6.527  14.137
44556SOL    HW235508  13.398   6.436  14.076
44557SOL     OW35509   1.143   2.284  11.236
44557SOL    HW135510   1.130   2.258  11.144
44557SOL    HW235511   1.238   2.291  11.246
44558SOL     OW35512  11.276  14.002   9.481
44558SOL    HW135513  11.324  14.081   9.456
44558SOL    HW235514  11.325  13.966   9.554
44559SOL     OW35515   5.263   4.115   3.544
44559SOL    HW135516   5.200   4.087   3.610
44559SOL    HW235517   5.327   4.168   3.592
44560SOL     OW35518   1.469  13.636  10.213
44560SOL    HW135519   1.410  13.705  10.246
44560SOL    HW235520   1.426  13.555  10.239
44561SOL     OW35521   6.063  13.527  13.698
44561SOL    HW135522   6.007  13.540  13.622
44561SOL    HW235523   6.067  13.432  13.710
44562SOL     OW35524  11.992  13.137   4.776
44562SOL    HW135525  11.941  13.060   4.751
44562SOL    HW235526  11.947  13.210   4.736
44563SOL     OW35527   7.949   5.381   6.722
44563SOL    HW135528   7.954   5.475   6.736
44563SOL    HW235529   7.896   5.371   6.643
44564SOL     OW35530   0.259   6.160  10.294
44564SOL    HW135531   0.212   6.215  10.357
44564SOL    HW235532   0.261   6.213  10.214
44565SOL     OW35533   0.540   3.877  13.017
44565SOL    HW135534   0.534   3.964  13.055
44565SOL    HW235535   0.469   3.827  13.057
44566SOL     OW35536   1.281   5.716  11.706
44566SOL    HW135537   1.273   5.804  11.670
44566SOL    HW235538   1.191   5.687  11.718
44567SOL     OW35539  11.496   7.037  14.457
44567SOL    HW135540  11.555   7.083  14.517
44567SOL    HW235541  11.541   6.954  14.439
44568SOL     OW35542  12.219   3.327  13.662
44568SOL    HW135543  12.235   3.342  13.755
44568SOL    HW235544  12.297   3.280  13.632
44569SOL     OW35545   6.547   4.597   3.029
44569SOL    HW135546   6.507   4.579   3.114
44569SOL    HW235547   6.521   4.522   2.974
44570SOL     OW35548   1.495   4.646   7.769
44570SOL    HW135549   1.530   4.621   7.855
44570SOL    HW235550   1.572   4.675   7.720
44571SOL     OW35551   4.037   7.984   0.309
44571SOL    HW135552   4.118   7.936   0.296
44571SOL    HW235553   4.063   8.062   0.358
44572SOL     OW35554   8.392  10.888  10.369
44572SOL    HW135555   8.406  10.795  10.385
44572SOL    HW235556   8.481  10.925  10.364
44573SOL     OW35557  11.392   8.507  11.413
44573SOL    HW135558  11.327   8.451  11.371
44573SOL    HW235559  11.410   8.576  11.348
44574SOL     OW35560   5.961   9.253   8.689
44574SOL    HW135561   5.985   9.196   8.761
44574SOL    HW235562   6.027   9.237   8.622
44575SOL     OW35563   1.863  11.352   0.385
44575SOL    HW135564   1.823  11.398   0.311
44575SOL    HW235565   1.923  11.416   0.424
44576SOL     OW35566   4.248  14.755   8.425
44576SOL    HW135567   4.204  14.797   8.498
44576SOL    HW235568   4.182  14.699   8.385
44577SOL     OW35569   1.714   6.256   3.538
44577SOL    HW135570   1.738   6.179   3.488
44577SOL    HW235571   1.620   6.246   3.555
44578SOL     OW35572   7.400  13.955  11.349
44578SOL    HW135573   7.378  13.863  11.362
44578SOL    HW235574   7.444  13.981  11.430
44579SOL     OW35575   0.679  13.441   4.174
44579SOL    HW135576   0.584  13.455   4.168
44579SOL    HW235577   0.706  13.496   4.248
44580SOL     OW35578   8.399   7.417  12.001
44580SOL    HW135579   8.456   7.467  11.943
44580SOL    HW235580   8.356   7.484  12.055
44581SOL     OW35581  14.794   5.108   2.232
44581SOL    HW135582  14.817   5.177   2.170
44581SOL    HW235583  14.869   5.103   2.292
44582SOL     OW35584   8.154   9.301   1.904
44582SOL    HW135585   8.235   9.328   1.948
44582SOL    HW235586   8.180   9.285   1.814
44583SOL     OW35587  10.572   1.586  14.061
44583SOL    HW135588  10.631   1.513  14.084
44583SOL    HW235589  10.577   1.591  13.966
44584SOL     OW35590   6.421  14.590   1.854
44584SOL    HW135591   6.509  14.594   1.892
44584SOL    HW235592   6.383  14.676   1.873
44585SOL     OW35593  12.915   0.073  12.282
44585SOL    HW135594  12.892  14.863  12.316
44585SOL    HW235595  13.011   0.078  12.292
44586SOL     OW35596   7.653  13.590  14.580
44586SOL    HW135597   7.730  13.589  14.636
44586SOL    HW235598   7.591  13.647  14.625
44587SOL     OW35599   5.253   1.266  13.322
44587SOL    HW135600   5.269   1.202  13.254
44587SOL    HW235601   5.243   1.215  13.402
44588SOL     OW35602   6.591   8.473   6.819
44588SOL    HW135603   6.615   8.429   6.737
44588SOL    HW235604   6.549   8.404   6.871
44589SOL     OW35605   5.458   4.275  12.438
44589SOL    HW135606   5.442   4.251  12.529
44589SOL    HW235607   5.553   4.274  12.428
44590SOL     OW35608  12.932   9.501   4.557
44590SOL    HW135609  12.847   9.480   4.595
44590SOL    HW235610  12.982   9.420   4.564
44591SOL     OW35611  10.109   6.768  14.092
44591SOL    HW135612  10.203   6.756  14.105
44591SOL    HW235613  10.093   6.860  14.112
44592SOL     OW35614   9.782   3.273   8.997
44592SOL    HW135615   9.814   3.183   8.989
44592SOL    HW235616   9.720   3.283   8.924
44593SOL     OW35617   9.090   5.138  12.148
44593SOL    HW135618   9.042   5.164  12.070
44593SOL    HW235619   9.037   5.169  12.221
44594SOL     OW35620  12.513  11.341  13.720
44594SOL    HW135621  12.505  11.435  13.705
44594SOL    HW235622  12.492  11.329  13.813
44595SOL     OW35623   8.633   0.394   2.560
44595SOL    HW135624   8.697   0.438   2.503
44595SOL    HW235625   8.553   0.389   2.507
44596SOL     OW35626   2.278   8.986   0.396
44596SOL    HW135627   2.265   8.948   0.309
44596SOL    HW235628   2.288   9.080   0.381
44597SOL     OW35629  12.103  11.243   4.189
44597SOL    HW135630  12.105  11.278   4.100
44597SOL    HW235631  12.049  11.305   4.238
44598SOL     OW35632   1.480   7.598   0.884
44598SOL    HW135633   1.388   7.623   0.879
44598SOL    HW235634   1.506   7.619   0.973
44599SOL     OW35635   4.730   2.797   5.172
44599SOL    HW135636   4.750   2.730   5.238
44599SOL    HW235637   4.660   2.758   5.120
44600SOL     OW35638  12.672   7.033   2.010
44600SOL    HW135639  12.577   7.021   2.020
44600SOL    HW235640  12.693   6.986   1.929
44601SOL     OW35641   6.740   7.470   1.689
44601SOL    HW135642   6.644   7.471   1.689
44601SOL    HW235643   6.765   7.524   1.763
44602SOL     OW35644   9.804   6.745   9.261
44602SOL    HW135645   9.852   6.825   9.239
44602SOL    HW235646   9.721   6.753   9.213
44603SOL     OW35647   4.731   9.799   2.341
44603SOL    HW135648   4.814   9.827   2.300
44603SOL    HW235649   4.664   9.829   2.279
44604SOL     OW35650   3.962   3.962  13.696
44604SOL    HW135651   4.025   4.019  13.652
44604SOL    HW235652   3.993   3.873  13.677
44605SOL     OW35653   3.427   8.627   4.274
44605SOL    HW135654   3.471   8.609   4.356
44605SOL    HW235655   3.497   8.655   4.214
44606SOL     OW35656   0.357   9.966   1.687
44606SOL    HW135657   0.385  10.054   1.711
44606SOL    HW235658   0.334   9.972   1.595
44607SOL     OW35659  12.306  13.134  11.047
44607SOL    HW135660  12.257  13.052  11.033
44607SOL    HW235661  12.250  13.185  11.106
44608SOL     OW35662  11.596   8.088   7.228
44608SOL    HW135663  11.627   8.175   7.200
44608SOL    HW235664  11.643   8.071   7.309
44609SOL     OW35665  12.837   4.530   3.620
44609SOL    HW135666  12.910   4.542   3.680
44609SOL    HW235667  12.847   4.440   3.588
44610SOL     OW35668   2.822   2.552   0.287
44610SOL    HW135669   2.796   2.494   0.358
44610SOL    HW235670   2.908   2.586   0.313
44611SOL     OW35671   7.208   5.901   0.797
44611SOL    HW135672   7.226   5.814   0.762
44611SOL    HW235673   7.184   5.953   0.721
44612SOL     OW35674  13.556  10.611   2.521
44612SOL    HW135675  13.510  10.694   2.509
44612SOL    HW235676  13.525  10.579   2.606
44613SOL     OW35677  10.477   2.076  11.061
44613SOL    HW135678  10.505   2.094  11.150
44613SOL    HW235679  10.382   2.086  11.063
44614SOL     OW35680   0.002   4.147   9.693
44614SOL    HW135681   0.003   4.085   9.620
44614SOL    HW235682  14.813   4.111   9.753
44615SOL     OW35683  11.147   6.763  14.826
44615SOL    HW135684  11.137   6.806   0.034
44615SOL    HW235685  11.236   6.728  14.828
44616SOL     OW35686  10.666   3.319   3.680
44616SOL    HW135687  10.610   3.255   3.637
44616SOL    HW235688  10.606   3.389   3.707
44617SOL     OW35689   7.969  13.034   1.297
44617SOL    HW135690   7.920  13.070   1.371
44617SOL    HW235691   7.994  13.110   1.245
44618SOL     OW35692   8.369   1.238   4.170
44618SOL    HW135693   8.377   1.143   4.163
44618SOL    HW235694   8.419   1.271   4.095
44619SOL     OW35695   3.124   7.994   5.058
44619SOL    HW135696   3.118   7.930   4.988
44619SOL    HW235697   3.042   7.984   5.107
44620SOL     OW35698  13.664   9.301   1.857
44620SOL    HW135699  13.748   9.310   1.902
44620SOL    HW235700  13.608   9.368   1.897
44621SOL     OW35701   1.720   5.939   6.325
44621SOL    HW135702   1.645   5.894   6.285
44621SOL    HW235703   1.682   5.984   6.401
44622SOL     OW35704  14.669   9.248   4.115
44622SOL    HW135705  14.709   9.311   4.055
44622SOL    HW235706  14.628   9.301   4.183
44623SOL     OW35707   6.123  10.671  14.805
44623SOL    HW135708   6.095  10.756  14.839
44623SOL    HW235709   6.201  10.690  14.754
44624SOL     OW35710   6.145  12.178   2.313
44624SOL    HW135711   6.068  12.232   2.293
44624SOL    HW235712   6.128  12.095   2.268
44625SOL     OW35713   2.863  13.152   8.221
44625SOL    HW135714   2.892  13.242   8.237
44625SOL    HW235715   2.901  13.101   8.292
44626SOL     OW35716   2.420  13.803  12.160
44626SOL    HW135717   2.399  13.864  12.090
44626SOL    HW235718   2.434  13.859  12.237
44627SOL     OW35719   4.068   1.281   4.052
44627SOL    HW135720   4.101   1.322   4.132
44627SOL    HW235721   4.140   1.288   3.989
44628SOL     OW35722  11.396   7.017   3.601
44628SOL    HW135723  11.397   7.109   3.629
44628SOL    HW235724  11.417   7.020   3.508
44629SOL     OW35725   0.807   5.495  11.323
44629SOL    HW135726   0.728   5.531  11.365
44629SOL    HW235727   0.880   5.532  11.372
44630SOL     OW35728   3.424   2.406   9.757
44630SOL    HW135729   3.510   2.364   9.749
44630SOL    HW235730   3.442   2.488   9.802
44631SOL     OW35731  12.567  11.756  10.491
44631SOL    HW135732  12.613  11.837  10.467
44631SOL    HW235733  12.597  11.737  10.580
44632SOL     OW35734   2.208   5.546   0.668
44632SOL    HW135735   2.203   5.621   0.609
44632SOL    HW235736   2.179   5.580   0.753
44633SOL     OW35737  10.937  14.748  10.950
44633SOL    HW135738  10.955  14.821  10.891
44633SOL    HW235739  11.003  14.756  11.019
44634SOL     OW35740   7.040  13.600   1.977
44634SOL    HW135741   7.037  13.574   2.069
44634SOL    HW235742   6.948  13.613   1.953
44635SOL     OW35743   2.768  10.850   5.698
44635SOL    HW135744   2.805  10.843   5.609
44635SOL    HW235745   2.815  10.783   5.748
44636SOL     OW35746   6.222   9.363   4.162
44636SOL    HW135747   6.153   9.325   4.108
44636SOL    HW235748   6.187   9.361   4.251
44637SOL     OW35749   9.402  12.890   8.083
44637SOL    HW135750   9.397  12.795   8.094
44637SOL    HW235751   9.459  12.902   8.007
44638SOL     OW35752   6.675   8.066   7.505
44638SOL    HW135753   6.734   7.999   7.472
44638SOL    HW235754   6.588   8.039   7.476
44639SOL     OW35755   4.055   9.582   0.718
44639SOL    HW135756   4.048   9.536   0.635
44639SOL    HW235757   4.119   9.652   0.701
44640SOL     OW35758   1.098   4.129   0.861
44640SOL    HW135759   1.142   4.128   0.776
44640SOL    HW235760   1.099   4.038   0.889
44641SOL     OW35761   2.631   3.767   6.077
44641SOL    HW135762   2.664   3.765   6.167
44641SOL    HW235763   2.614   3.859   6.059
44642SOL     OW35764   6.126   5.456   7.776
44642SOL    HW135765   6.220   5.472   7.785
44642SOL    HW235766   6.098   5.513   7.705
44643SOL     OW35767   4.681   6.163   8.627
44643SOL    HW135768   4.762   6.207   8.650
44643SOL    HW235769   4.625   6.232   8.590
44644SOL     OW35770   2.460  11.073   3.302
44644SOL    HW135771   2.450  11.131   3.378
44644SOL    HW235772   2.550  11.041   3.308
44645SOL     OW35773   5.132   8.317   0.501
44645SOL    HW135774   5.189   8.295   0.427
44645SOL    HW235775   5.181   8.289   0.578
44646SOL     OW35776   1.456   6.094   3.522
44646SOL    HW135777   1.406   6.133   3.593
44646SOL    HW235778   1.407   6.016   3.497
44647SOL     OW35779   9.300   6.843  10.985
44647SOL    HW135780   9.301   6.790  10.905
44647SOL    HW235781   9.295   6.779  11.055
44648SOL     OW35782  12.238   9.102  14.842
44648SOL    HW135783  12.195   9.058   0.039
44648SOL    HW235784  12.169   9.113  14.777
44649SOL     OW35785   1.883   5.483   3.372
44649SOL    HW135786   1.913   5.560   3.325
44649SOL    HW235787   1.842   5.517   3.451
44650SOL     OW35788  14.498   3.400   4.019
44650SOL    HW135789  14.426   3.402   3.956
44650SOL    HW235790  14.553   3.474   3.994
44651SOL     OW35791   1.144   2.658   2.615
44651SOL    HW135792   1.181   2.665   2.703
44651SOL    HW235793   1.050   2.670   2.627
44652SOL     OW35794   5.569   9.114  12.776
44652SOL    HW135795   5.573   9.021  12.797
44652SOL    HW235796   5.616   9.122  12.693
44653SOL     OW35797   3.210   0.473   2.708
44653SOL    HW135798   3.135   0.497   2.763
44653SOL    HW235799   3.179   0.483   2.618
44654SOL     OW35800  11.223   2.795  14.294
44654SOL    HW135801  11.150   2.805  14.232
44654SOL    HW235802  11.290   2.748  14.245
44655SOL     OW35803  12.987   2.422  11.835
44655SOL    HW135804  12.979   2.335  11.874
44655SOL    HW235805  12.910   2.470  11.866
44656SOL     OW35806  11.567  10.284   8.607
44656SOL    HW135807  11.615  10.248   8.682
44656SOL    HW235808  11.607  10.369   8.591
44657SOL     OW35809  12.350  10.865  12.653
44657SOL    HW135810  12.387  10.932  12.595
44657SOL    HW235811  12.256  10.872  12.641
44658SOL     OW35812  10.721  10.912  11.216
44658SOL    HW135813  10.724  10.845  11.148
44658SOL    HW235814  10.632  10.907  11.251
44659SOL     OW35815   6.861  11.891  12.521
44659SOL    HW135816   6.941  11.898  12.574
44659SOL    HW235817   6.791  11.920  12.579
44660SOL     OW35818  13.688   8.482   3.974
44660SOL    HW135819  13.773   8.440   3.988
44660SOL    HW235820  13.624   8.411   3.981
44661SOL     OW35821  11.342   6.747   9.191
44661SOL    HW135822  11.275   6.679   9.185
44661SOL    HW235823  11.414   6.705   9.239
44662SOL     OW35824  12.224  14.260  12.429
44662SOL    HW135825  12.241  14.353  12.447
44662SOL    HW235826  12.294  14.214  12.475
44663SOL     OW35827  10.126   9.261   3.083
44663SOL    HW135828  10.072   9.260   3.004
44663SOL    HW235829  10.104   9.179   3.127
44664SOL     OW35830   1.842   2.155   1.665
44664SOL    HW135831   1.929   2.114   1.669
44664SOL    HW235832   1.850   2.219   1.594
44665SOL     OW35833   5.188  10.356   4.644
44665SOL    HW135834   5.182  10.448   4.619
44665SOL    HW235835   5.170  10.355   4.738
44666SOL     OW35836   1.970   9.127   8.095
44666SOL    HW135837   1.966   9.199   8.158
44666SOL    HW235838   2.044   9.149   8.038
44667SOL     OW35839   6.104   2.015   2.956
44667SOL    HW135840   6.187   2.001   3.003
44667SOL    HW235841   6.058   1.932   2.964
44668SOL     OW35842   1.893   2.290   6.158
44668SOL    HW135843   1.856   2.240   6.231
44668SOL    HW235844   1.819   2.341   6.125
44669SOL     OW35845   3.527   4.994  10.371
44669SOL    HW135846   3.570   4.914  10.338
44669SOL    HW235847   3.451   5.006  10.314
44670SOL     OW35848  11.219   1.606   3.437
44670SOL    HW135849  11.212   1.531   3.378
44670SOL    HW235850  11.195   1.682   3.383
44671SOL     OW35851   7.109  14.117  10.685
44671SOL    HW135852   7.019  14.148  10.696
44671SOL    HW235853   7.140  14.101  10.774
44672SOL     OW35854   3.642   9.810  12.911
44672SOL    HW135855   3.644   9.824  12.816
44672SOL    HW235856   3.597   9.726  12.921
44673SOL     OW35857   2.731   7.296   6.355
44673SOL    HW135858   2.680   7.225   6.394
44673SOL    HW235859   2.750   7.266   6.266
44674SOL     OW35860   7.145   1.880   7.139
44674SOL    HW135861   7.161   1.853   7.229
44674SOL    HW235862   7.207   1.829   7.087
44675SOL     OW35863   5.289  11.052  14.689
44675SOL    HW135864   5.366  11.024  14.738
44675SOL    HW235865   5.224  11.072  14.757
44676SOL     OW35866   1.470   8.944  11.577
44676SOL    HW135867   1.523   9.017  11.546
44676SOL    HW235868   1.505   8.868  11.531
44677SOL     OW35869  14.444   9.415  10.924
44677SOL    HW135870  14.440   9.327  10.886
44677SOL    HW235871  14.352   9.443  10.929
44678SOL     OW35872   7.159   5.823   7.175
44678SOL    HW135873   7.114   5.908   7.168
44678SOL    HW235874   7.196   5.808   7.088
44679SOL     OW35875   9.510  10.292  12.606
44679SOL    HW135876   9.439  10.228  12.606
44679SOL    HW235877   9.533  10.301  12.513
44680SOL     OW35878  14.086   7.971   1.200
44680SOL    HW135879  14.155   8.026   1.237
44680SOL    HW235880  14.034   8.030   1.145
44681SOL     OW35881   0.499   1.738  11.743
44681SOL    HW135882   0.532   1.741  11.833
44681SOL    HW235883   0.478   1.829  11.723
44682SOL     OW35884   7.155   1.333   0.902
44682SOL    HW135885   7.142   1.238   0.903
44682SOL    HW235886   7.072   1.368   0.871
44683SOL     OW35887   3.742  12.386  13.977
44683SOL    HW135888   3.833  12.388  13.947
44683SOL    HW235889   3.745  12.340  14.061
44684SOL     OW35890  12.685   2.528   1.482
44684SOL    HW135891  12.729   2.574   1.411
44684SOL    HW235892  12.754   2.477   1.524
44685SOL     OW35893   7.702   3.071   2.682
44685SOL    HW135894   7.731   3.081   2.591
44685SOL    HW235895   7.660   3.154   2.704
44686SOL     OW35896  13.925   9.410  10.524
44686SOL    HW135897  13.909   9.488  10.471
44686SOL    HW235898  14.014   9.423  10.558
44687SOL     OW35899   5.457  11.412   6.755
44687SOL    HW135900   5.441  11.332   6.806
44687SOL    HW235901   5.528  11.388   6.695
44688SOL     OW35902   9.518   2.436   6.656
44688SOL    HW135903   9.499   2.501   6.724
44688SOL    HW235904   9.442   2.439   6.598
44689SOL     OW35905   3.944   2.450  10.890
44689SOL    HW135906   4.003   2.442  10.965
44689SOL    HW235907   3.901   2.534  10.902
44690SOL     OW35908   2.167   0.811  13.835
44690SOL    HW135909   2.211   0.896  13.828
44690SOL    HW235910   2.076   0.829  13.815
44691SOL     OW35911  10.665   1.856  12.596
44691SOL    HW135912  10.572   1.872  12.579
44691SOL    HW235913  10.709   1.885  12.516
44692SOL     OW35914   0.287   1.585   6.456
44692SOL    HW135915   0.287   1.555   6.365
44692SOL    HW235916   0.291   1.680   6.449
44693SOL     OW35917  10.515   4.609  12.671
44693SOL    HW135918  10.532   4.567  12.587
44693SOL    HW235919  10.502   4.537  12.732
44694SOL     OW35920  10.260  11.590   9.204
44694SOL    HW135921  10.219  11.521   9.153
44694SOL    HW235922  10.315  11.544   9.268
44695SOL     OW35923  13.778   8.502   1.381
44695SOL    HW135924  13.687   8.478   1.396
44695SOL    HW235925  13.773   8.567   1.310
44696SOL     OW35926   8.530   4.518   3.850
44696SOL    HW135927   8.553   4.426   3.859
44696SOL    HW235928   8.497   4.526   3.760
44697SOL     OW35929   0.774  11.036   1.740
44697SOL    HW135930   0.849  10.981   1.716
44697SOL    HW235931   0.801  11.125   1.716
44698SOL     OW35932  12.359   2.665   4.447
44698SOL    HW135933  12.279   2.707   4.479
44698SOL    HW235934  12.427   2.694   4.508
44699SOL     OW35935  12.862   1.302   8.418
44699SOL    HW135936  12.801   1.242   8.375
44699SOL    HW235937  12.866   1.271   8.509
44700SOL     OW35938   0.047  13.429  13.314
44700SOL    HW135939   0.044  13.391  13.227
44700SOL    HW235940   0.135  13.466  13.321
44701SOL     OW35941  13.543   3.174  11.815
44701SOL    HW135942  13.586   3.090  11.825
44701SOL    HW235943  13.486   3.164  11.739
44702SOL     OW35944   9.255   2.995   4.747
44702SOL    HW135945   9.252   2.932   4.675
44702SOL    HW235946   9.174   2.979   4.795
44703SOL     OW35947  14.862  13.025   3.671
44703SOL    HW135948  14.827  13.094   3.729
44703SOL    HW235949   0.048  12.978   3.726
44704SOL     OW35950   6.086   9.121  10.929
44704SOL    HW135951   6.005   9.097  10.884
44704SOL    HW235952   6.092   9.059  11.001
44705SOL     OW35953   9.450   5.967  12.301
44705SOL    HW135954   9.480   5.895  12.246
44705SOL    HW235955   9.524   5.985  12.359
44706SOL     OW35956   5.177   8.880  11.026
44706SOL    HW135957   5.223   8.839  11.099
44706SOL    HW235958   5.141   8.807  10.976
44707SOL     OW35959  11.097   7.406   4.011
44707SOL    HW135960  11.178   7.433   4.055
44707SOL    HW235961  11.117   7.321   3.973
44708SOL     OW35962   2.921   0.007  13.740
44708SOL    HW135963   2.937   0.101  13.728
44708SOL    HW235964   2.939  14.867  13.832
44709SOL     OW35965   0.392   4.953   3.432
44709SOL    HW135966   0.376   4.953   3.527
44709SOL    HW235967   0.307   4.974   3.394
44710SOL     OW35968  14.826   7.041   3.939
44710SOL    HW135969   0.013   7.106   3.908
44710SOL    HW235970  14.747   7.059   3.890
44711SOL     OW35971  10.522  13.836   8.537
44711SOL    HW135972  10.612  13.838   8.571
44711SOL    HW235973  10.479  13.910   8.580
44712SOL     OW35974   2.145   7.920  14.499
44712SOL    HW135975   2.203   7.909  14.423
44712SOL    HW235976   2.063   7.952  14.462
44713SOL     OW35977   8.406   6.520  12.432
44713SOL    HW135978   8.364   6.500  12.349
44713SOL    HW235979   8.414   6.615  12.433
44714SOL     OW35980   0.990   4.143   6.913
44714SOL    HW135981   1.023   4.087   6.983
44714SOL    HW235982   1.061   4.204   6.895
44715SOL     OW35983  13.771   6.019   2.399
44715SOL    HW135984  13.859   6.056   2.388
44715SOL    HW235985  13.757   5.969   2.318
44716SOL     OW35986  12.961  11.161  10.511
44716SOL    HW135987  12.891  11.183  10.572
44716SOL    HW235988  12.931  11.081  10.468
44717SOL     OW35989   2.298  14.760   9.627
44717SOL    HW135990   2.374  14.818   9.627
44717SOL    HW235991   2.227  14.815   9.660
44718SOL     OW35992  12.933   1.256  13.430
44718SOL    HW135993  12.921   1.166  13.398
44718SOL    HW235994  12.884   1.310  13.368
44719SOL     OW35995   7.550   3.249   7.902
44719SOL    HW135996   7.464   3.215   7.878
44719SOL    HW235997   7.533   3.309   7.974
44720SOL     OW35998   1.523   5.991  11.753
44720SOL    HW135999   1.559   5.910  11.789
44720SOL    HW236000   1.534   5.982  11.659
44721SOL     OW36001   7.016   2.061  14.734
44721SOL    HW136002   6.971   1.980  14.708
44721SOL    HW236003   6.962   2.097  14.804
44722SOL     OW36004   1.147   9.553  11.801
44722SOL    HW136005   1.202   9.562  11.723
44722SOL    HW236006   1.109   9.640  11.814
44723SOL     OW36007   1.520  11.969   3.933
44723SOL    HW136008   1.581  11.932   3.869
44723SOL    HW236009   1.447  12.003   3.881
44724SOL     OW36010   3.166   0.363  14.178
44724SOL    HW136011   3.221   0.300  14.226
44724SOL    HW236012   3.215   0.380  14.098
44725SOL     OW36013   1.415  13.213  12.570
44725SOL    HW136014   1.363  13.154  12.625
44725SOL    HW236015   1.500  13.218  12.614
44726SOL     OW36016  14.217   4.903  12.540
44726SOL    HW136017  14.312   4.905  12.554
44726SOL    HW236018  14.192   4.995  12.534
44727SOL     OW36019  12.701  10.105   8.551
44727SOL    HW136020  12.666  10.017   8.567
44727SOL    HW236021  12.677  10.155   8.628
44728SOL     OW36022  12.793   1.019   3.838
44728SOL    HW136023  12.889   1.019   3.839
44728SOL    HW236024  12.769   0.927   3.833
44729SOL     OW36025  10.557  13.132  10.591
44729SOL    HW136026  10.479  13.084  10.563
44729SOL    HW236027  10.619  13.064  10.617
44730SOL     OW36028   8.223   8.708   0.074
44730SOL    HW136029   8.197   8.795   0.104
44730SOL    HW236030   8.270   8.723  14.869
44731SOL     OW36031   3.748   8.484  11.890
44731SOL    HW136032   3.826   8.430  11.877
44731SOL    HW236033   3.710   8.491  11.803
44732SOL     OW36034   4.916   2.220  14.035
44732SOL    HW136035   4.862   2.187  13.963
44732SOL    HW236036   4.905   2.154  14.104
44733SOL     OW36037   4.982  10.664   8.508
44733SOL    HW136038   4.892  10.664   8.538
44733SOL    HW236039   5.024  10.594   8.558
44734SOL     OW36040   2.183  14.610   8.834
44734SOL    HW136041   2.271  14.574   8.821
44734SOL    HW236042   2.152  14.569   8.915
44735SOL     OW36043   6.248  10.963   6.522
44735SOL    HW136044   6.253  10.908   6.445
44735SOL    HW236045   6.193  10.915   6.583
44736SOL     OW36046   0.270   1.065   5.025
44736SOL    HW136047   0.321   1.144   5.043
44736SOL    HW236048   0.193   1.073   5.083
44737SOL     OW36049   9.947  13.668   5.673
44737SOL    HW136050   9.925  13.731   5.742
44737SOL    HW236051   9.939  13.582   5.716
44738SOL     OW36052  10.352   3.149  14.546
44738SOL    HW136053  10.283   3.191  14.598
44738SOL    HW236054  10.415   3.219  14.530
44739SOL     OW36055   9.272   8.560   4.164
44739SOL    HW136056   9.321   8.509   4.100
44739SOL    HW236057   9.308   8.648   4.157
44740SOL     OW36058   9.091   6.842  13.370
44740SOL    HW136059   9.018   6.882  13.322
44740SOL    HW236060   9.158   6.827  13.303
44741SOL     OW36061   8.130   9.179  12.022
44741SOL    HW136062   8.083   9.259  12.000
44741SOL    HW236063   8.091   9.112  11.965
44742SOL     OW36064   9.249   8.814   9.190
44742SOL    HW136065   9.172   8.798   9.137
44742SOL    HW236066   9.261   8.733   9.240
44743SOL     OW36067   7.011   4.800   9.938
44743SOL    HW136068   7.016   4.793   9.843
44743SOL    HW236069   7.003   4.709   9.968
44744SOL     OW36070  10.606   4.508   0.046
44744SOL    HW136071  10.524   4.557   0.041
44744SOL    HW236072  10.584   4.427   0.092
44745SOL     OW36073   9.224   9.457   6.572
44745SOL    HW136074   9.175   9.521   6.520
44745SOL    HW236075   9.171   9.444   6.650
44746SOL     OW36076  10.778   6.917   6.288
44746SOL    HW136077  10.815   7.005   6.281
44746SOL    HW236078  10.853   6.861   6.304
44747SOL     OW36079   6.773   8.666  10.482
44747SOL    HW136080   6.849   8.702  10.527
44747SOL    HW236081   6.800   8.661  10.390
44748SOL     OW36082   6.203  14.538  13.963
44748SOL    HW136083   6.168  14.519  14.051
44748SOL    HW236084   6.215  14.633  13.962
44749SOL     OW36085  14.342  12.466  10.751
44749SOL    HW136086  14.435  12.484  10.737
44749SOL    HW236087  14.311  12.433  10.667
44750SOL     OW36088  10.213   0.336   3.818
44750SOL    HW136089  10.149   0.293   3.761
44750SOL    HW236090  10.289   0.349   3.763
44751SOL     OW36091   8.250   6.048   9.286
44751SOL    HW136092   8.272   5.963   9.325
44751SOL    HW236093   8.263   6.111   9.358
44752SOL     OW36094   0.859   8.998   6.175
44752SOL    HW136095   0.802   9.053   6.121
44752SOL    HW236096   0.798   8.947   6.230
44753SOL     OW36097   3.498  11.457   3.600
44753SOL    HW136098   3.495  11.392   3.670
44753SOL    HW236099   3.590  11.461   3.574
44754SOL     OW36100  10.090  13.213   3.790
44754SOL    HW136101  10.041  13.269   3.730
44754SOL    HW236102  10.084  13.126   3.751
44755SOL     OW36103   9.907   9.266   9.649
44755SOL    HW136104   9.834   9.253   9.709
44755SOL    HW236105   9.896   9.355   9.617
44756SOL     OW36106   8.485   0.505   4.824
44756SOL    HW136107   8.393   0.501   4.800
44756SOL    HW236108   8.494   0.585   4.875
44757SOL     OW36109  12.335   6.074   5.433
44757SOL    HW136110  12.314   5.993   5.479
44757SOL    HW236111  12.252   6.122   5.431
44758SOL     OW36112   9.664  12.290   6.236
44758SOL    HW136113   9.699  12.201   6.225
44758SOL    HW236114   9.678  12.332   6.151
44759SOL     OW36115  11.072  10.082   5.035
44759SOL    HW136116  11.011  10.070   4.963
44759SOL    HW236117  11.017  10.111   5.108
44760SOL     OW36118   1.527  13.913   6.760
44760SOL    HW136119   1.552  13.822   6.778
44760SOL    HW236120   1.607  13.953   6.725
44761SOL     OW36121  13.993   3.451   5.536
44761SOL    HW136122  13.936   3.417   5.467
44761SOL    HW236123  13.937   3.456   5.613
44762SOL     OW36124  12.446   5.498   4.910
44762SOL    HW136125  12.415   5.450   4.833
44762SOL    HW236126  12.507   5.563   4.874
44763SOL     OW36127  12.184   3.051  11.019
44763SOL    HW136128  12.126   3.022  10.949
44763SOL    HW236129  12.245   2.978  11.032
44764SOL     OW36130   3.587   5.735   1.652
44764SOL    HW136131   3.521   5.800   1.629
44764SOL    HW236132   3.544   5.651   1.638
44765SOL     OW36133   9.281   9.782  10.904
44765SOL    HW136134   9.362   9.746  10.940
44765SOL    HW236135   9.236   9.821  10.979
44766SOL     OW36136   3.713  14.546   6.251
44766SOL    HW136137   3.660  14.574   6.326
44766SOL    HW236138   3.802  14.574   6.272
44767SOL     OW36139  11.179   9.416   0.041
44767SOL    HW136140  11.236   9.487   0.011
44767SOL    HW236141  11.231   9.368   0.105
44768SOL     OW36142  10.076   9.725  11.829
44768SOL    HW136143  10.099   9.732  11.736
44768SOL    HW236144  10.005   9.787  11.842
44769SOL     OW36145  13.848   9.791   6.598
44769SOL    HW136146  13.862   9.879   6.633
44769SOL    HW236147  13.902   9.788   6.519
44770SOL     OW36148   9.905   7.289   6.857
44770SOL    HW136149   9.918   7.225   6.787
44770SOL    HW236150   9.986   7.285   6.908
44771SOL     OW36151   6.218   6.931   5.966
44771SOL    HW136152   6.198   6.881   5.888
44771SOL    HW236153   6.234   6.865   6.034
44772SOL     OW36154   2.982   1.500   5.891
44772SOL    HW136155   3.053   1.445   5.924
44772SOL    HW236156   3.016   1.536   5.809
44773SOL     OW36157  14.615  12.496  11.162
44773SOL    HW136158  14.521  12.479  11.150
44773SOL    HW236159  14.618  12.568  11.226
44774SOL     OW36160  11.964   0.061  12.250
44774SOL    HW136161  11.936   0.139  12.202
44774SOL    HW236162  12.048   0.038  12.211
44775SOL     OW36163  12.953   7.436   2.064
44775SOL    HW136164  12.882   7.388   2.021
44775SOL    HW236165  12.908   7.500   2.120
44776SOL     OW36166   2.575   4.568   8.032
44776SOL    HW136167   2.563   4.567   7.937
44776SOL    HW236168   2.510   4.631   8.064
44777SOL     OW36169  10.011  12.109   5.329
44777SOL    HW136170   9.963  12.079   5.252
44777SOL    HW236171   9.956  12.083   5.403
44778SOL     OW36172   8.005   1.981   2.486
44778SOL    HW136173   7.919   1.990   2.526
44778SOL    HW236174   8.003   1.896   2.442
44779SOL     OW36175   8.032  11.535   8.991
44779SOL    HW136176   8.113  11.583   8.978
44779SOL    HW236177   8.018  11.488   8.909
44780SOL     OW36178  12.053  11.661   5.688
44780SOL    HW136179  11.957  11.660   5.691
44780SOL    HW236180  12.074  11.686   5.598
44781SOL     OW36181   0.886  14.038   4.677
44781SOL    HW136182   0.902  13.980   4.602
44781SOL    HW236183   0.881  14.126   4.639
44782SOL     OW36184   7.482   3.321   6.528
44782SOL    HW136185   7.552   3.322   6.594
44782SOL    HW236186   7.405   3.290   6.575
44783SOL     OW36187   0.594   9.331   4.738
44783SOL    HW136188   0.550   9.247   4.756
44783SOL    HW236189   0.524   9.389   4.709
44784SOL     OW36190   2.441  10.804   1.957
44784SOL    HW136191   2.364  10.828   2.009
44784SOL    HW236192   2.452  10.710   1.973
44785SOL     OW36193   1.704   8.350   9.614
44785SOL    HW136194   1.788   8.394   9.624
44785SOL    HW236195   1.656   8.372   9.694
44786SOL     OW36196   7.447   0.468  10.387
44786SOL    HW136197   7.489   0.452  10.471
44786SOL    HW236198   7.460   0.387  10.337
44787SOL     OW36199   7.248  11.635  13.771
44787SOL    HW136200   7.164  11.596  13.744
44787SOL    HW236201   7.298  11.561  13.805
44788SOL     OW36202   4.018   8.658   3.403
44788SOL    HW136203   4.053   8.738   3.363
44788SOL    HW236204   4.090   8.623   3.455
44789SOL     OW36205  13.801   4.328   5.022
44789SOL    HW136206  13.800   4.418   4.987
44789SOL    HW236207  13.738   4.330   5.094
44790SOL     OW36208  12.136   3.443   1.739
44790SOL    HW136209  12.135   3.366   1.796
44790SOL    HW236210  12.052   3.439   1.693
44791SOL     OW36211  14.573   3.222   0.163
44791SOL    HW136212  14.478   3.233   0.165
44791SOL    HW236213  14.598   3.215   0.256
44792SOL     OW36214   8.606   8.470   8.255
44792SOL    HW136215   8.529   8.451   8.202
44792SOL    HW236216   8.681   8.453   8.198
44793SOL     OW36217   8.341  12.902   7.387
44793SOL    HW136218   8.403  12.831   7.372
44793SOL    HW236219   8.336  12.909   7.482
44794SOL     OW36220   7.685  10.711  13.058
44794SOL    HW136221   7.652  10.789  13.015
44794SOL    HW236222   7.613  10.648  13.052
44795SOL     OW36223   0.035   0.881   8.098
44795SOL    HW136224  14.842   0.820   8.073
44795SOL    HW236225  14.875   0.931   8.171
44796SOL     OW36226   6.970  14.613  10.167
44796SOL    HW136227   6.992  14.699  10.202
44796SOL    HW236228   6.885  14.625  10.125
44797SOL     OW36229   0.715   4.863   1.624
44797SOL    HW136230   0.638   4.884   1.678
44797SOL    HW236231   0.729   4.770   1.639
44798SOL     OW36232   9.245   3.576  11.527
44798SOL    HW136233   9.241   3.671  11.535
44798SOL    HW236234   9.300   3.561  11.450
44799SOL     OW36235  14.480   2.762  13.966
44799SOL    HW136236  14.507   2.674  13.940
44799SOL    HW236237  14.391   2.771  13.931
44800SOL     OW36238   4.931   8.474   0.981
44800SOL    HW136239   5.007   8.433   1.023
44800SOL    HW236240   4.968   8.550   0.935
44801SOL     OW36241   4.791   1.956  11.945
44801SOL    HW136242   4.735   2.000  12.009
44801SOL    HW236243   4.804   2.020  11.875
44802SOL     OW36244   2.626   2.889  10.770
44802SOL    HW136245   2.568   2.958  10.737
44802SOL    HW236246   2.683   2.934  10.832
44803SOL     OW36247  14.791   5.593   4.214
44803SOL    HW136248  14.784   5.552   4.300
44803SOL    HW236249  14.834   5.528   4.159
44804SOL     OW36250   1.562   8.634  12.742
44804SOL    HW136251   1.549   8.714  12.692
44804SOL    HW236252   1.593   8.663  12.827
44805SOL     OW36253   7.333   9.602   1.608
44805SOL    HW136254   7.425   9.627   1.601
44805SOL    HW236255   7.323   9.573   1.699
44806SOL     OW36256   6.370   2.256   7.792
44806SOL    HW136257   6.315   2.270   7.870
44806SOL    HW236258   6.316   2.205   7.733
44807SOL     OW36259   9.434  10.638   5.960
44807SOL    HW136260   9.387  10.688   5.893
44807SOL    HW236261   9.446  10.700   6.032
44808SOL     OW36262  12.913  11.153  14.598
44808SOL    HW136263  12.826  11.172  14.632
44808SOL    HW236264  12.972  11.173  14.671
44809SOL     OW36265   3.081   9.393  10.345
44809SOL    HW136266   3.029   9.365  10.269
44809SOL    HW236267   3.156   9.334  10.346
44810SOL     OW36268  12.316   1.225   7.169
44810SOL    HW136269  12.267   1.242   7.250
44810SOL    HW236270  12.310   1.307   7.120
44811SOL     OW36271   6.857   4.783  11.914
44811SOL    HW136272   6.895   4.871  11.918
44811SOL    HW236273   6.826   4.775  11.823
44812SOL     OW36274   2.074   0.284   8.021
44812SOL    HW136275   2.056   0.339   7.945
44812SOL    HW236276   2.026   0.203   8.004
44813SOL     OW36277   9.074   4.543  13.508
44813SOL    HW136278   9.024   4.462  13.496
44813SOL    HW236279   9.141   4.520  13.573
44814SOL     OW36280  10.765   5.407   1.895
44814SOL    HW136281  10.839   5.372   1.845
44814SOL    HW236282  10.711   5.330   1.914
44815SOL     OW36283   7.333  14.033   5.776
44815SOL    HW136284   7.263  14.058   5.715
44815SOL    HW236285   7.317  13.941   5.794
44816SOL     OW36286   2.589   0.321   0.083
44816SOL    HW136287   2.549   0.318   0.170
44816SOL    HW236288   2.524   0.363   0.027
44817SOL     OW36289   0.405   2.144   2.886
44817SOL    HW136290   0.365   2.156   2.800
44817SOL    HW236291   0.396   2.230   2.929
44818SOL     OW36292   7.388  11.821  11.410
44818SOL    HW136293   7.402  11.792  11.500
44818SOL    HW236294   7.322  11.761  11.376
44819SOL     OW36295   0.435   2.985   6.188
44819SOL    HW136296   0.455   2.975   6.095
44819SOL    HW236297   0.470   3.071   6.211
44820SOL     OW36298   0.949  14.089   6.324
44820SOL    HW136299   1.044  14.077   6.322
44820SOL    HW236300   0.936  14.176   6.360
44821SOL     OW36301   6.346   4.283  14.364
44821SOL    HW136302   6.404   4.322  14.428
44821SOL    HW236303   6.382   4.309  14.279
44822SOL     OW36304   0.561  13.803   9.258
44822SOL    HW136305   0.504  13.861   9.307
44822SOL    HW236306   0.502  13.753   9.201
44823SOL     OW36307  12.420  11.112   6.512
44823SOL    HW136308  12.435  11.124   6.606
44823SOL    HW236309  12.497  11.153   6.470
44824SOL     OW36310   3.408  11.264  10.468
44824SOL    HW136311   3.362  11.348  10.467
44824SOL    HW236312   3.402  11.234  10.558
44825SOL     OW36313   2.868   9.575   8.435
44825SOL    HW136314   2.961   9.554   8.443
44825SOL    HW236315   2.845   9.550   8.345
44826SOL     OW36316  13.892  14.468  11.759
44826SOL    HW136317  13.813  14.441  11.712
44826SOL    HW236318  13.929  14.386  11.792
44827SOL     OW36319  12.167   7.893   3.928
44827SOL    HW136320  12.104   7.951   3.972
44827SOL    HW236321  12.226   7.952   3.882
44828SOL     OW36322  12.551   3.513   9.274
44828SOL    HW136323  12.460   3.484   9.280
44828SOL    HW236324  12.560   3.545   9.185
44829SOL     OW36325   2.578   3.130   9.368
44829SOL    HW136326   2.658   3.124   9.317
44829SOL    HW236327   2.608   3.146   9.458
44830SOL     OW36328   1.743   9.950  13.918
44830SOL    HW136329   1.666   9.993  13.955
44830SOL    HW236330   1.712   9.865  13.890
44831SOL     OW36331  13.318   9.687   7.482
44831SOL    HW136332  13.290   9.778   7.485
44831SOL    HW236333  13.412   9.692   7.465
44832SOL     OW36334   2.979   2.503   5.845
44832SOL    HW136335   2.966   2.539   5.932
44832SOL    HW236336   3.020   2.574   5.795
44833SOL     OW36337   3.311   8.912  12.804
44833SOL    HW136338   3.329   8.836  12.858
44833SOL    HW236339   3.248   8.881  12.739
44834SOL     OW36340   9.591   7.544   0.851
44834SOL    HW136341   9.584   7.490   0.930
44834SOL    HW236342   9.612   7.631   0.883
44835SOL     OW36343   6.743   7.529   4.248
44835SOL    HW136344   6.801   7.521   4.172
44835SOL    HW236345   6.655   7.538   4.210
44836SOL     OW36346   4.670  10.421   6.683
44836SOL    HW136347   4.605  10.394   6.747
44836SOL    HW236348   4.654  10.365   6.607
44837SOL     OW36349   6.077   8.676   7.988
44837SOL    HW136350   6.114   8.750   7.939
44837SOL    HW236351   6.132   8.670   8.066
44838SOL     OW36352   9.139  12.180  14.840
44838SOL    HW136353   9.223  12.226  14.845
44838SOL    HW236354   9.162  12.087  14.845
44839SOL     OW36355   0.632   3.082   1.555
44839SOL    HW136356   0.715   3.046   1.585
44839SOL    HW236357   0.575   3.006   1.547
44840SOL     OW36358   0.240   1.509  13.023
44840SOL    HW136359   0.266   1.555  13.103
44840SOL    HW236360   0.151   1.540  13.006
44841SOL     OW36361  11.683   2.410   0.707
44841SOL    HW136362  11.656   2.474   0.773
44841SOL    HW236363  11.646   2.327   0.738
44842SOL     OW36364   4.665   4.619   2.532
44842SOL    HW136365   4.720   4.695   2.515
44842SOL    HW236366   4.704   4.549   2.478
44843SOL     OW36367   2.391   4.458   4.590
44843SOL    HW136368   2.461   4.403   4.555
44843SOL    HW236369   2.364   4.513   4.517
44844SOL     OW36370   6.242   3.028   7.647
44844SOL    HW136371   6.228   2.940   7.612
44844SOL    HW236372   6.216   3.022   7.739
44845SOL     OW36373  14.090   6.095   4.262
44845SOL    HW136374  14.095   6.025   4.198
44845SOL    HW236375  14.025   6.066   4.326
44846SOL     OW36376  11.470  10.078  11.120
44846SOL    HW136377  11.505  10.127  11.194
44846SOL    HW236378  11.547  10.039  11.078
44847SOL     OW36379   1.168  13.999   3.783
44847SOL    HW136380   1.223  13.955   3.718
44847SOL    HW236381   1.105  14.049   3.731
44848SOL     OW36382  11.839   7.764   1.299
44848SOL    HW136383  11.797   7.838   1.344
44848SOL    HW236384  11.929   7.795   1.282
44849SOL     OW36385   4.855   5.171   3.305
44849SOL    HW136386   4.808   5.249   3.334
44849SOL    HW236387   4.883   5.129   3.386
44850SOL     OW36388   3.385   8.419  13.019
44850SOL    HW136389   3.452   8.435  13.085
44850SOL    HW236390   3.303   8.443  13.061
44851SOL     OW36391   9.335   8.047  12.710
44851SOL    HW136392   9.276   7.977  12.738
44851SOL    HW236393   9.409   8.001  12.671
44852SOL     OW36394   4.936  12.177   5.833
44852SOL    HW136395   4.867  12.206   5.893
44852SOL    HW236396   5.010  12.235   5.850
44853SOL     OW36397  10.709   8.312  11.214
44853SOL    HW136398  10.627   8.287  11.171
44853SOL    HW236399  10.732   8.396  11.174
44854SOL     OW36400   7.268   6.648  11.214
44854SOL    HW136401   7.358   6.661  11.244
44854SOL    HW236402   7.269   6.562  11.172
44855SOL     OW36403   6.281   6.759   3.022
44855SOL    HW136404   6.241   6.828   3.075
44855SOL    HW236405   6.215   6.689   3.020
44856SOL     OW36406  13.114   7.806  11.566
44856SOL    HW136407  13.181   7.743  11.592
44856SOL    HW236408  13.032   7.770  11.598
44857SOL     OW36409   2.039   4.600  14.467
44857SOL    HW136410   2.002   4.655  14.536
44857SOL    HW236411   2.079   4.661  14.406
44858SOL     OW36412   9.163   5.705  13.804
44858SOL    HW136413   9.169   5.610  13.819
44858SOL    HW236414   9.239   5.725  13.749
44859SOL     OW36415   6.688   7.094  12.304
44859SOL    HW136416   6.758   7.158  12.317
44859SOL    HW236417   6.612   7.147  12.281
44860SOL     OW36418  12.060   3.732   6.252
44860SOL    HW136419  11.984   3.674   6.252
44860SOL    HW236420  12.032   3.808   6.303
44861SOL     OW36421   6.536   1.635   9.501
44861SOL    HW136422   6.480   1.565   9.535
44861SOL    HW236423   6.475   1.707   9.483
44862SOL     OW36424   2.661  10.127  11.996
44862SOL    HW136425   2.578  10.095  12.031
44862SOL    HW236426   2.693  10.055  11.941
44863SOL     OW36427   6.685   5.545  14.776
44863SOL    HW136428   6.590   5.550  14.784
44863SOL    HW236429   6.702   5.457  14.744
44864SOL     OW36430  12.662   0.387   9.461
44864SOL    HW136431  12.684   0.408   9.370
44864SOL    HW236432  12.657   0.471   9.505
44865SOL     OW36433  10.394  11.909  13.235
44865SOL    HW136434  10.381  11.820  13.202
44865SOL    HW236435  10.480  11.906  13.278
44866SOL     OW36436   3.715   6.725   0.296
44866SOL    HW136437   3.630   6.744   0.336
44866SOL    HW236438   3.769   6.801   0.317
44867SOL     OW36439  10.523  14.161  11.496
44867SOL    HW136440  10.561  14.245  11.520
44867SOL    HW236441  10.498  14.171  11.405
44868SOL     OW36442   6.465   3.613   4.694
44868SOL    HW136443   6.434   3.522   4.691
44868SOL    HW236444   6.385   3.664   4.704
44869SOL     OW36445   8.171   4.032   3.748
44869SOL    HW136446   8.170   4.105   3.686
44869SOL    HW236447   8.230   3.968   3.709
44870SOL     OW36448  12.911  13.153   9.997
44870SOL    HW136449  12.907  13.070  10.045
44870SOL    HW236450  12.932  13.219  10.063
44871SOL     OW36451  10.022   8.336  13.555
44871SOL    HW136452  10.061   8.328  13.468
44871SOL    HW236453   9.956   8.404  13.546
44872SOL     OW36454   0.041   9.121   5.389
44872SOL    HW136455   0.037   9.215   5.370
44872SOL    HW236456   0.122   9.092   5.350
44873SOL     OW36457  14.325   4.057  12.876
44873SOL    HW136458  14.289   4.123  12.935
44873SOL    HW236459  14.262   4.050  12.805
44874SOL     OW36460   1.633   7.438   5.603
44874SOL    HW136461   1.569   7.371   5.582
44874SOL    HW236462   1.582   7.519   5.607
44875SOL     OW36463   0.158   1.000   9.938
44875SOL    HW136464   0.186   0.927   9.882
44875SOL    HW236465   0.066   1.013   9.917
44876SOL     OW36466  11.332   0.085   0.068
44876SOL    HW136467  11.334   0.020   0.138
44876SOL    HW236468  11.241   0.114   0.064
44877SOL     OW36469   7.458  13.707   1.789
44877SOL    HW136470   7.533  13.762   1.809
44877SOL    HW236471   7.391  13.769   1.759
44878SOL     OW36472   5.459   8.555   1.463
44878SOL    HW136473   5.552   8.557   1.439
44878SOL    HW236474   5.459   8.545   1.558
44879SOL     OW36475  12.408  14.592   1.823
44879SOL    HW136476  12.374  14.504   1.832
44879SOL    HW236477  12.501  14.584   1.844
44880SOL     OW36478   0.997   4.169  13.498
44880SOL    HW136479   1.088   4.143  13.481
44880SOL    HW236480   1.002   4.264  13.511
44881SOL     OW36481  12.110   5.331   9.125
44881SOL    HW136482  12.130   5.295   9.038
44881SOL    HW236483  12.187   5.382   9.148
44882SOL     OW36484   1.477   5.072  11.317
44882SOL    HW136485   1.499   5.022  11.238
44882SOL    HW236486   1.506   5.016  11.389
44883SOL     OW36487   0.322   4.741   8.689
44883SOL    HW136488   0.265   4.668   8.666
44883SOL    HW236489   0.304   4.807   8.622
44884SOL     OW36490  10.958  13.539   2.524
44884SOL    HW136491  11.000  13.610   2.475
44884SOL    HW236492  10.881  13.579   2.564
44885SOL     OW36493  14.584  13.388   1.523
44885SOL    HW136494  14.639  13.311   1.538
44885SOL    HW236495  14.498  13.363   1.557
44886SOL     OW36496   9.135   5.398   3.282
44886SOL    HW136497   9.171   5.378   3.196
44886SOL    HW236498   9.138   5.493   3.287
44887SOL     OW36499   7.898  11.533  13.382
44887SOL    HW136500   7.891  11.624  13.412
44887SOL    HW236501   7.900  11.482  13.463
44888SOL     OW36502   6.609   7.200  12.907
44888SOL    HW136503   6.546   7.138  12.870
44888SOL    HW236504   6.687   7.190  12.852
44889SOL     OW36505   2.959  10.108   5.952
44889SOL    HW136506   2.969  10.200   5.977
44889SOL    HW236507   2.904  10.070   6.020
44890SOL     OW36508  11.191   6.251   7.925
44890SOL    HW136509  11.100   6.224   7.909
44890SOL    HW236510  11.207   6.319   7.861
44891SOL     OW36511  10.215   5.477  14.044
44891SOL    HW136512  10.139   5.534  14.057
44891SOL    HW236513  10.180   5.388  14.052
44892SOL     OW36514   8.160   7.524   9.660
44892SOL    HW136515   8.065   7.517   9.651
44892SOL    HW236516   8.194   7.446   9.617
44893SOL     OW36517   1.176  10.404  10.476
44893SOL    HW136518   1.084  10.395  10.451
44893SOL    HW236519   1.196  10.496  10.461
44894SOL     OW36520   9.142  13.985   1.634
44894SOL    HW136521   9.199  14.000   1.710
44894SOL    HW236522   9.082  13.917   1.663
44895SOL     OW36523  13.102  12.575   3.462
44895SOL    HW136524  13.088  12.504   3.400
44895SOL    HW236525  13.137  12.647   3.410
44896SOL     OW36526  13.955   3.508  11.465
44896SOL    HW136527  14.003   3.517  11.547
44896SOL    HW236528  14.017   3.534  11.398
44897SOL     OW36529  10.844  13.513   8.494
44897SOL    HW136530  10.786  13.465   8.553
44897SOL    HW236531  10.785  13.567   8.441
44898SOL     OW36532  14.266   2.450  11.424
44898SOL    HW136533  14.225   2.413  11.503
44898SOL    HW236534  14.354   2.412  11.424
44899SOL     OW36535   9.279  11.223  13.361
44899SOL    HW136536   9.221  11.299  13.369
44899SOL    HW236537   9.365  11.256  13.386
44900SOL     OW36538   9.158   6.778  11.292
44900SOL    HW136539   9.184   6.700  11.242
44900SOL    HW236540   9.236   6.834  11.292
44901SOL     OW36541  10.103   7.566  14.351
44901SOL    HW136542  10.140   7.639  14.401
44901SOL    HW236543  10.074   7.504  14.417
44902SOL     OW36544   7.344   0.644   3.149
44902SOL    HW136545   7.321   0.736   3.154
44902SOL    HW236546   7.415   0.632   3.212
44903SOL     OW36547   8.311   8.245   1.915
44903SOL    HW136548   8.267   8.286   1.841
44903SOL    HW236549   8.348   8.319   1.965
44904SOL     OW36550   7.538  11.869   8.683
44904SOL    HW136551   7.565  11.800   8.744
44904SOL    HW236552   7.620  11.904   8.648
44905SOL     OW36553  10.923  12.894   8.497
44905SOL    HW136554  10.843  12.914   8.450
44905SOL    HW236555  10.971  12.977   8.498
44906SOL     OW36556   8.044  13.255  10.162
44906SOL    HW136557   8.055  13.317  10.235
44906SOL    HW236558   7.980  13.297  10.105
44907SOL     OW36559   3.538   2.264   5.561
44907SOL    HW136560   3.571   2.312   5.637
44907SOL    HW236561   3.446   2.291   5.555
44908SOL     OW36562   0.758   1.127  14.484
44908SOL    HW136563   0.811   1.204  14.465
44908SOL    HW236564   0.674   1.144  14.440
44909SOL     OW36565   5.090   5.808   6.185
44909SOL    HW136566   5.162   5.791   6.245
44909SOL    HW236567   5.078   5.903   6.189
44910SOL     OW36568   5.229   8.614   0.181
44910SOL    HW136569   5.188   8.598   0.096
44910SOL    HW236570   5.168   8.576   0.244
44911SOL     OW36571  10.530  13.670   3.210
44911SOL    HW136572  10.466  13.621   3.160
44911SOL    HW236573  10.527  13.759   3.174
44912SOL     OW36574   0.593  12.722   8.915
44912SOL    HW136575   0.606  12.749   9.006
44912SOL    HW236576   0.508  12.679   8.914
44913SOL     OW36577   0.357   5.624   8.338
44913SOL    HW136578   0.288   5.578   8.387
44913SOL    HW236579   0.423   5.644   8.404
44914SOL     OW36580  13.852   0.100   1.080
44914SOL    HW136581  13.916   0.135   1.142
44914SOL    HW236582  13.858   0.005   1.092
44915SOL     OW36583   6.708   7.201   2.030
44915SOL    HW136584   6.798   7.207   1.997
44915SOL    HW236585   6.697   7.108   2.051
44916SOL     OW36586  14.865   0.608   4.411
44916SOL    HW136587   0.073   0.631   4.372
44916SOL    HW236588  14.860   0.513   4.404
44917SOL     OW36589   0.702  14.672  12.983
44917SOL    HW136590   0.657  14.692  12.901
44917SOL    HW236591   0.747  14.589  12.966
44918SOL     OW36592   0.341   3.650   1.041
44918SOL    HW136593   0.400   3.601   0.983
44918SOL    HW236594   0.275   3.585   1.068
44919SOL     OW36595   5.019   1.513  12.408
44919SOL    HW136596   5.070   1.556  12.341
44919SOL    HW236597   5.047   1.421  12.405
44920SOL     OW36598  11.383   7.143  13.564
44920SOL    HW136599  11.353   7.121  13.652
44920SOL    HW236600  11.338   7.081  13.507
44921SOL     OW36601  12.537  14.668   4.682
44921SOL    HW136602  12.457  14.719   4.686
44921SOL    HW236603  12.539  14.619   4.765
44922SOL     OW36604   0.104   5.697   9.653
44922SOL    HW136605   0.059   5.781   9.658
44922SOL    HW236606   0.063   5.643   9.720
44923SOL     OW36607   5.569  14.730   3.980
44923SOL    HW136608   5.620  14.654   3.955
44923SOL    HW236609   5.485  14.720   3.934
44924SOL     OW36610   9.207   0.087   0.470
44924SOL    HW136611   9.255   0.024   0.417
44924SOL    HW236612   9.166   0.146   0.407
44925SOL     OW36613  14.761   4.943   8.876
44925SOL    HW136614  14.755   4.943   8.971
44925SOL    HW236615  14.737   4.853   8.851
44926SOL     OW36616   6.911  10.617   7.049
44926SOL    HW136617   6.832  10.595   6.999
44926SOL    HW236618   6.940  10.701   7.012
44927SOL     OW36619   9.682  14.149   9.324
44927SOL    HW136620   9.717  14.060   9.334
44927SOL    HW236621   9.588  14.139   9.340
44928SOL     OW36622   0.292  14.839  10.576
44928SOL    HW136623   0.296  14.775  10.505
44928SOL    HW236624   0.303   0.047  10.534
44929SOL     OW36625   7.592   9.990  11.356
44929SOL    HW136626   7.600  10.085  11.366
44929SOL    HW236627   7.654   9.968  11.287
44930SOL     OW36628   9.904   1.029   5.846
44930SOL    HW136629   9.979   1.055   5.792
44930SOL    HW236630   9.930   0.945   5.883
44931SOL     OW36631  13.505   4.842   6.545
44931SOL    HW136632  13.486   4.922   6.496
44931SOL    HW236633  13.494   4.772   6.481
44932SOL     OW36634   9.286  12.724   3.090
44932SOL    HW136635   9.295  12.629   3.099
44932SOL    HW236636   9.210  12.746   3.143
44933SOL     OW36637  12.383   8.703   2.762
44933SOL    HW136638  12.376   8.642   2.689
44933SOL    HW236639  12.471   8.741   2.754
44934SOL     OW36640   4.142   5.291  13.205
44934SOL    HW136641   4.208   5.334  13.259
44934SOL    HW236642   4.177   5.203  13.190
44935SOL     OW36643   1.412   4.027   0.709
44935SOL    HW136644   1.404   3.974   0.630
44935SOL    HW236645   1.377   3.971   0.778
44936SOL     OW36646   6.489  11.175   3.929
44936SOL    HW136647   6.544  11.238   3.883
44936SOL    HW236648   6.453  11.119   3.860
44937SOL     OW36649   6.984   3.651   7.451
44937SOL    HW136650   6.972   3.733   7.403
44937SOL    HW236651   6.913   3.594   7.421
44938SOL     OW36652   7.453   9.434   7.273
44938SOL    HW136653   7.501   9.379   7.212
44938SOL    HW236654   7.396   9.488   7.218
44939SOL     OW36655  12.042  13.377   0.454
44939SOL    HW136656  12.028  13.318   0.528
44939SOL    HW236657  11.982  13.449   0.470
44940SOL     OW36658   7.082  10.321   6.498
44940SOL    HW136659   7.089  10.265   6.575
44940SOL    HW236660   7.160  10.301   6.446
44941SOL     OW36661   4.173  13.803   1.494
44941SOL    HW136662   4.148  13.717   1.527
44941SOL    HW236663   4.185  13.791   1.400
44942SOL     OW36664   6.005  13.786   8.226
44942SOL    HW136665   6.053  13.862   8.260
44942SOL    HW236666   6.072  13.734   8.181
44943SOL     OW36667   4.871   4.252   9.897
44943SOL    HW136668   4.895   4.271   9.806
44943SOL    HW236669   4.839   4.336   9.931
44944SOL     OW36670  11.869   2.393  11.437
44944SOL    HW136671  11.774   2.390  11.428
44944SOL    HW236672  11.901   2.340  11.364
44945SOL     OW36673   8.791   4.447   5.867
44945SOL    HW136674   8.782   4.440   5.962
44945SOL    HW236675   8.743   4.371   5.833
44946SOL     OW36676  11.895  14.207   2.179
44946SOL    HW136677  11.905  14.295   2.142
44946SOL    HW236678  11.964  14.155   2.136
44947SOL     OW36679  10.960   9.947  11.793
44947SOL    HW136680  10.890   9.927  11.730
44947SOL    HW236681  10.927   9.913  11.876
44948SOL     OW36682   7.515   4.066   8.457
44948SOL    HW136683   7.425   4.034   8.453
44948SOL    HW236684   7.561   4.000   8.509
44949SOL     OW36685   8.882   3.319   8.752
44949SOL    HW136686   8.897   3.240   8.700
44949SOL    HW236687   8.860   3.285   8.839
44950SOL     OW36688  12.758   0.846   2.229
44950SOL    HW136689  12.738   0.762   2.188
44950SOL    HW236690  12.783   0.824   2.318
44951SOL     OW36691   6.347   5.868   9.472
44951SOL    HW136692   6.297   5.948   9.488
44951SOL    HW236693   6.311   5.834   9.390
44952SOL     OW36694   9.229  12.228   7.884
44952SOL    HW136695   9.279  12.308   7.897
44952SOL    HW236696   9.180  12.244   7.803
44953SOL     OW36697   3.139  13.431  11.222
44953SOL    HW136698   3.105  13.484  11.294
44953SOL    HW236699   3.099  13.467  11.143
44954SOL     OW36700  11.813   4.586   8.748
44954SOL    HW136701  11.771   4.520   8.693
44954SOL    HW236702  11.901   4.596   8.711
44955SOL     OW36703   7.321   7.860   3.696
44955SOL    HW136704   7.330   7.887   3.605
44955SOL    HW236705   7.312   7.764   3.692
44956SOL     OW36706   0.262  11.212  11.628
44956SOL    HW136707   0.355  11.232  11.620
44956SOL    HW236708   0.260  11.128  11.673
44957SOL     OW36709   6.011  10.303   0.656
44957SOL    HW136710   6.068  10.354   0.714
44957SOL    HW236711   6.070  10.249   0.605
44958SOL     OW36712   9.423   7.458  12.248
44958SOL    HW136713   9.418   7.371  12.208
44958SOL    HW236714   9.516   7.469  12.270
44959SOL     OW36715   9.099   4.329   7.074
44959SOL    HW136716   9.034   4.259   7.075
44959SOL    HW236717   9.183   4.283   7.085
44960SOL     OW36718   7.915   6.379   9.380
44960SOL    HW136719   7.861   6.326   9.321
44960SOL    HW236720   7.853   6.416   9.442
44961SOL     OW36721   2.079   9.508  10.036
44961SOL    HW136722   1.992   9.540  10.013
44961SOL    HW236723   2.068   9.471  10.123
44962SOL     OW36724  10.625   9.432   0.074
44962SOL    HW136725  10.588   9.347   0.048
44962SOL    HW236726  10.657   9.418   0.163
44963SOL     OW36727  10.568   6.564  11.462
44963SOL    HW136728  10.620   6.644  11.464
44963SOL    HW236729  10.546   6.552  11.369
44964SOL     OW36730   8.514  12.710   9.442
44964SOL    HW136731   8.608  12.708   9.423
44964SOL    HW236732   8.498  12.629   9.489
44965SOL     OW36733   5.148   5.033   1.561
44965SOL    HW136734   5.224   5.074   1.520
44965SOL    HW236735   5.097   5.107   1.596
44966SOL     OW36736  10.296   3.860   9.212
44966SOL    HW136737  10.293   3.831   9.121
44966SOL    HW236738  10.239   3.936   9.215
44967SOL     OW36739  10.006   6.185  13.403
44967SOL    HW136740  10.061   6.229  13.469
44967SOL    HW236741  10.002   6.247  13.330
44968SOL     OW36742   0.557  14.641   3.439
44968SOL    HW136743   0.533  14.587   3.364
44968SOL    HW236744   0.479  14.694   3.457
44969SOL     OW36745   7.493  12.691   7.934
44969SOL    HW136746   7.508  12.686   8.029
44969SOL    HW236747   7.535  12.613   7.899
44970SOL     OW36748   7.071   7.563  11.650
44970SOL    HW136749   7.114   7.576  11.734
44970SOL    HW236750   7.046   7.470  11.650
44971SOL     OW36751  11.702   9.657   8.428
44971SOL    HW136752  11.701   9.633   8.336
44971SOL    HW236753  11.610   9.677   8.449
44972SOL     OW36754   7.441  10.435   9.063
44972SOL    HW136755   7.435  10.392   9.149
44972SOL    HW236756   7.507  10.504   9.076
44973SOL     OW36757   6.663  13.365  13.871
44973SOL    HW136758   6.650  13.273  13.894
44973SOL    HW236759   6.754  13.369  13.841
44974SOL     OW36760  10.142   3.902   4.186
44974SOL    HW136761  10.211   3.842   4.156
44974SOL    HW236762  10.065   3.846   4.195
44975SOL     OW36763   1.441   6.788  13.685
44975SOL    HW136764   1.528   6.751  13.699
44975SOL    HW236765   1.418   6.829  13.768
44976SOL     OW36766   7.913   1.294   9.467
44976SOL    HW136767   7.857   1.371   9.453
44976SOL    HW236768   7.997   1.331   9.494
44977SOL     OW36769   6.026   4.976  10.171
44977SOL    HW136770   5.930   4.985  10.169
44977SOL    HW236771   6.050   4.957  10.081
44978SOL     OW36772   5.793   4.675   1.541
44978SOL    HW136773   5.740   4.715   1.472
44978SOL    HW236774   5.744   4.692   1.621
44979SOL     OW36775   7.975   1.982  13.759
44979SOL    HW136776   8.002   1.892  13.741
44979SOL    HW236777   7.951   2.017  13.673
44980SOL     OW36778  14.378  12.454   1.735
44980SOL    HW136779  14.441  12.437   1.665
44980SOL    HW236780  14.348  12.367   1.762
44981SOL     OW36781  11.299   8.313  12.545
44981SOL    HW136782  11.259   8.328  12.631
44981SOL    HW236783  11.361   8.385  12.534
44982SOL     OW36784   0.566   1.062   1.420
44982SOL    HW136785   0.519   1.026   1.345
44982SOL    HW236786   0.657   1.035   1.406
44983SOL     OW36787   0.512   2.404   8.694
44983SOL    HW136788   0.458   2.369   8.765
44983SOL    HW236789   0.496   2.346   8.620
44984SOL     OW36790   5.084   2.239   8.086
44984SOL    HW136791   5.167   2.281   8.107
44984SOL    HW236792   5.035   2.240   8.168
44985SOL     OW36793   3.570   3.012   1.075
44985SOL    HW136794   3.599   3.016   1.167
44985SOL    HW236795   3.651   3.007   1.025
44986SOL     OW36796   2.634  10.402   7.182
44986SOL    HW136797   2.628  10.435   7.272
44986SOL    HW236798   2.554  10.432   7.140
44987SOL     OW36799  10.183   7.930   9.723
44987SOL    HW136800  10.160   8.021   9.741
44987SOL    HW236801  10.263   7.935   9.672
44988SOL     OW36802  12.550   0.434   0.683
44988SOL    HW136803  12.584   0.522   0.668
44988SOL    HW236804  12.476   0.447   0.742
44989SOL     OW36805  13.911   3.266   4.718
44989SOL    HW136806  13.908   3.323   4.641
44989SOL    HW236807  13.819   3.249   4.739
44990SOL     OW36808   8.261   5.574  10.088
44990SOL    HW136809   8.354   5.551  10.090
44990SOL    HW236810   8.223   5.516  10.022
44991SOL     OW36811   5.691  14.337   6.756
44991SOL    HW136812   5.694  14.342   6.660
44991SOL    HW236813   5.761  14.276   6.779
44992SOL     OW36814   6.183  13.833  13.476
44992SOL    HW136815   6.278  13.826  13.481
44992SOL    HW236816   6.160  13.902  13.539
44993SOL     OW36817  11.228   9.790  13.992
44993SOL    HW136818  11.249   9.849  14.064
44993SOL    HW236819  11.287   9.816  13.921
44994SOL     OW36820  11.484  11.059   5.493
44994SOL    HW136821  11.496  11.146   5.456
44994SOL    HW236822  11.395  11.059   5.527
44995SOL     OW36823  13.225  13.466  14.471
44995SOL    HW136824  13.315  13.469  14.504
44995SOL    HW236825  13.171  13.450  14.549
44996SOL     OW36826  11.206  13.374   1.408
44996SOL    HW136827  11.182  13.388   1.316
44996SOL    HW236828  11.230  13.461   1.440
44997SOL     OW36829   9.148   3.009   0.189
44997SOL    HW136830   9.095   2.994   0.268
44997SOL    HW236831   9.153   3.104   0.182
44998SOL     OW36832   9.668   9.010   6.123
44998SOL    HW136833   9.727   9.080   6.151
44998SOL    HW236834   9.581   9.042   6.144
44999SOL     OW36835  11.711   2.621  13.054
44999SOL    HW136836  11.670   2.675  13.121
44999SOL    HW236837  11.757   2.553  13.103
45000SOL     OW36838   7.218   2.921  10.653
45000SOL    HW136839   7.288   2.904  10.717
45000SOL    HW236840   7.187   3.009  10.675
45001SOL     OW36841   5.670   9.464   8.113
45001SOL    HW136842   5.634   9.494   8.029
45001SOL    HW236843   5.650   9.370   8.115
45002SOL     OW36844   5.756   0.641  14.121
45002SOL    HW136845   5.715   0.559  14.147
45002SOL    HW236846   5.683   0.702  14.111
45003SOL     OW36847  14.463   5.576  10.614
45003SOL    HW136848  14.497   5.544  10.530
45003SOL    HW236849  14.377   5.536  10.622
45004SOL     OW36850   7.714  14.099   3.307
45004SOL    HW136851   7.797  14.086   3.260
45004SOL    HW236852   7.660  14.024   3.282
45005SOL     OW36853  14.723   4.494  13.880
45005SOL    HW136854  14.756   4.582  13.865
45005SOL    HW236855  14.628   4.502  13.869
45006SOL     OW36856   8.686   7.399   8.702
45006SOL    HW136857   8.679   7.335   8.773
45006SOL    HW236858   8.780   7.406   8.685
45007SOL     OW36859  12.946   1.056   2.266
45007SOL    HW136860  12.890   1.109   2.322
45007SOL    HW236861  12.886   1.007   2.210
45008SOL     OW36862   1.568   9.032   7.646
45008SOL    HW136863   1.575   8.947   7.602
45008SOL    HW236864   1.516   9.013   7.725
45009SOL     OW36865   8.205   7.391  12.979
45009SOL    HW136866   8.287   7.383  12.931
45009SOL    HW236867   8.138   7.368  12.915
45010SOL     OW36868  10.951   4.460  12.477
45010SOL    HW136869  10.921   4.540  12.520
45010SOL    HW236870  10.893   4.392  12.511
45011SOL     OW36871   6.412  12.478   6.931
45011SOL    HW136872   6.395  12.446   7.019
45011SOL    HW236873   6.472  12.413   6.894
45012SOL     OW36874   4.394  14.548   1.226
45012SOL    HW136875   4.354  14.504   1.301
45012SOL    HW236876   4.359  14.502   1.150
45013SOL     OW36877   8.053  14.605   6.780
45013SOL    HW136878   8.039  14.518   6.741
45013SOL    HW236879   8.016  14.598   6.868
45014SOL     OW36880   8.412   4.086   2.470
45014SOL    HW136881   8.355   4.036   2.411
45014SOL    HW236882   8.429   4.167   2.422
45015SOL     OW36883   6.839   5.307   1.182
45015SOL    HW136884   6.878   5.375   1.127
45015SOL    HW236885   6.760   5.280   1.135
45016SOL     OW36886   1.045   7.257   0.971
45016SOL    HW136887   1.121   7.286   1.023
45016SOL    HW236888   0.979   7.233   1.036
45017SOL     OW36889  13.887   7.316   3.814
45017SOL    HW136890  13.973   7.276   3.824
45017SOL    HW236891  13.898   7.405   3.846
45018SOL     OW36892  14.870   7.577   4.707
45018SOL    HW136893  14.784   7.615   4.686
45018SOL    HW236894   0.037   7.643   4.761
45019SOL     OW36895   1.051   4.555   0.707
45019SOL    HW136896   1.036   4.487   0.642
45019SOL    HW236897   1.066   4.635   0.656
45020SOL     OW36898   6.897   9.660  14.456
45020SOL    HW136899   6.887   9.685  14.364
45020SOL    HW236900   6.849   9.577  14.463
45021SOL     OW36901   4.401   6.232   1.691
45021SOL    HW136902   4.342   6.157   1.688
45021SOL    HW236903   4.409   6.259   1.599
45022SOL     OW36904   6.046   3.095   9.580
45022SOL    HW136905   6.108   3.081   9.508
45022SOL    HW236906   5.961   3.071   9.543
45023SOL     OW36907  11.525   3.554  13.334
45023SOL    HW136908  11.446   3.539  13.387
45023SOL    HW236909  11.597   3.547  13.396
45024SOL     OW36910   2.750   7.185   6.106
45024SOL    HW136911   2.782   7.103   6.143
45024SOL    HW236912   2.793   7.192   6.020
45025SOL     OW36913  11.923   4.112   8.635
45025SOL    HW136914  11.851   4.098   8.697
45025SOL    HW236915  12.001   4.117   8.690
45026SOL     OW36916  12.778   5.392   7.190
45026SOL    HW136917  12.834   5.363   7.263
45026SOL    HW236918  12.720   5.318   7.174
45027SOL     OW36919   1.757  14.826  12.996
45027SOL    HW136920   1.783  14.796  13.083
45027SOL    HW236921   1.709   0.031  13.013
45028SOL     OW36922  12.266   1.227  13.320
45028SOL    HW136923  12.282   1.134  13.307
45028SOL    HW236924  12.173   1.239  13.297
45029SOL     OW36925   8.651  11.808   4.843
45029SOL    HW136926   8.676  11.717   4.825
45029SOL    HW236927   8.732  11.850   4.873
45030SOL     OW36928   0.334   0.599   2.993
45030SOL    HW136929   0.336   0.618   3.086
45030SOL    HW236930   0.418   0.558   2.974
45031SOL     OW36931   8.878  11.821  10.345
45031SOL    HW136932   8.861  11.727  10.348
45031SOL    HW236933   8.953  11.833  10.404
45032SOL     OW36934   5.085   3.452   0.862
45032SOL    HW136935   5.112   3.541   0.886
45032SOL    HW236936   4.999   3.463   0.821
45033SOL     OW36937   6.103   3.949  14.032
45033SOL    HW136938   6.132   4.012  13.966
45033SOL    HW236939   6.067   4.003  14.103
45034SOL     OW36940   1.994   7.579   2.589
45034SOL    HW136941   1.978   7.511   2.524
45034SOL    HW236942   2.030   7.652   2.539
45035SOL     OW36943  14.653   1.828  10.279
45035SOL    HW136944  14.703   1.908  10.292
45035SOL    HW236945  14.669   1.804  10.187
45036SOL     OW36946  10.340  11.829   1.053
45036SOL    HW136947  10.392  11.909   1.060
45036SOL    HW236948  10.397  11.760   1.086
45037SOL     OW36949   6.680   3.361  13.151
45037SOL    HW136950   6.700   3.326  13.064
45037SOL    HW236951   6.766   3.377  13.190
45038SOL     OW36952   9.708   6.063  10.961
45038SOL    HW136953   9.791   6.026  10.930
45038SOL    HW236954   9.733   6.120  11.034
45039SOL     OW36955   1.769  12.649   9.125
45039SOL    HW136956   1.703  12.621   9.062
45039SOL    HW236957   1.782  12.573   9.181
45040SOL     OW36958  11.909   9.430   0.734
45040SOL    HW136959  11.878   9.367   0.799
45040SOL    HW236960  11.947   9.377   0.664
45041SOL     OW36961   1.491   9.486  14.131
45041SOL    HW136962   1.472   9.503  14.039
45041SOL    HW236963   1.409   9.453  14.167
45042SOL     OW36964   9.031  12.357  14.064
45042SOL    HW136965   9.059  12.301  13.992
45042SOL    HW236966   8.938  12.373  14.047
45043SOL     OW36967  13.143   8.820  12.295
45043SOL    HW136968  13.226   8.863  12.273
45043SOL    HW236969  13.085   8.843  12.223
45044SOL     OW36970   7.460   7.684  10.022
45044SOL    HW136971   7.468   7.667   9.928
45044SOL    HW236972   7.417   7.769  10.028
45045SOL     OW36973   7.313  11.035  12.547
45045SOL    HW136974   7.243  11.095  12.522
45045SOL    HW236975   7.394  11.086  12.535
45046SOL     OW36976  12.435   8.553  10.768
45046SOL    HW136977  12.480   8.492  10.826
45046SOL    HW236978  12.359   8.582  10.818
45047SOL     OW36979  14.083   0.437   2.668
45047SOL    HW136980  14.038   0.438   2.583
45047SOL    HW236981  14.029   0.381   2.723
45048SOL     OW36982   9.122   7.429   6.206
45048SOL    HW136983   9.186   7.359   6.197
45048SOL    HW236984   9.162   7.492   6.266
45049SOL     OW36985   5.129   6.363   1.819
45049SOL    HW136986   5.069   6.435   1.841
45049SOL    HW236987   5.137   6.367   1.724
45050SOL     OW36988   7.113   2.555   6.280
45050SOL    HW136989   7.064   2.481   6.317
45050SOL    HW236990   7.185   2.569   6.342
45051SOL     OW36991   0.977  13.885   0.715
45051SOL    HW136992   1.026  13.943   0.774
45051SOL    HW236993   0.963  13.806   0.767
45052SOL     OW36994  14.189  12.589   3.377
45052SOL    HW136995  14.263  12.537   3.409
45052SOL    HW236996  14.230  12.667   3.339
45053SOL     OW36997   1.414   8.129   7.699
45053SOL    HW136998   1.508   8.149   7.701
45053SOL    HW236999   1.396   8.088   7.783
45054SOL     OW37000  12.591  12.062   9.358
45054SOL    HW137001  12.524  12.005   9.321
45054SOL    HW237002  12.667  12.050   9.302
45055SOL     OW37003   5.374   1.223  10.973
45055SOL    HW137004   5.289   1.193  10.939
45055SOL    HW237005   5.383   1.312  10.941
45056SOL     OW37006   2.394   7.592   0.613
45056SOL    HW137007   2.403   7.597   0.708
45056SOL    HW237008   2.410   7.500   0.592
45057SOL     OW37009  11.485   6.082   4.328
45057SOL    HW137010  11.528   6.167   4.339
45057SOL    HW237011  11.446   6.085   4.241
45058SOL     OW37012   8.521  13.667   6.050
45058SOL    HW137013   8.477  13.607   6.111
45058SOL    HW237014   8.559  13.735   6.106
45059SOL     OW37015   5.725  14.143   1.094
45059SOL    HW137016   5.650  14.104   1.049
45059SOL    HW237017   5.758  14.074   1.151
45060SOL     OW37018  10.608   6.499   0.746
45060SOL    HW137019  10.587   6.433   0.812
45060SOL    HW237020  10.702   6.487   0.730
45061SOL     OW37021   7.005   7.064  14.587
45061SOL    HW137022   7.100   7.053  14.581
45061SOL    HW237023   6.971   7.012  14.514
45062SOL     OW37024  12.123   6.482   2.401
45062SOL    HW137025  12.090   6.570   2.423
45062SOL    HW237026  12.178   6.495   2.324
45063SOL     OW37027   6.085   0.964  11.525
45063SOL    HW137028   5.994   0.942  11.507
45063SOL    HW237029   6.092   0.962  11.620
45064SOL     OW37030   6.057   4.667  14.001
45064SOL    HW137031   6.139   4.661  14.051
45064SOL    HW237032   5.990   4.687  14.067
45065SOL     OW37033   6.401   4.223  14.757
45065SOL    HW137034   6.330   4.168  14.723
45065SOL    HW237035   6.476   4.165  14.763
45066SOL     OW37036   0.316   9.990  11.321
45066SOL    HW137037   0.235   9.954  11.285
45066SOL    HW237038   0.341   9.928  11.390
45067SOL     OW37039   5.939   5.779   6.982
45067SOL    HW137040   5.899   5.700   6.946
45067SOL    HW237041   5.878   5.810   7.049
45068SOL     OW37042   3.436  13.150  12.321
45068SOL    HW137043   3.405  13.108  12.401
45068SOL    HW237044   3.375  13.222  12.307
45069SOL     OW37045  10.963   5.765   3.504
45069SOL    HW137046  10.970   5.748   3.410
45069SOL    HW237047  10.903   5.698   3.536
45070SOL     OW37048  14.794   1.870   8.840
45070SOL    HW137049  14.736   1.812   8.889
45070SOL    HW237050  14.735   1.938   8.805
45071SOL     OW37051   5.627  10.937  14.112
45071SOL    HW137052   5.701  10.981  14.071
45071SOL    HW237053   5.587  11.004  14.168
45072SOL     OW37054  10.239   9.736   4.587
45072SOL    HW137055  10.178   9.747   4.660
45072SOL    HW237056  10.183   9.717   4.511
45073SOL     OW37057  14.321   6.816   0.274
45073SOL    HW137058  14.253   6.830   0.209
45073SOL    HW237059  14.372   6.897   0.275
45074SOL     OW37060   0.452   2.438   1.951
45074SOL    HW137061   0.538   2.401   1.969
45074SOL    HW237062   0.394   2.400   2.018
45075SOL     OW37063   5.809   1.147  10.039
45075SOL    HW137064   5.736   1.187   9.992
45075SOL    HW237065   5.796   1.174  10.130
45076SOL     OW37066   8.716   7.655   8.177
45076SOL    HW137067   8.714   7.609   8.093
45076SOL    HW237068   8.658   7.731   8.165
45077SOL     OW37069  12.658   1.274  11.807
45077SOL    HW137070  12.688   1.362  11.787
45077SOL    HW237071  12.738   1.225  11.827
45078SOL     OW37072  11.635   0.751   4.185
45078SOL    HW137073  11.639   0.813   4.257
45078SOL    HW237074  11.697   0.682   4.208
45079SOL     OW37075   3.264   0.909   5.384
45079SOL    HW137076   3.307   0.887   5.301
45079SOL    HW237077   3.232   0.998   5.371
45080SOL     OW37078   0.500   0.860   5.562
45080SOL    HW137079   0.434   0.883   5.628
45080SOL    HW237080   0.465   0.895   5.481
45081SOL     OW37081   0.786   0.371   5.009
45081SOL    HW137082   0.708   0.327   4.977
45081SOL    HW237083   0.754   0.454   5.045
45082SOL     OW37084   1.252  14.470  13.838
45082SOL    HW137085   1.158  14.481  13.854
45082SOL    HW237086   1.292  14.548  13.877
45083SOL     OW37087   0.518   5.278   0.975
45083SOL    HW137088   0.563   5.338   0.915
45083SOL    HW237089   0.589   5.235   1.023
45084SOL     OW37090   8.629   7.154   3.035
45084SOL    HW137091   8.596   7.225   2.981
45084SOL    HW237092   8.590   7.075   2.997
45085SOL     OW37093   4.128   7.884   9.720
45085SOL    HW137094   4.125   7.823   9.647
45085SOL    HW237095   4.055   7.944   9.705
45086SOL     OW37096   0.486   4.322   5.258
45086SOL    HW137097   0.542   4.334   5.335
45086SOL    HW237098   0.464   4.410   5.230
45087SOL     OW37099   4.213  14.514   6.131
45087SOL    HW137100   4.190  14.538   6.220
45087SOL    HW237101   4.130  14.512   6.084
45088SOL     OW37102   4.900   6.659  13.167
45088SOL    HW137103   4.935   6.745  13.144
45088SOL    HW237104   4.884   6.617  13.082
45089SOL     OW37105  14.113  11.758  10.521
45089SOL    HW137106  14.181  11.691  10.513
45089SOL    HW237107  14.152  11.824  10.578
45090SOL     OW37108   8.307  11.712  14.285
45090SOL    HW137109   8.332  11.647  14.218
45090SOL    HW237110   8.370  11.698  14.356
45091SOL     OW37111  14.739  14.751  13.786
45091SOL    HW137112  14.656  14.708  13.805
45091SOL    HW237113  14.717  14.844  13.779
45092SOL     OW37114   3.476   7.787   5.905
45092SOL    HW137115   3.524   7.775   5.987
45092SOL    HW237116   3.436   7.873   5.913
45093SOL     OW37117   7.977  10.798  11.510
45093SOL    HW137118   8.054  10.760  11.467
45093SOL    HW237119   7.957  10.737  11.581
45094SOL     OW37120   8.660  13.314   9.874
45094SOL    HW137121   8.672  13.221   9.893
45094SOL    HW237122   8.626  13.351   9.955
45095SOL     OW37123  10.963  13.811   7.734
45095SOL    HW137124  11.024  13.845   7.800
45095SOL    HW237125  11.014  13.809   7.653
45096SOL     OW37126   0.018  12.694   6.816
45096SOL    HW137127   0.101  12.697   6.864
45096SOL    HW237128  14.838  12.637   6.869
45097SOL     OW37129  10.722   0.523   8.516
45097SOL    HW137130  10.668   0.485   8.446
45097SOL    HW237131  10.690   0.481   8.595
45098SOL     OW37132   0.494  12.419  13.505
45098SOL    HW137133   0.567  12.421  13.567
45098SOL    HW237134   0.525  12.365  13.432
45099SOL     OW37135  10.546  12.558   4.513
45099SOL    HW137136  10.581  12.493   4.451
45099SOL    HW237137  10.515  12.630   4.457
45100SOL     OW37138  11.477   8.566  13.093
45100SOL    HW137139  11.488   8.606  13.006
45100SOL    HW237140  11.442   8.479  13.075
45101SOL     OW37141  13.137   1.006   5.844
45101SOL    HW137142  13.109   1.081   5.792
45101SOL    HW237143  13.063   0.986   5.900
45102SOL     OW37144   7.739   6.254   4.622
45102SOL    HW137145   7.811   6.304   4.584
45102SOL    HW237146   7.660   6.290   4.581
45103SOL     OW37147   6.489   1.962  10.857
45103SOL    HW137148   6.466   2.029  10.922
45103SOL    HW237149   6.408   1.949  10.807
45104SOL     OW37150   1.306   4.904  12.838
45104SOL    HW137151   1.281   4.932  12.926
45104SOL    HW237152   1.369   4.833  12.852
45105SOL     OW37153  13.518  14.716  13.405
45105SOL    HW137154  13.541  14.803  13.438
45105SOL    HW237155  13.528  14.658  13.480
45106SOL     OW37156   1.634   6.821  13.169
45106SOL    HW137157   1.591   6.736  13.166
45106SOL    HW237158   1.585   6.875  13.107
45107SOL     OW37159  13.678   4.814   0.873
45107SOL    HW137160  13.656   4.846   0.960
45107SOL    HW237161  13.769   4.788   0.878
45108SOL     OW37162  13.743   3.169   9.187
45108SOL    HW137163  13.703   3.192   9.103
45108SOL    HW237164  13.816   3.112   9.164
45109SOL     OW37165  12.408   4.701   2.679
45109SOL    HW137166  12.448   4.787   2.663
45109SOL    HW237167  12.414   4.656   2.594
45110SOL     OW37168   7.721  12.891  11.082
45110SOL    HW137169   7.661  12.819  11.062
45110SOL    HW237170   7.710  12.906  11.176
45111SOL     OW37171  14.705  13.156   1.562
45111SOL    HW137172  14.775  13.131   1.501
45111SOL    HW237173  14.740  13.133   1.649
45112SOL     OW37174   6.182  14.567   8.459
45112SOL    HW137175   6.097  14.551   8.420
45112SOL    HW237176   6.213  14.647   8.416
45113SOL     OW37177  13.610   5.798   7.143
45113SOL    HW137178  13.528   5.749   7.137
45113SOL    HW237179  13.630   5.800   7.237
45114SOL     OW37180   1.460   2.581  14.208
45114SOL    HW137181   1.368   2.590  14.183
45114SOL    HW237182   1.492   2.671  14.211
45115SOL     OW37183   6.807  13.102  14.707
45115SOL    HW137184   6.827  13.025  14.653
45115SOL    HW237185   6.760  13.067  14.783
45116SOL     OW37186  10.754  12.087   2.041
45116SOL    HW137187  10.817  12.151   2.074
45116SOL    HW237188  10.689  12.139   1.994
45117SOL     OW37189   7.919  12.422   5.896
45117SOL    HW137190   7.928  12.455   5.985
45117SOL    HW237191   7.857  12.349   5.905
45118SOL     OW37192   5.451  14.163   7.235
45118SOL    HW137193   5.488  14.187   7.321
45118SOL    HW237194   5.362  14.198   7.237
45119SOL     OW37195  14.601   9.196   3.651
45119SOL    HW137196  14.592   9.238   3.565
45119SOL    HW237197  14.584   9.266   3.714
45120SOL     OW37198   0.547   3.995   4.075
45120SOL    HW137199   0.520   3.965   3.989
45120SOL    HW237200   0.627   3.946   4.094
45121SOL     OW37201   3.430  10.635   0.734
45121SOL    HW137202   3.496  10.600   0.675
45121SOL    HW237203   3.374  10.689   0.679
45122SOL     OW37204   3.214   5.327   4.193
45122SOL    HW137205   3.195   5.421   4.198
45122SOL    HW237206   3.294   5.317   4.244
45123SOL     OW37207   0.919   8.477   6.973
45123SOL    HW137208   0.906   8.564   7.011
45123SOL    HW237209   0.959   8.426   7.043
45124SOL     OW37210   7.626   7.139  13.008
45124SOL    HW137211   7.648   7.064  13.062
45124SOL    HW237212   7.537   7.122  12.976
45125SOL     OW37213   9.938   1.825   6.743
45125SOL    HW137214   9.884   1.745   6.743
45125SOL    HW237215   9.988   1.820   6.661
45126SOL     OW37216   8.124   5.033   6.914
45126SOL    HW137217   8.206   4.991   6.941
45126SOL    HW237218   8.083   5.061   6.996
45127SOL     OW37219   1.842   2.032   8.466
45127SOL    HW137220   1.901   1.999   8.534
45127SOL    HW237221   1.900   2.051   8.392
45128SOL     OW37222   2.523   9.930   1.029
45128SOL    HW137223   2.460   9.858   1.031
45128SOL    HW237224   2.606   9.890   1.056
45129SOL     OW37225   1.941  10.020  13.172
45129SOL    HW137226   2.005  10.004  13.241
45129SOL    HW237227   1.960   9.954  13.106
45130SOL     OW37228  11.048   9.601   5.401
45130SOL    HW137229  11.106   9.646   5.463
45130SOL    HW237230  11.030   9.517   5.443
45131SOL     OW37231   1.898  10.707  12.772
45131SOL    HW137232   1.824  10.720  12.831
45131SOL    HW237233   1.858  10.675  12.691
45132SOL     OW37234  11.841   9.917   1.605
45132SOL    HW137235  11.749   9.937   1.592
45132SOL    HW237236  11.852   9.909   1.699
45133SOL     OW37237   1.398  13.361  12.860
45133SOL    HW137238   1.307  13.329  12.863
45133SOL    HW237239   1.447  13.298  12.913
45134SOL     OW37240   8.146  13.907  11.308
45134SOL    HW137241   8.100  13.908  11.224
45134SOL    HW237242   8.203  13.984  11.305
45135SOL     OW37243  13.077   1.058   3.703
45135SOL    HW137244  13.122   1.122   3.647
45135SOL    HW237245  13.020   1.010   3.643
45136SOL     OW37246   7.967   9.999  11.480
45136SOL    HW137247   7.961   9.909  11.450
45136SOL    HW237248   7.944   9.995  11.573
45137SOL     OW37249   2.820   3.161   5.170
45137SOL    HW137250   2.873   3.101   5.222
45137SOL    HW237251   2.733   3.157   5.209
45138SOL     OW37252   2.891   6.767   2.761
45138SOL    HW137253   2.819   6.831   2.762
45138SOL    HW237254   2.900   6.740   2.852
45139SOL     OW37255  12.258   2.238  11.333
45139SOL    HW137256  12.286   2.149  11.312
45139SOL    HW237257  12.200   2.263  11.260
45140SOL     OW37258   8.448   8.724   5.682
45140SOL    HW137259   8.542   8.742   5.677
45140SOL    HW237260   8.436   8.648   5.626
45141SOL     OW37261   1.057   8.937   9.154
45141SOL    HW137262   1.031   9.001   9.087
45141SOL    HW237263   1.034   8.980   9.237
45142SOL     OW37264   7.156  11.370   9.841
45142SOL    HW137265   7.075  11.384   9.890
45142SOL    HW237266   7.161  11.444   9.781
45143SOL     OW37267   0.299   9.291   9.079
45143SOL    HW137268   0.299   9.302   8.983
45143SOL    HW237269   0.389   9.268   9.100
45144SOL     OW37270   1.331   0.477   7.168
45144SOL    HW137271   1.410   0.488   7.222
45144SOL    HW237272   1.362   0.488   7.078
45145SOL     OW37273   8.420   8.495   3.433
45145SOL    HW137274   8.374   8.496   3.517
45145SOL    HW237275   8.512   8.487   3.455
45146SOL     OW37276  13.683   0.679  10.181
45146SOL    HW137277  13.730   0.760  10.162
45146SOL    HW237278  13.647   0.651  10.096
45147SOL     OW37279   6.649   7.741   6.424
45147SOL    HW137280   6.576   7.758   6.483
45147SOL    HW237281   6.645   7.647   6.407
45148SOL     OW37282   2.440   3.017  13.241
45148SOL    HW137283   2.358   3.063  13.254
45148SOL    HW237284   2.471   2.996  13.329
45149SOL     OW37285   0.322  10.093   5.545
45149SOL    HW137286   0.359  10.037   5.613
45149SOL    HW237287   0.298  10.173   5.592
45150SOL     OW37288   8.041   4.415   5.050
45150SOL    HW137289   7.965   4.443   4.999
45150SOL    HW237290   8.008   4.406   5.140
45151SOL     OW37291  10.664  11.620   0.604
45151SOL    HW137292  10.754  11.592   0.621
45151SOL    HW237293  10.622  11.543   0.564
45152SOL     OW37294   6.709   4.344   4.253
45152SOL    HW137295   6.794   4.351   4.296
45152SOL    HW237296   6.697   4.428   4.209
45153SOL     OW37297   5.869   6.038   6.335
45153SOL    HW137298   5.834   6.080   6.413
45153SOL    HW237299   5.791   6.012   6.285
45154SOL     OW37300  11.242   5.001   1.607
45154SOL    HW137301  11.211   5.010   1.697
45154SOL    HW237302  11.326   5.047   1.605
45155SOL     OW37303   6.820   5.304  11.686
45155SOL    HW137304   6.786   5.229  11.636
45155SOL    HW237305   6.844   5.368  11.619
45156SOL     OW37306  10.756   4.391   2.775
45156SOL    HW137307  10.809   4.411   2.698
45156SOL    HW237308  10.733   4.298   2.765
45157SOL     OW37309   3.509   6.982   0.137
45157SOL    HW137310   3.430   6.948   0.097
45157SOL    HW237311   3.478   7.046   0.202
45158SOL     OW37312   5.787   9.683   8.902
45158SOL    HW137313   5.719   9.618   8.921
45158SOL    HW237314   5.849   9.636   8.845
45159SOL     OW37315   3.490   3.058   3.653
45159SOL    HW137316   3.432   3.125   3.615
45159SOL    HW237317   3.436   3.017   3.721
45160SOL     OW37318  10.891  13.111  10.429
45160SOL    HW137319  10.942  13.157  10.362
45160SOL    HW237320  10.857  13.034  10.385
45161SOL     OW37321  14.817  10.182  10.950
45161SOL    HW137322  14.853  10.124  11.017
45161SOL    HW237323   0.017  10.231  10.917
45162SOL     OW37324   1.162  11.382   9.970
45162SOL    HW137325   1.233  11.346   9.917
45162SOL    HW237326   1.085  11.376   9.913
45163SOL     OW37327  11.627  11.104   1.072
45163SOL    HW137328  11.654  11.054   1.149
45163SOL    HW237329  11.613  11.038   1.004
45164SOL     OW37330   0.808   9.754   4.705
45164SOL    HW137331   0.835   9.681   4.649
45164SOL    HW237332   0.726   9.725   4.745
45165SOL     OW37333   1.786  12.257   0.767
45165SOL    HW137334   1.848  12.279   0.697
45165SOL    HW237335   1.835  12.268   0.848
45166SOL     OW37336  10.207  12.585  10.449
45166SOL    HW137337  10.175  12.644  10.516
45166SOL    HW237338  10.301  12.600  10.446
45167SOL     OW37339  12.149  13.614   3.847
45167SOL    HW137340  12.219  13.675   3.824
45167SOL    HW237341  12.096  13.662   3.911
45168SOL     OW37342  13.288   0.972   6.483
45168SOL    HW137343  13.244   0.929   6.409
45168SOL    HW237344  13.269   0.916   6.558
45169SOL     OW37345   4.616  11.956   6.979
45169SOL    HW137346   4.669  11.897   6.926
45169SOL    HW237347   4.566  12.007   6.916
45170SOL     OW37348   9.742   7.608   7.431
45170SOL    HW137349   9.792   7.671   7.484
45170SOL    HW237350   9.808   7.550   7.394
45171SOL     OW37351   1.312  14.050   9.647
45171SOL    HW137352   1.223  14.035   9.617
45171SOL    HW237353   1.348  14.114   9.585
45172SOL     OW37354   0.212   2.147  14.028
45172SOL    HW137355   0.135   2.178  14.076
45172SOL    HW237356   0.203   2.186  13.941
45173SOL     OW37357   0.031   4.625  14.521
45173SOL    HW137358   0.049   4.656  14.432
45173SOL    HW237359   0.056   4.533  14.520
45174SOL     OW37360  10.353   1.665   7.637
45174SOL    HW137361  10.384   1.631   7.721
45174SOL    HW237362  10.373   1.595   7.575
45175SOL     OW37363  14.853  13.649   8.276
45175SOL    HW137364   0.038  13.637   8.349
45175SOL    HW237365  14.778  13.595   8.299
45176SOL     OW37366  10.506   7.284   8.150
45176SOL    HW137367  10.572   7.224   8.114
45176SOL    HW237368  10.504   7.263   8.244
45177SOL     OW37369   2.284  10.871   1.583
45177SOL    HW137370   2.311  10.959   1.610
45177SOL    HW237371   2.344  10.813   1.630
45178SOL     OW37372   9.514   8.954   2.948
45178SOL    HW137373   9.419   8.945   2.953
45178SOL    HW237374   9.530   9.048   2.953
45179SOL     OW37375   6.648   2.593   2.932
45179SOL    HW137376   6.632   2.587   3.026
45179SOL    HW237377   6.612   2.678   2.907
45180SOL     OW37378   2.649   8.090   7.754
45180SOL    HW137379   2.686   8.153   7.816
45180SOL    HW237380   2.723   8.065   7.698
45181SOL     OW37381   2.949   7.600   8.188
45181SOL    HW137382   2.951   7.508   8.213
45181SOL    HW237383   2.857   7.619   8.173
45182SOL     OW37384   4.061  10.246   9.495
45182SOL    HW137385   4.101  10.159   9.489
45182SOL    HW237386   3.994  10.237   9.563
45183SOL     OW37387  10.149   7.501   7.868
45183SOL    HW137388  10.224   7.537   7.821
45183SOL    HW237389  10.187   7.447   7.938
45184SOL     OW37390  14.242  11.051   3.031
45184SOL    HW137391  14.289  11.133   3.045
45184SOL    HW237392  14.226  11.048   2.937
45185SOL     OW37393   8.005  13.227   8.068
45185SOL    HW137394   8.043  13.279   8.138
45185SOL    HW237395   7.914  13.254   8.065
45186SOL     OW37396  13.812   2.166   6.192
45186SOL    HW137397  13.842   2.217   6.267
45186SOL    HW237398  13.725   2.136   6.216
45187SOL     OW37399   2.658  12.906   5.719
45187SOL    HW137400   2.688  12.815   5.713
45187SOL    HW237401   2.603  12.907   5.798
45188SOL     OW37402   4.046  14.322   0.071
45188SOL    HW137403   4.029  14.380   0.145
45188SOL    HW237404   3.960  14.308   0.031
45189SOL     OW37405   0.376   2.557  11.807
45189SOL    HW137406   0.320   2.632  11.822
45189SOL    HW237407   0.328   2.483  11.844
45190SOL     OW37408   5.062  10.559   4.343
45190SOL    HW137409   5.139  10.615   4.348
45190SOL    HW237410   5.079  10.501   4.269
45191SOL     OW37411   1.316   1.542  12.792
45191SOL    HW137412   1.286   1.459  12.755
45191SOL    HW237413   1.411   1.532  12.800
45192SOL     OW37414   8.646   9.991  13.760
45192SOL    HW137415   8.598  10.060  13.715
45192SOL    HW237416   8.584   9.954  13.822
45193SOL     OW37417   2.424   7.305  13.731
45193SOL    HW137418   2.492   7.328  13.667
45193SOL    HW237419   2.376   7.386  13.745
45194SOL     OW37420   1.496  12.825   9.870
45194SOL    HW137421   1.544  12.869   9.941
45194SOL    HW237422   1.547  12.843   9.791
45195SOL     OW37423   6.609  13.949   9.285
45195SOL    HW137424   6.613  14.043   9.300
45195SOL    HW237425   6.524  13.922   9.321
45196SOL     OW37426   7.403   3.045  11.731
45196SOL    HW137427   7.363   3.121  11.774
45196SOL    HW237428   7.444   2.996  11.803
45197SOL     OW37429  11.427   8.919   4.686
45197SOL    HW137430  11.513   8.923   4.728
45197SOL    HW237431  11.440   8.863   4.610
45198SOL     OW37432   2.453  14.431   9.141
45198SOL    HW137433   2.464  14.477   9.058
45198SOL    HW237434   2.425  14.343   9.116
45199SOL     OW37435  12.060   6.159  11.620
45199SOL    HW137436  12.012   6.208  11.687
45199SOL    HW237437  12.120   6.103  11.668
45200SOL     OW37438  11.974   4.566   9.918
45200SOL    HW137439  11.952   4.636   9.856
45200SOL    HW237440  12.063   4.539   9.893
45201SOL     OW37441  11.686  10.729   2.926
45201SOL    HW137442  11.715  10.796   2.988
45201SOL    HW237443  11.612  10.686   2.968
45202SOL     OW37444  12.950  12.514   6.126
45202SOL    HW137445  12.889  12.489   6.196
45202SOL    HW237446  12.996  12.433   6.105
45203SOL     OW37447   5.861  14.778   9.744
45203SOL    HW137448   5.832  14.756   9.655
45203SOL    HW237449   5.944  14.823   9.732
45204SOL     OW37450  13.711  14.434   4.694
45204SOL    HW137451  13.680  14.378   4.622
45204SOL    HW237452  13.716  14.522   4.655
45205SOL     OW37453   5.472  10.958   9.978
45205SOL    HW137454   5.394  10.998   9.940
45205SOL    HW237455   5.440  10.885  10.030
45206SOL     OW37456   1.958  10.500   0.702
45206SOL    HW137457   1.872  10.460   0.691
45206SOL    HW237458   1.964  10.519   0.796
45207SOL     OW37459   0.207   2.160   5.133
45207SOL    HW137460   0.213   2.217   5.210
45207SOL    HW237461   0.196   2.220   5.060
45208SOL     OW37462   6.220   4.171   4.234
45208SOL    HW137463   6.304   4.205   4.263
45208SOL    HW237464   6.163   4.248   4.228
45209SOL     OW37465   2.251   2.013   7.034
45209SOL    HW137466   2.346   2.020   7.026
45209SOL    HW237467   2.228   1.939   6.978
45210SOL     OW37468  11.919   6.363   4.060
45210SOL    HW137469  11.961   6.388   3.978
45210SOL    HW237470  11.872   6.441   4.088
45211SOL     OW37471   2.740   6.411   6.959
45211SOL    HW137472   2.697   6.348   6.901
45211SOL    HW237473   2.833   6.405   6.936
45212SOL     OW37474   9.098   5.841   5.978
45212SOL    HW137475   9.043   5.918   5.964
45212SOL    HW237476   9.076   5.782   5.906
45213SOL     OW37477   5.844   8.708   2.726
45213SOL    HW137478   5.803   8.627   2.696
45213SOL    HW237479   5.787   8.738   2.797
45214SOL     OW37480  13.254  11.627  13.902
45214SOL    HW137481  13.186  11.611  13.837
45214SOL    HW237482  13.245  11.556  13.965
45215SOL     OW37483  12.432  10.138   9.567
45215SOL    HW137484  12.491  10.075   9.525
45215SOL    HW237485  12.489  10.187   9.627
45216SOL     OW37486   3.827  13.156  12.657
45216SOL    HW137487   3.772  13.232  12.640
45216SOL    HW237488   3.874  13.179  12.738
45217SOL     OW37489   9.652  10.372   4.444
45217SOL    HW137490   9.695  10.432   4.505
45217SOL    HW237491   9.667  10.285   4.481
45218SOL     OW37492  11.778  14.204  12.972
45218SOL    HW137493  11.847  14.142  12.993
45218SOL    HW237494  11.714  14.194  13.043
45219SOL     OW37495   0.420   4.978   9.118
45219SOL    HW137496   0.336   4.946   9.150
45219SOL    HW237497   0.482   4.956   9.188
45220SOL     OW37498  13.075  14.715   4.219
45220SOL    HW137499  13.100  14.622   4.219
45220SOL    HW237500  13.051  14.733   4.129
45221SOL     OW37501  13.029  12.596  12.650
45221SOL    HW137502  13.069  12.509  12.646
45221SOL    HW237503  13.087  12.646  12.708
45222SOL     OW37504   0.346   0.006   8.848
45222SOL    HW137505   0.273   0.062   8.876
45222SOL    HW237506   0.391  14.859   8.930
45223SOL     OW37507  14.317   2.572  13.064
45223SOL    HW137508  14.394   2.604  13.112
45223SOL    HW237509  14.342   2.485  13.034
45224SOL     OW37510  11.806   0.581   2.911
45224SOL    HW137511  11.711   0.586   2.905
45224SOL    HW237512  11.837   0.585   2.820
45225SOL     OW37513   6.321   2.489  14.435
45225SOL    HW137514   6.229   2.463  14.435
45225SOL    HW237515   6.347   2.482  14.343
45226SOL     OW37516   1.605   3.301  13.521
45226SOL    HW137517   1.604   3.393  13.495
45226SOL    HW237518   1.590   3.304  13.616
45227SOL     OW37519  12.267   0.436  12.150
45227SOL    HW137520  12.321   0.461  12.075
45227SOL    HW237521  12.297   0.492  12.221
45228SOL     OW37522   1.338   5.723   2.987
45228SOL    HW137523   1.370   5.751   2.901
45228SOL    HW237524   1.384   5.780   3.049
45229SOL     OW37525   4.350  11.959   5.474
45229SOL    HW137526   4.259  11.986   5.464
45229SOL    HW237527   4.398  12.041   5.489
45230SOL     OW37528  13.175   4.585  12.230
45230SOL    HW137529  13.218   4.519  12.284
45230SOL    HW237530  13.246   4.626  12.180
45231SOL     OW37531   0.892   5.452  13.479
45231SOL    HW137532   0.821   5.388  13.470
45231SOL    HW237533   0.879   5.513  13.406
45232SOL     OW37534   1.848   0.848   5.365
45232SOL    HW137535   1.817   0.805   5.286
45232SOL    HW237536   1.944   0.842   5.359
45233SOL     OW37537  11.279   8.710  12.061
45233SOL    HW137538  11.242   8.631  12.023
45233SOL    HW237539  11.204   8.767  12.075
45234SOL     OW37540   5.783   3.380   8.839
45234SOL    HW137541   5.797   3.461   8.789
45234SOL    HW237542   5.819   3.311   8.784
45235SOL     OW37543   9.567   1.278  10.705
45235SOL    HW137544   9.493   1.338  10.710
45235SOL    HW237545   9.535   1.206  10.649
45236SOL     OW37546   5.321   2.645   6.014
45236SOL    HW137547   5.356   2.562   5.983
45236SOL    HW237548   5.233   2.623   6.044
45237SOL     OW37549   9.331   3.886   1.262
45237SOL    HW137550   9.284   3.939   1.197
45237SOL    HW237551   9.268   3.819   1.288
45238SOL     OW37552  12.376   3.814   5.172
45238SOL    HW137553  12.308   3.857   5.224
45238SOL    HW237554  12.412   3.748   5.231
45239SOL     OW37555  13.745  13.345   1.176
45239SOL    HW137556  13.763  13.364   1.268
45239SOL    HW237557  13.732  13.250   1.174
45240SOL     OW37558  13.246   5.143   4.823
45240SOL    HW137559  13.177   5.077   4.819
45240SOL    HW237560  13.320   5.097   4.863
45241SOL     OW37561   6.257   0.878   6.313
45241SOL    HW137562   6.231   0.835   6.395
45241SOL    HW237563   6.200   0.954   6.306
45242SOL     OW37564   9.899   5.162   4.217
45242SOL    HW137565   9.835   5.098   4.249
45242SOL    HW237566   9.846   5.234   4.182
45243SOL     OW37567   3.125   7.902  14.669
45243SOL    HW137568   3.209   7.917  14.712
45243SOL    HW237569   3.139   7.929  14.578
45244SOL     OW37570   7.915  11.804   9.587
45244SOL    HW137571   7.973  11.777   9.658
45244SOL    HW237572   7.884  11.891   9.613
45245SOL     OW37573   9.234   2.259   1.468
45245SOL    HW137574   9.274   2.346   1.463
45245SOL    HW237575   9.145   2.272   1.434
45246SOL     OW37576   4.051   4.178   7.322
45246SOL    HW137577   4.066   4.170   7.228
45246SOL    HW237578   3.970   4.229   7.329
45247SOL     OW37579   5.957   1.851   1.677
45247SOL    HW137580   6.016   1.776   1.683
45247SOL    HW237581   6.013   1.923   1.647
45248SOL     OW37582   8.712   5.388   3.068
45248SOL    HW137583   8.659   5.311   3.090
45248SOL    HW237584   8.719   5.437   3.150
45249SOL     OW37585  12.598   3.200   5.837
45249SOL    HW137586  12.599   3.174   5.929
45249SOL    HW237587  12.538   3.139   5.795
45250SOL     OW37588  10.750  13.435   4.205
45250SOL    HW137589  10.836  13.399   4.180
45250SOL    HW237590  10.693  13.358   4.212
45251SOL     OW37591   7.037   0.124  13.598
45251SOL    HW137592   7.032   0.066  13.522
45251SOL    HW237593   6.998   0.206  13.568
45252SOL     OW37594   1.899   7.627   7.489
45252SOL    HW137595   1.993   7.614   7.476
45252SOL    HW237596   1.894   7.693   7.558
45253SOL     OW37597   0.066  12.658   9.908
45253SOL    HW137598   0.079  12.740   9.955
45253SOL    HW237599   0.119  12.667   9.829
45254SOL     OW37600  12.059   3.196  13.491
45254SOL    HW137601  12.088   3.269  13.545
45254SOL    HW237602  12.139   3.150  13.466
45255SOL     OW37603   4.056   2.123   0.072
45255SOL    HW137604   4.106   2.088   0.145
45255SOL    HW237605   4.119   2.127  14.876
45256SOL     OW37606   7.166   0.109   6.403
45256SOL    HW137607   7.086   0.145   6.364
45256SOL    HW237608   7.148   0.015   6.411
45257SOL     OW37609   8.142   4.375   8.771
45257SOL    HW137610   8.143   4.346   8.862
45257SOL    HW237611   8.194   4.309   8.724
45258SOL     OW37612   4.997   7.180   7.734
45258SOL    HW137613   5.059   7.108   7.724
45258SOL    HW237614   4.924   7.143   7.784
45259SOL     OW37615   0.184  12.781  10.955
45259SOL    HW137616   0.148  12.776  11.044
45259SOL    HW237617   0.107  12.784  10.899
45260SOL     OW37618   7.223   7.957   5.083
45260SOL    HW137619   7.200   7.932   4.994
45260SOL    HW237620   7.145   8.002   5.116
45261SOL     OW37621   0.928  13.696  12.323
45261SOL    HW137622   0.994  13.763  12.307
45261SOL    HW237623   0.860  13.740  12.374
45262SOL     OW37624  14.233   2.832  13.857
45262SOL    HW137625  14.139   2.852  13.863
45262SOL    HW237626  14.264   2.887  13.785
45263SOL     OW37627  10.303   3.010   8.296
45263SOL    HW137628  10.276   3.100   8.311
45263SOL    HW237629  10.381   2.999   8.350
45264SOL     OW37630   5.991   9.224   8.149
45264SOL    HW137631   6.030   9.144   8.114
45264SOL    HW237632   5.914   9.193   8.197
45265SOL     OW37633   7.869  12.751   7.804
45265SOL    HW137634   7.878  12.823   7.867
45265SOL    HW237635   7.836  12.678   7.856
45266SOL     OW37636   9.128   1.887   8.323
45266SOL    HW137637   9.126   1.870   8.418
45266SOL    HW237638   9.039   1.912   8.301
45267SOL     OW37639   0.172   4.954   9.212
45267SOL    HW137640   0.087   4.945   9.169
45267SOL    HW237641   0.155   5.008   9.289
45268SOL     OW37642  14.807   4.138   6.045
45268SOL    HW137643  14.736   4.196   6.074
45268SOL    HW237644  14.853   4.189   5.979
45269SOL     OW37645   0.022   7.270   8.195
45269SOL    HW137646   0.035   7.281   8.101
45269SOL    HW237647   0.092   7.320   8.236
45270SOL     OW37648   1.079   5.153   3.639
45270SOL    HW137649   1.115   5.140   3.551
45270SOL    HW237650   1.076   5.065   3.677
45271SOL     OW37651   2.317   0.858  13.391
45271SOL    HW137652   2.276   0.922  13.449
45271SOL    HW237653   2.277   0.874  13.306
45272SOL     OW37654   4.233   0.659  12.751
45272SOL    HW137655   4.196   0.591  12.807
45272SOL    HW237656   4.259   0.613  12.671
45273SOL     OW37657   2.051   7.429   9.979
45273SOL    HW137658   2.090   7.511  10.008
45273SOL    HW237659   2.124   7.380   9.941
45274SOL     OW37660   4.286   9.516   5.567
45274SOL    HW137661   4.323   9.438   5.608
45274SOL    HW237662   4.332   9.522   5.483
45275SOL     OW37663   5.612   4.463   1.292
45275SOL    HW137664   5.624   4.558   1.300
45275SOL    HW237665   5.678   4.425   1.350
45276SOL     OW37666  10.256   7.377  10.220
45276SOL    HW137667  10.238   7.418  10.304
45276SOL    HW237668  10.234   7.444  10.155
45277SOL     OW37669  14.725   3.673   7.344
45277SOL    HW137670  14.681   3.591   7.325
45277SOL    HW237671  14.812   3.663   7.305
45278SOL     OW37672   4.558  14.167  14.342
45278SOL    HW137673   4.616  14.228  14.386
45278SOL    HW237674   4.471  14.189  14.374
45279SOL     OW37675   7.061  14.178  13.508
45279SOL    HW137676   7.142  14.132  13.534
45279SOL    HW237677   7.010  14.183  13.589
45280SOL     OW37678   5.931   3.516   1.247
45280SOL    HW137679   5.983   3.472   1.315
45280SOL    HW237680   5.992   3.527   1.174
45281SOL     OW37681  10.274   0.644  12.599
45281SOL    HW137682  10.312   0.584  12.534
45281SOL    HW237683  10.343   0.709  12.613
45282SOL     OW37684   1.898   7.405   5.685
45282SOL    HW137685   1.953   7.442   5.617
45282SOL    HW237686   1.809   7.416   5.652
45283SOL     OW37687   3.367  12.112   2.880
45283SOL    HW137688   3.405  12.068   2.805
45283SOL    HW237689   3.343  12.041   2.940
45284SOL     OW37690   9.953   1.161   8.161
45284SOL    HW137691   9.940   1.219   8.237
45284SOL    HW237692  10.000   1.086   8.196
45285SOL     OW37693  11.575   0.485  13.773
45285SOL    HW137694  11.598   0.437  13.693
45285SOL    HW237695  11.494   0.444  13.803
45286SOL     OW37696   9.110   2.075  10.728
45286SOL    HW137697   9.107   2.015  10.803
45286SOL    HW237698   9.019   2.081  10.699
45287SOL     OW37699  12.615   2.232   1.435
45287SOL    HW137700  12.630   2.306   1.377
45287SOL    HW237701  12.598   2.271   1.521
45288SOL     OW37702   9.313   9.342  11.637
45288SOL    HW137703   9.253   9.290  11.690
45288SOL    HW237704   9.383   9.281  11.612
45289SOL     OW37705  13.166  11.398   9.278
45289SOL    HW137706  13.150  11.341   9.354
45289SOL    HW237707  13.243  11.359   9.235
45290SOL     OW37708   9.303   9.348  12.380
45290SOL    HW137709   9.324   9.260  12.349
45290SOL    HW237710   9.325   9.347  12.473
45291SOL     OW37711  11.206   0.153   4.408
45291SOL    HW137712  11.144   0.126   4.340
45291SOL    HW237713  11.202   0.249   4.407
45292SOL     OW37714   1.191   2.121   9.372
45292SOL    HW137715   1.150   2.050   9.420
45292SOL    HW237716   1.234   2.079   9.298
45293SOL     OW37717   0.960   7.598   9.885
45293SOL    HW137718   0.925   7.567   9.801
45293SOL    HW237719   0.970   7.519   9.938
45294SOL     OW37720  10.731  13.869   9.335
45294SOL    HW137721  10.679  13.790   9.318
45294SOL    HW237722  10.757  13.861   9.426
45295SOL     OW37723  12.963   2.977   5.079
45295SOL    HW137724  12.871   3.001   5.064
45295SOL    HW237725  12.967   2.960   5.173
45296SOL     OW37726   2.018   3.979   8.586
45296SOL    HW137727   1.991   4.002   8.497
45296SOL    HW237728   2.007   3.884   8.590
45297SOL     OW37729   0.774   9.259  14.444
45297SOL    HW137730   0.724   9.205  14.505
45297SOL    HW237731   0.794   9.201  14.371
45298SOL     OW37732   7.452  14.007   9.145
45298SOL    HW137733   7.414  14.030   9.060
45298SOL    HW237734   7.398  13.934   9.176
45299SOL     OW37735   0.024   3.149   0.034
45299SOL    HW137736   0.099   3.202   0.059
45299SOL    HW237737  14.829   3.181   0.089
45300SOL     OW37738   2.706  14.699  12.604
45300SOL    HW137739   2.651  14.683  12.528
45300SOL    HW237740   2.792  14.666  12.579
45301SOL     OW37741   9.830   8.481   5.332
45301SOL    HW137742   9.814   8.554   5.272
45301SOL    HW237743   9.925   8.468   5.329
45302SOL     OW37744  10.474   4.335   5.577
45302SOL    HW137745  10.409   4.381   5.525
45302SOL    HW237746  10.511   4.402   5.634
45303SOL     OW37747  14.554  10.089  14.118
45303SOL    HW137748  14.606  10.074  14.040
45303SOL    HW237749  14.536  10.002  14.153
45304SOL     OW37750   1.767   3.564   6.422
45304SOL    HW137751   1.822   3.487   6.438
45304SOL    HW237752   1.749   3.599   6.509
45305SOL     OW37753  11.718  10.973  14.605
45305SOL    HW137754  11.686  10.883  14.602
45305SOL    HW237755  11.809  10.968  14.576
45306SOL     OW37756   3.550  14.025   2.853
45306SOL    HW137757   3.466  13.983   2.873
45306SOL    HW237758   3.585  14.050   2.939
45307SOL     OW37759   9.866   9.579   4.851
45307SOL    HW137760   9.938   9.639   4.830
45307SOL    HW237761   9.827   9.616   4.931
45308SOL     OW37762   6.968   4.636   0.930
45308SOL    HW137763   6.917   4.695   0.985
45308SOL    HW237764   7.023   4.694   0.878
45309SOL     OW37765  14.103   6.530  11.817
45309SOL    HW137766  14.030   6.585  11.791
45309SOL    HW237767  14.146   6.506  11.735
45310SOL     OW37768  10.721   7.767  10.584
45310SOL    HW137769  10.808   7.773  10.623
45310SOL    HW237770  10.726   7.821  10.506
45311SOL     OW37771   6.869  14.565   8.852
45311SOL    HW137772   6.796  14.627   8.860
45311SOL    HW237773   6.846  14.509   8.779
45312SOL     OW37774   3.655   9.345  11.530
45312SOL    HW137775   3.696   9.379  11.451
45312SOL    HW237776   3.576   9.301  11.500
45313SOL     OW37777   2.079   2.742   2.501
45313SOL    HW137778   2.026   2.662   2.499
45313SOL    HW237779   2.087   2.762   2.594
45314SOL     OW37780   9.583   5.126   0.003
45314SOL    HW137781   9.499   5.140   0.048
45314SOL    HW237782   9.645   5.179   0.053
45315SOL     OW37783  13.163   7.671   6.380
45315SOL    HW137784  13.201   7.753   6.413
45315SOL    HW237785  13.212   7.653   6.300
45316SOL     OW37786   2.480   9.936  11.412
45316SOL    HW137787   2.551   9.952  11.474
45316SOL    HW237788   2.408   9.991  11.443
45317SOL     OW37789   7.708  13.233   1.683
45317SOL    HW137790   7.679  13.293   1.751
45317SOL    HW237791   7.676  13.270   1.601
45318SOL     OW37792   8.983   3.912   0.914
45318SOL    HW137793   8.967   4.005   0.925
45318SOL    HW237794   8.902   3.870   0.943
45319SOL     OW37795   8.913   2.877  10.423
45319SOL    HW137796   8.992   2.848  10.468
45319SOL    HW237797   8.866   2.796  10.402
45320SOL     OW37798  14.212   8.073   0.120
45320SOL    HW137799  14.118   8.054   0.111
45320SOL    HW237800  14.255   7.991   0.095
45321SOL     OW37801  14.733  13.672   8.691
45321SOL    HW137802  14.672  13.678   8.617
45321SOL    HW237803  14.767  13.583   8.687
45322SOL     OW37804   5.114  12.886   3.705
45322SOL    HW137805   5.164  12.920   3.631
45322SOL    HW237806   5.111  12.958   3.768
45323SOL     OW37807   6.246  14.067   8.532
45323SOL    HW137808   6.231  14.011   8.608
45323SOL    HW237809   6.341  14.074   8.525
45324SOL     OW37810   3.127  12.084   8.627
45324SOL    HW137811   3.040  12.054   8.652
45324SOL    HW237812   3.141  12.047   8.540
45325SOL     OW37813   0.085   2.064   8.972
45325SOL    HW137814   0.051   2.138   8.922
45325SOL    HW237815   0.043   1.988   8.933
45326SOL     OW37816   4.806   7.376   2.502
45326SOL    HW137817   4.847   7.318   2.437
45326SOL    HW237818   4.879   7.410   2.554
45327SOL     OW37819   2.168   5.636   3.536
45327SOL    HW137820   2.226   5.707   3.508
45327SOL    HW237821   2.155   5.652   3.630
45328SOL     OW37822   5.313   2.820   8.906
45328SOL    HW137823   5.386   2.872   8.871
45328SOL    HW237824   5.343   2.729   8.897
45329SOL     OW37825   7.873   3.918   3.935
45329SOL    HW137826   7.847   3.866   3.860
45329SOL    HW237827   7.962   3.890   3.955
45330SOL     OW37828   9.754   7.185   4.306
45330SOL    HW137829   9.724   7.230   4.385
45330SOL    HW237830   9.773   7.255   4.244
45331SOL     OW37831   3.148  12.015   3.716
45331SOL    HW137832   3.167  12.001   3.808
45331SOL    HW237833   3.111  12.103   3.711
45332SOL     OW37834   2.820   5.929  11.904
45332SOL    HW137835   2.783   5.904  11.819
45332SOL    HW237836   2.911   5.899  11.899
45333SOL     OW37837  14.153   4.774   4.156
45333SOL    HW137838  14.081   4.817   4.110
45333SOL    HW237839  14.216   4.752   4.087
45334SOL     OW37840   3.732   1.741   1.329
45334SOL    HW137841   3.715   1.659   1.284
45334SOL    HW237842   3.827   1.754   1.320
45335SOL     OW37843  11.548   6.335   9.518
45335SOL    HW137844  11.609   6.323   9.591
45335SOL    HW237845  11.488   6.404   9.547
45336SOL     OW37846   5.399   7.598   6.159
45336SOL    HW137847   5.439   7.640   6.082
45336SOL    HW237848   5.420   7.657   6.231
45337SOL     OW37849   5.582   0.652   8.336
45337SOL    HW137850   5.557   0.658   8.243
45337SOL    HW237851   5.677   0.660   8.336
45338SOL     OW37852   6.337   4.893   0.628
45338SOL    HW137853   6.406   4.853   0.575
45338SOL    HW237854   6.267   4.915   0.566
45339SOL     OW37855  13.894   0.200  12.059
45339SOL    HW137856  13.894   0.153  11.975
45339SOL    HW237857  13.944   0.280  12.041
45340SOL     OW37858   4.933  12.093   9.815
45340SOL    HW137859   4.865  12.049   9.764
45340SOL    HW237860   4.900  12.182   9.827
45341SOL     OW37861   5.834   2.315  13.348
45341SOL    HW137862   5.894   2.389  13.361
45341SOL    HW237863   5.819   2.312  13.253
45342SOL     OW37864   6.159   0.563   8.893
45342SOL    HW137865   6.181   0.514   8.815
45342SOL    HW237866   6.097   0.630   8.863
45343SOL     OW37867   9.612  12.243   1.191
45343SOL    HW137868   9.652  12.236   1.278
45343SOL    HW237869   9.564  12.326   1.194
45344SOL     OW37870   8.212   8.132   1.335
45344SOL    HW137871   8.239   8.116   1.425
45344SOL    HW237872   8.219   8.047   1.292
45345SOL     OW37873   6.122   3.551  14.769
45345SOL    HW137874   6.027   3.558  14.762
45345SOL    HW237875   6.140   3.458  14.759
45346SOL     OW37876   3.707   9.296   8.538
45346SOL    HW137877   3.650   9.219   8.543
45346SOL    HW237878   3.666   9.352   8.472
45347SOL     OW37879  11.216  11.406   3.949
45347SOL    HW137880  11.196  11.343   4.019
45347SOL    HW237881  11.211  11.491   3.992
45348SOL     OW37882  13.950  13.745   5.748
45348SOL    HW137883  13.988  13.674   5.799
45348SOL    HW237884  13.879  13.778   5.803
45349SOL     OW37885   5.772   7.182   0.245
45349SOL    HW137886   5.812   7.197   0.330
45349SOL    HW237887   5.843   7.196   0.182
45350SOL     OW37888   4.655  11.769   6.756
45350SOL    HW137889   4.596  11.841   6.780
45350SOL    HW237890   4.603  11.714   6.698
45351SOL     OW37891   8.795   7.354   5.433
45351SOL    HW137892   8.733   7.422   5.460
45351SOL    HW237893   8.861   7.400   5.382
45352SOL     OW37894   8.859   4.393   8.236
45352SOL    HW137895   8.903   4.340   8.302
45352SOL    HW237896   8.846   4.334   8.162
45353SOL     OW37897   7.862   9.675  12.561
45353SOL    HW137898   7.894   9.587  12.579
45353SOL    HW237899   7.823   9.705  12.643
45354SOL     OW37900   5.546   7.530  12.258
45354SOL    HW137901   5.523   7.562  12.171
45354SOL    HW237902   5.606   7.596  12.293
45355SOL     OW37903  10.563   1.684   2.846
45355SOL    HW137904  10.508   1.736   2.904
45355SOL    HW237905  10.565   1.732   2.763
45356SOL     OW37906   5.060  13.869  12.679
45356SOL    HW137907   4.980  13.921  12.668
45356SOL    HW237908   5.086  13.845  12.591
45357SOL     OW37909  13.306  12.000   5.233
45357SOL    HW137910  13.328  12.059   5.162
45357SOL    HW237911  13.367  11.927   5.224
45358SOL     OW37912  11.831   0.000  10.425
45358SOL    HW137913  11.866  14.858  10.338
45358SOL    HW237914  11.776   0.077  10.414
45359SOL     OW37915   8.861   2.522   4.005
45359SOL    HW137916   8.823   2.554   4.087
45359SOL    HW237917   8.902   2.600   3.967
45360SOL     OW37918   7.855   8.895   4.566
45360SOL    HW137919   7.925   8.836   4.595
45360SOL    HW237920   7.870   8.905   4.472
45361SOL     OW37921  10.304   8.284  13.615
45361SOL    HW137922  10.308   8.199  13.659
45361SOL    HW237923  10.211   8.308  13.617
45362SOL     OW37924   9.083   6.495   6.223
45362SOL    HW137925   9.135   6.481   6.144
45362SOL    HW237926   9.145   6.532   6.286
45363SOL     OW37927   8.873   0.342   6.857
45363SOL    HW137928   8.874   0.427   6.900
45363SOL    HW237929   8.853   0.280   6.928
45364SOL     OW37930   8.809   4.893   9.522
45364SOL    HW137931   8.826   4.851   9.438
45364SOL    HW237932   8.787   4.984   9.499
45365SOL     OW37933   9.511  12.582   9.423
45365SOL    HW137934   9.566  12.524   9.370
45365SOL    HW237935   9.485  12.652   9.364
45366SOL     OW37936   6.406   2.969   4.619
45366SOL    HW137937   6.427   2.886   4.664
45366SOL    HW237938   6.327   2.950   4.569
45367SOL     OW37939  11.968   3.585  12.797
45367SOL    HW137940  12.028   3.647  12.756
45367SOL    HW237941  12.006   3.499  12.777
45368SOL     OW37942   8.516   7.198   9.536
45368SOL    HW137943   8.535   7.251   9.459
45368SOL    HW237944   8.462   7.254   9.591
45369SOL     OW37945   0.952   2.525   1.131
45369SOL    HW137946   0.995   2.610   1.130
45369SOL    HW237947   1.022   2.463   1.152
45370SOL     OW37948   2.137  12.833  13.113
45370SOL    HW137949   2.060  12.787  13.146
45370SOL    HW237950   2.195  12.839  13.189
45371SOL     OW37951  11.173   4.125  13.200
45371SOL    HW137952  11.078   4.120  13.206
45371SOL    HW237953  11.201   4.034  13.187
45372SOL     OW37954   0.608  13.205   0.803
45372SOL    HW137955   0.701  13.182   0.812
45372SOL    HW237956   0.604  13.259   0.724
45373SOL     OW37957   3.241   4.764  10.549
45373SOL    HW137958   3.188   4.829  10.503
45373SOL    HW237959   3.242   4.688  10.490
45374SOL     OW37960   2.589   5.445   4.363
45374SOL    HW137961   2.634   5.361   4.353
45374SOL    HW237962   2.508   5.436   4.314
45375SOL     OW37963   4.393  10.882   9.694
45375SOL    HW137964   4.389  10.815   9.626
45375SOL    HW237965   4.357  10.960   9.653
45376SOL     OW37966   1.318   2.921   4.974
45376SOL    HW137967   1.370   2.936   5.053
45376SOL    HW237968   1.341   2.993   4.915
45377SOL     OW37969   6.471  11.454  11.421
45377SOL    HW137970   6.411  11.520  11.455
45377SOL    HW237971   6.435  11.371  11.453
45378SOL     OW37972   6.072   7.207   1.798
45378SOL    HW137973   6.030   7.293   1.794
45378SOL    HW237974   6.159   7.221   1.761
45379SOL     OW37975   6.062  12.743   7.513
45379SOL    HW137976   6.119  12.820   7.506
45379SOL    HW237977   6.074  12.697   7.430
45380SOL     OW37978   7.522   5.433   2.124
45380SOL    HW137979   7.542   5.526   2.128
45380SOL    HW237980   7.590   5.391   2.177
45381SOL     OW37981   0.099  13.743  14.567
45381SOL    HW137982   0.108  13.818  14.507
45381SOL    HW237983   0.045  13.681  14.518
45382SOL     OW37984   1.879  10.644   9.027
45382SOL    HW137985   1.860  10.723   9.077
45382SOL    HW237986   1.832  10.656   8.944
45383SOL     OW37987   8.314  14.319   1.071
45383SOL    HW137988   8.283  14.399   1.114
45383SOL    HW237989   8.360  14.350   0.993
45384SOL     OW37990  13.531  10.962   4.405
45384SOL    HW137991  13.520  10.870   4.431
45384SOL    HW237992  13.555  11.007   4.485
45385SOL     OW37993   6.150   3.652   3.683
45385SOL    HW137994   6.124   3.742   3.663
45385SOL    HW237995   6.068   3.603   3.681
45386SOL     OW37996   1.108   4.327  10.610
45386SOL    HW137997   1.100   4.318  10.705
45386SOL    HW237998   1.082   4.417  10.593
45387SOL     OW37999   6.048   3.842   6.444
45387SOL    HW138000   6.062   3.897   6.367
45387SOL    HW238001   6.110   3.876   6.509
45388SOL     OW38002  14.735   2.851   5.213
45388SOL    HW138003  14.714   2.925   5.270
45388SOL    HW238004  14.788   2.889   5.143
45389SOL     OW38005  13.918   2.792  14.028
45389SOL    HW138006  13.857   2.855  13.990
45389SOL    HW238007  13.953   2.744  13.953
45390SOL     OW38008   6.591   7.651  11.070
45390SOL    HW138009   6.542   7.699  11.004
45390SOL    HW238010   6.662   7.609  11.021
45391SOL     OW38011   6.204   1.574   4.003
45391SOL    HW138012   6.268   1.586   3.933
45391SOL    HW238013   6.161   1.491   3.982
45392SOL     OW38014   1.115   8.899  14.362
45392SOL    HW138015   1.021   8.883  14.359
45392SOL    HW238016   1.126   8.966  14.429
45393SOL     OW38017   0.158   4.939   7.249
45393SOL    HW138018   0.159   5.003   7.320
45393SOL    HW238019   0.244   4.897   7.254
45394SOL     OW38020  10.951   2.806  11.792
45394SOL    HW138021  10.883   2.802  11.724
45394SOL    HW238022  10.908   2.772  11.870
45395SOL     OW38023   1.906  11.921  14.076
45395SOL    HW138024   1.987  11.880  14.045
45395SOL    HW238025   1.935  12.002  14.117
45396SOL     OW38026   0.123  14.756  14.230
45396SOL    HW138027   0.072  14.769  14.150
45396SOL    HW238028   0.101  14.832  14.284
45397SOL     OW38029   1.430   6.013   1.835
45397SOL    HW138030   1.373   5.945   1.799
45397SOL    HW238031   1.495   6.029   1.768
45398SOL     OW38032   0.955   1.065   5.157
45398SOL    HW138033   1.014   1.140   5.162
45398SOL    HW238034   1.010   0.990   5.179
45399SOL     OW38035   8.925   6.307   2.351
45399SOL    HW138036   8.851   6.318   2.291
45399SOL    HW238037   8.914   6.377   2.416
45400SOL     OW38038  13.790  10.311   2.961
45400SOL    HW138039  13.752  10.391   2.924
45400SOL    HW238040  13.878  10.337   2.988
45401SOL     OW38041   6.799  14.030  12.670
45401SOL    HW138042   6.874  13.984  12.633
45401SOL    HW238043   6.794  13.999  12.761
45402SOL     OW38044   0.185   0.551  13.612
45402SOL    HW138045   0.174   0.513  13.699
45402SOL    HW238046   0.113   0.516  13.560
45403SOL     OW38047  10.897   1.737  11.214
45403SOL    HW138048  10.835   1.705  11.279
45403SOL    HW238049  10.882   1.831  11.210
45404SOL     OW38050   6.565   1.097   7.158
45404SOL    HW138051   6.606   1.130   7.238
45404SOL    HW238052   6.636   1.095   7.094
45405SOL     OW38053   5.058   6.418   0.531
45405SOL    HW138054   5.045   6.512   0.545
45405SOL    HW238055   5.152   6.405   0.546
45406SOL     OW38056  14.087  10.233   2.307
45406SOL    HW138057  13.997  10.229   2.276
45406SOL    HW238058  14.083  10.292   2.382
45407SOL     OW38059   9.579   9.680   1.585
45407SOL    HW138060   9.577   9.635   1.669
45407SOL    HW238061   9.629   9.622   1.527
45408SOL     OW38062   2.910   4.752   9.184
45408SOL    HW138063   2.985   4.724   9.131
45408SOL    HW238064   2.893   4.678   9.242
45409SOL     OW38065   1.469   3.007   8.140
45409SOL    HW138066   1.542   2.987   8.200
45409SOL    HW238067   1.391   2.992   8.193
45410SOL     OW38068  13.808  13.549   0.502
45410SOL    HW138069  13.788  13.552   0.409
45410SOL    HW238070  13.813  13.456   0.523
45411SOL     OW38071   5.650   5.804   9.254
45411SOL    HW138072   5.652   5.895   9.283
45411SOL    HW238073   5.586   5.762   9.311
45412SOL     OW38074   8.918   0.621   8.658
45412SOL    HW138075   8.986   0.563   8.692
45412SOL    HW238076   8.965   0.694   8.618
45413SOL     OW38077   9.321   1.110   4.683
45413SOL    HW138078   9.389   1.175   4.705
45413SOL    HW238079   9.370   1.037   4.646
45414SOL     OW38080   6.322   9.029   9.315
45414SOL    HW138081   6.366   9.058   9.395
45414SOL    HW238082   6.352   8.940   9.300
45415SOL     OW38083   2.724  13.928   4.350
45415SOL    HW138084   2.801  13.935   4.294
45415SOL    HW238085   2.650  13.924   4.289
45416SOL     OW38086  10.556   9.681   8.572
45416SOL    HW138087  10.490   9.621   8.606
45416SOL    HW238088  10.506   9.758   8.545
45417SOL     OW38089   6.859   1.857  13.172
45417SOL    HW138090   6.791   1.924  13.162
45417SOL    HW238091   6.874   1.852  13.267
45418SOL     OW38092  12.299  14.824   4.747
45418SOL    HW138093  12.233  14.774   4.795
45418SOL    HW238094  12.254  14.853   4.668
45419SOL     OW38095   2.289   6.275   4.589
45419SOL    HW138096   2.283   6.354   4.536
45419SOL    HW238097   2.374   6.280   4.631
45420SOL     OW38098   3.178  12.275   7.227
45420SOL    HW138099   3.167  12.368   7.248
45420SOL    HW238100   3.266  12.254   7.259
45421SOL     OW38101  12.830   0.803   6.215
45421SOL    HW138102  12.906   0.750   6.242
45421SOL    HW238103  12.771   0.741   6.173
45422SOL     OW38104  12.380   8.304   9.996
45422SOL    HW138105  12.298   8.299   9.947
45422SOL    HW238106  12.397   8.398  10.005
45423SOL     OW38107  12.827   5.506  10.086
45423SOL    HW138108  12.786   5.423  10.110
45423SOL    HW238109  12.762   5.572  10.111
45424SOL     OW38110   8.719   5.979  14.847
45424SOL    HW138111   8.700   5.910   0.033
45424SOL    HW238112   8.703   6.060   0.019
45425SOL     OW38113   5.361   1.627   5.492
45425SOL    HW138114   5.333   1.626   5.583
45425SOL    HW238115   5.336   1.714   5.460
45426SOL     OW38116  13.598   1.141  10.131
45426SOL    HW138117  13.645   1.206  10.184
45426SOL    HW238118  13.659   1.068  10.124
45427SOL     OW38119  14.283  12.641  11.337
45427SOL    HW138120  14.297  12.574  11.404
45427SOL    HW238121  14.211  12.694  11.371
45428SOL     OW38122   9.275  11.967   0.605
45428SOL    HW138123   9.340  11.924   0.662
45428SOL    HW238124   9.303  12.059   0.603
45429SOL     OW38125   9.900  11.303   9.433
45429SOL    HW138126   9.922  11.395   9.420
45429SOL    HW238127   9.805  11.302   9.439
45430SOL     OW38128   7.107   1.102   3.012
45430SOL    HW138129   7.186   1.113   2.959
45430SOL    HW238130   7.081   1.192   3.035
45431SOL     OW38131   4.569   3.050   9.266
45431SOL    HW138132   4.481   3.087   9.277
45431SOL    HW238133   4.556   2.980   9.201
45432SOL     OW38134   5.695   9.804   5.550
45432SOL    HW138135   5.693   9.879   5.609
45432SOL    HW238136   5.653   9.836   5.470
45433SOL     OW38137   9.853  14.407   4.597
45433SOL    HW138138   9.811  14.400   4.511
45433SOL    HW238139   9.931  14.459   4.582
45434SOL     OW38140   6.304   5.172   4.598
45434SOL    HW138141   6.262   5.148   4.515
45434SOL    HW238142   6.290   5.097   4.655
45435SOL     OW38143   5.661   0.071  10.126
45435SOL    HW138144   5.588   0.065  10.187
45435SOL    HW238145   5.696   0.159  10.138
45436SOL     OW38146   5.850  11.616   2.224
45436SOL    HW138147   5.941  11.627   2.253
45436SOL    HW238148   5.798  11.652   2.296
45437SOL     OW38149  11.073   7.051   6.987
45437SOL    HW138150  11.061   7.000   6.907
45437SOL    HW238151  11.162   7.086   6.979
45438SOL     OW38152   6.380   9.253  13.833
45438SOL    HW138153   6.450   9.315  13.813
45438SOL    HW238154   6.369   9.203  13.752
45439SOL     OW38155   8.964  14.380   7.765
45439SOL    HW138156   8.916  14.320   7.821
45439SOL    HW238157   9.030  14.326   7.723
45440SOL     OW38158  11.822   0.181   5.427
45440SOL    HW138159  11.822   0.107   5.487
45440SOL    HW238160  11.896   0.166   5.369
45441SOL     OW38161  10.195   5.928  13.366
45441SOL    HW138162  10.282   5.913  13.401
45441SOL    HW238163  10.145   5.963  13.440
45442SOL     OW38164   3.138  14.272  14.560
45442SOL    HW138165   3.093  14.219  14.626
45442SOL    HW238166   3.070  14.293  14.496
45443SOL     OW38167  14.808   6.614   1.818
45443SOL    HW138168   0.019   6.589   1.848
45443SOL    HW238169  14.820   6.643   1.728
45444SOL     OW38170  11.577  12.798   7.819
45444SOL    HW138171  11.667  12.769   7.832
45444SOL    HW238172  11.531  12.721   7.784
45445SOL     OW38173   0.426   8.860   9.767
45445SOL    HW138174   0.382   8.896   9.844
45445SOL    HW238175   0.513   8.900   9.767
45446SOL     OW38176   7.016   7.201  11.861
45446SOL    HW138177   7.027   7.261  11.935
45446SOL    HW238178   6.922   7.192  11.850
45447SOL     OW38179   2.808   2.511   9.051
45447SOL    HW138180   2.857   2.509   9.133
45447SOL    HW238181   2.717   2.501   9.077
45448SOL     OW38182   1.801   1.205  13.454
45448SOL    HW138183   1.871   1.265  13.428
45448SOL    HW238184   1.737   1.212  13.383
45449SOL     OW38185  14.602  10.741   8.475
45449SOL    HW138186  14.558  10.816   8.434
45449SOL    HW238187  14.692  10.745   8.444
45450SOL     OW38188   5.897  11.731   6.064
45450SOL    HW138189   5.946  11.781   6.129
45450SOL    HW238190   5.807  11.728   6.098
45451SOL     OW38191  10.973  10.617   9.469
45451SOL    HW138192  10.900  10.563   9.500
45451SOL    HW238193  10.931  10.697   9.436
45452SOL     OW38194   8.781   0.601  14.764
45452SOL    HW138195   8.727   0.603  14.844
45452SOL    HW238196   8.871   0.600  14.796
45453SOL     OW38197  12.104   9.056  13.047
45453SOL    HW138198  12.011   9.077  13.035
45453SOL    HW238199  12.106   8.962  13.062
45454SOL     OW38200  11.163   7.222   9.903
45454SOL    HW138201  11.198   7.178   9.981
45454SOL    HW238202  11.125   7.303   9.937
45455SOL     OW38203   2.103   2.722   8.870
45455SOL    HW138204   2.043   2.730   8.796
45455SOL    HW238205   2.048   2.733   8.947
45456SOL     OW38206   9.167  10.788  12.059
45456SOL    HW138207   9.079  10.804  12.091
45456SOL    HW238208   9.172  10.837  11.977
45457SOL     OW38209  14.317   0.434   6.635
45457SOL    HW138210  14.329   0.356   6.581
45457SOL    HW238211  14.312   0.401   6.725
45458SOL     OW38212  14.249  10.444  14.696
45458SOL    HW138213  14.189  10.497  14.748
45458SOL    HW238214  14.200  10.364  14.677
45459SOL     OW38215   8.917  11.325   0.094
45459SOL    HW138216   8.970  11.264   0.042
45459SOL    HW238217   8.981  11.371   0.149
45460SOL     OW38218  14.316   7.674   9.654
45460SOL    HW138219  14.261   7.653   9.730
45460SOL    HW238220  14.304   7.768   9.642
45461SOL     OW38221   2.543  11.016  10.061
45461SOL    HW138222   2.526  10.939  10.116
45461SOL    HW238223   2.456  11.049  10.039
45462SOL     OW38224  14.170  12.343   5.029
45462SOL    HW138225  14.219  12.283   4.973
45462SOL    HW238226  14.094  12.292   5.058
45463SOL     OW38227  13.493   6.677   9.376
45463SOL    HW138228  13.475   6.771   9.383
45463SOL    HW238229  13.412   6.635   9.406
45464SOL     OW38230  14.777   9.208   7.853
45464SOL    HW138231  14.861   9.253   7.847
45464SOL    HW238232  14.716   9.264   7.805
45465SOL     OW38233   4.626   3.729   2.695
45465SOL    HW138234   4.532   3.730   2.712
45465SOL    HW238235   4.664   3.784   2.763
45466SOL     OW38236  12.676   8.249   5.628
45466SOL    HW138237  12.698   8.198   5.706
45466SOL    HW238238  12.660   8.184   5.560
45467SOL     OW38239   1.028  13.507   2.047
45467SOL    HW138240   1.011  13.599   2.064
45467SOL    HW238241   0.973  13.460   2.109
45468SOL     OW38242  12.476  10.099  12.320
45468SOL    HW138243  12.551  10.039  12.315
45468SOL    HW238244  12.497  10.158  12.391
45469SOL     OW38245   6.357   6.289  10.609
45469SOL    HW138246   6.339   6.229  10.537
45469SOL    HW238247   6.314   6.371  10.583
45470SOL     OW38248   9.681   2.256   3.778
45470SOL    HW138249   9.745   2.326   3.787
45470SOL    HW238250   9.718   2.182   3.826
45471SOL     OW38251   3.754  14.239  14.608
45471SOL    HW138252   3.676  14.294  14.618
45471SOL    HW238253   3.825  14.300  14.591
45472SOL     OW38254   9.049   3.015   0.764
45472SOL    HW138255   9.083   3.004   0.853
45472SOL    HW238256   9.091   3.095   0.733
45473SOL     OW38257   0.625   1.829   0.672
45473SOL    HW138258   0.617   1.890   0.746
45473SOL    HW238259   0.718   1.808   0.668
45474SOL     OW38260  13.531   4.005   3.193
45474SOL    HW138261  13.488   3.983   3.111
45474SOL    HW238262  13.597   3.937   3.206
45475SOL     OW38263   4.133   1.162  10.533
45475SOL    HW138264   4.129   1.237  10.474
45475SOL    HW238265   4.053   1.169  10.585
45476SOL     OW38266   3.162   7.099   2.292
45476SOL    HW138267   3.174   7.007   2.313
45476SOL    HW238268   3.094   7.100   2.224
45477SOL     OW38269   3.871  11.180   5.445
45477SOL    HW138270   3.891  11.272   5.463
45477SOL    HW238271   3.842  11.179   5.354
45478SOL     OW38272   5.947   2.104   3.739
45478SOL    HW138273   5.882   2.161   3.780
45478SOL    HW238274   5.896   2.029   3.706
45479SOL     OW38275   7.167  12.645   6.446
45479SOL    HW138276   7.076  12.659   6.475
45479SOL    HW238277   7.208  12.731   6.454
45480SOL     OW38278   4.551   1.288  12.423
45480SOL    HW138279   4.581   1.282  12.333
45480SOL    HW238280   4.620   1.338  12.468
45481SOL     OW38281   8.160   6.489   8.154
45481SOL    HW138282   8.128   6.548   8.087
45481SOL    HW238283   8.087   6.480   8.216
45482SOL     OW38284   9.584   9.634   8.852
45482SOL    HW138285   9.556   9.559   8.904
45482SOL    HW238286   9.534   9.627   8.770
45483SOL     OW38287   0.253  10.885   9.495
45483SOL    HW138288   0.347  10.891   9.478
45483SOL    HW238289   0.225  10.806   9.448
45484SOL     OW38290  11.243   8.707   6.308
45484SOL    HW138291  11.202   8.696   6.393
45484SOL    HW238292  11.335   8.685   6.323
45485SOL     OW38293  10.487   4.493   3.575
45485SOL    HW138294  10.532   4.420   3.534
45485SOL    HW238295  10.429   4.527   3.506
45486SOL     OW38296   3.443   3.748   3.528
45486SOL    HW138297   3.419   3.761   3.436
45486SOL    HW238298   3.382   3.681   3.559
45487SOL     OW38299   5.312  13.784   4.333
45487SOL    HW138300   5.281  13.760   4.245
45487SOL    HW238301   5.250  13.742   4.392
45488SOL     OW38302   0.118   5.449   6.024
45488SOL    HW138303   0.155   5.494   5.948
45488SOL    HW238304   0.185   5.458   6.092
45489SOL     OW38305  13.046  14.252   7.587
45489SOL    HW138306  13.022  14.195   7.660
45489SOL    HW238307  12.964  14.295   7.562
45490SOL     OW38308   0.476   1.141  14.420
45490SOL    HW138309   0.450   1.054  14.449
45490SOL    HW238310   0.427   1.201  14.476
45491SOL     OW38311   3.658   6.133  10.838
45491SOL    HW138312   3.609   6.054  10.817
45491SOL    HW238313   3.629   6.156  10.926
45492SOL     OW38314   6.482  13.431   0.044
45492SOL    HW138315   6.406  13.373   0.031
45492SOL    HW238316   6.511  13.453  14.832
45493SOL     OW38317  11.576  14.686   4.576
45493SOL    HW138318  11.539  14.771   4.553
45493SOL    HW238319  11.669  14.704   4.594
45494SOL     OW38320  11.498   1.443   0.864
45494SOL    HW138321  11.458   1.357   0.858
45494SOL    HW238322  11.490   1.480   0.776
45495SOL     OW38323  14.777   9.639   1.258
45495SOL    HW138324  14.798   9.704   1.325
45495SOL    HW238325  14.792   9.555   1.301
45496SOL     OW38326   3.941  14.059  12.452
45496SOL    HW138327   4.000  14.064  12.376
45496SOL    HW238328   3.908  13.969  12.451
45497SOL     OW38329  13.903   2.784  10.859
45497SOL    HW138330  13.997   2.772  10.873
45497SOL    HW238331  13.866   2.696  10.863
45498SOL     OW38332   6.641   7.795   1.590
45498SOL    HW138333   6.589   7.836   1.659
45498SOL    HW238334   6.729   7.833   1.600
45499SOL     OW38335  14.357   4.904   5.998
45499SOL    HW138336  14.439   4.916   5.951
45499SOL    HW238337  14.347   4.809   6.004
45500SOL     OW38338   6.964   0.205   1.794
45500SOL    HW138339   6.875   0.171   1.783
45500SOL    HW238340   7.003   0.200   1.707
45501SOL     OW38341   3.010  10.882   1.533
45501SOL    HW138342   3.015  10.960   1.478
45501SOL    HW238343   2.989  10.811   1.471
45502SOL     OW38344   9.283  14.850   7.425
45502SOL    HW138345   9.212  14.802   7.382
45502SOL    HW238346   9.273  14.831   7.518
45503SOL     OW38347  13.822   0.660   1.966
45503SOL    HW138348  13.829   0.739   2.019
45503SOL    HW238349  13.785   0.595   2.026
45504SOL     OW38350   5.024   4.587   3.116
45504SOL    HW138351   5.099   4.539   3.080
45504SOL    HW238352   4.997   4.535   3.191
45505SOL     OW38353  14.634  10.303   8.057
45505SOL    HW138354  14.716  10.348   8.039
45505SOL    HW238355  14.579  10.370   8.099
45506SOL     OW38356  14.546   0.585   4.889
45506SOL    HW138357  14.562   0.493   4.911
45506SOL    HW238358  14.493   0.618   4.962
45507SOL     OW38359  14.623  10.778  13.477
45507SOL    HW138360  14.656  10.712  13.416
45507SOL    HW238361  14.589  10.728  13.551
45508SOL     OW38362   2.700   1.580   5.551
45508SOL    HW138363   2.771   1.518   5.538
45508SOL    HW238364   2.655   1.549   5.629
45509SOL     OW38365   5.609  13.685   3.016
45509SOL    HW138366   5.647  13.609   3.061
45509SOL    HW238367   5.569  13.737   3.086
45510SOL     OW38368   0.721  13.156  14.745
45510SOL    HW138369   0.759  13.155  14.657
45510SOL    HW238370   0.631  13.125  14.733
45511SOL     OW38371  14.113   8.763   5.281
45511SOL    HW138372  14.161   8.709   5.344
45511SOL    HW238373  14.155   8.745   5.197
45512SOL     OW38374  14.455   5.284   7.340
45512SOL    HW138375  14.430   5.214   7.280
45512SOL    HW238376  14.527   5.247   7.391
45513SOL     OW38377  14.714  13.602  13.335
45513SOL    HW138378  14.644  13.548  13.298
45513SOL    HW238379  14.790  13.544  13.339
45514SOL     OW38380   8.891   5.384  11.647
45514SOL    HW138381   8.796   5.395  11.655
45514SOL    HW238382   8.926   5.473  11.644
45515SOL     OW38383   4.534  13.535   1.511
45515SOL    HW138384   4.578  13.470   1.566
45515SOL    HW238385   4.466  13.571   1.567
45516SOL     OW38386   7.053  10.590   5.603
45516SOL    HW138387   7.126  10.630   5.649
45516SOL    HW238388   7.049  10.501   5.638
45517SOL     OW38389  12.082  10.455   4.878
45517SOL    HW138390  12.167  10.434   4.841
45517SOL    HW238391  12.068  10.547   4.855
45518SOL     OW38392   3.412   0.518  14.412
45518SOL    HW138393   3.472   0.578  14.456
45518SOL    HW238394   3.340   0.574  14.382
45519SOL     OW38395   7.811  11.491   4.213
45519SOL    HW138396   7.817  11.416   4.155
45519SOL    HW238397   7.901  11.519   4.228
45520SOL     OW38398   6.275   9.386   0.772
45520SOL    HW138399   6.315   9.461   0.729
45520SOL    HW238400   6.308   9.388   0.862
45521SOL     OW38401   3.462   2.257   4.691
45521SOL    HW138402   3.500   2.224   4.773
45521SOL    HW238403   3.483   2.350   4.692
45522SOL     OW38404   1.395  11.651   1.457
45522SOL    HW138405   1.353  11.733   1.431
45522SOL    HW238406   1.346  11.622   1.534
45523SOL     OW38407  11.629  13.188   5.472
45523SOL    HW138408  11.593  13.267   5.431
45523SOL    HW238409  11.627  13.206   5.566
45524SOL     OW38410   7.535   3.827   8.602
45524SOL    HW138411   7.494   3.741   8.591
45524SOL    HW238412   7.623   3.809   8.635
45525SOL     OW38413   3.984   8.430   9.131
45525SOL    HW138414   3.933   8.483   9.192
45525SOL    HW238415   4.012   8.492   9.063
45526SOL     OW38416   5.880  11.455   4.983
45526SOL    HW138417   5.823  11.425   5.054
45526SOL    HW238418   5.855  11.402   4.908
45527SOL     OW38419   0.174  11.122   5.942
45527SOL    HW138420   0.118  11.058   5.898
45527SOL    HW238421   0.263  11.094   5.920
45528SOL     OW38422   9.008  12.032   0.279
45528SOL    HW138423   8.945  12.104   0.288
45528SOL    HW238424   8.963  11.966   0.227
45529SOL     OW38425  14.595  11.104   8.941
45529SOL    HW138426  14.528  11.074   9.002
45529SOL    HW238427  14.593  11.040   8.870
45530SOL     OW38428  13.786   9.453  14.279
45530SOL    HW138429  13.791   9.367  14.237
45530SOL    HW238430  13.774   9.514  14.206
45531SOL     OW38431   8.728  10.292  10.480
45531SOL    HW138432   8.746  10.342  10.559
45531SOL    HW238433   8.639  10.257  10.493
45532SOL     OW38434   2.878   9.859  11.576
45532SOL    HW138435   2.844   9.777  11.541
45532SOL    HW238436   2.909   9.907  11.499
45533SOL     OW38437  10.047   2.969   8.694
45533SOL    HW138438   9.982   2.908   8.728
45533SOL    HW238439  10.087   3.008   8.772
45534SOL     OW38440   9.033   3.453   0.696
45534SOL    HW138441   8.945   3.433   0.725
45534SOL    HW238442   9.057   3.533   0.743
45535SOL     OW38443   1.681   6.941   1.758
45535SOL    HW138444   1.776   6.931   1.767
45535SOL    HW238445   1.649   6.952   1.847
45536SOL     OW38446   0.592  12.273   5.618
45536SOL    HW138447   0.645  12.347   5.645
45536SOL    HW238448   0.645  12.196   5.640
45537SOL     OW38449   8.395   3.463   3.457
45537SOL    HW138450   8.421   3.516   3.382
45537SOL    HW238451   8.428   3.512   3.533
45538SOL     OW38452   8.643   8.105   7.029
45538SOL    HW138453   8.711   8.145   6.976
45538SOL    HW238454   8.665   8.012   7.029
45539SOL     OW38455  10.755  11.278   5.749
45539SOL    HW138456  10.737  11.351   5.689
45539SOL    HW238457  10.850  11.268   5.746
45540SOL     OW38458  11.608   2.983   8.725
45540SOL    HW138459  11.612   2.888   8.740
45540SOL    HW238460  11.576   2.992   8.636
45541SOL     OW38461  12.713   7.127  11.109
45541SOL    HW138462  12.749   7.138  11.197
45541SOL    HW238463  12.639   7.068  11.120
45542SOL     OW38464   0.971   8.334   7.181
45542SOL    HW138465   0.895   8.274   7.179
45542SOL    HW238466   1.036   8.288   7.234
45543SOL     OW38467  12.458  13.199   5.315
45543SOL    HW138468  12.393  13.251   5.268
45543SOL    HW238469  12.523  13.175   5.248
45544SOL     OW38470   2.427   2.828   2.580
45544SOL    HW138471   2.479   2.779   2.517
45544SOL    HW238472   2.389   2.900   2.529
45545SOL     OW38473   4.707  10.786   8.953
45545SOL    HW138474   4.658  10.717   8.908
45545SOL    HW238475   4.645  10.858   8.961
45546SOL     OW38476   1.433   1.835   5.821
45546SOL    HW138477   1.515   1.788   5.835
45546SOL    HW238478   1.457   1.928   5.829
45547SOL     OW38479  11.814  10.130   9.447
45547SOL    HW138480  11.864  10.126   9.366
45547SOL    HW238481  11.738  10.184   9.426
45548SOL     OW38482   0.363  12.361  12.561
45548SOL    HW138483   0.454  12.352  12.534
45548SOL    HW238484   0.362  12.338  12.654
45549SOL     OW38485   3.152   3.611   3.104
45549SOL    HW138486   3.163   3.664   3.024
45549SOL    HW238487   3.068   3.566   3.090
45550SOL     OW38488   2.006   5.958   0.798
45550SOL    HW138489   2.083   6.013   0.784
45550SOL    HW238490   1.982   5.973   0.889
45551SOL     OW38491   9.355  14.089   9.659
45551SOL    HW138492   9.260  14.098   9.649
45551SOL    HW238493   9.369  13.995   9.669
45552SOL     OW38494   3.840  10.896  13.074
45552SOL    HW138495   3.853  10.874  12.982
45552SOL    HW238496   3.918  10.947  13.097
45553SOL     OW38497   5.476   8.528   8.132
45553SOL    HW138498   5.472   8.536   8.227
45553SOL    HW238499   5.437   8.442   8.114
45554SOL     OW38500  14.568   7.691   2.882
45554SOL    HW138501  14.572   7.763   2.945
45554SOL    HW238502  14.488   7.643   2.906
45555SOL     OW38503  11.531  11.272   4.441
45555SOL    HW138504  11.476  11.350   4.444
45555SOL    HW238505  11.470  11.201   4.422
45556SOL     OW38506   6.965   4.636  10.834
45556SOL    HW138507   7.038   4.686  10.870
45556SOL    HW238508   7.001   4.594  10.756
45557SOL     OW38509   2.171   8.683   5.737
45557SOL    HW138510   2.200   8.684   5.828
45557SOL    HW238511   2.143   8.593   5.722
45558SOL     OW38512  13.295   0.891   7.956
45558SOL    HW138513  13.266   0.944   7.882
45558SOL    HW238514  13.214   0.853   7.991
45559SOL     OW38515  14.531  12.957  10.037
45559SOL    HW138516  14.578  13.026   9.991
45559SOL    HW238517  14.511  12.892   9.969
45560SOL     OW38518  11.761   2.055  10.813
45560SOL    HW138519  11.814   1.987  10.772
45560SOL    HW238520  11.693   2.075  10.749
45561SOL     OW38521  11.993   7.276   1.561
45561SOL    HW138522  12.048   7.259   1.638
45561SOL    HW238523  11.979   7.371   1.562
45562SOL     OW38524   8.815  14.148   2.723
45562SOL    HW138525   8.882  14.160   2.656
45562SOL    HW238526   8.757  14.223   2.712
45563SOL     OW38527   7.645   9.756   1.586
45563SOL    HW138528   7.694   9.742   1.667
45563SOL    HW238529   7.619   9.849   1.589
45564SOL     OW38530   7.815   3.350   6.403
45564SOL    HW138531   7.778   3.263   6.397
45564SOL    HW238532   7.748   3.408   6.367
45565SOL     OW38533   1.802  10.239   5.189
45565SOL    HW138534   1.716  10.250   5.148
45565SOL    HW238535   1.785  10.189   5.268
45566SOL     OW38536   6.892  12.686   4.062
45566SOL    HW138537   6.892  12.627   4.138
45566SOL    HW238538   6.834  12.758   4.088
45567SOL     OW38539   9.891   0.049   8.268
45567SOL    HW138540   9.851  14.841   8.251
45567SOL    HW238541   9.884   0.096   8.184
45568SOL     OW38542  14.718  12.326   2.119
45568SOL    HW138543  14.680  12.394   2.174
45568SOL    HW238544  14.642  12.282   2.080
45569SOL     OW38545   3.792   4.060  11.664
45569SOL    HW138546   3.775   4.130  11.601
45569SOL    HW238547   3.887   4.057  11.672
45570SOL     OW38548   7.337   8.880   7.686
45570SOL    HW138549   7.369   8.928   7.762
45570SOL    HW238550   7.401   8.897   7.617
45571SOL     OW38551  14.333  14.822  10.274
45571SOL    HW138552  14.402  14.870  10.319
45571SOL    HW238553  14.354  14.832  10.181
45572SOL     OW38554   6.875   3.314  13.964
45572SOL    HW138555   6.888   3.254  14.038
45572SOL    HW238556   6.963   3.339  13.938
45573SOL     OW38557  12.477  10.827   3.901
45573SOL    HW138558  12.539  10.756   3.917
45573SOL    HW238559  12.393  10.793   3.934
45574SOL     OW38560   1.831  11.564  10.561
45574SOL    HW138561   1.768  11.633  10.583
45574SOL    HW238562   1.916  11.607  10.562
45575SOL     OW38563  13.859   0.232   9.339
45575SOL    HW138564  13.869   0.241   9.433
45575SOL    HW238565  13.776   0.185   9.328
45576SOL     OW38566  11.174  12.661   4.530
45576SOL    HW138567  11.152  12.569   4.518
45576SOL    HW238568  11.090  12.704   4.548
45577SOL     OW38569  13.787   8.192   6.943
45577SOL    HW138570  13.784   8.099   6.920
45577SOL    HW238571  13.824   8.194   7.032
45578SOL     OW38572   7.846  13.227   2.863
45578SOL    HW138573   7.804  13.313   2.870
45578SOL    HW238574   7.788  13.177   2.806
45579SOL     OW38575  13.753   7.299  11.705
45579SOL    HW138576  13.784   7.379  11.663
45579SOL    HW238577  13.768   7.230  11.640
45580SOL     OW38578  11.298   2.635  11.964
45580SOL    HW138579  11.296   2.556  11.910
45580SOL    HW238580  11.239   2.616  12.037
45581SOL     OW38581  14.864  13.502   4.217
45581SOL    HW138582   0.020  13.475   4.130
45581SOL    HW238583   0.049  13.461   4.278
45582SOL     OW38584   7.769   2.805   9.368
45582SOL    HW138585   7.841   2.751   9.335
45582SOL    HW238586   7.789   2.818   9.460
45583SOL     OW38587   3.608   7.109   1.794
45583SOL    HW138588   3.557   7.129   1.873
45583SOL    HW238589   3.585   7.018   1.773
45584SOL     OW38590   9.014   7.051  11.372
45584SOL    HW138591   9.076   7.017  11.437
45584SOL    HW238592   8.999   7.142  11.399
45585SOL     OW38593  11.066  14.350  14.396
45585SOL    HW138594  11.015  14.292  14.339
45585SOL    HW238595  11.006  14.423  14.415
45586SOL     OW38596   0.005  14.752   5.192
45586SOL    HW138597   0.077  14.812   5.212
45586SOL    HW238598  14.826  14.801   5.131
45587SOL     OW38599   1.893  11.037   4.857
45587SOL    HW138600   1.886  10.973   4.928
45587SOL    HW238601   1.818  11.017   4.801
45588SOL     OW38602  11.601   2.816   2.556
45588SOL    HW138603  11.602   2.740   2.498
45588SOL    HW238604  11.684   2.861   2.539
45589SOL     OW38605   5.336  10.493  12.393
45589SOL    HW138606   5.419  10.459  12.425
45589SOL    HW238607   5.275  10.420  12.401
45590SOL     OW38608   9.569   6.056   1.592
45590SOL    HW138609   9.653   6.084   1.626
45590SOL    HW238610   9.507   6.077   1.662
45591SOL     OW38611  11.081  14.477  11.122
45591SOL    HW138612  11.155  14.532  11.094
45591SOL    HW238613  11.086  14.400  11.065
45592SOL     OW38614   4.385   5.556   6.725
45592SOL    HW138615   4.479   5.570   6.737
45592SOL    HW238616   4.345   5.594   6.804
45593SOL     OW38617   2.663  13.952   1.856
45593SOL    HW138618   2.657  13.856   1.858
45593SOL    HW238619   2.662  13.978   1.948
45594SOL     OW38620   6.406   1.740  12.139
45594SOL    HW138621   6.414   1.816  12.081
45594SOL    HW238622   6.312   1.723  12.142
45595SOL     OW38623   0.098  14.589   4.865
45595SOL    HW138624   0.166  14.633   4.814
45595SOL    HW238625   0.017  14.634   4.841
45596SOL     OW38626   0.803   0.819   7.136
45596SOL    HW138627   0.877   0.766   7.107
45596SOL    HW238628   0.744   0.757   7.179
45597SOL     OW38629   5.851  14.844   5.841
45597SOL    HW138630   5.791  14.770   5.833
45597SOL    HW238631   5.916  14.815   5.905
45598SOL     OW38632   1.918   5.914   3.149
45598SOL    HW138633   1.965   5.998   3.143
45598SOL    HW238634   1.831   5.933   3.113
45599SOL     OW38635   0.877  13.848   3.770
45599SOL    HW138636   0.862  13.856   3.865
45599SOL    HW238637   0.971  13.863   3.760
45600SOL     OW38638   7.305   4.466   3.532
45600SOL    HW138639   7.250   4.412   3.475
45600SOL    HW238640   7.281   4.440   3.621
45601SOL     OW38641   7.181  12.297  14.620
45601SOL    HW138642   7.182  12.211  14.576
45601SOL    HW238643   7.270  12.331  14.605
45602SOL     OW38644  14.266  14.790   6.546
45602SOL    HW138645  14.175  14.763   6.546
45602SOL    HW238646  14.315  14.708   6.536
45603SOL     OW38647   6.014  14.755   9.029
45603SOL    HW138648   5.919  14.763   9.031
45603SOL    HW238649   6.045  14.841   8.999
45604SOL     OW38650  12.780   6.445  14.252
45604SOL    HW138651  12.724   6.456  14.175
45604SOL    HW238652  12.735   6.492  14.322
45605SOL     OW38653   5.532   3.561  13.646
45605SOL    HW138654   5.559   3.484  13.696
45605SOL    HW238655   5.481   3.613  13.708
45606SOL     OW38656  10.036  14.835   7.786
45606SOL    HW138657   9.962   0.006   7.748
45606SOL    HW238658  10.091   0.027   7.824
45607SOL     OW38659  13.142  12.905   9.242
45607SOL    HW138660  13.126  12.831   9.183
45607SOL    HW238661  13.160  12.865   9.327
45608SOL     OW38662   7.282   7.340  11.916
45608SOL    HW138663   7.250   7.277  11.852
45608SOL    HW238664   7.209   7.351  11.977
45609SOL     OW38665   4.546   0.674   4.352
45609SOL    HW138666   4.639   0.679   4.376
45609SOL    HW238667   4.515   0.593   4.392
45610SOL     OW38668   1.045   6.787   8.370
45610SOL    HW138669   0.996   6.719   8.325
45610SOL    HW238670   1.070   6.748   8.453
45611SOL     OW38671   1.246   2.148   3.803
45611SOL    HW138672   1.223   2.141   3.711
45611SOL    HW238673   1.171   2.112   3.850
45612SOL     OW38674   1.154   1.830   8.294
45612SOL    HW138675   1.074   1.804   8.248
45612SOL    HW238676   1.203   1.748   8.305
45613SOL     OW38677   7.750   3.841  14.519
45613SOL    HW138678   7.759   3.760  14.570
45613SOL    HW238679   7.812   3.902  14.559
45614SOL     OW38680  14.862   2.362   4.984
45614SOL    HW138681   0.020   2.437   4.935
45614SOL    HW238682  14.778   2.343   4.942
45615SOL     OW38683  13.732  12.033   8.450
45615SOL    HW138684  13.755  12.070   8.536
45615SOL    HW238685  13.743  11.938   8.461
45616SOL     OW38686   0.443   9.013   9.410
45616SOL    HW138687   0.387   9.039   9.484
45616SOL    HW238688   0.395   8.941   9.369
45617SOL     OW38689   4.083   8.061   0.823
45617SOL    HW138690   4.093   7.999   0.751
45617SOL    HW238691   4.139   8.135   0.799
45618SOL     OW38692  13.130   8.923   5.302
45618SOL    HW138693  13.091   8.913   5.215
45618SOL    HW238694  13.158   9.014   5.306
45619SOL     OW38695  11.924  10.783   7.358
45619SOL    HW138696  11.892  10.739   7.437
45619SOL    HW238697  12.004  10.827   7.386
45620SOL     OW38698   3.125   2.909   4.203
45620SOL    HW138699   3.120   2.820   4.238
45620SOL    HW238700   3.219   2.927   4.196
45621SOL     OW38701   0.958  14.641   5.615
45621SOL    HW138702   1.016  14.588   5.560
45621SOL    HW238703   1.016  14.704   5.657
45622SOL     OW38704   9.390  10.046   0.113
45622SOL    HW138705   9.401  10.067   0.020
45622SOL    HW238706   9.298  10.021   0.122
45623SOL     OW38707  11.480   6.575  14.623
45623SOL    HW138708  11.565   6.539  14.648
45623SOL    HW238709  11.443   6.608  14.705
45624SOL     OW38710  13.590   2.244  12.314
45624SOL    HW138711  13.678   2.244  12.276
45624SOL    HW238712  13.540   2.183  12.259
45625SOL     OW38713   3.709  11.328   4.002
45625SOL    HW138714   3.752  11.353   4.084
45625SOL    HW238715   3.666  11.245   4.022
45626SOL     OW38716   1.171   7.988  10.096
45626SOL    HW138717   1.143   7.900  10.073
45626SOL    HW238718   1.253   8.000  10.047
45627SOL     OW38719   3.176   5.368  11.153
45627SOL    HW138720   3.267   5.339  11.154
45627SOL    HW238721   3.180   5.457  11.188
45628SOL     OW38722   1.126   8.767   7.934
45628SOL    HW138723   1.181   8.699   7.973
45628SOL    HW238724   1.161   8.779   7.846
45629SOL     OW38725   0.095   2.292   0.465
45629SOL    HW138726   0.151   2.329   0.533
45629SOL    HW238727   0.156   2.263   0.397
45630SOL     OW38728  13.078   4.545   0.753
45630SOL    HW138729  13.033   4.616   0.798
45630SOL    HW238730  13.033   4.537   0.669
45631SOL     OW38731   3.766   0.972  13.992
45631SOL    HW138732   3.860   0.960  14.009
45631SOL    HW238733   3.763   1.015  13.907
45632SOL     OW38734   6.478  14.692   2.257
45632SOL    HW138735   6.417  14.646   2.314
45632SOL    HW238736   6.563  14.651   2.276
45633SOL     OW38737   2.571   8.176   2.361
45633SOL    HW138738   2.556   8.085   2.387
45633SOL    HW238739   2.649   8.202   2.411
45634SOL     OW38740   7.944  11.634   0.766
45634SOL    HW138741   7.934  11.699   0.836
45634SOL    HW238742   8.021  11.663   0.717
45635SOL     OW38743   5.901  13.899   7.159
45635SOL    HW138744   5.973  13.950   7.122
45635SOL    HW238745   5.824  13.955   7.148
45636SOL     OW38746   1.607   5.246  11.910
45636SOL    HW138747   1.608   5.199  11.994
45636SOL    HW238748   1.561   5.188  11.850
45637SOL     OW38749   8.061   3.643   7.607
45637SOL    HW138750   8.128   3.576   7.596
45637SOL    HW238751   8.076   3.678   7.696
45638SOL     OW38752   4.796   6.999  10.676
45638SOL    HW138753   4.887   6.970  10.689
45638SOL    HW238754   4.745   6.946  10.737
45639SOL     OW38755   8.266   0.917   5.761
45639SOL    HW138756   8.200   0.885   5.699
45639SOL    HW238757   8.216   0.938   5.840
45640SOL     OW38758   9.380   6.597   6.080
45640SOL    HW138759   9.400   6.657   6.152
45640SOL    HW238760   9.465   6.568   6.049
45641SOL     OW38761  14.165   2.644   6.618
45641SOL    HW138762  14.086   2.619   6.667
45641SOL    HW238763  14.215   2.698   6.680
45642SOL     OW38764   5.578   5.510   9.858
45642SOL    HW138765   5.504   5.531   9.915
45642SOL    HW238766   5.541   5.453   9.791
45643SOL     OW38767  12.370   6.952  13.259
45643SOL    HW138768  12.384   6.935  13.166
45643SOL    HW238769  12.457   6.944  13.298
45644SOL     OW38770   1.428   9.180   6.368
45644SOL    HW138771   1.473   9.206   6.288
45644SOL    HW238772   1.478   9.221   6.438
45645SOL     OW38773  11.152   8.142   4.256
45645SOL    HW138774  11.113   8.079   4.317
45645SOL    HW238775  11.186   8.212   4.313
45646SOL     OW38776  12.924   6.565   7.427
45646SOL    HW138777  12.907   6.471   7.420
45646SOL    HW238778  12.969   6.587   7.345
45647SOL     OW38779  10.172   5.978   8.408
45647SOL    HW138780  10.141   6.069   8.412
45647SOL    HW238781  10.102   5.927   8.449
45648SOL     OW38782  13.576   9.411   6.000
45648SOL    HW138783  13.629   9.390   5.923
45648SOL    HW238784  13.639   9.429   6.069
45649SOL     OW38785  10.915  11.280   8.961
45649SOL    HW138786  10.949  11.248   8.877
45649SOL    HW238787  10.911  11.202   9.017
45650SOL     OW38788   1.918   6.410   3.579
45650SOL    HW138789   1.944   6.385   3.667
45650SOL    HW238790   1.848   6.349   3.556
45651SOL     OW38791   1.044   2.510  10.239
45651SOL    HW138792   1.017   2.596  10.272
45651SOL    HW238793   1.139   2.517  10.228
45652SOL     OW38794   9.611   9.015   4.185
45652SOL    HW138795   9.705   9.018   4.169
45652SOL    HW238796   9.599   8.946   4.249
45653SOL     OW38797  13.623   5.455   8.948
45653SOL    HW138798  13.664   5.406   8.877
45653SOL    HW238799  13.593   5.536   8.907
45654SOL     OW38800  12.353  11.774   8.550
45654SOL    HW138801  12.403  11.855   8.539
45654SOL    HW238802  12.370  11.724   8.470
45655SOL     OW38803   0.674   8.149   4.232
45655SOL    HW138804   0.714   8.227   4.194
45655SOL    HW238805   0.745   8.086   4.239
45656SOL     OW38806   1.336   4.995   9.597
45656SOL    HW138807   1.422   4.974   9.633
45656SOL    HW238808   1.321   4.928   9.530
45657SOL     OW38809   4.470  10.238   6.840
45657SOL    HW138810   4.389  10.188   6.828
45657SOL    HW238811   4.515  10.194   6.913
45658SOL     OW38812  13.287   5.895   3.406
45658SOL    HW138813  13.293   5.849   3.322
45658SOL    HW238814  13.339   5.974   3.394
45659SOL     OW38815   0.575   1.436   2.468
45659SOL    HW138816   0.632   1.444   2.391
45659SOL    HW238817   0.628   1.387   2.531
45660SOL     OW38818   7.383  10.511   4.501
45660SOL    HW138819   7.425  10.546   4.579
45660SOL    HW238820   7.387  10.416   4.513
45661SOL     OW38821  12.303   9.502   2.334
45661SOL    HW138822  12.306   9.588   2.376
45661SOL    HW238823  12.230   9.508   2.272
45662SOL     OW38824   0.434   4.985  14.678
45662SOL    HW138825   0.361   4.928  14.700
45662SOL    HW238826   0.493   4.929  14.627
45663SOL     OW38827   6.437   7.424  12.939
45663SOL    HW138828   6.508   7.371  12.902
45663SOL    HW238829   6.370   7.425  12.870
45664SOL     OW38830   0.025   4.469   7.119
45664SOL    HW138831  14.810   4.443   7.111
45664SOL    HW238832   0.023   4.553   7.165
45665SOL     OW38833   4.546  12.038   9.695
45665SOL    HW138834   4.593  12.115   9.664
45665SOL    HW238835   4.473  12.074   9.746
45666SOL     OW38836   8.200  11.933   7.951
45666SOL    HW138837   8.144  11.856   7.962
45666SOL    HW238838   8.271  11.903   7.894
45667SOL     OW38839   1.233   8.752  11.546
45667SOL    HW138840   1.207   8.725  11.458
45667SOL    HW238841   1.287   8.679  11.578
45668SOL     OW38842   9.972   9.779   6.493
45668SOL    HW138843   9.881   9.799   6.472
45668SOL    HW238844   9.972   9.765   6.587
45669SOL     OW38845  11.757  14.190   7.812
45669SOL    HW138846  11.810  14.253   7.763
45669SOL    HW238847  11.811  14.112   7.818
45670SOL     OW38848  13.634   6.054   4.525
45670SOL    HW138849  13.577   5.987   4.562
45670SOL    HW238850  13.619   6.049   4.431
45671SOL     OW38851   7.378   3.751  12.753
45671SOL    HW138852   7.441   3.679  12.745
45671SOL    HW238853   7.397   3.791  12.838
45672SOL     OW38854  11.866   8.020   8.133
45672SOL    HW138855  11.850   8.090   8.069
45672SOL    HW238856  11.939   7.971   8.097
45673SOL     OW38857   3.052   2.630  13.414
45673SOL    HW138858   3.088   2.646  13.502
45673SOL    HW238859   3.012   2.544  13.420
45674SOL     OW38860  12.432   4.760  11.437
45674SOL    HW138861  12.487   4.687  11.410
45674SOL    HW238862  12.439   4.824  11.365
45675SOL     OW38863   3.290  13.886   1.862
45675SOL    HW138864   3.339  13.892   1.945
45675SOL    HW238865   3.323  13.806   1.821
45676SOL     OW38866  11.694   5.954   7.785
45676SOL    HW138867  11.766   5.937   7.845
45676SOL    HW238868  11.679   5.871   7.741
45677SOL     OW38869   6.253   9.184  14.076
45677SOL    HW138870   6.274   9.184  13.982
45677SOL    HW238871   6.166   9.145  14.081
45678SOL     OW38872   3.463   7.148   4.092
45678SOL    HW138873   3.424   7.111   4.171
45678SOL    HW238874   3.527   7.211   4.125
45679SOL     OW38875  11.720   8.991   3.910
45679SOL    HW138876  11.766   8.908   3.925
45679SOL    HW238877  11.789   9.052   3.882
45680SOL     OW38878   9.274   5.073  13.994
45680SOL    HW138879   9.183   5.073  13.964
45680SOL    HW238880   9.292   5.165  14.015
45681SOL     OW38881  12.501  10.833   5.554
45681SOL    HW138882  12.567  10.827   5.485
45681SOL    HW238883  12.527  10.766   5.618
45682SOL     OW38884   5.560  10.091   5.048
45682SOL    HW138885   5.586  10.178   5.078
45682SOL    HW238886   5.465  10.088   5.060
45683SOL     OW38887   5.430  12.383  13.466
45683SOL    HW138888   5.421  12.435  13.386
45683SOL    HW238889   5.343  12.384  13.506
45684SOL     OW38890  14.582   5.833   9.658
45684SOL    HW138891  14.578   5.872   9.746
45684SOL    HW238892  14.670   5.851   9.627
45685SOL     OW38893   4.774   4.499   1.112
45685SOL    HW138894   4.718   4.577   1.116
45685SOL    HW238895   4.863   4.534   1.120
45686SOL     OW38896   2.787   4.157  13.645
45686SOL    HW138897   2.795   4.076  13.594
45686SOL    HW238898   2.848   4.218  13.603
45687SOL     OW38899   8.199  12.625   1.936
45687SOL    HW138900   8.241  12.711   1.944
45687SOL    HW238901   8.127  12.629   1.999
45688SOL     OW38902   3.732  12.548   5.433
45688SOL    HW138903   3.825  12.560   5.414
45688SOL    HW238904   3.731  12.500   5.516
45689SOL     OW38905  13.734   8.983   7.682
45689SOL    HW138906  13.772   8.895   7.686
45689SOL    HW238907  13.755   9.014   7.594
45690SOL     OW38908  11.938  12.044  12.492
45690SOL    HW138909  11.992  11.984  12.544
45690SOL    HW238910  11.999  12.083  12.429
45691SOL     OW38911  13.170  10.226   8.926
45691SOL    HW138912  13.164  10.160   8.857
45691SOL    HW238913  13.216  10.182   8.998
45692SOL     OW38914   6.730   9.900   3.360
45692SOL    HW138915   6.779   9.894   3.278
45692SOL    HW238916   6.681   9.982   3.353
45693SOL     OW38917   8.460   3.694  14.608
45693SOL    HW138918   8.395   3.672  14.541
45693SOL    HW238919   8.408   3.717  14.685
45694SOL     OW38920   6.381   9.930   3.413
45694SOL    HW138921   6.416   9.856   3.464
45694SOL    HW238922   6.440  10.003   3.433
45695SOL     OW38923   2.239   7.048   8.366
45695SOL    HW138924   2.183   6.994   8.310
45695SOL    HW238925   2.323   7.003   8.366
45696SOL     OW38926   3.804  11.936   0.151
45696SOL    HW138927   3.856  11.908   0.227
45696SOL    HW238928   3.863  11.924   0.076
45697SOL     OW38929   5.737  11.718  14.845
45697SOL    HW138930   5.660  11.666  14.823
45697SOL    HW238931   5.799  11.700  14.775
45698SOL     OW38932   1.197  13.087   0.641
45698SOL    HW138933   1.111  13.054   0.614
45698SOL    HW238934   1.184  13.118   0.731
45699SOL     OW38935   7.776   6.395   2.238
45699SOL    HW138936   7.786   6.347   2.155
45699SOL    HW238937   7.797   6.486   2.216
45700SOL     OW38938  11.607   2.079   4.887
45700SOL    HW138939  11.641   2.128   4.812
45700SOL    HW238940  11.605   1.988   4.857
45701SOL     OW38941   5.317  14.101   5.418
45701SOL    HW138942   5.314  14.050   5.338
45701SOL    HW238943   5.248  14.167   5.408
45702SOL     OW38944   5.867   7.979   5.543
45702SOL    HW138945   5.840   7.907   5.601
45702SOL    HW238946   5.960   7.964   5.529
45703SOL     OW38947  11.298   8.274   6.691
45703SOL    HW138948  11.246   8.348   6.722
45703SOL    HW238949  11.241   8.230   6.628
45704SOL     OW38950   1.648   7.362   7.873
45704SOL    HW138951   1.700   7.441   7.865
45704SOL    HW238952   1.607   7.350   7.787
45705SOL     OW38953   0.881  14.673   7.459
45705SOL    HW138954   0.886  14.714   7.546
45705SOL    HW238955   0.885  14.579   7.477
45706SOL     OW38956   5.964  11.058  12.544
45706SOL    HW138957   6.005  11.026  12.464
45706SOL    HW238958   5.982  11.152  12.545
45707SOL     OW38959  12.643   3.436   5.702
45707SOL    HW138960  12.615   3.362   5.756
45707SOL    HW238961  12.672   3.502   5.764
45708SOL     OW38962   4.949   1.555   2.280
45708SOL    HW138963   4.981   1.603   2.356
45708SOL    HW238964   4.897   1.619   2.231
45709SOL     OW38965   9.363   3.080   2.433
45709SOL    HW138966   9.443   3.048   2.391
45709SOL    HW238967   9.353   3.169   2.399
45710SOL     OW38968  10.072   2.002  11.145
45710SOL    HW138969   9.981   2.012  11.118
45710SOL    HW238970  10.077   2.046  11.230
45711SOL     OW38971   8.428   6.662   1.199
45711SOL    HW138972   8.504   6.612   1.169
45711SOL    HW238973   8.379   6.601   1.254
45712SOL     OW38974   5.249  11.068  13.053
45712SOL    HW138975   5.183  11.118  13.006
45712SOL    HW238976   5.309  11.133  13.090
45713SOL     OW38977  14.493  12.370   4.559
45713SOL    HW138978  14.430  12.415   4.616
45713SOL    HW238979  14.561  12.436   4.543
45714SOL     OW38980  14.614   7.897   3.773
45714SOL    HW138981  14.556   7.821   3.765
45714SOL    HW238982  14.605   7.943   3.690
45715SOL     OW38983   9.020   3.807  13.401
45715SOL    HW138984   8.924   3.811  13.409
45715SOL    HW238985   9.040   3.714  13.411
45716SOL     OW38986   4.838   0.209  12.892
45716SOL    HW138987   4.784   0.243  12.963
45716SOL    HW238988   4.787   0.138  12.854
45717SOL     OW38989   5.083   9.886  14.868
45717SOL    HW138990   5.070   9.829   0.066
45717SOL    HW238991   5.090   9.974   0.029
45718SOL     OW38992   4.392  12.496   3.445
45718SOL    HW138993   4.406  12.547   3.365
45718SOL    HW238994   4.352  12.558   3.506
45719SOL     OW38995   1.350   8.640  11.957
45719SOL    HW138996   1.414   8.640  11.885
45719SOL    HW238997   1.265   8.648  11.913
45720SOL     OW38998   0.657   5.916   3.889
45720SOL    HW138999   0.665   5.940   3.796
45720SOL    HW239000   0.737   5.951   3.929
45721SOL     OW39001  11.488   2.615   7.028
45721SOL    HW139002  11.422   2.591   7.093
45721SOL    HW239003  11.452   2.691   6.983
45722SOL     OW39004  10.556   6.716  11.736
45722SOL    HW139005  10.503   6.657  11.789
45722SOL    HW239006  10.571   6.669  11.654
45723SOL     OW39007   8.215   6.122   2.446
45723SOL    HW139008   8.290   6.120   2.386
45723SOL    HW239009   8.222   6.206   2.490
45724SOL     OW39010   2.231  14.175   3.179
45724SOL    HW139011   2.208  14.083   3.171
45724SOL    HW239012   2.230  14.208   3.089
45725SOL     OW39013   3.552   5.427  13.428
45725SOL    HW139014   3.606   5.476  13.490
45725SOL    HW239015   3.564   5.336  13.453
45726SOL     OW39016  11.401  12.308   3.164
45726SOL    HW139017  11.420  12.357   3.084
45726SOL    HW239018  11.380  12.375   3.229
45727SOL     OW39019   3.555  13.755  11.440
45727SOL    HW139020   3.543  13.847  11.416
45727SOL    HW239021   3.537  13.751  11.534
45728SOL     OW39022   2.795   5.758   6.764
45728SOL    HW139023   2.890   5.764   6.778
45728SOL    HW239024   2.773   5.668   6.788
45729SOL     OW39025   8.112   1.269  10.179
45729SOL    HW139026   8.164   1.211  10.123
45729SOL    HW239027   8.165   1.280  10.258
45730SOL     OW39028   7.276   6.315   1.473
45730SOL    HW139029   7.248   6.393   1.522
45730SOL    HW239030   7.200   6.290   1.422
45731SOL     OW39031   8.950   5.992   9.016
45731SOL    HW139032   9.017   6.058   8.993
45731SOL    HW239033   8.988   5.943   9.089
45732SOL     OW39034  12.166   8.632   1.739
45732SOL    HW139035  12.107   8.580   1.685
45732SOL    HW239036  12.168   8.587   1.824
45733SOL     OW39037   4.164  14.667   7.066
45733SOL    HW139038   4.140  14.755   7.095
45733SOL    HW239039   4.244  14.679   7.016
45734SOL     OW39040  14.052  13.435  11.371
45734SOL    HW139041  14.109  13.442  11.294
45734SOL    HW239042  14.039  13.525  11.400
45735SOL     OW39043   0.582   7.628   5.969
45735SOL    HW139044   0.597   7.557   6.031
45735SOL    HW239045   0.642   7.697   5.997
45736SOL     OW39046   5.269   1.311   5.617
45736SOL    HW139047   5.249   1.303   5.523
45736SOL    HW239048   5.222   1.390   5.645
45737SOL     OW39049  11.267  14.229   2.282
45737SOL    HW139050  11.180  14.232   2.323
45737SOL    HW239051  11.267  14.148   2.230
45738SOL     OW39052  11.645   4.312   5.030
45738SOL    HW139053  11.614   4.223   5.018
45738SOL    HW239054  11.569   4.360   5.062
45739SOL     OW39055  13.072  11.550   7.509
45739SOL    HW139056  13.042  11.498   7.435
45739SOL    HW239057  13.012  11.526   7.581
45740SOL     OW39058   8.987  10.128   1.055
45740SOL    HW139059   8.969  10.039   1.086
45740SOL    HW239060   9.075  10.147   1.088
45741SOL     OW39061  10.068  14.501  11.787
45741SOL    HW139062  10.103  14.499  11.876
45741SOL    HW239063  10.098  14.585  11.751
45742SOL     OW39064   3.554  12.476  13.249
45742SOL    HW139065   3.462  12.450  13.256
45742SOL    HW239066   3.561  12.522  13.165
45743SOL     OW39067   8.432  10.581   7.301
45743SOL    HW139068   8.508  10.527   7.324
45743SOL    HW239069   8.357  10.522   7.307
45744SOL     OW39070  13.424  13.437   3.032
45744SOL    HW139071  13.463  13.357   3.066
45744SOL    HW239072  13.384  13.479   3.109
45745SOL     OW39073  14.815   4.752   2.074
45745SOL    HW139074  14.720   4.759   2.074
45745SOL    HW239075  14.833   4.658   2.077
45746SOL     OW39076  12.291  12.289   9.703
45746SOL    HW139077  12.288  12.236   9.783
45746SOL    HW239078  12.374  12.336   9.709
45747SOL     OW39079   2.204   6.577   2.283
45747SOL    HW139080   2.222   6.567   2.376
45747SOL    HW239081   2.290   6.582   2.242
45748SOL     OW39082   2.099   6.607   7.981
45748SOL    HW139083   2.044   6.538   7.941
45748SOL    HW239084   2.088   6.682   7.923
45749SOL     OW39085   4.039  10.150   5.350
45749SOL    HW139086   4.040  10.079   5.285
45749SOL    HW239087   4.131  10.163   5.372
45750SOL     OW39088  13.463   6.963   6.347
45750SOL    HW139089  13.413   6.883   6.364
45750SOL    HW239090  13.397   7.033   6.349
45751SOL     OW39091   5.638   2.844   6.324
45751SOL    HW139092   5.719   2.873   6.366
45751SOL    HW239093   5.589   2.925   6.310
45752SOL     OW39094   3.542  10.271   2.163
45752SOL    HW139095   3.633  10.296   2.143
45752SOL    HW239096   3.526  10.196   2.107
45753SOL     OW39097   8.058   0.937   4.859
45753SOL    HW139098   8.066   1.010   4.797
45753SOL    HW239099   8.012   0.975   4.934
45754SOL     OW39100   5.816   9.034   6.737
45754SOL    HW139101   5.844   8.952   6.697
45754SOL    HW239102   5.875   9.100   6.701
45755SOL     OW39103   7.933   8.436  12.067
45755SOL    HW139104   7.854   8.437  12.121
45755SOL    HW239105   7.939   8.345  12.037
45756SOL     OW39106   4.208   7.230   4.181
45756SOL    HW139107   4.171   7.303   4.131
45756SOL    HW239108   4.186   7.250   4.272
45757SOL     OW39109  12.863   2.993   6.819
45757SOL    HW139110  12.882   2.901   6.841
45757SOL    HW239111  12.895   3.042   6.895
45758SOL     OW39112  10.807   3.541   0.466
45758SOL    HW139113  10.858   3.622   0.458
45758SOL    HW239114  10.765   3.531   0.380
45759SOL     OW39115   8.591   3.357   0.548
45759SOL    HW139116   8.654   3.289   0.525
45759SOL    HW239117   8.532   3.362   0.474
45760SOL     OW39118   1.510   0.525  11.865
45760SOL    HW139119   1.493   0.503  11.774
45760SOL    HW239120   1.524   0.440  11.908
45761SOL     OW39121   6.673   3.383  10.003
45761SOL    HW139122   6.672   3.308   9.944
45761SOL    HW239123   6.731   3.446   9.960
45762SOL     OW39124   1.135   2.464   9.829
45762SOL    HW139125   1.214   2.518   9.821
45762SOL    HW239126   1.149   2.393   9.767
45763SOL     OW39127   2.001   3.393   7.997
45763SOL    HW139128   2.072   3.420   8.054
45763SOL    HW239129   1.971   3.310   8.034
45764SOL     OW39130  14.077  11.303   1.652
45764SOL    HW139131  14.005  11.350   1.609
45764SOL    HW239132  14.131  11.270   1.580
45765SOL     OW39133   4.083   0.623   1.253
45765SOL    HW139134   4.104   0.530   1.255
45765SOL    HW239135   4.168   0.667   1.258
45766SOL     OW39136  11.160   1.108   2.974
45766SOL    HW139137  11.241   1.153   2.949
45766SOL    HW239138  11.187   1.042   3.037
45767SOL     OW39139   0.453   2.008  11.785
45767SOL    HW139140   0.376   2.065  11.790
45767SOL    HW239141   0.527   2.067  11.795
45768SOL     OW39142   4.188   9.419   2.523
45768SOL    HW139143   4.199   9.500   2.474
45768SOL    HW239144   4.275   9.380   2.526
45769SOL     OW39145   2.682   2.569   2.966
45769SOL    HW139146   2.626   2.499   3.000
45769SOL    HW239147   2.771   2.540   2.986
45770SOL     OW39148  14.679  10.456   1.468
45770SOL    HW139149  14.750  10.451   1.404
45770SOL    HW239150  14.705  10.397   1.538
45771SOL     OW39151   0.825   0.875  12.262
45771SOL    HW139152   0.860   0.916  12.183
45771SOL    HW239153   0.750   0.824  12.232
45772SOL     OW39154   4.062   8.762   5.627
45772SOL    HW139155   4.076   8.849   5.662
45772SOL    HW239156   4.106   8.703   5.689
45773SOL     OW39157   5.803   0.502  10.965
45773SOL    HW139158   5.853   0.427  10.934
45773SOL    HW239159   5.744   0.466  11.031
45774SOL     OW39160   2.162   9.358   7.600
45774SOL    HW139161   2.126   9.446   7.587
45774SOL    HW239162   2.229   9.370   7.668
45775SOL     OW39163   9.558   0.514   1.228
45775SOL    HW139164   9.650   0.501   1.203
45775SOL    HW239165   9.554   0.605   1.256
45776SOL     OW39166   6.034   3.295   3.712
45776SOL    HW139167   6.057   3.359   3.645
45776SOL    HW239168   6.046   3.210   3.671
45777SOL     OW39169  14.668  10.925  14.787
45777SOL    HW139170  14.639  10.835  14.775
45777SOL    HW239171  14.740  10.919  14.849
45778SOL     OW39172  14.625  10.714   1.401
45778SOL    HW139173  14.613  10.623   1.427
45778SOL    HW239174  14.540  10.742   1.367
45779SOL     OW39175   4.959   0.495   0.637
45779SOL    HW139176   4.976   0.412   0.593
45779SOL    HW239177   4.869   0.487   0.670
45780SOL     OW39178  11.933  10.321  14.164
45780SOL    HW139179  12.021  10.316  14.202
45780SOL    HW239180  11.880  10.264  14.220
45781SOL     OW39181  12.682  11.718  14.581
45781SOL    HW139182  12.728  11.636  14.564
45781SOL    HW239183  12.715  11.747  14.666
45782SOL     OW39184  14.063   0.855   8.123
45782SOL    HW139185  14.056   0.785   8.187
45782SOL    HW239186  14.051   0.936   8.174
45783SOL     OW39187   7.753  11.551   3.336
45783SOL    HW139188   7.784  11.463   3.315
45783SOL    HW239189   7.658  11.546   3.322
45784SOL     OW39190  14.098   9.032   7.635
45784SOL    HW139191  14.114   8.951   7.683
45784SOL    HW239192  14.170   9.037   7.572
45785SOL     OW39193   1.461   2.313  12.988
45785SOL    HW139194   1.481   2.373  13.060
45785SOL    HW239195   1.378   2.345  12.952
45786SOL     OW39196  14.714   6.054   5.303
45786SOL    HW139197  14.636   5.998   5.312
45786SOL    HW239198  14.772   6.005   5.245
45787SOL     OW39199   7.952   0.510  13.454
45787SOL    HW139200   8.021   0.573  13.472
45787SOL    HW239201   7.999   0.432  13.422
45788SOL     OW39202  11.783   1.871   6.711
45788SOL    HW139203  11.763   1.964   6.727
45788SOL    HW239204  11.873   1.871   6.679
45789SOL     OW39205  10.474  12.710  10.432
45789SOL    HW139206  10.454  12.803  10.443
45789SOL    HW239207  10.570  12.705  10.441
45790SOL     OW39208   7.565  13.753  12.154
45790SOL    HW139209   7.570  13.752  12.250
45790SOL    HW239210   7.547  13.663  12.129
45791SOL     OW39211   1.335  13.880   1.363
45791SOL    HW139212   1.351  13.786   1.367
45791SOL    HW239213   1.280  13.891   1.286
45792SOL     OW39214  13.578   3.932  10.210
45792SOL    HW139215  13.614   3.903  10.125
45792SOL    HW239216  13.563   3.850  10.258
45793SOL     OW39217   1.514   6.570  14.198
45793SOL    HW139218   1.597   6.529  14.222
45793SOL    HW239219   1.468   6.583  14.281
45794SOL     OW39220   4.060  11.111  11.215
45794SOL    HW139221   4.140  11.155  11.244
45794SOL    HW239222   4.034  11.159  11.136
45795SOL     OW39223  13.729   7.501  11.341
45795SOL    HW139224  13.713   7.407  11.334
45795SOL    HW239225  13.823   7.510  11.327
45796SOL     OW39226   0.303   3.855   0.450
45796SOL    HW139227   0.340   3.885   0.534
45796SOL    HW239228   0.356   3.778   0.427
45797SOL     OW39229   6.840   0.428   8.060
45797SOL    HW139230   6.911   0.378   8.019
45797SOL    HW239231   6.786   0.457   7.987
45798SOL     OW39232   4.489   4.395  14.453
45798SOL    HW139233   4.417   4.361  14.401
45798SOL    HW239234   4.522   4.320  14.502
45799SOL     OW39235   1.565  14.636   1.087
45799SOL    HW139236   1.534  14.546   1.100
45799SOL    HW239237   1.653  14.626   1.051
45800SOL     OW39238   6.612   6.528   3.966
45800SOL    HW139239   6.518   6.548   3.972
45800SOL    HW239240   6.627   6.512   3.873
45801SOL     OW39241   3.167  14.112  10.106
45801SOL    HW139242   3.148  14.200  10.138
45801SOL    HW239243   3.199  14.125  10.016
45802SOL     OW39244   0.813   3.448  11.731
45802SOL    HW139245   0.793   3.358  11.756
45802SOL    HW239246   0.770   3.502  11.798
45803SOL     OW39247   0.989   0.629   5.672
45803SOL    HW139248   1.043   0.705   5.651
45803SOL    HW239249   0.955   0.647   5.760
45804SOL     OW39250   8.273  10.405   2.828
45804SOL    HW139251   8.306  10.335   2.886
45804SOL    HW239252   8.213  10.455   2.884
45805SOL     OW39253   9.937   5.669  10.158
45805SOL    HW139254   9.957   5.743  10.101
45805SOL    HW239255  10.000   5.602  10.134
45806SOL     OW39256  11.376   1.926  11.090
45806SOL    HW139257  11.421   1.866  11.031
45806SOL    HW239258  11.385   1.887  11.177
45807SOL     OW39259  11.772   9.216   0.866
45807SOL    HW139260  11.772   9.164   0.785
45807SOL    HW239261  11.729   9.160   0.930
45808SOL     OW39262   9.073   7.687  13.285
45808SOL    HW139263   9.163   7.703  13.312
45808SOL    HW239264   9.080   7.665  13.192
45809SOL     OW39265  10.456   5.779  12.362
45809SOL    HW139266  10.378   5.730  12.388
45809SOL    HW239267  10.451   5.784  12.267
45810SOL     OW39268   4.825   7.558   3.291
45810SOL    HW139269   4.852   7.470   3.267
45810SOL    HW239270   4.750   7.545   3.348
45811SOL     OW39271  14.352   4.185  11.080
45811SOL    HW139272  14.439   4.223  11.092
45811SOL    HW239273  14.310   4.241  11.014
45812SOL     OW39274   5.838  13.406   3.481
45812SOL    HW139275   5.873  13.440   3.563
45812SOL    HW239276   5.914  13.377   3.432
45813SOL     OW39277   6.098   4.396  11.445
45813SOL    HW139278   6.126   4.317  11.492
45813SOL    HW239279   6.178   4.447  11.436
45814SOL     OW39280   7.827   5.077  14.689
45814SOL    HW139281   7.792   5.008  14.633
45814SOL    HW239282   7.781   5.066  14.772
45815SOL     OW39283   6.672  10.485  13.284
45815SOL    HW139284   6.633  10.507  13.199
45815SOL    HW239285   6.722  10.405  13.267
45816SOL     OW39286  13.160   3.515  13.681
45816SOL    HW139287  13.080   3.470  13.710
45816SOL    HW239288  13.221   3.445  13.661
45817SOL     OW39289  13.042   8.945   1.307
45817SOL    HW139290  13.031   8.955   1.402
45817SOL    HW239291  13.134   8.921   1.296
45818SOL     OW39292   2.484   5.406  13.711
45818SOL    HW139293   2.565   5.438  13.751
45818SOL    HW239294   2.513   5.351  13.638
45819SOL     OW39295  11.928  13.919   6.087
45819SOL    HW139296  12.023  13.931   6.085
45819SOL    HW239297  11.910  13.893   6.177
45820SOL     OW39298   2.412   9.751   2.990
45820SOL    HW139299   2.476   9.770   2.922
45820SOL    HW239300   2.339   9.711   2.943
45821SOL     OW39301   5.663  14.251   4.035
45821SOL    HW139302   5.755  14.228   4.053
45821SOL    HW239303   5.628  14.278   4.119
45822SOL     OW39304   9.113   4.022   4.300
45822SOL    HW139305   9.051   3.949   4.295
45822SOL    HW239306   9.171   4.000   4.373
45823SOL     OW39307  12.283   8.661  12.366
45823SOL    HW139308  12.317   8.573  12.385
45823SOL    HW239309  12.205   8.645  12.313
45824SOL     OW39310   9.814  10.699  12.268
45824SOL    HW139311   9.901  10.711  12.231
45824SOL    HW239312   9.825  10.716  12.362
45825SOL     OW39313  12.044   8.866  12.620
45825SOL    HW139314  12.018   8.794  12.677
45825SOL    HW239315  12.107   8.916  12.672
45826SOL     OW39316   0.828   1.956   3.812
45826SOL    HW139317   0.785   1.949   3.897
45826SOL    HW239318   0.767   1.915   3.751
45827SOL     OW39319   7.041   5.212   0.606
45827SOL    HW139320   7.104   5.282   0.592
45827SOL    HW239321   6.972   5.227   0.542
45828SOL     OW39322   3.941   8.622   3.117
45828SOL    HW139323   3.942   8.608   3.212
45828SOL    HW239324   3.929   8.716   3.107
45829SOL     OW39325  14.734   4.370   4.107
45829SOL    HW139326  14.773   4.399   4.189
45829SOL    HW239327  14.809   4.353   4.050
45830SOL     OW39328   6.538  13.170  14.639
45830SOL    HW139329   6.622  13.166  14.684
45830SOL    HW239330   6.476  13.197  14.707
45831SOL     OW39331   8.205  11.276  10.530
45831SOL    HW139332   8.204  11.245  10.440
45831SOL    HW239333   8.156  11.358  10.528
45832SOL     OW39334  14.107   4.747   9.155
45832SOL    HW139335  14.068   4.680   9.098
45832SOL    HW239336  14.050   4.823   9.143
45833SOL     OW39337   9.450  10.947  13.588
45833SOL    HW139338   9.544  10.950  13.607
45833SOL    HW239339   9.411  11.003  13.655
45834SOL     OW39340   5.375   1.874   5.263
45834SOL    HW139341   5.368   1.969   5.251
45834SOL    HW239342   5.290   1.841   5.236
45835SOL     OW39343  13.317   3.423  12.495
45835SOL    HW139344  13.403   3.451  12.464
45835SOL    HW239345  13.259   3.437  12.420
45836SOL     OW39346   6.403  14.044   3.597
45836SOL    HW139347   6.346  14.119   3.577
45836SOL    HW239348   6.361  13.970   3.554
45837SOL     OW39349  12.378  12.754   1.856
45837SOL    HW139350  12.409  12.841   1.831
45837SOL    HW239351  12.362  12.709   1.773
45838SOL     OW39352  11.790  10.329   3.922
45838SOL    HW139353  11.834  10.289   3.997
45838SOL    HW239354  11.811  10.271   3.849
45839SOL     OW39355   9.320   5.622   2.500
45839SOL    HW139356   9.250   5.637   2.436
45839SOL    HW239357   9.401   5.629   2.449
45840SOL     OW39358   4.752   3.750   5.309
45840SOL    HW139359   4.774   3.702   5.389
45840SOL    HW239360   4.762   3.842   5.333
45841SOL     OW39361  11.482  12.396   9.762
45841SOL    HW139362  11.486  12.404   9.667
45841SOL    HW239363  11.492  12.302   9.779
45842SOL     OW39364  11.085  12.097  13.386
45842SOL    HW139365  11.062  12.185  13.358
45842SOL    HW239366  11.092  12.047  13.304
45843SOL     OW39367   2.652  11.415  11.935
45843SOL    HW139368   2.736  11.436  11.975
45843SOL    HW239369   2.596  11.490  11.956
45844SOL     OW39370   8.710   5.675   6.977
45844SOL    HW139371   8.614   5.685   6.976
45844SOL    HW239372   8.738   5.699   6.889
45845SOL     OW39373   4.588  10.546  10.015
45845SOL    HW139374   4.579  10.641  10.001
45845SOL    HW239375   4.506  10.509   9.982
45846SOL     OW39376   5.293   2.389  10.078
45846SOL    HW139377   5.256   2.336  10.149
45846SOL    HW239378   5.342   2.327  10.025
45847SOL     OW39379  11.866   9.023   2.028
45847SOL    HW139380  11.906   8.990   1.948
45847SOL    HW239381  11.773   9.004   2.018
45848SOL     OW39382  13.511   4.823   4.549
45848SOL    HW139383  13.579   4.866   4.602
45848SOL    HW239384  13.435   4.817   4.607
45849SOL     OW39385  10.988   5.141   2.804
45849SOL    HW139386  11.002   5.048   2.782
45849SOL    HW239387  10.922   5.170   2.741
45850SOL     OW39388   1.916  14.388   4.701
45850SOL    HW139389   1.935  14.335   4.779
45850SOL    HW239390   1.840  14.441   4.725
45851SOL     OW39391   1.604   5.433   4.115
45851SOL    HW139392   1.620   5.375   4.190
45851SOL    HW239393   1.644   5.386   4.041
45852SOL     OW39394  10.711   9.188   7.168
45852SOL    HW139395  10.731   9.095   7.163
45852SOL    HW239396  10.717   9.210   7.261
45853SOL     OW39397   0.501   3.421   4.141
45853SOL    HW139398   0.574   3.435   4.201
45853SOL    HW239399   0.523   3.472   4.064
45854SOL     OW39400   1.957   6.057   9.197
45854SOL    HW139401   1.918   6.080   9.281
45854SOL    HW239402   1.964   6.140   9.150
45855SOL     OW39403   6.581  14.020   2.384
45855SOL    HW139404   6.603  14.039   2.293
45855SOL    HW239405   6.493  13.981   2.380
45856SOL     OW39406   4.686  11.002   3.137
45856SOL    HW139407   4.724  10.930   3.187
45856SOL    HW239408   4.753  11.070   3.139
45857SOL     OW39409   0.833   4.294   1.683
45857SOL    HW139410   0.912   4.348   1.676
45857SOL    HW239411   0.815   4.267   1.593
45858SOL     OW39412  10.387   3.691   1.374
45858SOL    HW139413  10.292   3.703   1.369
45858SOL    HW239414  10.422   3.780   1.377
45859SOL     OW39415   0.833   6.578   3.620
45859SOL    HW139416   0.799   6.528   3.545
45859SOL    HW239417   0.766   6.569   3.687
45860SOL     OW39418   8.583   2.555  13.765
45860SOL    HW139419   8.554   2.600  13.844
45860SOL    HW239420   8.638   2.619  13.720
45861SOL     OW39421   7.782   2.148   1.936
45861SOL    HW139422   7.872   2.130   1.963
45861SOL    HW239423   7.751   2.066   1.898
45862SOL     OW39424   7.146   6.936   1.205
45862SOL    HW139425   7.102   7.012   1.168
45862SOL    HW239426   7.235   6.966   1.224
45863SOL     OW39427   3.404   2.109   3.043
45863SOL    HW139428   3.394   2.154   2.959
45863SOL    HW239429   3.342   2.037   3.039
45864SOL     OW39430  14.774   4.005   9.458
45864SOL    HW139431  14.766   4.100   9.451
45864SOL    HW239432  14.829   3.981   9.383
45865SOL     OW39433  10.681   8.705  10.296
45865SOL    HW139434  10.744   8.675  10.361
45865SOL    HW239435  10.599   8.714  10.344
45866SOL     OW39436  10.735  14.837  12.168
45866SOL    HW139437  10.826  14.859  12.186
45866SOL    HW239438  10.686   0.000  12.240
45867SOL     OW39439  14.068   4.069   3.624
45867SOL    HW139440  14.041   4.128   3.554
45867SOL    HW239441  14.153   4.036   3.596
45868SOL     OW39442   9.301   1.901   6.733
45868SOL    HW139443   9.266   1.816   6.708
45868SOL    HW239444   9.358   1.882   6.808
45869SOL     OW39445   0.722   2.448   9.751
45869SOL    HW139446   0.788   2.504   9.791
45869SOL    HW239447   0.677   2.407   9.825
45870SOL     OW39448  14.586  10.126   5.270
45870SOL    HW139449  14.613  10.218   5.262
45870SOL    HW239450  14.638  10.092   5.343
45871SOL     OW39451   0.270   3.441   7.467
45871SOL    HW139452   0.280   3.402   7.554
45871SOL    HW239453   0.347   3.412   7.419
45872SOL     OW39454   8.233  12.730   5.589
45872SOL    HW139455   8.239  12.712   5.683
45872SOL    HW239456   8.320  12.709   5.555
45873SOL     OW39457  11.442   2.026   4.349
45873SOL    HW139458  11.386   1.969   4.403
45873SOL    HW239459  11.443   1.983   4.263
45874SOL     OW39460   3.448  10.325   5.469
45874SOL    HW139461   3.483  10.395   5.524
45874SOL    HW239462   3.483  10.245   5.507
45875SOL     OW39463  13.764   4.443   0.922
45875SOL    HW139464  13.709   4.449   0.844
45875SOL    HW239465  13.766   4.350   0.943
45876SOL     OW39466   4.550  12.013   1.358
45876SOL    HW139467   4.505  11.938   1.317
45876SOL    HW239468   4.639  11.981   1.374
45877SOL     OW39469   3.185   5.066   6.216
45877SOL    HW139470   3.138   5.056   6.133
45877SOL    HW239471   3.267   5.019   6.202
45878SOL     OW39472   2.294   9.541   5.837
45878SOL    HW139473   2.224   9.482   5.810
45878SOL    HW239474   2.297   9.608   5.768
45879SOL     OW39475  14.307  10.741  10.201
45879SOL    HW139476  14.294  10.710  10.291
45879SOL    HW239477  14.402  10.746  10.191
45880SOL     OW39478   2.051   1.440  12.996
45880SOL    HW139479   2.108   1.365  13.015
45880SOL    HW239480   2.100   1.516  13.028
45881SOL     OW39481   5.223   2.615   7.733
45881SOL    HW139482   5.202   2.707   7.715
45881SOL    HW239483   5.220   2.608   7.828
45882SOL     OW39484   2.323   2.560   6.673
45882SOL    HW139485   2.228   2.573   6.664
45882SOL    HW239486   2.361   2.640   6.636
45883SOL     OW39487  12.173   3.154   6.230
45883SOL    HW139488  12.109   3.147   6.301
45883SOL    HW239489  12.185   3.248   6.219
45884SOL     OW39490   8.485   8.929   4.266
45884SOL    HW139491   8.441   8.956   4.346
45884SOL    HW239492   8.464   8.837   4.256
45885SOL     OW39493  14.433  10.551   5.006
45885SOL    HW139494  14.381  10.600   4.943
45885SOL    HW239495  14.382  10.471   5.021
45886SOL     OW39496   7.475   3.540   1.359
45886SOL    HW139497   7.525   3.529   1.439
45886SOL    HW239498   7.390   3.575   1.388
45887SOL     OW39499   4.042  12.808  13.023
45887SOL    HW139500   4.095  12.730  13.010
45887SOL    HW239501   4.104  12.877  13.043
45888SOL     OW39502   5.829  13.804   7.676
45888SOL    HW139503   5.847  13.711   7.692
45888SOL    HW239504   5.788  13.806   7.589
45889SOL     OW39505  14.199   7.138  11.254
45889SOL    HW139506  14.283   7.093  11.264
45889SOL    HW239507  14.154   7.090  11.184
45890SOL     OW39508   2.226  11.287   4.618
45890SOL    HW139509   2.228  11.300   4.523
45890SOL    HW239510   2.314  11.311   4.648
45891SOL     OW39511  13.329   2.630  11.490
45891SOL    HW139512  13.328   2.544  11.449
45891SOL    HW239513  13.270   2.621  11.565
45892SOL     OW39514   3.307  10.267   1.816
45892SOL    HW139515   3.272  10.327   1.882
45892SOL    HW239516   3.230  10.235   1.769
45893SOL     OW39517   5.811   6.169   1.063
45893SOL    HW139518   5.833   6.084   1.025
45893SOL    HW239519   5.883   6.188   1.123
45894SOL     OW39520  14.195   0.912   1.681
45894SOL    HW139521  14.160   0.839   1.630
45894SOL    HW239522  14.289   0.896   1.684
45895SOL     OW39523   7.752   9.759  14.450
45895SOL    HW139524   7.760   9.691  14.517
45895SOL    HW239525   7.658   9.778  14.446
45896SOL     OW39526  14.863   9.343  13.966
45896SOL    HW139527   0.006   9.274  14.029
45896SOL    HW239528  14.836   9.417  14.021
45897SOL     OW39529  13.505   9.026   8.190
45897SOL    HW139530  13.567   8.961   8.157
45897SOL    HW239531  13.559   9.093   8.231
45898SOL     OW39532   4.029   7.913   0.042
45898SOL    HW139533   4.017   7.922   0.136
45898SOL    HW239534   3.945   7.942   0.005
45899SOL     OW39535   3.862   5.665  14.466
45899SOL    HW139536   3.898   5.595  14.411
45899SOL    HW239537   3.911   5.659  14.548
45900SOL     OW39538   4.295   2.095   4.488
45900SOL    HW139539   4.220   2.065   4.437
45900SOL    HW239540   4.283   2.056   4.574
45901SOL     OW39541   6.612   5.470   3.801
45901SOL    HW139542   6.546   5.496   3.737
45901SOL    HW239543   6.631   5.549   3.850
45902SOL     OW39544   9.111   4.543  14.039
45902SOL    HW139545   9.016   4.553  14.033
45902SOL    HW239546   9.127   4.510  14.127
45903SOL     OW39547   2.259  13.443   5.612
45903SOL    HW139548   2.218  13.371   5.563
45903SOL    HW239549   2.350  13.416   5.621
45904SOL     OW39550  11.778  11.380  13.929
45904SOL    HW139551  11.688  11.413  13.926
45904SOL    HW239552  11.773  11.292  13.893
45905SOL     OW39553   8.247   3.432   3.099
45905SOL    HW139554   8.278   3.515   3.136
45905SOL    HW239555   8.168   3.411   3.149
45906SOL     OW39556   1.595   1.754   6.708
45906SOL    HW139557   1.607   1.797   6.623
45906SOL    HW239558   1.572   1.664   6.686
45907SOL     OW39559   8.959   7.469   2.058
45907SOL    HW139560   8.929   7.385   2.023
45907SOL    HW239561   8.976   7.522   1.981
45908SOL     OW39562   7.947  11.935   5.690
45908SOL    HW139563   7.892  11.877   5.743
45908SOL    HW239564   7.988  11.995   5.753
45909SOL     OW39565  14.023   6.679   8.962
45909SOL    HW139566  14.086   6.613   8.990
45909SOL    HW239567  14.064   6.720   8.886
45910SOL     OW39568  10.684   4.201  13.900
45910SOL    HW139569  10.683   4.200  13.995
45910SOL    HW239570  10.635   4.124  13.874
45911SOL     OW39571   1.341   7.290  14.205
45911SOL    HW139572   1.409   7.230  14.237
45911SOL    HW239573   1.267   7.233  14.185
45912SOL     OW39574   4.839   5.053   8.829
45912SOL    HW139575   4.907   5.097   8.777
45912SOL    HW239576   4.878   4.969   8.853
45913SOL     OW39577  14.190  12.847  12.982
45913SOL    HW139578  14.266  12.894  13.016
45913SOL    HW239579  14.145  12.912  12.928
45914SOL     OW39580  10.341   1.150   2.350
45914SOL    HW139581  10.286   1.222   2.382
45914SOL    HW239582  10.399   1.129   2.423
45915SOL     OW39583  13.693   3.175  13.285
45915SOL    HW139584  13.707   3.080  13.283
45915SOL    HW239585  13.610   3.188  13.241
45916SOL     OW39586   2.875   5.224   0.529
45916SOL    HW139587   2.959   5.224   0.575
45916SOL    HW239588   2.840   5.311   0.543
45917SOL     OW39589  13.489   0.695   9.720
45917SOL    HW139590  13.435   0.674   9.644
45917SOL    HW239591  13.518   0.785   9.705
45918SOL     OW39592   1.078   5.779   3.538
45918SOL    HW139593   1.061   5.833   3.616
45918SOL    HW239594   1.052   5.691   3.564
45919SOL     OW39595   9.900   2.943   4.898
45919SOL    HW139596   9.873   3.029   4.931
45919SOL    HW239597   9.996   2.945   4.901
45920SOL     OW39598   1.946   0.354  12.241
45920SOL    HW139599   1.868   0.410  12.246
45920SOL    HW239600   2.007   0.392  12.303
45921SOL     OW39601   1.353   4.302  13.956
45921SOL    HW139602   1.258   4.299  13.943
45921SOL    HW239603   1.386   4.227  13.905
45922SOL     OW39604   7.996   6.494  12.580
45922SOL    HW139605   7.985   6.442  12.659
45922SOL    HW239606   8.058   6.562  12.605
45923SOL     OW39607   2.922   1.529   2.338
45923SOL    HW139608   2.970   1.561   2.262
45923SOL    HW239609   2.980   1.462   2.375
45924SOL     OW39610  10.340   5.469   7.098
45924SOL    HW139611  10.359   5.424   7.016
45924SOL    HW239612  10.248   5.494   7.091
45925SOL     OW39613   5.230   3.409  14.262
45925SOL    HW139614   5.325   3.394  14.269
45925SOL    HW239615   5.222   3.504  14.248
45926SOL     OW39616   3.948  11.020   7.525
45926SOL    HW139617   3.972  10.933   7.558
45926SOL    HW239618   3.867  11.041   7.572
45927SOL     OW39619   0.051  10.577   3.204
45927SOL    HW139620  14.847  10.525   3.209
45927SOL    HW239621   0.039  10.645   3.270
45928SOL     OW39622   5.499   6.600  10.862
45928SOL    HW139623   5.589   6.614  10.835
45928SOL    HW239624   5.447   6.614  10.783
45929SOL     OW39625   3.640  13.506  11.842
45929SOL    HW139626   3.728  13.482  11.815
45929SOL    HW239627   3.584  13.434  11.811
45930SOL     OW39628   8.287  13.955   9.948
45930SOL    HW139629   8.290  13.861   9.931
45930SOL    HW239630   8.337  13.966  10.029
45931SOL     OW39631   1.149  12.778   0.369
45931SOL    HW139632   1.111  12.858   0.334
45931SOL    HW239633   1.160  12.721   0.293
45932SOL     OW39634   9.202   8.423  11.203
45932SOL    HW139635   9.196   8.433  11.298
45932SOL    HW239636   9.177   8.333  11.186
45933SOL     OW39637   3.611   5.340  14.585
45933SOL    HW139638   3.644   5.365  14.672
45933SOL    HW239639   3.685   5.358  14.526
45934SOL     OW39640  13.830   9.085   4.806
45934SOL    HW139641  13.834   9.096   4.901
45934SOL    HW239642  13.905   9.030   4.785
45935SOL     OW39643  11.936  11.717   3.715
45935SOL    HW139644  11.917  11.771   3.791
45935SOL    HW239645  11.861  11.728   3.657
45936SOL     OW39646  14.072  12.184   7.670
45936SOL    HW139647  14.003  12.198   7.735
45936SOL    HW239648  14.026  12.154   7.592
45937SOL     OW39649   3.882   2.684   9.982
45937SOL    HW139650   3.922   2.752  10.036
45937SOL    HW239651   3.949   2.616   9.975
45938SOL     OW39652   4.169   6.348   0.976
45938SOL    HW139653   4.238   6.353   0.910
45938SOL    HW239654   4.178   6.428   1.027
45939SOL     OW39655   2.017  13.474  14.333
45939SOL    HW139656   1.925  13.481  14.357
45939SOL    HW239657   2.041  13.561  14.301
45940SOL     OW39658   9.651   2.689   1.054
45940SOL    HW139659   9.610   2.660   0.972
45940SOL    HW239660   9.581   2.682   1.119
45941SOL     OW39661   6.852   5.386   5.284
45941SOL    HW139662   6.835   5.434   5.203
45941SOL    HW239663   6.770   5.394   5.334
45942SOL     OW39664   6.599  11.614   9.829
45942SOL    HW139665   6.509  11.635   9.853
45942SOL    HW239666   6.609  11.647   9.740
45943SOL     OW39667  11.305   2.627  10.381
45943SOL    HW139668  11.359   2.677  10.319
45943SOL    HW239669  11.313   2.674  10.464
45944SOL     OW39670   5.402   1.764  11.240
45944SOL    HW139671   5.330   1.778  11.302
45944SOL    HW239672   5.362   1.717  11.167
45945SOL     OW39673   3.067   4.228  14.521
45945SOL    HW139674   3.027   4.145  14.548
45945SOL    HW239675   3.034   4.242  14.432
45946SOL     OW39676   4.935   8.028  11.072
45946SOL    HW139677   4.973   8.105  11.115
45946SOL    HW239678   4.900   8.062  10.989
45947SOL     OW39679  12.786  13.819  11.171
45947SOL    HW139680  12.749  13.813  11.259
45947SOL    HW239681  12.792  13.729  11.141
45948SOL     OW39682   8.473  14.631   3.083
45948SOL    HW139683   8.511  14.621   3.170
45948SOL    HW239684   8.379  14.626   3.097
45949SOL     OW39685  10.195   7.526   5.130
45949SOL    HW139686  10.156   7.560   5.049
45949SOL    HW239687  10.195   7.431   5.117
45950SOL     OW39688   2.948  11.339  13.588
45950SOL    HW139689   2.878  11.329  13.523
45950SOL    HW239690   3.018  11.282  13.555
45951SOL     OW39691   6.404   6.677   2.056
45951SOL    HW139692   6.326   6.639   2.096
45951SOL    HW239693   6.477   6.628   2.094
45952SOL     OW39694   7.099  11.771   3.089
45952SOL    HW139695   7.064  11.754   3.002
45952SOL    HW239696   7.155  11.847   3.079
45953SOL     OW39697  13.830  14.132  12.295
45953SOL    HW139698  13.748  14.175  12.318
45953SOL    HW239699  13.803  14.051  12.252
45954SOL     OW39700   3.227   7.891   7.267
45954SOL    HW139701   3.285   7.842   7.209
45954SOL    HW239702   3.155   7.830   7.285
45955SOL     OW39703   5.948  14.749   6.757
45955SOL    HW139704   5.864  14.748   6.710
45955SOL    HW239705   5.959  14.659   6.788
45956SOL     OW39706   4.274  10.787   3.575
45956SOL    HW139707   4.244  10.845   3.646
45956SOL    HW239708   4.220  10.709   3.585
45957SOL     OW39709   5.437   0.680   8.094
45957SOL    HW139710   5.473   0.711   8.011
45957SOL    HW239711   5.359   0.629   8.070
45958SOL     OW39712   9.254   1.149   0.093
45958SOL    HW139713   9.295   1.177   0.011
45958SOL    HW239714   9.178   1.207   0.101
45959SOL     OW39715  10.337   7.534   5.876
45959SOL    HW139716  10.412   7.502   5.825
45959SOL    HW239717  10.282   7.457   5.889
45960SOL     OW39718  11.565   1.631  12.912
45960SOL    HW139719  11.504   1.566  12.876
45960SOL    HW239720  11.573   1.697  12.843
45961SOL     OW39721  13.637   4.417   2.915
45961SOL    HW139722  13.708   4.477   2.893
45961SOL    HW239723  13.579   4.419   2.839
45962SOL     OW39724   4.475   4.422   5.073
45962SOL    HW139725   4.555   4.393   5.029
45962SOL    HW239726   4.412   4.353   5.055
45963SOL     OW39727   3.495   2.617   8.447
45963SOL    HW139728   3.539   2.681   8.503
45963SOL    HW239729   3.429   2.577   8.503
45964SOL     OW39730   3.679   5.947   3.336
45964SOL    HW139731   3.741   5.877   3.315
45964SOL    HW239732   3.611   5.904   3.387
45965SOL     OW39733   8.974   6.205  13.554
45965SOL    HW139734   8.882   6.220  13.577
45965SOL    HW239735   8.980   6.111  13.539
45966SOL     OW39736   8.193  14.690  12.451
45966SOL    HW139737   8.256  14.759  12.471
45966SOL    HW239738   8.160  14.662  12.536
45967SOL     OW39739  13.903  11.006  13.048
45967SOL    HW139740  13.876  11.008  12.957
45967SOL    HW239741  13.960  10.930  13.055
45968SOL     OW39742  13.417   0.875   5.011
45968SOL    HW139743  13.503   0.850   4.977
45968SOL    HW239744  13.379   0.929   4.941
45969SOL     OW39745  10.143   0.465  14.354
45969SOL    HW139746  10.073   0.399  14.352
45969SOL    HW239747  10.206   0.434  14.290
45970SOL     OW39748   6.802  11.902   5.304
45970SOL    HW139749   6.832  11.980   5.350
45970SOL    HW239750   6.881  11.867   5.263
45971SOL     OW39751  12.512  14.415   3.830
45971SOL    HW139752  12.532  14.361   3.754
45971SOL    HW239753  12.427  14.384   3.861
45972SOL     OW39754   5.809   4.601  11.586
45972SOL    HW139755   5.740   4.607  11.652
45972SOL    HW239756   5.805   4.684  11.539
45973SOL     OW39757   9.658  14.187  10.014
45973SOL    HW139758   9.718  14.250   9.974
45973SOL    HW239759   9.711  14.139  10.078
45974SOL     OW39760   5.852   6.408   2.603
45974SOL    HW139761   5.863   6.481   2.664
45974SOL    HW239762   5.768   6.368   2.629
45975SOL     OW39763   6.942  10.637  10.943
45975SOL    HW139764   6.862  10.654  10.993
45975SOL    HW239765   6.912  10.619  10.854
45976SOL     OW39766  14.677   0.500   7.166
45976SOL    HW139767  14.699   0.436   7.099
45976SOL    HW239768  14.588   0.476   7.194
45977SOL     OW39769   0.129   8.922  11.577
45977SOL    HW139770   0.123   8.876  11.494
45977SOL    HW239771   0.049   8.900  11.624
45978SOL     OW39772  10.708   4.821   9.347
45978SOL    HW139773  10.743   4.790   9.264
45978SOL    HW239774  10.783   4.820   9.406
45979SOL     OW39775  10.714  10.908   2.340
45979SOL    HW139776  10.742  10.872   2.424
45979SOL    HW239777  10.658  10.840   2.302
45980SOL     OW39778   2.724   0.602  12.066
45980SOL    HW139779   2.668   0.623  11.991
45980SOL    HW239780   2.700   0.512  12.089
45981SOL     OW39781  14.619   7.499   0.560
45981SOL    HW139782  14.547   7.512   0.621
45981SOL    HW239783  14.584   7.525   0.475
45982SOL     OW39784   2.238   7.863   3.390
45982SOL    HW139785   2.289   7.791   3.353
45982SOL    HW239786   2.220   7.837   3.480
45983SOL     OW39787   2.941   9.498   1.064
45983SOL    HW139788   2.977   9.410   1.052
45983SOL    HW239789   2.850   9.491   1.037
45984SOL     OW39790   5.833   7.254   2.224
45984SOL    HW139791   5.922   7.255   2.188
45984SOL    HW239792   5.784   7.314   2.169
45985SOL     OW39793  12.427  12.919   3.233
45985SOL    HW139794  12.365  12.991   3.244
45985SOL    HW239795  12.513  12.960   3.240
45986SOL     OW39796  12.961   1.902   2.562
45986SOL    HW139797  12.888   1.848   2.591
45986SOL    HW239798  12.924   1.959   2.495
45987SOL     OW39799  13.740  14.265   1.507
45987SOL    HW139800  13.671  14.209   1.472
45987SOL    HW239801  13.698  14.349   1.523
45988SOL     OW39802  10.050   6.296   9.428
45988SOL    HW139803  10.101   6.224   9.389
45988SOL    HW239804   9.988   6.321   9.360
45989SOL     OW39805  13.573   4.274   1.465
45989SOL    HW139806  13.557   4.346   1.404
45989SOL    HW239807  13.666   4.283   1.489
45990SOL     OW39808   5.960   6.841   2.617
45990SOL    HW139809   5.878   6.819   2.572
45990SOL    HW239810   6.026   6.840   2.547
45991SOL     OW39811   4.618   2.133   7.394
45991SOL    HW139812   4.574   2.215   7.411
45991SOL    HW239813   4.683   2.125   7.464
45992SOL     OW39814  14.204  10.642   9.012
45992SOL    HW139815  14.156  10.561   9.028
45992SOL    HW239816  14.135  10.705   8.990
45993SOL     OW39817   0.943   0.354   6.706
45993SOL    HW139818   1.033   0.333   6.679
45993SOL    HW239819   0.890   0.334   6.629
45994SOL     OW39820   1.954   5.236  13.682
45994SOL    HW139821   2.038   5.218  13.640
45994SOL    HW239822   1.976   5.287  13.760
45995SOL     OW39823  12.053  10.961  11.821
45995SOL    HW139824  11.982  10.897  11.813
45995SOL    HW239825  12.125  10.923  11.771
45996SOL     OW39826  10.385   2.303  13.089
45996SOL    HW139827  10.457   2.352  13.050
45996SOL    HW239828  10.354   2.359  13.161
45997SOL     OW39829   9.169  12.563  11.056
45997SOL    HW139830   9.238  12.525  11.110
45997SOL    HW239831   9.098  12.582  11.117
45998SOL     OW39832  14.341   3.217   1.096
45998SOL    HW139833  14.326   3.122   1.103
45998SOL    HW239834  14.374   3.242   1.182
45999SOL     OW39835   0.623   4.304  13.007
45999SOL    HW139836   0.566   4.298  12.930
45999SOL    HW239837   0.699   4.251  12.985
46000SOL     OW39838   4.206   1.547   8.941
46000SOL    HW139839   4.225   1.468   8.991
46000SOL    HW239840   4.120   1.530   8.902
46001SOL     OW39841   4.636  12.629  13.089
46001SOL    HW139842   4.658  12.694  13.156
46001SOL    HW239843   4.562  12.581  13.127
46002SOL     OW39844   0.129  14.215   3.525
46002SOL    HW139845   0.148  14.309   3.525
46002SOL    HW239846   0.043  14.208   3.566
46003SOL     OW39847  14.395   3.483   4.347
46003SOL    HW139848  14.448   3.554   4.383
46003SOL    HW239849  14.459   3.424   4.308
46004SOL     OW39850   5.022  13.459  11.974
46004SOL    HW139851   4.976  13.437  11.893
46004SOL    HW239852   4.953  13.474  12.038
46005SOL     OW39853  13.471   5.163   5.152
46005SOL    HW139854  13.476   5.197   5.242
46005SOL    HW239855  13.384   5.188   5.122
46006SOL     OW39856  14.806  14.392  14.802
46006SOL    HW139857  14.770  14.417  14.717
46006SOL    HW239858  14.740  14.422  14.865
46007SOL     OW39859   5.965  10.697  12.320
46007SOL    HW139860   5.955  10.612  12.362
46007SOL    HW239861   6.023  10.746  12.379
46008SOL     OW39862  11.903   3.834   6.610
46008SOL    HW139863  11.926   3.915   6.654
46008SOL    HW239864  11.828   3.801   6.659
46009SOL     OW39865   3.985   4.089   3.736
46009SOL    HW139866   3.922   4.091   3.663
46009SOL    HW239867   4.070   4.099   3.694
46010SOL     OW39868   9.484   7.896   2.863
46010SOL    HW139869   9.507   7.859   2.778
46010SOL    HW239870   9.556   7.871   2.920
46011SOL     OW39871   2.212  14.787  12.276
46011SOL    HW139872   2.239  14.750  12.360
46011SOL    HW239873   2.264  14.867  12.266
46012SOL     OW39874   6.437   8.013  12.649
46012SOL    HW139875   6.347   8.025  12.677
46012SOL    HW239876   6.440   8.049  12.560
46013SOL     OW39877  10.172  12.694   8.729
46013SOL    HW139878  10.186  12.601   8.709
46013SOL    HW239879  10.165  12.698   8.824
46014SOL     OW39880   7.774   5.394   3.997
46014SOL    HW139881   7.722   5.471   3.975
46014SOL    HW239882   7.835   5.384   3.925
46015SOL     OW39883   5.436  10.686  11.622
46015SOL    HW139884   5.356  10.710  11.577
46015SOL    HW239885   5.424  10.717  11.712
46016SOL     OW39886  14.293   3.919  12.007
46016SOL    HW139887  14.205   3.888  12.029
46016SOL    HW239888  14.302   3.903  11.913
46017SOL     OW39889  11.880  11.652  12.734
46017SOL    HW139890  11.961  11.696  12.707
46017SOL    HW239891  11.812  11.718  12.724
46018SOL     OW39892   1.255  14.432   4.104
46018SOL    HW139893   1.226  14.376   4.032
46018SOL    HW239894   1.192  14.504   4.105
46019SOL     OW39895   2.327   4.632   7.421
46019SOL    HW139896   2.261   4.563   7.412
46019SOL    HW239897   2.405   4.598   7.377
46020SOL     OW39898   6.063  11.682   4.708
46020SOL    HW139899   6.040  11.654   4.620
46020SOL    HW239900   6.137  11.626   4.732
46021SOL     OW39901  14.369  10.464   4.697
46021SOL    HW139902  14.449  10.412   4.690
46021SOL    HW239903  14.399  10.555   4.695
46022SOL     OW39904  11.899   3.525  14.148
46022SOL    HW139905  11.836   3.574  14.201
46022SOL    HW239906  11.846   3.462  14.099
46023SOL     OW39907   3.894  13.704   7.788
46023SOL    HW139908   3.942  13.773   7.833
46023SOL    HW239909   3.910  13.625   7.841
46024SOL     OW39910  12.429   4.831   5.814
46024SOL    HW139911  12.510   4.838   5.762
46024SOL    HW239912  12.452   4.772   5.886
46025SOL     OW39913  10.926   8.935  12.354
46025SOL    HW139914  10.996   8.957  12.293
46025SOL    HW239915  10.876   8.866  12.310
46026SOL     OW39916  11.116   6.364   6.735
46026SOL    HW139917  11.114   6.456   6.762
46026SOL    HW239918  11.056   6.321   6.797
46027SOL     OW39919   9.323   6.584  13.392
46027SOL    HW139920   9.251   6.527  13.417
46027SOL    HW239921   9.286   6.644  13.328
46028SOL     OW39922  13.845  13.835   1.553
46028SOL    HW139923  13.821  13.901   1.488
46028SOL    HW239924  13.894  13.770   1.503
46029SOL     OW39925   8.241   8.996   9.007
46029SOL    HW139926   8.234   9.081   9.051
46029SOL    HW239927   8.201   9.011   8.922
46030SOL     OW39928  11.733   3.694   7.011
46030SOL    HW139929  11.823   3.725   7.023
46030SOL    HW239930  11.742   3.604   6.979
46031SOL     OW39931   7.568   0.756   7.978
46031SOL    HW139932   7.535   0.845   7.967
46031SOL    HW239933   7.519   0.721   8.052
46032SOL     OW39934  10.978   5.190  11.715
46032SOL    HW139935  10.952   5.269  11.763
46032SOL    HW239936  11.051   5.155  11.765
46033SOL     OW39937   7.036  10.662   6.450
46033SOL    HW139938   7.059  10.587   6.505
46033SOL    HW239939   7.039  10.738   6.509
46034SOL     OW39940  11.361  11.119   0.340
46034SOL    HW139941  11.292  11.086   0.282
46034SOL    HW239942  11.418  11.170   0.282
46035SOL     OW39943   7.230   4.012   8.469
46035SOL    HW139944   7.226   4.038   8.377
46035SOL    HW239945   7.190   4.085   8.516
46036SOL     OW39946   7.542   8.223  11.200
46036SOL    HW139947   7.482   8.165  11.153
46036SOL    HW239948   7.554   8.180  11.285
46037SOL     OW39949   6.700   7.290  12.631
46037SOL    HW139950   6.781   7.249  12.601
46037SOL    HW239951   6.670   7.342  12.556
46038SOL     OW39952   8.501  10.249   6.097
46038SOL    HW139953   8.518  10.332   6.142
46038SOL    HW239954   8.526  10.182   6.160
46039SOL     OW39955  12.417  10.649   7.912
46039SOL    HW139956  12.382  10.738   7.914
46039SOL    HW239957  12.414  10.620   8.003
46040SOL     OW39958   2.008  11.917   6.383
46040SOL    HW139959   2.088  11.865   6.387
46040SOL    HW239960   1.990  11.941   6.474
46041SOL     OW39961   7.105  12.425   1.688
46041SOL    HW139962   7.055  12.484   1.633
46041SOL    HW239963   7.076  12.445   1.777
46042SOL     OW39964   7.231   3.844   3.153
46042SOL    HW139965   7.250   3.857   3.060
46042SOL    HW239966   7.142   3.877   3.165
46043SOL     OW39967   6.670   8.192   7.749
46043SOL    HW139968   6.599   8.204   7.812
46043SOL    HW239969   6.640   8.122   7.692
46044SOL     OW39970   6.482  11.472   7.284
46044SOL    HW139971   6.517  11.517   7.361
46044SOL    HW239972   6.395  11.441   7.311
46045SOL     OW39973   6.469   7.984   2.791
46045SOL    HW139974   6.401   7.944   2.737
46045SOL    HW239975   6.524   8.032   2.729
46046SOL     OW39976   8.569  14.613   2.331
46046SOL    HW139977   8.598  14.577   2.247
46046SOL    HW239978   8.612  14.558   2.397
46047SOL     OW39979  10.984  11.969   5.981
46047SOL    HW139980  11.006  11.877   5.966
46047SOL    HW239981  10.914  11.988   5.918
46048SOL     OW39982  10.440   0.403   6.348
46048SOL    HW139983  10.392   0.335   6.396
46048SOL    HW239984  10.507   0.355   6.299
46049SOL     OW39985   0.679   3.718  13.270
46049SOL    HW139986   0.737   3.794  13.277
46049SOL    HW239987   0.621   3.726  13.346
46050SOL     OW39988   3.304   3.102   0.118
46050SOL    HW139989   3.257   3.060   0.046
46050SOL    HW239990   3.393   3.067   0.112
46051SOL     OW39991   8.013  14.755   3.055
46051SOL    HW139992   7.923  14.748   3.087
46051SOL    HW239993   8.025  14.679   2.998
46052SOL     OW39994   7.664  11.649   8.470
46052SOL    HW139995   7.593  11.603   8.516
46052SOL    HW239996   7.739  11.641   8.529
46053SOL     OW39997   8.373   9.212  10.366
46053SOL    HW139998   8.357   9.131  10.414
46053SOL    HW239999   8.440   9.257  10.417
46054SOL     OW40000  13.475  10.353   3.132
46054SOL    HW140001  13.432  10.433   3.102
46054SOL    HW240002  13.465  10.291   3.060
46055SOL     OW40003   6.599   3.891   6.173
46055SOL    HW140004   6.594   3.943   6.253
46055SOL    HW240005   6.562   3.806   6.196
46056SOL     OW40006   5.159  10.934   1.433
46056SOL    HW140007   5.172  10.959   1.524
46056SOL    HW240008   5.245  10.946   1.392
46057SOL     OW40009  10.841  12.072   0.038
46057SOL    HW140010  10.893  12.139   0.082
46057SOL    HW240011  10.897  11.994   0.037
46058SOL     OW40012  11.644   0.708  12.932
46058SOL    HW140013  11.715   0.662  12.886
46058SOL    HW240014  11.599   0.757  12.863
46059SOL     OW40015   8.916   5.236  11.942
46059SOL    HW140016   8.845   5.251  12.005
46059SOL    HW240017   8.871   5.228  11.858
46060SOL     OW40018   8.416   2.207   8.666
46060SOL    HW140019   8.393   2.225   8.757
46060SOL    HW240020   8.467   2.283   8.639
46061SOL     OW40021   6.415  12.505   5.664
46061SOL    HW140022   6.477  12.464   5.724
46061SOL    HW240023   6.415  12.598   5.689
46062SOL     OW40024   4.763   8.896  12.757
46062SOL    HW140025   4.773   8.889  12.852
46062SOL    HW240026   4.834   8.954  12.730
46063SOL     OW40027   3.160   1.235  10.709
46063SOL    HW140028   3.108   1.191  10.641
46063SOL    HW240029   3.096   1.286  10.759
46064SOL     OW40030   3.288   1.196   9.075
46064SOL    HW140031   3.349   1.135   9.118
46064SOL    HW240032   3.263   1.152   8.994
46065SOL     OW40033   1.110   9.546   5.619
46065SOL    HW140034   1.068   9.538   5.705
46065SOL    HW240035   1.203   9.539   5.637
46066SOL     OW40036   8.103   9.084   0.718
46066SOL    HW140037   8.077   9.031   0.793
46066SOL    HW240038   8.023   9.130   0.692
46067SOL     OW40039   0.637   5.497  10.766
46067SOL    HW140040   0.678   5.538  10.841
46067SOL    HW240041   0.685   5.530  10.690
46068SOL     OW40042   4.513   7.298  10.114
46068SOL    HW140043   4.597   7.253  10.126
46068SOL    HW240044   4.449   7.237  10.152
46069SOL     OW40045   4.313   3.156  14.276
46069SOL    HW140046   4.251   3.181  14.345
46069SOL    HW240047   4.392   3.129  14.323
46070SOL     OW40048   2.194   8.118  12.059
46070SOL    HW140049   2.111   8.081  12.090
46070SOL    HW240050   2.210   8.192  12.118
46071SOL     OW40051   2.347   0.466   8.849
46071SOL    HW140052   2.335   0.485   8.756
46071SOL    HW240053   2.324   0.548   8.894
46072SOL     OW40054   6.807  12.308  13.707
46072SOL    HW140055   6.888  12.293  13.658
46072SOL    HW240056   6.764  12.223  13.708
46073SOL     OW40057   1.715   2.375  13.466
46073SOL    HW140058   1.785   2.313  13.486
46073SOL    HW240059   1.760   2.458  13.450
46074SOL     OW40060   2.370   2.399   2.040
46074SOL    HW140061   2.364   2.321   2.095
46074SOL    HW240062   2.353   2.367   1.951
46075SOL     OW40063   0.987   0.487   2.525
46075SOL    HW140064   0.972   0.534   2.443
46075SOL    HW240065   0.902   0.449   2.547
46076SOL     OW40066  13.738   3.086   1.938
46076SOL    HW140067  13.822   3.051   1.967
46076SOL    HW240068  13.675   3.016   1.956
46077SOL     OW40069  12.945  12.293  10.005
46077SOL    HW140070  12.974  12.282   9.915
46077SOL    HW240071  12.860  12.248  10.009
46078SOL     OW40072   5.767   3.944   1.669
46078SOL    HW140073   5.797   3.870   1.722
46078SOL    HW240074   5.826   3.944   1.593
46079SOL     OW40075   6.498   0.778   2.570
46079SOL    HW140076   6.516   0.815   2.484
46079SOL    HW240077   6.418   0.821   2.599
46080SOL     OW40078   9.349  13.349   6.976
46080SOL    HW140079   9.393  13.410   7.035
46080SOL    HW240080   9.333  13.272   7.030
46081SOL     OW40081  10.060   1.772  12.426
46081SOL    HW140082  10.025   1.842  12.481
46081SOL    HW240083   9.985   1.738  12.378
46082SOL     OW40084  11.113  13.733   7.146
46082SOL    HW140085  11.102  13.639   7.135
46082SOL    HW240086  11.133  13.744   7.239
46083SOL     OW40087   7.891   5.514  12.291
46083SOL    HW140088   7.967   5.502  12.234
46083SOL    HW240089   7.879   5.609  12.294
46084SOL     OW40090   8.578   6.973  11.438
46084SOL    HW140091   8.659   6.928  11.461
46084SOL    HW240092   8.509   6.922  11.479
46085SOL     OW40093   4.914  10.140   7.103
46085SOL    HW140094   4.888  10.099   7.185
46085SOL    HW240095   4.974  10.209   7.129
46086SOL     OW40096   6.216   3.895   3.033
46086SOL    HW140097   6.158   3.971   3.034
46086SOL    HW240098   6.303   3.932   3.018
46087SOL     OW40099  13.530   3.414   0.671
46087SOL    HW140100  13.559   3.384   0.757
46087SOL    HW240101  13.601   3.389   0.612
46088SOL     OW40102   3.255   2.389  13.311
46088SOL    HW140103   3.164   2.378  13.284
46088SOL    HW240104   3.265   2.327  13.384
46089SOL     OW40105   5.436  14.020   3.581
46089SOL    HW140106   5.494  14.032   3.656
46089SOL    HW240107   5.437  13.926   3.565
46090SOL     OW40108  12.239   6.884  10.295
46090SOL    HW140109  12.191   6.866  10.376
46090SOL    HW240110  12.196   6.960  10.258
46091SOL     OW40111   3.994   6.739   6.377
46091SOL    HW140112   4.042   6.735   6.295
46091SOL    HW240113   4.014   6.825   6.414
46092SOL     OW40114   6.954   5.720  13.891
46092SOL    HW140115   6.925   5.681  13.974
46092SOL    HW240116   6.978   5.809  13.914
46093SOL     OW40117  11.671  12.441  14.447
46093SOL    HW140118  11.656  12.531  14.474
46093SOL    HW240119  11.762  12.424  14.472
46094SOL     OW40120   7.486   5.721   3.532
46094SOL    HW140121   7.402   5.707   3.576
46094SOL    HW240122   7.462   5.744   3.442
46095SOL     OW40123   3.095   3.098   2.152
46095SOL    HW140124   3.052   3.116   2.068
46095SOL    HW240125   3.168   3.040   2.129
46096SOL     OW40126   7.363   3.332   8.399
46096SOL    HW140127   7.283   3.298   8.359
46096SOL    HW240128   7.407   3.255   8.434
46097SOL     OW40129  10.027   8.250   3.753
46097SOL    HW140130   9.969   8.175   3.758
46097SOL    HW240131   9.977   8.322   3.792
46098SOL     OW40132  14.840   5.423  12.407
46098SOL    HW140133  14.763   5.384  12.367
46098SOL    HW240134   0.027   5.430  12.335
46099SOL     OW40135  10.008  10.372   9.669
46099SOL    HW140136  10.096  10.389   9.635
46099SOL    HW240137  10.019  10.369   9.764
46100SOL     OW40138   0.687   1.141   3.218
46100SOL    HW140139   0.669   1.109   3.129
46100SOL    HW240140   0.627   1.215   3.229
46101SOL     OW40141   3.869   9.781   4.444
46101SOL    HW140142   3.925   9.725   4.390
46101SOL    HW240143   3.873   9.741   4.531
46102SOL     OW40144  14.300   8.170   1.579
46102SOL    HW140145  14.251   8.243   1.615
46102SOL    HW240146  14.390   8.184   1.609
46103SOL     OW40147   4.543   2.384   0.213
46103SOL    HW140148   4.458   2.425   0.196
46103SOL    HW240149   4.587   2.445   0.273
46104SOL     OW40150   6.964  14.666   2.077
46104SOL    HW140151   7.021  14.741   2.092
46104SOL    HW240152   6.939  14.638   2.165
46105SOL     OW40153   3.146   5.624  13.691
46105SOL    HW140154   3.101   5.628  13.776
46105SOL    HW240155   3.236   5.652  13.711
46106SOL     OW40156   3.546   2.593  12.490
46106SOL    HW140157   3.641   2.599  12.479
46106SOL    HW240158   3.534   2.581  12.584
46107SOL     OW40159  10.353   0.888   7.871
46107SOL    HW140160  10.296   0.812   7.880
46107SOL    HW240161  10.424   0.857   7.814
46108SOL     OW40162   8.683   8.049   9.770
46108SOL    HW140163   8.773   8.079   9.782
46108SOL    HW240164   8.685   7.956   9.794
46109SOL     OW40165  12.729   9.622   2.378
46109SOL    HW140166  12.808   9.623   2.433
46109SOL    HW240167  12.688   9.707   2.394
46110SOL     OW40168   1.901  11.304   9.242
46110SOL    HW140169   1.833  11.285   9.177
46110SOL    HW240170   1.957  11.370   9.199
46111SOL     OW40171  11.883   1.739   3.892
46111SOL    HW140172  11.804   1.711   3.938
46111SOL    HW240173  11.948   1.750   3.962
46112SOL     OW40174  10.997  12.409   2.354
46112SOL    HW140175  11.014  12.500   2.380
46112SOL    HW240176  10.908  12.392   2.386
46113SOL     OW40177  11.556   0.045  14.622
46113SOL    HW140178  11.650   0.033  14.615
46113SOL    HW240179  11.534   0.109  14.554
46114SOL     OW40180   6.662  14.291  10.764
46114SOL    HW140181   6.635  14.326  10.849
46114SOL    HW240182   6.595  14.322  10.704
46115SOL     OW40183   1.794   3.162   8.086
46115SOL    HW140184   1.758   3.088   8.136
46115SOL    HW240185   1.862   3.122   8.031
46116SOL     OW40186   9.156  14.274   7.121
46116SOL    HW140187   9.088  14.331   7.157
46116SOL    HW240188   9.186  14.222   7.196
46117SOL     OW40189  14.322   3.530  12.104
46117SOL    HW140190  14.380   3.606  12.094
46117SOL    HW240191  14.331   3.505  12.196
46118SOL     OW40192   7.771  10.313  13.026
46118SOL    HW140193   7.794  10.378  12.960
46118SOL    HW240194   7.724  10.361  13.094
46119SOL     OW40195  11.529  12.718  12.083
46119SOL    HW140196  11.488  12.732  12.169
46119SOL    HW240197  11.457  12.696  12.025
46120SOL     OW40198   6.236   2.680   1.756
46120SOL    HW140199   6.300   2.644   1.817
46120SOL    HW240200   6.241   2.623   1.679
46121SOL     OW40201  11.502   2.956  12.995
46121SOL    HW140202  11.593   2.940  13.019
46121SOL    HW240203  11.451   2.923  13.069
46122SOL     OW40204   8.544   0.893   9.403
46122SOL    HW140205   8.493   0.923   9.478
46122SOL    HW240206   8.571   0.973   9.359
46123SOL     OW40207   4.195  12.663  11.972
46123SOL    HW140208   4.263  12.606  12.008
46123SOL    HW240209   4.134  12.676  12.045
46124SOL     OW40210  14.636   8.578  14.450
46124SOL    HW140211  14.563   8.519  14.470
46124SOL    HW240212  14.685   8.532  14.382
46125SOL     OW40213   4.389  13.702  10.836
46125SOL    HW140214   4.472  13.673  10.799
46125SOL    HW240215   4.413  13.764  10.905
46126SOL     OW40216   6.706   0.580  10.338
46126SOL    HW140217   6.742   0.609  10.255
46126SOL    HW240218   6.780   0.542  10.385
46127SOL     OW40219  10.796  10.426   2.731
46127SOL    HW140220  10.886  10.401   2.711
46127SOL    HW240221  10.742  10.363   2.683
46128SOL     OW40222  11.153   8.164  12.870
46128SOL    HW140223  11.073   8.126  12.909
46128SOL    HW240224  11.122   8.241  12.822
46129SOL     OW40225   1.411   8.910   7.840
46129SOL    HW140226   1.451   8.831   7.876
46129SOL    HW240227   1.346   8.878   7.778
46130SOL     OW40228   2.697   8.277  14.212
46130SOL    HW140229   2.790   8.299  14.219
46130SOL    HW240230   2.654   8.362  14.204
46131SOL     OW40231   3.327  10.547   3.305
46131SOL    HW140232   3.344  10.617   3.367
46131SOL    HW240233   3.232  10.548   3.292
46132SOL     OW40234   3.289  10.739   7.010
46132SOL    HW140235   3.197  10.717   6.997
46132SOL    HW240236   3.298  10.828   6.976
46133SOL     OW40237   2.448  12.969  14.279
46133SOL    HW140238   2.483  13.038  14.223
46133SOL    HW240239   2.393  13.015  14.342
46134SOL     OW40240  10.747   3.461   0.223
46134SOL    HW140241  10.817   3.449   0.159
46134SOL    HW240242  10.670   3.484   0.171
46135SOL     OW40243   2.294  10.214   4.193
46135SOL    HW140244   2.367  10.251   4.244
46135SOL    HW240245   2.232  10.286   4.183
46136SOL     OW40246   1.560  13.415  10.504
46136SOL    HW140247   1.619  13.489  10.514
46136SOL    HW240248   1.615  13.344  10.471
46137SOL     OW40249  12.051   4.351   1.207
46137SOL    HW140250  12.121   4.385   1.262
46137SOL    HW240251  12.028   4.425   1.150
46138SOL     OW40252   6.821  13.557  14.620
46138SOL    HW140253   6.857  13.543  14.533
46138SOL    HW240254   6.875  13.502  14.678
46139SOL     OW40255   5.243  13.376  13.837
46139SOL    HW140256   5.253  13.436  13.911
46139SOL    HW240257   5.296  13.300  13.861
46140SOL     OW40258   8.673   8.770   6.319
46140SOL    HW140259   8.763   8.797   6.301
46140SOL    HW240260   8.668   8.679   6.289
46141SOL     OW40261  13.975   1.329   3.364
46141SOL    HW140262  13.888   1.304   3.334
46141SOL    HW240263  13.959   1.399   3.427
46142SOL     OW40264  13.057   6.148   0.892
46142SOL    HW140265  12.980   6.205   0.889
46142SOL    HW240266  13.028   6.071   0.941
46143SOL     OW40267   7.009  13.107   2.184
46143SOL    HW140268   7.034  13.070   2.268
46143SOL    HW240269   7.078  13.080   2.124
46144SOL     OW40270   2.269  14.301   1.454
46144SOL    HW140271   2.322  14.225   1.433
46144SOL    HW240272   2.217  14.274   1.530
46145SOL     OW40273   3.274   6.593  12.327
46145SOL    HW140274   3.348   6.595  12.266
46145SOL    HW240275   3.206   6.546  12.280
46146SOL     OW40276  13.239  12.172   6.188
46146SOL    HW140277  13.222  12.078   6.187
46146SOL    HW240278  13.329  12.181   6.220
46147SOL     OW40279   4.437  13.477  10.561
46147SOL    HW140280   4.490  13.542  10.606
46147SOL    HW240281   4.433  13.403  10.622
46148SOL     OW40282   2.773   5.009   5.286
46148SOL    HW140283   2.772   5.043   5.197
46148SOL    HW240284   2.829   4.931   5.281
46149SOL     OW40285   5.573   0.825   6.766
46149SOL    HW140286   5.558   0.841   6.859
46149SOL    HW240287   5.574   0.912   6.726
46150SOL     OW40288  10.841   3.200   7.656
46150SOL    HW140289  10.928   3.211   7.694
46150SOL    HW240290  10.781   3.231   7.724
46151SOL     OW40291  12.481   0.555   9.668
46151SOL    HW140292  12.397   0.555   9.622
46151SOL    HW240293  12.474   0.484   9.732
46152SOL     OW40294   9.262   0.608   8.941
46152SOL    HW140295   9.254   0.700   8.968
46152SOL    HW240296   9.356   0.594   8.930
46153SOL     OW40297  13.855   5.138  13.363
46153SOL    HW140298  13.949   5.137  13.382
46153SOL    HW240299  13.844   5.080  13.288
46154SOL     OW40300   9.331  13.743  11.074
46154SOL    HW140301   9.370  13.816  11.122
46154SOL    HW240302   9.312  13.677  11.141
46155SOL     OW40303   0.660   0.140   5.541
46155SOL    HW140304   0.598   0.067   5.547
46155SOL    HW240305   0.604   0.216   5.527
46156SOL     OW40306   6.096   5.702   8.236
46156SOL    HW140307   6.029   5.712   8.168
46156SOL    HW240308   6.051   5.727   8.317
46157SOL     OW40309   7.139   6.729   9.393
46157SOL    HW140310   7.194   6.755   9.318
46157SOL    HW240311   7.090   6.808   9.415
46158SOL     OW40312   1.793   9.921   8.724
46158SOL    HW140313   1.828   9.959   8.805
46158SOL    HW240314   1.709   9.966   8.711
46159SOL     OW40315   2.362  12.271  10.953
46159SOL    HW140316   2.295  12.255  11.019
46159SOL    HW240317   2.445  12.252  10.997
46160SOL     OW40318   3.438  13.807   5.451
46160SOL    HW140319   3.512  13.857   5.486
46160SOL    HW240320   3.371  13.813   5.519
46161SOL     OW40321  13.868   2.686  10.300
46161SOL    HW140322  13.914   2.602  10.295
46161SOL    HW240323  13.790   2.673  10.247
46162SOL     OW40324   9.978   7.796   2.905
46162SOL    HW140325   9.949   7.772   2.818
46162SOL    HW240326  10.043   7.865   2.891
46163SOL     OW40327   8.145   1.304   4.500
46163SOL    HW140328   8.090   1.375   4.531
46163SOL    HW240329   8.108   1.281   4.414
46164SOL     OW40330  14.456  14.229   9.668
46164SOL    HW140331  14.377  14.283   9.672
46164SOL    HW240332  14.436  14.162   9.602
46165SOL     OW40333   1.671  12.914   0.753
46165SOL    HW140334   1.672  12.906   0.658
46165SOL    HW240335   1.734  12.983   0.772
46166SOL     OW40336  11.014  12.938   1.248
46166SOL    HW140337  11.104  12.908   1.235
46166SOL    HW240338  10.980  12.881   1.317
46167SOL     OW40339   4.124   0.746  12.033
46167SOL    HW140340   4.144   0.758  11.940
46167SOL    HW240341   4.133   0.833  12.071
46168SOL     OW40342   8.224   4.252  13.286
46168SOL    HW140343   8.242   4.183  13.222
46168SOL    HW240344   8.292   4.241  13.352
46169SOL     OW40345   3.749  11.729   0.571
46169SOL    HW140346   3.741  11.676   0.650
46169SOL    HW240347   3.745  11.665   0.499
46170SOL     OW40348   9.631   8.258   6.469
46170SOL    HW140349   9.698   8.253   6.537
46170SOL    HW240350   9.651   8.337   6.420
46171SOL     OW40351   1.139   8.409   8.496
46171SOL    HW140352   1.182   8.485   8.456
46171SOL    HW240353   1.153   8.420   8.590
46172SOL     OW40354  13.478  13.799  13.406
46172SOL    HW140355  13.384  13.781  13.407
46172SOL    HW240356  13.518  13.719  13.372
46173SOL     OW40357   4.330   1.239   3.382
46173SOL    HW140358   4.269   1.167   3.368
46173SOL    HW240359   4.386   1.209   3.454
46174SOL     OW40360   2.903   7.690   8.470
46174SOL    HW140361   2.824   7.693   8.415
46174SOL    HW240362   2.876   7.731   8.552
46175SOL     OW40363  11.245  11.971   2.319
46175SOL    HW140364  11.192  12.007   2.390
46175SOL    HW240365  11.251  12.042   2.255
46176SOL     OW40366   5.896   9.543   8.480
46176SOL    HW140367   5.928   9.553   8.570
46176SOL    HW240368   5.975   9.523   8.430
46177SOL     OW40369  13.473   8.246  13.012
46177SOL    HW140370  13.422   8.169  12.988
46177SOL    HW240371  13.559   8.232  12.971
46178SOL     OW40372   4.386   7.904   0.991
46178SOL    HW140373   4.476   7.917   1.021
46178SOL    HW240374   4.382   7.947   0.906
46179SOL     OW40375   7.119   0.654  14.019
46179SOL    HW140376   7.155   0.566  14.009
46179SOL    HW240377   7.035   0.641  14.063
46180SOL     OW40378   8.698  14.336   2.263
46180SOL    HW140379   8.756  14.408   2.241
46180SOL    HW240380   8.750  14.257   2.247
46181SOL     OW40381   4.756   7.992   3.022
46181SOL    HW140382   4.705   8.068   2.994
46181SOL    HW240383   4.746   7.929   2.950
46182SOL     OW40384   1.383   5.430  12.579
46182SOL    HW140385   1.313   5.484  12.544
46182SOL    HW240386   1.394   5.360  12.515
46183SOL     OW40387   0.092  13.676   3.861
46183SOL    HW140388   0.182  13.705   3.847
46183SOL    HW240389   0.100  13.595   3.911
46184SOL     OW40390   0.004  13.264   2.854
46184SOL    HW140391  14.816  13.211   2.806
46184SOL    HW240392  14.864  13.354   2.824
46185SOL     OW40393   7.074   3.869  11.859
46185SOL    HW140394   7.023   3.947  11.836
46185SOL    HW240395   7.069   3.814  11.782
46186SOL     OW40396   1.216  10.072   7.411
46186SOL    HW140397   1.257  10.096   7.328
46186SOL    HW240398   1.289  10.049   7.468
46187SOL     OW40399   4.498  10.273   3.055
46187SOL    HW140400   4.593  10.261   3.051
46187SOL    HW240401   4.480  10.294   3.147
46188SOL     OW40402  13.139   5.835   3.818
46188SOL    HW140403  13.060   5.883   3.843
46188SOL    HW240404  13.116   5.791   3.736
46189SOL     OW40405   2.972  13.513   7.983
46189SOL    HW140406   2.939  13.450   7.919
46189SOL    HW240407   3.040  13.465   8.031
46190SOL     OW40408  10.934   2.484  12.116
46190SOL    HW140409  10.913   2.569  12.077
46190SOL    HW240410  10.856   2.460  12.166
46191SOL     OW40411   8.234   1.865  12.553
46191SOL    HW140412   8.310   1.815  12.581
46191SOL    HW240413   8.257   1.957  12.572
46192SOL     OW40414   9.904   0.560   4.285
46192SOL    HW140415   9.974   0.499   4.312
46192SOL    HW240416   9.855   0.512   4.219
46193SOL     OW40417   1.458   9.948   6.674
46193SOL    HW140418   1.453   9.866   6.625
46193SOL    HW240419   1.541   9.943   6.721
46194SOL     OW40420   8.119  10.516   5.974
46194SOL    HW140421   8.101  10.519   6.068
46194SOL    HW240422   8.161  10.431   5.960
46195SOL     OW40423   9.349   7.090   9.257
46195SOL    HW140424   9.365   7.160   9.194
46195SOL    HW240425   9.285   7.127   9.318
46196SOL     OW40426  14.845   9.299  11.531
46196SOL    HW140427   0.061   9.319  11.514
46196SOL    HW240428  14.810   9.380  11.568
46197SOL     OW40429   7.313  12.766   6.963
46197SOL    HW140430   7.402  12.788   6.990
46197SOL    HW240431   7.263  12.846   6.975
46198SOL     OW40432  12.249   4.108   4.938
46198SOL    HW140433  12.225   4.017   4.957
46198SOL    HW240434  12.170   4.158   4.957
46199SOL     OW40435   9.175   7.850   6.876
46199SOL    HW140436   9.208   7.783   6.935
46199SOL    HW240437   9.221   7.930   6.902
46200SOL     OW40438   5.627  12.003   2.148
46200SOL    HW140439   5.717  12.025   2.170
46200SOL    HW240440   5.601  11.938   2.213
46201SOL     OW40441  14.433   7.340   7.887
46201SOL    HW140442  14.345   7.375   7.877
46201SOL    HW240443  14.489   7.417   7.898
46202SOL     OW40444   7.464   9.528   0.100
46202SOL    HW140445   7.373   9.509   0.075
46202SOL    HW240446   7.506   9.555   0.019
46203SOL     OW40447   7.997   3.675   3.569
46203SOL    HW140448   8.057   3.628   3.510
46203SOL    HW240449   7.956   3.741   3.514
46204SOL     OW40450  11.337  11.887   7.298
46204SOL    HW140451  11.263  11.944   7.281
46204SOL    HW240452  11.400  11.908   7.228
46205SOL     OW40453  12.294  12.798   9.039
46205SOL    HW140454  12.359  12.866   9.019
46205SOL    HW240455  12.344  12.716   9.036
46206SOL     OW40456  13.602  12.325   3.754
46206SOL    HW140457  13.518  12.349   3.715
46206SOL    HW240458  13.592  12.344   3.847
46207SOL     OW40459   1.680   1.925   7.510
46207SOL    HW140460   1.701   2.014   7.537
46207SOL    HW240461   1.625   1.936   7.432
46208SOL     OW40462   9.834  14.760   1.598
46208SOL    HW140463   9.795  14.687   1.645
46208SOL    HW240464   9.793  14.758   1.512
46209SOL     OW40465   8.581   5.915   1.914
46209SOL    HW140466   8.581   5.828   1.873
46209SOL    HW240467   8.611   5.900   2.003
46210SOL     OW40468  11.544  12.518   6.105
46210SOL    HW140469  11.596  12.549   6.031
46210SOL    HW240470  11.541  12.423   6.095
46211SOL     OW40471   6.357   0.717  11.826
46211SOL    HW140472   6.267   0.720  11.859
46211SOL    HW240473   6.349   0.683  11.737
46212SOL     OW40474  11.388  10.343   4.747
46212SOL    HW140475  11.462  10.306   4.699
46212SOL    HW240476  11.398  10.310   4.836
46213SOL     OW40477   0.166   6.530   5.072
46213SOL    HW140478   0.157   6.478   5.152
46213SOL    HW240479   0.078   6.566   5.057
46214SOL     OW40480  10.652   1.870   0.998
46214SOL    HW140481  10.694   1.956   0.990
46214SOL    HW240482  10.712   1.819   1.053
46215SOL     OW40483   5.538   1.411  14.527
46215SOL    HW140484   5.475   1.338  14.527
46215SOL    HW240485   5.616   1.375  14.569
46216SOL     OW40486  13.232   5.746  13.002
46216SOL    HW140487  13.210   5.830  13.043
46216SOL    HW240488  13.196   5.753  12.913
46217SOL     OW40489   9.121  10.505   3.361
46217SOL    HW140490   9.110  10.450   3.439
46217SOL    HW240491   9.161  10.447   3.296
46218SOL     OW40492  11.470   3.812   5.773
46218SOL    HW140493  11.437   3.874   5.708
46218SOL    HW240494  11.495   3.867   5.847
46219SOL     OW40495   9.680   1.016   7.077
46219SOL    HW140496   9.693   1.053   6.990
46219SOL    HW240497   9.648   1.089   7.130
46220SOL     OW40498   7.461   2.858   5.242
46220SOL    HW140499   7.431   2.935   5.192
46220SOL    HW240500   7.552   2.877   5.262
46221SOL     OW40501   8.124   7.117   6.357
46221SOL    HW140502   8.192   7.150   6.415
46221SOL    HW240503   8.045   7.164   6.383
46222SOL     OW40504   7.058   2.833   7.681
46222SOL    HW140505   7.086   2.773   7.750
46222SOL    HW240506   6.981   2.791   7.643
46223SOL     OW40507   6.085   3.884   0.558
46223SOL    HW140508   6.172   3.885   0.518
46223SOL    HW240509   6.042   3.807   0.520
46224SOL     OW40510   7.686   7.142  12.287
46224SOL    HW140511   7.641   7.205  12.230
46224SOL    HW240512   7.695   7.188  12.371
46225SOL     OW40513  11.316   6.371   3.948
46225SOL    HW140514  11.406   6.372   3.978
46225SOL    HW240515  11.264   6.384   4.027
46226SOL     OW40516  14.203  14.114   8.027
46226SOL    HW140517  14.142  14.100   7.954
46226SOL    HW240518  14.289  14.116   7.986
46227SOL     OW40519   0.160  12.762   8.991
46227SOL    HW140520   0.118  12.720   8.916
46227SOL    HW240521   0.239  12.711   9.006
46228SOL     OW40522  14.499  14.264   7.209
46228SOL    HW140523  14.557  14.296   7.278
46228SOL    HW240524  14.483  14.340   7.153
46229SOL     OW40525  10.173  14.648   0.102
46229SOL    HW140526  10.087  14.690   0.094
46229SOL    HW240527  10.160  14.561   0.064
46230SOL     OW40528  14.601   9.058  11.040
46230SOL    HW140529  14.543   9.125  11.075
46230SOL    HW240530  14.653   9.103  10.973
46231SOL     OW40531  11.189   0.089   2.658
46231SOL    HW140532  11.102   0.098   2.620
46231SOL    HW240533  11.189   0.147   2.734
46232SOL     OW40534   5.771   1.598   5.385
46232SOL    HW140535   5.857   1.614   5.423
46232SOL    HW240536   5.789   1.549   5.305
46233SOL     OW40537  11.595   3.563  11.784
46233SOL    HW140538  11.585   3.522  11.870
46233SOL    HW240539  11.510   3.601  11.766
46234SOL     OW40540   1.752   6.235   6.444
46234SOL    HW140541   1.743   6.274   6.357
46234SOL    HW240542   1.669   6.188   6.458
46235SOL     OW40543   6.507   5.601   3.196
46235SOL    HW140544   6.464   5.668   3.249
46235SOL    HW240545   6.435   5.548   3.161
46236SOL     OW40546   4.633   9.368   9.672
46236SOL    HW140547   4.639   9.402   9.582
46236SOL    HW240548   4.581   9.288   9.663
46237SOL     OW40549  10.826   6.497   8.873
46237SOL    HW140550  10.772   6.431   8.831
46237SOL    HW240551  10.794   6.581   8.838
46238SOL     OW40552   0.289  12.013  10.377
46238SOL    HW140553   0.367  12.067  10.387
46238SOL    HW240554   0.232  12.040  10.449
46239SOL     OW40555   5.836  10.990  10.661
46239SOL    HW140556   5.749  10.961  10.634
46239SOL    HW240557   5.881  10.910  10.688
46240SOL     OW40558   2.347   6.382   1.493
46240SOL    HW140559   2.310   6.341   1.415
46240SOL    HW240560   2.317   6.473   1.489
46241SOL     OW40561   5.207   7.871   0.226
46241SOL    HW140562   5.272   7.905   0.164
46241SOL    HW240563   5.164   7.800   0.180
46242SOL     OW40564   8.041   5.199  12.090
46242SOL    HW140565   7.977   5.139  12.127
46242SOL    HW240566   7.998   5.285  12.094
46243SOL     OW40567  10.634   6.519  14.367
46243SOL    HW140568  10.606   6.555  14.283
46243SOL    HW240569  10.608   6.585  14.432
46244SOL     OW40570   7.982   7.680   6.803
46244SOL    HW140571   8.003   7.715   6.890
46244SOL    HW240572   7.940   7.753   6.758
46245SOL     OW40573  11.136   9.402   6.139
46245SOL    HW140574  11.133   9.344   6.063
46245SOL    HW240575  11.149   9.489   6.102
46246SOL     OW40576  11.048   8.618  12.783
46246SOL    HW140577  11.051   8.687  12.717
46246SOL    HW240578  10.966   8.634  12.830
46247SOL     OW40579   1.471   4.010   1.482
46247SOL    HW140580   1.419   4.053   1.414
46247SOL    HW240581   1.407   3.956   1.529
46248SOL     OW40582  10.705   5.803   3.757
46248SOL    HW140583  10.763   5.768   3.824
46248SOL    HW240584  10.679   5.889   3.790
46249SOL     OW40585   1.843  14.265   1.645
46249SOL    HW140586   1.760  14.225   1.669
46249SOL    HW240587   1.829  14.359   1.655
46250SOL     OW40588   2.062   8.817  14.088
46250SOL    HW140589   2.008   8.850  14.016
46250SOL    HW240590   2.008   8.750  14.130
46251SOL     OW40591   6.505   8.748   0.436
46251SOL    HW140592   6.599   8.759   0.452
46251SOL    HW240593   6.494   8.761   0.342
46252SOL     OW40594   5.509   8.802   5.146
46252SOL    HW140595   5.536   8.720   5.187
46252SOL    HW240596   5.538   8.870   5.207
46253SOL     OW40597  12.386   5.055   8.775
46253SOL    HW140598  12.478   5.080   8.768
46253SOL    HW240599  12.343   5.104   8.705
46254SOL     OW40600   6.367  11.565   4.762
46254SOL    HW140601   6.414  11.579   4.844
46254SOL    HW240602   6.320  11.483   4.775
46255SOL     OW40603   9.382   9.088  14.273
46255SOL    HW140604   9.473   9.062  14.283
46255SOL    HW240605   9.370   9.096  14.178
46256SOL     OW40606   9.851   0.262   2.308
46256SOL    HW140607   9.782   0.292   2.368
46256SOL    HW240608   9.932   0.273   2.358
46257SOL     OW40609   2.637  11.205   2.426
46257SOL    HW140610   2.709  11.151   2.460
46257SOL    HW240611   2.606  11.254   2.503
46258SOL     OW40612   8.619  10.498   8.309
46258SOL    HW140613   8.611  10.585   8.347
46258SOL    HW240614   8.558  10.498   8.236
46259SOL     OW40615   2.277   8.629   6.644
46259SOL    HW140616   2.335   8.553   6.652
46259SOL    HW240617   2.226   8.629   6.725
46260SOL     OW40618   6.362   7.210   0.269
46260SOL    HW140619   6.355   7.290   0.216
46260SOL    HW240620   6.456   7.196   0.278
46261SOL     OW40621  12.766  10.222   0.575
46261SOL    HW140622  12.757  10.215   0.670
46261SOL    HW240623  12.704  10.157   0.541
46262SOL     OW40624  11.042   4.609   9.486
46262SOL    HW140625  10.990   4.534   9.459
46262SOL    HW240626  11.075   4.586   9.573
46263SOL     OW40627  13.668  12.783   2.935
46263SOL    HW140628  13.674  12.855   2.873
46263SOL    HW240629  13.739  12.800   2.998
46264SOL     OW40630   8.893  13.663  14.620
46264SOL    HW140631   8.957  13.657  14.691
46264SOL    HW240632   8.945  13.678  14.541
46265SOL     OW40633  13.359  12.042   8.617
46265SOL    HW140634  13.349  12.044   8.712
46265SOL    HW240635  13.356  12.134   8.591
46266SOL     OW40636   9.795  12.152  12.934
46266SOL    HW140637   9.746  12.208  12.994
46266SOL    HW240638   9.867  12.118  12.987
46267SOL     OW40639   2.962   7.135  14.730
46267SOL    HW140640   2.917   7.132  14.645
46267SOL    HW240641   2.892   7.127  14.794
46268SOL     OW40642   9.862   5.363   8.102
46268SOL    HW140643   9.916   5.434   8.068
46268SOL    HW240644   9.793   5.352   8.037
46269SOL     OW40645   6.012   3.872  10.242
46269SOL    HW140646   6.105   3.891  10.254
46269SOL    HW240647   5.978   3.951  10.199
46270SOL     OW40648   0.241  10.722  12.360
46270SOL    HW140649   0.239  10.638  12.406
46270SOL    HW240650   0.249  10.698  12.267
46271SOL     OW40651   1.237   6.518   3.534
46271SOL    HW140652   1.252   6.526   3.628
46271SOL    HW240653   1.221   6.424   3.520
46272SOL     OW40654   5.436   7.877   1.651
46272SOL    HW140655   5.483   7.959   1.636
46272SOL    HW240656   5.352   7.904   1.689
46273SOL     OW40657  14.262   0.456  10.437
46273SOL    HW140658  14.204   0.436  10.510
46273SOL    HW240659  14.210   0.435  10.359
46274SOL     OW40660  14.661   4.432   7.679
46274SOL    HW140661  14.721   4.503   7.698
46274SOL    HW240662  14.615   4.460   7.600
46275SOL     OW40663   0.584   6.087   9.295
46275SOL    HW140664   0.676   6.066   9.315
46275SOL    HW240665   0.551   6.008   9.252
46276SOL     OW40666  14.834   6.559   6.842
46276SOL    HW140667  14.836   6.469   6.810
46276SOL    HW240668   0.026   6.604   6.793
46277SOL     OW40669  11.880   3.709   3.226
46277SOL    HW140670  11.967   3.672   3.210
46277SOL    HW240671  11.836   3.644   3.281
46278SOL     OW40672   7.139  13.471   3.915
46278SOL    HW140673   7.114  13.540   3.854
46278SOL    HW240674   7.231  13.453   3.895
46279SOL     OW40675   9.273   5.628   8.880
46279SOL    HW140676   9.256   5.590   8.966
46279SOL    HW240677   9.211   5.699   8.872
46280SOL     OW40678   7.991   7.915   3.630
46280SOL    HW140679   7.912   7.954   3.592
46280SOL    HW240680   8.009   7.838   3.575
46281SOL     OW40681   0.671  12.126  14.780
46281SOL    HW140682   0.730  12.068  14.827
46281SOL    HW240683   0.612  12.067  14.733
46282SOL     OW40684   3.456  13.412   6.185
46282SOL    HW140685   3.466  13.319   6.168
46282SOL    HW240686   3.362  13.429   6.180
46283SOL     OW40687  13.775  11.415   7.354
46283SOL    HW140688  13.817  11.433   7.271
46283SOL    HW240689  13.719  11.339   7.336
46284SOL     OW40690  11.202   7.478   2.745
46284SOL    HW140691  11.166   7.503   2.830
46284SOL    HW240692  11.291   7.514   2.746
46285SOL     OW40693  11.202   5.705  11.457
46285SOL    HW140694  11.251   5.653  11.393
46285SOL    HW240695  11.186   5.788  11.413
46286SOL     OW40696   6.567   0.425  11.564
46286SOL    HW140697   6.606   0.418  11.651
46286SOL    HW240698   6.624   0.372  11.508
46287SOL     OW40699  12.379  13.899   9.951
46287SOL    HW140700  12.460  13.849   9.942
46287SOL    HW240701  12.310  13.833   9.954
46288SOL     OW40702   6.319   1.851  12.554
46288SOL    HW140703   6.405   1.816  12.528
46288SOL    HW240704   6.317   1.842  12.649
46289SOL     OW40705   8.973   9.398   5.913
46289SOL    HW140706   9.012   9.407   5.826
46289SOL    HW240707   8.897   9.341   5.899
46290SOL     OW40708  12.301   9.414   3.430
46290SOL    HW140709  12.339   9.500   3.411
46290SOL    HW240710  12.320   9.400   3.523
46291SOL     OW40711   3.676   2.220  13.306
46291SOL    HW140712   3.693   2.276  13.381
46291SOL    HW240713   3.618   2.272  13.250
46292SOL     OW40714   6.791   4.784   1.112
46292SOL    HW140715   6.751   4.784   1.199
46292SOL    HW240716   6.781   4.874   1.081
46293SOL     OW40717   1.484   5.892   3.704
46293SOL    HW140718   1.508   5.984   3.702
46293SOL    HW240719   1.560   5.846   3.669
46294SOL     OW40720  13.672  10.846   1.590
46294SOL    HW140721  13.732  10.889   1.529
46294SOL    HW240722  13.727  10.814   1.661
46295SOL     OW40723  13.146   2.798  12.852
46295SOL    HW140724  13.073   2.758  12.899
46295SOL    HW240725  13.109   2.877  12.812
46296SOL     OW40726  11.995   5.450   0.039
46296SOL    HW140727  11.997   5.361   0.076
46296SOL    HW240728  11.996   5.436  14.821
46297SOL     OW40729  11.335   0.318   6.320
46297SOL    HW140730  11.393   0.340   6.393
46297SOL    HW240731  11.254   0.363   6.339
46298SOL     OW40732   4.195  11.861  11.991
46298SOL    HW140733   4.287  11.835  11.982
46298SOL    HW240734   4.147  11.799  11.936
46299SOL     OW40735   6.098  11.160   9.109
46299SOL    HW140736   6.140  11.245   9.097
46299SOL    HW240737   6.083  11.154   9.203
46300SOL     OW40738   7.910   4.793   2.778
46300SOL    HW140739   7.831   4.782   2.831
46300SOL    HW240740   7.884   4.855   2.710
46301SOL     OW40741   2.604  14.066   9.235
46301SOL    HW140742   2.665  14.022   9.294
46301SOL    HW240743   2.656  14.136   9.194
46302SOL     OW40744   7.803   6.019   9.277
46302SOL    HW140745   7.842   6.041   9.361
46302SOL    HW240746   7.861   5.953   9.240
46303SOL     OW40747  13.960   3.731   7.880
46303SOL    HW140748  13.868   3.731   7.856
46303SOL    HW240749  14.006   3.759   7.801
46304SOL     OW40750  11.182   3.836  13.158
46304SOL    HW140751  11.250   3.835  13.226
46304SOL    HW240752  11.166   3.744  13.138
46305SOL     OW40753  13.388  10.553  10.133
46305SOL    HW140754  13.468  10.603  10.121
46305SOL    HW240755  13.417  10.461  10.132
46306SOL     OW40756  13.953   1.158   4.457
46306SOL    HW140757  14.015   1.085   4.459
46306SOL    HW240758  13.933   1.169   4.364
46307SOL     OW40759  14.528   4.790   0.821
46307SOL    HW140760  14.604   4.840   0.791
46307SOL    HW240761  14.528   4.800   0.916
46308SOL     OW40762   7.591  14.759   7.428
46308SOL    HW140763   7.514  14.702   7.430
46308SOL    HW240764   7.586  14.803   7.344
46309SOL     OW40765   1.559  10.835   2.135
46309SOL    HW140766   1.568  10.792   2.050
46309SOL    HW240767   1.506  10.913   2.117
46310SOL     OW40768   0.033  11.743   3.252
46310SOL    HW140769   0.037  11.838   3.262
46310SOL    HW240770  14.817  11.724   3.235
46311SOL     OW40771   5.674  12.827  14.734
46311SOL    HW140772   5.613  12.889  14.776
46311SOL    HW240773   5.634  12.741  14.748
46312SOL     OW40774  13.060  13.853   5.068
46312SOL    HW140775  13.101  13.935   5.039
46312SOL    HW240776  13.100  13.835   5.153
46313SOL     OW40777  13.415   8.094   2.287
46313SOL    HW140778  13.493   8.051   2.325
46313SOL    HW240779  13.428   8.087   2.193
46314SOL     OW40780  10.530   9.192   4.804
46314SOL    HW140781  10.447   9.241   4.807
46314SOL    HW240782  10.547   9.167   4.895
46315SOL     OW40783   6.964   2.179  13.685
46315SOL    HW140784   7.032   2.199  13.750
46315SOL    HW240785   6.936   2.264  13.653
46316SOL     OW40786   9.085  11.194   7.628
46316SOL    HW140787   9.059  11.118   7.577
46316SOL    HW240788   9.004  11.223   7.670
46317SOL     OW40789  10.592   3.136   8.721
46317SOL    HW140790  10.615   3.139   8.814
46317SOL    HW240791  10.505   3.097   8.719
46318SOL     OW40792   0.455  14.453  12.892
46318SOL    HW140793   0.377  14.448  12.947
46318SOL    HW240794   0.433  14.517  12.824
46319SOL     OW40795   1.564   7.295  13.294
46319SOL    HW140796   1.557   7.201  13.309
46319SOL    HW240797   1.477   7.329  13.316
46320SOL     OW40798   7.835   0.190  11.946
46320SOL    HW140799   7.931   0.183  11.945
46320SOL    HW240800   7.817   0.267  11.891
46321SOL     OW40801  12.496   1.584   8.726
46321SOL    HW140802  12.542   1.644   8.785
46321SOL    HW240803  12.555   1.509   8.717
46322SOL     OW40804   2.489  13.660   0.817
46322SOL    HW140805   2.497  13.660   0.722
46322SOL    HW240806   2.566  13.708   0.848
46323SOL     OW40807   0.780   4.374   3.731
46323SOL    HW140808   0.779   4.385   3.826
46323SOL    HW240809   0.697   4.412   3.702
46324SOL     OW40810   5.820  13.932   1.248
46324SOL    HW140811   5.851  13.846   1.217
46324SOL    HW240812   5.759  13.912   1.319
46325SOL     OW40813   5.502  12.194   6.989
46325SOL    HW140814   5.585  12.239   6.970
46325SOL    HW240815   5.528  12.119   7.043
46326SOL     OW40816  10.149   5.955   4.482
46326SOL    HW140817  10.242   5.977   4.488
46326SOL    HW240818  10.104   6.028   4.525
46327SOL     OW40819  11.160  10.633   8.207
46327SOL    HW140820  11.112  10.559   8.170
46327SOL    HW240821  11.095  10.683   8.255
46328SOL     OW40822   4.224   8.710   6.479
46328SOL    HW140823   4.248   8.620   6.455
46328SOL    HW240824   4.308   8.756   6.484
46329SOL     OW40825   9.893   9.267  11.119
46329SOL    HW140826   9.824   9.249  11.055
46329SOL    HW240827   9.967   9.214  11.090
46330SOL     OW40828   4.981   5.368   9.137
46330SOL    HW140829   4.887   5.357   9.154
46330SOL    HW240830   4.985   5.403   9.048
46331SOL     OW40831  14.266   4.114  12.211
46331SOL    HW140832  14.173   4.133  12.221
46331SOL    HW240833  14.274   4.075  12.124
46332SOL     OW40834  14.604  10.153   0.738
46332SOL    HW140835  14.539  10.211   0.699
46332SOL    HW240836  14.582  10.066   0.703
46333SOL     OW40837   8.299  14.008   7.711
46333SOL    HW140838   8.353  13.968   7.779
46333SOL    HW240839   8.362  14.039   7.646
46334SOL     OW40840  14.690   3.134  11.166
46334SOL    HW140841  14.740   3.066  11.211
46334SOL    HW240842  14.735   3.216  11.188
46335SOL     OW40843  12.115   6.106  12.412
46335SOL    HW140844  12.087   6.018  12.389
46335SOL    HW240845  12.204   6.094  12.446
46336SOL     OW40846   7.930   0.063   4.272
46336SOL    HW140847   7.991   0.025   4.209
46336SOL    HW240848   7.925   0.155   4.247
46337SOL     OW40849  12.435  10.420  10.641
46337SOL    HW140850  12.451  10.510  10.668
46337SOL    HW240851  12.436  10.369  10.722
46338SOL     OW40852   9.148   8.774   4.822
46338SOL    HW140853   9.125   8.727   4.741
46338SOL    HW240854   9.240   8.754   4.835
46339SOL     OW40855   6.900  10.003   6.333
46339SOL    HW140856   6.909  10.050   6.416
46339SOL    HW240857   6.840  10.057   6.281
46340SOL     OW40858   1.604   1.202  11.918
46340SOL    HW140859   1.633   1.228  12.005
46340SOL    HW240860   1.671   1.238  11.859
46341SOL     OW40861   3.489  14.807  14.230
46341SOL    HW140862   3.569  14.775  14.189
46341SOL    HW240863   3.518  14.843  14.314
46342SOL     OW40864  14.081   2.368   5.164
46342SOL    HW140865  14.078   2.393   5.072
46342SOL    HW240866  13.996   2.393   5.198
46343SOL     OW40867  13.700   0.288   7.162
46343SOL    HW140868  13.700   0.333   7.078
46343SOL    HW240869  13.696   0.195   7.140
46344SOL     OW40870   9.216   1.861   3.772
46344SOL    HW140871   9.140   1.883   3.718
46344SOL    HW240872   9.223   1.932   3.835
46345SOL     OW40873   4.160  11.303  11.777
46345SOL    HW140874   4.179  11.270  11.689
46345SOL    HW240875   4.245  11.328  11.813
46346SOL     OW40876   7.939  14.380   6.665
46346SOL    HW140877   7.851  14.414   6.648
46346SOL    HW240878   7.965  14.339   6.582
46347SOL     OW40879   6.715   9.092   0.106
46347SOL    HW140880   6.713   9.187   0.119
46347SOL    HW240881   6.766   9.060   0.180
46348SOL     OW40882   7.057   2.758   6.827
46348SOL    HW140883   7.086   2.813   6.900
46348SOL    HW240884   7.129   2.765   6.763
46349SOL     OW40885  10.275  11.492   1.734
46349SOL    HW140886  10.185  11.483   1.765
46349SOL    HW240887  10.323  11.524   1.811
46350SOL     OW40888  10.936  14.392  10.666
46350SOL    HW140889  10.929  14.298  10.652
46350SOL    HW240890  10.847  14.425  10.652
46351SOL     OW40891   5.104  11.025  10.952
46351SOL    HW140892   5.016  11.000  10.924
46351SOL    HW240893   5.090  11.081  11.028
46352SOL     OW40894   0.696  14.473  13.920
46352SOL    HW140895   0.695  14.390  13.968
46352SOL    HW240896   0.742  14.453  13.838
46353SOL     OW40897   4.705  10.017   0.688
46353SOL    HW140898   4.695   9.942   0.747
46353SOL    HW240899   4.620  10.060   0.689
46354SOL     OW40900   7.472   7.996   7.812
46354SOL    HW140901   7.566   7.986   7.826
46354SOL    HW240902   7.432   7.928   7.867
46355SOL     OW40903   6.691  10.765  11.899
46355SOL    HW140904   6.754  10.828  11.936
46355SOL    HW240905   6.729  10.739  11.815
46356SOL     OW40906  11.243   6.175   0.371
46356SOL    HW140907  11.299   6.103   0.343
46356SOL    HW240908  11.222   6.222   0.291
46357SOL     OW40909   9.928   0.749  11.998
46357SOL    HW140910   9.917   0.822  12.059
46357SOL    HW240911   9.846   0.700  12.003
46358SOL     OW40912   0.823   8.001   8.187
46358SOL    HW140913   0.738   8.012   8.144
46358SOL    HW240914   0.825   8.070   8.254
46359SOL     OW40915  10.522   6.161  12.077
46359SOL    HW140916  10.439   6.161  12.028
46359SOL    HW240917  10.501   6.118  12.160
46360SOL     OW40918   2.869   6.100   4.064
46360SOL    HW140919   2.947   6.113   4.010
46360SOL    HW240920   2.903   6.096   4.154
46361SOL     OW40921   9.172   7.009  11.626
46361SOL    HW140922   9.131   6.991  11.710
46361SOL    HW240923   9.228   7.085  11.642
46362SOL     OW40924   8.867  12.362  12.607
46362SOL    HW140925   8.790  12.398  12.651
46362SOL    HW240926   8.917  12.438  12.578
46363SOL     OW40927   3.017   3.035   3.843
46363SOL    HW140928   2.971   2.969   3.894
46363SOL    HW240929   2.972   3.036   3.758
46364SOL     OW40930   9.914  14.584  12.245
46364SOL    HW140931   9.894  14.495  12.274
46364SOL    HW240932   9.993  14.574  12.192
46365SOL     OW40933   9.824   9.948  12.179
46365SOL    HW140934   9.831  10.043  12.190
46365SOL    HW240935   9.800   9.916  12.266
46366SOL     OW40936   5.733   0.288   3.903
46366SOL    HW140937   5.735   0.214   3.964
46366SOL    HW240938   5.666   0.265   3.839
46367SOL     OW40939   2.711  10.966   3.256
46367SOL    HW140940   2.728  10.875   3.280
46367SOL    HW240941   2.737  11.016   3.333
46368SOL     OW40942   2.618   0.523   2.126
46368SOL    HW140943   2.528   0.555   2.127
46368SOL    HW240944   2.629   0.482   2.212
46369SOL     OW40945   9.520  12.984   3.678
46369SOL    HW140946   9.550  12.900   3.712
46369SOL    HW240947   9.453  12.961   3.614
46370SOL     OW40948   5.999  12.632  12.594
46370SOL    HW140949   5.962  12.629  12.682
46370SOL    HW240950   6.091  12.651  12.607
46371SOL     OW40951   4.968   6.894   0.923
46371SOL    HW140952   5.055   6.871   0.956
46371SOL    HW240953   4.983   6.966   0.862
46372SOL     OW40954   2.343   4.696   8.089
46372SOL    HW140955   2.324   4.683   8.182
46372SOL    HW240956   2.260   4.680   8.045
46373SOL     OW40957   6.623   4.114   4.916
46373SOL    HW140958   6.680   4.070   4.979
46373SOL    HW240959   6.646   4.076   4.832
46374SOL     OW40960  10.476   3.794  11.558
46374SOL    HW140961  10.511   3.866  11.610
46374SOL    HW240962  10.471   3.720  11.618
46375SOL     OW40963  13.373  12.984   6.394
46375SOL    HW140964  13.329  12.969   6.311
46375SOL    HW240965  13.464  13.000   6.370
46376SOL     OW40966   1.649   7.742  14.089
46376SOL    HW140967   1.605   7.808  14.036
46376SOL    HW240968   1.581   7.709  14.148
46377SOL     OW40969   2.515   9.529   2.659
46377SOL    HW140970   2.577   9.600   2.643
46377SOL    HW240971   2.431   9.573   2.673
46378SOL     OW40972   6.978  12.949   9.373
46378SOL    HW140973   6.988  12.929   9.280
46378SOL    HW240974   7.039  12.889   9.417
46379SOL     OW40975   7.724  13.277   5.585
46379SOL    HW140976   7.768  13.203   5.542
46379SOL    HW240977   7.635  13.276   5.551
46380SOL     OW40978   7.550   8.296  11.474
46380SOL    HW140979   7.603   8.309  11.553
46380SOL    HW240980   7.470   8.253  11.506
46381SOL     OW40981   4.723   5.855   6.935
46381SOL    HW140982   4.778   5.778   6.955
46381SOL    HW240983   4.711   5.852   6.840
46382SOL     OW40984  10.109   3.964   2.778
46382SOL    HW140985  10.127   3.884   2.729
46382SOL    HW240986  10.078   4.026   2.711
46383SOL     OW40987   7.378   3.819  13.702
46383SOL    HW140988   7.452   3.837  13.644
46383SOL    HW240989   7.301   3.830  13.646
46384SOL     OW40990   2.892   7.007  12.742
46384SOL    HW140991   2.863   6.917  12.726
46384SOL    HW240992   2.885   7.017  12.837
46385SOL     OW40993  12.357  11.177   2.678
46385SOL    HW140994  12.333  11.092   2.715
46385SOL    HW240995  12.433  11.159   2.623
46386SOL     OW40996   9.719   0.677   2.313
46386SOL    HW140997   9.720   0.592   2.270
46386SOL    HW240998   9.700   0.739   2.243
46387SOL     OW40999  14.159   7.670   8.553
46387SOL    HW141000  14.150   7.738   8.486
46387SOL    HW241001  14.109   7.596   8.518
46388SOL     OW41002  11.512  10.913   9.432
46388SOL    HW141003  11.479  10.881   9.516
46388SOL    HW241004  11.444  10.972   9.400
46389SOL     OW41005  14.188  12.031   6.188
46389SOL    HW141006  14.163  12.011   6.098
46389SOL    HW241007  14.159  11.954   6.238
46390SOL     OW41008   6.669   2.022   1.428
46390SOL    HW141009   6.747   1.998   1.378
46390SOL    HW241010   6.698   2.089   1.489
46391SOL     OW41011  11.361  12.609   8.254
46391SOL    HW141012  11.362  12.650   8.341
46391SOL    HW241013  11.417  12.532   8.264
46392SOL     OW41014   9.876  14.072   8.967
46392SOL    HW141015   9.935  14.143   8.942
46392SOL    HW241016   9.933  14.009   9.012
46393SOL     OW41017   7.093   6.346  10.241
46393SOL    HW141018   7.053   6.431  10.258
46393SOL    HW241019   7.075   6.329  10.148
46394SOL     OW41020   9.862  11.284   7.438
46394SOL    HW141021   9.933  11.219   7.434
46394SOL    HW241022   9.842  11.292   7.531
46395SOL     OW41023   3.429   9.191  11.466
46395SOL    HW141024   3.459   9.112  11.421
46395SOL    HW241025   3.337   9.199  11.443
46396SOL     OW41026  11.234  10.843   5.259
46396SOL    HW141027  11.149  10.820   5.223
46396SOL    HW241028  11.229  10.816   5.351
46397SOL     OW41029   7.622   2.261   7.553
46397SOL    HW141030   7.636   2.215   7.635
46397SOL    HW241031   7.639   2.196   7.485
46398SOL     OW41032   5.539   7.917   6.787
46398SOL    HW141033   5.577   7.832   6.762
46398SOL    HW241034   5.456   7.921   6.739
46399SOL     OW41035  12.359   7.376  11.327
46399SOL    HW141036  12.362   7.441  11.397
46399SOL    HW241037  12.301   7.414  11.261
46400SOL     OW41038   8.312   4.597   5.139
46400SOL    HW141039   8.395   4.635   5.168
46400SOL    HW241040   8.266   4.574   5.220
46401SOL     OW41041   3.180   7.024  11.121
46401SOL    HW141042   3.208   7.053  11.034
46401SOL    HW241043   3.186   6.928  11.117
46402SOL     OW41044   2.237   8.383   3.832
46402SOL    HW141045   2.172   8.409   3.767
46402SOL    HW241046   2.189   8.330   3.895
46403SOL     OW41047   0.784  12.373   2.619
46403SOL    HW141048   0.794  12.355   2.713
46403SOL    HW241049   0.690  12.374   2.605
46404SOL     OW41050   6.386  12.601   6.011
46404SOL    HW141051   6.387  12.563   6.099
46404SOL    HW241052   6.310  12.659   6.011
46405SOL     OW41053   8.880   9.950   0.071
46405SOL    HW141054   8.794   9.938   0.113
46405SOL    HW241055   8.860   9.982  14.860
46406SOL     OW41056   1.776   0.135  11.065
46406SOL    HW141057   1.840   0.066  11.078
46406SOL    HW241058   1.808   0.208  11.118
46407SOL     OW41059  12.995  12.498   0.651
46407SOL    HW141060  13.026  12.558   0.583
46407SOL    HW241061  12.979  12.554   0.726
46408SOL     OW41062   1.120  10.741   4.577
46408SOL    HW141063   1.213  10.743   4.551
46408SOL    HW241064   1.123  10.736   4.672
46409SOL     OW41065   3.590   6.130   9.397
46409SOL    HW141066   3.669   6.172   9.432
46409SOL    HW241067   3.570   6.179   9.317
46410SOL     OW41068  12.434  13.618   2.907
46410SOL    HW141069  12.448  13.559   2.981
46410SOL    HW241070  12.389  13.565   2.841
46411SOL     OW41071   8.660  12.544   3.232
46411SOL    HW141072   8.621  12.509   3.312
46411SOL    HW241073   8.664  12.468   3.173
46412SOL     OW41074   9.765   3.543  12.438
46412SOL    HW141075   9.824   3.617  12.451
46412SOL    HW241076   9.818   3.466  12.458
46413SOL     OW41077   6.004   2.623   3.185
46413SOL    HW141078   6.089   2.668   3.186
46413SOL    HW241079   5.981   2.617   3.093
46414SOL     OW41080   8.309   7.625  12.175
46414SOL    HW141081   8.233   7.679  12.196
46414SOL    HW241082   8.340   7.593  12.260
46415SOL     OW41083  10.427   8.545   8.558
46415SOL    HW141084  10.347   8.561   8.608
46415SOL    HW241085  10.447   8.629   8.517
46416SOL     OW41086   1.118  13.543  12.716
46416SOL    HW141087   1.147  13.560  12.626
46416SOL    HW241088   1.131  13.449  12.728
46417SOL     OW41089  13.675  10.755   6.187
46417SOL    HW141090  13.685  10.701   6.265
46417SOL    HW241091  13.581  10.754   6.168
46418SOL     OW41092  14.706   7.839   0.089
46418SOL    HW141093  14.752   7.758   0.111
46418SOL    HW241094  14.775   7.901   0.066
46419SOL     OW41095   2.008  10.288   7.637
46419SOL    HW141096   1.997  10.254   7.725
46419SOL    HW241097   2.015  10.210   7.581
46420SOL     OW41098   3.133   2.374   4.203
46420SOL    HW141099   3.048   2.329   4.208
46420SOL    HW241100   3.197   2.307   4.225
46421SOL     OW41101   8.704   5.235   3.694
46421SOL    HW141102   8.783   5.288   3.692
46421SOL    HW241103   8.722   5.168   3.761
46422SOL     OW41104  13.317   8.450   2.003
46422SOL    HW141105  13.251   8.381   2.011
46422SOL    HW241106  13.380   8.432   2.072
46423SOL     OW41107  12.025  13.511   9.513
46423SOL    HW141108  12.031  13.595   9.558
46423SOL    HW241109  12.113  13.497   9.477
46424SOL     OW41110   7.217  10.780  13.640
46424SOL    HW141111   7.178  10.703  13.597
46424SOL    HW241112   7.287  10.807  13.580
46425SOL     OW41113   8.271   5.496  14.241
46425SOL    HW141114   8.264   5.442  14.320
46425SOL    HW241115   8.335   5.563  14.264
46426SOL     OW41116  13.115   8.906  12.930
46426SOL    HW141117  13.152   8.887  12.844
46426SOL    HW241118  13.115   9.002  12.936
46427SOL     OW41119  11.210   9.210   2.096
46427SOL    HW141120  11.189   9.139   2.036
46427SOL    HW241121  11.249   9.167   2.172
46428SOL     OW41122  13.081   6.409   6.716
46428SOL    HW141123  13.143   6.447   6.779
46428SOL    HW241124  13.063   6.321   6.751
46429SOL     OW41125   9.044   7.458   3.285
46429SOL    HW141126   8.993   7.488   3.210
46429SOL    HW241127   8.998   7.380   3.316
46430SOL     OW41128  11.430   5.655   7.966
46430SOL    HW141129  11.456   5.621   7.880
46430SOL    HW241130  11.358   5.715   7.948
46431SOL     OW41131   8.207  14.841  10.235
46431SOL    HW141132   8.182   0.057  10.232
46431SOL    HW241133   8.300  14.842  10.257
46432SOL     OW41134   6.678   9.254   7.476
46432SOL    HW141135   6.589   9.262   7.440
46432SOL    HW241136   6.670   9.287   7.566
46433SOL     OW41137   5.464   9.975   5.441
46433SOL    HW141138   5.381   9.929   5.450
46433SOL    HW241139   5.505   9.936   5.364
46434SOL     OW41140   7.170   5.738   5.534
46434SOL    HW141141   7.159   5.715   5.626
46434SOL    HW241142   7.095   5.698   5.490
46435SOL     OW41143   4.306   5.507   4.017
46435SOL    HW141144   4.377   5.444   4.001
46435SOL    HW241145   4.235   5.477   3.960
46436SOL     OW41146   1.402   2.764  14.779
46436SOL    HW141147   1.323   2.714  14.759
46436SOL    HW241148   1.384   2.803  14.865
46437SOL     OW41149   2.213   2.786   2.734
46437SOL    HW141150   2.296   2.785   2.685
46437SOL    HW241151   2.201   2.879   2.757
46438SOL     OW41152   8.266  13.102   0.932
46438SOL    HW141153   8.333  13.036   0.946
46438SOL    HW241154   8.183  13.054   0.934
46439SOL     OW41155   3.095   8.182  14.822
46439SOL    HW141156   3.151   8.195  14.745
46439SOL    HW241157   3.155   8.183   0.020
46440SOL     OW41158   3.945  11.919   3.189
46440SOL    HW141159   3.984  11.845   3.142
46440SOL    HW241160   3.987  11.917   3.275
46441SOL     OW41161  12.191  10.521   3.307
46441SOL    HW141162  12.176  10.458   3.378
46441SOL    HW241163  12.241  10.472   3.242
46442SOL     OW41164   9.493  12.378   2.918
46442SOL    HW141165   9.532  12.464   2.909
46442SOL    HW241166   9.499  12.340   2.830
46443SOL     OW41167  11.338  11.812  14.026
46443SOL    HW141168  11.425  11.773  14.015
46443SOL    HW241169  11.332  11.877  13.956
46444SOL     OW41170   4.286   0.822   6.928
46444SOL    HW141171   4.336   0.898   6.898
46444SOL    HW241172   4.340   0.783   6.996
46445SOL     OW41173   5.452   4.271  14.639
46445SOL    HW141174   5.485   4.322  14.713
46445SOL    HW241175   5.528   4.224  14.606
46446SOL     OW41176  13.780   2.305   0.686
46446SOL    HW141177  13.847   2.305   0.754
46446SOL    HW241178  13.828   2.296   0.604
46447SOL     OW41179   9.322   0.324  12.718
46447SOL    HW141180   9.385   0.347  12.786
46447SOL    HW241181   9.372   0.270  12.656
46448SOL     OW41182   2.042  13.463  13.883
46448SOL    HW141183   1.955  13.474  13.844
46448SOL    HW241184   2.027  13.405  13.958
46449SOL     OW41185   9.150   3.281   0.206
46449SOL    HW141186   9.094   3.329   0.145
46449SOL    HW241187   9.129   3.317   0.292
46450SOL     OW41188  14.134   6.723   0.591
46450SOL    HW141189  14.100   6.746   0.677
46450SOL    HW241190  14.229   6.734   0.598
46451SOL     OW41191  13.706  11.116  14.605
46451SOL    HW141192  13.632  11.134  14.548
46451SOL    HW241193  13.776  11.174  14.574
46452SOL     OW41194   5.422  14.522   1.230
46452SOL    HW141195   5.442  14.526   1.323
46452SOL    HW241196   5.359  14.451   1.221
46453SOL     OW41197   9.779   9.592  12.565
46453SOL    HW141198   9.789   9.615  12.658
46453SOL    HW241199   9.861   9.549  12.542
46454SOL     OW41200  13.510   2.465  13.570
46454SOL    HW141201  13.566   2.417  13.510
46454SOL    HW241202  13.426   2.472  13.523
46455SOL     OW41203   5.695   0.934   7.338
46455SOL    HW141204   5.631   1.005   7.337
46455SOL    HW241205   5.652   0.864   7.388
46456SOL     OW41206   4.620  12.427   6.357
46456SOL    HW141207   4.554  12.359   6.348
46456SOL    HW241208   4.682  12.411   6.285
46457SOL     OW41209   1.740   2.186   7.881
46457SOL    HW141210   1.764   2.213   7.970
46457SOL    HW241211   1.813   2.130   7.854
46458SOL     OW41212   4.968  14.641  14.605
46458SOL    HW141213   5.004  14.554  14.585
46458SOL    HW241214   4.894  14.623  14.662
46459SOL     OW41215   9.551   1.377   3.464
46459SOL    HW141216   9.625   1.433   3.442
46459SOL    HW241217   9.508   1.422   3.537
46460SOL     OW41218  13.590  12.825   9.549
46460SOL    HW141219  13.543  12.871   9.479
46460SOL    HW241220  13.522  12.792   9.607
46461SOL     OW41221   3.752   6.443  13.301
46461SOL    HW141222   3.687   6.380  13.270
46461SOL    HW241223   3.837   6.405  13.276
46462SOL     OW41224   0.211  11.718  12.918
46462SOL    HW141225   0.223  11.635  12.872
46462SOL    HW241226   0.165  11.695  12.998
46463SOL     OW41227  10.346  12.198   3.856
46463SOL    HW141228  10.279  12.169   3.795
46463SOL    HW241229  10.410  12.245   3.802
46464SOL     OW41230   6.446  13.030   5.348
46464SOL    HW141231   6.431  12.984   5.266
46464SOL    HW241232   6.363  13.073   5.368
46465SOL     OW41233  12.704  11.689   1.736
46465SOL    HW141234  12.693  11.626   1.807
46465SOL    HW241235  12.798  11.684   1.715
46466SOL     OW41236   2.893  14.147  14.004
46466SOL    HW141237   2.896  14.106  14.090
46466SOL    HW241238   2.799  14.163  13.989
46467SOL     OW41239   0.579  10.343  11.889
46467SOL    HW141240   0.621  10.331  11.974
46467SOL    HW241241   0.563  10.254  11.857
46468SOL     OW41242   1.829  13.744   1.070
46468SOL    HW141243   1.737  13.741   1.044
46468SOL    HW241244   1.827  13.729   1.164
46469SOL     OW41245  11.319   1.058  12.998
46469SOL    HW141246  11.238   1.029  13.040
46469SOL    HW241247  11.305   1.040  12.905
46470SOL     OW41248   5.722   4.552  12.252
46470SOL    HW141249   5.677   4.518  12.329
46470SOL    HW241250   5.782   4.618  12.286
46471SOL     OW41251   4.097   0.583   2.797
46471SOL    HW141252   4.072   0.491   2.803
46471SOL    HW241253   4.031   0.629   2.848
46472SOL     OW41254   7.802   7.134  13.902
46472SOL    HW141255   7.797   7.049  13.947
46472SOL    HW241256   7.796   7.112  13.809
46473SOL     OW41257   6.669  12.146   1.615
46473SOL    HW141258   6.600  12.198   1.574
46473SOL    HW241259   6.635  12.057   1.614
46474SOL     OW41260   5.296   2.253  12.307
46474SOL    HW141261   5.311   2.221  12.396
46474SOL    HW241262   5.321   2.346  12.310
46475SOL     OW41263   9.443  14.131   6.933
46475SOL    HW141264   9.501  14.078   6.878
46475SOL    HW241265   9.459  14.221   6.904
46476SOL     OW41266   0.246   3.603   1.985
46476SOL    HW141267   0.262   3.619   2.079
46476SOL    HW241268   0.151   3.612   1.975
46477SOL     OW41269   3.472  12.773   0.050
46477SOL    HW141270   3.512  12.807  14.846
46477SOL    HW241271   3.422  12.847   0.085
46478SOL     OW41272   8.753  14.199   6.853
46478SOL    HW141273   8.663  14.177   6.830
46478SOL    HW241274   8.752  14.207   6.948
46479SOL     OW41275   7.541   2.332  14.117
46479SOL    HW141276   7.454   2.345  14.079
46479SOL    HW241277   7.529   2.348  14.210
46480SOL     OW41278   3.212  14.853  14.151
46480SOL    HW141279   3.207  14.760  14.131
46480SOL    HW241280   3.305  14.871  14.166
46481SOL     OW41281   4.887   1.750  14.106
46481SOL    HW141282   4.857   1.777  14.019
46481SOL    HW241283   4.877   1.655  14.106
46482SOL     OW41284  13.890   4.076  11.964
46482SOL    HW141285  13.935   4.006  12.013
46482SOL    HW241286  13.799   4.048  11.962
46483SOL     OW41287  10.097   8.169   9.618
46483SOL    HW141288  10.068   8.142   9.531
46483SOL    HW241289  10.191   8.184   9.609
46484SOL     OW41290   3.151   1.225   3.788
46484SOL    HW141291   3.137   1.317   3.765
46484SOL    HW241292   3.182   1.185   3.708
46485SOL     OW41293  13.245   7.246   5.145
46485SOL    HW141294  13.269   7.272   5.234
46485SOL    HW241295  13.163   7.197   5.156
46486SOL     OW41296   1.723   1.257   3.932
46486SOL    HW141297   1.773   1.288   3.857
46486SOL    HW241298   1.734   1.325   3.998
46487SOL     OW41299   3.027   0.826  12.355
46487SOL    HW141300   3.021   0.758  12.288
46487SOL    HW241301   2.969   0.795  12.425
46488SOL     OW41302   2.662   1.981   3.323
46488SOL    HW141303   2.632   2.072   3.317
46488SOL    HW241304   2.691   1.960   3.235
46489SOL     OW41305   0.798   4.752   7.880
46489SOL    HW141306   0.731   4.758   7.812
46489SOL    HW241307   0.848   4.674   7.856
46490SOL     OW41308   8.901  13.176   3.707
46490SOL    HW141309   8.882  13.186   3.800
46490SOL    HW241310   8.860  13.093   3.682
46491SOL     OW41311  10.931  13.079   6.482
46491SOL    HW141312  10.851  13.088   6.430
46491SOL    HW241313  10.999  13.116   6.427
46492SOL     OW41314  10.906   7.867   4.630
46492SOL    HW141315  10.830   7.815   4.603
46492SOL    HW241316  10.943   7.899   4.548
46493SOL     OW41317  12.775   6.152   8.458
46493SOL    HW141318  12.870   6.139   8.463
46493SOL    HW241319  12.764   6.241   8.425
46494SOL     OW41320   0.914   3.607  10.277
46494SOL    HW141321   0.941   3.515  10.275
46494SOL    HW241322   0.910   3.628  10.371
46495SOL     OW41323   0.513   4.008  12.217
46495SOL    HW141324   0.534   4.077  12.155
46495SOL    HW241325   0.483   4.054  12.295
46496SOL     OW41326   4.742   5.109  13.188
46496SOL    HW141327   4.672   5.058  13.228
46496SOL    HW241328   4.782   5.050  13.124
46497SOL     OW41329   2.376  12.815   2.420
46497SOL    HW141330   2.446  12.880   2.411
46497SOL    HW241331   2.314  12.854   2.482
46498SOL     OW41332   7.625   2.095   7.985
46498SOL    HW141333   7.635   2.001   8.002
46498SOL    HW241334   7.539   2.117   8.020
46499SOL     OW41335   8.360  12.474  11.813
46499SOL    HW141336   8.450  12.470  11.781
46499SOL    HW241337   8.320  12.393  11.781
46500SOL     OW41338  10.415  12.465   6.816
46500SOL    HW141339  10.363  12.385   6.818
46500SOL    HW241340  10.426  12.484   6.723
46501SOL     OW41341   7.669   3.739  12.556
46501SOL    HW141342   7.602   3.804  12.538
46501SOL    HW241343   7.739   3.787  12.599
46502SOL     OW41344  14.784  13.979   5.373
46502SOL    HW141345  14.750  13.978   5.462
46502SOL    HW241346  14.855  13.915   5.373
46503SOL     OW41347   1.223  14.259  10.577
46503SOL    HW141348   1.204  14.211  10.497
46503SOL    HW241349   1.137  14.275  10.616
46504SOL     OW41350   4.558   9.761   0.569
46504SOL    HW141351   4.499   9.834   0.588
46504SOL    HW241352   4.505   9.683   0.583
46505SOL     OW41353   2.011   8.779   6.597
46505SOL    HW141354   2.100   8.762   6.627
46505SOL    HW241355   2.022   8.835   6.520
46506SOL     OW41356   7.858   8.904   6.462
46506SOL    HW141357   7.804   8.846   6.516
46506SOL    HW241358   7.799   8.936   6.394
46507SOL     OW41359   3.902  14.360  13.693
46507SOL    HW141360   3.812  14.371  13.724
46507SOL    HW241361   3.929  14.275  13.728
46508SOL     OW41362   7.145   9.206  14.428
46508SOL    HW141363   7.188   9.122  14.412
46508SOL    HW241364   7.052   9.187  14.416
46509SOL     OW41365  11.342  10.631  11.399
46509SOL    HW141366  11.299  10.714  11.419
46509SOL    HW241367  11.357  10.591  11.485
46510SOL     OW41368  10.613   2.939   7.408
46510SOL    HW141369  10.530   2.935   7.455
46510SOL    HW241370  10.671   2.883   7.459
46511SOL     OW41371  13.099   4.208  13.017
46511SOL    HW141372  13.073   4.159  12.939
46511SOL    HW241373  13.044   4.172  13.087
46512SOL     OW41374   1.387  12.739   7.401
46512SOL    HW141375   1.466  12.781   7.433
46512SOL    HW241376   1.330  12.732   7.478
46513SOL     OW41377  12.445   7.935   7.796
46513SOL    HW141378  12.433   7.861   7.736
46513SOL    HW241379  12.521   7.910   7.849
46514SOL     OW41380  12.317  11.196   5.323
46514SOL    HW141381  12.223  11.202   5.303
46514SOL    HW241382  12.320  11.159   5.411
46515SOL     OW41383  13.599   1.545  11.271
46515SOL    HW141384  13.560   1.470  11.226
46515SOL    HW241385  13.690   1.547  11.239
46516SOL     OW41386  12.255  13.485  10.411
46516SOL    HW141387  12.237  13.513  10.321
46516SOL    HW241388  12.278  13.565  10.457
46517SOL     OW41389   2.426   9.953  12.819
46517SOL    HW141390   2.478   9.927  12.743
46517SOL    HW241391   2.383  10.034  12.792
46518SOL     OW41392  12.233   5.319  14.628
46518SOL    HW141393  12.141   5.302  14.646
46518SOL    HW241394  12.280   5.282  14.702
46519SOL     OW41395   0.208  10.433   0.039
46519SOL    HW141396   0.231  10.365  14.852
46519SOL    HW241397   0.264  10.415   0.115
46520SOL     OW41398   8.898  14.330   1.003
46520SOL    HW141399   8.892  14.424   0.985
46520SOL    HW241400   8.851  14.289   0.931
46521SOL     OW41401   2.105  14.730  14.560
46521SOL    HW141402   2.187  14.714  14.607
46521SOL    HW241403   2.083  14.821  14.582
46522SOL     OW41404  11.675   9.950   5.305
46522SOL    HW141405  11.608   9.882   5.306
46522SOL    HW241406  11.646  10.011   5.238
46523SOL     OW41407   9.609   7.010   4.689
46523SOL    HW141408   9.525   7.051   4.709
46523SOL    HW241409   9.621   6.944   4.758
46524SOL     OW41410   3.204   0.776   9.877
46524SOL    HW141411   3.146   0.701   9.866
46524SOL    HW241412   3.244   0.788   9.791
46525SOL     OW41413   7.568   9.163  12.497
46525SOL    HW141414   7.612   9.115  12.427
46525SOL    HW241415   7.486   9.194  12.457
46526SOL     OW41416  11.169   2.869   5.347
46526SOL    HW141417  11.126   2.843   5.428
46526SOL    HW241418  11.200   2.958   5.364
46527SOL     OW41419   0.072  12.175   9.667
46527SOL    HW141420   0.058  12.156   9.760
46527SOL    HW241421   0.027  12.105   9.621
46528SOL     OW41422   3.874  12.035   5.237
46528SOL    HW141423   3.853  12.119   5.277
46528SOL    HW241424   3.933  12.057   5.165
46529SOL     OW41425  13.343   3.033  13.476
46529SOL    HW141426  13.368   3.122  13.500
46529SOL    HW241427  13.394   2.977  13.534
46530SOL     OW41428  13.261   4.913   6.997
46530SOL    HW141429  13.222   4.998   7.017
46530SOL    HW241430  13.198   4.870   6.940
46531SOL     OW41431   8.057  14.616   5.128
46531SOL    HW141432   7.998  14.563   5.074
46531SOL    HW241433   8.089  14.556   5.195
46532SOL     OW41434   3.028   6.366   7.682
46532SOL    HW141435   2.949   6.368   7.628
46532SOL    HW241436   3.089   6.426   7.637
46533SOL     OW41437   0.508  11.640   3.456
46533SOL    HW141438   0.502  11.711   3.392
46533SOL    HW241439   0.599  11.611   3.451
46534SOL     OW41440   1.176   8.747  12.692
46534SOL    HW141441   1.263   8.784  12.679
46534SOL    HW241442   1.127   8.814  12.739
46535SOL     OW41443  13.478  11.068  14.757
46535SOL    HW141444  13.466  11.143  14.699
46535SOL    HW241445  13.567  11.037  14.738
46536SOL     OW41446  13.924   0.569  14.164
46536SOL    HW141447  13.839   0.525  14.161
46536SOL    HW241448  13.902   0.662  14.155
46537SOL     OW41449  13.756   2.936  13.067
46537SOL    HW141450  13.706   2.864  13.027
46537SOL    HW241451  13.785   2.989  12.992
46538SOL     OW41452  13.895   7.407   2.986
46538SOL    HW141453  13.880   7.418   3.080
46538SOL    HW241454  13.813   7.371   2.953
46539SOL     OW41455  10.929   1.238   2.054
46539SOL    HW141456  10.842   1.238   2.015
46539SOL    HW241457  10.917   1.198   2.140
46540SOL     OW41458  12.077   7.570  13.009
46540SOL    HW141459  12.042   7.626  13.078
46540SOL    HW241460  12.162   7.540  13.043
46541SOL     OW41461   6.326   4.198   2.131
46541SOL    HW141462   6.300   4.158   2.048
46541SOL    HW241463   6.403   4.250   2.109
46542SOL     OW41464  10.637  11.326  12.773
46542SOL    HW141465  10.578  11.289  12.707
46542SOL    HW241466  10.698  11.380  12.722
46543SOL     OW41467   6.982  13.088   1.201
46543SOL    HW141468   6.962  13.079   1.108
46543SOL    HW241469   7.073  13.118   1.203
46544SOL     OW41470  10.056   6.175   9.975
46544SOL    HW141471  10.114   6.226  10.032
46544SOL    HW241472  10.079   6.203   9.887
46545SOL     OW41473   0.946   2.099   1.958
46545SOL    HW141474   0.911   2.140   2.036
46545SOL    HW241475   1.038   2.125   1.955
46546SOL     OW41476   0.788   8.694   0.884
46546SOL    HW141477   0.797   8.730   0.972
46546SOL    HW241478   0.828   8.760   0.827
46547SOL     OW41479   3.868   6.558  13.601
46547SOL    HW141480   3.837   6.587  13.687
46547SOL    HW241481   3.880   6.639  13.551
46548SOL     OW41482   5.661   0.387   4.192
46548SOL    HW141483   5.717   0.421   4.262
46548SOL    HW241484   5.722   0.358   4.124
46549SOL     OW41485   1.780  13.631   0.744
46549SOL    HW141486   1.847  13.696   0.763
46549SOL    HW241487   1.716  13.641   0.814
46550SOL     OW41488   4.206   6.558   2.460
46550SOL    HW141489   4.224   6.490   2.395
46550SOL    HW241490   4.149   6.515   2.524
46551SOL     OW41491   0.866   0.884   3.113
46551SOL    HW141492   0.805   0.818   3.146
46551SOL    HW241493   0.816   0.966   3.115
46552SOL     OW41494  10.855   8.388  13.171
46552SOL    HW141495  10.877   8.481  13.184
46552SOL    HW241496  10.930   8.352  13.125
46553SOL     OW41497   1.637  12.941  10.092
46553SOL    HW141498   1.564  12.984  10.134
46553SOL    HW241499   1.659  12.868  10.150
46554SOL     OW41500   1.910   8.427   9.745
46554SOL    HW141501   1.937   8.492   9.680
46554SOL    HW241502   1.926   8.470   9.829
46555SOL     OW41503  12.119   2.508   2.602
46555SOL    HW141504  12.058   2.551   2.542
46555SOL    HW241505  12.120   2.565   2.679
46556SOL     OW41506   3.712   5.055   8.154
46556SOL    HW141507   3.768   4.979   8.173
46556SOL    HW241508   3.654   5.061   8.230
46557SOL     OW41509   3.690  11.988   8.531
46557SOL    HW141510   3.656  11.979   8.441
46557SOL    HW241511   3.740  12.069   8.530
46558SOL     OW41512   3.786   7.327   6.163
46558SOL    HW141513   3.847   7.266   6.204
46558SOL    HW241514   3.791   7.406   6.216
46559SOL     OW41515   2.692   0.935   8.274
46559SOL    HW141516   2.612   0.884   8.267
46559SOL    HW241517   2.701   0.978   8.189
46560SOL     OW41518  14.173   8.231   8.218
46560SOL    HW141519  14.087   8.212   8.181
46560SOL    HW241520  14.159   8.234   8.312
46561SOL     OW41521   9.631  14.331  11.139
46561SOL    HW141522   9.687  14.299  11.068
46561SOL    HW241523   9.543  14.332  11.102
46562SOL     OW41524   6.584   7.355   8.715
46562SOL    HW141525   6.596   7.376   8.808
46562SOL    HW241526   6.561   7.262   8.714
46563SOL     OW41527   0.219   1.964   7.157
46563SOL    HW141528   0.267   1.886   7.183
46563SOL    HW241529   0.286   2.025   7.128
46564SOL     OW41530   4.004  13.458   1.884
46564SOL    HW141531   3.984  13.431   1.974
46564SOL    HW241532   4.015  13.553   1.890
46565SOL     OW41533   3.981   4.007   0.717
46565SOL    HW141534   4.018   3.975   0.799
46565SOL    HW241535   3.902   4.055   0.743
46566SOL     OW41536   2.022   3.035   0.326
46566SOL    HW141537   1.956   3.036   0.257
46566SOL    HW241538   2.081   3.108   0.305
46567SOL     OW41539  11.208   5.225  10.036
46567SOL    HW141540  11.134   5.224  10.097
46567SOL    HW241541  11.181   5.168   9.964
46568SOL     OW41542  10.127   3.669   3.107
46568SOL    HW141543  10.107   3.756   3.073
46568SOL    HW241544  10.048   3.642   3.153
46569SOL     OW41545   4.535   6.103   2.837
46569SOL    HW141546   4.510   6.012   2.821
46569SOL    HW241547   4.520   6.147   2.753
46570SOL     OW41548   0.312  13.362  12.669
46570SOL    HW141549   0.258  13.318  12.604
46570SOL    HW241550   0.273  13.336  12.753
46571SOL     OW41551   7.342  12.315   8.567
46571SOL    HW141552   7.276  12.384   8.567
46571SOL    HW241553   7.343  12.283   8.657
46572SOL     OW41554  10.521   3.196   4.269
46572SOL    HW141555  10.519   3.112   4.314
46572SOL    HW241556  10.611   3.206   4.239
46573SOL     OW41557   0.282  13.862   3.086
46573SOL    HW141558   0.257  13.771   3.071
46573SOL    HW241559   0.344  13.882   3.016
46574SOL     OW41560   4.297   3.134   9.228
46574SOL    HW141561   4.280   3.197   9.298
46574SOL    HW241562   4.230   3.066   9.239
46575SOL     OW41563  12.406  10.964   8.982
46575SOL    HW141564  12.409  11.053   8.948
46575SOL    HW241565  12.480  10.919   8.942
46576SOL     OW41566   4.894   0.344  12.621
46576SOL    HW141567   4.833   0.275  12.646
46576SOL    HW241568   4.878   0.414  12.684
46577SOL     OW41569   9.379   5.287   2.042
46577SOL    HW141570   9.420   5.203   2.021
46577SOL    HW241571   9.448   5.352   2.027
46578SOL     OW41572  10.768   9.322   6.172
46578SOL    HW141573  10.706   9.383   6.132
46578SOL    HW241574  10.827   9.377   6.222
46579SOL     OW41575   4.831  12.623   2.977
46579SOL    HW141576   4.806  12.701   2.928
46579SOL    HW241577   4.775  12.623   3.054
46580SOL     OW41578   5.859   7.072   7.214
46580SOL    HW141579   5.771   7.111   7.218
46580SOL    HW241580   5.863   7.015   7.290
46581SOL     OW41581  10.092  13.765   1.782
46581SOL    HW141582  10.044  13.810   1.852
46581SOL    HW241583  10.129  13.835   1.729
46582SOL     OW41584   9.264   6.061   7.496
46582SOL    HW141585   9.191   6.005   7.523
46582SOL    HW241586   9.227   6.150   7.495
46583SOL     OW41587   2.612   0.803   8.673
46583SOL    HW141588   2.519   0.802   8.652
46583SOL    HW241589   2.623   0.879   8.731
46584SOL     OW41590   8.213  11.049   6.732
46584SOL    HW141591   8.270  11.093   6.794
46584SOL    HW241592   8.162  10.987   6.785
46585SOL     OW41593  14.718   6.268  12.346
46585SOL    HW141594  14.811   6.290  12.355
46585SOL    HW241595  14.711   6.227  12.259
46586SOL     OW41596  10.794  12.673  10.181
46586SOL    HW141597  10.796  12.663  10.086
46586SOL    HW241598  10.756  12.592  10.213
46587SOL     OW41599   8.892   5.806  14.377
46587SOL    HW141600   8.890   5.838  14.467
46587SOL    HW241601   8.837   5.868  14.329
46588SOL     OW41602  11.571   0.564  14.082
46588SOL    HW141603  11.489   0.586  14.038
46588SOL    HW241604  11.568   0.469  14.094
46589SOL     OW41605  11.099   6.903   4.259
46589SOL    HW141606  11.158   6.871   4.326
46589SOL    HW241607  11.123   6.854   4.180
46590SOL     OW41608   7.537   8.098  13.333
46590SOL    HW141609   7.531   8.193  13.335
46590SOL    HW241610   7.569   8.078  13.245
46591SOL     OW41611  10.068   5.011   7.331
46591SOL    HW141612   9.989   4.959   7.344
46591SOL    HW241613  10.064   5.036   7.238
46592SOL     OW41614   3.038  10.055  14.061
46592SOL    HW141615   3.054   9.977  14.008
46592SOL    HW241616   3.125  10.090  14.080
46593SOL     OW41617   8.219   1.485  14.522
46593SOL    HW141618   8.136   1.448  14.554
46593SOL    HW241619   8.275   1.409  14.507
46594SOL     OW41620  10.572  13.477  13.893
46594SOL    HW141621  10.485  13.456  13.927
46594SOL    HW241622  10.631  13.419  13.941
46595SOL     OW41623  10.180   2.412   0.665
46595SOL    HW141624  10.106   2.351   0.663
46595SOL    HW241625  10.256   2.357   0.681
46596SOL     OW41626   0.192  12.158   3.223
46596SOL    HW141627   0.224  12.088   3.166
46596SOL    HW241628   0.128  12.116   3.280
46597SOL     OW41629   7.720  11.071   1.234
46597SOL    HW141630   7.795  11.041   1.181
46597SOL    HW241631   7.756  11.082   1.322
46598SOL     OW41632   5.753  11.991  14.027
46598SOL    HW141633   5.742  12.005  14.121
46598SOL    HW241634   5.665  11.976  13.994
46599SOL     OW41635   5.822   9.899   9.327
46599SOL    HW141636   5.869   9.823   9.361
46599SOL    HW241637   5.743   9.905   9.382
46600SOL     OW41638   7.256  14.225   8.299
46600SOL    HW141639   7.345  14.222   8.335
46600SOL    HW241640   7.199  14.208   8.374
46601SOL     OW41641   3.412  11.693   9.864
46601SOL    HW141642   3.351  11.667   9.795
46601SOL    HW241643   3.357  11.710   9.940
46602SOL     OW41644   8.265  12.896   6.366
46602SOL    HW141645   8.269  12.968   6.429
46602SOL    HW241646   8.195  12.921   6.306
46603SOL     OW41647  11.095   5.166  14.122
46603SOL    HW141648  11.032   5.233  14.098
46603SOL    HW241649  11.051   5.115  14.191
46604SOL     OW41650   1.742   8.786   8.121
46604SOL    HW141651   1.760   8.774   8.028
46604SOL    HW241652   1.826   8.771   8.165
46605SOL     OW41653  12.984   3.679   7.786
46605SOL    HW141654  12.948   3.609   7.840
46605SOL    HW241655  13.079   3.662   7.784
46606SOL     OW41656   0.025   2.897  13.477
46606SOL    HW141657   0.059   2.985  13.461
46606SOL    HW241658   0.012   2.861  13.389
46607SOL     OW41659   8.858   9.358   7.886
46607SOL    HW141660   8.781   9.362   7.944
46607SOL    HW241661   8.917   9.296   7.929
46608SOL     OW41662   9.494   9.362  14.398
46608SOL    HW141663   9.573   9.317  14.367
46608SOL    HW241664   9.422   9.308  14.366
46609SOL     OW41665  14.112   9.745  12.611
46609SOL    HW141666  14.034   9.783  12.651
46609SOL    HW241667  14.170   9.819  12.595
46610SOL     OW41668  14.447   8.319   1.244
46610SOL    HW141669  14.364   8.273   1.255
46610SOL    HW241670  14.506   8.279   1.307
46611SOL     OW41671   8.739   9.734   8.753
46611SOL    HW141672   8.819   9.701   8.710
46611SOL    HW241673   8.763   9.821   8.785
46612SOL     OW41674   9.219   3.136  10.371
46612SOL    HW141675   9.125   3.150  10.359
46612SOL    HW241676   9.242   3.071  10.304
46613SOL     OW41677  10.572   3.683   5.238
46613SOL    HW141678  10.639   3.689   5.306
46613SOL    HW241679  10.521   3.763   5.248
46614SOL     OW41680   4.126  10.841   4.627
46614SOL    HW141681   4.033  10.833   4.648
46614SOL    HW241682   4.168  10.860   4.711
46615SOL     OW41683   5.173   6.564  14.327
46615SOL    HW141684   5.143   6.626  14.393
46615SOL    HW241685   5.116   6.580  14.252
46616SOL     OW41686   0.512   7.413   1.148
46616SOL    HW141687   0.569   7.360   1.091
46616SOL    HW241688   0.490   7.355   1.221
46617SOL     OW41689   3.863   9.588   8.974
46617SOL    HW141690   3.819   9.555   8.896
46617SOL    HW241691   3.902   9.510   9.015
46618SOL     OW41692   1.749   4.475   3.699
46618SOL    HW141693   1.714   4.448   3.784
46618SOL    HW241694   1.766   4.568   3.708
46619SOL     OW41695   5.931  14.654  11.289
46619SOL    HW141696   5.970  14.724  11.342
46619SOL    HW241697   6.005  14.599  11.263
46620SOL     OW41698   1.652   1.655   5.164
46620SOL    HW141699   1.569   1.696   5.189
46620SOL    HW241700   1.685   1.616   5.245
46621SOL     OW41701  12.303   1.675   9.010
46621SOL    HW141702  12.384   1.707   8.969
46621SOL    HW241703  12.293   1.586   8.976
46622SOL     OW41704  11.697   1.063   3.335
46622SOL    HW141705  11.706   1.137   3.275
46622SOL    HW241706  11.606   1.036   3.327
46623SOL     OW41707   3.102  11.373  11.464
46623SOL    HW141708   3.189  11.346  11.491
46623SOL    HW241709   3.100  11.468  11.481
46624SOL     OW41710   5.300  11.097   0.310
46624SOL    HW141711   5.349  11.022   0.342
46624SOL    HW241712   5.224  11.104   0.368
46625SOL     OW41713   1.722  12.208   8.565
46625SOL    HW141714   1.657  12.138   8.562
46625SOL    HW241715   1.673  12.288   8.548
46626SOL     OW41716   0.999   9.566   1.000
46626SOL    HW141717   0.934   9.622   0.958
46626SOL    HW241718   0.993   9.482   0.953
46627SOL     OW41719   7.493   9.490   7.543
46627SOL    HW141720   7.460   9.409   7.583
46627SOL    HW241721   7.506   9.467   7.451
46628SOL     OW41722   5.900   9.184  10.317
46628SOL    HW141723   5.865   9.143  10.238
46628SOL    HW241724   5.995   9.184  10.305
46629SOL     OW41725  10.397  13.965   7.380
46629SOL    HW141726  10.305  13.986   7.395
46629SOL    HW241727  10.414  13.991   7.290
46630SOL     OW41728  14.631  14.299  13.648
46630SOL    HW141729  14.689  14.342  13.711
46630SOL    HW241730  14.630  14.356  13.572
46631SOL     OW41731   9.430   0.101   2.752
46631SOL    HW141732   9.410   0.143   2.835
46631SOL    HW241733   9.523   0.120   2.738
46632SOL     OW41734   5.179  11.292   7.498
46632SOL    HW141735   5.244  11.358   7.523
46632SOL    HW241736   5.101  11.314   7.549
46633SOL     OW41737   3.857   4.265   4.642
46633SOL    HW141738   3.839   4.196   4.579
46633SOL    HW241739   3.952   4.276   4.639
46634SOL     OW41740   9.802   0.658  14.502
46634SOL    HW141741   9.768   0.637  14.589
46634SOL    HW241742   9.752   0.602  14.443
46635SOL     OW41743   5.910   9.167   6.035
46635SOL    HW141744   5.895   9.074   6.018
46635SOL    HW241745   5.890   9.178   6.128
46636SOL     OW41746   9.693   9.672   6.368
46636SOL    HW141747   9.677   9.707   6.456
46636SOL    HW241748   9.616   9.698   6.318
46637SOL     OW41749  14.813  12.007   9.517
46637SOL    HW141750  14.750  12.010   9.590
46637SOL    HW241751  14.804  11.918   9.482
46638SOL     OW41752  11.513   4.497  14.285
46638SOL    HW141753  11.417   4.502  14.285
46638SOL    HW241754  11.538   4.525  14.373
46639SOL     OW41755   0.402  12.625   8.331
46639SOL    HW141756   0.454  12.547   8.351
46639SOL    HW241757   0.321  12.591   8.292
46640SOL     OW41758   6.712   3.681   5.873
46640SOL    HW141759   6.722   3.729   5.790
46640SOL    HW241760   6.618   3.683   5.891
46641SOL     OW41761   3.052  13.600  12.286
46641SOL    HW141762   3.129  13.590  12.230
46641SOL    HW241763   3.078  13.562  12.370
46642SOL     OW41764   0.478   3.339   8.976
46642SOL    HW141765   0.387   3.309   8.985
46642SOL    HW241766   0.475   3.407   8.910
46643SOL     OW41767  11.113   2.176   5.198
46643SOL    HW141768  11.191   2.184   5.142
46643SOL    HW241769  11.147   2.139   5.280
46644SOL     OW41770  13.337   3.294  13.635
46644SOL    HW141771  13.405   3.320  13.573
46644SOL    HW241772  13.379   3.303  13.721
46645SOL     OW41773   4.773   4.165  14.745
46645SOL    HW141774   4.694   4.170  14.692
46645SOL    HW241775   4.839   4.214  14.696
46646SOL     OW41776  10.820   4.680  11.730
46646SOL    HW141777  10.837   4.648  11.641
46646SOL    HW241778  10.900   4.727  11.754
46647SOL     OW41779   0.997   7.030  11.634
46647SOL    HW141780   1.040   7.064  11.712
46647SOL    HW241781   0.916   7.081  11.627
46648SOL     OW41782  11.798   5.125   1.650
46648SOL    HW141783  11.839   5.044   1.678
46648SOL    HW241784  11.820   5.188   1.718
46649SOL     OW41785  10.689   7.843  13.948
46649SOL    HW141786  10.617   7.881  13.897
46649SOL    HW241787  10.727   7.918  13.994
46650SOL     OW41788   5.473  14.491   5.199
46650SOL    HW141789   5.474  14.452   5.286
46650SOL    HW241790   5.443  14.420   5.142
46651SOL     OW41791  12.759  11.504   7.194
46651SOL    HW141792  12.847  11.522   7.227
46651SOL    HW241793  12.767  11.420   7.149
46652SOL     OW41794   7.590  12.475  10.683
46652SOL    HW141795   7.606  12.541  10.616
46652SOL    HW241796   7.578  12.525  10.764
46653SOL     OW41797   6.108   7.229   2.659
46653SOL    HW141798   6.022   7.189   2.669
46653SOL    HW241799   6.136   7.203   2.571
46654SOL     OW41800   2.784  11.522   3.728
46654SOL    HW141801   2.816  11.523   3.818
46654SOL    HW241802   2.863  11.521   3.673
46655SOL     OW41803   4.280  12.565   0.964
46655SOL    HW141804   4.192  12.541   0.991
46655SOL    HW241805   4.277  12.565   0.868
46656SOL     OW41806   8.057   4.824   6.351
46656SOL    HW141807   8.008   4.743   6.336
46656SOL    HW241808   7.994   4.894   6.332
46657SOL     OW41809   3.502  13.109   7.388
46657SOL    HW141810   3.455  13.191   7.400
46657SOL    HW241811   3.443  13.042   7.422
46658SOL     OW41812   9.185  10.149  11.995
46658SOL    HW141813   9.111  10.167  11.937
46658SOL    HW241814   9.157  10.183  12.080
46659SOL     OW41815   2.802   1.486   9.088
46659SOL    HW141816   2.853   1.560   9.123
46659SOL    HW241817   2.711   1.513   9.097
46660SOL     OW41818  13.445   0.140  14.336
46660SOL    HW141819  13.528   0.142  14.384
46660SOL    HW241820  13.387   0.198  14.386
46661SOL     OW41821  12.978   5.232  10.078
46661SOL    HW141822  13.039   5.305  10.064
46661SOL    HW241823  12.945   5.246  10.167
46662SOL     OW41824   5.224   4.430   2.130
46662SOL    HW141825   5.157   4.498   2.135
46662SOL    HW241826   5.261   4.425   2.218
46663SOL     OW41827   1.054  12.216   3.633
46663SOL    HW141828   0.980  12.263   3.595
46663SOL    HW241829   1.131  12.267   3.606
46664SOL     OW41830   1.678  14.364   7.570
46664SOL    HW141831   1.697  14.272   7.551
46664SOL    HW241832   1.708  14.377   7.660
46665SOL     OW41833   7.158   8.228   9.878
46665SOL    HW141834   7.214   8.174   9.933
46665SOL    HW241835   7.069   8.200   9.899
46666SOL     OW41836   1.070  14.471   7.956
46666SOL    HW141837   1.067  14.513   8.042
46666SOL    HW241838   1.111  14.535   7.899
46667SOL     OW41839  12.858   5.422  11.294
46667SOL    HW141840  12.927   5.452  11.353
46667SOL    HW241841  12.838   5.498  11.240
46668SOL     OW41842   5.041   3.060  11.149
46668SOL    HW141843   4.954   3.095  11.131
46668SOL    HW241844   5.101   3.126  11.117
46669SOL     OW41845   2.407   6.527   1.053
46669SOL    HW141846   2.464   6.589   1.099
46669SOL    HW241847   2.320   6.542   1.090
46670SOL     OW41848   1.384   6.973   5.697
46670SOL    HW141849   1.478   6.992   5.693
46670SOL    HW241850   1.349   7.038   5.757
46671SOL     OW41851  13.021   5.704  10.166
46671SOL    HW141852  13.034   5.644  10.239
46671SOL    HW241853  12.942   5.672  10.123
46672SOL     OW41854  12.528  11.183   3.109
46672SOL    HW141855  12.512  11.274   3.082
46672SOL    HW241856  12.623  11.176   3.116
46673SOL     OW41857   4.122   5.178  12.214
46673SOL    HW141858   4.121   5.082  12.205
46673SOL    HW241859   4.213   5.202  12.193
46674SOL     OW41860   1.458   5.060  13.331
46674SOL    HW141861   1.484   5.106  13.411
46674SOL    HW241862   1.467   4.967  13.352
46675SOL     OW41863   5.392  13.795   2.684
46675SOL    HW141864   5.406  13.825   2.594
46675SOL    HW241865   5.322  13.851   2.717
46676SOL     OW41866   9.941  12.084   7.134
46676SOL    HW141867   9.882  12.045   7.069
46676SOL    HW241868  10.026  12.043   7.116
46677SOL     OW41869   6.447   6.083   8.714
46677SOL    HW141870   6.387   6.010   8.699
46677SOL    HW241871   6.503   6.053   8.786
46678SOL     OW41872   3.541   7.429   8.021
46678SOL    HW141873   3.515   7.345   7.983
46678SOL    HW241874   3.501   7.429   8.108
46679SOL     OW41875   9.928   4.401   7.373
46679SOL    HW141876   9.958   4.474   7.318
46679SOL    HW241877   9.888   4.443   7.449
46680SOL     OW41878   4.659   9.312   7.715
46680SOL    HW141879   4.586   9.259   7.683
46680SOL    HW241880   4.676   9.375   7.645
46681SOL     OW41881   9.375  12.551   1.797
46681SOL    HW141882   9.279  12.552   1.801
46681SOL    HW241883   9.401  12.626   1.850
46682SOL     OW41884   0.074   5.863  14.331
46682SOL    HW141885   0.123   5.942  14.356
46682SOL    HW241886   0.068   5.869  14.236
46683SOL     OW41887  10.419   8.044   7.705
46683SOL    HW141888  10.416   8.138   7.723
46683SOL    HW241889  10.407   8.037   7.611
46684SOL     OW41890   3.829   1.135   3.548
46684SOL    HW141891   3.763   1.090   3.494
46684SOL    HW241892   3.836   1.082   3.627
46685SOL     OW41893  13.061   2.147   8.945
46685SOL    HW141894  13.056   2.228   8.996
46685SOL    HW241895  13.014   2.083   8.997
46686SOL     OW41896   4.897   0.652   5.433
46686SOL    HW141897   4.936   0.576   5.391
46686SOL    HW241898   4.923   0.726   5.379
46687SOL     OW41899   2.864  12.035   8.031
46687SOL    HW141900   2.785  12.010   7.983
46687SOL    HW241901   2.840  12.028   8.123
46688SOL     OW41902   4.117   3.487  10.022
46688SOL    HW141903   4.175   3.543   9.970
46688SOL    HW241904   4.126   3.400   9.983
46689SOL     OW41905   7.456   7.163   2.573
46689SOL    HW141906   7.493   7.157   2.661
46689SOL    HW241907   7.486   7.248   2.540
46690SOL     OW41908   4.909  14.404  12.540
46690SOL    HW141909   4.997  14.380  12.568
46690SOL    HW241910   4.859  14.409  12.621
46691SOL     OW41911  12.340   8.936   9.948
46691SOL    HW141912  12.285   8.911   9.874
46691SOL    HW241913  12.285   8.921  10.025
46692SOL     OW41914   7.825  12.782   0.964
46692SOL    HW141915   7.818  12.690   0.937
46692SOL    HW241916   7.781  12.785   1.049
46693SOL     OW41917   3.540   8.720  13.663
46693SOL    HW141918   3.480   8.790  13.637
46693SOL    HW241919   3.486   8.641  13.664
46694SOL     OW41920   5.819  13.090  14.041
46694SOL    HW141921   5.882  13.105  14.110
46694SOL    HW241922   5.773  13.010  14.067
46695SOL     OW41923  14.341   2.167   5.585
46695SOL    HW141924  14.289   2.106   5.533
46695SOL    HW241925  14.354   2.243   5.527
46696SOL     OW41926  14.146   6.557   7.303
46696SOL    HW141927  14.142   6.462   7.293
46696SOL    HW241928  14.076   6.590   7.247
46697SOL     OW41929   7.322   3.397   1.749
46697SOL    HW141930   7.296   3.306   1.765
46697SOL    HW241931   7.246   3.436   1.704
46698SOL     OW41932   9.557   2.981   4.625
46698SOL    HW141933   9.607   3.016   4.552
46698SOL    HW241934   9.540   3.056   4.682
46699SOL     OW41935   0.160   3.275   5.660
46699SOL    HW141936   0.252   3.301   5.671
46699SOL    HW241937   0.133   3.244   5.747
46700SOL     OW41938  14.849   7.797   6.923
46700SOL    HW141939  14.756   7.810   6.903
46700SOL    HW241940   0.017   7.823   6.842
46701SOL     OW41941   4.477   3.441   8.279
46701SOL    HW141942   4.540   3.502   8.319
46701SOL    HW241943   4.392   3.467   8.316
46702SOL     OW41944   1.866   2.075   6.637
46702SOL    HW141945   1.917   2.015   6.692
46702SOL    HW241946   1.813   2.124   6.699
46703SOL     OW41947   3.260   6.801  13.989
46703SOL    HW141948   3.175   6.840  13.969
46703SOL    HW241949   3.240   6.724  14.041
46704SOL     OW41950   4.729  12.331  11.979
46704SOL    HW141951   4.769  12.396  11.921
46704SOL    HW241952   4.671  12.280  11.921
46705SOL     OW41953   9.879   5.301  11.081
46705SOL    HW141954   9.847   5.275  10.994
46705SOL    HW241955   9.912   5.390  11.069
46706SOL     OW41956  14.489   1.426   3.907
46706SOL    HW141957  14.546   1.354   3.880
46706SOL    HW241958  14.488   1.485   3.832
46707SOL     OW41959  11.909   2.326   7.787
46707SOL    HW141960  11.842   2.392   7.773
46707SOL    HW241961  11.952   2.316   7.702
46708SOL     OW41962  10.306   1.932  14.115
46708SOL    HW141963  10.213   1.953  14.114
46708SOL    HW241964  10.326   1.911  14.206
46709SOL     OW41965  10.897  13.660   6.801
46709SOL    HW141966  10.919  13.743   6.843
46709SOL    HW241967  10.912  13.675   6.708
46710SOL     OW41968  11.229  14.028   3.339
46710SOL    HW141969  11.216  13.950   3.392
46710SOL    HW241970  11.316  14.059   3.361
46711SOL     OW41971   2.134   3.657  10.786
46711SOL    HW141972   2.168   3.585  10.732
46711SOL    HW241973   2.135   3.733  10.727
46712SOL     OW41974  12.553  11.255   6.984
46712SOL    HW141975  12.549  11.165   7.015
46712SOL    HW241976  12.632  11.291   7.024
46713SOL     OW41977   4.490   7.919   9.028
46713SOL    HW141978   4.537   7.863   8.967
46713SOL    HW241979   4.516   7.888   9.114
46714SOL     OW41980  12.834  13.894  14.643
46714SOL    HW141981  12.770  13.862  14.579
46714SOL    HW241982  12.891  13.819  14.658
46715SOL     OW41983   0.588   1.083  12.585
46715SOL    HW141984   0.499   1.072  12.553
46715SOL    HW241985   0.583   1.059  12.678
46716SOL     OW41986  13.340   5.556   7.570
46716SOL    HW141987  13.358   5.521   7.658
46716SOL    HW241988  13.246   5.546   7.559
46717SOL     OW41989   3.348   1.458  12.261
46717SOL    HW141990   3.323   1.543  12.297
46717SOL    HW241991   3.400   1.478  12.184
46718SOL     OW41992   2.572   5.821   2.848
46718SOL    HW141993   2.559   5.758   2.919
46718SOL    HW241994   2.641   5.879   2.880
46719SOL     OW41995  13.273  11.732   2.759
46719SOL    HW141996  13.331  11.680   2.815
46719SOL    HW241997  13.231  11.794   2.820
46720SOL     OW41998   2.874  10.037  12.225
46720SOL    HW141999   2.926   9.992  12.158
46720SOL    HW242000   2.827  10.106  12.177
46721SOL     OW42001   6.350  12.674   1.338
46721SOL    HW142002   6.427  12.663   1.393
46721SOL    HW242003   6.332  12.587   1.303
46722SOL     OW42004   4.702   3.907   2.062
46722SOL    HW142005   4.618   3.935   2.027
46722SOL    HW242006   4.767   3.954   2.010
46723SOL     OW42007   1.391   4.880  10.491
46723SOL    HW142008   1.456   4.946  10.516
46723SOL    HW242009   1.442   4.799  10.484
46724SOL     OW42010   1.096   1.793  10.208
46724SOL    HW142011   1.052   1.785  10.123
46724SOL    HW242012   1.068   1.877  10.242
46725SOL     OW42013  10.154   6.615  13.708
46725SOL    HW142014  10.186   6.550  13.771
46725SOL    HW242015  10.180   6.581  13.623
46726SOL     OW42016   6.534   9.554   0.991
46726SOL    HW142017   6.540   9.548   0.895
46726SOL    HW242018   6.574   9.472   1.022
46727SOL     OW42019   5.603   0.813   5.307
46727SOL    HW142020   5.548   0.890   5.292
46727SOL    HW242021   5.680   0.828   5.252
46728SOL     OW42022  13.179  13.192   6.372
46728SOL    HW142023  13.098  13.145   6.351
46728SOL    HW242024  13.238  13.124   6.406
46729SOL     OW42025   0.126  12.606  13.519
46729SOL    HW142026   0.188  12.534  13.524
46729SOL    HW242027   0.040  12.563  13.510
46730SOL     OW42028  12.381   9.290   9.386
46730SOL    HW142029  12.315   9.258   9.325
46730SOL    HW242030  12.342   9.369   9.425
46731SOL     OW42031   4.793   1.321   8.925
46731SOL    HW142032   4.701   1.314   8.903
46731SOL    HW242033   4.810   1.415   8.933
46732SOL     OW42034  10.189   2.956   2.686
46732SOL    HW142035  10.229   3.026   2.736
46732SOL    HW242036  10.109   2.995   2.650
46733SOL     OW42037   3.816  13.692   1.706
46733SOL    HW142038   3.741  13.651   1.749
46733SOL    HW242039   3.873  13.619   1.684
46734SOL     OW42040   0.929  11.263   1.671
46734SOL    HW142041   1.015  11.232   1.701
46734SOL    HW242042   0.928  11.356   1.694
46735SOL     OW42043  10.669   9.374  12.781
46735SOL    HW142044  10.704   9.381  12.692
46735SOL    HW242045  10.730   9.317  12.826
46736SOL     OW42046  10.938  11.519   5.902
46736SOL    HW142047  10.948  11.440   5.955
46736SOL    HW242048  10.920  11.487   5.814
46737SOL     OW42049   8.446   7.306  14.502
46737SOL    HW142050   8.376   7.252  14.464
46737SOL    HW242051   8.404   7.352  14.574
46738SOL     OW42052  13.703   3.331  13.552
46738SOL    HW142053  13.668   3.299  13.635
46738SOL    HW242054  13.699   3.255  13.493
46739SOL     OW42055  10.397  13.613   8.637
46739SOL    HW142056  10.324  13.644   8.690
46739SOL    HW242057  10.443  13.692   8.610
46740SOL     OW42058   9.809  12.527   3.267
46740SOL    HW142059   9.715  12.535   3.254
46740SOL    HW242060   9.842  12.500   3.181
46741SOL     OW42061  13.275   6.258   7.485
46741SOL    HW142062  13.192   6.227   7.449
46741SOL    HW242063  13.254   6.340   7.529
46742SOL     OW42064  12.429  10.534   6.501
46742SOL    HW142065  12.339  10.548   6.471
46742SOL    HW242066  12.469  10.481   6.431
46743SOL     OW42067   8.151   1.191   5.695
46743SOL    HW142068   8.166   1.164   5.786
46743SOL    HW242069   8.118   1.280   5.702
46744SOL     OW42070   6.420   6.748   4.149
46744SOL    HW142071   6.387   6.678   4.092
46744SOL    HW242072   6.373   6.737   4.231
46745SOL     OW42073   0.649   2.808  10.063
46745SOL    HW142074   0.703   2.795   9.985
46745SOL    HW242075   0.561   2.825  10.028
46746SOL     OW42076   2.728  10.911   0.220
46746SOL    HW142077   2.714  10.822   0.254
46746SOL    HW242078   2.676  10.913   0.139
46747SOL     OW42079   4.828  13.840   9.735
46747SOL    HW142080   4.862  13.891   9.661
46747SOL    HW242081   4.757  13.894   9.770
46748SOL     OW42082  12.013  14.469   6.993
46748SOL    HW142083  11.987  14.548   7.039
46748SOL    HW242084  12.050  14.499   6.910
46749SOL     OW42085   8.582   1.374   1.463
46749SOL    HW142086   8.541   1.318   1.397
46749SOL    HW242087   8.584   1.461   1.422
46750SOL     OW42088   7.253  12.043   1.002
46750SOL    HW142089   7.207  11.962   0.980
46750SOL    HW242090   7.249  12.048   1.097
46751SOL     OW42091   3.494  13.924   1.266
46751SOL    HW142092   3.474  13.978   1.342
46751SOL    HW242093   3.577  13.882   1.287
46752SOL     OW42094   3.046   8.895   4.748
46752SOL    HW142095   3.112   8.961   4.730
46752SOL    HW242096   3.002   8.880   4.664
46753SOL     OW42097  10.510  14.141   2.276
46753SOL    HW142098  10.488  14.134   2.183
46753SOL    HW242099  10.542  14.230   2.286
46754SOL     OW42100   9.727  10.360  10.813
46754SOL    HW142101   9.640  10.338  10.846
46754SOL    HW242102   9.775  10.278  10.816
46755SOL     OW42103  12.829  10.557   9.483
46755SOL    HW142104  12.788  10.584   9.566
46755SOL    HW242105  12.755  10.535   9.426
46756SOL     OW42106   3.396   1.884   0.550
46756SOL    HW142107   3.427   1.836   0.474
46756SOL    HW242108   3.417   1.976   0.530
46757SOL     OW42109  12.352   8.072  11.661
46757SOL    HW142110  12.412   8.125  11.714
46757SOL    HW242111  12.406   8.039  11.589
46758SOL     OW42112   1.471   0.594  12.433
46758SOL    HW142113   1.483   0.563  12.523
46758SOL    HW242114   1.544   0.556  12.384
46759SOL     OW42115  10.158  12.430   8.798
46759SOL    HW142116  10.095  12.419   8.727
46759SOL    HW242117  10.243  12.413   8.758
46760SOL     OW42118   4.559   3.752   6.649
46760SOL    HW142119   4.464   3.750   6.641
46760SOL    HW242120   4.583   3.662   6.670
46761SOL     OW42121   8.095   2.182   8.935
46761SOL    HW142122   8.030   2.169   8.866
46761SOL    HW242123   8.047   2.165   9.016
46762SOL     OW42124   1.213   2.591   8.663
46762SOL    HW142125   1.143   2.552   8.716
46762SOL    HW242126   1.261   2.516   8.628
46763SOL     OW42127   5.245   0.395   5.578
46763SOL    HW142128   5.224   0.480   5.540
46763SOL    HW242129   5.339   0.399   5.595
46764SOL     OW42130   8.164   1.194   1.023
46764SOL    HW142131   8.160   1.102   1.049
46764SOL    HW242132   8.104   1.239   1.082
46765SOL     OW42133   0.524   5.083   1.795
46765SOL    HW142134   0.548   5.063   1.886
46765SOL    HW242135   0.489   5.001   1.761
46766SOL     OW42136   7.718   6.514   9.497
46766SOL    HW142137   7.684   6.541   9.411
46766SOL    HW242138   7.740   6.596   9.541
46767SOL     OW42139   4.199   5.424   5.573
46767SOL    HW142140   4.180   5.383   5.657
46767SOL    HW242141   4.172   5.515   5.584
46768SOL     OW42142   2.094  11.601  10.440
46768SOL    HW142143   2.071  11.551  10.361
46768SOL    HW242144   2.097  11.692  10.411
46769SOL     OW42145  10.306  11.060  14.605
46769SOL    HW142146  10.337  11.146  14.632
46769SOL    HW242147  10.253  11.029  14.679
46770SOL     OW42148  11.007  13.578   1.471
46770SOL    HW142149  10.917  13.593   1.500
46770SOL    HW242150  11.019  13.639   1.398
46771SOL     OW42151  13.476   8.435  10.267
46771SOL    HW142152  13.402   8.491  10.292
46771SOL    HW242153  13.553   8.486  10.290
46772SOL     OW42154  13.986   8.108  11.606
46772SOL    HW142155  13.906   8.160  11.601
46772SOL    HW242156  14.030   8.125  11.523
46773SOL     OW42157   5.766   8.973   2.481
46773SOL    HW142158   5.799   8.893   2.439
46773SOL    HW242159   5.845   9.025   2.497
46774SOL     OW42160   4.214   9.902   4.558
46774SOL    HW142161   4.158   9.928   4.631
46774SOL    HW242162   4.294   9.869   4.599
46775SOL     OW42163   9.947   5.049   5.887
46775SOL    HW142164  10.029   5.076   5.929
46775SOL    HW242165   9.878   5.078   5.946
46776SOL     OW42166   6.986   3.515  12.739
46776SOL    HW142167   6.962   3.572  12.812
46776SOL    HW242168   6.929   3.439  12.748
46777SOL     OW42169   3.016   5.729  11.000
46777SOL    HW142170   2.985   5.721  10.910
46777SOL    HW242171   3.023   5.823  11.015
46778SOL     OW42172  13.374   0.277   6.493
46778SOL    HW142173  13.445   0.212   6.490
46778SOL    HW242174  13.332   0.270   6.407
46779SOL     OW42175  14.673   8.233   6.722
46779SOL    HW142176  14.633   8.317   6.744
46779SOL    HW242177  14.656   8.177   6.798
46780SOL     OW42178   8.129   8.619   8.935
46780SOL    HW142179   8.166   8.660   9.014
46780SOL    HW242180   8.133   8.688   8.869
46781SOL     OW42181   4.639   9.040   1.157
46781SOL    HW142182   4.647   8.946   1.177
46781SOL    HW242183   4.561   9.068   1.204
46782SOL     OW42184   5.220   1.213   9.744
46782SOL    HW142185   5.276   1.136   9.732
46782SOL    HW242186   5.179   1.226   9.658
46783SOL     OW42187   3.321   3.558   8.961
46783SOL    HW142188   3.273   3.494   9.014
46783SOL    HW242189   3.388   3.507   8.916
46784SOL     OW42190  11.012  14.289   2.398
46784SOL    HW142191  11.034  14.363   2.341
46784SOL    HW242192  10.936  14.248   2.356
46785SOL     OW42193   7.488   5.238   1.940
46785SOL    HW142194   7.506   5.319   1.988
46785SOL    HW242195   7.546   5.242   1.864
46786SOL     OW42196   9.970   4.578  12.977
46786SOL    HW142197   9.992   4.617  12.893
46786SOL    HW242198   9.885   4.617  12.999
46787SOL     OW42199  13.668   9.228   1.292
46787SOL    HW142200  13.736   9.277   1.338
46787SOL    HW242201  13.715   9.161   1.243
46788SOL     OW42202  10.825   0.465  12.226
46788SOL    HW142203  10.888   0.528  12.192
46788SOL    HW242204  10.748   0.516  12.248
46789SOL     OW42205   2.247   0.920  13.115
46789SOL    HW142206   2.164   0.967  13.106
46789SOL    HW242207   2.233   0.839  13.066
46790SOL     OW42208   7.039   2.798   4.686
46790SOL    HW142209   7.034   2.844   4.770
46790SOL    HW242210   7.013   2.708   4.706
46791SOL     OW42211   4.132   8.004   3.173
46791SOL    HW142212   4.052   7.954   3.190
46791SOL    HW242213   4.108   8.061   3.099
46792SOL     OW42214  12.911   6.587   0.521
46792SOL    HW142215  12.931   6.679   0.506
46792SOL    HW242216  12.886   6.553   0.435
46793SOL     OW42217   8.503  10.985  12.849
46793SOL    HW142218   8.489  10.996  12.944
46793SOL    HW242219   8.445  11.051  12.810
46794SOL     OW42220   0.074   2.447   6.629
46794SOL    HW142221   0.143   2.512   6.617
46794SOL    HW242222   0.032   2.440   6.543
46795SOL     OW42223   1.688   2.956  13.187
46795SOL    HW142224   1.653   2.873  13.153
46795SOL    HW242225   1.611   3.011  13.198
46796SOL     OW42226   9.781  13.825  11.218
46796SOL    HW142227   9.728  13.746  11.224
46796SOL    HW242228   9.719  13.893  11.190
46797SOL     OW42229   1.117   5.147   2.012
46797SOL    HW142230   1.047   5.132   1.949
46797SOL    HW242231   1.072   5.179   2.091
46798SOL     OW42232   3.373   3.216   3.997
46798SOL    HW142233   3.448   3.174   3.955
46798SOL    HW242234   3.377   3.307   3.969
46799SOL     OW42235   8.617   3.489   4.915
46799SOL    HW142236   8.550   3.425   4.889
46799SOL    HW242237   8.585   3.572   4.880
46800SOL     OW42238   9.858   6.438   1.535
46800SOL    HW142239   9.805   6.393   1.601
46800SOL    HW242240   9.926   6.375   1.512
46801SOL     OW42241   8.519   2.493  11.206
46801SOL    HW142242   8.596   2.475  11.261
46801SOL    HW242243   8.470   2.559  11.255
46802SOL     OW42244   0.689   7.716  10.604
46802SOL    HW142245   0.644   7.631  10.603
46802SOL    HW242246   0.759   7.705  10.668
46803SOL     OW42247  13.468   5.775   5.552
46803SOL    HW142248  13.425   5.725   5.483
46803SOL    HW242249  13.528   5.713   5.594
46804SOL     OW42250   3.852   7.747  13.483
46804SOL    HW142251   3.916   7.714  13.547
46804SOL    HW242252   3.826   7.670  13.433
46805SOL     OW42253  12.226  12.536  12.374
46805SOL    HW142254  12.141  12.562  12.341
46805SOL    HW242255  12.242  12.450  12.336
46806SOL     OW42256   4.752   7.061  14.593
46806SOL    HW142257   4.675   7.067  14.649
46806SOL    HW242258   4.741   6.978  14.546
46807SOL     OW42259   4.669   0.011   1.209
46807SOL    HW142260   4.621  14.834   1.147
46807SOL    HW242261   4.729  14.826   1.252
46808SOL     OW42262   8.976   6.657  11.801
46808SOL    HW142263   8.944   6.714  11.731
46808SOL    HW242264   8.966   6.568  11.765
46809SOL     OW42265   3.275  14.437   9.074
46809SOL    HW142266   3.272  14.419   9.168
46809SOL    HW242267   3.256  14.352   9.033
46810SOL     OW42268  10.684   6.324   5.477
46810SOL    HW142269  10.633   6.379   5.536
46810SOL    HW242270  10.775   6.341   5.502
46811SOL     OW42271   5.222   2.862  12.100
46811SOL    HW142272   5.153   2.928  12.106
46811SOL    HW242273   5.175   2.780  12.084
46812SOL     OW42274   1.614   4.232   0.379
46812SOL    HW142275   1.576   4.151   0.347
46812SOL    HW242276   1.623   4.219   0.473
46813SOL     OW42277   5.716   1.724  13.763
46813SOL    HW142278   5.788   1.722  13.826
46813SOL    HW242279   5.639   1.699  13.813
46814SOL     OW42280   7.139   5.483  13.956
46814SOL    HW142281   7.110   5.446  13.872
46814SOL    HW242282   7.234   5.485  13.949
46815SOL     OW42283  12.092  12.822  10.273
46815SOL    HW142284  12.084  12.915  10.256
46815SOL    HW242285  12.111  12.783  10.188
46816SOL     OW42286   0.230  13.293   9.090
46816SOL    HW142287   0.228  13.245   9.007
46816SOL    HW242288   0.282  13.371   9.071
46817SOL     OW42289   5.444   4.251  11.175
46817SOL    HW142290   5.510   4.223  11.238
46817SOL    HW242291   5.361   4.241  11.222
46818SOL     OW42292   1.883  11.010  13.677
46818SOL    HW142293   1.924  11.095  13.691
46818SOL    HW242294   1.801  11.029  13.631
46819SOL     OW42295   7.845   4.809   9.064
46819SOL    HW142296   7.753   4.835   9.052
46819SOL    HW242297   7.847   4.716   9.043
46820SOL     OW42298   0.196  13.915  13.482
46820SOL    HW142299   0.223  13.986  13.540
46820SOL    HW242300   0.122  13.874  13.527
46821SOL     OW42301   2.375  14.090  12.204
46821SOL    HW142302   2.299  14.119  12.153
46821SOL    HW242303   2.450  14.106  12.146
46822SOL     OW42304   1.191   5.937   2.760
46822SOL    HW142305   1.117   5.992   2.734
46822SOL    HW242306   1.259   5.998   2.786
46823SOL     OW42307   7.880   1.895   7.509
46823SOL    HW142308   7.859   1.811   7.468
46823SOL    HW242309   7.924   1.873   7.591
46824SOL     OW42310  13.128  14.334   9.702
46824SOL    HW142311  13.137  14.427   9.680
46824SOL    HW242312  13.218  14.300   9.697
46825SOL     OW42313  14.270  12.573   6.617
46825SOL    HW142314  14.331  12.641   6.643
46825SOL    HW242315  14.205  12.618   6.562
46826SOL     OW42316   6.412   4.351   8.597
46826SOL    HW142317   6.353   4.329   8.524
46826SOL    HW242318   6.440   4.267   8.632
46827SOL     OW42319  11.546  13.266  11.043
46827SOL    HW142320  11.636  13.296  11.034
46827SOL    HW242321  11.494  13.331  10.995
46828SOL     OW42322   9.008   3.522   3.176
46828SOL    HW142323   9.011   3.465   3.099
46828SOL    HW242324   9.045   3.605   3.145
46829SOL     OW42325   2.368  14.646  14.756
46829SOL    HW142326   2.445  14.664  14.702
46829SOL    HW242327   2.386  14.690  14.839
46830SOL     OW42328  12.494   9.053   8.563
46830SOL    HW142329  12.492   9.113   8.638
46830SOL    HW242330  12.504   9.110   8.487
46831SOL     OW42331   7.816   8.333   5.103
46831SOL    HW142332   7.894   8.378   5.135
46831SOL    HW242333   7.832   8.322   5.009
46832SOL     OW42334   1.040   1.737   4.880
46832SOL    HW142335   1.020   1.831   4.876
46832SOL    HW242336   1.038   1.708   4.789
46833SOL     OW42337   8.769   0.051  12.675
46833SOL    HW142338   8.748   0.145  12.677
46833SOL    HW242339   8.855   0.045  12.716
46834SOL     OW42340   8.729   1.905   3.872
46834SOL    HW142341   8.788   1.871   3.938
46834SOL    HW242342   8.688   1.982   3.913
46835SOL     OW42343   7.875  13.503   5.523
46835SOL    HW142344   7.914  13.473   5.441
46835SOL    HW242345   7.827  13.427   5.556
46836SOL     OW42346   3.809   6.011   7.927
46836SOL    HW142347   3.869   6.079   7.955
46836SOL    HW242348   3.858   5.960   7.862
46837SOL     OW42349  12.118  14.216   0.858
46837SOL    HW142350  12.064  14.278   0.907
46837SOL    HW242351  12.198  14.265   0.839
46838SOL     OW42352   8.116  14.047   6.426
46838SOL    HW142353   8.069  13.964   6.425
46838SOL    HW242354   8.145  14.058   6.517
46839SOL     OW42355   8.737   3.053   7.612
46839SOL    HW142356   8.756   3.049   7.518
46839SOL    HW242357   8.660   3.109   7.619
46840SOL     OW42358  11.660   4.937  14.577
46840SOL    HW142359  11.628   4.955  14.666
46840SOL    HW242360  11.622   5.008  14.524
46841SOL     OW42361   4.512   3.623  11.733
46841SOL    HW142362   4.573   3.657  11.799
46841SOL    HW242363   4.560   3.552  11.690
46842SOL     OW42364   2.207   0.572   9.506
46842SOL    HW142365   2.146   0.599   9.438
46842SOL    HW242366   2.210   0.476   9.500
46843SOL     OW42367   3.904   9.011   1.612
46843SOL    HW142368   3.887   8.954   1.687
46843SOL    HW242369   3.836   9.079   1.617
46844SOL     OW42370   5.757  13.563  10.662
46844SOL    HW142371   5.821  13.607  10.718
46844SOL    HW242372   5.717  13.634  10.612
46845SOL     OW42373  11.186   1.156  11.951
46845SOL    HW142374  11.245   1.081  11.949
46845SOL    HW242375  11.106   1.123  11.993
46846SOL     OW42376   2.427  12.893   4.173
46846SOL    HW142377   2.429  12.868   4.266
46846SOL    HW242378   2.473  12.977   4.170
46847SOL     OW42379   6.834   5.018  13.899
46847SOL    HW142380   6.895   4.944  13.892
46847SOL    HW242381   6.842   5.046  13.990
46848SOL     OW42382   0.670  12.451   9.583
46848SOL    HW142383   0.683  12.531   9.532
46848SOL    HW242384   0.745  12.447   9.642
46849SOL     OW42385   0.118   2.889   0.954
46849SOL    HW142386   0.035   2.933   0.933
46849SOL    HW242387   0.151   2.937   1.030
46850SOL     OW42388   9.053   6.166   1.536
46850SOL    HW142389   9.105   6.230   1.487
46850SOL    HW242390   9.076   6.183   1.628
46851SOL     OW42391   2.450   8.115   5.524
46851SOL    HW142392   2.479   8.203   5.550
46851SOL    HW242393   2.435   8.070   5.607
46852SOL     OW42394  12.149   3.081  13.178
46852SOL    HW142395  12.209   3.144  13.219
46852SOL    HW242396  12.073   3.133  13.152
46853SOL     OW42397  10.008   8.815   6.333
46853SOL    HW142398  10.039   8.733   6.371
46853SOL    HW242399   9.973   8.865   6.407
46854SOL     OW42400   2.845   7.332   1.374
46854SOL    HW142401   2.912   7.385   1.416
46854SOL    HW242402   2.865   7.242   1.400
46855SOL     OW42403  13.410  10.604   5.595
46855SOL    HW142404  13.486  10.589   5.538
46855SOL    HW242405  13.407  10.699   5.606
46856SOL     OW42406   6.530  14.099   4.764
46856SOL    HW142407   6.481  14.171   4.803
46856SOL    HW242408   6.601  14.082   4.826
46857SOL     OW42409  11.520  12.273  11.644
46857SOL    HW142410  11.426  12.262  11.652
46857SOL    HW242411  11.532  12.332  11.570
46858SOL     OW42412   8.536  12.999   5.639
46858SOL    HW142413   8.563  12.932   5.575
46858SOL    HW242414   8.599  12.989   5.710
46859SOL     OW42415  11.703   6.739   3.191
46859SOL    HW142416  11.622   6.747   3.141
46859SOL    HW242417  11.708   6.646   3.214
46860SOL     OW42418   7.460   3.996   6.929
46860SOL    HW142419   7.524   4.067   6.931
46860SOL    HW242420   7.400   4.015   7.001
46861SOL     OW42421   7.493  10.117   5.180
46861SOL    HW142422   7.430  10.064   5.131
46861SOL    HW242423   7.442  10.191   5.212
46862SOL     OW42424   4.334  12.950  10.228
46862SOL    HW142425   4.344  12.859  10.254
46862SOL    HW242426   4.296  12.946  10.140
46863SOL     OW42427   8.083   4.575  12.215
46863SOL    HW142428   8.081   4.621  12.132
46863SOL    HW242429   8.145   4.503  12.201
46864SOL     OW42430  11.151   7.683   4.299
46864SOL    HW142431  11.188   7.641   4.377
46864SOL    HW242432  11.081   7.624   4.270
46865SOL     OW42433   9.632  12.602   7.264
46865SOL    HW142434   9.631  12.656   7.343
46865SOL    HW242435   9.725  12.588   7.245
46866SOL     OW42436   2.538  14.006  10.399
46866SOL    HW142437   2.607  13.942  10.415
46866SOL    HW242438   2.552  14.074  10.465
46867SOL     OW42439   4.696   1.746   3.778
46867SOL    HW142440   4.638   1.697   3.720
46867SOL    HW242441   4.759   1.681   3.809
46868SOL     OW42442   0.076   6.089   6.269
46868SOL    HW142443  14.859   6.085   6.290
46868SOL    HW242444   0.080   6.144   6.190
46869SOL     OW42445   5.110   9.700   8.733
46869SOL    HW142446   5.048   9.714   8.805
46869SOL    HW242447   5.096   9.775   8.675
46870SOL     OW42448   2.526   8.955  10.073
46870SOL    HW142449   2.516   8.860  10.070
46870SOL    HW242450   2.442   8.987  10.105
46871SOL     OW42451   5.226  14.028   1.008
46871SOL    HW142452   5.162  14.034   0.937
46871SOL    HW242453   5.242  13.934   1.018
46872SOL     OW42454   3.731  14.170   9.067
46872SOL    HW142455   3.692  14.247   9.023
46872SOL    HW242456   3.813  14.202   9.103
46873SOL     OW42457   8.897   0.156  14.524
46873SOL    HW142458   8.909   0.251  14.524
46873SOL    HW242459   8.832   0.140  14.592
46874SOL     OW42460  12.238   6.749   7.491
46874SOL    HW142461  12.325   6.755   7.451
46874SOL    HW242462  12.253   6.767   7.584
46875SOL     OW42463   2.607   2.297  11.304
46875SOL    HW142464   2.550   2.372  11.285
46875SOL    HW242465   2.667   2.293  11.230
46876SOL     OW42466   1.328   9.006  12.406
46876SOL    HW142467   1.368   9.086  12.440
46876SOL    HW242468   1.265   9.037  12.341
46877SOL     OW42469  11.333   0.925  12.333
46877SOL    HW142470  11.411   0.980  12.321
46877SOL    HW242471  11.366   0.836  12.324
46878SOL     OW42472   9.682   5.641   1.832
46878SOL    HW142473   9.613   5.676   1.775
46878SOL    HW242474   9.696   5.552   1.801
46879SOL     OW42475   0.407   9.931   4.533
46879SOL    HW142476   0.359   9.852   4.510
46879SOL    HW242477   0.371   9.998   4.474
46880SOL     OW42478   8.103   9.329   1.131
46880SOL    HW142479   8.192   9.339   1.164
46880SOL    HW242480   8.047   9.337   1.208
46881SOL     OW42481   2.792   1.062  14.264
46881SOL    HW142482   2.798   1.141  14.317
46881SOL    HW242483   2.883   1.038  14.245
46882SOL     OW42484   7.375   5.291   4.179
46882SOL    HW142485   7.407   5.212   4.135
46882SOL    HW242486   7.454   5.341   4.199
46883SOL     OW42487   5.540  11.667   1.234
46883SOL    HW142488   5.618  11.684   1.180
46883SOL    HW242489   5.480  11.620   1.176
46884SOL     OW42490   2.390   9.775  12.233
46884SOL    HW142491   2.304   9.806  12.202
46884SOL    HW242492   2.422   9.718  12.163
46885SOL     OW42493  11.817   9.957   3.639
46885SOL    HW142494  11.752   9.886   3.648
46885SOL    HW242495  11.801   9.993   3.552
46886SOL     OW42496   3.489   0.962   3.637
46886SOL    HW142497   3.510   0.904   3.711
46886SOL    HW242498   3.478   1.048   3.676
46887SOL     OW42499   7.711  10.628  10.575
46887SOL    HW142500   7.723  10.723  10.569
46887SOL    HW242501   7.788  10.597  10.622
46888SOL     OW42502  11.878  11.137   0.135
46888SOL    HW142503  11.870  11.182   0.219
46888SOL    HW242504  11.804  11.168   0.083
46889SOL     OW42505  10.463   6.493   9.005
46889SOL    HW142506  10.537   6.433   9.008
46889SOL    HW242507  10.416   6.478   9.088
46890SOL     OW42508   5.593  11.563   3.305
46890SOL    HW142509   5.504  11.564   3.270
46890SOL    HW242510   5.633  11.643   3.272
46891SOL     OW42511   0.024   7.096   2.623
46891SOL    HW142512   0.034   7.073   2.715
46891SOL    HW242513   0.042   7.014   2.576
46892SOL     OW42514   4.866   8.776   7.527
46892SOL    HW142515   4.779   8.809   7.548
46892SOL    HW242516   4.897   8.737   7.609
46893SOL     OW42517  13.630   6.949   3.890
46893SOL    HW142518  13.717   6.928   3.854
46893SOL    HW242519  13.627   6.905   3.975
46894SOL     OW42520   1.725   0.639   4.471
46894SOL    HW142521   1.767   0.558   4.442
46894SOL    HW242522   1.770   0.708   4.423
46895SOL     OW42523   5.760  10.775   5.978
46895SOL    HW142524   5.690  10.828   6.016
46895SOL    HW242525   5.715  10.707   5.928
46896SOL     OW42526   7.748  10.411  14.082
46896SOL    HW142527   7.820  10.425  14.143
46896SOL    HW242528   7.669  10.434  14.132
46897SOL     OW42529   3.733   4.392   0.724
46897SOL    HW142530   3.800   4.441   0.676
46897SOL    HW242531   3.665   4.375   0.659
46898SOL     OW42532  12.335  13.943   8.530
46898SOL    HW142533  12.339  13.847   8.534
46898SOL    HW242534  12.263  13.961   8.469
46899SOL     OW42535  10.998   5.969   8.254
46899SOL    HW142536  10.932   6.005   8.313
46899SOL    HW242537  11.063   5.929   8.312
46900SOL     OW42538   2.030   1.783   8.799
46900SOL    HW142539   2.048   1.833   8.720
46900SOL    HW242540   2.116   1.766   8.838
46901SOL     OW42541   4.293  14.852   6.549
46901SOL    HW142542   4.236  14.858   6.625
46901SOL    HW242543   4.307  14.758   6.537
46902SOL     OW42544  14.573  13.091   4.105
46902SOL    HW142545  14.499  13.084   4.045
46902SOL    HW242546  14.627  13.015   4.085
46903SOL     OW42547  10.849   9.905   9.287
46903SOL    HW142548  10.815   9.822   9.321
46903SOL    HW242549  10.943   9.900   9.301
46904SOL     OW42550   4.656  10.346   7.706
46904SOL    HW142551   4.680  10.274   7.648
46904SOL    HW242552   4.736  10.365   7.755
46905SOL     OW42553  12.363   4.218   8.160
46905SOL    HW142554  12.321   4.203   8.075
46905SOL    HW242555  12.309   4.284   8.202
46906SOL     OW42556   6.549  14.538   7.908
46906SOL    HW142557   6.461  14.574   7.894
46906SOL    HW242558   6.534  14.449   7.941
46907SOL     OW42559  14.094   8.154   5.507
46907SOL    HW142560  14.100   8.090   5.578
46907SOL    HW242561  14.129   8.109   5.431
46908SOL     OW42562   7.423   7.224   0.323
46908SOL    HW142563   7.421   7.132   0.348
46908SOL    HW242564   7.463   7.225   0.237
46909SOL     OW42565   4.809   1.377  14.576
46909SOL    HW142566   4.800   1.447  14.512
46909SOL    HW242567   4.903   1.359  14.579
46910SOL     OW42568  13.173  14.691   7.855
46910SOL    HW142569  13.209  14.685   7.766
46910SOL    HW242570  13.250  14.694   7.912
46911SOL     OW42571   7.188   6.048   3.567
46911SOL    HW142572   7.152   5.984   3.628
46911SOL    HW242573   7.188   6.130   3.617
46912SOL     OW42574   1.443   7.382   6.968
46912SOL    HW142575   1.510   7.437   7.011
46912SOL    HW242576   1.431   7.309   7.028
46913SOL     OW42577   9.472  14.680  14.831
46913SOL    HW142578   9.395  14.738  14.833
46913SOL    HW242579   9.439  14.599  14.793
46914SOL     OW42580  13.588  10.105  13.183
46914SOL    HW142581  13.619  10.022  13.148
46914SOL    HW242582  13.526  10.080  13.251
46915SOL     OW42583   4.248   3.745  11.971
46915SOL    HW142584   4.306   3.807  11.927
46915SOL    HW242585   4.160   3.776  11.951
46916SOL     OW42586  10.980   5.847  13.203
46916SOL    HW142587  10.886   5.833  13.205
46916SOL    HW242588  10.990   5.942  13.198
46917SOL     OW42589  12.893  12.356   9.049
46917SOL    HW142590  12.888  12.352   9.144
46917SOL    HW242591  12.868  12.446   9.027
46918SOL     OW42592   8.385   2.344   2.259
46918SOL    HW142593   8.473   2.364   2.289
46918SOL    HW242594   8.360   2.265   2.306
46919SOL     OW42595   3.577  10.225   1.806
46919SOL    HW142596   3.584  10.153   1.743
46919SOL    HW242597   3.483  10.244   1.811
46920SOL     OW42598   9.821   9.314  13.419
46920SOL    HW142599   9.891   9.249  13.427
46920SOL    HW242600   9.854   9.390  13.469
46921SOL     OW42601   1.742   1.211  12.582
46921SOL    HW142602   1.748   1.191  12.488
46921SOL    HW242603   1.699   1.296  12.585
46922SOL     OW42604   0.392   3.200   8.286
46922SOL    HW142605   0.486   3.217   8.276
46922SOL    HW242606   0.359   3.277   8.332
46923SOL     OW42607   7.037   1.785  12.886
46923SOL    HW142608   7.100   1.716  12.908
46923SOL    HW242609   6.952   1.742  12.894
46924SOL     OW42610  12.418   5.651   3.258
46924SOL    HW142611  12.334   5.616   3.227
46924SOL    HW242612  12.423   5.738   3.220
46925SOL     OW42613   0.392   6.620   8.490
46925SOL    HW142614   0.405   6.559   8.418
46925SOL    HW242615   0.313   6.668   8.467
46926SOL     OW42616   1.716   9.472   6.296
46926SOL    HW142617   1.810   9.458   6.309
46926SOL    HW242618   1.710   9.526   6.218
46927SOL     OW42619  10.846   6.174   0.045
46927SOL    HW142620  10.839   6.262   0.083
46927SOL    HW242621  10.897   6.124   0.108
46928SOL     OW42622   2.927   8.872   3.697
46928SOL    HW142623   2.967   8.797   3.652
46928SOL    HW242624   2.835   8.870   3.669
46929SOL     OW42625  11.095   2.957   2.880
46929SOL    HW142626  11.087   2.863   2.897
46929SOL    HW242627  11.004   2.988   2.877
46930SOL     OW42628   9.629  12.126  10.362
46930SOL    HW142629   9.724  12.139  10.356
46930SOL    HW242630   9.610  12.056  10.300
46931SOL     OW42631   8.655  14.832   8.641
46931SOL    HW142632   8.742  14.821   8.603
46931SOL    HW242633   8.657  14.783   8.723
46932SOL     OW42634   7.020   0.539   1.510
46932SOL    HW142635   7.060   0.590   1.440
46932SOL    HW242636   6.943   0.590   1.536
46933SOL     OW42637  13.126   5.390   8.683
46933SOL    HW142638  13.176   5.470   8.694
46933SOL    HW242639  13.042   5.419   8.647
46934SOL     OW42640  14.206  14.187   2.414
46934SOL    HW142641  14.239  14.102   2.440
46934SOL    HW242642  14.211  14.241   2.493
46935SOL     OW42643  10.113   4.773   8.562
46935SOL    HW142644  10.074   4.767   8.475
46935SOL    HW242645  10.137   4.865   8.571
46936SOL     OW42646   4.969   0.013   9.176
46936SOL    HW142647   5.035   0.017   9.106
46936SOL    HW242648   4.885   0.014   9.130
46937SOL     OW42649  13.549   2.076   6.281
46937SOL    HW142650  13.538   2.022   6.204
46937SOL    HW242651  13.528   2.019   6.355
46938SOL     OW42652   3.115   8.456   1.658
46938SOL    HW142653   3.070   8.449   1.574
46938SOL    HW242654   3.091   8.543   1.691
46939SOL     OW42655  11.186   1.079   3.393
46939SOL    HW142656  11.138   1.158   3.418
46939SOL    HW242657  11.174   1.019   3.466
46940SOL     OW42658   8.008  13.427  11.869
46940SOL    HW142659   8.081  13.368  11.850
46940SOL    HW242660   7.987  13.467  11.784
46941SOL     OW42661   1.766  13.164   2.029
46941SOL    HW142662   1.764  13.072   2.054
46941SOL    HW242663   1.814  13.165   1.946
46942SOL     OW42664   4.304   3.640   0.038
46942SOL    HW142665   4.369   3.606   0.099
46942SOL    HW242666   4.336   3.616  14.828
46943SOL     OW42667   7.236   8.099   5.722
46943SOL    HW142668   7.148   8.071   5.748
46943SOL    HW242669   7.277   8.129   5.803
46944SOL     OW42670   1.760   9.196   7.713
46944SOL    HW142671   1.814   9.118   7.706
46944SOL    HW242672   1.673   9.168   7.686
46945SOL     OW42673   0.153   8.333   3.349
46945SOL    HW142674   0.190   8.323   3.262
46945SOL    HW242675   0.147   8.427   3.363
46946SOL     OW42676   4.821   2.317   7.290
46946SOL    HW142677   4.762   2.280   7.225
46946SOL    HW242678   4.804   2.267   7.370
46947SOL     OW42679   2.177   2.775   7.967
46947SOL    HW142680   2.260   2.807   8.002
46947SOL    HW242681   2.202   2.704   7.906
46948SOL     OW42682   9.467   8.791   7.044
46948SOL    HW142683   9.494   8.723   7.105
46948SOL    HW242684   9.471   8.872   7.095
46949SOL     OW42685   9.588   6.066   5.353
46949SOL    HW142686   9.675   6.058   5.393
46949SOL    HW242687   9.550   6.143   5.395
46950SOL     OW42688   5.445   7.862   1.380
46950SOL    HW142689   5.359   7.895   1.403
46950SOL    HW242690   5.481   7.829   1.463
46951SOL     OW42691   0.982  14.116   1.331
46951SOL    HW142692   1.062  14.115   1.279
46951SOL    HW242693   1.012  14.123   1.421
46952SOL     OW42694  13.579  14.864   8.291
46952SOL    HW142695  13.604  14.772   8.296
46952SOL    HW242696  13.577   0.017   8.383
46953SOL     OW42697   9.684   7.016   3.330
46953SOL    HW142698   9.647   6.928   3.326
46953SOL    HW242699   9.625   7.069   3.276
46954SOL     OW42700   9.975  10.032   2.893
46954SOL    HW142701  10.065  10.041   2.864
46954SOL    HW242702   9.963   9.938   2.907
46955SOL     OW42703  11.735  11.340   4.051
46955SOL    HW142704  11.731  11.390   3.969
46955SOL    HW242705  11.750  11.407   4.118
46956SOL     OW42706   8.527  10.057  11.070
46956SOL    HW142707   8.517  10.102  11.154
46956SOL    HW242708   8.616  10.022  11.071
46957SOL     OW42709  14.633   3.109  14.790
46957SOL    HW142710  14.625   3.164  14.868
46957SOL    HW242711  14.697   3.042  14.813
46958SOL     OW42712   0.778   7.082   5.878
46958SOL    HW142713   0.686   7.110   5.874
46958SOL    HW242714   0.810   7.118   5.960
46959SOL     OW42715   7.125  14.748   9.074
46959SOL    HW142716   7.102  14.767   8.983
46959SOL    HW242717   7.205  14.799   9.090
46960SOL     OW42718  10.517   3.963  13.043
46960SOL    HW142719  10.476   3.957  13.129
46960SOL    HW242720  10.567   4.044  13.046
46961SOL     OW42721   7.749  12.515  10.411
46961SOL    HW142722   7.715  12.437  10.366
46961SOL    HW242723   7.828  12.484  10.456
46962SOL     OW42724   1.104  10.705  10.563
46962SOL    HW142725   1.128  10.784  10.516
46962SOL    HW242726   1.089  10.734  10.653
46963SOL     OW42727   4.592  11.916   4.845
46963SOL    HW142728   4.542  11.836   4.858
46963SOL    HW242729   4.679  11.896   4.877
46964SOL     OW42730   5.886  10.777   0.296
46964SOL    HW142731   5.919  10.845   0.238
46964SOL    HW242732   5.861  10.823   0.376
46965SOL     OW42733  13.032   5.589   1.672
46965SOL    HW142734  13.105   5.629   1.719
46965SOL    HW242735  12.955   5.610   1.725
46966SOL     OW42736   6.065   4.246   5.095
46966SOL    HW142737   6.109   4.213   5.173
46966SOL    HW242738   5.979   4.204   5.096
46967SOL     OW42739   8.188  11.684   0.362
46967SOL    HW142740   8.273  11.709   0.326
46967SOL    HW242741   8.124  11.730   0.308
46968SOL     OW42742   1.469   3.745   0.908
46968SOL    HW142743   1.467   3.658   0.948
46968SOL    HW242744   1.559   3.775   0.920
46969SOL     OW42745  12.022   1.117   8.591
46969SOL    HW142746  12.062   1.122   8.678
46969SOL    HW242747  11.991   1.206   8.574
46970SOL     OW42748   6.048   4.361  14.634
46970SOL    HW142749   6.098   4.420  14.577
46970SOL    HW242750   6.082   4.274  14.614
46971SOL     OW42751  14.281   8.307   5.855
46971SOL    HW142752  14.280   8.402   5.851
46971SOL    HW242753  14.266   8.287   5.947
46972SOL     OW42754   3.927   6.108   2.590
46972SOL    HW142755   4.007   6.062   2.563
46972SOL    HW242756   3.859   6.074   2.531
46973SOL     OW42757   7.571   6.397  10.748
46973SOL    HW142758   7.642   6.334  10.733
46973SOL    HW242759   7.616   6.480  10.766
46974SOL     OW42760  11.515   0.776  11.885
46974SOL    HW142761  11.553   0.743  11.967
46974SOL    HW242762  11.590   0.799  11.831
46975SOL     OW42763  13.212  10.891  10.609
46975SOL    HW142764  13.127  10.862  10.641
46975SOL    HW242765  13.193  10.932  10.524
46976SOL     OW42766  11.051  11.468   6.299
46976SOL    HW142767  11.039  11.563   6.300
46976SOL    HW242768  11.146  11.456   6.310
46977SOL     OW42769  12.125   6.600   9.274
46977SOL    HW142770  12.155   6.653   9.348
46977SOL    HW242771  12.199   6.543   9.254
46978SOL     OW42772   9.263   7.079   5.087
46978SOL    HW142773   9.218   7.023   5.150
46978SOL    HW242774   9.194   7.132   5.048
46979SOL     OW42775   3.323   7.288   1.772
46979SOL    HW142776   3.341   7.376   1.737
46979SOL    HW242777   3.372   7.285   1.854
46980SOL     OW42778  10.298   7.991  14.469
46980SOL    HW142779  10.271   8.075  14.432
46980SOL    HW242780  10.394   7.993  14.464
46981SOL     OW42781   7.771   7.960   3.420
46981SOL    HW142782   7.715   8.038   3.416
46981SOL    HW242783   7.752   7.913   3.338
46982SOL     OW42784   7.801   1.955  13.069
46982SOL    HW142785   7.814   1.980  12.977
46982SOL    HW242786   7.846   1.871  13.078
46983SOL     OW42787   5.350   7.744   4.059
46983SOL    HW142788   5.332   7.767   3.968
46983SOL    HW242789   5.296   7.667   4.076
46984SOL     OW42790   2.696   8.308   0.199
46984SOL    HW142791   2.718   8.368   0.128
46984SOL    HW242792   2.702   8.220   0.160
46985SOL     OW42793   0.013  10.436   6.856
46985SOL    HW142794  14.798  10.409   6.867
46985SOL    HW242795   0.056  10.361   6.814
46986SOL     OW42796  11.979   4.501   5.975
46986SOL    HW142797  11.940   4.580   6.011
46986SOL    HW242798  11.990   4.442   6.050
46987SOL     OW42799   9.783   0.200  10.979
46987SOL    HW142800   9.776   0.186  11.074
46987SOL    HW242801   9.726   0.133  10.941
46988SOL     OW42802   3.012   0.642   0.845
46988SOL    HW142803   3.079   0.594   0.795
46988SOL    HW242804   2.974   0.703   0.781
46989SOL     OW42805   5.973   8.646   7.065
46989SOL    HW142806   6.019   8.652   7.148
46989SOL    HW242807   5.909   8.576   7.078
46990SOL     OW42808  10.840  10.868   8.826
46990SOL    HW142809  10.777  10.918   8.774
46990SOL    HW242810  10.822  10.777   8.806
46991SOL     OW42811   8.383  10.670   3.809
46991SOL    HW142812   8.298  10.667   3.765
46991SOL    HW242813   8.419  10.756   3.788
46992SOL     OW42814   3.470   1.352  13.332
46992SOL    HW142815   3.452   1.334  13.240
46992SOL    HW242816   3.559   1.321  13.346
46993SOL     OW42817   2.235   7.566   9.684
46993SOL    HW142818   2.233   7.512   9.605
46993SOL    HW242819   2.248   7.504   9.755
46994SOL     OW42820   5.979   8.994   7.440
46994SOL    HW142821   5.934   8.986   7.356
46994SOL    HW242822   5.909   9.004   7.504
46995SOL     OW42823  12.736   5.553   9.071
46995SOL    HW142824  12.644   5.538   9.052
46995SOL    HW242825  12.747   5.648   9.065
46996SOL     OW42826   9.629  12.417  14.179
46996SOL    HW142827   9.581  12.409  14.097
46996SOL    HW242828   9.684  12.338  14.182
46997SOL     OW42829   1.670   5.548   8.364
46997SOL    HW142830   1.759   5.550   8.399
46997SOL    HW242831   1.682   5.541   8.269
46998SOL     OW42832  10.350  10.656   0.194
46998SOL    HW142833  10.293  10.728   0.221
46998SOL    HW242834  10.432  10.699   0.169
46999SOL     OW42835  11.241  11.997   0.658
46999SOL    HW142836  11.163  11.989   0.712
46999SOL    HW242837  11.233  11.926   0.594
47000SOL     OW42838   1.503   8.851   2.335
47000SOL    HW142839   1.542   8.888   2.414
47000SOL    HW242840   1.576   8.807   2.291
47001SOL     OW42841   7.982   4.503   1.862
47001SOL    HW142842   7.926   4.478   1.935
47001SOL    HW242843   7.929   4.485   1.784
47002SOL     OW42844  11.014   1.054   2.595
47002SOL    HW142845  11.065   1.128   2.627
47002SOL    HW242846  10.966   1.089   2.520
47003SOL     OW42847   8.478   1.337  11.272
47003SOL    HW142848   8.540   1.276  11.230
47003SOL    HW242849   8.419   1.280  11.321
47004SOL     OW42850   8.907  12.354   4.410
47004SOL    HW142851   8.895  12.322   4.500
47004SOL    HW242852   8.988  12.313   4.380
47005SOL     OW42853   0.447   5.906   0.652
47005SOL    HW142854   0.529   5.942   0.687
47005SOL    HW242855   0.384   5.915   0.724
47006SOL     OW42856   0.609   5.759  10.195
47006SOL    HW142857   0.624   5.691  10.129
47006SOL    HW242858   0.550   5.718  10.258
47007SOL     OW42859  14.382  14.295   0.924
47007SOL    HW142860  14.428  14.251   0.853
47007SOL    HW242861  14.451  14.317   0.987
47008SOL     OW42862  10.164  13.341   2.480
47008SOL    HW142863  10.125  13.418   2.520
47008SOL    HW242864  10.251  13.369   2.454
47009SOL     OW42865   8.687   3.911  13.923
47009SOL    HW142866   8.749   3.958  13.979
47009SOL    HW242867   8.602   3.950  13.943
47010SOL     OW42868   7.533   8.476   4.267
47010SOL    HW142869   7.601   8.453   4.204
47010SOL    HW242870   7.473   8.401   4.265
47011SOL     OW42871   4.571   6.331  12.754
47011SOL    HW142872   4.650   6.338  12.808
47011SOL    HW242873   4.603   6.304  12.668
47012SOL     OW42874   1.428  13.694   9.345
47012SOL    HW142875   1.438  13.762   9.412
47012SOL    HW242876   1.468  13.616   9.384
47013SOL     OW42877   5.774   4.044   1.961
47013SOL    HW142878   5.795   3.954   1.935
47013SOL    HW242879   5.685   4.059   1.929
47014SOL     OW42880  11.191   7.253   5.103
47014SOL    HW142881  11.232   7.247   5.017
47014SOL    HW242882  11.097   7.247   5.085
47015SOL     OW42883  14.562  11.370   0.030
47015SOL    HW142884  14.494  11.372  14.839
47015SOL    HW242885  14.630  11.314  14.870
47016SOL     OW42886  12.434   1.086  12.753
47016SOL    HW142887  12.457   1.177  12.771
47016SOL    HW242888  12.456   1.039  12.833
47017SOL     OW42889   8.865   8.957  12.632
47017SOL    HW142890   8.790   9.004  12.667
47017SOL    HW242891   8.940   9.014  12.653
47018SOL     OW42892   9.377   3.381  14.712
47018SOL    HW142893   9.367   3.290  14.684
47018SOL    HW242894   9.333   3.386  14.796
47019SOL     OW42895  11.396   3.652   0.395
47019SOL    HW142896  11.350   3.633   0.476
47019SOL    HW242897  11.328   3.651   0.327
47020SOL     OW42898   5.557  10.649   5.474
47020SOL    HW142899   5.544  10.733   5.430
47020SOL    HW242900   5.473  10.631   5.516
47021SOL     OW42901  13.656   8.045   8.195
47021SOL    HW142902  13.609   8.053   8.112
47021SOL    HW242903  13.598   7.991   8.250
47022SOL     OW42904   9.711   7.856  11.412
47022SOL    HW142905   9.753   7.922  11.356
47022SOL    HW242906   9.775   7.785  11.417
47023SOL     OW42907  14.263   9.956  11.871
47023SOL    HW142908  14.193  10.019  11.887
47023SOL    HW242909  14.245   9.885  11.933
47024SOL     OW42910  10.390   2.466  14.411
47024SOL    HW142911  10.483   2.443  14.405
47024SOL    HW242912  10.389   2.541  14.470
47025SOL     OW42913   3.386   6.659   7.281
47025SOL    HW142914   3.433   6.724   7.334
47025SOL    HW242915   3.385   6.581   7.335
47026SOL     OW42916   8.714  14.354  11.591
47026SOL    HW142917   8.789  14.400  11.631
47026SOL    HW242918   8.753  14.297  11.525
47027SOL     OW42919   2.289  10.880   3.222
47027SOL    HW142920   2.353  10.949   3.240
47027SOL    HW242921   2.223  10.890   3.291
47028SOL     OW42922  11.074   0.726   7.947
47028SOL    HW142923  11.022   0.802   7.918
47028SOL    HW242924  11.067   0.727   8.042
47029SOL     OW42925   3.967   1.176  11.934
47029SOL    HW142926   3.883   1.206  11.968
47029SOL    HW242927   3.945   1.126  11.855
47030SOL     OW42928  11.672   5.590   2.487
47030SOL    HW142929  11.682   5.516   2.428
47030SOL    HW242930  11.588   5.576   2.530
47031SOL     OW42931   4.269   9.425   9.386
47031SOL    HW142932   4.243   9.381   9.467
47031SOL    HW242933   4.258   9.518   9.404
47032SOL     OW42934  11.321   3.083  12.320
47032SOL    HW142935  11.318   3.119  12.232
47032SOL    HW242936  11.336   2.990  12.307
47033SOL     OW42937   9.123   2.319   0.021
47033SOL    HW142938   9.123   2.336  14.803
47033SOL    HW242939   9.216   2.321   0.045
47034SOL     OW42940   0.754   8.218   8.779
47034SOL    HW142941   0.663   8.239   8.756
47034SOL    HW242942   0.800   8.302   8.773
47035SOL     OW42943   3.243   0.081   3.790
47035SOL    HW142944   3.161   0.131   3.793
47035SOL    HW242945   3.300   0.123   3.854
47036SOL     OW42946   4.250   8.173   5.412
47036SOL    HW142947   4.194   8.176   5.490
47036SOL    HW242948   4.338   8.186   5.446
47037SOL     OW42949  11.941   6.296  12.700
47037SOL    HW142950  11.970   6.353  12.628
47037SOL    HW242951  12.022   6.263  12.739
47038SOL     OW42952  10.459  10.656   1.783
47038SOL    HW142953  10.431  10.597   1.713
47038SOL    HW242954  10.398  10.640   1.854
47039SOL     OW42955   3.672  11.185  10.514
47039SOL    HW142956   3.700  11.251  10.577
47039SOL    HW242957   3.579  11.205  10.498
47040SOL     OW42958   0.953   2.622  12.013
47040SOL    HW142959   0.863   2.654  12.026
47040SOL    HW242960   0.983   2.666  11.934
47041SOL     OW42961   1.369   5.788   4.266
47041SOL    HW142962   1.463   5.797   4.247
47041SOL    HW242963   1.339   5.719   4.208
47042SOL     OW42964  12.985   1.636   8.118
47042SOL    HW142965  12.961   1.720   8.080
47042SOL    HW242966  12.922   1.623   8.189
47043SOL     OW42967   9.357   4.426   5.242
47043SOL    HW142968   9.303   4.463   5.171
47043SOL    HW242969   9.340   4.332   5.238
47044SOL     OW42970  11.042  11.037  11.857
47044SOL    HW142971  11.014  10.994  11.776
47044SOL    HW242972  11.028  10.972  11.925
47045SOL     OW42973  11.070  10.064   9.658
47045SOL    HW142974  11.074  10.041   9.565
47045SOL    HW242975  11.162  10.076   9.684
47046SOL     OW42976   7.812  11.122  14.562
47046SOL    HW142977   7.789  11.029  14.567
47046SOL    HW242978   7.730  11.167  14.580
47047SOL     OW42979   1.338   7.995   5.929
47047SOL    HW142980   1.330   8.052   6.005
47047SOL    HW242981   1.370   8.052   5.859
47048SOL     OW42982   6.322  12.004  10.972
47048SOL    HW142983   6.407  11.965  10.950
47048SOL    HW242984   6.262  11.929  10.975
47049SOL     OW42985   4.726   8.650  13.276
47049SOL    HW142986   4.668   8.624  13.204
47049SOL    HW242987   4.797   8.698  13.233
47050SOL     OW42988  12.426   4.936   4.286
47050SOL    HW142989  12.332   4.952   4.289
47050SOL    HW242990  12.461   4.985   4.360
47051SOL     OW42991   5.111   2.133   7.045
47051SOL    HW142992   5.025   2.097   7.070
47051SOL    HW242993   5.140   2.078   6.972
47052SOL     OW42994   1.822   9.878   2.044
47052SOL    HW142995   1.728   9.887   2.055
47052SOL    HW242996   1.860   9.947   2.099
47053SOL     OW42997   4.301  13.675   9.673
47053SOL    HW142998   4.343  13.716   9.748
47053SOL    HW242999   4.368  13.676   9.604
47054SOL     OW43000  13.251   6.806   4.622
47054SOL    HW143001  13.240   6.845   4.708
47054SOL    HW243002  13.243   6.879   4.560
47055SOL     OW43003   5.287   1.674   0.041
47055SOL    HW143004   5.240   1.596   0.070
47055SOL    HW243005   5.378   1.658   0.064
47056SOL     OW43006  13.751  10.337  10.905
47056SOL    HW143007  13.757  10.244  10.886
47056SOL    HW243008  13.770  10.345  10.998
47057SOL     OW43009   0.775   3.866  11.508
47057SOL    HW143010   0.752   3.925  11.579
47057SOL    HW243011   0.748   3.779  11.540
47058SOL     OW43012   9.217   5.373  10.636
47058SOL    HW143013   9.193   5.465  10.626
47058SOL    HW243014   9.291   5.361  10.576
47059SOL     OW43015   0.541   3.267  13.964
47059SOL    HW143016   0.524   3.307  13.879
47059SOL    HW243017   0.512   3.333  14.028
47060SOL     OW43018  12.630   5.776   5.371
47060SOL    HW143019  12.687   5.843   5.410
47060SOL    HW243020  12.591   5.818   5.295
47061SOL     OW43021   5.288   1.859  13.240
47061SOL    HW143022   5.341   1.891  13.167
47061SOL    HW243023   5.260   1.771  13.213
47062SOL     OW43024   1.270   4.115   1.797
47062SOL    HW143025   1.255   4.026   1.831
47062SOL    HW243026   1.197   4.166   1.831
47063SOL     OW43027  10.682  10.272  10.277
47063SOL    HW143028  10.619  10.332  10.239
47063SOL    HW243029  10.670  10.280  10.372
47064SOL     OW43030   6.160   0.554   3.696
47064SOL    HW143031   6.146   0.601   3.614
47064SOL    HW243032   6.254   0.563   3.713
47065SOL     OW43033  13.019   3.564   2.061
47065SOL    HW143034  13.096   3.615   2.038
47065SOL    HW243035  12.947   3.606   2.014
47066SOL     OW43036   5.151   1.984   8.879
47066SOL    HW143037   5.083   1.915   8.880
47066SOL    HW243038   5.182   1.985   8.788
47067SOL     OW43039   0.417   9.572   8.191
47067SOL    HW143040   0.396   9.512   8.119
47067SOL    HW243041   0.486   9.629   8.157
47068SOL     OW43042   5.788   5.947  13.704
47068SOL    HW143043   5.883   5.939  13.715
47068SOL    HW243044   5.758   5.989  13.784
47069SOL     OW43045   5.756  11.684   9.921
47069SOL    HW143046   5.677  11.660   9.874
47069SOL    HW243047   5.825  11.684   9.855
47070SOL     OW43048   3.364   9.469   7.043
47070SOL    HW143049   3.399   9.509   7.123
47070SOL    HW243050   3.431   9.406   7.017
47071SOL     OW43051   8.424   2.024   0.611
47071SOL    HW143052   8.515   2.050   0.621
47071SOL    HW243053   8.376   2.083   0.669
47072SOL     OW43054   8.811   1.014   8.380
47072SOL    HW143055   8.730   0.965   8.365
47072SOL    HW243056   8.813   1.078   8.309
47073SOL     OW43057   8.617   5.131  14.119
47073SOL    HW143058   8.524   5.157  14.116
47073SOL    HW243059   8.635   5.098  14.031
47074SOL     OW43060   2.336   0.696  13.641
47074SOL    HW143061   2.358   0.744  13.562
47074SOL    HW243062   2.281   0.756  13.691
47075SOL     OW43063  12.055   9.273  12.615
47075SOL    HW143064  12.038   9.327  12.692
47075SOL    HW243065  12.062   9.184  12.649
47076SOL     OW43066   1.850   7.959  12.025
47076SOL    HW143067   1.874   8.029  12.085
47076SOL    HW243068   1.794   7.901  12.077
47077SOL     OW43069   5.396   0.622   0.360
47077SOL    HW143070   5.418   0.645   0.450
47077SOL    HW243071   5.347   0.540   0.367
47078SOL     OW43072  13.456   9.178   8.868
47078SOL    HW143073  13.398   9.106   8.891
47078SOL    HW243074  13.422   9.211   8.785
47079SOL     OW43075  12.786  14.269   1.762
47079SOL    HW143076  12.838  14.208   1.814
47079SOL    HW243077  12.842  14.347   1.753
47080SOL     OW43078   8.382   8.540   0.914
47080SOL    HW143079   8.326   8.615   0.935
47080SOL    HW243080   8.445   8.536   0.986
47081SOL     OW43081  13.689   7.612   9.343
47081SOL    HW143082  13.688   7.707   9.348
47081SOL    HW243083  13.614   7.590   9.288
47082SOL     OW43084   5.033  14.006   0.759
47082SOL    HW143085   4.977  14.009   0.836
47082SOL    HW243086   4.975  14.029   0.686
47083SOL     OW43087   3.349  14.615  11.702
47083SOL    HW143088   3.372  14.580  11.788
47083SOL    HW243089   3.418  14.678  11.682
47084SOL     OW43090  14.815   7.858  13.330
47084SOL    HW143091   0.019   7.805  13.337
47084SOL    HW243092  14.746   7.801  13.364
47085SOL     OW43093   4.178  13.746  10.679
47085SOL    HW143094   4.248  13.720  10.740
47085SOL    HW243095   4.155  13.835  10.706
47086SOL     OW43096   9.792  14.328  12.235
47086SOL    HW143097   9.750  14.319  12.149
47086SOL    HW243098   9.718  14.327  12.297
47087SOL     OW43099   7.981   9.834   5.694
47087SOL    HW143100   7.926   9.787   5.631
47087SOL    HW243101   8.038   9.889   5.640
47088SOL     OW43102   1.358   2.022   2.505
47088SOL    HW143103   1.391   2.105   2.471
47088SOL    HW243104   1.263   2.028   2.495
47089SOL     OW43105  11.638  11.624  14.700
47089SOL    HW143106  11.730  11.635  14.725
47089SOL    HW243107  11.638  11.635  14.605
47090SOL     OW43108   6.605  12.169   7.495
47090SOL    HW143109   6.631  12.229   7.425
47090SOL    HW243110   6.512  12.184   7.507
47091SOL     OW43111  10.852   2.652   1.906
47091SOL    HW143112  10.893   2.604   1.978
47091SOL    HW243113  10.888   2.741   1.912
47092SOL     OW43114   0.682   6.639   4.555
47092SOL    HW143115   0.629   6.602   4.626
47092SOL    HW243116   0.619   6.677   4.495
47093SOL     OW43117   4.406   4.034   4.712
47093SOL    HW143118   4.432   3.942   4.715
47093SOL    HW243119   4.329   4.035   4.656
47094SOL     OW43120  12.436   7.444   0.837
47094SOL    HW143121  12.408   7.353   0.838
47094SOL    HW243122  12.390   7.484   0.911
47095SOL     OW43123  10.351  10.380  13.933
47095SOL    HW143124  10.284  10.448  13.941
47095SOL    HW243125  10.304  10.304  13.898
47096SOL     OW43126  14.684  13.982   8.706
47096SOL    HW143127  14.629  13.981   8.628
47096SOL    HW243128  14.711  13.891   8.718
47097SOL     OW43129   6.514   0.188   3.412
47097SOL    HW143130   6.563   0.106   3.401
47097SOL    HW243131   6.471   0.201   3.328
47098SOL     OW43132   9.918  11.283   4.694
47098SOL    HW143133   9.975  11.321   4.627
47098SOL    HW243134   9.932  11.189   4.687
47099SOL     OW43135   9.725   1.129   6.206
47099SOL    HW143136   9.671   1.208   6.205
47099SOL    HW243137   9.738   1.109   6.299
47100SOL     OW43138  11.020   4.945   3.744
47100SOL    HW143139  10.940   4.937   3.691
47100SOL    HW243140  11.008   4.879   3.813
47101SOL     OW43141   4.631   4.450   0.066
47101SOL    HW143142   4.540   4.461   0.037
47101SOL    HW243143   4.682   4.507   0.008
47102SOL     OW43144   1.984   6.733  10.538
47102SOL    HW143145   1.975   6.646  10.578
47102SOL    HW243146   2.017   6.788  10.608
47103SOL     OW43147   2.227   1.659   2.194
47103SOL    HW143148   2.251   1.594   2.128
47103SOL    HW243149   2.137   1.639   2.216
47104SOL     OW43150   8.058  12.964   0.624
47104SOL    HW143151   8.093  12.983   0.537
47104SOL    HW243152   7.978  13.017   0.630
47105SOL     OW43153   9.137   1.540   4.821
47105SOL    HW143154   9.074   1.475   4.790
47105SOL    HW243155   9.206   1.487   4.863
47106SOL     OW43156   5.613   5.598  13.360
47106SOL    HW143157   5.527   5.618  13.323
47106SOL    HW243158   5.657   5.548  13.291
47107SOL     OW43159   9.091   3.618   7.653
47107SOL    HW143160   9.028   3.578   7.713
47107SOL    HW243161   9.040   3.640   7.575
47108SOL     OW43162  11.606  11.642  11.882
47108SOL    HW143163  11.627  11.705  11.951
47108SOL    HW243164  11.686  11.637  11.829
47109SOL     OW43165  13.521   9.893   5.558
47109SOL    HW143166  13.508   9.816   5.613
47109SOL    HW243167  13.478   9.964   5.606
47110SOL     OW43168   9.346   3.563   8.113
47110SOL    HW143169   9.441   3.563   8.096
47110SOL    HW243170   9.339   3.543   8.206
47111SOL     OW43171   7.997   1.614   8.812
47111SOL    HW143172   7.986   1.616   8.907
47111SOL    HW243173   8.001   1.706   8.786
47112SOL     OW43174   8.499   5.080  12.444
47112SOL    HW143175   8.525   5.163  12.483
47112SOL    HW243176   8.505   5.095  12.350
47113SOL     OW43177   1.052   7.158  12.523
47113SOL    HW143178   1.007   7.223  12.468
47113SOL    HW243179   0.995   7.147  12.598
47114SOL     OW43180   9.583   2.549   9.186
47114SOL    HW143181   9.539   2.545   9.101
47114SOL    HW243182   9.514   2.532   9.250
47115SOL     OW43183   8.612   1.461   2.106
47115SOL    HW143184   8.648   1.549   2.118
47115SOL    HW243185   8.608   1.450   2.011
47116SOL     OW43186   7.912  14.281  14.447
47116SOL    HW143187   7.926  14.355  14.388
47116SOL    HW243188   7.833  14.304  14.496
47117SOL     OW43189   7.037  12.263   2.428
47117SOL    HW143190   7.041  12.286   2.521
47117SOL    HW243191   7.041  12.167   2.427
47118SOL     OW43192  12.798   4.812  13.746
47118SOL    HW143193  12.712   4.852  13.758
47118SOL    HW243194  12.859   4.875  13.785
47119SOL     OW43195   1.144   8.853   1.000
47119SOL    HW143196   1.133   8.907   0.922
47119SOL    HW243197   1.073   8.880   1.059
47120SOL     OW43198   6.542   3.870  10.483
47120SOL    HW143199   6.584   3.824  10.556
47120SOL    HW243200   6.547   3.808  10.410
47121SOL     OW43201  11.652  11.448  10.599
47121SOL    HW143202  11.632  11.473  10.689
47121SOL    HW243203  11.584  11.384  10.577
47122SOL     OW43204   1.403   2.267  11.963
47122SOL    HW143205   1.311   2.293  11.955
47122SOL    HW243206   1.452   2.344  11.937
47123SOL     OW43207   2.900   2.128   2.169
47123SOL    HW143208   2.957   2.054   2.190
47123SOL    HW243209   2.940   2.202   2.214
47124SOL     OW43210   2.711   9.355   1.832
47124SOL    HW143211   2.788   9.383   1.783
47124SOL    HW243212   2.746   9.304   1.905
47125SOL     OW43213   5.816   9.632   2.621
47125SOL    HW143214   5.846   9.610   2.533
47125SOL    HW243215   5.723   9.651   2.612
47126SOL     OW43216  12.151  12.968   0.174
47126SOL    HW143217  12.127  13.060   0.165
47126SOL    HW243218  12.079  12.919   0.134
47127SOL     OW43219  11.890  14.365   5.021
47127SOL    HW143220  11.861  14.415   4.945
47127SOL    HW243221  11.858  14.276   5.005
47128SOL     OW43222   4.664   4.383  11.763
47128SOL    HW143223   4.619   4.407  11.681
47128SOL    HW243224   4.598   4.336  11.813
47129SOL     OW43225   3.811   6.871   3.568
47129SOL    HW143226   3.888   6.840   3.520
47129SOL    HW243227   3.812   6.821   3.650
47130SOL     OW43228   9.698   9.221  10.914
47130SOL    HW143229   9.613   9.240  10.874
47130SOL    HW243230   9.719   9.133  10.885
47131SOL     OW43231   0.546   6.330  13.112
47131SOL    HW143232   0.611   6.361  13.049
47131SOL    HW243233   0.581   6.358  13.197
47132SOL     OW43234   7.796   4.182   7.380
47132SOL    HW143235   7.878   4.159   7.337
47132SOL    HW243236   7.780   4.111   7.442
47133SOL     OW43237   6.835   0.745   1.550
47133SOL    HW143238   6.868   0.791   1.473
47133SOL    HW243239   6.743   0.771   1.555
47134SOL     OW43240   6.480   8.541   5.394
47134SOL    HW143241   6.571   8.539   5.367
47134SOL    HW243242   6.481   8.585   5.479
47135SOL     OW43243   0.110   5.896   8.703
47135SOL    HW143244   0.130   5.873   8.794
47135SOL    HW243245   0.056   5.823   8.671
47136SOL     OW43246   8.309  11.647  14.783
47136SOL    HW143247   8.297  11.730  14.829
47136SOL    HW243248   8.323  11.582  14.852
47137SOL     OW43249   5.777  12.710   4.578
47137SOL    HW143250   5.688  12.740   4.562
47137SOL    HW243251   5.778  12.619   4.549
47138SOL     OW43252  11.974   3.297  11.494
47138SOL    HW143253  12.039   3.234  11.526
47138SOL    HW243254  11.903   3.292  11.558
47139SOL     OW43255   7.337   9.504   8.085
47139SOL    HW143256   7.244   9.501   8.063
47139SOL    HW243257   7.340   9.483   8.179
47140SOL     OW43258   1.904   5.722  11.892
47140SOL    HW143259   1.870   5.725  11.981
47140SOL    HW243260   1.908   5.629  11.870
47141SOL     OW43261   4.965   3.714   1.016
47141SOL    HW143262   5.010   3.768   0.951
47141SOL    HW243263   4.910   3.655   0.964
47142SOL     OW43264   7.636   4.389   1.434
47142SOL    HW143265   7.561   4.330   1.425
47142SOL    HW243266   7.598   4.477   1.431
47143SOL     OW43267  12.682  12.007   5.756
47143SOL    HW143268  12.731  11.984   5.677
47143SOL    HW243269  12.675  11.925   5.805
47144SOL     OW43270   8.306  12.170  11.800
47144SOL    HW143271   8.341  12.133  11.881
47144SOL    HW243272   8.338  12.112  11.731
47145SOL     OW43273   6.637  10.876   5.805
47145SOL    HW143274   6.551  10.861   5.846
47145SOL    HW243275   6.685  10.795   5.819
47146SOL     OW43276  10.763   3.623  11.789
47146SOL    HW143277  10.817   3.583  11.721
47146SOL    HW243278  10.673   3.600  11.766
47147SOL     OW43279   6.935   1.801  11.090
47147SOL    HW143280   6.986   1.830  11.166
47147SOL    HW243281   6.932   1.878  11.033
47148SOL     OW43282   7.229   4.004  14.747
47148SOL    HW143283   7.276   3.967  14.822
47148SOL    HW243284   7.248   4.098  14.751
47149SOL     OW43285   2.177   5.812   2.908
47149SOL    HW143286   2.173   5.905   2.929
47149SOL    HW243287   2.162   5.768   2.992
47150SOL     OW43288  11.372   9.051   9.045
47150SOL    HW143289  11.356   9.073   8.954
47150SOL    HW243290  11.301   8.991   9.069
47151SOL     OW43291   0.891  10.974   0.266
47151SOL    HW143292   0.957  10.941   0.205
47151SOL    HW243293   0.849  11.046   0.219
47152SOL     OW43294   7.216  10.259   2.735
47152SOL    HW143295   7.143  10.199   2.756
47152SOL    HW243296   7.247  10.229   2.650
47153SOL     OW43297   0.601   4.467   7.243
47153SOL    HW143298   0.669   4.415   7.284
47153SOL    HW243299   0.519   4.434   7.281
47154SOL     OW43300   0.942  12.786   6.168
47154SOL    HW143301   0.934  12.798   6.262
47154SOL    HW243302   1.036  12.775   6.153
47155SOL     OW43303   0.215   6.808  11.282
47155SOL    HW143304   0.254   6.732  11.239
47155SOL    HW243305   0.263   6.883  11.245
47156SOL     OW43306  13.953   3.408   0.259
47156SOL    HW143307  14.024   3.442   0.205
47156SOL    HW243308  13.883   3.473   0.250
47157SOL     OW43309   0.411  10.246   8.655
47157SOL    HW143310   0.318  10.239   8.675
47157SOL    HW243311   0.413  10.279   8.565
47158SOL     OW43312   6.047  11.305   2.082
47158SOL    HW143313   6.123  11.276   2.133
47158SOL    HW243314   6.072  11.391   2.049
47159SOL     OW43315   2.716   1.498   7.602
47159SOL    HW143316   2.683   1.497   7.512
47159SOL    HW243317   2.637   1.490   7.657
47160SOL     OW43318  12.443   6.533   9.290
47160SOL    HW143319  12.437   6.503   9.381
47160SOL    HW243320  12.435   6.629   9.296
47161SOL     OW43321  11.989   0.862   0.757
47161SOL    HW143322  11.935   0.925   0.805
47161SOL    HW243323  12.078   0.898   0.763
47162SOL     OW43324  14.254  12.595  12.823
47162SOL    HW143325  14.232  12.686  12.844
47162SOL    HW243326  14.350  12.593  12.827
47163SOL     OW43327   0.084  14.782  14.673
47163SOL    HW143328   0.176  14.781  14.701
47163SOL    HW243329   0.038  14.829  14.743
47164SOL     OW43330   0.331   9.499  13.309
47164SOL    HW143331   0.352   9.484  13.217
47164SOL    HW243332   0.335   9.413  13.349
47165SOL     OW43333   1.611   3.316   4.783
47165SOL    HW143334   1.641   3.407   4.781
47165SOL    HW243335   1.684   3.266   4.744
47166SOL     OW43336   9.296   7.855  13.956
47166SOL    HW143337   9.366   7.863  14.021
47166SOL    HW243338   9.336   7.807  13.884
47167SOL     OW43339  11.583   6.848   6.819
47167SOL    HW143340  11.611   6.836   6.910
47167SOL    HW243341  11.556   6.940   6.814
47168SOL     OW43342  10.329  13.336  10.102
47168SOL    HW143343  10.368  13.369  10.021
47168SOL    HW243344  10.307  13.415  10.152
47169SOL     OW43345  11.568   7.203   0.410
47169SOL    HW143346  11.604   7.223   0.324
47169SOL    HW243347  11.645   7.192   0.466
47170SOL     OW43348   0.927   4.514  12.239
47170SOL    HW143349   0.872   4.582  12.201
47170SOL    HW243350   0.865   4.455  12.282
47171SOL     OW43351   7.241  10.316   8.628
47171SOL    HW143352   7.146  10.329   8.630
47171SOL    HW243353   7.269  10.335   8.717
47172SOL     OW43354   6.506   4.766  14.651
47172SOL    HW143355   6.425   4.720  14.675
47172SOL    HW243356   6.549   4.785  14.734
47173SOL     OW43357   0.430  10.869   6.729
47173SOL    HW143358   0.353  10.850   6.674
47173SOL    HW243359   0.400  10.854   6.818
47174SOL     OW43360   9.179   1.077   2.508
47174SOL    HW143361   9.261   1.122   2.490
47174SOL    HW243362   9.187   1.048   2.599
47175SOL     OW43363   3.903   5.384   6.547
47175SOL    HW143364   3.998   5.385   6.543
47175SOL    HW243365   3.880   5.459   6.603
47176SOL     OW43366   7.931   3.814   1.653
47176SOL    HW143367   8.022   3.784   1.646
47176SOL    HW243368   7.923   3.842   1.745
47177SOL     OW43369  13.755   9.993   8.404
47177SOL    HW143370  13.791  10.050   8.472
47177SOL    HW243371  13.662  10.014   8.402
47178SOL     OW43372   2.302  11.698   3.624
47178SOL    HW143373   2.289  11.792   3.619
47178SOL    HW243374   2.390  11.684   3.589
47179SOL     OW43375  10.653  13.816   2.883
47179SOL    HW143376  10.559  13.834   2.872
47179SOL    HW243377  10.665  13.808   2.977
47180SOL     OW43378   1.254   5.541   7.535
47180SOL    HW143379   1.211   5.468   7.489
47180SOL    HW243380   1.344   5.511   7.548
47181SOL     OW43381   3.810   6.592   0.037
47181SOL    HW143382   3.762   6.619   0.116
47181SOL    HW243383   3.898   6.571   0.068
47182SOL     OW43384   1.365   2.119  11.096
47182SOL    HW143385   1.450   2.123  11.052
47182SOL    HW243386   1.383   2.075  11.179
47183SOL     OW43387   9.610   0.691  12.245
47183SOL    HW143388   9.668   0.677  12.170
47183SOL    HW243389   9.540   0.747  12.212
47184SOL     OW43390   1.321  13.433   8.021
47184SOL    HW143391   1.231  13.413   8.045
47184SOL    HW243392   1.316  13.463   7.931
47185SOL     OW43393  11.005   1.875   8.735
47185SOL    HW143394  10.964   1.874   8.648
47185SOL    HW243395  10.961   1.804   8.782
47186SOL     OW43396   5.389   2.909   3.102
47186SOL    HW143397   5.448   2.966   3.152
47186SOL    HW243398   5.312   2.962   3.087
47187SOL     OW43399   7.365  12.707   5.410
47187SOL    HW143400   7.329  12.791   5.439
47187SOL    HW243401   7.450  12.728   5.373
47188SOL     OW43402   9.276   4.302   4.763
47188SOL    HW143403   9.326   4.228   4.797
47188SOL    HW243404   9.245   4.272   4.677
47189SOL     OW43405  13.499  14.286   9.238
47189SOL    HW143406  13.412  14.258   9.266
47189SOL    HW243407  13.516  14.367   9.286
47190SOL     OW43408   6.683   6.850   4.202
47190SOL    HW143409   6.680   6.856   4.106
47190SOL    HW243410   6.602   6.805   4.226
47191SOL     OW43411  14.499   3.489  12.543
47191SOL    HW143412  14.432   3.470  12.608
47191SOL    HW243413  14.521   3.403  12.506
47192SOL     OW43414   0.554   1.349   1.993
47192SOL    HW143415   0.565   1.410   1.920
47192SOL    HW243416   0.491   1.392   2.051
47193SOL     OW43417  14.403  12.248  14.604
47193SOL    HW143418  14.396  12.248  14.508
47193SOL    HW243419  14.348  12.176  14.632
47194SOL     OW43420   5.168  11.466  13.306
47194SOL    HW143421   5.255  11.463  13.267
47194SOL    HW243422   5.161  11.382  13.353
47195SOL     OW43423   2.045   1.953   3.045
47195SOL    HW143424   2.041   2.040   3.006
47195SOL    HW243425   2.004   1.895   2.981
47196SOL     OW43426   8.562   1.213  10.151
47196SOL    HW143427   8.651   1.185  10.128
47196SOL    HW243428   8.513   1.131  10.158
47197SOL     OW43429   3.521   4.390   1.191
47197SOL    HW143430   3.533   4.316   1.249
47197SOL    HW243431   3.597   4.447   1.208
47198SOL     OW43432   2.341   1.236  14.678
47198SOL    HW143433   2.321   1.195  14.594
47198SOL    HW243434   2.307   1.325  14.670
47199SOL     OW43435   4.082  12.102  10.935
47199SOL    HW143436   4.010  12.141  10.885
47199SOL    HW243437   4.083  12.150  11.018
47200SOL     OW43438  13.281   2.345   3.593
47200SOL    HW143439  13.286   2.252   3.615
47200SOL    HW243440  13.193   2.357   3.557
47201SOL     OW43441   0.831   1.875   7.041
47201SOL    HW143442   0.904   1.825   7.079
47201SOL    HW243443   0.873   1.940   6.985
47202SOL     OW43444   9.158  10.809   7.936
47202SOL    HW143445   9.104  10.786   8.012
47202SOL    HW243446   9.186  10.899   7.953
47203SOL     OW43447   2.083   0.019   1.108
47203SOL    HW143448   2.163   0.051   1.149
47203SOL    HW243449   2.095  14.800   1.104
47204SOL     OW43450   0.271   1.006   6.162
47204SOL    HW143451   0.190   1.038   6.203
47204SOL    HW243452   0.270   0.912   6.177
47205SOL     OW43453   0.344  12.326   5.935
47205SOL    HW143454   0.283  12.297   6.003
47205SOL    HW243455   0.431  12.311   5.973
47206SOL     OW43456  14.212  13.997  13.376
47206SOL    HW143457  14.129  13.958  13.404
47206SOL    HW243458  14.277  13.962  13.436
47207SOL     OW43459  12.635   6.254   6.617
47207SOL    HW143460  12.701   6.245   6.549
47207SOL    HW243461  12.605   6.345   6.610
47208SOL     OW43462   5.702   8.253   5.164
47208SOL    HW143463   5.623   8.200   5.155
47208SOL    HW243464   5.741   8.222   5.246
47209SOL     OW43465  12.056   2.059   5.969
47209SOL    HW143466  12.015   2.052   5.883
47209SOL    HW243467  12.061   2.153   5.986
47210SOL     OW43468   7.101  14.050  10.925
47210SOL    HW143469   7.008  14.069  10.937
47210SOL    HW243470   7.131  14.022  11.012
47211SOL     OW43471  14.079   2.716   3.454
47211SOL    HW143472  14.046   2.642   3.505
47211SOL    HW243473  14.174   2.704   3.453
47212SOL     OW43474   0.846   9.118   8.722
47212SOL    HW143475   0.844   9.209   8.693
47212SOL    HW243476   0.824   9.067   8.643
47213SOL     OW43477   5.859   9.641   8.119
47213SOL    HW143478   5.831   9.673   8.204
47213SOL    HW243479   5.803   9.565   8.103
47214SOL     OW43480  12.694   7.120   0.108
47214SOL    HW143481  12.727   7.122   0.019
47214SOL    HW243482  12.749   7.055   0.153
47215SOL     OW43483  12.083   4.396  11.154
47215SOL    HW143484  12.136   4.470  11.124
47215SOL    HW243485  11.993   4.423  11.138
47216SOL     OW43486   3.830   6.346  10.734
47216SOL    HW143487   3.776   6.269  10.750
47216SOL    HW243488   3.867   6.332  10.647
47217SOL     OW43489  10.664  10.354  12.800
47217SOL    HW143490  10.718  10.323  12.872
47217SOL    HW243491  10.579  10.374  12.839
47218SOL     OW43492  10.418   9.221   4.368
47218SOL    HW143493  10.492   9.161   4.362
47218SOL    HW243494  10.405   9.254   4.279
47219SOL     OW43495   9.470   2.577   9.829
47219SOL    HW143496   9.482   2.484   9.846
47219SOL    HW243497   9.378   2.594   9.851
47220SOL     OW43498   5.803   0.417   3.057
47220SOL    HW143499   5.789   0.500   3.101
47220SOL    HW243500   5.715   0.387   3.033
47221SOL     OW43501  13.220   2.616  10.427
47221SOL    HW143502  13.181   2.558  10.362
47221SOL    HW243503  13.147   2.669  10.459
47222SOL     OW43504   8.463   2.452   0.630
47222SOL    HW143505   8.447   2.526   0.688
47222SOL    HW243506   8.390   2.453   0.568
47223SOL     OW43507  12.572   2.498   7.575
47223SOL    HW143508  12.574   2.432   7.505
47223SOL    HW243509  12.565   2.447   7.656
47224SOL     OW43510   4.836   8.632  11.077
47224SOL    HW143511   4.924   8.598  11.091
47224SOL    HW243512   4.839   8.721  11.114
47225SOL     OW43513   8.738   7.103   7.058
47225SOL    HW143514   8.713   7.056   7.138
47225SOL    HW243515   8.776   7.036   7.002
47226SOL     OW43516   4.434   4.711   2.667
47226SOL    HW143517   4.509   4.765   2.692
47226SOL    HW243518   4.472   4.641   2.614
47227SOL     OW43519  14.401   4.591  13.046
47227SOL    HW143520  14.314   4.551  13.049
47227SOL    HW243521  14.384   4.685  13.051
47228SOL     OW43522   5.602   3.475   5.252
47228SOL    HW143523   5.619   3.399   5.196
47228SOL    HW243524   5.516   3.459   5.289
47229SOL     OW43525  10.786   3.722  13.484
47229SOL    HW143526  10.782   3.730  13.579
47229SOL    HW243527  10.835   3.799  13.456
47230SOL     OW43528   4.368  12.636   8.356
47230SOL    HW143529   4.349  12.563   8.297
47230SOL    HW243530   4.284  12.656   8.396
47231SOL     OW43531  10.189   0.145   9.950
47231SOL    HW143532  10.172   0.053   9.933
47231SOL    HW243533  10.123   0.170  10.015
47232SOL     OW43534  11.367  14.866   2.491
47232SOL    HW143535  11.424   0.062   2.467
47232SOL    HW243536  11.306   0.027   2.555
47233SOL     OW43537   4.756  11.216   4.176
47233SOL    HW143538   4.701  11.152   4.222
47233SOL    HW243539   4.698  11.290   4.158
47234SOL     OW43540   6.720  14.854   6.960
47234SOL    HW143541   6.813  14.849   6.936
47234SOL    HW243542   6.696  14.764   6.982
47235SOL     OW43543   3.286   5.248   2.462
47235SOL    HW143544   3.337   5.242   2.381
47235SOL    HW243545   3.247   5.335   2.460
47236SOL     OW43546  13.475  11.972  14.184
47236SOL    HW143547  13.538  11.970  14.256
47236SOL    HW243548  13.402  11.918  14.215
47237SOL     OW43549  12.364  14.284   5.763
47237SOL    HW143550  12.425  14.347   5.725
47237SOL    HW243551  12.327  14.329   5.839
47238SOL     OW43552  13.391  12.800   8.896
47238SOL    HW143553  13.467  12.767   8.847
47238SOL    HW243554  13.352  12.722   8.935
47239SOL     OW43555   7.698   7.692   0.506
47239SOL    HW143556   7.655   7.685   0.591
47239SOL    HW243557   7.721   7.602   0.483
47240SOL     OW43558   9.732   8.559   8.052
47240SOL    HW143559   9.683   8.636   8.023
47240SOL    HW243560   9.820   8.591   8.070
47241SOL     OW43561   1.177  12.666  12.943
47241SOL    HW143562   1.088  12.632  12.948
47241SOL    HW243563   1.186  12.721  13.021
47242SOL     OW43564   4.691   0.456  12.056
47242SOL    HW143565   4.723   0.446  11.967
47242SOL    HW243566   4.604   0.494  12.047
47243SOL     OW43567   9.927   1.820  14.367
47243SOL    HW143568   9.854   1.877  14.342
47243SOL    HW243569   9.985   1.877  14.419
47244SOL     OW43570  10.340   6.620   7.497
47244SOL    HW143571  10.420   6.576   7.524
47244SOL    HW243572  10.369   6.706   7.464
47245SOL     OW43573  11.608   2.105  13.441
47245SOL    HW143574  11.644   2.163  13.508
47245SOL    HW243575  11.523   2.077  13.476
47246SOL     OW43576  11.289   8.246   0.115
47246SOL    HW143577  11.332   8.328   0.090
47246SOL    HW243578  11.253   8.211   0.034
47247SOL     OW43579   9.492  12.195   3.647
47247SOL    HW143580   9.541  12.208   3.729
47247SOL    HW243581   9.401  12.184   3.676
47248SOL     OW43582   1.600   0.824   6.946
47248SOL    HW143583   1.518   0.850   6.988
47248SOL    HW243584   1.665   0.885   6.982
47249SOL     OW43585   5.536   0.200   4.558
47249SOL    HW143586   5.511   0.246   4.638
47249SOL    HW243587   5.457   0.199   4.505
47250SOL     OW43588   6.865   3.684  11.428
47250SOL    HW143589   6.862   3.604  11.375
47250SOL    HW243590   6.774   3.703  11.449
47251SOL     OW43591  13.282   7.287   9.101
47251SOL    HW143592  13.190   7.283   9.127
47251SOL    HW243593  13.309   7.195   9.094
47252SOL     OW43594   7.580   5.797   7.216
47252SOL    HW143595   7.651   5.787   7.280
47252SOL    HW243596   7.516   5.730   7.241
47253SOL     OW43597   6.741   3.827   9.871
47253SOL    HW143598   6.704   3.818   9.959
47253SOL    HW243599   6.823   3.874   9.884
47254SOL     OW43600  12.563   6.225   5.362
47254SOL    HW143601  12.605   6.172   5.294
47254SOL    HW243602  12.485   6.176   5.387
47255SOL     OW43603  12.517   9.047   7.098
47255SOL    HW143604  12.477   9.111   7.040
47255SOL    HW243605  12.587   9.007   7.046
47256SOL     OW43606  13.769  13.983   1.322
47256SOL    HW143607  13.842  13.977   1.260
47256SOL    HW243608  13.691  13.983   1.268
47257SOL     OW43609   6.444  14.300  12.742
47257SOL    HW143610   6.397  14.242  12.802
47257SOL    HW243611   6.482  14.241  12.677
47258SOL     OW43612   1.906   8.765   1.864
47258SOL    HW143613   1.879   8.843   1.914
47258SOL    HW243614   1.976   8.727   1.917
47259SOL     OW43615   4.158   1.341   2.531
47259SOL    HW143616   4.220   1.362   2.461
47259SOL    HW243617   4.180   1.252   2.556
47260SOL     OW43618   1.245   3.512   2.204
47260SOL    HW143619   1.203   3.524   2.289
47260SOL    HW243620   1.287   3.427   2.209
47261SOL     OW43621   6.072   0.733  10.057
47261SOL    HW143622   6.140   0.786  10.099
47261SOL    HW243623   6.100   0.643  10.072
47262SOL     OW43624   9.772   5.642  10.934
47262SOL    HW143625   9.710   5.694  10.883
47262SOL    HW243626   9.723   5.615  11.012
47263SOL     OW43627   1.587  11.726  14.497
47263SOL    HW143628   1.655  11.789  14.524
47263SOL    HW243629   1.637  11.650  14.465
47264SOL     OW43630  11.007  12.527  11.511
47264SOL    HW143631  11.026  12.620  11.514
47264SOL    HW243632  10.960  12.515  11.428
47265SOL     OW43633   7.177   3.219   0.982
47265SOL    HW143634   7.201   3.148   1.042
47265SOL    HW243635   7.092   3.249   1.015
47266SOL     OW43636   6.599   6.610   6.533
47266SOL    HW143637   6.632   6.687   6.581
47266SOL    HW243638   6.538   6.647   6.469
47267SOL     OW43639   5.509   2.705   1.578
47267SOL    HW143640   5.443   2.649   1.536
47267SOL    HW243641   5.551   2.648   1.642
47268SOL     OW43642  12.582   0.621  11.724
47268SOL    HW143643  12.645   0.611  11.653
47268SOL    HW243644  12.620   0.571  11.797
47269SOL     OW43645   8.745  13.081   9.521
47269SOL    HW143646   8.763  13.163   9.567
47269SOL    HW243647   8.830  13.053   9.488
47270SOL     OW43648   1.009  12.797   7.231
47270SOL    HW143649   1.089  12.841   7.259
47270SOL    HW243650   0.950  12.867   7.203
47271SOL     OW43651   9.240   9.956   4.873
47271SOL    HW143652   9.300   9.939   4.946
47271SOL    HW243653   9.260   9.888   4.809
47272SOL     OW43654  14.759  14.115   5.150
47272SOL    HW143655  14.665  14.103   5.137
47272SOL    HW243656  14.776  14.073   5.235
47273SOL     OW43657  10.464   1.325   0.952
47273SOL    HW143658  10.433   1.276   1.028
47273SOL    HW243659  10.520   1.394   0.989
47274SOL     OW43660   4.056   1.495   8.296
47274SOL    HW143661   4.098   1.418   8.259
47274SOL    HW243662   4.112   1.521   8.369
47275SOL     OW43663   9.251   0.382   0.571
47275SOL    HW143664   9.307   0.417   0.501
47275SOL    HW243665   9.275   0.289   0.576
47276SOL     OW43666   5.245   7.366   9.807
47276SOL    HW143667   5.172   7.420   9.777
47276SOL    HW243668   5.321   7.423   9.801
47277SOL     OW43669   4.893  13.215   1.272
47277SOL    HW143670   4.964  13.155   1.293
47277SOL    HW243671   4.825  13.195   1.337
47278SOL     OW43672   2.984   0.882  14.571
47278SOL    HW143673   3.040   0.810  14.600
47278SOL    HW243674   2.902   0.870  14.619
47279SOL     OW43675   2.798   4.812  12.994
47279SOL    HW143676   2.744   4.888  13.013
47279SOL    HW243677   2.740   4.752  12.947
47280SOL     OW43678   8.460  10.087   5.633
47280SOL    HW143679   8.513  10.141   5.574
47280SOL    HW243680   8.392  10.146   5.665
47281SOL     OW43681   5.664   6.717   3.507
47281SOL    HW143682   5.579   6.674   3.515
47281SOL    HW243683   5.700   6.716   3.596
47282SOL     OW43684  10.568   3.753   0.384
47282SOL    HW143685  10.571   3.823   0.319
47282SOL    HW243686  10.618   3.786   0.458
47283SOL     OW43687  11.776  13.057   6.501
47283SOL    HW143688  11.689  13.024   6.527
47283SOL    HW243689  11.835  12.984   6.518
47284SOL     OW43690   7.016   8.110  11.598
47284SOL    HW143691   7.101   8.072  11.621
47284SOL    HW243692   6.987   8.154  11.679
47285SOL     OW43693   9.648  14.035  13.439
47285SOL    HW143694   9.620  13.959  13.490
47285SOL    HW243695   9.676  14.099  13.504
47286SOL     OW43696   6.985   6.474  10.690
47286SOL    HW143697   6.963   6.441  10.603
47286SOL    HW243698   7.071   6.514  10.679
47287SOL     OW43699   9.767  11.665  14.202
47287SOL    HW143700   9.691  11.649  14.258
47287SOL    HW243701   9.843  11.645  14.258
47288SOL     OW43702  14.247   7.044  14.323
47288SOL    HW143703  14.217   7.006  14.406
47288SOL    HW243704  14.258   6.969  14.265
47289SOL     OW43705   6.544   1.703   5.083
47289SOL    HW143706   6.479   1.715   5.014
47289SOL    HW243707   6.507   1.633   5.138
47290SOL     OW43708   2.213   7.373   0.228
47290SOL    HW143709   2.124   7.350   0.252
47290SOL    HW243710   2.261   7.374   0.311
47291SOL     OW43711   1.204   6.661   9.990
47291SOL    HW143712   1.243   6.735  10.037
47291SOL    HW243713   1.122   6.696   9.955
47292SOL     OW43714  14.428   8.948   3.817
47292SOL    HW143715  14.355   8.996   3.779
47292SOL    HW243716  14.453   8.999   3.894
47293SOL     OW43717  13.312   1.972   8.015
47293SOL    HW143718  13.288   1.883   8.040
47293SOL    HW243719  13.322   2.018   8.099
47294SOL     OW43720   2.948  10.282   3.531
47294SOL    HW143721   2.939  10.301   3.624
47294SOL    HW243722   3.034  10.241   3.523
47295SOL     OW43723  13.324   8.665  12.582
47295SOL    HW143724  13.392   8.672  12.648
47295SOL    HW243725  13.272   8.745  12.591
47296SOL     OW43726  12.206  12.539   1.157
47296SOL    HW143727  12.216  12.522   1.250
47296SOL    HW243728  12.290  12.513   1.119
47297SOL     OW43729  13.563   3.286   2.412
47297SOL    HW143730  13.560   3.375   2.447
47297SOL    HW243731  13.656   3.268   2.401
47298SOL     OW43732  13.671   9.359   6.540
47298SOL    HW143733  13.659   9.321   6.627
47298SOL    HW243734  13.764   9.378   6.534
47299SOL     OW43735   0.432   3.033  12.058
47299SOL    HW143736   0.338   3.014  12.058
47299SOL    HW243737   0.470   2.968  12.000
47300SOL     OW43738   7.702  13.010   7.496
47300SOL    HW143739   7.628  13.020   7.555
47300SOL    HW243740   7.732  12.920   7.510
47301SOL     OW43741   6.971   0.964  14.570
47301SOL    HW143742   7.038   0.895  14.569
47301SOL    HW243743   6.915   0.944  14.495
47302SOL     OW43744   3.027   0.701  12.831
47302SOL    HW143745   2.965   0.683  12.760
47302SOL    HW243746   2.989   0.777  12.876
47303SOL     OW43747   6.882   6.698  10.855
47303SOL    HW143748   6.852   6.784  10.826
47303SOL    HW243749   6.844   6.637  10.792
47304SOL     OW43750   7.322   5.645   0.710
47304SOL    HW143751   7.402   5.698   0.706
47304SOL    HW243752   7.351   5.561   0.745
47305SOL     OW43753   4.802   7.347   5.223
47305SOL    HW143754   4.815   7.277   5.159
47305SOL    HW243755   4.842   7.313   5.304
47306SOL     OW43756   4.758  10.750   3.230
47306SOL    HW143757   4.713  10.671   3.260
47306SOL    HW243758   4.792  10.727   3.144
47307SOL     OW43759   1.374  13.397  10.276
47307SOL    HW143760   1.286  13.391  10.312
47307SOL    HW243761   1.432  13.384  10.351
47308SOL     OW43762   1.161   2.525  13.346
47308SOL    HW143763   1.143   2.606  13.298
47308SOL    HW243764   1.147   2.548  13.438
47309SOL     OW43765  12.162   0.570   4.763
47309SOL    HW143766  12.223   0.629   4.719
47309SOL    HW243767  12.100   0.628   4.807
47310SOL     OW43768   7.578  14.855   0.503
47310SOL    HW143769   7.616  14.777   0.462
47310SOL    HW243770   7.531   0.022   0.432
47311SOL     OW43771   8.200  11.773  10.184
47311SOL    HW143772   8.180  11.839  10.251
47311SOL    HW243773   8.282  11.804  10.145
47312SOL     OW43774  11.500   2.641  10.683
47312SOL    HW143775  11.543   2.714  10.639
47312SOL    HW243776  11.451   2.682  10.755
47313SOL     OW43777  12.444  14.330   7.506
47313SOL    HW143778  12.487  14.280   7.577
47313SOL    HW243779  12.427  14.264   7.438
47314SOL     OW43780  14.780   3.189   8.884
47314SOL    HW143781  14.705   3.247   8.877
47314SOL    HW243782  14.771   3.148   8.970
47315SOL     OW43783  10.424  10.438  12.890
47315SOL    HW143784  10.375  10.362  12.858
47315SOL    HW243785  10.378  10.465  12.969
47316SOL     OW43786   7.597   7.119   4.903
47316SOL    HW143787   7.664   7.051   4.904
47316SOL    HW243788   7.644   7.199   4.878
47317SOL     OW43789   7.668  14.816   0.197
47317SOL    HW143790   7.639   0.025   0.165
47317SOL    HW243791   7.715  14.777   0.124
47318SOL     OW43792   3.001  13.975  10.541
47318SOL    HW143793   3.010  13.950  10.449
47318SOL    HW243794   3.030  13.898  10.590
47319SOL     OW43795  12.782   7.714  11.436
47319SOL    HW143796  12.733   7.726  11.517
47319SOL    HW243797  12.794   7.619  11.429
47320SOL     OW43798   1.983   0.777   9.291
47320SOL    HW143799   2.007   0.851   9.347
47320SOL    HW243800   1.915   0.811   9.233
47321SOL     OW43801  14.159  13.234   6.361
47321SOL    HW143802  14.254  13.223   6.359
47321SOL    HW243803  14.138  13.242   6.454
47322SOL     OW43804  11.031   7.810   3.934
47322SOL    HW143805  10.987   7.809   3.848
47322SOL    HW243806  11.097   7.878   3.925
47323SOL     OW43807   4.577  12.107  14.867
47323SOL    HW143808   4.500  12.084  14.815
47323SOL    HW243809   4.585  12.202  14.859
47324SOL     OW43810   5.239   1.347  10.202
47324SOL    HW143811   5.256   1.291  10.278
47324SOL    HW243812   5.171   1.408  10.232
47325SOL     OW43813   2.123  11.153  11.298
47325SOL    HW143814   2.129  11.167  11.392
47325SOL    HW243815   2.128  11.241  11.260
47326SOL     OW43816   8.933  13.919   6.855
47326SOL    HW143817   8.842  13.892   6.866
47326SOL    HW243818   8.931  13.985   6.786
47327SOL     OW43819   8.974  11.839   8.515
47327SOL    HW143820   8.930  11.777   8.574
47327SOL    HW243821   8.973  11.921   8.563
47328SOL     OW43822   4.564   1.053  14.131
47328SOL    HW143823   4.627   1.006  14.185
47328SOL    HW243824   4.478   1.022  14.161
47329SOL     OW43825   4.170   0.028   5.638
47329SOL    HW143826   4.126  14.854   5.707
47329SOL    HW243827   4.259   0.041   5.671
47330SOL     OW43828  12.834  12.885  10.648
47330SOL    HW143829  12.743  12.899  10.622
47330SOL    HW243830  12.834  12.893  10.743
47331SOL     OW43831   7.372   2.588  10.349
47331SOL    HW143832   7.309   2.546  10.409
47331SOL    HW243833   7.324   2.595  10.266
47332SOL     OW43834   6.343  12.587  11.324
47332SOL    HW143835   6.379  12.630  11.247
47332SOL    HW243836   6.359  12.649  11.395
47333SOL     OW43837   6.779   6.611  11.407
47333SOL    HW143838   6.745   6.666  11.337
47333SOL    HW243839   6.770   6.522  11.375
47334SOL     OW43840  12.543   6.226   1.581
47334SOL    HW143841  12.539   6.139   1.619
47334SOL    HW243842  12.592   6.215   1.499
47335SOL     OW43843   5.218   6.773   0.022
47335SOL    HW143844   5.169   6.779   0.104
47335SOL    HW243845   5.309   6.759   0.050
47336SOL     OW43846  11.868  11.190  10.319
47336SOL    HW143847  11.863  11.197  10.414
47336SOL    HW243848  11.933  11.122  10.303
47337SOL     OW43849   5.931   7.362   1.193
47337SOL    HW143850   5.929   7.437   1.252
47337SOL    HW243851   5.959   7.398   1.109
47338SOL     OW43852  14.692  13.984   6.373
47338SOL    HW143853  14.675  13.907   6.426
47338SOL    HW243854  14.786  13.981   6.354
47339SOL     OW43855  10.930   2.558   5.791
47339SOL    HW143856  10.973   2.623   5.736
47339SOL    HW243857  10.996   2.491   5.806
47340SOL     OW43858  10.997   0.525   6.198
47340SOL    HW143859  11.018   0.468   6.271
47340SOL    HW243860  11.061   0.596   6.203
47341SOL     OW43861   5.385  11.825   1.731
47341SOL    HW143862   5.389  11.825   1.827
47341SOL    HW243863   5.361  11.914   1.708
47342SOL     OW43864   7.176  11.645  11.299
47342SOL    HW143865   7.224  11.565  11.277
47342SOL    HW243866   7.092  11.614  11.332
47343SOL     OW43867   7.579   2.516   1.145
47343SOL    HW143868   7.550   2.526   1.055
47343SOL    HW243869   7.650   2.578   1.155
47344SOL     OW43870   3.311  13.727   9.209
47344SOL    HW143871   3.283  13.735   9.300
47344SOL    HW243872   3.255  13.787   9.161
47345SOL     OW43873   8.995   7.793   7.123
47345SOL    HW143874   9.043   7.726   7.075
47345SOL    HW243875   9.006   7.769   7.215
47346SOL     OW43876   0.790   7.203   5.417
47346SOL    HW143877   0.773   7.140   5.486
47346SOL    HW243878   0.747   7.283   5.446
47347SOL     OW43879   9.054   9.161   4.377
47347SOL    HW143880   9.031   9.079   4.334
47347SOL    HW243881   9.098   9.212   4.309
47348SOL     OW43882  10.330  13.715  14.484
47348SOL    HW143883  10.421  13.710  14.454
47348SOL    HW243884  10.312  13.809  14.490
47349SOL     OW43885   6.445  10.296   0.973
47349SOL    HW143886   6.474  10.382   0.942
47349SOL    HW243887   6.511  10.235   0.939
47350SOL     OW43888  11.558   8.135   7.867
47350SOL    HW143889  11.648   8.168   7.874
47350SOL    HW243890  11.528   8.166   7.782
47351SOL     OW43891   9.238   8.576   2.810
47351SOL    HW143892   9.236   8.656   2.758
47351SOL    HW243893   9.305   8.522   2.767
47352SOL     OW43894   0.915  11.967  10.038
47352SOL    HW143895   0.895  12.027   9.966
47352SOL    HW243896   0.875  12.008  10.115
47353SOL     OW43897  13.229  12.090   5.652
47353SOL    HW143898  13.188  12.004   5.654
47353SOL    HW243899  13.293  12.085   5.581
47354SOL     OW43900  10.331   2.117   8.282
47354SOL    HW143901  10.324   2.023   8.267
47354SOL    HW243902  10.403   2.145   8.225
47355SOL     OW43903   6.196   2.188  10.035
47355SOL    HW143904   6.251   2.145   9.970
47355SOL    HW243905   6.162   2.116  10.089
47356SOL     OW43906   8.820   2.214   4.658
47356SOL    HW143907   8.813   2.159   4.737
47356SOL    HW243908   8.911   2.203   4.631
47357SOL     OW43909   8.882  10.395   7.479
47357SOL    HW143910   8.858  10.371   7.569
47357SOL    HW243911   8.798  10.413   7.436
47358SOL     OW43912   3.976   8.249   2.670
47358SOL    HW143913   4.029   8.278   2.744
47358SOL    HW243914   4.036   8.248   2.596
47359SOL     OW43915  14.537   8.291  14.791
47359SOL    HW143916  14.582   8.266  14.710
47359SOL    HW243917  14.444   8.282  14.770
47360SOL     OW43918   0.436   9.340  11.076
47360SOL    HW143919   0.414   9.259  11.029
47360SOL    HW243920   0.453   9.312  11.166
47361SOL     OW43921   5.358  10.041  14.151
47361SOL    HW143922   5.409   9.965  14.123
47361SOL    HW243923   5.346  10.027  14.245
47362SOL     OW43924  14.454   1.166   7.745
47362SOL    HW143925  14.435   1.178   7.652
47362SOL    HW243926  14.546   1.189   7.754
47363SOL     OW43927  11.027  13.773   4.573
47363SOL    HW143928  11.010  13.724   4.493
47363SOL    HW243929  10.989  13.860   4.557
47364SOL     OW43930   1.113   7.736   7.454
47364SOL    HW143931   1.200   7.700   7.470
47364SOL    HW243932   1.054   7.661   7.463
47365SOL     OW43933   3.441  13.112   0.196
47365SOL    HW143934   3.444  13.192   0.249
47365SOL    HW243935   3.452  13.041   0.258
47366SOL     OW43936   7.019  12.660  14.542
47366SOL    HW143937   6.938  12.625  14.579
47366SOL    HW243938   7.084  12.650  14.611
47367SOL     OW43939   1.303   9.706  10.323
47367SOL    HW143940   1.313   9.771  10.253
47367SOL    HW243941   1.388   9.704  10.366
47368SOL     OW43942   3.935  12.723  12.471
47368SOL    HW143943   3.845  12.692  12.473
47368SOL    HW243944   3.978  12.678  12.544
47369SOL     OW43945   9.652   0.856   7.471
47369SOL    HW143946   9.733   0.883   7.427
47369SOL    HW243947   9.674   0.772   7.512
47370SOL     OW43948  13.952   5.124   3.625
47370SOL    HW143949  13.876   5.154   3.674
47370SOL    HW243950  13.954   5.030   3.640
47371SOL     OW43951   4.128  13.750   6.125
47371SOL    HW143952   4.137  13.670   6.178
47371SOL    HW243953   4.047  13.791   6.157
47372SOL     OW43954  11.845   3.929  10.748
47372SOL    HW143955  11.879   3.848  10.785
47372SOL    HW243956  11.809   3.904  10.663
47373SOL     OW43957   5.761   7.221   2.480
47373SOL    HW143958   5.723   7.308   2.497
47373SOL    HW243959   5.795   7.227   2.390
47374SOL     OW43960   8.121   8.114  13.223
47374SOL    HW143961   8.180   8.105  13.298
47374SOL    HW243962   8.179   8.107  13.147
47375SOL     OW43963   0.591   4.869   6.253
47375SOL    HW143964   0.665   4.908   6.206
47375SOL    HW243965   0.516   4.885   6.197
47376SOL     OW43966   8.802   8.144  13.640
47376SOL    HW143967   8.862   8.193  13.583
47376SOL    HW243968   8.839   8.153  13.727
47377SOL     OW43969  14.252   3.948  12.463
47377SOL    HW143970  14.265   3.949  12.368
47377SOL    HW243971  14.313   4.013  12.497
47378SOL     OW43972   6.148   5.662   1.082
47378SOL    HW143973   6.101   5.579   1.078
47378SOL    HW243974   6.223   5.651   1.023
47379SOL     OW43975  12.720   4.267   0.179
47379SOL    HW143976  12.713   4.192   0.120
47379SOL    HW243977  12.811   4.268   0.206
47380SOL     OW43978   4.938  10.845  12.507
47380SOL    HW143979   4.961  10.774  12.567
47380SOL    HW243980   4.855  10.816  12.468
47381SOL     OW43981   5.462  13.791   4.610
47381SOL    HW143982   5.442  13.725   4.676
47381SOL    HW243983   5.389  13.786   4.548
47382SOL     OW43984   0.629   1.641   7.801
47382SOL    HW143985   0.599   1.674   7.886
47382SOL    HW243986   0.578   1.562   7.786
47383SOL     OW43987  11.360  11.532  11.191
47383SOL    HW143988  11.393  11.464  11.132
47383SOL    HW243989  11.286  11.491  11.236
47384SOL     OW43990   5.578  12.574   6.855
47384SOL    HW143991   5.632  12.502   6.820
47384SOL    HW243992   5.642  12.641   6.880
47385SOL     OW43993   7.485   2.248  10.393
47385SOL    HW143994   7.447   2.250  10.305
47385SOL    HW243995   7.464   2.334  10.429
47386SOL     OW43996  14.673   7.708   1.527
47386SOL    HW143997  14.658   7.714   1.433
47386SOL    HW243998  14.767   7.692   1.536
47387SOL     OW43999   0.008   1.352   9.722
47387SOL    HW144000   0.098   1.319   9.715
47387SOL    HW244001  14.834   1.297   9.663
47388SOL     OW44002   8.641   2.269  11.857
47388SOL    HW144003   8.559   2.228  11.828
47388SOL    HW244004   8.614   2.347  11.905
47389SOL     OW44005   5.974  12.750  13.466
47389SOL    HW144006   5.898  12.729  13.520
47389SOL    HW244007   6.049  12.745  13.526
47390SOL     OW44008  14.773   3.458   2.082
47390SOL    HW144009  14.715   3.428   2.153
47390SOL    HW244010  14.826   3.382   2.061
47391SOL     OW44011  13.504   9.597  12.852
47391SOL    HW144012  13.416   9.626  12.828
47391SOL    HW244013  13.545   9.675  12.889
47392SOL     OW44014  10.425   6.614   1.490
47392SOL    HW144015  10.463   6.656   1.567
47392SOL    HW244016  10.499   6.599   1.431
47393SOL     OW44017   6.727  13.266   4.160
47393SOL    HW144018   6.793  13.285   4.227
47393SOL    HW244019   6.756  13.313   4.083
47394SOL     OW44020  11.765  12.234   5.703
47394SOL    HW144021  11.832  12.277   5.755
47394SOL    HW244022  11.769  12.278   5.618
47395SOL     OW44023   8.677   5.936   2.196
47395SOL    HW144024   8.637   6.017   2.228
47395SOL    HW244025   8.664   5.874   2.267
47396SOL     OW44026   4.973  14.356   7.136
47396SOL    HW144027   4.969  14.394   7.048
47396SOL    HW244028   4.889  14.312   7.147
47397SOL     OW44029   0.927   2.641   9.767
47397SOL    HW144030   0.999   2.588   9.801
47397SOL    HW244031   0.943   2.644   9.672
47398SOL     OW44032   3.688  12.425   8.402
47398SOL    HW144033   3.632  12.488   8.447
47398SOL    HW244034   3.720  12.472   8.325
47399SOL     OW44035   7.252  13.904  13.522
47399SOL    HW144036   7.184  13.865  13.467
47399SOL    HW244037   7.296  13.829  13.561
47400SOL     OW44038   9.167   1.169   2.053
47400SOL    HW144039   9.076   1.147   2.032
47400SOL    HW244040   9.161   1.221   2.133
47401SOL     OW44041   9.140   4.743   5.486
47401SOL    HW144042   9.225   4.713   5.519
47401SOL    HW244043   9.151   4.742   5.391
47402SOL     OW44044   4.362   7.480  14.023
47402SOL    HW144045   4.360   7.502  13.930
47402SOL    HW244046   4.419   7.403  14.029
47403SOL     OW44047   6.251   5.342   1.139
47403SOL    HW144048   6.297   5.334   1.223
47403SOL    HW244049   6.284   5.424   1.101
47404SOL     OW44050  14.408   7.001   1.926
47404SOL    HW144051  14.485   7.010   1.869
47404SOL    HW244052  14.444   6.984   2.013
47405SOL     OW44053   9.232  11.079   4.828
47405SOL    HW144054   9.267  11.135   4.759
47405SOL    HW244055   9.140  11.066   4.805
47406SOL     OW44056   5.333  13.143  12.614
47406SOL    HW144057   5.396  13.193  12.562
47406SOL    HW244058   5.255  13.199  12.618
47407SOL     OW44059   6.864   8.502  14.767
47407SOL    HW144060   6.835   8.533  14.854
47407SOL    HW244061   6.856   8.407  14.772
47408SOL     OW44062  13.106   8.828   2.253
47408SOL    HW144063  13.159   8.749   2.252
47408SOL    HW244064  13.155   8.889   2.308
47409SOL     OW44065   9.100   6.093   2.340
47409SOL    HW144066   9.065   6.030   2.277
47409SOL    HW244067   9.024   6.145   2.366
47410SOL     OW44068   8.652  11.531  11.246
47410SOL    HW144069   8.565  11.493  11.235
47410SOL    HW244070   8.697  11.471  11.305
47411SOL     OW44071   9.279  12.347  10.177
47411SOL    HW144072   9.347  12.328  10.241
47411SOL    HW244073   9.217  12.404  10.223
47412SOL     OW44074   8.952   9.828   1.877
47412SOL    HW144075   8.994   9.869   1.952
47412SOL    HW244076   9.008   9.852   1.802
47413SOL     OW44077  10.355   1.773   5.831
47413SOL    HW144078  10.374   1.682   5.808
47413SOL    HW244079  10.271   1.769   5.876
47414SOL     OW44080  10.346  14.524   7.785
47414SOL    HW144081  10.306  14.442   7.754
47414SOL    HW244082  10.307  14.592   7.730
47415SOL     OW44083   9.515  14.844  11.644
47415SOL    HW144084   9.548  14.766  11.687
47415SOL    HW244085   9.588  14.876  11.591
47416SOL     OW44086   0.481   0.142  14.848
47416SOL    HW144087   0.563   0.139  14.799
47416SOL    HW244088   0.506   0.172   0.059
47417SOL     OW44089   2.702  10.913   5.007
47417SOL    HW144090   2.691  11.007   4.991
47417SOL    HW244091   2.796  10.899   5.000
47418SOL     OW44092   2.255  10.431   3.886
47418SOL    HW144093   2.189  10.381   3.840
47418SOL    HW244094   2.331  10.430   3.829
47419SOL     OW44095  10.069   2.667  13.943
47419SOL    HW144096  10.007   2.710  14.002
47419SOL    HW244097  10.019   2.595  13.905
47420SOL     OW44098   5.237   5.447  11.215
47420SOL    HW144099   5.290   5.525  11.198
47420SOL    HW244100   5.162   5.479  11.265
47421SOL     OW44101  12.150   7.385   6.827
47421SOL    HW144102  12.084   7.332   6.784
47421SOL    HW244103  12.105   7.466   6.851
47422SOL     OW44104   5.111   7.531   0.719
47422SOL    HW144105   5.046   7.480   0.768
47422SOL    HW244106   5.080   7.621   0.726
47423SOL     OW44107   8.199   4.764   5.571
47423SOL    HW144108   8.169   4.830   5.634
47423SOL    HW244109   8.279   4.729   5.610
47424SOL     OW44110  10.236   1.260   7.271
47424SOL    HW144111  10.259   1.212   7.350
47424SOL    HW244112  10.321   1.279   7.230
47425SOL     OW44113   4.179   3.445   8.691
47425SOL    HW144114   4.167   3.355   8.723
47425SOL    HW244115   4.172   3.437   8.596
47426SOL     OW44116  13.523   8.189   3.714
47426SOL    HW144117  13.563   8.212   3.798
47426SOL    HW244118  13.465   8.262   3.695
47427SOL     OW44119   9.212  13.435  13.760
47427SOL    HW144120   9.120  13.456  13.746
47427SOL    HW244121   9.235  13.479  13.841
47428SOL     OW44122  12.104   4.128   6.535
47428SOL    HW144123  12.077   4.076   6.459
47428SOL    HW244124  12.044   4.101   6.604
47429SOL     OW44125   8.852  14.496   4.422
47429SOL    HW144126   8.847  14.591   4.427
47429SOL    HW244127   8.763  14.466   4.441
47430SOL     OW44128  12.152   0.398   1.674
47430SOL    HW144129  12.066   0.411   1.714
47430SOL    HW244130  12.176   0.308   1.697
47431SOL     OW44131   2.300  12.837   8.665
47431SOL    HW144132   2.234  12.768   8.675
47431SOL    HW244133   2.357  12.827   8.741
47432SOL     OW44134   3.085   4.810  12.847
47432SOL    HW144135   3.150   4.874  12.819
47432SOL    HW244136   3.001   4.856  12.841
47433SOL     OW44137   7.787   2.576   7.948
47433SOL    HW144138   7.854   2.618   7.894
47433SOL    HW244139   7.795   2.620   8.033
47434SOL     OW44140   5.305   0.228   2.058
47434SOL    HW144141   5.271   0.220   2.146
47434SOL    HW244142   5.367   0.156   2.049
47435SOL     OW44143   3.617  14.829  10.469
47435SOL    HW144144   3.682   0.001  10.520
47435SOL    HW244145   3.659  14.746  10.448
47436SOL     OW44146   8.784  14.647  10.827
47436SOL    HW144147   8.788  14.665  10.733
47436SOL    HW244148   8.711  14.586  10.837
47437SOL     OW44149   6.681   1.138   4.248
47437SOL    HW144150   6.687   1.043   4.238
47437SOL    HW244151   6.768   1.170   4.224
47438SOL     OW44152  14.847  11.319   3.897
47438SOL    HW144153  14.870  11.367   3.976
47438SOL    HW244154  14.804  11.239   3.928
47439SOL     OW44155   5.140   5.291   3.760
47439SOL    HW144156   5.059   5.342   3.759
47439SOL    HW244157   5.209   5.356   3.774
47440SOL     OW44158  13.876   5.408   3.191
47440SOL    HW144159  13.918   5.395   3.106
47440SOL    HW244160  13.928   5.356   3.252
47441SOL     OW44161   5.914   6.785   7.049
47441SOL    HW144162   5.829   6.745   7.066
47441SOL    HW244163   5.909   6.871   7.092
47442SOL     OW44164   0.043   0.246  12.308
47442SOL    HW144165   0.055   0.325  12.361
47442SOL    HW244166   0.123   0.238  12.257
47443SOL     OW44167   5.835   7.181   8.519
47443SOL    HW144168   5.917   7.157   8.475
47443SOL    HW244169   5.784   7.100   8.520
47444SOL     OW44170   0.600  13.733   6.021
47444SOL    HW144171   0.687  13.693   6.009
47444SOL    HW244172   0.574  13.706   6.109
47445SOL     OW44173  13.418  14.048  10.191
47445SOL    HW144174  13.334  14.022  10.230
47445SOL    HW244175  13.444  13.973  10.138
47446SOL     OW44176  14.668  14.842  13.497
47446SOL    HW144177  14.642   0.056  13.510
47446SOL    HW244178  14.590  14.791  13.517
47447SOL     OW44179  13.928  10.434  12.722
47447SOL    HW144180  14.003  10.477  12.680
47447SOL    HW244181  13.944  10.445  12.816
47448SOL     OW44182   0.493   5.482   5.209
47448SOL    HW144183   0.430   5.422   5.250
47448SOL    HW244184   0.544   5.517   5.282
47449SOL     OW44185  10.488   8.224  14.843
47449SOL    HW144186  10.567   8.239  14.791
47449SOL    HW244187  10.494   8.132  14.870
47450SOL     OW44188  13.636   4.598   7.107
47450SOL    HW144189  13.726   4.614   7.080
47450SOL    HW244190  13.625   4.653   7.185
47451SOL     OW44191  13.276  12.856  13.179
47451SOL    HW144192  13.370  12.864  13.199
47451SOL    HW244193  13.263  12.912  13.103
47452SOL     OW44194  13.860   7.203   7.149
47452SOL    HW144195  13.947   7.185   7.182
47452SOL    HW244196  13.807   7.220   7.227
47453SOL     OW44197   1.910  11.804  11.698
47453SOL    HW144198   1.949  11.816  11.611
47453SOL    HW244199   1.825  11.764  11.680
47454SOL     OW44200   3.667   0.793   8.665
47454SOL    HW144201   3.615   0.860   8.709
47454SOL    HW244202   3.648   0.805   8.572
47455SOL     OW44203  13.439   6.129   8.763
47455SOL    HW144204  13.527   6.126   8.727
47455SOL    HW244205  13.383   6.094   8.694
47456SOL     OW44206   4.718  10.761   5.806
47456SOL    HW144207   4.757  10.679   5.834
47456SOL    HW244208   4.791  10.822   5.800
47457SOL     OW44209   8.174   5.257   4.099
47457SOL    HW144210   8.223   5.262   4.017
47457SOL    HW244211   8.241   5.263   4.167
47458SOL     OW44212   5.720   7.456   6.062
47458SOL    HW144213   5.743   7.534   6.112
47458SOL    HW244214   5.743   7.383   6.121
47459SOL     OW44215   2.543  14.580   8.513
47459SOL    HW144216   2.447  14.585   8.506
47459SOL    HW244217   2.559  14.557   8.605
47460SOL     OW44218  13.599  13.054   4.602
47460SOL    HW144219  13.594  13.102   4.685
47460SOL    HW244220  13.690  13.061   4.575
47461SOL     OW44221  14.868   9.991   4.981
47461SOL    HW144222   0.021  10.017   5.068
47461SOL    HW244223   0.033   9.906   4.967
47462SOL     OW44224   6.981  13.197  11.774
47462SOL    HW144225   6.917  13.128  11.794
47462SOL    HW244226   7.006  13.181  11.683
47463SOL     OW44227   5.126   9.863   8.301
47463SOL    HW144228   5.154   9.776   8.272
47463SOL    HW244229   5.076   9.846   8.381
47464SOL     OW44230  14.076  14.561  11.143
47464SOL    HW144231  14.012  14.546  11.213
47464SOL    HW244232  14.027  14.606  11.074
47465SOL     OW44233  11.547  14.361   2.440
47465SOL    HW144234  11.508  14.436   2.484
47465SOL    HW244235  11.639  14.364   2.465
47466SOL     OW44236   3.921  10.824   6.297
47466SOL    HW144237   3.992  10.838   6.360
47466SOL    HW244238   3.847  10.798   6.352
47467SOL     OW44239   6.748  13.713   4.194
47467SOL    HW144240   6.810  13.643   4.213
47467SOL    HW244241   6.797  13.774   4.139
47468SOL     OW44242  12.883   6.397   4.516
47468SOL    HW144243  12.878   6.455   4.440
47468SOL    HW244244  12.802   6.347   4.513
47469SOL     OW44245   3.474   9.296   8.989
47469SOL    HW144246   3.499   9.330   9.074
47469SOL    HW244247   3.534   9.223   8.973
47470SOL     OW44248   5.417   7.634  13.242
47470SOL    HW144249   5.512   7.637  13.234
47470SOL    HW244250   5.393   7.718  13.281
47471SOL     OW44251   4.677  13.070   5.687
47471SOL    HW144252   4.765  13.049   5.655
47471SOL    HW244253   4.629  13.097   5.609
47472SOL     OW44254   1.019   4.488   8.213
47472SOL    HW144255   1.004   4.398   8.241
47472SOL    HW244256   1.112   4.503   8.231
47473SOL     OW44257   6.737   5.084   3.425
47473SOL    HW144258   6.666   5.039   3.470
47473SOL    HW244259   6.737   5.172   3.462
47474SOL     OW44260  11.559   8.369   9.733
47474SOL    HW144261  11.629   8.420   9.694
47474SOL    HW244262  11.592   8.346   9.820
47475SOL     OW44263   6.605  13.563   3.571
47475SOL    HW144264   6.521  13.556   3.526
47475SOL    HW244265   6.606  13.490   3.633
47476SOL     OW44266   0.246   2.688  12.283
47476SOL    HW144267   0.297   2.724  12.210
47476SOL    HW244268   0.227   2.598  12.257
47477SOL     OW44269   0.611   9.902   0.105
47477SOL    HW144270   0.630   9.855   0.023
47477SOL    HW244271   0.568   9.837   0.160
47478SOL     OW44272   9.664   6.621  11.851
47478SOL    HW144273   9.704   6.700  11.816
47478SOL    HW244274   9.737   6.570  11.887
47479SOL     OW44275   1.857   7.103   3.474
47479SOL    HW144276   1.777   7.049   3.473
47479SOL    HW244277   1.928   7.040   3.458
47480SOL     OW44278  12.804  12.215  11.710
47480SOL    HW144279  12.839  12.127  11.695
47480SOL    HW244280  12.761  12.209  11.796
47481SOL     OW44281   5.218   6.581   2.728
47481SOL    HW144282   5.253   6.505   2.774
47481SOL    HW244283   5.164   6.626   2.794
47482SOL     OW44284  13.392   8.594  14.809
47482SOL    HW144285  13.475   8.558  14.777
47482SOL    HW244286  13.384   8.558   0.021
47483SOL     OW44287   5.584   0.848   8.708
47483SOL    HW144288   5.643   0.776   8.683
47483SOL    HW244289   5.591   0.852   8.804
47484SOL     OW44290   4.491  14.255  14.676
47484SOL    HW144291   4.499  14.185  14.740
47484SOL    HW244292   4.495  14.335  14.728
47485SOL     OW44293  12.995  10.259   1.364
47485SOL    HW144294  12.999  10.351   1.340
47485SOL    HW244295  13.084  10.235   1.388
47486SOL     OW44296   3.194   5.270  10.085
47486SOL    HW144297   3.175   5.187  10.129
47486SOL    HW244298   3.287   5.285  10.101
47487SOL     OW44299   4.439  10.261   9.133
47487SOL    HW144300   4.462  10.173   9.164
47487SOL    HW244301   4.514  10.315   9.158
47488SOL     OW44302   3.207  14.032   0.489
47488SOL    HW144303   3.149  14.090   0.441
47488SOL    HW244304   3.293  14.073   0.484
47489SOL     OW44305   5.426   9.971  13.524
47489SOL    HW144306   5.423   9.909  13.451
47489SOL    HW244307   5.338   9.968  13.562
47490SOL     OW44308   9.964   3.942  10.173
47490SOL    HW144309   9.899   4.009  10.192
47490SOL    HW244310   9.981   3.900  10.258
47491SOL     OW44311   0.183  13.296   1.345
47491SOL    HW144312   0.188  13.384   1.382
47491SOL    HW244313   0.195  13.237   1.419
47492SOL     OW44314  14.206   2.120   0.792
47492SOL    HW144315  14.213   2.039   0.741
47492SOL    HW244316  14.253   2.185   0.740
47493SOL     OW44317   8.663   7.200   1.203
47493SOL    HW144318   8.667   7.171   1.113
47493SOL    HW244319   8.593   7.266   1.204
47494SOL     OW44320   7.376   7.836   7.338
47494SOL    HW144321   7.348   7.889   7.413
47494SOL    HW244322   7.349   7.886   7.262
47495SOL     OW44323   5.825   7.638  13.881
47495SOL    HW144324   5.799   7.590  13.803
47495SOL    HW244325   5.913   7.671  13.861
47496SOL     OW44326   6.760  14.691   3.645
47496SOL    HW144327   6.847  14.728   3.659
47496SOL    HW244328   6.712  14.712   3.725
47497SOL     OW44329   8.755   1.144   5.997
47497SOL    HW144330   8.795   1.197   6.066
47497SOL    HW244331   8.662   1.141   6.020
47498SOL     OW44332   6.367   1.305   5.065
47498SOL    HW144333   6.321   1.242   5.121
47498SOL    HW244334   6.354   1.389   5.109
47499SOL     OW44335  12.437   1.796   2.682
47499SOL    HW144336  12.478   1.768   2.600
47499SOL    HW244337  12.461   1.727   2.745
47500SOL     OW44338   1.584  13.481   6.591
47500SOL    HW144339   1.596  13.515   6.680
47500SOL    HW244340   1.634  13.542   6.536
47501SOL     OW44341   4.874   2.450   9.979
47501SOL    HW144342   4.868   2.367  10.026
47501SOL    HW244343   4.911   2.511  10.043
47502SOL     OW44344   3.032  12.019   6.664
47502SOL    HW144345   2.964  12.024   6.597
47502SOL    HW244346   3.048  12.110   6.689
47503SOL     OW44347   6.409  10.608   6.591
47503SOL    HW144348   6.415  10.667   6.667
47503SOL    HW244349   6.499  10.596   6.563
47504SOL     OW44350  10.989  14.398  13.931
47504SOL    HW144351  10.925  14.415  13.999
47504SOL    HW244352  11.015  14.485  13.900
47505SOL     OW44353  10.753   9.459   7.409
47505SOL    HW144354  10.726   9.516   7.336
47505SOL    HW244355  10.832   9.501   7.443
47506SOL     OW44356  10.066  13.496   2.150
47506SOL    HW144357  10.078  13.453   2.066
47506SOL    HW244358  10.066  13.425   2.214
47507SOL     OW44359  13.744   3.579   0.175
47507SOL    HW144360  13.758   3.630   0.095
47507SOL    HW244361  13.734   3.644   0.244
47508SOL     OW44362   6.738  12.131   0.590
47508SOL    HW144363   6.687  12.147   0.511
47508SOL    HW244364   6.762  12.219   0.621
47509SOL     OW44365   6.128   9.914  14.335
47509SOL    HW144366   6.154   9.836  14.385
47509SOL    HW244367   6.155   9.896  14.245
47510SOL     OW44368   3.447   4.289   8.665
47510SOL    HW144369   3.399   4.372   8.666
47510SOL    HW244370   3.397   4.232   8.724
47511SOL     OW44371   8.949   3.719   8.883
47511SOL    HW144372   9.011   3.663   8.835
47511SOL    HW244373   9.003   3.762   8.949
47512SOL     OW44374   5.707  10.221   7.729
47512SOL    HW144375   5.627  10.214   7.780
47512SOL    HW244376   5.742  10.132   7.726
47513SOL     OW44377   5.786   4.020   3.699
47513SOL    HW144378   5.869   3.979   3.723
47513SOL    HW244379   5.720   3.972   3.750
47514SOL     OW44380  13.053   7.228   6.415
47514SOL    HW144381  13.063   7.311   6.460
47514SOL    HW244382  12.959   7.222   6.397
47515SOL     OW44383   3.719  14.163   1.533
47515SOL    HW144384   3.629  14.144   1.507
47515SOL    HW244385   3.740  14.098   1.599
47516SOL     OW44386  14.223   2.612  12.255
47516SOL    HW144387  14.205   2.697  12.213
47516SOL    HW244388  14.180   2.548  12.199
47517SOL     OW44389   9.810   7.614  14.344
47517SOL    HW144390   9.903   7.596  14.327
47517SOL    HW244391   9.793   7.571  14.428
47518SOL     OW44392  13.958   8.178   0.926
47518SOL    HW144393  13.969   8.173   0.831
47518SOL    HW244394  13.911   8.260   0.941
47519SOL     OW44395  11.285   4.512   4.081
47519SOL    HW144396  11.366   4.506   4.030
47519SOL    HW244397  11.292   4.597   4.125
47520SOL     OW44398  12.868   3.801   4.560
47520SOL    HW144399  12.930   3.735   4.528
47520SOL    HW244400  12.896   3.882   4.517
47521SOL     OW44401   9.241  12.203   7.177
47521SOL    HW144402   9.307  12.138   7.155
47521SOL    HW244403   9.279  12.286   7.149
47522SOL     OW44404   7.307  11.648   4.153
47522SOL    HW144405   7.264  11.653   4.238
47522SOL    HW244406   7.401  11.647   4.174
47523SOL     OW44407  10.892   8.464   6.468
47523SOL    HW144408  10.824   8.397   6.475
47523SOL    HW244409  10.914   8.466   6.374
47524SOL     OW44410   9.585  13.622   2.764
47524SOL    HW144411   9.634  13.698   2.796
47524SOL    HW244412   9.608  13.552   2.826
47525SOL     OW44413   5.559   5.156   2.455
47525SOL    HW144414   5.519   5.136   2.540
47525SOL    HW244415   5.588   5.247   2.464
47526SOL     OW44416   3.588  13.969   9.725
47526SOL    HW144417   3.538  13.894   9.759
47526SOL    HW244418   3.524  14.040   9.719
47527SOL     OW44419  11.871  10.493   6.472
47527SOL    HW144420  11.954  10.499   6.520
47527SOL    HW244421  11.896  10.502   6.380
47528SOL     OW44422   8.057  10.336   7.793
47528SOL    HW144423   8.117  10.279   7.841
47528SOL    HW244424   7.973  10.327   7.838
47529SOL     OW44425   1.230  14.188   0.567
47529SOL    HW144426   1.249  14.142   0.485
47529SOL    HW244427   1.170  14.258   0.542
47530SOL     OW44428  14.164   0.276   5.472
47530SOL    HW144429  14.255   0.247   5.470
47530SOL    HW244430  14.161   0.343   5.540
47531SOL     OW44431   8.868   9.015   9.295
47531SOL    HW144432   8.942   9.073   9.278
47531SOL    HW244433   8.790   9.067   9.273
47532SOL     OW44434   5.038   2.050   1.738
47532SOL    HW144435   4.981   2.126   1.749
47532SOL    HW244436   4.978   1.976   1.728
47533SOL     OW44437   3.838  13.272   3.154
47533SOL    HW144438   3.785  13.326   3.212
47533SOL    HW244439   3.845  13.188   3.198
47534SOL     OW44440  13.430  13.229   8.123
47534SOL    HW144441  13.456  13.138   8.139
47534SOL    HW244442  13.486  13.280   8.181
47535SOL     OW44443   3.713   3.903   6.442
47535SOL    HW144444   3.692   3.988   6.479
47535SOL    HW244445   3.736   3.921   6.351
47536SOL     OW44446   8.293  14.560   3.359
47536SOL    HW144447   8.258  14.556   3.270
47536SOL    HW244448   8.250  14.488   3.405
47537SOL     OW44449   0.267   9.080   3.127
47537SOL    HW144450   0.248   9.066   3.220
47537SOL    HW244451   0.217   9.159   3.104
47538SOL     OW44452   9.970  11.609   8.558
47538SOL    HW144453   9.935  11.643   8.476
47538SOL    HW244454  10.046  11.665   8.577
47539SOL     OW44455   3.567   6.143   3.052
47539SOL    HW144456   3.639   6.085   3.077
47539SOL    HW244457   3.610   6.224   3.024
47540SOL     OW44458   8.065   0.501  13.744
47540SOL    HW144459   7.980   0.546  13.737
47540SOL    HW244460   8.066   0.440  13.670
47541SOL     OW44461   8.768   8.842   7.088
47541SOL    HW144462   8.774   8.873   7.178
47541SOL    HW244463   8.682   8.801   7.082
47542SOL     OW44464  13.908  11.116   7.023
47542SOL    HW144465  13.841  11.063   6.980
47542SOL    HW244466  13.885  11.112   7.116
47543SOL     OW44467   0.934   1.917   4.517
47543SOL    HW144468   0.930   1.827   4.548
47543SOL    HW244469   0.864   1.962   4.564
47544SOL     OW44470   6.188  11.601  12.535
47544SOL    HW144471   6.237  11.522  12.558
47544SOL    HW244472   6.194  11.657  12.612
47545SOL     OW44473  10.189  11.116   1.484
47545SOL    HW144474  10.274  11.115   1.527
47545SOL    HW244475  10.182  11.203   1.445
47546SOL     OW44476   2.542   2.857   5.148
47546SOL    HW144477   2.540   2.829   5.240
47546SOL    HW244478   2.455   2.836   5.115
47547SOL     OW44479  10.650  12.507   6.085
47547SOL    HW144480  10.555  12.517   6.092
47547SOL    HW244481  10.667  12.515   5.991
47548SOL     OW44482   3.709   2.106   1.490
47548SOL    HW144483   3.714   2.191   1.533
47548SOL    HW244484   3.620   2.103   1.454
47549SOL     OW44485   1.547  13.912  13.055
47549SOL    HW144486   1.583  13.890  12.969
47549SOL    HW244487   1.511  14.000  13.044
47550SOL     OW44488  14.373  10.754   4.442
47550SOL    HW144489  14.429  10.725   4.514
47550SOL    HW244490  14.379  10.684   4.377
47551SOL     OW44491  12.739  12.457   6.277
47551SOL    HW144492  12.646  12.469   6.258
47551SOL    HW244493  12.747  12.365   6.301
47552SOL     OW44494   1.750   7.829  12.259
47552SOL    HW144495   1.807   7.894  12.300
47552SOL    HW244496   1.794   7.746  12.273
47553SOL     OW44497   5.134   8.159   1.899
47553SOL    HW144498   5.092   8.154   1.985
47553SOL    HW244499   5.162   8.250   1.892
47554SOL     OW44500   2.838  12.951   5.330
47554SOL    HW144501   2.892  12.935   5.252
47554SOL    HW244502   2.895  12.999   5.389
47555SOL     OW44503  10.262   6.419  13.860
47555SOL    HW144504  10.192   6.413  13.925
47555SOL    HW244505  10.285   6.328  13.840
47556SOL     OW44506   0.969   9.576   5.853
47556SOL    HW144507   1.041   9.624   5.894
47556SOL    HW244508   0.894   9.592   5.911
47557SOL     OW44509  11.806   7.239   7.300
47557SOL    HW144510  11.817   7.189   7.381
47557SOL    HW244511  11.712   7.240   7.285
47558SOL     OW44512   0.066   9.104   6.860
47558SOL    HW144513   0.090   9.049   6.934
47558SOL    HW244514  14.870   9.158   6.892
47559SOL     OW44515   7.482   5.000  12.991
47559SOL    HW144516   7.397   5.018  13.031
47559SOL    HW244517   7.541   4.986  13.064
47560SOL     OW44518   5.531  13.216   1.889
47560SOL    HW144519   5.440  13.240   1.903
47560SOL    HW244520   5.543  13.221   1.794
47561SOL     OW44521  14.445  14.381   3.022
47561SOL    HW144522  14.377  14.446   3.038
47561SOL    HW244523  14.509  14.394   3.092
47562SOL     OW44524  11.173  14.496   0.070
47562SOL    HW144525  11.152  14.538  14.863
47562SOL    HW244526  11.142  14.406   0.060
47563SOL     OW44527  13.657  12.004   7.255
47563SOL    HW144528  13.659  11.999   7.160
47563SOL    HW244529  13.696  11.922   7.285
47564SOL     OW44530   3.670   5.449   7.763
47564SOL    HW144531   3.610   5.501   7.709
47564SOL    HW244532   3.726   5.514   7.805
47565SOL     OW44533  12.515   6.630  13.277
47565SOL    HW144534  12.598   6.671  13.253
47565SOL    HW244535  12.488   6.675  13.357
47566SOL     OW44536   3.401   3.620  10.933
47566SOL    HW144537   3.328   3.608  10.873
47566SOL    HW244538   3.396   3.545  10.992
47567SOL     OW44539  11.986  10.130  13.956
47567SOL    HW144540  11.976  10.196  14.025
47567SOL    HW244541  11.967  10.177  13.875
47568SOL     OW44542   1.954   5.963   3.896
47568SOL    HW144543   2.036   6.009   3.873
47568SOL    HW244544   1.885   6.021   3.865
47569SOL     OW44545  13.373   8.468   2.582
47569SOL    HW144546  13.441   8.474   2.649
47569SOL    HW244547  13.395   8.535   2.518
47570SOL     OW44548  13.315  13.429   7.448
47570SOL    HW144549  13.233  13.395   7.412
47570SOL    HW244550  13.288  13.484   7.521
47571SOL     OW44551   7.321   7.930  13.888
47571SOL    HW144552   7.254   7.994  13.912
47571SOL    HW244553   7.285   7.883  13.813
47572SOL     OW44554   2.012  10.575   9.377
47572SOL    HW144555   2.058  10.550   9.296
47572SOL    HW244556   1.920  10.581   9.350
47573SOL     OW44557   2.392  11.980  10.908
47573SOL    HW144558   2.351  11.898  10.935
47573SOL    HW244559   2.321  12.045  10.914
47574SOL     OW44560   4.371  11.309   0.381
47574SOL    HW144561   4.460  11.306   0.416
47574SOL    HW244562   4.359  11.223   0.340
47575SOL     OW44563   0.241   5.246  14.586
47575SOL    HW144564   0.188   5.201  14.652
47575SOL    HW244565   0.322   5.269  14.631
47576SOL     OW44566   9.288  11.416   3.575
47576SOL    HW144567   9.326  11.481   3.516
47576SOL    HW244568   9.197  11.445   3.586
47577SOL     OW44569   6.111   6.751  14.309
47577SOL    HW144570   6.103   6.728  14.402
47577SOL    HW244571   6.205   6.762  14.296
47578SOL     OW44572  11.715   1.756   2.012
47578SOL    HW144573  11.626   1.780   1.986
47578SOL    HW244574  11.754   1.717   1.934
47579SOL     OW44575  13.928   0.437  10.670
47579SOL    HW144576  13.875   0.498  10.618
47579SOL    HW244577  13.915   0.352  10.628
47580SOL     OW44578   4.700   0.641  11.174
47580SOL    HW144579   4.753   0.631  11.095
47580SOL    HW244580   4.642   0.565  11.174
47581SOL     OW44581   8.959  13.339   7.518
47581SOL    HW144582   9.004  13.357   7.435
47581SOL    HW244583   9.026  13.297   7.572
47582SOL     OW44584   0.900  14.189   1.036
47582SOL    HW144585   0.992  14.211   1.018
47582SOL    HW244586   0.877  14.242   1.112
47583SOL     OW44587   2.182   3.378  12.949
47583SOL    HW144588   2.267   3.421  12.949
47583SOL    HW244589   2.156   3.377  13.041
47584SOL     OW44590   5.675  10.661   9.174
47584SOL    HW144591   5.635  10.726   9.230
47584SOL    HW244592   5.769  10.669   9.191
47585SOL     OW44593   3.852   1.493   0.531
47585SOL    HW144594   3.809   1.410   0.509
47585SOL    HW244595   3.799   1.560   0.486
47586SOL     OW44596   4.473   2.099  12.505
47586SOL    HW144597   4.462   2.193  12.515
47586SOL    HW244598   4.472   2.085  12.410
47587SOL     OW44599   2.733   8.978   1.190
47587SOL    HW144600   2.754   9.069   1.170
47587SOL    HW244601   2.713   8.979   1.284
47588SOL     OW44602   1.324   3.622  12.095
47588SOL    HW144603   1.243   3.595  12.139
47588SOL    HW244604   1.322   3.576  12.011
47589SOL     OW44605   3.598   7.362  10.580
47589SOL    HW144606   3.586   7.330  10.490
47589SOL    HW244607   3.674   7.315  10.612
47590SOL     OW44608  10.625  13.881   7.034
47590SOL    HW144609  10.560  13.811   7.035
47590SOL    HW244610  10.651  13.888   6.942
47591SOL     OW44611   3.995   0.987  11.012
47591SOL    HW144612   3.917   0.983  10.958
47591SOL    HW244613   4.049   0.913  10.982
47592SOL     OW44614   2.099  14.795   4.263
47592SOL    HW144615   2.153  14.736   4.210
47592SOL    HW244616   2.137  14.791   4.350
47593SOL     OW44617   5.565  12.314   7.332
47593SOL    HW144618   5.522  12.363   7.402
47593SOL    HW244619   5.504  12.243   7.311
47594SOL     OW44620   0.253  14.452   7.457
47594SOL    HW144621   0.240  14.546   7.449
47594SOL    HW244622   0.346  14.443   7.478
47595SOL     OW44623  10.741   9.732  10.408
47595SOL    HW144624  10.722   9.726  10.314
47595SOL    HW244625  10.818   9.787  10.414
47596SOL     OW44626   1.294   9.966  11.610
47596SOL    HW144627   1.258   9.886  11.649
47596SOL    HW244628   1.229   9.991  11.544
47597SOL     OW44629   8.396  10.887   3.590
47597SOL    HW144630   8.441  10.805   3.570
47597SOL    HW244631   8.465  10.945   3.622
47598SOL     OW44632  13.797   8.382   3.657
47598SOL    HW144633  13.783   8.402   3.750
47598SOL    HW244634  13.805   8.287   3.654
47599SOL     OW44635  11.431   3.216  12.813
47599SOL    HW144636  11.508   3.274  12.808
47599SOL    HW244637  11.458   3.137  12.767
47600SOL     OW44638   6.796  10.377  14.327
47600SOL    HW144639   6.798  10.294  14.280
47600SOL    HW244640   6.705  10.389  14.353
47601SOL     OW44641  10.699  11.666   0.964
47601SOL    HW144642  10.638  11.684   0.892
47601SOL    HW244643  10.767  11.733   0.955
47602SOL     OW44644   4.547  12.246  13.372
47602SOL    HW144645   4.642  12.248  13.382
47602SOL    HW244646   4.517  12.326  13.416
47603SOL     OW44647   1.684   3.531  12.851
47603SOL    HW144648   1.614   3.595  12.838
47603SOL    HW244649   1.761   3.572  12.811
47604SOL     OW44650   7.021   5.709   6.632
47604SOL    HW144651   6.952   5.714   6.566
47604SOL    HW244652   7.024   5.617   6.658
47605SOL     OW44653   7.781   3.045   8.124
47605SOL    HW144654   7.707   3.083   8.076
47605SOL    HW244655   7.856   3.060   8.066
47606SOL     OW44656  12.175   1.305   9.196
47606SOL    HW144657  12.193   1.326   9.104
47606SOL    HW244658  12.198   1.213   9.204
47607SOL     OW44659   2.721  14.352  11.489
47607SOL    HW144660   2.713  14.385  11.400
47607SOL    HW244661   2.653  14.285  11.497
47608SOL     OW44662   3.103   8.198   2.485
47608SOL    HW144663   3.100   8.156   2.571
47608SOL    HW244664   3.184   8.166   2.446
47609SOL     OW44665  10.079   2.908   3.135
47609SOL    HW144666  10.037   2.888   3.219
47609SOL    HW244667  10.038   2.848   3.073
47610SOL     OW44668   4.353   9.723  12.723
47610SOL    HW144669   4.430   9.721  12.780
47610SOL    HW244670   4.319   9.634  12.724
47611SOL     OW44671   0.178   2.128  14.459
47611SOL    HW144672   0.251   2.176  14.498
47611SOL    HW244673   0.212   2.040  14.443
47612SOL     OW44674   7.688   9.272  13.135
47612SOL    HW144675   7.722   9.360  13.144
47612SOL    HW244676   7.764   9.219  13.113
47613SOL     OW44677   5.686   4.368   9.738
47613SOL    HW144678   5.690   4.329   9.825
47613SOL    HW244679   5.715   4.298   9.679
47614SOL     OW44680  14.831  13.547   7.220
47614SOL    HW144681  14.798  13.605   7.289
47614SOL    HW244682   0.025  13.596   7.179
47615SOL     OW44683   3.186  11.724   2.213
47615SOL    HW144684   3.269  11.717   2.167
47615SOL    HW244685   3.208  11.710   2.305
47616SOL     OW44686   3.978   3.034   9.960
47616SOL    HW144687   3.991   2.991   9.875
47616SOL    HW244688   3.930   3.114   9.940
47617SOL     OW44689  14.049  13.322   2.657
47617SOL    HW144690  14.098  13.338   2.737
47617SOL    HW244691  14.105  13.356   2.587
47618SOL     OW44692   4.605  13.054  10.234
47618SOL    HW144693   4.526  13.079  10.282
47618SOL    HW244694   4.572  13.003  10.160
47619SOL     OW44695  11.291   4.383   8.892
47619SOL    HW144696  11.206   4.420   8.915
47619SOL    HW244697  11.346   4.458   8.872
47620SOL     OW44698   5.474   4.713   6.405
47620SOL    HW144699   5.437   4.662   6.333
47620SOL    HW244700   5.401   4.726   6.465
47621SOL     OW44701   2.967   8.004  14.097
47621SOL    HW144702   3.047   7.999  14.045
47621SOL    HW244703   2.908   7.941  14.056
47622SOL     OW44704   0.815   8.971   8.515
47622SOL    HW144705   0.804   8.880   8.543
47622SOL    HW244706   0.886   8.968   8.451
47623SOL     OW44707   1.198   0.719   3.619
47623SOL    HW144708   1.246   0.682   3.693
47623SOL    HW244709   1.115   0.671   3.618
47624SOL     OW44710   2.086  11.642   4.228
47624SOL    HW144711   2.058  11.554   4.254
47624SOL    HW244712   2.139  11.628   4.150
47625SOL     OW44713   9.143  13.163   4.171
47625SOL    HW144714   9.218  13.186   4.226
47625SOL    HW244715   9.180  13.107   4.102
47626SOL     OW44716   0.634   6.041   4.230
47626SOL    HW144717   0.543   6.052   4.257
47626SOL    HW244718   0.662   6.128   4.202
47627SOL     OW44719  12.687   1.299   4.267
47627SOL    HW144720  12.773   1.266   4.293
47627SOL    HW244721  12.625   1.237   4.304
47628SOL     OW44722   7.186   2.899  11.651
47628SOL    HW144723   7.276   2.932  11.655
47628SOL    HW244724   7.195   2.805  11.667
47629SOL     OW44725   1.573   4.566  12.428
47629SOL    HW144726   1.619   4.529  12.503
47629SOL    HW244727   1.552   4.491  12.373
47630SOL     OW44728   8.638   8.815   3.548
47630SOL    HW144729   8.703   8.744   3.549
47630SOL    HW244730   8.611   8.820   3.456
47631SOL     OW44731   2.643  14.659  14.470
47631SOL    HW144732   2.617  14.572  14.500
47631SOL    HW244733   2.643  14.653  14.375
47632SOL     OW44734  12.833   4.135   9.955
47632SOL    HW144735  12.811   4.190   9.880
47632SOL    HW244736  12.923   4.107   9.939
47633SOL     OW44737  10.689  12.420   4.314
47633SOL    HW144738  10.668  12.419   4.221
47633SOL    HW244739  10.740  12.340   4.329
47634SOL     OW44740  10.309  12.923   3.823
47634SOL    HW144741  10.366  12.858   3.781
47634SOL    HW244742  10.247  12.948   3.754
47635SOL     OW44743   8.614  13.046  11.525
47635SOL    HW144744   8.573  12.973  11.478
47635SOL    HW244745   8.546  13.079  11.583
47636SOL     OW44746  10.041   0.725  14.444
47636SOL    HW144747   9.950   0.709  14.468
47636SOL    HW244748  10.063   0.653  14.385
47637SOL     OW44749   6.687  13.271   4.542
47637SOL    HW144750   6.740  13.346   4.513
47637SOL    HW244751   6.726  13.196   4.498
47638SOL     OW44752  13.769   0.155   8.932
47638SOL    HW144753  13.835   0.189   8.991
47638SOL    HW244754  13.776   0.209   8.853
47639SOL     OW44755   8.225   6.745  11.874
47639SOL    HW144756   8.211   6.713  11.785
47639SOL    HW244757   8.154   6.807  11.888
47640SOL     OW44758   9.341   9.877   3.310
47640SOL    HW144759   9.418   9.830   3.343
47640SOL    HW244760   9.346   9.963   3.353
47641SOL     OW44761   0.596   3.971   6.111
47641SOL    HW144762   0.687   3.990   6.134
47641SOL    HW244763   0.577   4.028   6.036
47642SOL     OW44764   4.239   2.763   6.423
47642SOL    HW144765   4.247   2.834   6.487
47642SOL    HW244766   4.253   2.806   6.338
47643SOL     OW44767   9.180   7.304   5.818
47643SOL    HW144768   9.096   7.323   5.860
47643SOL    HW244769   9.210   7.224   5.861
47644SOL     OW44770   2.546  11.286   4.083
47644SOL    HW144771   2.463  11.305   4.039
47644SOL    HW244772   2.535  11.198   4.117
47645SOL     OW44773   3.604  13.098   8.627
47645SOL    HW144774   3.626  13.005   8.636
47645SOL    HW244775   3.521  13.107   8.673
47646SOL     OW44776  13.150   6.601   1.934
47646SOL    HW144777  13.242   6.628   1.924
47646SOL    HW244778  13.115   6.607   1.845
47647SOL     OW44779   8.608   5.779   9.068
47647SOL    HW144780   8.689   5.748   9.028
47647SOL    HW244781   8.633   5.807   9.156
47648SOL     OW44782  12.961   8.840   0.612
47648SOL    HW144783  12.873   8.809   0.590
47648SOL    HW244784  13.020   8.775   0.572
47649SOL     OW44785   0.285   6.680  10.829
47649SOL    HW144786   0.258   6.685  10.737
47649SOL    HW244787   0.332   6.597  10.836
47650SOL     OW44788   7.946   5.710   3.503
47650SOL    HW144789   7.914   5.732   3.416
47650SOL    HW244790   8.034   5.674   3.488
47651SOL     OW44791   8.716   3.748   2.824
47651SOL    HW144792   8.659   3.802   2.769
47651SOL    HW244793   8.681   3.659   2.816
47652SOL     OW44794   0.629  14.034   7.763
47652SOL    HW144795   0.579  13.990   7.694
47652SOL    HW244796   0.627  13.972   7.836
47653SOL     OW44797  10.471   8.560   2.174
47653SOL    HW144798  10.539   8.614   2.134
47653SOL    HW244799  10.389   8.594   2.140
47654SOL     OW44800   0.723  12.275   1.842
47654SOL    HW144801   0.644  12.314   1.806
47654SOL    HW244802   0.716  12.291   1.937
47655SOL     OW44803  14.597   7.962  11.535
47655SOL    HW144804  14.682   8.002  11.552
47655SOL    HW244805  14.593   7.953  11.440
47656SOL     OW44806   0.771  14.059   0.840
47656SOL    HW144807   0.802  14.084   0.927
47656SOL    HW244808   0.806  14.127   0.782
47657SOL     OW44809  14.587   0.758   6.339
47657SOL    HW144810  14.675   0.725   6.320
47657SOL    HW244811  14.545   0.688   6.389
47658SOL     OW44812   4.489  11.938  11.793
47658SOL    HW144813   4.501  11.862  11.851
47658SOL    HW244814   4.432  11.905  11.723
47659SOL     OW44815   0.418  13.790   2.860
47659SOL    HW144816   0.458  13.706   2.840
47659SOL    HW244817   0.489  13.853   2.852
47660SOL     OW44818  11.865   2.389   2.967
47660SOL    HW144819  11.828   2.317   3.019
47660SOL    HW244820  11.959   2.370   2.963
47661SOL     OW44821   3.372   3.568   4.661
47661SOL    HW144822   3.392   3.523   4.579
47661SOL    HW244823   3.454   3.611   4.685
47662SOL     OW44824   8.487   2.778   4.187
47662SOL    HW144825   8.539   2.810   4.260
47662SOL    HW244826   8.407   2.830   4.190
47663SOL     OW44827   1.851   5.640  11.339
47663SOL    HW144828   1.793   5.682  11.403
47663SOL    HW244829   1.835   5.546  11.351
47664SOL     OW44830   9.950   2.575   7.455
47664SOL    HW144831   9.889   2.581   7.382
47664SOL    HW244832   9.939   2.486   7.488
47665SOL     OW44833   5.770   9.678  12.542
47665SOL    HW144834   5.767   9.619  12.617
47665SOL    HW244835   5.736   9.625  12.469
47666SOL     OW44836  12.726  11.256   6.529
47666SOL    HW144837  12.800  11.203   6.500
47666SOL    HW244838  12.695  11.213   6.608
47667SOL     OW44839   4.976   4.866   2.647
47667SOL    HW144840   5.042   4.906   2.705
47667SOL    HW244841   4.995   4.773   2.649
47668SOL     OW44842   8.028  12.689   3.626
47668SOL    HW144843   7.973  12.612   3.642
47668SOL    HW244844   7.995  12.725   3.543
47669SOL     OW44845   1.501  12.423  11.935
47669SOL    HW144846   1.453  12.491  11.983
47669SOL    HW244847   1.519  12.356  12.000
47670SOL     OW44848   3.128   1.704   6.125
47670SOL    HW144849   3.187   1.631   6.140
47670SOL    HW244850   3.043   1.664   6.107
47671SOL     OW44851   4.639   8.112   1.544
47671SOL    HW144852   4.682   8.197   1.530
47671SOL    HW244853   4.659   8.090   1.635
47672SOL     OW44854   9.470   2.604   9.487
47672SOL    HW144855   9.464   2.588   9.582
47672SOL    HW244856   9.399   2.664   9.468
47673SOL     OW44857   5.502   1.968   7.517
47673SOL    HW144858   5.497   2.060   7.491
47673SOL    HW244859   5.568   1.967   7.587
47674SOL     OW44860   8.250  11.136   3.113
47674SOL    HW144861   8.271  11.043   3.107
47674SOL    HW244862   8.330  11.176   3.146
47675SOL     OW44863   3.452   4.563   3.937
47675SOL    HW144864   3.524   4.556   3.875
47675SOL    HW244865   3.494   4.584   4.021
47676SOL     OW44866  14.494  14.486   7.987
47676SOL    HW144867  14.456  14.545   7.923
47676SOL    HW244868  14.420  14.435   8.020
47677SOL     OW44869   0.008   0.983  11.280
47677SOL    HW144870   0.077   0.923  11.252
47677SOL    HW244871  14.850   0.944  11.360
47678SOL     OW44872   0.956  11.198   2.000
47678SOL    HW144873   1.017  11.146   2.052
47678SOL    HW244874   0.994  11.200   1.912
47679SOL     OW44875  10.770   5.863   6.848
47679SOL    HW144876  10.743   5.811   6.924
47679SOL    HW244877  10.865   5.869   6.856
47680SOL     OW44878  10.552   3.453  14.035
47680SOL    HW144879  10.473   3.501  14.060
47680SOL    HW244880  10.520   3.365  14.015
47681SOL     OW44881   1.567   3.081   9.188
47681SOL    HW144882   1.541   3.094   9.279
47681SOL    HW244883   1.487   3.054   9.144
47682SOL     OW44884   6.805   3.321   8.147
47682SOL    HW144885   6.857   3.240   8.151
47682SOL    HW244886   6.850   3.375   8.082
47683SOL     OW44887  12.616   0.137   6.302
47683SOL    HW144888  12.555   0.073   6.265
47683SOL    HW244889  12.570   0.221   6.294
47684SOL     OW44890   0.569   5.842  11.482
47684SOL    HW144891   0.526   5.923  11.510
47684SOL    HW244892   0.654   5.844  11.526
47685SOL     OW44893   2.567   9.906   9.581
47685SOL    HW144894   2.587   9.981   9.525
47685SOL    HW244895   2.567   9.942   9.670
47686SOL     OW44896   5.871   9.387   3.280
47686SOL    HW144897   5.896   9.304   3.238
47686SOL    HW244898   5.940   9.448   3.254
47687SOL     OW44899   6.214   1.798   3.690
47687SOL    HW144900   6.187   1.755   3.609
47687SOL    HW244901   6.140   1.785   3.749
47688SOL     OW44902  10.116   4.477   1.684
47688SOL    HW144903  10.170   4.437   1.617
47688SOL    HW244904  10.175   4.533   1.733
47689SOL     OW44905   5.427  12.454  11.366
47689SOL    HW144906   5.346  12.448  11.417
47689SOL    HW244907   5.486  12.391  11.408
47690SOL     OW44908   7.002   9.488   2.976
47690SOL    HW144909   6.932   9.537   3.020
47690SOL    HW244910   6.988   9.397   3.004
47691SOL     OW44911   2.979   1.310   8.946
47691SOL    HW144912   2.889   1.331   8.920
47691SOL    HW244913   2.997   1.367   9.021
47692SOL     OW44914   9.995   2.347   3.880
47692SOL    HW144915   9.935   2.408   3.837
47692SOL    HW244916  10.015   2.281   3.814
47693SOL     OW44917   9.359   8.654   2.251
47693SOL    HW144918   9.266   8.670   2.266
47693SOL    HW244919   9.396   8.642   2.339
47694SOL     OW44920  11.216  14.850  12.024
47694SOL    HW144921  11.228  14.769  11.974
47694SOL    HW244922  11.227  14.823  12.116
47695SOL     OW44923  10.914   8.194   5.710
47695SOL    HW144924  10.916   8.270   5.651
47695SOL    HW244925  10.956   8.124   5.660
47696SOL     OW44926   7.241   9.251   1.787
47696SOL    HW144927   7.215   9.222   1.699
47696SOL    HW244928   7.336   9.243   1.788
47697SOL     OW44929  14.765   0.095   9.489
47697SOL    HW144930  14.686   0.094   9.435
47697SOL    HW244931  14.836   0.076   9.427
47698SOL     OW44932   5.900   5.157   5.943
47698SOL    HW144933   5.812   5.143   5.978
47698SOL    HW244934   5.887   5.216   5.869
47699SOL     OW44935   2.833   9.253  12.906
47699SOL    HW144936   2.846   9.326  12.967
47699SOL    HW244937   2.861   9.288  12.822
47700SOL     OW44938   5.607  12.276   2.341
47700SOL    HW144939   5.608  12.181   2.330
47700SOL    HW244940   5.559  12.308   2.265
47701SOL     OW44941   5.128   0.581   1.762
47701SOL    HW144942   5.036   0.588   1.735
47701SOL    HW244943   5.126   0.525   1.839
47702SOL     OW44944   4.553  10.065   9.547
47702SOL    HW144945   4.499   9.996   9.585
47702SOL    HW244946   4.496  10.141   9.544
47703SOL     OW44947   3.400   7.170   3.828
47703SOL    HW144948   3.414   7.157   3.921
47703SOL    HW244949   3.446   7.097   3.786
47704SOL     OW44950   2.553  13.314   6.750
47704SOL    HW144951   2.483  13.375   6.729
47704SOL    HW244952   2.629  13.346   6.700
47705SOL     OW44953  12.468   6.992   4.859
47705SOL    HW144954  12.533   6.986   4.929
47705SOL    HW244955  12.439   6.902   4.846
47706SOL     OW44956   3.554   3.929   5.763
47706SOL    HW144957   3.500   3.852   5.781
47706SOL    HW244958   3.642   3.893   5.749
47707SOL     OW44959   4.612   5.814  10.626
47707SOL    HW144960   4.620   5.842  10.717
47707SOL    HW244961   4.529   5.850  10.597
47708SOL     OW44962   4.504  10.944   2.583
47708SOL    HW144963   4.566  10.975   2.517
47708SOL    HW244964   4.531  10.986   2.664
47709SOL     OW44965  14.237  11.670   9.051
47709SOL    HW144966  14.330  11.648   9.055
47709SOL    HW244967  14.206  11.625   8.972
47710SOL     OW44968   5.406  11.770   5.585
47710SOL    HW144969   5.436  11.806   5.502
47710SOL    HW244970   5.337  11.831   5.615
47711SOL     OW44971   3.889   3.965   5.049
47711SOL    HW144972   3.980   3.988   5.029
47711SOL    HW244973   3.838   4.041   5.022
47712SOL     OW44974   8.554  12.323   9.366
47712SOL    HW144975   8.472  12.274   9.371
47712SOL    HW244976   8.548  12.373   9.285
47713SOL     OW44977   2.589  10.775  13.925
47713SOL    HW144978   2.624  10.709  13.866
47713SOL    HW244979   2.655  10.844  13.926
47714SOL     OW44980   8.881  11.461   0.955
47714SOL    HW144981   8.895  11.537   1.012
47714SOL    HW244982   8.925  11.483   0.874
47715SOL     OW44983  12.006   9.329   6.811
47715SOL    HW144984  12.043   9.287   6.734
47715SOL    HW244985  11.912   9.309   6.808
47716SOL     OW44986   3.943   6.529   4.503
47716SOL    HW144987   3.930   6.623   4.514
47716SOL    HW244988   4.036   6.520   4.484
47717SOL     OW44989   5.105   8.353   3.961
47717SOL    HW144990   5.031   8.323   4.013
47717SOL    HW244991   5.156   8.407   4.022
47718SOL     OW44992  13.480   8.390   4.309
47718SOL    HW144993  13.447   8.363   4.224
47718SOL    HW244994  13.487   8.309   4.360
47719SOL     OW44995   8.126   7.388  12.583
47719SOL    HW144996   8.043   7.405  12.538
47719SOL    HW244997   8.133   7.459  12.647
47720SOL     OW44998  10.902   0.707  11.856
47720SOL    HW144999  10.920   0.741  11.768
47720SOL    HW245000  10.858   0.623  11.841
47721SOL     OW45001  14.822  11.368   5.368
47721SOL    HW145002   0.026  11.375   5.419
47721SOL    HW245003  14.831  11.435   5.300
47722SOL     OW45004  14.388  13.765  10.213
47722SOL    HW145005  14.426  13.832  10.157
47722SOL    HW245006  14.397  13.683  10.163
47723SOL     OW45007   3.262  10.579   2.422
47723SOL    HW145008   3.280  10.504   2.479
47723SOL    HW245009   3.258  10.541   2.334
47724SOL     OW45010  12.355   8.668  12.095
47724SOL    HW145011  12.372   8.679  12.189
47724SOL    HW245012  12.266   8.703  12.083
47725SOL     OW45013   9.686   1.822  13.369
47725SOL    HW145014   9.684   1.848  13.276
47725SOL    HW245015   9.608   1.768  13.380
47726SOL     OW45016  10.276   7.724   0.355
47726SOL    HW145017  10.313   7.637   0.340
47726SOL    HW245018  10.287   7.738   0.449
47727SOL     OW45019   8.220  13.929  13.332
47727SOL    HW145020   8.189  13.918  13.242
47727SOL    HW245021   8.140  13.931  13.384
47728SOL     OW45022   1.654  14.713   2.004
47728SOL    HW145023   1.643  14.776   2.075
47728SOL    HW245024   1.668  14.766   1.926
47729SOL     OW45025  14.447   2.805  11.404
47729SOL    HW145026  14.494   2.793  11.321
47729SOL    HW245027  14.364   2.845  11.378
47730SOL     OW45028   3.464   1.870   1.084
47730SOL    HW145029   3.555   1.879   1.113
47730SOL    HW245030   3.413   1.921   1.147
47731SOL     OW45031  11.833   1.776  12.483
47731SOL    HW145032  11.914   1.746  12.525
47731SOL    HW245033  11.799   1.698  12.439
47732SOL     OW45034  10.310   7.894  11.696
47732SOL    HW145035  10.222   7.919  11.668
47732SOL    HW245036  10.296   7.837  11.772
47733SOL     OW45037  10.879   9.458  14.484
47733SOL    HW145038  10.813   9.527  14.491
47733SOL    HW245039  10.900   9.436  14.574
47734SOL     OW45040   2.271   6.265  10.936
47734SOL    HW145041   2.327   6.244  10.861
47734SOL    HW245042   2.324   6.245  11.013
47735SOL     OW45043   3.468  12.568  12.721
47735SOL    HW145044   3.378  12.550  12.692
47735SOL    HW245045   3.508  12.481  12.730
47736SOL     OW45046   2.554   8.913   7.698
47736SOL    HW145047   2.633   8.890   7.746
47736SOL    HW245048   2.521   8.829   7.666
47737SOL     OW45049  13.460   9.132  12.627
47737SOL    HW145050  13.504   9.099  12.549
47737SOL    HW245051  13.516   9.203  12.658
47738SOL     OW45052   1.250  10.855  11.728
47738SOL    HW145053   1.277  10.913  11.800
47738SOL    HW245054   1.195  10.910  11.672
47739SOL     OW45055   2.494  10.606   9.791
47739SOL    HW145056   2.536  10.591   9.876
47739SOL    HW245057   2.552  10.565   9.728
47740SOL     OW45058   5.326   4.036  13.590
47740SOL    HW145059   5.405   4.089  13.602
47740SOL    HW245060   5.273   4.085  13.527
47741SOL     OW45061   0.222   9.001   6.666
47741SOL    HW145062   0.310   9.013   6.701
47741SOL    HW245063   0.165   9.048   6.727
47742SOL     OW45064   2.272  11.301   7.768
47742SOL    HW145065   2.301  11.293   7.677
47742SOL    HW245066   2.341  11.353   7.811
47743SOL     OW45067   1.577  10.440  13.889
47743SOL    HW145068   1.670  10.454  13.908
47743SOL    HW245069   1.576  10.377  13.818
47744SOL     OW45070   8.635   5.287  10.584
47744SOL    HW145071   8.592   5.372  10.595
47744SOL    HW245072   8.719   5.297  10.629
47745SOL     OW45073  11.900  13.032   0.808
47745SOL    HW145074  11.974  12.977   0.834
47745SOL    HW245075  11.868  12.992   0.727
47746SOL     OW45076  12.519  10.463  13.202
47746SOL    HW145077  12.497  10.382  13.249
47746SOL    HW245078  12.548  10.523  13.270
47747SOL     OW45079  11.040   6.482   2.320
47747SOL    HW145080  11.113   6.422   2.336
47747SOL    HW245081  11.037   6.537   2.398
47748SOL     OW45082   6.755   0.192  10.164
47748SOL    HW145083   6.662   0.183  10.189
47748SOL    HW245084   6.765   0.286  10.147
47749SOL     OW45085  10.199  10.818   7.952
47749SOL    HW145086  10.121  10.783   7.910
47749SOL    HW245087  10.230  10.886   7.893
47750SOL     OW45088   0.575   3.148  14.386
47750SOL    HW145089   0.630   3.182  14.315
47750SOL    HW245090   0.536   3.226  14.425
47751SOL     OW45091   1.103   4.386  10.206
47751SOL    HW145092   1.020   4.394  10.159
47751SOL    HW245093   1.128   4.476  10.227
47752SOL     OW45094   8.937   6.296   9.771
47752SOL    HW145095   8.916   6.339   9.854
47752SOL    HW245096   8.989   6.361   9.723
47753SOL     OW45097   4.172   8.007  13.414
47753SOL    HW145098   4.255   8.055  13.416
47753SOL    HW245099   4.187   7.937  13.350
47754SOL     OW45100  12.617  11.207   4.772
47754SOL    HW145101  12.685  11.189   4.707
47754SOL    HW245102  12.550  11.255   4.723
47755SOL     OW45103   6.987   8.073  13.932
47755SOL    HW145104   7.021   7.997  13.979
47755SOL    HW245105   7.037   8.147  13.966
47756SOL     OW45106   7.036  14.415   1.308
47756SOL    HW145107   7.005  14.505   1.306
47756SOL    HW245108   7.056  14.394   1.216
47757SOL     OW45109  10.683  12.268   8.816
47757SOL    HW145110  10.759  12.243   8.869
47757SOL    HW245111  10.637  12.333   8.869
47758SOL     OW45112  10.113  12.383   2.432
47758SOL    HW145113  10.092  12.426   2.349
47758SOL    HW245114  10.033  12.337   2.456
47759SOL     OW45115   8.563   9.456   3.906
47759SOL    HW145116   8.650   9.449   3.867
47759SOL    HW245117   8.503   9.439   3.833
47760SOL     OW45118  14.180  14.055   4.867
47760SOL    HW145119  14.142  14.126   4.918
47760SOL    HW245120  14.274  14.072   4.868
47761SOL     OW45121  11.274   0.389   3.191
47761SOL    HW145122  11.218   0.319   3.224
47761SOL    HW245123  11.352   0.344   3.158
47762SOL     OW45124   4.148   7.366   2.678
47762SOL    HW145125   4.226   7.310   2.687
47762SOL    HW245126   4.102   7.357   2.761
47763SOL     OW45127   7.902  14.808   1.432
47763SOL    HW145128   7.925  14.874   1.367
47763SOL    HW245129   7.868  14.735   1.381
47764SOL     OW45130   4.261   5.242   3.304
47764SOL    HW145131   4.299   5.207   3.224
47764SOL    HW245132   4.168   5.220   3.299
47765SOL     OW45133   2.378  13.866   9.764
47765SOL    HW145134   2.331  13.814   9.829
47765SOL    HW245135   2.468  13.870   9.798
47766SOL     OW45136   5.837   0.735   9.003
47766SOL    HW145137   5.928   0.755   9.022
47766SOL    HW245138   5.794   0.820   8.995
47767SOL     OW45139   0.188   6.617   1.937
47767SOL    HW145140   0.278   6.610   1.906
47767SOL    HW245141   0.187   6.569   2.020
47768SOL     OW45142   1.834   6.515   9.773
47768SOL    HW145143   1.912   6.524   9.827
47768SOL    HW245144   1.766   6.562   9.821
47769SOL     OW45145   1.928  13.330  12.573
47769SOL    HW145146   1.943  13.342  12.479
47769SOL    HW245147   1.998  13.380  12.615
47770SOL     OW45148   4.468  12.149   7.884
47770SOL    HW145149   4.461  12.243   7.900
47770SOL    HW245150   4.562  12.131   7.882
47771SOL     OW45151   2.176  11.907   3.879
47771SOL    HW145152   2.189  11.834   3.940
47771SOL    HW245153   2.087  11.895   3.846
47772SOL     OW45154   7.296   1.394   4.709
47772SOL    HW145155   7.254   1.342   4.776
47772SOL    HW245156   7.372   1.342   4.682
47773SOL     OW45157   1.911   6.260  11.495
47773SOL    HW145158   1.990   6.260  11.549
47773SOL    HW245159   1.869   6.177  11.515
47774SOL     OW45160  14.704  11.209   3.077
47774SOL    HW145161  14.713  11.279   3.141
47774SOL    HW245162  14.724  11.129   3.125
47775SOL     OW45163  10.367   6.568   1.895
47775SOL    HW145164  10.410   6.597   1.975
47775SOL    HW245165  10.432   6.585   1.826
47776SOL     OW45166   0.826  14.189  10.512
47776SOL    HW145167   0.840  14.283  10.503
47776SOL    HW245168   0.789  14.163  10.427
47777SOL     OW45169  11.380  14.725   7.676
47777SOL    HW145170  11.373  14.636   7.711
47777SOL    HW245171  11.327  14.724   7.596
47778SOL     OW45172   3.108   1.225   6.710
47778SOL    HW145173   3.037   1.283   6.739
47778SOL    HW245174   3.074   1.183   6.631
47779SOL     OW45175   5.614   4.223  14.227
47779SOL    HW145176   5.666   4.279  14.285
47779SOL    HW245177   5.617   4.266  14.142
47780SOL     OW45178   6.509   8.397   1.622
47780SOL    HW145179   6.457   8.447   1.686
47780SOL    HW245180   6.450   8.328   1.592
47781SOL     OW45181   5.015   0.440   0.340
47781SOL    HW145182   4.937   0.414   0.291
47781SOL    HW245183   5.006   0.534   0.352
47782SOL     OW45184   4.388   1.222   7.939
47782SOL    HW145185   4.381   1.201   8.031
47782SOL    HW245186   4.367   1.140   7.893
47783SOL     OW45187  11.055  14.246  12.044
47783SOL    HW145188  11.006  14.192  12.105
47783SOL    HW245189  10.998  14.322  12.028
47784SOL     OW45190   7.871  14.388  10.930
47784SOL    HW145191   7.783  14.406  10.896
47784SOL    HW245192   7.930  14.424  10.864
47785SOL     OW45193   8.565   4.258  13.037
47785SOL    HW145194   8.572   4.221  13.125
47785SOL    HW245195   8.563   4.353  13.051
47786SOL     OW45196   7.026   0.941  10.566
47786SOL    HW145197   7.038   1.030  10.598
47786SOL    HW245198   7.042   0.886  10.643
47787SOL     OW45199   7.560   9.569   9.742
47787SOL    HW145200   7.568   9.582   9.837
47787SOL    HW245201   7.482   9.618   9.717
47788SOL     OW45202  12.052   3.710   9.262
47788SOL    HW145203  11.991   3.660   9.208
47788SOL    HW245204  12.003   3.731   9.341
47789SOL     OW45205  14.232   3.516   5.103
47789SOL    HW145206  14.164   3.480   5.046
47789SOL    HW245207  14.314   3.489   5.062
47790SOL     OW45208   2.973   6.443  13.434
47790SOL    HW145209   2.931   6.370  13.479
47790SOL    HW245210   3.066   6.420  13.433
47791SOL     OW45211   6.114  11.350  11.448
47791SOL    HW145212   6.166  11.296  11.389
47791SOL    HW245213   6.102  11.295  11.526
47792SOL     OW45214   3.234   9.683  11.685
47792SOL    HW145215   3.308   9.637  11.726
47792SOL    HW245216   3.173   9.613  11.662
47793SOL     OW45217   1.733   3.431   3.232
47793SOL    HW145218   1.716   3.507   3.288
47793SOL    HW245219   1.687   3.359   3.275
47794SOL     OW45220   7.366   3.856  11.518
47794SOL    HW145221   7.344   3.890  11.605
47794SOL    HW245222   7.281   3.848  11.473
47795SOL     OW45223   1.787   5.839   5.567
47795SOL    HW145224   1.881   5.839   5.547
47795SOL    HW245225   1.771   5.754   5.606
47796SOL     OW45226   2.483  13.312   7.556
47796SOL    HW145227   2.481  13.277   7.645
47796SOL    HW245228   2.393  13.344   7.541
47797SOL     OW45229   6.729   5.489  12.637
47797SOL    HW145230   6.731   5.582  12.660
47797SOL    HW245231   6.671   5.485  12.560
47798SOL     OW45232   2.801   9.687   1.835
47798SOL    HW145233   2.861   9.681   1.760
47798SOL    HW245234   2.829   9.617   1.894
47799SOL     OW45235  10.728  12.889  10.630
47799SOL    HW145236  10.817  12.922  10.639
47799SOL    HW245237  10.736  12.812  10.574
47800SOL     OW45238   2.982  10.797  10.622
47800SOL    HW145239   2.978  10.702  10.620
47800SOL    HW245240   3.076  10.818  10.617
47801SOL     OW45241   6.356  10.148  11.264
47801SOL    HW145242   6.286  10.089  11.235
47801SOL    HW245243   6.329  10.234  11.232
47802SOL     OW45244  10.092   6.620  12.106
47802SOL    HW145245  10.108   6.713  12.089
47802SOL    HW245246  10.128   6.604  12.193
47803SOL     OW45247   4.527   6.001   1.411
47803SOL    HW145248   4.521   6.007   1.316
47803SOL    HW245249   4.504   6.088   1.443
47804SOL     OW45250  11.537   1.781  10.753
47804SOL    HW145251  11.501   1.745  10.834
47804SOL    HW245252  11.631   1.784  10.769
47805SOL     OW45253  10.499   9.621   4.672
47805SOL    HW145254  10.419   9.672   4.661
47805SOL    HW245255  10.499   9.560   4.599
47806SOL     OW45256   3.670   3.516  10.312
47806SOL    HW145257   3.760   3.516  10.279
47806SOL    HW245258   3.619   3.554  10.240
47807SOL     OW45259   4.263   7.425  10.909
47807SOL    HW145260   4.241   7.379  10.991
47807SOL    HW245261   4.342   7.382  10.878
47808SOL     OW45262   8.348  10.745  13.813
47808SOL    HW145263   8.399  10.817  13.848
47808SOL    HW245264   8.283  10.787  13.756
47809SOL     OW45265   8.562   2.966   1.192
47809SOL    HW145266   8.521   2.880   1.188
47809SOL    HW245267   8.597   2.972   1.281
47810SOL     OW45268   4.348   7.078   6.150
47810SOL    HW145269   4.297   7.150   6.112
47810SOL    HW245270   4.423   7.069   6.091
47811SOL     OW45271  12.791   2.162   7.448
47811SOL    HW145272  12.720   2.207   7.495
47811SOL    HW245273  12.864   2.224   7.450
47812SOL     OW45274   8.871   2.790   6.801
47812SOL    HW145275   8.954   2.744   6.785
47812SOL    HW245276   8.894   2.859   6.864
47813SOL     OW45277   9.505   4.345  14.607
47813SOL    HW145278   9.531   4.253  14.613
47813SOL    HW245279   9.543   4.376  14.525
47814SOL     OW45280   3.399   4.553   9.795
47814SOL    HW145281   3.443   4.550   9.710
47814SOL    HW245282   3.438   4.628   9.840
47815SOL     OW45283  13.817   1.549  12.919
47815SOL    HW145284  13.786   1.496  12.845
47815SOL    HW245285  13.763   1.521  12.993
47816SOL     OW45286   2.339   2.083  12.486
47816SOL    HW145287   2.343   2.157  12.426
47816SOL    HW245288   2.399   2.106  12.557
47817SOL     OW45289   0.068   5.828   5.692
47817SOL    HW145290   0.078   5.919   5.721
47817SOL    HW245291   0.061   5.834   5.597
47818SOL     OW45292  12.616   8.489  12.038
47818SOL    HW145293  12.660   8.408  12.063
47818SOL    HW245294  12.640   8.503  11.947
47819SOL     OW45295   5.727  10.610   6.691
47819SOL    HW145296   5.708  10.534   6.636
47819SOL    HW245297   5.770  10.672   6.632
47820SOL     OW45298  14.302   3.760   3.792
47820SOL    HW145299  14.332   3.798   3.874
47820SOL    HW245300  14.306   3.832   3.729
47821SOL     OW45301  10.366  11.676  10.090
47821SOL    HW145302  10.353  11.587  10.122
47821SOL    HW245303  10.306  11.684  10.015
47822SOL     OW45304  12.261   5.722   8.845
47822SOL    HW145305  12.196   5.756   8.906
47822SOL    HW245306  12.213   5.662   8.788
47823SOL     OW45307   7.705  13.487   8.845
47823SOL    HW145308   7.774  13.511   8.783
47823SOL    HW245309   7.690  13.567   8.895
47824SOL     OW45310   5.532   1.630  14.758
47824SOL    HW145311   5.518   1.541  14.791
47824SOL    HW245312   5.626   1.633  14.739
47825SOL     OW45313  13.440   9.989   3.574
47825SOL    HW145314  13.486   9.906   3.587
47825SOL    HW245315  13.486  10.051   3.631
47826SOL     OW45316   7.021   6.569   7.160
47826SOL    HW145317   6.966   6.502   7.200
47826SOL    HW245318   7.087   6.519   7.111
47827SOL     OW45319  11.628  12.372   7.620
47827SOL    HW145320  11.672  12.293   7.588
47827SOL    HW245321  11.550  12.339   7.665
47828SOL     OW45322   1.480  12.385   9.448
47828SOL    HW145323   1.575  12.389   9.443
47828SOL    HW245324   1.453  12.333   9.373
47829SOL     OW45325   1.386   0.069   1.593
47829SOL    HW145326   1.340   0.135   1.541
47829SOL    HW245327   1.477   0.098   1.592
47830SOL     OW45328  14.756  10.809   2.502
47830SOL    HW145329  14.830  10.768   2.549
47830SOL    HW245330  14.680  10.757   2.529
47831SOL     OW45331   3.670   9.913   1.844
47831SOL    HW145332   3.628   9.827   1.856
47831SOL    HW245333   3.601   9.976   1.865
47832SOL     OW45334   6.342   2.204  13.660
47832SOL    HW145335   6.414   2.142  13.662
47832SOL    HW245336   6.340   2.236  13.570
47833SOL     OW45337  13.936   5.249   4.582
47833SOL    HW145338  13.945   5.163   4.542
47833SOL    HW245339  13.881   5.298   4.521
47834SOL     OW45340   6.415   4.736  13.043
47834SOL    HW145341   6.443   4.653  13.004
47834SOL    HW245342   6.403   4.794  12.968
47835SOL     OW45343   0.110   9.602  10.055
47835SOL    HW145344   0.030   9.652  10.042
47835SOL    HW245345   0.079   9.515  10.083
47836SOL     OW45346   1.535  10.777   8.419
47836SOL    HW145347   1.537  10.753   8.327
47836SOL    HW245348   1.456  10.831   8.428
47837SOL     OW45349  11.507   7.962  13.052
47837SOL    HW145350  11.546   8.046  13.078
47837SOL    HW245351  11.581   7.902  13.046
47838SOL     OW45352  13.973   4.133   2.194
47838SOL    HW145353  14.067   4.141   2.181
47838SOL    HW245354  13.945   4.070   2.127
47839SOL     OW45355   0.372   6.631   7.374
47839SOL    HW145356   0.416   6.581   7.306
47839SOL    HW245357   0.300   6.675   7.329
47840SOL     OW45358   6.646   2.613   2.287
47840SOL    HW145359   6.598   2.600   2.369
47840SOL    HW245360   6.604   2.688   2.245
47841SOL     OW45361   2.935  13.547   6.215
47841SOL    HW145362   2.929  13.497   6.133
47841SOL    HW245363   2.886  13.627   6.197
47842SOL     OW45364  12.558   1.560   7.223
47842SOL    HW145365  12.564   1.584   7.316
47842SOL    HW245366  12.644   1.581   7.187
47843SOL     OW45367  14.776   6.017   8.216
47843SOL    HW145368  14.804   5.945   8.160
47843SOL    HW245369  14.691   5.989   8.251
47844SOL     OW45370   8.117  10.960   4.095
47844SOL    HW145371   8.100  11.013   4.173
47844SOL    HW245372   8.034  10.960   4.047
47845SOL     OW45373  10.222  12.630  11.528
47845SOL    HW145374  10.267  12.655  11.608
47845SOL    HW245375  10.129  12.631  11.550
47846SOL     OW45376   0.095   8.588   2.251
47846SOL    HW145377   0.036   8.564   2.323
47846SOL    HW245378   0.066   8.676   2.226
47847SOL     OW45379   8.474   6.514  10.159
47847SOL    HW145380   8.445   6.558  10.239
47847SOL    HW245381   8.522   6.582  10.111
47848SOL     OW45382  13.155  10.447  12.158
47848SOL    HW145383  13.060  10.448  12.154
47848SOL    HW245384  13.182  10.383  12.092
47849SOL     OW45385  13.739  14.334   8.355
47849SOL    HW145386  13.795  14.316   8.280
47849SOL    HW245387  13.709  14.248   8.385
47850SOL     OW45388   9.466  10.601   8.916
47850SOL    HW145389   9.548  10.557   8.890
47850SOL    HW245390   9.427  10.544   8.981
47851SOL     OW45391   7.465   6.080   7.374
47851SOL    HW145392   7.505   6.106   7.291
47851SOL    HW245393   7.381   6.040   7.349
47852SOL     OW45394   5.728  12.732   1.008
47852SOL    HW145395   5.708  12.713   1.100
47852SOL    HW245396   5.643  12.733   0.965
47853SOL     OW45397   7.142   5.344  12.267
47853SOL    HW145398   7.196   5.406  12.217
47853SOL    HW245399   7.107   5.396  12.339
47854SOL     OW45400   9.595  14.845   0.283
47854SOL    HW145401   9.598  14.812   0.372
47854SOL    HW245402   9.522  14.799   0.242
47855SOL     OW45403   1.286   0.174  11.224
47855SOL    HW145404   1.378   0.147  11.225
47855SOL    HW245405   1.282   0.248  11.284
47856SOL     OW45406   3.711   6.464   7.191
47856SOL    HW145407   3.772   6.448   7.119
47856SOL    HW245408   3.673   6.550   7.172
47857SOL     OW45409   2.108   7.721   3.046
47857SOL    HW145410   2.034   7.674   3.007
47857SOL    HW245411   2.078   7.746   3.133
47858SOL     OW45412   2.993   6.656  13.027
47858SOL    HW145413   2.899   6.658  13.048
47858SOL    HW245414   3.007   6.569  12.989
47859SOL     OW45415   3.107   6.082   6.971
47859SOL    HW145416   3.171   6.143   6.936
47859SOL    HW245417   3.038   6.138   7.008
47860SOL     OW45418   3.564  12.387   6.158
47860SOL    HW145419   3.523  12.328   6.095
47860SOL    HW245420   3.586  12.331   6.232
47861SOL     OW45421  10.173   2.755  12.804
47861SOL    HW145422  10.176   2.829  12.744
47861SOL    HW245423  10.118   2.690  12.760
47862SOL     OW45424  12.130   6.832   8.761
47862SOL    HW145425  12.163   6.834   8.851
47862SOL    HW245426  12.092   6.745   8.751
47863SOL     OW45427  11.835   7.128   1.383
47863SOL    HW145428  11.877   7.204   1.423
47863SOL    HW245429  11.867   7.129   1.292
47864SOL     OW45430  14.306   2.683   2.727
47864SOL    HW145431  14.373   2.734   2.772
47864SOL    HW245432  14.253   2.645   2.797
47865SOL     OW45433   7.928   7.230  10.393
47865SOL    HW145434   7.864   7.186  10.449
47865SOL    HW245435   7.914   7.194  10.306
47866SOL     OW45436  14.025   6.886  12.937
47866SOL    HW145437  13.960   6.947  12.903
47866SOL    HW245438  13.982   6.801  12.936
47867SOL     OW45439  10.404   5.244   9.356
47867SOL    HW145440  10.353   5.164   9.372
47867SOL    HW245441  10.487   5.212   9.321
47868SOL     OW45442   5.014   8.169   9.188
47868SOL    HW145443   5.059   8.218   9.257
47868SOL    HW245444   4.929   8.213   9.180
47869SOL     OW45445   3.398   7.031   2.810
47869SOL    HW145446   3.423   6.942   2.835
47869SOL    HW245447   3.381   7.076   2.893
47870SOL     OW45448   2.644   8.204   7.202
47870SOL    HW145449   2.653   8.217   7.107
47870SOL    HW245450   2.555   8.171   7.213
47871SOL     OW45451   1.188   3.591  13.254
47871SOL    HW145452   1.186   3.594  13.159
47871SOL    HW245453   1.246   3.517  13.274
47872SOL     OW45454  10.069   1.420   7.851
47872SOL    HW145455  10.127   1.387   7.783
47872SOL    HW245456  10.047   1.342   7.903
47873SOL     OW45457  10.421   0.369  13.180
47873SOL    HW145458  10.483   0.408  13.242
47873SOL    HW245459  10.336   0.376  13.224
47874SOL     OW45460  12.304   8.680   0.969
47874SOL    HW145461  12.236   8.709   0.908
47874SOL    HW245462  12.357   8.757   0.986
47875SOL     OW45463   8.452  10.206   8.178
47875SOL    HW145464   8.434  10.250   8.261
47875SOL    HW245465   8.541  10.233   8.155
47876SOL     OW45466  13.545   3.237   6.657
47876SOL    HW145467  13.524   3.320   6.699
47876SOL    HW245468  13.624   3.255   6.605
47877SOL     OW45469   2.540   9.419   4.189
47877SOL    HW145470   2.445   9.422   4.174
47877SOL    HW245471   2.553   9.471   4.268
47878SOL     OW45472  13.152  12.149   3.633
47878SOL    HW145473  13.089  12.092   3.589
47878SOL    HW245474  13.237  12.121   3.598
47879SOL     OW45475   7.880   9.562   8.814
47879SOL    HW145476   7.804   9.616   8.794
47879SOL    HW245477   7.858   9.519   8.897
47880SOL     OW45478   6.748   5.559   4.692
47880SOL    HW145479   6.796   5.623   4.641
47880SOL    HW245480   6.657   5.568   4.664
47881SOL     OW45481   0.359   5.719   1.698
47881SOL    HW145482   0.285   5.708   1.639
47881SOL    HW245483   0.381   5.631   1.727
47882SOL     OW45484   5.025  11.591  11.177
47882SOL    HW145485   4.987  11.643  11.248
47882SOL    HW245486   5.076  11.523  11.221
47883SOL     OW45487  11.724   9.130   9.564
47883SOL    HW145488  11.645   9.079   9.554
47883SOL    HW245489  11.756   9.109   9.652
47884SOL     OW45490   7.122   2.855  13.696
47884SOL    HW145491   7.133   2.762  13.678
47884SOL    HW245492   7.097   2.893  13.612
47885SOL     OW45493   9.165   5.934   4.243
47885SOL    HW145494   9.256   5.938   4.213
47885SOL    HW245495   9.116   5.906   4.166
47886SOL     OW45496   5.957   0.250  10.754
47886SOL    HW145497   5.966   0.224  10.846
47886SOL    HW245498   6.021   0.197  10.707
47887SOL     OW45499   7.989   3.508   0.610
47887SOL    HW145500   8.012   3.441   0.674
47887SOL    HW245501   8.072   3.549   0.586
47888SOL     OW45502  10.044   6.767  14.400
47888SOL    HW145503  10.063   6.773  14.306
47888SOL    HW245504   9.952   6.791  14.408
47889SOL     OW45505   9.530   2.529  11.449
47889SOL    HW145506   9.447   2.569  11.477
47889SOL    HW245507   9.520   2.516  11.355
47890SOL     OW45508  11.442   1.241  14.578
47890SOL    HW145509  11.365   1.207  14.532
47890SOL    HW245510  11.513   1.181  14.555
47891SOL     OW45511   9.435  11.418   8.758
47891SOL    HW145512   9.497  11.454   8.821
47891SOL    HW245513   9.487  11.361   8.702
47892SOL     OW45514   4.901   9.053   0.501
47892SOL    HW145515   4.970   9.109   0.466
47892SOL    HW245516   4.820   9.102   0.486
47893SOL     OW45517  10.067   5.932   0.094
47893SOL    HW145518  10.026   5.987   0.161
47893SOL    HW245519   9.997   5.873   0.066
47894SOL     OW45520   1.865  11.175  12.350
47894SOL    HW145521   1.884  11.133  12.266
47894SOL    HW245522   1.776  11.145  12.372
47895SOL     OW45523   7.955   6.993  13.088
47895SOL    HW145524   7.894   7.029  13.152
47895SOL    HW245525   8.031   7.052  13.090
47896SOL     OW45526   5.692   4.954   4.703
47896SOL    HW145527   5.756   4.938   4.772
47896SOL    HW245528   5.739   4.937   4.622
47897SOL     OW45529   0.947   9.754  11.659
47897SOL    HW145530   0.965   9.843  11.687
47897SOL    HW245531   0.863   9.732  11.699
47898SOL     OW45532  13.040   7.056   5.914
47898SOL    HW145533  13.113   7.007   5.951
47898SOL    HW245534  12.998   7.097   5.989
47899SOL     OW45535   3.180   8.733   2.818
47899SOL    HW145536   3.130   8.750   2.898
47899SOL    HW245537   3.207   8.642   2.824
47900SOL     OW45538   8.345   0.434   9.421
47900SOL    HW145539   8.314   0.475   9.340
47900SOL    HW245540   8.393   0.503   9.466
47901SOL     OW45541   5.025  11.991   0.805
47901SOL    HW145542   5.117  12.010   0.824
47901SOL    HW245543   4.977  12.032   0.876
47902SOL     OW45544   1.990   3.634  14.481
47902SOL    HW145545   1.958   3.660  14.395
47902SOL    HW245546   2.036   3.552  14.466
47903SOL     OW45547  10.991   6.115   4.364
47903SOL    HW145548  11.075   6.142   4.400
47903SOL    HW245549  11.011   6.084   4.276
47904SOL     OW45550   2.094   0.764   5.112
47904SOL    HW145551   2.052   0.678   5.119
47904SOL    HW245552   2.052   0.806   5.038
47905SOL     OW45553   7.091   8.995  11.530
47905SOL    HW145554   7.121   8.924  11.585
47905SOL    HW245555   7.052   8.952  11.454
47906SOL     OW45556   6.205  12.090   0.556
47906SOL    HW145557   6.138  12.023   0.567
47906SOL    HW245558   6.218  12.096   0.461
47907SOL     OW45559   0.560   6.812   1.336
47907SOL    HW145560   0.651   6.809   1.308
47907SOL    HW245561   0.528   6.723   1.324
47908SOL     OW45562   3.959   8.682   4.561
47908SOL    HW145563   3.978   8.771   4.530
47908SOL    HW245564   3.870   8.686   4.594
47909SOL     OW45565   8.311  12.298   6.958
47909SOL    HW145566   8.312  12.346   6.876
47909SOL    HW245567   8.231  12.326   7.002
47910SOL     OW45568   8.977  11.633  13.889
47910SOL    HW145569   9.001  11.652  13.979
47910SOL    HW245570   9.023  11.699  13.837
47911SOL     OW45571   6.709   7.813  13.065
47911SOL    HW145572   6.654   7.827  12.988
47911SOL    HW245573   6.646   7.800  13.136
47912SOL     OW45574   8.610   1.403  13.075
47912SOL    HW145575   8.705   1.417  13.079
47912SOL    HW245576   8.586   1.374  13.163
47913SOL     OW45577  10.111   6.902  10.811
47913SOL    HW145578  10.070   6.986  10.828
47913SOL    HW245579  10.089   6.883  10.719
47914SOL     OW45580   1.280   6.356   1.512
47914SOL    HW145581   1.295   6.262   1.526
47914SOL    HW245582   1.358   6.398   1.549
47915SOL     OW45583   6.801   9.811   2.271
47915SOL    HW145584   6.821   9.900   2.302
47915SOL    HW245585   6.878   9.787   2.219
47916SOL     OW45586   4.703   4.741  10.052
47916SOL    HW145587   4.680   4.821  10.004
47916SOL    HW245588   4.693   4.765  10.144
47917SOL     OW45589   7.694   9.858   4.188
47917SOL    HW145590   7.638   9.932   4.212
47917SOL    HW245591   7.653   9.819   4.112
47918SOL     OW45592   3.446   3.882   2.669
47918SOL    HW145593   3.379   3.950   2.659
47918SOL    HW245594   3.519   3.913   2.616
47919SOL     OW45595  11.405  11.619  10.528
47919SOL    HW145596  11.427  11.690  10.468
47919SOL    HW245597  11.390  11.543  10.471
47920SOL     OW45598   4.149   1.008   6.148
47920SOL    HW145599   4.158   0.954   6.227
47920SOL    HW245600   4.231   0.994   6.101
47921SOL     OW45601  12.898  12.711   8.660
47921SOL    HW145602  12.923  12.654   8.587
47921SOL    HW245603  12.980  12.738   8.700
47922SOL     OW45604   3.658   8.470  11.377
47922SOL    HW145605   3.646   8.390  11.327
47922SOL    HW245606   3.750   8.492  11.365
47923SOL     OW45607   3.555   6.490   6.532
47923SOL    HW145608   3.642   6.523   6.512
47923SOL    HW245609   3.531   6.439   6.455
47924SOL     OW45610   6.855   7.147  10.153
47924SOL    HW145611   6.936   7.097  10.165
47924SOL    HW245612   6.871   7.230  10.198
47925SOL     OW45613   2.011   5.204   8.628
47925SOL    HW145614   2.035   5.118   8.594
47925SOL    HW245615   1.991   5.256   8.550
47926SOL     OW45616  10.556  11.165  10.437
47926SOL    HW145617  10.582  11.116  10.359
47926SOL    HW245618  10.581  11.256  10.419
47927SOL     OW45619   6.921   2.065   7.255
47927SOL    HW145620   7.011   2.060   7.286
47927SOL    HW245621   6.890   2.151   7.283
47928SOL     OW45622  14.754   4.432   8.917
47928SOL    HW145623  14.826   4.369   8.903
47928SOL    HW245624  14.688   4.381   8.964
47929SOL     OW45625  13.689   0.839   7.332
47929SOL    HW145626  13.752   0.871   7.397
47929SOL    HW245627  13.666   0.751   7.362
47930SOL     OW45628   7.933  10.117   3.197
47930SOL    HW145629   7.972  10.095   3.112
47930SOL    HW245630   7.839  10.102   3.184
47931SOL     OW45631  11.642   9.540   4.229
47931SOL    HW145632  11.661   9.629   4.260
47931SOL    HW245633  11.579   9.505   4.292
47932SOL     OW45634  11.816   2.104   7.362
47932SOL    HW145635  11.829   2.058   7.279
47932SOL    HW245636  11.852   2.046   7.428
47933SOL     OW45637   2.019   2.982   0.883
47933SOL    HW145638   1.955   2.982   0.812
47933SOL    HW245639   2.082   3.050   0.859
47934SOL     OW45640   5.132   9.870   1.341
47934SOL    HW145641   5.042   9.871   1.308
47934SOL    HW245642   5.177   9.806   1.285
47935SOL     OW45643  12.886  14.827   4.619
47935SOL    HW145644  12.866  14.871   4.537
47935SOL    HW245645  12.935  14.749   4.594
47936SOL     OW45646   1.835   8.890  12.475
47936SOL    HW145647   1.876   8.952  12.415
47936SOL    HW245648   1.794   8.825  12.418
47937SOL     OW45649   2.949  14.859   0.337
47937SOL    HW145650   2.860  14.846   0.370
47937SOL    HW245651   2.953   0.076   0.317
47938SOL     OW45652   1.728   1.335  12.153
47938SOL    HW145653   1.660   1.341  12.219
47938SOL    HW245654   1.726   1.420  12.108
47939SOL     OW45655   7.849  13.938   9.734
47939SOL    HW145656   7.904  13.996   9.681
47939SOL    HW245657   7.911  13.879   9.776
47940SOL     OW45658   1.411  10.570  12.411
47940SOL    HW145659   1.416  10.557  12.506
47940SOL    HW245660   1.451  10.656  12.398
47941SOL     OW45661   0.862   0.264  13.745
47941SOL    HW145662   0.945   0.265  13.793
47941SOL    HW245663   0.886   0.235  13.657
47942SOL     OW45664   1.799  14.259   9.010
47942SOL    HW145665   1.828  14.279   9.099
47942SOL    HW245666   1.723  14.316   8.996
47943SOL     OW45667   8.537   0.524   5.266
47943SOL    HW145668   8.619   0.494   5.307
47943SOL    HW245669   8.468   0.492   5.324
47944SOL     OW45670  10.354  12.372   9.614
47944SOL    HW145671  10.287  12.432   9.647
47944SOL    HW245672  10.409  12.353   9.691
47945SOL     OW45673   1.316  10.475   2.227
47945SOL    HW145674   1.248  10.516   2.282
47945SOL    HW245675   1.397  10.518   2.253
47946SOL     OW45676   8.467   6.799   0.108
47946SOL    HW145677   8.452   6.882   0.063
47946SOL    HW245678   8.514   6.823   0.188
47947SOL     OW45679   3.386  11.334   7.736
47947SOL    HW145680   3.419  11.246   7.718
47947SOL    HW245681   3.399  11.346   7.831
47948SOL     OW45682   3.183  14.424   8.156
47948SOL    HW145683   3.176  14.479   8.077
47948SOL    HW245684   3.208  14.338   8.123
47949SOL     OW45685   3.647   4.431   3.466
47949SOL    HW145686   3.713   4.476   3.414
47949SOL    HW245687   3.655   4.339   3.441
47950SOL     OW45688   5.525   3.085   2.206
47950SOL    HW145689   5.440   3.107   2.244
47950SOL    HW245690   5.508   3.005   2.156
47951SOL     OW45691  13.600   3.214   7.718
47951SOL    HW145692  13.658   3.142   7.743
47951SOL    HW245693  13.631   3.288   7.769
47952SOL     OW45694  12.534   0.314  14.420
47952SOL    HW145695  12.612   0.328  14.474
47952SOL    HW245696  12.547   0.372  14.345
47953SOL     OW45697  11.813   0.797   7.790
47953SOL    HW145698  11.826   0.737   7.717
47953SOL    HW245699  11.721   0.787   7.814
47954SOL     OW45700  14.552   1.007   3.342
47954SOL    HW145701  14.466   1.050   3.349
47954SOL    HW245702  14.533   0.914   3.352
47955SOL     OW45703  10.290  12.241   6.277
47955SOL    HW145704  10.263  12.263   6.367
47955SOL    HW245705  10.355  12.171   6.288
47956SOL     OW45706   4.967   2.499  14.370
47956SOL    HW145707   5.062   2.495  14.358
47956SOL    HW245708   4.936   2.559  14.302
47957SOL     OW45709  10.388  10.514   4.850
47957SOL    HW145710  10.363  10.520   4.942
47957SOL    HW245711  10.311  10.478   4.805
47958SOL     OW45712   1.172   7.866   3.743
47958SOL    HW145713   1.146   7.774   3.747
47958SOL    HW245714   1.089   7.913   3.730
47959SOL     OW45715   0.017   9.279   7.290
47959SOL    HW145716  14.799   9.285   7.299
47959SOL    HW245717   0.031   9.222   7.215
47960SOL     OW45718   0.005  11.415  13.604
47960SOL    HW145719   0.033  11.324  13.593
47960SOL    HW245720   0.083  11.467  13.582
47961SOL     OW45721  12.311   1.381  10.619
47961SOL    HW145722  12.291   1.319  10.549
47961SOL    HW245723  12.339   1.325  10.692
47962SOL     OW45724   8.698   0.904   4.349
47962SOL    HW145725   8.747   0.923   4.269
47962SOL    HW245726   8.754   0.936   4.420
47963SOL     OW45727  10.238   5.517  11.856
47963SOL    HW145728  10.254   5.506  11.762
47963SOL    HW245729  10.149   5.485  11.870
47964SOL     OW45730   4.464  11.253  14.010
47964SOL    HW145731   4.422  11.284  14.090
47964SOL    HW245732   4.552  11.291  14.013
47965SOL     OW45733   9.010   8.859  10.839
47965SOL    HW145734   8.999   8.807  10.918
47965SOL    HW245735   8.999   8.796  10.767
47966SOL     OW45736  13.335   4.352   5.649
47966SOL    HW145737  13.338   4.258   5.668
47966SOL    HW245738  13.396   4.363   5.576
47967SOL     OW45739  10.301   4.492   3.787
47967SOL    HW145740  10.321   4.467   3.696
47967SOL    HW245741  10.387   4.512   3.825
47968SOL     OW45742  11.538   8.454   6.886
47968SOL    HW145743  11.632   8.448   6.866
47968SOL    HW245744  11.495   8.445   6.801
47969SOL     OW45745   8.834   2.414   6.987
47969SOL    HW145746   8.809   2.353   6.918
47969SOL    HW245747   8.763   2.478   6.989
47970SOL     OW45748   0.679   4.744   7.228
47970SOL    HW145749   0.696   4.650   7.214
47970SOL    HW245750   0.764   4.779   7.256
47971SOL     OW45751   9.376  14.802  10.248
47971SOL    HW145752   9.306  14.852  10.289
47971SOL    HW245753   9.373  14.828  10.155
47972SOL     OW45754   4.410   1.582   4.608
47972SOL    HW145755   4.422   1.661   4.555
47972SOL    HW245756   4.498   1.543   4.614
47973SOL     OW45757   7.787  13.288  12.804
47973SOL    HW145758   7.748  13.321  12.722
47973SOL    HW245759   7.881  13.300  12.792
47974SOL     OW45760   1.059   1.652   2.266
47974SOL    HW145761   1.074   1.702   2.346
47974SOL    HW245762   1.146   1.627   2.236
47975SOL     OW45763   7.317   2.324   1.349
47975SOL    HW145764   7.255   2.272   1.298
47975SOL    HW245765   7.266   2.353   1.425
47976SOL     OW45766   2.401  10.917   4.969
47976SOL    HW145767   2.378  10.959   5.052
47976SOL    HW245768   2.496  10.928   4.962
47977SOL     OW45769   5.835   3.425   5.002
47977SOL    HW145770   5.755   3.404   5.050
47977SOL    HW245771   5.880   3.341   4.992
47978SOL     OW45772  13.642   0.953   0.180
47978SOL    HW145773  13.726   0.980   0.144
47978SOL    HW245774  13.599   0.906   0.109
47979SOL     OW45775  10.531   3.423  11.969
47979SOL    HW145776  10.548   3.365  12.043
47979SOL    HW245777  10.439   3.448  11.980
47980SOL     OW45778  11.420   7.479  13.230
47980SOL    HW145779  11.504   7.517  13.257
47980SOL    HW245780  11.378   7.453  13.312
47981SOL     OW45781   6.546  12.724   8.800
47981SOL    HW145782   6.475  12.702   8.740
47981SOL    HW245783   6.557  12.819   8.792
47982SOL     OW45784   3.115   6.276   7.385
47982SOL    HW145785   3.053   6.293   7.456
47982SOL    HW245786   3.165   6.200   7.416
47983SOL     OW45787  14.398   7.832  10.328
47983SOL    HW145788  14.360   7.763  10.382
47983SOL    HW245789  14.448   7.785  10.261
47984SOL     OW45790   7.962   6.404  14.148
47984SOL    HW145791   8.006   6.474  14.196
47984SOL    HW245792   8.033   6.360  14.102
47985SOL     OW45793   4.563   9.131   9.338
47985SOL    HW145794   4.564   9.096   9.427
47985SOL    HW245795   4.511   9.068   9.288
47986SOL     OW45796  10.901   1.699   2.059
47986SOL    HW145797  10.889   1.743   1.975
47986SOL    HW245798  10.815   1.703   2.101
47987SOL     OW45799  12.640   9.033   9.158
47987SOL    HW145800  12.599   9.112   9.123
47987SOL    HW245801  12.570   8.986   9.203
47988SOL     OW45802  14.841   8.318   0.006
47988SOL    HW145803  14.801   8.391  14.836
47988SOL    HW245804  14.768   8.278   0.054
47989SOL     OW45805  14.798   9.152   0.901
47989SOL    HW145806  14.840   9.107   0.828
47989SOL    HW245807  14.832   9.108   0.979
47990SOL     OW45808   1.036  12.307  10.670
47990SOL    HW145809   1.122  12.309  10.628
47990SOL    HW245810   1.035  12.225  10.719
47991SOL     OW45811  12.011  12.084  10.163
47991SOL    HW145812  12.017  12.175  10.133
47991SOL    HW245813  12.027  12.089  10.257
47992SOL     OW45814   4.894   3.455   1.527
47992SOL    HW145815   4.969   3.429   1.581
47992SOL    HW245816   4.905   3.549   1.514
47993SOL     OW45817   4.928   4.812  10.660
47993SOL    HW145818   4.920   4.721  10.633
47993SOL    HW245819   4.920   4.810  10.755
47994SOL     OW45820  10.225   4.656   8.770
47994SOL    HW145821  10.173   4.681   8.693
47994SOL    HW245822  10.221   4.732   8.828
47995SOL     OW45823  11.146   6.297   0.098
47995SOL    HW145824  11.080   6.345   0.048
47995SOL    HW245825  11.113   6.207   0.101
47996SOL     OW45826  11.796  14.667   2.683
47996SOL    HW145827  11.714  14.647   2.637
47996SOL    HW245828  11.864  14.645   2.620
47997SOL     OW45829  11.249   4.095   6.505
47997SOL    HW145830  11.196   4.161   6.551
47997SOL    HW245831  11.189   4.058   6.440
47998SOL     OW45832   6.436   4.506   6.812
47998SOL    HW145833   6.460   4.413   6.805
47998SOL    HW245834   6.494   4.540   6.880
47999SOL     OW45835  13.541  12.077   3.213
47999SOL    HW145836  13.523  11.983   3.210
47999SOL    HW245837  13.549  12.103   3.121
48000SOL     OW45838  11.518   6.838  12.703
48000SOL    HW145839  11.568   6.887  12.638
48000SOL    HW245840  11.558   6.861  12.787
48001SOL     OW45841   4.479   8.938   9.163
48001SOL    HW145842   4.512   8.848   9.169
48001SOL    HW245843   4.391   8.928   9.127
48002SOL     OW45844  10.625   7.303  12.986
48002SOL    HW145845  10.539   7.264  13.004
48002SOL    HW245846  10.687   7.245  13.029
48003SOL     OW45847   4.949   3.458  10.004
48003SOL    HW145848   4.876   3.502  10.047
48003SOL    HW245849   5.014   3.527   9.991
48004SOL     OW45850   6.770  13.728  14.297
48004SOL    HW145851   6.804  13.642  14.321
48004SOL    HW245852   6.681  13.730  14.332
48005SOL     OW45853   0.908   1.644   5.882
48005SOL    HW145854   1.002   1.657   5.875
48005SOL    HW245855   0.870   1.725   5.849
48006SOL     OW45856   4.717   6.496   1.486
48006SOL    HW145857   4.721   6.539   1.571
48006SOL    HW245858   4.623   6.491   1.466
48007SOL     OW45859   1.075   7.896   7.801
48007SOL    HW145860   1.106   7.805   7.800
48007SOL    HW245861   0.984   7.890   7.830
48008SOL     OW45862   3.472   5.440   8.953
48008SOL    HW145863   3.420   5.419   9.030
48008SOL    HW245864   3.558   5.465   8.988
48009SOL     OW45865  10.436   8.097  11.324
48009SOL    HW145866  10.445   8.069  11.415
48009SOL    HW245867  10.343   8.116  11.314
48010SOL     OW45868  11.995  12.041   1.245
48010SOL    HW145869  12.082  12.057   1.208
48010SOL    HW245870  11.945  12.003   1.173
48011SOL     OW45871  13.152   2.235   0.054
48011SOL    HW145872  13.126   2.291  14.856
48011SOL    HW245873  13.221   2.285   0.098
48012SOL     OW45874  10.115  11.784   0.544
48012SOL    HW145875  10.172  11.790   0.468
48012SOL    HW245876  10.110  11.690   0.562
48013SOL     OW45877   1.997  14.161   7.124
48013SOL    HW145878   2.018  14.114   7.043
48013SOL    HW245879   2.020  14.252   7.105
48014SOL     OW45880   5.243  13.306  11.367
48014SOL    HW145881   5.271  13.381  11.419
48014SOL    HW245882   5.241  13.337  11.277
48015SOL     OW45883   2.114   3.820   4.307
48015SOL    HW145884   2.056   3.771   4.365
48015SOL    HW245885   2.201   3.808   4.344
48016SOL     OW45886   0.212  11.623  10.073
48016SOL    HW145887   0.191  11.629   9.980
48016SOL    HW245888   0.212  11.713  10.104
48017SOL     OW45889   1.386   4.694   9.081
48017SOL    HW145890   1.378   4.766   9.019
48017SOL    HW245891   1.387   4.615   9.027
48018SOL     OW45892   1.601   2.858   0.127
48018SOL    HW145893   1.650   2.776   0.130
48018SOL    HW245894   1.517   2.838   0.168
48019SOL     OW45895   4.393   2.045  13.753
48019SOL    HW145896   4.322   2.109  13.759
48019SOL    HW245897   4.389   1.996  13.835
48020SOL     OW45898   9.784  11.662   8.806
48020SOL    HW145899   9.715  11.615   8.853
48020SOL    HW245900   9.849  11.595   8.785
48021SOL     OW45901  14.376  13.854   0.717
48021SOL    HW145902  14.295  13.820   0.680
48021SOL    HW245903  14.441  13.843   0.648
48022SOL     OW45904   3.856   2.132   0.401
48022SOL    HW145905   3.940   2.174   0.422
48022SOL    HW245906   3.819   2.107   0.486
48023SOL     OW45907   4.348   3.951   5.232
48023SOL    HW145908   4.322   3.932   5.142
48023SOL    HW245909   4.294   4.025   5.257
48024SOL     OW45910   8.125   3.057   2.390
48024SOL    HW145911   8.143   3.078   2.481
48024SOL    HW245912   8.048   3.110   2.368
48025SOL     OW45913   4.314   1.448   5.606
48025SOL    HW145914   4.407   1.430   5.590
48025SOL    HW245915   4.273   1.436   5.520
48026SOL     OW45916   4.127  13.703  11.447
48026SOL    HW145917   4.167  13.669  11.367
48026SOL    HW245918   4.034  13.683  11.438
48027SOL     OW45919   8.744  10.676   4.367
48027SOL    HW145920   8.737  10.744   4.434
48027SOL    HW245921   8.677  10.699   4.303
48028SOL     OW45922   4.164   9.221  11.723
48028SOL    HW145923   4.080   9.179  11.740
48028SOL    HW245924   4.141   9.299  11.672
48029SOL     OW45925   8.412   8.584  11.786
48029SOL    HW145926   8.459   8.539  11.715
48029SOL    HW245927   8.412   8.521  11.858
48030SOL     OW45928   3.465   3.421   4.403
48030SOL    HW145929   3.394   3.369   4.442
48030SOL    HW245930   3.421   3.476   4.339
48031SOL     OW45931  12.646   9.941  13.874
48031SOL    HW145932  12.726   9.977  13.912
48031SOL    HW245933  12.653   9.961  13.780
48032SOL     OW45934   3.239   7.726  11.292
48032SOL    HW145935   3.295   7.669  11.239
48032SOL    HW245936   3.286   7.809  11.296
48033SOL     OW45937   0.494   6.663  11.492
48033SOL    HW145938   0.478   6.693  11.581
48033SOL    HW245939   0.483   6.742  11.438
48034SOL     OW45940   4.743  12.619   2.578
48034SOL    HW145941   4.709  12.560   2.645
48034SOL    HW245942   4.815  12.665   2.621
48035SOL     OW45943   4.456   5.916   3.859
48035SOL    HW145944   4.541   5.936   3.820
48035SOL    HW245945   4.474   5.846   3.921
48036SOL     OW45946   8.411  11.880   7.749
48036SOL    HW145947   8.440  11.790   7.763
48036SOL    HW245948   8.367  11.879   7.664
48037SOL     OW45949  11.409   1.871   9.545
48037SOL    HW145950  11.373   1.910   9.626
48037SOL    HW245951  11.432   1.947   9.491
48038SOL     OW45952   4.197   6.755   1.901
48038SOL    HW145953   4.220   6.808   1.978
48038SOL    HW245954   4.197   6.818   1.829
48039SOL     OW45955  11.226   3.409  11.240
48039SOL    HW145956  11.213   3.406  11.145
48039SOL    HW245957  11.314   3.444  11.250
48040SOL     OW45958   1.786   4.903  12.090
48040SOL    HW145959   1.853   4.855  12.042
48040SOL    HW245960   1.779   4.856  12.174
48041SOL     OW45961   5.419   5.355  13.521
48041SOL    HW145962   5.349   5.378  13.459
48041SOL    HW245963   5.404   5.413  13.596
48042SOL     OW45964   0.594  11.629   0.076
48042SOL    HW145965   0.530  11.681   0.028
48042SOL    HW245966   0.614  11.680   0.154
48043SOL     OW45967  12.527   0.952  12.970
48043SOL    HW145968  12.519   0.864  13.007
48043SOL    HW245969  12.576   1.001  13.036
48044SOL     OW45970  13.847   9.624   2.411
48044SOL    HW145971  13.943   9.619   2.406
48044SOL    HW245972  13.828   9.614   2.505
48045SOL     OW45973  13.251  12.413   5.275
48045SOL    HW145974  13.232  12.428   5.368
48045SOL    HW245975  13.182  12.355   5.245
48046SOL     OW45976   0.282   8.068  11.957
48046SOL    HW145977   0.371   8.073  11.921
48046SOL    HW245978   0.250   8.158  11.953
48047SOL     OW45979   7.053   7.852   6.919
48047SOL    HW145980   7.086   7.824   6.833
48047SOL    HW245981   6.984   7.915   6.899
48048SOL     OW45982   7.059   1.862   1.947
48048SOL    HW145983   6.975   1.853   1.901
48048SOL    HW245984   7.039   1.839   2.037
48049SOL     OW45985   4.614   0.716   9.822
48049SOL    HW145986   4.649   0.800   9.791
48049SOL    HW245987   4.677   0.651   9.791
48050SOL     OW45988  13.336   2.046   9.429
48050SOL    HW145989  13.289   1.987   9.369
48050SOL    HW245990  13.334   2.131   9.384
48051SOL     OW45991   9.835   8.897   5.938
48051SOL    HW145992   9.836   8.954   5.861
48051SOL    HW245993   9.788   8.947   6.004
48052SOL     OW45994   0.280   5.178   1.534
48052SOL    HW145995   0.258   5.193   1.626
48052SOL    HW245996   0.239   5.094   1.514
48053SOL     OW45997   7.816  14.525  10.193
48053SOL    HW145998   7.905  14.559  10.183
48053SOL    HW245999   7.785  14.561  10.275
48054SOL     OW46000  10.351  12.231  14.630
48054SOL    HW146001  10.291  12.304  14.642
48054SOL    HW246002  10.417  12.265  14.569
48055SOL     OW46003   4.007   1.926   7.332
48055SOL    HW146004   4.051   1.953   7.251
48055SOL    HW246005   4.059   1.853   7.364
48056SOL     OW46006  12.377   2.108  11.061
48056SOL    HW146007  12.472   2.114  11.047
48056SOL    HW246008  12.368   2.061  11.143
48057SOL     OW46009   6.376   2.373   9.398
48057SOL    HW146010   6.304   2.380   9.461
48057SOL    HW246011   6.439   2.439   9.427
48058SOL     OW46012   0.934   6.160   3.502
48058SOL    HW146013   0.935   6.074   3.459
48058SOL    HW246014   0.860   6.206   3.461
48059SOL     OW46015   8.650  13.964   7.145
48059SOL    HW146016   8.656  13.920   7.059
48059SOL    HW246017   8.593  14.039   7.130
48060SOL     OW46018   8.738   9.655   0.007
48060SOL    HW146019   8.774   9.575  14.847
48060SOL    HW246020   8.815   9.706   0.034
48061SOL     OW46021   9.087   4.306   8.022
48061SOL    HW146022   9.106   4.212   8.016
48061SOL    HW246023   9.145   4.346   7.957
48062SOL     OW46024   7.412  13.211   1.915
48062SOL    HW146025   7.402  13.216   1.820
48062SOL    HW246026   7.414  13.302   1.943
48063SOL     OW46027   7.409  11.264  11.314
48063SOL    HW146028   7.495  11.242  11.350
48063SOL    HW246029   7.414  11.238  11.222
48064SOL     OW46030   4.936  12.493   9.302
48064SOL    HW146031   4.886  12.420   9.265
48064SOL    HW246032   5.027  12.473   9.280
48065SOL     OW46033   0.830   3.824   1.471
48065SOL    HW146034   0.905   3.876   1.501
48065SOL    HW246035   0.768   3.828   1.544
48066SOL     OW46036   8.727  13.582   7.158
48066SOL    HW146037   8.712  13.568   7.064
48066SOL    HW246038   8.703  13.674   7.172
48067SOL     OW46039   5.041   2.938   5.037
48067SOL    HW146040   4.970   2.937   4.972
48067SOL    HW246041   4.999   2.961   5.119
48068SOL     OW46042  13.795  11.452   5.917
48068SOL    HW146043  13.701  11.474   5.915
48068SOL    HW246044  13.837  11.530   5.955
48069SOL     OW46045   0.849  12.161   5.042
48069SOL    HW146046   0.864  12.170   4.948
48069SOL    HW246047   0.933  12.135   5.078
48070SOL     OW46048   3.640   9.480   4.550
48070SOL    HW146049   3.566   9.540   4.560
48070SOL    HW246050   3.601   9.393   4.545
48071SOL     OW46051   6.934   5.904   7.742
48071SOL    HW146052   6.845   5.879   7.720
48071SOL    HW246053   6.987   5.875   7.667
48072SOL     OW46054   3.787  14.316   0.014
48072SOL    HW146055   3.762  14.288  14.802
48072SOL    HW246056   3.711  14.365   0.045
48073SOL     OW46057  12.287   5.772   2.990
48073SOL    HW146058  12.290   5.866   3.011
48073SOL    HW246059  12.219   5.737   3.048
48074SOL     OW46060   0.534   3.321   7.679
48074SOL    HW146061   0.617   3.344   7.721
48074SOL    HW246062   0.467   3.358   7.736
48075SOL     OW46063  14.447   8.748   7.363
48075SOL    HW146064  14.370   8.721   7.314
48075SOL    HW246065  14.453   8.686   7.435
48076SOL     OW46066  14.227   3.076  11.951
48076SOL    HW146067  14.209   2.983  11.968
48076SOL    HW246068  14.194   3.121  12.028
48077SOL     OW46069   6.474   7.175   6.612
48077SOL    HW146070   6.410   7.166   6.684
48077SOL    HW246071   6.558   7.188   6.657
48078SOL     OW46072  11.107   3.604  13.059
48078SOL    HW146073  11.144   3.526  13.100
48078SOL    HW246074  11.091   3.578  12.969
48079SOL     OW46075   7.490   9.821  12.506
48079SOL    HW146076   7.502   9.791  12.415
48079SOL    HW246077   7.501   9.742  12.559
48080SOL     OW46078  13.026   6.984  11.376
48080SOL    HW146079  13.091   7.053  11.371
48080SOL    HW246080  13.050   6.922  11.307
48081SOL     OW46081   4.781   8.715   1.874
48081SOL    HW146082   4.844   8.786   1.883
48081SOL    HW246083   4.715   8.732   1.942
48082SOL     OW46084   7.926   1.714  11.726
48082SOL    HW146085   7.839   1.707  11.687
48082SOL    HW246086   7.980   1.753  11.656
48083SOL     OW46087  10.366   5.779   5.310
48083SOL    HW146088  10.436   5.840   5.336
48083SOL    HW246089  10.399   5.737   5.231
48084SOL     OW46090   6.522   1.604  10.926
48084SOL    HW146091   6.581   1.531  10.908
48084SOL    HW246092   6.548   1.635  11.012
48085SOL     OW46093   0.546   5.110   5.751
48085SOL    HW146094   0.590   5.044   5.698
48085SOL    HW246095   0.461   5.072   5.773
48086SOL     OW46096  12.892  14.099   4.116
48086SOL    HW146097  12.882  14.018   4.167
48086SOL    HW246098  12.855  14.077   4.030
48087SOL     OW46099   4.653   6.895   0.091
48087SOL    HW146100   4.629   6.808   0.059
48087SOL    HW246101   4.712   6.878   0.164
48088SOL     OW46102   7.250   1.611  13.265
48088SOL    HW146103   7.343   1.619  13.247
48088SOL    HW246104   7.213   1.695  13.236
48089SOL     OW46105   4.498   0.385   0.228
48089SOL    HW146106   4.420   0.334   0.247
48089SOL    HW246107   4.476   0.474   0.256
48090SOL     OW46108  14.083   1.366  12.567
48090SOL    HW146109  14.096   1.427  12.640
48090SOL    HW246110  14.079   1.422  12.490
48091SOL     OW46111   8.617   4.664  12.923
48091SOL    HW146112   8.617   4.740  12.982
48091SOL    HW246113   8.605   4.589  12.981
48092SOL     OW46114  10.669   9.491   0.541
48092SOL    HW146115  10.675   9.552   0.467
48092SOL    HW246116  10.589   9.517   0.587
48093SOL     OW46117  13.896   0.256   2.764
48093SOL    HW146118  13.841   0.270   2.687
48093SOL    HW246119  13.851   0.189   2.814
48094SOL     OW46120  11.150   3.574   6.388
48094SOL    HW146121  11.224   3.514   6.396
48094SOL    HW246122  11.075   3.518   6.367
48095SOL     OW46123   1.893   0.481  13.799
48095SOL    HW146124   1.923   0.433  13.876
48095SOL    HW246125   1.798   0.490  13.812
48096SOL     OW46126  14.595   1.248   6.523
48096SOL    HW146127  14.607   1.320   6.462
48096SOL    HW246128  14.607   1.169   6.469
48097SOL     OW46129   7.820   5.773   7.519
48097SOL    HW146130   7.798   5.740   7.607
48097SOL    HW246131   7.738   5.810   7.487
48098SOL     OW46132   0.661   1.855   9.432
48098SOL    HW146133   0.638   1.947   9.446
48098SOL    HW246134   0.712   1.831   9.509
48099SOL     OW46135   0.567   1.331   6.472
48099SOL    HW146136   0.610   1.416   6.476
48099SOL    HW246137   0.628   1.276   6.422
48100SOL     OW46138   5.718   1.886   8.308
48100SOL    HW146139   5.811   1.877   8.288
48100SOL    HW246140   5.716   1.915   8.399
48101SOL     OW46141   7.733   9.932   2.329
48101SOL    HW146142   7.805   9.969   2.277
48101SOL    HW246143   7.657   9.939   2.271
48102SOL     OW46144  10.250   4.402   4.371
48102SOL    HW146145  10.330   4.454   4.375
48102SOL    HW246146  10.191   4.451   4.315
48103SOL     OW46147  11.081  10.143   1.245
48103SOL    HW146148  11.001  10.098   1.272
48103SOL    HW246149  11.063  10.235   1.263
48104SOL     OW46150   5.577  11.338  13.930
48104SOL    HW146151   5.632  11.261  13.942
48104SOL    HW246152   5.505  11.327  13.991
48105SOL     OW46153   1.882  13.842   5.891
48105SOL    HW146154   1.867  13.830   5.797
48105SOL    HW246155   1.900  13.935   5.900
48106SOL     OW46156   3.139   8.093  10.364
48106SOL    HW146157   3.185   8.063  10.442
48106SOL    HW246158   3.179   8.178  10.343
48107SOL     OW46159   3.054  11.322   3.050
48107SOL    HW146160   3.109  11.343   2.974
48107SOL    HW246161   2.970  11.363   3.031
48108SOL     OW46162   8.232   9.920   7.992
48108SOL    HW146163   8.227   9.866   7.913
48108SOL    HW246164   8.161   9.888   8.047
48109SOL     OW46165  13.239   7.189   3.593
48109SOL    HW146166  13.175   7.186   3.522
48109SOL    HW246167  13.224   7.107   3.641
48110SOL     OW46168   5.847   9.391   1.049
48110SOL    HW146169   5.775   9.444   1.015
48110SOL    HW246170   5.907   9.382   0.975
48111SOL     OW46171  11.797  12.390   3.414
48111SOL    HW146172  11.880  12.375   3.460
48111SOL    HW246173  11.816  12.364   3.324
48112SOL     OW46174  14.114   1.278   2.965
48112SOL    HW146175  14.029   1.258   3.005
48112SOL    HW246176  14.092   1.334   2.890
48113SOL     OW46177  14.054   6.068   7.919
48113SOL    HW146178  13.967   6.088   7.954
48113SOL    HW246179  14.115   6.106   7.982
48114SOL     OW46180   7.967  13.996   6.110
48114SOL    HW146181   8.057  14.000   6.078
48114SOL    HW246182   7.934  13.912   6.080
48115SOL     OW46183   2.230  14.297   8.952
48115SOL    HW146184   2.215  14.226   8.890
48115SOL    HW246185   2.246  14.253   9.035
48116SOL     OW46186   6.708  12.958   0.489
48116SOL    HW146187   6.628  12.909   0.471
48116SOL    HW246188   6.678  13.048   0.503
48117SOL     OW46189   7.491  11.358   8.166
48117SOL    HW146190   7.572  11.366   8.217
48117SOL    HW246191   7.458  11.447   8.159
48118SOL     OW46192  13.314   5.958   5.705
48118SOL    HW146193  13.340   5.884   5.650
48118SOL    HW246194  13.256   5.920   5.771
48119SOL     OW46195   0.677   0.664   3.134
48119SOL    HW146196   0.626   0.693   3.210
48119SOL    HW246197   0.677   0.568   3.140
48120SOL     OW46198   5.480  12.250  11.791
48120SOL    HW146199   5.510  12.185  11.855
48120SOL    HW246200   5.561  12.287  11.756
48121SOL     OW46201  13.855   6.963   3.732
48121SOL    HW146202  13.849   6.931   3.642
48121SOL    HW246203  13.918   7.034   3.728
48122SOL     OW46204  10.606   1.136  11.716
48122SOL    HW146205  10.595   1.204  11.650
48122SOL    HW246206  10.641   1.061  11.668
48123SOL     OW46207  13.678   9.067  11.454
48123SOL    HW146208  13.760   9.026  11.482
48123SOL    HW246209  13.667   9.041  11.363
48124SOL     OW46210  12.896   7.899  11.987
48124SOL    HW146211  12.897   7.836  12.060
48124SOL    HW246212  12.948   7.973  12.018
48125SOL     OW46213  12.984  11.200   4.061
48125SOL    HW146214  12.979  11.289   4.025
48125SOL    HW246215  12.898  11.162   4.045
48126SOL     OW46216  10.343   1.649   0.059
48126SOL    HW146217  10.326   1.741   0.082
48126SOL    HW246218  10.436   1.637   0.075
48127SOL     OW46219  11.456   1.430   4.369
48127SOL    HW146220  11.412   1.478   4.299
48127SOL    HW246221  11.458   1.492   4.442
48128SOL     OW46222  12.043   0.250  10.308
48128SOL    HW146223  11.994   0.276  10.386
48128SOL    HW246224  12.045   0.329  10.254
48129SOL     OW46225   5.532   2.752   9.557
48129SOL    HW146226   5.452   2.759   9.609
48129SOL    HW246227   5.531   2.829   9.501
48130SOL     OW46228  11.057   6.429   9.729
48130SOL    HW146229  11.102   6.502   9.771
48130SOL    HW246230  10.970   6.463   9.710
48131SOL     OW46231   9.176   4.493   1.485
48131SOL    HW146232   9.095   4.543   1.495
48131SOL    HW246233   9.154   4.423   1.424
48132SOL     OW46234  10.748   0.385   3.286
48132SOL    HW146235  10.784   0.446   3.221
48132SOL    HW246236  10.693   0.326   3.235
48133SOL     OW46237  11.394   5.470   0.573
48133SOL    HW146238  11.466   5.418   0.537
48133SOL    HW246239  11.435   5.529   0.636
48134SOL     OW46240   6.913   8.260   6.732
48134SOL    HW146241   6.910   8.190   6.797
48134SOL    HW246242   6.985   8.236   6.674
48135SOL     OW46243   1.823  10.132   5.454
48135SOL    HW146244   1.838  10.050   5.502
48135SOL    HW246245   1.863  10.199   5.510
48136SOL     OW46246   7.795   5.267   1.492
48136SOL    HW146247   7.722   5.285   1.432
48136SOL    HW246248   7.838   5.190   1.455
48137SOL     OW46249  14.252   8.734  10.726
48137SOL    HW146250  14.213   8.647  10.717
48137SOL    HW246251  14.250   8.770  10.637
48138SOL     OW46252   0.423  13.518   0.733
48138SOL    HW146253   0.357  13.483   0.673
48138SOL    HW246254   0.507  13.491   0.695
48139SOL     OW46255  13.661   7.539   6.560
48139SOL    HW146256  13.578   7.544   6.513
48139SOL    HW246257  13.702   7.459   6.527
48140SOL     OW46258  13.506   6.126   5.619
48140SOL    HW146259  13.447   6.063   5.660
48140SOL    HW246260  13.560   6.159   5.691
48141SOL     OW46261   4.157   0.791  11.756
48141SOL    HW146262   4.186   0.834  11.675
48141SOL    HW246263   4.062   0.790  11.749
48142SOL     OW46264   0.217   0.598   7.274
48142SOL    HW146265   0.129   0.635   7.282
48142SOL    HW246266   0.274   0.662   7.315
48143SOL     OW46267   7.148   2.073   1.803
48143SOL    HW146268   7.139   2.005   1.870
48143SOL    HW246269   7.242   2.074   1.783
48144SOL     OW46270   2.557  10.297   9.136
48144SOL    HW146271   2.580  10.365   9.072
48144SOL    HW246272   2.505  10.343   9.201
48145SOL     OW46273   6.699  12.219   2.136
48145SOL    HW146274   6.793  12.214   2.152
48145SOL    HW246275   6.691  12.212   2.041
48146SOL     OW46276  10.927   7.226   9.533
48146SOL    HW146277  10.885   7.215   9.618
48146SOL    HW246278  10.854   7.247   9.474
48147SOL     OW46279  11.647  11.183  13.432
48147SOL    HW146280  11.705  11.192  13.356
48147SOL    HW246281  11.686  11.112  13.484
48148SOL     OW46282  13.769   4.477  12.377
48148SOL    HW146283  13.817   4.549  12.336
48148SOL    HW246284  13.766   4.500  12.470
48149SOL     OW46285   4.972   8.224  11.257
48149SOL    HW146286   5.062   8.231  11.290
48149SOL    HW246287   4.920   8.204  11.335
48150SOL     OW46288   4.351   7.196   7.195
48150SOL    HW146289   4.397   7.273   7.229
48150SOL    HW246290   4.341   7.139   7.271
48151SOL     OW46291   7.134   5.787   2.362
48151SOL    HW146292   7.058   5.746   2.320
48151SOL    HW246293   7.161   5.855   2.300
48152SOL     OW46294   0.319  11.876   1.320
48152SOL    HW146295   0.229  11.908   1.325
48152SOL    HW246296   0.320  11.819   1.243
48153SOL     OW46297   5.927   5.324   3.726
48153SOL    HW146298   5.994   5.372   3.677
48153SOL    HW246299   5.845   5.347   3.683
48154SOL     OW46300   8.486  14.250  11.734
48154SOL    HW146301   8.437  14.193  11.674
48154SOL    HW246302   8.570  14.263  11.692
48155SOL     OW46303   4.544   6.530  10.013
48155SOL    HW146304   4.547   6.487  10.099
48155SOL    HW246305   4.462   6.579  10.014
48156SOL     OW46306   0.868  10.119   5.967
48156SOL    HW146307   0.934  10.061   5.929
48156SOL    HW246308   0.787  10.068   5.964
48157SOL     OW46309   7.019   0.825  10.026
48157SOL    HW146310   7.041   0.856  10.114
48157SOL    HW246311   7.076   0.876   9.968
48158SOL     OW46312   0.635   1.044   4.292
48158SOL    HW146313   0.629   1.133   4.327
48158SOL    HW246314   0.628   1.055   4.197
48159SOL     OW46315  11.032   8.283   1.624
48159SOL    HW146316  10.986   8.240   1.552
48159SOL    HW246317  10.987   8.252   1.703
48160SOL     OW46318  12.970   1.113   6.539
48160SOL    HW146319  12.989   1.203   6.513
48160SOL    HW246320  12.904   1.121   6.607
48161SOL     OW46321  13.055  10.429  11.188
48161SOL    HW146322  13.052  10.350  11.241
48161SOL    HW246323  13.149  10.447  11.177
48162SOL     OW46324   8.455   4.486   0.763
48162SOL    HW146325   8.514   4.463   0.692
48162SOL    HW246326   8.373   4.511   0.720
48163SOL     OW46327  10.302   3.962   0.634
48163SOL    HW146328  10.360   4.013   0.577
48163SOL    HW246329  10.314   4.001   0.721
48164SOL     OW46330   2.440  14.520  12.206
48164SOL    HW146331   2.417  14.589  12.144
48164SOL    HW246332   2.356  14.478  12.226
48165SOL     OW46333   0.779   1.189   8.772
48165SOL    HW146334   0.845   1.143   8.825
48165SOL    HW246335   0.757   1.266   8.825
48166SOL     OW46336   6.640   7.007   7.765
48166SOL    HW146337   6.561   6.968   7.729
48166SOL    HW246338   6.609   7.074   7.826
48167SOL     OW46339   0.668   6.381   4.395
48167SOL    HW146340   0.757   6.379   4.359
48167SOL    HW246341   0.646   6.474   4.398
48168SOL     OW46342   6.713   7.113   5.443
48168SOL    HW146343   6.623   7.137   5.465
48168SOL    HW246344   6.711   7.018   5.437
48169SOL     OW46345   5.788   4.355  14.386
48169SOL    HW146346   5.882   4.351  14.368
48169SOL    HW246347   5.781   4.412  14.463
48170SOL     OW46348  12.653   9.790   5.019
48170SOL    HW146349  12.557   9.785   5.021
48170SOL    HW246350  12.680   9.705   4.982
48171SOL     OW46351  12.296   7.097   1.362
48171SOL    HW146352  12.354   7.035   1.318
48171SOL    HW246353  12.239   7.042   1.416
48172SOL     OW46354   6.074   8.739  10.598
48172SOL    HW146355   6.009   8.765  10.533
48172SOL    HW246356   6.085   8.816  10.654
48173SOL     OW46357   9.410   4.869   6.529
48173SOL    HW146358   9.477   4.847   6.594
48173SOL    HW246359   9.459   4.909   6.457
48174SOL     OW46360   6.651   9.894   2.866
48174SOL    HW146361   6.616   9.810   2.838
48174SOL    HW246362   6.574   9.945   2.890
48175SOL     OW46363   6.644  14.623   9.464
48175SOL    HW146364   6.620  14.584   9.379
48175SOL    HW246365   6.734  14.653   9.452
48176SOL     OW46366  10.117   9.610   2.864
48176SOL    HW146367  10.179   9.554   2.816
48176SOL    HW246368  10.040   9.615   2.807
48177SOL     OW46369   1.320  11.797   0.693
48177SOL    HW146370   1.381  11.724   0.701
48177SOL    HW246371   1.311  11.811   0.598
48178SOL     OW46372   6.539  12.619   9.821
48178SOL    HW146373   6.620  12.587   9.861
48178SOL    HW246374   6.473  12.610   9.890
48179SOL     OW46375   9.520   6.291   6.591
48179SOL    HW146376   9.479   6.337   6.664
48179SOL    HW246377   9.534   6.202   6.624
48180SOL     OW46378   2.796   4.027   3.307
48180SOL    HW146379   2.799   3.932   3.304
48180SOL    HW246380   2.859   4.052   3.374
48181SOL     OW46381   9.573   2.336   1.734
48181SOL    HW146382   9.499   2.383   1.695
48181SOL    HW246383   9.541   2.308   1.820
48182SOL     OW46384  11.744   6.055   8.499
48182SOL    HW146385  11.815   6.110   8.534
48182SOL    HW246386  11.673   6.064   8.563
48183SOL     OW46387  12.270  12.560   3.928
48183SOL    HW146388  12.223  12.644   3.933
48183SOL    HW246389  12.361  12.584   3.912
48184SOL     OW46390   4.930  12.998   4.200
48184SOL    HW146391   4.954  12.935   4.267
48184SOL    HW246392   4.899  13.075   4.248
48185SOL     OW46393  10.520   2.225  12.474
48185SOL    HW146394  10.429   2.195  12.477
48185SOL    HW246395  10.550   2.219  12.564
48186SOL     OW46396  12.327   1.005   6.847
48186SOL    HW146397  12.302   0.999   6.755
48186SOL    HW246398  12.418   1.033   6.845
48187SOL     OW46399   1.953  12.220  13.295
48187SOL    HW146400   1.962  12.134  13.256
48187SOL    HW246401   1.957  12.204  13.390
48188SOL     OW46402  10.499   2.231   7.383
48188SOL    HW146403  10.433   2.229   7.314
48188SOL    HW246404  10.456   2.276   7.456
48189SOL     OW46405   3.281  11.824   1.107
48189SOL    HW146406   3.314  11.741   1.071
48189SOL    HW246407   3.187  11.821   1.088
48190SOL     OW46408  13.109   5.375   7.211
48190SOL    HW146409  13.102   5.300   7.152
48190SOL    HW246410  13.089   5.451   7.156
48191SOL     OW46411   1.743   6.739  13.516
48191SOL    HW146412   1.804   6.812  13.509
48191SOL    HW246413   1.800   6.662  13.526
48192SOL     OW46414  10.041   6.430   3.820
48192SOL    HW146415   9.973   6.417   3.887
48192SOL    HW246416  10.062   6.523   3.826
48193SOL     OW46417   8.013  14.594  13.435
48193SOL    HW146418   7.983  14.504  13.422
48193SOL    HW246419   7.956  14.628  13.504
48194SOL     OW46420  14.594   6.396   7.615
48194SOL    HW146421  14.504   6.365   7.605
48194SOL    HW246422  14.617   6.433   7.530
48195SOL     OW46423   9.176   8.404   7.031
48195SOL    HW146424   9.155   8.317   7.064
48195SOL    HW246425   9.091   8.448   7.024
48196SOL     OW46426   5.943   5.949   1.380
48196SOL    HW146427   5.979   6.037   1.371
48196SOL    HW246428   6.001   5.905   1.443
48197SOL     OW46429  10.369  12.456   1.036
48197SOL    HW146430  10.309  12.522   1.071
48197SOL    HW246431  10.317  12.376   1.031
48198SOL     OW46432   3.216  12.628   2.208
48198SOL    HW146433   3.197  12.715   2.241
48198SOL    HW246434   3.238  12.577   2.286
48199SOL     OW46435   0.026   5.829  10.240
48199SOL    HW146436   0.051   5.888  10.169
48199SOL    HW246437   0.065   5.745  10.215
48200SOL     OW46438   0.444   1.674   2.304
48200SOL    HW146439   0.537   1.660   2.288
48200SOL    HW246440   0.441   1.747   2.366
48201SOL     OW46441  10.495   8.710   4.819
48201SOL    HW146442  10.417   8.736   4.770
48201SOL    HW246443  10.562   8.772   4.792
48202SOL     OW46444  12.071   9.240  10.691
48202SOL    HW146445  12.042   9.331  10.685
48202SOL    HW246446  12.108   9.221  10.605
48203SOL     OW46447   8.364  10.563   8.493
48203SOL    HW146448   8.401  10.650   8.503
48203SOL    HW246449   8.313  10.567   8.412
48204SOL     OW46450   9.106   3.685   0.841
48204SOL    HW146451   9.199   3.704   0.852
48204SOL    HW246452   9.062   3.768   0.860
48205SOL     OW46453   3.191   7.751   6.007
48205SOL    HW146454   3.112   7.698   6.004
48205SOL    HW246455   3.258   7.697   5.965
48206SOL     OW46456   2.061   4.285   9.703
48206SOL    HW146457   2.092   4.359   9.651
48206SOL    HW246458   1.978   4.260   9.663
48207SOL     OW46459   2.998  14.321  11.995
48207SOL    HW146460   3.076  14.266  12.001
48207SOL    HW246461   2.930  14.264  11.959
48208SOL     OW46462  11.131  12.327  11.132
48208SOL    HW146463  11.100  12.242  11.161
48208SOL    HW246464  11.217  12.309  11.093
48209SOL     OW46465   1.885  11.662   1.710
48209SOL    HW146466   1.805  11.668   1.657
48209SOL    HW246467   1.953  11.633   1.648
48210SOL     OW46468   3.540   8.175   9.311
48210SOL    HW146469   3.449   8.181   9.285
48210SOL    HW246470   3.579   8.257   9.282
48211SOL     OW46471   7.543   3.558   0.368
48211SOL    HW146472   7.576   3.618   0.435
48211SOL    HW246473   7.597   3.479   0.378
48212SOL     OW46474   1.921   8.913  11.652
48212SOL    HW146475   1.935   8.843  11.716
48212SOL    HW246476   1.962   8.990  11.691
48213SOL     OW46477  14.126   4.405   5.627
48213SOL    HW146478  14.055   4.371   5.681
48213SOL    HW246479  14.088   4.414   5.540
48214SOL     OW46480   4.860   3.050   2.587
48214SOL    HW146481   4.945   3.008   2.578
48214SOL    HW246482   4.821   3.044   2.499
48215SOL     OW46483   8.293  11.989   8.799
48215SOL    HW146484   8.371  11.997   8.854
48215SOL    HW246485   8.221  11.979   8.861
48216SOL     OW46486   9.630  14.665   7.194
48216SOL    HW146487   9.670  14.605   7.257
48216SOL    HW246488   9.612  14.744   7.245
48217SOL     OW46489   5.779   8.088   3.420
48217SOL    HW146490   5.834   8.101   3.497
48217SOL    HW246491   5.841   8.065   3.350
48218SOL     OW46492  10.320   3.656   9.411
48218SOL    HW146493  10.307   3.735   9.358
48218SOL    HW246494  10.413   3.636   9.402
48219SOL     OW46495   7.024   9.643   3.310
48219SOL    HW146496   6.976   9.671   3.232
48219SOL    HW246497   6.956   9.626   3.375
48220SOL     OW46498   2.170   7.767  11.769
48220SOL    HW146499   2.151   7.750  11.677
48220SOL    HW246500   2.088   7.748  11.814
48221SOL     OW46501  13.152  12.755  14.594
48221SOL    HW146502  13.104  12.698  14.654
48221SOL    HW246503  13.211  12.805  14.651
48222SOL     OW46504   5.132   4.424   5.414
48222SOL    HW146505   5.164   4.439   5.502
48222SOL    HW246506   5.081   4.502   5.393
48223SOL     OW46507   4.576  10.194   4.346
48223SOL    HW146508   4.490  10.236   4.358
48223SOL    HW246509   4.560  10.126   4.280
48224SOL     OW46510  12.732   0.136   4.729
48224SOL    HW146511  12.793   0.073   4.692
48224SOL    HW246512  12.706   0.098   4.813
48225SOL     OW46513   9.009  13.031   9.460
48225SOL    HW146514   9.023  13.005   9.369
48225SOL    HW246515   9.085  12.998   9.507
48226SOL     OW46516  10.630   1.742   8.697
48226SOL    HW146517  10.666   1.790   8.622
48226SOL    HW246518  10.542   1.777   8.709
48227SOL     OW46519  14.109  14.303   1.352
48227SOL    HW146520  14.042  14.275   1.413
48227SOL    HW246521  14.190  14.307   1.404
48228SOL     OW46522   4.826   4.699   9.641
48228SOL    HW146523   4.899   4.682   9.701
48228SOL    HW246524   4.757   4.638   9.668
48229SOL     OW46525   8.265   2.387  12.368
48229SOL    HW146526   8.280   2.430  12.452
48229SOL    HW246527   8.253   2.459  12.305
48230SOL     OW46528   6.310   3.772   6.170
48230SOL    HW146529   6.312   3.846   6.232
48230SOL    HW246530   6.217   3.755   6.156
48231SOL     OW46531   6.726  12.985   1.661
48231SOL    HW146532   6.771  12.991   1.577
48231SOL    HW246533   6.686  13.072   1.673
48232SOL     OW46534   0.181   2.995   5.746
48232SOL    HW146535   0.132   2.991   5.664
48232SOL    HW246536   0.121   2.959   5.811
48233SOL     OW46537  11.725   5.252   1.222
48233SOL    HW146538  11.689   5.221   1.139
48233SOL    HW246539  11.701   5.344   1.225
48234SOL     OW46540   7.960   0.495  10.913
48234SOL    HW146541   7.972   0.564  10.847
48234SOL    HW246542   7.876   0.456  10.890
48235SOL     OW46543  14.751   9.521   4.891
48235SOL    HW146544  14.783   9.491   4.977
48235SOL    HW246545  14.661   9.490   4.887
48236SOL     OW46546  10.355   7.565   7.220
48236SOL    HW146547  10.442   7.529   7.237
48236SOL    HW246548  10.314   7.571   7.307
48237SOL     OW46549   4.038  11.965   6.971
48237SOL    HW146550   4.008  11.929   6.887
48237SOL    HW246551   4.107  12.028   6.947
48238SOL     OW46552  12.291   4.163  14.727
48238SOL    HW146553  12.238   4.242  14.716
48238SOL    HW246554  12.329   4.171  14.814
48239SOL     OW46555  13.649   3.123  12.373
48239SOL    HW146556  13.579   3.058  12.383
48239SOL    HW246557  13.726   3.072  12.347
48240SOL     OW46558   6.241  14.661   6.591
48240SOL    HW146559   6.188  14.650   6.671
48240SOL    HW246560   6.318  14.709   6.620
48241SOL     OW46561  13.450  14.762  10.373
48241SOL    HW146562  13.399  14.713  10.437
48241SOL    HW246563  13.540  14.734  10.388
48242SOL     OW46564  10.419   2.674   0.558
48242SOL    HW146565  10.477   2.715   0.494
48242SOL    HW246566  10.398   2.589   0.521
48243SOL     OW46567   1.887  10.276   2.431
48243SOL    HW146568   1.855  10.354   2.476
48243SOL    HW246569   1.873  10.295   2.338
48244SOL     OW46570   2.512  13.622   6.264
48244SOL    HW146571   2.473  13.620   6.177
48244SOL    HW246572   2.489  13.537   6.302
48245SOL     OW46573   6.767   3.362  12.743
48245SOL    HW146574   6.769   3.369  12.647
48245SOL    HW246575   6.706   3.430  12.771
48246SOL     OW46576   3.300   3.979   2.119
48246SOL    HW146577   3.344   3.994   2.203
48246SOL    HW246578   3.337   4.045   2.060
48247SOL     OW46579  14.001   6.379   4.877
48247SOL    HW146580  14.058   6.318   4.923
48247SOL    HW246581  14.060   6.444   4.839
48248SOL     OW46582   8.586   2.003  10.538
48248SOL    HW146583   8.533   1.950  10.598
48248SOL    HW246584   8.543   1.992  10.453
48249SOL     OW46585   2.447   3.750   7.101
48249SOL    HW146586   2.357   3.780   7.117
48249SOL    HW246587   2.486   3.819   7.046
48250SOL     OW46588   6.310   4.197   7.797
48250SOL    HW146589   6.239   4.260   7.784
48250SOL    HW246590   6.368   4.241   7.860
48251SOL     OW46591   9.517  14.638  14.378
48251SOL    HW146592   9.492  14.709  14.320
48251SOL    HW246593   9.594  14.671  14.425
48252SOL     OW46594   7.349   4.907   2.754
48252SOL    HW146595   7.346   5.002   2.760
48252SOL    HW246596   7.258   4.880   2.748
48253SOL     OW46597  14.024  13.895  14.285
48253SOL    HW146598  14.044  13.965  14.223
48253SOL    HW246599  13.991  13.941  14.363
48254SOL     OW46600   6.982   9.467  14.784
48254SOL    HW146601   6.908   9.408  14.766
48254SOL    HW246602   6.941   9.552  14.799
48255SOL     OW46603   8.682   7.514  10.120
48255SOL    HW146604   8.591   7.508  10.092
48255SOL    HW246605   8.684   7.469  10.205
48256SOL     OW46606  14.525   3.933   2.609
48256SOL    HW146607  14.603   3.989   2.605
48256SOL    HW246608  14.455   3.986   2.571
48257SOL     OW46609   8.865   9.972   9.071
48257SOL    HW146610   8.791   9.982   9.012
48257SOL    HW246611   8.850   9.888   9.115
48258SOL     OW46612   9.415  14.847   4.402
48258SOL    HW146613   9.434  14.792   4.478
48258SOL    HW246614   9.496   0.019   4.387
48259SOL     OW46615   5.794   4.201   0.318
48259SOL    HW146616   5.888   4.216   0.316
48259SOL    HW246617   5.768   4.224   0.407
48260SOL     OW46618   3.104  12.642   8.380
48260SOL    HW146619   3.101  12.733   8.409
48260SOL    HW246620   3.032  12.634   8.317
48261SOL     OW46621  10.455  13.183  12.836
48261SOL    HW146622  10.496  13.232  12.907
48261SOL    HW246623  10.478  13.232  12.757
48262SOL     OW46624  12.491   5.569   9.990
48262SOL    HW146625  12.500   5.478   9.965
48262SOL    HW246626  12.404   5.575  10.030
48263SOL     OW46627   1.906   5.453   1.296
48263SOL    HW146628   1.884   5.480   1.207
48263SOL    HW246629   1.959   5.525   1.331
48264SOL     OW46630   3.398   0.931   7.475
48264SOL    HW146631   3.359   1.012   7.443
48264SOL    HW246632   3.438   0.891   7.398
48265SOL     OW46633   7.139  12.791   2.777
48265SOL    HW146634   7.204  12.769   2.711
48265SOL    HW246635   7.059  12.747   2.748
48266SOL     OW46636   7.579   9.070   1.386
48266SOL    HW146637   7.535   9.030   1.461
48266SOL    HW246638   7.519   9.055   1.313
48267SOL     OW46639  12.817   6.463  12.168
48267SOL    HW146640  12.819   6.397  12.099
48267SOL    HW246641  12.727   6.495  12.168
48268SOL     OW46642   7.114   3.546   2.942
48268SOL    HW146643   7.180   3.580   2.882
48268SOL    HW246644   7.061   3.486   2.889
48269SOL     OW46645   6.057  12.386  13.702
48269SOL    HW146646   6.046  12.309  13.758
48269SOL    HW246647   5.994  12.374  13.631
48270SOL     OW46648  10.068  13.275   0.293
48270SOL    HW146649  10.065  13.249   0.201
48270SOL    HW246650  10.050  13.194   0.341
48271SOL     OW46651  12.931  10.357   0.058
48271SOL    HW146652  12.950  10.429   0.118
48271SOL    HW246653  12.954  10.278   0.107
48272SOL     OW46654   7.323  14.783   2.836
48272SOL    HW146655   7.348  14.805   2.746
48272SOL    HW246656   7.272  14.858   2.865
48273SOL     OW46657  14.235  13.047   2.724
48273SOL    HW146658  14.143  13.023   2.740
48273SOL    HW246659  14.230  13.128   2.674
48274SOL     OW46660  11.894   4.170   1.685
48274SOL    HW146661  11.921   4.221   1.609
48274SOL    HW246662  11.969   4.113   1.704
48275SOL     OW46663   3.746   9.704  12.257
48275SOL    HW146664   3.823   9.725  12.310
48275SOL    HW246665   3.703   9.789  12.243
48276SOL     OW46666   3.263   5.547   6.750
48276SOL    HW146667   3.312   5.606   6.806
48276SOL    HW246668   3.233   5.602   6.677
48277SOL     OW46669  14.596  13.812   3.688
48277SOL    HW146670  14.611  13.902   3.660
48277SOL    HW246671  14.502  13.797   3.672
48278SOL     OW46672  13.485   8.041   0.509
48278SOL    HW146673  13.551   8.067   0.573
48278SOL    HW246674  13.452   8.124   0.474
48279SOL     OW46675   2.623   6.768   5.712
48279SOL    HW146676   2.528   6.764   5.704
48279SOL    HW246677   2.647   6.854   5.675
48280SOL     OW46678   1.828   5.114   0.975
48280SOL    HW146679   1.897   5.172   1.007
48280SOL    HW246680   1.777   5.092   1.053
48281SOL     OW46681  13.615  11.781  10.075
48281SOL    HW146682  13.652  11.702  10.113
48281SOL    HW246683  13.690  11.838  10.060
48282SOL     OW46684  13.579   7.515  10.143
48282SOL    HW146685  13.601   7.426  10.170
48282SOL    HW246686  13.487   7.526  10.165
48283SOL     OW46687   0.945  14.819   6.621
48283SOL    HW146688   1.025  14.836   6.670
48283SOL    HW246689   0.910   0.030   6.602
48284SOL     OW46690   3.622  10.283  14.778
48284SOL    HW146691   3.549  10.342  14.796
48284SOL    HW246692   3.582  10.207  14.736
48285SOL     OW46693  12.279   3.778   5.598
48285SOL    HW146694  12.253   3.794   5.689
48285SOL    HW246695  12.197   3.779   5.549
48286SOL     OW46696   7.368   5.259   9.304
48286SOL    HW146697   7.410   5.243   9.219
48286SOL    HW246698   7.420   5.208   9.366
48287SOL     OW46699  10.846   6.521  11.878
48287SOL    HW146700  10.813   6.463  11.809
48287SOL    HW246701  10.920   6.566  11.837
48288SOL     OW46702   8.471   1.526   1.643
48288SOL    HW146703   8.506   1.465   1.578
48288SOL    HW246704   8.528   1.603   1.637
48289SOL     OW46705   1.103   3.878   2.450
48289SOL    HW146706   1.110   3.905   2.542
48289SOL    HW246707   1.123   3.785   2.451
48290SOL     OW46708   1.024   4.164   0.582
48290SOL    HW146709   0.961   4.129   0.520
48290SOL    HW246710   1.096   4.198   0.528
48291SOL     OW46711  14.219  13.654  10.735
48291SOL    HW146712  14.183  13.565  10.730
48291SOL    HW246713  14.251  13.672  10.647
48292SOL     OW46714   5.927  14.702   6.388
48292SOL    HW146715   5.944  14.774   6.448
48292SOL    HW246716   5.916  14.625   6.444
48293SOL     OW46717  13.090   1.528  11.266
48293SOL    HW146718  13.136   1.487  11.339
48293SOL    HW246719  13.033   1.593  11.306
48294SOL     OW46720  11.204  14.457  13.478
48294SOL    HW146721  11.176  14.511  13.404
48294SOL    HW246722  11.123  14.437  13.525
48295SOL     OW46723  10.406  13.784   4.389
48295SOL    HW146724  10.391  13.727   4.464
48295SOL    HW246725  10.333  13.847   4.392
48296SOL     OW46726  12.059   5.811  12.341
48296SOL    HW146727  12.090   5.721  12.326
48296SOL    HW246728  11.993   5.802  12.410
48297SOL     OW46729   5.957   8.575   4.602
48297SOL    HW146730   5.872   8.537   4.583
48297SOL    HW246731   6.019   8.504   4.585
48298SOL     OW46732   4.819  12.997   8.551
48298SOL    HW146733   4.814  13.022   8.459
48298SOL    HW246734   4.912  12.999   8.572
48299SOL     OW46735   9.229   5.827  12.375
48299SOL    HW146736   9.230   5.817  12.471
48299SOL    HW246737   9.267   5.914  12.360
48300SOL     OW46738   5.633   8.538   4.296
48300SOL    HW146739   5.564   8.573   4.353
48300SOL    HW246740   5.688   8.613   4.276
48301SOL     OW46741  12.495   4.442  14.103
48301SOL    HW146742  12.490   4.533  14.134
48301SOL    HW246743  12.576   4.408  14.143
48302SOL     OW46744   8.176  11.336   7.237
48302SOL    HW146745   8.148  11.262   7.291
48302SOL    HW246746   8.178  11.301   7.148
48303SOL     OW46747   7.844   1.046   0.120
48303SOL    HW146748   7.839   0.984   0.048
48303SOL    HW246749   7.752   1.064   0.142
48304SOL     OW46750  10.943  10.593   5.343
48304SOL    HW146751  10.963  10.687   5.340
48304SOL    HW246752  10.960  10.562   5.254
48305SOL     OW46753  11.332   8.637   5.591
48305SOL    HW146754  11.303   8.579   5.661
48305SOL    HW246755  11.415   8.599   5.561
48306SOL     OW46756  10.970   8.888   9.525
48306SOL    HW146757  11.033   8.816   9.534
48306SOL    HW246758  11.024   8.967   9.525
48307SOL     OW46759   5.727   9.904   9.063
48307SOL    HW146760   5.760   9.909   9.153
48307SOL    HW246761   5.750   9.816   9.034
48308SOL     OW46762   5.614   3.725   4.700
48308SOL    HW146763   5.681   3.723   4.768
48308SOL    HW246764   5.648   3.787   4.635
48309SOL     OW46765  13.362   8.678   1.510
48309SOL    HW146766  13.279   8.692   1.465
48309SOL    HW246767  13.339   8.675   1.603
48310SOL     OW46768  11.603   3.450  13.737
48310SOL    HW146769  11.641   3.530  13.774
48310SOL    HW246770  11.509   3.457  13.756
48311SOL     OW46771  14.216  12.391   2.162
48311SOL    HW146772  14.238  12.414   2.252
48311SOL    HW246773  14.269  12.449   2.108
48312SOL     OW46774   2.122  11.678   3.036
48312SOL    HW146775   2.064  11.635   3.099
48312SOL    HW246776   2.126  11.618   2.962
48313SOL     OW46777   9.191   5.279   8.119
48313SOL    HW146778   9.184   5.234   8.034
48313SOL    HW246779   9.191   5.372   8.097
48314SOL     OW46780   8.237  14.357   4.726
48314SOL    HW146781   8.209  14.434   4.775
48314SOL    HW246782   8.252  14.290   4.793
48315SOL     OW46783  13.692  13.848  11.284
48315SOL    HW146784  13.700  13.943  11.290
48315SOL    HW246785  13.612  13.828  11.332
48316SOL     OW46786   6.110  13.833  12.728
48316SOL    HW146787   6.179  13.774  12.759
48316SOL    HW246788   6.130  13.848  12.636
48317SOL     OW46789  13.137   7.722   8.610
48317SOL    HW146790  13.106   7.806   8.644
48317SOL    HW246791  13.057   7.673   8.590
48318SOL     OW46792  11.509   3.057  10.751
48318SOL    HW146793  11.524   3.032  10.660
48318SOL    HW246794  11.428   3.011  10.776
48319SOL     OW46795   2.467   8.429  11.113
48319SOL    HW146796   2.385   8.467  11.081
48319SOL    HW246797   2.500   8.378  11.040
48320SOL     OW46798   1.724   6.319   2.398
48320SOL    HW146799   1.791   6.253   2.414
48320SOL    HW246800   1.737   6.345   2.306
48321SOL     OW46801   3.480   2.385  10.516
48321SOL    HW146802   3.482   2.460  10.575
48321SOL    HW246803   3.560   2.394  10.464
48322SOL     OW46804   5.418  12.499   7.545
48322SOL    HW146805   5.459  12.577   7.580
48322SOL    HW246806   5.438  12.430   7.609
48323SOL     OW46807   1.431   8.560   0.606
48323SOL    HW146808   1.422   8.536   0.698
48323SOL    HW246809   1.515   8.608   0.602
48324SOL     OW46810  14.682  14.303  12.972
48324SOL    HW146811  14.672  14.303  13.067
48324SOL    HW246812  14.709  14.392  12.950
48325SOL     OW46813   1.985   6.957   6.283
48325SOL    HW146814   1.972   6.880   6.337
48325SOL    HW246815   2.029   7.020   6.340
48326SOL     OW46816  14.060   2.428   0.221
48326SOL    HW146817  14.139   2.397   0.175
48326SOL    HW246818  14.052   2.519   0.195
48327SOL     OW46819   5.345   8.566   0.534
48327SOL    HW146820   5.268   8.522   0.497
48327SOL    HW246821   5.325   8.659   0.524
48328SOL     OW46822   4.035  14.726   9.395
48328SOL    HW146823   4.128  14.706   9.406
48328SOL    HW246824   4.023  14.810   9.439
48329SOL     OW46825  14.814  11.949   3.592
48329SOL    HW146826  14.876  11.878   3.609
48329SOL    HW246827  14.814  12.001   3.673
48330SOL     OW46828   2.997  14.588  14.271
48330SOL    HW146829   2.918  14.620  14.228
48330SOL    HW246830   3.064  14.589  14.203
48331SOL     OW46831   3.370   3.856   4.473
48331SOL    HW146832   3.353   3.950   4.471
48331SOL    HW246833   3.294   3.818   4.516
48332SOL     OW46834   0.456  14.492   2.698
48332SOL    HW146835   0.397  14.417   2.704
48332SOL    HW246836   0.408  14.557   2.646
48333SOL     OW46837   7.867   0.387   5.584
48333SOL    HW146838   7.872   0.361   5.676
48333SOL    HW246839   7.783   0.352   5.554
48334SOL     OW46840   1.261   4.905   4.395
48334SOL    HW146841   1.295   4.856   4.320
48334SOL    HW246842   1.270   4.845   4.469
48335SOL     OW46843   5.234  10.057  11.990
48335SOL    HW146844   5.269  10.038  12.077
48335SOL    HW246845   5.305  10.101  11.944
48336SOL     OW46846   5.247  10.404   1.942
48336SOL    HW146847   5.297  10.486   1.942
48336SOL    HW246848   5.208  10.400   2.029
48337SOL     OW46849   9.457   2.001   8.009
48337SOL    HW146850   9.425   1.965   8.092
48337SOL    HW246851   9.547   2.029   8.028
48338SOL     OW46852   1.297   5.526  12.161
48338SOL    HW146853   1.391   5.513  12.164
48338SOL    HW246854   1.264   5.448  12.115
48339SOL     OW46855  10.666   7.332  12.482
48339SOL    HW146856  10.755   7.323  12.448
48339SOL    HW246857  10.638   7.418  12.453
48340SOL     OW46858   1.124   4.079  14.802
48340SOL    HW146859   1.044   4.122  14.772
48340SOL    HW246860   1.192   4.146  14.794
48341SOL     OW46861   0.716   9.359   9.308
48341SOL    HW146862   0.652   9.363   9.379
48341SOL    HW246863   0.681   9.420   9.242
48342SOL     OW46864   0.346   4.908  10.974
48342SOL    HW146865   0.287   4.839  11.004
48342SOL    HW246866   0.298   4.951  10.903
48343SOL     OW46867   0.453  10.852  11.676
48343SOL    HW146868   0.364  10.883  11.693
48343SOL    HW246869   0.448  10.757  11.687
48344SOL     OW46870  11.548  14.848   1.172
48344SOL    HW146871  11.597   0.024   1.236
48344SOL    HW246872  11.458   0.001   1.182
48345SOL     OW46873   8.913   4.979   1.759
48345SOL    HW146874   8.817   4.970   1.762
48345SOL    HW246875   8.938   4.944   1.674
48346SOL     OW46876  11.295   0.438   0.208
48346SOL    HW146877  11.307   0.348   0.237
48346SOL    HW246878  11.383   0.475   0.205
48347SOL     OW46879   4.143  11.305   5.290
48347SOL    HW146880   4.060  11.348   5.309
48347SOL    HW246881   4.164  11.256   5.371
48348SOL     OW46882  11.739   6.924   5.494
48348SOL    HW146883  11.645   6.914   5.482
48348SOL    HW246884  11.773   6.834   5.490
48349SOL     OW46885  10.592   7.194   0.196
48349SOL    HW146886  10.634   7.178   0.111
48349SOL    HW246887  10.499   7.179   0.179
48350SOL     OW46888  12.496   1.111   6.142
48350SOL    HW146889  12.567   1.100   6.205
48350SOL    HW246890  12.492   1.027   6.096
48351SOL     OW46891  14.795   8.953   1.947
48351SOL    HW146892  14.846   9.014   1.894
48351SOL    HW246893  14.856   8.882   1.968
48352SOL     OW46894   3.609  13.265   9.816
48352SOL    HW146895   3.660  13.209   9.875
48352SOL    HW246896   3.557  13.204   9.763
48353SOL     OW46897   7.586   5.113  10.047
48353SOL    HW146898   7.504   5.156  10.023
48353SOL    HW246899   7.568   5.019  10.036
48354SOL     OW46900   4.967   4.706   6.488
48354SOL    HW146901   5.049   4.732   6.528
48354SOL    HW246902   4.979   4.613   6.467
48355SOL     OW46903   8.957  14.867  10.099
48355SOL    HW146904   8.902  14.857  10.021
48355SOL    HW246905   8.895  14.870  10.172
48356SOL     OW46906  12.206   7.178  10.557
48356SOL    HW146907  12.220   7.250  10.496
48356SOL    HW246908  12.115   7.154  10.545
48357SOL     OW46909   2.869   1.359   6.990
48357SOL    HW146910   2.847   1.451   7.005
48357SOL    HW246911   2.869   1.349   6.895
48358SOL     OW46912  12.861   8.097   2.983
48358SOL    HW146913  12.916   8.174   2.967
48358SOL    HW246914  12.917   8.038   3.033
48359SOL     OW46915   5.845   7.081   5.737
48359SOL    HW146916   5.877   7.020   5.804
48359SOL    HW246917   5.857   7.168   5.776
48360SOL     OW46918   6.904   7.677   5.545
48360SOL    HW146919   6.942   7.750   5.496
48360SOL    HW246920   6.953   7.600   5.515
48361SOL     OW46921   3.210   9.765   7.819
48361SOL    HW146922   3.171   9.681   7.844
48361SOL    HW246923   3.164   9.790   7.739
48362SOL     OW46924  13.795   6.343   8.652
48362SOL    HW146925  13.880   6.387   8.643
48362SOL    HW246926  13.772   6.356   8.744
48363SOL     OW46927  10.650   0.060  13.816
48363SOL    HW146928  10.701   0.139  13.795
48363SOL    HW246929  10.610   0.079  13.901
48364SOL     OW46930   6.379   1.008   4.752
48364SOL    HW146931   6.295   0.983   4.789
48364SOL    HW246932   6.366   1.098   4.721
48365SOL     OW46933  10.976   5.223  10.527
48365SOL    HW146934  11.002   5.279  10.600
48365SOL    HW246935  10.955   5.139  10.568
48366SOL     OW46936  10.836  11.517   0.378
48366SOL    HW146937  10.860  11.595   0.426
48366SOL    HW246938  10.919  11.483   0.344
48367SOL     OW46939   6.725   5.437   8.021
48367SOL    HW146940   6.746   5.423   7.929
48367SOL    HW246941   6.630   5.439   8.024
48368SOL     OW46942   0.645   6.675   9.677
48368SOL    HW146943   0.595   6.727   9.614
48368SOL    HW246944   0.722   6.728   9.696
48369SOL     OW46945   4.980   6.171   7.766
48369SOL    HW146946   4.992   6.244   7.706
48369SOL    HW246947   4.885   6.158   7.770
48370SOL     OW46948   9.983   5.998   5.757
48370SOL    HW146949  10.023   5.974   5.840
48370SOL    HW246950   9.899   5.953   5.756
48371SOL     OW46951   3.377   3.617   6.513
48371SOL    HW146952   3.304   3.556   6.501
48371SOL    HW246953   3.435   3.600   6.438
48372SOL     OW46954   9.719   2.309  14.358
48372SOL    HW146955   9.624   2.316  14.361
48372SOL    HW246956   9.748   2.390  14.316
48373SOL     OW46957   2.217   0.546  13.906
48373SOL    HW146958   2.181   0.630  13.878
48373SOL    HW246959   2.155   0.513  13.971
48374SOL     OW46960   9.603   8.735   1.387
48374SOL    HW146961   9.572   8.648   1.414
48374SOL    HW246962   9.689   8.718   1.347
48375SOL     OW46963   8.157   0.771   5.532
48375SOL    HW146964   8.158   0.804   5.442
48375SOL    HW246965   8.064   0.753   5.549
48376SOL     OW46966   8.379   1.072  13.969
48376SOL    HW146967   8.419   0.986  13.983
48376SOL    HW246968   8.286   1.054  13.956
48377SOL     OW46969   2.263   0.442   6.611
48377SOL    HW146970   2.319   0.415   6.538
48377SOL    HW246971   2.262   0.367   6.670
48378SOL     OW46972   4.565  11.350  13.242
48378SOL    HW146973   4.604  11.406  13.308
48378SOL    HW246974   4.517  11.410  13.185
48379SOL     OW46975  14.637   6.534   1.504
48379SOL    HW146976  14.689   6.610   1.479
48379SOL    HW246977  14.702   6.466   1.522
48380SOL     OW46978   2.900   1.654  13.926
48380SOL    HW146979   2.938   1.606  13.852
48380SOL    HW246980   2.822   1.605  13.950
48381SOL     OW46981  12.836   8.423  12.989
48381SOL    HW146982  12.753   8.464  12.966
48381SOL    HW246983  12.901   8.492  12.977
48382SOL     OW46984   6.434  11.961  14.542
48382SOL    HW146985   6.445  11.887  14.601
48382SOL    HW246986   6.516  12.010  14.549
48383SOL     OW46987   5.452  13.621  11.853
48383SOL    HW146988   5.409  13.688  11.800
48383SOL    HW246989   5.481  13.555  11.789
48384SOL     OW46990   3.789   1.470   5.639
48384SOL    HW146991   3.740   1.496   5.717
48384SOL    HW246992   3.880   1.490   5.660
48385SOL     OW46993  13.855   8.763   7.737
48385SOL    HW146994  13.898   8.726   7.814
48385SOL    HW246995  13.807   8.690   7.698
48386SOL     OW46996   8.681  12.445   1.632
48386SOL    HW146997   8.753  12.431   1.570
48386SOL    HW246998   8.603  12.452   1.577
48387SOL     OW46999   7.008   2.601   1.355
48387SOL    HW147000   6.951   2.675   1.374
48387SOL    HW247001   6.949   2.532   1.326
48388SOL     OW47002   6.578  11.925  10.053
48388SOL    HW147003   6.532  11.891  10.129
48388SOL    HW247004   6.646  11.861  10.035
48389SOL     OW47005  14.143  10.612  12.331
48389SOL    HW147006  14.226  10.652  12.305
48389SOL    HW247007  14.120  10.555  12.257
48390SOL     OW47008   7.552   9.956   8.016
48390SOL    HW147009   7.472   9.908   7.994
48390SOL    HW247010   7.623   9.897   7.991
48391SOL     OW47011  13.025  12.249   5.320
48391SOL    HW147012  12.958  12.278   5.381
48391SOL    HW247013  13.023  12.153   5.326
48392SOL     OW47014   1.307   5.497  13.917
48392SOL    HW147015   1.253   5.526  13.842
48392SOL    HW247016   1.387   5.549  13.910
48393SOL     OW47017  12.072  13.910   3.520
48393SOL    HW147018  12.144  13.931   3.461
48393SOL    HW247019  12.007  13.867   3.465
48394SOL     OW47020   9.052   3.327   0.457
48394SOL    HW147021   9.045   3.371   0.542
48394SOL    HW247022   9.012   3.241   0.472
48395SOL     OW47023  12.832   5.848  11.773
48395SOL    HW147024  12.915   5.849  11.726
48395SOL    HW247025  12.795   5.761  11.756
48396SOL     OW47026   1.890   6.048  14.316
48396SOL    HW147027   1.867   5.960  14.284
48396SOL    HW247028   1.816   6.074  14.371
48397SOL     OW47029   6.426   3.034  14.795
48397SOL    HW147030   6.457   3.123  14.779
48397SOL    HW247031   6.384   3.038   0.005
48398SOL     OW47032   6.700   5.300   1.782
48398SOL    HW147033   6.728   5.217   1.744
48398SOL    HW247034   6.665   5.350   1.709
48399SOL     OW47035   9.591   6.231  10.505
48399SOL    HW147036   9.580   6.311  10.557
48399SOL    HW247037   9.619   6.262  10.419
48400SOL     OW47038   4.666  12.930   6.851
48400SOL    HW147039   4.674  12.853   6.907
48400SOL    HW247040   4.730  12.992   6.886
48401SOL     OW47041   5.322  13.753   5.272
48401SOL    HW147042   5.302  13.816   5.203
48401SOL    HW247043   5.415  13.734   5.262
48402SOL     OW47044   7.528  12.591   0.546
48402SOL    HW147045   7.595  12.660   0.545
48402SOL    HW247046   7.472  12.610   0.471
48403SOL     OW47047  11.772   3.452   9.452
48403SOL    HW147048  11.833   3.459   9.526
48403SOL    HW247049  11.709   3.386   9.480
48404SOL     OW47050   4.838  14.572   1.604
48404SOL    HW147051   4.885  14.638   1.656
48404SOL    HW247052   4.758  14.617   1.576
48405SOL     OW47053   6.140  11.655  11.904
48405SOL    HW147054   6.070  11.630  11.844
48405SOL    HW247055   6.142  11.585  11.969
48406SOL     OW47056  14.274   1.543  13.337
48406SOL    HW147057  14.279   1.460  13.288
48406SOL    HW247058  14.214   1.525  13.409
48407SOL     OW47059   9.278  12.939  10.925
48407SOL    HW147060   9.186  12.921  10.906
48407SOL    HW247061   9.280  12.961  11.018
48408SOL     OW47062  11.838   0.689   5.657
48408SOL    HW147063  11.876   0.602   5.652
48408SOL    HW247064  11.743   0.675   5.647
48409SOL     OW47065  11.664   1.048   0.651
48409SOL    HW147066  11.741   1.028   0.597
48409SOL    HW247067  11.643   1.139   0.630
48410SOL     OW47068   0.250  11.416   3.058
48410SOL    HW147069   0.264  11.493   3.113
48410SOL    HW247070   0.235  11.345   3.120
48411SOL     OW47071   3.822  11.153  11.634
48411SOL    HW147072   3.850  11.167  11.724
48411SOL    HW247073   3.806  11.059  11.628
48412SOL     OW47074   6.916  13.565   2.705
48412SOL    HW147075   6.944  13.515   2.782
48412SOL    HW247076   6.938  13.509   2.631
48413SOL     OW47077   4.816   8.312  14.071
48413SOL    HW147078   4.830   8.298  13.978
48413SOL    HW247079   4.832   8.226  14.111
48414SOL     OW47080   2.970   7.657  14.200
48414SOL    HW147081   2.896   7.600  14.219
48414SOL    HW247082   2.997   7.632  14.112
48415SOL     OW47083   1.673   0.664   1.717
48415SOL    HW147084   1.668   0.748   1.670
48415SOL    HW247085   1.612   0.674   1.791
48416SOL     OW47086   3.467   3.429   0.188
48416SOL    HW147087   3.372   3.436   0.176
48416SOL    HW247088   3.504   3.456   0.104
48417SOL     OW47089  13.778   8.146  12.180
48417SOL    HW147090  13.764   8.223  12.235
48417SOL    HW247091  13.807   8.182  12.096
48418SOL     OW47092   3.088  10.392   6.459
48418SOL    HW147093   3.051  10.305   6.475
48418SOL    HW247094   3.159  10.400   6.523
48419SOL     OW47095  14.644  13.046  14.784
48419SOL    HW147096  14.608  13.007  14.863
48419SOL    HW247097  14.647  12.974  14.721
48420SOL     OW47098  11.397   7.657   2.630
48420SOL    HW147099  11.359   7.738   2.598
48420SOL    HW247100  11.389   7.596   2.556
48421SOL     OW47101   7.637   5.661   6.497
48421SOL    HW147102   7.610   5.639   6.407
48421SOL    HW247103   7.707   5.725   6.485
48422SOL     OW47104   1.255   5.256   9.473
48422SOL    HW147105   1.330   5.204   9.501
48422SOL    HW247106   1.264   5.339   9.521
48423SOL     OW47107   3.519   7.955   5.141
48423SOL    HW147108   3.574   8.032   5.123
48423SOL    HW247109   3.431   7.992   5.154
48424SOL     OW47110  13.634   4.725  13.083
48424SOL    HW147111  13.656   4.635  13.061
48424SOL    HW247112  13.540   4.732  13.066
48425SOL     OW47113   3.945   3.152   5.239
48425SOL    HW147114   4.013   3.141   5.172
48425SOL    HW247115   3.875   3.199   5.195
48426SOL     OW47116   2.353  12.372   2.848
48426SOL    HW147117   2.272  12.408   2.884
48426SOL    HW247118   2.371  12.426   2.770
48427SOL     OW47119  14.138   7.189   5.138
48427SOL    HW147120  14.130   7.267   5.192
48427SOL    HW247121  14.060   7.137   5.160
48428SOL     OW47122   9.709   9.889   2.489
48428SOL    HW147123   9.721   9.805   2.532
48428SOL    HW247124   9.618   9.912   2.506
48429SOL     OW47125   9.811  14.571  13.977
48429SOL    HW147126   9.722  14.544  13.952
48429SOL    HW247127   9.866  14.536  13.907
48430SOL     OW47128   4.634  13.510   8.048
48430SOL    HW147129   4.702  13.443   8.048
48430SOL    HW247130   4.575  13.485   7.976
48431SOL     OW47131   6.955   3.482   0.392
48431SOL    HW147132   7.039   3.484   0.346
48431SOL    HW247133   6.942   3.389   0.414
48432SOL     OW47134   3.499  13.660   7.033
48432SOL    HW147135   3.571  13.620   7.081
48432SOL    HW247136   3.422  13.643   7.087
48433SOL     OW47137   0.094  13.518   1.486
48433SOL    HW147138   0.024  13.527   1.551
48433SOL    HW247139   0.076  13.587   1.422
48434SOL     OW47140  13.065   8.603   5.648
48434SOL    HW147141  13.022   8.681   5.612
48434SOL    HW247142  13.000   8.533   5.636
48435SOL     OW47143  14.846  11.702  14.131
48435SOL    HW147144  14.781  11.648  14.176
48435SOL    HW247145   0.025  11.735  14.202
48436SOL     OW47146  12.986   4.284  14.764
48436SOL    HW147147  13.071   4.255  14.797
48436SOL    HW247148  12.923   4.232  14.815
48437SOL     OW47149   5.025   9.981   8.913
48437SOL    HW147150   4.932   9.973   8.933
48437SOL    HW247151   5.030   9.961   8.819
48438SOL     OW47152   5.124   4.856  11.209
48438SOL    HW147153   5.216   4.875  11.191
48438SOL    HW247154   5.109   4.769  11.172
48439SOL     OW47155   9.959   3.343   1.841
48439SOL    HW147156  10.039   3.301   1.809
48439SOL    HW247157   9.888   3.293   1.802
48440SOL     OW47158   0.725   0.105  11.117
48440SOL    HW147159   0.642   0.133  11.156
48440SOL    HW247160   0.792   0.137  11.177
48441SOL     OW47161  11.590   7.902   0.518
48441SOL    HW147162  11.598   7.934   0.609
48441SOL    HW247163  11.663   7.841   0.508
48442SOL     OW47164  11.875   6.901   1.560
48442SOL    HW147165  11.828   6.909   1.644
48442SOL    HW247166  11.858   6.983   1.515
48443SOL     OW47167   8.108   7.169   1.476
48443SOL    HW147168   8.138   7.089   1.431
48443SOL    HW247169   8.103   7.144   1.568
48444SOL     OW47170  10.951   8.914   1.793
48444SOL    HW147171  10.864   8.884   1.819
48444SOL    HW247172  10.943   9.010   1.790
48445SOL     OW47173   0.414   3.719   9.009
48445SOL    HW147174   0.497   3.734   8.965
48445SOL    HW247175   0.426   3.758   9.096
48446SOL     OW47176   4.025   0.813   3.392
48446SOL    HW147177   4.064   0.748   3.450
48446SOL    HW247178   3.931   0.791   3.391
48447SOL     OW47179   7.130   9.446   6.255
48447SOL    HW147180   7.173   9.521   6.295
48447SOL    HW247181   7.079   9.407   6.326
48448SOL     OW47182  14.519  13.906   1.135
48448SOL    HW147183  14.526  13.971   1.205
48448SOL    HW247184  14.440  13.857   1.155
48449SOL     OW47185  12.964   2.826  14.375
48449SOL    HW147186  13.009   2.898  14.333
48449SOL    HW247187  12.961   2.757  14.309
48450SOL     OW47188   0.022   3.725   2.850
48450SOL    HW147189   0.013   3.688   2.938
48450SOL    HW247190   0.085   3.668   2.806
48451SOL     OW47191   0.891   8.982  12.544
48451SOL    HW147192   0.963   8.975  12.606
48451SOL    HW247193   0.877   9.076  12.533
48452SOL     OW47194  14.482   8.499  11.859
48452SOL    HW147195  14.462   8.553  11.935
48452SOL    HW247196  14.422   8.425  11.865
48453SOL     OW47197  12.542  11.452   6.266
48453SOL    HW147198  12.480  11.526   6.263
48453SOL    HW247199  12.532  11.416   6.354
48454SOL     OW47200  14.238   1.555   0.935
48454SOL    HW147201  14.164   1.595   0.889
48454SOL    HW247202  14.258   1.478   0.883
48455SOL     OW47203   6.378   9.433   9.308
48455SOL    HW147204   6.365   9.495   9.236
48455SOL    HW247205   6.443   9.371   9.274
48456SOL     OW47206   1.832   8.864   9.696
48456SOL    HW147207   1.825   8.843   9.603
48456SOL    HW247208   1.862   8.955   9.697
48457SOL     OW47209   5.715   8.816   6.311
48457SOL    HW147210   5.710   8.829   6.406
48457SOL    HW247211   5.809   8.822   6.291
48458SOL     OW47212  14.259  11.382   3.152
48458SOL    HW147213  14.177  11.333   3.143
48458SOL    HW247214  14.325  11.328   3.108
48459SOL     OW47215  13.723   8.229   2.541
48459SOL    HW147216  13.654   8.259   2.482
48459SOL    HW247217  13.794   8.294   2.529
48460SOL     OW47218   9.949   9.691   7.322
48460SOL    HW147219   9.917   9.773   7.360
48460SOL    HW247220   9.878   9.629   7.337
48461SOL     OW47221   5.559   7.449   5.561
48461SOL    HW147222   5.543   7.455   5.656
48461SOL    HW247223   5.522   7.530   5.526
48462SOL     OW47224  12.480   2.116   4.031
48462SOL    HW147225  12.531   2.039   4.055
48462SOL    HW247226  12.491   2.177   4.104
48463SOL     OW47227   9.335  10.010  13.513
48463SOL    HW147228   9.316  10.052  13.429
48463SOL    HW247229   9.429  10.023  13.526
48464SOL     OW47230  10.789   4.640   6.219
48464SOL    HW147231  10.732   4.576   6.262
48464SOL    HW247232  10.730   4.688   6.161
48465SOL     OW47233  10.090   8.586   7.925
48465SOL    HW147234  10.132   8.619   8.004
48465SOL    HW247235  10.161   8.581   7.860
48466SOL     OW47236  11.919   3.246  13.190
48466SOL    HW147237  11.932   3.247  13.285
48466SOL    HW247238  11.877   3.329  13.170
48467SOL     OW47239   6.591   2.820   8.931
48467SOL    HW147240   6.668   2.779   8.971
48467SOL    HW247241   6.584   2.905   8.974
48468SOL     OW47242   0.067  12.389   4.840
48468SOL    HW147243   0.080  12.356   4.929
48468SOL    HW247244  14.851  12.412   4.836
48469SOL     OW47245   2.302  11.669   9.759
48469SOL    HW147246   2.307  11.600   9.692
48469SOL    HW247247   2.214  11.704   9.751
48470SOL     OW47248   5.798   9.225   9.877
48470SOL    HW147249   5.803   9.131   9.894
48470SOL    HW247250   5.885   9.257   9.900
48471SOL     OW47251  12.364  11.709   5.700
48471SOL    HW147252  12.275  11.699   5.665
48471SOL    HW247253  12.402  11.780   5.649
48472SOL     OW47254   0.368  10.388   6.781
48472SOL    HW147255   0.322  10.313   6.818
48472SOL    HW247256   0.347  10.460   6.841
48473SOL     OW47257  13.638   0.856   3.319
48473SOL    HW147258  13.732   0.866   3.303
48473SOL    HW247259  13.596   0.910   3.253
48474SOL     OW47260  10.215  12.222   6.548
48474SOL    HW147261  10.295  12.265   6.577
48474SOL    HW247262  10.148  12.253   6.609
48475SOL     OW47263   2.270   7.695  12.204
48475SOL    HW147264   2.237   7.621  12.152
48475SOL    HW247265   2.312   7.752  12.140
48476SOL     OW47266   0.798   2.375  10.291
48476SOL    HW147267   0.786   2.400  10.383
48476SOL    HW247268   0.869   2.432  10.261
48477SOL     OW47269  14.037  11.047   1.755
48477SOL    HW147270  13.986  11.013   1.682
48477SOL    HW247271  14.070  11.131   1.725
48478SOL     OW47272  12.776   8.943   7.805
48478SOL    HW147273  12.861   8.966   7.767
48478SOL    HW247274  12.782   8.974   7.896
48479SOL     OW47275   4.215  11.066  10.739
48479SOL    HW147276   4.172  11.095  10.659
48479SOL    HW247277   4.296  11.117  10.744
48480SOL     OW47278   9.412  11.924   5.217
48480SOL    HW147279   9.408  11.910   5.312
48480SOL    HW247280   9.441  11.840   5.182
48481SOL     OW47281   6.036   8.855   8.749
48481SOL    HW147282   6.029   8.774   8.798
48481SOL    HW247283   6.059   8.828   8.660
48482SOL     OW47284  12.252   5.651   7.516
48482SOL    HW147285  12.218   5.708   7.584
48482SOL    HW247286  12.300   5.709   7.457
48483SOL     OW47287   6.441  12.157  10.133
48483SOL    HW147288   6.499  12.227  10.105
48483SOL    HW247289   6.500  12.086  10.161
48484SOL     OW47290   9.106  10.547  14.163
48484SOL    HW147291   9.151  10.605  14.224
48484SOL    HW247292   9.014  10.570  14.171
48485SOL     OW47293   9.445  14.661  13.529
48485SOL    HW147294   9.453  14.566  13.519
48485SOL    HW247295   9.356  14.675  13.560
48486SOL     OW47296   9.769   4.284  14.134
48486SOL    HW147297   9.764   4.215  14.067
48486SOL    HW247298   9.847   4.334  14.111
48487SOL     OW47299  13.595  12.652   7.963
48487SOL    HW147300  13.501  12.661   7.975
48487SOL    HW247301  13.615  12.707   7.887
48488SOL     OW47302   1.515   5.663   4.002
48488SOL    HW147303   1.585   5.720   4.034
48488SOL    HW247304   1.536   5.576   4.038
48489SOL     OW47305   0.599   0.267  13.516
48489SOL    HW147306   0.590   0.248  13.609
48489SOL    HW247307   0.512   0.298  13.489
48490SOL     OW47308   9.901   2.686   5.551
48490SOL    HW147309   9.958   2.633   5.605
48490SOL    HW247310   9.918   2.657   5.461
48491SOL     OW47311   5.355   9.815  11.325
48491SOL    HW147312   5.302   9.762  11.385
48491SOL    HW247313   5.373   9.758  11.251
48492SOL     OW47314   3.671   0.463   2.976
48492SOL    HW147315   3.579   0.490   2.965
48492SOL    HW247316   3.698   0.435   2.889
48493SOL     OW47317   3.040   0.202   7.970
48493SOL    HW147318   2.990   0.263   8.024
48493SOL    HW247319   3.019   0.225   7.880
48494SOL     OW47320   8.303   2.728   5.971
48494SOL    HW147321   8.241   2.665   6.007
48494SOL    HW247322   8.247   2.795   5.931
48495SOL     OW47323   8.172   0.493  12.079
48495SOL    HW147324   8.171   0.450  12.164
48495SOL    HW247325   8.089   0.541  12.075
48496SOL     OW47326   4.997  13.838  12.375
48496SOL    HW147327   5.054  13.866  12.304
48496SOL    HW247328   5.026  13.749  12.396
48497SOL     OW47329  12.419   6.032  10.756
48497SOL    HW147330  12.405   6.127  10.745
48497SOL    HW247331  12.331   5.995  10.756
48498SOL     OW47332   5.269   1.570   7.428
48498SOL    HW147333   5.191   1.624   7.444
48498SOL    HW247334   5.285   1.526   7.511
48499SOL     OW47335   7.722   6.086  14.833
48499SOL    HW147336   7.626   6.087  14.828
48499SOL    HW247337   7.742   6.023   0.026
48500SOL     OW47338  10.989   9.592   7.573
48500SOL    HW147339  11.038   9.550   7.503
48500SOL    HW247340  10.949   9.669   7.533
48501SOL     OW47341   6.524  13.086   1.157
48501SOL    HW147342   6.505  13.075   1.064
48501SOL    HW247343   6.443  13.122   1.194
48502SOL     OW47344   0.207  14.346   4.765
48502SOL    HW147345   0.170  14.432   4.786
48502SOL    HW247346   0.287  14.366   4.717
48503SOL     OW47347  10.208   2.929  14.183
48503SOL    HW147348  10.294   2.915  14.223
48503SOL    HW247349  10.149   2.873  14.233
48504SOL     OW47350   8.938   7.438   1.639
48504SOL    HW147351   8.970   7.435   1.548
48504SOL    HW247352   8.935   7.346   1.666
48505SOL     OW47353  11.597   7.879   1.618
48505SOL    HW147354  11.524   7.853   1.562
48505SOL    HW247355  11.631   7.959   1.579
48506SOL     OW47356   1.035  11.926  12.217
48506SOL    HW147357   0.965  11.866  12.241
48506SOL    HW247358   1.108  11.903  12.275
48507SOL     OW47359   3.020   4.636   4.475
48507SOL    HW147360   2.986   4.556   4.435
48507SOL    HW247361   3.028   4.698   4.403
48508SOL     OW47362   7.701   1.329   0.184
48508SOL    HW147363   7.739   1.339   0.097
48508SOL    HW247364   7.608   1.317   0.168
48509SOL     OW47365   0.817   5.734   5.717
48509SOL    HW147366   0.792   5.662   5.659
48509SOL    HW247367   0.910   5.749   5.698
48510SOL     OW47368   4.273   0.844   3.253
48510SOL    HW147369   4.262   0.761   3.205
48510SOL    HW247370   4.184   0.866   3.281
48511SOL     OW47371   7.077   4.996   0.033
48511SOL    HW147372   7.059   5.079  14.865
48511SOL    HW247373   7.065   4.930  14.841
48512SOL     OW47374   5.413   4.593   7.791
48512SOL    HW147375   5.483   4.606   7.854
48512SOL    HW247376   5.371   4.679   7.784
48513SOL     OW47377   2.615   4.070   7.178
48513SOL    HW147378   2.686   4.128   7.152
48513SOL    HW247379   2.551   4.076   7.107
48514SOL     OW47380   5.228   0.527   8.001
48514SOL    HW147381   5.193   0.441   8.026
48514SOL    HW247382   5.202   0.537   7.909
48515SOL     OW47383  14.781  10.480  11.364
48515SOL    HW147384  14.733  10.420  11.306
48515SOL    HW247385  14.726  10.487  11.442
48516SOL     OW47386   6.885  12.506   4.266
48516SOL    HW147387   6.909  12.425   4.311
48516SOL    HW247388   6.870  12.569   4.336
48517SOL     OW47389   0.007   3.331   2.736
48517SOL    HW147390  14.800   3.299   2.701
48517SOL    HW247391   0.070   3.315   2.665
48518SOL     OW47392  13.058   3.099   1.517
48518SOL    HW147393  13.048   3.034   1.586
48518SOL    HW247394  13.133   3.068   1.466
48519SOL     OW47395   1.347  11.740   3.810
48519SOL    HW147396   1.389  11.691   3.881
48519SOL    HW247397   1.416  11.755   3.746
48520SOL     OW47398   2.410   2.589   9.066
48520SOL    HW147399   2.352   2.638   9.124
48520SOL    HW247400   2.430   2.509   9.115
48521SOL     OW47401   2.316  14.396   0.365
48521SOL    HW147402   2.292  14.330   0.430
48521SOL    HW247403   2.361  14.464   0.415
48522SOL     OW47404   3.356  12.079   0.177
48522SOL    HW147405   3.352  12.063   0.083
48522SOL    HW247406   3.381  12.171   0.184
48523SOL     OW47407  13.649  10.515   1.664
48523SOL    HW147408  13.554  10.513   1.678
48523SOL    HW247409  13.662  10.478   1.577
48524SOL     OW47410  13.003   2.725  11.583
48524SOL    HW147411  12.921   2.730  11.633
48524SOL    HW247412  13.056   2.661  11.631
48525SOL     OW47413   6.941   7.414   1.229
48525SOL    HW147414   6.867   7.361   1.260
48525SOL    HW247415   6.939   7.492   1.285
48526SOL     OW47416  11.861  14.760   8.353
48526SOL    HW147417  11.861  14.855   8.365
48526SOL    HW247418  11.852  14.748   8.258
48527SOL     OW47419  11.820   1.594   2.914
48527SOL    HW147420  11.745   1.639   2.878
48527SOL    HW247421  11.877   1.663   2.947
48528SOL     OW47422  10.126   7.256   9.792
48528SOL    HW147423  10.080   7.185   9.746
48528SOL    HW247424  10.113   7.236   9.885
48529SOL     OW47425  14.164   1.871   1.947
48529SOL    HW147426  14.254   1.886   1.918
48529SOL    HW247427  14.167   1.787   1.993
48530SOL     OW47428  11.669   3.961  11.220
48530SOL    HW147429  11.752   4.008  11.217
48530SOL    HW247430  11.686   3.888  11.281
48531SOL     OW47431   0.019  14.864   9.221
48531SOL    HW147432  14.856  14.780   9.197
48531SOL    HW247433   0.102  14.840   9.263
48532SOL     OW47434   1.312   3.014   3.363
48532SOL    HW147435   1.361   3.057   3.433
48532SOL    HW247436   1.291   2.928   3.399
48533SOL     OW47437   4.505  12.524   6.887
48533SOL    HW147438   4.539  12.453   6.832
48533SOL    HW247439   4.431  12.486   6.934
48534SOL     OW47440   0.918   0.849  12.746
48534SOL    HW147441   0.850   0.897  12.793
48534SOL    HW247442   0.873   0.811  12.671
48535SOL     OW47443  11.783   7.717  14.212
48535SOL    HW147444  11.769   7.810  14.233
48535SOL    HW247445  11.829   7.682  14.288
48536SOL     OW47446  13.983  13.836   0.365
48536SOL    HW147447  14.037  13.778   0.312
48536SOL    HW247448  13.909  13.859   0.308
48537SOL     OW47449  12.462   0.420  10.659
48537SOL    HW147450  12.481   0.340  10.707
48537SOL    HW247451  12.416   0.390  10.580
48538SOL     OW47452  11.502  13.357  12.094
48538SOL    HW147453  11.528  13.274  12.054
48538SOL    HW247454  11.583  13.393  12.131
48539SOL     OW47455   8.368   0.710  13.021
48539SOL    HW147456   8.312   0.639  12.992
48539SOL    HW247457   8.412   0.677  13.099
48540SOL     OW47458   7.281   1.815   4.489
48540SOL    HW147459   7.223   1.766   4.547
48540SOL    HW247460   7.338   1.865   4.548
48541SOL     OW47461   1.284   4.761   8.437
48541SOL    HW147462   1.367   4.738   8.480
48541SOL    HW247463   1.284   4.857   8.437
48542SOL     OW47464  13.294   0.439   3.815
48542SOL    HW147465  13.318   0.354   3.851
48542SOL    HW247466  13.320   0.434   3.723
48543SOL     OW47467   4.799   4.454  13.759
48543SOL    HW147468   4.877   4.451  13.814
48543SOL    HW247469   4.733   4.407  13.809
48544SOL     OW47470   9.368   5.474  12.604
48544SOL    HW147471   9.331   5.468  12.692
48544SOL    HW247472   9.414   5.390  12.592
48545SOL     OW47473   1.760   7.638   7.261
48545SOL    HW147474   1.685   7.696   7.278
48545SOL    HW247475   1.815   7.646   7.338
48546SOL     OW47476  13.087   6.193  11.662
48546SOL    HW147477  13.154   6.261  11.654
48546SOL    HW247478  13.035   6.220  11.738
48547SOL     OW47479   2.188   4.290   8.323
48547SOL    HW147480   2.202   4.321   8.233
48547SOL    HW247481   2.254   4.338   8.374
48548SOL     OW47482   8.917  13.091   8.165
48548SOL    HW147483   8.936  13.074   8.258
48548SOL    HW247484   8.912  13.186   8.159
48549SOL     OW47485  13.908   5.553  11.874
48549SOL    HW147486  13.919   5.460  11.893
48549SOL    HW247487  13.813   5.566  11.867
48550SOL     OW47488   7.979  11.924   7.723
48550SOL    HW147489   7.989  11.836   7.760
48550SOL    HW247490   8.061  11.968   7.745
48551SOL     OW47491   7.779   2.268  11.590
48551SOL    HW147492   7.846   2.205  11.617
48551SOL    HW247493   7.811   2.304  11.508
48552SOL     OW47494   0.681   3.779  12.468
48552SOL    HW147495   0.595   3.760  12.506
48552SOL    HW247496   0.682   3.874  12.456
48553SOL     OW47497   1.534  12.764  14.696
48553SOL    HW147498   1.555  12.725  14.611
48553SOL    HW247499   1.614  12.753  14.748
48554SOL     OW47500   1.899   9.077  12.707
48554SOL    HW147501   1.943   9.103  12.627
48554SOL    HW247502   1.947   9.000  12.738
48555SOL     OW47503  10.033   8.381   0.525
48555SOL    HW147504   9.970   8.319   0.489
48555SOL    HW247505  10.000   8.467   0.498
48556SOL     OW47506  11.556  13.269   3.676
48556SOL    HW147507  11.572  13.351   3.628
48556SOL    HW247508  11.483  13.289   3.734
48557SOL     OW47509  12.587   0.953  10.163
48557SOL    HW147510  12.623   0.869  10.137
48557SOL    HW247511  12.624   0.969  10.250
48558SOL     OW47512   3.075   1.484   7.363
48558SOL    HW147513   2.992   1.436   7.367
48558SOL    HW247514   3.056   1.560   7.308
48559SOL     OW47515   3.096  12.459  11.094
48559SOL    HW147516   3.160  12.508  11.043
48559SOL    HW247517   3.142  12.437  11.175
48560SOL     OW47518   6.852   4.290   8.265
48560SOL    HW147519   6.921   4.284   8.200
48560SOL    HW247520   6.896   4.276   8.349
48561SOL     OW47521  12.112   7.031   0.758
48561SOL    HW147522  12.132   7.121   0.784
48561SOL    HW247523  12.192   6.999   0.716
48562SOL     OW47524   0.423   7.890  14.734
48562SOL    HW147525   0.417   7.893  14.830
48562SOL    HW247526   0.415   7.797  14.712
48563SOL     OW47527   9.542  10.134   8.629
48563SOL    HW147528   9.517  10.122   8.538
48563SOL    HW247529   9.524  10.050   8.671
48564SOL     OW47530   5.197  14.626   2.002
48564SOL    HW147531   5.207  14.679   1.923
48564SOL    HW247532   5.113  14.582   1.990
48565SOL     OW47533  10.193   2.254   8.641
48565SOL    HW147534  10.206   2.320   8.573
48565SOL    HW247535  10.211   2.300   8.723
48566SOL     OW47536   2.047  11.823  11.027
48566SOL    HW147537   2.055  11.881  10.951
48566SOL    HW247538   1.956  11.794  11.026
48567SOL     OW47539   2.074   0.088  12.960
48567SOL    HW147540   2.093   0.006  13.005
48567SOL    HW247541   1.984   0.109  12.985
48568SOL     OW47542   9.403  10.637   2.732
48568SOL    HW147543   9.479  10.585   2.760
48568SOL    HW247544   9.402  10.628   2.637
48569SOL     OW47545   8.314   7.501  13.320
48569SOL    HW147546   8.397   7.480  13.278
48569SOL    HW247547   8.256   7.527  13.248
48570SOL     OW47548   7.825  13.936  10.614
48570SOL    HW147549   7.795  13.942  10.705
48570SOL    HW247550   7.916  13.965  10.618
48571SOL     OW47551  10.169  11.144  12.861
48571SOL    HW147552  10.108  11.215  12.881
48571SOL    HW247553  10.238  11.152  12.926
48572SOL     OW47554   9.467   3.288   2.852
48572SOL    HW147555   9.377   3.270   2.824
48572SOL    HW247556   9.458   3.354   2.920
48573SOL     OW47557  12.460  10.897   2.504
48573SOL    HW147558  12.483  10.990   2.499
48573SOL    HW247559  12.419  10.887   2.590
48574SOL     OW47560  12.166   3.125   6.570
48574SOL    HW147561  12.231   3.183   6.528
48574SOL    HW247562  12.216   3.075   6.634
48575SOL     OW47563  13.994  14.189  11.331
48575SOL    HW147564  14.080  14.227  11.347
48575SOL    HW247565  13.957  14.242  11.260
48576SOL     OW47566   2.552   7.699  10.881
48576SOL    HW147567   2.466   7.683  10.842
48576SOL    HW247568   2.567   7.624  10.938
48577SOL     OW47569  12.684  12.987   1.386
48577SOL    HW147570  12.727  13.072   1.392
48577SOL    HW247571  12.756  12.923   1.387
48578SOL     OW47572  12.994   7.305  11.571
48578SOL    HW147573  13.060   7.278  11.507
48578SOL    HW247574  12.933   7.231  11.574
48579SOL     OW47575  13.102   4.825   6.804
48579SOL    HW147576  13.009   4.833   6.781
48579SOL    HW247577  13.148   4.840   6.722
48580SOL     OW47578   9.768   6.265   2.902
48580SOL    HW147579   9.796   6.354   2.878
48580SOL    HW247580   9.708   6.278   2.975
48581SOL     OW47581  11.774   0.555   4.776
48581SOL    HW147582  11.760   0.487   4.843
48581SOL    HW247583  11.696   0.610   4.781
48582SOL     OW47584   1.771   2.599   9.254
48582SOL    HW147585   1.808   2.579   9.340
48582SOL    HW247586   1.813   2.681   9.228
48583SOL     OW47587   6.950   4.440   3.756
48583SOL    HW147588   6.902   4.390   3.822
48583SOL    HW247589   6.886   4.504   3.724
48584SOL     OW47590   8.227   5.452   2.188
48584SOL    HW147591   8.146   5.503   2.195
48584SOL    HW247592   8.266   5.458   2.275
48585SOL     OW47593  10.106  11.645   0.110
48585SOL    HW147594  10.163  11.716   0.081
48585SOL    HW247595  10.021  11.686   0.125
48586SOL     OW47596  12.390   1.239   1.710
48586SOL    HW147597  12.330   1.234   1.636
48586SOL    HW247598  12.380   1.328   1.744
48587SOL     OW47599   0.903   5.385  13.020
48587SOL    HW147600   0.970   5.410  13.083
48587SOL    HW247601   0.924   5.294  12.999
48588SOL     OW47602   1.383  11.123  12.602
48588SOL    HW147603   1.416  11.168  12.679
48588SOL    HW247604   1.290  11.145  12.599
48589SOL     OW47605  11.462   2.888  11.754
48589SOL    HW147606  11.394   2.827  11.723
48589SOL    HW247607  11.414   2.968  11.776
48590SOL     OW47608  12.380   9.132   3.882
48590SOL    HW147609  12.366   9.227   3.886
48590SOL    HW247610  12.462   9.118   3.929
48591SOL     OW47611   4.421   4.619   8.669
48591SOL    HW147612   4.358   4.687   8.694
48591SOL    HW247613   4.432   4.567   8.749
48592SOL     OW47614   1.493  13.757  14.423
48592SOL    HW147615   1.547  13.736  14.347
48592SOL    HW247616   1.552  13.802  14.483
48593SOL     OW47617   2.815   9.628   4.703
48593SOL    HW147618   2.902   9.660   4.726
48593SOL    HW247619   2.767   9.707   4.678
48594SOL     OW47620   2.572  13.984   0.792
48594SOL    HW147621   2.568  14.058   0.730
48594SOL    HW247622   2.650  13.935   0.765
48595SOL     OW47623   6.809   4.647   3.639
48595SOL    HW147624   6.763   4.693   3.709
48595SOL    HW247625   6.847   4.716   3.586
48596SOL     OW47626   5.320   5.644  10.774
48596SOL    HW147627   5.305   5.709  10.843
48596SOL    HW247628   5.314   5.694  10.692
48597SOL     OW47629  11.841  11.835  14.306
48597SOL    HW147630  11.898  11.823  14.230
48597SOL    HW247631  11.774  11.896  14.277
48598SOL     OW47632   6.846  11.849  11.339
48598SOL    HW147633   6.823  11.810  11.255
48598SOL    HW247634   6.847  11.943  11.322
48599SOL     OW47635  10.345   9.022  10.121
48599SOL    HW147636  10.341   9.114  10.147
48599SOL    HW247637  10.437   9.008  10.097
48600SOL     OW47638   5.182   1.324   5.347
48600SOL    HW147639   5.267   1.359   5.318
48600SOL    HW247640   5.117   1.383   5.309
48601SOL     OW47641  10.079   3.684   3.544
48601SOL    HW147642  10.137   3.608   3.556
48601SOL    HW247643  10.128   3.741   3.485
48602SOL     OW47644   3.350   6.368  12.539
48602SOL    HW147645   3.348   6.435  12.471
48602SOL    HW247646   3.304   6.408  12.613
48603SOL     OW47647  12.008   7.585   7.838
48603SOL    HW147648  12.000   7.673   7.803
48603SOL    HW247649  12.004   7.528   7.761
48604SOL     OW47650  10.348   7.757   4.354
48604SOL    HW147651  10.436   7.742   4.320
48604SOL    HW247652  10.335   7.851   4.348
48605SOL     OW47653  10.074  11.553   7.415
48605SOL    HW147654  10.007  11.551   7.484
48605SOL    HW247655  10.084  11.462   7.389
48606SOL     OW47656   5.870   4.371   2.609
48606SOL    HW147657   5.939   4.375   2.543
48606SOL    HW247658   5.791   4.348   2.560
48607SOL     OW47659  14.825   2.903  12.563
48607SOL    HW147660  14.863   2.816  12.573
48607SOL    HW247661  14.791   2.905  12.474
48608SOL     OW47662  13.627   5.555  11.919
48608SOL    HW147663  13.598   5.608  11.844
48608SOL    HW247664  13.580   5.593  11.993
48609SOL     OW47665   7.338  14.836  11.896
48609SOL    HW147666   7.331  14.743  11.917
48609SOL    HW247667   7.388  14.873  11.969
48610SOL     OW47668  10.897  14.216   8.978
48610SOL    HW147669  10.805  14.236   8.996
48610SOL    HW247670  10.895  14.157   8.903
48611SOL     OW47671  12.791   4.437  11.271
48611SOL    HW147672  12.822   4.367  11.328
48611SOL    HW247673  12.696   4.441  11.286
48612SOL     OW47674   2.765  14.216   0.504
48612SOL    HW147675   2.806  14.302   0.507
48612SOL    HW247676   2.749  14.200   0.410
48613SOL     OW47677  13.846   1.396   3.057
48613SOL    HW147678  13.852   1.490   3.072
48613SOL    HW247679  13.752   1.377   3.057
48614SOL     OW47680   9.072  14.407   8.582
48614SOL    HW147681   9.056  14.341   8.650
48614SOL    HW247682   9.103  14.483   8.631
48615SOL     OW47683  14.752   0.358   9.305
48615SOL    HW147684  14.780   0.294   9.371
48615SOL    HW247685  14.661   0.333   9.286
48616SOL     OW47686   4.314   4.464   6.003
48616SOL    HW147687   4.257   4.431   6.073
48616SOL    HW247688   4.397   4.484   6.047
48617SOL     OW47689  14.452   0.260   5.438
48617SOL    HW147690  14.427   0.196   5.505
48617SOL    HW247691  14.537   0.293   5.466
48618SOL     OW47692  13.196   6.134  12.807
48618SOL    HW147693  13.213   6.204  12.745
48618SOL    HW247694  13.185   6.056  12.753
48619SOL     OW47695   5.142   8.854   1.852
48619SOL    HW147696   5.102   8.825   1.934
48619SOL    HW247697   5.235   8.834   1.863
48620SOL     OW47698   3.164   8.657   7.862
48620SOL    HW147699   3.147   8.580   7.807
48620SOL    HW247700   3.249   8.641   7.901
48621SOL     OW47701  14.444   3.029   5.163
48621SOL    HW147702  14.436   2.934   5.156
48621SOL    HW247703  14.397   3.063   5.087
48622SOL     OW47704   9.613  11.332   8.380
48622SOL    HW147705   9.613  11.416   8.333
48622SOL    HW247706   9.681  11.343   8.447
48623SOL     OW47707  13.982  12.149   5.745
48623SOL    HW147708  13.916  12.097   5.698
48623SOL    HW247709  13.978  12.236   5.705
48624SOL     OW47710   3.892  11.165   1.290
48624SOL    HW147711   3.951  11.090   1.302
48624SOL    HW247712   3.949  11.241   1.283
48625SOL     OW47713   3.909  12.554  10.229
48625SOL    HW147714   3.836  12.575  10.287
48625SOL    HW247715   3.982  12.607  10.261
48626SOL     OW47716   1.919  12.175  13.577
48626SOL    HW147717   1.826  12.162  13.596
48626SOL    HW247718   1.957  12.199  13.662
48627SOL     OW47719  14.054  12.625   8.186
48627SOL    HW147720  14.044  12.718   8.165
48627SOL    HW247721  13.971  12.586   8.159
48628SOL     OW47722  11.688   4.922   3.947
48628SOL    HW147723  11.768   4.972   3.965
48628SOL    HW247724  11.709   4.870   3.870
48629SOL     OW47725  14.698   6.566   7.348
48629SOL    HW147726  14.716   6.601   7.261
48629SOL    HW247727  14.614   6.606   7.373
48630SOL     OW47728  11.724   7.776   9.782
48630SOL    HW147729  11.749   7.804   9.694
48630SOL    HW247730  11.629   7.782   9.783
48631SOL     OW47731   5.078  12.880   5.265
48631SOL    HW147732   5.118  12.887   5.352
48631SOL    HW247733   5.045  12.790   5.261
48632SOL     OW47734  14.708   7.715   5.964
48632SOL    HW147735  14.713   7.789   5.904
48632SOL    HW247736  14.652   7.651   5.919
48633SOL     OW47737   1.909   6.570  12.859
48633SOL    HW147738   1.828   6.522  12.841
48633SOL    HW247739   1.970   6.539  12.793
48634SOL     OW47740  13.863   9.891  12.262
48634SOL    HW147741  13.911   9.852  12.335
48634SOL    HW247742  13.773   9.861  12.275
48635SOL     OW47743  13.486   3.042   9.794
48635SOL    HW147744  13.573   3.074   9.771
48635SOL    HW247745  13.449   3.111   9.849
48636SOL     OW47746   1.010   1.260   4.722
48636SOL    HW147747   1.044   1.264   4.632
48636SOL    HW247748   1.081   1.294   4.776
48637SOL     OW47749   6.568   9.841  13.239
48637SOL    HW147750   6.607   9.760  13.271
48637SOL    HW247751   6.492   9.855  13.296
48638SOL     OW47752   6.309   0.591   5.295
48638SOL    HW147753   6.238   0.550   5.345
48638SOL    HW247754   6.368   0.518   5.274
48639SOL     OW47755   2.799   9.645   5.866
48639SOL    HW147756   2.711   9.615   5.889
48639SOL    HW247757   2.797   9.658   5.771
48640SOL     OW47758   6.611   9.245  14.387
48640SOL    HW147759   6.521   9.213  14.382
48640SOL    HW247760   6.621   9.300  14.310
48641SOL     OW47761  11.989   7.285  12.835
48641SOL    HW147762  12.062   7.280  12.897
48641SOL    HW247763  12.031   7.299  12.750
48642SOL     OW47764   8.940  13.769  11.408
48642SOL    HW147765   9.029  13.798  11.429
48642SOL    HW247766   8.933  13.682  11.448
48643SOL     OW47767   5.694  14.810  10.816
48643SOL    HW147768   5.634  14.788  10.887
48643SOL    HW247769   5.771  14.756  10.833
48644SOL     OW47770   9.907   5.499   3.925
48644SOL    HW147771   9.953   5.582   3.912
48644SOL    HW247772   9.845   5.494   3.852
48645SOL     OW47773   5.606   7.795   8.980
48645SOL    HW147774   5.602   7.789   9.075
48645SOL    HW247775   5.661   7.722   8.953
48646SOL     OW47776  14.760   8.543  14.702
48646SOL    HW147777  14.724   8.603  14.768
48646SOL    HW247778  14.716   8.568  14.621
48647SOL     OW47779   7.820   2.652   8.214
48647SOL    HW147780   7.864   2.737   8.215
48647SOL    HW247781   7.868   2.599   8.277
48648SOL     OW47782  14.091   1.218  10.425
48648SOL    HW147783  14.173   1.249  10.463
48648SOL    HW247784  14.055   1.293  10.379
48649SOL     OW47785   1.789   9.719   0.953
48649SOL    HW147786   1.704   9.696   0.916
48649SOL    HW247787   1.831   9.634   0.969
48650SOL     OW47788  12.274   5.797   9.810
48650SOL    HW147789  12.197   5.751   9.776
48650SOL    HW247790  12.346   5.767   9.754
48651SOL     OW47791  12.103   6.904   1.009
48651SOL    HW147792  12.098   6.899   0.914
48651SOL    HW247793  12.197   6.911   1.028
48652SOL     OW47794   3.778   9.598   3.607
48652SOL    HW147795   3.714   9.652   3.559
48652SOL    HW247796   3.863   9.630   3.577
48653SOL     OW47797  14.744  11.188   7.137
48653SOL    HW147798  14.819  11.149   7.182
48653SOL    HW247799  14.700  11.239   7.205
48654SOL     OW47800   7.167   6.128   7.002
48654SOL    HW147801   7.115   6.103   7.079
48654SOL    HW247802   7.104   6.127   6.930
48655SOL     OW47803  14.314  14.690   4.048
48655SOL    HW147804  14.358  14.772   4.026
48655SOL    HW247805  14.297  14.648   3.964
48656SOL     OW47806   2.864   0.635  11.071
48656SOL    HW147807   2.808   0.663  10.999
48656SOL    HW247808   2.814   0.655  11.150
48657SOL     OW47809  14.479   0.329   0.891
48657SOL    HW147810  14.466   0.252   0.836
48657SOL    HW247811  14.414   0.391   0.860
48658SOL     OW47812  10.244   3.841  14.744
48658SOL    HW147813  10.219   3.767  14.689
48658SOL    HW247814  10.225   3.918  14.691
48659SOL     OW47815   8.134  14.289   2.243
48659SOL    HW147816   8.191  14.282   2.320
48659SOL    HW247817   8.050  14.256   2.272
48660SOL     OW47818   8.899   8.941   7.324
48660SOL    HW147819   8.928   9.006   7.388
48660SOL    HW247820   8.960   8.948   7.252
48661SOL     OW47821  11.240   8.887   0.637
48661SOL    HW147822  11.209   8.797   0.630
48661SOL    HW247823  11.290   8.903   0.557
48662SOL     OW47824   8.222   4.600   4.893
48662SOL    HW147825   8.145   4.545   4.910
48662SOL    HW247826   8.257   4.619   4.980
48663SOL     OW47827  10.273   0.329   8.233
48663SOL    HW147828  10.243   0.402   8.287
48663SOL    HW247829  10.305   0.370   8.153
48664SOL     OW47830   2.666  12.337   4.335
48664SOL    HW147831   2.617  12.396   4.278
48664SOL    HW247832   2.685  12.390   4.413
48665SOL     OW47833   5.295   0.277  14.684
48665SOL    HW147834   5.355   0.237  14.621
48665SOL    HW247835   5.208   0.263  14.646
48666SOL     OW47836  10.937  12.235  11.722
48666SOL    HW147837  10.979  12.207  11.804
48666SOL    HW247838  10.950  12.330  11.720
48667SOL     OW47839   8.899   8.981   5.687
48667SOL    HW147840   8.971   8.937   5.732
48667SOL    HW247841   8.856   9.034   5.754
48668SOL     OW47842   7.855   9.321   2.185
48668SOL    HW147843   7.949   9.327   2.200
48668SOL    HW247844   7.816   9.338   2.271
48669SOL     OW47845  14.579  12.142   5.656
48669SOL    HW147846  14.607  12.054   5.680
48669SOL    HW247847  14.505  12.160   5.714
48670SOL     OW47848   0.961   8.050   6.191
48670SOL    HW147849   0.885   8.082   6.239
48670SOL    HW247850   1.033   8.057   6.254
48671SOL     OW47851   4.853  10.563  11.233
48671SOL    HW147852   4.904  10.639  11.207
48671SOL    HW247853   4.769  10.573  11.188
48672SOL     OW47854   8.182   8.079  14.278
48672SOL    HW147855   8.226   8.059  14.361
48672SOL    HW247856   8.250   8.122  14.226
48673SOL     OW47857   7.975  11.106   7.046
48673SOL    HW147858   7.914  11.176   7.065
48673SOL    HW247859   7.962  11.042   7.117
48674SOL     OW47860  14.557  10.039  13.447
48674SOL    HW147861  14.589  10.092  13.374
48674SOL    HW247862  14.625  10.047  13.514
48675SOL     OW47863  10.615  10.851   5.126
48675SOL    HW147864  10.585  10.926   5.075
48675SOL    HW247865  10.703  10.833   5.093
48676SOL     OW47866   0.091   2.375  14.821
48676SOL    HW147867   0.075   2.415  14.736
48676SOL    HW247868   0.022   2.310  14.831
48677SOL     OW47869  13.140   4.730   3.478
48677SOL    HW147870  13.087   4.728   3.558
48677SOL    HW247871  13.161   4.638   3.461
48678SOL     OW47872   6.640  14.755  11.202
48678SOL    HW147873   6.623  14.820  11.134
48678SOL    HW247874   6.553  14.727  11.231
48679SOL     OW47875   9.875   1.118   1.770
48679SOL    HW147876   9.782   1.109   1.793
48679SOL    HW247877   9.877   1.192   1.709
48680SOL     OW47878   9.178   1.976  13.073
48680SOL    HW147879   9.238   1.935  13.012
48680SOL    HW247880   9.190   2.070  13.059
48681SOL     OW47881   7.910  12.045   1.622
48681SOL    HW147882   7.999  12.071   1.645
48681SOL    HW247883   7.916  12.018   1.530
48682SOL     OW47884   2.738   8.997   6.019
48682SOL    HW147885   2.804   9.041   5.966
48682SOL    HW247886   2.661   8.993   5.962
48683SOL     OW47887   0.445  10.010   7.694
48683SOL    HW147888   0.426   9.927   7.650
48683SOL    HW247889   0.457   9.986   7.786
48684SOL     OW47890  14.208   9.120  10.417
48684SOL    HW147891  14.206   9.186  10.486
48684SOL    HW247892  14.127   9.134  10.368
48685SOL     OW47893   0.653   5.067   0.661
48685SOL    HW147894   0.571   5.114   0.650
48685SOL    HW247895   0.631   4.991   0.715
48686SOL     OW47896   8.725  12.752  12.769
48686SOL    HW147897   8.653  12.704  12.811
48686SOL    HW247898   8.684  12.832  12.736
48687SOL     OW47899   3.733   6.751   1.160
48687SOL    HW147900   3.675   6.675   1.163
48687SOL    HW247901   3.734   6.784   1.250
48688SOL     OW47902  11.951   0.206   2.652
48688SOL    HW147903  11.938   0.177   2.742
48688SOL    HW247904  11.899   0.146   2.599
48689SOL     OW47905  12.438   4.019   5.670
48689SOL    HW147906  12.375   3.975   5.612
48689SOL    HW247907  12.396   4.103   5.691
48690SOL     OW47908   5.305   1.133   4.793
48690SOL    HW147909   5.373   1.163   4.733
48690SOL    HW247910   5.224   1.172   4.759
48691SOL     OW47911   1.229   6.397   6.664
48691SOL    HW147912   1.178   6.348   6.599
48691SOL    HW247913   1.317   6.399   6.628
48692SOL     OW47914  10.992   4.256   9.660
48692SOL    HW147915  11.028   4.188   9.716
48692SOL    HW247916  11.065   4.315   9.642
48693SOL     OW47917   7.861  10.233   9.553
48693SOL    HW147918   7.906  10.253   9.635
48693SOL    HW247919   7.815  10.313   9.530
48694SOL     OW47920   5.143  10.471   8.628
48694SOL    HW147921   5.170  10.395   8.679
48694SOL    HW247922   5.219  10.492   8.575
48695SOL     OW47923  12.331   0.127   3.946
48695SOL    HW147924  12.303   0.164   3.863
48695SOL    HW247925  12.416   0.087   3.928
48696SOL     OW47926  10.480  11.244   5.148
48696SOL    HW147927  10.416  11.279   5.210
48696SOL    HW247928  10.435  11.170   5.107
48697SOL     OW47929   1.910   9.636   7.279
48697SOL    HW147930   1.936   9.544   7.288
48697SOL    HW247931   1.860   9.639   7.197
48698SOL     OW47932  11.928   2.761   6.112
48698SOL    HW147933  11.929   2.708   6.192
48698SOL    HW247934  11.843   2.805   6.113
48699SOL     OW47935   0.353   5.773  12.714
48699SOL    HW147936   0.367   5.817  12.798
48699SOL    HW247937   0.390   5.686  12.725
48700SOL     OW47938   8.090  11.985  11.918
48700SOL    HW147939   8.138  11.984  11.835
48700SOL    HW247940   8.156  11.964  11.984
48701SOL     OW47941   2.435   6.626   2.186
48701SOL    HW147942   2.501   6.613   2.118
48701SOL    HW247943   2.438   6.720   2.205
48702SOL     OW47944  11.442   3.901   8.290
48702SOL    HW147945  11.461   3.975   8.347
48702SOL    HW247946  11.524   3.851   8.285
48703SOL     OW47947   1.901   1.270   4.428
48703SOL    HW147948   1.969   1.264   4.494
48703SOL    HW247949   1.847   1.345   4.456
48704SOL     OW47950   8.145   1.125   4.694
48704SOL    HW147951   8.227   1.080   4.672
48704SOL    HW247952   8.136   1.192   4.626
48705SOL     OW47953   6.406   5.945   6.401
48705SOL    HW147954   6.333   5.954   6.340
48705SOL    HW247955   6.403   5.854   6.429
48706SOL     OW47956   8.999   2.364   9.656
48706SOL    HW147957   9.074   2.307   9.641
48706SOL    HW247958   9.035   2.452   9.660
48707SOL     OW47959   8.717   4.908   6.493
48707SOL    HW147960   8.771   4.966   6.440
48707SOL    HW247961   8.627   4.935   6.473
48708SOL     OW47962   7.812   7.299   5.991
48708SOL    HW147963   7.888   7.310   6.047
48708SOL    HW247964   7.746   7.358   6.029
48709SOL     OW47965   2.504   7.742   0.218
48709SOL    HW147966   2.563   7.760   0.145
48709SOL    HW247967   2.425   7.708   0.177
48710SOL     OW47968  12.550   2.298   2.782
48710SOL    HW147969  12.609   2.288   2.857
48710SOL    HW247970  12.604   2.336   2.713
48711SOL     OW47971  10.058   5.742   7.760
48711SOL    HW147972  10.138   5.695   7.737
48711SOL    HW247973  10.029   5.783   7.679
48712SOL     OW47974  12.076  14.469   9.662
48712SOL    HW147975  12.071  14.530   9.735
48712SOL    HW247976  12.006  14.496   9.603
48713SOL     OW47977   4.770   8.915   4.236
48713SOL    HW147978   4.678   8.914   4.260
48713SOL    HW247979   4.799   8.824   4.244
48714SOL     OW47980   3.469  13.369  12.936
48714SOL    HW147981   3.461  13.283  12.978
48714SOL    HW247982   3.507  13.351  12.850
48715SOL     OW47983   3.757   5.304   1.421
48715SOL    HW147984   3.786   5.230   1.474
48715SOL    HW247985   3.757   5.271   1.331
48716SOL     OW47986   0.068   9.708  12.358
48716SOL    HW147987   0.162   9.690  12.368
48716SOL    HW247988   0.063   9.803  12.346
48717SOL     OW47989   6.054   4.399   3.744
48717SOL    HW147990   6.080   4.344   3.819
48717SOL    HW247991   6.127   4.391   3.683
48718SOL     OW47992   3.186   2.023   9.891
48718SOL    HW147993   3.094   2.030   9.864
48718SOL    HW247994   3.209   1.931   9.874
48719SOL     OW47995   4.716   7.124  14.266
48719SOL    HW147996   4.745   7.205  14.307
48719SOL    HW247997   4.708   7.062  14.339
48720SOL     OW47998   0.804  10.718   9.360
48720SOL    HW147999   0.709  10.722   9.368
48720SOL    HW248000   0.835  10.796   9.406
48721SOL     OW48001   5.750  10.017  10.744
48721SOL    HW148002   5.770   9.958  10.672
48721SOL    HW248003   5.828  10.014  10.800
48722SOL     OW48004   2.239  12.912  14.040
48722SOL    HW148005   2.236  12.833  14.095
48722SOL    HW248006   2.311  12.963  14.076
48723SOL     OW48007   4.378  12.332   0.074
48723SOL    HW148008   4.384  12.331   0.170
48723SOL    HW248009   4.292  12.295   0.055
48724SOL     OW48010   5.563  13.291   0.328
48724SOL    HW148011   5.494  13.233   0.361
48724SOL    HW248012   5.521  13.340   0.257
48725SOL     OW48013   7.964  10.687   6.484
48725SOL    HW148014   7.925  10.680   6.571
48725SOL    HW248015   8.058  10.699   6.501
48726SOL     OW48016   6.298  11.123  11.946
48726SOL    HW148017   6.377  11.070  11.952
48726SOL    HW248018   6.264  11.126  12.036
48727SOL     OW48019   2.989  14.759   8.948
48727SOL    HW148020   2.966  14.729   9.036
48727SOL    HW248021   3.080  14.733   8.936
48728SOL     OW48022  12.528  11.758   7.863
48728SOL    HW148023  12.498  11.847   7.844
48728SOL    HW248024  12.488  11.703   7.796
48729SOL     OW48025   4.813  12.022  11.511
48729SOL    HW148026   4.879  12.061  11.454
48729SOL    HW248027   4.744  12.088  11.517
48730SOL     OW48028   0.618  11.691  12.660
48730SOL    HW148029   0.550  11.715  12.597
48730SOL    HW248030   0.570  11.654  12.734
48731SOL     OW48031   9.470  10.220   9.394
48731SOL    HW148032   9.473  10.315   9.377
48731SOL    HW248033   9.376  10.200   9.395
48732SOL     OW48034   6.237  13.185  13.498
48732SOL    HW148035   6.187  13.197  13.578
48732SOL    HW248036   6.231  13.269  13.453
48733SOL     OW48037   9.564   2.386  12.078
48733SOL    HW148038   9.515   2.311  12.112
48733SOL    HW248039   9.633   2.347  12.024
48734SOL     OW48040  14.457   0.526   5.330
48734SOL    HW148041  14.487   0.436   5.320
48734SOL    HW248042  14.378   0.519   5.384
48735SOL     OW48043  10.119   6.052  14.285
48735SOL    HW148044  10.026   6.033  14.301
48735SOL    HW248045  10.156   6.063  14.372
48736SOL     OW48046   0.846   4.334   7.121
48736SOL    HW148047   0.789   4.376   7.057
48736SOL    HW248048   0.888   4.262   7.074
48737SOL     OW48049  11.377   5.756  14.297
48737SOL    HW148050  11.432   5.794  14.365
48737SOL    HW248051  11.304   5.818  14.288
48738SOL     OW48052   0.505   2.141   6.581
48738SOL    HW148053   0.409   2.144   6.585
48738SOL    HW248054   0.529   2.075   6.646
48739SOL     OW48055   7.823   0.678   5.887
48739SOL    HW148056   7.737   0.643   5.912
48739SOL    HW248057   7.885   0.611   5.915
48740SOL     OW48058   0.090   6.757   3.219
48740SOL    HW148059   0.090   6.830   3.281
48740SOL    HW248060   0.180   6.754   3.186
48741SOL     OW48061   9.228   0.305  14.225
48741SOL    HW148062   9.283   0.331  14.299
48741SOL    HW248063   9.199   0.216  14.247
48742SOL     OW48064   1.026   6.939   0.537
48742SOL    HW148065   1.097   6.947   0.474
48742SOL    HW248066   0.983   7.024   0.536
48743SOL     OW48067   4.430  14.587  10.835
48743SOL    HW148068   4.518  14.578  10.871
48743SOL    HW248069   4.421  14.680  10.815
48744SOL     OW48070  11.390  10.624   3.420
48744SOL    HW148071  11.375  10.637   3.326
48744SOL    HW248072  11.474  10.666   3.437
48745SOL     OW48073   4.746   9.790   6.764
48745SOL    HW148074   4.719   9.816   6.676
48745SOL    HW248075   4.799   9.863   6.796
48746SOL     OW48076   5.546   9.095  11.647
48746SOL    HW148077   5.473   9.060  11.697
48746SOL    HW248078   5.529   9.067  11.557
48747SOL     OW48079  12.790   2.188  12.044
48747SOL    HW148080  12.781   2.283  12.043
48747SOL    HW248081  12.871   2.171  12.092
48748SOL     OW48082  12.181  10.749  10.914
48748SOL    HW148083  12.209  10.664  10.948
48748SOL    HW248084  12.086  10.745  10.915
48749SOL     OW48085   3.900  13.288   9.445
48749SOL    HW148086   3.900  13.346   9.521
48749SOL    HW248087   3.845  13.331   9.381
48750SOL     OW48088   2.895  11.983   7.093
48750SOL    HW148089   2.950  11.940   7.027
48750SOL    HW248090   2.815  12.007   7.047
48751SOL     OW48091  11.652  10.503   1.912
48751SOL    HW148092  11.713  10.461   1.973
48751SOL    HW248093  11.705  10.522   1.835
48752SOL     OW48094   0.811   4.147   0.798
48752SOL    HW148095   0.891   4.184   0.760
48752SOL    HW248096   0.745   4.155   0.728
48753SOL     OW48097   9.976   4.701  10.429
48753SOL    HW148098   9.988   4.787  10.389
48753SOL    HW248099   9.958   4.643  10.355
48754SOL     OW48100  10.536   6.462   0.428
48754SOL    HW148101  10.556   6.368   0.418
48754SOL    HW248102  10.593   6.491   0.499
48755SOL     OW48103   9.971   7.912  13.444
48755SOL    HW148104   9.950   7.996  13.485
48755SOL    HW248105  10.050   7.930  13.392
48756SOL     OW48106  11.560  12.599   1.373
48756SOL    HW148107  11.636  12.545   1.395
48756SOL    HW248108  11.523  12.625   1.457
48757SOL     OW48109  14.060   1.531   0.631
48757SOL    HW148110  14.028   1.443   0.654
48757SOL    HW248111  14.088   1.522   0.540
48758SOL     OW48112   8.676   3.767   7.684
48758SOL    HW148113   8.594   3.732   7.650
48758SOL    HW248114   8.721   3.691   7.720
48759SOL     OW48115   2.561   7.122   6.470
48759SOL    HW148116   2.491   7.129   6.535
48759SOL    HW248117   2.606   7.040   6.490
48760SOL     OW48118   7.678  11.715  14.780
48760SOL    HW148119   7.727  11.688  14.703
48760SOL    HW248120   7.600  11.759  14.745
48761SOL     OW48121  10.039  11.759   6.573
48761SOL    HW148122  10.128  11.785   6.597
48761SOL    HW248123   9.987  11.838   6.585
48762SOL     OW48124   6.762   4.223  12.351
48762SOL    HW148125   6.828   4.155  12.365
48762SOL    HW248126   6.697   4.181  12.294
48763SOL     OW48127   1.994   3.564   5.465
48763SOL    HW148128   2.037   3.537   5.384
48763SOL    HW248129   1.972   3.482   5.509
48764SOL     OW48130   7.928   9.149   6.343
48764SOL    HW148131   7.934   9.067   6.392
48764SOL    HW248132   7.943   9.124   6.252
48765SOL     OW48133  10.953  13.659   9.966
48765SOL    HW148134  10.986  13.726  10.026
48765SOL    HW248135  11.030  13.627   9.920
48766SOL     OW48136  13.735   0.784   8.834
48766SOL    HW148137  13.644   0.805   8.811
48766SOL    HW248138  13.742   0.806   8.927
48767SOL     OW48139   4.858   8.143  14.780
48767SOL    HW148140   4.828   8.052  14.781
48767SOL    HW248141   4.787   8.192  14.821
48768SOL     OW48142   3.437  13.889  14.599
48768SOL    HW148143   3.392  13.921  14.521
48768SOL    HW248144   3.528  13.913  14.586
48769SOL     OW48145  13.119   7.227   3.360
48769SOL    HW148146  13.061   7.151   3.357
48769SOL    HW248147  13.133   7.250   3.268
48770SOL     OW48148  10.588   4.657   2.467
48770SOL    HW148149  10.604   4.565   2.487
48770SOL    HW248150  10.555   4.694   2.549
48771SOL     OW48151   8.477   9.385   5.490
48771SOL    HW148152   8.538   9.335   5.435
48771SOL    HW248153   8.532   9.426   5.557
48772SOL     OW48154   5.734   0.865   7.070
48772SOL    HW148155   5.729   0.873   7.165
48772SOL    HW248156   5.702   0.949   7.037
48773SOL     OW48157  10.450   3.026   2.245
48773SOL    HW148158  10.521   3.089   2.252
48773SOL    HW248159  10.415   3.018   2.334
48774SOL     OW48160   8.274   6.556   5.646
48774SOL    HW148161   8.188   6.533   5.610
48774SOL    HW248162   8.305   6.628   5.590
48775SOL     OW48163  12.562   2.044  12.972
48775SOL    HW148164  12.567   2.052  12.877
48775SOL    HW248165  12.511   1.964  12.987
48776SOL     OW48166  13.673   3.742   1.989
48776SOL    HW148167  13.697   3.773   1.901
48776SOL    HW248168  13.600   3.683   1.973
48777SOL     OW48169   3.841   1.601   8.613
48777SOL    HW148170   3.862   1.538   8.545
48777SOL    HW248171   3.747   1.617   8.604
48778SOL     OW48172   7.171   8.797  11.891
48778SOL    HW148173   7.198   8.872  11.943
48778SOL    HW248174   7.241   8.785  11.827
48779SOL     OW48175   5.684   1.852   9.920
48779SOL    HW148176   5.640   1.789   9.863
48779SOL    HW248177   5.623   1.863   9.994
48780SOL     OW48178   8.700   4.739   8.753
48780SOL    HW148179   8.771   4.753   8.815
48780SOL    HW248180   8.622   4.727   8.808
48781SOL     OW48181   3.380   1.808   8.964
48781SOL    HW148182   3.357   1.802   9.056
48781SOL    HW248183   3.378   1.717   8.932
48782SOL     OW48184   1.189  14.085  14.183
48782SOL    HW148185   1.133  14.007  14.187
48782SOL    HW248186   1.246  14.069  14.108
48783SOL     OW48187  11.764  11.601  13.408
48783SOL    HW148188  11.728  11.684  13.438
48783SOL    HW248189  11.733  11.537  13.472
48784SOL     OW48190  13.750   6.381   6.636
48784SOL    HW148191  13.762   6.343   6.723
48784SOL    HW248192  13.683   6.448   6.647
48785SOL     OW48193  10.356   4.843   1.000
48785SOL    HW148194  10.413   4.907   1.043
48785SOL    HW248195  10.270   4.858   1.038
48786SOL     OW48196   2.255   1.259  11.227
48786SOL    HW148197   2.268   1.305  11.310
48786SOL    HW248198   2.171   1.292  11.194
48787SOL     OW48199   7.048   4.333   3.528
48787SOL    HW148200   6.995   4.254   3.518
48787SOL    HW248201   7.019   4.371   3.611
48788SOL     OW48202   5.998   5.263   0.584
48788SOL    HW148203   6.051   5.184   0.578
48788SOL    HW248204   5.909   5.234   0.570
48789SOL     OW48205   1.722  11.935   5.310
48789SOL    HW148206   1.763  11.885   5.380
48789SOL    HW248207   1.777  12.013   5.301
48790SOL     OW48208  11.396   0.034   3.616
48790SOL    HW148209  11.433  14.823   3.604
48790SOL    HW248210  11.395   0.047   3.711
48791SOL     OW48211  11.156   7.479   0.263
48791SOL    HW148212  11.243   7.450   0.289
48791SOL    HW248213  11.155   7.572   0.283
48792SOL     OW48214   7.212  10.531  12.975
48792SOL    HW148215   7.240  10.502  12.888
48792SOL    HW248216   7.293  10.554  13.020
48793SOL     OW48217   1.073   7.721   8.377
48793SOL    HW148218   0.994   7.716   8.430
48793SOL    HW248219   1.045   7.761   8.295
48794SOL     OW48220   5.083   5.930   3.620
48794SOL    HW148221   5.121   5.983   3.551
48794SOL    HW248222   5.014   5.985   3.658
48795SOL     OW48223   0.050   8.159  13.913
48795SOL    HW148224   0.133   8.113  13.899
48795SOL    HW248225   0.074   8.251  13.919
48796SOL     OW48226   2.128  12.418   9.418
48796SOL    HW148227   2.073  12.340   9.410
48796SOL    HW248228   2.162  12.433   9.330
48797SOL     OW48229   0.843   1.868  12.661
48797SOL    HW148230   0.760   1.912  12.679
48797SOL    HW248231   0.841   1.849  12.567
48798SOL     OW48232  14.494  14.786   6.951
48798SOL    HW148233  14.561  14.845   6.915
48798SOL    HW248234  14.414  14.809   6.903
48799SOL     OW48235   9.732  13.349   9.981
48799SOL    HW148236   9.779  13.375   9.902
48799SOL    HW248237   9.659  13.295   9.949
48800SOL     OW48238   9.858   1.194   4.417
48800SOL    HW148239   9.783   1.226   4.367
48800SOL    HW248240   9.922   1.168   4.351
48801SOL     OW48241   5.763   3.060   7.954
48801SOL    HW148242   5.784   2.969   7.973
48801SOL    HW248243   5.710   3.088   8.029
48802SOL     OW48244  10.465   0.736  14.637
48802SOL    HW148245  10.450   0.826  14.664
48802SOL    HW248246  10.383   0.709  14.596
48803SOL     OW48247   6.924  12.314  12.423
48803SOL    HW148248   6.887  12.359  12.499
48803SOL    HW248249   7.018  12.313  12.439
48804SOL     OW48250   2.493  11.490  13.187
48804SOL    HW148251   2.434  11.535  13.248
48804SOL    HW248252   2.502  11.402  13.223
48805SOL     OW48253   3.667   5.566   4.892
48805SOL    HW148254   3.732   5.635   4.880
48805SOL    HW248255   3.663   5.552   4.987
48806SOL     OW48256   9.521  10.219  11.646
48806SOL    HW148257   9.594  10.248  11.701
48806SOL    HW248258   9.464  10.172  11.707
48807SOL     OW48259   2.811  10.319   2.348
48807SOL    HW148260   2.787  10.412   2.344
48807SOL    HW248261   2.899  10.315   2.310
48808SOL     OW48262  11.162   1.976   6.856
48808SOL    HW148263  11.171   1.989   6.951
48808SOL    HW248264  11.249   1.949   6.828
48809SOL     OW48265   6.591   0.155   6.612
48809SOL    HW148266   6.677   0.191   6.588
48809SOL    HW248267   6.528   0.207   6.562
48810SOL     OW48268   3.705   8.406  14.612
48810SOL    HW148269   3.657   8.380  14.534
48810SOL    HW248270   3.659   8.363  14.684
48811SOL     OW48271   0.910  13.587  13.891
48811SOL    HW148272   0.913  13.498  13.857
48811SOL    HW248273   0.945  13.580  13.979
48812SOL     OW48274  11.253  13.550  10.126
48812SOL    HW148275  11.216  13.491  10.192
48812SOL    HW248276  11.212  13.523  10.044
48813SOL     OW48277  11.499  13.507   1.118
48813SOL    HW148278  11.423  13.500   1.059
48813SOL    HW248279  11.479  13.581   1.174
48814SOL     OW48280   8.138   1.143   7.855
48814SOL    HW148281   8.098   1.188   7.930
48814SOL    HW248282   8.100   1.186   7.779
48815SOL     OW48283  12.319   4.538   1.249
48815SOL    HW148284  12.344   4.584   1.168
48815SOL    HW248285  12.282   4.607   1.304
48816SOL     OW48286   0.216  10.881   0.675
48816SOL    HW148287   0.215  10.815   0.605
48816SOL    HW248288   0.124  10.892   0.699
48817SOL     OW48289   7.862  12.470   3.710
48817SOL    HW148290   7.869  12.428   3.796
48817SOL    HW248291   7.774  12.506   3.707
48818SOL     OW48292   6.236   9.984   4.632
48818SOL    HW148293   6.209   9.986   4.540
48818SOL    HW248294   6.298   9.912   4.638
48819SOL     OW48295   5.384   8.365   3.588
48819SOL    HW148296   5.430   8.415   3.656
48819SOL    HW248297   5.358   8.284   3.631
48820SOL     OW48298  14.707   6.819   8.822
48820SOL    HW148299  14.749   6.895   8.782
48820SOL    HW248300  14.780   6.767   8.856
48821SOL     OW48301   2.281   8.890   6.747
48821SOL    HW148302   2.313   8.824   6.686
48821SOL    HW248303   2.314   8.973   6.713
48822SOL     OW48304  12.856   6.317   0.817
48822SOL    HW148305  12.924   6.382   0.802
48822SOL    HW248306  12.813   6.307   0.732
48823SOL     OW48307   6.028   9.833   3.726
48823SOL    HW148308   6.012   9.742   3.752
48823SOL    HW248309   6.043   9.828   3.632
48824SOL     OW48310  14.669   2.817  14.390
48824SOL    HW148311  14.715   2.778  14.315
48824SOL    HW248312  14.583   2.842  14.356
48825SOL     OW48313   7.559  13.883   3.848
48825SOL    HW148314   7.629  13.860   3.909
48825SOL    HW248315   7.535  13.801   3.806
48826SOL     OW48316   1.262   5.967   6.383
48826SOL    HW148317   1.234   5.941   6.470
48826SOL    HW248318   1.258   5.887   6.331
48827SOL     OW48319   5.474   5.382  14.225
48827SOL    HW148320   5.540   5.450  14.224
48827SOL    HW248321   5.481   5.343  14.312
48828SOL     OW48322   6.259  10.496   5.497
48828SOL    HW148323   6.276  10.518   5.405
48828SOL    HW248324   6.321  10.547   5.547
48829SOL     OW48325  13.059   9.129   5.982
48829SOL    HW148326  12.979   9.149   5.935
48829SOL    HW248327  13.125   9.185   5.942
48830SOL     OW48328   6.084  12.377   7.464
48830SOL    HW148329   6.078  12.468   7.437
48830SOL    HW248330   6.068  12.327   7.384
48831SOL     OW48331  10.523   9.194  14.872
48831SOL    HW148332  10.523   9.130  14.800
48831SOL    HW248333  10.522   9.141   0.075
48832SOL     OW48334   6.596  11.320   6.622
48832SOL    HW148335   6.672  11.268   6.648
48832SOL    HW248336   6.631  11.383   6.559
48833SOL     OW48337  10.410   0.769   2.306
48833SOL    HW148338  10.371   0.774   2.218
48833SOL    HW248339  10.343   0.805   2.364
48834SOL     OW48340   8.591  11.679   9.655
48834SOL    HW148341   8.646  11.720   9.722
48834SOL    HW248342   8.649  11.667   9.580
48835SOL     OW48343   1.544  14.326   9.008
48835SOL    HW148344   1.503  14.255   9.058
48835SOL    HW248345   1.470  14.371   8.967
48836SOL     OW48346   8.016  14.002   2.933
48836SOL    HW148347   7.955  14.068   2.901
48836SOL    HW248348   8.102  14.044   2.925
48837SOL     OW48349   2.441   0.190   6.983
48837SOL    HW148350   2.525   0.168   7.021
48837SOL    HW248351   2.450   0.168   6.890
48838SOL     OW48352  10.902   8.188  10.032
48838SOL    HW148353  10.836   8.172  10.099
48838SOL    HW248354  10.855   8.233   9.962
48839SOL     OW48355   6.295   8.256   8.149
48839SOL    HW148356   6.302   8.258   8.244
48839SOL    HW248357   6.223   8.315   8.128
48840SOL     OW48358   6.287   4.320  12.509
48840SOL    HW148359   6.218   4.378  12.542
48840SOL    HW248360   6.338   4.298  12.587
48841SOL     OW48361   5.585   4.864   0.712
48841SOL    HW148362   5.534   4.789   0.742
48841SOL    HW248363   5.590   4.921   0.790
48842SOL     OW48364  14.505   9.577  14.024
48842SOL    HW148365  14.600   9.590  14.027
48842SOL    HW248366  14.470   9.660  13.991
48843SOL     OW48367   5.018   4.855  14.182
48843SOL    HW148368   5.112   4.860  14.202
48843SOL    HW248369   5.015   4.823  14.091
48844SOL     OW48370  11.122   5.391  13.253
48844SOL    HW148371  11.135   5.401  13.159
48844SOL    HW248372  11.157   5.471  13.291
48845SOL     OW48373   0.434  13.823   0.734
48845SOL    HW148374   0.398  13.734   0.741
48845SOL    HW248375   0.525  13.809   0.706
48846SOL     OW48376   5.008   5.623  12.136
48846SOL    HW148377   4.984   5.532  12.154
48846SOL    HW248378   4.998   5.667  12.221
48847SOL     OW48379  12.046   7.526   5.995
48847SOL    HW148380  12.085   7.489   6.074
48847SOL    HW248381  11.952   7.521   6.009
48848SOL     OW48382   6.023   7.095  14.381
48848SOL    HW148383   6.056   7.016  14.424
48848SOL    HW248384   5.929   7.083  14.376
48849SOL     OW48385   5.398  10.147   4.636
48849SOL    HW148386   5.340  10.218   4.663
48849SOL    HW248387   5.463  10.189   4.580
48850SOL     OW48388   3.998   2.838  10.161
48850SOL    HW148389   3.940   2.869  10.231
48850SOL    HW248390   3.995   2.907  10.095
48851SOL     OW48391   3.981   0.305   9.628
48851SOL    HW148392   3.937   0.389   9.636
48851SOL    HW248393   3.992   0.275   9.718
48852SOL     OW48394   8.386  12.285   6.208
48852SOL    HW148395   8.460  12.229   6.185
48852SOL    HW248396   8.393  12.360   6.149
48853SOL     OW48397  11.517  14.063   1.312
48853SOL    HW148398  11.539  14.041   1.221
48853SOL    HW248399  11.591  14.117   1.342
48854SOL     OW48400   1.959  11.099   3.713
48854SOL    HW148401   1.962  11.155   3.636
48854SOL    HW248402   1.952  11.010   3.679
48855SOL     OW48403  10.032   7.375  14.558
48855SOL    HW148404  10.056   7.421  14.638
48855SOL    HW248405  10.096   7.305  14.551
48856SOL     OW48406   7.573  14.244  10.571
48856SOL    HW148407   7.551  14.328  10.530
48856SOL    HW248408   7.493  14.192  10.564
48857SOL     OW48409   7.069   5.989   6.546
48857SOL    HW148410   7.093   5.898   6.559
48857SOL    HW248411   7.143   6.027   6.498
48858SOL     OW48412   7.184   0.522   0.512
48858SOL    HW148413   7.205   0.613   0.533
48858SOL    HW248414   7.122   0.495   0.580
48859SOL     OW48415  10.437   0.329   0.588
48859SOL    HW148416  10.366   0.380   0.550
48859SOL    HW248417  10.409   0.238   0.579
48860SOL     OW48418   9.418   6.966   8.720
48860SOL    HW148419   9.406   6.895   8.783
48860SOL    HW248420   9.347   7.028   8.740
48861SOL     OW48421   1.568   0.410   0.243
48861SOL    HW148422   1.616   0.471   0.299
48861SOL    HW248423   1.570   0.327   0.292
48862SOL     OW48424  11.673  11.522   8.492
48862SOL    HW148425  11.760  11.489   8.470
48862SOL    HW248426  11.636  11.457   8.551
48863SOL     OW48427   8.298   8.193   9.419
48863SOL    HW148428   8.352   8.262   9.457
48863SOL    HW248429   8.360   8.128   9.387
48864SOL     OW48430  13.399   3.876   9.378
48864SOL    HW148431  13.306   3.861   9.364
48864SOL    HW248432  13.416   3.962   9.339
48865SOL     OW48433   9.794   1.015  14.254
48865SOL    HW148434   9.831   0.983  14.336
48865SOL    HW248435   9.865   1.063  14.212
48866SOL     OW48436   8.959   2.744  11.966
48866SOL    HW148437   8.982   2.777  11.880
48866SOL    HW248438   9.028   2.681  11.988
48867SOL     OW48439   0.946   9.487   4.271
48867SOL    HW148440   0.909   9.409   4.312
48867SOL    HW248441   0.874   9.523   4.219
48868SOL     OW48442   0.820  12.377   3.553
48868SOL    HW148443   0.735  12.360   3.512
48868SOL    HW248444   0.854  12.454   3.508
48869SOL     OW48445   4.296   9.052   4.816
48869SOL    HW148446   4.231   9.013   4.875
48869SOL    HW248447   4.366   9.082   4.874
48870SOL     OW48448   0.164   1.074  14.539
48870SOL    HW148449   0.225   1.028  14.482
48870SOL    HW248450   0.215   1.146  14.576
48871SOL     OW48451   5.987   0.255   3.146
48871SOL    HW148452   6.053   0.235   3.079
48871SOL    HW248453   5.919   0.303   3.098
48872SOL     OW48454   2.841   4.266   8.658
48872SOL    HW148455   2.859   4.352   8.622
48872SOL    HW248456   2.800   4.218   8.586
48873SOL     OW48457   5.580   6.787   3.843
48873SOL    HW148458   5.572   6.881   3.825
48873SOL    HW248459   5.576   6.781   3.939
48874SOL     OW48460  14.225   9.369   9.284
48874SOL    HW148461  14.208   9.462   9.267
48874SOL    HW248462  14.257   9.335   9.201
48875SOL     OW48463  12.172   5.096  14.817
48875SOL    HW148464  12.176   5.003  14.840
48875SOL    HW248465  12.263   5.122  14.805
48876SOL     OW48466  11.743   9.381   7.647
48876SOL    HW148467  11.716   9.463   7.606
48876SOL    HW248468  11.822   9.405   7.697
48877SOL     OW48469  14.482  13.788  12.453
48877SOL    HW148470  14.509  13.739  12.375
48877SOL    HW248471  14.438  13.723  12.508
48878SOL     OW48472   7.032   5.621   7.809
48878SOL    HW148473   7.005   5.713   7.801
48878SOL    HW248474   7.041   5.607   7.903
48879SOL     OW48475  14.369  14.826  11.028
48879SOL    HW148476  14.400   0.038  11.008
48879SOL    HW248477  14.414  14.802  11.109
48880SOL     OW48478  11.195   1.476  14.556
48880SOL    HW148479  11.244   1.395  14.567
48880SOL    HW248480  11.256   1.545  14.583
48881SOL     OW48481  11.419   4.756   3.881
48881SOL    HW148482  11.487   4.758   3.813
48881SOL    HW248483  11.463   4.789   3.960
48882SOL     OW48484   1.359   8.215   2.521
48882SOL    HW148485   1.428   8.156   2.488
48882SOL    HW248486   1.311   8.242   2.443
48883SOL     OW48487   6.090   1.360   3.576
48883SOL    HW148488   6.091   1.264   3.572
48883SOL    HW248489   6.041   1.387   3.499
48884SOL     OW48490   0.258   9.891  14.186
48884SOL    HW148491   0.232   9.981  14.169
48884SOL    HW248492   0.215   9.869  14.269
48885SOL     OW48493   2.415   7.332   6.304
48885SOL    HW148494   2.460   7.289   6.377
48885SOL    HW248495   2.363   7.401   6.346
48886SOL     OW48496  11.160  11.264   1.311
48886SOL    HW148497  11.215  11.234   1.239
48886SOL    HW248498  11.071  11.239   1.285
48887SOL     OW48499   9.979   8.510  11.184
48887SOL    HW148500  10.043   8.581  11.178
48887SOL    HW248501   9.904   8.549  11.229
48888SOL     OW48502  12.925   5.808   4.954
48888SOL    HW148503  12.991   5.846   5.012
48888SOL    HW248504  12.937   5.854   4.871
48889SOL     OW48505   3.349  14.865   1.542
48889SOL    HW148506   3.334  14.778   1.579
48889SOL    HW248507   3.399  14.848   1.462
48890SOL     OW48508  10.143  11.649  14.227
48890SOL    HW148509  10.157  11.634  14.134
48890SOL    HW248510  10.067  11.595  14.249
48891SOL     OW48511   2.275   8.360   8.204
48891SOL    HW148512   2.246   8.431   8.147
48891SOL    HW248513   2.358   8.390   8.240
48892SOL     OW48514   9.347   7.430  10.642
48892SOL    HW148515   9.310   7.350  10.605
48892SOL    HW248516   9.295   7.500  10.603
48893SOL     OW48517   9.228   0.947  10.914
48893SOL    HW148518   9.317   0.913  10.920
48893SOL    HW248519   9.238   1.042  10.911
48894SOL     OW48520  12.087   3.108   2.703
48894SOL    HW148521  12.024   3.176   2.727
48894SOL    HW248522  12.062   3.033   2.757
48895SOL     OW48523   4.994   8.466   5.308
48895SOL    HW148524   4.964   8.450   5.218
48895SOL    HW248525   4.922   8.435   5.362
48896SOL     OW48526  14.365   5.652   8.218
48896SOL    HW148527  14.393   5.616   8.133
48896SOL    HW248528  14.430   5.618   8.280
48897SOL     OW48529   2.774   6.898   9.659
48897SOL    HW148530   2.830   6.972   9.637
48897SOL    HW248531   2.748   6.861   9.575
48898SOL     OW48532   4.697  14.734   3.536
48898SOL    HW148533   4.694  14.829   3.541
48898SOL    HW248534   4.628  14.704   3.595
48899SOL     OW48535   0.672   1.853  14.247
48899SOL    HW148536   0.643   1.833  14.158
48899SOL    HW248537   0.714   1.773  14.278
48900SOL     OW48538  14.761  12.847   4.607
48900SOL    HW148539  14.844  12.863   4.563
48900SOL    HW248540  14.764  12.901   4.686
48901SOL     OW48541   2.096  12.285   4.735
48901SOL    HW148542   2.044  12.365   4.733
48901SOL    HW248543   2.053  12.227   4.672
48902SOL     OW48544   0.467   6.626   1.036
48902SOL    HW148545   0.515   6.544   1.048
48902SOL    HW248546   0.535   6.693   1.035
48903SOL     OW48547   0.827  14.368  13.696
48903SOL    HW148548   0.748  14.404  13.657
48903SOL    HW248549   0.875  14.330  13.622
48904SOL     OW48550   2.651   2.815   9.230
48904SOL    HW148551   2.668   2.743   9.291
48904SOL    HW248552   2.725   2.812   9.169
48905SOL     OW48553   8.015   4.850  13.766
48905SOL    HW148554   8.012   4.928  13.711
48905SOL    HW248555   7.931   4.806  13.752
48906SOL     OW48556   1.684   9.556   8.845
48906SOL    HW148557   1.759   9.598   8.887
48906SOL    HW248558   1.608   9.592   8.890
48907SOL     OW48559  14.516  14.231   3.776
48907SOL    HW148560  14.556  14.315   3.799
48907SOL    HW248561  14.534  14.175   3.851
48908SOL     OW48562  11.656   6.669  11.198
48908SOL    HW148563  11.619   6.716  11.273
48908SOL    HW248564  11.742   6.639  11.229
48909SOL     OW48565   5.120   9.517  13.158
48909SOL    HW148566   5.109   9.474  13.243
48909SOL    HW248567   5.211   9.546  13.158
48910SOL     OW48568   6.292  12.706  10.855
48910SOL    HW148569   6.273  12.779  10.915
48910SOL    HW248570   6.380  12.678  10.879
48911SOL     OW48571   3.048   7.894  10.818
48911SOL    HW148572   2.955   7.878  10.829
48911SOL    HW248573   3.088   7.862  10.899
48912SOL     OW48574  12.024   8.574   1.533
48912SOL    HW148575  11.949   8.614   1.577
48912SOL    HW248576  12.075   8.649   1.501
48913SOL     OW48577   5.684   4.888   3.144
48913SOL    HW148578   5.758   4.933   3.185
48913SOL    HW248579   5.616   4.954   3.137
48914SOL     OW48580  10.313  13.627   9.363
48914SOL    HW148581  10.317  13.723   9.360
48914SOL    HW248582  10.283  13.607   9.452
48915SOL     OW48583  10.838   2.148   0.029
48915SOL    HW148584  10.865   2.214  14.842
48915SOL    HW248585  10.894   2.162   0.104
48916SOL     OW48586   2.391   6.587  13.209
48916SOL    HW148587   2.402   6.564  13.117
48916SOL    HW248588   2.296   6.580  13.225
48917SOL     OW48589  12.311   4.301   5.611
48917SOL    HW148590  12.336   4.328   5.523
48917SOL    HW248591  12.309   4.382   5.662
48918SOL     OW48592  10.978   4.635  14.682
48918SOL    HW148593  10.982   4.607  14.590
48918SOL    HW248594  11.069   4.638  14.710
48919SOL     OW48595  14.008   9.068   1.508
48919SOL    HW148596  13.956   8.990   1.525
48919SOL    HW248597  14.098   9.041   1.524
48920SOL     OW48598  12.271   7.821   0.798
48920SOL    HW148599  12.283   7.890   0.863
48920SOL    HW248600  12.359   7.785   0.786
48921SOL     OW48601   9.046   9.346   6.778
48921SOL    HW148602   8.962   9.374   6.815
48921SOL    HW248603   9.026   9.329   6.686
48922SOL     OW48604  14.197   8.824   3.572
48922SOL    HW148605  14.195   8.918   3.590
48922SOL    HW248606  14.261   8.789   3.633
48923SOL     OW48607   6.857   0.252   6.605
48923SOL    HW148608   6.923   0.257   6.535
48923SOL    HW248609   6.872   0.330   6.658
48924SOL     OW48610   2.389   6.471  10.567
48924SOL    HW148611   2.299   6.441  10.554
48924SOL    HW248612   2.380   6.559  10.604
48925SOL     OW48613   1.938   7.902   9.511
48925SOL    HW148614   1.936   7.951   9.594
48925SOL    HW248615   1.965   7.814   9.537
48926SOL     OW48616   8.574   6.044   4.865
48926SOL    HW148617   8.488   6.002   4.865
48926SOL    HW248618   8.637   5.972   4.855
48927SOL     OW48619   0.209   0.122   5.473
48927SOL    HW148620   0.158   0.123   5.554
48927SOL    HW248621   0.196   0.208   5.435
48928SOL     OW48622   2.712   5.669  11.510
48928SOL    HW148623   2.765   5.749  11.516
48928SOL    HW248624   2.755   5.618  11.441
48929SOL     OW48625   1.771   7.944  14.844
48929SOL    HW148626   1.768   8.032  14.806
48929SOL    HW248627   1.780   7.886  14.768
48930SOL     OW48628  10.731   7.146   9.318
48930SOL    HW148629  10.715   7.233   9.352
48930SOL    HW248630  10.644   7.112   9.296
48931SOL     OW48631   3.971  14.606   6.317
48931SOL    HW148632   4.014  14.691   6.327
48931SOL    HW248633   3.999  14.556   6.393
48932SOL     OW48634   9.636   4.686   1.129
48932SOL    HW148635   9.688   4.754   1.172
48932SOL    HW248636   9.679   4.604   1.153
48933SOL     OW48637   3.248   0.383   5.467
48933SOL    HW148638   3.333   0.421   5.444
48933SOL    HW248639   3.221   0.335   5.388
48934SOL     OW48640  13.005  14.590   2.744
48934SOL    HW148641  13.052  14.571   2.664
48934SOL    HW248642  13.065  14.566   2.814
48935SOL     OW48643   3.939   4.320   2.859
48935SOL    HW148644   3.970   4.401   2.900
48935SOL    HW248645   3.892   4.350   2.781
48936SOL     OW48646   1.367  12.042  12.728
48936SOL    HW148647   1.402  12.027  12.640
48936SOL    HW248648   1.284  12.086  12.714
48937SOL     OW48649   0.676   3.828  10.475
48937SOL    HW148650   0.695   3.900  10.415
48937SOL    HW248651   0.613   3.864  10.537
48938SOL     OW48652  13.599   3.955   3.621
48938SOL    HW148653  13.652   3.922   3.693
48938SOL    HW248654  13.545   3.880   3.595
48939SOL     OW48655  14.410   7.173   0.701
48939SOL    HW148656  14.440   7.095   0.654
48939SOL    HW248657  14.392   7.141   0.790
48940SOL     OW48658   2.058  12.547   9.794
48940SOL    HW148659   2.054  12.484   9.866
48940SOL    HW248660   2.099  12.500   9.722
48941SOL     OW48661  13.051  14.485   0.717
48941SOL    HW148662  12.995  14.504   0.642
48941SOL    HW248663  13.140  14.503   0.685
48942SOL     OW48664   5.198  11.648  10.973
48942SOL    HW148665   5.147  11.616  10.899
48942SOL    HW248666   5.140  11.635  11.049
48943SOL     OW48667  12.213  13.079   3.794
48943SOL    HW148668  12.282  13.125   3.747
48943SOL    HW248669  12.176  13.144   3.853
48944SOL     OW48670   2.440   4.781   0.360
48944SOL    HW148671   2.490   4.831   0.425
48944SOL    HW248672   2.463   4.690   0.377
48945SOL     OW48673  11.919   9.601   4.375
48945SOL    HW148674  11.994   9.549   4.405
48945SOL    HW248675  11.940   9.622   4.284
48946SOL     OW48676   8.916  10.601  12.636
48946SOL    HW148677   8.907  10.622  12.543
48946SOL    HW248678   8.826  10.588  12.665
48947SOL     OW48679   1.067   4.181  10.367
48947SOL    HW148680   1.052   4.243  10.296
48947SOL    HW248681   1.096   4.235  10.440
48948SOL     OW48682   7.429   6.568   1.396
48948SOL    HW148683   7.339   6.589   1.371
48948SOL    HW248684   7.439   6.476   1.372
48949SOL     OW48685  10.625   4.049   4.449
48949SOL    HW148686  10.586   4.136   4.440
48949SOL    HW248687  10.566   3.990   4.402
48950SOL     OW48688   6.514   9.713   2.229
48950SOL    HW148689   6.603   9.724   2.263
48950SOL    HW248690   6.493   9.798   2.190
48951SOL     OW48691  10.018  10.435  11.757
48951SOL    HW148692  10.065  10.403  11.680
48951SOL    HW248693   9.934  10.388  11.756
48952SOL     OW48694   2.422   6.716  11.343
48952SOL    HW148695   2.460   6.801  11.368
48952SOL    HW248696   2.496   6.656  11.342
48953SOL     OW48697   8.356  14.845  13.628
48953SOL    HW148698   8.395   0.027  13.563
48953SOL    HW248699   8.412  14.767  13.627
48954SOL     OW48700   8.012   3.693   8.166
48954SOL    HW148701   8.093   3.642   8.168
48954SOL    HW248702   8.026   3.762   8.231
48955SOL     OW48703   1.391   4.681   7.426
48955SOL    HW148704   1.486   4.690   7.432
48955SOL    HW248705   1.357   4.724   7.505
48956SOL     OW48706   1.768   3.687   7.403
48956SOL    HW148707   1.816   3.753   7.453
48956SOL    HW248708   1.681   3.725   7.392
48957SOL     OW48709   4.492   4.351   1.617
48957SOL    HW148710   4.398   4.357   1.601
48957SOL    HW248711   4.505   4.266   1.659
48958SOL     OW48712   1.988  14.770   7.922
48958SOL    HW148713   2.000  14.696   7.982
48958SOL    HW248714   2.059  14.831   7.945
48959SOL     OW48715  10.525   7.409  10.282
48959SOL    HW148716  10.540   7.428  10.189
48959SOL    HW248717  10.431   7.419  10.293
48960SOL     OW48718   7.918  10.134   0.830
48960SOL    HW148719   7.966  10.070   0.882
48960SOL    HW248720   7.937  10.218   0.871
48961SOL     OW48721   9.577   6.680   5.811
48961SOL    HW148722   9.574   6.585   5.812
48961SOL    HW248723   9.622   6.702   5.729
48962SOL     OW48724   2.996  12.310   0.181
48962SOL    HW148725   2.946  12.330   0.101
48962SOL    HW248726   3.063  12.377   0.185
48963SOL     OW48727   7.850   0.464   9.419
48963SOL    HW148728   7.759   0.452   9.447
48963SOL    HW248729   7.876   0.377   9.388
48964SOL     OW48730   7.503  12.605   0.884
48964SOL    HW148731   7.558  12.531   0.908
48964SOL    HW248732   7.414  12.577   0.906
48965SOL     OW48733   2.616   7.203   2.076
48965SOL    HW148734   2.677   7.247   2.135
48965SOL    HW248735   2.654   7.213   1.989
48966SOL     OW48736   9.381   4.252   7.936
48966SOL    HW148737   9.409   4.287   7.851
48966SOL    HW248738   9.413   4.162   7.937
48967SOL     OW48739  12.132   6.878  13.683
48967SOL    HW148740  12.179   6.928  13.750
48967SOL    HW248741  12.066   6.938  13.651
48968SOL     OW48742  11.725   8.071   8.717
48968SOL    HW148743  11.742   8.138   8.652
48968SOL    HW248744  11.699   7.994   8.666
48969SOL     OW48745   6.867   0.441   0.021
48969SOL    HW148746   6.860   0.418   0.113
48969SOL    HW248747   6.794   0.501   0.006
48970SOL     OW48748   7.636  12.734   5.328
48970SOL    HW148749   7.685  12.806   5.289
48970SOL    HW248750   7.664  12.657   5.277
48971SOL     OW48751  10.139   9.272   0.670
48971SOL    HW148752  10.138   9.334   0.597
48971SOL    HW248753  10.061   9.219   0.657
48972SOL     OW48754  10.036   7.097   1.415
48972SOL    HW148755  10.004   7.166   1.474
48972SOL    HW248756  10.129   7.091   1.434
48973SOL     OW48757   3.247   3.418  12.978
48973SOL    HW148758   3.312   3.366  12.931
48973SOL    HW248759   3.242   3.378  13.065
48974SOL     OW48760  12.008   3.631   5.101
48974SOL    HW148761  11.926   3.586   5.126
48974SOL    HW248762  12.068   3.611   5.173
48975SOL     OW48763   3.153  13.441  12.526
48975SOL    HW148764   3.176  13.516  12.581
48975SOL    HW248765   3.117  13.377  12.587
48976SOL     OW48766  11.686  10.528   8.587
48976SOL    HW148767  11.774  10.493   8.571
48976SOL    HW248768  11.698  10.623   8.589
48977SOL     OW48769   9.836   5.046  12.904
48977SOL    HW148770   9.837   5.075  12.812
48977SOL    HW248771   9.744   5.047  12.928
48978SOL     OW48772   5.675  10.614   0.203
48978SOL    HW148773   5.760  10.651   0.228
48978SOL    HW248774   5.658  10.649   0.116
48979SOL     OW48775   4.539   8.719   2.562
48979SOL    HW148776   4.595   8.672   2.624
48979SOL    HW248777   4.486   8.777   2.616
48980SOL     OW48778   5.631  13.847   1.425
48980SOL    HW148779   5.637  13.766   1.375
48980SOL    HW248780   5.629  13.819   1.517
48981SOL     OW48781  13.343   7.363   6.025
48981SOL    HW148782  13.358   7.433   5.961
48981SOL    HW248783  13.252   7.337   6.011
48982SOL     OW48784   8.277   1.144   6.910
48982SOL    HW148785   8.268   1.118   6.818
48982SOL    HW248786   8.270   1.239   6.908
48983SOL     OW48787   4.856   3.354   9.422
48983SOL    HW148788   4.820   3.272   9.456
48983SOL    HW248789   4.830   3.420   9.485
48984SOL     OW48790   7.849  13.526   1.123
48984SOL    HW148791   7.830  13.461   1.056
48984SOL    HW248792   7.933  13.564   1.096
48985SOL     OW48793   4.703   0.278   6.620
48985SOL    HW148794   4.615   0.262   6.586
48985SOL    HW248795   4.750   0.196   6.604
48986SOL     OW48796   2.796   6.448   3.630
48986SOL    HW148797   2.759   6.467   3.544
48986SOL    HW248798   2.804   6.533   3.673
48987SOL     OW48799   7.504   9.719   3.248
48987SOL    HW148800   7.441   9.677   3.306
48987SOL    HW248801   7.577   9.743   3.304
48988SOL     OW48802   6.393   4.775   4.196
48988SOL    HW148803   6.465   4.729   4.152
48988SOL    HW248804   6.324   4.781   4.131
48989SOL     OW48805   8.849   2.103   2.665
48989SOL    HW148806   8.893   2.176   2.708
48989SOL    HW248807   8.775   2.081   2.723
48990SOL     OW48808   9.803   0.768   6.889
48990SOL    HW148809   9.869   0.820   6.935
48990SOL    HW248810   9.762   0.715   6.958
48991SOL     OW48811  11.337   2.259   4.470
48991SOL    HW148812  11.376   2.171   4.470
48991SOL    HW248813  11.329   2.281   4.377
48992SOL     OW48814  10.901  13.985   3.686
48992SOL    HW148815  10.994  14.003   3.700
48992SOL    HW248816  10.890  13.985   3.591
48993SOL     OW48817  10.736  11.708   0.057
48993SOL    HW148818  10.676  11.754  14.875
48993SOL    HW248819  10.698  11.717   0.144
48994SOL     OW48820  11.702   5.324   4.816
48994SOL    HW148821  11.744   5.387   4.758
48994SOL    HW248822  11.664   5.377   4.886
48995SOL     OW48823   6.241   1.800   4.363
48995SOL    HW148824   6.174   1.857   4.400
48995SOL    HW248825   6.230   1.809   4.268
48996SOL     OW48826  12.270  12.427   2.113
48996SOL    HW148827  12.225  12.424   2.197
48996SOL    HW248828  12.345  12.368   2.124
48997SOL     OW48829   7.928  11.997  10.301
48997SOL    HW148830   7.944  12.091  10.292
48997SOL    HW248831   7.847  11.991  10.352
48998SOL     OW48832   7.456  11.966  11.209
48998SOL    HW148833   7.542  11.933  11.181
48998SOL    HW248834   7.438  11.919  11.290
48999SOL     OW48835  10.257   0.811   2.055
48999SOL    HW148836  10.229   0.726   2.022
48999SOL    HW248837  10.178   0.849   2.094
49000SOL     OW48838   6.329   5.824   1.904
49000SOL    HW148839   6.326   5.823   1.999
49000SOL    HW248840   6.239   5.809   1.877
49001SOL     OW48841   8.483   6.047   5.804
49001SOL    HW148842   8.539   6.122   5.786
49001SOL    HW248843   8.438   6.030   5.721
49002SOL     OW48844   8.443   3.236   6.710
49002SOL    HW148845   8.423   3.270   6.797
49002SOL    HW248846   8.402   3.150   6.708
49003SOL     OW48847  11.453   9.680   3.932
49003SOL    HW148848  11.409   9.642   3.856
49003SOL    HW248849  11.382   9.717   3.985
49004SOL     OW48850  14.311  13.618  12.124
49004SOL    HW148851  14.312  13.573  12.039
49004SOL    HW248852  14.287  13.550  12.187
49005SOL     OW48853   3.718  14.537   9.886
49005SOL    HW148854   3.742  14.448   9.911
49005SOL    HW248855   3.790  14.567   9.830
49006SOL     OW48856   7.078   7.987   2.389
49006SOL    HW148857   7.107   8.078   2.404
49006SOL    HW248858   6.983   7.993   2.387
49007SOL     OW48859   6.509   9.498   6.022
49007SOL    HW148860   6.602   9.503   5.999
49007SOL    HW248861   6.492   9.406   6.039
49008SOL     OW48862  14.746   4.310   9.457
49008SOL    HW148863  14.692   4.344   9.529
49008SOL    HW248864  14.829   4.357   9.466
49009SOL     OW48865   2.278   4.918   1.154
49009SOL    HW148866   2.197   4.908   1.103
49009SOL    HW248867   2.346   4.928   1.088
49010SOL     OW48868  13.371   4.749  11.533
49010SOL    HW148869  13.463   4.775  11.537
49010SOL    HW248870  13.356   4.725  11.442
49011SOL     OW48871   2.145  11.315   4.223
49011SOL    HW148872   2.098  11.252   4.278
49011SOL    HW248873   2.182  11.378   4.285
49012SOL     OW48874  12.579   6.790   0.924
49012SOL    HW148875  12.511   6.855   0.944
49012SOL    HW248876  12.592   6.799   0.830
49013SOL     OW48877   9.253  13.137  12.046
49013SOL    HW148878   9.259  13.143  11.950
49013SOL    HW248879   9.288  13.051  12.067
49014SOL     OW48880   9.089   1.541   3.882
49014SOL    HW148881   9.127   1.579   3.803
49014SOL    HW248882   9.057   1.455   3.854
49015SOL     OW48883  13.120   4.341   5.111
49015SOL    HW148884  13.199   4.394   5.099
49015SOL    HW248885  13.129   4.305   5.199
49016SOL     OW48886  11.158   1.194  12.453
49016SOL    HW148887  11.127   1.117  12.407
49016SOL    HW248888  11.254   1.186  12.452
49017SOL     OW48889  13.222   8.378   1.504
49017SOL    HW148890  13.247   8.403   1.593
49017SOL    HW248891  13.257   8.290   1.492
49018SOL     OW48892   1.501  12.945   3.190
49018SOL    HW148893   1.593  12.970   3.184
49018SOL    HW248894   1.491  12.877   3.123
49019SOL     OW48895   8.036   8.107   1.658
49019SOL    HW148896   8.008   8.135   1.745
49019SOL    HW248897   7.968   8.140   1.600
49020SOL     OW48898  13.379   6.473   8.135
49020SOL    HW148899  13.296   6.503   8.098
49020SOL    HW248900  13.383   6.516   8.221
49021SOL     OW48901  13.047  14.096   3.738
49021SOL    HW148902  13.120  14.154   3.717
49021SOL    HW248903  13.076  14.047   3.815
49022SOL     OW48904   3.949   5.433   7.354
49022SOL    HW148905   3.855   5.432   7.372
49022SOL    HW248906   3.983   5.499   7.414
49023SOL     OW48907   6.538   9.167  11.821
49023SOL    HW148908   6.464   9.212  11.781
49023SOL    HW248909   6.500   9.085  11.855
49024SOL     OW48910   3.521   7.108   7.477
49024SOL    HW148911   3.610   7.090   7.509
49024SOL    HW248912   3.487   7.175   7.536
49025SOL     OW48913  13.701   6.708   1.469
49025SOL    HW148914  13.680   6.617   1.491
49025SOL    HW248915  13.794   6.705   1.444
49026SOL     OW48916   9.481   0.156  13.098
49026SOL    HW148917   9.497   0.203  13.016
49026SOL    HW248918   9.397   0.113  13.084
49027SOL     OW48919  12.933  12.041  12.431
49027SOL    HW148920  12.945  11.968  12.371
49027SOL    HW248921  12.903  12.001  12.513
49028SOL     OW48922   4.387  10.491   1.868
49028SOL    HW148923   4.332  10.506   1.946
49028SOL    HW248924   4.465  10.447   1.902
49029SOL     OW48925  11.007   9.599   2.570
49029SOL    HW148926  11.096   9.628   2.588
49029SOL    HW248927  11.013   9.556   2.485
49030SOL     OW48928   1.497  12.249  12.910
49030SOL    HW148929   1.445  12.172  12.887
49030SOL    HW248930   1.432  12.315  12.936
49031SOL     OW48931   2.312   6.727  12.395
49031SOL    HW148932   2.220   6.752  12.388
49031SOL    HW248933   2.311   6.632  12.392
49032SOL     OW48934  11.505   1.810   7.862
49032SOL    HW148935  11.475   1.849   7.780
49032SOL    HW248936  11.577   1.866   7.890
49033SOL     OW48937   0.306  11.004  12.276
49033SOL    HW148938   0.280  10.949  12.349
49033SOL    HW248939   0.391  10.969  12.248
49034SOL     OW48940  14.174   1.984   3.873
49034SOL    HW148941  14.156   2.077   3.859
49034SOL    HW248942  14.233   1.959   3.802
49035SOL     OW48943  12.379  13.893   3.015
49035SOL    HW148944  12.380  13.951   2.938
49035SOL    HW248945  12.394  13.806   2.978
49036SOL     OW48946   1.111  10.271   7.110
49036SOL    HW148947   1.019  10.282   7.135
49036SOL    HW248948   1.107  10.219   7.030
49037SOL     OW48949   2.330   8.961  11.643
49037SOL    HW148950   2.380   9.016  11.703
49037SOL    HW248951   2.375   8.877  11.643
49038SOL     OW48952   2.920   4.156   5.654
49038SOL    HW148953   2.993   4.194   5.702
49038SOL    HW248954   2.935   4.182   5.563
49039SOL     OW48955   1.206  11.207   4.335
49039SOL    HW148956   1.223  11.272   4.267
49039SOL    HW248957   1.139  11.150   4.297
49040SOL     OW48958   2.066   2.240   3.059
49040SOL    HW148959   2.068   2.335   3.045
49040SOL    HW248960   2.002   2.228   3.129
49041SOL     OW48961  13.458   1.925   4.185
49041SOL    HW148962  13.377   1.877   4.172
49041SOL    HW248963  13.527   1.862   4.164
49042SOL     OW48964   9.715   8.409  11.433
49042SOL    HW148965   9.777   8.410  11.506
49042SOL    HW248966   9.746   8.478  11.375
49043SOL     OW48967   0.365   7.368   6.226
49043SOL    HW148968   0.292   7.419   6.262
49043SOL    HW248969   0.342   7.277   6.246
49044SOL     OW48970   5.787  13.701   4.294
49044SOL    HW148971   5.876  13.682   4.324
49044SOL    HW248972   5.799  13.764   4.223
49045SOL     OW48973  13.396   9.560   4.103
49045SOL    HW148974  13.361   9.473   4.125
49045SOL    HW248975  13.428   9.594   4.186
49046SOL     OW48976  10.015   4.083   1.939
49046SOL    HW148977   9.969   4.067   2.021
49046SOL    HW248978  10.013   4.178   1.929
49047SOL     OW48979   4.161   3.991   4.578
49047SOL    HW148980   4.096   4.045   4.533
49047SOL    HW248981   4.119   3.966   4.660
49048SOL     OW48982  11.928   6.353  10.981
49048SOL    HW148983  11.912   6.414  10.909
49048SOL    HW248984  11.984   6.285  10.943
49049SOL     OW48985   5.607   9.259  14.175
49049SOL    HW148986   5.567   9.254  14.088
49049SOL    HW248987   5.544   9.214  14.232
49050SOL     OW48988  12.629   2.526  13.036
49050SOL    HW148989  12.694   2.463  13.067
49050SOL    HW248990  12.673   2.610  13.039
49051SOL     OW48991   5.461   8.224   6.783
49051SOL    HW148992   5.451   8.141   6.736
49051SOL    HW248993   5.543   8.215   6.831
49052SOL     OW48994   0.209  14.204   9.104
49052SOL    HW148995   0.240  14.122   9.066
49052SOL    HW248996   0.125  14.220   9.061
49053SOL     OW48997  12.352   3.203   2.639
49053SOL    HW148998  12.362   3.117   2.680
49053SOL    HW248999  12.258   3.213   2.627
49054SOL     OW49000   8.492   8.518   9.049
49054SOL    HW149001   8.534   8.575   9.114
49054SOL    HW249002   8.548   8.525   8.972
49055SOL     OW49003  12.424   8.882  13.226
49055SOL    HW149004  12.487   8.821  13.188
49055SOL    HW249005  12.437   8.964  13.178
49056SOL     OW49006  14.612  13.723  10.667
49056SOL    HW149007  14.540  13.705  10.606
49056SOL    HW249008  14.577  13.792  10.724
49057SOL     OW49009   5.841  11.046   8.485
49057SOL    HW149010   5.806  11.076   8.401
49057SOL    HW249011   5.798  11.101   8.550
49058SOL     OW49012  11.713   7.645   1.531
49058SOL    HW149013  11.688   7.729   1.569
49058SOL    HW249014  11.725   7.664   1.438
49059SOL     OW49015  12.611   9.421   0.137
49059SOL    HW149016  12.564   9.504   0.147
49059SOL    HW249017  12.549   9.355   0.169
49060SOL     OW49018   7.331   8.477  10.798
49060SOL    HW149019   7.311   8.431  10.880
49060SOL    HW249020   7.327   8.410  10.731
49061SOL     OW49021  11.102  11.133   7.124
49061SOL    HW149022  11.016  11.145   7.083
49061SOL    HW249023  11.099  11.044   7.159
49062SOL     OW49024   4.691   6.142   7.795
49062SOL    HW149025   4.647   6.200   7.733
49062SOL    HW249026   4.661   6.054   7.772
49063SOL     OW49027  12.277   4.665   4.067
49063SOL    HW149028  12.323   4.690   4.147
49063SOL    HW249029  12.322   4.586   4.037
49064SOL     OW49030   7.075  13.787   6.509
49064SOL    HW149031   7.099  13.803   6.600
49064SOL    HW249032   7.155  13.754   6.468
49065SOL     OW49033   7.777  12.557   7.982
49065SOL    HW149034   7.836  12.508   8.040
49065SOL    HW249035   7.717  12.491   7.948
49066SOL     OW49036  12.680   9.197   1.413
49066SOL    HW149037  12.670   9.255   1.337
49066SOL    HW249038  12.636   9.116   1.387
49067SOL     OW49039   7.651   8.488  10.675
49067SOL    HW149040   7.742   8.508  10.652
49067SOL    HW249041   7.602   8.566  10.647
49068SOL     OW49042   2.340   2.025  14.004
49068SOL    HW149043   2.421   1.977  14.020
49068SOL    HW249044   2.278   1.989  14.067
49069SOL     OW49045  12.482   1.978   6.042
49069SOL    HW149046  12.504   2.023   5.960
49069SOL    HW249047  12.402   2.020   6.072
49070SOL     OW49048  11.856   2.469  12.343
49070SOL    HW149049  11.776   2.513  12.312
49070SOL    HW249050  11.896   2.434  12.263
49071SOL     OW49051   7.729   0.346   3.395
49071SOL    HW149052   7.754   0.257   3.421
49071SOL    HW249053   7.731   0.344   3.300
49072SOL     OW49054  13.912  13.324   7.944
49072SOL    HW149055  13.976  13.278   7.890
49072SOL    HW249056  13.949  13.411   7.958
49073SOL     OW49057   4.458   0.073   0.714
49073SOL    HW149058   4.464  14.867   0.762
49073SOL    HW249059   4.451   0.140   0.783
49074SOL     OW49060   7.794   2.018  10.795
49074SOL    HW149061   7.725   2.010  10.728
49074SOL    HW249062   7.792   2.111  10.820
49075SOL     OW49063   2.328   3.288   4.127
49075SOL    HW149064   2.371   3.203   4.117
49075SOL    HW249065   2.246   3.279   4.079
49076SOL     OW49066  10.008  12.206   1.214
49076SOL    HW149067   9.944  12.220   1.285
49076SOL    HW249068   9.989  12.118   1.181
49077SOL     OW49069   7.260   3.778   7.868
49077SOL    HW149070   7.194   3.737   7.811
49077SOL    HW249071   7.343   3.756   7.826
49078SOL     OW49072   2.061   7.449  10.827
49078SOL    HW149073   2.121   7.441  10.901
49078SOL    HW249074   2.084   7.376  10.769
49079SOL     OW49075  12.721   4.114   2.795
49079SOL    HW149076  12.723   4.136   2.889
49079SOL    HW249077  12.760   4.027   2.790
49080SOL     OW49078  11.081  13.172   8.913
49080SOL    HW149079  11.091  13.149   8.821
49080SOL    HW249080  11.042  13.259   8.912
49081SOL     OW49081  13.407  10.441   9.406
49081SOL    HW149082  13.344  10.486   9.462
49081SOL    HW249083  13.473  10.508   9.386
49082SOL     OW49084   6.782   1.081  11.496
49082SOL    HW149085   6.730   1.001  11.501
49082SOL    HW249086   6.798   1.105  11.587
49083SOL     OW49087  13.314   2.899  10.973
49083SOL    HW149088  13.280   2.938  11.054
49083SOL    HW249089  13.359   2.971  10.928
49084SOL     OW49090   2.109   2.641   5.929
49084SOL    HW149091   2.025   2.633   5.883
49084SOL    HW249092   2.174   2.614   5.864
49085SOL     OW49093  13.563   5.291   1.457
49085SOL    HW149094  13.536   5.370   1.503
49085SOL    HW249095  13.586   5.321   1.369
49086SOL     OW49096  14.428   6.383  13.663
49086SOL    HW149097  14.473   6.425  13.590
49086SOL    HW249098  14.426   6.290  13.640
49087SOL     OW49099   3.430   2.995  10.790
49087SOL    HW149100   3.497   2.947  10.839
49087SOL    HW249101   3.479   3.062  10.742
49088SOL     OW49102  10.084  14.175   0.937
49088SOL    HW149103  10.024  14.161   0.864
49088SOL    HW249104  10.066  14.264   0.967
49089SOL     OW49105   8.269   1.560   5.901
49089SOL    HW149106   8.287   1.609   5.821
49089SOL    HW249107   8.293   1.619   5.972
49090SOL     OW49108  10.420   7.176  10.797
49090SOL    HW149109  10.379   7.232  10.732
49090SOL    HW249110  10.350   7.156  10.859
49091SOL     OW49111   8.972  14.072  13.800
49091SOL    HW149112   8.950  14.036  13.886
49091SOL    HW249113   8.912  14.028  13.740
49092SOL     OW49114   0.327   5.295  12.374
49092SOL    HW149115   0.319   5.389  12.360
49092SOL    HW249116   0.277   5.256  12.303
49093SOL     OW49117  10.379   7.648   4.063
49093SOL    HW149118  10.289   7.626   4.040
49093SOL    HW249119  10.385   7.743   4.049
49094SOL     OW49120  13.967   3.781   5.815
49094SOL    HW149121  13.972   3.819   5.903
49094SOL    HW249122  14.012   3.845   5.759
49095SOL     OW49123   1.956  10.128   5.929
49095SOL    HW149124   2.015  10.140   5.855
49095SOL    HW249125   1.871  10.110   5.889
49096SOL     OW49126  14.104  12.244   8.002
49096SOL    HW149127  14.124  12.309   8.068
49096SOL    HW249128  14.059  12.293   7.933
49097SOL     OW49129  14.861  13.591  11.045
49097SOL    HW149130  14.834  13.582  11.136
49097SOL    HW249131   0.040  13.515  11.028
49098SOL     OW49132   8.594  12.485  12.666
49098SOL    HW149133   8.594  12.486  12.570
49098SOL    HW249134   8.528  12.550  12.690
49099SOL     OW49135   9.344   1.419  13.369
49099SOL    HW149136   9.391   1.336  13.379
49099SOL    HW249137   9.253   1.397  13.387
49100SOL     OW49138   6.319  13.714   0.930
49100SOL    HW149139   6.390  13.740   0.871
49100SOL    HW249140   6.359  13.711   1.016
49101SOL     OW49141  10.212  12.477   0.296
49101SOL    HW149142  10.230  12.449   0.385
49101SOL    HW249143  10.284  12.440   0.244
49102SOL     OW49144   1.092  14.517   6.856
49102SOL    HW149145   1.097  14.599   6.905
49102SOL    HW249146   1.023  14.468   6.899
49103SOL     OW49147   2.420  14.680   3.871
49103SOL    HW149148   2.364  14.608   3.844
49103SOL    HW249149   2.489  14.683   3.804
49104SOL     OW49150   3.471  10.845   8.337
49104SOL    HW149151   3.424  10.773   8.380
49104SOL    HW249152   3.543  10.802   8.290
49105SOL     OW49153   8.110  11.531   4.766
49105SOL    HW149154   8.087  11.559   4.855
49105SOL    HW249155   8.094  11.609   4.712
49106SOL     OW49156   4.647  13.947  14.197
49106SOL    HW149157   4.643  13.915  14.106
49106SOL    HW249158   4.608  14.034  14.193
49107SOL     OW49159  14.513  10.862  10.850
49107SOL    HW149160  14.503  10.922  10.775
49107SOL    HW249161  14.430  10.813  10.852
49108SOL     OW49162   2.877  10.205  14.229
49108SOL    HW149163   2.948  10.164  14.179
49108SOL    HW249164   2.819  10.240  14.163
49109SOL     OW49165   2.803   7.666  12.601
49109SOL    HW149166   2.718   7.676  12.559
49109SOL    HW249167   2.849   7.600  12.549
49110SOL     OW49168  11.294   0.449  13.307
49110SOL    HW149169  11.282   0.539  13.276
49110SOL    HW249170  11.337   0.404  13.234
49111SOL     OW49171  14.327   0.734  13.224
49111SOL    HW149172  14.351   0.814  13.270
49111SOL    HW249173  14.262   0.692  13.280
49112SOL     OW49174  11.861   9.357  12.163
49112SOL    HW149175  11.934   9.299  12.184
49112SOL    HW249176  11.861   9.362  12.068
49113SOL     OW49177  13.329   2.457  13.384
49113SOL    HW149178  13.358   2.413  13.303
49113SOL    HW249179  13.287   2.388  13.434
49114SOL     OW49180   3.822   6.161  13.937
49114SOL    HW149181   3.918   6.164  13.941
49114SOL    HW249182   3.801   6.068  13.938
49115SOL     OW49183   6.233   0.810   4.177
49115SOL    HW149184   6.286   0.736   4.148
49115SOL    HW249185   6.158   0.810   4.118
49116SOL     OW49186   0.473   0.415   1.729
49116SOL    HW149187   0.459   0.353   1.801
49116SOL    HW249188   0.518   0.364   1.662
49117SOL     OW49189  11.514   3.060   0.282
49117SOL    HW149190  11.607   3.047   0.264
49117SOL    HW249191  11.472   2.980   0.251
49118SOL     OW49192  13.223  12.019   4.947
49118SOL    HW149193  13.184  12.095   4.903
49118SOL    HW249194  13.149  11.964   4.970
49119SOL     OW49195   9.157  11.833   9.299
49119SOL    HW149196   9.087  11.782   9.258
49119SOL    HW249197   9.209  11.865   9.226
49120SOL     OW49198   2.358   8.771   4.746
49120SOL    HW149199   2.344   8.793   4.838
49120SOL    HW249200   2.270   8.758   4.710
49121SOL     OW49201  13.318   3.375   1.842
49121SOL    HW149202  13.230   3.338   1.850
49121SOL    HW249203  13.372   3.300   1.814
49122SOL     OW49204   7.116  12.864   5.717
49122SOL    HW149205   7.119  12.769   5.725
49122SOL    HW249206   7.153  12.883   5.631
49123SOL     OW49207   9.135  12.614  14.040
49123SOL    HW149208   9.098  12.527  14.057
49123SOL    HW249209   9.081  12.674  14.091
49124SOL     OW49210  11.347   1.140  10.077
49124SOL    HW149211  11.259   1.111  10.053
49124SOL    HW249212  11.343   1.235  10.070
49125SOL     OW49213   2.020  14.377   3.952
49125SOL    HW149214   1.949  14.405   4.010
49125SOL    HW249215   1.978  14.367   3.866
49126SOL     OW49216   3.974   2.079  11.812
49126SOL    HW149217   4.014   2.044  11.892
49126SOL    HW249218   3.952   2.170  11.834
49127SOL     OW49219   8.282  14.503  10.537
49127SOL    HW149220   8.280  14.415  10.501
49127SOL    HW249221   8.189  14.527  10.547
49128SOL     OW49222   3.505   9.769   6.315
49128SOL    HW149223   3.479   9.758   6.406
49128SOL    HW249224   3.546   9.686   6.291
49129SOL     OW49225   7.318  13.601   8.923
49129SOL    HW149226   7.324  13.528   8.861
49129SOL    HW249227   7.228  13.633   8.912
49130SOL     OW49228  10.809   1.783   6.073
49130SOL    HW149229  10.824   1.838   6.151
49130SOL    HW249230  10.714   1.770   6.071
49131SOL     OW49231   9.269   3.903   4.541
49131SOL    HW149232   9.191   3.848   4.549
49131SOL    HW249233   9.341   3.848   4.574
49132SOL     OW49234   0.680   6.034   6.271
49132SOL    HW149235   0.624   5.987   6.333
49132SOL    HW249236   0.763   6.045   6.317
49133SOL     OW49237   4.336  10.493   6.825
49133SOL    HW149238   4.392  10.562   6.859
49133SOL    HW249239   4.379  10.412   6.852
49134SOL     OW49240   5.742  14.085  12.656
49134SOL    HW149241   5.665  14.031  12.639
49134SOL    HW249242   5.742  14.099  12.751
49135SOL     OW49243   2.994   8.761  10.325
49135SOL    HW149244   2.955   8.759  10.238
49135SOL    HW249245   2.929   8.805  10.379
49136SOL     OW49246  10.742  14.782   1.540
49136SOL    HW149247  10.702  14.847   1.598
49136SOL    HW249248  10.742  14.701   1.590
49137SOL     OW49249   0.379   7.119   4.179
49137SOL    HW149250   0.288   7.106   4.205
49137SOL    HW249251   0.426   7.134   4.261
49138SOL     OW49252   0.789  12.330   4.420
49138SOL    HW149253   0.776  12.408   4.365
49138SOL    HW249254   0.701  12.311   4.455
49139SOL     OW49255   6.881   0.868   6.378
49139SOL    HW149256   6.950   0.808   6.404
49139SOL    HW249257   6.891   0.879   6.284
49140SOL     OW49258   8.344  11.706  13.206
49140SOL    HW149259   8.390  11.704  13.122
49140SOL    HW249260   8.271  11.644  13.195
49141SOL     OW49261  13.926   8.280   1.666
49141SOL    HW149262  13.939   8.270   1.571
49141SOL    HW249263  14.002   8.331   1.695
49142SOL     OW49264  14.264  10.767   6.226
49142SOL    HW149265  14.223  10.791   6.143
49142SOL    HW249266  14.351  10.807   6.223
49143SOL     OW49267  10.766   9.956   7.019
49143SOL    HW149268  10.732  10.043   6.999
49143SOL    HW249269  10.783   9.916   6.934
49144SOL     OW49270   4.856   3.445  12.935
49144SOL    HW149271   4.822   3.525  12.893
49144SOL    HW249272   4.895   3.476  13.016
49145SOL     OW49273   1.817   2.957  10.044
49145SOL    HW149274   1.814   3.044  10.006
49145SOL    HW249275   1.743   2.953  10.104
49146SOL     OW49276   9.262  12.464   8.425
49146SOL    HW149277   9.243  12.377   8.461
49146SOL    HW249278   9.258  12.451   8.330
49147SOL     OW49279   2.127   8.947   1.688
49147SOL    HW149280   2.214   8.961   1.651
49147SOL    HW249281   2.085   8.886   1.627
49148SOL     OW49282   1.438   3.718  12.854
49148SOL    HW149283   1.376   3.729  12.925
49148SOL    HW249284   1.386   3.685  12.781
49149SOL     OW49285   4.233  12.851  12.457
49149SOL    HW149286   4.165  12.866  12.523
49149SOL    HW249287   4.268  12.764  12.478
49150SOL     OW49288   6.055   8.434  14.475
49150SOL    HW149289   6.011   8.513  14.507
49150SOL    HW249290   6.088   8.459  14.388
49151SOL     OW49291  13.446  11.217  13.740
49151SOL    HW149292  13.435  11.298  13.691
49151SOL    HW249293  13.473  11.153  13.674
49152SOL     OW49294  11.218   3.366  10.219
49152SOL    HW149295  11.167   3.443  10.243
49152SOL    HW249296  11.303   3.400  10.191
49153SOL     OW49297   3.294   8.143   4.724
49153SOL    HW149298   3.364   8.078   4.712
49153SOL    HW249299   3.297   8.165   4.817
49154SOL     OW49300   4.720   2.906  11.724
49154SOL    HW149301   4.706   2.989  11.771
49154SOL    HW249302   4.632   2.875  11.704
49155SOL     OW49303   5.645   7.733   3.012
49155SOL    HW149304   5.709   7.796   2.981
49155SOL    HW249305   5.658   7.656   2.957
49156SOL     OW49306  13.856  13.829   8.329
49156SOL    HW149307  13.922  13.896   8.311
49156SOL    HW249308  13.898  13.769   8.391
49157SOL     OW49309   2.771   5.606  10.018
49157SOL    HW149310   2.679   5.611   9.991
49157SOL    HW249311   2.807   5.692   9.997
49158SOL     OW49312   2.623   0.270   4.510
49158SOL    HW149313   2.667   0.233   4.433
49158SOL    HW249314   2.694   0.297   4.568
49159SOL     OW49315   6.784   0.808  12.762
49159SOL    HW149316   6.812   0.794  12.852
49159SOL    HW249317   6.814   0.730  12.715
49160SOL     OW49318   0.445   3.925   2.147
49160SOL    HW149319   0.497   3.867   2.093
49160SOL    HW249320   0.412   3.869   2.218
49161SOL     OW49321  12.675   3.614   0.311
49161SOL    HW149322  12.725   3.688   0.344
49161SOL    HW249323  12.723   3.537   0.342
49162SOL     OW49324   2.457   4.175   7.740
49162SOL    HW149325   2.365   4.201   7.729
49162SOL    HW249326   2.507   4.254   7.723
49163SOL     OW49327  10.153   1.808   9.607
49163SOL    HW149328  10.071   1.799   9.559
49163SOL    HW249329  10.169   1.721   9.643
49164SOL     OW49330  12.890   3.872   1.472
49164SOL    HW149331  12.947   3.826   1.532
49164SOL    HW249332  12.949   3.924   1.417
49165SOL     OW49333   0.982   2.234   8.194
49165SOL    HW149334   0.928   2.173   8.243
49165SOL    HW249335   1.059   2.184   8.169
49166SOL     OW49336   0.576  14.241  11.672
49166SOL    HW149337   0.668  14.265  11.675
49166SOL    HW249338   0.559  14.195  11.754
49167SOL     OW49339  12.544   4.891   8.030
49167SOL    HW149340  12.540   4.836   8.108
49167SOL    HW249341  12.479   4.960   8.045
49168SOL     OW49342   9.912  12.694   1.622
49168SOL    HW149343   9.926  12.779   1.663
49168SOL    HW249344   9.970  12.694   1.546
49169SOL     OW49345  14.116   2.379   8.952
49169SOL    HW149346  14.039   2.369   9.008
49169SOL    HW249347  14.189   2.348   9.006
49170SOL     OW49348   4.274  10.404   8.621
49170SOL    HW149349   4.334  10.437   8.688
49170SOL    HW249350   4.331  10.360   8.558
49171SOL     OW49351   7.791   0.448  12.627
49171SOL    HW149352   7.702   0.457  12.594
49171SOL    HW249353   7.837   0.524  12.591
49172SOL     OW49354   8.831   7.607   9.933
49172SOL    HW149355   8.923   7.594   9.954
49172SOL    HW249356   8.784   7.576  10.011
49173SOL     OW49357   0.163   8.303   3.623
49173SOL    HW149358   0.112   8.253   3.686
49173SOL    HW249359   0.134   8.269   3.538
49174SOL     OW49360   0.072   1.077  11.878
49174SOL    HW149361  14.856   1.103  11.873
49174SOL    HW249362   0.119   1.160  11.883
49175SOL     OW49363  12.361  14.768  10.308
49175SOL    HW149364  12.428  14.828  10.276
49175SOL    HW249365  12.299  14.824  10.355
49176SOL     OW49366   0.281   4.376   8.077
49176SOL    HW149367   0.352   4.429   8.041
49176SOL    HW249368   0.230   4.437   8.130
49177SOL     OW49369  11.205   7.965   7.590
49177SOL    HW149370  11.111   7.968   7.609
49177SOL    HW249371  11.215   8.016   7.510
49178SOL     OW49372   4.794   9.003   4.917
49178SOL    HW149373   4.808   9.096   4.896
49178SOL    HW249374   4.852   8.956   4.858
49179SOL     OW49375  10.482   7.138   3.734
49179SOL    HW149376  10.453   7.192   3.660
49179SOL    HW249377  10.424   7.163   3.806
49180SOL     OW49378   9.399   0.194  10.077
49180SOL    HW149379   9.380   0.279  10.037
49180SOL    HW249380   9.491   0.201  10.104
49181SOL     OW49381   4.085  12.540   5.012
49181SOL    HW149382   4.081  12.462   4.956
49181SOL    HW249383   4.178  12.546   5.036
49182SOL     OW49384  11.494   6.172   7.163
49182SOL    HW149385  11.569   6.205   7.212
49182SOL    HW249386  11.506   6.205   7.075
49183SOL     OW49387   8.860   9.760  10.068
49183SOL    HW149388   8.932   9.772  10.006
49183SOL    HW249389   8.831   9.670  10.055
49184SOL     OW49390  12.676   0.146   2.128
49184SOL    HW149391  12.725   0.092   2.190
49184SOL    HW249392  12.668   0.092   2.050
49185SOL     OW49393  11.632   6.297  10.746
49185SOL    HW149394  11.614   6.351  10.823
49185SOL    HW249395  11.559   6.314  10.687
49186SOL     OW49396   0.367   3.130   2.248
49186SOL    HW149397   0.404   3.047   2.220
49186SOL    HW249398   0.381   3.189   2.174
49187SOL     OW49399   2.834   9.117   0.804
49187SOL    HW149400   2.755   9.087   0.849
49187SOL    HW249401   2.800   9.165   0.728
49188SOL     OW49402   2.109   3.674   4.056
49188SOL    HW149403   2.199   3.643   4.042
49188SOL    HW249404   2.118   3.750   4.113
49189SOL     OW49405   3.173   7.506  10.990
49189SOL    HW149406   3.246   7.445  10.985
49189SOL    HW249407   3.209   7.585  11.030
49190SOL     OW49408  13.042   7.952   4.518
49190SOL    HW149409  13.128   7.986   4.546
49190SOL    HW249410  13.063   7.877   4.463
49191SOL     OW49411  12.335   8.991   2.422
49191SOL    HW149412  12.359   9.059   2.359
49191SOL    HW249413  12.292   8.924   2.369
49192SOL     OW49414   0.579   9.429   0.433
49192SOL    HW149415   0.596   9.352   0.380
49192SOL    HW249416   0.590   9.399   0.523
49193SOL     OW49417  14.128  13.562   6.518
49193SOL    HW149418  14.220  13.549   6.543
49193SOL    HW249419  14.119  13.515   6.435
49194SOL     OW49420   4.733  10.687   8.621
49194SOL    HW149421   4.761  10.769   8.661
49194SOL    HW249422   4.684  10.642   8.689
49195SOL     OW49423   4.382   9.855   6.293
49195SOL    HW149424   4.384   9.835   6.200
49195SOL    HW249425   4.381   9.770   6.336
49196SOL     OW49426   4.168   4.615   4.498
49196SOL    HW149427   4.108   4.554   4.455
49196SOL    HW249428   4.192   4.678   4.430
49197SOL     OW49429  14.051   0.347  13.670
49197SOL    HW149430  14.088   0.357  13.758
49197SOL    HW249431  14.097   0.271  13.633
49198SOL     OW49432  11.355   2.646   1.115
49198SOL    HW149433  11.387   2.661   1.204
49198SOL    HW249434  11.342   2.734   1.079
49199SOL     OW49435   8.312  11.993  14.069
49199SOL    HW149436   8.290  12.083  14.043
49199SOL    HW249437   8.246  11.939  14.026
49200SOL     OW49438   9.649  13.304   1.334
49200SOL    HW149439   9.631  13.382   1.388
49200SOL    HW249440   9.625  13.231   1.390
49201SOL     OW49441  11.167   4.573   0.485
49201SOL    HW149442  11.073   4.552   0.489
49201SOL    HW249443  11.208   4.507   0.540
49202SOL     OW49444   9.855   6.735  14.831
49202SOL    HW149445   9.896   6.675  14.768
49202SOL    HW249446   9.927   6.788  14.865
49203SOL     OW49447   8.017   8.192   3.099
49203SOL    HW149448   8.074   8.248   3.046
49203SOL    HW249449   8.036   8.217   3.189
49204SOL     OW49450   0.915   0.620  12.914
49204SOL    HW149451   0.855   0.645  12.984
49204SOL    HW249452   0.948   0.703  12.880
49205SOL     OW49453   8.038   9.303   0.370
49205SOL    HW149454   7.980   9.232   0.400
49205SOL    HW249455   7.978   9.370   0.338
49206SOL     OW49456   3.970   5.382  11.444
49206SOL    HW149457   3.892   5.343  11.483
49206SOL    HW249458   4.000   5.445  11.509
49207SOL     OW49459  14.701  13.048   7.307
49207SOL    HW149460  14.641  13.048   7.232
49207SOL    HW249461  14.780  13.007   7.274
49208SOL     OW49462   7.323   2.572   5.713
49208SOL    HW149463   7.268   2.571   5.635
49208SOL    HW249464   7.263   2.588   5.786
49209SOL     OW49465   9.806   1.290   5.907
49209SOL    HW149466   9.844   1.202   5.903
49209SOL    HW249467   9.865   1.344   5.854
49210SOL     OW49468   5.148   8.450   9.702
49210SOL    HW149469   5.234   8.409   9.693
49210SOL    HW249470   5.158   8.510   9.776
49211SOL     OW49471  12.971   7.768   8.121
49211SOL    HW149472  12.877   7.785   8.124
49211SOL    HW249473  13.002   7.817   8.045
49212SOL     OW49474   1.428  13.206   2.999
49212SOL    HW149475   1.439  13.299   3.020
49212SOL    HW249476   1.508  13.183   2.952
49213SOL     OW49477   9.333   9.221   9.595
49213SOL    HW149478   9.343   9.223   9.500
49213SOL    HW249479   9.239   9.232   9.609
49214SOL     OW49480   3.651  11.021   8.775
49214SOL    HW149481   3.627  11.039   8.685
49214SOL    HW249482   3.744  10.997   8.772
49215SOL     OW49483   2.321  14.789   7.664
49215SOL    HW149484   2.416  14.778   7.659
49215SOL    HW249485   2.288  14.747   7.585
49216SOL     OW49486   2.301   6.859  10.319
49216SOL    HW149487   2.218   6.906  10.328
49216SOL    HW249488   2.362   6.908  10.374
49217SOL     OW49489   5.445  13.863   7.987
49217SOL    HW149490   5.533  13.888   7.959
49217SOL    HW249491   5.459  13.786   8.042
49218SOL     OW49492  10.324   5.539   2.934
49218SOL    HW149493  10.288   5.626   2.917
49218SOL    HW249494  10.351   5.542   3.026
49219SOL     OW49495   1.805  12.159  14.342
49219SOL    HW149496   1.745  12.217  14.294
49219SOL    HW249497   1.756  12.135  14.420
49220SOL     OW49498   1.532   7.063  10.471
49220SOL    HW149499   1.604   7.001  10.462
49220SOL    HW249500   1.568   7.134  10.525
49221SOL     OW49501  11.640   5.549   1.221
49221SOL    HW149502  11.666   5.638   1.246
49221SOL    HW249503  11.569   5.562   1.158
49222SOL     OW49504   5.730  12.625  11.348
49222SOL    HW149505   5.659  12.629  11.284
49222SOL    HW249506   5.776  12.543  11.328
49223SOL     OW49507  11.904   8.329   2.534
49223SOL    HW149508  11.846   8.255   2.554
49223SOL    HW249509  11.864   8.403   2.579
49224SOL     OW49510   6.865  13.848   0.626
49224SOL    HW149511   6.815  13.880   0.701
49224SOL    HW249512   6.854  13.915   0.559
49225SOL     OW49513   4.814   7.507   6.126
49225SOL    HW149514   4.721   7.494   6.145
49225SOL    HW249515   4.859   7.476   6.204
49226SOL     OW49516   4.235   6.505   9.571
49226SOL    HW149517   4.180   6.431   9.546
49226SOL    HW249518   4.322   6.482   9.540
49227SOL     OW49519   9.522   0.150   7.850
49227SOL    HW149520   9.431   0.122   7.845
49227SOL    HW249521   9.551   0.124   7.937
49228SOL     OW49522   8.524   4.192   3.012
49228SOL    HW149523   8.443   4.162   3.053
49228SOL    HW249524   8.517   4.165   2.921
49229SOL     OW49525  14.415   4.844  14.378
49229SOL    HW149526  14.448   4.755  14.384
49229SOL    HW249527  14.327   4.840  14.416
49230SOL     OW49528   7.337   2.169  12.969
49230SOL    HW149529   7.257   2.116  12.962
49230SOL    HW249530   7.306   2.259  12.979
49231SOL     OW49531   8.254   3.818   6.391
49231SOL    HW149532   8.194   3.883   6.428
49231SOL    HW249533   8.197   3.745   6.365
49232SOL     OW49534   7.818   2.261   5.931
49232SOL    HW149535   7.878   2.295   5.997
49232SOL    HW249536   7.788   2.177   5.966
49233SOL     OW49537   8.227   1.922   4.022
49233SOL    HW149538   8.155   1.908   4.083
49233SOL    HW249539   8.296   1.862   4.051
49234SOL     OW49540   5.919  10.453   0.059
49234SOL    HW149541   5.924  10.531   0.004
49234SOL    HW249542   5.836  10.412   0.036
49235SOL     OW49543   3.547   3.927  12.500
49235SOL    HW149544   3.479   3.877  12.545
49235SOL    HW249545   3.554   3.886  12.414
49236SOL     OW49546   1.768  10.391   6.044
49236SOL    HW149547   1.739  10.301   6.031
49236SOL    HW249548   1.801  10.418   5.958
49237SOL     OW49549   7.462   6.291   2.917
49237SOL    HW149550   7.523   6.246   2.858
49237SOL    HW249551   7.481   6.384   2.906
49238SOL     OW49552   9.798  13.255  10.953
49238SOL    HW149553   9.873  13.272  11.010
49238SOL    HW249554   9.836  13.243  10.866
49239SOL     OW49555   5.449  11.558  11.610
49239SOL    HW149556   5.438  11.570  11.704
49239SOL    HW249557   5.463  11.646  11.576
49240SOL     OW49558   2.088   9.173   0.672
49240SOL    HW149559   2.042   9.226   0.606
49240SOL    HW249560   2.052   9.085   0.661
49241SOL     OW49561   9.564   8.902  11.477
49241SOL    HW149562   9.490   8.947  11.517
49241SOL    HW249563   9.620   8.878  11.551
49242SOL     OW49564   3.529  10.175   8.875
49242SOL    HW149565   3.580  10.094   8.877
49242SOL    HW249566   3.441  10.147   8.848
49243SOL     OW49567  12.802   9.155  10.538
49243SOL    HW149568  12.738   9.203  10.485
49243SOL    HW249569  12.887   9.188  10.509
49244SOL     OW49570   4.772   9.736  10.034
49244SOL    HW149571   4.867   9.727  10.044
49244SOL    HW249572   4.744   9.782  10.113
49245SOL     OW49573  14.137   5.799  12.572
49245SOL    HW149574  14.064   5.755  12.529
49245SOL    HW249575  14.110   5.806  12.664
49246SOL     OW49576   3.885   3.039   3.484
49246SOL    HW149577   3.885   3.056   3.390
49246SOL    HW249578   3.797   3.064   3.513
49247SOL     OW49579   9.946  11.968  14.381
49247SOL    HW149580   9.985  11.932  14.302
49247SOL    HW249581   9.977  12.059  14.384
49248SOL     OW49582  10.954   4.628   9.986
49248SOL    HW149583  10.996   4.627  10.073
49248SOL    HW249584  10.861   4.618  10.005
49249SOL     OW49585  13.929   8.423  12.032
49249SOL    HW149586  13.862   8.407  11.966
49249SOL    HW249587  14.012   8.419  11.983
49250SOL     OW49588   1.071   1.112   0.697
49250SOL    HW149589   1.154   1.121   0.651
49250SOL    HW249590   1.006   1.095   0.629
49251SOL     OW49591   4.300  13.017   7.897
49251SOL    HW149592   4.309  12.961   7.820
49251SOL    HW249593   4.234  12.975   7.951
49252SOL     OW49594   2.115  13.049   7.122
49252SOL    HW149595   2.106  13.114   7.052
49252SOL    HW249596   2.152  12.972   7.078
49253SOL     OW49597   5.862   4.880   6.882
49253SOL    HW149598   5.937   4.883   6.823
49253SOL    HW249599   5.891   4.928   6.960
49254SOL     OW49600  10.474   3.380   4.538
49254SOL    HW149601  10.489   3.343   4.625
49254SOL    HW249602  10.450   3.305   4.484
49255SOL     OW49603   1.467  10.286   4.505
49255SOL    HW149604   1.430  10.364   4.462
49255SOL    HW249605   1.402  10.217   4.490
49256SOL     OW49606   4.006  11.537   3.612
49256SOL    HW149607   4.012  11.521   3.706
49256SOL    HW249608   3.951  11.466   3.579
49257SOL     OW49609   1.685   7.295  14.047
49257SOL    HW149610   1.769   7.299  14.001
49257SOL    HW249611   1.667   7.386  14.070
49258SOL     OW49612   8.104   8.963   8.034
49258SOL    HW149613   8.009   8.974   8.042
49258SOL    HW249614   8.131   9.031   7.971
49259SOL     OW49615  12.197   6.193  10.558
49259SOL    HW149616  12.158   6.263  10.506
49259SOL    HW249617  12.216   6.124  10.494
49260SOL     OW49618   3.951   6.235   7.977
49260SOL    HW149619   3.990   6.270   8.058
49260SOL    HW249620   4.004   6.272   7.907
49261SOL     OW49621   7.192   6.319   7.306
49261SOL    HW149622   7.214   6.328   7.399
49261SOL    HW249623   7.274   6.334   7.260
49262SOL     OW49624  11.609   8.750  10.453
49262SOL    HW149625  11.524   8.773  10.491
49262SOL    HW249626  11.588   8.698  10.376
49263SOL     OW49627   0.272   3.872   4.147
49263SOL    HW149628   0.317   3.956   4.153
49263SOL    HW249629   0.272   3.839   4.237
49264SOL     OW49630   8.330   0.697  12.415
49264SOL    HW149631   8.243   0.667  12.438
49264SOL    HW249632   8.364   0.737  12.495
49265SOL     OW49633   5.340   0.951   1.472
49265SOL    HW149634   5.275   0.882   1.486
49265SOL    HW249635   5.406   0.936   1.539
49266SOL     OW49636   1.002  14.038  13.476
49266SOL    HW149637   0.957  14.108  13.427
49266SOL    HW249638   0.942  14.015  13.546
49267SOL     OW49639  14.655   1.758   1.042
49267SOL    HW149640  14.701   1.800   0.969
49267SOL    HW249641  14.583   1.819   1.062
49268SOL     OW49642   2.384  12.772   0.226
49268SOL    HW149643   2.339  12.853   0.201
49268SOL    HW249644   2.331  12.735   0.296
49269SOL     OW49645  13.311   5.693  12.105
49269SOL    HW149646  13.371   5.634  12.150
49269SOL    HW249647  13.249   5.634  12.060
49270SOL     OW49648   7.042   3.418   9.931
49270SOL    HW149649   7.137   3.413   9.943
49270SOL    HW249650   7.028   3.392   9.840
49271SOL     OW49651  11.971  10.919   6.888
49271SOL    HW149652  11.985  10.825   6.894
49271SOL    HW249653  12.057  10.955   6.866
49272SOL     OW49654   9.968  13.642   4.741
49272SOL    HW149655   9.932  13.613   4.825
49272SOL    HW249656   9.988  13.735   4.755
49273SOL     OW49657   2.363  11.927   0.486
49273SOL    HW149658   2.295  11.909   0.551
49273SOL    HW249659   2.441  11.946   0.538
49274SOL     OW49660  12.393   8.413   3.197
49274SOL    HW149661  12.381   8.502   3.164
49274SOL    HW249662  12.423   8.364   3.120
49275SOL     OW49663   0.067   4.700   8.028
49275SOL    HW149664   0.061   4.639   8.102
49275SOL    HW249665   0.159   4.724   8.024
49276SOL     OW49666   0.311   8.042   0.642
49276SOL    HW149667   0.264   7.959   0.634
49276SOL    HW249668   0.273   8.084   0.720
49277SOL     OW49669  14.554   6.692   6.545
49277SOL    HW149670  14.620   6.633   6.510
49277SOL    HW249671  14.545   6.668   6.637
49278SOL     OW49672   7.644  11.696  11.654
49278SOL    HW149673   7.624  11.783  11.690
49278SOL    HW249674   7.575  11.640  11.690
49279SOL     OW49675  14.439   0.758  12.910
49279SOL    HW149676  14.405   0.737  12.997
49279SOL    HW249677  14.393   0.839  12.885
49280SOL     OW49678   5.136   2.665   5.148
49280SOL    HW149679   5.212   2.711   5.186
49280SOL    HW249680   5.064   2.726   5.161
49281SOL     OW49681   5.492   3.276  11.903
49281SOL    HW149682   5.487   3.183  11.926
49281SOL    HW249683   5.505   3.277  11.809
49282SOL     OW49684  10.753   0.038   4.115
49282SOL    HW149685  10.663   0.007   4.103
49282SOL    HW249686  10.782   0.064   4.028
49283SOL     OW49687   0.351   5.577  12.301
49283SOL    HW149688   0.390   5.623  12.375
49283SOL    HW249689   0.286   5.638  12.267
49284SOL     OW49690  13.786  11.246   1.931
49284SOL    HW149691  13.793  11.326   1.983
49284SOL    HW249692  13.876  11.225   1.907
49285SOL     OW49693   3.789  10.760  13.427
49285SOL    HW149694   3.752  10.757  13.339
49285SOL    HW249695   3.878  10.727  13.416
49286SOL     OW49696  10.228   6.682   7.072
49286SOL    HW149697  10.297   6.749   7.075
49286SOL    HW249698  10.264   6.609   7.123
49287SOL     OW49699  13.191   2.178   0.736
49287SOL    HW149700  13.232   2.157   0.652
49287SOL    HW249701  13.101   2.200   0.714
49288SOL     OW49702   4.005   1.222  13.678
49288SOL    HW149703   3.988   1.315  13.692
49288SOL    HW249704   4.096   1.219  13.648
49289SOL     OW49705  12.672   1.604   3.767
49289SOL    HW149706  12.715   1.684   3.797
49289SOL    HW249707  12.704   1.535   3.826
49290SOL     OW49708   5.530   6.782  13.587
49290SOL    HW149709   5.437   6.785  13.563
49290SOL    HW249710   5.576   6.804  13.506
49291SOL     OW49711  11.709   7.706   2.040
49291SOL    HW149712  11.750   7.783   2.000
49291SOL    HW249713  11.624   7.698   1.997
49292SOL     OW49714   3.670   1.883   9.166
49292SOL    HW149715   3.719   1.873   9.084
49292SOL    HW249716   3.669   1.795   9.205
49293SOL     OW49717   1.324   5.503   7.051
49293SOL    HW149718   1.387   5.567   7.084
49293SOL    HW249719   1.244   5.521   7.102
49294SOL     OW49720   8.026   1.518   7.705
49294SOL    HW149721   8.016   1.423   7.700
49294SOL    HW249722   8.107   1.536   7.657
49295SOL     OW49723   8.961   9.239  11.180
49295SOL    HW149724   8.980   9.323  11.138
49295SOL    HW249725   8.980   9.173  11.114
49296SOL     OW49726   7.825   5.970   1.806
49296SOL    HW149727   7.735   5.957   1.777
49296SOL    HW249728   7.820   5.967   1.902
49297SOL     OW49729   8.350  10.843   5.244
49297SOL    HW149730   8.270  10.835   5.192
49297SOL    HW249731   8.337  10.783   5.318
49298SOL     OW49732  12.175  12.637   9.751
49298SOL    HW149733  12.139  12.565   9.803
49298SOL    HW249734  12.111  12.707   9.758
49299SOL     OW49735   7.231  13.364   0.993
49299SOL    HW149736   7.219  13.318   0.910
49299SOL    HW249737   7.247  13.295   1.057
49300SOL     OW49738   9.382   1.068   7.715
49300SOL    HW149739   9.363   0.987   7.667
49300SOL    HW249740   9.473   1.089   7.692
49301SOL     OW49741   9.599  11.702  13.073
49301SOL    HW149742   9.655  11.719  12.997
49301SOL    HW249743   9.509  11.714  13.040
49302SOL     OW49744  11.688   8.991  12.106
49302SOL    HW149745  11.693   8.988  12.011
49302SOL    HW249746  11.650   8.907  12.131
49303SOL     OW49747  13.928   9.386  13.682
49303SOL    HW149748  13.956   9.301  13.714
49303SOL    HW249749  13.994   9.447  13.716
49304SOL     OW49750   2.698   1.758  11.499
49304SOL    HW149751   2.722   1.715  11.418
49304SOL    HW249752   2.613   1.720  11.523
49305SOL     OW49753  12.456  11.987   1.059
49305SOL    HW149754  12.448  11.926   1.132
49305SOL    HW249755  12.371  12.031   1.055
49306SOL     OW49756  12.294  14.519   0.132
49306SOL    HW149757  12.223  14.476   0.180
49306SOL    HW249758  12.315  14.457   0.062
49307SOL     OW49759   6.298  10.863  11.230
49307SOL    HW149760   6.337  10.885  11.314
49307SOL    HW249761   6.291  10.947  11.184
49308SOL     OW49762  13.172   0.065   1.426
49308SOL    HW149763  13.200   0.157   1.432
49308SOL    HW249764  13.107   0.056   1.495
49309SOL     OW49765  10.388  11.460   1.481
49309SOL    HW149766  10.351  11.468   1.569
49309SOL    HW249767  10.318  11.419   1.430
49310SOL     OW49768   6.139   5.475   5.750
49310SOL    HW149769   6.044   5.484   5.745
49310SOL    HW249770   6.170   5.564   5.763
49311SOL     OW49771  14.551   2.726   7.481
49311SOL    HW149772  14.498   2.698   7.555
49311SOL    HW249773  14.499   2.793   7.437
49312SOL     OW49774   5.759  13.027   8.656
49312SOL    HW149775   5.825  13.032   8.586
49312SOL    HW249776   5.676  13.016   8.610
49313SOL     OW49777   3.625   2.972   2.406
49313SOL    HW149778   3.709   2.953   2.365
49313SOL    HW249779   3.642   3.050   2.459
49314SOL     OW49780   8.182   3.295  12.804
49314SOL    HW149781   8.203   3.204  12.822
49314SOL    HW249782   8.098   3.310  12.846
49315SOL     OW49783   7.784   0.158  14.000
49315SOL    HW149784   7.780   0.113  14.084
49315SOL    HW249785   7.781   0.251  14.023
49316SOL     OW49786   7.201   5.581   3.513
49316SOL    HW149787   7.168   5.671   3.522
49316SOL    HW249788   7.151   5.545   3.440
49317SOL     OW49789   0.071   5.828  13.331
49317SOL    HW149790   0.060   5.817  13.237
49317SOL    HW249791   0.106   5.744  13.361
49318SOL     OW49792   1.599  14.740   8.048
49318SOL    HW149793   1.606  14.820   7.995
49318SOL    HW249794   1.520  14.697   8.017
49319SOL     OW49795  10.435   2.596  14.684
49319SOL    HW149796  10.464   2.675  14.639
49319SOL    HW249797  10.515   2.561  14.724
49320SOL     OW49798  13.043   8.685   1.501
49320SOL    HW149799  13.076   8.676   1.590
49320SOL    HW249800  12.955   8.722   1.512
49321SOL     OW49801   5.313  14.280   9.809
49321SOL    HW149802   5.291  14.254   9.719
49321SOL    HW249803   5.265  14.217   9.864
49322SOL     OW49804   8.330   6.775  10.206
49322SOL    HW149805   8.266   6.755  10.138
49322SOL    HW249806   8.281   6.769  10.288
49323SOL     OW49807   9.956   8.247   9.845
49323SOL    HW149808  10.015   8.232   9.771
49323SOL    HW249809   9.938   8.341   9.842
49324SOL     OW49810   5.942   0.402   9.041
49324SOL    HW149811   5.853   0.437   9.029
49324SOL    HW249812   5.995   0.452   8.979
49325SOL     OW49813   8.371   6.113  12.736
49325SOL    HW149814   8.406   6.202  12.730
49325SOL    HW249815   8.342   6.092  12.647
49326SOL     OW49816   5.627   5.100   7.858
49326SOL    HW149817   5.615   5.186   7.897
49326SOL    HW249818   5.716   5.102   7.822
49327SOL     OW49819   8.083  14.824   0.168
49327SOL    HW149820   8.026  14.874   0.226
49327SOL    HW249821   8.046  14.736   0.168
49328SOL     OW49822   3.035   4.953  10.395
49328SOL    HW149823   2.998   5.035  10.362
49328SOL    HW249824   2.959   4.905  10.430
49329SOL     OW49825   0.493   2.157   7.625
49329SOL    HW149826   0.539   2.080   7.656
49329SOL    HW249827   0.554   2.198   7.563
49330SOL     OW49828   7.004   2.554   3.510
49330SOL    HW149829   7.051   2.564   3.428
49330SOL    HW249830   7.013   2.639   3.553
49331SOL     OW49831  10.825  12.880   5.829
49331SOL    HW149832  10.775  12.821   5.771
49331SOL    HW249833  10.904  12.900   5.779
49332SOL     OW49834   9.490   6.760  13.836
49332SOL    HW149835   9.456   6.777  13.924
49332SOL    HW249836   9.547   6.835  13.818
49333SOL     OW49837   2.574  10.351  13.382
49333SOL    HW149838   2.509  10.382  13.319
49333SOL    HW249839   2.571  10.415  13.453
49334SOL     OW49840   4.096   2.755   6.808
49334SOL    HW149841   4.022   2.806   6.773
49334SOL    HW249842   4.172   2.811   6.792
49335SOL     OW49843   3.471   6.596  14.723
49335SOL    HW149844   3.492   6.681  14.763
49335SOL    HW249845   3.539   6.583  14.658
49336SOL     OW49846   8.123   8.635   1.843
49336SOL    HW149847   8.044   8.647   1.896
49336SOL    HW249848   8.133   8.718   1.797
49337SOL     OW49849   9.771   7.445  10.814
49337SOL    HW149850   9.791   7.374  10.753
49337SOL    HW249851   9.815   7.419  10.895
49338SOL     OW49852  14.036   8.521   4.641
49338SOL    HW149853  14.076   8.438   4.616
49338SOL    HW249854  14.077   8.586   4.583
49339SOL     OW49855  14.434   8.031  10.506
49339SOL    HW149856  14.520   8.053  10.543
49339SOL    HW249857  14.451   7.954  10.452
49340SOL     OW49858   4.468   9.295   0.051
49340SOL    HW149859   4.445   9.218   0.101
49340SOL    HW249860   4.436   9.277  14.839
49341SOL     OW49861  14.047   4.741   6.876
49341SOL    HW149862  14.050   4.743   6.780
49341SOL    HW249863  14.092   4.821   6.903
49342SOL     OW49864   6.722  13.678   8.902
49342SOL    HW149865   6.659  13.614   8.868
49342SOL    HW249866   6.756  13.639   8.983
49343SOL     OW49867   1.689  14.339   7.016
49343SOL    HW149868   1.598  14.313   7.029
49343SOL    HW249869   1.685  14.427   6.981
49344SOL     OW49870   0.234   9.639  14.096
49344SOL    HW149871   0.272   9.584  14.165
49344SOL    HW249872   0.250   9.729  14.125
49345SOL     OW49873   4.396  13.463  11.481
49345SOL    HW149874   4.484  13.441  11.449
49345SOL    HW249875   4.359  13.379  11.508
49346SOL     OW49876   4.263   5.054   7.197
49346SOL    HW149877   4.240   5.079   7.107
49346SOL    HW249878   4.201   4.985   7.219
49347SOL     OW49879  10.044  11.020   2.311
49347SOL    HW149880  10.110  11.032   2.243
49347SOL    HW249881   9.972  10.976   2.267
49348SOL     OW49882  11.687   5.470  14.798
49348SOL    HW149883  11.727   5.387  14.770
49348SOL    HW249884  11.715   5.480   0.012
49349SOL     OW49885   3.981  11.872   7.794
49349SOL    HW149886   3.934  11.815   7.733
49349SOL    HW249887   4.024  11.936   7.739
49350SOL     OW49888   8.432  10.329  13.929
49350SOL    HW149889   8.460  10.393  13.862
49350SOL    HW249890   8.426  10.380  14.009
49351SOL     OW49891   6.285   4.437   4.826
49351SOL    HW149892   6.334   4.373   4.877
49351SOL    HW249893   6.206   4.453   4.877
49352SOL     OW49894  12.451   8.565   0.513
49352SOL    HW149895  12.364   8.591   0.483
49352SOL    HW249896  12.476   8.493   0.456
49353SOL     OW49897  13.592   8.429  12.526
49353SOL    HW149898  13.509   8.431  12.477
49353SOL    HW249899  13.659   8.444  12.459
49354SOL     OW49900   6.227  12.034   6.125
49354SOL    HW149901   6.155  11.976   6.101
49354SOL    HW249902   6.207  12.061   6.215
49355SOL     OW49903  12.969   0.191   0.387
49355SOL    HW149904  12.959   0.267   0.444
49355SOL    HW249905  13.047   0.210   0.335
49356SOL     OW49906   6.052  13.085   7.261
49356SOL    HW149907   5.981  13.041   7.213
49356SOL    HW249908   6.132  13.060   7.214
49357SOL     OW49909  10.464   7.457  13.389
49357SOL    HW149910  10.500   7.503  13.314
49357SOL    HW249911  10.513   7.491  13.464
49358SOL     OW49912  12.315   0.203   7.894
49358SOL    HW149913  12.320   0.291   7.859
49358SOL    HW249914  12.301   0.147   7.817
49359SOL     OW49915   8.443  11.989   8.364
49359SOL    HW149916   8.536  12.014   8.366
49359SOL    HW249917   8.404  12.038   8.436
49360SOL     OW49918   5.795   8.691   2.417
49360SOL    HW149919   5.777   8.728   2.504
49360SOL    HW249920   5.732   8.620   2.408
49361SOL     OW49921   1.620  14.326   0.414
49361SOL    HW149922   1.597  14.373   0.334
49361SOL    HW249923   1.635  14.236   0.384
49362SOL     OW49924   6.758  12.751   2.277
49362SOL    HW149925   6.832  12.693   2.262
49362SOL    HW249926   6.681  12.694   2.273
49363SOL     OW49927   6.447  13.515   6.299
49363SOL    HW149928   6.357  13.498   6.324
49363SOL    HW249929   6.482  13.571   6.368
49364SOL     OW49930   3.767   7.881   0.495
49364SOL    HW149931   3.769   7.897   0.400
49364SOL    HW249932   3.729   7.793   0.504
49365SOL     OW49933   7.664   1.660   5.989
49365SOL    HW149934   7.579   1.693   5.959
49365SOL    HW249935   7.688   1.718   6.061
49366SOL     OW49936   9.137   0.153   9.883
49366SOL    HW149937   9.230   0.174   9.875
49366SOL    HW249938   9.130   0.063   9.854
49367SOL     OW49939  11.575   3.484   1.325
49367SOL    HW149940  11.594   3.516   1.413
49367SOL    HW249941  11.571   3.389   1.334
49368SOL     OW49942   4.259  13.474   1.707
49368SOL    HW149943   4.189  13.494   1.769
49368SOL    HW249944   4.228  13.397   1.659
49369SOL     OW49945  13.850   9.200   3.098
49369SOL    HW149946  13.759   9.171   3.103
49369SOL    HW249947  13.880   9.202   3.188
49370SOL     OW49948   6.770  13.573  11.916
49370SOL    HW149949   6.749  13.660  11.948
49370SOL    HW249950   6.696  13.549  11.860
49371SOL     OW49951   4.954   7.556   3.837
49371SOL    HW149952   4.902   7.634   3.819
49371SOL    HW249953   4.913   7.487   3.785
49372SOL     OW49954   0.044   4.783   4.861
49372SOL    HW149955   0.070   4.805   4.951
49372SOL    HW249956   0.023   4.690   4.865
49373SOL     OW49957   9.136   9.161   8.534
49373SOL    HW149958   9.200   9.189   8.599
49373SOL    HW249959   9.189   9.122   8.464
49374SOL     OW49960   1.213  11.839   1.909
49374SOL    HW149961   1.265  11.832   1.990
49374SOL    HW249962   1.153  11.765   1.913
49375SOL     OW49963   8.970   0.321   8.397
49375SOL    HW149964   9.037   0.282   8.453
49375SOL    HW249965   8.898   0.258   8.398
49376SOL     OW49966   1.473   2.021  11.851
49376SOL    HW149967   1.461   2.103  11.899
49376SOL    HW249968   1.387   2.004  11.812
49377SOL     OW49969   6.293   3.062   5.014
49377SOL    HW149970   6.255   2.984   4.974
49377SOL    HW249971   6.353   3.028   5.080
49378SOL     OW49972   5.870   1.437  12.685
49378SOL    HW149973   5.965   1.425  12.680
49378SOL    HW249974   5.855   1.522  12.644
49379SOL     OW49975   7.172  14.760   8.096
49379SOL    HW149976   7.155  14.666   8.088
49379SOL    HW249977   7.092  14.797   8.132
49380SOL     OW49978  13.016   6.811   9.453
49380SOL    HW149979  13.063   6.801   9.370
49380SOL    HW249980  13.024   6.725   9.495
49381SOL     OW49981  10.827   1.256  12.237
49381SOL    HW149982  10.876   1.305  12.303
49381SOL    HW249983  10.799   1.322  12.174
49382SOL     OW49984   4.656   4.052  14.198
49382SOL    HW149985   4.740   4.092  14.174
49382SOL    HW249986   4.669   4.021  14.287
49383SOL     OW49987  13.512   1.990  12.197
49383SOL    HW149988  13.450   1.975  12.268
49383SOL    HW249989  13.472   1.950  12.120
49384SOL     OW49990  11.292   6.660   8.507
49384SOL    HW149991  11.360   6.690   8.447
49384SOL    HW249992  11.231   6.612   8.452
49385SOL     OW49993   8.355   7.549  10.266
49385SOL    HW149994   8.345   7.587  10.179
49385SOL    HW249995   8.344   7.455  10.253
49386SOL     OW49996   2.461   3.550   4.376
49386SOL    HW149997   2.396   3.616   4.399
49386SOL    HW249998   2.426   3.469   4.414
49387SOL     OW49999   5.314  12.705  10.167
49387SOL    HW150000   5.254  12.745  10.104
49387SOL    HW250001   5.277  12.728  10.253
49388SOL     OW50002   7.971   2.805   2.454
49388SOL    HW150003   8.052   2.793   2.504
49388SOL    HW250004   7.979   2.893   2.417
49389SOL     OW50005   5.718   3.190  10.193
49389SOL    HW150006   5.781   3.212  10.262
49389SOL    HW250007   5.646   3.251  10.206
49390SOL     OW50008   4.187  14.761   0.006
49390SOL    HW150009   4.150  14.842   0.041
49390SOL    HW250010   4.119  14.727  14.824
49391SOL     OW50011   8.090  12.072   5.909
49391SOL    HW150012   8.147  12.001   5.940
49391SOL    HW250013   8.149  12.134   5.866
49392SOL     OW50014  11.174   2.445  13.551
49392SOL    HW150015  11.163   2.519  13.611
49392SOL    HW250016  11.231   2.385  13.599
49393SOL     OW50017  14.647   1.750  11.181
49393SOL    HW150018  14.602   1.680  11.135
49393SOL    HW250019  14.606   1.752  11.268
49394SOL     OW50020   6.012  12.214  11.420
49394SOL    HW150021   5.987  12.209  11.512
49394SOL    HW250022   5.998  12.305  11.396
49395SOL     OW50023  12.515  14.805  13.864
49395SOL    HW150024  12.474  14.718  13.865
49395SOL    HW250025  12.457  14.858  13.809
49396SOL     OW50026  10.348  12.031   1.622
49396SOL    HW150027  10.371  11.968   1.554
49396SOL    HW250028  10.329  11.977   1.700
49397SOL     OW50029   8.778  14.853   5.980
49397SOL    HW150030   8.778   0.063   5.938
49397SOL    HW250031   8.768  14.791   5.908
49398SOL     OW50032  11.311  12.234   1.664
49398SOL    HW150033  11.309  12.328   1.682
49398SOL    HW250034  11.401  12.207   1.684
49399SOL     OW50035   9.466   4.035   1.428
49399SOL    HW150036   9.410   4.047   1.504
49399SOL    HW250037   9.419   3.972   1.373
49400SOL     OW50038  11.241   1.420  10.058
49400SOL    HW150039  11.209   1.435   9.969
49400SOL    HW250040  11.293   1.498  10.077
49401SOL     OW50041   4.378   9.237  14.410
49401SOL    HW150042   4.454   9.191  14.375
49401SOL    HW250043   4.380   9.323  14.367
49402SOL     OW50044   8.375  11.251   4.470
49402SOL    HW150045   8.417  11.173   4.508
49402SOL    HW250046   8.302  11.270   4.530
49403SOL     OW50047  10.659   3.036  13.015
49403SOL    HW150048  10.663   3.120  13.060
49403SOL    HW250049  10.567   3.027  12.990
49404SOL     OW50050   4.900   3.110  13.464
49404SOL    HW150051   4.858   3.164  13.530
49404SOL    HW250052   4.837   3.039  13.447
49405SOL     OW50053   7.436   6.307   2.487
49405SOL    HW150054   7.411   6.378   2.546
49405SOL    HW250055   7.426   6.344   2.399
49406SOL     OW50056   6.107   0.847   7.199
49406SOL    HW150057   6.198   0.854   7.170
49406SOL    HW250058   6.082   0.757   7.178
49407SOL     OW50059  12.738  14.872   1.478
49407SOL    HW150060  12.809  14.837   1.424
49407SOL    HW250061  12.783   0.039   1.551
49408SOL     OW50062  11.315   4.964  13.819
49408SOL    HW150063  11.225   4.931  13.821
49408SOL    HW250064  11.327   5.007  13.903
49409SOL     OW50065   8.164   8.847  14.602
49409SOL    HW150066   8.092   8.909  14.591
49409SOL    HW250067   8.241   8.894  14.568
49410SOL     OW50068   1.926   5.955   4.693
49410SOL    HW150069   1.925   5.972   4.599
49410SOL    HW250070   1.833   5.959   4.718
49411SOL     OW50071   5.465   1.788   8.785
49411SOL    HW150072   5.425   1.731   8.720
49411SOL    HW250073   5.493   1.728   8.855
49412SOL     OW50074   6.298   2.439  13.470
49412SOL    HW150075   6.299   2.352  13.429
49412SOL    HW250076   6.213   2.475  13.446
49413SOL     OW50077   0.836   5.079   8.427
49413SOL    HW150078   0.823   5.167   8.462
49413SOL    HW250079   0.798   5.020   8.493
49414SOL     OW50080  11.332  11.010   8.019
49414SOL    HW150081  11.428  11.009   8.019
49414SOL    HW250082  11.308  10.963   7.939
49415SOL     OW50083   2.006   0.776   8.236
49415SOL    HW150084   1.974   0.800   8.323
49415SOL    HW250085   1.929   0.784   8.179
49416SOL     OW50086   7.155   3.246  10.352
49416SOL    HW150087   7.093   3.250  10.280
49416SOL    HW250088   7.223   3.186  10.321
49417SOL     OW50089   2.213   8.130   1.835
49417SOL    HW150090   2.119   8.116   1.849
49417SOL    HW250091   2.255   8.080   1.906
49418SOL     OW50092  11.388   4.486   7.084
49418SOL    HW150093  11.450   4.465   7.154
49418SOL    HW250094  11.304   4.497   7.130
49419SOL     OW50095   7.375   1.146  13.511
49419SOL    HW150096   7.342   1.230  13.544
49419SOL    HW250097   7.302   1.109  13.462
49420SOL     OW50098   9.567   3.342   1.163
49420SOL    HW150099   9.580   3.344   1.068
49420SOL    HW250100   9.518   3.422   1.181
49421SOL     OW50101   1.609  14.052   3.127
49421SOL    HW150102   1.547  13.981   3.109
49421SOL    HW250103   1.569  14.129   3.087
49422SOL     OW50104  14.564   8.597  13.448
49422SOL    HW150105  14.537   8.671  13.502
49422SOL    HW250106  14.618   8.637  13.379
49423SOL     OW50107   1.464   3.365  12.264
49423SOL    HW150108   1.518   3.356  12.185
49423SOL    HW250109   1.386   3.311  12.245
49424SOL     OW50110   3.020  11.695  12.469
49424SOL    HW150111   3.081  11.671  12.399
49424SOL    HW250112   3.072  11.747  12.530
49425SOL     OW50113   1.931   7.602   2.843
49425SOL    HW150114   1.958   7.600   2.751
49425SOL    HW250115   1.935   7.510   2.871
49426SOL     OW50116   1.951   6.148  14.046
49426SOL    HW150117   2.031   6.197  14.060
49426SOL    HW250118   1.926   6.117  14.134
49427SOL     OW50119  14.198   9.759   1.121
49427SOL    HW150120  14.225   9.751   1.030
49427SOL    HW250121  14.110   9.795   1.117
49428SOL     OW50122  14.366   0.794   0.958
49428SOL    HW150123  14.335   0.878   0.992
49428SOL    HW250124  14.296   0.732   0.978
49429SOL     OW50125   1.667   3.362   8.520
49429SOL    HW150126   1.729   3.297   8.487
49429SOL    HW250127   1.715   3.406   8.590
49430SOL     OW50128  13.956  10.834   8.293
49430SOL    HW150129  13.927  10.916   8.253
49430SOL    HW250130  14.031  10.807   8.240
49431SOL     OW50131  13.111   6.430  11.297
49431SOL    HW150132  13.072   6.349  11.265
49431SOL    HW250133  13.055   6.456  11.370
49432SOL     OW50134  10.646   3.855   4.956
49432SOL    HW150135  10.704   3.840   5.031
49432SOL    HW250136  10.705   3.861   4.881
49433SOL     OW50137  12.368  14.302   0.788
49433SOL    HW150138  12.450  14.346   0.814
49433SOL    HW250139  12.397  14.218   0.752
49434SOL     OW50140  11.438   0.700  10.779
49434SOL    HW150141  11.504   0.770  10.782
49434SOL    HW250142  11.402   0.704  10.691
49435SOL     OW50143   9.774  14.401   1.112
49435SOL    HW150144   9.853  14.422   1.061
49435SOL    HW250145   9.736  14.326   1.066
49436SOL     OW50146   1.553  14.654   5.882
49436SOL    HW150147   1.470  14.702   5.879
49436SOL    HW250148   1.540  14.588   5.950
49437SOL     OW50149  13.038  11.164   2.370
49437SOL    HW150150  12.969  11.221   2.405
49437SOL    HW250151  13.009  11.076   2.392
49438SOL     OW50152   2.569   9.101  12.222
49438SOL    HW150153   2.504   9.115  12.291
49438SOL    HW250154   2.607   9.016  12.242
49439SOL     OW50155  14.567   9.796   4.113
49439SOL    HW150156  14.519   9.725   4.071
49439SOL    HW250157  14.655   9.762   4.125
49440SOL     OW50158   4.705   1.709   2.790
49440SOL    HW150159   4.789   1.748   2.814
49440SOL    HW250160   4.653   1.783   2.757
49441SOL     OW50161   0.062   7.639   5.258
49441SOL    HW150162   0.148   7.600   5.240
49441SOL    HW250163   0.027   7.660   5.172
49442SOL     OW50164  10.440   3.719  12.956
49442SOL    HW150165  10.457   3.802  13.001
49442SOL    HW250166  10.520   3.668  12.971
49443SOL     OW50167  12.336   5.683  13.158
49443SOL    HW150168  12.338   5.608  13.217
49443SOL    HW250169  12.389   5.656  13.083
49444SOL     OW50170  13.136   5.125  13.535
49444SOL    HW150171  13.184   5.059  13.584
49444SOL    HW250172  13.175   5.123  13.448
49445SOL     OW50173   3.847   2.297  11.995
49445SOL    HW150174   3.849   2.353  11.918
49445SOL    HW250175   3.809   2.352  12.064
49446SOL     OW50176  11.976   3.088   7.877
49446SOL    HW150177  11.972   3.154   7.808
49446SOL    HW250178  12.007   3.009   7.832
49447SOL     OW50179  14.746   4.653  14.798
49447SOL    HW150180  14.695   4.581  14.761
49447SOL    HW250181  14.837   4.631  14.777
49448SOL     OW50182   5.480   0.586   5.408
49448SOL    HW150183   5.561   0.535   5.402
49448SOL    HW250184   5.505   0.674   5.383
49449SOL     OW50185  10.820  10.185   1.605
49449SOL    HW150186  10.738  10.163   1.649
49449SOL    HW250187  10.850  10.265   1.647
49450SOL     OW50188   7.683  14.138   2.974
49450SOL    HW150189   7.625  14.067   2.948
49450SOL    HW250190   7.629  14.217   2.971
49451SOL     OW50191  11.595   0.621   7.096
49451SOL    HW150192  11.546   0.558   7.149
49451SOL    HW250193  11.679   0.628   7.141
49452SOL     OW50194   8.805   6.709   7.616
49452SOL    HW150195   8.826   6.801   7.633
49452SOL    HW250196   8.784   6.706   7.523
49453SOL     OW50197   1.785   4.247   7.952
49453SOL    HW150198   1.726   4.276   7.884
49453SOL    HW250199   1.759   4.157   7.970
49454SOL     OW50200   1.874   3.969  13.522
49454SOL    HW150201   1.896   3.934  13.609
49454SOL    HW250202   1.915   3.908  13.461
49455SOL     OW50203  12.073   3.518  13.383
49455SOL    HW150204  12.041   3.519  13.293
49455SOL    HW250205  11.996   3.537  13.437
49456SOL     OW50206   4.623   2.626   6.397
49456SOL    HW150207   4.704   2.588   6.363
49456SOL    HW250208   4.598   2.691   6.332
49457SOL     OW50209   9.531   7.894   8.010
49457SOL    HW150210   9.465   7.876   8.076
49457SOL    HW250211   9.487   7.949   7.945
49458SOL     OW50212  10.250   2.431  12.181
49458SOL    HW150213  10.202   2.473  12.110
49458SOL    HW250214  10.210   2.466  12.261
49459SOL     OW50215   1.236  12.360   1.309
49459SOL    HW150216   1.276  12.292   1.363
49459SOL    HW250217   1.283  12.440   1.333
49460SOL     OW50218  13.709   8.067  11.677
49460SOL    HW150219  13.616   8.080  11.699
49460SOL    HW250220  13.735   8.150  11.636
49461SOL     OW50221   7.624  10.703  12.332
49461SOL    HW150222   7.575  10.691  12.251
49461SOL    HW250223   7.606  10.624  12.383
49462SOL     OW50224  14.138  12.638  11.113
49462SOL    HW150225  14.209  12.613  11.173
49462SOL    HW250226  14.115  12.556  11.068
49463SOL     OW50227   1.950   1.134  13.663
49463SOL    HW150228   1.958   1.193  13.738
49463SOL    HW250229   1.891   1.179  13.603
49464SOL     OW50230   3.791   7.451  11.456
49464SOL    HW150231   3.884   7.451  11.478
49464SOL    HW250232   3.787   7.425  11.364
49465SOL     OW50233   8.414  13.800   9.427
49465SOL    HW150234   8.392  13.864   9.360
49465SOL    HW250235   8.331  13.781   9.470
49466SOL     OW50236  11.295   6.103  10.225
49466SOL    HW150237  11.269   6.028  10.279
49466SOL    HW250238  11.361   6.148  10.277
49467SOL     OW50239   7.990   9.301  14.057
49467SOL    HW150240   7.959   9.373  14.112
49467SOL    HW250241   8.033   9.343  13.983
49468SOL     OW50242   4.343   4.795   4.658
49468SOL    HW150243   4.417   4.756   4.706
49468SOL    HW250244   4.312   4.724   4.602
49469SOL     OW50245  12.275   3.886   8.025
49469SOL    HW150246  12.213   3.828   7.981
49469SOL    HW250247  12.252   3.974   7.995
49470SOL     OW50248   2.908   7.345   4.338
49470SOL    HW150249   2.975   7.399   4.380
49470SOL    HW250250   2.957   7.277   4.292
49471SOL     OW50251  10.775  14.724  13.966
49471SOL    HW150252  10.712  14.795  13.952
49471SOL    HW250253  10.776  14.676  13.884
49472SOL     OW50254  12.322   4.463  13.879
49472SOL    HW150255  12.352   4.499  13.795
49472SOL    HW250256  12.399   4.468  13.936
49473SOL     OW50257   6.952   7.112  10.902
49473SOL    HW150258   6.859   7.107  10.883
49473SOL    HW250259   6.993   7.055  10.837
49474SOL     OW50260  10.742  13.601   6.417
49474SOL    HW150261  10.671  13.593   6.481
49474SOL    HW250262  10.805  13.660   6.458
49475SOL     OW50263   0.944   2.651   0.444
49475SOL    HW150264   0.973   2.575   0.393
49475SOL    HW250265   0.893   2.614   0.515
49476SOL     OW50266   4.376   2.081   5.144
49476SOL    HW150267   4.336   2.153   5.096
49476SOL    HW250268   4.415   2.122   5.222
49477SOL     OW50269   5.561  10.020   5.717
49477SOL    HW150270   5.632  10.084   5.715
49477SOL    HW250271   5.492  10.058   5.662
49478SOL     OW50272   2.099   8.460   5.063
49478SOL    HW150273   2.180   8.454   5.012
49478SOL    HW250274   2.112   8.535   5.121
49479SOL     OW50275  13.440   9.218   1.452
49479SOL    HW150276  13.423   9.310   1.473
49479SOL    HW250277  13.525   9.219   1.409
49480SOL     OW50278   7.321  14.480   2.902
49480SOL    HW150279   7.265  14.556   2.917
49480SOL    HW250280   7.313  14.462   2.808
49481SOL     OW50281  13.528   2.882   1.258
49481SOL    HW150282  13.504   2.806   1.310
49481SOL    HW250283  13.469   2.951   1.288
49482SOL     OW50284  14.459   0.608  13.550
49482SOL    HW150285  14.465   0.532  13.493
49482SOL    HW250286  14.412   0.577  13.627
49483SOL     OW50287   2.400  14.083   8.833
49483SOL    HW150288   2.394  14.038   8.918
49483SOL    HW250289   2.310  14.082   8.799
49484SOL     OW50290   0.175   4.551  13.123
49484SOL    HW150291   0.102   4.537  13.182
49484SOL    HW250292   0.201   4.642  13.139
49485SOL     OW50293   2.941  12.020   9.046
49485SOL    HW150294   3.001  11.946   9.055
49485SOL    HW250295   2.890  12.020   9.127
49486SOL     OW50296  12.788  11.111   3.168
49486SOL    HW150297  12.856  11.179   3.177
49486SOL    HW250298  12.793  11.061   3.249
49487SOL     OW50299   1.089  14.596   9.100
49487SOL    HW150300   1.162  14.573   9.042
49487SOL    HW250301   1.036  14.517   9.103
49488SOL     OW50302   0.095  10.615  11.260
49488SOL    HW150303   0.020  10.570  11.299
49488SOL    HW250304   0.111  10.689  11.319
49489SOL     OW50305  11.753   3.336  13.974
49489SOL    HW150306  11.706   3.394  13.915
49489SOL    HW250307  11.707   3.252  13.968
49490SOL     OW50308   7.120   9.282   2.756
49490SOL    HW150309   7.071   9.250   2.832
49490SOL    HW250310   7.064   9.349   2.717
49491SOL     OW50311  14.521  10.327  12.665
49491SOL    HW150312  14.593  10.390  12.667
49491SOL    HW250313  14.533  10.274  12.744
49492SOL     OW50314   8.221   3.801   6.836
49492SOL    HW150315   8.279   3.867   6.797
49492SOL    HW250316   8.206   3.738   6.766
49493SOL     OW50317   6.613   8.952   3.024
49493SOL    HW150318   6.668   8.999   3.087
49493SOL    HW250319   6.584   9.020   2.963
49494SOL     OW50320  10.829  10.558   0.245
49494SOL    HW150321  10.868  10.495   0.305
49494SOL    HW250322  10.901  10.583   0.186
49495SOL     OW50323   7.671   9.002   4.794
49495SOL    HW150324   7.694   8.947   4.720
49495SOL    HW250325   7.663   9.090   4.757
49496SOL     OW50326   1.546   9.924  14.201
49496SOL    HW150327   1.458   9.886  14.195
49496SOL    HW250328   1.587   9.880  14.275
49497SOL     OW50329   5.510   6.796   5.005
49497SOL    HW150330   5.502   6.717   4.952
49497SOL    HW250331   5.484   6.768   5.093
49498SOL     OW50332  12.500  12.491  10.111
49498SOL    HW150333  12.419  12.471  10.066
49498SOL    HW250334  12.567  12.440  10.065
49499SOL     OW50335  11.169   5.378   1.103
49499SOL    HW150336  11.161   5.331   1.020
49499SOL    HW250337  11.136   5.466   1.085
49500SOL     OW50338  13.457   5.101   9.341
49500SOL    HW150339  13.381   5.159   9.349
49500SOL    HW250340  13.489   5.116   9.252
49501SOL     OW50341   1.256   9.478   0.471
49501SOL    HW150342   1.217   9.510   0.389
49501SOL    HW250343   1.245   9.550   0.532
49502SOL     OW50344   4.070   0.920   0.406
49502SOL    HW150345   4.070   0.950   0.315
49502SOL    HW250346   4.112   0.990   0.455
49503SOL     OW50347  12.108  11.311   3.917
49503SOL    HW150348  12.042  11.313   3.847
49503SOL    HW250349  12.160  11.233   3.898
49504SOL     OW50350   0.763   9.620   0.020
49504SOL    HW150351   0.831   9.665   0.070
49504SOL    HW250352   0.767   9.529   0.049
49505SOL     OW50353   9.884   8.049   2.630
49505SOL    HW150354   9.814   8.034   2.567
49505SOL    HW250355   9.885   7.970   2.684
49506SOL     OW50356  14.667  10.452   3.184
49506SOL    HW150357  14.716  10.371   3.174
49506SOL    HW250358  14.594  10.444   3.122
49507SOL     OW50359  11.034  12.724   2.348
49507SOL    HW150360  11.123  12.704   2.322
49507SOL    HW250361  11.040  12.808   2.395
49508SOL     OW50362   1.502  13.167   8.879
49508SOL    HW150363   1.478  13.259   8.895
49508SOL    HW250364   1.595  13.163   8.901
49509SOL     OW50365   8.549  10.507   5.460
49509SOL    HW150366   8.479  10.571   5.452
49509SOL    HW250367   8.547  10.480   5.552
49510SOL     OW50368   9.841   5.699   1.064
49510SOL    HW150369   9.905   5.676   0.996
49510SOL    HW250370   9.784   5.622   1.069
49511SOL     OW50371   0.603   1.642  11.389
49511SOL    HW150372   0.633   1.628  11.299
49511SOL    HW250373   0.677   1.685  11.433
49512SOL     OW50374   5.445   4.355   5.071
49512SOL    HW150375   5.457   4.260   5.068
49512SOL    HW250376   5.350   4.367   5.081
49513SOL     OW50377   3.882   0.830   2.735
49513SOL    HW150378   3.888   0.924   2.716
49513SOL    HW250379   3.923   0.821   2.821
49514SOL     OW50380   6.824   1.702  13.713
49514SOL    HW150381   6.812   1.735  13.802
49514SOL    HW250382   6.798   1.610  13.717
49515SOL     OW50383  12.625  12.977  12.315
49515SOL    HW150384  12.531  12.991  12.300
49515SOL    HW250385  12.630  12.938  12.402
49516SOL     OW50386  11.239  13.043   5.230
49516SOL    HW150387  11.171  12.977   5.249
49516SOL    HW250388  11.262  13.077   5.316
49517SOL     OW50389  10.059  13.710   1.330
49517SOL    HW150390  10.060  13.615   1.346
49517SOL    HW250391   9.993  13.744   1.390
49518SOL     OW50392   7.401   7.347   7.242
49518SOL    HW150393   7.425   7.440   7.246
49518SOL    HW250394   7.320   7.346   7.192
49519SOL     OW50395   7.005  14.631   7.224
49519SOL    HW150396   6.998  14.725   7.242
49519SOL    HW250397   7.058  14.626   7.145
49520SOL     OW50398   0.095  13.527   0.260
49520SOL    HW150399   0.012  13.557   0.224
49520SOL    HW250400   0.145  13.607   0.278
49521SOL     OW50401  11.964   8.414   5.265
49521SOL    HW150402  11.880   8.413   5.219
49521SOL    HW250403  11.996   8.325   5.260
49522SOL     OW50404   3.749   5.987  11.276
49522SOL    HW150405   3.844   6.000  11.268
49522SOL    HW250406   3.724   5.940  11.196
49523SOL     OW50407  12.005   2.109  11.775
49523SOL    HW150408  12.030   2.183  11.719
49523SOL    HW250409  12.041   2.130  11.860
49524SOL     OW50410   7.431   9.760   7.719
49524SOL    HW150411   7.497   9.820   7.684
49524SOL    HW250412   7.452   9.675   7.681
49525SOL     OW50413   2.725   7.207   7.900
49525SOL    HW150414   2.767   7.130   7.938
49525SOL    HW250415   2.786   7.238   7.833
49526SOL     OW50416   3.169  11.933  12.179
49526SOL    HW150417   3.249  11.880  12.185
49526SOL    HW250418   3.104  11.875  12.141
49527SOL     OW50419  10.757  11.928   5.475
49527SOL    HW150420  10.740  11.933   5.569
49527SOL    HW250421  10.671  11.914   5.436
49528SOL     OW50422   3.955   1.458   1.334
49528SOL    HW150423   4.042   1.469   1.372
49528SOL    HW250424   3.935   1.365   1.348
49529SOL     OW50425   5.783   8.450   3.597
49529SOL    HW150426   5.798   8.532   3.643
49529SOL    HW250427   5.741   8.394   3.662
49530SOL     OW50428   3.208  13.759   7.165
49530SOL    HW150429   3.257  13.745   7.246
49530SOL    HW250430   3.205  13.854   7.154
49531SOL     OW50431   6.054  12.205  13.080
49531SOL    HW150432   6.085  12.118  13.105
49531SOL    HW250433   6.131  12.248  13.041
49532SOL     OW50434   6.542   2.178   3.755
49532SOL    HW150435   6.479   2.229   3.806
49532SOL    HW250436   6.570   2.238   3.686
49533SOL     OW50437   5.203   9.629   2.047
49533SOL    HW150438   5.163   9.627   1.960
49533SOL    HW250439   5.136   9.593   2.105
49534SOL     OW50440   1.228   9.607   2.590
49534SOL    HW150441   1.234   9.669   2.662
49534SOL    HW250442   1.236   9.660   2.511
49535SOL     OW50443  12.599  14.412   0.885
49535SOL    HW150444  12.637  14.438   0.801
49535SOL    HW250445  12.644  14.467   0.949
49536SOL     OW50446  11.113   0.217  10.133
49536SOL    HW150447  11.110   0.286  10.067
49536SOL    HW250448  11.109   0.135  10.084
49537SOL     OW50449   5.031   2.466  11.681
49537SOL    HW150450   5.120   2.441  11.656
49537SOL    HW250451   5.031   2.562  11.679
49538SOL     OW50452   2.933  13.625  14.316
49538SOL    HW150453   2.953  13.714  14.287
49538SOL    HW250454   2.844  13.609  14.284
49539SOL     OW50455   1.937   9.117   1.768
49539SOL    HW150456   1.952   9.122   1.862
49539SOL    HW250457   2.018   9.079   1.733
49540SOL     OW50458  13.673   2.949   5.321
49540SOL    HW150459  13.609   3.007   5.280
49540SOL    HW250460  13.718   3.005   5.385
49541SOL     OW50461  10.645   9.673  11.670
49541SOL    HW150462  10.720   9.630  11.628
49541SOL    HW250463  10.669   9.766  11.670
49542SOL     OW50464   0.759   1.041   6.988
49542SOL    HW150465   0.822   1.038   6.915
49542SOL    HW250466   0.778   0.962   7.038
49543SOL     OW50467  11.943   6.106   1.095
49543SOL    HW150468  12.005   6.054   1.045
49543SOL    HW250469  11.994   6.182   1.123
49544SOL     OW50470  12.501   1.719   2.386
49544SOL    HW150471  12.590   1.700   2.355
49544SOL    HW250472  12.455   1.748   2.307
49545SOL     OW50473   2.523   5.074   4.056
49545SOL    HW150474   2.583   5.147   4.070
49545SOL    HW250475   2.495   5.082   3.965
49546SOL     OW50476   4.239  12.116   4.284
49546SOL    HW150477   4.334  12.110   4.296
49546SOL    HW250478   4.207  12.157   4.364
49547SOL     OW50479   6.059   5.512  11.580
49547SOL    HW150480   6.126   5.565  11.537
49547SOL    HW250481   6.053   5.433  11.527
49548SOL     OW50482  14.716   9.521  11.596
49548SOL    HW150483  14.740   9.608  11.565
49548SOL    HW250484  14.644   9.536  11.657
49549SOL     OW50485  11.526  13.298  13.866
49549SOL    HW150486  11.514  13.371  13.926
49549SOL    HW250487  11.477  13.226  13.905
49550SOL     OW50488   2.944  13.870  10.851
49550SOL    HW150489   2.943  13.813  10.773
49550SOL    HW250490   2.872  13.837  10.905
49551SOL     OW50491   5.956   7.517   0.980
49551SOL    HW150492   5.968   7.611   0.971
49551SOL    HW250493   5.959   7.484   0.890
49552SOL     OW50494  13.757   9.107  14.448
49552SOL    HW150495  13.839   9.060  14.436
49552SOL    HW250496  13.720   9.115  14.360
49553SOL     OW50497   2.120  13.878  11.989
49553SOL    HW150498   2.191  13.868  11.926
49553SOL    HW250499   2.114  13.972  12.005
49554SOL     OW50500  13.531  13.314   7.592
49554SOL    HW150501  13.561  13.234   7.549
49554SOL    HW250502  13.466  13.350   7.532
49555SOL     OW50503  10.500  11.928   7.945
49555SOL    HW150504  10.508  11.912   8.039
49555SOL    HW250505  10.587  11.958   7.919
49556SOL     OW50506   4.517  11.008   7.551
49556SOL    HW150507   4.446  11.070   7.566
49556SOL    HW250508   4.482  10.945   7.488
49557SOL     OW50509  13.709   8.304  11.101
49557SOL    HW150510  13.701   8.388  11.056
49557SOL    HW250511  13.802   8.297  11.124
49558SOL     OW50512   7.714   0.186   2.632
49558SOL    HW150513   7.688   0.101   2.666
49558SOL    HW250514   7.646   0.209   2.568
49559SOL     OW50515   8.568   4.505   2.088
49559SOL    HW150516   8.521   4.561   2.150
49559SOL    HW250517   8.624   4.564   2.039
49560SOL     OW50518   7.989  11.014   1.955
49560SOL    HW150519   8.020  11.098   1.990
49560SOL    HW250520   8.066  10.975   1.915
49561SOL     OW50521   0.746   4.150  10.768
49561SOL    HW150522   0.713   4.219  10.711
49561SOL    HW250523   0.789   4.089  10.709
49562SOL     OW50524   8.782   8.552   3.211
49562SOL    HW150525   8.774   8.457   3.210
49562SOL    HW250526   8.873   8.568   3.184
49563SOL     OW50527   5.059  10.185   8.461
49563SOL    HW150528   5.152  10.162   8.449
49563SOL    HW250529   5.023  10.184   8.373
49564SOL     OW50530   9.308   7.415   3.541
49564SOL    HW150531   9.228   7.409   3.593
49564SOL    HW250532   9.283   7.467   3.465
49565SOL     OW50533  13.696   7.889   5.359
49565SOL    HW150534  13.652   7.971   5.382
49565SOL    HW250535  13.756   7.912   5.288
49566SOL     OW50536   4.076   9.260   8.828
49566SOL    HW150537   4.027   9.320   8.884
49566SOL    HW250538   4.155   9.239   8.879
49567SOL     OW50539   9.869   2.321   7.535
49567SOL    HW150540   9.819   2.320   7.454
49567SOL    HW250541   9.848   2.238   7.578
49568SOL     OW50542  11.703  11.846  12.700
49568SOL    HW150543  11.706  11.931  12.656
49568SOL    HW250544  11.617  11.811  12.679
49569SOL     OW50545   5.532   4.928  13.275
49569SOL    HW150546   5.619   4.956  13.303
49569SOL    HW250547   5.472   4.976  13.331
49570SOL     OW50548  14.566   9.650  13.713
49570SOL    HW150549  14.533   9.568  13.676
49570SOL    HW250550  14.659   9.649  13.694
49571SOL     OW50551   7.238   1.589   6.153
49571SOL    HW150552   7.147   1.601   6.181
49571SOL    HW250553   7.289   1.599   6.233
49572SOL     OW50554   4.124   1.948   6.451
49572SOL    HW150555   4.044   2.001   6.445
49572SOL    HW250556   4.095   1.859   6.430
49573SOL     OW50557  11.644   5.022   4.725
49573SOL    HW150558  11.637   4.990   4.635
49573SOL    HW250559  11.725   5.074   4.725
49574SOL     OW50560   0.816   8.920  14.279
49574SOL    HW150561   0.771   8.847  14.236
49574SOL    HW250562   0.770   8.932  14.362
49575SOL     OW50563  11.958   8.309   6.197
49575SOL    HW150564  12.042   8.352   6.180
49575SOL    HW250565  11.976   8.216   6.186
49576SOL     OW50566   4.022   3.306   7.209
49576SOL    HW150567   3.966   3.382   7.221
49576SOL    HW250568   3.997   3.247   7.280
49577SOL     OW50569  11.464   2.809   0.204
49577SOL    HW150570  11.544   2.757   0.200
49577SOL    HW250571  11.397   2.748   0.236
49578SOL     OW50572  14.295  12.671   5.728
49578SOL    HW150573  14.325  12.588   5.692
49578SOL    HW250574  14.371  12.707   5.773
49579SOL     OW50575   9.076  11.382   4.692
49579SOL    HW150576   9.036  11.295   4.694
49579SOL    HW250577   9.168  11.365   4.673
49580SOL     OW50578   4.887  10.763  12.089
49580SOL    HW150579   4.907  10.691  12.150
49580SOL    HW250580   4.941  10.743  12.012
49581SOL     OW50581  10.093   1.478   5.908
49581SOL    HW150582  10.056   1.541   5.847
49581SOL    HW250583  10.174   1.448   5.866
49582SOL     OW50584   5.627   7.729   7.182
49582SOL    HW150585   5.619   7.812   7.229
49582SOL    HW250586   5.691   7.746   7.114
49583SOL     OW50587   3.770   4.885   1.217
49583SOL    HW150588   3.788   4.882   1.123
49583SOL    HW250589   3.857   4.883   1.258
49584SOL     OW50590  14.207   0.080   0.329
49584SOL    HW150591  14.242   0.167   0.345
49584SOL    HW250592  14.122   0.080   0.373
49585SOL     OW50593   7.208   5.346   4.796
49585SOL    HW150594   7.181   5.339   4.888
49585SOL    HW250595   7.148   5.411   4.759
49586SOL     OW50596   5.263  11.927   7.187
49586SOL    HW150597   5.267  11.838   7.151
49586SOL    HW250598   5.234  11.981   7.113
49587SOL     OW50599   1.889   3.895   2.011
49587SOL    HW150600   1.850   3.946   1.940
49587SOL    HW250601   1.884   3.953   2.087
49588SOL     OW50602   4.102  14.516  11.948
49588SOL    HW150603   4.183  14.495  11.901
49588SOL    HW250604   4.091  14.445  12.011
49589SOL     OW50605   5.953   2.934   7.432
49589SOL    HW150606   5.901   2.971   7.503
49589SOL    HW250607   6.037   2.910   7.473
49590SOL     OW50608   3.704   9.029   4.933
49590SOL    HW150609   3.621   9.007   4.976
49590SOL    HW250610   3.724   8.952   4.880
49591SOL     OW50611  13.800   4.474   7.549
49591SOL    HW150612  13.867   4.529   7.591
49591SOL    HW250613  13.726   4.477   7.610
49592SOL     OW50614   1.393  13.137   3.852
49592SOL    HW150615   1.469  13.160   3.799
49592SOL    HW250616   1.428  13.084   3.924
49593SOL     OW50617   2.483  13.260   2.180
49593SOL    HW150618   2.427  13.338   2.172
49593SOL    HW250619   2.547  13.283   2.247
49594SOL     OW50620   7.630  11.170  10.038
49594SOL    HW150621   7.685  11.180  10.116
49594SOL    HW250622   7.545  11.141  10.071
49595SOL     OW50623  13.332   1.107  12.156
49595SOL    HW150624  13.354   1.029  12.104
49595SOL    HW250625  13.410   1.122  12.210
49596SOL     OW50626   1.970   8.932   0.628
49596SOL    HW150627   1.977   8.874   0.553
49596SOL    HW250628   1.957   8.874   0.703
49597SOL     OW50629   1.971   6.245   0.150
49597SOL    HW150630   1.938   6.326   0.190
49597SOL    HW250631   1.895   6.206   0.109
49598SOL     OW50632  11.801   7.170   0.516
49598SOL    HW150633  11.820   7.129   0.600
49598SOL    HW250634  11.888   7.189   0.479
49599SOL     OW50635   8.291   1.246  10.392
49599SOL    HW150636   8.361   1.182  10.400
49599SOL    HW250637   8.249   1.247  10.478
49600SOL     OW50638   2.068  10.220   5.683
49600SOL    HW150639   2.001  10.285   5.666
49600SOL    HW250640   2.100  10.194   5.597
49601SOL     OW50641   0.403   5.906   1.275
49601SOL    HW150642   0.415   5.912   1.370
49601SOL    HW250643   0.381   5.995   1.249
49602SOL     OW50644  13.350  14.448   7.007
49602SOL    HW150645  13.315  14.527   7.047
49602SOL    HW250646  13.429  14.427   7.057
49603SOL     OW50647   7.233   4.302   6.962
49603SOL    HW150648   7.319   4.288   6.923
49603SOL    HW250649   7.192   4.216   6.961
49604SOL     OW50650   4.814  14.462  12.768
49604SOL    HW150651   4.782  14.408  12.840
49604SOL    HW250652   4.866  14.530  12.811
49605SOL     OW50653   8.004  11.243   5.035
49605SOL    HW150654   7.947  11.238   4.958
49605SOL    HW250655   8.058  11.164   5.030
49606SOL     OW50656   2.283   7.529   4.302
49606SOL    HW150657   2.230   7.485   4.369
49606SOL    HW250658   2.369   7.540   4.342
49607SOL     OW50659   0.832  12.510  11.946
49607SOL    HW150660   0.909  12.529  11.892
49607SOL    HW250661   0.774  12.585  11.933
49608SOL     OW50662  13.895   0.183   2.107
49608SOL    HW150663  13.830   0.205   2.174
49608SOL    HW250664  13.930   0.098   2.135
49609SOL     OW50665   4.874   2.562   2.243
49609SOL    HW150666   4.895   2.616   2.167
49609SOL    HW250667   4.805   2.503   2.212
49610SOL     OW50668   8.211   7.361   1.127
49610SOL    HW150669   8.193   7.267   1.117
49610SOL    HW250670   8.183   7.381   1.217
49611SOL     OW50671   2.272  13.618   1.804
49611SOL    HW150672   2.217  13.540   1.807
49611SOL    HW250673   2.362  13.585   1.808
49612SOL     OW50674   3.096  13.026  12.675
49612SOL    HW150675   3.010  12.992  12.699
49612SOL    HW250676   3.106  13.104  12.730
49613SOL     OW50677   0.466  11.206  14.558
49613SOL    HW150678   0.526  11.132  14.566
49613SOL    HW250679   0.414  11.202  14.638
49614SOL     OW50680   1.329   9.574   3.881
49614SOL    HW150681   1.268   9.549   3.951
49614SOL    HW250682   1.415   9.550   3.915
49615SOL     OW50683  12.295   5.852   5.575
49615SOL    HW150684  12.249   5.871   5.657
49615SOL    HW250685  12.358   5.784   5.598
49616SOL     OW50686   5.945  11.766   3.351
49616SOL    HW150687   5.990  11.842   3.387
49616SOL    HW250688   6.005  11.732   3.284
49617SOL     OW50689  12.475   1.661  11.176
49617SOL    HW150690  12.552   1.632  11.127
49617SOL    HW250691  12.509   1.729  11.235
49618SOL     OW50692   6.352  13.692   9.210
49618SOL    HW150693   6.328  13.761   9.271
49618SOL    HW250694   6.322  13.611   9.252
49619SOL     OW50695   8.189   7.552   5.267
49619SOL    HW150696   8.130   7.505   5.208
49619SOL    HW250697   8.227   7.483   5.322
49620SOL     OW50698  14.494   2.468   3.802
49620SOL    HW150699  14.470   2.491   3.891
49620SOL    HW250700  14.415   2.484   3.750
49621SOL     OW50701   8.871   8.064   3.489
49621SOL    HW150702   8.877   8.160   3.485
49621SOL    HW250703   8.941   8.038   3.548
49622SOL     OW50704   2.303   9.382   5.456
49622SOL    HW150705   2.330   9.290   5.453
49622SOL    HW250706   2.297   9.409   5.365
49623SOL     OW50707  14.868   8.604  10.100
49623SOL    HW150708  14.801   8.536  10.085
49623SOL    HW250709   0.040   8.608  10.017
49624SOL     OW50710   2.194   2.993   6.935
49624SOL    HW150711   2.263   3.054   6.909
49624SOL    HW250712   2.145   3.039   7.003
49625SOL     OW50713   0.415   4.355  10.460
49625SOL    HW150714   0.353   4.417  10.422
49625SOL    HW250715   0.381   4.337  10.548
49626SOL     OW50716   3.427   2.706   4.457
49626SOL    HW150717   3.425   2.648   4.382
49626SOL    HW250718   3.480   2.781   4.429
49627SOL     OW50719   9.994   9.403   7.191
49627SOL    HW150720  10.081   9.365   7.173
49627SOL    HW250721   9.980   9.387   7.284
49628SOL     OW50722   9.955  14.694   2.553
49628SOL    HW150723  10.014  14.765   2.575
49628SOL    HW250724   9.869  14.735   2.547
49629SOL     OW50725  11.364   3.135   8.340
49629SOL    HW150726  11.280   3.175   8.360
49629SOL    HW250727  11.345   3.073   8.269
49630SOL     OW50728   6.313   0.580   5.629
49630SOL    HW150729   6.388   0.558   5.574
49630SOL    HW250730   6.277   0.496   5.656
49631SOL     OW50731  10.066   5.960   3.625
49631SOL    HW150732  10.016   6.017   3.683
49631SOL    HW250733  10.043   5.989   3.537
49632SOL     OW50734  14.770  13.014   6.865
49632SOL    HW150735  14.794  12.944   6.805
49632SOL    HW250736  14.767  13.093   6.810
49633SOL     OW50737   6.862  10.194   0.112
49633SOL    HW150738   6.882  10.148   0.031
49633SOL    HW250739   6.906  10.142   0.180
49634SOL     OW50740  12.058   2.074   3.496
49634SOL    HW150741  12.058   2.155   3.545
49634SOL    HW250742  12.028   2.008   3.558
49635SOL     OW50743  13.584  13.682   0.563
49635SOL    HW150744  13.676  13.654   0.563
49635SOL    HW250745  13.588  13.777   0.578
49636SOL     OW50746   4.809   1.401   5.803
49636SOL    HW150747   4.835   1.460   5.874
49636SOL    HW250748   4.846   1.316   5.827
49637SOL     OW50749   2.848   2.871   2.362
49637SOL    HW150750   2.892   2.955   2.376
49637SOL    HW250751   2.918   2.806   2.371
49638SOL     OW50752  13.646   5.058  12.400
49638SOL    HW150753  13.552   5.075  12.391
49638SOL    HW250754  13.656   5.025  12.489
49639SOL     OW50755   6.434   3.467   9.663
49639SOL    HW150756   6.399   3.464   9.752
49639SOL    HW250757   6.382   3.403   9.614
49640SOL     OW50758   2.911   4.413   3.604
49640SOL    HW150759   2.900   4.353   3.677
49640SOL    HW250760   2.990   4.463   3.626
49641SOL     OW50761   3.332   8.060  10.665
49641SOL    HW150762   3.331   8.055  10.761
49641SOL    HW250763   3.380   7.981  10.638
49642SOL     OW50764  10.378  10.740   9.651
49642SOL    HW150765  10.338  10.825   9.632
49642SOL    HW250766  10.443  10.758   9.719
49643SOL     OW50767   7.344   3.745   3.797
49643SOL    HW150768   7.433   3.715   3.815
49643SOL    HW250769   7.351   3.840   3.791
49644SOL     OW50770   5.164   2.788   6.920
49644SOL    HW150771   5.236   2.793   6.983
49644SOL    HW250772   5.203   2.747   6.842
49645SOL     OW50773   7.630  12.173  11.495
49645SOL    HW150774   7.695  12.105  11.475
49645SOL    HW250775   7.576  12.178  11.416
49646SOL     OW50776   6.928   4.593   0.514
49646SOL    HW150777   6.943   4.592   0.420
49646SOL    HW250778   6.938   4.502   0.541
49647SOL     OW50779  11.380  14.331   0.545
49647SOL    HW150780  11.336  14.365   0.623
49647SOL    HW250781  11.392  14.238   0.563
49648SOL     OW50782   8.506   1.019   3.426
49648SOL    HW150783   8.431   1.021   3.368
49648SOL    HW250784   8.512   1.108   3.461
49649SOL     OW50785   8.833   3.504   2.571
49649SOL    HW150786   8.868   3.591   2.591
49649SOL    HW250787   8.753   3.498   2.623
49650SOL     OW50788  13.968   7.179  14.765
49650SOL    HW150789  13.896   7.242  14.758
49650SOL    HW250790  13.957   7.140  14.852
49651SOL     OW50791   0.648   4.605  10.287
49651SOL    HW150792   0.637   4.548  10.211
49651SOL    HW250793   0.727   4.572  10.330
49652SOL     OW50794   9.986   1.474  11.247
49652SOL    HW150795   9.988   1.395  11.301
49652SOL    HW250796  10.019   1.444  11.162
49653SOL     OW50797   0.284   3.312  13.018
49653SOL    HW150798   0.361   3.285  13.069
49653SOL    HW250799   0.248   3.387  13.066
49654SOL     OW50800   6.166  10.319   3.319
49654SOL    HW150801   6.147  10.239   3.369
49654SOL    HW250802   6.259  10.311   3.297
49655SOL     OW50803   9.273   2.908   5.549
49655SOL    HW150804   9.344   2.949   5.598
49655SOL    HW250805   9.266   2.959   5.468
49656SOL     OW50806   1.542   0.911  10.986
49656SOL    HW150807   1.487   0.892  10.911
49656SOL    HW250808   1.504   0.860  11.058
49657SOL     OW50809   7.323   1.419   0.722
49657SOL    HW150810   7.295   1.357   0.789
49657SOL    HW250811   7.259   1.490   0.728
49658SOL     OW50812   4.448  10.623   7.444
49658SOL    HW150813   4.426  10.713   7.424
49658SOL    HW250814   4.537  10.627   7.478
49659SOL     OW50815   5.182  10.671   3.674
49659SOL    HW150816   5.239  10.703   3.604
49659SOL    HW250817   5.122  10.611   3.630
49660SOL     OW50818   8.528   7.373  13.561
49660SOL    HW150819   8.608   7.364  13.613
49660SOL    HW250820   8.498   7.462  13.579
49661SOL     OW50821  13.799  13.447  13.331
49661SOL    HW150822  13.719  13.485  13.295
49661SOL    HW250823  13.773  13.361  13.362
49662SOL     OW50824  11.516  13.770   8.181
49662SOL    HW150825  11.437  13.760   8.234
49662SOL    HW250826  11.538  13.863   8.187
49663SOL     OW50827  12.799   8.570   0.857
49663SOL    HW150828  12.808   8.666   0.853
49663SOL    HW250829  12.708   8.557   0.883
49664SOL     OW50830   4.512   4.991  14.753
49664SOL    HW150831   4.435   4.947  14.715
49664SOL    HW250832   4.527   5.066  14.696
49665SOL     OW50833   6.600   4.036  14.797
49665SOL    HW150834   6.598   3.992  14.712
49665SOL    HW250835   6.599   3.964  14.861
49666SOL     OW50836   8.493  12.904   4.403
49666SOL    HW150837   8.447  12.985   4.422
49666SOL    HW250838   8.506  12.905   4.308
49667SOL     OW50839   6.641  11.442   6.384
49667SOL    HW150840   6.675  11.406   6.302
49667SOL    HW250841   6.548  11.454   6.369
49668SOL     OW50842   3.035  10.811   6.409
49668SOL    HW150843   2.988  10.778   6.486
49668SOL    HW250844   3.101  10.744   6.392
49669SOL     OW50845   5.563  10.963  12.645
49669SOL    HW150846   5.501  10.894  12.665
49669SOL    HW250847   5.604  10.984  12.729
49670SOL     OW50848   6.479  12.478   5.255
49670SOL    HW150849   6.569  12.458   5.229
49670SOL    HW250850   6.487  12.551   5.316
49671SOL     OW50851   7.560   5.957   1.724
49671SOL    HW150852   7.509   5.943   1.804
49671SOL    HW250853   7.495   5.973   1.656
49672SOL     OW50854   0.080  10.735  11.505
49672SOL    HW150855   0.032  10.754  11.586
49672SOL    HW250856   0.114  10.821  11.478
49673SOL     OW50857  10.266   8.775  11.586
49673SOL    HW150858  10.307   8.689  11.593
49673SOL    HW250859  10.280   8.816  11.671
49674SOL     OW50860   2.787   1.445   3.207
49674SOL    HW150861   2.804   1.381   3.276
49674SOL    HW250862   2.777   1.528   3.253
49675SOL     OW50863   8.890   9.536   4.108
49675SOL    HW150864   8.936   9.617   4.129
49675SOL    HW250865   8.923   9.472   4.171
49676SOL     OW50866   7.499  11.393   7.845
49676SOL    HW150867   7.440  11.381   7.919
49676SOL    HW250868   7.462  11.467   7.796
49677SOL     OW50869  11.471  11.973   5.603
49677SOL    HW150870  11.452  11.903   5.665
49677SOL    HW250871  11.391  12.025   5.600
49678SOL     OW50872  14.061  11.351   8.207
49678SOL    HW150873  14.036  11.292   8.278
49678SOL    HW250874  14.013  11.432   8.224
49679SOL     OW50875   5.260   9.958  13.224
49679SOL    HW150876   5.195   9.981  13.157
49679SOL    HW250877   5.332  10.020  13.210
49680SOL     OW50878  14.090   0.481   7.135
49680SOL    HW150879  14.026   0.488   7.063
49680SOL    HW250880  14.168   0.524   7.101
49681SOL     OW50881   0.255   2.917  12.816
49681SOL    HW150882   0.260   2.965  12.734
49681SOL    HW250883   0.339   2.872  12.823
49682SOL     OW50884   6.246   1.744   8.200
49682SOL    HW150885   6.178   1.691   8.159
49682SOL    HW250886   6.291   1.683   8.258
49683SOL     OW50887  10.507   2.062   9.285
49683SOL    HW150888  10.440   1.996   9.303
49683SOL    HW250889  10.534   2.093   9.371
49684SOL     OW50890   0.305   8.721  10.962
49684SOL    HW150891   0.359   8.642  10.970
49684SOL    HW250892   0.335   8.763  10.881
49685SOL     OW50893  14.404   4.638   7.502
49685SOL    HW150894  14.470   4.579   7.465
49685SOL    HW250895  14.332   4.579   7.526
49686SOL     OW50896   8.286   7.639  11.467
49686SOL    HW150897   8.372   7.612  11.434
49686SOL    HW250898   8.223   7.597  11.408
49687SOL     OW50899  11.020   5.415   6.116
49687SOL    HW150900  11.082   5.422   6.189
49687SOL    HW250901  10.987   5.504   6.105
49688SOL     OW50902   1.310  14.246   3.866
49688SOL    HW150903   1.374  14.203   3.809
49688SOL    HW250904   1.237  14.185   3.871
49689SOL     OW50905   1.729   9.691   4.501
49689SOL    HW150906   1.669   9.730   4.565
49689SOL    HW250907   1.678   9.686   4.420
49690SOL     OW50908  11.846   0.606  10.007
49690SOL    HW150909  11.873   0.697  10.021
49690SOL    HW250910  11.755   0.603  10.039
49691SOL     OW50911   3.989   7.883   2.223
49691SOL    HW150912   4.043   7.890   2.302
49691SOL    HW250913   3.936   7.963   2.224
49692SOL     OW50914   5.728   6.598   5.248
49692SOL    HW150915   5.764   6.685   5.261
49692SOL    HW250916   5.634   6.608   5.262
49693SOL     OW50917  10.033   0.194  13.630
49693SOL    HW150918  10.120   0.181  13.591
49693SOL    HW250919   9.976   0.209  13.555
49694SOL     OW50920   1.218  10.771   0.900
49694SOL    HW150921   1.266  10.842   0.943
49694SOL    HW250922   1.176  10.812   0.825
49695SOL     OW50923   5.750   5.031   5.509
49695SOL    HW150924   5.760   5.126   5.501
49695SOL    HW250925   5.707   5.004   5.428
49696SOL     OW50926   2.578   9.281   2.637
49696SOL    HW150927   2.661   9.267   2.593
49696SOL    HW250928   2.561   9.375   2.629
49697SOL     OW50929  13.789  14.690   4.030
49697SOL    HW150930  13.751  14.624   4.088
49697SOL    HW250931  13.872  14.713   4.072
49698SOL     OW50932   9.350  12.871   4.891
49698SOL    HW150933   9.329  12.949   4.943
49698SOL    HW250934   9.427  12.896   4.841
49699SOL     OW50935  11.597   2.272   7.265
49699SOL    HW150936  11.661   2.212   7.303
49699SOL    HW250937  11.532   2.286   7.334
49700SOL     OW50938   2.077  10.518  13.481
49700SOL    HW150939   2.009  10.573  13.521
49700SOL    HW250940   2.149  10.578  13.463
49701SOL     OW50941   2.972   8.347   7.683
49701SOL    HW150942   3.067   8.346   7.695
49701SOL    HW250943   2.953   8.265   7.637
49702SOL     OW50944   8.648  13.758  13.407
49702SOL    HW150945   8.578  13.823  13.401
49702SOL    HW250946   8.729  13.810  13.404
49703SOL     OW50947  11.180   8.970   5.908
49703SOL    HW150948  11.151   9.021   5.983
49703SOL    HW250949  11.257   9.017   5.875
49704SOL     OW50950   7.306  13.950   3.172
49704SOL    HW150951   7.367  13.878   3.152
49704SOL    HW250952   7.220  13.916   3.147
49705SOL     OW50953   2.769   3.381   9.493
49705SOL    HW150954   2.798   3.332   9.569
49705SOL    HW250955   2.793   3.326   9.418
49706SOL     OW50956  11.293  14.514  13.876
49706SOL    HW150957  11.237  14.457  13.931
49706SOL    HW250958  11.334  14.574  13.939
49707SOL     OW50959  11.389   4.712   0.427
49707SOL    HW150960  11.464   4.669   0.467
49707SOL    HW250961  11.321   4.645   0.426
49708SOL     OW50962   6.659   3.260   1.994
49708SOL    HW150963   6.667   3.339   1.939
49708SOL    HW250964   6.660   3.294   2.084
49709SOL     OW50965  13.685  13.343   8.083
49709SOL    HW150966  13.770  13.332   8.040
49709SOL    HW250967  13.703  13.327   8.175
49710SOL     OW50968  11.846  12.212   9.648
49710SOL    HW150969  11.834  12.298   9.607
49710SOL    HW250970  11.855  12.151   9.575
49711SOL     OW50971   9.900   6.735   8.946
49711SOL    HW150972   9.805   6.720   8.949
49711SOL    HW250973   9.920   6.745   8.853
49712SOL     OW50974   4.019  11.492   7.842
49712SOL    HW150975   4.044  11.420   7.900
49712SOL    HW250976   3.999  11.450   7.758
49713SOL     OW50977  11.173   4.805   6.552
49713SOL    HW150978  11.110   4.875   6.535
49713SOL    HW250979  11.150   4.736   6.489
49714SOL     OW50980  10.924   6.520   5.463
49714SOL    HW150981  10.893   6.606   5.434
49714SOL    HW250982  10.973   6.538   5.543
49715SOL     OW50983   0.780  12.947   2.802
49715SOL    HW150984   0.840  12.961   2.730
49715SOL    HW250985   0.755  12.855   2.795
49716SOL     OW50986   7.670   4.857  14.763
49716SOL    HW150987   7.600   4.917  14.735
49716SOL    HW250988   7.676   4.794  14.691
49717SOL     OW50989   2.781   6.743   3.714
49717SOL    HW150990   2.786   6.789   3.629
49717SOL    HW250991   2.729   6.801   3.769
49718SOL     OW50992   9.216  12.676   7.709
49718SOL    HW150993   9.176  12.718   7.786
49718SOL    HW250994   9.194  12.735   7.636
49719SOL     OW50995  10.034  14.458   0.993
49719SOL    HW150996   9.980  14.536   1.004
49719SOL    HW250997  10.124  14.490   0.996
49720SOL     OW50998   5.575   4.777   2.087
49720SOL    HW150999   5.493   4.728   2.080
49720SOL    HW251000   5.582   4.797   2.180
49721SOL     OW51001  11.957  13.924  11.223
49721SOL    HW151002  11.979  13.845  11.174
49721SOL    HW251003  11.951  13.993  11.157
49722SOL     OW51004   7.727   4.991   2.600
49722SOL    HW151005   7.676   5.017   2.524
49722SOL    HW251006   7.798   5.055   2.605
49723SOL     OW51007   9.227   1.265  12.904
49723SOL    HW151008   9.294   1.197  12.901
49723SOL    HW251009   9.151   1.227  12.860
49724SOL     OW51010  10.645  14.354   9.358
49724SOL    HW151011  10.660  14.409   9.282
49724SOL    HW251012  10.658  14.412   9.433
49725SOL     OW51013   9.783   1.041   0.427
49725SOL    HW151014   9.744   0.960   0.460
49725SOL    HW251015   9.728   1.066   0.354
49726SOL     OW51016   3.756   9.044   5.797
49726SOL    HW151017   3.803   9.115   5.841
49726SOL    HW251018   3.824   8.994   5.752
49727SOL     OW51019   5.747   2.781   8.010
49727SOL    HW151020   5.736   2.744   8.097
49727SOL    HW251021   5.796   2.715   7.961
49728SOL     OW51022   6.836  10.969  12.048
49728SOL    HW151023   6.779  11.037  12.085
49728SOL    HW251024   6.916  10.973  12.101
49729SOL     OW51025   3.023  13.278   2.413
49729SOL    HW151026   2.974  13.197   2.428
49729SOL    HW251027   3.011  13.329   2.493
49730SOL     OW51028   0.213   4.973   7.650
49730SOL    HW151029   0.156   4.903   7.617
49730SOL    HW251030   0.217   5.037   7.578
49731SOL     OW51031  13.911   6.551  13.391
49731SOL    HW151032  13.898   6.643  13.414
49731SOL    HW251033  13.903   6.504  13.474
49732SOL     OW51034   0.911   3.890   0.734
49732SOL    HW151035   0.946   3.895   0.646
49732SOL    HW251036   0.886   3.981   0.755
49733SOL     OW51037   6.908   5.567   2.656
49733SOL    HW151038   6.852   5.573   2.578
49733SOL    HW251039   6.919   5.658   2.684
49734SOL     OW51040   0.553   6.600   3.583
49734SOL    HW151041   0.547   6.506   3.596
49734SOL    HW251042   0.465   6.626   3.554
49735SOL     OW51043   5.624   0.659  11.471
49735SOL    HW151044   5.602   0.565  11.467
49735SOL    HW251045   5.650   0.673  11.561
49736SOL     OW51046  12.633   6.402  13.033
49736SOL    HW151047  12.709   6.461  13.038
49736SOL    HW251048  12.640   6.361  12.947
49737SOL     OW51049  11.897   4.246   2.301
49737SOL    HW151050  11.950   4.192   2.242
49737SOL    HW251051  11.846   4.183   2.352
49738SOL     OW51052  11.943   9.115   6.347
49738SOL    HW151053  12.016   9.064   6.310
49738SOL    HW251054  11.976   9.205   6.351
49739SOL     OW51055   6.724  11.998   3.670
49739SOL    HW151056   6.741  12.092   3.668
49739SOL    HW251057   6.768  11.963   3.593
49740SOL     OW51058   0.437   3.452  11.471
49740SOL    HW151059   0.520   3.496  11.487
49740SOL    HW251060   0.408   3.422  11.557
49741SOL     OW51061   7.645   0.296   2.880
49741SOL    HW151062   7.706   0.245   2.827
49741SOL    HW251063   7.631   0.377   2.831
49742SOL     OW51064  11.257  13.284  12.964
49742SOL    HW151065  11.225  13.254  13.049
49742SOL    HW251066  11.229  13.216  12.902
49743SOL     OW51067  14.281   8.920  12.261
49743SOL    HW151068  14.234   9.004  12.254
49743SOL    HW251069  14.318   8.905  12.174
49744SOL     OW51070   3.445   4.700   9.514
49744SOL    HW151071   3.484   4.748   9.442
49744SOL    HW251072   3.373   4.756   9.544
49745SOL     OW51073   5.717  11.297   1.504
49745SOL    HW151074   5.796  11.243   1.509
49745SOL    HW251075   5.718  11.348   1.585
49746SOL     OW51076  13.938  11.254   5.297
49746SOL    HW151077  13.917  11.205   5.376
49746SOL    HW251078  13.986  11.331   5.330
49747SOL     OW51079   2.596   4.770  14.441
49747SOL    HW151080   2.551   4.686  14.446
49747SOL    HW251081   2.606   4.797  14.532
49748SOL     OW51082  12.944   0.919  11.584
49748SOL    HW151083  13.015   0.963  11.630
49748SOL    HW251084  12.875   0.910  11.651
49749SOL     OW51085  10.162   7.319  11.573
49749SOL    HW151086  10.180   7.347  11.483
49749SOL    HW251087  10.198   7.230  11.578
49750SOL     OW51088  10.238   1.092  12.857
49750SOL    HW151089  10.276   1.004  12.867
49750SOL    HW251090  10.306   1.142  12.813
49751SOL     OW51091   6.287   3.287   8.275
49751SOL    HW151092   6.333   3.208   8.303
49751SOL    HW251093   6.356   3.346   8.245
49752SOL     OW51094  13.040  12.283   6.021
49752SOL    HW151095  13.109  12.252   6.080
49752SOL    HW251096  13.002  12.204   5.985
49753SOL     OW51097   2.546   1.423   6.069
49753SOL    HW151098   2.491   1.498   6.093
49753SOL    HW251099   2.485   1.351   6.056
49754SOL     OW51100   1.397  12.724  11.907
49754SOL    HW151101   1.433  12.806  11.872
49754SOL    HW251102   1.451  12.706  11.984
49755SOL     OW51103   4.308   2.717  13.792
49755SOL    HW151104   4.271   2.793  13.838
49755SOL    HW251105   4.239   2.651  13.799
49756SOL     OW51106   0.227   4.963   1.849
49756SOL    HW151107   0.238   4.921   1.763
49756SOL    HW251108   0.135   4.989   1.852
49757SOL     OW51109  10.869   0.315   8.924
49757SOL    HW151110  10.899   0.301   9.014
49757SOL    HW251111  10.864   0.228   8.886
49758SOL     OW51112  14.509  11.541   2.001
49758SOL    HW151113  14.573  11.563   2.069
49758SOL    HW251114  14.445  11.612   2.004
49759SOL     OW51115   0.112   5.577  10.144
49759SOL    HW151116   0.159   5.540  10.219
49759SOL    HW251117   0.174   5.569  10.071
49760SOL     OW51118   8.960   4.919   0.864
49760SOL    HW151119   9.004   4.876   0.791
49760SOL    HW251120   8.867   4.914   0.843
49761SOL     OW51121   6.063  13.080  14.549
49761SOL    HW151122   6.088  13.006  14.494
49761SOL    HW251123   6.123  13.151  14.523
49762SOL     OW51124  13.232  10.325   3.328
49762SOL    HW151125  13.260  10.405   3.372
49762SOL    HW251126  13.179  10.279   3.393
49763SOL     OW51127   8.310   7.698  14.499
49763SOL    HW151128   8.265   7.684  14.582
49763SOL    HW251129   8.269   7.637  14.438
49764SOL     OW51130   4.942   9.403   1.911
49764SOL    HW151131   4.948   9.397   2.006
49764SOL    HW251132   4.951   9.496   1.892
49765SOL     OW51133   3.089  13.589  11.440
49765SOL    HW151134   3.084  13.663  11.500
49765SOL    HW251135   3.177  13.553  11.453
49766SOL     OW51136   0.321   8.360   1.574
49766SOL    HW151137   0.334   8.269   1.602
49766SOL    HW251138   0.344   8.413   1.650
49767SOL     OW51139   6.182   1.557   7.949
49767SOL    HW151140   6.130   1.591   7.876
49767SOL    HW251141   6.259   1.613   7.952
49768SOL     OW51142   3.689   9.716   0.709
49768SOL    HW151143   3.666   9.640   0.656
49768SOL    HW251144   3.758   9.760   0.659
49769SOL     OW51145   4.505   9.679  13.108
49769SOL    HW151146   4.475   9.612  13.047
49769SOL    HW251147   4.456   9.757  13.084
49770SOL     OW51148   2.057  12.847  11.881
49770SOL    HW151149   2.122  12.791  11.838
49770SOL    HW251150   2.065  12.932  11.836
49771SOL     OW51151   8.508  13.996   1.913
49771SOL    HW151152   8.539  13.917   1.868
49771SOL    HW251153   8.588  14.048   1.927
49772SOL     OW51154  13.962  13.935  10.212
49772SOL    HW151155  13.946  13.973  10.299
49772SOL    HW251156  14.006  13.851  10.231
49773SOL     OW51157   5.414   4.106   1.546
49773SOL    HW151158   5.318   4.109   1.547
49773SOL    HW251159   5.436   4.025   1.500
49774SOL     OW51160  14.487  12.177  11.954
49774SOL    HW151161  14.468  12.119  12.028
49774SOL    HW251162  14.401  12.205  11.923
49775SOL     OW51163   8.203   7.191   7.758
49775SOL    HW151164   8.247   7.243   7.691
49775SOL    HW251165   8.109   7.208   7.744
49776SOL     OW51166   0.513  13.226  11.918
49776SOL    HW151167   0.537  13.310  11.880
49776SOL    HW251168   0.468  13.249  12.000
49777SOL     OW51169  10.411   8.602   5.441
49777SOL    HW151170  10.373   8.518   5.415
49777SOL    HW251171  10.455   8.634   5.362
49778SOL     OW51172   6.899   1.154   8.881
49778SOL    HW151173   6.819   1.206   8.883
49778SOL    HW251174   6.921   1.140   8.973
49779SOL     OW51175  13.767   2.826   0.093
49779SOL    HW151176  13.796   2.899   0.147
49779SOL    HW251177  13.839   2.763   0.096
49780SOL     OW51178  13.050   9.943   4.706
49780SOL    HW151179  13.042   9.961   4.612
49780SOL    HW251180  12.967   9.904   4.731
49781SOL     OW51181  11.606   0.110  11.544
49781SOL    HW151182  11.692   0.088  11.580
49781SOL    HW251183  11.608   0.205  11.532
49782SOL     OW51184  14.737   9.758   0.561
49782SOL    HW151185  14.718   9.743   0.653
49782SOL    HW251186  14.654   9.788   0.524
49783SOL     OW51187   3.789   5.041   9.752
49783SOL    HW151188   3.838   5.122   9.737
49783SOL    HW251189   3.805   4.988   9.673
49784SOL     OW51190  12.272   7.831   2.971
49784SOL    HW151191  12.335   7.862   3.036
49784SOL    HW251192  12.187   7.835   3.016
49785SOL     OW51193   1.540   6.117  13.258
49785SOL    HW151194   1.530   6.153  13.169
49785SOL    HW251195   1.453   6.083  13.279
49786SOL     OW51196   0.198   2.080   9.445
49786SOL    HW151197   0.240   2.027   9.513
49786SOL    HW251198   0.260   2.080   9.372
49787SOL     OW51199   5.551  10.460  12.110
49787SOL    HW151200   5.590  10.469  12.024
49787SOL    HW251201   5.607  10.512  12.168
49788SOL     OW51202  11.871   5.895  11.864
49788SOL    HW151203  11.850   5.880  11.956
49788SOL    HW251204  11.966   5.906  11.863
49789SOL     OW51205   8.641   1.882   2.615
49789SOL    HW151206   8.647   1.935   2.694
49789SOL    HW251207   8.710   1.816   2.625
49790SOL     OW51208   1.492   9.483   9.704
49790SOL    HW151209   1.493   9.558   9.645
49790SOL    HW251210   1.404   9.448   9.697
49791SOL     OW51211  12.482   4.301   4.049
49791SOL    HW151212  12.496   4.214   4.011
49791SOL    HW251213  12.568   4.326   4.083
49792SOL     OW51214   7.209  10.575  10.088
49792SOL    HW151215   7.153  10.581  10.165
49792SOL    HW251216   7.189  10.490  10.051
49793SOL     OW51217   7.590  12.817   4.081
49793SOL    HW151218   7.628  12.836   3.995
49793SOL    HW251219   7.645  12.863   4.143
49794SOL     OW51220  10.145  13.874   5.131
49794SOL    HW151221  10.201  13.819   5.077
49794SOL    HW251222  10.159  13.841   5.220
49795SOL     OW51223   9.142  10.279  12.242
49795SOL    HW151224   9.047  10.270  12.248
49795SOL    HW251225   9.177  10.205  12.290
49796SOL     OW51226   3.490   8.863   7.438
49796SOL    HW151227   3.547   8.914   7.496
49796SOL    HW251228   3.524   8.879   7.350
49797SOL     OW51229  11.047  10.154   0.802
49797SOL    HW151230  11.026  10.098   0.877
49797SOL    HW251231  11.110  10.217   0.837
49798SOL     OW51232  13.619  11.222   0.064
49798SOL    HW151233  13.525  11.218   0.045
49798SOL    HW251234  13.661  11.198  14.858
49799SOL     OW51235   0.185  10.466  14.537
49799SOL    HW151236   0.197  10.480  14.443
49799SOL    HW251237   0.227  10.542  14.579
49800SOL     OW51238  11.580   3.260   9.510
49800SOL    HW151239  11.579   3.213   9.593
49800SOL    HW251240  11.560   3.194   9.444
49801SOL     OW51241  12.671  10.132   4.692
49801SOL    HW151242  12.679  10.209   4.635
49801SOL    HW251243  12.580  10.134   4.721
49802SOL     OW51244   7.141  13.352   7.462
49802SOL    HW151245   7.197  13.287   7.504
49802SOL    HW251246   7.128  13.419   7.528
49803SOL     OW51247   1.462  13.672   2.227
49803SOL    HW151248   1.399  13.611   2.266
49803SOL    HW251249   1.536  13.671   2.287
49804SOL     OW51250   2.494  10.343  12.274
49804SOL    HW151251   2.417  10.309  12.319
49804SOL    HW251252   2.565  10.285  12.302
49805SOL     OW51253  10.006  12.725   4.819
49805SOL    HW151254  10.028  12.774   4.898
49805SOL    HW251255  10.080  12.666   4.807
49806SOL     OW51256   5.799   2.276   0.801
49806SOL    HW151257   5.784   2.187   0.769
49806SOL    HW251258   5.712   2.316   0.803
49807SOL     OW51259  14.431   3.982   6.820
49807SOL    HW151260  14.341   4.013   6.811
49807SOL    HW251261  14.424   3.905   6.876
49808SOL     OW51262   9.785   0.452  14.133
49808SOL    HW151263   9.739   0.390  14.077
49808SOL    HW251264   9.798   0.529  14.078
49809SOL     OW51265  10.942  13.920   1.046
49809SOL    HW151266  10.978  13.949   0.962
49809SOL    HW251267  10.847  13.915   1.031
49810SOL     OW51268   6.093   7.203   0.210
49810SOL    HW151269   6.187   7.200   0.230
49810SOL    HW251270   6.051   7.212   0.296
49811SOL     OW51271   5.403   3.107   7.226
49811SOL    HW151272   5.381   3.111   7.319
49811SOL    HW251273   5.498   3.118   7.223
49812SOL     OW51274   3.657   0.232  12.492
49812SOL    HW151275   3.589   0.166  12.479
49812SOL    HW251276   3.717   0.193  12.555
49813SOL     OW51277  14.367  13.955   1.968
49813SOL    HW151278  14.406  14.032   2.008
49813SOL    HW251279  14.279  13.983   1.942
49814SOL     OW51280   9.918  10.414   8.049
49814SOL    HW151281   9.941  10.328   8.083
49814SOL    HW251282   9.908  10.469   8.127
49815SOL     OW51283   2.347   9.882   6.080
49815SOL    HW151284   2.436   9.849   6.069
49815SOL    HW251285   2.354   9.947   6.150
49816SOL     OW51286   6.939  12.201   3.790
49816SOL    HW151287   6.947  12.159   3.875
49816SOL    HW251288   7.022  12.246   3.777
49817SOL     OW51289   7.594   7.554  11.088
49817SOL    HW151290   7.548   7.601  11.019
49817SOL    HW251291   7.634   7.622  11.141
49818SOL     OW51292   8.287  11.496   8.073
49818SOL    HW151293   8.249  11.437   8.007
49818SOL    HW251294   8.215  11.553   8.099
49819SOL     OW51295  10.601  11.051   6.535
49819SOL    HW151296  10.605  11.015   6.446
49819SOL    HW251297  10.509  11.071   6.548
49820SOL     OW51298   9.860   6.916   7.894
49820SOL    HW151299   9.787   6.886   7.948
49820SOL    HW251300   9.876   6.843   7.834
49821SOL     OW51301  13.082   7.410   1.641
49821SOL    HW151302  13.090   7.485   1.700
49821SOL    HW251303  13.157   7.354   1.663
49822SOL     OW51304   1.585  10.482   9.533
49822SOL    HW151305   1.525  10.479   9.458
49822SOL    HW251306   1.672  10.493   9.495
49823SOL     OW51307   3.118   1.759   8.107
49823SOL    HW151308   3.141   1.712   8.027
49823SOL    HW251309   3.202   1.778   8.149
49824SOL     OW51310   3.607   1.220   0.857
49824SOL    HW151311   3.592   1.308   0.823
49824SOL    HW251312   3.620   1.232   0.951
49825SOL     OW51313  10.839  14.078   8.699
49825SOL    HW151314  10.931  14.091   8.722
49825SOL    HW251315  10.828  13.983   8.696
49826SOL     OW51316  14.848   0.345  10.679
49826SOL    HW151317  14.848   0.362  10.584
49826SOL    HW251318  14.846   0.250  10.686
49827SOL     OW51319   5.239   2.778   4.202
49827SOL    HW151320   5.158   2.807   4.162
49827SOL    HW251321   5.223   2.781   4.296
49828SOL     OW51322   7.076   2.010   9.856
49828SOL    HW151323   7.015   1.985   9.787
49828SOL    HW251324   7.145   1.944   9.853
49829SOL     OW51325   5.655   3.674   5.408
49829SOL    HW151326   5.629   3.603   5.349
49829SOL    HW251327   5.593   3.670   5.480
49830SOL     OW51328   1.731   7.653   4.420
49830SOL    HW151329   1.696   7.723   4.365
49830SOL    HW251330   1.656   7.596   4.437
49831SOL     OW51331  11.697   0.976  12.497
49831SOL    HW151332  11.632   1.003  12.433
49831SOL    HW251333  11.700   0.881  12.490
49832SOL     OW51334  13.530  11.982  11.369
49832SOL    HW151335  13.553  12.048  11.434
49832SOL    HW251336  13.585  12.003  11.293
49833SOL     OW51337   4.201   2.546   4.416
49833SOL    HW151338   4.267   2.615   4.418
49833SOL    HW251339   4.239   2.477   4.362
49834SOL     OW51340   1.872  11.015   6.711
49834SOL    HW151341   1.913  10.966   6.639
49834SOL    HW251342   1.861  10.950   6.780
49835SOL     OW51343   5.740   5.068   3.437
49835SOL    HW151344   5.744   5.156   3.400
49835SOL    HW251345   5.830   5.047   3.460
49836SOL     OW51346   0.344  14.638   4.070
49836SOL    HW151347   0.303  14.552   4.081
49836SOL    HW251348   0.392  14.631   3.988
49837SOL     OW51349   7.207   7.858  13.603
49837SOL    HW151350   7.298   7.861  13.574
49837SOL    HW251351   7.160   7.912  13.540
49838SOL     OW51352   4.079  11.801  14.805
49838SOL    HW151353   4.045  11.888  14.782
49838SOL    HW251354   4.063  11.748  14.727
49839SOL     OW51355  12.270  10.509  10.955
49839SOL    HW151356  12.208  10.447  10.992
49839SOL    HW251357  12.351  10.459  10.947
49840SOL     OW51358  11.399   4.168   7.396
49840SOL    HW151359  11.406   4.097   7.459
49840SOL    HW251360  11.319   4.215   7.421
49841SOL     OW51361   8.644   4.040  12.275
49841SOL    HW151362   8.582   3.981  12.233
49841SOL    HW251363   8.716   3.984  12.302
49842SOL     OW51364  10.912   6.434   4.675
49842SOL    HW151365  10.820   6.461   4.686
49842SOL    HW251366  10.957   6.513   4.646
49843SOL     OW51367   2.559   6.317  13.970
49843SOL    HW151368   2.639   6.334  13.920
49843SOL    HW251369   2.586   6.323  14.061
49844SOL     OW51370   8.292   6.296  13.358
49844SOL    HW151371   8.233   6.295  13.282
49844SOL    HW251372   8.288   6.386  13.391
49845SOL     OW51373  12.062   7.763   9.083
49845SOL    HW151374  12.053   7.668   9.090
49845SOL    HW251375  12.148   7.776   9.044
49846SOL     OW51376  10.788   6.945  10.408
49846SOL    HW151377  10.786   6.873  10.345
49846SOL    HW251378  10.722   6.922  10.473
49847SOL     OW51379   9.378   1.307   6.260
49847SOL    HW151380   9.381   1.215   6.287
49847SOL    HW251381   9.442   1.314   6.189
49848SOL     OW51382  14.233  14.445  11.991
49848SOL    HW151383  14.301  14.434  11.924
49848SOL    HW251384  14.195  14.531  11.973
49849SOL     OW51385   1.590   0.732   6.026
49849SOL    HW151386   1.671   0.768   6.062
49849SOL    HW251387   1.605   0.637   6.025
49850SOL     OW51388   2.251   8.605  11.071
49850SOL    HW151389   2.224   8.695  11.092
49850SOL    HW251390   2.207   8.585  10.989
49851SOL     OW51391  13.746   7.699   1.700
49851SOL    HW151392  13.839   7.676   1.702
49851SOL    HW251393  13.735   7.760   1.772
49852SOL     OW51394   3.954   7.820  13.052
49852SOL    HW151395   3.908   7.833  12.968
49852SOL    HW251396   4.045   7.843  13.033
49853SOL     OW51397   9.615   0.348  13.273
49853SOL    HW151398   9.532   0.377  13.236
49853SOL    HW251399   9.625   0.258  13.242
49854SOL     OW51400   3.531  10.417  14.273
49854SOL    HW151401   3.560  10.489  14.329
49854SOL    HW251402   3.446  10.445  14.241
49855SOL     OW51403   1.408  11.892  12.055
49855SOL    HW151404   1.373  11.879  11.967
49855SOL    HW251405   1.482  11.951  12.043
49856SOL     OW51406   8.926   5.652  12.745
49856SOL    HW151407   8.902   5.741  12.720
49856SOL    HW251408   8.873   5.634  12.823
49857SOL     OW51409   4.217  10.016   0.240
49857SOL    HW151410   4.123  10.025   0.256
49857SOL    HW251411   4.246  10.104   0.216
49858SOL     OW51412   9.452  11.466   6.853
49858SOL    HW151413   9.491  11.515   6.926
49858SOL    HW251414   9.517  11.472   6.783
49859SOL     OW51415  13.493  12.450   1.146
49859SOL    HW151416  13.412  12.417   1.187
49859SOL    HW251417  13.511  12.532   1.192
49860SOL     OW51418  11.940  11.560   7.066
49860SOL    HW151419  11.971  11.569   6.976
49860SOL    HW251420  11.964  11.471   7.091
49861SOL     OW51421   6.748   2.512  11.241
49861SOL    HW151422   6.819   2.480  11.185
49861SOL    HW251423   6.789   2.579  11.296
49862SOL     OW51424   3.404   3.394   0.960
49862SOL    HW151425   3.440   3.309   0.987
49862SOL    HW251426   3.341   3.416   1.028
49863SOL     OW51427   3.402  14.003   8.893
49863SOL    HW151428   3.359  14.087   8.913
49863SOL    HW251429   3.482  14.028   8.846
49864SOL     OW51430  14.700  11.638  14.348
49864SOL    HW151431  14.616  11.626  14.392
49864SOL    HW251432  14.738  11.715  14.389
49865SOL     OW51433  12.717   7.214  13.937
49865SOL    HW151434  12.801   7.258  13.944
49865SOL    HW251435  12.697   7.186  14.027
49866SOL     OW51436  13.316   5.101   2.710
49866SOL    HW151437  13.263   5.165   2.662
49866SOL    HW251438  13.407   5.123   2.687
49867SOL     OW51439   9.952   7.132   1.915
49867SOL    HW151440  10.016   7.069   1.882
49867SOL    HW251441   9.926   7.097   2.000
49868SOL     OW51442   1.382   7.240  10.292
49868SOL    HW151443   1.441   7.195  10.352
49868SOL    HW251444   1.308   7.180  10.283
49869SOL     OW51445  13.059   5.385   5.430
49869SOL    HW151446  12.985   5.324   5.419
49869SOL    HW251447  13.023   5.470   5.404
49870SOL     OW51448   2.693   2.917   0.701
49870SOL    HW151449   2.785   2.895   0.720
49870SOL    HW251450   2.692   3.012   0.696
49871SOL     OW51451   4.177   1.657   6.162
49871SOL    HW151452   4.272   1.662   6.163
49871SOL    HW251453   4.154   1.661   6.070
49872SOL     OW51454   6.136   2.835   2.406
49872SOL    HW151455   6.191   2.793   2.472
49872SOL    HW251456   6.125   2.769   2.338
49873SOL     OW51457   2.149   6.738  13.405
49873SOL    HW151458   2.109   6.779  13.482
49873SOL    HW251459   2.184   6.811  13.354
49874SOL     OW51460   3.625  12.063  11.337
49874SOL    HW151461   3.691  12.078  11.406
49874SOL    HW251462   3.560  12.132  11.350
49875SOL     OW51463   6.771   9.588   3.096
49875SOL    HW151464   6.754   9.545   3.180
49875SOL    HW251465   6.690   9.577   3.047
49876SOL     OW51466   4.866   3.390   1.205
49876SOL    HW151467   4.905   3.379   1.292
49876SOL    HW251468   4.937   3.369   1.145
49877SOL     OW51469   8.050  10.894   6.857
49877SOL    HW151470   7.995  10.929   6.928
49877SOL    HW251471   7.988  10.872   6.787
49878SOL     OW51472   6.455   1.858  11.131
49878SOL    HW151473   6.515   1.784  11.144
49878SOL    HW251474   6.477   1.891  11.044
49879SOL     OW51475  12.829  14.500  12.604
49879SOL    HW151476  12.836  14.591  12.633
49879SOL    HW251477  12.830  14.449  12.686
49880SOL     OW51478  12.052   7.562   5.151
49880SOL    HW151479  11.996   7.501   5.103
49880SOL    HW251480  12.086   7.621   5.083
49881SOL     OW51481   1.490   0.937   1.751
49881SOL    HW151482   1.548   1.005   1.785
49881SOL    HW251483   1.468   0.966   1.663
49882SOL     OW51484   6.886   3.653   3.074
49882SOL    HW151485   6.904   3.736   3.117
49882SOL    HW251486   6.963   3.637   3.018
49883SOL     OW51487   8.320   5.191   8.462
49883SOL    HW151488   8.240   5.155   8.424
49883SOL    HW251489   8.324   5.153   8.550
49884SOL     OW51490   2.675   9.041   2.003
49884SOL    HW151491   2.677   9.059   2.097
49884SOL    HW251492   2.588   9.006   1.987
49885SOL     OW51493   5.808   9.898   6.525
49885SOL    HW151494   5.880   9.960   6.514
49885SOL    HW251495   5.732   9.941   6.486
49886SOL     OW51496   7.845   5.651  11.225
49886SOL    HW151497   7.763   5.693  11.250
49886SOL    HW251498   7.913   5.704  11.266
49887SOL     OW51499  13.421   7.844  14.186
49887SOL    HW151500  13.358   7.882  14.247
49887SOL    HW251501  13.506   7.865  14.225
49888SOL     OW51502   5.862   2.605   7.816
49888SOL    HW151503   5.863   2.615   7.721
49888SOL    HW251504   5.908   2.522   7.832
49889SOL     OW51505  11.705   5.968  11.642
49889SOL    HW151506  11.644   6.023  11.691
49889SOL    HW251507  11.780   5.958  11.700
49890SOL     OW51508   2.069   2.432   3.272
49890SOL    HW151509   1.980   2.441   3.304
49890SOL    HW251510   2.105   2.521   3.277
49891SOL     OW51511   1.226   0.774  11.618
49891SOL    HW151512   1.172   0.849  11.643
49891SOL    HW251513   1.205   0.707  11.683
49892SOL     OW51514   2.030  11.282  13.686
49892SOL    HW151515   2.020  11.283  13.591
49892SOL    HW251516   1.959  11.338  13.718
49893SOL     OW51517   5.847   3.210  13.685
49893SOL    HW151518   5.885   3.169  13.762
49893SOL    HW251519   5.902   3.287  13.670
49894SOL     OW51520   7.136  11.686   9.127
49894SOL    HW151521   7.167  11.600   9.100
49894SOL    HW251522   7.194  11.711   9.199
49895SOL     OW51523   1.690   8.115  12.406
49895SOL    HW151524   1.629   8.074  12.467
49895SOL    HW251525   1.635   8.166  12.347
49896SOL     OW51526   1.054   7.029  13.744
49896SOL    HW151527   1.003   6.954  13.775
49896SOL    HW251528   1.036   7.033  13.650
49897SOL     OW51529  12.644  13.548   6.716
49897SOL    HW151530  12.563  13.563   6.668
49897SOL    HW251531  12.694  13.490   6.659
49898SOL     OW51532   7.577  12.431   3.904
49898SOL    HW151533   7.653  12.463   3.953
49898SOL    HW251534   7.586  12.471   3.818
49899SOL     OW51535  13.725   3.115   4.448
49899SOL    HW151536  13.821   3.120   4.454
49899SOL    HW251537  13.697   3.206   4.439
49900SOL     OW51538   9.066   0.247  10.656
49900SOL    HW151539   9.109   0.189  10.719
49900SOL    HW251540   9.135   0.270  10.594
49901SOL     OW51541   6.339   1.680  14.318
49901SOL    HW151542   6.350   1.754  14.378
49901SOL    HW251543   6.244   1.672  14.308
49902SOL     OW51544   8.191   6.939   7.844
49902SOL    HW151545   8.158   6.962   7.930
49902SOL    HW251546   8.220   7.023   7.806
49903SOL     OW51547  12.664   1.574   4.967
49903SOL    HW151548  12.643   1.607   5.054
49903SOL    HW251549  12.581   1.578   4.919
49904SOL     OW51550  10.249   1.306  11.386
49904SOL    HW151551  10.264   1.383  11.331
49904SOL    HW251552  10.195   1.339  11.458
49905SOL     OW51553   0.799   0.581   0.924
49905SOL    HW151554   0.831   0.608   1.010
49905SOL    HW251555   0.878   0.577   0.869
49906SOL     OW51556   2.519  13.548   9.079
49906SOL    HW151557   2.576  13.471   9.078
49906SOL    HW251558   2.562  13.609   9.140
49907SOL     OW51559   2.055  10.931   0.185
49907SOL    HW151560   2.117  10.964   0.249
49907SOL    HW251561   2.070  10.837   0.183
49908SOL     OW51562   2.958  12.830   1.976
49908SOL    HW151563   2.912  12.910   2.001
49908SOL    HW251564   3.016  12.857   1.904
49909SOL     OW51565   6.529  13.345  12.973
49909SOL    HW151566   6.506  13.294  13.051
49909SOL    HW251567   6.517  13.284  12.900
49910SOL     OW51568  10.709   8.615   6.607
49910SOL    HW151569  10.748   8.697   6.576
49910SOL    HW251570  10.780   8.552   6.603
49911SOL     OW51571   0.091  11.718   8.161
49911SOL    HW151572   0.124  11.628   8.157
49911SOL    HW251573   0.039  11.721   8.241
49912SOL     OW51574  14.051   2.280   8.685
49912SOL    HW151575  14.064   2.287   8.780
49912SOL    HW251576  14.140   2.273   8.649
49913SOL     OW51577   4.458   5.469   8.996
49913SOL    HW151578   4.436   5.535   9.061
49913SOL    HW251579   4.490   5.395   9.048
49914SOL     OW51580   6.005  10.704   3.628
49914SOL    HW151581   6.040  10.785   3.592
49914SOL    HW251582   6.070  10.637   3.605
49915SOL     OW51583   3.641   1.302   1.106
49915SOL    HW151584   3.626   1.275   1.196
49915SOL    HW251585   3.687   1.385   1.113
49916SOL     OW51586  10.809  14.619   9.171
49916SOL    HW151587  10.799  14.571   9.089
49916SOL    HW251588  10.806  14.711   9.145
49917SOL     OW51589   3.563  14.451  14.745
49917SOL    HW151590   3.475  14.464  14.710
49917SOL    HW251591   3.596  14.539  14.763
49918SOL     OW51592   6.670  12.965   3.394
49918SOL    HW151593   6.762  12.982   3.376
49918SOL    HW251594   6.623  13.012   3.325
49919SOL     OW51595   3.082  10.328   7.172
49919SOL    HW151596   3.112  10.314   7.083
49919SOL    HW251597   3.025  10.253   7.191
49920SOL     OW51598  14.388   4.204  14.429
49920SOL    HW151599  14.458   4.201  14.364
49920SOL    HW251600  14.426   4.251  14.503
49921SOL     OW51601   8.274   1.525  11.478
49921SOL    HW151602   8.238   1.596  11.425
49921SOL    HW251603   8.360   1.508  11.440
49922SOL     OW51604   9.070   6.176   4.391
49922SOL    HW151605   9.157   6.211   4.407
49922SOL    HW251606   9.084   6.084   4.369
49923SOL     OW51607  10.023  10.860   7.089
49923SOL    HW151608   9.986  10.923   7.150
49923SOL    HW251609   9.965  10.862   7.014
49924SOL     OW51610   9.486   4.046   7.636
49924SOL    HW151611   9.485   4.013   7.726
49924SOL    HW251612   9.463   4.138   7.644
49925SOL     OW51613   4.375   9.901  11.763
49925SOL    HW151614   4.463   9.873  11.739
49925SOL    HW251615   4.384   9.937  11.851
49926SOL     OW51616  13.620   7.325   3.842
49926SOL    HW151617  13.713   7.303   3.832
49926SOL    HW251618  13.618   7.420   3.843
49927SOL     OW51619   0.366  14.125   5.740
49927SOL    HW151620   0.423  14.050   5.753
49927SOL    HW251621   0.332  14.114   5.651
49928SOL     OW51622  13.258   3.375   2.921
49928SOL    HW151623  13.217   3.423   2.849
49928SOL    HW251624  13.351   3.395   2.913
49929SOL     OW51625   2.407   4.936   4.263
49929SOL    HW151626   2.312   4.942   4.254
49929SOL    HW251627   2.442   4.968   4.180
49930SOL     OW51628   3.309  10.049   7.133
49930SOL    HW151629   3.305  10.055   7.228
49930SOL    HW251630   3.311  10.140   7.103
49931SOL     OW51631  14.364   6.770   6.205
49931SOL    HW151632  14.285   6.823   6.198
49931SOL    HW251633  14.370   6.749   6.298
49932SOL     OW51634  12.579  12.343  12.490
49932SOL    HW151635  12.593  12.387  12.406
49932SOL    HW251636  12.630  12.394  12.553
49933SOL     OW51637   1.349   6.167   2.962
49933SOL    HW151638   1.390   6.157   2.876
49933SOL    HW251639   1.356   6.261   2.980
49934SOL     OW51640   3.896   0.217  12.289
49934SOL    HW151641   3.823   0.186  12.341
49934SOL    HW251642   3.912   0.306  12.321
49935SOL     OW51643  11.478  10.231  11.704
49935SOL    HW151644  11.402  10.273  11.745
49935SOL    HW251645  11.441  10.172  11.639
49936SOL     OW51646   7.272   5.197  11.158
49936SOL    HW151647   7.320   5.173  11.237
49936SOL    HW251648   7.330   5.172  11.086
49937SOL     OW51649   0.865  11.768  11.330
49937SOL    HW151650   0.882  11.812  11.414
49937SOL    HW251651   0.915  11.686  11.336
49938SOL     OW51652   5.775   3.699   1.413
49938SOL    HW151653   5.808   3.651   1.337
49938SOL    HW251654   5.801   3.645   1.488
49939SOL     OW51655  10.538  11.341   8.704
49939SOL    HW151656  10.503  11.273   8.762
49939SOL    HW251657  10.535  11.302   8.616
49940SOL     OW51658  10.568   2.052   6.126
49940SOL    HW151659  10.569   2.147   6.139
49940SOL    HW251660  10.661   2.027   6.125
49941SOL     OW51661   3.435   0.812   2.622
49941SOL    HW151662   3.511   0.866   2.600
49941SOL    HW251663   3.414   0.766   2.541
49942SOL     OW51664   8.990  13.158  12.759
49942SOL    HW151665   8.992  13.067  12.728
49942SOL    HW251666   9.040  13.157  12.840
49943SOL     OW51667  13.194   7.850  12.801
49943SOL    HW151668  13.115   7.900  12.822
49943SOL    HW251669  13.219   7.880  12.713
49944SOL     OW51670  10.848   1.101  10.255
49944SOL    HW151671  10.758   1.099  10.222
49944SOL    HW251672  10.891   1.027  10.212
49945SOL     OW51673   9.359   8.196  13.765
49945SOL    HW151674   9.428   8.173  13.827
49945SOL    HW251675   9.282   8.150  13.796
49946SOL     OW51676   4.881   4.411   9.230
49946SOL    HW151677   4.850   4.346   9.167
49946SOL    HW251678   4.804   4.433   9.282
49947SOL     OW51679   2.366   2.406  13.353
49947SOL    HW151680   2.285   2.366  13.319
49947SOL    HW251681   2.335   2.476  13.412
49948SOL     OW51682   8.896  12.071  13.941
49948SOL    HW151683   8.976  12.021  13.958
49948SOL    HW251684   8.852  12.075  14.025
49949SOL     OW51685   9.495   3.830   6.724
49949SOL    HW151686   9.568   3.769   6.714
49949SOL    HW251687   9.458   3.838   6.636
49950SOL     OW51688   7.658   8.272  10.168
49950SOL    HW151689   7.684   8.258  10.259
49950SOL    HW251690   7.673   8.365  10.153
49951SOL     OW51691   1.584   4.939   0.587
49951SOL    HW151692   1.510   5.001   0.592
49951SOL    HW251693   1.645   4.970   0.654
49952SOL     OW51694   0.699   4.985  13.897
49952SOL    HW151695   0.660   4.899  13.879
49952SOL    HW251696   0.740   5.010  13.814
49953SOL     OW51697   0.134   4.086  11.991
49953SOL    HW151698   0.173   4.097  11.904
49953SOL    HW251699   0.175   4.006  12.024
49954SOL     OW51700   9.223   3.334   2.694
49954SOL    HW151701   9.279   3.406   2.666
49954SOL    HW251702   9.163   3.319   2.620
49955SOL     OW51703   6.527   5.246   2.031
49955SOL    HW151704   6.613   5.264   1.991
49955SOL    HW251705   6.464   5.261   1.960
49956SOL     OW51706  11.633  10.765   3.403
49956SOL    HW151707  11.716  10.717   3.405
49956SOL    HW251708  11.647  10.836   3.341
49957SOL     OW51709   2.221   4.972  14.045
49957SOL    HW151710   2.242   4.898  13.988
49957SOL    HW251711   2.282   4.965  14.118
49958SOL     OW51712   0.362  11.385   2.559
49958SOL    HW151713   0.295  11.322   2.586
49958SOL    HW251714   0.349  11.459   2.619
49959SOL     OW51715   0.136   8.147   9.200
49959SOL    HW151716   0.164   8.081   9.137
49959SOL    HW251717   0.064   8.106   9.247
49960SOL     OW51718   0.465   5.795   8.815
49960SOL    HW151719   0.413   5.843   8.879
49960SOL    HW251720   0.410   5.791   8.737
49961SOL     OW51721   2.994   5.168  11.163
49961SOL    HW151722   3.063   5.232  11.180
49961SOL    HW251723   2.937   5.211  11.100
49962SOL     OW51724  10.713   0.499   8.804
49962SOL    HW151725  10.756   0.416   8.826
49962SOL    HW251726  10.698   0.542   8.888
49963SOL     OW51727   6.920   1.118  14.809
49963SOL    HW151728   6.976   1.187  14.775
49963SOL    HW251729   6.944   1.040  14.759
49964SOL     OW51730   8.305   7.351   6.222
49964SOL    HW151731   8.283   7.345   6.315
49964SOL    HW251732   8.221   7.362   6.178
49965SOL     OW51733   6.833   6.518   4.113
49965SOL    HW151734   6.790   6.456   4.171
49965SOL    HW251735   6.767   6.540   4.047
49966SOL     OW51736  12.710  14.630   3.771
49966SOL    HW151737  12.740  14.588   3.851
49966SOL    HW251738  12.631  14.581   3.746
49967SOL     OW51739   0.378   7.566  10.344
49967SOL    HW151740   0.455   7.578  10.290
49967SOL    HW251741   0.399   7.491  10.400
49968SOL     OW51742   9.369   6.147   3.976
49968SOL    HW151743   9.276   6.154   3.955
49968SOL    HW251744   9.376   6.064   4.025
49969SOL     OW51745   0.016  12.447   1.136
49969SOL    HW151746   0.015  12.542   1.131
49969SOL    HW251747  14.850  12.418   1.056
49970SOL     OW51748  11.699   9.813   4.304
49970SOL    HW151749  11.713   9.893   4.253
49970SOL    HW251750  11.761   9.820   4.377
49971SOL     OW51751   8.074   3.396  12.008
49971SOL    HW151752   8.130   3.471  12.027
49971SOL    HW251753   7.985   3.427  12.023
49972SOL     OW51754   6.772   0.401  12.882
49972SOL    HW151755   6.763   0.307  12.890
49972SOL    HW251756   6.698   0.437  12.930
49973SOL     OW51757  13.368   6.433   7.247
49973SOL    HW151758  13.444   6.385   7.216
49973SOL    HW251759  13.319   6.370   7.300
49974SOL     OW51760   6.828   0.485   7.711
49974SOL    HW151761   6.754   0.439   7.752
49974SOL    HW251762   6.804   0.577   7.717
49975SOL     OW51763   6.236   9.614   1.798
49975SOL    HW151764   6.179   9.559   1.745
49975SOL    HW251765   6.267   9.556   1.868
49976SOL     OW51766  14.247   4.267  10.433
49976SOL    HW151767  14.242   4.185  10.482
49976SOL    HW251768  14.253   4.240  10.341
49977SOL     OW51769  14.080   9.648   8.963
49977SOL    HW151770  14.082   9.634   9.057
49977SOL    HW251771  14.074   9.743   8.952
49978SOL     OW51772  13.115   4.679   1.607
49978SOL    HW151773  13.124   4.596   1.560
49978SOL    HW251774  13.197   4.725   1.589
49979SOL     OW51775   3.131  10.268   5.150
49979SOL    HW151776   3.075  10.191   5.144
49979SOL    HW251777   3.192  10.249   5.221
49980SOL     OW51778   6.256   9.060   5.666
49980SOL    HW151779   6.166   9.059   5.636
49980SOL    HW251780   6.263   8.987   5.727
49981SOL     OW51781   2.828  13.194  11.888
49981SOL    HW151782   2.821  13.246  11.968
49981SOL    HW251783   2.794  13.251  11.819
49982SOL     OW51784   4.735  13.335   9.217
49982SOL    HW151785   4.641  13.317   9.224
49982SOL    HW251786   4.777  13.267   9.269
49983SOL     OW51787   1.429   9.925   1.384
49983SOL    HW151788   1.468   9.996   1.334
49983SOL    HW251789   1.340   9.917   1.349
49984SOL     OW51790   9.833   7.438   2.184
49984SOL    HW151791   9.905   7.375   2.182
49984SOL    HW251792   9.817   7.460   2.092
49985SOL     OW51793   4.855   6.871   5.973
49985SOL    HW151794   4.935   6.830   5.940
49985SOL    HW251795   4.817   6.805   6.031
49986SOL     OW51796   5.277  13.384   4.307
49986SOL    HW151797   5.368  13.412   4.292
49986SOL    HW251798   5.224  13.455   4.270
49987SOL     OW51799   5.926  14.387  14.450
49987SOL    HW151800   5.879  14.308  14.479
49987SOL    HW251801   6.018  14.362  14.451
49988SOL     OW51802   8.973  12.043   5.841
49988SOL    HW151803   9.035  12.007   5.778
49988SOL    HW251804   8.907  11.974   5.850
49989SOL     OW51805   5.611   7.317  11.574
49989SOL    HW151806   5.557   7.335  11.651
49989SOL    HW251807   5.677   7.386  11.574
49990SOL     OW51808   2.754  14.002   4.656
49990SOL    HW151809   2.842  13.964   4.656
49990SOL    HW251810   2.713  13.969   4.576
49991SOL     OW51811   7.055  12.168   5.922
49991SOL    HW151812   7.091  12.150   5.835
49991SOL    HW251813   6.974  12.118   5.926
49992SOL     OW51814   2.768   6.668   0.623
49992SOL    HW151815   2.675   6.680   0.606
49992SOL    HW251816   2.774   6.584   0.669
49993SOL     OW51817   8.654   8.984   1.831
49993SOL    HW151818   8.709   9.058   1.855
49993SOL    HW251819   8.567   9.022   1.817
49994SOL     OW51820   2.660   7.720   1.684
49994SOL    HW151821   2.651   7.741   1.591
49994SOL    HW251822   2.748   7.683   1.692
49995SOL     OW51823   6.897   9.005   9.536
49995SOL    HW151824   6.918   8.916   9.510
49995SOL    HW251825   6.816   9.025   9.488
49996SOL     OW51826   7.290  13.473  14.492
49996SOL    HW151827   7.366  13.500  14.441
49996SOL    HW251828   7.255  13.397  14.444
49997SOL     OW51829  13.622  13.735   6.664
49997SOL    HW151830  13.532  13.769   6.662
49997SOL    HW251831  13.640  13.710   6.573
49998SOL     OW51832  14.024   0.338   3.472
49998SOL    HW151833  13.946   0.348   3.417
49998SOL    HW251834  14.004   0.263   3.528
49999SOL     OW51835   2.655   6.883   5.988
49999SOL    HW151836   2.623   6.848   5.904
49999SOL    HW251837   2.715   6.816   6.020
50000SOL     OW51838   5.195   6.873  14.650
50000SOL    HW151839   5.209   6.860  14.744
50000SOL    HW251840   5.171   6.786  14.617
50001SOL     OW51841  13.255   9.004   2.414
50001SOL    HW151842  13.285   8.953   2.489
50001SOL    HW251843  13.302   9.087   2.422
50002SOL     OW51844   5.672   0.811  12.038
50002SOL    HW151845   5.673   0.804  12.134
50002SOL    HW251846   5.745   0.755  12.010
50003SOL     OW51847   4.782  10.055   5.351
50003SOL    HW151848   4.784  10.000   5.272
50003SOL    HW251849   4.844  10.125   5.332
50004SOL     OW51850   6.568   0.544   1.590
50004SOL    HW151851   6.627   0.499   1.529
50004SOL    HW251852   6.572   0.636   1.564
50005SOL     OW51853   7.993   9.829   2.753
50005SOL    HW151854   8.034   9.856   2.671
50005SOL    HW251855   7.903   9.862   2.747
50006SOL     OW51856  12.912   5.727  14.813
50006SOL    HW151857  12.850   5.658  14.788
50006SOL    HW251858  12.994   5.681  14.828
50007SOL     OW51859   2.024  13.156   5.590
50007SOL    HW151860   1.942  13.206   5.586
50007SOL    HW251861   2.076  13.189   5.517
50008SOL     OW51862  13.756  13.946   9.748
50008SOL    HW151863  13.794  14.011   9.808
50008SOL    HW251864  13.791  13.970   9.662
50009SOL     OW51865   6.573  14.380   7.179
50009SOL    HW151866   6.572  14.321   7.104
50009SOL    HW251867   6.666  14.400   7.192
50010SOL     OW51868  10.116   5.217   7.505
50010SOL    HW151869  10.109   5.146   7.441
50010SOL    HW251870  10.027   5.251   7.515
50011SOL     OW51871  14.605  10.973  10.252
50011SOL    HW151872  14.635  11.058  10.221
50011SOL    HW251873  14.675  10.941  10.309
50012SOL     OW51874   1.185  13.638   6.081
50012SOL    HW151875   1.260  13.697   6.074
50012SOL    HW251876   1.121  13.672   6.019
50013SOL     OW51877   6.217  14.495   6.000
50013SOL    HW151878   6.218  14.446   6.082
50013SOL    HW251879   6.307  14.488   5.967
50014SOL     OW51880   7.805   7.387  11.015
50014SOL    HW151881   7.769   7.298  11.015
50014SOL    HW251882   7.734   7.441  11.050
50015SOL     OW51883   5.111   0.492   6.909
50015SOL    HW151884   5.045   0.452   6.852
50015SOL    HW251885   5.180   0.426   6.915
50016SOL     OW51886  13.938  14.161   4.080
50016SOL    HW151887  14.008  14.183   4.140
50016SOL    HW251888  13.899  14.081   4.115
50017SOL     OW51889   5.883  10.677   5.688
50017SOL    HW151890   5.962  10.718   5.722
50017SOL    HW251891   5.831  10.749   5.652
50018SOL     OW51892  11.197   3.374   9.907
50018SOL    HW151893  11.101   3.381   9.908
50018SOL    HW251894  11.225   3.434   9.977
50019SOL     OW51895  11.332  14.430   5.144
50019SOL    HW151896  11.417  14.390   5.126
50019SOL    HW251897  11.346  14.524   5.131
50020SOL     OW51898   3.628  11.822   5.452
50020SOL    HW151899   3.641  11.777   5.369
50020SOL    HW251900   3.548  11.874   5.440
50021SOL     OW51901  10.303   5.861   6.639
50021SOL    HW151902  10.343   5.942   6.609
50021SOL    HW251903  10.270   5.881   6.726
50022SOL     OW51904   4.269  12.329  14.301
50022SOL    HW151905   4.216  12.351  14.224
50022SOL    HW251906   4.302  12.241  14.283
50023SOL     OW51907   8.010  12.424   1.807
50023SOL    HW151908   8.078  12.477   1.850
50023SOL    HW251909   8.022  12.336   1.843
50024SOL     OW51910  12.918   2.663   5.922
50024SOL    HW151911  12.919   2.625   5.834
50024SOL    HW251912  12.973   2.741   5.915
50025SOL     OW51913   1.732   9.502  14.834
50025SOL    HW151914   1.727   9.475   0.050
50025SOL    HW251915   1.807   9.561  14.831
50026SOL     OW51916  11.252   7.029  12.493
50026SOL    HW151917  11.317   7.079  12.543
50026SOL    HW251918  11.241   7.078  12.412
50027SOL     OW51919   6.315  11.805   5.095
50027SOL    HW151920   6.314  11.716   5.128
50027SOL    HW251921   6.224  11.835   5.103
50028SOL     OW51922  14.121   3.353   8.392
50028SOL    HW151923  14.172   3.345   8.473
50028SOL    HW251924  14.183   3.334   8.323
50029SOL     OW51925   0.880   2.604   7.910
50029SOL    HW151926   0.942   2.532   7.917
50029SOL    HW251927   0.819   2.590   7.982
50030SOL     OW51928   1.572  10.169   1.364
50030SOL    HW151929   1.595  10.243   1.420
50030SOL    HW251930   1.654  10.144   1.322
50031SOL     OW51931   7.789   7.373  10.154
50031SOL    HW151932   7.789   7.383  10.249
50031SOL    HW251933   7.752   7.456  10.122
50032SOL     OW51934   5.404  10.476   7.127
50032SOL    HW151935   5.485  10.525   7.113
50032SOL    HW251936   5.337  10.544   7.139
50033SOL     OW51937   2.583   5.039   9.892
50033SOL    HW151938   2.532   5.069   9.968
50033SOL    HW251939   2.546   5.087   9.818
50034SOL     OW51940  13.252  10.397   7.137
50034SOL    HW151941  13.164  10.429   7.117
50034SOL    HW251942  13.308  10.474   7.132
50035SOL     OW51943  11.275  13.486   8.339
50035SOL    HW151944  11.321  13.452   8.262
50035SOL    HW251945  11.278  13.581   8.329
50036SOL     OW51946  12.210   0.254   2.514
50036SOL    HW151947  12.136   0.249   2.574
50036SOL    HW251948  12.285   0.276   2.570
50037SOL     OW51949   9.520   3.420   9.442
50037SOL    HW151950   9.531   3.427   9.347
50037SOL    HW251951   9.461   3.346   9.455
50038SOL     OW51952   9.253  13.888   4.502
50038SOL    HW151953   9.183  13.943   4.536
50038SOL    HW251954   9.295  13.850   4.579
50039SOL     OW51955   3.865   3.070   9.579
50039SOL    HW151956   3.796   3.131   9.557
50039SOL    HW251957   3.946   3.120   9.568
50040SOL     OW51958   1.813   7.640  10.072
50040SOL    HW151959   1.748   7.604  10.133
50040SOL    HW251960   1.892   7.649  10.125
50041SOL     OW51961  11.970   9.925  12.242
50041SOL    HW151962  11.996   9.959  12.328
50041SOL    HW251963  11.953   9.832  12.259
50042SOL     OW51964   6.614   0.420  12.272
50042SOL    HW151965   6.687   0.379  12.224
50042SOL    HW251966   6.553   0.446  12.203
50043SOL     OW51967  12.318  10.418  14.640
50043SOL    HW151968  12.383  10.351  14.661
50043SOL    HW251969  12.239  10.390  14.687
50044SOL     OW51970   2.107   9.075   6.973
50044SOL    HW151971   2.177   9.019   7.008
50044SOL    HW251972   2.133   9.163   6.999
50045SOL     OW51973   0.125   3.331   3.527
50045SOL    HW151974   0.145   3.360   3.616
50045SOL    HW251975   0.039   3.370   3.509
50046SOL     OW51976   0.767   9.071  13.709
50046SOL    HW151977   0.816   9.130  13.766
50046SOL    HW251978   0.809   9.080  13.623
50047SOL     OW51979   1.004   8.968  12.808
50047SOL    HW151980   1.053   9.035  12.856
50047SOL    HW251981   0.976   8.906  12.875
50048SOL     OW51982  12.122   2.593   4.600
50048SOL    HW151983  12.189   2.545   4.553
50048SOL    HW251984  12.039   2.560   4.564
50049SOL     OW51985  11.164  10.412   8.541
50049SOL    HW151986  11.130  10.486   8.592
50049SOL    HW251987  11.246  10.444   8.504
50050SOL     OW51988  10.695   1.445  10.572
50050SOL    HW151989  10.779   1.485  10.592
50050SOL    HW251990  10.662   1.494  10.497
50051SOL     OW51991   2.364  13.253  12.861
50051SOL    HW151992   2.322  13.191  12.920
50051SOL    HW251993   2.431  13.294  12.914
50052SOL     OW51994   8.691   9.410   8.099
50052SOL    HW151995   8.686   9.505   8.112
50052SOL    HW251996   8.696   9.374   8.188
50053SOL     OW51997   7.783   7.805   1.237
50053SOL    HW151998   7.807   7.897   1.227
50053SOL    HW251999   7.850   7.758   1.188
50054SOL     OW52000   7.486   4.316   9.951
50054SOL    HW152001   7.523   4.382  10.009
50054SOL    HW252002   7.396   4.304   9.982
50055SOL     OW52003  13.206   1.235   6.256
50055SOL    HW152004  13.186   1.155   6.304
50055SOL    HW252005  13.182   1.216   6.166
50056SOL     OW52006   3.430   9.743  13.727
50056SOL    HW152007   3.509   9.794  13.709
50056SOL    HW252008   3.436   9.668  13.669
50057SOL     OW52009  12.972   4.818  11.733
50057SOL    HW152010  12.942   4.778  11.815
50057SOL    HW252011  12.902   4.880  11.710
50058SOL     OW52012  11.682  11.784   3.637
50058SOL    HW152013  11.641  11.763   3.553
50058SOL    HW252014  11.611  11.820   3.691
50059SOL     OW52015  13.830  12.118   8.685
50059SOL    HW152016  13.922  12.094   8.676
50059SOL    HW252017  13.802  12.075   8.766
50060SOL     OW52018  11.524   5.072   8.027
50060SOL    HW152019  11.608   5.117   8.025
50060SOL    HW252020  11.529   5.016   8.104
50061SOL     OW52021   6.885  11.160   6.743
50061SOL    HW152022   6.817  11.102   6.708
50061SOL    HW252023   6.952  11.163   6.675
50062SOL     OW52024   7.289  10.172   1.971
50062SOL    HW152025   7.309  10.261   1.999
50062SOL    HW252026   7.345  10.158   1.894
50063SOL     OW52027   1.293   2.224   0.622
50063SOL    HW152028   1.268   2.163   0.691
50063SOL    HW252029   1.373   2.186   0.585
50064SOL     OW52030   1.040  10.404   9.403
50064SOL    HW152031   1.026  10.322   9.356
50064SOL    HW252032   1.108  10.384   9.467
50065SOL     OW52033  13.770  12.139   3.395
50065SOL    HW152034  13.707  12.133   3.323
50065SOL    HW252035  13.719  12.118   3.473
50066SOL     OW52036   9.689   0.988   5.084
50066SOL    HW152037   9.666   0.965   4.994
50066SOL    HW252038   9.622   1.051   5.111
50067SOL     OW52039   3.497  10.480   4.990
50067SOL    HW152040   3.544  10.500   5.070
50067SOL    HW252041   3.564  10.477   4.922
50068SOL     OW52042  12.807   1.754  12.566
50068SOL    HW152043  12.798   1.839  12.521
50068SOL    HW252044  12.724   1.710  12.550
50069SOL     OW52045   8.724  12.432   2.740
50069SOL    HW152046   8.704  12.483   2.661
50069SOL    HW252047   8.747  12.345   2.708
50070SOL     OW52048   8.844   7.980  11.571
50070SOL    HW152049   8.866   7.953  11.482
50070SOL    HW252050   8.751   7.999  11.568
50071SOL     OW52051   2.618   1.593   4.381
50071SOL    HW152052   2.582   1.623   4.464
50071SOL    HW252053   2.666   1.513   4.403
50072SOL     OW52054  11.991   0.714  13.649
50072SOL    HW152055  12.046   0.677  13.580
50072SOL    HW252056  12.033   0.685  13.730
50073SOL     OW52057   1.764   3.073   2.720
50073SOL    HW152058   1.674   3.079   2.752
50073SOL    HW252059   1.774   2.981   2.692
50074SOL     OW52060   5.636   7.839   2.544
50074SOL    HW152061   5.555   7.798   2.574
50074SOL    HW252062   5.685   7.857   2.625
50075SOL     OW52063   9.227   0.651  13.410
50075SOL    HW152064   9.155   0.648  13.473
50075SOL    HW252065   9.204   0.724  13.352
50076SOL     OW52066   9.517  13.940   2.826
50076SOL    HW152067   9.612  13.951   2.827
50076SOL    HW252068   9.483  14.027   2.803
50077SOL     OW52069   2.075   8.183   4.879
50077SOL    HW152070   2.047   8.162   4.968
50077SOL    HW252071   1.994   8.207   4.833
50078SOL     OW52072  14.743  11.053  11.972
50078SOL    HW152073  14.766  10.986  12.036
50078SOL    HW252074  14.654  11.078  11.994
50079SOL     OW52075  12.729   4.617   5.906
50079SOL    HW152076  12.711   4.523   5.907
50079SOL    HW252077  12.645   4.658   5.927
50080SOL     OW52078  13.322   3.548   0.429
50080SOL    HW152079  13.296   3.609   0.361
50080SOL    HW252080  13.361   3.603   0.497
50081SOL     OW52081   7.998   7.848  11.853
50081SOL    HW152082   8.015   7.886  11.767
50081SOL    HW252083   7.985   7.755  11.836
50082SOL     OW52084  11.759  13.592   1.949
50082SOL    HW152085  11.816  13.584   2.025
50082SOL    HW252086  11.755  13.504   1.913
50083SOL     OW52087  10.929   1.018  14.693
50083SOL    HW152088  10.835   1.017  14.675
50083SOL    HW252089  10.937   1.062  14.777
50084SOL     OW52090  14.407   9.081  10.094
50084SOL    HW152091  14.478   9.128  10.137
50084SOL    HW252092  14.451   9.012  10.045
50085SOL     OW52093   4.100  12.816   4.157
50085SOL    HW152094   4.098  12.759   4.233
50085SOL    HW252095   4.045  12.772   4.092
50086SOL     OW52096  12.328   8.025   3.606
50086SOL    HW152097  12.334   7.937   3.643
50086SOL    HW252098  12.350   8.014   3.513
50087SOL     OW52099  10.282  13.191   0.475
50087SOL    HW152100  10.282  13.243   0.556
50087SOL    HW252101  10.247  13.251   0.409
50088SOL     OW52102   6.756   7.895   8.503
50088SOL    HW152103   6.741   7.922   8.413
50088SOL    HW252104   6.669   7.879   8.539
50089SOL     OW52105  11.031  14.033   0.818
50089SOL    HW152106  11.065  14.066   0.734
50089SOL    HW252107  11.075  14.086   0.884
50090SOL     OW52108   0.507   3.697   3.697
50090SOL    HW152109   0.507   3.604   3.675
50090SOL    HW252110   0.512   3.741   3.612
50091SOL     OW52111   5.099   3.624  12.478
50091SOL    HW152112   5.041   3.604  12.405
50091SOL    HW252113   5.180   3.654  12.438
50092SOL     OW52114   2.371  12.175   6.789
50092SOL    HW152115   2.432  12.232   6.741
50092SOL    HW252116   2.292  12.228   6.799
50093SOL     OW52117   5.797   5.762  10.803
50093SOL    HW152118   5.818   5.679  10.761
50093SOL    HW252119   5.820   5.828  10.738
50094SOL     OW52120   1.790  12.282   2.735
50094SOL    HW152121   1.704  12.280   2.693
50094SOL    HW252122   1.827  12.196   2.717
50095SOL     OW52123   8.950   5.046   4.918
50095SOL    HW152124   8.887   4.979   4.892
50095SOL    HW252125   8.944   5.113   4.850
50096SOL     OW52126   8.571   8.149   4.931
50096SOL    HW152127   8.515   8.071   4.926
50096SOL    HW252128   8.514   8.217   4.966
50097SOL     OW52129   2.326   7.747   5.367
50097SOL    HW152130   2.331   7.802   5.289
50097SOL    HW252131   2.283   7.667   5.338
50098SOL     OW52132   7.946  13.481   3.159
50098SOL    HW152133   8.033  13.499   3.194
50098SOL    HW252134   7.902  13.429   3.226
50099SOL     OW52135   3.578  10.860   5.715
50099SOL    HW152136   3.575  10.927   5.647
50099SOL    HW252137   3.581  10.909   5.797
50100SOL     OW52138   2.932  14.501   6.762
50100SOL    HW152139   2.838  14.504   6.779
50100SOL    HW252140   2.971  14.558   6.829
50101SOL     OW52141   5.612  12.202  13.605
50101SOL    HW152142   5.551  12.258  13.558
50101SOL    HW252143   5.562  12.171  13.680
50102SOL     OW52144   3.342   6.488  14.351
50102SOL    HW152145   3.367   6.578  14.374
50102SOL    HW252146   3.288   6.460  14.425
50103SOL     OW52147   6.106   6.756   0.090
50103SOL    HW152148   6.068   6.826   0.038
50103SOL    HW252149   6.048   6.681   0.076
50104SOL     OW52150   7.708  12.524   4.628
50104SOL    HW152151   7.698  12.438   4.588
50104SOL    HW252152   7.802  12.541   4.624
50105SOL     OW52153   1.947   4.663   3.793
50105SOL    HW152154   1.868   4.665   3.847
50105SOL    HW252155   2.015   4.628   3.851
50106SOL     OW52156   4.391  10.291  11.710
50106SOL    HW152157   4.320  10.352  11.693
50106SOL    HW252158   4.460  10.343  11.751
50107SOL     OW52159   0.274   0.118   1.766
50107SOL    HW152160   0.359   0.106   1.809
50107SOL    HW252161   0.214   0.062   1.816
50108SOL     OW52162  12.738   7.112   5.688
50108SOL    HW152163  12.768   7.063   5.765
50108SOL    HW252164  12.812   7.167   5.665
50109SOL     OW52165   1.784   4.377  12.997
50109SOL    HW152166   1.814   4.300  13.045
50109SOL    HW252167   1.814   4.451  13.050
50110SOL     OW52168  13.229  12.119  13.404
50110SOL    HW152169  13.302  12.152  13.457
50110SOL    HW252170  13.219  12.183  13.334
50111SOL     OW52171   8.829   6.922   9.296
50111SOL    HW152172   8.755   6.922   9.236
50111SOL    HW252173   8.905   6.942   9.242
50112SOL     OW52174   2.073  12.470   0.823
50112SOL    HW152175   2.153  12.460   0.772
50112SOL    HW252176   2.070  12.393   0.879
50113SOL     OW52177   3.313   8.938  14.810
50113SOL    HW152178   3.364   9.017  14.792
50113SOL    HW252179   3.233   8.948  14.758
50114SOL     OW52180  10.011   0.986   7.476
50114SOL    HW152181   9.942   0.938   7.430
50114SOL    HW252182   9.966   1.029   7.548
50115SOL     OW52183  10.015   0.924   1.929
50115SOL    HW152184   9.984   0.989   1.865
50115SOL    HW252185  10.078   0.871   1.881
50116SOL     OW52186   8.825  13.260  13.050
50116SOL    HW152187   8.903  13.205  13.039
50116SOL    HW252188   8.824  13.280  13.144
50117SOL     OW52189  11.277   2.953   4.023
50117SOL    HW152190  11.322   2.922   4.102
50117SOL    HW252191  11.215   3.018   4.055
50118SOL     OW52192   3.399   9.138  10.691
50118SOL    HW152193   3.481   9.177  10.720
50118SOL    HW252194   3.423   9.051  10.659
50119SOL     OW52195   8.233   2.636   7.145
50119SOL    HW152196   8.218   2.729   7.162
50119SOL    HW252197   8.228   2.595   7.231
50120SOL     OW52198   3.504   1.614  10.331
50120SOL    HW152199   3.496   1.710  10.333
50120SOL    HW252200   3.513   1.592  10.239
50121SOL     OW52201   8.247   6.664   5.138
50121SOL    HW152202   8.226   6.757   5.127
50121SOL    HW252203   8.165   6.623   5.164
50122SOL     OW52204   2.293   6.586   1.940
50122SOL    HW152205   2.372   6.536   1.920
50122SOL    HW252206   2.313   6.630   2.022
50123SOL     OW52207   8.224   8.293  12.023
50123SOL    HW152208   8.209   8.222  12.085
50123SOL    HW252209   8.136   8.325  12.003
50124SOL     OW52210   5.627  11.979  14.852
50124SOL    HW152211   5.641  11.886  14.836
50124SOL    HW252212   5.640  12.021  14.767
50125SOL     OW52213   3.128  12.047  13.428
50125SOL    HW152214   3.115  12.107  13.501
50125SOL    HW252215   3.206  11.996  13.451
50126SOL     OW52216  11.448   2.568   6.572
50126SOL    HW152217  11.378   2.633   6.580
50126SOL    HW252218  11.529   2.619   6.578
50127SOL     OW52219  12.658   4.100   6.124
50127SOL    HW152220  12.698   4.183   6.149
50127SOL    HW252221  12.719   4.063   6.060
50128SOL     OW52222   0.418   4.404   8.703
50128SOL    HW152223   0.437   4.427   8.794
50128SOL    HW252224   0.495   4.433   8.654
50129SOL     OW52225   6.917   0.996  12.601
50129SOL    HW152226   6.957   0.946  12.530
50129SOL    HW252227   6.892   0.930  12.666
50130SOL     OW52228  11.922   2.402  14.826
50130SOL    HW152229  11.871   2.324  14.844
50130SOL    HW252230  11.952   2.391  14.736
50131SOL     OW52231   8.739  13.493  12.879
50131SOL    HW152232   8.675  13.533  12.937
50131SOL    HW252233   8.763  13.411  12.922
50132SOL     OW52234   6.673   8.832  14.458
50132SOL    HW152235   6.584   8.831  14.492
50132SOL    HW252236   6.728   8.845  14.535
50133SOL     OW52237   2.150   7.269   8.216
50133SOL    HW152238   2.171   7.343   8.274
50133SOL    HW252239   2.194   7.194   8.256
50134SOL     OW52240   5.778  12.409   6.431
50134SOL    HW152241   5.720  12.446   6.364
50134SOL    HW252242   5.772  12.470   6.504
50135SOL     OW52243   3.916   5.161   4.778
50135SOL    HW152244   4.001   5.200   4.760
50135SOL    HW252245   3.869   5.228   4.828
50136SOL     OW52246   9.656  11.431   1.222
50136SOL    HW152247   9.565  11.442   1.197
50136SOL    HW252248   9.654  11.414   1.316
50137SOL     OW52249  13.790  12.448  10.110
50137SOL    HW152250  13.846  12.371  10.115
50137SOL    HW252251  13.846  12.516  10.072
50138SOL     OW52252   1.833   4.472   8.508
50138SOL    HW152253   1.889   4.400   8.540
50138SOL    HW252254   1.815   4.449   8.417
50139SOL     OW52255  12.288   3.771  12.396
50139SOL    HW152256  12.312   3.693  12.346
50139SOL    HW252257  12.242   3.827  12.333
50140SOL     OW52258   2.024   4.953  12.811
50140SOL    HW152259   2.090   5.022  12.814
50140SOL    HW252260   1.959   4.985  12.748
50141SOL     OW52261   6.133   8.654  13.319
50141SOL    HW152262   6.069   8.707  13.367
50141SOL    HW252263   6.081   8.594  13.267
50142SOL     OW52264  14.173   1.520  11.591
50142SOL    HW152265  14.153   1.483  11.505
50142SOL    HW252266  14.153   1.450  11.653
50143SOL     OW52267   8.731   4.299   7.777
50143SOL    HW152268   8.652   4.288   7.725
50143SOL    HW252269   8.797   4.246   7.732
50144SOL     OW52270   3.773   8.044  12.802
50144SOL    HW152271   3.844   8.078  12.857
50144SOL    HW252272   3.770   7.951  12.821
50145SOL     OW52273   7.175  12.229  11.496
50145SOL    HW152274   7.224  12.170  11.553
50145SOL    HW252275   7.208  12.210  11.408
50146SOL     OW52276  14.182  13.651   9.859
50146SOL    HW152277  14.229  13.674   9.778
50146SOL    HW252278  14.099  13.614   9.829
50147SOL     OW52279   5.054  10.153  10.854
50147SOL    HW152280   4.998  10.111  10.919
50147SOL    HW252281   5.075  10.238  10.893
50148SOL     OW52282   8.329   6.137  10.788
50148SOL    HW152283   8.307   6.059  10.838
50148SOL    HW252284   8.396   6.181  10.841
50149SOL     OW52285  14.163   3.117   2.459
50149SOL    HW152286  14.176   3.180   2.530
50149SOL    HW252287  14.250   3.086   2.437
50150SOL     OW52288   9.071  13.086  10.112
50150SOL    HW152289   9.061  13.083  10.208
50150SOL    HW252290   8.990  13.127  10.082
50151SOL     OW52291  14.754  10.837   6.969
50151SOL    HW152292  14.778  10.827   7.061
50151SOL    HW252293  14.729  10.749   6.940
50152SOL     OW52294  13.349  13.289   2.544
50152SOL    HW152295  13.309  13.205   2.566
50152SOL    HW252296  13.339  13.341   2.624
50153SOL     OW52297  12.773   4.721  11.942
50153SOL    HW152298  12.836   4.665  11.987
50153SOL    HW252299  12.704   4.661  11.913
50154SOL     OW52300   1.241   6.307   5.913
50154SOL    HW152301   1.295   6.348   5.845
50154SOL    HW252302   1.294   6.235   5.945
50155SOL     OW52303  13.855   1.474   9.548
50155SOL    HW152304  13.805   1.555   9.549
50155SOL    HW252305  13.830   1.429   9.629
50156SOL     OW52306   3.329   2.415   5.487
50156SOL    HW152307   3.259   2.446   5.545
50156SOL    HW252308   3.393   2.486   5.488
50157SOL     OW52309  14.736   5.171  12.905
50157SOL    HW152310  14.823   5.134  12.920
50157SOL    HW252311  14.738   5.200  12.813
50158SOL     OW52312   3.875   7.414  10.423
50158SOL    HW152313   3.951   7.462  10.456
50158SOL    HW252314   3.821   7.481  10.381
50159SOL     OW52315  14.025   4.093   2.587
50159SOL    HW152316  14.081   4.090   2.664
50159SOL    HW252317  14.083   4.070   2.514
50160SOL     OW52318   9.688   6.872   3.937
50160SOL    HW152319   9.716   6.885   4.027
50160SOL    HW252320   9.750   6.924   3.885
50161SOL     OW52321  11.221   8.930   8.473
50161SOL    HW152322  11.227   9.025   8.483
50161SOL    HW252323  11.290   8.908   8.411
50162SOL     OW52324   6.267   7.355  13.359
50162SOL    HW152325   6.332   7.286  13.350
50162SOL    HW252326   6.245   7.379  13.268
50163SOL     OW52327   1.767   6.689   8.500
50163SOL    HW152328   1.684   6.670   8.544
50163SOL    HW252329   1.754   6.776   8.462
50164SOL     OW52330   6.008   8.373   4.271
50164SOL    HW152331   6.064   8.296   4.262
50164SOL    HW252332   5.921   8.341   4.246
50165SOL     OW52333  11.212   3.783   6.064
50165SOL    HW152334  11.271   3.734   6.122
50165SOL    HW252335  11.244   3.765   5.976
50166SOL     OW52336   6.616   9.552   8.694
50166SOL    HW152337   6.552   9.484   8.678
50166SOL    HW252338   6.579   9.605   8.765
50167SOL     OW52339  10.752  14.348  14.493
50167SOL    HW152340  10.751  14.385  14.581
50167SOL    HW252341  10.791  14.262  14.504
50168SOL     OW52342  13.456   5.095  10.292
50168SOL    HW152343  13.459   5.015  10.345
50168SOL    HW252344  13.405   5.070  10.214
50169SOL     OW52345   8.520   2.497   8.973
50169SOL    HW152346   8.468   2.419   8.951
50169SOL    HW252347   8.472   2.538   9.045
50170SOL     OW52348  10.187   0.544   8.378
50170SOL    HW152349  10.261   0.603   8.361
50170SOL    HW252350  10.204   0.510   8.466
50171SOL     OW52351   3.745   3.457   2.644
50171SOL    HW152352   3.778   3.520   2.580
50171SOL    HW252353   3.662   3.494   2.675
50172SOL     OW52354  11.414  10.439  11.213
50172SOL    HW152355  11.350  10.437  11.142
50172SOL    HW252356  11.421  10.531  11.237
50173SOL     OW52357   1.207   3.535  10.677
50173SOL    HW152358   1.175   3.469  10.738
50173SOL    HW252359   1.211   3.615  10.728
50174SOL     OW52360  11.144   2.573   6.027
50174SOL    HW152361  11.167   2.481   6.015
50174SOL    HW252362  11.074   2.572   6.092
50175SOL     OW52363  14.383   8.889  12.018
50175SOL    HW152364  14.330   8.831  11.963
50175SOL    HW252365  14.420   8.953  11.957
50176SOL     OW52366  11.914  14.513  12.906
50176SOL    HW152367  11.973  14.476  12.973
50176SOL    HW252368  11.935  14.465  12.826
50177SOL     OW52369   0.969   8.989  12.068
50177SOL    HW152370   1.042   8.952  12.118
50177SOL    HW252371   0.910   9.024  12.134
50178SOL     OW52372   4.499   5.703   3.997
50178SOL    HW152373   4.531   5.690   4.087
50178SOL    HW252374   4.419   5.651   3.993
50179SOL     OW52375   6.804   3.974   9.123
50179SOL    HW152376   6.720   3.943   9.158
50179SOL    HW252377   6.863   3.974   9.199
50180SOL     OW52378   8.078   1.860  13.336
50180SOL    HW152379   8.018   1.888  13.267
50180SOL    HW252380   8.095   1.939  13.387
50181SOL     OW52381   4.746  13.717   6.610
50181SOL    HW152382   4.715  13.767   6.534
50181SOL    HW252383   4.770  13.784   6.674
50182SOL     OW52384   2.722   9.371   0.329
50182SOL    HW152385   2.671   9.299   0.366
50182SOL    HW252386   2.742   9.427   0.404
50183SOL     OW52387  14.020   3.460   3.967
50183SOL    HW152388  13.927   3.444   3.952
50183SOL    HW252389  14.027   3.474   4.061
50184SOL     OW52390  12.812   8.840  11.645
50184SOL    HW152391  12.778   8.769  11.590
50184SOL    HW252392  12.834   8.910  11.584
50185SOL     OW52393  11.733   8.016   1.423
50185SOL    HW152394  11.671   8.085   1.400
50185SOL    HW252395  11.818   8.049   1.395
50186SOL     OW52396  13.460  11.928   6.512
50186SOL    HW152397  13.435  11.848   6.465
50186SOL    HW252398  13.382  11.983   6.510
50187SOL     OW52399   9.198  11.069   1.152
50187SOL    HW152400   9.176  11.123   1.076
50187SOL    HW252401   9.250  11.126   1.208
50188SOL     OW52402  13.399   7.112  11.593
50188SOL    HW152403  13.317   7.096  11.640
50188SOL    HW252404  13.453   7.036  11.611
50189SOL     OW52405  11.662   8.199   1.931
50189SOL    HW152406  11.687   8.109   1.954
50189SOL    HW252407  11.667   8.202   1.836
50190SOL     OW52408  14.024   4.223   1.278
50190SOL    HW152409  14.090   4.290   1.266
50190SOL    HW252410  14.063   4.161   1.340
50191SOL     OW52411  12.546   3.745   0.946
50191SOL    HW152412  12.494   3.808   0.997
50191SOL    HW252413  12.542   3.778   0.856
50192SOL     OW52414   8.288  12.467   0.953
50192SOL    HW152415   8.249  12.497   1.036
50192SOL    HW252416   8.298  12.547   0.901
50193SOL     OW52417   6.359   1.271  11.705
50193SOL    HW152418   6.292   1.315  11.756
50193SOL    HW252419   6.361   1.182  11.741
50194SOL     OW52420  13.590   4.988  12.670
50194SOL    HW152421  13.534   4.921  12.709
50194SOL    HW252422  13.550   5.071  12.693
50195SOL     OW52423  14.665  13.968   7.386
50195SOL    HW152424  14.588  13.947   7.332
50195SOL    HW252425  14.722  13.892   7.376
50196SOL     OW52426   5.339  14.567  10.518
50196SOL    HW152427   5.390  14.639  10.481
50196SOL    HW252428   5.328  14.506  10.445
50197SOL     OW52429   8.880   2.676   2.771
50197SOL    HW152430   8.849   2.596   2.813
50197SOL    HW252431   8.976   2.671   2.778
50198SOL     OW52432   2.356   2.769  14.442
50198SOL    HW152433   2.343   2.699  14.506
50198SOL    HW252434   2.451   2.779  14.437
50199SOL     OW52435   7.103  12.441  14.360
50199SOL    HW152436   7.075  12.454  14.450
50199SOL    HW252437   7.034  12.481  14.307
50200SOL     OW52438   8.180  11.082   4.877
50200SOL    HW152439   8.204  11.010   4.818
50200SOL    HW252440   8.203  11.049   4.965
50201SOL     OW52441   9.136   1.978   9.877
50201SOL    HW152442   9.077   2.040   9.834
50201SOL    HW252443   9.098   1.892   9.858
50202SOL     OW52444   2.717   9.315   4.961
50202SOL    HW152445   2.690   9.350   4.876
50202SOL    HW252446   2.765   9.235   4.940
50203SOL     OW52447   9.821  10.843   3.209
50203SOL    HW152448   9.893  10.800   3.255
50203SOL    HW252449   9.744  10.788   3.227
50204SOL     OW52450  13.690   9.109   9.853
50204SOL    HW152451  13.622   9.166   9.818
50204SOL    HW252452  13.723   9.061   9.776
50205SOL     OW52453  10.730   2.126   6.511
50205SOL    HW152454  10.757   2.158   6.597
50205SOL    HW252455  10.705   2.205   6.463
50206SOL     OW52456  11.177   5.989   9.450
50206SOL    HW152457  11.239   5.929   9.491
50206SOL    HW252458  11.229   6.067   9.430
50207SOL     OW52459  12.111   3.505  14.780
50207SOL    HW152460  12.136   3.558  14.856
50207SOL    HW252461  12.184   3.515  14.719
50208SOL     OW52462   8.551   9.661   1.227
50208SOL    HW152463   8.534   9.627   1.140
50208SOL    HW252464   8.604   9.594   1.270
50209SOL     OW52465   4.550   0.640  11.487
50209SOL    HW152466   4.564   0.663  11.578
50209SOL    HW252467   4.503   0.715  11.450
50210SOL     OW52468  10.652   2.884  11.281
50210SOL    HW152469  10.637   2.975  11.309
50210SOL    HW252470  10.639   2.887  11.186
50211SOL     OW52471  11.012   8.069  13.372
50211SOL    HW152472  11.057   8.142  13.330
50211SOL    HW252473  11.056   7.991  13.339
50212SOL     OW52474   3.266   6.528   4.180
50212SOL    HW152475   3.349   6.573   4.167
50212SOL    HW252476   3.279   6.476   4.259
50213SOL     OW52477   9.605   6.511   6.954
50213SOL    HW152478   9.616   6.480   7.044
50213SOL    HW252479   9.617   6.606   6.961
50214SOL     OW52480   0.622   1.401  11.509
50214SOL    HW152481   0.593   1.491  11.490
50214SOL    HW252482   0.654   1.369  11.425
50215SOL     OW52483   6.137   1.389  14.599
50215SOL    HW152484   6.121   1.471  14.645
50215SOL    HW252485   6.132   1.412  14.506
50216SOL     OW52486  11.774  14.173  10.111
50216SOL    HW152487  11.704  14.221  10.067
50216SOL    HW252488  11.808  14.235  10.176
50217SOL     OW52489   4.707   4.422  13.246
50217SOL    HW152490   4.792   4.447  13.207
50217SOL    HW252491   4.668   4.364  13.181
50218SOL     OW52492   4.032  14.684   7.411
50218SOL    HW152493   4.002  14.658   7.324
50218SOL    HW252494   4.074  14.768   7.398
50219SOL     OW52495   2.667  13.299   5.853
50219SOL    HW152496   2.664  13.208   5.883
50219SOL    HW252497   2.648  13.351   5.931
50220SOL     OW52498   4.546   5.067   4.981
50220SOL    HW152499   4.600   5.145   4.992
50220SOL    HW252500   4.593   4.998   5.029
50221SOL     OW52501   3.405  12.624  12.214
50221SOL    HW152502   3.368  12.701  12.257
50221SOL    HW252503   3.451  12.577  12.283
50222SOL     OW52504   6.466   4.971   6.009
50222SOL    HW152505   6.402   5.008   5.948
50222SOL    HW252506   6.435   4.998   6.095
50223SOL     OW52507  13.197  13.608   0.085
50223SOL    HW152508  13.239  13.693   0.069
50223SOL    HW252509  13.218  13.588   0.176
50224SOL     OW52510   7.707  12.236  13.474
50224SOL    HW152511   7.663  12.307  13.428
50224SOL    HW252512   7.797  12.266  13.485
50225SOL     OW52513   2.130  10.608   5.005
50225SOL    HW152514   2.193  10.621   5.075
50225SOL    HW252515   2.145  10.680   4.944
50226SOL     OW52516   3.156  14.454   9.585
50226SOL    HW152517   3.211  14.431   9.510
50226SOL    HW252518   3.205  14.522   9.630
50227SOL     OW52519   3.577   7.692   1.380
50227SOL    HW152520   3.583   7.756   1.308
50227SOL    HW252521   3.484   7.674   1.388
50228SOL     OW52522   8.454   7.870   7.375
50228SOL    HW152523   8.384   7.808   7.400
50228SOL    HW252524   8.534   7.829   7.409
50229SOL     OW52525   2.137  10.006  10.611
50229SOL    HW152526   2.200  10.073  10.637
50229SOL    HW252527   2.174   9.967  10.532
50230SOL     OW52528   7.542   8.391  12.018
50230SOL    HW152529   7.450   8.412  12.035
50230SOL    HW252530   7.590   8.446  12.080
50231SOL     OW52531   3.478   0.271   5.169
50231SOL    HW152532   3.560   0.297   5.126
50231SOL    HW252533   3.504   0.254   5.260
50232SOL     OW52534   3.759  12.941   7.655
50232SOL    HW152535   3.684  12.996   7.633
50232SOL    HW252536   3.803  12.926   7.571
50233SOL     OW52537   8.442  13.803  12.304
50233SOL    HW152538   8.447  13.730  12.243
50233SOL    HW252539   8.493  13.776  12.380
50234SOL     OW52540   8.330   4.123   7.530
50234SOL    HW152541   8.320   4.082   7.444
50234SOL    HW252542   8.297   4.212   7.517
50235SOL     OW52543  12.111  10.532   3.695
50235SOL    HW152544  12.179  10.596   3.675
50235SOL    HW252545  12.044  10.582   3.742
50236SOL     OW52546   9.546   7.717  13.906
50236SOL    HW152547   9.563   7.668  13.986
50236SOL    HW252548   9.609   7.788  13.908
50237SOL     OW52549  14.083   5.329   6.038
50237SOL    HW152550  14.167   5.374   6.044
50237SOL    HW252551  14.096   5.246   6.083
50238SOL     OW52552   0.810   9.465  10.892
50238SOL    HW152553   0.769   9.413  10.961
50238SOL    HW252554   0.895   9.491  10.930
50239SOL     OW52555   0.358   8.076  13.637
50239SOL    HW152556   0.322   8.165  13.640
50239SOL    HW252557   0.306   8.026  13.700
50240SOL     OW52558   4.624  13.567  14.245
50240SOL    HW152559   4.565  13.619  14.299
50240SOL    HW252560   4.634  13.619  14.165
50241SOL     OW52561   2.040   3.983  12.010
50241SOL    HW152562   1.980   4.006  12.081
50241SOL    HW252563   2.091   4.062  11.995
50242SOL     OW52564   6.186   3.684   8.172
50242SOL    HW152565   6.216   3.599   8.139
50242SOL    HW252566   6.208   3.682   8.266
50243SOL     OW52567   3.508   8.364   1.901
50243SOL    HW152568   3.480   8.282   1.861
50243SOL    HW252569   3.451   8.375   1.976
50244SOL     OW52570   8.934   7.443   6.470
50244SOL    HW152571   9.019   7.479   6.445
50244SOL    HW252572   8.884   7.519   6.502
50245SOL     OW52573   0.108  12.513   8.675
50245SOL    HW152574   0.129  12.606   8.667
50245SOL    HW252575   0.030  12.511   8.730
50246SOL     OW52576   3.666  13.549   3.105
50246SOL    HW152577   3.688  13.576   3.194
50246SOL    HW252578   3.741  13.577   3.053
50247SOL     OW52579   7.219   9.855   6.771
50247SOL    HW152580   7.216   9.888   6.681
50247SOL    HW252581   7.189   9.764   6.764
50248SOL     OW52582   4.222  10.951   3.800
50248SOL    HW152583   4.316  10.938   3.806
50248SOL    HW252584   4.185  10.891   3.865
50249SOL     OW52585  12.473   8.551   9.952
50249SOL    HW152586  12.402   8.615   9.946
50249SOL    HW252587  12.548   8.595   9.911
50250SOL     OW52588   5.247  10.823  12.616
50250SOL    HW152589   5.229  10.787  12.529
50250SOL    HW252590   5.337  10.797  12.636
50251SOL     OW52591   7.146  11.046   9.316
50251SOL    HW152592   7.134  10.962   9.361
50251SOL    HW252593   7.219  11.030   9.255
50252SOL     OW52594  13.791   0.783  14.492
50252SOL    HW152595  13.757   0.865  14.527
50252SOL    HW252596  13.713   0.737  14.460
50253SOL     OW52597   8.035  13.636  10.008
50253SOL    HW152598   8.095  13.621   9.935
50253SOL    HW252599   7.976  13.560  10.007
50254SOL     OW52600   8.612   4.937   1.772
50254SOL    HW152601   8.525   4.953   1.807
50254SOL    HW252602   8.609   4.971   1.683
50255SOL     OW52603   7.637   7.607  12.503
50255SOL    HW152604   7.632   7.702  12.493
50255SOL    HW252605   7.638   7.593  12.598
50256SOL     OW52606   2.500  11.334  12.512
50256SOL    HW152607   2.537  11.327  12.600
50256SOL    HW252608   2.529  11.420  12.481
50257SOL     OW52609   8.083   5.922   6.550
50257SOL    HW152610   8.092   5.855   6.618
50257SOL    HW252611   8.152   5.985   6.570
50258SOL     OW52612   3.497   7.825  13.653
50258SOL    HW152613   3.416   7.871  13.676
50258SOL    HW252614   3.541   7.883  13.591
50259SOL     OW52615   2.704   0.409  11.235
50259SOL    HW152616   2.718   0.478  11.301
50259SOL    HW252617   2.622   0.434  11.192
50260SOL     OW52618  12.620   5.697  12.733
50260SOL    HW152619  12.701   5.671  12.689
50260SOL    HW252620  12.562   5.724  12.662
50261SOL     OW52621  14.678   4.398  12.187
50261SOL    HW152622  14.691   4.467  12.121
50261SOL    HW252623  14.583   4.389  12.193
50262SOL     OW52624   2.685   7.303   3.508
50262SOL    HW152625   2.664   7.216   3.475
50262SOL    HW252626   2.726   7.287   3.593
50263SOL     OW52627   2.108   0.491  11.643
50263SOL    HW152628   2.079   0.556  11.579
50263SOL    HW252629   2.202   0.507  11.652
50264SOL     OW52630  11.754  13.974   0.163
50264SOL    HW152631  11.679  14.001   0.216
50264SOL    HW252632  11.735  14.008   0.076
50265SOL     OW52633   3.970   9.444  10.822
50265SOL    HW152634   3.914   9.505  10.871
50265SOL    HW252635   4.054   9.446  10.868
50266SOL     OW52636  10.118   0.301   7.904
50266SOL    HW152637  10.039   0.315   7.851
50266SOL    HW252638  10.103   0.350   7.984
50267SOL     OW52639   4.059  11.687   8.451
50267SOL    HW152640   4.144  11.681   8.496
50267SOL    HW252641   4.019  11.601   8.464
50268SOL     OW52642  12.489   1.644   8.409
50268SOL    HW152643  12.402   1.608   8.419
50268SOL    HW252644  12.512   1.679   8.495
50269SOL     OW52645  12.256  14.028  14.333
50269SOL    HW152646  12.268  13.970  14.257
50269SOL    HW252647  12.210  14.104  14.297
50270SOL     OW52648   7.449   2.463  11.703
50270SOL    HW152649   7.415   2.543  11.744
50270SOL    HW252650   7.394   2.451  11.626
50271SOL     OW52651   0.747  13.039   9.473
50271SOL    HW152652   0.748  13.060   9.380
50271SOL    HW252653   0.835  13.060   9.504
50272SOL     OW52654   1.012   8.061  14.041
50272SOL    HW152655   1.049   8.045  14.127
50272SOL    HW252656   0.970   8.147  14.048
50273SOL     OW52657   7.383  14.781   9.386
50273SOL    HW152658   7.408  14.689   9.391
50273SOL    HW252659   7.338  14.797   9.469
50274SOL     OW52660  14.458  12.574   8.737
50274SOL    HW152661  14.492  12.485   8.731
50274SOL    HW252662  14.446  12.589   8.831
50275SOL     OW52663   6.036   9.524   9.958
50275SOL    HW152664   6.084   9.536  10.040
50275SOL    HW252665   6.043   9.430   9.940
50276SOL     OW52666  13.202   1.333   3.721
50276SOL    HW152667  13.286   1.336   3.767
50276SOL    HW252668  13.137   1.346   3.790
50277SOL     OW52669   0.494  11.358   0.063
50277SOL    HW152670   0.420  11.364   0.123
50277SOL    HW252671   0.544  11.438   0.077
50278SOL     OW52672   6.508   5.614   2.072
50278SOL    HW152673   6.522   5.648   2.160
50278SOL    HW252674   6.423   5.571   2.077
50279SOL     OW52675  11.545  14.252  14.106
50279SOL    HW152676  11.456  14.285  14.114
50279SOL    HW252677  11.552  14.223  14.015
50280SOL     OW52678   2.986   8.032   0.293
50280SOL    HW152679   3.012   8.105   0.349
50280SOL    HW252680   3.010   7.954   0.344
50281SOL     OW52681   2.027  13.408   9.537
50281SOL    HW152682   2.015  13.468   9.463
50281SOL    HW252683   2.112  13.433   9.574
50282SOL     OW52684  13.992   0.375  14.579
50282SOL    HW152685  14.055   0.444  14.562
50282SOL    HW252686  14.043   0.307  14.623
50283SOL     OW52687   2.292   1.208   6.299
50283SOL    HW152688   2.320   1.117   6.302
50283SOL    HW252689   2.211   1.211   6.349
50284SOL     OW52690  11.624   9.804  12.749
50284SOL    HW152691  11.678   9.862  12.696
50284SOL    HW252692  11.687   9.748  12.795
50285SOL     OW52693  11.533   6.448   6.195
50285SOL    HW152694  11.500   6.394   6.266
50285SOL    HW252695  11.463   6.511   6.178
50286SOL     OW52696   7.954  12.384  10.544
50286SOL    HW152697   8.044  12.355  10.558
50286SOL    HW252698   7.904  12.343  10.616
50287SOL     OW52699   5.086   1.373   0.358
50287SOL    HW152700   5.159   1.350   0.415
50287SOL    HW252701   5.024   1.301   0.370
50288SOL     OW52702  13.994   7.296   5.603
50288SOL    HW152703  13.989   7.387   5.631
50288SOL    HW252704  13.937   7.249   5.663
50289SOL     OW52705   6.439  10.278   7.300
50289SOL    HW152706   6.398  10.200   7.336
50289SOL    HW252707   6.372  10.346   7.308
50290SOL     OW52708   7.002  11.643   5.468
50290SOL    HW152709   6.921  11.661   5.421
50290SOL    HW252710   6.988  11.558   5.510
50291SOL     OW52711  14.510   7.013   3.521
50291SOL    HW152712  14.530   7.067   3.444
50291SOL    HW252713  14.510   6.924   3.487
50292SOL     OW52714  12.878   3.185   9.133
50292SOL    HW152715  12.827   3.120   9.183
50292SOL    HW252716  12.813   3.228   9.078
50293SOL     OW52717   1.938   5.843  12.342
50293SOL    HW152718   1.971   5.754  12.336
50293SOL    HW252719   1.843   5.833  12.353
50294SOL     OW52720   6.252   5.254  12.994
50294SOL    HW152721   6.192   5.264  13.068
50294SOL    HW252722   6.242   5.334  12.943
50295SOL     OW52723  11.820   8.395   3.667
50295SOL    HW152724  11.890   8.378   3.731
50295SOL    HW252725  11.829   8.487   3.646
50296SOL     OW52726   4.119   3.448   6.827
50296SOL    HW152727   4.054   3.487   6.884
50296SOL    HW252728   4.191   3.424   6.886
50297SOL     OW52729   4.310   0.036  10.081
50297SOL    HW152730   4.289  14.820  10.066
50297SOL    HW252731   4.326   0.042  10.175
50298SOL     OW52732  11.673   5.732   6.915
50298SOL    HW152733  11.725   5.813   6.911
50298SOL    HW252734  11.715   5.674   6.852
50299SOL     OW52735  11.718   1.763   9.391
50299SOL    HW152736  11.778   1.829   9.424
50299SOL    HW252737  11.773   1.703   9.341
50300SOL     OW52738  11.728   6.277   8.292
50300SOL    HW152739  11.742   6.206   8.355
50300SOL    HW252740  11.774   6.352   8.330
50301SOL     OW52741   0.527  14.149   6.252
50301SOL    HW152742   0.601  14.122   6.198
50301SOL    HW252743   0.520  14.079   6.318
50302SOL     OW52744   5.843   8.292   0.756
50302SOL    HW152745   5.830   8.380   0.791
50302SOL    HW252746   5.763   8.274   0.706
50303SOL     OW52747   7.702   8.887   9.319
50303SOL    HW152748   7.620   8.926   9.287
50303SOL    HW252749   7.757   8.962   9.342
50304SOL     OW52750   9.733  12.685  14.234
50304SOL    HW152751   9.710  12.593  14.245
50304SOL    HW252752   9.728  12.700  14.139
50305SOL     OW52753   7.065   6.447  12.748
50305SOL    HW152754   7.146   6.445  12.800
50305SOL    HW252755   7.042   6.356  12.735
50306SOL     OW52756   5.162   8.884   8.018
50306SOL    HW152757   5.162   8.872   8.113
50306SOL    HW252758   5.105   8.815   7.985
50307SOL     OW52759   1.810  11.562   1.964
50307SOL    HW152760   1.767  11.648   1.969
50307SOL    HW252761   1.842  11.557   1.874
50308SOL     OW52762   1.233  11.833  13.247
50308SOL    HW152763   1.198  11.881  13.172
50308SOL    HW252764   1.276  11.757  13.209
50309SOL     OW52765   3.081  14.412  13.421
50309SOL    HW152766   2.996  14.435  13.383
50309SOL    HW252767   3.074  14.438  13.513
50310SOL     OW52768   2.608   2.238   4.890
50310SOL    HW152769   2.523   2.194   4.887
50310SOL    HW252770   2.651   2.204   4.969
50311SOL     OW52771   8.574   3.712   0.756
50311SOL    HW152772   8.590   3.786   0.815
50311SOL    HW252773   8.549   3.752   0.674
50312SOL     OW52774  11.098   0.668   6.475
50312SOL    HW152775  11.176   0.693   6.524
50312SOL    HW252776  11.128   0.655   6.385
50313SOL     OW52777   8.388  14.812  11.506
50313SOL    HW152778   8.458  14.764  11.462
50313SOL    HW252779   8.343  14.745  11.558
50314SOL     OW52780   0.394   6.369   6.041
50314SOL    HW152781   0.412   6.449   6.090
50314SOL    HW252782   0.446   6.301   6.085
50315SOL     OW52783   5.656  10.635  10.356
50315SOL    HW152784   5.734  10.646  10.411
50315SOL    HW252785   5.675  10.559  10.302
50316SOL     OW52786  14.222   0.912   7.214
50316SOL    HW152787  14.152   0.908   7.150
50316SOL    HW252788  14.252   1.003   7.210
50317SOL     OW52789   6.238   5.639   8.663
50317SOL    HW152790   6.207   5.549   8.657
50317SOL    HW252791   6.194   5.674   8.740
50318SOL     OW52792   4.156   9.262   5.942
50318SOL    HW152793   4.241   9.306   5.933
50318SOL    HW252794   4.178   9.176   5.979
50319SOL     OW52795   3.267   9.768  14.190
50319SOL    HW152796   3.182   9.754  14.231
50319SOL    HW252797   3.309   9.835  14.244
50320SOL     OW52798   0.697   0.832  10.070
50320SOL    HW152799   0.752   0.764  10.109
50320SOL    HW252800   0.753   0.910  10.068
50321SOL     OW52801   8.228   2.782   2.604
50321SOL    HW152802   8.278   2.852   2.563
50321SOL    HW252803   8.181   2.825   2.675
50322SOL     OW52804   2.194  10.246   8.399
50322SOL    HW152805   2.180  10.340   8.402
50322SOL    HW252806   2.186  10.218   8.491
50323SOL     OW52807  13.482  13.701   5.244
50323SOL    HW152808  13.532  13.738   5.317
50323SOL    HW252809  13.537  13.714   5.167
50324SOL     OW52810  12.141  13.708   8.701
50324SOL    HW152811  12.217  13.739   8.749
50324SOL    HW252812  12.129  13.618   8.730
50325SOL     OW52813   7.515   1.272   4.544
50325SOL    HW152814   7.511   1.259   4.449
50325SOL    HW252815   7.605   1.300   4.560
50326SOL     OW52816   7.612  10.261  14.383
50326SOL    HW152817   7.552  10.275  14.309
50326SOL    HW252818   7.554  10.244  14.457
50327SOL     OW52819   2.743   8.939  12.577
50327SOL    HW152820   2.822   8.897  12.610
50327SOL    HW252821   2.678   8.926  12.646
50328SOL     OW52822  10.145  12.562   6.772
50328SOL    HW152823  10.160  12.496   6.840
50328SOL    HW252824  10.224  12.616   6.773
50329SOL     OW52825   9.219   2.246  11.909
50329SOL    HW152826   9.178   2.301  11.842
50329SOL    HW252827   9.313   2.263  11.898
50330SOL     OW52828  13.283   5.294   1.543
50330SOL    HW152829  13.287   5.227   1.611
50330SOL    HW252830  13.344   5.263   1.475
50331SOL     OW52831   6.114   8.152   3.339
50331SOL    HW152832   6.095   8.203   3.418
50331SOL    HW252833   6.199   8.112   3.356
50332SOL     OW52834  11.285  10.785  13.164
50332SOL    HW152835  11.234  10.866  13.168
50332SOL    HW252836  11.370  10.813  13.130
50333SOL     OW52837   6.063  11.248  13.525
50333SOL    HW152838   6.055  11.343  13.532
50333SOL    HW252839   5.994  11.214  13.582
50334SOL     OW52840   5.218   6.532   5.569
50334SOL    HW152841   5.135   6.529   5.521
50334SOL    HW252842   5.202   6.482   5.649
50335SOL     OW52843   1.182   8.913  13.125
50335SOL    HW152844   1.158   8.873  13.209
50335SOL    HW252845   1.151   8.851  13.059
50336SOL     OW52846   9.831   0.924   2.804
50336SOL    HW152847   9.898   0.897   2.866
50336SOL    HW252848   9.827   1.020   2.813
50337SOL     OW52849   0.696   9.479  13.971
50337SOL    HW152850   0.789   9.461  13.961
50337SOL    HW252851   0.691   9.546  14.039
50338SOL     OW52852   3.629  14.691   1.545
50338SOL    HW152853   3.543  14.651   1.553
50338SOL    HW252854   3.691  14.618   1.552
50339SOL     OW52855  11.181   3.487   9.506
50339SOL    HW152856  11.271   3.519   9.493
50339SOL    HW252857  11.127   3.565   9.504
50340SOL     OW52858  14.700   8.629   7.032
50340SOL    HW152859  14.624   8.604   6.980
50340SOL    HW252860  14.694   8.576   7.111
50341SOL     OW52861   2.696  10.650   0.800
50341SOL    HW152862   2.716  10.581   0.736
50341SOL    HW252863   2.676  10.602   0.880
50342SOL     OW52864   4.619  13.246   5.405
50342SOL    HW152865   4.669  13.318   5.444
50342SOL    HW252866   4.685  13.186   5.372
50343SOL     OW52867  14.532   9.597   1.397
50343SOL    HW152868  14.462   9.554   1.350
50343SOL    HW252869  14.593   9.626   1.329
50344SOL     OW52870   5.061  13.627   1.807
50344SOL    HW152871   5.004  13.630   1.730
50344SOL    HW252872   5.004  13.593   1.877
50345SOL     OW52873  12.510   6.377   9.802
50345SOL    HW152874  12.470   6.389   9.715
50345SOL    HW252875  12.441   6.335   9.854
50346SOL     OW52876   9.534   5.276   4.051
50346SOL    HW152877   9.438   5.267   4.054
50346SOL    HW252878   9.554   5.286   3.958
50347SOL     OW52879   5.081   4.059   9.625
50347SOL    HW152880   5.104   4.061   9.532
50347SOL    HW252881   5.139   3.993   9.663
50348SOL     OW52882   6.594  11.911   8.219
50348SOL    HW152883   6.643  11.856   8.280
50348SOL    HW252884   6.513  11.861   8.202
50349SOL     OW52885   6.632   0.675   6.220
50349SOL    HW152886   6.675   0.610   6.276
50349SOL    HW252887   6.704   0.729   6.187
50350SOL     OW52888  14.196   6.919   7.593
50350SOL    HW152889  14.233   6.888   7.676
50350SOL    HW252890  14.270   6.922   7.533
50351SOL     OW52891  14.347  11.517  14.134
50351SOL    HW152892  14.277  11.508  14.198
50351SOL    HW252893  14.303  11.541  14.053
50352SOL     OW52894   8.020   9.558  10.899
50352SOL    HW152895   7.986   9.630  10.846
50352SOL    HW252896   8.005   9.587  10.990
50353SOL     OW52897   3.633  12.618  14.679
50353SOL    HW152898   3.718  12.661  14.688
50353SOL    HW252899   3.571  12.690  14.672
50354SOL     OW52900  13.851  11.782   8.479
50354SOL    HW152901  13.801  11.717   8.528
50354SOL    HW252902  13.884  11.734   8.402
50355SOL     OW52903   3.310   1.852   2.948
50355SOL    HW152904   3.218   1.826   2.952
50355SOL    HW252905   3.357   1.779   2.988
50356SOL     OW52906  12.794  10.043   8.303
50356SOL    HW152907  12.766  10.089   8.383
50356SOL    HW252908  12.821   9.956   8.334
50357SOL     OW52909   0.656  12.548   4.227
50357SOL    HW152910   0.734  12.574   4.177
50357SOL    HW252911   0.638  12.622   4.285
50358SOL     OW52912   9.866   5.538   5.421
50358SOL    HW152913   9.809   5.483   5.367
50358SOL    HW252914   9.909   5.597   5.359
50359SOL     OW52915   5.061   2.798   2.515
50359SOL    HW152916   5.069   2.703   2.522
50359SOL    HW252917   5.145   2.825   2.477
50360SOL     OW52918  13.730  14.272  13.676
50360SOL    HW152919  13.713  14.181  13.701
50360SOL    HW252920  13.647  14.317  13.693
50361SOL     OW52921   5.152   1.405   7.756
50361SOL    HW152922   5.122   1.335   7.699
50361SOL    HW252923   5.246   1.412   7.737
50362SOL     OW52924   2.718  12.281   0.328
50362SOL    HW152925   2.808  12.294   0.298
50362SOL    HW252926   2.692  12.366   0.363
50363SOL     OW52927  12.213  11.800   0.822
50363SOL    HW152928  12.215  11.894   0.802
50363SOL    HW252929  12.187  11.795   0.914
50364SOL     OW52930  11.147   5.902  10.400
50364SOL    HW152931  11.064   5.948  10.390
50364SOL    HW252932  11.126   5.811  10.377
50365SOL     OW52933  13.094  10.951  13.368
50365SOL    HW152934  13.125  11.000  13.444
50365SOL    HW252935  13.117  10.860  13.387
50366SOL     OW52936   6.281   8.480   6.907
50366SOL    HW152937   6.188   8.460   6.893
50366SOL    HW252938   6.316   8.402   6.951
50367SOL     OW52939   0.428  13.580   3.317
50367SOL    HW152940   0.476  13.502   3.343
50367SOL    HW252941   0.415  13.569   3.222
50368SOL     OW52942  13.812   3.108  14.051
50368SOL    HW152943  13.766   3.061  13.981
50368SOL    HW252944  13.760   3.091  14.130
50369SOL     OW52945  10.525   9.847  11.847
50369SOL    HW152946  10.586   9.821  11.916
50369SOL    HW252947  10.471   9.770  11.832
50370SOL     OW52948   5.997  10.526  10.119
50370SOL    HW152949   6.052  10.474  10.061
50370SOL    HW252950   6.024  10.502  10.207
50371SOL     OW52951   7.846  14.123  13.159
50371SOL    HW152952   7.879  14.044  13.200
50371SOL    HW252953   7.751  14.112  13.159
50372SOL     OW52954   9.653  10.835   6.881
50372SOL    HW152955   9.614  10.819   6.967
50372SOL    HW252956   9.587  10.884   6.833
50373SOL     OW52957  10.573   4.607   7.314
50373SOL    HW152958  10.544   4.529   7.265
50373SOL    HW252959  10.630   4.573   7.382
50374SOL     OW52960   8.578   4.112  13.690
50374SOL    HW152961   8.620   4.032  13.722
50374SOL    HW252962   8.649   4.175  13.684
50375SOL     OW52963   1.587   9.772   8.982
50375SOL    HW152964   1.558   9.857   8.950
50375SOL    HW252965   1.505   9.722   8.992
50376SOL     OW52966  11.237   6.178   8.199
50376SOL    HW152967  11.159   6.124   8.183
50376SOL    HW252968  11.244   6.234   8.122
50377SOL     OW52969   9.732  13.861   9.274
50377SOL    HW152970   9.694  13.865   9.186
50377SOL    HW252971   9.687  13.787   9.316
50378SOL     OW52972   7.123  12.702   4.593
50378SOL    HW152973   7.192  12.646   4.558
50378SOL    HW252974   7.111  12.672   4.683
50379SOL     OW52975   6.684   9.541   5.627
50379SOL    HW152976   6.613   9.550   5.563
50379SOL    HW252977   6.722   9.456   5.609
50380SOL     OW52978   9.021   9.365   9.747
50380SOL    HW152979   8.977   9.281   9.738
50380SOL    HW252980   9.062   9.361   9.833
50381SOL     OW52981  13.345   9.263   8.063
50381SOL    HW152982  13.406   9.331   8.033
50381SOL    HW252983  13.323   9.289   8.152
50382SOL     OW52984  13.742   0.655   8.574
50382SOL    HW152985  13.761   0.672   8.666
50382SOL    HW252986  13.732   0.560   8.568
50383SOL     OW52987  12.680   3.052   9.281
50383SOL    HW152988  12.637   3.018   9.202
50383SOL    HW252989  12.616   3.039   9.351
50384SOL     OW52990  10.965   1.538   5.254
50384SOL    HW152991  10.990   1.624   5.288
50384SOL    HW252992  10.870   1.542   5.245
50385SOL     OW52993   8.509   0.019  14.561
50385SOL    HW152994   8.564  14.847  14.623
50385SOL    HW252995   8.536  14.862  14.475
50386SOL     OW52996   8.046   7.818   0.860
50386SOL    HW152997   7.959   7.778   0.858
50386SOL    HW252998   8.106   7.744   0.860
50387SOL     OW52999  13.368   4.698  14.707
50387SOL    HW153000  13.291   4.665  14.754
50387SOL    HW253001  13.333   4.767  14.651
50388SOL     OW53002  10.534   4.624   5.315
50388SOL    HW153003  10.517   4.663   5.400
50388SOL    HW253004  10.610   4.567   5.329
50389SOL     OW53005   2.177   9.497  12.441
50389SOL    HW153006   2.157   9.522  12.531
50389SOL    HW253007   2.155   9.404  12.437
50390SOL     OW53008   5.222   8.476   6.242
50390SOL    HW153009   5.298   8.479   6.300
50390SOL    HW253010   5.215   8.385   6.215
50391SOL     OW53011  14.036   6.933  12.197
50391SOL    HW153012  14.077   6.852  12.229
50391SOL    HW253013  13.953   6.937  12.243
50392SOL     OW53014  11.444   9.866   9.631
50392SOL    HW153015  11.540   9.866   9.635
50392SOL    HW253016  11.425   9.862   9.537
50393SOL     OW53017   6.290  11.760  13.440
50393SOL    HW153018   6.269  11.788  13.351
50393SOL    HW253019   6.248  11.674  13.449
50394SOL     OW53020  11.300  12.977   5.774
50394SOL    HW153021  11.336  13.065   5.765
50394SOL    HW253022  11.343  12.941   5.851
50395SOL     OW53023  10.443   3.358  11.139
50395SOL    HW153024  10.536   3.382  11.136
50395SOL    HW253025  10.414   3.383  11.227
50396SOL     OW53026  12.119   7.083   8.602
50396SOL    HW153027  12.145   7.065   8.511
50396SOL    HW253028  12.150   7.006   8.651
50397SOL     OW53029   5.859  13.679   9.181
50397SOL    HW153030   5.864  13.597   9.131
50397SOL    HW253031   5.781  13.723   9.147
50398SOL     OW53032   4.583   6.051   9.274
50398SOL    HW153033   4.628   6.123   9.231
50398SOL    HW253034   4.570   5.986   9.205
50399SOL     OW53035   6.855   8.571   9.254
50399SOL    HW153036   6.820   8.604   9.337
50399SOL    HW253037   6.925   8.512   9.280
50400SOL     OW53038   3.620   3.298  11.626
50400SOL    HW153039   3.607   3.381  11.672
50400SOL    HW253040   3.715   3.284  11.627
50401SOL     OW53041  13.671   1.760  13.348
50401SOL    HW153042  13.742   1.783  13.407
50401SOL    HW253043  13.642   1.673  13.377
50402SOL     OW53044   0.425   7.896   6.208
50402SOL    HW153045   0.422   7.991   6.203
50402SOL    HW253046   0.495   7.871   6.148
50403SOL     OW53047  10.886   3.383   9.508
50403SOL    HW153048  10.982   3.381   9.513
50403SOL    HW253049  10.858   3.319   9.573
50404SOL     OW53050   2.947   0.048   7.099
50404SOL    HW153051   2.986   0.107   7.035
50404SOL    HW253052   2.919  14.849   7.049
50405SOL     OW53053   4.244   8.018   3.645
50405SOL    HW153054   4.292   7.977   3.572
50405SOL    HW253055   4.277   8.108   3.647
50406SOL     OW53056  12.595   5.515  14.497
50406SOL    HW153057  12.575   5.594  14.547
50406SOL    HW253058  12.605   5.547  14.407
50407SOL     OW53059  11.426  13.444  13.125
50407SOL    HW153060  11.388  13.417  13.041
50407SOL    HW253061  11.475  13.367  13.155
50408SOL     OW53062  10.845   9.353   9.675
50408SOL    HW153063  10.861   9.314   9.761
50408SOL    HW253064  10.750   9.361   9.669
50409SOL     OW53065   9.547   8.561  11.597
50409SOL    HW153066   9.580   8.510  11.523
50409SOL    HW253067   9.610   8.546  11.667
50410SOL     OW53068   2.301   7.965   4.506
50410SOL    HW153069   2.210   7.995   4.507
50410SOL    HW253070   2.351   8.039   4.539
50411SOL     OW53071   7.727   1.507  13.756
50411SOL    HW153072   7.769   1.422  13.769
50411SOL    HW253073   7.745   1.530  13.665
50412SOL     OW53074  11.904  12.140   6.060
50412SOL    HW153075  11.893  12.108   5.971
50412SOL    HW253076  11.879  12.066   6.116
50413SOL     OW53077   3.115   6.290  13.060
50413SOL    HW153078   3.170   6.259  13.132
50413SOL    HW253079   3.177   6.324  12.995
50414SOL     OW53080   8.633  14.478   5.789
50414SOL    HW153081   8.703  14.542   5.776
50414SOL    HW253082   8.575  14.518   5.853
50415SOL     OW53083   9.616  12.114  13.913
50415SOL    HW153084   9.587  12.202  13.889
50415SOL    HW253085   9.599  12.107  14.006
50416SOL     OW53086   0.588  14.579  10.692
50416SOL    HW153087   0.682  14.561  10.696
50416SOL    HW253088   0.548  14.493  10.708
50417SOL     OW53089   2.196   4.189  11.958
50417SOL    HW153090   2.233   4.223  11.877
50417SOL    HW253091   2.240   4.238  12.027
50418SOL     OW53092   4.696   8.019  11.222
50418SOL    HW153093   4.734   8.015  11.310
50418SOL    HW253094   4.772   8.034  11.164
50419SOL     OW53095   6.933   9.327   9.509
50419SOL    HW153096   6.984   9.341   9.590
50419SOL    HW253097   6.888   9.410   9.495
50420SOL     OW53098   6.189   3.792  13.574
50420SOL    HW153099   6.207   3.730  13.503
50420SOL    HW253100   6.116   3.752  13.622
50421SOL     OW53101   0.484  12.673   9.942
50421SOL    HW153102   0.460  12.711   9.858
50421SOL    HW253103   0.413  12.614   9.963
50422SOL     OW53104   2.337   2.920   1.792
50422SOL    HW153105   2.425   2.898   1.822
50422SOL    HW253106   2.345   3.007   1.754
50423SOL     OW53107   3.157   4.307   6.083
50423SOL    HW153108   3.211   4.385   6.075
50423SOL    HW253109   3.082   4.334   6.137
50424SOL     OW53110   5.854   1.998   7.430
50424SOL    HW153111   5.920   1.930   7.447
50424SOL    HW253112   5.784   1.980   7.493
50425SOL     OW53113  11.646   4.221   0.686
50425SOL    HW153114  11.671   4.243   0.775
50425SOL    HW253115  11.550   4.212   0.689
50426SOL     OW53116   0.911   6.109  13.282
50426SOL    HW153117   0.944   6.093  13.194
50426SOL    HW253118   0.972   6.173  13.319
50427SOL     OW53119   9.990  11.890  12.807
50427SOL    HW153120   9.980  11.965  12.748
50427SOL    HW253121  10.028  11.928  12.886
50428SOL     OW53122  13.229   5.236   1.914
50428SOL    HW153123  13.143   5.278   1.908
50428SOL    HW253124  13.291   5.306   1.896
50429SOL     OW53125   6.594  13.139   5.092
50429SOL    HW153126   6.548  13.056   5.079
50429SOL    HW253127   6.531  13.205   5.063
50430SOL     OW53128   7.097   6.432  13.570
50430SOL    HW153129   7.043   6.501  13.609
50430SOL    HW253130   7.090   6.447  13.476
50431SOL     OW53131  13.465   0.392   7.242
50431SOL    HW153132  13.417   0.328   7.293
50431SOL    HW253133  13.552   0.353   7.230
50432SOL     OW53134  10.855   8.358   0.625
50432SOL    HW153135  10.763   8.346   0.648
50432SOL    HW253136  10.874   8.285   0.566
50433SOL     OW53137  12.471   1.551   6.512
50433SOL    HW153138  12.466   1.571   6.605
50433SOL    HW253139  12.536   1.481   6.505
50434SOL     OW53140  11.323   2.462   7.203
50434SOL    HW153141  11.353   2.441   7.291
50434SOL    HW253142  11.327   2.378   7.156
50435SOL     OW53143   7.503   4.995   1.541
50435SOL    HW153144   7.501   4.992   1.637
50435SOL    HW253145   7.415   5.024   1.517
50436SOL     OW53146   3.334   4.833   6.000
50436SOL    HW153147   3.336   4.802   5.909
50436SOL    HW253148   3.365   4.924   5.994
50437SOL     OW53149   3.116  10.800   1.778
50437SOL    HW153150   3.078  10.840   1.700
50437SOL    HW253151   3.210  10.816   1.770
50438SOL     OW53152   4.164   6.040   1.018
50438SOL    HW153153   4.159   6.129   0.983
50438SOL    HW253154   4.073   6.015   1.035
50439SOL     OW53155   8.912  14.735   8.614
50439SOL    HW153156   8.867  14.677   8.675
50439SOL    HW253157   9.000  14.747   8.651
50440SOL     OW53158  13.973   4.075   0.268
50440SOL    HW153159  13.995   4.145   0.329
50440SOL    HW253160  13.970   3.996   0.323
50441SOL     OW53161   2.792   7.063   8.736
50441SOL    HW153162   2.827   6.986   8.779
50441SOL    HW253163   2.850   7.134   8.762
50442SOL     OW53164   3.646  13.743   3.357
50442SOL    HW153165   3.725  13.783   3.320
50442SOL    HW253166   3.602  13.815   3.402
50443SOL     OW53167   8.588   3.774   6.163
50443SOL    HW153168   8.611   3.691   6.204
50443SOL    HW253169   8.622   3.841   6.223
50444SOL     OW53170  11.363  11.802   3.277
50444SOL    HW153171  11.269  11.794   3.293
50444SOL    HW253172  11.374  11.891   3.244
50445SOL     OW53173   9.073  14.524   2.645
50445SOL    HW153174   9.018  14.579   2.700
50445SOL    HW253175   9.150  14.505   2.698
50446SOL     OW53176   3.832   9.000   3.230
50446SOL    HW153177   3.774   9.053   3.177
50446SOL    HW253178   3.874   8.941   3.168
50447SOL     OW53179   1.026  12.901  10.463
50447SOL    HW153180   1.084  12.826  10.453
50447SOL    HW253181   0.952  12.883  10.405
50448SOL     OW53182  12.896  12.012   6.189
50448SOL    HW153183  12.855  11.955   6.254
50448SOL    HW253184  12.865  12.100   6.211
50449SOL     OW53185   8.089   0.723   7.666
50449SOL    HW153186   8.170   0.683   7.699
50449SOL    HW253187   8.030   0.649   7.650
50450SOL     OW53188  14.795   5.552  12.822
50450SOL    HW153189  14.764   5.611  12.892
50450SOL    HW253190  14.789   5.465  12.860
50451SOL     OW53191   5.507   9.678   7.939
50451SOL    HW153192   5.588   9.725   7.920
50451SOL    HW253193   5.455   9.739   7.990
50452SOL     OW53194   6.271   4.848  12.792
50452SOL    HW153195   6.235   4.768  12.831
50452SOL    HW253196   6.309   4.818  12.709
50453SOL     OW53197   8.961   3.078   0.450
50453SOL    HW153198   8.974   3.043   0.538
50453SOL    HW253199   8.866   3.082   0.439
50454SOL     OW53200   0.617   9.301   2.701
50454SOL    HW153201   0.635   9.347   2.619
50454SOL    HW253202   0.527   9.269   2.691
50455SOL     OW53203  11.632  12.140   4.651
50455SOL    HW153204  11.541  12.140   4.681
50455SOL    HW253205  11.629  12.176   4.563
50456SOL     OW53206  14.289  14.697   6.084
50456SOL    HW153207  14.304  14.761   6.154
50456SOL    HW253208  14.292  14.612   6.128
50457SOL     OW53209   5.163   1.333   1.763
50457SOL    HW153210   5.197   1.374   1.843
50457SOL    HW253211   5.162   1.239   1.783
50458SOL     OW53212  10.625   2.425   0.162
50458SOL    HW153213  10.712   2.421   0.201
50458SOL    HW253214  10.641   2.433   0.068
50459SOL     OW53215  13.774  10.390   2.645
50459SOL    HW153216  13.692  10.384   2.597
50459SOL    HW253217  13.748  10.411   2.735
50460SOL     OW53218   8.591   9.989  13.243
50460SOL    HW153219   8.525  10.041  13.287
50460SOL    HW253220   8.674  10.029  13.269
50461SOL     OW53221   8.073  14.623  10.221
50461SOL    HW153222   8.143  14.559  10.235
50461SOL    HW253223   8.118  14.707  10.215
50462SOL     OW53224   3.398   5.074   4.341
50462SOL    HW153225   3.466   5.085   4.408
50462SOL    HW253226   3.433   5.010   4.280
50463SOL     OW53227   2.041  13.422   9.072
50463SOL    HW153228   1.955  13.397   9.039
50463SOL    HW253229   2.083  13.339   9.094
50464SOL     OW53230  12.939   5.974   6.546
50464SOL    HW153231  12.885   5.896   6.558
50464SOL    HW253232  13.024   5.950   6.583
50465SOL     OW53233  13.786   5.487   6.546
50465SOL    HW153234  13.804   5.422   6.614
50465SOL    HW253235  13.849   5.558   6.562
50466SOL     OW53236   0.661   8.446  11.454
50466SOL    HW153237   0.750   8.413  11.464
50466SOL    HW253238   0.613   8.374  11.415
50467SOL     OW53239  11.335   8.682   7.329
50467SOL    HW153240  11.387   8.677   7.249
50467SOL    HW253241  11.290   8.766   7.323
50468SOL     OW53242  12.362   8.959   9.226
50468SOL    HW153243  12.281   8.922   9.189
50468SOL    HW253244  12.353   8.945   9.321
50469SOL     OW53245   5.070  10.826  14.009
50469SOL    HW153246   5.054  10.781  13.926
50469SOL    HW253247   5.078  10.755  14.073
50470SOL     OW53248  10.776  12.453   5.829
50470SOL    HW153249  10.771  12.482   5.738
50470SOL    HW253250  10.858  12.490   5.862
50471SOL     OW53251  11.020  12.556   8.817
50471SOL    HW153252  11.072  12.605   8.882
50471SOL    HW253253  11.050  12.590   8.733
50472SOL     OW53254   7.015   7.472   3.733
50472SOL    HW153255   7.033   7.495   3.642
50472SOL    HW253256   6.941   7.528   3.757
50473SOL     OW53257   8.408  10.096   1.727
50473SOL    HW153258   8.478  10.158   1.748
50473SOL    HW253259   8.433  10.016   1.774
50474SOL     OW53260  13.097   0.957   4.644
50474SOL    HW153261  13.115   0.919   4.559
50474SOL    HW253262  13.004   0.982   4.640
50475SOL     OW53263   1.203  14.451  14.543
50475SOL    HW153264   1.248  14.509  14.482
50475SOL    HW253265   1.214  14.492  14.628
50476SOL     OW53266  13.617  10.685   8.496
50476SOL    HW153267  13.691  10.673   8.437
50476SOL    HW253268  13.619  10.608   8.554
50477SOL     OW53269  11.933   1.436   7.988
50477SOL    HW153270  12.028   1.449   7.987
50477SOL    HW253271  11.917   1.390   8.071
50478SOL     OW53272  11.711  12.535  12.764
50478SOL    HW153273  11.770  12.561  12.834
50478SOL    HW253274  11.623  12.542  12.802
50479SOL     OW53275   8.418   8.353   6.333
50479SOL    HW153276   8.323   8.344   6.343
50479SOL    HW253277   8.432   8.446   6.318
50480SOL     OW53278  13.729  13.128   4.305
50480SOL    HW153279  13.774  13.057   4.258
50480SOL    HW253280  13.640  13.095   4.318
50481SOL     OW53281   6.543  12.182   3.246
50481SOL    HW153282   6.535  12.277   3.254
50481SOL    HW253283   6.597  12.155   3.320
50482SOL     OW53284  14.481  12.490  10.389
50482SOL    HW153285  14.506  12.582  10.392
50482SOL    HW253286  14.550  12.445  10.438
50483SOL     OW53287  10.855   1.613  14.645
50483SOL    HW153288  10.912   1.687  14.665
50483SOL    HW253289  10.891   1.577  14.564
50484SOL     OW53290   1.903   2.098   9.941
50484SOL    HW153291   1.909   2.181   9.894
50484SOL    HW253292   1.983   2.094   9.993
50485SOL     OW53293   8.107   8.561   2.504
50485SOL    HW153294   8.067   8.474   2.499
50485SOL    HW253295   8.035   8.620   2.523
50486SOL     OW53296  11.560   3.254   4.144
50486SOL    HW153297  11.643   3.289   4.177
50486SOL    HW253298  11.548   3.172   4.192
50487SOL     OW53299  13.110   8.305   5.185
50487SOL    HW153300  13.182   8.351   5.228
50487SOL    HW253301  13.035   8.320   5.243
50488SOL     OW53302  12.877  13.979  11.706
50488SOL    HW153303  12.899  13.931  11.786
50488SOL    HW253304  12.938  13.945  11.640
50489SOL     OW53305   2.068   2.447   7.565
50489SOL    HW153306   2.149   2.398   7.572
50489SOL    HW253307   2.050   2.477   7.655
50490SOL     OW53308  14.843   7.364   3.660
50490SOL    HW153309  14.826   7.455   3.639
50490SOL    HW253310  14.763   7.318   3.636
50491SOL     OW53311   5.337   3.415  12.329
50491SOL    HW153312   5.276   3.377  12.393
50491SOL    HW253313   5.419   3.367  12.342
50492SOL     OW53314  10.233   7.286   8.046
50492SOL    HW153315  10.219   7.238   7.964
50492SOL    HW253316  10.326   7.277   8.064
50493SOL     OW53317   8.264   9.255   6.357
50493SOL    HW153318   8.233   9.343   6.334
50493SOL    HW253319   8.249   9.203   6.279
50494SOL     OW53320   6.366   1.920  10.183
50494SOL    HW153321   6.439   1.863  10.208
50494SOL    HW253322   6.375   1.931  10.088
50495SOL     OW53323  10.145   3.341  13.457
50495SOL    HW153324  10.086   3.272  13.489
50495SOL    HW253325  10.103   3.423  13.482
50496SOL     OW53326   6.190   6.079   2.727
50496SOL    HW153327   6.249   6.080   2.802
50496SOL    HW253328   6.247   6.099   2.652
50497SOL     OW53329   3.688  11.334   0.542
50497SOL    HW153330   3.703  11.428   0.557
50497SOL    HW253331   3.654  11.330   0.452
50498SOL     OW53332   1.783  13.587   5.182
50498SOL    HW153333   1.767  13.518   5.118
50498SOL    HW253334   1.696  13.625   5.198
50499SOL     OW53335  11.838  10.839   2.367
50499SOL    HW153336  11.829  10.928   2.333
50499SOL    HW253337  11.750  10.804   2.365
50500SOL     OW53338   6.208  13.055  13.263
50500SOL    HW153339   6.141  13.093  13.207
50500SOL    HW253340   6.203  13.106  13.344
50501SOL     OW53341   0.421   4.159   0.885
50501SOL    HW153342   0.435   4.150   0.980
50501SOL    HW253343   0.331   4.131   0.871
50502SOL     OW53344   0.763   0.340   6.220
50502SOL    HW153345   0.737   0.400   6.149
50502SOL    HW253346   0.681   0.320   6.265
50503SOL     OW53347  11.542   2.989  12.718
50503SOL    HW153348  11.532   2.970  12.811
50503SOL    HW253349  11.629   2.956  12.696
50504SOL     OW53350  12.298  13.930  13.083
50504SOL    HW153351  12.269  13.884  13.162
50504SOL    HW253352  12.284  13.866  13.013
50505SOL     OW53353   4.612  13.683   4.042
50505SOL    HW153354   4.623  13.761   3.987
50505SOL    HW253355   4.619  13.716   4.132
50506SOL     OW53356   1.029   6.709  13.246
50506SOL    HW153357   1.061   6.656  13.173
50506SOL    HW253358   1.044   6.800  13.218
50507SOL     OW53359   4.249   4.055   8.380
50507SOL    HW153360   4.174   4.017   8.334
50507SOL    HW253361   4.274   3.988   8.445
50508SOL     OW53362   7.958  13.400   1.607
50508SOL    HW153363   8.007  13.451   1.672
50508SOL    HW253364   7.908  13.338   1.659
50509SOL     OW53365  13.684   6.583   3.822
50509SOL    HW153366  13.621   6.655   3.820
50509SOL    HW253367  13.678   6.543   3.735
50510SOL     OW53368   6.665   2.628   7.922
50510SOL    HW153369   6.696   2.579   7.998
50510SOL    HW253370   6.626   2.561   7.865
50511SOL     OW53371   5.765  11.558   7.994
50511SOL    HW153372   5.749  11.621   8.065
50511SOL    HW253373   5.691  11.570   7.934
50512SOL     OW53374   0.642   9.380   1.508
50512SOL    HW153375   0.585   9.375   1.431
50512SOL    HW253376   0.637   9.471   1.536
50513SOL     OW53377   5.695  14.331   8.609
50513SOL    HW153378   5.605  14.340   8.579
50513SOL    HW253379   5.728  14.254   8.563
50514SOL     OW53380   3.956   4.641   4.725
50514SOL    HW153381   3.865   4.657   4.699
50514SOL    HW253382   3.983   4.565   4.673
50515SOL     OW53383  10.079   2.203  13.494
50515SOL    HW153384  10.005   2.142  13.488
50515SOL    HW253385  10.039   2.289  13.480
50516SOL     OW53386  13.512   7.790  11.306
50516SOL    HW153387  13.547   7.748  11.384
50516SOL    HW253388  13.417   7.779  11.314
50517SOL     OW53389   8.133   7.923   4.359
50517SOL    HW153390   8.051   7.875   4.351
50517SOL    HW253391   8.187   7.890   4.287
50518SOL     OW53392   7.436   9.017   0.591
50518SOL    HW153393   7.365   9.024   0.655
50518SOL    HW253394   7.446   9.106   0.557
50519SOL     OW53395   5.654   4.397   4.792
50519SOL    HW153396   5.581   4.418   4.851
50519SOL    HW253397   5.654   4.302   4.787
50520SOL     OW53398   6.993  12.484   1.978
50520SOL    HW153399   7.028  12.560   2.025
50520SOL    HW253400   6.986  12.416   2.044
50521SOL     OW53401   6.857   8.126   9.231
50521SOL    HW153402   6.848   8.038   9.193
50521SOL    HW253403   6.885   8.181   9.158
50522SOL     OW53404   9.226   1.078  11.412
50522SOL    HW153405   9.302   1.068  11.356
50522SOL    HW253406   9.161   1.122  11.358
50523SOL     OW53407   1.895  10.586   3.196
50523SOL    HW153408   1.906  10.524   3.125
50523SOL    HW253409   1.934  10.667   3.163
50524SOL     OW53410   6.458   4.980   5.207
50524SOL    HW153411   6.401   4.921   5.159
50524SOL    HW253412   6.450   5.064   5.162
50525SOL     OW53413  13.450  10.305   5.025
50525SOL    HW153414  13.463  10.214   5.053
50525SOL    HW253415  13.406  10.347   5.099
50526SOL     OW53416   9.119   8.254   2.530
50526SOL    HW153417   9.051   8.289   2.473
50526SOL    HW253418   9.093   8.164   2.546
50527SOL     OW53419   2.259   0.754   9.188
50527SOL    HW153420   2.174   0.740   9.229
50527SOL    HW253421   2.322   0.719   9.251
50528SOL     OW53422   2.562  10.882  10.606
50528SOL    HW153423   2.645  10.920  10.576
50528SOL    HW253424   2.496  10.921  10.548
50529SOL     OW53425   9.409   2.333   0.048
50529SOL    HW153426   9.423   2.272  14.852
50529SOL    HW253427   9.461   2.410   0.025
50530SOL     OW53428   2.330   6.279  13.855
50530SOL    HW153429   2.411   6.291  13.904
50530SOL    HW253430   2.353   6.301  13.765
50531SOL     OW53431   7.832  10.868   4.147
50531SOL    HW153432   7.841  10.879   4.242
50531SOL    HW253433   7.840  10.773   4.134
50532SOL     OW53434  13.965   9.542   4.696
50532SOL    HW153435  13.976   9.455   4.657
50532SOL    HW253436  13.908   9.527   4.772
50533SOL     OW53437  13.765   0.462  13.373
50533SOL    HW153438  13.830   0.408  13.328
50533SOL    HW253439  13.744   0.413  13.452
50534SOL     OW53440   5.203  10.178  11.470
50534SOL    HW153441   5.159  10.138  11.544
50534SOL    HW253442   5.209  10.271  11.493
50535SOL     OW53443   2.163   7.410  14.393
50535SOL    HW153444   2.177   7.504  14.401
50535SOL    HW253445   2.251   7.373  14.383
50536SOL     OW53446   7.907   3.091   7.487
50536SOL    HW153447   7.834   3.062   7.543
50536SOL    HW253448   7.889   3.183   7.471
50537SOL     OW53449  12.111   8.279   3.076
50537SOL    HW153450  12.176   8.287   3.146
50537SOL    HW253451  12.163   8.267   2.996
50538SOL     OW53452   1.144  13.992  12.541
50538SOL    HW153453   1.164  14.059  12.476
50538SOL    HW253454   1.173  13.910  12.502
50539SOL     OW53455   2.893   4.342   9.113
50539SOL    HW153456   2.975   4.355   9.065
50539SOL    HW253457   2.904   4.394   9.192
50540SOL     OW53458   8.898   9.199  11.898
50540SOL    HW153459   8.859   9.284  11.879
50540SOL    HW253460   8.830   9.150  11.943
50541SOL     OW53461   5.856  11.892  13.769
50541SOL    HW153462   5.809  11.928  13.844
50541SOL    HW253463   5.925  11.838  13.808
50542SOL     OW53464   3.247  10.069   8.806
50542SOL    HW153465   3.245  10.016   8.726
50542SOL    HW253466   3.299  10.018   8.867
50543SOL     OW53467   9.128  13.111   6.155
50543SOL    HW153468   9.154  13.022   6.178
50543SOL    HW253469   9.101  13.105   6.064
50544SOL     OW53470   5.830   3.184  10.492
50544SOL    HW153471   5.918   3.199  10.527
50544SOL    HW253472   5.834   3.097  10.452
50545SOL     OW53473   9.566   5.852   0.154
50545SOL    HW153474   9.473   5.869   0.171
50545SOL    HW253475   9.586   5.907   0.078
50546SOL     OW53476   5.766   9.720   1.666
50546SOL    HW153477   5.759   9.747   1.757
50546SOL    HW253478   5.754   9.800   1.616
50547SOL     OW53479  11.125   1.134   8.684
50547SOL    HW153480  11.145   1.137   8.590
50547SOL    HW253481  11.108   1.041   8.703
50548SOL     OW53482  14.348   5.417   5.013
50548SOL    HW153483  14.380   5.428   5.103
50548SOL    HW253484  14.318   5.505   4.988
50549SOL     OW53485  10.936   1.592   1.613
50549SOL    HW153486  10.901   1.503   1.605
50549SOL    HW253487  10.884   1.644   1.551
50550SOL     OW53488   3.326   8.313   4.300
50550SOL    HW153489   3.310   8.327   4.207
50550SOL    HW253490   3.415   8.345   4.315
50551SOL     OW53491  13.436  12.094   5.482
50551SOL    HW153492  13.493  12.168   5.505
50551SOL    HW253493  13.409  12.111   5.392
50552SOL     OW53494  11.341   1.006   1.633
50552SOL    HW153495  11.427   1.004   1.675
50552SOL    HW253496  11.297   0.927   1.664
50553SOL     OW53497   9.808   9.420   6.916
50553SOL    HW153498   9.746   9.436   6.845
50553SOL    HW253499   9.754   9.387   6.988
50554SOL     OW53500   7.280   3.377   4.389
50554SOL    HW153501   7.185   3.391   4.388
50554SOL    HW253502   7.305   3.377   4.297
50555SOL     OW53503   1.197   0.299  14.502
50555SOL    HW153504   1.209   0.292  14.597
50555SOL    HW253505   1.214   0.391  14.482
50556SOL     OW53506   1.676   8.815  11.430
50556SOL    HW153507   1.627   8.756  11.372
50556SOL    HW253508   1.727   8.756  11.485
50557SOL     OW53509   3.840  13.995   4.015
50557SOL    HW153510   3.912  14.049   4.049
50557SOL    HW253511   3.821  13.933   4.086
50558SOL     OW53512   9.317   4.078   9.091
50558SOL    HW153513   9.241   4.132   9.112
50558SOL    HW253514   9.379   4.094   9.163
50559SOL     OW53515   5.995   7.547   0.693
50559SOL    HW153516   6.085   7.579   0.698
50559SOL    HW253517   5.947   7.619   0.651
50560SOL     OW53518   8.878   8.594  13.436
50560SOL    HW153519   8.789   8.568  13.410
50560SOL    HW253520   8.934   8.524  13.403
50561SOL     OW53521   4.859   1.224   2.366
50561SOL    HW153522   4.945   1.243   2.403
50561SOL    HW253523   4.798   1.237   2.438
50562SOL     OW53524   9.067  14.648   6.599
50562SOL    HW153525   9.056  14.670   6.691
50562SOL    HW253526   9.150  14.689   6.574
50563SOL     OW53527   5.010   6.637  14.116
50563SOL    HW153528   4.984   6.699  14.048
50563SOL    HW253529   4.937   6.574  14.120
50564SOL     OW53530   9.191   2.164  13.759
50564SOL    HW153531   9.240   2.084  13.741
50564SOL    HW253532   9.100   2.136  13.768
50565SOL     OW53533  12.159  14.501   4.556
50565SOL    HW153534  12.200  14.422   4.522
50565SOL    HW253535  12.225  14.538   4.616
50566SOL     OW53536   7.466  11.162   3.749
50566SOL    HW153537   7.375  11.165   3.720
50566SOL    HW253538   7.518  11.172   3.669
50567SOL     OW53539   5.065   8.630  12.857
50567SOL    HW153540   4.975   8.636  12.891
50567SOL    HW253541   5.116   8.687  12.914
50568SOL     OW53542   4.119  12.692  12.230
50568SOL    HW153543   4.155  12.759  12.287
50568SOL    HW253544   4.049  12.652  12.282
50569SOL     OW53545   1.932   9.365   5.703
50569SOL    HW153546   1.956   9.296   5.765
50569SOL    HW253547   1.872   9.323   5.642
50570SOL     OW53548  14.770  13.016   3.096
50570SOL    HW153549  14.842  13.017   3.032
50570SOL    HW253550  14.771  12.927   3.131
50571SOL     OW53551   8.482  10.354  12.791
50571SOL    HW153552   8.455  10.361  12.883
50571SOL    HW253553   8.400  10.361  12.742
50572SOL     OW53554   4.706   8.213  13.426
50572SOL    HW153555   4.734   8.303  13.410
50572SOL    HW253556   4.786   8.167  13.452
50573SOL     OW53557  10.251  14.643   5.854
50573SOL    HW153558  10.200  14.562   5.851
50573SOL    HW253559  10.241  14.682   5.767
50574SOL     OW53560   8.808   4.470  14.378
50574SOL    HW153561   8.729   4.501  14.423
50574SOL    HW253562   8.876   4.533  14.404
50575SOL     OW53563   6.750  13.134  12.426
50575SOL    HW153564   6.662  13.156  12.459
50575SOL    HW253565   6.789  13.080  12.495
50576SOL     OW53566   2.713  13.866  14.262
50576SOL    HW153567   2.670  13.944  14.225
50576SOL    HW253568   2.752  13.897  14.344
50577SOL     OW53569   4.131   9.732   7.516
50577SOL    HW153570   4.197   9.740   7.585
50577SOL    HW253571   4.068   9.668   7.550
50578SOL     OW53572  12.681   2.468  12.426
50578SOL    HW153573  12.702   2.555  12.392
50578SOL    HW253574  12.588   2.473  12.448
50579SOL     OW53575   4.511   2.964  12.885
50579SOL    HW153576   4.547   3.045  12.849
50579SOL    HW253577   4.525   2.971  12.980
50580SOL     OW53578   0.658   0.583  11.121
50580SOL    HW153579   0.720   0.544  11.184
50580SOL    HW253580   0.611   0.508  11.085
50581SOL     OW53581   3.598   0.797   9.944
50581SOL    HW153582   3.506   0.776   9.957
50581SOL    HW253583   3.639   0.714   9.921
50582SOL     OW53584   2.608   5.960   4.004
50582SOL    HW153585   2.697   5.990   4.024
50582SOL    HW253586   2.563   5.958   4.089
50583SOL     OW53587  10.611   6.698   0.994
50583SOL    HW153588  10.696   6.741   0.989
50583SOL    HW253589  10.587   6.681   0.903
50584SOL     OW53590   9.968   8.657  11.500
50584SOL    HW153591   9.909   8.720  11.542
50584SOL    HW253592  10.042   8.709  11.471
50585SOL     OW53593  13.338   4.134   6.532
50585SOL    HW153594  13.420   4.094   6.560
50585SOL    HW253595  13.363   4.224   6.509
50586SOL     OW53596  10.588   5.597  11.297
50586SOL    HW153597  10.566   5.529  11.361
50586SOL    HW253598  10.505   5.618  11.254
50587SOL     OW53599  13.111   9.480   3.757
50587SOL    HW153600  13.154   9.559   3.789
50587SOL    HW253601  13.119   9.486   3.661
50588SOL     OW53602   2.842  12.561   5.163
50588SOL    HW153603   2.772  12.559   5.228
50588SOL    HW253604   2.909  12.502   5.198
50589SOL     OW53605   0.449  13.589  13.696
50589SOL    HW153606   0.531  13.638  13.700
50589SOL    HW253607   0.437  13.570  13.603
50590SOL     OW53608   3.201   8.846   5.353
50590SOL    HW153609   3.260   8.779   5.387
50590SOL    HW253610   3.114   8.807   5.363
50591SOL     OW53611   9.398   9.100   6.779
50591SOL    HW153612   9.493   9.113   6.774
50591SOL    HW253613   9.387   9.005   6.772
50592SOL     OW53614   7.830  11.321   8.583
50592SOL    HW153615   7.770  11.287   8.650
50592SOL    HW253616   7.894  11.252   8.570
50593SOL     OW53617   4.286   0.880   3.957
50593SOL    HW153618   4.194   0.906   3.947
50593SOL    HW253619   4.306   0.899   4.049
50594SOL     OW53620  13.961   0.127   0.453
50594SOL    HW153621  13.922   0.079   0.380
50594SOL    HW253622  13.888   0.174   0.493
50595SOL     OW53623  13.083   9.259   2.829
50595SOL    HW153624  13.147   9.196   2.861
50595SOL    HW253625  13.007   9.205   2.804
50596SOL     OW53626   9.752   9.226  14.317
50596SOL    HW153627   9.818   9.291  14.340
50596SOL    HW253628   9.717   9.256  14.233
50597SOL     OW53629   5.607   8.978  13.901
50597SOL    HW153630   5.670   8.962  13.972
50597SOL    HW253631   5.622   9.069  13.876
50598SOL     OW53632   5.606  11.957   3.034
50598SOL    HW153633   5.542  11.979   3.102
50598SOL    HW253634   5.594  12.025   2.967
50599SOL     OW53635   3.975   8.023   7.000
50599SOL    HW153636   3.880   8.034   7.011
50599SOL    HW253637   4.012   8.051   7.084
50600SOL     OW53638   2.863   2.355   7.911
50600SOL    HW153639   2.942   2.320   7.953
50600SOL    HW253640   2.893   2.436   7.868
50601SOL     OW53641   5.586   1.571   9.448
50601SOL    HW153642   5.629   1.628   9.386
50601SOL    HW253643   5.625   1.485   9.434
50602SOL     OW53644   9.466  10.835   3.216
50602SOL    HW153645   9.386  10.791   3.245
50602SOL    HW253646   9.458  10.924   3.250
50603SOL     OW53647   0.091   5.331   0.134
50603SOL    HW153648   0.086   5.339   0.229
50603SOL    HW253649   0.031   5.261   0.112
50604SOL     OW53650  14.441   5.636  12.074
50604SOL    HW153651  14.483   5.619  12.158
50604SOL    HW253652  14.365   5.579  12.072
50605SOL     OW53653  11.560  14.190  13.830
50605SOL    HW153654  11.511  14.183  13.748
50605SOL    HW253655  11.651  14.179  13.804
50606SOL     OW53656   7.292  13.947   3.848
50606SOL    HW153657   7.266  13.855   3.839
50606SOL    HW253658   7.386  13.943   3.867
50607SOL     OW53659   2.917   5.211  10.334
50607SOL    HW153660   2.832   5.177  10.306
50607SOL    HW253661   2.909   5.306  10.327
50608SOL     OW53662  10.675   1.981  10.904
50608SOL    HW153663  10.683   2.065  10.860
50608SOL    HW253664  10.593   1.987  10.953
50609SOL     OW53665   7.206   5.364   5.074
50609SOL    HW153666   7.294   5.366   5.037
50609SOL    HW253667   7.218   5.382   5.167
50610SOL     OW53668   6.836  13.901   4.840
50610SOL    HW153669   6.911  13.949   4.875
50610SOL    HW253670   6.766  13.916   4.903
50611SOL     OW53671  10.532   5.966   7.127
50611SOL    HW153672  10.615   5.932   7.093
50611SOL    HW253673  10.477   5.888   7.136
50612SOL     OW53674   5.402  14.175   2.601
50612SOL    HW153675   5.495  14.160   2.589
50612SOL    HW253676   5.370  14.198   2.514
50613SOL     OW53677   9.150   2.077   7.635
50613SOL    HW153678   9.229   2.056   7.685
50613SOL    HW253679   9.183   2.127   7.560
50614SOL     OW53680   4.269   2.909  10.187
50614SOL    HW153681   4.178   2.879  10.191
50614SOL    HW253682   4.318   2.832  10.158
50615SOL     OW53683  10.018   1.100   0.560
50615SOL    HW153684   9.940   1.079   0.509
50615SOL    HW253685   9.987   1.154   0.632
50616SOL     OW53686   0.556  10.293   4.553
50616SOL    HW153687   0.562  10.289   4.457
50616SOL    HW253688   0.643  10.266   4.583
50617SOL     OW53689   9.936   6.997  13.980
50617SOL    HW153690   9.989   6.947  13.918
50617SOL    HW253691   9.999   7.053  14.026
50618SOL     OW53692   8.697   9.027  12.029
50618SOL    HW153693   8.756   8.993  12.096
50618SOL    HW253694   8.647   9.095  12.074
50619SOL     OW53695   6.926  11.861   8.123
50619SOL    HW153696   6.886  11.825   8.044
50619SOL    HW253697   6.875  11.939   8.143
50620SOL     OW53698  14.283   4.990   1.969
50620SOL    HW153699  14.212   4.927   1.983
50620SOL    HW253700  14.350   4.966   2.033
50621SOL     OW53701  14.724   4.940   2.981
50621SOL    HW153702  14.717   4.999   2.906
50621SOL    HW253703  14.749   4.997   3.054
50622SOL     OW53704   8.349  13.150  11.016
50622SOL    HW153705   8.365  13.076  11.074
50622SOL    HW253706   8.293  13.115  10.946
50623SOL     OW53707   1.873   5.362   0.235
50623SOL    HW153708   1.928   5.298   0.280
50623SOL    HW253709   1.923   5.444   0.238
50624SOL     OW53710  13.590  12.810   4.856
50624SOL    HW153711  13.640  12.870   4.911
50624SOL    HW253712  13.528  12.769   4.915
50625SOL     OW53713   9.511   3.021   2.842
50625SOL    HW153714   9.540   3.101   2.884
50625SOL    HW253715   9.558   3.019   2.758
50626SOL     OW53716  13.815  10.176   5.083
50626SOL    HW153717  13.877  10.107   5.063
50626SOL    HW253718  13.802  10.172   5.178
50627SOL     OW53719  12.049  14.829   0.815
50627SOL    HW153720  12.076  14.737   0.812
50627SOL    HW253721  12.116  14.872   0.868
50628SOL     OW53722   5.628   1.879  12.947
50628SOL    HW153723   5.540   1.902  12.917
50628SOL    HW253724   5.636   1.918  13.034
50629SOL     OW53725  10.498  12.878   6.803
50629SOL    HW153726  10.581  12.926   6.805
50629SOL    HW253727  10.498  12.828   6.885
50630SOL     OW53728  10.426  14.497  11.051
50630SOL    HW153729  10.384  14.550  10.983
50630SOL    HW253730  10.520  14.513  11.039
50631SOL     OW53731  11.889   0.564  12.874
50631SOL    HW153732  11.943   0.530  12.802
50631SOL    HW253733  11.943   0.633  12.914
50632SOL     OW53734   0.785  13.586  10.426
50632SOL    HW153735   0.760  13.660  10.482
50632SOL    HW253736   0.881  13.592  10.420
50633SOL     OW53737   7.906   1.881   3.924
50633SOL    HW153738   7.887   1.954   3.982
50633SOL    HW253739   7.922   1.807   3.982
50634SOL     OW53740   7.805   7.514  12.122
50634SOL    HW153741   7.860   7.587  12.153
50634SOL    HW253742   7.731   7.513  12.183
50635SOL     OW53743   6.646   3.551   4.467
50635SOL    HW153744   6.604   3.518   4.546
50635SOL    HW253745   6.584   3.615   4.432
50636SOL     OW53746  13.425   0.719   4.052
50636SOL    HW153747  13.513   0.736   4.017
50636SOL    HW253748  13.416   0.782   4.123
50637SOL     OW53749   9.086   9.427  11.026
50637SOL    HW153750   9.042   9.500  10.982
50637SOL    HW253751   9.147   9.393  10.960
50638SOL     OW53752  11.900  13.747   4.872
50638SOL    HW153753  11.818  13.747   4.821
50638SOL    HW253754  11.911  13.656   4.898
50639SOL     OW53755  10.218   8.151  14.802
50639SOL    HW153756  10.236   8.088  14.733
50639SOL    HW253757  10.297   8.204  14.808
50640SOL     OW53758   0.723   6.061   5.629
50640SOL    HW153759   0.633   6.033   5.641
50640SOL    HW253760   0.717   6.147   5.588
50641SOL     OW53761   6.976   3.322  11.643
50641SOL    HW153762   6.972   3.240  11.694
50641SOL    HW253763   7.037   3.303  11.572
50642SOL     OW53764   6.330   8.352   4.690
50642SOL    HW153765   6.239   8.360   4.663
50642SOL    HW253766   6.328   8.293   4.765
50643SOL     OW53767   1.993  11.464  13.392
50643SOL    HW153768   1.901  11.477  13.416
50643SOL    HW253769   1.996  11.375  13.357
50644SOL     OW53770   1.128  10.818   3.635
50644SOL    HW153771   1.043  10.849   3.666
50644SOL    HW253772   1.152  10.880   3.566
50645SOL     OW53773   6.480   0.806   1.143
50645SOL    HW153774   6.398   0.812   1.191
50645SOL    HW253775   6.527   0.733   1.185
50646SOL     OW53776   8.345   5.912   8.285
50646SOL    HW153777   8.378   5.843   8.342
50646SOL    HW253778   8.301   5.866   8.214
50647SOL     OW53779  12.430  14.403   4.322
50647SOL    HW153780  12.467  14.347   4.391
50647SOL    HW253781  12.506  14.435   4.274
50648SOL     OW53782  11.619  13.158   6.780
50648SOL    HW153783  11.711  13.163   6.755
50648SOL    HW253784  11.571  13.155   6.697
50649SOL     OW53785  10.704   1.923   4.169
50649SOL    HW153786  10.725   1.941   4.077
50649SOL    HW253787  10.620   1.878   4.166
50650SOL     OW53788   4.667  14.146   4.656
50650SOL    HW153789   4.748  14.103   4.683
50650SOL    HW253790   4.608  14.133   4.731
50651SOL     OW53791  11.837   7.386   8.412
50651SOL    HW153792  11.824   7.405   8.505
50651SOL    HW253793  11.809   7.295   8.401
50652SOL     OW53794   1.756   5.477  14.876
50652SOL    HW153795   1.692   5.536   0.039
50652SOL    HW253796   1.795   5.430   0.073
50653SOL     OW53797   2.744   6.624  13.127
50653SOL    HW153798   2.776   6.547  13.174
50653SOL    HW253799   2.665   6.593  13.083
50654SOL     OW53800  13.979   3.259   2.868
50654SOL    HW153801  13.914   3.280   2.801
50654SOL    HW253802  13.973   3.331   2.931
50655SOL     OW53803  13.476   9.462   2.021
50655SOL    HW153804  13.425   9.462   1.940
50655SOL    HW253805  13.545   9.526   2.006
50656SOL     OW53806   9.325   6.199   2.976
50656SOL    HW153807   9.415   6.187   3.003
50656SOL    HW253808   9.330   6.215   2.882
50657SOL     OW53809  12.806  14.656   5.513
50657SOL    HW153810  12.807  14.751   5.501
50657SOL    HW253811  12.784  14.644   5.605
50658SOL     OW53812  11.911  13.239  14.191
50658SOL    HW153813  11.962  13.203  14.120
50658SOL    HW253814  11.942  13.194  14.269
50659SOL     OW53815  12.442   4.044  12.965
50659SOL    HW153816  12.475   3.964  12.924
50659SOL    HW253817  12.363   4.016  13.011
50660SOL     OW53818  11.137   5.020   1.865
50660SOL    HW153819  11.186   5.018   1.947
50660SOL    HW253820  11.054   4.975   1.885
50661SOL     OW53821   6.454   4.980   9.868
50661SOL    HW153822   6.453   4.884   9.878
50661SOL    HW253823   6.382   4.998   9.808
50662SOL     OW53824   3.824   1.668   3.432
50662SOL    HW153825   3.891   1.652   3.366
50662SOL    HW253826   3.798   1.581   3.463
50663SOL     OW53827  14.760   9.602   0.996
50663SOL    HW153828  14.774   9.619   1.089
50663SOL    HW253829  14.707   9.522   0.994
50664SOL     OW53830   6.674  12.254   7.828
50664SOL    HW153831   6.687  12.215   7.741
50664SOL    HW253832   6.590  12.299   7.823
50665SOL     OW53833   7.477   0.636   9.706
50665SOL    HW153834   7.452   0.725   9.731
50665SOL    HW253835   7.548   0.613   9.765
50666SOL     OW53836   8.781   1.350   0.620
50666SOL    HW153837   8.769   1.442   0.599
50666SOL    HW253838   8.842   1.318   0.553
50667SOL     OW53839   1.298  11.030  11.931
50667SOL    HW153840   1.235  11.088  11.974
50667SOL    HW253841   1.355  11.089  11.882
50668SOL     OW53842   8.727  12.393  11.125
50668SOL    HW153843   8.680  12.310  11.123
50668SOL    HW253844   8.819  12.369  11.124
50669SOL     OW53845   5.140   1.133   2.117
50669SOL    HW153846   5.212   1.125   2.055
50669SOL    HW253847   5.115   1.226   2.113
50670SOL     OW53848  11.080   4.945   9.225
50670SOL    HW153849  11.152   4.888   9.250
50670SOL    HW253850  11.014   4.932   9.293
50671SOL     OW53851  12.386   7.067   7.200
50671SOL    HW153852  12.420   7.061   7.289
50671SOL    HW253853  12.336   7.148   7.198
50672SOL     OW53854   6.121   2.258  14.377
50672SOL    HW153855   6.087   2.259  14.288
50672SOL    HW253856   6.061   2.202  14.426
50673SOL     OW53857  11.407   6.650   2.302
50673SOL    HW153858  11.442   6.562   2.282
50673SOL    HW253859  11.485   6.706   2.304
50674SOL     OW53860   0.516   7.033  11.706
50674SOL    HW153861   0.421   7.042  11.698
50674SOL    HW253862   0.528   6.985  11.788
50675SOL     OW53863   6.342   1.592   6.622
50675SOL    HW153864   6.405   1.620   6.688
50675SOL    HW253865   6.282   1.666   6.614
50676SOL     OW53866   1.903   2.772  13.059
50676SOL    HW153867   1.991   2.807  13.076
50676SOL    HW253868   1.855   2.788  13.141
50677SOL     OW53869  13.811  12.008   6.264
50677SOL    HW153870  13.758  11.930   6.277
50677SOL    HW253871  13.840  12.003   6.173
50678SOL     OW53872  13.205   0.100  12.348
50678SOL    HW153873  13.259   0.026  12.377
50678SOL    HW253874  13.211   0.163  12.420
50679SOL     OW53875  13.958   7.954  10.515
50679SOL    HW153876  13.940   7.945  10.421
50679SOL    HW253877  14.044   7.996  10.518
50680SOL     OW53878   8.573   6.761   9.458
50680SOL    HW153879   8.488   6.722   9.442
50680SOL    HW253880   8.561   6.816   9.536
50681SOL     OW53881   4.918  10.191   7.492
50681SOL    HW153882   4.908  10.097   7.476
50681SOL    HW253883   4.999  10.214   7.447
50682SOL     OW53884  10.237   8.253   9.238
50682SOL    HW153885  10.262   8.342   9.265
50682SOL    HW253886  10.244   8.255   9.142
50683SOL     OW53887  11.540   5.749   3.251
50683SOL    HW153888  11.523   5.725   3.343
50683SOL    HW253889  11.472   5.704   3.202
50684SOL     OW53890   9.548   2.771   3.333
50684SOL    HW153891   9.544   2.866   3.346
50684SOL    HW253892   9.604   2.759   3.257
50685SOL     OW53893   2.674   6.586   7.642
50685SOL    HW153894   2.672   6.570   7.736
50685SOL    HW253895   2.711   6.507   7.604
50686SOL     OW53896   8.032   6.475  10.210
50686SOL    HW153897   8.064   6.469  10.300
50686SOL    HW253898   7.970   6.403  10.201
50687SOL     OW53899  10.077   2.369   2.785
50687SOL    HW153900  10.104   2.400   2.699
50687SOL    HW253901  10.134   2.414   2.847
50688SOL     OW53902  11.330   2.989   1.499
50688SOL    HW153903  11.342   2.933   1.576
50688SOL    HW253904  11.275   2.938   1.440
50689SOL     OW53905   9.452   1.740   2.616
50689SOL    HW153906   9.504   1.820   2.625
50689SOL    HW253907   9.441   1.708   2.706
50690SOL     OW53908   7.895   9.525  12.138
50690SOL    HW153909   7.919   9.459  12.073
50690SOL    HW253910   7.958   9.596  12.124
50691SOL     OW53911   8.039   0.687   7.329
50691SOL    HW153912   8.041   0.782   7.340
50691SOL    HW253913   7.956   0.660   7.368
50692SOL     OW53914  11.851   6.170  12.498
50692SOL    HW153915  11.929   6.168  12.442
50692SOL    HW253916  11.875   6.226  12.572
50693SOL     OW53917   9.498  14.481   4.426
50693SOL    HW153918   9.472  14.541   4.356
50693SOL    HW253919   9.437  14.499   4.497
50694SOL     OW53920  11.520   1.165   1.229
50694SOL    HW153921  11.471   1.086   1.205
50694SOL    HW253922  11.466   1.208   1.295
50695SOL     OW53923   2.903   6.483  12.350
50695SOL    HW153924   2.946   6.547  12.407
50695SOL    HW253925   2.823   6.527  12.321
50696SOL     OW53926  13.628   7.869  13.406
50696SOL    HW153927  13.581   7.920  13.340
50696SOL    HW253928  13.564   7.806  13.439
50697SOL     OW53929   7.854   3.922  13.497
50697SOL    HW153930   7.804   3.942  13.418
50697SOL    HW253931   7.839   3.829  13.512
50698SOL     OW53932  11.313  12.089   6.978
50698SOL    HW153933  11.332  11.995   6.982
50698SOL    HW253934  11.389  12.127   6.934
50699SOL     OW53935   9.909  12.948   9.093
50699SOL    HW153936   9.987  12.941   9.147
50699SOL    HW253937   9.884  13.040   9.099
50700SOL     OW53938   1.435  10.455   3.306
50700SOL    HW153939   1.519  10.500   3.304
50700SOL    HW253940   1.447  10.385   3.370
50701SOL     OW53941   5.895  13.553   8.653
50701SOL    HW153942   5.918  13.460   8.647
50701SOL    HW253943   5.964  13.598   8.605
50702SOL     OW53944   5.974   8.821   6.203
50702SOL    HW153945   5.961   8.856   6.115
50702SOL    HW253946   6.041   8.753   6.193
50703SOL     OW53947   3.677   4.231   6.800
50703SOL    HW153948   3.691   4.325   6.802
50703SOL    HW253949   3.720   4.199   6.880
50704SOL     OW53950   2.779   8.795   2.027
50704SOL    HW153951   2.755   8.886   2.045
50704SOL    HW253952   2.705   8.744   2.059
50705SOL     OW53953   9.215   2.960   4.069
50705SOL    HW153954   9.212   2.937   3.976
50705SOL    HW253955   9.196   2.878   4.114
50706SOL     OW53956  13.861   5.688   2.141
50706SOL    HW153957  13.831   5.618   2.083
50706SOL    HW253958  13.783   5.743   2.154
50707SOL     OW53959  10.611   1.154   2.741
50707SOL    HW153960  10.588   1.168   2.832
50707SOL    HW253961  10.696   1.111   2.744
50708SOL     OW53962   7.102  14.765   1.578
50708SOL    HW153963   7.191  14.798   1.564
50708SOL    HW253964   7.052  14.841   1.605
50709SOL     OW53965  11.407   9.215  13.043
50709SOL    HW153966  11.404   9.289  12.982
50709SOL    HW253967  11.410   9.138  12.986
50710SOL     OW53968   9.815   7.875   0.693
50710SOL    HW153969   9.802   7.894   0.601
50710SOL    HW253970   9.906   7.847   0.700
50711SOL     OW53971   6.637   3.446   0.876
50711SOL    HW153972   6.724   3.408   0.888
50711SOL    HW253973   6.643   3.532   0.918
50712SOL     OW53974   2.565   1.013   5.826
50712SOL    HW153975   2.633   1.073   5.796
50712SOL    HW253976   2.552   0.952   5.754
50713SOL     OW53977   7.661  13.572   8.415
50713SOL    HW153978   7.652  13.615   8.330
50713SOL    HW253979   7.751  13.589   8.442
50714SOL     OW53980   9.308   6.788  13.223
50714SOL    HW153981   9.310   6.881  13.204
50714SOL    HW253982   9.360   6.748  13.152
50715SOL     OW53983   2.572  13.024  10.741
50715SOL    HW153984   2.654  12.994  10.781
50715SOL    HW253985   2.512  13.033  10.814
50716SOL     OW53986  11.525   0.288   0.071
50716SOL    HW153987  11.453   0.228   0.051
50716SOL    HW253988  11.555   0.261   0.158
50717SOL     OW53989  13.123  14.774   0.054
50717SOL    HW153990  13.216  14.760   0.033
50717SOL    HW253991  13.090  14.827  14.858
50718SOL     OW53992  14.368   7.792  10.752
50718SOL    HW153993  14.347   7.744  10.831
50718SOL    HW253994  14.376   7.883  10.781
50719SOL     OW53995  12.426  10.173   6.032
50719SOL    HW153996  12.388  10.104   5.979
50719SOL    HW253997  12.436  10.248   5.973
50720SOL     OW53998  10.245   4.511   2.119
50720SOL    HW153999  10.255   4.416   2.112
50720SOL    HW254000  10.157   4.528   2.083
50721SOL     OW54001   6.599   8.169   3.488
50721SOL    HW154002   6.672   8.231   3.487
50721SOL    HW254003   6.584   8.151   3.580
50722SOL     OW54004   5.301   3.650  14.761
50722SOL    HW154005   5.223   3.689  14.720
50722SOL    HW254006   5.265   3.598  14.833
50723SOL     OW54007  12.832  11.483  11.719
50723SOL    HW154008  12.739  11.460  11.722
50723SOL    HW254009  12.870  11.435  11.793
50724SOL     OW54010  12.256  12.239  11.026
50724SOL    HW154011  12.192  12.227  11.096
50724SOL    HW254012  12.298  12.153  11.016
50725SOL     OW54013   3.848  13.788  14.632
50725SOL    HW154014   3.828  13.695  14.638
50725SOL    HW254015   3.943  13.793  14.637
50726SOL     OW54016  12.832   1.583   8.326
50726SOL    HW154017  12.745   1.588   8.365
50726SOL    HW254018  12.845   1.489   8.311
50727SOL     OW54019   2.220   4.662   8.316
50727SOL    HW154020   2.289   4.705   8.366
50727SOL    HW254021   2.148   4.651   8.377
50728SOL     OW54022  11.105   7.673   5.184
50728SOL    HW154023  11.168   7.610   5.218
50728SOL    HW254024  11.057   7.703   5.262
50729SOL     OW54025   2.598  13.706   0.558
50729SOL    HW154026   2.657  13.780   0.570
50729SOL    HW254027   2.643  13.649   0.495
50730SOL     OW54028  10.016   5.595   1.873
50730SOL    HW154029   9.928   5.616   1.903
50730SOL    HW254030  10.072   5.657   1.921
50731SOL     OW54031   5.853   9.324   4.189
50731SOL    HW154032   5.896   9.267   4.253
50731SOL    HW254033   5.776   9.357   4.234
50732SOL     OW54034   8.536   2.231   1.672
50732SOL    HW154035   8.479   2.155   1.657
50732SOL    HW254036   8.610   2.218   1.613
50733SOL     OW54037  10.875  10.915   5.694
50733SOL    HW154038  10.851  10.886   5.606
50733SOL    HW254039  10.792  10.917   5.741
50734SOL     OW54040  13.613  12.665   1.843
50734SOL    HW154041  13.639  12.573   1.837
50734SOL    HW254042  13.564  12.682   1.762
50735SOL     OW54043   1.816   7.024  14.382
50735SOL    HW154044   1.884   7.078  14.422
50735SOL    HW254045   1.778   6.974  14.454
50736SOL     OW54046   7.532  14.549  10.149
50736SOL    HW154047   7.615  14.592  10.127
50736SOL    HW254048   7.523  14.481  10.083
50737SOL     OW54049  13.836   7.281   6.712
50737SOL    HW154050  13.811   7.347   6.776
50737SOL    HW254051  13.921   7.250   6.741
50738SOL     OW54052  10.154  14.314   1.320
50738SOL    HW154053  10.164  14.409   1.318
50738SOL    HW254054  10.060  14.300   1.315
50739SOL     OW54055   1.374   3.868   4.117
50739SOL    HW154056   1.417   3.890   4.200
50739SOL    HW254057   1.446   3.863   4.053
50740SOL     OW54058   3.484  11.740   9.212
50740SOL    HW154059   3.553  11.798   9.180
50740SOL    HW254060   3.403  11.785   9.190
50741SOL     OW54061  12.117   1.685  11.862
50741SOL    HW154062  12.052   1.752  11.840
50741SOL    HW254063  12.122   1.688  11.958
50742SOL     OW54064   1.855  14.757   3.990
50742SOL    HW154065   1.839  14.668   4.023
50742SOL    HW254066   1.780  14.808   4.019
50743SOL     OW54067   1.875  13.803   5.615
50743SOL    HW154068   1.959  13.758   5.620
50743SOL    HW254069   1.889  13.875   5.554
50744SOL     OW54070  10.208   7.207   5.370
50744SOL    HW154071  10.165   7.219   5.285
50744SOL    HW254072  10.257   7.288   5.384
50745SOL     OW54073  13.937   9.408   5.722
50745SOL    HW154074  14.032   9.401   5.716
50745SOL    HW254075  13.904   9.332   5.674
50746SOL     OW54076   9.605   7.074   2.463
50746SOL    HW154077   9.526   7.118   2.492
50746SOL    HW254078   9.629   7.119   2.382
50747SOL     OW54079  12.496  10.971   8.573
50747SOL    HW154080  12.546  11.020   8.639
50747SOL    HW254081  12.535  10.997   8.490
50748SOL     OW54082  13.206   7.592  11.850
50748SOL    HW154083  13.290   7.621  11.816
50748SOL    HW254084  13.204   7.624  11.940
50749SOL     OW54085  10.516   8.380   5.685
50749SOL    HW154086  10.576   8.448   5.716
50749SOL    HW254087  10.574   8.313   5.649
50750SOL     OW54088   8.223   8.380   3.879
50750SOL    HW154089   8.282   8.305   3.887
50750SOL    HW254090   8.137   8.341   3.867
50751SOL     OW54091   6.055   1.318   7.921
50751SOL    HW154092   6.105   1.398   7.903
50751SOL    HW254093   6.008   1.301   7.840
50752SOL     OW54094  12.834   5.147   5.390
50752SOL    HW154095  12.851   5.153   5.484
50752SOL    HW254096  12.884   5.070   5.362
50753SOL     OW54097   4.758   8.136   7.180
50753SOL    HW154098   4.739   8.046   7.206
50753SOL    HW254099   4.774   8.132   7.086
50754SOL     OW54100  13.613   2.145  10.023
50754SOL    HW154101  13.642   2.117  10.110
50754SOL    HW254102  13.611   2.064   9.972
50755SOL     OW54103   7.651  14.378   8.059
50755SOL    HW154104   7.594  14.367   7.983
50755SOL    HW254105   7.649  14.472   8.076
50756SOL     OW54106   7.771   3.949  10.671
50756SOL    HW154107   7.718   4.028  10.672
50756SOL    HW254108   7.780   3.925  10.764
50757SOL     OW54109  13.721   6.368   8.356
50757SOL    HW154110  13.738   6.354   8.450
50757SOL    HW254111  13.780   6.438   8.331
50758SOL     OW54112  13.651   1.960   9.830
50758SOL    HW154113  13.721   2.005   9.783
50758SOL    HW254114  13.578   1.958   9.768
50759SOL     OW54115   3.992   4.164   8.665
50759SOL    HW154116   3.925   4.162   8.598
50759SOL    HW254117   4.057   4.227   8.633
50760SOL     OW54118   0.745  10.154   6.793
50760SOL    HW154119   0.674  10.099   6.826
50760SOL    HW254120   0.824  10.120   6.835
50761SOL     OW54121   4.375   5.454   1.817
50761SOL    HW154122   4.422   5.487   1.893
50761SOL    HW254123   4.283   5.466   1.837
50762SOL     OW54124  13.208   9.492  13.860
50762SOL    HW154125  13.300   9.506  13.880
50762SOL    HW254126  13.208   9.442  13.778
50763SOL     OW54127   9.502   9.848   7.166
50763SOL    HW154128   9.559   9.893   7.105
50763SOL    HW254129   9.471   9.916   7.226
50764SOL     OW54130   0.551   4.861   0.812
50764SOL    HW154131   0.483   4.891   0.872
50764SOL    HW254132   0.509   4.792   0.760
50765SOL     OW54133  10.614   1.369   1.248
50765SOL    HW154134  10.662   1.303   1.197
50765SOL    HW254135  10.546   1.320   1.293
50766SOL     OW54136   9.862   4.795  10.691
50766SOL    HW154137   9.883   4.886  10.671
50766SOL    HW254138   9.873   4.749  10.608
50767SOL     OW54139   0.099   9.088   8.175
50767SOL    HW154140   0.158   9.064   8.247
50767SOL    HW254141   0.022   9.125   8.219
50768SOL     OW54142   9.439  12.807  11.729
50768SOL    HW154143   9.419  12.840  11.642
50768SOL    HW254144   9.495  12.874  11.768
50769SOL     OW54145  13.382  11.743   7.999
50769SOL    HW154146  13.393  11.736   8.094
50769SOL    HW254147  13.398  11.655   7.966
50770SOL     OW54148  13.417   4.536  10.482
50770SOL    HW154149  13.437   4.558  10.573
50770SOL    HW254150  13.429   4.618  10.434
50771SOL     OW54151   6.914   3.888   5.964
50771SOL    HW154152   6.871   3.935   6.036
50771SOL    HW254153   6.851   3.821   5.938
50772SOL     OW54154   9.541   6.057   9.990
50772SOL    HW154155   9.617   6.060  10.047
50772SOL    HW254156   9.486   6.130  10.018
50773SOL     OW54157   3.329   9.614  10.319
50773SOL    HW154158   3.314   9.690  10.376
50773SOL    HW254159   3.304   9.539  10.373
50774SOL     OW54160   0.898   5.788   9.711
50774SOL    HW154161   0.965   5.834   9.762
50774SOL    HW254162   0.896   5.700   9.749
50775SOL     OW54163  14.152   9.186   2.657
50775SOL    HW154164  14.136   9.181   2.751
50775SOL    HW254165  14.216   9.256   2.647
50776SOL     OW54166   1.727   9.316   0.827
50776SOL    HW154167   1.763   9.354   0.908
50776SOL    HW254168   1.725   9.389   0.766
50777SOL     OW54169   0.958  11.063   3.622
50777SOL    HW154170   1.042  11.105   3.602
50777SOL    HW254171   0.893  11.123   3.586
50778SOL     OW54172   5.567  12.579  12.025
50778SOL    HW154173   5.601  12.626  11.949
50778SOL    HW254174   5.637  12.517  12.048
50779SOL     OW54175   0.596   6.732   1.633
50779SOL    HW154176   0.540   6.717   1.709
50779SOL    HW254177   0.568   6.666   1.569
50780SOL     OW54178   3.635   7.811   5.553
50780SOL    HW154179   3.675   7.776   5.632
50780SOL    HW254180   3.704   7.863   5.511
50781SOL     OW54181   8.322   6.322  10.577
50781SOL    HW154182   8.295   6.288  10.662
50781SOL    HW254183   8.340   6.245  10.524
50782SOL     OW54184   1.382  11.034   5.658
50782SOL    HW154185   1.364  10.966   5.593
50782SOL    HW254186   1.477  11.041   5.659
50783SOL     OW54187   8.260   7.988  12.382
50783SOL    HW154188   8.215   7.904  12.396
50783SOL    HW254189   8.260   8.030  12.468
50784SOL     OW54190   1.010  12.352  11.764
50784SOL    HW154191   1.002  12.331  11.857
50784SOL    HW254192   1.097  12.321  11.739
50785SOL     OW54193  12.314  13.057   0.894
50785SOL    HW154194  12.404  13.046   0.865
50785SOL    HW254195  12.321  13.092   0.983
50786SOL     OW54196   7.699   9.962   4.936
50786SOL    HW154197   7.719   9.971   4.842
50786SOL    HW254198   7.749  10.033   4.977
50787SOL     OW54199   3.106   0.651   3.966
50787SOL    HW154200   3.058   0.695   3.895
50787SOL    HW254201   3.037   0.613   4.021
50788SOL     OW54202   8.139   7.331   4.598
50788SOL    HW154203   8.174   7.353   4.684
50788SOL    HW254204   8.116   7.415   4.559
50789SOL     OW54205   4.703   3.745  11.912
50789SOL    HW154206   4.673   3.781  11.996
50789SOL    HW254207   4.750   3.665  11.936
50790SOL     OW54208   1.086  10.486   6.691
50790SOL    HW154209   1.161  10.426   6.694
50790SOL    HW254210   1.067  10.495   6.597
50791SOL     OW54211   0.031  13.417   7.797
50791SOL    HW154212  14.826  13.407   7.748
50791SOL    HW254213   0.065  13.328   7.806
50792SOL     OW54214   2.644   3.291   3.924
50792SOL    HW154215   2.721   3.236   3.937
50792SOL    HW254216   2.626   3.328   4.011
50793SOL     OW54217   2.816  10.301  13.978
50793SOL    HW154218   2.827  10.238  13.907
50793SOL    HW254219   2.894  10.356  13.973
50794SOL     OW54220   1.647   8.424  11.360
50794SOL    HW154221   1.707   8.357  11.328
50794SOL    HW254222   1.587   8.439  11.287
50795SOL     OW54223  11.771   4.838  10.385
50795SOL    HW154224  11.725   4.922  10.376
50795SOL    HW254225  11.791   4.812  10.296
50796SOL     OW54226  12.255   7.352   0.204
50796SOL    HW154227  12.183   7.413   0.221
50796SOL    HW254228  12.333   7.407   0.206
50797SOL     OW54229  10.115  12.105   9.850
50797SOL    HW154230  10.108  12.161   9.773
50797SOL    HW254231  10.061  12.149   9.917
50798SOL     OW54232   1.398   5.865  14.807
50798SOL    HW154233   1.320   5.826  14.769
50798SOL    HW254234   1.394   5.957  14.782
50799SOL     OW54235   8.127   2.529   7.832
50799SOL    HW154236   8.222   2.515   7.828
50799SOL    HW254237   8.104   2.518   7.924
50800SOL     OW54238   1.760  11.454  13.577
50800SOL    HW154239   1.717  11.369  13.590
50800SOL    HW254240   1.688  11.516  13.564
50801SOL     OW54241   5.158  10.093   5.459
50801SOL    HW154242   5.102  10.142   5.399
50801SOL    HW254243   5.213  10.160   5.501
50802SOL     OW54244   5.780   3.340  12.109
50802SOL    HW154245   5.844   3.284  12.153
50802SOL    HW254246   5.795   3.327  12.016
50803SOL     OW54247  12.144   6.745   5.346
50803SOL    HW154248  12.225   6.790   5.324
50803SOL    HW254249  12.161   6.653   5.325
50804SOL     OW54250  10.192   8.656  11.244
50804SOL    HW154251  10.270   8.605  11.267
50804SOL    HW254252  10.227   8.737  11.206
50805SOL     OW54253   7.919   4.371   4.373
50805SOL    HW154254   8.012   4.374   4.351
50805SOL    HW254255   7.918   4.373   4.469
50806SOL     OW54256  11.355   7.483   4.879
50806SOL    HW154257  11.311   7.560   4.915
50806SOL    HW254258  11.407   7.517   4.807
50807SOL     OW54259   5.943   1.892   8.018
50807SOL    HW154260   5.919   1.799   8.007
50807SOL    HW254261   5.930   1.909   8.111
50808SOL     OW54262  14.735   4.628   0.632
50808SOL    HW154263  14.764   4.638   0.541
50808SOL    HW254264  14.664   4.564   0.628
50809SOL     OW54265   3.694   5.993  14.265
50809SOL    HW154266   3.766   6.049  14.294
50809SOL    HW254267   3.670   5.943  14.343
50810SOL     OW54268  12.825   7.943   1.779
50810SOL    HW154269  12.895   7.992   1.736
50810SOL    HW254270  12.745   7.990   1.757
50811SOL     OW54271   7.913  13.319  11.207
50811SOL    HW154272   7.954  13.405  11.215
50811SOL    HW254273   7.850  13.317  11.279
50812SOL     OW54274  11.049  13.200   8.088
50812SOL    HW154275  11.004  13.261   8.029
50812SOL    HW254276  11.114  13.157   8.033
50813SOL     OW54277   7.476  13.005   3.728
50813SOL    HW154278   7.535  12.930   3.733
50813SOL    HW254279   7.398  12.976   3.776
50814SOL     OW54280  10.641  11.623   8.027
50814SOL    HW154281  10.600  11.709   8.038
50814SOL    HW254282  10.594  11.566   8.088
50815SOL     OW54283  12.240  13.538  10.126
50815SOL    HW154284  12.213  13.612  10.072
50815SOL    HW254285  12.315  13.501  10.080
50816SOL     OW54286  12.105  12.210   5.807
50816SOL    HW154287  12.161  12.257   5.869
50816SOL    HW254288  12.135  12.238   5.721
50817SOL     OW54289   5.919  12.133   7.549
50817SOL    HW154290   5.976  12.194   7.596
50817SOL    HW254291   5.843  12.122   7.606
50818SOL     OW54292  12.300   4.710   0.890
50818SOL    HW154293  12.312   4.739   0.800
50818SOL    HW254294  12.260   4.623   0.883
50819SOL     OW54295  11.816   7.981  13.744
50819SOL    HW154296  11.821   8.018  13.832
50819SOL    HW254297  11.903   7.998  13.706
50820SOL     OW54298  14.056  12.219   7.301
50820SOL    HW154299  14.132  12.226   7.244
50820SOL    HW254300  13.983  12.201   7.242
50821SOL     OW54301  14.217   7.124   0.420
50821SOL    HW154302  14.259   7.044   0.451
50821SOL    HW254303  14.197   7.172   0.500
50822SOL     OW54304   5.293   2.091  10.656
50822SOL    HW154305   5.232   2.080  10.582
50822SOL    HW254306   5.374   2.050  10.625
50823SOL     OW54307  10.566   7.530   1.283
50823SOL    HW154308  10.489   7.512   1.336
50823SOL    HW254309  10.590   7.446   1.245
50824SOL     OW54310   8.312   9.443   4.398
50824SOL    HW154311   8.272   9.369   4.352
50824SOL    HW254312   8.405   9.422   4.402
50825SOL     OW54313   4.145   9.479   2.198
50825SOL    HW154314   4.090   9.464   2.121
50825SOL    HW254315   4.117   9.565   2.231
50826SOL     OW54316  12.496  11.444   3.021
50826SOL    HW154317  12.474  11.528   3.062
50826SOL    HW254318  12.435  11.438   2.947
50827SOL     OW54319  13.214  12.415  14.732
50827SOL    HW154320  13.140  12.449  14.682
50827SOL    HW254321  13.206  12.457  14.818
50828SOL     OW54322   1.424   0.931   6.107
50828SOL    HW154323   1.504   0.981   6.122
50828SOL    HW254324   1.453   0.849   6.068
50829SOL     OW54325  14.871   8.396  11.247
50829SOL    HW154326   0.065   8.401  11.183
50829SOL    HW254327   0.007   8.473  11.302
50830SOL     OW54328  11.765   3.262   2.007
50830SOL    HW154329  11.681   3.217   2.010
50830SOL    HW254330  11.751   3.343   2.055
50831SOL     OW54331  10.114  14.753   3.560
50831SOL    HW154332  10.188  14.813   3.565
50831SOL    HW254333  10.073  14.773   3.475
50832SOL     OW54334   6.486   3.302  11.311
50832SOL    HW154335   6.523   3.334  11.393
50832SOL    HW254336   6.536   3.223  11.291
50833SOL     OW54337   6.832   2.393   3.774
50833SOL    HW154338   6.779   2.392   3.695
50833SOL    HW254339   6.922   2.392   3.742
50834SOL     OW54340  11.749  10.103  10.577
50834SOL    HW154341  11.760  10.121  10.484
50834SOL    HW254342  11.822  10.046  10.601
50835SOL     OW54343  12.169   7.346  10.339
50835SOL    HW154344  12.242   7.286  10.322
50835SOL    HW254345  12.195   7.428  10.297
50836SOL     OW54346  11.721   5.034   2.741
50836SOL    HW154347  11.671   5.025   2.823
50836SOL    HW254348  11.811   5.016   2.766
50837SOL     OW54349   6.786   1.140   0.721
50837SOL    HW154350   6.698   1.160   0.691
50837SOL    HW254351   6.786   1.046   0.736
50838SOL     OW54352   2.149   3.414  14.408
50838SOL    HW154353   2.233   3.441  14.446
50838SOL    HW254354   2.171   3.388  14.319
50839SOL     OW54355   7.104  12.371   9.771
50839SOL    HW154356   7.135  12.301   9.829
50839SOL    HW254357   7.117  12.337   9.683
50840SOL     OW54358   5.933   6.303  10.691
50840SOL    HW154359   5.849   6.300  10.645
50840SOL    HW254360   5.967   6.214  10.685
50841SOL     OW54361   1.931   3.501   1.489
50841SOL    HW154362   1.952   3.509   1.395
50841SOL    HW254363   1.909   3.590   1.516
50842SOL     OW54364  10.405   8.479   5.986
50842SOL    HW154365  10.461   8.513   5.916
50842SOL    HW254366  10.370   8.398   5.951
50843SOL     OW54367   9.768  10.016  10.996
50843SOL    HW154368   9.744   9.926  10.973
50843SOL    HW254369   9.784  10.059  10.912
50844SOL     OW54370  13.731   4.536  11.403
50844SOL    HW154371  13.727   4.632  11.400
50844SOL    HW254372  13.785   4.516  11.479
50845SOL     OW54373   7.647  11.949   1.412
50845SOL    HW154374   7.681  11.862   1.436
50845SOL    HW254375   7.563  11.955   1.456
50846SOL     OW54376  14.697  11.235   0.552
50846SOL    HW154377  14.640  11.239   0.476
50846SOL    HW254378  14.709  11.142   0.569
50847SOL     OW54379   0.834  10.890   5.312
50847SOL    HW154380   0.876  10.901   5.227
50847SOL    HW254381   0.904  10.906   5.375
50848SOL     OW54382   8.304  11.849   7.116
50848SOL    HW154383   8.258  11.766   7.114
50848SOL    HW254384   8.235  11.915   7.113
50849SOL     OW54385  14.559   7.663   5.228
50849SOL    HW154386  14.539   7.576   5.193
50849SOL    HW254387  14.475   7.696   5.260
50850SOL     OW54388  10.101   6.349   4.901
50850SOL    HW154389  10.194   6.338   4.919
50850SOL    HW254390  10.063   6.379   4.983
50851SOL     OW54391   8.403   1.583  14.114
50851SOL    HW154392   8.495   1.563  14.135
50851SOL    HW254393   8.379   1.652  14.175
50852SOL     OW54394  10.025   7.029   6.161
50852SOL    HW154395  10.073   7.111   6.144
50852SOL    HW254396   9.976   7.014   6.080
50853SOL     OW54397   8.338   9.532   0.768
50853SOL    HW154398   8.384   9.560   0.689
50853SOL    HW254399   8.311   9.442   0.749
50854SOL     OW54400   5.992   8.363   1.187
50854SOL    HW154401   6.048   8.312   1.245
50854SOL    HW254402   5.910   8.314   1.184
50855SOL     OW54403   6.634  13.666   2.376
50855SOL    HW154404   6.695  13.736   2.352
50855SOL    HW254405   6.630  13.669   2.471
50856SOL     OW54406   7.648   8.017  14.228
50856SOL    HW154407   7.734   8.058  14.222
50856SOL    HW254408   7.666   7.923  14.225
50857SOL     OW54409   1.405  13.015   4.132
50857SOL    HW154410   1.312  13.028   4.114
50857SOL    HW254411   1.424  12.928   4.098
50858SOL     OW54412   9.011   8.122   6.287
50858SOL    HW154413   9.012   8.076   6.203
50858SOL    HW254414   8.969   8.206   6.268
50859SOL     OW54415   9.034   6.406  11.474
50859SOL    HW154416   9.109   6.402  11.533
50859SOL    HW254417   9.068   6.376  11.390
50860SOL     OW54418   6.303  10.350  11.021
50860SOL    HW154419   6.363  10.410  10.978
50860SOL    HW254420   6.323  10.264  10.983
50861SOL     OW54421  11.029   7.226   0.432
50861SOL    HW154422  11.065   7.195   0.349
50861SOL    HW254423  10.941   7.257   0.410
50862SOL     OW54424   7.865   8.524  10.128
50862SOL    HW154425   7.895   8.440  10.164
50862SOL    HW254426   7.875   8.586  10.200
50863SOL     OW54427  11.780  12.951  12.650
50863SOL    HW154428  11.835  12.879  12.621
50863SOL    HW254429  11.691  12.915  12.651
50864SOL     OW54430   6.663   8.182   1.186
50864SOL    HW154431   6.569   8.166   1.196
50864SOL    HW254432   6.699   8.096   1.163
50865SOL     OW54433  13.807  14.097   6.266
50865SOL    HW154434  13.806  14.192   6.262
50865SOL    HW254435  13.855  14.077   6.347
50866SOL     OW54436  14.554  11.849   5.678
50866SOL    HW154437  14.481  11.869   5.619
50866SOL    HW254438  14.575  11.757   5.660
50867SOL     OW54439   7.367  10.521  14.647
50867SOL    HW154440   7.391  10.436  14.609
50867SOL    HW254441   7.277  10.535  14.619
50868SOL     OW54442   3.675   6.706  13.368
50868SOL    HW154443   3.702   6.616  13.350
50868SOL    HW254444   3.585   6.711  13.337
50869SOL     OW54445   7.975   0.323   8.804
50869SOL    HW154446   7.928   0.398   8.841
50869SOL    HW254447   8.052   0.314   8.860
50870SOL     OW54448   7.100   5.827   6.871
50870SOL    HW154449   7.016   5.822   6.917
50870SOL    HW254450   7.080   5.801   6.781
50871SOL     OW54451   5.871   3.188   5.356
50871SOL    HW154452   5.915   3.205   5.439
50871SOL    HW254453   5.778   3.184   5.378
50872SOL     OW54454  11.526   9.480   2.568
50872SOL    HW154455  11.519   9.385   2.565
50872SOL    HW254456  11.498   9.510   2.482
50873SOL     OW54457   5.118   3.099   6.598
50873SOL    HW154458   5.097   3.175   6.544
50873SOL    HW254459   5.052   3.101   6.667
50874SOL     OW54460  12.506   3.873   9.766
50874SOL    HW154461  12.538   3.918   9.844
50874SOL    HW254462  12.413   3.898   9.760
50875SOL     OW54463   9.618  11.303   9.353
50875SOL    HW154464   9.536  11.265   9.322
50875SOL    HW254465   9.591  11.380   9.403
50876SOL     OW54466   0.560   6.337   9.839
50876SOL    HW154467   0.649   6.320   9.807
50876SOL    HW254468   0.513   6.254   9.824
50877SOL     OW54469  14.741  14.408   7.905
50877SOL    HW154470  14.774  14.488   7.866
50877SOL    HW254471  14.661  14.434   7.951
50878SOL     OW54472  10.921   4.240   7.112
50878SOL    HW154473  10.888   4.155   7.085
50878SOL    HW254474  11.013   4.225   7.132
50879SOL     OW54475   5.478   5.388  12.013
50879SOL    HW154476   5.506   5.378  11.922
50879SOL    HW254477   5.458   5.299  12.043
50880SOL     OW54478  13.035   6.810  14.462
50880SOL    HW154479  13.053   6.722  14.429
50880SOL    HW254480  12.974   6.797  14.535
50881SOL     OW54481   6.556  14.771  13.991
50881SOL    HW154482   6.598  14.739  13.911
50881SOL    HW254483   6.629  14.790  14.050
50882SOL     OW54484   8.881  12.752   8.233
50882SOL    HW154485   8.839  12.790   8.156
50882SOL    HW254486   8.844  12.800   8.307
50883SOL     OW54487  11.842   8.703  10.951
50883SOL    HW154488  11.899   8.707  11.028
50883SOL    HW254489  11.807   8.615  10.952
50884SOL     OW54490   5.230   0.533   9.030
50884SOL    HW154491   5.179   0.495   9.101
50884SOL    HW254492   5.225   0.469   8.959
50885SOL     OW54493   5.932  12.773   7.934
50885SOL    HW154494   5.942  12.821   7.852
50885SOL    HW254495   5.838  12.755   7.940
50886SOL     OW54496  13.729   3.104   5.031
50886SOL    HW154497  13.714   3.144   4.945
50886SOL    HW254498  13.644   3.109   5.075
50887SOL     OW54499   9.635   8.852  13.562
50887SOL    HW154500   9.586   8.933  13.550
50887SOL    HW254501   9.727   8.879  13.560
50888SOL     OW54502   3.705   0.713   6.620
50888SOL    HW154503   3.741   0.658   6.550
50888SOL    HW254504   3.629   0.757   6.580
50889SOL     OW54505   8.962   4.111   3.615
50889SOL    HW154506   8.975   4.058   3.694
50889SOL    HW254507   8.867   4.123   3.610
50890SOL     OW54508   2.513  12.107   4.382
50890SOL    HW154509   2.578  12.167   4.346
50890SOL    HW254510   2.543  12.091   4.472
50891SOL     OW54511   9.515   1.387   2.639
50891SOL    HW154512   9.565   1.467   2.655
50891SOL    HW254513   9.496   1.353   2.727
50892SOL     OW54514   0.474  13.981   1.983
50892SOL    HW154515   0.430  13.945   1.906
50892SOL    HW254516   0.557  13.933   1.988
50893SOL     OW54517  14.432   0.489   7.274
50893SOL    HW154518  14.437   0.560   7.339
50893SOL    HW254519  14.358   0.513   7.218
50894SOL     OW54520  13.059   9.942   9.228
50894SOL    HW154521  12.973   9.924   9.189
50894SOL    HW254522  13.048  10.027   9.271
50895SOL     OW54523   0.919  10.405  10.378
50895SOL    HW154524   0.937  10.460  10.301
50895SOL    HW254525   0.908  10.468  10.449
50896SOL     OW54526   4.704   1.610   6.235
50896SOL    HW154527   4.636   1.601   6.301
50896SOL    HW254528   4.736   1.700   6.245
50897SOL     OW54529   0.964   0.716  14.063
50897SOL    HW154530   1.025   0.788  14.075
50897SOL    HW254531   0.878   0.757  14.056
50898SOL     OW54532  13.310   6.985   8.983
50898SOL    HW154533  13.297   7.052   8.916
50898SOL    HW254534  13.320   6.904   8.934
50899SOL     OW54535   4.503   3.798  10.500
50899SOL    HW154536   4.519   3.847  10.580
50899SOL    HW254537   4.418   3.828  10.469
50900SOL     OW54538  11.596  12.044   0.975
50900SOL    HW154539  11.535  12.073   1.043
50900SOL    HW254540  11.626  12.124   0.934
50901SOL     OW54541   3.760   5.616   6.288
50901SOL    HW154542   3.691   5.617   6.221
50901SOL    HW254543   3.840   5.639   6.240
50902SOL     OW54544   8.720   7.550  11.057
50902SOL    HW154545   8.799   7.539  11.110
50902SOL    HW254546   8.656   7.492  11.098
50903SOL     OW54547   7.430   4.784  11.204
50903SOL    HW154548   7.457   4.695  11.227
50903SOL    HW254549   7.497   4.840  11.242
50904SOL     OW54550   9.775   0.914  14.559
50904SOL    HW154551   9.690   0.937  14.520
50904SOL    HW254552   9.784   0.820  14.544
50905SOL     OW54553   7.613   1.562   1.505
50905SOL    HW154554   7.636   1.631   1.443
50905SOL    HW254555   7.560   1.501   1.454
50906SOL     OW54556   9.529  14.099   6.494
50906SOL    HW154557   9.545  14.053   6.411
50906SOL    HW254558   9.541  14.033   6.561
50907SOL     OW54559  11.053  10.575   3.019
50907SOL    HW154560  11.120  10.640   3.036
50907SOL    HW254561  10.983  10.623   2.974
50908SOL     OW54562  14.763   6.289  13.607
50908SOL    HW154563  14.687   6.294  13.549
50908SOL    HW254564  14.788   6.196  13.605
50909SOL     OW54565  11.969   8.895   7.348
50909SOL    HW154566  11.932   8.849   7.424
50909SOL    HW254567  11.930   8.982   7.351
50910SOL     OW54568  11.281   7.991   0.640
50910SOL    HW154569  11.373   8.009   0.659
50910SOL    HW254570  11.270   7.898   0.661
50911SOL     OW54571  14.232   5.959  11.374
50911SOL    HW154572  14.243   5.864  11.371
50911SOL    HW254573  14.153   5.973  11.427
50912SOL     OW54574  10.902   5.933   2.828
50912SOL    HW154575  10.971   5.996   2.810
50912SOL    HW254576  10.843   5.978   2.888
50913SOL     OW54577   8.986  11.689   1.726
50913SOL    HW154578   8.916  11.669   1.664
50913SOL    HW254579   8.949  11.668   1.811
50914SOL     OW54580   0.010   6.459   7.907
50914SOL    HW154581   0.002   6.421   7.994
50914SOL    HW254582   0.071   6.402   7.861
50915SOL     OW54583  14.755   5.685   5.888
50915SOL    HW154584  14.811   5.699   5.965
50915SOL    HW254585  14.788   5.746   5.823
50916SOL     OW54586   5.856   1.029  13.924
50916SOL    HW154587   5.904   0.963  13.874
50916SOL    HW254588   5.923   1.072  13.977
50917SOL     OW54589  10.285   5.682  12.709
50917SOL    HW154590  10.266   5.770  12.742
50917SOL    HW254591  10.381   5.677  12.707
50918SOL     OW54592  14.146  13.056   0.583
50918SOL    HW154593  14.162  13.145   0.554
50918SOL    HW254594  14.053  13.056   0.609
50919SOL     OW54595  11.472  13.323   6.972
50919SOL    HW154596  11.544  13.287   6.921
50919SOL    HW254597  11.500  13.315   7.064
50920SOL     OW54598   8.400   0.408  12.357
50920SOL    HW154599   8.453   0.482  12.329
50920SOL    HW254600   8.427   0.392  12.448
50921SOL     OW54601  10.927   1.113   7.077
50921SOL    HW154602  10.843   1.095   7.121
50921SOL    HW254603  10.978   1.161   7.142
50922SOL     OW54604   9.465   6.119   7.666
50922SOL    HW154605   9.520   6.177   7.613
50922SOL    HW254606   9.394   6.093   7.608
50923SOL     OW54607  14.095   0.671   1.598
50923SOL    HW154608  14.123   0.592   1.551
50923SOL    HW254609  14.015   0.644   1.643
50924SOL     OW54610   6.302  12.881   7.329
50924SOL    HW154611   6.252  12.881   7.247
50924SOL    HW254612   6.384  12.924   7.307
50925SOL     OW54613   8.605  14.784   9.551
50925SOL    HW154614   8.617  14.835   9.471
50925SOL    HW254615   8.530  14.824   9.595
50926SOL     OW54616   0.145   1.620  14.615
50926SOL    HW154617   0.229   1.627  14.570
50926SOL    HW254618   0.086   1.677  14.566
50927SOL     OW54619   1.038   3.645   0.504
50927SOL    HW154620   1.098   3.662   0.577
50927SOL    HW254621   1.078   3.573   0.456
50928SOL     OW54622   1.715   3.510   9.158
50928SOL    HW154623   1.796   3.525   9.109
50928SOL    HW254624   1.675   3.434   9.114
50929SOL     OW54625  10.800   0.600   5.365
50929SOL    HW154626  10.717   0.600   5.413
50929SOL    HW254627  10.819   0.692   5.349
50930SOL     OW54628   9.344   9.995   9.062
50930SOL    HW154629   9.324   9.906   9.090
50930SOL    HW254630   9.264  10.024   9.017
50931SOL     OW54631   8.862  12.710   6.739
50931SOL    HW154632   8.878  12.707   6.645
50931SOL    HW254633   8.767  12.702   6.748
50932SOL     OW54634   8.036   2.314  12.876
50932SOL    HW154635   7.943   2.337  12.874
50932SOL    HW254636   8.062   2.314  12.783
50933SOL     OW54637   3.727   2.443   6.863
50933SOL    HW154638   3.753   2.420   6.952
50933SOL    HW254639   3.809   2.451   6.815
50934SOL     OW54640   9.390  10.855  13.966
50934SOL    HW154641   9.408  10.922  13.900
50934SOL    HW254642   9.424  10.893  14.047
50935SOL     OW54643   3.146  10.991  12.199
50935SOL    HW154644   3.197  10.958  12.273
50935SOL    HW254645   3.160  11.086  12.200
50936SOL     OW54646   1.753   7.480   8.173
50936SOL    HW154647   1.837   7.438   8.189
50936SOL    HW254648   1.764   7.524   8.089
50937SOL     OW54649   5.287   4.126   0.621
50937SOL    HW154650   5.312   4.131   0.714
50937SOL    HW254651   5.270   4.216   0.596
50938SOL     OW54652   8.127   3.390   2.475
50938SOL    HW154653   8.204   3.347   2.512
50938SOL    HW254654   8.067   3.399   2.549
50939SOL     OW54655   2.726   8.046   4.571
50939SOL    HW154656   2.703   8.015   4.483
50939SOL    HW254657   2.791   7.984   4.603
50940SOL     OW54658   1.459   6.363   1.105
50940SOL    HW154659   1.536   6.366   1.049
50940SOL    HW254660   1.391   6.323   1.051
50941SOL     OW54661  11.145  13.273   5.727
50941SOL    HW154662  11.059  13.308   5.703
50941SOL    HW254663  11.202  13.350   5.733
50942SOL     OW54664   0.611   3.779  12.105
50942SOL    HW154665   0.592   3.856  12.159
50942SOL    HW254666   0.566   3.707  12.149
50943SOL     OW54667  12.013   9.913  12.880
50943SOL    HW154668  11.953   9.982  12.851
50943SOL    HW254669  12.091   9.924  12.826
50944SOL     OW54670   6.026   1.278   2.584
50944SOL    HW154671   5.933   1.264   2.572
50944SOL    HW254672   6.035   1.309   2.674
50945SOL     OW54673   7.780   9.208   0.693
50945SOL    HW154674   7.741   9.123   0.711
50945SOL    HW254675   7.789   9.211   0.598
50946SOL     OW54676   3.206   5.085  11.717
50946SOL    HW154677   3.186   5.126  11.633
50946SOL    HW254678   3.173   4.996  11.708
50947SOL     OW54679   0.812   0.613   7.748
50947SOL    HW154680   0.727   0.656   7.751
50947SOL    HW254681   0.792   0.521   7.735
50948SOL     OW54682   0.679   1.556   1.826
50948SOL    HW154683   0.627   1.634   1.806
50948SOL    HW254684   0.758   1.591   1.868
50949SOL     OW54685  13.894   3.737   9.349
50949SOL    HW154686  13.933   3.813   9.392
50949SOL    HW254687  13.814   3.771   9.310
50950SOL     OW54688  12.287  11.264   7.094
50950SOL    HW154689  12.355  11.261   7.026
50950SOL    HW254690  12.314  11.336   7.151
50951SOL     OW54691  10.823   1.061   8.670
50951SOL    HW154692  10.774   1.005   8.730
50951SOL    HW254693  10.906   1.077   8.714
50952SOL     OW54694   6.630   1.745  11.459
50952SOL    HW154695   6.649   1.740  11.553
50952SOL    HW254696   6.560   1.810  11.452
50953SOL     OW54697   2.758   3.541  14.408
50953SOL    HW154698   2.712   3.591  14.476
50953SOL    HW254699   2.691   3.484  14.370
50954SOL     OW54700   8.073   4.211  12.783
50954SOL    HW154701   8.113   4.228  12.697
50954SOL    HW254702   8.128   4.143  12.822
50955SOL     OW54703   9.739   4.674   1.419
50955SOL    HW154704   9.666   4.622   1.453
50955SOL    HW254705   9.808   4.663   1.484
50956SOL     OW54706   6.059  14.401   1.573
50956SOL    HW154707   6.056  14.454   1.493
50956SOL    HW254708   6.039  14.462   1.643
50957SOL     OW54709   9.821  11.535   2.413
50957SOL    HW154710   9.862  11.506   2.494
50957SOL    HW254711   9.759  11.603   2.440
50958SOL     OW54712   8.097   0.292  13.327
50958SOL    HW154713   8.012   0.312  13.287
50958SOL    HW254714   8.138   0.230  13.267
50959SOL     OW54715   0.358   3.041   4.051
50959SOL    HW154716   0.318   3.060   4.136
50959SOL    HW254717   0.296   2.982   4.008
50960SOL     OW54718  13.036  11.547   6.918
50960SOL    HW154719  13.037  11.635   6.880
50960SOL    HW254720  12.990  11.494   6.854
50961SOL     OW54721   3.817   5.259   8.775
50961SOL    HW154722   3.829   5.353   8.761
50961SOL    HW254723   3.853   5.218   8.696
50962SOL     OW54724  11.461   5.582   6.366
50962SOL    HW154725  11.530   5.624   6.415
50962SOL    HW254726  11.504   5.547   6.288
50963SOL     OW54727   3.409   9.551  12.079
50963SOL    HW154728   3.428   9.457  12.085
50963SOL    HW254729   3.494   9.591  12.060
50964SOL     OW54730   3.441  11.616   8.685
50964SOL    HW154731   3.506  11.611   8.615
50964SOL    HW254732   3.484  11.664   8.756
50965SOL     OW54733   5.692   3.977   6.208
50965SOL    HW154734   5.744   4.056   6.222
50965SOL    HW254735   5.610   4.008   6.170
50966SOL     OW54736   7.549   7.425   5.510
50966SOL    HW154737   7.633   7.394   5.544
50966SOL    HW254738   7.551   7.403   5.417
50967SOL     OW54739   4.650   9.326   1.883
50967SOL    HW154740   4.653   9.285   1.796
50967SOL    HW254741   4.740   9.352   1.901
50968SOL     OW54742   2.581   3.699   0.705
50968SOL    HW154743   2.537   3.771   0.659
50968SOL    HW254744   2.592   3.631   0.638
50969SOL     OW54745   1.608  11.521  11.246
50969SOL    HW154746   1.686  11.469  11.226
50969SOL    HW254747   1.600  11.518  11.342
50970SOL     OW54748   2.570   2.364   0.765
50970SOL    HW154749   2.538   2.310   0.693
50970SOL    HW254750   2.655   2.396   0.734
50971SOL     OW54751  10.611   1.335  12.586
50971SOL    HW154752  10.673   1.377  12.646
50971SOL    HW254753  10.585   1.404  12.526
50972SOL     OW54754   8.217  10.774  12.049
50972SOL    HW154755   8.241  10.726  11.970
50972SOL    HW254756   8.260  10.726  12.120
50973SOL     OW54757   5.259   6.091  12.065
50973SOL    HW154758   5.184   6.070  12.009
50973SOL    HW254759   5.307   6.009  12.072
50974SOL     OW54760   9.799   6.829  12.827
50974SOL    HW154761   9.746   6.750  12.821
50974SOL    HW254762   9.785   6.862  12.915
50975SOL     OW54763  14.148  12.129   0.477
50975SOL    HW154764  14.103  12.120   0.393
50975SOL    HW254765  14.201  12.208   0.468
50976SOL     OW54766   4.021   5.414  13.628
50976SOL    HW154767   3.967   5.483  13.667
50976SOL    HW254768   4.064   5.457  13.554
50977SOL     OW54769   4.374   4.785   8.364
50977SOL    HW154770   4.433   4.745   8.427
50977SOL    HW254771   4.340   4.712   8.312
50978SOL     OW54772   3.686   8.735   3.784
50978SOL    HW154773   3.645   8.687   3.712
50978SOL    HW254774   3.752   8.790   3.742
50979SOL     OW54775   1.821   6.611  14.719
50979SOL    HW154776   1.795   6.550  14.649
50979SOL    HW254777   1.913   6.591  14.734
50980SOL     OW54778   1.858   7.642   0.351
50980SOL    HW154779   1.775   7.688   0.338
50980SOL    HW254780   1.923   7.698   0.309
50981SOL     OW54781  12.727  13.587   2.000
50981SOL    HW154782  12.644  13.563   1.959
50981SOL    HW254783  12.756  13.507   2.044
50982SOL     OW54784   8.735  11.649  14.586
50982SOL    HW154785   8.798  11.577  14.596
50982SOL    HW254786   8.675  11.639  14.660
50983SOL     OW54787   6.699  11.696   4.523
50983SOL    HW154788   6.682  11.782   4.559
50983SOL    HW254789   6.693  11.707   4.428
50984SOL     OW54790   0.808   8.688   7.333
50984SOL    HW154791   0.822   8.728   7.419
50984SOL    HW254792   0.885   8.633   7.319
50985SOL     OW54793  10.962  14.284   8.495
50985SOL    HW154794  10.941  14.193   8.475
50985SOL    HW254795  10.925  14.333   8.422
50986SOL     OW54796   5.400   5.670  11.272
50986SOL    HW154797   5.383   5.730  11.200
50986SOL    HW254798   5.356   5.709  11.347
50987SOL     OW54799  11.249  11.931  13.520
50987SOL    HW154800  11.210  11.847  13.496
50987SOL    HW254801  11.211  11.993  13.458
50988SOL     OW54802   6.710   9.476  10.962
50988SOL    HW154803   6.686   9.565  10.939
50988SOL    HW254804   6.645   9.449  11.027
50989SOL     OW54805   3.912  14.602   7.874
50989SOL    HW154806   3.984  14.607   7.812
50989SOL    HW254807   3.844  14.554   7.828
50990SOL     OW54808   7.072  11.224   5.150
50990SOL    HW154809   7.102  11.263   5.068
50990SOL    HW254810   7.145  11.168   5.178
50991SOL     OW54811   9.077  13.083   1.913
50991SOL    HW154812   9.149  13.031   1.876
50991SOL    HW254813   9.119  13.162   1.946
50992SOL     OW54814   2.891   6.555   4.262
50992SOL    HW154815   2.982   6.564   4.234
50992SOL    HW254816   2.854   6.642   4.249
50993SOL     OW54817   9.302  13.090   5.019
50993SOL    HW154818   9.259  13.144   4.952
50993SOL    HW254819   9.388  13.131   5.031
50994SOL     OW54820   2.989   8.840   1.164
50994SOL    HW154821   2.989   8.808   1.073
50994SOL    HW254822   2.905   8.884   1.173
50995SOL     OW54823  14.729   6.293   0.433
50995SOL    HW154824  14.823   6.277   0.424
50995SOL    HW254825  14.693   6.210   0.464
50996SOL     OW54826   3.058  11.719  11.300
50996SOL    HW154827   3.150  11.741  11.309
50996SOL    HW254828   3.013  11.803  11.296
50997SOL     OW54829   8.514  10.834  13.230
50997SOL    HW154830   8.454  10.822  13.303
50997SOL    HW254831   8.476  10.782  13.159
50998SOL     OW54832  13.912   0.724   3.888
50998SOL    HW154833  13.939   0.719   3.796
50998SOL    HW254834  13.994   0.738   3.935
50999SOL     OW54835   8.689   3.754  14.338
50999SOL    HW154836   8.632   3.679  14.320
50999SOL    HW254837   8.640   3.807  14.401
51000SOL     OW54838  14.703   5.720  13.854
51000SOL    HW154839  14.633   5.753  13.910
51000SOL    HW254840  14.758   5.797  13.837
51001SOL     OW54841   0.731   9.255  11.070
51001SOL    HW154842   0.673   9.184  11.042
51001SOL    HW254843   0.713   9.265  11.163
51002SOL     OW54844   3.615   1.129   6.597
51002SOL    HW154845   3.544   1.142   6.660
51002SOL    HW254846   3.581   1.067   6.534
51003SOL     OW54847   7.924   0.921   9.616
51003SOL    HW154848   7.995   0.856   9.622
51003SOL    HW254849   7.881   0.917   9.701
51004SOL     OW54850   0.238   2.228   0.240
51004SOL    HW154851   0.199   2.295   0.184
51004SOL    HW254852   0.332   2.248   0.240
51005SOL     OW54853  11.240  12.148   2.126
51005SOL    HW154854  11.265  12.085   2.058
51005SOL    HW254855  11.274  12.231   2.094
51006SOL     OW54856  12.774   9.529   5.005
51006SOL    HW154857  12.693   9.493   5.040
51006SOL    HW254858  12.841   9.503   5.068
51007SOL     OW54859  14.365   8.442   6.261
51007SOL    HW154860  14.300   8.509   6.283
51007SOL    HW254861  14.440   8.463   6.315
51008SOL     OW54862  14.701   9.639  12.504
51008SOL    HW154863  14.781   9.633  12.452
51008SOL    HW254864  14.725   9.603  12.589
51009SOL     OW54865  11.650   4.414   3.270
51009SOL    HW154866  11.601   4.457   3.340
51009SOL    HW254867  11.598   4.336   3.250
51010SOL     OW54868   4.612   9.090  14.363
51010SOL    HW154869   4.684   9.043  14.405
51010SOL    HW254870   4.637   9.095  14.270
51011SOL     OW54871  11.377  10.467   6.637
51011SOL    HW154872  11.432  10.389   6.630
51011SOL    HW254873  11.406  10.510   6.718
51012SOL     OW54874  11.682   1.654   4.529
51012SOL    HW154875  11.703   1.625   4.440
51012SOL    HW254876  11.698   1.749   4.528
51013SOL     OW54877   7.009  10.895   4.118
51013SOL    HW154878   6.958  10.949   4.178
51013SOL    HW254879   7.073  10.850   4.174
51014SOL     OW54880   4.327   9.606   2.755
51014SOL    HW154881   4.363   9.634   2.670
51014SOL    HW254882   4.309   9.687   2.802
51015SOL     OW54883   5.112  10.797   9.957
51015SOL    HW154884   5.142  10.887   9.946
51015SOL    HW254885   5.191  10.743   9.950
51016SOL     OW54886   0.560   8.757   3.293
51016SOL    HW154887   0.552   8.723   3.204
51016SOL    HW254888   0.647   8.796   3.296
51017SOL     OW54889  14.772   4.893   9.135
51017SOL    HW154890  14.678   4.892   9.154
51017SOL    HW254891  14.795   4.801   9.124
51018SOL     OW54892   1.237  12.246  13.866
51018SOL    HW154893   1.302  12.308  13.835
51018SOL    HW254894   1.255  12.166  13.817
51019SOL     OW54895   6.118   7.961   2.971
51019SOL    HW154896   6.154   7.893   2.914
51019SOL    HW254897   6.194   8.004   3.009
51020SOL     OW54898   3.671   4.783   0.699
51020SOL    HW154899   3.665   4.707   0.758
51020SOL    HW254900   3.689   4.745   0.613
51021SOL     OW54901   6.008   3.532  10.743
51021SOL    HW154902   5.992   3.559  10.834
51021SOL    HW254903   6.104   3.531  10.736
51022SOL     OW54904  10.805  11.184   9.772
51022SOL    HW154905  10.878  11.218   9.720
51022SOL    HW254906  10.835  11.186   9.862
51023SOL     OW54907   1.754   8.449   6.813
51023SOL    HW154908   1.690   8.520   6.805
51023SOL    HW254909   1.812   8.459   6.738
51024SOL     OW54910  12.026   6.918   3.896
51024SOL    HW154911  12.048   7.000   3.854
51024SOL    HW254912  12.100   6.898   3.953
51025SOL     OW54913  11.660  13.638   4.141
51025SOL    HW154914  11.694  13.728   4.140
51025SOL    HW254915  11.565  13.649   4.141
51026SOL     OW54916   7.781  11.628   8.159
51026SOL    HW154917   7.775  11.704   8.216
51026SOL    HW254918   7.692  11.618   8.124
51027SOL     OW54919  13.583   9.697   3.948
51027SOL    HW154920  13.514   9.651   3.996
51027SOL    HW254921  13.566   9.790   3.966
51028SOL     OW54922   9.606   2.839   7.214
51028SOL    HW154923   9.646   2.915   7.173
51028SOL    HW254924   9.516   2.865   7.233
51029SOL     OW54925   9.399  10.215   6.305
51029SOL    HW154926   9.405  10.175   6.219
51029SOL    HW254927   9.466  10.283   6.305
51030SOL     OW54928   9.501   6.400   0.172
51030SOL    HW154929   9.521   6.364   0.259
51030SOL    HW254930   9.496   6.494   0.186
51031SOL     OW54931   1.032  12.245   9.323
51031SOL    HW154932   0.977  12.175   9.287
51031SOL    HW254933   0.980  12.325   9.310
51032SOL     OW54934  14.226  11.075   5.940
51032SOL    HW154935  14.310  11.095   5.980
51032SOL    HW254936  14.163  11.132   5.984
51033SOL     OW54937  12.115   4.695   9.462
51033SOL    HW154938  12.168   4.770   9.489
51033SOL    HW254939  12.122   4.633   9.535
51034SOL     OW54940   0.471   8.566   9.059
51034SOL    HW154941   0.428   8.499   9.112
51034SOL    HW254942   0.561   8.535   9.049
51035SOL     OW54943  10.059  14.314   7.036
51035SOL    HW154944  10.122  14.346   7.100
51035SOL    HW254945  10.028  14.231   7.072
51036SOL     OW54946  10.148   9.893   2.299
51036SOL    HW154947  10.073   9.837   2.277
51036SOL    HW254948  10.225   9.838   2.283
51037SOL     OW54949   0.369   2.567   1.683
51037SOL    HW154950   0.274   2.555   1.684
51037SOL    HW254951   0.401   2.501   1.744
51038SOL     OW54952   1.719   8.795   3.186
51038SOL    HW154953   1.755   8.795   3.274
51038SOL    HW254954   1.773   8.857   3.137
51039SOL     OW54955   1.314   5.282  12.019
51039SOL    HW154956   1.409   5.290  12.033
51039SOL    HW254957   1.292   5.197  12.056
51040SOL     OW54958   9.056   1.684  10.531
51040SOL    HW154959   9.007   1.602  10.532
51040SOL    HW254960   8.997   1.747  10.489
51041SOL     OW54961  14.536  12.614   6.041
51041SOL    HW154962  14.571  12.623   6.130
51041SOL    HW254963  14.577  12.535   6.007
51042SOL     OW54964   0.087   8.409   2.720
51042SOL    HW154965   0.066   8.489   2.769
51042SOL    HW254966   0.106   8.344   2.787
51043SOL     OW54967  13.328  14.159   3.173
51043SOL    HW154968  13.407  14.176   3.224
51043SOL    HW254969  13.355  14.171   3.082
51044SOL     OW54970  10.994  14.551   1.864
51044SOL    HW154971  10.983  14.498   1.785
51044SOL    HW254972  10.911  14.598   1.872
51045SOL     OW54973  12.724   0.783   3.649
51045SOL    HW154974  12.662   0.847   3.615
51045SOL    HW254975  12.715   0.707   3.591
51046SOL     OW54976  11.481  11.665   0.795
51046SOL    HW154977  11.451  11.748   0.834
51046SOL    HW254978  11.574  11.661   0.819
51047SOL     OW54979  12.841   6.589   8.890
51047SOL    HW154980  12.888   6.513   8.926
51047SOL    HW254981  12.785   6.619   8.961
51048SOL     OW54982   1.083   0.181   9.158
51048SOL    HW154983   1.032   0.104   9.131
51048SOL    HW254984   1.114   0.159   9.246
51049SOL     OW54985  10.668  12.055   4.118
51049SOL    HW154986  10.687  12.102   4.199
51049SOL    HW254987  10.580  12.019   4.131
51050SOL     OW54988   3.179  12.572  11.889
51050SOL    HW154989   3.121  12.560  11.965
51050SOL    HW254990   3.261  12.529  11.915
51051SOL     OW54991  13.262   1.910   4.725
51051SOL    HW154992  13.238   1.910   4.632
51051SOL    HW254993  13.179   1.917   4.771
51052SOL     OW54994  13.087  14.082  13.569
51052SOL    HW154995  13.031  14.121  13.636
51052SOL    HW254996  13.157  14.146  13.556
51053SOL     OW54997  10.903   1.272   3.289
51053SOL    HW154998  10.807   1.269   3.287
51053SOL    HW254999  10.928   1.309   3.204
51054SOL     OW55000   3.688   6.012  12.068
51054SOL    HW155001   3.756   6.078  12.081
51054SOL    HW255002   3.702   5.949  12.138
51055SOL     OW55003   4.237   5.360   9.413
51055SOL    HW155004   4.153   5.361   9.458
51055SOL    HW255005   4.301   5.343   9.482
51056SOL     OW55006   1.362  12.315   1.728
51056SOL    HW155007   1.379  12.403   1.763
51056SOL    HW255008   1.354  12.260   1.806
51057SOL     OW55009   5.126   6.198   0.855
51057SOL    HW155010   5.189   6.225   0.788
51057SOL    HW255011   5.048   6.251   0.837
51058SOL     OW55012   0.974   7.058   3.169
51058SOL    HW155013   0.952   7.026   3.082
51058SOL    HW255014   1.050   7.006   3.196
51059SOL     OW55015   9.796   1.276   2.121
51059SOL    HW155016   9.882   1.251   2.154
51059SOL    HW255017   9.782   1.364   2.155
51060SOL     OW55018   8.213   6.293  12.503
51060SOL    HW155019   8.141   6.337  12.548
51060SOL    HW255020   8.283   6.358  12.502
51061SOL     OW55021  12.700   1.552  11.765
51061SOL    HW155022  12.784   1.588  11.735
51061SOL    HW255023  12.634   1.603  11.720
51062SOL     OW55024   2.298   4.781  10.868
51062SOL    HW155025   2.321   4.817  10.782
51062SOL    HW255026   2.261   4.855  10.916
51063SOL     OW55027   7.218  12.390   9.068
51063SOL    HW155028   7.200  12.382   8.974
51063SOL    HW255029   7.218  12.484   9.085
51064SOL     OW55030   2.344  14.826  10.208
51064SOL    HW155031   2.253  14.798  10.198
51064SOL    HW255032   2.377  14.832  10.118
51065SOL     OW55033   6.706  10.830  13.985
51065SOL    HW155034   6.617  10.865  13.993
51065SOL    HW255035   6.760  10.893  14.032
51066SOL     OW55036   9.429   1.528  10.753
51066SOL    HW155037   9.494   1.590  10.785
51066SOL    HW255038   9.346   1.575  10.761
51067SOL     OW55039  10.436  13.559  12.947
51067SOL    HW155040  10.452  13.606  12.865
51067SOL    HW255041  10.346  13.526  12.938
51068SOL     OW55042   1.414   7.599   9.455
51068SOL    HW155043   1.470   7.638   9.521
51068SOL    HW255044   1.325   7.623   9.480
51069SOL     OW55045  11.395  12.743  10.574
51069SOL    HW155046  11.414  12.654  10.545
51069SOL    HW255047  11.316  12.767  10.526
51070SOL     OW55048   6.983  12.068   9.653
51070SOL    HW155049   7.049  12.107   9.595
51070SOL    HW255050   6.915  12.135   9.660
51071SOL     OW55051   8.990  11.750   3.695
51071SOL    HW155052   8.979  11.795   3.779
51071SOL    HW255053   8.931  11.796   3.635
51072SOL     OW55054   6.379  10.366  11.918
51072SOL    HW155055   6.340  10.294  11.968
51072SOL    HW255056   6.422  10.323  11.844
51073SOL     OW55057   3.565   4.273   1.657
51073SOL    HW155058   3.650   4.303   1.690
51073SOL    HW255059   3.587   4.212   1.586
51074SOL     OW55060   1.066   4.215   9.876
51074SOL    HW155061   1.070   4.215   9.781
51074SOL    HW255062   1.158   4.211   9.904
51075SOL     OW55063  10.031   9.156   4.745
51075SOL    HW155064  10.042   9.099   4.669
51075SOL    HW255065  10.000   9.239   4.709
51076SOL     OW55066   1.017  11.675   1.985
51076SOL    HW155067   1.049  11.611   2.049
51076SOL    HW255068   0.967  11.622   1.922
51077SOL     OW55069   2.848   9.289   5.225
51077SOL    HW155070   2.924   9.257   5.273
51077SOL    HW255071   2.884   9.348   5.159
51078SOL     OW55072   6.664   3.370  13.748
51078SOL    HW155073   6.740   3.405  13.701
51078SOL    HW255074   6.610   3.447  13.765
51079SOL     OW55075  10.738   4.317   9.579
51079SOL    HW155076  10.821   4.288   9.619
51079SOL    HW255077  10.736   4.411   9.595
51080SOL     OW55078  11.943  13.598  10.268
51080SOL    HW155079  11.880  13.569  10.203
51080SOL    HW255080  11.998  13.661  10.222
51081SOL     OW55081   3.315   0.838   5.645
51081SOL    HW155082   3.285   0.864   5.558
51081SOL    HW255083   3.242   0.859   5.703
51082SOL     OW55084  12.689   7.545  12.876
51082SOL    HW155085  12.599   7.522  12.899
51082SOL    HW255086  12.739   7.529  12.956
51083SOL     OW55087   3.174   9.068   2.875
51083SOL    HW155088   3.140   9.008   2.808
51083SOL    HW255089   3.101   9.126   2.895
51084SOL     OW55090  13.209   7.706  12.511
51084SOL    HW155091  13.264   7.649  12.565
51084SOL    HW255092  13.251   7.792  12.516
51085SOL     OW55093   9.432   0.078   3.925
51085SOL    HW155094   9.388   0.022   3.861
51085SOL    HW255095   9.381   0.068   4.005
51086SOL     OW55096   1.422   5.648   8.160
51086SOL    HW155097   1.433   5.627   8.253
51086SOL    HW255098   1.333   5.682   8.153
51087SOL     OW55099  12.049   0.951   4.042
51087SOL    HW155100  11.970   0.988   4.080
51087SOL    HW255101  12.022   0.866   4.008
51088SOL     OW55102   7.302   2.329   9.282
51088SOL    HW155103   7.281   2.414   9.321
51088SOL    HW255104   7.222   2.305   9.234
51089SOL     OW55105   8.749   6.776  13.613
51089SOL    HW155106   8.755   6.845  13.680
51089SOL    HW255107   8.836   6.737  13.611
51090SOL     OW55108   3.749   8.739   1.051
51090SOL    HW155109   3.791   8.756   1.135
51090SOL    HW255110   3.822   8.728   0.990
51091SOL     OW55111   6.717  10.595   7.686
51091SOL    HW155112   6.669  10.580   7.767
51091SOL    HW255113   6.730  10.690   7.682
51092SOL     OW55114  11.022  14.660  13.843
51092SOL    HW155115  11.102  14.704  13.814
51092SOL    HW255116  10.985  14.718  13.909
51093SOL     OW55117   1.065   8.382  10.412
51093SOL    HW155118   1.107   8.434  10.481
51093SOL    HW255119   1.135   8.368  10.348
51094SOL     OW55120   1.607   7.036   0.452
51094SOL    HW155121   1.608   6.968   0.520
51094SOL    HW255122   1.626   6.990   0.371
51095SOL     OW55123   1.276   8.207  11.743
51095SOL    HW155124   1.188   8.171  11.753
51095SOL    HW255125   1.328   8.135  11.708
51096SOL     OW55126  11.721   8.439  14.157
51096SOL    HW155127  11.750   8.529  14.143
51096SOL    HW255128  11.656   8.445  14.228
51097SOL     OW55129   4.429   1.160  11.396
51097SOL    HW155130   4.341   1.196  11.409
51097SOL    HW255131   4.477   1.230  11.352
51098SOL     OW55132  14.797   4.109   6.501
51098SOL    HW155133  14.702   4.124   6.507
51098SOL    HW255134  14.805   4.014   6.493
51099SOL     OW55135  10.188   8.258   3.385
51099SOL    HW155136  10.127   8.296   3.448
51099SOL    HW255137  10.201   8.168   3.415
51100SOL     OW55138  10.113   8.612  11.876
51100SOL    HW155139  10.051   8.684  11.887
51100SOL    HW255140  10.087   8.548  11.943
51101SOL     OW55141   1.108   2.027   2.414
51101SOL    HW155142   1.107   1.990   2.326
51101SOL    HW255143   1.104   2.122   2.401
51102SOL     OW55144  13.768  10.504   3.729
51102SOL    HW155145  13.674  10.519   3.719
51102SOL    HW255146  13.788  10.437   3.664
51103SOL     OW55147   7.251  10.562   0.928
51103SOL    HW155148   7.248  10.576   1.023
51103SOL    HW255149   7.292  10.641   0.894
51104SOL     OW55150   5.948  12.824   9.774
51104SOL    HW155151   5.955  12.904   9.721
51104SOL    HW255152   6.037  12.789   9.776
51105SOL     OW55153  13.115  13.922   6.629
51105SOL    HW155154  13.036  13.970   6.603
51105SOL    HW255155  13.094  13.887   6.716
51106SOL     OW55156   4.768  11.416   6.445
51106SOL    HW155157   4.847  11.377   6.482
51106SOL    HW255158   4.700  11.399   6.511
51107SOL     OW55159   3.967   7.992  13.585
51107SOL    HW155160   3.968   7.898  13.568
51107SOL    HW255161   4.049   8.025  13.549
51108SOL     OW55162   2.208   4.251   2.685
51108SOL    HW155163   2.214   4.324   2.623
51108SOL    HW255164   2.132   4.201   2.656
51109SOL     OW55165  11.309  12.578   2.549
51109SOL    HW155166  11.386  12.570   2.606
51109SOL    HW255167  11.235  12.581   2.609
51110SOL     OW55168   1.390   5.948   3.120
51110SOL    HW155169   1.359   6.004   3.048
51110SOL    HW255170   1.401   6.008   3.194
51111SOL     OW55171  13.389  10.965  14.117
51111SOL    HW155172  13.414  10.947  14.208
51111SOL    HW255173  13.365  10.879  14.081
51112SOL     OW55174   4.767  11.639   2.858
51112SOL    HW155175   4.744  11.572   2.795
51112SOL    HW255176   4.787  11.591   2.939
51113SOL     OW55177   0.819   7.810   7.775
51113SOL    HW155178   0.748   7.863   7.811
51113SOL    HW255179   0.790   7.788   7.687
51114SOL     OW55180  10.277   4.271  12.546
51114SOL    HW155181  10.295   4.195  12.602
51114SOL    HW255182  10.313   4.246  12.461
51115SOL     OW55183  13.129   7.019   0.270
51115SOL    HW155184  13.152   7.053   0.357
51115SOL    HW255185  13.101   7.096   0.221
51116SOL     OW55186  11.206  14.386   8.886
51116SOL    HW155187  11.169  14.420   8.968
51116SOL    HW255188  11.300  14.403   8.894
51117SOL     OW55189   5.392   2.436   8.615
51117SOL    HW155190   5.356   2.395   8.537
51117SOL    HW255191   5.420   2.363   8.670
51118SOL     OW55192   0.292   9.805   9.500
51118SOL    HW155193   0.205   9.814   9.462
51118SOL    HW255194   0.308   9.711   9.503
51119SOL     OW55195   9.690   3.852   7.506
51119SOL    HW155196   9.659   3.796   7.435
51119SOL    HW255197   9.632   3.833   7.579
51120SOL     OW55198   0.373  10.288   4.257
51120SOL    HW155199   0.340  10.217   4.201
51120SOL    HW255200   0.468  10.277   4.256
51121SOL     OW55201   4.739   5.207   1.152
51121SOL    HW155202   4.743   5.303   1.146
51121SOL    HW255203   4.657   5.190   1.198
51122SOL     OW55204  12.315   0.464   0.036
51122SOL    HW155205  12.250   0.486  14.845
51122SOL    HW255206  12.371   0.399  14.870
51123SOL     OW55207   8.117   4.712   3.769
51123SOL    HW155208   8.114   4.793   3.719
51123SOL    HW255209   8.033   4.670   3.753
51124SOL     OW55210   5.597   4.403   0.967
51124SOL    HW155211   5.685   4.438   0.979
51124SOL    HW255212   5.539   4.473   0.997
51125SOL     OW55213  11.644   8.025   0.286
51125SOL    HW155214  11.618   7.952   0.230
51125SOL    HW255215  11.626   7.995   0.375
51126SOL     OW55216  14.437  14.381   2.689
51126SOL    HW155217  14.513  14.342   2.646
51126SOL    HW255218  14.454  14.371   2.782
51127SOL     OW55219   4.347   0.077  10.368
51127SOL    HW155220   4.441   0.066  10.386
51127SOL    HW255221   4.336   0.172  10.355
51128SOL     OW55222   4.176  14.039   1.063
51128SOL    HW155223   4.114  14.036   0.990
51128SOL    HW255224   4.233  13.964   1.049
51129SOL     OW55225   8.112   8.641  12.047
51129SOL    HW155226   8.191   8.593  12.072
51129SOL    HW255227   8.040   8.581  12.069
51130SOL     OW55228   9.893  10.713   0.177
51130SOL    HW155229   9.878  10.694   0.084
51130SOL    HW255230   9.905  10.808   0.179
51131SOL     OW55231  13.505   1.413   2.412
51131SOL    HW155232  13.520   1.476   2.341
51131SOL    HW255233  13.441   1.457   2.469
51132SOL     OW55234  12.809   8.309   7.294
51132SOL    HW155235  12.746   8.361   7.244
51132SOL    HW255236  12.889   8.311   7.241
51133SOL     OW55237   5.851  10.997   7.804
51133SOL    HW155238   5.931  10.951   7.781
51133SOL    HW255239   5.844  11.067   7.738
51134SOL     OW55240   8.141   6.893   4.086
51134SOL    HW155241   8.171   6.972   4.131
51134SOL    HW255242   8.216   6.866   4.033
51135SOL     OW55243  13.074   6.391   5.746
51135SOL    HW155244  13.072   6.341   5.665
51135SOL    HW255245  13.077   6.483   5.718
51136SOL     OW55246   7.433  10.484   6.382
51136SOL    HW155247   7.440  10.516   6.472
51136SOL    HW255248   7.347  10.442   6.379
51137SOL     OW55249  14.670  11.020   2.794
51137SOL    HW155250  14.592  11.024   2.738
51137SOL    HW255251  14.706  11.109   2.791
51138SOL     OW55252   1.020   1.389   8.900
51138SOL    HW155253   1.062   1.457   8.847
51138SOL    HW255254   0.926   1.402   8.886
51139SOL     OW55255  14.036   8.658   2.986
51139SOL    HW155256  13.994   8.632   2.904
51139SOL    HW255257  13.997   8.603   3.053
51140SOL     OW55258   4.595  13.277   9.539
51140SOL    HW155259   4.665  13.212   9.549
51140SOL    HW255260   4.534  13.257   9.610
51141SOL     OW55261   3.897   0.705   1.434
51141SOL    HW155262   3.870   0.614   1.444
51141SOL    HW255263   3.970   0.702   1.373
51142SOL     OW55264   4.372   3.668   6.932
51142SOL    HW155265   4.295   3.629   6.973
51142SOL    HW255266   4.406   3.598   6.875
51143SOL     OW55267   5.558   1.318   8.534
51143SOL    HW155268   5.511   1.318   8.617
51143SOL    HW255269   5.570   1.225   8.513
51144SOL     OW55270   2.470   0.652  10.360
51144SOL    HW155271   2.507   0.639  10.273
51144SOL    HW255272   2.448   0.564  10.391
51145SOL     OW55273   1.524   7.892   3.009
51145SOL    HW155274   1.604   7.840   3.011
51145SOL    HW255275   1.509   7.910   2.916
51146SOL     OW55276  12.904   6.113   0.112
51146SOL    HW155277  12.938   6.116   0.201
51146SOL    HW255278  12.983   6.106   0.057
51147SOL     OW55279   5.838   4.316  10.770
51147SOL    HW155280   5.843   4.383  10.837
51147SOL    HW255281   5.852   4.362  10.687
51148SOL     OW55282  11.812   9.929   8.183
51148SOL    HW155283  11.848   9.903   8.098
51148SOL    HW255284  11.719   9.944   8.165
51149SOL     OW55285   1.287   7.973   0.816
51149SOL    HW155286   1.227   8.043   0.792
51149SOL    HW255287   1.370   8.019   0.835
51150SOL     OW55288  11.344  11.883  10.944
51150SOL    HW155289  11.340  11.868  11.038
51150SOL    HW255290  11.393  11.809  10.909
51151SOL     OW55291   8.907  12.618   3.561
51151SOL    HW155292   8.841  12.627   3.630
51151SOL    HW255293   8.892  12.692   3.503
51152SOL     OW55294   0.518   5.277   3.532
51152SOL    HW155295   0.587   5.213   3.512
51152SOL    HW255296   0.443   5.248   3.481
51153SOL     OW55297   1.819   8.896   6.111
51153SOL    HW155298   1.728   8.907   6.138
51153SOL    HW255299   1.853   8.826   6.166
51154SOL     OW55300  11.616   8.525   7.957
51154SOL    HW155301  11.583   8.447   7.913
51154SOL    HW255302  11.628   8.498   8.048
51155SOL     OW55303   5.905   1.809  10.102
51155SOL    HW155304   5.909   1.717  10.125
51155SOL    HW255305   5.818   1.821  10.063
51156SOL     OW55306   1.553   5.933  14.185
51156SOL    HW155307   1.489   5.891  14.128
51156SOL    HW255308   1.638   5.908  14.148
51157SOL     OW55309   6.170   8.912   2.452
51157SOL    HW155310   6.237   8.965   2.495
51157SOL    HW255311   6.111   8.975   2.410
51158SOL     OW55312   9.200  13.621  13.256
51158SOL    HW155313   9.143  13.545  13.270
51158SOL    HW255314   9.139  13.693  13.237
51159SOL     OW55315   1.634   8.362  10.635
51159SOL    HW155316   1.676   8.435  10.680
51159SOL    HW255317   1.578   8.404  10.570
51160SOL     OW55318   1.912  14.729   1.572
51160SOL    HW155319   1.853  14.737   1.497
51160SOL    HW255320   1.988  14.682   1.538
51161SOL     OW55321   1.641  11.087   4.482
51161SOL    HW155322   1.558  11.132   4.499
51161SOL    HW255323   1.620  11.027   4.410
51162SOL     OW55324   0.549   9.326   9.950
51162SOL    HW155325   0.561   9.409   9.903
51162SOL    HW255326   0.603   9.334  10.028
51163SOL     OW55327   1.219   0.427   8.661
51163SOL    HW155328   1.303   0.414   8.618
51163SOL    HW255329   1.198   0.342   8.699
51164SOL     OW55330   9.641   4.586   7.399
51164SOL    HW155331   9.637   4.667   7.451
51164SOL    HW255332   9.656   4.616   7.310
51165SOL     OW55333   0.483   8.476   6.997
51165SOL    HW155334   0.574   8.499   7.016
51165SOL    HW255335   0.474   8.388   7.033
51166SOL     OW55336   5.780  11.430   1.747
51166SOL    HW155337   5.785  11.475   1.832
51166SOL    HW255338   5.819  11.492   1.685
51167SOL     OW55339   2.504   8.122   5.936
51167SOL    HW155340   2.454   8.098   5.858
51167SOL    HW255341   2.590   8.084   5.922
51168SOL     OW55342   5.594  13.025  10.237
51168SOL    HW155343   5.641  13.056  10.159
51168SOL    HW255344   5.622  13.083  10.307
51169SOL     OW55345   7.105  11.824  13.607
51169SOL    HW155346   7.112  11.743  13.558
51169SOL    HW255347   7.062  11.799  13.689
51170SOL     OW55348   6.328   1.546   8.946
51170SOL    HW155349   6.365   1.616   8.893
51170SOL    HW255350   6.326   1.581   9.035
51171SOL     OW55351  14.019  12.597  12.450
51171SOL    HW155352  14.092  12.535  12.459
51171SOL    HW255353  13.942  12.548  12.480
51172SOL     OW55354  12.350   9.575  10.511
51172SOL    HW155355  12.379   9.505  10.454
51172SOL    HW255356  12.413   9.646  10.497
51173SOL     OW55357   3.984  13.125   7.556
51173SOL    HW155358   3.982  13.127   7.651
51173SOL    HW255359   4.070  13.159   7.532
51174SOL     OW55360  10.720   8.972   5.769
51174SOL    HW155361  10.660   9.046   5.770
51174SOL    HW255362  10.736   8.955   5.676
51175SOL     OW55363   3.906   1.441  11.077
51175SOL    HW155364   3.926   1.504  11.146
51175SOL    HW255365   3.977   1.377  11.081
51176SOL     OW55366  13.893   4.363  11.989
51176SOL    HW155367  13.941   4.384  12.069
51176SOL    HW255368  13.894   4.267  11.986
51177SOL     OW55369  10.516  11.368   0.088
51177SOL    HW155370  10.541  11.408   0.005
51177SOL    HW255371  10.511  11.441   0.150
51178SOL     OW55372   6.661  14.038   5.007
51178SOL    HW155373   6.680  14.119   5.056
51178SOL    HW255374   6.574  14.012   5.039
51179SOL     OW55375  13.567  11.164   3.018
51179SOL    HW155376  13.476  11.139   3.001
51179SOL    HW255377  13.563  11.217   3.097
51180SOL     OW55378  13.002   6.913   8.130
51180SOL    HW155379  13.064   6.886   8.063
51180SOL    HW255380  12.969   6.998   8.100
51181SOL     OW55381  14.381  11.098   9.615
51181SOL    HW155382  14.463  11.050   9.604
51181SOL    HW255383  14.391  11.147   9.696
51182SOL     OW55384  13.470   2.351  14.385
51182SOL    HW155385  13.513   2.266  14.382
51182SOL    HW255386  13.515   2.403  14.319
51183SOL     OW55387   5.637  11.789   0.234
51183SOL    HW155388   5.642  11.752   0.147
51183SOL    HW255389   5.548  11.826   0.239
51184SOL     OW55390   3.453  14.739   8.851
51184SOL    HW155391   3.527  14.682   8.829
51184SOL    HW255392   3.452  14.805   8.781
51185SOL     OW55393  10.311   9.390   0.130
51185SOL    HW155394  10.268   9.340   0.061
51185SOL    HW255395  10.315   9.329   0.204
51186SOL     OW55396  11.671   6.639   0.200
51186SOL    HW155397  11.672   6.618   0.293
51186SOL    HW255398  11.722   6.720   0.193
51187SOL     OW55399  10.693   0.668   0.680
51187SOL    HW155400  10.748   0.727   0.731
51187SOL    HW255401  10.728   0.581   0.698
51188SOL     OW55402   8.429  11.380  14.538
51188SOL    HW155403   8.403  11.394  14.629
51188SOL    HW255404   8.421  11.466  14.497
51189SOL     OW55405   2.162  14.547  13.876
51189SOL    HW155406   2.176  14.641  13.881
51189SOL    HW255407   2.237  14.514  13.827
51190SOL     OW55408   8.256   6.954   6.620
51190SOL    HW155409   8.218   7.042   6.620
51190SOL    HW255410   8.226   6.915   6.538
51191SOL     OW55411   8.891   4.169   4.713
51191SOL    HW155412   8.818   4.208   4.760
51191SOL    HW255413   8.914   4.234   4.646
51192SOL     OW55414  14.614  11.508   6.747
51192SOL    HW155415  14.613  11.594   6.707
51192SOL    HW255416  14.601  11.447   6.674
51193SOL     OW55417  11.837   0.715   7.296
51193SOL    HW155418  11.885   0.682   7.372
51193SOL    HW255419  11.755   0.748   7.331
51194SOL     OW55420  10.960   0.416   2.370
51194SOL    HW155421  10.954   0.497   2.419
51194SOL    HW255422  10.903   0.430   2.294
51195SOL     OW55423   8.263  14.784   8.942
51195SOL    HW155424   8.283  14.827   9.025
51195SOL    HW255425   8.169  14.801   8.929
51196SOL     OW55426   7.300   6.520  13.325
51196SOL    HW155427   7.214   6.548  13.358
51196SOL    HW255428   7.283   6.493  13.234
51197SOL     OW55429  12.035  12.483   9.321
51197SOL    HW155430  12.057  12.568   9.284
51197SOL    HW255431  12.120  12.440   9.334
51198SOL     OW55432  14.730   2.157   0.956
51198SOL    HW155433  14.662   2.154   1.023
51198SOL    HW255434  14.682   2.151   0.873
51199SOL     OW55435   9.428   8.878  13.053
51199SOL    HW155436   9.416   8.783  13.059
51199SOL    HW255437   9.340   8.914  13.062
51200SOL     OW55438   9.255   6.092  11.464
51200SOL    HW155439   9.306   6.021  11.502
51200SOL    HW255440   9.282   6.096  11.373
51201SOL     OW55441   4.266   9.364  11.337
51201SOL    HW155442   4.327   9.404  11.399
51201SOL    HW255443   4.256   9.274  11.369
51202SOL     OW55444   3.953  11.428   5.483
51202SOL    HW155445   3.873  11.473   5.512
51202SOL    HW255446   4.024  11.471   5.531
51203SOL     OW55447   4.157   1.270   9.624
51203SOL    HW155448   4.190   1.294   9.538
51203SOL    HW255449   4.221   1.207   9.657
51204SOL     OW55450   9.362  14.078   7.714
51204SOL    HW155451   9.437  14.024   7.736
51204SOL    HW255452   9.389  14.167   7.736
51205SOL     OW55453   6.706  10.519  11.388
51205SOL    HW155454   6.724  10.457  11.317
51205SOL    HW255455   6.617  10.549  11.371
51206SOL     OW55456   6.065  11.048  11.108
51206SOL    HW155457   6.003  11.098  11.161
51206SOL    HW255458   6.012  10.981  11.065
51207SOL     OW55459   8.304  14.157  11.289
51207SOL    HW155460   8.352  14.145  11.207
51207SOL    HW255461   8.285  14.250  11.293
51208SOL     OW55462   8.777  14.640   5.104
51208SOL    HW155463   8.784  14.579   5.177
51208SOL    HW255464   8.862  14.636   5.061
51209SOL     OW55465   2.704   6.076   9.204
51209SOL    HW155466   2.665   6.112   9.284
51209SOL    HW255467   2.727   5.986   9.227
51210SOL     OW55468   5.681   3.861   1.007
51210SOL    HW155469   5.605   3.805   1.020
51210SOL    HW255470   5.655   3.945   1.046
51211SOL     OW55471  10.868   8.886   5.527
51211SOL    HW155472  10.805   8.814   5.525
51211SOL    HW255473  10.937   8.857   5.586
51212SOL     OW55474   1.634  14.181  12.556
51212SOL    HW155475   1.646  14.214  12.467
51212SOL    HW255476   1.544  14.147  12.557
51213SOL     OW55477   1.481   7.436   1.234
51213SOL    HW155478   1.485   7.527   1.204
51213SOL    HW255479   1.562   7.396   1.201
51214SOL     OW55480  14.395   9.059   1.764
51214SOL    HW155481  14.312   9.047   1.717
51214SOL    HW255482  14.439   8.975   1.756
51215SOL     OW55483   5.097   4.239   8.545
51215SOL    HW155484   5.165   4.260   8.610
51215SOL    HW255485   5.101   4.144   8.536
51216SOL     OW55486  12.271  10.135  11.972
51216SOL    HW155487  12.242  10.114  11.883
51216SOL    HW255488  12.237  10.223  11.987
51217SOL     OW55489  10.513   9.334   6.937
51217SOL    HW155490  10.533   9.246   6.970
51217SOL    HW255491  10.596   9.381   6.941
51218SOL     OW55492   6.699   1.664   6.991
51218SOL    HW155493   6.730   1.738   7.044
51218SOL    HW255494   6.741   1.677   6.906
51219SOL     OW55495   7.554   1.732   3.596
51219SOL    HW155496   7.647   1.743   3.575
51219SOL    HW255497   7.552   1.718   3.691
51220SOL     OW55498   5.714  11.559   7.194
51220SOL    HW155499   5.660  11.557   7.115
51220SOL    HW255500   5.804  11.569   7.162
51221SOL     OW55501  12.481  14.485   7.851
51221SOL    HW155502  12.458  14.573   7.881
51221SOL    HW255503  12.412  14.428   7.885
51222SOL     OW55504  10.899   4.401   4.962
51222SOL    HW155505  10.809   4.388   4.930
51222SOL    HW255506  10.907   4.340   5.036
51223SOL     OW55507   0.002   0.279  11.027
51223SOL    HW155508   0.006   0.280  10.931
51223SOL    HW255509   0.025   0.368  11.054
51224SOL     OW55510  14.157  14.189  13.194
51224SOL    HW155511  14.174  14.155  13.106
51224SOL    HW255512  14.162  14.112  13.250
51225SOL     OW55513   1.257  12.464  14.557
51225SOL    HW155514   1.318  12.502  14.493
51225SOL    HW255515   1.309  12.397  14.602
51226SOL     OW55516   5.493  14.138   8.083
51226SOL    HW155517   5.435  14.084   8.030
51226SOL    HW255518   5.453  14.137   8.170
51227SOL     OW55519  13.450   3.248  12.201
51227SOL    HW155520  13.514   3.206  12.259
51227SOL    HW255521  13.425   3.328  12.247
51228SOL     OW55522   6.023   5.127   1.846
51228SOL    HW155523   5.999   5.035   1.855
51228SOL    HW255524   5.969   5.173   1.910
51229SOL     OW55525   7.141   8.270  14.077
51229SOL    HW155526   7.081   8.240  14.146
51229SOL    HW255527   7.228   8.249  14.112
51230SOL     OW55528   8.400  12.970  13.346
51230SOL    HW155529   8.337  12.970  13.419
51230SOL    HW255530   8.348  12.945  13.270
51231SOL     OW55531   2.374   9.587  13.561
51231SOL    HW155532   2.453   9.640  13.564
51231SOL    HW255533   2.320   9.620  13.633
51232SOL     OW55534   9.164   9.683   5.175
51232SOL    HW155535   9.098   9.703   5.242
51232SOL    HW255536   9.192   9.594   5.195
51233SOL     OW55537   2.503   3.222   5.545
51233SOL    HW155538   2.423   3.247   5.591
51233SOL    HW255539   2.510   3.284   5.472
51234SOL     OW55540   5.095   6.203  10.444
51234SOL    HW155541   5.105   6.133  10.509
51234SOL    HW255542   5.028   6.260  10.481
51235SOL     OW55543   7.330   8.280  11.638
51235SOL    HW155544   7.303   8.189  11.650
51235SOL    HW255545   7.318   8.320  11.724
51236SOL     OW55546  13.911  10.234   1.220
51236SOL    HW155547  13.942  10.193   1.301
51236SOL    HW255548  13.815  10.234   1.229
51237SOL     OW55549  13.747   8.340  13.897
51237SOL    HW155550  13.825   8.395  13.904
51237SOL    HW255551  13.684   8.392  13.847
51238SOL     OW55552   8.461  12.925   0.960
51238SOL    HW155553   8.542  12.977   0.965
51238SOL    HW255554   8.491  12.834   0.961
51239SOL     OW55555   9.578   8.651   7.257
51239SOL    HW155556   9.669   8.622   7.260
51239SOL    HW255557   9.535   8.602   7.326
51240SOL     OW55558   9.224   9.533   4.243
51240SOL    HW155559   9.218   9.606   4.303
51240SOL    HW255560   9.312   9.497   4.257
51241SOL     OW55561  12.951   9.724  11.528
51241SOL    HW155562  12.867   9.686  11.554
51241SOL    HW255563  13.009   9.649  11.515
51242SOL     OW55564   3.621  10.078  10.486
51242SOL    HW155565   3.559  10.007  10.506
51242SOL    HW255566   3.699  10.033  10.452
51243SOL     OW55567   4.968   6.301  10.663
51243SOL    HW155568   5.059   6.333  10.661
51243SOL    HW255569   4.963   6.249  10.743
51244SOL     OW55570   8.847  11.846  12.956
51244SOL    HW155571   8.893  11.766  12.930
51244SOL    HW255572   8.799  11.872  12.877
51245SOL     OW55573   6.620   3.448  11.903
51245SOL    HW155574   6.672   3.421  11.979
51245SOL    HW255575   6.685   3.481  11.841
51246SOL     OW55576   2.049   7.004   3.191
51246SOL    HW155577   2.044   6.975   3.282
51246SOL    HW255578   1.972   6.966   3.149
51247SOL     OW55579  14.186   3.738   4.511
51247SOL    HW155580  14.210   3.814   4.564
51247SOL    HW255581  14.112   3.769   4.458
51248SOL     OW55582   7.532  14.798  13.729
51248SOL    HW155583   7.589  14.861  13.686
51248SOL    HW255584   7.444  14.820  13.699
51249SOL     OW55585  14.470   7.701   0.983
51249SOL    HW155586  14.437   7.707   0.893
51249SOL    HW255587  14.392   7.707   1.038
51250SOL     OW55588  12.337  13.394   8.397
51250SOL    HW155589  12.342  13.348   8.480
51250SOL    HW255590  12.400  13.349   8.341
51251SOL     OW55591   2.048  10.190  11.668
51251SOL    HW155592   2.125  10.209  11.721
51251SOL    HW255593   1.991  10.266  11.681
51252SOL     OW55594   1.631   6.276   6.187
51252SOL    HW155595   1.616   6.209   6.121
51252SOL    HW255596   1.581   6.352   6.156
51253SOL     OW55597   0.491   5.001   8.207
51253SOL    HW155598   0.492   5.033   8.298
51253SOL    HW255599   0.444   5.068   8.158
51254SOL     OW55600   7.849   3.637  13.576
51254SOL    HW155601   7.825   3.548  13.551
51254SOL    HW255602   7.807   3.650  13.661
51255SOL     OW55603   1.738   1.576  12.001
51255SOL    HW155604   1.807   1.559  11.936
51255SOL    HW255605   1.663   1.605  11.948
51256SOL     OW55606  13.117   1.294   1.454
51256SOL    HW155607  13.201   1.253   1.435
51256SOL    HW255608  13.112   1.367   1.392
51257SOL     OW55609  11.907   8.442  13.686
51257SOL    HW155610  11.886   8.371  13.747
51257SOL    HW255611  12.002   8.452  13.694
51258SOL     OW55612  11.160   7.210   0.142
51258SOL    HW155613  11.224   7.206   0.071
51258SOL    HW255614  11.182   7.290   0.190
51259SOL     OW55615  11.685   6.725   8.644
51259SOL    HW155616  11.777   6.738   8.669
51259SOL    HW255617  11.635   6.776   8.708
51260SOL     OW55618   8.323   3.810  13.606
51260SOL    HW155619   8.256   3.750  13.573
51260SOL    HW255620   8.275   3.866  13.669
51261SOL     OW55621   2.277   5.063   9.803
51261SOL    HW155622   2.281   5.156   9.823
51261SOL    HW255623   2.335   5.022   9.867
51262SOL     OW55624   3.310   8.215   5.001
51262SOL    HW155625   3.267   8.295   4.969
51262SOL    HW255626   3.238   8.154   5.017
51263SOL     OW55627   1.011   0.535  13.862
51263SOL    HW155628   1.067   0.457  13.867
51263SOL    HW255629   0.982   0.550  13.951
51264SOL     OW55630   5.476   7.049  11.731
51264SOL    HW155631   5.565   7.071  11.759
51264SOL    HW255632   5.484   7.030  11.637
51265SOL     OW55633   8.662  11.968   0.734
51265SOL    HW155634   8.714  11.906   0.682
51265SOL    HW255635   8.645  11.922   0.816
51266SOL     OW55636   6.382  14.069   1.156
51266SOL    HW155637   6.356  14.106   1.240
51266SOL    HW255638   6.439  13.996   1.179
51267SOL     OW55639   6.751  11.689   1.310
51267SOL    HW155640   6.698  11.768   1.302
51267SOL    HW255641   6.782  11.690   1.401
51268SOL     OW55642   9.847   4.096   6.408
51268SOL    HW155643   9.848   4.003   6.429
51268SOL    HW255644   9.934   4.114   6.374
51269SOL     OW55645   4.980   0.878   8.666
51269SOL    HW155646   4.903   0.863   8.721
51269SOL    HW255647   4.978   0.807   8.602
51270SOL     OW55648  12.140   7.037   9.644
51270SOL    HW155649  12.232   7.016   9.660
51270SOL    HW255650  12.136   7.133   9.647
51271SOL     OW55651  13.321  10.446  11.167
51271SOL    HW155652  13.379  10.515  11.202
51271SOL    HW255653  13.363  10.419  11.086
51272SOL     OW55654   9.283   9.398  13.725
51272SOL    HW155655   9.283   9.466  13.793
51272SOL    HW255656   9.289   9.447  13.643
51273SOL     OW55657   4.161   5.768   4.323
51273SOL    HW155658   4.211   5.723   4.391
51273SOL    HW255659   4.081   5.716   4.313
51274SOL     OW55660   2.252   4.204   6.782
51274SOL    HW155661   2.263   4.129   6.724
51274SOL    HW255662   2.281   4.280   6.730
51275SOL     OW55663   1.328   0.763   2.045
51275SOL    HW155664   1.326   0.858   2.049
51275SOL    HW255665   1.274   0.741   1.969
51276SOL     OW55666   9.449   2.632   5.148
51276SOL    HW155667   9.541   2.640   5.174
51276SOL    HW255668   9.402   2.624   5.231
51277SOL     OW55669   6.120   0.639   6.596
51277SOL    HW155670   6.148   0.729   6.613
51277SOL    HW255671   6.082   0.642   6.509
51278SOL     OW55672   4.616   7.718   1.689
51278SOL    HW155673   4.674   7.750   1.620
51278SOL    HW255674   4.665   7.732   1.770
51279SOL     OW55675   9.341   3.613  14.529
51279SOL    HW155676   9.415   3.612  14.468
51279SOL    HW255677   9.345   3.528  14.573
51280SOL     OW55678   6.550   1.471   2.629
51280SOL    HW155679   6.640   1.452   2.656
51280SOL    HW255680   6.516   1.531   2.695
51281SOL     OW55681   4.073  12.138   8.427
51281SOL    HW155682   4.059  12.183   8.344
51281SOL    HW255683   4.145  12.186   8.468
51282SOL     OW55684   0.316   3.458  11.721
51282SOL    HW155685   0.231   3.418  11.703
51282SOL    HW255686   0.316   3.473  11.815
51283SOL     OW55687   7.836  10.632   9.787
51283SOL    HW155688   7.908  10.580   9.823
51283SOL    HW255689   7.770  10.568   9.762
51284SOL     OW55690  14.210  10.165   9.227
51284SOL    HW155691  14.268  10.095   9.197
51284SOL    HW255692  14.269  10.237   9.250
51285SOL     OW55693  11.111   1.797  13.733
51285SOL    HW155694  11.088   1.711  13.698
51285SOL    HW255695  11.101   1.856  13.659
51286SOL     OW55696   1.279   6.582   0.743
51286SOL    HW155697   1.250   6.536   0.822
51286SOL    HW255698   1.199   6.613   0.702
51287SOL     OW55699   0.512  14.128   1.444
51287SOL    HW155700   0.486  14.160   1.531
51287SOL    HW255701   0.584  14.068   1.462
51288SOL     OW55702   8.659   5.595   9.712
51288SOL    HW155703   8.666   5.511   9.756
51288SOL    HW255704   8.747   5.633   9.717
51289SOL     OW55705   6.554   5.595   4.427
51289SOL    HW155706   6.541   5.529   4.359
51289SOL    HW255707   6.473   5.594   4.478
51290SOL     OW55708   3.432   1.751  12.910
51290SOL    HW155709   3.336   1.751  12.907
51290SOL    HW255710   3.458   1.776  12.821
51291SOL     OW55711  13.974   9.655   1.544
51291SOL    HW155712  13.959   9.646   1.450
51291SOL    HW255713  13.909   9.718   1.573
51292SOL     OW55714   0.142   2.556   1.857
51292SOL    HW155715   0.046   2.555   1.859
51292SOL    HW255716   0.167   2.503   1.933
51293SOL     OW55717   4.147   0.330   7.174
51293SOL    HW155718   4.079   0.388   7.141
51293SOL    HW255719   4.206   0.316   7.099
51294SOL     OW55720   4.255   7.429   9.440
51294SOL    HW155721   4.275   7.510   9.393
51294SOL    HW255722   4.299   7.361   9.390
51295SOL     OW55723   2.940  12.192   2.934
51295SOL    HW155724   2.921  12.272   2.885
51295SOL    HW255725   2.863  12.177   2.988
51296SOL     OW55726   3.466   9.744   5.034
51296SOL    HW155727   3.560   9.749   5.052
51296SOL    HW255728   3.427   9.715   5.117
51297SOL     OW55729   9.219   1.531   7.378
51297SOL    HW155730   9.254   1.442   7.386
51297SOL    HW255731   9.237   1.572   7.462
51298SOL     OW55732   3.558   7.680   6.179
51298SOL    HW155733   3.532   7.592   6.152
51298SOL    HW255734   3.505   7.697   6.258
51299SOL     OW55735   0.105  12.317  10.098
51299SOL    HW155736   0.084  12.313  10.191
51299SOL    HW255737   0.022  12.339  10.056
51300SOL     OW55738   1.314  14.136  11.959
51300SOL    HW155739   1.397  14.169  11.926
51300SOL    HW255740   1.274  14.212  12.003
51301SOL     OW55741  10.475   0.160  11.380
51301SOL    HW155742  10.557   0.166  11.429
51301SOL    HW255743  10.492   0.208  11.299
51302SOL     OW55744  14.055   4.269   8.780
51302SOL    HW155745  13.977   4.222   8.809
51302SOL    HW255746  14.061   4.252   8.686
51303SOL     OW55747   1.612  10.916  11.813
51303SOL    HW155748   1.701  10.892  11.787
51303SOL    HW255749   1.569  10.833  11.833
51304SOL     OW55750   5.086   3.458   9.388
51304SOL    HW155751   4.996   3.428   9.403
51304SOL    HW255752   5.133   3.379   9.359
51305SOL     OW55753  11.781  12.969   9.970
51305SOL    HW155754  11.784  13.040  10.034
51305SOL    HW255755  11.774  12.889  10.022
51306SOL     OW55756   0.278   8.112   4.054
51306SOL    HW155757   0.291   8.172   4.127
51306SOL    HW255758   0.365   8.076   4.036
51307SOL     OW55759  12.562   2.320   8.569
51307SOL    HW155760  12.610   2.363   8.497
51307SOL    HW255761  12.470   2.328   8.545
51308SOL     OW55762  12.256   8.981   6.486
51308SOL    HW155763  12.313   8.916   6.525
51308SOL    HW255764  12.243   8.951   6.396
51309SOL     OW55765   4.697   2.565   0.782
51309SOL    HW155766   4.764   2.600   0.841
51309SOL    HW255767   4.661   2.642   0.738
51310SOL     OW55768   8.147   5.887  11.042
51310SOL    HW155769   8.193   5.803  11.041
51310SOL    HW255770   8.212   5.950  11.073
51311SOL     OW55771   1.235   4.883   2.361
51311SOL    HW155772   1.291   4.948   2.317
51311SOL    HW255773   1.241   4.805   2.306
51312SOL     OW55774   7.111   9.042   5.840
51312SOL    HW155775   7.061   8.969   5.804
51312SOL    HW255776   7.076   9.055   5.928
51313SOL     OW55777  13.752   6.858   4.364
51313SOL    HW155778  13.738   6.838   4.457
51313SOL    HW255779  13.771   6.952   4.362
51314SOL     OW55780   6.936   4.248   6.852
51314SOL    HW155781   7.010   4.194   6.880
51314SOL    HW255782   6.890   4.194   6.787
51315SOL     OW55783  13.342   8.759  10.367
51315SOL    HW155784  13.272   8.824  10.374
51315SOL    HW255785  13.297   8.676  10.352
51316SOL     OW55786   2.720   0.505   9.477
51316SOL    HW155787   2.717   0.409   9.480
51316SOL    HW255788   2.691   0.527   9.388
51317SOL     OW55789   2.153   3.104  10.262
51317SOL    HW155790   2.111   3.023  10.232
51317SOL    HW255791   2.139   3.166  10.191
51318SOL     OW55792   4.966   4.932   6.821
51318SOL    HW155793   4.918   4.995   6.767
51318SOL    HW255794   4.905   4.858   6.831
51319SOL     OW55795  14.859   6.665   4.182
51319SOL    HW155796  14.766   6.681   4.190
51319SOL    HW255797  14.866   6.570   4.170
51320SOL     OW55798   6.325   2.512  13.736
51320SOL    HW155799   6.421   2.507  13.738
51320SOL    HW255800   6.300   2.454  13.664
51321SOL     OW55801   8.612  11.514  14.125
51321SOL    HW155802   8.628  11.558  14.042
51321SOL    HW255803   8.619  11.584  14.191
51322SOL     OW55804  13.181   5.555   0.914
51322SOL    HW155805  13.129   5.536   0.836
51322SOL    HW255806  13.120   5.597   0.974
51323SOL     OW55807  12.415   3.638   5.900
51323SOL    HW155808  12.471   3.592   5.963
51323SOL    HW255809  12.344   3.674   5.953
51324SOL     OW55810   6.165   1.118  14.711
51324SOL    HW155811   6.165   1.056  14.638
51324SOL    HW255812   6.111   1.191  14.681
51325SOL     OW55813   5.447   4.190  12.719
51325SOL    HW155814   5.379   4.228  12.774
51325SOL    HW255815   5.423   4.097  12.712
51326SOL     OW55816   3.537  14.328   7.953
51326SOL    HW155817   3.478  14.392   7.914
51326SOL    HW255818   3.548  14.261   7.886
51327SOL     OW55819   1.478   5.603   4.563
51327SOL    HW155820   1.437   5.524   4.526
51327SOL    HW255821   1.414   5.672   4.547
51328SOL     OW55822   9.644   4.843   7.506
51328SOL    HW155823   9.570   4.830   7.565
51328SOL    HW255824   9.691   4.918   7.543
51329SOL     OW55825   9.424  10.693   0.798
51329SOL    HW155826   9.483  10.670   0.869
51329SOL    HW255827   9.368  10.762   0.834
51330SOL     OW55828   7.537   2.771   6.457
51330SOL    HW155829   7.492   2.687   6.446
51330SOL    HW255830   7.478   2.836   6.418
51331SOL     OW55831   5.561   1.090  10.301
51331SOL    HW155832   5.478   1.135  10.312
51331SOL    HW255833   5.560   1.021  10.368
51332SOL     OW55834   6.149  13.738  11.764
51332SOL    HW155835   6.229  13.697  11.733
51332SOL    HW255836   6.178  13.805  11.826
51333SOL     OW55837   4.986   0.617  13.729
51333SOL    HW155838   5.033   0.580  13.804
51333SOL    HW255839   4.974   0.543  13.670
51334SOL     OW55840  14.697   9.479  13.458
51334SOL    HW155841  14.704   9.572  13.436
51334SOL    HW255842  14.772   9.461  13.514
51335SOL     OW55843  11.104  11.395   0.298
51335SOL    HW155844  11.108  11.334   0.225
51335SOL    HW255845  11.180  11.453   0.285
51336SOL     OW55846   4.512   1.130   1.037
51336SOL    HW155847   4.559   1.057   1.078
51336SOL    HW255848   4.529   1.120   0.943
51337SOL     OW55849  11.356   0.941   4.757
51337SOL    HW155850  11.388   0.958   4.668
51337SOL    HW255851  11.314   0.856   4.753
51338SOL     OW55852  10.873   1.325   1.555
51338SOL    HW155853  10.879   1.307   1.649
51338SOL    HW255854  10.859   1.239   1.515
51339SOL     OW55855  14.689   1.599  14.777
51339SOL    HW155856  14.714   1.691  14.782
51339SOL    HW255857  14.612   1.598  14.720
51340SOL     OW55858  11.002  14.341   5.564
51340SOL    HW155859  10.950  14.408   5.609
51340SOL    HW255860  11.090  14.378   5.558
51341SOL     OW55861  13.845   9.161   5.090
51341SOL    HW155862  13.872   9.136   5.178
51341SOL    HW255863  13.921   9.206   5.053
51342SOL     OW55864  14.315   3.714   5.807
51342SOL    HW155865  14.237   3.665   5.781
51342SOL    HW255866  14.337   3.678   5.893
51343SOL     OW55867  12.771   7.566   3.227
51343SOL    HW155868  12.817   7.553   3.309
51343SOL    HW255869  12.778   7.482   3.182
51344SOL     OW55870   2.423   8.585  13.218
51344SOL    HW155871   2.460   8.505  13.256
51344SOL    HW255872   2.477   8.655  13.254
51345SOL     OW55873   8.262   4.628   8.009
51345SOL    HW155874   8.323   4.586   7.949
51345SOL    HW255875   8.199   4.559   8.032
51346SOL     OW55876   8.112  12.558   7.679
51346SOL    HW155877   8.054  12.634   7.690
51346SOL    HW255878   8.157  12.574   7.596
51347SOL     OW55879   4.111   5.028  13.418
51347SOL    HW155880   4.035   4.972  13.433
51347SOL    HW255881   4.126   5.073  13.501
51348SOL     OW55882   5.456   4.049  10.622
51348SOL    HW155883   5.524   4.016  10.563
51348SOL    HW255884   5.473   4.143  10.628
51349SOL     OW55885   6.167   2.838  14.869
51349SOL    HW155886   6.207   2.822   0.078
51349SOL    HW255887   6.187   2.760  14.818
51350SOL     OW55888   6.040   5.954   0.401
51350SOL    HW155889   5.978   5.915   0.463
51350SOL    HW255890   6.076   6.030   0.447
51351SOL     OW55891  10.261   1.168   8.837
51351SOL    HW155892  10.345   1.213   8.822
51351SOL    HW255893  10.209   1.189   8.759
51352SOL     OW55894   8.617  14.713  11.344
51352SOL    HW155895   8.690  14.735  11.401
51352SOL    HW255896   8.636  14.757  11.261
51353SOL     OW55897   9.219  12.169   5.074
51353SOL    HW155898   9.304  12.136   5.103
51353SOL    HW255899   9.187  12.103   5.012
51354SOL     OW55900  14.402   0.803   7.839
51354SOL    HW155901  14.352   0.751   7.775
51354SOL    HW255902  14.450   0.866   7.786
51355SOL     OW55903  10.523   4.945   2.001
51355SOL    HW155904  10.445   4.908   2.042
51355SOL    HW255905  10.592   4.934   2.067
51356SOL     OW55906  12.519   3.818   8.093
51356SOL    HW155907  12.431   3.848   8.070
51356SOL    HW255908  12.541   3.753   8.026
51357SOL     OW55909   0.794   2.444   7.625
51357SOL    HW155910   0.836   2.510   7.681
51357SOL    HW255911   0.704   2.439   7.657
51358SOL     OW55912   7.152   5.662  12.853
51358SOL    HW155913   7.239   5.663  12.812
51358SOL    HW255914   7.093   5.688  12.782
51359SOL     OW55915  14.180  12.454   2.446
51359SOL    HW155916  14.236  12.487   2.516
51359SOL    HW255917  14.175  12.360   2.460
51360SOL     OW55918   9.082   9.013  14.035
51360SOL    HW155919   9.169   8.972  14.038
51360SOL    HW255920   9.100   9.107  14.031
51361SOL     OW55921  10.041  13.463   0.716
51361SOL    HW155922   9.984  13.540   0.703
51361SOL    HW255923   9.982  13.396   0.750
51362SOL     OW55924  11.728   1.276   6.913
51362SOL    HW155925  11.807   1.318   6.946
51362SOL    HW255926  11.657   1.337   6.934
51363SOL     OW55927   8.646   8.052  12.374
51363SOL    HW155928   8.569   8.037  12.320
51363SOL    HW255929   8.720   8.039  12.316
51364SOL     OW55930   4.323  11.596  13.279
51364SOL    HW155931   4.277  11.564  13.202
51364SOL    HW255932   4.272  11.672  13.307
51365SOL     OW55933   7.443  14.405   1.141
51365SOL    HW155934   7.495  14.409   1.061
51365SOL    HW255935   7.483  14.471   1.199
51366SOL     OW55936   3.573   2.248  13.651
51366SOL    HW155937   3.503   2.183  13.662
51366SOL    HW255938   3.653   2.196  13.642
51367SOL     OW55939   3.216  14.558   1.030
51367SOL    HW155940   3.153  14.523   0.967
51367SOL    HW255941   3.168  14.562   1.112
51368SOL     OW55942  13.163   2.037   3.758
51368SOL    HW155943  13.102   2.092   3.807
51368SOL    HW255944  13.131   1.948   3.771
51369SOL     OW55945   2.382   4.730   2.094
51369SOL    HW155946   2.331   4.811   2.098
51369SOL    HW255947   2.474   4.758   2.093
51370SOL     OW55948  13.549  13.893   9.575
51370SOL    HW155949  13.477  13.909   9.635
51370SOL    HW255950  13.628  13.912   9.625
51371SOL     OW55951  13.340   6.182   5.894
51371SOL    HW155952  13.289   6.105   5.866
51371SOL    HW255953  13.363   6.164   5.985
51372SOL     OW55954  11.336   0.613   8.145
51372SOL    HW155955  11.409   0.583   8.200
51372SOL    HW255956  11.309   0.534   8.097
51373SOL     OW55957   7.239  12.773   7.873
51373SOL    HW155958   7.177  12.729   7.814
51373SOL    HW255959   7.316  12.716   7.874
51374SOL     OW55960  12.244  10.507  13.129
51374SOL    HW155961  12.157  10.479  13.158
51374SOL    HW255962  12.304  10.469  13.194
51375SOL     OW55963   6.440   0.792  14.647
51375SOL    HW155964   6.506   0.839  14.698
51375SOL    HW255965   6.423   0.849  14.572
51376SOL     OW55966   1.060  11.001   5.442
51376SOL    HW155967   1.094  11.085   5.410
51376SOL    HW255968   1.138  10.947   5.454
51377SOL     OW55969   6.915  12.478   0.037
51377SOL    HW155970   6.862  12.421   0.092
51377SOL    HW255971   7.005  12.461   0.064
51378SOL     OW55972   5.194   4.313  12.792
51378SOL    HW155973   5.099   4.317  12.781
51378SOL    HW255974   5.228   4.385  12.740
51379SOL     OW55975   7.219   3.349   7.707
51379SOL    HW155976   7.243   3.416   7.642
51379SOL    HW255977   7.283   3.280   7.694
51380SOL     OW55978   2.836  12.192   1.417
51380SOL    HW155979   2.922  12.199   1.458
51380SOL    HW255980   2.792  12.122   1.465
51381SOL     OW55981   8.543  11.571   5.992
51381SOL    HW155982   8.592  11.545   6.070
51381SOL    HW255983   8.464  11.612   6.027
51382SOL     OW55984   4.879  13.076   9.636
51382SOL    HW155985   4.882  12.989   9.677
51382SOL    HW255986   4.928  13.132   9.696
51383SOL     OW55987   7.929  10.137   5.334
51383SOL    HW155988   8.018  10.157   5.361
51383SOL    HW255989   7.937  10.112   5.242
51384SOL     OW55990  14.520   0.374   4.548
51384SOL    HW155991  14.588   0.423   4.595
51384SOL    HW255992  14.565   0.298   4.512
51385SOL     OW55993   9.772   1.561   2.056
51385SOL    HW155994   9.859   1.544   2.020
51385SOL    HW255995   9.784   1.635   2.115
51386SOL     OW55996  10.451   1.916  11.335
51386SOL    HW155997  10.454   1.826  11.368
51386SOL    HW255998  10.397   1.963  11.398
51387SOL     OW55999   6.106   6.806   8.233
51387SOL    HW156000   6.138   6.893   8.258
51387SOL    HW256001   6.030   6.791   8.290
51388SOL     OW56002  10.455  10.705   6.467
51388SOL    HW156003  10.543  10.725   6.433
51388SOL    HW256004  10.469  10.686   6.559
51389SOL     OW56005   9.984   5.360   2.019
51389SOL    HW156006  10.017   5.444   1.985
51389SOL    HW256007   9.948   5.316   1.942
51390SOL     OW56008   4.721   5.278   8.971
51390SOL    HW156009   4.686   5.315   8.890
51390SOL    HW256010   4.767   5.199   8.944
51391SOL     OW56011   1.818   9.005   4.267
51391SOL    HW156012   1.804   9.036   4.357
51391SOL    HW256013   1.903   9.041   4.242
51392SOL     OW56014   2.382   2.092   8.423
51392SOL    HW156015   2.397   1.998   8.432
51392SOL    HW256016   2.425   2.116   8.342
51393SOL     OW56017   3.847   3.917  11.007
51393SOL    HW156018   3.935   3.947  10.985
51393SOL    HW256019   3.853   3.890  11.098
51394SOL     OW56020   5.589   6.914  12.363
51394SOL    HW156021   5.587   6.946  12.273
51394SOL    HW256022   5.669   6.951  12.400
51395SOL     OW56023   1.697  14.090  14.866
51395SOL    HW156024   1.783  14.099   0.030
51395SOL    HW256025   1.712  14.106  14.773
51396SOL     OW56026  10.272   8.127   6.481
51396SOL    HW156027  10.349   8.113   6.536
51396SOL    HW256028  10.203   8.077   6.523
51397SOL     OW56029   0.879   6.291   5.272
51397SOL    HW156030   0.924   6.296   5.188
51397SOL    HW256031   0.941   6.326   5.335
51398SOL     OW56032   5.887   1.719  11.057
51398SOL    HW156033   5.977   1.723  11.088
51398SOL    HW256034   5.843   1.663  11.121
51399SOL     OW56035   8.935   9.883  11.819
51399SOL    HW156036   8.873   9.812  11.803
51399SOL    HW256037   9.007   9.843  11.867
51400SOL     OW56038  13.948   9.151   2.094
51400SOL    HW156039  13.897   9.231   2.084
51400SOL    HW256040  14.029   9.169   2.047
51401SOL     OW56041   3.479   1.896   2.396
51401SOL    HW156042   3.564   1.896   2.441
51401SOL    HW256043   3.498   1.932   2.309
51402SOL     OW56044  11.305   4.716  11.892
51402SOL    HW156045  11.215   4.749  11.887
51402SOL    HW256046  11.357   4.780  11.843
51403SOL     OW56047   7.203  14.303  10.365
51403SOL    HW156048   7.124  14.342  10.402
51403SOL    HW256049   7.209  14.339  10.277
51404SOL     OW56050   1.889   5.999  13.811
51404SOL    HW156051   1.919   6.037  13.893
51404SOL    HW256052   1.964   5.948  13.780
51405SOL     OW56053   6.789   8.940   1.987
51405SOL    HW156054   6.842   9.018   1.967
51405SOL    HW256055   6.709   8.975   2.027
51406SOL     OW56056   7.656  14.011  10.385
51406SOL    HW156057   7.706  14.006  10.466
51406SOL    HW256058   7.658  14.103  10.361
51407SOL     OW56059   9.313   2.961   7.763
51407SOL    HW156060   9.328   2.929   7.852
51407SOL    HW256061   9.345   3.051   7.763
51408SOL     OW56062   7.661   0.694   6.307
51408SOL    HW156063   7.701   0.751   6.371
51408SOL    HW256064   7.701   0.718   6.223
51409SOL     OW56065  10.321   2.042   5.267
51409SOL    HW156066  10.246   2.063   5.322
51409SOL    HW256067  10.376   1.986   5.322
51410SOL     OW56068  13.306  13.410   7.972
51410SOL    HW156069  13.338  13.347   8.037
51410SOL    HW256070  13.349  13.492   7.995
51411SOL     OW56071   1.044   1.556   7.890
51411SOL    HW156072   1.138   1.547   7.874
51411SOL    HW256073   1.015   1.623   7.827
51412SOL     OW56074  14.736   5.814   6.335
51412SOL    HW156075  14.817   5.813   6.283
51412SOL    HW256076  14.717   5.906   6.349
51413SOL     OW56077   7.437   5.871   6.737
51413SOL    HW156078   7.435   5.956   6.781
51413SOL    HW256079   7.404   5.888   6.649
51414SOL     OW56080  14.583   9.791   0.319
51414SOL    HW156081  14.499   9.817   0.281
51414SOL    HW256082  14.644   9.791   0.246
51415SOL     OW56083   6.354   2.211   7.004
51415SOL    HW156084   6.347   2.282   7.068
51415SOL    HW256085   6.283   2.228   6.942
51416SOL     OW56086   9.986  12.989   6.222
51416SOL    HW156087   9.927  12.957   6.154
51416SOL    HW256088  10.074  12.968   6.189
51417SOL     OW56089   0.113   6.517  13.551
51417SOL    HW156090   0.062   6.437  13.561
51417SOL    HW256091   0.066   6.582  13.604
51418SOL     OW56092   2.682   4.286  12.338
51418SOL    HW156093   2.710   4.349  12.404
51418SOL    HW256094   2.703   4.201  12.376
51419SOL     OW56095   4.181  10.891   9.367
51419SOL    HW156096   4.111  10.936   9.415
51419SOL    HW256097   4.159  10.902   9.275
51420SOL     OW56098  11.102  12.608  12.623
51420SOL    HW156099  11.061  12.685  12.663
51420SOL    HW256100  11.155  12.569  12.693
51421SOL     OW56101   4.089   9.161   6.195
51421SOL    HW156102   4.060   9.176   6.285
51421SOL    HW256103   4.092   9.248   6.156
51422SOL     OW56104  11.718  10.835  12.008
51422SOL    HW156105  11.647  10.867  12.064
51422SOL    HW256106  11.722  10.897  11.936
51423SOL     OW56107   5.931   2.327  14.061
51423SOL    HW156108   5.870   2.385  14.015
51423SOL    HW256109   6.014   2.338  14.014
51424SOL     OW56110  13.649   0.283  12.050
51424SOL    HW156111  13.627   0.194  12.021
51424SOL    HW256112  13.741   0.279  12.074
51425SOL     OW56113  10.376  14.515  12.453
51425SOL    HW156114  10.292  14.475  12.477
51425SOL    HW256115  10.361  14.552  12.366
51426SOL     OW56116   7.934  10.558   8.007
51426SOL    HW156117   7.952  10.533   8.097
51426SOL    HW256118   7.840  10.574   8.005
51427SOL     OW56119   0.941   3.603   1.371
51427SOL    HW156120   0.884   3.679   1.384
51427SOL    HW256121   0.903   3.535   1.428
51428SOL     OW56122   8.511  11.572   2.193
51428SOL    HW156123   8.448  11.634   2.157
51428SOL    HW256124   8.500  11.493   2.139
51429SOL     OW56125   1.049   2.066  14.873
51429SOL    HW156126   1.025   2.116   0.075
51429SOL    HW256127   1.009   1.980   0.010
51430SOL     OW56128  10.764   7.464   0.723
51430SOL    HW156129  10.786   7.512   0.644
51430SOL    HW256130  10.796   7.519   0.795
51431SOL     OW56131  13.886   7.954   5.145
51431SOL    HW156132  13.879   7.871   5.098
51431SOL    HW256133  13.851   8.019   5.083
51432SOL     OW56134   2.873   8.159   2.294
51432SOL    HW156135   2.821   8.175   2.372
51432SOL    HW256136   2.962   8.146   2.327
51433SOL     OW56137   6.250  11.535   7.829
51433SOL    HW156138   6.222  11.623   7.806
51433SOL    HW256139   6.345  11.537   7.822
51434SOL     OW56140   5.903  10.022   0.574
51434SOL    HW156141   5.994  10.053   0.570
51434SOL    HW256142   5.856  10.082   0.517
51435SOL     OW56143   2.868   9.045   3.346
51435SOL    HW156144   2.886   8.952   3.361
51435SOL    HW256145   2.818   9.072   3.422
51436SOL     OW56146   5.554   3.244   6.123
51436SOL    HW156147   5.538   3.338   6.109
51436SOL    HW256148   5.572   3.237   6.217
51437SOL     OW56149   3.319   7.259  14.086
51437SOL    HW156150   3.405   7.222  14.106
51437SOL    HW256151   3.329   7.353  14.101
51438SOL     OW56152   4.014  11.789   1.626
51438SOL    HW156153   4.066  11.819   1.552
51438SOL    HW256154   4.036  11.848   1.697
51439SOL     OW56155   2.118   7.167  14.083
51439SOL    HW156156   2.089   7.102  14.019
51439SOL    HW256157   2.085   7.250  14.049
51440SOL     OW56158  13.111   6.246   8.843
51440SOL    HW156159  13.148   6.190   8.775
51440SOL    HW256160  13.186   6.294   8.878
51441SOL     OW56161  14.132   3.715  13.071
51441SOL    HW156162  14.153   3.726  12.978
51441SOL    HW256163  14.109   3.623  13.080
51442SOL     OW56164   0.669   9.086   9.868
51442SOL    HW156165   0.671   9.016   9.933
51442SOL    HW256166   0.599   9.144   9.897
51443SOL     OW56167   0.452   6.936   7.096
51443SOL    HW156168   0.541   6.950   7.062
51443SOL    HW256169   0.465   6.890   7.179
51444SOL     OW56170   6.902   6.364   7.319
51444SOL    HW156171   6.892   6.279   7.362
51444SOL    HW256172   6.996   6.379   7.317
51445SOL     OW56173  13.297  10.840   7.381
51445SOL    HW156174  13.282  10.921   7.430
51445SOL    HW256175  13.386  10.848   7.348
51446SOL     OW56176   7.726  14.161   6.460
51446SOL    HW156177   7.745  14.076   6.500
51446SOL    HW256178   7.812  14.196   6.437
51447SOL     OW56179  12.066   6.527  14.438
51447SOL    HW156180  12.125   6.503  14.367
51447SOL    HW256181  12.021   6.446  14.462
51448SOL     OW56182   5.526   2.884  11.471
51448SOL    HW156183   5.493   2.884  11.561
51448SOL    HW256184   5.459   2.836  11.422
51449SOL     OW56185  10.437   7.030   8.701
51449SOL    HW156186  10.455   7.042   8.794
51449SOL    HW256187  10.497   7.091   8.657
51450SOL     OW56188   1.611   4.950   6.600
51450SOL    HW156189   1.537   4.991   6.556
51450SOL    HW256190   1.598   4.971   6.693
51451SOL     OW56191  13.588   0.053   3.512
51451SOL    HW156192  13.625   0.077   3.597
51451SOL    HW256193  13.495   0.076   3.518
51452SOL     OW56194   2.656   5.961  13.832
51452SOL    HW156195   2.672   6.047  13.869
51452SOL    HW256196   2.732   5.944  13.776
51453SOL     OW56197   7.045   0.311  11.611
51453SOL    HW156198   7.104   0.236  11.609
51453SOL    HW256199   7.102   0.385  11.633
51454SOL     OW56200  14.453  11.083  14.022
51454SOL    HW156201  14.436  11.048  14.109
51454SOL    HW256202  14.523  11.027  13.987
51455SOL     OW56203  12.685  14.384  13.634
51455SOL    HW156204  12.696  14.478  13.618
51455SOL    HW256205  12.600  14.363  13.596
51456SOL     OW56206   1.487   2.096   7.043
51456SOL    HW156207   1.401   2.135   7.033
51456SOL    HW256208   1.546   2.158   7.000
51457SOL     OW56209  12.458   1.477   2.053
51457SOL    HW156210  12.460   1.572   2.065
51457SOL    HW256211  12.368   1.452   2.073
51458SOL     OW56212   4.403   4.147   8.006
51458SOL    HW156213   4.400   4.232   7.962
51458SOL    HW256214   4.390   4.083   7.937
51459SOL     OW56215   0.246   8.111  12.839
51459SOL    HW156216   0.153   8.108  12.816
51459SOL    HW256217   0.252   8.057  12.918
51460SOL     OW56218   5.264   6.763   4.073
51460SOL    HW156219   5.360   6.763   4.064
51460SOL    HW256220   5.232   6.776   3.984
51461SOL     OW56221  14.165  14.221   9.458
51461SOL    HW156222  14.184  14.259   9.544
51461SOL    HW256223  14.208  14.279   9.395
51462SOL     OW56224   1.837   6.666  12.480
51462SOL    HW156225   1.908   6.729  12.465
51462SOL    HW256226   1.805   6.686  12.568
51463SOL     OW56227   8.761  12.157   1.431
51463SOL    HW156228   8.805  12.242   1.442
51463SOL    HW256229   8.699  12.172   1.360
51464SOL     OW56230  14.786   4.066   6.872
51464SOL    HW156231  14.857   4.004   6.851
51464SOL    HW256232  14.709   4.010   6.884
51465SOL     OW56233  10.699  14.803   2.528
51465SOL    HW156234  10.782  14.794   2.479
51465SOL    HW256235  10.685   0.021   2.533
51466SOL     OW56236  13.091   2.890  14.105
51466SOL    HW156237  13.122   2.811  14.149
51466SOL    HW256238  13.045   2.858  14.027
51467SOL     OW56239   9.905  13.238  10.686
51467SOL    HW156240   9.863  13.185  10.618
51467SOL    HW256241   9.915  13.325  10.647
51468SOL     OW56242   9.248  13.316  12.822
51468SOL    HW156243   9.207  13.388  12.871
51468SOL    HW256244   9.265  13.249  12.888
51469SOL     OW56245   5.718   0.121  11.731
51469SOL    HW156246   5.782   0.185  11.699
51469SOL    HW256247   5.768   0.065  11.791
51470SOL     OW56248   6.112   8.056  14.522
51470SOL    HW156249   6.027   8.098  14.524
51470SOL    HW256250   6.111   8.002  14.443
51471SOL     OW56251   8.955   5.367   3.709
51471SOL    HW156252   9.001   5.442   3.747
51471SOL    HW256253   8.990   5.291   3.756
51472SOL     OW56254  10.460  14.079   9.921
51472SOL    HW156255  10.443  14.142   9.851
51472SOL    HW256256  10.456  13.994   9.878
51473SOL     OW56257  13.551   4.456   0.213
51473SOL    HW156258  13.573   4.547   0.193
51473SOL    HW256259  13.455   4.455   0.219
51474SOL     OW56260  14.467   9.763   3.365
51474SOL    HW156261  14.386   9.727   3.328
51474SOL    HW256262  14.495   9.828   3.301
51475SOL     OW56263  13.445   0.662  14.270
51475SOL    HW156264  13.412   0.751  14.278
51475SOL    HW256265  13.464   0.635  14.360
51476SOL     OW56266   0.225   4.805  11.249
51476SOL    HW156267   0.168   4.739  11.288
51476SOL    HW256268   0.313   4.767  11.252
51477SOL     OW56269  12.013   1.226   6.547
51477SOL    HW156270  12.070   1.164   6.502
51477SOL    HW256271  12.063   1.253   6.624
51478SOL     OW56272   2.461   9.542  12.396
51478SOL    HW156273   2.440   9.627  12.359
51478SOL    HW256274   2.379   9.512  12.436
51479SOL     OW56275   9.825   8.846   8.336
51479SOL    HW156276   9.893   8.817   8.396
51479SOL    HW256277   9.782   8.918   8.382
51480SOL     OW56278   8.052   3.434   1.037
51480SOL    HW156279   7.967   3.453   0.998
51480SOL    HW256280   8.114   3.481   0.982
51481SOL     OW56281   2.691   2.135  13.179
51481SOL    HW156282   2.772   2.148  13.129
51481SOL    HW256283   2.657   2.224  13.192
51482SOL     OW56284   0.209   6.659   1.194
51482SOL    HW156285   0.284   6.648   1.135
51482SOL    HW256286   0.133   6.659   1.137
51483SOL     OW56287  14.577   0.859   7.228
51483SOL    HW156288  14.579   0.835   7.135
51483SOL    HW256289  14.610   0.949   7.230
51484SOL     OW56290   2.340  14.259   7.754
51484SOL    HW156291   2.309  14.225   7.670
51484SOL    HW256292   2.338  14.183   7.812
51485SOL     OW56293   2.512   0.957  10.458
51485SOL    HW156294   2.471   0.978  10.543
51485SOL    HW256295   2.489   0.866  10.442
51486SOL     OW56296   5.757   5.764  14.489
51486SOL    HW156297   5.806   5.717  14.421
51486SOL    HW256298   5.761   5.855  14.462
51487SOL     OW56299   8.261   0.248   8.269
51487SOL    HW156300   8.182   0.248   8.216
51487SOL    HW256301   8.333   0.241   8.206
51488SOL     OW56302   3.895  10.125  12.755
51488SOL    HW156303   3.917  10.111  12.663
51488SOL    HW256304   3.803  10.149  12.755
51489SOL     OW56305  11.173   8.199   7.875
51489SOL    HW156306  11.077   8.201   7.870
51489SOL    HW256307  11.201   8.191   7.784
51490SOL     OW56308   0.435   2.648   8.586
51490SOL    HW156309   0.409   2.556   8.582
51490SOL    HW256310   0.403   2.679   8.671
51491SOL     OW56311   9.771  11.068   8.813
51491SOL    HW156312   9.763  11.087   8.906
51491SOL    HW256313   9.865  11.068   8.796
51492SOL     OW56314   3.990  13.941   7.917
51492SOL    HW156315   4.030  13.924   8.002
51492SOL    HW256316   4.060  13.980   7.865
51493SOL     OW56317   0.445  13.632   3.820
51493SOL    HW156318   0.387  13.595   3.753
51493SOL    HW256319   0.520  13.666   3.772
51494SOL     OW56320  13.587   3.716   7.373
51494SOL    HW156321  13.500   3.742   7.404
51494SOL    HW256322  13.610   3.782   7.308
51495SOL     OW56323  11.264  14.558   2.609
51495SOL    HW156324  11.241  14.549   2.517
51495SOL    HW256325  11.233  14.477   2.650
51496SOL     OW56326  14.436   3.101  13.160
51496SOL    HW156327  14.380   3.175  13.183
51496SOL    HW256328  14.501   3.137  13.100
51497SOL     OW56329   1.339   0.091   7.202
51497SOL    HW156330   1.421   0.137   7.220
51497SOL    HW256331   1.292   0.094   7.286
51498SOL     OW56332   2.596  13.597   1.528
51498SOL    HW156333   2.623  13.578   1.438
51498SOL    HW256334   2.678  13.609   1.576
51499SOL     OW56335   5.289   1.379   9.348
51499SOL    HW156336   5.348   1.308   9.373
51499SOL    HW256337   5.334   1.459   9.375
51500SOL     OW56338   3.041  12.123   6.302
51500SOL    HW156339   3.069  12.205   6.263
51500SOL    HW256340   3.120  12.088   6.344
51501SOL     OW56341   2.544  12.634  10.425
51501SOL    HW156342   2.578  12.652  10.337
51501SOL    HW256343   2.449  12.625  10.412
51502SOL     OW56344   5.899   1.237   7.726
51502SOL    HW156345   5.910   1.243   7.631
51502SOL    HW256346   5.805   1.251   7.740
51503SOL     OW56347   7.245   7.760   2.390
51503SOL    HW156348   7.228   7.727   2.302
51503SOL    HW256349   7.193   7.840   2.396
51504SOL     OW56350  13.721   8.410  11.847
51504SOL    HW156351  13.730   8.375  11.758
51504SOL    HW256352  13.736   8.504  11.836
51505SOL     OW56353   4.638  11.181   9.661
51505SOL    HW156354   4.636  11.267   9.621
51505SOL    HW256355   4.600  11.194   9.748
51506SOL     OW56356  10.022  13.894   4.793
51506SOL    HW156357  10.112  13.926   4.789
51506SOL    HW256358   9.984  13.939   4.868
51507SOL     OW56359   6.319   7.121   6.384
51507SOL    HW156360   6.348   7.110   6.475
51507SOL    HW256361   6.237   7.169   6.391
51508SOL     OW56362   1.588   8.036   7.004
51508SOL    HW156363   1.592   8.094   6.929
51508SOL    HW256364   1.670   8.052   7.051
51509SOL     OW56365   1.958  13.648  10.951
51509SOL    HW156366   2.014  13.724  10.971
51509SOL    HW256367   1.945  13.605  11.036
51510SOL     OW56368  12.995   2.221  12.938
51510SOL    HW156369  12.946   2.244  13.017
51510SOL    HW256370  13.085   2.207  12.970
51511SOL     OW56371   6.307  10.185   6.633
51511SOL    HW156372   6.270  10.107   6.592
51511SOL    HW256373   6.231  10.241   6.649
51512SOL     OW56374   9.754   6.293   1.030
51512SOL    HW156375   9.768   6.335   1.115
51512SOL    HW256376   9.823   6.226   1.025
51513SOL     OW56377   4.356  13.739   0.426
51513SOL    HW156378   4.269  13.705   0.404
51513SOL    HW256379   4.417  13.678   0.385
51514SOL     OW56380   2.783   6.628   1.099
51514SOL    HW156381   2.839   6.683   1.154
51514SOL    HW256382   2.695   6.647   1.130
51515SOL     OW56383   0.672  11.499  11.439
51515SOL    HW156384   0.764  11.485  11.417
51515SOL    HW256385   0.629  11.514  11.354
51516SOL     OW56386  11.676   1.006   6.371
51516SOL    HW156387  11.714   0.999   6.284
51516SOL    HW256388  11.674   1.100   6.390
51517SOL     OW56389  12.013   6.735  10.036
51517SOL    HW156390  11.980   6.798   9.972
51517SOL    HW256391  11.994   6.774  10.121
51518SOL     OW56392   6.788   9.200   2.235
51518SOL    HW156393   6.726   9.208   2.307
51518SOL    HW256394   6.749   9.250   2.163
51519SOL     OW56395  13.900   7.890   4.494
51519SOL    HW156396  13.865   7.901   4.583
51519SOL    HW256397  13.991   7.921   4.500
51520SOL     OW56398   7.779   4.296  13.354
51520SOL    HW156399   7.847   4.341  13.304
51520SOL    HW256400   7.716   4.267  13.288
51521SOL     OW56401   1.546  11.909   4.191
51521SOL    HW156402   1.516  11.819   4.210
51521SOL    HW256403   1.533  11.918   4.097
51522SOL     OW56404   9.928   6.349   3.250
51522SOL    HW156405   9.923   6.259   3.217
51522SOL    HW256406  10.003   6.349   3.309
51523SOL     OW56407   4.830   1.909  12.597
51523SOL    HW156408   4.852   1.818  12.576
51523SOL    HW256409   4.794   1.943  12.515
51524SOL     OW56410   1.541   0.538   1.936
51524SOL    HW156411   1.496   0.572   2.013
51524SOL    HW256412   1.586   0.460   1.966
51525SOL     OW56413  10.436   1.016   7.322
51525SOL    HW156414  10.446   0.921   7.308
51525SOL    HW256415  10.342   1.029   7.332
51526SOL     OW56416   8.750   5.734  11.217
51526SOL    HW156417   8.748   5.771  11.305
51526SOL    HW256418   8.837   5.695  11.210
51527SOL     OW56419  14.517   6.241   3.529
51527SOL    HW156420  14.550   6.298   3.598
51527SOL    HW256421  14.596   6.211   3.484
51528SOL     OW56422   2.446   7.733  11.264
51528SOL    HW156423   2.482   7.691  11.341
51528SOL    HW256424   2.520   7.742  11.204
51529SOL     OW56425  10.717   6.962  14.387
51529SOL    HW156426  10.797   6.951  14.337
51529SOL    HW256427  10.654   6.904  14.345
51530SOL     OW56428  11.660   5.596  12.073
51530SOL    HW156429  11.712   5.671  12.102
51530SOL    HW256430  11.681   5.587  11.980
51531SOL     OW56431   1.628  14.491  11.019
51531SOL    HW156432   1.539  14.457  11.021
51531SOL    HW256433   1.633  14.543  10.939
51532SOL     OW56434   3.006  12.552   4.782
51532SOL    HW156435   3.039  12.591   4.701
51532SOL    HW256436   3.048  12.602   4.852
51533SOL     OW56437   0.069   6.414   7.131
51533SOL    HW156438   0.095   6.489   7.185
51533SOL    HW256439   0.078   6.339   7.189
51534SOL     OW56440  11.383  13.377   8.861
51534SOL    HW156441  11.340  13.427   8.791
51534SOL    HW256442  11.470  13.356   8.825
51535SOL     OW56443   7.295   0.362   6.886
51535SOL    HW156444   7.255   0.380   6.971
51535SOL    HW256445   7.232   0.394   6.822
51536SOL     OW56446  10.959   4.682   0.670
51536SOL    HW156447  10.903   4.728   0.731
51536SOL    HW256448  11.006   4.751   0.623
51537SOL     OW56449   7.747  14.399   8.454
51537SOL    HW156450   7.768  14.486   8.420
51537SOL    HW256451   7.831  14.353   8.454
51538SOL     OW56452  14.473   9.989  10.987
51538SOL    HW156453  14.492  10.038  10.907
51538SOL    HW256454  14.499  10.047  11.058
51539SOL     OW56455   5.972   7.485   8.555
51539SOL    HW156456   5.909   7.548   8.589
51539SOL    HW256457   5.938   7.400   8.583
51540SOL     OW56458   4.975   2.103   9.976
51540SOL    HW156459   5.065   2.069   9.981
51540SOL    HW256460   4.961   2.147  10.059
51541SOL     OW56461  12.849   8.487  10.249
51541SOL    HW156462  12.865   8.530  10.165
51541SOL    HW256463  12.763   8.519  10.276
51542SOL     OW56464  11.790   5.736  10.656
51542SOL    HW156465  11.792   5.823  10.614
51542SOL    HW256466  11.842   5.681  10.598
51543SOL     OW56467  12.014   1.341   5.874
51543SOL    HW156468  12.058   1.256   5.880
51543SOL    HW256469  11.929   1.321   5.835
51544SOL     OW56470   9.162  10.469   4.713
51544SOL    HW156471   9.073  10.497   4.735
51544SOL    HW256472   9.159  10.373   4.718
51545SOL     OW56473  13.104   7.525  13.462
51545SOL    HW156474  13.169   7.560  13.401
51545SOL    HW256475  13.071   7.602  13.508
51546SOL     OW56476   2.831   5.261   7.856
51546SOL    HW156477   2.902   5.310   7.897
51546SOL    HW256478   2.764   5.255   7.925
51547SOL     OW56479   4.846  13.739   5.315
51547SOL    HW156480   4.916  13.804   5.310
51547SOL    HW256481   4.818  13.726   5.224
51548SOL     OW56482   9.449   3.946   7.914
51548SOL    HW156483   9.529   3.894   7.924
51548SOL    HW256484   9.389   3.890   7.865
51549SOL     OW56485  12.496   9.163   7.732
51549SOL    HW156486  12.516   9.082   7.687
51549SOL    HW256487  12.578   9.212   7.734
51550SOL     OW56488   1.540  12.902   6.523
51550SOL    HW156489   1.485  12.970   6.562
51550SOL    HW256490   1.618  12.899   6.579
51551SOL     OW56491   9.029   3.350   2.988
51551SOL    HW156492   9.097   3.311   3.043
51551SOL    HW256493   9.077   3.409   2.930
51552SOL     OW56494   1.948   9.586   5.294
51552SOL    HW156495   1.915   9.668   5.331
51552SOL    HW256496   1.872   9.549   5.249
51553SOL     OW56497   2.724   4.810   6.855
51553SOL    HW156498   2.642   4.858   6.855
51553SOL    HW256499   2.789   4.871   6.890
51554SOL     OW56500   6.270  13.558  10.533
51554SOL    HW156501   6.253  13.565  10.439
51554SOL    HW256502   6.228  13.476  10.558
51555SOL     OW56503  13.072  11.171   1.628
51555SOL    HW156504  13.122  11.253   1.631
51555SOL    HW256505  13.134  11.105   1.660
51556SOL     OW56506   2.549   0.832   3.246
51556SOL    HW156507   2.556   0.743   3.282
51556SOL    HW256508   2.490   0.822   3.171
51557SOL     OW56509   9.603   4.885   0.100
51557SOL    HW156510   9.516   4.861   0.067
51557SOL    HW256511   9.618   4.973   0.067
51558SOL     OW56512   1.507  13.628   4.915
51558SOL    HW156513   1.504  13.582   4.999
51558SOL    HW256514   1.551  13.710   4.934
51559SOL     OW56515   4.942  10.245   0.228
51559SOL    HW156516   4.897  10.185   0.287
51559SOL    HW256517   5.003  10.189   0.179
51560SOL     OW56518   5.908   0.266   7.452
51560SOL    HW156519   5.939   0.257   7.542
51560SOL    HW256520   5.926   0.357   7.429
51561SOL     OW56521  12.941   7.793   9.406
51561SOL    HW156522  13.024   7.759   9.374
51561SOL    HW256523  12.899   7.717   9.447
51562SOL     OW56524  10.754   5.463  14.153
51562SOL    HW156525  10.764   5.475  14.058
51562SOL    HW256526  10.672   5.414  14.163
51563SOL     OW56527  10.081   7.654  13.283
51563SOL    HW156528  10.065   7.742  13.250
51563SOL    HW256529  10.084   7.664  13.378
51564SOL     OW56530   2.016   2.516  13.498
51564SOL    HW156531   2.093   2.561  13.462
51564SOL    HW256532   2.045   2.484  13.584
51565SOL     OW56533   0.314  14.409  14.570
51565SOL    HW156534   0.292  14.372  14.484
51565SOL    HW256535   0.369  14.485  14.551
51566SOL     OW56536  11.889   6.070   5.798
51566SOL    HW156537  11.949   6.135   5.834
51566SOL    HW256538  11.885   6.000   5.864
51567SOL     OW56539  11.592  11.132  10.771
51567SOL    HW156540  11.565  11.083  10.693
51567SOL    HW256541  11.509  11.158  10.812
51568SOL     OW56542  13.954   6.700   4.232
51568SOL    HW156543  13.915   6.760   4.296
51568SOL    HW256544  14.009   6.755   4.177
51569SOL     OW56545  11.663   0.617  14.769
51569SOL    HW156546  11.740   0.586  14.817
51569SOL    HW256547  11.658   0.711  14.789
51570SOL     OW56548   4.925  12.080   3.470
51570SOL    HW156549   5.005  12.129   3.454
51570SOL    HW256550   4.896  12.109   3.557
51571SOL     OW56551   5.803  14.677   1.895
51571SOL    HW156552   5.721  14.653   1.939
51571SOL    HW256553   5.831  14.756   1.940
51572SOL     OW56554   5.185   9.500   6.206
51572SOL    HW156555   5.172   9.485   6.112
51572SOL    HW256556   5.230   9.584   6.211
51573SOL     OW56557   4.398   1.985   6.425
51573SOL    HW156558   4.394   2.057   6.488
51573SOL    HW256559   4.308   1.954   6.418
51574SOL     OW56560   5.903   6.796   6.760
51574SOL    HW156561   5.963   6.869   6.746
51574SOL    HW256562   5.911   6.777   6.854
51575SOL     OW56563  13.861   6.470   7.961
51575SOL    HW156564  13.821   6.388   7.988
51575SOL    HW256565  13.813   6.496   7.882
51576SOL     OW56566   1.713   9.861  12.370
51576SOL    HW156567   1.675   9.861  12.458
51576SOL    HW256568   1.671   9.936  12.326
51577SOL     OW56569   5.291  10.665   6.527
51577SOL    HW156570   5.326  10.650   6.615
51577SOL    HW256571   5.198  10.681   6.541
51578SOL     OW56572   7.726   2.508   4.112
51578SOL    HW156573   7.642   2.545   4.141
51578SOL    HW256574   7.751   2.449   4.184
51579SOL     OW56575  10.140   9.284  14.779
51579SOL    HW156576  10.060   9.259  14.733
51579SOL    HW256577  10.208   9.227  14.742
51580SOL     OW56578  13.873   3.447   0.629
51580SOL    HW156579  13.940   3.379   0.636
51580SOL    HW256580  13.923   3.528   0.616
51581SOL     OW56581   5.875   2.274   1.643
51581SOL    HW156582   5.969   2.295   1.640
51581SOL    HW256583   5.861   2.216   1.568
51582SOL     OW56584   7.432   9.262   5.870
51582SOL    HW156585   7.367   9.283   5.937
51582SOL    HW256586   7.380   9.233   5.795
51583SOL     OW56587   2.797   5.946  11.552
51583SOL    HW156588   2.874   5.943  11.495
51583SOL    HW256589   2.751   6.027  11.527
51584SOL     OW56590   2.002   5.792   4.386
51584SOL    HW156591   1.975   5.854   4.318
51584SOL    HW256592   1.926   5.735   4.397
51585SOL     OW56593   9.145   0.802  14.471
51585SOL    HW156594   9.215   0.822  14.533
51585SOL    HW256595   9.077   0.762  14.525
51586SOL     OW56596  12.193   9.768   9.817
51586SOL    HW156597  12.126   9.836   9.811
51586SOL    HW256598  12.175   9.723   9.899
51587SOL     OW56599  14.399   6.093   8.813
51587SOL    HW156600  14.449   6.082   8.732
51587SOL    HW256601  14.461   6.073   8.882
51588SOL     OW56602   5.440  13.377   8.142
51588SOL    HW156603   5.508  13.324   8.183
51588SOL    HW256604   5.454  13.366   8.048
51589SOL     OW56605   2.264  14.418   0.959
51589SOL    HW156606   2.341  14.364   0.941
51589SOL    HW256607   2.195  14.355   0.981
51590SOL     OW56608  10.891   8.885   8.547
51590SOL    HW156609  10.949   8.932   8.487
51590SOL    HW256610  10.905   8.927   8.632
51591SOL     OW56611  11.738   1.301  10.539
51591SOL    HW156612  11.687   1.380  10.560
51591SOL    HW256613  11.733   1.293  10.444
51592SOL     OW56614   2.964  14.060  14.731
51592SOL    HW156615   2.987  13.979  14.777
51592SOL    HW256616   2.935  14.120  14.800
51593SOL     OW56617   5.964   2.572   2.490
51593SOL    HW156618   5.981   2.586   2.583
51593SOL    HW256619   5.938   2.480   2.485
51594SOL     OW56620   0.556   7.390  12.759
51594SOL    HW156621   0.637   7.397  12.811
51594SOL    HW256622   0.540   7.478  12.727
51595SOL     OW56623   0.690  11.954  10.979
51595SOL    HW156624   0.709  11.863  11.006
51595SOL    HW256625   0.754  12.006  11.028
51596SOL     OW56626   0.114  14.709   4.196
51596SOL    HW156627   0.205  14.703   4.165
51596SOL    HW256628   0.111  14.791   4.246
51597SOL     OW56629   4.698  14.461   0.269
51597SOL    HW156630   4.662  14.402   0.336
51597SOL    HW256631   4.640  14.537   0.270
51598SOL     OW56632   6.082  12.511   3.590
51598SOL    HW156633   6.171  12.528   3.562
51598SOL    HW256634   6.027  12.563   3.531
51599SOL     OW56635  12.289   7.812  10.849
51599SOL    HW156636  12.270   7.719  10.860
51599SOL    HW256637  12.367   7.813  10.792
51600SOL     OW56638  10.987   5.560   1.334
51600SOL    HW156639  11.024   5.599   1.413
51600SOL    HW256640  10.894   5.552   1.352
51601SOL     OW56641   0.690  12.543   0.955
51601SOL    HW156642   0.706  12.569   0.864
51601SOL    HW256643   0.673  12.449   0.951
51602SOL     OW56644   1.035   3.043  12.772
51602SOL    HW156645   1.081   3.035  12.689
51602SOL    HW256646   0.957   3.095  12.752
51603SOL     OW56647   4.864   6.908   2.051
51603SOL    HW156648   4.791   6.967   2.032
51603SOL    HW256649   4.840   6.866   2.134
51604SOL     OW56650   0.566   5.906  12.264
51604SOL    HW156651   0.576   5.851  12.186
51604SOL    HW256652   0.595   5.992  12.236
51605SOL     OW56653   7.086   8.921   9.914
51605SOL    HW156654   7.124   8.886   9.994
51605SOL    HW256655   7.111   8.859   9.846
51606SOL     OW56656   4.018  13.272   1.244
51606SOL    HW156657   4.072  13.255   1.321
51606SOL    HW256658   3.929  13.251   1.271
51607SOL     OW56659  14.599  10.868   7.748
51607SOL    HW156660  14.570  10.947   7.795
51607SOL    HW256661  14.689  10.887   7.723
51608SOL     OW56662   7.803   8.688  14.703
51608SOL    HW156663   7.798   8.695  14.608
51608SOL    HW256664   7.877   8.630  14.719
51609SOL     OW56665  10.051  13.896   6.974
51609SOL    HW156666  10.037  13.801   6.967
51609SOL    HW256667  10.143  13.908   6.951
51610SOL     OW56668   1.264   9.222   4.113
51610SOL    HW156669   1.171   9.229   4.135
51610SOL    HW256670   1.270   9.141   4.061
51611SOL     OW56671   1.092   6.715   6.646
51611SOL    HW156672   1.169   6.658   6.636
51611SOL    HW256673   1.067   6.737   6.556
51612SOL     OW56674   4.503   0.582   3.942
51612SOL    HW156675   4.564   0.655   3.944
51612SOL    HW256676   4.455   0.593   3.860
51613SOL     OW56677  10.731  14.811   4.579
51613SOL    HW156678  10.786   0.009   4.555
51613SOL    HW256679  10.642  14.841   4.564
51614SOL     OW56680   7.736   6.882   5.535
51614SOL    HW156681   7.680   6.805   5.538
51614SOL    HW256682   7.805   6.860   5.471
51615SOL     OW56683   4.966   9.002   5.619
51615SOL    HW156684   4.995   9.000   5.528
51615SOL    HW256685   4.965   8.911   5.646
51616SOL     OW56686   8.265   5.819   5.227
51616SOL    HW156687   8.304   5.870   5.155
51616SOL    HW256688   8.172   5.811   5.203
51617SOL     OW56689   3.568   0.784   8.425
51617SOL    HW156690   3.528   0.841   8.359
51617SOL    HW256691   3.596   0.707   8.375
51618SOL     OW56692   9.670   1.029   1.222
51618SOL    HW156693   9.630   1.091   1.284
51618SOL    HW256694   9.697   1.084   1.148
51619SOL     OW56695   0.958   3.227  13.059
51619SOL    HW156696   1.009   3.258  12.985
51619SOL    HW256697   0.935   3.137  13.036
51620SOL     OW56698   6.908   1.720   3.524
51620SOL    HW156699   6.937   1.631   3.546
51620SOL    HW256700   6.974   1.776   3.565
51621SOL     OW56701   7.359   6.678   7.983
51621SOL    HW156702   7.271   6.655   7.953
51621SOL    HW256703   7.407   6.699   7.903
51622SOL     OW56704  13.458   0.147  10.288
51622SOL    HW156705  13.449   0.057  10.320
51622SOL    HW256706  13.515   0.189  10.353
51623SOL     OW56707  11.964   5.802   8.347
51623SOL    HW156708  11.973   5.896   8.329
51623SOL    HW256709  11.873   5.782   8.326
51624SOL     OW56710   5.564  13.236  14.774
51624SOL    HW156711   5.639  13.176  14.772
51624SOL    HW256712   5.567  13.280  14.690
51625SOL     OW56713  14.478  13.162   8.615
51625SOL    HW156714  14.397  13.112   8.623
51625SOL    HW256715  14.535  13.127   8.682
51626SOL     OW56716  10.356  10.089  10.525
51626SOL    HW156717  10.433  10.089  10.582
51626SOL    HW256718  10.341  10.182  10.506
51627SOL     OW56719   3.027  10.404   6.036
51627SOL    HW156720   3.100  10.428   6.093
51627SOL    HW256721   2.954  10.389   6.096
51628SOL     OW56722  10.168   6.720   1.479
51628SOL    HW156723  10.180   6.811   1.507
51628SOL    HW256724  10.257   6.686   1.470
51629SOL     OW56725   0.663  13.405   7.109
51629SOL    HW156726   0.629  13.322   7.141
51629SOL    HW256727   0.591  13.443   7.059
51630SOL     OW56728   9.521   8.905   1.054
51630SOL    HW156729   9.588   8.973   1.062
51630SOL    HW256730   9.525   8.878   0.962
51631SOL     OW56731   3.723   4.832   2.660
51631SOL    HW156732   3.688   4.823   2.749
51631SOL    HW256733   3.769   4.750   2.643
51632SOL     OW56734   2.741  10.545  13.148
51632SOL    HW156735   2.758  10.482  13.219
51632SOL    HW256736   2.824  10.552  13.101
51633SOL     OW56737   8.062   4.958   7.796
51633SOL    HW156738   8.138   4.909   7.827
51633SOL    HW256739   8.072   5.045   7.836
51634SOL     OW56740   4.706  10.624   7.571
51634SOL    HW156741   4.704  10.548   7.630
51634SOL    HW256742   4.729  10.698   7.628
51635SOL     OW56743   0.148   1.901  14.254
51635SOL    HW156744   0.140   1.825  14.197
51635SOL    HW256745   0.203   1.962  14.205
51636SOL     OW56746   1.249  13.374   5.792
51636SOL    HW156747   1.240  13.352   5.699
51636SOL    HW256748   1.287  13.462   5.792
51637SOL     OW56749  12.403   0.279   9.458
51637SOL    HW156750  12.377   0.311   9.371
51637SOL    HW256751  12.482   0.330   9.479
51638SOL     OW56752  13.839  11.326   8.885
51638SOL    HW156753  13.790  11.330   8.803
51638SOL    HW256754  13.775  11.348   8.953
51639SOL     OW56755  10.583  11.778   3.306
51639SOL    HW156756  10.669  11.760   3.268
51639SOL    HW256757  10.576  11.873   3.308
51640SOL     OW56758  12.773  13.777   3.786
51640SOL    HW156759  12.701  13.802   3.844
51640SOL    HW256760  12.736  13.710   3.729
51641SOL     OW56761  11.315   9.903   3.124
51641SOL    HW156762  11.264   9.862   3.194
51641SOL    HW256763  11.333   9.992   3.157
51642SOL     OW56764   2.094  14.529  13.562
51642SOL    HW156765   2.115  14.468  13.492
51642SOL    HW256766   2.162  14.515  13.628
51643SOL     OW56767  14.733   3.374   6.972
51643SOL    HW156768  14.748   3.297   6.917
51643SOL    HW256769  14.785   3.357   7.051
51644SOL     OW56770   0.430  14.781  13.358
51644SOL    HW156771   0.442  14.765  13.264
51644SOL    HW256772   0.511  14.824  13.386
51645SOL     OW56773   8.109   5.823  12.420
51645SOL    HW156774   8.099   5.736  12.460
51645SOL    HW256775   8.046   5.878  12.467
51646SOL     OW56776  11.917   2.656  10.034
51646SOL    HW156777  11.962   2.734  10.066
51646SOL    HW256778  11.836   2.652  10.085
51647SOL     OW56779  12.883  11.537  10.093
51647SOL    HW156780  12.813  11.472  10.095
51647SOL    HW256781  12.839  11.620  10.076
51648SOL     OW56782  13.164   4.488   9.317
51648SOL    HW156783  13.247   4.501   9.362
51648SOL    HW256784  13.186   4.439   9.238
51649SOL     OW56785   6.393  11.107  14.875
51649SOL    HW156786   6.440  11.070   0.073
51649SOL    HW256787   6.313  11.056  14.869
51650SOL     OW56788  11.401   7.717   9.334
51650SOL    HW156789  11.450   7.786   9.290
51650SOL    HW256790  11.318   7.757   9.358
51651SOL     OW56791  12.153   0.788   0.050
51651SOL    HW156792  12.201   0.743  14.857
51651SOL    HW256793  12.211   0.785   0.126
51652SOL     OW56794   6.881   9.063   9.996
51652SOL    HW156795   6.832   9.067   9.914
51652SOL    HW256796   6.969   9.033   9.970
51653SOL     OW56797   4.626   5.921   0.944
51653SOL    HW156798   4.708   5.961   0.972
51653SOL    HW256799   4.584   5.988   0.891
51654SOL     OW56800   5.198   9.745  11.073
51654SOL    HW156801   5.279   9.698  11.094
51654SOL    HW256802   5.132   9.708  11.132
51655SOL     OW56803  10.046   5.755   9.305
51655SOL    HW156804   9.985   5.688   9.274
51655SOL    HW256805   9.997   5.837   9.300
51656SOL     OW56806   4.149   8.362   6.056
51656SOL    HW156807   4.167   8.444   6.101
51656SOL    HW256808   4.100   8.310   6.120
51657SOL     OW56809   5.796  11.825   6.494
51657SOL    HW156810   5.768  11.912   6.523
51657SOL    HW256811   5.785  11.770   6.571
51658SOL     OW56812   8.541  11.957   8.964
51658SOL    HW156813   8.543  11.890   9.032
51658SOL    HW256814   8.563  12.038   9.009
51659SOL     OW56815  13.943  12.593   3.238
51659SOL    HW156816  14.017  12.580   3.297
51659SOL    HW256817  13.957  12.531   3.167
51660SOL     OW56818  10.887  12.326  12.905
51660SOL    HW156819  10.836  12.353  12.982
51660SOL    HW256820  10.969  12.293  12.941
51661SOL     OW56821   2.373   0.268   9.485
51661SOL    HW156822   2.294   0.250   9.433
51661SOL    HW256823   2.442   0.281   9.421
51662SOL     OW56824   1.597  13.904   2.386
51662SOL    HW156825   1.684  13.943   2.395
51662SOL    HW256826   1.537  13.979   2.385
51663SOL     OW56827   1.530   7.270   1.595
51663SOL    HW156828   1.613   7.228   1.571
51663SOL    HW256829   1.488   7.207   1.654
51664SOL     OW56830   9.713   6.955  13.053
51664SOL    HW156831   9.760   6.920  13.128
51664SOL    HW256832   9.661   7.027  13.088
51665SOL     OW56833   6.782  12.749   3.561
51665SOL    HW156834   6.849  12.760   3.628
51665SOL    HW256835   6.740  12.835   3.555
51666SOL     OW56836   0.432   6.730  11.744
51666SOL    HW156837   0.490   6.794  11.786
51666SOL    HW256838   0.362   6.716  11.807
51667SOL     OW56839   6.175   4.266   2.583
51667SOL    HW156840   6.172   4.344   2.528
51667SOL    HW256841   6.227   4.203   2.534
51668SOL     OW56842   3.785   2.538  12.703
51668SOL    HW156843   3.708   2.559  12.756
51668SOL    HW256844   3.850   2.506  12.767
51669SOL     OW56845   4.876   9.739   4.312
51669SOL    HW156846   4.855   9.826   4.346
51669SOL    HW256847   4.969   9.742   4.292
51670SOL     OW56848  14.433   7.251   4.349
51670SOL    HW156849  14.488   7.261   4.426
51670SOL    HW256850  14.371   7.182   4.372
51671SOL     OW56851   1.118  13.097   5.077
51671SOL    HW156852   1.030  13.114   5.041
51671SOL    HW256853   1.175  13.154   5.025
51672SOL     OW56854   1.641  14.156   9.340
51672SOL    HW156855   1.699  14.103   9.394
51672SOL    HW256856   1.631  14.106   9.258
51673SOL     OW56857   7.267  13.485   7.134
51673SOL    HW156858   7.251  13.575   7.107
51673SOL    HW256859   7.322  13.492   7.212
51674SOL     OW56860   1.873  10.063  10.705
51674SOL    HW156861   1.901  10.128  10.770
51674SOL    HW256862   1.955  10.027  10.671
51675SOL     OW56863   7.808  14.226   8.680
51675SOL    HW156864   7.871  14.214   8.609
51675SOL    HW256865   7.741  14.160   8.664
51676SOL     OW56866   2.839   0.957   7.078
51676SOL    HW156867   2.850   1.051   7.095
51676SOL    HW256868   2.924   0.919   7.098
51677SOL     OW56869  13.382   6.436   2.104
51677SOL    HW156870  13.442   6.362   2.112
51677SOL    HW256871  13.400   6.489   2.182
51678SOL     OW56872  11.796   6.415   8.705
51678SOL    HW156873  11.812   6.327   8.739
51678SOL    HW256874  11.705   6.433   8.728
51679SOL     OW56875   1.756   8.627   8.631
51679SOL    HW156876   1.663   8.648   8.639
51679SOL    HW256877   1.758   8.532   8.616
51680SOL     OW56878   4.938   0.756  10.564
51680SOL    HW156879   5.006   0.824  10.570
51680SOL    HW256880   4.875   0.792  10.502
51681SOL     OW56881   9.782  10.652   9.820
51681SOL    HW156882   9.868  10.687   9.798
51681SOL    HW256883   9.791  10.619   9.909
51682SOL     OW56884   4.440   9.307  13.710
51682SOL    HW156885   4.396   9.251  13.774
51682SOL    HW256886   4.448   9.392  13.754
51683SOL     OW56887   7.974   5.884   1.601
51683SOL    HW156888   7.905   5.914   1.661
51683SOL    HW256889   8.054   5.925   1.634
51684SOL     OW56890  14.616  13.760   7.051
51684SOL    HW156891  14.704  13.790   7.072
51684SOL    HW256892  14.587  13.712   7.128
51685SOL     OW56893   4.773  10.589   0.760
51685SOL    HW156894   4.753  10.512   0.706
51685SOL    HW256895   4.816  10.553   0.838
51686SOL     OW56896  10.998  12.831  10.284
51686SOL    HW156897  10.922  12.777  10.259
51686SOL    HW256898  11.021  12.801  10.372
51687SOL     OW56899   9.567   2.289   9.881
51687SOL    HW156900   9.507   2.217   9.861
51687SOL    HW256901   9.640   2.278   9.820
51688SOL     OW56902  14.860   1.371   6.389
51688SOL    HW156903   0.029   1.290   6.412
51688SOL    HW256904   0.024   1.399   6.307
51689SOL     OW56905   2.675   7.730  10.511
51689SOL    HW156906   2.766   7.714  10.486
51689SOL    HW256907   2.656   7.663  10.577
51690SOL     OW56908  14.010  14.327   5.583
51690SOL    HW156909  13.933  14.377   5.554
51690SOL    HW256910  14.002  14.242   5.540
51691SOL     OW56911   2.960   5.336   8.488
51691SOL    HW156912   2.896   5.327   8.417
51691SOL    HW256913   2.986   5.428   8.485
51692SOL     OW56914  13.907   4.984   1.786
51692SOL    HW156915  13.859   5.041   1.846
51692SOL    HW256916  13.981   5.038   1.757
51693SOL     OW56917   3.638   8.235   3.747
51693SOL    HW156918   3.599   8.205   3.829
51693SOL    HW256919   3.730   8.213   3.754
51694SOL     OW56920   8.181  10.726   9.672
51694SOL    HW156921   8.164  10.781   9.749
51694SOL    HW256922   8.190  10.638   9.709
51695SOL     OW56923   6.779   1.079   5.454
51695SOL    HW156924   6.775   1.069   5.549
51695SOL    HW256925   6.830   1.159   5.441
51696SOL     OW56926  14.087  13.513   5.380
51696SOL    HW156927  14.034  13.479   5.308
51696SOL    HW256928  14.025  13.567   5.430
51697SOL     OW56929   4.502  11.040   9.428
51697SOL    HW156930   4.525  11.100   9.500
51697SOL    HW256931   4.409  11.022   9.441
51698SOL     OW56932  14.120   7.208  10.309
51698SOL    HW156933  14.195   7.219  10.367
51698SOL    HW256934  14.048   7.253  10.355
51699SOL     OW56935   8.170   9.967   7.094
51699SOL    HW156936   8.127   9.976   7.178
51699SOL    HW256937   8.099   9.973   7.030
51700SOL     OW56938   2.009  14.439   7.365
51700SOL    HW156939   1.976  14.437   7.275
51700SOL    HW256940   1.977  14.522   7.400
51701SOL     OW56941   2.421  10.582   9.309
51701SOL    HW156942   2.394  10.573   9.401
51701SOL    HW256943   2.485  10.653   9.309
51702SOL     OW56944   8.605  10.094   7.376
51702SOL    HW156945   8.685  10.126   7.334
51702SOL    HW256946   8.535  10.118   7.315
51703SOL     OW56947  11.669  10.938   1.303
51703SOL    HW156948  11.640  10.858   1.346
51703SOL    HW256949  11.753  10.959   1.346
51704SOL     OW56950   7.537   2.424  14.387
51704SOL    HW156951   7.557   2.367  14.462
51704SOL    HW256952   7.456   2.468  14.410
51705SOL     OW56953   0.887  11.230   8.890
51705SOL    HW156954   0.964  11.191   8.931
51705SOL    HW256955   0.814  11.201   8.944
51706SOL     OW56956   2.544  10.436   3.862
51706SOL    HW156957   2.566  10.429   3.955
51706SOL    HW256958   2.569  10.352   3.824
51707SOL     OW56959   8.333   0.458  13.381
51707SOL    HW156960   8.329   0.423  13.470
51707SOL    HW256961   8.244   0.448  13.348
51708SOL     OW56962   1.890   0.755   0.245
51708SOL    HW156963   1.929   0.688   0.300
51708SOL    HW256964   1.955   0.772   0.178
51709SOL     OW56965   0.727   1.008   2.732
51709SOL    HW156966   0.807   0.964   2.764
51709SOL    HW256967   0.757   1.094   2.705
51710SOL     OW56968  13.556   6.091   3.549
51710SOL    HW156969  13.471   6.111   3.588
51710SOL    HW256970  13.618   6.146   3.597
51711SOL     OW56971  13.441   7.336   6.753
51711SOL    HW156972  13.366   7.298   6.799
51711SOL    HW256973  13.507   7.266   6.754
51712SOL     OW56974   8.846   5.213   4.681
51712SOL    HW156975   8.792   5.292   4.681
51712SOL    HW256976   8.934   5.244   4.698
51713SOL     OW56977   3.433   8.638   3.674
51713SOL    HW156978   3.416   8.654   3.581
51713SOL    HW256979   3.415   8.545   3.686
51714SOL     OW56980   0.880  10.993  10.414
51714SOL    HW156981   0.875  11.017  10.506
51714SOL    HW256982   0.788  10.988  10.386
51715SOL     OW56983   3.042  13.729  10.633
51715SOL    HW156984   3.131  13.736  10.599
51715SOL    HW256985   3.001  13.662  10.579
51716SOL     OW56986  13.081  13.995   6.950
51716SOL    HW156987  13.038  13.912   6.969
51716SOL    HW256988  13.010  14.055   6.927
51717SOL     OW56989  14.255   9.097  13.995
51717SOL    HW156990  14.303   9.163  13.945
51717SOL    HW256991  14.283   9.111  14.085
51718SOL     OW56992  11.312  13.664   5.429
51718SOL    HW156993  11.290  13.725   5.359
51718SOL    HW256994  11.295  13.577   5.392
51719SOL     OW56995   4.781   5.259  11.506
51719SOL    HW156996   4.786   5.261  11.601
51719SOL    HW256997   4.734   5.339  11.483
51720SOL     OW56998   2.996  11.320   3.933
51720SOL    HW156999   3.080  11.312   3.979
51720SOL    HW257000   3.014  11.285   3.846
51721SOL     OW57001   9.493  11.681   5.122
51721SOL    HW157002   9.411  11.657   5.079
51721SOL    HW257003   9.516  11.604   5.174
51722SOL     OW57004  11.626   2.259   2.582
51722SOL    HW157005  11.722   2.251   2.588
51722SOL    HW257006  11.594   2.234   2.668
51723SOL     OW57007   4.853  12.058  10.458
51723SOL    HW157008   4.790  12.023  10.396
51723SOL    HW257009   4.861  11.991  10.525
51724SOL     OW57010   0.715  10.944   7.738
51724SOL    HW157011   0.699  10.876   7.673
51724SOL    HW257012   0.629  10.981   7.757
51725SOL     OW57013  13.401   9.465   6.534
51725SOL    HW157014  13.421   9.518   6.612
51725SOL    HW257015  13.481   9.416   6.517
51726SOL     OW57016   9.462   7.057  14.191
51726SOL    HW157017   9.446   7.031  14.282
51726SOL    HW257018   9.472   6.974  14.144
51727SOL     OW57019   1.622   2.673   0.463
51727SOL    HW157020   1.674   2.753   0.470
51727SOL    HW257021   1.543   2.699   0.416
51728SOL     OW57022  10.086  11.380   8.714
51728SOL    HW157023  10.069  11.446   8.646
51728SOL    HW257024  10.174  11.400   8.745
51729SOL     OW57025   5.181  12.165  11.094
51729SOL    HW157026   5.204  12.074  11.074
51729SOL    HW257027   5.189  12.210  11.010
51730SOL     OW57028  12.006   9.914   2.450
51730SOL    HW157029  12.066   9.981   2.418
51730SOL    HW257030  12.053   9.871   2.521
51731SOL     OW57031   7.003  13.699   5.704
51731SOL    HW157032   7.011  13.612   5.743
51731SOL    HW257033   6.959  13.751   5.771
51732SOL     OW57034  10.958  11.481  14.279
51732SOL    HW157035  10.926  11.458  14.192
51732SOL    HW257036  10.888  11.533  14.318
51733SOL     OW57037   6.296   4.518  10.863
51733SOL    HW157038   6.216   4.562  10.893
51733SOL    HW257039   6.270   4.473  10.783
51734SOL     OW57040   2.502   5.919   4.250
51734SOL    HW157041   2.473   5.959   4.332
51734SOL    HW257042   2.575   5.862   4.276
51735SOL     OW57043  10.518   3.018   5.486
51735SOL    HW157044  10.511   2.926   5.462
51735SOL    HW257045  10.510   3.064   5.402
51736SOL     OW57046   0.756  11.446   8.386
51736SOL    HW157047   0.805  11.428   8.466
51736SOL    HW257048   0.687  11.507   8.413
51737SOL     OW57049   1.063  14.739  14.176
51737SOL    HW157050   1.002  14.666  14.162
51737SOL    HW257051   1.132  14.703  14.232
51738SOL     OW57052   6.992   3.281   2.214
51738SOL    HW157053   7.061   3.215   2.206
51738SOL    HW257054   7.023   3.355   2.162
51739SOL     OW57055  10.660   9.648   7.731
51739SOL    HW157056  10.638   9.721   7.790
51739SOL    HW257057  10.754   9.658   7.715
51740SOL     OW57058   2.753   2.608  13.264
51740SOL    HW157059   2.681   2.552  13.237
51740SOL    HW257060   2.817   2.603  13.193
51741SOL     OW57061   2.876   5.452  13.168
51741SOL    HW157062   2.782   5.467  13.173
51741SOL    HW257063   2.885   5.369  13.122
51742SOL     OW57064   9.660  11.949  13.280
51742SOL    HW157065   9.607  11.958  13.359
51742SOL    HW257066   9.677  11.855  13.273
51743SOL     OW57067   9.934   3.378  14.088
51743SOL    HW157068   9.870   3.310  14.111
51743SOL    HW257069   9.891   3.460  14.111
51744SOL     OW57070  13.168   0.044   9.677
51744SOL    HW157071  13.080   0.063   9.645
51744SOL    HW257072  13.223   0.044   9.599
51745SOL     OW57073   6.920   3.208   5.770
51745SOL    HW157074   6.901   3.156   5.692
51745SOL    HW257075   7.013   3.229   5.764
51746SOL     OW57076   1.987   0.253   1.597
51746SOL    HW157077   1.929   0.305   1.653
51746SOL    HW257078   1.994   0.169   1.643
51747SOL     OW57079   2.788   5.287   9.248
51747SOL    HW157080   2.705   5.306   9.204
51747SOL    HW257081   2.854   5.332   9.195
51748SOL     OW57082   2.849   2.453   0.614
51748SOL    HW157083   2.866   2.542   0.647
51748SOL    HW257084   2.932   2.407   0.623
51749SOL     OW57085   0.092  14.702   8.926
51749SOL    HW157086   0.106  14.667   9.013
51749SOL    HW257087   0.134  14.789   8.928
51750SOL     OW57088   2.726   4.369   7.592
51750SOL    HW157089   2.795   4.393   7.655
51750SOL    HW257090   2.763   4.296   7.543
51751SOL     OW57091  10.258   4.724  13.524
51751SOL    HW157092  10.273   4.786  13.453
51751SOL    HW257093  10.211   4.775  13.590
51752SOL     OW57094   2.418   1.493   6.560
51752SOL    HW157095   2.388   1.506   6.470
51752SOL    HW257096   2.344   1.522   6.613
51753SOL     OW57097   0.720   4.852   5.144
51753SOL    HW157098   0.759   4.765   5.152
51753SOL    HW257099   0.773   4.908   5.201
51754SOL     OW57100   0.285   2.276   3.740
51754SOL    HW157101   0.263   2.367   3.760
51754SOL    HW257102   0.234   2.255   3.662
51755SOL     OW57103   1.723   0.940   7.571
51755SOL    HW157104   1.815   0.915   7.579
51755SOL    HW257105   1.681   0.865   7.528
51756SOL     OW57106   2.716   1.164  10.800
51756SOL    HW157107   2.665   1.124  10.870
51756SOL    HW257108   2.655   1.223  10.755
51757SOL     OW57109   6.329   7.873   1.298
51757SOL    HW157110   6.368   7.943   1.351
51757SOL    HW257111   6.236   7.896   1.294
51758SOL     OW57112   9.620   6.639   1.950
51758SOL    HW157113   9.698   6.590   1.976
51758SOL    HW257114   9.563   6.636   2.028
51759SOL     OW57115   7.511   2.836   9.277
51759SOL    HW157116   7.602   2.832   9.308
51759SOL    HW257117   7.474   2.912   9.321
51760SOL     OW57118  10.985  14.740  13.493
51760SOL    HW157119  11.059  14.754  13.552
51760SOL    HW257120  10.908  14.764  13.544
51761SOL     OW57121  11.414   5.963   7.698
51761SOL    HW157122  11.372   5.907   7.762
51761SOL    HW257123  11.488   6.002   7.745
51762SOL     OW57124   8.406   0.237   2.398
51762SOL    HW157125   8.396   0.311   2.339
51762SOL    HW257126   8.401   0.160   2.342
51763SOL     OW57127   9.490   7.360  12.581
51763SOL    HW157128   9.436   7.334  12.655
51763SOL    HW257129   9.477   7.291  12.516
51764SOL     OW57130   4.540   6.174   3.239
51764SOL    HW157131   4.527   6.085   3.206
51764SOL    HW257132   4.517   6.168   3.332
51765SOL     OW57133   2.727   2.714   9.661
51765SOL    HW157134   2.806   2.703   9.713
51765SOL    HW257135   2.725   2.637   9.604
51766SOL     OW57136  10.265   9.381   7.078
51766SOL    HW157137  10.338   9.434   7.046
51766SOL    HW257138  10.306   9.314   7.132
51767SOL     OW57139  13.559   2.928   9.003
51767SOL    HW157140  13.488   2.871   8.976
51767SOL    HW257141  13.524   2.974   9.080
51768SOL     OW57142   8.247  12.994  13.813
51768SOL    HW157143   8.172  13.024  13.864
51768SOL    HW257144   8.312  12.969  13.879
51769SOL     OW57145   9.184   7.814   1.405
51769SOL    HW157146   9.235   7.748   1.359
51769SOL    HW257147   9.230   7.896   1.386
51770SOL     OW57148   2.923   1.979   5.980
51770SOL    HW157149   2.940   2.073   5.978
51770SOL    HW257150   2.954   1.947   5.895
51771SOL     OW57151  10.266   1.665   0.430
51771SOL    HW157152  10.337   1.615   0.390
51771SOL    HW257153  10.235   1.722   0.360
51772SOL     OW57154   0.797   4.216  13.292
51772SOL    HW157155   0.867   4.198  13.355
51772SOL    HW257156   0.824   4.297  13.248
51773SOL     OW57157  10.874  10.046  14.133
51773SOL    HW157158  10.812  10.099  14.083
51773SOL    HW257159  10.893   9.972  14.076
51774SOL     OW57160  11.964   8.295   7.410
51774SOL    HW157161  11.944   8.372   7.357
51774SOL    HW257162  11.884   8.243   7.408
51775SOL     OW57163   0.084   1.612   9.623
51775SOL    HW157164   0.046   1.690   9.663
51775SOL    HW257165   0.027   1.540   9.651
51776SOL     OW57166  11.149  13.984  11.897
51776SOL    HW157167  11.110  13.980  11.810
51776SOL    HW257168  11.162  13.892  11.921
51777SOL     OW57169   9.212   3.076  11.824
51777SOL    HW157170   9.291   3.045  11.778
51777SOL    HW257171   9.191   3.159  11.781
51778SOL     OW57172   5.003   9.139   4.511
51778SOL    HW157173   5.078   9.198   4.516
51778SOL    HW257174   4.995   9.118   4.418
51779SOL     OW57175  12.544   1.910  10.794
51779SOL    HW157176  12.450   1.905  10.776
51779SOL    HW257177  12.553   1.879  10.884
51780SOL     OW57178   9.239   8.123  11.035
51780SOL    HW157179   9.287   8.107  11.116
51780SOL    HW257180   9.285   8.196  10.993
51781SOL     OW57181   7.478  10.768   5.814
51781SOL    HW157182   7.518  10.777   5.900
51781SOL    HW257183   7.385  10.758   5.832
51782SOL     OW57184   5.476  13.752   1.997
51782SOL    HW157185   5.409  13.785   1.937
51782SOL    HW257186   5.483  13.659   1.976
51783SOL     OW57187   3.359  12.640   8.275
51783SOL    HW157188   3.400  12.585   8.208
51783SOL    HW257189   3.270  12.607   8.282
51784SOL     OW57190   7.649   4.081   2.029
51784SOL    HW157191   7.690   4.136   2.095
51784SOL    HW257192   7.688   4.110   1.946
51785SOL     OW57193   3.739  11.664  10.505
51785SOL    HW157194   3.675  11.730  10.479
51785SOL    HW257195   3.719  11.588  10.452
51786SOL     OW57196  12.563   2.278   5.264
51786SOL    HW157197  12.483   2.325   5.287
51786SOL    HW257198  12.548   2.247   5.175
51787SOL     OW57199   3.770   4.951   3.071
51787SOL    HW157200   3.769   5.045   3.052
51787SOL    HW257201   3.694   4.916   3.026
51788SOL     OW57202  14.562   6.648   2.421
51788SOL    HW157203  14.562   6.738   2.454
51788SOL    HW257204  14.470   6.627   2.405
51789SOL     OW57205   2.752  13.849   3.190
51789SOL    HW157206   2.702  13.923   3.225
51789SOL    HW257207   2.686  13.794   3.148
51790SOL     OW57208   2.350   8.138   4.981
51790SOL    HW157209   2.359   8.230   4.954
51790SOL    HW257210   2.281   8.103   4.925
51791SOL     OW57211   1.668  11.873   4.575
51791SOL    HW157212   1.699  11.825   4.652
51791SOL    HW257213   1.640  11.805   4.514
51792SOL     OW57214  12.084   7.980   1.509
51792SOL    HW157215  12.079   7.942   1.422
51792SOL    HW257216  12.050   8.069   1.498
51793SOL     OW57217   3.671   2.742   6.922
51793SOL    HW157218   3.684   2.648   6.910
51793SOL    HW257219   3.637   2.772   6.838
51794SOL     OW57220  10.769  10.154  11.941
51794SOL    HW157221  10.773  10.059  11.938
51794SOL    HW257222  10.730  10.174  12.026
51795SOL     OW57223  13.370  10.168   8.125
51795SOL    HW157224  13.284  10.205   8.144
51795SOL    HW257225  13.358  10.123   8.041
51796SOL     OW57226  10.687   6.288   8.771
51796SOL    HW157227  10.607   6.262   8.817
51796SOL    HW257228  10.758   6.245   8.819
51797SOL     OW57229   4.279   9.324   9.893
51797SOL    HW157230   4.192   9.285   9.891
51797SOL    HW257231   4.331   9.265   9.948
51798SOL     OW57232   9.934  12.076   8.760
51798SOL    HW157233   9.984  12.103   8.837
51798SOL    HW257234   9.943  11.980   8.758
51799SOL     OW57235   7.590   0.789   9.411
51799SOL    HW157236   7.644   0.795   9.490
51799SOL    HW257237   7.521   0.727   9.434
51800SOL     OW57238  10.599  13.614  13.384
51800SOL    HW157239  10.620  13.629  13.476
51800SOL    HW257240  10.586  13.519  13.377
51801SOL     OW57241   8.001  12.138   8.284
51801SOL    HW157242   7.906  12.132   8.297
51801SOL    HW257243   8.014  12.221   8.239
51802SOL     OW57244   6.913   1.663  11.560
51802SOL    HW157245   6.859   1.648  11.638
51802SOL    HW257246   6.868   1.616  11.490
51803SOL     OW57247   3.345   8.924  13.600
51803SOL    HW157248   3.377   8.997  13.548
51803SOL    HW257249   3.337   8.959  13.688
51804SOL     OW57250  10.990  11.835   8.251
51804SOL    HW157251  10.954  11.771   8.189
51804SOL    HW257252  10.936  11.827   8.329
51805SOL     OW57253  10.328  13.712   9.970
51805SOL    HW157254  10.390  13.751   9.909
51805SOL    HW257255  10.249  13.767   9.963
51806SOL     OW57256   5.266   7.973   6.415
51806SOL    HW157257   5.181   7.929   6.417
51806SOL    HW257258   5.324   7.911   6.371
51807SOL     OW57259   5.643  13.906  13.681
51807SOL    HW157260   5.724  13.855  13.681
51807SOL    HW257261   5.608  13.895  13.770
51808SOL     OW57262   4.204   3.942   7.361
51808SOL    HW157263   4.138   4.008   7.341
51808SOL    HW257264   4.286   3.979   7.329
51809SOL     OW57265   4.765   1.959   0.860
51809SOL    HW157266   4.829   1.975   0.929
51809SOL    HW257267   4.733   1.870   0.878
51810SOL     OW57268   6.496   5.661  11.278
51810SOL    HW157269   6.540   5.746  11.274
51810SOL    HW257270   6.502   5.628  11.188
51811SOL     OW57271  10.611   2.116  13.809
51811SOL    HW157272  10.576   2.040  13.855
51811SOL    HW257273  10.616   2.184  13.877
51812SOL     OW57274  12.633  12.270   5.365
51812SOL    HW157275  12.567  12.255   5.433
51812SOL    HW257276  12.705  12.313   5.411
51813SOL     OW57277   8.076   0.022  14.455
51813SOL    HW157278   8.057  14.875  14.364
51813SOL    HW257279   8.124  14.824  14.490
51814SOL     OW57280   9.348  11.123   7.702
51814SOL    HW157281   9.259  11.158   7.698
51814SOL    HW257282   9.346  11.044   7.648
51815SOL     OW57283   2.736   2.304   0.409
51815SOL    HW157284   2.643   2.322   0.420
51815SOL    HW257285   2.779   2.352   0.479
51816SOL     OW57286   4.553  11.545   2.209
51816SOL    HW157287   4.601  11.463   2.219
51816SOL    HW257288   4.461  11.519   2.210
51817SOL     OW57289  13.587   0.855  14.784
51817SOL    HW157290  13.495   0.852  14.759
51817SOL    HW257291  13.613   0.946  14.771
51818SOL     OW57292  12.654  13.499   7.709
51818SOL    HW157293  12.596  13.429   7.739
51818SOL    HW257294  12.677  13.546   7.789
51819SOL     OW57295  13.626   4.190  11.283
51819SOL    HW157296  13.570   4.234  11.219
51819SOL    HW257297  13.622   4.097  11.259
51820SOL     OW57298   5.230   4.361   2.944
51820SOL    HW157299   5.275   4.430   2.993
51820SOL    HW257300   5.209   4.295   3.009
51821SOL     OW57301  12.196   1.586   6.495
51821SOL    HW157302  12.182   1.569   6.588
51821SOL    HW257303  12.290   1.599   6.486
51822SOL     OW57304   2.720  13.754   0.931
51822SOL    HW157305   2.760  13.674   0.968
51822SOL    HW257306   2.794  13.814   0.918
51823SOL     OW57307   2.176   0.333   5.469
51823SOL    HW157308   2.231   0.334   5.548
51823SOL    HW257309   2.144   0.243   5.464
51824SOL     OW57310   6.284   7.577   0.715
51824SOL    HW157311   6.321   7.639   0.777
51824SOL    HW257312   6.298   7.618   0.629
51825SOL     OW57313   4.992  14.586   3.164
51825SOL    HW157314   5.023  14.498   3.143
51825SOL    HW257315   4.931  14.608   3.094
51826SOL     OW57316  10.393   4.559   8.343
51826SOL    HW157317  10.460   4.506   8.385
51826SOL    HW257318  10.371   4.627   8.407
51827SOL     OW57319  12.718   7.978   8.969
51827SOL    HW157320  12.751   7.948   9.054
51827SOL    HW257321  12.667   8.056   8.989
51828SOL     OW57322  14.434  10.058  14.518
51828SOL    HW157323  14.477   9.987  14.565
51828SOL    HW257324  14.390  10.015  14.444
51829SOL     OW57325  12.309  14.459   2.285
51829SOL    HW157326  12.328  14.505   2.367
51829SOL    HW257327  12.283  14.527   2.224
51830SOL     OW57328   0.010   6.268   2.782
51830SOL    HW157329  14.869   6.348   2.832
51830SOL    HW257330  14.867   6.293   2.691
51831SOL     OW57331   1.959   0.752   1.546
51831SOL    HW157332   2.001   0.668   1.559
51831SOL    HW257333   1.901   0.739   1.471
51832SOL     OW57334   8.131   5.426  13.819
51832SOL    HW157335   8.114   5.473  13.901
51832SOL    HW257336   8.052   5.437  13.767
51833SOL     OW57337   6.597   5.297  10.233
51833SOL    HW157338   6.678   5.346  10.223
51833SOL    HW257339   6.588   5.248  10.152
51834SOL     OW57340   8.784  13.892   7.898
51834SOL    HW157341   8.763  13.821   7.958
51834SOL    HW257342   8.879  13.887   7.887
51835SOL     OW57343  12.187   7.544   8.264
51835SOL    HW157344  12.112   7.501   8.222
51835SOL    HW257345  12.186   7.633   8.230
51836SOL     OW57346   9.724  10.733  11.251
51836SOL    HW157347   9.672  10.803  11.288
51836SOL    HW257348   9.748  10.764  11.164
51837SOL     OW57349   9.580   5.968   5.073
51837SOL    HW157350   9.578   6.027   5.148
51837SOL    HW257351   9.671   5.967   5.045
51838SOL     OW57352   8.050  12.639  14.814
51838SOL    HW157353   8.136  12.663  14.780
51838SOL    HW257354   8.030  12.556  14.771
51839SOL     OW57355   6.902   4.314   9.994
51839SOL    HW157356   6.884   4.263  10.073
51839SOL    HW257357   6.933   4.250   9.931
51840SOL     OW57358  13.024   8.662   6.257
51840SOL    HW157359  13.030   8.723   6.183
51840SOL    HW257360  12.940   8.618   6.245
51841SOL     OW57361   4.893   4.493   0.645
51841SOL    HW157362   4.912   4.536   0.562
51841SOL    HW257363   4.803   4.462   0.636
51842SOL     OW57364   3.151   0.886   0.046
51842SOL    HW157365   3.199   0.812   0.010
51842SOL    HW257366   3.217   0.955   0.056
51843SOL     OW57367   5.553  10.924   2.857
51843SOL    HW157368   5.504  10.924   2.940
51843SOL    HW257369   5.598  11.008   2.856
51844SOL     OW57370   2.856  12.241   6.677
51844SOL    HW157371   2.864  12.325   6.631
51844SOL    HW257372   2.835  12.178   6.608
51845SOL     OW57373   0.566  11.720   9.707
51845SOL    HW157374   0.568  11.790   9.642
51845SOL    HW257375   0.620  11.751   9.779
51846SOL     OW57376  12.430   1.850   5.659
51846SOL    HW157377  12.379   1.833   5.738
51846SOL    HW257378  12.520   1.830   5.684
51847SOL     OW57379   0.251  10.650   1.526
51847SOL    HW157380   0.290  10.644   1.439
51847SOL    HW257381   0.326  10.652   1.586
51848SOL     OW57382   1.678   4.242   6.260
51848SOL    HW157383   1.742   4.292   6.310
51848SOL    HW257384   1.704   4.151   6.272
51849SOL     OW57385  13.707   0.860   0.671
51849SOL    HW157386  13.650   0.816   0.734
51849SOL    HW257387  13.671   0.836   0.586
51850SOL     OW57388  14.096   1.981  11.579
51850SOL    HW157389  14.051   2.062  11.557
51850SOL    HW257390  14.026   1.916  11.590
51851SOL     OW57391  12.233   7.136  12.556
51851SOL    HW157392  12.179   7.066  12.518
51851SOL    HW257393  12.294   7.160  12.486
51852SOL     OW57394  14.789   1.174  14.328
51852SOL    HW157395  14.858   1.178  14.261
51852SOL    HW257396  14.825   1.222  14.403
51853SOL     OW57397  11.131   2.277  11.551
51853SOL    HW157398  11.069   2.350  11.554
51853SOL    HW257399  11.091   2.215  11.490
51854SOL     OW57400   6.908  12.948   7.968
51854SOL    HW157401   6.981  12.992   7.924
51854SOL    HW257402   6.851  12.919   7.896
51855SOL     OW57403  14.586   8.949   0.101
51855SOL    HW157404  14.578   8.942   0.006
51855SOL    HW257405  14.637   8.872   0.127
51856SOL     OW57406  10.643  12.489  11.532
51856SOL    HW157407  10.697  12.557  11.573
51856SOL    HW257408  10.678  12.481  11.443
51857SOL     OW57409  14.311   2.172   8.184
51857SOL    HW157410  14.293   2.137   8.271
51857SOL    HW257411  14.390   2.225   8.195
51858SOL     OW57412  13.407   9.255   9.176
51858SOL    HW157413  13.328   9.251   9.229
51858SOL    HW257414  13.376   9.276   9.088
51859SOL     OW57415   7.147   7.210  10.692
51859SOL    HW157416   7.172   7.294  10.653
51859SOL    HW257417   7.105   7.162  10.621
51860SOL     OW57418   0.599   3.660   0.144
51860SOL    HW157419   0.677   3.649   0.198
51860SOL    HW257420   0.578   3.572   0.112
51861SOL     OW57421   7.677   3.885   9.982
51861SOL    HW157422   7.725   3.861  10.061
51861SOL    HW257423   7.746   3.906   9.918
51862SOL     OW57424   1.976   2.760   4.313
51862SOL    HW157425   1.990   2.799   4.227
51862SOL    HW257426   2.058   2.772   4.359
51863SOL     OW57427  11.642   1.842   3.322
51863SOL    HW157428  11.642   1.912   3.388
51863SOL    HW257429  11.719   1.790   3.344
51864SOL     OW57430   2.286  11.458   9.558
51864SOL    HW157431   2.227  11.390   9.588
51864SOL    HW257432   2.336  11.417   9.487
51865SOL     OW57433   1.435   6.946  14.448
51865SOL    HW157434   1.526   6.920  14.454
51865SOL    HW257435   1.419   6.956  14.354
51866SOL     OW57436   0.564   5.695  13.130
51866SOL    HW157437   0.550   5.704  13.225
51866SOL    HW257438   0.636   5.754  13.111
51867SOL     OW57439   5.243   5.370   0.331
51867SOL    HW157440   5.241   5.301   0.265
51867SOL    HW257441   5.232   5.325   0.414
51868SOL     OW57442   9.073   8.813   8.993
51868SOL    HW157443   8.983   8.800   9.025
51868SOL    HW257444   9.082   8.752   8.921
51869SOL     OW57445   2.272  10.342  10.107
51869SOL    HW157446   2.366  10.332  10.123
51869SOL    HW257447   2.263  10.332  10.012
51870SOL     OW57448   2.499  11.673   0.159
51870SOL    HW157449   2.579  11.643   0.202
51870SOL    HW257450   2.441  11.598   0.162
51871SOL     OW57451   8.770   0.742   6.744
51871SOL    HW157452   8.720   0.817   6.775
51871SOL    HW257453   8.717   0.705   6.673
51872SOL     OW57454   8.318   4.827   6.471
51872SOL    HW157455   8.237   4.834   6.420
51872SOL    HW257456   8.360   4.748   6.438
51873SOL     OW57457   9.005   8.333   0.762
51873SOL    HW157458   8.937   8.265   0.763
51873SOL    HW257459   9.046   8.325   0.848
51874SOL     OW57460   4.237   1.607   4.325
51874SOL    HW157461   4.149   1.616   4.291
51874SOL    HW257462   4.294   1.636   4.254
51875SOL     OW57463  13.475   1.873  11.642
51875SOL    HW157464  13.516   1.950  11.604
51875SOL    HW257465  13.398   1.906  11.687
51876SOL     OW57466   9.278   9.382   1.404
51876SOL    HW157467   9.342   9.436   1.357
51876SOL    HW257468   9.312   9.293   1.397
51877SOL     OW57469  14.763  13.665   7.805
51877SOL    HW157470  14.827  13.595   7.812
51877SOL    HW257471  14.783  13.708   7.722
51878SOL     OW57472   5.767  14.336   5.369
51878SOL    HW157473   5.672  14.327   5.378
51878SOL    HW257474   5.798  14.355   5.458
51879SOL     OW57475  10.341   7.235  12.565
51879SOL    HW157476  10.330   7.259  12.657
51879SOL    HW257477  10.288   7.298  12.517
51880SOL     OW57478   6.878  11.389   4.316
51880SOL    HW157479   6.817  11.443   4.266
51880SOL    HW257480   6.823  11.335   4.373
51881SOL     OW57481   8.549   2.504   1.704
51881SOL    HW157482   8.463   2.501   1.662
51881SOL    HW257483   8.575   2.412   1.709
51882SOL     OW57484  10.638   1.218   3.302
51882SOL    HW157485  10.636   1.123   3.314
51882SOL    HW257486  10.608   1.231   3.212
51883SOL     OW57487   5.864   8.096   4.081
51883SOL    HW157488   5.929   8.090   4.152
51883SOL    HW257489   5.785   8.055   4.117
51884SOL     OW57490   8.810  10.127   3.718
51884SOL    HW157491   8.737  10.107   3.660
51884SOL    HW257492   8.793  10.073   3.796
51885SOL     OW57493   5.755   7.657   8.355
51885SOL    HW157494   5.790   7.630   8.270
51885SOL    HW257495   5.721   7.746   8.340
51886SOL     OW57496   9.877  13.920   6.162
51886SOL    HW157497   9.872  13.835   6.204
51886SOL    HW257498   9.802  13.969   6.195
51887SOL     OW57499  12.255   3.140   1.064
51887SOL    HW157500  12.269   3.100   1.150
51887SOL    HW257501  12.343   3.145   1.026
51888SOL     OW57502   3.174   1.097  11.129
51888SOL    HW157503   3.215   1.144  11.057
51888SOL    HW257504   3.114   1.035  11.086
51889SOL     OW57505   7.629   2.141   8.534
51889SOL    HW157506   7.632   2.193   8.454
51889SOL    HW257507   7.536   2.122   8.547
51890SOL     OW57508   6.567  10.333  12.708
51890SOL    HW157509   6.663  10.330  12.719
51890SOL    HW257510   6.535  10.256  12.755
51891SOL     OW57511   0.386   0.915   5.803
51891SOL    HW157512   0.440   0.837   5.815
51891SOL    HW257513   0.298   0.887   5.830
51892SOL     OW57514   9.618  11.052   9.568
51892SOL    HW157515   9.683  11.101   9.517
51892SOL    HW257516   9.538  11.105   9.562
51893SOL     OW57517  10.006   4.828  12.179
51893SOL    HW157518   9.993   4.833  12.274
51893SOL    HW257519  10.098   4.805  12.169
51894SOL     OW57520  14.516   5.124   9.671
51894SOL    HW157521  14.605   5.091   9.659
51894SOL    HW257522  14.462   5.075   9.609
51895SOL     OW57523  10.684   9.453   3.259
51895SOL    HW157524  10.614   9.413   3.309
51895SOL    HW257525  10.728   9.379   3.216
51896SOL     OW57526   1.992   9.604   3.210
51896SOL    HW157527   1.936   9.536   3.172
51896SOL    HW257528   2.067   9.558   3.245
51897SOL     OW57529  10.640  14.252  13.954
51897SOL    HW157530  10.652  14.307  14.031
51897SOL    HW257531  10.572  14.189  13.979
51898SOL     OW57532   5.672   9.508   4.996
51898SOL    HW157533   5.595   9.517   5.053
51898SOL    HW257534   5.679   9.415   4.978
51899SOL     OW57535  11.609   4.134  14.589
51899SOL    HW157536  11.548   4.203  14.561
51899SOL    HW257537  11.593   4.063  14.527
51900SOL     OW57538  11.006  14.737   9.572
51900SOL    HW157539  10.927  14.719   9.623
51900SOL    HW257540  11.071  14.674   9.604
51901SOL     OW57541   8.596   6.329  12.241
51901SOL    HW157542   8.579   6.374  12.159
51901SOL    HW257543   8.536   6.255  12.241
51902SOL     OW57544   2.326  13.688   0.507
51902SOL    HW157545   2.422  13.679   0.513
51902SOL    HW257546   2.296  13.601   0.480
51903SOL     OW57547   4.357   4.193  14.252
51903SOL    HW157548   4.388   4.120  14.305
51903SOL    HW257549   4.369   4.165  14.162
51904SOL     OW57550   9.740   1.877   4.893
51904SOL    HW157551   9.791   1.807   4.852
51904SOL    HW257552   9.780   1.958   4.860
51905SOL     OW57553   4.638   0.216  10.960
51905SOL    HW157554   4.728   0.249  10.953
51905SOL    HW257555   4.636   0.141  10.901
51906SOL     OW57556   8.668  13.736   1.524
51906SOL    HW157557   8.705  13.806   1.469
51906SOL    HW257558   8.719  13.658   1.501
51907SOL     OW57559  10.495   5.499   1.602
51907SOL    HW157560  10.455   5.546   1.675
51907SOL    HW257561  10.483   5.407   1.623
51908SOL     OW57562   4.320   5.659  13.202
51908SOL    HW157563   4.404   5.703  13.193
51908SOL    HW257564   4.309   5.611  13.119
51909SOL     OW57565  14.860  11.752   5.510
51909SOL    HW157566   0.034  11.685   5.555
51909SOL    HW257567   0.020  11.835   5.541
51910SOL     OW57568  13.954   0.289   4.416
51910SOL    HW157569  13.953   0.385   4.416
51910SOL    HW257570  13.953   0.265   4.509
51911SOL     OW57571   0.254  12.064   0.506
51911SOL    HW157572   0.159  12.058   0.508
51911SOL    HW257573   0.272  12.158   0.518
51912SOL     OW57574   5.379   3.193   3.375
51912SOL    HW157575   5.304   3.144   3.409
51912SOL    HW257576   5.446   3.127   3.360
51913SOL     OW57577   3.716   1.090  14.679
51913SOL    HW157578   3.641   1.110  14.622
51913SOL    HW257579   3.712   0.995  14.689
51914SOL     OW57580  13.681   1.807   4.102
51914SOL    HW157581  13.712   1.764   4.182
51914SOL    HW257582  13.757   1.855   4.070
51915SOL     OW57583   2.424  11.082   3.031
51915SOL    HW157584   2.505  11.084   2.980
51915SOL    HW257585   2.452  11.062   3.121
51916SOL     OW57586  11.083   8.127   3.896
51916SOL    HW157587  11.022   8.115   3.823
51916SOL    HW257588  11.154   8.179   3.859
51917SOL     OW57589   6.994  14.098  11.408
51917SOL    HW157590   7.033  14.094  11.320
51917SOL    HW257591   7.005  14.009  11.442
51918SOL     OW57592  10.658   9.448  13.542
51918SOL    HW157593  10.683   9.535  13.512
51918SOL    HW257594  10.697   9.389  13.477
51919SOL     OW57595   0.039  11.284  11.979
51919SOL    HW157596  14.868  11.227  11.918
51919SOL    HW257597  14.847  11.326  12.031
51920SOL     OW57598   1.688  13.893  12.036
51920SOL    HW157599   1.655  13.980  12.014
51920SOL    HW257600   1.717  13.857  11.952
51921SOL     OW57601   6.102   6.196   4.684
51921SOL    HW157602   6.074   6.213   4.773
51921SOL    HW257603   6.074   6.106   4.666
51922SOL     OW57604  14.194   5.395  14.648
51922SOL    HW157605  14.198   5.375  14.554
51922SOL    HW257606  14.199   5.309  14.691
51923SOL     OW57607   8.246   8.009   7.931
51923SOL    HW157608   8.197   8.092   7.933
51923SOL    HW257609   8.196   7.951   7.989
51924SOL     OW57610  13.144  11.908  10.440
51924SOL    HW157611  13.201  11.966  10.490
51924SOL    HW257612  13.071  11.889  10.499
51925SOL     OW57613   1.733   0.600  14.838
51925SOL    HW157614   1.685   0.674  14.876
51925SOL    HW257615   1.767   0.633  14.755
51926SOL     OW57616  13.292   0.565   6.895
51926SOL    HW157617  13.342   0.485   6.880
51926SOL    HW257618  13.335   0.607   6.969
51927SOL     OW57619  11.086  10.758   7.386
51927SOL    HW157620  11.013  10.729   7.440
51927SOL    HW257621  11.156  10.696   7.407
51928SOL     OW57622  14.090   0.529   4.732
51928SOL    HW157623  14.171   0.528   4.681
51928SOL    HW257624  14.084   0.618   4.766
51929SOL     OW57625  14.476  10.180   2.190
51929SOL    HW157626  14.487  10.271   2.218
51929SOL    HW257627  14.548  10.166   2.128
51930SOL     OW57628  11.596  14.738   5.605
51930SOL    HW157629  11.552  14.659   5.637
51930SOL    HW257630  11.678  14.742   5.653
51931SOL     OW57631  14.347   9.594   3.586
51931SOL    HW157632  14.351   9.665   3.522
51931SOL    HW257633  14.265   9.608   3.633
51932SOL     OW57634   6.067   6.074  12.330
51932SOL    HW157635   6.112   6.123  12.261
51932SOL    HW257636   6.121   6.087  12.408
51933SOL     OW57637   7.231   9.595   9.702
51933SOL    HW157638   7.187   9.675   9.731
51933SOL    HW257639   7.216   9.591   9.608
51934SOL     OW57640  14.761   4.142   0.001
51934SOL    HW157641  14.764   4.119  14.784
51934SOL    HW257642  14.669   4.140   0.023
51935SOL     OW57643   2.250  12.306   1.077
51935SOL    HW157644   2.204  12.247   1.136
51935SOL    HW257645   2.262  12.256   0.997
51936SOL     OW57646   1.008   0.415   8.005
51936SOL    HW157647   1.026   0.439   8.096
51936SOL    HW257648   0.913   0.414   7.999
51937SOL     OW57649   1.438  14.335  14.354
51937SOL    HW157650   1.447  14.366  14.263
51937SOL    HW257651   1.489  14.398  14.405
51938SOL     OW57652   0.404   1.867  10.791
51938SOL    HW157653   0.332   1.866  10.727
51938SOL    HW257654   0.363   1.896  10.872
51939SOL     OW57655   9.136  10.450  11.292
51939SOL    HW157656   9.080  10.452  11.370
51939SOL    HW257657   9.220  10.417  11.324
51940SOL     OW57658  10.445  13.020  14.057
51940SOL    HW157659  10.385  13.088  14.088
51940SOL    HW257660  10.456  12.962  14.132
51941SOL     OW57661  11.209  13.129   2.100
51941SOL    HW157662  11.189  13.200   2.039
51941SOL    HW257663  11.124  13.092   2.122
51942SOL     OW57664   3.853  11.766  10.724
51942SOL    HW157665   3.839  11.681  10.767
51942SOL    HW257666   3.829  11.750  10.632
51943SOL     OW57667   0.063   8.968   5.066
51943SOL    HW157668   0.128   8.979   5.135
51943SOL    HW257669   0.101   8.903   5.007
51944SOL     OW57670  11.753  13.797   3.138
51944SOL    HW157671  11.778  13.705   3.137
51944SOL    HW257672  11.718  13.812   3.226
51945SOL     OW57673   4.857   0.160   5.079
51945SOL    HW157674   4.808   0.097   5.026
51945SOL    HW257675   4.948   0.148   5.052
51946SOL     OW57676  11.655   9.023   8.747
51946SOL    HW157677  11.637   9.025   8.653
51946SOL    HW257678  11.730   8.965   8.756
51947SOL     OW57679  12.565  13.440   9.664
51947SOL    HW157680  12.618  13.365   9.692
51947SOL    HW257681  12.629  13.506   9.637
51948SOL     OW57682  10.712   4.988   1.000
51948SOL    HW157683  10.767   5.056   1.039
51948SOL    HW257684  10.622   5.021   1.010
51949SOL     OW57685  10.001   9.472   9.191
51949SOL    HW157686  10.047   9.548   9.156
51949SOL    HW257687   9.979   9.496   9.281
51950SOL     OW57688   8.779  11.837  14.863
51950SOL    HW157689   8.698  11.790  14.844
51950SOL    HW257690   8.846  11.793  14.810
51951SOL     OW57691  14.102   2.652   4.498
51951SOL    HW157692  14.157   2.634   4.422
51951SOL    HW257693  14.029   2.590   4.490
51952SOL     OW57694   2.832   9.833  14.278
51952SOL    HW157695   2.812   9.852  14.187
51952SOL    HW257696   2.788   9.749  14.295
51953SOL     OW57697   3.334   1.106  10.884
51953SOL    HW157698   3.327   1.029  10.828
51953SOL    HW257699   3.290   1.176  10.835
51954SOL     OW57700   1.815   7.065   4.775
51954SOL    HW157701   1.907   7.078   4.798
51954SOL    HW257702   1.786   6.993   4.831
51955SOL     OW57703  12.200   4.956   2.702
51955SOL    HW157704  12.293   4.938   2.705
51955SOL    HW257705  12.159   4.871   2.689
51956SOL     OW57706   7.942   5.382  13.335
51956SOL    HW157707   7.975   5.295  13.355
51956SOL    HW257708   7.848   5.378  13.356
51957SOL     OW57709  13.321   3.412   3.644
51957SOL    HW157710  13.344   3.480   3.580
51957SOL    HW257711  13.401   3.399   3.695
51958SOL     OW57712   3.615   4.048  11.014
51958SOL    HW157713   3.636   4.131  10.971
51958SOL    HW257714   3.690   3.992  10.996
51959SOL     OW57715  14.381   0.322   3.216
51959SOL    HW157716  14.359   0.316   3.123
51959SOL    HW257717  14.317   0.385   3.251
51960SOL     OW57718   3.661   7.974   8.915
51960SOL    HW157719   3.622   7.887   8.914
51960SOL    HW257720   3.684   7.990   9.007
51961SOL     OW57721  10.363   5.090  12.569
51961SOL    HW157722  10.433   5.051  12.621
51961SOL    HW257723  10.401   5.171  12.534
51962SOL     OW57724   7.073   4.833  14.698
51962SOL    HW157725   7.045   4.742  14.693
51962SOL    HW257726   7.153   4.837  14.645
51963SOL     OW57727  12.426   4.959   1.186
51963SOL    HW157728  12.485   4.890   1.156
51963SOL    HW257729  12.483   5.020   1.234
51964SOL     OW57730  13.744  10.797  11.573
51964SOL    HW157731  13.730  10.843  11.656
51964SOL    HW257732  13.673  10.825  11.517
51965SOL     OW57733   7.239   6.058   8.045
51965SOL    HW157734   7.249   6.087   8.136
51965SOL    HW257735   7.165   5.998   8.047
51966SOL     OW57736  12.342   7.942   5.666
51966SOL    HW157737  12.262   7.965   5.714
51966SOL    HW257738  12.413   7.966   5.725
51967SOL     OW57739   4.270   6.120  12.955
51967SOL    HW157740   4.223   6.039  12.973
51967SOL    HW257741   4.362   6.098  12.969
51968SOL     OW57742  11.285   4.962  12.143
51968SOL    HW157743  11.363   4.911  12.119
51968SOL    HW257744  11.258   4.926  12.227
51969SOL     OW57745   1.655   3.017   7.034
51969SOL    HW157746   1.641   3.006   6.940
51969SOL    HW257747   1.692   3.105   7.042
51970SOL     OW57748   1.081  12.249   1.046
51970SOL    HW157749   1.055  12.272   1.136
51970SOL    HW257750   1.123  12.329   1.013
51971SOL     OW57751   3.994   9.447   5.415
51971SOL    HW157752   3.949   9.423   5.496
51971SOL    HW257753   4.083   9.468   5.442
51972SOL     OW57754  14.767   3.009  10.218
51972SOL    HW157755  14.750   2.941  10.153
51972SOL    HW257756  14.862   3.015  10.222
51973SOL     OW57757  14.388   2.012   6.633
51973SOL    HW157758  14.319   1.996   6.568
51973SOL    HW257759  14.457   2.056   6.584
51974SOL     OW57760  12.080  11.585   1.485
51974SOL    HW157761  12.061  11.576   1.578
51974SOL    HW257762  12.103  11.678   1.475
51975SOL     OW57763  13.505   5.576  13.963
51975SOL    HW157764  13.509   5.564  14.058
51975SOL    HW257765  13.466   5.496  13.929
51976SOL     OW57766   7.314   7.211  14.795
51976SOL    HW157767   7.310   7.123  14.757
51976SOL    HW257768   7.312   7.270  14.719
51977SOL     OW57769  11.476   0.070   4.510
51977SOL    HW157770  11.459   0.080   4.417
51977SOL    HW257771  11.440   0.149   4.550
51978SOL     OW57772  12.816   1.390   6.635
51978SOL    HW157773  12.825   1.343   6.718
51978SOL    HW257774  12.885   1.455   6.636
51979SOL     OW57775   2.529   5.030  13.563
51979SOL    HW157776   2.442   5.003  13.589
51979SOL    HW257777   2.552   4.972  13.490
51980SOL     OW57778   9.875  14.443  11.615
51980SOL    HW157779   9.803  14.398  11.659
51980SOL    HW257780   9.940  14.456  11.684
51981SOL     OW57781   0.141   9.844   5.796
51981SOL    HW157782   0.097   9.777   5.744
51981SOL    HW257783   0.190   9.795   5.862
51982SOL     OW57784   6.853  14.073   3.830
51982SOL    HW157785   6.760  14.052   3.818
51982SOL    HW257786   6.858  14.167   3.816
51983SOL     OW57787   9.086  11.183  14.799
51983SOL    HW157788   9.070  11.138  14.717
51983SOL    HW257789   9.176  11.215  14.792
51984SOL     OW57790  12.353  10.687  11.922
51984SOL    HW157791  12.366  10.703  11.829
51984SOL    HW257792  12.258  10.693  11.934
51985SOL     OW57793   6.649   0.363   0.567
51985SOL    HW157794   6.653   0.282   0.617
51985SOL    HW257795   6.605   0.339   0.486
51986SOL     OW57796   9.563  14.154   0.728
51986SOL    HW157797   9.623  14.185   0.660
51986SOL    HW257798   9.476  14.162   0.688
51987SOL     OW57799   4.721   9.277  14.772
51987SOL    HW157800   4.660   9.340  14.810
51987SOL    HW257801   4.712   9.290  14.677
51988SOL     OW57802  10.495   3.451   9.402
51988SOL    HW157803  10.554   3.380   9.378
51988SOL    HW257804  10.553   3.523   9.428
51989SOL     OW57805  10.151  14.004  13.139
51989SOL    HW157806  10.216  14.019  13.208
51989SOL    HW257807  10.113  14.091  13.122
51990SOL     OW57808   7.054   5.147   6.760
51990SOL    HW157809   7.021   5.061   6.785
51990SOL    HW257810   7.128   5.128   6.702
51991SOL     OW57811   4.191   7.203   5.018
51991SOL    HW157812   4.165   7.119   5.055
51991SOL    HW257813   4.287   7.201   5.019
51992SOL     OW57814  12.793  10.673   9.743
51992SOL    HW157815  12.716  10.658   9.799
51992SOL    HW257816  12.866  10.678   9.805
51993SOL     OW57817   9.656  14.747  12.934
51993SOL    HW157818   9.578  14.794  12.903
51993SOL    HW257819   9.648  14.748  13.029
51994SOL     OW57820  10.885   3.382   9.035
51994SOL    HW157821  10.888   3.296   9.078
51994SOL    HW257822  10.956   3.431   9.076
51995SOL     OW57823   3.706   4.311  10.987
51995SOL    HW157824   3.786   4.276  11.028
51995SOL    HW257825   3.643   4.318  11.058
51996SOL     OW57826   0.439   5.768  10.792
51996SOL    HW157827   0.510   5.752  10.729
51996SOL    HW257828   0.371   5.705  10.769
51997SOL     OW57829   0.590  11.955   6.719
51997SOL    HW157830   0.552  11.867   6.718
51997SOL    HW257831   0.639  11.959   6.801
51998SOL     OW57832  11.020   8.011   2.516
51998SOL    HW157833  10.927   8.011   2.494
51998SOL    HW257834  11.057   8.080   2.462
51999SOL     OW57835   5.482   3.182  13.110
51999SOL    HW157836   5.449   3.162  13.197
51999SOL    HW257837   5.539   3.109  13.088
52000SOL     OW57838   7.240   0.673  10.388
52000SOL    HW157839   7.320   0.625  10.369
52000SOL    HW257840   7.252   0.759  10.347
52001SOL     OW57841  11.419   0.059   6.804
52001SOL    HW157842  11.397  14.843   6.815
52001SOL    HW257843  11.509   0.059   6.772
52002SOL     OW57844   8.337   2.419  10.512
52002SOL    HW157845   8.421   2.383  10.485
52002SOL    HW257846   8.294   2.444  10.431
52003SOL     OW57847   9.498   1.834  11.855
52003SOL    HW157848   9.502   1.746  11.820
52003SOL    HW257849   9.494   1.822  11.950
52004SOL     OW57850  11.242  11.493   3.337
52004SOL    HW157851  11.165  11.542   3.366
52004SOL    HW257852  11.212  11.445   3.260
52005SOL     OW57853  11.426   2.716   5.986
52005SOL    HW157854  11.393   2.629   6.011
52005SOL    HW257855  11.381   2.777   6.044
52006SOL     OW57856  13.142   7.230  11.351
52006SOL    HW157857  13.233   7.231  11.319
52006SOL    HW257858  13.094   7.284  11.288
52007SOL     OW57859  13.104   4.474  12.972
52007SOL    HW157860  13.112   4.380  12.986
52007SOL    HW257861  13.033   4.501  13.030
52008SOL     OW57862  12.769  10.172  14.821
52008SOL    HW157863  12.813  10.252  14.850
52008SOL    HW257864  12.791  10.164  14.729
52009SOL     OW57865  10.182   9.842   1.054
52009SOL    HW157866  10.190   9.850   0.959
52009SOL    HW257867  10.268   9.814   1.083
52010SOL     OW57868   3.855  11.363  10.130
52010SOL    HW157869   3.835  11.396  10.043
52010SOL    HW257870   3.883  11.272  10.116
52011SOL     OW57871  14.110  13.278  10.966
52011SOL    HW157872  14.030  13.275  11.019
52011SOL    HW257873  14.124  13.371  10.949
52012SOL     OW57874   7.233   7.564   5.028
52012SOL    HW157875   7.293   7.569   4.954
52012SOL    HW257876   7.179   7.487   5.010
52013SOL     OW57877   8.821  13.890   8.271
52013SOL    HW157878   8.761  13.884   8.196
52013SOL    HW257879   8.774  13.849   8.343
52014SOL     OW57880  14.068   7.749   0.469
52014SOL    HW157881  14.104   7.811   0.531
52014SOL    HW257882  14.096   7.781   0.383
52015SOL     OW57883   4.113   2.995   3.768
52015SOL    HW157884   4.089   3.086   3.783
52015SOL    HW257885   4.165   2.996   3.688
52016SOL     OW57886  14.773  13.820   3.993
52016SOL    HW157887  14.834  13.843   4.064
52016SOL    HW257888  14.823  13.762   3.936
52017SOL     OW57889   7.584   5.129   9.488
52017SOL    HW157890   7.632   5.051   9.513
52017SOL    HW257891   7.648   5.184   9.443
52018SOL     OW57892   5.039   1.808   7.378
52018SOL    HW157893   5.107   1.852   7.429
52018SOL    HW257894   5.065   1.822   7.287
52019SOL     OW57895  13.710   4.252   0.366
52019SOL    HW157896  13.643   4.308   0.327
52019SOL    HW257897  13.752   4.208   0.291
52020SOL     OW57898   8.563  13.602   3.365
52020SOL    HW157899   8.596  13.658   3.435
52020SOL    HW257900   8.494  13.654   3.322
52021SOL     OW57901  14.813  12.160  12.925
52021SOL    HW157902  14.834  12.252  12.909
52021SOL    HW257903  14.754  12.161  13.000
52022SOL     OW57904  10.533   7.186   2.011
52022SOL    HW157905  10.565   7.274   1.988
52022SOL    HW257906  10.559   7.176   2.103
52023SOL     OW57907  10.365   5.584   4.581
52023SOL    HW157908  10.410   5.666   4.602
52023SOL    HW257909  10.414   5.549   4.507
52024SOL     OW57910   4.513  13.574   4.793
52024SOL    HW157911   4.475  13.533   4.871
52024SOL    HW257912   4.452  13.552   4.723
52025SOL     OW57913   7.142  12.143  11.871
52025SOL    HW157914   7.219  12.157  11.816
52025SOL    HW257915   7.107  12.059  11.841
52026SOL     OW57916  10.070   3.888   7.959
52026SOL    HW157917  10.105   3.840   7.884
52026SOL    HW257918   9.989   3.841   7.982
52027SOL     OW57919   0.886  10.781  11.360
52027SOL    HW157920   0.823  10.709  11.355
52027SOL    HW257921   0.833  10.858  11.384
52028SOL     OW57922  13.731  11.395  12.581
52028SOL    HW157923  13.696  11.327  12.639
52028SOL    HW257924  13.669  11.467  12.589
52029SOL     OW57925  11.091   3.179  14.211
52029SOL    HW157926  11.057   3.096  14.178
52029SOL    HW257927  11.035   3.245  14.171
52030SOL     OW57928  12.083   8.799   6.305
52030SOL    HW157929  12.015   8.762   6.249
52030SOL    HW257930  12.054   8.781   6.394
52031SOL     OW57931   8.697   3.780   1.377
52031SOL    HW157932   8.624   3.832   1.409
52031SOL    HW257933   8.694   3.700   1.429
52032SOL     OW57934   7.887   3.313  11.273
52032SOL    HW157935   7.795   3.322  11.296
52032SOL    HW257936   7.933   3.370  11.334
52033SOL     OW57937  14.615   2.104   7.082
52033SOL    HW157938  14.678   2.044   7.121
52033SOL    HW257939  14.619   2.085   6.988
52034SOL     OW57940   1.041   4.503  13.093
52034SOL    HW157941   0.946   4.500  13.096
52034SOL    HW257942   1.068   4.412  13.101
52035SOL     OW57943   2.601   7.395   8.484
52035SOL    HW157944   2.600   7.332   8.556
52035SOL    HW257945   2.545   7.356   8.417
52036SOL     OW57946   5.016  13.802   3.525
52036SOL    HW157947   4.999  13.735   3.592
52036SOL    HW257948   4.958  13.874   3.548
52037SOL     OW57949   2.770   0.611   5.631
52037SOL    HW157950   2.758   0.519   5.606
52037SOL    HW257951   2.861   0.630   5.606
52038SOL     OW57952   2.820  10.980   6.846
52038SOL    HW157953   2.749  11.007   6.788
52038SOL    HW257954   2.887  11.049   6.836
52039SOL     OW57955   5.516  12.562  14.776
52039SOL    HW157956   5.422  12.576  14.786
52039SOL    HW257957   5.549  12.548  14.865
52040SOL     OW57958  11.639   8.638  11.643
52040SOL    HW157959  11.694   8.559  11.643
52040SOL    HW257960  11.601   8.640  11.731
52041SOL     OW57961   0.274   9.794   4.886
52041SOL    HW157962   0.222   9.791   4.966
52041SOL    HW257963   0.277   9.703   4.856
52042SOL     OW57964  14.344  14.072   8.361
52042SOL    HW157965  14.382  14.022   8.288
52042SOL    HW257966  14.358  14.164   8.336
52043SOL     OW57967  11.516   6.073   8.621
52043SOL    HW157968  11.448   6.131   8.587
52043SOL    HW257969  11.531   6.104   8.710
52044SOL     OW57970   1.538  11.968  14.785
52044SOL    HW157971   1.546  12.048  14.837
52044SOL    HW257972   1.578  11.900  14.840
52045SOL     OW57973  11.818  12.048   6.714
52045SOL    HW157974  11.726  12.058   6.690
52045SOL    HW257975  11.861  12.125   6.676
52046SOL     OW57976   1.348  14.209   5.317
52046SOL    HW157977   1.402  14.272   5.270
52046SOL    HW257978   1.285  14.177   5.252
52047SOL     OW57979   4.732   4.201   8.675
52047SOL    HW157980   4.732   4.121   8.623
52047SOL    HW257981   4.671   4.259   8.629
52048SOL     OW57982  11.295   2.756   6.673
52048SOL    HW157983  11.205   2.786   6.680
52048SOL    HW257984  11.341   2.799   6.745
52049SOL     OW57985   4.065   0.911   5.068
52049SOL    HW157986   4.089   0.843   5.130
52049SOL    HW257987   4.123   0.898   4.993
52050SOL     OW57988   9.543   2.015   1.725
52050SOL    HW157989   9.526   2.059   1.642
52050SOL    HW257990   9.474   1.948   1.731
52051SOL     OW57991   7.621   5.049   8.458
52051SOL    HW157992   7.624   4.975   8.397
52051SOL    HW257993   7.588   5.011   8.539
52052SOL     OW57994   0.194  10.914   4.197
52052SOL    HW157995   0.206  10.879   4.285
52052SOL    HW257996   0.282  10.939   4.169
52053SOL     OW57997  11.889   0.366   1.792
52053SOL    HW157998  11.829   0.344   1.721
52053SOL    HW257999  11.849   0.328   1.870
52054SOL     OW58000  14.315   2.864  13.218
52054SOL    HW158001  14.251   2.859  13.147
52054SOL    HW258002  14.361   2.946  13.204
52055SOL     OW58003  13.822   5.296   8.163
52055SOL    HW158004  13.858   5.311   8.251
52055SOL    HW258005  13.821   5.382   8.122
52056SOL     OW58006  13.526   5.530   6.950
52056SOL    HW158007  13.547   5.593   6.881
52056SOL    HW258008  13.483   5.458   6.904
52057SOL     OW58009   7.766  13.568  11.107
52057SOL    HW158010   7.861  13.568  11.096
52057SOL    HW258011   7.733  13.609  11.026
52058SOL     OW58012   2.541   2.792   5.420
52058SOL    HW158013   2.576   2.854   5.484
52058SOL    HW258014   2.463   2.755   5.461
52059SOL     OW58015   6.076   5.837  10.240
52059SOL    HW158016   6.105   5.903  10.177
52059SOL    HW258017   6.151   5.826  10.298
52060SOL     OW58018   9.229  13.379   6.225
52060SOL    HW158019   9.205  13.299   6.178
52060SOL    HW258020   9.166  13.444   6.196
52061SOL     OW58021  10.112   6.757   6.827
52061SOL    HW158022  10.157   6.706   6.759
52061SOL    HW258023  10.151   6.729   6.909
52062SOL     OW58024   3.336   3.893   6.561
52062SOL    HW158025   3.392   3.967   6.581
52062SOL    HW258026   3.396   3.823   6.537
52063SOL     OW58027   1.905   2.962   8.804
52063SOL    HW158028   1.835   2.970   8.870
52063SOL    HW258029   1.908   3.048   8.763
52064SOL     OW58030  10.998  13.364   4.138
52064SOL    HW158031  11.004  13.445   4.087
52064SOL    HW258032  11.088  13.345   4.165
52065SOL     OW58033  11.435   0.855   6.215
52065SOL    HW158034  11.420   0.945   6.186
52065SOL    HW258035  11.514   0.828   6.169
52066SOL     OW58036   7.315   7.549   0.670
52066SOL    HW158037   7.330   7.457   0.694
52066SOL    HW258038   7.284   7.545   0.579
52067SOL     OW58039   1.669  11.380   1.654
52067SOL    HW158040   1.743  11.373   1.594
52067SOL    HW258041   1.699  11.338   1.735
52068SOL     OW58042   0.880  12.904   1.801
52068SOL    HW158043   0.921  12.904   1.887
52068SOL    HW258044   0.836  12.989   1.795
52069SOL     OW58045   9.764  10.705   7.657
52069SOL    HW158046   9.843  10.699   7.711
52069SOL    HW258047   9.693  10.687   7.718
52070SOL     OW58048   1.171   5.508   7.805
52070SOL    HW158049   1.076   5.500   7.811
52070SOL    HW258050   1.190   5.493   7.712
52071SOL     OW58051  11.377   9.835  13.447
52071SOL    HW158052  11.398   9.742  13.436
52071SOL    HW258053  11.379   9.850  13.541
52072SOL     OW58054   9.168   7.028   1.941
52072SOL    HW158055   9.201   7.118   1.938
52072SOL    HW258056   9.180   7.001   2.032
52073SOL     OW58057   8.865   6.032   5.934
52073SOL    HW158058   8.852   6.099   6.001
52073SOL    HW258059   8.790   5.973   5.946
52074SOL     OW58060   4.582   1.207   8.541
52074SOL    HW158061   4.634   1.151   8.484
52074SOL    HW258062   4.575   1.159   8.623
52075SOL     OW58063  11.831  13.471  14.010
52075SOL    HW158064  11.887  13.467  13.932
52075SOL    HW258065  11.851  13.391  14.058
52076SOL     OW58066   9.079   2.751   4.949
52076SOL    HW158067   9.154   2.699   4.921
52076SOL    HW258068   9.107   2.791   5.031
52077SOL     OW58069  13.229  12.735   9.436
52077SOL    HW158070  13.243  12.648   9.474
52077SOL    HW258071  13.269  12.795   9.499
52078SOL     OW58072   4.318   3.592  10.388
52078SOL    HW158073   4.322   3.497  10.386
52078SOL    HW258074   4.344   3.620  10.300
52079SOL     OW58075   1.435   8.089  13.644
52079SOL    HW158076   1.362   8.084  13.582
52079SOL    HW258077   1.395   8.081  13.730
52080SOL     OW58078   3.554   9.673   1.098
52080SOL    HW158079   3.554   9.578   1.108
52080SOL    HW258080   3.554   9.706   1.188
52081SOL     OW58081   5.904   7.836   8.054
52081SOL    HW158082   5.826   7.888   8.037
52081SOL    HW258083   5.976   7.899   8.052
52082SOL     OW58084   2.973   7.057   6.416
52082SOL    HW158085   3.050   7.080   6.468
52082SOL    HW258086   2.906   7.033   6.481
52083SOL     OW58087   2.397   2.144  10.060
52083SOL    HW158088   2.347   2.205  10.114
52083SOL    HW258089   2.465   2.111  10.118
52084SOL     OW58090   8.631   9.188   5.651
52084SOL    HW158091   8.672   9.224   5.573
52084SOL    HW258092   8.569   9.123   5.618
52085SOL     OW58093   8.470   2.826   3.219
52085SOL    HW158094   8.448   2.773   3.295
52085SOL    HW258095   8.480   2.762   3.148
52086SOL     OW58096   9.030   4.531  10.538
52086SOL    HW158097   9.027   4.566  10.627
52086SOL    HW258098   9.043   4.607  10.482
52087SOL     OW58099   8.509   1.878   6.004
52087SOL    HW158100   8.547   1.964   5.982
52087SOL    HW258101   8.553   1.817   5.944
52088SOL     OW58102  11.196   9.211  12.819
52088SOL    HW158103  11.254   9.282  12.790
52088SOL    HW258104  11.210   9.141  12.754
52089SOL     OW58105   0.567   0.798  14.722
52089SOL    HW158106   0.488   0.776  14.672
52089SOL    HW258107   0.583   0.719  14.775
52090SOL     OW58108  10.543   4.568   8.689
52090SOL    HW158109  10.460   4.520   8.693
52090SOL    HW258110  10.517   4.660   8.680
52091SOL     OW58111   2.731   6.213   9.764
52091SOL    HW158112   2.735   6.233   9.670
52091SOL    HW258113   2.637   6.212   9.783
52092SOL     OW58114   3.932  13.530  11.707
52092SOL    HW158115   4.000  13.579  11.753
52092SOL    HW258116   3.977  13.454  11.670
52093SOL     OW58117   6.745  11.964  12.068
52093SOL    HW158118   6.812  11.959  12.000
52093SOL    HW258119   6.787  12.012  12.139
52094SOL     OW58120   5.221  14.569   8.401
52094SOL    HW158121   5.210  14.628   8.326
52094SOL    HW258122   5.133  14.536   8.419
52095SOL     OW58123   0.887   6.046   0.658
52095SOL    HW158124   0.924   6.044   0.570
52095SOL    HW258125   0.897   6.137   0.687
52096SOL     OW58126   9.356  13.757   7.789
52096SOL    HW158127   9.321  13.668   7.795
52096SOL    HW258128   9.405  13.770   7.870
52097SOL     OW58129   2.034  11.160   4.414
52097SOL    HW158130   2.062  11.095   4.479
52097SOL    HW258131   1.969  11.114   4.360
52098SOL     OW58132  13.580  14.471   1.552
52098SOL    HW158133  13.618  14.516   1.628
52098SOL    HW258134  13.485  14.473   1.569
52099SOL     OW58135  11.453   0.036  13.773
52099SOL    HW158136  11.518   0.074  13.833
52099SOL    HW258137  11.469  14.818  13.777
52100SOL     OW58138   3.583   2.014   4.302
52100SOL    HW158139   3.512   2.001   4.365
52100SOL    HW258140   3.635   1.934   4.308
52101SOL     OW58141  14.311   9.520   9.709
52101SOL    HW158142  14.328   9.432   9.740
52101SOL    HW258143  14.216   9.527   9.705
52102SOL     OW58144   6.326  12.586   3.474
52102SOL    HW158145   6.364  12.626   3.396
52102SOL    HW258146   6.399  12.542   3.517
52103SOL     OW58147  13.270   7.465   7.197
52103SOL    HW158148  13.306   7.384   7.233
52103SOL    HW258149  13.244   7.442   7.108
52104SOL     OW58150   2.513   2.350   7.037
52104SOL    HW158151   2.525   2.409   7.111
52104SOL    HW258152   2.454   2.282   7.069
52105SOL     OW58153   8.609   1.129   9.260
52105SOL    HW158154   8.593   1.180   9.181
52105SOL    HW258155   8.568   1.180   9.330
52106SOL     OW58156   1.979  10.721  13.700
52106SOL    HW158157   1.990  10.781  13.774
52106SOL    HW258158   1.953  10.777  13.627
52107SOL     OW58159  14.000  13.815  12.327
52107SOL    HW158160  13.918  13.838  12.372
52107SOL    HW258161  14.066  13.818  12.396
52108SOL     OW58162   5.701  10.304   0.013
52108SOL    HW158163   5.689  10.232  14.827
52108SOL    HW258164   5.636  10.287   0.082
52109SOL     OW58165   4.482   0.865   5.899
52109SOL    HW158166   4.464   0.803   5.970
52109SOL    HW258167   4.467   0.951   5.939
52110SOL     OW58168   9.242  13.291  13.530
52110SOL    HW158169   9.232  13.199  13.553
52110SOL    HW258170   9.210  13.339  13.606
52111SOL     OW58171   9.643   5.229   3.349
52111SOL    HW158172   9.601   5.143   3.359
52111SOL    HW258173   9.606   5.282   3.419
52112SOL     OW58174   0.440   8.984  14.398
52112SOL    HW158175   0.520   8.967  14.448
52112SOL    HW258176   0.397   8.899  14.391
52113SOL     OW58177  12.824   3.844   9.944
52113SOL    HW158178  12.917   3.839   9.926
52113SOL    HW258179  12.802   3.937   9.936
52114SOL     OW58180   8.645  11.893   7.956
52114SOL    HW158181   8.707  11.934   8.016
52114SOL    HW258182   8.559  11.913   7.993
52115SOL     OW58183   2.532   9.503  12.943
52115SOL    HW158184   2.476   9.576  12.969
52115SOL    HW258185   2.540   9.450  13.022
52116SOL     OW58186   7.345   7.409   3.873
52116SOL    HW158187   7.377   7.382   3.959
52116SOL    HW258188   7.274   7.471   3.892
52117SOL     OW58189   9.673  10.617   9.529
52117SOL    HW158190   9.598  10.674   9.510
52117SOL    HW258191   9.692  10.631   9.621
52118SOL     OW58192   6.223  10.484   9.963
52118SOL    HW158193   6.293  10.548   9.978
52118SOL    HW258194   6.268  10.406   9.932
52119SOL     OW58195   5.781   1.267  10.306
52119SOL    HW158196   5.698   1.219  10.305
52119SOL    HW258197   5.844   1.205  10.342
52120SOL     OW58198   8.707   0.698   7.309
52120SOL    HW158199   8.752   0.775   7.274
52120SOL    HW258200   8.614   0.715   7.293
52121SOL     OW58201  11.335   6.203   8.447
52121SOL    HW158202  11.292   6.180   8.365
52121SOL    HW258203  11.358   6.295   8.438
52122SOL     OW58204  13.046   5.811   1.861
52122SOL    HW158205  13.081   5.869   1.929
52122SOL    HW258206  12.961   5.850   1.840
52123SOL     OW58207  13.145   6.646   8.119
52123SOL    HW158208  13.146   6.699   8.199
52123SOL    HW258209  13.064   6.595   8.125
52124SOL     OW58210   6.378   0.911   9.927
52124SOL    HW158211   6.448   0.972   9.906
52124SOL    HW258212   6.398   0.833   9.875
52125SOL     OW58213   5.998  11.988   5.497
52125SOL    HW158214   6.018  11.926   5.567
52125SOL    HW258215   5.930  12.044   5.534
52126SOL     OW58216   6.901  13.003   0.961
52126SOL    HW158217   6.940  12.917   0.942
52126SOL    HW258218   6.858  13.028   0.880
52127SOL     OW58219  11.267   4.685   2.546
52127SOL    HW158220  11.254   4.663   2.638
52127SOL    HW258221  11.213   4.763   2.532
52128SOL     OW58222  12.490   1.373  11.000
52128SOL    HW158223  12.584   1.367  10.986
52128SOL    HW258224  12.470   1.301  11.060
52129SOL     OW58225  12.258   3.779   6.070
52129SOL    HW158226  12.186   3.770   6.132
52129SOL    HW258227  12.217   3.807   5.988
52130SOL     OW58228   3.030  12.910   5.155
52130SOL    HW158229   2.991  12.843   5.099
52130SOL    HW258230   3.078  12.967   5.094
52131SOL     OW58231  12.133   4.049   8.802
52131SOL    HW158232  12.111   4.033   8.894
52131SOL    HW258233  12.226   4.072   8.803
52132SOL     OW58234   5.536   5.956  10.362
52132SOL    HW158235   5.462   6.017  10.364
52132SOL    HW258236   5.557   5.946  10.269
52133SOL     OW58237   7.981   6.735  12.268
52133SOL    HW158238   7.960   6.827  12.250
52133SOL    HW258239   7.969   6.692  12.183
52134SOL     OW58240  12.543   0.413  13.043
52134SOL    HW158241  12.611   0.450  12.987
52134SOL    HW258242  12.591   0.366  13.112
52135SOL     OW58243   1.154   3.385   7.694
52135SOL    HW158244   1.187   3.431   7.772
52135SOL    HW258245   1.232   3.348   7.653
52136SOL     OW58246  10.084   6.211  11.241
52136SOL    HW158247  10.015   6.221  11.176
52136SOL    HW258248  10.059   6.132  11.289
52137SOL     OW58249   1.957  14.541   5.673
52137SOL    HW158250   2.041  14.586   5.682
52137SOL    HW258251   1.971  14.479   5.601
52138SOL     OW58252  10.040  14.810   6.030
52138SOL    HW158253  10.117  14.775   5.985
52138SOL    HW258254  10.005  14.737   6.081
52139SOL     OW58255   4.049   7.693   8.449
52139SOL    HW158256   4.115   7.756   8.421
52139SOL    HW258257   4.046   7.628   8.379
52140SOL     OW58258   6.579   0.241   8.848
52140SOL    HW158259   6.596   0.189   8.770
52140SOL    HW258260   6.585   0.332   8.819
52141SOL     OW58261  12.771   3.688   6.955
52141SOL    HW158262  12.737   3.775   6.976
52141SOL    HW258263  12.724   3.662   6.876
52142SOL     OW58264   3.088   8.680  11.902
52142SOL    HW158265   2.997   8.651  11.892
52142SOL    HW258266   3.095   8.754  11.841
52143SOL     OW58267   8.868   8.287   9.972
52143SOL    HW158268   8.911   8.311  10.054
52143SOL    HW258269   8.801   8.354   9.960
52144SOL     OW58270   0.641   4.320   8.949
52144SOL    HW158271   0.570   4.382   8.965
52144SOL    HW258272   0.681   4.349   8.867
52145SOL     OW58273  13.196   6.818   5.677
52145SOL    HW158274  13.185   6.889   5.614
52145SOL    HW258275  13.243   6.858   5.750
52146SOL     OW58276   2.732   3.758   2.614
52146SOL    HW158277   2.638   3.743   2.629
52146SOL    HW258278   2.746   3.849   2.641
52147SOL     OW58279  11.943  14.207  14.378
52147SOL    HW158280  11.973  14.175  14.463
52147SOL    HW258281  11.852  14.178  14.373
52148SOL     OW58282   4.570  13.948   4.481
52148SOL    HW158283   4.580  14.034   4.523
52148SOL    HW258284   4.492  13.957   4.427
52149SOL     OW58285   0.424   5.948  13.500
52149SOL    HW158286   0.353   5.950  13.563
52149SOL    HW258287   0.456   6.039  13.496
52150SOL     OW58288   1.051   2.788   1.876
52150SOL    HW158289   1.050   2.842   1.796
52150SOL    HW258290   1.088   2.846   1.943
52151SOL     OW58291   4.254  13.158   0.687
52151SOL    HW158292   4.210  13.075   0.704
52151SOL    HW258293   4.346  13.134   0.675
52152SOL     OW58294   1.949  13.949   0.333
52152SOL    HW158295   1.924  13.858   0.316
52152SOL    HW258296   2.042  13.945   0.356
52153SOL     OW58297   5.265  13.540  14.655
52153SOL    HW158298   5.267  13.626  14.615
52153SOL    HW258299   5.346  13.535  14.706
52154SOL     OW58300   6.789  10.299  11.193
52154SOL    HW158301   6.748  10.346  11.120
52154SOL    HW258302   6.789  10.207  11.165
52155SOL     OW58303   9.233   2.088   5.255
52155SOL    HW158304   9.318   2.084   5.212
52155SOL    HW258305   9.253   2.113   5.345
52156SOL     OW58306   3.708   0.158   7.811
52156SOL    HW158307   3.739   0.124   7.895
52156SOL    HW258308   3.709   0.253   7.821
52157SOL     OW58309   5.320   8.047   0.841
52157SOL    HW158310   5.365   7.991   0.778
52157SOL    HW258311   5.301   7.990   0.916
52158SOL     OW58312   8.790  10.448   3.231
52158SOL    HW158313   8.863  10.414   3.180
52158SOL    HW258314   8.804  10.413   3.319
52159SOL     OW58315  13.331  13.690   1.933
52159SOL    HW158316  13.269  13.618   1.946
52159SOL    HW258317  13.401  13.652   1.881
52160SOL     OW58318   8.175   9.539   0.983
52160SOL    HW158319   8.170   9.453   1.025
52160SOL    HW258320   8.241   9.528   0.915
52161SOL     OW58321   1.617   9.157  11.547
52161SOL    HW158322   1.696   9.189  11.504
52161SOL    HW258323   1.629   9.180  11.639
52162SOL     OW58324  12.173  12.307   8.259
52162SOL    HW158325  12.115  12.380   8.238
52162SOL    HW258326  12.114  12.231   8.263
52163SOL     OW58327   0.683  12.578  12.695
52163SOL    HW158328   0.615  12.645  12.692
52163SOL    HW258329   0.685  12.542  12.606
52164SOL     OW58330   6.963   3.918   9.333
52164SOL    HW158331   7.022   3.978   9.380
52164SOL    HW258332   7.021   3.849   9.300
52165SOL     OW58333   6.687   9.352   5.377
52165SOL    HW158334   6.592   9.366   5.385
52165SOL    HW258335   6.697   9.256   5.380
52166SOL     OW58336   6.399   7.541   1.666
52166SOL    HW158337   6.358   7.457   1.649
52166SOL    HW258338   6.413   7.543   1.760
52167SOL     OW58339   9.042   9.184   8.048
52167SOL    HW158340   9.075   9.094   8.053
52167SOL    HW258341   9.079   9.228   8.124
52168SOL     OW58342   0.916  12.625   4.437
52168SOL    HW158343   0.989  12.641   4.496
52168SOL    HW258344   0.881  12.713   4.419
52169SOL     OW58345   9.301   7.736  10.736
52169SOL    HW158346   9.382   7.687  10.724
52169SOL    HW258347   9.239   7.672  10.771
52170SOL     OW58348   6.647   1.539   5.603
52170SOL    HW158349   6.733   1.499   5.593
52170SOL    HW258350   6.633   1.543   5.698
52171SOL     OW58351   5.540   9.414  12.060
52171SOL    HW158352   5.523   9.375  11.974
52171SOL    HW258353   5.602   9.354  12.102
52172SOL     OW58354   7.154  12.007  12.112
52172SOL    HW158355   7.132  12.038  12.024
52172SOL    HW258356   7.082  12.036  12.167
52173SOL     OW58357  13.733   5.037   4.092
52173SOL    HW158358  13.689   5.023   4.175
52173SOL    HW258359  13.745   5.132   4.086
52174SOL     OW58360   3.787   8.713  13.788
52174SOL    HW158361   3.713   8.692  13.732
52174SOL    HW258362   3.861   8.665  13.749
52175SOL     OW58363   9.525  13.534  14.477
52175SOL    HW158364   9.602  13.561  14.527
52175SOL    HW258365   9.560  13.503  14.394
52176SOL     OW58366   8.200   7.326   9.858
52176SOL    HW158367   8.191   7.281   9.942
52176SOL    HW258368   8.132   7.394   9.860
52177SOL     OW58369   7.510  13.129   8.526
52177SOL    HW158370   7.552  13.043   8.519
52177SOL    HW258371   7.454  13.122   8.604
52178SOL     OW58372  10.053   3.911   5.355
52178SOL    HW158373  10.009   3.995   5.345
52178SOL    HW258374  10.028   3.880   5.442
52179SOL     OW58375   8.356   3.871   7.652
52179SOL    HW158376   8.401   3.939   7.602
52179SOL    HW258377   8.273   3.911   7.679
52180SOL     OW58378  10.333  11.590  12.541
52180SOL    HW158379  10.246  11.568  12.507
52180SOL    HW258380  10.326  11.682  12.568
52181SOL     OW58381   4.487  11.466  13.603
52181SOL    HW158382   4.548  11.471  13.530
52181SOL    HW258383   4.493  11.375  13.632
52182SOL     OW58384   1.031   5.670   1.205
52182SOL    HW158385   1.081   5.643   1.282
52182SOL    HW258386   0.948   5.623   1.213
52183SOL     OW58387   0.986   1.009   7.736
52183SOL    HW158388   1.038   0.981   7.660
52183SOL    HW258389   0.895   1.004   7.705
52184SOL     OW58390   7.460   5.931  10.295
52184SOL    HW158391   7.547   5.968  10.306
52184SOL    HW258392   7.401   6.002  10.319
52185SOL     OW58393   4.508  13.330   4.510
52185SOL    HW158394   4.517  13.408   4.456
52185SOL    HW258395   4.417  13.332   4.541
52186SOL     OW58396   7.290  14.069   0.957
52186SOL    HW158397   7.325  14.112   1.035
52186SOL    HW258398   7.358  14.008   0.930
52187SOL     OW58399   1.950   8.740   9.105
52187SOL    HW158400   1.951   8.747   9.009
52187SOL    HW258401   1.921   8.825   9.135
52188SOL     OW58402   2.768   0.814   0.709
52188SOL    HW158403   2.740   0.817   0.618
52188SOL    HW258404   2.699   0.765   0.754
52189SOL     OW58405  11.129   7.994  11.490
52189SOL    HW158406  11.223   7.981  11.505
52189SOL    HW258407  11.124   8.034  11.403
52190SOL     OW58408   9.444   8.618   2.502
52190SOL    HW158409   9.417   8.526   2.510
52190SOL    HW258410   9.380   8.666   2.554
52191SOL     OW58411   0.554   3.624   4.830
52191SOL    HW158412   0.648   3.639   4.819
52191SOL    HW258413   0.530   3.566   4.758
52192SOL     OW58414  11.000  11.635   0.010
52192SOL    HW158415  10.907  11.628   0.029
52192SOL    HW258416  11.024  11.723   0.040
52193SOL     OW58417   2.335   2.330   8.545
52193SOL    HW158418   2.254   2.380   8.535
52193SOL    HW258419   2.329   2.261   8.479
52194SOL     OW58420   9.130  11.546   0.527
52194SOL    HW158421   9.104  11.637   0.514
52194SOL    HW258422   9.103  11.526   0.617
52195SOL     OW58423  13.796   3.737   8.489
52195SOL    HW158424  13.876   3.692   8.461
52195SOL    HW258425  13.740   3.735   8.411
52196SOL     OW58426  14.403   8.863   8.898
52196SOL    HW158427  14.467   8.932   8.915
52196SOL    HW258428  14.362   8.847   8.983
52197SOL     OW58429   3.248   8.211   8.650
52197SOL    HW158430   3.315   8.149   8.680
52197SOL    HW258431   3.288   8.297   8.664
52198SOL     OW58432  10.569   7.761   2.305
52198SOL    HW158433  10.550   7.815   2.382
52198SOL    HW258434  10.664   7.756   2.302
52199SOL     OW58435   0.079   4.581   9.762
52199SOL    HW158436   0.145   4.514   9.745
52199SOL    HW258437   0.126   4.664   9.750
52200SOL     OW58438   6.984  13.045   8.868
52200SOL    HW158439   7.064  13.098   8.859
52200SOL    HW258440   6.941  13.051   8.783
52201SOL     OW58441   7.883   9.687   6.286
52201SOL    HW158442   7.829   9.633   6.228
52201SOL    HW258443   7.957   9.713   6.231
52202SOL     OW58444   4.913   3.725   1.502
52202SOL    HW158445   4.881   3.794   1.560
52202SOL    HW258446   4.878   3.746   1.416
52203SOL     OW58447   4.432   6.714  11.338
52203SOL    HW158448   4.426   6.745  11.248
52203SOL    HW258449   4.475   6.785  11.386
52204SOL     OW58450  13.673   9.308  10.585
52204SOL    HW158451  13.674   9.249  10.661
52204SOL    HW258452  13.766   9.319  10.563
52205SOL     OW58453   6.602  12.356   0.505
52205SOL    HW158454   6.623  12.446   0.480
52205SOL    HW258455   6.549  12.366   0.585
52206SOL     OW58456   9.634   8.065   9.516
52206SOL    HW158457   9.636   8.115   9.434
52206SOL    HW258458   9.685   7.986   9.497
52207SOL     OW58459  13.839   0.525  11.655
52207SOL    HW158460  13.793   0.520  11.739
52207SOL    HW258461  13.916   0.579  11.674
52208SOL     OW58462   3.645   8.852   7.913
52208SOL    HW158463   3.709   8.801   7.863
52208SOL    HW258464   3.565   8.846   7.861
52209SOL     OW58465  10.133   7.025   3.643
52209SOL    HW158466  10.197   6.964   3.681
52209SOL    HW258467  10.145   7.016   3.548
52210SOL     OW58468   0.888   2.880   3.499
52210SOL    HW158469   0.916   2.961   3.542
52210SOL    HW258470   0.796   2.894   3.480
52211SOL     OW58471   0.715   3.033   5.360
52211SOL    HW158472   0.677   3.012   5.275
52211SOL    HW258473   0.808   3.014   5.350
52212SOL     OW58474   6.449   5.013   1.084
52212SOL    HW158475   6.379   4.959   1.119
52212SOL    HW258476   6.464   4.979   0.996
52213SOL     OW58477  13.257   3.827   6.123
52213SOL    HW158478  13.169   3.790   6.133
52213SOL    HW258479  13.296   3.821   6.210
52214SOL     OW58480   0.189  10.147   6.132
52214SOL    HW158481   0.163  10.124   6.043
52214SOL    HW258482   0.107  10.157   6.180
52215SOL     OW58483  11.559   7.200   0.999
52215SOL    HW158484  11.487   7.167   1.052
52215SOL    HW258485  11.527   7.195   0.909
52216SOL     OW58486   0.684   2.352   4.687
52216SOL    HW158487   0.619   2.422   4.691
52216SOL    HW258488   0.658   2.299   4.612
52217SOL     OW58489  10.000  14.613  12.901
52217SOL    HW158490  10.079  14.576  12.941
52217SOL    HW258491  10.016  14.707  12.897
52218SOL     OW58492   1.769   7.119   8.194
52218SOL    HW158493   1.715   7.042   8.178
52218SOL    HW258494   1.809   7.103   8.280
52219SOL     OW58495  12.891  12.350  14.583
52219SOL    HW158496  12.901  12.271  14.531
52219SOL    HW258497  12.799  12.350  14.609
52220SOL     OW58498   0.688   6.403  13.352
52220SOL    HW158499   0.675   6.477  13.412
52220SOL    HW258500   0.761   6.354  13.390
52221SOL     OW58501  10.898   3.275  12.246
52221SOL    HW158502  10.858   3.361  12.231
52221SOL    HW258503  10.935   3.281  12.334
52222SOL     OW58504   2.982   7.493   5.233
52222SOL    HW158505   2.995   7.532   5.320
52222SOL    HW258506   2.915   7.548   5.193
52223SOL     OW58507  11.981  10.304   6.075
52223SOL    HW158508  12.070  10.336   6.060
52223SOL    HW258509  11.925  10.381   6.066
52224SOL     OW58510   3.495   4.603   4.933
52224SOL    HW158511   3.523   4.530   4.878
52224SOL    HW258512   3.493   4.678   4.875
52225SOL     OW58513   8.110  10.145  10.629
52225SOL    HW158514   8.030  10.093  10.617
52225SOL    HW258515   8.158  10.134  10.547
52226SOL     OW58516  10.202   1.469  12.120
52226SOL    HW158517  10.139   1.475  12.191
52226SOL    HW258518  10.274   1.527  12.146
52227SOL     OW58519   9.777   0.588  11.028
52227SOL    HW158520   9.772   0.537  10.947
52227SOL    HW258521   9.689   0.623  11.040
52228SOL     OW58522  14.363   6.597   5.983
52228SOL    HW158523  14.372   6.655   6.058
52228SOL    HW258524  14.312   6.647   5.919
52229SOL     OW58525  11.392  14.643   9.438
52229SOL    HW158526  11.484  14.619   9.432
52229SOL    HW258527  11.376  14.697   9.361
52230SOL     OW58528  14.610   6.282   9.939
52230SOL    HW158529  14.564   6.251   9.862
52230SOL    HW258530  14.597   6.214  10.004
52231SOL     OW58531  14.203   1.164   8.837
52231SOL    HW158532  14.219   1.104   8.910
52231SOL    HW258533  14.269   1.141   8.772
52232SOL     OW58534   3.430  13.672   9.644
52232SOL    HW158535   3.508  13.661   9.589
52232SOL    HW258536   3.428  13.594   9.699
52233SOL     OW58537   3.158   3.200  14.510
52233SOL    HW158538   3.088   3.225  14.571
52233SOL    HW258539   3.185   3.283  14.470
52234SOL     OW58540   2.815  12.733  10.495
52234SOL    HW158541   2.728  12.703  10.469
52234SOL    HW258542   2.809  12.741  10.590
52235SOL     OW58543   2.554   4.919  13.038
52235SOL    HW158544   2.475   4.950  12.994
52235SOL    HW258545   2.537   4.826  13.055
52236SOL     OW58546   1.156  13.102   2.602
52236SOL    HW158547   1.242  13.072   2.573
52236SOL    HW258548   1.119  13.147   2.526
52237SOL     OW58549   8.641   7.222   6.390
52237SOL    HW158550   8.560   7.178   6.417
52237SOL    HW258551   8.705   7.198   6.456
52238SOL     OW58552   5.088   6.304   8.445
52238SOL    HW158553   5.162   6.295   8.506
52238SOL    HW258554   5.122   6.271   8.362
52239SOL     OW58555  13.632   3.084   3.646
52239SOL    HW158556  13.656   3.046   3.562
52239SOL    HW258557  13.536   3.094   3.641
52240SOL     OW58558   1.023   5.143  10.781
52240SOL    HW158559   0.983   5.080  10.721
52240SOL    HW258560   0.950   5.174  10.834
52241SOL     OW58561   2.296  10.670  11.773
52241SOL    HW158562   2.251  10.707  11.697
52241SOL    HW258563   2.383  10.708  11.771
52242SOL     OW58564   9.565   0.788   3.928
52242SOL    HW158565   9.471   0.801   3.920
52242SOL    HW258566   9.579   0.765   4.019
52243SOL     OW58567  10.006   5.353   0.688
52243SOL    HW158568  10.101   5.344   0.694
52243SOL    HW258569   9.972   5.283   0.744
52244SOL     OW58570   9.345  11.367   7.174
52244SOL    HW158571   9.329  11.312   7.250
52244SOL    HW258572   9.437  11.393   7.182
52245SOL     OW58573   8.248  12.596  14.130
52245SOL    HW158574   8.283  12.530  14.189
52245SOL    HW258575   8.250  12.677  14.180
52246SOL     OW58576   0.359   8.774  11.269
52246SOL    HW158577   0.395   8.850  11.315
52246SOL    HW258578   0.400   8.777  11.183
52247SOL     OW58579   8.155   9.702  10.354
52247SOL    HW158580   8.165   9.611  10.379
52247SOL    HW258581   8.086   9.701  10.287
52248SOL     OW58582   9.823  12.610   7.963
52248SOL    HW158583   9.764  12.545   8.002
52248SOL    HW258584   9.888  12.557   7.916
52249SOL     OW58585   4.445  10.020   5.878
52249SOL    HW158586   4.466  10.005   5.785
52249SOL    HW258587   4.352   9.998   5.885
52250SOL     OW58588  12.028   4.607   1.085
52250SOL    HW158589  12.082   4.685   1.100
52250SOL    HW258590  11.939   4.637   1.103
52251SOL     OW58591   5.484  13.959  12.617
52251SOL    HW158592   5.413  14.021  12.631
52251SOL    HW258593   5.464  13.885  12.673
52252SOL     OW58594  14.665  13.116   0.778
52252SOL    HW158595  14.616  13.143   0.856
52252SOL    HW258596  14.601  13.120   0.707
52253SOL     OW58597  12.870   2.610   1.258
52253SOL    HW158598  12.950   2.557   1.256
52253SOL    HW258599  12.893   2.690   1.211
52254SOL     OW58600  14.326   9.247   7.472
52254SOL    HW158601  14.306   9.259   7.565
52254SOL    HW258602  14.357   9.157   7.465
52255SOL     OW58603  13.224  11.326   6.705
52255SOL    HW158604  13.251  11.374   6.783
52255SOL    HW258605  13.227  11.391   6.634
52256SOL     OW58606   4.077  14.450   3.040
52256SOL    HW158607   4.165  14.414   3.031
52256SOL    HW258608   4.087  14.524   3.100
52257SOL     OW58609  11.851   5.263  13.404
52257SOL    HW158610  11.808   5.336  13.447
52257SOL    HW258611  11.914   5.303  13.345
52258SOL     OW58612   8.542   6.358   8.196
52258SOL    HW158613   8.458   6.329   8.232
52258SOL    HW258614   8.607   6.321   8.255
52259SOL     OW58615   3.706   3.239   6.071
52259SOL    HW158616   3.770   3.275   6.010
52259SOL    HW258617   3.621   3.262   6.032
52260SOL     OW58618   5.064   6.582   1.022
52260SOL    HW158619   5.122   6.652   1.052
52260SOL    HW258620   5.085   6.571   0.930
52261SOL     OW58621   4.480  12.895   8.936
52261SOL    HW158622   4.553  12.837   8.958
52261SOL    HW258623   4.521  12.977   8.912
52262SOL     OW58624  11.835   7.283  14.155
52262SOL    HW158625  11.834   7.253  14.064
52262SOL    HW258626  11.908   7.346  14.158
52263SOL     OW58627  14.869  14.141   2.452
52263SOL    HW158628  14.857  14.124   2.359
52263SOL    HW258629   0.088  14.148   2.463
52264SOL     OW58630  10.727   3.681   2.707
52264SOL    HW158631  10.798   3.643   2.656
52264SOL    HW258632  10.653   3.621   2.692
52265SOL     OW58633  12.736   7.081  13.230
52265SOL    HW158634  12.683   7.036  13.296
52265SOL    HW258635  12.673   7.129  13.177
52266SOL     OW58636  10.481   2.103   9.916
52266SOL    HW158637  10.554   2.133   9.861
52266SOL    HW258638  10.458   2.017   9.880
52267SOL     OW58639   5.498  11.402   8.136
52267SOL    HW158640   5.561  11.437   8.073
52267SOL    HW258641   5.511  11.307   8.130
52268SOL     OW58642   5.613  10.979  11.076
52268SOL    HW158643   5.575  11.010  11.158
52268SOL    HW258644   5.698  10.944  11.100
52269SOL     OW58645  11.557  11.640   5.453
52269SOL    HW158646  11.561  11.731   5.423
52269SOL    HW258647  11.539  11.589   5.374
52270SOL     OW58648   4.102   2.573   3.752
52270SOL    HW158649   4.149   2.624   3.818
52270SOL    HW258650   4.095   2.632   3.677
52271SOL     OW58651  12.951  11.192   9.086
52271SOL    HW158652  13.005  11.123   9.125
52271SOL    HW258653  13.015  11.257   9.055
52272SOL     OW58654  12.625   2.191  13.201
52272SOL    HW158655  12.713   2.167  13.230
52272SOL    HW258656  12.616   2.150  13.115
52273SOL     OW58657   8.533   4.715   5.292
52273SOL    HW158658   8.574   4.772   5.227
52273SOL    HW258659   8.604   4.655   5.318
52274SOL     OW58660   5.980   4.884   1.561
52274SOL    HW158661   6.045   4.863   1.628
52274SOL    HW258662   5.946   4.799   1.534
52275SOL     OW58663   6.159  11.387   4.758
52275SOL    HW158664   6.078  11.413   4.714
52275SOL    HW258665   6.182  11.302   4.719
52276SOL     OW58666  13.851   5.599   9.018
52276SOL    HW158667  13.844   5.635   9.106
52276SOL    HW258668  13.786   5.529   9.015
52277SOL     OW58669  13.759   9.908   2.978
52277SOL    HW158670  13.845   9.945   2.954
52277SOL    HW258671  13.735   9.954   3.059
52278SOL     OW58672   9.599  12.704  14.475
52278SOL    HW158673   9.509  12.735  14.472
52278SOL    HW258674   9.634  12.722  14.388
52279SOL     OW58675   4.178   5.347   5.829
52279SOL    HW158676   4.218   5.410   5.890
52279SOL    HW258677   4.218   5.263   5.851
52280SOL     OW58678  12.367   7.735   3.651
52280SOL    HW158679  12.329   7.673   3.588
52280SOL    HW258680  12.320   7.719   3.732
52281SOL     OW58681   9.536  13.043  10.516
52281SOL    HW158682   9.631  13.031  10.519
52281SOL    HW258683   9.514  13.082  10.600
52282SOL     OW58684  13.027  11.198  12.929
52282SOL    HW158685  13.082  11.272  12.956
52282SOL    HW258686  12.996  11.160  13.011
52283SOL     OW58687   8.912   8.419   7.321
52283SOL    HW158688   8.906   8.323   7.317
52283SOL    HW258689   8.848   8.449   7.256
52284SOL     OW58690   8.912   2.818   0.319
52284SOL    HW158691   8.998   2.778   0.311
52284SOL    HW258692   8.927   2.899   0.368
52285SOL     OW58693   9.606   8.054   2.205
52285SOL    HW158694   9.587   7.979   2.148
52285SOL    HW258695   9.553   8.125   2.170
52286SOL     OW58696   0.491   5.366   7.205
52286SOL    HW158697   0.530   5.386   7.120
52286SOL    HW258698   0.560   5.319   7.252
52287SOL     OW58699   9.290   4.522   7.991
52287SOL    HW158700   9.364   4.581   8.004
52287SOL    HW258701   9.330   4.443   7.954
52288SOL     OW58702  12.007  11.952  11.512
52288SOL    HW158703  12.078  11.981  11.455
52288SOL    HW258704  11.932  12.008  11.489
52289SOL     OW58705   6.481   8.143  13.561
52289SOL    HW158706   6.480   8.166  13.654
52289SOL    HW258707   6.389   8.146  13.535
52290SOL     OW58708   2.843   8.448   2.179
52290SOL    HW158709   2.847   8.354   2.196
52290SOL    HW258710   2.848   8.456   2.084
52291SOL     OW58711   2.318  14.339   2.697
52291SOL    HW158712   2.311  14.385   2.614
52291SOL    HW258713   2.366  14.399   2.755
52292SOL     OW58714   0.100   4.799   0.651
52292SOL    HW158715   0.130   4.774   0.738
52292SOL    HW258716   0.170   4.854   0.616
52293SOL     OW58717  12.496   0.948  13.528
52293SOL    HW158718  12.433   0.943  13.457
52293SOL    HW258719  12.448   0.920  13.606
52294SOL     OW58720   9.831   1.650  10.083
52294SOL    HW158721   9.855   1.560  10.106
52294SOL    HW258722   9.884   1.670  10.006
52295SOL     OW58723  14.658   1.330  13.820
52295SOL    HW158724  14.709   1.251  13.802
52295SOL    HW258725  14.692   1.395  13.760
52296SOL     OW58726   9.833   6.449   6.229
52296SOL    HW158727   9.843   6.418   6.319
52296SOL    HW258728   9.771   6.387   6.190
52297SOL     OW58729  14.824  10.525  12.459
52297SOL    HW158730  14.874  10.570  12.526
52297SOL    HW258731  14.817  10.435  12.491
52298SOL     OW58732  12.452   2.954  10.765
52298SOL    HW158733  12.476   3.047  10.761
52298SOL    HW258734  12.377   2.946  10.707
52299SOL     OW58735   8.049   9.285   3.815
52299SOL    HW158736   8.130   9.311   3.771
52299SOL    HW258737   8.039   9.349   3.886
52300SOL     OW58738  14.503  10.342   3.377
52300SOL    HW158739  14.573  10.388   3.329
52300SOL    HW258740  14.422  10.370   3.334
52301SOL     OW58741  11.063   1.843  14.589
52301SOL    HW158742  11.126   1.830  14.517
52301SOL    HW258743  11.042   1.936  14.585
52302SOL     OW58744   0.718  14.834   6.848
52302SOL    HW158745   0.648  14.770   6.843
52302SOL    HW258746   0.758  14.820   6.934
52303SOL     OW58747   6.939   7.208   3.639
52303SOL    HW158748   6.983   7.137   3.685
52303SOL    HW258749   6.955   7.285   3.693
52304SOL     OW58750   6.094   3.279   2.929
52304SOL    HW158751   6.032   3.327   2.984
52304SOL    HW258752   6.150   3.233   2.992
52305SOL     OW58753   6.310   5.164   6.935
52305SOL    HW158754   6.292   5.081   6.979
52305SOL    HW258755   6.354   5.217   7.002
52306SOL     OW58756  13.609   6.359   9.181
52306SOL    HW158757  13.595   6.351   9.276
52306SOL    HW258758  13.551   6.292   9.143
52307SOL     OW58759   4.092   3.059   7.045
52307SOL    HW158760   4.055   3.094   6.964
52307SOL    HW258761   4.097   3.134   7.104
52308SOL     OW58762   9.119   9.992   2.094
52308SOL    HW158763   9.213   9.994   2.075
52308SOL    HW258764   9.081  10.057   2.036
52309SOL     OW58765   3.503   6.733   9.160
52309SOL    HW158766   3.527   6.811   9.210
52309SOL    HW258767   3.447   6.683   9.220
52310SOL     OW58768  11.376   7.090   1.148
52310SOL    HW158769  11.291   7.125   1.124
52310SOL    HW258770  11.356   7.013   1.201
52311SOL     OW58771  14.077   8.395   9.952
52311SOL    HW158772  14.101   8.369  10.041
52311SOL    HW258773  13.990   8.357   9.938
52312SOL     OW58774  14.373  11.240   6.292
52312SOL    HW158775  14.284  11.267   6.267
52312SOL    HW258776  14.401  11.308   6.353
52313SOL     OW58777   1.678  13.930   3.545
52313SOL    HW158778   1.610  13.903   3.482
52313SOL    HW258779   1.761  13.909   3.501
52314SOL     OW58780  11.960  12.382   3.857
52314SOL    HW158781  12.010  12.324   3.916
52314SOL    HW258782  12.015  12.459   3.848
52315SOL     OW58783   7.657  10.522  14.449
52315SOL    HW158784   7.680  10.431  14.434
52315SOL    HW258785   7.570  10.532  14.410
52316SOL     OW58786   0.817   4.794   0.760
52316SOL    HW158787   0.726   4.818   0.780
52316SOL    HW258788   0.812   4.705   0.726
52317SOL     OW58789   8.468   7.613   3.338
52317SOL    HW158790   8.481   7.670   3.415
52317SOL    HW258791   8.379   7.633   3.309
52318SOL     OW58792  12.527  14.644   3.196
52318SOL    HW158793  12.622  14.658   3.189
52318SOL    HW258794  12.509  14.646   3.290
52319SOL     OW58795  10.502   8.609   2.682
52319SOL    HW158796  10.487   8.562   2.764
52319SOL    HW258797  10.417   8.608   2.638
52320SOL     OW58798   4.418  13.765  11.893
52320SOL    HW158799   4.361  13.721  11.831
52320SOL    HW258800   4.500  13.778  11.845
52321SOL     OW58801  10.790  13.844   9.648
52321SOL    HW158802  10.849  13.918   9.631
52321SOL    HW258803  10.816  13.812   9.735
52322SOL     OW58804   5.161  11.268   1.218
52322SOL    HW158805   5.253  11.248   1.198
52322SOL    HW258806   5.112  11.232   1.143
52323SOL     OW58807   3.230   1.529   1.951
52323SOL    HW158808   3.301   1.518   2.014
52323SOL    HW258809   3.151   1.537   2.005
52324SOL     OW58810  14.492  11.941   8.156
52324SOL    HW158811  14.467  11.856   8.191
52324SOL    HW258812  14.436  11.953   8.078
52325SOL     OW58813   2.400  14.065   0.470
52325SOL    HW158814   2.435  13.980   0.498
52325SOL    HW258815   2.350  14.045   0.391
52326SOL     OW58816   0.511   3.096   1.022
52326SOL    HW158817   0.476   3.073   0.936
52326SOL    HW258818   0.517   3.192   1.020
52327SOL     OW58819   5.069   3.975   7.218
52327SOL    HW158820   5.105   3.927   7.144
52327SOL    HW258821   4.999   4.028   7.180
52328SOL     OW58822  10.286  11.248   6.030
52328SOL    HW158823  10.257  11.177   5.973
52328SOL    HW258824  10.226  11.320   6.010
52329SOL     OW58825  12.793   4.327  13.572
52329SOL    HW158826  12.861   4.325  13.640
52329SOL    HW258827  12.808   4.248  13.521
52330SOL     OW58828   8.813  10.368   1.565
52330SOL    HW158829   8.815  10.358   1.470
52330SOL    HW258830   8.845  10.284   1.598
52331SOL     OW58831  13.396   1.122  10.867
52331SOL    HW158832  13.430   1.044  10.824
52331SOL    HW258833  13.302   1.105  10.875
52332SOL     OW58834   1.677  10.715  10.958
52332SOL    HW158835   1.613  10.786  10.959
52332SOL    HW258836   1.719  10.723  10.872
52333SOL     OW58837  11.085   7.364   4.572
52333SOL    HW158838  11.059   7.446   4.614
52333SOL    HW258839  11.034   7.362   4.490
52334SOL     OW58840   0.081   2.136  12.101
52334SOL    HW158841  14.874   2.142  12.148
52334SOL    HW258842   0.055   2.133  12.009
52335SOL     OW58843   4.009   4.758   5.522
52335SOL    HW158844   4.015   4.722   5.433
52335SOL    HW258845   3.994   4.851   5.509
52336SOL     OW58846   8.460   7.973  12.187
52336SOL    HW158847   8.416   7.922  12.119
52336SOL    HW258848   8.390   8.003  12.244
52337SOL     OW58849  11.544  12.510   3.036
52337SOL    HW158850  11.559  12.522   3.129
52337SOL    HW258851  11.488  12.584   3.010
52338SOL     OW58852  10.504  12.244   3.180
52338SOL    HW158853  10.411  12.239   3.156
52338SOL    HW258854  10.550  12.214   3.102
52339SOL     OW58855   8.371  10.745   5.729
52339SOL    HW158856   8.384  10.650   5.728
52339SOL    HW258857   8.373  10.769   5.821
52340SOL     OW58858   8.706   8.146   9.237
52340SOL    HW158859   8.690   8.099   9.319
52340SOL    HW258860   8.619   8.163   9.202
52341SOL     OW58861   6.464   2.159  11.057
52341SOL    HW158862   6.500   2.119  11.136
52341SOL    HW258863   6.478   2.253  11.070
52342SOL     OW58864   1.212   8.785   7.668
52342SOL    HW158865   1.182   8.839   7.594
52342SOL    HW258866   1.178   8.698   7.649
52343SOL     OW58867   5.969  13.721   1.386
52343SOL    HW158868   5.952  13.634   1.421
52343SOL    HW258869   5.945  13.781   1.457
52344SOL     OW58870   0.979   5.802   8.037
52344SOL    HW158871   1.029   5.876   8.074
52344SOL    HW258872   1.041   5.729   8.039
52345SOL     OW58873   4.748   1.473   0.836
52345SOL    HW158874   4.824   1.531   0.848
52345SOL    HW258875   4.786   1.388   0.814
52346SOL     OW58876  12.222   1.263  13.955
52346SOL    HW158877  12.316   1.279  13.951
52346SOL    HW258878  12.197   1.246  13.864
52347SOL     OW58879   8.681   1.439  13.841
52347SOL    HW158880   8.630   1.518  13.855
52347SOL    HW258881   8.634   1.371  13.889
52348SOL     OW58882  12.319   3.117  11.770
52348SOL    HW158883  12.256   3.126  11.841
52348SOL    HW258884  12.266   3.113  11.691
52349SOL     OW58885   3.624   0.068  10.847
52349SOL    HW158886   3.682   0.024  10.909
52349SOL    HW258887   3.604   0.152  10.888
52350SOL     OW58888   8.972  11.503   8.976
52350SOL    HW158889   8.927  11.421   8.957
52350SOL    HW258890   8.995  11.539   8.891
52351SOL     OW58891   0.145   8.348   0.862
52351SOL    HW158892   0.062   8.371   0.905
52351SOL    HW258893   0.174   8.268   0.906
52352SOL     OW58894   4.027   7.343   3.256
52352SOL    HW158895   3.977   7.376   3.181
52352SOL    HW258896   3.979   7.374   3.333
52353SOL     OW58897   6.701  11.358  10.428
52353SOL    HW158898   6.717  11.340  10.520
52353SOL    HW258899   6.785  11.388  10.394
52354SOL     OW58900   4.472  14.257   3.458
52354SOL    HW158901   4.513  14.281   3.541
52354SOL    HW258902   4.478  14.161   3.456
52355SOL     OW58903  13.902  12.064   7.498
52355SOL    HW158904  13.813  12.041   7.471
52355SOL    HW258905  13.933  12.122   7.429
52356SOL     OW58906   8.036   2.193   7.441
52356SOL    HW158907   7.982   2.151   7.508
52356SOL    HW258908   8.074   2.269   7.486
52357SOL     OW58909  14.145  14.786  12.739
52357SOL    HW158910  14.069  14.751  12.784
52357SOL    HW258911  14.120  14.786  12.646
52358SOL     OW58912   4.911  13.947   4.129
52358SOL    HW158913   4.836  13.891   4.109
52358SOL    HW258914   4.903  14.020   4.067
52359SOL     OW58915   2.519   0.936   0.229
52359SOL    HW158916   2.486   0.858   0.273
52359SOL    HW258917   2.499   0.923   0.137
52360SOL     OW58918   1.369   1.275   2.418
52360SOL    HW158919   1.337   1.235   2.499
52360SOL    HW258920   1.455   1.236   2.405
52361SOL     OW58921   7.976   2.860   4.581
52361SOL    HW158922   8.002   2.891   4.494
52361SOL    HW258923   7.969   2.940   4.633
52362SOL     OW58924   9.301   7.756   9.425
52362SOL    HW158925   9.316   7.709   9.343
52362SOL    HW258926   9.388   7.782   9.454
52363SOL     OW58927  12.878   2.229   1.972
52363SOL    HW158928  12.961   2.276   1.971
52363SOL    HW258929  12.899   2.142   1.938
52364SOL     OW58930   3.476  12.195  11.626
52364SOL    HW158931   3.527  12.276  11.625
52364SOL    HW258932   3.542  12.126  11.623
52365SOL     OW58933   0.399   6.728   3.069
52365SOL    HW158934   0.431   6.781   2.997
52365SOL    HW258935   0.426   6.775   3.148
52366SOL     OW58936  14.369   3.439  10.746
52366SOL    HW158937  14.291   3.447  10.801
52366SOL    HW258938  14.339   3.462  10.658
52367SOL     OW58939  12.320   9.214   2.279
52367SOL    HW158940  12.227   9.191   2.273
52367SOL    HW258941  12.321   9.299   2.323
52368SOL     OW58942  11.773  13.667   1.149
52368SOL    HW158943  11.839  13.737   1.154
52368SOL    HW258944  11.723  13.688   1.070
52369SOL     OW58945   4.923   8.812  10.055
52369SOL    HW158946   4.850   8.845  10.108
52369SOL    HW258947   4.990   8.788  10.118
52370SOL     OW58948   0.328   1.090  10.354
52370SOL    HW158949   0.374   1.126  10.430
52370SOL    HW258950   0.238   1.123  10.363
52371SOL     OW58951  14.677   1.844  12.039
52371SOL    HW158952  14.630   1.772  11.997
52371SOL    HW258953  14.734   1.800  12.103
52372SOL     OW58954  11.373  10.415   2.648
52372SOL    HW158955  11.408  10.501   2.674
52372SOL    HW258956  11.366  10.420   2.553
52373SOL     OW58957  13.675   5.328   0.876
52373SOL    HW158958  13.749   5.271   0.858
52373SOL    HW258959  13.697   5.411   0.833
52374SOL     OW58960   0.642   9.684   8.079
52374SOL    HW158961   0.710   9.628   8.043
52374SOL    HW258962   0.687   9.736   8.146
52375SOL     OW58963   6.264   7.024  12.089
52375SOL    HW158964   6.256   7.054  11.998
52375SOL    HW258965   6.248   6.929  12.084
52376SOL     OW58966   4.763  12.181   7.290
52376SOL    HW158967   4.676  12.145   7.309
52376SOL    HW258968   4.818  12.105   7.275
52377SOL     OW58969   8.818   5.980   8.142
52377SOL    HW158970   8.862   5.898   8.120
52377SOL    HW258971   8.728   5.967   8.112
52378SOL     OW58972  11.584   8.788  10.856
52378SOL    HW158973  11.541   8.762  10.937
52378SOL    HW258974  11.677   8.768  10.870
52379SOL     OW58975   1.029  10.414   8.963
52379SOL    HW158976   0.979  10.465   9.027
52379SOL    HW258977   0.969  10.405   8.889
52380SOL     OW58978   9.230   6.507  14.813
52380SOL    HW158979   9.322   6.480  14.825
52380SOL    HW258980   9.219   6.581  14.872
52381SOL     OW58981   0.053   7.399   3.261
52381SOL    HW158982  14.835   7.409   3.259
52381SOL    HW258983   0.081   7.409   3.170
52382SOL     OW58984   6.699  13.053  11.294
52382SOL    HW158985   6.722  13.023  11.206
52382SOL    HW258986   6.755  13.129  11.309
52383SOL     OW58987  12.772   9.629   8.985
52383SOL    HW158988  12.739   9.546   9.017
52383SOL    HW258989  12.828   9.662   9.055
52384SOL     OW58990   6.696  11.135  11.637
52384SOL    HW158991   6.646  11.077  11.695
52384SOL    HW258992   6.713  11.213  11.688
52385SOL     OW58993   8.207   7.779   2.159
52385SOL    HW158994   8.123   7.781   2.203
52385SOL    HW258995   8.249   7.862   2.182
52386SOL     OW58996   3.916   6.192   7.153
52386SOL    HW158997   3.825   6.204   7.126
52386SOL    HW258998   3.967   6.213   7.075
52387SOL     OW58999   9.395  13.675  10.615
52387SOL    HW159000   9.350  13.591  10.619
52387SOL    HW259001   9.416  13.688  10.522
52388SOL     OW59002   9.599   7.267   9.659
52388SOL    HW159003   9.677   7.309   9.696
52388SOL    HW259004   9.583   7.314   9.577
52389SOL     OW59005   9.599   9.587   7.073
52389SOL    HW159006   9.629   9.622   6.989
52389SOL    HW259007   9.550   9.658   7.113
52390SOL     OW59008   8.869   1.693   8.014
52390SOL    HW159009   8.831   1.686   7.927
52390SOL    HW259010   8.950   1.741   8.001
52391SOL     OW59011  11.004   6.983   0.803
52391SOL    HW159012  11.087   7.030   0.813
52391SOL    HW259013  10.936   7.050   0.815
52392SOL     OW59014   2.407   4.856   4.719
52392SOL    HW159015   2.469   4.811   4.660
52392SOL    HW259016   2.352   4.787   4.754
52393SOL     OW59017   3.718   6.369   3.414
52393SOL    HW159018   3.672   6.293   3.377
52393SOL    HW259019   3.810   6.354   3.391
52394SOL     OW59020  10.365   0.042   9.576
52394SOL    HW159021  10.342   0.094   9.498
52394SOL    HW259022  10.281   0.021   9.616
52395SOL     OW59023  10.392   0.455   0.032
52395SOL    HW159024  10.308   0.493   0.059
52395SOL    HW259025  10.394   0.370   0.076
52396SOL     OW59026  14.655  13.722   3.077
52396SOL    HW159027  14.726  13.757   3.022
52396SOL    HW259028  14.611  13.799   3.112
52397SOL     OW59029  12.615   9.623  13.136
52397SOL    HW159030  12.681   9.680  13.096
52397SOL    HW259031  12.531   9.661  13.109
52398SOL     OW59032  13.649  10.057   8.153
52398SOL    HW159033  13.696  10.059   8.237
52398SOL    HW259034  13.561  10.089   8.175
52399SOL     OW59035  10.374   4.023   3.562
52399SOL    HW159036  10.384   3.996   3.471
52399SOL    HW259037  10.442   4.090   3.574
52400SOL     OW59038  10.180   7.285  14.306
52400SOL    HW159039  10.216   7.339  14.377
52400SOL    HW259040  10.183   7.342  14.229
52401SOL     OW59041  13.781   0.481   4.977
52401SOL    HW159042  13.779   0.521   4.890
52401SOL    HW259043  13.688   0.472   5.001
52402SOL     OW59044   4.942   0.283   9.281
52402SOL    HW159045   4.936   0.192   9.250
52402SOL    HW259046   4.951   0.275   9.376
52403SOL     OW59047   2.777  11.481   6.008
52403SOL    HW159048   2.762  11.494   6.101
52403SOL    HW259049   2.700  11.433   5.977
52404SOL     OW59050  10.712   5.586   2.362
52404SOL    HW159051  10.683   5.541   2.283
52404SOL    HW259052  10.639   5.574   2.424
52405SOL     OW59053   7.953  12.701  11.428
52405SOL    HW159054   7.883  12.763  11.406
52405SOL    HW259055   7.923  12.660  11.510
52406SOL     OW59056   2.483  12.524  13.180
52406SOL    HW159057   2.576  12.515  13.202
52406SOL    HW259058   2.483  12.564  13.093
52407SOL     OW59059  10.723   7.724   9.036
52407SOL    HW159060  10.632   7.726   9.007
52407SOL    HW259061  10.750   7.633   9.026
52408SOL     OW59062  13.454   3.220  13.100
52408SOL    HW159063  13.409   3.138  13.080
52408SOL    HW259064  13.499   3.244  13.019
52409SOL     OW59065  14.729   4.071   8.053
52409SOL    HW159066  14.672   4.008   8.098
52409SOL    HW259067  14.798   4.090   8.117
52410SOL     OW59068   3.069   5.999   2.640
52410SOL    HW159069   3.074   5.997   2.544
52410SOL    HW259070   2.981   6.029   2.659
52411SOL     OW59071   5.919  14.174   0.936
52411SOL    HW159072   5.870  14.172   0.853
52411SOL    HW259073   5.852  14.168   1.004
52412SOL     OW59074  11.528  10.092   9.932
52412SOL    HW159075  11.477  10.024   9.977
52412SOL    HW259076  11.605  10.046   9.898
52413SOL     OW59077   1.201  11.314   1.302
52413SOL    HW159078   1.166  11.381   1.243
52413SOL    HW259079   1.170  11.231   1.266
52414SOL     OW59080   7.223   8.000  11.704
52414SOL    HW159081   7.248   7.909  11.685
52414SOL    HW259082   7.249   8.013  11.795
52415SOL     OW59083   7.577   5.933   5.340
52415SOL    HW159084   7.491   5.937   5.381
52415SOL    HW259085   7.589   5.841   5.317
52416SOL     OW59086   4.886   5.040   4.340
52416SOL    HW159087   4.823   4.973   4.369
52416SOL    HW259088   4.875   5.112   4.401
52417SOL     OW59089   3.183   5.046   3.419
52417SOL    HW159090   3.153   4.961   3.387
52417SOL    HW259091   3.256   5.068   3.361
52418SOL     OW59092   9.532  13.375  10.492
52418SOL    HW159093   9.560  13.461  10.458
52418SOL    HW259094   9.562  13.375  10.583
52419SOL     OW59095  13.506   5.702   8.115
52419SOL    HW159096  13.472   5.731   8.199
52419SOL    HW259097  13.600   5.695   8.128
52420SOL     OW59098   8.732   5.837  11.504
52420SOL    HW159099   8.816   5.793  11.495
52420SOL    HW259100   8.718   5.841  11.599
52421SOL     OW59101   1.562   9.235   8.539
52421SOL    HW159102   1.525   9.252   8.626
52421SOL    HW259103   1.626   9.164   8.554
52422SOL     OW59104  11.243   9.446  13.274
52422SOL    HW159105  11.249   9.487  13.360
52422SOL    HW259106  11.318   9.481  13.225
52423SOL     OW59107  12.696   7.075   1.275
52423SOL    HW159108  12.668   6.993   1.316
52423SOL    HW259109  12.710   7.135   1.348
52424SOL     OW59110  14.322  13.633   8.623
52424SOL    HW159111  14.386  13.574   8.584
52424SOL    HW259112  14.367  13.717   8.630
52425SOL     OW59113  13.522   1.725   4.701
52425SOL    HW159114  13.496   1.767   4.619
52425SOL    HW259115  13.487   1.783   4.769
52426SOL     OW59116  13.934   6.194   5.479
52426SOL    HW159117  13.977   6.165   5.399
52426SOL    HW259118  13.991   6.265   5.512
52427SOL     OW59119   4.990  10.777  14.357
52427SOL    HW159120   4.915  10.728  14.389
52427SOL    HW259121   5.042  10.794  14.436
52428SOL     OW59122   4.010  10.319  11.437
52428SOL    HW159123   3.971  10.322  11.524
52428SOL    HW259124   3.974  10.396  11.393
52429SOL     OW59125   2.343   6.227   2.379
52429SOL    HW159126   2.325   6.262   2.466
52429SOL    HW259127   2.436   6.246   2.364
52430SOL     OW59128   9.003   6.705  12.946
52430SOL    HW159129   9.046   6.627  12.982
52430SOL    HW259130   8.930   6.671  12.894
52431SOL     OW59131   4.868  11.502   8.553
52431SOL    HW159132   4.861  11.447   8.630
52431SOL    HW259133   4.958  11.487   8.521
52432SOL     OW59134  13.640   9.875  10.193
52432SOL    HW159135  13.550   9.880  10.159
52432SOL    HW259136  13.695   9.896  10.117
52433SOL     OW59137   7.710   7.317   8.970
52433SOL    HW159138   7.693   7.223   8.963
52433SOL    HW259139   7.782   7.324   9.033
52434SOL     OW59140   0.250   8.954   1.273
52434SOL    HW159141   0.251   8.872   1.322
52434SOL    HW259142   0.340   8.964   1.241
52435SOL     OW59143   1.038   2.343   9.214
52435SOL    HW159144   1.109   2.331   9.152
52435SOL    HW259145   1.075   2.316   9.298
52436SOL     OW59146   0.633   9.039   2.037
52436SOL    HW159147   0.644   9.025   2.131
52436SOL    HW259148   0.625   9.134   2.028
52437SOL     OW59149   8.789   9.356  12.284
52437SOL    HW159150   8.849   9.414  12.239
52437SOL    HW259151   8.750   9.410  12.353
52438SOL     OW59152  11.158   2.646   7.567
52438SOL    HW159153  11.066   2.665   7.587
52438SOL    HW259154  11.201   2.643   7.652
52439SOL     OW59155   7.502   2.105   6.000
52439SOL    HW159156   7.508   2.197   5.976
52439SOL    HW259157   7.592   2.079   6.019
52440SOL     OW59158   4.091   9.679   8.829
52440SOL    HW159159   4.003   9.689   8.865
52440SOL    HW259160   4.090   9.732   8.749
52441SOL     OW59161   8.273   4.652   0.622
52441SOL    HW159162   8.270   4.626   0.530
52441SOL    HW259163   8.271   4.748   0.621
52442SOL     OW59164   2.413  11.778  11.453
52442SOL    HW159165   2.424  11.873  11.441
52442SOL    HW259166   2.482  11.739  11.399
52443SOL     OW59167   8.836   2.692   3.283
52443SOL    HW159168   8.878   2.652   3.359
52443SOL    HW259169   8.786   2.766   3.318
52444SOL     OW59170   6.077   1.435   4.399
52444SOL    HW159171   6.011   1.503   4.410
52444SOL    HW259172   6.141   1.454   4.468
52445SOL     OW59173   9.627  12.032   8.777
52445SOL    HW159174   9.691  11.963   8.792
52445SOL    HW259175   9.542  11.989   8.789
52446SOL     OW59176   5.285   7.826   6.648
52446SOL    HW159177   5.268   7.852   6.557
52446SOL    HW259178   5.287   7.730   6.645
52447SOL     OW59179   8.270  13.363   1.326
52447SOL    HW159180   8.319  13.390   1.248
52447SOL    HW259181   8.284  13.434   1.389
52448SOL     OW59182   4.285   9.930  10.156
52448SOL    HW159183   4.266  10.024  10.154
52448SOL    HW259184   4.351   9.921  10.225
52449SOL     OW59185   3.097  12.934  10.299
52449SOL    HW159186   3.116  12.843  10.273
52449SOL    HW259187   3.160  12.986  10.250
52450SOL     OW59188   9.965   9.240   5.000
52450SOL    HW159189   9.987   9.177   4.931
52450SOL    HW259190   9.870   9.244   5.000
52451SOL     OW59191   3.150  12.023   8.088
52451SOL    HW159192   3.190  11.978   8.014
52451SOL    HW259193   3.060  12.039   8.062
52452SOL     OW59194  10.987   5.728   4.091
52452SOL    HW159195  10.907   5.709   4.042
52452SOL    HW259196  11.046   5.655   4.071
52453SOL     OW59197   2.973   3.761   1.046
52453SOL    HW159198   2.920   3.790   0.971
52453SOL    HW259199   3.063   3.758   1.012
52454SOL     OW59200  12.527   6.788  14.527
52454SOL    HW159201  12.511   6.879  14.504
52454SOL    HW259202  12.582   6.793  14.605
52455SOL     OW59203   4.745  11.878   0.037
52455SOL    HW159204   4.688  11.955   0.041
52455SOL    HW259205   4.772  11.873  14.822
52456SOL     OW59206   7.208   2.075   5.478
52456SOL    HW159207   7.167   2.160   5.497
52456SOL    HW259208   7.302   2.090   5.488
52457SOL     OW59209   6.803  11.595  10.601
52457SOL    HW159210   6.803  11.634  10.513
52457SOL    HW259211   6.887  11.550  10.607
52458SOL     OW59212   9.232   3.609   6.509
52458SOL    HW159213   9.295   3.680   6.495
52458SOL    HW259214   9.223   3.604   6.604
52459SOL     OW59215   6.690   1.663   8.600
52459SOL    HW159216   6.755   1.725   8.634
52459SOL    HW259217   6.722   1.641   8.512
52460SOL     OW59218   0.601   9.623   5.171
52460SOL    HW159219   0.537   9.594   5.237
52460SOL    HW259220   0.685   9.592   5.203
52461SOL     OW59221   5.425  11.424   5.580
52461SOL    HW159222   5.332  11.445   5.593
52461SOL    HW259223   5.432  11.398   5.489
52462SOL     OW59224  10.035  11.346  10.852
52462SOL    HW159225  10.130  11.352  10.861
52462SOL    HW259226  10.004  11.436  10.863
52463SOL     OW59227   5.198   8.151   6.869
52463SOL    HW159228   5.279   8.191   6.837
52463SOL    HW259229   5.220   8.059   6.879
52464SOL     OW59230   5.493   4.089   1.236
52464SOL    HW159231   5.499   4.020   1.302
52464SOL    HW259232   5.420   4.144   1.263
52465SOL     OW59233   6.914   1.021  13.034
52465SOL    HW159234   6.848   1.056  13.094
52465SOL    HW259235   6.903   0.926  13.040
52466SOL     OW59236   0.535  10.572  13.260
52466SOL    HW159237   0.440  10.582  13.253
52466SOL    HW259238   0.564  10.657  13.293
52467SOL     OW59239  12.982  11.643  11.379
52467SOL    HW159240  12.893  11.612  11.399
52467SOL    HW259241  13.039  11.572  11.408
52468SOL     OW59242   0.689   2.605  10.838
52468SOL    HW159243   0.622   2.622  10.772
52468SOL    HW259244   0.686   2.510  10.851
52469SOL     OW59245   6.542  14.360   3.787
52469SOL    HW159246   6.544  14.276   3.832
52469SOL    HW259247   6.594  14.418   3.843
52470SOL     OW59248   4.997   3.434   5.198
52470SOL    HW159249   5.024   3.482   5.277
52470SOL    HW259250   5.018   3.343   5.218
52471SOL     OW59251   9.524   6.276  13.077
52471SOL    HW159252   9.597   6.241  13.128
52471SOL    HW259253   9.472   6.325  13.140
52472SOL     OW59254   2.591   5.800  10.349
52472SOL    HW159255   2.510   5.822  10.394
52472SOL    HW259256   2.638   5.743  10.409
52473SOL     OW59257  14.463   2.266  13.596
52473SOL    HW159258  14.464   2.196  13.531
52473SOL    HW259259  14.398   2.239  13.660
52474SOL     OW59260  11.494   0.124   2.052
52474SOL    HW159261  11.491   0.030   2.033
52474SOL    HW259262  11.509   0.128   2.147
52475SOL     OW59263   8.775  11.893   3.567
52475SOL    HW159264   8.819  11.859   3.490
52475SOL    HW259265   8.682  11.882   3.549
52476SOL     OW59266   6.850  11.363  11.839
52476SOL    HW159267   6.787  11.430  11.811
52476SOL    HW259268   6.799  11.303  11.893
52477SOL     OW59269  13.269   4.034   3.439
52477SOL    HW159270  13.320   3.976   3.383
52477SOL    HW259271  13.216   3.975   3.493
52478SOL     OW59272   6.406  10.874  11.555
52478SOL    HW159273   6.338  10.810  11.572
52478SOL    HW259274   6.486  10.823  11.548
52479SOL     OW59275   9.438   4.655   5.338
52479SOL    HW159276   9.397   4.687   5.257
52479SOL    HW259277   9.424   4.561   5.336
52480SOL     OW59278  13.067   0.105   5.547
52480SOL    HW159279  13.143   0.047   5.544
52480SOL    HW259280  12.998   0.057   5.503
52481SOL     OW59281   2.209   9.476  12.710
52481SOL    HW159282   2.162   9.441  12.786
52481SOL    HW259283   2.203   9.571  12.720
52482SOL     OW59284   5.642  14.250   1.904
52482SOL    HW159285   5.600  14.314   1.961
52482SOL    HW259286   5.570  14.211   1.855
52483SOL     OW59287  13.952  11.915   7.164
52483SOL    HW159288  13.893  11.987   7.141
52483SOL    HW259289  14.030  11.957   7.201
52484SOL     OW59290   9.210   6.997   9.615
52484SOL    HW159291   9.191   6.906   9.591
52484SOL    HW259292   9.297   7.014   9.578
52485SOL     OW59293   2.001   3.986   9.183
52485SOL    HW159294   2.089   4.019   9.201
52485SOL    HW259295   1.977   3.936   9.261
52486SOL     OW59296   6.441  11.569  14.577
52486SOL    HW159297   6.494  11.517  14.638
52486SOL    HW259298   6.497  11.581  14.500
52487SOL     OW59299   1.300   6.174   7.067
52487SOL    HW159300   1.292   6.244   7.002
52487SOL    HW259301   1.346   6.104   7.021
52488SOL     OW59302   3.177   2.629   5.195
52488SOL    HW159303   3.264   2.666   5.179
52488SOL    HW259304   3.120   2.706   5.201
52489SOL     OW59305  14.710  13.476   1.052
52489SOL    HW159306  14.804  13.455   1.048
52489SOL    HW259307  14.671  13.403   1.099
52490SOL     OW59308   5.796   3.222   7.568
52490SOL    HW159309   5.830   3.140   7.603
52490SOL    HW259310   5.715   3.237   7.616
52491SOL     OW59311  12.874   7.324  12.093
52491SOL    HW159312  12.822   7.296  12.167
52491SOL    HW259313  12.953   7.270  12.098
52492SOL     OW59314   9.047   6.233  12.896
52492SOL    HW159315   9.056   6.310  12.952
52492SOL    HW259316   8.953   6.217  12.892
52493SOL     OW59317  11.076   4.404   8.413
52493SOL    HW159318  11.085   4.323   8.362
52493SOL    HW259319  11.043   4.375   8.498
52494SOL     OW59320   6.639  10.634   6.465
52494SOL    HW159321   6.635  10.594   6.378
52494SOL    HW259322   6.610  10.724   6.451
52495SOL     OW59323  11.216   0.764  11.145
52495SOL    HW159324  11.216   0.842  11.201
52495SOL    HW259325  11.166   0.699  11.195
52496SOL     OW59326  10.697   0.156  14.745
52496SOL    HW159327  10.689   0.250  14.728
52496SOL    HW259328  10.735   0.151  14.832
52497SOL     OW59329   6.876  14.356   2.806
52497SOL    HW159330   6.882  14.450   2.824
52497SOL    HW259331   6.791  14.346   2.764
52498SOL     OW59332  11.929   3.288  14.441
52498SOL    HW159333  11.849   3.239  14.458
52498SOL    HW259334  11.936   3.291  14.346
52499SOL     OW59335   7.214   5.595   2.558
52499SOL    HW159336   7.174   5.510   2.545
52499SOL    HW259337   7.169   5.653   2.498
52500SOL     OW59338  10.227   8.993   7.968
52500SOL    HW159339  10.284   8.916   7.973
52500SOL    HW259340  10.287   9.067   7.976
52501SOL     OW59341   2.936  11.574   6.916
52501SOL    HW159342   2.874  11.606   6.981
52501SOL    HW259343   2.977  11.653   6.881
52502SOL     OW59344  14.218   5.109  11.174
52502SOL    HW159345  14.229   5.065  11.258
52502SOL    HW259346  14.308   5.120  11.141
52503SOL     OW59347   6.054   6.311  14.073
52503SOL    HW159348   6.017   6.353  14.151
52503SOL    HW259349   6.035   6.373  14.002
52504SOL     OW59350  13.765   8.512  13.433
52504SOL    HW159351  13.698   8.470  13.379
52504SOL    HW259352  13.716   8.553  13.504
52505SOL     OW59353   4.430  10.724  12.173
52505SOL    HW159354   4.357  10.784  12.192
52505SOL    HW259355   4.467  10.705  12.259
52506SOL     OW59356   7.462   0.923   1.679
52506SOL    HW159357   7.497   0.907   1.767
52506SOL    HW259358   7.490   1.012   1.658
52507SOL     OW59359   9.432   1.097  12.846
52507SOL    HW159360   9.521   1.127  12.827
52507SOL    HW259361   9.404   1.052  12.766
52508SOL     OW59362   1.956  13.677   9.676
52508SOL    HW159363   1.952  13.622   9.755
52508SOL    HW259364   1.887  13.642   9.619
52509SOL     OW59365   5.280   1.856  10.823
52509SOL    HW159366   5.243   1.905  10.749
52509SOL    HW259367   5.347   1.915  10.859
52510SOL     OW59368  12.906   6.575  12.430
52510SOL    HW159369  12.837   6.560  12.366
52510SOL    HW259370  12.987   6.551  12.384
52511SOL     OW59371   7.020  11.664   7.221
52511SOL    HW159372   7.045  11.576   7.250
52511SOL    HW259373   6.949  11.650   7.159
52512SOL     OW59374  12.299  14.643  14.157
52512SOL    HW159375  12.372  14.607  14.207
52512SOL    HW259376  12.328  14.636  14.066
52513SOL     OW59377   2.341   8.838   5.016
52513SOL    HW159378   2.426   8.883   5.010
52513SOL    HW259379   2.278   8.901   4.980
52514SOL     OW59380   2.363   3.435  12.119
52514SOL    HW159381   2.456   3.412  12.113
52514SOL    HW259382   2.345   3.482  12.037
52515SOL     OW59383   8.169   9.232   9.143
52515SOL    HW159384   8.153   9.177   9.220
52515SOL    HW259385   8.097   9.295   9.142
52516SOL     OW59386  13.504  12.597  11.879
52516SOL    HW159387  13.492  12.518  11.826
52516SOL    HW259388  13.496  12.568  11.969
52517SOL     OW59389   0.706  14.229   2.801
52517SOL    HW159390   0.659  14.173   2.740
52517SOL    HW259391   0.751  14.293   2.745
52518SOL     OW59392   3.362   5.848   3.938
52518SOL    HW159393   3.323   5.919   3.989
52518SOL    HW259394   3.291   5.786   3.924
52519SOL     OW59395   4.407   9.848  10.654
52519SOL    HW159396   4.388   9.763  10.693
52519SOL    HW259397   4.500   9.862  10.670
52520SOL     OW59398   7.591   1.206   3.720
52520SOL    HW159399   7.553   1.291   3.697
52520SOL    HW259400   7.567   1.149   3.647
52521SOL     OW59401   5.998  13.351   5.074
52521SOL    HW159402   5.909  13.318   5.061
52521SOL    HW259403   6.002  13.374   5.167
52522SOL     OW59404  11.363   2.517   0.686
52522SOL    HW159405  11.411   2.596   0.658
52522SOL    HW259406  11.415   2.482   0.758
52523SOL     OW59407   4.809   2.633  14.570
52523SOL    HW159408   4.794   2.573  14.497
52523SOL    HW259409   4.772   2.588  14.646
52524SOL     OW59410   1.926   4.095  11.748
52524SOL    HW159411   1.851   4.142  11.784
52524SOL    HW259412   1.967   4.053  11.823
52525SOL     OW59413   1.743   6.413   1.346
52525SOL    HW159414   1.772   6.457   1.266
52525SOL    HW259415   1.651   6.437   1.356
52526SOL     OW59416   0.463   3.245  13.247
52526SOL    HW159417   0.542   3.262  13.197
52526SOL    HW259418   0.493   3.197  13.324
52527SOL     OW59419   6.831   6.848  13.814
52527SOL    HW159420   6.741   6.871  13.788
52527SOL    HW259421   6.831   6.855  13.909
52528SOL     OW59422   1.879   5.868   7.104
52528SOL    HW159423   1.941   5.822   7.047
52528SOL    HW259424   1.927   5.945   7.134
52529SOL     OW59425   9.107   6.680   8.739
52529SOL    HW159426   9.020   6.713   8.717
52529SOL    HW259427   9.140   6.642   8.657
52530SOL     OW59428  12.620   7.034   6.505
52530SOL    HW159429  12.607   7.120   6.545
52530SOL    HW259430  12.714   7.032   6.484
52531SOL     OW59431   0.384   1.623   4.780
52531SOL    HW159432   0.293   1.634   4.806
52531SOL    HW259433   0.434   1.661   4.852
52532SOL     OW59434   9.968   1.187  10.272
52532SOL    HW159435   9.957   1.198  10.366
52532SOL    HW259436   9.891   1.137  10.244
52533SOL     OW59437   7.681   3.751   1.495
52533SOL    HW159438   7.624   3.696   1.549
52533SOL    HW259439   7.759   3.766   1.549
52534SOL     OW59440   5.323   0.288   2.893
52534SOL    HW159441   5.298   0.313   2.804
52534SOL    HW259442   5.279   0.204   2.907
52535SOL     OW59443   5.259   0.344   0.376
52535SOL    HW159444   5.176   0.390   0.363
52535SOL    HW259445   5.236   0.269   0.430
52536SOL     OW59446   6.526   3.574   2.046
52536SOL    HW159447   6.580   3.560   2.124
52536SOL    HW259448   6.520   3.669   2.037
52537SOL     OW59449  14.820  12.140   9.926
52537SOL    HW159450  14.791  12.225   9.958
52537SOL    HW259451  14.798  12.079   9.995
52538SOL     OW59452   6.907  12.398   6.765
52538SOL    HW159453   6.920  12.344   6.687
52538SOL    HW259454   6.965  12.473   6.753
52539SOL     OW59455   5.882   3.431   0.268
52539SOL    HW159456   5.971   3.408   0.244
52539SOL    HW259457   5.881   3.425   0.364
52540SOL     OW59458   0.717  12.991   3.991
52540SOL    HW159459   0.719  12.986   3.895
52540SOL    HW259460   0.750  12.906   4.020
52541SOL     OW59461   9.900   9.211   8.502
52541SOL    HW159462   9.867   9.266   8.432
52541SOL    HW259463   9.915   9.270   8.575
52542SOL     OW59464  11.900   9.429  11.002
52542SOL    HW159465  11.824   9.419  11.059
52542SOL    HW259466  11.963   9.364  11.034
52543SOL     OW59467   4.272   3.739   0.397
52543SOL    HW159468   4.198   3.771   0.345
52543SOL    HW259469   4.330   3.698   0.333
52544SOL     OW59470   1.520  14.460   0.165
52544SOL    HW159471   1.441  14.514   0.168
52544SOL    HW259472   1.489  14.374   0.135
52545SOL     OW59473  13.853   5.885  11.246
52545SOL    HW159474  13.930   5.886  11.190
52545SOL    HW259475  13.877   5.938  11.322
52546SOL     OW59476   8.898   4.576   3.840
52546SOL    HW159477   8.871   4.486   3.857
52546SOL    HW259478   8.828   4.629   3.876
52547SOL     OW59479   1.534   0.220   4.227
52547SOL    HW159480   1.485   0.138   4.236
52547SOL    HW259481   1.521   0.265   4.311
52548SOL     OW59482   3.730  12.198  14.807
52548SOL    HW159483   3.644  12.186  14.768
52548SOL    HW259484   3.748  12.292  14.798
52549SOL     OW59485  11.967  11.979   2.707
52549SOL    HW159486  12.007  12.037   2.642
52549SOL    HW259487  11.874  11.981   2.686
52550SOL     OW59488  13.954  14.745   9.582
52550SOL    HW159489  13.873  14.733   9.532
52550SOL    HW259490  13.927  14.790   9.661
52551SOL     OW59491  13.862  13.363   9.979
52551SOL    HW159492  13.810  13.286  10.002
52551SOL    HW259493  13.797  13.433   9.968
52552SOL     OW59494   4.657  14.201   5.325
52552SOL    HW159495   4.619  14.168   5.244
52552SOL    HW259496   4.582  14.235   5.374
52553SOL     OW59497   3.154   5.629  11.199
52553SOL    HW159498   3.114   5.661  11.118
52553SOL    HW259499   3.230   5.686  11.213
52554SOL     OW59500   8.041   3.645   5.606
52554SOL    HW159501   8.041   3.646   5.701
52554SOL    HW259502   8.022   3.736   5.581
52555SOL     OW59503   6.948   6.211   3.877
52555SOL    HW159504   6.903   6.246   3.954
52555SOL    HW259505   6.919   6.120   3.872
52556SOL     OW59506   9.582   1.631   7.832
52556SOL    HW159507   9.678   1.635   7.835
52556SOL    HW259508   9.563   1.538   7.822
52557SOL     OW59509   8.349   4.276   3.837
52557SOL    HW159510   8.277   4.294   3.776
52557SOL    HW259511   8.308   4.227   3.909
52558SOL     OW59512   2.557  13.539   9.572
52558SOL    HW159513   2.634  13.595   9.574
52558SOL    HW259514   2.582  13.465   9.518
52559SOL     OW59515   9.571   5.487   2.855
52559SOL    HW159516   9.599   5.398   2.877
52559SOL    HW259517   9.529   5.520   2.934
52560SOL     OW59518   9.736   9.798   9.060
52560SOL    HW159519   9.701   9.793   9.149
52560SOL    HW259520   9.691   9.728   9.013
52561SOL     OW59521  14.001   3.124   9.445
52561SOL    HW159522  13.928   3.174   9.409
52561SOL    HW259523  14.069   3.189   9.461
52562SOL     OW59524   1.240  14.442   1.056
52562SOL    HW159525   1.319  14.437   1.001
52562SOL    HW259526   1.169  14.453   0.993
52563SOL     OW59527   1.656   3.162   4.466
52563SOL    HW159528   1.727   3.119   4.418
52563SOL    HW259529   1.680   3.255   4.468
52564SOL     OW59530  14.748   4.081  11.399
52564SOL    HW159531  14.792   4.134  11.333
52564SOL    HW259532  14.813   4.015  11.423
52565SOL     OW59533  13.176   2.548  11.708
52565SOL    HW159534  13.114   2.480  11.736
52565SOL    HW259535  13.261   2.516  11.738
52566SOL     OW59536   1.220   5.754  13.610
52566SOL    HW159537   1.308   5.742  13.646
52566SOL    HW259538   1.170   5.678  13.641
52567SOL     OW59539   4.779   7.235   9.826
52567SOL    HW159540   4.847   7.297   9.850
52567SOL    HW259541   4.818   7.149   9.845
52568SOL     OW59542   5.302   1.899   6.008
52568SOL    HW159543   5.209   1.913   5.992
52568SOL    HW259544   5.305   1.829   6.074
52569SOL     OW59545   6.112   4.084  13.567
52569SOL    HW159546   6.125   4.094  13.472
52569SOL    HW259547   6.124   3.990  13.583
52570SOL     OW59548   5.362   6.346   2.810
52570SOL    HW159549   5.434   6.294   2.845
52570SOL    HW259550   5.358   6.322   2.717
52571SOL     OW59551  11.530   1.489   8.590
52571SOL    HW159552  11.623   1.469   8.602
52571SOL    HW259553  11.506   1.540   8.667
52572SOL     OW59554   2.318   6.728  10.649
52572SOL    HW159555   2.262   6.723  10.726
52572SOL    HW259556   2.318   6.821  10.625
52573SOL     OW59557  11.925   3.864   1.234
52573SOL    HW159558  11.878   3.800   1.180
52573SOL    HW259559  11.912   3.947   1.190
52574SOL     OW59560   3.561  12.785  12.554
52574SOL    HW159561   3.502  12.860  12.562
52574SOL    HW259562   3.540  12.729  12.629
52575SOL     OW59563   4.345   2.410   0.516
52575SOL    HW159564   4.439   2.391   0.524
52575SOL    HW259565   4.339   2.469   0.441
52576SOL     OW59566   3.136  11.241   4.200
52576SOL    HW159567   3.113  11.289   4.280
52576SOL    HW259568   3.056  11.193   4.178
52577SOL     OW59569   5.128   0.810   4.239
52577SOL    HW159570   5.122   0.816   4.335
52577SOL    HW259571   5.158   0.721   4.223
52578SOL     OW59572   3.069  12.780  11.240
52578SOL    HW159573   3.017  12.731  11.177
52578SOL    HW259574   3.159  12.757  11.221
52579SOL     OW59575   8.528  12.345   5.852
52579SOL    HW159576   8.583  12.401   5.798
52579SOL    HW259577   8.586  12.273   5.879
52580SOL     OW59578   7.027  10.201   7.034
52580SOL    HW159579   7.040  10.108   7.018
52580SOL    HW259580   7.076  10.219   7.114
52581SOL     OW59581  12.358   8.451  11.891
52581SOL    HW159582  12.398   8.493  11.967
52581SOL    HW259583  12.380   8.508  11.818
52582SOL     OW59584   5.273   2.822   2.337
52582SOL    HW159585   5.363   2.796   2.358
52582SOL    HW259586   5.277   2.851   2.246
52583SOL     OW59587   3.146  10.079   0.763
52583SOL    HW159588   3.213  10.061   0.829
52583SOL    HW259589   3.111   9.993   0.740
52584SOL     OW59590   4.741   3.194   4.663
52584SOL    HW159591   4.696   3.263   4.614
52584SOL    HW259592   4.800   3.154   4.599
52585SOL     OW59593   8.821   6.540  11.203
52585SOL    HW159594   8.891   6.536  11.138
52585SOL    HW259595   8.810   6.634  11.221
52586SOL     OW59596   3.627  14.008  14.018
52586SOL    HW159597   3.664  14.006  14.107
52586SOL    HW259598   3.687  13.953  13.966
52587SOL     OW59599   1.522   1.870   8.989
52587SOL    HW159600   1.556   1.914   9.067
52587SOL    HW259601   1.591   1.879   8.923
52588SOL     OW59602   9.102  11.277   2.750
52588SOL    HW159603   9.029  11.301   2.808
52588SOL    HW259604   9.174  11.257   2.809
52589SOL     OW59605  11.330  10.212  14.550
52589SOL    HW159606  11.246  10.213  14.596
52589SOL    HW259607  11.396  10.219  14.619
52590SOL     OW59608   9.892   1.949  12.586
52590SOL    HW159609   9.830   2.021  12.594
52590SOL    HW259610   9.956   1.964  12.655
52591SOL     OW59611   2.915   5.763  12.748
52591SOL    HW159612   2.912   5.730  12.838
52591SOL    HW259613   2.991   5.720  12.710
52592SOL     OW59614   8.891  12.072   9.048
52592SOL    HW159615   8.835  12.012   8.999
52592SOL    HW259616   8.856  12.069   9.137
52593SOL     OW59617   6.030   3.153  12.361
52593SOL    HW159618   6.050   3.233  12.314
52593SOL    HW259619   6.110   3.100  12.355
52594SOL     OW59620   6.803   9.415   9.759
52594SOL    HW159621   6.896   9.428   9.777
52594SOL    HW259622   6.795   9.321   9.743
52595SOL     OW59623   6.256   4.753   5.121
52595SOL    HW159624   6.188   4.745   5.188
52595SOL    HW259625   6.208   4.743   5.038
52596SOL     OW59626   9.287   0.835   0.792
52596SOL    HW159627   9.241   0.756   0.764
52596SOL    HW259628   9.369   0.803   0.831
52597SOL     OW59629   4.766   2.557   4.230
52597SOL    HW159630   4.689   2.555   4.173
52597SOL    HW259631   4.770   2.647   4.262
52598SOL     OW59632  13.905   2.734  12.841
52598SOL    HW159633  13.818   2.697  12.848
52598SOL    HW259634  13.959   2.663  12.806
52599SOL     OW59635   3.174   4.880   5.121
52599SOL    HW159636   3.257   4.836   5.142
52599SOL    HW259637   3.188   4.971   5.147
52600SOL     OW59638  11.867   4.200   6.143
52600SOL    HW159639  11.939   4.210   6.081
52600SOL    HW259640  11.874   4.277   6.200
52601SOL     OW59641   8.800   6.547   6.707
52601SOL    HW159642   8.757   6.574   6.626
52601SOL    HW259643   8.798   6.451   6.705
52602SOL     OW59644  12.051  12.466  11.976
52602SOL    HW159645  11.958  12.459  11.955
52602SOL    HW259646  12.067  12.561  11.981
52603SOL     OW59647   4.736  13.130   5.053
52603SOL    HW159648   4.739  13.045   5.010
52603SOL    HW259649   4.643  13.145   5.070
52604SOL     OW59650   6.323  11.929   7.333
52604SOL    HW159651   6.378  11.852   7.344
52604SOL    HW259652   6.380  11.994   7.292
52605SOL     OW59653   5.985  10.377   1.952
52605SOL    HW159654   6.081  10.381   1.949
52605SOL    HW259655   5.959  10.372   1.860
52606SOL     OW59656   9.778   8.452   0.195
52606SOL    HW159657   9.770   8.357   0.193
52606SOL    HW259658   9.845   8.472   0.130
52607SOL     OW59659   6.818   2.915  11.748
52607SOL    HW159660   6.769   2.839  11.782
52607SOL    HW259661   6.816   2.904  11.653
52608SOL     OW59662   3.395   0.482   2.982
52608SOL    HW159663   3.355   0.477   2.895
52608SOL    HW259664   3.373   0.399   3.023
52609SOL     OW59665  13.521   2.188  12.587
52609SOL    HW159666  13.538   2.238  12.507
52609SOL    HW259667  13.537   2.097  12.562
52610SOL     OW59668   6.978  11.618  14.017
52610SOL    HW159669   7.007  11.705  14.047
52610SOL    HW259670   6.921  11.587  14.086
52611SOL     OW59671   9.719  10.818  14.049
52611SOL    HW159672   9.707  10.906  14.014
52611SOL    HW259673   9.814  10.811  14.063
52612SOL     OW59674   7.787  12.573   4.044
52612SOL    HW159675   7.762  12.572   4.136
52612SOL    HW259676   7.800  12.666   4.023
52613SOL     OW59677  10.765  13.980   0.772
52613SOL    HW159678  10.859  13.994   0.772
52613SOL    HW259679  10.738  13.995   0.682
52614SOL     OW59680   0.057   8.679   5.470
52614SOL    HW159681   0.149   8.652   5.470
52614SOL    HW259682   0.008   8.600   5.492
52615SOL     OW59683   9.866   5.590   7.443
52615SOL    HW159684   9.941   5.533   7.458
52615SOL    HW259685   9.828   5.603   7.530
52616SOL     OW59686   5.304   9.873  14.701
52616SOL    HW159687   5.323   9.779  14.690
52616SOL    HW259688   5.224   9.875  14.754
52617SOL     OW59689   1.495   3.689  11.222
52617SOL    HW159690   1.572   3.632  11.218
52617SOL    HW259691   1.462   3.678  11.311
52618SOL     OW59692   0.439   9.651   5.625
52618SOL    HW159693   0.348   9.635   5.649
52618SOL    HW259694   0.490   9.589   5.678
52619SOL     OW59695  12.105  12.108   4.359
52619SOL    HW159696  12.042  12.037   4.372
52619SOL    HW259697  12.175  12.090   4.422
52620SOL     OW59698   4.362   0.780  14.055
52620SOL    HW159699   4.290   0.794  13.993
52620SOL    HW259700   4.331   0.818  14.137
52621SOL     OW59701   6.595  10.740   6.957
52621SOL    HW159702   6.602  10.645   6.954
52621SOL    HW259703   6.516  10.760   6.906
52622SOL     OW59704  11.608  10.702   8.108
52622SOL    HW159705  11.543  10.632   8.121
52622SOL    HW259706  11.556  10.782   8.104
52623SOL     OW59707   3.222  13.203   5.327
52623SOL    HW159708   3.261  13.127   5.369
52623SOL    HW259709   3.130  13.180   5.315
52624SOL     OW59710   1.546   3.903  14.496
52624SOL    HW159711   1.598   3.841  14.547
52624SOL    HW259712   1.533   3.977  14.556
52625SOL     OW59713   8.366   3.916  14.329
52625SOL    HW159714   8.356   3.824  14.303
52625SOL    HW259715   8.279   3.941  14.360
52626SOL     OW59716   7.740   0.880   6.517
52626SOL    HW159717   7.645   0.882   6.533
52626SOL    HW259718   7.762   0.970   6.492
52627SOL     OW59719   7.025  10.212  12.599
52627SOL    HW159720   6.955  10.248  12.654
52627SOL    HW259721   7.019  10.260  12.517
52628SOL     OW59722   2.400   9.048   4.382
52628SOL    HW159723   2.441   9.029   4.467
52628SOL    HW259724   2.329   9.109   4.404
52629SOL     OW59725  13.248  13.953  10.634
52629SOL    HW159726  13.310  13.883  10.655
52629SOL    HW259727  13.177  13.941  10.696
52630SOL     OW59728  10.497   3.562   0.161
52630SOL    HW159729  10.409   3.590   0.139
52630SOL    HW259730  10.508   3.586   0.253
52631SOL     OW59731   2.677  12.465  13.697
52631SOL    HW159732   2.642  12.536  13.643
52631SOL    HW259733   2.696  12.505  13.781
52632SOL     OW59734   5.988   1.034  11.780
52632SOL    HW159735   5.952   1.074  11.859
52632SOL    HW259736   5.927   1.059  11.710
52633SOL     OW59737  14.350  10.938  11.687
52633SOL    HW159738  14.265  10.914  11.725
52633SOL    HW259739  14.414  10.898  11.746
52634SOL     OW59740   3.335   1.450   6.587
52634SOL    HW159741   3.354   1.381   6.650
52634SOL    HW259742   3.391   1.523   6.614
52635SOL     OW59743  12.517   9.734  14.028
52635SOL    HW159744  12.545   9.820  13.998
52635SOL    HW259745  12.567   9.672  13.975
52636SOL     OW59746   9.015   2.389  11.768
52636SOL    HW159747   9.063   2.471  11.779
52636SOL    HW259748   8.930   2.415  11.734
52637SOL     OW59749   0.069   8.224   2.513
52637SOL    HW159750   0.156   8.185   2.523
52637SOL    HW259751   0.068   8.297   2.574
52638SOL     OW59752  14.332  14.262   7.811
52638SOL    HW159753  14.388  14.331   7.775
52638SOL    HW259754  14.243  14.291   7.790
52639SOL     OW59755   0.417   3.044   6.576
52639SOL    HW159756   0.482   3.033   6.645
52639SOL    HW259757   0.467   3.038   6.494
52640SOL     OW59758   2.265   0.092   7.350
52640SOL    HW159759   2.265   0.188   7.346
52640SOL    HW259760   2.174   0.067   7.335
52641SOL     OW59761  14.038   5.818   3.745
52641SOL    HW159762  13.979   5.820   3.669
52641SOL    HW259763  14.125   5.807   3.707
52642SOL     OW59764  13.173   9.215   5.355
52642SOL    HW159765  13.244   9.236   5.294
52642SOL    HW259766  13.132   9.299   5.374
52643SOL     OW59767   2.168   0.768   0.423
52643SOL    HW159768   2.211   0.822   0.489
52643SOL    HW259769   2.154   0.684   0.467
52644SOL     OW59770  12.390   4.776  11.766
52644SOL    HW159771  12.329   4.701  11.765
52644SOL    HW259772  12.476   4.737  11.751
52645SOL     OW59773   0.971   7.531   0.116
52645SOL    HW159774   0.891   7.500   0.157
52645SOL    HW259775   0.966   7.499   0.026
52646SOL     OW59776   0.000  13.942  13.939
52646SOL    HW159777   0.025  13.986  13.858
52646SOL    HW259778  14.811  13.878  13.912
52647SOL     OW59779  10.227  12.631   9.524
52647SOL    HW159780  10.206  12.593   9.610
52647SOL    HW259781  10.195  12.721   9.530
52648SOL     OW59782   2.347   9.102   5.355
52648SOL    HW159783   2.432   9.114   5.314
52648SOL    HW259784   2.286   9.097   5.282
52649SOL     OW59785  10.748   2.153   8.881
52649SOL    HW159786  10.748   2.230   8.938
52649SOL    HW259787  10.691   2.090   8.926
52650SOL     OW59788  12.234   8.993   5.584
52650SOL    HW159789  12.182   8.922   5.548
52650SOL    HW259790  12.283   9.027   5.509
52651SOL     OW59791   8.482   5.729   8.444
52651SOL    HW159792   8.531   5.770   8.515
52651SOL    HW259793   8.454   5.645   8.480
52652SOL     OW59794   9.236   8.117  12.416
52652SOL    HW159795   9.271   8.153  12.498
52652SOL    HW259796   9.146   8.092  12.437
52653SOL     OW59797  13.823  12.060  12.009
52653SOL    HW159798  13.821  12.005  12.087
52653SOL    HW259799  13.759  12.129  12.026
52654SOL     OW59800   1.044   7.726   4.732
52654SOL    HW159801   1.126   7.741   4.779
52654SOL    HW259802   1.044   7.793   4.663
52655SOL     OW59803  10.794   0.659  10.573
52655SOL    HW159804  10.747   0.694  10.498
52655SOL    HW259805  10.807   0.566  10.552
52656SOL     OW59806   0.899   7.316   8.814
52656SOL    HW159807   0.987   7.280   8.803
52656SOL    HW259808   0.899   7.354   8.902
52657SOL     OW59809   3.792   1.627   5.922
52657SOL    HW159810   3.885   1.647   5.925
52657SOL    HW259811   3.784   1.545   5.971
52658SOL     OW59812   1.377  12.529   7.228
52658SOL    HW159813   1.294  12.533   7.180
52658SOL    HW259814   1.384  12.614   7.270
52659SOL     OW59815   4.476   0.916   3.416
52659SOL    HW159816   4.545   0.851   3.403
52659SOL    HW259817   4.411   0.897   3.349
52660SOL     OW59818   5.648  13.124   1.002
52660SOL    HW159819   5.739  13.123   0.975
52660SOL    HW259820   5.603  13.067   0.939
52661SOL     OW59821   7.396   6.675   4.205
52661SOL    HW159822   7.429   6.585   4.213
52661SOL    HW259823   7.378   6.685   4.111
52662SOL     OW59824   2.643   8.765   6.593
52662SOL    HW159825   2.593   8.791   6.670
52662SOL    HW259826   2.656   8.671   6.604
52663SOL     OW59827   7.127   8.957   1.913
52663SOL    HW159828   7.080   9.040   1.917
52663SOL    HW259829   7.177   8.954   1.994
52664SOL     OW59830   6.971  12.064  13.708
52664SOL    HW159831   6.996  11.984  13.754
52664SOL    HW259832   6.982  12.043  13.615
52665SOL     OW59833  10.724  13.131   3.163
52665SOL    HW159834  10.718  13.119   3.068
52665SOL    HW259835  10.640  13.169   3.188
52666SOL     OW59836  14.420   0.588   4.165
52666SOL    HW159837  14.373   0.507   4.181
52666SOL    HW259838  14.402   0.609   4.073
52667SOL     OW59839  12.767   3.207   5.204
52667SOL    HW159840  12.706   3.217   5.277
52667SOL    HW259841  12.744   3.278   5.144
52668SOL     OW59842  13.975   5.682   8.797
52668SOL    HW159843  13.933   5.651   8.878
52668SOL    HW259844  13.925   5.760   8.773
52669SOL     OW59845   0.525  10.163   0.568
52669SOL    HW159846   0.487  10.160   0.481
52669SOL    HW259847   0.550  10.255   0.580
52670SOL     OW59848   6.341   6.611   9.647
52670SOL    HW159849   6.340   6.568   9.561
52670SOL    HW259850   6.250   6.606   9.676
52671SOL     OW59851   7.624   3.767   4.580
52671SOL    HW159852   7.563   3.693   4.582
52671SOL    HW259853   7.632   3.790   4.488
52672SOL     OW59854   2.839  10.539   4.822
52672SOL    HW159855   2.812  10.448   4.819
52672SOL    HW259856   2.836  10.568   4.730
52673SOL     OW59857   6.561   1.572  13.549
52673SOL    HW159858   6.652   1.556  13.523
52673SOL    HW259859   6.549   1.666  13.536
52674SOL     OW59860   7.633  11.558   1.965
52674SOL    HW159861   7.639  11.601   1.880
52674SOL    HW259862   7.540  11.564   1.988
52675SOL     OW59863  13.287   4.096   9.601
52675SOL    HW159864  13.374   4.105   9.561
52675SOL    HW259865  13.305   4.071   9.691
52676SOL     OW59866  14.089  14.464   5.796
52676SOL    HW159867  14.128  14.537   5.748
52676SOL    HW259868  14.044  14.413   5.729
52677SOL     OW59869   0.601   6.652  13.716
52677SOL    HW159870   0.519   6.631  13.671
52677SOL    HW259871   0.581   6.729  13.768
52678SOL     OW59872   6.768  10.388   1.609
52678SOL    HW159873   6.855  10.350   1.596
52678SOL    HW259874   6.783  10.482   1.615
52679SOL     OW59875   5.060   7.104   0.239
52679SOL    HW159876   4.982   7.069   0.282
52679SOL    HW259877   5.044   7.090   0.145
52680SOL     OW59878   7.120   8.994   2.698
52680SOL    HW159879   7.127   9.074   2.751
52680SOL    HW259880   7.089   8.927   2.759
52681SOL     OW59881   4.652  10.239   8.862
52681SOL    HW159882   4.688  10.215   8.776
52681SOL    HW259883   4.558  10.245   8.847
52682SOL     OW59884  13.283  11.635  12.495
52682SOL    HW159885  13.279  11.731  12.499
52682SOL    HW259886  13.217  11.606  12.558
52683SOL     OW59887   7.003  11.364  13.893
52683SOL    HW159888   7.015  11.453  13.924
52683SOL    HW259889   7.062  11.311  13.947
52684SOL     OW59890   3.326   3.730  10.440
52684SOL    HW159891   3.388   3.733  10.513
52684SOL    HW259892   3.365   3.788  10.374
52685SOL     OW59893   3.505   6.045  13.559
52685SOL    HW159894   3.459   6.026  13.641
52685SOL    HW259895   3.500   6.141  13.550
52686SOL     OW59896   3.890   4.626   3.530
52686SOL    HW159897   3.969   4.679   3.521
52686SOL    HW259898   3.915   4.539   3.500
52687SOL     OW59899   7.435  10.439   2.031
52687SOL    HW159900   7.518  10.417   1.989
52687SOL    HW259901   7.453  10.520   2.079
52688SOL     OW59902   9.323   8.956  11.717
52688SOL    HW159903   9.317   8.868  11.680
52688SOL    HW259904   9.391   8.949  11.784
52689SOL     OW59905   1.134   5.072   8.915
52689SOL    HW159906   1.113   5.017   8.839
52689SOL    HW259907   1.229   5.070   8.920
52690SOL     OW59908   1.293   1.299  13.402
52690SOL    HW159909   1.256   1.211  13.389
52690SOL    HW259910   1.325   1.323  13.315
52691SOL     OW59911  11.072   6.928  10.189
52691SOL    HW159912  11.058   6.856  10.250
52691SOL    HW259913  11.052   6.891  10.103
52692SOL     OW59914  10.462   3.691  11.824
52692SOL    HW159915  10.466   3.606  11.867
52692SOL    HW259916  10.495   3.753  11.889
52693SOL     OW59917   7.749   0.307   4.707
52693SOL    HW159918   7.764   0.381   4.648
52693SOL    HW259919   7.659   0.279   4.688
52694SOL     OW59920   6.897   3.812   0.164
52694SOL    HW159921   6.916   3.828   0.072
52694SOL    HW259922   6.861   3.724   0.166
52695SOL     OW59923  13.959   0.066   7.585
52695SOL    HW159924  13.889   0.001   7.594
52695SOL    HW259925  13.915   0.143   7.550
52696SOL     OW59926   8.929  11.012   3.490
52696SOL    HW159927   8.837  11.023   3.468
52696SOL    HW259928   8.976  11.054   3.419
52697SOL     OW59929  12.289   2.962   9.916
52697SOL    HW159930  12.368   3.008   9.888
52697SOL    HW259931  12.237   2.953   9.837
52698SOL     OW59932  14.433   8.969   7.922
52698SOL    HW159933  14.346   8.953   7.886
52698SOL    HW259934  14.421   9.036   7.989
52699SOL     OW59935  10.737  13.379  12.393
52699SOL    HW159936  10.659  13.433  12.378
52699SOL    HW259937  10.703  13.294  12.421
52700SOL     OW59938   3.426   2.754   5.168
52700SOL    HW159939   3.461   2.742   5.080
52700SOL    HW259940   3.422   2.849   5.180
52701SOL     OW59941   5.038  12.578   4.339
52701SOL    HW159942   5.114  12.577   4.281
52701SOL    HW259943   5.063  12.521   4.412
52702SOL     OW59944  11.578   8.294  13.770
52702SOL    HW159945  11.596   8.238  13.695
52702SOL    HW259946  11.659   8.291  13.822
52703SOL     OW59947  13.942   7.595  13.438
52703SOL    HW159948  14.029   7.571  13.472
52703SOL    HW259949  13.888   7.607  13.516
52704SOL     OW59950   5.221   0.921   2.652
52704SOL    HW159951   5.134   0.919   2.694
52704SOL    HW259952   5.204   0.950   2.562
52705SOL     OW59953  12.524   1.566  14.634
52705SOL    HW159954  12.560   1.478  14.642
52705SOL    HW259955  12.523   1.584  14.540
52706SOL     OW59956   1.694   6.833  14.530
52706SOL    HW159957   1.785   6.805  14.527
52706SOL    HW259958   1.650   6.765  14.581
52707SOL     OW59959   3.034   1.380  14.606
52707SOL    HW159960   3.034   1.315  14.677
52707SOL    HW259961   3.057   1.330  14.528
52708SOL     OW59962   7.540   0.319  13.731
52708SOL    HW159963   7.525   0.309  13.825
52708SOL    HW259964   7.468   0.375  13.701
52709SOL     OW59965   4.586  12.001   8.373
52709SOL    HW159966   4.494  11.972   8.368
52709SOL    HW259967   4.636  11.926   8.341
52710SOL     OW59968   7.503   0.469  12.633
52710SOL    HW159969   7.543   0.468  12.720
52710SOL    HW259970   7.413   0.496  12.649
52711SOL     OW59971   9.055   2.333   2.614
52711SOL    HW159972   9.075   2.415   2.569
52711SOL    HW259973   9.002   2.360   2.690
52712SOL     OW59974   2.040   1.610   5.896
52712SOL    HW159975   2.064   1.668   5.968
52712SOL    HW259976   2.034   1.668   5.820
52713SOL     OW59977   5.463   6.625   5.248
52713SOL    HW159978   5.457   6.646   5.341
52713SOL    HW259979   5.376   6.593   5.224
52714SOL     OW59980  12.174  11.293   3.643
52714SOL    HW159981  12.078  11.301   3.643
52714SOL    HW259982  12.205  11.383   3.638
52715SOL     OW59983  11.672   9.869   2.127
52715SOL    HW159984  11.709   9.834   2.208
52715SOL    HW259985  11.693   9.804   2.061
52716SOL     OW59986   7.084   2.283   7.350
52716SOL    HW159987   7.133   2.315   7.274
52716SOL    HW259988   7.119   2.334   7.424
52717SOL     OW59989  12.017  12.403   9.806
52717SOL    HW159990  12.079  12.355   9.752
52717SOL    HW259991  11.943  12.423   9.748
52718SOL     OW59992  10.468   6.829  10.116
52718SOL    HW159993  10.436   6.842  10.205
52718SOL    HW259994  10.482   6.918  10.083
52719SOL     OW59995   3.262  12.850   6.682
52719SOL    HW159996   3.325  12.874   6.750
52719SOL    HW259997   3.183  12.900   6.703
52720SOL     OW59998   7.542  11.201   0.501
52720SOL    HW159999   7.635  11.200   0.478
52720SOL    HW260000   7.538  11.252   0.582
52721SOL     OW60001   3.173   1.373   7.855
52721SOL    HW160002   3.100   1.362   7.794
52721SOL    HW260003   3.251   1.354   7.802
52722SOL     OW60004   6.346   9.479   1.501
52722SOL    HW160005   6.258   9.451   1.527
52722SOL    HW260006   6.384   9.517   1.580
52723SOL     OW60007  12.168  14.352   9.191
52723SOL    HW160008  12.158  14.371   9.098
52723SOL    HW260009  12.178  14.438   9.232
52724SOL     OW60010   6.671   3.586   9.600
52724SOL    HW160011   6.592   3.534   9.616
52724SOL    HW260012   6.731   3.562   9.670
52725SOL     OW60013   9.555   3.338  14.244
52725SOL    HW160014   9.466   3.308  14.225
52725SOL    HW260015   9.586   3.374  14.161
52726SOL     OW60016  10.638   3.065   6.723
52726SOL    HW160017  10.620   3.120   6.799
52726SOL    HW260018  10.732   3.045   6.729
52727SOL     OW60019  14.256  12.294   8.803
52727SOL    HW160020  14.235  12.217   8.750
52727SOL    HW260021  14.335  12.270   8.851
52728SOL     OW60022   1.609   7.751   0.081
52728SOL    HW160023   1.560   7.788   0.155
52728SOL    HW260024   1.657   7.826   0.045
52729SOL     OW60025  14.003   3.137   4.400
52729SOL    HW160026  14.067   3.206   4.381
52729SOL    HW260027  13.953   3.128   4.319
52730SOL     OW60028  11.059   2.168  11.983
52730SOL    HW160029  11.096   2.229  12.047
52730SOL    HW260030  11.126   2.100  11.973
52731SOL     OW60031  13.296  10.008   0.230
52731SOL    HW160032  13.247   9.944   0.281
52731SOL    HW260033  13.316   9.963   0.148
52732SOL     OW60034   3.952  11.219  12.151
52732SOL    HW160035   3.868  11.202  12.195
52732SOL    HW260036   3.961  11.314  12.153
52733SOL     OW60037  14.777   2.455   3.799
52733SOL    HW160038  14.800   2.494   3.883
52733SOL    HW260039  14.684   2.474   3.788
52734SOL     OW60040   5.297   1.578  12.252
52734SOL    HW160041   5.291   1.673  12.269
52734SOL    HW260042   5.346   1.572  12.170
52735SOL     OW60043   3.144  10.217   1.460
52735SOL    HW160044   3.138  10.312   1.448
52735SOL    HW260045   3.070  10.182   1.410
52736SOL     OW60046  10.287  13.794   2.460
52736SOL    HW160047  10.206  13.833   2.492
52736SOL    HW260048  10.293  13.822   2.369
52737SOL     OW60049   7.293  14.363   1.734
52737SOL    HW160050   7.361  14.417   1.775
52737SOL    HW260051   7.229  14.426   1.701
52738SOL     OW60052  10.660  11.862   0.271
52738SOL    HW160053  10.600  11.833   0.339
52738SOL    HW260054  10.725  11.915   0.317
52739SOL     OW60055   7.118  11.877  11.125
52739SOL    HW160056   7.153  11.816  11.190
52739SOL    HW260057   7.042  11.832  11.089
52740SOL     OW60058   9.788   5.138   2.594
52740SOL    HW160059   9.785   5.232   2.577
52740SOL    HW260060   9.728   5.099   2.530
52741SOL     OW60061   7.211   1.813   4.011
52741SOL    HW160062   7.206   1.784   4.102
52741SOL    HW260063   7.295   1.858   4.005
52742SOL     OW60064   4.263  14.620   0.397
52742SOL    HW160065   4.312  14.564   0.457
52742SOL    HW260066   4.288  14.709   0.422
52743SOL     OW60067   6.935   5.270   2.400
52743SOL    HW160068   7.022   5.296   2.432
52743SOL    HW260069   6.944   5.272   2.305
52744SOL     OW60070   7.826   7.087  10.186
52744SOL    HW160071   7.825   6.992  10.179
52744SOL    HW260072   7.749   7.115  10.137
52745SOL     OW60073   6.595  14.775   2.796
52745SOL    HW160074   6.574  14.838   2.727
52745SOL    HW260075   6.549  14.695   2.771
52746SOL     OW60076   8.157   4.313   1.354
52746SOL    HW160077   8.178   4.363   1.432
52746SOL    HW260078   8.064   4.295   1.360
52747SOL     OW60079   9.987   2.925  10.392
52747SOL    HW160080  10.075   2.958  10.410
52747SOL    HW260081   9.929   2.985  10.440
52748SOL     OW60082   3.111   4.806  10.786
52748SOL    HW160083   3.102   4.735  10.850
52748SOL    HW260084   3.141   4.762  10.706
52749SOL     OW60085  11.940   2.983  14.253
52749SOL    HW160086  11.943   3.071  14.217
52749SOL    HW260087  11.980   2.991  14.339
52750SOL     OW60088   5.290   1.067   9.292
52750SOL    HW160089   5.200   1.036   9.303
52750SOL    HW260090   5.344   0.993   9.318
52751SOL     OW60091   4.420   6.215  13.320
52751SOL    HW160092   4.405   6.277  13.391
52751SOL    HW260093   4.381   6.257  13.243
52752SOL     OW60094   9.191  11.519   6.767
52752SOL    HW160095   9.173  11.455   6.698
52752SOL    HW260096   9.286  11.516   6.778
52753SOL     OW60097   3.923   5.664   3.738
52753SOL    HW160098   3.901   5.714   3.660
52753SOL    HW260099   3.918   5.728   3.810
52754SOL     OW60100   8.950   1.870   5.023
52754SOL    HW160101   8.897   1.949   5.010
52754SOL    HW260102   8.890   1.798   5.002
52755SOL     OW60103   0.408   4.187   6.470
52755SOL    HW160104   0.317   4.162   6.484
52755SOL    HW260105   0.427   4.158   6.380
52756SOL     OW60106   8.225   7.340  14.672
52756SOL    HW160107   8.151   7.309  14.723
52756SOL    HW260108   8.290   7.366  14.738
52757SOL     OW60109   4.294  11.198  13.774
52757SOL    HW160110   4.367  11.178  13.716
52757SOL    HW260111   4.335  11.210  13.860
52758SOL     OW60112   3.650   6.922   5.490
52758SOL    HW160113   3.565   6.885   5.514
52758SOL    HW260114   3.703   6.913   5.570
52759SOL     OW60115   5.504   5.656   8.353
52759SOL    HW160116   5.522   5.750   8.357
52759SOL    HW260117   5.568   5.622   8.289
52760SOL     OW60118  14.557   2.694   4.346
52760SOL    HW160119  14.606   2.767   4.307
52760SOL    HW260120  14.516   2.732   4.424
52761SOL     OW60121   8.461   6.024   6.446
52761SOL    HW160122   8.478   6.018   6.540
52761SOL    HW260123   8.545   6.051   6.409
52762SOL     OW60124   1.109  11.565   5.641
52762SOL    HW160125   1.020  11.542   5.616
52762SOL    HW260126   1.133  11.499   5.707
52763SOL     OW60127   6.251   3.515   1.981
52763SOL    HW160128   6.227   3.425   1.959
52763SOL    HW260129   6.346   3.512   1.993
52764SOL     OW60130   9.645  11.371  14.576
52764SOL    HW160131   9.705  11.304  14.610
52764SOL    HW260132   9.681  11.454  14.608
52765SOL     OW60133   8.071  12.844   4.703
52765SOL    HW160134   8.090  12.934   4.729
52765SOL    HW260135   8.075  12.794   4.785
52766SOL     OW60136  14.129   3.990   8.460
52766SOL    HW160137  14.142   3.918   8.521
52766SOL    HW260138  14.071   3.955   8.393
52767SOL     OW60139  12.495  10.605  11.613
52767SOL    HW160140  12.564  10.544  11.640
52767SOL    HW260141  12.433  10.550  11.564
52768SOL     OW60142  12.973   4.686   9.233
52768SOL    HW160143  13.040   4.623   9.258
52768SOL    HW260144  12.999   4.767   9.276
52769SOL     OW60145   7.779   5.256  12.213
52769SOL    HW160146   7.806   5.348  12.215
52769SOL    HW260147   7.778   5.230  12.305
52770SOL     OW60148  10.407  10.499   2.053
52770SOL    HW160149  10.409  10.406   2.074
52770SOL    HW260150  10.324  10.512   2.007
52771SOL     OW60151   8.053  10.475  13.000
52771SOL    HW160152   8.128  10.492  12.943
52771SOL    HW260153   7.977  10.487  12.943
52772SOL     OW60154   3.386   7.839  14.803
52772SOL    HW160155   3.454   7.888  14.756
52772SOL    HW260156   3.399   7.749  14.776
52773SOL     OW60157  12.114   8.037   5.777
52773SOL    HW160158  12.065   7.976   5.834
52773SOL    HW260159  12.084   8.123   5.804
52774SOL     OW60160  13.080  11.988   8.577
52774SOL    HW160161  13.175  11.972   8.580
52774SOL    HW260162  13.041  11.902   8.593
52775SOL     OW60163   2.700   6.843   0.179
52775SOL    HW160164   2.724   6.754   0.151
52775SOL    HW260165   2.704   6.895   0.099
52776SOL     OW60166  11.717  11.062   7.241
52776SOL    HW160167  11.628  11.093   7.257
52776SOL    HW260168  11.705  10.974   7.204
52777SOL     OW60169   4.326   0.422   6.664
52777SOL    HW160170   4.342   0.503   6.711
52777SOL    HW260171   4.273   0.369   6.724
52778SOL     OW60172   5.986  14.767   3.846
52778SOL    HW160173   5.896  14.781   3.817
52778SOL    HW260174   6.026  14.714   3.777
52779SOL     OW60175   8.043  12.630  14.367
52779SOL    HW160176   7.991  12.572  14.312
52779SOL    HW260177   8.063  12.705  14.311
52780SOL     OW60178  11.952   5.324   5.147
52780SOL    HW160179  11.982   5.328   5.237
52780SOL    HW260180  11.918   5.411   5.129
52781SOL     OW60181   3.598   0.068  11.845
52781SOL    HW160182   3.515   0.111  11.868
52781SOL    HW260183   3.665   0.132  11.868
52782SOL     OW60184  14.121   4.907   8.620
52782SOL    HW160185  14.052   4.883   8.681
52782SOL    HW260186  14.200   4.915   8.675
52783SOL     OW60187  14.233  11.584   6.908
52783SOL    HW160188  14.267  11.533   6.982
52783SOL    HW260189  14.297  11.571   6.838
52784SOL     OW60190   4.075  14.548   8.361
52784SOL    HW160191   4.125  14.471   8.389
52784SOL    HW260192   4.027  14.518   8.283
52785SOL     OW60193   2.640   6.922  12.082
52785SOL    HW160194   2.617   6.946  12.172
52785SOL    HW260195   2.573   6.860  12.056
52786SOL     OW60196  13.591   2.312   8.230
52786SOL    HW160197  13.678   2.272   8.221
52786SOL    HW260198  13.561   2.325   8.140
52787SOL     OW60199  12.008  14.112   8.700
52787SOL    HW160200  11.930  14.121   8.754
52787SOL    HW260201  12.081  14.109   8.762
52788SOL     OW60202   9.394  11.568   0.474
52788SOL    HW160203   9.308  11.546   0.508
52788SOL    HW260204   9.454  11.547   0.546
52789SOL     OW60205   6.034  11.560  10.406
52789SOL    HW160206   5.954  11.603  10.437
52789SOL    HW260207   6.061  11.613  10.331
52790SOL     OW60208  12.258   9.786   2.311
52790SOL    HW160209  12.286   9.844   2.240
52790SOL    HW260210  12.197   9.725   2.269
52791SOL     OW60211   1.811  11.478   4.204
52791SOL    HW160212   1.847  11.428   4.130
52791SOL    HW260213   1.853  11.564   4.197
52792SOL     OW60214   0.372   3.838   0.109
52792SOL    HW160215   0.343   3.750   0.132
52792SOL    HW260216   0.428   3.865   0.182
52793SOL     OW60217   2.060   9.931   8.086
52793SOL    HW160218   2.129   9.992   8.112
52793SOL    HW260219   2.039   9.883   8.167
52794SOL     OW60220  10.705   5.914   0.053
52794SOL    HW160221  10.645   5.884   0.121
52794SOL    HW260222  10.733   6.001   0.081
52795SOL     OW60223   0.391   8.465   4.397
52795SOL    HW160224   0.371   8.403   4.326
52795SOL    HW260225   0.433   8.412   4.464
52796SOL     OW60226   9.031  14.852  12.759
52796SOL    HW160227   9.064  14.860  12.669
52796SOL    HW260228   9.081  14.780  12.797
52797SOL     OW60229   0.185  10.276   8.339
52797SOL    HW160230   0.159  10.248   8.251
52797SOL    HW260231   0.103  10.302   8.381
52798SOL     OW60232   6.467   1.544   3.368
52798SOL    HW160233   6.556   1.512   3.384
52798SOL    HW260234   6.448   1.599   3.444
52799SOL     OW60235   4.310  12.400   7.937
52799SOL    HW160236   4.251  12.329   7.912
52799SOL    HW260237   4.328  12.445   7.854
52800SOL     OW60238   0.807   0.425  13.507
52800SOL    HW160239   0.773   0.492  13.566
52800SOL    HW260240   0.734   0.365  13.493
52801SOL     OW60241  13.404   0.001   9.217
52801SOL    HW160242  13.390  14.783   9.221
52801SOL    HW260243  13.362   0.028   9.135
52802SOL     OW60244   2.445   7.832   4.345
52802SOL    HW160245   2.369   7.809   4.291
52802SOL    HW260246   2.407   7.863   4.427
52803SOL     OW60247  14.039   9.542   2.594
52803SOL    HW160248  14.098   9.598   2.647
52803SOL    HW260249  14.090   9.523   2.515
52804SOL     OW60250   8.246   9.853  13.890
52804SOL    HW160251   8.318   9.803  13.852
52804SOL    HW260252   8.286   9.935  13.919
52805SOL     OW60253  12.477   4.032   6.766
52805SOL    HW160254  12.437   4.019   6.680
52805SOL    HW260255  12.455   3.953   6.815
52806SOL     OW60256  13.703  12.838   4.427
52806SOL    HW160257  13.644  12.892   4.480
52806SOL    HW260258  13.719  12.761   4.482
52807SOL     OW60259  11.483  11.824  13.525
52807SOL    HW160260  11.396  11.863  13.538
52807SOL    HW260261  11.509  11.795  13.613
52808SOL     OW60262   0.963   1.051   8.920
52808SOL    HW160263   1.001   1.022   8.837
52808SOL    HW260264   1.029   1.029   8.986
52809SOL     OW60265   9.270  14.037   4.083
52809SOL    HW160266   9.271  14.132   4.095
52809SOL    HW260267   9.360  14.009   4.101
52810SOL     OW60268  13.045  12.746   7.699
52810SOL    HW160269  13.015  12.825   7.746
52810SOL    HW260270  13.034  12.768   7.607
52811SOL     OW60271  12.628   9.191  13.830
52811SOL    HW160272  12.671   9.243  13.763
52811SOL    HW260273  12.695   9.175  13.896
52812SOL     OW60274   2.261   5.237   6.285
52812SOL    HW160275   2.254   5.306   6.351
52812SOL    HW260276   2.171   5.209   6.270
52813SOL     OW60277  10.891  12.768   4.988
52813SOL    HW160278  10.810  12.819   4.992
52813SOL    HW260279  10.919  12.775   4.897
52814SOL     OW60280  10.851  14.539   6.767
52814SOL    HW160281  10.815  14.527   6.854
52814SOL    HW260282  10.925  14.599   6.780
52815SOL     OW60283  14.143   6.350   9.615
52815SOL    HW160284  14.154   6.401   9.535
52815SOL    HW260285  14.197   6.396   9.680
52816SOL     OW60286   0.654   1.000  10.515
52816SOL    HW160287   0.672   1.062  10.444
52816SOL    HW260288   0.564   1.019  10.541
52817SOL     OW60289   4.167   5.603   7.103
52817SOL    HW160290   4.220   5.651   7.040
52817SOL    HW260291   4.215   5.522   7.119
52818SOL     OW60292   2.861   1.276   2.992
52818SOL    HW160293   2.947   1.294   2.955
52818SOL    HW260294   2.849   1.343   3.059
52819SOL     OW60295   0.161  11.403   8.578
52819SOL    HW160296   0.108  11.483   8.578
52819SOL    HW260297   0.106  11.337   8.536
52820SOL     OW60298   0.039  10.778   4.608
52820SOL    HW160299  14.843  10.775   4.546
52820SOL    HW260300   0.064  10.687   4.622
52821SOL     OW60301  10.568   8.418  10.333
52821SOL    HW160302  10.576   8.426  10.238
52821SOL    HW260303  10.479   8.447  10.352
52822SOL     OW60304  11.659  13.691   6.691
52822SOL    HW160305  11.682  13.599   6.686
52822SOL    HW260306  11.567  13.694   6.666
52823SOL     OW60307   8.339  13.503   4.387
52823SOL    HW160308   8.403  13.571   4.406
52823SOL    HW260309   8.319  13.513   4.294
52824SOL     OW60310  10.730   8.937  14.177
52824SOL    HW160311  10.716   8.952  14.083
52824SOL    HW260312  10.782   9.012  14.205
52825SOL     OW60313   7.174   8.820   3.865
52825SOL    HW160314   7.161   8.731   3.897
52825SOL    HW260315   7.265   8.839   3.886
52826SOL     OW60316   3.716   5.438   2.781
52826SOL    HW160317   3.773   5.512   2.802
52826SOL    HW260318   3.774   5.377   2.734
52827SOL     OW60319   9.364   5.341   0.249
52827SOL    HW160320   9.428   5.280   0.287
52827SOL    HW260321   9.377   5.422   0.297
52828SOL     OW60322   2.452   8.955   3.840
52828SOL    HW160323   2.515   8.891   3.806
52828SOL    HW260324   2.469   8.956   3.935
52829SOL     OW60325   4.814   5.441   7.831
52829SOL    HW160326   4.825   5.371   7.896
52829SOL    HW260327   4.721   5.462   7.834
52830SOL     OW60328  12.918   6.941  13.075
52830SOL    HW160329  12.859   7.005  13.113
52830SOL    HW260330  12.868   6.902  13.003
52831SOL     OW60331   0.136   0.272   6.858
52831SOL    HW160332   0.166   0.296   6.946
52831SOL    HW260333   0.059   0.328   6.843
52832SOL     OW60334  10.077  10.876  13.388
52832SOL    HW160335  10.049  10.862  13.479
52832SOL    HW260336  10.116  10.963  13.389
52833SOL     OW60337   6.361   8.569   6.620
52833SOL    HW160338   6.340   8.490   6.669
52833SOL    HW260339   6.393   8.630   6.686
52834SOL     OW60340   6.824   0.873   7.588
52834SOL    HW160341   6.758   0.932   7.623
52834SOL    HW260342   6.834   0.900   7.496
52835SOL     OW60343   8.644   3.259   3.334
52835SOL    HW160344   8.657   3.340   3.287
52835SOL    HW260345   8.692   3.270   3.416
52836SOL     OW60346   2.467  11.547   3.351
52836SOL    HW160347   2.408  11.616   3.320
52836SOL    HW260348   2.522  11.590   3.416
52837SOL     OW60349   8.554   7.903   9.119
52837SOL    HW160350   8.576   7.887   9.211
52837SOL    HW260351   8.519   7.992   9.118
52838SOL     OW60352   7.582  10.042   2.538
52838SOL    HW160353   7.654   9.991   2.501
52838SOL    HW260354   7.533   9.979   2.591
52839SOL     OW60355  11.714  12.515  11.271
52839SOL    HW160356  11.676  12.603  11.271
52839SOL    HW260357  11.806  12.528  11.292
52840SOL     OW60358   2.841   7.727   6.063
52840SOL    HW160359   2.760   7.677   6.058
52840SOL    HW260360   2.904   7.676   6.012
52841SOL     OW60361   9.144  12.385  13.128
52841SOL    HW160362   9.195  12.304  13.128
52841SOL    HW260363   9.055  12.357  13.147
52842SOL     OW60364  12.948   8.824   5.487
52842SOL    HW160365  12.950   8.906   5.536
52842SOL    HW260366  13.016   8.834   5.421
52843SOL     OW60367  13.065  13.369   1.184
52843SOL    HW160368  13.068  13.341   1.093
52843SOL    HW260369  12.971  13.371   1.205
52844SOL     OW60370  13.247   7.058  10.867
52844SOL    HW160371  13.191   6.998  10.816
52844SOL    HW260372  13.220   7.145  10.839
52845SOL     OW60373   3.930   4.171   6.618
52845SOL    HW160374   3.845   4.211   6.604
52845SOL    HW260375   3.914   4.101   6.682
52846SOL     OW60376   3.218   5.003  11.125
52846SOL    HW160377   3.220   5.021  11.031
52846SOL    HW260378   3.146   5.057  11.159
52847SOL     OW60379   3.954   8.661   5.204
52847SOL    HW160380   3.881   8.719   5.224
52847SOL    HW260381   3.967   8.669   5.110
52848SOL     OW60382  12.452   2.224   9.603
52848SOL    HW160383  12.497   2.147   9.638
52848SOL    HW260384  12.361   2.211   9.628
52849SOL     OW60385   5.016  12.569   6.459
52849SOL    HW160386   4.954  12.505   6.493
52849SOL    HW260387   5.016  12.639   6.524
52850SOL     OW60388  14.083  13.685  14.123
52850SOL    HW160389  14.043  13.679  14.037
52850SOL    HW260390  14.059  13.773  14.154
52851SOL     OW60391  10.833   9.676  11.208
52851SOL    HW160392  10.922   9.706  11.226
52851SOL    HW260393  10.826   9.592  11.253
52852SOL     OW60394   5.433   2.011  11.794
52852SOL    HW160395   5.381   2.078  11.749
52852SOL    HW260396   5.381   1.988  11.870
52853SOL     OW60397   3.809   0.431   2.102
52853SOL    HW160398   3.787   0.425   2.009
52853SOL    HW260399   3.844   0.345   2.125
52854SOL     OW60400  10.701  13.264  13.656
52854SOL    HW160401  10.741  13.338  13.701
52854SOL    HW260402  10.633  13.234  13.717
52855SOL     OW60403  11.748   9.925   7.578
52855SOL    HW160404  11.671   9.952   7.628
52855SOL    HW260405  11.790  10.007   7.553
52856SOL     OW60406  12.364   2.951   3.051
52856SOL    HW160407  12.388   2.888   3.119
52856SOL    HW260408  12.270   2.938   3.038
52857SOL     OW60409  10.560   4.940  13.305
52857SOL    HW160410  10.555   5.030  13.337
52857SOL    HW260411  10.616   4.895  13.369
52858SOL     OW60412  14.534  12.720   4.402
52858SOL    HW160413  14.461  12.661   4.421
52858SOL    HW260414  14.550  12.710   4.309
52859SOL     OW60415  13.048   6.726   7.598
52859SOL    HW160416  12.968   6.692   7.558
52859SOL    HW260417  13.025   6.739   7.690
52860SOL     OW60418  11.020  10.548  14.163
52860SOL    HW160419  10.999  10.566  14.071
52860SOL    HW260420  10.949  10.491  14.192
52861SOL     OW60421  11.386   9.932   1.939
52861SOL    HW160422  11.327   9.864   1.970
52861SOL    HW260423  11.401   9.987   2.016
52862SOL     OW60424   4.537   1.126   9.296
52862SOL    HW160425   4.593   1.060   9.336
52862SOL    HW260426   4.557   1.207   9.343
52863SOL     OW60427   3.244   0.998  11.420
52863SOL    HW160428   3.224   1.091  11.426
52863SOL    HW260429   3.159   0.954  11.417
52864SOL     OW60430   6.725   7.448  11.497
52864SOL    HW160431   6.748   7.427  11.587
52864SOL    HW260432   6.796   7.411  11.444
52865SOL     OW60433   2.990  14.108   5.739
52865SOL    HW160434   3.059  14.130   5.801
52865SOL    HW260435   2.934  14.186   5.738
52866SOL     OW60436  10.255  12.035  10.641
52866SOL    HW160437  10.299  12.094  10.580
52866SOL    HW260438  10.281  11.947  10.613
52867SOL     OW60439  11.007  14.020   9.994
52867SOL    HW160440  11.084  14.037   9.941
52867SOL    HW260441  10.934  14.051   9.941
52868SOL     OW60442  10.632   1.420  12.100
52868SOL    HW160443  10.638   1.364  12.023
52868SOL    HW260444  10.676   1.501  12.074
52869SOL     OW60445   1.681   6.960   8.475
52869SOL    HW160446   1.754   7.008   8.515
52869SOL    HW260447   1.618   7.028   8.452
52870SOL     OW60448   5.193   4.126   1.261
52870SOL    HW160449   5.166   4.120   1.353
52870SOL    HW260450   5.199   4.035   1.233
52871SOL     OW60451  11.859   1.850  12.134
52871SOL    HW160452  11.852   1.869  12.040
52871SOL    HW260453  11.906   1.767  12.138
52872SOL     OW60454   7.349  11.045   4.496
52872SOL    HW160455   7.281  11.032   4.429
52872SOL    HW260456   7.428  11.066   4.446
52873SOL     OW60457   1.752  10.841   6.508
52873SOL    HW160458   1.710  10.758   6.531
52873SOL    HW260459   1.736  10.898   6.583
52874SOL     OW60460   4.088   5.511   2.334
52874SOL    HW160461   4.060   5.602   2.326
52874SOL    HW260462   4.099   5.481   2.244
52875SOL     OW60463   9.810   7.800  11.888
52875SOL    HW160464   9.773   7.799  11.976
52875SOL    HW260465   9.735   7.811  11.830
52876SOL     OW60466   4.409   6.792   3.595
52876SOL    HW160467   4.444   6.742   3.520
52876SOL    HW260468   4.459   6.761   3.670
52877SOL     OW60469  14.757  12.207   6.362
52877SOL    HW160470  14.705  12.205   6.282
52877SOL    HW260471  14.722  12.135   6.415
52878SOL     OW60472   6.189   2.456   4.952
52878SOL    HW160473   6.133   2.481   5.026
52878SOL    HW260474   6.275   2.492   4.974
52879SOL     OW60475  12.046   4.286  14.283
52879SOL    HW160476  11.969   4.245  14.323
52879SOL    HW260477  12.009   4.354  14.226
52880SOL     OW60478  13.385  14.064  13.053
52880SOL    HW160479  13.417  14.047  13.142
52880SOL    HW260480  13.340  14.148  13.059
52881SOL     OW60481  12.933   2.073   7.138
52881SOL    HW160482  13.006   2.030   7.184
52881SOL    HW260483  12.891   2.127   7.206
52882SOL     OW60484   2.237   8.205  10.166
52882SOL    HW160485   2.279   8.121  10.152
52882SOL    HW260486   2.266   8.260  10.093
52883SOL     OW60487   8.055  14.549  10.776
52883SOL    HW160488   8.054  14.638  10.810
52883SOL    HW260489   8.047  14.559  10.681
52884SOL     OW60490   4.495   1.992   0.244
52884SOL    HW160491   4.557   2.029   0.181
52884SOL    HW260492   4.544   1.922   0.287
52885SOL     OW60493   7.182   5.281   1.716
52885SOL    HW160494   7.104   5.318   1.757
52885SOL    HW260495   7.214   5.216   1.778
52886SOL     OW60496   2.717   7.922  12.837
52886SOL    HW160497   2.762   7.850  12.793
52886SOL    HW260498   2.624   7.904  12.824
52887SOL     OW60499   2.288   5.268   8.243
52887SOL    HW160500   2.384   5.272   8.233
52887SOL    HW260501   2.272   5.303   8.330
52888SOL     OW60502   5.144   2.646   1.552
52888SOL    HW160503   5.182   2.723   1.594
52888SOL    HW260504   5.210   2.619   1.488
52889SOL     OW60505   4.507  12.458  10.406
52889SOL    HW160506   4.520  12.444  10.499
52889SOL    HW260507   4.445  12.390  10.380
52890SOL     OW60508   1.655  12.462   0.101
52890SOL    HW160509   1.575  12.500   0.137
52890SOL    HW260510   1.719  12.469   0.173
52891SOL     OW60511   2.743  14.711   1.199
52891SOL    HW160512   2.767  14.786   1.254
52891SOL    HW260513   2.660  14.735   1.159
52892SOL     OW60514   9.855   0.896   7.248
52892SOL    HW160515   9.922   0.902   7.179
52892SOL    HW260516   9.777   0.934   7.208
52893SOL     OW60517   5.414   0.249   4.796
52893SOL    HW160518   5.359   0.173   4.778
52893SOL    HW260519   5.382   0.282   4.880
52894SOL     OW60520   9.554  14.268  13.339
52894SOL    HW160521   9.493  14.275  13.412
52894SOL    HW260522   9.594  14.182  13.349
52895SOL     OW60523  11.170   7.471  13.933
52895SOL    HW160524  11.075   7.458  13.936
52895SOL    HW260525  11.181   7.555  13.890
52896SOL     OW60526   9.403   6.658   4.007
52896SOL    HW160527   9.374   6.567   4.010
52896SOL    HW260528   9.433   6.676   4.096
52897SOL     OW60529   1.417  12.660   0.734
52897SOL    HW160530   1.451  12.574   0.708
52897SOL    HW260531   1.394  12.703   0.652
52898SOL     OW60532  13.831   3.725  10.190
52898SOL    HW160533  13.790   3.744  10.105
52898SOL    HW260534  13.853   3.811  10.226
52899SOL     OW60535   3.685   8.127   0.221
52899SOL    HW160536   3.710   8.034   0.229
52899SOL    HW260537   3.763   8.169   0.185
52900SOL     OW60538   8.845  11.314  11.007
52900SOL    HW160539   8.894  11.232  11.019
52900SOL    HW260540   8.754  11.291  11.028
52901SOL     OW60541   0.777   6.563   0.457
52901SOL    HW160542   0.779   6.544   0.363
52901SOL    HW260543   0.687   6.542   0.483
52902SOL     OW60544  10.050   5.976  13.626
52902SOL    HW160545   9.960   5.949  13.646
52902SOL    HW260546  10.064   6.055  13.678
52903SOL     OW60547  11.444   7.947   8.049
52903SOL    HW160548  11.361   7.932   8.004
52903SOL    HW260549  11.490   8.009   7.993
52904SOL     OW60550   5.634   7.172   6.196
52904SOL    HW160551   5.704   7.203   6.253
52904SOL    HW260552   5.559   7.227   6.219
52905SOL     OW60553   6.661   1.909   0.162
52905SOL    HW160554   6.608   1.861   0.098
52905SOL    HW260555   6.633   1.875   0.247
52906SOL     OW60556  14.678   5.093  10.103
52906SOL    HW160557  14.609   5.159  10.099
52906SOL    HW260558  14.666   5.040  10.024
52907SOL     OW60559  12.572   5.061   1.969
52907SOL    HW160560  12.590   4.994   2.036
52907SOL    HW260561  12.594   5.019   1.886
52908SOL     OW60562   4.405  12.743   0.126
52908SOL    HW160563   4.372  12.810   0.186
52908SOL    HW260564   4.491  12.774   0.099
52909SOL     OW60565   1.632   2.042   0.632
52909SOL    HW160566   1.557   2.019   0.687
52909SOL    HW260567   1.651   1.962   0.582
52910SOL     OW60568   9.648   4.018  11.322
52910SOL    HW160569   9.566   4.040  11.366
52910SOL    HW260570   9.622   3.989  11.235
52911SOL     OW60571   7.081   3.962   0.293
52911SOL    HW160572   7.051   3.892   0.235
52911SOL    HW260573   7.057   4.043   0.248
52912SOL     OW60574  10.082   0.982   8.308
52912SOL    HW160575  10.170   0.984   8.347
52912SOL    HW260576  10.037   0.910   8.353
52913SOL     OW60577  11.379   4.952   7.655
52913SOL    HW160578  11.308   4.960   7.718
52913SOL    HW260579  11.430   5.033   7.667
52914SOL     OW60580   8.687   0.575   4.645
52914SOL    HW160581   8.621   0.526   4.694
52914SOL    HW260582   8.683   0.539   4.557
52915SOL     OW60583  13.462   4.495  12.205
52915SOL    HW160584  13.488   4.560  12.270
52915SOL    HW260585  13.538   4.489  12.146
52916SOL     OW60586   6.057  10.864   5.822
52916SOL    HW160587   6.130  10.926   5.814
52916SOL    HW260588   5.979  10.918   5.824
52917SOL     OW60589   3.609   3.954   4.526
52917SOL    HW160590   3.523   3.912   4.530
52917SOL    HW260591   3.616   3.984   4.435
52918SOL     OW60592  10.084  13.570  14.407
52918SOL    HW160593  10.178  13.576  14.420
52918SOL    HW260594  10.050  13.655  14.435
52919SOL     OW60595   7.719   4.723   5.299
52919SOL    HW160596   7.798   4.697   5.346
52919SOL    HW260597   7.681   4.641   5.268
52920SOL     OW60598   7.686  13.003  14.746
52920SOL    HW160599   7.718  13.089  14.775
52920SOL    HW260600   7.686  13.009  14.651
52921SOL     OW60601   3.179  14.059   7.005
52921SOL    HW160602   3.204  14.083   6.915
52921SOL    HW260603   3.090  14.092   7.015
52922SOL     OW60604   7.934  10.002   7.365
52922SOL    HW160605   7.956   9.909   7.379
52922SOL    HW260606   7.926  10.038   7.454
52923SOL     OW60607  10.550   6.499   5.659
52923SOL    HW160608  10.484   6.435   5.687
52923SOL    HW260609  10.501   6.567   5.614
52924SOL     OW60610   1.533   9.919   2.090
52924SOL    HW160611   1.529  10.005   2.049
52924SOL    HW260612   1.478   9.864   2.035
52925SOL     OW60613   0.503   1.228  12.882
52925SOL    HW160614   0.592   1.260  12.867
52925SOL    HW260615   0.461   1.234  12.796
52926SOL     OW60616  12.284  13.208  10.061
52926SOL    HW160617  12.275  13.152   9.984
52926SOL    HW260618  12.371  13.247  10.053
52927SOL     OW60619   4.350   6.791  12.508
52927SOL    HW160620   4.394   6.836  12.437
52927SOL    HW260621   4.357   6.698  12.485
52928SOL     OW60622   5.874   4.520   1.827
52928SOL    HW160623   5.814   4.582   1.786
52928SOL    HW260624   5.836   4.434   1.809
52929SOL     OW60625   8.162  14.346   5.575
52929SOL    HW160626   8.091  14.407   5.554
52929SOL    HW260627   8.127  14.292   5.646
52930SOL     OW60628   8.788   3.770   8.424
52930SOL    HW160629   8.778   3.798   8.516
52930SOL    HW260630   8.882   3.768   8.410
52931SOL     OW60631   8.859  10.822  12.187
52931SOL    HW160632   8.770  10.807  12.156
52931SOL    HW260633   8.889  10.899  12.138
52932SOL     OW60634  10.895  10.275   2.439
52932SOL    HW160635  10.929  10.271   2.349
52932SOL    HW260636  10.831  10.346   2.437
52933SOL     OW60637  10.706   6.408   9.356
52933SOL    HW160638  10.752   6.444   9.280
52933SOL    HW260639  10.627   6.463   9.364
52934SOL     OW60640  14.331   2.404  10.653
52934SOL    HW160641  14.260   2.437  10.598
52934SOL    HW260642  14.339   2.312  10.630
52935SOL     OW60643   8.518   2.074   5.586
52935SOL    HW160644   8.587   2.139   5.603
52935SOL    HW260645   8.564   1.990   5.587
52936SOL     OW60646   3.681   5.457  11.206
52936SOL    HW160647   3.751   5.519  11.225
52936SOL    HW260648   3.666   5.466  11.111
52937SOL     OW60649  13.913   3.490   1.857
52937SOL    HW160650  13.929   3.459   1.768
52937SOL    HW260651  13.982   3.554   1.873
52938SOL     OW60652   7.889   9.089   3.676
52938SOL    HW160653   7.858   9.037   3.751
52938SOL    HW260654   7.961   9.141   3.712
52939SOL     OW60655   2.603  10.886  14.302
52939SOL    HW160656   2.642  10.837  14.374
52939SOL    HW260657   2.675  10.903  14.242
52940SOL     OW60658   8.850  13.674   9.793
52940SOL    HW160659   8.892  13.590   9.812
52940SOL    HW260660   8.768  13.652   9.750
52941SOL     OW60661   9.651   0.124   3.008
52941SOL    HW160662   9.673   0.214   2.985
52941SOL    HW260663   9.728   0.073   2.981
52942SOL     OW60664   0.563  14.763   7.735
52942SOL    HW160665   0.487  14.753   7.793
52942SOL    HW260666   0.594  14.852   7.750
52943SOL     OW60667  13.222   6.959   2.670
52943SOL    HW160668  13.308   6.995   2.692
52943SOL    HW260669  13.175   7.032   2.630
52944SOL     OW60670   6.131   0.351   1.216
52944SOL    HW160671   6.160   0.372   1.128
52944SOL    HW260672   6.210   0.326   1.263
52945SOL     OW60673   0.637  12.337   9.137
52945SOL    HW160674   0.559  12.390   9.123
52945SOL    HW260675   0.613  12.250   9.105
52946SOL     OW60676   9.745   6.523   5.469
52946SOL    HW160677   9.709   6.611   5.456
52946SOL    HW260678   9.668   6.465   5.469
52947SOL     OW60679   4.089   4.145   8.132
52947SOL    HW160680   4.163   4.206   8.128
52947SOL    HW260681   4.069   4.126   8.040
52948SOL     OW60682   4.456  12.370  12.523
52948SOL    HW160683   4.526  12.342  12.464
52948SOL    HW260684   4.497  12.370  12.610
52949SOL     OW60685  11.098   8.268   7.604
52949SOL    HW160686  11.114   8.311   7.520
52949SOL    HW260687  11.007   8.237   7.599
52950SOL     OW60688   9.105   2.735  13.350
52950SOL    HW160689   9.103   2.711  13.257
52950SOL    HW260690   9.142   2.658  13.393
52951SOL     OW60691   1.346  14.482   3.168
52951SOL    HW160692   1.328  14.505   3.260
52951SOL    HW260693   1.290  14.407   3.151
52952SOL     OW60694   7.956   3.182   7.927
52952SOL    HW160695   8.026   3.212   7.985
52952SOL    HW260696   7.917   3.262   7.892
52953SOL     OW60697  14.569   3.437   7.259
52953SOL    HW160698  14.594   3.347   7.237
52953SOL    HW260699  14.474   3.439   7.247
52954SOL     OW60700  11.563   4.045   7.013
52954SOL    HW160701  11.597   4.068   7.100
52954SOL    HW260702  11.468   4.049   7.023
52955SOL     OW60703   9.324   2.888  13.866
52955SOL    HW160704   9.376   2.901  13.945
52955SOL    HW260705   9.260   2.820  13.890
52956SOL     OW60706   9.795  14.265   4.849
52956SOL    HW160707   9.807  14.314   4.768
52956SOL    HW260708   9.854  14.307   4.912
52957SOL     OW60709  14.008   5.117   0.355
52957SOL    HW160710  13.931   5.064   0.336
52957SOL    HW260711  14.038   5.087   0.441
52958SOL     OW60712   4.075   3.566   5.121
52958SOL    HW160713   4.009   3.591   5.185
52958SOL    HW260714   4.107   3.481   5.150
52959SOL     OW60715  11.537   4.394  14.816
52959SOL    HW160716  11.581   4.311  14.832
52959SOL    HW260717  11.445   4.371  14.803
52960SOL     OW60718   6.050   4.852  11.124
52960SOL    HW160719   6.106   4.787  11.082
52960SOL    HW260720   6.054   4.929  11.066
52961SOL     OW60721   3.427  12.647   8.821
52961SOL    HW160722   3.335  12.643   8.795
52961SOL    HW260723   3.442  12.739   8.842
52962SOL     OW60724  12.421   2.577   1.688
52962SOL    HW160725  12.418   2.657   1.741
52962SOL    HW260726  12.369   2.514   1.738
52963SOL     OW60727  10.489  11.568   2.511
52963SOL    HW160728  10.508  11.566   2.605
52963SOL    HW260729  10.417  11.631   2.502
52964SOL     OW60730   2.470   2.106   2.094
52964SOL    HW160731   2.406   2.045   2.056
52964SOL    HW260732   2.450   2.106   2.187
52965SOL     OW60733   0.353   2.929   3.582
52965SOL    HW160734   0.340   2.900   3.673
52965SOL    HW260735   0.283   2.992   3.567
52966SOL     OW60736  10.617   6.984   3.928
52966SOL    HW160737  10.669   7.047   3.977
52966SOL    HW260738  10.580   7.035   3.855
52967SOL     OW60739  11.921  11.957   1.682
52967SOL    HW160740  11.869  11.929   1.758
52967SOL    HW260741  11.894  12.048   1.668
52968SOL     OW60742  11.620   4.099   6.256
52968SOL    HW160743  11.689   4.155   6.221
52968SOL    HW260744  11.576   4.153   6.322
52969SOL     OW60745   6.858   5.226  12.384
52969SOL    HW160746   6.877   5.297  12.445
52969SOL    HW260747   6.876   5.146  12.433
52970SOL     OW60748  11.963   2.034   9.249
52970SOL    HW160749  12.003   1.960   9.202
52970SOL    HW260750  11.949   2.100   9.181
52971SOL     OW60751   8.571  14.694   0.236
52971SOL    HW160752   8.502  14.746   0.277
52971SOL    HW260753   8.525  14.625   0.189
52972SOL     OW60754   1.753   8.459   5.407
52972SOL    HW160755   1.748   8.440   5.500
52972SOL    HW260756   1.764   8.554   5.403
52973SOL     OW60757   3.383  14.050   2.570
52973SOL    HW160758   3.410  14.107   2.642
52973SOL    HW260759   3.397  13.961   2.604
52974SOL     OW60760   0.739   7.783   1.093
52974SOL    HW160761   0.654   7.786   1.050
52974SOL    HW260762   0.728   7.721   1.164
52975SOL     OW60763   9.211  13.261   6.600
52975SOL    HW160764   9.153  13.215   6.539
52975SOL    HW260765   9.187  13.353   6.591
52976SOL     OW60766   6.129   6.065   3.229
52976SOL    HW160767   6.087   6.029   3.307
52976SOL    HW260768   6.084   6.148   3.214
52977SOL     OW60769   1.203  12.629   6.115
52977SOL    HW160770   1.277  12.688   6.100
52977SOL    HW260771   1.212  12.562   6.048
52978SOL     OW60772   2.128   8.842  12.089
52978SOL    HW160773   2.121   8.764  12.144
52978SOL    HW260774   2.218   8.841  12.057
52979SOL     OW60775  11.857  14.555   7.372
52979SOL    HW160776  11.883  14.463   7.362
52979SOL    HW260777  11.761  14.552   7.368
52980SOL     OW60778   2.405   0.975  11.383
52980SOL    HW160779   2.466   1.043  11.412
52980SOL    HW260780   2.349   1.018  11.320
52981SOL     OW60781  11.553   0.121   1.655
52981SOL    HW160782  11.527   0.197   1.604
52981SOL    HW260783  11.561   0.051   1.590
52982SOL     OW60784  12.286  14.181   4.180
52982SOL    HW160785  12.372  14.211   4.209
52982SOL    HW260786  12.233  14.180   4.260
52983SOL     OW60787   5.670  12.017  10.876
52983SOL    HW160788   5.575  12.020  10.875
52983SOL    HW260789   5.697  12.095  10.827
52984SOL     OW60790   9.495  11.009   4.584
52984SOL    HW160791   9.443  10.941   4.626
52984SOL    HW260792   9.478  10.997   4.490
52985SOL     OW60793   0.807  12.461  10.694
52985SOL    HW160794   0.882  12.402  10.694
52985SOL    HW260795   0.732  12.404  10.682
52986SOL     OW60796   1.931   5.509   3.845
52986SOL    HW160797   1.883   5.524   3.763
52986SOL    HW260798   1.888   5.433   3.884
52987SOL     OW60799  12.991  14.702   3.963
52987SOL    HW160800  12.913  14.648   3.962
52987SOL    HW260801  13.000  14.734   3.873
52988SOL     OW60802  11.290   9.939   4.754
52988SOL    HW160803  11.371   9.908   4.714
52988SOL    HW260804  11.302   9.923   4.848
52989SOL     OW60805   5.579   1.429  12.588
52989SOL    HW160806   5.591   1.385  12.672
52989SOL    HW260807   5.650   1.396  12.534
52990SOL     OW60808   3.953   5.512  12.841
52990SOL    HW160809   3.873   5.500  12.790
52990SOL    HW260810   3.956   5.606  12.858
52991SOL     OW60811   9.992  12.931   2.922
52991SOL    HW160812   9.971  12.877   2.846
52991SOL    HW260813  10.069  12.981   2.896
52992SOL     OW60814   4.661   6.660   7.008
52992SOL    HW160815   4.726   6.721   6.974
52992SOL    HW260816   4.659   6.677   7.103
52993SOL     OW60817   0.280   3.861   2.377
52993SOL    HW160818   0.215   3.931   2.381
52993SOL    HW260819   0.301   3.842   2.468
52994SOL     OW60820  11.018  14.067   8.201
52994SOL    HW160821  10.967  14.091   8.124
52994SOL    HW260822  10.953  14.051   8.269
52995SOL     OW60823  14.843  12.575   5.221
52995SOL    HW160824  14.748  12.563   5.227
52995SOL    HW260825  14.870  12.597   5.310
52996SOL     OW60826  11.071   7.646   5.500
52996SOL    HW160827  11.069   7.551   5.507
52996SOL    HW260828  10.979   7.672   5.492
52997SOL     OW60829   3.906   3.550   6.964
52997SOL    HW160830   3.871   3.561   7.053
52997SOL    HW260831   3.832   3.517   6.913
52998SOL     OW60832   7.382   2.891  13.801
52998SOL    HW160833   7.426   2.914  13.719
52998SOL    HW260834   7.296   2.859  13.774
52999SOL     OW60835   9.128   2.131  11.538
52999SOL    HW160836   9.165   2.218  11.546
52999SOL    HW260837   9.059   2.128  11.604
53000SOL     OW60838   5.352  11.653  12.577
53000SOL    HW160839   5.366  11.725  12.639
53000SOL    HW260840   5.258  11.651  12.563
53001SOL     OW60841   6.170   9.588  14.379
53001SOL    HW160842   6.127   9.525  14.438
53001SOL    HW260843   6.099   9.623  14.325
53002SOL     OW60844  10.429   2.327   2.133
53002SOL    HW160845  10.356   2.367   2.180
53002SOL    HW260846  10.417   2.233   2.145
53003SOL     OW60847  13.049   5.629   9.175
53003SOL    HW160848  13.126   5.661   9.128
53003SOL    HW260849  12.981   5.695   9.158
53004SOL     OW60850   3.467   9.486  10.768
53004SOL    HW160851   3.531   9.432  10.722
53004SOL    HW260852   3.383   9.461  10.729
53005SOL     OW60853   5.592   9.980   3.319
53005SOL    HW160854   5.560  10.022   3.398
53005SOL    HW260855   5.632   9.898   3.349
53006SOL     OW60856  14.200   8.297  13.556
53006SOL    HW160857  14.130   8.361  13.570
53006SOL    HW260858  14.263   8.344  13.501
53007SOL     OW60859  10.560   1.990   9.021
53007SOL    HW160860  10.544   1.895   9.023
53007SOL    HW260861  10.572   2.013   9.113
53008SOL     OW60862   7.371   3.250   9.259
53008SOL    HW160863   7.354   3.185   9.328
53008SOL    HW260864   7.295   3.244   9.201
53009SOL     OW60865   2.661  14.688   0.066
53009SOL    HW160866   2.570  14.716   0.063
53009SOL    HW260867   2.708  14.758   0.021
53010SOL     OW60868  14.652   4.361  12.569
53010SOL    HW160869  14.572   4.349  12.517
53010SOL    HW260870  14.702   4.281  12.554
53011SOL     OW60871  11.507   0.176  12.336
53011SOL    HW160872  11.486   0.169  12.243
53011SOL    HW260873  11.520   0.270  12.351
53012SOL     OW60874   5.258  12.024   4.774
53012SOL    HW160875   5.171  12.061   4.763
53012SOL    HW260876   5.314  12.076   4.716
53013SOL     OW60877  14.586  12.257   5.107
53013SOL    HW160878  14.542  12.174   5.088
53013SOL    HW260879  14.676  12.232   5.129
53014SOL     OW60880  12.983   8.757  11.248
53014SOL    HW160881  13.053   8.703  11.285
53014SOL    HW260882  12.926   8.695  11.204
53015SOL     OW60883   7.355  12.273   6.889
53015SOL    HW160884   7.276  12.271   6.943
53015SOL    HW260885   7.359  12.362   6.855
53016SOL     OW60886  10.017   1.971   2.816
53016SOL    HW160887   9.939   1.959   2.871
53016SOL    HW260888  10.073   1.896   2.836
53017SOL     OW60889   2.913   9.055   8.473
53017SOL    HW160890   2.916   9.138   8.426
53017SOL    HW260891   2.912   9.080   8.566
53018SOL     OW60892   4.147   4.858   5.081
53018SOL    HW160893   4.125   4.866   4.988
53018SOL    HW260894   4.218   4.794   5.084
53019SOL     OW60895  10.982   8.754  14.603
53019SOL    HW160896  11.024   8.769  14.518
53019SOL    HW260897  11.005   8.832  14.654
53020SOL     OW60898  12.016   3.019   1.893
53020SOL    HW160899  12.061   3.002   1.811
53020SOL    HW260900  11.933   2.974   1.885
53021SOL     OW60901  13.184   3.938  13.442
53021SOL    HW160902  13.125   3.976  13.507
53021SOL    HW260903  13.137   3.862  13.408
53022SOL     OW60904   5.640  13.635  12.496
53022SOL    HW160905   5.641  13.679  12.581
53022SOL    HW260906   5.617  13.704  12.434
53023SOL     OW60907   0.495  12.445   2.757
53023SOL    HW160908   0.438  12.510   2.797
53023SOL    HW260909   0.445  12.363   2.762
53024SOL     OW60910   4.371   1.706  11.183
53024SOL    HW160911   4.384   1.800  11.175
53024SOL    HW260912   4.307   1.685  11.114
53025SOL     OW60913  11.411   7.075  14.201
53025SOL    HW160914  11.429   7.081  14.295
53025SOL    HW260915  11.356   7.151  14.182
53026SOL     OW60916   6.957   4.664   5.125
53026SOL    HW160917   6.999   4.679   5.040
53026SOL    HW260918   6.904   4.743   5.139
53027SOL     OW60919   2.032   5.672   5.680
53027SOL    HW160920   2.028   5.714   5.766
53027SOL    HW260921   2.018   5.743   5.617
53028SOL     OW60922   0.609   9.077   3.078
53028SOL    HW160923   0.595   9.004   3.017
53028SOL    HW260924   0.534   9.074   3.137
53029SOL     OW60925  10.843   4.356  14.819
53029SOL    HW160926  10.776   4.302  14.862
53029SOL    HW260927  10.823   4.445  14.845
53030SOL     OW60928   4.071   8.068  12.839
53030SOL    HW160929   4.105   8.031  12.757
53030SOL    HW260930   4.124   8.026  12.907
53031SOL     OW60931   0.438  14.398   6.352
53031SOL    HW160932   0.447  14.433   6.264
53031SOL    HW260933   0.446  14.304   6.342
53032SOL     OW60934   0.060   3.047   7.245
53032SOL    HW160935   0.155   3.050   7.237
53032SOL    HW260936   0.043   2.966   7.293
53033SOL     OW60937   0.819   1.068  10.064
53033SOL    HW160938   0.893   1.022  10.025
53033SOL    HW260939   0.823   1.156  10.028
53034SOL     OW60940   7.727   3.374  13.488
53034SOL    HW160941   7.648   3.403  13.534
53034SOL    HW260942   7.703   3.290  13.450
53035SOL     OW60943  14.789   8.356   3.811
53035SOL    HW160944  14.854   8.416   3.848
53035SOL    HW260945  14.826   8.269   3.827
53036SOL     OW60946  14.483  11.236  12.755
53036SOL    HW160947  14.427  11.212  12.829
53036SOL    HW260948  14.426  11.288  12.698
53037SOL     OW60949  13.294  13.993   7.148
53037SOL    HW160950  13.281  14.063   7.211
53037SOL    HW260951  13.225  14.006   7.082
53038SOL     OW60952   9.845   3.733   8.121
53038SOL    HW160953   9.921   3.683   8.152
53038SOL    HW260954   9.771   3.674   8.132
53039SOL     OW60955   1.865   1.887   9.360
53039SOL    HW160956   1.795   1.842   9.406
53039SOL    HW260957   1.824   1.963   9.321
53040SOL     OW60958  11.218  13.252  10.816
53040SOL    HW160959  11.250  13.326  10.868
53040SOL    HW260960  11.282  13.182  10.833
53041SOL     OW60961   7.295  12.290  13.363
53041SOL    HW160962   7.302  12.308  13.457
53041SOL    HW260963   7.294  12.376  13.322
53042SOL     OW60964   9.621  12.819   4.307
53042SOL    HW160965   9.698  12.866   4.277
53042SOL    HW260966   9.626  12.822   4.403
53043SOL     OW60967   6.193   2.554   8.693
53043SOL    HW160968   6.159   2.591   8.774
53043SOL    HW260969   6.236   2.473   8.720
53044SOL     OW60970   6.321  10.799   9.829
53044SOL    HW160971   6.382  10.848   9.884
53044SOL    HW260972   6.243  10.787   9.884
53045SOL     OW60973  13.450   5.391  11.367
53045SOL    HW160974  13.471   5.437  11.285
53045SOL    HW260975  13.529   5.341  11.388
53046SOL     OW60976   4.833   0.713  14.803
53046SOL    HW160977   4.853   0.620  14.795
53046SOL    HW260978   4.737   0.716  14.806
53047SOL     OW60979   5.012   2.272   3.018
53047SOL    HW160980   5.002   2.305   3.107
53047SOL    HW260981   5.018   2.351   2.963
53048SOL     OW60982  10.414   9.319  12.855
53048SOL    HW160983  10.408   9.251  12.922
53048SOL    HW260984  10.507   9.324  12.834
53049SOL     OW60985  10.303  10.792   5.831
53049SOL    HW160986  10.277  10.883   5.845
53049SOL    HW260987  10.334  10.762   5.916
53050SOL     OW60988   7.457   1.905   4.685
53050SOL    HW160989   7.468   1.812   4.707
53050SOL    HW260990   7.414   1.942   4.762
53051SOL     OW60991   0.581  10.315   3.333
53051SOL    HW160992   0.628  10.353   3.407
53051SOL    HW260993   0.488  10.331   3.353
53052SOL     OW60994  13.251   7.898   0.527
53052SOL    HW160995  13.218   7.961   0.591
53052SOL    HW260996  13.335   7.933   0.500
53053SOL     OW60997   9.744   6.327   1.299
53053SOL    HW160998   9.664   6.287   1.334
53053SOL    HW260999   9.762   6.400   1.359
53054SOL     OW61000   8.157   8.694   1.512
53054SOL    HW161001   8.092   8.756   1.545
53054SOL    HW261002   8.107   8.613   1.497
53055SOL     OW61003   0.640   4.670  11.812
53055SOL    HW161004   0.616   4.750  11.859
53055SOL    HW261005   0.562   4.615  11.817
53056SOL     OW61006   8.346   8.774  12.394
53056SOL    HW161007   8.254   8.767  12.368
53056SOL    HW261008   8.385   8.832  12.329
53057SOL     OW61009  14.449   3.638   0.838
53057SOL    HW161010  14.364   3.600   0.820
53057SOL    HW261011  14.470   3.688   0.759
53058SOL     OW61012   6.529  10.749   1.172
53058SOL    HW161013   6.553  10.728   1.262
53058SOL    HW261014   6.611  10.739   1.123
53059SOL     OW61015   4.575  13.083   8.706
53059SOL    HW161016   4.650  13.028   8.685
53059SOL    HW261017   4.514  13.071   8.633
53060SOL     OW61018   1.837   2.583   4.771
53060SOL    HW161019   1.823   2.597   4.677
53060SOL    HW261020   1.894   2.655   4.798
53061SOL     OW61021   7.166   4.217   6.099
53061SOL    HW161022   7.176   4.138   6.047
53061SOL    HW261023   7.239   4.215   6.160
53062SOL     OW61024  11.936   6.883   0.536
53062SOL    HW161025  11.904   6.915   0.451
53062SOL    HW261026  11.937   6.961   0.592
53063SOL     OW61027   8.770   5.278   2.694
53063SOL    HW161028   8.840   5.313   2.749
53063SOL    HW261029   8.705   5.348   2.691
53064SOL     OW61030   6.084  12.138   7.325
53064SOL    HW161031   6.131  12.056   7.310
53064SOL    HW261032   6.035  12.123   7.406
53065SOL     OW61033  14.694  12.033   7.769
53065SOL    HW161034  14.740  11.980   7.834
53065SOL    HW261035  14.631  12.085   7.820
53066SOL     OW61036   5.415  12.717   3.348
53066SOL    HW161037   5.466  12.647   3.307
53066SOL    HW261038   5.343  12.733   3.287
53067SOL     OW61039  10.876  13.162   0.757
53067SOL    HW161040  10.801  13.161   0.698
53067SOL    HW261041  10.837  13.153   0.844
53068SOL     OW61042   8.216  10.548   7.613
53068SOL    HW161043   8.137  10.497   7.626
53068SOL    HW261044   8.287  10.485   7.621
53069SOL     OW61045  10.795  12.922   0.409
53069SOL    HW161046  10.871  12.979   0.397
53069SOL    HW261047  10.801  12.893   0.500
53070SOL     OW61048   0.154   9.943   0.193
53070SOL    HW161049   0.213  10.010   0.159
53070SOL    HW261050   0.094   9.991   0.250
53071SOL     OW61051  13.624   6.301  10.418
53071SOL    HW161052  13.719   6.291  10.419
53071SOL    HW261053  13.604   6.341  10.503
53072SOL     OW61054   4.207   6.561  14.740
53072SOL    HW161055   4.121   6.518  14.737
53072SOL    HW261056   4.190   6.650  14.711
53073SOL     OW61057   7.333  11.376   2.858
53073SOL    HW161058   7.421  11.384   2.896
53073SOL    HW261059   7.317  11.282   2.854
53074SOL     OW61060   6.722  12.315   6.463
53074SOL    HW161061   6.696  12.280   6.377
53074SOL    HW261062   6.810  12.282   6.476
53075SOL     OW61063   2.155  14.428   0.125
53075SOL    HW161064   2.074  14.423   0.175
53075SOL    HW261065   2.224  14.432   0.191
53076SOL     OW61066  11.903   9.329   4.721
53076SOL    HW161067  11.863   9.278   4.650
53076SOL    HW261068  11.847   9.312   4.797
53077SOL     OW61069  14.780  13.806  14.802
53077SOL    HW161070  14.848  13.772  14.744
53077SOL    HW261071  14.793  13.901  14.801
53078SOL     OW61072   7.783  13.014   0.422
53078SOL    HW161073   7.796  13.057   0.506
53078SOL    HW261074   7.869  13.018   0.380
53079SOL     OW61075   2.943   1.314   9.633
53079SOL    HW161076   2.994   1.388   9.602
53079SOL    HW261077   2.962   1.309   9.727
53080SOL     OW61078  14.816  14.632  11.755
53080SOL    HW161079  14.779  14.583  11.828
53080SOL    HW261080  14.819  14.722  11.786
53081SOL     OW61081  11.746   5.918   9.774
53081SOL    HW161082  11.686   5.950   9.707
53081SOL    HW261083  11.758   5.825   9.753
53082SOL     OW61084   7.710   3.948  11.441
53082SOL    HW161085   7.744   3.860  11.458
53082SOL    HW261086   7.744   4.001  11.513
53083SOL     OW61087   3.498  13.747  10.483
53083SOL    HW161088   3.441  13.822  10.468
53083SOL    HW261089   3.480  13.720  10.573
53084SOL     OW61090   8.823  13.560  10.237
53084SOL    HW161091   8.745  13.594  10.193
53084SOL    HW261092   8.877  13.636  10.254
53085SOL     OW61093   0.815   6.488   7.750
53085SOL    HW161094   0.817   6.518   7.659
53085SOL    HW261095   0.755   6.549   7.793
53086SOL     OW61096   1.360   3.223   8.540
53086SOL    HW161097   1.429   3.275   8.581
53086SOL    HW261098   1.351   3.261   8.452
53087SOL     OW61099   9.517   3.105   1.732
53087SOL    HW161100   9.546   3.035   1.790
53087SOL    HW261101   9.591   3.165   1.727
53088SOL     OW61102  10.426   8.797   6.462
53088SOL    HW161103  10.404   8.720   6.410
53088SOL    HW261104  10.411   8.871   6.403
53089SOL     OW61105   2.069   6.166   6.813
53089SOL    HW161106   2.120   6.089   6.787
53089SOL    HW261107   2.039   6.204   6.730
53090SOL     OW61108  12.837  14.064   1.244
53090SOL    HW161109  12.836  13.969   1.256
53090SOL    HW261110  12.885  14.098   1.320
53091SOL     OW61111   3.233  14.444   1.802
53091SOL    HW161112   3.138  14.452   1.809
53091SOL    HW261113   3.251  14.353   1.827
53092SOL     OW61114   1.973   8.089   1.973
53092SOL    HW161115   1.975   8.041   2.055
53092SOL    HW261116   1.881   8.096   1.950
53093SOL     OW61117   1.032  11.821  12.869
53093SOL    HW161118   0.975  11.766  12.924
53093SOL    HW261119   0.984  11.903  12.859
53094SOL     OW61120  11.095   3.152   0.074
53094SOL    HW161121  11.071   3.144  14.858
53094SOL    HW261122  11.123   3.063   0.098
53095SOL     OW61123  11.750  14.241  11.340
53095SOL    HW161124  11.765  14.316  11.282
53095SOL    HW261125  11.655  14.239  11.353
53096SOL     OW61126   7.029   3.067   9.492
53096SOL    HW161127   6.936   3.052   9.474
53096SOL    HW261128   7.045   3.156   9.459
53097SOL     OW61129   0.926  14.601   5.110
53097SOL    HW161130   0.987  14.570   5.177
53097SOL    HW261131   0.860  14.650   5.158
53098SOL     OW61132   7.271   6.955   0.086
53098SOL    HW161133   7.299   7.035   0.042
53098SOL    HW261134   7.351   6.922   0.128
53099SOL     OW61135   3.898   0.362   3.104
53099SOL    HW161136   3.911   0.284   3.050
53099SOL    HW261137   3.818   0.402   3.070
53100SOL     OW61138   5.885  12.872  11.361
53100SOL    HW161139   5.837  12.799  11.323
53100SOL    HW261140   5.952  12.831  11.416
53101SOL     OW61141  13.329  10.340   5.997
53101SOL    HW161142  13.316  10.366   6.089
53101SOL    HW261143  13.248  10.295   5.973
53102SOL     OW61144   6.279   9.295   2.399
53102SOL    HW161145   6.352   9.356   2.412
53102SOL    HW261146   6.273   9.247   2.482
53103SOL     OW61147   3.538   2.339   0.862
53103SOL    HW161148   3.475   2.382   0.919
53103SOL    HW261149   3.563   2.259   0.908
53104SOL     OW61150   2.404   9.386   1.484
53104SOL    HW161151   2.485   9.435   1.499
53104SOL    HW261152   2.367   9.375   1.572
53105SOL     OW61153   8.284   1.044   3.286
53105SOL    HW161154   8.272   1.111   3.219
53105SOL    HW261155   8.196   1.006   3.297
53106SOL     OW61156   9.144   0.709  10.425
53106SOL    HW161157   9.067   0.653  10.421
53106SOL    HW261158   9.135   0.758  10.506
53107SOL     OW61159   3.359   9.085   7.963
53107SOL    HW161160   3.354   9.062   8.055
53107SOL    HW261161   3.383   9.004   7.918
53108SOL     OW61162   2.525   0.125   4.151
53108SOL    HW161163   2.515   0.164   4.064
53108SOL    HW261164   2.456   0.060   4.157
53109SOL     OW61165   5.199   9.159   8.866
53109SOL    HW161166   5.184   9.248   8.898
53109SOL    HW261167   5.191   9.104   8.944
53110SOL     OW61168  13.973   7.792   6.334
53110SOL    HW161169  14.040   7.860   6.328
53110SOL    HW261170  13.946   7.776   6.243
53111SOL     OW61171  13.371   6.907   2.012
53111SOL    HW161172  13.410   6.831   1.968
53111SOL    HW261173  13.368   6.975   1.945
53112SOL     OW61174  13.934  14.808   1.636
53112SOL    HW161175  13.944  14.738   1.571
53112SOL    HW261176  13.889  14.767   1.709
53113SOL     OW61177   7.989   8.052   6.742
53113SOL    HW161178   8.044   8.064   6.664
53113SOL    HW261179   7.906   8.019   6.707
53114SOL     OW61180  11.895   1.244  14.503
53114SOL    HW161181  11.860   1.280  14.585
53114SOL    HW261182  11.817   1.214  14.455
53115SOL     OW61183   4.705  10.794   4.507
53115SOL    HW161184   4.703  10.832   4.419
53115SOL    HW261185   4.739  10.864   4.563
53116SOL     OW61186   3.441   9.515  11.746
53116SOL    HW161187   3.451   9.528  11.651
53116SOL    HW261188   3.508   9.571  11.785
53117SOL     OW61189   5.704   0.122   6.034
53117SOL    HW161190   5.659   0.192   5.987
53117SOL    HW261191   5.745   0.069   5.965
53118SOL     OW61192  13.499  11.573   6.688
53118SOL    HW161193  13.449  11.540   6.762
53118SOL    HW261194  13.538  11.655   6.719
53119SOL     OW61195   5.837   3.532  14.721
53119SOL    HW161196   5.790   3.594  14.664
53119SOL    HW261197   5.814   3.446  14.685
53120SOL     OW61198   1.919   0.220  14.321
53120SOL    HW161199   1.978   0.255  14.388
53120SOL    HW261200   1.968   0.149  14.280
53121SOL     OW61201   2.506  10.506   5.776
53121SOL    HW161202   2.567  10.505   5.849
53121SOL    HW261203   2.439  10.442   5.798
53122SOL     OW61204   8.031  10.080   2.950
53122SOL    HW161205   7.967  10.114   2.888
53122SOL    HW261206   8.042   9.988   2.926
53123SOL     OW61207  10.318   2.776  13.316
53123SOL    HW161208  10.412   2.794  13.315
53123SOL    HW261209  10.294   2.768  13.223
53124SOL     OW61210   1.523  10.022  11.117
53124SOL    HW161211   1.553   9.968  11.191
53124SOL    HW261212   1.603  10.044  11.069
53125SOL     OW61213   5.672   0.034   6.408
53125SOL    HW161214   5.754   0.081   6.393
53125SOL    HW261215   5.661  14.857   6.329
53126SOL     OW61216  14.649  11.759   6.608
53126SOL    HW161217  14.699  11.815   6.668
53126SOL    HW261218  14.713  11.728   6.545
53127SOL     OW61219   6.156   0.097   0.007
53127SOL    HW161220   6.141   0.031  14.816
53127SOL    HW261221   6.249   0.119  14.874
53128SOL     OW61222   5.020   5.676   5.859
53128SOL    HW161223   4.926   5.676   5.876
53128SOL    HW261224   5.031   5.732   5.783
53129SOL     OW61225  14.128   6.499   4.357
53129SOL    HW161226  14.084   6.563   4.302
53129SOL    HW261227  14.058   6.441   4.387
53130SOL     OW61228  10.854   0.928  13.832
53130SOL    HW161229  10.917   0.857  13.819
53130SOL    HW261230  10.903   0.994  13.882
53131SOL     OW61231  13.121  14.721  13.124
53131SOL    HW161232  13.150  14.777  13.053
53131SOL    HW261233  13.045  14.765  13.161
53132SOL     OW61234   7.564   8.011  14.492
53132SOL    HW161235   7.646   8.021  14.540
53132SOL    HW261236   7.589   8.017  14.400
53133SOL     OW61237   7.574  13.947   0.275
53133SOL    HW161238   7.545  13.918   0.188
53133SOL    HW261239   7.496  13.986   0.315
53134SOL     OW61240   8.504   0.251  10.257
53134SOL    HW161241   8.487   0.246  10.163
53134SOL    HW261242   8.593   0.286  10.264
53135SOL     OW61243   6.740  10.617   2.011
53135SOL    HW161244   6.833  10.606   2.027
53135SOL    HW261245   6.705  10.529   2.004
53136SOL     OW61246  10.740  13.924   7.849
53136SOL    HW161247  10.663  13.918   7.792
53136SOL    HW261248  10.804  13.865   7.809
53137SOL     OW61249   0.572   1.345   1.517
53137SOL    HW161250   0.495   1.372   1.565
53137SOL    HW261251   0.549   1.259   1.480
53138SOL     OW61252   8.001   1.284   8.327
53138SOL    HW161253   8.093   1.312   8.327
53138SOL    HW261254   7.986   1.252   8.416
53139SOL     OW61255   6.697   0.818  14.172
53139SOL    HW161256   6.755   0.871  14.118
53139SOL    HW261257   6.693   0.864  14.256
53140SOL     OW61258  11.849  13.176   3.389
53140SOL    HW161259  11.925  13.169   3.448
53140SOL    HW261260  11.802  13.093   3.401
53141SOL     OW61261  14.254   2.094   4.123
53141SOL    HW161262  14.192   2.080   4.195
53141SOL    HW261263  14.233   2.025   4.061
53142SOL     OW61264  14.761   9.817   5.220
53142SOL    HW161265  14.671   9.795   5.198
53142SOL    HW261266  14.756   9.861   5.304
53143SOL     OW61267  11.376   6.200   2.578
53143SOL    HW161268  11.331   6.222   2.496
53143SOL    HW261269  11.397   6.285   2.617
53144SOL     OW61270   3.001   5.921  13.490
53144SOL    HW161271   2.965   5.890  13.407
53144SOL    HW261272   2.948   5.876  13.557
53145SOL     OW61273   3.040   7.951   9.102
53145SOL    HW161274   2.994   7.946   9.186
53145SOL    HW261275   3.084   8.036   9.104
53146SOL     OW61276   1.023   6.919   1.723
53146SOL    HW161277   1.082   6.912   1.648
53146SOL    HW261278   1.082   6.936   1.797
53147SOL     OW61279   8.361  11.229   5.026
53147SOL    HW161280   8.330  11.213   5.115
53147SOL    HW261281   8.292  11.195   4.969
53148SOL     OW61282   3.719   2.369   9.981
53148SOL    HW161283   3.637   2.407  10.013
53148SOL    HW261284   3.788   2.416  10.027
53149SOL     OW61285   7.082  12.919  11.141
53149SOL    HW161286   7.112  12.871  11.064
53149SOL    HW261287   7.010  12.973  11.108
53150SOL     OW61288   6.129   2.478   0.219
53150SOL    HW161289   6.199   2.544   0.213
53150SOL    HW261290   6.175   2.394   0.214
53151SOL     OW61291  14.229  11.803  14.420
53151SOL    HW161292  14.256  11.734  14.480
53151SOL    HW261293  14.140  11.778  14.393
53152SOL     OW61294   5.874   5.697   1.274
53152SOL    HW161295   5.798   5.687   1.333
53152SOL    HW261296   5.913   5.780   1.300
53153SOL     OW61297   3.463   0.868   4.726
53153SOL    HW161298   3.436   0.915   4.805
53153SOL    HW261299   3.532   0.809   4.756
53154SOL     OW61300  13.943   8.410   2.559
53154SOL    HW161301  14.030   8.374   2.546
53154SOL    HW261302  13.929   8.468   2.484
53155SOL     OW61303  12.951  13.655   4.378
53155SOL    HW161304  12.971  13.673   4.470
53155SOL    HW261305  12.991  13.570   4.361
53156SOL     OW61306   4.305  11.105   4.533
53156SOL    HW161307   4.220  11.103   4.489
53156SOL    HW261308   4.317  11.016   4.566
53157SOL     OW61309   4.073   2.835  14.491
53157SOL    HW161310   4.125   2.773  14.438
53157SOL    HW261311   4.132   2.862  14.561
53158SOL     OW61312   6.490   4.187   9.306
53158SOL    HW161313   6.454   4.234   9.231
53158SOL    HW261314   6.580   4.220   9.314
53159SOL     OW61315   1.215  10.872   7.840
53159SOL    HW161316   1.265  10.868   7.922
53159SOL    HW261317   1.125  10.852   7.866
53160SOL     OW61318   0.706  13.412   3.572
53160SOL    HW161319   0.673  13.405   3.662
53160SOL    HW261320   0.788  13.459   3.581
53161SOL     OW61321  10.876   7.462   7.139
53161SOL    HW161322  10.889   7.400   7.068
53161SOL    HW261323  10.943   7.440   7.203
53162SOL     OW61324   8.432   9.768  12.359
53162SOL    HW161325   8.487   9.779  12.437
53162SOL    HW261326   8.405   9.676  12.361
53163SOL     OW61327   8.378   7.093   6.138
53163SOL    HW161328   8.375   7.159   6.207
53163SOL    HW261329   8.407   7.013   6.183
53164SOL     OW61330   9.498   5.883  11.035
53164SOL    HW161331   9.573   5.941  11.036
53164SOL    HW261332   9.505   5.836  10.952
53165SOL     OW61333   9.415   1.387  11.570
53165SOL    HW161334   9.430   1.395  11.476
53165SOL    HW261335   9.435   1.296  11.590
53166SOL     OW61336  12.759   5.053   8.010
53166SOL    HW161337  12.692   4.985   8.008
53166SOL    HW261338  12.794   5.049   8.099
53167SOL     OW61339   6.068  10.610  10.946
53167SOL    HW161340   6.066  10.532  10.891
53167SOL    HW261341   6.056  10.576  11.035
53168SOL     OW61342  10.911   5.804  11.383
53168SOL    HW161343  10.971   5.877  11.401
53168SOL    HW261344  10.878   5.779  11.469
53169SOL     OW61345  11.176   8.604   9.499
53169SOL    HW161346  11.270   8.614   9.510
53169SOL    HW261347  11.159   8.628   9.408
53170SOL     OW61348   0.722  13.128  11.262
53170SOL    HW161349   0.795  13.187  11.282
53170SOL    HW261350   0.756  13.070  11.193
53171SOL     OW61351   2.555  11.666  11.955
53171SOL    HW161352   2.529  11.750  11.917
53171SOL    HW261353   2.510  11.662  12.039
53172SOL     OW61354   1.076  14.258   6.021
53172SOL    HW161355   1.129  14.299   6.089
53172SOL    HW261356   1.004  14.319   6.007
53173SOL     OW61357   8.172  11.045  12.097
53173SOL    HW161358   8.186  10.951  12.086
53173SOL    HW261359   8.229  11.070  12.170
53174SOL     OW61360   1.648   8.926  12.680
53174SOL    HW161361   1.726   8.915  12.627
53174SOL    HW261362   1.675   8.987  12.749
53175SOL     OW61363   9.755  14.531   3.524
53175SOL    HW161364   9.825  14.467   3.537
53175SOL    HW261365   9.774  14.601   3.587
53176SOL     OW61366  10.319   8.939  13.281
53176SOL    HW161367  10.411   8.918  13.272
53176SOL    HW261368  10.318   9.033  13.300
53177SOL     OW61369   7.159   0.410  14.430
53177SOL    HW161370   7.164   0.400  14.525
53177SOL    HW261371   7.250   0.409  14.401
53178SOL     OW61372  11.112   2.008   8.957
53178SOL    HW161373  11.074   1.954   8.887
53178SOL    HW261374  11.087   1.964   9.038
53179SOL     OW61375   8.329  11.583  12.380
53179SOL    HW161376   8.354  11.509  12.436
53179SOL    HW261377   8.266  11.632  12.433
53180SOL     OW61378  14.493   5.605   4.445
53180SOL    HW161379  14.587   5.591   4.435
53180SOL    HW261380  14.453   5.548   4.379
53181SOL     OW61381  10.070   5.607   2.225
53181SOL    HW161382   9.989   5.635   2.183
53181SOL    HW261383  10.074   5.660   2.305
53182SOL     OW61384   4.208  14.417   1.066
53182SOL    HW161385   4.224  14.353   1.135
53182SOL    HW261386   4.122  14.454   1.088
53183SOL     OW61387  12.995  12.007  11.992
53183SOL    HW161388  13.005  11.937  12.057
53183SOL    HW261389  12.934  12.068  12.033
53184SOL     OW61390   4.581   8.647   3.465
53184SOL    HW161391   4.662   8.600   3.445
53184SOL    HW261392   4.568   8.706   3.390
53185SOL     OW61393   9.715   5.429  14.293
53185SOL    HW161394   9.650   5.397  14.231
53185SOL    HW261395   9.711   5.367  14.366
53186SOL     OW61396   8.188   2.593   2.140
53186SOL    HW161397   8.170   2.549   2.223
53186SOL    HW261398   8.243   2.532   2.092
53187SOL     OW61399   6.108   1.314  12.900
53187SOL    HW161400   6.081   1.400  12.933
53187SOL    HW261401   6.130   1.330  12.808
53188SOL     OW61402   4.591  13.599   0.298
53188SOL    HW161403   4.579  13.648   0.216
53188SOL    HW261404   4.673  13.551   0.284
53189SOL     OW61405   4.115   4.459   4.965
53189SOL    HW161406   4.023   4.441   4.943
53189SOL    HW261407   4.111   4.525   5.033
53190SOL     OW61408   9.426   5.215   4.381
53190SOL    HW161409   9.450   5.308   4.384
53190SOL    HW261410   9.508   5.168   4.389
53191SOL     OW61411   6.700  14.007  14.546
53191SOL    HW161412   6.668  13.930  14.593
53191SOL    HW261413   6.784  13.979  14.509
53192SOL     OW61414   7.631  10.711   2.793
53192SOL    HW161415   7.546  10.749   2.772
53192SOL    HW261416   7.612  10.621   2.817
53193SOL     OW61417   0.323  11.119   2.742
53193SOL    HW161418   0.293  11.107   2.652
53193SOL    HW261419   0.264  11.184   2.779
53194SOL     OW61420  14.718   3.859   6.429
53194SOL    HW161421  14.753   3.824   6.348
53194SOL    HW261422  14.624   3.867   6.414
53195SOL     OW61423  14.678  10.521   2.054
53195SOL    HW161424  14.691  10.459   2.126
53195SOL    HW261425  14.613  10.583   2.086
53196SOL     OW61426  13.051   7.005  10.088
53196SOL    HW161427  13.129   7.005  10.032
53196SOL    HW261428  12.985   7.052  10.038
53197SOL     OW61429   6.650   1.308  11.658
53197SOL    HW161430   6.579   1.342  11.711
53197SOL    HW261431   6.643   1.355  11.575
53198SOL     OW61432   7.945   4.724  13.072
53198SOL    HW161433   8.017   4.725  13.009
53198SOL    HW261434   7.901   4.640  13.056
53199SOL     OW61435   7.118  13.186   3.759
53199SOL    HW161436   7.191  13.248   3.750
53199SOL    HW261437   7.112  13.170   3.853
53200SOL     OW61438  11.149   0.875   8.762
53200SOL    HW161439  11.168   0.921   8.844
53200SOL    HW261440  11.107   0.793   8.791
53201SOL     OW61441   3.052   8.997   8.957
53201SOL    HW161442   3.061   8.945   9.037
53201SOL    HW261443   3.000   9.073   8.982
53202SOL     OW61444  10.210  10.587   6.562
53202SOL    HW161445  10.192  10.593   6.469
53202SOL    HW261446  10.206  10.677   6.594
53203SOL     OW61447  14.612   3.569   7.620
53203SOL    HW161448  14.678   3.513   7.579
53203SOL    HW261449  14.662   3.642   7.656
53204SOL     OW61450  12.783   3.642   1.952
53204SOL    HW161451  12.769   3.581   1.881
53204SOL    HW261452  12.725   3.716   1.932
53205SOL     OW61453   9.851   4.139   0.415
53205SOL    HW161454   9.760   4.144   0.445
53205SOL    HW261455   9.863   4.220   0.366
53206SOL     OW61456  10.121   4.235   5.932
53206SOL    HW161457  10.057   4.180   5.978
53206SOL    HW261458  10.109   4.322   5.970
53207SOL     OW61459   5.158   2.836   6.334
53207SOL    HW161460   5.118   2.835   6.421
53207SOL    HW261461   5.239   2.786   6.344
53208SOL     OW61462  11.515   6.148   8.874
53208SOL    HW161463  11.576   6.139   8.948
53208SOL    HW261464  11.522   6.239   8.847
53209SOL     OW61465  14.690   2.850   3.097
53209SOL    HW161466  14.733   2.929   3.065
53209SOL    HW261467  14.761   2.792   3.123
53210SOL     OW61468  12.126   9.129   8.704
53210SOL    HW161469  12.126   9.054   8.645
53210SOL    HW261470  12.191   9.107   8.771
53211SOL     OW61471   4.418   8.880   7.201
53211SOL    HW161472   4.388   8.789   7.202
53211SOL    HW261473   4.509   8.875   7.232
53212SOL     OW61474   4.252   9.381   3.375
53212SOL    HW161475   4.184   9.347   3.317
53212SOL    HW261476   4.318   9.418   3.316
53213SOL     OW61477   8.050   0.100   9.562
53213SOL    HW161478   7.976   0.081   9.620
53213SOL    HW261479   8.017   0.083   9.474
53214SOL     OW61480   4.409   3.580   4.099
53214SOL    HW161481   4.444   3.660   4.138
53214SOL    HW261482   4.352   3.544   4.167
53215SOL     OW61483   7.775   0.146   5.335
53215SOL    HW161484   7.795   0.237   5.312
53215SOL    HW261485   7.854   0.097   5.313
53216SOL     OW61486  12.919   6.243  11.952
53216SOL    HW161487  13.005   6.235  11.994
53216SOL    HW261488  12.869   6.168  11.984
53217SOL     OW61489   8.263   8.670   5.874
53217SOL    HW161490   8.333   8.713   5.824
53217SOL    HW261491   8.283   8.690   5.965
53218SOL     OW61492  12.467  12.638   3.582
53218SOL    HW161493  12.411  12.665   3.510
53218SOL    HW261494  12.517  12.716   3.605
53219SOL     OW61495  12.624   0.166  12.383
53219SOL    HW161496  12.666   0.239  12.429
53219SOL    HW261497  12.696   0.121  12.339
53220SOL     OW61498   8.991   6.831   4.984
53220SOL    HW161499   9.016   6.889   5.055
53220SOL    HW261500   9.063   6.769   4.977
53221SOL     OW61501  11.991  10.591  14.372
53221SOL    HW161502  11.927  10.625  14.310
53221SOL    HW261503  12.071  10.642  14.354
53222SOL     OW61504   0.643  13.621   4.371
53222SOL    HW161505   0.705  13.692   4.353
53222SOL    HW261506   0.565  13.665   4.406
53223SOL     OW61507   9.053  11.546   8.697
53223SOL    HW161508   9.016  11.464   8.664
53223SOL    HW261509   8.988  11.613   8.675
53224SOL     OW61510   3.021   8.799   8.527
53224SOL    HW161511   3.004   8.768   8.616
53224SOL    HW261512   2.989   8.890   8.527
53225SOL     OW61513   5.282  12.564  13.878
53225SOL    HW161514   5.234  12.633  13.924
53225SOL    HW261515   5.220  12.490  13.875
53226SOL     OW61516   9.622   5.125  14.607
53226SOL    HW161517   9.544   5.150  14.557
53226SOL    HW261518   9.603   5.156  14.696
53227SOL     OW61519   7.402  11.920   8.431
53227SOL    HW161520   7.388  11.829   8.407
53227SOL    HW261521   7.425  11.918   8.524
53228SOL     OW61522  13.743   8.037   2.711
53228SOL    HW161523  13.738   7.960   2.655
53228SOL    HW261524  13.728   8.111   2.652
53229SOL     OW61525   6.709   3.178   4.217
53229SOL    HW161526   6.625   3.154   4.257
53229SOL    HW261527   6.686   3.203   4.127
53230SOL     OW61528   5.163  11.325   0.175
53230SOL    HW161529   5.087  11.372   0.208
53230SOL    HW261530   5.225  11.326   0.248
53231SOL     OW61531   0.960  10.366   3.318
53231SOL    HW161532   0.888  10.408   3.271
53231SOL    HW261533   1.007  10.438   3.359
53232SOL     OW61534   7.834   0.656   9.630
53232SOL    HW161535   7.826   0.571   9.586
53232SOL    HW261536   7.860   0.717   9.561
53233SOL     OW61537  13.908  13.553  11.745
53233SOL    HW161538  13.819  13.586  11.757
53233SOL    HW261539  13.902  13.459  11.765
53234SOL     OW61540   2.704   6.267  14.469
53234SOL    HW161541   2.728   6.357  14.492
53234SOL    HW261542   2.669   6.273  14.380
53235SOL     OW61543  13.499   1.321  11.150
53235SOL    HW161544  13.555   1.321  11.072
53235SOL    HW261545  13.413   1.349  11.117
53236SOL     OW61546   0.041   6.922   0.186
53236SOL    HW161547   0.068   6.850   0.128
53236SOL    HW261548   0.117   6.934   0.244
53237SOL     OW61549  12.582   3.308   6.915
53237SOL    HW161550  12.650   3.312   6.848
53237SOL    HW261551  12.500   3.315   6.866
53238SOL     OW61552   7.478  12.728  13.767
53238SOL    HW161553   7.409  12.663  13.783
53238SOL    HW261554   7.556  12.690  13.807
53239SOL     OW61555  12.504   5.841   0.044
53239SOL    HW161556  12.587   5.854   0.090
53239SOL    HW261557  12.442   5.819   0.113
53240SOL     OW61558   1.167   7.312  12.989
53240SOL    HW161559   1.104   7.286  12.923
53240SOL    HW261560   1.227   7.371  12.944
53241SOL     OW61561   3.495   3.304   2.256
53241SOL    HW161562   3.516   3.309   2.350
53241SOL    HW261563   3.561   3.360   2.214
53242SOL     OW61564   6.128  10.198  14.366
53242SOL    HW161565   6.142  10.105  14.348
53242SOL    HW261566   6.206  10.225  14.414
53243SOL     OW61567   4.192  13.112   2.194
53243SOL    HW161568   4.148  13.031   2.170
53243SOL    HW261569   4.238  13.091   2.276
53244SOL     OW61570  14.096  13.390   6.133
53244SOL    HW161571  14.117  13.327   6.202
53244SOL    HW261572  14.014  13.431   6.163
53245SOL     OW61573   4.970   2.663   8.871
53245SOL    HW161574   4.979   2.606   8.947
53245SOL    HW261575   4.892   2.632   8.826
53246SOL     OW61576   7.107  11.606   9.707
53246SOL    HW161577   7.097  11.625   9.614
53246SOL    HW261578   7.156  11.680   9.742
53247SOL     OW61579  13.971   4.933  10.491
53247SOL    HW161580  13.906   5.002  10.477
53247SOL    HW261581  14.052   4.981  10.511
53248SOL     OW61582   1.062   8.953  10.132
53248SOL    HW161583   0.986   8.911  10.090
53248SOL    HW261584   1.137   8.906  10.097
53249SOL     OW61585   0.947  10.475   1.897
53249SOL    HW161586   1.025  10.425   1.918
53249SOL    HW261587   0.886  10.457   1.969
53250SOL     OW61588   4.896  12.394   7.892
53250SOL    HW161589   4.834  12.331   7.856
53250SOL    HW261590   4.982  12.363   7.863
53251SOL     OW61591  10.351   6.998  13.797
53251SOL    HW161592  10.430   6.946  13.815
53251SOL    HW261593  10.378   7.089  13.809
53252SOL     OW61594  13.697   8.592   5.567
53252SOL    HW161595  13.772   8.577   5.624
53252SOL    HW261596  13.694   8.687   5.555
53253SOL     OW61597  10.340   3.075   8.657
53253SOL    HW161598  10.289   3.152   8.682
53253SOL    HW261599  10.280   3.002   8.666
53254SOL     OW61600   2.611   3.702  13.472
53254SOL    HW161601   2.584   3.666  13.387
53254SOL    HW261602   2.529   3.714  13.520
53255SOL     OW61603  11.235   8.905   7.205
53255SOL    HW161604  11.299   8.952   7.153
53255SOL    HW261605  11.161   8.891   7.146
53256SOL     OW61606   4.118   2.134   3.330
53256SOL    HW161607   4.144   2.187   3.405
53256SOL    HW261608   4.143   2.045   3.354
53257SOL     OW61609   0.641   6.158  14.732
53257SOL    HW161610   0.642   6.069  14.766
53257SOL    HW261611   0.729   6.191  14.748
53258SOL     OW61612  11.352   0.249  10.231
53258SOL    HW161613  11.364   0.191  10.306
53258SOL    HW261614  11.266   0.225  10.196
53259SOL     OW61615   7.989   6.572  13.227
53259SOL    HW161616   8.011   6.622  13.148
53259SOL    HW261617   8.021   6.483  13.209
53260SOL     OW61618   0.191   5.614  14.490
53260SOL    HW161619   0.098   5.606  14.467
53260SOL    HW261620   0.189   5.645  14.581
53261SOL     OW61621  13.475   0.980   9.246
53261SOL    HW161622  13.474   0.884   9.246
53261SOL    HW261623  13.386   1.005   9.271
53262SOL     OW61624  10.272   1.227   0.780
53262SOL    HW161625  10.343   1.266   0.830
53262SOL    HW261626  10.241   1.298   0.723
53263SOL     OW61627   4.891  14.267   9.777
53263SOL    HW161628   4.926  14.270   9.866
53263SOL    HW261629   4.898  14.357   9.745
53264SOL     OW61630  10.017  12.543  10.665
53264SOL    HW161631   9.955  12.483  10.623
53264SOL    HW261632   9.969  12.625  10.673
53265SOL     OW61633   1.482   3.998  13.434
53265SOL    HW161634   1.540   3.927  13.405
53265SOL    HW261635   1.413   3.954  13.483
53266SOL     OW61636  14.236   6.754   7.029
53266SOL    HW161637  14.227   6.837   7.075
53266SOL    HW261638  14.169   6.697   7.067
53267SOL     OW61639  11.338   7.702   2.218
53267SOL    HW161640  11.377   7.622   2.184
53267SOL    HW261641  11.334   7.689   2.313
53268SOL     OW61642   9.009   9.379   9.431
53268SOL    HW161643   8.975   9.457   9.387
53268SOL    HW261644   9.056   9.413   9.507
53269SOL     OW61645   2.521   0.538  13.834
53269SOL    HW161646   2.437   0.493  13.841
53269SOL    HW261647   2.499   0.630  13.821
53270SOL     OW61648   2.755   1.123  10.418
53270SOL    HW161649   2.694   1.051  10.434
53270SOL    HW261650   2.838   1.079  10.398
53271SOL     OW61651   9.905   5.202   9.911
53271SOL    HW161652   9.937   5.218   9.822
53271SOL    HW261653   9.878   5.287   9.943
53272SOL     OW61654  12.280  10.513   0.893
53272SOL    HW161655  12.248  10.426   0.868
53272SOL    HW261656  12.354  10.495   0.952
53273SOL     OW61657   7.229  12.688   6.014
53273SOL    HW161658   7.159  12.722   6.069
53273SOL    HW261659   7.185  12.627   5.955
53274SOL     OW61660   8.092   8.243   9.253
53274SOL    HW161661   8.055   8.154   9.257
53274SOL    HW261662   8.167   8.239   9.313
53275SOL     OW61663   7.852   0.320   7.493
53275SOL    HW161664   7.795   0.395   7.474
53275SOL    HW261665   7.793   0.252   7.524
53276SOL     OW61666   0.786   0.524   8.701
53276SOL    HW161667   0.717   0.580   8.736
53276SOL    HW261668   0.748   0.488   8.620
53277SOL     OW61669  12.793  14.056   3.884
53277SOL    HW161670  12.753  13.970   3.875
53277SOL    HW261671  12.881  14.044   3.848
53278SOL     OW61672  14.057  12.208   4.205
53278SOL    HW161673  14.137  12.259   4.189
53278SOL    HW261674  14.002  12.265   4.258
53279SOL     OW61675  10.288   7.598   2.465
53279SOL    HW161676  10.342   7.542   2.520
53279SOL    HW261677  10.349   7.634   2.401
53280SOL     OW61678   9.852   9.961   3.187
53280SOL    HW161679   9.827  10.009   3.109
53280SOL    HW261680   9.918  10.016   3.230
53281SOL     OW61681   1.216   7.246   3.497
53281SOL    HW161682   1.209   7.338   3.522
53281SOL    HW261683   1.299   7.240   3.450
53282SOL     OW61684   7.930   9.867  14.210
53282SOL    HW161685   7.868   9.939  14.217
53282SOL    HW261686   7.911   9.811  14.285
53283SOL     OW61687   4.186  10.911   6.709
53283SOL    HW161688   4.280  10.898   6.698
53283SOL    HW261689   4.158  10.837   6.764
53284SOL     OW61690   4.260  10.426  10.778
53284SOL    HW161691   4.277  10.491  10.846
53284SOL    HW261692   4.258  10.343  10.825
53285SOL     OW61693   2.443   8.491   5.157
53285SOL    HW161694   2.445   8.398   5.181
53285SOL    HW261695   2.487   8.495   5.072
53286SOL     OW61696  11.815  11.058   9.308
53286SOL    HW161697  11.786  11.107   9.385
53286SOL    HW261698  11.743  11.067   9.245
53287SOL     OW61699   8.864  10.444  13.359
53287SOL    HW161700   8.925  10.456  13.432
53287SOL    HW261701   8.913  10.471  13.281
53288SOL     OW61702   5.666   8.715   7.669
53288SOL    HW161703   5.648   8.637   7.617
53288SOL    HW261704   5.622   8.786   7.622
53289SOL     OW61705   0.612   8.523   8.022
53289SOL    HW161706   0.596   8.455   8.087
53289SOL    HW261707   0.663   8.589   8.068
53290SOL     OW61708  12.733  11.558   2.807
53290SOL    HW161709  12.794  11.618   2.765
53290SOL    HW261710  12.648  11.600   2.799
53291SOL     OW61711  10.895  14.375  10.360
53291SOL    HW161712  10.802  14.381  10.383
53291SOL    HW261713  10.937  14.439  10.417
53292SOL     OW61714   7.989  13.661  10.917
53292SOL    HW161715   7.901  13.644  10.885
53292SOL    HW261716   8.044  13.657  10.839
53293SOL     OW61717   2.266   8.597   3.309
53293SOL    HW161718   2.245   8.615   3.217
53293SOL    HW261719   2.312   8.513   3.306
53294SOL     OW61720   7.851  14.300  12.653
53294SOL    HW161721   7.770  14.334  12.616
53294SOL    HW261722   7.850  14.206  12.634
53295SOL     OW61723   3.669  10.055  11.056
53295SOL    HW161724   3.675  10.127  10.993
53295SOL    HW261725   3.576  10.034  11.061
53296SOL     OW61726   9.906   3.664   5.877
53296SOL    HW161727   9.914   3.571   5.854
53296SOL    HW261728   9.933   3.711   5.798
53297SOL     OW61729   7.507   0.436   0.791
53297SOL    HW161730   7.539   0.349   0.812
53297SOL    HW261731   7.551   0.494   0.854
53298SOL     OW61732   3.127   6.183   1.321
53298SOL    HW161733   3.062   6.178   1.391
53298SOL    HW261734   3.201   6.229   1.360
53299SOL     OW61735   7.456   8.690   3.838
53299SOL    HW161736   7.469   8.682   3.933
53299SOL    HW261737   7.504   8.769   3.813
53300SOL     OW61738  13.598  12.180   2.909
53300SOL    HW161739  13.659  12.254   2.907
53300SOL    HW261740  13.535  12.200   2.839
53301SOL     OW61741   4.858   3.742   9.641
53301SOL    HW161742   4.834   3.834   9.641
53301SOL    HW261743   4.944   3.739   9.600
53302SOL     OW61744   3.751  12.109   3.628
53302SOL    HW161745   3.815  12.075   3.691
53302SOL    HW261746   3.726  12.032   3.576
53303SOL     OW61747  10.838   3.249   3.403
53303SOL    HW161748  10.878   3.319   3.455
53303SOL    HW261749  10.902   3.178   3.405
53304SOL     OW61750  11.165   4.005  14.512
53304SOL    HW161751  11.162   3.946  14.587
53304SOL    HW261752  11.219   4.079  14.542
53305SOL     OW61753   6.403   1.622   3.805
53305SOL    HW161754   6.491   1.650   3.782
53305SOL    HW261755   6.346   1.684   3.760
53306SOL     OW61756   0.335  11.791  14.502
53306SOL    HW161757   0.346  11.707  14.547
53306SOL    HW261758   0.383  11.780  14.420
53307SOL     OW61759   2.025   6.509  10.005
53307SOL    HW161760   2.017   6.555  10.089
53307SOL    HW261761   2.083   6.564   9.953
53308SOL     OW61762   5.783   3.674  11.683
53308SOL    HW161763   5.861   3.629  11.651
53308SOL    HW261764   5.814   3.730  11.753
53309SOL     OW61765   9.293  11.524  13.823
53309SOL    HW161766   9.370  11.470  13.807
53309SOL    HW261767   9.318  11.581  13.895
53310SOL     OW61768   8.882   6.037   5.139
53310SOL    HW161769   8.837   6.121   5.144
53310SOL    HW261770   8.929   6.040   5.055
53311SOL     OW61771  11.189   9.386   9.634
53311SOL    HW161772  11.233   9.461   9.672
53311SOL    HW261773  11.096   9.400   9.654
53312SOL     OW61774  12.027   7.198   8.012
53312SOL    HW161775  12.099   7.240   8.059
53312SOL    HW261776  11.950   7.215   8.066
53313SOL     OW61777   4.708   9.098  13.340
53313SOL    HW161778   4.647   9.048  13.286
53313SOL    HW261779   4.792   9.054  13.329
53314SOL     OW61780   1.234  10.252   8.096
53314SOL    HW161781   1.171  10.270   8.026
53314SOL    HW261782   1.316  10.290   8.065
53315SOL     OW61783  14.588  11.541  10.692
53315SOL    HW161784  14.627  11.538  10.779
53315SOL    HW261785  14.581  11.449  10.666
53316SOL     OW61786  12.078   2.563   6.885
53316SOL    HW161787  12.105   2.648   6.851
53316SOL    HW261788  11.989   2.550   6.852
53317SOL     OW61789   9.172  10.568   9.721
53317SOL    HW161790   9.215  10.524   9.648
53317SOL    HW261791   9.243  10.611   9.769
53318SOL     OW61792   5.597   8.142   7.568
53318SOL    HW161793   5.571   8.086   7.495
53318SOL    HW261794   5.557   8.101   7.645
53319SOL     OW61795   7.200  12.458  14.038
53319SOL    HW161796   7.182  12.375  13.993
53319SOL    HW261797   7.121  12.476  14.088
53320SOL     OW61798   2.552  12.454   0.701
53320SOL    HW161799   2.564  12.533   0.754
53320SOL    HW261800   2.596  12.474   0.618
53321SOL     OW61801   5.557   1.531  10.611
53321SOL    HW161802   5.633   1.554  10.665
53321SOL    HW261803   5.574   1.572  10.526
53322SOL     OW61804   4.865   2.628   1.500
53322SOL    HW161805   4.953   2.612   1.534
53322SOL    HW261806   4.848   2.720   1.523
53323SOL     OW61807  14.100   7.642  12.539
53323SOL    HW161808  14.186   7.685  12.540
53323SOL    HW261809  14.119   7.550  12.523
53324SOL     OW61810   8.949   2.658   9.906
53324SOL    HW161811   8.954   2.722   9.977
53324SOL    HW261812   8.856   2.634   9.903
53325SOL     OW61813   0.967   5.674   4.979
53325SOL    HW161814   0.910   5.748   4.999
53325SOL    HW261815   1.048   5.714   4.948
53326SOL     OW61816   0.760  14.635   2.571
53326SOL    HW161817   0.741  14.714   2.623
53326SOL    HW261818   0.699  14.640   2.497
53327SOL     OW61819   4.616  10.963   0.531
53327SOL    HW161820   4.524  10.936   0.538
53327SOL    HW261821   4.665  10.881   0.533
53328SOL     OW61822   6.742   0.592   3.166
53328SOL    HW161823   6.768   0.666   3.110
53328SOL    HW261824   6.778   0.515   3.122
53329SOL     OW61825   8.046  12.483   8.790
53329SOL    HW161826   8.018  12.392   8.787
53329SOL    HW261827   8.134  12.482   8.752
53330SOL     OW61828   3.413  13.001   5.423
53330SOL    HW161829   3.492  12.952   5.443
53330SOL    HW261830   3.440  13.064   5.356
53331SOL     OW61831  13.086  11.433  14.601
53331SOL    HW161832  13.103  11.516  14.556
53331SOL    HW261833  13.069  11.458  14.692
53332SOL     OW61834   9.307   6.842   0.948
53332SOL    HW161835   9.370   6.823   0.878
53332SOL    HW261836   9.362   6.867   1.023
53333SOL     OW61837  14.523   8.218   6.489
53333SOL    HW161838  14.579   8.226   6.566
53333SOL    HW261839  14.576   8.250   6.416
53334SOL     OW61840   3.881   2.020  14.383
53334SOL    HW161841   3.886   1.937  14.430
53334SOL    HW261842   3.970   2.036  14.353
53335SOL     OW61843  14.665   1.109   1.513
53335SOL    HW161844  14.697   1.181   1.567
53335SOL    HW261845  14.592   1.146   1.463
53336SOL     OW61846   6.197   3.423   8.597
53336SOL    HW161847   6.140   3.410   8.522
53336SOL    HW261848   6.250   3.343   8.600
53337SOL     OW61849   0.356   4.121   7.623
53337SOL    HW161850   0.330   4.077   7.704
53337SOL    HW261851   0.280   4.110   7.565
53338SOL     OW61852   1.185  12.930  11.619
53338SOL    HW161853   1.166  12.963  11.707
53338SOL    HW261854   1.239  12.998  11.579
53339SOL     OW61855   3.772  12.652   5.978
53339SOL    HW161856   3.849  12.696   6.013
53339SOL    HW261857   3.700  12.682   6.034
53340SOL     OW61858  13.654   6.000   9.272
53340SOL    HW161859  13.574   6.045   9.297
53340SOL    HW261860  13.701   5.987   9.354
53341SOL     OW61861   7.613  12.167   5.607
53341SOL    HW161862   7.591  12.077   5.630
53341SOL    HW261863   7.676  12.194   5.673
53342SOL     OW61864   4.920  14.580   0.434
53342SOL    HW161865   4.857  14.616   0.496
53342SOL    HW261866   4.868  14.558   0.356
53343SOL     OW61867  13.236  10.117  10.811
53343SOL    HW161868  13.250  10.210  10.830
53343SOL    HW261869  13.324  10.079  10.812
53344SOL     OW61870   9.138   9.820   0.761
53344SOL    HW161871   9.132   9.803   0.667
53344SOL    HW261872   9.097   9.744   0.802
53345SOL     OW61873   3.948  11.600  14.579
53345SOL    HW161874   3.876  11.663  14.575
53345SOL    HW261875   3.966  11.579  14.487
53346SOL     OW61876   9.027   4.529   2.442
53346SOL    HW161877   8.936   4.550   2.460
53346SOL    HW261878   9.063   4.610   2.404
53347SOL     OW61879  14.190  14.271   9.102
53347SOL    HW161880  14.254  14.322   9.152
53347SOL    HW261881  14.118  14.256   9.164
53348SOL     OW61882   0.344   6.230   1.986
53348SOL    HW161883   0.354   6.143   1.948
53348SOL    HW261884   0.272   6.221   2.049
53349SOL     OW61885   2.291  11.743   7.808
53349SOL    HW161886   2.212  11.797   7.800
53349SOL    HW261887   2.314  11.720   7.718
53350SOL     OW61888   7.192   4.444  12.414
53350SOL    HW161889   7.186   4.361  12.461
53350SOL    HW261890   7.146   4.429  12.332
53351SOL     OW61891  12.365   5.081   5.122
53351SOL    HW161892  12.338   5.026   5.049
53351SOL    HW261893  12.370   5.021   5.197
53352SOL     OW61894   4.615   7.510  10.766
53352SOL    HW161895   4.600   7.486  10.675
53352SOL    HW261896   4.672   7.442  10.800
53353SOL     OW61897  10.058  13.420  12.236
53353SOL    HW161898  10.080  13.504  12.196
53353SOL    HW261899  10.124  13.360  12.201
53354SOL     OW61900  10.985   4.934   2.555
53354SOL    HW161901  10.937   5.009   2.518
53354SOL    HW261902  11.069   4.935   2.508
53355SOL     OW61903   0.684  13.837   0.643
53355SOL    HW161904   0.726  13.777   0.582
53355SOL    HW261905   0.757  13.884   0.684
53356SOL     OW61906   3.758   3.815   9.984
53356SOL    HW161907   3.736   3.907   9.996
53356SOL    HW261908   3.830   3.799  10.045
53357SOL     OW61909   4.612  14.479  11.386
53357SOL    HW161910   4.587  14.557  11.337
53357SOL    HW261911   4.703  14.495  11.411
53358SOL     OW61912   1.405   8.683  13.004
53358SOL    HW161913   1.378   8.685  13.096
53358SOL    HW261914   1.387   8.593  12.976
53359SOL     OW61915   1.257   4.126   6.085
53359SOL    HW161916   1.264   4.215   6.119
53359SOL    HW261917   1.199   4.081   6.147
53360SOL     OW61918   2.806  12.944   4.715
53360SOL    HW161919   2.761  12.951   4.799
53360SOL    HW261920   2.790  12.855   4.686
53361SOL     OW61921   5.722  10.959   9.160
53361SOL    HW161922   5.751  10.946   9.250
53361SOL    HW261923   5.779  10.902   9.108
53362SOL     OW61924   1.501   8.911   1.574
53362SOL    HW161925   1.567   8.919   1.643
53362SOL    HW261926   1.424   8.957   1.609
53363SOL     OW61927  10.561  13.525   6.632
53363SOL    HW161928  10.598  13.505   6.718
53363SOL    HW261929  10.540  13.440   6.594
53364SOL     OW61930   3.013  10.392  11.997
53364SOL    HW161931   2.951  10.376  12.069
53364SOL    HW261932   2.979  10.469  11.953
53365SOL     OW61933   3.886  14.385   7.351
53365SOL    HW161934   3.812  14.328   7.328
53365SOL    HW261935   3.859  14.472   7.320
53366SOL     OW61936   9.096   1.259  12.496
53366SOL    HW161937   9.072   1.212  12.576
53366SOL    HW261938   9.189   1.278  12.508
53367SOL     OW61939   6.489   6.612  11.962
53367SOL    HW161940   6.414   6.647  11.913
53367SOL    HW261941   6.561   6.613  11.900
53368SOL     OW61942   8.902   5.861   0.798
53368SOL    HW161943   8.972   5.909   0.841
53368SOL    HW261944   8.946   5.803   0.736
53369SOL     OW61945   3.121  14.497  13.689
53369SOL    HW161946   3.181  14.534  13.755
53369SOL    HW261947   3.041  14.479  13.738
53370SOL     OW61948  11.782  10.005   3.379
53370SOL    HW161949  11.746   9.918   3.359
53370SOL    HW261950  11.826  10.032   3.299
53371SOL     OW61951  10.542   2.740   2.307
53371SOL    HW161952  10.558   2.664   2.363
53371SOL    HW261953  10.538   2.703   2.218
53372SOL     OW61954  12.697  14.310   5.883
53372SOL    HW161955  12.792  14.315   5.876
53372SOL    HW261956  12.679  14.318   5.977
53373SOL     OW61957  14.164   9.511  13.791
53373SOL    HW161958  14.139   9.562  13.714
53373SOL    HW261959  14.255   9.483  13.774
53374SOL     OW61960   1.074  11.515   2.183
53374SOL    HW161961   0.981  11.496   2.188
53374SOL    HW261962   1.111  11.480   2.264
53375SOL     OW61963  12.907   6.204  12.641
53375SOL    HW161964  12.998   6.222  12.619
53375SOL    HW261965  12.860   6.208  12.557
53376SOL     OW61966   1.992   9.905  12.906
53376SOL    HW161967   1.953   9.818  12.898
53376SOL    HW261968   2.080   9.895  12.869
53377SOL     OW61969  12.791  11.703   5.482
53377SOL    HW161970  12.840  11.698   5.564
53377SOL    HW261971  12.779  11.612   5.455
53378SOL     OW61972  11.374  11.283  13.025
53378SOL    HW161973  11.293  11.232  13.017
53378SOL    HW261974  11.401  11.299  12.935
53379SOL     OW61975   3.632   3.356   8.818
53379SOL    HW161976   3.687   3.431   8.795
53379SOL    HW261977   3.559   3.360   8.757
53380SOL     OW61978  13.648  12.860  13.161
53380SOL    HW161979  13.737  12.896  13.169
53380SOL    HW261980  13.631  12.858  13.067
53381SOL     OW61981   6.982   8.827   5.717
53381SOL    HW161982   6.924   8.798   5.788
53381SOL    HW261983   6.942   8.792   5.638
53382SOL     OW61984   9.954   3.222   2.095
53382SOL    HW161985  10.029   3.260   2.050
53382SOL    HW261986   9.878   3.261   2.052
53383SOL     OW61987   1.099  11.710  11.995
53383SOL    HW161988   1.099  11.805  12.001
53383SOL    HW261989   1.018  11.683  12.038
53384SOL     OW61990  11.971  12.491  10.343
53384SOL    HW161991  11.991  12.456  10.256
53384SOL    HW261992  12.028  12.568  10.351
53385SOL     OW61993  13.132  14.424   9.253
53385SOL    HW161994  13.164  14.334   9.256
53385SOL    HW261995  13.167  14.465   9.332
53386SOL     OW61996   7.219  11.338   7.066
53386SOL    HW161997   7.125  11.326   7.052
53386SOL    HW261998   7.260  11.306   6.985
53387SOL     OW61999  10.748   0.811   3.217
53387SOL    HW162000  10.826   0.845   3.174
53387SOL    HW262001  10.742   0.720   3.187
53388SOL     OW62002  14.605   4.990   5.846
53388SOL    HW162003  14.687   5.026   5.812
53388SOL    HW262004  14.620   4.895   5.849
53389SOL     OW62005   3.794   1.583   8.060
53389SOL    HW162006   3.861   1.608   7.996
53389SOL    HW262007   3.712   1.586   8.011
53390SOL     OW62008   4.383   2.545   6.432
53390SOL    HW162009   4.471   2.577   6.413
53390SOL    HW262010   4.329   2.624   6.439
53391SOL     OW62011  13.608  14.683  13.140
53391SOL    HW162012  13.581  14.720  13.224
53391SOL    HW262013  13.683  14.736  13.113
53392SOL     OW62014   2.036  10.113   5.162
53392SOL    HW162015   1.942  10.131   5.157
53392SOL    HW262016   2.055  10.061   5.084
53393SOL     OW62017   2.831   8.864  13.174
53393SOL    HW162018   2.817   8.771  13.154
53393SOL    HW262019   2.908   8.888  13.121
53394SOL     OW62020   6.134   6.099   8.865
53394SOL    HW162021   6.083   6.088   8.784
53394SOL    HW262022   6.176   6.184   8.855
53395SOL     OW62023   8.023   1.536  14.859
53395SOL    HW162024   8.111   1.569  14.841
53395SOL    HW262025   8.013   1.459  14.803
53396SOL     OW62026   8.590  11.364   3.920
53396SOL    HW162027   8.627  11.452   3.923
53396SOL    HW262028   8.576  11.347   3.827
53397SOL     OW62029   9.378   5.202   1.545
53397SOL    HW162030   9.403   5.140   1.612
53397SOL    HW262031   9.401   5.160   1.462
53398SOL     OW62032   4.680  13.873   5.537
53398SOL    HW162033   4.620  13.824   5.480
53398SOL    HW262034   4.764  13.868   5.492
53399SOL     OW62035  11.145  14.339  12.739
53399SOL    HW162036  11.090  14.301  12.670
53399SOL    HW262037  11.197  14.266  12.771
53400SOL     OW62038   7.796  12.102   9.559
53400SOL    HW162039   7.882  12.132   9.531
53400SOL    HW262040   7.754  12.180   9.595
53401SOL     OW62041   0.858  11.332   2.284
53401SOL    HW162042   0.906  11.317   2.365
53401SOL    HW262043   0.903  11.278   2.219
53402SOL     OW62044   0.150  12.850   1.916
53402SOL    HW162045   0.108  12.896   1.988
53402SOL    HW262046   0.243  12.874   1.923
53403SOL     OW62047   4.079  11.724   8.013
53403SOL    HW162048   4.061  11.780   7.938
53403SOL    HW262049   4.047  11.637   7.987
53404SOL     OW62050   8.126   8.828   8.730
53404SOL    HW162051   8.048   8.811   8.677
53404SOL    HW262052   8.121   8.922   8.749
53405SOL     OW62053  14.793  10.367  13.462
53405SOL    HW162054  14.782  10.452  13.504
53405SOL    HW262055  14.811  10.307  13.533
53406SOL     OW62056   0.078   4.074   2.406
53406SOL    HW162057   0.062   4.076   2.312
53406SOL    HW262058   0.107   4.163   2.427
53407SOL     OW62059   3.304   5.464   8.425
53407SOL    HW162060   3.345   5.520   8.360
53407SOL    HW262061   3.237   5.520   8.466
53408SOL     OW62062   7.085  13.598   1.002
53408SOL    HW162063   7.011  13.564   0.952
53408SOL    HW262064   7.138  13.521   1.022
53409SOL     OW62065   7.624   5.818   4.708
53409SOL    HW162066   7.558   5.754   4.683
53409SOL    HW262067   7.700   5.795   4.654
53410SOL     OW62068  10.076   9.657   1.645
53410SOL    HW162069  10.137   9.607   1.699
53410SOL    HW262070  10.000   9.600   1.636
53411SOL     OW62071  13.833   3.873   0.746
53411SOL    HW162072  13.779   3.847   0.821
53411SOL    HW262073  13.788   3.948   0.708
53412SOL     OW62074   4.441   4.265  13.014
53412SOL    HW162075   4.382   4.302  13.080
53412SOL    HW262076   4.384   4.243  12.940
53413SOL     OW62077   9.851  12.397   8.242
53413SOL    HW162078   9.937  12.354   8.245
53413SOL    HW262079   9.803  12.349   8.174
53414SOL     OW62080  14.861   9.765  10.784
53414SOL    HW162081   0.060   9.790  10.838
53414SOL    HW262082  14.787   9.762  10.845
53415SOL     OW62083  11.672  11.843   8.152
53415SOL    HW162084  11.733  11.807   8.217
53415SOL    HW262085  11.588  11.846   8.198
53416SOL     OW62086  13.047   0.121   8.850
53416SOL    HW162087  13.042   0.046   8.791
53416SOL    HW262088  12.987   0.099   8.921
53417SOL     OW62089   4.702   8.517   5.217
53417SOL    HW162090   4.699   8.604   5.256
53417SOL    HW262091   4.764   8.525   5.144
53418SOL     OW62092   4.661   0.175  10.192
53418SOL    HW162093   4.604   0.187  10.116
53418SOL    HW262094   4.665   0.080  10.204
53419SOL     OW62095  14.371  13.662   7.482
53419SOL    HW162096  14.338  13.669   7.571
53419SOL    HW262097  14.365  13.751   7.447
53420SOL     OW62098   7.407  10.936   7.850
53420SOL    HW162099   7.418  11.017   7.900
53420SOL    HW262100   7.478  10.879   7.880
53421SOL     OW62101  10.201   3.414   0.889
53421SOL    HW162102  10.205   3.508   0.872
53421SOL    HW262103  10.291   3.389   0.907
53422SOL     OW62104   0.313   8.775   8.916
53422SOL    HW162105   0.352   8.705   8.969
53422SOL    HW262106   0.380   8.798   8.853
53423SOL     OW62107   0.558  10.959  13.535
53423SOL    HW162108   0.490  10.912  13.582
53423SOL    HW262109   0.602  11.011  13.602
53424SOL     OW62110  11.688   4.200   5.425
53424SOL    HW162111  11.752   4.215   5.356
53424SOL    HW262112  11.689   4.282   5.476
53425SOL     OW62113   0.509   5.742  12.481
53425SOL    HW162114   0.513   5.807  12.411
53425SOL    HW262115   0.469   5.789  12.555
53426SOL     OW62116  10.201   2.180   9.933
53426SOL    HW162117  10.175   2.136   9.852
53426SOL    HW262118  10.292   2.153   9.946
53427SOL     OW62119  10.519   8.732  14.870
53427SOL    HW162120  10.503   8.645  14.833
53427SOL    HW262121  10.612   8.733   0.014
53428SOL     OW62122  13.535   9.949  13.836
53428SOL    HW162123  13.557   9.964  13.743
53428SOL    HW262124  13.619   9.959  13.881
53429SOL     OW62125  12.332  12.512  14.496
53429SOL    HW162126  12.310  12.423  14.469
53429SOL    HW262127  12.344  12.560  14.413
53430SOL     OW62128   9.371   2.164  11.340
53430SOL    HW162129   9.334   2.124  11.419
53430SOL    HW262130   9.326   2.248  11.332
53431SOL     OW62131   8.964   6.118  11.186
53431SOL    HW162132   9.011   6.054  11.134
53431SOL    HW262133   9.029   6.187  11.204
53432SOL     OW62134  13.509   2.215   1.233
53432SOL    HW162135  13.516   2.277   1.306
53432SOL    HW262136  13.522   2.268   1.155
53433SOL     OW62137  12.444   2.176   3.156
53433SOL    HW162138  12.446   2.090   3.197
53433SOL    HW262139  12.430   2.237   3.229
53434SOL     OW62140   7.428   1.197   6.921
53434SOL    HW162141   7.406   1.281   6.882
53434SOL    HW262142   7.467   1.219   7.006
53435SOL     OW62143   3.538  10.646  13.491
53435SOL    HW162144   3.566  10.576  13.550
53435SOL    HW262145   3.619  10.693  13.470
53436SOL     OW62146  10.852   3.230   8.802
53436SOL    HW162147  10.859   3.303   8.863
53436SOL    HW262148  10.759   3.207   8.802
53437SOL     OW62149   5.062   9.929  10.026
53437SOL    HW162150   5.048   9.836  10.039
53437SOL    HW262151   5.134   9.951  10.086
53438SOL     OW62152   0.559   8.002   4.475
53438SOL    HW162153   0.587   8.076   4.421
53438SOL    HW262154   0.639   7.951   4.488
53439SOL     OW62155  11.999   3.400  11.228
53439SOL    HW162156  11.941   3.361  11.162
53439SOL    HW262157  11.964   3.371  11.312
53440SOL     OW62158  12.317   6.496   5.166
53440SOL    HW162159  12.409   6.512   5.189
53440SOL    HW262160  12.319   6.414   5.116
53441SOL     OW62161   2.181   6.723   4.030
53441SOL    HW162162   2.191   6.742   3.937
53441SOL    HW262163   2.236   6.787   4.074
53442SOL     OW62164   6.433  10.372   3.251
53442SOL    HW162165   6.390  10.457   3.259
53442SOL    HW262166   6.456  10.366   3.158
53443SOL     OW62167  10.702   2.370   1.286
53443SOL    HW162168  10.781   2.343   1.239
53443SOL    HW262169  10.656   2.426   1.224
53444SOL     OW62170  12.354   4.740   6.430
53444SOL    HW162171  12.259   4.733   6.427
53444SOL    HW262172  12.373   4.828   6.398
53445SOL     OW62173   3.673   2.313   7.129
53445SOL    HW162174   3.630   2.386   7.173
53445SOL    HW262175   3.603   2.251   7.111
53446SOL     OW62176   0.502   8.822  13.392
53446SOL    HW162177   0.496   8.748  13.452
53446SOL    HW262178   0.446   8.890  13.431
53447SOL     OW62179   2.037  11.984   7.843
53447SOL    HW162180   2.018  12.013   7.754
53447SOL    HW262181   1.951  11.979   7.885
53448SOL     OW62182  12.660  13.285  11.655
53448SOL    HW162183  12.639  13.203  11.610
53448SOL    HW262184  12.742  13.267  11.701
53449SOL     OW62185  13.317  14.111   0.161
53449SOL    HW162186  13.299  14.142   0.073
53449SOL    HW262187  13.260  14.163   0.217
53450SOL     OW62188   6.511  11.508   4.516
53450SOL    HW162189   6.487  11.497   4.608
53450SOL    HW262190   6.573  11.580   4.516
53451SOL     OW62191  13.761   9.564   9.518
53451SOL    HW162192  13.772   9.641   9.462
53451SOL    HW262193  13.826   9.502   9.485
53452SOL     OW62194  14.294  14.397   5.522
53452SOL    HW162195  14.199  14.386   5.531
53452SOL    HW262196  14.306  14.436   5.435
53453SOL     OW62197   1.522  13.578   8.663
53453SOL    HW162198   1.609  13.617   8.653
53453SOL    HW262199   1.529  13.490   8.626
53454SOL     OW62200   4.132   4.717   2.262
53454SOL    HW162201   4.147   4.630   2.297
53454SOL    HW262202   4.219   4.748   2.237
53455SOL     OW62203   0.593   4.962   7.748
53455SOL    HW162204   0.656   5.000   7.808
53455SOL    HW262205   0.645   4.938   7.671
53456SOL     OW62206  10.399   2.941  13.834
53456SOL    HW162207  10.481   2.930  13.883
53456SOL    HW262208  10.423   2.926  13.743
53457SOL     OW62209   8.796  11.530   8.137
53457SOL    HW162210   8.707  11.509   8.165
53457SOL    HW262211   8.813  11.617   8.175
53458SOL     OW62212   5.802   8.651  11.240
53458SOL    HW162213   5.829   8.590  11.309
53458SOL    HW262214   5.843   8.616  11.160
53459SOL     OW62215   8.186   3.258   5.244
53459SOL    HW162216   8.264   3.284   5.291
53459SOL    HW262217   8.153   3.340   5.205
53460SOL     OW62218   6.315   0.178   0.986
53460SOL    HW162219   6.368   0.100   0.969
53460SOL    HW262220   6.296   0.174   1.080
53461SOL     OW62221   5.072  11.295   1.753
53461SOL    HW162222   5.018  11.283   1.675
53461SOL    HW262223   5.018  11.349   1.811
53462SOL     OW62224  12.897   7.476   1.422
53462SOL    HW162225  12.871   7.565   1.445
53462SOL    HW262226  12.914   7.434   1.506
53463SOL     OW62227   5.183  13.737   3.330
53463SOL    HW162228   5.220  13.650   3.347
53463SOL    HW262229   5.128  13.755   3.407
53464SOL     OW62230   6.550   7.727   5.668
53464SOL    HW162231   6.538   7.642   5.626
53464SOL    HW262232   6.535   7.790   5.597
53465SOL     OW62233   8.611   2.304   2.866
53465SOL    HW162234   8.610   2.210   2.847
53465SOL    HW262235   8.586   2.311   2.958
53466SOL     OW62236   3.964   0.292   7.710
53466SOL    HW162237   3.881   0.332   7.734
53466SOL    HW262238   3.961   0.205   7.749
53467SOL     OW62239   4.441   1.915   5.916
53467SOL    HW162240   4.444   1.835   5.968
53467SOL    HW262241   4.433   1.985   5.980
53468SOL     OW62242   1.174   6.764   2.554
53468SOL    HW162243   1.241   6.704   2.585
53468SOL    HW262244   1.223   6.840   2.522
53469SOL     OW62245   3.534   1.393   0.490
53469SOL    HW162246   3.452   1.415   0.446
53469SOL    HW262247   3.522   1.426   0.579
53470SOL     OW62248   0.665   7.173  13.205
53470SOL    HW162249   0.677   7.094  13.153
53470SOL    HW262250   0.630   7.142  13.289
53471SOL     OW62251   6.585  10.248   1.790
53471SOL    HW162252   6.597  10.153   1.781
53471SOL    HW262253   6.633  10.285   1.716
53472SOL     OW62254   1.882   3.858   8.278
53472SOL    HW162255   1.842   3.916   8.343
53472SOL    HW262256   1.927   3.918   8.218
53473SOL     OW62257   3.082  13.725   4.298
53473SOL    HW162258   3.007  13.754   4.247
53473SOL    HW262259   3.155  13.778   4.265
53474SOL     OW62260   5.283   1.189  12.108
53474SOL    HW162261   5.277   1.104  12.063
53474SOL    HW262262   5.317   1.168  12.195
53475SOL     OW62263   3.646   7.016  14.760
53475SOL    HW162264   3.626   6.992  14.851
53475SOL    HW262265   3.584   7.087  14.740
53476SOL     OW62266   3.352  10.984   0.700
53476SOL    HW162267   3.306  11.068   0.709
53476SOL    HW262268   3.289  10.926   0.658
53477SOL     OW62269   9.366   8.602   6.287
53477SOL    HW162270   9.302   8.638   6.349
53477SOL    HW262271   9.384   8.514   6.320
53478SOL     OW62272   6.449  14.123   7.359
53478SOL    HW162273   6.500  14.043   7.344
53478SOL    HW262274   6.428  14.154   7.271
53479SOL     OW62275   6.229   1.849   1.808
53479SOL    HW162276   6.290   1.830   1.880
53479SOL    HW262277   6.202   1.764   1.776
53480SOL     OW62278   2.728   9.123   3.585
53480SOL    HW162279   2.686   9.153   3.665
53480SOL    HW262280   2.660   9.128   3.518
53481SOL     OW62281   5.226   7.298   2.738
53481SOL    HW162282   5.156   7.240   2.769
53481SOL    HW262283   5.302   7.276   2.792
53482SOL     OW62284   7.895   1.016  12.195
53482SOL    HW162285   7.970   1.074  12.178
53482SOL    HW262286   7.826   1.074  12.226
53483SOL     OW62287   2.037   0.518   7.621
53483SOL    HW162288   2.104   0.551   7.561
53483SOL    HW262289   1.981   0.463   7.565
53484SOL     OW62290   1.366   6.834  14.722
53484SOL    HW162291   1.386   6.922  14.692
53484SOL    HW262292   1.292   6.845  14.782
53485SOL     OW62293   7.129  10.376   1.672
53485SOL    HW162294   7.114  10.283   1.662
53485SOL    HW262295   7.217  10.390   1.637
53486SOL     OW62296  11.516  13.854   9.655
53486SOL    HW162297  11.590  13.913   9.669
53486SOL    HW262298  11.537  13.807   9.574
53487SOL     OW62299   5.292   9.065   2.800
53487SOL    HW162300   5.354   9.075   2.728
53487SOL    HW262301   5.258   8.976   2.792
53488SOL     OW62302   2.892  14.670   3.889
53488SOL    HW162303   2.889  14.759   3.926
53488SOL    HW262304   2.980  14.639   3.911
53489SOL     OW62305   0.234   3.384  14.755
53489SOL    HW162306   0.222   3.451  14.823
53489SOL    HW262307   0.304   3.328  14.789
53490SOL     OW62308   1.158  12.618   0.147
53490SOL    HW162309   1.211  12.609   0.067
53490SOL    HW262310   1.079  12.567   0.129
53491SOL     OW62311   7.653  13.977  14.649
53491SOL    HW162312   7.578  13.976  14.590
53491SOL    HW262313   7.725  13.942  14.596
53492SOL     OW62314   8.983   9.213   6.298
53492SOL    HW162315   9.056   9.267   6.267
53492SOL    HW262316   8.963   9.155   6.225
53493SOL     OW62317   0.169   4.499  12.431
53493SOL    HW162318   0.141   4.430  12.372
53493SOL    HW262319   0.236   4.547  12.383
53494SOL     OW62320  10.413   3.465   8.192
53494SOL    HW162321  10.372   3.416   8.121
53494SOL    HW262322  10.386   3.420   8.272
53495SOL     OW62323   0.195   0.800   2.651
53495SOL    HW162324   0.285   0.787   2.622
53495SOL    HW262325   0.190   0.757   2.736
53496SOL     OW62326   5.044  12.709  12.049
53496SOL    HW162327   5.020  12.710  12.142
53496SOL    HW262328   5.124  12.656  12.046
53497SOL     OW62329   3.174   7.057  13.532
53497SOL    HW162330   3.204   7.116  13.601
53497SOL    HW262331   3.255   7.030  13.487
53498SOL     OW62332  12.676  13.926   7.436
53498SOL    HW162333  12.595  13.964   7.470
53498SOL    HW262334  12.668  13.832   7.454
53499SOL     OW62335  11.277   2.147  14.597
53499SOL    HW162336  11.216   2.182  14.662
53499SOL    HW262337  11.222   2.094  14.539
53500SOL     OW62338   3.111   4.526   0.838
53500SOL    HW162339   3.206   4.531   0.846
53500SOL    HW262340   3.094   4.534   0.744
53501SOL     OW62341  12.508  12.000   1.454
53501SOL    HW162342  12.593  11.977   1.419
53501SOL    HW262343  12.474  11.919   1.491
53502SOL     OW62344  11.124   8.341   5.192
53502SOL    HW162345  11.078   8.416   5.154
53502SOL    HW262346  11.076   8.264   5.159
53503SOL     OW62347   1.548   6.332  13.829
53503SOL    HW162348   1.604   6.405  13.854
53503SOL    HW262349   1.467   6.345  13.878
53504SOL     OW62350  14.665  14.868  14.260
53504SOL    HW162351  14.635   0.041  14.337
53504SOL    HW262352  14.695  14.785  14.296
53505SOL     OW62353  14.150   6.593  14.446
53505SOL    HW162354  14.136   6.668  14.388
53505SOL    HW262355  14.159   6.632  14.533
53506SOL     OW62356  14.461   6.138   4.177
53506SOL    HW162357  14.489   6.137   4.085
53506SOL    HW262358  14.436   6.229   4.193
53507SOL     OW62359   7.005  11.916   0.257
53507SOL    HW162360   6.988  11.880   0.344
53507SOL    HW262361   7.093  11.885   0.234
53508SOL     OW62362   2.064   5.556   2.383
53508SOL    HW162363   1.990   5.518   2.335
53508SOL    HW262364   2.073   5.645   2.348
53509SOL     OW62365   3.446   2.159   7.204
53509SOL    HW162366   3.480   2.156   7.293
53509SOL    HW262367   3.357   2.194   7.213
53510SOL     OW62368  12.932  14.296   5.526
53510SOL    HW162369  12.945  14.203   5.541
53510SOL    HW262370  12.995  14.338   5.585
53511SOL     OW62371   0.488   6.759   4.933
53511SOL    HW162372   0.541   6.700   4.879
53511SOL    HW262373   0.452   6.823   4.870
53512SOL     OW62374   6.160   0.059   9.940
53512SOL    HW162375   6.180   0.021   9.855
53512SOL    HW262376   6.087   0.007   9.973
53513SOL     OW62377   1.630  10.035   4.620
53513SOL    HW162378   1.599  10.111   4.670
53513SOL    HW262379   1.612   9.960   4.677
53514SOL     OW62380  14.240  12.313  10.117
53514SOL    HW162381  14.167  12.289  10.060
53514SOL    HW262382  14.286  12.230  10.134
53515SOL     OW62383  10.812   6.870   7.554
53515SOL    HW162384  10.858   6.796   7.516
53515SOL    HW262385  10.806   6.849   7.647
53516SOL     OW62386  14.459   5.482   6.841
53516SOL    HW162387  14.467   5.572   6.809
53516SOL    HW262388  14.467   5.490   6.936
53517SOL     OW62389   2.724   1.258  12.214
53517SOL    HW162390   2.788   1.188  12.217
53517SOL    HW262391   2.703   1.276  12.306
53518SOL     OW62392   9.720  10.883   8.309
53518SOL    HW162393   9.651  10.848   8.254
53518SOL    HW262394   9.740  10.814   8.371
53519SOL     OW62395   5.505   0.865  12.739
53519SOL    HW162396   5.448   0.835  12.669
53519SOL    HW262397   5.471   0.823  12.818
53520SOL     OW62398   3.681   3.833   1.777
53520SOL    HW162399   3.765   3.813   1.818
53520SOL    HW262400   3.686   3.927   1.756
53521SOL     OW62401   2.771  11.211   3.402
53521SOL    HW162402   2.751  11.287   3.457
53521SOL    HW262403   2.718  11.224   3.323
53522SOL     OW62404  12.941  12.201   5.674
53522SOL    HW162405  12.895  12.120   5.653
53522SOL    HW262406  13.033  12.175   5.684
53523SOL     OW62407   6.583  14.007   8.959
53523SOL    HW162408   6.601  13.974   9.047
53523SOL    HW262409   6.492  13.982   8.943
53524SOL     OW62410   3.344  13.861  12.635
53524SOL    HW162411   3.310  13.908  12.559
53524SOL    HW262412   3.334  13.922  12.708
53525SOL     OW62413   7.598  13.778   2.092
53525SOL    HW162414   7.602  13.855   2.149
53525SOL    HW262415   7.615  13.812   2.005
53526SOL     OW62416   1.293   1.579   4.993
53526SOL    HW162417   1.228   1.628   4.943
53526SOL    HW262418   1.377   1.608   4.960
53527SOL     OW62419   4.515   2.595   1.190
53527SOL    HW162420   4.526   2.655   1.117
53527SOL    HW262421   4.513   2.508   1.150
53528SOL     OW62422   2.597   2.043  10.216
53528SOL    HW162423   2.625   1.971  10.159
53528SOL    HW262424   2.679   2.077  10.254
53529SOL     OW62425   0.060   4.023   4.367
53529SOL    HW162426   0.140   4.068   4.339
53529SOL    HW262427   0.091   3.938   4.399
53530SOL     OW62428  10.538  11.888  11.416
53530SOL    HW162429  10.512  11.916  11.503
53530SOL    HW262430  10.481  11.815  11.395
53531SOL     OW62431   1.165   5.254   5.472
53531SOL    HW162432   1.101   5.325   5.469
53531SOL    HW262433   1.126   5.185   5.418
53532SOL     OW62434   8.926   8.902   1.125
53532SOL    HW162435   9.020   8.910   1.142
53532SOL    HW262436   8.889   8.986   1.153
53533SOL     OW62437   4.605   7.766   5.682
53533SOL    HW162438   4.543   7.744   5.751
53533SOL    HW262439   4.629   7.857   5.700
53534SOL     OW62440   2.836   7.676   0.296
53534SOL    HW162441   2.786   7.757   0.288
53534SOL    HW262442   2.836   7.639   0.208
53535SOL     OW62443   6.367   9.304   5.697
53535SOL    HW162444   6.417   9.277   5.775
53535SOL    HW262445   6.304   9.233   5.684
53536SOL     OW62446   1.286   2.766   3.471
53536SOL    HW162447   1.333   2.723   3.542
53536SOL    HW262448   1.204   2.717   3.464
53537SOL     OW62449   1.051   0.370   5.538
53537SOL    HW162450   1.133   0.369   5.487
53537SOL    HW262451   1.051   0.455   5.582
53538SOL     OW62452   7.542  11.243   2.604
53538SOL    HW162453   7.479  11.312   2.583
53538SOL    HW262454   7.488  11.165   2.615
53539SOL     OW62455  11.539  11.088  10.463
53539SOL    HW162456  11.542  11.177  10.427
53539SOL    HW262457  11.450  11.058  10.444
53540SOL     OW62458   7.735   6.854  11.611
53540SOL    HW162459   7.726   6.949  11.620
53540SOL    HW262460   7.674   6.818  11.675
53541SOL     OW62461  10.380   8.264   4.814
53541SOL    HW162462  10.355   8.351   4.784
53541SOL    HW262463  10.473   8.272   4.836
53542SOL     OW62464  10.676   0.304   5.593
53542SOL    HW162465  10.726   0.245   5.536
53542SOL    HW262466  10.695   0.392   5.560
53543SOL     OW62467   0.632   4.452  13.855
53543SOL    HW162468   0.538   4.441  13.869
53543SOL    HW262469   0.645   4.429  13.764
53544SOL     OW62470   8.472  13.011   1.701
53544SOL    HW162471   8.382  12.988   1.726
53544SOL    HW262472   8.465  13.099   1.665
53545SOL     OW62473   7.197  11.110  13.112
53545SOL    HW162474   7.204  11.206  13.111
53545SOL    HW262475   7.228  11.085  13.198
53546SOL     OW62476   4.236   4.529  12.170
53546SOL    HW162477   4.295   4.601  12.149
53546SOL    HW262478   4.269   4.495  12.253
53547SOL     OW62479   9.289   2.353  11.552
53547SOL    HW162480   9.371   2.392  11.582
53547SOL    HW262481   9.243   2.424  11.507
53548SOL     OW62482   1.232  12.104   6.514
53548SOL    HW162483   1.246  12.105   6.609
53548SOL    HW262484   1.303  12.157   6.479
53549SOL     OW62485  13.852   3.511   9.138
53549SOL    HW162486  13.931   3.483   9.091
53549SOL    HW262487  13.883   3.572   9.205
53550SOL     OW62488   7.089  12.262  13.874
53550SOL    HW162489   7.148  12.187  13.870
53550SOL    HW262490   7.033  12.253  13.797
53551SOL     OW62491   8.924   2.395   5.866
53551SOL    HW162492   8.925   2.478   5.913
53551SOL    HW262493   8.831   2.379   5.848
53552SOL     OW62494   6.081  11.727   7.191
53552SOL    HW162495   6.058  11.641   7.156
53552SOL    HW262496   6.144  11.709   7.260
53553SOL     OW62497   1.680   3.355   5.061
53553SOL    HW162498   1.667   3.324   4.971
53553SOL    HW262499   1.747   3.296   5.097
53554SOL     OW62500  13.484   6.466   2.361
53554SOL    HW162501  13.528   6.403   2.417
53554SOL    HW262502  13.551   6.529   2.337
53555SOL     OW62503   2.983   8.472   0.588
53555SOL    HW162504   3.048   8.442   0.652
53555SOL    HW262505   2.940   8.391   0.559
53556SOL     OW62506  14.739  11.435  13.882
53556SOL    HW162507  14.725  11.487  13.803
53556SOL    HW262508  14.752  11.346  13.851
53557SOL     OW62509   2.334   3.378   5.102
53557SOL    HW162510   2.277   3.301   5.106
53557SOL    HW262511   2.372   3.383   5.190
53558SOL     OW62512  11.590  10.914   4.900
53558SOL    HW162513  11.593  10.891   4.993
53558SOL    HW262514  11.588  10.830   4.855
53559SOL     OW62515   2.309   3.642  14.523
53559SOL    HW162516   2.290   3.736  14.527
53559SOL    HW262517   2.254   3.603  14.591
53560SOL     OW62518   1.087  12.815   8.185
53560SOL    HW162519   1.032  12.750   8.228
53560SOL    HW262520   1.170  12.770   8.169
53561SOL     OW62521  13.855   9.981   7.993
53561SOL    HW162522  13.783   9.989   8.056
53561SOL    HW262523  13.931  10.018   8.039
53562SOL     OW62524   0.904  10.838   8.357
53562SOL    HW162525   0.811  10.860   8.366
53562SOL    HW262526   0.905  10.743   8.345
53563SOL     OW62527   9.929   8.069   1.871
53563SOL    HW162528   9.835   8.079   1.856
53563SOL    HW262529   9.938   8.066   1.966
53564SOL     OW62530   1.893  14.805   7.062
53564SOL    HW162531   1.934  14.799   7.148
53564SOL    HW262532   1.965  14.793   7.000
53565SOL     OW62533  12.435   7.618  10.601
53565SOL    HW162534  12.385   7.613  10.682
53565SOL    HW262535  12.468   7.529  10.588
53566SOL     OW62536   6.861   0.311   8.754
53566SOL    HW162537   6.876   0.312   8.660
53566SOL    HW262538   6.788   0.250   8.766
53567SOL     OW62539  11.673   1.692  14.780
53567SOL    HW162540  11.673   1.740  14.697
53567SOL    HW262541  11.754   1.640  14.778
53568SOL     OW62542   5.738  10.179  14.064
53568SOL    HW162543   5.768  10.091  14.043
53568SOL    HW262544   5.793  10.207  14.137
53569SOL     OW62545  12.408  12.940  10.219
53569SOL    HW162546  12.320  12.967  10.192
53569SOL    HW262547  12.455  12.924  10.138
53570SOL     OW62548   0.144   0.708   5.404
53570SOL    HW162549   0.080   0.639   5.423
53570SOL    HW262550   0.099   0.766   5.343
53571SOL     OW62551   9.941  13.201   0.627
53571SOL    HW162552   9.992  13.239   0.556
53571SOL    HW262553   9.854  13.186   0.588
53572SOL     OW62554   1.462   8.905   2.797
53572SOL    HW162555   1.492   8.880   2.885
53572SOL    HW262556   1.409   8.831   2.767
53573SOL     OW62557   8.240  12.883  13.557
53573SOL    HW162558   8.255  12.895  13.651
53573SOL    HW262559   8.149  12.909  13.543
53574SOL     OW62560   8.785   7.133   2.258
53574SOL    HW162561   8.847   7.176   2.317
53574SOL    HW262562   8.721   7.202   2.237
53575SOL     OW62563   8.904   3.941   9.919
53575SOL    HW162564   8.814   3.974   9.925
53575SOL    HW262565   8.959   4.016   9.938
53576SOL     OW62566   7.646   3.412  11.414
53576SOL    HW162567   7.562   3.403  11.460
53576SOL    HW262568   7.681   3.496  11.443
53577SOL     OW62569   5.469   0.703  12.293
53577SOL    HW162570   5.564   0.691  12.297
53577SOL    HW262571   5.435   0.617  12.270
53578SOL     OW62572   4.982   3.341  12.262
53578SOL    HW162573   5.018   3.363  12.176
53578SOL    HW262574   5.058   3.322  12.316
53579SOL     OW62575   4.533   3.202  12.737
53579SOL    HW162576   4.497   3.276  12.785
53579SOL    HW262577   4.526   3.226  12.645
53580SOL     OW62578  10.298   2.950  13.545
53580SOL    HW162579  10.227   2.921  13.602
53580SOL    HW262580  10.289   2.896  13.466
53581SOL     OW62581   8.706   5.725   3.461
53581SOL    HW162582   8.792   5.765   3.447
53581SOL    HW262583   8.719   5.634   3.435
53582SOL     OW62584  14.586   8.422  11.491
53582SOL    HW162585  14.496   8.453  11.478
53582SOL    HW262586  14.606   8.371  11.413
53583SOL     OW62587   6.966   4.937  10.685
53583SOL    HW162588   7.034   4.946  10.752
53583SOL    HW262589   6.930   5.026  10.676
53584SOL     OW62590   6.705  14.823   5.431
53584SOL    HW162591   6.783  14.854   5.477
53584SOL    HW262592   6.721  14.848   5.340
53585SOL     OW62593  12.539   5.082   5.893
53585SOL    HW162594  12.486   5.005   5.870
53585SOL    HW262595  12.504   5.110   5.978
53586SOL     OW62596  14.544  10.853   9.520
53586SOL    HW162597  14.534  10.817   9.608
53586SOL    HW262598  14.633  10.890   9.519
53587SOL     OW62599  12.144   2.352   7.070
53587SOL    HW162600  12.119   2.419   7.007
53587SOL    HW262601  12.061   2.318   7.103
53588SOL     OW62602   4.053   0.015  13.570
53588SOL    HW162603   4.065  14.796  13.571
53588SOL    HW262604   4.127   0.048  13.520
53589SOL     OW62605   3.529   1.361  11.902
53589SOL    HW162606   3.475   1.292  11.862
53589SOL    HW262607   3.535   1.336  11.994
53590SOL     OW62608   6.107   6.859  12.709
53590SOL    HW162609   6.113   6.912  12.788
53590SOL    HW262610   6.089   6.923  12.639
53591SOL     OW62611   9.311   7.680   7.056
53591SOL    HW162612   9.341   7.597   7.091
53591SOL    HW262613   9.302   7.737   7.133
53592SOL     OW62614   1.225  13.142   9.782
53592SOL    HW162615   1.296  13.118   9.722
53592SOL    HW262616   1.269  13.160   9.865
53593SOL     OW62617   2.286  13.985  10.313
53593SOL    HW162618   2.374  14.010  10.339
53593SOL    HW262619   2.233  13.997  10.391
53594SOL     OW62620   3.482   3.618   8.418
53594SOL    HW162621   3.537   3.673   8.363
53594SOL    HW262622   3.508   3.639   8.508
53595SOL     OW62623  12.076  12.610   3.467
53595SOL    HW162624  12.135  12.558   3.521
53595SOL    HW262625  12.128  12.685   3.439
53596SOL     OW62626   3.272   1.878   4.199
53596SOL    HW162627   3.251   1.785   4.186
53596SOL    HW262628   3.288   1.886   4.293
53597SOL     OW62629   7.789   8.125   1.801
53597SOL    HW162630   7.725   8.056   1.782
53597SOL    HW262631   7.817   8.108   1.891
53598SOL     OW62632   0.615  10.921  10.357
53598SOL    HW162633   0.571  10.934  10.441
53598SOL    HW262634   0.575  10.842  10.321
53599SOL     OW62635   9.263   6.733   9.568
53599SOL    HW162636   9.317   6.719   9.491
53599SOL    HW262637   9.317   6.702   9.641
53600SOL     OW62638   7.521  10.811  12.649
53600SOL    HW162639   7.544  10.728  12.606
53600SOL    HW262640   7.443  10.841  12.603
53601SOL     OW62641   0.713   9.455   2.486
53601SOL    HW162642   0.632   9.467   2.437
53601SOL    HW262643   0.743   9.543   2.507
53602SOL     OW62644  11.192   8.500   1.456
53602SOL    HW162645  11.126   8.448   1.502
53602SOL    HW262646  11.196   8.582   1.504
53603SOL     OW62647   7.763   9.466  10.312
53603SOL    HW162648   7.823   9.440  10.382
53603SOL    HW262649   7.819   9.474  10.235
53604SOL     OW62650   2.381  13.484   6.616
53604SOL    HW162651   2.373  13.577   6.597
53604SOL    HW262652   2.304  13.444   6.577
53605SOL     OW62653   6.435   3.793   7.772
53605SOL    HW162654   6.360   3.853   7.774
53605SOL    HW262655   6.421   3.739   7.694
53606SOL     OW62656  14.589   7.457   2.566
53606SOL    HW162657  14.674   7.423   2.594
53606SOL    HW262658  14.611   7.522   2.498
53607SOL     OW62659  11.109  12.162   2.913
53607SOL    HW162660  11.057  12.163   2.994
53607SOL    HW262661  11.046  12.136   2.845
53608SOL     OW62662   9.934   4.947  11.183
53608SOL    HW162663   9.923   4.909  11.270
53608SOL    HW262664  10.008   4.900  11.145
53609SOL     OW62665   4.964   0.677   0.441
53609SOL    HW162666   4.955   0.610   0.509
53609SOL    HW262667   4.877   0.718   0.437
53610SOL     OW62668   9.912   6.460  11.977
53610SOL    HW162669   9.901   6.428  12.067
53610SOL    HW262670   9.961   6.541  11.986
53611SOL     OW62671   3.228   5.784  11.491
53611SOL    HW162672   3.302   5.748  11.442
53611SOL    HW262673   3.261   5.866  11.526
53612SOL     OW62674  11.605  12.061   5.874
53612SOL    HW162675  11.622  11.969   5.853
53612SOL    HW262676  11.661  12.109   5.813
53613SOL     OW62677   0.538   1.048   8.674
53613SOL    HW162678   0.626   1.069   8.704
53613SOL    HW262679   0.534   1.081   8.584
53614SOL     OW62680   3.091  11.154   0.005
53614SOL    HW162681   3.061  11.236   0.043
53614SOL    HW262682   3.164  11.178  14.825
53615SOL     OW62683  13.168   8.613  11.343
53615SOL    HW162684  13.179   8.638  11.435
53615SOL    HW262685  13.257   8.601  11.311
53616SOL     OW62686   3.114   5.892   7.566
53616SOL    HW162687   3.172   5.837   7.618
53616SOL    HW262688   3.172   5.935   7.503
53617SOL     OW62689  12.290  12.340   7.441
53617SOL    HW162690  12.366  12.313   7.388
53617SOL    HW262691  12.214  12.311   7.390
53618SOL     OW62692   1.015   7.979   8.675
53618SOL    HW162693   1.063   8.026   8.607
53618SOL    HW262694   1.039   8.023   8.757
53619SOL     OW62695  14.349   3.654   7.952
53619SOL    HW162696  14.371   3.569   7.914
53619SOL    HW262697  14.390   3.718   7.893
53620SOL     OW62698  14.669  13.978  11.798
53620SOL    HW162699  14.574  13.988  11.797
53620SOL    HW262700  14.690  13.944  11.711
53621SOL     OW62701   9.099   8.134   7.131
53621SOL    HW162702   9.073   8.107   7.219
53621SOL    HW262703   9.054   8.071   7.073
53622SOL     OW62704   3.927   5.778   3.479
53622SOL    HW162705   3.884   5.757   3.396
53622SOL    HW262706   4.014   5.808   3.454
53623SOL     OW62707   5.733   5.148  11.985
53623SOL    HW162708   5.766   5.089  11.917
53623SOL    HW262709   5.725   5.233  11.940
53624SOL     OW62710   7.753  11.595   9.435
53624SOL    HW162711   7.783  11.671   9.485
53624SOL    HW262712   7.832  11.561   9.393
53625SOL     OW62713  11.303   7.464  12.747
53625SOL    HW162714  11.317   7.482  12.840
53625SOL    HW262715  11.217   7.502  12.728
53626SOL     OW62716   1.043  13.319  14.361
53626SOL    HW162717   1.065  13.396  14.413
53626SOL    HW262718   1.126  13.272  14.350
53627SOL     OW62719  10.272  12.231   1.884
53627SOL    HW162720  10.350  12.241   1.828
53627SOL    HW262721  10.251  12.138   1.880
53628SOL     OW62722   2.525   4.447  10.171
53628SOL    HW162723   2.584   4.415  10.102
53628SOL    HW262724   2.506   4.537  10.146
53629SOL     OW62725  13.460   5.224  12.694
53629SOL    HW162726  13.504   5.307  12.716
53629SOL    HW262727  13.366   5.244  12.701
53630SOL     OW62728   5.167  10.490   2.684
53630SOL    HW162729   5.244  10.440   2.658
53630SOL    HW262730   5.101  10.423   2.705
53631SOL     OW62731  14.502   8.644   9.483
53631SOL    HW162732  14.415   8.604   9.475
53631SOL    HW262733  14.557   8.595   9.422
53632SOL     OW62734   7.437  13.655   3.773
53632SOL    HW162735   7.436  13.594   3.847
53632SOL    HW262736   7.423  13.599   3.696
53633SOL     OW62737   8.055  14.259  14.678
53633SOL    HW162738   7.990  14.260  14.608
53633SOL    HW262739   8.035  14.181  14.729
53634SOL     OW62740  12.666   5.708   4.959
53634SOL    HW162741  12.626   5.770   5.020
53634SOL    HW262742  12.759   5.730   4.959
53635SOL     OW62743   1.605  10.463   3.613
53635SOL    HW162744   1.653  10.394   3.660
53635SOL    HW262745   1.657  10.478   3.534
53636SOL     OW62746   7.906   3.032  11.193
53636SOL    HW162747   7.890   3.124  11.214
53636SOL    HW262748   7.819   2.993  11.189
53637SOL     OW62749   3.497   8.616   2.723
53637SOL    HW162750   3.532   8.551   2.784
53637SOL    HW262751   3.422   8.573   2.683
53638SOL     OW62752  12.180   8.199   5.284
53638SOL    HW162753  12.104   8.140   5.281
53638SOL    HW262754  12.254   8.141   5.303
53639SOL     OW62755  11.176   0.849   2.693
53639SOL    HW162756  11.250   0.903   2.721
53639SOL    HW262757  11.121   0.910   2.644
53640SOL     OW62758  14.721   6.269  11.106
53640SOL    HW162759  14.682   6.342  11.059
53640SOL    HW262760  14.708   6.194  11.048
53641SOL     OW62761   7.542   1.919   5.128
53641SOL    HW162762   7.509   1.979   5.061
53641SOL    HW262763   7.538   1.832   5.087
53642SOL     OW62764  12.715  13.233  11.248
53642SOL    HW162765  12.728  13.328  11.240
53642SOL    HW262766  12.675  13.207  11.165
53643SOL     OW62767   1.781   6.178   7.889
53643SOL    HW162768   1.771   6.185   7.794
53643SOL    HW262769   1.753   6.089   7.910
53644SOL     OW62770   5.833   2.164   8.008
53644SOL    HW162771   5.793   2.164   7.921
53644SOL    HW262772   5.897   2.093   8.005
53645SOL     OW62773   5.547   3.098   4.495
53645SOL    HW162774   5.632   3.131   4.525
53645SOL    HW262775   5.521   3.035   4.562
53646SOL     OW62776   2.913   9.742   7.830
53646SOL    HW162777   2.882   9.657   7.799
53646SOL    HW262778   2.854   9.764   7.902
53647SOL     OW62779   7.585   6.773   4.384
53647SOL    HW162780   7.625   6.828   4.317
53647SOL    HW262781   7.512   6.730   4.340
53648SOL     OW62782  12.106   3.135   5.532
53648SOL    HW162783  12.061   3.192   5.594
53648SOL    HW262784  12.037   3.095   5.480
53649SOL     OW62785  12.155   7.541  14.744
53649SOL    HW162786  12.159   7.455  14.786
53649SOL    HW262787  12.154   7.604  14.817
53650SOL     OW62788   4.587   3.272  11.880
53650SOL    HW162789   4.532   3.268  11.802
53650SOL    HW262790   4.674   3.294  11.847
53651SOL     OW62791  13.563   1.575  14.854
53651SOL    HW162792  13.533   1.661  14.825
53651SOL    HW262793  13.658   1.578  14.845
53652SOL     OW62794  10.066   4.822   5.197
53652SOL    HW162795  10.122   4.744   5.202
53652SOL    HW262796  10.037   4.836   5.287
53653SOL     OW62797  12.997  11.414  14.046
53653SOL    HW162798  12.959  11.334  14.009
53653SOL    HW262799  12.925  11.454  14.095
53654SOL     OW62800  11.150   8.209   8.256
53654SOL    HW162801  11.095   8.232   8.181
53654SOL    HW262802  11.151   8.113   8.257
53655SOL     OW62803   2.503   5.571  12.600
53655SOL    HW162804   2.408   5.581  12.609
53655SOL    HW262805   2.537   5.576  12.689
53656SOL     OW62806   8.245  13.025  12.900
53656SOL    HW162807   8.156  13.060  12.892
53656SOL    HW262808   8.239  12.962  12.972
53657SOL     OW62809  12.391   2.397   1.926
53657SOL    HW162810  12.472   2.348   1.940
53657SOL    HW262811  12.339   2.383   2.005
53658SOL     OW62812   4.381   7.660   1.873
53658SOL    HW162813   4.424   7.647   1.788
53658SOL    HW262814   4.392   7.753   1.892
53659SOL     OW62815   0.587  11.740   8.159
53659SOL    HW162816   0.557  11.820   8.203
53659SOL    HW262817   0.548  11.745   8.072
53660SOL     OW62818   5.182   1.684   9.341
53660SOL    HW162819   5.118   1.661   9.274
53660SOL    HW262820   5.164   1.776   9.361
53661SOL     OW62821  12.490   7.252   9.181
53661SOL    HW162822  12.516   7.287   9.096
53661SOL    HW262823  12.535   7.307   9.245
53662SOL     OW62824  10.918   5.152   0.029
53662SOL    HW162825  10.878   5.204  14.837
53662SOL    HW262826  10.947   5.072  14.862
53663SOL     OW62827   5.128   2.749  11.747
53663SOL    HW162828   5.064   2.815  11.720
53663SOL    HW262829   5.110   2.734  11.840
53664SOL     OW62830  10.796  13.966   4.832
53664SOL    HW162831  10.722  13.917   4.796
53664SOL    HW262832  10.774  13.978   4.925
53665SOL     OW62833   4.602  12.782  13.710
53665SOL    HW162834   4.506  12.777  13.716
53665SOL    HW262835   4.632  12.699  13.748
53666SOL     OW62836  10.471   9.642  10.258
53666SOL    HW162837  10.448   9.730  10.288
53666SOL    HW262838  10.546   9.655  10.200
53667SOL     OW62839   5.370   2.710   8.250
53667SOL    HW162840   5.343   2.687   8.338
53667SOL    HW262841   5.460   2.678   8.243
53668SOL     OW62842  12.983   1.420   5.929
53668SOL    HW162843  13.058   1.480   5.929
53668SOL    HW262844  12.910   1.475   5.899
53669SOL     OW62845  10.107   7.291  13.472
53669SOL    HW162846  10.022   7.335  13.466
53669SOL    HW262847  10.096   7.227  13.542
53670SOL     OW62848   0.627   2.360  10.006
53670SOL    HW162849   0.573   2.396  10.076
53670SOL    HW262850   0.717   2.367  10.039
53671SOL     OW62851  14.489   8.021   8.415
53671SOL    HW162852  14.516   7.943   8.463
53671SOL    HW262853  14.560   8.084   8.430
53672SOL     OW62854   9.319  12.203  10.689
53672SOL    HW162855   9.345  12.245  10.607
53672SOL    HW262856   9.318  12.275  10.753
53673SOL     OW62857   1.168  13.164   4.811
53673SOL    HW162858   1.255  13.167   4.849
53673SOL    HW262859   1.180  13.126   4.724
53674SOL     OW62860   5.175   2.023  10.413
53674SOL    HW162861   5.159   1.930  10.399
53674SOL    HW262862   5.087   2.061  10.420
53675SOL     OW62863   5.071   5.959   7.919
53675SOL    HW162864   5.035   6.038   7.880
53675SOL    HW262865   5.166   5.966   7.905
53676SOL     OW62866   8.698   6.141  11.597
53676SOL    HW162867   8.707   6.228  11.558
53676SOL    HW262868   8.765   6.088  11.554
53677SOL     OW62869  11.084  11.076   9.092
53677SOL    HW162870  11.128  11.161   9.085
53677SOL    HW262871  11.124  11.023   9.023
53678SOL     OW62872  10.275   8.857  13.753
53678SOL    HW162873  10.352   8.905  13.783
53678SOL    HW262874  10.303   8.814  13.673
53679SOL     OW62875   2.301   2.836   2.334
53679SOL    HW162876   2.256   2.753   2.352
53679SOL    HW262877   2.238   2.904   2.361
53680SOL     OW62878   0.427  11.526  14.611
53680SOL    HW162879   0.413  11.467  14.537
53680SOL    HW262880   0.513  11.502  14.645
53681SOL     OW62881   7.082   2.228   6.736
53681SOL    HW162882   7.007   2.259   6.686
53681SOL    HW262883   7.131   2.307   6.759
53682SOL     OW62884   8.659   1.124  10.907
53682SOL    HW162885   8.637   1.160  10.993
53682SOL    HW262886   8.754   1.133  10.900
53683SOL     OW62887   9.550   8.459   1.467
53683SOL    HW162888   9.623   8.411   1.506
53683SOL    HW262889   9.472   8.427   1.513
53684SOL     OW62890   7.305  10.627  10.430
53684SOL    HW162891   7.376  10.563  10.424
53684SOL    HW262892   7.229  10.583  10.392
53685SOL     OW62893   7.936  11.475   0.131
53685SOL    HW162894   7.936  11.447   0.039
53685SOL    HW262895   7.995  11.414   0.175
53686SOL     OW62896  14.057   0.900   4.092
53686SOL    HW162897  13.965   0.921   4.076
53686SOL    HW262898  14.098   0.986   4.108
53687SOL     OW62899   6.434   0.691  13.662
53687SOL    HW162900   6.427   0.780  13.698
53687SOL    HW262901   6.464   0.704  13.572
53688SOL     OW62902  10.409   7.934  10.534
53688SOL    HW162903  10.445   7.908  10.618
53688SOL    HW262904  10.382   7.852  10.492
53689SOL     OW62905   4.072   7.280   4.423
53689SOL    HW162906   3.977   7.268   4.423
53689SOL    HW262907   4.087   7.355   4.481
53690SOL     OW62908  12.580   7.746   1.706
53690SOL    HW162909  12.585   7.667   1.760
53690SOL    HW262910  12.668   7.783   1.709
53691SOL     OW62911   2.917  14.156   6.994
53691SOL    HW162912   2.862  14.233   6.995
53691SOL    HW262913   2.910  14.119   7.082
53692SOL     OW62914   7.868  11.524   7.866
53692SOL    HW162915   7.939  11.472   7.904
53692SOL    HW262916   7.812  11.547   7.939
53693SOL     OW62917   4.932   5.781   0.364
53693SOL    HW162918   4.931   5.693   0.402
53693SOL    HW262919   4.980   5.835   0.427
53694SOL     OW62920  13.046   9.058   4.645
53694SOL    HW162921  13.023   8.966   4.648
53694SOL    HW262922  13.092   9.070   4.562
53695SOL     OW62923   6.421  13.764   0.045
53695SOL    HW162924   6.479  13.724   0.110
53695SOL    HW262925   6.382  13.839   0.091
53696SOL     OW62926   8.571  12.688  10.528
53696SOL    HW162927   8.617  12.746  10.468
53696SOL    HW262928   8.634  12.674  10.600
53697SOL     OW62929  14.790   5.340   9.604
53697SOL    HW162930  14.697   5.365   9.596
53697SOL    HW262931  14.792   5.247   9.582
53698SOL     OW62932   9.869  12.376  10.520
53698SOL    HW162933   9.780  12.386  10.485
53698SOL    HW262934   9.884  12.282  10.520
53699SOL     OW62935   2.041   6.535  14.551
53699SOL    HW162936   1.983   6.458  14.555
53699SOL    HW262937   2.082   6.538  14.638
53700SOL     OW62938   0.071   2.275   6.388
53700SOL    HW162939   0.035   2.363   6.378
53700SOL    HW262940  14.874   2.217   6.364
53701SOL     OW62941  10.081  11.935   9.487
53701SOL    HW162942  10.096  12.015   9.538
53701SOL    HW262943  10.095  11.961   9.396
53702SOL     OW62944  14.494   4.468  12.812
53702SOL    HW162945  14.473   4.509  12.897
53702SOL    HW262946  14.519   4.541  12.756
53703SOL     OW62947   8.988   5.761   3.461
53703SOL    HW162948   9.010   5.850   3.488
53703SOL    HW262949   9.073   5.720   3.442
53704SOL     OW62950  12.985  12.760   3.638
53704SOL    HW162951  13.004  12.692   3.573
53704SOL    HW262952  13.069  12.804   3.653
53705SOL     OW62953   5.904   2.988   7.710
53705SOL    HW162954   5.844   2.975   7.784
53705SOL    HW262955   5.991   2.981   7.749
53706SOL     OW62956   9.339   0.524  11.464
53706SOL    HW162957   9.432   0.546  11.459
53706SOL    HW262958   9.333   0.460  11.535
53707SOL     OW62959   3.782   9.942   1.323
53707SOL    HW162960   3.804  10.031   1.353
53707SOL    HW262961   3.867   9.901   1.307
53708SOL     OW62962   1.331   5.619   3.600
53708SOL    HW162963   1.354   5.704   3.561
53708SOL    HW262964   1.337   5.557   3.528
53709SOL     OW62965  13.734   0.797  12.270
53709SOL    HW162966  13.643   0.821  12.286
53709SOL    HW262967  13.783   0.840  12.340
53710SOL     OW62968  12.012   6.126   4.985
53710SOL    HW162969  11.936   6.148   4.931
53710SOL    HW262970  12.029   6.206   5.035
53711SOL     OW62971   7.726   8.532   0.752
53711SOL    HW162972   7.758   8.524   0.662
53711SOL    HW262973   7.797   8.576   0.799
53712SOL     OW62974   0.431  13.799  12.453
53712SOL    HW162975   0.465  13.711  12.437
53712SOL    HW262976   0.336  13.790  12.443
53713SOL     OW62977   8.536  11.226  11.386
53713SOL    HW162978   8.627  11.252  11.398
53713SOL    HW262979   8.506  11.200  11.474
53714SOL     OW62980  14.629   7.300   8.242
53714SOL    HW162981  14.587   7.217   8.220
53714SOL    HW262982  14.721   7.287   8.218
53715SOL     OW62983  12.629   7.243  13.001
53715SOL    HW162984  12.620   7.217  12.909
53715SOL    HW262985  12.715   7.284  13.007
53716SOL     OW62986  10.229   2.090  11.473
53716SOL    HW162987  10.155   2.141  11.502
53716SOL    HW262988  10.258   2.133  11.392
53717SOL     OW62989   4.939   9.268   0.036
53717SOL    HW162990   4.867   9.280  14.850
53717SOL    HW262991   5.009   9.324   0.003
53718SOL     OW62992   0.129  12.842   7.470
53718SOL    HW162993   0.122  12.846   7.374
53718SOL    HW262994   0.125  12.934   7.497
53719SOL     OW62995  10.303   6.036   8.645
53719SOL    HW162996  10.241   6.021   8.574
53719SOL    HW262997  10.330   6.128   8.635
53720SOL     OW62998   4.806   1.200  10.585
53720SOL    HW162999   4.753   1.123  10.607
53720SOL    HW263000   4.747   1.274  10.600
53721SOL     OW63001   5.241   5.195  13.712
53721SOL    HW163002   5.312   5.238  13.760
53721SOL    HW263003   5.187   5.155  13.780
53722SOL     OW63004  13.206  11.140  10.884
53722SOL    HW163005  13.122  11.127  10.928
53722SOL    HW263006  13.250  11.055  10.891
53723SOL     OW63007  11.409   1.778  12.130
53723SOL    HW163008  11.345   1.711  12.155
53723SOL    HW263009  11.362   1.833  12.068
53724SOL     OW63010   0.946  14.352   9.112
53724SOL    HW163011   0.974  14.364   9.021
53724SOL    HW263012   0.860  14.309   9.105
53725SOL     OW63013   1.660   2.536   2.073
53725SOL    HW163014   1.669   2.602   2.005
53725SOL    HW263015   1.671   2.453   2.027
53726SOL     OW63016   4.135   0.470   1.843
53726SOL    HW163017   4.148   0.544   1.901
53726SOL    HW263018   4.093   0.507   1.765
53727SOL     OW63019  14.674  11.007  12.259
53727SOL    HW163020  14.622  10.940  12.214
53727SOL    HW263021  14.762  10.968  12.264
53728SOL     OW63022   9.465  14.701   4.613
53728SOL    HW163023   9.397  14.702   4.679
53728SOL    HW263024   9.535  14.648   4.652
53729SOL     OW63025   0.955   5.483  14.824
53729SOL    HW163026   0.866   5.452  14.812
53729SOL    HW263027   0.982   5.516  14.738
53730SOL     OW63028   7.954   0.377  11.266
53730SOL    HW163029   7.963   0.325  11.345
53730SOL    HW263030   7.923   0.315  11.199
53731SOL     OW63031   2.043   4.680   8.509
53731SOL    HW163032   2.036   4.669   8.604
53731SOL    HW263033   1.972   4.627   8.473
53732SOL     OW63034   7.783   9.769   0.201
53732SOL    HW163035   7.872   9.780   0.234
53732SOL    HW263036   7.728   9.798   0.274
53733SOL     OW63037   1.910   9.714   1.447
53733SOL    HW163038   1.944   9.628   1.422
53733SOL    HW263039   1.815   9.705   1.438
53734SOL     OW63040   2.818  14.184   4.098
53734SOL    HW163041   2.850  14.226   4.018
53734SOL    HW263042   2.770  14.253   4.144
53735SOL     OW63043   8.629  13.518   5.836
53735SOL    HW163044   8.550  13.488   5.791
53735SOL    HW263045   8.597  13.560   5.916
53736SOL     OW63046  10.793   1.573   6.890
53736SOL    HW163047  10.831   1.487   6.906
53736SOL    HW263048  10.762   1.570   6.800
53737SOL     OW63049   2.234  11.424  11.412
53737SOL    HW163050   2.230  11.474  11.494
53737SOL    HW263051   2.327  11.404  11.401
53738SOL     OW63052   2.647   0.980  14.052
53738SOL    HW163053   2.571   0.962  14.108
53738SOL    HW263054   2.714   1.012  14.113
53739SOL     OW63055   3.495  10.171  13.531
53739SOL    HW163056   3.573  10.166  13.585
53739SOL    HW263057   3.521  10.223  13.455
53740SOL     OW63058   1.535   9.290   5.744
53740SOL    HW163059   1.498   9.234   5.812
53740SOL    HW263060   1.459   9.335   5.706
53741SOL     OW63061   5.886   1.192  13.452
53741SOL    HW163062   5.818   1.258  13.471
53741SOL    HW263063   5.903   1.201  13.359
53742SOL     OW63064  10.374   5.971   4.298
53742SOL    HW163065  10.464   5.950   4.272
53742SOL    HW263066  10.325   5.891   4.279
53743SOL     OW63067   6.752  11.011  13.223
53743SOL    HW163068   6.789  10.983  13.307
53743SOL    HW263069   6.759  10.933  13.167
53744SOL     OW63070   3.745   9.068  12.048
53744SOL    HW163071   3.657   9.047  12.015
53744SOL    HW263072   3.775   8.987  12.089
53745SOL     OW63073   3.110  13.654  10.066
53745SOL    HW163074   3.143  13.581  10.119
53745SOL    HW263075   3.015  13.647  10.071
53746SOL     OW63076   8.746  14.830   7.695
53746SOL    HW163077   8.790  14.746   7.707
53746SOL    HW263078   8.727  14.860   7.784
53747SOL     OW63079   3.273   6.561   0.739
53747SOL    HW163080   3.240   6.523   0.657
53747SOL    HW263081   3.273   6.487   0.801
53748SOL     OW63082  13.804   9.640  14.058
53748SOL    HW163083  13.890   9.663  14.095
53748SOL    HW263084  13.819   9.640  13.963
53749SOL     OW63085   7.240   3.562  12.605
53749SOL    HW163086   7.271   3.642  12.648
53749SOL    HW263087   7.154   3.545  12.644
53750SOL     OW63088   1.736   1.666   9.221
53750SOL    HW163089   1.794   1.713   9.281
53750SOL    HW263090   1.779   1.672   9.136
53751SOL     OW63091  10.444   8.638  12.738
53751SOL    HW163092  10.416   8.548  12.751
53751SOL    HW263093  10.365   8.684  12.711
53752SOL     OW63094  11.641   0.370  11.514
53752SOL    HW163095  11.682   0.441  11.465
53752SOL    HW263096  11.608   0.413  11.593
53753SOL     OW63097   3.687   5.322   3.663
53753SOL    HW163098   3.667   5.228   3.659
53753SOL    HW263099   3.673   5.345   3.755
53754SOL     OW63100  11.069  10.485   5.607
53754SOL    HW163101  11.086  10.526   5.522
53754SOL    HW263102  11.152  10.443   5.631
53755SOL     OW63103   9.490   2.517  12.613
53755SOL    HW163104   9.446   2.598  12.640
53755SOL    HW263105   9.583   2.534  12.624
53756SOL     OW63106   6.152   4.253  10.266
53756SOL    HW163107   6.069   4.224  10.228
53756SOL    HW263108   6.219   4.212  10.213
53757SOL     OW63109   5.427   9.598  11.169
53757SOL    HW163110   5.447   9.531  11.104
53757SOL    HW263111   5.426   9.552  11.253
53758SOL     OW63112   8.423   5.398   5.597
53758SOL    HW163113   8.350   5.458   5.612
53758SOL    HW263114   8.403   5.356   5.513
53759SOL     OW63115  14.244   7.706   2.511
53759SOL    HW163116  14.233   7.639   2.444
53759SOL    HW263117  14.243   7.789   2.463
53760SOL     OW63118   0.782   1.519   8.538
53760SOL    HW163119   0.698   1.489   8.573
53760SOL    HW263120   0.830   1.438   8.520
53761SOL     OW63121   2.019  13.313   8.749
53761SOL    HW163122   1.987  13.394   8.788
53761SOL    HW263123   1.985  13.314   8.660
53762SOL     OW63124  11.967   7.674  10.277
53762SOL    HW163125  12.061   7.661  10.289
53762SOL    HW263126  11.954   7.768  10.295
53763SOL     OW63127   4.648   1.009   4.509
53763SOL    HW163128   4.729   1.061   4.502
53763SOL    HW263129   4.678   0.919   4.519
53764SOL     OW63130   4.647  12.619   8.907
53764SOL    HW163131   4.561  12.577   8.899
53764SOL    HW263132   4.700  12.577   8.839
53765SOL     OW63133   6.400  12.244  14.836
53765SOL    HW163134   6.399  12.335  14.805
53765SOL    HW263135   6.314  12.232   0.000
53766SOL     OW63136   1.408   0.747  11.159
53766SOL    HW163137   1.313   0.741  11.145
53766SOL    HW263138   1.416   0.763  11.253
53767SOL     OW63139   8.284  11.415  11.639
53767SOL    HW163140   8.301  11.321  11.631
53767SOL    HW263141   8.202  11.420  11.689
53768SOL     OW63142  14.613  11.804   6.213
53768SOL    HW163143  14.573  11.834   6.132
53768SOL    HW263144  14.707  11.808   6.197
53769SOL     OW63145   3.819   8.817  11.782
53769SOL    HW163146   3.842   8.787  11.694
53769SOL    HW263147   3.726   8.793  11.792
53770SOL     OW63148   0.507   6.156  11.750
53770SOL    HW163149   0.446   6.137  11.679
53770SOL    HW263150   0.475   6.237  11.789
53771SOL     OW63151   8.077  13.276   3.540
53771SOL    HW163152   8.143  13.241   3.480
53771SOL    HW263153   8.066  13.208   3.606
53772SOL     OW63154   1.363   0.778  11.898
53772SOL    HW163155   1.326   0.768  11.985
53772SOL    HW263156   1.402   0.692  11.879
53773SOL     OW63157   5.082  12.317   7.736
53773SOL    HW163158   5.165  12.272   7.722
53773SOL    HW263159   5.081  12.388   7.672
53774SOL     OW63160   3.664   7.077   5.986
53774SOL    HW163161   3.750   7.119   5.981
53774SOL    HW263162   3.654   7.031   5.902
53775SOL     OW63163   5.702  13.848   4.523
53775SOL    HW163164   5.616  13.824   4.558
53775SOL    HW263165   5.739  13.765   4.492
53776SOL     OW63166   5.663   2.835   7.544
53776SOL    HW163167   5.634   2.890   7.617
53776SOL    HW263168   5.582   2.794   7.512
53777SOL     OW63169   2.964  10.879   3.366
53777SOL    HW163170   2.967  10.953   3.306
53777SOL    HW263171   3.041  10.827   3.344
53778SOL     OW63172  12.047   2.903  10.341
53778SOL    HW163173  12.088   2.990  10.338
53778SOL    HW263174  12.039   2.877  10.249
53779SOL     OW63175  14.275  11.680  12.956
53779SOL    HW163176  14.334  11.627  13.010
53779SOL    HW263177  14.187  11.654  12.983
53780SOL     OW63178   4.470   4.757   0.199
53780SOL    HW163179   4.488   4.695   0.128
53780SOL    HW263180   4.511   4.838   0.171
53781SOL     OW63181   0.006  14.670  13.530
53781SOL    HW163182   0.099  14.689  13.527
53781SOL    HW263183  14.840  14.756  13.524
53782SOL     OW63184  14.194   8.976   9.533
53782SOL    HW163185  14.218   9.065   9.509
53782SOL    HW263186  14.277   8.930   9.540
53783SOL     OW63187  13.758  12.237  14.780
53783SOL    HW163188  13.791  12.233  14.869
53783SOL    HW263189  13.696  12.310  14.780
53784SOL     OW63190  12.705   8.151  14.844
53784SOL    HW163191  12.737   8.185   0.052
53784SOL    HW263192  12.611   8.140  14.856
53785SOL     OW63193  13.734  11.789  13.460
53785SOL    HW163194  13.771  11.815  13.376
53785SOL    HW263195  13.808  11.756  13.510
53786SOL     OW63196   5.837  12.481   8.763
53786SOL    HW163197   5.918  12.459   8.715
53786SOL    HW263198   5.820  12.572   8.740
53787SOL     OW63199   8.300   7.919   8.259
53787SOL    HW163200   8.248   7.965   8.193
53787SOL    HW263201   8.267   7.829   8.256
53788SOL     OW63202   6.203  12.406   1.537
53788SOL    HW163203   6.144  12.474   1.503
53788SOL    HW263204   6.270  12.454   1.586
53789SOL     OW63205   3.318   4.892  11.419
53789SOL    HW163206   3.379   4.961  11.394
53789SOL    HW263207   3.242   4.938  11.455
53790SOL     OW63208   1.561  13.430   9.134
53790SOL    HW163209   1.491  13.365   9.135
53790SOL    HW263210   1.586  13.439   9.226
53791SOL     OW63211  11.109  13.167   5.970
53791SOL    HW163212  11.138  13.194   5.883
53791SOL    HW263213  11.047  13.235   5.996
53792SOL     OW63214   1.371   1.321  11.808
53792SOL    HW163215   1.294   1.332  11.864
53792SOL    HW263216   1.433   1.273  11.863
53793SOL     OW63217   4.634   2.074   5.731
53793SOL    HW163218   4.717   2.049   5.690
53793SOL    HW263219   4.589   1.991   5.745
53794SOL     OW63220   6.670   0.122   0.719
53794SOL    HW163221   6.592   0.122   0.774
53794SOL    HW263222   6.694   0.030   0.710
53795SOL     OW63223   8.223   2.311   1.671
53795SOL    HW163224   8.252   2.401   1.684
53795SOL    HW263225   8.178   2.312   1.586
53796SOL     OW63226  12.066  11.625  11.572
53796SOL    HW163227  11.988  11.572  11.585
53796SOL    HW263228  12.035  11.715  11.581
53797SOL     OW63229   1.604   3.644   1.572
53797SOL    HW163230   1.635   3.659   1.661
53797SOL    HW263231   1.609   3.731   1.531
53798SOL     OW63232  10.115   3.386   2.942
53798SOL    HW163233  10.053   3.447   2.902
53798SOL    HW263234  10.074   3.361   3.025
53799SOL     OW63235   7.805   5.140  10.870
53799SOL    HW163236   7.803   5.173  10.780
53799SOL    HW263237   7.848   5.209  10.920
53800SOL     OW63238   1.207  13.055   4.557
53800SOL    HW163239   1.116  13.027   4.549
53800SOL    HW263240   1.257  12.989   4.508
53801SOL     OW63241   2.422   6.261  13.597
53801SOL    HW163242   2.499   6.224  13.554
53801SOL    HW263243   2.424   6.354  13.574
53802SOL     OW63244  12.907   2.357   4.176
53802SOL    HW163245  12.813   2.369   4.190
53802SOL    HW263246  12.932   2.430   4.120
53803SOL     OW63247  11.085   8.007   1.289
53803SOL    HW163248  11.161   7.986   1.236
53803SOL    HW263249  11.011   7.968   1.242
53804SOL     OW63250   0.610   8.358  11.092
53804SOL    HW163251   0.571   8.399  11.169
53804SOL    HW263252   0.550   8.287  11.070
53805SOL     OW63253   2.760  12.455  10.788
53805SOL    HW163254   2.769  12.517  10.861
53805SOL    HW263255   2.667  12.436  10.784
53806SOL     OW63256   1.183  14.124   6.836
53806SOL    HW163257   1.151  14.147   6.749
53806SOL    HW263258   1.186  14.208   6.883
53807SOL     OW63259   5.571   1.096  12.596
53807SOL    HW163260   5.540   1.156  12.664
53807SOL    HW263261   5.568   1.009  12.637
53808SOL     OW63262   0.244   5.883   3.014
53808SOL    HW163263   0.168   5.936   2.990
53808SOL    HW263264   0.270   5.839   2.933
53809SOL     OW63265   2.578  11.262   5.265
53809SOL    HW163266   2.546  11.208   5.337
53809SOL    HW263267   2.664  11.226   5.244
53810SOL     OW63268   3.796   3.134  12.619
53810SOL    HW163269   3.724   3.073  12.608
53810SOL    HW263270   3.780   3.203  12.554
53811SOL     OW63271   9.609  10.578   8.349
53811SOL    HW163272   9.555  10.623   8.284
53811SOL    HW263273   9.554  10.507   8.382
53812SOL     OW63274   6.670   0.339   4.633
53812SOL    HW163275   6.643   0.430   4.618
53812SOL    HW263276   6.765   0.345   4.645
53813SOL     OW63277  10.137   3.370  14.610
53813SOL    HW163278  10.070   3.341  14.672
53813SOL    HW263279  10.090   3.429  14.551
53814SOL     OW63280   8.623   6.503  11.687
53814SOL    HW163281   8.670   6.472  11.609
53814SOL    HW263282   8.574   6.580  11.657
53815SOL     OW63283   0.947  13.115  13.200
53815SOL    HW163284   1.013  13.089  13.265
53815SOL    HW263285   0.959  13.209  13.190
53816SOL     OW63286   1.010   3.088   5.657
53816SOL    HW163287   0.932   3.059   5.705
53816SOL    HW263288   0.977   3.115   5.572
53817SOL     OW63289   5.577   0.391  11.472
53817SOL    HW163290   5.643   0.373  11.538
53817SOL    HW263291   5.590   0.323  11.406
53818SOL     OW63292   6.479  10.127   9.132
53818SOL    HW163293   6.476  10.038   9.097
53818SOL    HW263294   6.390  10.160   9.122
53819SOL     OW63295  13.906   9.842  14.291
53819SOL    HW163296  13.941   9.917  14.243
53819SOL    HW263297  13.816   9.833  14.258
53820SOL     OW63298  13.838   0.031   4.888
53820SOL    HW163299  13.868  14.830   4.936
53820SOL    HW263300  13.870   0.105   4.939
53821SOL     OW63301   9.222   0.172   7.939
53821SOL    HW163302   9.153   0.203   7.881
53821SOL    HW263303   9.200   0.080   7.957
53822SOL     OW63304   6.329   8.285   4.374
53822SOL    HW163305   6.342   8.303   4.467
53822SOL    HW263306   6.354   8.366   4.329
53823SOL     OW63307   2.822   3.094   4.352
53823SOL    HW163308   2.814   3.168   4.412
53823SOL    HW263309   2.911   3.060   4.367
53824SOL     OW63310   0.959  14.492  12.213
53824SOL    HW163311   0.953  14.457  12.302
53824SOL    HW263312   0.991  14.419  12.160
53825SOL     OW63313  11.711   8.878   1.694
53825SOL    HW163314  11.631   8.899   1.742
53825SOL    HW263315  11.701   8.925   1.611
53826SOL     OW63316   2.617   6.081   2.497
53826SOL    HW163317   2.608   6.175   2.505
53826SOL    HW263318   2.553   6.045   2.559
53827SOL     OW63319   9.735   7.129   5.619
53827SOL    HW163320   9.745   7.223   5.604
53827SOL    HW263321   9.651   7.120   5.663
53828SOL     OW63322   6.663   8.183   9.428
53828SOL    HW163323   6.750   8.192   9.387
53828SOL    HW263324   6.669   8.237   9.507
53829SOL     OW63325   7.639   7.385   4.571
53829SOL    HW163326   7.713   7.373   4.512
53829SOL    HW263327   7.674   7.364   4.658
53830SOL     OW63328  14.364   9.754   0.027
53830SOL    HW163329  14.345   9.764   0.120
53830SOL    HW263330  14.342   9.663   0.007
53831SOL     OW63331  12.635  13.450  10.704
53831SOL    HW163332  12.645  13.355  10.694
53831SOL    HW263333  12.552  13.460  10.752
53832SOL     OW63334  14.277   5.137   5.015
53832SOL    HW163335  14.311   5.226   5.025
53832SOL    HW263336  14.193   5.149   4.971
53833SOL     OW63337   6.991   1.514   4.958
53833SOL    HW163338   6.991   1.502   5.053
53833SOL    HW263339   7.021   1.429   4.923
53834SOL     OW63340   6.631   8.934   9.298
53834SOL    HW163341   6.621   8.901   9.387
53834SOL    HW263342   6.670   9.020   9.308
53835SOL     OW63343   0.378   0.471   6.093
53835SOL    HW163344   0.452   0.446   6.148
53835SOL    HW263345   0.319   0.519   6.151
53836SOL     OW63346  13.106  12.044  14.430
53836SOL    HW163347  13.024  12.084  14.402
53836SOL    HW263348  13.174  12.099  14.390
53837SOL     OW63349   8.968   6.476   4.146
53837SOL    HW163350   9.051   6.428   4.142
53837SOL    HW263351   8.950   6.501   4.055
53838SOL     OW63352   7.760   0.088   0.659
53838SOL    HW163353   7.838   0.125   0.618
53838SOL    HW263354   7.703   0.066   0.586
53839SOL     OW63355  10.635   1.741   2.186
53839SOL    HW163356  10.561   1.802   2.191
53839SOL    HW263357  10.594   1.655   2.177
53840SOL     OW63358   4.162   3.073   0.994
53840SOL    HW163359   4.190   3.006   0.932
53840SOL    HW263360   4.136   3.025   1.073
53841SOL     OW63361   3.762  13.954   1.698
53841SOL    HW163362   3.734  13.871   1.660
53841SOL    HW263363   3.733  13.950   1.789
53842SOL     OW63364   9.318   5.413   6.970
53842SOL    HW163365   9.275   5.368   6.898
53842SOL    HW263366   9.346   5.496   6.933
53843SOL     OW63367  12.572  12.914   9.996
53843SOL    HW163368  12.559  12.858   9.920
53843SOL    HW263369  12.591  13.001   9.960
53844SOL     OW63370  12.770   3.000   5.623
53844SOL    HW163371  12.675   2.997   5.633
53844SOL    HW263372  12.804   2.965   5.706
53845SOL     OW63373   1.165   2.403   5.214
53845SOL    HW163374   1.190   2.481   5.165
53845SOL    HW263375   1.110   2.353   5.153
53846SOL     OW63376   1.038   3.267   8.588
53846SOL    HW163377   0.948   3.285   8.615
53846SOL    HW263378   1.070   3.203   8.651
53847SOL     OW63379   9.662  10.031  13.832
53847SOL    HW163380   9.616  10.109  13.803
53847SOL    HW263381   9.648  10.027  13.927
53848SOL     OW63382   3.349  13.296  14.785
53848SOL    HW163383   3.306  13.330  14.864
53848SOL    HW263384   3.312  13.209  14.773
53849SOL     OW63385   2.371   3.957   2.542
53849SOL    HW163386   2.423   3.900   2.485
53849SOL    HW263387   2.367   4.040   2.496
53850SOL     OW63388  12.090   0.196  12.856
53850SOL    HW163389  12.141   0.275  12.839
53850SOL    HW263390  12.010   0.207  12.805
53851SOL     OW63391   8.556  14.163  12.956
53851SOL    HW163392   8.559  14.170  13.052
53851SOL    HW263393   8.609  14.236  12.926
53852SOL     OW63394  12.036   1.142   4.960
53852SOL    HW163395  12.110   1.096   4.999
53852SOL    HW263396  12.036   1.115   4.868
53853SOL     OW63397   6.109   2.412   1.179
53853SOL    HW163398   6.105   2.327   1.224
53853SOL    HW263399   6.194   2.448   1.203
53854SOL     OW63400  13.036   6.826   0.459
53854SOL    HW163401  13.084   6.827   0.542
53854SOL    HW263402  13.099   6.859   0.395
53855SOL     OW63403   6.263   5.697   0.033
53855SOL    HW163404   6.216   5.742  14.840
53855SOL    HW263405   6.195   5.667   0.093
53856SOL     OW63406  10.933   7.762   7.297
53856SOL    HW163407  11.002   7.733   7.237
53856SOL    HW263408  10.921   7.855   7.278
53857SOL     OW63409   6.633   9.652   1.933
53857SOL    HW163410   6.565   9.601   1.978
53857SOL    HW263411   6.700   9.667   2.000
53858SOL     OW63412   0.582   6.898  11.927
53858SOL    HW163413   0.524   6.960  11.971
53858SOL    HW263414   0.634   6.860  11.998
53859SOL     OW63415   5.359   2.550  12.438
53859SOL    HW163416   5.365   2.646  12.443
53859SOL    HW263417   5.450   2.520  12.450
53860SOL     OW63418   1.185   7.017   5.179
53860SOL    HW163419   1.209   6.977   5.263
53860SOL    HW263420   1.211   6.953   5.113
53861SOL     OW63421  14.387  12.919   8.202
53861SOL    HW163422  14.390  12.832   8.241
53861SOL    HW263423  14.372  12.904   8.109
53862SOL     OW63424   3.639   2.752   7.820
53862SOL    HW163425   3.624   2.810   7.746
53862SOL    HW263426   3.674   2.672   7.781
53863SOL     OW63427   1.375   9.935   4.123
53863SOL    HW163428   1.411  10.024   4.118
53863SOL    HW263429   1.451   9.878   4.129
53864SOL     OW63430   0.606   0.172   4.950
53864SOL    HW163431   0.513   0.194   4.956
53864SOL    HW263432   0.624   0.125   5.032
53865SOL     OW63433   7.011   6.042  13.246
53865SOL    HW163434   6.979   6.101  13.179
53865SOL    HW263435   7.093   6.082  13.276
53866SOL     OW63436   0.743   0.659   2.868
53866SOL    HW163437   0.833   0.629   2.860
53866SOL    HW263438   0.726   0.661   2.962
53867SOL     OW63439   5.561  11.767   9.472
53867SOL    HW163440   5.625  11.838   9.484
53867SOL    HW263441   5.605  11.689   9.507
53868SOL     OW63442   7.264   3.106   6.577
53868SOL    HW163443   7.205   3.180   6.594
53868SOL    HW263444   7.269   3.101   6.482
53869SOL     OW63445   0.209   5.957   9.378
53869SOL    HW163446   0.269   5.895   9.420
53869SOL    HW263447   0.132   5.905   9.357
53870SOL     OW63448   5.287   8.527  14.191
53870SOL    HW163449   5.267   8.588  14.120
53870SOL    HW263450   5.233   8.450  14.173
53871SOL     OW63451   6.019  11.283   0.538
53871SOL    HW163452   5.958  11.356   0.542
53871SOL    HW263453   6.098  11.321   0.499
53872SOL     OW63454  14.497   0.731   7.437
53872SOL    HW163455  14.416   0.770   7.470
53872SOL    HW263456  14.513   0.777   7.354
53873SOL     OW63457   6.117   4.193   3.572
53873SOL    HW163458   6.048   4.259   3.573
53873SOL    HW263459   6.161   4.206   3.487
53874SOL     OW63460   6.564  13.496  14.669
53874SOL    HW163461   6.654  13.505  14.638
53874SOL    HW263462   6.520  13.448  14.598
53875SOL     OW63463   3.471   4.770   8.902
53875SOL    HW163464   3.508   4.686   8.877
53875SOL    HW263465   3.538   4.834   8.876
53876SOL     OW63466  12.033   6.780  11.040
53876SOL    HW163467  12.127   6.773  11.057
53876SOL    HW263468  11.994   6.712  11.095
53877SOL     OW63469  13.545   5.741  11.397
53877SOL    HW163470  13.557   5.772  11.487
53877SOL    HW263471  13.630   5.752  11.356
53878SOL     OW63472   0.425   7.627   6.436
53878SOL    HW163473   0.498   7.617   6.374
53878SOL    HW263474   0.404   7.537   6.462
53879SOL     OW63475  13.541   1.572   3.527
53879SOL    HW163476  13.520   1.558   3.435
53879SOL    HW263477  13.494   1.652   3.551
53880SOL     OW63478  14.554   0.093   9.303
53880SOL    HW163479  14.488   0.023   9.306
53880SOL    HW263480  14.565   0.112   9.210
53881SOL     OW63481   6.172  10.525   6.823
53881SOL    HW163482   6.262  10.508   6.796
53881SOL    HW263483   6.170  10.502   6.916
53882SOL     OW63484  11.882  11.742  14.581
53882SOL    HW163485  11.867  11.759  14.488
53882SOL    HW263486  11.961  11.689  14.583
53883SOL     OW63487   5.185  13.699  10.580
53883SOL    HW163488   5.268  13.656  10.565
53883SOL    HW263489   5.133  13.634  10.629
53884SOL     OW63490  12.875  13.777  12.530
53884SOL    HW163491  12.828  13.817  12.456
53884SOL    HW263492  12.871  13.683  12.511
53885SOL     OW63493   7.441  12.951   2.323
53885SOL    HW163494   7.463  12.986   2.237
53885SOL    HW263495   7.522  12.909   2.353
53886SOL     OW63496  12.697   1.104   3.564
53886SOL    HW163497  12.619   1.055   3.540
53886SOL    HW263498  12.718   1.074   3.652
53887SOL     OW63499  12.265   7.036  13.854
53887SOL    HW163500  12.260   7.132  13.851
53887SOL    HW263501  12.256   7.015  13.947
53888SOL     OW63502   8.189   8.097   4.573
53888SOL    HW163503   8.120   8.161   4.555
53888SOL    HW263504   8.195   8.045   4.494
53889SOL     OW63505   3.337  12.386   7.546
53889SOL    HW163506   3.387  12.372   7.465
53889SOL    HW263507   3.267  12.446   7.520
53890SOL     OW63508  10.698  11.316  11.391
53890SOL    HW163509  10.612  11.338  11.427
53890SOL    HW263510  10.734  11.400  11.362
53891SOL     OW63511   4.355  10.345  10.230
53891SOL    HW163512   4.359  10.347  10.134
53891SOL    HW263513   4.321  10.431  10.255
53892SOL     OW63514   2.324   2.542   6.371
53892SOL    HW163515   2.260   2.533   6.300
53892SOL    HW263516   2.328   2.455   6.410
53893SOL     OW63517  11.324   5.600  10.198
53893SOL    HW163518  11.308   5.587  10.292
53893SOL    HW263519  11.417   5.622  10.193
53894SOL     OW63520  12.769  13.084  13.249
53894SOL    HW163521  12.676  13.071  13.266
53894SOL    HW263522  12.774  13.169  13.206
53895SOL     OW63523  14.811   7.275   9.940
53895SOL    HW163524  14.867   7.321   9.877
53895SOL    HW263525  14.866   7.262  10.017
53896SOL     OW63526  10.081   1.254   0.269
53896SOL    HW163527  10.042   1.303   0.342
53896SOL    HW263528  10.063   1.162   0.290
53897SOL     OW63529   4.905  11.923   4.900
53897SOL    HW163530   4.931  12.015   4.911
53897SOL    HW263531   4.885  11.893   4.988
53898SOL     OW63532  14.302   9.076   6.276
53898SOL    HW163533  14.353   9.046   6.352
53898SOL    HW263534  14.262   8.996   6.241
53899SOL     OW63535   0.884   5.274  10.402
53899SOL    HW163536   0.839   5.343  10.353
53899SOL    HW263537   0.931   5.224  10.335
53900SOL     OW63538   4.338   2.674  11.487
53900SOL    HW163539   4.360   2.605  11.424
53900SOL    HW263540   4.341   2.755  11.437
53901SOL     OW63541  11.067   4.297   5.804
53901SOL    HW163542  11.046   4.212   5.843
53901SOL    HW263543  11.142   4.328   5.856
53902SOL     OW63544  10.549  10.911  13.242
53902SOL    HW163545  10.464  10.915  13.198
53902SOL    HW263546  10.592  10.835  13.203
53903SOL     OW63547   2.973   6.058   2.066
53903SOL    HW163548   3.000   5.979   2.018
53903SOL    HW263549   3.039   6.068   2.135
53904SOL     OW63550   8.217   2.965   0.267
53904SOL    HW163551   8.191   3.038   0.323
53904SOL    HW263552   8.300   2.994   0.228
53905SOL     OW63553  10.100   2.510  13.239
53905SOL    HW163554  10.175   2.452  13.224
53905SOL    HW263555  10.108   2.578  13.172
53906SOL     OW63556   4.375  14.045   1.793
53906SOL    HW163557   4.371  14.039   1.697
53906SOL    HW263558   4.457  14.092   1.810
53907SOL     OW63559   7.716   6.914   4.205
53907SOL    HW163560   7.690   6.911   4.113
53907SOL    HW263561   7.779   6.986   4.210
53908SOL     OW63562  14.600   4.811   7.972
53908SOL    HW163563  14.663   4.843   8.037
53908SOL    HW263564  14.539   4.757   8.023
53909SOL     OW63565   5.914  10.259   3.312
53909SOL    HW163566   5.904  10.195   3.382
53909SOL    HW263567   5.996  10.304   3.332
53910SOL     OW63568   6.702   6.966   9.970
53910SOL    HW163569   6.761   6.953   9.896
53910SOL    HW263570   6.632   6.902   9.955
53911SOL     OW63571  11.568  14.020   5.995
53911SOL    HW163572  11.629  14.093   5.982
53911SOL    HW263573  11.624  13.943   5.998
53912SOL     OW63574   5.570  14.773   0.068
53912SOL    HW163575   5.489  14.797   0.112
53912SOL    HW263576   5.617  14.856   0.056
53913SOL     OW63577   6.535   7.207  14.540
53913SOL    HW163578   6.622   7.208  14.581
53913SOL    HW263579   6.508   7.116  14.544
53914SOL     OW63580   0.373   4.470   2.321
53914SOL    HW163581   0.458   4.439   2.291
53914SOL    HW263582   0.310   4.431   2.260
53915SOL     OW63583   6.489  13.684   1.142
53915SOL    HW163584   6.463  13.729   1.222
53915SOL    HW263585   6.514  13.596   1.171
53916SOL     OW63586  14.375  13.364  12.604
53916SOL    HW163587  14.312  13.340  12.536
53916SOL    HW263588  14.372  13.460  12.606
53917SOL     OW63589  11.541  12.563   2.686
53917SOL    HW163590  11.615  12.611   2.722
53917SOL    HW263591  11.535  12.484   2.739
53918SOL     OW63592   0.019   0.608   1.721
53918SOL    HW163593   0.113   0.625   1.729
53918SOL    HW263594   0.009   0.517   1.751
53919SOL     OW63595   1.485   1.637   1.361
53919SOL    HW163596   1.475   1.548   1.327
53919SOL    HW263597   1.526   1.686   1.290
53920SOL     OW63598  11.808   7.327   8.973
53920SOL    HW163599  11.817   7.334   8.879
53920SOL    HW263600  11.815   7.233   8.991
53921SOL     OW63601  13.615   3.406  11.391
53921SOL    HW163602  13.596   3.327  11.340
53921SOL    HW263603  13.530   3.448  11.404
53922SOL     OW63604   1.088   3.775  14.835
53922SOL    HW163605   1.039   3.777  14.753
53922SOL    HW263606   1.161   3.835  14.820
53923SOL     OW63607  13.707   7.648   5.461
53923SOL    HW163608  13.683   7.733   5.422
53923SOL    HW263609  13.763   7.607   5.395
53924SOL     OW63610   5.385   4.895   9.493
53924SOL    HW163611   5.423   4.957   9.431
53924SOL    HW263612   5.341   4.950   9.558
53925SOL     OW63613  12.597  12.133   8.552
53925SOL    HW163614  12.546  12.213   8.536
53925SOL    HW263615  12.570  12.074   8.481
53926SOL     OW63616   6.585   6.128   5.258
53926SOL    HW163617   6.625   6.106   5.174
53926SOL    HW263618   6.564   6.222   5.250
53927SOL     OW63619   8.508   9.893   4.722
53927SOL    HW163620   8.429   9.894   4.668
53927SOL    HW263621   8.485   9.840   4.798
53928SOL     OW63622   6.855   2.734   7.514
53928SOL    HW163623   6.873   2.641   7.504
53928SOL    HW263624   6.760   2.742   7.503
53929SOL     OW63625  13.581  12.837   6.980
53929SOL    HW163626  13.494  12.800   6.969
53929SOL    HW263627  13.578  12.921   6.934
53930SOL     OW63628  11.220   5.350   5.940
53930SOL    HW163629  11.192   5.294   5.867
53930SOL    HW263630  11.144   5.353   5.998
53931SOL     OW63631  12.478  10.951   0.153
53931SOL    HW163632  12.452  10.881   0.092
53931SOL    HW263633  12.439  10.926   0.237
53932SOL     OW63634   2.195   6.940  14.573
53932SOL    HW163635   2.260   6.905  14.512
53932SOL    HW263636   2.159   7.016  14.528
53933SOL     OW63637  13.136  13.770   4.562
53933SOL    HW163638  13.169  13.856   4.589
53933SOL    HW263639  13.214  13.714   4.560
53934SOL     OW63640   5.586   2.502  13.133
53934SOL    HW163641   5.592   2.407  13.124
53934SOL    HW263642   5.513   2.516  13.194
53935SOL     OW63643   8.690  12.367   4.806
53935SOL    HW163644   8.717  12.458   4.801
53935SOL    HW263645   8.598  12.371   4.835
53936SOL     OW63646   6.541   7.886   1.871
53936SOL    HW163647   6.522   7.796   1.897
53936SOL    HW263648   6.508   7.940   1.942
53937SOL     OW63649   1.406   5.789  13.375
53937SOL    HW163650   1.477   5.732  13.406
53937SOL    HW263651   1.370   5.827  13.455
53938SOL     OW63652  14.683   9.416   5.500
53938SOL    HW163653  14.772   9.426   5.535
53938SOL    HW263654  14.661   9.503   5.467
53939SOL     OW63655   4.358   6.076   8.390
53939SOL    HW163656   4.421   6.142   8.361
53939SOL    HW263657   4.411   6.013   8.438
53940SOL     OW63658   0.214  11.741   0.033
53940SOL    HW163659   0.219  11.661  14.858
53940SOL    HW263660   0.304  11.772   0.037
53941SOL     OW63661   0.737   5.718   6.340
53941SOL    HW163662   0.688   5.722   6.422
53941SOL    HW263663   0.761   5.625   6.332
53942SOL     OW63664   0.379  11.616  12.111
53942SOL    HW163665   0.303  11.579  12.066
53942SOL    HW263666   0.400  11.694  12.060
53943SOL     OW63667  10.628   3.465   6.895
53943SOL    HW163668  10.661   3.547   6.859
53943SOL    HW263669  10.569   3.432   6.828
53944SOL     OW63670   4.393  11.315   5.952
53944SOL    HW163671   4.355  11.402   5.964
53944SOL    HW263672   4.411  11.284   6.041
53945SOL     OW63673  10.118  13.128  13.424
53945SOL    HW163674  10.159  13.155  13.506
53945SOL    HW263675  10.191  13.108  13.365
53946SOL     OW63676   9.118   8.517   6.158
53946SOL    HW163677   9.194   8.546   6.209
53946SOL    HW263678   9.137   8.546   6.069
53947SOL     OW63679  14.107  13.602   3.248
53947SOL    HW163680  14.089  13.582   3.156
53947SOL    HW263681  14.044  13.672   3.269
53948SOL     OW63682   2.990   0.773   3.448
53948SOL    HW163683   2.910   0.825   3.440
53948SOL    HW263684   2.960   0.683   3.457
53949SOL     OW63685  13.394   7.547  14.126
53949SOL    HW163686  13.370   7.639  14.124
53949SOL    HW263687  13.469   7.540  14.066
53950SOL     OW63688  12.091  10.968   5.642
53950SOL    HW163689  12.090  10.874   5.658
53950SOL    HW263690  12.092  10.977   5.547
53951SOL     OW63691   0.294  14.568   0.732
53951SOL    HW163692   0.238  14.512   0.678
53951SOL    HW263693   0.232  14.624   0.779
53952SOL     OW63694  14.555   2.824  10.846
53952SOL    HW163695  14.527   2.738  10.876
53952SOL    HW263696  14.517   2.885  10.910
53953SOL     OW63697  12.475  10.419   5.918
53953SOL    HW163698  12.483  10.496   5.975
53953SOL    HW263699  12.513  10.448   5.835
53954SOL     OW63700   8.793  14.200  10.439
53954SOL    HW163701   8.838  14.116  10.447
53954SOL    HW263702   8.702  14.182  10.463
53955SOL     OW63703  11.075   5.523   3.006
53955SOL    HW163704  10.995   5.568   2.980
53955SOL    HW263705  11.054   5.482   3.090
53956SOL     OW63706   4.123   0.043   9.564
53956SOL    HW163707   4.150   0.127   9.527
53956SOL    HW263708   4.118   0.059   9.658
53957SOL     OW63709  11.625  13.909  10.606
53957SOL    HW163710  11.616  13.833  10.549
53957SOL    HW263711  11.547  13.962  10.587
53958SOL     OW63712  10.486  13.150  10.224
53958SOL    HW163713  10.562  13.193  10.263
53958SOL    HW263714  10.435  13.221  10.185
53959SOL     OW63715   7.140  13.975   8.724
53959SOL    HW163716   7.115  13.883   8.734
53959SOL    HW263717   7.083  14.007   8.654
53960SOL     OW63718   3.871   3.684  12.314
53960SOL    HW163719   3.781   3.662  12.336
53960SOL    HW263720   3.869   3.777  12.292
53961SOL     OW63721   1.336   9.312  13.763
53961SOL    HW163722   1.356   9.247  13.831
53961SOL    HW263723   1.369   9.273  13.682
53962SOL     OW63724  10.217  12.360   4.295
53962SOL    HW163725  10.218  12.411   4.375
53962SOL    HW263726  10.264  12.413   4.231
53963SOL     OW63727   0.250   5.111   8.529
53963SOL    HW163728   0.224   5.028   8.490
53963SOL    HW263729   0.212   5.109   8.617
53964SOL     OW63730   9.698   1.934  12.805
53964SOL    HW163731   9.677   2.025  12.785
53964SOL    HW263732   9.689   1.926  12.900
53965SOL     OW63733   0.898  10.901  11.796
53965SOL    HW163734   0.893  10.945  11.880
53965SOL    HW263735   0.966  10.948  11.748
53966SOL     OW63736   2.876  14.049   9.068
53966SOL    HW163737   2.929  14.015   8.995
53966SOL    HW263738   2.792  14.071   9.028
53967SOL     OW63739   5.803   3.289  14.055
53967SOL    HW163740   5.778   3.197  14.046
53967SOL    HW263741   5.895   3.287  14.082
53968SOL     OW63742   6.599  14.435   2.067
53968SOL    HW163743   6.597  14.530   2.050
53968SOL    HW263744   6.507  14.408   2.061
53969SOL     OW63745  11.152   1.235   0.006
53969SOL    HW163746  11.134   1.203   0.094
53969SOL    HW263747  11.134   1.329   0.010
53970SOL     OW63748   9.217   2.846   3.531
53970SOL    HW163749   9.237   2.913   3.465
53970SOL    HW263750   9.225   2.763   3.485
53971SOL     OW63751   1.353  12.595   6.417
53971SOL    HW163752   1.395  12.610   6.332
53971SOL    HW263753   1.275  12.650   6.415
53972SOL     OW63754   9.320   7.249   6.663
53972SOL    HW163755   9.368   7.240   6.580
53972SOL    HW263756   9.229   7.228   6.641
53973SOL     OW63757   1.447  12.610   3.297
53973SOL    HW163758   1.358  12.583   3.320
53973SOL    HW263759   1.446  12.619   3.202
53974SOL     OW63760   3.380   6.513   8.845
53974SOL    HW163761   3.453   6.553   8.799
53974SOL    HW263762   3.312   6.503   8.779
53975SOL     OW63763   6.024   8.342   8.088
53975SOL    HW163764   5.966   8.403   8.133
53975SOL    HW263765   6.020   8.369   7.996
53976SOL     OW63766   6.679   9.504   7.265
53976SOL    HW163767   6.672   9.471   7.355
53976SOL    HW263768   6.688   9.599   7.276
53977SOL     OW63769   6.884  14.693   8.594
53977SOL    HW163770   6.934  14.687   8.676
53977SOL    HW263771   6.927  14.631   8.536
53978SOL     OW63772   3.871   2.354   2.695
53978SOL    HW163773   3.907   2.269   2.720
53978SOL    HW263774   3.947   2.407   2.672
53979SOL     OW63775   1.231  13.365   0.558
53979SOL    HW163776   1.173  13.403   0.624
53979SOL    HW263777   1.228  13.271   0.575
53980SOL     OW63778  10.035  14.590   3.960
53980SOL    HW163779  10.067  14.555   4.043
53980SOL    HW263780   9.956  14.540   3.941
53981SOL     OW63781   3.729   3.521   4.073
53981SOL    HW163782   3.725   3.426   4.081
53981SOL    HW263783   3.755   3.537   3.983
53982SOL     OW63784  10.947   6.644  14.408
53982SOL    HW163785  10.886   6.657  14.481
53982SOL    HW263786  10.964   6.550  14.407
53983SOL     OW63787   3.046  10.117   0.002
53983SOL    HW163788   2.968  10.144   0.051
53983SOL    HW263789   3.119  10.140   0.059
53984SOL     OW63790  14.645  11.920   8.526
53984SOL    HW163791  14.681  11.838   8.493
53984SOL    HW263792  14.680  11.927   8.615
53985SOL     OW63793   8.617   8.106  10.730
53985SOL    HW163794   8.581   8.154  10.805
53985SOL    HW263795   8.541   8.090  10.674
53986SOL     OW63796  13.372  12.769   0.794
53986SOL    HW163797  13.444  12.769   0.858
53986SOL    HW263798  13.392  12.694   0.738
53987SOL     OW63799  13.935   1.210  11.006
53987SOL    HW163800  13.868   1.150  10.972
53987SOL    HW263801  13.886   1.287  11.034
53988SOL     OW63802   6.383  10.394  13.392
53988SOL    HW163803   6.391  10.483  13.358
53988SOL    HW263804   6.385  10.338  13.314
53989SOL     OW63805   0.783   9.610  10.205
53989SOL    HW163806   0.870   9.632  10.172
53989SOL    HW263807   0.774   9.660  10.286
53990SOL     OW63808  13.384  10.463   5.250
53990SOL    HW163809  13.304  10.511   5.234
53990SOL    HW263810  13.436  10.520   5.307
53991SOL     OW63811   9.949   3.906   9.913
53991SOL    HW163812   9.947   3.919  10.008
53991SOL    HW263813   9.941   3.811   9.902
53992SOL     OW63814  14.507   1.569   5.480
53992SOL    HW163815  14.547   1.482   5.481
53992SOL    HW263816  14.432   1.561   5.539
53993SOL     OW63817  10.339  12.819  14.796
53993SOL    HW163818  10.316  12.850  14.708
53993SOL    HW263819  10.376  12.732  14.782
53994SOL     OW63820   2.212   4.990   0.792
53994SOL    HW163821   2.300   4.968   0.823
53994SOL    HW263822   2.155   4.973   0.866
53995SOL     OW63823   1.576   6.580   8.642
53995SOL    HW163824   1.511   6.579   8.572
53995SOL    HW263825   1.525   6.599   8.721
53996SOL     OW63826  11.520  10.342   9.908
53996SOL    HW163827  11.445  10.391   9.941
53996SOL    HW263828  11.495  10.250   9.920
53997SOL     OW63829   6.784   6.883  14.402
53997SOL    HW163830   6.758   6.972  14.381
53997SOL    HW263831   6.711   6.829  14.371
53998SOL     OW63832   6.180  11.237  13.134
53998SOL    HW163833   6.122  11.312  13.149
53998SOL    HW263834   6.148  11.170  13.195
53999SOL     OW63835  12.583   5.806   0.623
53999SOL    HW163836  12.652   5.820   0.557
53999SOL    HW263837  12.532   5.733   0.589
54000SOL     OW63838  12.416   3.824   7.768
54000SOL    HW163839  12.350   3.811   7.700
54000SOL    HW263840  12.463   3.903   7.741
54001SOL     OW63841   3.440   6.760   2.869
54001SOL    HW163842   3.414   6.719   2.787
54001SOL    HW263843   3.461   6.686   2.927
54002SOL     OW63844   5.304   3.869   4.939
54002SOL    HW163845   5.336   3.959   4.948
54002SOL    HW263846   5.372   3.815   4.980
54003SOL     OW63847  12.979  11.429  10.733
54003SOL    HW163848  12.985  11.485  10.655
54003SOL    HW263849  13.053  11.369  10.724
54004SOL     OW63850   4.517  13.727   3.642
54004SOL    HW163851   4.553  13.816   3.633
54004SOL    HW263852   4.584  13.680   3.692
54005SOL     OW63853   8.635  11.689  14.328
54005SOL    HW163854   8.673  11.687  14.416
54005SOL    HW263855   8.608  11.780  14.316
54006SOL     OW63856   9.267  13.147   1.585
54006SOL    HW163857   9.181  13.146   1.627
54006SOL    HW263858   9.329  13.128   1.655
54007SOL     OW63859   2.679   1.263  13.329
54007SOL    HW163860   2.598   1.217  13.350
54007SOL    HW263861   2.704   1.229  13.243
54008SOL     OW63862   1.546  13.491   5.786
54008SOL    HW163863   1.586  13.514   5.703
54008SOL    HW263864   1.464  13.539   5.788
54009SOL     OW63865   3.584   4.876  13.776
54009SOL    HW163866   3.549   4.837  13.856
54009SOL    HW263867   3.511   4.873  13.714
54010SOL     OW63868   2.338   7.921   9.881
54010SOL    HW163869   2.248   7.949   9.894
54010SOL    HW263870   2.338   7.875   9.797
54011SOL     OW63871   2.257  12.264  11.587
54011SOL    HW163872   2.250  12.181  11.540
54011SOL    HW263873   2.179  12.313  11.561
54012SOL     OW63874  11.841  10.081   5.979
54012SOL    HW163875  11.895  10.148   6.020
54012SOL    HW263876  11.767  10.129   5.942
54013SOL     OW63877   5.386   8.644  11.539
54013SOL    HW163878   5.369   8.552  11.518
54013SOL    HW263879   5.480   8.654  11.528
54014SOL     OW63880   7.009  10.468  11.610
54014SOL    HW163881   7.020  10.541  11.672
54014SOL    HW263882   7.024  10.390  11.663
54015SOL     OW63883  13.623   3.955  12.674
54015SOL    HW163884  13.672   4.020  12.724
54015SOL    HW263885  13.533   3.962  12.706
54016SOL     OW63886   9.004   6.060  11.776
54016SOL    HW163887   9.051   6.141  11.793
54016SOL    HW263888   8.974   6.067  11.686
54017SOL     OW63889   6.982   6.077   1.085
54017SOL    HW163890   7.066   6.046   1.051
54017SOL    HW263891   6.919   6.053   1.017
54018SOL     OW63892   9.481  11.821   6.670
54018SOL    HW163893   9.533  11.882   6.617
54018SOL    HW263894   9.427  11.774   6.608
54019SOL     OW63895   5.451  11.819   2.319
54019SOL    HW163896   5.379  11.874   2.287
54019SOL    HW263897   5.435  11.733   2.280
54020SOL     OW63898   8.313  14.700  11.141
54020SOL    HW163899   8.288  14.779  11.189
54020SOL    HW263900   8.296  14.628  11.201
54021SOL     OW63901   6.805   6.083  14.055
54021SOL    HW163902   6.878   6.033  14.093
54021SOL    HW263903   6.846   6.164  14.024
54022SOL     OW63904  14.324  10.983  14.278
54022SOL    HW163905  14.242  11.007  14.322
54022SOL    HW263906  14.380  10.951  14.348
54023SOL     OW63907  14.039  12.879  14.583
54023SOL    HW163908  14.007  12.846  14.499
54023SOL    HW263909  14.092  12.955  14.559
54024SOL     OW63910  12.015  10.920   0.075
54024SOL    HW163911  11.970  10.852   0.025
54024SOL    HW263912  11.952  10.991   0.081
54025SOL     OW63913  10.493  14.284   8.335
54025SOL    HW163914  10.398  14.293   8.340
54025SOL    HW263915  10.521  14.276   8.426
54026SOL     OW63916   4.274   8.235  11.834
54026SOL    HW163917   4.334   8.292  11.882
54026SOL    HW263918   4.187   8.271  11.851
54027SOL     OW63919   8.898   7.145   1.609
54027SOL    HW163920   8.866   7.114   1.524
54027SOL    HW263921   8.833   7.113   1.672
54028SOL     OW63922  14.325   7.918   2.140
54028SOL    HW163923  14.260   7.965   2.089
54028SOL    HW263924  14.284   7.834   2.160
54029SOL     OW63925   3.148   6.271   1.067
54029SOL    HW163926   3.244   6.268   1.070
54029SOL    HW263927   3.120   6.232   1.149
54030SOL     OW63928   7.001   8.403   8.322
54030SOL    HW163929   7.091   8.396   8.351
54030SOL    HW263930   6.949   8.394   8.402
54031SOL     OW63931   0.318   2.575   9.429
54031SOL    HW163932   0.243   2.515   9.440
54031SOL    HW263933   0.310   2.608   9.340
54032SOL     OW63934  10.912   3.024  13.672
54032SOL    HW163935  10.995   3.012  13.625
54032SOL    HW263936  10.846   3.029  13.602
54033SOL     OW63937   1.730   3.413   7.465
54033SOL    HW163938   1.744   3.503   7.436
54033SOL    HW263939   1.715   3.420   7.559
54034SOL     OW63940   4.343   1.768   6.968
54034SOL    HW163941   4.283   1.769   6.893
54034SOL    HW263942   4.303   1.707   7.030
54035SOL     OW63943   3.198   4.294   8.920
54035SOL    HW163944   3.258   4.236   8.968
54035SOL    HW263945   3.135   4.235   8.880
54036SOL     OW63946  11.698   7.714   7.682
54036SOL    HW163947  11.789   7.735   7.704
54036SOL    HW263948  11.704   7.648   7.613
54037SOL     OW63949  12.389   4.156  12.039
54037SOL    HW163950  12.475   4.149  11.998
54037SOL    HW263951  12.396   4.232  12.097
54038SOL     OW63952   1.935   4.365   3.914
54038SOL    HW163953   1.941   4.353   3.819
54038SOL    HW263954   1.880   4.293   3.944
54039SOL     OW63955   0.646   7.443   1.682
54039SOL    HW163956   0.671   7.361   1.639
54039SOL    HW263957   0.581   7.416   1.747
54040SOL     OW63958  12.725   6.402  13.705
54040SOL    HW163959  12.649   6.433  13.656
54040SOL    HW263960  12.732   6.310  13.683
54041SOL     OW63961  13.739  10.260  11.436
54041SOL    HW163962  13.832  10.281  11.424
54041SOL    HW263963  13.709  10.322  11.503
54042SOL     OW63964  12.694   6.752   3.411
54042SOL    HW163965  12.691   6.780   3.502
54042SOL    HW263966  12.714   6.658   3.416
54043SOL     OW63967   7.518   6.771   9.461
54043SOL    HW163968   7.453   6.718   9.506
54043SOL    HW263969   7.506   6.750   9.368
54044SOL     OW63970   1.669   9.590   2.472
54044SOL    HW163971   1.635   9.606   2.560
54044SOL    HW263972   1.611   9.640   2.415
54045SOL     OW63973  14.469   5.723  10.869
54045SOL    HW163974  14.444   5.677  10.788
54045SOL    HW263975  14.387   5.759  10.902
54046SOL     OW63976   0.635  10.104  13.523
54046SOL    HW163977   0.585  10.159  13.463
54046SOL    HW263978   0.636  10.018  13.481
54047SOL     OW63979   2.841  13.855   8.193
54047SOL    HW163980   2.912  13.819   8.245
54047SOL    HW263981   2.780  13.782   8.181
54048SOL     OW63982   5.208   3.676   4.441
54048SOL    HW163983   5.291   3.638   4.470
54048SOL    HW263984   5.216   3.769   4.461
54049SOL     OW63985   5.780  12.900   9.978
54049SOL    HW163986   5.822  12.872   9.897
54049SOL    HW263987   5.702  12.845   9.984
54050SOL     OW63988   8.579  10.653   1.021
54050SOL    HW163989   8.484  10.642   1.025
54050SOL    HW263990   8.608  10.593   0.953
54051SOL     OW63991   9.778  14.439  14.432
54051SOL    HW163992   9.693  14.478  14.452
54051SOL    HW263993   9.834  14.513  14.409
54052SOL     OW63994  11.999  13.969  11.724
54052SOL    HW163995  12.085  13.930  11.743
54052SOL    HW263996  12.015  14.025  11.648
54053SOL     OW63997  11.147  13.744   9.344
54053SOL    HW163998  11.167  13.837   9.352
54053SOL    HW263999  11.081  13.727   9.411
54054SOL     OW64000   8.441   0.516  13.728
54054SOL    HW164001   8.399   0.431  13.713
54054SOL    HW264002   8.444   0.556  13.641
54055SOL     OW64003   5.931  10.169   4.767
54055SOL    HW164004   5.839  10.169   4.792
54055SOL    HW264005   5.978  10.150   4.849
54056SOL     OW64006  12.870  12.303   9.714
54056SOL    HW164007  12.798  12.360   9.688
54056SOL    HW264008  12.846  12.217   9.679
54057SOL     OW64009  13.733   6.551  10.672
54057SOL    HW164010  13.691   6.511  10.748
54057SOL    HW264011  13.794   6.615  10.709
54058SOL     OW64012  13.989   6.858   0.784
54058SOL    HW164013  14.024   6.932   0.735
54058SOL    HW264014  13.910   6.892   0.827
54059SOL     OW64015  10.598   2.350   5.062
54059SOL    HW164016  10.682   2.309   5.082
54059SOL    HW264017  10.614   2.402   4.984
54060SOL     OW64018   7.431   8.405  10.069
54060SOL    HW164019   7.429   8.357   9.986
54060SOL    HW264020   7.427   8.337  10.136
54061SOL     OW64021  13.193   5.312   2.593
54061SOL    HW164022  13.246   5.340   2.518
54061SOL    HW264023  13.127   5.380   2.602
54062SOL     OW64024   9.257   0.044  13.749
54062SOL    HW164025   9.183   0.104  13.750
54062SOL    HW264026   9.332   0.100  13.726
54063SOL     OW64027   7.914   8.365   5.677
54063SOL    HW164028   7.971   8.415   5.735
54063SOL    HW264029   7.864   8.308   5.735
54064SOL     OW64030  11.035   0.046   4.241
54064SOL    HW164031  11.054  14.829   4.233
54064SOL    HW264032  10.943   0.049   4.268
54065SOL     OW64033   7.310  13.415   2.217
54065SOL    HW164034   7.404  13.431   2.209
54065SOL    HW264035   7.277  13.420   2.127
54066SOL     OW64036   1.345   9.211  11.608
54066SOL    HW164037   1.408   9.246  11.671
54066SOL    HW264038   1.366   9.119  11.601
54067SOL     OW64039   4.000   4.324   3.199
54067SOL    HW164040   4.004   4.315   3.295
54067SOL    HW264041   4.081   4.284   3.168
54068SOL     OW64042   4.978  10.608   3.874
54068SOL    HW164043   4.927  10.548   3.820
54068SOL    HW264044   5.028  10.660   3.812
54069SOL     OW64045   2.747   6.748  12.759
54069SOL    HW164046   2.724   6.781  12.845
54069SOL    HW264047   2.730   6.654  12.764
54070SOL     OW64048  14.254   9.870  10.878
54070SOL    HW164049  14.163   9.901  10.886
54070SOL    HW264050  14.301   9.920  10.945
54071SOL     OW64051  13.462   4.478  11.458
54071SOL    HW164052  13.543   4.482  11.407
54071SOL    HW264053  13.484   4.515  11.543
54072SOL     OW64054  12.765   5.855   5.981
54072SOL    HW164055  12.741   5.839   5.890
54072SOL    HW264056  12.847   5.807   5.994
54073SOL     OW64057   1.102   0.736   4.819
54073SOL    HW164058   1.037   0.730   4.889
54073SOL    HW264059   1.169   0.672   4.843
54074SOL     OW64060  14.724  14.112   8.130
54074SOL    HW164061  14.793  14.119   8.196
54074SOL    HW264062  14.757  14.045   8.069
54075SOL     OW64063   9.638  14.752  10.291
54075SOL    HW164064   9.544  14.765  10.282
54075SOL    HW264065   9.675  14.839  10.280
54076SOL     OW64066  10.145  10.348   0.984
54076SOL    HW164067  10.136  10.321   1.076
54076SOL    HW264068  10.229  10.394   0.981
54077SOL     OW64069  12.054  13.635   2.680
54077SOL    HW164070  11.967  13.663   2.653
54077SOL    HW264071  12.064  13.669   2.769
54078SOL     OW64072  10.942   2.077  13.966
54078SOL    HW164073  10.921   2.156  13.915
54078SOL    HW264074  10.861   2.057  14.013
54079SOL     OW64075  14.165  13.399   0.045
54079SOL    HW164076  14.223  13.336   0.003
54079SOL    HW264077  14.092  13.408  14.861
54080SOL     OW64078  13.273   1.367  10.737
54080SOL    HW164079  13.331   1.292  10.747
54080SOL    HW264080  13.331   1.438  10.706
54081SOL     OW64081  11.023   1.256   3.522
54081SOL    HW164082  10.979   1.285   3.442
54081SOL    HW264083  10.965   1.285   3.593
54082SOL     OW64084   4.976   8.197   1.435
54082SOL    HW164085   4.909   8.262   1.413
54082SOL    HW264086   4.985   8.202   1.530
54083SOL     OW64087   5.263  14.539  11.009
54083SOL    HW164088   5.255  14.630  11.038
54083SOL    HW264089   5.267  14.544  10.914
54084SOL     OW64090   5.759   0.947  14.214
54084SOL    HW164091   5.778   0.984  14.128
54084SOL    HW264092   5.785   0.855  14.207
54085SOL     OW64093  12.784  10.490   8.132
54085SOL    HW164094  12.707  10.495   8.188
54085SOL    HW264095  12.854  10.460   8.190
54086SOL     OW64096   0.591   0.548  14.866
54086SOL    HW164097   0.596   0.488  14.791
54086SOL    HW264098   0.670   0.529   0.040
54087SOL     OW64099   0.612   9.614   9.987
54087SOL    HW164100   0.661   9.595  10.067
54087SOL    HW264101   0.521   9.624  10.017
54088SOL     OW64102   0.225  13.370   4.346
54088SOL    HW164103   0.271  13.454   4.357
54088SOL    HW264104   0.199  13.346   4.435
54089SOL     OW64105   5.454  12.445   4.725
54089SOL    HW164106   5.538  12.450   4.770
54089SOL    HW264107   5.403  12.519   4.758
54090SOL     OW64108   2.596   3.526   0.503
54090SOL    HW164109   2.606   3.431   0.495
54090SOL    HW264110   2.665   3.562   0.448
54091SOL     OW64111   0.179  10.232  14.722
54091SOL    HW164112   0.156  10.292  14.651
54091SOL    HW264113   0.132  10.152  14.701
54092SOL     OW64114   3.147  10.432  10.855
54092SOL    HW164115   3.101  10.370  10.798
54092SOL    HW264116   3.081  10.460  10.917
54093SOL     OW64117   5.414   5.581  14.724
54093SOL    HW164118   5.497   5.630  14.724
54093SOL    HW264119   5.433   5.502  14.776
54094SOL     OW64120   8.275   9.075   6.144
54094SOL    HW164121   8.226   8.994   6.156
54094SOL    HW264122   8.282   9.085   6.049
54095SOL     OW64123   3.407   7.716   7.966
54095SOL    HW164124   3.465   7.719   7.889
54095SOL    HW264125   3.430   7.634   8.010
54096SOL     OW64126   9.686  10.620  13.106
54096SOL    HW164127   9.708  10.626  13.014
54096SOL    HW264128   9.612  10.559  13.109
54097SOL     OW64129  12.410   1.520   0.112
54097SOL    HW164130  12.490   1.511   0.060
54097SOL    HW264131  12.415   1.449   0.176
54098SOL     OW64132   6.578  12.750   1.097
54098SOL    HW164133   6.539  12.749   1.184
54098SOL    HW264134   6.594  12.843   1.080
54099SOL     OW64135  12.018   0.443   2.060
54099SOL    HW164136  12.109   0.470   2.069
54099SOL    HW264137  12.017   0.384   1.984
54100SOL     OW64138  12.209   7.742   5.296
54100SOL    HW164139  12.138   7.698   5.250
54100SOL    HW264140  12.193   7.724   5.389
54101SOL     OW64141  12.694   7.745   3.573
54101SOL    HW164142  12.685   7.838   3.552
54101SOL    HW264143  12.788   7.733   3.587
54102SOL     OW64144   3.139  14.730  12.210
54102SOL    HW164145   3.059  14.684  12.236
54102SOL    HW264146   3.167  14.685  12.131
54103SOL     OW64147   4.943  13.196   2.944
54103SOL    HW164148   4.980  13.202   2.856
54103SOL    HW264149   4.877  13.264   2.947
54104SOL     OW64150  11.096  13.955  10.928
54104SOL    HW164151  11.124  13.949  10.836
54104SOL    HW264152  11.026  13.890  10.936
54105SOL     OW64153  14.089   2.747   0.517
54105SOL    HW164154  14.104   2.816   0.453
54105SOL    HW264155  14.154   2.680   0.496
54106SOL     OW64156   1.295   3.212   2.041
54106SOL    HW164157   1.208   3.245   2.017
54106SOL    HW264158   1.353   3.246   1.973
54107SOL     OW64159  12.015   1.032   8.338
54107SOL    HW164160  12.031   0.940   8.319
54107SOL    HW264161  12.020   1.038   8.433
54108SOL     OW64162  13.677   0.410   6.397
54108SOL    HW164163  13.642   0.325   6.371
54108SOL    HW264164  13.610   0.473   6.373
54109SOL     OW64165   2.347   0.054  13.627
54109SOL    HW164166   2.339   0.020  13.538
54109SOL    HW264167   2.430   0.102  13.627
54110SOL     OW64168  11.121  11.050   1.690
54110SOL    HW164169  11.194  11.048   1.628
54110SOL    HW264170  11.078  11.134   1.674
54111SOL     OW64171   6.753  10.718  11.186
54111SOL    HW164172   6.760  10.682  11.275
54111SOL    HW264173   6.663  10.749  11.180
54112SOL     OW64174   6.859   4.129   7.879
54112SOL    HW164175   6.793   4.059   7.878
54112SOL    HW264176   6.821   4.198   7.825
54113SOL     OW64177   4.544   3.026  14.057
54113SOL    HW164178   4.570   3.114  14.085
54113SOL    HW264179   4.621   2.993  14.010
54114SOL     OW64180   8.256  12.255  13.930
54114SOL    HW164181   8.261  12.342  13.891
54114SOL    HW264182   8.180  12.214  13.887
54115SOL     OW64183   9.447   9.728  11.955
54115SOL    HW164184   9.494   9.709  12.036
54115SOL    HW264185   9.483   9.667  11.891
54116SOL     OW64186   6.356   7.659   4.522
54116SOL    HW164187   6.330   7.589   4.461
54116SOL    HW264188   6.427   7.704   4.477
54117SOL     OW64189   1.679   1.665   5.718
54117SOL    HW164190   1.774   1.671   5.725
54117SOL    HW264191   1.657   1.715   5.640
54118SOL     OW64192  10.033   0.524   3.938
54118SOL    HW164193   9.955   0.509   3.884
54118SOL    HW264194  10.080   0.441   3.936
54119SOL     OW64195   7.590  13.937   8.292
54119SOL    HW164196   7.521  13.945   8.227
54119SOL    HW264197   7.671  13.939   8.242
54120SOL     OW64198   9.554   3.084  14.506
54120SOL    HW164199   9.621   3.152  14.509
54120SOL    HW264200   9.485   3.122  14.450
54121SOL     OW64201   2.090  10.756   3.081
54121SOL    HW164202   2.151  10.817   3.121
54121SOL    HW264203   2.018  10.811   3.049
54122SOL     OW64204  13.496   0.373  11.729
54122SOL    HW164205  13.485   0.279  11.717
54122SOL    HW264206  13.429   0.412  11.674
54123SOL     OW64207  14.627   0.779   0.886
54123SOL    HW164208  14.640   0.697   0.838
54123SOL    HW264209  14.535   0.775   0.915
54124SOL     OW64210   0.906   0.140   8.923
54124SOL    HW164211   0.866   0.054   8.910
54124SOL    HW264212   0.835   0.202   8.908
54125SOL     OW64213   0.544  12.491  12.299
54125SOL    HW164214   0.619  12.535  12.258
54125SOL    HW264215   0.477  12.559  12.305
54126SOL     OW64216   0.924   3.765   8.960
54126SOL    HW164217   0.942   3.673   8.978
54126SOL    HW264218   0.989   3.790   8.894
54127SOL     OW64219  12.207   3.956   0.470
54127SOL    HW164220  12.166   3.890   0.525
54127SOL    HW264221  12.167   4.038   0.498
54128SOL     OW64222   4.645   2.459   3.200
54128SOL    HW164223   4.700   2.489   3.127
54128SOL    HW264224   4.624   2.538   3.248
54129SOL     OW64225   0.264   4.614  10.451
54129SOL    HW164226   0.352   4.638  10.481
54129SOL    HW264227   0.259   4.651  10.362
54130SOL     OW64228  11.379   9.034  11.842
54130SOL    HW164229  11.451   8.971  11.840
54130SOL    HW264230  11.326   9.006  11.917
54131SOL     OW64231   6.062   3.660   2.400
54131SOL    HW164232   5.987   3.604   2.384
54131SOL    HW264233   6.056   3.683   2.493
54132SOL     OW64234   2.370   0.399   0.659
54132SOL    HW164235   2.314   0.324   0.638
54132SOL    HW264236   2.320   0.475   0.629
54133SOL     OW64237   8.140   8.566  10.651
54133SOL    HW164238   8.223   8.531  10.619
54133SOL    HW264239   8.133   8.533  10.740
54134SOL     OW64240  10.041   2.545   8.777
54134SOL    HW164241  10.048   2.588   8.692
54134SOL    HW264242  10.130   2.521   8.801
54135SOL     OW64243   5.290   5.270   4.120
54135SOL    HW164244   5.285   5.245   4.212
54135SOL    HW264245   5.346   5.348   4.120
54136SOL     OW64246   7.465   2.121   1.109
54136SOL    HW164247   7.527   2.161   1.170
54136SOL    HW264248   7.426   2.049   1.158
54137SOL     OW64249   9.109   8.087   5.284
54137SOL    HW164250   9.121   8.163   5.227
54137SOL    HW264251   9.015   8.082   5.298
54138SOL     OW64252   2.555   5.300   8.141
54138SOL    HW164253   2.562   5.354   8.062
54138SOL    HW264254   2.533   5.213   8.109
54139SOL     OW64255  12.203   0.876   5.969
54139SOL    HW164256  12.157   0.799   6.001
54139SOL    HW264257  12.295   0.849   5.965
54140SOL     OW64258  11.321  12.572  10.947
54140SOL    HW164259  11.295  12.481  10.961
54140SOL    HW264260  11.378  12.569  10.870
54141SOL     OW64261   1.897   3.841   5.868
54141SOL    HW164262   1.898   3.923   5.819
54141SOL    HW264263   1.842   3.859   5.944
54142SOL     OW64264  11.480  10.889   4.508
54142SOL    HW164265  11.514  10.854   4.591
54142SOL    HW264266  11.540  10.856   4.442
54143SOL     OW64267   1.199   0.892  10.076
54143SOL    HW164268   1.169   0.847  10.155
54143SOL    HW264269   1.122   0.891  10.018
54144SOL     OW64270   9.832   1.839   3.200
54144SOL    HW164271   9.847   1.757   3.247
54144SOL    HW264272   9.801   1.900   3.268
54145SOL     OW64273  10.301  11.342  14.678
54145SOL    HW164274  10.333  11.384  14.598
54145SOL    HW264275  10.221  11.389  14.700
54146SOL     OW64276  12.948   5.242  12.241
54146SOL    HW164277  13.013   5.290  12.293
54146SOL    HW264278  12.884   5.309  12.216
54147SOL     OW64279   8.421   4.660  14.263
54147SOL    HW164280   8.471   4.612  14.196
54147SOL    HW264281   8.447   4.751  14.251
54148SOL     OW64282   6.098   7.023   8.644
54148SOL    HW164283   6.088   7.007   8.550
54148SOL    HW264284   6.081   6.939   8.685
54149SOL     OW64285   4.061  13.364   3.806
54149SOL    HW164286   4.137  13.410   3.771
54149SOL    HW264287   4.052  13.288   3.748
54150SOL     OW64288   5.840  10.413  11.483
54150SOL    HW164289   5.783  10.489  11.488
54150SOL    HW264290   5.905  10.427  11.552
54151SOL     OW64291  13.843   8.181   9.035
54151SOL    HW164292  13.844   8.203   8.942
54151SOL    HW264293  13.872   8.089   9.038
54152SOL     OW64294   9.465  14.079  10.412
54152SOL    HW164295   9.485  14.120  10.496
54152SOL    HW264296   9.377  14.108  10.390
54153SOL     OW64297  13.861   3.195   6.593
54153SOL    HW164298  13.773   3.159   6.578
54153SOL    HW264299  13.914   3.119   6.618
54154SOL     OW64300   3.072   6.728   7.277
54154SOL    HW164301   3.166   6.712   7.289
54154SOL    HW264302   3.056   6.709   7.185
54155SOL     OW64303  13.672  14.561   9.705
54155SOL    HW164304  13.664  14.593   9.795
54155SOL    HW264305  13.667  14.639   9.651
54156SOL     OW64306   7.578   8.467   2.519
54156SOL    HW164307   7.595   8.545   2.466
54156SOL    HW264308   7.609   8.394   2.464
54157SOL     OW64309   1.736  14.435  12.220
54157SOL    HW164310   1.694  14.496  12.281
54157SOL    HW264311   1.712  14.348  12.253
54158SOL     OW64312   7.604  13.971  12.978
54158SOL    HW164313   7.675  13.906  12.975
54158SOL    HW264314   7.526  13.920  13.001
54159SOL     OW64315   8.456  13.875   0.388
54159SOL    HW164316   8.530  13.814   0.381
54159SOL    HW264317   8.386  13.823   0.428
54160SOL     OW64318   7.278   8.063   3.104
54160SOL    HW164319   7.199   8.013   3.082
54160SOL    HW264320   7.291   8.121   3.029
54161SOL     OW64321  10.857   1.697   1.145
54161SOL    HW164322  10.872   1.609   1.178
54161SOL    HW264323  10.918   1.752   1.194
54162SOL     OW64324   7.830  13.236  11.891
54162SOL    HW164325   7.889  13.302  11.857
54162SOL    HW264326   7.859  13.154  11.851
54163SOL     OW64327   4.720   5.022  10.046
54163SOL    HW164328   4.708   5.111  10.080
54163SOL    HW264329   4.673   5.022   9.963
54164SOL     OW64330   9.673   9.938   7.926
54164SOL    HW164331   9.680  10.033   7.920
54164SOL    HW264332   9.612   9.914   7.857
54165SOL     OW64333   6.429   6.744  12.823
54165SOL    HW164334   6.340   6.712  12.837
54165SOL    HW264335   6.418   6.839  12.810
54166SOL     OW64336   7.968   9.174  13.558
54166SOL    HW164337   8.009   9.179  13.644
54166SOL    HW264338   7.878   9.148  13.575
54167SOL     OW64339   3.470   9.344  10.036
54167SOL    HW164340   3.410   9.417  10.022
54167SOL    HW264341   3.437   9.275   9.979
54168SOL     OW64342   3.094   1.555  10.689
54168SOL    HW164343   3.056   1.469  10.710
54168SOL    HW264344   3.165   1.566  10.752
54169SOL     OW64345  12.671   6.387   1.237
54169SOL    HW164346  12.680   6.438   1.156
54169SOL    HW264347  12.580   6.399   1.263
54170SOL     OW64348  11.421   9.012   8.079
54170SOL    HW164349  11.385   8.938   8.128
54170SOL    HW264350  11.412   8.986   7.987
54171SOL     OW64351   9.539   1.506   4.455
54171SOL    HW164352   9.628   1.540   4.465
54171SOL    HW264353   9.519   1.466   4.539
54172SOL     OW64354   2.048   2.256  11.517
54172SOL    HW164355   2.062   2.212  11.600
54172SOL    HW264356   2.135   2.284  11.489
54173SOL     OW64357   4.508   8.373  13.709
54173SOL    HW164358   4.472   8.425  13.637
54173SOL    HW264359   4.443   8.381  13.779
54174SOL     OW64360  10.953   6.174   7.382
54174SOL    HW164361  10.945   6.109   7.452
54174SOL    HW264362  11.035   6.220   7.402
54175SOL     OW64363   7.132  14.473   7.003
54175SOL    HW164364   7.221  14.491   7.034
54175SOL    HW264365   7.135  14.382   6.973
54176SOL     OW64366   5.026  12.098  11.323
54176SOL    HW164367   5.095  12.052  11.371
54176SOL    HW264368   5.073  12.163  11.270
54177SOL     OW64369  13.207   6.590  11.099
54177SOL    HW164370  13.200   6.518  11.162
54177SOL    HW264371  13.144   6.655  11.131
54178SOL     OW64372  10.201  11.979   0.690
54178SOL    HW164373  10.146  11.909   0.655
54178SOL    HW264374  10.269  11.991   0.624
54179SOL     OW64375   9.643   6.614   9.627
54179SOL    HW164376   9.705   6.541   9.626
54179SOL    HW264377   9.577   6.589   9.692
54180SOL     OW64378   8.204   6.952   5.697
54180SOL    HW164379   8.239   6.897   5.767
54180SOL    HW264380   8.130   6.998   5.737
54181SOL     OW64381   4.013  14.838   5.429
54181SOL    HW164382   4.066   0.003   5.496
54181SOL    HW264383   3.940  14.798   5.477
54182SOL     OW64384   3.343   4.688   8.555
54182SOL    HW164385   3.298   4.769   8.579
54182SOL    HW264386   3.313   4.623   8.618
54183SOL     OW64387   7.948   4.313   6.986
54183SOL    HW164388   8.042   4.320   6.967
54183SOL    HW264389   7.931   4.385   7.047
54184SOL     OW64390   3.410  14.166   9.402
54184SOL    HW164391   3.427  14.175   9.496
54184SOL    HW264392   3.488  14.121   9.368
54185SOL     OW64393  14.204   1.465  14.827
54185SOL    HW164394  14.174   1.542  14.778
54185SOL    HW264395  14.295   1.486  14.851
54186SOL     OW64396   3.053  14.597  11.153
54186SOL    HW164397   3.044  14.609  11.247
54186SOL    HW264398   3.050  14.685  11.117
54187SOL     OW64399   5.795  13.289   4.742
54187SOL    HW164400   5.882  13.260   4.714
54187SOL    HW264401   5.799  13.288   4.838
54188SOL     OW64402   3.252   7.897   9.549
54188SOL    HW164403   3.235   7.803   9.550
54188SOL    HW264404   3.290   7.914   9.463
54189SOL     OW64405   0.628  14.297  12.708
54189SOL    HW164406   0.611  14.205  12.731
54189SOL    HW264407   0.568  14.347  12.763
54190SOL     OW64408  10.832   9.440   1.176
54190SOL    HW164409  10.766   9.502   1.145
54190SOL    HW264410  10.896   9.495   1.222
54191SOL     OW64411   3.651   7.297   4.228
54191SOL    HW164412   3.629   7.382   4.265
54191SOL    HW264413   3.747   7.292   4.233
54192SOL     OW64414  14.661   0.847   5.536
54192SOL    HW164415  14.656   0.926   5.483
54192SOL    HW264416  14.570   0.826   5.556
54193SOL     OW64417   2.967   3.999  10.487
54193SOL    HW164418   3.016   4.014  10.407
54193SOL    HW264419   2.906   3.928  10.465
54194SOL     OW64420   5.183   6.986   4.262
54194SOL    HW164421   5.145   7.072   4.241
54194SOL    HW264422   5.242   6.968   4.190
54195SOL     OW64423   8.275   2.578   1.687
54195SOL    HW164424   8.275   2.638   1.613
54195SOL    HW264425   8.248   2.632   1.761
54196SOL     OW64426   8.503   5.219   3.347
54196SOL    HW164427   8.536   5.152   3.407
54196SOL    HW264428   8.484   5.171   3.266
54197SOL     OW64429   1.083   9.797   9.043
54197SOL    HW164430   1.100   9.778   8.951
54197SOL    HW264431   1.111   9.888   9.055
54198SOL     OW64432   0.002   7.606  12.358
54198SOL    HW164433  14.828   7.661  12.298
54198SOL    HW264434  14.812   7.554  12.404
54199SOL     OW64435  13.832  12.970  10.496
54199SOL    HW164436  13.804  12.900  10.556
54199SOL    HW264437  13.891  13.024  10.548
54200SOL     OW64438   2.069   2.519   1.491
54200SOL    HW164439   2.103   2.607   1.472
54200SOL    HW264440   2.134   2.459   1.456
54201SOL     OW64441   3.611  13.893   4.911
54201SOL    HW164442   3.619  13.881   4.816
54201SOL    HW264443   3.520  13.868   4.930
54202SOL     OW64444   0.692   5.985  10.101
54202SOL    HW164445   0.653   5.908  10.141
54202SOL    HW264446   0.677   5.973  10.007
54203SOL     OW64447   6.662  11.510   5.854
54203SOL    HW164448   6.685  11.497   5.762
54203SOL    HW264449   6.598  11.580   5.854
54204SOL     OW64450   7.196  14.631   6.097
54204SOL    HW164451   7.138  14.559   6.074
54204SOL    HW264452   7.137  14.702   6.124
54205SOL     OW64453   1.410   5.548   5.294
54205SOL    HW164454   1.435   5.610   5.362
54205SOL    HW264455   1.479   5.554   5.228
54206SOL     OW64456  13.406  11.373  12.383
54206SOL    HW164457  13.464  11.316  12.333
54206SOL    HW264458  13.402  11.454  12.332
54207SOL     OW64459   0.497   4.927   6.775
54207SOL    HW164460   0.547   4.888   6.846
54207SOL    HW264461   0.557   4.927   6.700
54208SOL     OW64462   9.669   2.319   6.857
54208SOL    HW164463   9.625   2.340   6.774
54208SOL    HW264464   9.653   2.396   6.912
54209SOL     OW64465   6.800   9.371   0.210
54209SOL    HW164466   6.728   9.431   0.192
54209SOL    HW264467   6.848   9.411   0.282
54210SOL     OW64468  13.410  13.896   8.308
54210SOL    HW164469  13.470  13.944   8.251
54210SOL    HW264470  13.455  13.814   8.327
54211SOL     OW64471   1.078   6.052  14.859
54211SOL    HW164472   1.079   6.034   0.077
54211SOL    HW264473   1.013   5.992  14.824
54212SOL     OW64474   2.485   7.487   8.067
54212SOL    HW164475   2.517   7.577   8.074
54212SOL    HW264476   2.409   7.493   8.010
54213SOL     OW64477   3.440   2.720   6.641
54213SOL    HW164478   3.356   2.751   6.607
54213SOL    HW264479   3.461   2.782   6.711
54214SOL     OW64480   8.444   2.831  12.031
54214SOL    HW164481   8.350   2.821  12.017
54214SOL    HW264482   8.453   2.845  12.126
54215SOL     OW64483   0.462  12.963   0.780
54215SOL    HW164484   0.395  12.969   0.711
54215SOL    HW264485   0.511  13.044   0.772
54216SOL     OW64486   7.512   8.499   8.660
54216SOL    HW164487   7.537   8.488   8.751
54216SOL    HW264488   7.417   8.514   8.663
54217SOL     OW64489  13.392   1.214   1.488
54217SOL    HW164490  13.435   1.178   1.565
54217SOL    HW264491  13.463   1.234   1.427
54218SOL     OW64492   0.375   9.684  12.248
54218SOL    HW164493   0.414   9.600  12.273
54218SOL    HW264494   0.430   9.716  12.177
54219SOL     OW64495  10.712   3.718  10.508
54219SOL    HW164496  10.690   3.639  10.458
54219SOL    HW264497  10.751   3.685  10.589
54220SOL     OW64498  11.967   1.167   0.278
54220SOL    HW164499  11.998   1.114   0.205
54220SOL    HW264500  12.044   1.178   0.334
54221SOL     OW64501   4.322   1.367   7.005
54221SOL    HW164502   4.290   1.450   7.041
54221SOL    HW264503   4.400   1.392   6.954
54222SOL     OW64504   6.547   4.033   0.594
54222SOL    HW164505   6.631   4.015   0.636
54222SOL    HW264506   6.524   4.122   0.621
54223SOL     OW64507  11.755  13.511  12.082
54223SOL    HW164508  11.775  13.429  12.127
54223SOL    HW264509  11.778  13.494  11.990
54224SOL     OW64510   9.816   3.620  14.206
54224SOL    HW164511   9.776   3.686  14.263
54224SOL    HW264512   9.821   3.662  14.120
54225SOL     OW64513   0.928   5.396   1.050
54225SOL    HW164514   0.950   5.430   0.964
54225SOL    HW264515   1.010   5.397   1.098
54226SOL     OW64516   5.884  11.165   5.802
54226SOL    HW164517   5.811  11.159   5.865
54226SOL    HW264518   5.872  11.250   5.760
54227SOL     OW64519   1.357   4.993   3.019
54227SOL    HW164520   1.356   4.908   2.975
54227SOL    HW264521   1.427   4.985   3.084
54228SOL     OW64522  11.245   2.099   9.396
54228SOL    HW164523  11.321   2.073   9.345
54228SOL    HW264524  11.189   2.022   9.398
54229SOL     OW64525   3.038   2.471   5.514
54229SOL    HW164526   2.971   2.417   5.556
54229SOL    HW264527   3.049   2.431   5.427
54230SOL     OW64528   5.156   8.187   8.567
54230SOL    HW164529   5.159   8.144   8.652
54230SOL    HW264530   5.206   8.128   8.509
54231SOL     OW64531   7.833  12.316   1.385
54231SOL    HW164532   7.843  12.255   1.312
54231SOL    HW264533   7.904  12.293   1.445
54232SOL     OW64534   3.355  10.010   9.840
54232SOL    HW164535   3.418  10.073   9.805
54232SOL    HW264536   3.318   9.968   9.763
54233SOL     OW64537   8.957  10.376   8.856
54233SOL    HW164538   9.021  10.447   8.855
54233SOL    HW264539   8.985  10.317   8.786
54234SOL     OW64540  14.005  13.415   8.884
54234SOL    HW164541  13.966  13.390   8.800
54234SOL    HW264542  13.971  13.351   8.946
54235SOL     OW64543  13.683   6.880  10.584
54235SOL    HW164544  13.645   6.813  10.528
54235SOL    HW264545  13.752   6.835  10.633
54236SOL     OW64546   6.762   1.801  13.959
54236SOL    HW164547   6.691   1.816  14.021
54236SOL    HW264548   6.825   1.871  13.976
54237SOL     OW64549   6.836   7.123   6.920
54237SOL    HW164550   6.876   7.112   7.006
54237SOL    HW264551   6.847   7.038   6.877
54238SOL     OW64552   6.245   7.981   4.969
54238SOL    HW164553   6.260   7.994   5.063
54238SOL    HW264554   6.173   7.919   4.964
54239SOL     OW64555   3.278   3.364   9.870
54239SOL    HW164556   3.331   3.337   9.945
54239SOL    HW264557   3.197   3.314   9.879
54240SOL     OW64558  14.778   4.335  13.582
54240SOL    HW164559  14.828   4.348  13.502
54240SOL    HW264560  14.689   4.361  13.559
54241SOL     OW64561  11.293   8.196   4.543
54241SOL    HW164562  11.228   8.144   4.589
54241SOL    HW264563  11.377   8.160   4.570
54242SOL     OW64564   3.990   2.287  12.747
54242SOL    HW164565   4.078   2.312  12.718
54242SOL    HW264566   3.966   2.355  12.809
54243SOL     OW64567   6.800  14.658   6.583
54243SOL    HW164568   6.719  14.649   6.533
54243SOL    HW264569   6.775  14.639   6.673
54244SOL     OW64570  14.150   7.210  13.065
54244SOL    HW164571  14.164   7.127  13.112
54244SOL    HW264572  14.184   7.276  13.125
54245SOL     OW64573   1.306   6.235   3.723
54245SOL    HW164574   1.311   6.213   3.816
54245SOL    HW264575   1.214   6.258   3.709
54246SOL     OW64576   9.586  12.186  12.383
54246SOL    HW164577   9.514  12.208  12.324
54246SOL    HW264578   9.634  12.268  12.394
54247SOL     OW64579  10.120  14.122  14.504
54247SOL    HW164580  10.075  14.192  14.552
54247SOL    HW264581  10.119  14.151  14.413
54248SOL     OW64582  10.015   9.057   7.228
54248SOL    HW164583   9.965   8.978   7.207
54248SOL    HW264584   9.978   9.124   7.171
54249SOL     OW64585   7.795  13.403   5.077
54249SOL    HW164586   7.701  13.389   5.069
54249SOL    HW264587   7.835  13.321   5.047
54250SOL     OW64588  11.753  11.688  10.542
54250SOL    HW164589  11.715  11.603  10.564
54250SOL    HW264590  11.806  11.672  10.464
54251SOL     OW64591   8.949   3.309   1.044
54251SOL    HW164592   8.875   3.249   1.051
54251SOL    HW264593   9.016   3.261   0.997
54252SOL     OW64594  12.258  12.254   3.334
54252SOL    HW164595  12.226  12.269   3.245
54252SOL    HW264596  12.323  12.184   3.324
54253SOL     OW64597   7.152  13.224   3.427
54253SOL    HW164598   7.206  13.175   3.364
54253SOL    HW264599   7.201  13.218   3.509
54254SOL     OW64600   9.630   0.865   6.695
54254SOL    HW164601   9.542   0.902   6.708
54254SOL    HW264602   9.634   0.792   6.757
54255SOL     OW64603   9.457   1.666  13.343
54255SOL    HW164604   9.445   1.572  13.351
54255SOL    HW264605   9.377   1.698  13.301
54256SOL     OW64606   7.624  10.781   3.162
54256SOL    HW164607   7.665  10.851   3.111
54256SOL    HW264608   7.696  10.726   3.190
54257SOL     OW64609   4.972   3.447   8.526
54257SOL    HW164610   5.034   3.377   8.545
54257SOL    HW264611   4.891   3.419   8.569
54258SOL     OW64612   0.227   7.779  11.617
54258SOL    HW164613   0.171   7.853  11.641
54258SOL    HW264614   0.277   7.760  11.697
54259SOL     OW64615  14.788  10.608  13.268
54259SOL    HW164616  14.827  10.521  13.269
54259SOL    HW264617  14.863  10.667  13.257
54260SOL     OW64618   2.009   1.499  12.097
54260SOL    HW164619   2.096   1.514  12.134
54260SOL    HW264620   1.981   1.415  12.133
54261SOL     OW64621   6.820  13.397  14.218
54261SOL    HW164622   6.846  13.321  14.166
54261SOL    HW264623   6.775  13.361  14.294
54262SOL     OW64624   7.990   2.844  14.249
54262SOL    HW164625   7.985   2.938  14.260
54262SOL    HW264626   7.948   2.827  14.165
54263SOL     OW64627   2.709   3.268  10.620
54263SOL    HW164628   2.767   3.234  10.552
54263SOL    HW264629   2.767   3.315  10.679
54264SOL     OW64630  13.740  10.880   2.114
54264SOL    HW164631  13.795  10.875   2.036
54264SOL    HW264632  13.656  10.843   2.087
54265SOL     OW64633   9.457   2.896  12.879
54265SOL    HW164634   9.417   2.968  12.831
54265SOL    HW264635   9.550   2.903  12.858
54266SOL     OW64636  11.108   0.787   0.713
54266SOL    HW164637  11.189   0.799   0.665
54266SOL    HW264638  11.044   0.839   0.665
54267SOL     OW64639   7.631  10.442   8.708
54267SOL    HW164640   7.639  10.413   8.617
54267SOL    HW264641   7.721  10.453   8.738
54268SOL     OW64642   0.587  10.749  14.219
54268SOL    HW164643   0.601  10.655  14.207
54268SOL    HW264644   0.613  10.788  14.136
54269SOL     OW64645  14.226   8.416  11.546
54269SOL    HW164646  14.245   8.386  11.457
54269SOL    HW264647  14.252   8.508  11.547
54270SOL     OW64648   9.800   7.600  14.729
54270SOL    HW164649   9.824   7.530  14.790
54270SOL    HW264650   9.881   7.623  14.685
54271SOL     OW64651   2.334   6.539   6.898
54271SOL    HW164652   2.275   6.490   6.956
54271SOL    HW264653   2.419   6.536   6.942
54272SOL     OW64654   8.189   2.611  11.225
54272SOL    HW164655   8.236   2.612  11.142
54272SOL    HW264656   8.144   2.696  11.228
54273SOL     OW64657   0.199  14.392   4.018
54273SOL    HW164658   0.272  14.383   3.957
54273SOL    HW264659   0.195  14.307   4.063
54274SOL     OW64660  12.584   2.913  14.283
54274SOL    HW164661  12.521   2.868  14.339
54274SOL    HW264662  12.663   2.919  14.337
54275SOL     OW64663  11.750  13.841  14.294
54275SOL    HW164664  11.845  13.846  14.286
54275SOL    HW264665  11.724  13.772  14.233
54276SOL     OW64666  10.072   1.873   0.520
54276SOL    HW164667  10.112   1.803   0.469
54276SOL    HW264668  10.117   1.869   0.605
54277SOL     OW64669  11.925  10.856   9.683
54277SOL    HW164670  11.993  10.917   9.654
54277SOL    HW264671  11.973  10.775   9.704
54278SOL     OW64672  14.345  10.869   6.635
54278SOL    HW164673  14.376  10.934   6.572
54278SOL    HW264674  14.400  10.882   6.712
54279SOL     OW64675   3.034   6.193  12.711
54279SOL    HW164676   3.012   6.158  12.625
54279SOL    HW264677   2.966   6.158  12.769
54280SOL     OW64678   2.975   8.655   9.077
54280SOL    HW164679   2.977   8.561   9.091
54280SOL    HW264680   3.001   8.693   9.161
54281SOL     OW64681   5.354   7.336   3.687
54281SOL    HW164682   5.322   7.387   3.612
54281SOL    HW264683   5.414   7.272   3.648
54282SOL     OW64684   1.900   2.384   0.173
54282SOL    HW164685   1.897   2.381   0.077
54282SOL    HW264686   1.979   2.434   0.193
54283SOL     OW64687   6.043  14.502   8.040
54283SOL    HW164688   5.958  14.535   8.069
54283SOL    HW264689   6.104  14.573   8.057
54284SOL     OW64690   4.036   2.265   3.093
54284SOL    HW164691   3.949   2.283   3.129
54284SOL    HW264692   4.081   2.216   3.163
54285SOL     OW64693  11.111  12.165   2.472
54285SOL    HW164694  11.051  12.137   2.541
54285SOL    HW264695  11.073  12.247   2.439
54286SOL     OW64696   9.583   0.654   9.750
54286SOL    HW164697   9.565   0.747   9.731
54286SOL    HW264698   9.573   0.647   9.844
54287SOL     OW64699  11.202  12.468   0.072
54287SOL    HW164700  11.275  12.456   0.011
54287SOL    HW264701  11.182  12.380   0.103
54288SOL     OW64702   8.491   5.970   3.799
54288SOL    HW164703   8.425   6.038   3.782
54288SOL    HW264704   8.572   6.007   3.764
54289SOL     OW64705   5.907   1.074   1.170
54289SOL    HW164706   5.831   1.119   1.207
54289SOL    HW264707   5.921   1.116   1.084
54290SOL     OW64708   9.994   7.261   2.716
54290SOL    HW164709  10.046   7.200   2.665
54290SOL    HW264710  10.047   7.340   2.721
54291SOL     OW64711   4.894   5.931   9.916
54291SOL    HW164712   4.929   5.941   9.827
54291SOL    HW264713   4.939   5.854   9.950
54292SOL     OW64714   0.789  10.769   2.323
54292SOL    HW164715   0.858  10.783   2.387
54292SOL    HW264716   0.730  10.705   2.364
54293SOL     OW64717  13.295   1.064   4.840
54293SOL    HW164718  13.211   1.049   4.796
54293SOL    HW264719  13.330   1.142   4.796
54294SOL     OW64720  11.143  13.485   0.203
54294SOL    HW164721  11.111  13.497   0.114
54294SOL    HW264722  11.171  13.572   0.231
54295SOL     OW64723   6.303  13.261   9.190
54295SOL    HW164724   6.300  13.204   9.266
54295SOL    HW264725   6.318  13.349   9.226
54296SOL     OW64726  11.708   9.288   2.959
54296SOL    HW164727  11.768   9.293   2.884
54296SOL    HW264728  11.729   9.204   3.000
54297SOL     OW64729  12.492   8.718  14.145
54297SOL    HW164730  12.583   8.706  14.173
54297SOL    HW264731  12.496   8.786  14.078
54298SOL     OW64732  13.069   3.194   8.636
54298SOL    HW164733  13.097   3.269   8.584
54298SOL    HW264734  13.147   3.171   8.688
54299SOL     OW64735   4.256  10.080   2.152
54299SOL    HW164736   4.202  10.117   2.083
54299SOL    HW264737   4.320  10.148   2.173
54300SOL     OW64738   4.543   1.714   7.415
54300SOL    HW164739   4.486   1.733   7.489
54300SOL    HW264740   4.630   1.703   7.454
54301SOL     OW64741   8.301   6.114   1.306
54301SOL    HW164742   8.350   6.071   1.236
54301SOL    HW264743   8.235   6.167   1.260
54302SOL     OW64744  10.477   1.688  11.512
54302SOL    HW164745  10.385   1.663  11.522
54302SOL    HW264746  10.511   1.692  11.602
54303SOL     OW64747  12.523   0.875   5.995
54303SOL    HW164748  12.514   0.852   5.903
54303SOL    HW264749  12.582   0.808   6.031
54304SOL     OW64750   6.101  13.692   7.430
54304SOL    HW164751   6.090  13.787   7.431
54304SOL    HW264752   6.020  13.659   7.391
54305SOL     OW64753  10.866   5.462   5.631
54305SOL    HW164754  10.810   5.537   5.647
54305SOL    HW264755  10.829   5.392   5.685
54306SOL     OW64756   8.400   7.362   1.924
54306SOL    HW164757   8.494   7.364   1.909
54306SOL    HW264758   8.362   7.360   1.836
54307SOL     OW64759   5.159   3.441   1.631
54307SOL    HW164760   5.201   3.525   1.653
54307SOL    HW264761   5.171   3.388   1.710
54308SOL     OW64762  12.457   2.051  13.947
54308SOL    HW164763  12.491   2.139  13.928
54308SOL    HW264764  12.411   2.026  13.867
54309SOL     OW64765   4.420   1.936   4.099
54309SOL    HW164766   4.462   1.948   4.184
54309SOL    HW264767   4.416   1.842   4.087
54310SOL     OW64768   9.521  12.563   5.954
54310SOL    HW164769   9.533  12.470   5.933
54310SOL    HW264770   9.591  12.608   5.907
54311SOL     OW64771  12.379   6.530   3.934
54311SOL    HW164772  12.382   6.487   3.848
54311SOL    HW264773  12.462   6.507   3.975
54312SOL     OW64774   4.259   8.821  12.743
54312SOL    HW164775   4.349   8.804  12.715
54312SOL    HW264776   4.247   8.768  12.822
54313SOL     OW64777   3.586  14.004   0.316
54313SOL    HW164778   3.540  14.087   0.308
54313SOL    HW264779   3.677  14.024   0.291
54314SOL     OW64780  13.243   8.597   7.174
54314SOL    HW164781  13.310   8.541   7.214
54314SOL    HW264782  13.280   8.685   7.178
54315SOL     OW64783   2.117   2.627   7.376
54315SOL    HW164784   2.193   2.664   7.420
54315SOL    HW264785   2.080   2.566   7.440
54316SOL     OW64786  10.684   3.473   5.839
54316SOL    HW164787  10.725   3.434   5.917
54316SOL    HW264788  10.670   3.565   5.862
54317SOL     OW64789   1.407   1.939   2.783
54317SOL    HW164790   1.385   1.846   2.782
54317SOL    HW264791   1.373   1.973   2.700
54318SOL     OW64792   5.047  11.333   9.471
54318SOL    HW164793   5.115  11.265   9.466
54318SOL    HW264794   5.000  11.326   9.388
54319SOL     OW64795  12.248   6.897  11.827
54319SOL    HW164796  12.201   6.917  11.746
54319SOL    HW264797  12.331   6.859  11.798
54320SOL     OW64798   4.304   4.264   9.359
54320SOL    HW164799   4.238   4.236   9.422
54320SOL    HW264800   4.349   4.184   9.334
54321SOL     OW64801   7.692  11.344   0.161
54321SOL    HW164802   7.731  11.257   0.167
54321SOL    HW264803   7.767  11.403   0.150
54322SOL     OW64804   1.133   5.634  14.113
54322SOL    HW164805   1.102   5.549  14.082
54322SOL    HW264806   1.102   5.696  14.047
54323SOL     OW64807  11.303   4.147   0.346
54323SOL    HW164808  11.249   4.183   0.275
54323SOL    HW264809  11.364   4.087   0.302
54324SOL     OW64810   9.557   0.211   6.150
54324SOL    HW164811   9.624   0.154   6.113
54324SOL    HW264812   9.540   0.276   6.082
54325SOL     OW64813   3.104  12.170   1.008
54325SOL    HW164814   3.124  12.262   1.028
54325SOL    HW264815   3.167  12.146   0.940
54326SOL     OW64816   8.670  14.594  10.196
54326SOL    HW164817   8.690  14.685  10.176
54326SOL    HW264818   8.687  14.547  10.115
54327SOL     OW64819  13.105   1.101   0.847
54327SOL    HW164820  13.184   1.051   0.827
54327SOL    HW264821  13.039   1.035   0.870
54328SOL     OW64822   5.154   3.189   5.259
54328SOL    HW164823   5.099   3.111   5.249
54328SOL    HW264824   5.188   3.182   5.348
54329SOL     OW64825   6.000   2.141   8.449
54329SOL    HW164826   6.074   2.187   8.489
54329SOL    HW264827   5.941   2.211   8.421
54330SOL     OW64828   1.429   7.597   9.117
54330SOL    HW164829   1.351   7.605   9.063
54330SOL    HW264830   1.399   7.550   9.196
54331SOL     OW64831   4.220  11.927   2.233
54331SOL    HW164832   4.234  11.857   2.170
54331SOL    HW264833   4.302  11.977   2.232
54332SOL     OW64834   9.614  12.975   3.040
54332SOL    HW164835   9.627  12.965   2.945
54332SOL    HW264836   9.519  12.981   3.050
54333SOL     OW64837  11.151   2.961   2.580
54333SOL    HW164838  11.082   3.028   2.583
54333SOL    HW264839  11.179   2.951   2.671
54334SOL     OW64840   0.242   6.683  11.920
54334SOL    HW164841   0.231   6.758  11.978
54334SOL    HW264842   0.227   6.607  11.976
54335SOL     OW64843   0.149   4.286   1.150
54335SOL    HW164844   0.241   4.261   1.143
54335SOL    HW264845   0.134   4.345   1.076
54336SOL     OW64846   0.383  14.219   7.100
54336SOL    HW164847   0.341  14.164   7.033
54336SOL    HW264848   0.347  14.307   7.085
54337SOL     OW64849   2.702   8.349  11.803
54337SOL    HW164850   2.770   8.413  11.784
54337SOL    HW264851   2.628   8.401  11.834
54338SOL     OW64852   1.071   7.596   8.973
54338SOL    HW164853   1.022   7.519   9.002
54338SOL    HW264854   1.157   7.563   8.949
54339SOL     OW64855   6.563  10.963   2.462
54339SOL    HW164856   6.648  10.974   2.505
54339SOL    HW264857   6.541  11.051   2.431
54340SOL     OW64858   1.643   5.317  13.066
54340SOL    HW164859   1.715   5.256  13.083
54340SOL    HW264860   1.569   5.261  13.044
54341SOL     OW64861  11.149   8.563  11.822
54341SOL    HW164862  11.059   8.555  11.788
54341SOL    HW264863  11.200   8.502  11.770
54342SOL     OW64864   3.159  14.806   8.666
54342SOL    HW164865   3.148  14.713   8.687
54342SOL    HW264866   3.199  14.806   8.579
54343SOL     OW64867   0.380   8.496  10.455
54343SOL    HW164868   0.315   8.554  10.494
54343SOL    HW264869   0.363   8.501  10.361
54344SOL     OW64870   2.703   5.652   8.217
54344SOL    HW164871   2.736   5.564   8.233
54344SOL    HW264872   2.615   5.653   8.254
54345SOL     OW64873   5.592  11.056  13.255
54345SOL    HW164874   5.665  11.042  13.314
54345SOL    HW264875   5.631  11.093  13.176
54346SOL     OW64876  12.031   6.831   6.870
54346SOL    HW164877  12.065   6.747   6.900
54346SOL    HW264878  12.090   6.855   6.798
54347SOL     OW64879  13.474   8.356   2.211
54347SOL    HW164880  13.416   8.286   2.244
54347SOL    HW264881  13.556   8.311   2.192
54348SOL     OW64882   9.454   6.621   8.640
54348SOL    HW164883   9.391   6.617   8.569
54348SOL    HW264884   9.411   6.672   8.708
54349SOL     OW64885  12.180  11.638  11.836
54349SOL    HW164886  12.216  11.559  11.876
54349SOL    HW264887  12.131  11.606  11.760
54350SOL     OW64888  12.041  11.724   8.590
54350SOL    HW164889  12.133  11.749   8.584
54350SOL    HW264890  11.998  11.798   8.633
54351SOL     OW64891   1.174  12.921   3.080
54351SOL    HW164892   1.193  13.005   3.122
54351SOL    HW264893   1.186  12.856   3.149
54352SOL     OW64894   2.528   0.499   9.235
54352SOL    HW164895   2.531   0.593   9.253
54352SOL    HW264896   2.541   0.492   9.141
54353SOL     OW64897   2.799  14.501  14.765
54353SOL    HW164898   2.845  14.547  14.694
54353SOL    HW264899   2.805  14.561  14.839
54354SOL     OW64900  12.638   3.664   2.664
54354SOL    HW164901  12.573   3.595   2.677
54354SOL    HW264902  12.682   3.640   2.582
54355SOL     OW64903   0.693  11.489   9.317
54355SOL    HW164904   0.689  11.561   9.254
54355SOL    HW264905   0.616  11.502   9.373
54356SOL     OW64906   4.215  12.311   5.813
54356SOL    HW164907   4.269  12.387   5.835
54356SOL    HW264908   4.128  12.333   5.844
54357SOL     OW64909   0.848   9.085  13.438
54357SOL    HW164910   0.806   9.163  13.402
54357SOL    HW264911   0.825   9.015  13.376
54358SOL     OW64912   0.023   1.221   0.060
54358SOL    HW164913   0.026   1.316   0.053
54358SOL    HW264914   0.093   1.189   0.003
54359SOL     OW64915   6.549   1.621  13.236
54359SOL    HW164916   6.628   1.569  13.237
54359SOL    HW264917   6.548   1.666  13.321
54360SOL     OW64918   6.250   2.995   8.926
54360SOL    HW164919   6.220   3.032   9.009
54360SOL    HW264920   6.342   3.021   8.920
54361SOL     OW64921   0.511   4.967   3.167
54361SOL    HW164922   0.497   4.958   3.262
54361SOL    HW264923   0.424   4.960   3.129
54362SOL     OW64924   8.928  11.958   3.132
54362SOL    HW164925   8.871  12.034   3.142
54362SOL    HW264926   8.988  11.962   3.207
54363SOL     OW64927   8.464  11.273   6.253
54363SOL    HW164928   8.453  11.178   6.267
54363SOL    HW264929   8.556  11.289   6.270
54364SOL     OW64930  10.381   4.631   1.528
54364SOL    HW164931  10.412   4.630   1.437
54364SOL    HW264932  10.375   4.539   1.552
54365SOL     OW64933   3.830   8.187   0.886
54365SOL    HW164934   3.897   8.120   0.878
54365SOL    HW264935   3.768   8.167   0.815
54366SOL     OW64936  12.980   3.413   9.297
54366SOL    HW164937  12.902   3.380   9.341
54366SOL    HW264938  12.977   3.373   9.210
54367SOL     OW64939   7.862   6.532   2.962
54367SOL    HW164940   7.917   6.488   3.027
54367SOL    HW264941   7.783   6.556   3.011
54368SOL     OW64942  13.363   8.552   8.847
54368SOL    HW164943  13.445   8.555   8.798
54368SOL    HW264944  13.369   8.472   8.899
54369SOL     OW64945   8.329   7.441   0.261
54369SOL    HW164946   8.268   7.476   0.326
54369SOL    HW264947   8.354   7.518   0.209
54370SOL     OW64948   7.923  12.870  14.694
54370SOL    HW164949   7.955  12.795  14.745
54370SOL    HW264950   7.850  12.905  14.745
54371SOL     OW64951  14.666   1.121   7.205
54371SOL    HW164952  14.756   1.100   7.231
54371SOL    HW264953  14.666   1.217   7.196
54372SOL     OW64954   2.008   2.829   6.446
54372SOL    HW164955   1.942   2.862   6.385
54372SOL    HW264956   2.083   2.807   6.391
54373SOL     OW64957  13.290  14.253   4.012
54373SOL    HW164958  13.337  14.187   4.063
54373SOL    HW264959  13.341  14.260   3.930
54374SOL     OW64960  10.285   5.231  13.004
54374SOL    HW164961  10.331   5.170  12.947
54374SOL    HW264962  10.209   5.182  13.035
54375SOL     OW64963   3.141   8.412   4.905
54375SOL    HW164964   3.156   8.473   4.833
54375SOL    HW264965   3.050   8.385   4.894
54376SOL     OW64966   2.809   5.241  14.614
54376SOL    HW164967   2.714   5.256  14.615
54376SOL    HW264968   2.818   5.148  14.591
54377SOL     OW64969   4.352   2.339  14.199
54377SOL    HW164970   4.353   2.374  14.110
54377SOL    HW264971   4.260   2.316  14.215
54378SOL     OW64972   2.755   2.440   8.167
54378SOL    HW164973   2.662   2.420   8.155
54378SOL    HW264974   2.784   2.467   8.080
54379SOL     OW64975   6.829  14.073   1.301
54379SOL    HW164976   6.856  14.067   1.210
54379SOL    HW264977   6.796  13.986   1.322
54380SOL     OW64978  14.281  10.840   0.462
54380SOL    HW164979  14.223  10.900   0.416
54380SOL    HW264980  14.301  10.772   0.397
54381SOL     OW64981   2.904  11.918  10.351
54381SOL    HW164982   2.946  11.929  10.266
54381SOL    HW264983   2.864  12.004  10.369
54382SOL     OW64984   6.001   3.658   8.880
54382SOL    HW164985   5.952   3.631   8.802
54382SOL    HW264986   6.044   3.579   8.911
54383SOL     OW64987   0.720   0.320   7.968
54383SOL    HW164988   0.636   0.365   7.979
54383SOL    HW264989   0.699   0.240   7.920
54384SOL     OW64990  10.589  13.647   0.046
54384SOL    HW164991  10.509  13.594   0.039
54384SOL    HW264992  10.628  13.621   0.129
54385SOL     OW64993  10.851   7.133  11.318
54385SOL    HW164994  10.837   7.051  11.271
54385SOL    HW264995  10.920   7.178  11.270
54386SOL     OW64996  12.439   7.020  14.127
54386SOL    HW164997  12.394   6.939  14.154
54386SOL    HW264998  12.431   7.077  14.203
54387SOL     OW64999   7.860   5.860   7.966
54387SOL    HW165000   7.810   5.921   7.911
54387SOL    HW265001   7.905   5.917   8.029
54388SOL     OW65002  12.676   5.132  12.205
54388SOL    HW165003  12.685   5.217  12.161
54388SOL    HW265004  12.766   5.106  12.224
54389SOL     OW65005   4.390   6.832  10.982
54389SOL    HW165006   4.415   6.742  11.004
54389SOL    HW265007   4.301   6.841  11.014
54390SOL     OW65008   9.166  12.146   2.637
54390SOL    HW165009   9.192  12.195   2.715
54390SOL    HW265010   9.235  12.081   2.624
54391SOL     OW65011  14.553  10.161   1.004
54391SOL    HW165012  14.559  10.248   1.044
54391SOL    HW265013  14.578  10.176   0.912
54392SOL     OW65014   2.079  11.034   4.667
54392SOL    HW165015   2.112  11.117   4.633
54392SOL    HW265016   2.011  11.059   4.730
54393SOL     OW65017   2.993  14.602  11.912
54393SOL    HW165018   3.011  14.511  11.939
54393SOL    HW265019   2.898  14.609  11.913
54394SOL     OW65020   1.549   7.366  11.057
54394SOL    HW165021   1.609   7.382  11.129
54394SOL    HW265022   1.469   7.412  11.082
54395SOL     OW65023   2.773  10.057   6.162
54395SOL    HW165024   2.716   9.981   6.148
54395SOL    HW265025   2.745  10.092   6.247
54396SOL     OW65026   3.746  13.273   2.020
54396SOL    HW165027   3.690  13.227   2.083
54396SOL    HW265028   3.737  13.365   2.042
54397SOL     OW65029  10.414   1.728   1.201
54397SOL    HW165030  10.324   1.760   1.194
54397SOL    HW265031  10.466   1.807   1.216
54398SOL     OW65032   8.914  14.101   1.794
54398SOL    HW165033   8.971  14.034   1.756
54398SOL    HW265034   8.975  14.163   1.835
54399SOL     OW65035   7.709  12.956   5.684
54399SOL    HW165036   7.656  12.892   5.637
54399SOL    HW265037   7.759  13.001   5.616
54400SOL     OW65038   2.103   3.021  10.018
54400SOL    HW165039   2.010   3.011   9.999
54400SOL    HW265040   2.139   2.933  10.006
54401SOL     OW65041  12.374   4.364   9.519
54401SOL    HW165042  12.439   4.343   9.586
54401SOL    HW265043  12.343   4.278   9.489
54402SOL     OW65044   3.406  10.736   7.709
54402SOL    HW165045   3.399  10.688   7.792
54402SOL    HW265046   3.499  10.756   7.701
54403SOL     OW65047   1.775   4.927   4.198
54403SOL    HW165048   1.809   4.985   4.267
54403SOL    HW265049   1.683   4.915   4.221
54404SOL     OW65050   6.105   0.720   5.752
54404SOL    HW165051   6.191   0.710   5.710
54404SOL    HW265052   6.086   0.814   5.744
54405SOL     OW65053   7.646   5.539  13.303
54405SOL    HW165054   7.650   5.547  13.398
54405SOL    HW265055   7.613   5.624  13.273
54406SOL     OW65056   4.901   2.861   9.488
54406SOL    HW165057   4.979   2.849   9.434
54406SOL    HW265058   4.883   2.955   9.483
54407SOL     OW65059  14.301   7.757   4.470
54407SOL    HW165060  14.356   7.801   4.405
54407SOL    HW265061  14.299   7.665   4.442
54408SOL     OW65062  12.516  10.647   1.528
54408SOL    HW165063  12.569  10.669   1.605
54408SOL    HW265064  12.545  10.709   1.461
54409SOL     OW65065   9.809   7.366   8.738
54409SOL    HW165066   9.780   7.290   8.688
54409SOL    HW265067   9.756   7.438   8.704
54410SOL     OW65068  13.337   7.934  12.535
54410SOL    HW165069  13.405   7.980  12.585
54410SOL    HW265070  13.281   8.004  12.502
54411SOL     OW65071   9.042   1.405   6.181
54411SOL    HW165072   8.952   1.384   6.160
54411SOL    HW265073   9.091   1.385   6.101
54412SOL     OW65074   4.472   3.977   1.480
54412SOL    HW165075   4.517   3.900   1.445
54412SOL    HW265076   4.472   3.964   1.575
54413SOL     OW65077  13.483   4.873   0.632
54413SOL    HW165078  13.491   4.964   0.604
54413SOL    HW265079  13.565   4.856   0.680
54414SOL     OW65080   4.239   8.024   6.051
54414SOL    HW165081   4.312   8.058   6.103
54414SOL    HW265082   4.175   7.993   6.115
54415SOL     OW65083   5.628   1.879  14.263
54415SOL    HW165084   5.644   1.852  14.353
54415SOL    HW265085   5.547   1.930  14.266
54416SOL     OW65086   9.728   2.073   8.060
54416SOL    HW165087   9.736   1.979   8.077
54416SOL    HW265088   9.818   2.103   8.051
54417SOL     OW65089   4.730  12.604   4.763
54417SOL    HW165090   4.655  12.662   4.754
54417SOL    HW265091   4.711  12.531   4.704
54418SOL     OW65092   0.116   5.087  14.070
54418SOL    HW165093   0.171   5.162  14.092
54418SOL    HW265094   0.176   5.014  14.060
54419SOL     OW65095   9.256  10.844   0.945
54419SOL    HW165096   9.161  10.845   0.931
54419SOL    HW265097   9.267  10.884   1.032
54420SOL     OW65098   8.360  12.157   7.782
54420SOL    HW165099   8.285  12.168   7.840
54420SOL    HW265100   8.392  12.069   7.801
54421SOL     OW65101   7.617   0.648   5.268
54421SOL    HW165102   7.567   0.619   5.344
54421SOL    HW265103   7.621   0.572   5.210
54422SOL     OW65104   3.791   4.839   5.921
54422SOL    HW165105   3.856   4.790   5.871
54422SOL    HW265106   3.707   4.800   5.896
54423SOL     OW65107   3.042  13.977   8.560
54423SOL    HW165108   2.949  13.952   8.565
54423SOL    HW265109   3.088  13.897   8.537
54424SOL     OW65110  11.953   7.865   3.426
54424SOL    HW165111  11.977   7.902   3.511
54424SOL    HW265112  11.859   7.883   3.419
54425SOL     OW65113   1.962   8.695   7.928
54425SOL    HW165114   2.045   8.648   7.932
54425SOL    HW265115   1.912   8.649   7.861
54426SOL     OW65116   5.879  10.867   6.586
54426SOL    HW165117   5.816  10.932   6.556
54426SOL    HW265118   5.889  10.807   6.511
54427SOL     OW65119  13.957   8.409  14.255
54427SOL    HW165120  13.984   8.355  14.181
54427SOL    HW265121  14.038   8.442  14.293
54428SOL     OW65122   1.093   0.531   4.296
54428SOL    HW165123   1.122   0.622   4.282
54428SOL    HW265124   1.042   0.534   4.377
54429SOL     OW65125  12.424   8.242   1.821
54429SOL    HW165126  12.493   8.308   1.826
54429SOL    HW265127  12.389   8.236   1.910
54430SOL     OW65128   2.469  10.956   2.422
54430SOL    HW165129   2.423  10.918   2.497
54430SOL    HW265130   2.544  11.002   2.461
54431SOL     OW65131  10.298   4.681  10.244
54431SOL    HW165132  10.219   4.662  10.294
54431SOL    HW265133  10.357   4.608  10.263
54432SOL     OW65134   8.442   8.184   2.372
54432SOL    HW165135   8.494   8.247   2.421
54432SOL    HW265136   8.483   8.182   2.285
54433SOL     OW65137   1.687  13.249   7.228
54433SOL    HW165138   1.653  13.171   7.272
54433SOL    HW265139   1.627  13.263   7.155
54434SOL     OW65140   8.578   3.107  13.174
54434SOL    HW165141   8.553   3.081  13.086
54434SOL    HW265142   8.600   3.025  13.218
54435SOL     OW65143   4.296   5.764   5.502
54435SOL    HW165144   4.310   5.854   5.473
54435SOL    HW265145   4.329   5.710   5.430
54436SOL     OW65146   3.270  13.144   3.211
54436SOL    HW165147   3.179  13.128   3.234
54436SOL    HW265148   3.303  13.059   3.182
54437SOL     OW65149   3.267  14.432   3.831
54437SOL    HW165150   3.329  14.426   3.904
54437SOL    HW265151   3.233  14.521   3.835
54438SOL     OW65152  14.032  13.639   2.995
54438SOL    HW165153  13.937  13.636   3.009
54438SOL    HW265154  14.042  13.657   2.902
54439SOL     OW65155   9.463   6.801  14.094
54439SOL    HW165156   9.487   6.749  14.170
54439SOL    HW265157   9.367   6.800  14.094
54440SOL     OW65158   8.496   8.335  12.310
54440SOL    HW165159   8.516   8.419  12.268
54440SOL    HW265160   8.535   8.270  12.251
54441SOL     OW65161   6.856   4.367   9.533
54441SOL    HW165162   6.845   4.411   9.448
54441SOL    HW265163   6.878   4.438   9.594
54442SOL     OW65164   3.666  14.287  13.046
54442SOL    HW165165   3.629  14.223  12.985
54442SOL    HW265166   3.748  14.315  13.005
54443SOL     OW65167   5.245  13.245  10.853
54443SOL    HW165168   5.298  13.167  10.837
54443SOL    HW265169   5.159  13.223  10.815
54444SOL     OW65170  10.054   5.768   6.528
54444SOL    HW165171  10.140   5.794   6.563
54444SOL    HW265172  10.074   5.701   6.462
54445SOL     OW65173  14.416   8.282   4.122
54445SOL    HW165174  14.353   8.256   4.189
54445SOL    HW265175  14.454   8.200   4.091
54446SOL     OW65176   8.729   5.348   0.074
54446SOL    HW165177   8.768   5.334   0.160
54446SOL    HW265178   8.794   5.314   0.013
54447SOL     OW65179   1.692   3.065  14.233
54447SOL    HW165180   1.780   3.038  14.207
54447SOL    HW265181   1.706   3.122  14.309
54448SOL     OW65182   9.914  10.500   3.474
54448SOL    HW165183   9.866  10.421   3.501
54448SOL    HW265184   9.853  10.572   3.494
54449SOL     OW65185   0.020   6.595   3.756
54449SOL    HW165186   0.026   6.684   3.790
54449SOL    HW265187   0.049   6.539   3.828
54450SOL     OW65188   6.964   0.046  14.333
54450SOL    HW165189   6.891   0.104  14.354
54450SOL    HW265190   7.021   0.051  14.409
54451SOL     OW65191   4.690   9.311  14.497
54451SOL    HW165192   4.630   9.258  14.445
54451SOL    HW265193   4.717   9.381  14.437
54452SOL     OW65194   7.992  13.720  13.505
54452SOL    HW165195   8.011  13.785  13.573
54452SOL    HW265196   7.929  13.661  13.545
54453SOL     OW65197   6.959   5.573   8.080
54453SOL    HW165198   6.874   5.550   8.042
54453SOL    HW265199   6.993   5.490   8.115
54454SOL     OW65200  14.232   3.350   9.453
54454SOL    HW165201  14.208   3.341   9.361
54454SOL    HW265202  14.324   3.322   9.456
54455SOL     OW65203  11.098   4.984   7.526
54455SOL    HW165204  11.020   5.038   7.522
54455SOL    HW265205  11.067   4.894   7.514
54456SOL     OW65206   1.890  11.965  10.617
54456SOL    HW165207   1.840  12.044  10.636
54456SOL    HW265208   1.829  11.908  10.570
54457SOL     OW65209   0.084   3.700   1.231
54457SOL    HW165210   0.118   3.610   1.230
54457SOL    HW265211   0.076   3.722   1.323
54458SOL     OW65212  10.839  10.420   8.470
54458SOL    HW165213  10.892  10.462   8.537
54458SOL    HW265214  10.876  10.452   8.387
54459SOL     OW65215   1.745   5.604   3.006
54459SOL    HW165216   1.695   5.586   3.085
54459SOL    HW265217   1.821   5.654   3.036
54460SOL     OW65218  11.511  10.287   5.025
54460SOL    HW165219  11.556  10.273   5.108
54460SOL    HW265220  11.499  10.382   5.020
54461SOL     OW65221   9.857   5.597   3.138
54461SOL    HW165222   9.946   5.564   3.144
54461SOL    HW265223   9.803   5.520   3.124
54462SOL     OW65224  11.805   8.070   7.433
54462SOL    HW165225  11.770   8.049   7.520
54462SOL    HW265226  11.882   8.014   7.424
54463SOL     OW65227  13.989   1.764   0.939
54463SOL    HW165228  13.916   1.702   0.937
54463SOL    HW265229  14.000   1.791   0.847
54464SOL     OW65230  11.074   9.908   3.622
54464SOL    HW165231  11.132   9.912   3.699
54464SOL    HW265232  10.986   9.919   3.658
54465SOL     OW65233   1.426   1.968   7.731
54465SOL    HW165234   1.359   2.003   7.673
54465SOL    HW265235   1.508   2.005   7.698
54466SOL     OW65236   8.673   7.761   3.963
54466SOL    HW165237   8.751   7.815   3.967
54466SOL    HW265238   8.701   7.675   3.994
54467SOL     OW65239   8.402   4.554  11.481
54467SOL    HW165240   8.466   4.618  11.451
54467SOL    HW265241   8.334   4.606  11.524
54468SOL     OW65242   5.118   5.676   8.531
54468SOL    HW165243   5.153   5.606   8.586
54468SOL    HW265244   5.121   5.640   8.442
54469SOL     OW65245   5.107   9.555   1.437
54469SOL    HW165246   5.026   9.596   1.407
54469SOL    HW265247   5.079   9.489   1.500
54470SOL     OW65248   8.696   1.623   6.311
54470SOL    HW165249   8.785   1.657   6.299
54470SOL    HW265250   8.639   1.692   6.278
54471SOL     OW65251   6.673   1.584   8.933
54471SOL    HW165252   6.760   1.570   8.895
54471SOL    HW265253   6.680   1.550   9.022
54472SOL     OW65254  10.735   1.012   4.583
54472SOL    HW165255  10.756   0.954   4.511
54472SOL    HW265256  10.768   1.098   4.556
54473SOL     OW65257   4.658   2.993  12.412
54473SOL    HW165258   4.594   3.064  12.416
54473SOL    HW265259   4.613   2.923  12.364
54474SOL     OW65260   9.753   2.274   3.039
54474SOL    HW165261   9.834   2.231   3.066
54474SOL    HW265262   9.712   2.301   3.121
54475SOL     OW65263  14.741   9.212   3.199
54475SOL    HW165264  14.786   9.129   3.212
54475SOL    HW265265  14.812   9.275   3.183
54476SOL     OW65266  14.621  10.655  12.123
54476SOL    HW165267  14.592  10.603  12.048
54476SOL    HW265268  14.540  10.690  12.161
54477SOL     OW65269   1.764   7.436  13.181
54477SOL    HW165270   1.682   7.395  13.209
54477SOL    HW265271   1.833   7.379  13.215
54478SOL     OW65272   6.325   5.398   9.050
54478SOL    HW165273   6.357   5.487   9.060
54478SOL    HW265274   6.404   5.344   9.052
54479SOL     OW65275  14.702  10.417   4.910
54479SOL    HW165276  14.702  10.442   4.818
54479SOL    HW265277  14.782  10.366   4.921
54480SOL     OW65278   4.801   1.603   0.146
54480SOL    HW165279   4.883   1.619   0.099
54480SOL    HW265280   4.823   1.533   0.208
54481SOL     OW65281   2.690   2.008  14.425
54481SOL    HW165282   2.724   2.095  14.403
54481SOL    HW265283   2.739   1.948  14.368
54482SOL     OW65284   0.484  10.168   1.300
54482SOL    HW165285   0.571  10.129   1.305
54482SOL    HW265286   0.465  10.172   1.206
54483SOL     OW65287   9.839   7.006  10.309
54483SOL    HW165288   9.911   7.032  10.367
54483SOL    HW265289   9.853   6.913  10.293
54484SOL     OW65290   5.149   7.690   6.161
54484SOL    HW165291   5.109   7.633   6.096
54484SOL    HW265292   5.237   7.655   6.174
54485SOL     OW65293   7.027  11.404   6.312
54485SOL    HW165294   7.095  11.403   6.244
54485SOL    HW265295   7.055  11.473   6.372
54486SOL     OW65296  14.369   4.366  13.549
54486SOL    HW165297  14.430   4.420  13.499
54486SOL    HW265298  14.288   4.368  13.499
54487SOL     OW65299  10.163   3.505   5.848
54487SOL    HW165300  10.144   3.562   5.773
54487SOL    HW265301  10.187   3.421   5.809
54488SOL     OW65302   3.984   6.134  10.180
54488SOL    HW165303   4.009   6.224  10.159
54488SOL    HW265304   3.905   6.118  10.128
54489SOL     OW65305   6.054  10.155  10.310
54489SOL    HW165306   5.993  10.090  10.345
54489SOL    HW265307   6.116  10.172  10.381
54490SOL     OW65308   5.709  10.952  12.407
54490SOL    HW165309   5.647  10.963  12.479
54490SOL    HW265310   5.790  10.992  12.438
54491SOL     OW65311  10.662   0.215   5.019
54491SOL    HW165312  10.744   0.170   5.035
54491SOL    HW265313  10.621   0.167   4.947
54492SOL     OW65314   8.229   9.429   1.435
54492SOL    HW165315   8.140   9.398   1.418
54492SOL    HW265316   8.273   9.422   1.350
54493SOL     OW65317   1.097  10.071  10.603
54493SOL    HW165318   1.092  10.008  10.531
54493SOL    HW265319   1.182  10.113  10.593
54494SOL     OW65320  12.277   8.450   7.438
54494SOL    HW165321  12.289   8.491   7.523
54494SOL    HW265322  12.226   8.371   7.456
54495SOL     OW65323  13.466   2.216   7.691
54495SOL    HW165324  13.442   2.130   7.723
54495SOL    HW265325  13.516   2.199   7.611
54496SOL     OW65326   9.347  11.919  13.680
54496SOL    HW165327   9.382  11.987  13.622
54496SOL    HW265328   9.425  11.875  13.714
54497SOL     OW65329   0.118  13.826   2.420
54497SOL    HW165330   0.157  13.853   2.503
54497SOL    HW265331   0.183  13.850   2.354
54498SOL     OW65332   1.896  13.980   2.461
54498SOL    HW165333   1.869  14.033   2.385
54498SOL    HW265334   1.982  13.946   2.436
54499SOL     OW65335   8.902   8.016   8.757
54499SOL    HW165336   8.993   7.999   8.785
54499SOL    HW265337   8.864   7.929   8.747
54500SOL     OW65338  14.118   9.718   5.785
54500SOL    HW165339  14.194   9.774   5.779
54500SOL    HW265340  14.105   9.685   5.696
54501SOL     OW65341  12.342  13.703   1.213
54501SOL    HW165342  12.351  13.797   1.229
54501SOL    HW265343  12.275  13.696   1.146
54502SOL     OW65344  12.542  11.623   0.871
54502SOL    HW165345  12.536  11.583   0.784
54502SOL    HW265346  12.465  11.589   0.918
54503SOL     OW65347   8.348   6.181   9.877
54503SOL    HW165348   8.385   6.239   9.810
54503SOL    HW265349   8.316   6.241   9.945
54504SOL     OW65350   8.184   4.785  10.013
54504SOL    HW165351   8.128   4.735   9.953
54504SOL    HW265352   8.224   4.853   9.958
54505SOL     OW65353   4.435   9.788  10.957
54505SOL    HW165354   4.433   9.780  11.053
54505SOL    HW265355   4.422   9.882  10.941
54506SOL     OW65356   4.573   3.842  13.745
54506SOL    HW165357   4.535   3.758  13.718
54506SOL    HW265358   4.551   3.850  13.838
54507SOL     OW65359   1.818   4.812  14.161
54507SOL    HW165360   1.843   4.860  14.082
54507SOL    HW265361   1.803   4.880  14.226
54508SOL     OW65362  12.353   2.141   3.624
54508SOL    HW165363  12.324   2.066   3.570
54508SOL    HW265364  12.408   2.101   3.692
54509SOL     OW65365  14.287   3.091  14.536
54509SOL    HW165366  14.348   3.146  14.487
54509SOL    HW265367  14.290   3.006  14.492
54510SOL     OW65368   0.041   4.006   2.894
54510SOL    HW165369   0.124   4.054   2.889
54510SOL    HW265370   0.064   3.916   2.871
54511SOL     OW65371   1.302   3.809   0.227
54511SOL    HW165372   1.381   3.785   0.178
54511SOL    HW265373   1.258   3.726   0.244
54512SOL     OW65374  10.212   8.930  14.029
54512SOL    HW165375  10.195   9.017  13.993
54512SOL    HW265376  10.229   8.876  13.952
54513SOL     OW65377  10.975  14.263   9.472
54513SOL    HW165378  10.980  14.206   9.395
54513SOL    HW265379  10.968  14.351   9.435
54514SOL     OW65380   7.506   7.996   0.523
54514SOL    HW165381   7.591   7.958   0.499
54514SOL    HW265382   7.526   8.084   0.552
54515SOL     OW65383  10.189   7.255   6.911
54515SOL    HW165384  10.235   7.171   6.908
54515SOL    HW265385  10.203   7.286   7.001
54516SOL     OW65386  13.532  11.984  12.186
54516SOL    HW165387  13.590  11.909  12.201
54516SOL    HW265388  13.453  11.947  12.147
54517SOL     OW65389   6.463  10.044  10.170
54517SOL    HW165390   6.524  10.028  10.098
54517SOL    HW265391   6.407  10.115  10.139
54518SOL     OW65392  13.700   5.056   1.970
54518SOL    HW165393  13.710   5.106   2.051
54518SOL    HW265394  13.660   5.117   1.908
54519SOL     OW65395   3.905   9.753   1.742
54519SOL    HW165396   3.907   9.687   1.673
54519SOL    HW265397   3.816   9.788   1.739
54520SOL     OW65398   6.125   8.912   4.210
54520SOL    HW165399   6.217   8.927   4.230
54520SOL    HW265400   6.104   8.831   4.256
54521SOL     OW65401   0.520   0.094   1.222
54521SOL    HW165402   0.524   0.089   1.127
54521SOL    HW265403   0.434   0.129   1.242
54522SOL     OW65404  13.017   4.780   8.978
54522SOL    HW165405  13.006   4.751   9.069
54522SOL    HW265406  12.999   4.702   8.926
54523SOL     OW65407  12.016  12.391  11.087
54523SOL    HW165408  11.985  12.481  11.076
54523SOL    HW265409  12.011  12.353  11.000
54524SOL     OW65410   4.082  12.151   6.737
54524SOL    HW165411   4.013  12.211   6.767
54524SOL    HW265412   4.036  12.071   6.713
54525SOL     OW65413   1.598   0.855   9.226
54525SOL    HW165414   1.534   0.906   9.176
54525SOL    HW265415   1.682   0.876   9.186
54526SOL     OW65416  14.324   7.264   9.936
54526SOL    HW165417  14.379   7.316   9.994
54526SOL    HW265418  14.377   7.253   9.856
54527SOL     OW65419  10.187   8.023   3.997
54527SOL    HW165420  10.231   7.953   4.045
54527SOL    HW265421  10.258   8.081   3.969
54528SOL     OW65422   3.162   7.928   5.702
54528SOL    HW165423   3.212   8.008   5.684
54528SOL    HW265424   3.223   7.857   5.687
54529SOL     OW65425   5.439   3.669  11.131
54529SOL    HW165426   5.400   3.638  11.049
54529SOL    HW265427   5.457   3.590  11.181
54530SOL     OW65428   2.398   0.063  13.268
54530SOL    HW165429   2.319   0.020  13.299
54530SOL    HW265430   2.465   0.040  13.332
54531SOL     OW65431   7.016   0.253  14.771
54531SOL    HW165432   6.959   0.315  14.816
54531SOL    HW265433   7.088   0.307  14.738
54532SOL     OW65434   1.315  14.636   0.489
54532SOL    HW165435   1.262  14.662   0.564
54532SOL    HW265436   1.405  14.653   0.516
54533SOL     OW65437   6.346   8.641   5.116
54533SOL    HW165438   6.284   8.647   5.190
54533SOL    HW265439   6.389   8.556   5.128
54534SOL     OW65440   9.078   6.173   0.536
54534SOL    HW165441   9.136   6.235   0.582
54534SOL    HW265442   9.095   6.191   0.443
54535SOL     OW65443   8.457   8.928  12.227
54535SOL    HW165444   8.547   8.956  12.211
54535SOL    HW265445   8.435   8.875  12.150
54536SOL     OW65446   7.964  10.974   8.204
54536SOL    HW165447   7.885  11.029   8.200
54536SOL    HW265448   7.937  10.896   8.253
54537SOL     OW65449   7.233   8.939  14.374
54537SOL    HW165450   7.260   8.948  14.282
54537SOL    HW265451   7.152   8.888  14.370
54538SOL     OW65452   0.554  12.540   7.898
54538SOL    HW165453   0.614  12.577   7.963
54538SOL    HW265454   0.519  12.461   7.940
54539SOL     OW65455   5.153   6.286  12.211
54539SOL    HW165456   5.203   6.214  12.173
54539SOL    HW265457   5.134   6.343  12.136
54540SOL     OW65458   4.355  14.071   1.514
54540SOL    HW165459   4.334  13.979   1.497
54540SOL    HW265460   4.352  14.113   1.428
54541SOL     OW65461  14.106   7.609   5.122
54541SOL    HW165462  14.125   7.651   5.038
54541SOL    HW265463  14.191   7.600   5.164
54542SOL     OW65464   1.967  13.632   8.416
54542SOL    HW165465   1.934  13.571   8.350
54542SOL    HW265466   2.009  13.702   8.366
54543SOL     OW65467   4.889  10.724   4.090
54543SOL    HW165468   4.903  10.686   4.003
54543SOL    HW265469   4.976  10.735   4.126
54544SOL     OW65470   9.764   1.890   5.169
54544SOL    HW165471   9.747   1.871   5.076
54544SOL    HW265472   9.677   1.904   5.206
54545SOL     OW65473  10.339   3.668  10.082
54545SOL    HW165474  10.428   3.641  10.060
54545SOL    HW265475  10.349   3.754  10.122
54546SOL     OW65476   6.989   8.799  14.321
54546SOL    HW165477   6.914   8.831  14.370
54546SOL    HW265478   6.967   8.816  14.229
54547SOL     OW65479   8.888  11.957   7.370
54547SOL    HW165480   8.925  12.043   7.349
54547SOL    HW265481   8.841  11.971   7.452
54548SOL     OW65482   5.651  10.341  10.933
54548SOL    HW165483   5.559  10.346  10.960
54548SOL    HW265484   5.699  10.381  11.006
54549SOL     OW65485   0.076   1.184   8.025
54549SOL    HW165486  14.864   1.148   8.038
54549SOL    HW265487   0.094   1.171   7.932
54550SOL     OW65488  12.283  11.232  11.625
54550SOL    HW165489  12.204  11.247  11.676
54550SOL    HW265490  12.265  11.274  11.541
54551SOL     OW65491  12.816  10.483  13.724
54551SOL    HW165492  12.819  10.572  13.688
54551SOL    HW265493  12.772  10.432  13.657
54552SOL     OW65494   2.625  10.767  13.230
54552SOL    HW165495   2.666  10.681  13.217
54552SOL    HW265496   2.660  10.798  13.313
54553SOL     OW65497   2.219   3.010  14.463
54553SOL    HW165498   2.267   3.051  14.535
54553SOL    HW265499   2.253   2.921  14.459
54554SOL     OW65500   0.058   8.955   1.559
54554SOL    HW165501   0.061   8.873   1.608
54554SOL    HW265502   0.097   8.935   1.474
54555SOL     OW65503  14.014  10.316  11.412
54555SOL    HW165504  14.052  10.352  11.492
54555SOL    HW265505  14.069  10.352  11.342
54556SOL     OW65506  11.994   1.835   8.388
54556SOL    HW165507  11.931   1.794   8.329
54556SOL    HW265508  11.942   1.892   8.444
54557SOL     OW65509   8.035   1.241   3.827
54557SOL    HW165510   7.962   1.189   3.861
54557SOL    HW265511   8.066   1.290   3.903
54558SOL     OW65512   8.003   6.300  12.774
54558SOL    HW165513   8.066   6.239  12.813
54558SOL    HW265514   7.972   6.353  12.848
54559SOL     OW65515   8.000  11.629   2.502
54559SOL    HW165516   8.026  11.689   2.432
54559SOL    HW265517   8.059  11.555   2.493
54560SOL     OW65518   5.801   5.093   0.747
54560SOL    HW165519   5.883   5.074   0.792
54560SOL    HW265520   5.734   5.080   0.813
54561SOL     OW65521   8.245   5.498   7.017
54561SOL    HW165522   8.178   5.564   7.030
54561SOL    HW265523   8.215   5.423   7.068
54562SOL     OW65524   6.773   6.168   6.255
54562SOL    HW165525   6.795   6.174   6.347
54562SOL    HW265526   6.677   6.170   6.253
54563SOL     OW65527   2.390  10.720   8.901
54563SOL    HW165528   2.440  10.798   8.926
54563SOL    HW265529   2.311  10.724   8.954
54564SOL     OW65530  10.357   2.993  11.958
54564SOL    HW165531  10.281   2.969  12.010
54564SOL    HW265532  10.431   2.986  12.018
54565SOL     OW65533  10.582   6.695   3.978
54565SOL    HW165534  10.586   6.787   4.006
54565SOL    HW265535  10.513   6.656   4.032
54566SOL     OW65536   6.237  14.828  10.532
54566SOL    HW165537   6.266   0.038  10.560
54566SOL    HW265538   6.317  14.775  10.531
54567SOL     OW65539  14.575   1.977  11.795
54567SOL    HW165540  14.584   1.912  11.864
54567SOL    HW265541  14.481   1.985  11.781
54568SOL     OW65542  11.029  12.906  10.731
54568SOL    HW165543  11.033  12.962  10.809
54568SOL    HW265544  11.037  12.817  10.765
54569SOL     OW65545   5.021   7.231  13.796
54569SOL    HW165546   5.017   7.310  13.742
54569SOL    HW265547   5.090   7.248  13.859
54570SOL     OW65548   1.376   2.725   0.348
54570SOL    HW165549   1.350   2.647   0.397
54570SOL    HW265550   1.329   2.718   0.264
54571SOL     OW65551   8.500   1.103   7.084
54571SOL    HW165552   8.420   1.129   7.039
54571SOL    HW265553   8.547   1.185   7.099
54572SOL     OW65554  12.195  10.776   3.917
54572SOL    HW165555  12.208  10.789   4.011
54572SOL    HW265556  12.116  10.826   3.897
54573SOL     OW65557   0.334   9.222  13.671
54573SOL    HW165558   0.240   9.240  13.673
54573SOL    HW265559   0.375   9.309  13.676
54574SOL     OW65560  10.913   0.588   7.740
54574SOL    HW165561  10.838   0.594   7.800
54574SOL    HW265562  10.989   0.608   7.795
54575SOL     OW65563   3.838  13.846   9.665
54575SOL    HW165564   3.754  13.891   9.678
54575SOL    HW265565   3.897  13.886   9.728
54576SOL     OW65566   7.386   3.197   9.863
54576SOL    HW165567   7.455   3.152   9.911
54576SOL    HW265568   7.382   3.284   9.903
54577SOL     OW65569   0.401   8.239   6.380
54577SOL    HW165570   0.471   8.235   6.445
54577SOL    HW265571   0.323   8.263   6.430
54578SOL     OW65572   3.648  11.592  12.695
54578SOL    HW165573   3.601  11.548  12.767
54578SOL    HW265574   3.720  11.638  12.738
54579SOL     OW65575   0.864  10.087   9.760
54579SOL    HW165576   0.793  10.150   9.773
54579SOL    HW265577   0.819  10.006   9.737
54580SOL     OW65578   6.012  10.102   9.410
54580SOL    HW165579   5.942  10.061   9.360
54580SOL    HW265580   6.077  10.127   9.344
54581SOL     OW65581  13.642   1.381  10.920
54581SOL    HW165582  13.686   1.448  10.972
54581SOL    HW265583  13.564   1.426  10.885
54582SOL     OW65584   1.517  14.540   2.158
54582SOL    HW165585   1.568  14.583   2.227
54582SOL    HW265586   1.562  14.564   2.077
54583SOL     OW65587  11.288   3.197  12.073
54583SOL    HW165588  11.237   3.262  12.026
54583SOL    HW265589  11.229   3.121  12.079
54584SOL     OW65590   5.218   2.342   9.212
54584SOL    HW165591   5.243   2.309   9.126
54584SOL    HW265592   5.125   2.322   9.219
54585SOL     OW65593   6.312   1.763   0.930
54585SOL    HW165594   6.368   1.821   0.981
54585SOL    HW265595   6.223   1.790   0.952
54586SOL     OW65596   1.519  14.481  12.541
54586SOL    HW165597   1.494  14.558  12.592
54586SOL    HW265598   1.615  14.486  12.537
54587SOL     OW65599  11.170   1.728   2.120
54587SOL    HW165600  11.084   1.696   2.093
54587SOL    HW265601  11.171   1.820   2.094
54588SOL     OW65602   2.970   0.937   4.715
54588SOL    HW165603   2.907   0.987   4.664
54588SOL    HW265604   3.051   0.940   4.664
54589SOL     OW65605   6.668  12.707   9.350
54589SOL    HW165606   6.601  12.746   9.294
54589SOL    HW265607   6.622  12.684   9.430
54590SOL     OW65608  12.303  14.260   3.921
54590SOL    HW165609  12.304  14.223   4.009
54590SOL    HW265610  12.216  14.297   3.911
54591SOL     OW65611   1.505   6.300   7.712
54591SOL    HW165612   1.559   6.349   7.775
54591SOL    HW265613   1.416   6.305   7.748
54592SOL     OW65614  11.076  14.712   5.644
54592SOL    HW165615  11.016  14.659   5.695
54592SOL    HW265616  11.094  14.789   5.699
54593SOL     OW65617   1.087   3.997   8.418
54593SOL    HW165618   1.004   3.986   8.465
54593SOL    HW265619   1.154   3.995   8.487
54594SOL     OW65620  10.055  13.354   8.546
54594SOL    HW165621  10.026  13.393   8.463
54594SOL    HW265622  10.130  13.299   8.521
54595SOL     OW65623   1.988   9.402   1.238
54595SOL    HW165624   2.077   9.437   1.240
54595SOL    HW265625   1.966   9.385   1.329
54596SOL     OW65626   4.700   1.123  10.311
54596SOL    HW165627   4.734   1.174  10.384
54596SOL    HW265628   4.746   1.155  10.234
54597SOL     OW65629   7.265  10.702   6.825
54597SOL    HW165630   7.197  10.767   6.846
54597SOL    HW265631   7.216  10.624   6.800
54598SOL     OW65632  14.876  11.054   1.608
54598SOL    HW165633  14.845  11.098   1.687
54598SOL    HW265634   0.016  10.964   1.635
54599SOL     OW65635  10.309   2.367  10.547
54599SOL    HW165636  10.228   2.415  10.567
54599SOL    HW265637  10.340   2.336  10.632
54600SOL     OW65638   8.211   9.612   2.083
54600SOL    HW165639   8.127   9.567   2.078
54600SOL    HW265640   8.268   9.551   2.130
54601SOL     OW65641  13.361  10.226   5.351
54601SOL    HW165642  13.451  10.202   5.374
54601SOL    HW265643  13.369  10.314   5.313
54602SOL     OW65644   4.116  11.519   1.934
54602SOL    HW165645   4.164  11.526   1.851
54602SOL    HW265646   4.144  11.435   1.970
54603SOL     OW65647  12.256  12.277  14.320
54603SOL    HW165648  12.185  12.219  14.347
54603SOL    HW265649  12.334  12.221  14.325
54604SOL     OW65650   9.481   2.135   6.960
54604SOL    HW165651   9.523   2.103   7.040
54604SOL    HW265652   9.554   2.147   6.898
54605SOL     OW65653   4.211  12.058  12.472
54605SOL    HW165654   4.166  12.009  12.403
54605SOL    HW265655   4.153  12.132  12.491
54606SOL     OW65656  12.446  11.830  12.916
54606SOL    HW165657  12.509  11.761  12.934
54606SOL    HW265658  12.489  11.885  12.850
54607SOL     OW65659   7.256   5.502   3.156
54607SOL    HW165660   7.239   5.416   3.118
54607SOL    HW265661   7.193   5.509   3.228
54608SOL     OW65662  11.094   7.923   0.887
54608SOL    HW165663  11.050   7.899   0.969
54608SOL    HW265664  11.114   8.016   0.898
54609SOL     OW65665   5.517   9.194   9.435
54609SOL    HW165666   5.514   9.152   9.349
54609SOL    HW265667   5.457   9.144   9.489
54610SOL     OW65668  11.852   0.280   7.219
54610SOL    HW165669  11.925   0.333   7.251
54610SOL    HW265670  11.893   0.208   7.172
54611SOL     OW65671   0.524   5.628   3.284
54611SOL    HW165672   0.452   5.569   3.304
54611SOL    HW265673   0.602   5.573   3.291
54612SOL     OW65674  12.295   4.119  12.322
54612SOL    HW165675  12.307   4.025  12.308
54612SOL    HW265676  12.237   4.146  12.251
54613SOL     OW65677   1.042   2.412   7.973
54613SOL    HW165678   1.021   2.350   8.043
54613SOL    HW265679   1.138   2.417   7.972
54614SOL     OW65680  10.681   6.115   1.414
54614SOL    HW165681  10.764   6.092   1.372
54614SOL    HW265682  10.668   6.048   1.480
54615SOL     OW65683   3.150   0.719   5.049
54615SOL    HW165684   3.246   0.713   5.052
54615SOL    HW265685   3.132   0.805   5.011
54616SOL     OW65686   1.340  13.568   3.032
54616SOL    HW165687   1.303  13.656   3.041
54616SOL    HW265688   1.272  13.510   3.067
54617SOL     OW65689  11.564  10.379   7.046
54617SOL    HW165690  11.557  10.397   7.140
54617SOL    HW265691  11.613  10.298   7.041
54618SOL     OW65692   3.034  10.673   0.039
54618SOL    HW165693   2.982  10.741   0.083
54618SOL    HW265694   3.091  10.639   0.108
54619SOL     OW65695   4.666   5.867   0.590
54619SOL    HW165696   4.745   5.846   0.639
54619SOL    HW265697   4.674   5.960   0.570
54620SOL     OW65698   4.383   7.224   2.685
54620SOL    HW165699   4.446   7.295   2.675
54620SOL    HW265700   4.438   7.146   2.700
54621SOL     OW65701   9.904   2.686   4.873
54621SOL    HW165702   9.894   2.782   4.874
54621SOL    HW265703   9.863   2.658   4.791
54622SOL     OW65704   3.400   9.707   6.866
54622SOL    HW165705   3.316   9.732   6.904
54622SOL    HW265706   3.415   9.617   6.895
54623SOL     OW65707  12.963  13.118   5.776
54623SOL    HW165708  13.011  13.035   5.782
54623SOL    HW265709  12.912  13.110   5.696
54624SOL     OW65710  10.157   4.882  13.733
54624SOL    HW165711  10.083   4.942  13.734
54624SOL    HW265712  10.208   4.905  13.811
54625SOL     OW65713   2.354  12.622   5.454
54625SOL    HW165714   2.389  12.581   5.375
54625SOL    HW265715   2.373  12.561   5.525
54626SOL     OW65716   0.007  11.103  10.761
54626SOL    HW165717  14.864  11.145  10.677
54626SOL    HW265718   0.085  11.148  10.793
54627SOL     OW65719   1.472   2.536   5.486
54627SOL    HW165720   1.454   2.572   5.573
54627SOL    HW265721   1.523   2.457   5.502
54628SOL     OW65722   9.080   1.526   8.649
54628SOL    HW165723   9.122   1.441   8.659
54628SOL    HW265724   9.120   1.563   8.570
54629SOL     OW65725   0.922  13.009  14.204
54629SOL    HW165726   0.937  13.097  14.168
54629SOL    HW265727   0.919  12.952  14.128
54630SOL     OW65728   7.111   3.580   3.792
54630SOL    HW165729   7.195   3.626   3.794
54630SOL    HW265730   7.130   3.497   3.748
54631SOL     OW65731   8.072  12.654  12.547
54631SOL    HW165732   7.988  12.614  12.525
54631SOL    HW265733   8.135  12.582  12.544
54632SOL     OW65734   8.977  13.799   1.783
54632SOL    HW165735   9.019  13.717   1.759
54632SOL    HW265736   8.891  13.773   1.817
54633SOL     OW65737  12.672  12.579   1.929
54633SOL    HW165738  12.584  12.599   1.961
54633SOL    HW265739  12.726  12.651   1.961
54634SOL     OW65740   8.063   4.505  11.640
54634SOL    HW165741   8.113   4.575  11.681
54634SOL    HW265742   8.121   4.429  11.644
54635SOL     OW65743  11.611   8.154  11.615
54635SOL    HW165744  11.667   8.089  11.574
54635SOL    HW265745  11.553   8.103  11.672
54636SOL     OW65746   8.985  12.840   2.665
54636SOL    HW165747   9.073  12.874   2.685
54636SOL    HW265748   8.994  12.745   2.672
54637SOL     OW65749  13.290   9.822   9.139
54637SOL    HW165750  13.204   9.861   9.160
54637SOL    HW265751  13.279   9.729   9.157
54638SOL     OW65752  10.469   6.571  11.208
54638SOL    HW165753  10.417   6.495  11.183
54638SOL    HW265754  10.501   6.607  11.125
54639SOL     OW65755   4.080   7.838  12.108
54639SOL    HW165756   4.089   7.918  12.161
54639SOL    HW265757   4.132   7.855  12.029
54640SOL     OW65758   1.184   4.982   4.049
54640SOL    HW165759   1.232   5.056   4.086
54640SOL    HW265760   1.245   4.942   3.987
54641SOL     OW65761  11.372   9.116   5.081
54641SOL    HW165762  11.457   9.126   5.039
54641SOL    HW265763  11.309   9.148   5.017
54642SOL     OW65764   9.461  12.831   2.148
54642SOL    HW165765   9.451  12.737   2.137
54642SOL    HW265766   9.372  12.863   2.163
54643SOL     OW65767   0.363   6.197   1.199
54643SOL    HW165768   0.325   6.227   1.281
54643SOL    HW265769   0.436   6.257   1.183
54644SOL     OW65770  11.892  12.269   4.691
54644SOL    HW165771  11.938  12.232   4.767
54644SOL    HW265772  11.803  12.235   4.700
54645SOL     OW65773  11.352  10.139   5.984
54645SOL    HW165774  11.433  10.189   5.975
54645SOL    HW265775  11.374  10.051   5.955
54646SOL     OW65776   2.167   4.040   3.542
54646SOL    HW165777   2.125   3.955   3.552
54646SOL    HW265778   2.108   4.101   3.586
54647SOL     OW65779   8.795   8.966  12.286
54647SOL    HW165780   8.738   8.913  12.342
54647SOL    HW265781   8.807   9.047  12.334
54648SOL     OW65782   7.920   4.749   1.973
54648SOL    HW165783   7.936   4.669   1.923
54648SOL    HW265784   7.943   4.820   1.914
54649SOL     OW65785   4.227  13.719  14.867
54649SOL    HW165786   4.195  13.723  14.777
54649SOL    HW265787   4.225  13.809   0.022
54650SOL     OW65788   0.022   2.723  13.674
54650SOL    HW165789  14.829   2.741  13.737
54650SOL    HW265790   0.006   2.785  13.603
54651SOL     OW65791  14.368  14.698  12.624
54651SOL    HW165792  14.276  14.713  12.644
54651SOL    HW265793  14.366  14.642  12.546
54652SOL     OW65794  13.649   4.668   0.514
54652SOL    HW165795  13.580   4.732   0.533
54652SOL    HW265796  13.610   4.584   0.536
54653SOL     OW65797   0.105  10.089   3.776
54653SOL    HW165798   0.152  10.166   3.743
54653SOL    HW265799   0.049  10.123   3.846
54654SOL     OW65800  10.761   5.737   8.428
54654SOL    HW165801  10.747   5.809   8.490
54654SOL    HW265802  10.722   5.769   8.346
54655SOL     OW65803   6.077   9.449   5.943
54655SOL    HW165804   6.076   9.416   5.853
54655SOL    HW265805   6.022   9.389   5.992
54656SOL     OW65806  14.224   0.004   2.699
54656SOL    HW165807  14.256   0.047   2.619
54656SOL    HW265808  14.273   0.044   2.770
54657SOL     OW65809  11.269   0.051   4.835
54657SOL    HW165810  11.305  14.846   4.799
54657SOL    HW265811  11.260   0.034   4.929
54658SOL     OW65812   2.911   2.309   4.912
54658SOL    HW165813   2.850   2.382   4.925
54658SOL    HW265814   2.991   2.337   4.958
54659SOL     OW65815   6.724   5.234   1.509
54659SOL    HW165816   6.710   5.327   1.494
54659SOL    HW265817   6.665   5.190   1.447
54660SOL     OW65818  13.609  13.416   0.254
54660SOL    HW165819  13.520  13.381   0.264
54660SOL    HW265820  13.666  13.339   0.259
54661SOL     OW65821  12.844  14.153   9.952
54661SOL    HW165822  12.812  14.205  10.026
54661SOL    HW265823  12.795  14.186   9.877
54662SOL     OW65824  11.273   6.765   1.544
54662SOL    HW165825  11.183   6.766   1.511
54662SOL    HW265826  11.267   6.728   1.631
54663SOL     OW65827   7.192   8.557  13.223
54663SOL    HW165828   7.255   8.595  13.162
54663SOL    HW265829   7.153   8.484  13.174
54664SOL     OW65830   9.072   9.818   3.200
54664SOL    HW165831   9.036   9.850   3.283
54664SOL    HW265832   9.166   9.838   3.205
54665SOL     OW65833   6.911   5.724   7.024
54665SOL    HW165834   6.825   5.725   7.065
54665SOL    HW265835   6.971   5.698   7.094
54666SOL     OW65836   7.066  14.271   8.549
54666SOL    HW165837   7.157  14.259   8.578
54666SOL    HW265838   7.015  14.271   8.629
54667SOL     OW65839   7.067   7.703  11.006
54667SOL    HW165840   7.150   7.736  10.972
54667SOL    HW265841   7.054   7.620  10.960
54668SOL     OW65842   9.947   9.930   9.268
54668SOL    HW165843   9.894   9.956   9.193
54668SOL    HW265844   9.961  10.011   9.317
54669SOL     OW65845   0.899  13.596   8.772
54669SOL    HW165846   0.913  13.602   8.867
54669SOL    HW265847   0.888  13.502   8.755
54670SOL     OW65848  11.932   7.529   1.638
54670SOL    HW165849  11.864   7.581   1.594
54670SOL    HW265850  12.001   7.591   1.658
54671SOL     OW65851   3.632   0.231   9.102
54671SOL    HW165852   3.727   0.226   9.093
54671SOL    HW265853   3.601   0.258   9.016
54672SOL     OW65854   0.594   0.811   4.056
54672SOL    HW165855   0.640   0.893   4.036
54672SOL    HW265856   0.503   0.838   4.066
54673SOL     OW65857   1.063   3.672   7.160
54673SOL    HW165858   1.000   3.745   7.157
54673SOL    HW265859   1.132   3.698   7.099
54674SOL     OW65860   8.278   8.604  14.107
54674SOL    HW165861   8.269   8.614  14.202
54674SOL    HW265862   8.371   8.620  14.090
54675SOL     OW65863   8.018  10.841   2.457
54675SOL    HW165864   8.080  10.850   2.384
54675SOL    HW265865   7.992  10.931   2.476
54676SOL     OW65866   2.412  11.662  12.180
54676SOL    HW165867   2.349  11.595  12.154
54676SOL    HW265868   2.363  11.720  12.238
54677SOL     OW65869   1.248  11.198  11.532
54677SOL    HW165870   1.304  11.169  11.604
54677SOL    HW265871   1.290  11.163  11.453
54678SOL     OW65872   6.991   0.465   0.908
54678SOL    HW165873   6.950   0.460   0.822
54678SOL    HW265874   7.036   0.381   0.918
54679SOL     OW65875   2.536   5.246   4.761
54679SOL    HW165876   2.509   5.221   4.850
54679SOL    HW265877   2.465   5.216   4.705
54680SOL     OW65878   8.095   8.084   5.426
54680SOL    HW165879   8.019   8.073   5.369
54680SOL    HW265880   8.152   8.010   5.406
54681SOL     OW65881  10.222   0.429   0.809
54681SOL    HW165882  10.242   0.337   0.791
54681SOL    HW265883  10.305   0.467   0.835
54682SOL     OW65884   4.531  14.053   2.119
54682SOL    HW165885   4.516  13.967   2.159
54682SOL    HW265886   4.487  14.048   2.034
54683SOL     OW65887  11.025  13.346   5.244
54683SOL    HW165888  10.945  13.394   5.266
54683SOL    HW265889  11.028  13.273   5.305
54684SOL     OW65890   0.130   7.799   3.633
54684SOL    HW165891   0.117   7.717   3.587
54684SOL    HW265892   0.224   7.803   3.650
54685SOL     OW65893  12.266  10.789   8.819
54685SOL    HW165894  12.242  10.855   8.754
54685SOL    HW265895  12.333  10.830   8.873
54686SOL     OW65896   3.222   8.167   9.400
54686SOL    HW165897   3.209   8.128   9.487
54686SOL    HW265898   3.248   8.093   9.345
54687SOL     OW65899   5.740  11.187   2.687
54687SOL    HW165900   5.671  11.225   2.741
54687SOL    HW265901   5.818  11.239   2.707
54688SOL     OW65902   6.658   6.594   5.312
54688SOL    HW165903   6.637   6.506   5.341
54688SOL    HW265904   6.726   6.624   5.373
54689SOL     OW65905   5.872   4.615   3.454
54689SOL    HW165906   5.833   4.643   3.537
54689SOL    HW265907   5.806   4.635   3.388
54690SOL     OW65908   0.501   9.567   2.840
54690SOL    HW165909   0.568   9.632   2.818
54690SOL    HW265910   0.546   9.504   2.896
54691SOL     OW65911   4.155  14.528  14.439
54691SOL    HW165912   4.159  14.508  14.346
54691SOL    HW265913   4.235  14.577  14.457
54692SOL     OW65914  10.827  12.675  14.505
54692SOL    HW165915  10.882  12.608  14.464
54692SOL    HW265916  10.872  12.695  14.587
54693SOL     OW65917   9.418   9.161   1.399
54693SOL    HW165918   9.414   9.118   1.484
54693SOL    HW265919   9.412   9.089   1.335
54694SOL     OW65920   4.236   4.686   3.577
54694SOL    HW165921   4.288   4.608   3.554
54694SOL    HW265922   4.251   4.698   3.670
54695SOL     OW65923  11.261   0.007   5.116
54695SOL    HW165924  11.333  14.825   5.092
54695SOL    HW265925  11.239  14.857   5.206
54696SOL     OW65926  13.509  10.150   2.515
54696SOL    HW165927  13.539  10.156   2.605
54696SOL    HW265928  13.559  10.077   2.478
54697SOL     OW65929  11.356   8.814   8.262
54697SOL    HW165930  11.441   8.773   8.281
54697SOL    HW265931  11.300   8.742   8.236
54698SOL     OW65932  13.586   3.229  13.764
54698SOL    HW165933  13.581   3.140  13.799
54698SOL    HW265934  13.614   3.283  13.838
54699SOL     OW65935  10.992  11.104   4.070
54699SOL    HW165936  11.033  11.184   4.104
54699SOL    HW265937  11.064  11.055   4.031
54700SOL     OW65938   4.462  13.881  12.963
54700SOL    HW165939   4.408  13.912  12.890
54700SOL    HW265940   4.434  13.935  13.037
54701SOL     OW65941  12.285  13.455   2.739
54701SOL    HW165942  12.274  13.383   2.800
54701SOL    HW265943  12.196  13.486   2.721
54702SOL     OW65944  11.072   9.901  13.708
54702SOL    HW165945  11.095   9.814  13.675
54702SOL    HW265946  11.030   9.883  13.793
54703SOL     OW65947   4.595   0.774   8.422
54703SOL    HW165948   4.626   0.732   8.341
54703SOL    HW265949   4.507   0.804   8.401
54704SOL     OW65950   5.214   2.160  11.588
54704SOL    HW165951   5.149   2.113  11.641
54704SOL    HW265952   5.211   2.249  11.621
54705SOL     OW65953   3.091   2.570   0.629
54705SOL    HW165954   3.167   2.568   0.688
54705SOL    HW265955   3.107   2.646   0.573
54706SOL     OW65956  14.519   4.621   9.035
54706SOL    HW165957  14.538   4.592   9.124
54706SOL    HW265958  14.464   4.552   8.998
54707SOL     OW65959  13.399   1.759  14.583
54707SOL    HW165960  13.436   1.787  14.667
54707SOL    HW265961  13.341   1.686  14.605
54708SOL     OW65962  10.934   5.555  13.018
54708SOL    HW165963  11.022   5.524  12.996
54708SOL    HW265964  10.949   5.633  13.072
54709SOL     OW65965  12.847  11.562  14.258
54709SOL    HW165966  12.804  11.521  14.334
54709SOL    HW265967  12.911  11.621  14.297
54710SOL     OW65968   5.180  10.674   1.346
54710SOL    HW165969   5.201  10.603   1.408
54710SOL    HW265970   5.159  10.748   1.402
54711SOL     OW65971   1.712   5.728   4.447
54711SOL    HW165972   1.769   5.740   4.523
54711SOL    HW265973   1.653   5.658   4.472
54712SOL     OW65974   6.864   6.929   5.145
54712SOL    HW165975   6.857   7.022   5.124
54712SOL    HW265976   6.792   6.888   5.097
54713SOL     OW65977  10.573   0.437   9.044
54713SOL    HW165978  10.638   0.369   9.025
54713SOL    HW265979  10.622   0.505   9.090
54714SOL     OW65980  12.123   1.006  12.868
54714SOL    HW165981  12.216   1.028  12.860
54714SOL    HW265982  12.089   1.011  12.778
54715SOL     OW65983  11.241   1.162  14.407
54715SOL    HW165984  11.186   1.202  14.340
54715SOL    HW265985  11.245   1.069  14.383
54716SOL     OW65986   6.735  10.975   0.009
54716SOL    HW165987   6.720  11.042   0.076
54716SOL    HW265988   6.828  10.953   0.017
54717SOL     OW65989   4.055   5.443   1.107
54717SOL    HW165990   4.106   5.470   1.030
54717SOL    HW265991   4.116   5.393   1.160
54718SOL     OW65992   5.556   3.774   0.750
54718SOL    HW165993   5.614   3.838   0.711
54718SOL    HW265994   5.508   3.822   0.817
54719SOL     OW65995  11.646   0.429   2.358
54719SOL    HW165996  11.585   0.501   2.375
54719SOL    HW265997  11.717   0.469   2.308
54720SOL     OW65998   8.805   7.532  14.751
54720SOL    HW165999   8.755   7.464  14.797
54720SOL    HW266000   8.811   7.604  14.814
54721SOL     OW66001   7.940  10.074   9.344
54721SOL    HW166002   7.853  10.039   9.322
54721SOL    HW266003   7.923  10.135   9.415
54722SOL     OW66004   0.604   4.018   7.064
54722SOL    HW166005   0.666   4.051   7.128
54722SOL    HW266006   0.556   4.096   7.035
54723SOL     OW66007   3.290  13.573   1.972
54723SOL    HW166008   3.284  13.529   1.887
54723SOL    HW266009   3.279  13.503   2.036
54724SOL     OW66010   0.533  14.585  14.649
54724SOL    HW166011   0.563  14.630  14.570
54724SOL    HW266012   0.607  14.532  14.677
54725SOL     OW66013  13.446   0.065  13.629
54725SOL    HW166014  13.468   0.012  13.705
54725SOL    HW266015  13.448   0.155  13.661
54726SOL     OW66016   2.767  14.071   4.940
54726SOL    HW166017   2.748  14.046   4.850
54726SOL    HW266018   2.758  13.989   4.990
54727SOL     OW66019   8.952   1.044   7.930
54727SOL    HW166020   9.025   1.058   7.991
54727SOL    HW266021   8.971   1.100   7.855
54728SOL     OW66022   7.759  12.803   8.201
54728SOL    HW166023   7.731  12.712   8.214
54728SOL    HW266024   7.680  12.848   8.171
54729SOL     OW66025   2.101  13.473   5.903
54729SOL    HW166026   2.171  13.515   5.853
54729SOL    HW266027   2.117  13.379   5.891
54730SOL     OW66028  12.387  10.430  11.219
54730SOL    HW166029  12.381  10.355  11.159
54730SOL    HW266030  12.387  10.390  11.306
54731SOL     OW66031   2.132  14.319   0.617
54731SOL    HW166032   2.070  14.272   0.562
54731SOL    HW266033   2.166  14.253   0.678
54732SOL     OW66034   9.121   6.550   0.360
54732SOL    HW166035   9.113   6.458   0.336
54732SOL    HW266036   9.211   6.559   0.390
54733SOL     OW66037   2.294  13.416  10.118
54733SOL    HW166038   2.203  13.393  10.103
54733SOL    HW266039   2.291  13.496  10.169
54734SOL     OW66040   5.823   3.164  12.720
54734SOL    HW166041   5.731   3.155  12.747
54734SOL    HW266042   5.846   3.254  12.740
54735SOL     OW66043  12.942  14.379   4.949
54735SOL    HW166044  12.943  14.289   4.916
54735SOL    HW266045  13.030  14.393   4.983
54736SOL     OW66046   2.903   7.153   0.396
54736SOL    HW166047   2.888   7.061   0.417
54736SOL    HW266048   2.989   7.154   0.354
54737SOL     OW66049   5.940  14.495   2.190
54737SOL    HW166050   5.878  14.475   2.260
54737SOL    HW266051   5.906  14.446   2.114
54738SOL     OW66052  10.928  10.796   1.784
54738SOL    HW166053  10.949  10.807   1.691
54738SOL    HW266054  10.982  10.861   1.828
54739SOL     OW66055   9.530  10.952  10.404
54739SOL    HW166056   9.533  10.889  10.331
54739SOL    HW266057   9.447  10.933  10.448
54740SOL     OW66058  11.836   8.609   1.721
54740SOL    HW166059  11.836   8.601   1.816
54740SOL    HW266060  11.814   8.701   1.705
54741SOL     OW66061   9.393   0.156  11.828
54741SOL    HW166062   9.426   0.091  11.766
54741SOL    HW266063   9.322   0.113  11.874
54742SOL     OW66064  14.559  14.191   1.282
54742SOL    HW166065  14.646  14.175   1.321
54742SOL    HW266066  14.578  14.229   1.197
54743SOL     OW66067   5.331   5.629  11.954
54743SOL    HW166068   5.257   5.627  11.894
54743SOL    HW266069   5.342   5.538  11.981
54744SOL     OW66070  14.577   9.829  14.214
54744SOL    HW166071  14.662   9.791  14.234
54744SOL    HW266072  14.516   9.787  14.274
54745SOL     OW66073   7.417   7.112  10.480
54745SOL    HW166074   7.430   7.078  10.391
54745SOL    HW266075   7.361   7.188  10.468
54746SOL     OW66076  12.588  10.863  11.994
54746SOL    HW166077  12.547  10.925  12.055
54746SOL    HW266078  12.517  10.806  11.967
54747SOL     OW66079   3.374   6.062   4.783
54747SOL    HW166080   3.420   6.140   4.815
54747SOL    HW266081   3.420   6.038   4.703
54748SOL     OW66082   3.180   3.043  10.895
54748SOL    HW166083   3.112   2.985  10.859
54748SOL    HW266084   3.262   3.010  10.857
54749SOL     OW66085   2.364   3.226   6.921
54749SOL    HW166086   2.349   3.241   7.014
54749SOL    HW266087   2.320   3.299   6.877
54750SOL     OW66088  13.044  13.158   0.297
54750SOL    HW166089  13.050  13.210   0.377
54750SOL    HW266090  13.101  13.083   0.314
54751SOL     OW66091  13.185   7.383  12.209
54751SOL    HW166092  13.186   7.416  12.299
54751SOL    HW266093  13.130   7.305  12.213
54752SOL     OW66094  14.646  13.076   5.280
54752SOL    HW166095  14.608  13.130   5.349
54752SOL    HW266096  14.622  12.986   5.303
54753SOL     OW66097   3.724  10.077   4.334
54753SOL    HW166098   3.789  10.105   4.398
54753SOL    HW266099   3.775  10.035   4.265
54754SOL     OW66100   3.519   5.740   0.974
54754SOL    HW166101   3.552   5.704   0.891
54754SOL    HW266102   3.433   5.776   0.952
54755SOL     OW66103   6.037  11.239   8.732
54755SOL    HW166104   6.115  11.189   8.755
54755SOL    HW266105   5.967  11.201   8.786
54756SOL     OW66106   0.235  10.321  13.897
54756SOL    HW166107   0.330  10.318  13.889
54756SOL    HW266108   0.219  10.339  13.990
54757SOL     OW66109  12.057   7.575  13.548
54757SOL    HW166110  11.996   7.519  13.499
54757SOL    HW266111  12.098   7.630  13.481
54758SOL     OW66112   6.797   0.155   3.813
54758SOL    HW166113   6.717   0.101   3.818
54758SOL    HW266114   6.783   0.224   3.878
54759SOL     OW66115   9.044   5.427   2.610
54759SOL    HW166116   9.014   5.508   2.569
54759SOL    HW266117   8.997   5.426   2.694
54760SOL     OW66118  11.475   1.174   0.436
54760SOL    HW166119  11.523   1.232   0.496
54760SOL    HW266120  11.541   1.141   0.377
54761SOL     OW66121   9.850  12.344   2.512
54761SOL    HW166122   9.842  12.426   2.561
54761SOL    HW266123   9.779  12.348   2.447
54762SOL     OW66124  10.472  14.846   1.206
54762SOL    HW166125  10.388  14.858   1.249
54762SOL    HW266126  10.510  14.769   1.248
54763SOL     OW66127  14.575  12.493   5.256
54763SOL    HW166128  14.578  12.412   5.307
54763SOL    HW266129  14.560  12.464   5.166
54764SOL     OW66130  12.256   0.072  10.079
54764SOL    HW166131  12.256   0.053   9.986
54764SOL    HW266132  12.173   0.037  10.111
54765SOL     OW66133  10.938  13.609   9.109
54765SOL    HW166134  10.944  13.674   9.178
54765SOL    HW266135  10.986  13.533   9.143
54766SOL     OW66136   1.521   4.354   2.607
54766SOL    HW166137   1.427   4.359   2.623
54766SOL    HW266138   1.529   4.345   2.512
54767SOL     OW66139  12.342  11.235   1.702
54767SOL    HW166140  12.366  11.179   1.629
54767SOL    HW266141  12.292  11.179   1.761
54768SOL     OW66142   9.484   4.194  10.407
54768SOL    HW166143   9.485   4.139  10.486
54768SOL    HW266144   9.476   4.283  10.441
54769SOL     OW66145   5.605   3.535  11.847
54769SOL    HW166146   5.608   3.442  11.869
54769SOL    HW266147   5.688   3.551  11.803
54770SOL     OW66148   4.250  13.233  13.908
54770SOL    HW166149   4.180  13.261  13.968
54770SOL    HW266150   4.271  13.144  13.936
54771SOL     OW66151   7.608  11.623  14.480
54771SOL    HW166152   7.618  11.528  14.467
54771SOL    HW266153   7.522  11.643  14.443
54772SOL     OW66154   8.062   2.685   9.503
54772SOL    HW166155   8.123   2.611   9.511
54772SOL    HW266156   7.993   2.666   9.566
54773SOL     OW66157   5.008   4.874   7.588
54773SOL    HW166158   4.962   4.802   7.630
54773SOL    HW266159   4.939   4.934   7.560
54774SOL     OW66160  13.840   5.227   9.201
54774SOL    HW166161  13.918   5.251   9.251
54774SOL    HW266162  13.773   5.290   9.230
54775SOL     OW66163   0.346   0.254  10.492
54775SOL    HW166164   0.428   0.207  10.475
54775SOL    HW266165   0.334   0.310  10.415
54776SOL     OW66166   4.223   4.242  11.867
54776SOL    HW166167   4.277   4.221  11.943
54776SOL    HW266168   4.285   4.273  11.801
54777SOL     OW66169   7.797   8.276  11.052
54777SOL    HW166170   7.723   8.246  11.106
54777SOL    HW266171   7.857   8.316  11.114
54778SOL     OW66172   8.962   0.974  13.927
54778SOL    HW166173   9.034   0.912  13.939
54778SOL    HW266174   8.901   0.953  13.998
54779SOL     OW66175  10.527  10.948  11.578
54779SOL    HW166176  10.439  10.965  11.612
54779SOL    HW266177  10.569  10.894  11.645
54780SOL     OW66178  12.149  11.329  12.564
54780SOL    HW166179  12.172  11.263  12.498
54780SOL    HW266180  12.233  11.367  12.590
54781SOL     OW66181  13.134   2.026  11.247
54781SOL    HW166182  13.127   1.943  11.199
54781SOL    HW266183  13.194   2.079  11.194
54782SOL     OW66184   7.094   5.939  13.638
54782SOL    HW166185   7.111   5.847  13.659
54782SOL    HW266186   7.170   5.967  13.588
54783SOL     OW66187   8.629   9.661   6.780
54783SOL    HW166188   8.638   9.566   6.793
54783SOL    HW266189   8.624   9.697   6.869
54784SOL     OW66190  10.790   6.548  13.288
54784SOL    HW166191  10.748   6.546  13.202
54784SOL    HW266192  10.807   6.456  13.308
54785SOL     OW66193   3.750   5.139   0.265
54785SOL    HW166194   3.770   5.115   0.175
54785SOL    HW266195   3.661   5.107   0.280
54786SOL     OW66196   6.802   9.066   1.293
54786SOL    HW166197   6.852   9.125   1.237
54786SOL    HW266198   6.713   9.071   1.259
54787SOL     OW66199   8.502   6.655  14.240
54787SOL    HW166200   8.591   6.688  14.254
54787SOL    HW266201   8.495   6.581  14.300
54788SOL     OW66202  13.426   1.777   1.813
54788SOL    HW166203  13.346   1.732   1.839
54788SOL    HW266204  13.397   1.841   1.747
54789SOL     OW66205  13.461   2.010   4.898
54789SOL    HW166206  13.450   2.082   4.960
54789SOL    HW266207  13.376   2.001   4.855
54790SOL     OW66208   1.090   8.346   4.263
54790SOL    HW166209   1.101   8.333   4.169
54790SOL    HW266210   1.096   8.258   4.300
54791SOL     OW66211  11.287  11.958   1.467
54791SOL    HW166212  11.252  11.928   1.383
54791SOL    HW266213  11.272  11.884   1.526
54792SOL     OW66214   1.971   7.390   8.442
54792SOL    HW166215   1.910   7.462   8.459
54792SOL    HW266216   2.057   7.428   8.456
54793SOL     OW66217   5.794   9.045  11.483
54793SOL    HW166218   5.804   8.988  11.559
54793SOL    HW266219   5.815   8.989  11.408
54794SOL     OW66220  13.756   2.491  14.645
54794SOL    HW166221  13.759   2.566  14.704
54794SOL    HW266222  13.814   2.515  14.573
54795SOL     OW66223  14.152   3.482  10.902
54795SOL    HW166224  14.057   3.468  10.910
54795SOL    HW266225  14.169   3.563  10.950
54796SOL     OW66226  12.190  13.751   8.139
54796SOL    HW166227  12.097  13.774   8.145
54796SOL    HW266228  12.234  13.819   8.191
54797SOL     OW66229   1.660  12.249  13.342
54797SOL    HW166230   1.644  12.164  13.383
54797SOL    HW266231   1.754  12.248  13.323
54798SOL     OW66232   5.920   4.680   6.416
54798SOL    HW166233   5.936   4.690   6.322
54798SOL    HW266234   5.913   4.770   6.449
54799SOL     OW66235   9.616   0.588   8.709
54799SOL    HW166236   9.607   0.504   8.664
54799SOL    HW266237   9.530   0.602   8.750
54800SOL     OW66238   6.531   2.020   0.736
54800SOL    HW166239   6.525   2.116   0.737
54800SOL    HW266240   6.450   1.991   0.695
54801SOL     OW66241  13.597   8.930  11.216
54801SOL    HW166242  13.517   8.896  11.177
54801SOL    HW266243  13.611   9.015  11.175
54802SOL     OW66244   7.214  11.752   5.342
54802SOL    HW166245   7.139  11.727   5.396
54802SOL    HW266246   7.176  11.788   5.263
54803SOL     OW66247  10.382  10.015   5.134
54803SOL    HW166248  10.373  10.075   5.060
54803SOL    HW266249  10.475  10.017   5.156
54804SOL     OW66250   0.600  11.250  11.205
54804SOL    HW166251   0.550  11.177  11.241
54804SOL    HW266252   0.681  11.210  11.173
54805SOL     OW66253   7.166   6.223  12.206
54805SOL    HW166254   7.239   6.252  12.261
54805SOL    HW266255   7.135   6.303  12.164
54806SOL     OW66256   8.981  11.343  13.875
54806SOL    HW166257   8.888  11.321  13.886
54806SOL    HW266258   8.985  11.438  13.887
54807SOL     OW66259  11.177  12.134  12.550
54807SOL    HW166260  11.217  12.119  12.635
54807SOL    HW266261  11.210  12.220  12.522
54808SOL     OW66262   5.293  13.411  12.765
54808SOL    HW166263   5.308  13.432  12.673
54808SOL    HW266264   5.338  13.481  12.813
54809SOL     OW66265  11.468   1.514  14.136
54809SOL    HW166266  11.545   1.497  14.190
54809SOL    HW266267  11.480   1.603  14.102
54810SOL     OW66268   0.499  14.110   4.766
54810SOL    HW166269   0.457  14.191   4.794
54810SOL    HW266270   0.431  14.043   4.777
54811SOL     OW66271  11.665  14.361   3.081
54811SOL    HW166272  11.599  14.380   3.148
54811SOL    HW266273  11.653  14.428   3.015
54812SOL     OW66274   6.074   9.610  14.696
54812SOL    HW166275   6.020   9.688  14.684
54812SOL    HW266276   6.141   9.637  14.759
54813SOL     OW66277   6.401  12.283  11.749
54813SOL    HW166278   6.490  12.299  11.778
54813SOL    HW266279   6.352  12.360  11.778
54814SOL     OW66280  11.170   8.947   4.830
54814SOL    HW166281  11.192   8.921   4.919
54814SOL    HW266282  11.252   8.940   4.781
54815SOL     OW66283   9.559   7.147   6.750
54815SOL    HW166284   9.616   7.223   6.742
54815SOL    HW266285   9.471   7.180   6.735
54816SOL     OW66286   8.173   1.677  11.006
54816SOL    HW166287   8.136   1.641  11.087
54816SOL    HW266288   8.102   1.672  10.942
54817SOL     OW66289   1.671  13.250   0.745
54817SOL    HW166290   1.595  13.246   0.803
54817SOL    HW266291   1.638  13.225   0.659
54818SOL     OW66292   0.074  13.493  10.082
54818SOL    HW166293   0.134  13.566  10.099
54818SOL    HW266294   0.008  13.500  10.151
54819SOL     OW66295  11.687  13.311   6.340
54819SOL    HW166296  11.729  13.234   6.381
54819SOL    HW266297  11.605  13.321   6.389
54820SOL     OW66298  10.971   7.531  12.232
54820SOL    HW166299  11.040   7.524  12.298
54820SOL    HW266300  11.001   7.602  12.174
54821SOL     OW66301   0.890  14.457  13.007
54821SOL    HW166302   0.818  14.398  12.985
54821SOL    HW266303   0.897  14.451  13.102
54822SOL     OW66304  11.122   2.419   8.573
54822SOL    HW166305  11.057   2.367   8.621
54822SOL    HW266306  11.195   2.359   8.557
54823SOL     OW66307   5.833   1.085   2.102
54823SOL    HW166308   5.882   1.152   2.054
54823SOL    HW266309   5.743   1.094   2.070
54824SOL     OW66310   5.041  12.117   3.918
54824SOL    HW166311   5.103  12.048   3.891
54824SOL    HW266312   5.092  12.198   3.913
54825SOL     OW66313  11.083   1.199  10.745
54825SOL    HW166314  11.111   1.126  10.801
54825SOL    HW266315  11.085   1.163  10.656
54826SOL     OW66316   6.462  13.741   7.109
54826SOL    HW166317   6.410  13.706   7.037
54826SOL    HW266318   6.428  13.697   7.187
54827SOL     OW66319  10.956   1.629   8.162
54827SOL    HW166320  11.018   1.603   8.231
54827SOL    HW266321  10.959   1.725   8.163
54828SOL     OW66322   0.159  10.089   7.833
54828SOL    HW166323   0.142  10.073   7.741
54828SOL    HW266324   0.178  10.002   7.870
54829SOL     OW66325   5.860  12.558  14.212
54829SOL    HW166326   5.939  12.595  14.252
54829SOL    HW266327   5.869  12.575  14.119
54830SOL     OW66328  10.681   8.542   1.919
54830SOL    HW166329  10.753   8.553   1.857
54830SOL    HW266330  10.700   8.460   1.964
54831SOL     OW66331   3.507   5.687   5.544
54831SOL    HW166332   3.544   5.643   5.620
54831SOL    HW266333   3.574   5.749   5.516
54832SOL     OW66334   7.562  11.971  10.686
54832SOL    HW166335   7.648  11.954  10.723
54832SOL    HW266336   7.572  12.051  10.635
54833SOL     OW66337  10.615   9.115  11.259
54833SOL    HW166338  10.573   9.058  11.194
54833SOL    HW266339  10.595   9.204  11.229
54834SOL     OW66340   4.492   4.265   6.352
54834SOL    HW166341   4.570   4.211   6.338
54834SOL    HW266342   4.496   4.332   6.283
54835SOL     OW66343  10.528  11.107   1.970
54835SOL    HW166344  10.445  11.155   1.959
54835SOL    HW266345  10.542  11.063   1.886
54836SOL     OW66346  10.191  12.292   5.376
54836SOL    HW166347  10.136  12.348   5.430
54836SOL    HW266348  10.137  12.214   5.361
54837SOL     OW66349  11.331  12.379   7.279
54837SOL    HW166350  11.419  12.415   7.287
54837SOL    HW266351  11.337  12.316   7.207
54838SOL     OW66352  13.499   0.051   6.136
54838SOL    HW166353  13.431  14.861   6.151
54838SOL    HW266354  13.450   0.132   6.124
54839SOL     OW66355  11.213   6.513  11.019
54839SOL    HW166356  11.185   6.605  11.017
54839SOL    HW266357  11.201   6.487  11.111
54840SOL     OW66358   3.944   1.822   8.509
54840SOL    HW166359   3.885   1.753   8.540
54840SOL    HW266360   3.885   1.886   8.468
54841SOL     OW66361   1.905   7.121   8.442
54841SOL    HW166362   1.927   7.214   8.431
54841SOL    HW266363   1.990   7.077   8.446
54842SOL     OW66364   2.594   3.486   8.432
54842SOL    HW166365   2.567   3.413   8.487
54842SOL    HW266366   2.682   3.508   8.463
54843SOL     OW66367   2.680   5.899   9.401
54843SOL    HW166368   2.600   5.892   9.453
54843SOL    HW266369   2.750   5.909   9.466
54844SOL     OW66370  12.560  13.840  13.741
54844SOL    HW166371  12.566  13.928  13.779
54844SOL    HW266372  12.626  13.840  13.671
54845SOL     OW66373   5.087   0.752  12.729
54845SOL    HW166374   5.153   0.751  12.799
54845SOL    HW266375   5.086   0.843  12.699
54846SOL     OW66376   1.519  14.415  11.385
54846SOL    HW166377   1.504  14.339  11.329
54846SOL    HW266378   1.436  14.427  11.432
54847SOL     OW66379   6.857  10.630   8.930
54847SOL    HW166380   6.844  10.637   9.024
54847SOL    HW266381   6.918  10.701   8.909
54848SOL     OW66382   4.204   4.100  13.578
54848SOL    HW166383   4.247   4.116  13.662
54848SOL    HW266384   4.268   4.128  13.513
54849SOL     OW66385  14.284   9.710  12.051
54849SOL    HW166386  14.299   9.780  12.114
54849SOL    HW266387  14.334   9.636  12.085
54850SOL     OW66388   0.125   1.716  11.969
54850SOL    HW166389   0.078   1.706  12.053
54850SOL    HW266390   0.217   1.725  11.994
54851SOL     OW66391   7.269   2.639   0.152
54851SOL    HW166392   7.259   2.625   0.058
54851SOL    HW266393   7.363   2.652   0.165
54852SOL     OW66394   1.621   9.731  13.807
54852SOL    HW166395   1.664   9.702  13.727
54852SOL    HW266396   1.562   9.659  13.830
54853SOL     OW66397  10.916   9.327   9.405
54853SOL    HW166398  10.943   9.236   9.392
54853SOL    HW266399  10.902   9.336   9.499
54854SOL     OW66400   8.437   3.308   5.375
54854SOL    HW166401   8.505   3.334   5.313
54854SOL    HW266402   8.412   3.389   5.420
54855SOL     OW66403   6.769   2.813   0.236
54855SOL    HW166404   6.745   2.867   0.160
54855SOL    HW266405   6.865   2.817   0.239
54856SOL     OW66406   8.142   4.434   5.953
54856SOL    HW166407   8.108   4.347   5.975
54856SOL    HW266408   8.213   4.449   6.016
54857SOL     OW66409   4.478   2.896  13.162
54857SOL    HW166410   4.546   2.833  13.186
54857SOL    HW266411   4.400   2.842  13.148
54858SOL     OW66412   7.161  14.602  10.994
54858SOL    HW166413   7.239  14.657  10.996
54858SOL    HW266414   7.186  14.528  10.938
54859SOL     OW66415   2.010   3.628   8.199
54859SOL    HW166416   1.962   3.686   8.258
54859SOL    HW266417   1.956   3.623   8.120
54860SOL     OW66418   1.510   6.845   2.010
54860SOL    HW166419   1.538   6.933   2.033
54860SOL    HW266420   1.432   6.830   2.064
54861SOL     OW66421   3.356   6.220  10.720
54861SOL    HW166422   3.308   6.159  10.777
54861SOL    HW266423   3.448   6.207  10.744
54862SOL     OW66424  14.352  14.422   0.533
54862SOL    HW166425  14.348  14.504   0.582
54862SOL    HW266426  14.409  14.441   0.459
54863SOL     OW66427   9.497   5.234   8.497
54863SOL    HW166428   9.504   5.328   8.511
54863SOL    HW266429   9.410   5.222   8.460
54864SOL     OW66430  13.629   1.736  10.144
54864SOL    HW166431  13.575   1.657  10.138
54864SOL    HW266432  13.573   1.799  10.190
54865SOL     OW66433  12.000   8.448   2.303
54865SOL    HW166434  11.978   8.386   2.373
54865SOL    HW266435  12.096   8.444   2.298
54866SOL     OW66436   0.905   1.578  14.696
54866SOL    HW166437   0.988   1.625  14.702
54866SOL    HW266438   0.865   1.590  14.782
54867SOL     OW66439   6.113  14.406  10.489
54867SOL    HW166440   6.089  14.445  10.406
54867SOL    HW266441   6.074  14.463  10.555
54868SOL     OW66442   7.012   3.648   1.328
54868SOL    HW166443   7.063   3.567   1.336
54868SOL    HW266444   6.932   3.630   1.377
54869SOL     OW66445  11.220   9.039   6.867
54869SOL    HW166446  11.220   9.134   6.883
54869SOL    HW266447  11.305   9.021   6.828
54870SOL     OW66448  12.984   9.529  12.541
54870SOL    HW166449  13.002   9.436  12.526
54870SOL    HW266450  13.069   9.572  12.528
54871SOL     OW66451   7.328   6.498  10.049
54871SOL    HW166452   7.278   6.418  10.061
54871SOL    HW266453   7.383   6.481   9.972
54872SOL     OW66454   9.536  10.250   5.624
54872SOL    HW166455   9.617  10.216   5.663
54872SOL    HW266456   9.497  10.303   5.694
54873SOL     OW66457   3.332  11.043   8.549
54873SOL    HW166458   3.355  11.005   8.634
54873SOL    HW266459   3.376  10.986   8.486
54874SOL     OW66460   5.142   9.156   9.377
54874SOL    HW166461   5.048   9.176   9.369
54874SOL    HW266462   5.152   9.126   9.467
54875SOL     OW66463  11.060   8.262   7.169
54875SOL    HW166464  11.064   8.271   7.074
54875SOL    HW266465  10.968   8.273   7.190
54876SOL     OW66466   0.609   8.773   8.840
54876SOL    HW166467   0.541   8.779   8.773
54876SOL    HW266468   0.666   8.701   8.811
54877SOL     OW66469  10.053   3.404   3.799
54877SOL    HW166470  10.030   3.392   3.891
54877SOL    HW266471  10.145   3.429   3.800
54878SOL     OW66472  11.655   6.472  12.535
54878SOL    HW166473  11.573   6.463  12.584
54878SOL    HW266474  11.627   6.494  12.446
54879SOL     OW66475   0.882  10.904   3.342
54879SOL    HW166476   0.942  10.976   3.361
54879SOL    HW266477   0.796  10.945   3.335
54880SOL     OW66478   6.800   5.924   8.905
54880SOL    HW166479   6.722   5.962   8.944
54880SOL    HW266480   6.849   5.998   8.870
54881SOL     OW66481  11.514   9.300   9.765
54881SOL    HW166482  11.610   9.306   9.762
54881SOL    HW266483  11.484   9.379   9.721
54882SOL     OW66484   9.013  14.839   2.152
54882SOL    HW166485   8.988   0.034   2.093
54882SOL    HW266486   8.952  14.846   2.226
54883SOL     OW66487   4.389   3.030  10.381
54883SOL    HW166488   4.479   2.998  10.387
54883SOL    HW266489   4.350   2.979  10.310
54884SOL     OW66490  11.438   2.914  10.537
54884SOL    HW166491  11.511   2.954  10.489
54884SOL    HW266492  11.360   2.942  10.489
54885SOL     OW66493   5.281   0.451  12.238
54885SOL    HW166494   5.234   0.448  12.321
54885SOL    HW266495   5.326   0.366  12.233
54886SOL     OW66496  14.764   6.491   2.520
54886SOL    HW166497  14.830   6.532   2.464
54886SOL    HW266498  14.686   6.544   2.506
54887SOL     OW66499   3.735  11.649   7.866
54887SOL    HW166500   3.714  11.703   7.790
54887SOL    HW266501   3.766  11.566   7.829
54888SOL     OW66502   1.763   8.568  11.558
54888SOL    HW166503   1.747   8.515  11.637
54888SOL    HW266504   1.737   8.512  11.486
54889SOL     OW66505  10.498   8.424   4.498
54889SOL    HW166506  10.481   8.512   4.531
54889SOL    HW266507  10.550   8.382   4.568
54890SOL     OW66508  13.300   1.780   3.263
54890SOL    HW166509  13.276   1.756   3.353
54890SOL    HW266510  13.232   1.739   3.209
54891SOL     OW66511  12.181   7.840   6.156
54891SOL    HW166512  12.180   7.762   6.212
54891SOL    HW266513  12.274   7.862   6.148
54892SOL     OW66514   9.776   4.475   1.074
54892SOL    HW166515   9.790   4.484   0.980
54892SOL    HW266516   9.696   4.423   1.082
54893SOL     OW66517   1.289   9.625  11.564
54893SOL    HW166518   1.348   9.557  11.534
54893SOL    HW266519   1.322   9.705  11.523
54894SOL     OW66520   6.125  10.782   6.717
54894SOL    HW166521   6.032  10.803   6.712
54894SOL    HW266522   6.127  10.688   6.738
54895SOL     OW66523  12.019   2.324   3.623
54895SOL    HW166524  11.944   2.375   3.653
54895SOL    HW266525  12.079   2.390   3.587
54896SOL     OW66526   6.822   3.454   8.510
54896SOL    HW166527   6.833   3.542   8.547
54896SOL    HW266528   6.910   3.429   8.482
54897SOL     OW66529  10.930   8.640  13.214
54897SOL    HW166530  10.874   8.715  13.192
54897SOL    HW266531  11.019   8.674  13.205
54898SOL     OW66532   4.630   8.001   5.485
54898SOL    HW166533   4.695   8.016   5.553
54898SOL    HW266534   4.568   8.073   5.495
54899SOL     OW66535   3.995   6.770   8.221
54899SOL    HW166536   3.963   6.831   8.288
54899SOL    HW266537   4.086   6.753   8.245
54900SOL     OW66538   4.267   1.548   8.537
54900SOL    HW166539   4.229   1.618   8.590
54900SOL    HW266540   4.339   1.591   8.490
54901SOL     OW66541  11.923  11.515  10.751
54901SOL    HW166542  11.945  11.582  10.816
54901SOL    HW266543  11.837  11.483  10.778
54902SOL     OW66544   6.769   5.859   0.958
54902SOL    HW166545   6.678   5.890   0.953
54902SOL    HW266546   6.814   5.906   0.888
54903SOL     OW66547   7.952  11.810  14.773
54903SOL    HW166548   7.865  11.782  14.803
54903SOL    HW266549   8.000  11.827  14.854
54904SOL     OW66550   4.718   0.065   5.296
54904SOL    HW166551   4.769   0.120   5.237
54904SOL    HW266552   4.782   0.016   5.347
54905SOL     OW66553   9.482   1.655   8.092
54905SOL    HW166554   9.423   1.720   8.131
54905SOL    HW266555   9.453   1.648   8.001
54906SOL     OW66556   1.688   4.682   3.420
54906SOL    HW166557   1.734   4.764   3.400
54906SOL    HW266558   1.756   4.624   3.455
54907SOL     OW66559   2.971   7.700   1.761
54907SOL    HW166560   3.000   7.790   1.779
54907SOL    HW266561   2.914   7.678   1.835
54908SOL     OW66562   2.040   1.996  14.677
54908SOL    HW166563   2.029   1.914  14.724
54908SOL    HW266564   1.959   2.045  14.695
54909SOL     OW66565   5.682  11.251   3.597
54909SOL    HW166566   5.696  11.175   3.654
54909SOL    HW266567   5.587  11.266   3.600
54910SOL     OW66568   6.607   4.913   2.587
54910SOL    HW166569   6.635   4.843   2.646
54910SOL    HW266570   6.683   4.970   2.579
54911SOL     OW66571   5.188  10.655  10.618
54911SOL    HW166572   5.137  10.706  10.555
54911SOL    HW266573   5.125  10.630  10.686
54912SOL     OW66574   5.489   5.790   0.361
54912SOL    HW166575   5.495   5.700   0.328
54912SOL    HW266576   5.441   5.837   0.294
54913SOL     OW66577   6.338   0.090   7.871
54913SOL    HW166578   6.300   0.158   7.927
54913SOL    HW266579   6.416   0.060   7.919
54914SOL     OW66580   1.236   1.133   8.022
54914SOL    HW166581   1.162   1.193   8.032
54914SOL    HW266582   1.220   1.065   8.087
54915SOL     OW66583  13.763   0.000   6.226
54915SOL    HW166584  13.835   0.047   6.183
54915SOL    HW266585  13.685   0.026   6.178
54916SOL     OW66586   2.599   4.486   3.750
54916SOL    HW166587   2.520   4.463   3.800
54916SOL    HW266588   2.569   4.494   3.660
54917SOL     OW66589   3.723   1.924   7.332
54917SOL    HW166590   3.813   1.890   7.332
54917SOL    HW266591   3.695   1.919   7.241
54918SOL     OW66592   8.219  14.332   6.079
54918SOL    HW166593   8.252  14.275   6.148
54918SOL    HW266594   8.297  14.379   6.048
54919SOL     OW66595  12.626  10.728   1.989
54919SOL    HW166596  12.553  10.707   1.931
54919SOL    HW266597  12.585  10.748   2.073
54920SOL     OW66598  10.482   8.110   6.650
54920SOL    HW166599  10.545   8.060   6.703
54920SOL    HW266600  10.438   8.167   6.713
54921SOL     OW66601   8.405   7.613   4.906
54921SOL    HW166602   8.392   7.639   4.998
54921SOL    HW266603   8.492   7.647   4.885
54922SOL     OW66604  11.064  14.317   3.474
54922SOL    HW166605  11.106  14.330   3.389
54922SOL    HW266606  10.973  14.295   3.452
54923SOL     OW66607  10.871  10.238  12.436
54923SOL    HW166608  10.817  10.161  12.453
54923SOL    HW266609  10.832  10.307  12.489
54924SOL     OW66610  14.598   2.292   6.706
54924SOL    HW166611  14.590   2.206   6.747
54924SOL    HW266612  14.675   2.331   6.747
54925SOL     OW66613  12.810   1.439  12.484
54925SOL    HW166614  12.887   1.484  12.448
54925SOL    HW266615  12.833   1.422  12.576
54926SOL     OW66616   4.353   7.467  13.037
54926SOL    HW166617   4.429   7.506  12.993
54926SOL    HW266618   4.278   7.495  12.986
54927SOL     OW66619  10.443   9.897  10.310
54927SOL    HW166620  10.448   9.975  10.364
54927SOL    HW266621  10.489   9.921  10.229
54928SOL     OW66622  10.328  13.600  14.799
54928SOL    HW166623  10.250  13.553  14.828
54928SOL    HW266624  10.307  13.629  14.710
54929SOL     OW66625  13.672   9.915   6.942
54929SOL    HW166626  13.754   9.965   6.943
54929SOL    HW266627  13.607   9.974   6.905
54930SOL     OW66628   6.296   2.328   3.857
54930SOL    HW166629   6.353   2.394   3.817
54930SOL    HW266630   6.230   2.379   3.905
54931SOL     OW66631  11.687   2.229  14.274
54931SOL    HW166632  11.777   2.261  14.267
54931SOL    HW266633  11.639   2.300  14.316
54932SOL     OW66634   7.962   7.296   7.750
54932SOL    HW166635   7.983   7.379   7.706
54932SOL    HW266636   7.918   7.244   7.683
54933SOL     OW66637   3.368  10.880   1.882
54933SOL    HW166638   3.426  10.956   1.885
54933SOL    HW266639   3.352  10.858   1.974
54934SOL     OW66640  12.717   9.372   9.132
54934SOL    HW166641  12.626   9.378   9.100
54934SOL    HW266642  12.765   9.333   9.059
54935SOL     OW66643   4.085   8.311   3.138
54935SOL    HW166644   4.092   8.284   3.230
54935SOL    HW266645   3.993   8.297   3.116
54936SOL     OW66646  10.736   9.976  14.353
54936SOL    HW166647  10.790  10.009  14.281
54936SOL    HW266648  10.646   9.987  14.323
54937SOL     OW66649   9.717  13.557   1.465
54937SOL    HW166650   9.790  13.563   1.527
54937SOL    HW266651   9.642  13.592   1.514
54938SOL     OW66652   4.921   3.662   4.040
54938SOL    HW166653   4.874   3.702   3.966
54938SOL    HW266654   4.854   3.650   4.107
54939SOL     OW66655   0.667   4.047   3.791
54939SOL    HW166656   0.612   4.047   3.713
54939SOL    HW266657   0.609   4.080   3.860
54940SOL     OW66658  12.133  13.219   6.314
54940SOL    HW166659  12.127  13.139   6.262
54940SOL    HW266660  12.084  13.200   6.394
54941SOL     OW66661  13.700   3.885  11.175
54941SOL    HW166662  13.665   3.829  11.244
54941SOL    HW266663  13.749   3.824  11.118
54942SOL     OW66664   1.148  11.471   3.965
54942SOL    HW166665   1.155  11.439   4.055
54942SOL    HW266666   1.218  11.425   3.918
54943SOL     OW66667  11.038   4.259  14.656
54943SOL    HW166668  11.044   4.336  14.598
54943SOL    HW266669  10.973   4.284  14.721
54944SOL     OW66670   5.352   6.639  11.269
54944SOL    HW166671   5.440   6.672  11.290
54944SOL    HW266672   5.356   6.616  11.177
54945SOL     OW66673   1.706   9.391   0.215
54945SOL    HW166674   1.762   9.397   0.293
54945SOL    HW266675   1.625   9.435   0.240
54946SOL     OW66676  12.827   5.976   5.413
54946SOL    HW166677  12.888   5.994   5.485
54946SOL    HW266678  12.882   5.944   5.342
54947SOL     OW66679   4.280   5.202  11.027
54947SOL    HW166680   4.272   5.166  11.116
54947SOL    HW266681   4.335   5.279  11.038
54948SOL     OW66682   8.891   1.027   2.062
54948SOL    HW166683   8.805   0.987   2.067
54948SOL    HW266684   8.931   1.009   2.147
54949SOL     OW66685  12.219   9.657   0.659
54949SOL    HW166686  12.216   9.746   0.623
54949SOL    HW266687  12.256   9.604   0.589
54950SOL     OW66688  14.488  10.962   8.333
54950SOL    HW166689  14.568  11.014   8.324
54950SOL    HW266690  14.453  10.956   8.244
54951SOL     OW66691  14.253   6.309  14.099
54951SOL    HW166692  14.180   6.340  14.153
54951SOL    HW266693  14.273   6.383  14.042
54952SOL     OW66694   4.323  11.366  10.262
54952SOL    HW166695   4.289  11.393  10.347
54952SOL    HW266696   4.390  11.300  10.282
54953SOL     OW66697   3.234   5.523   9.571
54953SOL    HW166698   3.188   5.581   9.631
54953SOL    HW266699   3.299   5.479   9.625
54954SOL     OW66700  10.233   6.744   5.208
54954SOL    HW166701  10.181   6.735   5.128
54954SOL    HW266702  10.170   6.772   5.275
54955SOL     OW66703   6.219   4.428   0.786
54955SOL    HW166704   6.146   4.445   0.727
54955SOL    HW266705   6.178   4.409   0.870
54956SOL     OW66706   1.102   7.653   6.849
54956SOL    HW166707   1.081   7.740   6.882
54956SOL    HW266708   1.175   7.624   6.903
54957SOL     OW66709   7.914  14.106   7.080
54957SOL    HW166710   7.994  14.096   7.132
54957SOL    HW266711   7.944  14.127   6.992
54958SOL     OW66712  11.939   0.189  14.329
54958SOL    HW166713  12.020   0.150  14.295
54958SOL    HW266714  11.957   0.283  14.330
54959SOL     OW66715  12.798   7.322   4.376
54959SOL    HW166716  12.849   7.398   4.404
54959SOL    HW266717  12.864   7.257   4.352
54960SOL     OW66718   8.766   4.661   5.688
54960SOL    HW166719   8.849   4.707   5.700
54960SOL    HW266720   8.760   4.603   5.764
54961SOL     OW66721   2.818   3.652  10.587
54961SOL    HW166722   2.905   3.678  10.556
54961SOL    HW266723   2.834   3.579  10.646
54962SOL     OW66724   2.157   7.649  11.386
54962SOL    HW166725   2.215   7.643  11.311
54962SOL    HW266726   2.184   7.730  11.431
54963SOL     OW66727  14.406   2.916  12.250
54963SOL    HW166728  14.362   2.890  12.170
54963SOL    HW266729  14.355   2.991  12.282
54964SOL     OW66730   0.938  11.638   3.951
54964SOL    HW166731   0.971  11.726   3.971
54964SOL    HW266732   1.015  11.589   3.925
54965SOL     OW66733   8.870  10.679   9.954
54965SOL    HW166734   8.823  10.672  10.036
54965SOL    HW266735   8.810  10.728   9.896
54966SOL     OW66736  10.848   0.966   8.994
54966SOL    HW166737  10.928   0.958   9.046
54966SOL    HW266738  10.821   1.057   9.005
54967SOL     OW66739  13.707   7.656   3.383
54967SOL    HW166740  13.646   7.630   3.452
54967SOL    HW266741  13.690   7.749   3.369
54968SOL     OW66742  12.807   7.361  14.450
54968SOL    HW166743  12.893   7.373  14.408
54968SOL    HW266744  12.794   7.440  14.502
54969SOL     OW66745   3.729   4.876  13.040
54969SOL    HW166746   3.792   4.872  13.112
54969SOL    HW266747   3.769   4.935  12.977
54970SOL     OW66748  11.834   8.928  10.385
54970SOL    HW166749  11.770   8.863  10.415
54970SOL    HW266750  11.782   9.007  10.371
54971SOL     OW66751   0.246   4.913  11.534
54971SOL    HW166752   0.314   4.950  11.477
54971SOL    HW266753   0.187   4.868  11.473
54972SOL     OW66754   1.957  14.157  13.901
54972SOL    HW166755   1.929  14.078  13.856
54972SOL    HW266756   1.884  14.178  13.959
54973SOL     OW66757   2.171   1.234   9.445
54973SOL    HW166758   2.162   1.275   9.359
54973SOL    HW266759   2.249   1.276   9.483
54974SOL     OW66760  13.115   1.897  14.594
54974SOL    HW166761  13.053   1.824  14.603
54974SOL    HW266762  13.174   1.887  14.669
54975SOL     OW66763   0.552  12.562  14.092
54975SOL    HW166764   0.593  12.646  14.116
54975SOL    HW266765   0.618  12.517  14.039
54976SOL     OW66766   9.429   5.819   1.109
54976SOL    HW166767   9.442   5.805   1.203
54976SOL    HW266768   9.366   5.891   1.104
54977SOL     OW66769   6.121   9.563   5.658
54977SOL    HW166770   6.208   9.569   5.697
54977SOL    HW266771   6.092   9.653   5.652
54978SOL     OW66772   2.817   1.564   0.417
54978SOL    HW166773   2.782   1.506   0.484
54978SOL    HW266774   2.857   1.636   0.467
54979SOL     OW66775   0.841  13.272   1.060
54979SOL    HW166776   0.875  13.190   1.026
54979SOL    HW266777   0.818  13.253   1.151
54980SOL     OW66778  10.533  14.379   6.736
54980SOL    HW166779  10.452  14.329   6.748
54980SOL    HW266780  10.525  14.454   6.795
54981SOL     OW66781   8.581   3.501   5.186
54981SOL    HW166782   8.588   3.505   5.090
54981SOL    HW266783   8.642   3.568   5.217
54982SOL     OW66784  14.505  11.369   8.250
54982SOL    HW166785  14.435  11.429   8.276
54982SOL    HW266786  14.474  11.283   8.278
54983SOL     OW66787   0.284   7.428   5.203
54983SOL    HW166788   0.231   7.420   5.124
54983SOL    HW266789   0.293   7.339   5.236
54984SOL     OW66790   2.225  14.399  12.307
54984SOL    HW166791   2.271  14.338  12.366
54984SOL    HW266792   2.139  14.360  12.293
54985SOL     OW66793  10.594   7.049  13.616
54985SOL    HW166794  10.578   6.955  13.625
54985SOL    HW266795  10.547   7.089  13.689
54986SOL     OW66796  10.229   3.672   7.334
54986SOL    HW166797  10.278   3.716   7.403
54986SOL    HW266798  10.292   3.660   7.263
54987SOL     OW66799   0.577   9.812   1.688
54987SOL    HW166800   0.650   9.864   1.723
54987SOL    HW266801   0.499   9.854   1.723
54988SOL     OW66802   8.701  11.260   5.385
54988SOL    HW166803   8.633  11.200   5.356
54988SOL    HW266804   8.654  11.335   5.423
54989SOL     OW66805   5.393  13.716   9.397
54989SOL    HW166806   5.359  13.771   9.325
54989SOL    HW266807   5.488  13.717   9.384
54990SOL     OW66808  13.005   6.914  10.374
54990SOL    HW166809  13.100   6.909  10.385
54990SOL    HW266810  12.994   6.948  10.285
54991SOL     OW66811   5.912   8.161  14.756
54991SOL    HW166812   5.929   8.212  14.836
54991SOL    HW266813   5.981   8.095  14.755
54992SOL     OW66814   9.282   3.218  10.934
54992SOL    HW166815   9.189   3.209  10.914
54992SOL    HW266816   9.319   3.132  10.914
54993SOL     OW66817   9.329   4.012  13.087
54993SOL    HW166818   9.343   3.940  13.149
54993SOL    HW266819   9.301   4.086  13.141
54994SOL     OW66820   5.183  10.353  11.725
54994SOL    HW166821   5.148  10.405  11.798
54994SOL    HW266822   5.127  10.276  11.722
54995SOL     OW66823   3.380  11.957   9.412
54995SOL    HW166824   3.370  11.864   9.433
54995SOL    HW266825   3.360  11.964   9.319
54996SOL     OW66826  13.760  14.313  12.031
54996SOL    HW166827  13.811  14.279  12.105
54996SOL    HW266828  13.822  14.316  11.958
54997SOL     OW66829  13.072   3.174  12.125
54997SOL    HW166830  13.140   3.170  12.057
54997SOL    HW266831  13.100   3.110  12.190
54998SOL     OW66832  14.493   3.368   4.699
54998SOL    HW166833  14.422   3.429   4.682
54998SOL    HW266834  14.524   3.341   4.613
54999SOL     OW66835  13.934  10.716  13.456
54999SOL    HW166836  14.000  10.693  13.522
54999SOL    HW266837  13.985  10.752  13.383
55000SOL     OW66838   7.914  14.060   4.303
55000SOL    HW166839   7.902  14.029   4.214
55000SOL    HW266840   7.890  13.985   4.358
55001SOL     OW66841  12.506   7.715   9.282
55001SOL    HW166842  12.463   7.669   9.355
55001SOL    HW266843  12.580   7.659   9.259
55002SOL     OW66844  14.251   2.126   2.248
55002SOL    HW166845  14.344   2.147   2.254
55002SOL    HW266846  14.214   2.199   2.197
55003SOL     OW66847  14.827   1.316   2.954
55003SOL    HW166848  14.753   1.331   2.894
55003SOL    HW266849   0.022   1.368   2.918
55004SOL     OW66850   6.467   2.451  12.525
55004SOL    HW166851   6.440   2.539  12.498
55004SOL    HW266852   6.384   2.404  12.539
55005SOL     OW66853  14.871   9.024  11.088
55005SOL    HW166854  14.776   9.033  11.074
55005SOL    HW266855   0.020   9.106  11.129
55006SOL     OW66856   4.504  13.747   5.396
55006SOL    HW166857   4.447  13.754   5.472
55006SOL    HW266858   4.457  13.690   5.335
55007SOL     OW66859  14.256   1.017  13.094
55007SOL    HW166860  14.242   1.106  13.061
55007SOL    HW266861  14.289   1.030  13.183
55008SOL     OW66862   9.127   9.949   6.661
55008SOL    HW166863   9.122   9.982   6.751
55008SOL    HW266864   9.047   9.897   6.650
55009SOL     OW66865  12.287   5.013   2.089
55009SOL    HW166866  12.338   5.014   2.008
55009SOL    HW266867  12.207   4.966   2.065
55010SOL     OW66868   2.031   0.814   7.695
55010SOL    HW166869   1.983   0.777   7.621
55010SOL    HW266870   1.988   0.776   7.772
55011SOL     OW66871  11.395   2.027   8.133
55011SOL    HW166872  11.342   1.968   8.186
55011SOL    HW266873  11.334   2.064   8.069
55012SOL     OW66874   7.606   1.202   3.028
55012SOL    HW166875   7.631   1.153   2.950
55012SOL    HW266876   7.686   1.249   3.053
55013SOL     OW66877  14.045  13.113   3.486
55013SOL    HW166878  14.044  13.109   3.390
55013SOL    HW266879  13.989  13.041   3.514
55014SOL     OW66880   7.620   9.070  12.256
55014SOL    HW166881   7.686   9.015  12.213
55014SOL    HW266882   7.568   9.105  12.183
55015SOL     OW66883   4.254  13.812   5.902
55015SOL    HW166884   4.241  13.905   5.880
55015SOL    HW266885   4.202  13.799   5.981
55016SOL     OW66886   5.714   4.515  12.550
55016SOL    HW166887   5.776   4.563  12.605
55016SOL    HW266888   5.629   4.527  12.593
55017SOL     OW66889   9.450  11.702   2.205
55017SOL    HW166890   9.392  11.639   2.247
55017SOL    HW266891   9.404  11.728   2.125
55018SOL     OW66892  14.754   0.811   5.814
55018SOL    HW166893  14.756   0.830   5.720
55018SOL    HW266894  14.844   0.823   5.843
55019SOL     OW66895   3.141   5.274   0.612
55019SOL    HW166896   3.205   5.299   0.545
55019SOL    HW266897   3.190   5.276   0.694
55020SOL     OW66898   5.529   1.638   4.215
55020SOL    HW166899   5.446   1.656   4.260
55020SOL    HW266900   5.509   1.652   4.123
55021SOL     OW66901   6.479  10.533  12.298
55021SOL    HW166902   6.392  10.494  12.302
55021SOL    HW266903   6.488  10.565  12.209
55022SOL     OW66904  12.635   1.891   4.557
55022SOL    HW166905  12.678   1.950   4.619
55022SOL    HW266906  12.542   1.914   4.564
55023SOL     OW66907   7.023   7.666  14.382
55023SOL    HW166908   6.975   7.650  14.463
55023SOL    HW266909   7.111   7.693  14.411
55024SOL     OW66910   6.895  12.923  12.604
55024SOL    HW166911   6.889  12.832  12.635
55024SOL    HW266912   6.989  12.941  12.602
55025SOL     OW66913  12.791   8.834   8.438
55025SOL    HW166914  12.814   8.753   8.392
55025SOL    HW266915  12.824   8.822   8.527
55026SOL     OW66916  13.161  11.249   5.793
55026SOL    HW166917  13.127  11.308   5.726
55026SOL    HW266918  13.105  11.264   5.869
55027SOL     OW66919   6.382   6.591   4.722
55027SOL    HW166920   6.310   6.623   4.775
55027SOL    HW266921   6.434   6.536   4.781
55028SOL     OW66922   9.392  12.614  12.524
55028SOL    HW166923   9.395  12.692  12.468
55028SOL    HW266924   9.323  12.633  12.587
55029SOL     OW66925  12.976   0.580  14.827
55029SOL    HW166926  12.882   0.571  14.845
55029SOL    HW266927  13.019   0.537   0.024
55030SOL     OW66928   7.116   2.317   9.849
55030SOL    HW166929   7.192   2.259   9.846
55030SOL    HW266930   7.120   2.358   9.936
55031SOL     OW66931   7.078  14.716  12.107
55031SOL    HW166932   7.007  14.655  12.125
55031SOL    HW266933   7.132  14.670  12.042
55032SOL     OW66934   9.648   1.577   8.788
55032SOL    HW166935   9.682   1.595   8.875
55032SOL    HW266936   9.599   1.495   8.798
55033SOL     OW66937   0.601   0.199  13.810
55033SOL    HW166938   0.684   0.242  13.790
55033SOL    HW266939   0.615   0.157  13.895
55034SOL     OW66940   1.534  13.292   5.350
55034SOL    HW166941   1.487  13.218   5.313
55034SOL    HW266942   1.600  13.253   5.407
55035SOL     OW66943   9.178   0.394  12.387
55035SOL    HW166944   9.142   0.365  12.471
55035SOL    HW266945   9.264   0.429  12.409
55036SOL     OW66946   1.696   5.198  14.710
55036SOL    HW166947   1.641   5.190  14.787
55036SOL    HW266948   1.774   5.244  14.741
55037SOL     OW66949  13.894   1.847   5.356
55037SOL    HW166950  13.871   1.920   5.298
55037SOL    HW266951  13.844   1.863   5.436
55038SOL     OW66952   4.086  12.838   6.738
55038SOL    HW166953   3.994  12.843   6.713
55038SOL    HW266954   4.127  12.788   6.668
55039SOL     OW66955   0.905   4.141   2.595
55039SOL    HW166956   0.841   4.210   2.576
55039SOL    HW266957   0.965   4.181   2.658
55040SOL     OW66958  10.824  14.463  11.707
55040SOL    HW166959  10.757  14.449  11.775
55040SOL    HW266960  10.842  14.376  11.673
55041SOL     OW66961   2.486   2.448   7.738
55041SOL    HW166962   2.544   2.372   7.742
55041SOL    HW266963   2.542   2.518   7.705
55042SOL     OW66964   3.932   5.530   9.874
55042SOL    HW166965   3.992   5.591   9.831
55042SOL    HW266966   3.957   5.534   9.967
55043SOL     OW66967  11.487  12.890   8.066
55043SOL    HW166968  11.576  12.887   8.103
55043SOL    HW266969  11.500  12.887   7.971
55044SOL     OW66970  11.940   9.995   8.818
55044SOL    HW166971  12.034  10.000   8.835
55044SOL    HW266972  11.935   9.972   8.725
55045SOL     OW66973  14.699   0.262   1.286
55045SOL    HW166974  14.629   0.327   1.286
55045SOL    HW266975  14.769   0.301   1.338
55046SOL     OW66976   0.740   2.185   4.088
55046SOL    HW166977   0.652   2.147   4.081
55046SOL    HW266978   0.737   2.264   4.035
55047SOL     OW66979  10.435  12.003   9.052
55047SOL    HW166980  10.389  11.959   9.123
55047SOL    HW266981  10.527  12.001   9.078
55048SOL     OW66982   3.814   2.058   6.751
55048SOL    HW166983   3.887   2.110   6.785
55048SOL    HW266984   3.819   1.975   6.799
55049SOL     OW66985   3.996   1.622  11.254
55049SOL    HW166986   4.055   1.692  11.281
55049SOL    HW266987   3.921   1.631  11.313
55050SOL     OW66988   9.744   8.622  11.291
55050SOL    HW166989   9.654   8.624  11.257
55050SOL    HW266990   9.771   8.714  11.291
55051SOL     OW66991  14.344   1.071  14.474
55051SOL    HW166992  14.398   1.148  14.489
55051SOL    HW266993  14.379   1.033  14.393
55052SOL     OW66994   5.768  13.250   5.049
55052SOL    HW166995   5.703  13.299   5.099
55052SOL    HW266996   5.799  13.182   5.109
55053SOL     OW66997  10.733  11.450   8.848
55053SOL    HW166998  10.658  11.405   8.810
55053SOL    HW266999  10.788  11.381   8.883
55054SOL     OW67000  12.802   8.412  11.810
55054SOL    HW167001  12.863   8.387  11.879
55054SOL    HW267002  12.858   8.441  11.738
55055SOL     OW67003   7.580   8.769   1.858
55055SOL    HW167004   7.497   8.795   1.819
55055SOL    HW267005   7.623   8.852   1.880
55056SOL     OW67006   3.651   4.076   5.548
55056SOL    HW167007   3.654   3.981   5.544
55056SOL    HW267008   3.583   4.095   5.612
55057SOL     OW67009   0.130  11.943   6.358
55057SOL    HW167010   0.200  11.977   6.303
55057SOL    HW267011   0.081  12.020   6.385
55058SOL     OW67012   1.694   3.191  11.028
55058SOL    HW167013   1.720   3.223  10.941
55058SOL    HW267014   1.625   3.126  11.010
55059SOL     OW67015   7.818  10.511  12.845
55059SOL    HW167016   7.769  10.592  12.856
55059SOL    HW267017   7.766  10.460  12.782
55060SOL     OW67018   3.877  10.555  13.009
55060SOL    HW167019   3.908  10.644  12.992
55060SOL    HW267020   3.861  10.518  12.922
55061SOL     OW67021   1.835   7.554   1.625
55061SOL    HW167022   1.749   7.582   1.656
55061SOL    HW267023   1.843   7.591   1.537
55062SOL     OW67024   8.743   2.051  10.923
55062SOL    HW167025   8.739   2.094  11.009
55062SOL    HW267026   8.663   2.079  10.879
55063SOL     OW67027  14.573  12.844  13.687
55063SOL    HW167028  14.504  12.871  13.747
55063SOL    HW267029  14.621  12.925  13.667
55064SOL     OW67030   8.730   9.073  11.117
55064SOL    HW167031   8.746   9.019  11.194
55064SOL    HW267032   8.763   9.160  11.141
55065SOL     OW67033  12.547   1.478  11.419
55065SOL    HW167034  12.573   1.544  11.483
55065SOL    HW267035  12.478   1.519  11.368
55066SOL     OW67036   9.260  11.086   1.969
55066SOL    HW167037   9.282  10.998   1.998
55066SOL    HW267038   9.324  11.142   2.013
55067SOL     OW67039   1.833   9.357   7.119
55067SOL    HW167040   1.806   9.273   7.156
55067SOL    HW267041   1.915   9.378   7.164
55068SOL     OW67042   5.612  10.199   8.216
55068SOL    HW167043   5.639  10.248   8.294
55068SOL    HW267044   5.522  10.171   8.235
55069SOL     OW67045   7.492   1.695   9.767
55069SOL    HW167046   7.434   1.626   9.797
55069SOL    HW267047   7.578   1.672   9.802
55070SOL     OW67048   9.518   0.830   7.156
55070SOL    HW167049   9.469   0.815   7.076
55070SOL    HW267050   9.579   0.901   7.135
55071SOL     OW67051   0.568   8.382   2.378
55071SOL    HW167052   0.565   8.297   2.421
55071SOL    HW267053   0.569   8.445   2.450
55072SOL     OW67054   3.807   5.533   8.759
55072SOL    HW167055   3.717   5.505   8.747
55072SOL    HW267056   3.826   5.587   8.683
55073SOL     OW67057   6.779   4.185   2.525
55073SOL    HW167058   6.832   4.243   2.470
55073SOL    HW267059   6.755   4.113   2.468
55074SOL     OW67060  10.108  12.923   4.030
55074SOL    HW167061  10.179  12.922   3.966
55074SOL    HW267062  10.028  12.926   3.978
55075SOL     OW67063   2.657   3.067  11.409
55075SOL    HW167064   2.615   3.099  11.489
55075SOL    HW267065   2.749   3.055  11.434
55076SOL     OW67066   9.161  14.075   0.243
55076SOL    HW167067   9.141  14.027   0.323
55076SOL    HW267068   9.183  14.163   0.273
55077SOL     OW67069   4.963   9.167   8.686
55077SOL    HW167070   4.974   9.260   8.665
55077SOL    HW267071   5.035   9.148   8.747
55078SOL     OW67072   1.810   5.840   7.784
55078SOL    HW167073   1.742   5.857   7.849
55078SOL    HW267074   1.762   5.833   7.701
55079SOL     OW67075   1.304   1.058  13.968
55079SOL    HW167076   1.318   1.055  13.873
55079SOL    HW267077   1.265   1.143  13.984
55080SOL     OW67078   0.611   8.660  10.851
55080SOL    HW167079   0.658   8.660  10.935
55080SOL    HW267080   0.618   8.751  10.820
55081SOL     OW67081   6.969  10.594   1.085
55081SOL    HW167082   7.062  10.599   1.108
55081SOL    HW267083   6.966  10.539   1.007
55082SOL     OW67084  14.185  10.270  13.749
55082SOL    HW167085  14.213  10.342  13.692
55082SOL    HW267086  14.264  10.217  13.761
55083SOL     OW67087  14.310  12.827   3.330
55083SOL    HW167088  14.363  12.852   3.255
55083SOL    HW267089  14.317  12.900   3.391
55084SOL     OW67090  10.887   7.059   1.638
55084SOL    HW167091  10.901   7.062   1.733
55084SOL    HW267092  10.972   7.084   1.601
55085SOL     OW67093  10.134   1.435  14.270
55085SOL    HW167094  10.188   1.497  14.221
55085SOL    HW267095  10.198   1.381  14.317
55086SOL     OW67096   9.529   1.594   7.269
55086SOL    HW167097   9.573   1.564   7.348
55086SOL    HW267098   9.599   1.609   7.206
55087SOL     OW67099  14.841   3.519   6.681
55087SOL    HW167100  14.870   3.588   6.621
55087SOL    HW267101  14.873   3.547   6.767
55088SOL     OW67102   0.522  12.401   8.828
55088SOL    HW167103   0.482  12.429   8.746
55088SOL    HW267104   0.616  12.406   8.812
55089SOL     OW67105  14.291   5.218   0.454
55089SOL    HW167106  14.246   5.143   0.495
55089SOL    HW267107  14.381   5.188   0.444
55090SOL     OW67108   4.272  12.571   0.672
55090SOL    HW167109   4.184  12.566   0.634
55090SOL    HW267110   4.323  12.622   0.608
55091SOL     OW67111  10.082   1.389   3.964
55091SOL    HW167112  10.081   1.294   3.947
55091SOL    HW267113  10.004   1.404   4.018
55092SOL     OW67114   5.723   5.853   3.163
55092SOL    HW167115   5.786   5.880   3.230
55092SOL    HW267116   5.648   5.912   3.175
55093SOL     OW67117   3.883   3.816   8.913
55093SOL    HW167118   3.968   3.788   8.880
55093SOL    HW267119   3.855   3.744   8.969
55094SOL     OW67120   6.435   9.281   1.318
55094SOL    HW167121   6.470   9.251   1.402
55094SOL    HW267122   6.423   9.375   1.330
55095SOL     OW67123   4.524  10.695   2.485
55095SOL    HW167124   4.460  10.682   2.555
55095SOL    HW267125   4.553  10.785   2.494
55096SOL     OW67126   9.984  11.845  10.956
55096SOL    HW167127  10.050  11.909  10.932
55096SOL    HW267128   9.906  11.897  10.976
55097SOL     OW67129   8.415  13.818   6.635
55097SOL    HW167130   8.369  13.816   6.551
55097SOL    HW267131   8.505  13.843   6.613
55098SOL     OW67132   4.784  13.576  12.811
55098SOL    HW167133   4.877  13.597  12.822
55098SOL    HW267134   4.751  13.567  12.900
55099SOL     OW67135   6.521   8.713   8.735
55099SOL    HW167136   6.434   8.675   8.742
55099SOL    HW267137   6.573   8.668   8.802
55100SOL     OW67138   2.181  14.362  13.368
55100SOL    HW167139   2.255  14.390  13.314
55100SOL    HW267140   2.125  14.312  13.309
55101SOL     OW67141  10.405  13.932   0.454
55101SOL    HW167142  10.403  13.968   0.542
55101SOL    HW267143  10.323  13.961   0.414
55102SOL     OW67144   5.521  13.622  11.544
55102SOL    HW167145   5.566  13.570  11.477
55102SOL    HW267146   5.583  13.693  11.564
55103SOL     OW67147   2.327   2.462   2.579
55103SOL    HW167148   2.303   2.552   2.603
55103SOL    HW267149   2.332   2.464   2.484
55104SOL     OW67150   1.549   1.798  11.505
55104SOL    HW167151   1.612   1.852  11.552
55104SOL    HW267152   1.496   1.757  11.574
55105SOL     OW67153   9.890   3.910   1.334
55105SOL    HW167154   9.862   3.850   1.265
55105SOL    HW267155   9.842   3.991   1.316
55106SOL     OW67156   4.377  10.536   2.308
55106SOL    HW167157   4.417  10.603   2.363
55106SOL    HW267158   4.292  10.520   2.347
55107SOL     OW67159   4.871  12.525  14.828
55107SOL    HW167160   4.775  12.520  14.836
55107SOL    HW267161   4.901  12.546   0.040
55108SOL     OW67162  12.501   1.500   9.234
55108SOL    HW167163  12.547   1.584   9.238
55108SOL    HW267164  12.545   1.446   9.299
55109SOL     OW67165   1.286   1.144   4.690
55109SOL    HW167166   1.241   1.210   4.742
55109SOL    HW267167   1.369   1.185   4.666
55110SOL     OW67168  12.804   2.820   7.862
55110SOL    HW167169  12.778   2.884   7.929
55110SOL    HW267170  12.888   2.853   7.830
55111SOL     OW67171   1.923  14.861   2.888
55111SOL    HW167172   1.994  14.869   2.951
55111SOL    HW267173   1.966  14.840   2.805
55112SOL     OW67174   6.126  13.524   0.874
55112SOL    HW167175   6.045  13.572   0.892
55112SOL    HW267176   6.195  13.584   0.901
55113SOL     OW67177   0.376   9.203  10.715
55113SOL    HW167178   0.468   9.218  10.694
55113SOL    HW267179   0.327   9.240  10.642
55114SOL     OW67180  14.605   3.260   3.681
55114SOL    HW167181  14.670   3.262   3.610
55114SOL    HW267182  14.524   3.290   3.640
55115SOL     OW67183  14.637  14.259   7.464
55115SOL    HW167184  14.715  14.312   7.479
55115SOL    HW267185  14.671  14.172   7.445
55116SOL     OW67186   1.648   0.833   0.176
55116SOL    HW167187   1.736   0.794   0.179
55116SOL    HW267188   1.597   0.781   0.237
55117SOL     OW67189   2.321  12.202  12.404
55117SOL    HW167190   2.239  12.157  12.383
55117SOL    HW267191   2.298  12.262  12.475
55118SOL     OW67192   9.702  13.946   7.170
55118SOL    HW167193   9.612  13.969   7.147
55118SOL    HW267194   9.694  13.860   7.213
55119SOL     OW67195   4.581   6.597  10.750
55119SOL    HW167196   4.617   6.533  10.689
55119SOL    HW267197   4.500   6.626  10.709
55120SOL     OW67198   4.572   4.360  13.914
55120SOL    HW167199   4.577   4.264  13.915
55120SOL    HW267200   4.552   4.384  14.005
55121SOL     OW67201   2.119  11.094  14.161
55121SOL    HW167202   2.085  11.009  14.187
55121SOL    HW267203   2.080  11.111  14.075
55122SOL     OW67204  13.586   7.455   4.399
55122SOL    HW167205  13.621   7.413   4.321
55122SOL    HW267206  13.553   7.383   4.453
55123SOL     OW67207  11.429   4.081  13.005
55123SOL    HW167208  11.439   4.169  12.969
55123SOL    HW267209  11.469   4.086  13.092
55124SOL     OW67210   4.056  10.854   1.630
55124SOL    HW167211   4.126  10.869   1.566
55124SOL    HW267212   4.102  10.829   1.710
55125SOL     OW67213  11.693   6.232   1.261
55125SOL    HW167214  11.744   6.151   1.248
55125SOL    HW267215  11.678   6.235   1.355
55126SOL     OW67216  11.636  11.228  10.174
55126SOL    HW167217  11.645  11.152  10.118
55126SOL    HW267218  11.715  11.229  10.227
55127SOL     OW67219   0.552  10.535   5.765
55127SOL    HW167220   0.461  10.540   5.794
55127SOL    HW267221   0.587  10.458   5.811
55128SOL     OW67222   0.344   9.295   3.429
55128SOL    HW167223   0.303   9.209   3.433
55128SOL    HW267224   0.276   9.352   3.394
55129SOL     OW67225   8.069   0.008   2.242
55129SOL    HW167226   8.042  14.808   2.190
55129SOL    HW267227   8.138   0.049   2.190
55130SOL     OW67228   5.274   5.268   0.582
55130SOL    HW167229   5.290   5.297   0.672
55130SOL    HW267230   5.326   5.188   0.573
55131SOL     OW67231   1.051   0.664  11.397
55131SOL    HW167232   1.121   0.667  11.462
55131SOL    HW267233   0.975   0.701  11.442
55132SOL     OW67234   2.443   4.054   4.463
55132SOL    HW167235   2.472   4.145   4.456
55132SOL    HW267236   2.423   4.043   4.555
55133SOL     OW67237  11.259   4.048   2.521
55133SOL    HW167238  11.321   3.998   2.573
55133SOL    HW267239  11.289   4.037   2.431
55134SOL     OW67240   6.875   0.070   5.989
55134SOL    HW167241   6.845  14.857   5.974
55134SOL    HW267242   6.848   0.117   5.910
55135SOL     OW67243   9.298   4.200   2.129
55135SOL    HW167244   9.283   4.284   2.085
55135SOL    HW267245   9.392   4.187   2.125
55136SOL     OW67246   5.762  12.384   4.663
55136SOL    HW167247   5.752  12.296   4.700
55136SOL    HW267248   5.761  12.442   4.739
55137SOL     OW67249   4.048   6.141   6.249
55137SOL    HW167250   4.128   6.192   6.260
55137SOL    HW267251   4.079   6.054   6.222
55138SOL     OW67252   8.299   6.789   1.752
55138SOL    HW167253   8.337   6.705   1.726
55138SOL    HW267254   8.247   6.816   1.676
55139SOL     OW67255  12.239   9.564   9.216
55139SOL    HW167256  12.185   9.639   9.190
55139SOL    HW267257  12.176   9.501   9.251
55140SOL     OW67258   4.796   6.337  12.882
55140SOL    HW167259   4.857   6.264  12.893
55140SOL    HW267260   4.850   6.415  12.890
55141SOL     OW67261   9.833  11.458   8.058
55141SOL    HW167262   9.759  11.450   7.998
55141SOL    HW267263   9.901  11.503   8.007
55142SOL     OW67264   5.018   5.003   8.026
55142SOL    HW167265   5.027   4.923   8.078
55142SOL    HW267266   5.107   5.036   8.017
55143SOL     OW67267   3.915   2.477   0.308
55143SOL    HW167268   3.902   2.410   0.376
55143SOL    HW267269   3.940   2.427   0.230
55144SOL     OW67270   9.653   1.342  10.132
55144SOL    HW167271   9.657   1.390  10.215
55144SOL    HW267272   9.587   1.275  10.146
55145SOL     OW67273  10.399   1.844  12.620
55145SOL    HW167274  10.350   1.924  12.635
55145SOL    HW267275  10.365   1.810  12.537
55146SOL     OW67276  11.744   0.008  10.140
55146SOL    HW167277  11.684  14.835  10.196
55146SOL    HW267278  11.712  14.869  10.051
55147SOL     OW67279  11.367  10.417  10.256
55147SOL    HW167280  11.363  10.440  10.163
55147SOL    HW267281  11.350  10.499  10.302
55148SOL     OW67282   7.925   8.851   8.516
55148SOL    HW167283   7.990   8.824   8.451
55148SOL    HW267284   7.939   8.946   8.525
55149SOL     OW67285   9.642   0.553   7.186
55149SOL    HW167286   9.590   0.633   7.177
55149SOL    HW267287   9.628   0.525   7.276
55150SOL     OW67288   4.364   6.831  14.411
55150SOL    HW167289   4.298   6.761  14.410
55150SOL    HW267290   4.350   6.878  14.329
55151SOL     OW67291  13.063  11.599  12.659
55151SOL    HW167292  13.076  11.657  12.734
55151SOL    HW267293  12.969  11.602  12.641
55152SOL     OW67294   9.919  12.848   6.457
55152SOL    HW167295   9.938  12.904   6.382
55152SOL    HW267296   9.917  12.908   6.532
55153SOL     OW67297  12.571   1.508   3.553
55153SOL    HW167298  12.609   1.556   3.626
55153SOL    HW267299  12.536   1.428   3.592
55154SOL     OW67300   4.178  11.796  13.394
55154SOL    HW167301   4.092  11.799  13.436
55154SOL    HW267302   4.216  11.882  13.413
55155SOL     OW67303   2.152   4.913  11.242
55155SOL    HW167304   2.097   4.836  11.229
55155SOL    HW267305   2.090   4.986  11.250
55156SOL     OW67306   0.311   4.474   7.027
55156SOL    HW167307   0.218   4.461   7.043
55156SOL    HW267308   0.355   4.413   7.086
55157SOL     OW67309   1.175  13.544  11.763
55157SOL    HW167310   1.152  13.506  11.678
55157SOL    HW267311   1.213  13.629  11.742
55158SOL     OW67312   9.766   6.589   1.082
55158SOL    HW167313   9.761   6.642   1.162
55158SOL    HW267314   9.676   6.559   1.068
55159SOL     OW67315   1.742   1.903  13.345
55159SOL    HW167316   1.715   1.947  13.265
55159SOL    HW267317   1.758   1.973  13.408
55160SOL     OW67318  14.839   8.725  13.852
55160SOL    HW167319  14.753   8.727  13.894
55160SOL    HW267320   0.025   8.714  13.924
55161SOL     OW67321   4.847  12.915   2.483
55161SOL    HW167322   4.871  13.007   2.483
55161SOL    HW267323   4.773  12.909   2.423
55162SOL     OW67324   9.073   5.713   7.319
55162SOL    HW167325   9.016   5.753   7.384
55162SOL    HW267326   9.016   5.696   7.244
55163SOL     OW67327  14.781   8.907   3.217
55163SOL    HW167328  14.777   8.844   3.289
55163SOL    HW267329  14.859   8.880   3.167
55164SOL     OW67330   7.592   3.297  14.576
55164SOL    HW167331   7.681   3.325  14.555
55164SOL    HW267332   7.562   3.249  14.499
55165SOL     OW67333   7.975   2.924   4.296
55165SOL    HW167334   7.943   3.012   4.319
55165SOL    HW267335   7.897   2.878   4.265
55166SOL     OW67336  10.298   6.563  14.462
55166SOL    HW167337  10.324   6.510  14.387
55166SOL    HW267338  10.224   6.516  14.500
55167SOL     OW67339  13.112   8.014   2.727
55167SOL    HW167340  13.175   8.038   2.659
55167SOL    HW267341  13.031   7.997   2.679
55168SOL     OW67342  10.066  11.866  14.012
55168SOL    HW167343  10.089  11.776  13.990
55168SOL    HW267344  10.130  11.893  14.077
55169SOL     OW67345   3.298   0.625   6.736
55169SOL    HW167346   3.375   0.572   6.714
55169SOL    HW267347   3.250   0.631   6.653
55170SOL     OW67348   6.093   8.849  13.950
55170SOL    HW167349   6.160   8.860  14.018
55170SOL    HW267350   6.042   8.930  13.954
55171SOL     OW67351   3.659   3.953   1.094
55171SOL    HW167352   3.681   3.864   1.067
55171SOL    HW267353   3.567   3.948   1.120
55172SOL     OW67354   4.905   8.589   9.686
55172SOL    HW167355   4.853   8.610   9.608
55172SOL    HW267356   4.986   8.552   9.651
55173SOL     OW67357   8.191  10.386   7.293
55173SOL    HW167358   8.114  10.380   7.350
55173SOL    HW267359   8.157  10.421   7.210
55174SOL     OW67360  11.860   8.245  12.844
55174SOL    HW167361  11.824   8.208  12.763
55174SOL    HW267362  11.945   8.281  12.818
55175SOL     OW67363   7.083  12.480   5.471
55175SOL    HW167364   7.084  12.573   5.447
55175SOL    HW267365   7.175  12.453   5.466
55176SOL     OW67366   1.823   9.433  13.784
55176SOL    HW167367   1.892   9.470  13.839
55176SOL    HW267368   1.829   9.481  13.701
55177SOL     OW67369  11.062   2.812  10.195
55177SOL    HW167370  11.066   2.720  10.166
55177SOL    HW267371  10.968   2.829  10.207
55178SOL     OW67372   1.198   0.192  12.094
55178SOL    HW167373   1.265   0.126  12.112
55178SOL    HW267374   1.128   0.174  12.157
55179SOL     OW67375   0.331  14.435  12.108
55179SOL    HW167376   0.418  14.412  12.075
55179SOL    HW267377   0.274  14.427  12.032
55180SOL     OW67378  10.555   2.137  10.463
55180SOL    HW167379  10.490   2.194  10.422
55180SOL    HW267380  10.507   2.058  10.487
55181SOL     OW67381   4.910  10.728   7.776
55181SOL    HW167382   4.846  10.796   7.800
55181SOL    HW267383   4.974  10.774   7.721
55182SOL     OW67384   5.801  13.324   7.485
55182SOL    HW167385   5.814  13.306   7.578
55182SOL    HW267386   5.728  13.267   7.460
55183SOL     OW67387  14.010   4.821   4.820
55183SOL    HW167388  14.095   4.831   4.776
55183SOL    HW267389  14.032   4.806   4.912
55184SOL     OW67390   7.537   1.678   0.718
55184SOL    HW167391   7.491   1.595   0.709
55184SOL    HW267392   7.488   1.726   0.785
55185SOL     OW67393  12.647   3.513  13.766
55185SOL    HW167394  12.623   3.603  13.787
55185SOL    HW267395  12.712   3.521  13.696
55186SOL     OW67396   2.980   3.073   8.319
55186SOL    HW167397   3.072   3.048   8.308
55186SOL    HW267398   2.950   3.021   8.394
55187SOL     OW67399  10.279  10.829   2.040
55187SOL    HW167400  10.326  10.876   2.109
55187SOL    HW267401  10.230  10.761   2.085
55188SOL     OW67402   4.526  11.195  13.655
55188SOL    HW167403   4.561  11.139  13.585
55188SOL    HW267404   4.602  11.213  13.710
55189SOL     OW67405  13.710   8.846   6.684
55189SOL    HW167406  13.741   8.759   6.662
55189SOL    HW267407  13.615   8.840   6.681
55190SOL     OW67408   7.908   5.153   2.789
55190SOL    HW167409   7.947   5.096   2.856
55190SOL    HW267410   7.839   5.200   2.835
55191SOL     OW67411   3.834   1.217   4.202
55191SOL    HW167412   3.840   1.124   4.221
55191SOL    HW267413   3.924   1.242   4.178
55192SOL     OW67414  12.813  13.130   5.520
55192SOL    HW167415  12.827  13.131   5.426
55192SOL    HW267416  12.741  13.192   5.535
55193SOL     OW67417  12.004  11.038  12.571
55193SOL    HW167418  12.008  11.009  12.480
55193SOL    HW267419  12.035  10.963  12.621
55194SOL     OW67420   7.396   2.194   6.640
55194SOL    HW167421   7.360   2.129   6.580
55194SOL    HW267422   7.442   2.256   6.584
55195SOL     OW67423   1.165  14.196  10.894
55195SOL    HW167424   1.149  14.117  10.946
55195SOL    HW267425   1.237  14.171  10.835
55196SOL     OW67426  10.051   2.099  10.140
55196SOL    HW167427  10.094   2.150  10.072
55196SOL    HW267428   9.966   2.142  10.151
55197SOL     OW67429   0.317   4.762   0.132
55197SOL    HW167430   0.303   4.747   0.039
55197SOL    HW267431   0.399   4.717   0.152
55198SOL     OW67432  12.123   2.209   5.671
55198SOL    HW167433  12.094   2.121   5.696
55198SOL    HW267434  12.042   2.260   5.665
55199SOL     OW67435   8.940   7.936   9.959
55199SOL    HW167436   9.013   7.874   9.955
55199SOL    HW267437   8.952   7.982  10.042
55200SOL     OW67438   3.247   9.157  13.985
55200SOL    HW167439   3.211   9.245  13.980
55200SOL    HW267440   3.284   9.142  13.898
55201SOL     OW67441  10.019   4.599   6.943
55201SOL    HW167442  10.061   4.595   7.029
55201SOL    HW267443   9.936   4.552   6.954
55202SOL     OW67444   3.587   2.805   3.087
55202SOL    HW167445   3.625   2.892   3.102
55202SOL    HW267446   3.496   2.823   3.064
55203SOL     OW67447   5.648   0.590   0.256
55203SOL    HW167448   5.685   0.511   0.297
55203SOL    HW267449   5.554   0.582   0.271
55204SOL     OW67450   8.021   9.221   3.103
55204SOL    HW167451   8.099   9.166   3.106
55204SOL    HW267452   7.951   9.167   3.140
55205SOL     OW67453  14.236   1.589   2.620
55205SOL    HW167454  14.309   1.631   2.665
55205SOL    HW267455  14.186   1.661   2.583
55206SOL     OW67456   5.614  12.112  10.486
55206SOL    HW167457   5.525  12.121  10.522
55206SOL    HW267458   5.610  12.032  10.434
55207SOL     OW67459   4.219   9.513  14.829
55207SOL    HW167460   4.215   9.525  14.734
55207SOL    HW267461   4.310   9.487  14.846
55208SOL     OW67462  11.784   3.467   3.805
55208SOL    HW167463  11.699   3.502   3.830
55208SOL    HW267464  11.781   3.375   3.831
55209SOL     OW67465  14.407  11.076   1.321
55209SOL    HW167466  14.473  11.051   1.386
55209SOL    HW267467  14.416  11.011   1.251
55210SOL     OW67468   8.818  12.855   0.880
55210SOL    HW167469   8.752  12.786   0.876
55210SOL    HW267470   8.902  12.808   0.882
55211SOL     OW67471  13.929  10.673   3.009
55211SOL    HW167472  14.010  10.685   2.959
55211SOL    HW267473  13.958  10.647   3.096
55212SOL     OW67474  10.786   7.888  10.340
55212SOL    HW167475  10.841   7.871  10.264
55212SOL    HW267476  10.755   7.978  10.328
55213SOL     OW67477   5.146   4.762  11.478
55213SOL    HW167478   5.137   4.806  11.393
55213SOL    HW267479   5.064   4.781  11.524
55214SOL     OW67480   3.420  14.633   0.198
55214SOL    HW167481   3.327  14.657   0.202
55214SOL    HW267482   3.460  14.681   0.271
55215SOL     OW67483   2.750   6.122  11.124
55215SOL    HW167484   2.830   6.069  11.129
55215SOL    HW267485   2.772   6.194  11.065
55216SOL     OW67486   3.748   9.585  14.737
55216SOL    HW167487   3.732   9.629  14.653
55216SOL    HW267488   3.758   9.656  14.800
55217SOL     OW67489  12.287  14.482   5.330
55217SOL    HW167490  12.250  14.406   5.375
55217SOL    HW267491  12.310  14.450   5.243
55218SOL     OW67492   0.396  12.673   1.513
55218SOL    HW167493   0.424  12.758   1.545
55218SOL    HW267494   0.428  12.670   1.423
55219SOL     OW67495   7.417  12.395   2.834
55219SOL    HW167496   7.377  12.480   2.850
55219SOL    HW267497   7.507  12.404   2.866
55220SOL     OW67498   2.244   5.685  13.250
55220SOL    HW167499   2.150   5.670  13.245
55220SOL    HW267500   2.276   5.669  13.161
55221SOL     OW67501  13.254   5.068   1.704
55221SOL    HW167502  13.245   5.108   1.790
55221SOL    HW267503  13.223   4.978   1.716
55222SOL     OW67504  12.501  13.218   4.063
55222SOL    HW167505  12.461  13.151   4.118
55222SOL    HW267506  12.453  13.214   3.981
55223SOL     OW67507  14.298  11.816   4.000
55223SOL    HW167508  14.221  11.759   4.000
55223SOL    HW267509  14.263  11.903   3.982
55224SOL     OW67510   3.488   5.571  12.097
55224SOL    HW167511   3.489   5.663  12.068
55224SOL    HW267512   3.579   5.552  12.119
55225SOL     OW67513  14.216   9.361   7.260
55225SOL    HW167514  14.201   9.281   7.210
55225SOL    HW267515  14.255   9.331   7.342
55226SOL     OW67516   3.188  10.618   3.941
55226SOL    HW167517   3.267  10.628   3.889
55226SOL    HW267518   3.217  10.577   4.022
55227SOL     OW67519   1.052   6.616   4.799
55227SOL    HW167520   1.138   6.653   4.780
55227SOL    HW267521   0.991   6.690   4.790
55228SOL     OW67522   8.840   8.791   7.996
55228SOL    HW167523   8.863   8.773   7.905
55228SOL    HW267524   8.919   8.769   8.045
55229SOL     OW67525   5.299  14.748  10.760
55229SOL    HW167526   5.319  14.831  10.716
55229SOL    HW267527   5.290  14.685  10.688
55230SOL     OW67528  14.271  11.506   2.342
55230SOL    HW167529  14.175  11.502   2.337
55230SOL    HW267530  14.300  11.502   2.251
55231SOL     OW67531   7.517   1.402   3.972
55231SOL    HW167532   7.486   1.424   3.884
55231SOL    HW267533   7.598   1.353   3.957
55232SOL     OW67534   9.884  14.540   6.425
55232SOL    HW167535   9.855  14.466   6.479
55232SOL    HW267536   9.831  14.534   6.346
55233SOL     OW67537   5.001  10.579   0.134
55233SOL    HW167538   5.007  10.551   0.043
55233SOL    HW267539   4.929  10.642   0.135
55234SOL     OW67540   5.834  12.016   7.863
55234SOL    HW167541   5.862  11.935   7.820
55234SOL    HW267542   5.914  12.054   7.899
55235SOL     OW67543   9.183  10.731  13.422
55235SOL    HW167544   9.230  10.764  13.345
55235SOL    HW267545   9.142  10.808  13.461
55236SOL     OW67546  12.794   1.500   4.088
55236SOL    HW167547  12.741   1.425   4.117
55236SOL    HW267548  12.759   1.574   4.136
55237SOL     OW67549   2.340   1.857   0.855
55237SOL    HW167550   2.351   1.778   0.909
55237SOL    HW267551   2.266   1.836   0.798
55238SOL     OW67552   4.395   3.650  13.951
55238SOL    HW167553   4.422   3.738  13.979
55238SOL    HW267554   4.462   3.592  13.987
55239SOL     OW67555  10.537  11.564   0.317
55239SOL    HW167556  10.631  11.575   0.302
55239SOL    HW267557  10.531  11.508   0.395
55240SOL     OW67558  12.363   9.944   2.523
55240SOL    HW167559  12.332   9.895   2.446
55240SOL    HW267560  12.404   9.878   2.579
55241SOL     OW67561   0.447   1.372   9.786
55241SOL    HW167562   0.409   1.453   9.750
55241SOL    HW267563   0.532   1.364   9.743
55242SOL     OW67564   2.690   2.029  11.578
55242SOL    HW167565   2.684   1.935  11.562
55242SOL    HW267566   2.605   2.064  11.548
55243SOL     OW67567  11.190   7.097  12.215
55243SOL    HW167568  11.130   7.049  12.158
55243SOL    HW267569  11.244   7.148  12.156
55244SOL     OW67570  10.065   1.382  11.588
55244SOL    HW167571  10.105   1.337  11.662
55244SOL    HW267572  10.026   1.461  11.626
55245SOL     OW67573   3.903   4.590   0.626
55245SOL    HW167574   3.890   4.659   0.692
55245SOL    HW267575   3.995   4.568   0.632
55246SOL     OW67576   5.471   1.247   1.705
55246SOL    HW167577   5.424   1.296   1.773
55246SOL    HW267578   5.413   1.250   1.629
55247SOL     OW67579   4.153   3.381   8.417
55247SOL    HW167580   4.179   3.470   8.392
55247SOL    HW267581   4.161   3.331   8.336
55248SOL     OW67582  12.540  10.528   2.812
55248SOL    HW167583  12.484  10.459   2.850
55248SOL    HW267584  12.612  10.480   2.771
55249SOL     OW67585   2.123  11.052  13.279
55249SOL    HW167586   2.069  11.056  13.200
55249SOL    HW267587   2.200  11.001  13.252
55250SOL     OW67588   2.277   5.799   1.231
55250SOL    HW167589   2.298   5.735   1.163
55250SOL    HW267590   2.232   5.869   1.184
55251SOL     OW67591   6.150   9.639   5.044
55251SOL    HW167592   6.241   9.666   5.031
55251SOL    HW267593   6.101   9.721   5.047
55252SOL     OW67594   2.055  11.876   1.776
55252SOL    HW167595   2.137  11.837   1.805
55252SOL    HW267596   1.998  11.801   1.759
55253SOL     OW67597   2.934   8.399  14.710
55253SOL    HW167598   2.907   8.361  14.626
55253SOL    HW267599   2.984   8.330  14.753
55254SOL     OW67600   1.755   4.421   0.781
55254SOL    HW167601   1.701   4.344   0.763
55254SOL    HW267602   1.737   4.443   0.872
55255SOL     OW67603   5.526   5.809   1.789
55255SOL    HW167604   5.597   5.871   1.804
55255SOL    HW267605   5.446   5.861   1.795
55256SOL     OW67606   7.150   0.165  13.882
55256SOL    HW167607   7.181   0.148  13.793
55256SOL    HW267608   7.166   0.083  13.929
55257SOL     OW67609   3.043  10.520  14.690
55257SOL    HW167610   3.037  10.592  14.752
55257SOL    HW267611   3.121  10.471  14.718
55258SOL     OW67612   2.591  11.336   6.803
55258SOL    HW167613   2.673  11.324   6.851
55258SOL    HW267614   2.575  11.430   6.806
55259SOL     OW67615   0.240  13.982  14.461
55259SOL    HW167616   0.321  14.026  14.435
55259SOL    HW267617   0.196  14.044  14.519
55260SOL     OW67618   8.767  10.567   2.956
55260SOL    HW167619   8.805  10.532   3.036
55260SOL    HW267620   8.714  10.495   2.921
55261SOL     OW67621   7.776   2.056  12.208
55261SOL    HW167622   7.808   2.141  12.238
55261SOL    HW267623   7.685   2.053  12.237
55262SOL     OW67624   8.305   9.913   4.083
55262SOL    HW167625   8.356   9.983   4.124
55262SOL    HW267626   8.310   9.840   4.145
55263SOL     OW67627   5.307   3.633   3.233
55263SOL    HW167628   5.386   3.672   3.271
55263SOL    HW267629   5.259   3.597   3.307
55264SOL     OW67630   7.116   6.065   8.984
55264SOL    HW167631   7.125   6.032   9.074
55264SOL    HW267632   7.138   6.158   8.990
55265SOL     OW67633   1.461   9.170   5.972
55265SOL    HW167634   1.372   9.159   6.007
55265SOL    HW267635   1.516   9.183   6.049
55266SOL     OW67636  12.471   0.804   1.331
55266SOL    HW167637  12.515   0.889   1.331
55266SOL    HW267638  12.383   0.823   1.363
55267SOL     OW67639  14.575   7.075  12.514
55267SOL    HW167640  14.608   6.985  12.511
55267SOL    HW267641  14.625   7.116  12.585
55268SOL     OW67642  10.838  13.751   7.447
55268SOL    HW167643  10.821  13.822   7.510
55268SOL    HW267644  10.865  13.797   7.368
55269SOL     OW67645   3.682  11.263  14.619
55269SOL    HW167646   3.667  11.341  14.566
55269SOL    HW267647   3.775  11.266  14.642
55270SOL     OW67648   2.611  13.411   0.980
55270SOL    HW167649   2.633  13.504   0.975
55270SOL    HW267650   2.563  13.394   0.899
55271SOL     OW67651  11.181   8.173   2.105
55271SOL    HW167652  11.152   8.264   2.094
55271SOL    HW267653  11.134   8.143   2.183
55272SOL     OW67654   6.399   3.626  12.217
55272SOL    HW167655   6.492   3.634  12.236
55272SOL    HW267656   6.393   3.558  12.150
55273SOL     OW67657  10.630   8.617   2.370
55273SOL    HW167658  10.560   8.586   2.312
55273SOL    HW267659  10.590   8.619   2.457
55274SOL     OW67660   7.481   4.838   9.347
55274SOL    HW167661   7.483   4.900   9.274
55274SOL    HW267662   7.389   4.834   9.373
55275SOL     OW67663   4.281  10.222   5.456
55275SOL    HW167664   4.369  10.185   5.461
55275SOL    HW267665   4.246  10.213   5.544
55276SOL     OW67666   6.382   5.858   7.398
55276SOL    HW167667   6.305   5.900   7.434
55276SOL    HW267668   6.402   5.787   7.459
55277SOL     OW67669  12.980  10.077  12.782
55277SOL    HW167670  12.889  10.048  12.778
55277SOL    HW267671  13.031   9.997  12.793
55278SOL     OW67672  10.255   0.764  10.614
55278SOL    HW167673  10.196   0.827  10.574
55278SOL    HW267674  10.198   0.700  10.656
55279SOL     OW67675  14.666   4.673   7.269
55279SOL    HW167676  14.746   4.691   7.319
55279SOL    HW267677  14.618   4.755   7.269
55280SOL     OW67678   5.076   7.763  11.959
55280SOL    HW167679   5.122   7.745  11.878
55280SOL    HW267680   5.014   7.691  11.968
55281SOL     OW67681  10.792   8.539   3.453
55281SOL    HW167682  10.756   8.452   3.474
55281SOL    HW267683  10.816   8.576   3.537
55282SOL     OW67684   1.649   5.517   2.361
55282SOL    HW167685   1.725   5.502   2.304
55282SOL    HW267686   1.686   5.520   2.449
55283SOL     OW67687   3.725   9.618   3.066
55283SOL    HW167688   3.639   9.613   3.107
55283SOL    HW267689   3.724   9.550   2.999
55284SOL     OW67690   0.552   6.952   4.015
55284SOL    HW167691   0.537   6.896   4.091
55284SOL    HW267692   0.498   7.029   4.030
55285SOL     OW67693  11.314   0.219   1.837
55285SOL    HW167694  11.386   0.187   1.892
55285SOL    HW267695  11.352   0.290   1.786
55286SOL     OW67696  11.443  14.093   2.492
55286SOL    HW167697  11.470  14.172   2.444
55286SOL    HW267698  11.363  14.064   2.448
55287SOL     OW67699   9.844   8.594   7.317
55287SOL    HW167700   9.936   8.570   7.322
55287SOL    HW267701   9.821   8.623   7.405
55288SOL     OW67702  14.705   3.109   5.076
55288SOL    HW167703  14.760   3.122   5.154
55288SOL    HW267704  14.615   3.118   5.108
55289SOL     OW67705   0.147   4.817   3.286
55289SOL    HW167706   0.214   4.771   3.337
55289SOL    HW267707   0.129   4.896   3.336
55290SOL     OW67708   9.736   8.069   3.473
55290SOL    HW167709   9.770   8.004   3.535
55290SOL    HW267710   9.642   8.052   3.470
55291SOL     OW67711   7.465   9.015   4.445
55291SOL    HW167712   7.462   8.919   4.436
55291SOL    HW267713   7.437   9.031   4.535
55292SOL     OW67714  11.591   8.466  12.803
55292SOL    HW167715  11.630   8.553  12.793
55292SOL    HW267716  11.501   8.477  12.772
55293SOL     OW67717   0.217   4.240  11.673
55293SOL    HW167718   0.244   4.247  11.582
55293SOL    HW267719   0.182   4.151  11.682
55294SOL     OW67720   0.207   7.276   8.677
55294SOL    HW167721   0.148   7.336   8.631
55294SOL    HW267722   0.227   7.208   8.613
55295SOL     OW67723  10.255   1.602   4.007
55295SOL    HW167724  10.206   1.523   3.980
55295SOL    HW267725  10.212   1.673   3.960
55296SOL     OW67726   7.182  14.150   4.263
55296SOL    HW167727   7.184  14.149   4.167
55296SOL    HW267728   7.180  14.243   4.286
55297SOL     OW67729   1.387   0.928   3.261
55297SOL    HW167730   1.299   0.898   3.240
55297SOL    HW267731   1.441   0.848   3.261
55298SOL     OW67732   2.818   3.147   7.999
55298SOL    HW167733   2.788   3.061   8.029
55298SOL    HW267734   2.742   3.184   7.953
55299SOL     OW67735  13.717  10.326  12.224
55299SOL    HW167736  13.734  10.381  12.300
55299SOL    HW267737  13.795  10.272  12.216
55300SOL     OW67738   7.625   5.523   2.960
55300SOL    HW167739   7.571   5.579   2.904
55300SOL    HW267740   7.621   5.564   3.046
55301SOL     OW67741   3.096   1.920   5.750
55301SOL    HW167742   3.117   1.873   5.669
55301SOL    HW267743   3.116   2.011   5.729
55302SOL     OW67744   6.592   7.594   7.314
55302SOL    HW167745   6.636   7.668   7.272
55302SOL    HW267746   6.525   7.634   7.370
55303SOL     OW67747   8.741  12.056  14.170
55303SOL    HW167748   8.813  12.062  14.233
55303SOL    HW267749   8.685  11.987  14.205
55304SOL     OW67750   1.346   9.759   0.456
55304SOL    HW167751   1.358   9.702   0.380
55304SOL    HW267752   1.410   9.829   0.444
55305SOL     OW67753   2.553   6.957  11.003
55305SOL    HW167754   2.584   6.878  11.047
55305SOL    HW267755   2.597   7.029  11.048
55306SOL     OW67756  10.958  11.091   8.045
55306SOL    HW167757  11.011  11.165   8.016
55306SOL    HW267758  11.019  11.018   8.051
55307SOL     OW67759  10.171  12.635   1.136
55307SOL    HW167760  10.165  12.714   1.082
55307SOL    HW267761  10.100  12.579   1.105
55308SOL     OW67762   9.443  13.754   7.084
55308SOL    HW167763   9.373  13.740   7.020
55308SOL    HW267764   9.435  13.846   7.108
55309SOL     OW67765  10.313   1.644  14.117
55309SOL    HW167766  10.402   1.617  14.093
55309SOL    HW267767  10.324   1.692  14.199
55310SOL     OW67768   5.401   4.866  11.999
55310SOL    HW167769   5.331   4.845  11.937
55310SOL    HW267770   5.447   4.783  12.012
55311SOL     OW67771  13.988   5.827  14.405
55311SOL    HW167772  14.026   5.775  14.476
55311SOL    HW267773  14.059   5.885  14.377
55312SOL     OW67774  14.268  10.763  10.804
55312SOL    HW167775  14.235  10.682  10.763
55312SOL    HW267776  14.219  10.833  10.761
55313SOL     OW67777   5.254  14.211   9.081
55313SOL    HW167778   5.267  14.118   9.060
55313SOL    HW267779   5.232  14.211   9.175
55314SOL     OW67780  10.134   8.540   3.653
55314SOL    HW167781  10.155   8.591   3.731
55314SOL    HW267782  10.196   8.571   3.587
55315SOL     OW67783   4.858   7.229  13.475
55315SOL    HW167784   4.851   7.239  13.380
55315SOL    HW267785   4.906   7.147  13.487
55316SOL     OW67786   9.482  13.777   3.890
55316SOL    HW167787   9.422  13.852   3.894
55316SOL    HW267788   9.486  13.754   3.797
55317SOL     OW67789  13.781   8.255  12.669
55317SOL    HW167790  13.724   8.297  12.604
55317SOL    HW267791  13.870   8.276  12.639
55318SOL     OW67792  11.367   9.764   0.580
55318SOL    HW167793  11.307   9.837   0.569
55318SOL    HW267794  11.318   9.700   0.631
55319SOL     OW67795  14.415   7.393   8.443
55319SOL    HW167796  14.476   7.390   8.370
55319SOL    HW267797  14.355   7.321   8.429
55320SOL     OW67798   4.114   1.987   7.089
55320SOL    HW167799   4.208   2.002   7.080
55320SOL    HW267800   4.095   1.913   7.032
55321SOL     OW67801  13.624  10.462  11.598
55321SOL    HW167802  13.534  10.473  11.628
55321SOL    HW267803  13.678  10.489  11.672
55322SOL     OW67804  10.745   1.975  12.831
55322SOL    HW167805  10.821   2.031  12.814
55322SOL    HW267806  10.723   1.939  12.745
55323SOL     OW67807  12.131   3.552  10.235
55323SOL    HW167808  12.053   3.499  10.220
55323SOL    HW267809  12.183   3.542  10.156
55324SOL     OW67810   7.391   9.804  11.968
55324SOL    HW167811   7.320   9.740  11.965
55324SOL    HW267812   7.455   9.772  11.903
55325SOL     OW67813   4.218   1.545  10.432
55325SOL    HW167814   4.213   1.639  10.416
55325SOL    HW267815   4.130   1.520  10.460
55326SOL     OW67816  12.112   2.615  11.025
55326SOL    HW167817  12.156   2.636  10.943
55326SOL    HW267818  12.030   2.664  11.021
55327SOL     OW67819  13.787   4.556   2.427
55327SOL    HW167820  13.864   4.508   2.457
55327SOL    HW267821  13.817   4.647   2.423
55328SOL     OW67822  14.786   2.946   1.645
55328SOL    HW167823  14.874   2.982   1.652
55328SOL    HW267824  14.791   2.886   1.570
55329SOL     OW67825  13.971   7.666   9.156
55329SOL    HW167826  14.014   7.586   9.126
55329SOL    HW267827  13.878   7.645   9.157
55330SOL     OW67828   4.330   6.166  11.977
55330SOL    HW167829   4.286   6.245  12.008
55330SOL    HW267830   4.413   6.164  12.026
55331SOL     OW67831  11.988   1.780   3.008
55331SOL    HW167832  12.074   1.743   2.991
55331SOL    HW267833  11.995   1.816   3.097
55332SOL     OW67834   6.715  10.568   0.098
55332SOL    HW167835   6.662  10.626   0.044
55332SOL    HW267836   6.657  10.495   0.119
55333SOL     OW67837   6.156  10.723   3.038
55333SOL    HW167838   6.062  10.742   3.046
55333SOL    HW267839   6.160  10.646   2.982
55334SOL     OW67840   7.668   2.650  14.146
55334SOL    HW167841   7.622   2.709  14.205
55334SOL    HW267842   7.644   2.563  14.176
55335SOL     OW67843   5.032  12.942   1.840
55335SOL    HW167844   5.077  12.975   1.917
55335SOL    HW267845   4.940  12.938   1.865
55336SOL     OW67846  11.945   6.393   0.534
55336SOL    HW167847  11.961   6.312   0.486
55336SOL    HW267848  11.886   6.366   0.605
55337SOL     OW67849   7.261   7.771   9.501
55337SOL    HW167850   7.343   7.764   9.453
55337SOL    HW267851   7.206   7.702   9.465
55338SOL     OW67852   2.179   4.380   8.927
55338SOL    HW167853   2.133   4.311   8.880
55338SOL    HW267854   2.168   4.458   8.872
55339SOL     OW67855   7.538  14.774   2.965
55339SOL    HW167856   7.601  14.789   2.895
55339SOL    HW267857   7.458  14.748   2.920
55340SOL     OW67858   1.200   3.598   1.957
55340SOL    HW167859   1.210   3.571   2.049
55340SOL    HW267860   1.172   3.518   1.912
55341SOL     OW67861   6.761   9.520   4.289
55341SOL    HW167862   6.690   9.507   4.352
55341SOL    HW267863   6.720   9.510   4.204
55342SOL     OW67864  14.215  14.625   1.111
55342SOL    HW167865  14.302  14.617   1.151
55342SOL    HW267866  14.211  14.716   1.082
55343SOL     OW67867   0.549  12.974   0.529
55343SOL    HW167868   0.522  12.885   0.550
55343SOL    HW267869   0.561  12.974   0.434
55344SOL     OW67870  14.549   4.184   3.275
55344SOL    HW167871  14.596   4.172   3.193
55344SOL    HW267872  14.617   4.197   3.341
55345SOL     OW67873   7.968  10.970   5.600
55345SOL    HW167874   8.053  10.928   5.606
55345SOL    HW267875   7.966  11.008   5.512
55346SOL     OW67876   1.026   1.824  12.055
55346SOL    HW167877   0.997   1.907  12.017
55346SOL    HW267878   0.950   1.766  12.046
55347SOL     OW67879   1.674   4.276   5.855
55347SOL    HW167880   1.647   4.339   5.921
55347SOL    HW267881   1.648   4.315   5.772
55348SOL     OW67882   0.196   7.673   9.899
55348SOL    HW167883   0.211   7.690   9.992
55348SOL    HW267884   0.246   7.593   9.881
55349SOL     OW67885  10.709   7.289  13.655
55349SOL    HW167886  10.793   7.312  13.614
55349SOL    HW267887  10.687   7.204  13.618
55350SOL     OW67888   3.449   4.588  14.685
55350SOL    HW167889   3.420   4.564  14.597
55350SOL    HW267890   3.492   4.673  14.673
55351SOL     OW67891   7.325  12.198  14.165
55351SOL    HW167892   7.355  12.269  14.220
55351SOL    HW267893   7.355  12.221  14.077
55352SOL     OW67894   5.169   9.994  11.231
55352SOL    HW167895   5.186   9.902  11.208
55352SOL    HW267896   5.079  10.010  11.201
55353SOL     OW67897  12.894  14.671   7.823
55353SOL    HW167898  12.985  14.662   7.795
55353SOL    HW267899  12.858  14.583   7.814
55354SOL     OW67900   0.472  10.647  13.851
55354SOL    HW167901   0.549  10.694  13.821
55354SOL    HW267902   0.492  10.555  13.836
55355SOL     OW67903   3.172  13.686   8.855
55355SOL    HW167904   3.259  13.713   8.887
55355SOL    HW267905   3.111  13.720   8.920
55356SOL     OW67906   2.559   0.954  13.644
55356SOL    HW167907   2.619   1.003  13.700
55356SOL    HW267908   2.603   0.870  13.629
55357SOL     OW67909   0.666   3.181   3.609
55357SOL    HW167910   0.743   3.143   3.566
55357SOL    HW267911   0.620   3.107   3.647
55358SOL     OW67912   5.067  12.346   8.769
55358SOL    HW167913   5.086  12.258   8.801
55358SOL    HW267914   5.086  12.342   8.675
55359SOL     OW67915   4.965  11.837  13.938
55359SOL    HW167916   5.011  11.855  14.020
55359SOL    HW267917   5.031  11.851  13.870
55360SOL     OW67918  10.866  14.691   5.914
55360SOL    HW167919  10.828  14.652   5.993
55360SOL    HW267920  10.804  14.760   5.890
55361SOL     OW67921  14.700   9.851  12.050
55361SOL    HW167922  14.655   9.903  12.116
55361SOL    HW267923  14.638   9.844  11.978
55362SOL     OW67924   1.257  10.648   5.314
55362SOL    HW167925   1.218  10.612   5.235
55362SOL    HW267926   1.242  10.581   5.381
55363SOL     OW67927   8.593   0.164  12.366
55363SOL    HW167928   8.591   0.233  12.299
55363SOL    HW267929   8.598   0.211  12.449
55364SOL     OW67930   5.033   2.391   7.092
55364SOL    HW167931   5.051   2.297   7.091
55364SOL    HW267932   4.959   2.400   7.152
55365SOL     OW67933   1.626   0.827  12.310
55365SOL    HW167934   1.575   0.887  12.256
55365SOL    HW267935   1.560   0.772  12.353
55366SOL     OW67936   1.297  11.068   5.068
55366SOL    HW167937   1.358  10.999   5.040
55366SOL    HW267938   1.271  11.111   4.986
55367SOL     OW67939  12.501   2.159   9.337
55367SOL    HW167940  12.459   2.074   9.320
55367SOL    HW267941  12.487   2.173   9.431
55368SOL     OW67942   0.397   7.566   9.047
55368SOL    HW167943   0.356   7.528   9.125
55368SOL    HW267944   0.459   7.630   9.082
55369SOL     OW67945   7.337  14.300  14.621
55369SOL    HW167946   7.313  14.343  14.703
55369SOL    HW267947   7.254  14.266  14.587
55370SOL     OW67948   4.205   8.058  10.872
55370SOL    HW167949   4.247   8.034  10.955
55370SOL    HW267950   4.276   8.097  10.820
55371SOL     OW67951   3.388   7.094   0.830
55371SOL    HW167952   3.384   7.185   0.859
55371SOL    HW267953   3.297   7.071   0.809
55372SOL     OW67954  12.478   0.326   8.852
55372SOL    HW167955  12.557   0.349   8.802
55372SOL    HW267956  12.462   0.404   8.906
55373SOL     OW67957   4.796  14.579   6.387
55373SOL    HW167958   4.854  14.598   6.314
55373SOL    HW267959   4.838  14.506   6.433
55374SOL     OW67960   7.956   2.361   0.717
55374SOL    HW167961   7.963   2.387   0.625
55374SOL    HW267962   7.872   2.316   0.723
55375SOL     OW67963   0.603   3.446   5.060
55375SOL    HW167964   0.594   3.486   5.147
55375SOL    HW267965   0.585   3.518   4.999
55376SOL     OW67966   7.213  13.232   1.573
55376SOL    HW167967   7.291  13.286   1.565
55376SOL    HW267968   7.146  13.292   1.605
55377SOL     OW67969  13.943   0.502   0.059
55377SOL    HW167970  13.859   0.548   0.055
55377SOL    HW267971  13.950   0.472   0.150
55378SOL     OW67972  11.698  11.912   2.293
55378SOL    HW167973  11.711  11.838   2.235
55378SOL    HW267974  11.627  11.885   2.352
55379SOL     OW67975   7.098  14.282  13.917
55379SOL    HW167976   7.106  14.188  13.900
55379SOL    HW267977   7.177  14.320  13.878
55380SOL     OW67978   0.643   8.481   6.288
55380SOL    HW167979   0.676   8.469   6.377
55380SOL    HW267980   0.548   8.490   6.298
55381SOL     OW67981   9.090   1.759   0.038
55381SOL    HW167982   9.094   1.724   0.127
55381SOL    HW267983   9.040   1.840   0.046
55382SOL     OW67984  10.494  12.499   3.275
55382SOL    HW167985  10.417  12.525   3.223
55382SOL    HW267986  10.508  12.407   3.254
55383SOL     OW67987  13.874  14.392   7.695
55383SOL    HW167988  13.888  14.337   7.618
55383SOL    HW267989  13.962  14.405   7.731
55384SOL     OW67990   3.769  14.410   7.718
55384SOL    HW167991   3.686  14.362   7.712
55384SOL    HW267992   3.835  14.347   7.690
55385SOL     OW67993  11.469   2.710  11.094
55385SOL    HW167994  11.528   2.640  11.066
55385SOL    HW267995  11.464   2.701  11.189
55386SOL     OW67996  11.126   8.704   3.019
55386SOL    HW167997  11.040   8.663   3.008
55386SOL    HW267998  11.117   8.757   3.098
55387SOL     OW67999   6.578  10.239   8.064
55387SOL    HW168000   6.615  10.272   7.982
55387SOL    HW268001   6.640  10.265   8.131
55388SOL     OW68002   6.156   3.167   0.383
55388SOL    HW168003   6.085   3.115   0.346
55388SOL    HW268004   6.229   3.106   0.390
55389SOL     OW68005   8.165  13.020  12.630
55389SOL    HW168006   8.226  13.013  12.703
55389SOL    HW268007   8.205  12.967  12.560
55390SOL     OW68008   9.904  14.208  13.047
55390SOL    HW168009   9.988  14.254  13.047
55390SOL    HW268010   9.848  14.259  13.105
55391SOL     OW68011   2.698   8.880  12.322
55391SOL    HW168012   2.753   8.914  12.392
55391SOL    HW268013   2.715   8.785  12.321
55392SOL     OW68014  12.011   1.322   1.319
55392SOL    HW168015  12.022   1.284   1.232
55392SOL    HW268016  11.937   1.381   1.310
55393SOL     OW68017   0.952   5.071  14.012
55393SOL    HW168018   1.003   4.993  14.031
55393SOL    HW268019   0.875   5.039  13.965
55394SOL     OW68020   5.452  10.406  14.286
55394SOL    HW168021   5.518  10.459  14.332
55394SOL    HW268022   5.483  10.316  14.294
55395SOL     OW68023   7.470   6.451   5.390
55395SOL    HW168024   7.396   6.446   5.330
55395SOL    HW268025   7.543   6.413   5.342
55396SOL     OW68026   4.042   5.985   0.315
55396SOL    HW168027   3.982   6.024   0.379
55396SOL    HW268028   4.057   6.055   0.251
55397SOL     OW68029   1.915   1.212  12.008
55397SOL    HW168030   1.846   1.251  12.062
55397SOL    HW268031   1.879   1.211  11.919
55398SOL     OW68032   7.676  12.349   9.631
55398SOL    HW168033   7.622  12.390   9.698
55398SOL    HW268034   7.630  12.367   9.549
55399SOL     OW68035  13.221   0.359   3.354
55399SOL    HW168036  13.143   0.396   3.396
55399SOL    HW268037  13.253   0.428   3.297
55400SOL     OW68038   5.773   1.709   8.850
55400SOL    HW168039   5.799   1.683   8.938
55400SOL    HW268040   5.747   1.628   8.807
55401SOL     OW68041   0.142   5.025   0.073
55401SOL    HW168042   0.146   4.929   0.066
55401SOL    HW268043   0.140   5.055  14.858
55402SOL     OW68044   5.483   3.520  14.592
55402SOL    HW168045   5.528   3.446  14.633
55402SOL    HW268046   5.412   3.542  14.653
55403SOL     OW68047  12.968   0.450   0.535
55403SOL    HW168048  12.912   0.527   0.534
55403SOL    HW268049  13.055   0.483   0.560
55404SOL     OW68050   8.711   5.645   0.902
55404SOL    HW168051   8.796   5.687   0.915
55404SOL    HW268052   8.708   5.627   0.808
55405SOL     OW68053  12.132   4.953   7.424
55405SOL    HW168054  12.173   4.975   7.508
55405SOL    HW268055  12.079   5.029   7.402
55406SOL     OW68056   8.368   4.351   0.990
55406SOL    HW168057   8.299   4.415   1.003
55406SOL    HW268058   8.409   4.376   0.908
55407SOL     OW68059   0.703   6.426   5.972
55407SOL    HW168060   0.631   6.390   5.921
55407SOL    HW268061   0.706   6.371   6.050
55408SOL     OW68062   1.884  12.451  13.897
55408SOL    HW168063   1.955  12.498  13.853
55408SOL    HW268064   1.899  12.467  13.990
55409SOL     OW68065   7.854   1.647   7.427
55409SOL    HW168066   7.808   1.627   7.345
55409SOL    HW268067   7.801   1.604   7.495
55410SOL     OW68068  12.374   2.594  13.794
55410SOL    HW168069  12.333   2.668  13.839
55410SOL    HW268070  12.462   2.625  13.772
55411SOL     OW68071  10.128   2.997   9.643
55411SOL    HW168072  10.037   3.006   9.671
55411SOL    HW268073  10.179   3.035   9.715
55412SOL     OW68074   0.159   0.882   1.917
55412SOL    HW168075   0.111   0.887   1.999
55412SOL    HW268076   0.229   0.946   1.926
55413SOL     OW68077   1.581   6.645   8.080
55413SOL    HW168078   1.671   6.619   8.095
55413SOL    HW268079   1.556   6.598   8.000
55414SOL     OW68080   9.925  12.437   6.230
55414SOL    HW168081   9.915  12.470   6.319
55414SOL    HW268082   9.835  12.432   6.196
55415SOL     OW68083  11.662   1.804   4.862
55415SOL    HW168084  11.717   1.753   4.802
55415SOL    HW268085  11.577   1.759   4.861
55416SOL     OW68086   2.207   0.654   7.429
55416SOL    HW168087   2.270   0.680   7.362
55416SOL    HW268088   2.197   0.732   7.484
55417SOL     OW68089   9.423   0.096   2.172
55417SOL    HW168090   9.517   0.110   2.181
55417SOL    HW268091   9.399   0.044   2.249
55418SOL     OW68092   1.733  12.315   3.648
55418SOL    HW168093   1.818  12.272   3.639
55418SOL    HW268094   1.747  12.404   3.615
55419SOL     OW68095  11.907   4.095  14.539
55419SOL    HW168096  11.906   3.999  14.543
55419SOL    HW268097  11.838   4.122  14.599
55420SOL     OW68098  10.797   7.313   6.528
55420SOL    HW168099  10.745   7.310   6.447
55420SOL    HW268100  10.781   7.400   6.564
55421SOL     OW68101   9.239   9.592  10.053
55421SOL    HW168102   9.289   9.614  10.132
55421SOL    HW268103   9.200   9.507  10.072
55422SOL     OW68104   4.102  14.033   5.835
55422SOL    HW168105   4.057  14.107   5.794
55422SOL    HW268106   4.035  13.991   5.889
55423SOL     OW68107   8.876  10.961  10.668
55423SOL    HW168108   8.792  10.951  10.712
55423SOL    HW268109   8.922  10.878  10.685
55424SOL     OW68110   5.551  14.548  14.338
55424SOL    HW168111   5.468  14.567  14.383
55424SOL    HW268112   5.526  14.527  14.249
55425SOL     OW68113   6.285  11.062   5.911
55425SOL    HW168114   6.250  11.142   5.873
55425SOL    HW268115   6.349  11.092   5.975
55426SOL     OW68116   1.934   0.111  13.755
55426SOL    HW168117   1.963   0.024  13.780
55426SOL    HW268118   2.014   0.164  13.753
55427SOL     OW68119   4.009   7.467  13.829
55427SOL    HW168120   4.027   7.529  13.759
55427SOL    HW268121   4.086   7.410  13.832
55428SOL     OW68122   3.772   5.966  12.845
55428SOL    HW168123   3.793   6.057  12.867
55428SOL    HW268124   3.720   5.935  12.920
55429SOL     OW68125  11.749   9.934   9.870
55429SOL    HW168126  11.842   9.938   9.848
55429SOL    HW268127  11.708   9.897   9.792
55430SOL     OW68128   7.443   2.768  14.602
55430SOL    HW168129   7.463   2.845  14.656
55430SOL    HW268130   7.365   2.731  14.643
55431SOL     OW68131   7.223   8.104  10.125
55431SOL    HW168132   7.133   8.128  10.145
55431SOL    HW268133   7.263   8.088  10.211
55432SOL     OW68134   9.004   4.841   1.514
55432SOL    HW168135   9.093   4.808   1.522
55432SOL    HW268136   8.999   4.876   1.425
55433SOL     OW68137   1.122   0.186   7.867
55433SOL    HW168138   1.056   0.117   7.860
55433SOL    HW268139   1.090   0.242   7.938
55434SOL     OW68140   8.728   3.640  13.962
55434SOL    HW168141   8.822   3.626  13.947
55434SOL    HW268142   8.722   3.728  13.998
55435SOL     OW68143  13.115   0.978  12.290
55435SOL    HW168144  13.181   1.042  12.261
55435SOL    HW268145  13.060   1.027  12.351
55436SOL     OW68146  10.940   7.608   3.336
55436SOL    HW168147  11.010   7.673   3.332
55436SOL    HW268148  10.938   7.570   3.248
55437SOL     OW68149   4.873  13.025  13.107
55437SOL    HW168150   4.840  13.078  13.035
55437SOL    HW268151   4.967  13.044  13.110
55438SOL     OW68152   3.367   3.201   9.550
55438SOL    HW168153   3.286   3.250   9.561
55438SOL    HW268154   3.359   3.161   9.463
55439SOL     OW68155   2.686   4.881  11.284
55439SOL    HW168156   2.592   4.869  11.297
55439SOL    HW268157   2.703   4.847  11.196
55440SOL     OW68158  12.373   2.664   5.847
55440SOL    HW168159  12.408   2.588   5.801
55440SOL    HW268160  12.359   2.634   5.936
55441SOL     OW68161   4.346   8.870   1.383
55441SOL    HW168162   4.305   8.955   1.400
55441SOL    HW268163   4.438   8.890   1.368
55442SOL     OW68164   7.905   3.330   1.420
55442SOL    HW168165   7.962   3.257   1.395
55442SOL    HW268166   7.949   3.408   1.386
55443SOL     OW68167   2.632  11.453  10.375
55443SOL    HW168168   2.536  11.451  10.375
55443SOL    HW268169   2.656  11.424  10.463
55444SOL     OW68170   4.400   3.852  13.523
55444SOL    HW168171   4.460   3.778  13.513
55444SOL    HW268172   4.422   3.888  13.609
55445SOL     OW68173   8.587  10.396   7.391
55445SOL    HW168174   8.523  10.326   7.403
55445SOL    HW268175   8.630  10.377   7.308
55446SOL     OW68176  10.951   9.995   8.805
55446SOL    HW168177  10.953  10.091   8.811
55446SOL    HW268178  10.888   9.977   8.735
55447SOL     OW68179   3.734   3.598  11.568
55447SOL    HW168180   3.693   3.589  11.482
55447SOL    HW268181   3.828   3.601  11.551
55448SOL     OW68182   2.705  13.899  12.915
55448SOL    HW168183   2.795  13.894  12.883
55448SOL    HW268184   2.678  13.807  12.924
55449SOL     OW68185   9.725  12.978   8.882
55449SOL    HW168186   9.720  13.074   8.885
55449SOL    HW268187   9.806  12.957   8.929
55450SOL     OW68188   6.303   7.258   5.138
55450SOL    HW168189   6.278   7.176   5.094
55450SOL    HW268190   6.227   7.282   5.191
55451SOL     OW68191  11.082   9.319  10.637
55451SOL    HW168192  11.036   9.390  10.592
55451SOL    HW268193  11.143   9.285  10.571
55452SOL     OW68194  14.822  13.073  12.495
55452SOL    HW168195  14.731  13.070  12.527
55452SOL    HW268196  14.830  13.158  12.454
55453SOL     OW68197   4.536   2.378   1.011
55453SOL    HW168198   4.596   2.432   0.960
55453SOL    HW268199   4.474   2.345   0.946
55454SOL     OW68200  11.927  10.911   1.735
55454SOL    HW168201  11.920  10.994   1.688
55454SOL    HW268202  11.904  10.845   1.670
55455SOL     OW68203  13.197  12.728   3.255
55455SOL    HW168204  13.203  12.685   3.169
55455SOL    HW268205  13.226  12.818   3.238
55456SOL     OW68206   3.259  13.192  10.900
55456SOL    HW168207   3.240  13.164  10.989
55456SOL    HW268208   3.353  13.174  10.888
55457SOL     OW68209   6.057  11.634   3.942
55457SOL    HW168210   5.980  11.654   3.889
55457SOL    HW268211   6.131  11.656   3.885
55458SOL     OW68212   3.637  14.080   9.315
55458SOL    HW168213   3.723  14.041   9.333
55458SOL    HW268214   3.642  14.107   9.223
55459SOL     OW68215   3.767  12.479   4.926
55459SOL    HW168216   3.724  12.564   4.917
55459SOL    HW268217   3.746  12.451   5.016
55460SOL     OW68218   4.148   4.181   0.589
55460SOL    HW168219   4.240   4.152   0.586
55460SOL    HW268220   4.105   4.117   0.645
55461SOL     OW68221   4.206   8.894   9.040
55461SOL    HW168222   4.220   8.866   8.950
55461SOL    HW268223   4.131   8.844   9.070
55462SOL     OW68224  14.605   3.675   4.253
55462SOL    HW168225  14.651   3.650   4.173
55462SOL    HW268226  14.651   3.754   4.283
55463SOL     OW68227   0.248   0.217   3.278
55463SOL    HW168228   0.157   0.204   3.252
55463SOL    HW268229   0.244   0.286   3.344
55464SOL     OW68230  10.276   8.840   2.182
55464SOL    HW168231  10.283   8.783   2.105
55464SOL    HW268232  10.206   8.902   2.160
55465SOL     OW68233   8.039   1.224  14.011
55465SOL    HW168234   8.098   1.262  14.076
55465SOL    HW268235   8.071   1.258  13.927
55466SOL     OW68236   9.495  11.668   5.738
55466SOL    HW168237   9.493  11.580   5.701
55466SOL    HW268238   9.463  11.657   5.828
55467SOL     OW68239   4.040   2.040  14.013
55467SOL    HW168240   3.972   1.973  14.019
55467SOL    HW268241   4.116   1.995  13.976
55468SOL     OW68242   0.433  14.458   4.623
55468SOL    HW168243   0.481  14.474   4.704
55468SOL    HW268244   0.445  14.537   4.571
55469SOL     OW68245   6.368   9.298   1.042
55469SOL    HW168246   6.275   9.274   1.047
55469SOL    HW268247   6.402   9.280   1.130
55470SOL     OW68248  13.424   1.670   5.242
55470SOL    HW168249  13.365   1.637   5.175
55470SOL    HW268250  13.434   1.763   5.222
55471SOL     OW68251   2.824  14.436  12.169
55471SOL    HW168252   2.739  14.398  12.192
55471SOL    HW268253   2.863  14.373  12.109
55472SOL     OW68254   7.493  12.885   6.272
55472SOL    HW168255   7.444  12.938   6.210
55472SOL    HW268256   7.572  12.860   6.225
55473SOL     OW68257   8.370   2.258  14.840
55473SOL    HW168258   8.388   2.344  14.801
55473SOL    HW268259   8.365   2.198  14.766
55474SOL     OW68260  11.542   0.963  10.178
55474SOL    HW168261  11.575   0.907  10.108
55474SOL    HW268262  11.472   1.014  10.137
55475SOL     OW68263   4.966  13.970   4.398
55475SOL    HW168264   4.954  13.994   4.306
55475SOL    HW268265   4.969  13.875   4.398
55476SOL     OW68266  14.717   2.881   8.014
55476SOL    HW168267  14.700   2.851   7.924
55476SOL    HW268268  14.633   2.872   8.059
55477SOL     OW68269   7.564   1.030   9.268
55477SOL    HW168270   7.657   1.041   9.288
55477SOL    HW268271   7.535   0.962   9.329
55478SOL     OW68272  13.390   0.071   9.510
55478SOL    HW168273  13.406   0.043   9.420
55478SOL    HW268274  13.477   0.094   9.544
55479SOL     OW68275   8.059   8.937   7.643
55479SOL    HW168276   7.984   8.970   7.692
55479SOL    HW268277   8.119   9.011   7.638
55480SOL     OW68278   5.805   7.031  12.487
55480SOL    HW168279   5.780   7.111  12.534
55480SOL    HW268280   5.896   7.016  12.515
55481SOL     OW68281  14.330  12.893   6.013
55481SOL    HW168282  14.248  12.940   6.028
55481SOL    HW268283  14.363  12.929   5.930
55482SOL     OW68284   4.160   5.841  13.540
55482SOL    HW168285   4.245   5.845  13.585
55482SOL    HW268286   4.158   5.755  13.499
55483SOL     OW68287   2.556  10.839   3.949
55483SOL    HW168288   2.560  10.800   4.037
55483SOL    HW268289   2.465  10.867   3.940
55484SOL     OW68290  12.958  13.147  12.828
55484SOL    HW168291  12.917  13.167  12.911
55484SOL    HW268292  12.887  13.112  12.774
55485SOL     OW68293   7.008  14.610   2.642
55485SOL    HW168294   7.034  14.519   2.635
55485SOL    HW268295   6.960  14.616   2.725
55486SOL     OW68296  10.609   6.263  13.196
55486SOL    HW168297  10.576   6.203  13.130
55486SOL    HW268298  10.600   6.350  13.156
55487SOL     OW68299  10.038  10.136   5.028
55487SOL    HW168300  10.044  10.092   5.113
55487SOL    HW268301   9.981  10.211   5.045
55488SOL     OW68302  13.825   6.563   8.834
55488SOL    HW168303  13.861   6.605   8.912
55488SOL    HW268304  13.746   6.613   8.814
55489SOL     OW68305   9.845  13.807  12.260
55489SOL    HW168306   9.882  13.885  12.219
55489SOL    HW268307   9.912  13.778  12.321
55490SOL     OW68308   4.767   5.716   3.919
55490SOL    HW168309   4.820   5.723   3.998
55490SOL    HW268310   4.681   5.688   3.950
55491SOL     OW68311  10.078   0.868  12.310
55491SOL    HW168312  10.130   0.895  12.385
55491SOL    HW268313  10.013   0.937  12.298
55492SOL     OW68314   4.680   8.366   6.833
55492SOL    HW168315   4.732   8.410   6.901
55492SOL    HW268316   4.743   8.315   6.783
55493SOL     OW68317   3.489   2.426   6.757
55493SOL    HW168318   3.573   2.414   6.802
55493SOL    HW268319   3.509   2.484   6.683
55494SOL     OW68320  14.391   2.876   7.351
55494SOL    HW168321  14.350   2.961   7.368
55494SOL    HW268322  14.387   2.867   7.255
55495SOL     OW68323   3.650  10.140   6.637
55495SOL    HW168324   3.733  10.102   6.608
55495SOL    HW268325   3.583  10.081   6.603
55496SOL     OW68326   8.141  10.405   1.334
55496SOL    HW168327   8.086  10.366   1.401
55496SOL    HW268328   8.080  10.452   1.276
55497SOL     OW68329  10.849   6.837   5.758
55497SOL    HW168330  10.786   6.875   5.819
55497SOL    HW268331  10.819   6.748   5.744
55498SOL     OW68332  11.190  11.388   5.986
55498SOL    HW168333  11.110  11.374   6.038
55498SOL    HW268334  11.169  11.354   5.900
55499SOL     OW68335   7.680   7.553   6.068
55499SOL    HW168336   7.713   7.642   6.080
55499SOL    HW268337   7.618   7.560   5.996
55500SOL     OW68338   2.988   6.588   6.261
55500SOL    HW168339   3.009   6.514   6.205
55500SOL    HW268340   3.067   6.642   6.261
55501SOL     OW68341   7.273   6.066  11.128
55501SOL    HW168342   7.290   6.114  11.047
55501SOL    HW268343   7.181   6.084  11.148
55502SOL     OW68344   1.139   9.406   5.176
55502SOL    HW168345   1.104   9.332   5.127
55502SOL    HW268346   1.104   9.395   5.265
55503SOL     OW68347   9.478  13.448   7.214
55503SOL    HW168348   9.469  13.519   7.278
55503SOL    HW268349   9.571  13.425   7.217
55504SOL     OW68350   1.185   1.178   6.105
55504SOL    HW168351   1.275   1.187   6.137
55504SOL    HW268352   1.191   1.114   6.034
55505SOL     OW68353   7.106   4.395  12.819
55505SOL    HW168354   7.035   4.458  12.804
55505SOL    HW268355   7.151   4.429  12.896
55506SOL     OW68356   6.240   3.533   5.052
55506SOL    HW168357   6.303   3.464   5.031
55506SOL    HW268358   6.262   3.604   4.991
55507SOL     OW68359  13.154   0.921   0.529
55507SOL    HW168360  13.190   0.938   0.616
55507SOL    HW268361  13.073   0.972   0.526
55508SOL     OW68362  10.788   6.212   7.047
55508SOL    HW168363  10.817   6.297   7.082
55508SOL    HW268364  10.722   6.234   6.982
55509SOL     OW68365   2.546  11.739  10.468
55509SOL    HW168366   2.528  11.659  10.517
55509SOL    HW268367   2.640  11.734  10.450
55510SOL     OW68368   0.985   5.293  12.367
55510SOL    HW168369   0.927   5.340  12.307
55510SOL    HW268370   0.997   5.207  12.328
55511SOL     OW68371   5.511   2.545   1.802
55511SOL    HW168372   5.498   2.468   1.747
55511SOL    HW268373   5.586   2.523   1.857
55512SOL     OW68374  14.257   0.012  10.569
55512SOL    HW168375  14.334   0.032  10.515
55512SOL    HW268376  14.183   0.040  10.516
55513SOL     OW68377   8.665  11.636   3.245
55513SOL    HW168378   8.633  11.718   3.282
55513SOL    HW268379   8.702  11.588   3.319
55514SOL     OW68380   8.713  13.549   9.087
55514SOL    HW168381   8.701  13.526   9.179
55514SOL    HW268382   8.626  13.576   9.057
55515SOL     OW68383   6.095   3.610  12.982
55515SOL    HW168384   6.124   3.686  13.034
55515SOL    HW268385   6.091   3.642  12.893
55516SOL     OW68386   8.779   2.819  14.763
55516SOL    HW168387   8.855   2.788  14.714
55516SOL    HW268388   8.704   2.797  14.707
55517SOL     OW68389   6.687   6.565  14.054
55517SOL    HW168390   6.775   6.540  14.082
55517SOL    HW268391   6.686   6.547  13.960
55518SOL     OW68392   2.812   7.553   7.825
55518SOL    HW168393   2.887   7.507   7.788
55518SOL    HW268394   2.796   7.625   7.765
55519SOL     OW68395   8.183   2.249   7.222
55519SOL    HW168396   8.239   2.325   7.237
55519SOL    HW268397   8.144   2.230   7.307
55520SOL     OW68398   1.241   4.819   6.125
55520SOL    HW168399   1.315   4.866   6.086
55520SOL    HW268400   1.279   4.773   6.200
55521SOL     OW68401  14.704   3.714   9.396
55521SOL    HW168402  14.625   3.759   9.364
55521SOL    HW268403  14.760   3.784   9.427
55522SOL     OW68404   1.094   9.086   3.495
55522SOL    HW168405   1.170   9.144   3.486
55522SOL    HW268406   1.037   9.110   3.422
55523SOL     OW68407  10.743   8.152   5.952
55523SOL    HW168408  10.822   8.182   5.996
55523SOL    HW268409  10.768   8.145   5.860
55524SOL     OW68410   0.721  12.757   5.161
55524SOL    HW168411   0.773  12.688   5.119
55524SOL    HW268412   0.636  12.753   5.118
55525SOL     OW68413   0.182   9.737  10.964
55525SOL    HW168414   0.228   9.656  10.946
55525SOL    HW268415   0.225   9.772  11.043
55526SOL     OW68416  12.774  10.930   1.661
55526SOL    HW168417  12.854  10.972   1.692
55526SOL    HW268418  12.793  10.837   1.664
55527SOL     OW68419   0.987  10.250  11.862
55527SOL    HW168420   1.052  10.304  11.817
55527SOL    HW268421   0.974  10.294  11.946
55528SOL     OW68422  13.749   6.205  13.349
55528SOL    HW168423  13.664   6.197  13.305
55528SOL    HW268424  13.774   6.116  13.370
55529SOL     OW68425   9.483   6.966  10.576
55529SOL    HW168426   9.447   6.913  10.505
55529SOL    HW268427   9.530   6.903  10.631
55530SOL     OW68428  12.701   7.690   5.671
55530SOL    HW168429  12.665   7.736   5.747
55530SOL    HW268430  12.625   7.670   5.617
55531SOL     OW68431  13.796   4.968  13.568
55531SOL    HW168432  13.789   5.013  13.484
55531SOL    HW268433  13.810   4.877  13.545
55532SOL     OW68434   3.996   6.896  11.615
55532SOL    HW168435   3.928   6.833  11.592
55532SOL    HW268436   4.055   6.898  11.540
55533SOL     OW68437  13.040   7.256  10.799
55533SOL    HW168438  13.106   7.324  10.784
55533SOL    HW268439  12.976   7.297  10.857
55534SOL     OW68440   5.541  12.909   5.414
55534SOL    HW168441   5.636  12.922   5.426
55534SOL    HW268442   5.530  12.814   5.409
55535SOL     OW68443  11.653   4.871   7.187
55535SOL    HW168444  11.739   4.838   7.213
55535SOL    HW268445  11.623   4.922   7.262
55536SOL     OW68446  11.586   7.024   3.212
55536SOL    HW168447  11.623   6.936   3.218
55536SOL    HW268448  11.604   7.051   3.122
55537SOL     OW68449   3.205   3.861   2.979
55537SOL    HW168450   3.294   3.892   2.990
55537SOL    HW268451   3.157   3.898   3.053
55538SOL     OW68452   2.314   2.649  12.945
55538SOL    HW168453   2.324   2.687  12.858
55538SOL    HW268454   2.396   2.669  12.990
55539SOL     OW68455   5.886   4.646   3.740
55539SOL    HW168456   5.961   4.696   3.773
55539SOL    HW268457   5.918   4.556   3.734
55540SOL     OW68458   1.105   5.970   5.982
55540SOL    HW168459   1.104   5.950   5.889
55540SOL    HW268460   1.186   6.020   5.995
55541SOL     OW68461   3.918   1.985   8.085
55541SOL    HW168462   3.899   1.960   7.995
55541SOL    HW268463   3.972   1.914   8.119
55542SOL     OW68464   9.995   3.671  12.925
55542SOL    HW168465   9.901   3.662  12.941
55542SOL    HW268466  10.017   3.758  12.958
55543SOL     OW68467   0.557   8.308   6.618
55543SOL    HW168468   0.539   8.401   6.610
55543SOL    HW268469   0.628   8.302   6.681
55544SOL     OW68470   4.394   8.904  13.397
55544SOL    HW168471   4.300   8.920  13.405
55544SOL    HW268472   4.428   8.915  13.486
55545SOL     OW68473   2.503  10.267   4.459
55545SOL    HW168474   2.583  10.285   4.410
55545SOL    HW268475   2.476  10.352   4.493
55546SOL     OW68476  12.432   8.497  11.150
55546SOL    HW168477  12.472   8.470  11.234
55546SOL    HW268478  12.338   8.492  11.166
55547SOL     OW68479   9.986   3.310   9.509
55547SOL    HW168480  10.035   3.364   9.448
55547SOL    HW268481   9.944   3.372   9.568
55548SOL     OW68482  13.696   2.639  13.391
55548SOL    HW168483  13.610   2.662  13.358
55548SOL    HW268484  13.755   2.652  13.317
55549SOL     OW68485   3.956   7.374  12.405
55549SOL    HW168486   4.049   7.393  12.393
55549SOL    HW268487   3.947   7.281  12.380
55550SOL     OW68488  11.850  12.135   0.540
55550SOL    HW168489  11.776  12.195   0.551
55550SOL    HW268490  11.809  12.048   0.536
55551SOL     OW68491   4.043   3.740   2.140
55551SOL    HW168492   4.049   3.678   2.213
55551SOL    HW268493   4.038   3.826   2.182
55552SOL     OW68494   4.334   6.152   2.119
55552SOL    HW168495   4.277   6.083   2.086
55552SOL    HW268496   4.422   6.127   2.092
55553SOL     OW68497   6.203   1.466  10.109
55553SOL    HW168498   6.142   1.446  10.037
55553SOL    HW268499   6.147   1.491  10.182
55554SOL     OW68500  14.287   1.429   8.008
55554SOL    HW168501  14.341   1.350   7.997
55554SOL    HW268502  14.211   1.415   7.953
55555SOL     OW68503   6.597  11.311   5.567
55555SOL    HW168504   6.574  11.218   5.564
55555SOL    HW268505   6.516  11.355   5.592
55556SOL     OW68506   3.814  13.411   9.686
55556SOL    HW168507   3.754  13.373   9.750
55556SOL    HW268508   3.899  13.412   9.730
55557SOL     OW68509   9.319  10.518   0.089
55557SOL    HW168510   9.322  10.438   0.141
55557SOL    HW268511   9.410  10.538   0.070
55558SOL     OW68512   5.442  13.858  12.922
55558SOL    HW168513   5.379  13.930  12.927
55558SOL    HW268514   5.527  13.901  12.920
55559SOL     OW68515  10.929  13.329  11.454
55559SOL    HW168516  10.903  13.264  11.388
55559SOL    HW268517  10.903  13.413  11.415
55560SOL     OW68518   5.538  13.168   8.563
55560SOL    HW168519   5.493  13.236   8.512
55560SOL    HW268520   5.630  13.193   8.561
55561SOL     OW68521   7.257   5.733   6.093
55561SOL    HW168522   7.174   5.749   6.136
55561SOL    HW268523   7.308   5.813   6.108
55562SOL     OW68524   0.565   5.981   2.430
55562SOL    HW168525   0.536   6.065   2.394
55562SOL    HW268526   0.545   5.917   2.361
55563SOL     OW68527   0.234  13.225  14.376
55563SOL    HW168528   0.194  13.249  14.460
55563SOL    HW268529   0.229  13.305  14.324
55564SOL     OW68530   8.786   7.433  12.620
55564SOL    HW168531   8.769   7.346  12.658
55564SOL    HW268532   8.747   7.494  12.682
55565SOL     OW68533  10.196   3.726   1.056
55565SOL    HW168534  10.289   3.747   1.055
55565SOL    HW268535  10.176   3.697   0.967
55566SOL     OW68536  10.050  13.889  12.658
55566SOL    HW168537  10.027  13.917  12.746
55566SOL    HW268538   9.988  13.935  12.601
55567SOL     OW68539  12.041   4.988  13.250
55567SOL    HW168540  12.040   5.022  13.339
55567SOL    HW268541  12.105   4.917  13.251
55568SOL     OW68542  11.297   4.693   6.903
55568SOL    HW168543  11.348   4.634   6.958
55568SOL    HW268544  11.212   4.700   6.948
55569SOL     OW68545   9.394   3.731   1.974
55569SOL    HW168546   9.370   3.801   2.034
55569SOL    HW268547   9.482   3.705   2.001
55570SOL     OW68548   1.203  10.294   7.623
55570SOL    HW168549   1.275  10.357   7.628
55570SOL    HW268550   1.153  10.322   7.546
55571SOL     OW68551  13.557  14.846  11.989
55571SOL    HW168552  13.630  14.803  11.944
55571SOL    HW268553  13.567  14.822  12.081
55572SOL     OW68554   8.040   8.210   7.905
55572SOL    HW168555   8.088   8.287   7.874
55572SOL    HW268556   7.975   8.194   7.838
55573SOL     OW68557   5.938   0.320   1.390
55573SOL    HW168558   5.910   0.233   1.362
55573SOL    HW268559   6.026   0.330   1.354
55574SOL     OW68560  12.423  11.994   3.911
55574SOL    HW168561  12.345  12.038   3.878
55574SOL    HW268562  12.400  11.965   3.999
55575SOL     OW68563   7.101   1.597   7.625
55575SOL    HW168564   7.067   1.580   7.537
55575SOL    HW268565   7.108   1.510   7.665
55576SOL     OW68566   0.267   4.846  13.956
55576SOL    HW168567   0.336   4.842  14.022
55576SOL    HW268568   0.244   4.754  13.940
55577SOL     OW68569   7.313  14.434  13.844
55577SOL    HW168570   7.318  14.434  13.748
55577SOL    HW268571   7.240  14.493  13.864
55578SOL     OW68572  13.299   9.743   1.627
55578SOL    HW168573  13.263   9.795   1.556
55578SOL    HW268574  13.358   9.681   1.584
55579SOL     OW68575   1.155  10.109  10.268
55579SOL    HW168576   1.144  10.087  10.176
55579SOL    HW268577   1.092  10.179  10.284
55580SOL     OW68578   8.595   2.392  14.065
55580SOL    HW168579   8.527   2.386  14.132
55580SOL    HW268580   8.555   2.354  13.987
55581SOL     OW68581   3.409   9.048   1.044
55581SOL    HW168582   3.499   9.018   1.057
55581SOL    HW268583   3.373   8.989   0.978
55582SOL     OW68584  14.183   4.634   6.550
55582SOL    HW168585  14.217   4.552   6.586
55582SOL    HW268586  14.259   4.692   6.545
55583SOL     OW68587   2.014  13.265   7.948
55583SOL    HW168588   1.956  13.306   7.884
55583SOL    HW268589   1.956  13.210   8.001
55584SOL     OW68590  13.867   5.443  13.541
55584SOL    HW168591  13.960   5.436  13.523
55584SOL    HW268592  13.831   5.357  13.520
55585SOL     OW68593   4.992   0.658   2.407
55585SOL    HW168594   5.027   0.666   2.319
55585SOL    HW268595   4.932   0.733   2.416
55586SOL     OW68596   0.924   4.476   2.198
55586SOL    HW168597   1.007   4.473   2.246
55586SOL    HW268598   0.917   4.390   2.157
55587SOL     OW68599  11.880   4.743  11.816
55587SOL    HW168600  11.877   4.777  11.727
55587SOL    HW268601  11.866   4.820  11.872
55588SOL     OW68602   8.321  10.588  12.943
55588SOL    HW168603   8.358  10.514  12.991
55588SOL    HW268604   8.397  10.630  12.903
55589SOL     OW68605  11.693   3.999   4.559
55589SOL    HW168606  11.690   4.092   4.579
55589SOL    HW268607  11.774   3.967   4.600
55590SOL     OW68608   8.887  14.322   0.539
55590SOL    HW168609   8.888  14.294   0.448
55590SOL    HW268610   8.844  14.250   0.586
55591SOL     OW68611   2.611   7.773   1.423
55591SOL    HW168612   2.553   7.836   1.381
55591SOL    HW268613   2.644   7.718   1.352
55592SOL     OW68614   2.304   5.730   5.734
55592SOL    HW168615   2.361   5.715   5.810
55592SOL    HW268616   2.255   5.809   5.757
55593SOL     OW68617   6.819  10.867   0.787
55593SOL    HW168618   6.750  10.804   0.807
55593SOL    HW268619   6.837  10.854   0.693
55594SOL     OW68620  14.165  10.957  11.233
55594SOL    HW168621  14.212  10.924  11.157
55594SOL    HW268622  14.230  10.956  11.304
55595SOL     OW68623   0.513  11.466  14.267
55595SOL    HW168624   0.572  11.488  14.339
55595SOL    HW268625   0.569  11.430  14.199
55596SOL     OW68626   6.389  13.858   2.375
55596SOL    HW168627   6.347  13.829   2.294
55596SOL    HW268628   6.464  13.799   2.385
55597SOL     OW68629  13.658  13.737   4.905
55597SOL    HW168630  13.599  13.787   4.849
55597SOL    HW268631  13.718  13.802   4.942
55598SOL     OW68632  14.293  13.230   3.077
55598SOL    HW168633  14.385  13.225   3.051
55598SOL    HW268634  14.295  13.234   3.173
55599SOL     OW68635  12.712   2.055   9.683
55599SOL    HW168636  12.663   2.085   9.760
55599SOL    HW268637  12.758   1.977   9.711
55600SOL     OW68638  11.769  12.067   7.685
55600SOL    HW168639  11.859  12.036   7.694
55600SOL    HW268640  11.742  12.090   7.773
55601SOL     OW68641  13.060   3.189   6.278
55601SOL    HW168642  13.047   3.132   6.354
55601SOL    HW268643  13.002   3.152   6.211
55602SOL     OW68644   6.636   6.103   8.184
55602SOL    HW168645   6.583   6.073   8.110
55602SOL    HW268646   6.712   6.045   8.183
55603SOL     OW68647   6.568   5.091   4.615
55603SOL    HW168648   6.624   5.161   4.647
55603SOL    HW268649   6.493   5.136   4.575
55604SOL     OW68650  12.177   1.992   7.765
55604SOL    HW168651  12.200   2.061   7.827
55604SOL    HW268652  12.242   1.999   7.695
55605SOL     OW68653  11.400  10.132  13.710
55605SOL    HW168654  11.308  10.158  13.700
55605SOL    HW268655  11.445  10.171  13.635
55606SOL     OW68656  11.970   6.984   2.255
55606SOL    HW168657  11.897   7.045   2.264
55606SOL    HW268658  11.939   6.919   2.191
55607SOL     OW68659   3.191  14.629   9.959
55607SOL    HW168660   3.219  14.690   9.890
55607SOL    HW268661   3.269  14.617  10.013
55608SOL     OW68662   6.367   9.566   5.783
55608SOL    HW168663   6.437   9.577   5.848
55608SOL    HW268664   6.364   9.471   5.769
55609SOL     OW68665  10.643   8.049   5.476
55609SOL    HW168666  10.573   8.039   5.412
55609SOL    HW268667  10.653   7.963   5.516
55610SOL     OW68668   2.570  11.590   6.730
55610SOL    HW168669   2.492  11.640   6.707
55610SOL    HW268670   2.641  11.654   6.728
55611SOL     OW68671  11.585  10.192   2.266
55611SOL    HW168672  11.641  10.120   2.295
55611SOL    HW268673  11.596  10.259   2.333
55612SOL     OW68674  12.054   4.882   0.653
55612SOL    HW168675  11.960   4.877   0.637
55612SOL    HW268676  12.082   4.791   0.661
55613SOL     OW68677   5.406  12.920  11.421
55613SOL    HW168678   5.493  12.950  11.394
55613SOL    HW268679   5.370  12.992  11.472
55614SOL     OW68680   3.738   2.383  10.431
55614SOL    HW168681   3.737   2.320  10.359
55614SOL    HW268682   3.753   2.468  10.389
55615SOL     OW68683  12.770  11.529   1.952
55615SOL    HW168684  12.699  11.481   1.994
55615SOL    HW268685  12.811  11.578   2.022
55616SOL     OW68686   9.391  14.788  12.557
55616SOL    HW168687   9.468  14.734  12.538
55616SOL    HW268688   9.397  14.807  12.651
55617SOL     OW68689  14.040   3.317   3.666
55617SOL    HW168690  14.114   3.360   3.623
55617SOL    HW268691  14.009   3.381   3.730
55618SOL     OW68692   5.357   7.365  12.006
55618SOL    HW168693   5.433   7.309  12.023
55618SOL    HW268694   5.341   7.355  11.912
55619SOL     OW68695  11.535   7.049   5.115
55619SOL    HW168696  11.519   6.973   5.059
55619SOL    HW268697  11.529   7.124   5.055
55620SOL     OW68698  13.548   9.609   2.698
55620SOL    HW168699  13.615   9.677   2.697
55620SOL    HW268700  13.502   9.619   2.615
55621SOL     OW68701   5.511  10.119  13.217
55621SOL    HW168702   5.535  10.187  13.280
55621SOL    HW268703   5.587  10.062  13.212
55622SOL     OW68704   2.462   6.238   9.821
55622SOL    HW168705   2.426   6.323   9.796
55622SOL    HW268706   2.433   6.225   9.911
55623SOL     OW68707   0.466   7.045   2.419
55623SOL    HW168708   0.435   6.975   2.477
55623SOL    HW268709   0.420   7.030   2.337
55624SOL     OW68710   9.563   6.428   5.169
55624SOL    HW168711   9.526   6.409   5.255
55624SOL    HW268712   9.506   6.381   5.108
55625SOL     OW68713   5.130   5.381  10.502
55625SOL    HW168714   5.115   5.307  10.444
55625SOL    HW268715   5.173   5.343  10.579
55626SOL     OW68716  14.323   7.479   5.305
55626SOL    HW168717  14.235   7.443   5.316
55626SOL    HW268718  14.347   7.510   5.392
55627SOL     OW68719  12.247   1.035  12.026
55627SOL    HW168720  12.341   1.041  12.009
55627SOL    HW268721  12.224   0.945  12.001
55628SOL     OW68722   6.955   8.509   6.172
55628SOL    HW168723   6.900   8.445   6.126
55628SOL    HW268724   7.038   8.507   6.124
55629SOL     OW68725  11.403   2.065   2.690
55629SOL    HW168726  11.348   1.989   2.666
55629SOL    HW268727  11.345   2.122   2.740
55630SOL     OW68728   2.698  13.297   3.370
55630SOL    HW168729   2.773  13.288   3.430
55630SOL    HW268730   2.656  13.211   3.372
55631SOL     OW68731   7.459   0.076   8.878
55631SOL    HW168732   7.551   0.052   8.865
55631SOL    HW268733   7.452   0.165   8.843
55632SOL     OW68734   5.768   0.002  11.190
55632SOL    HW168735   5.819  14.799  11.202
55632SOL    HW268736   5.689  14.850  11.143
55633SOL     OW68737   8.637  10.384   2.406
55633SOL    HW168738   8.643  10.438   2.485
55633SOL    HW268739   8.544  10.382   2.385
55634SOL     OW68740  11.800   7.508  12.601
55634SOL    HW168741  11.770   7.431  12.552
55634SOL    HW268742  11.721   7.540  12.644
55635SOL     OW68743   7.095   0.472   9.154
55635SOL    HW168744   7.002   0.466   9.132
55635SOL    HW268745   7.126   0.549   9.105
55636SOL     OW68746   8.049   8.620   3.176
55636SOL    HW168747   8.120   8.683   3.163
55636SOL    HW268748   8.054   8.561   3.101
55637SOL     OW68749  12.069   9.054  14.621
55637SOL    HW168750  11.990   8.999  14.627
55637SOL    HW268751  12.095   9.047  14.529
55638SOL     OW68752   7.631   5.615   6.233
55638SOL    HW168753   7.726   5.606   6.219
55638SOL    HW268754   7.592   5.571   6.157
55639SOL     OW68755  13.976   4.411   6.733
55639SOL    HW168756  13.949   4.466   6.807
55639SOL    HW268757  13.995   4.326   6.772
55640SOL     OW68758   3.857   5.240  13.268
55640SOL    HW168759   3.796   5.312  13.281
55640SOL    HW268760   3.911   5.267  13.194
55641SOL     OW68761  11.890   3.856   0.402
55641SOL    HW168762  11.951   3.825   0.469
55641SOL    HW268763  11.873   3.947   0.426
55642SOL     OW68764   1.730   6.308   8.668
55642SOL    HW168765   1.724   6.388   8.721
55642SOL    HW268766   1.823   6.287   8.668
55643SOL     OW68767   7.460   9.784   8.615
55643SOL    HW168768   7.439   9.845   8.545
55643SOL    HW268769   7.400   9.711   8.602
55644SOL     OW68770   6.454   5.187   8.157
55644SOL    HW168771   6.441   5.278   8.185
55644SOL    HW268772   6.507   5.194   8.077
55645SOL     OW68773  13.575  13.999  10.824
55645SOL    HW168774  13.521  13.978  10.900
55645SOL    HW268775  13.663  14.010  10.859
55646SOL     OW68776   9.429   8.201   3.893
55646SOL    HW168777   9.446   8.280   3.842
55646SOL    HW268778   9.384   8.233   3.972
55647SOL     OW68779   9.060   7.008   2.992
55647SOL    HW168780   9.011   7.006   3.075
55647SOL    HW268781   9.069   7.102   2.972
55648SOL     OW68782  14.105   1.649   2.884
55648SOL    HW168783  14.009   1.650   2.888
55648SOL    HW268784  14.132   1.632   2.974
55649SOL     OW68785  12.579  10.198   1.756
55649SOL    HW168786  12.593  10.132   1.824
55649SOL    HW268787  12.578  10.148   1.674
55650SOL     OW68788  13.097   3.045   0.480
55650SOL    HW168789  13.022   2.989   0.500
55650SOL    HW268790  13.109   3.098   0.559
55651SOL     OW68791  11.093   3.168   9.547
55651SOL    HW168792  11.132   3.139   9.464
55651SOL    HW268793  11.115   3.261   9.553
55652SOL     OW68794  12.018   6.847   9.769
55652SOL    HW168795  12.110   6.824   9.783
55652SOL    HW268796  12.019   6.940   9.748
55653SOL     OW68797  10.893   4.606  11.468
55653SOL    HW168798  10.964   4.560  11.423
55653SOL    HW268799  10.827   4.537  11.485
55654SOL     OW68800  11.515  11.950  11.797
55654SOL    HW168801  11.550  11.978  11.713
55654SOL    HW268802  11.465  11.870  11.777
55655SOL     OW68803   9.683   0.879  10.671
55655SOL    HW168804   9.620   0.880  10.599
55655SOL    HW268805   9.765   0.849  10.632
55656SOL     OW68806  11.455   4.342  14.036
55656SOL    HW168807  11.371   4.297  14.045
55656SOL    HW268808  11.444   4.425  14.083
55657SOL     OW68809  13.631   2.702   0.340
55657SOL    HW168810  13.568   2.676   0.272
55657SOL    HW268811  13.697   2.753   0.293
55658SOL     OW68812   0.790  14.649   7.209
55658SOL    HW168813   0.812  14.722   7.151
55658SOL    HW268814   0.823  14.675   7.295
55659SOL     OW68815  14.131  13.080   6.725
55659SOL    HW168816  14.186  13.146   6.684
55659SOL    HW268817  14.113  13.114   6.812
55660SOL     OW68818   6.379   9.832   5.675
55660SOL    HW168819   6.307   9.891   5.697
55660SOL    HW268820   6.363   9.754   5.728
55661SOL     OW68821  14.038   6.962   7.936
55661SOL    HW168822  14.072   6.897   7.875
55661SOL    HW268823  13.947   6.936   7.951
55662SOL     OW68824   4.330   7.398  11.999
55662SOL    HW168825   4.287   7.458  12.060
55662SOL    HW268826   4.350   7.452  11.923
55663SOL     OW68827   4.046  14.175   4.833
55663SOL    HW168828   4.134  14.210   4.847
55663SOL    HW268829   4.043  14.096   4.885
55664SOL     OW68830  14.685   0.420   1.050
55664SOL    HW168831  14.608   0.381   1.009
55664SOL    HW268832  14.658   0.434   1.141
55665SOL     OW68833   8.941   0.584   4.536
55665SOL    HW168834   8.862   0.619   4.578
55665SOL    HW268835   8.907   0.520   4.473
55666SOL     OW68836   6.144   1.012   5.744
55666SOL    HW168837   6.137   1.001   5.649
55666SOL    HW268838   6.076   1.076   5.766
55667SOL     OW68839   5.556   0.688   2.933
55667SOL    HW168840   5.566   0.596   2.957
55667SOL    HW268841   5.490   0.722   2.992
55668SOL     OW68842  10.751  12.881   9.620
55668SOL    HW168843  10.700  12.904   9.543
55668SOL    HW268844  10.694  12.904   9.694
55669SOL     OW68845   3.440   8.858   5.641
55669SOL    HW168846   3.439   8.862   5.737
55669SOL    HW268847   3.445   8.764   5.621
55670SOL     OW68848  11.908  11.526  14.846
55670SOL    HW168849  11.964  11.604  14.837
55670SOL    HW268850  11.968  11.452  14.833
55671SOL     OW68851   1.110   5.019   4.719
55671SOL    HW168852   1.204   5.036   4.710
55671SOL    HW268853   1.081   5.001   4.629
55672SOL     OW68854   0.965   4.840   4.196
55672SOL    HW168855   1.042   4.878   4.153
55672SOL    HW268856   1.000   4.762   4.241
55673SOL     OW68857   0.958  13.433   9.506
55673SOL    HW168858   0.890  13.387   9.457
55673SOL    HW268859   0.950  13.401   9.595
55674SOL     OW68860   5.251   9.766  12.522
55674SOL    HW168861   5.167   9.729  12.492
55674SOL    HW268862   5.307   9.761  12.444
55675SOL     OW68863  12.150   0.024   4.161
55675SOL    HW168864  12.219   0.045   4.098
55675SOL    HW268865  12.075  14.875   4.107
55676SOL     OW68866   0.742  14.501   3.270
55676SOL    HW168867   0.723  14.436   3.338
55676SOL    HW268868   0.732  14.453   3.188
55677SOL     OW68869  13.265   2.275   7.134
55677SOL    HW168870  13.233   2.202   7.187
55677SOL    HW268871  13.359   2.280   7.153
55678SOL     OW68872   8.976   2.875   4.285
55678SOL    HW168873   8.927   2.927   4.221
55678SOL    HW268874   9.040   2.827   4.233
55679SOL     OW68875   5.176   4.575   4.835
55679SOL    HW168876   5.174   4.663   4.872
55679SOL    HW268877   5.155   4.518   4.909
55680SOL     OW68878   0.088   2.797   7.393
55680SOL    HW168879   0.051   2.745   7.464
55680SOL    HW268880   0.133   2.734   7.337
55681SOL     OW68881  11.360  10.662  13.538
55681SOL    HW168882  11.384  10.624  13.622
55681SOL    HW268883  11.266  10.643  13.529
55682SOL     OW68884  12.307  10.116   6.284
55682SOL    HW168885  12.337  10.117   6.193
55682SOL    HW268886  12.217  10.085   6.279
55683SOL     OW68887  11.255   6.130   5.775
55683SOL    HW168888  11.349   6.129   5.795
55683SOL    HW268889  11.250   6.156   5.683
55684SOL     OW68890  10.875  13.698   0.819
55684SOL    HW168891  10.797  13.646   0.836
55684SOL    HW268892  10.849  13.788   0.839
55685SOL     OW68893   7.717  12.337   0.046
55685SOL    HW168894   7.738  12.298  14.838
55685SOL    HW268895   7.798  12.333   0.096
55686SOL     OW68896  14.274  11.991  12.108
55686SOL    HW168897  14.263  11.911  12.057
55686SOL    HW268898  14.208  11.985  12.177
55687SOL     OW68899   4.565   2.105   8.723
55687SOL    HW168900   4.510   2.128   8.798
55687SOL    HW268901   4.526   2.151   8.649
55688SOL     OW68902  10.792   9.027  13.884
55688SOL    HW168903  10.759   9.087  13.818
55688SOL    HW268904  10.834   9.083  13.949
55689SOL     OW68905   2.325  12.767   7.301
55689SOL    HW168906   2.388  12.839   7.302
55689SOL    HW268907   2.292  12.762   7.391
55690SOL     OW68908   5.366  11.797   7.594
55690SOL    HW168909   5.344  11.811   7.686
55690SOL    HW268910   5.452  11.838   7.584
55691SOL     OW68911   0.761   7.247  10.467
55691SOL    HW168912   0.809   7.194  10.531
55691SOL    HW268913   0.829   7.296  10.420
55692SOL     OW68914   1.894  14.157   2.773
55692SOL    HW168915   1.803  14.183   2.759
55692SOL    HW268916   1.911  14.092   2.705
55693SOL     OW68917   7.169   4.580   2.257
55693SOL    HW168918   7.221   4.566   2.336
55693SOL    HW268919   7.228   4.558   2.185
55694SOL     OW68920   7.630   2.031   4.534
55694SOL    HW168921   7.573   1.980   4.591
55694SOL    HW268922   7.573   2.098   4.497
55695SOL     OW68923  14.429   0.215  12.341
55695SOL    HW168924  14.476   0.172  12.412
55695SOL    HW268925  14.372   0.147  12.305
55696SOL     OW68926   5.398  11.554   2.251
55696SOL    HW168927   5.465  11.489   2.274
55696SOL    HW268928   5.315  11.512   2.273
55697SOL     OW68929   4.204  10.225  10.966
55697SOL    HW168930   4.228  10.193  11.053
55697SOL    HW268931   4.238  10.158  10.906
55698SOL     OW68932  12.683   7.521   6.568
55698SOL    HW168933  12.593   7.541   6.542
55698SOL    HW268934  12.710   7.595   6.623
55699SOL     OW68935   5.870  12.921   7.148
55699SOL    HW168936   5.848  12.882   7.232
55699SOL    HW268937   5.846  12.856   7.083
55700SOL     OW68938  13.059   8.964  11.106
55700SOL    HW168939  13.038   8.943  11.015
55700SOL    HW268940  13.020   8.892  11.157
55701SOL     OW68941   4.909   1.531  10.037
55701SOL    HW168942   4.906   1.622  10.007
55701SOL    HW268943   4.922   1.537  10.132
55702SOL     OW68944  10.019  13.583   1.049
55702SOL    HW168945  10.081  13.515   1.023
55702SOL    HW268946  10.052  13.614   1.134
55703SOL     OW68947   4.530  14.601  10.033
55703SOL    HW168948   4.434  14.602  10.037
55703SOL    HW268949   4.551  14.562   9.949
55704SOL     OW68950   7.150   4.816  11.262
55704SOL    HW168951   7.244   4.826  11.270
55704SOL    HW268952   7.135   4.721  11.264
55705SOL     OW68953  11.075   3.118   3.353
55705SOL    HW168954  11.097   3.060   3.426
55705SOL    HW268955  11.152   3.116   3.297
55706SOL     OW68956   6.823   3.750   7.698
55706SOL    HW168957   6.802   3.670   7.746
55706SOL    HW268958   6.888   3.722   7.633
55707SOL     OW68959   0.858   9.655   9.487
55707SOL    HW168960   0.803   9.730   9.467
55707SOL    HW268961   0.829   9.626   9.574
55708SOL     OW68962  13.380  14.725   8.571
55708SOL    HW168963  13.312  14.792   8.571
55708SOL    HW268964  13.367  14.677   8.490
55709SOL     OW68965  12.822   4.913   0.591
55709SOL    HW168966  12.826   4.842   0.655
55709SOL    HW268967  12.744   4.894   0.539
55710SOL     OW68968  10.176  12.118   8.075
55710SOL    HW168969  10.215  12.182   8.135
55710SOL    HW268970  10.082  12.130   8.086
55711SOL     OW68971   9.552   6.523  10.674
55711SOL    HW168972   9.463   6.496  10.651
55711SOL    HW268973   9.593   6.546  10.591
55712SOL     OW68974   9.443  11.075   3.325
55712SOL    HW168975   9.376  11.098   3.389
55712SOL    HW268976   9.464  11.157   3.281
55713SOL     OW68977  13.910   6.429   6.996
55713SOL    HW168978  13.947   6.368   7.060
55713SOL    HW268979  13.841   6.380   6.952
55714SOL     OW68980   6.541   8.674   3.465
55714SOL    HW168981   6.632   8.678   3.495
55714SOL    HW268982   6.492   8.644   3.542
55715SOL     OW68983   5.568   0.888   6.410
55715SOL    HW168984   5.540   0.971   6.372
55715SOL    HW268985   5.635   0.912   6.475
55716SOL     OW68986  10.458   8.900   9.161
55716SOL    HW168987  10.520   8.837   9.198
55716SOL    HW268988  10.380   8.848   9.141
55717SOL     OW68989   9.905   8.266   3.249
55717SOL    HW168990   9.910   8.278   3.343
55717SOL    HW268991   9.874   8.350   3.215
55718SOL     OW68992   1.217   4.530  14.687
55718SOL    HW168993   1.264   4.586  14.748
55718SOL    HW268994   1.189   4.588  14.617
55719SOL     OW68995  10.231   9.830   0.169
55719SOL    HW168996  10.213   9.924   0.162
55719SOL    HW268997  10.154   9.794   0.212
55720SOL     OW68998   4.470   1.820  12.555
55720SOL    HW168999   4.495   1.899  12.508
55720SOL    HW269000   4.419   1.851  12.629
55721SOL     OW69001   9.080   1.181   6.787
55721SOL    HW169002   9.076   1.189   6.691
55721SOL    HW269003   9.173   1.185   6.808
55722SOL     OW69004   8.192   9.910   8.704
55722SOL    HW169005   8.228   9.938   8.620
55722SOL    HW269006   8.097   9.913   8.693
55723SOL     OW69007   2.318   1.099   8.665
55723SOL    HW169008   2.297   1.087   8.572
55723SOL    HW269009   2.393   1.158   8.665
55724SOL     OW69010   5.139  10.526   5.282
55724SOL    HW169011   5.168  10.563   5.199
55724SOL    HW269012   5.194  10.569   5.348
55725SOL     OW69013   4.635  12.583   9.468
55725SOL    HW169014   4.730  12.594   9.475
55725SOL    HW269015   4.602  12.611   9.553
55726SOL     OW69016   6.337  13.544  13.362
55726SOL    HW169017   6.319  13.634  13.388
55726SOL    HW269018   6.256  13.497  13.380
55727SOL     OW69019   7.263   7.214   9.943
55727SOL    HW169020   7.211   7.135   9.927
55727SOL    HW269021   7.307   7.231   9.860
55728SOL     OW69022   5.441   2.956  14.413
55728SOL    HW169023   5.533   2.948  14.388
55728SOL    HW269024   5.433   2.900  14.490
55729SOL     OW69025   5.667   8.199   0.316
55729SOL    HW169026   5.609   8.224   0.244
55729SOL    HW269027   5.608   8.171   0.386
55730SOL     OW69028  13.410   7.191  11.322
55730SOL    HW169029  13.432   7.174  11.413
55730SOL    HW269030  13.438   7.112  11.275
55731SOL     OW69031  14.486  10.338  14.562
55731SOL    HW169032  14.477  10.250  14.524
55731SOL    HW269033  14.396  10.364  14.583
55732SOL     OW69034   2.281   4.135  13.542
55732SOL    HW169035   2.194   4.163  13.514
55732SOL    HW269036   2.330   4.216  13.556
55733SOL     OW69037   7.226  14.446   9.636
55733SOL    HW169038   7.271  14.403   9.709
55733SOL    HW269039   7.195  14.374   9.581
55734SOL     OW69040   9.997   4.587  13.756
55734SOL    HW169041  10.042   4.670  13.744
55734SOL    HW269042   9.917   4.610  13.804
55735SOL     OW69043  12.480   5.764   5.983
55735SOL    HW169044  12.571   5.777   6.009
55735SOL    HW269045  12.464   5.833   5.918
55736SOL     OW69046   6.490  11.228  14.648
55736SOL    HW169047   6.448  11.179  14.718
55736SOL    HW269048   6.442  11.205  14.569
55737SOL     OW69049   9.252   0.058  12.268
55737SOL    HW169050   9.250   0.106  12.351
55737SOL    HW269051   9.182   0.098  12.216
55738SOL     OW69052   3.838  11.477   1.988
55738SOL    HW169053   3.811  11.386   2.000
55738SOL    HW269054   3.932  11.471   1.967
55739SOL     OW69055   3.498   0.528   2.452
55739SOL    HW169056   3.402   0.530   2.461
55739SOL    HW269057   3.515   0.456   2.391
55740SOL     OW69058   0.714  12.001  13.978
55740SOL    HW169059   0.670  12.082  14.006
55740SOL    HW269060   0.767  11.975  14.053
55741SOL     OW69061   6.052   7.681   0.171
55741SOL    HW169062   5.982   7.678   0.105
55741SOL    HW269063   6.021   7.746   0.235
55742SOL     OW69064   4.272   9.072  12.885
55742SOL    HW169065   4.258   8.991  12.835
55742SOL    HW269066   4.187   9.116  12.883
55743SOL     OW69067  13.741   0.427  14.648
55743SOL    HW169068  13.832   0.433  14.617
55743SOL    HW269069  13.735   0.493  14.718
55744SOL     OW69070   9.121  14.205   1.156
55744SOL    HW169071   9.059  14.247   1.096
55744SOL    HW269072   9.203  14.252   1.142
55745SOL     OW69073   8.630   0.090   0.688
55745SOL    HW169074   8.656   0.063   0.601
55745SOL    HW269075   8.675   0.029   0.747
55746SOL     OW69076   5.164   8.030  12.873
55746SOL    HW169077   5.074   8.062  12.861
55746SOL    HW269078   5.217   8.109  12.881
55747SOL     OW69079  14.380   5.843  14.653
55747SOL    HW169080  14.330   5.876  14.728
55747SOL    HW269081  14.406   5.922  14.606
55748SOL     OW69082  12.568   0.228  11.719
55748SOL    HW169083  12.572   0.132  11.721
55748SOL    HW269084  12.606   0.252  11.635
55749SOL     OW69085   9.010  13.726   1.457
55749SOL    HW169086   9.094  13.681   1.444
55749SOL    HW269087   8.945  13.669   1.415
55750SOL     OW69088   2.799   6.830   6.860
55750SOL    HW169089   2.859   6.852   6.931
55750SOL    HW269090   2.839   6.754   6.818
55751SOL     OW69091   2.336   6.544   5.814
55751SOL    HW169092   2.402   6.493   5.768
55751SOL    HW269093   2.380   6.576   5.893
55752SOL     OW69094  10.990   3.908  11.413
55752SOL    HW169095  11.074   3.914  11.367
55752SOL    HW269096  10.929   3.956  11.358
55753SOL     OW69097   8.635  11.227   3.411
55753SOL    HW169098   8.650  11.132   3.413
55753SOL    HW269099   8.586  11.241   3.329
55754SOL     OW69100   4.431   5.549  10.691
55754SOL    HW169101   4.526   5.542  10.699
55754SOL    HW269102   4.416   5.638  10.659
55755SOL     OW69103  11.595   9.292   4.592
55755SOL    HW169104  11.652   9.218   4.569
55755SOL    HW269105  11.607   9.302   4.687
55756SOL     OW69106   3.031   9.175  13.559
55756SOL    HW169107   3.058   9.148  13.647
55756SOL    HW269108   2.940   9.145  13.552
55757SOL     OW69109   1.891   4.432   9.287
55757SOL    HW169110   1.820   4.392   9.337
55757SOL    HW269111   1.950   4.468   9.353
55758SOL     OW69112   3.963  12.973  11.044
55758SOL    HW169113   3.928  12.884  11.049
55758SOL    HW269114   3.902  13.025  11.098
55759SOL     OW69115   1.590  13.212  14.778
55759SOL    HW169116   1.525  13.240  14.714
55759SOL    HW269117   1.573  13.267  14.855
55760SOL     OW69118   3.879   3.311  12.191
55760SOL    HW169119   3.909   3.236  12.139
55760SOL    HW269120   3.833   3.367  12.128
55761SOL     OW69121   6.620   2.405   1.947
55761SOL    HW169122   6.688   2.441   1.890
55761SOL    HW269123   6.639   2.311   1.950
55762SOL     OW69124   8.476   4.496   4.813
55762SOL    HW169125   8.480   4.507   4.718
55762SOL    HW269126   8.390   4.530   4.838
55763SOL     OW69127   5.438  10.410  11.635
55763SOL    HW169128   5.343  10.412  11.647
55763SOL    HW269129   5.464  10.502  11.634
55764SOL     OW69130   8.702  10.840  11.775
55764SOL    HW169131   8.645  10.907  11.738
55764SOL    HW269132   8.777  10.889  11.808
55765SOL     OW69133   5.473   4.440  10.090
55765SOL    HW169134   5.450   4.389  10.167
55765SOL    HW269135   5.392   4.446  10.040
55766SOL     OW69136  11.412  10.700   2.711
55766SOL    HW169137  11.466  10.705   2.790
55766SOL    HW269138  11.378  10.788   2.699
55767SOL     OW69139  10.198   3.239  12.918
55767SOL    HW169140  10.104   3.252  12.931
55767SOL    HW269141  10.236   3.327  12.922
55768SOL     OW69142   0.924   1.096   8.003
55768SOL    HW169143   0.990   1.111   8.070
55768SOL    HW269144   0.969   1.046   7.935
55769SOL     OW69145   8.559  14.791   6.147
55769SOL    HW169146   8.601  14.763   6.229
55769SOL    HW269147   8.631  14.827   6.095
55770SOL     OW69148   9.079   4.949   6.177
55770SOL    HW169149   8.998   4.988   6.144
55770SOL    HW269150   9.062   4.855   6.178
55771SOL     OW69151  12.824   6.840  12.448
55771SOL    HW169152  12.816   6.748  12.472
55771SOL    HW269153  12.894   6.874  12.503
55772SOL     OW69154   6.019  11.720   2.696
55772SOL    HW169155   5.930  11.746   2.718
55772SOL    HW269156   6.009  11.636   2.649
55773SOL     OW69157  12.417  14.380  10.985
55773SOL    HW169158  12.437  14.381  10.892
55773SOL    HW269159  12.325  14.354  10.989
55774SOL     OW69160   3.164   8.723   3.134
55774SOL    HW169161   3.257   8.741   3.119
55774SOL    HW269162   3.129   8.804   3.172
55775SOL     OW69163   8.436   4.211   7.760
55775SOL    HW169164   8.396   4.152   7.697
55775SOL    HW269165   8.485   4.154   7.820
55776SOL     OW69166   4.443  11.566   0.900
55776SOL    HW169167   4.362  11.593   0.856
55776SOL    HW269168   4.512  11.585   0.837
55777SOL     OW69169   0.165   6.214   1.726
55777SOL    HW169170   0.185   6.157   1.800
55777SOL    HW269171   0.069   6.212   1.720
55778SOL     OW69172  13.227  11.469  14.171
55778SOL    HW169173  13.149  11.469  14.115
55778SOL    HW269174  13.257  11.379  14.171
55779SOL     OW69175  14.613   6.514  10.648
55779SOL    HW169176  14.552   6.562  10.592
55779SOL    HW269177  14.690   6.498  10.593
55780SOL     OW69178   0.512   7.998   2.649
55780SOL    HW169179   0.552   7.952   2.723
55780SOL    HW269180   0.556   7.961   2.572
55781SOL     OW69181  13.365  12.247   7.328
55781SOL    HW169182  13.333  12.172   7.379
55781SOL    HW269183  13.314  12.321   7.359
55782SOL     OW69184   2.472  11.279  11.006
55782SOL    HW169185   2.384  11.244  11.017
55782SOL    HW269186   2.467  11.337  10.930
55783SOL     OW69187   7.570   2.167   1.584
55783SOL    HW169188   7.568   2.251   1.539
55783SOL    HW269189   7.612   2.108   1.523
55784SOL     OW69190  11.104   2.316   5.827
55784SOL    HW169191  11.035   2.307   5.761
55784SOL    HW269192  11.177   2.355   5.778
55785SOL     OW69193   9.800  13.887  13.276
55785SOL    HW169194   9.747  13.837  13.214
55785SOL    HW269195   9.737  13.931  13.333
55786SOL     OW69196  13.482  10.403   6.586
55786SOL    HW169197  13.443  10.315   6.591
55786SOL    HW269198  13.575  10.389   6.601
55787SOL     OW69199   6.598   7.139   5.059
55787SOL    HW169200   6.660   7.209   5.079
55787SOL    HW269201   6.527   7.151   5.123
55788SOL     OW69202   9.660  10.377   8.609
55788SOL    HW169203   9.586  10.404   8.553
55788SOL    HW269204   9.639  10.287   8.634
55789SOL     OW69205  11.670  11.873   4.304
55789SOL    HW169206  11.692  11.810   4.372
55789SOL    HW269207  11.750  11.923   4.290
55790SOL     OW69208  13.072  14.165  13.246
55790SOL    HW169209  13.041  14.251  13.216
55790SOL    HW269210  13.138  14.140  13.181
55791SOL     OW69211   8.812   7.968  12.195
55791SOL    HW169212   8.829   7.875  12.203
55791SOL    HW269213   8.815   7.986  12.101
55792SOL     OW69214  11.832  13.327   4.659
55792SOL    HW169215  11.744  13.364   4.667
55792SOL    HW269216  11.846  13.318   4.565
55793SOL     OW69217   9.422  13.335   6.409
55793SOL    HW169218   9.356  13.378   6.354
55793SOL    HW269219   9.371  13.277   6.466
55794SOL     OW69220   2.316   6.856   3.463
55794SOL    HW169221   2.359   6.799   3.527
55794SOL    HW269222   2.386   6.910   3.427
55795SOL     OW69223   3.277   3.345   6.382
55795SOL    HW169224   3.304   3.374   6.295
55795SOL    HW269225   3.302   3.253   6.386
55796SOL     OW69226  14.594  10.214   5.692
55796SOL    HW169227  14.670  10.257   5.652
55796SOL    HW269228  14.631  10.138   5.738
55797SOL     OW69229  14.487   5.532   1.707
55797SOL    HW169230  14.417   5.594   1.689
55797SOL    HW269231  14.449   5.447   1.686
55798SOL     OW69232   3.337  12.293   0.623
55798SOL    HW169233   3.377  12.340   0.695
55798SOL    HW269234   3.399  12.301   0.551
55799SOL     OW69235  13.744   9.789   0.844
55799SOL    HW169236  13.702   9.705   0.862
55799SOL    HW269237  13.834   9.767   0.820
55800SOL     OW69238   4.602  13.253   0.295
55800SOL    HW169239   4.523  13.283   0.252
55800SOL    HW269240   4.670  13.313   0.266
55801SOL     OW69241  14.444   6.451  14.261
55801SOL    HW169242  14.469   6.412  14.344
55801SOL    HW269243  14.393   6.383  14.216
55802SOL     OW69244   0.375  12.663   1.033
55802SOL    HW169245   0.327  12.581   1.025
55802SOL    HW269246   0.447  12.655   0.971
55803SOL     OW69247   7.856   7.517   0.186
55803SOL    HW169248   7.841   7.491   0.277
55803SOL    HW269249   7.861   7.434   0.139
55804SOL     OW69250  13.587   8.907   1.779
55804SOL    HW169251  13.515   8.929   1.720
55804SOL    HW269252  13.571   8.958   1.858
55805SOL     OW69253   5.367   9.451   5.656
55805SOL    HW169254   5.275   9.469   5.633
55805SOL    HW269255   5.404   9.538   5.674
55806SOL     OW69256  10.556   4.612  11.262
55806SOL    HW169257  10.464   4.588  11.275
55806SOL    HW269258  10.557   4.707  11.276
55807SOL     OW69259  10.161   2.565   6.921
55807SOL    HW169260  10.146   2.489   6.978
55807SOL    HW269261  10.255   2.581   6.926
55808SOL     OW69262   2.780  10.877   9.162
55808SOL    HW169263   2.742  10.828   9.090
55808SOL    HW269264   2.739  10.840   9.240
55809SOL     OW69265  12.895   0.522   3.718
55809SOL    HW169266  12.963   0.491   3.659
55809SOL    HW269267  12.826   0.556   3.661
55810SOL     OW69268  10.081   3.503  13.231
55810SOL    HW169269  10.156   3.551  13.196
55810SOL    HW269270  10.121   3.436  13.287
55811SOL     OW69271   0.911   1.440   5.046
55811SOL    HW169272   0.988   1.383   5.044
55811SOL    HW269273   0.855   1.403   5.114
55812SOL     OW69274   4.818   4.307   5.391
55812SOL    HW169275   4.812   4.317   5.296
55812SOL    HW269276   4.912   4.304   5.408
55813SOL     OW69277  10.062   0.498  10.055
55813SOL    HW169278   9.986   0.522  10.108
55813SOL    HW269279  10.076   0.405  10.075
55814SOL     OW69280   3.642   3.627  13.235
55814SOL    HW169281   3.733   3.609  13.260
55814SOL    HW269282   3.648   3.705  13.179
55815SOL     OW69283   3.964   3.684  14.469
55815SOL    HW169284   3.923   3.768  14.490
55815SOL    HW269285   3.974   3.641  14.553
55816SOL     OW69286   0.246   7.355   0.149
55816SOL    HW169287   0.227   7.404   0.068
55816SOL    HW269288   0.172   7.295   0.158
55817SOL     OW69289   2.365   6.888   8.757
55817SOL    HW169290   2.311   6.950   8.709
55817SOL    HW269291   2.454   6.902   8.724
55818SOL     OW69292  10.220  14.400  11.989
55818SOL    HW169293  10.238  14.484  12.031
55818SOL    HW269294  10.179  14.347  12.057
55819SOL     OW69295  12.782  13.072   8.248
55819SOL    HW169296  12.788  13.005   8.317
55819SOL    HW269297  12.870  13.108   8.242
55820SOL     OW69298   9.754  12.811  12.672
55820SOL    HW169299   9.708  12.894  12.683
55820SOL    HW269300   9.689  12.744  12.697
55821SOL     OW69301  10.904   4.648   8.746
55821SOL    HW169302  10.919   4.703   8.669
55821SOL    HW269303  10.971   4.676   8.808
55822SOL     OW69304  11.271  12.483   1.729
55822SOL    HW169305  11.217  12.533   1.667
55822SOL    HW269306  11.274  12.538   1.807
55823SOL     OW69307   7.544  14.246   6.063
55823SOL    HW169308   7.594  14.225   5.985
55823SOL    HW269309   7.452  14.244   6.034
55824SOL     OW69310  11.086  11.654  11.123
55824SOL    HW169311  11.106  11.600  11.200
55824SOL    HW269312  11.022  11.717  11.155
55825SOL     OW69313   1.377   9.855   3.081
55825SOL    HW169314   1.294   9.892   3.110
55825SOL    HW269315   1.386   9.881   2.989
55826SOL     OW69316   3.223  13.452   7.118
55826SOL    HW169317   3.153  13.508   7.154
55826SOL    HW269318   3.297  13.465   7.178
55827SOL     OW69319   6.760  10.704   6.140
55827SOL    HW169320   6.836  10.665   6.183
55827SOL    HW269321   6.774  10.799   6.148
55828SOL     OW69322   7.617   1.881  14.593
55828SOL    HW169323   7.537   1.917  14.555
55828SOL    HW269324   7.618   1.789  14.565
55829SOL     OW69325  13.515   6.398  13.731
55829SOL    HW169326  13.428   6.437  13.739
55829SOL    HW269327  13.541   6.379  13.821
55830SOL     OW69328   5.189   3.727   1.444
55830SOL    HW169329   5.228   3.758   1.525
55830SOL    HW269330   5.094   3.734   1.458
55831SOL     OW69331  14.724  10.459   6.180
55831SOL    HW169332  14.689  10.512   6.251
55831SOL    HW269333  14.666  10.477   6.106
55832SOL     OW69334  13.251   0.890   0.788
55832SOL    HW169335  13.212   0.805   0.808
55832SOL    HW269336  13.325   0.897   0.849
55833SOL     OW69337  12.985  11.648   9.774
55833SOL    HW169338  12.909  11.650   9.716
55833SOL    HW269339  12.997  11.738   9.802
55834SOL     OW69340  14.374   4.897   5.161
55834SOL    HW169341  14.308   4.903   5.231
55834SOL    HW269342  14.356   4.973   5.105
55835SOL     OW69343  10.559   6.640   8.594
55835SOL    HW169344  10.584   6.641   8.686
55835SOL    HW269345  10.544   6.548   8.574
55836SOL     OW69346  11.577   0.710  14.510
55836SOL    HW169347  11.578   0.742  14.420
55836SOL    HW269348  11.654   0.653  14.517
55837SOL     OW69349   3.033   9.670  14.294
55837SOL    HW169350   2.972   9.743  14.303
55837SOL    HW269351   3.070   9.659  14.381
55838SOL     OW69352  13.496  12.119   6.243
55838SOL    HW169353  13.552  12.061   6.294
55838SOL    HW269354  13.519  12.102   6.152
55839SOL     OW69355   7.177   4.572   2.899
55839SOL    HW169356   7.133   4.636   2.956
55839SOL    HW269357   7.235   4.524   2.958
55840SOL     OW69358  13.112  12.687   9.072
55840SOL    HW169359  13.139  12.605   9.114
55840SOL    HW269360  13.103  12.666   8.980
55841SOL     OW69361   0.835   8.353   9.540
55841SOL    HW169362   0.822   8.387   9.628
55841SOL    HW269363   0.918   8.392   9.511
55842SOL     OW69364   1.151  11.668   5.245
55842SOL    HW169365   1.150  11.738   5.310
55842SOL    HW269366   1.169  11.588   5.296
55843SOL     OW69367  13.778   7.156   2.639
55843SOL    HW169368  13.833   7.229   2.612
55843SOL    HW269369  13.776   7.162   2.735
55844SOL     OW69370   4.385   1.103  10.527
55844SOL    HW169371   4.439   1.181  10.517
55844SOL    HW269372   4.296   1.137  10.543
55845SOL     OW69373   2.296   8.711  12.714
55845SOL    HW169374   2.360   8.700  12.644
55845SOL    HW269375   2.349   8.715  12.794
55846SOL     OW69376  10.963   6.976   2.411
55846SOL    HW169377  11.038   6.928   2.447
55846SOL    HW269378  10.981   7.068   2.430
55847SOL     OW69379  10.951  10.645  12.353
55847SOL    HW169380  10.919  10.734  12.344
55847SOL    HW269381  10.935  10.604  12.268
55848SOL     OW69382  14.870   7.400   0.637
55848SOL    HW169383  14.802   7.467   0.628
55848SOL    HW269384   0.003   7.388   0.732
55849SOL     OW69385   7.430   9.791   8.247
55849SOL    HW169386   7.351   9.757   8.289
55849SOL    HW269387   7.402   9.809   8.157
55850SOL     OW69388   3.488   6.769   1.406
55850SOL    HW169389   3.529   6.850   1.378
55850SOL    HW269390   3.524   6.702   1.348
55851SOL     OW69391  13.508   6.765   7.827
55851SOL    HW169392  13.569   6.768   7.754
55851SOL    HW269393  13.439   6.827   7.802
55852SOL     OW69394  12.006  12.296  10.831
55852SOL    HW169395  12.095  12.263  10.828
55852SOL    HW269396  11.959  12.247  10.763
55853SOL     OW69397  11.795   4.986  11.879
55853SOL    HW169398  11.805   5.061  11.938
55853SOL    HW269399  11.837   5.013  11.798
55854SOL     OW69400  10.778  13.224  12.907
55854SOL    HW169401  10.716  13.286  12.944
55854SOL    HW269402  10.834  13.199  12.981
55855SOL     OW69403   6.176  11.311   1.765
55855SOL    HW169404   6.244  11.264   1.814
55855SOL    HW269405   6.112  11.336   1.832
55856SOL     OW69406   0.168   9.706   8.312
55856SOL    HW169407   0.195   9.784   8.361
55856SOL    HW269408   0.250   9.668   8.280
55857SOL     OW69409   6.621   4.424   3.504
55857SOL    HW169410   6.697   4.475   3.530
55857SOL    HW269411   6.655   4.362   3.439
55858SOL     OW69412   5.912   0.727   2.179
55858SOL    HW169413   5.913   0.673   2.259
55858SOL    HW269414   6.004   0.733   2.154
55859SOL     OW69415   2.121   7.136  14.380
55859SOL    HW169416   2.145   7.227  14.396
55859SOL    HW269417   2.133   7.123  14.286
55860SOL     OW69418   8.997  10.735   9.632
55860SOL    HW169419   9.060  10.687   9.686
55860SOL    HW269420   8.930  10.764   9.694
55861SOL     OW69421   7.093  12.469   7.014
55861SOL    HW169422   7.084  12.379   6.982
55861SOL    HW269423   7.068  12.524   6.940
55862SOL     OW69424   7.516  10.712  14.708
55862SOL    HW169425   7.463  10.638  14.678
55862SOL    HW269426   7.587  10.672  14.758
55863SOL     OW69427  13.931   2.887   4.537
55863SOL    HW169428  13.971   2.967   4.503
55863SOL    HW269429  13.997   2.819   4.523
55864SOL     OW69430   5.757   6.074  13.487
55864SOL    HW169431   5.849   6.056  13.469
55864SOL    HW269432   5.742   6.037  13.575
55865SOL     OW69433  11.663   2.724   6.604
55865SOL    HW169434  11.635   2.810   6.635
55865SOL    HW269435  11.741   2.704   6.656
55866SOL     OW69436  12.189  14.707   1.976
55866SOL    HW169437  12.259  14.678   1.918
55866SOL    HW269438  12.118  14.735   1.917
55867SOL     OW69439   6.681  10.262   3.685
55867SOL    HW169440   6.751  10.202   3.657
55867SOL    HW269441   6.685  10.261   3.781
55868SOL     OW69442   0.904  10.676  13.272
55868SOL    HW169443   0.888  10.770  13.263
55868SOL    HW269444   0.958  10.654  13.196
55869SOL     OW69445   3.008   8.211  11.633
55869SOL    HW169446   2.935   8.167  11.677
55869SOL    HW269447   2.991   8.198  11.540
55870SOL     OW69448   0.743   6.023   5.279
55870SOL    HW169449   0.763   6.114   5.260
55870SOL    HW269450   0.647   6.019   5.278
55871SOL     OW69451   0.094  12.676  12.040
55871SOL    HW169452   0.107  12.739  11.970
55871SOL    HW269453   0.057  12.599  11.997
55872SOL     OW69454  10.508   3.160   9.984
55872SOL    HW169455  10.547   3.092  10.040
55872SOL    HW269456  10.507   3.238  10.040
55873SOL     OW69457   7.288   8.275   2.267
55873SOL    HW169458   7.223   8.286   2.336
55873SOL    HW269459   7.318   8.364   2.247
55874SOL     OW69460   8.048   3.230   8.967
55874SOL    HW169461   8.076   3.286   8.894
55874SOL    HW269462   8.072   3.141   8.940
55875SOL     OW69463   0.077  14.403   6.463
55875SOL    HW169464   0.112  14.323   6.501
55875SOL    HW269465   0.104  14.400   6.371
55876SOL     OW69466  12.668   6.050  11.923
55876SOL    HW169467  12.625   6.092  11.849
55876SOL    HW269468  12.727   5.986  11.883
55877SOL     OW69469   7.657   6.119   0.920
55877SOL    HW169470   7.707   6.193   0.886
55877SOL    HW269471   7.611   6.084   0.843
55878SOL     OW69472   5.656   3.407   8.211
55878SOL    HW169473   5.664   3.488   8.160
55878SOL    HW269474   5.612   3.433   8.292
55879SOL     OW69475  12.136  10.370  11.987
55879SOL    HW169476  12.047  10.343  12.010
55879SOL    HW269477  12.134  10.465  11.992
55880SOL     OW69478   5.277  12.290  12.731
55880SOL    HW169479   5.246  12.371  12.773
55880SOL    HW269480   5.371  12.303  12.720
55881SOL     OW69481   9.680   2.343   0.605
55881SOL    HW169482   9.616   2.346   0.675
55881SOL    HW269483   9.636   2.297   0.534
55882SOL     OW69484  10.245   7.431   0.838
55882SOL    HW169485  10.220   7.516   0.875
55882SOL    HW269486  10.332   7.414   0.874
55883SOL     OW69487   0.065   6.787   3.956
55883SOL    HW169488   0.011   6.865   3.942
55883SOL    HW269489   0.034   6.750   4.038
55884SOL     OW69490   4.760  12.113   4.340
55884SOL    HW169491   4.813  12.088   4.416
55884SOL    HW269492   4.824  12.132   4.272
55885SOL     OW69493   1.596   5.521  13.731
55885SOL    HW169494   1.571   5.430  13.744
55885SOL    HW269495   1.676   5.532  13.781
55886SOL     OW69496   1.781   6.247   9.837
55886SOL    HW169497   1.856   6.199   9.803
55886SOL    HW269498   1.808   6.339   9.835
55887SOL     OW69499   9.252  11.852   6.496
55887SOL    HW169500   9.229  11.875   6.586
55887SOL    HW269501   9.175  11.876   6.445
55888SOL     OW69502   3.591  12.201   7.648
55888SOL    HW169503   3.497  12.190   7.636
55888SOL    HW269504   3.631  12.150   7.577
55889SOL     OW69505   3.439   9.520   0.576
55889SOL    HW169506   3.416   9.445   0.632
55889SOL    HW269507   3.534   9.514   0.567
55890SOL     OW69508   6.447   9.001   0.006
55890SOL    HW169509   6.515   9.065   0.027
55890SOL    HW269510   6.411   9.031  14.799
55891SOL     OW69511   7.957  10.146   8.182
55891SOL    HW169512   7.876  10.181   8.145
55891SOL    HW269513   8.027  10.192   8.135
55892SOL     OW69514  11.132   9.791   8.705
55892SOL    HW169515  11.186   9.851   8.653
55892SOL    HW269516  11.042   9.814   8.682
55893SOL     OW69517  14.024  11.622  13.033
55893SOL    HW169518  13.961  11.552  13.016
55893SOL    HW269519  13.974  11.703  13.022
55894SOL     OW69520  12.568   5.354  13.393
55894SOL    HW169521  12.609   5.382  13.311
55894SOL    HW269522  12.573   5.259  13.391
55895SOL     OW69523   6.943   5.096   1.878
55895SOL    HW169524   6.972   5.017   1.923
55895SOL    HW269525   6.870   5.066   1.823
55896SOL     OW69526   2.684   3.422   5.153
55896SOL    HW169527   2.740   3.492   5.188
55896SOL    HW269528   2.730   3.341   5.177
55897SOL     OW69529   3.569   5.377  13.776
55897SOL    HW169530   3.598   5.465  13.800
55897SOL    HW269531   3.483   5.390  13.736
55898SOL     OW69532  10.589   9.601  12.974
55898SOL    HW169533  10.680   9.627  12.988
55898SOL    HW269534  10.595   9.531  12.909
55899SOL     OW69535   4.107  12.171   6.421
55899SOL    HW169536   4.108  12.207   6.510
55899SOL    HW269537   4.026  12.120   6.418
55900SOL     OW69538  14.319  13.276   1.562
55900SOL    HW169539  14.236  13.275   1.516
55900SOL    HW269540  14.355  13.188   1.550
55901SOL     OW69541  12.433   2.186  11.581
55901SOL    HW169542  12.406   2.223  11.497
55901SOL    HW269543  12.490   2.253  11.620
55902SOL     OW69544  11.652   0.445   2.636
55902SOL    HW169545  11.738   0.485   2.646
55902SOL    HW269546  11.634   0.450   2.542
55903SOL     OW69547   8.488   7.102  13.252
55903SOL    HW169548   8.490   7.163  13.178
55903SOL    HW269549   8.422   7.137  13.311
55904SOL     OW69550   0.205   0.003  12.409
55904SOL    HW169551   0.201   0.045  12.323
55904SOL    HW269552   0.203  14.786  12.389
55905SOL     OW69553  13.478  11.603  10.359
55905SOL    HW169554  13.430  11.679  10.391
55905SOL    HW269555  13.523  11.567  10.436
55906SOL     OW69556  12.418   9.233   2.006
55906SOL    HW169557  12.374   9.149   1.991
55906SOL    HW269558  12.408   9.249   2.099
55907SOL     OW69559   6.313   7.029  12.358
55907SOL    HW169560   6.371   7.103  12.377
55907SOL    HW269561   6.283   7.044  12.268
55908SOL     OW69562  13.216  12.971   9.976
55908SOL    HW169563  13.224  13.052  10.028
55908SOL    HW269564  13.174  12.909  10.035
55909SOL     OW69565   5.511   5.201   5.282
55909SOL    HW169566   5.417   5.198   5.299
55909SOL    HW269567   5.529   5.123   5.230
55910SOL     OW69568   2.166   3.206  14.204
55910SOL    HW169569   2.161   3.132  14.265
55910SOL    HW269570   2.260   3.220  14.191
55911SOL     OW69571   3.479  12.167   5.986
55911SOL    HW169572   3.441  12.184   5.899
55911SOL    HW269573   3.474  12.072   5.996
55912SOL     OW69574  10.757  10.974   0.817
55912SOL    HW169575  10.833  11.019   0.781
55912SOL    HW269576  10.693  11.044   0.832
55913SOL     OW69577   6.251  14.541   6.345
55913SOL    HW169578   6.174  14.485   6.355
55913SOL    HW269579   6.251  14.596   6.423
55914SOL     OW69580   6.757  10.305   7.097
55914SOL    HW169581   6.752  10.257   7.180
55914SOL    HW269582   6.848  10.292   7.068
55915SOL     OW69583  14.661   4.708   6.486
55915SOL    HW169584  14.580   4.658   6.482
55915SOL    HW269585  14.634   4.796   6.513
55916SOL     OW69586   7.316   8.647  12.983
55916SOL    HW169587   7.409   8.657  12.961
55916SOL    HW269588   7.291   8.565  12.941
55917SOL     OW69589  14.578   1.876   6.059
55917SOL    HW169590  14.573   1.942   5.989
55917SOL    HW269591  14.487   1.857   6.080
55918SOL     OW69592  10.123   8.555   9.051
55918SOL    HW169593  10.102   8.533   9.142
55918SOL    HW269594  10.095   8.478   9.001
55919SOL     OW69595   0.089  14.859   6.854
55919SOL    HW169596   0.114   0.073   6.835
55919SOL    HW269597   0.163  14.806   6.823
55920SOL     OW69598   5.480  12.847   8.295
55920SOL    HW169599   5.520  12.835   8.382
55920SOL    HW269600   5.387  12.860   8.313
55921SOL     OW69601  11.482   1.960   3.017
55921SOL    HW169602  11.452   1.953   3.107
55921SOL    HW269603  11.402   1.958   2.964
55922SOL     OW69604  10.219  12.711   1.753
55922SOL    HW169605  10.162  12.640   1.723
55922SOL    HW269606  10.195  12.723   1.845
55923SOL     OW69607   9.921  14.373  11.183
55923SOL    HW169608   9.931  14.279  11.168
55923SOL    HW269609   9.999  14.397  11.235
55924SOL     OW69610  14.377   8.255   3.808
55924SOL    HW169611  14.294   8.207   3.803
55924SOL    HW269612  14.373   8.302   3.891
55925SOL     OW69613   0.673   2.914   6.589
55925SOL    HW169614   0.642   2.840   6.641
55925SOL    HW269615   0.768   2.906   6.591
55926SOL     OW69616   5.066   1.538  13.801
55926SOL    HW169617   4.972   1.541  13.821
55926SOL    HW269618   5.075   1.463  13.741
55927SOL     OW69619  14.003   2.760   8.022
55927SOL    HW169620  13.916   2.798   8.031
55927SOL    HW269621  14.000   2.712   7.939
55928SOL     OW69622  10.740   6.010  13.881
55928SOL    HW169623  10.669   5.964  13.926
55928SOL    HW269624  10.820   5.971  13.915
55929SOL     OW69625   9.061  13.468   0.345
55929SOL    HW169626   8.974  13.459   0.305
55929SOL    HW269627   9.119  13.417   0.290
55930SOL     OW69628   8.847   6.474   1.154
55930SOL    HW169629   8.857   6.379   1.146
55930SOL    HW269630   8.848   6.490   1.248
55931SOL     OW69631   3.116   0.461   6.881
55931SOL    HW169632   3.035   0.510   6.873
55931SOL    HW269633   3.183   0.520   6.848
55932SOL     OW69634  12.178   8.413   6.093
55932SOL    HW169635  12.211   8.501   6.109
55932SOL    HW269636  12.246   8.355   6.128
55933SOL     OW69637   8.007   0.261  13.640
55933SOL    HW169638   7.973   0.196  13.579
55933SOL    HW269639   7.976   0.232  13.726
55934SOL     OW69640   9.906   9.755   2.265
55934SOL    HW169641   9.948   9.669   2.271
55934SOL    HW269642   9.849   9.759   2.342
55935SOL     OW69643   8.150  14.824  13.816
55935SOL    HW169644   8.197   0.013  13.869
55935SOL    HW269645   8.203  14.814  13.737
55936SOL     OW69646  14.810  12.484  14.495
55936SOL    HW169647  14.853  12.493  14.411
55936SOL    HW269648  14.720  12.460  14.473
55937SOL     OW69649   1.588  12.822  14.255
55937SOL    HW169650   1.591  12.902  14.203
55937SOL    HW269651   1.660  12.769  14.221
55938SOL     OW69652   5.930   5.584   2.581
55938SOL    HW169653   5.969   5.662   2.621
55938SOL    HW269654   6.000   5.546   2.529
55939SOL     OW69655   5.785  14.706  14.812
55939SOL    HW169656   5.715  14.677  14.870
55939SOL    HW269657   5.744  14.769  14.753
55940SOL     OW69658   5.674  11.248   6.199
55940SOL    HW169659   5.605  11.213   6.255
55940SOL    HW269660   5.694  11.176   6.139
55941SOL     OW69661   5.915   3.530   9.998
55941SOL    HW169662   5.909   3.589  10.074
55941SOL    HW269663   5.830   3.487   9.994
55942SOL     OW69664   9.165  14.063   9.004
55942SOL    HW169665   9.230  13.994   8.992
55942SOL    HW269666   9.082  14.023   8.976
55943SOL     OW69667   7.300   3.650   2.205
55943SOL    HW169668   7.336   3.738   2.195
55943SOL    HW269669   7.233   3.658   2.273
55944SOL     OW69670   9.729   2.745   9.334
55944SOL    HW169671   9.665   2.685   9.296
55944SOL    HW269672   9.694   2.765   9.421
55945SOL     OW69673   4.899   9.232   5.742
55945SOL    HW169674   4.954   9.307   5.719
55945SOL    HW269675   4.934   9.160   5.690
55946SOL     OW69676   4.236  13.282   7.511
55946SOL    HW169677   4.327  13.285   7.481
55946SOL    HW269678   4.186  13.320   7.439
55947SOL     OW69679   2.459   8.683  12.505
55947SOL    HW169680   2.545   8.714  12.533
55947SOL    HW269681   2.477   8.601  12.459
55948SOL     OW69682   0.848   8.343   5.842
55948SOL    HW169683   0.900   8.263   5.830
55948SOL    HW269684   0.850   8.358   5.937
55949SOL     OW69685  13.533   2.482   6.683
55949SOL    HW169686  13.535   2.487   6.779
55949SOL    HW269687  13.445   2.509   6.659
55950SOL     OW69688   1.292  10.925  13.407
55950SOL    HW169689   1.340  11.004  13.430
55950SOL    HW269690   1.205  10.956  13.381
55951SOL     OW69691  14.574   3.056   9.299
55951SOL    HW169692  14.603   3.060   9.390
55951SOL    HW269693  14.557   3.147   9.275
55952SOL     OW69694   9.473   8.583   0.090
55952SOL    HW169695   9.417   8.661   0.090
55952SOL    HW269696   9.549   8.609   0.038
55953SOL     OW69697   2.502   5.929   8.108
55953SOL    HW169698   2.588   5.890   8.096
55953SOL    HW269699   2.506   5.971   8.194
55954SOL     OW69700   3.052   0.266   1.401
55954SOL    HW169701   3.124   0.317   1.363
55954SOL    HW269702   3.033   0.309   1.484
55955SOL     OW69703   4.322  10.582  10.347
55955SOL    HW169704   4.256  10.643  10.379
55955SOL    HW269705   4.389  10.637  10.308
55956SOL     OW69706   8.715   0.615  10.275
55956SOL    HW169707   8.691   0.539  10.223
55956SOL    HW269708   8.650   0.617  10.346
55957SOL     OW69709  11.150   3.971  12.510
55957SOL    HW169710  11.159   4.024  12.589
55957SOL    HW269711  11.239   3.960  12.478
55958SOL     OW69712  14.484   1.510   0.232
55958SOL    HW169713  14.560   1.477   0.280
55958SOL    HW269714  14.408   1.472   0.277
55959SOL     OW69715   5.661  11.553   5.317
55959SOL    HW169716   5.593  11.515   5.262
55959SOL    HW269717   5.730  11.488   5.319
55960SOL     OW69718  12.618   1.180   7.876
55960SOL    HW169719  12.571   1.196   7.794
55960SOL    HW269720  12.708   1.159   7.849
55961SOL     OW69721   3.450   7.034   9.238
55961SOL    HW169722   3.501   7.071   9.165
55961SOL    HW269723   3.500   7.057   9.316
55962SOL     OW69724  11.203  11.587  10.015
55962SOL    HW169725  11.264  11.602  10.088
55962SOL    HW269726  11.154  11.509  10.041
55963SOL     OW69727   3.445  11.297  13.944
55963SOL    HW169728   3.405  11.380  13.972
55963SOL    HW269729   3.467  11.252  14.025
55964SOL     OW69730   5.115   2.070  11.857
55964SOL    HW169731   5.079   1.984  11.837
55964SOL    HW269732   5.141   2.064  11.949
55965SOL     OW69733   5.235  12.728   6.824
55965SOL    HW169734   5.147  12.700   6.850
55965SOL    HW269735   5.252  12.806   6.876
55966SOL     OW69736  11.616   5.878   5.054
55966SOL    HW169737  11.549   5.810   5.060
55966SOL    HW269738  11.635   5.901   5.145
55967SOL     OW69739  13.457   1.395  14.565
55967SOL    HW169740  13.365   1.419  14.576
55967SOL    HW269741  13.497   1.472  14.525
55968SOL     OW69742   3.874   0.769  11.704
55968SOL    HW169743   3.782   0.762  11.728
55968SOL    HW269744   3.874   0.772  11.608
55969SOL     OW69745   7.222   0.013   4.361
55969SOL    HW169746   7.300  14.837   4.379
55969SOL    HW269747   7.226   0.030   4.267
55970SOL     OW69748   7.908  12.185  11.884
55970SOL    HW169749   7.831  12.129  11.879
55970SOL    HW269750   7.977  12.127  11.916
55971SOL     OW69751  10.587   8.018  13.605
55971SOL    HW169752  10.543   8.014  13.690
55971SOL    HW269753  10.608   8.110  13.593
55972SOL     OW69754  11.478   0.105   5.678
55972SOL    HW169755  11.439   0.071   5.759
55972SOL    HW269756  11.509   0.027   5.632
55973SOL     OW69757   0.238   0.296  14.201
55973SOL    HW169758   0.307   0.231  14.189
55973SOL    HW269759   0.157   0.248  14.190
55974SOL     OW69760   0.750   6.845   6.234
55974SOL    HW169761   0.781   6.905   6.165
55974SOL    HW269762   0.811   6.771   6.230
55975SOL     OW69763   8.238   9.611  13.347
55975SOL    HW169764   8.149   9.601  13.314
55975SOL    HW269765   8.262   9.701  13.325
55976SOL     OW69766   3.604   3.743   1.544
55976SOL    HW169767   3.543   3.669   1.535
55976SOL    HW269768   3.629   3.741   1.636
55977SOL     OW69769   1.826  14.211  12.753
55977SOL    HW169770   1.902  14.209  12.695
55977SOL    HW269771   1.751  14.197  12.696
55978SOL     OW69772  14.385   8.562   2.841
55978SOL    HW169773  14.424   8.478   2.866
55978SOL    HW269774  14.307   8.570   2.895
55979SOL     OW69775   5.436  13.075   6.578
55979SOL    HW169776   5.522  13.068   6.537
55979SOL    HW269777   5.394  12.991   6.561
55980SOL     OW69778   3.448   7.624   5.505
55980SOL    HW169779   3.527   7.678   5.502
55980SOL    HW269780   3.402   7.643   5.424
55981SOL     OW69781  12.673  10.001   3.456
55981SOL    HW169782  12.744   9.967   3.510
55981SOL    HW269783  12.713  10.012   3.369
55982SOL     OW69784  13.513   8.445   1.404
55982SOL    HW169785  13.481   8.498   1.478
55982SOL    HW269786  13.435   8.427   1.352
55983SOL     OW69787  11.190   7.482   8.065
55983SOL    HW169788  11.260   7.499   8.002
55983SOL    HW269789  11.195   7.388   8.081
55984SOL     OW69790   8.494   0.173   9.990
55984SOL    HW169791   8.579   0.181   9.945
55984SOL    HW269792   8.443   0.248   9.959
55985SOL     OW69793   0.677   1.605   4.807
55985SOL    HW169794   0.633   1.520   4.808
55985SOL    HW269795   0.634   1.653   4.736
55986SOL     OW69796   9.807   4.449   6.974
55986SOL    HW169797   9.821   4.355   6.980
55986SOL    HW269798   9.714   4.459   6.956
55987SOL     OW69799  14.465  14.616  14.414
55987SOL    HW169800  14.458  14.550  14.345
55987SOL    HW269801  14.559  14.633  14.421
55988SOL     OW69802  12.505   0.180   7.093
55988SOL    HW169803  12.530   0.090   7.072
55988SOL    HW269804  12.448   0.172   7.169
55989SOL     OW69805   0.701   9.657  14.223
55989SOL    HW169806   0.616   9.701  14.221
55989SOL    HW269807   0.739   9.681  14.308
55990SOL     OW69808  10.903   0.040   2.777
55990SOL    HW169809  10.900  14.841   2.717
55990SOL    HW269810  10.870   0.113   2.725
55991SOL     OW69811   2.052  13.444   3.135
55991SOL    HW169812   1.980  13.443   3.072
55991SOL    HW269813   2.131  13.438   3.081
55992SOL     OW69814   6.513  12.411   8.565
55992SOL    HW169815   6.504  12.322   8.533
55992SOL    HW269816   6.548  12.460   8.491
55993SOL     OW69817   6.840   8.708   4.343
55993SOL    HW169818   6.863   8.799   4.360
55993SOL    HW269819   6.924   8.662   4.343
55994SOL     OW69820   8.918   0.108   4.175
55994SOL    HW169821   8.949   0.152   4.096
55994SOL    HW269822   8.964   0.152   4.246
55995SOL     OW69823  14.148  11.446   2.642
55995SOL    HW169824  14.201  11.526   2.630
55995SOL    HW269825  14.109  11.431   2.556
55996SOL     OW69826  10.177  10.150   2.169
55996SOL    HW169827  10.180  10.060   2.201
55996SOL    HW269828  10.084  10.167   2.153
55997SOL     OW69829   4.722  11.822  12.140
55997SOL    HW169830   4.692  11.871  12.216
55997SOL    HW269831   4.815  11.843  12.133
55998SOL     OW69832  10.532   3.228  10.278
55998SOL    HW169833  10.464   3.290  10.304
55998SOL    HW269834  10.549   3.177  10.357
55999SOL     OW69835   5.954  11.927  13.192
55999SOL    HW169836   5.868  11.969  13.190
55999SOL    HW269837   6.001  11.973  13.261
56000SOL     OW69838  11.583  13.645   0.496
56000SOL    HW169839  11.517  13.611   0.556
56000SOL    HW269840  11.563  13.602   0.413
56001SOL     OW69841  11.978   3.137  12.350
56001SOL    HW169842  12.051   3.129  12.412
56001SOL    HW269843  11.909   3.180  12.400
56002SOL     OW69844  13.552  13.883  11.864
56002SOL    HW169845  13.645  13.864  11.857
56002SOL    HW269846  13.548  13.973  11.895
56003SOL     OW69847   6.519   2.822  11.721
56003SOL    HW169848   6.435   2.843  11.760
56003SOL    HW269849   6.559   2.759  11.781
56004SOL     OW69850  14.752   2.494   4.379
56004SOL    HW169851  14.690   2.566   4.374
56004SOL    HW269852  14.705   2.424   4.423
56005SOL     OW69853   4.006   8.354   9.792
56005SOL    HW169854   4.073   8.286   9.795
56005SOL    HW269855   4.043   8.421   9.734
56006SOL     OW69856  13.377  11.318   6.032
56006SOL    HW169857  13.295  11.305   6.081
56006SOL    HW269858  13.422  11.234   6.040
56007SOL     OW69859  14.019   4.726   2.448
56007SOL    HW169860  14.080   4.769   2.508
56007SOL    HW269861  14.072   4.703   2.372
56008SOL     OW69862   5.776  13.866   2.547
56008SOL    HW169863   5.842  13.935   2.555
56008SOL    HW269864   5.744  13.854   2.636
56009SOL     OW69865  13.594   2.321   9.147
56009SOL    HW169866  13.553   2.408   9.144
56009SOL    HW269867  13.687   2.338   9.136
56010SOL     OW69868   5.830   5.247   7.205
56010SOL    HW169869   5.813   5.335   7.172
56010SOL    HW269870   5.750   5.223   7.251
56011SOL     OW69871   5.651   5.218   9.604
56011SOL    HW169872   5.718   5.187   9.543
56011SOL    HW269873   5.577   5.243   9.548
56012SOL     OW69874   3.147  13.941  11.916
56012SOL    HW169875   3.165  14.035  11.922
56012SOL    HW269876   3.052  13.935  11.923
56013SOL     OW69877  10.648   5.185   9.531
56013SOL    HW169878  10.684   5.188   9.442
56013SOL    HW269879  10.585   5.257   9.533
56014SOL     OW69880   9.773   4.415   0.316
56014SOL    HW169881   9.685   4.403   0.353
56014SOL    HW269882   9.760   4.474   0.242
56015SOL     OW69883  10.721  13.310   5.060
56015SOL    HW169884  10.756  13.220   5.062
56015SOL    HW269885  10.797  13.364   5.037
56016SOL     OW69886   7.444   2.580   9.379
56016SOL    HW169887   7.521   2.539   9.418
56016SOL    HW269888   7.479   2.643   9.316
56017SOL     OW69889  14.393   3.930  11.166
56017SOL    HW169890  14.399   3.947  11.260
56017SOL    HW269891  14.389   4.017  11.127
56018SOL     OW69892   9.882   4.803  11.702
56018SOL    HW169893   9.870   4.849  11.785
56018SOL    HW269894   9.852   4.714  11.720
56019SOL     OW69895   4.072   0.103   0.863
56019SOL    HW169896   4.075   0.182   0.810
56019SOL    HW269897   4.100   0.033   0.804
56020SOL     OW69898   6.023   9.153   2.418
56020SOL    HW169899   5.981   9.233   2.451
56020SOL    HW269900   6.069   9.181   2.339
56021SOL     OW69901  12.578   5.128   2.456
56021SOL    HW169902  12.523   5.085   2.390
56021SOL    HW269903  12.657   5.153   2.409
56022SOL     OW69904   4.839   5.676   1.326
56022SOL    HW169905   4.882   5.635   1.401
56022SOL    HW269906   4.793   5.752   1.362
56023SOL     OW69907   9.562  12.137   0.604
56023SOL    HW169908   9.568  12.078   0.679
56023SOL    HW269909   9.651  12.142   0.570
56024SOL     OW69910  14.506   1.985   9.901
56024SOL    HW169911  14.533   2.075   9.889
56024SOL    HW269912  14.418   1.981   9.864
56025SOL     OW69913   6.530   7.076   8.690
56025SOL    HW169914   6.554   6.986   8.710
56025SOL    HW269915   6.435   7.074   8.681
56026SOL     OW69916   4.711  10.240  14.793
56026SOL    HW169917   4.775  10.171  14.810
56026SOL    HW269918   4.647  10.200  14.735
56027SOL     OW69919   3.590   5.798   4.614
56027SOL    HW169920   3.655   5.782   4.682
56027SOL    HW269921   3.575   5.892   4.616
56028SOL     OW69922  11.170   5.379   9.018
56028SOL    HW169923  11.189   5.318   9.089
56028SOL    HW269924  11.256   5.408   8.988
56029SOL     OW69925   9.665   3.639  11.168
56029SOL    HW169926   9.697   3.727  11.147
56029SOL    HW269927   9.613   3.614  11.093
56030SOL     OW69928  11.744   1.384   7.257
56030SOL    HW169929  11.677   1.412   7.319
56030SOL    HW269930  11.747   1.454   7.191
56031SOL     OW69931  12.205  13.571  12.232
56031SOL    HW169932  12.282  13.519  12.257
56031SOL    HW269933  12.224  13.601  12.143
56032SOL     OW69934   9.037   4.113  10.068
56032SOL    HW169935   9.013   4.151  10.153
56032SOL    HW269936   9.111   4.056  10.087
56033SOL     OW69937  13.876   3.533   5.773
56033SOL    HW169938  13.918   3.618   5.787
56033SOL    HW269939  13.785   3.547   5.797
56034SOL     OW69940   3.510   5.925   5.825
56034SOL    HW169941   3.594   5.892   5.793
56034SOL    HW269942   3.504   6.013   5.789
56035SOL     OW69943  14.852  10.087   2.766
56035SOL    HW169944   0.022  10.159   2.724
56035SOL    HW269945   0.014  10.008   2.728
56036SOL     OW69946   8.232   3.097  11.575
56036SOL    HW169947   8.325   3.091  11.596
56036SOL    HW269948   8.189   3.054  11.649
56037SOL     OW69949  11.225  11.696   0.634
56037SOL    HW169950  11.279  11.704   0.713
56037SOL    HW269951  11.285  11.664   0.567
56038SOL     OW69952  10.774   6.572   5.803
56038SOL    HW169953  10.699   6.538   5.753
56038SOL    HW269954  10.737   6.594   5.888
56039SOL     OW69955  11.490  12.027   5.121
56039SOL    HW169956  11.577  12.065   5.106
56039SOL    HW269957  11.493  11.995   5.211
56040SOL     OW69958  14.869   5.058   9.605
56040SOL    HW169959  14.831   4.978   9.641
56040SOL    HW269960  14.848   5.055   9.512
56041SOL     OW69961   9.285   2.996   1.639
56041SOL    HW169962   9.318   2.916   1.598
56041SOL    HW269963   9.363   3.049   1.654
56042SOL     OW69964   0.510   9.425   1.279
56042SOL    HW169965   0.475   9.513   1.265
56042SOL    HW269966   0.507   9.384   1.193
56043SOL     OW69967   3.150  10.588   6.285
56043SOL    HW169968   3.134  10.512   6.342
56043SOL    HW269969   3.245  10.593   6.279
56044SOL     OW69970   8.260   7.501   5.711
56044SOL    HW169971   8.306   7.522   5.793
56044SOL    HW269972   8.193   7.438   5.737
56045SOL     OW69973   3.350   7.665   9.168
56045SOL    HW169974   3.402   7.587   9.149
56045SOL    HW269975   3.315   7.649   9.256
56046SOL     OW69976   4.198   2.997   8.420
56046SOL    HW169977   4.207   2.920   8.363
56046SOL    HW269978   4.179   3.069   8.360
56047SOL     OW69979   6.280   5.304  13.488
56047SOL    HW169980   6.201   5.355  13.474
56047SOL    HW269981   6.331   5.316  13.408
56048SOL     OW69982   8.582   7.633  13.802
56048SOL    HW169983   8.515   7.605  13.740
56048SOL    HW269984   8.627   7.705  13.758
56049SOL     OW69985   0.568   7.090   1.292
56049SOL    HW169986   0.487   7.137   1.309
56049SOL    HW269987   0.544   6.998   1.304
56050SOL     OW69988   8.754   4.900   0.722
56050SOL    HW169989   8.684   4.854   0.769
56050SOL    HW269990   8.739   4.878   0.630
56051SOL     OW69991   8.950  12.392  10.113
56051SOL    HW169992   8.968  12.428  10.027
56051SOL    HW269993   8.962  12.466  10.173
56052SOL     OW69994  12.252   4.658   2.210
56052SOL    HW169995  12.186   4.598   2.175
56052SOL    HW269996  12.202   4.722   2.260
56053SOL     OW69997  10.969  11.371  13.755
56053SOL    HW169998  11.006  11.444  13.704
56053SOL    HW269999  10.881  11.360  13.720
56054SOL     OW70000   4.232   0.852  12.936
56054SOL    HW170001   4.217   0.790  12.865
56054SOL    HW270002   4.146   0.890  12.954
56055SOL     OW70003   8.059  13.535  11.224
56055SOL    HW170004   8.106  13.571  11.300
56055SOL    HW270005   8.127  13.518  11.159
56056SOL     OW70006   4.716   5.282   9.557
56056SOL    HW170007   4.741   5.368   9.522
56056SOL    HW270008   4.761   5.277   9.641
56057SOL     OW70009   9.453   5.236   9.145
56057SOL    HW170010   9.382   5.280   9.097
56057SOL    HW270011   9.409   5.196   9.220
56058SOL     OW70012   6.589   6.635  10.226
56058SOL    HW170013   6.509   6.673  10.189
56058SOL    HW270014   6.631   6.591  10.152
56059SOL     OW70015   7.162   1.568   9.600
56059SOL    HW170016   7.117   1.645   9.564
56059SOL    HW270017   7.235   1.552   9.540
56060SOL     OW70018   1.454  14.673   3.490
56060SOL    HW170019   1.525  14.706   3.435
56060SOL    HW270020   1.484  14.691   3.580
56061SOL     OW70021   0.489  11.287   4.706
56061SOL    HW170022   0.449  11.293   4.793
56061SOL    HW270023   0.578  11.256   4.722
56062SOL     OW70024   7.011   7.319   4.821
56062SOL    HW170025   7.047   7.295   4.735
56062SOL    HW270026   6.957   7.244   4.845
56063SOL     OW70027   3.543   2.992  12.492
56063SOL    HW170028   3.531   3.007  12.398
56063SOL    HW270029   3.455   2.978  12.526
56064SOL     OW70030  14.607  11.592  10.245
56064SOL    HW170031  14.550  11.536  10.298
56064SOL    HW270032  14.692  11.588  10.289
56065SOL     OW70033   0.293   9.381  12.351
56065SOL    HW170034   0.283   9.292  12.385
56065SOL    HW270035   0.247   9.380  12.267
56066SOL     OW70036   7.425   0.088   4.154
56066SOL    HW170037   7.450   0.032   4.227
56066SOL    HW270038   7.503   0.092   4.099
56067SOL     OW70039  10.630  13.027  14.317
56067SOL    HW170040  10.605  13.090  14.250
56067SOL    HW270041  10.630  13.077  14.398
56068SOL     OW70042   6.431   4.579   7.725
56068SOL    HW170043   6.347   4.588   7.768
56068SOL    HW270044   6.410   4.568   7.632
56069SOL     OW70045   4.442   5.119  13.990
56069SOL    HW170046   4.404   5.091  14.073
56069SOL    HW270047   4.373   5.170  13.948
56070SOL     OW70048   7.352  11.500  13.506
56070SOL    HW170049   7.265  11.535  13.528
56070SOL    HW270050   7.408  11.530  13.577
56071SOL     OW70051   3.622  11.265   5.159
56071SOL    HW170052   3.716  11.258   5.142
56071SOL    HW270053   3.591  11.175   5.153
56072SOL     OW70054   9.137   4.039  12.858
56072SOL    HW170055   9.088   4.105  12.907
56072SOL    HW270056   9.204   4.007  12.919
56073SOL     OW70057   5.122  12.835   7.751
56073SOL    HW170058   5.156  12.783   7.824
56073SOL    HW270059   5.030  12.811   7.745
56074SOL     OW70060   8.935   9.104   7.563
56074SOL    HW170061   9.021   9.134   7.535
56074SOL    HW270062   8.894   9.182   7.602
56075SOL     OW70063  12.328  10.677  14.585
56075SOL    HW170064  12.279  10.683  14.503
56075SOL    HW270065  12.326  10.584  14.607
56076SOL     OW70066  12.630  11.942  11.093
56076SOL    HW170067  12.716  11.984  11.093
56076SOL    HW270068  12.643  11.861  11.142
56077SOL     OW70069   4.702  14.401  13.697
56077SOL    HW170070   4.617  14.362  13.721
56077SOL    HW270071   4.737  14.342  13.630
56078SOL     OW70072   8.766   6.169   1.580
56078SOL    HW170073   8.726   6.122   1.506
56078SOL    HW270074   8.843   6.117   1.603
56079SOL     OW70075   5.997  13.305   3.260
56079SOL    HW170076   5.936  13.239   3.228
56079SOL    HW270077   6.071  13.254   3.294
56080SOL     OW70078   1.187  10.885   0.168
56080SOL    HW170079   1.154  10.848   0.250
56080SOL    HW270080   1.190  10.810   0.108
56081SOL     OW70081   1.618   0.549  12.164
56081SOL    HW170082   1.710   0.548  12.190
56081SOL    HW270083   1.612   0.617  12.097
56082SOL     OW70084   8.544   1.134   5.348
56082SOL    HW170085   8.502   1.107   5.266
56082SOL    HW270086   8.480   1.113   5.416
56083SOL     OW70087   9.785  12.189  14.179
56083SOL    HW170088   9.788  12.161  14.270
56083SOL    HW270089   9.801  12.108  14.129
56084SOL     OW70090   4.669   2.579  11.663
56084SOL    HW170091   4.666   2.675  11.666
56084SOL    HW270092   4.586   2.551  11.702
56085SOL     OW70093   6.622  14.217   9.351
56085SOL    HW170094   6.539  14.262   9.339
56085SOL    HW270095   6.657  14.251   9.433
56086SOL     OW70096   3.223   3.379  12.414
56086SOL    HW170097   3.157   3.314  12.437
56086SOL    HW270098   3.288   3.373  12.484
56087SOL     OW70099   5.077   7.731  10.302
56087SOL    HW170100   4.989   7.763  10.324
56087SOL    HW270101   5.085   7.650  10.353
56088SOL     OW70102   3.514   6.646   4.130
56088SOL    HW170103   3.487   6.734   4.101
56088SOL    HW270104   3.609   6.653   4.139
56089SOL     OW70105   4.318   2.821   4.651
56089SOL    HW170106   4.228   2.800   4.626
56089SOL    HW270107   4.345   2.888   4.588
56090SOL     OW70108   6.054  13.257   4.016
56090SOL    HW170109   5.975  13.257   3.962
56090SOL    HW270110   6.072  13.165   4.034
56091SOL     OW70111   3.827  13.147   4.938
56091SOL    HW170112   3.746  13.191   4.913
56091SOL    HW270113   3.803  13.090   5.010
56092SOL     OW70114   2.832   8.922  14.215
56092SOL    HW170115   2.897   8.879  14.271
56092SOL    HW270116   2.830   9.013  14.246
56093SOL     OW70117   9.510   1.801  10.855
56093SOL    HW170118   9.462   1.833  10.779
56093SOL    HW270119   9.458   1.830  10.930
56094SOL     OW70120   0.423   1.487   9.418
56094SOL    HW170121   0.494   1.449   9.367
56094SOL    HW270122   0.392   1.560   9.364
56095SOL     OW70123   1.431  14.027  12.436
56095SOL    HW170124   1.469  13.939  12.446
56095SOL    HW270125   1.419  14.038  12.342
56096SOL     OW70126   2.065   9.527  13.882
56096SOL    HW170127   2.117   9.543  13.961
56096SOL    HW270128   2.117   9.566  13.811
56097SOL     OW70129   1.299  14.813   5.823
56097SOL    HW170130   1.262  14.849   5.742
56097SOL    HW270131   1.225  14.809   5.884
56098SOL     OW70132  10.598  13.134   8.966
56098SOL    HW170133  10.633  13.083   8.893
56098SOL    HW270134  10.575  13.069   9.032
56099SOL     OW70135   7.391  13.916  10.753
56099SOL    HW170136   7.484  13.895  10.766
56099SOL    HW270137   7.375  13.894  10.661
56100SOL     OW70138  12.717   2.649   5.563
56100SOL    HW170139  12.796   2.614   5.605
56100SOL    HW270140  12.671   2.572   5.531
56101SOL     OW70141  14.119   4.023   8.997
56101SOL    HW170142  14.048   4.081   9.026
56101SOL    HW270143  14.177   4.079   8.945
56102SOL     OW70144   6.723   2.595   6.601
56102SOL    HW170145   6.729   2.605   6.506
56102SOL    HW270146   6.631   2.574   6.617
56103SOL     OW70147  11.761   4.177   7.715
56103SOL    HW170148  11.703   4.103   7.700
56103SOL    HW270149  11.703   4.247   7.746
56104SOL     OW70150   4.308   2.658  13.209
56104SOL    HW170151   4.386   2.644  13.263
56104SOL    HW270152   4.234   2.650  13.270
56105SOL     OW70153  10.095   2.159   9.659
56105SOL    HW170154  10.061   2.248   9.660
56105SOL    HW270155  10.168   2.162   9.597
56106SOL     OW70156  12.642   9.721   7.595
56106SOL    HW170157  12.600   9.643   7.631
56106SOL    HW270158  12.648   9.782   7.668
56107SOL     OW70159   4.451  10.900   8.929
56107SOL    HW170160   4.412  10.985   8.911
56107SOL    HW270161   4.443  10.890   9.024
56108SOL     OW70162   4.741   6.581   4.650
56108SOL    HW170163   4.797   6.560   4.725
56108SOL    HW270164   4.774   6.525   4.579
56109SOL     OW70165   0.990   3.365  11.978
56109SOL    HW170166   0.922   3.328  12.034
56109SOL    HW270167   1.053   3.404  12.039
56110SOL     OW70168  13.264   1.819   2.435
56110SOL    HW170169  13.175   1.784   2.439
56110SOL    HW270170  13.257   1.896   2.379
56111SOL     OW70171   8.537  10.640  11.366
56111SOL    HW170172   8.482  10.602  11.297
56111SOL    HW270173   8.580  10.714  11.324
56112SOL     OW70174   0.247  10.498   8.794
56112SOL    HW170175   0.152  10.504   8.807
56112SOL    HW270176   0.274  10.423   8.848
56113SOL     OW70177   2.293   8.887   0.116
56113SOL    HW170178   2.305   8.830   0.041
56113SOL    HW270179   2.213   8.936   0.096
56114SOL     OW70180   3.526  13.297   5.721
56114SOL    HW170181   3.510  13.380   5.767
56114SOL    HW270182   3.592  13.318   5.656
56115SOL     OW70183   3.028  13.683   8.613
56115SOL    HW170184   3.087  13.670   8.688
56115SOL    HW270185   2.953  13.729   8.651
56116SOL     OW70186  12.362  11.880  14.863
56116SOL    HW170187  12.397  11.934  14.792
56116SOL    HW270188  12.420  11.804  14.867
56117SOL     OW70189   5.952   7.023   3.820
56117SOL    HW170190   5.874   7.078   3.825
56117SOL    HW270191   5.998   7.039   3.902
56118SOL     OW70192   8.735  14.187   6.075
56118SOL    HW170193   8.680  14.257   6.110
56118SOL    HW270194   8.692  14.161   5.993
56119SOL     OW70195   2.204  14.669   7.456
56119SOL    HW170196   2.244  14.585   7.480
56119SOL    HW270197   2.262  14.703   7.387
56120SOL     OW70198  12.236   0.829  11.300
56120SOL    HW170199  12.311   0.784  11.340
56120SOL    HW270200  12.266   0.852  11.212
56121SOL     OW70201   8.622  13.380  13.966
56121SOL    HW170202   8.608  13.413  14.054
56121SOL    HW270203   8.541  13.333  13.945
56122SOL     OW70204   9.065   3.285  14.658
56122SOL    HW170205   9.110   3.322  14.582
56122SOL    HW270206   9.125   3.218  14.691
56123SOL     OW70207   6.989  10.910   3.603
56123SOL    HW170208   7.038  10.873   3.677
56123SOL    HW270209   6.989  10.840   3.537
56124SOL     OW70210   0.942  14.660  14.700
56124SOL    HW170211   0.945  14.595  14.629
56124SOL    HW270212   1.028  14.653  14.742
56125SOL     OW70213  14.350   5.835   5.301
56125SOL    HW170214  14.323   5.867   5.388
56125SOL    HW270215  14.351   5.740   5.310
56126SOL     OW70216   9.688   5.151   6.035
56126SOL    HW170217   9.611   5.195   6.071
56126SOL    HW270218   9.679   5.163   5.940
56127SOL     OW70219  12.403   1.662   3.946
56127SOL    HW170220  12.413   1.567   3.939
56127SOL    HW270221  12.329   1.674   4.006
56128SOL     OW70222   0.352   6.488   4.414
56128SOL    HW170223   0.381   6.560   4.470
56128SOL    HW270224   0.397   6.503   4.331
56129SOL     OW70225   7.768   5.328   0.704
56129SOL    HW170226   7.740   5.394   0.640
56129SOL    HW270227   7.690   5.275   0.720
56130SOL     OW70228   0.194   1.226   9.023
56130SOL    HW170229   0.173   1.154   8.964
56130SOL    HW270230   0.214   1.183   9.107
56131SOL     OW70231   6.148  14.315   1.900
56131SOL    HW170232   6.058  14.306   1.931
56131SOL    HW270233   6.150  14.401   1.858
56132SOL     OW70234   9.238  11.780  12.748
56132SOL    HW170235   9.293  11.779  12.826
56132SOL    HW270236   9.155  11.740  12.776
56133SOL     OW70237   1.702   2.200  10.754
56133SOL    HW170238   1.683   2.291  10.729
56133SOL    HW270239   1.650   2.148  10.693
56134SOL     OW70240   1.196   2.652   0.138
56134SOL    HW170241   1.126   2.708   0.105
56134SOL    HW270242   1.160   2.563   0.132
56135SOL     OW70243  10.182  14.388   6.295
56135SOL    HW170244  10.242  14.455   6.262
56135SOL    HW270245  10.117  14.437   6.345
56136SOL     OW70246   2.786  13.939   7.620
56136SOL    HW170247   2.796  14.034   7.614
56136SOL    HW270248   2.814  13.918   7.709
56137SOL     OW70249   5.786  11.441  14.465
56137SOL    HW170250   5.872  11.417  14.500
56137SOL    HW270251   5.756  11.362  14.419
56138SOL     OW70252  10.840   0.825   6.385
56138SOL    HW170253  10.911   0.877   6.350
56138SOL    HW270254  10.841   0.843   6.479
56139SOL     OW70255  11.956  13.906   1.166
56139SOL    HW170256  12.048  13.933   1.154
56139SOL    HW270257  11.935  13.933   1.255
56140SOL     OW70258   4.008  13.940   6.839
56140SOL    HW170259   4.020  13.873   6.906
56140SOL    HW270260   4.033  13.896   6.757
56141SOL     OW70261   8.598  14.130   0.713
56141SOL    HW170262   8.610  14.036   0.726
56141SOL    HW270263   8.682  14.169   0.737
56142SOL     OW70264   1.123   4.545  11.030
56142SOL    HW170265   1.145   4.466  11.080
56142SOL    HW270266   1.202   4.599  11.034
56143SOL     OW70267   4.708   2.221  11.580
56143SOL    HW170268   4.770   2.210  11.652
56143SOL    HW270269   4.747   2.171  11.508
56144SOL     OW70270   8.500   7.402  10.736
56144SOL    HW170271   8.560   7.346  10.785
56144SOL    HW270272   8.515   7.490  10.772
56145SOL     OW70273  10.455  13.873   5.896
56145SOL    HW170274  10.405  13.804   5.853
56145SOL    HW270275  10.409  13.888   5.979
56146SOL     OW70276   1.920   5.798   8.300
56146SOL    HW170277   1.952   5.788   8.211
56146SOL    HW270278   1.918   5.708   8.335
56147SOL     OW70279   4.510   2.321   3.407
56147SOL    HW170280   4.491   2.236   3.368
56147SOL    HW270281   4.535   2.377   3.334
56148SOL     OW70282   8.189  14.065   0.421
56148SOL    HW170283   8.276  14.066   0.380
56148SOL    HW270284   8.143  13.992   0.379
56149SOL     OW70285  10.142   3.707  12.260
56149SOL    HW170286  10.179   3.649  12.327
56149SOL    HW270287  10.131   3.791  12.305
56150SOL     OW70288   9.356  11.759   9.029
56150SOL    HW170289   9.398  11.843   9.013
56150SOL    HW270290   9.355  11.716   8.944
56151SOL     OW70291   1.246  12.263   0.707
56151SOL    HW170292   1.240  12.168   0.710
56151SOL    HW270293   1.340  12.281   0.707
56152SOL     OW70294  10.228   0.684   2.713
56152SOL    HW170295  10.303   0.729   2.752
56152SOL    HW270296  10.166   0.673   2.786
56153SOL     OW70297  12.466  12.190  13.539
56153SOL    HW170298  12.475  12.112  13.594
56153SOL    HW270299  12.464  12.263  13.601
56154SOL     OW70300  11.419   9.698   6.216
56154SOL    HW170301  11.427   9.603   6.205
56154SOL    HW270302  11.505   9.726   6.249
56155SOL     OW70303   9.027  14.157   3.051
56155SOL    HW170304   9.080  14.170   2.972
56155SOL    HW270305   9.037  14.239   3.100
56156SOL     OW70306   0.274   9.628   3.195
56156SOL    HW170307   0.333   9.642   3.269
56156SOL    HW270308   0.213   9.701   3.198
56157SOL     OW70309  13.132  12.317  14.051
56157SOL    HW170310  13.175  12.389  14.099
56157SOL    HW270311  13.185  12.305  13.973
56158SOL     OW70312   1.652   6.201  14.196
56158SOL    HW170313   1.672   6.196  14.102
56158SOL    HW270314   1.604   6.120  14.214
56159SOL     OW70315   8.490   0.308  12.606
56159SOL    HW170316   8.519   0.342  12.691
56159SOL    HW270317   8.395   0.299  12.616
56160SOL     OW70318  14.463  13.627  14.792
56160SOL    HW170319  14.443  13.591   0.001
56160SOL    HW270320  14.498  13.553  14.742
56161SOL     OW70321   4.095  13.555   9.540
56161SOL    HW170322   4.161  13.589   9.599
56161SOL    HW270323   4.144  13.503   9.476
56162SOL     OW70324   9.681   3.585   6.020
56162SOL    HW170325   9.653   3.664   6.066
56162SOL    HW270326   9.759   3.611   5.971
56163SOL     OW70327   5.931   9.842  11.065
56163SOL    HW170328   5.938   9.874  10.975
56163SOL    HW270329   5.957   9.750  11.060
56164SOL     OW70330   9.448  12.529  12.937
56164SOL    HW170331   9.456  12.440  12.903
56164SOL    HW270332   9.364  12.530  12.981
56165SOL     OW70333   5.297  10.299  14.070
56165SOL    HW170334   5.315  10.214  14.111
56165SOL    HW270335   5.360  10.358  14.111
56166SOL     OW70336   3.437   5.412   1.318
56166SOL    HW170337   3.516   5.359   1.310
56166SOL    HW270338   3.468   5.498   1.345
56167SOL     OW70339   7.187  11.667  10.197
56167SOL    HW170340   7.171  11.654  10.291
56167SOL    HW270341   7.281  11.651  10.187
56168SOL     OW70342   2.906   0.294   9.014
56168SOL    HW170343   2.910   0.249   8.929
56168SOL    HW270344   2.879   0.383   8.992
56169SOL     OW70345  14.706   8.698  10.834
56169SOL    HW170346  14.771   8.742  10.889
56169SOL    HW270347  14.715   8.739  10.748
56170SOL     OW70348   9.454  11.270   1.756
56170SOL    HW170349   9.415  11.342   1.806
56170SOL    HW270350   9.527  11.241   1.810
56171SOL     OW70351   6.825  10.640   1.691
56171SOL    HW170352   6.880  10.713   1.663
56171SOL    HW270353   6.834  10.637   1.786
56172SOL     OW70354   4.949  13.967   6.462
56172SOL    HW170355   4.993  13.976   6.377
56172SOL    HW270356   5.013  13.923   6.517
56173SOL     OW70357   5.285   0.048   6.793
56173SOL    HW170358   5.255   0.021   6.879
56173SOL    HW270359   5.233   0.125   6.772
56174SOL     OW70360  14.286  12.586   4.361
56174SOL    HW170361  14.210  12.644   4.356
56174SOL    HW270362  14.327  12.592   4.275
56175SOL     OW70363   6.022   2.211   7.110
56175SOL    HW170364   5.932   2.181   7.121
56175SOL    HW270365   6.072   2.132   7.093
56176SOL     OW70366   9.556  11.669   2.905
56176SOL    HW170367   9.498  11.708   2.970
56176SOL    HW270368   9.581  11.584   2.942
56177SOL     OW70369   3.025  12.282   2.346
56177SOL    HW170370   2.954  12.243   2.397
56177SOL    HW270371   2.983  12.309   2.264
56178SOL     OW70372   5.032  10.625  10.866
56178SOL    HW170373   4.937  10.638  10.866
56178SOL    HW270374   5.046  10.546  10.918
56179SOL     OW70375   8.760   2.527   3.086
56179SOL    HW170376   8.666   2.516   3.068
56179SOL    HW270377   8.764   2.592   3.156
56180SOL     OW70378   5.486   0.487  10.491
56180SOL    HW170379   5.554   0.431  10.530
56180SOL    HW270380   5.490   0.568  10.542
56181SOL     OW70381   8.085  12.192   3.035
56181SOL    HW170382   8.059  12.103   3.010
56181SOL    HW270383   8.160  12.179   3.093
56182SOL     OW70384   6.575   0.887  14.874
56182SOL    HW170385   6.594   0.979   0.019
56182SOL    HW270386   6.659   0.849  14.853
56183SOL     OW70387   1.569   3.899   2.533
56183SOL    HW170388   1.555   3.984   2.574
56183SOL    HW270389   1.519   3.837   2.586
56184SOL     OW70390  12.969   4.029   5.699
56184SOL    HW170391  12.889   4.015   5.648
56184SOL    HW270392  13.016   4.097   5.650
56185SOL     OW70393   7.989   7.132  11.682
56185SOL    HW170394   8.059   7.161  11.740
56185SOL    HW270395   8.014   7.166  11.596
56186SOL     OW70396   9.824   5.422   2.653
56186SOL    HW170397   9.756   5.404   2.718
56186SOL    HW270398   9.906   5.416   2.702
56187SOL     OW70399   0.353   6.715  13.447
56187SOL    HW170400   0.335   6.714  13.541
56187SOL    HW270401   0.446   6.693  13.441
56188SOL     OW70402   1.819   9.298   7.441
56188SOL    HW170403   1.846   9.382   7.479
56188SOL    HW270404   1.786   9.247   7.515
56189SOL     OW70405   7.000   5.474  10.479
56189SOL    HW170406   7.037   5.529  10.411
56189SOL    HW270407   7.009   5.385  10.447
56190SOL     OW70408   1.818   5.585  13.909
56190SOL    HW170409   1.811   5.558  14.000
56190SOL    HW270410   1.898   5.543  13.877
56191SOL     OW70411  13.176   8.790   5.839
56191SOL    HW170412  13.136   8.788   5.926
56191SOL    HW270413  13.146   8.709   5.797
56192SOL     OW70414  12.983   0.218   6.206
56192SOL    HW170415  13.065   0.220   6.158
56192SOL    HW270416  12.927   0.158   6.157
56193SOL     OW70417   1.628   4.384  14.521
56193SOL    HW170418   1.615   4.453  14.586
56193SOL    HW270419   1.696   4.328  14.559
56194SOL     OW70420   9.524   4.241   4.291
56194SOL    HW170421   9.584   4.186   4.240
56194SOL    HW270422   9.452   4.258   4.231
56195SOL     OW70423   0.167   1.433   5.131
56195SOL    HW170424   0.225   1.409   5.060
56195SOL    HW270425   0.102   1.491   5.092
56196SOL     OW70426   5.976  11.025   3.836
56196SOL    HW170427   6.020  10.944   3.808
56196SOL    HW270428   6.022  11.094   3.788
56197SOL     OW70429   4.297   0.904   5.335
56197SOL    HW170430   4.326   0.842   5.269
56197SOL    HW270431   4.253   0.851   5.401
56198SOL     OW70432   6.814  14.291  12.361
56198SOL    HW170433   6.747  14.335  12.309
56198SOL    HW270434   6.897  14.321  12.323
56199SOL     OW70435  14.860  14.669   8.510
56199SOL    HW170436  14.831  14.631   8.593
56199SOL    HW270437  14.862  14.596   8.448
56200SOL     OW70438   7.542   7.874  12.425
56200SOL    HW170439   7.606   7.900  12.358
56200SOL    HW270440   7.458   7.876  12.379
56201SOL     OW70441   7.506  13.671  10.075
56201SOL    HW170442   7.564  13.692  10.148
56201SOL    HW270443   7.418  13.694  10.107
56202SOL     OW70444   6.328   5.756   3.295
56202SOL    HW170445   6.303   5.788   3.208
56202SOL    HW270446   6.297   5.823   3.355
56203SOL     OW70447  13.853   3.567   1.361
56203SOL    HW170448  13.890   3.598   1.279
56203SOL    HW270449  13.773   3.521   1.336
56204SOL     OW70450   9.265   7.287  12.746
56204SOL    HW170451   9.225   7.307  12.831
56204SOL    HW270452   9.202   7.228  12.704
56205SOL     OW70453  14.368   8.422  13.374
56205SOL    HW170454  14.321   8.455  13.298
56205SOL    HW270455  14.439   8.485  13.388
56206SOL     OW70456   0.162   2.040   5.731
56206SOL    HW170457   0.257   2.054   5.722
56206SOL    HW270458   0.124   2.099   5.665
56207SOL     OW70459  14.825   9.771  14.321
56207SOL    HW170460   0.042   9.781  14.338
56207SOL    HW270461  14.787   9.754  14.406
56208SOL     OW70462  10.581  10.318   7.926
56208SOL    HW170463  10.590  10.289   8.017
56208SOL    HW270464  10.620  10.405   7.925
56209SOL     OW70465   2.244   4.994  13.342
56209SOL    HW170466   2.245   5.071  13.285
56209SOL    HW270467   2.300   4.931  13.297
56210SOL     OW70468   9.571   5.768   2.106
56210SOL    HW170469   9.523   5.848   2.088
56210SOL    HW270470   9.582   5.727   2.020
56211SOL     OW70471   9.725   0.615  14.771
56211SOL    HW170472   9.764   0.646  14.853
56211SOL    HW270473   9.715   0.521  14.784
56212SOL     OW70474   5.988   7.505   7.195
56212SOL    HW170475   6.079   7.513   7.224
56212SOL    HW270476   5.983   7.420   7.152
56213SOL     OW70477  12.173  10.899  10.628
56213SOL    HW170478  12.081  10.871  10.624
56213SOL    HW270479  12.217  10.832  10.681
56214SOL     OW70480  14.575   1.071   0.669
56214SOL    HW170481  14.579   1.049   0.576
56214SOL    HW270482  14.616   0.996   0.713
56215SOL     OW70483  14.662  10.476   8.659
56215SOL    HW170484  14.593  10.471   8.725
56215SOL    HW270485  14.628  10.537   8.594
56216SOL     OW70486   9.624   9.850   1.911
56216SOL    HW170487   9.672   9.768   1.910
56216SOL    HW270488   9.654   9.896   1.832
56217SOL     OW70489   4.791   2.010   8.003
56217SOL    HW170490   4.857   2.041   7.941
56217SOL    HW270491   4.785   2.079   8.069
56218SOL     OW70492   5.135  11.660   4.051
56218SOL    HW170493   5.143  11.576   4.095
56218SOL    HW270494   5.188  11.651   3.972
56219SOL     OW70495   9.277  14.590   5.235
56219SOL    HW170496   9.312  14.502   5.251
56219SOL    HW270497   9.216  14.579   5.163
56220SOL     OW70498   2.018   4.272   8.581
56220SOL    HW170499   2.023   4.177   8.594
56220SOL    HW270500   2.100   4.295   8.537
56221SOL     OW70501   9.159   0.445   8.734
56221SOL    HW170502   9.146   0.350   8.744
56221SOL    HW270503   9.177   0.476   8.823
56222SOL     OW70504   5.544   3.198   8.874
56222SOL    HW170505   5.617   3.260   8.868
56222SOL    HW270506   5.466   3.251   8.856
56223SOL     OW70507   0.309   4.652   4.779
56223SOL    HW170508   0.224   4.674   4.815
56223SOL    HW270509   0.367   4.722   4.808
56224SOL     OW70510   6.086   8.753   1.208
56224SOL    HW170511   6.132   8.837   1.211
56224SOL    HW270512   6.146   8.691   1.250
56225SOL     OW70513  14.570   7.568   7.953
56225SOL    HW170514  14.540   7.650   7.993
56225SOL    HW270515  14.575   7.588   7.859
56226SOL     OW70516   1.402  12.443   2.391
56226SOL    HW170517   1.348  12.369   2.365
56226SOL    HW270518   1.401  12.441   2.487
56227SOL     OW70519   5.480  14.013  13.478
56227SOL    HW170520   5.529  13.997  13.558
56227SOL    HW270521   5.504  14.101  13.452
56228SOL     OW70522   1.801   3.239  10.289
56228SOL    HW170523   1.883   3.288  10.285
56228SOL    HW270524   1.746   3.290  10.349
56229SOL     OW70525  12.747  12.358   4.383
56229SOL    HW170526  12.668  12.346   4.330
56229SOL    HW270527  12.809  12.402   4.325
56230SOL     OW70528   2.862  14.475   7.230
56230SOL    HW170529   2.792  14.446   7.172
56230SOL    HW270530   2.906  14.395   7.257
56231SOL     OW70531  12.634  11.511   8.488
56231SOL    HW170532  12.723  11.535   8.464
56231SOL    HW270533  12.623  11.545   8.577
56232SOL     OW70534   8.947   3.612  14.311
56232SOL    HW170535   8.886   3.547  14.347
56232SOL    HW270536   8.891   3.683  14.281
56233SOL     OW70537   1.878  13.612   3.771
56233SOL    HW170538   1.906  13.525   3.743
56233SOL    HW270539   1.804  13.596   3.830
56234SOL     OW70540  13.433   6.872  14.253
56234SOL    HW170541  13.455   6.945  14.311
56234SOL    HW270542  13.460   6.901  14.166
56235SOL     OW70543  14.399   0.893   1.313
56235SOL    HW170544  14.482   0.931   1.285
56235SOL    HW270545  14.410   0.877   1.407
56236SOL     OW70546  10.085  11.844  10.055
56236SOL    HW170547  10.052  11.827   9.967
56236SOL    HW270548  10.038  11.781  10.110
56237SOL     OW70549  13.319   5.140   9.794
56237SOL    HW170550  13.299   5.056   9.752
56237SOL    HW270551  13.235   5.185   9.798
56238SOL     OW70552   4.920   7.931   1.710
56238SOL    HW170553   4.854   7.945   1.778
56238SOL    HW270554   4.948   8.020   1.685
56239SOL     OW70555  13.434  12.950   7.793
56239SOL    HW170556  13.483  12.885   7.742
56239SOL    HW270557  13.501  13.009   7.826
56240SOL     OW70558  13.970  11.378  14.837
56240SOL    HW170559  13.875  11.381  14.831
56240SOL    HW270560  14.000  11.465  14.810
56241SOL     OW70561  11.468   6.246   5.389
56241SOL    HW170562  11.527   6.192   5.336
56241SOL    HW270563  11.437   6.186   5.457
56242SOL     OW70564  11.068   7.630  13.726
56242SOL    HW170565  11.091   7.644  13.634
56242SOL    HW270566  10.973   7.640  13.728
56243SOL     OW70567   1.968   4.757  12.992
56243SOL    HW170568   1.957   4.811  13.070
56243SOL    HW270569   1.988   4.820  12.922
56244SOL     OW70570   9.604   4.753  13.392
56244SOL    HW170571   9.653   4.681  13.354
56244SOL    HW270572   9.512   4.729  13.380
56245SOL     OW70573   4.059   2.523   5.430
56245SOL    HW170574   4.041   2.590   5.496
56245SOL    HW270575   4.085   2.446   5.480
56246SOL     OW70576   0.660  11.980  13.264
56246SOL    HW170577   0.753  11.958  13.271
56246SOL    HW270578   0.622  11.912  13.209
56247SOL     OW70579   7.750   0.801   0.685
56247SOL    HW170580   7.786   0.887   0.707
56247SOL    HW270581   7.826   0.743   0.683
56248SOL     OW70582  12.216   5.430  14.380
56248SOL    HW170583  12.239   5.399  14.468
56248SOL    HW270584  12.179   5.353  14.336
56249SOL     OW70585   6.295   2.296   1.887
56249SOL    HW170586   6.238   2.229   1.924
56249SOL    HW270587   6.321   2.350   1.962
56250SOL     OW70588   4.627  13.156  12.998
56250SOL    HW170589   4.618  13.215  13.072
56250SOL    HW270590   4.619  13.212  12.921
56251SOL     OW70591   4.960  12.581   0.200
56251SOL    HW170592   5.038  12.537   0.233
56251SOL    HW270593   4.924  12.627   0.276
56252SOL     OW70594  14.219   6.047   8.397
56252SOL    HW170595  14.312   6.067   8.390
56252SOL    HW270596  14.199   5.994   8.319
56253SOL     OW70597  12.419   3.801   6.865
56253SOL    HW170598  12.421   3.716   6.821
56253SOL    HW270599  12.448   3.783   6.954
56254SOL     OW70600   7.625  11.612   7.472
56254SOL    HW170601   7.717  11.599   7.497
56254SOL    HW270602   7.614  11.707   7.471
56255SOL     OW70603   4.826   6.001   2.860
56255SOL    HW170604   4.770   6.068   2.900
56255SOL    HW270605   4.898   6.051   2.821
56256SOL     OW70606   8.400   8.606   6.245
56256SOL    HW170607   8.419   8.694   6.280
56256SOL    HW270608   8.313   8.614   6.207
56257SOL     OW70609   2.745   1.477   8.400
56257SOL    HW170610   2.816   1.523   8.355
56257SOL    HW270611   2.722   1.535   8.473
56258SOL     OW70612   5.984   0.212   0.208
56258SOL    HW170613   6.023   0.170   0.132
56258SOL    HW270614   5.985   0.145   0.276
56259SOL     OW70615   2.264  10.222  12.432
56259SOL    HW170616   2.291  10.239  12.523
56259SOL    HW270617   2.225  10.135  12.434
56260SOL     OW70618  10.165   1.485   6.569
56260SOL    HW170619  10.126   1.412   6.616
56260SOL    HW270620  10.255   1.490   6.602
56261SOL     OW70621   1.743   0.041  10.795
56261SOL    HW170622   1.804   0.056  10.868
56261SOL    HW270623   1.658   0.031  10.836
56262SOL     OW70624  10.104  10.000   0.784
56262SOL    HW170625  10.144   9.974   0.701
56262SOL    HW270626  10.057  10.081   0.764
56263SOL     OW70627   8.663   3.152   8.121
56263SOL    HW170628   8.577   3.157   8.077
56263SOL    HW270629   8.724   3.192   8.059
56264SOL     OW70630  12.884  12.212   8.562
56264SOL    HW170631  12.805  12.160   8.548
56264SOL    HW270632  12.954  12.147   8.572
56265SOL     OW70633   3.222   5.527   5.620
56265SOL    HW170634   3.299   5.530   5.563
56265SOL    HW270635   3.183   5.614   5.612
56266SOL     OW70636   0.479   8.389   7.729
56266SOL    HW170637   0.524   8.331   7.790
56266SOL    HW270638   0.541   8.403   7.658
56267SOL     OW70639   6.448   7.269   3.085
56267SOL    HW170640   6.510   7.302   3.021
56267SOL    HW270641   6.363   7.270   3.040
56268SOL     OW70642   2.880  14.170  10.837
56268SOL    HW170643   2.890  14.202  10.926
56268SOL    HW270644   2.906  14.078  10.842
56269SOL     OW70645   7.013   8.787  10.590
56269SOL    HW170646   7.103   8.760  10.574
56269SOL    HW270647   7.013   8.821  10.679
56270SOL     OW70648   2.916   3.806   8.791
56270SOL    HW170649   2.946   3.872   8.730
56270SOL    HW270650   2.942   3.839   8.877
56271SOL     OW70651  10.199   3.863   3.385
56271SOL    HW170652  10.255   3.881   3.309
56271SOL    HW270653  10.143   3.941   3.392
56272SOL     OW70654   7.891   2.550  11.107
56272SOL    HW170655   7.960   2.534  11.044
56272SOL    HW270656   7.811   2.558  11.054
56273SOL     OW70657   3.835   3.426   3.733
56273SOL    HW170658   3.880   3.422   3.649
56273SOL    HW270659   3.827   3.520   3.752
56274SOL     OW70660  12.748   9.513   9.495
56274SOL    HW170661  12.718   9.539   9.582
56274SOL    HW270662  12.820   9.573   9.475
56275SOL     OW70663   2.800  12.245  13.747
56275SOL    HW170664   2.755  12.324  13.719
56275SOL    HW270665   2.775  12.235  13.839
56276SOL     OW70666  13.100   5.705   4.669
56276SOL    HW170667  13.034   5.690   4.600
56276SOL    HW270668  13.139   5.619   4.682
56277SOL     OW70669  13.990  12.451  14.174
56277SOL    HW170670  13.916  12.394  14.153
56277SOL    HW270671  14.067  12.395  14.166
56278SOL     OW70672  10.947   0.005   1.092
56278SOL    HW170673  10.976  14.790   1.100
56278SOL    HW270674  10.876   0.014   1.155
56279SOL     OW70675   6.675   6.572  10.695
56279SOL    HW170676   6.715   6.608  10.615
56279SOL    HW270677   6.604   6.517  10.662
56280SOL     OW70678   7.380  11.147   8.029
56280SOL    HW170679   7.422  11.220   8.073
56280SOL    HW270680   7.335  11.100   8.099
56281SOL     OW70681   2.966  14.471   1.746
56281SOL    HW170682   2.964  14.416   1.668
56281SOL    HW270683   2.918  14.550   1.721
56282SOL     OW70684  12.287  14.696   7.524
56282SOL    HW170685  12.256  14.615   7.565
56282SOL    HW270686  12.298  14.757   7.596
56283SOL     OW70687   0.055   2.299   2.857
56283SOL    HW170688   0.020   2.334   2.775
56283SOL    HW270689  14.855   2.294   2.915
56284SOL     OW70690   4.234   8.517   5.155
56284SOL    HW170691   4.289   8.592   5.131
56284SOL    HW270692   4.168   8.553   5.214
56285SOL     OW70693   9.964   4.199   5.627
56285SOL    HW170694  10.055   4.195   5.653
56285SOL    HW270695   9.965   4.182   5.532
56286SOL     OW70696   2.967  11.451  13.851
56286SOL    HW170697   3.047  11.504  13.849
56286SOL    HW270698   2.959  11.415  13.763
56287SOL     OW70699   2.421  11.884   4.611
56287SOL    HW170700   2.369  11.951   4.655
56287SOL    HW270701   2.510  11.895   4.646
56288SOL     OW70702   3.667   2.459   8.287
56288SOL    HW170703   3.592   2.481   8.342
56288SOL    HW270704   3.692   2.371   8.314
56289SOL     OW70705  11.409   1.587   0.574
56289SOL    HW170706  11.355   1.643   0.519
56289SOL    HW270707  11.490   1.576   0.524
56290SOL     OW70708  11.631  12.254   1.963
56290SOL    HW170709  11.611  12.196   1.890
56290SOL    HW270710  11.547  12.295   1.985
56291SOL     OW70711  13.159  12.139  14.819
56291SOL    HW170712  13.083  12.180  14.860
56291SOL    HW270713  13.203  12.211  14.774
56292SOL     OW70714  10.660   6.145   9.423
56292SOL    HW170715  10.733   6.089   9.394
56292SOL    HW270716  10.686   6.233   9.397
56293SOL     OW70717   7.912   2.725  13.344
56293SOL    HW170718   7.889   2.801  13.398
56293SOL    HW270719   8.007   2.715  13.355
56294SOL     OW70720   1.836  10.659  10.727
56294SOL    HW170721   1.759  10.680  10.675
56294SOL    HW270722   1.909  10.669  10.667
56295SOL     OW70723   8.129   8.584  13.856
56295SOL    HW170724   8.119   8.490  13.846
56295SOL    HW270725   8.185   8.594  13.933
56296SOL     OW70726   6.688   4.503  11.231
56296SOL    HW170727   6.619   4.490  11.166
56296SOL    HW270728   6.769   4.505  11.181
56297SOL     OW70729   9.600   2.753   5.829
56297SOL    HW170730   9.535   2.688   5.855
56297SOL    HW270731   9.633   2.787   5.911
56298SOL     OW70732   3.811   0.120   0.617
56298SOL    HW170733   3.796   0.097   0.709
56298SOL    HW270734   3.762   0.201   0.604
56299SOL     OW70735  12.989  12.287   1.946
56299SOL    HW170736  12.915  12.329   1.900
56299SOL    HW270737  12.958  12.199   1.964
56300SOL     OW70738   4.429  12.760   0.502
56300SOL    HW170739   4.421  12.804   0.418
56300SOL    HW270740   4.523  12.760   0.521
56301SOL     OW70741  14.392   8.818  14.573
56301SOL    HW170742  14.390   8.730  14.611
56301SOL    HW270743  14.380   8.804  14.479
56302SOL     OW70744   0.170  12.838  13.370
56302SOL    HW170745   0.156  12.755  13.415
56302SOL    HW270746   0.087  12.855  13.326
56303SOL     OW70747   4.910  12.138  10.968
56303SOL    HW170748   4.990  12.156  11.017
56303SOL    HW270749   4.940  12.115  10.880
56304SOL     OW70750   9.852  10.351   4.195
56304SOL    HW170751   9.830  10.405   4.270
56304SOL    HW270752   9.769  10.316   4.164
56305SOL     OW70753  10.414   6.175   5.217
56305SOL    HW170754  10.320   6.161   5.213
56305SOL    HW270755  10.427   6.263   5.182
56306SOL     OW70756   8.987  14.313   9.779
56306SOL    HW170757   8.943  14.230   9.796
56306SOL    HW270758   8.950  14.344   9.696
56307SOL     OW70759  12.068   3.928   2.376
56307SOL    HW170760  11.978   3.927   2.409
56307SOL    HW270761  12.105   4.010   2.408
56308SOL     OW70762   6.969  13.092   7.445
56308SOL    HW170763   7.008  13.006   7.456
56308SOL    HW270764   7.043  13.153   7.446
56309SOL     OW70765   9.883  12.310   9.791
56309SOL    HW170766   9.821  12.305   9.718
56309SOL    HW270767   9.843  12.372   9.852
56310SOL     OW70768   9.771   1.559   9.380
56310SOL    HW170769   9.694   1.504   9.399
56310SOL    HW270770   9.831   1.542   9.453
56311SOL     OW70771   6.054   0.656   7.452
56311SOL    HW170772   5.959   0.646   7.455
56311SOL    HW270773   6.072   0.693   7.365
56312SOL     OW70774  13.941   8.366  14.731
56312SOL    HW170775  13.913   8.391  14.643
56312SOL    HW270776  13.948   8.448  14.779
56313SOL     OW70777  12.054   3.162  13.958
56313SOL    HW170778  12.020   3.216  13.887
56313SOL    HW270779  12.009   3.078  13.948
56314SOL     OW70780   2.193   1.171  10.352
56314SOL    HW170781   2.286   1.189  10.369
56314SOL    HW270782   2.153   1.165  10.439
56315SOL     OW70783   8.036   4.569   0.994
56315SOL    HW170784   7.964   4.545   1.053
56315SOL    HW270785   8.095   4.622   1.048
56316SOL     OW70786   6.192   1.587   9.779
56316SOL    HW170787   6.156   1.656   9.835
56316SOL    HW270788   6.161   1.608   9.691
56317SOL     OW70789  12.154  13.967   9.712
56317SOL    HW170790  12.120  14.057   9.718
56317SOL    HW270791  12.246  13.975   9.738
56318SOL     OW70792  10.633  10.160   0.833
56318SOL    HW170793  10.590  10.175   0.748
56318SOL    HW270794  10.582  10.212   0.895
56319SOL     OW70795   2.683   2.606  12.915
56319SOL    HW170796   2.608   2.636  12.966
56319SOL    HW270797   2.644   2.566  12.837
56320SOL     OW70798   8.336   2.441   1.398
56320SOL    HW170799   8.333   2.438   1.302
56320SOL    HW270800   8.409   2.384   1.421
56321SOL     OW70801   1.073   5.889  14.512
56321SOL    HW170802   0.988   5.846  14.507
56321SOL    HW270803   1.070   5.955  14.443
56322SOL     OW70804   9.921   9.860   2.694
56322SOL    HW170805   9.882   9.946   2.680
56322SOL    HW270806  10.007   9.866   2.651
56323SOL     OW70807  12.075  13.291   2.866
56323SOL    HW170808  12.123  13.231   2.924
56323SOL    HW270809  12.073  13.247   2.781
56324SOL     OW70810   1.513  11.453   3.077
56324SOL    HW170811   1.449  11.502   3.026
56324SOL    HW270812   1.595  11.501   3.064
56325SOL     OW70813   3.215   1.059   0.706
56325SOL    HW170814   3.132   1.022   0.737
56325SOL    HW270815   3.212   1.046   0.611
56326SOL     OW70816  14.018   4.449   9.191
56326SOL    HW170817  13.960   4.513   9.149
56326SOL    HW270818  14.085   4.430   9.125
56327SOL     OW70819   5.551   9.693  13.713
56327SOL    HW170820   5.465   9.708  13.673
56327SOL    HW270821   5.612   9.692  13.639
56328SOL     OW70822  12.215  10.244   0.843
56328SOL    HW170823  12.276  10.201   0.903
56328SOL    HW270824  12.231  10.203   0.758
56329SOL     OW70825  12.241   3.244   0.452
56329SOL    HW170826  12.151   3.212   0.442
56329SOL    HW270827  12.239   3.298   0.531
56330SOL     OW70828  11.825   9.745  10.861
56330SOL    HW170829  11.745   9.694  10.876
56330SOL    HW270830  11.845   9.732  10.768
56331SOL     OW70831  11.229   6.585  10.176
56331SOL    HW170832  11.209   6.491  10.181
56331SOL    HW270833  11.176   6.624  10.245
56332SOL     OW70834  12.240  14.459   7.654
56332SOL    HW170835  12.327  14.425   7.634
56332SOL    HW270836  12.214  14.415   7.735
56333SOL     OW70837   9.555  10.673  13.812
56333SOL    HW170838   9.501  10.735  13.861
56333SOL    HW270839   9.554  10.593  13.865
56334SOL     OW70840   3.003  12.876   0.444
56334SOL    HW170841   2.969  12.960   0.474
56334SOL    HW270842   3.068  12.851   0.510
56335SOL     OW70843   1.367   3.269   3.883
56335SOL    HW170844   1.289   3.221   3.911
56335SOL    HW270845   1.335   3.335   3.822
56336SOL     OW70846   7.850   9.221  11.086
56336SOL    HW170847   7.768   9.171  11.080
56336SOL    HW270848   7.835   9.283  11.157
56337SOL     OW70849   6.892  10.158  12.273
56337SOL    HW170850   6.920  10.071  12.301
56337SOL    HW270851   6.849  10.144  12.189
56338SOL     OW70852   1.288  14.625  12.044
56338SOL    HW170853   1.223  14.628  11.973
56338SOL    HW270854   1.345  14.700  12.026
56339SOL     OW70855   5.324   2.038   0.815
56339SOL    HW170856   5.251   2.023   0.755
56339SOL    HW270857   5.401   2.006   0.767
56340SOL     OW70858   3.465   5.085   5.669
56340SOL    HW170859   3.545   5.138   5.668
56340SOL    HW270860   3.425   5.103   5.754
56341SOL     OW70861   4.231   9.191   5.443
56341SOL    HW170862   4.164   9.129   5.416
56341SOL    HW270863   4.254   9.239   5.363
56342SOL     OW70864  10.689   1.172  12.916
56342SOL    HW170865  10.719   1.248  12.966
56342SOL    HW270866  10.616   1.137  12.968
56343SOL     OW70867  13.366   4.034   1.721
56343SOL    HW170868  13.376   3.942   1.747
56343SOL    HW270869  13.392   4.083   1.799
56344SOL     OW70870   5.927   9.485  13.965
56344SOL    HW170871   5.993   9.446  13.908
56344SOL    HW270872   5.887   9.411  14.010
56345SOL     OW70873   7.766   3.754   8.692
56345SOL    HW170874   7.764   3.760   8.788
56345SOL    HW270875   7.857   3.732   8.671
56346SOL     OW70876   3.627   5.791   5.235
56346SOL    HW170877   3.683   5.816   5.309
56346SOL    HW270878   3.616   5.697   5.244
56347SOL     OW70879  12.939   0.309   9.482
56347SOL    HW170880  12.851   0.346   9.495
56347SOL    HW270881  12.993   0.384   9.458
56348SOL     OW70882   4.930   1.484   4.501
56348SOL    HW170883   5.023   1.505   4.506
56348SOL    HW270884   4.897   1.538   4.430
56349SOL     OW70885   1.820   3.344   1.957
56349SOL    HW170886   1.874   3.401   1.904
56349SOL    HW270887   1.857   3.350   2.045
56350SOL     OW70888   6.126   2.663   5.544
56350SOL    HW170889   6.070   2.619   5.480
56350SOL    HW270890   6.065   2.712   5.599
56351SOL     OW70891   0.739   3.838   1.185
56351SOL    HW170892   0.773   3.842   1.274
56351SOL    HW270893   0.717   3.929   1.164
56352SOL     OW70894   1.327   4.336  14.218
56352SOL    HW170895   1.379   4.274  14.269
56352SOL    HW270896   1.375   4.345  14.136
56353SOL     OW70897   5.613   2.901   5.274
56353SOL    HW170898   5.674   2.933   5.340
56353SOL    HW270899   5.664   2.903   5.192
56354SOL     OW70900   9.836   1.531   0.648
56354SOL    HW170901   9.770   1.542   0.716
56354SOL    HW270902   9.796   1.567   0.569
56355SOL     OW70903   4.320  14.302   0.106
56355SOL    HW170904   4.381  14.367   0.072
56355SOL    HW270905   4.236  14.325   0.066
56356SOL     OW70906   8.377   5.372   0.819
56356SOL    HW170907   8.404   5.460   0.844
56356SOL    HW270908   8.340   5.383   0.732
56357SOL     OW70909  14.732   1.025   8.268
56357SOL    HW170910  14.745   1.110   8.310
56357SOL    HW270911  14.646   0.996   8.297
56358SOL     OW70912  14.681   1.645   6.593
56358SOL    HW170913  14.752   1.653   6.529
56358SOL    HW270914  14.723   1.655   6.678
56359SOL     OW70915   3.213  13.329   3.574
56359SOL    HW170916   3.191  13.403   3.632
56359SOL    HW270917   3.142  13.266   3.589
56360SOL     OW70918   4.443   0.021  13.191
56360SOL    HW170919   4.365   0.067  13.160
56360SOL    HW270920   4.463  14.835  13.121
56361SOL     OW70921   5.620   1.921   1.390
56361SOL    HW170922   5.547   1.974   1.357
56361SOL    HW270923   5.627   1.849   1.328
56362SOL     OW70924   9.792  14.693   5.235
56362SOL    HW170925   9.883  14.666   5.247
56362SOL    HW270926   9.798  14.787   5.217
56363SOL     OW70927   4.969   6.124  12.300
56363SOL    HW170928   4.917   6.193  12.343
56363SOL    HW270929   5.046   6.169  12.267
56364SOL     OW70930   7.725  14.777  10.819
56364SOL    HW170931   7.643  14.734  10.799
56364SOL    HW270932   7.739  14.762  10.912
56365SOL     OW70933   1.505   5.565  14.658
56365SOL    HW170934   1.444   5.636  14.637
56365SOL    HW270935   1.518   5.572  14.753
56366SOL     OW70936  13.671   9.844   0.491
56366SOL    HW170937  13.666   9.896   0.411
56366SOL    HW270938  13.583   9.850   0.529
56367SOL     OW70939   2.493  11.073   7.705
56367SOL    HW170940   2.489  11.003   7.639
56367SOL    HW270941   2.428  11.047   7.771
56368SOL     OW70942   4.187   7.898   8.331
56368SOL    HW170943   4.274   7.860   8.316
56368SOL    HW270944   4.205   7.980   8.376
56369SOL     OW70945   1.490   8.623   8.213
56369SOL    HW170946   1.574   8.577   8.219
56369SOL    HW270947   1.510   8.713   8.240
56370SOL     OW70948   6.391   8.369   1.020
56370SOL    HW170949   6.364   8.292   1.070
56370SOL    HW270950   6.440   8.422   1.083
56371SOL     OW70951   6.552   3.538   3.920
56371SOL    HW170952   6.609   3.494   3.983
56371SOL    HW270953   6.613   3.581   3.860
56372SOL     OW70954  12.404  14.765   0.136
56372SOL    HW170955  12.371  14.675   0.130
56372SOL    HW270956  12.450  14.768   0.220
56373SOL     OW70957   1.180   9.256  10.972
56373SOL    HW170958   1.199   9.326  11.034
56373SOL    HW270959   1.258   9.250  10.917
56374SOL     OW70960  13.268   7.318  11.837
56374SOL    HW170961  13.226   7.404  11.842
56374SOL    HW270962  13.349   7.334  11.789
56375SOL     OW70963   6.279   4.356   8.359
56375SOL    HW170964   6.330   4.369   8.280
56375SOL    HW270965   6.243   4.268   8.351
56376SOL     OW70966  13.658   1.672  11.756
56376SOL    HW170967  13.654   1.671  11.852
56376SOL    HW270968  13.592   1.735  11.729
56377SOL     OW70969   2.527   0.536   2.479
56377SOL    HW170970   2.616   0.513   2.453
56377SOL    HW270971   2.525   0.521   2.574
56378SOL     OW70972   8.359   2.185  12.880
56378SOL    HW170973   8.416   2.156  12.809
56378SOL    HW270974   8.279   2.214  12.836
56379SOL     OW70975   3.554  14.399   0.879
56379SOL    HW170976   3.518  14.466   0.937
56379SOL    HW270977   3.520  14.316   0.914
56380SOL     OW70978   2.559  14.212   7.970
56380SOL    HW170979   2.587  14.151   8.039
56380SOL    HW270980   2.517  14.157   7.904
56381SOL     OW70981   7.176   4.834   0.243
56381SOL    HW170982   7.124   4.888   0.184
56381SOL    HW270983   7.157   4.744   0.217
56382SOL     OW70984  13.597   6.124   5.364
56382SOL    HW170985  13.537   6.138   5.437
56382SOL    HW270986  13.541   6.089   5.294
56383SOL     OW70987  13.662  13.916  12.193
56383SOL    HW170988  13.569  13.930  12.211
56383SOL    HW270989  13.667  13.828  12.156
56384SOL     OW70990   6.146   5.719  12.990
56384SOL    HW170991   6.187   5.778  12.927
56384SOL    HW270992   6.187   5.634  12.974
56385SOL     OW70993   1.199   0.242  12.855
56385SOL    HW170994   1.172   0.334  12.849
56385SOL    HW270995   1.145   0.206  12.925
56386SOL     OW70996   0.514  11.137   2.942
56386SOL    HW170997   0.558  11.222   2.949
56386SOL    HW270998   0.457  11.146   2.865
56387SOL     OW70999   0.187  14.601   6.618
56387SOL    HW171000   0.143  14.672   6.570
56387SOL    HW271001   0.166  14.522   6.567
56388SOL     OW71002   5.065   8.435   8.695
56388SOL    HW171003   5.075   8.342   8.673
56388SOL    HW271004   5.050   8.436   8.789
56389SOL     OW71005   3.870   9.473   3.271
56389SOL    HW171006   3.911   9.542   3.323
56389SOL    HW271007   3.827   9.519   3.199
56390SOL     OW71008   3.632  14.086  13.511
56390SOL    HW171009   3.688  14.163  13.519
56390SOL    HW271010   3.611  14.080  13.418
56391SOL     OW71011   4.108   2.856   7.263
56391SOL    HW171012   4.095   2.920   7.192
56391SOL    HW271013   4.086   2.772   7.224
56392SOL     OW71014   7.370   1.939   1.522
56392SOL    HW171015   7.380   2.003   1.593
56392SOL    HW271016   7.386   1.854   1.564
56393SOL     OW71017   8.081   9.722  12.120
56393SOL    HW171018   8.146   9.661  12.086
56393SOL    HW271019   8.129   9.803  12.137
56394SOL     OW71020   0.938   8.732  11.573
56394SOL    HW171021   1.033   8.718  11.564
56394SOL    HW271022   0.900   8.646  11.556
56395SOL     OW71023   3.809  10.817   5.023
56395SOL    HW171024   3.833  10.726   5.044
56395SOL    HW271025   3.827  10.866   5.103
56396SOL     OW71026   7.374  11.288   7.513
56396SOL    HW171027   7.465  11.306   7.491
56396SOL    HW271028   7.344  11.229   7.444
56397SOL     OW71029  14.560   2.358  12.077
56397SOL    HW171030  14.473   2.339  12.043
56397SOL    HW271031  14.545   2.419  12.149
56398SOL     OW71032   7.300  12.641   9.123
56398SOL    HW171033   7.249  12.717   9.152
56398SOL    HW271034   7.331  12.600   9.205
56399SOL     OW71035   3.502   2.991  11.432
56399SOL    HW171036   3.517   2.919  11.492
56399SOL    HW271037   3.505   3.070  11.487
56400SOL     OW71038  12.619  14.351  12.143
56400SOL    HW171039  12.652  14.262  12.149
56400SOL    HW271040  12.630  14.387  12.231
56401SOL     OW71041   8.936  13.848   0.786
56401SOL    HW171042   9.023  13.869   0.819
56401SOL    HW271043   8.951  13.782   0.718
56402SOL     OW71044  11.748   7.137   2.253
56402SOL    HW171045  11.761   7.223   2.214
56402SOL    HW271046  11.671   7.147   2.309
56403SOL     OW71047  13.920  10.934   1.521
56403SOL    HW171048  13.905  10.964   1.431
56403SOL    HW271049  13.967  10.852   1.511
56404SOL     OW71050   1.009  14.463   8.389
56404SOL    HW171051   1.031  14.383   8.437
56404SOL    HW271052   0.997  14.529   8.458
56405SOL     OW71053   8.594   6.353   9.767
56405SOL    HW171054   8.660   6.419   9.792
56405SOL    HW271055   8.621   6.324   9.680
56406SOL     OW71056   0.572  12.314   3.432
56406SOL    HW171057   0.497  12.371   3.448
56406SOL    HW271058   0.543  12.228   3.462
56407SOL     OW71059  12.132   2.071   4.392
56407SOL    HW171060  12.225   2.068   4.369
56407SOL    HW271061  12.125   2.014   4.469
56408SOL     OW71062   7.685   6.662   3.149
56408SOL    HW171063   7.595   6.671   3.181
56408SOL    HW271064   7.733   6.624   3.223
56409SOL     OW71065   4.836  13.438  13.135
56409SOL    HW171066   4.923  13.410  13.107
56409SOL    HW271067   4.849  13.471  13.224
56410SOL     OW71068   3.959   7.554  14.085
56410SOL    HW171069   3.938   7.647  14.088
56410SOL    HW271070   4.005   7.542  14.002
56411SOL     OW71071  10.304   6.006   8.928
56411SOL    HW171072  10.359   5.936   8.964
56411SOL    HW271073  10.301   5.988   8.834
56412SOL     OW71074   6.542   0.187  13.928
56412SOL    HW171075   6.507   0.130  13.858
56412SOL    HW271076   6.522   0.139  14.009
56413SOL     OW71077  13.661   1.564   5.074
56413SOL    HW171078  13.679   1.651   5.038
56413SOL    HW271079  13.627   1.581   5.162
56414SOL     OW71080  10.686   6.859  12.506
56414SOL    HW171081  10.640   6.857  12.422
56414SOL    HW271082  10.656   6.939  12.548
56415SOL     OW71083   6.062  10.551   7.294
56415SOL    HW171084   6.155  10.552   7.271
56415SOL    HW271085   6.053  10.480   7.357
56416SOL     OW71086  12.055  13.596   7.668
56416SOL    HW171087  11.987  13.529   7.658
56416SOL    HW271088  12.006  13.678   7.678
56417SOL     OW71089  13.666   4.783  11.366
56417SOL    HW171090  13.664   4.801  11.272
56417SOL    HW271091  13.627   4.861  11.407
56418SOL     OW71092  11.801   1.388   9.712
56418SOL    HW171093  11.780   1.323   9.779
56418SOL    HW271094  11.723   1.394   9.658
56419SOL     OW71095   1.684  12.211  12.695
56419SOL    HW171096   1.681  12.116  12.706
56419SOL    HW271097   1.632  12.245  12.768
56420SOL     OW71098   8.194  11.277   1.855
56420SOL    HW171099   8.198  11.183   1.836
56420SOL    HW271100   8.119  11.286   1.914
56421SOL     OW71101  12.989   9.931  14.654
56421SOL    HW171102  13.054   9.979  14.706
56421SOL    HW271103  12.910   9.985  14.661
56422SOL     OW71104   3.195  11.541  10.974
56422SOL    HW171105   3.210  11.536  10.879
56422SOL    HW271106   3.104  11.516  10.985
56423SOL     OW71107  14.148   4.553  13.143
56423SOL    HW171108  14.095   4.592  13.074
56423SOL    HW271109  14.153   4.621  13.211
56424SOL     OW71110   3.621   0.706   0.825
56424SOL    HW171111   3.594   0.689   0.735
56424SOL    HW271112   3.570   0.783   0.851
56425SOL     OW71113   6.647   9.080   0.573
56425SOL    HW171114   6.642   9.015   0.643
56425SOL    HW271115   6.556   9.099   0.551
56426SOL     OW71116  10.289  11.584   6.955
56426SOL    HW171117  10.229  11.521   6.916
56426SOL    HW271118  10.235  11.633   7.017
56427SOL     OW71119   3.474  10.344  11.337
56427SOL    HW171120   3.522  10.383  11.264
56427SOL    HW271121   3.512  10.257  11.348
56428SOL     OW71122   1.026   5.613   4.471
56428SOL    HW171123   0.989   5.696   4.442
56428SOL    HW271124   0.950   5.561   4.500
56429SOL     OW71125   6.968  14.380  13.351
56429SOL    HW171126   6.992  14.305  13.405
56429SOL    HW271127   6.958  14.343  13.263
56430SOL     OW71128  13.332   4.391  14.871
56430SOL    HW171129  13.340   4.306  14.828
56430SOL    HW271130  13.397   4.446  14.829
56431SOL     OW71131   0.809   2.414   9.303
56431SOL    HW171132   0.874   2.356   9.264
56431SOL    HW271133   0.806   2.390   9.395
56432SOL     OW71134   7.720   1.646   5.222
56432SOL    HW171135   7.638   1.610   5.188
56432SOL    HW271136   7.783   1.574   5.216
56433SOL     OW71137  11.345  10.832   3.707
56433SOL    HW171138  11.306  10.873   3.629
56433SOL    HW271139  11.322  10.740   3.700
56434SOL     OW71140  12.883  11.382   9.831
56434SOL    HW171141  12.859  11.414   9.744
56434SOL    HW271142  12.903  11.461   9.880
56435SOL     OW71143  10.546   2.642   8.261
56435SOL    HW171144  10.531   2.558   8.305
56435SOL    HW271145  10.579   2.700   8.330
56436SOL     OW71146   8.812   8.886  10.182
56436SOL    HW171147   8.787   8.946  10.252
56436SOL    HW271148   8.733   8.836  10.164
56437SOL     OW71149   1.256   5.309  10.395
56437SOL    HW171150   1.263   5.303  10.490
56437SOL    HW271151   1.211   5.392  10.380
56438SOL     OW71152   7.109   7.662   0.367
56438SOL    HW171153   7.126   7.641   0.276
56438SOL    HW271154   7.193   7.691   0.401
56439SOL     OW71155  13.761  12.239   8.990
56439SOL    HW171156  13.805  12.241   9.074
56439SOL    HW271157  13.754  12.145   8.969
56440SOL     OW71158  13.926   9.192  14.170
56440SOL    HW171159  13.986   9.142  14.226
56440SOL    HW271160  13.984   9.252  14.122
56441SOL     OW71161  13.077   4.714   7.977
56441SOL    HW171162  13.155   4.688   7.926
56441SOL    HW271163  13.093   4.806   7.999
56442SOL     OW71164  11.430  10.693   1.086
56442SOL    HW171165  11.379  10.763   1.128
56442SOL    HW271166  11.388  10.612   1.116
56443SOL     OW71167  13.671   7.398  12.134
56443SOL    HW171168  13.679   7.479  12.186
56443SOL    HW271169  13.761   7.373  12.115
56444SOL     OW71170   0.687   1.454   1.016
56444SOL    HW171171   0.639   1.517   0.963
56444SOL    HW271172   0.730   1.397   0.952
56445SOL     OW71173   4.118   0.624   7.451
56445SOL    HW171174   4.187   0.618   7.517
56445SOL    HW271175   4.037   0.626   7.501
56446SOL     OW71176   5.873  12.665  13.944
56446SOL    HW171177   5.787  12.703  13.929
56446SOL    HW271178   5.856  12.571  13.952
56447SOL     OW71179   2.259  13.402   6.124
56447SOL    HW171180   2.266  13.312   6.156
56447SOL    HW271181   2.222  13.394   6.036
56448SOL     OW71182  11.877   9.811   5.194
56448SOL    HW171183  11.815   9.850   5.256
56448SOL    HW271184  11.911   9.734   5.239
56449SOL     OW71185   8.406   8.792   9.404
56449SOL    HW171186   8.409   8.888   9.407
56449SOL    HW271187   8.392   8.766   9.495
56450SOL     OW71188   5.775   4.026   2.651
56450SOL    HW171189   5.764   3.990   2.739
56450SOL    HW271190   5.870   4.031   2.639
56451SOL     OW71191   6.035   1.294   0.619
56451SOL    HW171192   5.985   1.217   0.590
56451SOL    HW271193   6.045   1.346   0.539
56452SOL     OW71194   4.098   4.355   4.243
56452SOL    HW171195   4.190   4.332   4.256
56452SOL    HW271196   4.083   4.341   4.150
56453SOL     OW71197   6.850  11.553   6.574
56453SOL    HW171198   6.938  11.535   6.606
56453SOL    HW271199   6.849  11.519   6.485
56454SOL     OW71200   0.668  11.433  14.696
56454SOL    HW171201   0.671  11.481  14.779
56454SOL    HW271202   0.608  11.360  14.712
56455SOL     OW71203   6.072   6.335   8.404
56455SOL    HW171204   6.137   6.385   8.354
56455SOL    HW271205   5.993   6.388   8.400
56456SOL     OW71206   1.838   5.850   1.303
56456SOL    HW171207   1.776   5.794   1.348
56456SOL    HW271208   1.815   5.939   1.329
56457SOL     OW71209   8.323  10.537  10.027
56457SOL    HW171210   8.339  10.444  10.009
56457SOL    HW271211   8.228  10.546  10.019
56458SOL     OW71212   2.998   5.284   0.297
56458SOL    HW171213   2.928   5.299   0.234
56458SOL    HW271214   2.953   5.260   0.378
56459SOL     OW71215  13.198  13.699   9.366
56459SOL    HW171216  13.224  13.663   9.281
56459SOL    HW271217  13.269  13.759   9.389
56460SOL     OW71218   3.374   7.334   4.560
56460SOL    HW171219   3.389   7.240   4.559
56460SOL    HW271220   3.394   7.361   4.650
56461SOL     OW71221  11.163  11.207   5.084
56461SOL    HW171222  11.179  11.115   5.064
56461SOL    HW271223  11.222  11.226   5.157
56462SOL     OW71224   4.470   0.445   4.937
56462SOL    HW171225   4.478   0.409   5.026
56462SOL    HW271226   4.494   0.538   4.948
56463SOL     OW71227   9.920   4.638  10.957
56463SOL    HW171228   9.840   4.688  10.945
56463SOL    HW271229   9.984   4.702  10.989
56464SOL     OW71230   8.663   4.514  11.234
56464SOL    HW171231   8.619   4.594  11.262
56464SOL    HW271232   8.647   4.451  11.304
56465SOL     OW71233   3.541   4.497   6.364
56465SOL    HW171234   3.550   4.587   6.334
56465SOL    HW271235   3.480   4.503   6.438
56466SOL     OW71236   9.793   2.551   4.038
56466SOL    HW171237   9.889   2.558   4.033
56466SOL    HW271238   9.778   2.464   4.076
56467SOL     OW71239   5.176  13.112   1.707
56467SOL    HW171240   5.146  13.038   1.760
56467SOL    HW271241   5.199  13.180   1.771
56468SOL     OW71242   0.933  13.632  12.059
56468SOL    HW171243   1.016  13.585  12.048
56468SOL    HW271244   0.918  13.632  12.154
56469SOL     OW71245   2.479   0.754  14.219
56469SOL    HW171246   2.423   0.828  14.196
56469SOL    HW271247   2.418   0.682  14.235
56470SOL     OW71248  13.461   5.419   7.824
56470SOL    HW171249  13.547   5.404   7.785
56470SOL    HW271250  13.404   5.354   7.782
56471SOL     OW71251   4.510   8.856  12.642
56471SOL    HW171252   4.526   8.765  12.616
56471SOL    HW271253   4.574   8.873  12.711
56472SOL     OW71254  12.959   9.126   0.555
56472SOL    HW171255  13.047   9.153   0.530
56472SOL    HW271256  12.968   9.033   0.577
56473SOL     OW71257  14.331   5.047   3.736
56473SOL    HW171258  14.426   5.053   3.724
56473SOL    HW271259  14.294   5.089   3.659
56474SOL     OW71260  14.622   3.666  12.916
56474SOL    HW171261  14.596   3.756  12.937
56474SOL    HW271262  14.549   3.612  12.946
56475SOL     OW71263  12.054   9.845   1.443
56475SOL    HW171264  11.970   9.851   1.490
56475SOL    HW271265  12.032   9.807   1.358
56476SOL     OW71266  14.543  11.584   2.518
56476SOL    HW171267  14.549  11.525   2.443
56476SOL    HW271268  14.634  11.599   2.544
56477SOL     OW71269   4.699  12.938  12.790
56477SOL    HW171270   4.698  13.031  12.816
56477SOL    HW271271   4.735  12.939  12.702
56478SOL     OW71272   5.973   6.809   9.827
56478SOL    HW171273   5.926   6.868   9.886
56478SOL    HW271274   5.918   6.805   9.748
56479SOL     OW71275   8.938   2.380   0.525
56479SOL    HW171276   8.971   2.465   0.552
56479SOL    HW271277   8.986   2.360   0.444
56480SOL     OW71278  12.411   1.690   0.602
56480SOL    HW171279  12.444   1.707   0.691
56480SOL    HW271280  12.349   1.761   0.586
56481SOL     OW71281   8.455   5.703   3.539
56481SOL    HW171282   8.439   5.611   3.561
56481SOL    HW271283   8.548   5.706   3.515
56482SOL     OW71284   6.233  13.737   5.771
56482SOL    HW171285   6.301  13.672   5.753
56482SOL    HW271286   6.192  13.754   5.687
56483SOL     OW71287  14.349   7.160  13.954
56483SOL    HW171288  14.370   7.199  14.039
56483SOL    HW271289  14.413   7.197  13.894
56484SOL     OW71290   8.439  12.074  14.350
56484SOL    HW171291   8.353  12.078  14.391
56484SOL    HW271292   8.425  12.023  14.270
56485SOL     OW71293   7.220  14.293   9.176
56485SOL    HW171294   7.295  14.331   9.130
56485SOL    HW271295   7.145  14.343   9.145
56486SOL     OW71296   0.838  14.362   9.867
56486SOL    HW171297   0.926  14.396   9.853
56486SOL    HW271298   0.851  14.270   9.893
56487SOL     OW71299   0.462   9.903   9.038
56487SOL    HW171300   0.448   9.980   9.093
56487SOL    HW271301   0.551   9.913   9.004
56488SOL     OW71302   1.232   5.660  11.382
56488SOL    HW171303   1.318   5.633  11.414
56488SOL    HW271304   1.212   5.740  11.430
56489SOL     OW71305  11.092   1.719  10.115
56489SOL    HW171306  11.010   1.676  10.142
56489SOL    HW271307  11.104   1.789  10.179
56490SOL     OW71308  11.760  13.977   5.566
56490SOL    HW171309  11.671  13.961   5.595
56490SOL    HW271310  11.806  13.895   5.580
56491SOL     OW71311  13.503  11.880   8.488
56491SOL    HW171312  13.546  11.956   8.448
56491SOL    HW271313  13.459  11.915   8.565
56492SOL     OW71314  11.685   7.616   2.849
56492SOL    HW171315  11.594   7.604   2.878
56492SOL    HW271316  11.681   7.608   2.754
56493SOL     OW71317  13.104   2.380   0.390
56493SOL    HW171318  13.063   2.295   0.377
56493SOL    HW271319  13.032   2.442   0.387
56494SOL     OW71320   8.820   9.459  11.837
56494SOL    HW171321   8.789   9.442  11.749
56494SOL    HW271322   8.773   9.537  11.865
56495SOL     OW71323   0.614   8.699  11.547
56495SOL    HW171324   0.643   8.609  11.527
56495SOL    HW271325   0.695   8.749  11.553
56496SOL     OW71326   7.583   8.853  11.404
56496SOL    HW171327   7.488   8.858  11.397
56496SOL    HW271328   7.613   8.844  11.313
56497SOL     OW71329  13.030   2.304  11.532
56497SOL    HW171330  12.988   2.351  11.460
56497SOL    HW271331  12.994   2.344  11.611
56498SOL     OW71332  14.860   9.420   1.383
56498SOL    HW171333  14.863   9.394   1.475
56498SOL    HW271334   0.070   9.458   1.366
56499SOL     OW71335   4.250  14.407  11.303
56499SOL    HW171336   4.209  14.476  11.250
56499SOL    HW271337   4.323  14.376  11.249
56500SOL     OW71338   1.099   7.680   6.562
56500SOL    HW171339   1.087   7.652   6.653
56500SOL    HW271340   1.098   7.775   6.565
56501SOL     OW71341   7.240   1.214   2.640
56501SOL    HW171342   7.157   1.180   2.676
56501SOL    HW271343   7.244   1.304   2.671
56502SOL     OW71344  13.831  11.952  13.262
56502SOL    HW171345  13.925  11.959  13.275
56502SOL    HW271346  13.820  11.944  13.167
56503SOL     OW71347   1.318   0.641   3.386
56503SOL    HW171348   1.237   0.652   3.335
56503SOL    HW271349   1.297   0.680   3.471
56504SOL     OW71350  13.299   3.879  11.303
56504SOL    HW171351  13.247   3.843  11.232
56504SOL    HW271352  13.389   3.881  11.270
56505SOL     OW71353   1.975   9.565   7.537
56505SOL    HW171354   1.917   9.608   7.600
56505SOL    HW271355   1.966   9.615   7.456
56506SOL     OW71356   8.815   3.486   5.902
56506SOL    HW171357   8.776   3.478   5.815
56506SOL    HW271358   8.819   3.396   5.935
56507SOL     OW71359  14.359   4.393   3.031
56507SOL    HW171360  14.263   4.388   3.038
56507SOL    HW271361  14.375   4.446   2.954
56508SOL     OW71362   9.083  14.612  10.238
56508SOL    HW171363   9.030  14.534  10.256
56508SOL    HW271364   9.041  14.652  10.162
56509SOL     OW71365   6.496   6.722   6.280
56509SOL    HW171366   6.496   6.805   6.234
56509SOL    HW271367   6.404   6.700   6.292
56510SOL     OW71368  10.713   3.659  13.091
56510SOL    HW171369  10.723   3.614  13.007
56510SOL    HW271370  10.782   3.725  13.091
56511SOL     OW71371   8.977   1.023  12.045
56511SOL    HW171372   8.934   1.109  12.050
56511SOL    HW271373   8.932   0.978  11.973
56512SOL     OW71374  13.765   9.714   7.924
56512SOL    HW171375  13.823   9.786   7.947
56512SOL    HW271376  13.736   9.679   8.008
56513SOL     OW71377   8.081   5.922   8.395
56513SOL    HW171378   8.174   5.901   8.391
56513SOL    HW271379   8.038   5.836   8.404
56514SOL     OW71380  11.501  13.144  10.533
56514SOL    HW171381  11.509  13.214  10.598
56514SOL    HW271382  11.496  13.063  10.585
56515SOL     OW71383   3.349   7.533  12.668
56515SOL    HW171384   3.416   7.499  12.727
56515SOL    HW271385   3.388   7.526  12.580
56516SOL     OW71386   6.827   4.494  11.812
56516SOL    HW171387   6.771   4.434  11.763
56516SOL    HW271388   6.788   4.580  11.798
56517SOL     OW71389   4.375  11.863   3.348
56517SOL    HW171390   4.433  11.826   3.415
56517SOL    HW271391   4.314  11.917   3.397
56518SOL     OW71392   9.314   9.446  14.096
56518SOL    HW171393   9.250   9.375  14.094
56518SOL    HW271394   9.289   9.502  14.023
56519SOL     OW71395   2.441   8.871   8.374
56519SOL    HW171396   2.479   8.890   8.460
56519SOL    HW271397   2.421   8.957   8.337
56520SOL     OW71398   0.811   6.526   0.197
56520SOL    HW171399   0.877   6.504   0.131
56520SOL    HW271400   0.761   6.598   0.158
56521SOL     OW71401   6.230  10.902   2.213
56521SOL    HW171402   6.247  10.995   2.202
56521SOL    HW271403   6.253  10.863   2.129
56522SOL     OW71404  13.364   1.269   5.206
56522SOL    HW171405  13.304   1.260   5.132
56522SOL    HW271406  13.360   1.362   5.229
56523SOL     OW71407   8.322  12.610   4.176
56523SOL    HW171408   8.233  12.643   4.192
56523SOL    HW271409   8.310  12.515   4.165
56524SOL     OW71410   1.994   6.627   4.566
56524SOL    HW171411   1.973   6.634   4.659
56524SOL    HW271412   1.923   6.574   4.529
56525SOL     OW71413   4.743   2.324   9.606
56525SOL    HW171414   4.652   2.354   9.614
56525SOL    HW271415   4.795   2.404   9.611
56526SOL     OW71416   0.653   4.185   5.596
56526SOL    HW171417   0.676   4.220   5.681
56526SOL    HW271418   0.659   4.260   5.537
56527SOL     OW71419   3.121   9.192  11.126
56527SOL    HW171420   3.175   9.221  11.200
56527SOL    HW271421   3.079   9.112  11.158
56528SOL     OW71422  12.647   7.489   8.401
56528SOL    HW171423  12.693   7.570   8.424
56528SOL    HW271424  12.583   7.515   8.335
56529SOL     OW71425   5.215   9.301   5.313
56529SOL    HW171426   5.282   9.241   5.346
56529SOL    HW271427   5.191   9.266   5.227
56530SOL     OW71428   1.111   4.156   1.178
56530SOL    HW171429   1.041   4.155   1.112
56530SOL    HW271430   1.095   4.236   1.227
56531SOL     OW71431   6.893   4.777   2.506
56531SOL    HW171432   6.941   4.779   2.422
56531SOL    HW271433   6.823   4.714   2.491
56532SOL     OW71434   7.388   0.592  12.190
56532SOL    HW171435   7.432   0.523  12.141
56532SOL    HW271436   7.456   0.657  12.206
56533SOL     OW71437   4.430   3.426   6.695
56533SOL    HW171438   4.383   3.366   6.637
56533SOL    HW271439   4.492   3.371   6.742
56534SOL     OW71440   4.685  13.377   3.452
56534SOL    HW171441   4.649  13.459   3.420
56534SOL    HW271442   4.779  13.382   3.434
56535SOL     OW71443  10.878  12.705   0.949
56535SOL    HW171444  10.958  12.754   0.969
56535SOL    HW271445  10.908  12.633   0.892
56536SOL     OW71446   0.094   7.088   9.547
56536SOL    HW171447   0.090   7.138   9.466
56536SOL    HW271448   0.187   7.073   9.562
56537SOL     OW71449   7.208  12.086   2.052
56537SOL    HW171450   7.237  12.082   1.961
56537SOL    HW271451   7.279  12.047   2.102
56538SOL     OW71452   5.421   4.967   8.238
56538SOL    HW171453   5.475   4.940   8.312
56538SOL    HW271454   5.423   5.062   8.239
56539SOL     OW71455   9.936   1.509  10.449
56539SOL    HW171456   9.859   1.474  10.404
56539SOL    HW271457   9.907   1.523  10.539
56540SOL     OW71458   3.597   7.112   8.148
56540SOL    HW171459   3.608   7.017   8.158
56540SOL    HW271460   3.684   7.148   8.162
56541SOL     OW71461  10.857  12.693   7.940
56541SOL    HW171462  10.915  12.728   7.872
56541SOL    HW271463  10.882  12.741   8.019
56542SOL     OW71464  11.046  13.744   2.351
56542SOL    HW171465  11.139  13.754   2.370
56542SOL    HW271466  11.002  13.804   2.411
56543SOL     OW71467  10.563   8.521   3.954
56543SOL    HW171468  10.477   8.498   3.920
56543SOL    HW271469  10.566   8.482   4.042
56544SOL     OW71470   5.969   4.118  10.123
56544SOL    HW171471   5.918   4.061  10.064
56544SOL    HW271472   6.026   4.168  10.064
56545SOL     OW71473  11.287   1.109   2.361
56545SOL    HW171474  11.349   1.121   2.288
56545SOL    HW271475  11.254   1.197   2.378
56546SOL     OW71476   9.056   4.932   6.951
56546SOL    HW171477   8.984   4.921   7.014
56546SOL    HW271478   9.034   5.011   6.903
56547SOL     OW71479  14.685  10.321   2.556
56547SOL    HW171480  14.764  10.313   2.610
56547SOL    HW271481  14.672  10.415   2.546
56548SOL     OW71482   1.793  13.394   3.018
56548SOL    HW171483   1.763  13.464   2.959
56548SOL    HW271484   1.734  13.400   3.093
56549SOL     OW71485   9.996   2.253   4.600
56549SOL    HW171486  10.013   2.194   4.674
56549SOL    HW271487   9.927   2.312   4.630
56550SOL     OW71488   6.853   4.462   7.031
56550SOL    HW171489   6.849   4.415   7.113
56550SOL    HW271490   6.862   4.394   6.964
56551SOL     OW71491   7.740   1.776  12.188
56551SOL    HW171492   7.800   1.731  12.129
56551SOL    HW271493   7.770   1.867  12.188
56552SOL     OW71494   9.501  12.705  10.211
56552SOL    HW171495   9.425  12.763  10.220
56552SOL    HW271496   9.576  12.765  10.206
56553SOL     OW71497   0.153   4.244   5.207
56553SOL    HW171498   0.187   4.253   5.296
56553SOL    HW271499   0.226   4.271   5.151
56554SOL     OW71500  10.260   6.207   5.972
56554SOL    HW171501  10.282   6.118   5.998
56554SOL    HW271502  10.168   6.217   5.996
56555SOL     OW71503   0.873   3.886   2.726
56555SOL    HW171504   0.861   3.957   2.662
56555SOL    HW271505   0.967   3.879   2.737
56556SOL     OW71506   1.369   7.751   7.031
56556SOL    HW171507   1.363   7.846   7.046
56556SOL    HW271508   1.408   7.743   6.944
56557SOL     OW71509   2.082  13.478  13.558
56557SOL    HW171510   2.115  13.409  13.500
56557SOL    HW271511   2.078  13.437  13.644
56558SOL     OW71512   3.188   8.507   0.022
56558SOL    HW171513   3.229   8.484   0.105
56558SOL    HW271514   3.218   8.439  14.837
56559SOL     OW71515   0.427   2.390   7.402
56559SOL    HW171516   0.502   2.331   7.407
56559SOL    HW271517   0.447   2.460   7.464
56560SOL     OW71518   9.372   0.417  14.407
56560SOL    HW171519   9.360   0.390  14.499
56560SOL    HW271520   9.390   0.511  14.413
56561SOL     OW71521   1.278  11.846  14.740
56561SOL    HW171522   1.239  11.870  14.655
56561SOL    HW271523   1.326  11.924  14.768
56562SOL     OW71524   5.686   4.138  14.586
56562SOL    HW171525   5.762   4.100  14.630
56562SOL    HW271526   5.723   4.202  14.525
56563SOL     OW71527  14.529   9.067  12.802
56563SOL    HW171528  14.530   9.102  12.891
56563SOL    HW271529  14.526   8.972  12.814
56564SOL     OW71530   1.262  13.147  10.584
56564SOL    HW171531   1.258  13.098  10.502
56564SOL    HW271532   1.281  13.237  10.556
56565SOL     OW71533  11.890  13.680   3.700
56565SOL    HW171534  11.862  13.755   3.753
56565SOL    HW271535  11.979  13.702   3.674
56566SOL     OW71536   8.566   5.449   7.996
56566SOL    HW171537   8.484   5.399   8.004
56566SOL    HW271538   8.574   5.495   8.079
56567SOL     OW71539   4.655  12.373   1.674
56567SOL    HW171540   4.748  12.354   1.684
56567SOL    HW271541   4.638  12.446   1.734
56568SOL     OW71542   2.276  13.669  10.245
56568SOL    HW171543   2.360  13.703  10.275
56568SOL    HW271544   2.224  13.748  10.225
56569SOL     OW71545   5.000   6.556   9.899
56569SOL    HW171546   4.980   6.648   9.914
56569SOL    HW271547   5.072   6.556   9.837
56570SOL     OW71548   3.118   1.866   7.359
56570SOL    HW171549   3.066   1.809   7.416
56570SOL    HW271550   3.101   1.954   7.391
56571SOL     OW71551   8.956   1.430  10.501
56571SOL    HW171552   8.869   1.467  10.485
56571SOL    HW271553   8.969   1.367  10.430
56572SOL     OW71554   5.895   8.998  10.781
56572SOL    HW171555   5.851   9.007  10.697
56572SOL    HW271556   5.849   8.925  10.824
56573SOL     OW71557   9.782   4.900   7.016
56573SOL    HW171558   9.856   4.906   6.955
56573SOL    HW271559   9.713   4.953   6.975
56574SOL     OW71560   8.554   6.431   1.151
56574SOL    HW171561   8.526   6.370   1.219
56574SOL    HW271562   8.649   6.424   1.151
56575SOL     OW71563   5.449   9.073  13.531
56575SOL    HW171564   5.499   9.012  13.586
56575SOL    HW271565   5.437   9.026  13.448
56576SOL     OW71566   5.671   0.822  14.798
56576SOL    HW171567   5.703   0.889  14.737
56576SOL    HW271568   5.608   0.868  14.854
56577SOL     OW71569  12.970  10.167   8.658
56577SOL    HW171570  12.938  10.079   8.679
56577SOL    HW271571  12.928  10.188   8.574
56578SOL     OW71572   0.961  12.017   7.983
56578SOL    HW171573   1.052  12.048   7.976
56578SOL    HW271574   0.968  11.936   8.033
56579SOL     OW71575   6.440   9.025   5.473
56579SOL    HW171576   6.370   9.050   5.533
56579SOL    HW271577   6.398   9.020   5.387
56580SOL     OW71578  11.085   2.484  10.388
56580SOL    HW171579  11.045   2.525  10.465
56580SOL    HW271580  11.156   2.544  10.364
56581SOL     OW71581   5.604   3.785   8.594
56581SOL    HW171582   5.656   3.850   8.546
56581SOL    HW271583   5.537   3.836   8.639
56582SOL     OW71584   3.966   7.258   8.465
56582SOL    HW171585   3.924   7.342   8.484
56582SOL    HW271586   3.952   7.244   8.372
56583SOL     OW71587   7.801   9.406   1.063
56583SOL    HW171588   7.869   9.460   1.102
56583SOL    HW271589   7.741   9.386   1.134
56584SOL     OW71590  13.205   8.160   6.426
56584SOL    HW171591  13.225   8.067   6.427
56584SOL    HW271592  13.263   8.195   6.357
56585SOL     OW71593   6.114  11.339   1.385
56585SOL    HW171594   6.193  11.285   1.396
56585SOL    HW271595   6.052  11.304   1.450
56586SOL     OW71596  13.596   1.237   0.148
56586SOL    HW171597  13.522   1.266   0.201
56586SOL    HW271598  13.602   1.143   0.165
56587SOL     OW71599   9.211   6.595   3.141
56587SOL    HW171600   9.170   6.529   3.086
56587SOL    HW271601   9.159   6.595   3.222
56588SOL     OW71602   2.455   8.774  13.922
56588SOL    HW171603   2.550   8.759  13.923
56588SOL    HW271604   2.429   8.770  14.014
56589SOL     OW71605   6.460   1.686  10.472
56589SOL    HW171606   6.509   1.713  10.550
56589SOL    HW271607   6.375   1.729  10.480
56590SOL     OW71608   6.405   3.137  13.443
56590SOL    HW171609   6.379   3.094  13.361
56590SOL    HW271610   6.490   3.097  13.464
56591SOL     OW71611  14.480   7.953   5.936
56591SOL    HW171612  14.494   7.959   5.841
56591SOL    HW271613  14.399   7.901   5.944
56592SOL     OW71614  12.275  13.737  13.847
56592SOL    HW171615  12.358  13.784  13.845
56592SOL    HW271616  12.257  13.714  13.756
56593SOL     OW71617   0.316  10.334   0.306
56593SOL    HW171618   0.328  10.393   0.381
56593SOL    HW271619   0.256  10.267   0.338
56594SOL     OW71620   0.401   4.736  11.991
56594SOL    HW171621   0.341   4.770  11.924
56594SOL    HW271622   0.402   4.804  12.058
56595SOL     OW71623   2.320  13.073   7.289
56595SOL    HW171624   2.280  13.085   7.376
56595SOL    HW271625   2.245  13.071   7.229
56596SOL     OW71626  10.583  12.313   4.659
56596SOL    HW171627  10.547  12.392   4.617
56596SOL    HW271628  10.506  12.262   4.683
56597SOL     OW71629   7.049  14.445   0.246
56597SOL    HW171630   6.960  14.415   0.225
56597SOL    HW271631   7.070  14.401   0.328
56598SOL     OW71632   5.817   7.543   6.303
56598SOL    HW171633   5.856   7.456   6.300
56598SOL    HW271634   5.735   7.531   6.350
56599SOL     OW71635   4.658   1.727   0.936
56599SOL    HW171636   4.658   1.638   0.901
56599SOL    HW271637   4.662   1.715   1.031
56600SOL     OW71638  14.415   3.982  11.440
56600SOL    HW171639  14.368   3.971  11.523
56600SOL    HW271640  14.497   4.025  11.464
56601SOL     OW71641   4.539   4.532   3.583
56601SOL    HW171642   4.630   4.535   3.613
56601SOL    HW271643   4.545   4.544   3.488
56602SOL     OW71644  12.430   1.245   2.670
56602SOL    HW171645  12.458   1.323   2.622
56602SOL    HW271646  12.334   1.248   2.667
56603SOL     OW71647  12.816  10.345   4.850
56603SOL    HW171648  12.813  10.282   4.778
56603SOL    HW271649  12.793  10.295   4.928
56604SOL     OW71650   8.027   9.722  14.835
56604SOL    HW171651   8.023   9.791   0.025
56604SOL    HW271652   8.070   9.763  14.760
56605SOL     OW71653   4.903  13.000   3.927
56605SOL    HW171654   4.828  13.008   3.869
56605SOL    HW271655   4.865  12.986   4.014
56606SOL     OW71656   0.427   6.258   7.660
56606SOL    HW171657   0.450   6.348   7.636
56606SOL    HW271658   0.333   6.262   7.680
56607SOL     OW71659   7.897   3.378   1.959
56607SOL    HW171660   7.990   3.366   1.976
56607SOL    HW271661   7.884   3.346   1.869
56608SOL     OW71662   2.183  12.216   9.123
56608SOL    HW171663   2.095  12.248   9.142
56608SOL    HW271664   2.170  12.126   9.093
56609SOL     OW71665   9.180   3.731  14.731
56609SOL    HW171666   9.214   3.665  14.670
56609SOL    HW271667   9.246   3.736  14.800
56610SOL     OW71668  14.151  13.101   1.880
56610SOL    HW171669  14.197  13.033   1.831
56610SOL    HW271670  14.111  13.054   1.954
56611SOL     OW71671  14.736   8.067  11.293
56611SOL    HW171672  14.786   8.083  11.373
56611SOL    HW271673  14.795   8.016  11.238
56612SOL     OW71674   1.470   2.509  12.559
56612SOL    HW171675   1.386   2.472  12.589
56612SOL    HW271676   1.535   2.444  12.585
56613SOL     OW71677   8.124  13.363  12.911
56613SOL    HW171678   8.103  13.396  12.824
56613SOL    HW271679   8.077  13.281  12.918
56614SOL     OW71680   9.455   8.317  13.234
56614SOL    HW171681   9.468   8.224  13.212
56614SOL    HW271682   9.419   8.316  13.322
56615SOL     OW71683  12.956   6.464  10.138
56615SOL    HW171684  12.868   6.446  10.171
56615SOL    HW271685  12.956   6.558  10.121
56616SOL     OW71686   9.972  13.762   9.481
56616SOL    HW171687   9.891  13.811   9.470
56616SOL    HW271688   9.948  13.686   9.534
56617SOL     OW71689   0.528   5.224  11.023
56617SOL    HW171690   0.531   5.130  11.006
56617SOL    HW271691   0.476   5.260  10.951
56618SOL     OW71692  13.791   6.002  12.176
56618SOL    HW171693  13.802   6.095  12.196
56618SOL    HW271694  13.699   5.994  12.150
56619SOL     OW71695  12.295   3.146   5.940
56619SOL    HW171696  12.333   3.073   5.890
56619SOL    HW271697  12.239   3.104   6.005
56620SOL     OW71698   5.031  10.275   5.283
56620SOL    HW171699   5.069  10.362   5.288
56620SOL    HW271700   4.974  10.278   5.207
56621SOL     OW71701  11.165   8.290  13.577
56621SOL    HW171702  11.224   8.218  13.598
56621SOL    HW271703  11.148   8.280  13.483
56622SOL     OW71704  14.754   6.651  14.826
56622SOL    HW171705  14.664   6.672  14.852
56622SOL    HW271706  14.784   6.589   0.015
56623SOL     OW71707  10.725  12.478  13.428
56623SOL    HW171708  10.634  12.448  13.422
56623SOL    HW271709  10.730  12.549  13.364
56624SOL     OW71710   5.285   3.377   3.819
56624SOL    HW171711   5.249   3.292   3.794
56624SOL    HW271712   5.229   3.406   3.891
56625SOL     OW71713   5.375   2.462  14.800
56625SOL    HW171714   5.330   2.481  14.718
56625SOL    HW271715   5.355   2.371  14.819
56626SOL     OW71716  12.352  13.443  14.421
56626SOL    HW171717  12.268  13.425  14.464
56626SOL    HW271718  12.399  13.360  14.423
56627SOL     OW71719   7.981   6.523   1.152
56627SOL    HW171720   7.977   6.584   1.079
56627SOL    HW271721   7.907   6.547   1.208
56628SOL     OW71722   1.534  11.063   8.998
56628SOL    HW171723   1.508  11.000   8.930
56628SOL    HW271724   1.466  11.055   9.064
56629SOL     OW71725   4.477   0.339   0.951
56629SOL    HW171726   4.550   0.308   1.004
56629SOL    HW271727   4.399   0.313   1.000
56630SOL     OW71728  12.421  14.738   2.937
56630SOL    HW171729  12.450  14.727   3.027
56630SOL    HW271730  12.331  14.705   2.935
56631SOL     OW71731   1.093  13.999   2.434
56631SOL    HW171732   1.071  14.081   2.477
56631SOL    HW271733   1.106  13.937   2.506
56632SOL     OW71734   3.007   5.747   6.315
56632SOL    HW171735   3.021   5.715   6.404
56632SOL    HW271736   2.938   5.690   6.280
56633SOL     OW71737   9.347   5.096   5.771
56633SOL    HW171738   9.251   5.098   5.773
56633SOL    HW271739   9.370   5.009   5.803
56634SOL     OW71740  14.245  12.652   8.586
56634SOL    HW171741  14.166  12.620   8.630
56634SOL    HW271742  14.316  12.601   8.624
56635SOL     OW71743  10.852   4.620   3.498
56635SOL    HW171744  10.870   4.550   3.561
56635SOL    HW271745  10.903   4.596   3.420
56636SOL     OW71746   2.151   3.877  10.605
56636SOL    HW171747   2.213   3.939  10.567
56636SOL    HW271748   2.067   3.923  10.603
56637SOL     OW71749   3.529   4.722   7.576
56637SOL    HW171750   3.540   4.748   7.668
56637SOL    HW271751   3.608   4.673   7.555
56638SOL     OW71752   8.196  10.484   9.441
56638SOL    HW171753   8.181  10.504   9.534
56638SOL    HW271754   8.137  10.410   9.423
56639SOL     OW71755   4.469   6.912   6.333
56639SOL    HW171756   4.432   6.874   6.413
56639SOL    HW271757   4.396   6.960   6.294
56640SOL     OW71758   9.892   4.056  13.502
56640SOL    HW171759   9.863   3.975  13.544
56640SOL    HW271760   9.983   4.065  13.528
56641SOL     OW71761  10.302   4.248   1.758
56641SOL    HW171762  10.317   4.197   1.838
56641SOL    HW271763  10.317   4.339   1.784
56642SOL     OW71764  14.783   7.431  12.875
56642SOL    HW171765  14.876   7.454  12.874
56642SOL    HW271766  14.783   7.335  12.874
56643SOL     OW71767   6.387   8.915   6.614
56643SOL    HW171768   6.356   8.909   6.704
56643SOL    HW271769   6.460   8.854   6.609
56644SOL     OW71770   0.807   9.663   3.168
56644SOL    HW171771   0.750   9.596   3.131
56644SOL    HW271772   0.848   9.620   3.244
56645SOL     OW71773  12.717   6.636  13.865
56645SOL    HW171774  12.664   6.609  13.790
56645SOL    HW271775  12.661   6.698  13.913
56646SOL     OW71776   1.956   5.443   9.403
56646SOL    HW171777   1.865   5.437   9.374
56646SOL    HW271778   2.008   5.433   9.323
56647SOL     OW71779  10.865   7.218   8.812
56647SOL    HW171780  10.853   7.299   8.762
56647SOL    HW271781  10.954   7.189   8.790
56648SOL     OW71782   4.847  14.037  11.710
56648SOL    HW171783   4.915  14.078  11.764
56648SOL    HW271784   4.821  14.105  11.648
56649SOL     OW71785   8.890  13.857   6.331
56649SOL    HW171786   8.856  13.807   6.405
56649SOL    HW271787   8.980  13.877   6.355
56650SOL     OW71788  11.509  12.619  12.450
56650SOL    HW171789  11.562  12.644  12.526
56650SOL    HW271790  11.492  12.702  12.404
56651SOL     OW71791  14.519   9.878   7.484
56651SOL    HW171792  14.478   9.808   7.434
56651SOL    HW271793  14.445   9.934   7.510
56652SOL     OW71794   1.399  11.085   0.500
56652SOL    HW171795   1.386  11.148   0.572
56652SOL    HW271796   1.491  11.097   0.476
56653SOL     OW71797  13.987  12.386  13.587
56653SOL    HW171798  13.924  12.419  13.523
56653SOL    HW271799  14.050  12.336  13.535
56654SOL     OW71800   7.155   3.776   8.610
56654SOL    HW171801   7.187   3.850   8.560
56654SOL    HW271802   7.192   3.788   8.698
56655SOL     OW71803   6.051   3.458  13.403
56655SOL    HW171804   6.126   3.508  13.370
56655SOL    HW271805   6.089   3.378  13.437
56656SOL     OW71806   2.713   4.165   8.448
56656SOL    HW171807   2.644   4.148   8.512
56656SOL    HW271808   2.667   4.181   8.366
56657SOL     OW71809  10.890   1.777  11.619
56657SOL    HW171810  10.969   1.823  11.589
56657SOL    HW271811  10.843   1.842  11.672
56658SOL     OW71812  10.826   2.722  12.051
56658SOL    HW171813  10.735   2.722  12.083
56658SOL    HW271814  10.868   2.794  12.097
56659SOL     OW71815  10.598   9.780  12.131
56659SOL    HW171816  10.510   9.749  12.152
56659SOL    HW271817  10.656   9.710  12.161
56660SOL     OW71818   5.927   3.123   5.084
56660SOL    HW171819   5.926   3.146   5.177
56660SOL    HW271820   5.919   3.027   5.083
56661SOL     OW71821  11.762   1.745  13.071
56661SOL    HW171822  11.714   1.733  13.152
56661SOL    HW271823  11.701   1.719  13.002
56662SOL     OW71824   7.604  12.119  11.847
56662SOL    HW171825   7.536  12.169  11.892
56662SOL    HW271826   7.607  12.035  11.894
56663SOL     OW71827   0.006  10.583   9.845
56663SOL    HW171828  14.795  10.573   9.807
56663SOL    HW271829   0.023  10.500   9.889
56664SOL     OW71830   5.515   2.629  14.371
56664SOL    HW171831   5.564   2.671  14.301
56664SOL    HW271832   5.514   2.694  14.442
56665SOL     OW71833   1.189   1.432   3.943
56665SOL    HW171834   1.151   1.345   3.952
56665SOL    HW271835   1.283   1.417   3.943
56666SOL     OW71836   5.481   3.246  10.816
56666SOL    HW171837   5.401   3.294  10.841
56666SOL    HW271838   5.499   3.274  10.726
56667SOL     OW71839  10.834   2.728   1.094
56667SOL    HW171840  10.821   2.811   1.049
56667SOL    HW271841  10.929   2.714   1.094
56668SOL     OW71842   5.201   5.348  12.109
56668SOL    HW171843   5.120   5.312  12.145
56668SOL    HW271844   5.193   5.333  12.015
56669SOL     OW71845  13.053   1.742   5.083
56669SOL    HW171846  12.984   1.691   5.041
56669SOL    HW271847  13.128   1.683   5.085
56670SOL     OW71848  11.103   7.076   4.578
56670SOL    HW171849  11.011   7.071   4.550
56670SOL    HW271850  11.152   7.094   4.498
56671SOL     OW71851   9.459  11.031   5.407
56671SOL    HW171852   9.414  11.089   5.468
56671SOL    HW271853   9.420  10.945   5.421
56672SOL     OW71854   0.920  13.606  11.393
56672SOL    HW171855   0.939  13.698  11.409
56672SOL    HW271856   0.825  13.599  11.396
56673SOL     OW71857  14.120   3.505  12.724
56673SOL    HW171858  14.188   3.439  12.739
56673SOL    HW271859  14.121   3.521  12.630
56674SOL     OW71860   9.854   4.186  11.404
56674SOL    HW171861   9.800   4.118  11.364
56674SOL    HW271862   9.792   4.255  11.429
56675SOL     OW71863  10.352   1.074   2.078
56675SOL    HW171864  10.355   1.070   2.174
56675SOL    HW271865  10.318   0.989   2.052
56676SOL     OW71866  13.682   1.298   8.891
56676SOL    HW171867  13.753   1.237   8.868
56676SOL    HW271868  13.643   1.260   8.970
56677SOL     OW71869   1.335   1.135   5.302
56677SOL    HW171870   1.283   1.067   5.258
56677SOL    HW271871   1.381   1.087   5.371
56678SOL     OW71872   3.010   6.970   5.394
56678SOL    HW171873   3.090   6.918   5.384
56678SOL    HW271874   3.039   7.050   5.439
56679SOL     OW71875   8.156   1.151   9.704
56679SOL    HW171876   8.081   1.094   9.688
56679SOL    HW271877   8.158   1.210   9.628
56680SOL     OW71878   5.652  10.699   1.576
56680SOL    HW171879   5.630  10.750   1.654
56680SOL    HW271880   5.588  10.627   1.576
56681SOL     OW71881   5.701   9.804   4.686
56681SOL    HW171882   5.656   9.834   4.607
56681SOL    HW271883   5.785   9.850   4.685
56682SOL     OW71884   2.570  13.052   7.225
56682SOL    HW171885   2.571  13.115   7.153
56682SOL    HW271886   2.479  13.051   7.255
56683SOL     OW71887   4.858   4.196  12.865
56683SOL    HW171888   4.825   4.233  12.947
56683SOL    HW271889   4.885   4.272  12.814
56684SOL     OW71890  12.220   4.560   6.204
56684SOL    HW171891  12.192   4.505   6.277
56684SOL    HW271892  12.265   4.501   6.144
56685SOL     OW71893   5.778   5.623   0.404
56685SOL    HW171894   5.819   5.615   0.317
56685SOL    HW271895   5.685   5.630   0.386
56686SOL     OW71896   4.282   7.876   4.947
56686SOL    HW171897   4.297   7.787   4.917
56686SOL    HW271898   4.259   7.867   5.040
56687SOL     OW71899   3.645  11.336  13.286
56687SOL    HW171900   3.636  11.241  13.292
56687SOL    HW271901   3.570  11.364  13.234
56688SOL     OW71902   8.054  10.685   3.232
56688SOL    HW171903   8.086  10.627   3.300
56688SOL    HW271904   8.133  10.716   3.187
56689SOL     OW71905  10.368   3.118  13.213
56689SOL    HW171906  10.453   3.084  13.184
56689SOL    HW271907  10.383   3.212  13.227
56690SOL     OW71908   5.654  14.832   1.492
56690SOL    HW171909   5.649  14.842   1.397
56690SOL    HW271910   5.601  14.755   1.511
56691SOL     OW71911  12.843   2.430  11.083
56691SOL    HW171912  12.776   2.486  11.043
56691SOL    HW271913  12.793   2.360  11.125
56692SOL     OW71914   6.924   1.102  13.379
56692SOL    HW171915   6.839   1.106  13.336
56692SOL    HW271916   6.904   1.081  13.470
56693SOL     OW71917   0.476   0.702   0.162
56693SOL    HW171918   0.496   0.638   0.094
56693SOL    HW271919   0.415   0.657   0.220
56694SOL     OW71920   3.137   4.491   9.543
56694SOL    HW171921   3.209   4.431   9.565
56694SOL    HW271922   3.119   4.538   9.624
56695SOL     OW71923   7.318   1.937   9.650
56695SOL    HW171924   7.328   2.011   9.709
56695SOL    HW271925   7.369   1.867   9.689
56696SOL     OW71926  10.362   9.770   9.273
56696SOL    HW171927  10.390   9.835   9.208
56696SOL    HW271928  10.382   9.686   9.232
56697SOL     OW71929  12.309   3.200  14.060
56697SOL    HW171930  12.217   3.181  14.041
56697SOL    HW271931  12.357   3.130  14.016
56698SOL     OW71932   4.041   2.935  13.568
56698SOL    HW171933   3.969   2.966  13.513
56698SOL    HW271934   4.119   2.976  13.532
56699SOL     OW71935  12.080  12.770   9.195
56699SOL    HW171936  12.137  12.772   9.119
56699SOL    HW271937  12.122  12.829   9.258
56700SOL     OW71938  10.470   2.559   2.726
56700SOL    HW171939  10.436   2.648   2.739
56700SOL    HW271940  10.556   2.559   2.768
56701SOL     OW71941  12.531   0.697   6.323
56701SOL    HW171942  12.437   0.712   6.336
56701SOL    HW271943  12.550   0.731   6.236
56702SOL     OW71944  14.090   7.518  10.407
56702SOL    HW171945  14.020   7.569  10.368
56702SOL    HW271946  14.046   7.446  10.452
56703SOL     OW71947   6.598   0.463  14.009
56703SOL    HW171948   6.526   0.469  13.946
56703SOL    HW271949   6.624   0.370  14.008
56704SOL     OW71950   2.897  11.517  14.130
56704SOL    HW171951   2.928  11.479  14.048
56704SOL    HW271952   2.859  11.601  14.105
56705SOL     OW71953  11.670  14.497   0.231
56705SOL    HW171954  11.762  14.519   0.217
56705SOL    HW271955  11.648  14.537   0.315
56706SOL     OW71956   6.430  12.540   8.063
56706SOL    HW171957   6.427  12.480   8.138
56706SOL    HW271958   6.338  12.562   8.047
56707SOL     OW71959  10.316  11.005   9.568
56707SOL    HW171960  10.290  11.097   9.573
56707SOL    HW271961  10.283  10.975   9.483
56708SOL     OW71962   0.879   3.657   1.835
56708SOL    HW171963   0.913   3.695   1.916
56708SOL    HW271964   0.867   3.733   1.777
56709SOL     OW71965   8.393   6.482   0.942
56709SOL    HW171966   8.446   6.456   1.017
56709SOL    HW271967   8.443   6.552   0.900
56710SOL     OW71968   2.179  12.482   4.185
56710SOL    HW171969   2.087  12.499   4.205
56710SOL    HW271970   2.177  12.398   4.138
56711SOL     OW71971   5.826   2.933   2.814
56711SOL    HW171972   5.792   2.990   2.883
56711SOL    HW271973   5.891   2.878   2.859
56712SOL     OW71974  13.406   2.287   0.897
56712SOL    HW171975  13.324   2.266   0.853
56712SOL    HW271976  13.465   2.215   0.874
56713SOL     OW71977  10.022   0.865   5.317
56713SOL    HW171978  10.114   0.838   5.321
56713SOL    HW271979  10.004   0.899   5.405
56714SOL     OW71980   3.361   2.113   0.825
56714SOL    HW171981   3.395   2.102   0.913
56714SOL    HW271982   3.266   2.122   0.836
56715SOL     OW71983   0.078   0.118  14.019
56715SOL    HW171984   0.032   0.200  14.002
56715SOL    HW271985   0.138   0.108  13.945
56716SOL     OW71986  14.704  10.955   9.189
56716SOL    HW171987  14.687  11.046   9.167
56716SOL    HW271988  14.618  10.916   9.202
56717SOL     OW71989   9.670  11.093  13.891
56717SOL    HW171990   9.746  11.096  13.833
56717SOL    HW271991   9.669  11.178  13.934
56718SOL     OW71992  14.649   0.173  13.705
56718SOL    HW171993  14.667   0.254  13.754
56718SOL    HW271994  14.732   0.153  13.662
56719SOL     OW71995   0.184   9.532   2.935
56719SOL    HW171996   0.240   9.586   2.879
56719SOL    HW271997   0.215   9.550   3.024
56720SOL     OW71998  13.350  12.873   4.419
56720SOL    HW171999  13.347  12.899   4.511
56720SOL    HW272000  13.259  12.875   4.390
56721SOL     OW72001   7.807   9.210  12.827
56721SOL    HW172002   7.753   9.133  12.811
56721SOL    HW272003   7.862   9.218  12.750
56722SOL     OW72004   4.264  14.681  12.569
56722SOL    HW172005   4.341  14.688  12.512
56722SOL    HW272006   4.268  14.759  12.624
56723SOL     OW72007  11.609   0.345   8.680
56723SOL    HW172008  11.578   0.256   8.662
56723SOL    HW272009  11.703   0.341   8.665
56724SOL     OW72010   2.680   9.657   7.146
56724SOL    HW172011   2.641   9.592   7.087
56724SOL    HW272012   2.745   9.608   7.196
56725SOL     OW72013  14.739   1.477   5.648
56725SOL    HW172014  14.739   1.552   5.707
56725SOL    HW272015  14.656   1.433   5.664
56726SOL     OW72016   8.710   3.373  12.284
56726SOL    HW172017   8.778   3.397  12.220
56726SOL    HW272018   8.628   3.396  12.241
56727SOL     OW72019   3.852   8.037  14.717
56727SOL    HW172020   3.917   7.982  14.674
56727SOL    HW272021   3.902   8.110  14.754
56728SOL     OW72022  13.880   0.835  14.104
56728SOL    HW172023  13.861   0.890  14.180
56728SOL    HW272024  13.839   0.879  14.030
56729SOL     OW72025  11.140  11.577   7.793
56729SOL    HW172026  11.209  11.568   7.859
56729SOL    HW272027  11.107  11.667   7.805
56730SOL     OW72028   1.040  13.607  13.434
56730SOL    HW172029   1.108  13.541  13.423
56730SOL    HW272030   0.961  13.556  13.453
56731SOL     OW72031   8.611   8.857   7.659
56731SOL    HW172032   8.704   8.872   7.675
56731SOL    HW272033   8.593   8.903   7.577
56732SOL     OW72034   0.011   2.920   9.395
56732SOL    HW172035  14.872   3.013   9.380
56732SOL    HW272036   0.074   2.895   9.328
56733SOL     OW72037   2.374   7.026   2.012
56733SOL    HW172038   2.456   7.058   2.050
56733SOL    HW272039   2.325   6.992   2.087
56734SOL     OW72040   4.507   0.232  14.343
56734SOL    HW172041   4.490   0.159  14.402
56734SOL    HW272042   4.538   0.192  14.263
56735SOL     OW72043  13.029   4.810   3.831
56735SOL    HW172044  13.046   4.716   3.827
56735SOL    HW272045  13.080   4.839   3.907
56736SOL     OW72046  13.880  14.345   0.339
56736SOL    HW172047  13.859  14.352   0.246
56736SOL    HW272048  13.926  14.261   0.347
56737SOL     OW72049  12.664   9.120  11.561
56737SOL    HW172050  12.753   9.087  11.571
56737SOL    HW272051  12.615   9.047  11.525
56738SOL     OW72052   0.468   2.295   1.105
56738SOL    HW172053   0.455   2.310   1.011
56738SOL    HW272054   0.559   2.319   1.121
56739SOL     OW72055  12.701  11.436   0.318
56739SOL    HW172056  12.695  11.409   0.410
56739SOL    HW272057  12.656  11.367   0.270
56740SOL     OW72058  14.661   9.757  12.809
56740SOL    HW172059  14.611   9.728  12.886
56740SOL    HW272060  14.608   9.730  12.734
56741SOL     OW72061   1.254  14.482   5.823
56741SOL    HW172062   1.267  14.577   5.826
56741SOL    HW272063   1.164  14.469   5.854
56742SOL     OW72064   8.280  14.018   9.264
56742SOL    HW172065   8.278  14.094   9.207
56742SOL    HW272066   8.240  13.948   9.212
56743SOL     OW72067   4.252   4.205   1.901
56743SOL    HW172068   4.272   4.299   1.894
56743SOL    HW272069   4.301   4.165   1.829
56744SOL     OW72070   1.698   2.468  13.172
56744SOL    HW172071   1.734   2.549  13.207
56744SOL    HW272072   1.639   2.436  13.240
56745SOL     OW72073  13.639   8.845   7.303
56745SOL    HW172074  13.717   8.901   7.309
56745SOL    HW272075  13.636   8.818   7.212
56746SOL     OW72076   4.721   8.498   6.291
56746SOL    HW172077   4.743   8.478   6.200
56746SOL    HW272078   4.756   8.425   6.341
56747SOL     OW72079  13.151   9.023   0.336
56747SOL    HW172080  13.118   8.934   0.324
56747SOL    HW272081  13.117   9.072   0.261
56748SOL     OW72082  14.144  10.232   9.517
56748SOL    HW172083  14.215  10.232   9.452
56748SOL    HW272084  14.074  10.183   9.476
56749SOL     OW72085  14.399   3.250   1.364
56749SOL    HW172086  14.468   3.197   1.405
56749SOL    HW272087  14.321   3.196   1.371
56750SOL     OW72088  14.374  14.111   3.009
56750SOL    HW172089  14.390  14.205   3.016
56750SOL    HW272090  14.440  14.080   2.947
56751SOL     OW72091  13.070  10.530   1.263
56751SOL    HW172092  13.026  10.611   1.238
56751SOL    HW272093  13.140  10.557   1.322
56752SOL     OW72094   4.959   5.527   3.442
56752SOL    HW172095   4.897   5.485   3.382
56752SOL    HW272096   5.041   5.480   3.428
56753SOL     OW72097  11.974   9.692  13.530
56753SOL    HW172098  11.947   9.778  13.562
56753SOL    HW272099  12.046   9.667  13.587
56754SOL     OW72100   1.513  11.215   1.897
56754SOL    HW172101   1.477  11.176   1.977
56754SOL    HW272102   1.529  11.307   1.920
56755SOL     OW72103  14.465  13.264   9.948
56755SOL    HW172104  14.484  13.242   9.856
56755SOL    HW272105  14.386  13.214   9.968
56756SOL     OW72106   5.087   4.082   3.755
56756SOL    HW172107   5.002   4.061   3.716
56756SOL    HW272108   5.066   4.109   3.845
56757SOL     OW72109   7.696   7.802  10.533
56757SOL    HW172110   7.647   7.758  10.603
56757SOL    HW272111   7.776   7.833  10.576
56758SOL     OW72112   3.424  13.425   2.607
56758SOL    HW172113   3.442  13.454   2.518
56758SOL    HW272114   3.389  13.336   2.596
56759SOL     OW72115  14.326   0.156   2.524
56759SOL    HW172116  14.311   0.154   2.430
56759SOL    HW272117  14.344   0.248   2.543
56760SOL     OW72118  13.002  10.787   5.179
56760SOL    HW172119  13.064  10.729   5.223
56760SOL    HW272120  12.928  10.732   5.156
56761SOL     OW72121   2.171   8.160   7.665
56761SOL    HW172122   2.190   8.088   7.725
56761SOL    HW272123   2.086   8.138   7.627
56762SOL     OW72124   3.712   6.119   6.856
56762SOL    HW172125   3.684   6.108   6.765
56762SOL    HW272126   3.635   6.153   6.901
56763SOL     OW72127   2.701  10.433  10.426
56763SOL    HW172128   2.679  10.365  10.489
56763SOL    HW272129   2.746  10.387  10.355
56764SOL     OW72130   5.585  10.116   1.929
56764SOL    HW172131   5.491  10.117   1.945
56764SOL    HW272132   5.598  10.179   1.858
56765SOL     OW72133   6.648   1.870   8.025
56765SOL    HW172134   6.641   1.963   8.001
56765SOL    HW272135   6.642   1.823   7.941
56766SOL     OW72136  11.740   6.498  13.212
56766SOL    HW172137  11.662   6.524  13.261
56766SOL    HW272138  11.771   6.419  13.255
56767SOL     OW72139  13.752   5.372  14.513
56767SOL    HW172140  13.759   5.321  14.432
56767SOL    HW272141  13.678   5.332  14.559
56768SOL     OW72142   3.977   2.673  12.288
56768SOL    HW172143   3.917   2.748  12.293
56768SOL    HW272144   3.934   2.605  12.339
56769SOL     OW72145   4.555  13.770   1.377
56769SOL    HW172146   4.488  13.779   1.310
56769SOL    HW272147   4.540  13.682   1.414
56770SOL     OW72148  14.592  12.360   5.946
56770SOL    HW172149  14.613  12.296   6.014
56770SOL    HW272150  14.516  12.322   5.900
56771SOL     OW72151  10.276   9.515  13.423
56771SOL    HW172152  10.332   9.499  13.498
56771SOL    HW272153  10.334   9.555  13.358
56772SOL     OW72154  14.261   4.552  10.949
56772SOL    HW172155  14.207   4.571  11.025
56772SOL    HW272156  14.228   4.469  10.916
56773SOL     OW72157  11.273   3.438  14.239
56773SOL    HW172158  11.342   3.500  14.214
56773SOL    HW272159  11.192   3.480  14.210
56774SOL     OW72160   4.832  13.961   4.761
56774SOL    HW172161   4.809  13.870   4.743
56774SOL    HW272162   4.924  13.958   4.786
56775SOL     OW72163   1.181   5.383  11.241
56775SOL    HW172164   1.178   5.467  11.288
56775SOL    HW272165   1.183   5.317  11.310
56776SOL     OW72166   4.123   5.320   1.763
56776SOL    HW172167   4.195   5.258   1.771
56776SOL    HW272168   4.143   5.370   1.684
56777SOL     OW72169   7.756   1.955   1.484
56777SOL    HW172170   7.771   1.865   1.456
56777SOL    HW272171   7.774   1.953   1.578
56778SOL     OW72172   7.531   9.673  11.788
56778SOL    HW172173   7.615   9.714  11.767
56778SOL    HW272174   7.550   9.580  11.790
56779SOL     OW72175   9.548   5.494  13.084
56779SOL    HW172176   9.629   5.443  13.087
56779SOL    HW272177   9.536   5.513  12.991
56780SOL     OW72178   2.327   8.057   1.599
56780SOL    HW172179   2.418   8.078   1.581
56780SOL    HW272180   2.307   8.106   1.679
56781SOL     OW72181  13.697   4.701  10.060
56781SOL    HW172182  13.785   4.676  10.032
56781SOL    HW272183  13.708   4.788  10.098
56782SOL     OW72184   6.303  13.844   1.820
56782SOL    HW172185   6.259  13.822   1.737
56782SOL    HW272186   6.319  13.938   1.814
56783SOL     OW72187   8.567  11.653   7.851
56783SOL    HW172188   8.606  11.740   7.853
56783SOL    HW272189   8.523  11.644   7.935
56784SOL     OW72190   6.858   0.120  12.846
56784SOL    HW172191   6.892   0.076  12.768
56784SOL    HW272192   6.783   0.067  12.873
56785SOL     OW72193  13.336  11.888   2.144
56785SOL    HW172194  13.378  11.902   2.059
56785SOL    HW272195  13.405  11.906   2.208
56786SOL     OW72196   7.333  10.859   8.145
56786SOL    HW172197   7.303  10.817   8.225
56786SOL    HW272198   7.335  10.789   8.080
56787SOL     OW72199   5.430   0.048   3.207
56787SOL    HW172200   5.354   0.069   3.153
56787SOL    HW272201   5.398  14.857   3.268
56788SOL     OW72202   8.010   2.622   0.036
56788SOL    HW172203   8.099   2.608   0.005
56788SOL    HW272204   8.000   2.717   0.038
56789SOL     OW72205  14.355   9.889  12.279
56789SOL    HW172206  14.337   9.845  12.363
56789SOL    HW272207  14.450   9.884  12.270
56790SOL     OW72208   9.780  11.536  11.958
56790SOL    HW172209   9.774  11.446  11.989
56790SOL    HW272210   9.756  11.589  12.034
56791SOL     OW72211   8.966   6.032   7.836
56791SOL    HW172212   8.940   6.124   7.838
56791SOL    HW272213   8.884   5.985   7.823
56792SOL     OW72214   9.004   5.666   5.751
56792SOL    HW172215   8.945   5.719   5.697
56792SOL    HW272216   9.081   5.654   5.695
56793SOL     OW72217   9.845  14.584   8.796
56793SOL    HW172218   9.841  14.546   8.883
56793SOL    HW272219   9.921  14.641   8.797
56794SOL     OW72220   5.619   8.960   7.557
56794SOL    HW172221   5.694   8.982   7.612
56794SOL    HW272222   5.605   9.039   7.503
56795SOL     OW72223  10.802  14.640   4.162
56795SOL    HW172224  10.782  14.619   4.071
56795SOL    HW272225  10.802  14.735   4.166
56796SOL     OW72226  12.443   3.516   6.330
56796SOL    HW172227  12.486   3.587   6.377
56796SOL    HW272228  12.505   3.490   6.262
56797SOL     OW72229   4.131   3.877   2.684
56797SOL    HW172230   4.122   3.965   2.722
56797SOL    HW272231   4.048   3.835   2.702
56798SOL     OW72232   1.255   8.465   9.687
56798SOL    HW172233   1.200   8.483   9.611
56798SOL    HW272234   1.197   8.480   9.762
56799SOL     OW72235  11.354   0.533   6.548
56799SOL    HW172236  11.422   0.467   6.557
56799SOL    HW272237  11.371   0.596   6.619
56800SOL     OW72238   2.125  10.898  13.868
56800SOL    HW172239   2.140  10.822  13.924
56800SOL    HW272240   2.213  10.929  13.846
56801SOL     OW72241   4.270   0.846  14.523
56801SOL    HW172242   4.275   0.844  14.619
56801SOL    HW272243   4.227   0.764  14.500
56802SOL     OW72244  11.011   3.433   1.259
56802SOL    HW172245  10.963   3.378   1.196
56802SOL    HW272246  10.992   3.393   1.344
56803SOL     OW72247  11.652  11.357   6.574
56803SOL    HW172248  11.697  11.303   6.508
56803SOL    HW272249  11.612  11.294   6.634
56804SOL     OW72250  12.440   1.131   7.650
56804SOL    HW172251  12.376   1.159   7.584
56804SOL    HW272252  12.395   1.062   7.699
56805SOL     OW72253   8.992   5.515   4.868
56805SOL    HW172254   8.996   5.611   4.873
56805SOL    HW272255   9.080   5.486   4.890
56806SOL     OW72256   3.060   3.010  10.117
56806SOL    HW172257   2.974   3.006  10.158
56806SOL    HW272258   3.105   2.932  10.148
56807SOL     OW72259  10.603  12.932  12.919
56807SOL    HW172260  10.645  12.904  12.838
56807SOL    HW272261  10.547  13.006  12.894
56808SOL     OW72262   1.385   5.033   4.718
56808SOL    HW172263   1.401   5.109   4.661
56808SOL    HW272264   1.472   5.007   4.748
56809SOL     OW72265   9.335   8.946   3.549
56809SOL    HW172266   9.411   8.992   3.513
56809SOL    HW272267   9.282   9.016   3.588
56810SOL     OW72268   5.068   8.753  14.403
56810SOL    HW172269   5.057   8.719  14.492
56810SOL    HW272270   5.037   8.682  14.346
56811SOL     OW72271   6.556   7.709   4.064
56811SOL    HW172272   6.501   7.646   4.110
56811SOL    HW272273   6.494   7.769   4.023
56812SOL     OW72274  11.817   7.948  11.508
56812SOL    HW172275  11.805   7.884  11.578
56812SOL    HW272276  11.890   7.913  11.456
56813SOL     OW72277  12.324  12.026   6.381
56813SOL    HW172278  12.408  11.986   6.363
56813SOL    HW272279  12.335  12.118   6.356
56814SOL     OW72280   8.312  13.300   0.745
56814SOL    HW172281   8.401  13.282   0.715
56814SOL    HW272282   8.303  13.248   0.826
56815SOL     OW72283  11.037   2.165   0.242
56815SOL    HW172284  11.069   2.243   0.288
56815SOL    HW272285  11.027   2.100   0.311
56816SOL     OW72286   6.632  14.737   7.713
56816SOL    HW172287   6.567  14.807   7.700
56816SOL    HW272288   6.584  14.668   7.759
56817SOL     OW72289   0.399   8.726  14.030
56817SOL    HW172290   0.396   8.737  13.935
56817SOL    HW272291   0.484   8.685  14.046
56818SOL     OW72292   9.555  13.163   9.174
56818SOL    HW172293   9.510  13.233   9.127
56818SOL    HW272294   9.646  13.169   9.146
56819SOL     OW72295   3.255   9.430  12.990
56819SOL    HW172296   3.252   9.377  13.069
56819SOL    HW272297   3.196   9.504  13.009
56820SOL     OW72298   8.585   7.830  10.561
56820SOL    HW172299   8.557   7.813  10.471
56820SOL    HW272300   8.651   7.899  10.554
56821SOL     OW72301  12.563   1.365  12.378
56821SOL    HW172302  12.646   1.376  12.423
56821SOL    HW272303  12.497   1.363  12.448
56822SOL     OW72304  11.455  10.483   8.143
56822SOL    HW172305  11.487  10.403   8.101
56822SOL    HW272306  11.398  10.451   8.213
56823SOL     OW72307  10.834   9.059  14.608
56823SOL    HW172308  10.797   9.142  14.637
56823SOL    HW272309  10.869   9.077  14.521
56824SOL     OW72310  14.492   4.731  10.195
56824SOL    HW172311  14.468   4.644  10.226
56824SOL    HW272312  14.586   4.737  10.212
56825SOL     OW72313  11.737  10.469  10.081
56825SOL    HW172314  11.806  10.415  10.045
56825SOL    HW272315  11.657  10.439  10.037
56826SOL     OW72316   1.125  11.815   5.524
56826SOL    HW172317   1.133  11.741   5.585
56826SOL    HW272318   1.190  11.878   5.555
56827SOL     OW72319   0.710   8.747   0.293
56827SOL    HW172320   0.771   8.791   0.353
56827SOL    HW272321   0.767   8.697   0.234
56828SOL     OW72322   0.548   9.807  13.827
56828SOL    HW172323   0.528   9.896  13.798
56828SOL    HW272324   0.545   9.811  13.922
56829SOL     OW72325   2.930   1.093   2.063
56829SOL    HW172326   2.896   1.163   2.007
56829SOL    HW272327   3.016   1.124   2.092
56830SOL     OW72328  10.693   0.994  14.588
56830SOL    HW172329  10.663   0.922  14.533
56830SOL    HW272330  10.618   1.053  14.594
56831SOL     OW72331  14.619   1.315   4.174
56831SOL    HW172332  14.600   1.323   4.081
56831SOL    HW272333  14.688   1.249   4.179
56832SOL     OW72334  13.962   6.838   0.401
56832SOL    HW172335  14.023   6.782   0.448
56832SOL    HW272336  13.952   6.916   0.456
56833SOL     OW72337   6.658  12.475   1.177
56833SOL    HW172338   6.717  12.402   1.193
56833SOL    HW272339   6.707  12.534   1.120
56834SOL     OW72340   1.492   9.388   4.053
56834SOL    HW172341   1.402   9.360   4.063
56834SOL    HW272342   1.545   9.313   4.081
56835SOL     OW72343   6.861  12.364   5.375
56835SOL    HW172344   6.847  12.403   5.288
56835SOL    HW272345   6.954  12.379   5.392
56836SOL     OW72346  13.917   2.793   6.255
56836SOL    HW172347  14.000   2.829   6.287
56836SOL    HW272348  13.942   2.711   6.213
56837SOL     OW72349   6.615   2.477   5.754
56837SOL    HW172350   6.689   2.417   5.747
56837SOL    HW272351   6.655   2.563   5.765
56838SOL     OW72352   6.219   5.288  10.715
56838SOL    HW172353   6.206   5.278  10.620
56838SOL    HW272354   6.313   5.303  10.724
56839SOL     OW72355  14.316   3.963   3.612
56839SOL    HW172356  14.330   3.895   3.546
56839SOL    HW272357  14.374   4.034   3.586
56840SOL     OW72358   1.521   8.672   6.072
56840SOL    HW172359   1.545   8.764   6.086
56840SOL    HW272360   1.432   8.674   6.039
56841SOL     OW72361  11.821   2.041   7.108
56841SOL    HW172362  11.848   2.099   7.037
56841SOL    HW272363  11.830   1.953   7.072
56842SOL     OW72364   5.454   8.540  12.099
56842SOL    HW172365   5.409   8.464  12.137
56842SOL    HW272366   5.547   8.520  12.108
56843SOL     OW72367   6.983  11.686  13.266
56843SOL    HW172368   6.974  11.594  13.239
56843SOL    HW272369   6.948  11.736  13.193
56844SOL     OW72370  10.955   0.114   3.282
56844SOL    HW172371  10.921   0.025   3.284
56844SOL    HW272372  10.959   0.136   3.189
56845SOL     OW72373  12.635   9.767   8.117
56845SOL    HW172374  12.645   9.860   8.136
56845SOL    HW272375  12.681   9.723   8.189
56846SOL     OW72376   9.082   3.142   5.511
56846SOL    HW172377   9.048   3.066   5.558
56846SOL    HW272378   9.090   3.211   5.577
56847SOL     OW72379   0.836   6.751   1.000
56847SOL    HW172380   0.920   6.782   0.966
56847SOL    HW272381   0.772   6.810   0.962
56848SOL     OW72382   7.676   4.889  10.473
56848SOL    HW172383   7.684   4.977  10.436
56848SOL    HW272384   7.637   4.902  10.559
56849SOL     OW72385  12.747   8.541   4.373
56849SOL    HW172386  12.770   8.451   4.350
56849SOL    HW272387  12.703   8.534   4.458
56850SOL     OW72388   1.596   3.541   3.657
56850SOL    HW172389   1.670   3.595   3.629
56850SOL    HW272390   1.632   3.452   3.659
56851SOL     OW72391  10.240  10.521   6.008
56851SOL    HW172392  10.327  10.525   5.967
56851SOL    HW272393  10.256  10.545   6.099
56852SOL     OW72394   6.390   2.627  13.209
56852SOL    HW172395   6.416   2.631  13.117
56852SOL    HW272396   6.412   2.538  13.236
56853SOL     OW72397   9.086  12.441   3.498
56853SOL    HW172398   9.129  12.488   3.426
56853SOL    HW272399   9.009  12.493   3.519
56854SOL     OW72400   2.108   2.984   0.582
56854SOL    HW172401   2.183   3.041   0.562
56854SOL    HW272402   2.052   2.989   0.504
56855SOL     OW72403  11.962   5.030   9.058
56855SOL    HW172404  11.914   4.950   9.038
56855SOL    HW272405  11.902   5.101   9.035
56856SOL     OW72406   7.396   4.692   8.766
56856SOL    HW172407   7.327   4.639   8.726
56856SOL    HW272408   7.476   4.664   8.720
56857SOL     OW72409  12.307   6.520   4.679
56857SOL    HW172410  12.310   6.517   4.583
56857SOL    HW272411  12.291   6.429   4.706
56858SOL     OW72412  12.173  11.338  13.509
56858SOL    HW172413  12.176  11.286  13.429
56858SOL    HW272414  12.192  11.427  13.481
56859SOL     OW72415  13.721   3.169   9.697
56859SOL    HW172416  13.732   3.231   9.625
56859SOL    HW272417  13.783   3.199   9.764
56860SOL     OW72418  10.014  12.421   5.024
56860SOL    HW172419  10.065  12.501   5.035
56860SOL    HW272420   9.942  12.430   5.087
56861SOL     OW72421   2.781   9.899   1.430
56861SOL    HW172422   2.837   9.921   1.355
56861SOL    HW272423   2.707   9.959   1.425
56862SOL     OW72424  10.319  10.654  11.964
56862SOL    HW172425  10.364  10.585  11.917
56862SOL    HW272426  10.307  10.619  12.053
56863SOL     OW72427   5.396  10.888   3.049
56863SOL    HW172428   5.346  10.808   3.034
56863SOL    HW272429   5.338  10.943   3.101
56864SOL     OW72430  12.554   8.925  11.168
56864SOL    HW172431  12.594   8.991  11.112
56864SOL    HW272432  12.566   8.842  11.122
56865SOL     OW72433   8.292   3.114  10.199
56865SOL    HW172434   8.385   3.106  10.176
56865SOL    HW272435   8.285   3.072  10.285
56866SOL     OW72436   2.288   6.896   6.444
56866SOL    HW172437   2.291   6.959   6.372
56866SOL    HW272438   2.194   6.881   6.459
56867SOL     OW72439   0.002  14.516   8.740
56867SOL    HW172440   0.077  14.457   8.744
56867SOL    HW272441   0.027  14.590   8.795
56868SOL     OW72442  12.246   4.244   9.112
56868SOL    HW172443  12.272   4.316   9.169
56868SOL    HW272444  12.167   4.275   9.067
56869SOL     OW72445  13.494  14.669   4.840
56869SOL    HW172446  13.412  14.710   4.811
56869SOL    HW272447  13.470  14.578   4.858
56870SOL     OW72448   2.196   0.843   3.305
56870SOL    HW172449   2.224   0.811   3.219
56870SOL    HW272450   2.206   0.767   3.362
56871SOL     OW72451  14.813   9.503   0.054
56871SOL    HW172452  14.796   9.509  14.836
56871SOL    HW272453  14.790   9.413   0.077
56872SOL     OW72454   7.396  14.100   1.235
56872SOL    HW172455   7.491  14.111   1.226
56872SOL    HW272456   7.366  14.180   1.277
56873SOL     OW72457  10.200   4.416   7.782
56873SOL    HW172458  10.243   4.502   7.781
56873SOL    HW272459  10.162   4.409   7.869
56874SOL     OW72460   2.381  13.871  11.151
56874SOL    HW172461   2.381  13.847  11.058
56874SOL    HW272462   2.347  13.794  11.196
56875SOL     OW72463   1.387   5.430   3.397
56875SOL    HW172464   1.340   5.446   3.315
56875SOL    HW272465   1.386   5.335   3.408
56876SOL     OW72466  10.682  13.904   5.667
56876SOL    HW172467  10.603  13.889   5.718
56876SOL    HW272468  10.667  13.858   5.584
56877SOL     OW72469   7.258   5.345   0.531
56877SOL    HW172470   7.303   5.423   0.497
56877SOL    HW272471   7.266   5.281   0.461
56878SOL     OW72472   2.321   9.227   1.979
56878SOL    HW172473   2.298   9.298   2.040
56878SOL    HW272474   2.373   9.270   1.911
56879SOL     OW72475   0.500   8.203  12.360
56879SOL    HW172476   0.518   8.128  12.303
56879SOL    HW272477   0.530   8.175  12.446
56880SOL     OW72478   6.986   4.966   9.335
56880SOL    HW172479   6.992   5.006   9.248
56880SOL    HW272480   6.900   4.992   9.367
56881SOL     OW72481   2.914   5.408  12.640
56881SOL    HW172482   2.973   5.386  12.711
56881SOL    HW272483   2.965   5.391  12.560
56882SOL     OW72484   7.828   4.196   1.858
56882SOL    HW172485   7.914   4.158   1.879
56882SOL    HW272486   7.792   4.138   1.791
56883SOL     OW72487   3.047   7.494   3.889
56883SOL    HW172488   3.061   7.400   3.880
56883SOL    HW272489   3.118   7.534   3.839
56884SOL     OW72490   1.801  14.292  11.201
56884SOL    HW172491   1.799  14.303  11.296
56884SOL    HW272492   1.726  14.235  11.182
56885SOL     OW72493  11.125  13.735  10.389
56885SOL    HW172494  11.065  13.789  10.338
56885SOL    HW272495  11.197  13.714  10.329
56886SOL     OW72496   8.275   7.833   4.140
56886SOL    HW172497   8.363   7.868   4.123
56886SOL    HW272498   8.237   7.819   4.054
56887SOL     OW72499  11.800   1.583   2.470
56887SOL    HW172500  11.888   1.572   2.506
56887SOL    HW272501  11.815   1.602   2.377
56888SOL     OW72502  12.909   0.041   9.589
56888SOL    HW172503  12.894   0.133   9.564
56888SOL    HW272504  12.866   0.033   9.674
56889SOL     OW72505   2.848  11.225   2.154
56889SOL    HW172506   2.887  11.153   2.104
56889SOL    HW272507   2.862  11.201   2.245
56890SOL     OW72508   3.724  10.316   8.767
56890SOL    HW172509   3.769  10.380   8.822
56890SOL    HW272510   3.663  10.272   8.826
56891SOL     OW72511   9.383   4.708   5.603
56891SOL    HW172512   9.418   4.623   5.628
56891SOL    HW272513   9.420   4.725   5.517
56892SOL     OW72514  10.215  12.272  11.070
56892SOL    HW172515  10.135  12.309  11.032
56892SOL    HW272516  10.269  12.347  11.091
56893SOL     OW72517   5.351   4.158   9.904
56893SOL    HW172518   5.372   4.115   9.821
56893SOL    HW272519   5.287   4.225   9.881
56894SOL     OW72520  13.809   6.159   4.854
56894SOL    HW172521  13.833   6.122   4.769
56894SOL    HW272522  13.883   6.215   4.877
56895SOL     OW72523  13.417  10.048   7.343
56895SOL    HW172524  13.488  10.106   7.373
56895SOL    HW272525  13.383  10.092   7.265
56896SOL     OW72526  11.577   1.104   8.808
56896SOL    HW172527  11.593   1.012   8.788
56896SOL    HW272528  11.550   1.142   8.724
56897SOL     OW72529  10.524  13.878  10.789
56897SOL    HW172530  10.452  13.920  10.742
56897SOL    HW272531  10.480  13.827  10.858
56898SOL     OW72532   7.138   0.094  10.358
56898SOL    HW172533   7.185   0.115  10.277
56898SOL    HW272534   7.057   0.052  10.328
56899SOL     OW72535  14.688  12.010   4.203
56899SOL    HW172536  14.606  12.053   4.178
56899SOL    HW272537  14.755  12.077   4.191
56900SOL     OW72538  11.963   3.585   4.351
56900SOL    HW172539  11.975   3.609   4.259
56900SOL    HW272540  11.869   3.593   4.365
56901SOL     OW72541   9.541   5.733  13.507
56901SOL    HW172542   9.536   5.801  13.575
56901SOL    HW272543   9.450   5.721  13.479
56902SOL     OW72544   2.936   9.815  12.040
56902SOL    HW172545   2.984   9.741  12.077
56902SOL    HW272546   2.993   9.847  11.970
56903SOL     OW72547   1.270   9.874   8.185
56903SOL    HW172548   1.231   9.800   8.139
56903SOL    HW272549   1.295   9.935   8.115
56904SOL     OW72550   3.211  12.214  14.360
56904SOL    HW172551   3.270  12.200  14.286
56904SOL    HW272552   3.124  12.215  14.320
56905SOL     OW72553  14.829  11.467   0.187
56905SOL    HW172554  14.768  11.523   0.139
56905SOL    HW272555  14.862  11.524   0.257
56906SOL     OW72556   3.732  13.202   1.343
56906SOL    HW172557   3.699  13.115   1.323
56906SOL    HW272558   3.766  13.196   1.433
56907SOL     OW72559   4.218  10.999   8.054
56907SOL    HW172560   4.203  10.946   7.976
56907SOL    HW272561   4.256  10.938   8.117
56908SOL     OW72562   1.311   0.662   2.342
56908SOL    HW172563   1.388   0.605   2.334
56908SOL    HW272564   1.293   0.691   2.252
56909SOL     OW72565   5.327  11.334   1.654
56909SOL    HW172566   5.234  11.315   1.663
56909SOL    HW272567   5.338  11.363   1.564
56910SOL     OW72568   0.572   5.499  13.805
56910SOL    HW172569   0.556   5.589  13.833
56910SOL    HW272570   0.488   5.454  13.818
56911SOL     OW72571   2.966   1.550   9.833
56911SOL    HW172572   3.057   1.549   9.863
56911SOL    HW272573   2.966   1.613   9.761
56912SOL     OW72574   2.855   6.722   8.571
56912SOL    HW172575   2.809   6.640   8.556
56912SOL    HW272576   2.871   6.724   8.666
56913SOL     OW72577   9.448   9.454  10.680
56913SOL    HW172578   9.458   9.549  10.673
56913SOL    HW272579   9.357   9.437  10.653
56914SOL     OW72580  14.815  14.637   7.239
56914SOL    HW172581   0.010  14.662   7.179
56914SOL    HW272582  14.820  14.541   7.243
56915SOL     OW72583   9.889  10.449   2.684
56915SOL    HW172584   9.962  10.510   2.689
56915SOL    HW272585   9.902  10.389   2.757
56916SOL     OW72586   0.164   6.529  13.296
56916SOL    HW172587   0.146   6.528  13.389
56916SOL    HW272588   0.254   6.562  13.289
56917SOL     OW72589  10.469  14.454   9.105
56917SOL    HW172590  10.417  14.464   9.185
56917SOL    HW272591  10.446  14.530   9.052
56918SOL     OW72592  14.120   7.371  12.470
56918SOL    HW172593  14.214   7.357  12.469
56918SOL    HW272594  14.096   7.381  12.378
56919SOL     OW72595  13.415   3.588  13.074
56919SOL    HW172596  13.467   3.668  13.061
56919SOL    HW272597  13.480   3.521  13.096
56920SOL     OW72598   7.640   2.347   4.833
56920SOL    HW172599   7.644   2.317   4.742
56920SOL    HW272600   7.547   2.345   4.855
56921SOL     OW72601   6.666   7.177   0.318
56921SOL    HW172602   6.741   7.143   0.270
56921SOL    HW272603   6.703   7.247   0.372
56922SOL     OW72604   1.623   1.519   7.406
56922SOL    HW172605   1.708   1.499   7.367
56922SOL    HW272606   1.577   1.570   7.339
56923SOL     OW72607   0.159   1.295   5.361
56923SOL    HW172608   0.175   1.349   5.283
56923SOL    HW272609   0.205   1.341   5.431
56924SOL     OW72610   4.902  14.776  10.651
56924SOL    HW172611   4.888  14.687  10.620
56924SOL    HW272612   4.881  14.832  10.576
56925SOL     OW72613   2.274   5.943   0.614
56925SOL    HW172614   2.245   6.032   0.595
56925SOL    HW272615   2.328   5.952   0.693
56926SOL     OW72616   8.845  10.753  13.777
56926SOL    HW172617   8.831  10.803  13.696
56926SOL    HW272618   8.802  10.805  13.845
56927SOL     OW72619   3.505  11.214   2.214
56927SOL    HW172620   3.491  11.191   2.306
56927SOL    HW272621   3.420  11.245   2.184
56928SOL     OW72622   2.208  11.849   0.716
56928SOL    HW172623   2.263  11.865   0.793
56928SOL    HW272624   2.219  11.755   0.698
56929SOL     OW72625   7.240  11.677   6.553
56929SOL    HW172626   7.320  11.712   6.593
56929SOL    HW272627   7.268  11.646   6.467
56930SOL     OW72628   3.504   6.958  14.065
56930SOL    HW172629   3.460   6.972  13.981
56930SOL    HW272630   3.432   6.954  14.128
56931SOL     OW72631   0.897   9.851  10.988
56931SOL    HW172632   0.848   9.804  10.920
56931SOL    HW272633   0.975   9.798  11.001
56932SOL     OW72634   4.856   2.236   1.799
56932SOL    HW172635   4.862   2.331   1.806
56932SOL    HW272636   4.796   2.221   1.725
56933SOL     OW72637  10.014   1.545   1.209
56933SOL    HW172638   9.952   1.502   1.267
56933SOL    HW272639  10.100   1.516   1.240
56934SOL     OW72640   1.223   0.713   6.504
56934SOL    HW172641   1.217   0.629   6.458
56934SOL    HW272642   1.194   0.777   6.439
56935SOL     OW72643  14.694   5.959  13.486
56935SOL    HW172644  14.764   5.948  13.421
56935SOL    HW272645  14.621   5.909  13.452
56936SOL     OW72646  14.752  10.962   5.515
56936SOL    HW172647  14.792  10.879   5.541
56936SOL    HW272648  14.665  10.960   5.555
56937SOL     OW72649  14.678   8.042   6.973
56937SOL    HW172650  14.707   8.040   7.064
56937SOL    HW272651  14.625   7.963   6.962
56938SOL     OW72652   2.873   6.204   3.752
56938SOL    HW172653   2.839   6.143   3.686
56938SOL    HW272654   2.848   6.291   3.719
56939SOL     OW72655   8.619   3.664  10.011
56939SOL    HW172656   8.630   3.670   9.916
56939SOL    HW272657   8.536   3.618  10.023
56940SOL     OW72658   9.565   0.429   1.934
56940SOL    HW172659   9.569   0.525   1.930
56940SOL    HW272660   9.546   0.410   2.026
56941SOL     OW72661   8.144   6.952   1.951
56941SOL    HW172662   8.183   6.865   1.939
56941SOL    HW272663   8.074   6.938   2.015
56942SOL     OW72664   6.884  10.709   9.856
56942SOL    HW172665   6.831  10.645   9.903
56942SOL    HW272666   6.837  10.792   9.866
56943SOL     OW72667   9.958  14.506   2.817
56943SOL    HW172668   9.920  14.419   2.824
56943SOL    HW272669   9.885  14.566   2.833
56944SOL     OW72670   4.281   6.921   2.529
56944SOL    HW172671   4.322   6.979   2.465
56944SOL    HW272672   4.193   6.905   2.494
56945SOL     OW72673  10.725  12.432   6.343
56945SOL    HW172674  10.803  12.488   6.350
56945SOL    HW272675  10.697  12.442   6.252
56946SOL     OW72676   6.122   8.137   4.221
56946SOL    HW172677   6.191   8.149   4.287
56946SOL    HW272678   6.152   8.062   4.169
56947SOL     OW72679  12.332   8.259   7.079
56947SOL    HW172680  12.270   8.206   7.130
56947SOL    HW272681  12.295   8.347   7.080
56948SOL     OW72682   6.900   5.127   3.188
56948SOL    HW172683   6.837   5.117   3.116
56948SOL    HW272684   6.854   5.094   3.265
56949SOL     OW72685   0.325   7.207  10.947
56949SOL    HW172686   0.318   7.134  10.885
56949SOL    HW272687   0.235   7.226  10.972
56950SOL     OW72688  10.678   6.945  13.345
56950SOL    HW172689  10.746   6.880  13.360
56950SOL    HW272690  10.651   6.972  13.433
56951SOL     OW72691   9.480  13.388   6.662
56951SOL    HW172692   9.459  13.386   6.568
56951SOL    HW272693   9.429  13.317   6.700
56952SOL     OW72694  12.176  11.863   3.683
56952SOL    HW172695  12.113  11.791   3.673
56952SOL    HW272696  12.128  11.930   3.732
56953SOL     OW72697  14.447   0.965  13.305
56953SOL    HW172698  14.490   0.986  13.388
56953SOL    HW272699  14.519   0.947  13.244
56954SOL     OW72700   5.784   8.087  13.006
56954SOL    HW172701   5.853   8.126  13.060
56954SOL    HW272702   5.736   8.163  12.972
56955SOL     OW72703  11.725   2.735   8.792
56955SOL    HW172704  11.777   2.656   8.802
56955SOL    HW272705  11.703   2.761   8.882
56956SOL     OW72706  12.506  10.493  10.104
56956SOL    HW172707  12.562  10.551  10.052
56956SOL    HW272708  12.423  10.493  10.058
56957SOL     OW72709   7.451  12.000   4.408
56957SOL    HW172710   7.447  12.049   4.490
56957SOL    HW272711   7.487  11.915   4.433
56958SOL     OW72712  13.144  11.711  11.916
56958SOL    HW172713  13.173  11.671  11.834
56958SOL    HW272714  13.055  11.742  11.897
56959SOL     OW72715   2.111  14.446   7.052
56959SOL    HW172716   2.055  14.516   7.086
56959SOL    HW272717   2.200  14.475   7.074
56960SOL     OW72718   0.747   8.816  12.368
56960SOL    HW172719   0.663   8.801  12.410
56960SOL    HW272720   0.803   8.851  12.438
56961SOL     OW72721  11.757  12.705   6.268
56961SOL    HW172722  11.807  12.718   6.348
56961SOL    HW272723  11.668  12.688   6.298
56962SOL     OW72724   9.004   2.305   2.029
56962SOL    HW172725   9.036   2.381   2.078
56962SOL    HW272726   9.024   2.231   2.085
56963SOL     OW72727   1.044  11.690   2.496
56963SOL    HW172728   1.008  11.653   2.577
56963SOL    HW272729   0.975  11.677   2.431
56964SOL     OW72730   8.670   8.988   0.395
56964SOL    HW172731   8.609   9.022   0.461
56964SOL    HW272732   8.663   9.050   0.322
56965SOL     OW72733   4.716  11.317   5.886
56965SOL    HW172734   4.716  11.340   5.793
56965SOL    HW272735   4.693  11.399   5.931
56966SOL     OW72736   5.439   4.267   3.728
56966SOL    HW172737   5.532   4.289   3.732
56966SOL    HW272738   5.395   4.338   3.774
56967SOL     OW72739   4.620   2.724   4.563
56967SOL    HW172740   4.696   2.675   4.593
56967SOL    HW272741   4.578   2.667   4.498
56968SOL     OW72742   4.994   1.205   7.918
56968SOL    HW172743   4.948   1.287   7.900
56968SOL    HW272744   4.924   1.140   7.930
56969SOL     OW72745   7.742  12.123   8.413
56969SOL    HW172746   7.745  12.090   8.503
56969SOL    HW272747   7.718  12.215   8.422
56970SOL     OW72748  12.868  11.224  14.337
56970SOL    HW172749  12.807  11.156  14.309
56970SOL    HW272750  12.880  11.209  14.431
56971SOL     OW72751   3.558   9.005  10.132
56971SOL    HW172752   3.531   8.919  10.101
56971SOL    HW272753   3.651   9.011  10.110
56972SOL     OW72754   9.558   5.505   9.372
56972SOL    HW172755   9.592   5.426   9.414
56972SOL    HW272756   9.549   5.568   9.444
56973SOL     OW72757   6.638   1.982  12.051
56973SOL    HW172758   6.695   1.935  11.989
56973SOL    HW272759   6.619   2.065  12.007
56974SOL     OW72760   3.257   7.312   0.633
56974SOL    HW172761   3.223   7.233   0.675
56974SOL    HW272762   3.180   7.369   0.623
56975SOL     OW72763   4.738   1.047   7.884
56975SOL    HW172764   4.690   1.054   7.802
56975SOL    HW272765   4.774   0.958   7.884
56976SOL     OW72766   6.798   1.621  12.911
56976SOL    HW172767   6.719   1.662  12.945
56976SOL    HW272768   6.783   1.527  12.922
56977SOL     OW72769   9.446   8.877   7.482
56977SOL    HW172770   9.416   8.899   7.570
56977SOL    HW272771   9.400   8.796   7.461
56978SOL     OW72772   4.486   1.569   7.175
56978SOL    HW172773   4.392   1.556   7.181
56978SOL    HW272774   4.505   1.640   7.237
56979SOL     OW72775   9.673   9.609   2.531
56979SOL    HW172776   9.603   9.638   2.590
56979SOL    HW272777   9.626   9.572   2.456
56980SOL     OW72778   9.326   8.441  12.577
56980SOL    HW172779   9.280   8.396  12.647
56980SOL    HW272780   9.390   8.377  12.545
56981SOL     OW72781  12.296  12.721   4.290
56981SOL    HW172782  12.358  12.653   4.317
56981SOL    HW272783  12.348  12.781   4.236
56982SOL     OW72784  11.361   5.780  12.090
56982SOL    HW172785  11.396   5.818  12.170
56982SOL    HW272786  11.433   5.786  12.027
56983SOL     OW72787   0.888  12.233  11.100
56983SOL    HW172788   0.893  12.319  11.057
56983SOL    HW272789   0.979  12.207  11.114
56984SOL     OW72790   0.521  10.791  10.031
56984SOL    HW172791   0.521  10.782   9.936
56984SOL    HW272792   0.603  10.750  10.059
56985SOL     OW72793   8.247  10.535   4.630
56985SOL    HW172794   8.238  10.443   4.605
56985SOL    HW272795   8.221  10.584   4.552
56986SOL     OW72796   7.699  14.820   2.771
56986SOL    HW172797   7.678  14.785   2.684
56986SOL    HW272798   7.793  14.807   2.780
56987SOL     OW72799   8.977   3.887   2.867
56987SOL    HW172800   8.885   3.869   2.888
56987SOL    HW272801   8.987   3.858   2.776
56988SOL     OW72802   2.950   3.607  11.195
56988SOL    HW172803   2.992   3.671  11.252
56988SOL    HW272804   2.939   3.652  11.111
56989SOL     OW72805   8.369  10.280   8.473
56989SOL    HW172806   8.464  10.274   8.484
56989SOL    HW272807   8.350  10.373   8.479
56990SOL     OW72808   3.655  11.971   9.239
56990SOL    HW172809   3.581  12.028   9.221
56990SOL    HW272810   3.724  12.030   9.269
56991SOL     OW72811   6.681   4.074   3.629
56991SOL    HW172812   6.747   4.085   3.698
56991SOL    HW272813   6.727   4.098   3.549
56992SOL     OW72814   3.103   6.647  11.703
56992SOL    HW172815   3.020   6.608  11.733
56992SOL    HW272816   3.164   6.574  11.700
56993SOL     OW72817   2.609   5.488   1.276
56993SOL    HW172818   2.619   5.394   1.290
56993SOL    HW272819   2.698   5.522   1.275
56994SOL     OW72820   3.309   0.181   9.526
56994SOL    HW172821   3.375   0.146   9.466
56994SOL    HW272822   3.230   0.131   9.507
56995SOL     OW72823   5.828   8.866   0.006
56995SOL    HW172824   5.920   8.892   0.017
56995SOL    HW272825   5.817   8.792   0.066
56996SOL     OW72826  13.300   2.588  14.650
56996SOL    HW172827  13.355   2.661  14.623
56996SOL    HW272828  13.361   2.527  14.693
56997SOL     OW72829   7.446  13.344  12.902
56997SOL    HW172830   7.401  13.391  12.972
56997SOL    HW272831   7.511  13.290  12.947
56998SOL     OW72832  13.775   5.021   0.196
56998SOL    HW172833  13.832   5.072   0.138
56998SOL    HW272834  13.703   5.081   0.218
56999SOL     OW72835   3.023  11.325  12.683
56999SOL    HW172836   2.987  11.411  12.664
56999SOL    HW272837   3.050  11.291  12.597
57000SOL     OW72838   6.373   6.210   6.643
57000SOL    HW172839   6.395   6.241   6.555
57000SOL    HW272840   6.279   6.191   6.639
57001SOL     OW72841   5.683   1.393   6.050
57001SOL    HW172842   5.598   1.358   6.022
57001SOL    HW272843   5.698   1.467   5.991
57002SOL     OW72844   2.229   8.551   0.713
57002SOL    HW172845   2.239   8.634   0.666
57002SOL    HW272846   2.142   8.520   0.688
57003SOL     OW72847   1.293   6.418   7.468
57003SOL    HW172848   1.361   6.395   7.531
57003SOL    HW272849   1.235   6.477   7.517
57004SOL     OW72850  14.535   9.224  13.076
57004SOL    HW172851  14.603   9.157  13.064
57004SOL    HW272852  14.460   9.175  13.111
57005SOL     OW72853   9.749   5.578  11.872
57005SOL    HW172854   9.755   5.565  11.966
57005SOL    HW272855   9.789   5.499  11.834
57006SOL     OW72856  10.199   0.756   7.552
57006SOL    HW172857  10.129   0.816   7.578
57006SOL    HW272858  10.200   0.760   7.456
57007SOL     OW72859   5.956   0.647  12.444
57007SOL    HW172860   6.008   0.717  12.484
57007SOL    HW272861   5.867   0.662  12.477
57008SOL     OW72862   0.159   1.690   6.981
57008SOL    HW172863   0.172   1.716   7.073
57008SOL    HW272864   0.185   1.768   6.931
57009SOL     OW72865   3.217   1.088  12.758
57009SOL    HW172866   3.261   1.039  12.688
57009SOL    HW272867   3.271   1.166  12.771
57010SOL     OW72868  14.314   5.699   3.194
57010SOL    HW172869  14.359   5.774   3.156
57010SOL    HW272870  14.251   5.672   3.127
57011SOL     OW72871  12.830   8.898   1.610
57011SOL    HW172872  12.767   8.969   1.621
57011SOL    HW272873  12.779   8.828   1.569
57012SOL     OW72874  11.271   1.324   7.036
57012SOL    HW172875  11.262   1.292   7.126
57012SOL    HW272876  11.279   1.244   6.983
57013SOL     OW72877   4.537  12.429   5.961
57013SOL    HW172878   4.614  12.442   5.906
57013SOL    HW272879   4.522  12.515   6.001
57014SOL     OW72880   7.510  10.229   4.882
57014SOL    HW172881   7.419  10.249   4.901
57014SOL    HW272882   7.538  10.174   4.955
57015SOL     OW72883   7.028   7.597  11.249
57015SOL    HW172884   6.979   7.662  11.299
57015SOL    HW272885   7.026   7.631  11.159
57016SOL     OW72886   8.942   9.632  11.220
57016SOL    HW172887   9.004   9.583  11.165
57016SOL    HW272888   8.988   9.644  11.303
57017SOL     OW72889   1.498  12.792  10.870
57017SOL    HW172890   1.494  12.852  10.795
57017SOL    HW272891   1.586  12.756  10.867
57018SOL     OW72892   1.880  11.814   5.486
57018SOL    HW172893   1.834  11.731   5.480
57018SOL    HW272894   1.894  11.827   5.580
57019SOL     OW72895   5.759  13.581   2.591
57019SOL    HW172896   5.808  13.617   2.517
57019SOL    HW272897   5.726  13.659   2.637
57020SOL     OW72898   9.673  11.818   1.673
57020SOL    HW172899   9.599  11.874   1.696
57020SOL    HW272900   9.652  11.785   1.586
57021SOL     OW72901   8.636   4.364   5.271
57021SOL    HW172902   8.641   4.415   5.191
57021SOL    HW272903   8.564   4.404   5.321
57022SOL     OW72904   6.987   9.014   1.513
57022SOL    HW172905   6.907   9.014   1.460
57022SOL    HW272906   7.010   8.921   1.522
57023SOL     OW72907  14.731  14.619  14.328
57023SOL    HW172908  14.731  14.547  14.265
57023SOL    HW272909  14.807  14.602  14.384
57024SOL     OW72910   1.184  12.722   1.522
57024SOL    HW172911   1.129  12.800   1.512
57024SOL    HW272912   1.123  12.652   1.542
57025SOL     OW72913   1.402   8.459  13.884
57025SOL    HW172914   1.472   8.497  13.938
57025SOL    HW272915   1.448   8.411  13.815
57026SOL     OW72916  14.090   2.890   9.363
57026SOL    HW172917  14.153   2.879   9.434
57026SOL    HW272918  14.036   2.964   9.391
57027SOL     OW72919  12.848   2.403   7.836
57027SOL    HW172920  12.942   2.419   7.829
57027SOL    HW272921  12.835   2.315   7.801
57028SOL     OW72922   2.643   4.131  10.672
57028SOL    HW172923   2.688   4.055  10.708
57028SOL    HW272924   2.551   4.117  10.693
57029SOL     OW72925   1.761   4.714   6.524
57029SOL    HW172926   1.724   4.682   6.442
57029SOL    HW272927   1.714   4.795   6.542
57030SOL     OW72928   0.372   5.518   2.616
57030SOL    HW172929   0.354   5.579   2.544
57030SOL    HW272930   0.373   5.573   2.694
57031SOL     OW72931   9.960   2.655   3.387
57031SOL    HW172932  10.014   2.615   3.455
57031SOL    HW272933   9.981   2.748   3.392
57032SOL     OW72934  10.040  14.786   8.787
57032SOL    HW172935  10.000  14.872   8.772
57032SOL    HW272936  10.124  14.791   8.740
57033SOL     OW72937   2.268   1.538  10.633
57033SOL    HW172938   2.329   1.491  10.576
57033SOL    HW272939   2.288   1.630  10.619
57034SOL     OW72940   6.695   5.324   4.431
57034SOL    HW172941   6.771   5.285   4.476
57034SOL    HW272942   6.699   5.417   4.454
57035SOL     OW72943   0.123   2.221  12.449
57035SOL    HW172944   0.121   2.209  12.544
57035SOL    HW272945   0.045   2.177  12.418
57036SOL     OW72946   4.751   8.863   5.855
57036SOL    HW172947   4.671   8.907   5.828
57036SOL    HW272948   4.769   8.800   5.785
57037SOL     OW72949   9.397   0.668   2.874
57037SOL    HW172950   9.405   0.717   2.956
57037SOL    HW272951   9.421   0.730   2.806
57038SOL     OW72952   0.061   8.179   1.761
57038SOL    HW172953   0.106   8.173   1.845
57038SOL    HW272954   0.112   8.123   1.702
57039SOL     OW72955  10.052   5.555  11.125
57039SOL    HW172956  10.055   5.565  11.030
57039SOL    HW272957  10.047   5.644  11.158
57040SOL     OW72958  11.117   3.168   6.267
57040SOL    HW172959  11.128   3.190   6.174
57040SOL    HW272960  11.022   3.157   6.277
57041SOL     OW72961  12.688   2.269   3.012
57041SOL    HW172962  12.615   2.219   3.048
57041SOL    HW272963  12.689   2.351   3.061
57042SOL     OW72964  11.732  10.719  10.764
57042SOL    HW172965  11.653  10.700  10.814
57042SOL    HW272966  11.776  10.635  10.755
57043SOL     OW72967  13.815  14.710   1.141
57043SOL    HW172968  13.880  14.641   1.157
57043SOL    HW272969  13.753  14.701   1.213
57044SOL     OW72970  14.874  10.130  10.632
57044SOL    HW172971   0.091  10.135  10.615
57044SOL    HW272972  14.853  10.037  10.630
57045SOL     OW72973   7.304  14.794   9.947
57045SOL    HW172974   7.337   0.000   9.983
57045SOL    HW272975   7.267  14.818   9.863
57046SOL     OW72976   6.842  12.422  10.456
57046SOL    HW172977   6.833  12.479  10.533
57046SOL    HW272978   6.829  12.334  10.490
57047SOL     OW72979   8.101   6.057   8.836
57047SOL    HW172980   8.181   6.031   8.790
57047SOL    HW272981   8.127   6.136   8.885
57048SOL     OW72982   6.228  14.200   7.493
57048SOL    HW172983   6.308  14.154   7.466
57048SOL    HW272984   6.255  14.255   7.566
57049SOL     OW72985   8.408   8.229  12.547
57049SOL    HW172986   8.434   8.265  12.462
57049SOL    HW272987   8.462   8.151  12.558
57050SOL     OW72988   8.738  10.114   9.542
57050SOL    HW172989   8.760  10.023   9.557
57050SOL    HW272990   8.785  10.137   9.461
57051SOL     OW72991  14.508  11.619   9.018
57051SOL    HW172992  14.566  11.607   8.942
57051SOL    HW272993  14.562  11.666   9.082
57052SOL     OW72994  11.983  13.405  12.715
57052SOL    HW172995  11.955  13.430  12.627
57052SOL    HW272996  11.931  13.459  12.774
57053SOL     OW72997   1.286   3.844   8.592
57053SOL    HW172998   1.379   3.823   8.585
57053SOL    HW272999   1.284   3.932   8.629
57054SOL     OW73000   3.345  12.729   7.550
57054SOL    HW173001   3.283  12.666   7.586
57054SOL    HW273002   3.291  12.797   7.510
57055SOL     OW73003   4.996   8.282   2.277
57055SOL    HW173004   4.934   8.239   2.218
57055SOL    HW273005   5.075   8.229   2.272
57056SOL     OW73006  14.213   5.914   0.286
57056SOL    HW173007  14.207   5.998   0.331
57056SOL    HW273008  14.122   5.887   0.274
57057SOL     OW73009   5.504  12.699   7.189
57057SOL    HW173010   5.429  12.680   7.245
57057SOL    HW273011   5.526  12.615   7.148
57058SOL     OW73012   4.125  13.245   5.257
57058SOL    HW173013   4.080  13.229   5.340
57058SOL    HW273014   4.217  13.253   5.280
57059SOL     OW73015   3.440  11.679   4.357
57059SOL    HW173016   3.391  11.752   4.318
57059SOL    HW273017   3.395  11.601   4.326
57060SOL     OW73018   9.198   5.710   1.459
57060SOL    HW173019   9.268   5.775   1.448
57060SOL    HW273020   9.242   5.633   1.493
57061SOL     OW73021  10.736  11.528  10.865
57061SOL    HW173022  10.817  11.480  10.883
57061SOL    HW273023  10.666  11.463  10.877
57062SOL     OW73024   4.453  13.531  11.123
57062SOL    HW173025   4.375  13.540  11.177
57062SOL    HW273026   4.420  13.526  11.033
57063SOL     OW73027  11.089  12.602   2.728
57063SOL    HW173028  11.098  12.686   2.772
57063SOL    HW273029  10.995  12.585   2.728
57064SOL     OW73030   8.397   7.412   3.600
57064SOL    HW173031   8.406   7.326   3.640
57064SOL    HW273032   8.455   7.469   3.652
57065SOL     OW73033  10.498  13.846   9.800
57065SOL    HW173034  10.526  13.801   9.721
57065SOL    HW273035  10.567  13.827   9.864
57066SOL     OW73036   5.533  11.128   6.420
57066SOL    HW173037   5.462  11.153   6.478
57066SOL    HW273038   5.541  11.033   6.432
57067SOL     OW73039   1.718   0.244   9.821
57067SOL    HW173040   1.741   0.319   9.876
57067SOL    HW273041   1.657   0.193   9.874
57068SOL     OW73042  13.364   1.655   0.261
57068SOL    HW173043  13.383   1.710   0.185
57068SOL    HW273044  13.348   1.716   0.332
57069SOL     OW73045   6.984   9.552  11.130
57069SOL    HW173046   7.005   9.466  11.093
57069SOL    HW273047   6.902   9.538  11.177
57070SOL     OW73048  14.750   9.093   6.387
57070SOL    HW173049  14.734   9.004   6.419
57070SOL    HW273050  14.668   9.139   6.404
57071SOL     OW73051  12.139   6.701   6.099
57071SOL    HW173052  12.057   6.742   6.124
57071SOL    HW273053  12.190   6.772   6.059
57072SOL     OW73054   3.855   5.463   1.665
57072SOL    HW173055   3.941   5.471   1.623
57072SOL    HW273056   3.842   5.368   1.673
57073SOL     OW73057  13.731   4.701  13.826
57073SOL    HW173058  13.731   4.796  13.833
57073SOL    HW273059  13.664   4.672  13.887
57074SOL     OW73060  12.223   4.823   7.778
57074SOL    HW173061  12.277   4.751   7.811
57074SOL    HW273062  12.134   4.789   7.780
57075SOL     OW73063   2.103  14.761   3.605
57075SOL    HW173064   2.031  14.699   3.607
57075SOL    HW273065   2.147  14.750   3.690
57076SOL     OW73066   4.123  11.074   2.260
57076SOL    HW173067   4.145  10.981   2.262
57076SOL    HW273068   4.207  11.119   2.255
57077SOL     OW73069   5.017   5.472  14.736
57077SOL    HW173070   5.058   5.428  14.662
57077SOL    HW273071   5.059   5.557  14.741
57078SOL     OW73072  14.142   3.752   2.151
57078SOL    HW173073  14.107   3.765   2.063
57078SOL    HW273074  14.232   3.720   2.137
57079SOL     OW73075   5.876   8.322   1.821
57079SOL    HW173076   5.970   8.301   1.827
57079SOL    HW273077   5.842   8.259   1.758
57080SOL     OW73078   5.686   4.011  11.144
57080SOL    HW173079   5.702   3.994  11.051
57080SOL    HW273080   5.769   4.043  11.177
57081SOL     OW73081  11.729   7.554   7.457
57081SOL    HW173082  11.742   7.594   7.371
57081SOL    HW273083  11.643   7.512   7.452
57082SOL     OW73084   5.583   4.535   2.268
57082SOL    HW173085   5.637   4.550   2.191
57082SOL    HW273086   5.603   4.609   2.326
57083SOL     OW73087   4.091   0.079   1.735
57083SOL    HW173088   4.017   0.019   1.741
57083SOL    HW273089   4.168   0.022   1.732
57084SOL     OW73090  12.488   6.155   1.200
57084SOL    HW173091  12.576   6.152   1.163
57084SOL    HW273092  12.438   6.206   1.137
57085SOL     OW73093  12.134  14.385  13.610
57085SOL    HW173094  12.216  14.391  13.658
57085SOL    HW273095  12.069  14.362  13.676
57086SOL     OW73096  10.736   7.695  13.276
57086SOL    HW173097  10.661   7.667  13.223
57086SOL    HW273098  10.794   7.618  13.277
57087SOL     OW73099   3.443   8.316  13.534
57087SOL    HW173100   3.527   8.346  13.498
57087SOL    HW273101   3.448   8.336  13.627
57088SOL     OW73102  10.949   3.313  12.965
57088SOL    HW173103  10.869   3.364  12.954
57088SOL    HW273104  10.953   3.256  12.889
57089SOL     OW73105   7.497   6.994   3.743
57089SOL    HW173106   7.474   7.086   3.727
57089SOL    HW273107   7.414   6.948   3.743
57090SOL     OW73108   6.648   7.570  13.805
57090SOL    HW173109   6.563   7.528  13.798
57090SOL    HW273110   6.638   7.635  13.874
57091SOL     OW73111  12.677  12.778  11.386
57091SOL    HW173112  12.586  12.784  11.355
57091SOL    HW273113  12.730  12.795  11.308
57092SOL     OW73114   2.507   6.183  11.683
57092SOL    HW173115   2.512   6.094  11.650
57092SOL    HW273116   2.598   6.209  11.696
57093SOL     OW73117   6.616   9.736  10.907
57093SOL    HW173118   6.589   9.758  10.817
57093SOL    HW273119   6.693   9.789  10.922
57094SOL     OW73120   1.365   6.101   1.428
57094SOL    HW173121   1.336   6.129   1.341
57094SOL    HW273122   1.414   6.021   1.412
57095SOL     OW73123   0.670   1.336   9.649
57095SOL    HW173124   0.642   1.275   9.580
57095SOL    HW273125   0.746   1.381   9.612
57096SOL     OW73126  14.247   9.153  10.858
57096SOL    HW173127  14.229   9.106  10.940
57096SOL    HW273128  14.321   9.107  10.820
57097SOL     OW73129   6.173   9.060   1.696
57097SOL    HW173130   6.214   8.999   1.635
57097SOL    HW273131   6.244   9.086   1.755
57098SOL     OW73132   8.552   9.452   1.023
57098SOL    HW173133   8.525   9.383   0.962
57098SOL    HW273134   8.624   9.496   0.979
57099SOL     OW73135  12.203   2.418  14.331
57099SOL    HW173136  12.263   2.383  14.265
57099SOL    HW273137  12.245   2.398  14.414
57100SOL     OW73138   1.645   7.990   5.565
57100SOL    HW173139   1.686   8.068   5.604
57100SOL    HW273140   1.562   8.022   5.529
57101SOL     OW73141   6.570  10.077  13.091
57101SOL    HW173142   6.587   9.990  13.127
57101SOL    HW273143   6.656  10.119  13.087
57102SOL     OW73144   7.847   9.310   5.322
57102SOL    HW173145   7.770   9.326   5.267
57102SOL    HW273146   7.904   9.385   5.305
57103SOL     OW73147   3.112   3.514   7.789
57103SOL    HW173148   3.030   3.468   7.807
57103SOL    HW273149   3.084   3.600   7.756
57104SOL     OW73150   9.500   9.569  13.599
57104SOL    HW173151   9.473   9.619  13.521
57104SOL    HW273152   9.534   9.634  13.659
57105SOL     OW73153   7.769   1.212  11.290
57105SOL    HW173154   7.717   1.279  11.334
57105SOL    HW273155   7.759   1.135  11.346
57106SOL     OW73156   0.530   2.024   4.047
57106SOL    HW173157   0.473   2.022   3.969
57106SOL    HW273158   0.488   1.965   4.109
57107SOL     OW73159   0.625  10.945   1.946
57107SOL    HW173160   0.687  10.965   1.876
57107SOL    HW273161   0.545  10.991   1.921
57108SOL     OW73162   2.287  10.195  12.728
57108SOL    HW173163   2.194  10.204  12.709
57108SOL    HW273164   2.301  10.248  12.807
57109SOL     OW73165   5.322  14.720   8.624
57109SOL    HW173166   5.289  14.658   8.559
57109SOL    HW273167   5.392  14.767   8.579
57110SOL     OW73168  12.162  14.085   7.844
57110SOL    HW173169  12.072  14.058   7.828
57110SOL    HW273170  12.176  14.069   7.938
57111SOL     OW73171   8.301   7.694  12.665
57111SOL    HW173172   8.309   7.659  12.576
57111SOL    HW273173   8.217   7.661  12.697
57112SOL     OW73174   4.412   2.178  10.201
57112SOL    HW173175   4.483   2.120  10.172
57112SOL    HW273176   4.335   2.149  10.151
57113SOL     OW73177   9.996  10.250  14.337
57113SOL    HW173178   9.969  10.241  14.245
57113SOL    HW273179   9.986  10.344  14.356
57114SOL     OW73180   1.496   8.629  11.736
57114SOL    HW173181   1.484   8.565  11.665
57114SOL    HW273182   1.587   8.657  11.728
57115SOL     OW73183   4.371  14.579  14.137
57115SOL    HW173184   4.301  14.643  14.130
57115SOL    HW273185   4.416  14.601  14.219
57116SOL     OW73186   4.413   2.383  13.470
57116SOL    HW173187   4.428   2.478  13.462
57116SOL    HW273188   4.317   2.375  13.473
57117SOL     OW73189   0.756   7.142  12.127
57117SOL    HW173190   0.719   7.197  12.059
57117SOL    HW273191   0.745   7.052  12.094
57118SOL     OW73192   1.815   3.450   6.030
57118SOL    HW173193   1.849   3.514   6.093
57118SOL    HW273194   1.873   3.374   6.040
57119SOL     OW73195  11.988   0.068   7.943
57119SOL    HW173196  12.009   0.161   7.939
57119SOL    HW273197  12.042   0.028   7.874
57120SOL     OW73198   6.313   5.082   6.678
57120SOL    HW173199   6.315   5.119   6.766
57120SOL    HW273200   6.249   5.136   6.631
57121SOL     OW73201   6.456   4.117   9.577
57121SOL    HW173202   6.488   4.149   9.492
57121SOL    HW273203   6.494   4.029   9.584
57122SOL     OW73204   2.551   3.145  14.372
57122SOL    HW173205   2.514   3.068  14.328
57122SOL    HW273206   2.534   3.130  14.465
57123SOL     OW73207   7.154  10.479   3.367
57123SOL    HW173208   7.225  10.446   3.310
57123SOL    HW273209   7.113  10.400   3.402
57124SOL     OW73210  14.551   4.010  12.277
57124SOL    HW173211  14.504   3.932  12.246
57124SOL    HW273212  14.591   4.046  12.198
57125SOL     OW73213  10.600   3.445   8.999
57125SOL    HW173214  10.690   3.462   9.027
57125SOL    HW273215  10.603   3.449   8.903
57126SOL     OW73216   5.918  13.663   3.278
57126SOL    HW173217   5.932  13.644   3.371
57126SOL    HW273218   5.845  13.724   3.276
57127SOL     OW73219   0.864   8.851  13.014
57127SOL    HW173220   0.860   8.803  13.097
57127SOL    HW273221   0.821   8.935  13.033
57128SOL     OW73222   2.069   8.512  10.827
57128SOL    HW173223   2.056   8.451  10.899
57128SOL    HW273224   1.992   8.501  10.771
57129SOL     OW73225   1.785   6.786   6.073
57129SOL    HW173226   1.860   6.772   6.131
57129SOL    HW273227   1.752   6.873   6.098
57130SOL     OW73228   4.772  14.007  12.338
57130SOL    HW173229   4.773  14.047  12.251
57130SOL    HW273230   4.840  13.939  12.334
57131SOL     OW73231  10.147   1.981  14.473
57131SOL    HW173232  10.079   2.010  14.534
57131SOL    HW273233  10.178   2.062  14.432
57132SOL     OW73234  11.162   0.875   6.769
57132SOL    HW173235  11.099   0.850   6.837
57132SOL    HW273236  11.129   0.956   6.732
57133SOL     OW73237  12.624   4.219  11.113
57133SOL    HW173238  12.614   4.311  11.086
57133SOL    HW273239  12.553   4.205  11.175
57134SOL     OW73240   1.780   1.077   0.839
57134SOL    HW173241   1.761   1.109   0.927
57134SOL    HW273242   1.843   1.005   0.853
57135SOL     OW73243  11.089   0.967  13.096
57135SOL    HW173244  11.026   0.975  13.025
57135SOL    HW273245  11.041   0.993  13.175
57136SOL     OW73246  12.062   0.934   1.939
57136SOL    HW173247  12.026   0.848   1.960
57136SOL    HW273248  12.123   0.952   2.011
57137SOL     OW73249  13.265   8.433  13.050
57137SOL    HW173250  13.273   8.528  13.041
57137SOL    HW273251  13.355   8.400  13.041
57138SOL     OW73252   4.589  12.303   3.606
57138SOL    HW173253   4.545  12.341   3.530
57138SOL    HW273254   4.655  12.367   3.631
57139SOL     OW73255  10.643  10.495  10.999
57139SOL    HW173256  10.704  10.567  11.013
57139SOL    HW273257  10.577  10.505  11.068
57140SOL     OW73258   2.268   9.917   7.824
57140SOL    HW173259   2.312   9.887   7.745
57140SOL    HW273260   2.291   9.851   7.890
57141SOL     OW73261   1.044   4.593   4.346
57141SOL    HW173262   1.115   4.547   4.300
57141SOL    HW273263   0.990   4.523   4.382
57142SOL     OW73264   9.091  14.379   3.254
57142SOL    HW173265   9.078  14.311   3.320
57142SOL    HW273266   9.014  14.435   3.262
57143SOL     OW73267  13.946  13.355   3.184
57143SOL    HW173268  13.988  13.403   3.256
57143SOL    HW273269  13.856  13.341   3.215
57144SOL     OW73270  13.332   7.494   9.316
57144SOL    HW173271  13.404   7.469   9.257
57144SOL    HW273272  13.263   7.430   9.299
57145SOL     OW73273   3.708   9.640   6.933
57145SOL    HW173274   3.723   9.630   7.027
57145SOL    HW273275   3.633   9.698   6.927
57146SOL     OW73276  13.918   2.670   5.372
57146SOL    HW173277  13.884   2.593   5.417
57146SOL    HW273278  13.891   2.744   5.426
57147SOL     OW73279   8.512   9.508   5.913
57147SOL    HW173280   8.436   9.479   5.861
57147SOL    HW273281   8.583   9.516   5.849
57148SOL     OW73282  14.790   2.597  11.054
57148SOL    HW173283  14.747   2.516  11.028
57148SOL    HW273284  14.864   2.569  11.108
57149SOL     OW73285   6.692  11.279  13.168
57149SOL    HW173286   6.711  11.190  13.197
57149SOL    HW273287   6.681  11.272  13.074
57150SOL     OW73288  14.870   2.978   2.067
57150SOL    HW173289   0.051   2.902   2.058
57150SOL    HW273290  14.801   2.964   2.003
57151SOL     OW73291   4.061   2.668   7.051
57151SOL    HW173292   4.092   2.701   6.967
57151SOL    HW273293   4.082   2.575   7.050
57152SOL     OW73294   0.919  14.724  12.067
57152SOL    HW173295   0.950  14.704  11.979
57152SOL    HW273296   0.944  14.648  12.119
57153SOL     OW73297  10.803   2.223   6.013
57153SOL    HW173298  10.789   2.243   5.921
57153SOL    HW273299  10.738   2.277   6.059
57154SOL     OW73300   2.153  10.819  12.729
57154SOL    HW173301   2.074  10.764  12.734
57154SOL    HW273302   2.182  10.812  12.638
57155SOL     OW73303  14.611   1.871   2.038
57155SOL    HW173304  14.653   1.807   1.981
57155SOL    HW273305  14.681   1.934   2.059
57156SOL     OW73306   0.564   2.871  11.874
57156SOL    HW173307   0.645   2.918  11.894
57156SOL    HW273308   0.570   2.853  11.780
57157SOL     OW73309   0.506   3.766   9.654
57157SOL    HW173310   0.521   3.693   9.715
57157SOL    HW273311   0.473   3.724   9.574
57158SOL     OW73312   1.525   5.249  13.531
57158SOL    HW173313   1.492   5.332  13.496
57158SOL    HW273314   1.508   5.254  13.625
57159SOL     OW73315   9.291  11.993  10.956
57159SOL    HW173316   9.293  11.936  10.879
57159SOL    HW273317   9.200  12.024  10.960
57160SOL     OW73318  14.832  13.206  14.151
57160SOL    HW173319   0.010  13.255  14.213
57160SOL    HW273320  14.772  13.157  14.207
57161SOL     OW73321   5.378   0.437   1.320
57161SOL    HW173322   5.446   0.436   1.388
57161SOL    HW273323   5.405   0.508   1.261
57162SOL     OW73324  14.007  10.118   3.179
57162SOL    HW173325  13.995  10.051   3.111
57162SOL    HW273326  13.923  10.119   3.226
57163SOL     OW73327  14.827   9.877   8.099
57163SOL    HW173328  14.795   9.819   8.030
57163SOL    HW273329   0.046   9.870   8.094
57164SOL     OW73330   8.264  11.863   4.737
57164SOL    HW173331   8.347  11.856   4.785
57164SOL    HW273332   8.288  11.845   4.646
57165SOL     OW73333  11.666   3.749   3.626
57165SOL    HW173334  11.735   3.785   3.570
57165SOL    HW273335  11.657   3.658   3.597
57166SOL     OW73336   1.363  12.749   9.519
57166SOL    HW173337   1.314  12.740   9.601
57166SOL    HW273338   1.452  12.772   9.547
57167SOL     OW73339   4.464   8.984   8.064
57167SOL    HW173340   4.415   9.066   8.063
57167SOL    HW273341   4.398   8.916   8.051
57168SOL     OW73342   6.859  12.277   1.460
57168SOL    HW173343   6.828  12.215   1.393
57168SOL    HW273344   6.849  12.229   1.543
57169SOL     OW73345   5.700  11.052   4.194
57169SOL    HW173346   5.780  11.063   4.143
57169SOL    HW273347   5.631  11.086   4.138
57170SOL     OW73348   3.353   3.804   8.851
57170SOL    HW173349   3.318   3.728   8.896
57170SOL    HW273350   3.435   3.824   8.897
57171SOL     OW73351  14.065  13.059  12.171
57171SOL    HW173352  14.088  13.117  12.099
57171SOL    HW273353  13.983  13.018  12.144
57172SOL     OW73354   8.858  12.623   7.537
57172SOL    HW173355   8.848  12.531   7.512
57172SOL    HW273356   8.838  12.671   7.456
57173SOL     OW73357  11.178   6.723   2.920
57173SOL    HW173358  11.226   6.805   2.920
57173SOL    HW273359  11.092   6.745   2.955
57174SOL     OW73360   3.078  10.336  10.447
57174SOL    HW173361   3.162  10.369  10.481
57174SOL    HW273362   3.093  10.327  10.353
57175SOL     OW73363   4.406   3.579  11.162
57175SOL    HW173364   4.326   3.600  11.114
57175SOL    HW273365   4.409   3.643  11.233
57176SOL     OW73366   2.441  12.607   3.489
57176SOL    HW173367   2.495  12.573   3.418
57176SOL    HW273368   2.390  12.532   3.519
57177SOL     OW73369   4.284   3.237  13.013
57177SOL    HW173370   4.378   3.229  13.028
57177SOL    HW273371   4.277   3.282  12.928
57178SOL     OW73372   8.618  14.226   8.935
57178SOL    HW173373   8.675  14.243   8.860
57178SOL    HW273374   8.658  14.275   9.007
57179SOL     OW73375   0.054  14.135   8.357
57179SOL    HW173376   0.081  14.051   8.394
57179SOL    HW273377  14.874  14.174   8.423
57180SOL     OW73378   4.785   3.488  12.013
57180SOL    HW173379   4.735   3.418  12.054
57180SOL    HW273380   4.874   3.453  12.005
57181SOL     OW73381   3.765  12.414   5.659
57181SOL    HW173382   3.746  12.399   5.751
57181SOL    HW273383   3.823  12.342   5.635
57182SOL     OW73384   1.519   7.310   5.969
57182SOL    HW173385   1.568   7.230   5.951
57182SOL    HW273386   1.427   7.282   5.968
57183SOL     OW73387  11.075   1.522   5.960
57183SOL    HW173388  10.993   1.523   5.910
57183SOL    HW273389  11.055   1.569   6.041
57184SOL     OW73390   0.854   7.431   4.695
57184SOL    HW173391   0.949   7.423   4.690
57184SOL    HW273392   0.824   7.414   4.606
57185SOL     OW73393   3.530   1.700  14.287
57185SOL    HW173394   3.443   1.731  14.262
57185SOL    HW273395   3.523   1.687  14.382
57186SOL     OW73396  11.586   8.060   6.107
57186SOL    HW173397  11.659   8.110   6.072
57186SOL    HW273398  11.597   8.064   6.202
57187SOL     OW73399   1.001   7.792   2.853
57187SOL    HW173400   1.084   7.765   2.892
57187SOL    HW273401   1.010   7.886   2.838
57188SOL     OW73402  13.072   3.290   3.984
57188SOL    HW173403  13.125   3.245   4.050
57188SOL    HW273404  13.060   3.225   3.915
57189SOL     OW73405   2.848  10.920   7.378
57189SOL    HW173406   2.908  10.955   7.312
57189SOL    HW273407   2.771  10.894   7.328
57190SOL     OW73408   2.904   2.803  12.122
57190SOL    HW173409   2.947   2.767  12.045
57190SOL    HW273410   2.824   2.751  12.132
57191SOL     OW73411   0.341  10.109   0.059
57191SOL    HW173412   0.289  10.137  14.861
57191SOL    HW273413   0.407  10.051   0.022
57192SOL     OW73414   2.149  13.902   0.544
57192SOL    HW173415   2.193  13.822   0.515
57192SOL    HW273416   2.219  13.967   0.548
57193SOL     OW73417  12.052   6.172   8.190
57193SOL    HW173418  11.967   6.155   8.150
57193SOL    HW273419  12.093   6.086   8.197
57194SOL     OW73420   2.727   2.291   9.673
57194SOL    HW173421   2.654   2.323   9.727
57194SOL    HW273422   2.715   2.196   9.671
57195SOL     OW73423   2.214  14.715   0.137
57195SOL    HW173424   2.187  14.628   0.109
57195SOL    HW273425   2.186  14.720   0.229
57196SOL     OW73426  11.181   3.725   8.598
57196SOL    HW173427  11.165   3.680   8.681
57196SOL    HW273428  11.272   3.752   8.602
57197SOL     OW73429  14.076  10.479  10.247
57197SOL    HW173430  14.044  10.568  10.262
57197SOL    HW273431  14.146  10.468  10.312
57198SOL     OW73432   6.909  12.786   9.983
57198SOL    HW173433   6.909  12.876  10.015
57198SOL    HW273434   6.843  12.742  10.035
57199SOL     OW73435   8.013  11.022  12.330
57199SOL    HW173436   7.919  11.006  12.324
57199SOL    HW273437   8.043  11.021  12.239
57200SOL     OW73438  11.591   6.683   9.932
57200SOL    HW173439  11.602   6.725   9.847
57200SOL    HW273440  11.527   6.738   9.978
57201SOL     OW73441   8.197   3.734   0.522
57201SOL    HW173442   8.185   3.780   0.605
57201SOL    HW273443   8.291   3.735   0.506
57202SOL     OW73444   6.097   5.672  12.652
57202SOL    HW173445   6.150   5.738  12.608
57202SOL    HW273446   6.120   5.590  12.609
57203SOL     OW73447   8.188   2.126  10.445
57203SOL    HW173448   8.115   2.069  10.467
57203SOL    HW273449   8.199   2.182  10.522
57204SOL     OW73450   4.910  10.698   6.961
57204SOL    HW173451   4.908  10.791   6.936
57204SOL    HW273452   4.916  10.652   6.877
57205SOL     OW73453   8.116   2.939   2.128
57205SOL    HW173454   8.185   2.879   2.099
57205SOL    HW273455   8.141   2.964   2.217
57206SOL     OW73456   3.048   5.169  14.036
57206SOL    HW173457   2.981   5.131  14.093
57206SOL    HW273458   3.000   5.236  13.986
57207SOL     OW73459   1.797   7.949   2.177
57207SOL    HW173460   1.819   8.041   2.190
57207SOL    HW273461   1.821   7.907   2.260
57208SOL     OW73462   7.865  10.957   6.535
57208SOL    HW173463   7.916  10.934   6.457
57208SOL    HW273464   7.857  10.874   6.583
57209SOL     OW73465   5.470   2.598   2.106
57209SOL    HW173466   5.421   2.589   2.188
57209SOL    HW273467   5.477   2.508   2.073
57210SOL     OW73468   3.121  11.735  10.417
57210SOL    HW173469   3.203  11.783  10.407
57210SOL    HW273470   3.054  11.803  10.428
57211SOL     OW73471   4.738   4.101   9.126
57211SOL    HW173472   4.645   4.116   9.109
57211SOL    HW273473   4.782   4.134   9.048
57212SOL     OW73474   6.004   1.081  10.683
57212SOL    HW173475   5.936   1.086  10.750
57212SOL    HW273476   6.042   1.169  10.679
57213SOL     OW73477   6.093   1.317   9.013
57213SOL    HW173478   6.163   1.257   8.986
57213SOL    HW273479   6.028   1.309   8.944
57214SOL     OW73480   8.534  11.038  12.047
57214SOL    HW173481   8.572  11.053  11.961
57214SOL    HW273482   8.548  11.120  12.095
57215SOL     OW73483   4.592   5.819   5.636
57215SOL    HW173484   4.509   5.848   5.598
57215SOL    HW273485   4.570   5.737   5.681
57216SOL     OW73486   2.355  14.289  14.077
57216SOL    HW173487   2.373  14.202  14.041
57216SOL    HW273488   2.261  14.303  14.062
57217SOL     OW73489   2.477   7.769   9.376
57217SOL    HW173490   2.442   7.813   9.298
57217SOL    HW273491   2.421   7.800   9.447
57218SOL     OW73492   9.568   9.035   3.410
57218SOL    HW173493   9.602   8.996   3.330
57218SOL    HW273494   9.632   9.102   3.433
57219SOL     OW73495   3.441  13.457  10.091
57219SOL    HW173496   3.416  13.489  10.178
57219SOL    HW273497   3.532  13.485  10.081
57220SOL     OW73498   7.595  11.178   3.484
57220SOL    HW173499   7.582  11.085   3.464
57220SOL    HW273500   7.550  11.224   3.414
57221SOL     OW73501  10.742   3.434  14.248
57221SOL    HW173502  10.657   3.475  14.229
57221SOL    HW273503  10.741   3.354  14.196
57222SOL     OW73504  12.688   2.879  10.206
57222SOL    HW173505  12.714   2.851  10.118
57222SOL    HW273506  12.727   2.815  10.264
57223SOL     OW73507   5.130   9.241  13.088
57223SOL    HW173508   5.149   9.192  13.168
57223SOL    HW273509   5.212   9.289  13.070
57224SOL     OW73510   5.880   0.820  10.253
57224SOL    HW173511   5.796   0.820  10.206
57224SOL    HW273512   5.930   0.750  10.214
57225SOL     OW73513  13.896   2.197  13.210
57225SOL    HW173514  13.888   2.235  13.123
57225SOL    HW273515  13.854   2.111  13.202
57226SOL     OW73516   9.239  13.781   6.839
57226SOL    HW173517   9.196  13.697   6.824
57226SOL    HW273518   9.167  13.842   6.854
57227SOL     OW73519   2.696   6.223   5.670
57227SOL    HW173520   2.747   6.202   5.592
57227SOL    HW273521   2.613   6.177   5.658
57228SOL     OW73522  14.767   2.315   3.084
57228SOL    HW173523  14.707   2.255   3.041
57228SOL    HW273524  14.792   2.271   3.165
57229SOL     OW73525   1.774   6.355   2.045
57229SOL    HW173526   1.791   6.265   2.072
57229SOL    HW273527   1.852   6.403   2.073
57230SOL     OW73528  13.933   6.253   1.962
57230SOL    HW173529  13.860   6.192   1.957
57230SOL    HW273530  13.925   6.296   2.047
57231SOL     OW73531  14.127  12.718  10.386
57231SOL    HW173532  14.162  12.725  10.475
57231SOL    HW273533  14.113  12.624  10.374
57232SOL     OW73534   4.595  13.773   8.612
57232SOL    HW173535   4.660  13.808   8.552
57232SOL    HW273536   4.607  13.824   8.692
57233SOL     OW73537  13.444   4.344  10.156
57233SOL    HW173538  13.375   4.378  10.100
57233SOL    HW273539  13.503   4.418  10.171
57234SOL     OW73540  12.845   4.860  12.187
57234SOL    HW173541  12.923   4.902  12.152
57234SOL    HW273542  12.801   4.823  12.110
57235SOL     OW73543   5.152   3.388  10.303
57235SOL    HW173544   5.147   3.462  10.363
57235SOL    HW273545   5.061   3.357  10.296
57236SOL     OW73546   5.041  13.059   8.819
57236SOL    HW173547   5.033  12.967   8.795
57236SOL    HW273548   5.135  13.074   8.826
57237SOL     OW73549   0.064   6.104  12.899
57237SOL    HW173550   0.081   6.165  12.971
57237SOL    HW273551   0.134   6.121  12.836
57238SOL     OW73552   1.579   0.195  12.687
57238SOL    HW173553   1.507   0.243  12.729
57238SOL    HW273554   1.567   0.210  12.593
57239SOL     OW73555   7.123   2.750  14.369
57239SOL    HW173556   7.032   2.768  14.394
57239SOL    HW273557   7.133   2.792  14.283
57240SOL     OW73558   8.202   4.898   1.129
57240SOL    HW173559   8.270   4.949   1.174
57240SOL    HW273560   8.202   4.932   1.040
57241SOL     OW73561   4.677   1.788  13.570
57241SOL    HW173562   4.764   1.777  13.608
57241SOL    HW273563   4.685   1.864  13.512
57242SOL     OW73564   2.530   0.699  13.357
57242SOL    HW173565   2.459   0.761  13.367
57242SOL    HW273566   2.609   0.749  13.377
57243SOL     OW73567   1.678   7.564   3.900
57243SOL    HW173568   1.753   7.523   3.857
57243SOL    HW273569   1.644   7.626   3.835
57244SOL     OW73570   7.171   3.634  13.463
57244SOL    HW173571   7.081   3.665  13.478
57244SOL    HW273572   7.201   3.682  13.387
57245SOL     OW73573   0.460   5.246   5.386
57245SOL    HW173574   0.457   5.154   5.361
57245SOL    HW273575   0.549   5.259   5.419
57246SOL     OW73576   5.546   5.926   2.661
57246SOL    HW173577   5.600   5.982   2.606
57246SOL    HW273578   5.537   5.844   2.611
57247SOL     OW73579   7.654   2.141   9.741
57247SOL    HW173580   7.610   2.094   9.670
57247SOL    HW273581   7.747   2.121   9.730
57248SOL     OW73582   0.270  12.467   7.757
57248SOL    HW173583   0.365  12.482   7.759
57248SOL    HW273584   0.261  12.372   7.755
57249SOL     OW73585  10.335  13.731   8.259
57249SOL    HW173586  10.278  13.675   8.312
57249SOL    HW273587  10.330  13.817   8.301
57250SOL     OW73588   9.279  10.476   0.732
57250SOL    HW173589   9.204  10.520   0.772
57250SOL    HW273590   9.355  10.529   0.757
57251SOL     OW73591   6.557  11.918   1.415
57251SOL    HW173592   6.635  11.956   1.374
57251SOL    HW273593   6.579  11.910   1.508
57252SOL     OW73594   7.944   8.302   0.298
57252SOL    HW173595   7.882   8.233   0.274
57252SOL    HW273596   7.922   8.375   0.240
57253SOL     OW73597  14.818   5.986   6.836
57253SOL    HW173598  14.847   6.007   6.924
57253SOL    HW273599  14.753   5.916   6.848
57254SOL     OW73600  10.820  14.420   3.722
57254SOL    HW173601  10.805  14.326   3.731
57254SOL    HW273602  10.753  14.449   3.660
57255SOL     OW73603   5.894  10.164   4.067
57255SOL    HW173604   5.886  10.165   4.162
57255SOL    HW273605   5.865  10.076   4.041
57256SOL     OW73606   9.530   3.543   6.370
57256SOL    HW173607   9.538   3.612   6.303
57256SOL    HW273608   9.578   3.469   6.333
57257SOL     OW73609  12.484  13.321   7.832
57257SOL    HW173610  12.467  13.229   7.851
57257SOL    HW273611  12.492  13.362   7.919
57258SOL     OW73612   6.888   2.782   2.076
57258SOL    HW173613   6.941   2.709   2.107
57258SOL    HW273614   6.930   2.810   1.995
57259SOL     OW73615   0.258   0.409   7.472
57259SOL    HW173616   0.244   0.483   7.413
57259SOL    HW273617   0.186   0.349   7.452
57260SOL     OW73618   0.087  13.469   0.925
57260SOL    HW173619   0.082  13.380   0.889
57260SOL    HW273620   0.177  13.477   0.956
57261SOL     OW73621  12.408   8.529   9.242
57261SOL    HW173622  12.333   8.584   9.264
57261SOL    HW273623  12.418   8.538   9.147
57262SOL     OW73624   5.215   9.321   8.368
57262SOL    HW173625   5.235   9.231   8.339
57262SOL    HW273626   5.255   9.327   8.455
57263SOL     OW73627   4.352   7.972   3.396
57263SOL    HW173628   4.291   7.930   3.336
57263SOL    HW273629   4.429   7.915   3.396
57264SOL     OW73630   6.513  10.136   5.346
57264SOL    HW173631   6.520  10.116   5.439
57264SOL    HW273632   6.577  10.079   5.304
57265SOL     OW73633   6.967  12.542  13.263
57265SOL    HW173634   6.915  12.462  13.252
57265SOL    HW273635   7.057  12.512  13.266
57266SOL     OW73636   4.634  11.095  10.867
57266SOL    HW173637   4.599  11.117  10.953
57266SOL    HW273638   4.604  11.166  10.810
57267SOL     OW73639  14.422   2.814   8.845
57267SOL    HW173640  14.354   2.772   8.898
57267SOL    HW273641  14.502   2.803   8.897
57268SOL     OW73642  12.912   5.398   0.954
57268SOL    HW173643  12.975   5.392   1.025
57268SOL    HW273644  12.965   5.410   0.875
57269SOL     OW73645   9.495   3.973   9.353
57269SOL    HW173646   9.482   4.059   9.314
57269SOL    HW273647   9.588   3.972   9.377
57270SOL     OW73648   1.092   0.944   9.131
57270SOL    HW173649   1.038   0.880   9.176
57270SOL    HW273650   1.170   0.895   9.104
57271SOL     OW73651   9.440  14.307  10.911
57271SOL    HW173652   9.534  14.294  10.904
57271SOL    HW273653   9.402  14.221  10.890
57272SOL     OW73654  13.283   5.607   8.263
57272SOL    HW173655  13.238   5.644   8.187
57272SOL    HW273656  13.363   5.569   8.227
57273SOL     OW73657   7.403   5.037   3.068
57273SOL    HW173658   7.411   5.100   2.996
57273SOL    HW273659   7.426   4.953   3.028
57274SOL     OW73660  10.013   6.401   7.210
57274SOL    HW173661  10.099   6.385   7.247
57274SOL    HW273662   9.991   6.321   7.163
57275SOL     OW73663   0.303   2.589   9.135
57275SOL    HW173664   0.304   2.638   9.053
57275SOL    HW273665   0.381   2.533   9.130
57276SOL     OW73666   2.877   6.713   1.696
57276SOL    HW173667   2.965   6.710   1.659
57276SOL    HW273668   2.888   6.688   1.787
57277SOL     OW73669   6.907   5.064  11.872
57277SOL    HW173670   6.987   5.093  11.827
57277SOL    HW273671   6.903   5.119  11.950
57278SOL     OW73672   8.979   6.841   1.853
57278SOL    HW173673   9.005   6.818   1.764
57278SOL    HW273674   9.043   6.907   1.880
57279SOL     OW73675  10.217   9.024   4.127
57279SOL    HW173676  10.179   9.043   4.212
57279SOL    HW273677  10.231   9.110   4.087
57280SOL     OW73678   1.462   8.882   0.465
57280SOL    HW173679   1.450   8.831   0.545
57280SOL    HW273680   1.514   8.957   0.492
57281SOL     OW73681   6.232   3.158  11.546
57281SOL    HW173682   6.226   3.140  11.452
57281SOL    HW273683   6.310   3.111  11.575
57282SOL     OW73684   6.792   2.211   8.091
57282SOL    HW173685   6.716   2.187   8.039
57282SOL    HW273686   6.772   2.180   8.179
57283SOL     OW73687   5.541   1.709  13.245
57283SOL    HW173688   5.588   1.770  13.302
57283SOL    HW273689   5.553   1.624  13.286
57284SOL     OW73690   6.539   5.305  10.745
57284SOL    HW173691   6.622   5.307  10.792
57284SOL    HW273692   6.541   5.223  10.695
57285SOL     OW73693  13.999   6.599   6.794
57285SOL    HW173694  14.085   6.611   6.835
57285SOL    HW273695  13.963   6.520   6.835
57286SOL     OW73696  10.195   0.489  11.815
57286SOL    HW173697  10.126   0.534  11.766
57286SOL    HW273698  10.191   0.528  11.902
57287SOL     OW73699  10.838   1.452  14.876
57287SOL    HW173700  10.931   1.476   0.007
57287SOL    HW273701  10.810   1.493  14.793
57288SOL     OW73702   9.185   2.690   8.922
57288SOL    HW173703   9.186   2.738   9.005
57288SOL    HW273704   9.093   2.669   8.908
57289SOL     OW73705  11.198   0.000   6.261
57289SOL    HW173706  11.116   0.048   6.270
57289SOL    HW273707  11.243   0.044   6.188
57290SOL     OW73708   4.229  13.690   2.497
57290SOL    HW173709   4.243  13.623   2.430
57290SOL    HW273710   4.171  13.650   2.561
57291SOL     OW73711  13.048   4.547   3.840
57291SOL    HW173712  13.105   4.471   3.829
57291SOL    HW273713  12.988   4.523   3.910
57292SOL     OW73714  10.866   9.279   9.994
57292SOL    HW173715  10.825   9.224  10.061
57292SOL    HW273716  10.932   9.222   9.954
57293SOL     OW73717  12.580   1.356   2.859
57293SOL    HW173718  12.591   1.294   2.931
57293SOL    HW273719  12.520   1.312   2.799
57294SOL     OW73720   4.227   7.162   4.728
57294SOL    HW173721   4.270   7.088   4.685
57294SOL    HW273722   4.271   7.170   4.812
57295SOL     OW73723   4.170  13.035   5.684
57295SOL    HW173724   4.131  12.955   5.649
57295SOL    HW273725   4.263  13.015   5.693
57296SOL     OW73726   8.489   0.090  12.867
57296SOL    HW173727   8.461   0.011  12.821
57296SOL    HW273728   8.549   0.133  12.806
57297SOL     OW73729   7.145   6.965  11.916
57297SOL    HW173730   7.121   7.057  11.909
57297SOL    HW273731   7.065   6.921  11.944
57298SOL     OW73732   4.395   5.173   2.077
57298SOL    HW173733   4.414   5.228   2.153
57298SOL    HW273734   4.310   5.133   2.097
57299SOL     OW73735   4.851   7.336   3.691
57299SOL    HW173736   4.827   7.263   3.634
57299SOL    HW273737   4.920   7.301   3.748
57300SOL     OW73738   2.911  13.031   4.268
57300SOL    HW173739   2.924  13.046   4.362
57300SOL    HW273740   2.828  13.075   4.248
57301SOL     OW73741  10.086   7.870   0.709
57301SOL    HW173742  10.111   7.939   0.648
57301SOL    HW273743  10.154   7.804   0.701
57302SOL     OW73744  13.211   1.958   0.009
57302SOL    HW173745  13.117   1.944   0.010
57302SOL    HW273746  13.222   2.053   0.016
57303SOL     OW73747  12.265   3.746   2.407
57303SOL    HW173748  12.201   3.817   2.397
57303SOL    HW273749  12.296   3.754   2.497
57304SOL     OW73750   5.100  12.804  10.956
57304SOL    HW173751   5.108  12.897  10.935
57304SOL    HW273752   5.170  12.788  11.020
57305SOL     OW73753   6.609  14.567   0.353
57305SOL    HW173754   6.640  14.549   0.264
57305SOL    HW273755   6.550  14.642   0.342
57306SOL     OW73756  11.663  11.800   8.716
57306SOL    HW173757  11.702  11.804   8.629
57306SOL    HW273758  11.571  11.780   8.701
57307SOL     OW73759   7.525   8.006  10.126
57307SOL    HW173760   7.431   8.026  10.121
57307SOL    HW273761   7.568   8.091  10.125
57308SOL     OW73762   6.954  13.388   2.499
57308SOL    HW173763   6.962  13.381   2.404
57308SOL    HW273764   6.940  13.299   2.529
57309SOL     OW73765   3.266   7.426  11.642
57309SOL    HW173766   3.327   7.425  11.568
57309SOL    HW273767   3.323   7.425  11.719
57310SOL     OW73768   2.261   5.240   8.742
57310SOL    HW173769   2.298   5.315   8.695
57310SOL    HW273770   2.166   5.248   8.729
57311SOL     OW73771  10.727  10.804   1.027
57311SOL    HW173772  10.762  10.835   0.943
57311SOL    HW273773  10.639  10.840   1.030
57312SOL     OW73774   6.403   3.554   2.972
57312SOL    HW173775   6.448   3.630   3.009
57312SOL    HW273776   6.427   3.554   2.880
57313SOL     OW73777   0.730   9.600   6.607
57313SOL    HW173778   0.775   9.685   6.605
57313SOL    HW273779   0.780   9.548   6.669
57314SOL     OW73780   1.124   3.146   4.617
57314SOL    HW173781   1.130   3.175   4.708
57314SOL    HW273782   1.211   3.164   4.581
57315SOL     OW73783   9.192   5.556  11.532
57315SOL    HW173784   9.278   5.559  11.575
57315SOL    HW273785   9.210   5.519  11.445
57316SOL     OW73786   7.002   8.892   6.884
57316SOL    HW173787   7.033   8.881   6.794
57316SOL    HW273788   7.079   8.919   6.934
57317SOL     OW73789   8.428   0.168  11.945
57317SOL    HW173790   8.494   0.237  11.941
57317SOL    HW273791   8.373   0.182  11.868
57318SOL     OW73792  13.298   6.013   9.932
57318SOL    HW173793  13.365   6.067   9.973
57318SOL    HW273794  13.259   5.963  10.004
57319SOL     OW73795   4.042   5.257  10.927
57319SOL    HW173796   4.130   5.234  10.956
57319SOL    HW273797   4.054   5.290  10.838
57320SOL     OW73798  10.001   4.141   7.695
57320SOL    HW173799  10.002   4.169   7.787
57320SOL    HW273800   9.914   4.165   7.664
57321SOL     OW73801  11.709  10.557   0.505
57321SOL    HW173802  11.621  10.582   0.477
57321SOL    HW273803  11.711  10.462   0.498
57322SOL     OW73804   5.828   1.095   8.466
57322SOL    HW173805   5.845   1.052   8.550
57322SOL    HW273806   5.733   1.106   8.463
57323SOL     OW73807   6.147  12.462   2.047
57323SOL    HW173808   6.107  12.512   2.118
57323SOL    HW273809   6.231  12.432   2.083
57324SOL     OW73810   5.840   6.195   3.249
57324SOL    HW173811   5.779   6.161   3.314
57324SOL    HW273812   5.880   6.272   3.291
57325SOL     OW73813   4.970   4.308   9.658
57325SOL    HW173814   5.009   4.377   9.605
57325SOL    HW273815   5.020   4.229   9.635
57326SOL     OW73816   5.337   0.677  14.222
57326SOL    HW173817   5.335   0.589  14.260
57326SOL    HW273818   5.245   0.700  14.210
57327SOL     OW73819   3.978   9.028   4.861
57327SOL    HW173820   4.015   9.065   4.781
57327SOL    HW273821   3.892   9.067   4.868
57328SOL     OW73822   3.042   7.095   7.537
57328SOL    HW173823   3.038   7.096   7.442
57328SOL    HW273824   2.975   7.158   7.565
57329SOL     OW73825   4.478   5.973   5.426
57329SOL    HW173826   4.537   6.029   5.477
57329SOL    HW273827   4.533   5.933   5.359
57330SOL     OW73828  13.959   8.088   2.338
57330SOL    HW173829  13.986   8.163   2.285
57330SOL    HW273830  13.881   8.119   2.384
57331SOL     OW73831   7.259   8.484   5.244
57331SOL    HW173832   7.332   8.444   5.291
57331SOL    HW273833   7.270   8.456   5.153
57332SOL     OW73834   6.079   1.161   4.621
57332SOL    HW173835   6.162   1.208   4.611
57332SOL    HW273836   6.082   1.091   4.555
57333SOL     OW73837  12.276  14.435  14.462
57333SOL    HW173838  12.189  14.464  14.487
57333SOL    HW273839  12.285  14.349  14.501
57334SOL     OW73840  13.627   9.468  10.979
57334SOL    HW173841  13.580   9.411  11.041
57334SOL    HW273842  13.562   9.490  10.913
57335SOL     OW73843  10.468   3.288   7.373
57335SOL    HW173844  10.506   3.314   7.289
57335SOL    HW273845  10.429   3.203   7.356
57336SOL     OW73846   6.562   8.621   1.032
57336SOL    HW173847   6.613   8.682   1.086
57336SOL    HW273848   6.605   8.622   0.947
57337SOL     OW73849   4.709  11.934   7.577
57337SOL    HW173850   4.635  11.964   7.525
57337SOL    HW273851   4.744  11.858   7.529
57338SOL     OW73852  11.884   0.937  12.123
57338SOL    HW173853  11.967   0.907  12.160
57338SOL    HW273854  11.894   0.924  12.028
57339SOL     OW73855  13.145  10.696   1.933
57339SOL    HW173856  13.097  10.625   1.890
57339SOL    HW273857  13.119  10.691   2.025
57340SOL     OW73858   0.242  12.594   5.165
57340SOL    HW173859   0.256  12.538   5.089
57340SOL    HW273860   0.150  12.579   5.189
57341SOL     OW73861  13.033   7.799   5.619
57341SOL    HW173862  12.995   7.833   5.700
57341SOL    HW273863  12.970   7.824   5.551
57342SOL     OW73864   3.702   0.264   3.300
57342SOL    HW173865   3.791   0.297   3.288
57342SOL    HW273866   3.680   0.223   3.216
57343SOL     OW73867  14.218  13.678  12.437
57343SOL    HW173868  14.233  13.765  12.401
57343SOL    HW273869  14.196  13.624  12.360
57344SOL     OW73870   6.627   0.623  12.494
57344SOL    HW173871   6.612   0.546  12.548
57344SOL    HW273872   6.607   0.595  12.405
57345SOL     OW73873   2.189  13.321  14.146
57345SOL    HW173874   2.144  13.239  14.125
57345SOL    HW273875   2.129  13.368  14.204
57346SOL     OW73876  10.579   0.853  14.274
57346SOL    HW173877  10.652   0.818  14.224
57346SOL    HW273878  10.530   0.907  14.211
57347SOL     OW73879  10.777   0.927   2.613
57347SOL    HW173880  10.861   0.969   2.599
57347SOL    HW273881  10.737   0.923   2.526
57348SOL     OW73882  11.306   7.392   6.802
57348SOL    HW173883  11.337   7.325   6.864
57348SOL    HW273884  11.365   7.466   6.815
57349SOL     OW73885  10.393   7.391   1.459
57349SOL    HW173886  10.439   7.337   1.524
57349SOL    HW273887  10.317   7.426   1.506
57350SOL     OW73888  14.774   5.114  12.305
57350SOL    HW173889  14.727   5.088  12.385
57350SOL    HW273890  14.716   5.177  12.262
57351SOL     OW73891   3.567   9.660   1.898
57351SOL    HW173892   3.486   9.617   1.926
57351SOL    HW273893   3.626   9.652   1.973
57352SOL     OW73894   3.159   6.573   9.046
57352SOL    HW173895   3.227   6.549   8.982
57352SOL    HW273896   3.146   6.666   9.033
57353SOL     OW73897  14.469   2.061   1.224
57353SOL    HW173898  14.446   2.023   1.139
57353SOL    HW273899  14.409   2.135   1.234
57354SOL     OW73900   9.234   2.945  14.172
57354SOL    HW173901   9.143   2.973  14.159
57354SOL    HW273902   9.286   3.017  14.135
57355SOL     OW73903   3.036   0.111  10.131
57355SOL    HW173904   3.131   0.111  10.146
57355SOL    HW273905   3.004   0.187  10.180
57356SOL     OW73906   9.276  12.806   6.851
57356SOL    HW173907   9.277  12.724   6.802
57356SOL    HW273908   9.333  12.790   6.926
57357SOL     OW73909  10.952   3.307   2.442
57357SOL    HW173910  10.905   3.388   2.463
57357SOL    HW273911  11.019   3.333   2.379
57358SOL     OW73912   7.402   2.948  12.884
57358SOL    HW173913   7.440   2.973  12.800
57358SOL    HW273914   7.419   3.023  12.941
57359SOL     OW73915  11.766   3.085   4.437
57359SOL    HW173916  11.836   3.150   4.443
57359SOL    HW273917  11.784   3.039   4.355
57360SOL     OW73918   3.997   3.164   8.261
57360SOL    HW173919   3.907   3.181   8.286
57360SOL    HW273920   3.991   3.096   8.194
57361SOL     OW73921  10.371   6.394   4.938
57361SOL    HW173922  10.405   6.375   4.850
57361SOL    HW273923  10.436   6.453   4.976
57362SOL     OW73924   8.919  14.780  14.807
57362SOL    HW173925   8.999  14.828  14.829
57362SOL    HW273926   8.896  14.734   0.012
57363SOL     OW73927   8.296   1.056   8.995
57363SOL    HW173928   8.289   1.039   8.901
57363SOL    HW273929   8.314   0.970   9.033
57364SOL     OW73930   7.329   0.919  10.303
57364SOL    HW173931   7.377   0.999  10.284
57364SOL    HW273932   7.238   0.940  10.284
57365SOL     OW73933   2.312  10.113   4.572
57365SOL    HW173934   2.234  10.160   4.542
57365SOL    HW273935   2.382  10.147   4.517
57366SOL     OW73936  13.746   8.892   4.486
57366SOL    HW173937  13.739   8.806   4.528
57366SOL    HW273938  13.781   8.873   4.399
57367SOL     OW73939   8.476   7.800   1.123
57367SOL    HW173940   8.536   7.736   1.084
57367SOL    HW273941   8.524   7.836   1.197
57368SOL     OW73942   3.067   7.624   8.878
57368SOL    HW173943   3.023   7.655   8.799
57368SOL    HW273944   3.115   7.700   8.911
57369SOL     OW73945   3.741  11.622   8.137
57369SOL    HW173946   3.811  11.667   8.185
57369SOL    HW273947   3.749  11.654   8.047
57370SOL     OW73948   0.836   8.093   7.204
57370SOL    HW173949   0.886   8.035   7.260
57370SOL    HW273950   0.753   8.047   7.191
57371SOL     OW73951  12.943  11.444   1.151
57371SOL    HW173952  12.849  11.459   1.162
57371SOL    HW273953  12.951  11.401   1.066
57372SOL     OW73954   7.563  14.820  13.344
57372SOL    HW173955   7.578  14.875  13.421
57372SOL    HW273956   7.619  14.744  13.358
57373SOL     OW73957   4.045   0.673   0.528
57373SOL    HW173958   4.087   0.727   0.462
57373SOL    HW273959   4.021   0.735   0.598
57374SOL     OW73960   6.795   6.954  11.425
57374SOL    HW173961   6.845   6.874  11.444
57374SOL    HW273962   6.808   7.009  11.502
57375SOL     OW73963  13.882   9.312   1.447
57375SOL    HW173964  13.962   9.352   1.481
57375SOL    HW273965  13.902   9.219   1.441
57376SOL     OW73966   4.854  13.374   3.918
57376SOL    HW173967   4.811  13.289   3.908
57376SOL    HW273968   4.821  13.408   4.001
57377SOL     OW73969   6.834   1.776  12.617
57377SOL    HW173970   6.906   1.795  12.557
57377SOL    HW273971   6.854   1.827  12.696
57378SOL     OW73972  11.953   5.833   2.883
57378SOL    HW173973  12.040   5.833   2.842
57378SOL    HW273974  11.947   5.747   2.924
57379SOL     OW73975   8.332  12.176   1.594
57379SOL    HW173976   8.358  12.178   1.502
57379SOL    HW273977   8.243  12.211   1.595
57380SOL     OW73978   1.319   8.013   2.794
57380SOL    HW173979   1.225   8.017   2.814
57380SOL    HW273980   1.326   7.948   2.724
57381SOL     OW73981  12.971   0.665   8.421
57381SOL    HW173982  13.035   0.645   8.353
57381SOL    HW273983  12.980   0.594   8.484
57382SOL     OW73984   3.145   6.277   3.153
57382SOL    HW173985   3.186   6.359   3.179
57382SOL    HW273986   3.212   6.230   3.104
57383SOL     OW73987  10.247   2.737   9.046
57383SOL    HW173988  10.324   2.783   9.080
57383SOL    HW273989  10.176   2.764   9.105
57384SOL     OW73990  13.352   2.462   8.576
57384SOL    HW173991  13.309   2.498   8.499
57384SOL    HW273992  13.282   2.450   8.640
57385SOL     OW73993  12.362  10.482   8.462
57385SOL    HW173994  12.340  10.526   8.380
57385SOL    HW273995  12.314  10.531   8.529
57386SOL     OW73996  14.447   4.482  13.800
57386SOL    HW173997  14.415   4.450  13.884
57386SOL    HW273998  14.403   4.428  13.734
57387SOL     OW73999   4.079   5.659  10.723
57387SOL    HW174000   4.159   5.689  10.678
57387SOL    HW274001   4.082   5.564  10.714
57388SOL     OW74002   2.296   5.705   3.140
57388SOL    HW174003   2.370   5.706   3.079
57388SOL    HW274004   2.336   5.695   3.226
57389SOL     OW74005   5.515   6.528   2.013
57389SOL    HW174006   5.484   6.452   2.062
57389SOL    HW274007   5.435   6.573   1.985
57390SOL     OW74008   4.241   2.822  12.263
57390SOL    HW174009   4.239   2.853  12.354
57390SOL    HW274010   4.160   2.773  12.252
57391SOL     OW74011   8.213   2.622  14.701
57391SOL    HW174012   8.289   2.580  14.740
57391SOL    HW274013   8.195   2.571  14.622
57392SOL     OW74014   2.885   7.144   9.563
57392SOL    HW174015   2.895   7.235   9.590
57392SOL    HW274016   2.890   7.147   9.467
57393SOL     OW74017   0.070   5.165   7.892
57393SOL    HW174018   0.165   5.151   7.883
57393SOL    HW274019   0.055   5.251   7.854
57394SOL     OW74020   0.903   0.003  10.017
57394SOL    HW174021   0.971  14.835  10.067
57394SOL    HW274022   0.859  14.809   9.970
57395SOL     OW74023  13.101   5.253  10.389
57395SOL    HW174024  13.014   5.230  10.420
57395SOL    HW274025  13.141   5.169  10.367
57396SOL     OW74026   6.082   8.882   1.459
57396SOL    HW174027   6.045   8.970   1.466
57396SOL    HW274028   6.030   8.838   1.392
57397SOL     OW74029  13.033   7.525  10.314
57397SOL    HW174030  13.095   7.575  10.261
57397SOL    HW274031  12.986   7.590  10.365
57398SOL     OW74032   9.630   1.521   8.520
57398SOL    HW174033   9.621   1.426   8.508
57398SOL    HW274034   9.629   1.533   8.615
57399SOL     OW74035   5.325  10.851  13.181
57399SOL    HW174036   5.317  10.936  13.138
57399SOL    HW274037   5.308  10.869  13.273
57400SOL     OW74038   7.632   1.262   9.753
57400SOL    HW174039   7.625   1.314   9.673
57400SOL    HW274040   7.721   1.277   9.785
57401SOL     OW74041   5.431   6.822  14.308
57401SOL    HW174042   5.354   6.852  14.260
57401SOL    HW274043   5.505   6.842  14.250
57402SOL     OW74044   2.104   1.313  10.045
57402SOL    HW174045   2.063   1.297  10.130
57402SOL    HW274046   2.036   1.295   9.981
57403SOL     OW74047   1.378   0.468  14.197
57403SOL    HW174048   1.288   0.439  14.211
57403SOL    HW274049   1.378   0.560  14.223
57404SOL     OW74050  10.399  14.044   8.658
57404SOL    HW174051  10.380  14.029   8.750
57404SOL    HW274052  10.474  14.104   8.659
57405SOL     OW74053   2.761   1.512  11.770
57405SOL    HW174054   2.774   1.605  11.790
57405SOL    HW274055   2.814   1.466  11.835
57406SOL     OW74056   1.161   6.230   7.308
57406SOL    HW174057   1.221   6.291   7.350
57406SOL    HW274058   1.195   6.220   7.219
57407SOL     OW74059   5.482   9.316   8.867
57407SOL    HW174060   5.402   9.264   8.860
57407SOL    HW274061   5.547   9.254   8.900
57408SOL     OW74062   8.912   7.847   6.338
57408SOL    HW174063   8.904   7.940   6.359
57408SOL    HW274064   8.995   7.841   6.290
57409SOL     OW74065   9.174  12.755  13.719
57409SOL    HW174066   9.092  12.765  13.767
57409SOL    HW274067   9.211  12.673  13.752
57410SOL     OW74068   8.673  10.294  14.799
57410SOL    HW174069   8.709  10.228  14.740
57410SOL    HW274070   8.749  10.332  14.842
57411SOL     OW74071  14.249   7.381   4.624
57411SOL    HW174072  14.218   7.383   4.714
57411SOL    HW274073  14.218   7.297   4.590
57412SOL     OW74074  12.874   0.003   6.049
57412SOL    HW174075  12.908   0.052   5.974
57412SOL    HW274076  12.824  14.807   6.009
57413SOL     OW74077   2.404   3.789  13.647
57413SOL    HW174078   2.351   3.723  13.692
57413SOL    HW274079   2.402   3.865  13.705
57414SOL     OW74080  13.534   8.320  12.009
57414SOL    HW174081  13.507   8.250  11.951
57414SOL    HW274082  13.603   8.366  11.961
57415SOL     OW74083  13.624   9.711  11.530
57415SOL    HW174084  13.533   9.694  11.554
57415SOL    HW274085  13.668   9.725  11.614
57416SOL     OW74086   7.584  12.652  14.334
57416SOL    HW174087   7.491  12.670  14.341
57416SOL    HW274088   7.627  12.729  14.373
57417SOL     OW74089   0.724  14.872   5.904
57417SOL    HW174090   0.778   0.026   5.977
57417SOL    HW274091   0.761   0.040   5.828
57418SOL     OW74092   1.330   0.441  13.891
57418SOL    HW174093   1.415   0.399  13.889
57418SOL    HW274094   1.329   0.489  13.973
57419SOL     OW74095   4.978  14.866  12.530
57419SOL    HW174096   5.044  14.836  12.593
57419SOL    HW274097   4.931  14.787  12.505
57420SOL     OW74098   8.438   2.959   8.904
57420SOL    HW174099   8.521   2.934   8.863
57420SOL    HW274100   8.464   3.017   8.975
57421SOL     OW74101  10.600   8.872   7.029
57421SOL    HW174102  10.640   8.876   6.942
57421SOL    HW274103  10.514   8.912   7.018
57422SOL     OW74104   1.927  14.095   6.502
57422SOL    HW174105   1.985  14.171   6.508
57422SOL    HW274106   1.957  14.050   6.423
57423SOL     OW74107   4.414   5.313   7.020
57423SOL    HW174108   4.380   5.226   6.999
57423SOL    HW274109   4.378   5.332   7.107
57424SOL     OW74110  14.323  13.292   4.019
57424SOL    HW174111  14.289  13.223   3.961
57424SOL    HW274112  14.276  13.371   3.992
57425SOL     OW74113   3.957  12.631   5.355
57425SOL    HW174114   4.049  12.606   5.348
57425SOL    HW274115   3.959  12.727   5.359
57426SOL     OW74116   9.753  14.262  10.918
57426SOL    HW174117   9.789  14.178  10.889
57426SOL    HW274118   9.825  14.324  10.909
57427SOL     OW74119   3.156  14.375   0.492
57427SOL    HW174120   3.062  14.375   0.510
57427SOL    HW274121   3.184  14.464   0.515
57428SOL     OW74122   3.563   4.987  11.073
57428SOL    HW174123   3.657   5.009  11.074
57428SOL    HW274124   3.533   5.015  10.987
57429SOL     OW74125   0.021  11.109   2.534
57429SOL    HW174126   0.025  11.039   2.599
57429SOL    HW274127  14.871  11.064   2.453
57430SOL     OW74128   2.237  14.762  10.997
57430SOL    HW174129   2.330  14.760  10.976
57430SOL    HW274130   2.194  14.769  10.912
57431SOL     OW74131  10.328  12.417   0.554
57431SOL    HW174132  10.372  12.336   0.528
57431SOL    HW274133  10.292  12.398   0.641
57432SOL     OW74134  11.543   2.386   5.845
57432SOL    HW174135  11.608   2.456   5.849
57432SOL    HW274136  11.533   2.358   5.936
57433SOL     OW74137   3.431   8.027   7.020
57433SOL    HW174138   3.335   8.028   7.016
57433SOL    HW274139   3.458   8.092   6.955
57434SOL     OW74140   3.800   6.571   6.449
57434SOL    HW174141   3.867   6.630   6.414
57434SOL    HW274142   3.849   6.503   6.495
57435SOL     OW74143   9.095   3.359   4.197
57435SOL    HW174144   9.047   3.285   4.235
57435SOL    HW274145   9.170   3.320   4.153
57436SOL     OW74146   3.026   1.463   4.337
57436SOL    HW174147   2.988   1.541   4.378
57436SOL    HW274148   3.021   1.479   4.243
57437SOL     OW74149   2.323   5.864   5.182
57437SOL    HW174150   2.232   5.837   5.184
57437SOL    HW274151   2.329   5.924   5.107
57438SOL     OW74152  12.504  11.723   1.559
57438SOL    HW174153  12.569  11.723   1.629
57438SOL    HW274154  12.525  11.645   1.507
57439SOL     OW74155  11.483   5.662  12.760
57439SOL    HW174156  11.563   5.665  12.813
57439SOL    HW274157  11.493   5.584  12.706
57440SOL     OW74158  13.622  13.635   4.607
57440SOL    HW174159  13.646  13.645   4.515
57440SOL    HW274160  13.604  13.542   4.618
57441SOL     OW74161   8.815   6.285   7.751
57441SOL    HW174162   8.868   6.359   7.778
57441SOL    HW274163   8.729   6.301   7.789
57442SOL     OW74164   8.903  12.600   2.940
57442SOL    HW174165   8.827  12.553   2.906
57442SOL    HW274166   8.871  12.688   2.959
57443SOL     OW74167   3.393   5.314  10.969
57443SOL    HW174168   3.466   5.366  11.003
57443SOL    HW274169   3.435   5.239  10.928
57444SOL     OW74170   3.314  10.992  14.646
57444SOL    HW174171   3.293  11.071  14.696
57444SOL    HW274172   3.382  11.021  14.584
57445SOL     OW74173   2.638   7.256  12.861
57445SOL    HW174174   2.724   7.215  12.869
57445SOL    HW274175   2.592   7.230  12.940
57446SOL     OW74176  12.239   0.349   5.403
57446SOL    HW174177  12.289   0.267   5.406
57446SOL    HW274178  12.229   0.368   5.310
57447SOL     OW74179   9.481   2.476  13.930
57447SOL    HW174180   9.388   2.461  13.915
57447SOL    HW274181   9.518   2.388  13.938
57448SOL     OW74182   5.182   2.462   5.600
57448SOL    HW174183   5.230   2.534   5.641
57448SOL    HW274184   5.238   2.434   5.527
57449SOL     OW74185  10.033   5.005   3.099
57449SOL    HW174186  10.026   4.978   3.190
57449SOL    HW274187   9.943   5.027   3.074
57450SOL     OW74188  11.433  11.138   7.254
57450SOL    HW174189  11.377  11.113   7.328
57450SOL    HW274190  11.382  11.201   7.204
57451SOL     OW74191   0.904   4.186   4.173
57451SOL    HW174192   0.811   4.169   4.161
57451SOL    HW274193   0.931   4.123   4.240
57452SOL     OW74194  11.101   1.288   2.717
57452SOL    HW174195  11.038   1.245   2.775
57452SOL    HW274196  11.116   1.374   2.756
57453SOL     OW74197  10.502  10.288   1.066
57453SOL    HW174198  10.565  10.298   1.138
57453SOL    HW274199  10.468  10.376   1.052
57454SOL     OW74200   9.191  12.315   2.247
57454SOL    HW174201   9.171  12.395   2.199
57454SOL    HW274202   9.142  12.322   2.329
57455SOL     OW74203  14.072   5.244   6.450
57455SOL    HW174204  14.128   5.208   6.381
57455SOL    HW274205  14.116   5.325   6.477
57456SOL     OW74206   3.586   8.080   4.425
57456SOL    HW174207   3.639   8.032   4.362
57456SOL    HW274208   3.583   8.169   4.391
57457SOL     OW74209   1.998  12.988   7.370
57457SOL    HW174210   2.031  13.013   7.283
57457SOL    HW274211   1.949  12.908   7.355
57458SOL     OW74212   7.487  12.539   1.580
57458SOL    HW174213   7.414  12.554   1.640
57458SOL    HW274214   7.562  12.580   1.622
57459SOL     OW74215  11.000   4.552  14.037
57459SOL    HW174216  10.987   4.557  13.942
57459SOL    HW274217  10.992   4.642  14.067
57460SOL     OW74218   5.747  10.029  11.154
57460SOL    HW174219   5.813   9.997  11.093
57460SOL    HW274220   5.753   9.971  11.230
57461SOL     OW74221   7.394  14.469   9.099
57461SOL    HW174222   7.404  14.505   9.187
57461SOL    HW274223   7.452  14.522   9.044
57462SOL     OW74224   5.573   6.921   1.665
57462SOL    HW174225   5.658   6.964   1.661
57462SOL    HW274226   5.593   6.828   1.666
57463SOL     OW74227   1.180   2.058   3.325
57463SOL    HW174228   1.228   1.980   3.296
57463SOL    HW274229   1.200   2.125   3.260
57464SOL     OW74230   1.391   9.582  11.943
57464SOL    HW174231   1.363   9.615  12.028
57464SOL    HW274232   1.312   9.547  11.903
57465SOL     OW74233  11.575   0.302   3.789
57465SOL    HW174234  11.638   0.373   3.802
57465SOL    HW274235  11.520   0.332   3.716
57466SOL     OW74236  12.112  12.071   6.924
57466SOL    HW174237  12.159  12.070   6.840
57466SOL    HW274238  12.053  12.146   6.917
57467SOL     OW74239   0.653  10.820   6.586
57467SOL    HW174240   0.644  10.765   6.509
57467SOL    HW274241   0.566  10.823   6.625
57468SOL     OW74242   4.000   9.522   4.092
57468SOL    HW174243   4.007   9.616   4.075
57468SOL    HW274244   4.052   9.481   4.023
57469SOL     OW74245  10.978   4.769  13.129
57469SOL    HW174246  11.001   4.757  13.221
57469SOL    HW274247  11.056   4.809  13.090
57470SOL     OW74248   4.860  12.744  14.350
57470SOL    HW174249   4.866  12.799  14.272
57470SOL    HW274250   4.809  12.668  14.322
57471SOL     OW74251   0.524   1.078   8.996
57471SOL    HW174252   0.607   1.089   9.043
57471SOL    HW274253   0.531   0.990   8.957
57472SOL     OW74254   8.888  12.700   5.755
57472SOL    HW174255   8.859  12.641   5.825
57472SOL    HW274256   8.941  12.645   5.697
57473SOL     OW74257  12.950   0.536  14.078
57473SOL    HW174258  12.898   0.576  14.148
57473SOL    HW274259  12.980   0.610  14.025
57474SOL     OW74260  11.227   5.982   4.947
57474SOL    HW174261  11.270   6.020   5.024
57474SOL    HW274262  11.245   6.044   4.876
57475SOL     OW74263   8.666   0.840   2.072
57475SOL    HW174264   8.685   0.773   2.138
57475SOL    HW274265   8.570   0.843   2.067
57476SOL     OW74266   1.924  10.438   8.877
57476SOL    HW174267   1.982  10.457   8.803
57476SOL    HW274268   1.952  10.498   8.946
57477SOL     OW74269   8.351   4.651  11.122
57477SOL    HW174270   8.377   4.713  11.190
57477SOL    HW274271   8.329   4.706  11.046
57478SOL     OW74272   7.448  10.038   8.341
57478SOL    HW174273   7.369  10.036   8.396
57478SOL    HW274274   7.460   9.947   8.314
57479SOL     OW74275   8.379   4.656   1.835
57479SOL    HW174276   8.339   4.607   1.906
57479SOL    HW274277   8.437   4.594   1.791
57480SOL     OW74278  13.552   5.934  14.699
57480SOL    HW174279  13.614   5.960  14.632
57480SOL    HW274280  13.592   5.858  14.741
57481SOL     OW74281   5.602  14.312   1.471
57481SOL    HW174282   5.656  14.328   1.548
57481SOL    HW274283   5.629  14.378   1.407
57482SOL     OW74284   7.449  12.774  11.483
57482SOL    HW174285   7.370  12.785  11.431
57482SOL    HW274286   7.424  12.803  11.571
57483SOL     OW74287   4.239  12.016  14.397
57483SOL    HW174288   4.223  11.925  14.372
57483SOL    HW274289   4.292  12.052  14.326
57484SOL     OW74290  13.622  11.748   5.045
57484SOL    HW174291  13.527  11.742   5.032
57484SOL    HW274292  13.657  11.771   4.959
57485SOL     OW74293   4.120  10.608   5.716
57485SOL    HW174294   4.127  10.535   5.655
57485SOL    HW274295   4.187  10.670   5.687
57486SOL     OW74296   9.017   9.701   2.823
57486SOL    HW174297   9.061   9.781   2.851
57486SOL    HW274298   8.983   9.663   2.903
57487SOL     OW74299   5.617  11.425   0.556
57487SOL    HW174300   5.649  11.429   0.466
57487SOL    HW274301   5.644  11.339   0.588
57488SOL     OW74302  11.684   1.920  11.701
57488SOL    HW174303  11.647   1.895  11.617
57488SOL    HW274304  11.702   2.014  11.693
57489SOL     OW74305   3.026   7.471   0.625
57489SOL    HW174306   2.934   7.450   0.614
57489SOL    HW274307   3.027   7.563   0.654
57490SOL     OW74308   7.615  10.023   8.798
57490SOL    HW174309   7.634  10.099   8.742
57490SOL    HW274310   7.548  10.054   8.859
57491SOL     OW74311   3.638  13.435  10.702
57491SOL    HW174312   3.622  13.529  10.711
57491SOL    HW274313   3.662  13.407  10.791
57492SOL     OW74314   4.619   1.041   7.630
57492SOL    HW174315   4.620   0.950   7.602
57492SOL    HW274316   4.528   1.069   7.616
57493SOL     OW74317   1.281   4.206  13.375
57493SOL    HW174318   1.343   4.134  13.379
57493SOL    HW274319   1.320   4.274  13.430
57494SOL     OW74320   0.452   4.560  13.012
57494SOL    HW174321   0.371   4.543  12.963
57494SOL    HW274322   0.496   4.475  13.015
57495SOL     OW74323   3.284  12.797  11.743
57495SOL    HW174324   3.198  12.818  11.707
57495SOL    HW274325   3.268  12.728  11.807
57496SOL     OW74326  10.993   8.201  11.901
57496SOL    HW174327  10.954   8.131  11.954
57496SOL    HW274328  10.927   8.221  11.835
57497SOL     OW74329  12.618  10.427   2.051
57497SOL    HW174330  12.633  10.429   1.957
57497SOL    HW274331  12.694  10.470   2.089
57498SOL     OW74332   7.818  11.213   0.428
57498SOL    HW174333   7.818  11.151   0.355
57498SOL    HW274334   7.847  11.296   0.389
57499SOL     OW74335  13.069  13.587  12.843
57499SOL    HW174336  12.998  13.598  12.779
57499SOL    HW274337  13.081  13.675  12.879
57500SOL     OW74338   2.576   2.390   1.544
57500SOL    HW174339   2.597   2.373   1.636
57500SOL    HW274340   2.480   2.399   1.543
57501SOL     OW74341  10.088  12.684  14.650
57501SOL    HW174342  10.113  12.739  14.724
57501SOL    HW274343  10.041  12.742  14.591
57502SOL     OW74344  14.008   3.708   0.624
57502SOL    HW174345  13.936   3.758   0.663
57502SOL    HW274346  14.020   3.747   0.537
57503SOL     OW74347   3.988   5.580   5.024
57503SOL    HW174348   4.069   5.568   5.074
57503SOL    HW274349   3.930   5.625   5.085
57504SOL     OW74350  13.002   3.333  10.186
57504SOL    HW174351  13.032   3.401  10.125
57504SOL    HW274352  12.958   3.381  10.256
57505SOL     OW74353  12.934   1.059   4.286
57505SOL    HW174354  12.905   0.994   4.222
57505SOL    HW274355  12.972   1.007   4.358
57506SOL     OW74356   3.832   0.768  11.432
57506SOL    HW174357   3.904   0.781  11.370
57506SOL    HW274358   3.784   0.693  11.398
57507SOL     OW74359   9.210   4.484   6.099
57507SOL    HW174360   9.301   4.508   6.081
57507SOL    HW274361   9.164   4.501   6.017
57508SOL     OW74362   7.413  13.068  11.196
57508SOL    HW174363   7.353  13.058  11.270
57508SOL    HW274364   7.372  13.137  11.143
57509SOL     OW74365   4.065   5.718  12.994
57509SOL    HW174366   4.014   5.681  13.066
57509SOL    HW274367   4.137   5.657  12.981
57510SOL     OW74368   6.189   4.768   9.503
57510SOL    HW174369   6.095   4.773   9.520
57510SOL    HW274370   6.209   4.674   9.511
57511SOL     OW74371   1.292   7.186   4.727
57511SOL    HW174372   1.382   7.212   4.710
57511SOL    HW274373   1.293   7.153   4.817
57512SOL     OW74374   5.176  11.081  12.735
57512SOL    HW174375   5.261  11.122  12.752
57512SOL    HW274376   5.194  11.014  12.669
57513SOL     OW74377  12.978   0.749  12.964
57513SOL    HW174378  12.928   0.792  12.894
57513SOL    HW274379  13.035   0.818  12.998
57514SOL     OW74380  11.451   1.247  14.221
57514SOL    HW174381  11.468   1.326  14.170
57514SOL    HW274382  11.375   1.270  14.275
57515SOL     OW74383   2.482   2.887   8.618
57515SOL    HW174384   2.506   2.973   8.654
57515SOL    HW274385   2.544   2.826   8.657
57516SOL     OW74386   2.065   9.129  11.714
57516SOL    HW174387   2.106   9.215  11.702
57516SOL    HW274388   2.135   9.066  11.693
57517SOL     OW74389   9.716  12.301  11.165
57517SOL    HW174390   9.675  12.244  11.100
57517SOL    HW274391   9.681  12.269  11.249
57518SOL     OW74392  13.570  10.217   2.766
57518SOL    HW174393  13.513  10.167   2.825
57518SOL    HW274394  13.658  10.202   2.800
57519SOL     OW74395   3.403   6.725   3.785
57519SOL    HW174396   3.315   6.688   3.785
57519SOL    HW274397   3.461   6.648   3.788
57520SOL     OW74398   2.560   4.007   9.707
57520SOL    HW174399   2.527   3.944   9.642
57520SOL    HW274400   2.515   4.089   9.686
57521SOL     OW74401   9.563  10.224   0.499
57521SOL    HW174402   9.621  10.190   0.567
57521SOL    HW274403   9.475  10.210   0.533
57522SOL     OW74404  10.813   5.026   6.807
57522SOL    HW174405  10.857   5.101   6.768
57522SOL    HW274406  10.735   5.063   6.848
57523SOL     OW74407   0.335  14.644  14.357
57523SOL    HW174408   0.265  14.695  14.316
57523SOL    HW274409   0.405  14.642  14.292
57524SOL     OW74410   6.380  12.976   6.453
57524SOL    HW174411   6.461  13.026   6.463
57524SOL    HW274412   6.407  12.884   6.460
57525SOL     OW74413   5.501   4.043   7.839
57525SOL    HW174414   5.576   4.080   7.885
57525SOL    HW274415   5.493   3.954   7.873
57526SOL     OW74416   3.649   3.640   0.285
57526SOL    HW174417   3.639   3.569   0.221
57526SOL    HW274418   3.568   3.637   0.336
57527SOL     OW74419  14.004  13.764   1.142
57527SOL    HW174420  14.016  13.855   1.116
57527SOL    HW274421  13.996  13.717   1.059
57528SOL     OW74422   4.842   7.997  11.473
57528SOL    HW174423   4.936   7.985  11.488
57528SOL    HW274424   4.808   8.025  11.558
57529SOL     OW74425   3.409   8.430  14.156
57529SOL    HW174426   3.398   8.517  14.117
57529SOL    HW274427   3.484   8.392  14.111
57530SOL     OW74428  11.520  13.752  12.840
57530SOL    HW174429  11.518  13.771  12.746
57530SOL    HW274430  11.450  13.689  12.852
57531SOL     OW74431   1.806   9.625   1.881
57531SOL    HW174432   1.885   9.674   1.861
57531SOL    HW274433   1.814   9.602   1.973
57532SOL     OW74434   8.064   0.929   4.173
57532SOL    HW174435   7.973   0.956   4.187
57532SOL    HW274436   8.059   0.835   4.154
57533SOL     OW74437   8.093   6.478   4.834
57533SOL    HW174438   8.006   6.481   4.794
57533SOL    HW274439   8.114   6.570   4.851
57534SOL     OW74440  14.361   5.450   6.099
57534SOL    HW174441  14.437   5.508   6.092
57534SOL    HW274442  14.391   5.366   6.065
57535SOL     OW74443  11.869  10.453   6.925
57535SOL    HW174444  11.894  10.517   6.991
57535SOL    HW274445  11.906  10.370   6.957
57536SOL     OW74446  11.459   7.689   3.819
57536SOL    HW174447  11.430   7.774   3.853
57536SOL    HW274448  11.380   7.637   3.815
57537SOL     OW74449   3.911  13.515  12.042
57537SOL    HW174450   3.949  13.578  12.104
57537SOL    HW274451   3.971  13.515  11.968
57538SOL     OW74452   0.682  10.803   8.931
57538SOL    HW174453   0.600  10.777   8.890
57538SOL    HW274454   0.679  10.764   9.018
57539SOL     OW74455   9.992   0.055   5.791
57539SOL    HW174456  10.007  14.857   5.733
57539SOL    HW274457  10.008   0.020   5.879
57540SOL     OW74458  11.490  12.943  10.726
57540SOL    HW174459  11.565  12.905  10.771
57540SOL    HW274460  11.446  12.869  10.685
57541SOL     OW74461  13.423   0.874  13.826
57541SOL    HW174462  13.498   0.828  13.789
57541SOL    HW274463  13.370   0.805  13.866
57542SOL     OW74464   2.973   1.063  10.210
57542SOL    HW174465   3.048   1.069  10.151
57542SOL    HW274466   2.897   1.066  10.152
57543SOL     OW74467   8.180   5.462   6.172
57543SOL    HW174468   8.215   5.443   6.085
57543SOL    HW274469   8.243   5.422   6.232
57544SOL     OW74470   8.977   0.267  10.370
57544SOL    HW174471   9.054   0.223  10.334
57544SOL    HW274472   8.973   0.237  10.461
57545SOL     OW74473  13.667   9.524   4.303
57545SOL    HW174474  13.721   9.463   4.354
57545SOL    HW274475  13.715   9.534   4.221
57546SOL     OW74476   1.130   8.553   9.467
57546SOL    HW174477   1.093   8.641   9.457
57546SOL    HW274478   1.210   8.555   9.415
57547SOL     OW74479   0.648   6.344   9.306
57547SOL    HW174480   0.596   6.378   9.233
57547SOL    HW274481   0.603   6.264   9.333
57548SOL     OW74482  11.768   8.797   0.525
57548SOL    HW174483  11.682   8.792   0.568
57548SOL    HW274484  11.752   8.763   0.437
57549SOL     OW74485   9.916  13.333   1.728
57549SOL    HW174486   9.905  13.280   1.649
57549SOL    HW274487   9.949  13.272   1.794
57550SOL     OW74488   7.241   4.977   6.080
57550SOL    HW174489   7.245   4.997   5.987
57550SOL    HW274490   7.151   4.951   6.096
57551SOL     OW74491  14.022   8.748  14.014
57551SOL    HW174492  14.016   8.758  14.108
57551SOL    HW274493  13.958   8.810  13.978
57552SOL     OW74494   7.178   1.820  14.421
57552SOL    HW174495   7.174   1.794  14.513
57552SOL    HW274496   7.145   1.910  14.420
57553SOL     OW74497  10.828   9.151   5.260
57553SOL    HW174498  10.834   9.066   5.302
57553SOL    HW274499  10.918   9.184   5.259
57554SOL     OW74500   3.279   4.993   6.635
57554SOL    HW174501   3.368   5.027   6.623
57554SOL    HW274502   3.285   4.937   6.712
57555SOL     OW74503  11.184  10.915   4.002
57555SOL    HW174504  11.277  10.939   4.004
57555SOL    HW274505  11.184  10.820   3.989
57556SOL     OW74506   4.889   5.302   2.192
57556SOL    HW174507   4.912   5.256   2.110
57556SOL    HW274508   4.813   5.255   2.225
57557SOL     OW74509   7.562   4.977   2.310
57557SOL    HW174510   7.642   4.983   2.256
57557SOL    HW274511   7.546   4.883   2.319
57558SOL     OW74512  14.619  10.714  11.486
57558SOL    HW174513  14.613  10.619  11.503
57558SOL    HW274514  14.626  10.753  11.573
57559SOL     OW74515  14.558  10.887   9.960
57559SOL    HW174516  14.596  10.973   9.942
57559SOL    HW274517  14.581  10.869  10.051
57560SOL     OW74518   1.144  14.368  11.592
57560SOL    HW174519   1.219  14.426  11.593
57560SOL    HW274520   1.168  14.298  11.531
57561SOL     OW74521   2.897   8.329   9.709
57561SOL    HW174522   2.950   8.336   9.789
57561SOL    HW274523   2.941   8.388   9.647
57562SOL     OW74524  13.162   2.713   0.562
57562SOL    HW174525  13.254   2.707   0.589
57562SOL    HW274526  13.153   2.803   0.530
57563SOL     OW74527   8.527   1.675  13.837
57563SOL    HW174528   8.495   1.702  13.923
57563SOL    HW274529   8.447   1.656  13.788
57564SOL     OW74530  11.768  12.646  14.222
57564SOL    HW174531  11.852  12.641  14.266
57564SOL    HW274532  11.760  12.562  14.176
57565SOL     OW74533   1.517   2.150   5.914
57565SOL    HW174534   1.472   2.228   5.883
57565SOL    HW274535   1.610   2.170   5.902
57566SOL     OW74536   1.203  12.242   2.345
57566SOL    HW174537   1.121  12.277   2.381
57566SOL    HW274538   1.179  12.211   2.257
57567SOL     OW74539  12.386   9.053   4.511
57567SOL    HW174540  12.387   9.136   4.558
57567SOL    HW274541  12.477   9.024   4.512
57568SOL     OW74542  13.236  10.919  14.547
57568SOL    HW174543  13.231  11.015  14.553
57568SOL    HW274544  13.149  10.889  14.571
57569SOL     OW74545  12.041   2.192   2.346
57569SOL    HW174546  12.047   2.203   2.440
57569SOL    HW274547  11.991   2.111   2.333
57570SOL     OW74548   2.450  13.802   6.647
57570SOL    HW174549   2.538  13.804   6.611
57570SOL    HW274550   2.463  13.807   6.742
57571SOL     OW74551  14.310   8.026  13.852
57571SOL    HW174552  14.220   8.016  13.820
57571SOL    HW274553  14.338   7.937  13.873
57572SOL     OW74554   7.982   5.305   8.511
57572SOL    HW174555   8.005   5.392   8.479
57572SOL    HW274556   8.057   5.251   8.489
57573SOL     OW74557   9.167   8.076  13.247
57573SOL    HW174558   9.259   8.050  13.242
57573SOL    HW274559   9.162   8.154  13.191
57574SOL     OW74560   5.729   6.125   0.722
57574SOL    HW174561   5.754   6.048   0.772
57574SOL    HW274562   5.741   6.101   0.631
57575SOL     OW74563   2.079   1.200   3.774
57575SOL    HW174564   2.074   1.295   3.784
57575SOL    HW274565   2.077   1.166   3.863
57576SOL     OW74566  14.405   1.804  13.391
57576SOL    HW174567  14.477   1.786  13.452
57576SOL    HW274568  14.371   1.718  13.369
57577SOL     OW74569   4.070  14.244   1.654
57577SOL    HW174570   4.028  14.196   1.582
57577SOL    HW274571   4.115  14.177   1.705
57578SOL     OW74572   5.407   3.846   6.448
57578SOL    HW174573   5.331   3.858   6.392
57578SOL    HW274574   5.376   3.789   6.518
57579SOL     OW74575  10.473   0.504  11.654
57579SOL    HW174576  10.445   0.442  11.586
57579SOL    HW274577  10.391   0.544  11.683
57580SOL     OW74578  12.269   6.850   9.939
57580SOL    HW174579  12.193   6.902   9.966
57580SOL    HW274580  12.294   6.803  10.019
57581SOL     OW74581   6.843  11.212  10.994
57581SOL    HW174582   6.932  11.245  10.998
57581SOL    HW274583   6.800  11.248  11.071
57582SOL     OW74584   9.864   1.704  12.250
57582SOL    HW174585   9.797   1.762  12.286
57582SOL    HW274586   9.842   1.617  12.284
57583SOL     OW74587   7.788   4.706  14.365
57583SOL    HW174588   7.879   4.687  14.343
57583SOL    HW274589   7.767   4.785  14.315
57584SOL     OW74590   2.837  11.514   8.309
57584SOL    HW174591   2.909  11.531   8.369
57584SOL    HW274592   2.758  11.527   8.362
57585SOL     OW74593  10.706   2.224  14.563
57585SOL    HW174594  10.693   2.261  14.476
57585SOL    HW274595  10.660   2.140  14.562
57586SOL     OW74596  12.108   5.223  14.210
57586SOL    HW174597  12.097   5.212  14.115
57586SOL    HW274598  12.061   5.149  14.248
57587SOL     OW74599   4.913   4.888   1.723
57587SOL    HW174600   5.006   4.912   1.725
57587SOL    HW274601   4.881   4.924   1.641
57588SOL     OW74602   5.074   4.061   9.951
57588SOL    HW174603   5.002   4.118   9.924
57588SOL    HW274604   5.120   4.110  10.019
57589SOL     OW74605   2.329  12.952  11.662
57589SOL    HW174606   2.379  12.907  11.731
57589SOL    HW274607   2.323  12.888  11.591
57590SOL     OW74608   5.545  10.215   0.588
57590SOL    HW174609   5.624  10.262   0.561
57590SOL    HW274610   5.534  10.147   0.522
57591SOL     OW74611   6.227   5.537   2.102
57591SOL    HW174612   6.221   5.446   2.131
57591SOL    HW274613   6.147   5.577   2.135
57592SOL     OW74614  11.652   5.731   6.489
57592SOL    HW174615  11.619   5.789   6.558
57592SOL    HW274616  11.744   5.717   6.511
57593SOL     OW74617   3.412   1.445  14.671
57593SOL    HW174618   3.381   1.355  14.680
57593SOL    HW274619   3.340   1.498  14.705
57594SOL     OW74620   0.217   5.869   6.437
57594SOL    HW174621   0.193   5.777   6.421
57594SOL    HW274622   0.195   5.913   6.355
57595SOL     OW74623   1.394   9.471   9.332
57595SOL    HW174624   1.323   9.444   9.391
57595SOL    HW274625   1.360   9.454   9.244
57596SOL     OW74626  11.184   2.817   6.149
57596SOL    HW174627  11.175   2.745   6.086
57596SOL    HW274628  11.124   2.885   6.116
57597SOL     OW74629   5.865  11.016   1.254
57597SOL    HW174630   5.787  10.992   1.305
57597SOL    HW274631   5.834  11.021   1.164
57598SOL     OW74632  14.307   1.675  10.723
57598SOL    HW174633  14.385   1.648  10.673
57598SOL    HW274634  14.235   1.626  10.683
57599SOL     OW74635   8.196   9.186   2.765
57599SOL    HW174636   8.282   9.177   2.805
57599SOL    HW274637   8.160   9.266   2.802
57600SOL     OW74638   1.560   0.862   2.382
57600SOL    HW174639   1.605   0.927   2.329
57600SOL    HW274640   1.578   0.779   2.338
57601SOL     OW74641   3.083   7.434   7.767
57601SOL    HW174642   3.115   7.428   7.857
57601SOL    HW274643   3.141   7.498   7.726
57602SOL     OW74644   2.453  10.755  12.781
57602SOL    HW174645   2.488  10.693  12.845
57602SOL    HW274646   2.525  10.817  12.766
57603SOL     OW74647  14.540  12.198   0.090
57603SOL    HW174648  14.550  12.272   0.030
57603SOL    HW274649  14.600  12.132   0.056
57604SOL     OW74650  14.459   9.102   4.022
57604SOL    HW174651  14.390   9.168   4.019
57604SOL    HW274652  14.533   9.147   4.063
57605SOL     OW74653   3.279  10.081  10.689
57605SOL    HW174654   3.187  10.052  10.686
57605SOL    HW274655   3.275  10.174  10.666
57606SOL     OW74656   3.032   3.731  12.881
57606SOL    HW174657   2.996   3.664  12.823
57606SOL    HW274658   2.983   3.810  12.860
57607SOL     OW74659   7.209   1.525  14.323
57607SOL    HW174660   7.184   1.617  14.310
57607SOL    HW274661   7.297   1.519  14.285
57608SOL     OW74662   9.784   8.322   6.673
57608SOL    HW174663   9.853   8.386   6.656
57608SOL    HW274664   9.703   8.372   6.666
57609SOL     OW74665   1.205   2.435   5.476
57609SOL    HW174666   1.168   2.441   5.388
57609SOL    HW274667   1.275   2.500   5.476
57610SOL     OW74668  11.615  14.514   5.091
57610SOL    HW174669  11.659  14.550   5.168
57610SOL    HW274670  11.676  14.449   5.057
57611SOL     OW74671   9.957   3.792   2.160
57611SOL    HW174672   9.893   3.722   2.143
57611SOL    HW274673   9.920   3.840   2.234
57612SOL     OW74674   4.127   6.861  12.328
57612SOL    HW174675   4.168   6.816  12.253
57612SOL    HW274676   4.200   6.877  12.388
57613SOL     OW74677  11.217  11.342  10.214
57613SOL    HW174678  11.303  11.364  10.248
57613SOL    HW274679  11.158  11.405  10.254
57614SOL     OW74680   6.422   2.073   0.432
57614SOL    HW174681   6.380   2.123   0.502
57614SOL    HW274682   6.407   1.982   0.455
57615SOL     OW74683   6.699   1.079  12.455
57615SOL    HW174684   6.776   1.056  12.507
57615SOL    HW274685   6.669   1.162  12.491
57616SOL     OW74686   6.473   5.542  12.298
57616SOL    HW174687   6.528   5.477  12.342
57616SOL    HW274688   6.521   5.564  12.218
57617SOL     OW74689  13.729  12.463   6.450
57617SOL    HW174690  13.749  12.400   6.381
57617SOL    HW274691  13.747  12.417   6.531
57618SOL     OW74692   1.972  11.692   8.211
57618SOL    HW174693   2.032  11.655   8.146
57618SOL    HW274694   2.004  11.660   8.295
57619SOL     OW74695   7.718  11.066  13.055
57619SOL    HW174696   7.647  11.018  13.013
57619SOL    HW274697   7.679  11.104  13.133
57620SOL     OW74698   4.484   6.191   2.581
57620SOL    HW174699   4.476   6.286   2.594
57620SOL    HW274700   4.545   6.182   2.508
57621SOL     OW74701   9.410  12.003   7.141
57621SOL    HW174702   9.431  11.949   7.065
57621SOL    HW274703   9.495  12.035   7.172
57622SOL     OW74704  14.400  10.268   5.524
57622SOL    HW174705  14.479  10.256   5.575
57622SOL    HW274706  14.355  10.342   5.565
57623SOL     OW74707  11.088  12.244   9.730
57623SOL    HW174708  11.002  12.273   9.700
57623SOL    HW274709  11.103  12.161   9.685
57624SOL     OW74710   2.483  14.542  12.895
57624SOL    HW174711   2.572  14.572  12.876
57624SOL    HW274712   2.443  14.616  12.941
57625SOL     OW74713   9.769  11.754  12.837
57625SOL    HW174714   9.841  11.816  12.825
57625SOL    HW274715   9.795  11.677  12.786
57626SOL     OW74716   4.269  14.165   6.551
57626SOL    HW174717   4.194  14.197   6.601
57626SOL    HW274718   4.273  14.222   6.474
57627SOL     OW74719   4.066  12.360   4.811
57627SOL    HW174720   4.117  12.379   4.732
57627SOL    HW274721   3.979  12.338   4.779
57628SOL     OW74722   1.226   6.748  12.250
57628SOL    HW174723   1.213   6.653  12.248
57628SOL    HW274724   1.139   6.785  12.263
57629SOL     OW74725   8.847  14.528   6.476
57629SOL    HW174726   8.929  14.542   6.525
57629SOL    HW274727   8.874  14.530   6.384
57630SOL     OW74728  12.649   4.954   9.925
57630SOL    HW174729  12.744   4.951   9.913
57630SOL    HW274730  12.617   5.007   9.852
57631SOL     OW74731  14.049   2.919   7.018
57631SOL    HW174732  14.085   2.838   6.983
57631SOL    HW274733  14.111   2.987   6.991
57632SOL     OW74734   4.635   2.581  10.830
57632SOL    HW174735   4.726   2.606  10.845
57632SOL    HW274736   4.602   2.561  10.918
57633SOL     OW74737  14.440   8.818  11.439
57633SOL    HW174738  14.483   8.796  11.521
57633SOL    HW274739  14.501   8.877  11.394
57634SOL     OW74740   3.691   7.480   4.614
57634SOL    HW174741   3.691   7.384   4.610
57634SOL    HW274742   3.733   7.500   4.697
57635SOL     OW74743   8.491  10.640   9.350
57635SOL    HW174744   8.470  10.585   9.274
57635SOL    HW274745   8.543  10.584   9.407
57636SOL     OW74746  10.642  10.256  14.266
57636SOL    HW174747  10.588  10.234  14.343
57636SOL    HW274748  10.597  10.213  14.193
57637SOL     OW74749   3.385   8.446   8.653
57637SOL    HW174750   3.466   8.447   8.704
57637SOL    HW274751   3.401   8.508   8.582
57638SOL     OW74752   7.952  11.159   4.539
57638SOL    HW174753   8.005  11.175   4.617
57638SOL    HW274754   7.925  11.246   4.510
57639SOL     OW74755   4.897   4.291  13.416
57639SOL    HW174756   4.820   4.348  13.406
57639SOL    HW274757   4.876   4.234  13.489
57640SOL     OW74758   5.845   6.433  12.420
57640SOL    HW174759   5.787   6.510  12.417
57640SOL    HW274760   5.856   6.408  12.329
57641SOL     OW74761  14.253   3.384   8.623
57641SOL    HW174762  14.199   3.420   8.694
57641SOL    HW274763  14.343   3.402   8.649
57642SOL     OW74764   6.317   1.063   5.197
57642SOL    HW174765   6.395   1.088   5.247
57642SOL    HW274766   6.342   0.981   5.154
57643SOL     OW74767   3.752   6.959  10.610
57643SOL    HW174768   3.792   7.036  10.571
57643SOL    HW274769   3.825   6.913  10.652
57644SOL     OW74770  10.653   2.958  12.760
57644SOL    HW174771  10.654   2.874  12.715
57644SOL    HW274772  10.652   2.936  12.853
57645SOL     OW74773  12.873   7.817   7.513
57645SOL    HW174774  12.923   7.743   7.478
57645SOL    HW274775  12.821   7.848   7.439
57646SOL     OW74776  12.025   2.720   0.641
57646SOL    HW174777  12.002   2.783   0.574
57646SOL    HW274778  12.066   2.772   0.710
57647SOL     OW74779   2.648   5.016   2.328
57647SOL    HW174780   2.740   5.038   2.343
57647SOL    HW274781   2.618   5.079   2.262
57648SOL     OW74782   2.223  13.312  13.157
57648SOL    HW174783   2.166  13.308  13.234
57648SOL    HW274784   2.312  13.312  13.192
57649SOL     OW74785  13.107   6.442   2.539
57649SOL    HW174786  13.154   6.452   2.457
57649SOL    HW274787  13.023   6.486   2.524
57650SOL     OW74788  11.418  13.516  11.216
57650SOL    HW174789  11.433  13.604  11.182
57650SOL    HW274790  11.334  13.522  11.262
57651SOL     OW74791   9.653  14.742   2.374
57651SOL    HW174792   9.668  14.664   2.428
57651SOL    HW274793   9.567  14.727   2.334
57652SOL     OW74794   8.974   7.851   1.801
57652SOL    HW174795   8.981   7.913   1.873
57652SOL    HW274796   8.890   7.872   1.760
57653SOL     OW74797   5.989  10.376   4.589
57653SOL    HW174798   5.969  10.290   4.627
57653SOL    HW274799   6.053  10.358   4.521
57654SOL     OW74800   7.140   0.472   3.060
57654SOL    HW174801   7.204   0.541   3.080
57654SOL    HW274802   7.163   0.401   3.120
57655SOL     OW74803   1.257  12.608  14.769
57655SOL    HW174804   1.232  12.563  14.689
57655SOL    HW274805   1.345  12.642  14.751
57656SOL     OW74806   6.824  12.666   8.883
57656SOL    HW174807   6.850  12.666   8.975
57656SOL    HW274808   6.730  12.644   8.886
57657SOL     OW74809  12.714  11.069   5.657
57657SOL    HW174810  12.684  11.112   5.576
57657SOL    HW274811  12.691  10.977   5.644
57658SOL     OW74812   9.509   6.530   2.217
57658SOL    HW174813   9.530   6.447   2.261
57658SOL    HW274814   9.414   6.537   2.225
57659SOL     OW74815  12.904   2.809   3.638
57659SOL    HW174816  12.895   2.881   3.576
57659SOL    HW274817  12.922   2.851   3.722
57660SOL     OW74818   3.207   8.347  10.655
57660SOL    HW174819   3.231   8.337  10.563
57660SOL    HW274820   3.142   8.278  10.670
57661SOL     OW74821   0.424   7.526  11.841
57661SOL    HW174822   0.369   7.453  11.813
57661SOL    HW274823   0.363   7.593  11.868
57662SOL     OW74824  12.840   6.589   4.132
57662SOL    HW174825  12.874   6.598   4.043
57662SOL    HW274826  12.902   6.531   4.176
57663SOL     OW74827   9.848   3.949   5.729
57663SOL    HW174828   9.796   3.948   5.809
57663SOL    HW274829   9.884   4.038   5.725
57664SOL     OW74830   4.645   7.892  13.112
57664SOL    HW174831   4.691   7.869  13.032
57664SOL    HW274832   4.646   7.812  13.164
57665SOL     OW74833   6.130   4.728   3.811
57665SOL    HW174834   6.189   4.654   3.827
57665SOL    HW274835   6.152   4.758   3.722
57666SOL     OW74836   7.742   1.820   3.228
57666SOL    HW174837   7.677   1.889   3.228
57666SOL    HW274838   7.809   1.851   3.290
57667SOL     OW74839   2.449   6.219   4.058
57667SOL    HW174840   2.420   6.221   3.967
57667SOL    HW274841   2.529   6.272   4.058
57668SOL     OW74842   4.224   1.776  14.288
57668SOL    HW174843   4.198   1.868  14.292
57668SOL    HW274844   4.305   1.777  14.236
57669SOL     OW74845  10.380  11.676   9.514
57669SOL    HW174846  10.292  11.650   9.538
57669SOL    HW274847  10.410  11.608   9.454
57670SOL     OW74848   2.270  11.775   5.427
57670SOL    HW174849   2.281  11.778   5.522
57670SOL    HW274850   2.208  11.845   5.407
57671SOL     OW74851   9.078  11.224  13.632
57671SOL    HW174852   9.078  11.299  13.572
57671SOL    HW274853   9.053  11.261  13.717
57672SOL     OW74854   2.541   5.969   7.155
57672SOL    HW174855   2.580   5.993   7.071
57672SOL    HW274856   2.575   6.033   7.217
57673SOL     OW74857   2.795   8.914   4.103
57673SOL    HW174858   2.819   8.953   4.018
57673SOL    HW274859   2.860   8.951   4.164
57674SOL     OW74860  13.666  10.390   1.425
57674SOL    HW174861  13.697  10.463   1.372
57674SOL    HW274862  13.665  10.315   1.365
57675SOL     OW74863  10.955  11.731  14.620
57675SOL    HW174864  10.962  11.693  14.707
57675SOL    HW274865  11.042  11.719  14.581
57676SOL     OW74866   0.749  10.143   0.119
57676SOL    HW174867   0.831  10.164   0.072
57676SOL    HW274868   0.735  10.050   0.101
57677SOL     OW74869   8.725   4.467  10.249
57677SOL    HW174870   8.752   4.376  10.244
57677SOL    HW274871   8.642   4.464  10.298
57678SOL     OW74872   9.214   9.353  10.554
57678SOL    HW174873   9.177   9.270  10.525
57678SOL    HW274874   9.217   9.407  10.475
57679SOL     OW74875  11.872  14.517   9.481
57679SOL    HW174876  11.873  14.562   9.397
57679SOL    HW274877  11.784  14.533   9.515
57680SOL     OW74878   3.835   6.219  12.925
57680SOL    HW174879   3.792   6.285  12.979
57680SOL    HW274880   3.921   6.255  12.905
57681SOL     OW74881   8.891   8.495   5.824
57681SOL    HW174882   8.985   8.480   5.827
57681SOL    HW274883   8.875   8.560   5.892
57682SOL     OW74884  13.245  12.774   2.386
57682SOL    HW174885  13.271  12.692   2.344
57682SOL    HW274886  13.327  12.812   2.419
57683SOL     OW74887  11.205   0.047   9.603
57683SOL    HW174888  11.130  14.864   9.594
57683SOL    HW274889  11.270   0.011   9.543
57684SOL     OW74890   0.202  12.113  12.753
57684SOL    HW174891   0.139  12.168  12.706
57684SOL    HW274892   0.221  12.041  12.692
57685SOL     OW74893   2.444  10.942  11.987
57685SOL    HW174894   2.455  10.946  11.892
57685SOL    HW274895   2.398  11.023  12.010
57686SOL     OW74896   7.421  10.121  11.847
57686SOL    HW174897   7.337  10.092  11.881
57686SOL    HW274898   7.417  10.102  11.753
57687SOL     OW74899   8.301   5.141   9.358
57687SOL    HW174900   8.297   5.096   9.442
57687SOL    HW274901   8.235   5.097   9.304
57688SOL     OW74902   1.123   0.410   3.044
57688SOL    HW174903   1.140   0.497   3.008
57688SOL    HW274904   1.067   0.426   3.120
57689SOL     OW74905   3.621   4.426   8.184
57689SOL    HW174906   3.585   4.340   8.158
57689SOL    HW274907   3.659   4.411   8.270
57690SOL     OW74908   2.126   9.843   8.946
57690SOL    HW174909   2.199   9.896   8.911
57690SOL    HW274910   2.159   9.753   8.945
57691SOL     OW74911   2.648   4.705  10.291
57691SOL    HW174912   2.568   4.702  10.239
57691SOL    HW274913   2.619   4.689  10.381
57692SOL     OW74914   1.338   0.657   0.242
57692SOL    HW174915   1.400   0.697   0.303
57692SOL    HW274916   1.359   0.563   0.245
57693SOL     OW74917   6.929   6.744   4.358
57693SOL    HW174918   6.880   6.825   4.370
57693SOL    HW274919   6.902   6.712   4.272
57694SOL     OW74920  13.241   6.332   3.889
57694SOL    HW174921  13.329   6.302   3.911
57694SOL    HW274922  13.185   6.294   3.958
57695SOL     OW74923  13.501   6.590   6.703
57695SOL    HW174924  13.480   6.684   6.701
57695SOL    HW274925  13.536   6.574   6.790
57696SOL     OW74926   9.365   1.058   6.355
57696SOL    HW174927   9.401   0.979   6.395
57696SOL    HW274928   9.276   1.035   6.329
57697SOL     OW74929   6.019   2.557   6.754
57697SOL    HW174930   6.053   2.575   6.842
57697SOL    HW274931   5.943   2.614   6.746
57698SOL     OW74932   2.443   9.513   3.144
57698SOL    HW174933   2.524   9.503   3.194
57698SOL    HW274934   2.468   9.568   3.070
57699SOL     OW74935   8.382   9.697   6.085
57699SOL    HW174936   8.442   9.650   6.027
57699SOL    HW274937   8.295   9.666   6.060
57700SOL     OW74938   7.007   0.579   6.350
57700SOL    HW174939   7.057   0.502   6.375
57700SOL    HW274940   7.048   0.610   6.270
57701SOL     OW74941   1.323   4.951  12.576
57701SOL    HW174942   1.329   4.930  12.669
57701SOL    HW274943   1.230   4.958  12.558
57702SOL     OW74944   9.034   2.639   9.606
57702SOL    HW174945   9.108   2.689   9.571
57702SOL    HW274946   9.024   2.671   9.696
57703SOL     OW74947   6.151   8.111   1.711
57703SOL    HW174948   6.165   8.161   1.791
57703SOL    HW274949   6.173   8.021   1.734
57704SOL     OW74950  11.834   2.069   2.040
57704SOL    HW174951  11.872   1.999   1.987
57704SOL    HW274952  11.741   2.047   2.045
57705SOL     OW74953   2.973   2.396  10.019
57705SOL    HW174954   3.060   2.358  10.009
57705SOL    HW274955   2.946   2.419   9.930
57706SOL     OW74956  10.729   0.998   8.427
57706SOL    HW174957  10.751   1.027   8.515
57706SOL    HW274958  10.799   0.937   8.404
57707SOL     OW74959   1.893  10.736   2.001
57707SOL    HW174960   1.950  10.660   1.987
57707SOL    HW274961   1.863  10.759   1.913
57708SOL     OW74962   9.521   9.124   9.786
57708SOL    HW174963   9.579   9.069   9.733
57708SOL    HW274964   9.460   9.163   9.723
57709SOL     OW74965   0.176   4.386   3.137
57709SOL    HW174966   0.117   4.381   3.062
57709SOL    HW274967   0.119   4.374   3.213
57710SOL     OW74968   8.198   9.295  12.696
57710SOL    HW174969   8.280   9.330  12.661
57710SOL    HW274970   8.154   9.258  12.619
57711SOL     OW74971  14.568   4.799  12.344
57711SOL    HW174972  14.659   4.773  12.354
57711SOL    HW274973  14.548   4.782  12.251
57712SOL     OW74974   4.392   8.477  14.304
57712SOL    HW174975   4.446   8.447  14.230
57712SOL    HW274976   4.302   8.455  14.278
57713SOL     OW74977   6.749   0.180   5.773
57713SOL    HW174978   6.731   0.219   5.688
57713SOL    HW274979   6.710   0.241   5.836
57714SOL     OW74980  12.082  10.105  10.052
57714SOL    HW174981  12.039  10.178  10.097
57714SOL    HW274982  12.174  10.131  10.047
57715SOL     OW74983  12.997   5.763   7.338
57715SOL    HW174984  13.056   5.829   7.375
57715SOL    HW274985  12.909   5.797   7.356
57716SOL     OW74986   2.256  11.014   7.218
57716SOL    HW174987   2.305  10.998   7.137
57716SOL    HW274988   2.322  11.005   7.287
57717SOL     OW74989   6.105  14.029   6.347
57717SOL    HW174990   6.081  14.093   6.279
57717SOL    HW274991   6.094  14.077   6.429
57718SOL     OW74992   7.713   2.825  11.156
57718SOL    HW174993   7.624   2.791  11.169
57718SOL    HW274994   7.726   2.819  11.061
57719SOL     OW74995   1.679   2.576   6.750
57719SOL    HW174996   1.721   2.571   6.664
57719SOL    HW274997   1.685   2.668   6.774
57720SOL     OW74998   3.627   5.314  11.939
57720SOL    HW174999   3.621   5.239  11.881
57720SOL    HW275000   3.649   5.277  12.024
57721SOL     OW75001  11.016   9.408   5.156
57721SOL    HW175002  11.072   9.460   5.214
57721SOL    HW275003  11.057   9.321   5.155
57722SOL     OW75004  12.888   4.807   5.968
57722SOL    HW175005  12.949   4.832   5.899
57722SOL    HW275006  12.845   4.727   5.935
57723SOL     OW75007  13.170   3.264  12.926
57723SOL    HW175008  13.200   3.178  12.898
57723SOL    HW275009  13.201   3.271  13.017
57724SOL     OW75010   7.779   8.377  14.558
57724SOL    HW175011   7.813   8.458  14.519
57724SOL    HW275012   7.851   8.315  14.552
57725SOL     OW75013   0.745   4.539  14.454
57725SOL    HW175014   0.808   4.584  14.398
57725SOL    HW275015   0.736   4.452  14.415
57726SOL     OW75016  12.985   5.672  12.059
57726SOL    HW175017  12.900   5.634  12.039
57726SOL    HW275018  13.045   5.633  11.996
57727SOL     OW75019   4.026   2.698   1.209
57727SOL    HW175020   4.043   2.787   1.240
57727SOL    HW275021   3.987   2.710   1.123
57728SOL     OW75022  11.644   0.806  13.186
57728SOL    HW175023  11.647   0.770  13.098
57728SOL    HW275024  11.718   0.867  13.189
57729SOL     OW75025  12.313   5.328   0.724
57729SOL    HW175026  12.219   5.341   0.709
57729SOL    HW275027  12.333   5.386   0.798
57730SOL     OW75028   9.636   5.417   2.423
57730SOL    HW175029   9.716   5.422   2.475
57730SOL    HW275030   9.663   5.378   2.340
57731SOL     OW75031   3.333   9.429  13.752
57731SOL    HW175032   3.334   9.459  13.843
57731SOL    HW275033   3.369   9.341  13.754
57732SOL     OW75034   9.736   8.059  12.361
57732SOL    HW175035   9.820   8.088  12.324
57732SOL    HW275036   9.727   8.109  12.442
57733SOL     OW75037   5.719   6.744   5.629
57733SOL    HW175038   5.659   6.706   5.565
57733SOL    HW275039   5.662   6.794   5.688
57734SOL     OW75040  11.012   9.059   8.837
57734SOL    HW175041  10.953   9.068   8.912
57734SOL    HW275042  10.959   9.087   8.762
57735SOL     OW75043  12.713   4.221  14.251
57735SOL    HW175044  12.745   4.168  14.179
57735SOL    HW275045  12.741   4.173  14.330
57736SOL     OW75046   6.616   0.812   4.194
57736SOL    HW175047   6.692   0.765   4.160
57736SOL    HW275048   6.550   0.804   4.125
57737SOL     OW75049   9.289   5.295   2.949
57737SOL    HW175050   9.253   5.383   2.941
57737SOL    HW275051   9.276   5.255   2.863
57738SOL     OW75052   3.986  13.856  14.277
57738SOL    HW175053   3.930  13.789  14.315
57738SOL    HW275054   3.979  13.931  14.337
57739SOL     OW75055   0.953  11.085  12.025
57739SOL    HW175056   0.915  11.169  11.999
57739SOL    HW275057   1.037  11.108  12.065
57740SOL     OW75058   9.390  10.377   5.881
57740SOL    HW175059   9.431  10.449   5.927
57740SOL    HW275060   9.312  10.356   5.933
57741SOL     OW75061   5.416  14.676  12.645
57741SOL    HW175062   5.430  14.584  12.667
57741SOL    HW275063   5.505  14.714  12.641
57742SOL     OW75064   2.226   4.995  13.611
57742SOL    HW175065   2.141   4.952  13.615
57742SOL    HW275066   2.236   5.020  13.520
57743SOL     OW75067   0.935   3.510   5.397
57743SOL    HW175068   0.863   3.456   5.427
57743SOL    HW275069   0.992   3.450   5.349
57744SOL     OW75070  14.444   6.751  13.618
57744SOL    HW175071  14.363   6.702  13.630
57744SOL    HW275072  14.466   6.784  13.705
57745SOL     OW75073   7.961  13.431   9.143
57745SOL    HW175074   8.032  13.441   9.079
57745SOL    HW275075   7.896  13.377   9.098
57746SOL     OW75076   4.410  13.064  14.533
57746SOL    HW175077   4.486  13.006  14.540
57746SOL    HW275078   4.448  13.152  14.533
57747SOL     OW75079  11.375  10.347   0.255
57747SOL    HW175080  11.351  10.293   0.179
57747SOL    HW275081  11.419  10.423   0.217
57748SOL     OW75082   1.425   6.138  10.480
57748SOL    HW175083   1.370   6.124  10.557
57748SOL    HW275084   1.432   6.233  10.472
57749SOL     OW75085  11.953  10.945   3.897
57749SOL    HW175086  11.916  10.986   3.819
57749SOL    HW275087  11.918  10.997   3.970
57750SOL     OW75088   4.158   5.485   4.261
57750SOL    HW175089   4.191   5.471   4.172
57750SOL    HW275090   4.234   5.468   4.317
57751SOL     OW75091   7.639  11.618   6.810
57751SOL    HW175092   7.608  11.708   6.798
57751SOL    HW275093   7.580  11.581   6.876
57752SOL     OW75094   0.298   0.327   3.802
57752SOL    HW175095   0.337   0.411   3.778
57752SOL    HW275096   0.361   0.262   3.771
57753SOL     OW75097   7.314  12.142  10.321
57753SOL    HW175098   7.328  12.069  10.381
57753SOL    HW275099   7.226  12.174  10.342
57754SOL     OW75100   0.181   2.381  14.199
57754SOL    HW175101   0.257   2.337  14.161
57754SOL    HW275102   0.207   2.473  14.202
57755SOL     OW75103  13.442  10.742  11.760
57755SOL    HW175104  13.369  10.743  11.698
57755SOL    HW275105  13.401  10.725  11.845
57756SOL     OW75106   0.358  14.169  13.234
57756SOL    HW175107   0.432  14.162  13.173
57756SOL    HW275108   0.281  14.161  13.178
57757SOL     OW75109   8.023  13.496   7.635
57757SOL    HW175110   7.980  13.420   7.675
57757SOL    HW275111   8.049  13.550   7.710
57758SOL     OW75112   0.907   2.426   0.012
57758SOL    HW175113   0.891   2.497   0.075
57758SOL    HW275114   0.845   2.443  14.818
57759SOL     OW75115   8.181  11.612   7.021
57759SOL    HW175116   8.262  11.582   6.979
57759SOL    HW275117   8.125  11.534   7.023
57760SOL     OW75118  10.623  12.859   4.950
57760SOL    HW175119  10.583  12.907   4.878
57760SOL    HW275120  10.568  12.781   4.959
57761SOL     OW75121   2.950   6.117   5.815
57761SOL    HW175122   3.005   6.132   5.738
57761SOL    HW275123   2.992   6.166   5.885
57762SOL     OW75124  13.564  12.105  11.678
57762SOL    HW175125  13.654  12.076  11.662
57762SOL    HW275126  13.527  12.037  11.734
57763SOL     OW75127   3.680  13.140   8.364
57763SOL    HW175128   3.628  13.142   8.445
57763SOL    HW275129   3.770  13.157   8.393
57764SOL     OW75130  11.064   6.819   0.236
57764SOL    HW175131  10.991   6.874   0.209
57764SOL    HW275132  11.069   6.831   0.331
57765SOL     OW75133  10.355  10.508  13.148
57765SOL    HW175134  10.324  10.583  13.198
57765SOL    HW275135  10.275  10.461  13.123
57766SOL     OW75136   8.806   1.342  14.518
57766SOL    HW175137   8.749   1.375  14.449
57766SOL    HW275138   8.880   1.303  14.472
57767SOL     OW75139   5.326   0.627   9.567
57767SOL    HW175140   5.387   0.621   9.641
57767SOL    HW275141   5.358   0.701   9.515
57768SOL     OW75142   7.473  13.626   5.207
57768SOL    HW175143   7.469  13.530   5.215
57768SOL    HW275144   7.566  13.646   5.211
57769SOL     OW75145  11.890   4.222   3.048
57769SOL    HW175146  11.905   4.275   3.127
57769SOL    HW275147  11.950   4.259   2.983
57770SOL     OW75148   9.363  14.840   6.107
57770SOL    HW175149   9.374  14.846   6.012
57770SOL    HW275150   9.385   0.051   6.139
57771SOL     OW75151   9.794   2.049   3.382
57771SOL    HW175152   9.776   2.141   3.363
57771SOL    HW275153   9.782   2.042   3.477
57772SOL     OW75154  10.532  13.068   3.578
57772SOL    HW175155  10.503  12.979   3.597
57772SOL    HW275156  10.513  13.117   3.657
57773SOL     OW75157   0.179  13.999   7.945
57773SOL    HW175158   0.104  13.959   7.989
57773SOL    HW275159   0.209  13.933   7.883
57774SOL     OW75160   6.494   9.835   6.707
57774SOL    HW175161   6.477   9.750   6.666
57774SOL    HW275162   6.410   9.881   6.700
57775SOL     OW75163   6.171   4.753   7.589
57775SOL    HW175164   6.172   4.722   7.680
57775SOL    HW275165   6.115   4.691   7.543
57776SOL     OW75166   7.120   2.747  10.484
57776SOL    HW175167   7.145   2.668  10.532
57776SOL    HW275168   7.146   2.819  10.542
57777SOL     OW75169   5.152  10.524   5.758
57777SOL    HW175170   5.124  10.433   5.770
57777SOL    HW275171   5.172  10.555   5.846
57778SOL     OW75172   7.160   4.636   8.337
57778SOL    HW175173   7.224   4.661   8.271
57778SOL    HW275174   7.137   4.717   8.381
57779SOL     OW75175   7.470   0.232  12.054
57779SOL    HW175176   7.463   0.211  12.147
57779SOL    HW275177   7.549   0.286  12.047
57780SOL     OW75178  12.169  10.204   4.078
57780SOL    HW175179  12.176  10.299   4.070
57780SOL    HW275180  12.076  10.188   4.095
57781SOL     OW75181   6.700   4.686   2.138
57781SOL    HW175182   6.632   4.711   2.200
57781SOL    HW275183   6.658   4.691   2.052
57782SOL     OW75184  11.146  11.007   5.724
57782SOL    HW175185  11.179  11.057   5.650
57782SOL    HW275186  11.060  10.975   5.696
57783SOL     OW75187  10.939   9.207  14.397
57783SOL    HW175188  11.022   9.216  14.351
57783SOL    HW275189  10.915   9.297  14.421
57784SOL     OW75190  11.881   4.972   6.178
57784SOL    HW175191  11.908   5.045   6.233
57784SOL    HW275192  11.869   5.010   6.091
57785SOL     OW75193   1.922   8.724   8.832
57785SOL    HW175194   1.910   8.818   8.837
57785SOL    HW275195   1.890   8.699   8.746
57786SOL     OW75196   1.779   9.172   0.050
57786SOL    HW175197   1.755   9.253   0.096
57786SOL    HW275198   1.706   9.156  14.867
57787SOL     OW75199  14.752  12.904  14.033
57787SOL    HW175200  14.834  12.895  13.984
57787SOL    HW275201  14.701  12.967  13.983
57788SOL     OW75202   0.622   6.139   6.032
57788SOL    HW175203   0.627   6.114   6.124
57788SOL    HW275204   0.649   6.060   5.984
57789SOL     OW75205   1.053  12.473   7.778
57789SOL    HW175206   1.068  12.403   7.715
57789SOL    HW275207   0.982  12.525   7.741
57790SOL     OW75208  10.070   0.672  13.238
57790SOL    HW175209  10.109   0.668  13.325
57790SOL    HW275210   9.976   0.659  13.253
57791SOL     OW75211   6.015   9.186  13.377
57791SOL    HW175212   6.084   9.126  13.351
57791SOL    HW275213   5.935   9.149  13.340
57792SOL     OW75214   7.142   6.640  12.349
57792SOL    HW175215   7.075   6.692  12.394
57792SOL    HW275216   7.214   6.701  12.335
57793SOL     OW75217  14.252   6.522   3.692
57793SOL    HW175218  14.189   6.568   3.636
57793SOL    HW275219  14.227   6.545   3.781
57794SOL     OW75220   5.842   8.868   9.782
57794SOL    HW175221   5.776   8.818   9.829
57794SOL    HW275222   5.881   8.806   9.720
57795SOL     OW75223   0.422   5.991   1.541
57795SOL    HW175224   0.401   5.937   1.617
57795SOL    HW275225   0.517   5.983   1.531
57796SOL     OW75226   5.486   3.175   3.834
57796SOL    HW175227   5.439   3.114   3.890
57796SOL    HW275228   5.426   3.249   3.823
57797SOL     OW75229   5.959  14.603   0.331
57797SOL    HW175230   5.952  14.678   0.272
57797SOL    HW275231   5.868  14.576   0.346
57798SOL     OW75232   8.158   2.304   2.930
57798SOL    HW175233   8.098   2.229   2.928
57798SOL    HW275234   8.196   2.307   2.842
57799SOL     OW75235   2.335   1.439   9.276
57799SOL    HW175236   2.334   1.510   9.340
57799SOL    HW275237   2.374   1.365   9.322
57800SOL     OW75238   3.738  11.887  12.173
57800SOL    HW175239   3.775  11.852  12.253
57800SOL    HW275240   3.798  11.957  12.147
57801SOL     OW75241   7.170   7.974  14.378
57801SOL    HW175242   7.104   8.042  14.365
57801SOL    HW275243   7.207   7.993  14.464
57802SOL     OW75244   5.727  13.227   8.121
57802SOL    HW175245   5.794  13.217   8.188
57802SOL    HW275246   5.673  13.148   8.128
57803SOL     OW75247  12.028  12.809   3.277
57803SOL    HW175248  12.104  12.768   3.236
57803SOL    HW275249  12.044  12.903   3.269
57804SOL     OW75250  11.738   7.267   0.138
57804SOL    HW175251  11.829   7.246   0.120
57804SOL    HW275252  11.689   7.222   0.070
57805SOL     OW75253  14.199  13.771  11.723
57805SOL    HW175254  14.156  13.689  11.698
57805SOL    HW275255  14.149  13.839  11.679
57806SOL     OW75256   5.737   1.457   7.945
57806SOL    HW175257   5.661   1.400   7.936
57806SOL    HW275258   5.773   1.435   8.031
57807SOL     OW75259  14.760   6.590  11.408
57807SOL    HW175260  14.806   6.589  11.492
57807SOL    HW275261  14.711   6.508  11.407
57808SOL     OW75262   9.817  12.500   1.769
57808SOL    HW175263   9.833  12.544   1.852
57808SOL    HW275264   9.869  12.549   1.705
57809SOL     OW75265  14.801  14.864   7.372
57809SOL    HW175266  14.874   0.040   7.337
57809SOL    HW275267  14.796  14.788   7.314
57810SOL     OW75268   1.870   7.756  13.410
57810SOL    HW175269   1.889   7.798  13.494
57810SOL    HW275270   1.909   7.669  13.418
57811SOL     OW75271  10.651   8.793   1.272
57811SOL    HW175272  10.661   8.790   1.368
57811SOL    HW275273  10.700   8.718   1.241
57812SOL     OW75274   8.339   1.496   7.673
57812SOL    HW175275   8.341   1.401   7.689
57812SOL    HW275276   8.394   1.507   7.595
57813SOL     OW75277   8.569   4.360   4.522
57813SOL    HW175278   8.562   4.387   4.430
57813SOL    HW275279   8.601   4.270   4.518
57814SOL     OW75280   9.934  13.516   7.350
57814SOL    HW175281   9.973  13.474   7.427
57814SOL    HW275282  10.006  13.524   7.288
57815SOL     OW75283   2.566   5.255   3.005
57815SOL    HW175284   2.510   5.308   3.062
57815SOL    HW275285   2.654   5.263   3.044
57816SOL     OW75286   0.104  12.648  13.089
57816SOL    HW175287   0.057  12.719  13.046
57816SOL    HW275288   0.075  12.652  13.180
57817SOL     OW75289   3.722   5.341   8.264
57817SOL    HW175290   3.697   5.327   8.172
57817SOL    HW275291   3.816   5.359   8.260
57818SOL     OW75292   2.018  14.087  11.197
57818SOL    HW175293   1.969  14.158  11.237
57818SOL    HW275294   1.990  14.085  11.106
57819SOL     OW75295   8.766   9.258   7.218
57819SOL    HW175296   8.774   9.200   7.142
57819SOL    HW275297   8.856   9.277   7.244
57820SOL     OW75298  14.504  12.560  12.793
57820SOL    HW175299  14.531  12.470  12.806
57820SOL    HW275300  14.500  12.571  12.697
57821SOL     OW75301  14.565   7.435   1.309
57821SOL    HW175302  14.541   7.441   1.402
57821SOL    HW275303  14.617   7.514   1.294
57822SOL     OW75304   9.518  13.949   6.733
57822SOL    HW175305   9.516  13.854   6.734
57822SOL    HW275306   9.611  13.972   6.738
57823SOL     OW75307   2.725  10.103   1.983
57823SOL    HW175308   2.819  10.124   1.978
57823SOL    HW275309   2.721  10.019   2.029
57824SOL     OW75310  10.010   9.431  12.481
57824SOL    HW175311   9.994   9.347  12.523
57824SOL    HW275312  10.024   9.410  12.388
57825SOL     OW75313   4.083   4.491   6.958
57825SOL    HW175314   4.007   4.468   7.011
57825SOL    HW275315   4.104   4.410   6.911
57826SOL     OW75316  10.982   5.392  14.298
57826SOL    HW175317  10.896   5.408  14.259
57826SOL    HW275318  11.044   5.434  14.238
57827SOL     OW75319   8.901   5.880  14.626
57827SOL    HW175320   8.828   5.926  14.668
57827SOL    HW275321   8.978   5.907  14.676
57828SOL     OW75322  12.073   4.644  10.795
57828SOL    HW175323  12.030   4.695  10.727
57828SOL    HW275324  12.149   4.605  10.751
57829SOL     OW75325  10.081  13.123   0.061
57829SOL    HW175326  10.157  13.065   0.072
57829SOL    HW275327  10.009  13.063   0.040
57830SOL     OW75328   5.369  12.582   2.851
57830SOL    HW175329   5.306  12.641   2.809
57830SOL    HW275330   5.354  12.497   2.810
57831SOL     OW75331  13.604   4.368   0.688
57831SOL    HW175332  13.605   4.275   0.666
57831SOL    HW275333  13.520   4.381   0.733
57832SOL     OW75334   7.872  10.711   2.924
57832SOL    HW175335   7.796  10.673   2.881
57832SOL    HW275336   7.870  10.803   2.900
57833SOL     OW75337   9.451   2.355  10.294
57833SOL    HW175338   9.442   2.435  10.346
57833SOL    HW275339   9.495   2.384  10.214
57834SOL     OW75340   4.033  14.059   5.340
57834SOL    HW175341   4.111  14.111   5.320
57834SOL    HW275342   3.960  14.112   5.309
57835SOL     OW75343   0.777   4.480  13.162
57835SOL    HW175344   0.762   4.540  13.089
57835SOL    HW275345   0.713   4.411  13.149
57836SOL     OW75346   1.759   2.861   3.889
57836SOL    HW175347   1.683   2.916   3.907
57836SOL    HW275348   1.759   2.795   3.958
57837SOL     OW75349  10.684   3.947   0.562
57837SOL    HW175350  10.733   3.995   0.628
57837SOL    HW275351  10.625   4.011   0.523
57838SOL     OW75352   8.923   1.595   7.609
57838SOL    HW175353   8.950   1.678   7.570
57838SOL    HW275354   8.856   1.619   7.673
57839SOL     OW75355  10.068   5.292   5.161
57839SOL    HW175356  10.066   5.322   5.252
57839SOL    HW275357  10.100   5.367   5.112
57840SOL     OW75358  13.538   4.457   3.762
57840SOL    HW175359  13.566   4.548   3.754
57840SOL    HW275360  13.546   4.422   3.673
57841SOL     OW75361  10.463  12.426  13.461
57841SOL    HW175362  10.414  12.491  13.511
57841SOL    HW275363  10.416  12.344  13.474
57842SOL     OW75364   9.122   3.687   1.921
57842SOL    HW175365   9.110   3.596   1.894
57842SOL    HW275366   9.217   3.697   1.930
57843SOL     OW75367  12.296   3.169   9.084
57843SOL    HW175368  12.295   3.076   9.107
57843SOL    HW275369  12.205   3.189   9.061
57844SOL     OW75370  11.121  10.089  11.650
57844SOL    HW175371  11.059  10.037  11.702
57844SOL    HW275372  11.068  10.129  11.582
57845SOL     OW75373   7.913   4.345  14.279
57845SOL    HW175374   7.994   4.366  14.233
57845SOL    HW275375   7.844   4.392  14.232
57846SOL     OW75376   0.800   6.855  10.550
57846SOL    HW175377   0.847   6.806  10.482
57846SOL    HW275378   0.869   6.891  10.605
57847SOL     OW75379  13.475   9.285  14.794
57847SOL    HW175380  13.525   9.266  14.715
57847SOL    HW275381  13.534   9.337  14.848
57848SOL     OW75382  14.007   9.982  13.108
57848SOL    HW175383  14.057  10.044  13.162
57848SOL    HW275384  14.029  10.005  13.018
57849SOL     OW75385   3.333   0.361  12.213
57849SOL    HW175386   3.361   0.396  12.297
57849SOL    HW275387   3.251   0.408  12.194
57850SOL     OW75388   4.267  13.372   7.222
57850SOL    HW175389   4.242  13.369   7.130
57850SOL    HW275390   4.292  13.463   7.237
57851SOL     OW75391   8.511   0.385  13.161
57851SOL    HW175392   8.577   0.455  13.163
57851SOL    HW275393   8.452   0.405  13.233
57852SOL     OW75394   4.360   7.088  10.232
57852SOL    HW175395   4.425   7.022  10.208
57852SOL    HW275396   4.356   7.084  10.327
57853SOL     OW75397  12.887  10.335   8.375
57853SOL    HW175398  12.795  10.307   8.372
57853SOL    HW275399  12.900  10.364   8.465
57854SOL     OW75400  13.708   5.361   8.734
57854SOL    HW175401  13.790   5.389   8.692
57854SOL    HW275402  13.643   5.365   8.664
57855SOL     OW75403   6.932  10.590   9.203
57855SOL    HW175404   6.862  10.649   9.230
57855SOL    HW275405   7.008  10.646   9.189
57856SOL     OW75406  10.661  12.286   7.965
57856SOL    HW175407  10.687  12.204   7.923
57856SOL    HW275408  10.743  12.331   7.984
57857SOL     OW75409  12.599   0.980  14.843
57857SOL    HW175410  12.600   0.900   0.021
57857SOL    HW275411  12.579   1.050   0.028
57858SOL     OW75412   9.591   8.650   5.436
57858SOL    HW175413   9.626   8.610   5.515
57858SOL    HW275414   9.502   8.614   5.428
57859SOL     OW75415   9.045   3.481  12.369
57859SOL    HW175416   9.000   3.551  12.416
57859SOL    HW275417   9.120   3.524  12.328
57860SOL     OW75418   8.775   8.267  13.163
57860SOL    HW175419   8.857   8.311  13.141
57860SOL    HW275420   8.732   8.326  13.225
57861SOL     OW75421   4.844   8.295   7.949
57861SOL    HW175422   4.804   8.354   7.885
57861SOL    HW275423   4.838   8.342   8.032
57862SOL     OW75424   0.593  13.255   0.534
57862SOL    HW175425   0.607  13.160   0.529
57862SOL    HW275426   0.544  13.276   0.454
57863SOL     OW75427  14.702  12.761   2.060
57863SOL    HW175428  14.682  12.849   2.028
57863SOL    HW275429  14.772  12.775   2.124
57864SOL     OW75430  14.056   6.049   2.662
57864SOL    HW175431  14.061   6.067   2.568
57864SOL    HW275432  14.087   6.129   2.704
57865SOL     OW75433   4.128   4.425  12.943
57865SOL    HW175434   4.147   4.449  12.853
57865SOL    HW275435   4.074   4.496  12.977
57866SOL     OW75436   8.745   7.508   2.611
57866SOL    HW175437   8.791   7.537   2.690
57866SOL    HW275438   8.676   7.450   2.643
57867SOL     OW75439   2.621  11.089   6.691
57867SOL    HW175440   2.622  11.169   6.744
57867SOL    HW275441   2.532  11.083   6.658
57868SOL     OW75442  14.477  10.423  14.850
57868SOL    HW175443  14.512  10.341  14.817
57868SOL    HW275444  14.400  10.440  14.796
57869SOL     OW75445   0.286  10.233  12.283
57869SOL    HW175446   0.347  10.165  12.254
57869SOL    HW275447   0.249  10.268  12.201
57870SOL     OW75448   8.080   6.802  12.662
57870SOL    HW175449   8.078   6.871  12.596
57870SOL    HW275450   8.172   6.780  12.672
57871SOL     OW75451   9.364   4.376   3.361
57871SOL    HW175452   9.353   4.372   3.456
57871SOL    HW275453   9.277   4.400   3.327
57872SOL     OW75454  13.988   9.189   0.871
57872SOL    HW175455  14.040   9.270   0.873
57872SOL    HW275456  13.898   9.219   0.863
57873SOL     OW75457   4.435   9.831   9.652
57873SOL    HW175458   4.366   9.831   9.717
57873SOL    HW275459   4.510   9.789   9.695
57874SOL     OW75460   4.038   2.334   6.156
57874SOL    HW175461   4.133   2.325   6.157
57874SOL    HW275462   4.011   2.295   6.073
57875SOL     OW75463  11.955  11.565  13.672
57875SOL    HW175464  11.938  11.571  13.766
57875SOL    HW275465  11.995  11.479  13.660
57876SOL     OW75466   6.755   2.012   3.731
57876SOL    HW175467   6.798   2.037   3.649
57876SOL    HW275468   6.671   2.057   3.730
57877SOL     OW75469   3.037   1.891   1.885
57877SOL    HW175470   3.107   1.925   1.830
57877SOL    HW275471   3.008   1.966   1.937
57878SOL     OW75472   2.187   7.709  10.105
57878SOL    HW175473   2.279   7.690  10.092
57878SOL    HW275474   2.178   7.802  10.083
57879SOL     OW75475  13.645   7.137  10.440
57879SOL    HW175476  13.624   7.188  10.518
57879SOL    HW275477  13.658   7.048  10.472
57880SOL     OW75478  14.422  12.214   0.388
57880SOL    HW175479  14.400  12.121   0.392
57880SOL    HW275480  14.479  12.222   0.311
57881SOL     OW75481   8.952   4.692   7.673
57881SOL    HW175482   8.895   4.635   7.725
57881SOL    HW275483   8.977   4.762   7.733
57882SOL     OW75484   7.925  12.779   1.423
57882SOL    HW175485   7.917  12.726   1.343
57882SOL    HW275486   7.943  12.868   1.391
57883SOL     OW75487  14.089  10.035   4.021
57883SOL    HW175488  14.055  10.119   4.053
57883SOL    HW275489  14.077   9.975   4.095
57884SOL     OW75490   8.426  13.619   7.467
57884SOL    HW175491   8.371  13.684   7.512
57884SOL    HW275492   8.432  13.651   7.377
57885SOL     OW75493   1.886   8.194  12.753
57885SOL    HW175494   1.870   8.161  12.841
57885SOL    HW275495   1.827   8.269  12.743
57886SOL     OW75496   8.682   5.497   8.812
57886SOL    HW175497   8.733   5.456   8.742
57886SOL    HW275498   8.743   5.561   8.850
57887SOL     OW75499   5.738   7.392  10.416
57887SOL    HW175500   5.657   7.432  10.448
57887SOL    HW275501   5.710   7.308  10.380
57888SOL     OW75502  11.880  14.602   3.432
57888SOL    HW175503  11.854  14.644   3.513
57888SOL    HW275504  11.845  14.513   3.438
57889SOL     OW75505   3.435   3.087   9.286
57889SOL    HW175506   3.349   3.109   9.251
57889SOL    HW275507   3.488   3.066   9.208
57890SOL     OW75508   1.012   3.994   6.615
57890SOL    HW175509   0.966   3.968   6.695
57890SOL    HW275510   1.053   3.914   6.584
57891SOL     OW75511   3.592  10.776   1.737
57891SOL    HW175512   3.640  10.733   1.808
57891SOL    HW275513   3.518  10.818   1.781
57892SOL     OW75514   4.600   2.866  11.435
57892SOL    HW175515   4.609   2.961  11.431
57892SOL    HW275516   4.506   2.851  11.424
57893SOL     OW75517   7.809   1.038   4.256
57893SOL    HW175518   7.730   1.071   4.215
57893SOL    HW275519   7.844   1.113   4.304
57894SOL     OW75520   9.945  11.490  14.341
57894SOL    HW175521   9.910  11.414  14.294
57894SOL    HW275522   9.960  11.457  14.430
57895SOL     OW75523   4.675   7.053   7.066
57895SOL    HW175524   4.598   7.098   7.032
57895SOL    HW275525   4.665   7.058   7.161
57896SOL     OW75526  12.324  13.212   9.239
57896SOL    HW175527  12.303  13.174   9.324
57896SOL    HW275528  12.254  13.274   9.222
57897SOL     OW75529   4.275   8.695  13.667
57897SOL    HW175530   4.302   8.782  13.696
57897SOL    HW275531   4.325   8.634  13.721
57898SOL     OW75532  10.584   5.853   3.467
57898SOL    HW175533  10.645   5.897   3.526
57898SOL    HW275534  10.510   5.828   3.522
57899SOL     OW75535  11.520  10.545  12.022
57899SOL    HW175536  11.452  10.601  12.058
57899SOL    HW275537  11.588  10.605  11.994
57900SOL     OW75538   2.731   2.785   0.130
57900SOL    HW175539   2.672   2.744   0.066
57900SOL    HW275540   2.764   2.712   0.182
57901SOL     OW75541   3.591   4.567  12.397
57901SOL    HW175542   3.533   4.594  12.326
57901SOL    HW275543   3.679   4.572  12.358
57902SOL     OW75544   0.982   5.190   9.446
57902SOL    HW175545   1.067   5.204   9.489
57902SOL    HW275546   1.004   5.147   9.363
57903SOL     OW75547   7.485   5.363   3.425
57903SOL    HW175548   7.481   5.408   3.509
57903SOL    HW275549   7.398   5.326   3.414
57904SOL     OW75550   5.301  11.194  10.822
57904SOL    HW175551   5.247  11.123  10.858
57904SOL    HW275552   5.247  11.272  10.828
57905SOL     OW75553   4.110   9.065   3.073
57905SOL    HW175554   4.181   9.112   3.116
57905SOL    HW275555   4.040   9.130   3.065
57906SOL     OW75556  14.254  10.705  10.465
57906SOL    HW175557  14.172  10.736  10.505
57906SOL    HW275558  14.321  10.724  10.530
57907SOL     OW75559   9.835   2.578   2.444
57907SOL    HW175560   9.782   2.577   2.365
57907SOL    HW275561   9.883   2.661   2.440
57908SOL     OW75562   7.139   9.921   1.864
57908SOL    HW175563   7.184   9.996   1.903
57908SOL    HW275564   7.046   9.940   1.876
57909SOL     OW75565   1.806  11.086  10.312
57909SOL    HW175566   1.734  11.117  10.258
57909SOL    HW275567   1.859  11.033  10.253
57910SOL     OW75568  10.115   9.038   8.272
57910SOL    HW175569  10.128   9.104   8.341
57910SOL    HW275570  10.078   9.087   8.199
57911SOL     OW75571   3.309   1.042   2.202
57911SOL    HW175572   3.307   0.961   2.152
57911SOL    HW275573   3.284   1.110   2.139
57912SOL     OW75574  10.010  13.838   2.429
57912SOL    HW175575   9.972  13.926   2.417
57912SOL    HW275576   9.998  13.795   2.345
57913SOL     OW75577   4.004  12.298  10.272
57913SOL    HW175578   3.991  12.248  10.352
57913SOL    HW275579   3.969  12.385  10.292
57914SOL     OW75580   5.054   9.091   0.902
57914SOL    HW175581   5.128   9.152   0.894
57914SOL    HW275582   5.068   9.047   0.986
57915SOL     OW75583   6.951   0.244  12.491
57915SOL    HW175584   7.044   0.267  12.484
57915SOL    HW275585   6.905   0.315  12.446
57916SOL     OW75586  12.365  11.069   1.475
57916SOL    HW175587  12.334  10.980   1.459
57916SOL    HW275588  12.459  11.065   1.457
57917SOL     OW75589  13.660   6.209   2.237
57917SOL    HW175590  13.728   6.267   2.203
57917SOL    HW275591  13.681   6.200   2.330
57918SOL     OW75592   4.316   5.554  14.538
57918SOL    HW175593   4.385   5.501  14.578
57918SOL    HW275594   4.296   5.620  14.604
57919SOL     OW75595   9.852   1.253   0.729
57919SOL    HW175596   9.885   1.303   0.804
57919SOL    HW275597   9.791   1.312   0.685
57920SOL     OW75598  13.668   8.142   8.521
57920SOL    HW175599  13.669   8.190   8.438
57920SOL    HW275600  13.583   8.098   8.523
57921SOL     OW75601   0.887  10.078   5.231
57921SOL    HW175602   0.800  10.051   5.262
57921SOL    HW275603   0.886  10.056   5.137
57922SOL     OW75604   1.997   1.048   6.954
57922SOL    HW175605   1.915   1.007   6.981
57922SOL    HW275606   2.064   1.005   7.007
57923SOL     OW75607   6.120  13.492  14.474
57923SOL    HW175608   6.158  13.579  14.459
57923SOL    HW275609   6.065  13.477  14.397
57924SOL     OW75610   9.439   5.577  11.671
57924SOL    HW175611   9.494   5.500  11.687
57924SOL    HW275612   9.468   5.641  11.736
57925SOL     OW75613   8.807  13.336   9.629
57925SOL    HW175614   8.766  13.343   9.715
57925SOL    HW275615   8.900  13.320   9.648
57926SOL     OW75616   1.214   0.267   1.100
57926SOL    HW175617   1.223   0.360   1.080
57926SOL    HW275618   1.123   0.247   1.080
57927SOL     OW75619  14.441   5.387   8.882
57927SOL    HW175620  14.489   5.439   8.947
57927SOL    HW275621  14.485   5.302   8.882
57928SOL     OW75622   1.305  13.633  10.545
57928SOL    HW175623   1.349  13.648  10.629
57928SOL    HW275624   1.292  13.539  10.542
57929SOL     OW75625   1.137   0.258  13.859
57929SOL    HW175626   1.216   0.310  13.871
57929SOL    HW275627   1.120   0.220  13.945
57930SOL     OW75628   9.159  12.743   4.792
57930SOL    HW175629   9.105  12.731   4.870
57930SOL    HW275630   9.239  12.783   4.824
57931SOL     OW75631  14.589   2.597   9.575
57931SOL    HW175632  14.565   2.602   9.667
57931SOL    HW275633  14.506   2.612   9.528
57932SOL     OW75634   2.687   0.452   7.495
57932SOL    HW175635   2.725   0.408   7.419
57932SOL    HW275636   2.662   0.380   7.554
57933SOL     OW75637  12.008   8.406  11.028
57933SOL    HW175638  11.964   8.368  11.104
57933SOL    HW275639  11.938   8.417  10.962
57934SOL     OW75640  12.087   7.207   0.396
57934SOL    HW175641  12.155   7.211   0.329
57934SOL    HW275642  12.129   7.243   0.474
57935SOL     OW75643   1.199  13.160   9.461
57935SOL    HW175644   1.199  13.249   9.496
57935SOL    HW275645   1.291  13.135   9.458
57936SOL     OW75646   2.678   4.378  14.531
57936SOL    HW175647   2.670   4.286  14.558
57936SOL    HW275648   2.693   4.425  14.613
57937SOL     OW75649   6.170   8.267   7.517
57937SOL    HW175650   6.120   8.189   7.541
57937SOL    HW275651   6.108   8.322   7.469
57938SOL     OW75652  13.873   1.361  13.344
57938SOL    HW175653  13.925   1.322  13.274
57938SOL    HW275654  13.865   1.453  13.319
57939SOL     OW75655  11.946   2.195  11.243
57939SOL    HW175656  11.984   2.258  11.181
57939SOL    HW275657  11.987   2.112  11.220
57940SOL     OW75658  14.027   1.863  12.539
57940SOL    HW175659  14.054   1.933  12.480
57940SOL    HW275660  13.974   1.908  12.606
57941SOL     OW75661   5.124  14.268   6.037
57941SOL    HW175662   5.090  14.303   5.955
57941SOL    HW275663   5.218  14.288   6.034
57942SOL     OW75664   9.268   8.722  10.611
57942SOL    HW175665   9.310   8.786  10.668
57942SOL    HW275666   9.269   8.762  10.525
57943SOL     OW75667  10.028   7.215   4.050
57943SOL    HW175668   9.971   7.287   4.078
57943SOL    HW275669  10.057   7.241   3.962
57944SOL     OW75670   4.171   4.640   9.623
57944SOL    HW175671   4.157   4.722   9.576
57944SOL    HW275672   4.251   4.655   9.674
57945SOL     OW75673   2.849   5.524  10.299
57945SOL    HW175674   2.775   5.556  10.349
57945SOL    HW275675   2.824   5.535  10.207
57946SOL     OW75676   7.231   4.781   1.180
57946SOL    HW175677   7.152   4.834   1.186
57946SOL    HW275678   7.290   4.831   1.123
57947SOL     OW75679   0.735   1.650   6.727
57947SOL    HW175680   0.786   1.711   6.780
57947SOL    HW275681   0.665   1.621   6.787
57948SOL     OW75682   6.505   2.857  12.716
57948SOL    HW175683   6.453   2.934  12.739
57948SOL    HW275684   6.575   2.854  12.781
57949SOL     OW75685   1.413   4.790   3.852
57949SOL    HW175686   1.438   4.716   3.907
57949SOL    HW275687   1.318   4.780   3.840
57950SOL     OW75688  13.633   3.894   0.312
57950SOL    HW175689  13.589   3.899   0.227
57950SOL    HW275690  13.563   3.877   0.374
57951SOL     OW75691  14.169  10.992   0.209
57951SOL    HW175692  14.164  11.086   0.191
57951SOL    HW275693  14.077  10.965   0.216
57952SOL     OW75694   6.652   0.138   7.257
57952SOL    HW175695   6.672   0.066   7.197
57952SOL    HW275696   6.677   0.105   7.343
57953SOL     OW75697  14.761   9.954  14.815
57953SOL    HW175698  14.731  10.041  14.843
57953SOL    HW275699  14.750   9.899   0.016
57954SOL     OW75700   4.258   3.447   3.679
57954SOL    HW175701   4.310   3.510   3.729
57954SOL    HW275702   4.220   3.498   3.608
57955SOL     OW75703  12.603  14.754   9.594
57955SOL    HW175704  12.633  14.831   9.642
57955SOL    HW275705  12.682  14.703   9.578
57956SOL     OW75706  14.140  11.196  14.694
57956SOL    HW175707  14.079  11.244  14.750
57956SOL    HW275708  14.223  11.198  14.742
57957SOL     OW75709  14.400  14.675   1.736
57957SOL    HW175710  14.448  14.607   1.782
57957SOL    HW275711  14.468  14.732   1.700
57958SOL     OW75712   5.949  14.501   8.327
57958SOL    HW175713   5.894  14.524   8.402
57958SOL    HW275714   5.887  14.469   8.261
57959SOL     OW75715   4.130   5.083   2.056
57959SOL    HW175716   4.052   5.041   2.019
57959SOL    HW275717   4.121   5.072   2.151
57960SOL     OW75718  10.785  14.430   8.308
57960SOL    HW175719  10.738  14.443   8.390
57960SOL    HW275720  10.725  14.461   8.241
57961SOL     OW75721  14.382   3.724  11.779
57961SOL    HW175722  14.408   3.641  11.819
57961SOL    HW275723  14.459   3.780  11.788
57962SOL     OW75724   5.918   8.816   4.035
57962SOL    HW175725   5.941   8.727   4.009
57962SOL    HW275726   5.999   8.854   4.069
57963SOL     OW75727   0.474   2.665  14.797
57963SOL    HW175728   0.508   2.583  14.763
57963SOL    HW275729   0.513   2.733  14.742
57964SOL     OW75730   6.096  14.441   3.614
57964SOL    HW175731   6.088  14.347   3.600
57964SOL    HW275732   6.178  14.451   3.663
57965SOL     OW75733   3.608   0.521  11.126
57965SOL    HW175734   3.626   0.614  11.111
57965SOL    HW275735   3.514   0.517  11.141
57966SOL     OW75736   1.958  11.103   8.531
57966SOL    HW175737   1.985  11.135   8.445
57966SOL    HW275738   2.035  11.058   8.565
57967SOL     OW75739   0.445   1.030  12.314
57967SOL    HW175740   0.540   1.038  12.309
57967SOL    HW275741   0.429   0.936  12.328
57968SOL     OW75742   4.888   7.691   0.169
57968SOL    HW175743   4.811   7.670   0.222
57968SOL    HW275744   4.929   7.606   0.152
57969SOL     OW75745   1.023   6.299   2.930
57969SOL    HW175746   1.057   6.269   3.015
57969SOL    HW275747   1.086   6.366   2.902
57970SOL     OW75748   4.426   2.649   0.282
57970SOL    HW175749   4.367   2.711   0.240
57970SOL    HW275750   4.510   2.696   0.288
57971SOL     OW75751  13.040  14.749   3.569
57971SOL    HW175752  13.069  14.807   3.499
57971SOL    HW275753  12.981  14.802   3.622
57972SOL     OW75754  11.384  13.777  10.241
57972SOL    HW175755  11.346  13.700  10.199
57972SOL    HW275756  11.414  13.746  10.326
57973SOL     OW75757  10.699  13.499   3.317
57973SOL    HW175758  10.620  13.551   3.301
57973SOL    HW275759  10.760  13.562   3.356
57974SOL     OW75760  12.038  13.220   5.087
57974SOL    HW175761  12.053  13.181   5.174
57974SOL    HW275762  12.002  13.148   5.035
57975SOL     OW75763   4.127  11.461   4.487
57975SOL    HW175764   4.094  11.432   4.573
57975SOL    HW275765   4.203  11.514   4.508
57976SOL     OW75766   7.896  10.878   8.839
57976SOL    HW175767   7.880  10.972   8.828
57976SOL    HW275768   7.966  10.873   8.904
57977SOL     OW75769   3.079   0.198   5.878
57977SOL    HW175770   2.994   0.220   5.916
57977SOL    HW275771   3.143   0.235   5.940
57978SOL     OW75772   1.040   1.073   6.576
57978SOL    HW175773   1.030   1.058   6.482
57978SOL    HW275774   1.133   1.059   6.593
57979SOL     OW75775  13.867  11.427   6.335
57979SOL    HW175776  13.816  11.349   6.316
57979SOL    HW275777  13.805  11.486   6.377
57980SOL     OW75778   1.925  11.595   8.802
57980SOL    HW175779   1.901  11.639   8.884
57980SOL    HW275780   2.017  11.572   8.813
57981SOL     OW75781   1.992   1.710  13.310
57981SOL    HW175782   1.978   1.804  13.322
57981SOL    HW275783   2.064   1.705  13.247
57982SOL     OW75784   9.644   0.216   6.993
57982SOL    HW175785   9.571   0.261   6.951
57982SOL    HW275786   9.720   0.238   6.939
57983SOL     OW75787   9.515   6.713   9.391
57983SOL    HW175788   9.579   6.663   9.441
57983SOL    HW275789   9.560   6.796   9.371
57984SOL     OW75790  10.649   9.783   5.648
57984SOL    HW175791  10.575   9.751   5.699
57984SOL    HW275792  10.690   9.849   5.705
57985SOL     OW75793   9.605   7.948   5.517
57985SOL    HW175794   9.565   7.990   5.593
57985SOL    HW275795   9.684   7.999   5.500
57986SOL     OW75796   8.894  11.846   2.497
57986SOL    HW175797   8.802  11.821   2.503
57986SOL    HW275798   8.916  11.879   2.584
57987SOL     OW75799   6.030   2.926   7.127
57987SOL    HW175800   6.112   2.971   7.108
57987SOL    HW275801   6.006   2.955   7.215
57988SOL     OW75802   2.120   8.273   5.248
57988SOL    HW175803   2.121   8.346   5.186
57988SOL    HW275804   2.149   8.198   5.196
57989SOL     OW75805  13.796  10.049   7.256
57989SOL    HW175806  13.823  10.113   7.190
57989SOL    HW275807  13.731  10.095   7.309
57990SOL     OW75808  14.847   7.620  13.591
57990SOL    HW175809   0.059   7.640  13.621
57990SOL    HW275810  14.796   7.697  13.615
57991SOL     OW75811   6.030  10.040   5.821
57991SOL    HW175812   6.114  10.074   5.790
57991SOL    HW275813   5.974  10.042   5.743
57992SOL     OW75814   2.225   3.312  13.510
57992SOL    HW175815   2.197   3.382  13.569
57992SOL    HW275816   2.307   3.343  13.473
57993SOL     OW75817  13.830  12.234  13.839
57993SOL    HW175818  13.819  12.329  13.831
57993SOL    HW275819  13.871  12.222  13.925
57994SOL     OW75820  10.781   7.006   4.625
57994SOL    HW175821  10.784   7.096   4.658
57994SOL    HW275822  10.748   7.014   4.536
57995SOL     OW75823  10.689   8.155   9.792
57995SOL    HW175824  10.780   8.187   9.797
57995SOL    HW275825  10.675   8.141   9.698
57996SOL     OW75826   0.864   4.442   5.056
57996SOL    HW175827   0.910   4.455   4.973
57996SOL    HW275828   0.772   4.460   5.036
57997SOL     OW75829   0.222   3.464   4.120
57997SOL    HW175830   0.167   3.485   4.195
57997SOL    HW275831   0.300   3.423   4.157
57998SOL     OW75832  13.328   3.599   7.907
57998SOL    HW175833  13.264   3.592   7.978
57998SOL    HW275834  13.393   3.662   7.939
57999SOL     OW75835   0.557   3.503   3.084
57999SOL    HW175836   0.613   3.474   3.156
57999SOL    HW275837   0.585   3.592   3.066
58000SOL     OW75838   8.957   6.911   6.599
58000SOL    HW175839   8.965   6.828   6.646
58000SOL    HW275840   8.968   6.887   6.507
58001SOL     OW75841   5.999  12.497  11.560
58001SOL    HW175842   6.083  12.452  11.564
58001SOL    HW275843   6.019  12.581  11.518
58002SOL     OW75844   8.130   3.219   8.383
58002SOL    HW175845   8.222   3.222   8.409
58002SOL    HW275846   8.084   3.196   8.463
58003SOL     OW75847  11.380   9.429  11.608
58003SOL    HW175848  11.341   9.516  11.594
58003SOL    HW275849  11.321   9.386  11.669
58004SOL     OW75850   8.565   1.768   5.604
58004SOL    HW175851   8.626   1.733   5.539
58004SOL    HW275852   8.612   1.762   5.687
58005SOL     OW75853   3.004  11.592   0.797
58005SOL    HW175854   3.046  11.668   0.758
58005SOL    HW275855   3.071  11.524   0.796
58006SOL     OW75856   4.216   0.154   8.284
58006SOL    HW175857   4.200   0.139   8.191
58006SOL    HW275858   4.238   0.067   8.319
58007SOL     OW75859   3.637   4.443  13.361
58007SOL    HW175860   3.725   4.450  13.324
58007SOL    HW275861   3.633   4.513  13.426
58008SOL     OW75862   7.309  12.349  13.639
58008SOL    HW175863   7.329  12.282  13.704
58008SOL    HW275864   7.311  12.431  13.688
58009SOL     OW75865   2.579   1.467  11.076
58009SOL    HW175866   2.514   1.495  11.012
58009SOL    HW275867   2.653   1.436  11.023
58010SOL     OW75868  13.593  13.203  12.072
58010SOL    HW175869  13.586  13.275  12.009
58010SOL    HW275870  13.558  13.239  12.154
58011SOL     OW75871   1.220  10.302  10.875
58011SOL    HW175872   1.265  10.380  10.845
58011SOL    HW275873   1.217  10.244  10.799
58012SOL     OW75874   6.975   2.962  14.179
58012SOL    HW175875   6.980   2.924  14.091
58012SOL    HW275876   7.053   3.017  14.186
58013SOL     OW75877   1.730   3.925   1.444
58013SOL    HW175878   1.650   3.955   1.487
58013SOL    HW275879   1.797   3.930   1.512
58014SOL     OW75880   3.502   3.660   9.697
58014SOL    HW175881   3.522   3.746   9.661
58014SOL    HW275882   3.410   3.665   9.722
58015SOL     OW75883   0.015  12.765  11.159
58015SOL    HW175884  14.838  12.686  11.159
58015SOL    HW275885   0.009  12.799  11.248
58016SOL     OW75886   9.041   0.299   5.750
58016SOL    HW175887   9.049   0.266   5.839
58016SOL    HW275888   9.128   0.289   5.713
58017SOL     OW75889   2.390   3.998  10.506
58017SOL    HW175890   2.410   4.015  10.598
58017SOL    HW275891   2.450   3.928  10.480
58018SOL     OW75892   7.215   1.212   7.311
58018SOL    HW175893   7.177   1.129   7.283
58018SOL    HW275894   7.174   1.229   7.396
58019SOL     OW75895   3.668  12.133  14.459
58019SOL    HW175896   3.747  12.162  14.506
58019SOL    HW275897   3.624  12.214  14.434
58020SOL     OW75898  11.677   2.187  11.081
58020SOL    HW175899  11.767   2.207  11.108
58020SOL    HW275900  11.687   2.142  10.997
58021SOL     OW75901   9.988  11.536   2.782
58021SOL    HW175902   9.958  11.446   2.773
58021SOL    HW275903  10.054  11.547   2.714
58022SOL     OW75904   0.700   9.844  13.146
58022SOL    HW175905   0.782   9.795  13.153
58022SOL    HW275906   0.640   9.785  13.101
58023SOL     OW75907   8.921   2.843  10.101
58023SOL    HW175908   8.992   2.864  10.163
58023SOL    HW275909   8.847   2.896  10.131
58024SOL     OW75910   8.290   5.399   6.402
58024SOL    HW175911   8.331   5.352   6.475
58024SOL    HW275912   8.261   5.481   6.440
58025SOL     OW75913   2.591   0.540   0.725
58025SOL    HW175914   2.588   0.539   0.820
58025SOL    HW275915   2.530   0.471   0.698
58026SOL     OW75916   8.067  14.606  14.451
58026SOL    HW175917   7.990  14.565  14.412
58026SOL    HW275918   8.111  14.649  14.377
58027SOL     OW75919   6.376   2.805   1.095
58027SOL    HW175920   6.428   2.879   1.126
58027SOL    HW275921   6.395   2.799   1.002
58028SOL     OW75922  13.185   0.262   8.467
58028SOL    HW175923  13.245   0.246   8.394
58028SOL    HW275924  13.172   0.177   8.507
58029SOL     OW75925  10.193   3.401  14.012
58029SOL    HW175926  10.244   3.335  14.060
58029SOL    HW275927  10.102   3.382  14.034
58030SOL     OW75928   9.514   3.323   6.075
58030SOL    HW175929   9.570   3.397   6.051
58030SOL    HW275930   9.458   3.310   5.998
58031SOL     OW75931   7.111   1.526   7.356
58031SOL    HW175932   7.179   1.461   7.335
58031SOL    HW275933   7.029   1.482   7.335
58032SOL     OW75934   7.882   8.667   5.521
58032SOL    HW175935   7.830   8.747   5.521
58032SOL    HW275936   7.819   8.597   5.502
58033SOL     OW75937   1.046   7.206  11.080
58033SOL    HW175938   1.093   7.281  11.117
58033SOL    HW275939   1.114   7.149  11.044
58034SOL     OW75940   7.791   0.984  11.815
58034SOL    HW175941   7.732   0.988  11.740
58034SOL    HW275942   7.829   1.071  11.821
58035SOL     OW75943   2.628  11.936   4.159
58035SOL    HW175944   2.538  11.964   4.143
58035SOL    HW275945   2.632  11.917   4.253
58036SOL     OW75946  10.321   2.954   5.089
58036SOL    HW175947  10.385   2.924   5.154
58036SOL    HW275948  10.335   3.049   5.084
58037SOL     OW75949   3.338  12.146  11.371
58037SOL    HW175950   3.380  12.195  11.443
58037SOL    HW275951   3.296  12.213  11.318
58038SOL     OW75952   1.570   1.350   9.146
58038SOL    HW175953   1.550   1.419   9.083
58038SOL    HW275954   1.545   1.387   9.231
58039SOL     OW75955   1.534   0.561   1.071
58039SOL    HW175956   1.542   0.488   1.132
58039SOL    HW275957   1.439   0.574   1.060
58040SOL     OW75958  13.364   0.548   6.542
58040SOL    HW175959  13.398   0.460   6.557
58040SOL    HW275960  13.270   0.541   6.560
58041SOL     OW75961  13.790  14.723  13.713
58041SOL    HW175962  13.695  14.715  13.709
58041SOL    HW275963  13.819  14.644  13.757
58042SOL     OW75964   5.444  12.044   3.844
58042SOL    HW175965   5.527  11.999   3.855
58042SOL    HW275966   5.377  11.977   3.859
58043SOL     OW75967   9.872   0.137   4.914
58043SOL    HW175968   9.809   0.132   4.843
58043SOL    HW275969   9.915   0.222   4.902
58044SOL     OW75970   4.049   3.259   5.958
58044SOL    HW175971   4.067   3.166   5.940
58044SOL    HW275972   4.045   3.299   5.871
58045SOL     OW75973   6.198   9.993  11.759
58045SOL    HW175974   6.133  10.036  11.815
58045SOL    HW275975   6.231   9.921  11.812
58046SOL     OW75976  12.560  14.862   3.961
58046SOL    HW175977  12.525  14.774   3.956
58046SOL    HW275978  12.591  14.871   4.051
58047SOL     OW75979  13.102  14.630   8.337
58047SOL    HW175980  13.044  14.555   8.322
58047SOL    HW275981  13.058  14.704   8.297
58048SOL     OW75982   6.327   3.258   3.377
58048SOL    HW175983   6.420   3.258   3.401
58048SOL    HW275984   6.327   3.292   3.287
58049SOL     OW75985   5.531   8.017   4.558
58049SOL    HW175986   5.476   7.940   4.549
58049SOL    HW275987   5.607   7.987   4.609
58050SOL     OW75988   2.697   7.983   1.738
58050SOL    HW175989   2.786   7.999   1.769
58050SOL    HW275990   2.695   7.890   1.716
58051SOL     OW75991  13.254  10.747  14.317
58051SOL    HW175992  13.264  10.657  14.348
58051SOL    HW275993  13.267  10.801  14.395
58052SOL     OW75994   5.686   4.344   9.158
58052SOL    HW175995   5.705   4.423   9.107
58052SOL    HW275996   5.766   4.292   9.154
58053SOL     OW75997   3.676  14.778   5.674
58053SOL    HW175998   3.670  14.873   5.683
58053SOL    HW275999   3.588  14.747   5.697
58054SOL     OW76000  11.944   6.247   3.540
58054SOL    HW176001  12.028   6.292   3.531
58054SOL    HW276002  11.891   6.307   3.591
58055SOL     OW76003   9.049  12.233  12.829
58055SOL    HW176004   9.101  12.249  12.750
58055SOL    HW276005   8.985  12.303  12.830
58056SOL     OW76006   1.883  10.796  12.233
58056SOL    HW176007   1.964  10.800  12.283
58056SOL    HW276008   1.866  10.886  12.206
58057SOL     OW76009   2.372   0.470  14.831
58057SOL    HW176010   2.300   0.533  14.833
58057SOL    HW276011   2.334   0.393  14.789
58058SOL     OW76012  11.909   5.336   9.789
58058SOL    HW176013  11.956   5.339   9.706
58058SOL    HW276014  11.951   5.401   9.844
58059SOL     OW76015   9.477  14.218   3.305
58059SOL    HW176016   9.416  14.151   3.336
58059SOL    HW276017   9.552  14.169   3.272
58060SOL     OW76018   7.344  14.112  10.506
58060SOL    HW176019   7.300  14.173  10.446
58060SOL    HW276020   7.275  14.083  10.566
58061SOL     OW76021   6.332   1.749   4.935
58061SOL    HW176022   6.315   1.831   4.888
58061SOL    HW276023   6.254   1.735   4.988
58062SOL     OW76024   0.596  11.663  11.637
58062SOL    HW176025   0.567  11.610  11.711
58062SOL    HW276026   0.613  11.599  11.568
58063SOL     OW76027  10.344   8.123   2.756
58063SOL    HW176028  10.294   8.129   2.674
58063SOL    HW276029  10.430   8.091   2.730
58064SOL     OW76030   3.426   2.084   8.880
58064SOL    HW176031   3.466   2.073   8.794
58064SOL    HW276032   3.399   1.995   8.905
58065SOL     OW76033   7.849   8.146   6.017
58065SOL    HW176034   7.799   8.069   6.042
58065SOL    HW276035   7.884   8.125   5.930
58066SOL     OW76036  12.537   8.129   7.419
58066SOL    HW176037  12.509   8.209   7.375
58066SOL    HW276038  12.568   8.159   7.505
58067SOL     OW76039   5.545   8.072   9.927
58067SOL    HW176040   5.557   8.105  10.017
58067SOL    HW276041   5.480   8.131   9.889
58068SOL     OW76042  10.578  13.236   4.240
58068SOL    HW176043  10.547  13.158   4.193
58068SOL    HW276044  10.502  13.266   4.289
58069SOL     OW76045   7.572   6.815   2.901
58069SOL    HW176046   7.660   6.796   2.935
58069SOL    HW276047   7.535   6.878   2.964
58070SOL     OW76048  12.037   3.887   3.826
58070SOL    HW176049  11.943   3.899   3.840
58070SOL    HW276050  12.046   3.794   3.804
58071SOL     OW76051   4.393  10.146   4.915
58071SOL    HW176052   4.464  10.170   4.975
58071SOL    HW276053   4.419  10.184   4.831
58072SOL     OW76054   8.451   6.942  13.017
58072SOL    HW176055   8.445   6.941  13.113
58072SOL    HW276056   8.540   6.914  12.998
58073SOL     OW76057   6.114   1.811   5.858
58073SOL    HW176058   6.036   1.835   5.808
58073SOL    HW276059   6.103   1.719   5.878
58074SOL     OW76060   5.161  13.877  12.174
58074SOL    HW176061   5.208  13.947  12.128
58074SOL    HW276062   5.131  13.819  12.105
58075SOL     OW76063   6.677   2.060   9.834
58075SOL    HW176064   6.686   1.983   9.777
58075SOL    HW276065   6.682   2.135   9.774
58076SOL     OW76066  14.650   6.056  11.428
58076SOL    HW176067  14.591   6.065  11.352
58076SOL    HW276068  14.598   6.086  11.502
58077SOL     OW76069   4.266  12.586   9.688
58077SOL    HW176070   4.253  12.491   9.691
58077SOL    HW276071   4.178  12.622   9.696
58078SOL     OW76072   2.102   8.993  14.642
58078SOL    HW176073   2.081   9.004  14.735
58078SOL    HW276074   2.026   9.027  14.596
58079SOL     OW76075   5.601   6.807   0.124
58079SOL    HW176076   5.546   6.833   0.049
58079SOL    HW276077   5.568   6.721   0.149
58080SOL     OW76078   9.505  14.613   7.575
58080SOL    HW176079   9.594  14.579   7.586
58080SOL    HW276080   9.501  14.640   7.483
58081SOL     OW76081   0.492  10.481  14.495
58081SOL    HW176082   0.501  10.567  14.535
58081SOL    HW276083   0.399  10.460  14.503
58082SOL     OW76084  10.859   8.192   4.030
58082SOL    HW176085  10.880   8.274   4.075
58082SOL    HW276086  10.943   8.156   4.004
58083SOL     OW76087  10.742   9.669   7.145
58083SOL    HW176088  10.705   9.737   7.088
58083SOL    HW276089  10.828   9.650   7.106
58084SOL     OW76090  14.132  10.045   4.578
58084SOL    HW176091  14.092  10.079   4.498
58084SOL    HW276092  14.076   9.971   4.603
58085SOL     OW76093   2.503  10.012   9.102
58085SOL    HW176094   2.505   9.993   9.008
58085SOL    HW276095   2.485  10.106   9.107
58086SOL     OW76096  14.025  14.460   9.922
58086SOL    HW176097  13.972  14.458  10.002
58086SOL    HW276098  13.962  14.474   9.851
58087SOL     OW76099  14.801   2.364   6.096
58087SOL    HW176100  14.762   2.417   6.027
58087SOL    HW276101  14.728   2.342   6.154
58088SOL     OW76102  12.751   8.778   0.242
58088SOL    HW176103  12.797   8.807   0.163
58088SOL    HW276104  12.698   8.704   0.214
58089SOL     OW76105  11.070  11.922   0.073
58089SOL    HW176106  11.122  11.934   0.152
58089SOL    HW276107  11.134  11.920   0.002
58090SOL     OW76108   0.119   7.700   9.151
58090SOL    HW176109   0.170   7.624   9.181
58090SOL    HW276110   0.177   7.743   9.087
58091SOL     OW76111   6.913   6.836  12.006
58091SOL    HW176112   6.880   6.855  12.094
58091SOL    HW276113   6.835   6.810  11.957
58092SOL     OW76114   7.454  14.744   8.437
58092SOL    HW176115   7.531  14.800   8.434
58092SOL    HW276116   7.441  14.726   8.530
58093SOL     OW76117   6.539  12.447   3.884
58093SOL    HW176118   6.459  12.500   3.885
58093SOL    HW276119   6.574  12.455   3.973
58094SOL     OW76120   1.712   5.433   7.396
58094SOL    HW176121   1.654   5.371   7.351
58094SOL    HW276122   1.761   5.476   7.326
58095SOL     OW76123   8.288   3.244  10.802
58095SOL    HW176124   8.283   3.175  10.735
58095SOL    HW276125   8.357   3.214  10.861
58096SOL     OW76126   9.147  13.734   0.263
58096SOL    HW176127   9.203  13.708   0.190
58096SOL    HW276128   9.110  13.652   0.295
58097SOL     OW76129  14.653   6.002   0.960
58097SOL    HW176130  14.658   5.918   1.005
58097SOL    HW276131  14.574   5.996   0.906
58098SOL     OW76132   2.414   8.936   2.657
58098SOL    HW176133   2.423   8.872   2.727
58098SOL    HW276134   2.502   8.972   2.647
58099SOL     OW76135  14.739   9.983   9.500
58099SOL    HW176136  14.657   9.933   9.496
58099SOL    HW276137  14.752  10.001   9.593
58100SOL     OW76138   2.511   7.574   9.619
58100SOL    HW176139   2.521   7.569   9.523
58100SOL    HW276140   2.493   7.484   9.645
58101SOL     OW76141  14.208  12.196  14.017
58101SOL    HW176142  14.154  12.192  13.938
58101SOL    HW276143  14.260  12.115  14.015
58102SOL     OW76144   1.869   0.065   6.215
58102SOL    HW176145   1.799   0.084   6.152
58102SOL    HW276146   1.851  14.853   6.246
58103SOL     OW76147   0.645   6.709   5.946
58103SOL    HW176148   0.680   6.620   5.946
58103SOL    HW276149   0.708   6.760   5.896
58104SOL     OW76150   7.764  13.210   8.778
58104SOL    HW176151   7.698  13.156   8.734
58104SOL    HW276152   7.737  13.300   8.760
58105SOL     OW76153   7.656   7.190   2.125
58105SOL    HW176154   7.680   7.241   2.203
58105SOL    HW276155   7.731   7.199   2.067
58106SOL     OW76156   7.334   6.323   5.704
58106SOL    HW176157   7.245   6.358   5.707
58106SOL    HW276158   7.374   6.352   5.786
58107SOL     OW76159  10.628  11.839   7.342
58107SOL    HW176160  10.584  11.913   7.299
58107SOL    HW276161  10.574  11.764   7.319
58108SOL     OW76162  11.297  10.025  13.045
58108SOL    HW176163  11.261  10.105  13.006
58108SOL    HW276164  11.259  10.022  13.133
58109SOL     OW76165  12.309   3.987  13.405
58109SOL    HW176166  12.224   3.948  13.385
58109SOL    HW276167  12.321   3.973  13.499
58110SOL     OW76168   1.492  12.057   5.407
58110SOL    HW176169   1.536  12.141   5.417
58110SOL    HW276170   1.563  11.994   5.391
58111SOL     OW76171  14.699   8.490   1.411
58111SOL    HW176172  14.761   8.467   1.480
58111SOL    HW276173  14.672   8.406   1.373
58112SOL     OW76174   1.905   8.149   7.574
58112SOL    HW176175   1.856   8.228   7.595
58112SOL    HW276176   1.839   8.079   7.576
58113SOL     OW76177  12.586   8.304   2.070
58113SOL    HW176178  12.604   8.365   1.998
58113SOL    HW276179  12.539   8.356   2.135
58114SOL     OW76180  14.583   8.169   7.998
58114SOL    HW176181  14.546   8.208   7.919
58114SOL    HW276182  14.508   8.138   8.047
58115SOL     OW76183   6.254  14.489   6.918
58115SOL    HW176184   6.160  14.502   6.930
58115SOL    HW276185   6.294  14.559   6.970
58116SOL     OW76186   2.274   9.820  10.442
58116SOL    HW176187   2.218   9.752  10.480
58116SOL    HW276188   2.362   9.795  10.468
58117SOL     OW76189   9.305  12.456   3.696
58117SOL    HW176190   9.375  12.502   3.649
58117SOL    HW276191   9.251  12.417   3.626
58118SOL     OW76192   7.818   1.034   7.832
58118SOL    HW176193   7.722   1.038   7.829
58118SOL    HW276194   7.838   1.018   7.924
58119SOL     OW76195  13.695   9.119   7.905
58119SOL    HW176196  13.721   9.077   7.824
58119SOL    HW276197  13.620   9.068   7.936
58120SOL     OW76198   8.276   9.186  14.798
58120SOL    HW176199   8.215   9.136  14.853
58120SOL    HW276200   8.273   9.275  14.834
58121SOL     OW76201  10.094  13.338   5.578
58121SOL    HW176202  10.174  13.322   5.629
58121SOL    HW276203  10.125  13.389   5.503
58122SOL     OW76204   6.241  11.764  13.143
58122SOL    HW176205   6.308  11.734  13.082
58122SOL    HW276206   6.158  11.753  13.095
58123SOL     OW76207   5.809   5.662   1.008
58123SOL    HW176208   5.867   5.591   0.982
58123SOL    HW276209   5.821   5.668   1.103
58124SOL     OW76210   4.005  13.061   9.544
58124SOL    HW176211   3.959  13.143   9.525
58124SOL    HW276212   3.935  12.999   9.567
58125SOL     OW76213   3.387   0.394  13.236
58125SOL    HW176214   3.415   0.348  13.315
58125SOL    HW276215   3.331   0.331  13.191
58126SOL     OW76216   0.078   9.009   7.911
58126SOL    HW176217   0.015   9.080   7.897
58126SOL    HW276218   0.101   9.016   8.004
58127SOL     OW76219   6.922   0.347   9.886
58127SOL    HW176220   6.978   0.304   9.822
58127SOL    HW276221   6.982   0.403   9.936
58128SOL     OW76222   0.862   0.619   1.996
58128SOL    HW176223   0.955   0.597   1.998
58128SOL    HW276224   0.818   0.534   1.985
58129SOL     OW76225  13.528  13.131  10.987
58129SOL    HW176226  13.509  13.223  11.006
58129SOL    HW276227  13.535  13.091  11.074
58130SOL     OW76228   0.894  14.862  13.839
58130SOL    HW176229   0.982   0.013  13.866
58130SOL    HW276230   0.906  14.827  13.751
58131SOL     OW76231  14.075   0.926   6.979
58131SOL    HW176232  13.982   0.917   7.002
58131SOL    HW276233  14.080   0.902   6.887
58132SOL     OW76234   9.219   2.416  13.877
58132SOL    HW176235   9.156   2.388  13.943
58132SOL    HW276236   9.218   2.346  13.812
58133SOL     OW76237   6.846   7.533  14.585
58133SOL    HW176238   6.846   7.454  14.530
58133SOL    HW276239   6.776   7.587  14.549
58134SOL     OW76240   3.607   7.632  14.105
58134SOL    HW176241   3.638   7.607  14.017
58134SOL    HW276242   3.670   7.592  14.164
58135SOL     OW76243  13.301  11.773   0.600
58135SOL    HW176244  13.233  11.765   0.666
58135SOL    HW276245  13.309  11.685   0.563
58136SOL     OW76246   6.949   4.842   8.144
58136SOL    HW176247   7.039   4.811   8.141
58136SOL    HW276248   6.946   4.913   8.080
58137SOL     OW76249   0.737   7.052   0.223
58137SOL    HW176250   0.813   7.108   0.210
58137SOL    HW276251   0.675   7.107   0.271
58138SOL     OW76252  10.670  12.543   9.139
58138SOL    HW176253  10.679  12.486   9.062
58138SOL    HW276254  10.619  12.491   9.202
58139SOL     OW76255   5.221   0.129   0.561
58139SOL    HW176256   5.260   0.184   0.629
58139SOL    HW276257   5.290   0.065   0.541
58140SOL     OW76258  13.304   7.805   2.833
58140SOL    HW176259  13.230   7.862   2.811
58140SOL    HW276260  13.379   7.864   2.842
58141SOL     OW76261   7.272  10.396   7.811
58141SOL    HW176262   7.184  10.360   7.800
58141SOL    HW276263   7.312  10.343   7.880
58142SOL     OW76264  14.039   4.371   2.572
58142SOL    HW176265  14.061   4.386   2.480
58142SOL    HW276266  14.016   4.278   2.576
58143SOL     OW76267   7.439   6.540  13.955
58143SOL    HW176268   7.378   6.468  13.941
58143SOL    HW276269   7.518   6.499  13.990
58144SOL     OW76270  10.368   0.024  14.077
58144SOL    HW176271  10.284   0.065  14.097
58144SOL    HW276272  10.349  14.806  14.075
58145SOL     OW76273   3.871   6.239   6.450
58145SOL    HW176274   3.930   6.251   6.376
58145SOL    HW276275   3.785   6.222   6.411
58146SOL     OW76276   1.661   4.793  13.753
58146SOL    HW176277   1.725   4.863  13.745
58146SOL    HW276278   1.603   4.820  13.824
58147SOL     OW76279   7.839   9.299   6.684
58147SOL    HW176280   7.752   9.272   6.656
58147SOL    HW276281   7.875   9.348   6.610
58148SOL     OW76282  13.495   7.662   2.223
58148SOL    HW176283  13.424   7.636   2.281
58148SOL    HW276284  13.451   7.694   2.144
58149SOL     OW76285   0.765  13.843   0.018
58149SOL    HW176286   0.694  13.866   0.078
58149SOL    HW276287   0.769  13.747   0.021
58150SOL     OW76288  12.302   2.191   8.218
58150SOL    HW176289  12.293   2.266   8.276
58150SOL    HW276290  12.394   2.165   8.226
58151SOL     OW76291   0.772   5.038   9.532
58151SOL    HW176292   0.839   5.098   9.500
58151SOL    HW276293   0.791   5.026   9.625
58152SOL     OW76294   0.520  11.012   5.129
58152SOL    HW176295   0.427  11.035   5.124
58152SOL    HW276296   0.556  11.071   5.195
58153SOL     OW76297  13.883  10.625   1.759
58153SOL    HW176298  13.805  10.575   1.735
58153SOL    HW276299  13.917  10.581   1.836
58154SOL     OW76300  12.210  12.573  13.067
58154SOL    HW176301  12.136  12.633  13.075
58154SOL    HW276302  12.198  12.530  12.982
58155SOL     OW76303   6.030  13.747   5.133
58155SOL    HW176304   6.070  13.824   5.173
58155SOL    HW276305   6.100  13.682   5.132
58156SOL     OW76306   3.125  12.583   9.383
58156SOL    HW176307   3.197  12.647   9.382
58156SOL    HW276308   3.166  12.501   9.412
58157SOL     OW76309   2.668   0.539   7.159
58157SOL    HW176310   2.669   0.528   7.064
58157SOL    HW276311   2.667   0.634   7.172
58158SOL     OW76312   3.054   8.445  12.591
58158SOL    HW176313   3.042   8.381  12.520
58158SOL    HW276314   3.102   8.397  12.658
58159SOL     OW76315   9.723   6.849   9.547
58159SOL    HW176316   9.708   6.878   9.457
58159SOL    HW276317   9.696   6.757   9.547
58160SOL     OW76318  11.461   9.945   2.594
58160SOL    HW176319  11.509  10.023   2.566
58160SOL    HW276320  11.526   9.892   2.640
58161SOL     OW76321  10.296  13.105   4.919
58161SOL    HW176322  10.318  13.079   4.829
58161SOL    HW276323  10.319  13.198   4.923
58162SOL     OW76324   1.017   1.287   0.910
58162SOL    HW176325   1.064   1.224   0.856
58162SOL    HW276326   0.925   1.279   0.882
58163SOL     OW76327  14.523   9.227  12.281
58163SOL    HW176328  14.501   9.200  12.191
58163SOL    HW276329  14.614   9.258  12.275
58164SOL     OW76330   8.625   3.958   5.781
58164SOL    HW176331   8.539   3.947   5.823
58164SOL    HW276332   8.683   3.900   5.831
58165SOL     OW76333   4.580   9.260  12.402
58165SOL    HW176334   4.598   9.341  12.450
58165SOL    HW276335   4.644   9.258  12.332
58166SOL     OW76336   4.890   3.044   4.848
58166SOL    HW176337   4.820   3.060   4.784
58166SOL    HW276338   4.969   3.076   4.805
58167SOL     OW76339   3.019   6.145  12.135
58167SOL    HW176340   2.992   6.177  12.220
58167SOL    HW276341   2.940   6.109  12.096
58168SOL     OW76342  10.377  11.633   5.726
58168SOL    HW176343  10.363  11.538   5.721
58168SOL    HW276344  10.470  11.643   5.744
58169SOL     OW76345   4.342  11.654   3.895
58169SOL    HW176346   4.278  11.619   3.957
58169SOL    HW276347   4.392  11.578   3.866
58170SOL     OW76348   1.397   4.133   2.179
58170SOL    HW176349   1.474   4.084   2.148
58170SOL    HW276350   1.340   4.138   2.103
58171SOL     OW76351   8.321  13.605   6.793
58171SOL    HW176352   8.331  13.698   6.773
58171SOL    HW276353   8.279  13.568   6.716
58172SOL     OW76354  14.193   0.606   9.628
58172SOL    HW176355  14.276   0.597   9.674
58172SOL    HW276356  14.210   0.674   9.562
58173SOL     OW76357  11.576   2.796   3.797
58173SOL    HW176358  11.593   2.711   3.839
58173SOL    HW276359  11.565   2.856   3.870
58174SOL     OW76360   1.313  11.210   9.834
58174SOL    HW176361   1.376  11.282   9.831
58174SOL    HW276362   1.324  11.166   9.750
58175SOL     OW76363   3.967   1.040  12.435
58175SOL    HW176364   4.052   1.066  12.398
58175SOL    HW276365   3.987   0.969  12.495
58176SOL     OW76366  12.491  11.459   4.169
58176SOL    HW176367  12.531  11.372   4.171
58176SOL    HW276368  12.444  11.465   4.253
58177SOL     OW76369   5.649  12.502   0.775
58177SOL    HW176370   5.574  12.560   0.788
58177SOL    HW276371   5.709  12.552   0.720
58178SOL     OW76372  13.061   5.911   8.104
58178SOL    HW176373  12.989   5.964   8.135
58178SOL    HW276374  13.136   5.971   8.100
58179SOL     OW76375   5.937   2.894  13.020
58179SOL    HW176376   5.885   2.973  13.032
58179SOL    HW276377   5.885   2.825  13.061
58180SOL     OW76378   0.263   8.031   7.873
58180SOL    HW176379   0.198   7.981   7.923
58180SOL    HW276380   0.217   8.056   7.793
58181SOL     OW76381   0.394  12.961   8.668
58181SOL    HW176382   0.434  12.968   8.581
58181SOL    HW276383   0.467  12.957   8.729
58182SOL     OW76384   5.688   8.290   7.966
58182SOL    HW176385   5.620   8.229   7.935
58182SOL    HW276386   5.662   8.375   7.931
58183SOL     OW76387   1.130   1.880  12.323
58183SOL    HW176388   1.105   1.821  12.395
58183SOL    HW276389   1.096   1.837  12.244
58184SOL     OW76390   3.024   9.120   2.424
58184SOL    HW176391   3.101   9.176   2.431
58184SOL    HW276392   3.040   9.050   2.487
58185SOL     OW76393   0.124  14.730   3.493
58185SOL    HW176394   0.109  14.743   3.586
58185SOL    HW276395   0.167  14.645   3.487
58186SOL     OW76396   6.350  13.866   6.336
58186SOL    HW176397   6.364  13.864   6.241
58186SOL    HW276398   6.276  13.926   6.348
58187SOL     OW76399  11.334   6.964   5.800
58187SOL    HW176400  11.402   6.905   5.834
58187SOL    HW276401  11.253   6.932   5.839
58188SOL     OW76402  11.130   4.854   0.546
58188SOL    HW176403  11.184   4.776   0.534
58188SOL    HW276404  11.105   4.881   0.458
58189SOL     OW76405   5.004   5.897   8.205
58189SOL    HW176406   4.936   5.963   8.211
58189SOL    HW276407   5.017   5.882   8.111
58190SOL     OW76408   9.705   7.013   5.196
58190SOL    HW176409   9.791   6.988   5.163
58190SOL    HW276410   9.717   7.102   5.229
58191SOL     OW76411   2.243   5.022  10.976
58191SOL    HW176412   2.218   5.113  10.962
58191SOL    HW276413   2.210   5.001  11.063
58192SOL     OW76414   6.162   7.708   1.548
58192SOL    HW176415   6.251   7.680   1.523
58192SOL    HW276416   6.172   7.742   1.637
58193SOL     OW76417   0.911   6.922   1.431
58193SOL    HW176418   0.861   6.961   1.503
58193SOL    HW276419   0.958   6.996   1.393
58194SOL     OW76420   7.743   8.246   5.471
58194SOL    HW176421   7.711   8.331   5.440
58194SOL    HW276422   7.817   8.268   5.528
58195SOL     OW76423   9.681  14.303  12.004
58195SOL    HW176424   9.587  14.320  12.012
58195SOL    HW276425   9.691  14.264  11.917
58196SOL     OW76426   9.075   0.227   3.980
58196SOL    HW176427   9.136   0.168   4.025
58196SOL    HW276428   9.125   0.308   3.968
58197SOL     OW76429  12.319   3.693   3.035
58197SOL    HW176430  12.413   3.682   3.044
58197SOL    HW276431  12.309   3.782   2.999
58198SOL     OW76432   1.962   2.765   9.440
58198SOL    HW176433   2.005   2.802   9.517
58198SOL    HW276434   1.887   2.821   9.424
58199SOL     OW76435   0.925   6.837  11.443
58199SOL    HW176436   0.925   6.874  11.355
58199SOL    HW276437   0.966   6.904  11.498
58200SOL     OW76438   0.960  11.179  14.599
58200SOL    HW176439   0.883  11.143  14.643
58200SOL    HW276440   1.015  11.103  14.581
58201SOL     OW76441   0.520  12.897   9.445
58201SOL    HW176442   0.467  12.920   9.369
58201SOL    HW276443   0.594  12.958   9.441
58202SOL     OW76444   4.952  11.118   2.844
58202SOL    HW176445   4.957  11.024   2.863
58202SOL    HW276446   5.009  11.159   2.909
58203SOL     OW76447   4.789  12.379   7.507
58203SOL    HW176448   4.803  12.338   7.593
58203SOL    HW276449   4.787  12.306   7.445
58204SOL     OW76450   9.373   3.187  14.110
58204SOL    HW176451   9.301   3.184  14.047
58204SOL    HW276452   9.447   3.149  14.062
58205SOL     OW76453  13.757  10.110  10.756
58205SOL    HW176454  13.798  10.146  10.678
58205SOL    HW276455  13.807  10.031  10.775
58206SOL     OW76456   6.528   5.857   6.176
58206SOL    HW176457   6.521   5.894   6.265
58206SOL    HW276458   6.492   5.926   6.120
58207SOL     OW76459   1.066  12.840   5.503
58207SOL    HW176460   1.050  12.774   5.571
58207SOL    HW276461   1.015  12.811   5.428
58208SOL     OW76462  10.399   9.464  12.161
58208SOL    HW176463  10.388   9.395  12.096
58208SOL    HW276464  10.428   9.419  12.240
58209SOL     OW76465  12.967   4.508   0.519
58209SOL    HW176466  12.923   4.523   0.435
58209SOL    HW276467  12.955   4.414   0.536
58210SOL     OW76468   0.452   2.684   5.244
58210SOL    HW176469   0.516   2.662   5.312
58210SOL    HW276470   0.495   2.750   5.190
58211SOL     OW76471   7.943   4.935   6.728
58211SOL    HW176472   8.012   4.959   6.789
58211SOL    HW276473   7.985   4.875   6.666
58212SOL     OW76474   7.519   7.919  10.774
58212SOL    HW176475   7.440   7.973  10.781
58212SOL    HW276476   7.587   7.979  10.744
58213SOL     OW76477   1.496   0.480  14.816
58213SOL    HW176478   1.585   0.505  14.791
58213SOL    HW276479   1.503   0.459   0.033
58214SOL     OW76480   0.710  13.592  13.529
58214SOL    HW176481   0.761  13.511  13.527
58214SOL    HW276482   0.712  13.624  13.439
58215SOL     OW76483  14.205  11.522   1.461
58215SOL    HW176484  14.253  11.460   1.517
58215SOL    HW276485  14.144  11.468   1.411
58216SOL     OW76486   8.250   0.526   0.744
58216SOL    HW176487   8.174   0.538   0.687
58216SOL    HW276488   8.299   0.454   0.705
58217SOL     OW76489   4.450   2.771  11.730
58217SOL    HW176490   4.418   2.861  11.726
58217SOL    HW276491   4.435   2.736  11.642
58218SOL     OW76492   4.958   4.885   4.876
58218SOL    HW176493   4.882   4.860   4.929
58218SOL    HW276494   4.950   4.833   4.796
58219SOL     OW76495   1.349   1.557   5.264
58219SOL    HW176496   1.423   1.496   5.267
58219SOL    HW276497   1.314   1.548   5.176
58220SOL     OW76498   6.214  11.588   7.474
58220SOL    HW176499   6.283  11.598   7.539
58220SOL    HW276500   6.138  11.631   7.513
58221SOL     OW76501  13.473  11.306   4.593
58221SOL    HW176502  13.516  11.281   4.674
58221SOL    HW276503  13.424  11.386   4.615
58222SOL     OW76504   4.062   2.541   8.169
58222SOL    HW176505   4.039   2.618   8.118
58222SOL    HW276506   4.043   2.467   8.111
58223SOL     OW76507  14.141   0.757   8.885
58223SOL    HW176508  14.174   0.836   8.841
58223SOL    HW276509  14.214   0.696   8.880
58224SOL     OW76510   5.557  13.220   1.247
58224SOL    HW176511   5.621  13.283   1.281
58224SOL    HW276512   5.606  13.168   1.183
58225SOL     OW76513  13.542   7.170  12.658
58225SOL    HW176514  13.574   7.081  12.648
58225SOL    HW276515  13.536   7.184  12.752
58226SOL     OW76516  10.856   5.786  10.660
58226SOL    HW176517  10.891   5.845  10.726
58226SOL    HW276518  10.762   5.781  10.679
58227SOL     OW76519   9.711   1.514   1.448
58227SOL    HW176520   9.651   1.527   1.521
58227SOL    HW276521   9.664   1.550   1.372
58228SOL     OW76522   0.298  14.623   2.482
58228SOL    HW176523   0.244  14.699   2.500
58228SOL    HW276524   0.253  14.551   2.526
58229SOL     OW76525   4.311   5.740   6.935
58229SOL    HW176526   4.250   5.814   6.931
58229SOL    HW276527   4.383   5.771   6.989
58230SOL     OW76528   8.925  10.075  12.455
58230SOL    HW176529   8.907  10.109  12.367
58230SOL    HW276530   8.892  10.143  12.514
58231SOL     OW76531  11.758  13.798  12.107
58231SOL    HW176532  11.776  13.705  12.096
58231SOL    HW276533  11.663  13.805  12.095
58232SOL     OW76534   8.032   6.625   1.908
58232SOL    HW176535   7.963   6.674   1.863
58232SOL    HW276536   8.092   6.599   1.838
58233SOL     OW76537  13.845  11.440   3.218
58233SOL    HW176538  13.884  11.392   3.145
58233SOL    HW276539  13.910  11.434   3.288
58234SOL     OW76540   4.827   7.769   3.727
58234SOL    HW176541   4.749   7.823   3.743
58234SOL    HW276542   4.825   7.754   3.632
58235SOL     OW76543  14.135   6.905   8.180
58235SOL    HW176544  14.211   6.958   8.205
58235SOL    HW276545  14.106   6.943   8.097
58236SOL     OW76546   1.020  11.117   1.318
58236SOL    HW176547   0.930  11.086   1.305
58236SOL    HW276548   1.011  11.211   1.331
58237SOL     OW76549   6.785   1.127  11.822
58237SOL    HW176550   6.706   1.099  11.868
58237SOL    HW276551   6.760   1.209  11.779
58238SOL     OW76552  14.268  10.750   8.607
58238SOL    HW176553  14.184  10.796   8.604
58238SOL    HW276554  14.273  10.703   8.524
58239SOL     OW76555   5.245  12.688  12.877
58239SOL    HW176556   5.170  12.676  12.819
58239SOL    HW276557   5.295  12.606  12.868
58240SOL     OW76558   7.260  10.127  12.904
58240SOL    HW176559   7.227  10.196  12.961
58240SOL    HW276560   7.204  10.051  12.924
58241SOL     OW76561  13.064   6.718  11.642
58241SOL    HW176562  13.006   6.650  11.606
58241SOL    HW276563  13.068   6.698  11.736
58242SOL     OW76564  10.259  14.101  11.910
58242SOL    HW176565  10.244  14.102  11.815
58242SOL    HW276566  10.172  14.085  11.948
58243SOL     OW76567   4.849   5.973  13.833
58243SOL    HW176568   4.762   5.993  13.798
58243SOL    HW276569   4.908   5.986  13.760
58244SOL     OW76570   2.887   8.384   9.061
58244SOL    HW176571   2.796   8.356   9.051
58244SOL    HW276572   2.931   8.354   8.981
58245SOL     OW76573  14.323   9.510   4.500
58245SOL    HW176574  14.242   9.482   4.541
58245SOL    HW276575  14.297   9.580   4.440
58246SOL     OW76576   2.769  10.486   9.700
58246SOL    HW176577   2.759  10.415   9.763
58246SOL    HW276578   2.790  10.442   9.618
58247SOL     OW76579  11.590   6.228  13.946
58247SOL    HW176580  11.576   6.185  14.031
58247SOL    HW276581  11.508   6.215  13.899
58248SOL     OW76582   4.249  13.671   7.572
58248SOL    HW176583   4.196  13.609   7.522
58248SOL    HW276584   4.226  13.653   7.664
58249SOL     OW76585   3.350   8.571  11.186
58249SOL    HW176586   3.433   8.614  11.203
58249SOL    HW276587   3.358   8.539  11.096
58250SOL     OW76588   5.134   5.952   2.646
58250SOL    HW176589   5.120   5.983   2.735
58250SOL    HW276590   5.141   5.857   2.654
58251SOL     OW76591  11.793   1.474   1.278
58251SOL    HW176592  11.738   1.551   1.287
58251SOL    HW276593  11.766   1.434   1.195
58252SOL     OW76594   5.846   7.223   4.075
58252SOL    HW176595   5.912   7.154   4.066
58252SOL    HW276596   5.818   7.241   3.986
58253SOL     OW76597   6.194  10.924   0.769
58253SOL    HW176598   6.222  10.872   0.845
58253SOL    HW276599   6.191  10.861   0.697
58254SOL     OW76600   5.458   1.383   3.725
58254SOL    HW176601   5.480   1.295   3.696
58254SOL    HW276602   5.420   1.425   3.647
58255SOL     OW76603   3.121   3.631  13.705
58255SOL    HW176604   3.102   3.724  13.693
58255SOL    HW276605   3.162   3.627  13.792
58256SOL     OW76606   0.694   1.468   0.055
58256SOL    HW176607   0.741   1.503   0.131
58256SOL    HW276608   0.697   1.373   0.068
58257SOL     OW76609  13.619   0.186  12.583
58257SOL    HW176610  13.667   0.106  12.563
58257SOL    HW276611  13.621   0.236  12.501
58258SOL     OW76612  10.886   5.007   8.285
58258SOL    HW176613  10.798   5.034   8.257
58258SOL    HW276614  10.944   5.073   8.246
58259SOL     OW76615   5.772   8.443  11.882
58259SOL    HW176616   5.710   8.405  11.820
58259SOL    HW276617   5.858   8.414  11.851
58260SOL     OW76618  12.872   5.969  11.332
58260SOL    HW176619  12.870   5.933  11.244
58260SOL    HW276620  12.781   5.996  11.349
58261SOL     OW76621   3.932   5.343   6.172
58261SOL    HW176622   3.864   5.327   6.237
58261SOL    HW276623   4.000   5.278   6.190
58262SOL     OW76624   0.204   7.828   0.347
58262SOL    HW176625   0.255   7.893   0.395
58262SOL    HW276626   0.228   7.745   0.386
58263SOL     OW76627   5.830   5.495   7.747
58263SOL    HW176628   5.754   5.538   7.709
58263SOL    HW276629   5.867   5.443   7.675
58264SOL     OW76630   1.789   3.116   4.722
58264SOL    HW176631   1.883   3.108   4.706
58264SOL    HW276632   1.750   3.127   4.636
58265SOL     OW76633   6.698   3.503   1.791
58265SOL    HW176634   6.663   3.531   1.707
58265SOL    HW276635   6.682   3.577   1.849
58266SOL     OW76636   3.043  12.076  12.917
58266SOL    HW176637   3.072  12.166  12.901
58266SOL    HW276638   3.067  12.058  13.007
58267SOL     OW76639   2.303   1.433  10.997
58267SOL    HW176640   2.285   1.512  11.048
58267SOL    HW276641   2.313   1.364  11.062
58268SOL     OW76642  11.876  14.139   1.046
58268SOL    HW176643  11.925  14.154   0.965
58268SOL    HW276644  11.888  14.045   1.063
58269SOL     OW76645   3.504   6.671  10.822
58269SOL    HW176646   3.484   6.750  10.772
58269SOL    HW276647   3.499   6.600  10.758
58270SOL     OW76648  10.805  13.327   0.085
58270SOL    HW176649  10.781  13.235   0.087
58270SOL    HW276650  10.838  13.342  14.873
58271SOL     OW76651   3.619  14.743  12.642
58271SOL    HW176652   3.595  14.667  12.694
58271SOL    HW276653   3.584  14.818  12.690
58272SOL     OW76654  12.558   9.934  14.226
58272SOL    HW176655  12.543   9.924  14.320
58272SOL    HW276656  12.556   9.845  14.191
58273SOL     OW76657   8.549  11.541  10.872
58273SOL    HW176658   8.478  11.517  10.932
58273SOL    HW276659   8.628  11.531  10.924
58274SOL     OW76660   6.685  13.643   8.488
58274SOL    HW176661   6.613  13.669   8.545
58274SOL    HW276662   6.642  13.600   8.414
58275SOL     OW76663  10.901  12.648   1.344
58275SOL    HW176664  10.845  12.570   1.343
58275SOL    HW276665  10.974  12.625   1.285
58276SOL     OW76666   4.525  12.992   3.634
58276SOL    HW176667   4.479  13.017   3.554
58276SOL    HW276668   4.457  12.993   3.702
58277SOL     OW76669  10.488   5.761   2.180
58277SOL    HW176670  10.407   5.812   2.185
58277SOL    HW276671  10.537   5.786   2.258
58278SOL     OW76672  10.549  14.032   3.901
58278SOL    HW176673  10.456  14.051   3.918
58278SOL    HW276674  10.587  14.021   3.987
58279SOL     OW76675   3.242   3.362  10.333
58279SOL    HW176676   3.225   3.454  10.354
58279SOL    HW276677   3.163   3.316  10.359
58280SOL     OW76678   8.895   5.477   5.905
58280SOL    HW176679   8.837   5.527   5.962
58280SOL    HW276680   8.930   5.542   5.844
58281SOL     OW76681   9.868   2.774  12.486
58281SOL    HW176682   9.949   2.799  12.442
58281SOL    HW276683   9.845   2.689  12.447
58282SOL     OW76684   3.716   5.902  13.111
58282SOL    HW176685   3.624   5.914  13.135
58282SOL    HW276686   3.733   5.809  13.127
58283SOL     OW76687   0.411  14.387   0.500
58283SOL    HW176688   0.465  14.310   0.483
58283SOL    HW276689   0.433  14.448   0.430
58284SOL     OW76690  11.083   7.091  10.480
58284SOL    HW176691  11.096   7.004  10.516
58284SOL    HW276692  11.002   7.085  10.430
58285SOL     OW76693   6.592   1.194  10.937
58285SOL    HW176694   6.498   1.202  10.955
58285SOL    HW276695   6.601   1.110  10.892
58286SOL     OW76696   5.143  10.241   3.208
58286SOL    HW176697   5.185  10.284   3.134
58286SOL    HW276698   5.203  10.170   3.232
58287SOL     OW76699  12.991   0.695   8.882
58287SOL    HW176700  12.949   0.721   8.964
58287SOL    HW276701  12.922   0.699   8.817
58288SOL     OW76702  14.016   0.046  11.134
58288SOL    HW176703  14.038   0.137  11.114
58288SOL    HW276704  14.099  14.875  11.130
58289SOL     OW76705   1.631  12.182   1.184
58289SOL    HW176706   1.612  12.098   1.141
58289SOL    HW276707   1.688  12.159   1.257
58290SOL     OW76708   2.315  13.972   2.871
58290SOL    HW176709   2.292  13.991   2.781
58290SOL    HW276710   2.246  14.013   2.923
58291SOL     OW76711   9.212  10.513  12.039
58291SOL    HW176712   9.123  10.483  12.060
58291SOL    HW276713   9.219  10.597  12.084
58292SOL     OW76714  12.007   5.723   0.025
58292SOL    HW176715  12.003   5.629   0.007
58292SOL    HW276716  12.009   5.764  14.814
58293SOL     OW76717   7.006   0.422   2.359
58293SOL    HW176718   6.952   0.454   2.287
58293SOL    HW276719   6.944   0.377   2.417
58294SOL     OW76720   9.231   7.473   6.830
58294SOL    HW176721   9.301   7.504   6.888
58294SOL    HW276722   9.275   7.416   6.767
58295SOL     OW76723  14.544  14.334   5.626
58295SOL    HW176724  14.463  14.343   5.574
58295SOL    HW276725  14.614  14.350   5.563
58296SOL     OW76726  10.149  12.540   9.046
58296SOL    HW176727  10.151  12.509   8.955
58296SOL    HW276728  10.080  12.605   9.048
58297SOL     OW76729  10.066   3.628  12.024
58297SOL    HW176730  10.099   3.677  12.100
58297SOL    HW276731  10.042   3.696  11.961
58298SOL     OW76732   0.425   6.919  14.548
58298SOL    HW176733   0.381   6.879  14.473
58298SOL    HW276734   0.379   6.883  14.624
58299SOL     OW76735   5.020   6.577   1.970
58299SOL    HW176736   5.061   6.583   2.056
58299SOL    HW276737   4.937   6.625   1.979
58300SOL     OW76738   2.398  12.600  13.781
58300SOL    HW176739   2.453  12.678  13.790
58300SOL    HW276740   2.406  12.575  13.690
58301SOL     OW76741  10.890   0.091   9.876
58301SOL    HW176742  10.833   0.133   9.940
58301SOL    HW276743  10.874  14.873   9.888
58302SOL     OW76744  12.095   9.413   5.371
58302SOL    HW176745  12.157   9.427   5.299
58302SOL    HW276746  12.146   9.372   5.440
58303SOL     OW76747   7.312  12.535  10.899
58303SOL    HW176748   7.285  12.453  10.857
58303SOL    HW276749   7.250  12.546  10.971
58304SOL     OW76750  14.008   5.296  14.217
58304SOL    HW176751  14.055   5.310  14.134
58304SOL    HW276752  14.075   5.264  14.277
58305SOL     OW76753  13.867   1.458   9.278
58305SOL    HW176754  13.876   1.450   9.373
58305SOL    HW276755  13.833   1.373   9.250
58306SOL     OW76756   9.327   4.038  11.972
58306SOL    HW176757   9.330   4.045  12.067
58306SOL    HW276758   9.300   4.125  11.942
58307SOL     OW76759  12.302   4.836   3.838
58307SOL    HW176760  12.356   4.908   3.806
58307SOL    HW276761  12.334   4.819   3.927
58308SOL     OW76762   6.539   3.576  13.851
58308SOL    HW176763   6.447   3.592  13.829
58308SOL    HW276764   6.543   3.583  13.946
58309SOL     OW76765   5.878  13.128   4.335
58309SOL    HW176766   5.806  13.191   4.325
58309SOL    HW276767   5.957  13.182   4.336
58310SOL     OW76768  14.682   0.009  14.873
58310SOL    HW176769  14.730   0.081  14.834
58310SOL    HW276770  14.677   0.030   0.090
58311SOL     OW76771   2.630  10.032   7.886
58311SOL    HW176772   2.546   9.987   7.874
58311SOL    HW276773   2.679   9.975   7.945
58312SOL     OW76774  11.311   3.429  13.784
58312SOL    HW176775  11.259   3.497  13.827
58312SOL    HW276776  11.351   3.380  13.856
58313SOL     OW76777   0.696  11.339  10.468
58313SOL    HW176778   0.784  11.319  10.498
58313SOL    HW276779   0.639  11.318  10.542
58314SOL     OW76780  10.730  10.169   8.547
58314SOL    HW176781  10.782  10.250   8.551
58314SOL    HW276782  10.784  10.109   8.497
58315SOL     OW76783   1.158  11.017   7.589
58315SOL    HW176784   1.166  10.959   7.664
58315SOL    HW276785   1.203  11.097   7.615
58316SOL     OW76786   6.970  10.485   4.735
58316SOL    HW176787   6.976  10.397   4.773
58316SOL    HW276788   7.015  10.478   4.651
58317SOL     OW76789   6.912   1.149   1.137
58317SOL    HW176790   6.942   1.146   1.046
58317SOL    HW276791   6.973   1.092   1.184
58318SOL     OW76792   8.884  10.414   9.285
58318SOL    HW176793   8.894  10.417   9.380
58318SOL    HW276794   8.837  10.332   9.267
58319SOL     OW76795   0.807  11.764  10.517
58319SOL    HW176796   0.827  11.719  10.599
58319SOL    HW276797   0.847  11.709  10.450
58320SOL     OW76798   5.868   1.255   6.526
58320SOL    HW176799   5.827   1.241   6.441
58320SOL    HW276800   5.947   1.306   6.507
58321SOL     OW76801  14.839   8.142   8.266
58321SOL    HW176802  14.786   8.070   8.232
58321SOL    HW276803   0.049   8.105   8.279
58322SOL     OW76804   1.176  12.000   0.802
58322SOL    HW176805   1.229  11.927   0.770
58322SOL    HW276806   1.215  12.021   0.887
58323SOL     OW76807   7.919   4.078   0.256
58323SOL    HW176808   7.958   4.046   0.337
58323SOL    HW276809   7.857   4.145   0.283
58324SOL     OW76810   6.129   6.592   7.107
58324SOL    HW176811   6.076   6.672   7.104
58324SOL    HW276812   6.129   6.568   7.199
58325SOL     OW76813  14.028   7.604   7.226
58325SOL    HW176814  13.974   7.576   7.152
58325SOL    HW276815  14.043   7.523   7.276
58326SOL     OW76816  10.361  10.971   2.300
58326SOL    HW176817  10.430  11.038   2.296
58326SOL    HW276818  10.408  10.889   2.315
58327SOL     OW76819  10.323   3.995   9.655
58327SOL    HW176820  10.230   4.004   9.633
58327SOL    HW276821  10.363   4.076   9.622
58328SOL     OW76822   7.323   4.376  11.304
58328SOL    HW176823   7.265   4.325  11.360
58328SOL    HW276824   7.367   4.437  11.363
58329SOL     OW76825   6.414  14.296   6.408
58329SOL    HW176826   6.438  14.327   6.495
58329SOL    HW276827   6.375  14.372   6.365
58330SOL     OW76828   3.593   7.619  10.587
58330SOL    HW176829   3.684   7.637  10.561
58330SOL    HW276830   3.594   7.527  10.614
58331SOL     OW76831   9.222   4.060   4.019
58331SOL    HW176832   9.172   4.057   4.100
58331SOL    HW276833   9.173   4.004   3.958
58332SOL     OW76834  10.986   9.579   7.042
58332SOL    HW176835  11.078   9.591   7.018
58332SOL    HW276836  10.949   9.527   6.971
58333SOL     OW76837  11.030   6.655   3.170
58333SOL    HW176838  10.943   6.620   3.152
58333SOL    HW276839  11.090   6.594   3.128
58334SOL     OW76840   3.313   5.500   7.102
58334SOL    HW176841   3.266   5.437   7.046
58334SOL    HW276842   3.372   5.545   7.041
58335SOL     OW76843   3.031   7.306  13.155
58335SOL    HW176844   3.075   7.293  13.071
58335SOL    HW276845   2.969   7.377  13.140
58336SOL     OW76846   1.523   2.582  13.528
58336SOL    HW176847   1.529   2.494  13.491
58336SOL    HW276848   1.612   2.602  13.557
58337SOL     OW76849  12.744  12.512  12.928
58337SOL    HW176850  12.766  12.600  12.956
58337SOL    HW276851  12.823  12.461  12.947
58338SOL     OW76852   0.540   5.001   9.836
58338SOL    HW176853   0.490   4.990   9.755
58338SOL    HW276854   0.611   5.061   9.813
58339SOL     OW76855   8.451  12.506   4.416
58339SOL    HW176856   8.546  12.515   4.413
58339SOL    HW276857   8.418  12.578   4.361
58340SOL     OW76858  11.398   5.547  13.822
58340SOL    HW176859  11.410   5.558  13.916
58340SOL    HW276860  11.353   5.627  13.793
58341SOL     OW76861   6.720  12.962   5.303
58341SOL    HW176862   6.710  12.987   5.395
58341SOL    HW276863   6.651  13.011   5.257
58342SOL     OW76864  12.243   6.980  11.559
58342SOL    HW176865  12.191   7.039  11.613
58342SOL    HW276866  12.293   7.037  11.501
58343SOL     OW76867  13.081  11.071   3.524
58343SOL    HW176868  13.033  11.103   3.447
58343SOL    HW276869  13.013  11.041   3.584
58344SOL     OW76870   7.681   4.770   3.020
58344SOL    HW176871   7.671   4.725   3.104
58344SOL    HW276872   7.600   4.751   2.973
58345SOL     OW76873  14.825   1.337   3.287
58345SOL    HW176874  14.875   1.378   3.216
58345SOL    HW276875  14.736   1.328   3.253
58346SOL     OW76876   6.117   9.428  13.331
58346SOL    HW176877   6.188   9.407  13.270
58346SOL    HW276878   6.062   9.350  13.332
58347SOL     OW76879   9.109   9.780  11.395
58347SOL    HW176880   9.124   9.691  11.428
58347SOL    HW276881   9.119   9.836  11.472
58348SOL     OW76882  12.000  11.369  13.150
58348SOL    HW176883  12.009  11.451  13.199
58348SOL    HW276884  12.014  11.394  13.059
58349SOL     OW76885  11.082   1.486   0.153
58349SOL    HW176886  11.150   1.554   0.152
58349SOL    HW276887  11.041   1.494   0.239
58350SOL     OW76888  10.697  11.878   9.073
58350SOL    HW176889  10.747  11.821   9.015
58350SOL    HW276890  10.691  11.829   9.155
58351SOL     OW76891   9.156   8.670  10.230
58351SOL    HW176892   9.240   8.628  10.249
58351SOL    HW276893   9.160   8.688  10.136
58352SOL     OW76894  13.551   1.407  13.670
58352SOL    HW176895  13.491   1.333  13.657
58352SOL    HW276896  13.495   1.475  13.707
58353SOL     OW76897  14.597   0.832  13.665
58353SOL    HW176898  14.568   0.921  13.646
58353SOL    HW276899  14.523   0.777  13.640
58354SOL     OW76900   0.048   6.923  11.556
58354SOL    HW176901  14.857   6.937  11.489
58354SOL    HW276902   0.006   6.867  11.621
58355SOL     OW76903   2.082   0.693   5.672
58355SOL    HW176904   2.045   0.765   5.723
58355SOL    HW276905   2.167   0.726   5.642
58356SOL     OW76906   9.269   8.309   7.359
58356SOL    HW176907   9.257   8.220   7.393
58356SOL    HW276908   9.219   8.311   7.277
58357SOL     OW76909   3.241   5.982   0.088
58357SOL    HW176910   3.203   6.008   0.005
58357SOL    HW276911   3.240   5.886   0.086
58358SOL     OW76912   4.882   1.744   2.048
58358SOL    HW176913   4.919   1.830   2.067
58358SOL    HW276914   4.789   1.761   2.032
58359SOL     OW76915   6.462   6.317  11.591
58359SOL    HW176916   6.410   6.384  11.636
58359SOL    HW276917   6.523   6.285  11.657
58360SOL     OW76918   1.309  12.219   2.943
58360SOL    HW176919   1.266  12.247   2.863
58360SOL    HW276920   1.345  12.133   2.922
58361SOL     OW76921   6.734   1.388  12.344
58361SOL    HW176922   6.666   1.358  12.404
58361SOL    HW276923   6.692   1.456  12.291
58362SOL     OW76924   8.131   7.729   5.663
58362SOL    HW176925   8.043   7.691   5.666
58362SOL    HW276926   8.189   7.656   5.684
58363SOL     OW76927  14.064  11.376  13.220
58363SOL    HW176928  14.044  11.288  13.251
58363SOL    HW276929  13.983  11.426  13.235
58364SOL     OW76930  11.681   2.426   0.101
58364SOL    HW176931  11.610   2.414   0.164
58364SOL    HW276932  11.702   2.338   0.072
58365SOL     OW76933   7.027  13.390   2.248
58365SOL    HW176934   7.010  13.299   2.224
58365SOL    HW276935   7.115  13.389   2.284
58366SOL     OW76936   1.050   6.084   0.437
58366SOL    HW176937   1.077   6.168   0.400
58366SOL    HW276938   1.083   6.019   0.375
58367SOL     OW76939   7.398   6.879  12.990
58367SOL    HW176940   7.479   6.858  12.944
58367SOL    HW276941   7.424   6.893  13.081
58368SOL     OW76942   3.057   6.483   5.136
58368SOL    HW176943   3.111   6.491   5.058
58368SOL    HW276944   3.034   6.573   5.159
58369SOL     OW76945   5.277  11.197  12.320
58369SOL    HW176946   5.351  11.179  12.378
58369SOL    HW276947   5.212  11.130  12.341
58370SOL     OW76948   3.317  14.319   7.328
58370SOL    HW176949   3.338  14.383   7.260
58370SOL    HW276950   3.258  14.365   7.387
58371SOL     OW76951  11.680   1.999   9.013
58371SOL    HW176952  11.723   2.045   8.941
58371SOL    HW276953  11.681   1.907   8.987
58372SOL     OW76954  14.790   5.429  10.757
58372SOL    HW176955  14.769   5.490  10.686
58372SOL    HW276956  14.832   5.483  10.824
58373SOL     OW76957  13.355   3.225   2.564
58373SOL    HW176958  13.416   3.247   2.494
58373SOL    HW276959  13.273   3.268   2.539
58374SOL     OW76960   7.426   1.514   1.011
58374SOL    HW176961   7.485   1.459   0.960
58374SOL    HW276962   7.342   1.469   1.007
58375SOL     OW76963   1.615   8.058  11.543
58375SOL    HW176964   1.560   8.031  11.618
58375SOL    HW276965   1.703   8.062  11.579
58376SOL     OW76966  10.127   3.845   7.002
58376SOL    HW176967  10.119   3.784   7.076
58376SOL    HW276968  10.164   3.925   7.041
58377SOL     OW76969   9.444   8.341   7.148
58377SOL    HW176970   9.402   8.319   7.231
58377SOL    HW276971   9.385   8.406   7.109
58378SOL     OW76972   4.013  12.612   8.238
58378SOL    HW176973   4.028  12.639   8.328
58378SOL    HW276974   3.918  12.604   8.231
58379SOL     OW76975   9.643   5.895  14.446
58379SOL    HW176976   9.667   5.868  14.535
58379SOL    HW276977   9.547   5.901  14.448
58380SOL     OW76978   8.829  11.877   2.225
58380SOL    HW176979   8.746  11.833   2.242
58380SOL    HW276980   8.885  11.851   2.298
58381SOL     OW76981  10.869   9.637   4.954
58381SOL    HW176982  10.832   9.551   4.978
58381SOL    HW276983  10.891   9.677   5.038
58382SOL     OW76984   1.913  13.392  11.578
58382SOL    HW176985   1.875  13.438  11.652
58382SOL    HW276986   1.845  13.392  11.511
58383SOL     OW76987   3.137   4.272   1.223
58383SOL    HW176988   3.162   4.181   1.236
58383SOL    HW276989   3.176   4.297   1.139
58384SOL     OW76990  10.357   6.292   8.549
58384SOL    HW176991  10.329   6.368   8.601
58384SOL    HW276992  10.443   6.317   8.515
58385SOL     OW76993   4.293  12.859   7.682
58385SOL    HW176994   4.247  12.881   7.601
58385SOL    HW276995   4.386  12.865   7.658
58386SOL     OW76996   1.114   4.278   4.038
58386SOL    HW176997   1.038   4.263   4.094
58386SOL    HW276998   1.156   4.192   4.031
58387SOL     OW76999  13.405   3.027  14.524
58387SOL    HW177000  13.331   3.055  14.578
58387SOL    HW277001  13.474   3.091  14.543
58388SOL     OW77002   5.649   8.921   0.986
58388SOL    HW177003   5.741   8.931   1.010
58388SOL    HW277004   5.600   8.965   1.056
58389SOL     OW77005  11.985   4.646  13.431
58389SOL    HW177006  11.986   4.687  13.517
58389SOL    HW277007  11.897   4.661  13.398
58390SOL     OW77008   1.308   5.944   0.187
58390SOL    HW177009   1.227   5.894   0.188
58390SOL    HW277010   1.355   5.915   0.109
58391SOL     OW77011   4.680  14.049   7.199
58391SOL    HW177012   4.599  14.097   7.189
58391SOL    HW277013   4.720  14.085   7.279
58392SOL     OW77014   2.252   2.177  14.725
58392SOL    HW177015   2.190   2.110  14.697
58392SOL    HW277016   2.209   2.221  14.798
58393SOL     OW77017  14.497   9.542  14.616
58393SOL    HW177018  14.590   9.525  14.625
58393SOL    HW277019  14.487   9.581  14.529
58394SOL     OW77020   2.488   6.837   8.287
58394SOL    HW177021   2.547   6.804   8.355
58394SOL    HW277022   2.445   6.760   8.252
58395SOL     OW77023   7.414   4.720   3.871
58395SOL    HW177024   7.358   4.795   3.851
58395SOL    HW277025   7.468   4.709   3.792
58396SOL     OW77026  13.899   4.109   3.870
58396SOL    HW177027  13.927   4.109   3.778
58396SOL    HW277028  13.806   4.128   3.867
58397SOL     OW77029   8.310   0.167  12.213
58397SOL    HW177030   8.355   0.217  12.145
58397SOL    HW277031   8.324   0.218  12.293
58398SOL     OW77032   6.509   2.568   2.524
58398SOL    HW177033   6.544   2.541   2.609
58398SOL    HW277034   6.464   2.490   2.491
58399SOL     OW77035   8.098   0.640   8.945
58399SOL    HW177036   8.017   0.589   8.950
58399SOL    HW277037   8.132   0.621   8.858
58400SOL     OW77038   4.165   9.092  11.334
58400SOL    HW177039   4.200   9.020  11.388
58400SOL    HW277040   4.182   9.065  11.244
58401SOL     OW77041   2.627   9.692   0.135
58401SOL    HW177042   2.721   9.710   0.126
58401SOL    HW277043   2.602   9.737   0.216
58402SOL     OW77044   2.685   6.477   8.748
58402SOL    HW177045   2.671   6.570   8.768
58402SOL    HW277046   2.614   6.432   8.793
58403SOL     OW77047   1.930  10.095   3.137
58403SOL    HW177048   1.887  10.159   3.193
58403SOL    HW277049   1.897  10.011   3.167
58404SOL     OW77050   2.868   5.604   1.009
58404SOL    HW177051   2.827   5.640   0.930
58404SOL    HW277052   2.886   5.681   1.063
58405SOL     OW77053   4.014   9.803   7.292
58405SOL    HW177054   3.938   9.860   7.299
58405SOL    HW277055   4.043   9.791   7.382
58406SOL     OW77056  12.395   7.159  10.149
58406SOL    HW177057  12.403   7.235  10.092
58406SOL    HW277058  12.311   7.121  10.127
58407SOL     OW77059   6.581   1.381   0.033
58407SOL    HW177060   6.501   1.362  14.860
58407SOL    HW277061   6.626   1.296   0.040
58408SOL     OW77062  11.936   0.865  10.070
58408SOL    HW177063  12.020   0.898  10.037
58408SOL    HW277064  11.916   0.922  10.144
58409SOL     OW77065   7.575   7.811   2.918
58409SOL    HW177066   7.525   7.813   2.999
58409SOL    HW277067   7.597   7.719   2.905
58410SOL     OW77068   7.512  11.061   3.225
58410SOL    HW177069   7.506  11.011   3.306
58410SOL    HW277070   7.597  11.036   3.188
58411SOL     OW77071   6.401   8.410   3.996
58411SOL    HW177072   6.425   8.467   4.069
58411SOL    HW277073   6.306   8.406   3.997
58412SOL     OW77074  13.107   7.515  12.906
58412SOL    HW177075  13.030   7.504  12.963
58412SOL    HW277076  13.163   7.441  12.929
58413SOL     OW77077  14.550   9.154   6.772
58413SOL    HW177078  14.607   9.080   6.751
58413SOL    HW277079  14.485   9.117   6.832
58414SOL     OW77080  13.263   6.477   4.592
58414SOL    HW177081  13.319   6.546   4.557
58414SOL    HW277082  13.198   6.524   4.645
58415SOL     OW77083   7.545   9.358   3.035
58415SOL    HW177084   7.566   9.308   3.114
58415SOL    HW277085   7.452   9.342   3.021
58416SOL     OW77086  12.691   9.881   9.683
58416SOL    HW177087  12.596   9.871   9.691
58416SOL    HW277088  12.718   9.920   9.766
58417SOL     OW77089   9.840   3.948   4.500
58417SOL    HW177090   9.795   4.029   4.478
58417SOL    HW277091   9.855   3.954   4.594
58418SOL     OW77092   7.492  11.573   1.112
58418SOL    HW177093   7.440  11.521   1.052
58418SOL    HW277094   7.442  11.654   1.124
58419SOL     OW77095  13.079  12.319  12.648
58419SOL    HW177096  13.077  12.340  12.554
58419SOL    HW277097  13.025  12.241  12.656
58420SOL     OW77098   7.697   0.037   5.572
58420SOL    HW177099   7.718  14.821   5.586
58420SOL    HW277100   7.726   0.055   5.483
58421SOL     OW77101   6.066   1.930   0.025
58421SOL    HW177102   6.090   1.838   0.014
58421SOL    HW277103   6.150   1.976   0.032
58422SOL     OW77104   0.235   2.180   4.520
58422SOL    HW177105   0.324   2.216   4.520
58422SOL    HW277106   0.179   2.254   4.498
58423SOL     OW77107   0.470  13.017   2.867
58423SOL    HW177108   0.536  13.075   2.903
58423SOL    HW277109   0.495  13.004   2.776
58424SOL     OW77110   3.970   6.025   1.719
58424SOL    HW177111   3.888   6.039   1.671
58424SOL    HW277112   3.950   6.054   1.808
58425SOL     OW77113   6.429   0.092   3.169
58425SOL    HW177114   6.350   0.040   3.157
58425SOL    HW277115   6.497   0.044   3.122
58426SOL     OW77116   2.051  13.297  10.050
58426SOL    HW177117   1.963  13.263  10.063
58426SOL    HW277118   2.088  13.243   9.980
58427SOL     OW77119   3.018  13.751   2.326
58427SOL    HW177120   3.039  13.804   2.403
58427SOL    HW277121   3.045  13.805   2.251
58428SOL     OW77122   2.817   1.610   5.255
58428SOL    HW177123   2.804   1.664   5.333
58428SOL    HW277124   2.898   1.644   5.216
58429SOL     OW77125  13.055   0.472   8.570
58429SOL    HW177126  13.069   0.450   8.662
58429SOL    HW277127  13.117   0.416   8.523
58430SOL     OW77128   0.160   5.652   5.176
58430SOL    HW177129   0.123   5.575   5.220
58430SOL    HW277130   0.193   5.619   5.093
58431SOL     OW77131   5.221  12.968   0.099
58431SOL    HW177132   5.203  13.061   0.117
58431SOL    HW277133   5.276  12.969   0.021
58432SOL     OW77134   9.798   2.296   1.210
58432SOL    HW177135   9.770   2.385   1.230
58432SOL    HW277136   9.849   2.268   1.286
58433SOL     OW77137   6.128  11.353   3.263
58433SOL    HW177138   6.157  11.373   3.352
58433SOL    HW277139   6.178  11.412   3.207
58434SOL     OW77140   0.342  12.866   3.519
58434SOL    HW177141   0.371  12.777   3.499
58434SOL    HW277142   0.284  12.889   3.446
58435SOL     OW77143   7.902  10.517  12.470
58435SOL    HW177144   7.945  10.451  12.524
58435SOL    HW277145   7.826  10.472  12.432
58436SOL     OW77146  12.852   1.290   7.534
58436SOL    HW177147  12.860   1.208   7.485
58436SOL    HW277148  12.770   1.328   7.503
58437SOL     OW77149   5.495   2.343   1.569
58437SOL    HW177150   5.504   2.251   1.594
58437SOL    HW277151   5.584   2.373   1.551
58438SOL     OW77152   6.770   1.559   0.314
58438SOL    HW177153   6.820   1.493   0.266
58438SOL    HW277154   6.808   1.559   0.402
58439SOL     OW77155   3.641  12.725  11.153
58439SOL    HW177156   3.594  12.647  11.182
58439SOL    HW277157   3.731  12.695  11.140
58440SOL     OW77158   5.932   2.383  13.760
58440SOL    HW177159   6.015   2.382  13.806
58440SOL    HW277160   5.955   2.366  13.668
58441SOL     OW77161   5.452   4.977   0.196
58441SOL    HW177162   5.473   4.955   0.105
58441SOL    HW277163   5.372   4.929   0.215
58442SOL     OW77164   1.189   3.818  14.189
58442SOL    HW177165   1.197   3.783  14.278
58442SOL    HW277166   1.151   3.747  14.138
58443SOL     OW77167   6.415   3.370  11.059
58443SOL    HW177168   6.482   3.413  11.006
58443SOL    HW277169   6.455   3.359  11.145
58444SOL     OW77170  13.342  13.978   1.794
58444SOL    HW177171  13.358  14.061   1.749
58444SOL    HW277172  13.428  13.940   1.807
58445SOL     OW77173   4.312   0.616  13.455
58445SOL    HW177174   4.403   0.623  13.484
58445SOL    HW277175   4.276   0.545  13.508
58446SOL     OW77176  10.623   0.405   0.298
58446SOL    HW177177  10.677   0.380   0.373
58446SOL    HW277178  10.681   0.458   0.243
58447SOL     OW77179   3.428   9.997   3.344
58447SOL    HW177180   3.377  10.076   3.358
58447SOL    HW277181   3.509  10.028   3.303
58448SOL     OW77182   9.722   8.112  13.182
58448SOL    HW177183   9.745   8.204  13.193
58448SOL    HW277184   9.721   8.077  13.271
58449SOL     OW77185   9.699   5.462   1.419
58449SOL    HW177186   9.693   5.409   1.340
58449SOL    HW277187   9.792   5.478   1.431
58450SOL     OW77188   8.042   1.423  13.247
58450SOL    HW177189   7.972   1.410  13.183
58450SOL    HW277190   8.088   1.502  13.217
58451SOL     OW77191   9.067   5.453   0.744
58451SOL    HW177192   9.089   5.380   0.687
58451SOL    HW277193   8.996   5.421   0.799
58452SOL     OW77194  11.321  11.947   5.892
58452SOL    HW177195  11.387  11.886   5.926
58452SOL    HW277196  11.369  12.027   5.873
58453SOL     OW77197  11.116   8.246   2.413
58453SOL    HW177198  11.094   8.337   2.431
58453SOL    HW277199  11.208   8.247   2.388
58454SOL     OW77200   2.202   6.280   5.741
58454SOL    HW177201   2.195   6.375   5.733
58454SOL    HW277202   2.287   6.258   5.702
58455SOL     OW77203  10.341   5.109  11.311
58455SOL    HW177204  10.310   5.023  11.337
58455SOL    HW277205  10.264   5.152  11.273
58456SOL     OW77206   0.740  12.918   0.809
58456SOL    HW177207   0.725  12.826   0.828
58456SOL    HW277208   0.657  12.950   0.775
58457SOL     OW77209   0.828   6.173   5.869
58457SOL    HW177210   0.801   6.121   5.793
58457SOL    HW277211   0.758   6.158   5.934
58458SOL     OW77212   8.028  12.803   3.217
58458SOL    HW177213   8.067  12.883   3.254
58458SOL    HW277214   8.029  12.818   3.122
58459SOL     OW77215  10.806  11.542  10.562
58459SOL    HW177216  10.764  11.573  10.642
58459SOL    HW277217  10.887  11.592  10.555
58460SOL     OW77218  11.092   2.291   1.410
58460SOL    HW177219  11.066   2.312   1.500
58460SOL    HW277220  11.154   2.219   1.420
58461SOL     OW77221   0.990   9.529   0.350
58461SOL    HW177222   0.961   9.602   0.294
58461SOL    HW277223   1.001   9.568   0.436
58462SOL     OW77224   2.605   0.468   8.946
58462SOL    HW177225   2.521   0.483   8.903
58462SOL    HW277226   2.627   0.377   8.924
58463SOL     OW77227   6.828   5.444  10.797
58463SOL    HW177228   6.893   5.503  10.758
58463SOL    HW277229   6.816   5.476  10.886
58464SOL     OW77230   9.692   5.511  14.736
58464SOL    HW177231   9.651   5.532  14.820
58464SOL    HW277232   9.719   5.595  14.700
58465SOL     OW77233   0.358   1.486   5.495
58465SOL    HW177234   0.292   1.531   5.549
58465SOL    HW277235   0.439   1.493   5.545
58466SOL     OW77236  12.196  13.348   7.827
58466SOL    HW177237  12.287  13.320   7.835
58466SOL    HW277238  12.149  13.270   7.798
58467SOL     OW77239   0.926   6.889  12.500
58467SOL    HW177240   0.971   6.972  12.484
58467SOL    HW277241   0.939   6.871  12.593
58468SOL     OW77242   5.676   2.728  10.230
58468SOL    HW177243   5.581   2.731  10.220
58468SOL    HW277244   5.697   2.806  10.280
58469SOL     OW77245  13.568  14.299   2.357
58469SOL    HW177246  13.636  14.232   2.359
58469SOL    HW277247  13.587  14.350   2.278
58470SOL     OW77248   5.564  13.391   4.709
58470SOL    HW177249   5.552  13.360   4.619
58470SOL    HW277250   5.655  13.370   4.729
58471SOL     OW77251   4.411   2.568   9.058
58471SOL    HW177252   4.325   2.598   9.028
58471SOL    HW277253   4.407   2.576   9.153
58472SOL     OW77254   3.209  10.117   6.138
58472SOL    HW177255   3.135  10.083   6.088
58472SOL    HW277256   3.216  10.208   6.112
58473SOL     OW77257   6.961   5.409   1.851
58473SOL    HW177258   6.906   5.487   1.846
58473SOL    HW277259   6.913   5.350   1.909
58474SOL     OW77260  13.132  11.384   1.346
58474SOL    HW177261  13.181  11.302   1.342
58474SOL    HW277262  13.074  11.381   1.270
58475SOL     OW77263  13.806   5.331  10.912
58475SOL    HW177264  13.891   5.328  10.869
58475SOL    HW277265  13.818   5.392  10.985
58476SOL     OW77266   8.535   0.981   1.837
58476SOL    HW177267   8.584   0.962   1.917
58476SOL    HW277268   8.470   1.047   1.863
58477SOL     OW77269   6.935   8.881  10.344
58477SOL    HW177270   6.980   8.850  10.422
58477SOL    HW277271   7.002   8.879  10.275
58478SOL     OW77272  10.906   2.195  12.729
58478SOL    HW177273  10.895   2.193  12.634
58478SOL    HW277274  10.999   2.175  12.742
58479SOL     OW77275   7.853   1.460   1.366
58479SOL    HW177276   7.758   1.465   1.357
58479SOL    HW277277   7.883   1.424   1.282
58480SOL     OW77278   9.612   6.308  12.519
58480SOL    HW177279   9.662   6.237  12.478
58480SOL    HW277280   9.632   6.300  12.612
58481SOL     OW77281  11.696  12.428  13.498
58481SOL    HW177282  11.749  12.493  13.451
58481SOL    HW277283  11.611  12.430  13.453
58482SOL     OW77284   3.182   6.869  10.677
58482SOL    HW177285   3.239   6.794  10.658
58482SOL    HW277286   3.124   6.874  10.602
58483SOL     OW77287   9.726  14.412   2.352
58483SOL    HW177288   9.740  14.375   2.265
58483SOL    HW277289   9.814  14.430   2.385
58484SOL     OW77290   6.785   0.677   3.432
58484SOL    HW177291   6.766   0.623   3.355
58484SOL    HW277292   6.843   0.746   3.399
58485SOL     OW77293   1.619  14.779  13.860
58485SOL    HW177294   1.628  14.694  13.904
58485SOL    HW277295   1.709  14.802  13.837
58486SOL     OW77296  13.248   0.345   9.621
58486SOL    HW177297  13.243   0.358   9.716
58486SOL    HW277298  13.286   0.258   9.611
58487SOL     OW77299  10.654   8.586   1.486
58487SOL    HW177300  10.562   8.584   1.513
58487SOL    HW277301  10.662   8.513   1.425
58488SOL     OW77302  13.466   1.253   8.658
58488SOL    HW177303  13.514   1.336   8.662
58488SOL    HW277304  13.534   1.188   8.639
58489SOL     OW77305   5.294  13.050  10.297
58489SOL    HW177306   5.292  13.135  10.342
58489SOL    HW277307   5.381  13.047  10.256
58490SOL     OW77308   1.133  11.281   6.783
58490SOL    HW177309   1.187  11.330   6.844
58490SOL    HW277310   1.182  11.201   6.766
58491SOL     OW77311  10.658   4.514   0.757
58491SOL    HW177312  10.641   4.568   0.679
58491SOL    HW277313  10.743   4.544   0.788
58492SOL     OW77314   1.808   6.751  11.303
58492SOL    HW177315   1.880   6.814  11.308
58492SOL    HW277316   1.848   6.671  11.268
58493SOL     OW77317   1.614   2.958   5.935
58493SOL    HW177318   1.526   2.977   5.967
58493SOL    HW277319   1.668   3.030   5.968
58494SOL     OW77320   5.715   7.769  10.603
58494SOL    HW177321   5.688   7.782  10.512
58494SOL    HW277322   5.809   7.757  10.599
58495SOL     OW77323  11.890  11.597  10.319
58495SOL    HW177324  11.900  11.515  10.270
58495SOL    HW277325  11.944  11.660  10.271
58496SOL     OW77326   3.841   0.141  13.439
58496SOL    HW177327   3.791   0.174  13.514
58496SOL    HW277328   3.917   0.099  13.479
58497SOL     OW77329  14.146   9.123  13.548
58497SOL    HW177330  14.188   9.087  13.470
58497SOL    HW277331  14.119   9.211  13.522
58498SOL     OW77332   8.608  11.966  12.152
58498SOL    HW177333   8.596  12.051  12.194
58498SOL    HW277334   8.665  11.918  12.212
58499SOL     OW77335  14.061   7.447  12.202
58499SOL    HW177336  13.997   7.379  12.181
58499SOL    HW277337  14.047   7.515  12.136
58500SOL     OW77338  11.597   7.069   9.952
58500SOL    HW177339  11.586   7.014  10.029
58500SOL    HW277340  11.692   7.078   9.942
58501SOL     OW77341   8.585   9.845   5.665
58501SOL    HW177342   8.677   9.865   5.646
58501SOL    HW277343   8.545   9.931   5.682
58502SOL     OW77344  10.429   8.079   4.633
58502SOL    HW177345  10.398   8.148   4.692
58502SOL    HW277346  10.519   8.062   4.662
58503SOL     OW77347   0.317   8.533   3.576
58503SOL    HW177348   0.258   8.460   3.592
58503SOL    HW277349   0.281   8.578   3.499
58504SOL     OW77350   7.737  11.606   5.639
58504SOL    HW177351   7.665  11.546   5.620
58504SOL    HW277352   7.738  11.666   5.564
58505SOL     OW77353   1.186   2.243   3.529
58505SOL    HW177354   1.165   2.177   3.462
58505SOL    HW277355   1.265   2.286   3.496
58506SOL     OW77356   1.584   5.989   9.679
58506SOL    HW177357   1.554   6.078   9.697
58506SOL    HW277358   1.620   5.993   9.591
58507SOL     OW77359  14.645   3.151  13.801
58507SOL    HW177360  14.650   3.074  13.745
58507SOL    HW277361  14.600   3.216  13.747
58508SOL     OW77362  12.102   6.432  10.448
58508SOL    HW177363  12.038   6.467  10.386
58508SOL    HW277364  12.155   6.509  10.473
58509SOL     OW77365   7.417   3.872  11.245
58509SOL    HW177366   7.480   3.933  11.208
58509SOL    HW277367   7.441   3.865  11.337
58510SOL     OW77368   6.220   1.797  12.811
58510SOL    HW177369   6.249   1.792  12.903
58510SOL    HW277370   6.192   1.888  12.800
58511SOL     OW77371   3.544   3.679   7.783
58511SOL    HW177372   3.633   3.665   7.749
58511SOL    HW277373   3.505   3.592   7.783
58512SOL     OW77374  14.591  10.948   8.714
58512SOL    HW177375  14.503  10.949   8.677
58512SOL    HW277376  14.622  10.859   8.700
58513SOL     OW77377  13.821  12.408  14.495
58513SOL    HW177378  13.913  12.394  14.470
58513SOL    HW277379  13.783  12.320  14.497
58514SOL     OW77380   8.580   0.906   6.839
58514SOL    HW177381   8.581   0.988   6.888
58514SOL    HW277382   8.513   0.853   6.882
58515SOL     OW77383   5.086   0.223   0.968
58515SOL    HW177384   5.075   0.145   1.022
58515SOL    HW277385   4.999   0.241   0.933
58516SOL     OW77386  11.500   4.594   7.319
58516SOL    HW177387  11.411   4.609   7.353
58516SOL    HW277388  11.529   4.681   7.290
58517SOL     OW77389   5.467   0.887   9.356
58517SOL    HW177390   5.459   0.810   9.299
58517SOL    HW277391   5.483   0.852   9.443
58518SOL     OW77392   6.700   2.026  10.514
58518SOL    HW177393   6.620   2.041  10.464
58518SOL    HW277394   6.729   1.939  10.489
58519SOL     OW77395   0.409   5.303  12.624
58519SOL    HW177396   0.351   5.281  12.551
58519SOL    HW277397   0.497   5.292  12.588
58520SOL     OW77398   1.018   9.340  13.441
58520SOL    HW177399   1.033   9.271  13.505
58520SOL    HW277400   0.965   9.405  13.487
58521SOL     OW77401   2.699  13.534   7.109
58521SOL    HW177402   2.662  13.498   7.190
58521SOL    HW277403   2.788  13.559   7.133
58522SOL     OW77404  10.412  12.152  10.440
58522SOL    HW177405  10.471  12.081  10.413
58522SOL    HW277406  10.346  12.156  10.370
58523SOL     OW77407   5.613   9.873  10.951
58523SOL    HW177408   5.644   9.934  10.884
58523SOL    HW277409   5.628   9.919  11.034
58524SOL     OW77410  12.371   3.369   8.620
58524SOL    HW177411  12.400   3.344   8.708
58524SOL    HW277412  12.276   3.370   8.625
58525SOL     OW77413   7.338   7.505   8.832
58525SOL    HW177414   7.308   7.414   8.830
58525SOL    HW277415   7.259   7.557   8.818
58526SOL     OW77416   5.125   5.114   5.771
58526SOL    HW177417   5.079   5.138   5.690
58526SOL    HW277418   5.126   5.195   5.822
58527SOL     OW77419   7.579  13.765  13.290
58527SOL    HW177420   7.549  13.722  13.210
58527SOL    HW277421   7.671  13.786  13.273
58528SOL     OW77422  13.487  14.439  14.195
58528SOL    HW177423  13.449  14.381  14.260
58528SOL    HW277424  13.426  14.513  14.190
58529SOL     OW77425   5.128   6.786  11.367
58529SOL    HW177426   5.172   6.845  11.428
58529SOL    HW277427   5.199   6.741  11.321
58530SOL     OW77428  12.122   8.551  13.225
58530SOL    HW177429  12.057   8.506  13.278
58530SOL    HW277430  12.178   8.596  13.288
58531SOL     OW77431   8.914   2.599   0.912
58531SOL    HW177432   8.823   2.581   0.890
58531SOL    HW277433   8.952   2.632   0.830
58532SOL     OW77434   0.272   1.940  13.376
58532SOL    HW177435   0.345   1.908  13.324
58532SOL    HW277436   0.194   1.905  13.333
58533SOL     OW77437   9.557  12.188  12.810
58533SOL    HW177438   9.492  12.194  12.880
58533SOL    HW277439   9.639  12.169  12.855
58534SOL     OW77440   2.555   4.559   7.678
58534SOL    HW177441   2.604   4.641   7.672
58534SOL    HW277442   2.609   4.495   7.633
58535SOL     OW77443   1.883   3.817  13.124
58535SOL    HW177444   1.934   3.824  13.205
58535SOL    HW277445   1.923   3.744  13.077
58536SOL     OW77446   3.997   8.653   7.924
58536SOL    HW177447   3.922   8.644   7.866
58536SOL    HW277448   4.059   8.586   7.894
58537SOL     OW77449   0.116   6.195   6.046
58537SOL    HW177450   0.101   6.182   5.952
58537SOL    HW277451   0.180   6.266   6.049
58538SOL     OW77452   9.985   6.440  10.957
58538SOL    HW177453  10.072   6.413  10.927
58538SOL    HW277454   9.934   6.449  10.877
58539SOL     OW77455   7.061   9.076  10.839
58539SOL    HW177456   6.995   9.079  10.769
58539SOL    HW277457   7.075   8.982  10.854
58540SOL     OW77458   4.146   0.384   2.603
58540SOL    HW177459   4.179   0.457   2.551
58540SOL    HW277460   4.067   0.355   2.557
58541SOL     OW77461   1.897   3.687   9.664
58541SOL    HW177462   1.822   3.745   9.646
58541SOL    HW277463   1.918   3.704   9.756
58542SOL     OW77464   2.908  12.798  14.123
58542SOL    HW177465   2.914  12.877  14.176
58542SOL    HW277466   2.863  12.735  14.179
58543SOL     OW77467   6.925  13.687  12.809
58543SOL    HW177468   6.885  13.607  12.841
58543SOL    HW277469   6.884  13.757  12.860
58544SOL     OW77470  14.775   4.957   1.069
58544SOL    HW177471  14.850   4.914   1.110
58544SOL    HW277472  14.701   4.900   1.091
58545SOL     OW77473  10.249   7.829   7.180
58545SOL    HW177474  10.295   7.745   7.190
58545SOL    HW277475  10.156   7.807   7.185
58546SOL     OW77476   3.410   1.327   3.107
58546SOL    HW177477   3.505   1.318   3.103
58546SOL    HW277478   3.390   1.332   3.201
58547SOL     OW77479  12.845   8.454   2.272
58547SOL    HW177480  12.892   8.486   2.196
58547SOL    HW277481  12.783   8.524   2.293
58548SOL     OW77482  13.758   2.408   1.504
58548SOL    HW177483  13.851   2.390   1.487
58548SOL    HW277484  13.758   2.464   1.582
58549SOL     OW77485  13.869   4.086   9.888
58549SOL    HW177486  13.821   4.111   9.967
58549SOL    HW277487  13.877   4.168   9.839
58550SOL     OW77488  13.440  12.672   1.279
58550SOL    HW177489  13.412  12.660   1.369
58550SOL    HW277490  13.508  12.739   1.283
58551SOL     OW77491   3.434  13.302  11.154
58551SOL    HW177492   3.372  13.359  11.200
58551SOL    HW277493   3.473  13.248  11.223
58552SOL     OW77494  10.843   4.697   9.108
58552SOL    HW177495  10.772   4.721   9.048
58552SOL    HW277496  10.897   4.636   9.058
58553SOL     OW77497   9.955   7.055   5.767
58553SOL    HW177498  10.000   7.133   5.736
58553SOL    HW277499   9.871   7.056   5.721
58554SOL     OW77500   0.881   8.267   3.110
58554SOL    HW177501   0.976   8.277   3.116
58554SOL    HW277502   0.847   8.308   3.190
58555SOL     OW77503  10.744   0.413   7.335
58555SOL    HW177504  10.661   0.416   7.382
58555SOL    HW277505  10.722   0.434   7.244
58556SOL     OW77506  14.527  10.101   7.890
58556SOL    HW177507  14.586  10.086   7.816
58556SOL    HW277508  14.570  10.168   7.942
58557SOL     OW77509   9.791   3.066   9.293
58557SOL    HW177510   9.883   3.049   9.314
58557SOL    HW277511   9.789   3.069   9.197
58558SOL     OW77512   8.042   9.512  11.679
58558SOL    HW177513   8.104   9.553  11.740
58558SOL    HW277514   8.096   9.454  11.625
58559SOL     OW77515  13.367  13.730   6.380
58559SOL    HW177516  13.349  13.646   6.340
58559SOL    HW277517  13.448  13.760   6.339
58560SOL     OW77518   1.421   8.703   6.365
58560SOL    HW177519   1.396   8.611   6.357
58560SOL    HW277520   1.449   8.729   6.277
58561SOL     OW77521  12.705   7.363  10.082
58561SOL    HW177522  12.619   7.339  10.047
58561SOL    HW277523  12.702   7.458  10.090
58562SOL     OW77524   1.058   5.301   2.982
58562SOL    HW177525   1.098   5.388   2.989
58562SOL    HW277526   0.965   5.319   2.966
58563SOL     OW77527   2.848   0.523   6.254
58563SOL    HW177528   2.790   0.517   6.330
58563SOL    HW277529   2.936   0.524   6.291
58564SOL     OW77530   5.539  13.201   7.440
58564SOL    HW177531   5.537  13.185   7.345
58564SOL    HW277532   5.469  13.263   7.456
58565SOL     OW77533   7.237   7.992   7.157
58565SOL    HW177534   7.179   7.917   7.140
58565SOL    HW277535   7.234   8.043   7.076
58566SOL     OW77536  11.777  14.239   5.637
58566SOL    HW177537  11.772  14.282   5.552
58566SOL    HW277538  11.743  14.151   5.622
58567SOL     OW77539   9.408   0.680   6.941
58567SOL    HW177540   9.379   0.719   6.858
58567SOL    HW277541   9.373   0.591   6.940
58568SOL     OW77542   3.399   9.984  11.766
58568SOL    HW177543   3.409   9.908  11.709
58568SOL    HW277544   3.483   9.992  11.811
58569SOL     OW77545   3.419   1.974   8.620
58569SOL    HW177546   3.335   2.021   8.617
58569SOL    HW277547   3.468   2.006   8.545
58570SOL     OW77548  10.934   3.312  14.042
58570SOL    HW177549  10.867   3.262  13.996
58570SOL    HW277550  10.939   3.395  13.996
58571SOL     OW77551   4.811   9.003  14.521
58571SOL    HW177552   4.892   8.973  14.562
58571SOL    HW277553   4.744   8.991  14.588
58572SOL     OW77554   1.153   6.090   9.258
58572SOL    HW177555   1.214   6.040   9.204
58572SOL    HW277556   1.203   6.116   9.335
58573SOL     OW77557  11.553  12.684  14.515
58573SOL    HW177558  11.459  12.704  14.515
58573SOL    HW277559  11.591  12.747  14.454
58574SOL     OW77560  12.699   2.087   2.713
58574SOL    HW177561  12.622   2.134   2.746
58574SOL    HW277562  12.710   2.119   2.623
58575SOL     OW77563   2.686   9.883   2.941
58575SOL    HW177564   2.680   9.912   2.850
58575SOL    HW277565   2.676   9.964   2.992
58576SOL     OW77566   7.546   9.767   7.369
58576SOL    HW177567   7.498   9.691   7.401
58576SOL    HW277568   7.484   9.811   7.311
58577SOL     OW77569   3.827   0.248   4.575
58577SOL    HW177570   3.848   0.283   4.662
58577SOL    HW277571   3.854   0.156   4.579
58578SOL     OW77572   7.232  10.248  10.463
58578SOL    HW177573   7.250  10.242  10.557
58578SOL    HW277574   7.136  10.241  10.458
58579SOL     OW77575  11.036   9.019   0.201
58579SOL    HW177576  11.110   9.004   0.259
58579SOL    HW277577  11.044   8.950   0.134
58580SOL     OW77578   4.797  10.333  13.931
58580SOL    HW177579   4.836  10.291  14.007
58580SOL    HW277580   4.773  10.261  13.872
58581SOL     OW77581  13.513   5.470   2.163
58581SOL    HW177582  13.587   5.454   2.104
58581SOL    HW277583  13.543   5.540   2.221
58582SOL     OW77584   9.184   5.428  13.786
58582SOL    HW177585   9.113   5.376  13.824
58582SOL    HW277586   9.262   5.401  13.835
58583SOL     OW77587   0.107   3.189  12.409
58583SOL    HW177588   0.088   3.147  12.493
58583SOL    HW277589   0.168   3.260  12.431
58584SOL     OW77590   7.206   9.900   6.486
58584SOL    HW177591   7.217   9.806   6.469
58584SOL    HW277592   7.113   9.916   6.470
58585SOL     OW77593   1.617   2.162  10.993
58585SOL    HW177594   1.657   2.174  10.907
58585SOL    HW277595   1.636   2.244  11.040
58586SOL     OW77596   9.085   4.300   5.119
58586SOL    HW177597   9.069   4.344   5.202
58586SOL    HW277598   9.076   4.369   5.053
58587SOL     OW77599   5.942   0.501   5.189
58587SOL    HW177600   5.892   0.419   5.187
58587SOL    HW277601   5.999   0.492   5.265
58588SOL     OW77602   9.090   7.754   7.862
58588SOL    HW177603   8.995   7.748   7.876
58588SOL    HW277604   9.128   7.710   7.938
58589SOL     OW77605  11.982   1.647   9.434
58589SOL    HW177606  12.054   1.659   9.372
58589SOL    HW277607  11.985   1.725   9.489
58590SOL     OW77608   9.533  10.190  12.985
58590SOL    HW177609   9.445  10.151  12.984
58590SOL    HW277610   9.522  10.274  12.940
58591SOL     OW77611  14.517  12.189   7.931
58591SOL    HW177612  14.548  12.279   7.945
58591SOL    HW277613  14.495  12.157   8.018
58592SOL     OW77614   9.955  12.165  11.724
58592SOL    HW177615   9.910  12.243  11.757
58592SOL    HW277616  10.024  12.199  11.668
58593SOL     OW77617   9.348  13.417  10.210
58593SOL    HW177618   9.342  13.445  10.301
58593SOL    HW277619   9.365  13.323  10.215
58594SOL     OW77620   9.742   9.716  11.356
58594SOL    HW177621   9.783   9.672  11.281
58594SOL    HW277622   9.670   9.766  11.317
58595SOL     OW77623  14.833   5.808   0.053
58595SOL    HW177624   0.023   5.803   0.122
58595SOL    HW277625  14.811   5.716   0.035
58596SOL     OW77626   5.620   9.587   3.020
58596SOL    HW177627   5.604   9.494   3.036
58596SOL    HW277628   5.701   9.606   3.067
58597SOL     OW77629   5.904   2.575  12.216
58597SOL    HW177630   5.927   2.665  12.193
58597SOL    HW277631   5.944   2.522  12.147
58598SOL     OW77632   7.122   2.220   8.578
58598SOL    HW177633   7.171   2.299   8.555
58598SOL    HW277634   7.056   2.250   8.641
58599SOL     OW77635  12.730   4.436  12.700
58599SOL    HW177636  12.693   4.359  12.656
58599SOL    HW277637  12.767   4.402  12.782
58600SOL     OW77638  12.775   5.877   7.421
58600SOL    HW177639  12.826   5.935   7.478
58600SOL    HW277640  12.748   5.934   7.349
58601SOL     OW77641   6.309   2.152  10.573
58601SOL    HW177642   6.332   2.244  10.563
58601SOL    HW277643   6.377   2.105  10.524
58602SOL     OW77644   9.746   0.012  11.202
58602SOL    HW177645   9.837   0.025  11.229
58602SOL    HW277646   9.739  14.795  11.183
58603SOL     OW77647   6.736   2.378   0.044
58603SOL    HW177648   6.674   2.404  14.852
58603SOL    HW277649   6.745   2.283   0.032
58604SOL     OW77650   0.093  10.023   7.593
58604SOL    HW177651   0.010   9.983   7.618
58604SOL    HW277652   0.079  10.052   7.503
58605SOL     OW77653   2.433   7.310   0.438
58605SOL    HW177654   2.363   7.247   0.459
58605SOL    HW277655   2.513   7.258   0.443
58606SOL     OW77656   0.008   3.366   0.399
58606SOL    HW177657   0.031   3.434   0.462
58606SOL    HW277658  14.794   3.388   0.373
58607SOL     OW77659  11.877   7.034  14.526
58607SOL    HW177660  11.878   7.128  14.507
58607SOL    HW277661  11.804   7.022  14.587
58608SOL     OW77662   4.026  10.540   2.647
58608SOL    HW177663   3.950  10.590   2.620
58608SOL    HW277664   3.994  10.485   2.719
58609SOL     OW77665   6.231   2.960   0.644
58609SOL    HW177666   6.211   2.890   0.581
58609SOL    HW277667   6.150   2.969   0.695
58610SOL     OW77668  10.641  14.871  11.026
58610SOL    HW177669  10.699  14.810  10.981
58610SOL    HW277670  10.564   0.001  10.970
58611SOL     OW77671   4.004   4.414  11.787
58611SOL    HW177672   3.916   4.448  11.805
58611SOL    HW277673   4.038   4.390  11.873
58612SOL     OW77674   3.216   7.460  12.056
58612SOL    HW177675   3.266   7.470  11.975
58612SOL    HW277676   3.265   7.395  12.107
58613SOL     OW77677   8.432   8.777   1.491
58613SOL    HW177678   8.345   8.741   1.513
58613SOL    HW277679   8.430   8.785   1.396
58614SOL     OW77680   4.436   1.459   1.299
58614SOL    HW177681   4.446   1.550   1.329
58614SOL    HW277682   4.522   1.436   1.264
58615SOL     OW77683   7.432   3.292   2.303
58615SOL    HW177684   7.465   3.290   2.214
58615SOL    HW277685   7.493   3.236   2.352
58616SOL     OW77686  13.808  11.203   9.492
58616SOL    HW177687  13.719  11.202   9.526
58616SOL    HW277688  13.803  11.254   9.411
58617SOL     OW77689   0.917   7.416   9.120
58617SOL    HW177690   0.935   7.360   9.196
58617SOL    HW277691   0.824   7.406   9.104
58618SOL     OW77692   4.933  13.275   8.691
58618SOL    HW177693   5.016  13.290   8.646
58618SOL    HW277694   4.944  13.190   8.734
58619SOL     OW77695   0.803   0.050   4.800
58619SOL    HW177696   0.877   0.004   4.841
58619SOL    HW277697   0.755   0.088   4.874
58620SOL     OW77698  10.388  13.354   4.904
58620SOL    HW177699  10.377  13.413   4.830
58620SOL    HW277700  10.480  13.362   4.929
58621SOL     OW77701  13.441   4.407   5.399
58621SOL    HW177702  13.531   4.396   5.368
58621SOL    HW277703  13.391   4.344   5.348
58622SOL     OW77704   5.421   5.407   2.748
58622SOL    HW177705   5.373   5.328   2.724
58622SOL    HW277706   5.363   5.479   2.721
58623SOL     OW77707  14.589  12.456   7.936
58623SOL    HW177708  14.649  12.494   7.872
58623SOL    HW277709  14.507  12.505   7.924
58624SOL     OW77710   2.221  13.549   7.292
58624SOL    HW177711   2.126  13.545   7.304
58624SOL    HW277712   2.232  13.557   7.197
58625SOL     OW77713   6.477   0.693   8.864
58625SOL    HW177714   6.410   0.695   8.932
58625SOL    HW277715   6.520   0.779   8.869
58626SOL     OW77716   5.453   0.334  13.788
58626SOL    HW177717   5.415   0.365  13.706
58626SOL    HW277718   5.378   0.316  13.845
58627SOL     OW77719   6.037   9.074   8.893
58627SOL    HW177720   6.028   9.004   8.828
58627SOL    HW277721   6.090   9.035   8.962
58628SOL     OW77722   3.312  10.437  14.720
58628SOL    HW177723   3.337  10.374  14.652
58628SOL    HW277724   3.371  10.511  14.707
58629SOL     OW77725   3.697   2.095  12.233
58629SOL    HW177726   3.753   2.025  12.198
58629SOL    HW277727   3.621   2.049  12.268
58630SOL     OW77728   6.024   5.034   3.120
58630SOL    HW177729   5.998   5.113   3.167
58630SOL    HW277730   6.062   5.066   3.039
58631SOL     OW77731   1.586   0.160  13.780
58631SOL    HW177732   1.576   0.071  13.812
58631SOL    HW277733   1.594   0.214  13.859
58632SOL     OW77734   7.892  13.824  13.260
58632SOL    HW177735   7.942  13.781  13.330
58632SOL    HW277736   7.896  13.762  13.187
58633SOL     OW77737  12.001   9.421  13.967
58633SOL    HW177738  11.941   9.393  13.898
58633SOL    HW277739  12.028   9.509  13.942
58634SOL     OW77740  12.858  11.177   1.404
58634SOL    HW177741  12.911  11.146   1.477
58634SOL    HW277742  12.916  11.233   1.353
58635SOL     OW77743   4.292  10.126   3.544
58635SOL    HW177744   4.205  10.166   3.556
58635SOL    HW277745   4.283  10.038   3.579
58636SOL     OW77746   1.054   3.724   8.300
58636SOL    HW177747   1.059   3.669   8.378
58636SOL    HW277748   1.066   3.813   8.332
58637SOL     OW77749   9.488   4.917  12.521
58637SOL    HW177750   9.546   4.924  12.445
58637SOL    HW277751   9.518   4.839  12.567
58638SOL     OW77752   4.756   9.244  14.089
58638SOL    HW177753   4.664   9.269  14.077
58638SOL    HW277754   4.778   9.199  14.007
58639SOL     OW77755   7.032   6.027   0.381
58639SOL    HW177756   6.989   6.112   0.385
58639SOL    HW277757   6.963   5.967   0.351
58640SOL     OW77758  13.026   5.211   1.504
58640SOL    HW177759  13.110   5.257   1.512
58640SOL    HW277760  12.968   5.256   1.565
58641SOL     OW77761   4.045  14.537  13.848
58641SOL    HW177762   4.097  14.464  13.883
58641SOL    HW277763   3.974  14.495  13.801
58642SOL     OW77764  10.819   3.760  12.303
58642SOL    HW177765  10.771   3.786  12.224
58642SOL    HW277766  10.865   3.840  12.330
58643SOL     OW77767   2.005  12.338  12.725
58643SOL    HW177768   1.926  12.369  12.767
58643SOL    HW277769   1.983  12.332  12.632
58644SOL     OW77770   0.052   9.822   1.834
58644SOL    HW177771   0.117   9.861   1.892
58644SOL    HW277772   0.053   9.729   1.856
58645SOL     OW77773   7.604   5.409  12.461
58645SOL    HW177774   7.670   5.474  12.483
58645SOL    HW277775   7.570   5.437  12.376
58646SOL     OW77776   7.483   7.246  12.123
58646SOL    HW177777   7.443   7.268  12.038
58646SOL    HW277778   7.464   7.321  12.179
58647SOL     OW77779   6.499   3.952   3.960
58647SOL    HW177780   6.563   4.013   3.996
58647SOL    HW277781   6.552   3.884   3.918
58648SOL     OW77782   2.648  10.131   5.810
58648SOL    HW177783   2.676  10.200   5.751
58648SOL    HW277784   2.678  10.159   5.896
58649SOL     OW77785  12.225   9.808   9.475
58649SOL    HW177786  12.216   9.903   9.465
58649SOL    HW277787  12.143   9.772   9.440
58650SOL     OW77788  12.530   6.235   2.155
58650SOL    HW177789  12.584   6.164   2.189
58650SOL    HW277790  12.590   6.287   2.101
58651SOL     OW77791   3.031   8.018  13.695
58651SOL    HW177792   2.984   8.087  13.742
58651SOL    HW277793   3.123   8.035  13.714
58652SOL     OW77794  14.057  14.069   7.800
58652SOL    HW177795  13.969  14.048   7.770
58652SOL    HW277796  14.114  14.038   7.730
58653SOL     OW77797  13.605   2.837   7.531
58653SOL    HW177798  13.610   2.757   7.478
58653SOL    HW277799  13.521   2.876   7.508
58654SOL     OW77800   7.608   2.529  14.807
58654SOL    HW177801   7.564   2.580  14.875
58654SOL    HW277802   7.577   2.440  14.819
58655SOL     OW77803   7.618   9.047  12.746
58655SOL    HW177804   7.655   8.961  12.725
58655SOL    HW277805   7.588   9.082  12.662
58656SOL     OW77806  11.415  10.493  13.887
58656SOL    HW177807  11.422  10.582  13.922
58656SOL    HW277808  11.322  10.472  13.894
58657SOL     OW77809  13.429   7.696   6.746
58657SOL    HW177810  13.506   7.662   6.701
58657SOL    HW277811  13.448   7.789   6.759
58658SOL     OW77812  13.991  14.741  11.402
58658SOL    HW177813  13.909  14.787  11.383
58658SOL    HW277814  14.059  14.795  11.363
58659SOL     OW77815   7.493  11.062   1.895
58659SOL    HW177816   7.457  11.145   1.863
58659SOL    HW277817   7.587  11.080   1.907
58660SOL     OW77818  10.554   6.831   9.388
58660SOL    HW177819  10.526   6.921   9.405
58660SOL    HW277820  10.625   6.815   9.450
58661SOL     OW77821  13.464   5.552   6.272
58661SOL    HW177822  13.410   5.540   6.194
58661SOL    HW277823  13.538   5.605   6.243
58662SOL     OW77824  11.544   3.584   2.945
58662SOL    HW177825  11.486   3.542   3.009
58662SOL    HW277826  11.554   3.674   2.977
58663SOL     OW77827   3.367  12.867   4.450
58663SOL    HW177828   3.318  12.880   4.531
58663SOL    HW277829   3.319  12.798   4.404
58664SOL     OW77830   0.946   6.227  10.600
58664SOL    HW177831   0.961   6.317  10.570
58664SOL    HW277832   0.851   6.218  10.603
58665SOL     OW77833   7.182   8.694   9.747
58665SOL    HW177834   7.257   8.641   9.721
58665SOL    HW277835   7.122   8.632   9.788
58666SOL     OW77836   4.983   1.656  14.522
58666SOL    HW177837   4.896   1.651  14.482
58666SOL    HW277838   4.966   1.653  14.616
58667SOL     OW77839   2.473  12.052   9.395
58667SOL    HW177840   2.483  12.018   9.484
58667SOL    HW277841   2.380  12.043   9.376
58668SOL     OW77842  12.710   8.957   5.911
58668SOL    HW177843  12.615   8.956   5.901
58668SOL    HW277844  12.732   9.049   5.921
58669SOL     OW77845   4.515   9.267  10.386
58669SOL    HW177846   4.427   9.305  10.393
58669SOL    HW277847   4.566   9.332  10.337
58670SOL     OW77848  14.626   7.752   8.949
58670SOL    HW177849  14.658   7.675   8.901
58670SOL    HW277850  14.536   7.731   8.971
58671SOL     OW77851  13.649  11.476  14.436
58671SOL    HW177852  13.634  11.410  14.504
58671SOL    HW277853  13.580  11.459  14.371
58672SOL     OW77854   5.200  13.894   3.114
58672SOL    HW177855   5.266  13.960   3.133
58672SOL    HW277856   5.201  13.836   3.189
58673SOL     OW77857  10.124   2.138   6.402
58673SOL    HW177858  10.080   2.054   6.393
58673SOL    HW277859  10.074   2.185   6.468
58674SOL     OW77860   5.262  11.318   4.849
58674SOL    HW177861   5.326  11.277   4.791
58674SOL    HW277862   5.179  11.276   4.825
58675SOL     OW77863   7.700  11.601  14.164
58675SOL    HW177864   7.795  11.600  14.149
58675SOL    HW277865   7.690  11.647  14.247
58676SOL     OW77866  10.057   6.846  13.082
58676SOL    HW177867  10.104   6.926  13.107
58676SOL    HW277868   9.982   6.843  13.142
58677SOL     OW77869   3.801  12.184   3.087
58677SOL    HW177870   3.747  12.261   3.074
58677SOL    HW277871   3.755  12.132   3.153
58678SOL     OW77872   6.849  14.079   0.469
58678SOL    HW177873   6.876  14.081   0.377
58678SOL    HW277874   6.879  14.163   0.505
58679SOL     OW77875  13.581   7.172   0.524
58679SOL    HW177876  13.639   7.096   0.516
58679SOL    HW277877  13.616   7.222   0.597
58680SOL     OW77878   5.644   3.476  14.161
58680SOL    HW177879   5.700   3.419  14.109
58680SOL    HW277880   5.610   3.419  14.230
58681SOL     OW77881   2.209   7.358  12.588
58681SOL    HW177882   2.129   7.357  12.535
58681SOL    HW277883   2.273   7.403  12.534
58682SOL     OW77884   7.752   0.798  12.017
58682SOL    HW177885   7.771   0.875  11.962
58682SOL    HW277886   7.837   0.774  12.054
58683SOL     OW77887   4.680  11.544  12.109
58683SOL    HW177888   4.749  11.478  12.102
58683SOL    HW277889   4.725  11.627  12.095
58684SOL     OW77890   2.026   7.716   6.287
58684SOL    HW177891   1.944   7.741   6.331
58684SOL    HW277892   2.012   7.739   6.196
58685SOL     OW77893   2.277   4.860   2.585
58685SOL    HW177894   2.238   4.775   2.603
58685SOL    HW277895   2.204   4.922   2.586
58686SOL     OW77896   4.646   2.515   3.780
58686SOL    HW177897   4.732   2.474   3.768
58686SOL    HW277898   4.587   2.464   3.725
58687SOL     OW77899   6.369   5.351   2.460
58687SOL    HW177900   6.428   5.328   2.532
58687SOL    HW277901   6.403   5.303   2.385
58688SOL     OW77902   1.407  14.513  11.642
58688SOL    HW177903   1.473  14.575  11.612
58688SOL    HW277904   1.419  14.508  11.736
58689SOL     OW77905   1.890   4.785   6.969
58689SOL    HW177906   1.869   4.809   6.878
58689SOL    HW277907   1.923   4.696   6.963
58690SOL     OW77908   1.700   7.400  13.513
58690SOL    HW177909   1.626   7.368  13.565
58690SOL    HW277910   1.665   7.415  13.426
58691SOL     OW77911  14.759   0.683   1.359
58691SOL    HW177912  14.751   0.778   1.364
58691SOL    HW277913  14.848   0.667   1.329
58692SOL     OW77914   6.291  10.604   1.220
58692SOL    HW177915   6.345  10.680   1.196
58692SOL    HW277916   6.244  10.631   1.298
58693SOL     OW77917   1.347   2.108   8.650
58693SOL    HW177918   1.371   2.025   8.690
58693SOL    HW277919   1.325   2.086   8.560
58694SOL     OW77920  10.641  14.163  12.684
58694SOL    HW177921  10.628  14.253  12.713
58694SOL    HW277922  10.722  14.136  12.727
58695SOL     OW77923   4.378   2.327   3.862
58695SOL    HW177924   4.348   2.240   3.835
58695SOL    HW277925   4.382   2.376   3.780
58696SOL     OW77926   0.960  14.805  10.746
58696SOL    HW177927   0.896  14.869  10.778
58696SOL    HW277928   0.911  14.723  10.741
58697SOL     OW77929  11.110  10.279   6.045
58697SOL    HW177930  11.199  10.247   6.031
58697SOL    HW277931  11.121  10.351   6.108
58698SOL     OW77932  14.837   3.683  11.676
58698SOL    HW177933  14.796   3.645  11.753
58698SOL    HW277934  14.776   3.751  11.647
58699SOL     OW77935  13.454   6.086   9.516
58699SOL    HW177936  13.369   6.092   9.560
58699SOL    HW277937  13.471   5.992   9.509
58700SOL     OW77938  10.047   9.538   0.010
58700SOL    HW177939  10.126   9.571  14.844
58700SOL    HW277940  10.065   9.445   0.025
58701SOL     OW77941   6.407  11.310   1.355
58701SOL    HW177942   6.496  11.298   1.321
58701SOL    HW277943   6.415  11.381   1.419
58702SOL     OW77944   9.777  11.325   1.015
58702SOL    HW177945   9.718  11.332   1.090
58702SOL    HW277946   9.823  11.409   1.014
58703SOL     OW77947   1.038   7.333   1.726
58703SOL    HW177948   1.055   7.420   1.690
58703SOL    HW277949   1.124   7.298   1.747
58704SOL     OW77950   7.385   2.971   9.710
58704SOL    HW177951   7.389   3.046   9.769
58704SOL    HW277952   7.343   3.005   9.630
58705SOL     OW77953   1.477  14.252  11.702
58705SOL    HW177954   1.544  14.266  11.768
58705SOL    HW277955   1.444  14.340  11.681
58706SOL     OW77956   6.137  10.280   8.744
58706SOL    HW177957   6.217  10.331   8.763
58706SOL    HW277958   6.069  10.346   8.731
58707SOL     OW77959   7.435  14.236  14.084
58707SOL    HW177960   7.394  14.236  13.997
58707SOL    HW277961   7.417  14.323  14.119
58708SOL     OW77962  12.403  10.811  13.257
58708SOL    HW177963  12.434  10.851  13.176
58708SOL    HW277964  12.309  10.802  13.245
58709SOL     OW77965   6.371   3.925   0.409
58709SOL    HW177966   6.353   3.832   0.422
58709SOL    HW277967   6.443   3.944   0.470
58710SOL     OW77968   8.511   4.810   6.152
58710SOL    HW177969   8.583   4.779   6.097
58710SOL    HW277970   8.504   4.903   6.132
58711SOL     OW77971   0.900  11.084  12.657
58711SOL    HW177972   0.954  11.130  12.721
58711SOL    HW277973   0.817  11.131  12.658
58712SOL     OW77974  10.527  12.975   2.262
58712SOL    HW177975  10.568  12.902   2.215
58712SOL    HW277976  10.548  13.052   2.210
58713SOL     OW77977   8.034   5.192   6.009
58713SOL    HW177978   8.089   5.203   5.932
58713SOL    HW277979   7.958   5.143   5.977
58714SOL     OW77980  10.163   7.846   9.065
58714SOL    HW177981  10.168   7.750   9.062
58714SOL    HW277982  10.220   7.870   9.138
58715SOL     OW77983   8.555  12.198  12.647
58715SOL    HW177984   8.563  12.289  12.677
58715SOL    HW277985   8.645  12.172  12.626
58716SOL     OW77986   9.360   4.878   4.664
58716SOL    HW177987   9.324   4.950   4.716
58716SOL    HW277988   9.287   4.817   4.654
58717SOL     OW77989  11.910  10.154   7.486
58717SOL    HW177990  11.934  10.237   7.444
58717SOL    HW277991  11.982  10.135   7.545
58718SOL     OW77992   3.985  11.358   5.977
58718SOL    HW177993   3.940  11.405   5.907
58718SOL    HW277994   4.069  11.332   5.938
58719SOL     OW77995  11.370   3.736   9.792
58719SOL    HW177996  11.449   3.779   9.826
58719SOL    HW277997  11.403   3.664   9.738
58720SOL     OW77998  14.762  12.876  13.479
58720SOL    HW177999  14.719  12.834  13.553
58720SOL    HW278000  14.752  12.970  13.496
58721SOL     OW78001  10.675   2.056  13.175
58721SOL    HW178002  10.749   2.103  13.138
58721SOL    HW278003  10.623   2.029  13.100
58722SOL     OW78004   4.566   9.609   9.425
58722SOL    HW178005   4.611   9.539   9.378
58722SOL    HW278006   4.634   9.673   9.445
58723SOL     OW78007   9.727   6.312   9.628
58723SOL    HW178008   9.713   6.256   9.552
58723SOL    HW278009   9.725   6.252   9.703
58724SOL     OW78010   0.590  13.899   6.356
58724SOL    HW178011   0.556  13.810   6.349
58724SOL    HW278012   0.685  13.888   6.366
58725SOL     OW78013  13.624   4.057  12.044
58725SOL    HW178014  13.561   4.004  12.094
58725SOL    HW278015  13.657   4.121  12.107
58726SOL     OW78016   2.854   3.630   1.958
58726SOL    HW178017   2.945   3.612   1.982
58726SOL    HW278018   2.848   3.605   1.865
58727SOL     OW78019  13.067  14.688   9.889
58727SOL    HW178020  13.004  14.760   9.884
58727SOL    HW278021  13.148  14.729   9.918
58728SOL     OW78022   6.389  13.016   7.878
58728SOL    HW178023   6.476  13.055   7.893
58728SOL    HW278024   6.354  13.064   7.803
58729SOL     OW78025   8.044  14.408   2.590
58729SOL    HW178026   8.132  14.433   2.560
58729SOL    HW278027   7.990  14.485   2.573
58730SOL     OW78028   8.043  14.536   2.892
58730SOL    HW178029   7.967  14.480   2.879
58730SOL    HW278030   8.049  14.588   2.812
58731SOL     OW78031   6.261   2.303   5.347
58731SOL    HW178032   6.322   2.327   5.418
58731SOL    HW278033   6.312   2.315   5.267
58732SOL     OW78034   7.286   3.244   7.250
58732SOL    HW178035   7.263   3.293   7.171
58732SOL    HW278036   7.208   3.252   7.306
58733SOL     OW78037   7.060   5.126   0.317
58733SOL    HW178038   7.056   5.104   0.224
58733SOL    HW278039   7.153   5.138   0.335
58734SOL     OW78040  14.431   9.274   1.606
58734SOL    HW178041  14.479   9.353   1.631
58734SOL    HW278042  14.426   9.223   1.687
58735SOL     OW78043  13.887  14.188   7.495
58735SOL    HW178044  13.979  14.172   7.519
58735SOL    HW278045  13.882  14.164   7.402
58736SOL     OW78046  12.598   4.986  13.780
58736SOL    HW178047  12.666   5.052  13.792
58736SOL    HW278048  12.518   5.037  13.767
58737SOL     OW78049   8.101  11.715  14.564
58737SOL    HW178050   8.036  11.735  14.631
58737SOL    HW278051   8.178  11.686  14.614
58738SOL     OW78052  12.442   3.743   8.768
58738SOL    HW178053  12.429   3.753   8.862
58738SOL    HW278054  12.366   3.694   8.738
58739SOL     OW78055   4.817   4.419  10.196
58739SOL    HW178056   4.913   4.411  10.191
58739SOL    HW278057   4.787   4.328  10.206
58740SOL     OW78058   2.602   8.698   4.689
58740SOL    HW178059   2.620   8.767   4.625
58740SOL    HW278060   2.508   8.706   4.706
58741SOL     OW78061   0.887   8.275   1.637
58741SOL    HW178062   0.896   8.364   1.603
58741SOL    HW278063   0.935   8.275   1.719
58742SOL     OW78064  13.522  12.341   4.280
58742SOL    HW178065  13.450  12.391   4.241
58742SOL    HW278066  13.509  12.351   4.374
58743SOL     OW78067   4.516   4.476   0.391
58743SOL    HW178068   4.558   4.532   0.456
58743SOL    HW278069   4.584   4.414   0.366
58744SOL     OW78070   8.991   3.177   6.317
58744SOL    HW178071   8.944   3.247   6.362
58744SOL    HW278072   8.951   3.173   6.230
58745SOL     OW78073   9.480  10.643  14.166
58745SOL    HW178074   9.417  10.693  14.218
58745SOL    HW278075   9.523  10.709  14.111
58746SOL     OW78076  10.405   7.006   0.030
58746SOL    HW178077  10.387   6.938   0.095
58746SOL    HW278078  10.409   6.959  14.823
58747SOL     OW78079   8.072  11.683   7.331
58747SOL    HW178080   8.008  11.703   7.399
58747SOL    HW278081   8.026  11.700   7.249
58748SOL     OW78082   8.624   7.546  13.358
58748SOL    HW178083   8.709   7.515  13.327
58748SOL    HW278084   8.580   7.468  13.391
58749SOL     OW78085   0.628   6.956   3.126
58749SOL    HW178086   0.568   6.971   3.054
58749SOL    HW278087   0.713   6.941   3.084
58750SOL     OW78088   7.882   7.270   3.478
58750SOL    HW178089   7.915   7.191   3.522
58750SOL    HW278090   7.838   7.319   3.548
58751SOL     OW78091   3.823  13.282   2.291
58751SOL    HW178092   3.817  13.372   2.322
58751SOL    HW278093   3.815  13.228   2.370
58752SOL     OW78094   9.283   5.295   3.462
58752SOL    HW178095   9.367   5.340   3.458
58752SOL    HW278096   9.229   5.339   3.396
58753SOL     OW78097  10.891   8.326   7.810
58753SOL    HW178098  10.808   8.356   7.848
58753SOL    HW278099  10.866   8.265   7.741
58754SOL     OW78100   4.132   7.718   3.605
58754SOL    HW178101   4.192   7.730   3.531
58754SOL    HW278102   4.114   7.807   3.636
58755SOL     OW78103   5.987   0.188  11.059
58755SOL    HW178104   6.060   0.144  11.103
58755SOL    HW278105   5.911   0.169  11.114
58756SOL     OW78106   7.182  14.138   9.907
58756SOL    HW178107   7.142  14.098   9.830
58756SOL    HW278108   7.145  14.225   9.913
58757SOL     OW78109  14.382   2.465   2.234
58757SOL    HW178110  14.351   2.477   2.324
58757SOL    HW278111  14.371   2.551   2.193
58758SOL     OW78112   6.313  14.514   3.747
58758SOL    HW178113   6.388  14.460   3.773
58758SOL    HW278114   6.286  14.559   3.827
58759SOL     OW78115   5.911   9.871   8.693
58759SOL    HW178116   5.825   9.877   8.735
58759SOL    HW278117   5.896   9.901   8.604
58760SOL     OW78118   7.368  13.032   9.378
58760SOL    HW178119   7.339  13.008   9.290
58760SOL    HW278120   7.402  12.950   9.415
58761SOL     OW78121   6.486  12.449   3.181
58761SOL    HW178122   6.433  12.450   3.102
58761SOL    HW278123   6.472  12.535   3.221
58762SOL     OW78124  12.299   0.012   1.466
58762SOL    HW178125  12.335  14.815   1.516
58762SOL    HW278126  12.249   0.063   1.529
58763SOL     OW78127   9.500   9.586  13.079
58763SOL    HW178128   9.427   9.647  13.086
58763SOL    HW278129   9.577   9.640  13.097
58764SOL     OW78130  14.346  10.469  13.086
58764SOL    HW178131  14.337  10.451  13.180
58764SOL    HW278132  14.429  10.427  13.062
58765SOL     OW78133  13.718   0.258  14.429
58765SOL    HW178134  13.691   0.328  14.489
58765SOL    HW278135  13.777   0.203  14.481
58766SOL     OW78136   4.662  14.188   9.024
58766SOL    HW178137   4.682  14.278   9.001
58766SOL    HW278138   4.747  14.145   9.029
58767SOL     OW78139   0.093   2.215   6.771
58767SOL    HW178140   0.073   2.227   6.864
58767SOL    HW278141   0.097   2.304   6.736
58768SOL     OW78142  13.996  11.664   6.784
58768SOL    HW178143  13.993  11.610   6.705
58768SOL    HW278144  14.079  11.640   6.826
58769SOL     OW78145  12.019  10.372   3.031
58769SOL    HW178146  11.952  10.368   3.100
58769SOL    HW278147  11.987  10.439   2.970
58770SOL     OW78148   5.730   3.719  14.199
58770SOL    HW178149   5.702   3.628  14.193
58770SOL    HW278150   5.649   3.769  14.203
58771SOL     OW78151  14.813   0.566   3.099
58771SOL    HW178152  14.823   0.480   3.141
58771SOL    HW278153  14.866   0.560   3.019
58772SOL     OW78154   1.954   8.148  12.199
58772SOL    HW178155   1.994   8.155  12.285
58772SOL    HW278156   1.915   8.234  12.182
58773SOL     OW78157  10.296   7.710   0.630
58773SOL    HW178158  10.339   7.787   0.666
58773SOL    HW278159  10.367   7.646   0.620
58774SOL     OW78160   2.854  14.868  11.738
58774SOL    HW178161   2.927  14.818  11.703
58774SOL    HW278162   2.790  14.802  11.766
58775SOL     OW78163   3.835   7.401   9.282
58775SOL    HW178164   3.822   7.382   9.374
58775SOL    HW278165   3.914   7.353   9.258
58776SOL     OW78166   1.327  12.120   6.788
58776SOL    HW178167   1.254  12.149   6.843
58776SOL    HW278168   1.377  12.200   6.771
58777SOL     OW78169   6.298   4.414   5.658
58777SOL    HW178170   6.261   4.350   5.596
58777SOL    HW278171   6.351   4.361   5.717
58778SOL     OW78172   6.304   8.537   8.801
58778SOL    HW178173   6.379   8.518   8.858
58778SOL    HW278174   6.231   8.550   8.862
58779SOL     OW78175   9.658   0.672  10.031
58779SOL    HW178176   9.704   0.636  10.107
58779SOL    HW278177   9.686   0.764  10.027
58780SOL     OW78178  14.649  12.770   1.383
58780SOL    HW178179  14.602  12.713   1.322
58780SOL    HW278180  14.740  12.767   1.353
58781SOL     OW78181  14.344   3.936   2.864
58781SOL    HW178182  14.424   3.954   2.915
58781SOL    HW278183  14.376   3.900   2.782
58782SOL     OW78184   5.402   3.555   3.993
58782SOL    HW178185   5.483   3.507   4.010
58782SOL    HW278186   5.371   3.521   3.909
58783SOL     OW78187   6.337   8.150   1.188
58783SOL    HW178188   6.334   8.147   1.284
58783SOL    HW278189   6.271   8.087   1.160
58784SOL     OW78190   7.717  13.434   6.196
58784SOL    HW178191   7.676  13.351   6.174
58784SOL    HW278192   7.790  13.411   6.252
58785SOL     OW78193   4.014  10.516  13.239
58785SOL    HW178194   3.949  10.517  13.170
58785SOL    HW278195   4.077  10.449  13.212
58786SOL     OW78196  11.211   8.325   3.433
58786SOL    HW178197  11.120   8.297   3.433
58786SOL    HW278198  11.261   8.243   3.431
58787SOL     OW78199   9.094  13.171   7.722
58787SOL    HW178200   9.052  13.106   7.778
58787SOL    HW278201   9.075  13.255   7.764
58788SOL     OW78202  12.310  13.992   1.225
58788SOL    HW178203  12.340  14.018   1.312
58788SOL    HW278204  12.292  14.075   1.181
58789SOL     OW78205   5.409  11.703   6.719
58789SOL    HW178206   5.407  11.723   6.626
58789SOL    HW278207   5.433  11.611   6.724
58790SOL     OW78208   4.748  10.759   1.384
58790SOL    HW178209   4.732  10.677   1.431
58790SOL    HW278210   4.801  10.733   1.309
58791SOL     OW78211  12.942   1.182  11.866
58791SOL    HW178212  12.970   1.215  11.781
58791SOL    HW278213  12.997   1.229  11.929
58792SOL     OW78214  10.411   9.315   4.109
58792SOL    HW178215  10.469   9.311   4.032
58792SOL    HW278216  10.326   9.343   4.073
58793SOL     OW78217   7.853   9.449   5.623
58793SOL    HW178218   7.920   9.514   5.600
58793SOL    HW278219   7.812   9.426   5.540
58794SOL     OW78220  12.641  13.703   3.138
58794SOL    HW178221  12.564  13.646   3.139
58794SOL    HW278222  12.619  13.771   3.074
58795SOL     OW78223   8.613   4.398   6.153
58795SOL    HW178224   8.667   4.391   6.232
58795SOL    HW278225   8.593   4.307   6.130
58796SOL     OW78226   8.462  10.825   0.246
58796SOL    HW178227   8.422  10.909   0.222
58796SOL    HW278228   8.388  10.765   0.255
58797SOL     OW78229   6.562   3.521   0.296
58797SOL    HW178230   6.581   3.572   0.217
58797SOL    HW278231   6.481   3.559   0.330
58798SOL     OW78232   6.087   5.735   7.290
58798SOL    HW178233   6.136   5.814   7.271
58798SOL    HW278234   5.995   5.762   7.286
58799SOL     OW78235   3.515   5.387   0.979
58799SOL    HW178236   3.561   5.460   1.019
58799SOL    HW278237   3.573   5.357   0.909
58800SOL     OW78238  10.427   4.018  12.596
58800SOL    HW178239  10.507   4.027  12.543
58800SOL    HW278240  10.426   3.926  12.623
58801SOL     OW78241   5.181   2.369   3.718
58801SOL    HW178242   5.255   2.377   3.778
58801SOL    HW278243   5.120   2.310   3.764
58802SOL     OW78244   9.358   7.346  14.413
58802SOL    HW178245   9.384   7.394  14.334
58802SOL    HW278246   9.351   7.255  14.384
58803SOL     OW78247   4.695  11.354   0.902
58803SOL    HW178248   4.689  11.259   0.897
58803SOL    HW278249   4.765  11.370   0.966
58804SOL     OW78250   8.221   1.616   4.610
58804SOL    HW178251   8.136   1.571   4.607
58804SOL    HW278252   8.221   1.673   4.533
58805SOL     OW78253   3.012  14.385   6.051
58805SOL    HW178254   2.960  14.439   5.992
58805SOL    HW278255   3.035  14.442   6.124
58806SOL     OW78256  12.762   9.137  14.099
58806SOL    HW178257  12.779   9.231  14.099
58806SOL    HW278258  12.849   9.097  14.104
58807SOL     OW78259  14.128   0.149   4.254
58807SOL    HW178260  14.097   0.209   4.322
58807SOL    HW278261  14.223   0.152   4.260
58808SOL     OW78262   2.504   6.000  10.893
58808SOL    HW178263   2.425   5.973  10.938
58808SOL    HW278264   2.479   6.079  10.845
58809SOL     OW78265   3.020   6.059   7.758
58809SOL    HW178266   3.008   5.995   7.688
58809SOL    HW278267   3.055   6.137   7.713
58810SOL     OW78268   7.237   8.309   8.375
58810SOL    HW178269   7.212   8.220   8.351
58810SOL    HW278270   7.238   8.310   8.470
58811SOL     OW78271  13.455  11.194  12.157
58811SOL    HW178272  13.381  11.143  12.123
58811SOL    HW278273  13.502  11.132  12.213
58812SOL     OW78274   0.019   0.655   8.953
58812SOL    HW178275  14.801   0.647   8.942
58812SOL    HW278276   0.034   0.644   9.047
58813SOL     OW78277   6.407   1.681  13.778
58813SOL    HW178278   6.457   1.636  13.846
58813SOL    HW278279   6.411   1.622  13.702
58814SOL     OW78280  10.682   1.115   1.906
58814SOL    HW178281  10.641   1.033   1.877
58814SOL    HW278282  10.617   1.183   1.887
58815SOL     OW78283  10.941  10.367   0.382
58815SOL    HW178284  10.913  10.339   0.469
58815SOL    HW278285  11.033  10.389   0.392
58816SOL     OW78286   6.070  14.243   8.188
58816SOL    HW178287   6.112  14.272   8.269
58816SOL    HW278288   6.033  14.322   8.150
58817SOL     OW78289  13.489  14.583   2.671
58817SOL    HW178290  13.432  14.658   2.689
58817SOL    HW278291  13.578  14.617   2.678
58818SOL     OW78292  12.970  14.343  13.450
58818SOL    HW178293  13.028  14.270  13.431
58818SOL    HW278294  12.889  14.302  13.481
58819SOL     OW78295  11.400  11.214   9.503
58819SOL    HW178296  11.310  11.216   9.537
58819SOL    HW278297  11.399  11.144   9.437
58820SOL     OW78298   8.009   2.230   8.043
58820SOL    HW178299   8.056   2.307   8.073
58820SOL    HW278300   7.917   2.256   8.044
58821SOL     OW78301   4.441  14.863  13.975
58821SOL    HW178302   4.502   0.048  13.934
58821SOL    HW278303   4.468  14.777  13.944
58822SOL     OW78304   3.161   2.911   3.560
58822SOL    HW178305   3.198   2.912   3.648
58822SOL    HW278306   3.208   2.840   3.515
58823SOL     OW78307  13.703   2.440   9.541
58823SOL    HW178308  13.755   2.512   9.579
58823SOL    HW278309  13.649   2.409   9.613
58824SOL     OW78310   4.537   5.078  13.706
58824SOL    HW178311   4.599   5.129  13.653
58824SOL    HW278312   4.590   5.007  13.743
58825SOL     OW78313   3.110  10.333  12.488
58825SOL    HW178314   3.199  10.348  12.521
58825SOL    HW278315   3.062  10.298  12.564
58826SOL     OW78316   2.471   7.763   8.016
58826SOL    HW178317   2.467   7.859   8.015
58826SOL    HW278318   2.564   7.743   8.027
58827SOL     OW78319   5.049  13.293   1.490
58827SOL    HW178320   5.125  13.280   1.435
58827SOL    HW278321   5.074  13.256   1.575
58828SOL     OW78322  13.763   2.936   8.636
58828SOL    HW178323  13.787   2.925   8.544
58828SOL    HW278324  13.743   2.848   8.666
58829SOL     OW78325  13.165   4.662  12.765
58829SOL    HW178326  13.088   4.636  12.713
58829SOL    HW278327  13.159   4.609  12.844
58830SOL     OW78328   3.490   1.151   2.411
58830SOL    HW178329   3.422   1.107   2.360
58830SOL    HW278330   3.558   1.085   2.424
58831SOL     OW78331   4.433   6.410   3.852
58831SOL    HW178332   4.419   6.502   3.877
58831SOL    HW278333   4.496   6.377   3.916
58832SOL     OW78334   5.646  11.862   3.944
58832SOL    HW178335   5.575  11.871   4.008
58832SOL    HW278336   5.726  11.866   3.996
58833SOL     OW78337   0.823   2.661   7.017
58833SOL    HW178338   0.758   2.706   6.963
58833SOL    HW278339   0.775   2.590   7.058
58834SOL     OW78340   7.728   5.444   4.527
58834SOL    HW178341   7.793   5.375   4.541
58834SOL    HW278342   7.770   5.523   4.561
58835SOL     OW78343  11.838  10.344   4.621
58835SOL    HW178344  11.808  10.431   4.595
58835SOL    HW278345  11.758  10.296   4.643
58836SOL     OW78346   5.683   3.840   3.206
58836SOL    HW178347   5.702   3.931   3.184
58836SOL    HW278348   5.748   3.817   3.273
58837SOL     OW78349   7.346   9.948  11.250
58837SOL    HW178350   7.428   9.959  11.297
58837SOL    HW278351   7.297   9.885  11.302
58838SOL     OW78352  11.006  10.667   6.780
58838SOL    HW178353  10.922  10.667   6.826
58838SOL    HW278354  11.058  10.602   6.827
58839SOL     OW78355  14.862   4.581   6.788
58839SOL    HW178356  14.850   4.550   6.877
58839SOL    HW278357  14.837   4.507   6.733
58840SOL     OW78358   7.085   0.464   5.643
58840SOL    HW178359   7.037   0.445   5.562
58840SOL    HW278360   7.166   0.412   5.636
58841SOL     OW78361   0.351   0.873   5.357
58841SOL    HW178362   0.304   0.794   5.384
58841SOL    HW278363   0.283   0.939   5.348
58842SOL     OW78364  13.024   1.485  10.998
58842SOL    HW178365  13.040   1.543  11.072
58842SOL    HW278366  13.054   1.534  10.922
58843SOL     OW78367   4.955   2.892   2.238
58843SOL    HW178368   4.997   2.861   2.318
58843SOL    HW278369   4.880   2.943   2.268
58844SOL     OW78370   2.753   9.699  10.254
58844SOL    HW178371   2.796   9.735  10.332
58844SOL    HW278372   2.750   9.604  10.271
58845SOL     OW78373   0.829   7.794  13.119
58845SOL    HW178374   0.909   7.744  13.105
58845SOL    HW278375   0.797   7.813  13.030
58846SOL     OW78376   2.740   0.683  14.590
58846SOL    HW178377   2.742   0.724  14.504
58846SOL    HW278378   2.692   0.745  14.645
58847SOL     OW78379   7.552   7.152   4.057
58847SOL    HW178380   7.554   7.063   4.022
58847SOL    HW278381   7.463   7.182   4.040
58848SOL     OW78382  10.710   5.075   8.793
58848SOL    HW178383  10.717   5.126   8.712
58848SOL    HW278384  10.801   5.059   8.819
58849SOL     OW78385   0.531  11.480   9.845
58849SOL    HW178386   0.566  11.508   9.930
58849SOL    HW278387   0.527  11.560   9.793
58850SOL     OW78388   2.735  10.270   8.004
58850SOL    HW178389   2.692  10.210   7.943
58850SOL    HW278390   2.827  10.268   7.979
58851SOL     OW78391   2.556  11.573  12.396
58851SOL    HW178392   2.509  11.584  12.314
58851SOL    HW278393   2.636  11.624  12.385
58852SOL     OW78394   8.508  14.682   5.378
58852SOL    HW178395   8.491  14.668   5.284
58852SOL    HW278396   8.542  14.598   5.408
58853SOL     OW78397  13.123  13.305   8.840
58853SOL    HW178398  13.158  13.264   8.919
58853SOL    HW278399  13.195  13.357   8.806
58854SOL     OW78400  11.195   2.457  11.774
58854SOL    HW178401  11.234   2.382  11.729
58854SOL    HW278402  11.103   2.454  11.750
58855SOL     OW78403   3.082   2.484   0.996
58855SOL    HW178404   3.008   2.508   1.053
58855SOL    HW278405   3.098   2.562   0.943
58856SOL     OW78406  11.646   7.545  10.759
58856SOL    HW178407  11.624   7.455  10.734
58856SOL    HW278408  11.723   7.536  10.815
58857SOL     OW78409   1.983   1.540  12.420
58857SOL    HW178410   2.047   1.567  12.354
58857SOL    HW278411   1.907   1.597  12.405
58858SOL     OW78412   9.157   8.319   1.894
58858SOL    HW178413   9.064   8.333   1.912
58858SOL    HW278414   9.202   8.368   1.963
58859SOL     OW78415   3.971   2.678   4.111
58859SOL    HW178416   3.970   2.582   4.105
58859SOL    HW278417   4.055   2.698   4.152
58860SOL     OW78418   0.677   9.614  12.197
58860SOL    HW178419   0.715   9.650  12.277
58860SOL    HW278420   0.734   9.541  12.174
58861SOL     OW78421   6.498   2.831   5.540
58861SOL    HW178422   6.455   2.783   5.469
58861SOL    HW278423   6.454   2.800   5.619
58862SOL     OW78424   0.755  12.338   3.832
58862SOL    HW178425   0.757  12.352   3.738
58862SOL    HW278426   0.662  12.339   3.855
58863SOL     OW78427   9.850   2.905  12.208
58863SOL    HW178428   9.843   3.000  12.207
58863SOL    HW278429   9.807   2.876  12.128
58864SOL     OW78430   7.071   7.350  12.093
58864SOL    HW178431   7.045   7.434  12.129
58864SOL    HW278432   7.063   7.289  12.166
58865SOL     OW78433   4.289   1.152   0.820
58865SOL    HW178434   4.345   1.218   0.861
58865SOL    HW278435   4.207   1.155   0.870
58866SOL     OW78436  12.525  14.089   9.284
58866SOL    HW178437  12.483  14.123   9.363
58866SOL    HW278438  12.616  14.117   9.291
58867SOL     OW78439   1.585   5.124  12.138
58867SOL    HW178440   1.549   5.100  12.223
58867SOL    HW278441   1.642   5.050  12.115
58868SOL     OW78442  11.513  13.966   5.022
58868SOL    HW178443  11.469  13.971   4.937
58868SOL    HW278444  11.490  13.879   5.056
58869SOL     OW78445   4.800   4.330   7.747
58869SOL    HW178446   4.893   4.310   7.755
58869SOL    HW278447   4.756   4.263   7.800
58870SOL     OW78448   3.425   9.180  14.747
58870SOL    HW178449   3.423   9.164  14.653
58870SOL    HW278450   3.382   9.265  14.758
58871SOL     OW78451   4.770   2.548  12.430
58871SOL    HW178452   4.787   2.458  12.455
58871SOL    HW278453   4.846   2.574  12.379
58872SOL     OW78454   6.873   2.475   1.167
58872SOL    HW178455   6.803   2.535   1.142
58872SOL    HW278456   6.829   2.390   1.174
58873SOL     OW78457   1.740   7.722   6.363
58873SOL    HW178458   1.719   7.793   6.302
58873SOL    HW278459   1.656   7.678   6.378
58874SOL     OW78460   5.851   5.506   5.992
58874SOL    HW178461   5.829   5.586   6.042
58874SOL    HW278462   5.845   5.533   5.901
58875SOL     OW78463  12.682  14.698  10.846
58875SOL    HW178464  12.679  14.666  10.937
58875SOL    HW278465  12.591  14.718  10.825
58876SOL     OW78466   3.036  12.051  11.832
58876SOL    HW178467   3.110  12.111  11.836
58876SOL    HW278468   3.054  11.986  11.899
58877SOL     OW78469  11.386  13.303  13.634
58877SOL    HW178470  11.302  13.262  13.653
58877SOL    HW278471  11.426  13.315  13.720
58878SOL     OW78472   6.589   4.386  12.060
58878SOL    HW178473   6.572   4.400  12.153
58878SOL    HW278474   6.619   4.472  12.028
58879SOL     OW78475  12.758   0.959  10.713
58879SOL    HW178476  12.713   1.038  10.744
58879SOL    HW278477  12.851   0.979  10.723
58880SOL     OW78478  13.425   6.397  10.680
58880SOL    HW178479  13.397   6.468  10.737
58880SOL    HW278480  13.464   6.333  10.739
58881SOL     OW78481   3.210  13.653   5.179
58881SOL    HW178482   3.266  13.730   5.168
58881SOL    HW278483   3.268  13.586   5.214
58882SOL     OW78484   3.009   1.865   0.879
58882SOL    HW178485   2.940   1.932   0.876
58882SOL    HW278486   3.044   1.871   0.968
58883SOL     OW78487  14.507   5.440   2.243
58883SOL    HW178488  14.503   5.479   2.330
58883SOL    HW278489  14.461   5.502   2.186
58884SOL     OW78490   4.994  13.474  14.116
58884SOL    HW178491   4.962  13.391  14.080
58884SOL    HW278492   4.957  13.541  14.059
58885SOL     OW78493   9.893  12.764  14.473
58885SOL    HW178494   9.849  12.711  14.406
58885SOL    HW278495   9.927  12.840  14.426
58886SOL     OW78496  12.388  12.520   6.547
58886SOL    HW178497  12.345  12.602   6.573
58886SOL    HW278498  12.369  12.460   6.619
58887SOL     OW78499   2.900   4.618  13.164
58887SOL    HW178500   2.833   4.607  13.231
58887SOL    HW278501   2.873   4.696  13.115
58888SOL     OW78502   0.469  13.321  10.569
58888SOL    HW178503   0.481  13.243  10.622
58888SOL    HW278504   0.378  13.318  10.540
58889SOL     OW78505   8.476   3.694   6.916
58889SOL    HW178506   8.534   3.717   6.843
58889SOL    HW278507   8.395   3.667   6.874
58890SOL     OW78508  12.365  13.921  14.564
58890SOL    HW178509  12.380  13.828  14.580
58890SOL    HW278510  12.314  13.923  14.483
58891SOL     OW78511   2.631  11.513   6.269
58891SOL    HW178512   2.661  11.488   6.357
58891SOL    HW278513   2.568  11.445   6.246
58892SOL     OW78514  12.442   2.277   4.644
58892SOL    HW178515  12.468   2.359   4.688
58892SOL    HW278516  12.375   2.304   4.581
58893SOL     OW78517   7.498  13.446   4.043
58893SOL    HW178518   7.490  13.373   4.104
58893SOL    HW278519   7.558  13.507   4.087
58894SOL     OW78520   6.790  12.086   2.779
58894SOL    HW178521   6.863  12.060   2.722
58894SOL    HW278522   6.829  12.099   2.865
58895SOL     OW78523   3.997  12.277  14.380
58895SOL    HW178524   3.983  12.335  14.455
58895SOL    HW278525   4.092  12.271  14.371
58896SOL     OW78526   3.765   7.366   9.021
58896SOL    HW178527   3.787   7.454   8.992
58896SOL    HW278528   3.765   7.371   9.117
58897SOL     OW78529  12.654   8.801   2.748
58897SOL    HW178530  12.608   8.853   2.681
58897SOL    HW278531  12.744   8.834   2.746
58898SOL     OW78532   5.489   2.201  13.059
58898SOL    HW178533   5.537   2.233  12.982
58898SOL    HW278534   5.423   2.142  13.023
58899SOL     OW78535   9.434  11.738   0.982
58899SOL    HW178536   9.450  11.652   0.943
58899SOL    HW278537   9.368  11.722   1.049
58900SOL     OW78538  14.739   7.894   8.243
58900SOL    HW178539  14.653   7.852   8.235
58900SOL    HW278540  14.771   7.868   8.329
58901SOL     OW78541  11.255   8.903   9.623
58901SOL    HW178542  11.322   8.925   9.559
58901SOL    HW278543  11.220   8.987   9.652
58902SOL     OW78544  12.985  11.362   0.277
58902SOL    HW178545  12.952  11.272   0.274
58902SOL    HW278546  12.913  11.416   0.247
58903SOL     OW78547   4.166   5.115   6.683
58903SOL    HW178548   4.131   5.076   6.603
58903SOL    HW278549   4.202   5.199   6.655
58904SOL     OW78550   7.495  13.583   6.546
58904SOL    HW178551   7.520  13.657   6.601
58904SOL    HW278552   7.512  13.612   6.456
58905SOL     OW78553  11.397   0.216   5.165
58905SOL    HW178554  11.356   0.133   5.142
58905SOL    HW278555  11.329   0.265   5.212
58906SOL     OW78556   5.993  10.021   7.004
58906SOL    HW178557   5.941  10.101   6.998
58906SOL    HW278558   5.930   9.950   6.992
58907SOL     OW78559  12.415  11.824   6.644
58907SOL    HW178560  12.325  11.793   6.632
58907SOL    HW278561  12.406  11.914   6.672
58908SOL     OW78562   1.814  13.023   4.128
58908SOL    HW178563   1.786  13.065   4.210
58908SOL    HW278564   1.738  12.970   4.102
58909SOL     OW78565   6.609  10.377   8.976
58909SOL    HW178566   6.640  10.300   9.024
58909SOL    HW278567   6.640  10.451   9.028
58910SOL     OW78568  13.283  10.062  13.901
58910SOL    HW178569  13.372  10.032  13.883
58910SOL    HW278570  13.294  10.133  13.964
58911SOL     OW78571   8.876  11.990   4.477
58911SOL    HW178572   8.903  12.048   4.548
58911SOL    HW278573   8.855  12.049   4.405
58912SOL     OW78574   7.647   3.247  11.820
58912SOL    HW178575   7.615   3.159  11.797
58912SOL    HW278576   7.587   3.306  11.774
58913SOL     OW78577   5.843   5.901  10.401
58913SOL    HW178578   5.905   5.951  10.347
58913SOL    HW278579   5.898   5.856  10.465
58914SOL     OW78580  10.449  10.536   1.068
58914SOL    HW178581  10.499  10.576   1.139
58914SOL    HW278582  10.412  10.610   1.020
58915SOL     OW78583   5.615   9.498   8.727
58915SOL    HW178584   5.676   9.437   8.688
58915SOL    HW278585   5.555   9.443   8.778
58916SOL     OW78586   9.098   8.588   1.111
58916SOL    HW178587   9.182   8.550   1.139
58916SOL    HW278588   9.110   8.682   1.123
58917SOL     OW78589   0.734   7.796  14.266
58917SOL    HW178590   0.733   7.876  14.318
58917SOL    HW278591   0.759   7.825  14.178
58918SOL     OW78592   0.063  11.022   0.059
58918SOL    HW178593   0.068  11.029  14.840
58918SOL    HW278594   0.150  10.993   0.086
58919SOL     OW78595   9.637   6.732   8.968
58919SOL    HW178596   9.544   6.721   8.949
58919SOL    HW278597   9.651   6.827   8.971
58920SOL     OW78598  11.789  11.092   4.102
58920SOL    HW178599  11.768  11.185   4.091
58920SOL    HW278600  11.740  11.065   4.180
58921SOL     OW78601  12.932   4.171  13.245
58921SOL    HW178602  12.973   4.254  13.270
58921SOL    HW278603  12.901   4.134  13.328
58922SOL     OW78604   7.887   8.024   2.063
58922SOL    HW178605   7.898   8.105   2.114
58922SOL    HW278606   7.924   7.956   2.120
58923SOL     OW78607   3.527   5.095  11.569
58923SOL    HW178608   3.506   5.132  11.483
58923SOL    HW278609   3.531   5.001  11.554
58924SOL     OW78610  14.397   9.630   6.996
58924SOL    HW178611  14.451   9.627   6.917
58924SOL    HW278612  14.315   9.671   6.968
58925SOL     OW78613  10.761  14.656   7.264
58925SOL    HW178614  10.698  14.728   7.266
58925SOL    HW278615  10.832  14.688   7.209
58926SOL     OW78616  10.671   4.677   4.304
58926SOL    HW178617  10.761   4.664   4.331
58926SOL    HW278618  10.677   4.711   4.215
58927SOL     OW78619   0.793   9.692   0.865
58927SOL    HW178620   0.717   9.637   0.878
58927SOL    HW278621   0.769   9.776   0.905
58928SOL     OW78622   6.977   6.712   1.796
58928SOL    HW178623   6.924   6.643   1.756
58928SOL    HW278624   6.934   6.794   1.769
58929SOL     OW78625   3.536   9.180   5.904
58929SOL    HW178626   3.621   9.152   5.870
58929SOL    HW278627   3.553   9.200   5.996
58930SOL     OW78628  12.533   4.736   6.077
58930SOL    HW178629  12.536   4.826   6.110
58930SOL    HW278630  12.501   4.684   6.150
58931SOL     OW78631   8.158   4.209   0.023
58931SOL    HW178632   8.161   4.153   0.101
58931SOL    HW278633   8.173   4.149  14.826
58932SOL     OW78634   7.430   7.247   3.680
58932SOL    HW178635   7.389   7.307   3.741
58932SOL    HW278636   7.380   7.257   3.599
58933SOL     OW78637   5.769   1.168   6.293
58933SOL    HW178638   5.780   1.198   6.203
58933SOL    HW278639   5.679   1.135   6.297
58934SOL     OW78640   9.759  11.999   3.604
58934SOL    HW178641   9.706  12.078   3.617
58934SOL    HW278642   9.778  11.999   3.510
58935SOL     OW78643   5.468   2.829  10.030
58935SOL    HW178644   5.495   2.883  10.104
58935SOL    HW278645   5.456   2.741  10.067
58936SOL     OW78646   0.955   2.728   5.136
58936SOL    HW178647   0.921   2.664   5.074
58936SOL    HW278648   1.049   2.709   5.142
58937SOL     OW78649  11.776  13.516  10.793
58937SOL    HW178650  11.842  13.546  10.731
58937SOL    HW278651  11.701  13.573  10.777
58938SOL     OW78652  14.627  11.571  12.345
58938SOL    HW178653  14.580  11.566  12.428
58938SOL    HW278654  14.678  11.651  12.350
58939SOL     OW78655  12.478   2.820   8.458
58939SOL    HW178656  12.412   2.750   8.450
58939SOL    HW278657  12.461   2.877   8.383
58940SOL     OW78658   4.352  12.413   0.355
58940SOL    HW178659   4.389  12.432   0.442
58940SOL    HW278660   4.267  12.374   0.373
58941SOL     OW78661   8.826  12.864   8.470
58941SOL    HW178662   8.806  12.853   8.563
58941SOL    HW278663   8.895  12.930   8.468
58942SOL     OW78664   6.929   4.334   0.623
58942SOL    HW178665   6.837   4.310   0.624
58942SOL    HW278666   6.975   4.253   0.600
58943SOL     OW78667   9.023  14.280   8.089
58943SOL    HW178668   9.099  14.287   8.147
58943SOL    HW278669   9.001  14.370   8.067
58944SOL     OW78670   9.737   1.588  12.605
58944SOL    HW178671   9.653   1.575  12.650
58944SOL    HW278672   9.789   1.512  12.630
58945SOL     OW78673   4.378  13.722   3.425
58945SOL    HW178674   4.440  13.691   3.491
58945SOL    HW278675   4.419  13.801   3.390
58946SOL     OW78676   1.811   7.565  12.353
58946SOL    HW178677   1.827   7.502  12.423
58946SOL    HW278678   1.798   7.511  12.275
58947SOL     OW78679   9.781  12.217   2.823
58947SOL    HW178680   9.773  12.149   2.890
58947SOL    HW278681   9.704  12.206   2.768
58948SOL     OW78682   7.727  11.412   1.059
58948SOL    HW178683   7.744  11.427   0.966
58948SOL    HW278684   7.731  11.500   1.098
58949SOL     OW78685   7.878   5.047   8.836
58949SOL    HW178686   7.929   5.013   8.762
58949SOL    HW278687   7.864   4.971   8.893
58950SOL     OW78688   4.630   4.126   3.794
58950SOL    HW178689   4.677   4.197   3.749
58950SOL    HW278690   4.602   4.068   3.724
58951SOL     OW78691   8.901   0.240   2.035
58951SOL    HW178692   8.928   0.221   1.945
58951SOL    HW278693   8.910   0.334   2.043
58952SOL     OW78694  10.451  14.479  13.590
58952SOL    HW178695  10.463  14.487  13.684
58952SOL    HW278696  10.364  14.513  13.573
58953SOL     OW78697  13.902   3.025   9.962
58953SOL    HW178698  13.889   3.116   9.934
58953SOL    HW278699  13.946   3.031  10.047
58954SOL     OW78700   3.459  13.407   9.060
58954SOL    HW178701   3.520  13.480   9.075
58954SOL    HW278702   3.401  13.410   9.136
58955SOL     OW78703   6.919  10.127  10.587
58955SOL    HW178704   6.975  10.126  10.665
58955SOL    HW278705   6.831  10.107  10.621
58956SOL     OW78706   4.105  11.875   9.906
58956SOL    HW178707   4.066  11.893   9.820
58956SOL    HW278708   4.034  11.889   9.968
58957SOL     OW78709  12.661   7.986   3.790
58957SOL    HW178710  12.635   7.958   3.702
58957SOL    HW278711  12.749   8.022   3.779
58958SOL     OW78712   1.972  13.168  10.299
58958SOL    HW178713   1.938  13.119  10.224
58958SOL    HW278714   1.912  13.243  10.307
58959SOL     OW78715   1.990  11.581   7.312
58959SOL    HW178716   1.902  11.601   7.279
58959SOL    HW278717   2.039  11.554   7.234
58960SOL     OW78718  10.730   0.449  12.994
58960SOL    HW178719  10.707   0.535  12.960
58960SOL    HW278720  10.768   0.467  13.080
58961SOL     OW78721   2.073  12.708  12.440
58961SOL    HW178722   2.119  12.668  12.513
58961SOL    HW278723   2.141  12.721  12.373
58962SOL     OW78724   6.933   0.810   7.826
58962SOL    HW178725   6.912   0.824   7.734
58962SOL    HW278726   6.949   0.898   7.861
58963SOL     OW78727   9.988   9.652  13.240
58963SOL    HW178728  10.059   9.705  13.205
58963SOL    HW278729   9.975   9.583  13.174
58964SOL     OW78730  13.029  12.488   6.834
58964SOL    HW178731  13.063  12.532   6.756
58964SOL    HW278732  12.996  12.559   6.889
58965SOL     OW78733  11.904  10.214   3.695
58965SOL    HW178734  11.863  10.271   3.629
58965SOL    HW278735  11.881  10.125   3.666
58966SOL     OW78736   6.624   9.639   2.800
58966SOL    HW178737   6.569   9.672   2.729
58966SOL    HW278738   6.676   9.569   2.759
58967SOL     OW78739   0.856  13.285  11.885
58967SOL    HW178740   0.837  13.378  11.889
58967SOL    HW278741   0.836  13.252  11.973
58968SOL     OW78742  11.811  12.599  11.838
58968SOL    HW178743  11.752  12.524  11.839
58968SOL    HW278744  11.846  12.602  11.749
58969SOL     OW78745   2.581   4.751   4.469
58969SOL    HW178746   2.629   4.815   4.521
58969SOL    HW278747   2.538   4.802   4.401
58970SOL     OW78748   0.985   1.005  14.844
58970SOL    HW178749   0.913   1.045  14.796
58970SOL    HW278750   0.953   0.917  14.866
58971SOL     OW78751   8.859   8.483   1.480
58971SOL    HW178752   8.946   8.509   1.508
58971SOL    HW278753   8.834   8.413   1.541
58972SOL     OW78754   0.002  10.586  12.160
58972SOL    HW178755  14.784  10.601  12.171
58972SOL    HW278756   0.040  10.612  12.243
58973SOL     OW78757   2.540  13.651  13.921
58973SOL    HW178758   2.609  13.639  13.985
58973SOL    HW278759   2.459  13.647  13.971
58974SOL     OW78760   4.565  11.412   4.097
58974SOL    HW178761   4.523  11.420   4.011
58974SOL    HW278762   4.509  11.463   4.156
58975SOL     OW78763   8.880  10.988  14.327
58975SOL    HW178764   8.885  10.902  14.367
58975SOL    HW278765   8.971  11.007  14.301
58976SOL     OW78766   5.939  12.257   7.078
58976SOL    HW178767   5.891  12.244   6.997
58976SOL    HW278768   6.000  12.183   7.082
58977SOL     OW78769   0.380  14.247   1.996
58977SOL    HW178770   0.454  14.304   2.016
58977SOL    HW278771   0.414  14.158   2.008
58978SOL     OW78772   9.326   1.363   4.908
58978SOL    HW178773   9.371   1.401   4.984
58978SOL    HW278774   9.291   1.280   4.940
58979SOL     OW78775   5.114   8.547   8.225
58979SOL    HW178776   5.056   8.601   8.279
58979SOL    HW278777   5.161   8.493   8.288
58980SOL     OW78778   0.375   2.273  11.075
58980SOL    HW178779   0.416   2.341  11.129
58980SOL    HW278780   0.382   2.306  10.985
58981SOL     OW78781   9.749   7.818   7.744
58981SOL    HW178782   9.816   7.779   7.800
58981SOL    HW278783   9.672   7.763   7.757
58982SOL     OW78784   1.290   9.077   1.671
58982SOL    HW178785   1.301   9.136   1.745
58982SOL    HW278786   1.243   9.130   1.606
58983SOL     OW78787   9.671   8.169   9.262
58983SOL    HW178788   9.604   8.185   9.195
58983SOL    HW278789   9.707   8.256   9.280
58984SOL     OW78790  12.536   9.005   1.234
58984SOL    HW178791  12.498   9.011   1.147
58984SOL    HW278792  12.601   8.936   1.227
58985SOL     OW78793   1.459   8.586  13.285
58985SOL    HW178794   1.554   8.575  13.297
58985SOL    HW278795   1.445   8.680  13.299
58986SOL     OW78796  13.631   3.361   4.365
58986SOL    HW178797  13.697   3.429   4.375
58986SOL    HW278798  13.574   3.392   4.294
58987SOL     OW78799   9.173  10.564  10.533
58987SOL    HW178800   9.213  10.621  10.598
58987SOL    HW278801   9.210  10.478  10.550
58988SOL     OW78802   8.032  13.759  14.704
58988SOL    HW178803   8.098  13.729  14.641
58988SOL    HW278804   8.082  13.807  14.770
58989SOL     OW78805   3.815  13.876   9.351
58989SOL    HW178806   3.838  13.853   9.441
58989SOL    HW278807   3.843  13.801   9.299
58990SOL     OW78808   6.432  14.564   2.734
58990SOL    HW178809   6.413  14.536   2.823
58990SOL    HW278810   6.368  14.517   2.680
58991SOL     OW78811   3.824   9.522  12.030
58991SOL    HW178812   3.769   9.511  11.953
58991SOL    HW278813   3.780   9.590  12.081
58992SOL     OW78814   8.856  12.250   5.512
58992SOL    HW178815   8.895  12.164   5.498
58992SOL    HW278816   8.900  12.307   5.449
58993SOL     OW78817  13.412   1.171   4.385
58993SOL    HW178818  13.347   1.240   4.393
58993SOL    HW278819  13.470   1.200   4.316
58994SOL     OW78820   3.090   2.553   7.288
58994SOL    HW178821   3.106   2.495   7.362
58994SOL    HW278822   3.040   2.500   7.226
58995SOL     OW78823   1.293   7.983   8.280
58995SOL    HW178824   1.333   8.048   8.222
58995SOL    HW278825   1.272   7.910   8.222
58996SOL     OW78826   7.164   2.902   9.023
58996SOL    HW178827   7.225   2.848   9.074
58996SOL    HW278828   7.102   2.936   9.087
58997SOL     OW78829  13.112   7.252   0.986
58997SOL    HW178830  13.076   7.331   0.945
58997SOL    HW278831  13.205   7.271   0.995
58998SOL     OW78832  14.733   6.080   2.140
58998SOL    HW178833  14.709   6.171   2.123
58998SOL    HW278834  14.740   6.040   2.053
58999SOL     OW78835   4.880  13.416   4.471
58999SOL    HW178836   4.857  13.325   4.449
58999SOL    HW278837   4.899  13.413   4.565
59000SOL     OW78838   1.267   2.753   5.905
59000SOL    HW178839   1.249   2.844   5.882
59000SOL    HW278840   1.181   2.715   5.921
59001SOL     OW78841  11.821   3.892   1.814
59001SOL    HW178842  11.882   3.824   1.841
59001SOL    HW278843  11.801   3.940   1.894
59002SOL     OW78844   5.052   0.958   9.368
59002SOL    HW178845   5.002   1.038   9.353
59002SOL    HW278846   5.055   0.915   9.283
59003SOL     OW78847  12.419   3.452   3.296
59003SOL    HW178848  12.443   3.510   3.368
59003SOL    HW278849  12.487   3.467   3.230
59004SOL     OW78850   9.966   5.424   9.473
59004SOL    HW178851   9.946   5.494   9.410
59004SOL    HW278852   9.929   5.455   9.556
59005SOL     OW78853  13.653  14.433   5.967
59005SOL    HW178854  13.665  14.454   6.060
59005SOL    HW278855  13.726  14.477   5.923
59006SOL     OW78856  10.718   0.040   6.899
59006SOL    HW178857  10.698  14.861   6.823
59006SOL    HW278858  10.804   0.077   6.880
59007SOL     OW78859   3.371  10.178  12.169
59007SOL    HW178860   3.359  10.096  12.121
59007SOL    HW278861   3.289  10.190  12.217
59008SOL     OW78862  13.772   1.701   4.331
59008SOL    HW178863  13.806   1.750   4.406
59008SOL    HW278864  13.825   1.621   4.328
59009SOL     OW78865   3.783  14.378   8.052
59009SOL    HW178866   3.830  14.386   7.969
59009SOL    HW278867   3.692  14.361   8.027
59010SOL     OW78868   7.996   6.026  10.401
59010SOL    HW178869   8.022   5.934  10.396
59010SOL    HW278870   8.010   6.059  10.312
59011SOL     OW78871   3.992  13.446   7.843
59011SOL    HW178872   3.923  13.402   7.795
59011SOL    HW278873   4.072  13.401   7.817
59012SOL     OW78874  12.415   7.824  11.258
59012SOL    HW178875  12.342   7.844  11.200
59012SOL    HW278876  12.490   7.811  11.199
59013SOL     OW78877   1.337   3.395  13.672
59013SOL    HW178878   1.416   3.399  13.727
59013SOL    HW278879   1.286   3.323  13.709
59014SOL     OW78880   9.931   4.317  12.888
59014SOL    HW178881  10.004   4.265  12.921
59014SOL    HW278882   9.952   4.407  12.914
59015SOL     OW78883   0.124   6.081   1.098
59015SOL    HW178884   0.076   6.141   1.042
59015SOL    HW278885   0.215   6.113   1.095
59016SOL     OW78886   8.204  14.146  14.235
59016SOL    HW178887   8.196  14.231  14.191
59016SOL    HW278888   8.296  14.139  14.258
59017SOL     OW78889  13.663  10.182   1.263
59017SOL    HW178890  13.680  10.092   1.293
59017SOL    HW278891  13.580  10.175   1.215
59018SOL     OW78892  13.219  14.138   6.402
59018SOL    HW178893  13.150  14.156   6.466
59018SOL    HW278894  13.221  14.043   6.395
59019SOL     OW78895   7.494   3.030   0.527
59019SOL    HW178896   7.409   3.059   0.559
59019SOL    HW278897   7.499   3.062   0.437
59020SOL     OW78898   9.947   2.780   9.185
59020SOL    HW178899  10.013   2.797   9.253
59020SOL    HW278900   9.864   2.779   9.233
59021SOL     OW78901   2.759   9.186  12.049
59021SOL    HW178902   2.831   9.179  12.112
59021SOL    HW278903   2.684   9.149  12.094
59022SOL     OW78904   2.795   2.696  10.254
59022SOL    HW178905   2.876   2.702  10.305
59022SOL    HW278906   2.729   2.667  10.317
59023SOL     OW78907   1.519   2.777   9.144
59023SOL    HW178908   1.508   2.837   9.218
59023SOL    HW278909   1.482   2.694   9.173
59024SOL     OW78910   6.302   0.875  10.753
59024SOL    HW178911   6.282   0.915  10.669
59024SOL    HW278912   6.234   0.809  10.765
59025SOL     OW78913   0.102   1.666  10.518
59025SOL    HW178914   0.039   1.672  10.590
59025SOL    HW278915   0.155   1.590  10.540
59026SOL     OW78916   4.161  10.413  14.220
59026SOL    HW178917   4.248  10.440  14.193
59026SOL    HW278918   4.102  10.451  14.155
59027SOL     OW78919  14.043   5.705   8.431
59027SOL    HW178920  14.077   5.640   8.492
59027SOL    HW278921  14.118   5.729   8.377
59028SOL     OW78922  13.752   7.285   8.162
59028SOL    HW178923  13.725   7.202   8.199
59028SOL    HW278924  13.841   7.299   8.195
59029SOL     OW78925  14.130  13.864   7.211
59029SOL    HW178926  14.147  13.774   7.183
59029SOL    HW278927  14.043  13.861   7.249
59030SOL     OW78928  12.587   5.210   7.254
59030SOL    HW178929  12.569   5.251   7.338
59030SOL    HW278930  12.530   5.133   7.252
59031SOL     OW78931   5.065  10.829   9.181
59031SOL    HW178932   5.091  10.765   9.115
59031SOL    HW278933   5.109  10.801   9.261
59032SOL     OW78934  10.351  11.851   2.115
59032SOL    HW178935  10.310  11.768   2.139
59032SOL    HW278936  10.445  11.837   2.132
59033SOL     OW78937  12.617   2.027   5.404
59033SOL    HW178938  12.617   2.093   5.334
59033SOL    HW278939  12.530   1.988   5.400
59034SOL     OW78940   9.218   5.262  13.087
59034SOL    HW178941   9.158   5.188  13.078
59034SOL    HW278942   9.247   5.258  13.178
59035SOL     OW78943  11.271   0.868   3.080
59035SOL    HW178944  11.352   0.856   3.031
59035SOL    HW278945  11.257   0.784   3.123
59036SOL     OW78946   6.464   6.296   7.573
59036SOL    HW178947   6.376   6.296   7.537
59036SOL    HW278948   6.515   6.240   7.515
59037SOL     OW78949   2.204  13.209   5.890
59037SOL    HW178950   2.185  13.183   5.800
59037SOL    HW278951   2.259  13.138   5.924
59038SOL     OW78952  14.736   4.426   4.555
59038SOL    HW178953  14.786   4.345   4.566
59038SOL    HW278954  14.645   4.396   4.549
59039SOL     OW78955   3.249  12.615  14.661
59039SOL    HW178956   3.320  12.665  14.622
59039SOL    HW278957   3.171  12.668  14.645
59040SOL     OW78958  12.353   4.330  10.822
59040SOL    HW178959  12.336   4.417  10.785
59040SOL    HW278960  12.384   4.347  10.911
59041SOL     OW78961  13.983   6.676   7.110
59041SOL    HW178962  13.952   6.589   7.082
59041SOL    HW278963  13.903   6.729   7.115
59042SOL     OW78964   5.247   0.327  10.825
59042SOL    HW178965   5.241   0.292  10.736
59042SOL    HW278966   5.334   0.367  10.830
59043SOL     OW78967   2.373   5.135   3.282
59043SOL    HW178968   2.379   5.108   3.190
59043SOL    HW278969   2.444   5.198   3.293
59044SOL     OW78970   7.959  12.646  13.991
59044SOL    HW178971   7.926  12.573  14.043
59044SOL    HW278972   7.988  12.710  14.056
59045SOL     OW78973   4.895  10.070   1.031
59045SOL    HW178974   4.862  10.156   1.005
59045SOL    HW278975   4.989  10.082   1.040
59046SOL     OW78976  11.850   4.921   7.529
59046SOL    HW178977  11.782   4.968   7.481
59046SOL    HW278978  11.924   4.916   7.468
59047SOL     OW78979  14.755   4.849   3.553
59047SOL    HW178980  14.742   4.905   3.477
59047SOL    HW278981  14.769   4.761   3.516
59048SOL     OW78982   9.320   9.058  13.688
59048SOL    HW178983   9.303   9.132  13.747
59048SOL    HW278984   9.256   9.070  13.617
59049SOL     OW78985   1.733   4.880   1.721
59049SOL    HW178986   1.748   4.879   1.626
59049SOL    HW278987   1.812   4.920   1.757
59050SOL     OW78988   2.576  14.055   6.236
59050SOL    HW178989   2.571  14.054   6.140
59050SOL    HW278990   2.588  14.147   6.259
59051SOL     OW78991   7.507  11.782   0.399
59051SOL    HW178992   7.478  11.691   0.411
59051SOL    HW278993   7.462  11.811   0.320
59052SOL     OW78994  10.075  14.226   3.341
59052SOL    HW178995  10.115  14.148   3.379
59052SOL    HW278996   9.993  14.195   3.302
59053SOL     OW78997   4.877  10.320   2.379
59053SOL    HW178998   4.902  10.300   2.288
59053SOL    HW278999   4.822  10.398   2.372
59054SOL     OW79000   5.122   1.118  12.884
59054SOL    HW179001   5.130   1.060  12.808
59054SOL    HW279002   5.029   1.138  12.889
59055SOL     OW79003   9.291   2.677   3.919
59055SOL    HW179004   9.345   2.600   3.933
59055SOL    HW279005   9.352   2.744   3.889
59056SOL     OW79006  14.785   6.697   9.669
59056SOL    HW179007  14.729   6.672   9.743
59056SOL    HW279008  14.845   6.623   9.658
59057SOL     OW79009   8.183   4.230  11.329
59057SOL    HW179010   8.258   4.257  11.276
59057SOL    HW279011   8.107   4.249  11.275
59058SOL     OW79012  10.254  14.230   3.720
59058SOL    HW179013  10.260  14.324   3.738
59058SOL    HW279014  10.260  14.189   3.806
59059SOL     OW79015   6.037   3.207  10.665
59059SOL    HW179016   6.106   3.204  10.600
59059SOL    HW279017   6.079   3.245  10.743
59060SOL     OW79018   9.167   5.792   2.044
59060SOL    HW179019   9.231   5.745   1.991
59060SOL    HW279020   9.084   5.778   1.999
59061SOL     OW79021   6.466   5.289   0.160
59061SOL    HW179022   6.554   5.256   0.140
59061SOL    HW279023   6.459   5.370   0.109
59062SOL     OW79024  12.986   7.000   1.017
59062SOL    HW179025  13.043   7.076   1.029
59062SOL    HW279026  12.897   7.036   1.019
59063SOL     OW79027   5.640  12.021  11.330
59063SOL    HW179028   5.614  12.102  11.373
59063SOL    HW279029   5.707  12.047  11.267
59064SOL     OW79030  13.784  11.098   9.981
59064SOL    HW179031  13.817  11.044   9.910
59064SOL    HW279032  13.856  11.103  10.044
59065SOL     OW79033   3.842   8.205   3.293
59065SOL    HW179034   3.831   8.118   3.332
59065SOL    HW279035   3.874   8.188   3.205
59066SOL     OW79036   7.226   2.698  11.329
59066SOL    HW179037   7.294   2.645  11.288
59066SOL    HW279038   7.263   2.786  11.335
59067SOL     OW79039   8.923   0.534  10.423
59067SOL    HW179040   8.870   0.565  10.349
59067SOL    HW279041   8.944   0.443  10.401
59068SOL     OW79042   0.389   3.887   6.665
59068SOL    HW179043   0.359   3.851   6.748
59068SOL    HW279044   0.335   3.964   6.650
59069SOL     OW79045   7.648   2.917   6.242
59069SOL    HW179046   7.626   2.827   6.266
59069SOL    HW279047   7.575   2.945   6.186
59070SOL     OW79048   4.722  11.646  10.460
59070SOL    HW179049   4.686  11.622  10.375
59070SOL    HW279050   4.789  11.579  10.477
59071SOL     OW79051   0.992  13.459  14.798
59071SOL    HW179052   0.996  13.549  14.830
59071SOL    HW279053   0.900  13.434  14.808
59072SOL     OW79054   2.137   7.081  10.013
59072SOL    HW179055   2.102   7.031   9.939
59072SOL    HW279056   2.225   7.107   9.985
59073SOL     OW79057   4.876   7.869   4.632
59073SOL    HW179058   4.898   7.952   4.673
59073SOL    HW279059   4.912   7.875   4.544
59074SOL     OW79060   2.418   5.506  13.396
59074SOL    HW179061   2.368   5.439  13.349
59074SOL    HW279062   2.367   5.586  13.384
59075SOL     OW79063   6.854   0.031  11.327
59075SOL    HW179064   6.895  14.839  11.380
59075SOL    HW279065   6.781  14.865  11.284
59076SOL     OW79066   5.892   5.261  10.263
59076SOL    HW179067   5.813   5.207  10.259
59076SOL    HW279068   5.906   5.275  10.357
59077SOL     OW79069  11.550   5.054  14.812
59077SOL    HW179070  11.464   5.097  14.818
59077SOL    HW279071  11.557   5.004   0.017
59078SOL     OW79072  10.220  12.222  12.488
59078SOL    HW179073  10.242  12.257  12.574
59078SOL    HW279074  10.296  12.241  12.433
59079SOL     OW79075   5.505   1.247   0.791
59079SOL    HW179076   5.445   1.302   0.741
59079SOL    HW279077   5.510   1.166   0.740
59080SOL     OW79078   0.210  11.504  14.799
59080SOL    HW179079   0.284  11.525  14.742
59080SOL    HW279080   0.157  11.444  14.747
59081SOL     OW79081   7.025   8.102   0.706
59081SOL    HW179082   6.986   8.179   0.664
59081SOL    HW279083   7.052   8.046   0.634
59082SOL     OW79084   0.965   1.577   8.356
59082SOL    HW179085   1.028   1.577   8.429
59082SOL    HW279086   0.880   1.587   8.397
59083SOL     OW79087   9.587  14.290   5.056
59083SOL    HW179088   9.656  14.282   4.991
59083SOL    HW279089   9.513  14.327   5.009
59084SOL     OW79090   1.667   6.511  14.473
59084SOL    HW179091   1.730   6.491  14.404
59084SOL    HW279092   1.604   6.439  14.471
59085SOL     OW79093   7.463   8.794   5.263
59085SOL    HW179094   7.447   8.724   5.326
59085SOL    HW279095   7.375   8.825   5.239
59086SOL     OW79096   7.512   5.082   1.270
59086SOL    HW179097   7.473   5.057   1.354
59086SOL    HW279098   7.560   5.163   1.289
59087SOL     OW79099  12.498  10.037   1.436
59087SOL    HW179100  12.428  10.026   1.501
59087SOL    HW279101  12.558   9.965   1.453
59088SOL     OW79102  10.816  12.828   3.594
59088SOL    HW179103  10.768  12.858   3.517
59088SOL    HW279104  10.749  12.791   3.651
59089SOL     OW79105   7.406   0.600   8.158
59089SOL    HW179106   7.423   0.526   8.217
59089SOL    HW279107   7.344   0.565   8.094
59090SOL     OW79108  11.855   2.984  11.311
59090SOL    HW179109  11.809   3.016  11.233
59090SOL    HW279110  11.947   3.006  11.294
59091SOL     OW79111   2.589   0.599   3.390
59091SOL    HW179112   2.520   0.536   3.411
59091SOL    HW279113   2.641   0.603   3.471
59092SOL     OW79114   5.652   9.685  13.467
59092SOL    HW179115   5.633   9.703  13.374
59092SOL    HW279116   5.742   9.652  13.467
59093SOL     OW79117  14.639   6.791  10.856
59093SOL    HW179118  14.727   6.765  10.882
59093SOL    HW279119  14.653   6.859  10.789
59094SOL     OW79120   8.588   5.454  11.384
59094SOL    HW179121   8.555   5.366  11.370
59094SOL    HW279122   8.627   5.480  11.300
59095SOL     OW79123  10.711   1.164  10.484
59095SOL    HW179124  10.769   1.159  10.408
59095SOL    HW279125  10.710   1.257  10.507
59096SOL     OW79126   2.651   1.512  10.744
59096SOL    HW179127   2.720   1.576  10.732
59096SOL    HW279128   2.574   1.563  10.769
59097SOL     OW79129  13.314  11.371   8.126
59097SOL    HW179130  13.381  11.426   8.086
59097SOL    HW279131  13.240  11.430   8.140
59098SOL     OW79132   1.357   1.874  11.310
59098SOL    HW179133   1.406   1.860  11.391
59098SOL    HW279134   1.286   1.932  11.334
59099SOL     OW79135   1.142  11.294   3.652
59099SOL    HW179136   1.066  11.298   3.711
59099SOL    HW279137   1.123  11.360   3.585
59100SOL     OW79138   4.052   4.670   8.783
59100SOL    HW179139   4.109   4.714   8.720
59100SOL    HW279140   4.029   4.587   8.741
59101SOL     OW79141  14.823   8.096  11.546
59101SOL    HW179142  14.821   8.190  11.563
59101SOL    HW279143   0.030   8.067  11.583
59102SOL     OW79144   8.412   1.408   4.518
59102SOL    HW179145   8.399   1.497   4.550
59102SOL    HW279146   8.325   1.369   4.520
59103SOL     OW79147   5.374   9.327  13.016
59103SOL    HW179148   5.391   9.397  13.079
59103SOL    HW279149   5.368   9.372  12.932
59104SOL     OW79150   0.831   1.633  11.856
59104SOL    HW179151   0.744   1.661  11.883
59104SOL    HW279152   0.843   1.547  11.897
59105SOL     OW79153   9.124   0.104  14.830
59105SOL    HW179154   9.081   0.190  14.829
59105SOL    HW279155   9.117   0.073  14.740
59106SOL     OW79156   1.644   9.053  12.184
59106SOL    HW179157   1.691   9.048  12.101
59106SOL    HW279158   1.593   8.972  12.188
59107SOL     OW79159   6.877   0.639  10.676
59107SOL    HW179160   6.920   0.553  10.672
59107SOL    HW279161   6.935   0.692  10.730
59108SOL     OW79162  13.334   8.852   5.572
59108SOL    HW179163  13.248   8.819   5.595
59108SOL    HW279164  13.383   8.851   5.654
59109SOL     OW79165  14.229  13.882   3.068
59109SOL    HW179166  14.234  13.793   3.035
59109SOL    HW279167  14.261  13.936   2.995
59110SOL     OW79168   3.229   4.461   2.090
59110SOL    HW179169   3.175   4.537   2.109
59110SOL    HW279170   3.300   4.465   2.154
59111SOL     OW79171  12.511  13.806   8.178
59111SOL    HW179172  12.516  13.776   8.268
59111SOL    HW279173  12.445  13.750   8.138
59112SOL     OW79174  13.271   3.197   6.071
59112SOL    HW179175  13.276   3.273   6.013
59112SOL    HW279176  13.199   3.218   6.131
59113SOL     OW79177   7.463   3.407  13.656
59113SOL    HW179178   7.422   3.392  13.571
59113SOL    HW279179   7.448   3.325  13.703
59114SOL     OW79180   2.326   8.408   4.892
59114SOL    HW179181   2.397   8.469   4.874
59114SOL    HW279182   2.289   8.388   4.806
59115SOL     OW79183  14.839  10.775  13.985
59115SOL    HW179184   0.056  10.793  13.994
59115SOL    HW279185  14.819  10.711  14.053
59116SOL     OW79186  14.277  13.212  11.368
59116SOL    HW179187  14.355  13.267  11.356
59116SOL    HW279188  14.204  13.274  11.363
59117SOL     OW79189   8.111  11.633   7.670
59117SOL    HW179190   8.204  11.618   7.652
59117SOL    HW279191   8.065  11.579   7.607
59118SOL     OW79192  11.919  13.516   4.129
59118SOL    HW179193  11.969  13.594   4.106
59118SOL    HW279194  11.831  13.534   4.095
59119SOL     OW79195   9.576  11.333  10.114
59119SOL    HW179196   9.652  11.328  10.171
59119SOL    HW279197   9.601  11.282  10.037
59120SOL     OW79198  13.543   5.669   8.443
59120SOL    HW179199  13.525   5.753   8.485
59120SOL    HW279200  13.639   5.662   8.444
59121SOL     OW79201  12.487   7.737   9.726
59121SOL    HW179202  12.489   7.695   9.812
59121SOL    HW279203  12.529   7.822   9.740
59122SOL     OW79204   9.996  10.790  14.808
59122SOL    HW179205  10.065  10.725  14.821
59122SOL    HW279206  10.017  10.861  14.868
59123SOL     OW79207  12.669  11.594   7.444
59123SOL    HW179208  12.676  11.689   7.444
59123SOL    HW279209  12.671  11.570   7.351
59124SOL     OW79210  10.371   8.451   0.590
59124SOL    HW179211  10.453   8.499   0.573
59124SOL    HW279212  10.335   8.433   0.504
59125SOL     OW79213   8.721   8.032   0.970
59125SOL    HW179214   8.706   8.127   0.969
59125SOL    HW279215   8.697   8.005   1.058
59126SOL     OW79216   8.764   7.212   6.699
59126SOL    HW179217   8.718   7.296   6.697
59126SOL    HW279218   8.855   7.234   6.714
59127SOL     OW79219  12.443   5.647   9.442
59127SOL    HW179220  12.482   5.659   9.356
59127SOL    HW279221  12.512   5.606   9.494
59128SOL     OW79222  13.752   6.858   1.747
59128SOL    HW179223  13.661   6.831   1.763
59128SOL    HW279224  13.764   6.849   1.653
59129SOL     OW79225  12.089  14.400  13.071
59129SOL    HW179226  12.151  14.450  13.018
59129SOL    HW279227  12.115  14.417  13.162
59130SOL     OW79228   8.401   0.672  10.303
59130SOL    HW179229   8.351   0.632  10.374
59130SOL    HW279230   8.353   0.647  10.224
59131SOL     OW79231  13.691  13.199   6.734
59131SOL    HW179232  13.651  13.117   6.762
59131SOL    HW279233  13.628  13.267   6.759
59132SOL     OW79234   9.086   4.323   6.626
59132SOL    HW179235   9.006   4.299   6.672
59132SOL    HW279236   9.140   4.366   6.692
59133SOL     OW79237   4.541   1.772   8.487
59133SOL    HW179238   4.619   1.735   8.446
59133SOL    HW279239   4.511   1.840   8.427
59134SOL     OW79240   6.262  10.641   2.725
59134SOL    HW179241   6.181  10.595   2.747
59134SOL    HW279242   6.300  10.591   2.653
59135SOL     OW79243   8.610   1.902   0.082
59135SOL    HW179244   8.515   1.911   0.085
59135SOL    HW279245   8.626   1.837   0.013
59136SOL     OW79246   4.836   2.708   3.905
59136SOL    HW179247   4.911   2.703   3.846
59136SOL    HW279248   4.781   2.634   3.880
59137SOL     OW79249   5.458  11.468   0.259
59137SOL    HW179250   5.516  11.530   0.214
59137SOL    HW279251   5.503  11.384   0.250
59138SOL     OW79252   4.883   3.314  10.344
59138SOL    HW179253   4.901   3.228  10.382
59138SOL    HW279254   4.789   3.327  10.357
59139SOL     OW79255   2.969   9.497   7.636
59139SOL    HW179256   3.048   9.538   7.601
59139SOL    HW279257   2.898   9.555   7.610
59140SOL     OW79258  13.731   8.287   2.078
59140SOL    HW179259  13.808   8.239   2.047
59140SOL    HW279260  13.676   8.297   2.001
59141SOL     OW79261  11.604   7.427  12.065
59141SOL    HW179262  11.578   7.368  11.994
59141SOL    HW279263  11.567   7.387  12.144
59142SOL     OW79264   8.352  13.376   8.400
59142SOL    HW179265   8.323  13.422   8.321
59142SOL    HW279266   8.274  13.370   8.455
59143SOL     OW79267  13.515   4.876   8.659
59143SOL    HW179268  13.425   4.862   8.690
59143SOL    HW279269  13.505   4.907   8.569
59144SOL     OW79270   3.126  13.455   3.987
59144SOL    HW179271   3.172  13.374   4.010
59144SOL    HW279272   3.062  13.428   3.921
59145SOL     OW79273   0.171  12.374   3.058
59145SOL    HW179274   0.136  12.288   3.084
59145SOL    HW279275   0.093  12.425   3.036
59146SOL     OW79276  10.093   1.067   5.658
59146SOL    HW179277  10.156   0.997   5.645
59146SOL    HW279278  10.145   1.147   5.655
59147SOL     OW79279  12.899   2.132  11.367
59147SOL    HW179280  12.971   2.095  11.316
59147SOL    HW279281  12.940   2.164  11.447
59148SOL     OW79282  12.538   0.972  13.957
59148SOL    HW179283  12.526   1.052  14.008
59148SOL    HW279284  12.616   0.988  13.904
59149SOL     OW79285   8.554  14.470   2.821
59149SOL    HW179286   8.542  14.506   2.909
59149SOL    HW279287   8.558  14.376   2.833
59150SOL     OW79288  11.467   1.353   4.081
59150SOL    HW179289  11.447   1.435   4.034
59150SOL    HW279290  11.408   1.354   4.156
59151SOL     OW79291   4.140   5.108   8.261
59151SOL    HW179292   4.169   5.123   8.350
59151SOL    HW279293   4.210   5.057   8.221
59152SOL     OW79294   1.522  12.128   0.503
59152SOL    HW179295   1.552  12.048   0.460
59152SOL    HW279296   1.445  12.155   0.453
59153SOL     OW79297   9.641   4.632  10.340
59153SOL    HW179298   9.730   4.630  10.306
59153SOL    HW279299   9.642   4.700  10.408
59154SOL     OW79300   2.776  14.157  14.243
59154SOL    HW179301   2.734  14.229  14.290
59154SOL    HW279302   2.827  14.112  14.309
59155SOL     OW79303   6.499  10.254  12.388
59155SOL    HW179304   6.434  10.249  12.318
59155SOL    HW279305   6.493  10.345  12.419
59156SOL     OW79306   0.354   6.323  14.267
59156SOL    HW179307   0.273   6.357  14.228
59156SOL    HW279308   0.381   6.390  14.330
59157SOL     OW79309  11.382   2.841  10.870
59157SOL    HW179310  11.310   2.898  10.897
59157SOL    HW279311  11.428   2.821  10.952
59158SOL     OW79312   8.830   4.878  12.493
59158SOL    HW179313   8.746   4.856  12.532
59158SOL    HW279314   8.883   4.910  12.566
59159SOL     OW79315  12.464   4.893   1.610
59159SOL    HW179316  12.542   4.878   1.663
59159SOL    HW279317  12.460   4.988   1.601
59160SOL     OW79318   7.649  13.132   3.331
59160SOL    HW179319   7.732  13.109   3.289
59160SOL    HW279320   7.628  13.218   3.297
59161SOL     OW79321   7.283   8.168   9.028
59161SOL    HW179322   7.364   8.208   8.997
59161SOL    HW279323   7.270   8.205   9.115
59162SOL     OW79324  11.233  14.393   8.520
59162SOL    HW179325  11.159  14.333   8.523
59162SOL    HW279326  11.232  14.429   8.432
59163SOL     OW79327  12.393  14.682   6.732
59163SOL    HW179328  12.331  14.681   6.659
59163SOL    HW279329  12.451  14.608   6.715
59164SOL     OW79330  14.441   2.932   6.575
59164SOL    HW179331  14.453   2.847   6.534
59164SOL    HW279332  14.440   2.994   6.503
59165SOL     OW79333   3.790   5.257  13.883
59165SOL    HW179334   3.716   5.309  13.914
59165SOL    HW279335   3.778   5.252  13.788
59166SOL     OW79336   6.475   2.607   6.615
59166SOL    HW179337   6.428   2.556   6.680
59166SOL    HW279338   6.410   2.623   6.546
59167SOL     OW79339  14.697   9.338   0.578
59167SOL    HW179340  14.673   9.328   0.670
59167SOL    HW279341  14.744   9.257   0.557
59168SOL     OW79342  10.300   2.364   4.762
59168SOL    HW179343  10.293   2.442   4.816
59168SOL    HW279344  10.246   2.298   4.806
59169SOL     OW79345   6.429  12.496   6.263
59169SOL    HW179346   6.486  12.423   6.241
59169SOL    HW279347   6.384  12.468   6.343
59170SOL     OW79348   3.776   6.473  10.050
59170SOL    HW179349   3.738   6.478  10.138
59170SOL    HW279350   3.705   6.498   9.992
59171SOL     OW79351  13.756   0.273  13.615
59171SOL    HW179352  13.690   0.256  13.682
59171SOL    HW279353  13.816   0.336  13.655
59172SOL     OW79354  13.392   3.824   4.556
59172SOL    HW179355  13.330   3.845   4.626
59172SOL    HW279356  13.358   3.871   4.480
59173SOL     OW79357   8.885   1.502   6.558
59173SOL    HW179358   8.798   1.479   6.526
59173SOL    HW279359   8.945   1.443   6.512
59174SOL     OW79360  12.307  11.765  12.411
59174SOL    HW179361  12.257  11.693  12.374
59174SOL    HW279362  12.248  11.841  12.403
59175SOL     OW79363   5.392   7.746   4.609
59175SOL    HW179364   5.359   7.698   4.533
59175SOL    HW279365   5.445   7.683   4.657
59176SOL     OW79366   6.352   4.368   7.124
59176SOL    HW179367   6.437   4.380   7.166
59176SOL    HW279368   6.369   4.381   7.031
59177SOL     OW79369  12.338   5.181   1.609
59177SOL    HW179370  12.290   5.134   1.541
59177SOL    HW279371  12.272   5.203   1.674
59178SOL     OW79372  10.685   1.240   3.017
59178SOL    HW179373  10.643   1.304   2.959
59178SOL    HW279374  10.778   1.248   2.998
59179SOL     OW79375  13.465   3.823   6.914
59179SOL    HW179376  13.386   3.802   6.865
59179SOL    HW279377  13.454   3.915   6.939
59180SOL     OW79378   3.282  12.488  11.405
59180SOL    HW179379   3.334  12.566  11.425
59180SOL    HW279380   3.226  12.476  11.482
59181SOL     OW79381   2.915   7.294  12.740
59181SOL    HW179382   2.921   7.200  12.756
59181SOL    HW279383   3.002   7.328  12.761
59182SOL     OW79384   6.345   9.248  14.313
59182SOL    HW179385   6.321   9.244  14.220
59182SOL    HW279386   6.272   9.294  14.354
59183SOL     OW79387   0.791   8.300   6.460
59183SOL    HW179388   0.774   8.214   6.421
59183SOL    HW279389   0.709   8.322   6.505
59184SOL     OW79390   5.621   4.268   8.783
59184SOL    HW179391   5.647   4.198   8.843
59184SOL    HW279392   5.703   4.315   8.765
59185SOL     OW79393   7.933   3.390   3.966
59185SOL    HW179394   7.909   3.327   3.898
59185SOL    HW279395   8.014   3.356   4.003
59186SOL     OW79396   8.591  13.120  13.226
59186SOL    HW179397   8.526  13.065  13.269
59186SOL    HW279398   8.545  13.159  13.152
59187SOL     OW79399   2.562   2.378  13.179
59187SOL    HW179400   2.519   2.395  13.262
59187SOL    HW279401   2.499   2.327  13.129
59188SOL     OW79402   5.832   0.815   1.132
59188SOL    HW179403   5.814   0.825   1.038
59188SOL    HW279404   5.861   0.901   1.160
59189SOL     OW79405   0.876   0.774   4.985
59189SOL    HW179406   0.872   0.865   5.016
59189SOL    HW279407   0.836   0.723   5.055
59190SOL     OW79408   2.664  11.100   9.373
59190SOL    HW179409   2.662  11.011   9.336
59190SOL    HW279410   2.720  11.091   9.451
59191SOL     OW79411  10.115   6.306   2.483
59191SOL    HW179412  10.073   6.392   2.487
59191SOL    HW279413  10.200   6.318   2.526
59192SOL     OW79414  10.159  11.665  11.278
59192SOL    HW179415  10.149  11.663  11.183
59192SOL    HW279416  10.097  11.732  11.307
59193SOL     OW79417   8.771   0.671  13.536
59193SOL    HW179418   8.745   0.761  13.558
59193SOL    HW279419   8.689   0.626  13.518
59194SOL     OW79420  11.369   3.546   2.171
59194SOL    HW179421  11.354   3.628   2.124
59194SOL    HW279422  11.445   3.564   2.226
59195SOL     OW79423   5.527  12.873   0.215
59195SOL    HW179424   5.571  12.945   0.259
59195SOL    HW279425   5.531  12.896   0.122
59196SOL     OW79426   8.135  10.306   0.402
59196SOL    HW179427   8.108  10.347   0.484
59196SOL    HW279428   8.087  10.224   0.398
59197SOL     OW79429   3.925   8.822   2.644
59197SOL    HW179430   3.887   8.768   2.575
59197SOL    HW279431   3.992   8.874   2.600
59198SOL     OW79432   6.627  10.756   7.905
59198SOL    HW179433   6.674  10.836   7.927
59198SOL    HW279434   6.558  10.749   7.972
59199SOL     OW79435   1.986   7.022   3.848
59199SOL    HW179436   1.899   7.060   3.839
59199SOL    HW279437   1.982   6.941   3.796
59200SOL     OW79438  12.808  10.654  14.867
59200SOL    HW179439  12.864  10.646   0.068
59200SOL    HW279440  12.725  10.613   0.016
59201SOL     OW79441   6.577   7.307   2.306
59201SOL    HW179442   6.627   7.388   2.295
59201SOL    HW279443   6.624   7.242   2.253
59202SOL     OW79444   7.475   3.688   7.729
59202SOL    HW179445   7.569   3.671   7.729
59202SOL    HW279446   7.438   3.621   7.672
59203SOL     OW79447   3.879  14.612   8.139
59203SOL    HW179448   3.912  14.625   8.050
59203SOL    HW279449   3.835  14.527   8.136
59204SOL     OW79450   1.726   0.553   4.766
59204SOL    HW179451   1.713   0.648   4.759
59204SOL    HW279452   1.821   0.542   4.768
59205SOL     OW79453   3.475   8.858  10.584
59205SOL    HW179454   3.434   8.772  10.578
59205SOL    HW279455   3.566   8.840  10.611
59206SOL     OW79456   3.080   3.587   8.700
59206SOL    HW179457   3.141   3.628   8.639
59206SOL    HW279458   3.056   3.658   8.761
59207SOL     OW79459  12.971   6.636   2.142
59207SOL    HW179460  12.897   6.575   2.132
59207SOL    HW279461  13.040   6.599   2.087
59208SOL     OW79462   9.453   8.004   5.276
59208SOL    HW179463   9.532   7.990   5.328
59208SOL    HW279464   9.381   7.992   5.338
59209SOL     OW79465   2.554   8.102   9.948
59209SOL    HW179466   2.619   8.092   9.878
59209SOL    HW279467   2.488   8.036   9.929
59210SOL     OW79468   5.546   6.201   1.070
59210SOL    HW179469   5.528   6.295   1.079
59210SOL    HW279470   5.641   6.197   1.059
59211SOL     OW79471   8.864   7.261   6.215
59211SOL    HW179472   8.783   7.258   6.267
59211SOL    HW279473   8.930   7.291   6.277
59212SOL     OW79474   1.617   6.581   5.605
59212SOL    HW179475   1.638   6.628   5.686
59212SOL    HW279476   1.702   6.559   5.567
59213SOL     OW79477   1.923   1.998   2.259
59213SOL    HW179478   1.973   1.991   2.179
59213SOL    HW279479   1.832   1.986   2.232
59214SOL     OW79480   5.757   4.861   8.690
59214SOL    HW179481   5.836   4.835   8.737
59214SOL    HW279482   5.752   4.956   8.701
59215SOL     OW79483  10.213   8.560  13.357
59215SOL    HW179484  10.261   8.569  13.440
59215SOL    HW279485  10.132   8.610  13.371
59216SOL     OW79486   4.114   1.699   4.577
59216SOL    HW179487   4.154   1.677   4.493
59216SOL    HW279488   4.108   1.615   4.623
59217SOL     OW79489   1.815   9.093   4.516
59217SOL    HW179490   1.888   9.152   4.539
59217SOL    HW279491   1.766   9.083   4.598
59218SOL     OW79492   2.940   0.876   2.229
59218SOL    HW179493   2.962   0.956   2.181
59218SOL    HW279494   2.886   0.826   2.168
59219SOL     OW79495  14.245   4.706   9.393
59219SOL    HW179496  14.270   4.797   9.405
59219SOL    HW279497  14.210   4.702   9.304
59220SOL     OW79498   9.356   8.587  13.037
59220SOL    HW179499   9.413   8.556  12.966
59220SOL    HW279500   9.267   8.578  13.001
59221SOL     OW79501   3.369  11.443   5.010
59221SOL    HW179502   3.347  11.452   5.103
59221SOL    HW279503   3.438  11.507   4.995
59222SOL     OW79504   4.994   7.311   3.226
59222SOL    HW179505   4.951   7.238   3.181
59222SOL    HW279506   5.058   7.270   3.283
59223SOL     OW79507  14.156   8.370  10.211
59223SOL    HW179508  14.108   8.355  10.293
59223SOL    HW279509  14.235   8.316  10.220
59224SOL     OW79510   4.487  10.386  13.435
59224SOL    HW179511   4.474  10.475  13.402
59224SOL    HW279512   4.582  10.373  13.433
59225SOL     OW79513   8.961   8.279   9.310
59225SOL    HW179514   8.883   8.248   9.264
59225SOL    HW279515   8.956   8.236   9.396
59226SOL     OW79516   8.933  12.545   7.772
59226SOL    HW179517   9.027  12.556   7.755
59226SOL    HW279518   8.891  12.570   7.690
59227SOL     OW79519   7.344  10.430  11.245
59227SOL    HW179520   7.391  10.403  11.166
59227SOL    HW279521   7.266  10.475  11.213
59228SOL     OW79522  14.700   5.137   6.923
59228SOL    HW179523  14.677   5.058   6.971
59228SOL    HW279524  14.623   5.155   6.869
59229SOL     OW79525  11.573   3.263   7.521
59229SOL    HW179526  11.617   3.203   7.581
59229SOL    HW279527  11.580   3.221   7.435
59230SOL     OW79528  11.470   3.904  11.849
59230SOL    HW179529  11.377   3.908  11.871
59230SOL    HW279530  11.475   3.934  11.758
59231SOL     OW79531  11.868   9.347   9.570
59231SOL    HW179532  11.805   9.284   9.535
59231SOL    HW279533  11.922   9.295   9.630
59232SOL     OW79534  12.903   3.379  10.749
59232SOL    HW179535  12.988   3.418  10.769
59232SOL    HW279536  12.852   3.449  10.709
59233SOL     OW79537  10.862   6.468  10.398
59233SOL    HW179538  10.919   6.478  10.322
59233SOL    HW279539  10.864   6.374  10.417
59234SOL     OW79540   4.042  13.351   2.120
59234SOL    HW179541   3.961  13.322   2.163
59234SOL    HW279542   4.097  13.273   2.117
59235SOL     OW79543  10.511   3.624   4.969
59235SOL    HW179544  10.513   3.627   5.064
59235SOL    HW279545  10.558   3.703   4.941
59236SOL     OW79546  13.688   0.490  11.871
59236SOL    HW179547  13.685   0.451  11.958
59236SOL    HW279548  13.618   0.447  11.822
59237SOL     OW79549   1.681  11.352   2.814
59237SOL    HW179550   1.709  11.438   2.784
59237SOL    HW279551   1.587  11.362   2.831
59238SOL     OW79552   2.335   3.909   7.330
59238SOL    HW179553   2.378   3.992   7.350
59238SOL    HW279554   2.242   3.926   7.346
59239SOL     OW79555   5.180   1.008  14.456
59239SOL    HW179556   5.152   1.082  14.402
59239SOL    HW279557   5.119   0.938  14.433
59240SOL     OW79558  10.967   8.530  14.786
59240SOL    HW179559  10.902   8.474  14.744
59240SOL    HW279560  10.944   8.618  14.757
59241SOL     OW79561   6.656  12.962  13.711
59241SOL    HW179562   6.588  12.916  13.760
59241SOL    HW279563   6.719  12.894  13.687
59242SOL     OW79564   2.619  13.430   8.428
59242SOL    HW179565   2.537  13.458   8.468
59242SOL    HW279566   2.593  13.368   8.360
59243SOL     OW79567  13.706   5.269  14.031
59243SOL    HW179568  13.761   5.275  14.110
59243SOL    HW279569  13.657   5.187  14.042
59244SOL     OW79570   2.910  14.356   5.418
59244SOL    HW179571   2.879  14.375   5.507
59244SOL    HW279572   2.958  14.273   5.426
59245SOL     OW79573   7.045  11.052   1.941
59245SOL    HW179574   7.081  10.977   1.892
59245SOL    HW279575   6.968  11.017   1.985
59246SOL     OW79576  11.343  12.825   8.444
59246SOL    HW179577  11.325  12.893   8.380
59246SOL    HW279578  11.411  12.862   8.500
59247SOL     OW79579  13.997  11.074  10.126
59247SOL    HW179580  14.039  11.137  10.184
59247SOL    HW279581  14.067  11.016  10.097
59248SOL     OW79582  10.738  10.639  11.332
59248SOL    HW179583  10.749  10.640  11.427
59248SOL    HW279584  10.755  10.729  11.305
59249SOL     OW79585  11.215   2.607  10.987
59249SOL    HW179586  11.289   2.663  11.011
59249SOL    HW279587  11.163   2.600  11.067
59250SOL     OW79588  11.073   9.040   3.642
59250SOL    HW179589  11.066   9.019   3.735
59250SOL    HW279590  11.123   9.122   3.640
59251SOL     OW79591   9.558   7.808   5.827
59251SOL    HW179592   9.507   7.878   5.788
59251SOL    HW279593   9.526   7.728   5.785
59252SOL     OW79594  13.511   8.224  12.301
59252SOL    HW179595  13.444   8.283  12.336
59252SOL    HW279596  13.534   8.261  12.216
59253SOL     OW79597  13.659   0.292   9.851
59253SOL    HW179598  13.738   0.248   9.884
59253SOL    HW279599  13.682   0.385   9.853
59254SOL     OW79600   5.554   1.110   6.772
59254SOL    HW179601   5.555   1.083   6.864
59254SOL    HW279602   5.608   1.189   6.769
59255SOL     OW79603  13.581  12.941   5.761
59255SOL    HW179604  13.646  12.975   5.823
59255SOL    HW279605  13.588  12.998   5.684
59256SOL     OW79606   0.997   4.421  13.542
59256SOL    HW179607   1.077   4.405  13.592
59256SOL    HW279608   1.019   4.494  13.484
59257SOL     OW79609   2.799   0.974   0.159
59257SOL    HW179610   2.715   0.974   0.206
59257SOL    HW279611   2.841   1.056   0.184
59258SOL     OW79612  14.095  14.139  12.208
59258SOL    HW179613  13.999  14.142  12.215
59258SOL    HW279614  14.111  14.078  12.136
59259SOL     OW79615   1.190   1.905   4.438
59259SOL    HW179616   1.200   1.852   4.359
59259SOL    HW279617   1.096   1.920   4.445
59260SOL     OW79618  10.898   3.730  10.032
59260SOL    HW179619  10.951   3.795  10.079
59260SOL    HW279620  10.903   3.757   9.941
59261SOL     OW79621   3.999   6.903   4.276
59261SOL    HW179622   4.022   6.945   4.193
59261SOL    HW279623   4.040   6.817   4.271
59262SOL     OW79624   3.731  12.412  10.062
59262SOL    HW179625   3.814  12.454  10.085
59262SOL    HW279626   3.689  12.473  10.002
59263SOL     OW79627   8.305   7.386   8.912
59263SOL    HW179628   8.218   7.367   8.948
59263SOL    HW279629   8.333   7.465   8.958
59264SOL     OW79630   6.543  13.467   9.509
59264SOL    HW179631   6.541  13.385   9.558
59264SOL    HW279632   6.634  13.475   9.480
59265SOL     OW79633  13.020   5.794  11.590
59265SOL    HW179634  12.967   5.843  11.526
59265SOL    HW279635  13.107   5.789  11.550
59266SOL     OW79636   2.426   0.481  12.627
59266SOL    HW179637   2.433   0.575  12.609
59266SOL    HW279638   2.426   0.474  12.723
59267SOL     OW79639  11.765   3.115   0.546
59267SOL    HW179640  11.727   3.076   0.468
59267SOL    HW279641  11.699   3.177   0.576
59268SOL     OW79642   3.763   2.602   6.343
59268SOL    HW179643   3.730   2.665   6.279
59268SOL    HW279644   3.852   2.632   6.363
59269SOL     OW79645   2.517   6.780   6.245
59269SOL    HW179646   2.469   6.860   6.267
59269SOL    HW279647   2.580   6.809   6.179
59270SOL     OW79648   7.443   6.809   1.533
59270SOL    HW179649   7.483   6.868   1.469
59270SOL    HW279650   7.450   6.722   1.493
59271SOL     OW79651   4.124  12.137  14.620
59271SOL    HW179652   4.155  12.089  14.543
59271SOL    HW279653   4.129  12.229  14.595
59272SOL     OW79654   8.221   1.687   8.083
59272SOL    HW179655   8.252   1.777   8.097
59272SOL    HW279656   8.281   1.651   8.018
59273SOL     OW79657   8.761   2.827  12.119
59273SOL    HW179658   8.760   2.754  12.181
59273SOL    HW279659   8.828   2.804  12.055
59274SOL     OW79660   0.184   2.391   8.613
59274SOL    HW179661   0.191   2.416   8.705
59274SOL    HW279662   0.128   2.314   8.613
59275SOL     OW79663   0.110   0.985  12.752
59275SOL    HW179664   0.024   0.985  12.710
59275SOL    HW279665   0.125   1.077  12.775
59276SOL     OW79666   7.846   0.724   1.232
59276SOL    HW179667   7.753   0.701   1.243
59276SOL    HW279668   7.879   0.735   1.321
59277SOL     OW79669   7.196   4.546   7.455
59277SOL    HW179670   7.279   4.558   7.500
59277SOL    HW279671   7.213   4.477   7.391
59278SOL     OW79672  13.613  10.104   2.223
59278SOL    HW179673  13.534  10.118   2.171
59278SOL    HW279674  13.674  10.060   2.164
59279SOL     OW79675  10.615   4.122  12.014
59279SOL    HW179676  10.631   4.201  11.962
59279SOL    HW279677  10.525   4.132  12.045
59280SOL     OW79678   1.932   1.737   2.064
59280SOL    HW179679   1.942   1.740   2.159
59280SOL    HW279680   1.844   1.701   2.051
59281SOL     OW79681  13.719   2.450   3.371
59281SOL    HW179682  13.775   2.528   3.367
59281SOL    HW279683  13.631   2.485   3.390
59282SOL     OW79684   2.556   4.251   6.791
59282SOL    HW179685   2.541   4.292   6.876
59282SOL    HW279686   2.548   4.323   6.728
59283SOL     OW79687   4.638   1.825  14.512
59283SOL    HW179688   4.630   1.731  14.498
59283SOL    HW279689   4.650   1.862  14.424
59284SOL     OW79690   2.602  11.319   3.198
59284SOL    HW179691   2.547  11.286   3.128
59284SOL    HW279692   2.543  11.372   3.252
59285SOL     OW79693   1.535   8.669   7.910
59285SOL    HW179694   1.546   8.697   8.001
59285SOL    HW279695   1.587   8.589   7.903
59286SOL     OW79696   9.855   6.570   4.190
59286SOL    HW179697   9.846   6.645   4.248
59286SOL    HW279698   9.921   6.515   4.232
59287SOL     OW79699  10.390   5.156   1.360
59287SOL    HW179700  10.472   5.112   1.381
59287SOL    HW279701  10.385   5.229   1.422
59288SOL     OW79702  14.198  12.143   3.111
59288SOL    HW179703  14.122  12.098   3.149
59288SOL    HW279704  14.163  12.188   3.034
59289SOL     OW79705   1.706   8.018   6.383
59289SOL    HW179706   1.779   8.063   6.426
59289SOL    HW279707   1.720   8.034   6.289
59290SOL     OW79708  12.695  13.066   6.347
59290SOL    HW179709  12.655  13.078   6.261
59290SOL    HW279710  12.656  13.135   6.401
59291SOL     OW79711   9.991   5.797   7.280
59291SOL    HW179712   9.964   5.836   7.196
59291SOL    HW279713   9.910   5.765   7.318
59292SOL     OW79714  12.868   9.481   7.492
59292SOL    HW179715  12.849   9.575   7.485
59292SOL    HW279716  12.964   9.477   7.496
59293SOL     OW79717   4.838  12.223   2.536
59293SOL    HW179718   4.779  12.172   2.592
59293SOL    HW279719   4.783  12.255   2.465
59294SOL     OW79720   9.888   2.758  14.124
59294SOL    HW179721   9.891   2.809  14.205
59294SOL    HW279722   9.831   2.808  14.067
59295SOL     OW79723  13.490  13.319   8.607
59295SOL    HW179724  13.515  13.405   8.574
59295SOL    HW279725  13.434  13.282   8.539
59296SOL     OW79726   1.586  14.520  14.504
59296SOL    HW179727   1.568  14.463  14.579
59296SOL    HW279728   1.680  14.507  14.487
59297SOL     OW79729  13.388  12.543   8.988
59297SOL    HW179730  13.437  12.463   8.967
59297SOL    HW279731  13.350  12.525   9.074
59298SOL     OW79732  10.029   2.653   7.812
59298SOL    HW179733  10.053   2.560   7.809
59298SOL    HW279734   9.947   2.655   7.862
59299SOL     OW79735  11.908   5.016   6.490
59299SOL    HW179736  11.839   5.065   6.445
59299SOL    HW279737  11.869   4.929   6.504
59300SOL     OW79738   0.354   1.561   1.473
59300SOL    HW179739   0.325   1.521   1.555
59300SOL    HW279740   0.325   1.500   1.406
59301SOL     OW79741   8.022   9.291  10.210
59301SOL    HW179742   7.978   9.225  10.263
59301SOL    HW279743   8.016   9.258  10.121
59302SOL     OW79744  13.086  10.616   3.461
59302SOL    HW179745  13.048  10.644   3.377
59302SOL    HW279746  13.179  10.607   3.442
59303SOL     OW79747   9.887   3.952   4.759
59303SOL    HW179748   9.828   3.979   4.829
59303SOL    HW279749   9.975   3.964   4.796
59304SOL     OW79750   9.871   1.930  11.407
59304SOL    HW179751   9.919   1.847  11.400
59304SOL    HW279752   9.825   1.938  11.323
59305SOL     OW79753   4.509  13.721   0.062
59305SOL    HW179754   4.501  13.657  14.868
59305SOL    HW279755   4.419  13.748   0.080
59306SOL     OW79756   6.002  13.931   2.824
59306SOL    HW179757   5.998  13.840   2.796
59306SOL    HW279758   6.001  13.926   2.920
59307SOL     OW79759   2.112   8.704  14.638
59307SOL    HW179760   2.057   8.641  14.591
59307SOL    HW279761   2.065   8.787  14.631
59308SOL     OW79762   9.691   3.168  12.664
59308SOL    HW179763   9.635   3.120  12.725
59308SOL    HW279764   9.641   3.171  12.582
59309SOL     OW79765  11.115   7.441  14.454
59309SOL    HW179766  11.113   7.381  14.528
59309SOL    HW279767  11.201   7.429  14.415
59310SOL     OW79768   8.067   6.631   5.939
59310SOL    HW179769   8.017   6.620   5.858
59310SOL    HW279770   8.044   6.555   5.992
59311SOL     OW79771  12.177  12.891  13.905
59311SOL    HW179772  12.177  12.921  13.996
59311SOL    HW279773  12.232  12.813  13.906
59312SOL     OW79774   0.209   2.964   2.727
59312SOL    HW179775   0.290   2.917   2.708
59312SOL    HW279776   0.230   3.018   2.802
59313SOL     OW79777   2.521   2.144  12.768
59313SOL    HW179778   2.476   2.182  12.844
59313SOL    HW279779   2.566   2.218  12.728
59314SOL     OW79780   9.345   2.255  13.524
59314SOL    HW179781   9.302   2.234  13.606
59314SOL    HW279782   9.329   2.179  13.468
59315SOL     OW79783   1.742  11.651  12.024
59315SOL    HW179784   1.718  11.589  12.093
59315SOL    HW279785   1.837  11.661  12.032
59316SOL     OW79786   2.394   7.324   2.227
59316SOL    HW179787   2.347   7.244   2.248
59316SOL    HW279788   2.469   7.295   2.175
59317SOL     OW79789  10.881   0.934  11.014
59317SOL    HW179790  10.853   1.017  10.976
59317SOL    HW279791  10.919   0.958  11.099
59318SOL     OW79792   1.470  12.933  11.704
59318SOL    HW179793   1.441  12.855  11.657
59318SOL    HW279794   1.552  12.957  11.661
59319SOL     OW79795   3.305   8.572   1.384
59319SOL    HW179796   3.269   8.524   1.310
59319SOL    HW279797   3.237   8.635   1.407
59320SOL     OW79798   0.105   3.727   1.506
59320SOL    HW179799   0.016   3.697   1.525
59320SOL    HW279800   0.161   3.660   1.544
59321SOL     OW79801   3.620   1.270   4.008
59321SOL    HW179802   3.693   1.270   4.069
59321SOL    HW279803   3.591   1.179   4.004
59322SOL     OW79804  12.954  10.007  11.498
59322SOL    HW179805  12.971   9.933  11.558
59322SOL    HW279806  12.875   9.982  11.451
59323SOL     OW79807   8.936  13.681  10.555
59323SOL    HW179808   9.001  13.675  10.626
59323SOL    HW279809   8.852  13.664  10.599
59324SOL     OW79810   8.134   7.148   4.890
59324SOL    HW179811   8.067   7.213   4.870
59324SOL    HW279812   8.206   7.169   4.831
59325SOL     OW79813   0.972   6.836   5.479
59325SOL    HW179814   0.946   6.810   5.390
59325SOL    HW279815   1.063   6.863   5.470
59326SOL     OW79816  10.040   9.522   2.178
59326SOL    HW179817   9.971   9.465   2.143
59326SOL    HW279818  10.086   9.468   2.242
59327SOL     OW79819   3.106  14.846   9.474
59327SOL    HW179820   3.088  14.828   9.382
59327SOL    HW279821   3.039  14.795   9.521
59328SOL     OW79822   4.735  12.150   7.758
59328SOL    HW179823   4.750  12.102   7.677
59328SOL    HW279824   4.809  12.125   7.814
59329SOL     OW79825   8.733   3.701   4.067
59329SOL    HW179826   8.717   3.639   3.996
59329SOL    HW279827   8.697   3.658   4.145
59330SOL     OW79828  12.793   7.838   0.842
59330SOL    HW179829  12.711   7.872   0.878
59330SOL    HW279830  12.858   7.905   0.863
59331SOL     OW79831   1.275   8.322   1.644
59331SOL    HW179832   1.235   8.374   1.575
59331SOL    HW279833   1.368   8.346   1.641
59332SOL     OW79834  13.482   3.739   4.300
59332SOL    HW179835  13.473   3.732   4.395
59332SOL    HW279836  13.392   3.738   4.267
59333SOL     OW79837   2.971   5.751   4.924
59333SOL    HW179838   2.880   5.759   4.894
59333SOL    HW279839   2.988   5.834   4.969
59334SOL     OW79840  12.599   1.068   6.831
59334SOL    HW179841  12.692   1.048   6.838
59334SOL    HW279842  12.590   1.157   6.866
59335SOL     OW79843   8.682   5.622  12.108
59335SOL    HW179844   8.666   5.701  12.057
59335SOL    HW279845   8.768   5.592  12.079
59336SOL     OW79846   6.570   7.540  14.854
59336SOL    HW179847   6.594   7.451  14.826
59336SOL    HW279848   6.523   7.576  14.779
59337SOL     OW79849   6.152   2.341   3.411
59337SOL    HW179850   6.235   2.307   3.379
59337SOL    HW279851   6.141   2.300   3.497
59338SOL     OW79852   4.283   0.030   0.497
59338SOL    HW179853   4.196   0.016   0.534
59338SOL    HW279854   4.338   0.048   0.573
59339SOL     OW79855   8.377  13.517  10.063
59339SOL    HW179856   8.338  13.538   9.978
59339SOL    HW279857   8.373  13.422  10.068
59340SOL     OW79858   3.316   7.159  13.767
59340SOL    HW179859   3.244   7.169  13.829
59340SOL    HW279860   3.339   7.066  13.771
59341SOL     OW79861   2.436   3.383   6.568
59341SOL    HW179862   2.475   3.427   6.493
59341SOL    HW279863   2.505   3.384   6.635
59342SOL     OW79864  11.417  13.480   6.249
59342SOL    HW179865  11.344  13.536   6.276
59342SOL    HW279866  11.375  13.399   6.218
59343SOL     OW79867   7.109  10.540  11.143
59343SOL    HW179868   7.042  10.570  11.082
59343SOL    HW279869   7.089  10.586  11.225
59344SOL     OW79870   8.270   6.471  11.103
59344SOL    HW179871   8.290   6.444  11.192
59344SOL    HW279872   8.354   6.464  11.057
59345SOL     OW79873   3.413   6.480   6.817
59345SOL    HW179874   3.492   6.426   6.822
59345SOL    HW279875   3.424   6.530   6.736
59346SOL     OW79876   3.253   7.947  13.392
59346SOL    HW179877   3.189   8.008  13.357
59346SOL    HW279878   3.215   7.860  13.378
59347SOL     OW79879  12.272   5.902   3.924
59347SOL    HW179880  12.246   5.915   4.016
59347SOL    HW279881  12.212   5.835   3.892
59348SOL     OW79882   2.429   1.625  11.524
59348SOL    HW179883   2.375   1.551  11.498
59348SOL    HW279884   2.367   1.698  11.532
59349SOL     OW79885   7.387   2.595  13.847
59349SOL    HW179886   7.385   2.691  13.847
59349SOL    HW279887   7.434   2.573  13.766
59350SOL     OW79888   2.606   6.866  14.553
59350SOL    HW179889   2.586   6.898  14.465
59350SOL    HW279890   2.522   6.831  14.585
59351SOL     OW79891   7.053   2.887   0.626
59351SOL    HW179892   7.128   2.844   0.584
59351SOL    HW279893   7.073   2.881   0.720
59352SOL     OW79894  11.681   9.638   7.543
59352SOL    HW179895  11.616   9.644   7.473
59352SOL    HW279896  11.715   9.727   7.551
59353SOL     OW79897   5.116   5.489   7.938
59353SOL    HW179898   5.095   5.543   7.862
59353SOL    HW279899   5.161   5.548   7.998
59354SOL     OW79900  13.235  12.972   5.814
59354SOL    HW179901  13.211  12.881   5.827
59354SOL    HW279902  13.326  12.970   5.784
59355SOL     OW79903   9.344   9.539   7.492
59355SOL    HW179904   9.416   9.483   7.462
59355SOL    HW279905   9.265   9.490   7.472
59356SOL     OW79906  13.908   8.063   9.376
59356SOL    HW179907  13.851   7.987   9.390
59356SOL    HW279908  13.850   8.129   9.337
59357SOL     OW79909  10.843  13.051  12.712
59357SOL    HW179910  10.785  13.074  12.639
59357SOL    HW279911  10.831  13.122  12.775
59358SOL     OW79912   1.096  10.872  12.225
59358SOL    HW179913   1.088  10.841  12.315
59358SOL    HW279914   1.160  10.943  12.229
59359SOL     OW79915  14.575   7.243   2.384
59359SOL    HW179916  14.562   7.301   2.308
59359SOL    HW279917  14.567   7.301   2.459
59360SOL     OW79918   1.390  10.415  11.746
59360SOL    HW179919   1.417  10.330  11.779
59360SOL    HW279920   1.309  10.398  11.698
59361SOL     OW79921  12.694   1.563  10.216
59361SOL    HW179922  12.667   1.645  10.174
59361SOL    HW279923  12.615   1.509  10.215
59362SOL     OW79924  13.786   1.300   7.837
59362SOL    HW179925  13.745   1.244   7.771
59362SOL    HW279926  13.793   1.244   7.915
59363SOL     OW79927   1.408   2.435   1.285
59363SOL    HW179928   1.382   2.455   1.375
59363SOL    HW279929   1.494   2.395   1.293
59364SOL     OW79930   0.623  11.855   7.794
59364SOL    HW179931   0.536  11.833   7.829
59364SOL    HW279932   0.615  11.840   7.700
59365SOL     OW79933   5.103  11.857   8.665
59365SOL    HW179934   5.015  11.844   8.629
59365SOL    HW279935   5.161  11.846   8.590
59366SOL     OW79936   2.174   0.229  13.737
59366SOL    HW179937   2.210   0.318  13.741
59366SOL    HW279938   2.236   0.180  13.684
59367SOL     OW79939   0.936   9.568   2.233
59367SOL    HW179940   0.901   9.608   2.312
59367SOL    HW279941   0.862   9.562   2.173
59368SOL     OW79942   9.711   1.093   6.828
59368SOL    HW179943   9.677   1.031   6.764
59368SOL    HW279944   9.799   1.115   6.796
59369SOL     OW79945   7.814   9.010   8.020
59369SOL    HW179946   7.758   8.947   8.067
59369SOL    HW279947   7.814   9.088   8.075
59370SOL     OW79948   9.074   0.515   3.666
59370SOL    HW179949   9.033   0.435   3.633
59370SOL    HW279950   9.008   0.583   3.650
59371SOL     OW79951   9.091   4.310   1.297
59371SOL    HW179952   9.083   4.238   1.235
59371SOL    HW279953   9.025   4.374   1.270
59372SOL     OW79954   3.719  11.214   2.830
59372SOL    HW179955   3.717  11.278   2.901
59372SOL    HW279956   3.763  11.138   2.868
59373SOL     OW79957   9.109   6.599   4.652
59373SOL    HW179958   9.025   6.574   4.690
59373SOL    HW279959   9.097   6.689   4.623
59374SOL     OW79960  10.891   0.750   4.733
59374SOL    HW179961  10.964   0.691   4.713
59374SOL    HW279962  10.933   0.833   4.757
59375SOL     OW79963   2.497   3.822   5.053
59375SOL    HW179964   2.448   3.759   5.000
59375SOL    HW279965   2.457   3.815   5.140
59376SOL     OW79966   1.204   6.434   6.163
59376SOL    HW179967   1.187   6.389   6.081
59376SOL    HW279968   1.187   6.369   6.231
59377SOL     OW79969   6.137   9.748   6.296
59377SOL    HW179970   6.175   9.713   6.215
59377SOL    HW279971   6.124   9.670   6.351
59378SOL     OW79972   1.455   3.688  11.481
59378SOL    HW179973   1.535   3.659  11.526
59378SOL    HW279974   1.397   3.717  11.552
59379SOL     OW79975   2.384  10.205  14.026
59379SOL    HW179976   2.327  10.261  14.080
59379SOL    HW279977   2.405  10.131  14.083
59380SOL     OW79978  13.726   4.549  11.669
59380SOL    HW179979  13.726   4.454  11.666
59380SOL    HW279980  13.642   4.571  11.711
59381SOL     OW79981   3.300   3.273   4.580
59381SOL    HW179982   3.257   3.192   4.609
59381SOL    HW279983   3.289   3.333   4.653
59382SOL     OW79984   1.769   0.493   9.012
59382SOL    HW179985   1.756   0.474   9.105
59382SOL    HW279986   1.853   0.453   8.990
59383SOL     OW79987   8.777  13.187   6.141
59383SOL    HW179988   8.695  13.200   6.094
59383SOL    HW279989   8.824  13.270   6.131
59384SOL     OW79990  13.615  12.907   0.580
59384SOL    HW179991  13.627  12.917   0.675
59384SOL    HW279992  13.538  12.961   0.561
59385SOL     OW79993  10.624   8.192   7.391
59385SOL    HW179994  10.658   8.192   7.301
59385SOL    HW279995  10.545   8.246   7.386
59386SOL     OW79996  14.198   3.328   2.693
59386SOL    HW179997  14.226   3.409   2.735
59386SOL    HW279998  14.146   3.282   2.759
59387SOL     OW79999  14.759  14.697   1.908
59387SOL    HW180000  14.843  14.735   1.882
59387SOL    HW280001  14.719  14.763   1.964
59388SOL     OW80002   5.441  12.183   4.638
59388SOL    HW180003   5.444  12.210   4.546
59388SOL    HW280004   5.427  12.265   4.686
59389SOL     OW80005   4.122  13.413   4.430
59389SOL    HW180006   4.197  13.416   4.370
59389SOL    HW280007   4.080  13.330   4.410
59390SOL     OW80008   9.335  11.105  13.789
59390SOL    HW180009   9.349  11.144  13.875
59390SOL    HW280010   9.254  11.146  13.757
59391SOL     OW80011   0.457   1.435   4.575
59391SOL    HW180012   0.461   1.495   4.501
59391SOL    HW280013   0.435   1.491   4.650
59392SOL     OW80014   3.045   9.253   7.412
59392SOL    HW180015   2.997   9.173   7.392
59392SOL    HW280016   2.980   9.311   7.451
59393SOL     OW80017   0.904   1.794   7.784
59393SOL    HW180018   0.946   1.879   7.799
59393SOL    HW280019   0.847   1.809   7.708
59394SOL     OW80020   1.079   5.026  14.370
59394SOL    HW180021   1.172   5.035  14.350
59394SOL    HW280022   1.038   5.009  14.286
59395SOL     OW80023   0.628   4.736  13.838
59395SOL    HW180024   0.547   4.685  13.830
59395SOL    HW280025   0.679   4.690  13.904
59396SOL     OW80026   5.154  10.356   9.659
59396SOL    HW180027   5.102  10.292   9.707
59396SOL    HW280028   5.245  10.332   9.678
59397SOL     OW80029   3.713   2.935   0.799
59397SOL    HW180030   3.799   2.946   0.756
59397SOL    HW280031   3.651   2.978   0.740
59398SOL     OW80032  11.725  12.696   8.061
59398SOL    HW180033  11.764  12.623   8.110
59398SOL    HW280034  11.757  12.774   8.106
59399SOL     OW80035   2.386   2.795   6.875
59399SOL    HW180036   2.307   2.844   6.894
59399SOL    HW280037   2.360   2.703   6.881
59400SOL     OW80038   5.229  14.854   2.537
59400SOL    HW180039   5.305  14.843   2.594
59400SOL    HW280040   5.254   0.048   2.477
59401SOL     OW80041  10.782   9.610   5.959
59401SOL    HW180042  10.698   9.601   6.004
59401SOL    HW280043  10.837   9.657   6.021
59402SOL     OW80044  11.405   9.001   3.583
59402SOL    HW180045  11.425   9.063   3.653
59402SOL    HW280046  11.432   8.916   3.619
59403SOL     OW80047   6.316   2.014   5.346
59403SOL    HW180048   6.310   2.099   5.303
59403SOL    HW280049   6.366   2.030   5.426
59404SOL     OW80050   2.159   1.224   2.069
59404SOL    HW180051   2.169   1.318   2.052
59404SOL    HW280052   2.218   1.206   2.142
59405SOL     OW80053  12.708   8.636   2.422
59405SOL    HW180054  12.694   8.723   2.384
59405SOL    HW280055  12.795   8.642   2.462
59406SOL     OW80056   6.798   7.441   7.298
59406SOL    HW180057   6.822   7.461   7.388
59406SOL    HW280058   6.730   7.506   7.277
59407SOL     OW80059   9.361   6.813   3.621
59407SOL    HW180060   9.435   6.868   3.643
59407SOL    HW280061   9.340   6.835   3.531
59408SOL     OW80062   4.075  10.822   2.182
59408SOL    HW180063   4.013  10.808   2.253
59408SOL    HW280064   4.030  10.880   2.120
59409SOL     OW80065   8.355  11.105  10.179
59409SOL    HW180066   8.342  11.028  10.236
59409SOL    HW280067   8.445  11.132  10.197
59410SOL     OW80068   2.866   7.981   8.198
59410SOL    HW180069   2.921   7.939   8.264
59410SOL    HW280070   2.926   8.005   8.127
59411SOL     OW80071   7.679  11.227  11.424
59411SOL    HW180072   7.687  11.155  11.362
59411SOL    HW280073   7.721  11.194  11.504
59412SOL     OW80074  10.240   7.877  13.364
59412SOL    HW180075  10.309   7.848  13.305
59412SOL    HW280076  10.285   7.894  13.447
59413SOL     OW80077   2.864   2.627   6.161
59413SOL    HW180078   2.776   2.593   6.145
59413SOL    HW280079   2.868   2.709   6.113
59414SOL     OW80080   7.646   8.903   0.367
59414SOL    HW180081   7.602   8.906   0.282
59414SOL    HW280082   7.583   8.940   0.428
59415SOL     OW80083   5.137  11.160   5.448
59415SOL    HW180084   5.103  11.143   5.361
59415SOL    HW280085   5.155  11.254   5.449
59416SOL     OW80086   1.290   1.846   6.670
59416SOL    HW180087   1.369   1.817   6.625
59416SOL    HW280088   1.269   1.775   6.731
59417SOL     OW80089   7.556   6.171   9.405
59417SOL    HW180090   7.584   6.173   9.314
59417SOL    HW280091   7.470   6.128   9.403
59418SOL     OW80092   0.240   4.204   9.071
59418SOL    HW180093   0.264   4.154   8.993
59418SOL    HW280094   0.144   4.199   9.074
59419SOL     OW80095  11.561   9.447   5.858
59419SOL    HW180096  11.638   9.428   5.804
59419SOL    HW280097  11.548   9.541   5.847
59420SOL     OW80098  12.842  12.984   8.895
59420SOL    HW180099  12.873  13.040   8.965
59420SOL    HW280100  12.922  12.958   8.848
59421SOL     OW80101  10.782   3.055   8.007
59421SOL    HW180102  10.735   3.113   7.948
59421SOL    HW280103  10.718   2.988   8.031
59422SOL     OW80104  13.340  12.703  10.474
59422SOL    HW180105  13.424  12.730  10.437
59422SOL    HW280106  13.275  12.753  10.425
59423SOL     OW80107   5.498   4.034  11.751
59423SOL    HW180108   5.414   4.079  11.759
59423SOL    HW280109   5.489   3.980  11.673
59424SOL     OW80110   3.742  13.983   2.358
59424SOL    HW180111   3.792  13.923   2.302
59424SOL    HW280112   3.807  14.017   2.420
59425SOL     OW80113   6.884   9.440  14.195
59425SOL    HW180114   6.904   9.370  14.258
59425SOL    HW280115   6.955   9.434  14.131
59426SOL     OW80116   3.936   1.086   2.652
59426SOL    HW180117   3.944   1.099   2.558
59426SOL    HW280118   3.878   1.156   2.682
59427SOL     OW80119   7.206   3.891   1.852
59427SOL    HW180120   7.167   3.977   1.868
59427SOL    HW280121   7.284   3.909   1.800
59428SOL     OW80122  14.639  11.432   6.067
59428SOL    HW180123  14.569  11.441   6.002
59428SOL    HW280124  14.718  11.420   6.015
59429SOL     OW80125  10.011  12.747   0.090
59429SOL    HW180126  10.087  12.804   0.107
59429SOL    HW280127   9.938  12.792   0.132
59430SOL     OW80128   8.259   1.372  14.191
59430SOL    HW180129   8.337   1.320  14.212
59430SOL    HW280130   8.293   1.461  14.179
59431SOL     OW80131   2.490  14.378   3.185
59431SOL    HW180132   2.480  14.335   3.270
59431SOL    HW280133   2.457  14.467   3.199
59432SOL     OW80134   3.702   3.725  10.491
59432SOL    HW180135   3.630   3.728  10.553
59432SOL    HW280136   3.681   3.652  10.433
59433SOL     OW80137  13.409   5.142  14.356
59433SOL    HW180138  13.372   5.222  14.393
59433SOL    HW280139  13.408   5.158  14.261
59434SOL     OW80140  12.090   2.853   3.651
59434SOL    HW180141  12.044   2.913   3.710
59434SOL    HW280142  12.043   2.860   3.568
59435SOL     OW80143   0.828   1.512   8.071
59435SOL    HW180144   0.894   1.456   8.029
59435SOL    HW280145   0.815   1.583   8.008
59436SOL     OW80146  10.796   7.539   2.108
59436SOL    HW180147  10.875   7.570   2.153
59436SOL    HW280148  10.823   7.530   2.016
59437SOL     OW80149   4.927  14.727   7.925
59437SOL    HW180150   4.907  14.755   8.014
59437SOL    HW280151   4.842  14.709   7.885
59438SOL     OW80152   1.145   9.126  12.978
59438SOL    HW180153   1.170   9.057  13.039
59438SOL    HW280154   1.073   9.172  13.021
59439SOL     OW80155   1.108   9.839   1.727
59439SOL    HW180156   1.196   9.804   1.740
59439SOL    HW280157   1.081   9.806   1.641
59440SOL     OW80158   1.835   0.139  12.117
59440SOL    HW180159   1.838   0.070  12.184
59440SOL    HW280160   1.893   0.207  12.151
59441SOL     OW80161   9.292   2.476   6.827
59441SOL    HW180162   9.273   2.388   6.795
59441SOL    HW280163   9.259   2.477   6.917
59442SOL     OW80164   7.084   6.818  14.484
59442SOL    HW180165   7.021   6.780  14.422
59442SOL    HW280166   7.163   6.831  14.432
59443SOL     OW80167   3.266  12.511   6.043
59443SOL    HW180168   3.264  12.497   6.138
59443SOL    HW280169   3.342  12.568   6.029
59444SOL     OW80170   4.807   6.101   8.231
59444SOL    HW180171   4.717   6.106   8.197
59444SOL    HW280172   4.826   6.189   8.263
59445SOL     OW80173   8.435   8.461   7.105
59445SOL    HW180174   8.341   8.445   7.111
59445SOL    HW280175   8.442   8.553   7.081
59446SOL     OW80176   1.623   7.377   7.265
59446SOL    HW180177   1.708   7.357   7.306
59446SOL    HW280178   1.632   7.467   7.234
59447SOL     OW80179  10.808   7.191   8.098
59447SOL    HW180180  10.876   7.179   8.032
59447SOL    HW280181  10.786   7.284   8.093
59448SOL     OW80182   9.847   1.915   6.303
59448SOL    HW180183   9.911   1.945   6.238
59448SOL    HW280184   9.772   1.974   6.293
59449SOL     OW80185   8.132   2.471   8.110
59449SOL    HW180186   8.200   2.537   8.096
59449SOL    HW280187   8.111   2.477   8.203
59450SOL     OW80188  14.431  10.507   8.114
59450SOL    HW180189  14.371  10.474   8.047
59450SOL    HW280190  14.463  10.590   8.079
59451SOL     OW80191   6.084  11.984   0.826
59451SOL    HW180192   6.112  12.072   0.853
59451SOL    HW280193   6.161  11.948   0.781
59452SOL     OW80194   3.884   4.276   5.173
59452SOL    HW180195   3.852   4.326   5.099
59452SOL    HW280196   3.808   4.266   5.231
59453SOL     OW80197  13.119   9.856  12.113
59453SOL    HW180198  13.104   9.950  12.119
59453SOL    HW280199  13.213   9.847  12.099
59454SOL     OW80200  10.917   3.909  10.472
59454SOL    HW180201  10.881   3.969  10.537
59454SOL    HW280202  10.842   3.857  10.443
59455SOL     OW80203   1.694   6.157   0.271
59455SOL    HW180204   1.613   6.158   0.220
59455SOL    HW280205   1.720   6.065   0.273
59456SOL     OW80206   8.073   2.614   4.713
59456SOL    HW180207   8.041   2.688   4.663
59456SOL    HW280208   8.007   2.546   4.702
59457SOL     OW80209   1.306   4.699  12.478
59457SOL    HW180210   1.392   4.657  12.479
59457SOL    HW280211   1.321   4.785  12.518
59458SOL     OW80212  10.460   0.547  10.875
59458SOL    HW180213  10.396   0.582  10.937
59458SOL    HW280214  10.524   0.618  10.865
59459SOL     OW80215  11.813  14.618  13.551
59459SOL    HW180216  11.771  14.577  13.475
59459SOL    HW280217  11.741  14.629  13.614
59460SOL     OW80218   5.558   3.021   3.264
59460SOL    HW180219   5.606   3.073   3.199
59460SOL    HW280220   5.626   2.970   3.308
59461SOL     OW80221   5.135   6.915   1.391
59461SOL    HW180222   5.093   6.932   1.476
59461SOL    HW280223   5.223   6.885   1.413
59462SOL     OW80224  13.984  12.557  12.164
59462SOL    HW180225  14.019  12.471  12.190
59462SOL    HW280226  13.981  12.607  12.246
59463SOL     OW80227   0.600  14.041   7.066
59463SOL    HW180228   0.686  14.082   7.072
59463SOL    HW280229   0.540  14.104   7.107
59464SOL     OW80230   9.311  14.532   9.519
59464SOL    HW180231   9.354  14.458   9.560
59464SOL    HW280232   9.347  14.609   9.563
59465SOL     OW80233  12.936  10.828  10.536
59465SOL    HW180234  12.943  10.845  10.442
59465SOL    HW280235  12.842  10.834  10.554
59466SOL     OW80236   6.904   8.037   1.220
59466SOL    HW180237   6.939   8.060   1.306
59466SOL    HW280238   6.911   7.942   1.216
59467SOL     OW80239   7.327  12.254   0.345
59467SOL    HW180240   7.303  12.336   0.387
59467SOL    HW280241   7.251  12.197   0.357
59468SOL     OW80242   8.867   1.861  10.040
59468SOL    HW180243   8.775   1.856  10.013
59468SOL    HW280244   8.915   1.815   9.972
59469SOL     OW80245  10.108   0.218   5.116
59469SOL    HW180246  10.173   0.264   5.064
59469SOL    HW280247  10.101   0.131   5.076
59470SOL     OW80248  13.114   2.887   5.959
59470SOL    HW180249  13.141   2.919   5.873
59470SOL    HW280250  13.065   2.960   5.997
59471SOL     OW80251  10.754  12.457  13.135
59471SOL    HW180252  10.749  12.546  13.170
59471SOL    HW280253  10.682  12.410  13.176
59472SOL     OW80254   4.729   8.544  12.094
59472SOL    HW180255   4.642   8.584  12.103
59472SOL    HW280256   4.751   8.515  12.182
59473SOL     OW80257  10.366  11.204   0.245
59473SOL    HW180258  10.409  11.274   0.196
59473SOL    HW280259  10.296  11.247   0.294
59474SOL     OW80260  11.272  13.686   0.381
59474SOL    HW180261  11.239  13.749   0.318
59474SOL    HW280262  11.280  13.735   0.463
59475SOL     OW80263  11.037   0.315   1.551
59475SOL    HW180264  10.950   0.308   1.590
59475SOL    HW280265  11.027   0.280   1.462
59476SOL     OW80266   9.521   1.564  12.741
59476SOL    HW180267   9.462   1.633  12.712
59476SOL    HW280268   9.484   1.535  12.825
59477SOL     OW80269   4.166   9.798   0.492
59477SOL    HW180270   4.227   9.843   0.550
59477SOL    HW280271   4.218   9.775   0.415
59478SOL     OW80272  13.992   2.939   9.666
59478SOL    HW180273  14.031   3.013   9.619
59478SOL    HW280274  13.902   2.966   9.683
59479SOL     OW80275  12.579   6.806   7.014
59479SOL    HW180276  12.584   6.762   6.929
59479SOL    HW280277  12.485   6.821   7.028
59480SOL     OW80278  12.211   6.165   8.421
59480SOL    HW180279  12.149   6.179   8.349
59480SOL    HW280280  12.173   6.093   8.472
59481SOL     OW80281   0.429   9.540   6.886
59481SOL    HW180282   0.475   9.482   6.825
59481SOL    HW280283   0.475   9.624   6.878
59482SOL     OW80284  11.945  14.583   0.145
59482SOL    HW180285  11.973  14.500   0.184
59482SOL    HW280286  12.006  14.596   0.071
59483SOL     OW80287   6.603   4.116  10.587
59483SOL    HW180288   6.544   4.181  10.548
59483SOL    HW280289   6.587   4.036  10.537
59484SOL     OW80290   6.387  10.300   6.865
59484SOL    HW180291   6.394  10.266   6.776
59484SOL    HW280292   6.376  10.223   6.919
59485SOL     OW80293   9.888   8.993   9.168
59485SOL    HW180294   9.927   9.079   9.154
59485SOL    HW280295   9.920   8.965   9.254
59486SOL     OW80296   8.022  14.745   0.440
59486SOL    HW180297   7.958  14.700   0.495
59486SOL    HW280298   7.975  14.821   0.406
59487SOL     OW80299  12.011   1.353   7.314
59487SOL    HW180300  11.917   1.367   7.314
59487SOL    HW280301  12.048   1.437   7.340
59488SOL     OW80302   2.112  12.074  12.792
59488SOL    HW180303   2.129  12.044  12.703
59488SOL    HW280304   2.105  12.169  12.785
59489SOL     OW80305  10.400   0.259   0.222
59489SOL    HW180306  10.475   0.200   0.211
59489SOL    HW280307  10.439   0.342   0.251
59490SOL     OW80308  12.687   1.322   3.155
59490SOL    HW180309  12.733   1.248   3.194
59490SOL    HW280310  12.757   1.377   3.120
59491SOL     OW80311   6.986   3.548  12.386
59491SOL    HW180312   7.049   3.540  12.314
59491SOL    HW280313   7.017   3.623  12.437
59492SOL     OW80314   2.730   8.080  12.085
59492SOL    HW180315   2.780   8.118  12.157
59492SOL    HW280316   2.642   8.118  12.093
59493SOL     OW80317   7.545  11.870   7.483
59493SOL    HW180318   7.497  11.917   7.415
59493SOL    HW280319   7.478  11.841   7.544
59494SOL     OW80320   9.733   3.735   6.953
59494SOL    HW180321   9.808   3.731   6.893
59494SOL    HW280322   9.715   3.828   6.963
59495SOL     OW80323  14.452  14.417  11.410
59495SOL    HW180324  14.400  14.407  11.330
59495SOL    HW280325  14.542  14.426  11.379
59496SOL     OW80326  13.425  10.272   7.796
59496SOL    HW180327  13.458  10.354   7.759
59496SOL    HW280328  13.330  10.285   7.803
59497SOL     OW80329  10.009  12.800   8.523
59497SOL    HW180330  10.039  12.794   8.614
59497SOL    HW280331  10.089  12.810   8.473
59498SOL     OW80332   1.561   0.158   5.716
59498SOL    HW180333   1.543   0.220   5.787
59498SOL    HW280334   1.498   0.087   5.730
59499SOL     OW80335   8.219   3.784   5.048
59499SOL    HW180336   8.163   3.859   5.067
59499SOL    HW280337   8.309   3.817   5.058
59500SOL     OW80338   4.705  11.108   8.349
59500SOL    HW180339   4.674  11.023   8.318
59500SOL    HW280340   4.791  11.090   8.385
59501SOL     OW80341  11.314   9.973   7.255
59501SOL    HW180342  11.282  10.062   7.269
59501SOL    HW280343  11.241   9.916   7.281
59502SOL     OW80344   3.883  13.266   5.900
59502SOL    HW180345   3.950  13.206   5.866
59502SOL    HW280346   3.838  13.215   5.968
59503SOL     OW80347  12.696   8.901   2.302
59503SOL    HW180348  12.712   8.962   2.374
59503SOL    HW280349  12.754   8.931   2.232
59504SOL     OW80350   8.786  14.196   7.963
59504SOL    HW180351   8.857  14.191   8.026
59504SOL    HW280352   8.787  14.112   7.918
59505SOL     OW80353  10.719   6.010   2.662
59505SOL    HW180354  10.764   5.950   2.722
59505SOL    HW280355  10.709   6.091   2.713
59506SOL     OW80356  14.007  14.216   1.622
59506SOL    HW180357  14.032  14.298   1.665
59506SOL    HW280358  13.925  14.235   1.578
59507SOL     OW80359   7.083   6.664   7.891
59507SOL    HW180360   7.042   6.591   7.845
59507SOL    HW280361   7.036   6.741   7.859
59508SOL     OW80362   0.267  11.391   0.184
59508SOL    HW180363   0.242  11.440   0.262
59508SOL    HW280364   0.219  11.434   0.113
59509SOL     OW80365   9.548   8.822   3.191
59509SOL    HW180366   9.529   8.734   3.224
59509SOL    HW280367   9.512   8.824   3.103
59510SOL     OW80368   6.288   8.787   9.025
59510SOL    HW180369   6.339   8.839   8.964
59510SOL    HW280370   6.228   8.849   9.067
59511SOL     OW80371  14.661  10.498   0.795
59511SOL    HW180372  14.720  10.456   0.733
59511SOL    HW280373  14.685  10.591   0.791
59512SOL     OW80374  10.795   3.015   9.785
59512SOL    HW180375  10.756   3.103   9.782
59512SOL    HW280376  10.887   3.031   9.805
59513SOL     OW80377  12.086   7.991   9.214
59513SOL    HW180378  12.091   7.950   9.300
59513SOL    HW280379  12.049   7.923   9.157
59514SOL     OW80380  12.910   9.923   9.919
59514SOL    HW180381  12.951  10.000   9.960
59514SOL    HW280382  12.984   9.867   9.895
59515SOL     OW80383   1.281   2.356   2.153
59515SOL    HW180384   1.292   2.441   2.195
59515SOL    HW280385   1.366   2.312   2.165
59516SOL     OW80386   6.433   7.814  11.804
59516SOL    HW180387   6.515   7.860  11.784
59516SOL    HW280388   6.372   7.884  11.828
59517SOL     OW80389  12.755   2.120   6.721
59517SOL    HW180390  12.834   2.110   6.775
59517SOL    HW280391  12.779   2.185   6.655
59518SOL     OW80392   5.426   7.689  12.070
59518SOL    HW180393   5.438   7.757  12.003
59518SOL    HW280394   5.364   7.627  12.030
59519SOL     OW80395   0.101   5.667  12.646
59519SOL    HW180396   0.070   5.605  12.712
59519SOL    HW280397   0.185   5.698  12.680
59520SOL     OW80398   8.323   6.225   9.514
59520SOL    HW180399   8.259   6.296   9.511
59520SOL    HW280400   8.400   6.261   9.471
59521SOL     OW80401   8.150  11.791  13.638
59521SOL    HW180402   8.207  11.715  13.653
59521SOL    HW280403   8.206  11.853  13.591
59522SOL     OW80404  12.762   1.561   1.406
59522SOL    HW180405  12.711   1.632   1.444
59522SOL    HW280406  12.754   1.573   1.311
59523SOL     OW80407  10.165   6.532   9.816
59523SOL    HW180408  10.224   6.462   9.844
59523SOL    HW280409  10.166   6.528   9.721
59524SOL     OW80410   3.791  14.577   2.285
59524SOL    HW180411   3.769  14.667   2.263
59524SOL    HW280412   3.731  14.524   2.232
59525SOL     OW80413   2.030   6.086   5.245
59525SOL    HW180414   1.979   6.163   5.268
59525SOL    HW280415   1.965   6.018   5.228
59526SOL     OW80416   1.662  10.673   0.839
59526SOL    HW180417   1.627  10.723   0.766
59526SOL    HW280418   1.728  10.730   0.878
59527SOL     OW80419  10.375   7.706   8.012
59527SOL    HW180420  10.416   7.683   8.095
59527SOL    HW280421  10.419   7.650   7.948
59528SOL     OW80422   3.883   8.289   4.156
59528SOL    HW180423   3.896   8.383   4.165
59528SOL    HW280424   3.964   8.257   4.116
59529SOL     OW80425  12.208   4.714   3.321
59529SOL    HW180426  12.130   4.691   3.270
59529SOL    HW280427  12.217   4.643   3.384
59530SOL     OW80428  13.663  10.816   9.726
59530SOL    HW180429  13.737  10.877   9.729
59530SOL    HW280430  13.687  10.746   9.787
59531SOL     OW80431  11.804   0.546   4.345
59531SOL    HW180432  11.735   0.480   4.350
59531SOL    HW280433  11.877   0.500   4.302
59532SOL     OW80434   1.272   1.035  14.374
59532SOL    HW180435   1.347   1.095  14.369
59532SOL    HW280436   1.203   1.078  14.324
59533SOL     OW80437  12.087   4.191  10.078
59533SOL    HW180438  12.023   4.232  10.136
59533SOL    HW280439  12.137   4.132  10.135
59534SOL     OW80440   1.426   0.939   3.677
59534SOL    HW180441   1.433   1.019   3.625
59534SOL    HW280442   1.438   0.868   3.614
59535SOL     OW80443   7.520   8.186   6.391
59535SOL    HW180444   7.434   8.223   6.411
59535SOL    HW280445   7.530   8.114   6.453
59536SOL     OW80446   7.671  12.239   2.882
59536SOL    HW180447   7.681  12.269   2.791
59536SOL    HW280448   7.753  12.195   2.902
59537SOL     OW80449  13.783   0.916   4.119
59537SOL    HW180450  13.724   0.874   4.057
59537SOL    HW280451  13.782   0.859   4.196
59538SOL     OW80452  14.281   2.878   6.134
59538SOL    HW180453  14.227   2.954   6.115
59538SOL    HW280454  14.232   2.829   6.200
59539SOL     OW80455  14.440   9.185   8.520
59539SOL    HW180456  14.522   9.209   8.564
59539SOL    HW280457  14.409   9.108   8.566
59540SOL     OW80458  10.314   0.067   8.768
59540SOL    HW180459  10.405   0.053   8.793
59540SOL    HW280460  10.276   0.115   8.842
59541SOL     OW80461   0.636  14.482   9.666
59541SOL    HW180462   0.679  14.412   9.715
59541SOL    HW280463   0.542  14.469   9.682
59542SOL     OW80464  11.478   9.744   4.602
59542SOL    HW180465  11.564   9.707   4.580
59542SOL    HW280466  11.432   9.673   4.647
59543SOL     OW80467   6.710   6.773   1.363
59543SOL    HW180468   6.736   6.714   1.434
59543SOL    HW280469   6.659   6.842   1.406
59544SOL     OW80470   1.834   3.363  13.377
59544SOL    HW180471   1.772   3.301  13.416
59544SOL    HW280472   1.849   3.428  13.446
59545SOL     OW80473   3.951  10.634   3.124
59545SOL    HW180474   3.984  10.705   3.179
59545SOL    HW280475   3.909  10.573   3.184
59546SOL     OW80476  11.571   6.369  14.410
59546SOL    HW180477  11.487   6.356  14.454
59546SOL    HW280478  11.616   6.435  14.462
59547SOL     OW80479   1.713   4.067   3.480
59547SOL    HW180480   1.769   4.058   3.402
59547SOL    HW280481   1.651   4.136   3.457
59548SOL     OW80482  13.949   4.901   4.032
59548SOL    HW180483  13.907   4.823   3.994
59548SOL    HW280484  13.877   4.965   4.039
59549SOL     OW80485   7.675   4.400   9.099
59549SOL    HW180486   7.760   4.444   9.100
59549SOL    HW280487   7.626   4.440   9.171
59550SOL     OW80488  13.260   9.008  11.971
59550SOL    HW180489  13.309   9.062  11.909
59550SOL    HW280490  13.319   8.936  11.993
59551SOL     OW80491   8.677  11.198   0.067
59551SOL    HW180492   8.603  11.257   0.057
59551SOL    HW280493   8.754  11.255   0.075
59552SOL     OW80494   6.627  12.967   9.793
59552SOL    HW180495   6.717  12.961   9.824
59552SOL    HW280496   6.573  12.961   9.872
59553SOL     OW80497   2.387   3.118  14.669
59553SOL    HW180498   2.356   3.206  14.693
59553SOL    HW280499   2.463   3.104  14.725
59554SOL     OW80500   9.292   3.444  13.916
59554SOL    HW180501   9.384   3.422  13.934
59554SOL    HW280502   9.265   3.497  13.991
59555SOL     OW80503  14.427   7.668   8.345
59555SOL    HW180504  14.334   7.663   8.369
59555SOL    HW280505  14.427   7.705   8.257
59556SOL     OW80506   7.666  12.532   2.308
59556SOL    HW180507   7.680  12.445   2.344
59556SOL    HW280508   7.728  12.538   2.236
59557SOL     OW80509   1.573   9.762   4.291
59557SOL    HW180510   1.491   9.715   4.306
59557SOL    HW280511   1.612   9.720   4.215
59558SOL     OW80512   2.423   5.070  11.466
59558SOL    HW180513   2.400   5.123  11.390
59558SOL    HW280514   2.411   4.980  11.437
59559SOL     OW80515   2.203   9.637   0.021
59559SOL    HW180516   2.117   9.651  14.859
59559SOL    HW280517   2.262   9.691  14.845
59560SOL     OW80518   7.743   8.636   9.224
59560SOL    HW180519   7.834   8.607   9.225
59560SOL    HW280520   7.747   8.728   9.251
59561SOL     OW80521   8.554   9.879   6.588
59561SOL    HW180522   8.552   9.796   6.635
59561SOL    HW280523   8.516   9.859   6.503
59562SOL     OW80524  13.959   4.750  12.549
59562SOL    HW180525  14.041   4.745  12.500
59562SOL    HW280526  13.966   4.681  12.615
59563SOL     OW80527   0.267  11.376  13.416
59563SOL    HW180528   0.336  11.341  13.360
59563SOL    HW280529   0.311  11.395  13.499
59564SOL     OW80530   8.303  13.260  10.046
59564SOL    HW180531   8.314  13.166  10.033
59564SOL    HW280532   8.210  13.270  10.070
59565SOL     OW80533   9.376   2.276   2.211
59565SOL    HW180534   9.406   2.195   2.169
59565SOL    HW280535   9.313   2.246   2.276
59566SOL     OW80536   3.119  14.041   2.843
59566SOL    HW180537   3.088  13.983   2.913
59566SOL    HW280538   3.039  14.067   2.797
59567SOL     OW80539   7.480   0.827   8.292
59567SOL    HW180540   7.446   0.739   8.281
59567SOL    HW280541   7.524   0.826   8.377
59568SOL     OW80542   4.446  12.099   9.090
59568SOL    HW180543   4.419  12.030   9.029
59568SOL    HW280544   4.432  12.061   9.176
59569SOL     OW80545   3.662   0.810  11.122
59569SOL    HW180546   3.711   0.855  11.054
59569SOL    HW280547   3.609   0.879  11.163
59570SOL     OW80548   1.775   6.238   5.615
59570SOL    HW180549   1.764   6.276   5.702
59570SOL    HW280550   1.709   6.169   5.610
59571SOL     OW80551   4.956  10.485  11.469
59571SOL    HW180552   4.909  10.516  11.392
59571SOL    HW280553   5.049  10.495  11.447
59572SOL     OW80554  11.436   9.289   2.940
59572SOL    HW180555  11.432   9.195   2.958
59572SOL    HW280556  11.530   9.308   2.937
59573SOL     OW80557   3.966   1.917  13.079
59573SOL    HW180558   3.981   1.977  13.006
59573SOL    HW280559   4.003   1.834  13.050
59574SOL     OW80560   8.279   4.141  10.377
59574SOL    HW180561   8.253   4.191  10.455
59574SOL    HW280562   8.360   4.098  10.403
59575SOL     OW80563  13.515   0.152   1.570
59575SOL    HW180564  13.538   0.095   1.497
59575SOL    HW280565  13.465   0.096   1.630
59576SOL     OW80566  11.702  12.544   3.602
59576SOL    HW180567  11.715  12.486   3.527
59576SOL    HW280568  11.786  12.590   3.611
59577SOL     OW80569  11.637  13.470  10.482
59577SOL    HW180570  11.700  13.466  10.411
59577SOL    HW280571  11.658  13.396  10.538
59578SOL     OW80572   0.777   1.665  10.081
59578SOL    HW180573   0.710   1.731  10.069
59578SOL    HW280574   0.758   1.625  10.166
59579SOL     OW80575   0.013   6.534  12.107
59579SOL    HW180576  14.870   6.581  12.188
59579SOL    HW280577  14.804   6.499  12.079
59580SOL     OW80578   3.732   3.950  11.299
59580SOL    HW180579   3.785   3.876  11.328
59580SOL    HW280580   3.645   3.913  11.286
59581SOL     OW80581  12.664   8.942  10.325
59581SOL    HW180582  12.705   9.022  10.291
59581SOL    HW280583  12.574   8.967  10.344
59582SOL     OW80584   1.719   4.191  11.868
59582SOL    HW180585   1.625   4.171  11.862
59582SOL    HW280586   1.725   4.255  11.939
59583SOL     OW80587   0.596  12.331   0.615
59583SOL    HW180588   0.660  12.260   0.622
59583SOL    HW280589   0.554  12.334   0.701
59584SOL     OW80590  13.194  12.042   7.773
59584SOL    HW180591  13.283  12.070   7.793
59584SOL    HW280592  13.141  12.074   7.846
59585SOL     OW80593   2.865   4.053  12.165
59585SOL    HW180594   2.935   4.054  12.230
59585SOL    HW280595   2.789   4.020  12.213
59586SOL     OW80596   4.325   3.114   5.578
59586SOL    HW180597   4.293   3.141   5.664
59586SOL    HW280598   4.249   3.121   5.520
59587SOL     OW80599  12.574   4.906  14.381
59587SOL    HW180600  12.554   4.813  14.394
59587SOL    HW280601  12.488   4.947  14.365
59588SOL     OW80602  14.357   7.875  11.302
59588SOL    HW180603  14.280   7.921  11.267
59588SOL    HW280604  14.320   7.803  11.352
59589SOL     OW80605  12.731   9.916  11.152
59589SOL    HW180606  12.795   9.849  11.174
59589SOL    HW280607  12.673   9.875  11.088
59590SOL     OW80608   5.288   4.562  11.170
59590SOL    HW180609   5.362   4.530  11.118
59590SOL    HW280610   5.275   4.494  11.237
59591SOL     OW80611   8.294   4.328  11.595
59591SOL    HW180612   8.256   4.278  11.523
59591SOL    HW280613   8.326   4.409  11.554
59592SOL     OW80614   6.269  13.268  12.610
59592SOL    HW180615   6.197  13.218  12.571
59592SOL    HW280616   6.253  13.264  12.704
59593SOL     OW80617  11.724   7.806  13.001
59593SOL    HW180618  11.745   7.738  12.937
59593SOL    HW280619  11.784   7.878  12.982
59594SOL     OW80620   4.668  11.852   5.745
59594SOL    HW180621   4.574  11.836   5.735
59594SOL    HW280622   4.702  11.846   5.656
59595SOL     OW80623   2.268   1.958  13.736
59595SOL    HW180624   2.288   1.985  13.825
59595SOL    HW280625   2.263   1.862  13.740
59596SOL     OW80626  12.210   8.751   7.308
59596SOL    HW180627  12.206   8.761   7.403
59596SOL    HW280628  12.140   8.807   7.275
59597SOL     OW80629   0.125   8.047   3.308
59597SOL    HW180630   0.121   8.136   3.344
59597SOL    HW280631   0.218   8.032   3.290
59598SOL     OW80632   7.478   8.132   2.437
59598SOL    HW180633   7.416   8.158   2.369
59598SOL    HW280634   7.554   8.188   2.423
59599SOL     OW80635  13.816  13.700  10.579
59599SOL    HW180636  13.743  13.640  10.593
59599SOL    HW280637  13.819  13.713  10.484
59600SOL     OW80638   1.078   5.917   5.698
59600SOL    HW180639   1.022   5.973   5.644
59600SOL    HW280640   1.141   5.879   5.636
59601SOL     OW80641  11.309   4.749  10.310
59601SOL    HW180642  11.256   4.776  10.385
59601SOL    HW280643  11.380   4.697  10.348
59602SOL     OW80644   4.363   7.249   6.731
59602SOL    HW180645   4.314   7.236   6.649
59602SOL    HW280646   4.347   7.341   6.754
59603SOL     OW80647   0.162   8.451  10.756
59603SOL    HW180648   0.162   8.360  10.728
59603SOL    HW280649   0.253   8.470  10.779
59604SOL     OW80650   1.798  14.479  11.790
59604SOL    HW180651   1.794  14.537  11.867
59604SOL    HW280652   1.871  14.511  11.739
59605SOL     OW80653  12.255   0.469   6.243
59605SOL    HW180654  12.233   0.526   6.316
59605SOL    HW280655  12.186   0.485   6.178
59606SOL     OW80656   1.452  13.095  11.067
59606SOL    HW180657   1.410  13.025  11.117
59606SOL    HW280658   1.419  13.084  10.978
59607SOL     OW80659   7.127   0.588  12.267
59607SOL    HW180660   7.219   0.610  12.248
59607SOL    HW280661   7.118   0.497  12.237
59608SOL     OW80662   8.440   7.666   0.155
59608SOL    HW180663   8.470   7.623   0.075
59608SOL    HW280664   8.494   7.745   0.160
59609SOL     OW80665   0.911   3.660  10.525
59609SOL    HW180666   0.920   3.630  10.616
59609SOL    HW280667   0.851   3.735  10.531
59610SOL     OW80668  14.546   7.505   9.600
59610SOL    HW180669  14.481   7.440   9.573
59610SOL    HW280670  14.497   7.586   9.609
59611SOL     OW80671   5.674   4.932   3.812
59611SOL    HW180672   5.580   4.953   3.805
59611SOL    HW280673   5.718   5.011   3.782
59612SOL     OW80674   2.622   8.369   3.456
59612SOL    HW180675   2.694   8.316   3.419
59612SOL    HW280676   2.654   8.394   3.543
59613SOL     OW80677  13.819  10.928   3.013
59613SOL    HW180678  13.753  10.909   2.947
59613SOL    HW280679  13.848  10.842   3.043
59614SOL     OW80680   2.496   2.369   8.167
59614SOL    HW180681   2.430   2.310   8.132
59614SOL    HW280682   2.447   2.450   8.187
59615SOL     OW80683   8.960  10.463   9.546
59615SOL    HW180684   9.049  10.439   9.518
59615SOL    HW280685   8.973  10.540   9.602
59616SOL     OW80686   5.726   2.965  12.500
59616SOL    HW180687   5.752   3.022  12.573
59616SOL    HW280688   5.807   2.922  12.474
59617SOL     OW80689  12.130   1.588  14.296
59617SOL    HW180690  12.167   1.672  14.322
59617SOL    HW280691  12.047   1.582  14.344
59618SOL     OW80692   0.942   4.506   4.011
59618SOL    HW180693   0.983   4.420   4.017
59618SOL    HW280694   0.877   4.507   4.081
59619SOL     OW80695  12.820   6.884   7.161
59619SOL    HW180696  12.733   6.875   7.123
59619SOL    HW280697  12.846   6.974   7.140
59620SOL     OW80698  10.803  10.687   2.812
59620SOL    HW180699  10.764  10.607   2.777
59620SOL    HW280700  10.888  10.694   2.769
59621SOL     OW80701   9.083   8.088   1.223
59621SOL    HW180702   9.052   8.177   1.239
59621SOL    HW280703   9.018   8.032   1.265
59622SOL     OW80704   8.645   6.822  11.139
59622SOL    HW180705   8.728   6.856  11.105
59622SOL    HW280706   8.623   6.881  11.211
59623SOL     OW80707   4.583  14.716   4.745
59623SOL    HW180708   4.571  14.621   4.744
59623SOL    HW280709   4.495  14.751   4.761
59624SOL     OW80710  14.640   2.090   1.447
59624SOL    HW180711  14.714   2.033   1.426
59624SOL    HW280712  14.587   2.089   1.367
59625SOL     OW80713   3.181  13.145   9.843
59625SOL    HW180714   3.096  13.113   9.872
59625SOL    HW280715   3.164  13.180   9.755
59626SOL     OW80716   3.107   7.777  14.401
59626SOL    HW180717   3.073   7.742  14.318
59626SOL    HW280718   3.193   7.812  14.379
59627SOL     OW80719   0.167  13.899   7.321
59627SOL    HW180720   0.169  13.868   7.412
59627SOL    HW280721   0.185  13.993   7.327
59628SOL     OW80722   2.388   8.842   1.285
59628SOL    HW180723   2.451   8.797   1.228
59628SOL    HW280724   2.406   8.809   1.373
59629SOL     OW80725  12.541  11.914  11.460
59629SOL    HW180726  12.561  11.865  11.540
59629SOL    HW280727  12.595  11.873  11.392
59630SOL     OW80728   2.054  12.994  12.187
59630SOL    HW180729   2.032  13.061  12.122
59630SOL    HW280730   2.003  13.017  12.264
59631SOL     OW80731   0.863  10.740   3.003
59631SOL    HW180732   0.930  10.790   3.048
59631SOL    HW280733   0.785  10.750   3.057
59632SOL     OW80734  11.718   3.739   7.609
59632SOL    HW180735  11.651   3.714   7.545
59632SOL    HW280736  11.688   3.700   7.691
59633SOL     OW80737  10.447  14.836  12.742
59633SOL    HW180738  10.394  14.846  12.662
59633SOL    HW280739  10.406  14.763  12.788
59634SOL     OW80740   5.701   8.748   0.772
59634SOL    HW180741   5.687   8.813   0.841
59634SOL    HW280742   5.790   8.716   0.788
59635SOL     OW80743  10.149   7.817   5.096
59635SOL    HW180744  10.099   7.742   5.067
59635SOL    HW280745  10.100   7.893   5.064
59636SOL     OW80746   2.666   3.773   9.314
59636SOL    HW180747   2.634   3.687   9.290
59636SOL    HW280748   2.727   3.757   9.386
59637SOL     OW80749   5.428   1.089   5.265
59637SOL    HW180750   5.371   1.106   5.190
59637SOL    HW280751   5.478   1.170   5.276
59638SOL     OW80752   8.901   7.861   3.282
59638SOL    HW180753   8.995   7.854   3.295
59638SOL    HW280754   8.871   7.922   3.350
59639SOL     OW80755  10.964   4.791   6.785
59639SOL    HW180756  10.988   4.775   6.694
59639SOL    HW280757  10.928   4.880   6.785
59640SOL     OW80758   8.021  13.566  14.078
59640SOL    HW180759   7.992  13.583  14.168
59640SOL    HW280760   8.067  13.483  14.084
59641SOL     OW80761  14.873  12.841   2.828
59641SOL    HW180762   0.056  12.773   2.796
59641SOL    HW280763   0.049  12.893   2.887
59642SOL     OW80764   1.988   8.158   9.739
59642SOL    HW180765   2.042   8.176   9.816
59642SOL    HW280766   1.942   8.239   9.722
59643SOL     OW80767   2.388   4.760   5.189
59643SOL    HW180768   2.405   4.777   5.096
59643SOL    HW280769   2.403   4.666   5.199
59644SOL     OW80770   3.854   4.820   7.530
59644SOL    HW180771   3.939   4.862   7.543
59644SOL    HW280772   3.844   4.761   7.604
59645SOL     OW80773   0.718  12.720  10.614
59645SOL    HW180774   0.651  12.653  10.603
59645SOL    HW280775   0.768  12.693  10.691
59646SOL     OW80776  12.924   0.415  10.136
59646SOL    HW180777  12.999   0.446  10.187
59646SOL    HW280778  12.946   0.438  10.046
59647SOL     OW80779   9.791   0.383  12.461
59647SOL    HW180780   9.873   0.360  12.417
59647SOL    HW280781   9.722   0.354  12.401
59648SOL     OW80782   4.064   1.964   6.139
59648SOL    HW180783   4.022   1.898   6.084
59648SOL    HW280784   4.003   1.977   6.212
59649SOL     OW80785   1.435   8.916   8.572
59649SOL    HW180786   1.426   8.826   8.540
59649SOL    HW280787   1.525   8.941   8.550
59650SOL     OW80788   9.207  12.774   9.356
59650SOL    HW180789   9.291  12.763   9.311
59650SOL    HW280790   9.226  12.834   9.428
59651SOL     OW80791   0.545   6.045   7.556
59651SOL    HW180792   0.528   6.138   7.570
59651SOL    HW280793   0.601   6.041   7.479
59652SOL     OW80794  10.271   8.205   1.731
59652SOL    HW180795  10.275   8.287   1.780
59652SOL    HW280796  10.275   8.137   1.798
59653SOL     OW80797   0.081   2.638  11.424
59653SOL    HW180798   0.001   2.612  11.470
59653SOL    HW280799   0.107   2.720  11.465
59654SOL     OW80800  13.864   5.960   8.836
59654SOL    HW180801  13.939   6.009   8.802
59654SOL    HW280802  13.871   5.970   8.931
59655SOL     OW80803   0.259  11.754  13.628
59655SOL    HW180804   0.314  11.677  13.641
59655SOL    HW280805   0.190  11.725  13.569
59656SOL     OW80806   7.862   4.860   5.831
59656SOL    HW180807   7.801   4.816   5.771
59656SOL    HW280808   7.923   4.791   5.857
59657SOL     OW80809  13.881  11.280  14.439
59657SOL    HW180810  13.939  11.354  14.460
59657SOL    HW280811  13.801  11.321  14.406
59658SOL     OW80812   7.674  13.727   2.637
59658SOL    HW180813   7.733  13.762   2.704
59658SOL    HW280814   7.700  13.636   2.628
59659SOL     OW80815   1.060   7.368   8.162
59659SOL    HW180816   1.093   7.442   8.110
59659SOL    HW280817   1.078   7.393   8.253
59660SOL     OW80818  11.054   4.816   9.805
59660SOL    HW180819  11.031   4.892   9.858
59660SOL    HW280820  11.010   4.742   9.849
59661SOL     OW80821  10.856  12.776   9.097
59661SOL    HW180822  10.867  12.776   9.002
59661SOL    HW280823  10.803  12.698   9.114
59662SOL     OW80824  11.689  13.686  14.078
59662SOL    HW180825  11.721  13.602  14.045
59662SOL    HW280826  11.735  13.751  14.026
59663SOL     OW80827   4.045   8.266  13.865
59663SOL    HW180828   4.083   8.296  13.783
59663SOL    HW280829   3.965   8.220  13.840
59664SOL     OW80830   8.254   0.985   8.716
59664SOL    HW180831   8.250   1.053   8.649
59664SOL    HW280832   8.171   0.937   8.707
59665SOL     OW80833   7.433  11.286   0.248
59665SOL    HW180834   7.514  11.270   0.200
59665SOL    HW280835   7.450  11.255   0.337
59666SOL     OW80836  13.033   1.788  10.453
59666SOL    HW180837  12.956   1.730  10.457
59666SOL    HW280838  13.093   1.742  10.395
59667SOL     OW80839  12.302  12.503  10.958
59667SOL    HW180840  12.286  12.418  10.997
59667SOL    HW280841  12.314  12.485  10.865
59668SOL     OW80842   7.261   2.710   5.048
59668SOL    HW180843   7.298   2.779   4.993
59668SOL    HW280844   7.331   2.688   5.110
59669SOL     OW80845  13.300   0.451   0.355
59669SOL    HW180846  13.289   0.367   0.400
59669SOL    HW280847  13.280   0.517   0.422
59670SOL     OW80848  14.839   7.016   8.276
59670SOL    HW180849   0.020   6.980   8.208
59670SOL    HW280850  14.840   7.111   8.260
59671SOL     OW80851   1.406   0.801   0.900
59671SOL    HW180852   1.359   0.839   0.826
59671SOL    HW280853   1.475   0.748   0.859
59672SOL     OW80854   2.517   5.104  10.963
59672SOL    HW180855   2.599   5.055  10.972
59672SOL    HW280856   2.450   5.036  10.951
59673SOL     OW80857   0.105  14.419   0.609
59673SOL    HW180858   0.045  14.346   0.622
59673SOL    HW280859   0.063  14.472   0.541
59674SOL     OW80860   7.325   9.830  12.774
59674SOL    HW180861   7.403   9.789  12.735
59674SOL    HW280862   7.281   9.872  12.700
59675SOL     OW80863   4.600   5.307   5.326
59675SOL    HW180864   4.650   5.232   5.357
59675SOL    HW280865   4.590   5.293   5.232
59676SOL     OW80866   8.486   6.718  11.594
59676SOL    HW180867   8.400   6.676  11.602
59676SOL    HW280868   8.475   6.801  11.640
59677SOL     OW80869   5.522  13.093   4.188
59677SOL    HW180870   5.572  13.156   4.240
59677SOL    HW280871   5.469  13.147   4.130
59678SOL     OW80872   8.038   9.804   0.341
59678SOL    HW180873   8.087   9.742   0.287
59678SOL    HW280874   8.035   9.764   0.428
59679SOL     OW80875  14.185   0.519  11.487
59679SOL    HW180876  14.145   0.556  11.565
59679SOL    HW280877  14.166   0.425  11.492
59680SOL     OW80878   2.996  11.153   3.261
59680SOL    HW180879   2.905  11.166   3.286
59680SOL    HW280880   3.009  11.209   3.185
59681SOL     OW80881  12.438   1.663   4.814
59681SOL    HW180882  12.363   1.661   4.874
59681SOL    HW280883  12.481   1.747   4.833
59682SOL     OW80884   5.031  10.834  10.458
59682SOL    HW180885   5.009  10.832  10.364
59682SOL    HW280886   4.995  10.917  10.489
59683SOL     OW80887   8.688  10.030   0.755
59683SOL    HW180888   8.750   9.982   0.700
59683SOL    HW280889   8.668   9.970   0.827
59684SOL     OW80890   1.667   4.309  12.286
59684SOL    HW180891   1.609   4.248  12.332
59684SOL    HW280892   1.755   4.278  12.306
59685SOL     OW80893  12.445   5.694  12.032
59685SOL    HW180894  12.414   5.719  11.945
59685SOL    HW280895  12.383   5.734  12.093
59686SOL     OW80896  11.092   3.776  10.885
59686SOL    HW180897  11.070   3.862  10.919
59686SOL    HW280898  11.011   3.725  10.894
59687SOL     OW80899   7.038   1.981   8.004
59687SOL    HW180900   6.965   1.944   8.053
59687SOL    HW280901   7.096   2.017   8.071
59688SOL     OW80902   3.334   2.429  11.265
59688SOL    HW180903   3.323   2.334  11.262
59688SOL    HW280904   3.249   2.464  11.238
59689SOL     OW80905   4.349   3.199  12.249
59689SOL    HW180906   4.399   3.126  12.212
59689SOL    HW280907   4.349   3.266  12.181
59690SOL     OW80908  14.306   9.833   0.290
59690SOL    HW180909  14.270   9.914   0.327
59690SOL    HW280910  14.236   9.769   0.303
59691SOL     OW80911   7.759   9.234   8.183
59691SOL    HW180912   7.674   9.263   8.151
59691SOL    HW280913   7.745   9.215   8.276
59692SOL     OW80914  13.732   4.765  12.803
59692SOL    HW180915  13.693   4.827  12.865
59692SOL    HW280916  13.723   4.808  12.718
59693SOL     OW80917   6.254   6.520  14.094
59693SOL    HW180918   6.253   6.426  14.075
59693SOL    HW280919   6.338   6.534  14.139
59694SOL     OW80920   9.881   2.491  13.065
59694SOL    HW180921   9.888   2.472  13.158
59694SOL    HW280922   9.788   2.509  13.051
59695SOL     OW80923  12.739   0.895  11.780
59695SOL    HW180924  12.756   0.913  11.873
59695SOL    HW280925  12.656   0.848  11.780
59696SOL     OW80926   9.852   1.602   7.814
59696SOL    HW180927   9.898   1.524   7.846
59696SOL    HW280928   9.904   1.631   7.739
59697SOL     OW80929  12.342   9.163   0.360
59697SOL    HW180930  12.350   9.213   0.278
59697SOL    HW280931  12.419   9.106   0.360
59698SOL     OW80932  13.519   3.841   0.056
59698SOL    HW180933  13.607   3.819   0.026
59698SOL    HW280934  13.468   3.761   0.042
59699SOL     OW80935   2.406   9.608   9.237
59699SOL    HW180936   2.326   9.564   9.268
59699SOL    HW280937   2.430   9.561   9.157
59700SOL     OW80938   8.784   7.579   0.292
59700SOL    HW180939   8.803   7.639   0.364
59700SOL    HW280940   8.796   7.632   0.213
59701SOL     OW80941   0.122  10.417   8.018
59701SOL    HW180942   0.042  10.469   8.023
59701SOL    HW280943   0.096  10.329   8.047
59702SOL     OW80944   7.426   4.205   1.431
59702SOL    HW180945   7.344   4.218   1.383
59702SOL    HW280946   7.445   4.112   1.422
59703SOL     OW80947   2.856   7.849   4.216
59703SOL    HW180948   2.872   7.756   4.234
59703SOL    HW280949   2.936   7.879   4.172
59704SOL     OW80950   3.717   4.750   6.648
59704SOL    HW180951   3.704   4.797   6.566
59704SOL    HW280952   3.786   4.800   6.693
59705SOL     OW80953  10.209  12.251   1.473
59705SOL    HW180954  10.267  12.320   1.504
59705SOL    HW280955  10.233  12.175   1.525
59706SOL     OW80956  11.791   2.084   7.774
59706SOL    HW180957  11.844   2.163   7.784
59706SOL    HW280958  11.730   2.086   7.847
59707SOL     OW80959  10.519   6.193   8.970
59707SOL    HW180960  10.438   6.150   8.943
59707SOL    HW280961  10.534   6.162   9.060
59708SOL     OW80962   2.673  13.343  14.326
59708SOL    HW180963   2.583  13.366  14.307
59708SOL    HW280964   2.718  13.350  14.242
59709SOL     OW80965  11.718   0.810   8.196
59709SOL    HW180966  11.796   0.816   8.141
59709SOL    HW280967  11.750   0.782   8.282
59710SOL     OW80968   1.655  11.343   8.472
59710SOL    HW180969   1.590  11.377   8.410
59710SOL    HW280970   1.701  11.274   8.424
59711SOL     OW80971   0.164   6.357   2.279
59711SOL    HW180972   0.106   6.432   2.268
59711SOL    HW280973   0.183   6.354   2.373
59712SOL     OW80974   5.950  13.378   5.336
59712SOL    HW180975   5.904  13.310   5.385
59712SOL    HW280976   5.940  13.457   5.389
59713SOL     OW80977   8.588   2.463  12.716
59713SOL    HW180978   8.531   2.427  12.784
59713SOL    HW280979   8.576   2.405  12.640
59714SOL     OW80980   3.637   6.142   4.939
59714SOL    HW180981   3.609   6.186   5.019
59714SOL    HW280982   3.630   6.048   4.960
59715SOL     OW80983   4.810   2.502   8.509
59715SOL    HW180984   4.784   2.501   8.601
59715SOL    HW280985   4.759   2.573   8.470
59716SOL     OW80986   4.743  11.989   5.982
59716SOL    HW180987   4.670  11.973   6.041
59716SOL    HW280988   4.725  11.934   5.906
59717SOL     OW80989  13.605   0.350   7.604
59717SOL    HW180990  13.516   0.316   7.613
59717SOL    HW280991  13.642   0.302   7.529
59718SOL     OW80992  13.843   8.320   4.318
59718SOL    HW180993  13.858   8.400   4.267
59718SOL    HW280994  13.844   8.348   4.409
59719SOL     OW80995   4.401   0.878   4.214
59719SOL    HW180996   4.436   0.803   4.263
59719SOL    HW280997   4.423   0.954   4.269
59720SOL     OW80998   1.567  12.621   8.958
59720SOL    HW180999   1.541  12.707   8.924
59720SOL    HW281000   1.527  12.558   8.898
59721SOL     OW81001  10.773   1.155   0.026
59721SOL    HW181002  10.774   1.243  14.865
59721SOL    HW281003  10.713   1.162   0.101
59722SOL     OW81004  13.331  13.589   6.139
59722SOL    HW181005  13.262  13.538   6.182
59722SOL    HW281006  13.379  13.526   6.086
59723SOL     OW81007   3.077   3.920   9.005
59723SOL    HW181008   3.096   4.002   8.959
59723SOL    HW281009   3.082   3.942   9.098
59724SOL     OW81010  12.148  11.393  10.845
59724SOL    HW181011  12.075  11.415  10.787
59724SOL    HW281012  12.131  11.302  10.871
59725SOL     OW81013   1.594   2.462   2.973
59725SOL    HW181014   1.556   2.416   3.047
59725SOL    HW281015   1.679   2.493   3.005
59726SOL     OW81016  12.083   6.639   4.770
59726SOL    HW181017  12.156   6.603   4.721
59726SOL    HW281018  12.121   6.671   4.851
59727SOL     OW81019   2.659  11.793  10.152
59727SOL    HW181020   2.697  11.706  10.169
59727SOL    HW281021   2.724  11.855  10.184
59728SOL     OW81022  13.042  10.792   5.460
59728SOL    HW181023  13.111  10.857   5.450
59728SOL    HW281024  12.999  10.814   5.542
59729SOL     OW81025  11.872   5.840   7.107
59729SOL    HW181026  11.837   5.885   7.030
59729SOL    HW281027  11.803   5.851   7.174
59730SOL     OW81028   5.633   4.368   4.381
59730SOL    HW181029   5.588   4.439   4.427
59730SOL    HW281030   5.645   4.402   4.292
59731SOL     OW81031   2.547   1.773   9.196
59731SOL    HW181032   2.567   1.742   9.285
59731SOL    HW281033   2.511   1.696   9.152
59732SOL     OW81034   7.008   2.033   3.320
59732SOL    HW181035   7.014   2.080   3.237
59732SOL    HW281036   7.098   2.024   3.350
59733SOL     OW81037   2.902   7.360   3.085
59733SOL    HW181038   2.865   7.448   3.089
59733SOL    HW281039   2.951   7.351   3.166
59734SOL     OW81040   5.440   3.720   0.307
59734SOL    HW181041   5.492   3.643   0.330
59734SOL    HW281042   5.426   3.765   0.390
59735SOL     OW81043   2.828   4.493  14.315
59735SOL    HW181044   2.749   4.530  14.274
59735SOL    HW281045   2.797   4.458  14.398
59736SOL     OW81046   2.851   8.461   8.691
59736SOL    HW181047   2.865   8.370   8.715
59736SOL    HW281048   2.925   8.508   8.730
59737SOL     OW81049   3.352   5.909   5.252
59737SOL    HW181050   3.427   5.853   5.268
59737SOL    HW281051   3.285   5.851   5.216
59738SOL     OW81052   5.101   1.664  12.955
59738SOL    HW181053   5.176   1.656  13.015
59738SOL    HW281054   5.070   1.753  12.965
59739SOL     OW81055   3.227   4.030   6.347
59739SOL    HW181056   3.255   4.121   6.345
59739SOL    HW281057   3.286   3.988   6.410
59740SOL     OW81058   7.459  10.593   4.244
59740SOL    HW181059   7.436  10.552   4.327
59740SOL    HW281060   7.497  10.678   4.269
59741SOL     OW81061   9.736   0.941   8.349
59741SOL    HW181062   9.814   0.897   8.381
59741SOL    HW281063   9.693   0.975   8.427
59742SOL     OW81064  11.355  13.975   3.591
59742SOL    HW181065  11.449  13.988   3.580
59742SOL    HW281066  11.346  13.883   3.613
59743SOL     OW81067  14.075   7.353   5.343
59743SOL    HW181068  14.057   7.317   5.429
59743SOL    HW281069  13.994   7.341   5.294
59744SOL     OW81070   3.121   0.002   1.278
59744SOL    HW181071   3.116  14.855   1.185
59744SOL    HW281072   3.066   0.080   1.287
59745SOL     OW81073  14.044  13.784   6.671
59745SOL    HW181074  14.119  13.839   6.648
59745SOL    HW281075  14.048  13.711   6.609
59746SOL     OW81076   3.291   2.581  12.841
59746SOL    HW181077   3.280   2.667  12.882
59746SOL    HW281078   3.245   2.521  12.900
59747SOL     OW81079   3.833   6.410   2.419
59747SOL    HW181080   3.778   6.332   2.414
59747SOL    HW281081   3.871   6.418   2.331
59748SOL     OW81082   9.823  11.525   5.114
59748SOL    HW181083   9.777  11.593   5.164
59748SOL    HW281084   9.777  11.444   5.138
59749SOL     OW81085   9.285   5.900  13.237
59749SOL    HW181086   9.227   5.884  13.163
59749SOL    HW281087   9.301   5.813  13.273
59750SOL     OW81088   7.519   9.059   6.742
59750SOL    HW181089   7.569   9.079   6.663
59750SOL    HW281090   7.477   9.141   6.766
59751SOL     OW81091  10.067  11.099   1.189
59751SOL    HW181092  10.114  11.028   1.234
59751SOL    HW281093  10.103  11.179   1.227
59752SOL     OW81094   2.402   0.726   3.704
59752SOL    HW181095   2.492   0.721   3.737
59752SOL    HW281096   2.405   0.797   3.639
59753SOL     OW81097   9.235   1.736  14.282
59753SOL    HW181098   9.216   1.670  14.214
59753SOL    HW281099   9.203   1.696  14.363
59754SOL     OW81100   0.816  10.232   4.636
59754SOL    HW181101   0.842  10.179   4.560
59754SOL    HW281102   0.883  10.214   4.701
59755SOL     OW81103  10.227   5.585   6.771
59755SOL    HW181104  10.169   5.568   6.845
59755SOL    HW281105  10.258   5.674   6.785
59756SOL     OW81106   9.923   8.142   0.415
59756SOL    HW181107   9.957   8.139   0.326
59756SOL    HW281108   9.854   8.076   0.417
59757SOL     OW81109   1.522   2.418   0.746
59757SOL    HW181110   1.441   2.404   0.698
59757SOL    HW281111   1.587   2.437   0.679
59758SOL     OW81112   1.224   1.496   5.586
59758SOL    HW181113   1.279   1.438   5.639
59758SOL    HW281114   1.198   1.442   5.512
59759SOL     OW81115  12.895   3.904  13.699
59759SOL    HW181116  12.976   3.926  13.746
59759SOL    HW281117  12.825   3.926  13.761
59760SOL     OW81118  13.500   8.404   8.503
59760SOL    HW181119  13.573   8.369   8.452
59760SOL    HW281120  13.456   8.464   8.443
59761SOL     OW81121  10.241   0.085   4.497
59761SOL    HW181122  10.195   0.002   4.509
59761SOL    HW281123  10.277   0.080   4.408
59762SOL     OW81124   7.684   7.268   9.558
59762SOL    HW181125   7.645   7.189   9.520
59762SOL    HW281126   7.641   7.279   9.642
59763SOL     OW81127  12.177   4.442  14.462
59763SOL    HW181128  12.150   4.399  14.381
59763SOL    HW281129  12.255   4.394  14.490
59764SOL     OW81130  12.409   7.504  12.890
59764SOL    HW181131  12.362   7.434  12.845
59764SOL    HW281132  12.380   7.498  12.981
59765SOL     OW81133  11.822   3.057  12.102
59765SOL    HW181134  11.837   2.968  12.133
59765SOL    HW281135  11.894   3.108  12.139
59766SOL     OW81136   4.101   5.377   4.784
59766SOL    HW181137   4.128   5.379   4.876
59766SOL    HW281138   4.038   5.449   4.776
59767SOL     OW81139   9.522   0.414   2.229
59767SOL    HW181140   9.544   0.389   2.318
59767SOL    HW281141   9.463   0.488   2.239
59768SOL     OW81142   2.712   6.267  14.195
59768SOL    HW181143   2.799   6.241  14.164
59768SOL    HW281144   2.667   6.184  14.213
59769SOL     OW81145   1.332  13.021  12.194
59769SOL    HW181146   1.392  12.994  12.264
59769SOL    HW281147   1.375  12.993  12.113
59770SOL     OW81148   9.464   1.077   3.838
59770SOL    HW181149   9.405   1.005   3.861
59770SOL    HW281150   9.430   1.152   3.888
59771SOL     OW81151   0.723   4.668  12.968
59771SOL    HW181152   0.732   4.763  12.968
59771SOL    HW281153   0.641   4.652  12.921
59772SOL     OW81154  12.018   9.678   6.041
59772SOL    HW181155  12.080   9.677   5.967
59772SOL    HW281156  11.949   9.738   6.013
59773SOL     OW81157   6.886   4.560   1.250
59773SOL    HW181158   6.980   4.569   1.232
59773SOL    HW281159   6.844   4.610   1.181
59774SOL     OW81160   3.613   0.353   9.379
59774SOL    HW181161   3.584   0.319   9.295
59774SOL    HW281162   3.553   0.425   9.398
59775SOL     OW81163   5.501   3.869  14.245
59775SOL    HW181164   5.491   3.902  14.156
59775SOL    HW281165   5.474   3.941  14.301
59776SOL     OW81166   1.361   5.901  12.576
59776SOL    HW181167   1.312   5.976  12.540
59776SOL    HW281168   1.451   5.914  12.545
59777SOL     OW81169   2.860  12.342  12.106
59777SOL    HW181170   2.782  12.393  12.127
59777SOL    HW281171   2.830  12.252  12.101
59778SOL     OW81172   9.094  14.838   0.677
59778SOL    HW181173   9.098  14.744   0.659
59778SOL    HW281174   9.119   0.003   0.594
59779SOL     OW81175  14.693   4.218  10.012
59779SOL    HW181176  14.736   4.279   9.952
59779SOL    HW281177  14.600   4.233   9.998
59780SOL     OW81178  14.730   6.333   6.990
59780SOL    HW181179  14.803   6.374   7.036
59780SOL    HW281180  14.664   6.318   7.057
59781SOL     OW81181  14.445   0.963   9.919
59781SOL    HW181182  14.445   1.042   9.973
59781SOL    HW281183  14.476   0.992   9.833
59782SOL     OW81184  12.139   3.431   2.584
59782SOL    HW181185  12.133   3.469   2.496
59782SOL    HW281186  12.233   3.415   2.597
59783SOL     OW81187   0.797   2.977  13.041
59783SOL    HW181188   0.815   2.993  13.134
59783SOL    HW281189   0.710   2.938  13.040
59784SOL     OW81190   2.499  14.714   6.202
59784SOL    HW181191   2.453  14.796   6.184
59784SOL    HW281192   2.591  14.739   6.210
59785SOL     OW81193   4.653  10.379  14.308
59785SOL    HW181194   4.650  10.451  14.245
59785SOL    HW281195   4.678  10.303  14.256
59786SOL     OW81196   3.669  10.454   3.683
59786SOL    HW181197   3.580  10.422   3.670
59786SOL    HW281198   3.718  10.378   3.714
59787SOL     OW81199   0.663  14.600  12.220
59787SOL    HW181200   0.753  14.571  12.207
59787SOL    HW281201   0.655  14.611  12.315
59788SOL     OW81202   3.466   1.891  11.912
59788SOL    HW181203   3.493   1.957  11.976
59788SOL    HW281204   3.536   1.890  11.847
59789SOL     OW81205   8.335   3.915   4.523
59789SOL    HW181206   8.247   3.949   4.512
59789SOL    HW281207   8.378   3.929   4.439
59790SOL     OW81208  10.219   6.671  10.379
59790SOL    HW181209  10.252   6.618  10.451
59790SOL    HW281210  10.282   6.742  10.370
59791SOL     OW81211  10.960   5.876  11.820
59791SOL    HW181212  11.013   5.921  11.886
59791SOL    HW281213  10.920   5.947  11.770
59792SOL     OW81214  12.354  13.783   4.098
59792SOL    HW181215  12.382  13.692   4.097
59792SOL    HW281216  12.277  13.783   4.155
59793SOL     OW81217  13.965  13.278   9.142
59793SOL    HW181218  14.051  13.251   9.107
59793SOL    HW281219  13.986  13.349   9.203
59794SOL     OW81220   3.104  10.819   9.052
59794SOL    HW181221   3.053  10.862   9.121
59794SOL    HW281222   3.135  10.738   9.091
59795SOL     OW81223  12.131   5.104  12.678
59795SOL    HW181224  12.145   5.086  12.585
59795SOL    HW281225  12.107   5.019  12.715
59796SOL     OW81226   6.356  12.915   3.129
59796SOL    HW181227   6.320  12.938   3.043
59796SOL    HW281228   6.347  12.995   3.180
59797SOL     OW81229   5.500   7.609   1.757
59797SOL    HW181230   5.430   7.590   1.820
59797SOL    HW281231   5.470   7.688   1.712
59798SOL     OW81232   7.808   5.998   6.998
59798SOL    HW181233   7.735   6.034   7.048
59798SOL    HW281234   7.880   5.993   7.062
59799SOL     OW81235  14.611  13.448   9.127
59799SOL    HW181236  14.561  13.486   9.055
59799SOL    HW281237  14.574  13.360   9.137
59800SOL     OW81238  13.767   3.306   0.895
59800SOL    HW181239  13.779   3.238   0.829
59800SOL    HW281240  13.849   3.307   0.944
59801SOL     OW81241   3.809  13.105   5.582
59801SOL    HW181242   3.785  13.113   5.490
59801SOL    HW281243   3.741  13.153   5.629
59802SOL     OW81244  12.640  10.151   5.659
59802SOL    HW181245  12.693  10.227   5.683
59802SOL    HW281246  12.668  10.130   5.570
59803SOL     OW81247  10.724  12.685  13.262
59803SOL    HW181248  10.773  12.766  13.272
59803SOL    HW281249  10.650  12.708  13.206
59804SOL     OW81250   4.357   1.081   7.601
59804SOL    HW181251   4.281   1.102   7.546
59804SOL    HW281252   4.319   1.045   7.681
59805SOL     OW81253   2.668   7.884  14.520
59805SOL    HW181254   2.701   7.867  14.432
59805SOL    HW281255   2.744   7.873  14.577
59806SOL     OW81256  12.302   9.004  11.026
59806SOL    HW181257  12.376   8.986  11.085
59806SOL    HW281258  12.332   9.077  10.972
59807SOL     OW81259  11.784   3.065   3.313
59807SOL    HW181260  11.791   3.130   3.384
59807SOL    HW281261  11.785   3.118   3.233
59808SOL     OW81262   5.347   0.970  11.076
59808SOL    HW181263   5.349   1.066  11.079
59808SOL    HW281264   5.261   0.947  11.111
59809SOL     OW81265  10.305  11.057   5.089
59809SOL    HW181266  10.218  11.096   5.076
59809SOL    HW281267  10.311  10.989   5.022
59810SOL     OW81268   6.464  14.840   8.696
59810SOL    HW181269   6.418   0.040   8.660
59810SOL    HW281270   6.395  14.779   8.719
59811SOL     OW81271   2.547  11.380  11.671
59811SOL    HW181272   2.585  11.308  11.619
59811SOL    HW281273   2.595  11.378  11.754
59812SOL     OW81274  11.765   4.356   4.044
59812SOL    HW181275  11.723   4.306   4.114
59812SOL    HW281276  11.814   4.291   3.994
59813SOL     OW81277   6.675  13.544  11.445
59813SOL    HW181278   6.692  13.634  11.418
59813SOL    HW281279   6.596  13.518  11.398
59814SOL     OW81280  12.580   9.509   2.013
59814SOL    HW181281  12.649   9.575   2.023
59814SOL    HW281282  12.592   9.449   2.087
59815SOL     OW81283  11.045  12.822   6.523
59815SOL    HW181284  10.985  12.897   6.532
59815SOL    HW281285  11.066  12.798   6.613
59816SOL     OW81286   1.786   4.443  14.299
59816SOL    HW181287   1.748   4.425  14.385
59816SOL    HW281288   1.744   4.380  14.241
59817SOL     OW81289   9.743   5.995   6.603
59817SOL    HW181290   9.672   6.024   6.660
59817SOL    HW281291   9.810   5.961   6.662
59818SOL     OW81292   5.328   4.857   3.600
59818SOL    HW181293   5.264   4.889   3.663
59818SOL    HW281294   5.385   4.932   3.583
59819SOL     OW81295   9.072   6.849   3.443
59819SOL    HW181296   9.022   6.899   3.377
59819SOL    HW281297   9.012   6.840   3.517
59820SOL     OW81298   0.508   4.175  14.192
59820SOL    HW181299   0.574   4.188  14.124
59820SOL    HW281300   0.433   4.138  14.146
59821SOL     OW81301   8.831   9.174   9.824
59821SOL    HW181302   8.872   9.123   9.755
59821SOL    HW281303   8.781   9.111   9.875
59822SOL     OW81304   3.429  11.246  13.676
59822SOL    HW181305   3.375  11.170  13.655
59822SOL    HW281306   3.450  11.235  13.769
59823SOL     OW81307   0.441   1.601   8.369
59823SOL    HW181308   0.514   1.662   8.358
59823SOL    HW281309   0.460   1.555   8.450
59824SOL     OW81310  10.994   5.217   4.028
59824SOL    HW181311  10.981   5.135   4.075
59824SOL    HW281312  11.048   5.271   4.086
59825SOL     OW81313  14.712   1.082   1.907
59825SOL    HW181314  14.761   1.010   1.867
59825SOL    HW281315  14.644   1.103   1.843
59826SOL     OW81316   0.236   1.214   9.693
59826SOL    HW181317   0.309   1.274   9.709
59826SOL    HW281318   0.278   1.131   9.669
59827SOL     OW81319  11.691   0.005  11.162
59827SOL    HW181320  11.735   0.083  11.129
59827SOL    HW281321  11.756  14.838  11.217
59828SOL     OW81322  11.047   1.186   0.250
59828SOL    HW181323  10.977   1.128   0.279
59828SOL    HW281324  11.116   1.176   0.316
59829SOL     OW81325  11.126   6.550   9.190
59829SOL    HW181326  11.109   6.475   9.133
59829SOL    HW281327  11.123   6.514   9.278
59830SOL     OW81328  10.243   5.657   0.763
59830SOL    HW181329  10.149   5.665   0.748
59830SOL    HW281330  10.251   5.639   0.857
59831SOL     OW81331  10.792  12.887  12.104
59831SOL    HW181332  10.834  12.960  12.150
59831SOL    HW281333  10.817  12.899  12.013
59832SOL     OW81334   0.744   5.024   3.847
59832SOL    HW181335   0.674   5.086   3.826
59832SOL    HW281336   0.790   5.064   3.921
59833SOL     OW81337   5.668   2.333   5.147
59833SOL    HW181338   5.599   2.394   5.119
59833SOL    HW281339   5.702   2.297   5.065
59834SOL     OW81340   5.734   1.232   5.085
59834SOL    HW181341   5.679   1.249   5.161
59834SOL    HW281342   5.748   1.138   5.085
59835SOL     OW81343   0.538   2.428   5.189
59835SOL    HW181344   0.509   2.517   5.209
59835SOL    HW281345   0.531   2.381   5.272
59836SOL     OW81346   8.063  14.292  13.080
59836SOL    HW181347   8.117  14.295  13.158
59836SOL    HW281348   7.996  14.227  13.099
59837SOL     OW81349  13.860   0.119  12.765
59837SOL    HW181350  13.798   0.156  12.702
59837SOL    HW281351  13.946   0.146  12.733
59838SOL     OW81352   2.251  12.493   7.294
59838SOL    HW181353   2.238  12.588   7.299
59838SOL    HW281354   2.173  12.456   7.337
59839SOL     OW81355   4.115  10.045  14.595
59839SOL    HW181356   4.075   9.968  14.555
59839SOL    HW281357   4.092  10.117  14.537
59840SOL     OW81358   5.285   9.341   7.964
59840SOL    HW181359   5.248   9.428   7.978
59840SOL    HW281360   5.261   9.292   8.043
59841SOL     OW81361   8.653   2.355  13.386
59841SOL    HW181362   8.654   2.272  13.338
59841SOL    HW281363   8.657   2.329  13.478
59842SOL     OW81364   6.517   3.851  11.665
59842SOL    HW181365   6.490   3.784  11.728
59842SOL    HW281366   6.597   3.888  11.702
59843SOL     OW81367   1.716  14.503  10.477
59843SOL    HW181368   1.669  14.548  10.548
59843SOL    HW281369   1.719  14.568  10.406
59844SOL     OW81370   2.651   7.613   2.196
59844SOL    HW181371   2.583   7.578   2.138
59844SOL    HW281372   2.602   7.651   2.270
59845SOL     OW81373  13.852   6.855  14.156
59845SOL    HW181374  13.875   6.917  14.087
59845SOL    HW281375  13.836   6.909  14.233
59846SOL     OW81376   0.094   9.165   4.196
59846SOL    HW181377   0.023   9.213   4.237
59846SOL    HW281378   0.152   9.232   4.161
59847SOL     OW81379   7.966   3.960   0.560
59847SOL    HW181380   7.978   4.025   0.629
59847SOL    HW281381   7.908   3.894   0.598
59848SOL     OW81382   1.567  11.061   3.795
59848SOL    HW181383   1.644  11.009   3.820
59848SOL    HW281384   1.590  11.097   3.710
59849SOL     OW81385   7.438  13.355   6.669
59849SOL    HW181386   7.456  13.296   6.596
59849SOL    HW281387   7.457  13.442   6.635
59850SOL     OW81388   4.452  12.269   6.578
59850SOL    HW181389   4.428  12.260   6.486
59850SOL    HW281390   4.372  12.300   6.621
59851SOL     OW81391   4.540   6.621   7.424
59851SOL    HW181392   4.566   6.695   7.369
59851SOL    HW281393   4.459   6.650   7.466
59852SOL     OW81394   0.245   2.266   3.372
59852SOL    HW181395   0.199   2.211   3.436
59852SOL    HW281396   0.321   2.214   3.347
59853SOL     OW81397   4.570   8.582   8.049
59853SOL    HW181398   4.576   8.611   7.958
59853SOL    HW281399   4.639   8.631   8.094
59854SOL     OW81400   9.427  10.652   6.988
59854SOL    HW181401   9.498  10.602   6.949
59854SOL    HW281402   9.461  10.682   7.072
59855SOL     OW81403   5.961   4.217   1.864
59855SOL    HW181404   5.952   4.216   1.769
59855SOL    HW281405   5.939   4.128   1.890
59856SOL     OW81406  11.208   9.883  12.275
59856SOL    HW181407  11.278   9.858  12.335
59856SOL    HW281408  11.233   9.845  12.191
59857SOL     OW81409   2.587   7.818  10.275
59857SOL    HW181410   2.664   7.873  10.258
59857SOL    HW281411   2.598   7.788  10.365
59858SOL     OW81412   2.363   3.240   7.948
59858SOL    HW181413   2.332   3.309   7.890
59858SOL    HW281414   2.301   3.240   8.021
59859SOL     OW81415   3.101   4.370  10.765
59859SOL    HW181416   3.016   4.335  10.739
59859SOL    HW281417   3.159   4.294  10.765
59860SOL     OW81418   1.170  14.375  14.094
59860SOL    HW181419   1.134  14.346  14.011
59860SOL    HW281420   1.220  14.300  14.127
59861SOL     OW81421   1.174   6.669   5.244
59861SOL    HW181422   1.098   6.725   5.256
59861SOL    HW281423   1.227   6.713   5.178
59862SOL     OW81424   1.579  13.743   5.283
59862SOL    HW181425   1.660  13.793   5.282
59862SOL    HW281426   1.511  13.807   5.259
59863SOL     OW81427   0.212   3.888   1.067
59863SOL    HW181428   0.268   3.812   1.078
59863SOL    HW281429   0.156   3.888   1.145
59864SOL     OW81430   5.781   4.003   8.008
59864SOL    HW181431   5.844   4.050   8.063
59864SOL    HW281432   5.807   3.911   8.014
59865SOL     OW81433   7.917  14.620   9.027
59865SOL    HW181434   7.876  14.536   9.048
59865SOL    HW281435   7.888  14.679   9.096
59866SOL     OW81436   5.549  13.371   9.014
59866SOL    HW181437   5.524  13.455   8.974
59866SOL    HW281438   5.558  13.390   9.107
59867SOL     OW81439   6.621  12.904  13.304
59867SOL    HW181440   6.587  12.937  13.387
59867SOL    HW281441   6.622  12.809  13.315
59868SOL     OW81442  13.250   1.339   9.508
59868SOL    HW181443  13.333   1.328   9.461
59868SOL    HW281444  13.193   1.385   9.446
59869SOL     OW81445  13.113   7.497   5.863
59869SOL    HW181446  13.188   7.548   5.834
59869SOL    HW281447  13.104   7.428   5.797
59870SOL     OW81448   1.130  11.563   1.162
59870SOL    HW181449   1.210  11.615   1.163
59870SOL    HW281450   1.087  11.584   1.246
59871SOL     OW81451   8.814  12.417   7.287
59871SOL    HW181452   8.721  12.397   7.288
59871SOL    HW281453   8.855  12.336   7.254
59872SOL     OW81454  10.796  12.374   1.830
59872SOL    HW181455  10.717  12.347   1.876
59872SOL    HW281456  10.860  12.305   1.849
59873SOL     OW81457  10.350   4.942   4.486
59873SOL    HW181458  10.431   4.969   4.443
59873SOL    HW281459  10.281   4.961   4.423
59874SOL     OW81460  11.107   6.848   8.604
59874SOL    HW181461  11.104   6.844   8.699
59874SOL    HW281462  11.193   6.815   8.580
59875SOL     OW81463   2.295   6.364   2.615
59875SOL    HW181464   2.262   6.453   2.602
59875SOL    HW281465   2.272   6.342   2.705
59876SOL     OW81466   4.465   5.345   3.777
59876SOL    HW181467   4.402   5.276   3.754
59876SOL    HW281468   4.545   5.299   3.799
59877SOL     OW81469   7.533   1.430   5.151
59877SOL    HW181470   7.549   1.336   5.159
59877SOL    HW281471   7.439   1.440   5.169
59878SOL     OW81472  10.207   6.012   7.119
59878SOL    HW181473  10.239   5.927   7.151
59878SOL    HW281474  10.205   6.068   7.197
59879SOL     OW81475   3.452   7.410   6.843
59879SOL    HW181476   3.389   7.377   6.779
59879SOL    HW281477   3.459   7.503   6.824
59880SOL     OW81478   0.143   4.325   2.474
59880SOL    HW181479   0.229   4.354   2.444
59880SOL    HW281480   0.099   4.405   2.502
59881SOL     OW81481  10.070  11.031   0.882
59881SOL    HW181482  10.162  11.004   0.878
59881SOL    HW281483  10.060  11.068   0.970
59882SOL     OW81484   3.497  14.026   0.726
59882SOL    HW181485   3.445  14.091   0.774
59882SOL    HW281486   3.526  14.073   0.647
59883SOL     OW81487  11.136   1.403   8.778
59883SOL    HW181488  11.135   1.309   8.757
59883SOL    HW281489  11.200   1.440   8.718
59884SOL     OW81490   3.560   4.148   7.981
59884SOL    HW181491   3.468   4.147   8.010
59884SOL    HW281492   3.556   4.177   7.890
59885SOL     OW81493  13.329   4.139  12.727
59885SOL    HW181494  13.264   4.137  12.656
59885SOL    HW281495  13.389   4.209  12.702
59886SOL     OW81496   7.761   4.168  14.596
59886SOL    HW181497   7.777   4.154  14.690
59886SOL    HW281498   7.836   4.220  14.567
59887SOL     OW81499  11.921   4.884   7.845
59887SOL    HW181500  11.900   4.802   7.888
59887SOL    HW281501  11.873   4.881   7.762
59888SOL     OW81502  11.712   9.589   3.976
59888SOL    HW181503  11.719   9.574   4.070
59888SOL    HW281504  11.622   9.618   3.962
59889SOL     OW81505  14.080   7.872  11.257
59889SOL    HW181506  14.023   7.835  11.324
59889SOL    HW281507  14.028   7.867  11.176
59890SOL     OW81508   8.399  14.489   8.485
59890SOL    HW181509   8.343  14.521   8.556
59890SOL    HW281510   8.487  14.489   8.523
59891SOL     OW81511   7.192   2.700   4.405
59891SOL    HW181512   7.141   2.776   4.433
59891SOL    HW281513   7.233   2.727   4.324
59892SOL     OW81514   2.405   7.773   7.146
59892SOL    HW181515   2.423   7.693   7.197
59892SOL    HW281516   2.340   7.820   7.199
59893SOL     OW81517   4.721   3.040   2.370
59893SOL    HW181518   4.647   2.991   2.406
59893SOL    HW281519   4.681   3.098   2.305
59894SOL     OW81520   6.677   6.148  12.197
59894SOL    HW181521   6.676   6.068  12.250
59894SOL    HW281522   6.653   6.217  12.258
59895SOL     OW81523   0.398   2.821   7.702
59895SOL    HW181524   0.329   2.793   7.763
59895SOL    HW281525   0.463   2.863   7.757
59896SOL     OW81526  14.236   6.628  14.698
59896SOL    HW181527  14.293   6.551  14.699
59896SOL    HW281528  14.183   6.621  14.778
59897SOL     OW81529   8.866  11.561   1.947
59897SOL    HW181530   8.790  11.516   1.985
59897SOL    HW281531   8.933  11.556   2.015
59898SOL     OW81532   6.516  14.687   8.131
59898SOL    HW181533   6.519  14.622   8.062
59898SOL    HW281534   6.572  14.652   8.200
59899SOL     OW81535   9.615  12.282   3.154
59899SOL    HW181536   9.590  12.325   3.072
59899SOL    HW281537   9.572  12.335   3.222
59900SOL     OW81538   5.900  10.768   0.994
59900SOL    HW181539   5.847  10.720   1.057
59900SOL    HW281540   5.976  10.798   1.044
59901SOL     OW81541  14.809   5.557   6.855
59901SOL    HW181542  14.787   5.578   6.764
59901SOL    HW281543  14.866   5.480   6.848
59902SOL     OW81544   4.089   0.217  12.827
59902SOL    HW181545   4.042   0.207  12.909
59902SOL    HW281546   4.147   0.292  12.841
59903SOL     OW81547   7.051   9.378  12.385
59903SOL    HW181548   7.052   9.419  12.299
59903SOL    HW281549   6.961   9.391  12.417
59904SOL     OW81550  14.270   0.624   2.604
59904SOL    HW181551  14.254   0.707   2.649
59904SOL    HW281552  14.197   0.568   2.631
59905SOL     OW81553  12.536  12.076   2.039
59905SOL    HW181554  12.504  12.020   1.968
59905SOL    HW281555  12.612  12.030   2.073
59906SOL     OW81556  11.451   8.641   9.457
59906SOL    HW181557  11.440   8.672   9.367
59906SOL    HW281558  11.513   8.568   9.450
59907SOL     OW81559  14.691   7.983   0.539
59907SOL    HW181560  14.675   7.942   0.624
59907SOL    HW281561  14.760   8.047   0.556
59908SOL     OW81562  14.212   6.528  11.571
59908SOL    HW181563  14.161   6.576  11.506
59908SOL    HW281564  14.300   6.566  11.566
59909SOL     OW81565   5.746  10.437   6.482
59909SOL    HW181566   5.714  10.352   6.512
59909SOL    HW281567   5.840  10.425   6.474
59910SOL     OW81568   2.172   8.283   1.471
59910SOL    HW181569   2.207   8.369   1.446
59910SOL    HW281570   2.246   8.223   1.462
59911SOL     OW81571  10.901   4.628  10.738
59911SOL    HW181572  10.971   4.612  10.675
59911SOL    HW281573  10.936   4.697  10.795
59912SOL     OW81574   3.084   5.428  10.629
59912SOL    HW181575   2.996   5.402  10.602
59912SOL    HW281576   3.143   5.371  10.579
59913SOL     OW81577  11.877  13.558   3.214
59913SOL    HW181578  11.964  13.550   3.253
59913SOL    HW281579  11.865  13.476   3.167
59914SOL     OW81580   1.266   8.579  12.204
59914SOL    HW181581   1.295   8.628  12.127
59914SOL    HW281582   1.200   8.519  12.169
59915SOL     OW81583   1.968   2.757  10.588
59915SOL    HW181584   2.050   2.718  10.558
59915SOL    HW281585   1.991   2.848  10.608
59916SOL     OW81586  13.160   0.730   8.691
59916SOL    HW181587  13.109   0.673   8.634
59916SOL    HW281588  13.119   0.721   8.777
59917SOL     OW81589   2.495  12.687  12.189
59917SOL    HW181590   2.511  12.699  12.282
59917SOL    HW281591   2.400  12.680  12.182
59918SOL     OW81592   6.913   3.955  12.681
59918SOL    HW181593   6.899   4.048  12.667
59918SOL    HW281594   6.890   3.940  12.773
59919SOL     OW81595  14.861   9.709   5.636
59919SOL    HW181596   0.016   9.619   5.625
59919SOL    HW281597  14.791   9.717   5.571
59920SOL     OW81598   6.786   8.562  13.354
59920SOL    HW181599   6.816   8.614  13.428
59920SOL    HW281600   6.709   8.516  13.386
59921SOL     OW81601   2.352  11.222   8.550
59921SOL    HW181602   2.367  11.131   8.573
59921SOL    HW281603   2.330  11.220   8.457
59922SOL     OW81604   8.498  12.927  12.770
59922SOL    HW181605   8.433  12.955  12.835
59922SOL    HW281606   8.565  12.994  12.773
59923SOL     OW81607   7.987  14.298   8.490
59923SOL    HW181608   8.046  14.336   8.425
59923SOL    HW281609   8.046  14.261   8.557
59924SOL     OW81610   9.268   4.977   0.590
59924SOL    HW181611   9.342   4.966   0.650
59924SOL    HW281612   9.219   4.895   0.596
59925SOL     OW81613   8.144   0.435   3.358
59925SOL    HW181614   8.062   0.422   3.405
59925SOL    HW281615   8.117   0.448   3.267
59926SOL     OW81616   4.538   0.112  13.463
59926SOL    HW181617   4.551   0.018  13.451
59926SOL    HW281618   4.493   0.141  13.384
59927SOL     OW81619   6.200   3.805   5.553
59927SOL    HW181620   6.151   3.869   5.501
59927SOL    HW281621   6.164   3.720   5.527
59928SOL     OW81622   7.853   9.177   6.930
59928SOL    HW181623   7.871   9.224   6.848
59928SOL    HW281624   7.830   9.089   6.903
59929SOL     OW81625  13.896   5.400   0.398
59929SOL    HW181626  13.878   5.314   0.359
59929SOL    HW281627  13.895   5.385   0.492
59930SOL     OW81628  13.747   8.467   2.295
59930SOL    HW181629  13.820   8.528   2.283
59930SOL    HW281630  13.747   8.412   2.217
59931SOL     OW81631   1.580  12.174  12.361
59931SOL    HW181632   1.633  12.127  12.426
59931SOL    HW281633   1.610  12.265  12.367
59932SOL     OW81634   9.393   2.297   4.759
59932SOL    HW181635   9.322   2.348   4.720
59932SOL    HW281636   9.364   2.280   4.848
59933SOL     OW81637  14.527  11.430   7.967
59933SOL    HW181638  14.521  11.424   8.062
59933SOL    HW281639  14.444  11.393   7.935
59934SOL     OW81640  11.210   0.389   4.053
59934SOL    HW181641  11.207   0.418   4.144
59934SOL    HW281642  11.268   0.452   4.010
59935SOL     OW81643  10.314   9.872   1.395
59935SOL    HW181644  10.344   9.832   1.313
59935SOL    HW281645  10.257   9.805   1.434
59936SOL     OW81646   3.928   5.391   5.884
59936SOL    HW181647   3.926   5.380   5.979
59936SOL    HW281648   4.016   5.362   5.859
59937SOL     OW81649   6.130  14.433  12.839
59937SOL    HW181650   6.215  14.476  12.846
59937SOL    HW281651   6.072  14.486  12.895
59938SOL     OW81652   7.979   8.568  14.227
59938SOL    HW181653   7.987   8.478  14.258
59938SOL    HW281654   8.040   8.574  14.154
59939SOL     OW81655   3.392   5.730  11.272
59939SOL    HW181656   3.469   5.756  11.322
59939SOL    HW281657   3.378   5.801  11.210
59940SOL     OW81658   2.581   6.680   7.016
59940SOL    HW181659   2.625   6.742   6.958
59940SOL    HW281660   2.652   6.641   7.067
59941SOL     OW81661   1.464   9.220  10.468
59941SOL    HW181662   1.519   9.216  10.390
59941SOL    HW281663   1.382   9.258  10.438
59942SOL     OW81664   7.963   9.376   4.467
59942SOL    HW181665   7.919   9.458   4.491
59942SOL    HW281666   8.021   9.358   4.541
59943SOL     OW81667  13.282  12.292  10.160
59943SOL    HW181668  13.262  12.306  10.068
59943SOL    HW281669  13.348  12.359  10.180
59944SOL     OW81670   1.476  14.132   6.142
59944SOL    HW181671   1.478  14.208   6.200
59944SOL    HW281672   1.443  14.166   6.059
59945SOL     OW81673  11.180   2.643   2.484
59945SOL    HW181674  11.085   2.630   2.482
59945SOL    HW281675  11.205   2.619   2.573
59946SOL     OW81676   3.074   0.047   1.612
59946SOL    HW181677   3.167   0.056   1.591
59946SOL    HW281678   3.041   0.137   1.613
59947SOL     OW81679   8.968  12.843   0.508
59947SOL    HW181680   8.948  12.898   0.432
59947SOL    HW281681   8.887  12.795   0.525
59948SOL     OW81682   2.609   3.164   3.433
59948SOL    HW181683   2.657   3.087   3.404
59948SOL    HW281684   2.546   3.181   3.363
59949SOL     OW81685   4.255  14.366   4.013
59949SOL    HW181686   4.219  14.350   4.100
59949SOL    HW281687   4.282  14.458   4.014
59950SOL     OW81688   5.133   3.209   2.609
59950SOL    HW181689   5.054   3.245   2.650
59950SOL    HW281690   5.127   3.237   2.517
59951SOL     OW81691   5.426   8.782   5.756
59951SOL    HW181692   5.377   8.700   5.765
59951SOL    HW281693   5.441   8.811   5.846
59952SOL     OW81694  11.555   8.688   1.872
59952SOL    HW181695  11.647   8.715   1.880
59952SOL    HW281696  11.552   8.603   1.915
59953SOL     OW81697   8.591  10.514  14.541
59953SOL    HW181698   8.597  10.591  14.597
59953SOL    HW281699   8.680  10.479  14.538
59954SOL     OW81700   1.128   5.596   8.164
59954SOL    HW181701   1.086   5.615   8.248
59954SOL    HW281702   1.129   5.500   8.159
59955SOL     OW81703   6.015  13.126   7.873
59955SOL    HW181704   6.059  13.048   7.840
59955SOL    HW281705   6.055  13.144   7.958
59956SOL     OW81706   1.486   0.679   1.451
59956SOL    HW181707   1.500   0.620   1.525
59956SOL    HW281708   1.397   0.658   1.421
59957SOL     OW81709   3.181   5.950   1.183
59957SOL    HW181710   3.172   6.044   1.166
59957SOL    HW281711   3.268   5.940   1.222
59958SOL     OW81712  11.036   9.132   6.108
59958SOL    HW181713  10.996   9.217   6.128
59958SOL    HW281714  11.067   9.100   6.193
59959SOL     OW81715  10.671   8.006   1.022
59959SOL    HW181716  10.594   7.965   1.063
59959SOL    HW281717  10.666   7.979   0.930
59960SOL     OW81718  14.809  13.575  12.899
59960SOL    HW181719  14.852  13.620  12.972
59960SOL    HW281720  14.749  13.640  12.863
59961SOL     OW81721   5.065  11.816   9.421
59961SOL    HW181722   5.155  11.797   9.393
59961SOL    HW281723   5.075  11.879   9.492
59962SOL     OW81724   1.574  10.781  12.327
59962SOL    HW181725   1.658  10.821  12.351
59962SOL    HW281726   1.547  10.828  12.248
59963SOL     OW81727   4.010   0.155   6.672
59963SOL    HW181728   3.915   0.154   6.663
59963SOL    HW281729   4.040   0.219   6.607
59964SOL     OW81730   8.888  13.349   6.870
59964SOL    HW181731   8.821  13.349   6.939
59964SOL    HW281732   8.917  13.258   6.864
59965SOL     OW81733   3.042   8.197   8.497
59965SOL    HW181734   3.118   8.202   8.556
59965SOL    HW281735   3.056   8.117   8.447
59966SOL     OW81736   8.081  11.857   3.024
59966SOL    HW181737   8.065  11.791   3.091
59966SOL    HW281738   8.042  11.820   2.944
59967SOL     OW81739   4.912   1.752   2.523
59967SOL    HW181740   4.996   1.775   2.483
59967SOL    HW281741   4.880   1.833   2.561
59968SOL     OW81742   1.524   7.841   2.643
59968SOL    HW181743   1.535   7.786   2.720
59968SOL    HW281744   1.434   7.828   2.615
59969SOL     OW81745  13.829   1.819   3.508
59969SOL    HW181746  13.830   1.910   3.477
59969SOL    HW281747  13.811   1.826   3.602
59970SOL     OW81748   3.106  11.681   7.669
59970SOL    HW181749   3.014  11.662   7.651
59970SOL    HW281750   3.104  11.750   7.735
59971SOL     OW81751   5.040   3.762   8.050
59971SOL    HW181752   5.111   3.711   8.087
59971SOL    HW281753   4.961   3.731   8.095
59972SOL     OW81754   8.964   7.299   2.367
59972SOL    HW181755   8.948   7.394   2.368
59972SOL    HW281756   9.058   7.290   2.381
59973SOL     OW81757  13.455   3.002   8.501
59973SOL    HW181758  13.493   3.070   8.445
59973SOL    HW281759  13.527   2.939   8.514
59974SOL     OW81760   3.907  13.786  13.002
59974SOL    HW181761   3.863  13.843  13.065
59974SOL    HW281762   3.840  13.723  12.977
59975SOL     OW81763   3.804   2.973   4.190
59975SOL    HW181764   3.839   2.931   4.111
59975SOL    HW281765   3.879   2.981   4.249
59976SOL     OW81766   8.586  12.338  13.348
59976SOL    HW181767   8.542  12.265  13.305
59976SOL    HW281768   8.563  12.415  13.295
59977SOL     OW81769  13.578   8.231   5.589
59977SOL    HW181770  13.503   8.285   5.565
59977SOL    HW281771  13.617   8.276   5.664
59978SOL     OW81772   7.518   6.025  12.217
59978SOL    HW181773   7.506   6.056  12.306
59978SOL    HW281774   7.612   6.037  12.200
59979SOL     OW81775   3.569   6.287  13.806
59979SOL    HW181776   3.649   6.315  13.851
59979SOL    HW281777   3.591   6.292  13.713
59980SOL     OW81778  11.128   7.139   8.755
59980SOL    HW181779  11.118   7.045   8.765
59980SOL    HW281780  11.219   7.156   8.782
59981SOL     OW81781   2.082  13.293  14.836
59981SOL    HW181782   2.177  13.282  14.833
59981SOL    HW281783   2.064  13.359  14.768
59982SOL     OW81784   8.618   9.007   6.685
59982SOL    HW181785   8.524   9.016   6.671
59982SOL    HW281786   8.635   9.056   6.765
59983SOL     OW81787   4.318   6.477   4.975
59983SOL    HW181788   4.388   6.478   4.910
59983SOL    HW281789   4.362   6.452   5.056
59984SOL     OW81790  11.890   7.941   6.418
59984SOL    HW181791  11.925   7.946   6.329
59984SOL    HW281792  11.956   7.893   6.467
59985SOL     OW81793  13.189   6.710   4.913
59985SOL    HW181794  13.158   6.646   4.849
59985SOL    HW281795  13.256   6.663   4.962
59986SOL     OW81796   9.445  11.852   4.827
59986SOL    HW181797   9.498  11.773   4.815
59986SOL    HW281798   9.500  11.909   4.882
59987SOL     OW81799   7.014   6.410   7.845
59987SOL    HW181800   6.952   6.360   7.899
59987SOL    HW281801   7.094   6.411   7.897
59988SOL     OW81802   3.971   6.400   1.906
59988SOL    HW181803   3.898   6.356   1.862
59988SOL    HW281804   4.045   6.341   1.896
59989SOL     OW81805   8.402   8.919  13.066
59989SOL    HW181806   8.445   8.866  13.133
59989SOL    HW281807   8.465   8.988  13.047
59990SOL     OW81808   0.388  11.721  11.846
59990SOL    HW181809   0.390  11.774  11.766
59990SOL    HW281810   0.315  11.661  11.833
59991SOL     OW81811  13.135   7.636   0.617
59991SOL    HW181812  13.055   7.656   0.570
59991SOL    HW281813  13.203   7.632   0.550
59992SOL     OW81814   5.038   7.553   9.776
59992SOL    HW181815   5.028   7.580   9.868
59992SOL    HW281816   4.976   7.607   9.728
59993SOL     OW81817   2.680   9.436  10.281
59993SOL    HW181818   2.696   9.347  10.250
59993SOL    HW281819   2.654   9.426  10.373
59994SOL     OW81820   2.385   0.021  12.705
59994SOL    HW181821   2.367   0.115  12.696
59994SOL    HW281822   2.352  14.875  12.792
59995SOL     OW81823  11.858   7.030  13.147
59995SOL    HW181824  11.901   7.115  13.137
59995SOL    HW281825  11.915   6.982  13.207
59996SOL     OW81826   3.788   5.164   5.087
59996SOL    HW181827   3.836   5.086   5.060
59996SOL    HW281828   3.696   5.141   5.076
59997SOL     OW81829   9.834   5.003   9.660
59997SOL    HW181830   9.759   5.054   9.629
59997SOL    HW281831   9.870   4.962   9.581
59998SOL     OW81832  13.030  11.840   0.351
59998SOL    HW181833  13.098  11.902   0.377
59998SOL    HW281834  13.006  11.867   0.262
59999SOL     OW81835   0.923  14.842  13.546
59999SOL    HW181836   0.958   0.049  13.515
59999SOL    HW281837   0.855  14.818  13.484
60000SOL     OW81838  13.101   9.380   3.464
60000SOL    HW181839  13.029   9.443   3.454
60000SOL    HW281840  13.058   9.295   3.473
60001SOL     OW81841   4.679   8.415  10.947
60001SOL    HW181842   4.617   8.427  10.875
60001SOL    HW281843   4.712   8.503  10.966
60002SOL     OW81844   2.343   1.374   7.187
60002SOL    HW181845   2.411   1.426   7.145
60002SOL    HW281846   2.265   1.388   7.133
60003SOL     OW81847  10.898   3.528  14.557
60003SOL    HW181848  10.980   3.539  14.605
60003SOL    HW281849  10.830   3.527  14.624
60004SOL     OW81850   6.569   6.702  10.909
60004SOL    HW181851   6.607   6.660  10.832
60004SOL    HW281852   6.575   6.796  10.891
60005SOL     OW81853   3.643  10.509   6.549
60005SOL    HW181854   3.565  10.545   6.593
60005SOL    HW281855   3.620  10.418   6.530
60006SOL     OW81856   7.315   1.747   6.955
60006SOL    HW181857   7.366   1.828   6.947
60006SOL    HW281858   7.242   1.759   6.895
60007SOL     OW81859  10.795  12.556   7.003
60007SOL    HW181860  10.833  12.561   7.091
60007SOL    HW281861  10.707  12.593   7.013
60008SOL     OW81862   7.474   4.810   0.809
60008SOL    HW181863   7.419   4.845   0.880
60008SOL    HW281864   7.459   4.870   0.736
60009SOL     OW81865  10.942   9.258   6.542
60009SOL    HW181866  10.968   9.310   6.466
60009SOL    HW281867  10.866   9.303   6.578
60010SOL     OW81868  13.991   7.839   8.772
60010SOL    HW181869  13.957   7.876   8.691
60010SOL    HW281870  13.945   7.755   8.781
60011SOL     OW81871   9.562  10.487   1.397
60011SOL    HW181872   9.560  10.559   1.460
60011SOL    HW281873   9.501  10.513   1.328
60012SOL     OW81874   7.624   4.825  10.742
60012SOL    HW181875   7.541   4.851  10.780
60012SOL    HW281876   7.619   4.730  10.735
60013SOL     OW81877   8.642   7.377  12.343
60013SOL    HW181878   8.557   7.343  12.314
60013SOL    HW281879   8.664   7.323  12.419
60014SOL     OW81880  12.525  13.761  10.747
60014SOL    HW181881  12.557  13.845  10.780
60014SOL    HW281882  12.601  13.704  10.749
60015SOL     OW81883   0.263   2.687   8.262
60015SOL    HW181884   0.277   2.693   8.167
60015SOL    HW281885   0.283   2.775   8.295
60016SOL     OW81886   1.268   8.636   3.308
60016SOL    HW181887   1.196   8.576   3.328
60016SOL    HW281888   1.249   8.667   3.220
60017SOL     OW81889  13.345   8.810  13.299
60017SOL    HW181890  13.257   8.807  13.338
60017SOL    HW281891  13.404   8.790  13.372
60018SOL     OW81892   8.401   7.330   0.535
60018SOL    HW181893   8.496   7.323   0.538
60018SOL    HW281894   8.380   7.404   0.592
60019SOL     OW81895  10.175   3.075  13.953
60019SOL    HW181896  10.247   3.048  13.894
60019SOL    HW281897  10.188   3.021  14.031
60020SOL     OW81898   4.113   0.180  11.792
60020SOL    HW181899   4.174   0.191  11.864
60020SOL    HW281900   4.160   0.127  11.728
60021SOL     OW81901   7.704   0.406  11.549
60021SOL    HW181902   7.751   0.325  11.569
60021SOL    HW281903   7.646   0.382  11.477
60022SOL     OW81904   3.301  11.445   7.266
60022SOL    HW181905   3.215  11.484   7.283
60022SOL    HW281906   3.338  11.428   7.352
60023SOL     OW81907  10.440   2.555  12.420
60023SOL    HW181908  10.398   2.481  12.376
60023SOL    HW281909  10.409   2.632  12.373
60024SOL     OW81910   0.880   6.884   2.986
60024SOL    HW181911   0.911   6.873   2.896
60024SOL    HW281912   0.922   6.814   3.035
60025SOL     OW81913   8.284  13.132   2.424
60025SOL    HW181914   8.189  13.140   2.417
60025SOL    HW281915   8.298  13.050   2.472
60026SOL     OW81916   5.185   4.145   3.098
60026SOL    HW181917   5.264   4.118   3.051
60026SOL    HW281918   5.214   4.154   3.189
60027SOL     OW81919  13.932   4.905  11.263
60027SOL    HW181920  13.951   4.905  11.357
60027SOL    HW281921  13.902   4.994  11.245
60028SOL     OW81922   8.629   5.886   6.013
60028SOL    HW181923   8.573   5.939   5.956
60028SOL    HW281924   8.570   5.824   6.055
60029SOL     OW81925  14.423   3.439   7.787
60029SOL    HW181926  14.460   3.355   7.817
60029SOL    HW281927  14.485   3.470   7.721
60030SOL     OW81928   2.414   0.391  10.504
60030SOL    HW181929   2.332   0.425  10.541
60030SOL    HW281930   2.386   0.326  10.439
60031SOL     OW81931  13.910  10.681  10.306
60031SOL    HW181932  13.879  10.771  10.313
60031SOL    HW281933  13.835  10.628  10.332
60032SOL     OW81934   6.367  10.617   6.115
60032SOL    HW181935   6.441  10.578   6.162
60032SOL    HW281936   6.312  10.542   6.091
60033SOL     OW81937   0.870  12.881   4.336
60033SOL    HW181938   0.853  12.954   4.396
60033SOL    HW281939   0.960  12.894   4.307
60034SOL     OW81940  11.161   7.104   3.870
60034SOL    HW181941  11.138   7.154   3.792
60034SOL    HW281942  11.088   7.042   3.881
60035SOL     OW81943   1.524   5.495   8.757
60035SOL    HW181944   1.589   5.556   8.791
60035SOL    HW281945   1.503   5.439   8.831
60036SOL     OW81946   6.675  14.844   3.420
60036SOL    HW181947   6.677  14.797   3.503
60036SOL    HW281948   6.747  14.807   3.369
60037SOL     OW81949   4.010   9.829   1.969
60037SOL    HW181950   3.966   9.914   1.972
60037SOL    HW281951   3.989   9.794   1.883
60038SOL     OW81952   0.403   7.298   2.447
60038SOL    HW181953   0.399   7.203   2.460
60038SOL    HW281954   0.426   7.308   2.355
60039SOL     OW81955  10.973   2.562   7.786
60039SOL    HW181956  10.964   2.535   7.877
60039SOL    HW281957  10.964   2.658   7.788
60040SOL     OW81958  14.724  14.835   3.953
60040SOL    HW181959  14.748   0.043   3.992
60040SOL    HW281960  14.706  14.778   4.028
60041SOL     OW81961   3.687   9.141   2.523
60041SOL    HW181962   3.649   9.228   2.524
60041SOL    HW281963   3.764   9.146   2.579
60042SOL     OW81964   6.810  14.577  11.128
60042SOL    HW181965   6.866  14.633  11.073
60042SOL    HW281966   6.746  14.637  11.166
60043SOL     OW81967   6.229   3.640  13.338
60043SOL    HW181968   6.325   3.634  13.338
60043SOL    HW281969   6.208   3.690  13.259
60044SOL     OW81970   9.977  12.411   7.707
60044SOL    HW181971   9.884  12.401   7.691
60044SOL    HW281972  10.018  12.380   7.626
60045SOL     OW81973   2.480   6.519  14.751
60045SOL    HW181974   2.545   6.466  14.798
60045SOL    HW281975   2.408   6.458  14.732
60046SOL     OW81976   4.118  11.649  10.634
60046SOL    HW181977   4.047  11.702  10.671
60046SOL    HW281978   4.145  11.696  10.556
60047SOL     OW81979  10.876   5.016  12.110
60047SOL    HW181980  10.872   5.104  12.071
60047SOL    HW281981  10.867   5.032  12.204
60048SOL     OW81982  11.026  12.157   3.187
60048SOL    HW181983  11.028  12.252   3.200
60048SOL    HW281984  11.096  12.124   3.243
60049SOL     OW81985   1.101  11.545   1.474
60049SOL    HW181986   1.126  11.538   1.566
60049SOL    HW281987   1.123  11.459   1.438
60050SOL     OW81988   2.892   8.302   1.906
60050SOL    HW181989   2.878   8.325   1.814
60050SOL    HW281990   2.987   8.305   1.918
60051SOL     OW81991   8.849  11.959  10.811
60051SOL    HW181992   8.905  11.890  10.844
60051SOL    HW281993   8.771  11.955  10.866
60052SOL     OW81994  11.061  10.034   7.016
60052SOL    HW181995  10.966  10.038   7.007
60052SOL    HW281996  11.083   9.941   7.009
60053SOL     OW81997   1.281   8.415   2.669
60053SOL    HW181998   1.188   8.424   2.691
60053SOL    HW281999   1.289   8.326   2.635
60054SOL     OW82000   9.793  11.382   8.588
60054SOL    HW182001   9.855  11.450   8.563
60054SOL    HW282002   9.813  11.364   8.680
60055SOL     OW82003   1.261  11.034   0.991
60055SOL    HW182004   1.327  11.063   0.928
60055SOL    HW282005   1.181  11.080   0.965
60056SOL     OW82006   9.890   5.824   1.579
60056SOL    HW182007   9.917   5.802   1.490
60056SOL    HW282008   9.795   5.830   1.574
60057SOL     OW82009   7.803  10.389   5.550
60057SOL    HW182010   7.881  10.367   5.601
60057SOL    HW282011   7.744  10.429   5.614
60058SOL     OW82012   6.965  14.716  10.827
60058SOL    HW182013   7.033  14.674  10.881
60058SOL    HW282014   7.003  14.801  10.803
60059SOL     OW82015  10.682   2.382   6.421
60059SOL    HW182016  10.622   2.439   6.468
60059SOL    HW282017  10.769   2.421   6.438
60060SOL     OW82018  10.547   3.976   0.204
60060SOL    HW182019  10.551   3.957   0.110
60060SOL    HW282020  10.454   3.986   0.223
60061SOL     OW82021   7.706   0.528   9.827
60061SOL    HW182022   7.731   0.436   9.817
60061SOL    HW282023   7.770   0.576   9.776
60062SOL     OW82024   7.982   2.457   0.434
60062SOL    HW182025   7.986   2.553   0.429
60062SOL    HW282026   7.934   2.431   0.355
60063SOL     OW82027  10.881   6.176   5.649
60063SOL    HW182028  10.934   6.245   5.686
60063SOL    HW282029  10.798   6.180   5.697
60064SOL     OW82030   6.745   5.504   1.539
60064SOL    HW182031   6.829   5.478   1.501
60064SOL    HW282032   6.767   5.550   1.620
60065SOL     OW82033  11.614   0.616   0.806
60065SOL    HW182034  11.548   0.587   0.869
60065SOL    HW282035  11.667   0.679   0.854
60066SOL     OW82036   9.559   4.553   4.979
60066SOL    HW182037   9.575   4.468   5.019
60066SOL    HW282038   9.529   4.532   4.890
60067SOL     OW82039  12.598   8.730  10.989
60067SOL    HW182040  12.556   8.686  10.915
60067SOL    HW282041  12.654   8.796  10.949
60068SOL     OW82042  13.603   0.648   5.571
60068SOL    HW182043  13.575   0.647   5.662
60068SOL    HW282044  13.588   0.559   5.539
60069SOL     OW82045   4.100   5.678   9.742
60069SOL    HW182046   4.102   5.695   9.648
60069SOL    HW282047   4.192   5.667   9.766
60070SOL     OW82048   9.723  14.172   8.789
60070SOL    HW182049   9.670  14.222   8.851
60070SOL    HW282050   9.785  14.124   8.844
60071SOL     OW82051   5.318   4.945   1.993
60071SOL    HW182052   5.313   4.920   1.901
60071SOL    HW282053   5.341   4.864   2.039
60072SOL     OW82054   5.494   7.728   5.926
60072SOL    HW182055   5.429   7.777   5.875
60072SOL    HW282056   5.497   7.642   5.883
60073SOL     OW82057   4.184  12.735  14.131
60073SOL    HW182058   4.117  12.667  14.141
60073SOL    HW282059   4.250  12.712  14.196
60074SOL     OW82060   5.862  14.519   4.620
60074SOL    HW182061   5.922  14.585   4.657
60074SOL    HW282062   5.918  14.461   4.570
60075SOL     OW82063   7.614   1.582   8.034
60075SOL    HW182064   7.684   1.541   8.086
60075SOL    HW282065   7.646   1.671   8.018
60076SOL     OW82066   2.817   8.506  14.374
60076SOL    HW182067   2.797   8.547  14.289
60076SOL    HW282068   2.745   8.533  14.431
60077SOL     OW82069  11.036   5.737   7.173
60077SOL    HW182070  11.099   5.728   7.101
60077SOL    HW282071  11.043   5.829   7.199
60078SOL     OW82072   8.339   0.242   5.641
60078SOL    HW182073   8.282   0.238   5.718
60078SOL    HW282074   8.285   0.282   5.573
60079SOL     OW82075   3.697   2.293  14.418
60079SOL    HW182076   3.782   2.338  14.412
60079SOL    HW282077   3.720   2.200  14.418
60080SOL     OW82078  13.642  11.259   4.818
60080SOL    HW182079  13.711  11.260   4.885
60080SOL    HW282080  13.659  11.179   4.768
60081SOL     OW82081  12.678  12.390  13.178
60081SOL    HW182082  12.761  12.349  13.202
60081SOL    HW282083  12.679  12.393  13.083
60082SOL     OW82084   6.384   6.369  12.079
60082SOL    HW182085   6.410   6.437  12.017
60082SOL    HW282086   6.389   6.412  12.165
60083SOL     OW82087   8.805  11.492   9.551
60083SOL    HW182088   8.816  11.412   9.501
60083SOL    HW282089   8.891  11.507   9.592
60084SOL     OW82090   6.983   7.118   6.344
60084SOL    HW182091   6.898   7.141   6.381
60084SOL    HW282092   6.988   7.168   6.262
60085SOL     OW82093   4.355   8.524  13.889
60085SOL    HW182094   4.391   8.580  13.957
60085SOL    HW282095   4.260   8.529  13.900
60086SOL     OW82096  13.723  14.501   8.584
60086SOL    HW182097  13.737  14.445   8.507
60086SOL    HW282098  13.740  14.444   8.658
60087SOL     OW82099   8.174  10.148   8.887
60087SOL    HW182100   8.094  10.098   8.871
60087SOL    HW282101   8.185  10.145   8.982
60088SOL     OW82102  11.859   4.359  11.686
60088SOL    HW182103  11.946   4.320  11.695
60088SOL    HW282104  11.821   4.354  11.774
60089SOL     OW82105  13.484   8.125  12.674
60089SOL    HW182106  13.474   8.137  12.768
60089SOL    HW282107  13.576   8.102  12.662
60090SOL     OW82108   6.692   6.582   3.708
60090SOL    HW182109   6.771   6.545   3.669
60090SOL    HW282110   6.621   6.553   3.651
60091SOL     OW82111   1.354  13.373   9.571
60091SOL    HW182112   1.349  13.331   9.657
60091SOL    HW282113   1.446  13.394   9.559
60092SOL     OW82114   7.449  12.765   0.340
60092SOL    HW182115   7.396  12.788   0.416
60092SOL    HW282116   7.460  12.847   0.292
60093SOL     OW82117  13.892   7.051  10.165
60093SOL    HW182118  13.975   7.081  10.202
60093SOL    HW282119  13.892   6.956  10.177
60094SOL     OW82120   7.298   6.704   3.938
60094SOL    HW182121   7.229   6.641   3.917
60094SOL    HW282122   7.374   6.675   3.887
60095SOL     OW82123  12.853   6.124  10.671
60095SOL    HW182124  12.933   6.158  10.631
60095SOL    HW282125  12.802   6.202  10.694
60096SOL     OW82126   3.883   2.922   1.760
60096SOL    HW182127   3.970   2.885   1.780
60096SOL    HW282128   3.840   2.928   1.846
60097SOL     OW82129   0.988  10.415   4.375
60097SOL    HW182130   0.980  10.420   4.471
60097SOL    HW282131   0.936  10.338   4.352
60098SOL     OW82132   6.422   1.265  10.242
60098SOL    HW182133   6.387   1.177  10.233
60098SOL    HW282134   6.347   1.319  10.267
60099SOL     OW82135   6.055  10.470  13.779
60099SOL    HW182136   6.139  10.469  13.731
60099SOL    HW282137   5.990  10.494  13.712
60100SOL     OW82138   0.909  10.904   4.590
60100SOL    HW182139   0.978  10.838   4.594
60100SOL    HW282140   0.828  10.853   4.585
60101SOL     OW82141   3.715   4.402   7.615
60101SOL    HW182142   3.720   4.480   7.669
60101SOL    HW282143   3.623   4.375   7.620
60102SOL     OW82144   7.145  14.200   2.562
60102SOL    HW182145   7.119  14.183   2.653
60102SOL    HW282146   7.082  14.149   2.510
60103SOL     OW82147   8.490   5.073  10.129
60103SOL    HW182148   8.495   4.986  10.168
60103SOL    HW282149   8.532   5.130  10.194
60104SOL     OW82150   0.437   1.436   7.661
60104SOL    HW182151   0.384   1.375   7.610
60104SOL    HW282152   0.375   1.479   7.719
60105SOL     OW82153  13.401   9.395  10.831
60105SOL    HW182154  13.455   9.321  10.805
60105SOL    HW282155  13.329   9.356  10.880
60106SOL     OW82156   6.259  14.395   2.566
60106SOL    HW182157   6.216  14.398   2.481
60106SOL    HW282158   6.320  14.322   2.560
60107SOL     OW82159   7.907  14.229   8.958
60107SOL    HW182160   7.911  14.232   8.863
60107SOL    HW282161   7.877  14.141   8.978
60108SOL     OW82162   7.739   9.043   3.450
60108SOL    HW182163   7.816   9.069   3.500
60108SOL    HW282164   7.734   8.948   3.463
60109SOL     OW82165  11.947  11.136  14.080
60109SOL    HW182166  11.915  11.117  13.991
60109SOL    HW282167  11.873  11.179  14.123
60110SOL     OW82168   1.714   9.234   5.545
60110SOL    HW182169   1.642   9.255   5.605
60110SOL    HW282170   1.689   9.150   5.506
60111SOL     OW82171   8.419   8.375   6.010
60111SOL    HW182172   8.442   8.354   6.101
60111SOL    HW282173   8.427   8.292   5.963
60112SOL     OW82174   2.148   9.346   0.885
60112SOL    HW182175   2.204   9.406   0.836
60112SOL    HW282176   2.113   9.287   0.818
60113SOL     OW82177   8.539   3.524   0.320
60113SOL    HW182178   8.633   3.506   0.324
60113SOL    HW282179   8.510   3.484   0.237
60114SOL     OW82180   3.524   9.548   5.802
60114SOL    HW182181   3.476   9.475   5.763
60114SOL    HW282182   3.529   9.527   5.895
60115SOL     OW82183   9.377  13.981   6.242
60115SOL    HW182184   9.431  14.048   6.199
60115SOL    HW282185   9.438  13.909   6.258
60116SOL     OW82186   2.658   5.585  13.830
60116SOL    HW182187   2.751   5.574  13.851
60116SOL    HW282188   2.657   5.656  13.765
60117SOL     OW82189   2.453  11.534   7.212
60117SOL    HW182190   2.508  11.512   7.137
60117SOL    HW282191   2.500  11.496   7.287
60118SOL     OW82192   2.712  10.751   6.018
60118SOL    HW182193   2.685  10.671   5.973
60118SOL    HW282194   2.798  10.729   6.056
60119SOL     OW82195  13.991  12.759   0.727
60119SOL    HW182196  13.989  12.842   0.680
60119SOL    HW282197  13.916  12.762   0.786
60120SOL     OW82198  11.465   4.758   4.978
60120SOL    HW182199  11.520   4.808   5.038
60120SOL    HW282200  11.428   4.824   4.920
60121SOL     OW82201   0.252   0.394   4.472
60121SOL    HW182202   0.314   0.322   4.485
60121SOL    HW282203   0.235   0.393   4.377
60122SOL     OW82204  11.410  12.237  10.324
60122SOL    HW182205  11.457  12.194  10.396
60122SOL    HW282206  11.354  12.168  10.288
60123SOL     OW82207   1.077   0.060   3.150
60123SOL    HW182208   1.118   0.146   3.158
60123SOL    HW282209   1.117   0.007   3.218
60124SOL     OW82210   7.968   9.314  10.833
60124SOL    HW182211   7.989   9.406  10.846
60124SOL    HW282212   7.914   9.291  10.908
60125SOL     OW82213   5.153  11.902  14.118
60125SOL    HW182214   5.241  11.878  14.147
60125SOL    HW282215   5.146  11.996  14.135
60126SOL     OW82216  10.045  10.544   7.046
60126SOL    HW182217   9.949  10.537   7.048
60126SOL    HW282218  10.064  10.630   7.083
60127SOL     OW82219   5.581  13.173   7.187
60127SOL    HW182220   5.579  13.099   7.126
60127SOL    HW282221   5.668  13.210   7.175
60128SOL     OW82222  14.333   9.021  13.037
60128SOL    HW182223  14.243   9.014  13.007
60128SOL    HW282224  14.352   8.936  13.077
60129SOL     OW82225   7.656   0.780  12.314
60129SOL    HW182226   7.671   0.829  12.234
60129SOL    HW282227   7.743   0.767  12.352
60130SOL     OW82228   0.554  12.496   4.815
60130SOL    HW182229   0.562  12.487   4.720
60130SOL    HW282230   0.644  12.503   4.847
60131SOL     OW82231   8.689   0.320   7.961
60131SOL    HW182232   8.635   0.379   7.909
60131SOL    HW282233   8.748   0.377   8.011
60132SOL     OW82234   7.262   4.804   7.759
60132SOL    HW182235   7.329   4.872   7.760
60132SOL    HW282236   7.294   4.737   7.819
60133SOL     OW82237   2.268  11.174   0.897
60133SOL    HW182238   2.247  11.084   0.870
60133SOL    HW282239   2.295  11.166   0.988
60134SOL     OW82240  14.698   7.222   8.933
60134SOL    HW182241  14.678   7.204   8.841
60134SOL    HW282242  14.643   7.160   8.982
60135SOL     OW82243   6.345   5.717  14.149
60135SOL    HW182244   6.426   5.746  14.107
60135SOL    HW282245   6.345   5.762  14.233
60136SOL     OW82246   9.916   3.542   3.235
60136SOL    HW182247   9.871   3.511   3.156
60136SOL    HW282248   9.845   3.563   3.296
60137SOL     OW82249   9.094   7.571   0.201
60137SOL    HW182250   9.058   7.648   0.246
60137SOL    HW282251   9.046   7.497   0.238
60138SOL     OW82252  13.915   8.844  11.740
60138SOL    HW182253  13.947   8.883  11.822
60138SOL    HW282254  13.962   8.891  11.671
60139SOL     OW82255  13.840   6.293  12.687
60139SOL    HW182256  13.763   6.307  12.741
60139SOL    HW282257  13.835   6.200  12.663
60140SOL     OW82258  12.045  12.667  12.754
60140SOL    HW182259  12.000  12.714  12.684
60140SOL    HW282260  12.122  12.628  12.712
60141SOL     OW82261   5.266   6.269   8.671
60141SOL    HW182262   5.355   6.238   8.686
60141SOL    HW282263   5.216   6.237   8.746
60142SOL     OW82264  13.312  10.020  11.733
60142SOL    HW182265  13.330   9.953  11.667
60142SOL    HW282266  13.398  10.056  11.755
60143SOL     OW82267   2.855  10.504   6.617
60143SOL    HW182268   2.839  10.598   6.628
60143SOL    HW282269   2.946  10.499   6.589
60144SOL     OW82270   1.753   5.181   8.336
60144SOL    HW182271   1.722   5.233   8.410
60144SOL    HW282272   1.703   5.213   8.261
60145SOL     OW82273  10.861   5.147   7.610
60145SOL    HW182274  10.767   5.137   7.622
60145SOL    HW282275  10.890   5.195   7.688
60146SOL     OW82276   2.051   6.884   9.780
60146SOL    HW182277   2.093   6.814   9.729
60146SOL    HW282278   1.969   6.846   9.810
60147SOL     OW82279   5.432   4.125   2.991
60147SOL    HW182280   5.419   4.205   2.939
60147SOL    HW282281   5.523   4.101   2.976
60148SOL     OW82282  10.806  13.686  12.140
60148SOL    HW182283  10.721  13.641  12.134
60148SOL    HW282284  10.812  13.713  12.231
60149SOL     OW82285   1.647   5.777   1.067
60149SOL    HW182286   1.595   5.840   1.017
60149SOL    HW282287   1.708   5.830   1.118
60150SOL     OW82288   0.865   4.917   6.455
60150SOL    HW182289   0.813   4.997   6.466
60150SOL    HW282290   0.860   4.873   6.539
60151SOL     OW82291   5.591   4.554  14.026
60151SOL    HW182292   5.518   4.566  13.965
60151SOL    HW282293   5.640   4.480  13.991
60152SOL     OW82294   5.418  13.141   5.457
60152SOL    HW182295   5.476  13.180   5.523
60152SOL    HW282296   5.463  13.061   5.430
60153SOL     OW82297   3.747   6.782   4.262
60153SOL    HW182298   3.741   6.861   4.209
60153SOL    HW282299   3.837   6.752   4.250
60154SOL     OW82300   2.420   8.514   5.744
60154SOL    HW182301   2.424   8.526   5.839
60154SOL    HW282302   2.327   8.512   5.723
60155SOL     OW82303   7.294   7.188   7.911
60155SOL    HW182304   7.230   7.123   7.940
60155SOL    HW282305   7.259   7.272   7.941
60156SOL     OW82306  10.611   9.454   1.582
60156SOL    HW182307  10.613   9.506   1.663
60156SOL    HW282308  10.684   9.393   1.591
60157SOL     OW82309  12.762  13.901  10.650
60157SOL    HW182310  12.725  13.964  10.711
60157SOL    HW282311  12.835  13.947  10.609
60158SOL     OW82312  14.291   8.099   0.399
60158SOL    HW182313  14.227   8.103   0.329
60158SOL    HW282314  14.370   8.065   0.358
60159SOL     OW82315  13.329  13.006   7.542
60159SOL    HW182316  13.395  13.068   7.575
60159SOL    HW282317  13.366  12.920   7.561
60160SOL     OW82318   1.200   0.707  13.755
60160SOL    HW182319   1.160   0.651  13.821
60160SOL    HW282320   1.294   0.696  13.769
60161SOL     OW82321   7.569   0.633   3.926
60161SOL    HW182322   7.606   0.677   3.850
60161SOL    HW282323   7.564   0.541   3.900
60162SOL     OW82324   2.834   3.989   8.029
60162SOL    HW182325   2.884   3.913   7.999
60162SOL    HW282326   2.900   4.046   8.068
60163SOL     OW82327   2.813  12.742   3.906
60163SOL    HW182328   2.784  12.739   3.997
60163SOL    HW282329   2.733  12.733   3.855
60164SOL     OW82330  10.495   6.037  11.509
60164SOL    HW182331  10.574   6.062  11.461
60164SOL    HW282332  10.476   6.112  11.565
60165SOL     OW82333   1.284   1.738  13.632
60165SOL    HW182334   1.277   1.826  13.595
60165SOL    HW282335   1.377   1.716  13.624
60166SOL     OW82336   6.502  14.401   6.002
60166SOL    HW182337   6.539  14.336   6.062
60166SOL    HW282338   6.515  14.485   6.046
60167SOL     OW82339   3.843  14.141  11.387
60167SOL    HW182340   3.790  14.176  11.315
60167SOL    HW282341   3.780  14.123  11.457
60168SOL     OW82342   4.082  14.831   8.100
60168SOL    HW182343   4.077  14.765   8.169
60168SOL    HW282344   3.997  14.827   8.057
60169SOL     OW82345   4.968  11.885  14.331
60169SOL    HW182346   5.054  11.876  14.289
60169SOL    HW282347   4.970  11.972  14.371
60170SOL     OW82348   8.151   8.385   7.646
60170SOL    HW182349   8.160   8.447   7.719
60170SOL    HW282350   8.216   8.413   7.582
60171SOL     OW82351  13.191   8.657  11.661
60171SOL    HW182352  13.279   8.628  11.640
60171SOL    HW282353  13.188   8.661  11.756
60172SOL     OW82354   8.269   8.052  13.471
60172SOL    HW182355   8.324   8.106  13.529
60172SOL    HW282356   8.332   8.003  13.418
60173SOL     OW82357  12.488   5.378   7.981
60173SOL    HW182358  12.503   5.316   7.910
60173SOL    HW282359  12.471   5.461   7.937
60174SOL     OW82360   0.326  12.498  13.039
60174SOL    HW182361   0.239  12.538  13.038
60174SOL    HW282362   0.319  12.424  13.099
60175SOL     OW82363   4.460  12.731  14.262
60175SOL    HW182364   4.477  12.825  14.274
60175SOL    HW282365   4.543  12.689  14.284
60176SOL     OW82366  13.769   2.825   9.833
60176SOL    HW182367  13.828   2.900   9.844
60176SOL    HW282368  13.710   2.829   9.908
60177SOL     OW82369   4.987   9.596  13.725
60177SOL    HW182370   4.954   9.545  13.651
60177SOL    HW282371   4.954   9.550  13.802
60178SOL     OW82372   4.033   1.721   8.110
60178SOL    HW182373   4.089   1.648   8.138
60178SOL    HW282374   3.956   1.715   8.166
60179SOL     OW82375  13.851  11.987   3.822
60179SOL    HW182376  13.937  11.980   3.779
60179SOL    HW282377  13.793  12.019   3.753
60180SOL     OW82378  13.677  14.054   3.850
60180SOL    HW182379  13.682  13.976   3.904
60180SOL    HW282380  13.631  14.118   3.904
60181SOL     OW82381  10.522  11.590   3.079
60181SOL    HW182382  10.544  11.662   3.139
60181SOL    HW282383  10.560  11.513   3.120
60182SOL     OW82384   7.906   1.759   2.075
60182SOL    HW182385   7.972   1.758   2.144
60182SOL    HW282386   7.823   1.757   2.121
60183SOL     OW82387  10.206   6.152  13.164
60183SOL    HW182388  10.189   6.097  13.240
60183SOL    HW282389  10.281   6.112  13.121
60184SOL     OW82390   0.905   9.251  12.506
60184SOL    HW182391   0.966   9.280  12.438
60184SOL    HW282392   0.860   9.331  12.533
60185SOL     OW82393   4.187   6.322  11.282
60185SOL    HW182394   4.129   6.398  11.272
60185SOL    HW282395   4.171   6.291  11.371
60186SOL     OW82396   1.652  12.279   7.007
60186SOL    HW182397   1.685  12.229   6.933
60186SOL    HW282398   1.731  12.316   7.047
60187SOL     OW82399  14.538   8.785   5.950
60187SOL    HW182400  14.556   8.831   5.868
60187SOL    HW282401  14.611   8.808   6.007
60188SOL     OW82402   3.486   9.917  10.650
60188SOL    HW182403   3.421   9.985  10.665
60188SOL    HW282404   3.448   9.838  10.690
60189SOL     OW82405   1.695   6.985   2.585
60189SOL    HW182406   1.697   6.898   2.546
60189SOL    HW282407   1.713   6.970   2.678
60190SOL     OW82408  11.999   1.445   1.703
60190SOL    HW182409  12.082   1.477   1.669
60190SOL    HW282410  11.953   1.523   1.734
60191SOL     OW82411   3.276   1.964   4.879
60191SOL    HW182412   3.348   1.927   4.829
60191SOL    HW282413   3.310   1.971   4.968
60192SOL     OW82414   1.847  12.723   4.589
60192SOL    HW182415   1.876  12.633   4.604
60192SOL    HW282416   1.782  12.716   4.519
60193SOL     OW82417   6.824  12.813   2.751
60193SOL    HW182418   6.881  12.890   2.757
60193SOL    HW282419   6.753  12.830   2.812
60194SOL     OW82420   2.369  10.195   1.097
60194SOL    HW182421   2.438  10.131   1.115
60194SOL    HW282422   2.396  10.239   1.016
60195SOL     OW82423   4.581  13.800  10.230
60195SOL    HW182424   4.630  13.881  10.213
60195SOL    HW282425   4.554  13.808  10.321
60196SOL     OW82426   1.614   9.108   0.462
60196SOL    HW182427   1.678   9.090   0.393
60196SOL    HW282428   1.659   9.083   0.543
60197SOL     OW82429  11.644   7.737  11.027
60197SOL    HW182430  11.663   7.666  10.966
60197SOL    HW282431  11.582   7.700  11.090
60198SOL     OW82432  10.750   6.401   0.216
60198SOL    HW182433  10.754   6.351   0.297
60198SOL    HW282434  10.826   6.460   0.221
60199SOL     OW82435  12.234   9.854   7.903
60199SOL    HW182436  12.280   9.936   7.923
60199SOL    HW282437  12.283   9.787   7.950
60200SOL     OW82438  13.977   3.959  13.138
60200SOL    HW182439  14.008   3.869  13.126
60200SOL    HW282440  13.986   3.998  13.051
60201SOL     OW82441  11.081   7.506   7.591
60201SOL    HW182442  11.119   7.424   7.622
60201SOL    HW282443  11.099   7.569   7.660
60202SOL     OW82444   4.045   1.654  14.061
60202SOL    HW182445   3.966   1.707  14.048
60202SOL    HW282446   4.046   1.637  14.156
60203SOL     OW82447   0.215  12.649   9.695
60203SOL    HW182448   0.205  12.624   9.603
60203SOL    HW282449   0.286  12.713   9.694
60204SOL     OW82450   2.749   5.245  11.894
60204SOL    HW182451   2.739   5.194  11.813
60204SOL    HW282452   2.729   5.335  11.867
60205SOL     OW82453   1.635   7.265  10.677
60205SOL    HW182454   1.703   7.199  10.687
60205SOL    HW282455   1.684   7.347  10.664
60206SOL     OW82456   9.514   3.844   2.734
60206SOL    HW182457   9.592   3.899   2.726
60206SOL    HW282458   9.547   3.757   2.754
60207SOL     OW82459  10.412   4.354  12.775
60207SOL    HW182460  10.361   4.345  12.694
60207SOL    HW282461  10.420   4.264  12.808
60208SOL     OW82462   8.088   5.791   0.275
60208SOL    HW182463   8.089   5.775   0.180
60208SOL    HW282464   8.021   5.858   0.287
60209SOL     OW82465   2.177  12.339   1.701
60209SOL    HW182466   2.256  12.337   1.646
60209SOL    HW282467   2.173  12.428   1.734
60210SOL     OW82468  13.046   8.603   9.274
60210SOL    HW182469  12.983   8.536   9.249
60210SOL    HW282470  12.994   8.684   9.281
60211SOL     OW82471   2.531   4.117   1.076
60211SOL    HW182472   2.601   4.055   1.097
60211SOL    HW282473   2.571   4.177   1.013
60212SOL     OW82474   0.701   6.056   7.315
60212SOL    HW182475   0.742   6.130   7.270
60212SOL    HW282476   0.773   6.016   7.364
60213SOL     OW82477  10.959   8.273   3.309
60213SOL    HW182478  10.979   8.317   3.227
60213SOL    HW282479  10.886   8.323   3.346
60214SOL     OW82480  13.336  12.697   6.895
60214SOL    HW182481  13.312  12.789   6.909
60214SOL    HW282482  13.335  12.686   6.800
60215SOL     OW82483   6.733  11.345   0.771
60215SOL    HW182484   6.675  11.396   0.827
60215SOL    HW282485   6.808  11.324   0.826
60216SOL     OW82486   2.107  14.066   1.885
60216SOL    HW182487   2.164  14.003   1.841
60216SOL    HW282488   2.040  14.013   1.928
60217SOL     OW82489   8.050  10.256   8.440
60217SOL    HW182490   8.123  10.206   8.403
60217SOL    HW282491   7.972  10.208   8.413
60218SOL     OW82492   2.731   4.558  14.754
60218SOL    HW182493   2.707   4.513  14.836
60218SOL    HW282494   2.821   4.585  14.767
60219SOL     OW82495  13.881   5.517   3.695
60219SOL    HW182496  13.827   5.548   3.768
60219SOL    HW282497  13.828   5.535   3.617
60220SOL     OW82498   6.615   5.478   8.910
60220SOL    HW182499   6.622   5.536   8.834
60220SOL    HW282500   6.633   5.391   8.875
60221SOL     OW82501  14.097   4.405  12.535
60221SOL    HW182502  14.031   4.338  12.514
60221SOL    HW282503  14.064   4.447  12.614
60222SOL     OW82504  13.974  12.903   2.849
60222SOL    HW182505  13.930  12.867   2.926
60222SOL    HW282506  13.972  12.833   2.784
60223SOL     OW82507   3.650   6.603   8.327
60223SOL    HW182508   3.729   6.619   8.378
60223SOL    HW282509   3.627   6.689   8.292
60224SOL     OW82510  12.866   1.728   8.781
60224SOL    HW182511  12.858   1.666   8.853
60224SOL    HW282512  12.942   1.781   8.804
60225SOL     OW82513  11.605  14.660   4.200
60225SOL    HW182514  11.550  14.716   4.255
60225SOL    HW282515  11.553  14.581   4.186
60226SOL     OW82516   2.776   9.679   8.882
60226SOL    HW182517   2.761   9.588   8.908
60226SOL    HW282518   2.810   9.721   8.961
60227SOL     OW82519  11.815   5.287  12.767
60227SOL    HW182520  11.895   5.310  12.719
60227SOL    HW282521  11.841   5.292  12.859
60228SOL     OW82522  13.943   9.841  13.505
60228SOL    HW182523  13.919   9.933  13.494
60228SOL    HW282524  13.890   9.795  13.440
60229SOL     OW82525   1.248  13.764  11.388
60229SOL    HW182526   1.261  13.696  11.454
60229SOL    HW282527   1.167  13.807  11.413
60230SOL     OW82528   0.306  13.239  14.065
60230SOL    HW182529   0.222  13.261  14.105
60230SOL    HW282530   0.316  13.303  13.994
60231SOL     OW82531   4.135   0.028   4.318
60231SOL    HW182532   4.175  14.821   4.295
60231SOL    HW282533   4.187   0.060   4.392
60232SOL     OW82534   3.643   9.336   0.982
60232SOL    HW182535   3.652   9.241   0.982
60232SOL    HW282536   3.721   9.367   0.934
60233SOL     OW82537   4.686  11.823  10.792
60233SOL    HW182538   4.754  11.829  10.859
60233SOL    HW282539   4.611  11.869  10.830
60234SOL     OW82540   0.177  13.672  11.696
60234SOL    HW182541   0.207  13.725  11.769
60234SOL    HW282542   0.084  13.693  11.687
60235SOL     OW82543   1.705   6.923   4.049
60235SOL    HW182544   1.794   6.923   4.084
60235SOL    HW282545   1.682   6.831   4.041
60236SOL     OW82546   8.917   8.769  11.689
60236SOL    HW182547   8.892   8.856  11.659
60236SOL    HW282548   8.992   8.784  11.747
60237SOL     OW82549  13.818   9.611   7.660
60237SOL    HW182550  13.795   9.664   7.736
60237SOL    HW282551  13.797   9.521   7.685
60238SOL     OW82552   9.860  12.819   2.266
60238SOL    HW182553   9.830  12.797   2.355
60238SOL    HW282554   9.950  12.788   2.263
60239SOL     OW82555   6.249   9.603   6.691
60239SOL    HW182556   6.344   9.599   6.697
60239SOL    HW282557   6.217   9.557   6.768
60240SOL     OW82558  11.734  13.403  13.239
60240SOL    HW182559  11.762  13.492  13.260
60240SOL    HW282560  11.684  13.374  13.315
60241SOL     OW82561   6.499   4.652   5.665
60241SOL    HW182562   6.482   4.644   5.571
60241SOL    HW282563   6.441   4.588   5.706
60242SOL     OW82564  11.596  12.633  11.557
60242SOL    HW182565  11.510  12.592  11.566
60242SOL    HW282566  11.608  12.682  11.639
60243SOL     OW82567   3.413   7.260  12.460
60243SOL    HW182568   3.419   7.355  12.452
60243SOL    HW282569   3.353   7.234  12.390
60244SOL     OW82570   1.559   3.970   2.057
60244SOL    HW182571   1.485   3.934   2.009
60244SOL    HW282572   1.610   3.893   2.083
60245SOL     OW82573  10.593   6.262   3.492
60245SOL    HW182574  10.605   6.356   3.501
60245SOL    HW282575  10.672   6.232   3.446
60246SOL     OW82576   8.628  13.782   1.790
60246SOL    HW182577   8.639  13.771   1.695
60246SOL    HW282578   8.631  13.692   1.824
60247SOL     OW82579   3.592   1.440   1.586
60247SOL    HW182580   3.592   1.368   1.523
60247SOL    HW282581   3.664   1.497   1.556
60248SOL     OW82582   3.980   6.086  13.559
60248SOL    HW182583   3.892   6.063  13.529
60248SOL    HW282584   4.036   6.016  13.525
60249SOL     OW82585   6.806  10.422   6.045
60249SOL    HW182586   6.807  10.338   5.998
60249SOL    HW282587   6.877  10.414   6.109
60250SOL     OW82588   7.048   7.114  12.323
60250SOL    HW182589   6.975   7.060  12.292
60250SOL    HW282590   7.049   7.100  12.418
60251SOL     OW82591  14.715   7.945   2.123
60251SOL    HW182592  14.652   7.908   2.061
60251SOL    HW282593  14.738   8.030   2.086
60252SOL     OW82594   2.975   2.878   0.104
60252SOL    HW182595   2.979   2.949   0.168
60252SOL    HW282596   2.889   2.839   0.116
60253SOL     OW82597  14.314   0.470   7.919
60253SOL    HW182598  14.227   0.434   7.934
60253SOL    HW282599  14.304   0.524   7.841
60254SOL     OW82600  14.104   5.034   3.214
60254SOL    HW182601  14.155   5.074   3.144
60254SOL    HW282602  14.048   5.105   3.246
60255SOL     OW82603   1.884  14.214  11.796
60255SOL    HW182604   1.837  14.294  11.776
60255SOL    HW282605   1.948  14.240  11.863
60256SOL     OW82606   9.828  13.495   3.132
60256SOL    HW182607   9.793  13.409   3.154
60256SOL    HW282608   9.873  13.523   3.212
60257SOL     OW82609   6.493  13.537   2.012
60257SOL    HW182610   6.455  13.623   2.026
60257SOL    HW282611   6.453  13.481   2.078
60258SOL     OW82612   1.153   7.602   8.643
60258SOL    HW182613   1.114   7.644   8.567
60258SOL    HW282614   1.170   7.674   8.704
60259SOL     OW82615   7.719   9.492  12.347
60259SOL    HW182616   7.784   9.497  12.277
60259SOL    HW282617   7.764   9.447  12.418
60260SOL     OW82618   6.544  13.602  13.764
60260SOL    HW182619   6.462  13.577  13.807
60260SOL    HW282620   6.597  13.522  13.766
60261SOL     OW82621   7.821   4.459   2.060
60261SOL    HW182622   7.754   4.391   2.069
60261SOL    HW282623   7.775   4.541   2.079
60262SOL     OW82624  10.297   3.740   4.040
60262SOL    HW182625  10.216   3.717   3.996
60262SOL    HW282626  10.342   3.798   3.978
60263SOL     OW82627  12.355  10.313   4.379
60263SOL    HW182628  12.436  10.356   4.410
60263SOL    HW282629  12.378  10.279   4.293
60264SOL     OW82630   7.071   9.547   1.259
60264SOL    HW182631   7.018   9.475   1.225
60264SOL    HW282632   7.147   9.551   1.201
60265SOL     OW82633   1.633   3.887   4.582
60265SOL    HW182634   1.625   3.976   4.547
60265SOL    HW282635   1.568   3.884   4.653
60266SOL     OW82636  14.425   7.003   2.903
60266SOL    HW182637  14.455   6.924   2.858
60266SOL    HW282638  14.501   7.033   2.953
60267SOL     OW82639  12.393   5.943  12.903
60267SOL    HW182640  12.323   5.943  12.837
60267SOL    HW282641  12.365   5.878  12.967
60268SOL     OW82642  10.001   8.522   0.042
60268SOL    HW182643   9.978   8.598  14.865
60268SOL    HW282644  10.088   8.542   0.076
60269SOL     OW82645  12.927   6.154   4.960
60269SOL    HW182646  12.933   6.247   4.940
60269SOL    HW282647  13.011   6.118   4.930
60270SOL     OW82648   0.144   2.494  11.181
60270SOL    HW182649   0.235   2.483  11.156
60270SOL    HW282650   0.146   2.549  11.259
60271SOL     OW82651   5.126  11.396   8.681
60271SOL    HW182652   5.202  11.381   8.626
60271SOL    HW282653   5.063  11.329   8.653
60272SOL     OW82654   3.882   1.482   4.812
60272SOL    HW182655   3.839   1.519   4.735
60272SOL    HW282656   3.948   1.546   4.836
60273SOL     OW82657   9.599  10.097  13.451
60273SOL    HW182658   9.643  10.016  13.425
60273SOL    HW282659   9.654  10.167  13.416
60274SOL     OW82660   7.645   7.746   8.507
60274SOL    HW182661   7.575   7.712   8.563
60274SOL    HW282662   7.604   7.755   8.421
60275SOL     OW82663  12.682   7.340   0.549
60275SOL    HW182664  12.631   7.277   0.601
60275SOL    HW282665  12.644   7.334   0.461
60276SOL     OW82666   7.798   2.426   8.595
60276SOL    HW182667   7.836   2.512   8.610
60276SOL    HW282668   7.718   2.444   8.545
60277SOL     OW82669   1.898   7.654   3.252
60277SOL    HW182670   1.950   7.593   3.304
60277SOL    HW282671   1.809   7.644   3.285
60278SOL     OW82672  12.227   0.974   7.193
60278SOL    HW182673  12.137   0.991   7.222
60278SOL    HW282674  12.252   1.054   7.147
60279SOL     OW82675  11.420  13.520  13.502
60279SOL    HW182676  11.400  13.453  13.568
60279SOL    HW282677  11.473  13.584  13.549
60280SOL     OW82678  13.561   9.053   2.001
60280SOL    HW182679  13.628   9.057   2.069
60280SOL    HW282680  13.582   9.126   1.943
60281SOL     OW82681   4.648  12.010  13.173
60281SOL    HW182682   4.687  11.925  13.195
60281SOL    HW282683   4.722  12.071  13.171
60282SOL     OW82684  12.440   9.705   2.669
60282SOL    HW182685  12.371   9.643   2.693
60282SOL    HW282686  12.515   9.650   2.648
60283SOL     OW82687  11.631  11.058  13.923
60283SOL    HW182688  11.687  10.979  13.926
60283SOL    HW282689  11.645  11.093  13.835
60284SOL     OW82690   5.245   4.579  14.490
60284SOL    HW182691   5.181   4.617  14.550
60284SOL    HW282692   5.193   4.534  14.424
60285SOL     OW82693   2.094   0.557   8.428
60285SOL    HW182694   2.042   0.479   8.448
60285SOL    HW282695   2.074   0.576   8.337
60286SOL     OW82696  11.797   4.502  14.018
60286SOL    HW182697  11.774   4.442  14.089
60286SOL    HW282698  11.736   4.482  13.948
60287SOL     OW82699  12.718   8.637  10.575
60287SOL    HW182700  12.802   8.599  10.550
60287SOL    HW282701  12.686   8.681  10.496
60288SOL     OW82702   0.846   4.009   6.183
60288SOL    HW182703   0.837   4.096   6.222
60288SOL    HW282704   0.883   3.955   6.254
60289SOL     OW82705   5.038   2.369   4.339
60289SOL    HW182706   4.942   2.368   4.347
60289SOL    HW282707   5.067   2.299   4.397
60290SOL     OW82708   7.320  13.781   9.249
60290SOL    HW182709   7.234  13.805   9.286
60290SOL    HW282710   7.308  13.692   9.217
60291SOL     OW82711  12.185   9.659   5.479
60291SOL    HW182712  12.211   9.729   5.419
60291SOL    HW282713  12.151   9.590   5.422
60292SOL     OW82714   3.816   4.395   0.049
60292SOL    HW182715   3.724   4.377   0.026
60292SOL    HW282716   3.812   4.420   0.141
60293SOL     OW82717   7.877   7.494   9.648
60293SOL    HW182718   7.796   7.462   9.608
60293SOL    HW282719   7.876   7.460   9.737
60294SOL     OW82720  11.007  10.353   4.033
60294SOL    HW182721  10.926  10.387   4.071
60294SOL    HW282722  11.026  10.411   3.960
60295SOL     OW82723   9.979  10.194   9.402
60295SOL    HW182724   9.949  10.284   9.388
60295SOL    HW282725  10.017  10.194   9.489
60296SOL     OW82726  11.082   4.465   1.281
60296SOL    HW182727  11.139   4.476   1.205
60296SOL    HW282728  11.134   4.494   1.355
60297SOL     OW82729   2.922   3.450   9.784
60297SOL    HW182730   2.852   3.500   9.826
60297SOL    HW282731   3.001   3.473   9.834
60298SOL     OW82732  11.580   9.946   8.721
60298SOL    HW182733  11.486   9.956   8.737
60298SOL    HW282734  11.620  10.021   8.766
60299SOL     OW82735   4.498  10.158   1.767
60299SOL    HW182736   4.514  10.234   1.711
60299SOL    HW282737   4.528  10.185   1.853
60300SOL     OW82738   5.464  12.794   1.628
60300SOL    HW182739   5.481  12.700   1.615
60300SOL    HW282740   5.546  12.829   1.663
60301SOL     OW82741   8.694   7.835  11.068
60301SOL    HW182742   8.605   7.866  11.053
60301SOL    HW282743   8.691   7.741  11.050
60302SOL     OW82744   9.318   8.593   7.940
60302SOL    HW182745   9.335   8.510   7.984
60302SOL    HW282746   9.223   8.600   7.935
60303SOL     OW82747   1.098   2.988   1.683
60303SOL    HW182748   1.159   2.966   1.612
60303SOL    HW282749   1.100   3.083   1.688
60304SOL     OW82750   5.016   4.727  13.839
60304SOL    HW182751   5.047   4.695  13.754
60304SOL    HW282752   5.086   4.703  13.900
60305SOL     OW82753   7.018  11.719   2.821
60305SOL    HW182754   6.996  11.650   2.758
60305SOL    HW282755   7.008  11.800   2.771
60306SOL     OW82756   0.732   4.688   2.504
60306SOL    HW182757   0.820   4.718   2.482
60306SOL    HW282758   0.740   4.653   2.593
60307SOL     OW82759   4.593   4.580   5.944
60307SOL    HW182760   4.652   4.545   5.877
60307SOL    HW282761   4.534   4.638   5.896
60308SOL     OW82762   0.987   4.572   3.665
60308SOL    HW182763   0.917   4.507   3.672
60308SOL    HW282764   1.010   4.574   3.572
60309SOL     OW82765   8.388  13.284  14.068
60309SOL    HW182766   8.359  13.326  14.149
60309SOL    HW282767   8.309  13.276  14.015
60310SOL     OW82768   3.061  12.980  10.859
60310SOL    HW182769   3.092  13.067  10.884
60310SOL    HW282770   3.060  12.982  10.764
60311SOL     OW82771   9.930   7.040   2.162
60311SOL    HW182772   9.892   7.075   2.242
60311SOL    HW282773   9.895   6.951   2.156
60312SOL     OW82774   1.640  11.375   6.251
60312SOL    HW182775   1.704  11.373   6.179
60312SOL    HW282776   1.685  11.332   6.324
60313SOL     OW82777   9.898   1.196   2.569
60313SOL    HW182778   9.888   1.110   2.528
60313SOL    HW282779   9.829   1.249   2.530
60314SOL     OW82780   9.159  13.199   0.577
60314SOL    HW182781   9.198  13.175   0.493
60314SOL    HW282782   9.192  13.287   0.594
60315SOL     OW82783   8.654  13.130   7.893
60315SOL    HW182784   8.565  13.134   7.858
60315SOL    HW282785   8.708  13.104   7.819
60316SOL     OW82786   8.341  11.724   9.527
60316SOL    HW182787   8.272  11.676   9.572
60316SOL    HW282788   8.423  11.685   9.559
60317SOL     OW82789   5.467   3.196   0.419
60317SOL    HW182790   5.526   3.203   0.493
60317SOL    HW282791   5.405   3.268   0.431
60318SOL     OW82792  10.141  13.593  11.181
60318SOL    HW182793  10.091  13.539  11.242
60318SOL    HW282794  10.232  13.574  11.201
60319SOL     OW82795   4.949   3.806  14.771
60319SOL    HW182796   4.955   3.756  14.852
60319SOL    HW282797   4.863   3.847  14.773
60320SOL     OW82798  14.350   7.166   2.677
60320SOL    HW182799  14.413   7.237   2.682
60320SOL    HW282800  14.385   7.098   2.735
60321SOL     OW82801  10.558   3.952  13.858
60321SOL    HW182802  10.473   3.959  13.813
60321SOL    HW282803  10.537   3.909  13.941
60322SOL     OW82804   2.400   0.309  13.162
60322SOL    HW182805   2.329   0.370  13.184
60322SOL    HW282806   2.369   0.224  13.195
60323SOL     OW82807   7.995   2.979   3.490
60323SOL    HW182808   7.902   3.002   3.485
60323SOL    HW282809   8.031   3.009   3.406
60324SOL     OW82810   3.891  10.085   1.840
60324SOL    HW182811   3.855  10.164   1.800
60324SOL    HW282812   3.820  10.021   1.835
60325SOL     OW82813   4.681   6.284   9.180
60325SOL    HW182814   4.764   6.249   9.147
60325SOL    HW282815   4.693   6.379   9.177
60326SOL     OW82816   9.100   1.632   6.677
60326SOL    HW182817   9.030   1.592   6.626
60326SOL    HW282818   9.107   1.578   6.755
60327SOL     OW82819   3.079   1.577   3.562
60327SOL    HW182820   3.102   1.637   3.633
60327SOL    HW282821   3.105   1.623   3.482
60328SOL     OW82822  12.318   0.180   6.488
60328SOL    HW182823  12.394   0.236   6.502
60328SOL    HW282824  12.299   0.144   6.575
60329SOL     OW82825   3.148   8.579   6.960
60329SOL    HW182826   3.060   8.605   6.989
60329SOL    HW282827   3.142   8.576   6.865
60330SOL     OW82828   1.611  14.633   0.714
60330SOL    HW182829   1.536  14.591   0.755
60330SOL    HW282830   1.662  14.562   0.677
60331SOL     OW82831   3.886  12.414  12.540
60331SOL    HW182832   3.974  12.378  12.532
60331SOL    HW282833   3.843  12.390  12.458
60332SOL     OW82834   3.869   8.491   6.179
60332SOL    HW182835   3.785   8.522   6.144
60332SOL    HW282836   3.935   8.531   6.123
60333SOL     OW82837   3.539   7.134  10.975
60333SOL    HW182838   3.580   7.141  10.888
60333SOL    HW282839   3.569   7.050  11.009
60334SOL     OW82840   6.266   2.788  12.045
60334SOL    HW182841   6.241   2.796  11.953
60334SOL    HW282842   6.238   2.700  12.070
60335SOL     OW82843   2.287  11.105  12.345
60335SOL    HW182844   2.354  11.080  12.409
60335SOL    HW282845   2.225  11.158  12.394
60336SOL     OW82846  12.193   2.549  13.186
60336SOL    HW182847  12.197   2.565  13.281
60336SOL    HW282848  12.270   2.494  13.168
60337SOL     OW82849   2.633   7.409   3.919
60337SOL    HW182850   2.654   7.388   4.011
60337SOL    HW282851   2.618   7.323   3.879
60338SOL     OW82852   9.690   3.659   7.314
60338SOL    HW182853   9.743   3.641   7.236
60338SOL    HW282854   9.693   3.578   7.364
60339SOL     OW82855  11.251   8.324   5.443
60339SOL    HW182856  11.221   8.335   5.353
60339SOL    HW282857  11.291   8.237   5.445
60340SOL     OW82858   4.101   4.785  12.639
60340SOL    HW182859   4.018   4.738  12.651
60340SOL    HW282860   4.090   4.866  12.689
60341SOL     OW82861   1.083  13.237   7.355
60341SOL    HW182862   1.028  13.208   7.428
60341SOL    HW282863   1.046  13.321   7.329
60342SOL     OW82864  13.468   4.617   3.156
60342SOL    HW182865  13.518   4.697   3.140
60342SOL    HW282866  13.385   4.649   3.193
60343SOL     OW82867  11.531   4.821  12.637
60343SOL    HW182868  11.597   4.887  12.662
60343SOL    HW282869  11.448   4.867  12.643
60344SOL     OW82870  14.062   2.384   9.522
60344SOL    HW182871  13.997   2.364   9.454
60344SOL    HW282872  14.040   2.473   9.549
60345SOL     OW82873  12.264   6.997   1.714
60345SOL    HW182874  12.221   7.078   1.742
60345SOL    HW282875  12.225   6.977   1.629
60346SOL     OW82876  13.512   0.205   5.871
60346SOL    HW182877  13.456   0.128   5.859
60346SOL    HW282878  13.596   0.179   5.831
60347SOL     OW82879   7.472   7.947   9.215
60347SOL    HW182880   7.452   8.008   9.287
60347SOL    HW282881   7.386   7.918   9.185
60348SOL     OW82882  12.199   8.081   2.301
60348SOL    HW182883  12.130   8.031   2.257
60348SOL    HW282884  12.164   8.098   2.388
60349SOL     OW82885  14.862   0.111  11.448
60349SOL    HW182886   0.030   0.027  11.440
60349SOL    HW282887   0.050   0.170  11.487
60350SOL     OW82888   3.289   7.972  12.232
60350SOL    HW182889   3.295   7.902  12.297
60350SOL    HW282890   3.203   7.961  12.193
60351SOL     OW82891   9.392   2.071   7.366
60351SOL    HW182892   9.361   1.984   7.341
60351SOL    HW282893   9.446   2.055   7.443
60352SOL     OW82894  10.002   4.330   0.853
60352SOL    HW182895  10.038   4.416   0.874
60352SOL    HW282896  10.057   4.269   0.902
60353SOL     OW82897  12.067   1.913   8.016
60353SOL    HW182898  12.116   1.834   8.041
60353SOL    HW282899  12.081   1.920   7.921
60354SOL     OW82900   4.182  10.957   2.646
60354SOL    HW182901   4.146  10.960   2.735
60354SOL    HW282902   4.235  10.878   2.645
60355SOL     OW82903   7.373  10.132   5.951
60355SOL    HW182904   7.283  10.145   5.980
60355SOL    HW282905   7.383  10.194   5.878
60356SOL     OW82906  11.178   9.363  10.362
60356SOL    HW182907  11.189   9.308  10.285
60356SOL    HW282908  11.093   9.407  10.348
60357SOL     OW82909   8.680   5.830   9.322
60357SOL    HW182910   8.760   5.827   9.374
60357SOL    HW282911   8.612   5.798   9.380
60358SOL     OW82912  11.791   8.208   9.418
60358SOL    HW182913  11.819   8.201   9.326
60358SOL    HW282914  11.749   8.294   9.424
60359SOL     OW82915  13.881  10.093   9.466
60359SOL    HW182916  13.855  10.099   9.558
60359SOL    HW282917  13.808  10.049   9.423
60360SOL     OW82918   7.378  12.201   7.979
60360SOL    HW182919   7.407  12.208   7.888
60360SOL    HW282920   7.408  12.115   8.007
60361SOL     OW82921  11.514   7.577   4.224
60361SOL    HW182922  11.485   7.665   4.248
60361SOL    HW282923  11.553   7.542   4.304
60362SOL     OW82924  14.493   1.419  10.787
60362SOL    HW182925  14.568   1.426  10.729
60362SOL    HW282926  14.457   1.332  10.771
60363SOL     OW82927  14.113   9.045   9.778
60363SOL    HW182928  14.048   8.991   9.823
60363SOL    HW282929  14.132   8.999   9.697
60364SOL     OW82930   0.569  11.120   4.497
60364SOL    HW182931   0.578  11.030   4.530
60364SOL    HW282932   0.503  11.160   4.554
60365SOL     OW82933   3.456   8.325   2.492
60365SOL    HW182934   3.388   8.393   2.494
60365SOL    HW282935   3.538   8.373   2.483
60366SOL     OW82936   0.533  12.383  10.233
60366SOL    HW182937   0.445  12.419  10.242
60366SOL    HW282938   0.591  12.460  10.230
60367SOL     OW82939   5.050  13.589   9.083
60367SOL    HW182940   4.960  13.564   9.064
60367SOL    HW282941   5.059  13.576   9.178
60368SOL     OW82942  10.174  14.051   2.845
60368SOL    HW182943  10.170  14.130   2.792
60368SOL    HW282944  10.127  13.985   2.794
60369SOL     OW82945  11.973   6.174  11.271
60369SOL    HW182946  11.899   6.183  11.331
60369SOL    HW282947  11.942   6.114  11.203
60370SOL     OW82948  13.053   8.971   3.267
60370SOL    HW182949  13.121   8.923   3.220
60370SOL    HW282950  12.972   8.949   3.220
60371SOL     OW82951  10.736   4.303  12.531
60371SOL    HW182952  10.688   4.382  12.505
60371SOL    HW282953  10.695   4.232  12.483
60372SOL     OW82954  10.709   9.194  10.182
60372SOL    HW182955  10.620   9.227  10.165
60372SOL    HW282956  10.698   9.099  10.191
60373SOL     OW82957   6.135   9.549  13.625
60373SOL    HW182958   6.123   9.521  13.534
60373SOL    HW282959   6.065   9.614  13.638
60374SOL     OW82960   1.472   0.233   8.477
60374SOL    HW182961   1.528   0.233   8.399
60374SOL    HW282962   1.391   0.277   8.449
60375SOL     OW82963  10.793   0.265   4.313
60375SOL    HW182964  10.792   0.346   4.262
60375SOL    HW282965  10.743   0.203   4.260
60376SOL     OW82966   3.438   2.121   5.825
60376SOL    HW182967   3.383   2.113   5.747
60376SOL    HW282968   3.386   2.174   5.885
60377SOL     OW82969   6.047   7.734   4.993
60377SOL    HW182970   6.039   7.656   4.938
60377SOL    HW282971   6.135   7.729   5.029
60378SOL     OW82972   7.948   7.286  14.750
60378SOL    HW182973   7.888   7.281  14.825
60378SOL    HW282974   7.900   7.334  14.683
60379SOL     OW82975  10.608   8.779  12.561
60379SOL    HW182976  10.554   8.720  12.614
60379SOL    HW282977  10.675   8.723  12.523
60380SOL     OW82978   7.805  12.339  10.768
60380SOL    HW182979   7.725  12.384  10.740
60380SOL    HW282980   7.794  12.329  10.862
60381SOL     OW82981   4.311   0.999  13.648
60381SOL    HW182982   4.290   1.090  13.625
60381SOL    HW282983   4.405   1.000  13.664
60382SOL     OW82984   4.787   5.369  11.766
60382SOL    HW182985   4.749   5.303  11.824
60382SOL    HW282986   4.855   5.411  11.819
60383SOL     OW82987  11.206   1.831   9.916
60383SOL    HW182988  11.275   1.783   9.871
60383SOL    HW282989  11.172   1.770   9.982
60384SOL     OW82990  13.396  11.577  12.770
60384SOL    HW182991  13.456  11.586  12.696
60384SOL    HW282992  13.376  11.484  12.773
60385SOL     OW82993   0.889   1.585  12.317
60385SOL    HW182994   0.803   1.606  12.279
60385SOL    HW282995   0.874   1.588  12.411
60386SOL     OW82996   2.186   6.123   3.676
60386SOL    HW182997   2.268   6.124   3.726
60386SOL    HW282998   2.201   6.186   3.605
60387SOL     OW82999   8.252   9.227   5.535
60387SOL    HW183000   8.330   9.268   5.497
60387SOL    HW283001   8.224   9.164   5.469
60388SOL     OW83002   0.369  13.268  11.550
60388SOL    HW183003   0.426  13.194  11.527
60388SOL    HW283004   0.352  13.311  11.467
60389SOL     OW83005   5.043  14.441   5.810
60389SOL    HW183006   5.135  14.466   5.815
60389SOL    HW283007   4.995  14.522   5.831
60390SOL     OW83008  10.357  10.541   4.536
60390SOL    HW183009  10.425  10.501   4.589
60390SOL    HW283010  10.391  10.629   4.517
60391SOL     OW83011   6.092   5.984   9.639
60391SOL    HW183012   6.120   5.909   9.692
60391SOL    HW283013   6.017   5.952   9.590
60392SOL     OW83014  14.460  11.206   5.732
60392SOL    HW183015  14.455  11.114   5.707
60392SOL    HW283016  14.548  11.233   5.705
60393SOL     OW83017   2.931   1.420   0.194
60393SOL    HW183018   2.925   1.335   0.237
60393SOL    HW283019   2.904   1.483   0.261
60394SOL     OW83020  14.744   9.965   5.739
60394SOL    HW183021  14.746  10.015   5.820
60394SOL    HW283022  14.802   9.890   5.755
60395SOL     OW83023  14.278  14.524  13.021
60395SOL    HW183024  14.343  14.460  12.992
60395SOL    HW283025  14.195  14.489  12.987
60396SOL     OW83026  11.995  12.389  14.510
60396SOL    HW183027  12.004  12.312  14.454
60396SOL    HW283028  12.020  12.358  14.597
60397SOL     OW83029   0.149   8.997   9.146
60397SOL    HW183030   0.174   8.904   9.142
60397SOL    HW283031   0.222   9.039   9.191
60398SOL     OW83032   7.651   5.842  12.626
60398SOL    HW183033   7.595   5.806  12.694
60398SOL    HW283034   7.593   5.896  12.573
60399SOL     OW83035  11.517   2.145  14.027
60399SOL    HW183036  11.483   2.212  13.968
60399SOL    HW283037  11.593   2.186  14.068
60400SOL     OW83038   9.307  13.586  13.965
60400SOL    HW183039   9.391  13.621  13.934
60400SOL    HW283040   9.331  13.522  14.032
60401SOL     OW83041  14.814  10.265  12.570
60401SOL    HW183042  14.763  10.185  12.556
60401SOL    HW283043   0.029  10.236  12.560
60402SOL     OW83044  12.916   9.380   1.481
60402SOL    HW183045  12.849   9.414   1.541
60402SOL    HW283046  12.874   9.305   1.439
60403SOL     OW83047   6.627   1.420   6.043
60403SOL    HW183048   6.648   1.457   6.129
60403SOL    HW283049   6.623   1.496   5.985
60404SOL     OW83050  13.294  13.378   1.817
60404SOL    HW183051  13.340  13.315   1.873
60404SOL    HW283052  13.215  13.400   1.866
60405SOL     OW83053   6.977  14.749   9.748
60405SOL    HW183054   6.938  14.821   9.797
60405SOL    HW283055   6.903  14.708   9.702
60406SOL     OW83056   7.829  12.013   2.863
60406SOL    HW183057   7.888  11.941   2.839
60406SOL    HW283058   7.748  11.995   2.815
60407SOL     OW83059   4.785   2.507   1.745
60407SOL    HW183060   4.801   2.551   1.662
60407SOL    HW283061   4.692   2.481   1.741
60408SOL     OW83062   1.035   9.428   2.705
60408SOL    HW183063   1.095   9.486   2.658
60408SOL    HW283064   1.092   9.366   2.750
60409SOL     OW83065  13.591  11.319   3.242
60409SOL    HW183066  13.682  11.348   3.234
60409SOL    HW283067  13.593  11.254   3.312
60410SOL     OW83068   0.993  11.333   7.216
60410SOL    HW183069   0.961  11.334   7.126
60410SOL    HW283070   1.037  11.417   7.226
60411SOL     OW83071   1.197   5.256  13.675
60411SOL    HW183072   1.177   5.293  13.761
60411SOL    HW283073   1.269   5.310  13.642
60412SOL     OW83074   5.854  10.272   9.653
60412SOL    HW183075   5.912  10.303   9.723
60412SOL    HW283076   5.912  10.231   9.590
60413SOL     OW83077   3.041   9.531   4.205
60413SOL    HW183078   3.053   9.623   4.180
60413SOL    HW283079   2.957   9.506   4.166
60414SOL     OW83080   0.821   0.123   9.455
60414SOL    HW183081   0.868   0.046   9.426
60414SOL    HW283082   0.754   0.089   9.515
60415SOL     OW83083   1.900   9.425   4.491
60415SOL    HW183084   1.984   9.461   4.462
60415SOL    HW283085   1.834   9.478   4.447
60416SOL     OW83086   3.561   1.397   4.622
60416SOL    HW183087   3.579   1.352   4.705
60416SOL    HW283088   3.532   1.327   4.563
60417SOL     OW83089   2.376  10.018   2.338
60417SOL    HW183090   2.454  10.047   2.290
60417SOL    HW283091   2.394  10.043   2.429
60418SOL     OW83092  14.405  13.719   2.854
60418SOL    HW183093  14.345  13.731   2.781
60418SOL    HW283094  14.375  13.638   2.897
60419SOL     OW83095   3.061   9.745   8.276
60419SOL    HW183096   3.029   9.790   8.353
60419SOL    HW283097   3.102   9.666   8.309
60420SOL     OW83098  12.870  11.450   6.736
60420SOL    HW183099  12.809  11.524   6.738
60420SOL    HW283100  12.814  11.375   6.713
60421SOL     OW83101  12.083   7.360   2.188
60421SOL    HW183102  12.169   7.326   2.166
60421SOL    HW283103  12.029   7.344   2.111
60422SOL     OW83104   5.652   7.347  11.143
60422SOL    HW183105   5.664   7.292  11.066
60422SOL    HW283106   5.727   7.406  11.143
60423SOL     OW83107   9.288   9.679  14.769
60423SOL    HW183108   9.266   9.746  14.834
60423SOL    HW283109   9.297   9.728  14.687
60424SOL     OW83110   0.989  12.692  10.746
60424SOL    HW183111   0.955  12.625  10.687
60424SOL    HW283112   1.084  12.681  10.741
60425SOL     OW83113   1.610  10.957  14.454
60425SOL    HW183114   1.685  11.010  14.426
60425SOL    HW283115   1.624  10.872  14.413
60426SOL     OW83116   0.547   9.132   2.311
60426SOL    HW183117   0.610   9.102   2.377
60426SOL    HW283118   0.501   9.204   2.353
60427SOL     OW83119   4.360   8.888   4.600
60427SOL    HW183120   4.298   8.816   4.613
60427SOL    HW283121   4.342   8.950   4.670
60428SOL     OW83122  13.474   0.370  10.827
60428SOL    HW183123  13.419   0.292  10.827
60428SOL    HW283124  13.563   0.336  10.837
60429SOL     OW83125   4.693   2.913  14.533
60429SOL    HW183126   4.719   2.934  14.622
60429SOL    HW283127   4.737   2.830  14.514
60430SOL     OW83128   0.091   4.619   1.563
60430SOL    HW183129   0.043   4.602   1.644
60430SOL    HW283130   0.087   4.536   1.515
60431SOL     OW83131  12.093   3.775   1.991
60431SOL    HW183132  12.121   3.807   1.905
60431SOL    HW283133  12.163   3.802   2.050
60432SOL     OW83134   3.485  11.292   3.828
60432SOL    HW183135   3.501  11.197   3.832
60432SOL    HW283136   3.560  11.330   3.872
60433SOL     OW83137   0.820   6.223  12.587
60433SOL    HW183138   0.731   6.247  12.613
60433SOL    HW283139   0.808   6.143  12.535
60434SOL     OW83140   1.422   5.682   5.561
60434SOL    HW183141   1.368   5.751   5.523
60434SOL    HW283142   1.381   5.662   5.645
60435SOL     OW83143   0.792  12.700   7.026
60435SOL    HW183144   0.822  12.745   6.948
60435SOL    HW283145   0.871  12.664   7.066
60436SOL     OW83146   9.298   6.995   2.776
60436SOL    HW183147   9.268   6.927   2.837
60436SOL    HW283148   9.384   7.020   2.809
60437SOL     OW83149   3.642   8.442   3.411
60437SOL    HW183150   3.716   8.386   3.436
60437SOL    HW283151   3.621   8.414   3.322
60438SOL     OW83152   2.421   0.122   4.943
60438SOL    HW183153   2.471   0.047   4.910
60438SOL    HW283154   2.332   0.088   4.953
60439SOL     OW83155   0.138   1.517   4.389
60439SOL    HW183156   0.106   1.488   4.475
60439SOL    HW283157   0.061   1.558   4.348
60440SOL     OW83158   0.522   4.953   5.401
60440SOL    HW183159   0.581   4.923   5.470
60440SOL    HW283160   0.568   4.932   5.320
60441SOL     OW83161   7.883   4.097   0.905
60441SOL    HW183162   7.830   4.017   0.906
60441SOL    HW283163   7.932   4.094   0.988
60442SOL     OW83164   8.768   2.432  12.948
60442SOL    HW183165   8.673   2.439  12.957
60442SOL    HW283166   8.802   2.511  12.990
60443SOL     OW83167   0.673   6.183  10.603
60443SOL    HW183168   0.596   6.179  10.547
60443SOL    HW283169   0.657   6.118  10.671
60444SOL     OW83170  10.989   8.048  14.800
60444SOL    HW183171  10.915   8.108  14.804
60444SOL    HW283172  11.065   8.105  14.785
60445SOL     OW83173  11.312   1.569   6.330
60445SOL    HW183174  11.310   1.507   6.403
60445SOL    HW283175  11.378   1.534   6.270
60446SOL     OW83176  12.887   2.984   7.607
60446SOL    HW183177  12.916   2.897   7.579
60446SOL    HW283178  12.868   3.030   7.525
60447SOL     OW83179   9.552   3.241  12.466
60447SOL    HW183180   9.478   3.300  12.478
60447SOL    HW283181   9.557   3.229  12.371
60448SOL     OW83182   5.053   7.217  10.132
60448SOL    HW183183   5.146   7.225  10.110
60448SOL    HW283184   5.014   7.170  10.058
60449SOL     OW83185  11.536   4.850   9.119
60449SOL    HW183186  11.608   4.807   9.164
60449SOL    HW283187  11.557   4.943   9.125
60450SOL     OW83188  14.292   3.332  11.630
60450SOL    HW183189  14.243   3.383  11.695
60450SOL    HW283190  14.336   3.264  11.682
60451SOL     OW83191   0.445  11.950  11.665
60451SOL    HW183192   0.506  12.005  11.616
60451SOL    HW283193   0.426  11.877  11.606
60452SOL     OW83194   8.304  12.883   1.964
60452SOL    HW183195   8.269  12.904   1.877
60452SOL    HW283196   8.356  12.959   1.988
60453SOL     OW83197  13.979  10.928   3.567
60453SOL    HW183198  14.031  10.853   3.598
60453SOL    HW283199  14.019  10.952   3.484
60454SOL     OW83200   6.269   0.079   5.972
60454SOL    HW183201   6.258   0.147   5.906
60454SOL    HW283202   6.363   0.063   5.977
60455SOL     OW83203  14.245  13.174  12.364
60455SOL    HW183204  14.203  13.121  12.296
60455SOL    HW283205  14.300  13.112  12.413
60456SOL     OW83206  13.266   7.208  14.876
60456SOL    HW183207  13.173   7.209   0.021
60456SOL    HW283208  13.304   7.279   0.052
60457SOL     OW83209   7.522   0.795   0.830
60457SOL    HW183210   7.524   0.733   0.903
60457SOL    HW283211   7.596   0.770   0.775
60458SOL     OW83212   5.701   4.307   0.639
60458SOL    HW183213   5.748   4.248   0.697
60458SOL    HW283214   5.610   4.304   0.669
60459SOL     OW83215   0.847   8.228   2.816
60459SOL    HW183216   0.762   8.261   2.787
60459SOL    HW283217   0.838   8.217   2.910
60460SOL     OW83218   8.164  10.960  10.831
60460SOL    HW183219   8.180  10.989  10.741
60460SOL    HW283220   8.177  10.865  10.829
60461SOL     OW83221   4.042   0.407  12.563
60461SOL    HW183222   4.015   0.486  12.609
60461SOL    HW283223   3.988   0.337  12.600
60462SOL     OW83224   3.478   7.295  13.054
60462SOL    HW183225   3.408   7.236  13.028
60462SOL    HW283226   3.439   7.350  13.122
60463SOL     OW83227   3.106   7.324   5.757
60463SOL    HW183228   3.169   7.354   5.691
60463SOL    HW283229   3.058   7.403   5.782
60464SOL     OW83230  11.568   1.197  12.956
60464SOL    HW183231  11.615   1.123  12.919
60464SOL    HW283232  11.480   1.164  12.973
60465SOL     OW83233   8.619  10.360   2.915
60465SOL    HW183234   8.559  10.307   2.966
60465SOL    HW283235   8.648  10.302   2.844
60466SOL     OW83236   3.574   9.093   8.309
60466SOL    HW183237   3.592   9.064   8.398
60466SOL    HW283238   3.482   9.118   8.310
60467SOL     OW83239   3.360   7.350   5.654
60467SOL    HW183240   3.411   7.305   5.721
60467SOL    HW283241   3.393   7.440   5.656
60468SOL     OW83242   6.862   7.398  13.777
60468SOL    HW183243   6.948   7.418  13.813
60468SOL    HW283244   6.806   7.471  13.804
60469SOL     OW83245   0.731   5.984   8.464
60469SOL    HW183246   0.768   6.022   8.384
60469SOL    HW283247   0.805   5.975   8.523
60470SOL     OW83248   3.156  11.030   7.460
60470SOL    HW183249   3.103  10.987   7.392
60470SOL    HW283250   3.115  11.116   7.470
60471SOL     OW83251  11.019   7.498   0.562
60471SOL    HW183252  10.986   7.424   0.511
60471SOL    HW283253  11.048   7.561   0.496
60472SOL     OW83254  14.561   1.945   7.474
60472SOL    HW183255  14.548   1.985   7.560
60472SOL    HW283256  14.515   2.003   7.413
60473SOL     OW83257   9.163   4.638   4.436
60473SOL    HW183258   9.111   4.561   4.414
60473SOL    HW283259   9.252   4.615   4.409
60474SOL     OW83260   3.008   8.881  14.424
60474SOL    HW183261   3.033   8.906  14.513
60474SOL    HW283262   3.090   8.874  14.376
60475SOL     OW83263   4.004   6.288   6.910
60475SOL    HW183264   3.973   6.275   6.820
60475SOL    HW283265   4.099   6.299   6.902
60476SOL     OW83266   3.411  10.085  13.969
60476SOL    HW183267   3.479  10.093  14.036
60476SOL    HW283268   3.447  10.024  13.905
60477SOL     OW83269  11.532   9.129   3.781
60477SOL    HW183270  11.598   9.097   3.842
60477SOL    HW283271  11.533   9.224   3.792
60478SOL     OW83272  11.887   1.659   0.980
60478SOL    HW183273  11.792   1.668   0.984
60478SOL    HW283274  11.901   1.572   0.943
60479SOL     OW83275   9.604  11.062  12.600
60479SOL    HW183276   9.691  11.022  12.601
60479SOL    HW283277   9.574  11.050  12.510
60480SOL     OW83278   0.740   9.333   4.430
60480SOL    HW183279   0.653   9.365   4.452
60480SOL    HW283280   0.769   9.285   4.508
60481SOL     OW83281   3.237   4.173   1.571
60481SOL    HW183282   3.226   4.245   1.632
60481SOL    HW283283   3.154   4.125   1.576
60482SOL     OW83284  10.345  12.042   0.444
60482SOL    HW183285  10.288  12.057   0.369
60482SOL    HW283286  10.390  11.960   0.424
60483SOL     OW83287   6.445   4.410   6.514
60483SOL    HW183288   6.413   4.481   6.569
60483SOL    HW283289   6.368   4.380   6.466
60484SOL     OW83290  11.186   4.390   0.974
60484SOL    HW183291  11.222   4.362   0.890
60484SOL    HW283292  11.165   4.482   0.962
60485SOL     OW83293  14.020  12.653   4.254
60485SOL    HW183294  13.927  12.674   4.257
60485SOL    HW283295  14.057  12.720   4.196
60486SOL     OW83296  12.716   1.637  14.103
60486SOL    HW183297  12.722   1.623  14.008
60486SOL    HW283298  12.653   1.709  14.112
60487SOL     OW83299   6.442   6.075   2.920
60487SOL    HW183300   6.427   6.169   2.931
60487SOL    HW283301   6.516   6.056   2.978
60488SOL     OW83302  13.371   9.538   7.237
60488SOL    HW183303  13.352   9.608   7.300
60488SOL    HW283304  13.454   9.501   7.267
60489SOL     OW83305   9.276   2.559   4.645
60489SOL    HW183306   9.308   2.645   4.617
60489SOL    HW283307   9.271   2.565   4.740
60490SOL     OW83308   3.600   9.038   9.542
60490SOL    HW183309   3.620   9.059   9.633
60490SOL    HW283310   3.583   8.944   9.542
60491SOL     OW83311  14.801  11.228  10.528
60491SOL    HW183312  14.816  11.215  10.434
60491SOL    HW283313  14.841  11.313  10.547
60492SOL     OW83314   7.624  12.938   6.806
60492SOL    HW183315   7.617  12.985   6.889
60492SOL    HW283316   7.634  12.846   6.831
60493SOL     OW83317   5.283   0.883  11.597
60493SOL    HW183318   5.353   0.842  11.647
60493SOL    HW283319   5.202   0.857  11.642
60494SOL     OW83320   2.284   9.263   8.638
60494SOL    HW183321   2.206   9.210   8.653
60494SOL    HW283322   2.292   9.265   8.542
60495SOL     OW83323   2.375   9.276   6.065
60495SOL    HW183324   2.338   9.231   5.989
60495SOL    HW283325   2.314   9.347   6.083
60496SOL     OW83326   6.743   1.066   2.895
60496SOL    HW183327   6.775   1.050   2.984
60496SOL    HW283328   6.663   1.014   2.889
60497SOL     OW83329   8.082   1.351  11.955
60497SOL    HW183330   8.015   1.309  11.902
60497SOL    HW283331   8.124   1.414  11.896
60498SOL     OW83332  11.203   7.825   8.035
60498SOL    HW183333  11.187   7.760   8.103
60498SOL    HW283334  11.138   7.894   8.052
60499SOL     OW83335  13.288  12.577   1.504
60499SOL    HW183336  13.217  12.590   1.567
60499SOL    HW283337  13.368  12.584   1.556
60500SOL     OW83338   7.055   4.708   9.237
60500SOL    HW183339   7.081   4.744   9.152
60500SOL    HW283340   7.039   4.785   9.292
60501SOL     OW83341  10.371   1.719  10.813
60501SOL    HW183342  10.467   1.719  10.816
60501SOL    HW283343  10.345   1.645  10.868
60502SOL     OW83344   1.105  14.429   1.552
60502SOL    HW183345   1.136  14.453   1.464
60502SOL    HW283346   1.011  14.443   1.548
60503SOL     OW83347   2.517   5.619  14.269
60503SOL    HW183348   2.433   5.661  14.288
60503SOL    HW283349   2.505   5.578  14.183
60504SOL     OW83350   1.419  10.263   6.829
60504SOL    HW183351   1.501  10.213   6.823
60504SOL    HW283352   1.377  10.251   6.744
60505SOL     OW83353   9.550   3.104  11.148
60505SOL    HW183354   9.580   3.195  11.154
60505SOL    HW283355   9.471   3.108  11.095
60506SOL     OW83356   7.637   3.301   5.727
60506SOL    HW183357   7.545   3.277   5.732
60506SOL    HW283358   7.638   3.395   5.746
60507SOL     OW83359  14.745  13.249   1.222
60507SOL    HW183360  14.819  13.240   1.283
60507SOL    HW283361  14.770  13.194   1.147
60508SOL     OW83362  13.953   3.987   9.444
60508SOL    HW183363  13.955   4.068   9.495
60508SOL    HW283364  14.005   3.925   9.495
60509SOL     OW83365  10.946  13.083   9.853
60509SOL    HW183366  11.013  13.145   9.821
60509SOL    HW283367  10.945  13.096   9.948
60510SOL     OW83368   1.268   2.666  13.610
60510SOL    HW183369   1.344   2.616  13.581
60510SOL    HW283370   1.282   2.677  13.705
60511SOL     OW83371   8.053   5.229   7.899
60511SOL    HW183372   7.997   5.304   7.879
60511SOL    HW283373   8.023   5.199   7.985
60512SOL     OW83374  13.421   4.664   6.353
60512SOL    HW183375  13.467   4.587   6.320
60512SOL    HW283376  13.374   4.698   6.278
60513SOL     OW83377  10.848   8.272   0.017
60513SOL    HW183378  10.837   8.323  14.813
60513SOL    HW283379  10.802   8.323   0.084
60514SOL     OW83380   3.722  10.359  10.135
60514SOL    HW183381   3.729  10.439  10.187
60514SOL    HW283382   3.720  10.391  10.044
60515SOL     OW83383   3.944  10.883   6.948
60515SOL    HW183384   3.930  10.805   7.001
60515SOL    HW283385   3.955  10.850   6.859
60516SOL     OW83386  12.421  13.486   4.071
60516SOL    HW183387  12.446  13.496   3.979
60516SOL    HW283388  12.474  13.414   4.103
60517SOL     OW83389   3.805   9.850   9.455
60517SOL    HW183390   3.826   9.773   9.402
60517SOL    HW283391   3.808   9.923   9.393
60518SOL     OW83392  11.227  13.815   3.939
60518SOL    HW183393  11.270  13.894   3.971
60518SOL    HW283394  11.134  13.830   3.955
60519SOL     OW83395   1.342   4.646  13.147
60519SOL    HW183396   1.263   4.696  13.127
60519SOL    HW283397   1.408   4.681  13.087
60520SOL     OW83398   4.044   6.138   0.090
60520SOL    HW183399   4.023   6.150  14.873
60520SOL    HW283400   4.030   6.224   0.129
60521SOL     OW83401   7.056   3.898   2.361
60521SOL    HW183402   7.124   3.964   2.371
60521SOL    HW283403   7.102   3.815   2.359
60522SOL     OW83404   7.119  11.066  11.044
60522SOL    HW183405   7.160  11.131  10.987
60522SOL    HW283406   7.147  10.982  11.008
60523SOL     OW83407  11.058   8.682   7.486
60523SOL    HW183408  11.138   8.710   7.442
60523SOL    HW283409  11.088   8.643   7.568
60524SOL     OW83410   4.610  12.129   2.935
60524SOL    HW183411   4.578  12.064   2.997
60524SOL    HW283412   4.677  12.177   2.984
60525SOL     OW83413   9.954  11.137   3.651
60525SOL    HW183414   9.927  11.149   3.560
60525SOL    HW283415   9.873  11.121   3.698
60526SOL     OW83416   5.036   9.572  12.417
60526SOL    HW183417   4.977   9.498  12.428
60526SOL    HW283418   5.003   9.618  12.340
60527SOL     OW83419  12.747   4.480   2.903
60527SOL    HW183420  12.792   4.546   2.850
60527SOL    HW283421  12.818   4.426   2.938
60528SOL     OW83422  11.974  14.231  10.591
60528SOL    HW183423  11.929  14.278  10.661
60528SOL    HW283424  12.062  14.215  10.626
60529SOL     OW83425  13.740   3.627   4.269
60529SOL    HW183426  13.657   3.671   4.286
60529SOL    HW283427  13.806   3.694   4.289
60530SOL     OW83428   0.174  14.582   2.156
60530SOL    HW183429   0.128  14.665   2.169
60530SOL    HW283430   0.263  14.599   2.185
60531SOL     OW83431  12.016   3.818   5.513
60531SOL    HW183432  11.975   3.890   5.561
60531SOL    HW283433  11.942   3.769   5.477
60532SOL     OW83434   1.809   3.043   9.331
60532SOL    HW183435   1.726   3.052   9.284
60532SOL    HW283436   1.817   3.125   9.380
60533SOL     OW83437   3.455   1.176   4.499
60533SOL    HW183438   3.479   1.202   4.410
60533SOL    HW283439   3.508   1.098   4.517
60534SOL     OW83440   4.134  13.623   0.272
60534SOL    HW183441   4.215  13.580   0.243
60534SOL    HW283442   4.064  13.569   0.236
60535SOL     OW83443   5.992  14.608  13.258
60535SOL    HW183444   6.076  14.650  13.275
60535SOL    HW283445   5.981  14.546  13.330
60536SOL     OW83446   2.363   0.216  14.073
60536SOL    HW183447   2.408   0.169  14.143
60536SOL    HW283448   2.418   0.204  13.996
60537SOL     OW83449   2.476   4.095  11.719
60537SOL    HW183450   2.419   4.025  11.751
60537SOL    HW283451   2.545   4.049  11.670
60538SOL     OW83452   8.639   0.068   2.054
60538SOL    HW183453   8.706   0.076   2.121
60538SOL    HW283454   8.674   0.005   1.992
60539SOL     OW83455   3.220   4.021  11.878
60539SOL    HW183456   3.295   3.964  11.898
60539SOL    HW283457   3.219   4.085  11.950
60540SOL     OW83458   0.852  12.280   2.870
60540SOL    HW183459   0.848  12.184   2.874
60540SOL    HW283460   0.812  12.309   2.952
60541SOL     OW83461  11.144  11.891   6.772
60541SOL    HW183462  11.149  11.941   6.854
60541SOL    HW283463  11.062  11.919   6.732
60542SOL     OW83464  12.313  13.296   9.656
60542SOL    HW183465  12.395  13.331   9.691
60542SOL    HW283466  12.279  13.366   9.600
60543SOL     OW83467   2.338   3.501   3.763
60543SOL    HW183468   2.257   3.542   3.796
60543SOL    HW283469   2.406   3.567   3.777
60544SOL     OW83470   2.692  14.456  13.665
60544SOL    HW183471   2.640  14.377  13.682
60544SOL    HW283472   2.629  14.519  13.629
60545SOL     OW83473   6.731   9.825   6.893
60545SOL    HW183474   6.647   9.827   6.847
60545SOL    HW283475   6.735   9.909   6.940
60546SOL     OW83476  10.464   8.346   8.787
60546SOL    HW183477  10.544   8.398   8.795
60546SOL    HW283478  10.430   8.367   8.700
60547SOL     OW83479   2.823   3.849   7.570
60547SOL    HW183480   2.800   3.916   7.634
60547SOL    HW283481   2.777   3.875   7.491
60548SOL     OW83482   2.708   2.035   1.232
60548SOL    HW183483   2.751   2.120   1.223
60548SOL    HW283484   2.635   2.038   1.170
60549SOL     OW83485   8.056  10.226  13.984
60549SOL    HW183486   7.990  10.176  13.937
60549SOL    HW283487   8.031  10.318  13.970
60550SOL     OW83488   3.604   6.621   9.904
60550SOL    HW183489   3.527   6.609   9.960
60550SOL    HW283490   3.608   6.715   9.888
60551SOL     OW83491  10.797  10.475  12.076
60551SOL    HW183492  10.847  10.414  12.130
60551SOL    HW283493  10.706  10.449  12.089
60552SOL     OW83494  12.350   9.320   7.953
60552SOL    HW183495  12.408   9.375   8.006
60552SOL    HW283496  12.410   9.267   7.900
60553SOL     OW83497   9.755   1.933   9.899
60553SOL    HW183498   9.738   1.967   9.987
60553SOL    HW283499   9.848   1.952   9.884
60554SOL     OW83500  14.487   0.708  12.395
60554SOL    HW183501  14.505   0.686  12.304
60554SOL    HW283502  14.464   0.624  12.436
60555SOL     OW83503   6.725   2.754  13.417
60555SOL    HW183504   6.641   2.792  13.396
60555SOL    HW283505   6.724   2.743  13.512
60556SOL     OW83506  13.567  10.696   4.506
60556SOL    HW183507  13.568  10.617   4.453
60556SOL    HW283508  13.643  10.688   4.564
60557SOL     OW83509  14.809  10.383  10.546
60557SOL    HW183510  14.802  10.291  10.572
60557SOL    HW283511  14.726  10.401  10.500
60558SOL     OW83512   4.474  10.205   9.802
60558SOL    HW183513   4.558  10.162   9.820
60558SOL    HW283514   4.490  10.255   9.722
60559SOL     OW83515   1.197   5.254   6.663
60559SOL    HW183516   1.269   5.231   6.723
60559SOL    HW283517   1.118   5.249   6.716
60560SOL     OW83518  12.364  10.876   0.449
60560SOL    HW183519  12.380  10.786   0.478
60560SOL    HW283520  12.278  10.898   0.485
60561SOL     OW83521   8.417   8.944  10.472
60561SOL    HW183522   8.426   8.854  10.441
60561SOL    HW283523   8.468   8.947  10.553
60562SOL     OW83524   1.271   4.712   3.480
60562SOL    HW183525   1.177   4.721   3.494
60562SOL    HW283526   1.299   4.798   3.450
60563SOL     OW83527   5.108   5.035  11.772
60563SOL    HW183528   5.065   4.991  11.699
60563SOL    HW283529   5.189   4.986  11.786
60564SOL     OW83530  10.154  13.502  13.059
60564SOL    HW183531  10.134  13.593  13.081
60564SOL    HW283532  10.210  13.472  13.131
60565SOL     OW83533   1.438   1.961   8.139
60565SOL    HW183534   1.381   1.885   8.125
60565SOL    HW283535   1.497   1.934   8.210
60566SOL     OW83536  11.587  14.624   6.645
60566SOL    HW183537  11.623  14.711   6.625
60566SOL    HW283538  11.608  14.571   6.568
60567SOL     OW83539   6.564   6.915   0.375
60567SOL    HW183540   6.591   7.007   0.369
60567SOL    HW283541   6.505   6.903   0.300
60568SOL     OW83542   6.655  13.476   3.044
60568SOL    HW183543   6.567  13.443   3.061
60568SOL    HW283544   6.647  13.571   3.051
60569SOL     OW83545   6.856  11.279   0.001
60569SOL    HW183546   6.886  11.226  14.803
60569SOL    HW283547   6.934  11.324   0.032
60570SOL     OW83548   5.234  12.599   3.773
60570SOL    HW183549   5.214  12.691   3.792
60570SOL    HW283550   5.316  12.603   3.723
60571SOL     OW83551   2.176   3.943   0.731
60571SOL    HW183552   2.144   3.943   0.641
60571SOL    HW283553   2.269   3.967   0.723
60572SOL     OW83554   3.550   8.921  12.945
60572SOL    HW183555   3.514   8.874  13.021
60572SOL    HW283556   3.473   8.953  12.898
60573SOL     OW83557   4.994   0.658   1.102
60573SOL    HW183558   5.059   0.722   1.129
60573SOL    HW283559   5.010   0.645   1.009
60574SOL     OW83560   4.101   9.035   9.653
60574SOL    HW183561   4.086   8.941   9.664
60574SOL    HW283562   4.035   9.076   9.709
60575SOL     OW83563  11.315   5.892   7.471
60575SOL    HW183564  11.300   5.975   7.426
60575SOL    HW283565  11.351   5.917   7.556
60576SOL     OW83566   0.366  13.486   0.987
60576SOL    HW183567   0.416  13.418   1.032
60576SOL    HW283568   0.407  13.493   0.900
60577SOL     OW83569   7.427  13.392   5.896
60577SOL    HW183570   7.391  13.313   5.857
60577SOL    HW283571   7.515  13.368   5.924
60578SOL     OW83572  13.987   5.219  13.056
60578SOL    HW183573  13.998   5.314  13.059
60578SOL    HW283574  14.043   5.187  13.127
60579SOL     OW83575  10.643   0.722   8.104
60579SOL    HW183576  10.712   0.774   8.145
60579SOL    HW283577  10.563   0.773   8.118
60580SOL     OW83578   1.220   6.753  11.048
60580SOL    HW183579   1.310   6.726  11.029
60580SOL    HW283580   1.212   6.747  11.143
60581SOL     OW83581   5.704   5.068  10.190
60581SOL    HW183582   5.609   5.077  10.179
60581SOL    HW283583   5.735   5.036  10.105
60582SOL     OW83584   0.906   6.951   2.610
60582SOL    HW183585   0.937   6.870   2.652
60582SOL    HW283586   0.811   6.946   2.615
60583SOL     OW83587  14.832   3.622   9.713
60583SOL    HW183588   0.025   3.688   9.707
60583SOL    HW283589  14.812   3.615   9.806
60584SOL     OW83590  10.455   1.593   3.288
60584SOL    HW183591  10.411   1.508   3.297
60584SOL    HW283592  10.546   1.575   3.315
60585SOL     OW83593  14.774   4.433   8.566
60585SOL    HW183594  14.713   4.382   8.619
60585SOL    HW283595  14.719   4.483   8.506
60586SOL     OW83596   7.338  11.893  13.808
60586SOL    HW183597   7.278  11.819  13.795
60586SOL    HW283598   7.408  11.858  13.863
60587SOL     OW83599   9.304   5.917  10.673
60587SOL    HW183600   9.394   5.884  10.678
60587SOL    HW283601   9.267   5.873  10.597
60588SOL     OW83602   2.781  14.556  10.946
60588SOL    HW183603   2.845  14.598  11.004
60588SOL    HW283604   2.826  14.478  10.913
60589SOL     OW83605   8.670   1.418   5.294
60589SOL    HW183606   8.670   1.514   5.296
60589SOL    HW283607   8.605   1.394   5.360
60590SOL     OW83608   6.984   6.730  11.082
60590SOL    HW183609   7.077   6.712  11.100
60590SOL    HW283610   6.975   6.715  10.988
60591SOL     OW83611   9.115  13.697  14.128
60591SOL    HW183612   9.132  13.790  14.119
60591SOL    HW283613   9.179  13.655  14.071
60592SOL     OW83614   0.804  11.850  12.538
60592SOL    HW183615   0.847  11.804  12.465
60592SOL    HW283616   0.744  11.785  12.574
60593SOL     OW83617   1.660   2.571   7.721
60593SOL    HW183618   1.609   2.491   7.706
60593SOL    HW283619   1.595   2.641   7.729
60594SOL     OW83620   9.873   3.052   4.344
60594SOL    HW183621   9.890   3.026   4.435
60594SOL    HW283622   9.784   3.087   4.346
60595SOL     OW83623  11.978   3.983   4.620
60595SOL    HW183624  12.022   3.899   4.629
60595SOL    HW283625  11.994   4.009   4.530
60596SOL     OW83626   8.904   7.773  13.857
60596SOL    HW183627   8.826   7.807  13.813
60596SOL    HW283628   8.889   7.794  13.950
60597SOL     OW83629   2.439   5.952   9.560
60597SOL    HW183630   2.408   5.862   9.562
60597SOL    HW283631   2.379   6.000   9.617
60598SOL     OW83632   5.891  12.187  10.426
60598SOL    HW183633   5.912  12.144  10.343
60598SOL    HW283634   5.797  12.172  10.437
60599SOL     OW83635   9.446   9.160   6.141
60599SOL    HW183636   9.379   9.227   6.155
60599SOL    HW283637   9.398   9.080   6.123
60600SOL     OW83638  13.474   9.341  13.554
60600SOL    HW183639  13.434   9.262  13.516
60600SOL    HW283640  13.549   9.359  13.497
60601SOL     OW83641   7.290   1.491   5.906
60601SOL    HW183642   7.380   1.460   5.899
60601SOL    HW283643   7.287   1.537   5.991
60602SOL     OW83644   9.986   6.603  14.608
60602SOL    HW183645  10.028   6.655  14.540
60602SOL    HW283646  10.007   6.512  14.586
60603SOL     OW83647   3.647   6.878   8.957
60603SOL    HW183648   3.714   6.928   9.004
60603SOL    HW283649   3.612   6.818   9.022
60604SOL     OW83650   1.307   4.450   0.747
60604SOL    HW183651   1.225   4.478   0.708
60604SOL    HW283652   1.364   4.527   0.741
60605SOL     OW83653   9.105   1.576  11.354
60605SOL    HW183654   9.086   1.660  11.311
60605SOL    HW283655   9.022   1.528  11.351
60606SOL     OW83656   9.491  10.068  12.103
60606SOL    HW183657   9.514  10.159  12.122
60606SOL    HW283658   9.442  10.073  12.021
60607SOL     OW83659  12.867   4.677  10.045
60607SOL    HW183660  12.913   4.595  10.029
60607SOL    HW283661  12.892   4.733   9.971
60608SOL     OW83662   0.248  13.215   2.354
60608SOL    HW183663   0.260  13.153   2.426
60608SOL    HW283664   0.331  13.263   2.349
60609SOL     OW83665  12.636   0.459  13.743
60609SOL    HW183666  12.547   0.439  13.713
60609SOL    HW283667  12.693   0.406  13.687
60610SOL     OW83668  13.958   5.890  13.682
60610SOL    HW183669  13.910   5.810  13.660
60610SOL    HW283670  13.922   5.916  13.767
60611SOL     OW83671  12.751  10.411   5.801
60611SOL    HW183672  12.837  10.388   5.765
60611SOL    HW283673  12.756  10.385   5.893
60612SOL     OW83674   5.439   0.482  14.507
60612SOL    HW183675   5.397   0.566  14.529
60612SOL    HW283676   5.481   0.454  14.589
60613SOL     OW83677   4.153   6.923   3.598
60613SOL    HW183678   4.244   6.895   3.605
60613SOL    HW283679   4.103   6.841   3.593
60614SOL     OW83680  11.533  12.209   6.105
60614SOL    HW183681  11.521  12.149   6.031
60614SOL    HW283682  11.566  12.153   6.176
60615SOL     OW83683  14.864   1.166   5.593
60615SOL    HW183684   0.051   1.094   5.599
60615SOL    HW283685   0.042   1.245   5.589
60616SOL     OW83686   7.373   4.171   6.646
60616SOL    HW183687   7.293   4.120   6.646
60616SOL    HW283688   7.357   4.242   6.584
60617SOL     OW83689   2.944   6.054   3.081
60617SOL    HW183690   2.993   5.972   3.081
60617SOL    HW283691   3.010   6.122   3.068
60618SOL     OW83692  11.411   9.166  11.180
60618SOL    HW183693  11.484   9.111  11.153
60618SOL    HW283694  11.428   9.251  11.139
60619SOL     OW83695   1.574   3.870  13.855
60619SOL    HW183696   1.498   3.826  13.817
60619SOL    HW283697   1.601   3.813  13.927
60620SOL     OW83698   4.640   6.276  13.558
60620SOL    HW183699   4.559   6.327  13.557
60620SOL    HW283700   4.692   6.315  13.628
60621SOL     OW83701  13.012  14.339   7.210
60621SOL    HW183702  13.055  14.397   7.274
60621SOL    HW283703  12.992  14.396   7.136
60622SOL     OW83704   7.395  11.382   3.888
60622SOL    HW183705   7.430  11.300   3.855
60622SOL    HW283706   7.449  11.449   3.846
60623SOL     OW83707   9.302   9.367   4.707
60623SOL    HW183708   9.247   9.294   4.676
60623SOL    HW283709   9.354   9.392   4.631
60624SOL     OW83710   2.471   6.097  12.335
60624SOL    HW183711   2.536   6.045  12.288
60624SOL    HW283712   2.513   6.116  12.420
60625SOL     OW83713  12.541   5.084   4.469
60625SOL    HW183714  12.524   5.165   4.517
60625SOL    HW283715  12.629   5.058   4.496
60626SOL     OW83716   4.880   4.993   1.180
60626SOL    HW183717   4.953   5.053   1.195
60626SOL    HW283718   4.803   5.050   1.175
60627SOL     OW83719  11.081  12.164   6.561
60627SOL    HW183720  11.044  12.169   6.650
60627SOL    HW283721  11.079  12.254   6.530
60628SOL     OW83722   4.707  12.319  12.419
60628SOL    HW183723   4.737  12.230  12.400
60628SOL    HW283724   4.766  12.375  12.369
60629SOL     OW83725   1.864   3.829   0.704
60629SOL    HW183726   1.861   3.744   0.748
60629SOL    HW283727   1.930   3.819   0.636
60630SOL     OW83728  14.266   2.625   7.206
60630SOL    HW183729  14.321   2.639   7.284
60630SOL    HW283730  14.220   2.543   7.224
60631SOL     OW83731  14.636  10.330   7.233
60631SOL    HW183732  14.658  10.259   7.295
60631SOL    HW283733  14.720  10.354   7.194
60632SOL     OW83734  11.218  14.052  13.230
60632SOL    HW183735  11.180  14.023  13.147
60632SOL    HW283736  11.235  14.145  13.217
60633SOL     OW83737   5.100   3.374   7.409
60633SOL    HW183738   5.035   3.318   7.368
60633SOL    HW283739   5.065   3.392   7.497
60634SOL     OW83740  13.274   9.075   6.807
60634SOL    HW183741  13.181   9.080   6.786
60634SOL    HW283742  13.282   9.001   6.868
60635SOL     OW83743   3.608   2.230   4.126
60635SOL    HW183744   3.610   2.154   4.184
60635SOL    HW283745   3.611   2.305   4.185
60636SOL     OW83746   0.696  11.303  12.799
60636SOL    HW183747   0.628  11.367  12.781
60636SOL    HW283748   0.771  11.332  12.745
60637SOL     OW83749   2.687  11.837   2.182
60637SOL    HW183750   2.636  11.848   2.262
60637SOL    HW283751   2.771  11.879   2.201
60638SOL     OW83752   9.633   5.978   0.877
60638SOL    HW183753   9.687   6.016   0.947
60638SOL    HW283754   9.572   6.048   0.855
60639SOL     OW83755   2.894   9.398  13.925
60639SOL    HW183756   2.858   9.318  13.886
60639SOL    HW283757   2.892   9.462  13.854
60640SOL     OW83758  14.571   1.076  13.554
60640SOL    HW183759  14.659   1.100  13.582
60640SOL    HW283760  14.544   1.145  13.494
60641SOL     OW83761   0.382   4.023   3.337
60641SOL    HW183762   0.288   4.041   3.334
60641SOL    HW283763   0.419   4.078   3.268
60642SOL     OW83764  12.403   6.686  14.032
60642SOL    HW183765  12.337   6.636  13.984
60642SOL    HW283766  12.352   6.743  14.090
60643SOL     OW83767   0.231   1.204   5.906
60643SOL    HW183768   0.152   1.218   5.957
60643SOL    HW283769   0.292   1.163   5.967
60644SOL     OW83770  12.773   7.400   5.867
60644SOL    HW183771  12.695   7.442   5.829
60644SOL    HW283772  12.844   7.422   5.807
60645SOL     OW83773   2.484   7.148   4.810
60645SOL    HW183774   2.453   7.057   4.817
60645SOL    HW283775   2.442   7.181   4.731
60646SOL     OW83776   6.729   3.300   0.247
60646SOL    HW183777   6.659   3.363   0.266
60646SOL    HW283778   6.725   3.237   0.319
60647SOL     OW83779   7.991  10.564   1.175
60647SOL    HW183780   7.952  10.646   1.207
60647SOL    HW283781   8.014  10.583   1.084
60648SOL     OW83782  13.713  10.907  13.946
60648SOL    HW183783  13.642  10.854  13.910
60648SOL    HW283784  13.671  10.990  13.969
60649SOL     OW83785   8.355   5.617   4.358
60649SOL    HW183786   8.370   5.526   4.384
60649SOL    HW283787   8.260   5.628   4.362
60650SOL     OW83788  10.288  13.245  14.073
60650SOL    HW183789  10.313  13.334  14.098
60650SOL    HW283790  10.192  13.245  14.075
60651SOL     OW83791  12.093   9.268  13.670
60651SOL    HW183792  12.011   9.317  13.664
60651SOL    HW283793  12.134   9.280  13.585
60652SOL     OW83794   7.120   5.714  11.258
60652SOL    HW183795   7.054   5.698  11.191
60652SOL    HW283796   7.097   5.799  11.296
60653SOL     OW83797   8.206   7.846   8.564
60653SOL    HW183798   8.284   7.899   8.578
60653SOL    HW283799   8.182   7.863   8.473
60654SOL     OW83800  13.629   3.753   3.221
60654SOL    HW183801  13.648   3.690   3.291
60654SOL    HW283802  13.574   3.705   3.160
60655SOL     OW83803  11.620  10.509   7.753
60655SOL    HW183804  11.685  10.509   7.823
60655SOL    HW283805  11.641  10.431   7.701
60656SOL     OW83806   3.477  14.383   6.899
60656SOL    HW183807   3.556  14.358   6.946
60656SOL    HW283808   3.509  14.424   6.818
60657SOL     OW83809   4.865  13.602   1.634
60657SOL    HW183810   4.824  13.577   1.551
60657SOL    HW283811   4.810  13.673   1.667
60658SOL     OW83812  14.541   0.524   5.652
60658SOL    HW183813  14.482   0.582   5.604
60658SOL    HW283814  14.622   0.575   5.661
60659SOL     OW83815   3.557   8.737  11.854
60659SOL    HW183816   3.576   8.715  11.944
60659SOL    HW283817   3.477   8.688  11.834
60660SOL     OW83818   1.301   0.916   7.670
60660SOL    HW183819   1.249   0.892   7.593
60660SOL    HW283820   1.303   1.011   7.669
60661SOL     OW83821   6.979   8.482   8.971
60661SOL    HW183822   6.890   8.517   8.974
60661SOL    HW283823   7.028   8.545   8.918
60662SOL     OW83824   8.980   1.927  11.975
60662SOL    HW183825   9.065   1.943  11.934
60662SOL    HW283826   8.917   1.972  11.918
60663SOL     OW83827   3.587  10.482   3.216
60663SOL    HW183828   3.512  10.508   3.268
60663SOL    HW283829   3.552  10.423   3.149
60664SOL     OW83830  11.234  14.090   1.349
60664SOL    HW183831  11.324  14.065   1.332
60664SOL    HW283832  11.207  14.037   1.425
60665SOL     OW83833   5.868   9.578   5.181
60665SOL    HW183834   5.800   9.564   5.115
60665SOL    HW283835   5.903   9.664   5.162
60666SOL     OW83836   1.637   7.969   3.520
60666SOL    HW183837   1.657   8.062   3.513
60666SOL    HW283838   1.715   7.931   3.562
60667SOL     OW83839   1.751   7.435   6.011
60667SOL    HW183840   1.798   7.356   6.035
60667SOL    HW283841   1.664   7.404   5.986
60668SOL     OW83842  12.542  11.448   6.786
60668SOL    HW183843  12.465  11.503   6.802
60668SOL    HW283844  12.536  11.378   6.851
60669SOL     OW83845   7.802   9.769   6.531
60669SOL    HW183846   7.855   9.703   6.578
60669SOL    HW283847   7.812   9.746   6.439
60670SOL     OW83848  11.772  14.422   8.577
60670SOL    HW183849  11.827  14.387   8.647
60670SOL    HW283850  11.833  14.447   8.508
60671SOL     OW83851   3.001   9.922   9.379
60671SOL    HW183852   3.066   9.854   9.364
60671SOL    HW283853   3.050   9.993   9.421
60672SOL     OW83854   6.844  10.637   4.934
60672SOL    HW183855   6.899  10.611   4.860
60672SOL    HW283856   6.862  10.571   5.001
60673SOL     OW83857   0.985  12.110   5.556
60673SOL    HW183858   0.978  12.203   5.576
60673SOL    HW283859   1.036  12.074   5.629
60674SOL     OW83860  13.777   2.045  10.967
60674SOL    HW183861  13.859   2.093  10.974
60674SOL    HW283862  13.750   2.030  11.057
60675SOL     OW83863   6.762   2.357   4.810
60675SOL    HW183864   6.750   2.301   4.886
60675SOL    HW283865   6.716   2.312   4.739
60676SOL     OW83866   4.836  10.841   6.515
60676SOL    HW183867   4.770  10.787   6.558
60676SOL    HW283868   4.801  10.930   6.519
60677SOL     OW83869   5.138   1.137  10.884
60677SOL    HW183870   5.053   1.173  10.859
60677SOL    HW283871   5.118   1.066  10.944
60678SOL     OW83872   0.287   2.721   5.957
60678SOL    HW183873   0.228   2.666   6.009
60678SOL    HW283874   0.260   2.810   5.978
60679SOL     OW83875  10.265  12.377  14.263
60679SOL    HW183876  10.208  12.383  14.187
60679SOL    HW283877  10.324  12.305  14.243
60680SOL     OW83878  10.508   4.944   3.567
60680SOL    HW183879  10.478   4.912   3.482
60680SOL    HW283880  10.532   4.864   3.615
60681SOL     OW83881   6.294  14.042   0.764
60681SOL    HW183882   6.258  13.969   0.712
60681SOL    HW283883   6.247  14.119   0.732
60682SOL     OW83884   8.231   0.564   1.323
60682SOL    HW183885   8.256   0.518   1.243
60682SOL    HW283886   8.240   0.499   1.392
60683SOL     OW83887  10.379   3.380  12.270
60683SOL    HW183888  10.425   3.303  12.236
60683SOL    HW283889  10.440   3.418  12.334
60684SOL     OW83890   7.336  10.154   0.335
60684SOL    HW183891   7.295  10.155   0.248
60684SOL    HW283892   7.295  10.226   0.382
60685SOL     OW83893  10.698   7.404   9.753
60685SOL    HW183894  10.778   7.452   9.770
60685SOL    HW283895  10.686   7.409   9.659
60686SOL     OW83896   4.200  11.232   5.732
60686SOL    HW183897   4.238  11.306   5.779
60686SOL    HW283898   4.233  11.155   5.779
60687SOL     OW83899  14.809   9.133  11.754
60687SOL    HW183900  14.836   9.181  11.831
60687SOL    HW283901  14.830   9.190  11.680
60688SOL     OW83902  12.577  11.453  11.758
60688SOL    HW183903  12.510  11.392  11.725
60688SOL    HW283904  12.531  11.537  11.766
60689SOL     OW83905   9.594   7.447   9.444
60689SOL    HW183906   9.560   7.517   9.501
60689SOL    HW283907   9.602   7.488   9.358
60690SOL     OW83908   0.580  11.406   5.255
60690SOL    HW183909   0.673  11.423   5.266
60690SOL    HW283910   0.555  11.456   5.177
60691SOL     OW83911   7.802  11.483   6.293
60691SOL    HW183912   7.752  11.521   6.365
60691SOL    HW283913   7.877  11.441   6.337
60692SOL     OW83914   6.953  12.889   4.904
60692SOL    HW183915   6.870  12.892   4.855
60692SOL    HW283916   6.992  12.805   4.879
60693SOL     OW83917  13.342   2.002   8.474
60693SOL    HW183918  13.361   2.080   8.525
60693SOL    HW283919  13.392   2.013   8.393
60694SOL     OW83920   4.757  13.591   3.755
60694SOL    HW183921   4.748  13.533   3.831
60694SOL    HW283922   4.843  13.631   3.765
60695SOL     OW83923   4.919   5.721   7.601
60695SOL    HW183924   4.956   5.807   7.580
60695SOL    HW283925   4.824   5.735   7.602
60696SOL     OW83926   9.678  12.973   7.161
60696SOL    HW183927   9.618  12.899   7.168
60696SOL    HW283928   9.627  13.043   7.122
60697SOL     OW83929  13.317  10.291  11.443
60697SOL    HW183930  13.335  10.344  11.521
60697SOL    HW283931  13.339  10.348  11.370
60698SOL     OW83932  11.237  12.928   8.761
60698SOL    HW183933  11.313  12.921   8.703
60698SOL    HW283934  11.186  13.001   8.726
60699SOL     OW83935   2.447   7.152  11.622
60699SOL    HW183936   2.505   7.204  11.565
60699SOL    HW283937   2.457   7.062  11.591
60700SOL     OW83938   4.076   2.729   1.643
60700SOL    HW183939   4.056   2.658   1.704
60700SOL    HW283940   4.170   2.741   1.650
60701SOL     OW83941   4.274  10.766   5.954
60701SOL    HW183942   4.182  10.761   5.928
60701SOL    HW283943   4.272  10.785   6.048
60702SOL     OW83944   9.728   1.704   8.322
60702SOL    HW183945   9.713   1.628   8.379
60702SOL    HW283946   9.677   1.774   8.361
60703SOL     OW83947  11.358  14.846   4.236
60703SOL    HW183948  11.338   0.041   4.176
60703SOL    HW283949  11.319  14.874   4.319
60704SOL     OW83950   1.329   0.584  12.202
60704SOL    HW183951   1.337   0.590  12.297
60704SOL    HW283952   1.405   0.533  12.175
60705SOL     OW83953  10.998  14.310   6.929
60705SOL    HW183954  11.047  14.256   6.991
60705SOL    HW283955  11.041  14.296   6.845
60706SOL     OW83956  14.360   0.803   4.636
60706SOL    HW183957  14.390   0.880   4.588
60706SOL    HW283958  14.434   0.781   4.693
60707SOL     OW83959   0.006   6.989  13.699
60707SOL    HW183960  14.866   7.042  13.777
60707SOL    HW283961  14.812   7.014  13.639
60708SOL     OW83962   8.774   5.256  13.825
60708SOL    HW183963   8.797   5.276  13.735
60708SOL    HW283964   8.789   5.337  13.873
60709SOL     OW83965  14.672   5.362   7.096
60709SOL    HW183966  14.687   5.280   7.049
60709SOL    HW283967  14.601   5.342   7.158
60710SOL     OW83968   2.252   3.871  14.255
60710SOL    HW183969   2.247   3.857  14.350
60710SOL    HW283970   2.321   3.812  14.226
60711SOL     OW83971   9.050  10.470   9.974
60711SOL    HW183972   8.988  10.543   9.978
60711SOL    HW283973   9.107  10.491   9.900
60712SOL     OW83974  11.179   6.300   3.492
60712SOL    HW183975  11.162   6.207   3.508
60712SOL    HW283976  11.274   6.309   3.499
60713SOL     OW83977  12.493  12.320   5.139
60713SOL    HW183978  12.553  12.296   5.210
60713SOL    HW283979  12.548  12.366   5.076
60714SOL     OW83980   8.390   0.751   5.180
60714SOL    HW183981   8.453   0.694   5.224
60714SOL    HW283982   8.433   0.775   5.097
60715SOL     OW83983   3.124   5.301   9.423
60715SOL    HW183984   3.132   5.385   9.469
60715SOL    HW283985   3.105   5.237   9.491
60716SOL     OW83986   6.509  13.652   1.487
60716SOL    HW183987   6.596  13.662   1.449
60716SOL    HW283988   6.522  13.592   1.561
60717SOL     OW83989  14.035   2.007  13.573
60717SOL    HW183990  14.002   2.002  13.662
60717SOL    HW283991  14.000   1.929  13.530
60718SOL     OW83992  10.367  14.473   9.548
60718SOL    HW183993  10.380  14.386   9.510
60718SOL    HW283994  10.330  14.526   9.477
60719SOL     OW83995   8.746  12.161   6.251
60719SOL    HW183996   8.791  12.099   6.308
60719SOL    HW283997   8.765  12.247   6.288
60720SOL     OW83998  11.601   9.218  10.915
60720SOL    HW183999  11.671   9.170  10.958
60720SOL    HW284000  11.630   9.228  10.824
60721SOL     OW84001  13.605   1.732   5.906
60721SOL    HW184002  13.675   1.692   5.854
60721SOL    HW284003  13.543   1.660   5.922
60722SOL     OW84004  13.641   2.032   3.199
60722SOL    HW184005  13.593   2.103   3.157
60722SOL    HW284006  13.705   2.076   3.254
60723SOL     OW84007   1.719   2.115   8.846
60723SOL    HW184008   1.718   2.023   8.821
60723SOL    HW284009   1.810   2.143   8.832
60724SOL     OW84010  10.552   2.938   3.271
60724SOL    HW184011  10.570   3.023   3.310
60724SOL    HW284012  10.624   2.923   3.211
60725SOL     OW84013   0.763   4.767   6.677
60725SOL    HW184014   0.820   4.690   6.682
60725SOL    HW284015   0.734   4.782   6.767
60726SOL     OW84016   6.096   3.133   3.519
60726SOL    HW184017   6.106   3.038   3.526
60726SOL    HW284018   6.166   3.159   3.459
60727SOL     OW84019   9.575   6.596  10.092
60727SOL    HW184020   9.632   6.673  10.090
60727SOL    HW284021   9.618   6.532  10.035
60728SOL     OW84022  12.612   1.150   9.221
60728SOL    HW184023  12.589   1.211   9.152
60728SOL    HW284024  12.617   1.204   9.300
60729SOL     OW84025  14.406  14.074   4.419
60729SOL    HW184026  14.466  14.009   4.457
60729SOL    HW284027  14.427  14.075   4.326
60730SOL     OW84028   6.545   3.690   5.290
60730SOL    HW184029   6.466   3.744   5.287
60730SOL    HW284030   6.578   3.702   5.378
60731SOL     OW84031   3.066   6.333   7.973
60731SOL    HW184032   3.085   6.427   7.970
60731SOL    HW284033   3.054   6.308   7.882
60732SOL     OW84034   1.331   3.348   8.315
60732SOL    HW184035   1.410   3.355   8.261
60732SOL    HW284036   1.275   3.421   8.286
60733SOL     OW84037  11.628   3.666  10.785
60733SOL    HW184038  11.722   3.684  10.785
60733SOL    HW284039  11.588   3.747  10.754
60734SOL     OW84040  12.305  13.869   5.447
60734SOL    HW184041  12.289  13.956   5.485
60734SOL    HW284042  12.382  13.837   5.492
60735SOL     OW84043  14.647   2.198   4.129
60735SOL    HW184044  14.670   2.233   4.043
60735SOL    HW284045  14.677   2.107   4.126
60736SOL     OW84046  13.868   4.058   1.546
60736SOL    HW184047  13.847   4.148   1.571
60736SOL    HW284048  13.951   4.065   1.500
60737SOL     OW84049  14.716   1.235   3.900
60737SOL    HW184050  14.762   1.316   3.882
60737SOL    HW284051  14.758   1.200   3.978
60738SOL     OW84052  14.266  13.924   6.575
60738SOL    HW184053  14.282  14.017   6.591
60738SOL    HW284054  14.347  13.880   6.600
60739SOL     OW84055  11.692   7.186   3.426
60739SOL    HW184056  11.781   7.184   3.391
60739SOL    HW284057  11.641   7.133   3.364
60740SOL     OW84058  11.870   9.944   2.810
60740SOL    HW184059  11.895  10.034   2.832
60740SOL    HW284060  11.946   9.908   2.765
60741SOL     OW84061   9.357   3.762   9.977
60741SOL    HW184062   9.341   3.799   9.891
60741SOL    HW284063   9.439   3.802  10.006
60742SOL     OW84064  11.414   6.897  10.652
60742SOL    HW184065  11.449   6.816  10.690
60742SOL    HW284066  11.448   6.966  10.708
60743SOL     OW84067  10.787   7.607   3.976
60743SOL    HW184068  10.838   7.683   3.948
60743SOL    HW284069  10.733   7.585   3.901
60744SOL     OW84070   5.409  13.322   0.861
60744SOL    HW184071   5.471  13.344   0.931
60744SOL    HW284072   5.428  13.230   0.841
60745SOL     OW84073   9.259   1.182   5.249
60745SOL    HW184074   9.205   1.152   5.322
60745SOL    HW284075   9.256   1.277   5.254
60746SOL     OW84076   2.278  14.530   4.915
60746SOL    HW184077   2.194  14.505   4.955
60746SOL    HW284078   2.320  14.446   4.895
60747SOL     OW84079   5.328   3.453   5.334
60747SOL    HW184080   5.296   3.371   5.297
60747SOL    HW284081   5.249   3.502   5.355
60748SOL     OW84082   4.453   9.487   7.552
60748SOL    HW184083   4.393   9.474   7.479
60748SOL    HW284084   4.520   9.419   7.540
60749SOL     OW84085   9.739  10.536   5.637
60749SOL    HW184086   9.719  10.537   5.730
60749SOL    HW284087   9.819  10.483   5.630
60750SOL     OW84088  12.118  12.518  14.096
60750SOL    HW184089  12.141  12.485  14.010
60750SOL    HW284090  12.187  12.486  14.154
60751SOL     OW84091  10.598  12.516   0.843
60751SOL    HW184092  10.625  12.427   0.818
60751SOL    HW284093  10.544  12.503   0.921
60752SOL     OW84094  11.866  11.498  11.937
60752SOL    HW184095  11.872  11.554  11.860
60752SOL    HW284096  11.835  11.414  11.903
60753SOL     OW84097   9.991  14.798   6.327
60753SOL    HW184098   9.918  14.860   6.332
60753SOL    HW284099   9.953  14.715   6.355
60754SOL     OW84100  13.126   0.033   3.355
60754SOL    HW184101  13.108   0.115   3.307
60754SOL    HW284102  13.162  14.851   3.288
60755SOL     OW84103   3.809  10.718   9.038
60755SOL    HW184104   3.798  10.631   8.999
60755SOL    HW284105   3.841  10.772   8.965
60756SOL     OW84106   0.001  11.043   4.874
60756SOL    HW184107  14.819  11.087   4.812
60756SOL    HW284108  14.857  11.084   4.958
60757SOL     OW84109   8.035  13.440  10.370
60757SOL    HW184110   7.962  13.500  10.388
60757SOL    HW284111   8.100  13.494  10.326
60758SOL     OW84112  10.435  10.643   3.370
60758SOL    HW184113  10.482  10.595   3.438
60758SOL    HW284114  10.345  10.610   3.377
60759SOL     OW84115   8.264  12.332  14.240
60759SOL    HW184116   8.209  12.314  14.163
60759SOL    HW284117   8.325  12.259  14.243
60760SOL     OW84118   4.367   0.676   1.308
60760SOL    HW184119   4.401   0.762   1.334
60760SOL    HW284120   4.425   0.613   1.352
60761SOL     OW84121   2.999   8.861   7.938
60761SOL    HW184122   3.060   8.794   7.908
60761SOL    HW284123   2.970   8.830   8.024
60762SOL     OW84124  14.236   2.964  11.613
60762SOL    HW184125  14.254   3.057  11.617
60762SOL    HW284126  14.162   2.956  11.553
60763SOL     OW84127  13.521   6.314  12.018
60763SOL    HW184128  13.611   6.327  12.048
60763SOL    HW284129  13.528   6.305  11.923
60764SOL     OW84130  14.022  11.461   4.717
60764SOL    HW184131  14.097  11.498   4.764
60764SOL    HW284132  14.030  11.366   4.730
60765SOL     OW84133   1.027   1.570   4.402
60765SOL    HW184134   1.074   1.586   4.320
60765SOL    HW284135   0.935   1.567   4.378
60766SOL     OW84136   3.885  14.083  13.746
60766SOL    HW184137   3.871  14.003  13.696
60766SOL    HW284138   3.895  14.055  13.836
60767SOL     OW84139   5.243   5.064  14.730
60767SOL    HW184140   5.314   5.012  14.767
60767SOL    HW284141   5.278   5.098  14.648
60768SOL     OW84142  12.661   0.108   9.723
60768SOL    HW184143  12.598   0.177   9.699
60768SOL    HW284144  12.647   0.096   9.817
60769SOL     OW84145  11.302   2.076   0.830
60769SOL    HW184146  11.306   1.989   0.789
60769SOL    HW284147  11.234   2.122   0.781
60770SOL     OW84148  12.459  11.087   9.733
60770SOL    HW184149  12.415  11.104   9.816
60770SOL    HW284150  12.506  11.005   9.747
60771SOL     OW84151   1.106   4.106   4.747
60771SOL    HW184152   1.093   4.100   4.842
60771SOL    HW284153   1.036   4.165   4.718
60772SOL     OW84154   6.543  11.582   1.800
60772SOL    HW184155   6.551  11.573   1.705
60772SOL    HW284156   6.605  11.519   1.835
60773SOL     OW84157  13.905   9.419   1.090
60773SOL    HW184158  13.975   9.442   1.029
60773SOL    HW284159  13.833   9.390   1.035
60774SOL     OW84160   9.101   6.755   6.407
60774SOL    HW184161   9.156   6.825   6.373
60774SOL    HW284162   9.161   6.681   6.418
60775SOL     OW84163  14.510   0.006  14.024
60775SOL    HW184164  14.555   0.009  14.109
60775SOL    HW284165  14.529  14.794  13.990
60776SOL     OW84166   3.667  10.227  12.202
60776SOL    HW184167   3.735  10.289  12.176
60776SOL    HW284168   3.585  10.272  12.183
60777SOL     OW84169   8.304   1.525  10.411
60777SOL    HW184170   8.350   1.441  10.420
60777SOL    HW284171   8.296   1.537  10.316
60778SOL     OW84172   9.661   4.631   3.890
60778SOL    HW184173   9.703   4.640   3.805
60778SOL    HW284174   9.636   4.720   3.914
60779SOL     OW84175   7.884   4.291   7.887
60779SOL    HW184176   7.901   4.270   7.795
60779SOL    HW284177   7.792   4.268   7.900
60780SOL     OW84178   5.472   0.001   2.679
60780SOL    HW184179   5.552  14.867   2.730
60780SOL    HW284180   5.401  14.860   2.742
60781SOL     OW84181  10.242   1.532  10.643
60781SOL    HW184182  10.278   1.616  10.673
60781SOL    HW284183  10.255   1.533  10.548
60782SOL     OW84184  10.638  14.250   8.999
60782SOL    HW184185  10.575  14.309   9.041
60782SOL    HW284186  10.586  14.198   8.938
60783SOL     OW84187   7.725  13.236  12.210
60783SOL    HW184188   7.782  13.213  12.137
60783SOL    HW284189   7.784  13.276  12.274
60784SOL     OW84190   5.803  13.032  13.156
60784SOL    HW184191   5.786  13.126  13.150
60784SOL    HW284192   5.769  13.007  13.242
60785SOL     OW84193   8.262  14.456   6.483
60785SOL    HW184194   8.271  14.381   6.425
60785SOL    HW284195   8.177  14.494   6.461
60786SOL     OW84196   3.894  11.134  10.009
60786SOL    HW184197   3.888  11.039  10.023
60786SOL    HW284198   3.863  11.147   9.920
60787SOL     OW84199   3.493  12.319   0.391
60787SOL    HW184200   3.525  12.237   0.353
60787SOL    HW284201   3.568  12.379   0.384
60788SOL     OW84202   8.853  11.299  12.289
60788SOL    HW184203   8.871  11.209  12.316
60788SOL    HW284204   8.932  11.328  12.244
60789SOL     OW84205   7.803  11.107  12.033
60789SOL    HW184206   7.744  11.144  11.968
60789SOL    HW284207   7.873  11.067  11.982
60790SOL     OW84208  13.347   6.854   1.019
60790SOL    HW184209  13.336   6.913   0.945
60790SOL    HW284210  13.336   6.767   0.981
60791SOL     OW84211  12.562   6.808   1.346
60791SOL    HW184212  12.608   6.763   1.275
60791SOL    HW284213  12.556   6.743   1.416
60792SOL     OW84214   3.778  14.674   0.868
60792SOL    HW184215   3.688  14.681   0.900
60792SOL    HW284216   3.772  14.616   0.792
60793SOL     OW84217  13.902   2.576   7.051
60793SOL    HW184218  13.995   2.599   7.050
60793SOL    HW284219  13.860   2.644   6.998
60794SOL     OW84220   4.901  12.971  10.289
60794SOL    HW184221   4.834  13.031  10.257
60794SOL    HW284222   4.861  12.885  10.284
60795SOL     OW84223  11.435   7.193   9.390
60795SOL    HW184224  11.378   7.263   9.359
60795SOL    HW284225  11.401   7.170   9.476
60796SOL     OW84226   1.819   3.488  13.983
60796SOL    HW184227   1.747   3.532  14.029
60796SOL    HW284228   1.860   3.433  14.049
60797SOL     OW84229   6.674   4.974   4.283
60797SOL    HW184230   6.617   4.974   4.206
60797SOL    HW284231   6.632   5.034   4.344
60798SOL     OW84232  11.614   5.019   8.550
60798SOL    HW184233  11.567   5.051   8.627
60798SOL    HW284234  11.607   5.089   8.486
60799SOL     OW84235  11.436  14.553   6.233
60799SOL    HW184236  11.461  14.493   6.164
60799SOL    HW284237  11.346  14.578   6.211
60800SOL     OW84238   9.247  12.126   9.535
60800SOL    HW184239   9.305  12.151   9.607
60800SOL    HW284240   9.275  12.181   9.461
60801SOL     OW84241  13.336   8.188  10.919
60801SOL    HW184242  13.346   8.273  10.963
60801SOL    HW284243  13.424   8.167  10.887
60802SOL     OW84244   5.493   4.571  14.772
60802SOL    HW184245   5.447   4.534  14.847
60802SOL    HW284246   5.582   4.538  14.780
60803SOL     OW84247   1.800  13.419   0.078
60803SOL    HW184248   1.708  13.402   0.096
60803SOL    HW284249   1.843  13.334   0.086
60804SOL     OW84250   4.451   3.718   2.429
60804SOL    HW184251   4.491   3.711   2.516
60804SOL    HW284252   4.435   3.628   2.402
60805SOL     OW84253   2.120   6.626   9.498
60805SOL    HW184254   2.095   6.535   9.481
60805SOL    HW284255   2.208   6.620   9.534
60806SOL     OW84256   5.243  10.463  11.372
60806SOL    HW184257   5.326  10.472  11.326
60806SOL    HW284258   5.229  10.549  11.413
60807SOL     OW84259   6.874   0.161  10.599
60807SOL    HW184260   6.890   0.238  10.653
60807SOL    HW284261   6.883   0.087  10.660
60808SOL     OW84262  11.180  10.892   3.495
60808SOL    HW184263  11.130  10.811   3.480
60808SOL    HW284264  11.215  10.914   3.409
60809SOL     OW84265  10.041   0.423  13.827
60809SOL    HW184266  10.054   0.377  13.744
60809SOL    HW284267  10.126   0.463  13.845
60810SOL     OW84268   1.600   5.401   6.378
60810SOL    HW184269   1.685   5.446   6.373
60810SOL    HW284270   1.539   5.470   6.403
60811SOL     OW84271  12.821   3.848   2.766
60811SOL    HW184272  12.752   3.804   2.716
60811SOL    HW284273  12.878   3.777   2.795
60812SOL     OW84274   5.777   0.839  10.865
60812SOL    HW184275   5.733   0.914  10.906
60812SOL    HW284276   5.725   0.763  10.893
60813SOL     OW84277  13.446  12.326  13.526
60813SOL    HW184278  13.496  12.291  13.600
60813SOL    HW284279  13.511  12.339  13.457
60814SOL     OW84280   9.306  14.448   3.082
60814SOL    HW184281   9.241  14.410   3.141
60814SOL    HW284282   9.332  14.530   3.125
60815SOL     OW84283  12.775   0.575  12.864
60815SOL    HW184284  12.765   0.624  12.782
60815SOL    HW284285  12.816   0.636  12.924
60816SOL     OW84286  13.295   8.114   1.021
60816SOL    HW184287  13.223   8.175   1.039
60816SOL    HW284288  13.315   8.074   1.106
60817SOL     OW84289   3.128   9.833   5.984
60817SOL    HW184290   3.101   9.768   5.919
60817SOL    HW284291   3.223   9.827   5.985
60818SOL     OW84292   8.100  10.474   6.266
60818SOL    HW184293   8.018  10.450   6.225
60818SOL    HW284294   8.106  10.417   6.343
60819SOL     OW84295   9.376  12.794   5.903
60819SOL    HW184296   9.429  12.722   5.936
60819SOL    HW284297   9.375  12.858   5.974
60820SOL     OW84298  14.164   7.358   1.394
60820SOL    HW184299  14.217   7.363   1.315
60820SOL    HW284300  14.223   7.387   1.464
60821SOL     OW84301   9.848   9.794  10.496
60821SOL    HW184302   9.942   9.810  10.491
60821SOL    HW284303   9.808   9.874  10.460
60822SOL     OW84304   6.760   0.919   6.613
60822SOL    HW184305   6.792   1.007   6.635
60822SOL    HW284306   6.795   0.902   6.526
60823SOL     OW84307   9.862   1.387  12.735
60823SOL    HW184308   9.864   1.321  12.665
60823SOL    HW284309   9.910   1.347  12.807
60824SOL     OW84310   6.737   3.430   4.080
60824SOL    HW184311   6.822   3.469   4.060
60824SOL    HW284312   6.739   3.417   4.175
60825SOL     OW84313   3.127  13.270   0.861
60825SOL    HW184314   3.203  13.240   0.912
60825SOL    HW284315   3.136  13.226   0.777
60826SOL     OW84316   2.920   8.463   1.417
60826SOL    HW184317   2.963   8.530   1.363
60826SOL    HW284318   2.830   8.459   1.384
60827SOL     OW84319   3.464   1.581   4.796
60827SOL    HW184320   3.500   1.533   4.721
60827SOL    HW284321   3.457   1.515   4.865
60828SOL     OW84322  10.329   2.815   9.582
60828SOL    HW184323  10.258   2.875   9.605
60828SOL    HW284324  10.395   2.829   9.650
60829SOL     OW84325   0.905   5.380   4.878
60829SOL    HW184326   0.869   5.298   4.912
60829SOL    HW284327   0.951   5.354   4.798
60830SOL     OW84328   2.521  13.289   0.527
60830SOL    HW184329   2.486  13.290   0.616
60830SOL    HW284330   2.606  13.332   0.534
60831SOL     OW84331  10.498   2.825  11.009
60831SOL    HW184332  10.572   2.854  10.956
60831SOL    HW284333  10.456   2.906  11.039
60832SOL     OW84334   6.704  11.298   4.511
60832SOL    HW184335   6.684  11.205   4.511
60832SOL    HW284336   6.622  11.341   4.532
60833SOL     OW84337   2.357   8.126  13.421
60833SOL    HW184338   2.277   8.086  13.386
60833SOL    HW284339   2.407   8.052  13.457
60834SOL     OW84340   0.179   1.262   2.586
60834SOL    HW184341   0.132   1.180   2.596
60834SOL    HW284342   0.239   1.265   2.660
60835SOL     OW84343   6.657  11.937   9.063
60835SOL    HW184344   6.657  11.891   9.147
60835SOL    HW284345   6.564  11.950   9.043
60836SOL     OW84346  14.686   5.634   5.501
60836SOL    HW184347  14.751   5.652   5.569
60836SOL    HW284348  14.656   5.720   5.473
60837SOL     OW84349   9.111   9.053  10.690
60837SOL    HW184350   9.037   9.112  10.705
60837SOL    HW284351   9.088   8.973  10.737
60838SOL     OW84352  11.419   0.927  13.631
60838SOL    HW184353  11.406   0.874  13.552
60838SOL    HW284354  11.453   0.865  13.696
60839SOL     OW84355  13.762  10.105   9.719
60839SOL    HW184356  13.779  10.080   9.810
60839SOL    HW284357  13.698  10.176   9.725
60840SOL     OW84358  11.807   6.376   7.638
60840SOL    HW184359  11.788   6.449   7.579
60840SOL    HW284360  11.734   6.315   7.625
60841SOL     OW84361   0.901   7.499  12.077
60841SOL    HW184362   0.896   7.577  12.132
60841SOL    HW284363   0.810   7.482  12.051
60842SOL     OW84364   3.747   5.811   4.222
60842SOL    HW184365   3.777   5.724   4.248
60842SOL    HW284366   3.773   5.868   4.294
60843SOL     OW84367  11.876  13.180   1.602
60843SOL    HW184368  11.883  13.251   1.539
60843SOL    HW284369  11.913  13.215   1.683
60844SOL     OW84370  12.357   6.155   3.503
60844SOL    HW184371  12.349   6.183   3.412
60844SOL    HW284372  12.296   6.210   3.551
60845SOL     OW84373   5.728  12.303   6.844
60845SOL    HW184374   5.772  12.220   6.825
60845SOL    HW284375   5.779  12.369   6.798
60846SOL     OW84376   6.881  14.684   4.152
60846SOL    HW184377   6.907  14.667   4.062
60846SOL    HW284378   6.964  14.690   4.200
60847SOL     OW84379  14.868  13.156   0.137
60847SOL    HW184380   0.050  13.156   0.213
60847SOL    HW284381   0.005  13.071   0.096
60848SOL     OW84382   2.344   6.804  14.386
60848SOL    HW184383   2.380   6.717  14.369
60848SOL    HW284384   2.322   6.838  14.300
60849SOL     OW84385   2.816  13.125   6.088
60849SOL    HW184386   2.866  13.188   6.140
60849SOL    HW284387   2.758  13.083   6.152
60850SOL     OW84388   9.155   6.309   7.532
60850SOL    HW184389   9.082   6.316   7.593
60850SOL    HW284390   9.205   6.390   7.543
60851SOL     OW84391  13.535   2.789   9.687
60851SOL    HW184392  13.514   2.881   9.702
60851SOL    HW284393  13.623   2.778   9.724
60852SOL     OW84394   4.189  11.121   5.483
60852SOL    HW184395   4.166  11.031   5.505
60852SOL    HW284396   4.163  11.172   5.559
60853SOL     OW84397   3.495  11.593   4.616
60853SOL    HW184398   3.583  11.627   4.629
60853SOL    HW284399   3.458  11.645   4.545
60854SOL     OW84400  10.867  14.052   0.231
60854SOL    HW184401  10.935  14.057   0.165
60854SOL    HW284402  10.864  13.960   0.256
60855SOL     OW84403   3.458   8.621   3.381
60855SOL    HW184404   3.533   8.563   3.384
60855SOL    HW284405   3.471   8.673   3.302
60856SOL     OW84406  13.646   0.101   9.250
60856SOL    HW184407  13.645   0.157   9.172
60856SOL    HW284408  13.562   0.054   9.246
60857SOL     OW84409   2.921   8.169   4.185
60857SOL    HW184410   2.943   8.082   4.153
60857SOL    HW284411   2.848   8.197   4.130
60858SOL     OW84412  13.698   9.388   3.660
60858SOL    HW184413  13.605   9.387   3.637
60858SOL    HW284414  13.713   9.478   3.692
60859SOL     OW84415   8.766   6.781  14.316
60859SOL    HW184416   8.778   6.873  14.290
60859SOL    HW284417   8.855   6.745  14.319
60860SOL     OW84418   6.898  13.754   2.918
60860SOL    HW184419   6.869  13.688   2.855
60860SOL    HW284420   6.837  13.826   2.908
60861SOL     OW84421  11.510   1.405   2.491
60861SOL    HW184422  11.565   1.457   2.550
60861SOL    HW284423  11.478   1.332   2.545
60862SOL     OW84424   1.052   5.238  14.562
60862SOL    HW184425   0.966   5.233  14.603
60862SOL    HW284426   1.061   5.156  14.514
60863SOL     OW84427   3.638  10.278   4.855
60863SOL    HW184428   3.620  10.231   4.937
60863SOL    HW284429   3.690  10.216   4.803
60864SOL     OW84430   8.127   0.878  14.826
60864SOL    HW184431   8.169   0.856   0.033
60864SOL    HW284432   8.041   0.836  14.831
60865SOL     OW84433   0.237   7.759   0.667
60865SOL    HW184434   0.212   7.728   0.754
60865SOL    HW284435   0.210   7.689   0.607
60866SOL     OW84436  10.297   9.047   0.651
60866SOL    HW184437  10.358   9.065   0.580
60866SOL    HW284438  10.245   9.127   0.660
60867SOL     OW84439   8.233   3.035  12.906
60867SOL    HW184440   8.171   2.982  12.954
60867SOL    HW284441   8.314   2.984  12.905
60868SOL     OW84442   2.867  14.386   6.380
60868SOL    HW184443   2.919  14.325   6.431
60868SOL    HW284444   2.884  14.472   6.420
60869SOL     OW84445   4.954   9.973  13.434
60869SOL    HW184446   4.959   9.885  13.398
60869SOL    HW284447   4.861   9.985  13.454
60870SOL     OW84448  11.539  12.262   1.391
60870SOL    HW184449  11.485  12.226   1.320
60870SOL    HW284450  11.580  12.185   1.430
60871SOL     OW84451   1.621   7.320   2.712
60871SOL    HW184452   1.663   7.405   2.695
60871SOL    HW284453   1.691   7.256   2.700
60872SOL     OW84454   4.453   9.341   0.754
60872SOL    HW184455   4.530   9.331   0.811
60872SOL    HW284456   4.438   9.253   0.719
60873SOL     OW84457   8.635   2.436   3.854
60873SOL    HW184458   8.581   2.513   3.872
60873SOL    HW284459   8.716   2.452   3.903
60874SOL     OW84460   8.381  13.602   7.053
60874SOL    HW184461   8.298  13.578   7.012
60874SOL    HW284462   8.434  13.637   6.981
60875SOL     OW84463  13.135  12.470   4.386
60875SOL    HW184464  13.050  12.492   4.347
60875SOL    HW284465  13.136  12.518   4.469
60876SOL     OW84466   0.258   8.322   5.935
60876SOL    HW184467   0.200   8.363   5.871
60876SOL    HW284468   0.343   8.315   5.889
60877SOL     OW84469   7.579   5.549   8.822
60877SOL    HW184470   7.554   5.561   8.730
60877SOL    HW284471   7.649   5.483   8.819
60878SOL     OW84472   6.914   2.100   4.620
60878SOL    HW184473   6.819   2.115   4.629
60878SOL    HW284474   6.950   2.126   4.705
60879SOL     OW84475   0.967   0.956   9.508
60879SOL    HW184476   0.874   0.973   9.497
60879SOL    HW284477   1.011   1.026   9.460
60880SOL     OW84478   1.535  11.135   7.172
60880SOL    HW184479   1.591  11.060   7.192
60880SOL    HW284480   1.491  11.111   7.090
60881SOL     OW84481  13.787   5.706   4.885
60881SOL    HW184482  13.803   5.769   4.955
60881SOL    HW284483  13.692   5.708   4.872
60882SOL     OW84484   6.747   1.724   0.579
60882SOL    HW184485   6.713   1.719   0.668
60882SOL    HW284486   6.823   1.781   0.586
60883SOL     OW84487   9.440   7.248   2.171
60883SOL    HW184488   9.479   7.244   2.084
60883SOL    HW284489   9.505   7.296   2.223
60884SOL     OW84490  10.540   7.604  13.980
60884SOL    HW184491  10.604   7.675  13.976
60884SOL    HW284492  10.588   7.531  14.020
60885SOL     OW84493  13.385   5.257   3.912
60885SOL    HW184494  13.310   5.203   3.887
60885SOL    HW284495  13.377   5.336   3.860
60886SOL     OW84496   7.976   0.352   3.155
60886SOL    HW184497   8.023   0.282   3.200
60886SOL    HW284498   7.886   0.319   3.146
60887SOL     OW84499   0.651  12.763  11.131
60887SOL    HW184500   0.706  12.686  11.149
60887SOL    HW284501   0.563  12.726  11.118
60888SOL     OW84502  12.482   6.378   2.415
60888SOL    HW184503  12.419   6.356   2.346
60888SOL    HW284504  12.460   6.468   2.440
60889SOL     OW84505  13.661   7.323   3.391
60889SOL    HW184506  13.754   7.314   3.411
60889SOL    HW284507  13.616   7.302   3.473
60890SOL     OW84508   4.634   0.110   3.002
60890SOL    HW184509   4.600   0.021   2.999
60890SOL    HW284510   4.579   0.154   3.067
60891SOL     OW84511   4.465   5.593   2.369
60891SOL    HW184512   4.411   5.668   2.346
60891SOL    HW284513   4.512   5.620   2.448
60892SOL     OW84514   8.171   1.867   2.684
60892SOL    HW184515   8.104   1.887   2.750
60892SOL    HW284516   8.146   1.920   2.608
60893SOL     OW84517  14.799   5.829   2.820
60893SOL    HW184518  14.716   5.839   2.774
60893SOL    HW284519  14.780   5.769   2.892
60894SOL     OW84520   0.066   6.103   1.370
60894SOL    HW184521   0.100   6.089   1.281
60894SOL    HW284522   0.144   6.123   1.422
60895SOL     OW84523  10.592   3.708   6.445
60895SOL    HW184524  10.664   3.717   6.382
60895SOL    HW284525  10.513   3.726   6.394
60896SOL     OW84526  11.863  10.110   6.509
60896SOL    HW184527  11.854  10.169   6.584
60896SOL    HW284528  11.879  10.168   6.435
60897SOL     OW84529  10.201  10.103  14.697
60897SOL    HW184530  10.131  10.147  14.745
60897SOL    HW284531  10.156  10.051  14.631
60898SOL     OW84532   9.972   9.015  14.408
60898SOL    HW184533   9.959   9.029  14.314
60898SOL    HW284534   9.935   8.928  14.424
60899SOL     OW84535  11.142   6.119   2.743
60899SOL    HW184536  11.222   6.115   2.690
60899SOL    HW284537  11.156   6.192   2.802
60900SOL     OW84538   9.114   8.618   0.088
60900SOL    HW184539   9.049   8.685   0.104
60900SOL    HW284540   9.095   8.584   0.001
60901SOL     OW84541  10.716   5.216   7.303
60901SOL    HW184542  10.770   5.178   7.372
60901SOL    HW284543  10.633   5.236   7.346
60902SOL     OW84544  11.379  13.420   2.112
60902SOL    HW184545  11.432  13.468   2.048
60902SOL    HW284546  11.441  13.397   2.181
60903SOL     OW84547  10.132  13.867   3.821
60903SOL    HW184548  10.120  13.797   3.756
60903SOL    HW284549  10.043  13.889   3.848
60904SOL     OW84550  14.021   7.097   6.827
60904SOL    HW184551  14.068   7.026   6.784
60904SOL    HW284552  14.089   7.148   6.871
60905SOL     OW84553   0.156   3.243  13.367
60905SOL    HW184554   0.210   3.279  13.438
60905SOL    HW284555   0.220   3.211  13.303
60906SOL     OW84556   6.587   4.956   2.012
60906SOL    HW184557   6.563   5.049   2.009
60906SOL    HW284558   6.628   4.945   2.098
60907SOL     OW84559   7.458   1.469   7.817
60907SOL    HW184560   7.400   1.542   7.798
60907SOL    HW284561   7.511   1.499   7.891
60908SOL     OW84562   0.115   6.954  10.801
60908SOL    HW184563   0.198   6.991  10.769
60908SOL    HW284564   0.091   6.890  10.735
60909SOL     OW84565   8.637  13.384  10.619
60909SOL    HW184566   8.573  13.369  10.549
60909SOL    HW284567   8.596  13.349  10.698
60910SOL     OW84568   9.059   2.076   0.832
60910SOL    HW184569   9.073   2.043   0.743
60910SOL    HW284570   9.008   2.008   0.875
60911SOL     OW84571   8.104   5.586  14.047
60911SOL    HW184572   8.167   5.561  14.115
60911SOL    HW284573   8.050   5.653  14.089
60912SOL     OW84574   9.994  11.417  12.765
60912SOL    HW184575  10.037  11.494  12.728
60912SOL    HW284576  10.035  11.406  12.851
60913SOL     OW84577   0.336  12.331   0.492
60913SOL    HW184578   0.426  12.331   0.524
60913SOL    HW284579   0.342  12.366   0.403
60914SOL     OW84580   3.531  10.739  12.125
60914SOL    HW184581   3.488  10.802  12.183
60914SOL    HW284582   3.517  10.775  12.037
60915SOL     OW84583   4.293   8.228   2.737
60915SOL    HW184584   4.358   8.294   2.712
60915SOL    HW284585   4.219   8.279   2.770
60916SOL     OW84586  11.787  10.091  12.865
60916SOL    HW184587  11.723  10.067  12.932
60916SOL    HW284588  11.749  10.058  12.783
60917SOL     OW84589   1.830  14.697   5.008
60917SOL    HW184590   1.911  14.731   5.048
60917SOL    HW284591   1.780  14.662   5.082
60918SOL     OW84592   2.481   4.127   7.388
60918SOL    HW184593   2.540   4.110   7.315
60918SOL    HW284594   2.538   4.130   7.465
60919SOL     OW84595   8.494   3.895   9.583
60919SOL    HW184596   8.453   3.850   9.509
60919SOL    HW284597   8.431   3.962   9.608
60920SOL     OW84598   8.897   6.562  10.231
60920SOL    HW184599   8.871   6.543  10.321
60920SOL    HW284600   8.832   6.624  10.198
60921SOL     OW84601   8.207   0.607   8.716
60921SOL    HW184602   8.239   0.657   8.640
60921SOL    HW284603   8.251   0.522   8.709
60922SOL     OW84604   7.153   8.531   3.000
60922SOL    HW184605   7.097   8.474   3.052
60922SOL    HW284606   7.234   8.538   3.051
60923SOL     OW84607  13.347   5.920   0.181
60923SOL    HW184608  13.416   5.978   0.150
60923SOL    HW284609  13.315   5.962   0.261
60924SOL     OW84610   0.951  13.880   3.095
60924SOL    HW184611   0.872  13.826   3.100
60924SOL    HW284612   0.923  13.966   3.125
60925SOL     OW84613   1.681   1.507  12.518
60925SOL    HW184614   1.671   1.590  12.472
60925SOL    HW284615   1.764   1.514  12.564
60926SOL     OW84616   1.858  12.567   5.783
60926SOL    HW184617   1.825  12.657   5.782
60926SOL    HW284618   1.795  12.519   5.836
60927SOL     OW84619   0.361   1.312   1.663
60927SOL    HW184620   0.289   1.282   1.608
60927SOL    HW284621   0.323   1.380   1.718
60928SOL     OW84622   0.365  14.351  12.538
60928SOL    HW184623   0.308  14.318  12.468
60928SOL    HW284624   0.422  14.278  12.559
60929SOL     OW84625  12.065   2.859   1.039
60929SOL    HW184626  11.978   2.818   1.047
60929SOL    HW284627  12.107   2.841   1.123
60930SOL     OW84628   4.548  14.399   6.530
60930SOL    HW184629   4.515  14.360   6.449
60930SOL    HW284630   4.626  14.348   6.552
60931SOL     OW84631   8.090   5.547   4.396
60931SOL    HW184632   8.052   5.537   4.309
60931SOL    HW284633   8.101   5.457   4.428
60932SOL     OW84634   9.525  10.505   0.451
60932SOL    HW184635   9.559  10.417   0.469
60932SOL    HW284636   9.575  10.563   0.508
60933SOL     OW84637   9.209   2.412  11.245
60933SOL    HW184638   9.224   2.418  11.151
60933SOL    HW284639   9.208   2.504  11.275
60934SOL     OW84640  12.896   4.642  11.451
60934SOL    HW184641  12.885   4.584  11.526
60934SOL    HW284642  12.880   4.587  11.375
60935SOL     OW84643  12.663  10.006  11.395
60935SOL    HW184644  12.633   9.924  11.433
60935SOL    HW284645  12.675   9.986  11.302
60936SOL     OW84646   8.966  11.118  10.148
60936SOL    HW184647   8.884  11.069  10.141
60936SOL    HW284648   8.985  11.120  10.242
60937SOL     OW84649   7.406   5.565   7.254
60937SOL    HW184650   7.338   5.535   7.194
60937SOL    HW284651   7.482   5.510   7.234
60938SOL     OW84652   4.710   7.364  13.671
60938SOL    HW184653   4.762   7.311  13.610
60938SOL    HW284654   4.697   7.308  13.747
60939SOL     OW84655   2.421   3.697   2.063
60939SOL    HW184656   2.330   3.667   2.058
60939SOL    HW284657   2.415   3.788   2.091
60940SOL     OW84658   0.099   9.627   0.509
60940SOL    HW184659   0.020   9.662   0.550
60940SOL    HW284660   0.139   9.572   0.576
60941SOL     OW84661   0.472   4.134   4.654
60941SOL    HW184662   0.471   4.136   4.750
60941SOL    HW284663   0.563   4.118   4.631
60942SOL     OW84664  12.333   9.526  11.379
60942SOL    HW184665  12.323   9.453  11.441
60942SOL    HW284666  12.326   9.604  11.434
60943SOL     OW84667   2.096   9.987   4.912
60943SOL    HW184668   2.151  10.058   4.878
60943SOL    HW284669   2.023   9.981   4.850
60944SOL     OW84670   3.522   7.174  11.440
60944SOL    HW184671   3.579   7.203  11.369
60944SOL    HW284672   3.435   7.170  11.400
60945SOL     OW84673  10.565  11.263  12.085
60945SOL    HW184674  10.549  11.287  11.994
60945SOL    HW284675  10.649  11.217  12.083
60946SOL     OW84676  12.046  13.716   9.999
60946SOL    HW184677  12.048  13.811  10.013
60946SOL    HW284678  11.991  13.704   9.922
60947SOL     OW84679   4.847   3.938  14.440
60947SOL    HW184680   4.902   3.929  14.363
60947SOL    HW284681   4.909   3.955  14.512
60948SOL     OW84682   3.787   6.529   3.637
60948SOL    HW184683   3.774   6.470   3.563
60948SOL    HW284684   3.719   6.506   3.700
60949SOL     OW84685   2.901  13.865   3.515
60949SOL    HW184686   2.842  13.856   3.440
60949SOL    HW284687   2.845  13.850   3.591
60950SOL     OW84688   3.111   3.116   7.957
60950SOL    HW184689   3.024   3.151   7.976
60950SOL    HW284690   3.162   3.135   8.036
60951SOL     OW84691   0.681  14.584   0.387
60951SOL    HW184692   0.621  14.546   0.323
60951SOL    HW284693   0.624  14.632   0.447
60952SOL     OW84694   9.464   5.198   0.878
60952SOL    HW184695   9.414   5.280   0.870
60952SOL    HW284696   9.404   5.130   0.848
60953SOL     OW84697  11.775   5.551   8.383
60953SOL    HW184698  11.762   5.525   8.474
60953SOL    HW284699  11.689   5.539   8.343
60954SOL     OW84700   9.019   8.003   4.288
60954SOL    HW184701   9.020   8.088   4.331
60954SOL    HW284702   9.086   7.952   4.334
60955SOL     OW84703  12.799   3.981   1.722
60955SOL    HW184704  12.884   3.991   1.764
60955SOL    HW284705  12.820   3.961   1.630
60956SOL     OW84706   1.366  12.758  13.807
60956SOL    HW184707   1.460  12.746  13.792
60956SOL    HW284708   1.339  12.823  13.742
60957SOL     OW84709  12.464  10.359   2.364
60957SOL    HW184710  12.400  10.326   2.302
60957SOL    HW284711  12.437  10.449   2.382
60958SOL     OW84712  11.151  10.275   5.332
60958SOL    HW184713  11.198  10.288   5.250
60958SOL    HW284714  11.079  10.216   5.309
60959SOL     OW84715   0.086   0.173  10.250
60959SOL    HW184716   0.076   0.118  10.328
60959SOL    HW284717  14.873   0.195  10.224
60960SOL     OW84718   7.193  13.377   4.188
60960SOL    HW184719   7.185  13.432   4.110
60960SOL    HW284720   7.104  13.365   4.219
60961SOL     OW84721   5.265  14.847   1.795
60961SOL    HW184722   5.184   0.008   1.830
60961SOL    HW284723   5.243  14.821   1.706
60962SOL     OW84724   5.327   2.464   0.746
60962SOL    HW184725   5.231   2.461   0.745
60962SOL    HW284726   5.352   2.469   0.654
60963SOL     OW84727   7.842   1.445  11.439
60963SOL    HW184728   7.923   1.395  11.444
60963SOL    HW284729   7.789   1.413  11.512
60964SOL     OW84730   8.604   0.302   0.291
60964SOL    HW184731   8.604   0.223   0.345
60964SOL    HW284732   8.526   0.350   0.318
60965SOL     OW84733   6.154   0.462   4.626
60965SOL    HW184734   6.129   0.496   4.712
60965SOL    HW284735   6.161   0.540   4.571
60966SOL     OW84736  13.495  12.691   8.232
60966SOL    HW184737  13.494  12.713   8.139
60966SOL    HW284738  13.508  12.774   8.276
60967SOL     OW84739   2.928   3.914  13.534
60967SOL    HW184740   2.982   3.836  13.523
60967SOL    HW284741   2.856   3.886  13.590
60968SOL     OW84742  13.557   1.242   9.838
60968SOL    HW184743  13.592   1.189   9.910
60968SOL    HW284744  13.629   1.300   9.814
60969SOL     OW84745   1.464   6.270  11.492
60969SOL    HW184746   1.487   6.178  11.479
60969SOL    HW284747   1.545   6.318  11.472
60970SOL     OW84748   2.742  11.843   9.736
60970SOL    HW184749   2.736  11.912   9.670
60970SOL    HW284750   2.724  11.888   9.819
60971SOL     OW84751  10.933   4.711   4.739
60971SOL    HW184752  10.919   4.616   4.731
60971SOL    HW284753  10.866   4.750   4.684
60972SOL     OW84754   6.257   7.462  11.706
60972SOL    HW184755   6.201   7.385  11.719
60972SOL    HW284756   6.295   7.479  11.792
60973SOL     OW84757   9.356   3.430   0.126
60973SOL    HW184758   9.446   3.399   0.138
60973SOL    HW284759   9.301   3.358   0.156
60974SOL     OW84760   1.148   8.316   4.000
60974SOL    HW184761   1.107   8.262   3.932
60974SOL    HW284762   1.242   8.299   3.991
60975SOL     OW84763   9.627   1.023   5.956
60975SOL    HW184764   9.656   1.053   6.042
60975SOL    HW284765   9.705   1.026   5.902
60976SOL     OW84766  12.988   5.108   2.551
60976SOL    HW184767  13.045   5.147   2.617
60976SOL    HW284768  12.930   5.180   2.525
60977SOL     OW84769   3.478   2.002   8.360
60977SOL    HW184770   3.401   2.039   8.316
60977SOL    HW284771   3.548   2.011   8.296
60978SOL     OW84772   8.522  13.601   8.428
60978SOL    HW184773   8.503  13.671   8.491
60978SOL    HW284774   8.456  13.534   8.446
60979SOL     OW84775   8.958   5.309   9.453
60979SOL    HW184776   8.890   5.248   9.482
60979SOL    HW284777   8.912   5.393   9.446
60980SOL     OW84778   2.716  11.532  13.533
60980SOL    HW184779   2.701  11.525  13.627
60980SOL    HW284780   2.694  11.445  13.499
60981SOL     OW84781  12.274   6.448  13.577
60981SOL    HW184782  12.337   6.429  13.508
60981SOL    HW284783  12.217   6.516  13.541
60982SOL     OW84784  12.900   1.900   2.258
60982SOL    HW184785  12.867   1.983   2.291
60982SOL    HW284786  12.988   1.920   2.226
60983SOL     OW84787  12.004  10.237  12.609
60983SOL    HW184788  12.058  10.291  12.550
60983SOL    HW284789  12.036  10.259  12.696
60984SOL     OW84790   9.527  12.840   8.998
60984SOL    HW184791   9.562  12.926   8.975
60984SOL    HW284792   9.586  12.778   8.954
60985SOL     OW84793   1.229   1.068   0.433
60985SOL    HW184794   1.207   1.008   0.362
60985SOL    HW284795   1.197   1.153   0.402
60986SOL     OW84796  11.724   7.466   8.657
60986SOL    HW184797  11.698   7.385   8.702
60986SOL    HW284798  11.722   7.533   8.725
60987SOL     OW84799  14.342   0.494  12.713
60987SOL    HW184800  14.393   0.420  12.746
60987SOL    HW284801  14.372   0.569  12.764
60988SOL     OW84802   1.372   4.072   1.170
60988SOL    HW184803   1.380   4.138   1.101
60988SOL    HW284804   1.280   4.074   1.196
60989SOL     OW84805   1.754   2.083   9.648
60989SOL    HW184806   1.771   2.015   9.713
60989SOL    HW284807   1.687   2.046   9.591
60990SOL     OW84808   5.467   8.194  10.482
60990SOL    HW184809   5.515   8.167  10.560
60990SOL    HW284810   5.430   8.279  10.505
60991SOL     OW84811   1.206   5.107   6.185
60991SOL    HW184812   1.207   5.149   6.099
60991SOL    HW284813   1.178   5.017   6.168
60992SOL     OW84814   5.796   9.149   8.339
60992SOL    HW184815   5.773   9.214   8.406
60992SOL    HW284816   5.713   9.113   8.311
60993SOL     OW84817   0.908  14.063  14.838
60993SOL    HW184818   0.925  14.088   0.053
60993SOL    HW284819   0.850  13.987  14.844
60994SOL     OW84820   8.654   6.871   0.317
60994SOL    HW184821   8.625   6.911   0.399
60994SOL    HW284822   8.741   6.836   0.336
60995SOL     OW84823   1.239   7.411   9.313
60995SOL    HW184824   1.148   7.426   9.338
60995SOL    HW284825   1.284   7.491   9.339
60996SOL     OW84826  14.178   8.104  10.584
60996SOL    HW184827  14.261   8.068  10.553
60996SOL    HW284828  14.201   8.155  10.661
60997SOL     OW84829   3.867  11.929   9.074
60997SOL    HW184830   3.849  11.916   8.981
60997SOL    HW284831   3.782  11.947   9.113
60998SOL     OW84832   7.089   2.636   9.860
60998SOL    HW184833   7.051   2.566   9.913
60998SOL    HW284834   7.165   2.665   9.910
60999SOL     OW84835  12.510   5.633   9.725
60999SOL    HW184836  12.439   5.570   9.718
60999SOL    HW284837  12.538   5.628   9.816
61000SOL     OW84838   7.130  13.705   3.730
61000SOL    HW184839   7.070  13.751   3.671
61000SOL    HW284840   7.196  13.667   3.672
61001SOL     OW84841  13.449   2.839  12.161
61001SOL    HW184842  13.426   2.898  12.232
61001SOL    HW284843  13.389   2.765  12.170
61002SOL     OW84844  14.818   1.654  12.521
61002SOL    HW184845   0.021   1.603  12.504
61002SOL    HW284846  14.850   1.737  12.558
61003SOL     OW84847  12.615  12.660   5.074
61003SOL    HW184848  12.568  12.586   5.035
61003SOL    HW284849  12.628  12.635   5.166
61004SOL     OW84850   4.028   1.680   3.244
61004SOL    HW184851   3.969   1.713   3.176
61004SOL    HW284852   4.072   1.606   3.204
61005SOL     OW84853  14.811   2.204   3.897
61005SOL    HW184854  14.807   2.285   3.846
61005SOL    HW284855   0.025   2.200   3.927
61006SOL     OW84856   9.163  13.913   6.405
61006SOL    HW184857   9.234  13.946   6.350
61006SOL    HW284858   9.207  13.855   6.467
61007SOL     OW84859   5.089  10.587   9.480
61007SOL    HW184860   5.027  10.531   9.434
61007SOL    HW284861   5.132  10.529   9.542
61008SOL     OW84862  14.241   4.470   3.656
61008SOL    HW184863  14.223   4.508   3.570
61008SOL    HW284864  14.169   4.408   3.670
61009SOL     OW84865   0.018   0.764  12.899
61009SOL    HW184866   0.038   0.843  12.849
61009SOL    HW284867   0.042   0.787  12.989
61010SOL     OW84868   0.705   9.702   3.800
61010SOL    HW184869   0.791   9.743   3.796
61010SOL    HW284870   0.722   9.608   3.795
61011SOL     OW84871  11.415   1.811   6.806
61011SOL    HW184872  11.434   1.873   6.736
61011SOL    HW284873  11.415   1.725   6.763
61012SOL     OW84874  12.617   4.129  11.859
61012SOL    HW184875  12.693   4.188  11.864
61012SOL    HW284876  12.630   4.079  11.779
61013SOL     OW84877   6.931   1.739  13.428
61013SOL    HW184878   6.917   1.692  13.510
61013SOL    HW284879   7.026   1.756  13.427
61014SOL     OW84880   1.757   0.325   7.683
61014SOL    HW184881   1.807   0.259   7.731
61014SOL    HW284882   1.716   0.277   7.611
61015SOL     OW84883   1.878   2.473  11.437
61015SOL    HW184884   1.937   2.397  11.437
61015SOL    HW284885   1.790   2.435  11.439
61016SOL     OW84886   0.481  11.874   4.716
61016SOL    HW184887   0.432  11.793   4.703
61016SOL    HW284888   0.426  11.943   4.679
61017SOL     OW84889  10.169   8.011  13.108
61017SOL    HW184890  10.201   8.064  13.182
61017SOL    HW284891  10.085   7.977  13.137
61018SOL     OW84892   0.174  13.563   6.685
61018SOL    HW184893   0.263  13.591   6.710
61018SOL    HW284894   0.176  13.559   6.590
61019SOL     OW84895   6.173  14.560  11.218
61019SOL    HW184896   6.257  14.520  11.240
61019SOL    HW284897   6.192  14.619  11.145
61020SOL     OW84898   7.505   9.883  14.442
61020SOL    HW184899   7.451   9.953  14.406
61020SOL    HW284900   7.502   9.896  14.536
61021SOL     OW84901   6.331  11.265   5.383
61021SOL    HW184902   6.299  11.351   5.355
61021SOL    HW284903   6.317  11.208   5.307
61022SOL     OW84904   8.559   5.678   2.294
61022SOL    HW184905   8.472   5.645   2.318
61022SOL    HW284906   8.598   5.609   2.242
61023SOL     OW84907   1.118  10.927  11.223
61023SOL    HW184908   1.139  10.871  11.297
61023SOL    HW284909   1.084  10.868  11.156
61024SOL     OW84910   3.515   9.356   5.417
61024SOL    HW184911   3.420   9.362   5.402
61024SOL    HW284912   3.538   9.441   5.456
61025SOL     OW84913  14.041   3.212   0.690
61025SOL    HW184914  13.994   3.177   0.614
61025SOL    HW284915  14.017   3.153   0.762
61026SOL     OW84916   6.401   8.303  10.276
61026SOL    HW184917   6.311   8.306  10.308
61026SOL    HW284918   6.395   8.254  10.193
61027SOL     OW84919  13.169   0.950   5.353
61027SOL    HW184920  13.119   0.870   5.337
61027SOL    HW284921  13.160   1.001   5.272
61028SOL     OW84922   8.020  13.383   5.847
61028SOL    HW184923   7.933  13.354   5.817
61028SOL    HW284924   8.080  13.318   5.811
61029SOL     OW84925  13.485   4.938  11.116
61029SOL    HW184926  13.568   4.987  11.112
61029SOL    HW284927  13.418   5.002  11.091
61030SOL     OW84928   9.007   0.519  13.206
61030SOL    HW184929   9.046   0.515  13.118
61030SOL    HW284930   9.073   0.561  13.260
61031SOL     OW84931   2.919   5.248   8.145
61031SOL    HW184932   3.008   5.282   8.151
61031SOL    HW284933   2.929   5.160   8.109
61032SOL     OW84934   6.852   8.865   4.741
61032SOL    HW184935   6.819   8.929   4.678
61032SOL    HW284936   6.777   8.810   4.762
61033SOL     OW84937  11.037   7.573   2.522
61033SOL    HW184938  10.968   7.508   2.509
61033SOL    HW284939  11.086   7.541   2.597
61034SOL     OW84940   8.166  12.851   2.276
61034SOL    HW184941   8.225  12.799   2.223
61034SOL    HW284942   8.197  12.841   2.366
61035SOL     OW84943   2.970   8.208  12.416
61035SOL    HW184944   3.015   8.136  12.462
61035SOL    HW284945   2.880   8.178  12.407
61036SOL     OW84946   7.522   9.699  12.251
61036SOL    HW184947   7.452   9.659  12.199
61036SOL    HW284948   7.584   9.627  12.265
61037SOL     OW84949   5.258   8.284   0.255
61037SOL    HW184950   5.332   8.321   0.206
61037SOL    HW284951   5.189   8.274   0.189
61038SOL     OW84952   7.039   4.852  13.914
61038SOL    HW184953   7.066   4.880  14.002
61038SOL    HW284954   7.116   4.865  13.860
61039SOL     OW84955   5.268   0.672   0.002
61039SOL    HW184956   5.271   0.738   0.072
61039SOL    HW284957   5.175   0.664  14.858
61040SOL     OW84958   6.336   4.379  10.018
61040SOL    HW184959   6.416   4.359   9.969
61040SOL    HW284960   6.341   4.324  10.096
61041SOL     OW84961   3.650   3.852  12.955
61041SOL    HW184962   3.683   3.936  12.986
61041SOL    HW284963   3.694   3.839  12.871
61042SOL     OW84964  14.693  12.549   7.714
61042SOL    HW184965  14.715  12.634   7.674
61042SOL    HW284966  14.610  12.524   7.673
61043SOL     OW84967   9.082   9.104  12.675
61043SOL    HW184968   9.171   9.073  12.662
61043SOL    HW284969   9.081   9.191  12.635
61044SOL     OW84970   4.412  12.497  14.058
61044SOL    HW184971   4.434  12.411  14.094
61044SOL    HW284972   4.409  12.555  14.134
61045SOL     OW84973   7.200   4.745  12.257
61045SOL    HW184974   7.190   4.751  12.162
61045SOL    HW284975   7.283   4.789  12.275
61046SOL     OW84976   0.401   8.393  11.271
61046SOL    HW184977   0.353   8.408  11.190
61046SOL    HW284978   0.353   8.322  11.314
61047SOL     OW84979  14.494   9.386   4.317
61047SOL    HW184980  14.444   9.449   4.369
61047SOL    HW284981  14.516   9.316   4.378
61048SOL     OW84982   6.889   4.713   9.507
61048SOL    HW184983   6.819   4.777   9.498
61048SOL    HW284984   6.863   4.641   9.449
61049SOL     OW84985   3.629  11.670   7.099
61049SOL    HW184986   3.714  11.645   7.063
61049SOL    HW284987   3.608  11.601   7.161
61050SOL     OW84988  10.123   0.668   1.250
61050SOL    HW184989  10.204   0.627   1.281
61050SOL    HW284990  10.098   0.616   1.173
61051SOL     OW84991   5.418   1.148  14.513
61051SOL    HW184992   5.324   1.129  14.505
61051SOL    HW284993   5.461   1.082  14.460
61052SOL     OW84994   5.357   2.490   1.409
61052SOL    HW184995   5.381   2.449   1.326
61052SOL    HW284996   5.386   2.428   1.476
61053SOL     OW84997   8.152   2.568   3.554
61053SOL    HW184998   8.153   2.493   3.612
61053SOL    HW284999   8.244   2.582   3.530
61054SOL     OW85000   2.372  12.751   0.972
61054SOL    HW185001   2.453  12.712   1.007
61054SOL    HW285002   2.302  12.700   1.011
61055SOL     OW85003   0.932  12.922   0.597
61055SOL    HW185004   0.870  12.909   0.668
61055SOL    HW285005   0.975  12.836   0.587
61056SOL     OW85006   9.066   9.204   9.219
61056SOL    HW185007   9.073   9.281   9.275
61056SOL    HW285008   9.153   9.164   9.220
61057SOL     OW85009  11.454   0.790  13.363
61057SOL    HW185010  11.526   0.809  13.303
61057SOL    HW285011  11.381   0.766  13.307
61058SOL     OW85012   3.233   2.293   1.308
61058SOL    HW185013   3.271   2.381   1.319
61058SOL    HW285014   3.153   2.295   1.361
61059SOL     OW85015  11.463  14.427   8.653
61059SOL    HW185016  11.392  14.429   8.589
61059SOL    HW285017  11.444  14.349   8.707
61060SOL     OW85018  13.486  10.487   5.832
61060SOL    HW185019  13.443  10.506   5.748
61060SOL    HW285020  13.418  10.445   5.885
61061SOL     OW85021   3.824   3.235  11.357
61061SOL    HW185022   3.839   3.207  11.448
61061SOL    HW285023   3.729   3.232  11.347
61062SOL     OW85024   1.209   2.372   1.010
61062SOL    HW185025   1.183   2.444   0.952
61062SOL    HW285026   1.300   2.354   0.988
61063SOL     OW85027  13.288   2.313   9.740
61063SOL    HW185028  13.269   2.367   9.818
61063SOL    HW285029  13.382   2.324   9.726
61064SOL     OW85030   1.169  14.015   4.054
61064SOL    HW185031   1.075  14.022   4.068
61064SOL    HW285032   1.178  14.007   3.959
61065SOL     OW85033  13.282   0.340   5.482
61065SOL    HW185034  13.324   0.356   5.567
61065SOL    HW285035  13.353   0.313   5.424
61066SOL     OW85036   3.090   7.673  13.031
61066SOL    HW185037   2.998   7.699  13.026
61066SOL    HW285038   3.117   7.661  12.940
61067SOL     OW85039   2.951   8.382  10.115
61067SOL    HW185040   2.976   8.442  10.045
61067SOL    HW285041   2.977   8.295  10.083
61068SOL     OW85042   2.562  14.380   7.221
61068SOL    HW185043   2.504  14.308   7.246
61068SOL    HW285044   2.623  14.389   7.293
61069SOL     OW85045   3.994  11.152  13.861
61069SOL    HW185046   4.078  11.199  13.868
61069SOL    HW285047   4.016  11.072  13.812
61070SOL     OW85048   5.423   4.993  13.024
61070SOL    HW185049   5.453   4.974  13.113
61070SOL    HW285050   5.328   5.003  13.033
61071SOL     OW85051   3.426  13.470   7.294
61071SOL    HW185052   3.406  13.392   7.346
61071SOL    HW285053   3.522  13.474   7.295
61072SOL     OW85054   3.992   3.722  10.113
61072SOL    HW185055   4.069   3.778  10.114
61072SOL    HW285056   4.024   3.639  10.076
61073SOL     OW85057   2.906   4.632  12.282
61073SOL    HW185058   2.936   4.722  12.296
61073SOL    HW285059   2.857   4.635  12.199
61074SOL     OW85060   4.040  11.090   4.427
61074SOL    HW185061   4.058  11.002   4.394
61074SOL    HW285062   3.945  11.098   4.422
61075SOL     OW85063   2.340  11.305   2.508
61075SOL    HW185064   2.321  11.381   2.562
61075SOL    HW285065   2.325  11.230   2.565
61076SOL     OW85066  10.232  13.519   6.911
61076SOL    HW185067  10.235  13.451   6.843
61076SOL    HW285068  10.251  13.600   6.865
61077SOL     OW85069  10.291   7.726   6.265
61077SOL    HW185070  10.213   7.682   6.297
61077SOL    HW285071  10.339   7.752   6.344
61078SOL     OW85072   1.156  13.240   7.089
61078SOL    HW185073   1.133  13.248   7.181
61078SOL    HW285074   1.091  13.294   7.044
61079SOL     OW85075   3.354   1.114   0.174
61079SOL    HW185076   3.307   1.194   0.149
61079SOL    HW285077   3.434   1.146   0.216
61080SOL     OW85078   7.896   8.286   0.993
61080SOL    HW185079   7.936   8.200   1.007
61080SOL    HW285080   7.816   8.285   1.046
61081SOL     OW85081  14.858  12.432   2.663
61081SOL    HW185082   0.057  12.489   2.647
61081SOL    HW285083  14.789  12.466   2.606
61082SOL     OW85084  13.044   4.488   5.463
61082SOL    HW185085  13.085   4.567   5.430
61082SOL    HW285086  12.984   4.519   5.531
61083SOL     OW85087   8.876  13.537   5.369
61083SOL    HW185088   8.848  13.498   5.452
61083SOL    HW285089   8.850  13.629   5.376
61084SOL     OW85090   8.289   1.641   8.357
61084SOL    HW185091   8.277   1.664   8.265
61084SOL    HW285092   8.296   1.545   8.357
61085SOL     OW85093  11.002  13.472   7.472
61085SOL    HW185094  11.026  13.564   7.470
61085SOL    HW285095  10.937  13.466   7.542
61086SOL     OW85096   3.384  11.047   4.521
61086SOL    HW185097   3.296  11.037   4.558
61086SOL    HW285098   3.434  10.974   4.557
61087SOL     OW85099   7.400   2.293  11.003
61087SOL    HW185100   7.437   2.238  11.072
61087SOL    HW285101   7.444   2.265  10.923
61088SOL     OW85102   5.291  13.787  14.171
61088SOL    HW185103   5.282  13.813  14.263
61088SOL    HW285104   5.365  13.840  14.139
61089SOL     OW85105  13.527  12.477   9.817
61089SOL    HW185106  13.504  12.434   9.735
61089SOL    HW285107  13.597  12.539   9.793
61090SOL     OW85108   3.414  11.592   5.954
61090SOL    HW185109   3.330  11.621   5.987
61090SOL    HW285110   3.394  11.552   5.869
61091SOL     OW85111   1.236   8.093  14.484
61091SOL    HW185112   1.327   8.078  14.509
61091SOL    HW285113   1.188   8.098  14.567
61092SOL     OW85114   5.027  14.851  14.073
61092SOL    HW185115   5.045  14.819  14.162
61092SOL    HW285116   5.060  14.782  14.016
61093SOL     OW85117  13.134   0.919  13.123
61093SOL    HW185118  13.191   0.870  13.182
61093SOL    HW285119  13.127   1.006  13.163
61094SOL     OW85120   2.927   2.257   8.293
61094SOL    HW185121   3.009   2.261   8.244
61094SOL    HW285122   2.870   2.319   8.248
61095SOL     OW85123   4.949  13.142  12.023
61095SOL    HW185124   4.871  13.196  12.007
61095SOL    HW285125   4.933  13.062  11.974
61096SOL     OW85126   9.421   5.199  12.882
61096SOL    HW185127   9.337   5.207  12.927
61096SOL    HW285128   9.398   5.192  12.789
61097SOL     OW85129   8.774   8.037   2.494
61097SOL    HW185130   8.684   8.006   2.484
61097SOL    HW285131   8.771   8.094   2.571
61098SOL     OW85132   1.446   9.832  10.111
61098SOL    HW185133   1.534   9.856  10.138
61098SOL    HW285134   1.426   9.891  10.039
61099SOL     OW85135  14.103  11.819   5.025
61099SOL    HW185136  14.186  11.777   5.005
61099SOL    HW285137  14.065  11.765   5.095
61100SOL     OW85138  13.089   6.801   6.769
61100SOL    HW185139  12.997   6.826   6.776
61100SOL    HW285140  13.106   6.750   6.848
61101SOL     OW85141  13.003   8.320   3.473
61101SOL    HW185142  12.944   8.325   3.398
61101SOL    HW285143  12.946   8.292   3.545
61102SOL     OW85144  14.432  12.608   6.330
61102SOL    HW185145  14.429  12.533   6.391
61102SOL    HW285146  14.519  12.646   6.345
61103SOL     OW85147  11.994   1.243  13.238
61103SOL    HW185148  11.968   1.333  13.219
61103SOL    HW285149  11.975   1.195  13.158
61104SOL     OW85150   3.260  13.488   8.522
61104SOL    HW185151   3.179  13.516   8.566
61104SOL    HW285152   3.327  13.549   8.555
61105SOL     OW85153   2.313   3.621   0.458
61105SOL    HW185154   2.337   3.713   0.449
61105SOL    HW285155   2.390   3.579   0.496
61106SOL     OW85156   2.266   5.580   7.382
61106SOL    HW185157   2.249   5.557   7.290
61106SOL    HW285158   2.329   5.514   7.412
61107SOL     OW85159   2.321   6.107  14.198
61107SOL    HW185160   2.285   6.062  14.122
61107SOL    HW285161   2.408   6.068  14.209
61108SOL     OW85162   3.971  13.007   0.790
61108SOL    HW185163   4.026  13.080   0.761
61108SOL    HW285164   3.937  13.035   0.875
61109SOL     OW85165   1.542  10.153   4.144
61109SOL    HW185166   1.620  10.167   4.090
61109SOL    HW285167   1.577  10.120   4.227
61110SOL     OW85168  10.919   3.275  14.425
61110SOL    HW185169  11.012   3.288  14.440
61110SOL    HW285170  10.883   3.364  14.419
61111SOL     OW85171  14.206   4.162   6.751
61111SOL    HW185172  14.146   4.113   6.696
61111SOL    HW285173  14.156   4.180   6.831
61112SOL     OW85174   4.041   9.215   0.599
61112SOL    HW185175   4.054   9.133   0.550
61112SOL    HW285176   4.010   9.187   0.685
61113SOL     OW85177  12.054   4.290   6.871
61113SOL    HW185178  12.139   4.261   6.839
61113SOL    HW285179  12.032   4.229   6.942
61114SOL     OW85180  10.421   9.949   9.087
61114SOL    HW185181  10.487  10.018   9.075
61114SOL    HW285182  10.382   9.937   9.001
61115SOL     OW85183  14.183   8.600   9.321
61115SOL    HW185184  14.171   8.516   9.365
61115SOL    HW285185  14.098   8.644   9.330
61116SOL     OW85186   9.754   4.044   8.078
61116SOL    HW185187   9.793   3.970   8.123
61116SOL    HW285188   9.737   4.108   8.147
61117SOL     OW85189  12.761   6.334   7.522
61117SOL    HW185190  12.811   6.371   7.595
61117SOL    HW285191  12.763   6.240   7.538
61118SOL     OW85192  13.813   0.563   4.731
61118SOL    HW185193  13.822   0.583   4.638
61118SOL    HW285194  13.902   0.551   4.762
61119SOL     OW85195   9.046  10.550   4.235
61119SOL    HW185196   9.064  10.635   4.194
61119SOL    HW285197   9.131  10.520   4.266
61120SOL     OW85198  13.447   3.592   6.416
61120SOL    HW185199  13.440   3.522   6.351
61120SOL    HW285200  13.452   3.672   6.364
61121SOL     OW85201   0.124   7.222   3.832
61121SOL    HW185202   0.083   7.287   3.775
61121SOL    HW285203   0.178   7.274   3.892
61122SOL     OW85204   8.436  12.882  10.833
61122SOL    HW185205   8.411  12.790  10.835
61122SOL    HW285206   8.353  12.930  10.841
61123SOL     OW85207   5.862  11.545  12.847
61123SOL    HW185208   5.915  11.589  12.913
61123SOL    HW285209   5.782  11.597  12.842
61124SOL     OW85210   2.693  12.804   2.128
61124SOL    HW185211   2.669  12.882   2.177
61124SOL    HW285212   2.768  12.831   2.076
61125SOL     OW85213  12.705   0.364   2.388
61125SOL    HW185214  12.679   0.437   2.445
61125SOL    HW285215  12.693   0.286   2.442
61126SOL     OW85216   9.832   5.544   9.690
61126SOL    HW185217   9.810   5.630   9.653
61126SOL    HW285218   9.748   5.510   9.720
61127SOL     OW85219   2.689  11.265   4.481
61127SOL    HW185220   2.773  11.305   4.459
61127SOL    HW285221   2.633  11.283   4.407
61128SOL     OW85222   5.877   2.792  13.797
61128SOL    HW185223   5.905   2.754  13.714
61128SOL    HW285224   5.781   2.789  13.794
61129SOL     OW85225   9.157  13.715   9.281
61129SOL    HW185226   9.085  13.715   9.218
61129SOL    HW285227   9.180  13.808   9.291
61130SOL     OW85228  14.348  12.552   9.680
61130SOL    HW185229  14.295  12.551   9.760
61130SOL    HW285230  14.301  12.495   9.619
61131SOL     OW85231   8.027  10.659   0.904
61131SOL    HW185232   7.947  10.613   0.930
61131SOL    HW285233   7.997  10.728   0.844
61132SOL     OW85234   9.820  10.731   3.637
61132SOL    HW185235   9.885  10.800   3.652
61132SOL    HW285236   9.777  10.720   3.721
61133SOL     OW85237   2.806  13.398   1.882
61133SOL    HW185238   2.775  13.487   1.900
61133SOL    HW285239   2.727  13.344   1.883
61134SOL     OW85240   5.576   8.412   9.356
61134SOL    HW185241   5.604   8.322   9.371
61134SOL    HW285242   5.609   8.433   9.269
61135SOL     OW85243  14.205   2.958   6.714
61135SOL    HW185244  14.276   2.939   6.653
61135SOL    HW285245  14.249   2.998   6.789
61136SOL     OW85246   2.064   9.132   7.474
61136SOL    HW185247   1.983   9.170   7.441
61136SOL    HW285248   2.102   9.201   7.529
61137SOL     OW85249  12.082   2.697  11.690
61137SOL    HW185250  12.014   2.643  11.650
61137SOL    HW285251  12.107   2.759  11.621
61138SOL     OW85252  12.698   7.924   7.932
61138SOL    HW185253  12.754   7.965   7.866
61138SOL    HW285254  12.708   7.830   7.916
61139SOL     OW85255   7.410  11.742  12.373
61139SOL    HW185256   7.376  11.681  12.438
61139SOL    HW285257   7.505  11.735  12.381
61140SOL     OW85258   2.495  11.052   4.196
61140SOL    HW185259   2.445  11.064   4.277
61140SOL    HW285260   2.534  10.965   4.205
61141SOL     OW85261   5.560  14.206   2.228
61141SOL    HW185262   5.648  14.169   2.228
61141SOL    HW285263   5.523  14.181   2.313
61142SOL     OW85264  14.206   7.511   2.316
61142SOL    HW185265  14.290   7.465   2.306
61142SOL    HW285266  14.143   7.458   2.267
61143SOL     OW85267  13.378   0.108   7.257
61143SOL    HW185268  13.343   0.019   7.249
61143SOL    HW285269  13.445   0.101   7.325
61144SOL     OW85270   4.892  13.052  14.818
61144SOL    HW185271   4.867  13.141  14.793
61144SOL    HW285272   4.975  13.037  14.772
61145SOL     OW85273   2.785   8.093   0.894
61145SOL    HW185274   2.794   8.030   0.966
61145SOL    HW285275   2.795   8.040   0.815
61146SOL     OW85276   4.665   2.706   2.389
61146SOL    HW185277   4.702   2.706   2.477
61146SOL    HW285278   4.721   2.644   2.341
61147SOL     OW85279   3.263   8.285   3.187
61147SOL    HW185280   3.171   8.282   3.160
61147SOL    HW285281   3.259   8.284   3.283
61148SOL     OW85282   8.965   2.972   1.325
61148SOL    HW185283   8.942   2.947   1.236
61148SOL    HW285284   9.056   3.001   1.320
61149SOL     OW85285   4.764   7.177   0.169
61149SOL    HW185286   4.812   7.239   0.114
61149SOL    HW285287   4.784   7.091   0.131
61150SOL     OW85288  11.912  11.121   2.856
61150SOL    HW185289  11.895  11.216   2.853
61150SOL    HW285290  11.839  11.083   2.806
61151SOL     OW85291   1.986  10.615  13.074
61151SOL    HW185292   2.036  10.595  12.995
61151SOL    HW285293   1.975  10.531  13.118
61152SOL     OW85294   1.294   2.206  12.413
61152SOL    HW185295   1.279   2.173  12.325
61152SOL    HW285296   1.388   2.192  12.429
61153SOL     OW85297   6.547   3.679   9.057
61153SOL    HW185298   6.556   3.600   9.110
61153SOL    HW285299   6.538   3.750   9.120
61154SOL     OW85300   3.097  10.112   1.713
61154SOL    HW185301   3.086  10.155   1.628
61154SOL    HW285302   3.008  10.092   1.741
61155SOL     OW85303   9.209   4.053  12.397
61155SOL    HW185304   9.203   3.996  12.473
61155SOL    HW285305   9.132   4.032  12.344
61156SOL     OW85306  12.058   3.184  14.806
61156SOL    HW185307  12.096   3.151  14.725
61156SOL    HW285308  12.120   3.251  14.836
61157SOL     OW85309  13.698  13.663   2.392
61157SOL    HW185310  13.669  13.729   2.329
61157SOL    HW285311  13.747  13.600   2.340
61158SOL     OW85312   7.683   3.193   9.941
61158SOL    HW185313   7.694   3.288   9.949
61158SOL    HW285314   7.708   3.173   9.851
61159SOL     OW85315   2.655   2.710   3.649
61159SOL    HW185316   2.657   2.662   3.566
61159SOL    HW285317   2.722   2.778   3.638
61160SOL     OW85318   1.531   5.932  11.487
61160SOL    HW185319   1.521   5.854  11.433
61160SOL    HW285320   1.625   5.949  11.489
61161SOL     OW85321   4.974  14.320   3.777
61161SOL    HW185322   5.039  14.336   3.709
61161SOL    HW285323   4.917  14.397   3.775
61162SOL     OW85324   5.023  11.585   1.908
61162SOL    HW185325   5.073  11.625   1.838
61162SOL    HW285326   5.015  11.654   1.974
61163SOL     OW85327   3.807   1.402   8.415
61163SOL    HW185328   3.896   1.432   8.394
61163SOL    HW285329   3.778   1.356   8.336
61164SOL     OW85330  10.453   8.521  13.186
61164SOL    HW185331  10.438   8.429  13.165
61164SOL    HW285332  10.370   8.565  13.164
61165SOL     OW85333   0.515   3.367   0.558
61165SOL    HW185334   0.585   3.303   0.541
61165SOL    HW285335   0.554   3.429   0.619
61166SOL     OW85336  14.283  10.569   1.173
61166SOL    HW185337  14.209  10.509   1.166
61166SOL    HW285338  14.285  10.594   1.266
61167SOL     OW85339   9.762  13.124   7.924
61167SOL    HW185340   9.686  13.152   7.872
61167SOL    HW285341   9.755  13.028   7.926
61168SOL     OW85342   6.647   0.351  11.851
61168SOL    HW185343   6.654   0.422  11.914
61168SOL    HW285344   6.736   0.317  11.842
61169SOL     OW85345   4.693  11.555   0.286
61169SOL    HW185346   4.714  11.491   0.355
61169SOL    HW285347   4.728  11.638   0.318
61170SOL     OW85348   7.395  10.937  14.756
61170SOL    HW185349   7.325  10.944  14.691
61170SOL    HW285350   7.441  10.856  14.732
61171SOL     OW85351   9.431  13.594   0.782
61171SOL    HW185352   9.441  13.684   0.751
61171SOL    HW285353   9.397  13.603   0.871
61172SOL     OW85354   2.471   1.706  10.817
61172SOL    HW185355   2.429   1.721  10.732
61172SOL    HW285356   2.472   1.793  10.858
61173SOL     OW85357   3.110  13.069  11.466
61173SOL    HW185358   3.200  13.075  11.432
61173SOL    HW285359   3.096  12.975  11.479
61174SOL     OW85360   6.746  12.089   8.052
61174SOL    HW185361   6.690  12.029   8.101
61174SOL    HW285362   6.689  12.126   7.984
61175SOL     OW85363   9.814  12.807   0.964
61175SOL    HW185364   9.740  12.827   0.908
61175SOL    HW285365   9.891  12.828   0.911
61176SOL     OW85366   3.076  13.214   4.123
61176SOL    HW185367   3.026  13.135   4.142
61176SOL    HW285368   3.061  13.271   4.198
61177SOL     OW85369   2.279   4.645   1.453
61177SOL    HW185370   2.228   4.704   1.398
61177SOL    HW285371   2.214   4.600   1.507
61178SOL     OW85372   2.626   6.580  12.236
61178SOL    HW185373   2.628   6.502  12.181
61178SOL    HW285374   2.554   6.633  12.201
61179SOL     OW85375  11.390  11.551   1.105
61179SOL    HW185376  11.462  11.535   1.165
61179SOL    HW285377  11.428  11.537   1.018
61180SOL     OW85378   5.025  10.783   6.321
61180SOL    HW185379   4.973  10.800   6.399
61180SOL    HW285380   5.088  10.855   6.318
61181SOL     OW85381  11.990  11.347  10.115
61181SOL    HW185382  12.071  11.374  10.158
61181SOL    HW285383  11.947  11.291  10.179
61182SOL     OW85384   7.258  10.946  11.744
61182SOL    HW185385   7.257  11.042  11.738
61182SOL    HW285386   7.211  10.926  11.825
61183SOL     OW85387  13.121   2.505  10.707
61183SOL    HW185388  13.138   2.573  10.641
61183SOL    HW285389  13.101   2.427  10.655
61184SOL     OW85390  14.848  12.591  12.818
61184SOL    HW185391   0.048  12.540  12.845
61184SOL    HW285392  14.776  12.529  12.821
61185SOL     OW85393   2.127  13.292  12.240
61185SOL    HW185394   2.069  13.330  12.173
61185SOL    HW285395   2.188  13.237  12.191
61186SOL     OW85396  10.079   7.413   8.999
61186SOL    HW185397  10.000   7.456   9.033
61186SOL    HW285398  10.104   7.465   8.923
61187SOL     OW85399   4.850   4.182   6.564
61187SOL    HW185400   4.825   4.108   6.619
61187SOL    HW285401   4.922   4.149   6.511
61188SOL     OW85402   5.725   2.902   3.417
61188SOL    HW185403   5.671   2.846   3.472
61188SOL    HW285404   5.815   2.871   3.430
61189SOL     OW85405   6.954   3.144   0.500
61189SOL    HW185406   7.018   3.120   0.433
61189SOL    HW285407   6.975   3.087   0.574
61190SOL     OW85408   5.417  12.258   5.325
61190SOL    HW185409   5.488  12.215   5.374
61190SOL    HW285410   5.461  12.299   5.250
61191SOL     OW85411   8.339   9.894  14.218
61191SOL    HW185412   8.309   9.832  14.285
61191SOL    HW285413   8.259   9.939  14.190
61192SOL     OW85414   4.507  12.259  11.853
61192SOL    HW185415   4.456  12.287  11.777
61192SOL    HW285416   4.514  12.164  11.843
61193SOL     OW85417   0.691  12.950   8.832
61193SOL    HW185418   0.667  12.871   8.881
61193SOL    HW285419   0.768  12.924   8.782
61194SOL     OW85420   6.651   4.333  10.795
61194SOL    HW185421   6.636   4.413  10.746
61194SOL    HW285422   6.671   4.267  10.728
61195SOL     OW85423   5.635   1.480   8.319
61195SOL    HW185424   5.545   1.505   8.301
61195SOL    HW285425   5.630   1.418   8.391
61196SOL     OW85426   0.573  10.147  10.607
61196SOL    HW185427   0.648  10.207  10.602
61196SOL    HW285428   0.570  10.104  10.522
61197SOL     OW85429   0.549   9.676   4.225
61197SOL    HW185430   0.568   9.766   4.199
61197SOL    HW285431   0.620   9.625   4.187
61198SOL     OW85432   5.014  12.627  10.203
61198SOL    HW185433   5.022  12.631  10.108
61198SOL    HW285434   4.920  12.630  10.219
61199SOL     OW85435  14.744   8.158   0.206
61199SOL    HW185436  14.791   8.229   0.252
61199SOL    HW285437  14.814   8.102   0.172
61200SOL     OW85438  13.832   6.075   9.074
61200SOL    HW185439  13.785   6.132   9.013
61200SOL    HW285440  13.766   6.052   9.140
61201SOL     OW85441   9.793   2.317   7.974
61201SOL    HW185442   9.741   2.245   8.007
61201SOL    HW285443   9.853   2.339   8.045
61202SOL     OW85444  11.636   9.044  14.372
61202SOL    HW185445  11.565   9.037  14.308
61202SOL    HW285446  11.611   8.982  14.441
61203SOL     OW85447  10.084   2.575   1.438
61203SOL    HW185448  10.043   2.655   1.408
61203SOL    HW285449  10.077   2.515   1.364
61204SOL     OW85450  14.137   6.149  12.778
61204SOL    HW185451  14.108   6.179  12.864
61204SOL    HW285452  14.079   6.076  12.757
61205SOL     OW85453  14.042   5.603  13.883
61205SOL    HW185454  13.949   5.621  13.895
61205SOL    HW285455  14.084   5.689  13.889
61206SOL     OW85456   3.186   5.219   2.891
61206SOL    HW185457   3.267   5.200   2.843
61206SOL    HW285458   3.178   5.147   2.953
61207SOL     OW85459   6.090  14.383   9.875
61207SOL    HW185460   6.009  14.367   9.826
61207SOL    HW285461   6.076  14.467   9.918
61208SOL     OW85462  10.139   7.499   4.025
61208SOL    HW185463  10.136   7.468   4.116
61208SOL    HW285464  10.064   7.458   3.983
61209SOL     OW85465   8.068   4.257   7.657
61209SOL    HW185466   8.057   4.236   7.564
61209SOL    HW285467   8.100   4.347   7.658
61210SOL     OW85468   3.185   5.919   8.211
61210SOL    HW185469   3.106   5.881   8.251
61210SOL    HW285470   3.194   5.871   8.129
61211SOL     OW85471   5.846   1.196   7.132
61211SOL    HW185472   5.878   1.233   7.050
61211SOL    HW285473   5.903   1.120   7.148
61212SOL     OW85474   4.596   8.690   9.134
61212SOL    HW185475   4.646   8.638   9.197
61212SOL    HW285476   4.651   8.692   9.055
61213SOL     OW85477   4.334   1.061  13.350
61213SOL    HW185478   4.257   1.004  13.350
61213SOL    HW285479   4.408   1.001  13.337
61214SOL     OW85480  13.161   1.432  13.543
61214SOL    HW185481  13.073   1.395  13.543
61214SOL    HW285482  13.211   1.376  13.483
61215SOL     OW85483   6.366   6.729  14.559
61215SOL    HW185484   6.440   6.697  14.610
61215SOL    HW285485   6.298   6.663  14.571
61216SOL     OW85486   9.463   6.780   6.276
61216SOL    HW185487   9.540   6.827   6.244
61216SOL    HW285488   9.408   6.847   6.315
61217SOL     OW85489  12.727   7.274   8.639
61217SOL    HW185490  12.727   7.185   8.603
61217SOL    HW285491  12.643   7.311   8.611
61218SOL     OW85492   9.299  12.697   5.452
61218SOL    HW185493   9.302  12.729   5.361
61218SOL    HW285494   9.381  12.650   5.464
61219SOL     OW85495   2.084   5.258   1.502
61219SOL    HW185496   2.141   5.182   1.487
61219SOL    HW285497   2.105   5.318   1.431
61220SOL     OW85498  12.192   2.099  13.550
61220SOL    HW185499  12.097   2.096  13.564
61220SOL    HW285500  12.205   2.048  13.470
61221SOL     OW85501  13.200   4.529  13.910
61221SOL    HW185502  13.138   4.548  13.981
61221SOL    HW285503  13.275   4.585  13.928
61222SOL     OW85504   0.026   2.309   3.594
61222SOL    HW185505  14.873   2.374   3.658
61222SOL    HW285506   0.066   2.360   3.524
61223SOL     OW85507   2.446   0.199   8.750
61223SOL    HW185508   2.422   0.115   8.789
61223SOL    HW285509   2.399   0.264   8.802
61224SOL     OW85510   8.445   0.779   8.074
61224SOL    HW185511   8.362   0.766   8.027
61224SOL    HW285512   8.501   0.823   8.011
61225SOL     OW85513   9.773  13.738  12.757
61225SOL    HW185514   9.829  13.752  12.833
61225SOL    HW285515   9.832  13.711  12.688
61226SOL     OW85516   1.107  12.739  11.411
61226SOL    HW185517   1.063  12.673  11.464
61226SOL    HW285518   1.127  12.810  11.473
61227SOL     OW85519   4.090   5.621   1.867
61227SOL    HW185520   4.124   5.705   1.835
61227SOL    HW285521   4.000   5.617   1.833
61228SOL     OW85522   2.070   3.262  12.417
61228SOL    HW185523   2.062   3.273  12.512
61228SOL    HW285524   1.998   3.313  12.380
61229SOL     OW85525   3.522   9.333   1.944
61229SOL    HW185526   3.566   9.369   1.867
61229SOL    HW285527   3.594   9.310   2.003
61230SOL     OW85528   1.457  12.867   2.826
61230SOL    HW185529   1.366  12.865   2.797
61230SOL    HW285530   1.477  12.961   2.836
61231SOL     OW85531   7.348  12.084   9.655
61231SOL    HW185532   7.423  12.053   9.604
61231SOL    HW285533   7.277  12.090   9.592
61232SOL     OW85534  13.894  13.875  13.937
61232SOL    HW185535  13.973  13.844  13.893
61232SOL    HW285536  13.915  13.965  13.962
61233SOL     OW85537   8.758   2.240   6.769
61233SOL    HW185538   8.663   2.250   6.760
61233SOL    HW285539   8.792   2.251   6.681
61234SOL     OW85540   5.048  13.375   0.501
61234SOL    HW185541   4.960  13.373   0.538
61234SOL    HW285542   5.102  13.335   0.569
61235SOL     OW85543   6.794   7.535   1.021
61235SOL    HW185544   6.836   7.504   1.101
61235SOL    HW285545   6.820   7.627   1.014
61236SOL     OW85546   9.097  10.744  12.764
61236SOL    HW185547   9.011  10.723  12.727
61236SOL    HW285548   9.143  10.661  12.766
61237SOL     OW85549  12.161  12.882   7.887
61237SOL    HW185550  12.174  12.840   7.802
61237SOL    HW285551  12.199  12.821   7.950
61238SOL     OW85552  13.237   5.903   8.857
61238SOL    HW185553  13.321   5.896   8.814
61238SOL    HW285554  13.200   5.814   8.853
61239SOL     OW85555  10.225   7.251   8.668
61239SOL    HW185556  10.274   7.204   8.601
61239SOL    HW285557  10.220   7.341   8.635
61240SOL     OW85558   0.897   8.487  12.613
61240SOL    HW185559   0.906   8.571  12.658
61240SOL    HW285560   0.807   8.486  12.581
61241SOL     OW85561   9.346  14.427   1.136
61241SOL    HW185562   9.417  14.485   1.107
61241SOL    HW285563   9.383  14.339   1.128
61242SOL     OW85564   6.425  13.051  10.774
61242SOL    HW185565   6.430  13.110  10.698
61242SOL    HW285566   6.331  13.039  10.788
61243SOL     OW85567   8.764   3.666  10.383
61243SOL    HW185568   8.747   3.582  10.426
61243SOL    HW285569   8.780   3.643  10.292
61244SOL     OW85570  12.737  14.093   6.685
61244SOL    HW185571  12.643  14.106   6.677
61244SOL    HW285572  12.747  14.001   6.709
61245SOL     OW85573   0.544   9.244  11.320
61245SOL    HW185574   0.520   9.154  11.341
61245SOL    HW285575   0.627   9.258  11.367
61246SOL     OW85576   6.293   7.099  14.068
61246SOL    HW185577   6.255   7.120  13.983
61246SOL    HW285578   6.381   7.136  14.065
61247SOL     OW85579   2.575   0.971  11.736
61247SOL    HW185580   2.571   0.984  11.830
61247SOL    HW285581   2.493   1.007  11.703
61248SOL     OW85582   5.011   0.361   4.036
61248SOL    HW185583   5.052   0.319   3.960
61248SOL    HW285584   5.042   0.308   4.111
61249SOL     OW85585   7.963   7.430   5.141
61249SOL    HW185586   7.912   7.355   5.169
61249SOL    HW285587   7.898   7.492   5.107
61250SOL     OW85588  13.395   8.525  12.358
61250SOL    HW185589  13.357   8.555  12.441
61250SOL    HW285590  13.454   8.596  12.332
61251SOL     OW85591   1.776  11.783   4.834
61251SOL    HW185592   1.745  11.841   4.903
61251SOL    HW285593   1.755  11.695   4.866
61252SOL     OW85594   1.005   0.423   9.031
61252SOL    HW185595   1.088   0.440   8.986
61252SOL    HW285596   1.019   0.340   9.076
61253SOL     OW85597  14.113   9.158  12.168
61253SOL    HW185598  14.087   9.250  12.173
61253SOL    HW285599  14.179   9.155  12.098
61254SOL     OW85600   7.344   8.490  11.378
61254SOL    HW185601   7.257   8.525  11.357
61254SOL    HW285602   7.328   8.427  11.448
61255SOL     OW85603   8.839  10.108  11.024
61255SOL    HW185604   8.866  10.018  11.005
61255SOL    HW285605   8.866  10.157  10.947
61256SOL     OW85606  13.546   5.569   1.274
61256SOL    HW185607  13.593   5.636   1.224
61256SOL    HW285608  13.476   5.617   1.317
61257SOL     OW85609   6.793   8.077  13.236
61257SOL    HW185610   6.815   8.078  13.329
61257SOL    HW285611   6.704   8.111  13.232
61258SOL     OW85612  12.766   0.287  12.891
61258SOL    HW185613  12.783   0.335  12.973
61258SOL    HW285614  12.826   0.326  12.828
61259SOL     OW85615  10.325  14.813   3.077
61259SOL    HW185616  10.331  14.743   3.011
61259SOL    HW285617  10.410  14.815   3.119
61260SOL     OW85618   6.151   1.215   7.206
61260SOL    HW185619   6.143   1.124   7.177
61260SOL    HW285620   6.161   1.210   7.301
61261SOL     OW85621  10.392  13.714   7.508
61261SOL    HW185622  10.344  13.758   7.579
61261SOL    HW285623  10.370  13.763   7.430
61262SOL     OW85624   0.398   2.412   7.056
61262SOL    HW185625   0.443   2.461   6.987
61262SOL    HW285626   0.308   2.446   7.055
61263SOL     OW85627   3.762   8.333   1.174
61263SOL    HW185628   3.771   8.284   1.092
61263SOL    HW285629   3.702   8.404   1.152
61264SOL     OW85630  11.384  10.804   5.754
61264SOL    HW185631  11.362  10.718   5.788
61264SOL    HW285632  11.304  10.856   5.762
61265SOL     OW85633   3.344   0.609   4.707
61265SOL    HW185634   3.352   0.705   4.705
61265SOL    HW285635   3.400   0.579   4.635
61266SOL     OW85636  11.679   5.949   1.723
61266SOL    HW185637  11.695   6.036   1.759
61266SOL    HW285638  11.610   5.961   1.658
61267SOL     OW85639   8.754  13.870   3.346
61267SOL    HW185640   8.690  13.887   3.277
61267SOL    HW285641   8.811  13.803   3.309
61268SOL     OW85642   3.307   6.893   0.013
61268SOL    HW185643   3.318   6.818   0.072
61268SOL    HW285644   3.215   6.889  14.863
61269SOL     OW85645  12.546   8.234  12.831
61269SOL    HW185646  12.464   8.252  12.877
61269SOL    HW285647  12.525   8.244  12.739
61270SOL     OW85648   4.478  10.637   5.820
61270SOL    HW185649   4.551  10.697   5.831
61270SOL    HW285650   4.406  10.678   5.869
61271SOL     OW85651  12.293   2.508   3.970
61271SOL    HW185652  12.329   2.577   4.026
61271SOL    HW285653  12.232   2.461   4.026
61272SOL     OW85654   3.467  13.420   0.973
61272SOL    HW185655   3.458  13.363   0.896
61272SOL    HW285656   3.562  13.432   0.981
61273SOL     OW85657   8.453   6.672   8.916
61273SOL    HW185658   8.384   6.607   8.904
61273SOL    HW285659   8.443   6.733   8.843
61274SOL     OW85660   3.384  10.821   4.120
61274SOL    HW185661   3.332  10.755   4.166
61274SOL    HW285662   3.388  10.895   4.181
61275SOL     OW85663   6.449  13.329  10.661
61275SOL    HW185664   6.374  13.381  10.632
61275SOL    HW285665   6.524  13.388  10.649
61276SOL     OW85666   5.961   0.599   2.433
61276SOL    HW185667   5.913   0.619   2.513
61276SOL    HW285668   5.939   0.508   2.414
61277SOL     OW85669   3.770   4.484   6.697
61277SOL    HW185670   3.860   4.511   6.677
61277SOL    HW285671   3.734   4.558   6.747
61278SOL     OW85672  12.622  12.315  14.636
61278SOL    HW185673  12.599  12.276  14.721
61278SOL    HW285674  12.538  12.320  14.589
61279SOL     OW85675   3.498   2.948   6.787
61279SOL    HW185676   3.552   2.979   6.860
61279SOL    HW285677   3.423   3.007   6.786
61280SOL     OW85678  10.008   8.616   0.411
61280SOL    HW185679  10.065   8.693   0.416
61280SOL    HW285680   9.968   8.622   0.324
61281SOL     OW85681  11.367   6.068   2.993
61281SOL    HW185682  11.436   6.057   3.058
61281SOL    HW285683  11.359   5.982   2.951
61282SOL     OW85684   6.994   3.054   2.999
61282SOL    HW185685   6.960   3.008   2.923
61282SOL    HW285686   6.917   3.091   3.042
61283SOL     OW85687   8.803   0.122   3.132
61283SOL    HW185688   8.785   0.216   3.126
61283SOL    HW285689   8.887   0.111   3.088
61284SOL     OW85690   8.930  14.292  12.830
61284SOL    HW185691   8.951  14.208  12.790
61284SOL    HW285692   8.972  14.289  12.916
61285SOL     OW85693   3.431   6.219  14.035
61285SOL    HW185694   3.466   6.195  13.949
61285SOL    HW285695   3.341   6.247  14.017
61286SOL     OW85696   8.747  13.448   9.377
61286SOL    HW185697   8.829  13.410   9.344
61286SOL    HW285698   8.737  13.413   9.465
61287SOL     OW85699   3.429   0.761  11.441
61287SOL    HW185700   3.390   0.847  11.428
61287SOL    HW285701   3.369   0.700  11.397
61288SOL     OW85702  14.012   4.300   9.418
61288SOL    HW185703  14.072   4.227   9.402
61288SOL    HW285704  14.019   4.354   9.339
61289SOL     OW85705   3.026  10.873   0.377
61289SOL    HW185706   2.986  10.905   0.297
61289SOL    HW285707   3.109  10.834   0.349
61290SOL     OW85708   5.709   4.808   0.162
61290SOL    HW185709   5.664   4.893   0.159
61290SOL    HW285710   5.669   4.763   0.237
61291SOL     OW85711   0.386   4.666   9.369
61291SOL    HW185712   0.294   4.691   9.355
61291SOL    HW285713   0.383   4.573   9.390
61292SOL     OW85714   6.756   9.983   5.287
61292SOL    HW185715   6.801   9.902   5.262
61292SOL    HW285716   6.825  10.042   5.315
61293SOL     OW85717  14.705   1.324   8.346
61293SOL    HW185718  14.680   1.352   8.258
61293SOL    HW285719  14.636   1.358   8.403
61294SOL     OW85720   0.776  11.924   5.172
61294SOL    HW185721   0.682  11.906   5.184
61294SOL    HW285722   0.778  12.000   5.113
61295SOL     OW85723   6.906   9.992  10.334
61295SOL    HW185724   6.896   9.896  10.339
61295SOL    HW285725   6.933  10.017  10.422
61296SOL     OW85726   9.732   1.202   9.158
61296SOL    HW185727   9.682   1.227   9.235
61296SOL    HW285728   9.737   1.282   9.105
61297SOL     OW85729   5.133   0.606   3.610
61297SOL    HW185730   5.133   0.697   3.581
61297SOL    HW285731   5.202   0.601   3.675
61298SOL     OW85732  12.002   7.798   8.470
61298SOL    HW185733  12.070   7.862   8.450
61298SOL    HW285734  11.922   7.837   8.433
61299SOL     OW85735  11.932   1.270   5.505
61299SOL    HW185736  11.943   1.363   5.482
61299SOL    HW285737  11.901   1.272   5.595
61300SOL     OW85738  10.630   7.566   3.122
61300SOL    HW185739  10.640   7.659   3.100
61300SOL    HW285740  10.602   7.525   3.040
61301SOL     OW85741   3.203   2.127  13.760
61301SOL    HW185742   3.247   2.062  13.705
61301SOL    HW285743   3.114   2.093  13.770
61302SOL     OW85744  13.140   0.523   7.522
61302SOL    HW185745  13.132   0.473   7.603
61302SOL    HW285746  13.230   0.557   7.524
61303SOL     OW85747   1.474   0.577  10.736
61303SOL    HW185748   1.512   0.563  10.822
61303SOL    HW285749   1.533   0.641  10.695
61304SOL     OW85750   5.217   9.969   4.716
61304SOL    HW185751   5.169   9.967   4.633
61304SOL    HW285752   5.290  10.029   4.701
61305SOL     OW85753   6.752  14.343   4.396
61305SOL    HW185754   6.796  14.304   4.321
61305SOL    HW285755   6.812  14.327   4.469
61306SOL     OW85756  13.343   0.011   8.152
61306SOL    HW185757  13.424   0.018   8.203
61306SOL    HW285758  13.361  14.817   8.090
61307SOL     OW85759   2.741  10.818   1.652
61307SOL    HW185760   2.741  10.829   1.747
61307SOL    HW285761   2.828  10.849   1.624
61308SOL     OW85762  11.193   2.761  10.640
61308SOL    HW185763  11.270   2.814  10.662
61308SOL    HW285764  11.140   2.761  10.720
61309SOL     OW85765  12.477  13.201   2.298
61309SOL    HW185766  12.457  13.175   2.388
61309SOL    HW285767  12.552  13.260   2.306
61310SOL     OW85768   0.586   9.480   5.817
61310SOL    HW185769   0.548   9.423   5.884
61310SOL    HW285770   0.664   9.516   5.858
61311SOL     OW85771   5.096   3.983  14.597
61311SOL    HW185772   5.118   4.076  14.597
61311SOL    HW285773   5.081   3.962  14.689
61312SOL     OW85774   1.582   3.870   8.895
61312SOL    HW185775   1.616   3.888   8.808
61312SOL    HW285776   1.656   3.836   8.944
61313SOL     OW85777   5.246  12.788  13.455
61313SOL    HW185778   5.279  12.737  13.529
61313SOL    HW285779   5.318  12.789  13.392
61314SOL     OW85780  11.811   2.584   5.379
61314SOL    HW185781  11.779   2.609   5.466
61314SOL    HW285782  11.774   2.650   5.320
61315SOL     OW85783   6.806  10.982   2.813
61315SOL    HW185784   6.843  10.909   2.863
61315SOL    HW285785   6.823  11.059   2.866
61316SOL     OW85786   8.083   5.658   1.460
61316SOL    HW185787   8.098   5.739   1.509
61316SOL    HW285788   8.044   5.598   1.523
61317SOL     OW85789   8.662  13.103   3.859
61317SOL    HW185790   8.619  13.017   3.863
61317SOL    HW285791   8.741  13.093   3.912
61318SOL     OW85792   2.317  10.653  13.450
61318SOL    HW185793   2.337  10.646  13.543
61318SOL    HW285794   2.292  10.745  13.438
61319SOL     OW85795  10.925   4.027  12.380
61319SOL    HW185796  10.963   4.070  12.303
61319SOL    HW285797  11.000   3.996  12.430
61320SOL     OW85798   2.722   4.573   5.756
61320SOL    HW185799   2.793   4.515   5.729
61320SOL    HW285800   2.710   4.557   5.849
61321SOL     OW85801   7.344  13.513  13.823
61321SOL    HW185802   7.261  13.543  13.787
61321SOL    HW285803   7.406  13.583  13.801
61322SOL     OW85804  14.011   3.148  10.219
61322SOL    HW185805  14.034   3.105  10.301
61322SOL    HW285806  14.040   3.239  10.230
61323SOL     OW85807  12.159  12.838   3.912
61323SOL    HW185808  12.117  12.881   3.986
61323SOL    HW285809  12.179  12.910   3.851
61324SOL     OW85810   8.421   0.629   9.595
61324SOL    HW185811   8.332   0.663   9.607
61324SOL    HW285812   8.476   0.707   9.593
61325SOL     OW85813  13.045  12.329   7.654
61325SOL    HW185814  13.081  12.364   7.572
61325SOL    HW285815  13.088  12.244   7.665
61326SOL     OW85816   3.969  14.474   1.766
61326SOL    HW185817   4.016  14.394   1.743
61326SOL    HW285818   3.923  14.453   1.847
61327SOL     OW85819   3.961   7.384  10.071
61327SOL    HW185820   3.991   7.470  10.044
61327SOL    HW285821   4.033   7.325  10.049
61328SOL     OW85822   4.191  13.724   4.998
61328SOL    HW185823   4.143  13.644   4.976
61328SOL    HW285824   4.174  13.737   5.091
61329SOL     OW85825   4.789   3.683   8.122
61329SOL    HW185826   4.704   3.716   8.093
61329SOL    HW285827   4.784   3.588   8.111
61330SOL     OW85828   6.217   3.776   0.033
61330SOL    HW185829   6.150   3.832   0.072
61330SOL    HW285830   6.168   3.702  14.872
61331SOL     OW85831   1.957  14.036  14.505
61331SOL    HW185832   1.994  13.956  14.544
61331SOL    HW285833   2.017  14.105  14.533
61332SOL     OW85834   7.104   1.244  14.639
61332SOL    HW185835   7.153   1.197  14.571
61332SOL    HW285836   7.057   1.313  14.591
61333SOL     OW85837   4.307   0.077  11.637
61333SOL    HW185838   4.375   0.019  11.602
61333SOL    HW285839   4.274   0.124  11.560
61334SOL     OW85840  11.189  10.909  12.859
61334SOL    HW185841  11.195  11.004  12.872
61334SOL    HW285842  11.145  10.878  12.938
61335SOL     OW85843   1.251   4.220   3.581
61335SOL    HW185844   1.244   4.282   3.654
61335SOL    HW285845   1.172   4.234   3.530
61336SOL     OW85846   3.745   9.844   4.733
61336SOL    HW185847   3.754   9.835   4.828
61336SOL    HW285848   3.791   9.769   4.697
61337SOL     OW85849  11.314   3.503   8.356
61337SOL    HW185850  11.242   3.460   8.310
61337SOL    HW285851  11.297   3.597   8.345
61338SOL     OW85852  14.063   0.352  14.256
61338SOL    HW185853  14.040   0.347  14.349
61338SOL    HW285854  14.015   0.429  14.224
61339SOL     OW85855   8.996   8.223  10.490
61339SOL    HW185856   8.917   8.250  10.536
61339SOL    HW285857   9.068   8.263  10.540
61340SOL     OW85858   1.472   8.487   5.368
61340SOL    HW185859   1.565   8.504   5.350
61340SOL    HW285860   1.426   8.517   5.289
61341SOL     OW85861  11.083   3.642  12.741
61341SOL    HW185862  11.135   3.714  12.775
61341SOL    HW285863  11.113   3.630  12.651
61342SOL     OW85864   6.186   7.921   2.537
61342SOL    HW185865   6.091   7.923   2.550
61342SOL    HW285866   6.218   7.856   2.599
61343SOL     OW85867  11.576   5.072  11.657
61343SOL    HW185868  11.516   5.120  11.601
61343SOL    HW285869  11.651   5.131  11.668
61344SOL     OW85870   0.485   6.017   4.745
61344SOL    HW185871   0.527   5.970   4.673
61344SOL    HW285872   0.401   5.974   4.757
61345SOL     OW85873  12.509   1.033   3.182
61345SOL    HW185874  12.536   0.997   3.098
61345SOL    HW285875  12.591   1.055   3.226
61346SOL     OW85876   3.338   8.068   6.642
61346SOL    HW185877   3.273   8.121   6.596
61346SOL    HW285878   3.289   7.993   6.675
61347SOL     OW85879   5.781  14.823  14.533
61347SOL    HW185880   5.786  14.755  14.466
61347SOL    HW285881   5.869  14.859  14.538
61348SOL     OW85882   4.238   2.543   1.241
61348SOL    HW185883   4.316   2.598   1.235
61348SOL    HW285884   4.165   2.603   1.231
61349SOL     OW85885   0.630   7.162   9.816
61349SOL    HW185886   0.556   7.222   9.829
61349SOL    HW285887   0.628   7.142   9.722
61350SOL     OW85888   6.579  14.213   6.970
61350SOL    HW185889   6.600  14.120   6.981
61350SOL    HW285890   6.548  14.220   6.879
61351SOL     OW85891   0.740  11.676   1.609
61351SOL    HW185892   0.746  11.764   1.645
61351SOL    HW285893   0.703  11.688   1.522
61352SOL     OW85894   6.299   3.603  12.748
61352SOL    HW185895   6.303   3.524  12.801
61352SOL    HW285896   6.208   3.607  12.718
61353SOL     OW85897   1.104  13.212   2.057
61353SOL    HW185898   1.156  13.291   2.070
61353SOL    HW285899   1.055  13.229   1.976
61354SOL     OW85900   6.038  10.288   7.979
61354SOL    HW185901   6.077  10.230   8.044
61354SOL    HW285902   6.058  10.376   8.010
61355SOL     OW85903   2.888   9.049  11.730
61355SOL    HW185904   2.836   9.099  11.666
61355SOL    HW285905   2.956   9.110  11.759
61356SOL     OW85906   6.220   2.919  12.401
61356SOL    HW185907   6.290   2.960  12.352
61356SOL    HW285908   6.261   2.843  12.443
61357SOL     OW85909   2.771   4.134   5.327
61357SOL    HW185910   2.754   4.228   5.331
61357SOL    HW285911   2.731   4.106   5.244
61358SOL     OW85912   4.133   7.624   9.619
61358SOL    HW185913   4.082   7.546   9.598
61358SOL    HW285914   4.222   7.592   9.629
61359SOL     OW85915   2.931  13.663   3.960
61359SOL    HW185916   3.009  13.608   3.954
61359SOL    HW285917   2.872  13.614   4.018
61360SOL     OW85918   9.096   7.715   4.536
61360SOL    HW185919   9.120   7.722   4.628
61360SOL    HW285920   9.008   7.751   4.531
61361SOL     OW85921   4.276  14.026   9.985
61361SOL    HW185922   4.198  14.008   9.933
61361SOL    HW285923   4.244  14.076  10.060
61362SOL     OW85924   3.671  12.761  12.187
61362SOL    HW185925   3.609  12.799  12.125
61362SOL    HW285926   3.716  12.835  12.226
61363SOL     OW85927  12.395   7.238  13.196
61363SOL    HW185928  12.395   7.145  13.221
61363SOL    HW285929  12.480   7.251  13.154
61364SOL     OW85930  13.553   3.077  14.805
61364SOL    HW185931  13.622   3.024  14.765
61364SOL    HW285932  13.585   3.167  14.801
61365SOL     OW85933   3.151  13.640   2.677
61365SOL    HW185934   3.225  13.700   2.666
61365SOL    HW285935   3.165  13.571   2.612
61366SOL     OW85936   5.495   3.724   5.626
61366SOL    HW185937   5.544   3.725   5.709
61366SOL    HW285938   5.488   3.816   5.602
61367SOL     OW85939   2.537  10.569  10.933
61367SOL    HW185940   2.509  10.610  10.851
61367SOL    HW285941   2.541  10.475  10.912
61368SOL     OW85942  13.977   7.673   8.152
61368SOL    HW185943  14.054   7.720   8.183
61368SOL    HW285944  13.997   7.581   8.169
61369SOL     OW85945   1.176   1.900  14.386
61369SOL    HW185946   1.092   1.932  14.417
61369SOL    HW285947   1.194   1.950  14.307
61370SOL     OW85948   7.107   0.078  12.251
61370SOL    HW185949   7.134   0.050  12.339
61370SOL    HW285950   7.104  14.874  12.200
61371SOL     OW85951   3.762   0.316  10.938
61371SOL    HW185952   3.770   0.382  10.869
61371SOL    HW285953   3.695   0.351  10.997
61372SOL     OW85954   8.961  11.074   3.774
61372SOL    HW185955   8.960  11.073   3.678
61372SOL    HW285956   9.016  11.149   3.796
61373SOL     OW85957   1.080  12.620  11.011
61373SOL    HW185958   1.107  12.594  10.923
61373SOL    HW285959   1.153  12.594  11.067
61374SOL     OW85960  10.813   1.176  14.386
61374SOL    HW185961  10.759   1.252  14.406
61374SOL    HW285962  10.793   1.113  14.456
61375SOL     OW85963   7.579   6.668  14.277
61375SOL    HW185964   7.653   6.626  14.321
61375SOL    HW285965   7.509   6.603  14.284
61376SOL     OW85966  11.329  10.867  11.707
61376SOL    HW185967  11.322  10.772  11.721
61376SOL    HW285968  11.305  10.879  11.615
61377SOL     OW85969  12.970   8.965  14.004
61377SOL    HW185970  13.036   8.896  14.001
61377SOL    HW285971  13.003   9.033  13.945
61378SOL     OW85972   3.858  11.083   3.081
61378SOL    HW185973   3.925  11.040   3.028
61378SOL    HW285974   3.848  11.026   3.157
61379SOL     OW85975   3.387  10.189   7.368
61379SOL    HW185976   3.342  10.271   7.388
61379SOL    HW285977   3.456  10.213   7.307
61380SOL     OW85978   4.995   2.709  10.721
61380SOL    HW185979   5.027   2.722  10.810
61380SOL    HW285980   4.974   2.797  10.690
61381SOL     OW85981   6.632   7.514   5.481
61381SOL    HW185982   6.613   7.469   5.563
61381SOL    HW285983   6.728   7.513   5.475
61382SOL     OW85984  13.735   6.565   5.943
61382SOL    HW185985  13.818   6.590   5.902
61382SOL    HW285986  13.705   6.489   5.893
61383SOL     OW85987   6.277  13.595  10.076
61383SOL    HW185988   6.341  13.640  10.022
61383SOL    HW285989   6.225  13.666  10.115
61384SOL     OW85990   7.709   6.168   2.532
61384SOL    HW185991   7.632   6.225   2.534
61384SOL    HW285992   7.715   6.133   2.621
61385SOL     OW85993   6.450   9.580  10.229
61385SOL    HW185994   6.474   9.516  10.296
61385SOL    HW285995   6.436   9.529  10.150
61386SOL     OW85996   5.096   3.192   9.128
61386SOL    HW185997   5.157   3.120   9.147
61386SOL    HW285998   5.017   3.170   9.179
61387SOL     OW85999   2.642   5.708   2.574
61387SOL    HW186000   2.553   5.681   2.595
61387SOL    HW286001   2.671   5.757   2.652
61388SOL     OW86002   5.775   1.344   5.530
61388SOL    HW186003   5.767   1.434   5.500
61388SOL    HW286004   5.711   1.296   5.476
61389SOL     OW86005   9.881   1.257   6.546
61389SOL    HW186006   9.789   1.229   6.547
61389SOL    HW286007   9.919   1.218   6.625
61390SOL     OW86008   5.582   5.537  10.792
61390SOL    HW186009   5.495   5.577  10.789
61390SOL    HW286010   5.579   5.468  10.726
61391SOL     OW86011   1.376   5.567  10.150
61391SOL    HW186012   1.318   5.584  10.224
61391SOL    HW286013   1.387   5.472  10.148
61392SOL     OW86014   3.948   2.779   6.425
61392SOL    HW186015   4.011   2.832   6.376
61392SOL    HW286016   3.922   2.833   6.499
61393SOL     OW86017  11.001  11.112  13.946
61393SOL    HW186018  11.065  11.047  13.976
61393SOL    HW286019  10.961  11.145  14.027
61394SOL     OW86020   0.765   3.287   5.470
61394SOL    HW186021   0.670   3.298   5.470
61394SOL    HW286022   0.778   3.198   5.436
61395SOL     OW86023   6.416   8.012   4.335
61395SOL    HW186024   6.452   8.031   4.249
61395SOL    HW286025   6.393   8.097   4.372
61396SOL     OW86026   9.922  10.675  11.415
61396SOL    HW186027   9.889  10.677  11.504
61396SOL    HW286028   9.848  10.702  11.361
61397SOL     OW86029   4.777   5.778   1.775
61397SOL    HW186030   4.771   5.821   1.689
61397SOL    HW286031   4.711   5.822   1.828
61398SOL     OW86032   9.797   8.524   3.151
61398SOL    HW186033   9.702   8.511   3.146
61398SOL    HW286034   9.827   8.517   3.061
61399SOL     OW86035   5.021   6.347   9.495
61399SOL    HW186036   5.086   6.295   9.448
61399SOL    HW286037   4.953   6.284   9.518
61400SOL     OW86038   6.334   8.686   7.725
61400SOL    HW186039   6.428   8.669   7.726
61400SOL    HW286040   6.294   8.599   7.735
61401SOL     OW86041   2.096   3.396  10.663
61401SOL    HW186042   2.085   3.366  10.573
61401SOL    HW286043   2.178   3.355  10.692
61402SOL     OW86044  13.610   8.895  14.220
61402SOL    HW186045  13.548   8.962  14.248
61402SOL    HW286046  13.554   8.824  14.187
61403SOL     OW86047   5.061   9.686   9.298
61403SOL    HW186048   5.149   9.660   9.325
61403SOL    HW286049   5.075   9.753   9.231
61404SOL     OW86050   1.554  13.339   3.705
61404SOL    HW186051   1.641  13.335   3.745
61404SOL    HW286052   1.532  13.432   3.704
61405SOL     OW86053   3.375  12.410   2.632
61405SOL    HW186054   3.466  12.428   2.658
61405SOL    HW286055   3.350  12.334   2.684
61406SOL     OW86056   8.465   5.103   7.967
61406SOL    HW186057   8.477   5.139   7.880
61406SOL    HW286058   8.406   5.028   7.955
61407SOL     OW86059   1.284   6.888   7.129
61407SOL    HW186060   1.271   6.837   7.208
61407SOL    HW286061   1.224   6.962   7.137
61408SOL     OW86062   2.955  12.930   0.835
61408SOL    HW186063   2.933  12.941   0.927
61408SOL    HW286064   2.894  12.987   0.788
61409SOL     OW86065  14.386  11.435  11.220
61409SOL    HW186066  14.309  11.389  11.253
61409SOL    HW286067  14.434  11.369  11.171
61410SOL     OW86068   5.843  12.572   9.869
61410SOL    HW186069   5.878  12.640   9.811
61410SOL    HW286070   5.917  12.547   9.924
61411SOL     OW86071   9.286   4.459   1.957
61411SOL    HW186072   9.214   4.417   1.910
61411SOL    HW286073   9.341   4.496   1.889
61412SOL     OW86074   7.981   9.918   1.958
61412SOL    HW186075   8.067   9.953   1.933
61412SOL    HW286076   7.967   9.951   2.047
61413SOL     OW86077  14.107  10.595  14.871
61413SOL    HW186078  14.016  10.612   0.021
61413SOL    HW286079  14.154  10.676   0.014
61414SOL     OW86080   7.336   0.055   1.431
61414SOL    HW186081   7.304   0.081   1.345
61414SOL    HW286082   7.395   0.125   1.458
61415SOL     OW86083   8.005  14.235   7.887
61415SOL    HW186084   8.021  14.329   7.892
61415SOL    HW286085   8.074  14.201   7.830
61416SOL     OW86086   3.059   7.999  12.092
61416SOL    HW186087   3.011   7.980  12.011
61416SOL    HW286088   3.054   8.094  12.102
61417SOL     OW86089   1.709   1.247   9.587
61417SOL    HW186090   1.785   1.301   9.565
61417SOL    HW286091   1.667   1.293   9.660
61418SOL     OW86092  11.323   0.578   7.846
61418SOL    HW186093  11.236   0.610   7.867
61418SOL    HW286094  11.328   0.492   7.889
61419SOL     OW86095   6.043   0.073   0.435
61419SOL    HW186096   5.977   0.026   0.486
61419SOL    HW286097   6.108   0.102   0.499
61420SOL     OW86098   3.721  13.337   0.862
61420SOL    HW186099   3.715  13.336   0.766
61420SOL    HW286100   3.766  13.255   0.884
61421SOL     OW86101  11.788  13.853  13.744
61421SOL    HW186102  11.809  13.901  13.664
61421SOL    HW286103  11.800  13.917  13.814
61422SOL     OW86104   9.893   4.546   5.901
61422SOL    HW186105   9.902   4.626   5.850
61422SOL    HW286106   9.951   4.558   5.976
61423SOL     OW86107   5.317   4.778  12.543
61423SOL    HW186108   5.353   4.848  12.491
61423SOL    HW286109   5.278   4.822  12.619
61424SOL     OW86110  10.301   8.871  11.087
61424SOL    HW186111  10.376   8.913  11.045
61424SOL    HW286112  10.317   8.883  11.181
61425SOL     OW86113   5.381   0.737  10.610
61425SOL    HW186114   5.289   0.752  10.586
61425SOL    HW286115   5.389   0.773  10.698
61426SOL     OW86116   0.309   7.000  13.890
61426SOL    HW186117   0.262   7.083  13.905
61426SOL    HW286118   0.310   6.958  13.976
61427SOL     OW86119   2.728   0.417   6.493
61427SOL    HW186120   2.650   0.457   6.531
61427SOL    HW286121   2.696   0.339   6.447
61428SOL     OW86122  11.374   4.673  13.824
61428SOL    HW186123  11.343   4.763  13.808
61428SOL    HW286124  11.321   4.619  13.765
61429SOL     OW86125   9.019   3.434   0.027
61429SOL    HW186126   9.053   3.413  14.816
61429SOL    HW286127   8.979   3.520   0.018
61430SOL     OW86128  13.252   2.410   4.411
61430SOL    HW186129  13.327   2.453   4.451
61430SOL    HW286130  13.227   2.342   4.474
61431SOL     OW86131   5.014   0.117   6.052
61431SOL    HW186132   5.053   0.067   6.124
61431SOL    HW286133   5.048   0.206   6.064
61432SOL     OW86134   8.316   0.604  10.539
61432SOL    HW186135   8.407   0.580  10.555
61432SOL    HW286136   8.300   0.679  10.595
61433SOL     OW86137  11.506   5.453   8.930
61433SOL    HW186138  11.450   5.531   8.936
61433SOL    HW286139  11.575   5.469   8.994
61434SOL     OW86140   6.622   2.371   4.413
61434SOL    HW186141   6.546   2.420   4.382
61434SOL    HW286142   6.688   2.384   4.344
61435SOL     OW86143   5.370   3.194   8.511
61435SOL    HW186144   5.394   3.105   8.483
61435SOL    HW286145   5.453   3.237   8.529
61436SOL     OW86146   7.935   5.888  11.582
61436SOL    HW186147   7.978   5.873  11.497
61436SOL    HW286148   7.911   5.800  11.612
61437SOL     OW86149   7.985   0.618   3.014
61437SOL    HW186150   7.910   0.648   3.065
61437SOL    HW286151   7.946   0.587   2.931
61438SOL     OW86152  10.625   9.270  10.803
61438SOL    HW186153  10.571   9.235  10.731
61438SOL    HW286154  10.621   9.365  10.791
61439SOL     OW86155  11.363  13.089   1.129
61439SOL    HW186156  11.441  13.121   1.084
61439SOL    HW286157  11.292  13.143   1.093
61440SOL     OW86158   1.101   7.445   5.076
61440SOL    HW186159   1.045   7.410   5.007
61440SOL    HW286160   1.088   7.387   5.150
61441SOL     OW86161   6.370  10.519   4.327
61441SOL    HW186162   6.348  10.492   4.416
61441SOL    HW286163   6.464  10.502   4.319
61442SOL     OW86164   5.312  12.853   5.892
61442SOL    HW186165   5.291  12.781   5.952
61442SOL    HW286166   5.297  12.816   5.805
61443SOL     OW86167   8.510   4.675   0.103
61443SOL    HW186168   8.455   4.749   0.076
61443SOL    HW286169   8.472   4.599   0.059
61444SOL     OW86170  10.664   5.983   6.626
61444SOL    HW186171  10.691   5.943   6.709
61444SOL    HW286172  10.620   6.064   6.652
61445SOL     OW86173  12.012  13.094  14.618
61445SOL    HW186174  12.019  13.003  14.589
61445SOL    HW286175  12.103  13.123  14.626
61446SOL     OW86176  12.829  13.522   2.705
61446SOL    HW186177  12.781  13.604   2.715
61446SOL    HW286178  12.762  13.457   2.682
61447SOL     OW86179   6.279   8.902   0.322
61447SOL    HW186180   6.328   8.920   0.402
61447SOL    HW286181   6.336   8.845   0.271
61448SOL     OW86182  11.350  10.408   7.750
61448SOL    HW186183  11.433  10.438   7.786
61448SOL    HW286184  11.284  10.442   7.810
61449SOL     OW86185   7.469   5.975  13.068
61449SOL    HW186186   7.441   6.066  13.059
61449SOL    HW286187   7.445   5.951  13.157
61450SOL     OW86188   1.490   8.125   7.343
61450SOL    HW186189   1.405   8.169   7.334
61450SOL    HW286190   1.553   8.188   7.309
61451SOL     OW86191  12.191  14.208  10.239
61451SOL    HW186192  12.281  14.186  10.262
61451SOL    HW286193  12.138  14.139  10.279
61452SOL     OW86194   6.998   7.035   2.020
61452SOL    HW186195   7.005   7.066   1.930
61452SOL    HW286196   7.003   7.114   2.073
61453SOL     OW86197  12.341  13.438   0.762
61453SOL    HW186198  12.270  13.377   0.743
61453SOL    HW286199  12.323  13.514   0.708
61454SOL     OW86200  11.442  13.642  10.499
61454SOL    HW186201  11.366  13.586  10.514
61454SOL    HW286202  11.512  13.581  10.475
61455SOL     OW86203   4.279  13.994   3.677
61455SOL    HW186204   4.289  14.023   3.767
61455SOL    HW286205   4.186  14.008   3.658
61456SOL     OW86206   9.429   8.661  13.567
61456SOL    HW186207   9.507   8.714  13.552
61456SOL    HW286208   9.458   8.592  13.626
61457SOL     OW86209   0.164   8.674  10.299
61457SOL    HW186210   0.156   8.659  10.394
61457SOL    HW286211   0.093   8.623  10.261
61458SOL     OW86212   9.806  13.067  10.492
61458SOL    HW186213   9.793  13.108  10.406
61458SOL    HW286214   9.844  12.981  10.472
61459SOL     OW86215  10.434  11.184   4.128
61459SOL    HW186216  10.370  11.174   4.057
61459SOL    HW286217  10.390  11.147   4.205
61460SOL     OW86218   1.739   0.400   9.298
61460SOL    HW186219   1.731   0.403   9.393
61460SOL    HW286220   1.709   0.313   9.274
61461SOL     OW86221   7.528   2.324   6.429
61461SOL    HW186222   7.582   2.312   6.351
61461SOL    HW286223   7.591   2.340   6.500
61462SOL     OW86224   3.065   4.143   0.682
61462SOL    HW186225   3.076   4.142   0.587
61462SOL    HW286226   3.152   4.168   0.715
61463SOL     OW86227   4.872  10.528   5.953
61463SOL    HW186228   4.864  10.583   6.031
61463SOL    HW286229   4.840  10.442   5.981
61464SOL     OW86230   3.621   5.810  11.421
61464SOL    HW186231   3.644   5.896  11.384
61464SOL    HW286232   3.700   5.780  11.465
61465SOL     OW86233  11.057   7.555  11.033
61465SOL    HW186234  11.073   7.549  11.127
61465SOL    HW286235  11.013   7.473  11.011
61466SOL     OW86236  12.233   4.940   9.495
61466SOL    HW186237  12.312   4.946   9.441
61466SOL    HW286238  12.176   5.009   9.462
61467SOL     OW86239   4.382  14.008   8.592
61467SOL    HW186240   4.338  14.004   8.677
61467SOL    HW286241   4.460  13.953   8.603
61468SOL     OW86242  10.064   4.209   4.536
61468SOL    HW186243  10.079   4.117   4.517
61468SOL    HW286244  10.137   4.255   4.494
61469SOL     OW86245   9.592  11.111   2.029
61469SOL    HW186246   9.665  11.123   1.969
61469SOL    HW286247   9.576  11.198   2.066
61470SOL     OW86248   7.418   0.129   3.212
61470SOL    HW186249   7.351   0.061   3.219
61470SOL    HW286250   7.501   0.082   3.220
61471SOL     OW86251   2.794   2.326  13.476
61471SOL    HW186252   2.717   2.327  13.420
61471SOL    HW286253   2.779   2.254  13.537
61472SOL     OW86254  14.868   4.604   5.625
61472SOL    HW186255  14.791   4.658   5.644
61472SOL    HW286256  14.833   4.522   5.593
61473SOL     OW86257   2.836   9.646   2.931
61473SOL    HW186258   2.926   9.668   2.953
61473SOL    HW286259   2.788   9.728   2.940
61474SOL     OW86260   3.403   7.490   0.336
61474SOL    HW186261   3.373   7.402   0.313
61474SOL    HW286262   3.378   7.502   0.427
61475SOL     OW86263   5.821  14.324   6.094
61475SOL    HW186264   5.842  14.393   6.158
61475SOL    HW286265   5.731  14.299   6.114
61476SOL     OW86266   0.310   7.309  11.738
61476SOL    HW186267   0.326   7.294  11.645
61476SOL    HW286268   0.329   7.224  11.779
61477SOL     OW86269   1.707  14.177   8.559
61477SOL    HW186270   1.764  14.252   8.542
61477SOL    HW286271   1.737  14.144   8.644
61478SOL     OW86272   4.988   0.468   8.279
61478SOL    HW186273   4.927   0.396   8.295
61478SOL    HW286274   5.072   0.435   8.308
61479SOL     OW86275   9.983   4.475   3.197
61479SOL    HW186276   9.992   4.467   3.292
61479SOL    HW286277   9.899   4.518   3.183
61480SOL     OW86278  10.552  12.370  14.478
61480SOL    HW186279  10.597  12.388  14.561
61480SOL    HW286280  10.586  12.285  14.450
61481SOL     OW86281  10.788   0.752   7.115
61481SOL    HW186282  10.769   0.665   7.080
61481SOL    HW286283  10.861   0.738   7.175
61482SOL     OW86284   8.229   0.360   3.967
61482SOL    HW186285   8.185   0.391   3.888
61482SOL    HW286286   8.235   0.437   4.024
61483SOL     OW86287   9.749   8.922  12.782
61483SOL    HW186288   9.673   8.934  12.840
61483SOL    HW286289   9.795   8.846  12.817
61484SOL     OW86290   6.828  10.854  14.494
61484SOL    HW186291   6.920  10.828  14.496
61484SOL    HW286292   6.806  10.858  14.401
61485SOL     OW86293  11.488  10.345   4.295
61485SOL    HW186294  11.394  10.355   4.286
61485SOL    HW286295  11.508  10.376   4.383
61486SOL     OW86296  11.354   3.129   2.222
61486SOL    HW186297  11.369   3.173   2.306
61486SOL    HW286298  11.341   3.037   2.245
61487SOL     OW86299  14.097   4.966  12.093
61487SOL    HW186300  14.089   4.953  11.998
61487SOL    HW286301  14.158   4.899  12.122
61488SOL     OW86302   6.602  10.097   3.939
61488SOL    HW186303   6.517  10.069   3.975
61488SOL    HW286304   6.634  10.021   3.892
61489SOL     OW86305  12.189   8.250   9.774
61489SOL    HW186306  12.204   8.248   9.679
61489SOL    HW286307  12.117   8.188   9.788
61490SOL     OW86308   2.238   2.475  11.800
61490SOL    HW186309   2.172   2.529  11.757
61490SOL    HW286310   2.304   2.537  11.830
61491SOL     OW86311   5.710  11.828   5.334
61491SOL    HW186312   5.710  11.733   5.323
61491SOL    HW286313   5.691  11.841   5.427
61492SOL     OW86314   6.031   7.158   6.792
61492SOL    HW186315   6.089   7.085   6.810
61492SOL    HW286316   6.023   7.159   6.697
61493SOL     OW86317   8.865   7.399   9.569
61493SOL    HW186318   8.879   7.326   9.508
61493SOL    HW286319   8.900   7.368   9.652
61494SOL     OW86320  12.306   0.241  11.799
61494SOL    HW186321  12.395   0.247  11.764
61494SOL    HW286322  12.312   0.175  11.868
61495SOL     OW86323  14.542  13.552   3.803
61495SOL    HW186324  14.576  13.632   3.763
61495SOL    HW286325  14.465  13.581   3.852
61496SOL     OW86326   6.096   0.808  12.599
61496SOL    HW186327   6.020   0.830  12.652
61496SOL    HW286328   6.164   0.868  12.629
61497SOL     OW86329  10.512  10.083   3.330
61497SOL    HW186330  10.422  10.050   3.335
61497SOL    HW286331  10.563  10.011   3.293
61498SOL     OW86332  13.513   1.778   2.817
61498SOL    HW186333  13.461   1.699   2.834
61498SOL    HW286334  13.505   1.830   2.897
61499SOL     OW86335   3.254  14.806   8.390
61499SOL    HW186336   3.298  14.730   8.354
61499SOL    HW286337   3.256  14.871   8.320
61500SOL     OW86338   5.475   7.663   5.382
61500SOL    HW186339   5.435   7.593   5.329
61500SOL    HW286340   5.514   7.722   5.317
61501SOL     OW86341   8.716   7.806   2.675
61501SOL    HW186342   8.716   7.824   2.581
61501SOL    HW286343   8.753   7.719   2.683
61502SOL     OW86344   2.140   9.942  12.526
61502SOL    HW186345   2.083  10.013  12.556
61502SOL    HW286346   2.085   9.889  12.470
61503SOL     OW86347   1.526  10.435   8.386
61503SOL    HW186348   1.516  10.349   8.345
61503SOL    HW286349   1.437  10.471   8.388
61504SOL     OW86350   9.406  11.536  10.145
61504SOL    HW186351   9.463  11.464  10.118
61504SOL    HW286352   9.428  11.607  10.084
61505SOL     OW86353   2.898   8.402   8.411
61505SOL    HW186354   2.870   8.431   8.498
61505SOL    HW286355   2.958   8.329   8.429
61506SOL     OW86356  12.936   4.826  11.163
61506SOL    HW186357  12.938   4.871  11.247
61506SOL    HW286358  12.995   4.751  11.173
61507SOL     OW86359   7.666   3.345   3.125
61507SOL    HW186360   7.723   3.393   3.185
61507SOL    HW286361   7.725   3.292   3.072
61508SOL     OW86362   6.941  13.010   3.395
61508SOL    HW186363   6.970  12.976   3.480
61508SOL    HW286364   6.993  13.090   3.382
61509SOL     OW86365   3.363   9.693   2.207
61509SOL    HW186366   3.331   9.605   2.228
61509SOL    HW286367   3.408   9.683   2.124
61510SOL     OW86368   7.226  12.849   8.118
61510SOL    HW186369   7.213  12.822   8.027
61510SOL    HW286370   7.178  12.785   8.170
61511SOL     OW86371  13.352   6.444   9.519
61511SOL    HW186372  13.283   6.382   9.542
61511SOL    HW286373  13.346   6.513   9.585
61512SOL     OW86374   0.514   8.740  14.623
61512SOL    HW186375   0.548   8.682  14.555
61512SOL    HW286376   0.591   8.773  14.669
61513SOL     OW86377   5.188  11.089   8.502
61513SOL    HW186378   5.246  11.054   8.570
61513SOL    HW286379   5.234  11.165   8.468
61514SOL     OW86380   8.198  12.544   6.641
61514SOL    HW186381   8.278  12.520   6.594
61514SOL    HW286382   8.159  12.460   6.665
61515SOL     OW86383   1.630   7.311   8.617
61515SOL    HW186384   1.621   7.329   8.523
61515SOL    HW286385   1.547   7.271   8.642
61516SOL     OW86386   7.779  12.952  14.117
61516SOL    HW186387   7.695  12.908  14.126
61516SOL    HW286388   7.760  13.044  14.137
61517SOL     OW86389  12.407   0.972   7.416
61517SOL    HW186390  12.469   0.908   7.381
61517SOL    HW286391  12.343   0.985   7.346
61518SOL     OW86392   9.389   8.924   5.058
61518SOL    HW186393   9.331   8.964   4.993
61518SOL    HW286394   9.449   8.870   5.007
61519SOL     OW86395  13.508   1.306  11.557
61519SOL    HW186396  13.447   1.258  11.612
61519SOL    HW286397  13.549   1.240  11.503
61520SOL     OW86398   2.169   0.601   5.413
61520SOL    HW186399   2.157   0.510   5.441
61520SOL    HW286400   2.087   0.644   5.434
61521SOL     OW86401   8.855   4.317   3.937
61521SOL    HW186402   8.873   4.233   3.980
61521SOL    HW286403   8.762   4.314   3.917
61522SOL     OW86404  14.547   4.737   1.081
61522SOL    HW186405  14.512   4.759   1.167
61522SOL    HW286406  14.598   4.657   1.096
61523SOL     OW86407   5.725   6.335  11.657
61523SOL    HW186408   5.774   6.334  11.575
61523SOL    HW286409   5.657   6.401  11.644
61524SOL     OW86410   4.496  10.085  12.859
61524SOL    HW186411   4.576  10.043  12.827
61524SOL    HW286412   4.437  10.013  12.880
61525SOL     OW86413  12.824  13.134   1.124
61525SOL    HW186414  12.902  13.136   1.069
61525SOL    HW286415  12.753  13.106   1.066
61526SOL     OW86416  11.675  14.293   5.383
61526SOL    HW186417  11.583  14.313   5.402
61526SOL    HW286418  11.674  14.205   5.347
61527SOL     OW86419   8.983  11.630   1.364
61527SOL    HW186420   9.025  11.554   1.403
61527SOL    HW286421   8.908  11.648   1.420
61528SOL     OW86422  10.746  13.082  12.444
61528SOL    HW186423  10.691  13.005  12.432
61528SOL    HW286424  10.819  13.069  12.383
61529SOL     OW86425   8.964  14.598  13.635
61529SOL    HW186426   8.966  14.505  13.655
61529SOL    HW286427   8.893  14.633  13.689
61530SOL     OW86428   0.930  12.131   0.820
61530SOL    HW186429   1.003  12.070   0.810
61530SOL    HW286430   0.958  12.190   0.890
61531SOL     OW86431   0.459   6.623   1.872
61531SOL    HW186432   0.469   6.712   1.905
61531SOL    HW286433   0.519   6.570   1.925
61532SOL     OW86434   0.199   7.608   8.080
61532SOL    HW186435   0.128   7.612   8.016
61532SOL    HW286436   0.155   7.596   8.164
61533SOL     OW86437  13.299   2.027  13.190
61533SOL    HW186438  13.208   2.002  13.180
61533SOL    HW286439  13.339   1.956  13.241
61534SOL     OW86440   5.363   9.785   1.664
61534SOL    HW186441   5.428   9.750   1.726
61534SOL    HW286442   5.390   9.751   1.579
61535SOL     OW86443   0.041   1.856   7.672
61535SOL    HW186444   0.041   1.849   7.767
61535SOL    HW286445   0.079   1.943   7.655
61536SOL     OW86446  13.084   2.921   8.168
61536SOL    HW186447  13.001   2.932   8.214
61536SOL    HW286448  13.133   3.002   8.186
61537SOL     OW86449   1.492   0.966   5.446
61537SOL    HW186450   1.553   0.996   5.378
61537SOL    HW286451   1.548   0.926   5.512
61538SOL     OW86452  14.546   9.544  11.336
61538SOL    HW186453  14.504   9.629  11.322
61538SOL    HW286454  14.595   9.556  11.417
61539SOL     OW86455   4.663  11.088   9.179
61539SOL    HW186456   4.576  11.109   9.144
61539SOL    HW286457   4.646  11.051   9.265
61540SOL     OW86458   7.361  11.761   2.437
61540SOL    HW186459   7.425  11.739   2.504
61540SOL    HW286460   7.276  11.737   2.476
61541SOL     OW86461  13.120   9.265   1.050
61541SOL    HW186462  13.149   9.208   0.978
61541SOL    HW286463  13.200   9.291   1.094
61542SOL     OW86464   7.131   9.386   2.328
61542SOL    HW186465   7.149   9.411   2.237
61542SOL    HW286466   7.106   9.468   2.371
61543SOL     OW86467  10.792   0.797   2.863
61543SOL    HW186468  10.810   0.830   2.775
61543SOL    HW286469  10.878   0.770   2.896
61544SOL     OW86470   6.339  11.775   4.564
61544SOL    HW186471   6.259  11.794   4.514
61544SOL    HW286472   6.334  11.682   4.584
61545SOL     OW86473   5.227  11.372   6.233
61545SOL    HW186474   5.189  11.342   6.150
61545SOL    HW286475   5.172  11.332   6.300
61546SOL     OW86476   0.809  11.632   4.660
61546SOL    HW186477   0.830  11.544   4.690
61546SOL    HW286478   0.784  11.622   4.568
61547SOL     OW86479  11.657  12.973  14.414
61547SOL    HW186480  11.741  12.987  14.371
61547SOL    HW286481  11.592  13.009  14.352
61548SOL     OW86482  14.823   6.158   7.219
61548SOL    HW186483  14.853   6.103   7.146
61548SOL    HW286484   0.027   6.179   7.267
61549SOL     OW86485   6.638  14.084   9.647
61549SOL    HW186486   6.575  14.099   9.577
61549SOL    HW286487   6.707  14.149   9.632
61550SOL     OW86488   0.158   5.885  13.849
61550SOL    HW186489   0.148   5.885  13.754
61550SOL    HW286490   0.069   5.893  13.883
61551SOL     OW86491  10.884  14.276  10.951
61551SOL    HW186492  10.972  14.256  10.983
61551SOL    HW286493  10.898  14.309  10.862
61552SOL     OW86494   5.814   0.997  12.950
61552SOL    HW186495   5.845   1.031  13.034
61552SOL    HW286496   5.822   1.070  12.889
61553SOL     OW86497   7.921   8.822  12.522
61553SOL    HW186498   7.826   8.834  12.510
61553SOL    HW286499   7.934   8.728  12.513
61554SOL     OW86500   6.821   9.317   7.922
61554SOL    HW186501   6.865   9.273   7.849
61554SOL    HW286502   6.842   9.264   7.998
61555SOL     OW86503   4.234   7.584   1.245
61555SOL    HW186504   4.200   7.574   1.333
61555SOL    HW286505   4.201   7.669   1.215
61556SOL     OW86506   9.817   9.947   1.228
61556SOL    HW186507   9.823   9.895   1.148
61556SOL    HW286508   9.904   9.982   1.241
61557SOL     OW86509   2.402   8.535   4.102
61557SOL    HW186510   2.457   8.501   4.172
61557SOL    HW286511   2.316   8.548   4.143
61558SOL     OW86512  13.104   7.670   3.503
61558SOL    HW186513  13.171   7.601   3.496
61558SOL    HW286514  13.028   7.635   3.458
61559SOL     OW86515  10.245   8.528   9.347
61559SOL    HW186516  10.261   8.500   9.437
61559SOL    HW286517  10.196   8.610   9.356
61560SOL     OW86518   4.692  12.018  13.563
61560SOL    HW186519   4.707  12.087  13.499
61560SOL    HW286520   4.608  12.039  13.603
61561SOL     OW86521   5.766  14.016  10.170
61561SOL    HW186522   5.828  14.083  10.200
61561SOL    HW286523   5.714  13.995  10.248
61562SOL     OW86524   5.559  14.025   7.683
61562SOL    HW186525   5.613  14.030   7.605
61562SOL    HW286526   5.621  14.014   7.755
61563SOL     OW86527   0.225  10.497   2.832
61563SOL    HW186528   0.266  10.412   2.819
61563SOL    HW286529   0.297  10.556   2.855
61564SOL     OW86530   7.750   6.191   9.787
61564SOL    HW186531   7.746   6.102   9.824
61564SOL    HW286532   7.770   6.177   9.694
61565SOL     OW86533  13.259   3.320   7.351
61565SOL    HW186534  13.338   3.333   7.404
61565SOL    HW286535  13.285   3.342   7.262
61566SOL     OW86536   2.257   5.580  13.782
61566SOL    HW186537   2.306   5.587  13.864
61566SOL    HW286538   2.317   5.535  13.722
61567SOL     OW86539  12.851   3.572   0.668
61567SOL    HW186540  12.917   3.637   0.693
61567SOL    HW286541  12.787   3.621   0.616
61568SOL     OW86542  14.366  11.329   1.587
61568SOL    HW186543  14.394  11.274   1.660
61568SOL    HW286544  14.445  11.339   1.533
61569SOL     OW86545   8.067   0.890  14.544
61569SOL    HW186546   8.069   0.901  14.639
61569SOL    HW286547   7.974   0.886  14.522
61570SOL     OW86548   0.181  12.974   6.540
61570SOL    HW186549   0.270  12.988   6.573
61570SOL    HW286550   0.171  13.037   6.469
61571SOL     OW86551   7.939  10.179  11.261
61571SOL    HW186552   7.860  10.228  11.284
61571SOL    HW286553   7.958  10.126  11.338
61572SOL     OW86554  10.372   4.284  14.754
61572SOL    HW186555  10.382   4.304  14.661
61572SOL    HW286556  10.280   4.301  14.773
61573SOL     OW86557  11.737   1.023   5.595
61573SOL    HW186558  11.669   1.084   5.567
61573SOL    HW286559  11.726   0.947   5.538
61574SOL     OW86560   9.367   5.006  13.218
61574SOL    HW186561   9.354   5.082  13.275
61574SOL    HW286562   9.422   5.039  13.147
61575SOL     OW86563   6.688  11.330  11.272
61575SOL    HW186564   6.625  11.356  11.340
61575SOL    HW286565   6.646  11.355  11.190
61576SOL     OW86566  14.809   9.197  10.819
61576SOL    HW186567  14.864   9.231  10.889
61576SOL    HW286568  14.858   9.214  10.739
61577SOL     OW86569   7.142  11.909   7.305
61577SOL    HW186570   7.069  11.971   7.294
61577SOL    HW286571   7.101  11.823   7.300
61578SOL     OW86572   2.112   8.039  13.319
61578SOL    HW186573   2.076   7.966  13.269
61578SOL    HW286574   2.109   8.113  13.259
61579SOL     OW86575   6.210  10.493   0.116
61579SOL    HW186576   6.125  10.452   0.135
61579SOL    HW286577   6.189  10.561   0.052
61580SOL     OW86578  12.018   6.633  12.133
61580SOL    HW186579  12.026   6.722  12.169
61580SOL    HW286580  12.060   6.577  12.199
61581SOL     OW86581  12.790   3.380  14.481
61581SOL    HW186582  12.792   3.341  14.569
61581SOL    HW286583  12.857   3.448  14.484
61582SOL     OW86584  10.867   1.249   6.018
61582SOL    HW186585  10.877   1.308   5.943
61582SOL    HW286586  10.954   1.247   6.058
61583SOL     OW86587   9.518   2.744   6.818
61583SOL    HW186588   9.571   2.780   6.746
61583SOL    HW286589   9.431   2.782   6.805
61584SOL     OW86590   8.601   2.390  12.377
61584SOL    HW186591   8.536   2.347  12.434
61584SOL    HW286592   8.635   2.319  12.323
61585SOL     OW86593   8.954  12.817   1.219
61585SOL    HW186594   8.900  12.769   1.156
61585SOL    HW286595   8.898  12.889   1.249
61586SOL     OW86596  13.419  13.632   9.927
61586SOL    HW186597  13.380  13.599   9.846
61586SOL    HW286598  13.373  13.585   9.996
61587SOL     OW86599   5.466  14.419   2.082
61587SOL    HW186600   5.376  14.407   2.051
61587SOL    HW286601   5.483  14.342   2.137
61588SOL     OW86602   7.611   1.014  13.100
61588SOL    HW186603   7.534   1.052  13.057
61588SOL    HW286604   7.684   1.035  13.041
61589SOL     OW86605  13.365   3.605  10.233
61589SOL    HW186606  13.445   3.637  10.274
61589SOL    HW286607  13.297   3.619  10.300
61590SOL     OW86608   1.157  10.766   9.114
61590SOL    HW186609   1.126  10.689   9.161
61590SOL    HW286610   1.173  10.735   9.025
61591SOL     OW86611   5.356  12.214  10.559
61591SOL    HW186612   5.261  12.224  10.555
61591SOL    HW286613   5.391  12.296  10.524
61592SOL     OW86614  12.443  14.870   3.545
61592SOL    HW186615  12.527  14.823   3.544
61592SOL    HW286616  12.390  14.822   3.609
61593SOL     OW86617   2.961   9.415   0.726
61593SOL    HW186618   3.027   9.360   0.683
61593SOL    HW286619   2.959   9.384   0.816
61594SOL     OW86620  12.723   5.422   0.449
61594SOL    HW186621  12.710   5.445   0.357
61594SOL    HW286622  12.639   5.386   0.477
61595SOL     OW86623  14.132   7.664   4.654
61595SOL    HW186624  14.092   7.585   4.618
61595SOL    HW286625  14.193   7.693   4.587
61596SOL     OW86626  12.160  12.806   7.622
61596SOL    HW186627  12.230  12.754   7.583
61596SOL    HW286628  12.086  12.746   7.626
61597SOL     OW86629   8.084   2.671  12.734
61597SOL    HW186630   8.168   2.706  12.764
61597SOL    HW286631   8.059   2.608  12.803
61598SOL     OW86632   9.848   0.417   3.511
61598SOL    HW186633   9.804   0.337   3.539
61598SOL    HW286634   9.930   0.387   3.472
61599SOL     OW86635   0.761   4.544   8.778
61599SOL    HW186636   0.786   4.630   8.812
61599SOL    HW286637   0.682   4.561   8.727
61600SOL     OW86638   4.495   6.909  12.307
61600SOL    HW186639   4.575   6.935  12.352
61600SOL    HW286640   4.519   6.902  12.215
61601SOL     OW86641   1.479  10.926  10.469
61601SOL    HW186642   1.472  10.981  10.391
61601SOL    HW286643   1.431  10.974  10.536
61602SOL     OW86644   6.829   4.902   5.099
61602SOL    HW186645   6.764   4.960   5.058
61602SOL    HW286646   6.913   4.941   5.078
61603SOL     OW86647   2.410   8.338  11.370
61603SOL    HW186648   2.446   8.315  11.285
61603SOL    HW286649   2.408   8.434  11.370
61604SOL     OW86650   7.644   2.433   3.526
61604SOL    HW186651   7.709   2.422   3.595
61604SOL    HW286652   7.689   2.403   3.447
61605SOL     OW86653   3.275   0.759   0.412
61605SOL    HW186654   3.239   0.700   0.479
61605SOL    HW286655   3.198   0.797   0.370
61606SOL     OW86656  13.632  10.090   6.592
61606SOL    HW186657  13.689  10.027   6.548
61606SOL    HW286658  13.689  10.166   6.608
61607SOL     OW86659   9.034   3.798  14.097
61607SOL    HW186660   9.124   3.805  14.129
61607SOL    HW286661   9.040   3.738  14.023
61608SOL     OW86662   9.705   2.348   7.314
61608SOL    HW186663   9.611   2.333   7.299
61608SOL    HW286664   9.721   2.436   7.278
61609SOL     OW86665   0.575  13.968   5.914
61609SOL    HW186666   0.598  13.884   5.954
61609SOL    HW286667   0.616  14.034   5.971
61610SOL     OW86668   5.913   6.497   6.485
61610SOL    HW186669   5.942   6.493   6.394
61610SOL    HW286670   5.874   6.412   6.502
61611SOL     OW86671   5.181   5.297  11.840
61611SOL    HW186672   5.169   5.204  11.821
61611SOL    HW286673   5.207   5.335  11.756
61612SOL     OW86674  10.600   5.506   8.508
61612SOL    HW186675  10.656   5.467   8.575
61612SOL    HW286676  10.653   5.576   8.470
61613SOL     OW86677   4.085   0.682  14.241
61613SOL    HW186678   3.996   0.696  14.206
61613SOL    HW286679   4.072   0.676  14.336
61614SOL     OW86680   5.160  11.395   0.670
61614SOL    HW186681   5.199  11.444   0.598
61614SOL    HW286682   5.231  11.384   0.733
61615SOL     OW86683   8.823  14.204  11.373
61615SOL    HW186684   8.780  14.166  11.297
61615SOL    HW286685   8.854  14.129  11.424
61616SOL     OW86686   5.416   5.188  10.889
61616SOL    HW186687   5.372   5.188  10.974
61616SOL    HW286688   5.377   5.261  10.842
61617SOL     OW86689   5.640   9.672   3.936
61617SOL    HW186690   5.721   9.628   3.960
61617SOL    HW286691   5.644   9.678   3.840
61618SOL     OW86692   6.916   7.458   4.459
61618SOL    HW186693   6.926   7.542   4.504
61618SOL    HW286694   6.859   7.478   4.385
61619SOL     OW86695  14.617  12.750   8.129
61619SOL    HW186696  14.694  12.740   8.073
61619SOL    HW286697  14.552  12.791   8.073
61620SOL     OW86698   9.834   9.000  11.914
61620SOL    HW186699   9.867   9.072  11.967
61620SOL    HW286700   9.744   9.024  11.895
61621SOL     OW86701   4.637   7.350   1.185
61621SOL    HW186702   4.543   7.337   1.179
61621SOL    HW286703   4.648   7.445   1.192
61622SOL     OW86704   2.015   5.672   3.209
61622SOL    HW186705   1.989   5.764   3.213
61622SOL    HW286706   2.105   5.674   3.178
61623SOL     OW86707   6.325   0.088   1.555
61623SOL    HW186708   6.384   0.026   1.514
61623SOL    HW286709   6.368   0.173   1.546
61624SOL     OW86710   0.312  12.308   6.415
61624SOL    HW186711   0.287  12.304   6.507
61624SOL    HW286712   0.372  12.381   6.409
61625SOL     OW86713  11.778   7.414  13.044
61625SOL    HW186714  11.695   7.462  13.049
61625SOL    HW286715  11.815   7.440  12.960
61626SOL     OW86716  13.299   4.344   0.763
61626SOL    HW186717  13.349   4.379   0.836
61626SOL    HW286718  13.222   4.401   0.757
61627SOL     OW86719  13.502  12.328  11.124
61627SOL    HW186720  13.489  12.388  11.197
61627SOL    HW286721  13.501  12.241  11.164
61628SOL     OW86722   6.099   5.337   5.512
61628SOL    HW186723   6.101   5.429   5.484
61628SOL    HW286724   6.086   5.342   5.607
61629SOL     OW86725   9.127   5.755   6.234
61629SOL    HW186726   9.101   5.810   6.160
61629SOL    HW286727   9.222   5.746   6.224
61630SOL     OW86728  13.513   7.079   9.945
61630SOL    HW186729  13.594   7.049   9.905
61630SOL    HW286730  13.449   7.011   9.922
61631SOL     OW86731  11.745   6.720  10.280
61631SOL    HW186732  11.657   6.683  10.275
61631SOL    HW286733  11.741   6.800  10.226
61632SOL     OW86734   1.929   3.848   7.584
61632SOL    HW186735   1.943   3.786   7.655
61632SOL    HW286736   1.866   3.911   7.619
61633SOL     OW86737   7.111   7.325   5.071
61633SOL    HW186738   7.082   7.328   4.980
61633SOL    HW286739   7.036   7.356   5.121
61634SOL     OW86740  11.228   8.069   9.695
61634SOL    HW186741  11.279   7.994   9.664
61634SOL    HW286742  11.270   8.144   9.654
61635SOL     OW86743   6.975  13.506  10.402
61635SOL    HW186744   6.901  13.553  10.441
61635SOL    HW286745   7.045  13.571  10.399
61636SOL     OW86746   9.809  10.046  11.263
61636SOL    HW186747   9.722  10.077  11.290
61636SOL    HW286748   9.807  10.052  11.167
61637SOL     OW86749   0.614  11.717   6.133
61637SOL    HW186750   0.695  11.674   6.160
61637SOL    HW286751   0.561  11.720   6.212
61638SOL     OW86752   5.532   0.390   7.934
61638SOL    HW186753   5.476   0.372   7.858
61638SOL    HW286754   5.610   0.337   7.919
61639SOL     OW86755  11.540   1.450   7.444
61639SOL    HW186756  11.448   1.425   7.439
61639SOL    HW286757  11.581   1.380   7.494
61640SOL     OW86758   2.174   0.441  10.627
61640SOL    HW186759   2.209   0.498  10.695
61640SOL    HW286760   2.082   0.429  10.651
61641SOL     OW86761   0.083   3.019   2.486
61641SOL    HW186762   0.141   3.032   2.561
61641SOL    HW286763   0.120   2.945   2.439
61642SOL     OW86764   4.121   7.859   0.987
61642SOL    HW186765   4.103   7.944   0.945
61642SOL    HW286766   4.215   7.859   1.002
61643SOL     OW86767   4.631   7.426   6.574
61643SOL    HW186768   4.723   7.410   6.594
61643SOL    HW286769   4.596   7.340   6.549
61644SOL     OW86770  14.049   5.167   7.979
61644SOL    HW186771  14.083   5.117   8.053
61644SOL    HW286772  14.067   5.259   8.002
61645SOL     OW86773   2.100  13.328   0.247
61645SOL    HW186774   2.081  13.275   0.169
61645SOL    HW286775   2.014  13.350   0.282
61646SOL     OW86776  13.140   9.112   7.383
61646SOL    HW186777  13.191   9.193   7.383
61646SOL    HW286778  13.049   9.141   7.370
61647SOL     OW86779  14.584   6.064   3.893
61647SOL    HW186780  14.628   6.141   3.856
61647SOL    HW286781  14.643   5.991   3.872
61648SOL     OW86782   3.782   4.195  13.813
61648SOL    HW186783   3.873   4.169  13.803
61648SOL    HW286784   3.733   4.133  13.759
61649SOL     OW86785   9.550   3.061   5.924
61649SOL    HW186786   9.577   3.041   6.013
61649SOL    HW286787   9.455   3.066   5.927
61650SOL     OW86788  10.198   3.940  10.601
61650SOL    HW186789  10.187   3.917  10.693
61650SOL    HW286790  10.183   4.034  10.597
61651SOL     OW86791   7.539  14.597  12.726
61651SOL    HW186792   7.604  14.566  12.664
61651SOL    HW286793   7.455  14.588  12.680
61652SOL     OW86794   2.905   7.963   7.007
61652SOL    HW186795   2.876   7.912   7.083
61652SOL    HW286796   2.825   7.985   6.961
61653SOL     OW86797   2.129   9.516   5.626
61653SOL    HW186798   2.167   9.467   5.553
61653SOL    HW286799   2.059   9.460   5.658
61654SOL     OW86800   8.906   5.002  14.457
61654SOL    HW186801   8.832   4.962  14.411
61654SOL    HW286802   8.938   5.068  14.395
61655SOL     OW86803   3.297   1.984   2.123
61655SOL    HW186804   3.389   1.974   2.148
61655SOL    HW286805   3.297   2.055   2.059
61656SOL     OW86806   9.359  10.814   5.182
61656SOL    HW186807   9.379  10.873   5.110
61656SOL    HW286808   9.430  10.749   5.180
61657SOL     OW86809   9.757   8.566  11.835
61657SOL    HW186810   9.667   8.576  11.867
61657SOL    HW286811   9.807   8.633  11.880
61658SOL     OW86812  14.229   5.913   5.557
61658SOL    HW186813  14.199   5.975   5.623
61658SOL    HW286814  14.315   5.884   5.589
61659SOL     OW86815   5.287  11.529   0.464
61659SOL    HW186816   5.354  11.494   0.406
61659SOL    HW286817   5.216  11.556   0.405
61660SOL     OW86818   8.502   8.407   9.443
61660SOL    HW186819   8.519   8.446   9.358
61660SOL    HW286820   8.566   8.447   9.501
61661SOL     OW86821  10.971  12.441  14.457
61661SOL    HW186822  10.935  12.391  14.384
61661SOL    HW286823  10.941  12.394  14.535
61662SOL     OW86824  12.968  10.091  11.160
61662SOL    HW186825  12.905  10.019  11.156
61662SOL    HW286826  12.954  10.131  11.246
61663SOL     OW86827  11.192   2.318  11.078
61663SOL    HW186828  11.176   2.412  11.084
61663SOL    HW286829  11.124   2.278  11.131
61664SOL     OW86830   0.710  11.951   1.671
61664SOL    HW186831   0.795  11.981   1.702
61664SOL    HW286832   0.647  11.989   1.733
61665SOL     OW86833   9.076   1.679   0.296
61665SOL    HW186834   8.999   1.671   0.352
61665SOL    HW286835   9.150   1.686   0.356
61666SOL     OW86836   5.510   5.385  11.344
61666SOL    HW186837   5.473   5.471  11.325
61666SOL    HW286838   5.445   5.323  11.310
61667SOL     OW86839   3.929   6.779  13.400
61667SOL    HW186840   3.928   6.872  13.423
61667SOL    HW286841   3.850   6.767  13.348
61668SOL     OW86842   2.373  11.662   2.382
61668SOL    HW186843   2.394  11.756   2.384
61668SOL    HW286844   2.439  11.622   2.438
61669SOL     OW86845   8.530   8.940   9.017
61669SOL    HW186846   8.563   8.973   8.934
61669SOL    HW286847   8.436   8.962   9.016
61670SOL     OW86848   7.384  14.068   8.894
61670SOL    HW186849   7.309  14.052   8.837
61670SOL    HW286850   7.413  14.156   8.871
61671SOL     OW86851   5.300  14.213  13.620
61671SOL    HW186852   5.269  14.128  13.589
61671SOL    HW286853   5.312  14.264  13.541
61672SOL     OW86854   0.827   3.637   0.825
61672SOL    HW186855   0.859   3.722   0.795
61672SOL    HW286856   0.803   3.652   0.916
61673SOL     OW86857  12.066   0.039   7.143
61673SOL    HW186858  12.004  14.843   7.151
61673SOL    HW286859  12.115   0.020   7.063
61674SOL     OW86860   4.170  14.748  14.016
61674SOL    HW186861   4.255  14.785  13.991
61674SOL    HW286862   4.144  14.696  13.941
61675SOL     OW86863   7.954   4.786   8.319
61675SOL    HW186864   7.933   4.696   8.294
61675SOL    HW286865   7.983   4.827   8.238
61676SOL     OW86866   7.004  14.104   1.644
61676SOL    HW186867   7.057  14.150   1.579
61676SOL    HW286868   6.951  14.173   1.685
61677SOL     OW86869  14.485   9.891   2.230
61677SOL    HW186870  14.578   9.890   2.251
61677SOL    HW286871  14.466   9.982   2.208
61678SOL     OW86872   5.406  13.553   2.874
61678SOL    HW186873   5.472  13.607   2.917
61678SOL    HW286874   5.450  13.520   2.795
61679SOL     OW86875   7.267   3.323   5.365
61679SOL    HW186876   7.285   3.291   5.453
61679SOL    HW286877   7.171   3.318   5.357
61680SOL     OW86878   8.189   0.607  12.643
61680SOL    HW186879   8.275   0.649  12.655
61680SOL    HW286880   8.129   0.662  12.693
61681SOL     OW86881   8.658   6.284   7.202
61681SOL    HW186882   8.683   6.336   7.126
61681SOL    HW286883   8.607   6.344   7.256
61682SOL     OW86884   3.574   9.733   8.438
61682SOL    HW186885   3.533   9.799   8.382
61682SOL    HW286886   3.560   9.764   8.527
61683SOL     OW86887  14.750  13.440   6.764
61683SOL    HW186888  14.690  13.392   6.821
61683SOL    HW286889  14.795  13.502   6.821
61684SOL     OW86890   8.510   6.337   9.299
61684SOL    HW186891   8.578   6.269   9.294
61684SOL    HW286892   8.559   6.417   9.320
61685SOL     OW86893   6.829  11.350   7.189
61685SOL    HW186894   6.897  11.371   7.125
61685SOL    HW286895   6.774  11.285   7.146
61686SOL     OW86896   9.554  14.867   7.352
61686SOL    HW186897   9.580   0.081   7.333
61686SOL    HW286898   9.467  14.875   7.391
61687SOL     OW86899   6.038   1.977   3.242
61687SOL    HW186900   6.070   2.067   3.239
61687SOL    HW286901   6.118   1.924   3.247
61688SOL     OW86902   3.552   1.172  10.256
61688SOL    HW186903   3.591   1.087  10.236
61688SOL    HW286904   3.576   1.227  10.181
61689SOL     OW86905   2.342   9.185   2.734
61689SOL    HW186906   2.421   9.230   2.705
61689SOL    HW286907   2.353   9.095   2.704
61690SOL     OW86908   8.867   1.127  14.870
61690SOL    HW186909   8.785   1.172  14.850
61690SOL    HW286910   8.935   1.188  14.842
61691SOL     OW86911   2.411   2.767   3.302
61691SOL    HW186912   2.405   2.832   3.372
61691SOL    HW286913   2.483   2.797   3.247
61692SOL     OW86914   5.594   6.507  13.887
61692SOL    HW186915   5.620   6.417  13.866
61692SOL    HW286916   5.616   6.517  13.979
61693SOL     OW86917   1.783   2.705   1.251
61693SOL    HW186918   1.857   2.644   1.248
61693SOL    HW286919   1.822   2.791   1.232
61694SOL     OW86920   6.594   4.848  11.443
61694SOL    HW186921   6.644   4.930  11.434
61694SOL    HW286922   6.661   4.780  11.450
61695SOL     OW86923   4.655   1.601   2.445
61695SOL    HW186924   4.628   1.570   2.531
61695SOL    HW286925   4.735   1.652   2.462
61696SOL     OW86926   1.767   7.810   3.028
61696SOL    HW186927   1.806   7.791   2.943
61696SOL    HW286928   1.795   7.738   3.084
61697SOL     OW86929   4.204   8.327  10.712
61697SOL    HW186930   4.152   8.407  10.706
61697SOL    HW286931   4.150   8.260  10.670
61698SOL     OW86932  10.393   3.673  11.215
61698SOL    HW186933  10.318   3.615  11.223
61698SOL    HW286934  10.461   3.632  11.269
61699SOL     OW86935   4.321   7.821  13.240
61699SOL    HW186936   4.413   7.806  13.263
61699SOL    HW286937   4.284   7.734  13.229
61700SOL     OW86938  14.043   7.810  14.531
61700SOL    HW186939  14.064   7.741  14.467
61700SOL    HW286940  13.957   7.784  14.566
61701SOL     OW86941  13.812   2.526   8.133
61701SOL    HW186942  13.792   2.498   8.043
61701SOL    HW286943  13.891   2.478   8.156
61702SOL     OW86944   0.262   9.917   6.965
61702SOL    HW186945   0.311   9.853   7.016
61702SOL    HW286946   0.280   9.895   6.874
61703SOL     OW86947  14.181   1.649  13.073
61703SOL    HW186948  14.219   1.736  13.061
61703SOL    HW286949  14.210   1.623  13.161
61704SOL     OW86950  12.783  12.149   2.465
61704SOL    HW186951  12.792  12.188   2.552
61704SOL    HW286952  12.803  12.056   2.478
61705SOL     OW86953   9.876  10.653   7.365
61705SOL    HW186954   9.955  10.611   7.398
61705SOL    HW286955   9.828  10.681   7.443
61706SOL     OW86956   9.080  12.866   3.280
61706SOL    HW186957   9.032  12.940   3.243
61706SOL    HW286958   9.012  12.812   3.321
61707SOL     OW86959   2.067   8.924  14.342
61707SOL    HW186960   2.069   8.875  14.260
61707SOL    HW286961   2.152   8.906  14.382
61708SOL     OW86962   8.822   0.371   1.099
61708SOL    HW186963   8.783   0.292   1.137
61708SOL    HW286964   8.915   0.352   1.093
61709SOL     OW86965  11.613   9.879   6.343
61709SOL    HW186966  11.544   9.941   6.369
61709SOL    HW286967  11.684   9.894   6.406
61710SOL     OW86968   9.665   9.338   1.030
61710SOL    HW186969   9.692   9.261   0.979
61710SOL    HW286970   9.682   9.412   0.972
61711SOL     OW86971   4.518   6.761   2.125
61711SOL    HW186972   4.454   6.818   2.168
61711SOL    HW286973   4.510   6.782   2.032
61712SOL     OW86974   0.753  13.148   3.485
61712SOL    HW186975   0.712  13.226   3.522
61712SOL    HW286976   0.710  13.136   3.400
61713SOL     OW86977   7.795   0.660   6.976
61713SOL    HW186978   7.703   0.635   6.980
61713SOL    HW286979   7.814   0.670   6.883
61714SOL     OW86980   2.440   8.294  12.972
61714SOL    HW186981   2.400   8.310  12.887
61714SOL    HW286982   2.526   8.337  12.967
61715SOL     OW86983   5.744   9.360  13.321
61715SOL    HW186984   5.690   9.364  13.399
61715SOL    HW286985   5.737   9.448  13.283
61716SOL     OW86986   8.293   6.472   8.404
61716SOL    HW186987   8.220   6.427   8.445
61716SOL    HW286988   8.271   6.474   8.311
61717SOL     OW86989   5.753  11.250   0.751
61717SOL    HW186990   5.810  11.173   0.751
61717SOL    HW286991   5.667  11.216   0.777
61718SOL     OW86992  11.810   0.885   5.865
61718SOL    HW186993  11.785   0.949   5.798
61718SOL    HW286994  11.828   0.805   5.816
61719SOL     OW86995   0.752   7.624   2.896
61719SOL    HW186996   0.835   7.671   2.896
61719SOL    HW286997   0.765   7.551   2.836
61720SOL     OW86998   8.747   5.593   4.336
61720SOL    HW186999   8.678   5.648   4.300
61720SOL    HW287000   8.828   5.632   4.303
61721SOL     OW87001  12.240   4.774   1.491
61721SOL    HW187002  12.181   4.848   1.476
61721SOL    HW287003  12.302   4.807   1.556
61722SOL     OW87004   7.406   7.430   6.677
61722SOL    HW187005   7.333   7.392   6.627
61722SOL    HW287006   7.485   7.401   6.630
61723SOL     OW87007   1.381   1.902   0.488
61723SOL    HW187008   1.375   1.987   0.446
61723SOL    HW287009   1.353   1.839   0.421
61724SOL     OW87010   9.576  10.324   4.846
61724SOL    HW187011   9.518  10.396   4.869
61724SOL    HW287012   9.634  10.314   4.922
61725SOL     OW87013   3.521  14.764   2.915
61725SOL    HW187014   3.533  14.839   2.858
61725SOL    HW287015   3.448  14.716   2.876
61726SOL     OW87016  11.957  10.388  11.576
61726SOL    HW187017  11.903  10.317  11.609
61726SOL    HW287018  11.901  10.435  11.514
61727SOL     OW87019  12.774   1.272  11.423
61727SOL    HW187020  12.768   1.210  11.351
61727SOL    HW287021  12.696   1.327  11.413
61728SOL     OW87022  12.498  14.644  10.502
61728SOL    HW187023  12.441  14.676  10.433
61728SOL    HW287024  12.587  14.662  10.471
61729SOL     OW87025  13.225  14.452   5.027
61729SOL    HW187026  13.273  14.414   4.953
61729SOL    HW287027  13.209  14.543   5.000
61730SOL     OW87028   2.279  12.618  10.678
61730SOL    HW187029   2.311  12.707  10.662
61730SOL    HW287030   2.259  12.584  10.591
61731SOL     OW87031   1.089   7.131   4.561
61731SOL    HW187032   1.160   7.119   4.624
61731SOL    HW287033   1.061   7.222   4.574
61732SOL     OW87034   6.205  14.702  10.964
61732SOL    HW187035   6.241  14.614  10.974
61732SOL    HW287036   6.265  14.747  10.904
61733SOL     OW87037  10.388   2.200   7.113
61733SOL    HW187038  10.347   2.115   7.101
61733SOL    HW287039  10.464   2.198   7.054
61734SOL     OW87040   3.700   9.388   0.071
61734SOL    HW187041   3.629   9.399   0.135
61734SOL    HW287042   3.682   9.454   0.004
61735SOL     OW87043   6.589   5.401   9.535
61735SOL    HW187044   6.529   5.475   9.547
61735SOL    HW287045   6.671   5.430   9.573
61736SOL     OW87046  10.300   6.405   8.092
61736SOL    HW187047  10.298   6.495   8.061
61736SOL    HW287048  10.208   6.381   8.103
61737SOL     OW87049  12.309   9.059   7.287
61737SOL    HW187050  12.300   8.981   7.341
61737SOL    HW287051  12.367   9.033   7.216
61738SOL     OW87052  10.059   8.439   0.777
61738SOL    HW187053  10.030   8.354   0.811
61738SOL    HW287054  10.073   8.423   0.683
61739SOL     OW87055   1.321  10.394   3.649
61739SOL    HW187056   1.294  10.477   3.689
61739SOL    HW287057   1.410  10.380   3.681
61740SOL     OW87058   8.925   5.527   8.326
61740SOL    HW187059   9.004   5.475   8.310
61740SOL    HW287060   8.857   5.462   8.344
61741SOL     OW87061   0.163   3.727   3.485
61741SOL    HW187062   0.101   3.755   3.552
61741SOL    HW287063   0.211   3.654   3.525
61742SOL     OW87064  13.982   6.225  10.888
61742SOL    HW187065  14.023   6.262  10.810
61742SOL    HW287066  14.051   6.228  10.955
61743SOL     OW87067   2.319   7.875  11.997
61743SOL    HW187068   2.300   7.837  11.911
61743SOL    HW287069   2.280   7.962  11.994
61744SOL     OW87070   1.328   7.268  12.573
61744SOL    HW187071   1.249   7.218  12.596
61744SOL    HW287072   1.375   7.211  12.512
61745SOL     OW87073  11.058  11.809   2.632
61745SOL    HW187074  11.089  11.898   2.646
61745SOL    HW287075  10.962  11.816   2.638
61746SOL     OW87076  11.135  14.145   0.576
61746SOL    HW187077  11.157  14.237   0.595
61746SOL    HW287078  11.048  14.149   0.537
61747SOL     OW87079  14.302   7.133   0.946
61747SOL    HW187080  14.344   7.200   1.000
61747SOL    HW287081  14.262   7.073   1.010
61748SOL     OW87082   7.094   6.945   9.957
61748SOL    HW187083   7.066   6.970  10.045
61748SOL    HW287084   7.119   6.852   9.965
61749SOL     OW87085   6.835   4.636   6.656
61749SOL    HW187086   6.891   4.559   6.661
61749SOL    HW287087   6.871   4.697   6.721
61750SOL     OW87088   1.198  11.942   6.285
61750SOL    HW187089   1.208  12.015   6.346
61750SOL    HW287090   1.126  11.890   6.322
61751SOL     OW87091   0.838   3.342   5.743
61751SOL    HW187092   0.792   3.343   5.659
61751SOL    HW287093   0.845   3.249   5.766
61752SOL     OW87094  10.496   2.468   9.426
61752SOL    HW187095  10.467   2.404   9.490
61752SOL    HW287096  10.492   2.422   9.342
61753SOL     OW87097  12.087  14.856   9.196
61753SOL    HW187098  12.178  14.833   9.178
61753SOL    HW287099  12.088   0.074   9.206
61754SOL     OW87100  11.488  13.508   0.270
61754SOL    HW187101  11.499  13.593   0.227
61754SOL    HW287102  11.406  13.474   0.234
61755SOL     OW87103   6.693   9.834   1.469
61755SOL    HW187104   6.685   9.897   1.397
61755SOL    HW287105   6.671   9.750   1.430
61756SOL     OW87106   9.024   7.310  10.692
61756SOL    HW187107   9.107   7.274  10.662
61756SOL    HW287108   8.992   7.248  10.757
61757SOL     OW87109   8.683   7.562   8.981
61757SOL    HW187110   8.631   7.496   9.028
61757SOL    HW287111   8.725   7.613   9.050
61758SOL     OW87112  10.625   7.554  12.303
61758SOL    HW187113  10.534   7.579  12.283
61758SOL    HW287114  10.660   7.520  12.221
61759SOL     OW87115   6.144   9.210   4.775
61759SOL    HW187116   6.102   9.141   4.826
61759SOL    HW287117   6.123   9.291   4.823
61760SOL     OW87118   1.237   7.225   0.289
61760SOL    HW187119   1.276   7.150   0.333
61760SOL    HW287120   1.162   7.249   0.344
61761SOL     OW87121  11.971  10.897   8.599
61761SOL    HW187122  12.055  10.898   8.645
61761SOL    HW287123  11.961  10.807   8.569
61762SOL     OW87124  13.801   0.419  10.197
61762SOL    HW187125  13.877   0.470  10.168
61762SOL    HW287126  13.748   0.483  10.246
61763SOL     OW87127   8.991  10.524  13.124
61763SOL    HW187128   9.074  10.550  13.084
61763SOL    HW287129   8.925  10.546  13.058
61764SOL     OW87130   0.502  11.733   1.994
61764SOL    HW187131   0.470  11.679   1.922
61764SOL    HW287132   0.525  11.816   1.953
61765SOL     OW87133   4.911   9.449  13.931
61765SOL    HW187134   4.962   9.372  13.960
61765SOL    HW287135   4.822   9.430  13.958
61766SOL     OW87136   4.647   4.719   7.813
61766SOL    HW187137   4.678   4.809   7.807
61766SOL    HW287138   4.590   4.707   7.737
61767SOL     OW87139   0.929  12.228  13.588
61767SOL    HW187140   0.930  12.265  13.676
61767SOL    HW287141   0.933  12.133  13.601
61768SOL     OW87142   8.350   6.188  13.619
61768SOL    HW187143   8.417   6.121  13.605
61768SOL    HW287144   8.315   6.206  13.532
61769SOL     OW87145  14.811  12.714   3.815
61769SOL    HW187146  14.774  12.741   3.731
61769SOL    HW287147   0.025  12.745   3.813
61770SOL     OW87148  14.731   2.616   2.322
61770SOL    HW187149  14.697   2.646   2.238
61770SOL    HW287150  14.655   2.618   2.380
61771SOL     OW87151   7.519   9.072   0.138
61771SOL    HW187152   7.471   9.110   0.065
61771SOL    HW287153   7.583   9.139   0.162
61772SOL     OW87154   3.169   2.845   6.090
61772SOL    HW187155   3.231   2.917   6.101
61772SOL    HW287156   3.101   2.860   6.156
61773SOL     OW87157   9.517   6.065  14.001
61773SOL    HW187158   9.574   6.138  14.026
61773SOL    HW287159   9.430   6.104  13.994
61774SOL     OW87160   8.740  11.894   5.946
61774SOL    HW187161   8.786  11.870   6.026
61774SOL    HW287162   8.737  11.813   5.895
61775SOL     OW87163   2.756   2.917  13.396
61775SOL    HW187164   2.675   2.929  13.446
61775SOL    HW287165   2.746   2.832  13.353
61776SOL     OW87166  14.689   6.099   6.399
61776SOL    HW187167  14.680   6.088   6.494
61776SOL    HW287168  14.632   6.173   6.378
61777SOL     OW87169  12.440   6.232   4.345
61777SOL    HW187170  12.395   6.316   4.355
61777SOL    HW287171  12.523   6.244   4.391
61778SOL     OW87172   4.460   4.595  12.679
61778SOL    HW187173   4.490   4.598  12.770
61778SOL    HW287174   4.365   4.592  12.686
61779SOL     OW87175   2.078   9.248  12.487
61779SOL    HW187176   2.128   9.214  12.562
61779SOL    HW287177   2.060   9.170  12.434
61780SOL     OW87178   8.818  13.983  12.028
61780SOL    HW187179   8.835  14.047  12.097
61780SOL    HW287180   8.726  13.995  12.005
61781SOL     OW87181   7.690  11.366   8.333
61781SOL    HW187182   7.705  11.460   8.339
61781SOL    HW287183   7.697  11.334   8.423
61782SOL     OW87184  14.799   6.179   3.547
61782SOL    HW187185  14.785   6.207   3.637
61782SOL    HW287186  14.875   6.229   3.518
61783SOL     OW87187  14.098  10.384   0.231
61783SOL    HW187188  14.165  10.353   0.171
61783SOL    HW287189  14.015  10.364   0.188
61784SOL     OW87190   5.449   8.172   5.551
61784SOL    HW187191   5.439   8.184   5.456
61784SOL    HW287192   5.522   8.111   5.560
61785SOL     OW87193   7.406   8.943   9.342
61785SOL    HW187194   7.360   8.977   9.418
61785SOL    HW287195   7.344   8.955   9.269
61786SOL     OW87196   0.297   6.975   2.193
61786SOL    HW187197   0.209   6.937   2.188
61786SOL    HW287198   0.350   6.922   2.133
61787SOL     OW87199   4.322   1.706   9.593
61787SOL    HW187200   4.268   1.665   9.524
61787SOL    HW287201   4.259   1.754   9.647
61788SOL     OW87202  11.972  12.179   1.475
61788SOL    HW187203  12.054  12.157   1.521
61788SOL    HW287204  11.982  12.138   1.389
61789SOL     OW87205   1.727   5.042   5.246
61789SOL    HW187206   1.672   4.968   5.270
61789SOL    HW287207   1.725   5.099   5.324
61790SOL     OW87208  10.493  13.230   5.990
61790SOL    HW187209  10.509  13.153   5.936
61790SOL    HW287210  10.406  13.261   5.963
61791SOL     OW87211  10.813  13.107   1.076
61791SOL    HW187212  10.881  13.061   1.125
61791SOL    HW287213  10.731  13.079   1.116
61792SOL     OW87214   8.594   3.145   8.585
61792SOL    HW187215   8.654   3.178   8.518
61792SOL    HW287216   8.637   3.067   8.620
61793SOL     OW87217  12.399  13.031   7.884
61793SOL    HW187218  12.430  12.996   7.968
61793SOL    HW287219  12.331  12.970   7.857
61794SOL     OW87220   7.713   1.041   7.347
61794SOL    HW187221   7.808   1.030   7.343
61794SOL    HW287222   7.700   1.135   7.346
61795SOL     OW87223  10.810   4.453  13.466
61795SOL    HW187224  10.889   4.398  13.467
61795SOL    HW287225  10.743   4.398  13.425
61796SOL     OW87226   6.376   0.953  14.352
61796SOL    HW187227   6.410   0.906  14.276
61796SOL    HW287228   6.448   1.011  14.378
61797SOL     OW87229   2.868   0.039   0.709
61797SOL    HW187230   2.953   0.007   0.680
61797SOL    HW287231   2.845  14.857   0.782
61798SOL     OW87232   0.623   6.912  13.074
61798SOL    HW187233   0.565   6.912  12.997
61798SOL    HW287234   0.628   6.820  13.100
61799SOL     OW87235  12.817   3.368   7.732
61799SOL    HW187236  12.902   3.327   7.715
61799SOL    HW287237  12.799   3.419   7.653
61800SOL     OW87238   8.715   0.806  11.085
61800SOL    HW187239   8.711   0.837  11.175
61800SOL    HW287240   8.772   0.868  11.041
61801SOL     OW87241   2.204   8.073   9.455
61801SOL    HW187242   2.240   7.997   9.410
61801SOL    HW287243   2.165   8.038   9.535
61802SOL     OW87244   0.213   8.851   6.184
61802SOL    HW187245   0.278   8.792   6.146
61802SOL    HW287246   0.213   8.927   6.127
61803SOL     OW87247  11.314   8.540  10.889
61803SOL    HW187248  11.226   8.505  10.881
61803SOL    HW287249  11.307   8.632  10.863
61804SOL     OW87250   2.428   5.432   7.523
61804SOL    HW187251   2.452   5.349   7.564
61804SOL    HW287252   2.450   5.499   7.588
61805SOL     OW87253   1.732  11.474   0.170
61805SOL    HW187254   1.717  11.543   0.105
61805SOL    HW287255   1.712  11.393   0.123
61806SOL     OW87256   8.990   8.754   9.343
61806SOL    HW187257   8.966   8.668   9.307
61806SOL    HW287258   8.919   8.812   9.316
61807SOL     OW87259   4.503   6.595  12.872
61807SOL    HW187260   4.469   6.568  12.957
61807SOL    HW287261   4.504   6.515  12.819
61808SOL     OW87262   4.125   5.196   7.426
61808SOL    HW187263   4.056   5.257   7.402
61808SOL    HW287264   4.164   5.170   7.343
61809SOL     OW87265   8.996  13.795  12.575
61809SOL    HW187266   9.005  13.701  12.590
61809SOL    HW287267   9.036  13.809  12.489
61810SOL     OW87268  13.442  11.599  11.173
61810SOL    HW187269  13.386  11.670  11.141
61810SOL    HW287270  13.425  11.526  11.114
61811SOL     OW87271   7.892   6.616   1.418
61811SOL    HW187272   7.951   6.678   1.460
61811SOL    HW287273   7.891   6.540   1.476
61812SOL     OW87274   5.340  12.124   7.603
61812SOL    HW187275   5.314  12.033   7.612
61812SOL    HW287276   5.355  12.136   7.510
61813SOL     OW87277   8.238   0.537   3.049
61813SOL    HW187278   8.256   0.471   2.982
61813SOL    HW287279   8.148   0.564   3.031
61814SOL     OW87280   6.030   0.488   8.440
61814SOL    HW187281   6.074   0.489   8.525
61814SOL    HW287282   6.087   0.437   8.383
61815SOL     OW87283  11.357  12.852  11.355
61815SOL    HW187284  11.332  12.770  11.312
61815SOL    HW287285  11.275  12.898  11.370
61816SOL     OW87286   4.190   4.340   5.546
61816SOL    HW187287   4.107   4.375   5.513
61816SOL    HW287288   4.232   4.415   5.588
61817SOL     OW87289   1.506   4.669   3.165
61817SOL    HW187290   1.484   4.708   3.250
61817SOL    HW287291   1.602   4.670   3.162
61818SOL     OW87292   8.167   2.136   2.328
61818SOL    HW187293   8.113   2.189   2.270
61818SOL    HW287294   8.104   2.093   2.386
61819SOL     OW87295   4.105   3.198   5.443
61819SOL    HW187296   4.081   3.284   5.479
61819SOL    HW287297   4.051   3.189   5.365
61820SOL     OW87298  11.290   5.496   7.221
61820SOL    HW187299  11.310   5.404   7.208
61820SOL    HW287300  11.307   5.537   7.136
61821SOL     OW87301   4.745   6.963   4.215
61821SOL    HW187302   4.668   6.912   4.189
61821SOL    HW287303   4.709   7.043   4.252
61822SOL     OW87304   5.582   0.134  14.278
61822SOL    HW187305   5.583   0.121  14.372
61822SOL    HW287306   5.574   0.046  14.241
61823SOL     OW87307   3.697   2.276  10.985
61823SOL    HW187308   3.734   2.331  10.916
61823SOL    HW287309   3.634   2.333  11.030
61824SOL     OW87310   3.030  12.908   7.012
61824SOL    HW187311   3.061  12.819   7.030
61824SOL    HW287312   2.962  12.923   7.079
61825SOL     OW87313   9.874   1.101  14.734
61825SOL    HW187314   9.851   1.032  14.672
61825SOL    HW287315   9.886   1.055  14.817
61826SOL     OW87316   1.617  14.102   0.258
61826SOL    HW187317   1.637  14.087   0.166
61826SOL    HW287318   1.585  14.017   0.290
61827SOL     OW87319  12.322   1.238   3.179
61827SOL    HW187320  12.400   1.187   3.199
61827SOL    HW287321  12.250   1.188   3.215
61828SOL     OW87322   1.083   2.934   9.377
61828SOL    HW187323   1.128   2.864   9.329
61828SOL    HW287324   0.994   2.935   9.339
61829SOL     OW87325   5.644   5.059   6.006
61829SOL    HW187326   5.677   4.972   5.985
61829SOL    HW287327   5.593   5.046   6.087
61830SOL     OW87328   6.797   7.211  14.602
61830SOL    HW187329   6.879   7.178  14.638
61830SOL    HW287330   6.817   7.230  14.510
61831SOL     OW87331  14.685   6.215  14.031
61831SOL    HW187332  14.595   6.202  14.003
61831SOL    HW287333  14.698   6.310  14.029
61832SOL     OW87334  12.665   2.457   2.118
61832SOL    HW187335  12.761   2.460   2.114
61832SOL    HW287336  12.640   2.387   2.058
61833SOL     OW87337   5.960   3.835   8.248
61833SOL    HW187338   5.967   3.931   8.241
61833SOL    HW287339   6.030   3.802   8.192
61834SOL     OW87340   0.975  11.784  14.677
61834SOL    HW187341   0.936  11.833  14.750
61834SOL    HW287342   0.901  11.740  14.636
61835SOL     OW87343  11.192  12.040   4.297
61835SOL    HW187344  11.215  12.132   4.309
61835SOL    HW287345  11.145  12.016   4.377
61836SOL     OW87346  12.499   6.607   1.539
61836SOL    HW187347  12.443   6.546   1.491
61836SOL    HW287348  12.518   6.562   1.621
61837SOL     OW87349   8.766  10.495  10.712
61837SOL    HW187350   8.844  10.478  10.764
61837SOL    HW287351   8.711  10.549  10.768
61838SOL     OW87352   2.400  14.409   6.160
61838SOL    HW187353   2.399  14.481   6.223
61838SOL    HW287354   2.476  14.357   6.185
61839SOL     OW87355   3.474   3.629   0.889
61839SOL    HW187356   3.566   3.613   0.866
61839SOL    HW287357   3.440   3.543   0.914
61840SOL     OW87358  11.540  12.723  13.524
61840SOL    HW187359  11.489  12.664  13.468
61840SOL    HW287360  11.621  12.675  13.543
61841SOL     OW87361  14.619   6.779   5.427
61841SOL    HW187362  14.649   6.694   5.396
61841SOL    HW287363  14.676   6.799   5.501
61842SOL     OW87364  13.298   6.145  14.119
61842SOL    HW187365  13.353   6.166  14.043
61842SOL    HW287366  13.280   6.230  14.159
61843SOL     OW87367   4.764   1.441   8.468
61843SOL    HW187368   4.713   1.365   8.439
61843SOL    HW287369   4.732   1.513   8.414
61844SOL     OW87370  11.279   1.385   6.529
61844SOL    HW187371  11.217   1.447   6.569
61844SOL    HW287372  11.314   1.336   6.604
61845SOL     OW87373   3.107   5.445  14.855
61845SOL    HW187374   3.029   5.406   0.020
61845SOL    HW287375   3.072   5.515  14.800
61846SOL     OW87376  10.242  10.666  14.081
61846SOL    HW187377  10.167  10.634  14.031
61846SOL    HW287378  10.239  10.618  14.163
61847SOL     OW87379  11.740   6.644   0.993
61847SOL    HW187380  11.681   6.718   1.005
61847SOL    HW287381  11.683   6.568   0.988
61848SOL     OW87382   3.751   1.820  11.259
61848SOL    HW187383   3.728   1.778  11.176
61848SOL    HW287384   3.717   1.761  11.326
61849SOL     OW87385   0.513   7.646   7.706
61849SOL    HW187386   0.507   7.632   7.800
61849SOL    HW287387   0.504   7.740   7.695
61850SOL     OW87388  12.784   2.815   1.667
61850SOL    HW187389  12.796   2.790   1.759
61850SOL    HW287390  12.861   2.782   1.622
61851SOL     OW87391   1.939   6.055   8.777
61851SOL    HW187392   1.869   6.086   8.835
61851SOL    HW287393   1.914   5.965   8.756
61852SOL     OW87394   9.989  12.993   6.678
61852SOL    HW187395  10.081  12.978   6.702
61852SOL    HW287396   9.943  13.004   6.761
61853SOL     OW87397   7.903   3.841   9.624
61853SOL    HW187398   7.865   3.913   9.674
61853SOL    HW287399   7.990   3.828   9.663
61854SOL     OW87400   6.716   0.293  13.321
61854SOL    HW187401   6.808   0.303  13.345
61854SOL    HW287402   6.708   0.202  13.292
61855SOL     OW87403   9.401   6.680   9.860
61855SOL    HW187404   9.439   6.637   9.937
61855SOL    HW287405   9.427   6.771   9.868
61856SOL     OW87406  12.371   8.703   3.431
61856SOL    HW187407  12.393   8.716   3.523
61856SOL    HW287408  12.445   8.738   3.383
61857SOL     OW87409  12.808   1.647   9.881
61857SOL    HW187410  12.777   1.682   9.965
61857SOL    HW287411  12.847   1.563   9.904
61858SOL     OW87412   6.840  11.871   6.111
61858SOL    HW187413   6.833  11.801   6.176
61858SOL    HW287414   6.790  11.839   6.036
61859SOL     OW87415  12.961  14.601   2.125
61859SOL    HW187416  13.050  14.603   2.091
61859SOL    HW287417  12.935  14.509   2.118
61860SOL     OW87418  10.346  12.527   4.119
61860SOL    HW187419  10.327  12.576   4.040
61860SOL    HW287420  10.431  12.487   4.103
61861SOL     OW87421   5.457  10.272   7.400
61861SOL    HW187422   5.551  10.285   7.412
61861SOL    HW287423   5.440  10.305   7.311
61862SOL     OW87424   8.360   7.619   9.101
61862SOL    HW187425   8.432   7.616   9.164
61862SOL    HW287426   8.308   7.695   9.127
61863SOL     OW87427   4.308  10.167   8.880
61863SOL    HW187428   4.287  10.176   8.973
61863SOL    HW287429   4.273  10.247   8.840
61864SOL     OW87430   7.586   3.559   4.364
61864SOL    HW187431   7.510   3.530   4.413
61864SOL    HW287432   7.658   3.556   4.426
61865SOL     OW87433   8.631   0.940  12.316
61865SOL    HW187434   8.707   0.883  12.328
61865SOL    HW287435   8.643   1.009  12.381
61866SOL     OW87436   9.468   6.897   1.153
61866SOL    HW187437   9.454   6.869   1.243
61866SOL    HW287438   9.563   6.900   1.143
61867SOL     OW87439   1.584  10.683   4.705
61867SOL    HW187440   1.589  10.665   4.611
61867SOL    HW287441   1.541  10.607   4.742
61868SOL     OW87442   9.432   1.716   4.598
61868SOL    HW187443   9.501   1.717   4.532
61868SOL    HW287444   9.454   1.641   4.654
61869SOL     OW87445   8.927   7.557  11.614
61869SOL    HW187446   8.934   7.572  11.709
61869SOL    HW287447   9.017   7.565  11.583
61870SOL     OW87448   3.607  12.494  10.841
61870SOL    HW187449   3.693  12.455  10.829
61870SOL    HW287450   3.546  12.427  10.810
61871SOL     OW87451   2.103   0.312   6.060
61871SOL    HW187452   2.067   0.315   5.972
61871SOL    HW287453   2.139   0.400   6.074
61872SOL     OW87454   4.109   3.898   1.485
61872SOL    HW187455   4.031   3.953   1.491
61872SOL    HW287456   4.076   3.813   1.455
61873SOL     OW87457   5.114   2.886   4.637
61873SOL    HW187458   5.140   2.954   4.699
61873SOL    HW287459   5.048   2.928   4.582
61874SOL     OW87460   6.613   1.305   2.214
61874SOL    HW187461   6.564   1.278   2.136
61874SOL    HW287462   6.546   1.335   2.275
61875SOL     OW87463  14.736   0.822   1.777
61875SOL    HW187464  14.789   0.751   1.741
61875SOL    HW287465  14.647   0.786   1.782
61876SOL     OW87466  11.435   3.296   7.990
61876SOL    HW187467  11.433   3.334   7.903
61876SOL    HW287468  11.362   3.336   8.037
61877SOL     OW87469   8.028  14.030  10.038
61877SOL    HW187470   8.041  14.082   9.959
61877SOL    HW287471   8.096  13.963  10.035
61878SOL     OW87472   0.127   3.786   4.475
61878SOL    HW187473   0.062   3.794   4.544
61878SOL    HW287474   0.210   3.807   4.517
61879SOL     OW87475   0.812   9.497  12.539
61879SOL    HW187476   0.839   9.586  12.516
61879SOL    HW287477   0.747   9.509  12.608
61880SOL     OW87478   1.121   4.011  10.673
61880SOL    HW187479   1.163   4.087  10.715
61880SOL    HW287480   1.037   4.045  10.642
61881SOL     OW87481  12.794   0.525   6.649
61881SOL    HW187482  12.860   0.532   6.718
61881SOL    HW287483  12.815   0.442   6.605
61882SOL     OW87484   2.698  14.853   4.606
61882SOL    HW187485   2.619  14.866   4.552
61882SOL    HW287486   2.664  14.827   4.691
61883SOL     OW87487  12.409   8.206  11.976
61883SOL    HW187488  12.379   8.292  11.946
61883SOL    HW287489  12.483   8.186  11.919
61884SOL     OW87490   1.222   2.756  11.558
61884SOL    HW187491   1.224   2.828  11.495
61884SOL    HW287492   1.242   2.678  11.506
61885SOL     OW87493   2.487   7.394   9.335
61885SOL    HW187494   2.575   7.358   9.343
61885SOL    HW287495   2.490   7.448   9.256
61886SOL     OW87496  11.167   0.742   5.861
61886SOL    HW187497  11.150   0.802   5.934
61886SOL    HW287498  11.084   0.698   5.846
61887SOL     OW87499  14.684  11.920   4.695
61887SOL    HW187500  14.614  11.898   4.633
61887SOL    HW287501  14.703  12.012   4.677
61888SOL     OW87502  13.104  14.506  14.507
61888SOL    HW187503  13.038  14.551  14.560
61888SOL    HW287504  13.053  14.459  14.441
61889SOL     OW87505  12.931   0.259   1.213
61889SOL    HW187506  13.011   0.207   1.206
61889SOL    HW287507  12.960   0.344   1.247
61890SOL     OW87508   5.225   8.786  11.737
61890SOL    HW187509   5.255   8.873  11.710
61890SOL    HW287510   5.271   8.726  11.678
61891SOL     OW87511   8.331   4.941   0.843
61891SOL    HW187512   8.415   4.964   0.885
61891SOL    HW287513   8.289   5.025   0.827
61892SOL     OW87514  10.046   8.331  14.447
61892SOL    HW187515   9.983   8.311  14.516
61892SOL    HW287516   9.997   8.321  14.365
61893SOL     OW87517   6.665  14.029   2.096
61893SOL    HW187518   6.701  14.114   2.122
61893SOL    HW287519   6.637  14.042   2.006
61894SOL     OW87520   4.478  14.311  11.215
61894SOL    HW187521   4.530  14.353  11.283
61894SOL    HW287522   4.487  14.217  11.233
61895SOL     OW87523   5.629   0.447   2.709
61895SOL    HW187524   5.543   0.488   2.718
61895SOL    HW287525   5.618   0.360   2.748
61896SOL     OW87526   7.521   7.496   1.963
61896SOL    HW187527   7.569   7.579   1.972
61896SOL    HW287528   7.567   7.449   1.893
61897SOL     OW87529  14.255  12.410   8.190
61897SOL    HW187530  14.216  12.492   8.221
61897SOL    HW287531  14.347  12.415   8.217
61898SOL     OW87532   6.545   3.145   9.854
61898SOL    HW187533   6.502   3.059   9.852
61898SOL    HW287534   6.476   3.206   9.827
61899SOL     OW87535  11.245   7.041  12.841
61899SOL    HW187536  11.172   7.078  12.791
61899SOL    HW287537  11.281   7.115  12.889
61900SOL     OW87538  13.367  13.586   8.398
61900SOL    HW187539  13.364  13.491   8.395
61900SOL    HW287540  13.317  13.614   8.322
61901SOL     OW87541   9.409   6.567   6.721
61901SOL    HW187542   9.495   6.553   6.762
61901SOL    HW287543   9.386   6.657   6.744
61902SOL     OW87544   1.971   4.509  12.823
61902SOL    HW187545   1.960   4.591  12.869
61902SOL    HW287546   2.044   4.466  12.868
61903SOL     OW87547   9.635   1.707  12.999
61903SOL    HW187548   9.725   1.727  13.023
61903SOL    HW287549   9.639   1.619  12.963
61904SOL     OW87550   1.041   5.903   3.805
61904SOL    HW187551   0.972   5.940   3.860
61904SOL    HW287552   1.110   5.877   3.866
61905SOL     OW87553  10.132   8.881  10.485
61905SOL    HW187554  10.043   8.880  10.450
61905SOL    HW287555  10.134   8.805  10.544
61906SOL     OW87556   6.374   6.475   7.041
61906SOL    HW187557   6.418   6.484   7.125
61906SOL    HW287558   6.282   6.495   7.060
61907SOL     OW87559  13.281   4.389  11.987
61907SOL    HW187560  13.324   4.412  12.070
61907SOL    HW287561  13.352   4.358  11.931
61908SOL     OW87562   1.988   6.053   0.516
61908SOL    HW187563   1.963   6.020   0.602
61908SOL    HW287564   1.934   6.131   0.504
61909SOL     OW87565   2.900  14.457  13.861
61909SOL    HW187566   2.868  14.376  13.899
61909SOL    HW287567   2.822  14.499  13.824
61910SOL     OW87568   8.256   1.474  12.667
61910SOL    HW187569   8.282   1.382  12.664
61910SOL    HW287570   8.264   1.504  12.577
61911SOL     OW87571   5.158   7.371   1.748
61911SOL    HW187572   5.133   7.381   1.657
61911SOL    HW287573   5.177   7.277   1.757
61912SOL     OW87574   7.621   9.807   3.935
61912SOL    HW187575   7.555   9.804   3.866
61912SOL    HW287576   7.640   9.715   3.953
61913SOL     OW87577  14.343   5.573   5.319
61913SOL    HW187578  14.439   5.568   5.321
61913SOL    HW287579  14.315   5.517   5.392
61914SOL     OW87580  11.171   0.756  12.858
61914SOL    HW187581  11.250   0.753  12.805
61914SOL    HW287582  11.155   0.849  12.872
61915SOL     OW87583   7.792   3.628  14.659
61915SOL    HW187584   7.719   3.655  14.715
61915SOL    HW287585   7.792   3.533  14.665
61916SOL     OW87586   5.449  13.982   6.628
61916SOL    HW187587   5.388  13.914   6.598
61916SOL    HW287588   5.522  13.935   6.667
61917SOL     OW87589   3.632   6.035  10.223
61917SOL    HW187590   3.675   6.048  10.138
61917SOL    HW287591   3.690   5.976  10.271
61918SOL     OW87592  10.332  10.376  10.452
61918SOL    HW187593  10.348  10.384  10.358
61918SOL    HW287594  10.244  10.410  10.464
61919SOL     OW87595   5.675  13.332  12.775
61919SOL    HW187596   5.689  13.242  12.803
61919SOL    HW287597   5.630  13.323  12.690
61920SOL     OW87598  13.861   5.627   9.299
61920SOL    HW187599  13.815   5.644   9.381
61920SOL    HW287600  13.862   5.531   9.292
61921SOL     OW87601  12.064   3.759  11.317
61921SOL    HW187602  12.073   3.712  11.234
61921SOL    HW287603  12.077   3.691  11.384
61922SOL     OW87604   4.382  13.733  13.839
61922SOL    HW187605   4.329  13.657  13.816
61922SOL    HW287606   4.319  13.806  13.844
61923SOL     OW87607  10.128  10.953   0.626
61923SOL    HW187608  10.221  10.957   0.651
61923SOL    HW287609  10.082  10.994   0.699
61924SOL     OW87610   3.537  14.631  13.798
61924SOL    HW187611   3.605  14.566  13.817
61924SOL    HW287612   3.540  14.641  13.702
61925SOL     OW87613   4.115   5.861   6.483
61925SOL    HW187614   4.134   5.910   6.403
61925SOL    HW287615   4.183   5.794   6.487
61926SOL     OW87616   6.227  11.417   9.146
61926SOL    HW187617   6.314  11.453   9.132
61926SOL    HW287618   6.167  11.486   9.119
61927SOL     OW87619   3.353  12.970   0.863
61927SOL    HW187620   3.314  12.925   0.788
61927SOL    HW287621   3.410  12.905   0.903
61928SOL     OW87622   4.024   9.843   1.263
61928SOL    HW187623   4.033   9.868   1.354
61928SOL    HW287624   4.105   9.797   1.242
61929SOL     OW87625   9.960   0.785   8.441
61929SOL    HW187626  10.021   0.768   8.513
61929SOL    HW287627   9.937   0.699   8.408
61930SOL     OW87628   1.708  14.076   7.638
61930SOL    HW187629   1.803  14.066   7.635
61930SOL    HW287630   1.686  14.070   7.731
61931SOL     OW87631  14.008   5.645   0.519
61931SOL    HW187632  14.003   5.679   0.430
61931SOL    HW287633  13.926   5.598   0.531
61932SOL     OW87634   4.145   3.730   5.383
61932SOL    HW187635   4.229   3.695   5.353
61932SOL    HW287636   4.165   3.818   5.414
61933SOL     OW87637   7.392  11.173   8.344
61933SOL    HW187638   7.443  11.236   8.292
61933SOL    HW287639   7.338  11.228   8.402
61934SOL     OW87640   1.779   7.626   7.913
61934SOL    HW187641   1.728   7.700   7.948
61934SOL    HW287642   1.830   7.664   7.841
61935SOL     OW87643   7.023   4.828   6.283
61935SOL    HW187644   6.970   4.843   6.361
61935SOL    HW287645   6.995   4.896   6.222
61936SOL     OW87646   8.419  14.682   4.591
61936SOL    HW187647   8.385  14.658   4.677
61936SOL    HW287648   8.429  14.777   4.595
61937SOL     OW87649   6.841   3.922   0.426
61937SOL    HW187650   6.756   3.934   0.383
61937SOL    HW287651   6.900   3.897   0.355
61938SOL     OW87652  10.591   0.053   6.111
61938SOL    HW187653  10.507   0.015   6.136
61938SOL    HW287654  10.604   0.125   6.172
61939SOL     OW87655   6.876   3.043  13.220
61939SOL    HW187656   6.876   2.964  13.167
61939SOL    HW287657   6.791   3.084  13.202
61940SOL     OW87658  12.388  11.043   3.431
61940SOL    HW187659  12.306  11.073   3.393
61940SOL    HW287660  12.451  11.049   3.359
61941SOL     OW87661   6.921   7.443  12.513
61941SOL    HW187662   6.852   7.506  12.534
61941SOL    HW287663   6.989   7.460  12.577
61942SOL     OW87664  13.417   1.978   3.714
61942SOL    HW187665  13.429   1.886   3.734
61942SOL    HW287666  13.322   1.990   3.711
61943SOL     OW87667   2.311   5.637  12.203
61943SOL    HW187668   2.393   5.631  12.251
61943SOL    HW287669   2.327   5.589  12.122
61944SOL     OW87670  10.578   9.573   2.168
61944SOL    HW187671  10.646   9.639   2.185
61944SOL    HW287672  10.564   9.531   2.253
61945SOL     OW87673   9.613   1.141   6.542
61945SOL    HW187674   9.589   1.199   6.470
61945SOL    HW287675   9.535   1.089   6.559
61946SOL     OW87676  14.466   8.919  10.691
61946SOL    HW187677  14.546   8.868  10.676
61946SOL    HW287678  14.403   8.855  10.724
61947SOL     OW87679  11.972   2.175   5.374
61947SOL    HW187680  12.010   2.249   5.421
61947SOL    HW287681  11.893   2.210   5.333
61948SOL     OW87682   5.958  10.693   4.247
61948SOL    HW187683   6.046  10.676   4.212
61948SOL    HW287684   5.907  10.617   4.218
61949SOL     OW87685  12.744   0.893   5.789
61949SOL    HW187686  12.769   0.851   5.706
61949SOL    HW287687  12.679   0.959   5.764
61950SOL     OW87688   1.523   7.261  11.638
61950SOL    HW187689   1.550   7.214  11.559
61950SOL    HW287690   1.594   7.324  11.653
61951SOL     OW87691   0.527  11.115   8.324
61951SOL    HW187692   0.586  11.123   8.249
61951SOL    HW287693   0.535  11.023   8.351
61952SOL     OW87694   8.146   6.904   6.152
61952SOL    HW187695   8.053   6.916   6.134
61952SOL    HW287696   8.177   6.990   6.180
61953SOL     OW87697   9.012  14.048   6.590
61953SOL    HW187698   9.084  14.090   6.637
61953SOL    HW287699   9.054  14.002   6.517
61954SOL     OW87700  14.818   1.678  12.204
61954SOL    HW187701   0.007   1.702  12.270
61954SOL    HW287702  14.752   1.630  12.253
61955SOL     OW87703   2.727  12.592   2.296
61955SOL    HW187704   2.716  12.653   2.223
61955SOL    HW287705   2.693  12.509   2.262
61956SOL     OW87706   7.359   6.920   3.437
61956SOL    HW187707   7.360   6.899   3.343
61956SOL    HW287708   7.450   6.907   3.465
61957SOL     OW87709   6.063   6.435   2.421
61957SOL    HW187710   5.979   6.437   2.466
61957SOL    HW287711   6.111   6.363   2.462
61958SOL     OW87712   5.715   5.859   6.557
61958SOL    HW187713   5.793   5.874   6.610
61958SOL    HW287714   5.683   5.947   6.535
61959SOL     OW87715   6.495   6.141   9.284
61959SOL    HW187716   6.420   6.118   9.340
61959SOL    HW287717   6.487   6.235   9.270
61960SOL     OW87718  12.708  12.445  11.907
61960SOL    HW187719  12.668  12.370  11.952
61960SOL    HW287720  12.802  12.430  11.915
61961SOL     OW87721   2.367  10.682   5.591
61961SOL    HW187722   2.412  10.746   5.647
61961SOL    HW287723   2.366  10.602   5.643
61962SOL     OW87724   1.528  13.714  11.605
61962SOL    HW187725   1.584  13.701  11.682
61962SOL    HW287726   1.450  13.758  11.640
61963SOL     OW87727  13.652   5.410   9.223
61963SOL    HW187728  13.629   5.405   9.130
61963SOL    HW287729  13.585   5.466   9.262
61964SOL     OW87730   5.463   4.769   6.043
61964SOL    HW187731   5.543   4.759   5.991
61964SOL    HW287732   5.455   4.864   6.056
61965SOL     OW87733   1.019   3.240   9.580
61965SOL    HW187734   0.970   3.297   9.639
61965SOL    HW287735   1.092   3.295   9.549
61966SOL     OW87736   9.284   7.722   6.617
61966SOL    HW187737   9.338   7.702   6.693
61966SOL    HW287738   9.216   7.782   6.650
61967SOL     OW87739   0.605   3.652   2.527
61967SOL    HW187740   0.557   3.583   2.481
61967SOL    HW287741   0.561   3.733   2.504
61968SOL     OW87742  11.451   3.932   3.665
61968SOL    HW187743  11.534   3.884   3.659
61968SOL    HW287744  11.477   4.023   3.679
61969SOL     OW87745   7.195   3.552  10.180
61969SOL    HW187746   7.249   3.502  10.241
61969SOL    HW287747   7.253   3.622  10.150
61970SOL     OW87748   0.008   5.920   1.933
61970SOL    HW187749  14.823   5.902   1.862
61970SOL    HW287750  14.866   5.853   1.998
61971SOL     OW87751  12.362  13.343   2.081
61971SOL    HW187752  12.389  13.294   2.158
61971SOL    HW287753  12.301  13.409   2.115
61972SOL     OW87754   9.562   5.528  11.081
61972SOL    HW187755   9.586   5.487  11.164
61972SOL    HW287756   9.518   5.609  11.106
61973SOL     OW87757   7.579  12.287   1.542
61973SOL    HW187758   7.565  12.379   1.568
61973SOL    HW287759   7.660  12.289   1.492
61974SOL     OW87760   7.986  11.266   2.064
61974SOL    HW187761   8.038  11.306   2.134
61974SOL    HW287762   7.902  11.313   2.066
61975SOL     OW87763   4.847   0.744   3.527
61975SOL    HW187764   4.803   0.688   3.463
61975SOL    HW287765   4.787   0.746   3.602
61976SOL     OW87766   3.928   5.031  11.333
61976SOL    HW187767   3.881   5.114  11.325
61976SOL    HW287768   3.925   5.011  11.427
61977SOL     OW87769  14.558   6.391   8.050
61977SOL    HW187770  14.510   6.459   8.097
61977SOL    HW287771  14.601   6.438   7.979
61978SOL     OW87772   4.044  14.200   8.491
61978SOL    HW187773   4.102  14.275   8.495
61978SOL    HW287774   4.029  14.177   8.583
61979SOL     OW87775  14.352   0.658   5.105
61979SOL    HW187776  14.384   0.643   5.194
61979SOL    HW287777  14.266   0.617   5.103
61980SOL     OW87778  11.975   6.860   9.088
61980SOL    HW187779  11.916   6.811   9.145
61980SOL    HW287780  12.031   6.793   9.049
61981SOL     OW87781  13.266  14.639  12.228
61981SOL    HW187782  13.268  14.731  12.200
61981SOL    HW287783  13.212  14.639  12.307
61982SOL     OW87784   1.522   9.750  10.463
61982SOL    HW187785   1.581   9.686  10.502
61982SOL    HW287786   1.559   9.835  10.489
61983SOL     OW87787   5.175  13.382   3.174
61983SOL    HW187788   5.269  13.364   3.184
61983SOL    HW287789   5.170  13.446   3.103
61984SOL     OW87790   0.639  13.482   2.044
61984SOL    HW187791   0.643  13.513   1.954
61984SOL    HW287792   0.547  13.494   2.069
61985SOL     OW87793   6.322   1.255   4.643
61985SOL    HW187794   6.304   1.337   4.689
61985SOL    HW287795   6.418   1.254   4.633
61986SOL     OW87796   4.887   5.567  10.241
61986SOL    HW187797   4.833   5.614  10.305
61986SOL    HW287798   4.973   5.609  10.247
61987SOL     OW87799  10.903  14.187   1.583
61987SOL    HW187800  10.880  14.102   1.621
61987SOL    HW287801  10.887  14.176   1.489
61988SOL     OW87802  11.474   0.042  10.947
61988SOL    HW187803  11.451   0.135  10.953
61988SOL    HW287804  11.517   0.023  11.030
61989SOL     OW87805   0.928   6.784   5.223
61989SOL    HW187806   0.863   6.855   5.229
61989SOL    HW287807   0.883   6.715   5.174
61990SOL     OW87808  14.743   6.053   9.223
61990SOL    HW187809  14.676   5.991   9.252
61990SOL    HW287810  14.718   6.136   9.263
61991SOL     OW87811  14.143   1.497   9.632
61991SOL    HW187812  14.193   1.566   9.588
61991SOL    HW287813  14.055   1.502   9.593
61992SOL     OW87814  12.159   8.271   0.296
61992SOL    HW187815  12.085   8.326   0.271
61992SOL    HW287816  12.217   8.272   0.219
61993SOL     OW87817   3.957   3.698  11.240
61993SOL    HW187818   3.960   3.655  11.326
61993SOL    HW287819   3.987   3.631  11.179
61994SOL     OW87820   5.178   6.004   8.500
61994SOL    HW187821   5.192   5.984   8.407
61994SOL    HW287822   5.094   5.962   8.521
61995SOL     OW87823   1.547   2.752   6.496
61995SOL    HW187824   1.499   2.678   6.533
61995SOL    HW287825   1.605   2.713   6.431
61996SOL     OW87826   9.472   3.013   5.074
61996SOL    HW187827   9.403   3.033   5.138
61996SOL    HW287828   9.482   2.917   5.078
61997SOL     OW87829   2.950  13.982   7.270
61997SOL    HW187830   2.926  13.889   7.278
61997SOL    HW287831   3.029  13.991   7.323
61998SOL     OW87832   8.414   8.448   3.158
61998SOL    HW187833   8.373   8.482   3.238
61998SOL    HW287834   8.468   8.376   3.188
61999SOL     OW87835   2.788   2.054   8.416
61999SOL    HW187836   2.701   2.077   8.385
61999SOL    HW287837   2.847   2.113   8.368
62000SOL     OW87838   0.560   6.026  10.785
62000SOL    HW187839   0.524   5.937  10.789
62000SOL    HW287840   0.557   6.057  10.876
62001SOL     OW87841   5.409   4.559   1.095
62001SOL    HW187842   5.451   4.517   1.170
62001SOL    HW287843   5.323   4.584   1.128
62002SOL     OW87844  11.949  12.645   6.525
62002SOL    HW187845  11.969  12.567   6.473
62002SOL    HW287846  12.031  12.665   6.571
62003SOL     OW87847   0.881   4.007   5.919
62003SOL    HW187848   0.872   3.997   6.014
62003SOL    HW287849   0.852   3.923   5.883
62004SOL     OW87850   3.401   6.119  10.326
62004SOL    HW187851   3.480   6.090  10.281
62004SOL    HW287852   3.369   6.041  10.372
62005SOL     OW87853   9.437   9.537   0.106
62005SOL    HW187854   9.519   9.552   0.058
62005SOL    HW287855   9.368   9.548   0.040
62006SOL     OW87856   8.683   1.678  14.156
62006SOL    HW187857   8.658   1.749  14.096
62006SOL    HW287858   8.772   1.656  14.131
62007SOL     OW87859   6.332   1.180  11.012
62007SOL    HW187860   6.333   1.087  10.989
62007SOL    HW287861   6.239   1.200  11.024
62008SOL     OW87862   3.357   8.614   6.629
62008SOL    HW187863   3.420   8.646   6.564
62008SOL    HW287864   3.377   8.522   6.639
62009SOL     OW87865   6.345   3.363  12.937
62009SOL    HW187866   6.388   3.308  12.871
62009SOL    HW287867   6.270   3.311  12.967
62010SOL     OW87868   4.430   4.389   7.205
62010SOL    HW187869   4.424   4.382   7.109
62010SOL    HW287870   4.375   4.465   7.226
62011SOL     OW87871   1.895   2.057   4.668
62011SOL    HW187872   1.835   2.109   4.721
62011SOL    HW287873   1.846   1.977   4.647
62012SOL     OW87874  11.635   0.301   5.850
62012SOL    HW187875  11.679   0.255   5.921
62012SOL    HW287876  11.574   0.237   5.814
62013SOL     OW87877   7.568   9.691   5.590
62013SOL    HW187878   7.627   9.615   5.587
62013SOL    HW287879   7.511   9.673   5.665
62014SOL     OW87880   6.936   4.975   7.787
62014SOL    HW187881   6.857   4.935   7.749
62014SOL    HW287882   7.008   4.940   7.735
62015SOL     OW87883   1.973   6.951  11.637
62015SOL    HW187884   2.003   6.948  11.546
62015SOL    HW287885   2.014   6.874  11.678
62016SOL     OW87886   7.826  10.695   7.353
62016SOL    HW187887   7.854  10.670   7.441
62016SOL    HW287888   7.734  10.668   7.348
62017SOL     OW87889   0.449   9.062   8.558
62017SOL    HW187890   0.384   9.129   8.583
62017SOL    HW287891   0.525   9.112   8.529
62018SOL     OW87892   1.559   0.455   2.684
62018SOL    HW187893   1.539   0.544   2.654
62018SOL    HW287894   1.648   0.462   2.720
62019SOL     OW87895  13.070   6.209   9.842
62019SOL    HW187896  13.096   6.246   9.927
62019SOL    HW287897  13.044   6.119   9.863
62020SOL     OW87898   8.424   7.899  13.323
62020SOL    HW187899   8.424   7.905  13.228
62020SOL    HW287900   8.514   7.877  13.346
62021SOL     OW87901  13.111   9.888   2.068
62021SOL    HW187902  13.110   9.809   2.014
62021SOL    HW287903  13.049   9.869   2.138
62022SOL     OW87904   6.772   6.417   1.218
62022SOL    HW187905   6.745   6.409   1.310
62022SOL    HW287906   6.742   6.336   1.177
62023SOL     OW87907  14.392  12.700   5.273
62023SOL    HW187908  14.300  12.675   5.267
62023SOL    HW287909  14.440  12.617   5.271
62024SOL     OW87910   9.088  11.093  13.996
62024SOL    HW187911   9.072  11.026  13.929
62024SOL    HW287912   9.048  11.172  13.960
62025SOL     OW87913  10.495   5.773   9.272
62025SOL    HW187914  10.464   5.746   9.186
62025SOL    HW287915  10.565   5.711   9.293
62026SOL     OW87916   3.190  13.487   2.379
62026SOL    HW187917   3.135  13.409   2.388
62026SOL    HW287918   3.133  13.553   2.340
62027SOL     OW87919   0.211   5.559  13.672
62027SOL    HW187920   0.301   5.584  13.694
62027SOL    HW287921   0.161   5.574  13.752
62028SOL     OW87922   5.881   3.494   2.626
62028SOL    HW187923   5.828   3.566   2.661
62028SOL    HW287924   5.856   3.489   2.533
62029SOL     OW87925   5.413   2.778  11.715
62029SOL    HW187926   5.451   2.734  11.791
62029SOL    HW287927   5.326   2.740  11.707
62030SOL     OW87928  14.698   8.633  11.168
62030SOL    HW187929  14.695   8.547  11.127
62030SOL    HW287930  14.780   8.672  11.138
62031SOL     OW87931  14.591  10.631   6.362
62031SOL    HW187932  14.620  10.723   6.359
62031SOL    HW287933  14.578  10.614   6.455
62032SOL     OW87934   5.398   4.624   2.688
62032SOL    HW187935   5.446   4.707   2.681
62032SOL    HW287936   5.432   4.583   2.767
62033SOL     OW87937  12.805   3.781  12.981
62033SOL    HW187938  12.869   3.767  13.050
62033SOL    HW287939  12.767   3.695  12.965
62034SOL     OW87940   0.126   1.012   8.854
62034SOL    HW187941   0.104   1.004   8.761
62034SOL    HW287942   0.068   0.950   8.898
62035SOL     OW87943  14.333   7.838   7.727
62035SOL    HW187944  14.424   7.845   7.698
62035SOL    HW287945  14.294   7.774   7.668
62036SOL     OW87946  11.662   1.316   0.589
62036SOL    HW187947  11.748   1.290   0.623
62036SOL    HW287948  11.676   1.401   0.550
62037SOL     OW87949  13.556  12.209  14.085
62037SOL    HW187950  13.494  12.209  14.012
62037SOL    HW287951  13.531  12.134  14.138
62038SOL     OW87952   5.516   4.511  14.499
62038SOL    HW187953   5.472   4.551  14.574
62038SOL    HW287954   5.491   4.419  14.503
62039SOL     OW87955   4.762   2.138   8.425
62039SOL    HW187956   4.676   2.131   8.467
62039SOL    HW287957   4.744   2.178   8.340
62040SOL     OW87958   4.355   2.937   1.546
62040SOL    HW187959   4.388   2.993   1.476
62040SOL    HW287960   4.386   2.849   1.523
62041SOL     OW87961   2.893  13.248   9.404
62041SOL    HW187962   2.858  13.186   9.340
62041SOL    HW287963   2.868  13.334   9.371
62042SOL     OW87964   3.178  13.836   7.671
62042SOL    HW187965   3.150  13.774   7.604
62042SOL    HW287966   3.120  13.818   7.745
62043SOL     OW87967   4.916  10.039   3.146
62043SOL    HW187968   5.001  10.011   3.179
62043SOL    HW287969   4.902   9.987   3.067
62044SOL     OW87970  12.566   5.894   2.255
62044SOL    HW187971  12.558   5.969   2.315
62044SOL    HW287972  12.566   5.817   2.312
62045SOL     OW87973  10.153  12.612   7.610
62045SOL    HW187974  10.106  12.544   7.658
62045SOL    HW287975  10.195  12.664   7.679
62046SOL     OW87976   0.774   5.171  10.870
62046SOL    HW187977   0.736   5.166  10.783
62046SOL    HW287978   0.723   5.238  10.915
62047SOL     OW87979   8.170   1.368  11.033
62047SOL    HW187980   8.145   1.286  11.076
62047SOL    HW287981   8.154   1.435  11.099
62048SOL     OW87982   1.948   8.780   0.855
62048SOL    HW187983   1.917   8.697   0.891
62048SOL    HW287984   2.009   8.812   0.920
62049SOL     OW87985  11.142   4.123   1.473
62049SOL    HW187986  11.215   4.113   1.534
62049SOL    HW287987  11.159   4.059   1.404
62050SOL     OW87988   9.617  11.360  13.931
62050SOL    HW187989   9.556  11.360  14.004
62050SOL    HW287990   9.673  11.437  13.946
62051SOL     OW87991   5.309  13.889   0.279
62051SOL    HW187992   5.326  13.797   0.259
62051SOL    HW287993   5.395  13.930   0.277
62052SOL     OW87994   0.584   0.728   8.703
62052SOL    HW187995   0.532   0.662   8.658
62052SOL    HW287996   0.526   0.762   8.771
62053SOL     OW87997   5.102   9.801   0.320
62053SOL    HW187998   5.177   9.790   0.261
62053SOL    HW287999   5.035   9.743   0.285
62054SOL     OW88000   0.157   9.457   0.723
62054SOL    HW188001   0.096   9.464   0.796
62054SOL    HW288002   0.236   9.504   0.753
62055SOL     OW88003   6.733  13.326   5.943
62055SOL    HW188004   6.699  13.334   6.032
62055SOL    HW288005   6.826  13.349   5.950
62056SOL     OW88006   3.736  12.512   6.993
62056SOL    HW188007   3.780  12.576   7.049
62056SOL    HW288008   3.645  12.541   6.990
62057SOL     OW88009  14.160   6.904   0.069
62057SOL    HW188010  14.088   6.851   0.035
62057SOL    HW288011  14.117   6.981   0.106
62058SOL     OW88012  13.142   1.623   3.071
62058SOL    HW188013  13.099   1.550   3.116
62058SOL    HW288014  13.217   1.583   3.026
62059SOL     OW88015   4.123  14.824  13.098
62059SOL    HW188016   4.062   0.021  13.090
62059SOL    HW288017   4.095  14.779  13.179
62060SOL     OW88018   7.048   1.738   5.217
62060SOL    HW188019   7.007   1.675   5.276
62060SOL    HW288020   7.136   1.750   5.253
62061SOL     OW88021   3.648  12.449   4.543
62061SOL    HW188022   3.560  12.417   4.563
62061SOL    HW288023   3.634  12.530   4.495
62062SOL     OW88024   1.727   4.095   9.101
62062SOL    HW188025   1.755   4.110   9.011
62062SOL    HW288026   1.807   4.106   9.153
62063SOL     OW88027   1.059  14.793   7.301
62063SOL    HW188028   1.010  14.730   7.354
62063SOL    HW288029   1.072  14.868   7.359
62064SOL     OW88030   5.286  10.309   6.936
62064SOL    HW188031   5.337  10.325   6.857
62064SOL    HW288032   5.333  10.357   7.005
62065SOL     OW88033   8.267  13.728  14.573
62065SOL    HW188034   8.315  13.806  14.544
62065SOL    HW288035   8.298  13.659  14.514
62066SOL     OW88036   3.414   9.814   6.045
62066SOL    HW188037   3.486   9.751   6.043
62066SOL    HW288038   3.446   9.884   6.102
62067SOL     OW88039  14.625  10.249   0.134
62067SOL    HW188040  14.688  10.272   0.066
62067SOL    HW288041  14.544  10.293   0.108
62068SOL     OW88042   4.862   3.236  11.035
62068SOL    HW188043   4.770   3.260  11.046
62068SOL    HW288044   4.873   3.225  10.941
62069SOL     OW88045   7.079  12.961   3.627
62069SOL    HW188046   7.090  13.049   3.662
62069SOL    HW288047   7.032  12.914   3.696
62070SOL     OW88048   9.809   5.312  10.358
62070SOL    HW188049   9.870   5.245  10.329
62070SOL    HW288050   9.724   5.269  10.359
62071SOL     OW88051  11.344   0.577   0.889
62071SOL    HW188052  11.270   0.595   0.946
62071SOL    HW288053  11.336   0.639   0.816
62072SOL     OW88054  13.790   4.671   4.004
62072SOL    HW188055  13.744   4.651   4.085
62072SOL    HW288056  13.821   4.586   3.972
62073SOL     OW88057  12.261  12.933  12.883
62073SOL    HW188058  12.174  12.917  12.917
62073SOL    HW288059  12.313  12.858  12.912
62074SOL     OW88060   0.087   8.300   7.171
62074SOL    HW188061   0.072   8.343   7.087
62074SOL    HW288062  14.876   8.283   7.206
62075SOL     OW88063   7.868   5.543   2.783
62075SOL    HW188064   7.869   5.638   2.798
62075SOL    HW288065   7.817   5.508   2.856
62076SOL     OW88066  12.347   7.548   8.473
62076SOL    HW188067  12.399   7.625   8.453
62076SOL    HW288068  12.285   7.540   8.399
62077SOL     OW88069  12.391   3.828   0.717
62077SOL    HW188070  12.394   3.732   0.713
62077SOL    HW288071  12.402   3.857   0.627
62078SOL     OW88072  13.076   9.493   1.264
62078SOL    HW188073  13.012   9.515   1.196
62078SOL    HW288074  13.022   9.468   1.340
62079SOL     OW88075   6.211   8.182  14.248
62079SOL    HW188076   6.289   8.208  14.296
62079SOL    HW288077   6.201   8.088  14.267
62080SOL     OW88078   6.714  11.537   2.216
62080SOL    HW188079   6.737  11.620   2.174
62080SOL    HW288080   6.666  11.489   2.148
62081SOL     OW88081   3.572  10.434  13.697
62081SOL    HW188082   3.618  10.363  13.741
62081SOL    HW288083   3.484  10.401  13.681
62082SOL     OW88084   4.651   7.916  13.541
62082SOL    HW188085   4.703   7.986  13.580
62082SOL    HW288086   4.712   7.843  13.533
62083SOL     OW88087   5.642  13.629   8.673
62083SOL    HW188088   5.609  13.584   8.595
62083SOL    HW288089   5.736  13.608   8.675
62084SOL     OW88090  11.572  13.679  13.678
62084SOL    HW188091  11.493  13.733  13.691
62084SOL    HW288092  11.644  13.735  13.709
62085SOL     OW88093  12.577   8.191   6.936
62085SOL    HW188094  12.496   8.200   6.986
62085SOL    HW288095  12.611   8.105   6.962
62086SOL     OW88096   4.515  10.549   5.558
62086SOL    HW188097   4.508  10.580   5.649
62086SOL    HW288098   4.446  10.483   5.550
62087SOL     OW88099  10.328   0.881   9.165
62087SOL    HW188100  10.381   0.909   9.239
62087SOL    HW288101  10.259   0.947   9.159
62088SOL     OW88102   6.705   3.547   8.276
62088SOL    HW188103   6.756   3.491   8.217
62088SOL    HW288104   6.732   3.521   8.364
62089SOL     OW88105   7.139   3.353  13.222
62089SOL    HW188106   7.118   3.290  13.154
62089SOL    HW288107   7.171   3.430  13.175
62090SOL     OW88108  14.787   5.252  12.637
62090SOL    HW188109  14.798   5.315  12.566
62090SOL    HW288110  14.875   5.237  12.670
62091SOL     OW88111  12.306   4.556  10.651
62091SOL    HW188112  12.254   4.565  10.571
62091SOL    HW288113  12.350   4.641  10.660
62092SOL     OW88114  11.199   5.397   4.155
62092SOL    HW188115  11.132   5.442   4.207
62092SOL    HW288116  11.265   5.465   4.139
62093SOL     OW88117   4.746   3.003   8.617
62093SOL    HW188118   4.826   2.969   8.578
62093SOL    HW288119   4.698   3.041   8.544
62094SOL     OW88120   2.169  14.237   2.908
62094SOL    HW188121   2.223  14.276   2.840
62094SOL    HW288122   2.088  14.212   2.863
62095SOL     OW88123  11.900  12.176   2.484
62095SOL    HW188124  11.952  12.256   2.477
62095SOL    HW288125  11.809  12.206   2.492
62096SOL     OW88126   7.977   8.734   3.449
62096SOL    HW188127   8.030   8.788   3.507
62096SOL    HW288128   8.039   8.699   3.384
62097SOL     OW88129   0.200   8.412   6.171
62097SOL    HW188130   0.120   8.455   6.138
62097SOL    HW288131   0.226   8.354   6.100
62098SOL     OW88132  10.129  10.678   4.837
62098SOL    HW188133  10.113  10.587   4.814
62098SOL    HW288134  10.139  10.723   4.753
62099SOL     OW88135  13.638  10.344   2.361
62099SOL    HW188136  13.582  10.268   2.342
62099SOL    HW288137  13.578  10.412   2.390
62100SOL     OW88138   2.902   1.090  11.817
62100SOL    HW188139   2.896   1.118  11.908
62100SOL    HW288140   2.826   1.033  11.805
62101SOL     OW88141   8.947   6.571  14.208
62101SOL    HW188142   8.912   6.632  14.143
62101SOL    HW288143   8.932   6.484  14.170
62102SOL     OW88144   8.883  10.529   4.945
62102SOL    HW188145   8.962  10.580   4.961
62102SOL    HW288146   8.894  10.451   5.000
62103SOL     OW88147   7.086   7.278  11.620
62103SOL    HW188148   7.049   7.251  11.703
62103SOL    HW288149   7.172   7.236  11.617
62104SOL     OW88150   4.517  11.149   4.353
62104SOL    HW188151   4.463  11.159   4.432
62104SOL    HW288152   4.605  11.174   4.381
62105SOL     OW88153   3.313   4.833   9.124
62105SOL    HW188154   3.361   4.815   9.043
62105SOL    HW288155   3.282   4.747   9.153
62106SOL     OW88156   8.455   4.028  14.091
62106SOL    HW188157   8.503   4.109  14.103
62106SOL    HW288158   8.418   4.008  14.177
62107SOL     OW88159   2.321  13.500   9.719
62107SOL    HW188160   2.311  13.566   9.788
62107SOL    HW288161   2.405  13.521   9.678
62108SOL     OW88162   0.852   7.679   8.563
62108SOL    HW188163   0.798   7.609   8.599
62108SOL    HW288164   0.790   7.732   8.511
62109SOL     OW88165   4.414   8.826  12.028
62109SOL    HW188166   4.393   8.912  11.991
62109SOL    HW288167   4.394   8.834  12.121
62110SOL     OW88168   5.636   2.745   0.311
62110SOL    HW188169   5.639   2.693   0.230
62110SOL    HW288170   5.570   2.702   0.365
62111SOL     OW88171  10.319   9.487   0.469
62111SOL    HW188172  10.364   9.522   0.392
62111SOL    HW288173  10.351   9.397   0.478
62112SOL     OW88174   2.484  11.129   1.345
62112SOL    HW188175   2.535  11.057   1.383
62112SOL    HW288176   2.546  11.175   1.288
62113SOL     OW88177   9.959   2.440  11.355
62113SOL    HW188178   9.994   2.529  11.342
62113SOL    HW288179   9.874   2.441  11.312
62114SOL     OW88180   8.407  14.693   7.826
62114SOL    HW188181   8.422  14.767   7.885
62114SOL    HW288182   8.462  14.623   7.861
62115SOL     OW88183  12.458   4.534   2.936
62115SOL    HW188184  12.437   4.592   2.862
62115SOL    HW288185  12.551   4.512   2.923
62116SOL     OW88186   6.885   8.343   3.520
62116SOL    HW188187   6.944   8.270   3.502
62116SOL    HW288188   6.851   8.325   3.607
62117SOL     OW88189  14.337   5.505   4.243
62117SOL    HW188190  14.250   5.521   4.207
62117SOL    HW288191  14.389   5.474   4.169
62118SOL     OW88192   0.780  12.021   2.881
62118SOL    HW188193   0.817  11.954   2.937
62118SOL    HW288194   0.693  11.988   2.858
62119SOL     OW88195   4.290   9.233   8.646
62119SOL    HW188196   4.336   9.213   8.728
62119SOL    HW288197   4.257   9.322   8.659
62120SOL     OW88198   1.884   3.755   4.694
62120SOL    HW188199   1.863   3.670   4.732
62120SOL    HW288200   1.806   3.778   4.643
62121SOL     OW88201   1.810  11.631   2.771
62121SOL    HW188202   1.800  11.727   2.772
62121SOL    HW288203   1.903  11.616   2.759
62122SOL     OW88204  10.799   3.575  12.852
62122SOL    HW188205  10.790   3.523  12.773
62122SOL    HW288206  10.865   3.642  12.830
62123SOL     OW88207   3.957   4.904   7.826
62123SOL    HW188208   3.996   4.950   7.751
62123SOL    HW288209   3.974   4.961   7.901
62124SOL     OW88210   3.982   8.541  10.136
62124SOL    HW188211   4.024   8.542  10.222
62124SOL    HW288212   3.934   8.624  10.132
62125SOL     OW88213  10.391  12.307   8.022
62125SOL    HW188214  10.467  12.269   7.978
62125SOL    HW288215  10.336  12.232   8.044
62126SOL     OW88216   6.994   8.623   2.601
62126SOL    HW188217   6.938   8.559   2.645
62126SOL    HW288218   7.075   8.623   2.653
62127SOL     OW88219  10.274  14.544   9.295
62127SOL    HW188220  10.210  14.477   9.318
62127SOL    HW288221  10.222  14.623   9.280
62128SOL     OW88222   6.619   4.040  10.214
62128SOL    HW188223   6.700   4.082  10.242
62128SOL    HW288224   6.643   3.949  10.197
62129SOL     OW88225   5.334   1.177  10.001
62129SOL    HW188226   5.298   1.240  10.063
62129SOL    HW288227   5.300   1.206   9.916
62130SOL     OW88228   3.115  12.170   0.615
62130SOL    HW188229   3.122  12.133   0.527
62130SOL    HW288230   3.190  12.229   0.623
62131SOL     OW88231   8.064   0.832  10.130
62131SOL    HW188232   8.105   0.816  10.046
62131SOL    HW288233   8.003   0.759  10.141
62132SOL     OW88234  10.117   4.090   0.038
62132SOL    HW188235  10.151   4.141  14.841
62132SOL    HW288236  10.024   4.077   0.018
62133SOL     OW88237  10.535   4.530   3.949
62133SOL    HW188238  10.560   4.605   4.004
62133SOL    HW288239  10.475   4.480   4.004
62134SOL     OW88240  10.317   8.328   5.413
62134SOL    HW188241  10.295   8.335   5.506
62134SOL    HW288242  10.338   8.235   5.400
62135SOL     OW88243   2.474  12.697  10.926
62135SOL    HW188244   2.447  12.658  11.009
62135SOL    HW288245   2.403  12.674  10.865
62136SOL     OW88246   7.829   9.026  13.319
62136SOL    HW188247   7.877   9.096  13.363
62136SOL    HW288248   7.867   9.023  13.231
62137SOL     OW88249   1.405   2.486   6.521
62137SOL    HW188250   1.457   2.408   6.540
62137SOL    HW288251   1.391   2.483   6.426
62138SOL     OW88252   6.085   9.739  11.386
62138SOL    HW188253   6.067   9.664  11.329
62138SOL    HW288254   6.142   9.703  11.455
62139SOL     OW88255   7.411   1.400   3.353
62139SOL    HW188256   7.452   1.487   3.353
62139SOL    HW288257   7.389   1.384   3.261
62140SOL     OW88258   1.867  12.966   2.857
62140SOL    HW188259   1.906  12.910   2.924
62140SOL    HW288260   1.856  12.908   2.781
62141SOL     OW88261  12.942   9.365  13.437
62141SOL    HW188262  12.972   9.432  13.375
62141SOL    HW288263  12.935   9.286  13.384
62142SOL     OW88264   2.189   8.249   2.358
62142SOL    HW188265   2.208   8.311   2.287
62142SOL    HW288266   2.259   8.263   2.421
62143SOL     OW88267   8.231  10.011   5.923
62143SOL    HW188268   8.228  10.051   5.836
62143SOL    HW288269   8.319   9.974   5.929
62144SOL     OW88270   2.932   3.106  13.685
62144SOL    HW188271   2.858   3.138  13.737
62144SOL    HW288272   3.004   3.165  13.708
62145SOL     OW88273   6.685   0.139  14.337
62145SOL    HW188274   6.628   0.215  14.325
62145SOL    HW288275   6.715   0.144  14.427
62146SOL     OW88276  13.242  12.343   1.312
62146SOL    HW188277  13.203  12.268   1.355
62146SOL    HW288278  13.257  12.406   1.382
62147SOL     OW88279   6.714  10.911  11.481
62147SOL    HW188280   6.698  10.996  11.523
62147SOL    HW288281   6.715  10.930  11.387
62148SOL     OW88282   1.232   3.369  10.431
62148SOL    HW188283   1.205   3.426  10.504
62148SOL    HW288284   1.152   3.357  10.380
62149SOL     OW88285  11.732  10.423  13.574
62149SOL    HW188286  11.732  10.432  13.478
62149SOL    HW288287  11.770  10.505  13.606
62150SOL     OW88288   2.451   9.022   4.647
62150SOL    HW188289   2.532   9.035   4.696
62150SOL    HW288290   2.429   8.930   4.661
62151SOL     OW88291  10.018   8.754   9.297
62151SOL    HW188292   9.944   8.697   9.276
62151SOL    HW288293  10.076   8.749   9.221
62152SOL     OW88294   4.199   3.536  13.355
62152SOL    HW188295   4.196   3.530  13.260
62152SOL    HW288296   4.128   3.595  13.379
62153SOL     OW88297   0.442   2.470   8.319
62153SOL    HW188298   0.388   2.397   8.289
62153SOL    HW288299   0.381   2.544   8.324
62154SOL     OW88300   8.997  11.030   7.052
62154SOL    HW188301   9.005  11.070   7.139
62154SOL    HW288302   8.915  11.066   7.018
62155SOL     OW88303   4.629  11.069   8.683
62155SOL    HW188304   4.591  11.124   8.615
62155SOL    HW288305   4.584  11.095   8.763
62156SOL     OW88306   9.451  12.189   1.497
62156SOL    HW188307   9.378  12.191   1.436
62156SOL    HW288308   9.469  12.282   1.516
62157SOL     OW88309   1.458   0.120   9.385
62157SOL    HW188310   1.546   0.147   9.411
62157SOL    HW288311   1.470   0.036   9.342
62158SOL     OW88312   4.117   5.652   0.622
62158SOL    HW188313   4.098   5.673   0.713
62158SOL    HW288314   4.152   5.563   0.624
62159SOL     OW88315   0.670   5.016   7.162
62159SOL    HW188316   0.749   5.020   7.108
62159SOL    HW288317   0.662   4.924   7.187
62160SOL     OW88318   6.786   5.069  14.190
62160SOL    HW188319   6.757   4.984  14.159
62160SOL    HW288320   6.713   5.103  14.242
62161SOL     OW88321   9.159  10.294   6.013
62161SOL    HW188322   9.118  10.377   6.038
62161SOL    HW288323   9.118  10.230   6.071
62162SOL     OW88324   9.164  12.860   6.293
62162SOL    HW188325   9.256  12.842   6.314
62162SOL    HW288326   9.118  12.847   6.376
62163SOL     OW88327   7.332   9.528   8.569
62163SOL    HW188328   7.330   9.488   8.482
62163SOL    HW288329   7.252   9.499   8.611
62164SOL     OW88330  11.571   1.171   7.221
62164SOL    HW188331  11.647   1.229   7.223
62164SOL    HW288332  11.502   1.224   7.180
62165SOL     OW88333  13.790  14.411  10.382
62165SOL    HW188334  13.805  14.354  10.458
62165SOL    HW288335  13.712  14.374  10.340
62166SOL     OW88336   3.874   0.482  12.789
62166SOL    HW188337   3.804   0.524  12.839
62166SOL    HW288338   3.949   0.481  12.848
62167SOL     OW88339  11.006   7.085  14.114
62167SOL    HW188340  11.004   7.006  14.168
62167SOL    HW288341  10.991   7.054  14.025
62168SOL     OW88342   4.249   1.941   1.307
62168SOL    HW188343   4.163   1.948   1.267
62168SOL    HW288344   4.243   1.865   1.365
62169SOL     OW88345  13.376   0.187   0.368
62169SOL    HW188346  13.380   0.190   0.464
62169SOL    HW288347  13.465   0.164   0.342
62170SOL     OW88348  11.637  11.141   6.812
62170SOL    HW188349  11.570  11.114   6.875
62170SOL    HW288350  11.713  11.163   6.866
62171SOL     OW88351  11.237  11.577   9.754
62171SOL    HW188352  11.233  11.587   9.849
62171SOL    HW288353  11.321  11.536   9.737
62172SOL     OW88354   9.666   3.630   3.399
62172SOL    HW188355   9.591   3.636   3.458
62172SOL    HW288356   9.687   3.720   3.377
62173SOL     OW88357   8.641   2.866  13.293
62173SOL    HW188358   8.657   2.778  13.257
62173SOL    HW288359   8.708   2.876  13.361
62174SOL     OW88360  10.533   2.741   4.897
62174SOL    HW188361  10.542   2.793   4.977
62174SOL    HW288362  10.606   2.680   4.900
62175SOL     OW88363  11.355   2.187   5.047
62175SOL    HW188364  11.378   2.114   4.989
62175SOL    HW288365  11.439   2.229   5.066
62176SOL     OW88366   9.061   0.791   7.017
62176SOL    HW188367   9.054   0.809   6.923
62176SOL    HW288368   9.049   0.696   7.025
62177SOL     OW88369  10.293   6.212   4.414
62177SOL    HW188370  10.259   6.276   4.351
62177SOL    HW288371  10.303   6.132   4.362
62178SOL     OW88372  11.583   5.536   9.911
62178SOL    HW188373  11.519   5.607   9.900
62178SOL    HW288374  11.533   5.465   9.950
62179SOL     OW88375  12.752   0.735   3.050
62179SOL    HW188376  12.844   0.729   3.027
62179SOL    HW288377  12.711   0.661   3.005
62180SOL     OW88378   3.773   0.436   6.629
62180SOL    HW188379   3.862   0.467   6.613
62180SOL    HW288380   3.784   0.368   6.696
62181SOL     OW88381   7.720   3.504   5.431
62181SOL    HW188382   7.641   3.458   5.401
62181SOL    HW288383   7.721   3.492   5.526
62182SOL     OW88384  11.557   7.964  13.584
62182SOL    HW188385  11.607   8.037  13.548
62182SOL    HW288386  11.606   7.937  13.662
62183SOL     OW88387   8.456  11.469   0.518
62183SOL    HW188388   8.407  11.400   0.563
62183SOL    HW288389   8.427  11.550   0.559
62184SOL     OW88390  10.966   5.503   4.688
62184SOL    HW188391  10.913   5.424   4.680
62184SOL    HW288392  10.951   5.532   4.778
62185SOL     OW88393   7.634  13.436   1.832
62185SOL    HW188394   7.714  13.452   1.883
62185SOL    HW288395   7.582  13.515   1.845
62186SOL     OW88396  12.333  14.180   2.172
62186SOL    HW188397  12.259  14.155   2.116
62186SOL    HW288398  12.311  14.268   2.203
62187SOL     OW88399  10.873   0.894  10.082
62187SOL    HW188400  10.862   0.799  10.082
62187SOL    HW288401  10.837   0.922   9.998
62188SOL     OW88402   1.244   3.669   4.451
62188SOL    HW188403   1.300   3.717   4.389
62188SOL    HW288404   1.255   3.716   4.533
62189SOL     OW88405  14.361  11.782   3.381
62189SOL    HW188406  14.444  11.782   3.429
62189SOL    HW288407  14.331  11.692   3.385
62190SOL     OW88408   5.614  13.350   9.462
62190SOL    HW188409   5.550  13.384   9.525
62190SOL    HW288410   5.573  13.273   9.425
62191SOL     OW88411  10.374   3.482   3.490
62191SOL    HW188412  10.288   3.458   3.457
62191SOL    HW288413  10.373   3.455   3.582
62192SOL     OW88414   6.259  12.555  14.056
62192SOL    HW188415   6.244  12.619  13.986
62192SOL    HW288416   6.230  12.472  14.019
62193SOL     OW88417  10.472  11.638  14.685
62193SOL    HW188418  10.411  11.617  14.614
62193SOL    HW288419  10.524  11.558  14.696
62194SOL     OW88420   7.046   5.126   8.788
62194SOL    HW188421   6.968   5.172   8.756
62194SOL    HW288422   7.033   5.035   8.759
62195SOL     OW88423   4.111   6.756  14.564
62195SOL    HW188424   4.021   6.770  14.594
62195SOL    HW288425   4.106   6.758  14.469
62196SOL     OW88426   6.491   0.083   1.883
62196SOL    HW188427   6.441   0.162   1.904
62196SOL    HW288428   6.437   0.011   1.915
62197SOL     OW88429   6.833  13.407   3.945
62197SOL    HW188430   6.928  13.417   3.939
62197SOL    HW288431   6.798  13.494   3.924
62198SOL     OW88432   7.285   1.998   3.355
62198SOL    HW188433   7.340   1.940   3.408
62198SOL    HW288434   7.325   2.085   3.366
62199SOL     OW88435   1.067   1.830   3.992
62199SOL    HW188436   0.981   1.872   3.982
62199SOL    HW288437   1.077   1.777   3.913
62200SOL     OW88438  10.802  13.961   9.104
62200SOL    HW188439  10.788  13.933   9.194
62200SOL    HW288440  10.749  14.040   9.095
62201SOL     OW88441  11.430  14.391   7.575
62201SOL    HW188442  11.399  14.370   7.663
62201SOL    HW288443  11.522  14.363   7.574
62202SOL     OW88444   6.153  12.793   5.008
62202SOL    HW188445   6.080  12.792   4.946
62202SOL    HW288446   6.156  12.883   5.041
62203SOL     OW88447   8.644   9.629  10.723
62203SOL    HW188448   8.667   9.699  10.785
62203SOL    HW288449   8.548   9.626  10.725
62204SOL     OW88450   8.213  14.414  13.785
62204SOL    HW188451   8.203  14.453  13.698
62204SOL    HW288452   8.293  14.361  13.778
62205SOL     OW88453  10.908   0.860   4.390
62205SOL    HW188454  10.991   0.895   4.422
62205SOL    HW288455  10.902   0.892   4.300
62206SOL     OW88456   0.750   8.733   3.869
62206SOL    HW188457   0.683   8.665   3.881
62206SOL    HW288458   0.765   8.735   3.775
62207SOL     OW88459   1.409   8.170   4.239
62207SOL    HW188460   1.459   8.105   4.188
62207SOL    HW288461   1.475   8.233   4.267
62208SOL     OW88462   6.281  12.204  14.261
62208SOL    HW188463   6.194  12.207  14.222
62208SOL    HW288464   6.267  12.222  14.354
62209SOL     OW88465   5.507  10.155  11.185
62209SOL    HW188466   5.486  10.211  11.111
62209SOL    HW288467   5.595  10.123  11.167
62210SOL     OW88468   8.705  10.642  13.481
62210SOL    HW188469   8.709  10.733  13.451
62210SOL    HW288470   8.766  10.595  13.424
62211SOL     OW88471  10.043  12.895   7.428
62211SOL    HW188472  10.086  12.816   7.461
62211SOL    HW288473  10.034  12.879   7.334
62212SOL     OW88474   7.643  14.412  13.709
62212SOL    HW188475   7.612  14.427  13.620
62212SOL    HW288476   7.738  14.422  13.703
62213SOL     OW88477   4.862   7.774   3.452
62213SOL    HW188478   4.874   7.715   3.377
62213SOL    HW288479   4.947   7.817   3.463
62214SOL     OW88480  14.497   3.281   9.149
62214SOL    HW188481  14.494   3.284   9.054
62214SOL    HW288482  14.407   3.299   9.176
62215SOL     OW88483   5.033   2.288  13.104
62215SOL    HW188484   4.941   2.267  13.088
62215SOL    HW288485   5.070   2.209  13.144
62216SOL     OW88486  13.838  13.367   8.395
62216SOL    HW188487  13.775  13.438   8.385
62216SOL    HW288488  13.920  13.404   8.363
62217SOL     OW88489   3.555   8.746   4.031
62217SOL    HW188490   3.606   8.732   3.952
62217SOL    HW288491   3.479   8.796   4.002
62218SOL     OW88492   4.622   0.801   6.276
62218SOL    HW188493   4.698   0.746   6.297
62218SOL    HW288494   4.660   0.886   6.254
62219SOL     OW88495   1.776   4.267   9.857
62219SOL    HW188496   1.870   4.281   9.859
62219SOL    HW288497   1.738   4.355   9.862
62220SOL     OW88498   7.188   3.471   0.193
62220SOL    HW188499   7.166   3.442   0.104
62220SOL    HW288500   7.222   3.559   0.182
62221SOL     OW88501  13.675   6.621   2.713
62221SOL    HW188502  13.667   6.715   2.729
62221SOL    HW288503  13.588   6.593   2.685
62222SOL     OW88504  13.032   1.277   8.207
62222SOL    HW188505  12.974   1.333   8.156
62222SOL    HW288506  13.016   1.301   8.298
62223SOL     OW88507   6.591   4.932  14.866
62223SOL    HW188508   6.506   4.976  14.872
62223SOL    HW288509   6.655   4.998   0.016
62224SOL     OW88510   9.143   3.078   8.982
62224SOL    HW188511   9.125   2.985   8.993
62224SOL    HW288512   9.190   3.103   9.062
62225SOL     OW88513   7.469  11.138  10.325
62225SOL    HW188514   7.558  11.111  10.346
62225SOL    HW288515   7.416  11.058  10.334
62226SOL     OW88516   1.125   0.813   3.200
62226SOL    HW188517   1.147   0.770   3.117
62226SOL    HW288518   1.029   0.820   3.199
62227SOL     OW88519   5.847   0.632   3.203
62227SOL    HW188520   5.895   0.702   3.159
62227SOL    HW288521   5.915   0.579   3.244
62228SOL     OW88522   8.371   6.031  13.229
62228SOL    HW188523   8.367   6.042  13.134
62228SOL    HW288524   8.383   6.119  13.263
62229SOL     OW88525   6.747   4.283   3.282
62229SOL    HW188526   6.787   4.302   3.197
62229SOL    HW288527   6.786   4.199   3.309
62230SOL     OW88528   4.846   3.277   2.910
62230SOL    HW188529   4.901   3.243   2.981
62230SOL    HW288530   4.899   3.345   2.869
62231SOL     OW88531  10.185   0.670   7.929
62231SOL    HW188532  10.165   0.635   8.016
62231SOL    HW288533  10.099   0.685   7.889
62232SOL     OW88534  11.175   0.856   2.299
62232SOL    HW188535  11.261   0.816   2.307
62232SOL    HW288536  11.188   0.948   2.320
62233SOL     OW88537   4.540   2.550  12.951
62233SOL    HW188538   4.476   2.483  12.973
62233SOL    HW288539   4.579   2.520  12.869
62234SOL     OW88540   3.920   7.499  11.185
62234SOL    HW188541   3.893   7.590  11.173
62234SOL    HW288542   3.851   7.448  11.141
62235SOL     OW88543  13.813   9.405   2.063
62235SOL    HW188544  13.758   9.456   2.123
62235SOL    HW288545  13.890   9.460   2.048
62236SOL     OW88546  10.394  10.933  11.106
62236SOL    HW188547  10.373  11.007  11.163
62236SOL    HW288548  10.403  10.858  11.165
62237SOL     OW88549   1.463   6.925  10.724
62237SOL    HW188550   1.475   7.006  10.775
62237SOL    HW288551   1.475   6.953  10.633
62238SOL     OW88552   1.209  12.432   4.128
62238SOL    HW188553   1.181  12.424   4.220
62238SOL    HW288554   1.174  12.354   4.086
62239SOL     OW88555   5.338  11.884  12.776
62239SOL    HW188556   5.254  11.929  12.777
62239SOL    HW288557   5.396  11.941  12.826
62240SOL     OW88558  13.272   8.921  11.557
62240SOL    HW188559  13.212   8.987  11.592
62240SOL    HW288560  13.245   8.840  11.601
62241SOL     OW88561   9.251   0.548   4.087
62241SOL    HW188562   9.255   0.508   4.000
62241SOL    HW288563   9.273   0.477   4.146
62242SOL     OW88564  11.864   5.108   5.950
62242SOL    HW188565  11.798   5.167   5.914
62242SOL    HW288566  11.947   5.154   5.936
62243SOL     OW88567   6.505   4.444   1.186
62243SOL    HW188568   6.426   4.407   1.145
62243SOL    HW288569   6.577   4.416   1.130
62244SOL     OW88570  12.614   8.233   4.617
62244SOL    HW188571  12.559   8.213   4.693
62244SOL    HW288572  12.572   8.186   4.545
62245SOL     OW88573  13.070  14.600   5.960
62245SOL    HW188574  13.071  14.637   5.871
62245SOL    HW288575  13.131  14.654   6.009
62246SOL     OW88576   8.271  11.334   7.824
62246SOL    HW188577   8.323  11.256   7.845
62246SOL    HW288578   8.204  11.302   7.763
62247SOL     OW88579   1.543  12.497  14.588
62247SOL    HW188580   1.629  12.502  14.630
62247SOL    HW288581   1.506  12.414  14.619
62248SOL     OW88582   3.859   0.393   1.145
62248SOL    HW188583   3.950   0.398   1.173
62248SOL    HW288584   3.835   0.483   1.124
62249SOL     OW88585  11.434   2.260  11.218
62249SOL    HW188586  11.509   2.225  11.169
62249SOL    HW288587  11.363   2.265  11.153
62250SOL     OW88588  10.283  12.717   7.263
62250SOL    HW188589  10.302  12.799   7.217
62250SOL    HW288590  10.191  12.701   7.247
62251SOL     OW88591   5.359   5.962   9.266
62251SOL    HW188592   5.448   5.998   9.265
62251SOL    HW288593   5.324   5.983   9.180
62252SOL     OW88594   5.393   7.615   7.333
62252SOL    HW188595   5.383   7.677   7.405
62252SOL    HW288596   5.439   7.665   7.265
62253SOL     OW88597  14.414  14.324  12.874
62253SOL    HW188598  14.508  14.341  12.870
62253SOL    HW288599  14.390  14.304  12.783
62254SOL     OW88600  13.161   0.843  12.632
62254SOL    HW188601  13.098   0.777  12.604
62254SOL    HW288602  13.225   0.795  12.685
62255SOL     OW88603  11.341   5.906   8.771
62255SOL    HW188604  11.375   5.995   8.781
62255SOL    HW288605  11.371   5.879   8.684
62256SOL     OW88606   2.241  12.062   4.890
62256SOL    HW188607   2.198  12.143   4.863
62256SOL    HW288608   2.179  12.021   4.951
62257SOL     OW88609  10.374  13.183   6.222
62257SOL    HW188610  10.308  13.133   6.174
62257SOL    HW288611  10.441  13.202   6.156
62258SOL     OW88612   5.649  10.226   9.324
62258SOL    HW188613   5.689  10.277   9.253
62258SOL    HW288614   5.712  10.232   9.396
62259SOL     OW88615  13.889   4.286   9.653
62259SOL    HW188616  13.870   4.377   9.675
62259SOL    HW288617  13.924   4.289   9.564
62260SOL     OW88618   8.874  13.560   3.939
62260SOL    HW188619   8.913  13.647   3.927
62260SOL    HW288620   8.949  13.500   3.943
62261SOL     OW88621   2.162   9.200   9.201
62261SOL    HW188622   2.208   9.122   9.231
62261SOL    HW288623   2.144   9.183   9.108
62262SOL     OW88624   4.587   5.162  14.567
62262SOL    HW188625   4.680   5.173  14.587
62262SOL    HW288626   4.586   5.133  14.476
62263SOL     OW88627  11.908   4.086   0.544
62263SOL    HW188628  11.860   4.088   0.627
62263SOL    HW288629  11.980   4.149   0.557
62264SOL     OW88630   4.561   7.213   6.344
62264SOL    HW188631   4.548   7.121   6.322
62264SOL    HW288632   4.644   7.236   6.302
62265SOL     OW88633  11.871   1.337   3.920
62265SOL    HW188634  11.830   1.289   3.992
62265SOL    HW288635  11.928   1.400   3.963
62266SOL     OW88636  10.565   3.397   7.139
62266SOL    HW188637  10.506   3.471   7.148
62266SOL    HW288638  10.586   3.394   7.045
62267SOL     OW88639  13.605   5.723   1.045
62267SOL    HW188640  13.601   5.667   0.968
62267SOL    HW288641  13.528   5.779   1.037
62268SOL     OW88642   7.717   1.223   1.684
62268SOL    HW188643   7.732   1.136   1.721
62268SOL    HW288644   7.757   1.220   1.598
62269SOL     OW88645   4.818  11.628   9.708
62269SOL    HW188646   4.740  11.573   9.699
62269SOL    HW288647   4.792  11.697   9.769
62270SOL     OW88648   7.166   9.314  13.523
62270SOL    HW188649   7.218   9.236  13.501
62270SOL    HW288650   7.229   9.374  13.563
62271SOL     OW88651   9.586   0.060  10.829
62271SOL    HW188652   9.592   0.064  10.733
62271SOL    HW288653   9.630  14.855  10.852
62272SOL     OW88654  10.832   9.342   3.979
62272SOL    HW188655  10.921   9.323   3.948
62272SOL    HW288656  10.835   9.327   4.073
62273SOL     OW88657   2.134   1.431   1.858
62273SOL    HW188658   2.123   1.385   1.775
62273SOL    HW288659   2.069   1.501   1.855
62274SOL     OW88660   4.091   8.422   8.191
62274SOL    HW188661   4.004   8.453   8.165
62274SOL    HW288662   4.084   8.407   8.285
62275SOL     OW88663   3.547  10.466   8.614
62275SOL    HW188664   3.625  10.426   8.652
62275SOL    HW288665   3.487  10.392   8.602
62276SOL     OW88666   6.073   9.373   7.940
62276SOL    HW188667   6.064   9.316   7.864
62276SOL    HW288668   6.016   9.334   8.006
62277SOL     OW88669   9.158   6.875   5.611
62277SOL    HW188670   9.186   6.812   5.678
62277SOL    HW288671   9.119   6.821   5.542
62278SOL     OW88672   0.309   0.520   5.824
62278SOL    HW188673   0.361   0.531   5.904
62278SOL    HW288674   0.324   0.430   5.797
62279SOL     OW88675   7.832   6.638  11.090
62279SOL    HW188676   7.793   6.557  11.125
62279SOL    HW288677   7.807   6.705  11.153
62280SOL     OW88678   8.765   6.701  13.212
62280SOL    HW188679   8.696   6.718  13.276
62280SOL    HW288680   8.822   6.637  13.254
62281SOL     OW88681  10.875   6.113   8.862
62281SOL    HW188682  10.962   6.075   8.850
62281SOL    HW288683  10.857   6.104   8.956
62282SOL     OW88684   7.236   0.286   8.606
62282SOL    HW188685   7.199   0.254   8.688
62282SOL    HW288686   7.213   0.220   8.541
62283SOL     OW88687   2.151  13.781  13.051
62283SOL    HW188688   2.239  13.792  13.014
62283SOL    HW288689   2.107  13.721  12.991
62284SOL     OW88690   4.786   1.583   8.932
62284SOL    HW188691   4.719   1.630   8.883
62284SOL    HW288692   4.758   1.590   9.023
62285SOL     OW88693  12.032   8.597  12.286
62285SOL    HW188694  12.030   8.521  12.344
62285SOL    HW288695  11.941   8.625  12.281
62286SOL     OW88696   7.014  11.136   6.429
62286SOL    HW188697   6.984  11.220   6.394
62286SOL    HW288698   6.938  11.079   6.424
62287SOL     OW88699   2.339   5.785  11.426
62287SOL    HW188700   2.296   5.747  11.504
62287SOL    HW288701   2.298   5.740  11.352
62288SOL     OW88702  11.989   6.711   2.418
62288SOL    HW188703  11.959   6.689   2.330
62288SOL    HW288704  12.065   6.767   2.404
62289SOL     OW88705  12.152   7.296   5.671
62289SOL    HW188706  12.183   7.386   5.682
62289SOL    HW288707  12.084   7.303   5.603
62290SOL     OW88708   0.359   3.683   8.631
62290SOL    HW188709   0.321   3.625   8.697
62290SOL    HW288710   0.285   3.738   8.602
62291SOL     OW88711   2.859   0.178   9.383
62291SOL    HW188712   2.873   0.113   9.452
62291SOL    HW288713   2.773   0.157   9.347
62292SOL     OW88714  14.401   3.856  13.635
62292SOL    HW188715  14.383   3.945  13.663
62292SOL    HW288716  14.363   3.801  13.704
62293SOL     OW88717   4.297  10.833   6.194
62293SOL    HW188718   4.381  10.847   6.238
62293SOL    HW288719   4.236  10.893   6.239
62294SOL     OW88720   5.371  12.237   1.089
62294SOL    HW188721   5.464  12.241   1.064
62294SOL    HW288722   5.352  12.324   1.124
62295SOL     OW88723   0.785   7.220   7.399
62295SOL    HW188724   0.765   7.262   7.483
62295SOL    HW288725   0.706   7.233   7.347
62296SOL     OW88726   7.943  13.663  12.288
62296SOL    HW188727   7.888  13.605  12.234
62296SOL    HW288728   7.989  13.718  12.225
62297SOL     OW88729   9.164   9.730   3.716
62297SOL    HW188730   9.144   9.808   3.664
62297SOL    HW288731   9.177   9.660   3.652
62298SOL     OW88732  10.726   1.533  13.592
62298SOL    HW188733  10.700   1.622  13.613
62298SOL    HW288734  10.757   1.496  13.675
62299SOL     OW88735   4.671  12.036   6.421
62299SOL    HW188736   4.717  11.953   6.409
62299SOL    HW288737   4.578  12.014   6.411
62300SOL     OW88738   5.787   8.186   3.718
62300SOL    HW188739   5.807   8.094   3.736
62300SOL    HW288740   5.713   8.206   3.776
62301SOL     OW88741  10.604   5.832  10.386
62301SOL    HW188742  10.633   5.761  10.328
62301SOL    HW288743  10.535   5.792  10.440
62302SOL     OW88744   1.056   8.932   1.443
62302SOL    HW188745   0.962   8.935   1.428
62302SOL    HW288746   1.068   8.866   1.512
62303SOL     OW88747  14.216   0.551   1.002
62303SOL    HW188748  14.182   0.484   1.061
62303SOL    HW288749  14.259   0.501   0.932
62304SOL     OW88750   3.086  10.406   8.151
62304SOL    HW188751   3.093  10.321   8.108
62304SOL    HW288752   3.031  10.458   8.093
62305SOL     OW88753   7.331  13.384  13.144
62305SOL    HW188754   7.375  13.350  13.222
62305SOL    HW288755   7.271  13.451  13.178
62306SOL     OW88756   9.355  12.484   7.897
62306SOL    HW188757   9.432  12.537   7.916
62306SOL    HW288758   9.325  12.515   7.812
62307SOL     OW88759  12.186  14.535   0.485
62307SOL    HW188760  12.262  14.576   0.527
62307SOL    HW288761  12.123  14.606   0.476
62308SOL     OW88762   8.669   7.312   1.837
62308SOL    HW188763   8.760   7.294   1.862
62308SOL    HW288764   8.646   7.242   1.776
62309SOL     OW88765   4.260   3.936   3.003
62309SOL    HW188766   4.197   4.008   2.997
62309SOL    HW288767   4.341   3.978   3.030
62310SOL     OW88768  13.492   1.628   8.015
62310SOL    HW188769  13.402   1.621   7.983
62310SOL    HW288770  13.488   1.598   8.106
62311SOL     OW88771  13.479   7.511   4.832
62311SOL    HW188772  13.529   7.546   4.906
62311SOL    HW288773  13.444   7.428   4.864
62312SOL     OW88774  14.163   5.045   6.158
62312SOL    HW188775  14.103   4.978   6.192
62312SOL    HW288776  14.216   4.999   6.093
62313SOL     OW88777  11.010  14.673   7.554
62313SOL    HW188778  11.057  14.641   7.631
62313SOL    HW288779  11.054  14.631   7.480
62314SOL     OW88780   2.572   1.851   6.828
62314SOL    HW188781   2.647   1.904   6.854
62314SOL    HW288782   2.606   1.795   6.758
62315SOL     OW88783   7.088   4.842   9.644
62315SOL    HW188784   7.115   4.910   9.583
62315SOL    HW288785   7.041   4.778   9.591
62316SOL     OW88786   8.388  12.236   4.396
62316SOL    HW188787   8.422  12.191   4.473
62316SOL    HW288788   8.408  12.328   4.411
62317SOL     OW88789   2.456   8.035   7.946
62317SOL    HW188790   2.513   8.056   8.020
62317SOL    HW288791   2.510   8.051   7.869
62318SOL     OW88792  10.955  12.441  10.936
62318SOL    HW188793  11.010  12.391  10.997
62318SOL    HW288794  10.866  12.414  10.957
62319SOL     OW88795  13.228   7.729   7.371
62319SOL    HW188796  13.238   7.667   7.298
62319SOL    HW288797  13.139   7.716   7.403
62320SOL     OW88798   4.414  11.933   9.301
62320SOL    HW188799   4.469  11.856   9.288
62320SOL    HW288800   4.330  11.898   9.330
62321SOL     OW88801   0.697   9.303   7.038
62321SOL    HW188802   0.602   9.306   7.027
62321SOL    HW288803   0.715   9.212   7.064
62322SOL     OW88804   4.547   1.148   2.233
62322SOL    HW188805   4.591   1.233   2.228
62322SOL    HW288806   4.587   1.106   2.309
62323SOL     OW88807   8.167  11.333   8.470
62323SOL    HW188808   8.141  11.263   8.530
62323SOL    HW288809   8.136  11.303   8.384
62324SOL     OW88810   5.177   1.549   4.136
62324SOL    HW188811   5.240   1.538   4.066
62324SOL    HW288812   5.162   1.461   4.169
62325SOL     OW88813   3.237   6.821   3.133
62325SOL    HW188814   3.323   6.823   3.091
62325SOL    HW288815   3.221   6.912   3.159
62326SOL     OW88816  13.040   4.161   3.316
62326SOL    HW188817  13.121   4.122   3.349
62326SOL    HW288818  12.973   4.095   3.333
62327SOL     OW88819   8.454   7.257  10.500
62327SOL    HW188820   8.468   7.305  10.581
62327SOL    HW288821   8.363   7.276  10.476
62328SOL     OW88822   2.958   1.110  12.162
62328SOL    HW188823   3.010   1.030  12.165
62328SOL    HW288824   3.019   1.180  12.186
62329SOL     OW88825  10.850   4.689   5.001
62329SOL    HW188826  10.914   4.621   5.019
62329SOL    HW288827  10.851   4.699   4.905
62330SOL     OW88828   4.440  11.900  12.745
62330SOL    HW188829   4.428  11.941  12.660
62330SOL    HW288830   4.361  11.847  12.758
62331SOL     OW88831   5.874  10.562   0.475
62331SOL    HW188832   5.911  10.631   0.530
62331SOL    HW288833   5.868  10.601   0.388
62332SOL     OW88834   6.576  14.265  14.853
62332SOL    HW188835   6.611  14.193   0.029
62332SOL    HW288836   6.481  14.261  14.868
62333SOL     OW88837   8.051  13.129   8.708
62333SOL    HW188838   7.966  13.125   8.752
62333SOL    HW288839   8.029  13.127   8.615
62334SOL     OW88840   2.082   0.373  14.490
62334SOL    HW188841   2.075   0.457  14.535
62334SOL    HW288842   2.162   0.380  14.438
62335SOL     OW88843   9.224   6.219   0.937
62335SOL    HW188844   9.205   6.290   0.998
62335SOL    HW288845   9.223   6.261   0.851
62336SOL     OW88846   1.161   4.795   9.708
62336SOL    HW188847   1.247   4.828   9.681
62336SOL    HW288848   1.177   4.703   9.729
62337SOL     OW88849   3.190  11.446   6.911
62337SOL    HW188850   3.189  11.439   6.815
62337SOL    HW288851   3.110  11.494   6.933
62338SOL     OW88852   7.870  12.304   0.480
62338SOL    HW188853   7.899  12.370   0.416
62338SOL    HW288854   7.850  12.354   0.559
62339SOL     OW88855   6.576   0.005   6.176
62339SOL    HW188856   6.642   0.039   6.237
62339SOL    HW288857   6.540   0.083   6.133
62340SOL     OW88858   5.614   9.172  12.479
62340SOL    HW188859   5.535   9.118  12.469
62340SOL    HW288860   5.627   9.211  12.393
62341SOL     OW88861  10.216   9.574   4.135
62341SOL    HW188862  10.182   9.518   4.205
62341SOL    HW288863  10.309   9.584   4.156
62342SOL     OW88864   7.317  10.592  14.312
62342SOL    HW188865   7.276  10.616  14.395
62342SOL    HW288866   7.244  10.592  14.249
62343SOL     OW88867   7.923   5.508   5.876
62343SOL    HW188868   7.897   5.525   5.966
62343SOL    HW288869   8.017   5.487   5.882
62344SOL     OW88870  14.536   3.905   4.578
62344SOL    HW188871  14.486   3.973   4.624
62344SOL    HW288872  14.520   3.922   4.485
62345SOL     OW88873   3.966   3.449   1.474
62345SOL    HW188874   3.908   3.414   1.407
62345SOL    HW288875   4.008   3.525   1.433
62346SOL     OW88876   0.044  13.686   3.355
62346SOL    HW188877  14.871  13.670   3.435
62346SOL    HW288878   0.131  13.713   3.385
62347SOL     OW88879   7.179  13.505  12.382
62347SOL    HW188880   7.142  13.500  12.294
62347SOL    HW288881   7.112  13.548  12.434
62348SOL     OW88882   4.991   7.520  10.510
62348SOL    HW188883   4.958   7.462  10.442
62348SOL    HW288884   4.972   7.474  10.592
62349SOL     OW88885  14.608  13.326   4.256
62349SOL    HW188886  14.605  13.256   4.191
62349SOL    HW288887  14.697  13.362   4.249
62350SOL     OW88888   9.612   8.970   3.771
62350SOL    HW188889   9.665   8.906   3.819
62350SOL    HW288890   9.586   8.924   3.691
62351SOL     OW88891  10.328  12.980   1.132
62351SOL    HW188892  10.294  13.065   1.158
62351SOL    HW288893  10.251  12.931   1.103
62352SOL     OW88894   4.239  13.147  12.437
62352SOL    HW188895   4.230  13.052  12.445
62352SOL    HW288896   4.149  13.179  12.433
62353SOL     OW88897   3.147   8.307  12.830
62353SOL    HW188898   3.238   8.305  12.859
62353SOL    HW288899   3.126   8.216  12.810
62354SOL     OW88900   0.632  10.043   3.332
62354SOL    HW188901   0.714  10.024   3.286
62354SOL    HW288902   0.617  10.137   3.315
62355SOL     OW88903   3.681   5.201   1.151
62355SOL    HW188904   3.611   5.166   1.096
62355SOL    HW288905   3.747   5.131   1.153
62356SOL     OW88906  13.291  12.311   0.128
62356SOL    HW188907  13.214  12.359   0.158
62356SOL    HW288908  13.259  12.223   0.107
62357SOL     OW88909  10.545   5.379   7.762
62357SOL    HW188910  10.591   5.423   7.690
62357SOL    HW288911  10.468   5.340   7.721
62358SOL     OW88912   4.850   0.712   6.420
62358SOL    HW188913   4.870   0.619   6.428
62358SOL    HW288914   4.796   0.731   6.496
62359SOL     OW88915   8.678   4.148   1.291
62359SOL    HW188916   8.669   4.190   1.376
62359SOL    HW288917   8.739   4.075   1.307
62360SOL     OW88918  10.513   4.020   5.949
62360SOL    HW188919  10.512   4.115   5.962
62360SOL    HW288920  10.470   4.008   5.864
62361SOL     OW88921  11.652   9.014   7.286
62361SOL    HW188922  11.694   9.056   7.211
62361SOL    HW288923  11.699   9.048   7.362
62362SOL     OW88924   4.197  11.692   7.724
62362SOL    HW188925   4.232  11.605   7.742
62362SOL    HW288926   4.103  11.684   7.740
62363SOL     OW88927   9.664   8.310   2.543
62363SOL    HW188928   9.636   8.219   2.552
62363SOL    HW288929   9.599   8.349   2.485
62364SOL     OW88930   1.206   1.388   7.343
62364SOL    HW188931   1.138   1.369   7.408
62364SOL    HW288932   1.288   1.380   7.391
62365SOL     OW88933  13.716   6.365  12.185
62365SOL    HW188934  13.800   6.370  12.138
62365SOL    HW288935  13.741   6.357  12.277
62366SOL     OW88936   8.243   1.808   3.659
62366SOL    HW188937   8.238   1.795   3.564
62366SOL    HW288938   8.336   1.814   3.678
62367SOL     OW88939   0.606   8.144   0.677
62367SOL    HW188940   0.678   8.131   0.615
62367SOL    HW288941   0.538   8.084   0.647
62368SOL     OW88942  13.335  11.868   6.965
62368SOL    HW188943  13.342  11.953   7.009
62368SOL    HW288944  13.417  11.823   6.984
62369SOL     OW88945   9.790   5.474  10.019
62369SOL    HW188946   9.715   5.513  10.064
62369SOL    HW288947   9.819   5.541   9.957
62370SOL     OW88948   4.666   4.665  13.600
62370SOL    HW188949   4.723   4.598  13.639
62370SOL    HW288950   4.608   4.617  13.542
62371SOL     OW88951   0.435  10.219   9.478
62371SOL    HW188952   0.421  10.237   9.571
62371SOL    HW288953   0.487  10.294   9.447
62372SOL     OW88954   7.125   4.338   2.075
62372SOL    HW188955   7.187   4.398   2.033
62372SOL    HW288956   7.045   4.389   2.084
62373SOL     OW88957   3.809   4.082  14.324
62373SOL    HW188958   3.718   4.111  14.314
62373SOL    HW288959   3.851   4.107  14.242
62374SOL     OW88960  13.256  10.686   6.521
62374SOL    HW188961  13.290  10.653   6.438
62374SOL    HW288962  13.168  10.719   6.499
62375SOL     OW88963   7.331  11.787   1.201
62375SOL    HW188964   7.356  11.834   1.280
62375SOL    HW288965   7.248  11.744   1.223
62376SOL     OW88966  12.206   3.826   8.297
62376SOL    HW188967  12.203   3.731   8.302
62376SOL    HW288968  12.230   3.845   8.207
62377SOL     OW88969  10.049   0.891   7.020
62377SOL    HW188970  10.117   0.828   6.996
62377SOL    HW288971  10.088   0.977   7.001
62378SOL     OW88972  13.457  11.517   6.215
62378SOL    HW188973  13.493  11.429   6.207
62378SOL    HW288974  13.501  11.567   6.146
62379SOL     OW88975   5.692   1.536   0.765
62379SOL    HW188976   5.649   1.559   0.847
62379SOL    HW288977   5.785   1.550   0.782
62380SOL     OW88978  13.857   3.587  12.955
62380SOL    HW188979  13.840   3.509  12.902
62380SOL    HW288980  13.889   3.652  12.892
62381SOL     OW88981  10.569  13.550  11.745
62381SOL    HW188982  10.581  13.460  11.715
62381SOL    HW288983  10.652  13.571  11.789
62382SOL     OW88984  11.719  12.217   0.775
62382SOL    HW188985  11.654  12.188   0.710
62382SOL    HW288986  11.779  12.143   0.782
62383SOL     OW88987   6.938   5.029   2.794
62383SOL    HW188988   7.011   5.084   2.766
62383SOL    HW288989   6.957   4.943   2.756
62384SOL     OW88990   5.781   0.308  12.384
62384SOL    HW188991   5.877   0.306  12.391
62384SOL    HW288992   5.765   0.333  12.293
62385SOL     OW88993   7.255   7.163   6.405
62385SOL    HW188994   7.174   7.115   6.384
62385SOL    HW288995   7.253   7.172   6.500
62386SOL     OW88996  11.296  14.750  10.256
62386SOL    HW188997  11.374  14.786  10.299
62386SOL    HW288998  11.305  14.776  10.164
62387SOL     OW88999  11.687   0.472   1.586
62387SOL    HW189000  11.631   0.442   1.514
62387SOL    HW289001  11.776   0.468   1.550
62388SOL     OW89002   4.341  12.384   8.212
62388SOL    HW189003   4.297  12.301   8.230
62388SOL    HW289004   4.336  12.395   8.117
62389SOL     OW89005  12.158   1.234  13.693
62389SOL    HW189006  12.222   1.299  13.664
62389SOL    HW289007  12.080   1.252  13.641
62390SOL     OW89008   8.767   9.373   6.928
62390SOL    HW189009   8.715   9.351   6.851
62390SOL    HW289010   8.775   9.291   6.976
62391SOL     OW89011   1.290  13.670   8.743
62391SOL    HW189012   1.377  13.649   8.710
62391SOL    HW289013   1.235  13.597   8.713
62392SOL     OW89014   1.504  13.299   4.063
62392SOL    HW189015   1.476  13.211   4.087
62392SOL    HW289016   1.437  13.330   4.002
62393SOL     OW89017  11.629   4.144   0.013
62393SOL    HW189018  11.564   4.099  14.836
62393SOL    HW289019  11.701   4.082   0.022
62394SOL     OW89020   5.296  12.396   8.954
62394SOL    HW189021   5.295  12.340   9.031
62394SOL    HW289022   5.225  12.363   8.898
62395SOL     OW89023  10.026   9.343   6.739
62395SOL    HW189024   9.964   9.383   6.801
62395SOL    HW289025  10.111   9.351   6.782
62396SOL     OW89026   6.444   3.004   6.753
62396SOL    HW189027   6.380   2.946   6.794
62396SOL    HW289028   6.454   2.969   6.664
62397SOL     OW89029  14.099  10.234   5.817
62397SOL    HW189030  14.187  10.271   5.815
62397SOL    HW289031  14.041  10.310   5.823
62398SOL     OW89032   5.387  10.030   6.204
62398SOL    HW189033   5.372  10.025   6.109
62398SOL    HW289034   5.457  10.094   6.213
62399SOL     OW89035   1.026   8.705  10.821
62399SOL    HW189036   1.117   8.730  10.835
62399SOL    HW289037   0.981   8.788  10.806
62400SOL     OW89038   1.077   9.145   7.678
62400SOL    HW189039   0.999   9.177   7.723
62400SOL    HW289040   1.150   9.178   7.730
62401SOL     OW89041   1.703  14.220   6.561
62401SOL    HW189042   1.774  14.167   6.525
62401SOL    HW289043   1.734  14.247   6.647
62402SOL     OW89044  14.233   7.755   0.038
62402SOL    HW189045  14.310   7.745  14.858
62402SOL    HW289046  14.179   7.679   0.019
62403SOL     OW89047  10.759  12.353   6.824
62403SOL    HW189048  10.783  12.427   6.880
62403SOL    HW289049  10.667  12.336   6.846
62404SOL     OW89050   7.551   9.698  10.000
62404SOL    HW189051   7.508   9.630  10.053
62404SOL    HW289052   7.482   9.762   9.982
62405SOL     OW89053   1.197   6.243   6.394
62405SOL    HW189054   1.102   6.239   6.409
62405SOL    HW289055   1.223   6.151   6.389
62406SOL     OW89056  10.871   6.546  12.319
62406SOL    HW189057  10.827   6.472  12.360
62406SOL    HW289058  10.804   6.587  12.265
62407SOL     OW89059  11.868  13.752   3.405
62407SOL    HW189060  11.871  13.705   3.488
62407SOL    HW289061  11.862  13.682   3.339
62408SOL     OW89062  13.856   6.011   6.066
62408SOL    HW189063  13.870   5.933   6.012
62408SOL    HW289064  13.860   6.084   6.004
62409SOL     OW89065  14.422   7.258   1.804
62409SOL    HW189066  14.518   7.250   1.800
62409SOL    HW289067  14.391   7.167   1.804
62410SOL     OW89068   9.430   1.262   2.426
62410SOL    HW189069   9.397   1.331   2.370
62410SOL    HW289070   9.437   1.302   2.513
62411SOL     OW89071  11.914  10.341   0.260
62411SOL    HW189072  11.980  10.375   0.320
62411SOL    HW289073  11.944  10.369   0.173
62412SOL     OW89074  12.253  14.875   2.423
62412SOL    HW189075  12.259   0.094   2.435
62412SOL    HW289076  12.223  14.865   2.333
62413SOL     OW89077   0.724   6.326   6.650
62413SOL    HW189078   0.674   6.245   6.663
62413SOL    HW289079   0.679   6.370   6.577
62414SOL     OW89080   9.363   4.330  12.089
62414SOL    HW189081   9.366   4.405  12.148
62414SOL    HW289082   9.270   4.313  12.076
62415SOL     OW89083   5.049   3.073  12.148
62415SOL    HW189084   4.960   3.039  12.144
62415SOL    HW289085   5.079   3.050  12.236
62416SOL     OW89086   6.156   1.888  12.341
62416SOL    HW189087   6.176   1.956  12.277
62416SOL    HW289088   6.236   1.881  12.394
62417SOL     OW89089   2.711  10.326   6.910
62417SOL    HW189090   2.758  10.243   6.901
62417SOL    HW289091   2.702  10.339   7.004
62418SOL     OW89092  12.647   0.681  10.131
62418SOL    HW189093  12.687   0.634  10.204
62418SOL    HW289094  12.569   0.630  10.108
62419SOL     OW89095  11.768  13.948   0.810
62419SOL    HW189096  11.854  13.984   0.789
62419SOL    HW289097  11.731  13.922   0.725
62420SOL     OW89098  10.830  14.538  12.373
62420SOL    HW189099  10.894  14.568  12.309
62420SOL    HW289100  10.849  14.589  12.451
62421SOL     OW89101  13.160   6.862  10.687
62421SOL    HW189102  13.097   6.883  10.618
62421SOL    HW289103  13.244   6.856  10.641
62422SOL     OW89104  11.829   7.996  10.084
62422SOL    HW189105  11.863   8.007  10.173
62422SOL    HW289106  11.858   7.909  10.058
62423SOL     OW89107   9.300  14.325   5.518
62423SOL    HW189108   9.360  14.252   5.537
62423SOL    HW289109   9.314  14.342   5.424
62424SOL     OW89110  11.222   9.786   4.052
62424SOL    HW189111  11.171   9.718   4.007
62424SOL    HW289112  11.188   9.786   4.141
62425SOL     OW89113  14.806   2.640   5.380
62425SOL    HW189114  14.778   2.719   5.333
62425SOL    HW289115  14.763   2.568   5.335
62426SOL     OW89116   5.729   8.791   4.264
62426SOL    HW189117   5.787   8.810   4.191
62426SOL    HW289118   5.773   8.827   4.341
62427SOL     OW89119   0.000   3.893   8.913
62427SOL    HW189120  14.861   3.917   8.822
62427SOL    HW289121   0.092   3.916   8.928
62428SOL     OW89122  10.960   4.064  14.349
62428SOL    HW189123  11.036   4.062  14.406
62428SOL    HW289124  10.922   3.977  14.357
62429SOL     OW89125   8.540   8.149   0.282
62429SOL    HW189126   8.483   8.126   0.355
62429SOL    HW289127   8.615   8.191   0.323
62430SOL     OW89128   6.072   7.627   8.801
62430SOL    HW189129   6.090   7.533   8.794
62430SOL    HW289130   5.987   7.638   8.759
62431SOL     OW89131  13.133   4.441   6.009
62431SOL    HW189132  13.095   4.357   5.984
62431SOL    HW289133  13.061   4.487   6.051
62432SOL     OW89134   8.686   3.911   2.507
62432SOL    HW189135   8.660   3.921   2.415
62432SOL    HW289136   8.611   3.868   2.548
62433SOL     OW89137   3.105  10.520   0.285
62433SOL    HW189138   3.188  10.563   0.301
62433SOL    HW289139   3.113  10.435   0.327
62434SOL     OW89140  11.446  11.295  12.759
62434SOL    HW189141  11.382  11.299  12.688
62434SOL    HW289142  11.494  11.377  12.752
62435SOL     OW89143   7.608  10.914   5.363
62435SOL    HW189144   7.544  10.930   5.433
62435SOL    HW289145   7.554  10.894   5.287
62436SOL     OW89146  12.125   7.216   2.936
62436SOL    HW189147  12.144   7.179   3.023
62436SOL    HW289148  12.150   7.147   2.875
62437SOL     OW89149   4.922  11.557   0.600
62437SOL    HW189150   4.998  11.597   0.642
62437SOL    HW289151   4.959  11.494   0.537
62438SOL     OW89152  11.153   3.894   4.408
62438SOL    HW189153  11.174   3.956   4.338
62438SOL    HW289154  11.211   3.920   4.480
62439SOL     OW89155   9.568   5.383  10.843
62439SOL    HW189156   9.575   5.435  10.763
62439SOL    HW289157   9.565   5.447  10.914
62440SOL     OW89158  12.098  13.240   7.432
62440SOL    HW189159  12.153  13.243   7.354
62440SOL    HW289160  12.075  13.148   7.443
62441SOL     OW89161   8.669   2.927  10.211
62441SOL    HW189162   8.695   2.879  10.290
62441SOL    HW289163   8.619   3.001  10.243
62442SOL     OW89164   7.279   7.184   4.020
62442SOL    HW189165   7.231   7.134   3.954
62442SOL    HW289166   7.214   7.241   4.059
62443SOL     OW89167  10.498   8.671   9.297
62443SOL    HW189168  10.457   8.731   9.359
62443SOL    HW289169  10.437   8.597   9.291
62444SOL     OW89170   7.644   6.368   6.371
62444SOL    HW189171   7.595   6.397   6.294
62444SOL    HW289172   7.726   6.416   6.367
62445SOL     OW89173   4.340   3.823   8.507
62445SOL    HW189174   4.431   3.852   8.510
62445SOL    HW289175   4.308   3.837   8.596
62446SOL     OW89176   8.945  12.911   4.643
62446SOL    HW189177   9.007  12.913   4.570
62446SOL    HW289178   8.859  12.915   4.601
62447SOL     OW89179   0.295   7.734   1.659
62447SOL    HW189180   0.362   7.801   1.668
62447SOL    HW289181   0.344   7.653   1.643
62448SOL     OW89182  14.540   8.493   6.840
62448SOL    HW189183  14.609   8.509   6.777
62448SOL    HW289184  14.459   8.498   6.789
62449SOL     OW89185  13.859  10.198  10.517
62449SOL    HW189186  13.846  10.262  10.447
62449SOL    HW289187  13.807  10.122  10.490
62450SOL     OW89188   8.127   0.100   2.880
62450SOL    HW189189   8.219   0.093   2.856
62450SOL    HW289190   8.119   0.045   2.958
62451SOL     OW89191   5.138  14.231   0.466
62451SOL    HW189192   5.173  14.240   0.554
62451SOL    HW289193   5.197  14.170   0.422
62452SOL     OW89194   9.382   9.913   0.517
62452SOL    HW189195   9.437   9.941   0.444
62452SOL    HW289196   9.443   9.885   0.585
62453SOL     OW89197   4.619  13.706  11.494
62453SOL    HW189198   4.642  13.779  11.436
62453SOL    HW289199   4.534  13.677  11.462
62454SOL     OW89200   6.637  13.105   6.449
62454SOL    HW189201   6.702  13.053   6.402
62454SOL    HW289202   6.688  13.156   6.511
62455SOL     OW89203   8.943  11.729  11.664
62455SOL    HW189204   8.902  11.759  11.583
62455SOL    HW289205   8.967  11.810  11.710
62456SOL     OW89206   3.316   0.882  10.736
62456SOL    HW189207   3.335   0.800  10.781
62456SOL    HW289208   3.225   0.873  10.708
62457SOL     OW89209  10.338  11.159  10.669
62457SOL    HW189210  10.371  11.093  10.731
62457SOL    HW289211  10.394  11.149  10.591
62458SOL     OW89212   2.489  14.051   5.428
62458SOL    HW189213   2.584  14.059   5.440
62458SOL    HW289214   2.463  14.134   5.389
62459SOL     OW89215   7.854   9.556  14.626
62459SOL    HW189216   7.936   9.539  14.673
62459SOL    HW289217   7.875   9.536  14.534
62460SOL     OW89218   9.856   2.415  10.434
62460SOL    HW189219   9.903   2.494  10.408
62460SOL    HW289220   9.886   2.398  10.524
62461SOL     OW89221   8.871   7.593   6.223
62461SOL    HW189222   8.938   7.526   6.215
62461SOL    HW289223   8.909   7.660   6.279
62462SOL     OW89224   1.846   7.139   5.623
62462SOL    HW189225   1.864   7.212   5.683
62462SOL    HW289226   1.928   7.128   5.575
62463SOL     OW89227   6.120   8.920  11.110
62463SOL    HW189228   6.161   8.835  11.097
62463SOL    HW289229   6.084   8.917  11.198
62464SOL     OW89230   5.950  13.150   6.731
62464SOL    HW189231   5.935  13.170   6.823
62464SOL    HW289232   5.990  13.063   6.731
62465SOL     OW89233  14.613  14.093   2.280
62465SOL    HW189234  14.664  14.169   2.252
62465SOL    HW289235  14.631  14.026   2.214
62466SOL     OW89236  10.006  11.401   0.782
62466SOL    HW189237   9.936  11.396   0.716
62466SOL    HW289238   9.980  11.473   0.839
62467SOL     OW89239   6.394  10.825   6.783
62467SOL    HW189240   6.406  10.920   6.774
62467SOL    HW289241   6.304  10.810   6.754
62468SOL     OW89242   6.478   6.450   0.685
62468SOL    HW189243   6.492   6.538   0.650
62468SOL    HW289244   6.383   6.440   0.689
62469SOL     OW89245  13.164   6.957   5.414
62469SOL    HW189246  13.251   6.925   5.390
62469SOL    HW289247  13.171   7.053   5.408
62470SOL     OW89248   1.520   6.728   3.109
62470SOL    HW189249   1.467   6.677   3.171
62470SOL    HW289250   1.516   6.817   3.142
62471SOL     OW89251   8.355   1.388   5.134
62471SOL    HW189252   8.292   1.317   5.122
62471SOL    HW289253   8.311   1.465   5.097
62472SOL     OW89254   3.017  14.347  12.749
62472SOL    HW189255   3.054  14.331  12.835
62472SOL    HW289256   3.062  14.286  12.691
62473SOL     OW89257  10.360   7.051   6.860
62473SOL    HW189258  10.397   7.123   6.810
62473SOL    HW289259  10.366   6.975   6.802
62474SOL     OW89260  14.442   4.518   5.640
62474SOL    HW189261  14.371   4.471   5.684
62474SOL    HW289262  14.441   4.605   5.679
62475SOL     OW89263   0.900   5.523   9.787
62475SOL    HW189264   0.885   5.489   9.698
62475SOL    HW289265   0.967   5.464   9.823
62476SOL     OW89266  12.821  12.156   6.628
62476SOL    HW189267  12.884  12.200   6.685
62476SOL    HW289268  12.750  12.130   6.687
62477SOL     OW89269   9.997   9.218   8.024
62477SOL    HW189270  10.056   9.241   7.952
62477SOL    HW289271   9.921   9.179   7.981
62478SOL     OW89272   6.474   8.522   2.737
62478SOL    HW189273   6.528   8.531   2.815
62478SOL    HW289274   6.384   8.534   2.768
62479SOL     OW89275  13.379  11.820   9.997
62479SOL    HW189276  13.340  11.843  10.082
62479SOL    HW289277  13.470  11.800  10.018
62480SOL     OW89278   1.385   1.389  11.464
62480SOL    HW189279   1.402   1.301  11.499
62480SOL    HW289280   1.399   1.447  11.538
62481SOL     OW89281   6.318   7.849  11.375
62481SOL    HW189282   6.293   7.855  11.283
62481SOL    HW289283   6.349   7.937  11.397
62482SOL     OW89284   2.269   6.568   3.316
62482SOL    HW189285   2.240   6.618   3.240
62482SOL    HW289286   2.360   6.595   3.329
62483SOL     OW89287   1.141  13.478  11.509
62483SOL    HW189288   1.060  13.513  11.472
62483SOL    HW289289   1.161  13.400  11.456
62484SOL     OW89290   8.166   0.728   9.856
62484SOL    HW189291   8.130   0.639   9.853
62484SOL    HW289292   8.151   0.762   9.768
62485SOL     OW89293  10.995   5.461   7.882
62485SOL    HW189294  10.964   5.518   7.811
62485SOL    HW289295  10.977   5.372   7.851
62486SOL     OW89296   7.996  13.495  11.525
62486SOL    HW189297   8.047  13.415  11.534
62486SOL    HW289298   8.061  13.565  11.531
62487SOL     OW89299  13.890   5.195   8.542
62487SOL    HW189300  13.872   5.266   8.481
62487SOL    HW289301  13.879   5.115   8.490
62488SOL     OW89302   2.745  10.899   9.891
62488SOL    HW189303   2.720  10.986   9.922
62488SOL    HW289304   2.695  10.887   9.810
62489SOL     OW89305   7.678  13.276   7.768
62489SOL    HW189306   7.747  13.270   7.702
62489SOL    HW289307   7.723  13.261   7.852
62490SOL     OW89308   8.005  13.854   6.798
62490SOL    HW189309   7.961  13.933   6.829
62490SOL    HW289310   8.025  13.805   6.877
62491SOL     OW89311   7.252   6.140  12.808
62491SOL    HW189312   7.158   6.124  12.797
62491SOL    HW289313   7.258   6.231  12.836
62492SOL     OW89314   0.970   4.332  14.613
62492SOL    HW189315   0.944   4.332  14.521
62492SOL    HW289316   1.050   4.385  14.615
62493SOL     OW89317   8.405  14.186   5.842
62493SOL    HW189318   8.353  14.180   5.762
62493SOL    HW289319   8.471  14.253   5.822
62494SOL     OW89320   9.183   3.057  11.514
62494SOL    HW189321   9.227   3.140  11.498
62494SOL    HW289322   9.090   3.075  11.500
62495SOL     OW89323  10.326  11.955  11.198
62495SOL    HW189324  10.244  11.993  11.165
62495SOL    HW289325  10.373  11.928  11.119
62496SOL     OW89326  13.372   5.779   4.983
62496SOL    HW189327  13.386   5.694   5.024
62496SOL    HW289328  13.443   5.787   4.919
62497SOL     OW89329  13.589  12.205   0.189
62497SOL    HW189330  13.511  12.200   0.244
62497SOL    HW289331  13.575  12.282   0.134
62498SOL     OW89332  12.107  14.244   7.514
62498SOL    HW189333  12.196  14.214   7.497
62498SOL    HW289334  12.118  14.329   7.556
62499SOL     OW89335   6.374   1.896   8.539
62499SOL    HW189336   6.422   1.888   8.457
62499SOL    HW289337   6.400   1.819   8.589
62500SOL     OW89338   6.283   5.702  11.025
62500SOL    HW189339   6.248   5.787  10.996
62500SOL    HW289340   6.226   5.675  11.096
62501SOL     OW89341   8.585   9.544   7.768
62501SOL    HW189342   8.563   9.461   7.726
62501SOL    HW289343   8.545   9.538   7.855
62502SOL     OW89344  12.201   8.295   5.611
62502SOL    HW189345  12.283   8.320   5.654
62502SOL    HW289346  12.228   8.235   5.541
62503SOL     OW89347   2.819   0.741   1.012
62503SOL    HW189348   2.897   0.694   0.984
62503SOL    HW289349   2.852   0.815   1.064
62504SOL     OW89350  12.176   1.565  11.420
62504SOL    HW189351  12.191   1.553  11.514
62504SOL    HW289352  12.165   1.659  11.410
62505SOL     OW89353  10.965   1.415   1.866
62505SOL    HW189354  11.045   1.459   1.894
62505SOL    HW289355  10.951   1.346   1.931
62506SOL     OW89356  14.732   8.967   6.085
62506SOL    HW189357  14.754   9.034   6.149
62506SOL    HW289358  14.652   8.999   6.043
62507SOL     OW89359   2.366  10.655   5.190
62507SOL    HW189360   2.357  10.743   5.225
62507SOL    HW289361   2.433  10.663   5.122
62508SOL     OW89362   1.040   0.978  11.699
62508SOL    HW189363   1.047   0.990  11.794
62508SOL    HW289364   1.058   1.065  11.663
62509SOL     OW89365  10.217   1.233   9.387
62509SOL    HW189366  10.160   1.182   9.444
62509SOL    HW289367  10.156   1.282   9.331
62510SOL     OW89368   4.480   1.484   5.949
62510SOL    HW189369   4.431   1.419   5.898
62510SOL    HW289370   4.571   1.455   5.942
62511SOL     OW89371  14.249   6.870   3.632
62511SOL    HW189372  14.316   6.816   3.591
62511SOL    HW289373  14.177   6.871   3.569
62512SOL     OW89374  11.431   1.002   9.766
62512SOL    HW189375  11.338   0.981   9.764
62512SOL    HW289376  11.471   0.926   9.809
62513SOL     OW89377   7.209   8.488   7.614
62513SOL    HW189378   7.253   8.543   7.679
62513SOL    HW289379   7.199   8.403   7.656
62514SOL     OW89380  11.875  12.157  11.853
62514SOL    HW189381  11.811  12.228  11.858
62514SOL    HW289382  11.959  12.201  11.844
62515SOL     OW89383   4.576  12.583  11.147
62515SOL    HW189384   4.542  12.609  11.062
62515SOL    HW289385   4.655  12.533  11.127
62516SOL     OW89386   6.868   6.076   7.978
62516SOL    HW189387   6.952   6.055   7.938
62516SOL    HW289388   6.809   6.006   7.948
62517SOL     OW89389   1.468   1.330   3.250
62517SOL    HW189390   1.384   1.377   3.256
62517SOL    HW289391   1.492   1.337   3.157
62518SOL     OW89392   0.621   5.739   7.231
62518SOL    HW189393   0.678   5.814   7.248
62518SOL    HW289394   0.670   5.664   7.266
62519SOL     OW89395  12.360  12.852   1.537
62519SOL    HW189396  12.328  12.916   1.601
62519SOL    HW289397  12.280  12.810   1.504
62520SOL     OW89398  14.121   7.085   0.716
62520SOL    HW189399  14.048   7.148   0.719
62520SOL    HW289400  14.178   7.112   0.788
62521SOL     OW89401   4.556   4.774  10.449
62521SOL    HW189402   4.465   4.759  10.425
62521SOL    HW289403   4.571   4.718  10.525
62522SOL     OW89404  14.188   1.446  13.843
62522SOL    HW189405  14.244   1.487  13.909
62522SOL    HW289406  14.248   1.388  13.795
62523SOL     OW89407   7.817   9.619   4.540
62523SOL    HW189408   7.732   9.656   4.565
62523SOL    HW289409   7.881   9.683   4.573
62524SOL     OW89410   1.699   8.948   8.483
62524SOL    HW189411   1.726   8.985   8.567
62524SOL    HW289412   1.778   8.952   8.429
62525SOL     OW89413   3.603   1.523  11.698
62525SOL    HW189414   3.543   1.469  11.749
62525SOL    HW289415   3.648   1.461  11.640
62526SOL     OW89416   4.100  14.581   7.666
62526SOL    HW189417   4.186  14.558   7.631
62526SOL    HW289418   4.054  14.620   7.592
62527SOL     OW89419  14.063   5.316   2.962
62527SOL    HW189420  14.016   5.244   2.921
62527SOL    HW289421  14.154   5.287   2.963
62528SOL     OW89422   5.894  13.719  10.285
62528SOL    HW189423   5.913  13.629  10.311
62528SOL    HW289424   5.843  13.712  10.205
62529SOL     OW89425   7.278  10.491   2.647
62529SOL    HW189426   7.246  10.401   2.655
62529SOL    HW289427   7.305  10.499   2.556
62530SOL     OW89428  12.124   5.478   7.173
62530SOL    HW189429  12.111   5.422   7.249
62530SOL    HW289430  12.182   5.427   7.115
62531SOL     OW89431  10.534   7.417   9.975
62531SOL    HW189432  10.484   7.337   9.959
62531SOL    HW289433  10.600   7.419   9.905
62532SOL     OW89434   4.830   2.702   7.836
62532SOL    HW189435   4.758   2.766   7.833
62532SOL    HW289436   4.891   2.738   7.901
62533SOL     OW89437   0.774   8.815   5.122
62533SOL    HW189438   0.797   8.810   5.029
62533SOL    HW289439   0.800   8.903   5.149
62534SOL     OW89440   3.859  11.076   9.056
62534SOL    HW189441   3.777  11.034   9.083
62534SOL    HW289442   3.880  11.134   9.130
62535SOL     OW89443  12.523  10.734   1.029
62535SOL    HW189444  12.559  10.696   0.949
62535SOL    HW289445  12.476  10.662   1.071
62536SOL     OW89446  10.978   8.300   3.020
62536SOL    HW189447  10.954   8.388   2.993
62536SOL    HW289448  11.047   8.274   2.960
62537SOL     OW89449  12.240  14.212   5.135
62537SOL    HW189450  12.334  14.205   5.156
62537SOL    HW289451  12.197  14.220   5.220
62538SOL     OW89452  11.281   4.442   6.364
62538SOL    HW189453  11.343   4.399   6.304
62538SOL    HW289454  11.205   4.384   6.364
62539SOL     OW89455   7.532  13.488  14.346
62539SOL    HW189456   7.570  13.524  14.426
62539SOL    HW289457   7.588  13.520  14.276
62540SOL     OW89458   6.468  12.370   2.599
62540SOL    HW189459   6.523  12.306   2.554
62540SOL    HW289460   6.520  12.398   2.674
62541SOL     OW89461   5.773  10.285  10.604
62541SOL    HW189462   5.761  10.198  10.642
62541SOL    HW289463   5.685  10.323  10.605
62542SOL     OW89464   6.870  10.051   2.382
62542SOL    HW189465   6.876  10.036   2.476
62542SOL    HW289466   6.961  10.060   2.353
62543SOL     OW89467   2.192  13.100  10.682
62543SOL    HW189468   2.205  13.029  10.620
62543SOL    HW289469   2.222  13.178  10.635
62544SOL     OW89470  13.768   4.212   2.645
62544SOL    HW189471  13.828   4.144   2.615
62544SOL    HW289472  13.774   4.209   2.740
62545SOL     OW89473   5.383  12.594  14.246
62545SOL    HW189474   5.393  12.583  14.340
62545SOL    HW289475   5.329  12.672  14.236
62546SOL     OW89476   0.583   1.917   3.712
62546SOL    HW189477   0.494   1.885   3.726
62546SOL    HW289478   0.579   2.011   3.734
62547SOL     OW89479  14.542   7.805   6.991
62547SOL    HW189480  14.461   7.812   7.041
62547SOL    HW289481  14.519   7.752   6.915
62548SOL     OW89482   5.179  14.563  11.510
62548SOL    HW189483   5.149  14.653  11.511
62548SOL    HW289484   5.251  14.561  11.573
62549SOL     OW89485   5.278   9.642  14.343
62549SOL    HW189486   5.235   9.667  14.261
62549SOL    HW289487   5.361   9.604  14.316
62550SOL     OW89488  12.573   3.295   3.538
62550SOL    HW189489  12.597   3.210   3.574
62550SOL    HW289490  12.593   3.288   3.445
62551SOL     OW89491  10.046   9.488   9.899
62551SOL    HW189492   9.972   9.505   9.840
62551SOL    HW289493  10.120   9.534   9.858
62552SOL     OW89494  13.196   4.077  14.019
62552SOL    HW189495  13.224   4.167  14.036
62552SOL    HW289496  13.277   4.031  13.995
62553SOL     OW89497   8.236   6.526  12.230
62553SOL    HW189498   8.172   6.591  12.262
62553SOL    HW289499   8.217   6.519  12.136
62554SOL     OW89500  12.636  10.607   6.143
62554SOL    HW189501  12.710  10.546   6.131
62554SOL    HW289502  12.573  10.558   6.196
62555SOL     OW89503   5.360   2.047   7.200
62555SOL    HW189504   5.269   2.020   7.208
62555SOL    HW289505   5.359   2.141   7.217
62556SOL     OW89506  11.198  11.166  13.745
62556SOL    HW189507  11.260  11.206  13.806
62556SOL    HW289508  11.117  11.156  13.795
62557SOL     OW89509   9.200   6.414   0.723
62557SOL    HW189510   9.123   6.467   0.706
62557SOL    HW289511   9.273   6.476   0.724
62558SOL     OW89512   0.843  10.816  12.796
62558SOL    HW189513   0.786  10.743  12.773
62558SOL    HW289514   0.812  10.889  12.742
62559SOL     OW89515   0.078   7.628   6.719
62559SOL    HW189516   0.050   7.643   6.629
62559SOL    HW289517   0.170   7.656   6.720
62560SOL     OW89518   6.329  12.596   3.924
62560SOL    HW189519   6.244  12.620   3.887
62560SOL    HW289520   6.307  12.558   4.010
62561SOL     OW89521   5.270   1.585   2.863
62561SOL    HW189522   5.174   1.591   2.868
62561SOL    HW289523   5.288   1.492   2.859
62562SOL     OW89524   0.825   3.808   7.161
62562SOL    HW189525   0.770   3.871   7.207
62562SOL    HW289526   0.765   3.740   7.130
62563SOL     OW89527   7.554   5.195  11.025
62563SOL    HW189528   7.639   5.170  10.989
62563SOL    HW289529   7.569   5.280  11.066
62564SOL     OW89530   6.768  13.357   8.893
62564SOL    HW189531   6.693  13.310   8.930
62564SOL    HW289532   6.804  13.298   8.828
62565SOL     OW89533   7.511   5.927  14.327
62565SOL    HW189534   7.555   6.012  14.336
62565SOL    HW289535   7.580   5.863  14.344
62566SOL     OW89536  12.372  14.643   5.926
62566SOL    HW189537  12.366  14.552   5.954
62566SOL    HW289538  12.319  14.648   5.847
62567SOL     OW89539  13.706  13.336  10.660
62567SOL    HW189540  13.767  13.296  10.722
62567SOL    HW289541  13.739  13.310  10.574
62568SOL     OW89542   3.174  10.041  11.155
62568SOL    HW189543   3.093  10.004  11.192
62568SOL    HW289544   3.176  10.131  11.187
62569SOL     OW89545   8.687  12.760  11.793
62569SOL    HW189546   8.645  12.799  11.870
62569SOL    HW289547   8.732  12.833  11.751
62570SOL     OW89548  12.530   0.470   3.272
62570SOL    HW189549  12.507   0.438   3.185
62570SOL    HW289550  12.480   0.552   3.281
62571SOL     OW89551   9.469   9.816  11.587
62571SOL    HW189552   9.528   9.741  11.593
62571SOL    HW289553   9.485   9.866  11.667
62572SOL     OW89554   1.875   0.790  13.890
62572SOL    HW189555   1.873   0.698  13.864
62572SOL    HW289556   1.790   0.824  13.862
62573SOL     OW89557   1.037   9.931   7.181
62573SOL    HW189558   1.046   9.978   7.264
62573SOL    HW289559   0.969   9.980   7.134
62574SOL     OW89560  11.469   6.896  11.393
62574SOL    HW189561  11.387   6.910  11.345
62574SOL    HW289562  11.451   6.824  11.452
62575SOL     OW89563  13.051   8.207  14.844
62575SOL    HW189564  13.128   8.256  14.817
62575SOL    HW289565  13.056   8.205   0.064
62576SOL     OW89566   8.143   4.355  13.929
62576SOL    HW189567   8.149   4.288  13.998
62576SOL    HW289568   8.100   4.429  13.971
62577SOL     OW89569   5.115   0.564  13.965
62577SOL    HW189570   5.039   0.546  14.019
62577SOL    HW289571   5.177   0.495  13.987
62578SOL     OW89572   7.821   9.747   6.883
62578SOL    HW189573   7.794   9.770   6.972
62578SOL    HW289574   7.849   9.655   6.890
62579SOL     OW89575   1.428  11.917  12.488
62579SOL    HW189576   1.486  11.899  12.414
62579SOL    HW289577   1.345  11.875  12.465
62580SOL     OW89578  10.889   2.883  11.422
62580SOL    HW189579  10.929   2.970  11.417
62580SOL    HW289580  10.815   2.887  11.362
62581SOL     OW89581  14.688   2.116  12.144
62581SOL    HW189582  14.648   2.176  12.082
62581SOL    HW289583  14.700   2.035  12.094
62582SOL     OW89584   5.861  13.254   9.587
62582SOL    HW189585   5.800  13.297   9.526
62582SOL    HW289586   5.875  13.319   9.656
62583SOL     OW89587   7.750  11.145   8.177
62583SOL    HW189588   7.756  11.178   8.088
62583SOL    HW289589   7.723  11.221   8.229
62584SOL     OW89590   2.398   3.292  14.052
62584SOL    HW189591   2.365   3.212  14.011
62584SOL    HW289592   2.414   3.352  13.979
62585SOL     OW89593  10.024   6.077   1.606
62585SOL    HW189594   9.945   6.116   1.646
62585SOL    HW289595  10.009   5.983   1.611
62586SOL     OW89596   1.420  14.387   0.649
62586SOL    HW189597   1.346  14.333   0.621
62586SOL    HW289598   1.486  14.373   0.581
62587SOL     OW89599   1.545   6.815  11.900
62587SOL    HW189600   1.451   6.800  11.907
62587SOL    HW289601   1.563   6.886  11.962
62588SOL     OW89602  12.012   5.712   8.069
62588SOL    HW189603  11.940   5.653   8.050
62588SOL    HW289604  12.077   5.657   8.114
62589SOL     OW89605  11.314   2.616   5.236
62589SOL    HW189606  11.251   2.676   5.275
62589SOL    HW289607  11.385   2.672   5.204
62590SOL     OW89608   1.274   4.886   5.207
62590SOL    HW189609   1.216   4.962   5.208
62590SOL    HW289610   1.295   4.873   5.114
62591SOL     OW89611   0.052   9.990  12.285
62591SOL    HW189612  14.844  10.013  12.324
62591SOL    HW289613   0.117  10.033  12.340
62592SOL     OW89614   3.210   0.181   3.398
62592SOL    HW189615   3.217   0.255   3.459
62592SOL    HW289616   3.211   0.103   3.454
62593SOL     OW89617  10.240  14.136   5.070
62593SOL    HW189618  10.254  14.177   5.156
62593SOL    HW289619  10.194  14.055   5.091
62594SOL     OW89620   3.895   5.140  11.714
62594SOL    HW189621   3.932   5.167  11.799
62594SOL    HW289622   3.842   5.215  11.687
62595SOL     OW89623  14.454   1.003  14.225
62595SOL    HW189624  14.436   0.923  14.176
62595SOL    HW289625  14.464   1.071  14.158
62596SOL     OW89626   1.612   5.571  10.016
62596SOL    HW189627   1.524   5.559  10.050
62596SOL    HW289628   1.620   5.665  10.000
62597SOL     OW89629   3.043   6.236  11.473
62597SOL    HW189630   3.037   6.240  11.569
62597SOL    HW289631   3.136   6.225  11.455
62598SOL     OW89632   3.602  14.633   6.496
62598SOL    HW189633   3.548  14.708   6.520
62598SOL    HW289634   3.645  14.608   6.578
62599SOL     OW89635  11.855  12.851   7.590
62599SOL    HW189636  11.819  12.792   7.656
62599SOL    HW289637  11.803  12.931   7.598
62600SOL     OW89638   1.411  13.129   5.876
62600SOL    HW189639   1.376  13.215   5.898
62600SOL    HW289640   1.382  13.072   5.948
62601SOL     OW89641   0.368  10.793  13.622
62601SOL    HW189642   0.385  10.754  13.708
62601SOL    HW289643   0.293  10.744  13.588
62602SOL     OW89644   1.256   9.389   9.592
62602SOL    HW189645   1.170   9.379   9.552
62602SOL    HW289646   1.258   9.321   9.659
62603SOL     OW89647   1.199   3.179  13.776
62603SOL    HW189648   1.185   3.095  13.731
62603SOL    HW289649   1.158   3.167  13.861
62604SOL     OW89650  11.971   2.449   0.682
62604SOL    HW189651  11.988   2.540   0.658
62604SOL    HW289652  11.885   2.430   0.645
62605SOL     OW89653  11.428   7.967   5.249
62605SOL    HW189654  11.489   7.967   5.175
62605SOL    HW289655  11.361   7.902   5.225
62606SOL     OW89656  13.087  13.339   1.495
62606SOL    HW189657  13.129  13.418   1.528
62606SOL    HW289658  13.089  13.349   1.400
62607SOL     OW89659  10.515   3.654   0.792
62607SOL    HW189660  10.506   3.571   0.839
62607SOL    HW289661  10.498   3.721   0.858
62608SOL     OW89662   0.463   1.714   1.078
62608SOL    HW189663   0.499   1.708   1.167
62608SOL    HW289664   0.378   1.670   1.083
62609SOL     OW89665   6.170   0.707  14.277
62609SOL    HW189666   6.220   0.683  14.355
62609SOL    HW289667   6.236   0.741  14.216
62610SOL     OW89668   5.013  13.318   5.762
62610SOL    HW189669   5.066  13.368   5.824
62610SOL    HW289670   4.936  13.292   5.812
62611SOL     OW89671  11.853   9.599  10.009
62611SOL    HW189672  11.846   9.506   9.984
62611SOL    HW289673  11.946   9.619  10.002
62612SOL     OW89674   3.107   7.546  12.418
62612SOL    HW189675   3.024   7.507  12.445
62612SOL    HW289676   3.110   7.532  12.323
62613SOL     OW89677   4.225   1.119  12.341
62613SOL    HW189678   4.278   1.086  12.268
62613SOL    HW289679   4.174   1.191  12.304
62614SOL     OW89680   3.163  12.983   8.665
62614SOL    HW189681   3.223  12.950   8.732
62614SOL    HW289682   3.110  12.906   8.641
62615SOL     OW89683  10.623   8.274   1.651
62615SOL    HW189684  10.594   8.193   1.691
62615SOL    HW289685  10.569   8.342   1.692
62616SOL     OW89686   9.620   3.701  11.949
62616SOL    HW189687   9.679   3.693  12.024
62616SOL    HW289688   9.595   3.793  11.947
62617SOL     OW89689  12.544   8.437   7.364
62617SOL    HW189690  12.598   8.492   7.421
62617SOL    HW289691  12.455   8.447   7.400
62618SOL     OW89692   1.723  11.044  13.458
62618SOL    HW189693   1.628  11.050  13.466
62618SOL    HW289694   1.738  10.977  13.392
62619SOL     OW89695   1.480  10.189   8.272
62619SOL    HW189696   1.407  10.203   8.212
62619SOL    HW289697   1.534  10.123   8.229
62620SOL     OW89698   2.508   7.874  13.151
62620SOL    HW189699   2.518   7.882  13.246
62620SOL    HW289700   2.418   7.842  13.140
62621SOL     OW89701  12.410   1.531   5.544
62621SOL    HW189702  12.389   1.536   5.638
62621SOL    HW289703  12.336   1.573   5.501
62622SOL     OW89704  13.415   4.324   6.057
62622SOL    HW189705  13.323   4.350   6.050
62622SOL    HW289706  13.445   4.317   5.966
62623SOL     OW89707   3.201   6.180   8.308
62623SOL    HW189708   3.154   6.163   8.390
62623SOL    HW289709   3.194   6.099   8.258
62624SOL     OW89710   6.030  10.169  12.403
62624SOL    HW189711   5.966  10.153  12.333
62624SOL    HW289712   6.079  10.088  12.410
62625SOL     OW89713   8.237   1.643   5.109
62625SOL    HW189714   8.199   1.699   5.176
62625SOL    HW289715   8.321   1.684   5.088
62626SOL     OW89716   6.378  14.250  13.579
62626SOL    HW189717   6.397  14.176  13.637
62626SOL    HW289718   6.372  14.211  13.492
62627SOL     OW89719  13.476  12.394   7.981
62627SOL    HW189720  13.518  12.475   7.956
62627SOL    HW289721  13.531  12.358   8.050
62628SOL     OW89722   2.919   3.657   1.488
62628SOL    HW189723   2.919   3.729   1.425
62628SOL    HW289724   3.011   3.646   1.511
62629SOL     OW89725   7.903  11.100  11.612
62629SOL    HW189726   7.898  11.031  11.546
62629SOL    HW289727   7.831  11.081  11.672
62630SOL     OW89728  10.335   7.732  12.584
62630SOL    HW189729  10.333   7.645  12.544
62630SOL    HW289730  10.256   7.735  12.639
62631SOL     OW89731  11.375  11.623  12.882
62631SOL    HW189732  11.310  11.621  12.953
62631SOL    HW289733  11.451  11.666  12.921
62632SOL     OW89734   8.351   2.313   6.243
62632SOL    HW189735   8.360   2.378   6.174
62632SOL    HW289736   8.307   2.359   6.314
62633SOL     OW89737   9.063   8.419  10.893
62633SOL    HW189738   9.093   8.445  10.980
62633SOL    HW289739   9.048   8.502  10.848
62634SOL     OW89740  11.518  11.441   1.368
62634SOL    HW189741  11.604  11.452   1.327
62634SOL    HW289742  11.513  11.348   1.389
62635SOL     OW89743   6.498   6.059  11.491
62635SOL    HW189744   6.455   6.009  11.559
62635SOL    HW289745   6.491   6.150  11.519
62636SOL     OW89746  10.548  11.619   3.557
62636SOL    HW189747  10.519  11.685   3.620
62636SOL    HW289748  10.580  11.669   3.482
62637SOL     OW89749  11.706   7.862   6.703
62637SOL    HW189750  11.625   7.913   6.706
62637SOL    HW289751  11.762   7.900   6.770
62638SOL     OW89752   4.913  13.428   1.055
62638SOL    HW189753   4.917  13.363   1.126
62638SOL    HW289754   4.826  13.467   1.064
62639SOL     OW89755   1.337   2.585   9.227
62639SOL    HW189756   1.353   2.513   9.166
62639SOL    HW289757   1.309   2.542   9.308
62640SOL     OW89758   2.922   3.961  11.502
62640SOL    HW189759   2.973   3.909  11.440
62640SOL    HW289760   2.966   3.950  11.586
62641SOL     OW89761   3.913   6.263   1.037
62641SOL    HW189762   3.856   6.268   0.960
62641SOL    HW289763   3.995   6.302   1.008
62642SOL     OW89764   2.109  10.974   3.435
62642SOL    HW189765   2.042  10.918   3.475
62642SOL    HW289766   2.190  10.949   3.479
62643SOL     OW89767   4.861  10.994  13.826
62643SOL    HW189768   4.782  10.942  13.810
62643SOL    HW289769   4.933  10.932  13.817
62644SOL     OW89770  11.398   5.826   8.483
62644SOL    HW189771  11.454   5.751   8.460
62644SOL    HW289772  11.458   5.901   8.482
62645SOL     OW89773   1.545   9.062   2.597
62645SOL    HW189774   1.464   9.103   2.563
62645SOL    HW289775   1.514   8.994   2.656
62646SOL     OW89776   2.159  12.238   4.089
62646SOL    HW189777   2.088  12.174   4.073
62646SOL    HW289778   2.192  12.215   4.176
62647SOL     OW89779   5.871  11.753   0.794
62647SOL    HW189780   5.909  11.678   0.839
62647SOL    HW289781   5.942  11.818   0.790
62648SOL     OW89782   6.754   1.643   4.455
62648SOL    HW189783   6.675   1.697   4.455
62648SOL    HW289784   6.772   1.625   4.547
62649SOL     OW89785   6.418   1.680   8.722
62649SOL    HW189786   6.413   1.612   8.656
62649SOL    HW289787   6.510   1.704   8.726
62650SOL     OW89788  12.485   8.567   8.986
62650SOL    HW189789  12.481   8.494   8.924
62650SOL    HW289790  12.435   8.637   8.943
62651SOL     OW89791   9.649  11.577   9.514
62651SOL    HW189792   9.604  11.616   9.439
62651SOL    HW289793   9.739  11.607   9.506
62652SOL     OW89794   1.686   5.710   9.227
62652SOL    HW189795   1.719   5.740   9.143
62652SOL    HW289796   1.743   5.637   9.252
62653SOL     OW89797   1.691   2.953   8.286
62653SOL    HW189798   1.749   2.991   8.351
62653SOL    HW289799   1.656   2.874   8.328
62654SOL     OW89800   0.291  10.357   1.378
62654SOL    HW189801   0.323  10.442   1.346
62654SOL    HW289802   0.351  10.293   1.340
62655SOL     OW89803   3.387  13.309   9.460
62655SOL    HW189804   3.344  13.346   9.383
62655SOL    HW289805   3.452  13.375   9.485
62656SOL     OW89806  12.764   3.939   7.114
62656SOL    HW189807  12.830   3.884   7.156
62656SOL    HW289808  12.697   3.952   7.181
62657SOL     OW89809  13.787   5.879  11.883
62657SOL    HW189810  13.779   5.970  11.857
62657SOL    HW289811  13.818   5.882  11.974
62658SOL     OW89812  10.698   5.974   3.008
62658SOL    HW189813  10.632   5.909   2.982
62658SOL    HW289814  10.698   5.971   3.104
62659SOL     OW89815   6.817   6.028   9.211
62659SOL    HW189816   6.799   6.113   9.253
62659SOL    HW289817   6.749   6.019   9.145
62660SOL     OW89818   6.281   7.453   4.782
62660SOL    HW189819   6.209   7.463   4.845
62660SOL    HW289820   6.250   7.496   4.703
62661SOL     OW89821  13.568  12.866  10.065
62661SOL    HW189822  13.496  12.904  10.115
62661SOL    HW289823  13.602  12.796  10.121
62662SOL     OW89824  10.978  13.702  14.293
62662SOL    HW189825  10.990  13.628  14.353
62662SOL    HW289826  11.051  13.761  14.314
62663SOL     OW89827   8.527  12.800   5.428
62663SOL    HW189828   8.576  12.741   5.484
62663SOL    HW289829   8.469  12.742   5.377
62664SOL     OW89830   1.187   7.222   7.365
62664SOL    HW189831   1.271   7.260   7.389
62664SOL    HW289832   1.140   7.292   7.320
62665SOL     OW89833   1.673  14.111   1.806
62665SOL    HW189834   1.689  14.019   1.785
62665SOL    HW289835   1.578  14.117   1.818
62666SOL     OW89836   5.252  14.197  14.657
62666SOL    HW189837   5.202  14.157  14.727
62666SOL    HW289838   5.228  14.290  14.660
62667SOL     OW89839  12.787   1.001   2.616
62667SOL    HW189840  12.789   0.911   2.585
62667SOL    HW289841  12.694   1.019   2.635
62668SOL     OW89842   9.145  10.700   5.321
62668SOL    HW189843   9.092  10.737   5.392
62668SOL    HW289844   9.197  10.774   5.290
62669SOL     OW89845   8.293   6.625  14.876
62669SOL    HW189846   8.358   6.691   0.023
62669SOL    HW289847   8.211   6.656   0.039
62670SOL     OW89848   4.262  13.518   2.871
62670SOL    HW189849   4.334  13.474   2.826
62670SOL    HW289850   4.199  13.537   2.801
62671SOL     OW89851  12.247   5.789   4.487
62671SOL    HW189852  12.275   5.880   4.475
62671SOL    HW289853  12.269   5.769   4.578
62672SOL     OW89854  13.072   9.793  14.303
62672SOL    HW189855  13.087   9.757  14.215
62672SOL    HW289856  13.153   9.839  14.324
62673SOL     OW89857  11.947   3.560   6.577
62673SOL    HW189858  11.993   3.547   6.659
62673SOL    HW289859  11.949   3.655   6.563
62674SOL     OW89860   7.257   4.150  10.387
62674SOL    HW189861   7.256   4.103  10.470
62674SOL    HW289862   7.183   4.114  10.338
62675SOL     OW89863   1.716  13.995   8.235
62675SOL    HW189864   1.805  14.018   8.264
62675SOL    HW289865   1.677  14.077   8.207
62676SOL     OW89866   7.168   0.662   7.787
62676SOL    HW189867   7.079   0.691   7.767
62676SOL    HW289868   7.222   0.741   7.780
62677SOL     OW89869  11.365  11.488  14.585
62677SOL    HW189870  11.389  11.411  14.532
62677SOL    HW289871  11.446  11.513  14.629
62678SOL     OW89872   4.875   8.943   0.777
62678SOL    HW189873   4.845   8.988   0.699
62678SOL    HW289874   4.936   9.005   0.819
62679SOL     OW89875   7.737   6.000  10.816
62679SOL    HW189876   7.700   5.984  10.902
62679SOL    HW289877   7.824   5.960  10.818
62680SOL     OW89878   1.109  11.489  14.065
62680SOL    HW189879   1.103  11.403  14.107
62680SOL    HW289880   1.062  11.548  14.124
62681SOL     OW89881  10.480   2.917   0.254
62681SOL    HW189882  10.429   2.924   0.174
62681SOL    HW289883  10.417   2.928   0.325
62682SOL     OW89884   3.365   8.045   8.373
62682SOL    HW189885   3.375   8.000   8.457
62682SOL    HW289886   3.431   8.004   8.317
62683SOL     OW89887  10.541   8.488  14.122
62683SOL    HW189888  10.592   8.413  14.151
62683SOL    HW289889  10.488   8.454  14.050
62684SOL     OW89890  10.559   0.778  11.723
62684SOL    HW189891  10.478   0.776  11.673
62684SOL    HW289892  10.626   0.806  11.661
62685SOL     OW89893   3.670   5.412   9.830
62685SOL    HW189894   3.651   5.373   9.915
62685SOL    HW289895   3.750   5.463   9.844
62686SOL     OW89896  12.188   1.989  12.811
62686SOL    HW189897  12.226   2.027  12.732
62686SOL    HW289898  12.102   1.956  12.782
62687SOL     OW89899  11.979   5.342  13.748
62687SOL    HW189900  11.916   5.364  13.680
62687SOL    HW289901  12.058   5.316  13.701
62688SOL     OW89902   5.004   9.695   1.067
62688SOL    HW189903   4.922   9.741   1.086
62688SOL    HW289904   4.985   9.643   0.988
62689SOL     OW89905   3.009   4.508   9.298
62689SOL    HW189906   3.090   4.548   9.264
62689SOL    HW289907   3.031   4.481   9.387
62690SOL     OW89908   0.782  14.348   8.285
62690SOL    HW189909   0.872  14.367   8.310
62690SOL    HW289910   0.775  14.252   8.289
62691SOL     OW89911   9.225   4.024   3.323
62691SOL    HW189912   9.250   4.074   3.401
62691SOL    HW289913   9.185   4.088   3.265
62692SOL     OW89914   8.969   5.698  14.134
62692SOL    HW189915   9.055   5.733  14.113
62692SOL    HW289916   8.950   5.731  14.222
62693SOL     OW89917   2.067   3.055   4.652
62693SOL    HW189918   2.145   3.110   4.661
62693SOL    HW289919   2.085   2.999   4.577
62694SOL     OW89920  10.613   1.652   0.113
62694SOL    HW189921  10.620   1.745   0.092
62694SOL    HW289922  10.699   1.628   0.146
62695SOL     OW89923   8.891   9.395   4.994
62695SOL    HW189924   8.877   9.464   5.059
62695SOL    HW289925   8.900   9.442   4.911
62696SOL     OW89926   5.256   3.492  11.620
62696SOL    HW189927   5.314   3.543  11.677
62696SOL    HW289928   5.227   3.554  11.553
62697SOL     OW89929   3.337   4.870  12.151
62697SOL    HW189930   3.391   4.890  12.228
62697SOL    HW289931   3.321   4.955  12.110
62698SOL     OW89932   2.796  10.422   5.237
62698SOL    HW189933   2.844  10.457   5.162
62698SOL    HW289934   2.719  10.480   5.245
62699SOL     OW89935   9.286   4.042   2.775
62699SOL    HW189936   9.330   3.978   2.719
62699SOL    HW289937   9.325   4.029   2.862
62700SOL     OW89938   2.349   0.330   8.100
62700SOL    HW189939   2.261   0.335   8.063
62700SOL    HW289940   2.366   0.418   8.134
62701SOL     OW89941  10.114   2.161   4.846
62701SOL    HW189942  10.029   2.171   4.887
62701SOL    HW289943  10.172   2.134   4.917
62702SOL     OW89944   6.007   9.202   5.364
62702SOL    HW189945   5.922   9.243   5.345
62702SOL    HW289946   6.068   9.276   5.372
62703SOL     OW89947  10.453   9.854   7.176
62703SOL    HW189948  10.420   9.942   7.154
62703SOL    HW289949  10.477   9.861   7.268
62704SOL     OW89950   8.015   7.000   0.079
62704SOL    HW189951   8.070   7.059   0.028
62704SOL    HW289952   8.008   7.042   0.165
62705SOL     OW89953   9.327   9.282   8.025
62705SOL    HW189954   9.268   9.357   8.036
62705SOL    HW289955   9.375   9.276   8.107
62706SOL     OW89956  12.467   3.341   9.843
62706SOL    HW189957  12.482   3.431   9.815
62706SOL    HW289958  12.417   3.302   9.772
62707SOL     OW89959  11.718  11.472   1.197
62707SOL    HW189960  11.796  11.516   1.232
62707SOL    HW289961  11.721  11.384   1.234
62708SOL     OW89962  11.067   6.458   1.896
62708SOL    HW189963  11.143   6.427   1.947
62708SOL    HW289964  10.998   6.471   1.961
62709SOL     OW89965  12.605  11.088  11.641
62709SOL    HW189966  12.682  11.094  11.584
62709SOL    HW289967  12.537  11.137  11.596
62710SOL     OW89968  11.310  12.734  13.055
62710SOL    HW189969  11.230  12.771  13.019
62710SOL    HW289970  11.319  12.774  13.142
62711SOL     OW89971   9.658  10.240   4.061
62711SOL    HW189972   9.607  10.304   4.012
62711SOL    HW289973   9.665  10.164   4.002
62712SOL     OW89974   6.435   3.838   0.756
62712SOL    HW189975   6.475   3.752   0.755
62712SOL    HW289976   6.464   3.879   0.675
62713SOL     OW89977   8.174   6.318   2.150
62713SOL    HW189978   8.164   6.250   2.217
62713SOL    HW289979   8.143   6.398   2.192
62714SOL     OW89980   6.467  11.890   0.492
62714SOL    HW189981   6.504  11.976   0.469
62714SOL    HW289982   6.533  11.827   0.464
62715SOL     OW89983   7.437   5.640   9.942
62715SOL    HW189984   7.457   5.733   9.952
62715SOL    HW289985   7.519   5.601   9.913
62716SOL     OW89986  11.640  11.375   7.618
62716SOL    HW189987  11.548  11.396   7.603
62716SOL    HW289988  11.685  11.408   7.540
62717SOL     OW89989   4.879   3.601  12.306
62717SOL    HW189990   4.883   3.505  12.304
62717SOL    HW289991   4.786   3.622  12.308
62718SOL     OW89992  14.531  11.403   7.636
62718SOL    HW189993  14.471  11.351   7.582
62718SOL    HW289994  14.488  11.408   7.721
62719SOL     OW89995  11.329   5.184  14.018
62719SOL    HW189996  11.244   5.205  14.057
62719SOL    HW289997  11.363   5.268  13.988
62720SOL     OW89998   0.392   2.372  12.989
62720SOL    HW189999   0.410   2.409  12.902
62720SOL    HW290000   0.477   2.367  13.031
62721SOL     OW90001  12.623   5.086  13.383
62721SOL    HW190002  12.701   5.111  13.433
62721SOL    HW290003  12.657   5.057  13.299
62722SOL     OW90004   0.264   7.261   7.099
62722SOL    HW190005   0.289   7.326   7.164
62722SOL    HW290006   0.170   7.274   7.087
62723SOL     OW90007   9.330   8.590  13.935
62723SOL    HW190008   9.301   8.644  13.861
62723SOL    HW290009   9.347   8.653  14.005
62724SOL     OW90010   8.322   4.137   7.115
62724SOL    HW190011   8.376   4.213   7.137
62724SOL    HW290012   8.383   4.064   7.112
62725SOL     OW90013   0.195  12.829   9.302
62725SOL    HW190014   0.211  12.923   9.293
62725SOL    HW290015   0.183  12.798   9.212
62726SOL     OW90016   8.058   8.452   5.173
62726SOL    HW190017   8.098   8.519   5.117
62726SOL    HW290018   8.068   8.486   5.262
62727SOL     OW90019   1.463  11.290   6.829
62727SOL    HW190020   1.451  11.195   6.820
62727SOL    HW290021   1.527  11.313   6.762
62728SOL     OW90022   1.393   9.296   5.352
62728SOL    HW190023   1.358   9.229   5.410
62728SOL    HW290024   1.354   9.276   5.266
62729SOL     OW90025   5.519   7.981  12.736
62729SOL    HW190026   5.541   7.974  12.643
62729SOL    HW290027   5.429   7.949  12.742
62730SOL     OW90028  14.280   2.144  10.163
62730SOL    HW190029  14.330   2.154  10.082
62730SOL    HW290030  14.189   2.138  10.133
62731SOL     OW90031   8.341   8.138   3.898
62731SOL    HW190032   8.376   8.081   3.966
62731SOL    HW290033   8.343   8.084   3.819
62732SOL     OW90034   7.804  11.658   1.126
62732SOL    HW190035   7.875  11.718   1.104
62732SOL    HW290036   7.725  11.699   1.090
62733SOL     OW90037  11.567  10.620   5.916
62733SOL    HW190038  11.563  10.693   5.854
62733SOL    HW290039  11.571  10.661   6.002
62734SOL     OW90040  10.777   5.466  10.405
62734SOL    HW190041  10.770   5.532  10.336
62734SOL    HW290042  10.871   5.455  10.418
62735SOL     OW90043   9.538   3.925  13.471
62735SOL    HW190044   9.446   3.937  13.491
62735SOL    HW290045   9.565   4.009  13.432
62736SOL     OW90046  11.432  12.048   3.194
62736SOL    HW190047  11.416  12.142   3.183
62736SOL    HW290048  11.487  12.042   3.272
62737SOL     OW90049   9.748   8.230   8.394
62737SOL    HW190050   9.824   8.218   8.337
62737SOL    HW290051   9.706   8.310   8.361
62738SOL     OW90052   2.724   8.880   1.453
62738SOL    HW190053   2.716   8.944   1.524
62738SOL    HW290054   2.650   8.821   1.465
62739SOL     OW90055   9.546   9.933  10.378
62739SOL    HW190056   9.492   9.934  10.457
62739SOL    HW290057   9.542   9.843  10.348
62740SOL     OW90058   1.350   1.281  12.111
62740SOL    HW190059   1.400   1.318  12.184
62740SOL    HW290060   1.260   1.305  12.129
62741SOL     OW90061  14.534   1.980   3.157
62741SOL    HW190062  14.485   1.951   3.234
62741SOL    HW290063  14.621   1.943   3.168
62742SOL     OW90064  13.092   6.812   8.372
62742SOL    HW190065  13.047   6.863   8.305
62742SOL    HW290066  13.084   6.865   8.452
62743SOL     OW90067   3.142   8.542  13.550
62743SOL    HW190068   3.118   8.585  13.632
62743SOL    HW290069   3.082   8.578  13.485
62744SOL     OW90070   0.876  13.457   7.544
62744SOL    HW190071   0.924  13.532   7.579
62744SOL    HW290072   0.870  13.473   7.450
62745SOL     OW90073   4.813   5.565   0.746
62745SOL    HW190074   4.810   5.470   0.758
62745SOL    HW290075   4.740   5.598   0.798
62746SOL     OW90076  12.155   3.607   7.356
62746SOL    HW190077  12.249   3.599   7.371
62746SOL    HW290078  12.124   3.668   7.423
62747SOL     OW90079  12.385   8.390  12.378
62747SOL    HW190080  12.380   8.314  12.320
62747SOL    HW290081  12.426   8.358  12.458
62748SOL     OW90082   3.189   1.674   9.215
62748SOL    HW190083   3.271   1.723   9.216
62748SOL    HW290084   3.215   1.584   9.193
62749SOL     OW90085   1.252   3.013  10.688
62749SOL    HW190086   1.189   3.084  10.677
62749SOL    HW290087   1.334   3.049  10.653
62750SOL     OW90088   0.186   3.141   6.470
62750SOL    HW190089   0.150   3.186   6.394
62750SOL    HW290090   0.280   3.159   6.467
62751SOL     OW90091  14.602  14.745  12.250
62751SOL    HW190092  14.685  14.696  12.247
62751SOL    HW290093  14.626  14.834  12.225
62752SOL     OW90094  13.530   5.397   4.738
62752SOL    HW190095  13.617   5.376   4.772
62752SOL    HW290096  13.547   5.448   4.659
62753SOL     OW90097  10.083   8.994  10.005
62753SOL    HW190098  10.083   8.902   9.977
62753SOL    HW290099  10.167   9.005  10.050
62754SOL     OW90100  14.657  13.453   8.364
62754SOL    HW190101  14.602  13.480   8.437
62754SOL    HW290102  14.598  13.407   8.305
62755SOL     OW90103   7.483   5.021   5.584
62755SOL    HW190104   7.567   4.983   5.560
62755SOL    HW290105   7.504   5.086   5.651
62756SOL     OW90106   1.042  14.306   5.731
62756SOL    HW190107   1.010  14.223   5.767
62756SOL    HW290108   1.137  14.304   5.748
62757SOL     OW90109   3.876   4.903  11.594
62757SOL    HW190110   3.823   4.855  11.658
62757SOL    HW290111   3.887   4.990  11.633
62758SOL     OW90112  12.048  11.843   9.023
62758SOL    HW190113  12.017  11.878   8.940
62758SOL    HW290114  11.976  11.858   9.084
62759SOL     OW90115   5.989   9.779   0.634
62759SOL    HW190116   5.911   9.724   0.632
62759SOL    HW290117   5.957   9.868   0.622
62760SOL     OW90118  14.554   3.493  13.820
62760SOL    HW190119  14.559   3.442  13.740
62760SOL    HW290120  14.605   3.572  13.802
62761SOL     OW90121   3.956   9.521   1.944
62761SOL    HW190122   3.990   9.434   1.927
62761SOL    HW290123   3.997   9.577   1.877
62762SOL     OW90124  10.854   0.273   3.512
62762SOL    HW190125  10.882   0.223   3.436
62762SOL    HW290126  10.804   0.347   3.476
62763SOL     OW90127   9.699  10.721   3.878
62763SOL    HW190128   9.606  10.709   3.899
62763SOL    HW290129   9.737  10.758   3.958
62764SOL     OW90130  12.008   5.042  11.685
62764SOL    HW190131  12.056   5.124  11.683
62764SOL    HW290132  12.035   4.997  11.605
62765SOL     OW90133   3.159   1.018   3.946
62765SOL    HW190134   3.143   1.089   3.884
62765SOL    HW290135   3.074   0.972   3.952
62766SOL     OW90136   9.784  12.541   9.909
62766SOL    HW190137   9.831  12.541   9.992
62766SOL    HW290138   9.830  12.607   9.856
62767SOL     OW90139   4.644   9.409   9.254
62767SOL    HW190140   4.734   9.430   9.231
62767SOL    HW290141   4.635   9.316   9.235
62768SOL     OW90142  11.978   0.507   5.887
62768SOL    HW190143  11.960   0.422   5.928
62768SOL    HW290144  11.892   0.549   5.881
62769SOL     OW90145   8.600  12.836  12.409
62769SOL    HW190146   8.631  12.892  12.480
62769SOL    HW290147   8.650  12.864  12.333
62770SOL     OW90148  13.325   8.167   8.808
62770SOL    HW190149  13.409   8.123   8.819
62770SOL    HW290150  13.333   8.247   8.860
62771SOL     OW90151   1.846   8.813  10.750
62771SOL    HW190152   1.887   8.861  10.679
62771SOL    HW290153   1.785   8.875  10.790
62772SOL     OW90154   5.775   5.438  11.300
62772SOL    HW190155   5.831   5.371  11.262
62772SOL    HW290156   5.688   5.398  11.305
62773SOL     OW90157   4.195  14.186  13.616
62773SOL    HW190158   4.171  14.101  13.578
62773SOL    HW290159   4.254  14.225  13.551
62774SOL     OW90160  14.868   1.488   2.214
62774SOL    HW190161   0.019   1.425   2.148
62774SOL    HW290162  14.818   1.437   2.278
62775SOL     OW90163   8.377   3.980   1.722
62775SOL    HW190164   8.412   3.952   1.637
62775SOL    HW290165   8.352   4.071   1.709
62776SOL     OW90166  13.174   9.150  11.639
62776SOL    HW190167  13.090   9.191  11.657
62776SOL    HW290168  13.226   9.217  11.595
62777SOL     OW90169  11.796   6.284   1.872
62777SOL    HW190170  11.757   6.207   1.914
62777SOL    HW290171  11.862   6.248   1.813
62778SOL     OW90172  13.286   6.920   3.372
62778SOL    HW190173  13.290   6.904   3.278
62778SOL    HW290174  13.342   6.997   3.386
62779SOL     OW90175   0.790  12.049   7.789
62779SOL    HW190176   0.853  12.044   7.860
62779SOL    HW290177   0.730  11.976   7.804
62780SOL     OW90178  11.875  10.748   1.522
62780SOL    HW190179  11.832  10.671   1.559
62780SOL    HW290180  11.909  10.719   1.438
62781SOL     OW90181   0.428   1.863   8.942
62781SOL    HW190182   0.434   1.926   8.869
62781SOL    HW290183   0.514   1.821   8.944
62782SOL     OW90184   6.934   9.263   1.636
62782SOL    HW190185   6.936   9.177   1.593
62782SOL    HW290186   6.983   9.321   1.578
62783SOL     OW90187  10.903   4.071   4.382
62783SOL    HW190188  10.942   3.992   4.345
62783SOL    HW290189  10.815   4.044   4.409
62784SOL     OW90190   2.893   5.725   5.592
62784SOL    HW190191   2.895   5.635   5.625
62784SOL    HW290192   2.834   5.771   5.651
62785SOL     OW90193   8.787   2.862   9.242
62785SOL    HW190194   8.814   2.776   9.274
62785SOL    HW290195   8.850   2.923   9.281
62786SOL     OW90196   1.654   5.623  13.471
62786SOL    HW190197   1.607   5.567  13.532
62786SOL    HW290198   1.745   5.620  13.501
62787SOL     OW90199  12.754   4.197   6.495
62787SOL    HW190200  12.742   4.247   6.576
62787SOL    HW290201  12.687   4.129   6.499
62788SOL     OW90202  11.534  13.071   6.223
62788SOL    HW190203  11.467  13.111   6.167
62788SOL    HW290204  11.572  13.144   6.271
62789SOL     OW90205  12.030  10.345   9.069
62789SOL    HW190206  12.005  10.276   9.131
62789SOL    HW290207  12.113  10.379   9.103
62790SOL     OW90208  14.241  11.528   1.147
62790SOL    HW190209  14.189  11.458   1.185
62790SOL    HW290210  14.206  11.541   1.059
62791SOL     OW90211  13.202   8.139  11.229
62791SOL    HW190212  13.269   8.117  11.165
62791SOL    HW290213  13.250   8.149  11.311
62792SOL     OW90214  11.933  13.331   5.958
62792SOL    HW190215  11.916  13.238   5.940
62792SOL    HW290216  12.020  13.332   5.998
62793SOL     OW90217   2.002   9.146   3.411
62793SOL    HW190218   2.089   9.132   3.373
62793SOL    HW290219   1.941   9.118   3.342
62794SOL     OW90220  14.151  11.975   5.934
62794SOL    HW190221  14.102  12.037   5.879
62794SOL    HW290222  14.103  11.893   5.926
62795SOL     OW90223   8.408  10.374   7.701
62795SOL    HW190224   8.401  10.379   7.796
62795SOL    HW290225   8.484  10.427   7.679
62796SOL     OW90226   9.935   1.837  11.994
62796SOL    HW190227   9.866   1.867  11.933
62796SOL    HW290228   9.887   1.800  12.068
62797SOL     OW90229   8.343  11.782   1.954
62797SOL    HW190230   8.299  11.853   1.908
62797SOL    HW290231   8.429  11.775   1.911
62798SOL     OW90232   0.612   3.835   0.509
62798SOL    HW190233   0.618   3.751   0.555
62798SOL    HW290234   0.696   3.844   0.465
62799SOL     OW90235  14.117  10.796   5.198
62799SOL    HW190236  14.163  10.772   5.278
62799SOL    HW290237  14.057  10.724   5.182
62800SOL     OW90238  12.475   1.475   7.520
62800SOL    HW190239  12.386   1.442   7.527
62800SOL    HW290240  12.521   1.406   7.471
62801SOL     OW90241   3.053   1.382   4.957
62801SOL    HW190242   3.005   1.347   4.882
62801SOL    HW290243   2.985   1.415   5.016
62802SOL     OW90244   7.649   8.034   6.181
62802SOL    HW190245   7.557   8.010   6.178
62802SOL    HW290246   7.651   8.118   6.228
62803SOL     OW90247   2.357  13.033  10.025
62803SOL    HW190248   2.431  13.070  10.073
62803SOL    HW290249   2.394  13.006   9.941
62804SOL     OW90250  10.522  10.512   9.960
62804SOL    HW190251  10.610  10.507   9.996
62804SOL    HW290252  10.525  10.584   9.898
62805SOL     OW90253  10.748   6.438   5.067
62805SOL    HW190254  10.801   6.391   5.131
62805SOL    HW290255  10.715   6.370   5.008
62806SOL     OW90256   3.774   4.827   0.426
62806SOL    HW190257   3.867   4.847   0.417
62806SOL    HW290258   3.740   4.829   0.337
62807SOL     OW90259   2.541  14.232   0.648
62807SOL    HW190260   2.622  14.237   0.598
62807SOL    HW290261   2.475  14.206   0.584
62808SOL     OW90262  11.979   4.464  13.784
62808SOL    HW190263  11.953   4.481  13.875
62808SOL    HW290264  11.907   4.412  13.748
62809SOL     OW90265  14.645  11.776  13.950
62809SOL    HW190266  14.678  11.707  13.892
62809SOL    HW290267  14.710  11.783  14.019
62810SOL     OW90268   6.378  12.382   9.456
62810SOL    HW190269   6.294  12.392   9.412
62810SOL    HW290270   6.357  12.337   9.538
62811SOL     OW90271   2.689   1.221  12.509
62811SOL    HW190272   2.768   1.274  12.509
62811SOL    HW290273   2.655   1.229  12.598
62812SOL     OW90274   9.424   9.011   7.223
62812SOL    HW190275   9.473   9.093   7.230
62812SOL    HW290276   9.449   8.962   7.302
62813SOL     OW90277   9.309   5.230  10.175
62813SOL    HW190278   9.307   5.138  10.152
62813SOL    HW290279   9.217   5.255  10.186
62814SOL     OW90280   7.232  12.123   9.177
62814SOL    HW190281   7.254  12.215   9.158
62814SOL    HW290282   7.153  12.107   9.127
62815SOL     OW90283   9.181   7.463   9.036
62815SOL    HW190284   9.209   7.543   8.991
62815SOL    HW290285   9.114   7.425   8.979
62816SOL     OW90286   3.796   3.595   0.805
62816SOL    HW190287   3.795   3.505   0.838
62816SOL    HW290288   3.875   3.634   0.843
62817SOL     OW90289   8.774   8.311  12.448
62817SOL    HW190290   8.739   8.223  12.434
62817SOL    HW290291   8.700   8.361  12.483
62818SOL     OW90292   5.882   4.937   4.912
62818SOL    HW190293   5.930   4.928   4.994
62818SOL    HW290294   5.916   5.018   4.873
62819SOL     OW90295   6.724   3.458   1.226
62819SOL    HW190296   6.703   3.402   1.301
62819SOL    HW290297   6.640   3.493   1.197
62820SOL     OW90298   4.371   4.977   7.811
62820SOL    HW190299   4.336   5.064   7.833
62820SOL    HW290300   4.422   4.992   7.731
62821SOL     OW90301  12.268  13.414   1.150
62821SOL    HW190302  12.214  13.439   1.075
62821SOL    HW290303  12.347  13.376   1.112
62822SOL     OW90304   4.998   8.993  12.561
62822SOL    HW190305   4.982   8.991  12.466
62822SOL    HW290306   4.961   9.077  12.590
62823SOL     OW90307  10.176   3.206   3.616
62823SOL    HW190308  10.136   3.240   3.696
62823SOL    HW290309  10.105   3.202   3.553
62824SOL     OW90310  13.315   4.762   9.302
62824SOL    HW190311  13.396   4.795   9.341
62824SOL    HW290312  13.340   4.734   9.214
62825SOL     OW90313   4.468   1.805   4.441
62825SOL    HW190314   4.535   1.782   4.377
62825SOL    HW290315   4.445   1.896   4.419
62826SOL     OW90316   7.400  11.082  14.158
62826SOL    HW190317   7.424  11.170  14.186
62826SOL    HW290318   7.475  11.028  14.183
62827SOL     OW90319   3.626  13.843  12.779
62827SOL    HW190320   3.589  13.844  12.691
62827SOL    HW290321   3.635  13.750  12.801
62828SOL     OW90322   1.810  12.680   3.934
62828SOL    HW190323   1.861  12.699   4.012
62828SOL    HW290324   1.867  12.625   3.880
62829SOL     OW90325   1.732  12.085   4.264
62829SOL    HW190326   1.672  12.139   4.316
62829SOL    HW290327   1.676  12.018   4.225
62830SOL     OW90328  13.873  11.068  10.537
62830SOL    HW190329  13.809  11.015  10.490
62830SOL    HW290330  13.943  11.084  10.473
62831SOL     OW90331   1.652   1.069   4.497
62831SOL    HW190332   1.673   1.105   4.411
62831SOL    HW290333   1.565   1.030   4.487
62832SOL     OW90334   0.368  13.230   6.797
62832SOL    HW190335   0.381  13.280   6.716
62832SOL    HW290336   0.317  13.289   6.853
62833SOL     OW90337   8.906  13.525  11.498
62833SOL    HW190338   8.818  13.555  11.524
62833SOL    HW290339   8.890  13.444  11.450
62834SOL     OW90340   3.319   6.453   6.351
62834SOL    HW190341   3.330   6.545   6.375
62834SOL    HW290342   3.291   6.411   6.432
62835SOL     OW90343  12.285   6.778   0.789
62835SOL    HW190344  12.346   6.844   0.757
62835SOL    HW290345  12.214   6.776   0.724
62836SOL     OW90346  14.676   0.448  14.728
62836SOL    HW190347  14.675   0.469  14.821
62836SOL    HW290348  14.628   0.521  14.687
62837SOL     OW90349  12.032  11.812  10.148
62837SOL    HW190350  12.035  11.785  10.056
62837SOL    HW290351  12.061  11.903  10.147
62838SOL     OW90352   0.580  14.695   1.016
62838SOL    HW190353   0.670  14.665   1.023
62838SOL    HW290354   0.535  14.658   1.092
62839SOL     OW90355   9.959   4.502  14.351
62839SOL    HW190356   9.964   4.562  14.425
62839SOL    HW290357  10.041   4.453  14.354
62840SOL     OW90358   6.680   6.638   9.933
62840SOL    HW190359   6.648   6.560   9.889
62840SOL    HW290360   6.687   6.704   9.863
62841SOL     OW90361   8.492   5.366   1.866
62841SOL    HW190362   8.446   5.446   1.890
62841SOL    HW290363   8.584   5.384   1.884
62842SOL     OW90364  12.392  14.866   7.700
62842SOL    HW190365  12.426  14.819   7.775
62842SOL    HW290366  12.467  14.875   7.641
62843SOL     OW90367   8.326   8.159  11.656
62843SOL    HW190368   8.253   8.204  11.699
62843SOL    HW290369   8.290   8.131  11.572
62844SOL     OW90370   1.909   9.106  13.640
62844SOL    HW190371   1.927   9.012  13.632
62844SOL    HW290372   1.816   9.114  13.622
62845SOL     OW90373   9.756  12.296  13.562
62845SOL    HW190374   9.808  12.334  13.492
62845SOL    HW290375   9.734  12.369  13.619
62846SOL     OW90376   2.588   7.680   5.456
62846SOL    HW190377   2.502   7.693   5.417
62846SOL    HW290378   2.623   7.769   5.465
62847SOL     OW90379  11.562   4.948   5.132
62847SOL    HW190380  11.536   4.971   5.221
62847SOL    HW290381  11.609   5.025   5.100
62848SOL     OW90382  12.624   2.403  11.717
62848SOL    HW190383  12.544   2.436  11.758
62848SOL    HW290384  12.675   2.481  11.697
62849SOL     OW90385  11.695   1.597   1.557
62849SOL    HW190386  11.709   1.508   1.523
62849SOL    HW290387  11.671   1.649   1.481
62850SOL     OW90388  11.931   6.468  12.501
62850SOL    HW190389  11.836   6.473  12.513
62850SOL    HW290390  11.962   6.556  12.522
62851SOL     OW90391  14.817   6.722   4.932
62851SOL    HW190392  14.776   6.656   4.989
62851SOL    HW290393  14.828   6.677   4.848
62852SOL     OW90394  11.553   2.782   2.823
62852SOL    HW190395  11.625   2.719   2.837
62852SOL    HW290396  11.550   2.794   2.729
62853SOL     OW90397   7.024   6.900  11.615
62853SOL    HW190398   7.077   6.920  11.538
62853SOL    HW290399   7.066   6.948  11.687
62854SOL     OW90400   7.920  13.753   2.801
62854SOL    HW190401   7.965  13.811   2.863
62854SOL    HW290402   7.890  13.679   2.854
62855SOL     OW90403   8.442  11.135   4.228
62855SOL    HW190404   8.516  11.165   4.176
62855SOL    HW290405   8.433  11.200   4.298
62856SOL     OW90406   2.536   5.199   1.785
62856SOL    HW190407   2.533   5.134   1.715
62856SOL    HW290408   2.629   5.208   1.806
62857SOL     OW90409  13.407  12.836   3.038
62857SOL    HW190410  13.496  12.817   3.010
62857SOL    HW290411  13.376  12.755   3.078
62858SOL     OW90412   8.710   1.213   4.415
62858SOL    HW190413   8.750   1.298   4.436
62858SOL    HW290414   8.632   1.236   4.365
62859SOL     OW90415  11.829  13.433   1.286
62859SOL    HW190416  11.831  13.348   1.241
62859SOL    HW290417  11.812  13.496   1.216
62860SOL     OW90418   5.115   8.166   5.316
62860SOL    HW190419   5.109   8.084   5.365
62860SOL    HW290420   5.024   8.186   5.293
62861SOL     OW90421   4.419   9.585   1.630
62861SOL    HW190422   4.441   9.641   1.555
62861SOL    HW290423   4.387   9.504   1.591
62862SOL     OW90424  13.882   1.458   3.836
62862SOL    HW190425  13.974   1.479   3.848
62862SOL    HW290426  13.864   1.478   3.744
62863SOL     OW90427  14.353   8.540   0.426
62863SOL    HW190428  14.389   8.463   0.469
62863SOL    HW290429  14.286   8.506   0.367
62864SOL     OW90430  10.231   3.562   6.335
62864SOL    HW190431  10.295   3.499   6.301
62864SOL    HW290432  10.199   3.524   6.416
62865SOL     OW90433  14.761  12.484  13.443
62865SOL    HW190434  14.756  12.421  13.372
62865SOL    HW290435  14.705  12.448  13.511
62866SOL     OW90436   5.544   2.982   1.024
62866SOL    HW190437   5.574   2.922   0.956
62866SOL    HW290438   5.464   2.942   1.058
62867SOL     OW90439   7.253  13.130  10.400
62867SOL    HW190440   7.283  13.134  10.491
62867SOL    HW290441   7.308  13.062  10.360
62868SOL     OW90442   0.388  14.850  10.854
62868SOL    HW190443   0.480  14.823  10.845
62868SOL    HW290444   0.360  14.870  10.765
62869SOL     OW90445  11.542  10.066   8.467
62869SOL    HW190446  11.574  10.006   8.535
62869SOL    HW290447  11.527  10.148   8.514
62870SOL     OW90448   5.619   7.195   7.169
62870SOL    HW190449   5.580   7.282   7.175
62870SOL    HW290450   5.559   7.145   7.114
62871SOL     OW90451   0.772  14.563   4.779
62871SOL    HW190452   0.844  14.583   4.719
62871SOL    HW290453   0.783  14.470   4.800
62872SOL     OW90454  13.379   7.853  10.325
62872SOL    HW190455  13.337   7.930  10.287
62872SOL    HW290456  13.327   7.834  10.403
62873SOL     OW90457   1.122   7.129  10.596
62873SOL    HW190458   1.057   7.176  10.649
62873SOL    HW290459   1.108   7.037  10.617
62874SOL     OW90460   4.679   5.578  13.439
62874SOL    HW190461   4.660   5.634  13.514
62874SOL    HW290462   4.651   5.629  13.363
62875SOL     OW90463  10.110   8.579   1.459
62875SOL    HW190464  10.105   8.658   1.405
62875SOL    HW290465  10.071   8.606   1.543
62876SOL     OW90466  11.570   7.073  11.664
62876SOL    HW190467  11.543   7.081  11.573
62876SOL    HW290468  11.663   7.048  11.660
62877SOL     OW90469   3.558   0.565  11.999
62877SOL    HW190470   3.597   0.509  12.066
62877SOL    HW290471   3.512   0.632  12.048
62878SOL     OW90472  12.498   9.637   3.770
62878SOL    HW190473  12.468   9.727   3.756
62878SOL    HW290474  12.515   9.633   3.865
62879SOL     OW90475  12.919   8.728  13.719
62879SOL    HW190476  12.904   8.800  13.658
62879SOL    HW290477  12.956   8.658  13.665
62880SOL     OW90478  10.537   9.350   4.575
62880SOL    HW190479  10.486   9.312   4.503
62880SOL    HW290480  10.526   9.289   4.647
62881SOL     OW90481   5.018   5.345   1.161
62881SOL    HW190482   4.941   5.390   1.127
62881SOL    HW290483   5.091   5.406   1.148
62882SOL     OW90484  12.686   2.269  11.227
62882SOL    HW190485  12.664   2.193  11.173
62882SOL    HW290486  12.754   2.237  11.286
62883SOL     OW90487   5.385   0.583   3.727
62883SOL    HW190488   5.354   0.530   3.801
62883SOL    HW290489   5.443   0.524   3.678
62884SOL     OW90490  13.412  11.408   5.550
62884SOL    HW190491  13.455  11.491   5.573
62884SOL    HW290492  13.461  11.341   5.598
62885SOL     OW90493   2.739   5.489   3.734
62885SOL    HW190494   2.796   5.563   3.753
62885SOL    HW290495   2.763   5.462   3.646
62886SOL     OW90496   9.727  11.602   3.214
62886SOL    HW190497   9.774  11.643   3.286
62886SOL    HW290498   9.765  11.514   3.207
62887SOL     OW90499   3.348  10.318   3.939
62887SOL    HW190500   3.340  10.364   4.023
62887SOL    HW290501   3.305  10.233   3.955
62888SOL     OW90502   8.582   5.711   7.482
62888SOL    HW190503   8.506   5.728   7.538
62888SOL    HW290504   8.567   5.764   7.404
62889SOL     OW90505   1.980  14.251   7.583
62889SOL    HW190506   2.015  14.186   7.522
62889SOL    HW290507   1.986  14.334   7.537
62890SOL     OW90508   1.641   0.954  13.817
62890SOL    HW190509   1.663   0.967  13.724
62890SOL    HW290510   1.642   1.043  13.854
62891SOL     OW90511   9.568  12.434   3.554
62891SOL    HW190512   9.529  12.347   3.565
62891SOL    HW290513   9.621  12.447   3.632
62892SOL     OW90514  12.495  12.060   0.302
62892SOL    HW190515  12.518  12.127   0.366
62892SOL    HW290516  12.550  11.985   0.325
62893SOL     OW90517   3.874   6.846   5.975
62893SOL    HW190518   3.941   6.820   5.911
62893SOL    HW290519   3.911   6.922   6.019
62894SOL     OW90520   2.556   1.406   7.916
62894SOL    HW190521   2.508   1.324   7.918
62894SOL    HW290522   2.641   1.385   7.955
62895SOL     OW90523   6.240  13.664   8.160
62895SOL    HW190524   6.268  13.692   8.247
62895SOL    HW290525   6.321  13.640   8.115
62896SOL     OW90526  14.099  11.928  13.259
62896SOL    HW190527  14.088  11.835  13.277
62896SOL    HW290528  14.180  11.933  13.207
62897SOL     OW90529   4.610  12.457   7.803
62897SOL    HW190530   4.676  12.496   7.745
62897SOL    HW290531   4.642  12.472   7.891
62898SOL     OW90532   0.461   9.966   9.381
62898SOL    HW190533   0.442  10.048   9.427
62898SOL    HW290534   0.399   9.903   9.419
62899SOL     OW90535   0.338   0.154   8.080
62899SOL    HW190536   0.244   0.171   8.085
62899SOL    HW290537   0.371   0.221   8.020
62900SOL     OW90538   7.509   0.676   4.951
62900SOL    HW190539   7.431   0.633   4.987
62900SOL    HW290540   7.509   0.652   4.859
62901SOL     OW90541   3.229  13.932   4.176
62901SOL    HW190542   3.230  14.025   4.199
62901SOL    HW290543   3.206  13.931   4.083
62902SOL     OW90544  10.172  13.349  14.801
62902SOL    HW190545  10.134  13.273  14.845
62902SOL    HW290546  10.158  13.332  14.708
62903SOL     OW90547   9.004   1.344   5.005
62903SOL    HW190548   8.949   1.305   5.073
62903SOL    HW290549   8.987   1.291   4.927
62904SOL     OW90550   7.402   7.609   3.351
62904SOL    HW190551   7.409   7.587   3.443
62904SOL    HW290552   7.492   7.611   3.319
62905SOL     OW90553  11.956   9.270  13.260
62905SOL    HW190554  11.900   9.213  13.206
62905SOL    HW290555  11.897   9.337  13.292
62906SOL     OW90556   5.831   7.550   5.185
62906SOL    HW190557   5.759   7.604   5.152
62906SOL    HW290558   5.898   7.613   5.211
62907SOL     OW90559  12.603   4.161  14.619
62907SOL    HW190560  12.543   4.145  14.546
62907SOL    HW290561  12.587   4.089  14.680
62908SOL     OW90562   9.406   0.147   1.585
62908SOL    HW190563   9.426   0.219   1.525
62908SOL    HW290564   9.401   0.189   1.671
62909SOL     OW90565   8.104   5.052   0.489
62909SOL    HW190566   8.013   5.024   0.500
62909SOL    HW290567   8.100   5.116   0.418
62910SOL     OW90568   5.910   4.935   6.489
62910SOL    HW190569   5.942   4.970   6.406
62910SOL    HW290570   5.986   4.942   6.548
62911SOL     OW90571  10.620  13.957  12.046
62911SOL    HW190572  10.590  14.027  12.105
62911SOL    HW290573  10.710  13.980  12.024
62912SOL     OW90574   8.166  11.592  10.801
62912SOL    HW190575   8.199  11.503  10.792
62912SOL    HW290576   8.140  11.599  10.892
62913SOL     OW90577  12.780   4.305   1.565
62913SOL    HW190578  12.770   4.214   1.537
62913SOL    HW290579  12.801   4.353   1.484
62914SOL     OW90580  11.550   0.043   7.215
62914SOL    HW190581  11.580   0.129   7.246
62914SOL    HW290582  11.467   0.061   7.172
62915SOL     OW90583   7.596   4.793  12.498
62915SOL    HW190584   7.594   4.888  12.492
62915SOL    HW290585   7.579   4.773  12.590
62916SOL     OW90586  12.982   0.607   4.078
62916SOL    HW190587  13.058   0.638   4.028
62916SOL    HW290588  12.937   0.547   4.018
62917SOL     OW90589   3.911   5.946   0.699
62917SOL    HW190590   3.973   6.017   0.712
62917SOL    HW290591   3.927   5.887   0.772
62918SOL     OW90592  11.124   0.619   0.339
62918SOL    HW190593  11.173   0.548   0.298
62918SOL    HW290594  11.184   0.693   0.337
62919SOL     OW90595   4.953  13.666   0.948
62919SOL    HW190596   4.947  13.578   0.984
62919SOL    HW290597   4.915  13.660   0.861
62920SOL     OW90598  13.236  12.619   6.086
62920SOL    HW190599  13.285  12.593   6.008
62920SOL    HW290600  13.144  12.609   6.061
62921SOL     OW90601  13.639  10.630   9.331
62921SOL    HW190602  13.666  10.543   9.360
62921SOL    HW290603  13.647  10.627   9.235
62922SOL     OW90604  13.912  12.123   1.489
62922SOL    HW190605  13.876  12.110   1.401
62922SOL    HW290606  13.996  12.078   1.488
62923SOL     OW90607   8.795  11.468   3.446
62923SOL    HW190608   8.755  11.382   3.455
62923SOL    HW290609   8.746  11.524   3.507
62924SOL     OW90610   8.266   0.902   1.561
62924SOL    HW190611   8.358   0.877   1.572
62924SOL    HW290612   8.248   0.884   1.469
62925SOL     OW90613   9.895  13.246   2.052
62925SOL    HW190614   9.823  13.201   2.097
62925SOL    HW290615   9.969  13.237   2.112
62926SOL     OW90616   9.229   7.461   9.426
62926SOL    HW190617   9.253   7.478   9.517
62926SOL    HW290618   9.211   7.367   9.424
62927SOL     OW90619   4.120   4.109   2.827
62927SOL    HW190620   4.205   4.131   2.790
62927SOL    HW290621   4.080   4.194   2.846
62928SOL     OW90622  13.436   7.693   9.781
62928SOL    HW190623  13.430   7.625   9.714
62928SOL    HW290624  13.524   7.684   9.817
62929SOL     OW90625   8.490   2.509  10.910
62929SOL    HW190626   8.498   2.605  10.911
62929SOL    HW290627   8.485   2.485  11.003
62930SOL     OW90628   0.398  11.268   7.208
62930SOL    HW190629   0.342  11.333   7.165
62930SOL    HW290630   0.488  11.299   7.191
62931SOL     OW90631   9.501  10.806   7.824
62931SOL    HW190632   9.535  10.877   7.879
62931SOL    HW290633   9.440  10.850   7.765
62932SOL     OW90634   5.061   6.709   0.256
62932SOL    HW190635   5.036   6.720   0.347
62932SOL    HW290636   4.978   6.703   0.208
62933SOL     OW90637   3.103   5.024   7.515
62933SOL    HW190638   3.103   5.116   7.489
62933SOL    HW290639   3.098   5.026   7.611
62934SOL     OW90640   0.705   9.261   8.517
62934SOL    HW190641   0.666   9.316   8.449
62934SOL    HW290642   0.798   9.259   8.496
62935SOL     OW90643  11.030   9.206   4.575
62935SOL    HW190644  11.124   9.205   4.558
62935SOL    HW290645  11.005   9.298   4.566
62936SOL     OW90646   8.137   3.508  14.061
62936SOL    HW190647   8.190   3.547  13.992
62936SOL    HW290648   8.188   3.432  14.091
62937SOL     OW90649   3.405  11.460  11.389
62937SOL    HW190650   3.362  11.403  11.325
62937SOL    HW290651   3.395  11.414  11.472
62938SOL     OW90652  14.098   2.832   1.744
62938SOL    HW190653  14.171   2.815   1.684
62938SOL    HW290654  14.020   2.820   1.691
62939SOL     OW90655   6.030  11.937   8.122
62939SOL    HW190656   6.040  12.014   8.065
62939SOL    HW290657   6.018  11.864   8.061
62940SOL     OW90658   1.471   8.210  12.269
62940SOL    HW190659   1.388   8.211  12.316
62940SOL    HW290660   1.448   8.239  12.180
62941SOL     OW90661  11.917  10.731  11.015
62941SOL    HW190662  11.970  10.700  11.088
62941SOL    HW290663  11.880  10.651  10.977
62942SOL     OW90664   4.232  14.584   5.573
62942SOL    HW190665   4.213  14.556   5.483
62942SOL    HW290666   4.270  14.671   5.563
62943SOL     OW90667  14.339   1.567  12.478
62943SOL    HW190668  14.244   1.570  12.488
62943SOL    HW290669  14.373   1.617  12.552
62944SOL     OW90670  12.707   7.161  14.219
62944SOL    HW190671  12.678   7.204  14.299
62944SOL    HW290672  12.731   7.072  14.247
62945SOL     OW90673   3.811   2.469   3.415
62945SOL    HW190674   3.818   2.445   3.322
62945SOL    HW290675   3.825   2.563   3.417
62946SOL     OW90676   3.485   8.702   9.405
62946SOL    HW190677   3.425   8.735   9.339
62946SOL    HW290678   3.443   8.622   9.438
62947SOL     OW90679  13.773  10.229  12.635
62947SOL    HW190680  13.694  10.274  12.605
62947SOL    HW290681  13.833  10.300  12.658
62948SOL     OW90682  14.237  11.571  13.576
62948SOL    HW190683  14.154  11.556  13.530
62948SOL    HW290684  14.275  11.483  13.584
62949SOL     OW90685  11.721   5.710   0.651
62949SOL    HW190686  11.701   5.802   0.669
62949SOL    HW290687  11.808   5.712   0.609
62950SOL     OW90688   5.633   5.459   2.306
62950SOL    HW190689   5.552   5.488   2.264
62950SOL    HW290690   5.655   5.530   2.366
62951SOL     OW90691  13.325  12.149  10.589
62951SOL    HW190692  13.295  12.190  10.670
62951SOL    HW290693  13.405  12.197  10.566
62952SOL     OW90694   5.181   4.299   8.960
62952SOL    HW190695   5.174   4.329   9.050
62952SOL    HW290696   5.261   4.246   8.958
62953SOL     OW90697   7.900   9.035  13.054
62953SOL    HW190698   7.928   8.947  13.026
62953SOL    HW290699   7.843   9.065  12.983
62954SOL     OW90700  11.558  10.322   6.134
62954SOL    HW190701  11.477  10.360   6.101
62954SOL    HW290702  11.562  10.350   6.225
62955SOL     OW90703   6.015   1.430   1.103
62955SOL    HW190704   5.998   1.345   1.063
62955SOL    HW290705   6.105   1.450   1.079
62956SOL     OW90706   4.279  14.059  13.981
62956SOL    HW190707   4.257  14.089  14.069
62956SOL    HW290708   4.374  14.069  13.975
62957SOL     OW90709   1.881   2.921  12.461
62957SOL    HW190710   1.946   2.851  12.470
62957SOL    HW290711   1.880   2.963  12.547
62958SOL     OW90712   0.977  12.020  10.556
62958SOL    HW190713   0.900  11.997  10.503
62958SOL    HW290714   0.940  12.070  10.630
62959SOL     OW90715   7.419  13.716   7.058
62959SOL    HW190716   7.436  13.800   7.014
62959SOL    HW290717   7.489  13.659   7.029
62960SOL     OW90718   6.913  11.285  12.444
62960SOL    HW190719   6.828  11.242  12.458
62960SOL    HW290720   6.971  11.215  12.416
62961SOL     OW90721   0.416  13.629   8.466
62961SOL    HW190722   0.456  13.703   8.422
62961SOL    HW290723   0.435  13.554   8.409
62962SOL     OW90724  10.760   8.995   8.320
62962SOL    HW190725  10.773   8.934   8.392
62962SOL    HW290726  10.838   8.986   8.266
62963SOL     OW90727   4.807   1.915   6.107
62963SOL    HW190728   4.799   2.006   6.078
62963SOL    HW290729   4.740   1.905   6.174
62964SOL     OW90730  14.510   7.922   1.401
62964SOL    HW190731  14.437   7.877   1.443
62964SOL    HW290732  14.476   7.951   1.317
62965SOL     OW90733   1.505   2.490   6.952
62965SOL    HW190734   1.553   2.515   6.873
62965SOL    HW290735   1.485   2.572   6.995
62966SOL     OW90736  10.201  12.111  11.859
62966SOL    HW190737  10.140  12.168  11.905
62966SOL    HW290738  10.286  12.154  11.868
62967SOL     OW90739  14.195   2.467   4.049
62967SOL    HW190740  14.134   2.474   4.122
62967SOL    HW290741  14.266   2.411   4.082
62968SOL     OW90742  13.084  14.333   0.466
62968SOL    HW190743  13.123  14.313   0.381
62968SOL    HW290744  13.126  14.272   0.527
62969SOL     OW90745  12.909   5.527   8.566
62969SOL    HW190746  12.967   5.581   8.513
62969SOL    HW290747  12.838   5.503   8.507
62970SOL     OW90748  14.331   1.823   8.345
62970SOL    HW190749  14.390   1.850   8.275
62970SOL    HW290750  14.266   1.767   8.302
62971SOL     OW90751   7.935   9.181   1.546
62971SOL    HW190752   7.851   9.144   1.576
62971SOL    HW290753   8.001   9.137   1.599
62972SOL     OW90754   3.267  14.288   5.689
62972SOL    HW190755   3.249  14.269   5.781
62972SOL    HW290756   3.309  14.208   5.655
62973SOL     OW90757  13.389  14.352   4.571
62973SOL    HW190758  13.429  14.299   4.502
62973SOL    HW290759  13.319  14.400   4.527
62974SOL     OW90760   5.599  12.321   3.576
62974SOL    HW190761   5.616  12.374   3.654
62974SOL    HW290762   5.674  12.263   3.569
62975SOL     OW90763  11.152   9.269   7.166
62975SOL    HW190764  11.219   9.214   7.207
62975SOL    HW290765  11.202   9.329   7.110
62976SOL     OW90766   1.805  12.075  11.476
62976SOL    HW190767   1.791  12.132  11.551
62976SOL    HW290768   1.733  12.011  11.481
62977SOL     OW90769   0.752   6.814   0.550
62977SOL    HW190770   0.773   6.739   0.494
62977SOL    HW290771   0.836   6.856   0.566
62978SOL     OW90772   1.080   8.814   0.694
62978SOL    HW190773   1.009   8.805   0.630
62978SOL    HW290774   1.100   8.724   0.721
62979SOL     OW90775  14.193   7.819   5.725
62979SOL    HW190776  14.282   7.838   5.695
62979SOL    HW290777  14.195   7.837   5.819
62980SOL     OW90778  13.854   0.763   3.596
62980SOL    HW190779  13.764   0.793   3.606
62980SOL    HW290780  13.871   0.767   3.502
62981SOL     OW90781  13.798   7.102  13.480
62981SOL    HW190782  13.752   7.184  13.462
62981SOL    HW290783  13.778   7.083  13.572
62982SOL     OW90784  12.405   3.500   8.128
62982SOL    HW190785  12.379   3.436   8.062
62982SOL    HW290786  12.438   3.574   8.077
62983SOL     OW90787   5.456   3.708   4.220
62983SOL    HW190788   5.446   3.640   4.286
62983SOL    HW290789   5.441   3.664   4.137
62984SOL     OW90790   6.358  14.188   0.295
62984SOL    HW190791   6.265  14.168   0.283
62984SOL    HW290792   6.379  14.251   0.225
62985SOL     OW90793   5.847  14.652   6.124
62985SOL    HW190794   5.906  14.718   6.090
62985SOL    HW290795   5.875  14.639   6.215
62986SOL     OW90796  14.063   2.675   9.578
62986SOL    HW190797  13.979   2.669   9.624
62986SOL    HW290798  14.101   2.758   9.608
62987SOL     OW90799   8.657  13.765   3.577
62987SOL    HW190800   8.669  13.819   3.655
62987SOL    HW290801   8.704  13.811   3.507
62988SOL     OW90802   6.073   7.636  14.159
62988SOL    HW190803   6.010   7.653  14.228
62988SOL    HW290804   6.054   7.547  14.130
62989SOL     OW90805   9.243  10.440   5.640
62989SOL    HW190806   9.161  10.486   5.657
62989SOL    HW290807   9.280  10.422   5.726
62990SOL     OW90808  12.913   4.245   8.027
62990SOL    HW190809  12.890   4.317   7.968
62990SOL    HW290810  12.886   4.276   8.114
62991SOL     OW90811  12.719   4.267   7.560
62991SOL    HW190812  12.710   4.362   7.567
62991SOL    HW290813  12.811   4.250   7.581
62992SOL     OW90814   7.206   7.528   4.490
62992SOL    HW190815   7.272   7.538   4.559
62992SOL    HW290816   7.153   7.453   4.518
62993SOL     OW90817   5.820   9.061   0.336
62993SOL    HW190818   5.884   9.112   0.385
62993SOL    HW290819   5.868   8.983   0.309
62994SOL     OW90820   5.416   6.715   5.497
62994SOL    HW190821   5.434   6.774   5.570
62994SOL    HW290822   5.353   6.652   5.532
62995SOL     OW90823  13.844   7.581  13.703
62995SOL    HW190824  13.830   7.675  13.690
62995SOL    HW290825  13.799   7.561  13.785
62996SOL     OW90826   5.537   9.672   4.309
62996SOL    HW190827   5.490   9.681   4.226
62996SOL    HW290828   5.573   9.583   4.307
62997SOL     OW90829   8.644   9.136   9.215
62997SOL    HW190830   8.569   9.187   9.244
62997SOL    HW290831   8.608   9.072   9.154
62998SOL     OW90832  12.269   7.645  12.123
62998SOL    HW190833  12.174   7.657  12.117
62998SOL    HW290834  12.298   7.716  12.180
62999SOL     OW90835   0.299   5.691   0.477
62999SOL    HW190836   0.246   5.709   0.555
62999SOL    HW290837   0.347   5.772   0.461
63000SOL     OW90838  11.163  11.312   2.098
63000SOL    HW190839  11.256  11.303   2.076
63000SOL    HW290840  11.131  11.383   2.042
63001SOL     OW90841   5.054   3.151   3.674
63001SOL    HW190842   5.108   3.099   3.614
63001SOL    HW290843   5.005   3.087   3.724
63002SOL     OW90844  14.678   2.813  12.939
63002SOL    HW190845  14.650   2.761  13.014
63002SOL    HW290846  14.742   2.758  12.894
63003SOL     OW90847   4.241  11.271   7.365
63003SOL    HW190848   4.276  11.225   7.441
63003SOL    HW290849   4.238  11.363   7.392
63004SOL     OW90850  10.001  11.306  11.205
63004SOL    HW190851   9.974  11.306  11.113
63004SOL    HW290852  10.094  11.329  11.203
63005SOL     OW90853   5.712  10.245   1.469
63005SOL    HW190854   5.625  10.226   1.434
63005SOL    HW290855   5.737  10.165   1.515
63006SOL     OW90856   3.996   6.322   7.401
63006SOL    HW190857   4.082   6.283   7.386
63006SOL    HW290858   3.935   6.262   7.358
63007SOL     OW90859  10.027   6.120   0.293
63007SOL    HW190860  10.022   6.149   0.385
63007SOL    HW290861  10.081   6.186   0.250
63008SOL     OW90862  12.191  10.620   0.651
63008SOL    HW190863  12.270  10.576   0.619
63008SOL    HW290864  12.197  10.616   0.746
63009SOL     OW90865  11.548   9.086   0.478
63009SOL    HW190866  11.578   9.056   0.392
63009SOL    HW290867  11.604   9.041   0.541
63010SOL     OW90868   8.201   1.411   6.802
63010SOL    HW190869   8.148   1.449   6.732
63010SOL    HW290870   8.248   1.486   6.839
63011SOL     OW90871   9.403   0.405   2.893
63011SOL    HW190872   9.400   0.501   2.897
63011SOL    HW290873   9.432   0.386   2.804
63012SOL     OW90874  14.840   8.509   3.034
63012SOL    HW190875  14.824   8.433   2.979
63012SOL    HW290876  14.768   8.509   3.097
63013SOL     OW90877  11.016   5.135   6.144
63013SOL    HW190878  10.945   5.107   6.202
63013SOL    HW290879  11.004   5.230   6.137
63014SOL     OW90880   7.063   8.381   9.312
63014SOL    HW190881   7.034   8.404   9.401
63014SOL    HW290882   7.153   8.354   9.323
63015SOL     OW90883  14.616   5.623  13.574
63015SOL    HW190884  14.599   5.674  13.653
63015SOL    HW290885  14.603   5.685  13.502
63016SOL     OW90886   3.301   0.273   6.776
63016SOL    HW190887   3.242   0.337   6.817
63016SOL    HW290888   3.304   0.299   6.684
63017SOL     OW90889  13.033  11.316  12.662
63017SOL    HW190890  13.008  11.294  12.751
63017SOL    HW290891  13.074  11.403  12.669
63018SOL     OW90892  14.432   4.977   9.441
63018SOL    HW190893  14.475   4.896   9.414
63018SOL    HW290894  14.440   5.035   9.365
63019SOL     OW90895  12.740   5.269   2.012
63019SOL    HW190896  12.688   5.207   1.960
63019SOL    HW290897  12.733   5.236   2.102
63020SOL     OW90898   6.672  14.504  12.712
63020SOL    HW190899   6.592  14.453  12.724
63020SOL    HW290900   6.738  14.439  12.689
63021SOL     OW90901   2.904   7.449   9.346
63021SOL    HW190902   2.870   7.535   9.323
63021SOL    HW290903   2.886   7.441   9.440
63022SOL     OW90904   3.209   0.040  12.381
63022SOL    HW190905   3.163   0.107  12.330
63022SOL    HW290906   3.200  14.837  12.329
63023SOL     OW90907   5.065  12.465  11.065
63023SOL    HW190908   5.139  12.406  11.048
63023SOL    HW290909   5.071  12.531  10.997
63024SOL     OW90910  11.380   5.177   4.122
63024SOL    HW190911  11.445   5.203   4.056
63024SOL    HW290912  11.314   5.245   4.119
63025SOL     OW90913  11.348  10.462  12.285
63025SOL    HW190914  11.354  10.553  12.257
63025SOL    HW290915  11.278  10.461  12.350
63026SOL     OW90916   4.179  10.905  12.137
63026SOL    HW190917   4.107  10.919  12.198
63026SOL    HW290918   4.210  10.993  12.116
63027SOL     OW90919   9.437   0.461  10.054
63027SOL    HW190920   9.519   0.510  10.052
63027SOL    HW290921   9.369   0.528  10.043
63028SOL     OW90922   8.823  11.122   6.319
63028SOL    HW190923   8.738  11.137   6.360
63028SOL    HW290924   8.835  11.027   6.325
63029SOL     OW90925  14.834   4.690   3.053
63029SOL    HW190926  14.801   4.774   3.020
63029SOL    HW290927  14.856   4.706   3.144
63030SOL     OW90928   9.745   8.092   6.009
63030SOL    HW190929   9.661   8.135   6.026
63030SOL    HW290930   9.809   8.145   6.057
63031SOL     OW90931   8.489   6.370   2.183
63031SOL    HW190932   8.474   6.411   2.269
63031SOL    HW290933   8.513   6.443   2.126
63032SOL     OW90934   9.241   3.430   3.273
63032SOL    HW190935   9.218   3.337   3.278
63032SOL    HW290936   9.157   3.475   3.267
63033SOL     OW90937   0.847   4.460  10.428
63033SOL    HW190938   0.938   4.481  10.447
63033SOL    HW290939   0.830   4.379  10.476
63034SOL     OW90940   7.203  13.357  14.261
63034SOL    HW190941   7.218  13.427  14.198
63034SOL    HW290942   7.280  13.299  14.251
63035SOL     OW90943  13.446  12.972  12.113
63035SOL    HW190944  13.500  12.895  12.096
63035SOL    HW290945  13.502  13.047  12.090
63036SOL     OW90946   7.216   2.028   0.132
63036SOL    HW190947   7.247   2.076   0.209
63036SOL    HW290948   7.121   2.025   0.141
63037SOL     OW90949   1.019  12.215  11.470
63037SOL    HW190950   1.098  12.250  11.428
63037SOL    HW290951   0.954  12.285  11.459
63038SOL     OW90952   5.925   1.082   1.585
63038SOL    HW190953   6.002   1.099   1.532
63038SOL    HW290954   5.950   1.106   1.674
63039SOL     OW90955   9.090   7.771   8.991
63039SOL    HW190956   9.010   7.719   8.978
63039SOL    HW290957   9.076   7.816   9.074
63040SOL     OW90958  13.349   0.253   7.574
63040SOL    HW190959  13.299   0.315   7.628
63040SOL    HW290960  13.308   0.168   7.590
63041SOL     OW90961  14.066  11.166  14.272
63041SOL    HW190962  14.037  11.097  14.212
63041SOL    HW290963  14.005  11.161  14.346
63042SOL     OW90964   2.758   1.260   2.396
63042SOL    HW190965   2.749   1.171   2.361
63042SOL    HW290966   2.845   1.287   2.369
63043SOL     OW90967  11.255   6.206   9.790
63043SOL    HW190968  11.170   6.250   9.788
63043SOL    HW290969  11.311   6.265   9.841
63044SOL     OW90970  13.570   3.013   7.228
63044SOL    HW190971  13.477   3.022   7.248
63044SOL    HW290972  13.596   3.100   7.197
63045SOL     OW90973   2.979  10.569   1.696
63045SOL    HW190974   3.046  10.633   1.718
63045SOL    HW290975   2.962  10.522   1.778
63046SOL     OW90976   9.617  12.128   0.951
63046SOL    HW190977   9.596  12.176   1.031
63046SOL    HW290978   9.670  12.188   0.899
63047SOL     OW90979  12.105   4.266  11.666
63047SOL    HW190980  12.141   4.306  11.745
63047SOL    HW290981  12.164   4.193  11.646
63048SOL     OW90982  12.305   3.337   9.291
63048SOL    HW190983  12.217   3.313   9.321
63048SOL    HW290984  12.324   3.274   9.221
63049SOL     OW90985   4.234   4.021   9.211
63049SOL    HW190986   4.187   4.101   9.187
63049SOL    HW290987   4.168   3.952   9.205
63050SOL     OW90988  13.382   1.330   0.298
63050SOL    HW190989  13.338   1.401   0.252
63050SOL    HW290990  13.375   1.353   0.390
63051SOL     OW90991  12.319   6.644   3.030
63051SOL    HW190992  12.276   6.676   2.951
63051SOL    HW290993  12.412   6.647   3.010
63052SOL     OW90994   8.687  13.650   4.124
63052SOL    HW190995   8.733  13.608   4.052
63052SOL    HW290996   8.756  13.674   4.186
63053SOL     OW90997   6.895  10.040   0.362
63053SOL    HW190998   6.868  10.074   0.448
63053SOL    HW290999   6.928   9.952   0.380
63054SOL     OW91000   2.513   5.594   9.355
63054SOL    HW191001   2.475   5.673   9.316
63054SOL    HW291002   2.441   5.531   9.356
63055SOL     OW91003   4.259   5.233   7.870
63055SOL    HW191004   4.313   5.283   7.931
63055SOL    HW291005   4.218   5.299   7.814
63056SOL     OW91006   5.583  14.625   2.923
63056SOL    HW191007   5.525  14.579   2.861
63056SOL    HW291008   5.609  14.704   2.876
63057SOL     OW91009   2.416  14.486   2.441
63057SOL    HW191010   2.379  14.533   2.366
63057SOL    HW291011   2.421  14.552   2.510
63058SOL     OW91012   6.871  10.763  11.640
63058SOL    HW191013   6.802  10.810  11.593
63058SOL    HW291014   6.944  10.760  11.579
63059SOL     OW91015   6.525   0.795   7.438
63059SOL    HW191016   6.477   0.875   7.457
63059SOL    HW291017   6.479   0.757   7.363
63060SOL     OW91018   0.193   5.923   9.861
63060SOL    HW191019   0.183   5.985   9.788
63060SOL    HW291020   0.282   5.940   9.894
63061SOL     OW91021  12.194  11.525   3.287
63061SOL    HW191022  12.267  11.485   3.333
63061SOL    HW291023  12.211  11.505   3.195
63062SOL     OW91024   8.982   4.004   8.504
63062SOL    HW191025   8.941   3.974   8.423
63062SOL    HW291026   9.075   3.981   8.494
63063SOL     OW91027   1.536  11.355  12.032
63063SOL    HW191028   1.462  11.411  12.006
63063SOL    HW291029   1.538  11.362  12.127
63064SOL     OW91030   4.196  12.782  14.680
63064SOL    HW191031   4.279  12.742  14.653
63064SOL    HW291032   4.167  12.831  14.604
63065SOL     OW91033   3.987   6.991   8.408
63065SOL    HW191034   4.055   6.996   8.340
63065SOL    HW291035   3.994   7.074   8.455
63066SOL     OW91036   7.985   0.539   2.346
63066SOL    HW191037   8.006   0.449   2.318
63066SOL    HW291038   7.952   0.530   2.435
63067SOL     OW91039   7.861   0.804   8.493
63067SOL    HW191040   7.920   0.828   8.564
63067SOL    HW291041   7.789   0.867   8.498
63068SOL     OW91042   6.001   4.920  13.940
63068SOL    HW191043   6.037   4.842  13.982
63068SOL    HW291044   5.907   4.916  13.958
63069SOL     OW91045  13.795   1.111   1.473
63069SOL    HW191046  13.728   1.149   1.416
63069SOL    HW291047  13.784   1.016   1.462
63070SOL     OW91048   5.347   2.832   9.789
63070SOL    HW191049   5.258   2.834   9.824
63070SOL    HW291050   5.401   2.804   9.862
63071SOL     OW91051   9.360  12.557   1.446
63071SOL    HW191052   9.315  12.594   1.370
63071SOL    HW291053   9.323  12.604   1.520
63072SOL     OW91054   4.324   7.512  10.281
63072SOL    HW191055   4.347   7.506  10.189
63072SOL    HW291056   4.285   7.599  10.291
63073SOL     OW91057   2.459   1.782   7.353
63073SOL    HW191058   2.444   1.836   7.276
63073SOL    HW291059   2.487   1.843   7.421
63074SOL     OW91060   3.193  10.118   9.365
63074SOL    HW191061   3.167  10.160   9.283
63074SOL    HW291062   3.268  10.065   9.342
63075SOL     OW91063   5.483  14.868   8.484
63075SOL    HW191064   5.425   0.065   8.466
63075SOL    HW291065   5.569   0.022   8.456
63076SOL     OW91066   9.686  14.857   5.596
63076SOL    HW191067   9.733  14.773   5.599
63076SOL    HW291068   9.608  14.838   5.544
63077SOL     OW91069   7.711   0.343   2.277
63077SOL    HW191070   7.703   0.279   2.207
63077SOL    HW291071   7.802   0.334   2.307
63078SOL     OW91072   9.325   3.211   7.895
63078SOL    HW191073   9.416   3.194   7.921
63078SOL    HW291074   9.332   3.266   7.817
63079SOL     OW91075   1.704  11.990   6.826
63079SOL    HW191076   1.749  12.068   6.793
63079SOL    HW291077   1.664  11.951   6.748
63080SOL     OW91078   6.762   5.960  11.574
63080SOL    HW191079   6.821   6.035  11.576
63080SOL    HW291080   6.675   5.998  11.561
63081SOL     OW91081  14.549   5.723   2.728
63081SOL    HW191082  14.547   5.819   2.725
63081SOL    HW291083  14.463   5.699   2.764
63082SOL     OW91084  11.902  12.507   9.556
63082SOL    HW191085  11.938  12.511   9.468
63082SOL    HW291086  11.840  12.580   9.560
63083SOL     OW91087   9.286  12.997   9.527
63083SOL    HW191088   9.347  13.059   9.488
63083SOL    HW291089   9.277  13.025   9.618
63084SOL     OW91090   7.172   7.250   5.315
63084SOL    HW191091   7.223   7.170   5.308
63084SOL    HW291092   7.153   7.275   5.224
63085SOL     OW91093   3.265  11.287   0.490
63085SOL    HW191094   3.235  11.330   0.410
63085SOL    HW291095   3.318  11.214   0.460
63086SOL     OW91096  11.467   2.353   6.414
63086SOL    HW191097  11.471   2.432   6.468
63086SOL    HW291098  11.375   2.345   6.390
63087SOL     OW91099   7.846   1.865   5.803
63087SOL    HW191100   7.939   1.846   5.792
63087SOL    HW291101   7.802   1.810   5.739
63088SOL     OW91102  12.811   3.492   0.925
63088SOL    HW191103  12.824   3.579   0.964
63088SOL    HW291104  12.830   3.505   0.832
63089SOL     OW91105   0.855  10.241  14.592
63089SOL    HW191106   0.861  10.248  14.687
63089SOL    HW291107   0.928  10.185  14.567
63090SOL     OW91108   8.131  11.529  10.477
63090SOL    HW191109   8.190  11.604  10.487
63090SOL    HW291110   8.053  11.553  10.528
63091SOL     OW91111   4.584   6.101   8.038
63091SOL    HW191112   4.489   6.103   8.024
63091SOL    HW291113   4.620   6.119   7.951
63092SOL     OW91114   1.147   3.579   9.248
63092SOL    HW191115   1.207   3.650   9.227
63092SOL    HW291116   1.120   3.596   9.338
63093SOL     OW91117  13.550  10.838   4.007
63093SOL    HW191118  13.493  10.780   4.058
63093SOL    HW291119  13.534  10.925   4.043
63094SOL     OW91120  11.463   4.509   8.321
63094SOL    HW191121  11.437   4.424   8.286
63094SOL    HW291122  11.540   4.533   8.269
63095SOL     OW91123   3.952   6.622   6.745
63095SOL    HW191124   3.902   6.593   6.821
63095SOL    HW291125   3.994   6.543   6.712
63096SOL     OW91126   1.886  12.966   8.432
63096SOL    HW191127   1.978  12.990   8.423
63096SOL    HW291128   1.848  12.985   8.346
63097SOL     OW91129   9.932   9.433   6.178
63097SOL    HW191130   9.975   9.375   6.115
63097SOL    HW291131  10.001   9.455   6.241
63098SOL     OW91132  11.083   0.122  14.264
63098SOL    HW191133  11.162   0.168  14.293
63098SOL    HW291134  11.012   0.164  14.312
63099SOL     OW91135  10.015   1.043  10.749
63099SOL    HW191136  10.110   1.055  10.754
63099SOL    HW291137   9.996   0.977  10.815
63100SOL     OW91138   2.662  11.756  11.305
63100SOL    HW191139   2.672  11.827  11.369
63100SOL    HW291140   2.751  11.741  11.272
63101SOL     OW91141  14.536   3.044   4.771
63101SOL    HW191142  14.551   3.131   4.808
63101SOL    HW291143  14.443   3.042   4.752
63102SOL     OW91144  11.782   2.575  11.690
63102SOL    HW191145  11.717   2.516  11.653
63102SOL    HW291146  11.807   2.632  11.617
63103SOL     OW91147  12.033  12.634  14.354
63103SOL    HW191148  12.081  12.608  14.275
63103SOL    HW291149  12.043  12.560  14.414
63104SOL     OW91150  11.653  13.099   3.860
63104SOL    HW191151  11.663  13.018   3.809
63104SOL    HW291152  11.620  13.163   3.797
63105SOL     OW91153   1.822   8.080  11.781
63105SOL    HW191154   1.883   8.043  11.845
63105SOL    HW291155   1.752   8.117  11.834
63106SOL     OW91156   7.698   5.283   2.283
63106SOL    HW191157   7.772   5.307   2.338
63106SOL    HW291158   7.657   5.209   2.328
63107SOL     OW91159  12.979   2.845  11.028
63107SOL    HW191160  12.971   2.792  11.108
63107SOL    HW291161  13.057   2.898  11.043
63108SOL     OW91162  12.585  11.725   6.993
63108SOL    HW191163  12.580  11.685   6.906
63108SOL    HW291164  12.676  11.710   7.021
63109SOL     OW91165   3.855  13.476   6.710
63109SOL    HW191166   3.906  13.508   6.785
63109SOL    HW291167   3.893  13.521   6.635
63110SOL     OW91168   2.407   0.157   6.712
63110SOL    HW191169   2.421   0.065   6.690
63110SOL    HW291170   2.334   0.184   6.657
63111SOL     OW91171   3.183   9.959   0.410
63111SOL    HW191172   3.268   9.976   0.451
63111SOL    HW291173   3.164   9.868   0.431
63112SOL     OW91174  11.488  10.892   2.170
63112SOL    HW191175  11.574  10.905   2.130
63112SOL    HW291176  11.487  10.952   2.244
63113SOL     OW91177  10.786   2.581   7.072
63113SOL    HW191178  10.827   2.589   7.158
63113SOL    HW291179  10.728   2.505   7.079
63114SOL     OW91180   2.560   5.026   2.784
63114SOL    HW191181   2.491   5.044   2.720
63114SOL    HW291182   2.589   4.937   2.762
63115SOL     OW91183  11.310   5.667   8.941
63115SOL    HW191184  11.283   5.692   9.030
63115SOL    HW291185  11.289   5.743   8.887
63116SOL     OW91186   2.193  10.871   6.330
63116SOL    HW191187   2.160  10.891   6.242
63116SOL    HW291188   2.182  10.776   6.339
63117SOL     OW91189   1.189  13.325   8.731
63117SOL    HW191190   1.098  13.304   8.752
63117SOL    HW291191   1.225  13.359   8.813
63118SOL     OW91192   2.678   2.375  12.716
63118SOL    HW191193   2.762   2.363  12.761
63118SOL    HW291194   2.700   2.366  12.623
63119SOL     OW91195   4.656   1.030  11.135
63119SOL    HW191196   4.681   1.102  11.192
63119SOL    HW291197   4.653   1.069  11.047
63120SOL     OW91198   5.529   6.369  14.643
63120SOL    HW191199   5.550   6.463  14.642
63120SOL    HW291200   5.438   6.365  14.614
63121SOL     OW91201  14.027   1.167   9.192
63121SOL    HW191202  14.064   1.255   9.195
63121SOL    HW291203  14.095   1.113   9.152
63122SOL     OW91204   5.342   4.750   0.415
63122SOL    HW191205   5.258   4.740   0.461
63122SOL    HW291206   5.318   4.771   0.325
63123SOL     OW91207   1.483   4.088  12.372
63123SOL    HW191208   1.512   3.999  12.353
63123SOL    HW291209   1.452   4.084  12.462
63124SOL     OW91210   4.871  13.193   2.432
63124SOL    HW191211   4.883  13.275   2.385
63124SOL    HW291212   4.794  13.209   2.488
63125SOL     OW91213   8.349   5.785  13.789
63125SOL    HW191214   8.338   5.748  13.877
63125SOL    HW291215   8.337   5.711  13.730
63126SOL     OW91216  10.123   5.001   4.329
63126SOL    HW191217  10.118   5.090   4.296
63126SOL    HW291218  10.042   4.989   4.378
63127SOL     OW91219   5.282   8.062  11.070
63127SOL    HW191220   5.357   8.013  11.102
63127SOL    HW291221   5.280   8.141  11.125
63128SOL     OW91222  13.972  11.483   5.462
63128SOL    HW191223  14.003  11.545   5.396
63128SOL    HW291224  14.051  11.454   5.507
63129SOL     OW91225   2.353   5.712  10.217
63129SOL    HW191226   2.330   5.699  10.309
63129SOL    HW291227   2.440   5.752  10.220
63130SOL     OW91228   9.119   9.599   1.522
63130SOL    HW191229   9.187   9.563   1.464
63130SOL    HW291230   9.131   9.553   1.605
63131SOL     OW91231   4.008  14.309   0.386
63131SOL    HW191232   4.036  14.314   0.478
63131SOL    HW291233   4.026  14.396   0.351
63132SOL     OW91234  14.682  13.028   7.560
63132SOL    HW191235  14.724  12.942   7.571
63132SOL    HW291236  14.665  13.035   7.466
63133SOL     OW91237  10.846   9.245  14.862
63133SOL    HW191238  10.875   9.186   0.055
63133SOL    HW291239  10.757   9.270   0.011
63134SOL     OW91240   0.171  10.025   9.207
63134SOL    HW191241   0.127  10.065   9.132
63134SOL    HW291242   0.262  10.055   9.201
63135SOL     OW91243  13.702  11.958   6.975
63135SOL    HW191244  13.743  11.872   6.965
63135SOL    HW291245  13.640  11.964   6.902
63136SOL     OW91246  10.777   0.702   2.432
63136SOL    HW191247  10.689   0.737   2.416
63136SOL    HW291248  10.814   0.691   2.344
63137SOL     OW91249   3.827   4.492   4.949
63137SOL    HW191250   3.835   4.581   4.982
63137SOL    HW291251   3.777   4.501   4.868
63138SOL     OW91252   4.006   7.822   4.766
63138SOL    HW191253   3.941   7.804   4.698
63138SOL    HW291254   3.963   7.796   4.847
63139SOL     OW91255   6.498  12.893   2.279
63139SOL    HW191256   6.540  12.883   2.194
63139SOL    HW291257   6.562  12.941   2.332
63140SOL     OW91258   4.724  14.333   3.284
63140SOL    HW191259   4.707  14.415   3.237
63140SOL    HW291260   4.658  14.330   3.353
63141SOL     OW91261   2.877   0.403   0.935
63141SOL    HW191262   2.929   0.483   0.938
63141SOL    HW291263   2.801   0.422   0.990
63142SOL     OW91264   8.166  12.631   0.382
63142SOL    HW191265   8.216  12.558   0.419
63142SOL    HW291266   8.232  12.687   0.342
63143SOL     OW91267  10.966  10.872   5.240
63143SOL    HW191268  10.953  10.966   5.253
63143SOL    HW291269  10.933  10.855   5.152
63144SOL     OW91270   3.463  11.319  12.230
63144SOL    HW191271   3.447  11.329  12.324
63144SOL    HW291272   3.511  11.399  12.206
63145SOL     OW91273   2.910   6.752   7.583
63145SOL    HW191274   2.869   6.827   7.627
63145SOL    HW291275   2.842   6.718   7.525
63146SOL     OW91276  11.642  14.654   5.338
63146SOL    HW191277  11.665  14.646   5.430
63146SOL    HW291278  11.547  14.668   5.338
63147SOL     OW91279   1.472  10.793   9.364
63147SOL    HW191280   1.422  10.714   9.382
63147SOL    HW291281   1.451  10.852   9.436
63148SOL     OW91282   0.282   3.838  14.486
63148SOL    HW191283   0.353   3.790  14.528
63148SOL    HW291284   0.203   3.806  14.530
63149SOL     OW91285  13.385   8.070   9.613
63149SOL    HW191286  13.354   8.161   9.620
63149SOL    HW291287  13.343   8.037   9.533
63150SOL     OW91288   8.323   5.993   0.801
63150SOL    HW191289   8.265   5.952   0.738
63150SOL    HW291290   8.274   6.068   0.834
63151SOL     OW91291   8.430  13.769   0.686
63151SOL    HW191292   8.346  13.815   0.695
63151SOL    HW291293   8.485  13.807   0.754
63152SOL     OW91294  14.454   8.205  13.992
63152SOL    HW191295  14.443   8.292  13.954
63152SOL    HW291296  14.385   8.152  13.953
63153SOL     OW91297   2.926   4.158   1.422
63153SOL    HW191298   2.959   4.219   1.356
63153SOL    HW291299   2.860   4.208   1.471
63154SOL     OW91300   8.057   1.084  13.654
63154SOL    HW191301   8.102   1.078  13.570
63154SOL    HW291302   8.095   1.014  13.706
63155SOL     OW91303   2.555  12.108   3.590
63155SOL    HW191304   2.494  12.114   3.516
63155SOL    HW291305   2.611  12.033   3.568
63156SOL     OW91306   1.835   2.423  14.032
63156SOL    HW191307   1.793   2.356  13.977
63156SOL    HW291308   1.928   2.418  14.011
63157SOL     OW91309   6.048  14.408   4.262
63157SOL    HW191310   5.981  14.467   4.227
63157SOL    HW291311   6.131  14.455   4.247
63158SOL     OW91312  12.598  13.395   2.634
63158SOL    HW191313  12.549  13.439   2.565
63158SOL    HW291314  12.541  13.323   2.662
63159SOL     OW91315  14.636  14.067   3.962
63159SOL    HW191316  14.683  14.110   4.033
63159SOL    HW291317  14.662  13.976   3.967
63160SOL     OW91318   8.940  12.560  11.985
63160SOL    HW191319   8.876  12.579  12.053
63160SOL    HW291320   8.981  12.645  11.967
63161SOL     OW91321   9.015  14.826   7.318
63161SOL    HW191322   8.927  14.821   7.356
63161SOL    HW291323   9.043   0.040   7.334
63162SOL     OW91324   5.417  14.568   1.758
63162SOL    HW191325   5.467  14.609   1.828
63162SOL    HW291326   5.340  14.624   1.747
63163SOL     OW91327  12.481  10.432   5.514
63163SOL    HW191328  12.439  10.346   5.507
63163SOL    HW291329  12.490  10.462   5.424
63164SOL     OW91330   5.563   8.567   4.922
63164SOL    HW191331   5.579   8.660   4.905
63164SOL    HW291332   5.607   8.550   5.005
63165SOL     OW91333   8.664  13.125   8.676
63165SOL    HW191334   8.648  13.168   8.593
63165SOL    HW291335   8.597  13.159   8.735
63166SOL     OW91336   2.115   7.767   8.918
63166SOL    HW191337   2.131   7.785   8.825
63166SOL    HW291338   2.180   7.700   8.941
63167SOL     OW91339   0.930  11.846   0.696
63167SOL    HW191340   0.881  11.787   0.755
63167SOL    HW291341   0.987  11.896   0.755
63168SOL     OW91342  11.598  12.765  11.813
63168SOL    HW191343  11.685  12.769  11.771
63168SOL    HW291344  11.617  12.769  11.907
63169SOL     OW91345   2.211  12.771   7.050
63169SOL    HW191346   2.262  12.813   6.981
63169SOL    HW291347   2.263  12.785   7.130
63170SOL     OW91348   5.498  14.357   5.442
63170SOL    HW191349   5.485  14.264   5.461
63170SOL    HW291350   5.533  14.394   5.524
63171SOL     OW91351  10.901  11.652  13.346
63171SOL    HW191352  10.926  11.733  13.301
63171SOL    HW291353  10.806  11.653  13.348
63172SOL     OW91354  12.877   9.390   7.106
63172SOL    HW191355  12.861   9.345   7.189
63172SOL    HW291356  12.892   9.481   7.131
63173SOL     OW91357   6.474   5.190  14.711
63173SOL    HW191358   6.456   5.227  14.798
63173SOL    HW291359   6.390   5.195  14.665
63174SOL     OW91360   6.385   1.933  13.195
63174SOL    HW191361   6.316   1.992  13.166
63174SOL    HW291362   6.347   1.846  13.187
63175SOL     OW91363  14.188  14.701   1.906
63175SOL    HW191364  14.224  14.765   1.968
63175SOL    HW291365  14.263  14.678   1.850
63176SOL     OW91366  10.909   9.649   6.597
63176SOL    HW191367  10.994   9.642   6.639
63176SOL    HW291368  10.929   9.648   6.503
63177SOL     OW91369  13.800   1.056  14.576
63177SOL    HW191370  13.896   1.055  14.573
63177SOL    HW291371  13.779   1.129  14.635
63178SOL     OW91372   5.545   8.525   7.870
63178SOL    HW191373   5.605   8.596   7.845
63178SOL    HW291374   5.535   8.536   7.965
63179SOL     OW91375   8.338  13.618  12.789
63179SOL    HW191376   8.354  13.561  12.713
63179SOL    HW291377   8.244  13.612  12.803
63180SOL     OW91378   0.647  10.247   4.186
63180SOL    HW191379   0.687  10.162   4.170
63180SOL    HW291380   0.707  10.310   4.145
63181SOL     OW91381   8.799   5.429  12.384
63181SOL    HW191382   8.866   5.361  12.394
63181SOL    HW291383   8.762   5.413  12.297
63182SOL     OW91384   3.169  12.878   0.673
63182SOL    HW191385   3.107  12.902   0.742
63182SOL    HW291386   3.167  12.782   0.671
63183SOL     OW91387  10.502   5.779   4.693
63183SOL    HW191388  10.524   5.860   4.648
63183SOL    HW291389  10.572   5.767   4.757
63184SOL     OW91390  10.570  14.601   1.298
63184SOL    HW191391  10.605  14.548   1.226
63184SOL    HW291392  10.563  14.540   1.371
63185SOL     OW91393   4.815  10.929   7.385
63185SOL    HW191394   4.788  10.889   7.302
63185SOL    HW291395   4.885  10.872   7.417
63186SOL     OW91396   4.292   6.087  13.722
63186SOL    HW191397   4.208   6.118  13.756
63186SOL    HW291398   4.285   6.099  13.627
63187SOL     OW91399   5.314   6.851  12.188
63187SOL    HW191400   5.407   6.844  12.208
63187SOL    HW291401   5.287   6.934  12.227
63188SOL     OW91402   2.326   4.645   4.387
63188SOL    HW191403   2.374   4.726   4.401
63188SOL    HW291404   2.240   4.672   4.357
63189SOL     OW91405   1.412   3.884   6.578
63189SOL    HW191406   1.333   3.831   6.584
63189SOL    HW291407   1.450   3.862   6.493
63190SOL     OW91408   8.519  11.001  13.908
63190SOL    HW191409   8.457  11.046  13.966
63190SOL    HW291410   8.600  10.998  13.958
63191SOL     OW91411   4.356   8.342  12.713
63191SOL    HW191412   4.262   8.323  12.712
63191SOL    HW291413   4.394   8.271  12.766
63192SOL     OW91414   4.282   0.586   0.631
63192SOL    HW191415   4.292   0.671   0.673
63192SOL    HW291416   4.203   0.595   0.578
63193SOL     OW91417  12.195   5.255   9.898
63193SOL    HW191418  12.152   5.189   9.843
63193SOL    HW291419  12.207   5.211   9.983
63194SOL     OW91420   5.982   4.103   7.120
63194SOL    HW191421   6.050   4.080   7.057
63194SOL    HW291422   5.989   4.198   7.129
63195SOL     OW91423   3.971   2.086   1.619
63195SOL    HW191424   4.025   2.165   1.609
63195SOL    HW291425   3.896   2.101   1.561
63196SOL     OW91426  13.897   9.773   8.329
63196SOL    HW191427  13.858   9.857   8.354
63196SOL    HW291428  13.988   9.793   8.308
63197SOL     OW91429   8.563   6.773   6.486
63197SOL    HW191430   8.580   6.679   6.483
63197SOL    HW291431   8.619   6.805   6.557
63198SOL     OW91432  11.153  12.609   0.377
63198SOL    HW191433  11.164  12.702   0.358
63198SOL    HW291434  11.234  12.584   0.422
63199SOL     OW91435   8.699   9.447  12.853
63199SOL    HW191436   8.719   9.477  12.942
63199SOL    HW291437   8.680   9.354  12.863
63200SOL     OW91438   5.636   9.323   7.356
63200SOL    HW191439   5.647   9.287   7.444
63200SOL    HW291440   5.578   9.260   7.312
63201SOL     OW91441   5.549   7.471  14.566
63201SOL    HW191442   5.470   7.431  14.602
63201SOL    HW291443   5.608   7.397  14.549
63202SOL     OW91444  11.912   9.894   8.428
63202SOL    HW191445  11.866   9.897   8.344
63202SOL    HW291446  11.866   9.827   8.478
63203SOL     OW91447  14.829   9.327  13.066
63203SOL    HW191448  14.802   9.236  13.078
63203SOL    HW291449  14.849   9.358  13.154
63204SOL     OW91450  11.749  13.365  12.953
63204SOL    HW191451  11.717  13.367  13.043
63204SOL    HW291452  11.809  13.439  12.947
63205SOL     OW91453   6.130   7.846   0.869
63205SOL    HW191454   6.038   7.839   0.846
63205SOL    HW291455   6.130   7.891   0.954
63206SOL     OW91456  11.040   3.319   7.092
63206SOL    HW191457  10.965   3.330   7.033
63206SOL    HW291458  11.110   3.284   7.037
63207SOL     OW91459   3.252  11.729   4.741
63207SOL    HW191460   3.269  11.742   4.835
63207SOL    HW291461   3.269  11.815   4.702
63208SOL     OW91462  14.237  12.220   6.415
63208SOL    HW191463  14.235  12.154   6.346
63208SOL    HW291464  14.150  12.216   6.455
63209SOL     OW91465   8.157   6.516   3.886
63209SOL    HW191466   8.188   6.426   3.896
63209SOL    HW291467   8.069   6.515   3.925
63210SOL     OW91468   0.272   6.949   0.315
63210SOL    HW191469   0.294   6.962   0.407
63210SOL    HW291470   0.354   6.921   0.275
63211SOL     OW91471  11.019   9.509   0.886
63211SOL    HW191472  10.925   9.522   0.897
63211SOL    HW291473  11.033   9.514   0.791
63212SOL     OW91474   6.549  10.958  10.576
63212SOL    HW191475   6.512  11.038  10.614
63212SOL    HW291476   6.643  10.976  10.569
63213SOL     OW91477  10.776   0.106  12.629
63213SOL    HW191478  10.800   0.193  12.596
63213SOL    HW291479  10.752   0.120  12.720
63214SOL     OW91480   6.824  13.856   9.603
63214SOL    HW191481   6.757  13.817   9.659
63214SOL    HW291482   6.801  13.949   9.601
63215SOL     OW91483  11.181   6.413   3.190
63215SOL    HW191484  11.275   6.425   3.197
63215SOL    HW291485  11.146   6.443   3.274
63216SOL     OW91486   8.642   6.094   7.585
63216SOL    HW191487   8.724   6.118   7.627
63216SOL    HW291488   8.587   6.172   7.594
63217SOL     OW91489   1.494  12.381   1.039
63217SOL    HW191490   1.408  12.364   1.078
63217SOL    HW291491   1.552  12.319   1.082
63218SOL     OW91492  10.849   7.454  13.204
63218SOL    HW191493  10.771   7.400  13.193
63218SOL    HW291494  10.923   7.395  13.187
63219SOL     OW91495   0.952  11.379   4.828
63219SOL    HW191496   0.879  11.357   4.770
63219SOL    HW291497   1.018  11.418   4.770
63220SOL     OW91498   9.717  14.786   6.401
63220SOL    HW191499   9.653  14.723   6.436
63220SOL    HW291500   9.700  14.787   6.307
63221SOL     OW91501   2.706   7.111   4.199
63221SOL    HW191502   2.678   7.200   4.180
63221SOL    HW291503   2.704   7.105   4.295
63222SOL     OW91504  10.040   2.929  13.706
63222SOL    HW191505   9.945   2.921  13.721
63222SOL    HW291506  10.074   2.959  13.790
63223SOL     OW91507   7.381   6.016   1.556
63223SOL    HW191508   7.347   5.974   1.477
63223SOL    HW291509   7.344   6.105   1.553
63224SOL     OW91510   4.601  13.389   5.920
63224SOL    HW191511   4.647  13.417   6.000
63224SOL    HW291512   4.627  13.453   5.854
63225SOL     OW91513   8.958   4.693  10.744
63225SOL    HW191514   8.917   4.643  10.815
63225SOL    HW291515   8.885   4.741  10.704
63226SOL     OW91516   0.321   8.587   7.981
63226SOL    HW191517   0.319   8.682   7.989
63226SOL    HW291518   0.411   8.563   8.002
63227SOL     OW91519   0.698   5.085   8.812
63227SOL    HW191520   0.769   5.143   8.783
63227SOL    HW291521   0.715   5.003   8.765
63228SOL     OW91522   7.372   0.639  10.063
63228SOL    HW191523   7.466   0.650  10.076
63228SOL    HW291524   7.344   0.717  10.016
63229SOL     OW91525  13.341   8.478  14.236
63229SOL    HW191526  13.279   8.405  14.241
63229SOL    HW291527  13.405   8.460  14.304
63230SOL     OW91528  14.734   1.311  13.313
63230SOL    HW191529  14.727   1.233  13.259
63230SOL    HW291530  14.676   1.374  13.272
63231SOL     OW91531   8.547   7.408  13.971
63231SOL    HW191532   8.582   7.484  13.923
63231SOL    HW291533   8.456   7.402  13.943
63232SOL     OW91534  13.221   9.636   6.400
63232SOL    HW191535  13.212   9.585   6.320
63232SOL    HW291536  13.302   9.605   6.439
63233SOL     OW91537   6.030  12.937   5.513
63233SOL    HW191538   6.066  12.870   5.454
63233SOL    HW291539   5.953  12.896   5.552
63234SOL     OW91540   3.926   6.478   6.096
63234SOL    HW191541   3.941   6.505   6.006
63234SOL    HW291542   3.996   6.415   6.115
63235SOL     OW91543   9.348   8.742   3.800
63235SOL    HW191544   9.255   8.755   3.780
63235SOL    HW291545   9.392   8.816   3.758
63236SOL     OW91546  14.433   8.384   4.702
63236SOL    HW191547  14.416   8.470   4.663
63236SOL    HW291548  14.504   8.347   4.649
63237SOL     OW91549  10.701   8.815   1.753
63237SOL    HW191550  10.650   8.896   1.755
63237SOL    HW291551  10.668   8.768   1.676
63238SOL     OW91552   8.124   0.096   0.985
63238SOL    HW191553   8.081   0.010   0.988
63238SOL    HW291554   8.052   0.157   0.967
63239SOL     OW91555   1.784   2.115   5.877
63239SOL    HW191556   1.816   2.191   5.828
63239SOL    HW291557   1.863   2.074   5.911
63240SOL     OW91558  11.671   5.705  11.077
63240SOL    HW191559  11.747   5.726  11.022
63240SOL    HW291560  11.597   5.745  11.032
63241SOL     OW91561   9.906   0.009   2.948
63241SOL    HW191562   9.961   0.043   2.878
63241SOL    HW291563   9.957  14.816   2.989
63242SOL     OW91564  11.457  11.713   3.808
63242SOL    HW191565  11.370  11.735   3.842
63242SOL    HW291566  11.440  11.653   3.735
63243SOL     OW91567  13.801  13.644   9.256
63243SOL    HW191568  13.790  13.609   9.168
63243SOL    HW291569  13.864  13.586   9.298
63244SOL     OW91570   3.843   0.727   1.739
63244SOL    HW191571   3.858   0.678   1.658
63244SOL    HW291572   3.770   0.785   1.720
63245SOL     OW91573   1.932  11.644   6.922
63245SOL    HW191574   1.991  11.669   6.851
63245SOL    HW291575   1.954  11.552   6.939
63246SOL     OW91576   6.789  14.493   6.927
63246SOL    HW191577   6.822  14.454   7.008
63246SOL    HW291578   6.790  14.421   6.864
63247SOL     OW91579  10.162   3.436   9.997
63247SOL    HW191580  10.156   3.431   9.902
63247SOL    HW291581  10.219   3.512  10.014
63248SOL     OW91582   3.044   2.758   7.990
63248SOL    HW191583   3.069   2.736   8.080
63248SOL    HW291584   3.065   2.851   7.981
63249SOL     OW91585  14.712   2.350   1.512
63249SOL    HW191586  14.682   2.260   1.497
63249SOL    HW291587  14.675   2.373   1.597
63250SOL     OW91588   1.186   9.452   7.224
63250SOL    HW191589   1.189   9.507   7.303
63250SOL    HW291590   1.152   9.510   7.156
63251SOL     OW91591   5.903  13.823   6.829
63251SOL    HW191592   5.937  13.739   6.860
63251SOL    HW291593   5.938  13.887   6.891
63252SOL     OW91594   0.617   4.798   2.260
63252SOL    HW191595   0.641   4.777   2.351
63252SOL    HW291596   0.672   4.739   2.207
63253SOL     OW91597   2.899  13.933  12.004
63253SOL    HW191598   2.934  13.926  12.092
63253SOL    HW291599   2.897  13.843  11.972
63254SOL     OW91600  13.688   7.190   3.114
63254SOL    HW191601  13.765   7.142   3.144
63254SOL    HW291602  13.651   7.229   3.193
63255SOL     OW91603   1.894  14.813  13.509
63255SOL    HW191604   1.901  14.750  13.581
63255SOL    HW291605   1.896   0.022  13.552
63256SOL     OW91606  10.914   6.064  11.557
63256SOL    HW191607  10.936   6.145  11.601
63256SOL    HW291608  10.860   6.091  11.483
63257SOL     OW91609  11.319   1.054   8.986
63257SOL    HW191610  11.364   0.970   8.993
63257SOL    HW291611  11.381   1.111   8.940
63258SOL     OW91612   3.673   6.589   2.601
63258SOL    HW191613   3.747   6.573   2.543
63258SOL    HW291614   3.714   6.617   2.684
63259SOL     OW91615   1.578  10.795   5.969
63259SOL    HW191616   1.487  10.793   5.939
63259SOL    HW291617   1.586  10.718   6.026
63260SOL     OW91618   9.607   8.816   7.987
63260SOL    HW191619   9.693   8.856   7.998
63260SOL    HW291620   9.564   8.870   7.921
63261SOL     OW91621   6.122   8.669   0.555
63261SOL    HW191622   6.063   8.742   0.535
63261SOL    HW291623   6.109   8.607   0.482
63262SOL     OW91624  11.837  12.124  12.900
63262SOL    HW191625  11.882  12.040  12.890
63262SOL    HW291626  11.893  12.173  12.961
63263SOL     OW91627   2.419   8.001  13.690
63263SOL    HW191628   2.398   8.009  13.783
63263SOL    HW291629   2.342   7.959  13.651
63264SOL     OW91630   2.140   3.779   5.941
63264SOL    HW191631   2.051   3.793   5.908
63264SOL    HW291632   2.140   3.820   6.028
63265SOL     OW91633   1.487   7.162   3.725
63265SOL    HW191634   1.405   7.197   3.759
63265SOL    HW291635   1.478   7.067   3.731
63266SOL     OW91636   2.316   2.161   4.520
63266SOL    HW191637   2.362   2.113   4.450
63266SOL    HW291638   2.226   2.167   4.488
63267SOL     OW91639   6.902   1.923   9.642
63267SOL    HW191640   6.876   2.004   9.600
63267SOL    HW291641   6.941   1.870   9.572
63268SOL     OW91642  12.485   8.399  14.761
63268SOL    HW191643  12.541   8.468  14.796
63268SOL    HW291644  12.544   8.346  14.707
63269SOL     OW91645   2.216  13.607  14.054
63269SOL    HW191646   2.151  13.628  14.122
63269SOL    HW291647   2.174  13.541  14.000
63270SOL     OW91648  13.141  11.174  14.255
63270SOL    HW191649  13.160  11.128  14.173
63270SOL    HW291650  13.046  11.187  14.254
63271SOL     OW91651   3.991  10.074   6.899
63271SOL    HW191652   3.975  10.159   6.857
63271SOL    HW291653   3.909  10.027   6.889
63272SOL     OW91654   0.143   6.149  10.969
63272SOL    HW191655   0.134   6.082  11.037
63272SOL    HW291656   0.225   6.194  10.990
63273SOL     OW91657   4.248  12.190   4.029
63273SOL    HW191658   4.231  12.140   4.109
63273SOL    HW291659   4.161  12.206   3.992
63274SOL     OW91660   2.670   1.845   7.606
63274SOL    HW191661   2.622   1.769   7.638
63274SOL    HW291662   2.602   1.905   7.575
63275SOL     OW91663   7.464   6.421  11.813
63275SOL    HW191664   7.415   6.449  11.736
63275SOL    HW291665   7.499   6.335  11.789
63276SOL     OW91666   9.182  10.592   8.776
63276SOL    HW191667   9.177  10.676   8.822
63276SOL    HW291668   9.248  10.542   8.824
63277SOL     OW91669   7.476   7.415   4.249
63277SOL    HW191670   7.397   7.431   4.196
63277SOL    HW291671   7.446   7.359   4.320
63278SOL     OW91672   6.999   8.182  14.336
63278SOL    HW191673   6.919   8.139  14.305
63278SOL    HW291674   6.975   8.274  14.343
63279SOL     OW91675   6.324   3.085  12.827
63279SOL    HW191676   6.284   3.143  12.762
63279SOL    HW291677   6.252   3.060  12.884
63280SOL     OW91678   6.586   2.402  13.186
63280SOL    HW191679   6.647   2.476  13.188
63280SOL    HW291680   6.639   2.327  13.159
63281SOL     OW91681  13.668   7.276   0.753
63281SOL    HW191682  13.666   7.371   0.743
63281SOL    HW291683  13.683   7.262   0.846
63282SOL     OW91684   7.173   3.260  11.457
63282SOL    HW191685   7.258   3.239  11.496
63282SOL    HW291686   7.194   3.311  11.379
63283SOL     OW91687   1.467  12.960   3.465
63283SOL    HW191688   1.470  12.951   3.370
63283SOL    HW291689   1.525  12.891   3.497
63284SOL     OW91690   4.327   4.264  14.712
63284SOL    HW191691   4.303   4.237  14.801
63284SOL    HW291692   4.245   4.266  14.664
63285SOL     OW91693  14.412  11.405  14.611
63285SOL    HW191694  14.377  11.356  14.537
63285SOL    HW291695  14.504  11.380  14.615
63286SOL     OW91696   3.012  13.486   5.246
63286SOL    HW191697   3.070  13.548   5.202
63286SOL    HW291698   2.968  13.440   5.175
63287SOL     OW91699  10.067  11.679   1.479
63287SOL    HW191700  10.020  11.610   1.432
63287SOL    HW291701   9.999  11.726   1.527
63288SOL     OW91702  10.796  12.695  11.677
63288SOL    HW191703  10.866  12.740  11.724
63288SOL    HW291704  10.749  12.764  11.631
63289SOL     OW91705   0.864   5.437   9.524
63289SOL    HW191706   0.917   5.362   9.499
63289SOL    HW291707   0.915   5.514   9.498
63290SOL     OW91708   7.232   9.920  10.193
63290SOL    HW191709   7.197   9.913  10.282
63290SOL    HW291710   7.218   9.833  10.155
63291SOL     OW91711  10.654   3.167  14.094
63291SOL    HW191712  10.698   3.158  14.178
63291SOL    HW291713  10.699   3.107  14.035
63292SOL     OW91714  13.900   5.822   5.835
63292SOL    HW191715  13.846   5.883   5.786
63292SOL    HW291716  13.961   5.786   5.769
63293SOL     OW91717  11.786  11.321   7.888
63293SOL    HW191718  11.782  11.340   7.794
63293SOL    HW291719  11.699  11.288   7.909
63294SOL     OW91720   2.654   7.306   4.975
63294SOL    HW191721   2.737   7.277   4.938
63294SOL    HW291722   2.587   7.257   4.928
63295SOL     OW91723  11.894   0.284   3.587
63295SOL    HW191724  11.842   0.339   3.528
63295SOL    HW291725  11.977   0.271   3.541
63296SOL     OW91726   0.400   8.279   9.528
63296SOL    HW191727   0.314   8.299   9.492
63296SOL    HW291728   0.433   8.363   9.561
63297SOL     OW91729   0.225   8.430   8.695
63297SOL    HW191730   0.178   8.416   8.777
63297SOL    HW291731   0.162   8.404   8.627
63298SOL     OW91732  13.716  10.834   3.804
63298SOL    HW191733  13.800  10.792   3.823
63298SOL    HW291734  13.657  10.802   3.872
63299SOL     OW91735   0.885   5.566   3.707
63299SOL    HW191736   0.975   5.584   3.732
63299SOL    HW291737   0.835   5.575   3.789
63300SOL     OW91738   2.955   6.431  13.812
63300SOL    HW191739   2.952   6.466  13.724
63300SOL    HW291740   2.915   6.499  13.867
63301SOL     OW91741  13.313   9.969   7.913
63301SOL    HW191742  13.370   9.984   7.837
63301SOL    HW291743  13.241   9.916   7.878
63302SOL     OW91744   7.748   2.009   6.018
63302SOL    HW191745   7.782   1.957   5.945
63302SOL    HW291746   7.758   1.953   6.095
63303SOL     OW91747   6.312  11.063  10.907
63303SOL    HW191748   6.362  11.095  10.832
63303SOL    HW291749   6.261  11.139  10.935
63304SOL     OW91750   7.420   0.578   0.317
63304SOL    HW191751   7.359   0.651   0.329
63304SOL    HW291752   7.496   0.600   0.371
63305SOL     OW91753   5.201   1.562  11.632
63305SOL    HW191754   5.274   1.501  11.626
63305SOL    HW291755   5.123   1.508  11.618
63306SOL     OW91756   9.215   7.291  11.696
63306SOL    HW191757   9.273   7.318  11.767
63306SOL    HW291758   9.127   7.315  11.725
63307SOL     OW91759   6.902   1.244   4.055
63307SOL    HW191760   6.858   1.327   4.036
63307SOL    HW291761   6.884   1.189   3.979
63308SOL     OW91762   6.652   7.936  11.712
63308SOL    HW191763   6.741   7.913  11.739
63308SOL    HW291764   6.665   7.990  11.634
63309SOL     OW91765   0.999   6.562   0.629
63309SOL    HW191766   1.015   6.476   0.667
63309SOL    HW291767   0.905   6.562   0.609
63310SOL     OW91768  11.510   9.776  14.141
63310SOL    HW191769  11.603   9.756  14.132
63310SOL    HW291770  11.488   9.829  14.065
63311SOL     OW91771   0.561   4.181   1.508
63311SOL    HW191772   0.490   4.119   1.490
63311SOL    HW291773   0.516   4.263   1.529
63312SOL     OW91774   3.873  14.557   4.423
63312SOL    HW191775   3.801  14.498   4.445
63312SOL    HW291776   3.934  14.549   4.496
63313SOL     OW91777   0.424   9.687   3.857
63313SOL    HW191778   0.517   9.704   3.840
63313SOL    HW291779   0.414   9.593   3.838
63314SOL     OW91780   2.932   3.767   8.303
63314SOL    HW191781   2.851   3.743   8.349
63314SOL    HW291782   2.952   3.854   8.337
63315SOL     OW91783   9.189   9.039  10.444
63315SOL    HW191784   9.280   9.066  10.451
63315SOL    HW291785   9.157   9.036  10.534
63316SOL     OW91786   3.252  14.861  12.825
63316SOL    HW191787   3.191   0.058  12.834
63316SOL    HW291788   3.200  14.784  12.847
63317SOL     OW91789  10.641   4.501  14.638
63317SOL    HW191790  10.638   4.499  14.734
63317SOL    HW291791  10.605   4.586  14.614
63318SOL     OW91792   4.222  11.554   5.889
63318SOL    HW191793   4.292  11.619   5.892
63318SOL    HW291794   4.147  11.599   5.929
63319SOL     OW91795  13.953   1.849   6.659
63319SOL    HW191796  13.922   1.807   6.579
63319SOL    HW291797  14.011   1.784   6.699
63320SOL     OW91798  14.511   7.951   9.806
63320SOL    HW191799  14.583   7.945   9.744
63320SOL    HW291800  14.433   7.927   9.755
63321SOL     OW91801   3.543   8.760   1.874
63321SOL    HW191802   3.592   8.781   1.953
63321SOL    HW291803   3.546   8.840   1.822
63322SOL     OW91804   4.710  14.646   7.017
63322SOL    HW191805   4.761  14.578   6.973
63322SOL    HW291806   4.675  14.700   6.945
63323SOL     OW91807  11.831   6.952   6.662
63323SOL    HW191808  11.881   6.927   6.739
63323SOL    HW291809  11.743   6.917   6.678
63324SOL     OW91810  11.292  13.237  11.248
63324SOL    HW191811  11.375  13.284  11.258
63324SOL    HW291812  11.261  13.261  11.161
63325SOL     OW91813  11.593  13.700   3.555
63325SOL    HW191814  11.650  13.632   3.591
63325SOL    HW291815  11.510  13.691   3.602
63326SOL     OW91816  11.450   7.263  11.436
63326SOL    HW191817  11.369   7.221  11.408
63326SOL    HW291818  11.425   7.313  11.514
63327SOL     OW91819   4.656  13.132   7.871
63327SOL    HW191820   4.569  13.127   7.909
63327SOL    HW291821   4.714  13.097   7.939
63328SOL     OW91822   5.294  12.495   1.186
63328SOL    HW191823   5.343  12.560   1.238
63328SOL    HW291824   5.217  12.475   1.240
63329SOL     OW91825   0.878   3.381   1.514
63329SOL    HW191826   0.865   3.326   1.436
63329SOL    HW291827   0.967   3.361   1.542
63330SOL     OW91828  13.467  14.267   4.306
63330SOL    HW191829  13.529  14.261   4.234
63330SOL    HW291830  13.436  14.177   4.319
63331SOL     OW91831   2.006   4.265   3.659
63331SOL    HW191832   1.940   4.291   3.595
63331SOL    HW291833   1.969   4.187   3.701
63332SOL     OW91834  14.716  12.098  11.509
63332SOL    HW191835  14.658  12.151  11.564
63332SOL    HW291836  14.797  12.090  11.560
63333SOL     OW91837   6.345   2.577   8.205
63333SOL    HW191838   6.390   2.499   8.172
63333SOL    HW291839   6.324   2.555   8.296
63334SOL     OW91840   5.611   4.031  13.773
63334SOL    HW191841   5.695   4.075  13.782
63334SOL    HW291842   5.608   4.004  13.681
63335SOL     OW91843  11.947  11.482   8.463
63335SOL    HW191844  12.001  11.439   8.396
63335SOL    HW291845  11.993  11.564   8.481
63336SOL     OW91846  12.425   9.916  14.827
63336SOL    HW191847  12.335   9.897  14.853
63336SOL    HW291848  12.462   9.832  14.801
63337SOL     OW91849   4.392   4.369  11.417
63337SOL    HW191850   4.322   4.396  11.357
63337SOL    HW291851   4.451   4.316  11.364
63338SOL     OW91852   5.824   4.236  10.359
63338SOL    HW191853   5.856   4.254  10.270
63338SOL    HW291854   5.765   4.308  10.379
63339SOL     OW91855   2.937   9.725   3.921
63339SOL    HW191856   2.844   9.710   3.906
63339SOL    HW291857   2.975   9.734   3.834
63340SOL     OW91858  13.975  14.171   8.470
63340SOL    HW191859  13.995  14.249   8.522
63340SOL    HW291860  13.900  14.131   8.514
63341SOL     OW91861  11.942   7.524  11.238
63341SOL    HW191862  11.956   7.537  11.332
63341SOL    HW291863  12.025   7.489  11.206
63342SOL     OW91864   0.415   7.887   4.257
63342SOL    HW191865   0.473   7.914   4.328
63342SOL    HW291866   0.453   7.925   4.178
63343SOL     OW91867  13.672   6.660   2.318
63343SOL    HW191868  13.658   6.713   2.397
63343SOL    HW291869  13.767   6.655   2.310
63344SOL     OW91870  13.272   2.077  14.274
63344SOL    HW191871  13.278   2.080  14.369
63344SOL    HW291872  13.342   2.018  14.247
63345SOL     OW91873   5.747   7.367   3.335
63345SOL    HW191874   5.668   7.349   3.284
63345SOL    HW291875   5.790   7.438   3.288
63346SOL     OW91876  12.497   0.095   8.967
63346SOL    HW191877  12.483   0.182   8.931
63346SOL    HW291878  12.553   0.051   8.902
63347SOL     OW91879   8.663  10.540   6.749
63347SOL    HW191880   8.751  10.575   6.762
63347SOL    HW291881   8.668  10.450   6.784
63348SOL     OW91882  11.899   3.934   7.521
63348SOL    HW191883  11.856   3.985   7.451
63348SOL    HW291884  11.829   3.879   7.556
63349SOL     OW91885   4.484  11.310   8.615
63349SOL    HW191886   4.492  11.382   8.553
63349SOL    HW291887   4.518  11.346   8.697
63350SOL     OW91888  13.030  13.844   8.522
63350SOL    HW191889  13.055  13.752   8.530
63350SOL    HW291890  12.936  13.844   8.541
63351SOL     OW91891  13.117   0.325   5.724
63351SOL    HW191892  13.089   0.273   5.650
63351SOL    HW291893  13.135   0.412   5.688
63352SOL     OW91894   8.008   9.606   7.104
63352SOL    HW191895   8.055   9.576   7.026
63352SOL    HW291896   7.930   9.551   7.107
63353SOL     OW91897   8.911   9.030   6.543
63353SOL    HW191898   8.830   9.027   6.593
63353SOL    HW291899   8.886   9.065   6.458
63354SOL     OW91900  12.364  13.643   4.755
63354SOL    HW191901  12.408  13.648   4.840
63354SOL    HW291902  12.311  13.722   4.750
63355SOL     OW91903  10.565   4.985   4.356
63355SOL    HW191904  10.567   4.959   4.264
63355SOL    HW291905  10.651   4.960   4.390
63356SOL     OW91906   8.119   3.911   8.336
63356SOL    HW191907   8.178   3.963   8.281
63356SOL    HW291908   8.033   3.950   8.323
63357SOL     OW91909   4.146   4.452   0.618
63357SOL    HW191910   4.166   4.359   0.605
63357SOL    HW291911   4.197   4.497   0.551
63358SOL     OW91912   8.993   7.244   3.728
63358SOL    HW191913   8.899   7.230   3.737
63358SOL    HW291914   9.029   7.156   3.719
63359SOL     OW91915   1.368  13.691  10.806
63359SOL    HW191916   1.347  13.780  10.835
63359SOL    HW291917   1.310  13.634  10.856
63360SOL     OW91918   7.096   5.680   0.451
63360SOL    HW191919   7.039   5.631   0.510
63360SOL    HW291920   7.055   5.766   0.444
63361SOL     OW91921   1.393   3.376  13.248
63361SOL    HW191922   1.458   3.445  13.262
63361SOL    HW291923   1.386   3.368  13.153
63362SOL     OW91924   9.977   7.891   0.970
63362SOL    HW191925   9.926   7.972   0.970
63362SOL    HW291926  10.026   7.893   0.888
63363SOL     OW91927  11.513   3.807   1.807
63363SOL    HW191928  11.491   3.715   1.795
63363SOL    HW291929  11.606   3.813   1.785
63364SOL     OW91930  13.696  11.320   6.971
63364SOL    HW191931  13.728  11.302   6.883
63364SOL    HW291932  13.746  11.262   7.028
63365SOL     OW91933   2.574  10.295   9.845
63365SOL    HW191934   2.576  10.203   9.818
63365SOL    HW291935   2.489  10.304   9.889
63366SOL     OW91936   6.194   6.593  12.757
63366SOL    HW191937   6.214   6.584  12.851
63366SOL    HW291938   6.156   6.680  12.750
63367SOL     OW91939   8.599   6.681   8.538
63367SOL    HW191940   8.559   6.605   8.580
63367SOL    HW291941   8.572   6.756   8.591
63368SOL     OW91942   1.660  14.846   7.435
63368SOL    HW191943   1.643  14.819   7.345
63368SOL    HW291944   1.692  14.766   7.478
63369SOL     OW91945   3.434  11.812   8.293
63369SOL    HW191946   3.527  11.830   8.279
63369SOL    HW291947   3.390  11.849   8.216
63370SOL     OW91948   9.660  13.183  13.718
63370SOL    HW191949   9.736  13.186  13.660
63370SOL    HW291950   9.660  13.268  13.763
63371SOL     OW91951   9.454   1.041   2.836
63371SOL    HW191952   9.359   1.033   2.824
63371SOL    HW291953   9.488   1.051   2.747
63372SOL     OW91954  14.864   9.839   2.970
63372SOL    HW191955  14.773   9.860   2.948
63372SOL    HW291956   0.040   9.887   2.906
63373SOL     OW91957   7.062  13.859  13.294
63373SOL    HW191958   6.969  13.881  13.284
63373SOL    HW291959   7.106  13.908  13.225
63374SOL     OW91960   7.730   8.465   6.215
63374SOL    HW191961   7.820   8.438   6.232
63374SOL    HW291962   7.684   8.448   6.296
63375SOL     OW91963  13.195  12.966  11.444
63375SOL    HW191964  13.252  13.012  11.506
63375SOL    HW291965  13.254  12.907  11.397
63376SOL     OW91966   3.361   9.356   5.067
63376SOL    HW191967   3.291   9.394   5.121
63376SOL    HW291968   3.425   9.324   5.130
63377SOL     OW91969   8.714   3.970  14.652
63377SOL    HW191970   8.741   3.968  14.744
63377SOL    HW291971   8.747   3.888  14.616
63378SOL     OW91972   5.623   4.355   7.685
63378SOL    HW191973   5.567   4.412   7.632
63378SOL    HW291974   5.597   4.374   7.775
63379SOL     OW91975   2.542   8.088  14.387
63379SOL    HW191976   2.605   8.115  14.320
63379SOL    HW291977   2.584   8.014  14.430
63380SOL     OW91978  14.054   3.782  13.445
63380SOL    HW191979  14.051   3.874  13.419
63380SOL    HW291980  13.964   3.751  13.434
63381SOL     OW91981   1.604  14.476   5.127
63381SOL    HW191982   1.570  14.563   5.146
63381SOL    HW291983   1.529  14.428   5.091
63382SOL     OW91984   4.842   2.564  10.495
63382SOL    HW191985   4.777   2.505  10.533
63382SOL    HW291986   4.859   2.628  10.564
63383SOL     OW91987  13.432   1.155   0.635
63383SOL    HW191988  13.491   1.150   0.711
63383SOL    HW291989  13.425   1.248   0.616
63384SOL     OW91990   7.379   6.992   4.737
63384SOL    HW191991   7.285   6.978   4.751
63384SOL    HW291992   7.406   7.045   4.812
63385SOL     OW91993   2.798   4.058   9.581
63385SOL    HW191994   2.861   4.009   9.633
63385SOL    HW291995   2.713   4.038   9.621
63386SOL     OW91996  12.786   0.314   8.979
63386SOL    HW191997  12.787   0.345   8.889
63386SOL    HW291998  12.824   0.226   8.974
63387SOL     OW91999   3.579   7.290   6.444
63387SOL    HW192000   3.660   7.244   6.421
63387SOL    HW292001   3.513   7.221   6.449
63388SOL     OW92002   3.984   7.311   5.879
63388SOL    HW192003   4.022   7.285   5.795
63388SOL    HW292004   3.903   7.356   5.856
63389SOL     OW92005   1.999   9.410   3.476
63389SOL    HW192006   2.033   9.456   3.400
63389SOL    HW292007   2.013   9.317   3.457
63390SOL     OW92008   1.402  12.465  13.764
63390SOL    HW192009   1.493  12.453  13.790
63390SOL    HW292010   1.388  12.560  13.772
63391SOL     OW92011   9.862   1.421   3.622
63391SOL    HW192012   9.821   1.404   3.706
63391SOL    HW292013   9.956   1.418   3.640
63392SOL     OW92014   2.674   0.017   3.154
63392SOL    HW192015   2.760   0.059   3.159
63392SOL    HW292016   2.660   0.003   3.060
63393SOL     OW92017   0.093   1.504   8.082
63393SOL    HW192018   0.098   1.524   8.176
63393SOL    HW292019   0.131   1.417   8.074
63394SOL     OW92020  14.328  11.621  10.411
63394SOL    HW192021  14.389  11.551  10.433
63394SOL    HW292022  14.321  11.618  10.315
63395SOL     OW92023  14.013  11.251   2.771
63395SOL    HW192024  14.023  11.311   2.697
63395SOL    HW292025  14.069  11.177   2.750
63396SOL     OW92026   0.856   3.988   2.988
63396SOL    HW192027   0.802   4.067   2.991
63396SOL    HW292028   0.836   3.949   2.903
63397SOL     OW92029   0.891   6.823  13.790
63397SOL    HW192030   0.810   6.832  13.840
63397SOL    HW292031   0.876   6.747  13.734
63398SOL     OW92032   8.245   6.509   8.885
63398SOL    HW192033   8.219   6.467   8.803
63398SOL    HW292034   8.223   6.445   8.953
63399SOL     OW92035   6.014   0.273   7.695
63399SOL    HW192036   6.026   0.192   7.745
63399SOL    HW292037   6.090   0.327   7.718
63400SOL     OW92038  14.851   2.518   0.148
63400SOL    HW192039  14.875   2.459   0.077
63400SOL    HW292040  14.801   2.588   0.105
63401SOL     OW92041  10.224  13.049   9.056
63401SOL    HW192042  10.220  13.140   9.086
63401SOL    HW292043  10.317  13.025   9.064
63402SOL     OW92044  14.350   5.309   0.939
63402SOL    HW192045  14.405   5.378   0.901
63402SOL    HW292046  14.391   5.290   1.023
63403SOL     OW92047  14.562   8.190   1.651
63403SOL    HW192048  14.615   8.185   1.571
63403SOL    HW292049  14.567   8.281   1.677
63404SOL     OW92050   1.262  10.252   4.171
63404SOL    HW192051   1.338  10.201   4.144
63404SOL    HW292052   1.299  10.330   4.212
63405SOL     OW92053   4.526  11.176   3.886
63405SOL    HW192054   4.500  11.136   3.969
63405SOL    HW292055   4.594  11.118   3.851
63406SOL     OW92056  11.115   9.859  14.364
63406SOL    HW192057  11.146   9.810  14.440
63406SOL    HW292058  11.082   9.941  14.401
63407SOL     OW92059   3.256  12.387  10.183
63407SOL    HW192060   3.201  12.439  10.124
63407SOL    HW292061   3.240  12.424  10.270
63408SOL     OW92062  14.439   9.150   4.613
63408SOL    HW192063  14.379   9.155   4.538
63408SOL    HW292064  14.382   9.125   4.686
63409SOL     OW92065  13.207   8.629   2.815
63409SOL    HW192066  13.119   8.591   2.816
63409SOL    HW292067  13.252   8.588   2.889
63410SOL     OW92068  12.867   4.555   4.419
63410SOL    HW192069  12.784   4.584   4.380
63410SOL    HW292070  12.841   4.512   4.500
63411SOL     OW92071  12.722  13.376   8.099
63411SOL    HW192072  12.705  13.450   8.040
63411SOL    HW292073  12.795  13.404   8.153
63412SOL     OW92074   4.212  12.866   2.666
63412SOL    HW192075   4.303  12.845   2.690
63412SOL    HW292076   4.161  12.791   2.696
63413SOL     OW92077   1.429  13.084   2.592
63413SOL    HW192078   1.459  13.167   2.627
63413SOL    HW292079   1.500  13.055   2.534
63414SOL     OW92080   1.055   1.865  13.302
63414SOL    HW192081   1.068   1.960  13.307
63414SOL    HW292082   1.136   1.827  13.335
63415SOL     OW92083   2.397   7.922   1.235
63415SOL    HW192084   2.356   7.879   1.310
63415SOL    HW292085   2.345   8.001   1.221
63416SOL     OW92086   3.238   5.517   2.443
63416SOL    HW192087   3.185   5.571   2.502
63416SOL    HW292088   3.220   5.552   2.356
63417SOL     OW92089   4.067  14.583   5.800
63417SOL    HW192090   4.064  14.669   5.842
63417SOL    HW292091   4.133  14.592   5.731
63418SOL     OW92092   3.022   9.433   9.828
63418SOL    HW192093   3.030   9.507   9.768
63418SOL    HW292094   2.927   9.416   9.834
63419SOL     OW92095   7.271   2.970   3.705
63419SOL    HW192096   7.183   2.990   3.739
63419SOL    HW292097   7.301   2.897   3.758
63420SOL     OW92098  14.501   8.076  13.618
63420SOL    HW192099  14.567   8.027  13.666
63420SOL    HW292100  14.430   8.089  13.681
63421SOL     OW92101   7.865   0.207   6.969
63421SOL    HW192102   7.818   0.240   6.893
63421SOL    HW292103   7.813   0.132   6.998
63422SOL     OW92104   3.896   1.703   2.320
63422SOL    HW192105   3.987   1.721   2.295
63422SOL    HW292106   3.903   1.646   2.396
63423SOL     OW92107   9.880   9.214   1.591
63423SOL    HW192108   9.850   9.151   1.525
63423SOL    HW292109   9.907   9.159   1.665
63424SOL     OW92110   6.401  10.372  13.800
63424SOL    HW192111   6.402  10.468  13.797
63424SOL    HW292112   6.320  10.348  13.754
63425SOL     OW92113   1.781  10.984   9.510
63425SOL    HW192114   1.797  10.898   9.550
63425SOL    HW292115   1.788  11.046   9.583
63426SOL     OW92116  11.485   8.490  10.665
63426SOL    HW192117  11.484   8.456  10.755
63426SOL    HW292118  11.395   8.518  10.649
63427SOL     OW92119   7.231   4.348  10.012
63427SOL    HW192120   7.248   4.360   9.919
63427SOL    HW292121   7.152   4.399  10.029
63428SOL     OW92122   9.733  11.585  14.661
63428SOL    HW192123   9.767  11.604  14.749
63428SOL    HW292124   9.706  11.670  14.627
63429SOL     OW92125   2.831  11.730  13.356
63429SOL    HW192126   2.904  11.671  13.338
63429SOL    HW292127   2.785  11.689  13.429
63430SOL     OW92128   4.005   5.201   3.386
63430SOL    HW192129   4.024   5.219   3.478
63430SOL    HW292130   3.921   5.155   3.388
63431SOL     OW92131  11.874  14.138  12.718
63431SOL    HW192132  11.822  14.179  12.788
63431SOL    HW292133  11.956  14.186  12.718
63432SOL     OW92134  12.080   8.729  14.376
63432SOL    HW192135  12.070   8.823  14.362
63432SOL    HW292136  12.174   8.715  14.386
63433SOL     OW92137   3.204   3.415   1.145
63433SOL    HW192138   3.225   3.406   1.238
63433SOL    HW292139   3.108   3.415   1.143
63434SOL     OW92140  12.812  11.418   1.581
63434SOL    HW192141  12.846  11.330   1.565
63434SOL    HW292142  12.848  11.443   1.665
63435SOL     OW92143   4.328  12.882   0.736
63435SOL    HW192144   4.360  12.840   0.656
63435SOL    HW292145   4.404  12.886   0.794
63436SOL     OW92146   2.598  10.034   3.290
63436SOL    HW192147   2.634  10.086   3.218
63436SOL    HW292148   2.517  10.080   3.314
63437SOL     OW92149   0.386  11.009   1.800
63437SOL    HW192150   0.308  10.966   1.834
63437SOL    HW292151   0.371  11.016   1.706
63438SOL     OW92152   3.899   6.569   5.606
63438SOL    HW192153   3.956   6.643   5.584
63438SOL    HW292154   3.958   6.506   5.648
63439SOL     OW92155  13.886   0.853  12.026
63439SOL    HW192156  13.839   0.859  12.109
63439SOL    HW292157  13.916   0.943  12.009
63440SOL     OW92158  12.232   2.090   6.174
63440SOL    HW192159  12.233   2.010   6.228
63440SOL    HW292160  12.171   2.069   6.103
63441SOL     OW92161  14.336   5.397  11.230
63441SOL    HW192162  14.374   5.378  11.316
63441SOL    HW292163  14.241   5.393  11.244
63442SOL     OW92164   0.463   6.972   2.897
63442SOL    HW192165   0.394   6.986   2.832
63442SOL    HW292166   0.540   6.946   2.846
63443SOL     OW92167  12.634   0.727   7.436
63443SOL    HW192168  12.623   0.662   7.366
63443SOL    HW292169  12.727   0.725   7.457
63444SOL     OW92170  14.444   4.826   7.709
63444SOL    HW192171  14.535   4.815   7.739
63444SOL    HW292172  14.441   4.780   7.625
63445SOL     OW92173   3.588   6.802  12.806
63445SOL    HW192174   3.506   6.788  12.854
63445SOL    HW292175   3.652   6.747  12.851
63446SOL     OW92176  14.235   4.125   2.101
63446SOL    HW192177  14.288   4.190   2.055
63446SOL    HW292178  14.250   4.044   2.053
63447SOL     OW92179   9.007  14.270   2.556
63447SOL    HW192180   9.031  14.354   2.595
63447SOL    HW292181   9.089  14.221   2.553
63448SOL     OW92182  13.437   3.081   8.149
63448SOL    HW192183  13.481   3.134   8.083
63448SOL    HW292184  13.368   3.137   8.184
63449SOL     OW92185   0.812  11.375  14.142
63449SOL    HW192186   0.864  11.333  14.210
63449SOL    HW292187   0.840  11.467  14.144
63450SOL     OW92188  13.477   8.259   7.457
63450SOL    HW192189  13.546   8.239   7.519
63450SOL    HW292190  13.397   8.224   7.497
63451SOL     OW92191  10.847  11.955   8.799
63451SOL    HW192192  10.912  11.898   8.841
63451SOL    HW292193  10.789  11.895   8.752
63452SOL     OW92194  11.523   9.955  11.821
63452SOL    HW192195  11.454  10.008  11.860
63452SOL    HW292196  11.548   9.893  11.889
63453SOL     OW92197   4.909   1.248   7.305
63453SOL    HW192198   5.001   1.227   7.324
63453SOL    HW292199   4.869   1.259   7.391
63454SOL     OW92200   0.380   7.932  12.623
63454SOL    HW192201   0.429   7.928  12.705
63454SOL    HW292202   0.330   8.013  12.629
63455SOL     OW92203   9.828   4.081   1.730
63455SOL    HW192204   9.922   4.094   1.745
63455SOL    HW292205   9.793   4.170   1.719
63456SOL     OW92206   0.695   6.524  11.621
63456SOL    HW192207   0.622   6.563  11.573
63456SOL    HW292208   0.713   6.442  11.573
63457SOL     OW92209   8.366  13.159   4.655
63457SOL    HW192210   8.337  13.166   4.564
63457SOL    HW292211   8.314  13.225   4.702
63458SOL     OW92212  13.698  11.357   7.982
63458SOL    HW192213  13.757  11.350   7.907
63458SOL    HW292214  13.658  11.270   7.989
63459SOL     OW92215   9.848  10.871   4.064
63459SOL    HW192216   9.865  10.931   4.137
63459SOL    HW292217   9.910  10.799   4.077
63460SOL     OW92218   9.487   3.007   9.285
63460SOL    HW192219   9.512   2.972   9.199
63460SOL    HW292220   9.563   3.060   9.311
63461SOL     OW92221   2.831   9.273   7.780
63461SOL    HW192222   2.903   9.322   7.739
63461SOL    HW292223   2.838   9.185   7.744
63462SOL     OW92224   9.425  10.590  13.492
63462SOL    HW192225   9.390  10.502  13.510
63462SOL    HW292226   9.351  10.649  13.505
63463SOL     OW92227   6.912   9.320   6.755
63463SOL    HW192228   6.832   9.363   6.787
63463SOL    HW292229   6.926   9.247   6.816
63464SOL     OW92230   5.690  12.061   6.626
63464SOL    HW192231   5.753  12.119   6.668
63464SOL    HW292232   5.652  12.010   6.698
63465SOL     OW92233   1.544   3.037  10.655
63465SOL    HW192234   1.639   3.032  10.651
63465SOL    HW292235   1.518   3.075  10.571
63466SOL     OW92236  12.107   3.442   8.498
63466SOL    HW192237  12.056   3.361   8.488
63466SOL    HW292238  12.114   3.477   8.409
63467SOL     OW92239   0.662   1.596   6.469
63467SOL    HW192240   0.618   1.675   6.436
63467SOL    HW292241   0.701   1.623   6.552
63468SOL     OW92242  13.788  11.264  13.600
63468SOL    HW192243  13.878  11.251  13.571
63468SOL    HW292244  13.793  11.335  13.664
63469SOL     OW92245   8.646   0.624  13.179
63469SOL    HW192246   8.633   0.716  13.201
63469SOL    HW292247   8.738   0.619  13.151
63470SOL     OW92248   9.288  10.379  13.752
63470SOL    HW192249   9.278  10.363  13.846
63470SOL    HW292250   9.356  10.318  13.725
63471SOL     OW92251   9.174   1.751   6.440
63471SOL    HW192252   9.089   1.751   6.396
63471SOL    HW292253   9.158   1.711   6.525
63472SOL     OW92254   6.099   3.139   8.093
63472SOL    HW192255   6.019   3.142   8.146
63472SOL    HW292256   6.159   3.198   8.138
63473SOL     OW92257   2.527   5.753   6.679
63473SOL    HW192258   2.554   5.701   6.603
63473SOL    HW292259   2.609   5.783   6.718
63474SOL     OW92260   5.932   5.640  11.184
63474SOL    HW192261   6.017   5.597  11.191
63474SOL    HW292262   5.870   5.580  11.227
63475SOL     OW92263  10.936   7.495   4.825
63475SOL    HW192264  10.920   7.426   4.889
63475SOL    HW292265  10.998   7.554   4.868
63476SOL     OW92266   3.734   8.643   7.302
63476SOL    HW192267   3.691   8.691   7.231
63476SOL    HW292268   3.686   8.561   7.309
63477SOL     OW92269  12.440  14.049   3.752
63477SOL    HW192270  12.493  14.092   3.685
63477SOL    HW292271  12.370  14.111   3.771
63478SOL     OW92272   2.163  12.467   7.907
63478SOL    HW192273   2.202  12.535   7.963
63478SOL    HW292274   2.075  12.454   7.943
63479SOL     OW92275   2.728   9.443   8.995
63479SOL    HW192276   2.701   9.457   9.086
63479SOL    HW292277   2.647   9.418   8.950
63480SOL     OW92278   7.206  13.437  10.610
63480SOL    HW192279   7.247  13.493  10.544
63480SOL    HW292280   7.278  13.384  10.644
63481SOL     OW92281  13.392   7.835   8.062
63481SOL    HW192282  13.445   7.800   7.991
63481SOL    HW292283  13.389   7.929   8.046
63482SOL     OW92284  13.984   7.579  12.844
63482SOL    HW192285  14.027   7.579  12.758
63482SOL    HW292286  13.925   7.654  12.841
63483SOL     OW92287   2.236  11.553  12.990
63483SOL    HW192288   2.300  11.488  12.961
63483SOL    HW292289   2.270  11.636  12.957
63484SOL     OW92290   0.154   6.459   5.378
63484SOL    HW192291   0.121   6.370   5.391
63484SOL    HW292292   0.224   6.468   5.443
63485SOL     OW92293   8.458   6.423   3.890
63485SOL    HW192294   8.527   6.368   3.927
63485SOL    HW292295   8.381   6.367   3.889
63486SOL     OW92296   2.960   0.315   7.717
63486SOL    HW192297   2.978   0.265   7.637
63486SOL    HW292298   3.011   0.396   7.707
63487SOL     OW92299   9.894  13.771   5.060
63487SOL    HW192300   9.987  13.785   5.081
63487SOL    HW292301   9.864  13.856   5.028
63488SOL     OW92302   0.934   9.389   3.395
63488SOL    HW192303   0.861   9.442   3.429
63488SOL    HW292304   0.922   9.389   3.300
63489SOL     OW92305  14.480   4.889   9.107
63489SOL    HW192306  14.405   4.941   9.077
63489SOL    HW292307  14.468   4.803   9.066
63490SOL     OW92308   9.725   9.695   4.391
63490SOL    HW192309   9.704   9.700   4.484
63490SOL    HW292310   9.667   9.759   4.349
63491SOL     OW92311   7.975   1.975  10.556
63491SOL    HW192312   7.933   1.997  10.639
63491SOL    HW292313   7.904   1.943  10.501
63492SOL     OW92314  13.102   0.124   8.170
63492SOL    HW192315  13.181   0.070   8.165
63492SOL    HW292316  13.133   0.209   8.201
63493SOL     OW92317   9.837   5.658  14.374
63493SOL    HW192318   9.780   5.725  14.337
63493SOL    HW292319   9.787   5.578  14.370
63494SOL     OW92320   5.088   5.963  13.619
63494SOL    HW192321   5.130   5.934  13.538
63494SOL    HW292322   5.100   6.058  13.619
63495SOL     OW92323   9.142   5.974  14.692
63495SOL    HW192324   9.125   6.023  14.772
63495SOL    HW292325   9.236   5.984  14.677
63496SOL     OW92326  12.287   7.739  10.408
63496SOL    HW192327  12.321   7.715  10.494
63496SOL    HW292328  12.360   7.726  10.349
63497SOL     OW92329  13.843   3.298   5.373
63497SOL    HW192330  13.829   3.213   5.415
63497SOL    HW292331  13.890   3.277   5.292
63498SOL     OW92332   0.891   5.304   4.267
63498SOL    HW192333   0.983   5.300   4.243
63498SOL    HW292334   0.845   5.264   4.194
63499SOL     OW92335  12.687   0.209   3.465
63499SOL    HW192336  12.643   0.177   3.386
63499SOL    HW292337  12.715   0.131   3.511
63500SOL     OW92338   5.647  11.954  13.125
63500SOL    HW192339   5.588  11.994  13.060
63500SOL    HW292340   5.634  11.860  13.114
63501SOL     OW92341   5.295   1.085   1.858
63501SOL    HW192342   5.338   1.101   1.774
63501SOL    HW292343   5.311   0.992   1.876
63502SOL     OW92344  14.558  13.947   9.767
63502SOL    HW192345  14.525  13.925   9.680
63502SOL    HW292346  14.650  13.970   9.753
63503SOL     OW92347   8.392   0.752   6.909
63503SOL    HW192348   8.300   0.723   6.912
63503SOL    HW292349   8.441   0.673   6.888
63504SOL     OW92350  13.472  12.302   5.139
63504SOL    HW192351  13.390  12.331   5.179
63504SOL    HW292352  13.532  12.292   5.213
63505SOL     OW92353   8.131  10.098   6.614
63505SOL    HW192354   8.124  10.193   6.621
63505SOL    HW292355   8.062  10.065   6.672
63506SOL     OW92356   9.902   1.526   8.193
63506SOL    HW192357   9.857   1.592   8.246
63506SOL    HW292358   9.970   1.575   8.146
63507SOL     OW92359  14.563   4.467   1.162
63507SOL    HW192360  14.559   4.477   1.258
63507SOL    HW292361  14.474   4.486   1.132
63508SOL     OW92362   8.602   6.986   8.398
63508SOL    HW192363   8.639   6.932   8.328
63508SOL    HW292364   8.608   7.076   8.364
63509SOL     OW92365  12.243   6.712   9.001
63509SOL    HW192366  12.322   6.678   8.958
63509SOL    HW292367  12.248   6.678   9.090
63510SOL     OW92368   2.474  14.016  14.130
63510SOL    HW192369   2.445  14.036  14.220
63510SOL    HW292370   2.398  13.977  14.088
63511SOL     OW92371   9.687  12.533  13.270
63511SOL    HW192372   9.649  12.595  13.333
63511SOL    HW292373   9.703  12.586  13.191
63512SOL     OW92374   8.140  12.235   0.586
63512SOL    HW192375   8.205  12.243   0.657
63512SOL    HW292376   8.159  12.308   0.528
63513SOL     OW92377   7.593  14.182  12.767
63513SOL    HW192378   7.580  14.263  12.818
63513SOL    HW292379   7.637  14.123  12.828
63514SOL     OW92380   5.035  10.824   5.912
63514SOL    HW192381   5.095  10.756   5.943
63514SOL    HW292382   5.078  10.906   5.936
63515SOL     OW92383   6.078  11.164   9.673
63515SOL    HW192384   6.096  11.206   9.757
63515SOL    HW292385   6.140  11.091   9.668
63516SOL     OW92386   1.193  12.085  13.101
63516SOL    HW192387   1.228  12.082  13.011
63516SOL    HW292388   1.267  12.115  13.154
63517SOL     OW92389   2.504   3.280   9.151
63517SOL    HW192390   2.560   3.214   9.112
63517SOL    HW292391   2.479   3.243   9.236
63518SOL     OW92392  14.060  12.457  10.320
63518SOL    HW192393  13.969  12.442  10.293
63518SOL    HW292394  14.112  12.417  10.251
63519SOL     OW92395   4.129   4.359   1.027
63519SOL    HW192396   4.126   4.264   1.016
63519SOL    HW292397   4.221   4.382   1.013
63520SOL     OW92398   9.047   3.245   3.878
63520SOL    HW192399   8.993   3.210   3.807
63520SOL    HW292400   9.027   3.189   3.953
63521SOL     OW92401  12.393   9.118  13.079
63521SOL    HW192402  12.298   9.113  13.068
63521SOL    HW292403  12.429   9.068  13.006
63522SOL     OW92404   4.826   1.255   3.348
63522SOL    HW192405   4.840   1.168   3.385
63522SOL    HW292406   4.804   1.309   3.424
63523SOL     OW92407   6.837   4.023  13.014
63523SOL    HW192408   6.871   4.105  12.977
63523SOL    HW292409   6.888   4.009  13.093
63524SOL     OW92410   1.381   9.587   5.352
63524SOL    HW192411   1.391   9.494   5.333
63524SOL    HW292412   1.338   9.589   5.437
63525SOL     OW92413  10.251  14.563   8.654
63525SOL    HW192414  10.335  14.556   8.698
63525SOL    HW292415  10.245  14.654   8.626
63526SOL     OW92416   7.804   0.099   8.168
63526SOL    HW192417   7.731   0.161   8.159
63526SOL    HW292418   7.802   0.049   8.086
63527SOL     OW92419  12.851   1.908   5.196
63527SOL    HW192420  12.779   1.846   5.199
63527SOL    HW292421  12.929   1.854   5.182
63528SOL     OW92422  14.824   4.695  10.370
63528SOL    HW192423   0.028   4.745  10.361
63528SOL    HW292424  14.763   4.755  10.412
63529SOL     OW92425  12.044   9.565   2.174
63529SOL    HW192426  12.017   9.473   2.173
63529SOL    HW292427  11.966   9.612   2.203
63530SOL     OW92428  12.795  11.640   8.011
63530SOL    HW192429  12.700  11.652   8.017
63530SOL    HW292430  12.810  11.552   8.044
63531SOL     OW92431   5.462  12.538   7.929
63531SOL    HW192432   5.443  12.457   7.881
63531SOL    HW292433   5.522  12.512   7.999
63532SOL     OW92434   9.600  14.837  13.970
63532SOL    HW192435   9.634   0.026  13.908
63532SOL    HW292436   9.540  14.784  13.918
63533SOL     OW92437   7.721   3.357   0.412
63533SOL    HW192438   7.722   3.266   0.382
63533SOL    HW292439   7.759   3.354   0.500
63534SOL     OW92440   5.958   6.531  10.394
63534SOL    HW192441   5.962   6.623  10.420
63534SOL    HW292442   5.868   6.504  10.413
63535SOL     OW92443   1.926   4.164   5.834
63535SOL    HW192444   1.969   4.203   5.757
63535SOL    HW292445   1.835   4.195   5.828
63536SOL     OW92446  12.265   0.094   8.143
63536SOL    HW192447  12.247   0.144   8.223
63536SOL    HW292448  12.282   0.161   8.077
63537SOL     OW92449   4.523  11.763  13.372
63537SOL    HW192450   4.594  11.796  13.318
63537SOL    HW292451   4.465  11.717  13.311
63538SOL     OW92452  11.687   2.947  14.214
63538SOL    HW192453  11.662   3.036  14.236
63538SOL    HW292454  11.783   2.947  14.219
63539SOL     OW92455   6.261   8.426  13.486
63539SOL    HW192456   6.262   8.516  13.453
63539SOL    HW292457   6.183   8.387  13.446
63540SOL     OW92458   7.989   1.788  12.710
63540SOL    HW192459   7.975   1.718  12.646
63540SOL    HW292460   7.993   1.868  12.657
63541SOL     OW92461   6.527   2.763   0.408
63541SOL    HW192462   6.613   2.755   0.366
63541SOL    HW292463   6.524   2.691   0.470
63542SOL     OW92464   4.274   5.773  10.583
63542SOL    HW192465   4.294   5.750  10.492
63542SOL    HW292466   4.266   5.869  10.582
63543SOL     OW92467   6.637   0.281   2.294
63543SOL    HW192468   6.618   0.351   2.357
63543SOL    HW292469   6.563   0.222   2.301
63544SOL     OW92470   1.135   0.985  12.192
63544SOL    HW192471   1.103   1.059  12.245
63544SOL    HW292472   1.111   0.907  12.242
63545SOL     OW92473  11.050   8.091   6.642
63545SOL    HW192474  11.037   8.009   6.689
63545SOL    HW292475  11.069   8.064   6.552
63546SOL     OW92476   8.834   2.440   1.868
63546SOL    HW192477   8.896   2.445   1.795
63546SOL    HW292478   8.884   2.399   1.939
63547SOL     OW92479   8.040   9.944  11.106
63547SOL    HW192480   8.038  10.037  11.129
63547SOL    HW292481   8.133   9.925  11.090
63548SOL     OW92482  11.984  12.653  14.800
63548SOL    HW192483  11.969  12.742  14.831
63548SOL    HW292484  12.079  12.641  14.807
63549SOL     OW92485   7.705   9.618   4.911
63549SOL    HW192486   7.636   9.620   4.845
63549SOL    HW292487   7.703   9.529   4.946
63550SOL     OW92488  14.136   5.030   7.047
63550SOL    HW192489  14.161   5.017   6.955
63550SOL    HW292490  14.208   4.991   7.097
63551SOL     OW92491  12.200   0.406   5.143
63551SOL    HW192492  12.284   0.417   5.099
63551SOL    HW292493  12.140   0.379   5.074
63552SOL     OW92494  12.139   7.076   5.313
63552SOL    HW192495  12.123   6.983   5.329
63552SOL    HW292496  12.087   7.121   5.380
63553SOL     OW92497   4.324  13.390   3.107
63553SOL    HW192498   4.298  13.435   3.027
63553SOL    HW292499   4.369  13.311   3.078
63554SOL     OW92500  12.553   2.583  14.270
63554SOL    HW192501  12.551   2.521  14.198
63554SOL    HW292502  12.634   2.563  14.317
63555SOL     OW92503   5.569  12.917   3.976
63555SOL    HW192504   5.580  12.975   4.051
63555SOL    HW292505   5.495  12.861   4.000
63556SOL     OW92506   2.327  10.687   6.074
63556SOL    HW192507   2.279  10.708   5.994
63556SOL    HW292508   2.390  10.758   6.083
63557SOL     OW92509   8.916   4.728  11.054
63557SOL    HW192510   8.831   4.770  11.070
63557SOL    HW292511   8.969   4.796  11.013
63558SOL     OW92512  14.707   5.304   5.159
63558SOL    HW192513  14.745   5.218   5.180
63558SOL    HW292514  14.714   5.310   5.063
63559SOL     OW92515  13.146  12.894   8.025
63559SOL    HW192516  13.137  12.971   7.968
63559SOL    HW292517  13.057  12.860   8.033
63560SOL     OW92518   9.813   1.349   7.974
63560SOL    HW192519   9.817   1.414   8.044
63560SOL    HW292520   9.849   1.269   8.014
63561SOL     OW92521   4.042   1.250   8.748
63561SOL    HW192522   3.977   1.182   8.762
63561SOL    HW292523   4.006   1.328   8.792
63562SOL     OW92524   0.272   2.267   8.228
63562SOL    HW192525   0.282   2.182   8.271
63562SOL    HW292526   0.300   2.251   8.138
63563SOL     OW92527   6.152   6.018  10.641
63563SOL    HW192528   6.171   5.925  10.647
63563SOL    HW292529   6.238   6.061  10.647
63564SOL     OW92530   2.661   5.872   5.092
63564SOL    HW192531   2.589   5.907   5.145
63564SOL    HW292532   2.734   5.866   5.153
63565SOL     OW92533  12.718  14.138  13.410
63565SOL    HW192534  12.658  14.065  13.397
63565SOL    HW292535  12.673  14.195  13.473
63566SOL     OW92536   0.327   4.136  10.725
63566SOL    HW192537   0.239   4.173  10.723
63566SOL    HW292538   0.361   4.159  10.812
63567SOL     OW92539  13.356   6.163   2.240
63567SOL    HW192540  13.450   6.166   2.259
63567SOL    HW292541  13.327   6.254   2.248
63568SOL     OW92542   2.449   7.433   1.396
63568SOL    HW192543   2.416   7.494   1.462
63568SOL    HW292544   2.544   7.446   1.397
63569SOL     OW92545  11.143   2.681  13.690
63569SOL    HW192546  11.126   2.710  13.600
63569SOL    HW292547  11.239   2.687  13.699
63570SOL     OW92548  12.460  12.603   2.732
63570SOL    HW192549  12.398  12.668   2.700
63570SOL    HW292550  12.477  12.628   2.823
63571SOL     OW92551  11.854  10.411  14.791
63571SOL    HW192552  11.867  10.420  14.696
63571SOL    HW292553  11.800  10.332  14.800
63572SOL     OW92554   5.886   4.303   7.801
63572SOL    HW192555   5.810   4.337   7.754
63572SOL    HW292556   5.857   4.299   7.893
63573SOL     OW92557   6.579   3.692   3.332
63573SOL    HW192558   6.536   3.616   3.371
63573SOL    HW292559   6.575   3.676   3.238
63574SOL     OW92560   8.805  14.601  12.699
63574SOL    HW192561   8.897  14.588  12.676
63574SOL    HW292562   8.794  14.696  12.701
63575SOL     OW92563  10.256   3.829   6.458
63575SOL    HW192564  10.189   3.772   6.419
63575SOL    HW292565  10.305   3.771   6.516
63576SOL     OW92566  11.726   4.453   4.798
63576SOL    HW192567  11.681   4.430   4.879
63576SOL    HW292568  11.819   4.449   4.820
63577SOL     OW92569  13.459  12.747   5.393
63577SOL    HW192570  13.484  12.750   5.485
63577SOL    HW292571  13.364  12.761   5.393
63578SOL     OW92572   0.307   6.821  14.282
63578SOL    HW192573   0.259   6.895  14.244
63578SOL    HW292574   0.240   6.769  14.326
63579SOL     OW92575  14.085   9.507   8.354
63579SOL    HW192576  14.123   9.592   8.332
63579SOL    HW292577  14.000   9.527   8.393
63580SOL     OW92578   3.038   3.967  13.294
63580SOL    HW192579   2.992   3.967  13.378
63580SOL    HW292580   2.973   3.938  13.230
63581SOL     OW92581   2.884  10.168  13.737
63581SOL    HW192582   2.962  10.192  13.787
63581SOL    HW292583   2.919  10.129  13.656
63582SOL     OW92584   1.456   2.756   7.044
63582SOL    HW192585   1.495   2.786   7.126
63582SOL    HW292586   1.383   2.817   7.029
63583SOL     OW92587   1.131   8.487  10.685
63583SOL    HW192588   1.080   8.558  10.724
63583SOL    HW292589   1.065   8.425  10.654
63584SOL     OW92590   9.417   5.247   5.165
63584SOL    HW192591   9.389   5.276   5.251
63584SOL    HW292592   9.431   5.153   5.174
63585SOL     OW92593   9.907   4.431   9.968
63585SOL    HW192594   9.933   4.486   9.894
63585SOL    HW292595   9.942   4.344   9.947
63586SOL     OW92596   1.577  13.382   3.212
63586SOL    HW192597   1.565  13.347   3.300
63586SOL    HW292598   1.512  13.453   3.205
63587SOL     OW92599  12.525   7.327  10.560
63587SOL    HW192600  12.483   7.241  10.565
63587SOL    HW292601  12.617   7.307  10.545
63588SOL     OW92602   5.029  11.496  14.714
63588SOL    HW192603   5.009  11.408  14.684
63588SOL    HW292604   5.113  11.488  14.759
63589SOL     OW92605  10.106   7.463   4.294
63589SOL    HW192606  10.185   7.464   4.348
63589SOL    HW292607  10.064   7.548   4.311
63590SOL     OW92608  14.846   8.380  11.587
63590SOL    HW192609  14.758   8.402  11.556
63590SOL    HW292610   0.027   8.439  11.538
63591SOL     OW92611   3.079  10.179   9.740
63591SOL    HW192612   3.093  10.251   9.678
63591SOL    HW292613   3.167  10.145   9.757
63592SOL     OW92614   2.332  12.122   3.370
63592SOL    HW192615   2.323  12.143   3.276
63592SOL    HW292616   2.391  12.047   3.372
63593SOL     OW92617   6.721   7.900   0.611
63593SOL    HW192618   6.684   7.912   0.524
63593SOL    HW292619   6.815   7.902   0.598
63594SOL     OW92620  10.958   1.914   2.225
63594SOL    HW192621  10.957   1.846   2.293
63594SOL    HW292622  10.940   1.867   2.144
63595SOL     OW92623   1.039   9.739   3.325
63595SOL    HW192624   1.113   9.688   3.292
63595SOL    HW292625   1.047   9.824   3.280
63596SOL     OW92626   1.012   9.551   9.953
63596SOL    HW192627   1.034   9.629  10.003
63596SOL    HW292628   1.091   9.497   9.957
63597SOL     OW92629  10.521  14.498  11.375
63597SOL    HW192630  10.525  14.445  11.295
63597SOL    HW292631  10.569  14.578  11.354
63598SOL     OW92632   9.751  14.205   7.844
63598SOL    HW192633   9.673  14.255   7.870
63598SOL    HW292634   9.720  14.116   7.833
63599SOL     OW92635  12.023   2.736   0.300
63599SOL    HW192636  12.008   2.771   0.212
63599SOL    HW292637  11.993   2.645   0.295
63600SOL     OW92638   7.100   8.686  14.676
63600SOL    HW192639   7.107   8.633  14.597
63600SOL    HW292640   7.030   8.644  14.726
63601SOL     OW92641  13.131  10.252   9.317
63601SOL    HW192642  13.212  10.214   9.285
63601SOL    HW292643  13.157  10.305   9.392
63602SOL     OW92644  14.512  12.578  12.233
63602SOL    HW192645  14.529  12.672  12.237
63602SOL    HW292646  14.593  12.540  12.198
63603SOL     OW92647  11.180   0.721  10.877
63603SOL    HW192648  11.199   0.739  10.970
63603SOL    HW292649  11.265   0.705  10.838
63604SOL     OW92650   1.024   6.395   0.037
63604SOL    HW192651   0.975   6.334  14.858
63604SOL    HW292652   1.071   6.451  14.852
63605SOL     OW92653   2.877  11.314   5.182
63605SOL    HW192654   2.919  11.307   5.267
63605SOL    HW292655   2.947  11.343   5.122
63606SOL     OW92656   3.611  11.318   4.803
63606SOL    HW192657   3.574  11.304   4.716
63606SOL    HW292658   3.558  11.264   4.861
63607SOL     OW92659  10.418   9.798   1.145
63607SOL    HW192660  10.462   9.873   1.104
63607SOL    HW292661  10.483   9.728   1.144
63608SOL     OW92662   7.050  11.084  12.901
63608SOL    HW192663   7.088  11.065  12.987
63608SOL    HW292664   7.096  11.024  12.841
63609SOL     OW92665   8.786   9.207   0.970
63609SOL    HW192666   8.805   9.205   1.064
63609SOL    HW292667   8.863   9.167   0.930
63610SOL     OW92668  14.875  12.751   0.527
63610SOL    HW192669   0.086  12.714   0.523
63610SOL    HW292670  14.817  12.676   0.515
63611SOL     OW92671   0.443   0.711   2.556
63611SOL    HW192672   0.536   0.720   2.576
63611SOL    HW292673   0.441   0.661   2.474
63612SOL     OW92674   9.500   2.586  14.789
63612SOL    HW192675   9.511   2.676  14.757
63612SOL    HW292676   9.584   2.564  14.828
63613SOL     OW92677  14.308   0.024   6.776
63613SOL    HW192678  14.278  14.869   6.691
63613SOL    HW292679  14.227   0.033   6.827
63614SOL     OW92680   3.407   1.617   3.055
63614SOL    HW192681   3.376   1.564   3.128
63614SOL    HW292682   3.502   1.603   3.054
63615SOL     OW92683   3.809   3.777   3.017
63615SOL    HW192684   3.725   3.734   3.006
63615SOL    HW292685   3.787   3.863   3.054
63616SOL     OW92686   2.608   2.407   4.288
63616SOL    HW192687   2.533   2.461   4.311
63616SOL    HW292688   2.589   2.321   4.326
63617SOL     OW92689  10.560   2.737   8.849
63617SOL    HW192690  10.614   2.667   8.884
63617SOL    HW292691  10.548   2.798   8.922
63618SOL     OW92692   7.970   9.197  11.480
63618SOL    HW192693   7.975   9.104  11.502
63618SOL    HW292694   7.883   9.207  11.441
63619SOL     OW92695  12.187   1.067   0.729
63619SOL    HW192696  12.224   1.054   0.816
63619SOL    HW292697  12.263   1.088   0.674
63620SOL     OW92698   2.314   0.986   6.166
63620SOL    HW192699   2.262   0.981   6.086
63620SOL    HW292700   2.295   0.904   6.213
63621SOL     OW92701  11.863   0.554   3.375
63621SOL    HW192702  11.931   0.504   3.329
63621SOL    HW292703  11.911   0.604   3.441
63622SOL     OW92704  13.462   0.998   0.991
63622SOL    HW192705  13.495   1.086   0.972
63622SOL    HW292706  13.423   1.005   1.077
63623SOL     OW92707   7.377  11.037   8.803
63623SOL    HW192708   7.430  11.114   8.823
63623SOL    HW292709   7.442  10.970   8.779
63624SOL     OW92710  12.169   4.286   3.576
63624SOL    HW192711  12.245   4.342   3.564
63624SOL    HW292712  12.096   4.336   3.538
63625SOL     OW92713  13.490   0.937   7.676
63625SOL    HW192714  13.556   1.003   7.655
63625SOL    HW292715  13.534   0.880   7.740
63626SOL     OW92716   7.242  12.995   0.870
63626SOL    HW192717   7.309  12.943   0.825
63626SOL    HW292718   7.248  12.967   0.962
63627SOL     OW92719   4.406   8.566   2.163
63627SOL    HW192720   4.377   8.641   2.215
63627SOL    HW292721   4.336   8.555   2.097
63628SOL     OW92722   0.270   9.280   2.084
63628SOL    HW192723   0.313   9.227   2.017
63628SOL    HW292724   0.295   9.370   2.063
63629SOL     OW92725   7.320   5.395   4.496
63629SOL    HW192726   7.351   5.304   4.495
63629SOL    HW292727   7.384   5.442   4.549
63630SOL     OW92728   5.447   0.084  12.438
63630SOL    HW192729   5.352   0.080  12.434
63630SOL    HW292730   5.477   0.023  12.371
63631SOL     OW92731  12.750  11.887   2.620
63631SOL    HW192732  12.806  11.900   2.697
63631SOL    HW292733  12.677  11.835   2.653
63632SOL     OW92734   0.424   6.738   4.490
63632SOL    HW192735   0.339   6.777   4.470
63632SOL    HW292736   0.445   6.769   4.578
63633SOL     OW92737   9.902   1.475   0.134
63633SOL    HW192738   9.947   1.404   0.088
63633SOL    HW292739   9.968   1.544   0.142
63634SOL     OW92740   5.228   2.168   5.844
63634SOL    HW192741   5.165   2.201   5.908
63634SOL    HW292742   5.176   2.150   5.766
63635SOL     OW92743   6.553   4.704   6.417
63635SOL    HW192744   6.517   4.785   6.452
63635SOL    HW292745   6.638   4.695   6.459
63636SOL     OW92746   8.758   5.943   0.590
63636SOL    HW192747   8.825   5.897   0.640
63636SOL    HW292748   8.696   5.974   0.656
63637SOL     OW92749   3.800   6.824  12.057
63637SOL    HW192750   3.712   6.844  12.091
63637SOL    HW292751   3.794   6.841  11.963
63638SOL     OW92752  13.511   9.019   7.459
63638SOL    HW192753  13.556   8.946   7.417
63638SOL    HW292754  13.493   9.080   7.387
63639SOL     OW92755   2.765   1.212   9.188
63639SOL    HW192756   2.848   1.168   9.209
63639SOL    HW292757   2.789   1.305   9.179
63640SOL     OW92758   8.447   4.456   5.837
63640SOL    HW192759   8.506   4.386   5.808
63640SOL    HW292760   8.484   4.484   5.921
63641SOL     OW92761  10.175   1.114   9.095
63641SOL    HW192762  10.206   1.104   9.005
63641SOL    HW292763  10.080   1.104   9.090
63642SOL     OW92764   8.598   5.385  11.659
63642SOL    HW192765   8.518   5.395  11.711
63642SOL    HW292766   8.571   5.405  11.570
63643SOL     OW92767   5.554   3.908   7.544
63643SOL    HW192768   5.521   3.978   7.600
63643SOL    HW292769   5.609   3.953   7.479
63644SOL     OW92770   5.233   2.849  14.243
63644SOL    HW192771   5.304   2.879  14.300
63644SOL    HW292772   5.173   2.923  14.239
63645SOL     OW92773  12.273   1.559  11.022
63645SOL    HW192774  12.313   1.624  11.079
63645SOL    HW292775  12.344   1.496  11.004
63646SOL     OW92776  12.625   4.598  13.821
63646SOL    HW192777  12.677   4.677  13.806
63646SOL    HW292778  12.555   4.602  13.756
63647SOL     OW92779   9.207   8.460   0.276
63647SOL    HW192780   9.175   8.507   0.353
63647SOL    HW292781   9.176   8.512   0.202
63648SOL     OW92782   7.610   6.984   6.640
63648SOL    HW192783   7.589   6.891   6.630
63648SOL    HW292784   7.595   7.021   6.553
63649SOL     OW92785   9.358   9.801   8.346
63649SOL    HW192786   9.366   9.874   8.408
63649SOL    HW292787   9.264   9.788   8.334
63650SOL     OW92788   6.243   9.367   0.055
63650SOL    HW192789   6.191   9.293   0.023
63650SOL    HW292790   6.219   9.440  14.874
63651SOL     OW92791   3.535   9.488  14.177
63651SOL    HW192792   3.531   9.518  14.268
63651SOL    HW292793   3.560   9.566  14.127
63652SOL     OW92794   3.801   1.610   6.471
63652SOL    HW192795   3.847   1.574   6.396
63652SOL    HW292796   3.761   1.691   6.439
63653SOL     OW92797  14.614   6.488  14.035
63653SOL    HW192798  14.540   6.467  13.977
63653SOL    HW292799  14.577   6.482  14.123
63654SOL     OW92800   1.060   6.421   5.458
63654SOL    HW192801   1.124   6.491   5.448
63654SOL    HW292802   1.032   6.427   5.549
63655SOL     OW92803  10.550   7.444   5.632
63655SOL    HW192804  10.606   7.378   5.591
63655SOL    HW292805  10.494   7.476   5.562
63656SOL     OW92806  10.471   9.995   0.522
63656SOL    HW192807  10.454  10.019   0.431
63656SOL    HW292808  10.566   9.979   0.525
63657SOL     OW92809   7.856   8.666   4.110
63657SOL    HW192810   7.772   8.700   4.077
63657SOL    HW292811   7.866   8.581   4.067
63658SOL     OW92812  13.305   8.589   6.891
63658SOL    HW192813  13.394   8.567   6.864
63658SOL    HW292814  13.273   8.512   6.937
63659SOL     OW92815   9.265   1.038   8.417
63659SOL    HW192816   9.277   0.945   8.433
63659SOL    HW292817   9.332   1.080   8.470
63660SOL     OW92818  11.008   8.123   9.028
63660SOL    HW192819  10.963   8.061   8.971
63660SOL    HW292820  11.097   8.129   8.993
63661SOL     OW92821   4.632   8.263   2.527
63661SOL    HW192822   4.706   8.210   2.556
63661SOL    HW292823   4.590   8.292   2.608
63662SOL     OW92824  11.801  13.705   5.609
63662SOL    HW192825  11.787  13.759   5.687
63662SOL    HW292826  11.789  13.615   5.639
63663SOL     OW92827   4.914   9.299  10.088
63663SOL    HW192828   4.979   9.231  10.104
63663SOL    HW292829   4.958   9.361  10.030
63664SOL     OW92830   1.083   8.947   7.501
63664SOL    HW192831   1.089   9.018   7.564
63664SOL    HW292832   0.996   8.911   7.513
63665SOL     OW92833   1.028   4.563   7.808
63665SOL    HW192834   1.118   4.564   7.839
63665SOL    HW292835   1.030   4.608   7.723
63666SOL     OW92836   3.847   9.304   5.596
63666SOL    HW192837   3.798   9.223   5.584
63666SOL    HW292838   3.865   9.307   5.690
63667SOL     OW92839   8.779   6.181   3.440
63667SOL    HW192840   8.684   6.193   3.430
63667SOL    HW292841   8.818   6.248   3.385
63668SOL     OW92842   0.604   4.788  11.548
63668SOL    HW192843   0.672   4.763  11.611
63668SOL    HW292844   0.523   4.789  11.599
63669SOL     OW92845   2.596   2.977   5.856
63669SOL    HW192846   2.510   3.016   5.867
63669SOL    HW292847   2.634   2.977   5.944
63670SOL     OW92848   0.489  14.756   5.969
63670SOL    HW192849   0.564  14.816   5.964
63670SOL    HW292850   0.445  14.780   6.050
63671SOL     OW92851  13.731  13.023   3.793
63671SOL    HW192852  13.768  13.110   3.776
63671SOL    HW292853  13.793  12.962   3.752
63672SOL     OW92854   9.527   6.127   3.759
63672SOL    HW192855   9.530   6.220   3.735
63672SOL    HW292856   9.464   6.123   3.831
63673SOL     OW92857   4.620   3.626   8.447
63673SOL    HW192858   4.584   3.580   8.523
63673SOL    HW292859   4.695   3.674   8.482
63674SOL     OW92860   4.412   1.574   8.293
63674SOL    HW192861   4.429   1.541   8.204
63674SOL    HW292862   4.499   1.586   8.331
63675SOL     OW92863  10.287  10.587  11.453
63675SOL    HW192864  10.250  10.595  11.541
63675SOL    HW292865  10.237  10.650  11.401
63676SOL     OW92866   1.839  14.374   3.482
63676SOL    HW192867   1.913  14.327   3.445
63676SOL    HW292868   1.780  14.389   3.408
63677SOL     OW92869  12.203   8.701   1.380
63677SOL    HW192870  12.293   8.704   1.414
63677SOL    HW292871  12.202   8.627   1.320
63678SOL     OW92872   9.250   4.365   6.327
63678SOL    HW192873   9.272   4.428   6.396
63678SOL    HW292874   9.211   4.418   6.258
63679SOL     OW92875  12.306  13.630   6.963
63679SOL    HW192876  12.300  13.602   6.872
63679SOL    HW292877  12.225  13.599   7.003
63680SOL     OW92878   1.097   2.980  14.661
63680SOL    HW192879   1.169   3.033  14.698
63680SOL    HW292880   1.030   3.044  14.638
63681SOL     OW92881   2.998   9.428  14.165
63681SOL    HW192882   3.004   9.519  14.195
63681SOL    HW292883   2.929   9.430  14.098
63682SOL     OW92884  14.113   5.727   7.624
63682SOL    HW192885  14.161   5.669   7.684
63682SOL    HW292886  14.173   5.740   7.550
63683SOL     OW92887   3.253   2.276  13.986
63683SOL    HW192888   3.241   2.222  13.908
63683SOL    HW292889   3.253   2.366  13.953
63684SOL     OW92890   3.748   8.272  11.187
63684SOL    HW192891   3.799   8.285  11.107
63684SOL    HW292892   3.801   8.213  11.240
63685SOL     OW92893   8.696  10.693   4.849
63685SOL    HW192894   8.757  10.625   4.879
63685SOL    HW292895   8.654  10.724   4.929
63686SOL     OW92896  12.836  13.582   9.120
63686SOL    HW192897  12.786  13.641   9.065
63686SOL    HW292898  12.887  13.640   9.177
63687SOL     OW92899  11.674   7.015  14.845
63687SOL    HW192900  11.688   6.930  14.804
63687SOL    HW292901  11.605   7.000   0.033
63688SOL     OW92902   9.776  10.636  11.972
63688SOL    HW192903   9.701  10.664  11.919
63688SOL    HW292904   9.742  10.633  12.062
63689SOL     OW92905  10.892   0.159   2.209
63689SOL    HW192906  10.953   0.087   2.197
63689SOL    HW292907  10.947   0.232   2.239
63690SOL     OW92908  11.970   2.681   9.510
63690SOL    HW192909  12.040   2.737   9.478
63690SOL    HW292910  12.014   2.600   9.536
63691SOL     OW92911   8.427  12.232   4.910
63691SOL    HW192912   8.334  12.226   4.931
63691SOL    HW292913   8.471  12.198   4.988
63692SOL     OW92914   3.201   5.879  12.616
63692SOL    HW192915   3.172   5.800  12.570
63692SOL    HW292916   3.221   5.941  12.546
63693SOL     OW92917  12.403   3.264   6.489
63693SOL    HW192918  12.492   3.233   6.500
63693SOL    HW292919  12.412   3.348   6.444
63694SOL     OW92920  13.183   8.091   0.698
63694SOL    HW192921  13.212   8.178   0.669
63694SOL    HW292922  13.194   8.093   0.794
63695SOL     OW92923   2.902   7.151  11.773
63695SOL    HW192924   2.958   7.188  11.704
63695SOL    HW292925   2.920   7.057  11.771
63696SOL     OW92926   1.815  13.677  13.804
63696SOL    HW192927   1.880  13.746  13.811
63696SOL    HW292928   1.732  13.720  13.825
63697SOL     OW92929  10.348   0.393   7.161
63697SOL    HW192930  10.321   0.352   7.242
63697SOL    HW292931  10.395   0.325   7.113
63698SOL     OW92932  11.527   0.556   0.174
63698SOL    HW192933  11.538   0.517   0.087
63698SOL    HW292934  11.571   0.641   0.168
63699SOL     OW92935  10.313   1.322   8.138
63699SOL    HW192936  10.282   1.238   8.170
63699SOL    HW292937  10.268   1.387   8.192
63700SOL     OW92938   4.455  12.005  11.214
63700SOL    HW192939   4.402  11.997  11.294
63700SOL    HW292940   4.436  12.092  11.180
63701SOL     OW92941   1.400  11.554   2.554
63701SOL    HW192942   1.364  11.635   2.518
63701SOL    HW292943   1.495  11.567   2.552
63702SOL     OW92944   2.326  11.118   5.994
63702SOL    HW192945   2.257  11.097   5.932
63702SOL    HW292946   2.328  11.044   6.055
63703SOL     OW92947   3.334   7.944   9.286
63703SOL    HW192948   3.282   7.885   9.232
63703SOL    HW292949   3.420   7.945   9.243
63704SOL     OW92950  10.210   0.267   6.858
63704SOL    HW192951  10.141   0.316   6.902
63704SOL    HW292952  10.176   0.178   6.850
63705SOL     OW92953   3.141   6.397   5.743
63705SOL    HW192954   3.064   6.439   5.781
63705SOL    HW292955   3.215   6.433   5.792
63706SOL     OW92956  11.401   6.280   5.033
63706SOL    HW192957  11.493   6.272   5.057
63706SOL    HW292958  11.400   6.275   4.938
63707SOL     OW92959  10.394  14.044   8.942
63707SOL    HW192960  10.372  13.960   8.981
63707SOL    HW292961  10.320  14.101   8.963
63708SOL     OW92962  12.298   2.470   0.040
63708SOL    HW192963  12.382   2.504   0.012
63708SOL    HW292964  12.240   2.483  14.841
63709SOL     OW92965   5.177  11.939   3.544
63709SOL    HW192966   5.137  11.879   3.481
63709SOL    HW292967   5.155  12.026   3.512
63710SOL     OW92968   9.420   2.570  10.458
63710SOL    HW192969   9.499   2.597  10.412
63710SOL    HW292970   9.450   2.546  10.546
63711SOL     OW92971   0.399   8.606   8.470
63711SOL    HW192972   0.401   8.688   8.519
63711SOL    HW292973   0.361   8.543   8.531
63712SOL     OW92974  13.811  14.522   7.355
63712SOL    HW192975  13.897  14.492   7.326
63712SOL    HW292976  13.830  14.577   7.431
63713SOL     OW92977  11.794   8.460   8.218
63713SOL    HW192978  11.883   8.433   8.194
63713SOL    HW292979  11.743   8.379   8.215
63714SOL     OW92980   8.120   7.550   7.371
63714SOL    HW192981   8.210   7.521   7.356
63714SOL    HW292982   8.070   7.469   7.380
63715SOL     OW92983   5.569   7.388   7.485
63715SOL    HW192984   5.574   7.473   7.528
63715SOL    HW292985   5.621   7.399   7.405
63716SOL     OW92986  13.828   1.283  10.727
63716SOL    HW192987  13.786   1.324  10.802
63716SOL    HW292988  13.917   1.319  10.727
63717SOL     OW92989   2.114   6.033   7.329
63717SOL    HW192990   2.184   6.083   7.371
63717SOL    HW292991   2.118   6.058   7.237
63718SOL     OW92992   9.717   8.177   5.698
63718SOL    HW192993   9.772   8.253   5.719
63718SOL    HW292994   9.723   8.121   5.775
63719SOL     OW92995  14.689   6.558   3.557
63719SOL    HW192996  14.621   6.515   3.611
63719SOL    HW292997  14.766   6.557   3.613
63720SOL     OW92998   5.277   7.195   0.644
63720SOL    HW192999   5.362   7.150   0.643
63720SOL    HW293000   5.279   7.252   0.567
63721SOL     OW93001  10.506  11.951   5.400
63721SOL    HW193002  10.430  11.912   5.443
63721SOL    HW293003  10.472  11.990   5.320
63722SOL     OW93004  11.285  12.415   6.729
63722SOL    HW193005  11.226  12.433   6.802
63722SOL    HW293006  11.233  12.433   6.651
63723SOL     OW93007   2.240   1.584  13.152
63723SOL    HW193008   2.281   1.660  13.192
63723SOL    HW293009   2.313   1.532  13.117
63724SOL     OW93010   8.283   8.990   0.215
63724SOL    HW193011   8.189   8.975   0.223
63724SOL    HW293012   8.299   9.073   0.261
63725SOL     OW93013  10.100   2.895  11.854
63725SOL    HW193014  10.137   2.926  11.771
63725SOL    HW293015  10.124   2.961  11.918
63726SOL     OW93016  11.513  10.977   2.521
63726SOL    HW193017  11.423  10.951   2.504
63726SOL    HW293018  11.506  11.053   2.579
63727SOL     OW93019   0.004  10.511  11.881
63727SOL    HW193020   0.020  10.543  11.970
63727SOL    HW293021  14.846  10.422  11.894
63728SOL     OW93022  10.413  12.444   6.540
63728SOL    HW193023  10.456  12.371   6.495
63728SOL    HW293024  10.423  12.518   6.481
63729SOL     OW93025   7.502   1.658   5.008
63729SOL    HW193026   7.481   1.644   4.916
63729SOL    HW293027   7.523   1.571   5.042
63730SOL     OW93028   4.640   1.721   0.608
63730SOL    HW193029   4.545   1.734   0.609
63730SOL    HW293030   4.676   1.801   0.647
63731SOL     OW93031   8.453  13.393   7.273
63731SOL    HW193032   8.528  13.421   7.327
63731SOL    HW293033   8.441  13.465   7.211
63732SOL     OW93034   9.658  12.561   8.371
63732SOL    HW193035   9.720  12.494   8.340
63732SOL    HW293036   9.713  12.629   8.409
63733SOL     OW93037   0.447   9.689   6.030
63733SOL    HW193038   0.522   9.632   6.043
63733SOL    HW293039   0.481   9.766   5.985
63734SOL     OW93040  14.869   8.385   8.843
63734SOL    HW193041  14.853   8.325   8.915
63734SOL    HW293042  14.790   8.378   8.788
63735SOL     OW93043   4.230   9.813   5.368
63735SOL    HW193044   4.307   9.829   5.314
63735SOL    HW293045   4.158   9.852   5.320
63736SOL     OW93046  12.396   2.285  14.190
63736SOL    HW193047  12.355   2.282  14.103
63736SOL    HW293048  12.410   2.194  14.213
63737SOL     OW93049   7.988  12.772  13.669
63737SOL    HW193050   7.965  12.705  13.605
63737SOL    HW293051   8.019  12.724  13.745
63738SOL     OW93052   8.836  13.805   5.416
63738SOL    HW193053   8.888  13.864   5.362
63738SOL    HW293054   8.784  13.862   5.473
63739SOL     OW93055   1.994   1.584   4.061
63739SOL    HW193056   2.021   1.669   4.097
63739SOL    HW293057   2.064   1.524   4.086
63740SOL     OW93058   2.770  13.773   3.729
63740SOL    HW193059   2.685  13.801   3.762
63740SOL    HW293060   2.805  13.716   3.797
63741SOL     OW93061   7.264   2.418   4.210
63741SOL    HW193062   7.182   2.415   4.260
63741SOL    HW293063   7.238   2.398   4.120
63742SOL     OW93064   7.369  14.406  14.294
63742SOL    HW193065   7.412  14.325  14.319
63742SOL    HW293066   7.289  14.409  14.346
63743SOL     OW93067   0.944  13.374   8.262
63743SOL    HW193068   0.862  13.365   8.213
63743SOL    HW293069   1.008  13.322   8.212
63744SOL     OW93070   7.257   7.683   5.862
63744SOL    HW193071   7.259   7.641   5.776
63744SOL    HW293072   7.178   7.736   5.862
63745SOL     OW93073   3.873  11.161  10.846
63745SOL    HW193074   3.842  11.082  10.803
63745SOL    HW293075   3.856  11.231  10.784
63746SOL     OW93076   7.161   2.200  11.306
63746SOL    HW193077   7.165   2.259  11.231
63746SOL    HW293078   7.073   2.163  11.303
63747SOL     OW93079  14.269  12.421  12.531
63747SOL    HW193080  14.231  12.411  12.618
63747SOL    HW293081  14.355  12.460  12.546
63748SOL     OW93082   4.160   9.394   1.379
63748SOL    HW193083   4.078   9.346   1.390
63748SOL    HW293084   4.169   9.405   1.285
63749SOL     OW93085   0.513   5.766   4.997
63749SOL    HW193086   0.577   5.767   5.068
63749SOL    HW293087   0.516   5.855   4.962
63750SOL     OW93088   0.589  12.060   9.025
63750SOL    HW193089   0.623  11.996   9.087
63750SOL    HW293090   0.497  12.072   9.050
63751SOL     OW93091   0.509  14.547   5.139
63751SOL    HW193092   0.515  14.607   5.214
63751SOL    HW293093   0.416  14.537   5.123
63752SOL     OW93094  12.408  11.363   3.317
63752SOL    HW193095  12.444  11.331   3.234
63752SOL    HW293096  12.343  11.296   3.342
63753SOL     OW93097   7.809  10.492   6.876
63753SOL    HW193098   7.782  10.435   6.804
63753SOL    HW293099   7.791  10.441   6.955
63754SOL     OW93100   4.222   1.569  11.814
63754SOL    HW193101   4.287   1.634  11.788
63754SOL    HW293102   4.139   1.604  11.783
63755SOL     OW93103   9.670   7.265   7.668
63755SOL    HW193104   9.588   7.304   7.697
63755SOL    HW293105   9.673   7.179   7.711
63756SOL     OW93106   2.242   3.082   3.858
63756SOL    HW193107   2.330   3.108   3.832
63756SOL    HW293108   2.248   2.988   3.875
63757SOL     OW93109   3.280   4.259  12.162
63757SOL    HW193110   3.308   4.289  12.076
63757SOL    HW293111   3.213   4.321  12.190
63758SOL     OW93112   0.755   7.512   3.666
63758SOL    HW193113   0.778   7.435   3.614
63758SOL    HW293114   0.663   7.529   3.645
63759SOL     OW93115   2.990   6.897  11.796
63759SOL    HW193116   2.977   6.892  11.891
63759SOL    HW293117   2.998   6.806  11.768
63760SOL     OW93118   6.515   4.637   4.012
63760SOL    HW193119   6.467   4.577   3.954
63760SOL    HW293120   6.606   4.606   4.008
63761SOL     OW93121   5.551   0.986   5.875
63761SOL    HW193122   5.494   0.994   5.798
63761SOL    HW293123   5.633   1.028   5.848
63762SOL     OW93124  13.240  10.691   3.863
63762SOL    HW193125  13.272  10.756   3.801
63762SOL    HW293126  13.318  10.640   3.886
63763SOL     OW93127   7.129   6.388   4.375
63763SOL    HW193128   7.108   6.467   4.425
63763SOL    HW293129   7.164   6.327   4.440
63764SOL     OW93130  14.200   7.528  13.481
63764SOL    HW193131  14.172   7.480  13.560
63764SOL    HW293132  14.251   7.601  13.515
63765SOL     OW93133   1.107   7.748  13.808
63765SOL    HW193134   1.085   7.660  13.838
63765SOL    HW293135   1.078   7.752  13.717
63766SOL     OW93136   2.350  10.280   9.355
63766SOL    HW193137   2.419  10.244   9.412
63766SOL    HW293138   2.339  10.213   9.287
63767SOL     OW93139   8.819   1.116   6.855
63767SOL    HW193140   8.913   1.108   6.841
63767SOL    HW293141   8.784   1.031   6.828
63768SOL     OW93142  10.352  14.386   1.848
63768SOL    HW193143  10.294  14.410   1.920
63768SOL    HW293144  10.437  14.369   1.890
63769SOL     OW93145   5.173  13.169  13.326
63769SOL    HW193146   5.201  13.236  13.389
63769SOL    HW293147   5.079  13.161  13.341
63770SOL     OW93148   3.878   9.111  14.650
63770SOL    HW193149   3.921   9.035  14.613
63770SOL    HW293150   3.828   9.077  14.724
63771SOL     OW93151   2.631   2.599  10.043
63771SOL    HW193152   2.689   2.667  10.076
63771SOL    HW293153   2.669   2.517  10.077
63772SOL     OW93154   4.919  10.202  10.604
63772SOL    HW193155   4.941  10.287  10.565
63772SOL    HW293156   4.971  10.198  10.684
63773SOL     OW93157   0.350   9.217   6.498
63773SOL    HW193158   0.269   9.243   6.455
63773SOL    HW293159   0.328   9.138   6.547
63774SOL     OW93160  10.449   7.614   6.608
63774SOL    HW193161  10.532   7.592   6.651
63774SOL    HW293162  10.386   7.551   6.642
63775SOL     OW93163  13.119   8.968   1.658
63775SOL    HW193164  13.028   8.949   1.636
63775SOL    HW293165  13.114   9.036   1.725
63776SOL     OW93166   6.092   2.690   1.363
63776SOL    HW193167   6.070   2.737   1.283
63776SOL    HW293168   6.172   2.643   1.342
63777SOL     OW93169   7.368  14.143   1.562
63777SOL    HW193170   7.348  14.220   1.615
63777SOL    HW293171   7.308  14.149   1.488
63778SOL     OW93172  12.362  10.657   0.261
63778SOL    HW193173  12.395  10.618   0.180
63778SOL    HW293174  12.280  10.699   0.235
63779SOL     OW93175   2.651   0.782   3.789
63779SOL    HW193176   2.740   0.756   3.763
63779SOL    HW293177   2.658   0.800   3.882
63780SOL     OW93178   0.053   2.357   0.986
63780SOL    HW193179   0.090   2.337   1.072
63780SOL    HW293180  14.863   2.289   0.972
63781SOL     OW93181   8.930   1.844   0.912
63781SOL    HW193182   8.947   1.761   0.868
63781SOL    HW293183   8.909   1.820   1.002
63782SOL     OW93184  11.336  10.099   6.274
63782SOL    HW193185  11.330  10.169   6.339
63782SOL    HW293186  11.363  10.143   6.194
63783SOL     OW93187   8.311   7.746   6.958
63783SOL    HW193188   8.388   7.721   7.010
63783SOL    HW293189   8.250   7.781   7.022
63784SOL     OW93190   6.998   3.384   4.254
63784SOL    HW193191   7.000   3.430   4.170
63784SOL    HW293192   6.953   3.444   4.313
63785SOL     OW93193   7.660   4.317   3.028
63785SOL    HW193194   7.676   4.238   3.080
63785SOL    HW293195   7.638   4.285   2.941
63786SOL     OW93196  11.503   9.620   7.349
63786SOL    HW193197  11.475   9.709   7.369
63786SOL    HW293198  11.480   9.608   7.257
63787SOL     OW93199   5.301  10.330   0.334
63787SOL    HW193200   5.227  10.279   0.302
63787SOL    HW293201   5.277  10.352   0.424
63788SOL     OW93202   8.563   4.051   4.584
63788SOL    HW193203   8.611   3.984   4.536
63788SOL    HW293204   8.471   4.036   4.561
63789SOL     OW93205  13.238   1.047   9.355
63789SOL    HW193206  13.184   1.011   9.426
63789SOL    HW293207  13.185   1.118   9.318
63790SOL     OW93208   3.344  11.735   2.774
63790SOL    HW193209   3.393  11.688   2.841
63790SOL    HW293210   3.330  11.670   2.705
63791SOL     OW93211   0.379   8.618   7.509
63791SOL    HW193212   0.337   8.572   7.436
63791SOL    HW293213   0.337   8.704   7.511
63792SOL     OW93214   4.153   1.961   4.667
63792SOL    HW193215   4.113   1.880   4.634
63792SOL    HW293216   4.200   1.934   4.746
63793SOL     OW93217   6.378  11.108   7.612
63793SOL    HW193218   6.397  11.035   7.671
63793SOL    HW293219   6.313  11.160   7.659
63794SOL     OW93220   7.172   5.944   5.044
63794SOL    HW193221   7.165   5.928   4.949
63794SOL    HW293222   7.251   5.997   5.053
63795SOL     OW93223  12.156   4.449   9.671
63795SOL    HW193224  12.249   4.456   9.649
63795SOL    HW293225  12.153   4.380   9.737
63796SOL     OW93226   3.206   4.851   9.500
63796SOL    HW193227   3.183   4.943   9.512
63796SOL    HW293228   3.205   4.838   9.405
63797SOL     OW93229   7.548   8.808   3.274
63797SOL    HW193230   7.554   8.788   3.367
63797SOL    HW293231   7.619   8.757   3.234
63798SOL     OW93232   9.406   1.153   1.048
63798SOL    HW193233   9.366   1.077   1.090
63798SOL    HW293234   9.421   1.215   1.119
63799SOL     OW93235   5.047   1.386   2.031
63799SOL    HW193236   4.975   1.347   1.982
63799SOL    HW293237   5.005   1.450   2.089
63800SOL     OW93238   2.131   1.901   6.339
63800SOL    HW193239   2.192   1.891   6.411
63800SOL    HW293240   2.091   1.987   6.353
63801SOL     OW93241   2.101   4.307   2.126
63801SOL    HW193242   2.067   4.395   2.109
63801SOL    HW293243   2.196   4.317   2.123
63802SOL     OW93244  13.586  11.820   2.690
63802SOL    HW193245  13.499  11.784   2.706
63802SOL    HW293246  13.645  11.753   2.725
63803SOL     OW93247  10.323   3.949  13.729
63803SOL    HW193248  10.246   4.005  13.713
63803SOL    HW293249  10.287   3.872  13.773
63804SOL     OW93250  10.113   9.052   6.851
63804SOL    HW193251  10.105   9.145   6.830
63804SOL    HW293252  10.057   9.008   6.786
63805SOL     OW93253  14.415   6.382  13.111
63805SOL    HW193254  14.448   6.295  13.089
63805SOL    HW293255  14.491   6.428  13.147
63806SOL     OW93256   9.248   0.088   8.971
63806SOL    HW193257   9.168   0.112   8.925
63806SOL    HW293258   9.259   0.155   9.038
63807SOL     OW93259   7.462   2.458  10.649
63807SOL    HW193260   7.455   2.368  10.680
63807SOL    HW293261   7.371   2.488  10.640
63808SOL     OW93262   7.743   3.682   5.224
63808SOL    HW193263   7.835   3.668   5.200
63808SOL    HW293264   7.728   3.623   5.297
63809SOL     OW93265   3.261   2.349   9.146
63809SOL    HW193266   3.241   2.435   9.111
63809SOL    HW293267   3.356   2.340   9.137
63810SOL     OW93268  11.035   5.182   9.443
63810SOL    HW193269  11.099   5.143   9.502
63810SOL    HW293270  11.073   5.266   9.419
63811SOL     OW93271   8.198  12.738   3.829
63811SOL    HW193272   8.146  12.763   3.753
63811SOL    HW293273   8.193  12.642   3.832
63812SOL     OW93274   5.081   0.041   9.822
63812SOL    HW193275   5.092   0.135   9.809
63812SOL    HW293276   5.077   0.030   9.917
63813SOL     OW93277   0.425  10.431  10.003
63813SOL    HW193278   0.367  10.503   9.977
63813SOL    HW293279   0.442  10.447  10.096
63814SOL     OW93280  13.488   3.998   0.892
63814SOL    HW193281  13.445   4.029   0.812
63814SOL    HW293282  13.518   4.078   0.936
63815SOL     OW93283   1.877  12.757   9.950
63815SOL    HW193284   1.820  12.753  10.026
63815SOL    HW293285   1.958  12.797   9.982
63816SOL     OW93286  13.382  11.910   7.334
63816SOL    HW193287  13.451  11.969   7.303
63816SOL    HW293288  13.368  11.936   7.425
63817SOL     OW93289   5.563   1.676   2.767
63817SOL    HW193290   5.523   1.639   2.846
63817SOL    HW293291   5.539   1.616   2.697
63818SOL     OW93292   0.397  12.326   8.021
63818SOL    HW193293   0.345  12.281   8.089
63818SOL    HW293294   0.410  12.260   7.953
63819SOL     OW93295   7.087   5.692  10.309
63819SOL    HW193296   7.104   5.686  10.215
63819SOL    HW293297   7.072   5.785  10.325
63820SOL     OW93298   0.467  11.885   3.336
63820SOL    HW193299   0.453  11.942   3.261
63820SOL    HW293300   0.386  11.890   3.386
63821SOL     OW93301   7.142  14.027   7.231
63821SOL    HW193302   7.174  13.940   7.254
63821SOL    HW293303   7.047  14.019   7.233
63822SOL     OW93304  13.798  14.686  14.171
63822SOL    HW193305  13.800  14.620  14.240
63822SOL    HW293306  13.853  14.650  14.101
63823SOL     OW93307   9.816   5.904   6.074
63823SOL    HW193308   9.818   5.881   6.167
63823SOL    HW293309   9.895   5.864   6.038
63824SOL     OW93310   3.291   1.642   0.017
63824SOL    HW193311   3.210   1.688   0.039
63824SOL    HW293312   3.356   1.711   0.007
63825SOL     OW93313   1.588   5.115  10.958
63825SOL    HW193314   1.633   5.196  10.933
63825SOL    HW293315   1.532   5.140  11.031
63826SOL     OW93316   0.193   3.416   4.596
63826SOL    HW193317   0.194   3.321   4.603
63826SOL    HW293318   0.150   3.445   4.676
63827SOL     OW93319  12.125   3.492  14.374
63827SOL    HW193320  12.035   3.481  14.407
63827SOL    HW293321  12.122   3.455  14.285
63828SOL     OW93322  12.274   3.281  10.596
63828SOL    HW193323  12.287   3.249  10.685
63828SOL    HW293324  12.328   3.360  10.591
63829SOL     OW93325   3.773  11.770  12.402
63829SOL    HW193326   3.824  11.704  12.449
63829SOL    HW293327   3.759  11.840  12.467
63830SOL     OW93328   2.837  11.912  12.199
63830SOL    HW193329   2.899  11.985  12.193
63830SOL    HW293330   2.751  11.952  12.186
63831SOL     OW93331   2.164   3.490   2.330
63831SOL    HW193332   2.168   3.556   2.399
63831SOL    HW293333   2.219   3.419   2.362
63832SOL     OW93334   5.280  10.323   4.902
63832SOL    HW193335   5.204  10.315   4.960
63832SOL    HW293336   5.356  10.321   4.960
63833SOL     OW93337   9.342   5.447   0.867
63833SOL    HW193338   9.264   5.430   0.814
63833SOL    HW293339   9.358   5.541   0.855
63834SOL     OW93340   9.838   3.728   2.925
63834SOL    HW193341   9.782   3.652   2.939
63834SOL    HW293342   9.804   3.795   2.984
63835SOL     OW93343   0.248   2.957   5.377
63835SOL    HW193344   0.216   2.873   5.346
63835SOL    HW293345   0.326   2.936   5.427
63836SOL     OW93346   6.268   3.177   5.464
63836SOL    HW193347   6.196   3.183   5.527
63836SOL    HW293348   6.271   3.262   5.422
63837SOL     OW93349   4.241   4.707   3.869
63837SOL    HW193350   4.305   4.691   3.938
63837SOL    HW293351   4.163   4.660   3.898
63838SOL     OW93352   3.140   5.342   4.909
63838SOL    HW193353   3.106   5.429   4.887
63838SOL    HW293354   3.231   5.357   4.935
63839SOL     OW93355  10.984  11.384   9.623
63839SOL    HW193356  10.996  11.473   9.590
63839SOL    HW293357  10.929  11.341   9.558
63840SOL     OW93358   3.725   3.853   9.384
63840SOL    HW193359   3.698   3.771   9.425
63840SOL    HW293360   3.660   3.867   9.314
63841SOL     OW93361   8.361  11.395  13.387
63841SOL    HW193362   8.300  11.331  13.424
63841SOL    HW293363   8.307  11.449  13.330
63842SOL     OW93364  10.261   6.438  13.087
63842SOL    HW193365  10.251   6.455  12.993
63842SOL    HW293366  10.286   6.345  13.092
63843SOL     OW93367   6.600   8.132  14.414
63843SOL    HW193368   6.665   8.071  14.448
63843SOL    HW293369   6.580   8.190  14.487
63844SOL     OW93370   3.143   7.309  14.789
63844SOL    HW193371   3.070   7.253  14.766
63844SOL    HW293372   3.105   7.397  14.795
63845SOL     OW93373   9.939   9.586  11.524
63845SOL    HW193374  10.007   9.654  11.521
63845SOL    HW293375   9.862   9.629  11.488
63846SOL     OW93376   3.580  12.354   3.776
63846SOL    HW193377   3.618  12.287   3.833
63846SOL    HW293378   3.518  12.306   3.720
63847SOL     OW93379   6.761  14.208   8.923
63847SOL    HW193380   6.712  14.127   8.932
63847SOL    HW293381   6.717  14.256   8.853
63848SOL     OW93382   8.742   6.996  10.612
63848SOL    HW193383   8.679   6.953  10.669
63848SOL    HW293384   8.717   7.088  10.611
63849SOL     OW93385   7.164   0.561  11.023
63849SOL    HW193386   7.203   0.647  11.035
63849SOL    HW293387   7.086   0.562  11.079
63850SOL     OW93388   2.139   5.158   2.634
63850SOL    HW193389   2.110   5.146   2.725
63850SOL    HW293390   2.228   5.122   2.633
63851SOL     OW93391   5.632   1.830  13.522
63851SOL    HW193392   5.662   1.776  13.595
63851SOL    HW293393   5.540   1.846  13.540
63852SOL     OW93394   1.820   4.118   8.801
63852SOL    HW193395   1.816   4.033   8.757
63852SOL    HW293396   1.750   4.169   8.761
63853SOL     OW93397  12.627   8.008  12.037
63853SOL    HW193398  12.597   7.943  12.100
63853SOL    HW293399  12.696   7.962  11.987
63854SOL     OW93400  10.262   0.368   1.637
63854SOL    HW193401  10.301   0.449   1.603
63854SOL    HW293402  10.176   0.395   1.670
63855SOL     OW93403   6.903   1.781  14.678
63855SOL    HW193404   6.988   1.738  14.680
63855SOL    HW293405   6.852   1.737  14.746
63856SOL     OW93406   0.084   0.303   1.811
63856SOL    HW193407   0.139   0.230   1.782
63856SOL    HW293408   0.144   0.378   1.814
63857SOL     OW93409   3.433   3.595  12.173
63857SOL    HW193410   3.437   3.616  12.080
63857SOL    HW293411   3.399   3.506  12.177
63858SOL     OW93412  14.140   0.857   9.369
63858SOL    HW193413  14.096   0.857   9.284
63858SOL    HW293414  14.197   0.934   9.366
63859SOL     OW93415   4.185   1.931   0.410
63859SOL    HW193416   4.246   1.985   0.359
63859SOL    HW293417   4.129   1.890   0.344
63860SOL     OW93418   1.458   8.850  13.316
63860SOL    HW193419   1.391   8.913  13.344
63860SOL    HW293420   1.527   8.858  13.383
63861SOL     OW93421  13.445   8.453   7.266
63861SOL    HW193422  13.515   8.448   7.201
63861SOL    HW293423  13.470   8.390   7.333
63862SOL     OW93424   7.088   4.326  13.353
63862SOL    HW193425   7.008   4.282  13.379
63862SOL    HW293426   7.070   4.419  13.366
63863SOL     OW93427   5.642   2.239   5.808
63863SOL    HW193428   5.596   2.165   5.846
63863SOL    HW293429   5.735   2.222   5.827
63864SOL     OW93430   7.634  14.476   0.972
63864SOL    HW193431   7.636  14.570   0.959
63864SOL    HW293432   7.724  14.452   0.994
63865SOL     OW93433  11.428   5.775   2.840
63865SOL    HW193434  11.380   5.715   2.896
63865SOL    HW293435  11.520   5.759   2.861
63866SOL     OW93436   6.638   6.372   1.473
63866SOL    HW193437   6.570   6.336   1.530
63866SOL    HW293438   6.716   6.378   1.529
63867SOL     OW93439   0.494  11.096   0.224
63867SOL    HW193440   0.453  11.178   0.251
63867SOL    HW293441   0.421  11.034   0.214
63868SOL     OW93442   6.055   1.805   9.846
63868SOL    HW193443   6.040   1.852   9.764
63868SOL    HW293444   5.996   1.847   9.909
63869SOL     OW93445   0.237   3.638   2.234
63869SOL    HW193446   0.255   3.724   2.272
63869SOL    HW293447   0.176   3.596   2.295
63870SOL     OW93448   4.924   5.349  10.833
63870SOL    HW193449   4.940   5.261  10.800
63870SOL    HW293450   4.832   5.366  10.812
63871SOL     OW93451  13.522   6.651   4.918
63871SOL    HW193452  13.617   6.656   4.921
63871SOL    HW293453  13.497   6.714   4.850
63872SOL     OW93454   5.893   0.960   2.333
63872SOL    HW193455   5.911   0.867   2.331
63872SOL    HW293456   5.843   0.977   2.253
63873SOL     OW93457  14.610   7.190   5.755
63873SOL    HW193458  14.674   7.246   5.712
63873SOL    HW293459  14.528   7.238   5.750
63874SOL     OW93460  10.702   8.794   9.567
63874SOL    HW193461  10.781   8.830   9.527
63874SOL    HW293462  10.709   8.820   9.659
63875SOL     OW93463   3.690   8.043   8.495
63875SOL    HW193464   3.601   8.077   8.505
63875SOL    HW293465   3.687   7.955   8.533
63876SOL     OW93466  11.249   3.439   0.630
63876SOL    HW193467  11.179   3.420   0.692
63876SOL    HW293468  11.297   3.512   0.669
63877SOL     OW93469   8.773  12.912  12.187
63877SOL    HW193470   8.811  12.969  12.253
63877SOL    HW293471   8.806  12.947  12.104
63878SOL     OW93472   5.306   1.960   0.272
63878SOL    HW193473   5.354   2.042   0.267
63878SOL    HW293474   5.324   1.915   0.190
63879SOL     OW93475   7.594   2.555  13.273
63879SOL    HW193476   7.535   2.598  13.211
63879SOL    HW293477   7.682   2.579  13.242
63880SOL     OW93478   2.962  10.952   8.507
63880SOL    HW193479   2.900  11.001   8.453
63880SOL    HW293480   3.042  10.948   8.455
63881SOL     OW93481  14.489   8.643  10.105
63881SOL    HW193482  14.489   8.601  10.191
63881SOL    HW293483  14.532   8.579  10.048
63882SOL     OW93484   4.509   1.961   0.682
63882SOL    HW193485   4.496   2.037   0.625
63882SOL    HW293486   4.587   1.983   0.733
63883SOL     OW93487   3.960   6.209   5.365
63883SOL    HW193488   4.011   6.247   5.437
63883SOL    HW293489   4.019   6.146   5.324
63884SOL     OW93490  13.510   2.500   6.951
63884SOL    HW193491  13.600   2.486   6.980
63884SOL    HW293492  13.456   2.468   7.024
63885SOL     OW93493   8.338   2.019   6.213
63885SOL    HW193494   8.356   2.113   6.206
63885SOL    HW293495   8.385   1.980   6.140
63886SOL     OW93496  10.820  12.323   5.564
63886SOL    HW193497  10.729  12.300   5.544
63886SOL    HW293498  10.861  12.336   5.479
63887SOL     OW93499  11.168  14.259   3.214
63887SOL    HW193500  11.226  14.247   3.138
63887SOL    HW293501  11.168  14.173   3.257
63888SOL     OW93502  12.239   0.731  13.102
63888SOL    HW193503  12.262   0.661  13.041
63888SOL    HW293504  12.152   0.760  13.073
63889SOL     OW93505   3.659   2.635  10.602
63889SOL    HW193506   3.744   2.595  10.582
63889SOL    HW293507   3.677   2.729  10.603
63890SOL     OW93508   2.117   3.545   3.199
63890SOL    HW193509   2.068   3.508   3.273
63890SOL    HW293510   2.195   3.583   3.239
63891SOL     OW93511  10.199   8.685   8.149
63891SOL    HW193512  10.268   8.727   8.097
63891SOL    HW293513  10.234   8.598   8.169
63892SOL     OW93514  10.805   4.009  10.110
63892SOL    HW193515  10.755   3.947  10.056
63892SOL    HW293516  10.748   4.027  10.185
63893SOL     OW93517   6.092   4.037   2.767
63893SOL    HW193518   6.095   4.089   2.848
63893SOL    HW293519   6.123   4.097   2.699
63894SOL     OW93520  11.703   9.154   6.862
63894SOL    HW193521  11.706   9.085   6.796
63894SOL    HW293522  11.691   9.235   6.811
63895SOL     OW93523   0.355  11.517   0.775
63895SOL    HW193524   0.277  11.566   0.804
63895SOL    HW293525   0.416  11.585   0.746
63896SOL     OW93526   0.880   3.055   6.197
63896SOL    HW193527   0.943   3.107   6.246
63896SOL    HW293528   0.821   3.119   6.158
63897SOL     OW93529   1.620   9.188  10.245
63897SOL    HW193530   1.685   9.120  10.258
63897SOL    HW293531   1.666   9.270  10.267
63898SOL     OW93532   1.943  12.822   7.844
63898SOL    HW193533   1.871  12.885   7.843
63898SOL    HW293534   2.008  12.859   7.903
63899SOL     OW93535  10.581   8.021   0.415
63899SOL    HW193536  10.590   7.926   0.428
63899SOL    HW293537  10.668   8.050   0.388
63900SOL     OW93538  10.644   6.101  12.909
63900SOL    HW193539  10.705   6.175  12.915
63900SOL    HW293540  10.563   6.139  12.876
63901SOL     OW93541   0.702   1.703   8.995
63901SOL    HW193542   0.684   1.748   9.077
63901SOL    HW293543   0.790   1.730   8.971
63902SOL     OW93544   5.861   2.340   0.176
63902SOL    HW193545   5.835   2.428   0.148
63902SOL    HW293546   5.940   2.354   0.228
63903SOL     OW93547  13.833  10.443  10.678
63903SOL    HW193548  13.856  10.354  10.653
63903SOL    HW293549  13.796  10.435  10.766
63904SOL     OW93550   7.896   9.388   6.439
63904SOL    HW193551   7.922   9.312   6.386
63904SOL    HW293552   7.862   9.450   6.375
63905SOL     OW93553   9.792  14.209  13.582
63905SOL    HW193554   9.859  14.155  13.541
63905SOL    HW293555   9.840  14.285  13.616
63906SOL     OW93556   6.693   8.339  13.530
63906SOL    HW193557   6.656   8.252  13.544
63906SOL    HW293558   6.783   8.322  13.501
63907SOL     OW93559   9.726   8.151   4.511
63907SOL    HW193560   9.727   8.061   4.478
63907SOL    HW293561   9.771   8.146   4.595
63908SOL     OW93562  11.442   7.166   7.969
63908SOL    HW193563  11.352   7.174   8.002
63908SOL    HW293564  11.496   7.211   8.034
63909SOL     OW93565   3.692   5.308   0.769
63909SOL    HW193566   3.717   5.339   0.682
63909SOL    HW293567   3.683   5.213   0.759
63910SOL     OW93568  10.214  13.383   1.626
63910SOL    HW193569  10.277  13.436   1.578
63910SOL    HW293570  10.133  13.434   1.625
63911SOL     OW93571   4.076  13.805  10.063
63911SOL    HW193572   4.023  13.780  10.139
63911SOL    HW293573   4.157  13.753  10.073
63912SOL     OW93574   0.851  13.376  13.450
63912SOL    HW193575   0.890  13.382  13.362
63912SOL    HW293576   0.899  13.306  13.493
63913SOL     OW93577   1.503  12.000   8.778
63913SOL    HW193578   1.558  11.935   8.821
63913SOL    HW293579   1.529  12.083   8.817
63914SOL     OW93580  12.089  10.016   3.189
63914SOL    HW193581  12.023  10.073   3.149
63914SOL    HW293582  12.110  10.059   3.272
63915SOL     OW93583   3.456  13.114  13.040
63915SOL    HW193584   3.533  13.144  13.088
63915SOL    HW293585   3.433  13.031  13.081
63916SOL     OW93586   3.179   1.143  13.650
63916SOL    HW193587   3.221   1.224  13.680
63916SOL    HW293588   3.252   1.085  13.628
63917SOL     OW93589   3.332   2.192  11.638
63917SOL    HW193590   3.428   2.185  11.642
63917SOL    HW293591   3.305   2.123  11.578
63918SOL     OW93592   8.311   1.407  10.797
63918SOL    HW193593   8.281   1.329  10.749
63918SOL    HW293594   8.260   1.405  10.878
63919SOL     OW93595  12.013  10.945  12.288
63919SOL    HW193596  11.928  10.986  12.273
63919SOL    HW293597  12.000  10.853  12.262
63920SOL     OW93598   3.937  14.010   6.251
63920SOL    HW193599   3.981  14.092   6.230
63920SOL    HW293600   3.996  13.965   6.312
63921SOL     OW93601   8.686   7.597   1.722
63921SOL    HW193602   8.682   7.529   1.790
63921SOL    HW293603   8.771   7.584   1.680
63922SOL     OW93604   9.821   0.583   7.991
63922SOL    HW193605   9.765   0.520   7.946
63922SOL    HW293606   9.771   0.606   8.070
63923SOL     OW93607   6.598  10.506   6.225
63923SOL    HW193608   6.649  10.443   6.174
63923SOL    HW293609   6.651  10.586   6.224
63924SOL     OW93610   2.876  12.374  10.110
63924SOL    HW193611   2.801  12.414  10.066
63924SOL    HW293612   2.910  12.442  10.168
63925SOL     OW93613  10.567  11.083   3.558
63925SOL    HW193614  10.516  11.047   3.485
63925SOL    HW293615  10.545  11.028   3.633
63926SOL     OW93616  14.458   4.985   0.384
63926SOL    HW193617  14.422   4.963   0.298
63926SOL    HW293618  14.538   4.933   0.390
63927SOL     OW93619  13.793   2.245  12.694
63927SOL    HW193620  13.704   2.263  12.663
63927SOL    HW293621  13.849   2.288  12.629
63928SOL     OW93622  10.166  12.097   9.275
63928SOL    HW193623  10.258  12.087   9.302
63928SOL    HW293624  10.153  12.032   9.207
63929SOL     OW93625   8.406   0.048  13.892
63929SOL    HW193626   8.449   0.044  13.807
63929SOL    HW293627   8.396   0.141  13.910
63930SOL     OW93628  10.401  13.605   7.887
63930SOL    HW193629  10.383  13.537   7.822
63930SOL    HW293630  10.318  13.650   7.898
63931SOL     OW93631   0.517  12.017   3.946
63931SOL    HW193632   0.485  12.052   4.029
63931SOL    HW293633   0.612  12.022   3.953
63932SOL     OW93634  11.791   0.194   1.983
63932SOL    HW193635  11.697   0.200   1.966
63932SOL    HW293636  11.800   0.130   2.053
63933SOL     OW93637   4.781   9.079   9.679
63933SOL    HW193638   4.690   9.092   9.703
63933SOL    HW293639   4.806   8.997   9.721
63934SOL     OW93640   4.131   9.050   0.145
63934SOL    HW193641   4.083   9.133   0.139
63934SOL    HW293642   4.132   9.017   0.055
63935SOL     OW93643   0.411  13.991   9.380
63935SOL    HW193644   0.437  14.079   9.354
63935SOL    HW293645   0.347  13.965   9.314
63936SOL     OW93646   6.598   9.209  13.477
63936SOL    HW193647   6.571   9.184  13.388
63936SOL    HW293648   6.578   9.133  13.531
63937SOL     OW93649   7.134   2.638  12.696
63937SOL    HW193650   7.153   2.732  12.689
63937SOL    HW293651   7.188   2.609  12.771
63938SOL     OW93652  10.392   0.525   1.245
63938SOL    HW193653  10.367   0.578   1.169
63938SOL    HW293654  10.393   0.435   1.212
63939SOL     OW93655   9.970  13.173   7.758
63939SOL    HW193656   9.906  13.186   7.828
63939SOL    HW293657   9.958  13.248   7.700
63940SOL     OW93658  10.823   4.852  11.168
63940SOL    HW193659  10.736   4.892  11.167
63940SOL    HW293660  10.866   4.887  11.246
63941SOL     OW93661   8.289   0.668   3.388
63941SOL    HW193662   8.247   0.583   3.378
63941SOL    HW293663   8.217   0.730   3.392
63942SOL     OW93664   1.441   7.250   6.561
63942SOL    HW193665   1.401   7.327   6.599
63942SOL    HW293666   1.468   7.278   6.473
63943SOL     OW93667  10.215   9.099   6.107
63943SOL    HW193668  10.289   9.089   6.167
63943SOL    HW293669  10.172   9.014   6.106
63944SOL     OW93670   4.831   1.535   4.918
63944SOL    HW193671   4.925   1.546   4.905
63944SOL    HW293672   4.796   1.625   4.918
63945SOL     OW93673  12.609   9.168   7.359
63945SOL    HW193674  12.597   9.109   7.434
63945SOL    HW293675  12.558   9.128   7.289
63946SOL     OW93676   6.571   3.783   5.036
63946SOL    HW193677   6.544   3.748   5.121
63946SOL    HW293678   6.532   3.723   4.972
63947SOL     OW93679   5.071   7.825  11.187
63947SOL    HW193680   5.023   7.743  11.180
63947SOL    HW293681   5.022   7.886  11.131
63948SOL     OW93682   2.336  12.112   7.883
63948SOL    HW193683   2.243  12.089   7.888
63948SOL    HW293684   2.381  12.040   7.926
63949SOL     OW93685   1.410  12.277   4.762
63949SOL    HW193686   1.317  12.257   4.749
63949SOL    HW293687   1.445  12.199   4.805
63950SOL     OW93688   6.051   5.243   6.985
63950SOL    HW193689   6.137   5.217   6.951
63950SOL    HW293690   6.067   5.329   7.025
63951SOL     OW93691   4.558   3.448   8.984
63951SOL    HW193692   4.493   3.381   8.964
63951SOL    HW293693   4.530   3.525   8.935
63952SOL     OW93694  14.171  11.077   6.504
63952SOL    HW193695  14.121  11.155   6.526
63952SOL    HW293696  14.262  11.107   6.503
63953SOL     OW93697  12.874   7.562  10.737
63953SOL    HW193698  12.959   7.597  10.763
63953SOL    HW293699  12.811   7.614  10.788
63954SOL     OW93700  13.892   2.634   3.790
63954SOL    HW193701  13.938   2.715   3.811
63954SOL    HW293702  13.800   2.659   3.784
63955SOL     OW93703   2.702   7.772  12.063
63955SOL    HW193704   2.738   7.730  12.141
63955SOL    HW293705   2.660   7.852  12.096
63956SOL     OW93706   8.128   3.555  14.379
63956SOL    HW193707   8.168   3.605  14.307
63956SOL    HW293708   8.094   3.476  14.337
63957SOL     OW93709   0.419  12.968   2.202
63957SOL    HW193710   0.384  12.922   2.278
63957SOL    HW293711   0.513  12.949   2.202
63958SOL     OW93712   1.072   2.478   1.526
63958SOL    HW193713   1.153   2.522   1.550
63958SOL    HW293714   1.092   2.433   1.444
63959SOL     OW93715  14.591   0.806   2.148
63959SOL    HW193716  14.526   0.736   2.157
63959SOL    HW293717  14.545   0.875   2.101
63960SOL     OW93718   5.492   5.011   6.640
63960SOL    HW193719   5.463   5.080   6.579
63960SOL    HW293720   5.487   5.053   6.726
63961SOL     OW93721   7.556  13.348   2.932
63961SOL    HW193722   7.464  13.334   2.954
63961SOL    HW293723   7.577  13.434   2.968
63962SOL     OW93724   1.281   3.385   9.439
63962SOL    HW193725   1.289   3.344   9.353
63962SOL    HW293726   1.365   3.430   9.452
63963SOL     OW93727   5.812   8.229   6.842
63963SOL    HW193728   5.890   8.282   6.859
63963SOL    HW293729   5.846   8.151   6.798
63964SOL     OW93730  12.578   5.933   9.748
63964SOL    HW193731  12.542   5.851   9.714
63964SOL    HW293732  12.590   5.988   9.670
63965SOL     OW93733  14.359   6.321  11.112
63965SOL    HW193734  14.430   6.282  11.162
63965SOL    HW293735  14.395   6.404  11.080
63966SOL     OW93736  14.348  13.652   4.889
63966SOL    HW193737  14.409  13.704   4.835
63966SOL    HW293738  14.325  13.578   4.833
63967SOL     OW93739  14.802  10.086   6.492
63967SOL    HW193740  14.870  10.029   6.457
63967SOL    HW293741  14.726  10.030   6.504
63968SOL     OW93742   4.171  10.764   3.999
63968SOL    HW193743   4.233  10.763   4.072
63968SOL    HW293744   4.195  10.688   3.947
63969SOL     OW93745   0.725   7.201   9.319
63969SOL    HW193746   0.671   7.275   9.347
63969SOL    HW293747   0.678   7.162   9.246
63970SOL     OW93748   8.892  12.834  14.788
63970SOL    HW193749   8.880  12.763  14.724
63970SOL    HW293750   8.901  12.913  14.734
63971SOL     OW93751  12.845  14.024  10.997
63971SOL    HW193752  12.851  13.947  11.054
63971SOL    HW293753  12.844  14.098  11.057
63972SOL     OW93754  12.950   4.920   5.275
63972SOL    HW193755  13.022   4.973   5.241
63972SOL    HW293756  12.905   4.889   5.196
63973SOL     OW93757   9.835   7.909  10.126
63973SOL    HW193758   9.887   7.944  10.199
63973SOL    HW293759   9.837   7.979  10.061
63974SOL     OW93760  11.167   3.039  12.886
63974SOL    HW193761  11.137   3.035  12.795
63974SOL    HW293762  11.261   3.058  12.879
63975SOL     OW93763   8.632  10.798  14.183
63975SOL    HW193764   8.558  10.857  14.199
63975SOL    HW293765   8.593  10.712  14.171
63976SOL     OW93766   8.881  11.223  11.636
63976SOL    HW193767   8.925  11.152  11.589
63976SOL    HW293768   8.914  11.303  11.596
63977SOL     OW93769   1.772   0.683   2.897
63977SOL    HW193770   1.761   0.735   2.817
63977SOL    HW293771   1.813   0.602   2.867
63978SOL     OW93772   7.936  12.486   0.304
63978SOL    HW193773   7.865  12.524   0.252
63978SOL    HW293774   8.002  12.555   0.310
63979SOL     OW93775  14.009   2.875   3.826
63979SOL    HW193776  14.051   2.859   3.911
63979SOL    HW293777  14.073   2.925   3.776
63980SOL     OW93778   3.774   1.899   5.611
63980SOL    HW193779   3.688   1.880   5.649
63980SOL    HW293780   3.760   1.975   5.555
63981SOL     OW93781   3.493  11.049   7.709
63981SOL    HW193782   3.461  10.969   7.751
63981SOL    HW293783   3.576  11.067   7.753
63982SOL     OW93784   1.319   3.398  11.577
63982SOL    HW193785   1.233   3.407  11.618
63982SOL    HW293786   1.304   3.420  11.485
63983SOL     OW93787   6.321   4.608  14.271
63983SOL    HW193788   6.322   4.687  14.217
63983SOL    HW293789   6.350   4.539  14.212
63984SOL     OW93790   2.851  12.261   0.754
63984SOL    HW193791   2.803  12.213   0.686
63984SOL    HW293792   2.942  12.239   0.739
63985SOL     OW93793   1.850   6.652  10.904
63985SOL    HW193794   1.858   6.599  10.984
63985SOL    HW293795   1.815   6.736  10.935
63986SOL     OW93796   3.501   9.066   9.270
63986SOL    HW193797   3.532   9.061   9.360
63986SOL    HW293798   3.495   9.160   9.252
63987SOL     OW93799   6.153   9.159   2.103
63987SOL    HW193800   6.238   9.180   2.143
63987SOL    HW293801   6.166   9.074   2.062
63988SOL     OW93802   8.223   5.587   0.371
63988SOL    HW193803   8.294   5.552   0.318
63988SOL    HW293804   8.180   5.651   0.315
63989SOL     OW93805  14.140   7.821  10.123
63989SOL    HW193806  14.205   7.865  10.068
63989SOL    HW293807  14.186   7.746  10.160
63990SOL     OW93808   8.065   8.512   1.040
63990SOL    HW193809   8.002   8.445   1.013
63990SOL    HW293810   8.111   8.473   1.114
63991SOL     OW93811   3.351   4.173  11.283
63991SOL    HW193812   3.365   4.154  11.376
63991SOL    HW293813   3.421   4.234  11.260
63992SOL     OW93814   9.335   7.595   3.051
63992SOL    HW193815   9.275   7.669   3.044
63992SOL    HW293816   9.311   7.538   2.978
63993SOL     OW93817  11.235   1.908   3.865
63993SOL    HW193818  11.316   1.895   3.817
63993SOL    HW293819  11.172   1.848   3.826
63994SOL     OW93820   7.204   8.576  10.179
63994SOL    HW193821   7.184   8.514  10.250
63994SOL    HW293822   7.237   8.521  10.108
63995SOL     OW93823   9.522  11.519   0.812
63995SOL    HW193824   9.523  11.438   0.761
63995SOL    HW293825   9.613  11.534   0.835
63996SOL     OW93826   8.334  11.915   1.411
63996SOL    HW193827   8.302  11.838   1.458
63996SOL    HW293828   8.274  11.924   1.337
63997SOL     OW93829   2.760   2.029   4.266
63997SOL    HW193830   2.847   1.992   4.279
63997SOL    HW293831   2.717   1.970   4.205
63998SOL     OW93832  10.283   1.225  13.227
63998SOL    HW193833  10.275   1.192  13.317
63998SOL    HW293834  10.200   1.203  13.186
63999SOL     OW93835  12.304   1.547  10.179
63999SOL    HW193836  12.366   1.484  10.216
63999SOL    HW293837  12.308   1.622  10.239
64000SOL     OW93838  12.685  11.224   9.689
64000SOL    HW193839  12.749  11.161   9.722
64000SOL    HW293840  12.602  11.196   9.727
64001SOL     OW93841   5.194  10.009   0.449
64001SOL    HW193842   5.160   9.922   0.428
64001SOL    HW293843   5.253  10.030   0.376
64002SOL     OW93844   9.820   7.366   9.801
64002SOL    HW193845   9.906   7.399   9.776
64002SOL    HW293846   9.831   7.339   9.892
64003SOL     OW93847   3.195   7.972   3.363
64003SOL    HW193848   3.254   7.941   3.432
64003SOL    HW293849   3.184   8.065   3.383
64004SOL     OW93850   2.581  10.770   4.507
64004SOL    HW193851   2.490  10.749   4.485
64004SOL    HW293852   2.578  10.799   4.598
64005SOL     OW93853   4.637   1.352   9.407
64005SOL    HW193854   4.605   1.422   9.464
64005SOL    HW293855   4.665   1.397   9.327
64006SOL     OW93856  14.539   0.287  12.725
64006SOL    HW193857  14.619   0.244  12.754
64006SOL    HW293858  14.500   0.226  12.662
64007SOL     OW93859   1.247  11.037   9.072
64007SOL    HW193860   1.179  11.081   9.123
64007SOL    HW293861   1.233  10.944   9.087
64008SOL     OW93862   3.174  13.915   7.992
64008SOL    HW193863   3.255  13.961   8.013
64008SOL    HW293864   3.106  13.983   7.998
64009SOL     OW93865  10.880  13.984   3.413
64009SOL    HW193866  10.810  14.045   3.431
64009SOL    HW293867  10.934  14.027   3.347
64010SOL     OW93868  10.726  11.470   3.724
64010SOL    HW193869  10.656  11.499   3.665
64010SOL    HW293870  10.799  11.530   3.706
64011SOL     OW93871   4.089   5.836  12.547
64011SOL    HW193872   4.025   5.766  12.562
64011SOL    HW293873   4.121   5.820  12.459
64012SOL     OW93874   1.245  10.710  11.043
64012SOL    HW193875   1.319  10.768  11.022
64012SOL    HW293876   1.264  10.678  11.131
64013SOL     OW93877   9.512   4.527   1.471
64013SOL    HW193878   9.449   4.567   1.410
64013SOL    HW293879   9.509   4.434   1.450
64014SOL     OW93880   1.252  10.490   0.621
64014SOL    HW193881   1.248  10.575   0.666
64014SOL    HW293882   1.264  10.513   0.528
64015SOL     OW93883  11.477  13.998   9.150
64015SOL    HW193884  11.557  13.959   9.115
64015SOL    HW293885  11.408  13.936   9.128
64016SOL     OW93886   2.341   9.576  10.084
64016SOL    HW193887   2.251   9.543  10.085
64016SOL    HW293888   2.395   9.497  10.073
64017SOL     OW93889  13.358   9.598   4.433
64017SOL    HW193890  13.413   9.527   4.464
64017SOL    HW293891  13.333   9.646   4.512
64018SOL     OW93892   9.817   2.138   5.579
64018SOL    HW193893   9.840   2.052   5.614
64018SOL    HW293894   9.721   2.142   5.587
64019SOL     OW93895   4.746  13.349  10.528
64019SOL    HW193896   4.778  13.348  10.438
64019SOL    HW293897   4.652  13.333  10.520
64020SOL     OW93898   5.240   4.681   7.114
64020SOL    HW193899   5.175   4.711   7.177
64020SOL    HW293900   5.189   4.632   7.048
64021SOL     OW93901   4.699   3.173   4.289
64021SOL    HW193902   4.695   3.241   4.222
64021SOL    HW293903   4.644   3.102   4.256
64022SOL     OW93904   6.055   8.175   3.819
64022SOL    HW193905   5.966   8.209   3.831
64022SOL    HW293906   6.092   8.172   3.907
64023SOL     OW93907   3.940   6.002   3.657
64023SOL    HW193908   3.994   5.926   3.679
64023SOL    HW293909   3.866   5.966   3.609
64024SOL     OW93910   8.634   0.283   1.687
64024SOL    HW193911   8.623   0.302   1.594
64024SOL    HW293912   8.721   0.317   1.708
64025SOL     OW93913  12.928   0.937   5.982
64025SOL    HW193914  12.877   0.921   6.062
64025SOL    HW293915  12.862   0.942   5.913
64026SOL     OW93916  10.451   0.250   1.051
64026SOL    HW193917  10.508   0.174   1.063
64026SOL    HW293918  10.362   0.214   1.058
64027SOL     OW93919  14.809   3.638   0.214
64027SOL    HW193920  14.729   3.619   0.262
64027SOL    HW293921  14.822   3.732   0.226
64028SOL     OW93922  12.197   1.732   6.134
64028SOL    HW193923  12.265   1.741   6.201
64028SOL    HW293924  12.140   1.663   6.167
64029SOL     OW93925   2.866   7.360   4.667
64029SOL    HW193926   2.831   7.421   4.732
64029SOL    HW293927   2.944   7.404   4.632
64030SOL     OW93928   7.884  14.145   5.307
64030SOL    HW193929   7.831  14.068   5.287
64030SOL    HW293930   7.822  14.208   5.343
64031SOL     OW93931   6.082   5.512   7.110
64031SOL    HW193932   6.086   5.583   7.175
64031SOL    HW293933   6.047   5.554   7.032
64032SOL     OW93934   5.967  11.404  13.260
64032SOL    HW193935   5.931  11.329  13.306
64032SOL    HW293936   5.998  11.463  13.329
64033SOL     OW93937  13.254   9.878   6.283
64033SOL    HW193938  13.314   9.912   6.349
64033SOL    HW293939  13.221   9.797   6.321
64034SOL     OW93940   1.762   9.811   9.554
64034SOL    HW193941   1.840   9.810   9.499
64034SOL    HW293942   1.689   9.815   9.492
64035SOL     OW93943   4.006   6.063   6.646
64035SOL    HW193944   4.048   6.014   6.575
64035SOL    HW293945   3.922   6.092   6.610
64036SOL     OW93946   2.118   6.579  10.265
64036SOL    HW193947   2.082   6.654  10.313
64036SOL    HW293948   2.206   6.607  10.239
64037SOL     OW93949   2.898   3.537  14.697
64037SOL    HW193950   2.931   3.583  14.774
64037SOL    HW293951   2.938   3.582  14.623
64038SOL     OW93952   1.617  11.880   5.051
64038SOL    HW193953   1.541  11.824   5.063
64038SOL    HW293954   1.646  11.901   5.140
64039SOL     OW93955   6.538   8.976   4.083
64039SOL    HW193956   6.495   8.948   4.164
64039SOL    HW293957   6.490   9.054   4.055
64040SOL     OW93958  14.593   4.762   0.113
64040SOL    HW193959  14.518   4.770   0.055
64040SOL    HW293960  14.658   4.713   0.063
64041SOL     OW93961   1.530  14.795   9.869
64041SOL    HW193962   1.458  14.858   9.877
64041SOL    HW293963   1.536  14.776   9.776
64042SOL     OW93964  11.052   8.413  10.837
64042SOL    HW193965  11.081   8.336  10.788
64042SOL    HW293966  11.016   8.472  10.771
64043SOL     OW93967   3.934   1.504   0.802
64043SOL    HW193968   3.927   1.408   0.803
64043SOL    HW293969   3.896   1.529   0.717
64044SOL     OW93970   9.264   4.838  13.618
64044SOL    HW193971   9.279   4.749  13.587
64044SOL    HW293972   9.293   4.894  13.546
64045SOL     OW93973   0.582  13.200   2.686
64045SOL    HW193974   0.612  13.152   2.609
64045SOL    HW293975   0.611  13.290   2.671
64046SOL     OW93976  13.101   1.658   3.441
64046SOL    HW193977  13.032   1.664   3.374
64046SOL    HW293978  13.055   1.631   3.520
64047SOL     OW93979  10.887   4.390   1.955
64047SOL    HW193980  10.846   4.356   1.876
64047SOL    HW293981  10.873   4.485   1.951
64048SOL     OW93982   4.594  11.116   2.803
64048SOL    HW193983   4.561  11.197   2.840
64048SOL    HW293984   4.687  11.115   2.826
64049SOL     OW93985   2.391   8.748  12.972
64049SOL    HW193986   2.389   8.672  13.030
64049SOL    HW293987   2.385   8.823  13.030
64050SOL     OW93988   9.434   1.126   9.236
64050SOL    HW193989   9.499   1.079   9.289
64050SOL    HW293990   9.358   1.135   9.294
64051SOL     OW93991   0.803  11.789   5.740
64051SOL    HW193992   0.863  11.729   5.783
64051SOL    HW293993   0.777  11.850   5.809
64052SOL     OW93994  12.838   2.112  13.998
64052SOL    HW193995  12.814   2.140  14.087
64052SOL    HW293996  12.772   2.153  13.942
64053SOL     OW93997   0.549   9.115  12.527
64053SOL    HW193998   0.466   9.134  12.483
64053SOL    HW293999   0.609   9.184  12.497
64054SOL     OW94000   7.034  13.911   4.295
64054SOL    HW194001   7.092  13.987   4.298
64054SOL    HW294002   6.959  13.937   4.348
64055SOL     OW94003   8.465   6.551   1.682
64055SOL    HW194004   8.510   6.477   1.641
64055SOL    HW294005   8.406   6.512   1.746
64056SOL     OW94006   7.579  14.504   5.041
64056SOL    HW194007   7.584  14.575   5.104
64056SOL    HW294008   7.486  14.483   5.034
64057SOL     OW94009   9.915   3.130   2.826
64057SOL    HW194010   9.839   3.182   2.800
64057SOL    HW294011   9.981   3.149   2.760
64058SOL     OW94012   2.598   3.340   2.492
64058SOL    HW194013   2.654   3.410   2.458
64058SOL    HW294014   2.635   3.320   2.579
64059SOL     OW94015   5.316  12.912   5.135
64059SOL    HW194016   5.236  12.921   5.187
64059SOL    HW294017   5.336  12.818   5.139
64060SOL     OW94018   1.725   2.222   0.455
64060SOL    HW194019   1.686   2.161   0.517
64060SOL    HW294020   1.655   2.239   0.391
64061SOL     OW94021   6.708  12.285   4.925
64061SOL    HW194022   6.616  12.309   4.910
64061SOL    HW294023   6.746  12.279   4.838
64062SOL     OW94024   6.079  13.881  12.040
64062SOL    HW194025   6.017  13.918  12.102
64062SOL    HW294026   6.135  13.955  12.015
64063SOL     OW94027  10.958  11.953  11.909
64063SOL    HW194028  10.922  11.982  11.993
64063SOL    HW294029  11.048  11.927  11.928
64064SOL     OW94030  14.372   7.413   2.064
64064SOL    HW194031  14.444   7.384   2.007
64064SOL    HW294032  14.295   7.370   2.028
64065SOL     OW94033   0.496  10.682   3.453
64065SOL    HW194034   0.419  10.699   3.400
64065SOL    HW294035   0.471  10.608   3.509
64066SOL     OW94036   8.606  14.587   1.203
64066SOL    HW194037   8.536  14.614   1.262
64066SOL    HW294038   8.627  14.498   1.230
64067SOL     OW94039  10.688  10.850  10.339
64067SOL    HW194040  10.708  10.762  10.372
64067SOL    HW294041  10.631  10.888  10.406
64068SOL     OW94042   1.144   3.038  11.824
64068SOL    HW194043   1.157   3.118  11.874
64068SOL    HW294044   1.230   3.016  11.790
64069SOL     OW94045   0.127   5.843  11.613
64069SOL    HW194046   0.089   5.757  11.631
64069SOL    HW294047   0.080   5.903  11.671
64070SOL     OW94048  10.564   2.838   7.129
64070SOL    HW194049  10.469   2.846   7.119
64070SOL    HW294050  10.581   2.868   7.219
64071SOL     OW94051   0.023  12.286  12.560
64071SOL    HW194052   0.075  12.353  12.515
64071SOL    HW294053   0.051  12.204  12.518
64072SOL     OW94054  12.584  10.256   3.576
64072SOL    HW194055  12.604  10.188   3.512
64072SOL    HW294056  12.549  10.209   3.651
64073SOL     OW94057   5.358   7.647  10.752
64073SOL    HW194058   5.350   7.552  10.764
64073SOL    HW294059   5.281   7.671  10.699
64074SOL     OW94060   3.178   2.697   5.846
64074SOL    HW194061   3.177   2.716   5.940
64074SOL    HW294062   3.160   2.781   5.804
64075SOL     OW94063   8.939   2.364   2.863
64075SOL    HW194064   8.852   2.384   2.898
64075SOL    HW294065   8.974   2.297   2.922
64076SOL     OW94066  10.719   0.978   3.408
64076SOL    HW194067  10.814   0.990   3.417
64076SOL    HW294068  10.710   0.916   3.335
64077SOL     OW94069  13.930   9.339   9.890
64077SOL    HW194070  13.888   9.253   9.891
64077SOL    HW294071  13.998   9.334   9.957
64078SOL     OW94072   4.254  12.287   9.984
64078SOL    HW194073   4.299  12.297   9.900
64078SOL    HW294074   4.161  12.288   9.962
64079SOL     OW94075  14.595   0.704   2.998
64079SOL    HW194076  14.663   0.642   3.024
64079SOL    HW294077  14.615   0.725   2.907
64080SOL     OW94078   6.359  14.384   7.673
64080SOL    HW194079   6.272  14.398   7.711
64080SOL    HW294080   6.387  14.470   7.644
64081SOL     OW94081  10.553   0.510  12.709
64081SOL    HW194082  10.513   0.529  12.794
64081SOL    HW294083  10.506   0.433  12.677
64082SOL     OW94084  13.674   8.427  10.782
64082SOL    HW194085  13.745   8.375  10.818
64082SOL    HW294086  13.683   8.513  10.824
64083SOL     OW94087   7.035  10.066   2.809
64083SOL    HW194088   7.117  10.021   2.827
64083SOL    HW294089   6.995  10.079   2.895
64084SOL     OW94090  11.310   1.771  10.372
64084SOL    HW194091  11.255   1.837  10.331
64084SOL    HW294092  11.347   1.722  10.298
64085SOL     OW94093  12.212   8.782   6.784
64085SOL    HW194094  12.296   8.812   6.750
64085SOL    HW294095  12.232   8.753   6.873
64086SOL     OW94096   6.553   3.261   8.071
64086SOL    HW194097   6.516   3.205   8.139
64086SOL    HW294098   6.641   3.282   8.102
64087SOL     OW94099   7.550   7.725   6.914
64087SOL    HW194100   7.538   7.747   7.007
64087SOL    HW294101   7.587   7.637   6.914
64088SOL     OW94102  13.122   6.318   9.588
64088SOL    HW194103  13.088   6.404   9.611
64088SOL    HW294104  13.150   6.280   9.671
64089SOL     OW94105  10.283  11.720   4.762
64089SOL    HW194106  10.363  11.765   4.735
64089SOL    HW294107  10.213  11.784   4.749
64090SOL     OW94108   4.921   2.342   5.524
64090SOL    HW194109   5.000   2.386   5.557
64090SOL    HW294110   4.950   2.296   5.445
64091SOL     OW94111   3.185   5.646   9.303
64091SOL    HW194112   3.180   5.560   9.261
64091SOL    HW294113   3.198   5.627   9.396
64092SOL     OW94114   4.968  10.161   6.190
64092SOL    HW194115   4.968  10.067   6.171
64092SOL    HW294116   5.060  10.183   6.203
64093SOL     OW94117   6.384   8.935   8.575
64093SOL    HW194118   6.457   8.903   8.628
64093SOL    HW294119   6.324   8.861   8.569
64094SOL     OW94120   9.084   5.226   1.356
64094SOL    HW194121   9.133   5.286   1.299
64094SOL    HW294122   9.148   5.159   1.379
64095SOL     OW94123  13.581  11.650   9.271
64095SOL    HW194124  13.568  11.594   9.195
64095SOL    HW294125  13.582  11.590   9.346
64096SOL     OW94126  10.329  11.837  12.129
64096SOL    HW194127  10.389  11.770  12.161
64096SOL    HW294128  10.372  11.920  12.151
64097SOL     OW94129  11.653   1.971   2.770
64097SOL    HW194130  11.618   1.919   2.842
64097SOL    HW294131  11.577   2.021   2.738
64098SOL     OW94132  11.010   1.132  14.002
64098SOL    HW194133  11.023   1.172  14.088
64098SOL    HW294134  11.023   1.204  13.940
64099SOL     OW94135  14.854   2.869   6.810
64099SOL    HW194136  14.872   2.889   6.719
64099SOL    HW294137   0.030   2.932   6.859
64100SOL     OW94138  11.353  10.457   2.379
64100SOL    HW194139  11.432  10.511   2.372
64100SOL    HW294140  11.320  10.451   2.289
64101SOL     OW94141   5.085   6.981  10.699
64101SOL    HW194142   5.149   6.992  10.630
64101SOL    HW294143   5.123   6.914  10.756
64102SOL     OW94144   1.061   6.297   4.104
64102SOL    HW194145   1.126   6.233   4.076
64102SOL    HW294146   1.085   6.378   4.059
64103SOL     OW94147  12.709  13.293   2.097
64103SOL    HW194148  12.745  13.274   2.010
64103SOL    HW294149  12.623  13.332   2.079
64104SOL     OW94150   9.739   1.068  11.617
64104SOL    HW194151   9.762   1.159  11.601
64104SOL    HW294152   9.810   1.033  11.670
64105SOL     OW94153  12.252   8.522  11.466
64105SOL    HW194154  12.174   8.482  11.504
64105SOL    HW294155  12.236   8.521  11.371
64106SOL     OW94156   4.084   3.668   8.826
64106SOL    HW194157   4.144   3.736   8.795
64106SOL    HW294158   4.109   3.590   8.776
64107SOL     OW94159   8.611   3.479   8.015
64107SOL    HW194160   8.574   3.407   8.066
64107SOL    HW294161   8.673   3.521   8.074
64108SOL     OW94162  10.688   7.236   2.293
64108SOL    HW194163  10.770   7.247   2.341
64108SOL    HW294164  10.678   7.142   2.283
64109SOL     OW94165   1.106  11.614   9.713
64109SOL    HW194166   1.109  11.568   9.797
64109SOL    HW294167   1.037  11.680   9.724
64110SOL     OW94168   1.865  12.775   2.680
64110SOL    HW194169   1.933  12.710   2.663
64110SOL    HW294170   1.788  12.743   2.631
64111SOL     OW94171  11.242   1.491   4.202
64111SOL    HW194172  11.222   1.491   4.109
64111SOL    HW294173  11.162   1.520   4.245
64112SOL     OW94174   8.329   0.943   7.850
64112SOL    HW194175   8.270   1.016   7.868
64112SOL    HW294176   8.286   0.867   7.888
64113SOL     OW94177   7.434  12.168  12.646
64113SOL    HW194178   7.499  12.115  12.600
64113SOL    HW294179   7.412  12.117  12.725
64114SOL     OW94180  12.041   5.862   8.997
64114SOL    HW194181  11.972   5.892   8.937
64114SOL    HW294182  11.997   5.857   9.082
64115SOL     OW94183  10.379   2.403   3.375
64115SOL    HW194184  10.412   2.324   3.333
64115SOL    HW294185  10.398   2.391   3.468
64116SOL     OW94186   6.565   6.241  10.819
64116SOL    HW194187   6.586   6.149  10.799
64116SOL    HW294188   6.487   6.259  10.766
64117SOL     OW94189   4.674   4.501   2.909
64117SOL    HW194190   4.607   4.563   2.939
64117SOL    HW294191   4.756   4.550   2.917
64118SOL     OW94192   1.407  10.190   0.382
64118SOL    HW194193   1.322  10.235   0.380
64118SOL    HW294194   1.471  10.260   0.397
64119SOL     OW94195   6.965   4.853   6.803
64119SOL    HW194196   6.900   4.868   6.872
64119SOL    HW294197   7.049   4.855   6.848
64120SOL     OW94198  13.325   1.560   4.813
64120SOL    HW194199  13.390   1.612   4.767
64120SOL    HW294200  13.347   1.469   4.792
64121SOL     OW94201  11.728   6.776  11.938
64121SOL    HW194202  11.715   6.771  12.033
64121SOL    HW294203  11.660   6.836  11.908
64122SOL     OW94204   7.013   8.340  13.462
64122SOL    HW194205   7.092   8.394  13.458
64122SOL    HW294206   6.985   8.331  13.372
64123SOL     OW94207  10.985  10.311   2.171
64123SOL    HW194208  11.056  10.368   2.141
64123SOL    HW294209  10.906  10.351   2.135
64124SOL     OW94210  13.644  12.748  12.666
64124SOL    HW194211  13.612  12.800  12.593
64124SOL    HW294212  13.738  12.768  12.671
64125SOL     OW94213  10.537  14.229   4.353
64125SOL    HW194214  10.569  14.213   4.264
64125SOL    HW294215  10.495  14.147   4.379
64126SOL     OW94216   6.698   6.461  13.016
64126SOL    HW194217   6.671   6.547  13.048
64126SOL    HW294218   6.687   6.465  12.921
64127SOL     OW94219   4.718   7.657   4.736
64127SOL    HW194220   4.706   7.631   4.828
64127SOL    HW294221   4.780   7.730   4.739
64128SOL     OW94222  11.523  11.467  13.967
64128SOL    HW194223  11.440  11.420  13.960
64128SOL    HW294224  11.538  11.477  14.061
64129SOL     OW94225   8.438  10.644  14.351
64129SOL    HW194226   8.498  10.611  14.417
64129SOL    HW294227   8.371  10.691  14.400
64130SOL     OW94228  13.559  12.007   4.099
64130SOL    HW194229  13.637  11.991   4.152
64130SOL    HW294230  13.489  12.024   4.162
64131SOL     OW94231  14.823  11.071   4.184
64131SOL    HW194232   0.023  11.014   4.195
64131SOL    HW294233  14.795  11.091   4.273
64132SOL     OW94234   7.167  14.781   5.808
64132SOL    HW194235   7.088  14.807   5.759
64132SOL    HW294236   7.140  14.782   5.900
64133SOL     OW94237   8.780  10.919  13.439
64133SOL    HW194238   8.871  10.950  13.449
64133SOL    HW294239   8.734  10.954  13.515
64134SOL     OW94240   3.517   0.160   9.913
64134SOL    HW194241   3.570   0.210   9.975
64134SOL    HW294242   3.579   0.132   9.845
64135SOL     OW94243   6.618   9.455  14.208
64135SOL    HW194244   6.700   9.495  14.238
64135SOL    HW294245   6.598   9.501  14.126
64136SOL     OW94246   2.522   7.717   5.008
64136SOL    HW194247   2.576   7.746   4.935
64136SOL    HW294248   2.470   7.645   4.973
64137SOL     OW94249   4.817   1.018   7.208
64137SOL    HW194250   4.747   1.058   7.156
64137SOL    HW294251   4.877   1.090   7.227
64138SOL     OW94252   6.092   0.663  12.185
64138SOL    HW194253   6.148   0.740  12.177
64138SOL    HW294254   6.079   0.651  12.279
64139SOL     OW94255   3.885   1.055   8.064
64139SOL    HW194256   3.826   1.129   8.080
64139SOL    HW294257   3.830   0.978   8.074
64140SOL     OW94258   7.779   6.133   4.925
64140SOL    HW194259   7.855   6.178   4.961
64140SOL    HW294260   7.781   6.152   4.832
64141SOL     OW94261   0.396   8.697   6.883
64141SOL    HW194262   0.472   8.748   6.859
64141SOL    HW294263   0.430   8.628   6.940
64142SOL     OW94264   1.918  13.886   2.026
64142SOL    HW194265   1.830  13.851   2.038
64142SOL    HW294266   1.964  13.865   2.107
64143SOL     OW94267   4.413   7.935   5.857
64143SOL    HW194268   4.384   7.976   5.776
64143SOL    HW294269   4.346   7.959   5.922
64144SOL     OW94270   2.500   9.036  13.438
64144SOL    HW194271   2.480   8.998  13.524
64144SOL    HW294272   2.478   9.129  13.449
64145SOL     OW94273   1.337  13.388  12.390
64145SOL    HW194274   1.362  13.321  12.454
64145SOL    HW294275   1.415  13.441  12.379
64146SOL     OW94276  13.900   1.464   4.281
64146SOL    HW194277  13.857   1.431   4.359
64146SOL    HW294278  13.912   1.386   4.225
64147SOL     OW94279   5.935   0.707   5.482
64147SOL    HW194280   5.966   0.789   5.520
64147SOL    HW294281   5.892   0.661   5.554
64148SOL     OW94282   8.300   9.230  10.696
64148SOL    HW194283   8.368   9.216  10.762
64148SOL    HW294284   8.292   9.325  10.689
64149SOL     OW94285   5.801  11.464  11.993
64149SOL    HW194286   5.835  11.386  11.950
64149SOL    HW294287   5.706  11.451  11.996
64150SOL     OW94288   1.481  10.338   8.021
64150SOL    HW194289   1.539  10.265   8.003
64150SOL    HW294290   1.533  10.416   8.002
64151SOL     OW94291   0.622   2.960   3.772
64151SOL    HW194292   0.618   3.006   3.855
64151SOL    HW294293   0.598   2.870   3.793
64152SOL     OW94294   6.771  11.343   8.944
64152SOL    HW194295   6.791  11.427   8.987
64152SOL    HW294296   6.689  11.314   8.985
64153SOL     OW94297   8.307  13.033  14.737
64153SOL    HW194298   8.266  13.095  14.798
64153SOL    HW294299   8.286  12.947  14.774
64154SOL     OW94300  13.646  12.529   9.202
64154SOL    HW194301  13.712  12.514   9.135
64154SOL    HW294302  13.585  12.456   9.193
64155SOL     OW94303   7.166   0.674   1.039
64155SOL    HW194304   7.088   0.729   1.042
64155SOL    HW294305   7.178   0.655   0.946
64156SOL     OW94306   1.445  13.201   4.604
64156SOL    HW194307   1.504  13.156   4.665
64156SOL    HW294308   1.380  13.134   4.581
64157SOL     OW94309  14.301  10.518  11.786
64157SOL    HW194310  14.248  10.587  11.827
64157SOL    HW294311  14.285  10.528  11.692
64158SOL     OW94312  11.260   9.730   7.010
64158SOL    HW194313  11.249   9.762   6.921
64158SOL    HW294314  11.352   9.745   7.031
64159SOL     OW94315  13.654   7.424   2.279
64159SOL    HW194316  13.662   7.512   2.242
64159SOL    HW294317  13.674   7.435   2.372
64160SOL     OW94318  13.361  10.802   9.741
64160SOL    HW194319  13.454  10.786   9.758
64160SOL    HW294320  13.340  10.747   9.665
64161SOL     OW94321   0.840  12.470  10.977
64161SOL    HW194322   0.797  12.507  10.900
64161SOL    HW294323   0.910  12.532  10.998
64162SOL     OW94324   4.872   9.346  12.384
64162SOL    HW194325   4.879   9.310  12.472
64162SOL    HW294326   4.957   9.329  12.344
64163SOL     OW94327   8.693   6.563   8.991
64163SOL    HW194328   8.601   6.588   8.986
64163SOL    HW294329   8.725   6.568   8.901
64164SOL     OW94330   4.606  11.235   9.922
64164SOL    HW194331   4.533  11.293   9.945
64164SOL    HW294332   4.671  11.251   9.990
64165SOL     OW94333   0.555  12.278  11.841
64165SOL    HW194334   0.573  12.259  11.933
64165SOL    HW294335   0.640  12.298  11.803
64166SOL     OW94336   5.656  10.993  12.149
64166SOL    HW194337   5.571  11.036  12.137
64166SOL    HW294338   5.659  10.972  12.243
64167SOL     OW94339   0.776  13.724   0.381
64167SOL    HW194340   0.690  13.685   0.391
64167SOL    HW294341   0.830  13.655   0.345
64168SOL     OW94342   4.450   9.508   7.183
64168SOL    HW194343   4.522   9.527   7.244
64168SOL    HW294344   4.374   9.551   7.222
64169SOL     OW94345  10.639  13.465   7.856
64169SOL    HW194346  10.573  13.523   7.894
64169SOL    HW294347  10.590  13.408   7.797
64170SOL     OW94348   0.525  11.602   8.395
64170SOL    HW194349   0.559  11.655   8.324
64170SOL    HW294350   0.430  11.597   8.379
64171SOL     OW94351   1.030  14.462   2.935
64171SOL    HW194352   1.024  14.557   2.938
64171SOL    HW294353   0.976  14.436   2.861
64172SOL     OW94354  14.685   9.492  10.772
64172SOL    HW194355  14.705   9.488  10.865
64172SOL    HW294356  14.601   9.447  10.764
64173SOL     OW94357  10.586   8.976   8.897
64173SOL    HW194358  10.553   8.982   8.808
64173SOL    HW294359  10.519   8.927   8.944
64174SOL     OW94360  14.461   6.642  11.495
64174SOL    HW194361  14.501   6.625  11.409
64174SOL    HW294362  14.463   6.738  11.503
64175SOL     OW94363  13.415   4.140   9.307
64175SOL    HW194364  13.480   4.192   9.355
64175SOL    HW294365  13.385   4.199   9.238
64176SOL     OW94366   6.260  10.833   4.894
64176SOL    HW194367   6.191  10.831   4.959
64176SOL    HW294368   6.225  10.785   4.819
64177SOL     OW94369  13.766   2.012   9.211
64177SOL    HW194370  13.706   2.047   9.145
64177SOL    HW294371  13.796   1.929   9.175
64178SOL     OW94372   1.383   9.991   3.844
64178SOL    HW194373   1.365   9.968   3.935
64178SOL    HW294374   1.307   9.960   3.795
64179SOL     OW94375   4.315  10.629  10.960
64179SOL    HW194376   4.366  10.710  10.964
64179SOL    HW294377   4.248  10.640  11.027
64180SOL     OW94378   1.370  12.398   7.687
64180SOL    HW194379   1.411  12.436   7.765
64180SOL    HW294380   1.350  12.308   7.711
64181SOL     OW94381   1.984  11.525  14.255
64181SOL    HW194382   2.073  11.491  14.265
64181SOL    HW294383   1.981  11.555  14.164
64182SOL     OW94384   3.718  10.404  11.166
64182SOL    HW194385   3.754  10.368  11.247
64182SOL    HW294386   3.792  10.407  11.105
64183SOL     OW94387  11.953  11.664   1.255
64183SOL    HW194388  11.899  11.734   1.289
64183SOL    HW294389  11.998  11.628   1.331
64184SOL     OW94390  11.353   6.822  10.034
64184SOL    HW194391  11.348   6.917  10.040
64184SOL    HW294392  11.281   6.790  10.089
64185SOL     OW94393  13.537   3.200   2.761
64185SOL    HW194394  13.460   3.221   2.708
64185SOL    HW294395  13.600   3.164   2.699
64186SOL     OW94396   3.818  10.453   2.435
64186SOL    HW194397   3.834  10.367   2.473
64186SOL    HW294398   3.784  10.434   2.347
64187SOL     OW94399   1.098   1.111  10.573
64187SOL    HW194400   1.192   1.122  10.557
64187SOL    HW294401   1.092   1.040  10.637
64188SOL     OW94402   9.528   8.075   0.841
64188SOL    HW194403   9.496   8.115   0.761
64188SOL    HW294404   9.623   8.082   0.836
64189SOL     OW94405   0.747  11.643  11.011
64189SOL    HW194406   0.730  11.548  11.008
64189SOL    HW294407   0.805  11.655  11.086
64190SOL     OW94408   2.889   5.169   4.897
64190SOL    HW194409   2.884   5.172   4.801
64190SOL    HW294410   2.978   5.198   4.917
64191SOL     OW94411   2.488  14.507   2.060
64191SOL    HW194412   2.430  14.458   2.119
64191SOL    HW294413   2.467  14.599   2.078
64192SOL     OW94414   5.351   1.875   9.025
64192SOL    HW194415   5.409   1.894   8.951
64192SOL    HW294416   5.274   1.929   9.009
64193SOL     OW94417   2.845   7.669   0.725
64193SOL    HW194418   2.770   7.622   0.689
64193SOL    HW294419   2.817   7.696   0.813
64194SOL     OW94420   7.498   3.892   0.900
64194SOL    HW194421   7.480   3.957   0.968
64194SOL    HW294422   7.472   3.934   0.818
64195SOL     OW94423   0.022   3.672   8.206
64195SOL    HW194424   0.057   3.727   8.276
64195SOL    HW294425  14.855   3.600   8.252
64196SOL     OW94426  10.702  13.799   5.391
64196SOL    HW194427  10.663  13.822   5.306
64196SOL    HW294428  10.792  13.830   5.385
64197SOL     OW94429   2.936  12.260   7.080
64197SOL    HW194430   3.003  12.247   7.147
64197SOL    HW294431   2.927  12.175   7.038
64198SOL     OW94432   1.408  10.487   4.867
64198SOL    HW194433   1.347  10.427   4.910
64198SOL    HW294434   1.415  10.561   4.927
64199SOL     OW94435   3.356   5.793  14.471
64199SOL    HW194436   3.331   5.883  14.450
64199SOL    HW294437   3.442   5.782  14.429
64200SOL     OW94438   4.027  12.146  11.821
64200SOL    HW194439   4.049  12.220  11.879
64200SOL    HW294440   3.975  12.087  11.875
64201SOL     OW94441  13.758   3.810  13.261
64201SOL    HW194442  13.678   3.814  13.208
64201SOL    HW294443  13.802   3.893  13.245
64202SOL     OW94444  10.173   4.278   2.705
64202SOL    HW194445  10.235   4.330   2.654
64202SOL    HW294446  10.144   4.337   2.775
64203SOL     OW94447   2.675   3.187   0.698
64203SOL    HW194448   2.674   3.198   0.603
64203SOL    HW294449   2.744   3.247   0.728
64204SOL     OW94450  12.418   9.702  11.934
64204SOL    HW194451  12.408   9.627  11.993
64204SOL    HW294452  12.384   9.777  11.984
64205SOL     OW94453   0.542   0.643   1.322
64205SOL    HW194454   0.494   0.610   1.398
64205SOL    HW294455   0.486   0.714   1.289
64206SOL     OW94456   6.856   2.338   6.615
64206SOL    HW194457   6.823   2.426   6.633
64206SOL    HW294458   6.777   2.285   6.602
64207SOL     OW94459  11.652   7.628  13.277
64207SOL    HW194460  11.727   7.687  13.269
64207SOL    HW294461  11.691   7.540  13.276
64208SOL     OW94462   3.735   1.727   9.895
64208SOL    HW194463   3.734   1.779   9.975
64208SOL    HW294464   3.767   1.787   9.828
64209SOL     OW94465   9.123   9.844  10.057
64209SOL    HW194466   9.166   9.759  10.055
64209SOL    HW294467   9.111   9.863  10.150
64210SOL     OW94468   8.090   5.854   0.772
64210SOL    HW194469   8.012   5.853   0.827
64210SOL    HW294470   8.143   5.780   0.803
64211SOL     OW94471  14.342   4.017  13.391
64211SOL    HW194472  14.357   3.985  13.480
64211SOL    HW294473  14.248   4.037  13.388
64212SOL     OW94474   9.238   6.672  10.779
64212SOL    HW194475   9.240   6.576  10.789
64212SOL    HW294476   9.236   6.686  10.685
64213SOL     OW94477   9.023   6.701   6.799
64213SOL    HW194478   9.090   6.645   6.838
64213SOL    HW294479   8.952   6.640   6.775
64214SOL     OW94480   3.558  10.364  10.521
64214SOL    HW194481   3.613  10.442  10.531
64214SOL    HW294482   3.614  10.299  10.481
64215SOL     OW94483   5.717  14.297  14.194
64215SOL    HW194484   5.808  14.278  14.218
64215SOL    HW294485   5.705  14.255  14.109
64216SOL     OW94486   0.533   1.756  12.862
64216SOL    HW194487   0.463   1.702  12.825
64216SOL    HW294488   0.576   1.700  12.926
64217SOL     OW94489  12.075   4.730   5.084
64217SOL    HW194490  12.053   4.816   5.120
64217SOL    HW294491  11.993   4.699   5.046
64218SOL     OW94492   2.229  14.861   1.854
64218SOL    HW194493   2.303   0.043   1.834
64218SOL    HW294494   2.235  14.848   1.949
64219SOL     OW94495  11.607   6.077   3.510
64219SOL    HW194496  11.684   6.105   3.558
64219SOL    HW294497  11.596   5.984   3.533
64220SOL     OW94498  12.484   1.474   2.538
64220SOL    HW194499  12.579   1.479   2.544
64220SOL    HW294500  12.459   1.548   2.482
64221SOL     OW94501  11.834  11.923   5.258
64221SOL    HW194502  11.847  11.914   5.352
64221SOL    HW294503  11.881  11.848   5.220
64222SOL     OW94504   8.394   0.540  11.935
64222SOL    HW194505   8.319   0.496  11.977
64222SOL    HW294506   8.398   0.626  11.977
64223SOL     OW94507  12.089   6.117   2.039
64223SOL    HW194508  12.047   6.068   2.109
64223SOL    HW294509  12.091   6.057   1.965
64224SOL     OW94510  10.553  13.694  14.293
64224SOL    HW194511  10.543  13.783  14.259
64224SOL    HW294512  10.627  13.658  14.244
64225SOL     OW94513   8.018   9.592   0.564
64225SOL    HW194514   8.001   9.581   0.658
64225SOL    HW294515   7.950   9.542   0.521
64226SOL     OW94516   2.988   8.314   3.104
64226SOL    HW194517   2.962   8.283   3.017
64226SOL    HW294518   2.917   8.372   3.131
64227SOL     OW94519   6.803   3.442  10.607
64227SOL    HW194520   6.730   3.404  10.559
64227SOL    HW294521   6.820   3.381  10.679
64228SOL     OW94522   6.872   7.547  10.317
64228SOL    HW194523   6.919   7.489  10.256
64228SOL    HW294524   6.901   7.519  10.404
64229SOL     OW94525   8.623   4.124   6.999
64229SOL    HW194526   8.578   4.160   6.923
64229SOL    HW294527   8.650   4.200   7.050
64230SOL     OW94528  10.993  12.876  11.169
64230SOL    HW194529  11.068  12.871  11.110
64230SOL    HW294530  10.927  12.819  11.129
64231SOL     OW94531   8.872  10.115  11.512
64231SOL    HW194532   8.791  10.165  11.521
64231SOL    HW294533   8.917  10.127  11.596
64232SOL     OW94534   6.824   0.590   1.124
64232SOL    HW194535   6.896   0.549   1.076
64232SOL    HW294536   6.746   0.540   1.098
64233SOL     OW94537   1.384  10.989   2.616
64233SOL    HW194538   1.376  11.001   2.710
64233SOL    HW294539   1.460  11.042   2.592
64234SOL     OW94540   2.975   5.264   1.206
64234SOL    HW194541   3.006   5.319   1.133
64234SOL    HW294542   3.054   5.243   1.256
64235SOL     OW94543  11.407   2.185   2.425
64235SOL    HW194544  11.419   2.145   2.511
64235SOL    HW294545  11.466   2.261   2.426
64236SOL     OW94546   8.724   5.105  14.723
64236SOL    HW194547   8.764   5.112  14.636
64236SOL    HW294548   8.773   5.166  14.777
64237SOL     OW94549   1.245   6.811  11.331
64237SOL    HW194550   1.303   6.807  11.407
64237SOL    HW294551   1.190   6.887  11.347
64238SOL     OW94552  14.768  13.126   2.436
64238SOL    HW194553  14.737  13.150   2.349
64238SOL    HW294554  14.792  13.034   2.428
64239SOL     OW94555   5.454  11.612  12.333
64239SOL    HW194556   5.406  11.627  12.415
64239SOL    HW294557   5.397  11.554  12.283
64240SOL     OW94558  14.742  14.115   4.214
64240SOL    HW194559  14.789  14.198   4.224
64240SOL    HW294560  14.708  14.096   4.302
64241SOL     OW94561  13.695   2.402   2.751
64241SOL    HW194562  13.695   2.338   2.822
64241SOL    HW294563  13.778   2.389   2.706
64242SOL     OW94564   6.846   5.780   3.061
64242SOL    HW194565   6.779   5.810   3.000
64242SOL    HW294566   6.849   5.685   3.049
64243SOL     OW94567   5.159   8.554   4.143
64243SOL    HW194568   5.108   8.593   4.072
64243SOL    HW294569   5.104   8.565   4.221
64244SOL     OW94570   0.136  10.594   7.677
64244SOL    HW194571   0.071  10.579   7.745
64244SOL    HW294572   0.216  10.614   7.724
64245SOL     OW94573   4.361   2.085   7.897
64245SOL    HW194574   4.361   1.993   7.922
64245SOL    HW294575   4.453   2.105   7.878
64246SOL     OW94576  11.959   9.636   3.895
64246SOL    HW194577  11.952   9.731   3.881
64246SOL    HW294578  11.879   9.613   3.941
64247SOL     OW94579  10.966   6.918   3.944
64247SOL    HW194580  11.044   6.866   3.962
64247SOL    HW294581  10.897   6.878   3.996
64248SOL     OW94582  10.272   9.225  13.672
64248SOL    HW194583  10.347   9.172  13.698
64248SOL    HW294584  10.304   9.315  13.676
64249SOL     OW94585  10.779   1.948  12.366
64249SOL    HW194586  10.833   1.875  12.336
64249SOL    HW294587  10.715   1.961  12.296
64250SOL     OW94588   2.084   3.354  12.059
64250SOL    HW194589   2.024   3.395  12.121
64250SOL    HW294590   2.171   3.384  12.087
64251SOL     OW94591   1.591   3.461   0.177
64251SOL    HW194592   1.601   3.366   0.179
64251SOL    HW294593   1.505   3.478   0.214
64252SOL     OW94594   9.329  13.748   2.756
64252SOL    HW194595   9.390  13.813   2.791
64252SOL    HW294596   9.330  13.677   2.821
64253SOL     OW94597   9.567   5.692  12.239
64253SOL    HW194598   9.506   5.691  12.165
64253SOL    HW294599   9.632   5.625  12.218
64254SOL     OW94600  12.359   4.676  12.326
64254SOL    HW194601  12.377   4.763  12.292
64254SOL    HW294602  12.435   4.656  12.381
64255SOL     OW94603   3.739   6.051   5.563
64255SOL    HW194604   3.796   6.106   5.616
64255SOL    HW294605   3.702   6.110   5.497
64256SOL     OW94606  14.174  12.779   3.729
64256SOL    HW194607  14.108  12.736   3.675
64256SOL    HW294608  14.223  12.833   3.666
64257SOL     OW94609   4.968  12.636   9.942
64257SOL    HW194610   5.007  12.714   9.902
64257SOL    HW294611   4.880  12.632   9.905
64258SOL     OW94612   9.142  12.947   0.682
64258SOL    HW194613   9.131  13.041   0.669
64258SOL    HW294614   9.069  12.907   0.634
64259SOL     OW94615   9.785  11.925   6.966
64259SOL    HW194616   9.785  11.841   6.921
64259SOL    HW294617   9.732  11.982   6.911
64260SOL     OW94618   9.654   2.326   3.290
64260SOL    HW194619   9.660   2.390   3.361
64260SOL    HW294620   9.572   2.279   3.307
64261SOL     OW94621  10.568   0.860   8.953
64261SOL    HW194622  10.515   0.912   9.014
64261SOL    HW294623  10.658   0.880   8.976
64262SOL     OW94624   8.143   1.973   8.300
64262SOL    HW194625   8.095   1.895   8.326
64262SOL    HW294626   8.153   2.023   8.381
64263SOL     OW94627   3.597  11.102   0.879
64263SOL    HW194628   3.573  11.015   0.909
64263SOL    HW294629   3.641  11.142   0.954
64264SOL     OW94630   7.517   9.412   0.694
64264SOL    HW194631   7.608   9.386   0.683
64264SOL    HW294632   7.518   9.473   0.768
64265SOL     OW94633   0.301   4.261   1.808
64265SOL    HW194634   0.252   4.330   1.854
64265SOL    HW294635   0.296   4.186   1.867
64266SOL     OW94636  11.739   6.462   3.190
64266SOL    HW194637  11.733   6.369   3.215
64266SOL    HW294638  11.796   6.462   3.113
64267SOL     OW94639   5.960   4.710   9.261
64267SOL    HW194640   6.000   4.775   9.204
64267SOL    HW294641   6.013   4.631   9.248
64268SOL     OW94642   3.041   0.101  10.557
64268SOL    HW194643   2.955   0.111  10.518
64268SOL    HW294644   3.064   0.009  10.540
64269SOL     OW94645  13.582   0.065   8.578
64269SOL    HW194646  13.531  14.864   8.600
64269SOL    HW294647  13.529   0.138   8.609
64270SOL     OW94648   6.499  14.455   9.804
64270SOL    HW194649   6.432  14.396   9.768
64270SOL    HW294650   6.532  14.409   9.881
64271SOL     OW94651   4.359   5.976   4.179
64271SOL    HW194652   4.421   5.921   4.227
64271SOL    HW294653   4.288   5.917   4.155
64272SOL     OW94654  13.633  12.308   4.025
64272SOL    HW194655  13.638  12.213   4.019
64272SOL    HW294656  13.595  12.324   4.111
64273SOL     OW94657  12.777   0.728  13.731
64273SOL    HW194658  12.776   0.818  13.698
64273SOL    HW294659  12.686   0.701  13.730
64274SOL     OW94660  11.254   6.210   4.450
64274SOL    HW194661  11.285   6.261   4.524
64274SOL    HW294662  11.328   6.154   4.425
64275SOL     OW94663   6.571  14.677   5.612
64275SOL    HW194664   6.517  14.620   5.558
64275SOL    HW294665   6.616  14.734   5.550
64276SOL     OW94666   7.642   1.145  14.668
64276SOL    HW194667   7.587   1.072  14.697
64276SOL    HW294668   7.650   1.134  14.574
64277SOL     OW94669  14.053  14.363  10.793
64277SOL    HW194670  14.078  14.303  10.723
64277SOL    HW294671  14.129  14.419  10.806
64278SOL     OW94672   5.980  10.873   6.095
64278SOL    HW194673   6.012  10.870   6.005
64278SOL    HW294674   5.892  10.836   6.090
64279SOL     OW94675  12.562   4.388  14.418
64279SOL    HW194676  12.489   4.334  14.450
64279SOL    HW294677  12.615   4.327  14.367
64280SOL     OW94678  14.787  10.037   8.402
64280SOL    HW194679  14.762   9.974   8.334
64280SOL    HW294680  14.821   9.982   8.473
64281SOL     OW94681   8.933   0.396  10.852
64281SOL    HW194682   8.979   0.359  10.927
64281SOL    HW294683   8.962   0.343  10.778
64282SOL     OW94684  13.732  14.310   8.814
64282SOL    HW194685  13.819  14.288   8.848
64282SOL    HW294686  13.698  14.375   8.876
64283SOL     OW94687   4.637  12.822   4.476
64283SOL    HW194688   4.731  12.813   4.457
64283SOL    HW294689   4.600  12.860   4.396
64284SOL     OW94690  13.221   3.552  14.039
64284SOL    HW194691  13.247   3.600  13.960
64284SOL    HW294692  13.299   3.554  14.095
64285SOL     OW94693   8.556   2.880  14.458
64285SOL    HW194694   8.597   2.856  14.375
64285SOL    HW294695   8.475   2.925  14.433
64286SOL     OW94696   9.574  10.143   7.585
64286SOL    HW194697   9.653  10.088   7.586
64286SOL    HW294698   9.607  10.232   7.599
64287SOL     OW94699  11.549   8.472  12.431
64287SOL    HW194700  11.561   8.445  12.339
64287SOL    HW294701  11.529   8.565  12.426
64288SOL     OW94702  10.014   8.489   9.681
64288SOL    HW194703  10.004   8.582   9.662
64288SOL    HW294704  10.107   8.472   9.668
64289SOL     OW94705   8.038   8.751   5.727
64289SOL    HW194706   7.984   8.703   5.665
64289SOL    HW294707   8.111   8.691   5.746
64290SOL     OW94708   7.987   3.526  11.379
64290SOL    HW194709   8.066   3.473  11.393
64290SOL    HW294710   8.017   3.599  11.326
64291SOL     OW94711   6.612  11.664   6.665
64291SOL    HW194712   6.616  11.644   6.759
64291SOL    HW294713   6.698  11.641   6.632
64292SOL     OW94714  14.058  12.161   1.841
64292SOL    HW194715  13.969  12.128   1.825
64292SOL    HW294716  14.062  12.173   1.935
64293SOL     OW94717   0.471  10.641   1.682
64293SOL    HW194718   0.564  10.665   1.681
64293SOL    HW294719   0.470  10.546   1.691
64294SOL     OW94720   7.781   2.362  12.612
64294SOL    HW194721   7.694   2.394  12.589
64294SOL    HW294722   7.770   2.268  12.623
64295SOL     OW94723   9.811   9.467   6.517
64295SOL    HW194724   9.728   9.442   6.557
64295SOL    HW294725   9.786   9.531   6.450
64296SOL     OW94726  12.247   7.545  10.872
64296SOL    HW194727  12.318   7.482  10.864
64296SOL    HW294728  12.169   7.498  10.845
64297SOL     OW94729   7.897   0.479   3.899
64297SOL    HW194730   7.848   0.428   3.965
64297SOL    HW294731   7.849   0.464   3.818
64298SOL     OW94732   9.996   5.809  14.516
64298SOL    HW194733   9.945   5.757  14.454
64298SOL    HW294734  10.082   5.766  14.517
64299SOL     OW94735   5.652   8.826   7.311
64299SOL    HW194736   5.676   8.870   7.392
64299SOL    HW294737   5.598   8.752   7.338
64300SOL     OW94738   0.658   5.523  14.147
64300SOL    HW194739   0.707   5.441  14.158
64300SOL    HW294740   0.722   5.585  14.114
64301SOL     OW94741   1.413  11.260   8.258
64301SOL    HW194742   1.369  11.325   8.202
64301SOL    HW294743   1.358  11.255   8.336
64302SOL     OW94744   7.753   1.373  14.457
64302SOL    HW194745   7.753   1.434  14.383
64302SOL    HW294746   7.707   1.296  14.425
64303SOL     OW94747   4.855   2.568   9.321
64303SOL    HW194748   4.900   2.653   9.311
64303SOL    HW294749   4.816   2.572   9.408
64304SOL     OW94750   3.678  13.862   9.009
64304SOL    HW194751   3.595  13.907   8.993
64304SOL    HW294752   3.744  13.931   9.006
64305SOL     OW94753  12.278   0.321  11.078
64305SOL    HW194754  12.210   0.272  11.124
64305SOL    HW294755  12.360   0.286  11.113
64306SOL     OW94756   4.950   9.546   0.817
64306SOL    HW194757   5.036   9.521   0.783
64306SOL    HW294758   4.895   9.555   0.739
64307SOL     OW94759   6.852   3.956   6.787
64307SOL    HW194760   6.908   3.899   6.839
64307SOL    HW294761   6.782   3.898   6.756
64308SOL     OW94762   3.309  11.182  10.691
64308SOL    HW194763   3.305  11.122  10.765
64308SOL    HW294764   3.252  11.143  10.625
64309SOL     OW94765   3.479   2.298   9.397
64309SOL    HW194766   3.395   2.321   9.437
64309SOL    HW294767   3.457   2.234   9.330
64310SOL     OW94768   3.723  11.670   6.744
64310SOL    HW194769   3.783  11.613   6.792
64310SOL    HW294770   3.694  11.616   6.670
64311SOL     OW94771  13.141   1.125  11.398
64311SOL    HW194772  13.194   1.061  11.445
64311SOL    HW294773  13.103   1.076  11.326
64312SOL     OW94774   9.651   8.541   3.495
64312SOL    HW194775   9.654   8.466   3.555
64312SOL    HW294776   9.741   8.551   3.465
64313SOL     OW94777  12.538   1.766  10.477
64313SOL    HW194778  12.519   1.724  10.562
64313SOL    HW294779  12.466   1.738  10.421
64314SOL     OW94780  14.241  11.083  12.000
64314SOL    HW194781  14.199  11.067  12.084
64314SOL    HW294782  14.176  11.130  11.948
64315SOL     OW94783   2.218   5.252   4.832
64315SOL    HW194784   2.247   5.178   4.778
64315SOL    HW294785   2.267   5.241   4.914
64316SOL     OW94786   3.040   2.145   2.895
64316SOL    HW194787   3.050   2.054   2.867
64316SOL    HW294788   2.965   2.177   2.845
64317SOL     OW94789   4.775   0.382   5.544
64317SOL    HW194790   4.826   0.463   5.553
64317SOL    HW294791   4.831   0.323   5.494
64318SOL     OW94792   4.907  14.501   6.887
64318SOL    HW194793   4.976  14.481   6.824
64318SOL    HW294794   4.845  14.428   6.878
64319SOL     OW94795   5.270   0.340  14.025
64319SOL    HW194796   5.323   0.304  14.096
64319SOL    HW294797   5.180   0.314  14.047
64320SOL     OW94798  14.136   1.808  10.251
64320SOL    HW194799  14.168   1.839  10.336
64320SOL    HW294800  14.094   1.885  10.212
64321SOL     OW94801   7.412   9.291   6.794
64321SOL    HW194802   7.425   9.384   6.778
64321SOL    HW294803   7.366   9.288   6.878
64322SOL     OW94804  12.268   4.830   0.389
64322SOL    HW194805  12.261   4.922   0.414
64322SOL    HW294806  12.178   4.804   0.371
64323SOL     OW94807  10.456   6.237   1.251
64323SOL    HW194808  10.519   6.181   1.297
64323SOL    HW294809  10.405   6.177   1.197
64324SOL     OW94810   0.900  10.865  11.048
64324SOL    HW194811   0.867  10.807  10.980
64324SOL    HW294812   0.891  10.815  11.129
64325SOL     OW94813   6.124   6.605   0.486
64325SOL    HW194814   6.135   6.543   0.558
64325SOL    HW294815   6.074   6.677   0.524
64326SOL     OW94816   0.177   8.648  10.580
64326SOL    HW194817   0.215   8.720  10.632
64326SOL    HW294818   0.154   8.582  10.645
64327SOL     OW94819  12.692   5.975  13.801
64327SOL    HW194820  12.730   5.973  13.889
64327SOL    HW294821  12.630   5.903  13.799
64328SOL     OW94822   7.897  12.396   3.037
64328SOL    HW194823   7.967  12.333   3.047
64328SOL    HW294824   7.908  12.432   2.949
64329SOL     OW94825   3.384  12.017  12.587
64329SOL    HW194826   3.468  12.054  12.560
64329SOL    HW294827   3.403  11.971  12.669
64330SOL     OW94828   8.733  10.363   7.165
64330SOL    HW194829   8.708  10.347   7.074
64330SOL    HW294830   8.793  10.438   7.160
64331SOL     OW94831   2.495   5.955  11.275
64331SOL    HW194832   2.434   5.892  11.313
64331SOL    HW294833   2.568   5.903  11.244
64332SOL     OW94834   8.916   0.842   3.137
64332SOL    HW194835   8.927   0.764   3.191
64332SOL    HW294836   8.832   0.828   3.093
64333SOL     OW94837   5.846  12.134   6.367
64333SOL    HW194838   5.826  12.220   6.404
64333SOL    HW294839   5.771  12.115   6.310
64334SOL     OW94840   3.077   0.676   3.152
64334SOL    HW194841   3.170   0.698   3.145
64334SOL    HW294842   3.052   0.706   3.239
64335SOL     OW94843   0.506   1.116   7.661
64335SOL    HW194844   0.484   1.123   7.754
64335SOL    HW294845   0.578   1.179   7.649
64336SOL     OW94846   9.335  14.673   5.678
64336SOL    HW194847   9.300  14.702   5.594
64336SOL    HW294848   9.351  14.754   5.727
64337SOL     OW94849   5.316   4.697   2.112
64337SOL    HW194850   5.233   4.676   2.070
64337SOL    HW294851   5.305   4.667   2.202
64338SOL     OW94852   1.726   9.222  13.933
64338SOL    HW194853   1.820   9.215  13.949
64338SOL    HW294854   1.718   9.284  13.860
64339SOL     OW94855   5.538   4.679  11.363
64339SOL    HW194856   5.627   4.707  11.340
64339SOL    HW294857   5.541   4.583  11.361
64340SOL     OW94858  12.942  12.768   1.128
64340SOL    HW194859  13.011  12.739   1.187
64340SOL    HW294860  12.989  12.802   1.051
64341SOL     OW94861   2.685  12.324  10.546
64341SOL    HW194862   2.608  12.311  10.602
64341SOL    HW294863   2.742  12.383  10.596
64342SOL     OW94864   6.960  11.452   0.945
64342SOL    HW194865   7.034  11.419   0.895
64342SOL    HW294866   6.988  11.449   1.036
64343SOL     OW94867   4.382   1.482   0.143
64343SOL    HW194868   4.299   1.434   0.149
64343SOL    HW294869   4.361   1.570   0.173
64344SOL     OW94870   2.986   2.209   8.740
64344SOL    HW194871   2.945   2.244   8.819
64344SOL    HW294872   2.936   2.129   8.721
64345SOL     OW94873   5.751   8.880   8.630
64345SOL    HW194874   5.838   8.906   8.599
64345SOL    HW294875   5.744   8.788   8.605
64346SOL     OW94876   2.070   9.781   1.928
64346SOL    HW194877   2.137   9.834   1.971
64346SOL    HW294878   1.988   9.810   1.967
64347SOL     OW94879   7.810   7.799   0.247
64347SOL    HW194880   7.777   7.791   0.336
64347SOL    HW294881   7.799   7.712   0.209
64348SOL     OW94882   5.103   0.576   9.703
64348SOL    HW194883   5.170   0.614   9.645
64348SOL    HW294884   5.050   0.650   9.731
64349SOL     OW94885  13.060   1.361   2.862
64349SOL    HW194886  13.036   1.279   2.819
64349SOL    HW294887  12.996   1.425   2.829
64350SOL     OW94888  12.128  13.982   0.479
64350SOL    HW194889  12.159  14.066   0.447
64350SOL    HW294890  12.205  13.925   0.477
64351SOL     OW94891   8.634  12.410   0.301
64351SOL    HW194892   8.654  12.378   0.213
64351SOL    HW294893   8.712  12.458   0.328
64352SOL     OW94894   7.833   2.194   4.624
64352SOL    HW194895   7.902   2.133   4.599
64352SOL    HW294896   7.753   2.158   4.585
64353SOL     OW94897   6.636   9.346  13.165
64353SOL    HW194898   6.632   9.252  13.180
64353SOL    HW294899   6.668   9.354  13.075
64354SOL     OW94900  11.714  13.162   8.571
64354SOL    HW194901  11.770  13.237   8.548
64354SOL    HW294902  11.680  13.132   8.487
64355SOL     OW94903   1.806   1.352   3.107
64355SOL    HW194904   1.794   1.257   3.105
64355SOL    HW294905   1.884   1.365   3.161
64356SOL     OW94906  12.986   9.159   1.801
64356SOL    HW194907  13.004   9.170   1.894
64356SOL    HW294908  12.895   9.189   1.791
64357SOL     OW94909   3.165  12.407   1.171
64357SOL    HW194910   3.154  12.350   1.247
64357SOL    HW294911   3.258  12.431   1.173
64358SOL     OW94912   3.776   9.410   6.287
64358SOL    HW194913   3.856   9.409   6.339
64358SOL    HW294914   3.716   9.467   6.337
64359SOL     OW94915  11.515   7.826   8.345
64359SOL    HW194916  11.497   7.841   8.252
64359SOL    HW294917  11.456   7.755   8.370
64360SOL     OW94918   9.887  11.726   5.395
64360SOL    HW194919   9.957  11.692   5.451
64360SOL    HW294920   9.924  11.721   5.306
64361SOL     OW94921   8.640   8.466  13.353
64361SOL    HW194922   8.572   8.443  13.416
64361SOL    HW294923   8.592   8.491  13.274
64362SOL     OW94924   2.609   8.386   9.753
64362SOL    HW194925   2.564   8.396   9.669
64362SOL    HW294926   2.701   8.405   9.733
64363SOL     OW94927   3.660   4.880  13.453
64363SOL    HW194928   3.639   4.963  13.497
64363SOL    HW294929   3.724   4.904  13.386
64364SOL     OW94930   3.598   9.857   8.711
64364SOL    HW194931   3.565   9.823   8.794
64364SOL    HW294932   3.692   9.866   8.724
64365SOL     OW94933   7.284   9.454  11.548
64365SOL    HW194934   7.264   9.540  11.584
64365SOL    HW294935   7.202   9.424  11.509
64366SOL     OW94936   1.874   4.518   0.167
64366SOL    HW194937   1.943   4.560   0.116
64366SOL    HW294938   1.795   4.569   0.147
64367SOL     OW94939   5.414   2.093   5.650
64367SOL    HW194940   5.384   2.103   5.740
64367SOL    HW294941   5.351   2.142   5.598
64368SOL     OW94942  12.470  11.657   9.968
64368SOL    HW194943  12.420  11.575   9.961
64368SOL    HW294944  12.512  11.652  10.053
64369SOL     OW94945  13.455   3.679   0.693
64369SOL    HW194946  13.494   3.592   0.684
64369SOL    HW294947  13.392   3.669   0.764
64370SOL     OW94948  11.811  13.533  14.346
64370SOL    HW194949  11.800  13.598  14.276
64370SOL    HW294950  11.856  13.460  14.303
64371SOL     OW94951   1.077   4.507   3.042
64371SOL    HW194952   1.075   4.556   2.959
64371SOL    HW294953   1.123   4.564   3.103
64372SOL     OW94954   9.740   2.470  14.853
64372SOL    HW194955   9.831   2.494  14.874
64372SOL    HW294956   9.747   2.382  14.817
64373SOL     OW94957   4.880   9.194   1.177
64373SOL    HW194958   4.820   9.122   1.156
64373SOL    HW294959   4.857   9.220   1.266
64374SOL     OW94960  14.799  12.879   2.481
64374SOL    HW194961  14.725  12.818   2.477
64374SOL    HW294962  14.822  12.883   2.573
64375SOL     OW94963   3.216   3.268  12.174
64375SOL    HW194964   3.231   3.311  12.259
64375SOL    HW294965   3.168   3.189  12.196
64376SOL     OW94966   0.500   9.650  14.850
64376SOL    HW194967   0.595   9.643  14.834
64376SOL    HW294968   0.492   9.647   0.069
64377SOL     OW94969  12.061  11.115   7.621
64377SOL    HW194970  12.043  11.204   7.651
64377SOL    HW294971  12.154  11.101   7.640
64378SOL     OW94972   6.498   0.540  14.536
64378SOL    HW194973   6.437   0.611  14.558
64378SOL    HW294974   6.474   0.514  14.448
64379SOL     OW94975  12.466  14.095   8.786
64379SOL    HW194976  12.371  14.111   8.786
64379SOL    HW294977  12.484  14.058   8.699
64380SOL     OW94978   2.582   7.380   6.959
64380SOL    HW194979   2.541   7.459   6.925
64380SOL    HW294980   2.533   7.360   7.039
64381SOL     OW94981   5.542   7.998   2.981
64381SOL    HW194982   5.462   8.033   3.021
64381SOL    HW294983   5.566   7.924   3.037
64382SOL     OW94984   0.439   1.696   6.100
64382SOL    HW194985   0.470   1.712   6.011
64382SOL    HW294986   0.445   1.601   6.111
64383SOL     OW94987   9.741   6.660   0.722
64383SOL    HW194988   9.750   6.699   0.634
64383SOL    HW294989   9.680   6.718   0.767
64384SOL     OW94990  11.475   2.491   8.658
64384SOL    HW194991  11.470   2.495   8.754
64384SOL    HW294992  11.430   2.409   8.636
64385SOL     OW94993   4.139   3.068  11.577
64385SOL    HW194994   4.201   3.112  11.635
64385SOL    HW294995   4.167   2.977  11.575
64386SOL     OW94996   2.884   9.146   3.095
64386SOL    HW194997   2.880   9.237   3.123
64386SOL    HW294998   2.866   9.096   3.175
64387SOL     OW94999   8.053  14.730   7.530
64387SOL    HW195000   8.024  14.817   7.504
64387SOL    HW295001   7.984  14.671   7.498
64388SOL     OW95002  14.407   5.771   1.324
64388SOL    HW195003  14.383   5.679   1.327
64388SOL    HW295004  14.343   5.811   1.265
64389SOL     OW95005  11.376   7.820   4.240
64389SOL    HW195006  11.348   7.870   4.317
64389SOL    HW295007  11.306   7.756   4.228
64390SOL     OW95008  12.656   5.070   6.985
64390SOL    HW195009  12.584   5.008   6.997
64390SOL    HW295010  12.666   5.112   7.070
64391SOL     OW95011   0.198   0.053   1.511
64391SOL    HW195012   0.243   0.084   1.590
64391SOL    HW295013   0.108   0.037   1.540
64392SOL     OW95014  11.026  11.756  13.049
64392SOL    HW195015  11.076  11.675  13.055
64392SOL    HW295016  10.942  11.731  13.011
64393SOL     OW95017   6.692   4.928   5.347
64393SOL    HW195018   6.773   4.915   5.297
64393SOL    HW295019   6.624   4.937   5.280
64394SOL     OW95020   3.485   4.862   0.451
64394SOL    HW195021   3.498   4.917   0.374
64394SOL    HW295022   3.564   4.875   0.504
64395SOL     OW95023   9.330   8.230   4.154
64395SOL    HW195024   9.290   8.315   4.176
64395SOL    HW295025   9.392   8.214   4.225
64396SOL     OW95026  12.781  12.919  10.905
64396SOL    HW195027  12.760  12.975  10.980
64396SOL    HW295028  12.825  12.843  10.943
64397SOL     OW95029   7.810  10.846  10.134
64397SOL    HW195030   7.823  10.841  10.039
64397SOL    HW295031   7.791  10.938  10.151
64398SOL     OW95032   4.554   7.212  12.940
64398SOL    HW195033   4.476   7.252  12.900
64398SOL    HW295034   4.625   7.235  12.881
64399SOL     OW95035   7.515   4.721   4.680
64399SOL    HW195036   7.456   4.788   4.713
64399SOL    HW295037   7.514   4.732   4.585
64400SOL     OW95038   0.944   9.651  13.178
64400SOL    HW195039   1.008   9.585  13.153
64400SOL    HW295040   0.973   9.683  13.263
64401SOL     OW95041   4.029  14.614  13.517
64401SOL    HW195042   3.989  14.529  13.535
64401SOL    HW295043   4.123  14.597  13.523
64402SOL     OW95044   1.755   9.492   0.627
64402SOL    HW195045   1.666   9.463   0.604
64402SOL    HW295046   1.748   9.587   0.629
64403SOL     OW95047   0.190  13.701  12.082
64403SOL    HW195048   0.217  13.793  12.086
64403SOL    HW295049   0.106  13.703  12.037
64404SOL     OW95050  12.912  10.517   3.025
64404SOL    HW195051  12.972  10.570   2.972
64404SOL    HW295052  12.848  10.484   2.962
64405SOL     OW95053   5.437  10.783   2.617
64405SOL    HW195054   5.491  10.833   2.678
64405SOL    HW295055   5.495  10.766   2.542
64406SOL     OW95056  11.536   5.118  10.942
64406SOL    HW195057  11.458   5.063  10.935
64406SOL    HW295058  11.507   5.205  10.917
64407SOL     OW95059   6.396  11.450   0.071
64407SOL    HW195060   6.482  11.414   0.048
64407SOL    HW295061   6.376  11.409   0.156
64408SOL     OW95062  13.752   4.554   2.104
64408SOL    HW195063  13.750   4.458   2.115
64408SOL    HW295064  13.744   4.567   2.010
64409SOL     OW95065   8.288   5.210  11.934
64409SOL    HW195066   8.334   5.294  11.924
64409SOL    HW295067   8.232   5.223  12.010
64410SOL     OW95068  14.054   5.524   7.090
64410SOL    HW195069  13.963   5.505   7.113
64410SOL    HW295070  14.099   5.440   7.097
64411SOL     OW95071   5.561   4.532  13.554
64411SOL    HW195072   5.524   4.608  13.508
64411SOL    HW295073   5.655   4.543  13.544
64412SOL     OW95074   2.039   9.014   0.033
64412SOL    HW195075   1.953   8.972   0.025
64412SOL    HW295076   2.020   9.102   0.067
64413SOL     OW95077   9.690   4.057   4.160
64413SOL    HW195078   9.671   3.963   4.159
64413SOL    HW295079   9.779   4.064   4.124
64414SOL     OW95080   9.862  14.410   8.358
64414SOL    HW195081   9.953  14.385   8.367
64414SOL    HW295082   9.824  14.397   8.445
64415SOL     OW95083  13.085   7.220   5.705
64415SOL    HW195084  13.061   7.162   5.778
64415SOL    HW295085  13.173   7.250   5.727
64416SOL     OW95086   9.717   7.332  11.069
64416SOL    HW195087   9.667   7.342  10.989
64416SOL    HW295088   9.683   7.251  11.109
64417SOL     OW95089   5.096   9.786   6.907
64417SOL    HW195090   5.160   9.728   6.863
64417SOL    HW295091   5.112   9.872   6.868
64418SOL     OW95092  10.407   3.528  14.416
64418SOL    HW195093  10.453   3.446  14.431
64418SOL    HW295094  10.461   3.594  14.459
64419SOL     OW95095  11.095   3.535   3.755
64419SOL    HW195096  11.051   3.594   3.816
64419SOL    HW295097  11.034   3.463   3.744
64420SOL     OW95098  11.198  10.160   1.859
64420SOL    HW195099  11.275  10.115   1.825
64420SOL    HW295100  11.206  10.153   1.954
64421SOL     OW95101  11.838   1.279   2.593
64421SOL    HW195102  11.794   1.311   2.671
64421SOL    HW295103  11.838   1.354   2.533
64422SOL     OW95104  10.919   5.961   1.696
64422SOL    HW195105  10.961   5.898   1.755
64422SOL    HW295106  10.827   5.962   1.724
64423SOL     OW95107   8.372  10.441   3.188
64423SOL    HW195108   8.284  10.412   3.162
64423SOL    HW295109   8.423  10.361   3.193
64424SOL     OW95110   9.568   2.092   2.352
64424SOL    HW195111   9.533   2.079   2.440
64424SOL    HW295112   9.636   2.158   2.362
64425SOL     OW95113   8.836  10.723   1.650
64425SOL    HW195114   8.904  10.766   1.599
64425SOL    HW295115   8.758  10.729   1.595
64426SOL     OW95116   6.052  13.984   3.097
64426SOL    HW195117   6.067  14.078   3.090
64426SOL    HW295118   5.957  13.976   3.109
64427SOL     OW95119   1.062   9.566  14.614
64427SOL    HW195120   1.150   9.582  14.646
64427SOL    HW295121   1.032   9.490  14.664
64428SOL     OW95122   4.843   9.856   8.773
64428SOL    HW195123   4.794   9.798   8.831
64428SOL    HW295124   4.777   9.901   8.721
64429SOL     OW95125   3.248  13.236   8.684
64429SOL    HW195126   3.199  13.162   8.650
64429SOL    HW295127   3.261  13.293   8.608
64430SOL     OW95128   4.924  12.949   0.609
64430SOL    HW195129   4.996  12.985   0.662
64430SOL    HW295130   4.957  12.949   0.520
64431SOL     OW95131   2.360   1.270  14.360
64431SOL    HW195132   2.275   1.309  14.337
64431SOL    HW295133   2.339   1.182  14.391
64432SOL     OW95134   7.425   2.153  11.228
64432SOL    HW195135   7.475   2.093  11.283
64432SOL    HW295136   7.347   2.174  11.280
64433SOL     OW95137   0.510   3.523   5.333
64433SOL    HW195138   0.523   3.433   5.361
64433SOL    HW295139   0.508   3.574   5.414
64434SOL     OW95140  10.619  10.432   0.109
64434SOL    HW195141  10.679  10.502   0.132
64434SOL    HW295142  10.625  10.371   0.183
64435SOL     OW95143  11.893   0.043   9.589
64435SOL    HW195144  11.864  14.861   9.519
64435SOL    HW295145  11.815   0.091   9.615
64436SOL     OW95146  14.875   3.089   4.869
64436SOL    HW195147  14.800   3.109   4.925
64436SOL    HW295148   0.050   3.170   4.868
64437SOL     OW95149   4.215   1.044   5.695
64437SOL    HW195150   4.195   1.083   5.610
64437SOL    HW295151   4.283   0.980   5.676
64438SOL     OW95152   9.127   2.019   9.353
64438SOL    HW195153   9.105   2.040   9.262
64438SOL    HW295154   9.050   1.973   9.386
64439SOL     OW95155   2.752   5.085  10.125
64439SOL    HW195156   2.667   5.045  10.145
64439SOL    HW295157   2.732   5.157  10.065
64440SOL     OW95158   3.056  14.671  10.221
64440SOL    HW195159   3.097  14.653  10.137
64440SOL    HW295160   2.999  14.746  10.205
64441SOL     OW95161  11.533   8.175   2.370
64441SOL    HW195162  11.470   8.135   2.429
64441SOL    HW295163  11.513   8.268   2.373
64442SOL     OW95164   0.694  11.196  13.094
64442SOL    HW195165   0.732  11.252  13.026
64442SOL    HW295166   0.688  11.110  13.054
64443SOL     OW95167  10.937   8.026   7.286
64443SOL    HW195168  10.853   8.051   7.247
64443SOL    HW295169  10.991   8.105   7.278
64444SOL     OW95170   2.720   1.712   1.714
64444SOL    HW195171   2.760   1.794   1.685
64444SOL    HW295172   2.738   1.709   1.808
64445SOL     OW95173  13.711   4.001   8.041
64445SOL    HW195174  13.728   4.064   7.970
64445SOL    HW295175  13.710   4.054   8.120
64446SOL     OW95176   9.345   0.981   1.986
64446SOL    HW195177   9.280   1.051   1.982
64446SOL    HW295178   9.405   1.007   2.056
64447SOL     OW95179  12.246  14.287  10.582
64447SOL    HW195180  12.236  14.192  10.590
64447SOL    HW295181  12.296  14.299  10.502
64448SOL     OW95182   9.990  10.506  14.422
64448SOL    HW195183   9.988  10.525  14.516
64448SOL    HW295184   9.958  10.586  14.380
64449SOL     OW95185   1.261   8.316  14.325
64449SOL    HW195186   1.237   8.248  14.388
64449SOL    HW295187   1.340   8.284  14.282
64450SOL     OW95188   5.036  11.404  12.676
64450SOL    HW195189   4.950  11.373  12.702
64450SOL    HW295190   5.096  11.336  12.706
64451SOL     OW95191   3.811  10.477   3.340
64451SOL    HW195192   3.729  10.478   3.292
64451SOL    HW295193   3.830  10.384   3.354
64452SOL     OW95194  10.920   1.564  12.627
64452SOL    HW195195  10.838   1.575  12.675
64452SOL    HW295196  10.968   1.645  12.641
64453SOL     OW95197   8.423   5.739   9.805
64453SOL    HW195198   8.478   5.661   9.794
64453SOL    HW295199   8.359   5.733   9.734
64454SOL     OW95200  10.613   5.820   0.578
64454SOL    HW195201  10.518   5.834   0.570
64454SOL    HW295202  10.633   5.752   0.514
64455SOL     OW95203   4.782   4.676   3.475
64455SOL    HW195204   4.844   4.621   3.428
64455SOL    HW295205   4.835   4.723   3.539
64456SOL     OW95206   7.815   8.845   3.797
64456SOL    HW195207   7.772   8.837   3.712
64456SOL    HW295208   7.822   8.755   3.829
64457SOL     OW95209  11.262   3.265  10.665
64457SOL    HW195210  11.357   3.270  10.651
64457SOL    HW295211  11.250   3.183  10.713
64458SOL     OW95212   8.879  10.618  14.310
64458SOL    HW195213   8.805  10.679  14.319
64458SOL    HW295214   8.906  10.600  14.400
64459SOL     OW95215   5.701   0.541   9.095
64459SOL    HW195216   5.628   0.545   9.034
64459SOL    HW295217   5.755   0.617   9.073
64460SOL     OW95218  12.919  14.239  11.956
64460SOL    HW195219  12.895  14.192  11.876
64460SOL    HW295220  12.854  14.211  12.021
64461SOL     OW95221  14.050   5.112   4.850
64461SOL    HW195222  14.116   5.050   4.820
64461SOL    HW295223  13.973   5.092   4.798
64462SOL     OW95224   8.961   8.008   9.482
64462SOL    HW195225   8.964   7.915   9.506
64462SOL    HW295226   8.941   8.053   9.564
64463SOL     OW95227   3.509  12.496   2.283
64463SOL    HW195228   3.444  12.439   2.326
64463SOL    HW295229   3.584  12.496   2.343
64464SOL     OW95230   9.215   1.334   9.159
64464SOL    HW195231   9.171   1.309   9.078
64464SOL    HW295232   9.307   1.312   9.143
64465SOL     OW95233   3.725   9.797   9.152
64465SOL    HW195234   3.758   9.727   9.095
64465SOL    HW295235   3.635   9.771   9.173
64466SOL     OW95236  13.777  12.002   0.164
64466SOL    HW195237  13.703  12.063   0.163
64466SOL    HW295238  13.741  11.923   0.206
64467SOL     OW95239   5.945   8.093   4.777
64467SOL    HW195240   5.954   8.188   4.768
64467SOL    HW295241   6.024   8.058   4.735
64468SOL     OW95242  13.564   5.232  10.104
64468SOL    HW195243  13.549   5.161  10.167
64468SOL    HW295244  13.477   5.272  10.092
64469SOL     OW95245   9.563  13.193   1.958
64469SOL    HW195246   9.614  13.129   2.008
64469SOL    HW295247   9.517  13.245   2.024
64470SOL     OW95248  13.090   8.719  13.921
64470SOL    HW195249  13.073   8.626  13.936
64470SOL    HW295250  13.022   8.746  13.860
64471SOL     OW95251   2.214   8.374   9.752
64471SOL    HW195252   2.122   8.381   9.779
64471SOL    HW295253   2.262   8.363   9.834
64472SOL     OW95254   0.974   1.572   6.962
64472SOL    HW195255   0.997   1.631   7.033
64472SOL    HW295256   0.929   1.499   7.005
64473SOL     OW95257  12.455   8.934  12.882
64473SOL    HW195258  12.542   8.916  12.845
64473SOL    HW295259  12.414   8.848  12.891
64474SOL     OW95260   7.465   5.529  12.967
64474SOL    HW195261   7.469   5.470  12.892
64474SOL    HW295262   7.556   5.550  12.986
64475SOL     OW95263  14.595   7.747   6.562
64475SOL    HW195264  14.613   7.683   6.631
64475SOL    HW295265  14.666   7.811   6.571
64476SOL     OW95266   9.935   4.747   0.650
64476SOL    HW195267   9.866   4.783   0.706
64476SOL    HW295268   9.912   4.654   0.642
64477SOL     OW95269  12.797  11.917   7.021
64477SOL    HW195270  12.876  11.899   6.969
64477SOL    HW295271  12.828  11.919   7.112
64478SOL     OW95272   4.153  10.477   1.664
64478SOL    HW195273   4.226  10.479   1.727
64478SOL    HW295274   4.098  10.405   1.694
64479SOL     OW95275   2.773   7.681   5.190
64479SOL    HW195276   2.714   7.637   5.252
64479SOL    HW295277   2.714   7.725   5.129
64480SOL     OW95278   6.696  11.120   1.805
64480SOL    HW195279   6.715  11.054   1.872
64480SOL    HW295280   6.615  11.090   1.765
64481SOL     OW95281   2.344   3.796   5.737
64481SOL    HW195282   2.295   3.839   5.667
64481SOL    HW295283   2.279   3.785   5.807
64482SOL     OW95284   5.010  10.391  11.034
64482SOL    HW195285   5.067  10.330  11.081
64482SOL    HW295286   4.961  10.436  11.102
64483SOL     OW95287  10.017   6.475  10.222
64483SOL    HW195288  10.000   6.535  10.149
64483SOL    HW295289  10.072   6.525  10.282
64484SOL     OW95290  10.962   0.293  14.469
64484SOL    HW195291  11.006   0.373  14.497
64484SOL    HW295292  10.869   0.314  14.475
64485SOL     OW95293  13.234   7.148   6.184
64485SOL    HW195294  13.211   7.203   6.259
64485SOL    HW295295  13.293   7.202   6.132
64486SOL     OW95296  10.930  11.424   7.034
64486SOL    HW195297  10.863  11.394   6.973
64486SOL    HW295298  10.980  11.489   6.985
64487SOL     OW95299   7.861   4.640   8.073
64487SOL    HW195300   7.869   4.716   8.015
64487SOL    HW295301   7.770   4.612   8.064
64488SOL     OW95302   3.701   8.196   5.327
64488SOL    HW195303   3.750   8.257   5.271
64488SOL    HW295304   3.629   8.166   5.272
64489SOL     OW95305   4.738   2.323  13.050
64489SOL    HW195306   4.673   2.276  13.101
64489SOL    HW295307   4.712   2.415  13.057
64490SOL     OW95308  12.887   2.677  10.777
64490SOL    HW195309  12.901   2.586  10.804
64490SOL    HW295310  12.932   2.729  10.843
64491SOL     OW95311  14.831   0.450  13.501
64491SOL    HW195312  14.795   0.372  13.457
64491SOL    HW295313  14.787   0.524  13.460
64492SOL     OW95314   0.093   4.102   0.896
64492SOL    HW195315   0.113   4.013   0.925
64492SOL    HW295316   0.008   4.121   0.934
64493SOL     OW95317   3.732  11.903   3.452
64493SOL    HW195318   3.827  11.903   3.458
64493SOL    HW295319   3.707  11.811   3.454
64494SOL     OW95320   4.233  12.317   9.119
64494SOL    HW195321   4.311  12.267   9.095
64494SOL    HW295322   4.162  12.253   9.116
64495SOL     OW95323   8.150   3.978  12.146
64495SOL    HW195324   8.110   4.059  12.113
64495SOL    HW295325   8.236   3.976  12.105
64496SOL     OW95326  12.335  11.248   9.189
64496SOL    HW195327  12.380  11.239   9.105
64496SOL    HW295328  12.403  11.275   9.250
64497SOL     OW95329   5.038   9.885   6.455
64497SOL    HW195330   5.078   9.960   6.501
64497SOL    HW295331   5.022   9.821   6.525
64498SOL     OW95332  10.385   4.981   4.939
64498SOL    HW195333  10.308   5.005   4.990
64498SOL    HW295334  10.354   4.912   4.880
64499SOL     OW95335   2.057  11.607   3.561
64499SOL    HW195336   2.115  11.653   3.622
64499SOL    HW295337   2.114  11.547   3.514
64500SOL     OW95338  11.568   8.074  11.904
64500SOL    HW195339  11.540   7.988  11.937
64500SOL    HW295340  11.663   8.074  11.916
64501SOL     OW95341  13.695  13.629  12.146
64501SOL    HW195342  13.790  13.624  12.146
64501SOL    HW295343  13.669  13.598  12.233
64502SOL     OW95344  13.920  14.749  11.875
64502SOL    HW195345  13.885  14.832  11.842
64502SOL    HW295346  13.885  14.683  11.815
64503SOL     OW95347  14.337   4.603   6.077
64503SOL    HW195348  14.344   4.662   6.152
64503SOL    HW295349  14.288   4.528   6.110
64504SOL     OW95350  10.674  10.210   5.418
64504SOL    HW195351  10.725  10.227   5.497
64504SOL    HW295352  10.681  10.291   5.367
64505SOL     OW95353   2.461   8.929  13.670
64505SOL    HW195354   2.412   8.973  13.739
64505SOL    HW295355   2.501   8.853  13.714
64506SOL     OW95356   6.997   4.394   4.289
64506SOL    HW195357   7.057   4.396   4.214
64506SOL    HW295358   7.046   4.350   4.358
64507SOL     OW95359  11.559   8.760   3.619
64507SOL    HW195360  11.554   8.669   3.591
64507SOL    HW295361  11.648   8.787   3.596
64508SOL     OW95362   6.985  11.204   8.844
64508SOL    HW195363   6.912  11.256   8.878
64508SOL    HW295364   7.019  11.158   8.921
64509SOL     OW95365   1.883  11.547   6.313
64509SOL    HW195366   1.971  11.584   6.318
64509SOL    HW295367   1.860  11.528   6.404
64510SOL     OW95368  10.478   8.746   6.769
64510SOL    HW195369  10.566   8.781   6.757
64510SOL    HW295370  10.450   8.720   6.682
64511SOL     OW95371   5.147   2.244  11.312
64511SOL    HW195372   5.148   2.161  11.264
64511SOL    HW295373   5.204   2.228  11.387
64512SOL     OW95374  11.192   1.931  12.878
64512SOL    HW195375  11.236   2.014  12.864
64512SOL    HW295376  11.173   1.929  12.972
64513SOL     OW95377   6.994   5.759   1.696
64513SOL    HW195378   6.994   5.851   1.671
64513SOL    HW295379   7.064   5.720   1.643
64514SOL     OW95380   0.418  10.444   1.938
64514SOL    HW195381   0.480  10.389   1.986
64514SOL    HW295382   0.396  10.393   1.860
64515SOL     OW95383   0.086  13.351   3.674
64515SOL    HW195384   0.080  13.296   3.753
64515SOL    HW295385  14.874  13.351   3.638
64516SOL     OW95386   3.901   7.699  10.077
64516SOL    HW195387   3.990   7.670  10.056
64516SOL    HW295388   3.864   7.727   9.993
64517SOL     OW95389   3.851   8.694   8.750
64517SOL    HW195390   3.891   8.739   8.675
64517SOL    HW295391   3.823   8.610   8.715
64518SOL     OW95392  11.598  12.021   6.575
64518SOL    HW195393  11.554  11.936   6.573
64518SOL    HW295394  11.528  12.083   6.594
64519SOL     OW95395   5.933   3.205  10.037
64519SOL    HW195396   5.956   3.113  10.046
64519SOL    HW295397   5.856   3.216  10.094
64520SOL     OW95398   4.870   1.116   1.516
64520SOL    HW195399   4.874   1.043   1.577
64520SOL    HW295400   4.888   1.077   1.431
64521SOL     OW95401  10.463   8.101  11.588
64521SOL    HW195402  10.429   8.187  11.564
64521SOL    HW295403  10.393   8.061  11.641
64522SOL     OW95404   8.104   6.757  13.063
64522SOL    HW195405   8.039   6.825  13.048
64522SOL    HW295406   8.169   6.798  13.121
64523SOL     OW95407   8.712   3.181   9.513
64523SOL    HW195408   8.763   3.262   9.510
64523SOL    HW295409   8.657   3.184   9.435
64524SOL     OW95410   8.106   6.301   0.299
64524SOL    HW195411   8.181   6.359   0.305
64524SOL    HW295412   8.137   6.227   0.247
64525SOL     OW95413   9.096   3.907  10.280
64525SOL    HW195414   9.100   3.816  10.306
64525SOL    HW295415   9.015   3.913  10.228
64526SOL     OW95416   4.784   7.214  11.611
64526SOL    HW195417   4.749   7.292  11.656
64526SOL    HW295418   4.743   7.216  11.525
64527SOL     OW95419  13.639   9.160  12.928
64527SOL    HW195420  13.730   9.171  12.956
64527SOL    HW295421  13.589   9.221  12.983
64528SOL     OW95422  14.276  13.206  14.758
64528SOL    HW195423  14.190  13.167  14.742
64528SOL    HW295424  14.331  13.174  14.686
64529SOL     OW95425   0.026   3.795   0.455
64529SOL    HW195426   0.042   3.703   0.476
64529SOL    HW295427   0.112   3.829   0.429
64530SOL     OW95428  10.712   1.510   0.477
64530SOL    HW195429  10.726   1.418   0.499
64530SOL    HW295430  10.780   1.530   0.413
64531SOL     OW95431   0.656   0.522  14.010
64531SOL    HW195432   0.653   0.487  13.921
64531SOL    HW295433   0.572   0.565  14.022
64532SOL     OW95434  10.000   5.385  13.671
64532SOL    HW195435  10.012   5.475  13.702
64532SOL    HW295436  10.039   5.331  13.740
64533SOL     OW95437   0.512   6.312   3.628
64533SOL    HW195438   0.452   6.274   3.693
64533SOL    HW295439   0.516   6.247   3.558
64534SOL     OW95440   3.490   5.743  12.746
64534SOL    HW195441   3.417   5.712  12.693
64534SOL    HW295442   3.559   5.763  12.682
64535SOL     OW95443  10.248   4.620   6.599
64535SOL    HW195444  10.219   4.539   6.642
64535SOL    HW295445  10.334   4.638   6.637
64536SOL     OW95446  10.710   9.576   3.856
64536SOL    HW195447  10.637   9.546   3.802
64536SOL    HW295448  10.754   9.496   3.884
64537SOL     OW95449  14.502  11.433   5.057
64537SOL    HW195450  14.544  11.363   5.107
64537SOL    HW295451  14.547  11.513   5.085
64538SOL     OW95452   4.395   5.739   9.076
64538SOL    HW195453   4.475   5.763   9.121
64538SOL    HW295454   4.347   5.685   9.139
64539SOL     OW95455  11.564   7.464   5.215
64539SOL    HW195456  11.552   7.389   5.272
64539SOL    HW295457  11.616   7.526   5.266
64540SOL     OW95458   7.671  11.844   9.075
64540SOL    HW195459   7.715  11.835   9.159
64540SOL    HW295460   7.594  11.899   9.094
64541SOL     OW95461   7.876  13.303   0.237
64541SOL    HW195462   7.794  13.282   0.283
64541SOL    HW295463   7.851  13.303   0.145
64542SOL     OW95464  11.435  14.261   9.133
64542SOL    HW195465  11.444  14.167   9.148
64542SOL    HW295466  11.341  14.274   9.119
64543SOL     OW95467  13.398   7.036  10.171
64543SOL    HW195468  13.434   7.104  10.228
64543SOL    HW295469  13.392   7.077  10.085
64544SOL     OW95470  10.142   1.891   4.974
64544SOL    HW195471  10.105   1.842   4.901
64544SOL    HW295472  10.072   1.895   5.039
64545SOL     OW95473  10.926   3.176   0.617
64545SOL    HW195474  10.850   3.229   0.594
64545SOL    HW295475  10.976   3.168   0.536
64546SOL     OW95476  12.890  12.161   4.176
64546SOL    HW195477  12.816  12.114   4.139
64546SOL    HW295478  12.894  12.243   4.127
64547SOL     OW95479   5.875  10.260   6.992
64547SOL    HW195480   5.814  10.240   7.063
64547SOL    HW295481   5.863  10.354   6.976
64548SOL     OW95482   3.880  10.460   5.356
64548SOL    HW195483   3.841  10.374   5.340
64548SOL    HW295484   3.964  10.440   5.399
64549SOL     OW95485  11.329   6.706  13.775
64549SOL    HW195486  11.419   6.703  13.809
64549SOL    HW295487  11.298   6.616  13.783
64550SOL     OW95488   5.354  13.127   9.664
64550SOL    HW195489   5.342  13.152   9.572
64550SOL    HW295490   5.322  13.037   9.670
64551SOL     OW95491   2.024  11.878   4.751
64551SOL    HW195492   2.075  11.797   4.755
64551SOL    HW295493   1.934  11.851   4.768
64552SOL     OW95494  13.236  14.188  10.924
64552SOL    HW195495  13.193  14.235  10.853
64552SOL    HW295496  13.183  14.110  10.938
64553SOL     OW95497   2.026   8.854   7.381
64553SOL    HW195498   2.009   8.921   7.448
64553SOL    HW295499   2.119   8.834   7.390
64554SOL     OW95500  13.360   0.703   2.654
64554SOL    HW195501  13.419   0.748   2.715
64554SOL    HW295502  13.339   0.768   2.587
64555SOL     OW95503   9.056   7.267  14.650
64555SOL    HW195504   9.070   7.336  14.586
64555SOL    HW295505   8.975   7.224  14.622
64556SOL     OW95506  12.504  10.522   6.761
64556SOL    HW195507  12.456  10.515   6.679
64556SOL    HW295508  12.518  10.432   6.790
64557SOL     OW95509   3.587  13.716   5.985
64557SOL    HW195510   3.558  13.803   5.959
64557SOL    HW295511   3.645  13.731   6.060
64558SOL     OW95512   0.603  12.253   0.967
64558SOL    HW195513   0.597  12.202   1.048
64558SOL    HW295514   0.567  12.195   0.900
64559SOL     OW95515  10.138  12.315   2.153
64559SOL    HW195516  10.175  12.289   2.069
64559SOL    HW295517  10.154  12.240   2.211
64560SOL     OW95518  10.542   0.682   0.432
64560SOL    HW195519  10.600   0.646   0.366
64560SOL    HW295520  10.509   0.605   0.479
64561SOL     OW95521   8.050  12.548   3.196
64561SOL    HW195522   8.031  12.639   3.220
64561SOL    HW295523   7.966  12.514   3.163
64562SOL     OW95524  10.146  13.190   1.054
64562SOL    HW195525  10.122  13.147   0.972
64562SOL    HW295526  10.064  13.195   1.103
64563SOL     OW95527   1.021  10.164  14.356
64563SOL    HW195528   1.008  10.080  14.400
64563SOL    HW295529   1.101  10.152  14.305
64564SOL     OW95530   5.654  13.846   9.544
64564SOL    HW195531   5.651  13.827   9.638
64564SOL    HW295532   5.685  13.765   9.504
64565SOL     OW95533   5.893  11.329   6.044
64565SOL    HW195534   5.823  11.346   6.106
64565SOL    HW295535   5.920  11.416   6.013
64566SOL     OW95536  14.752  13.515  14.565
64566SOL    HW195537  14.684  13.523  14.497
64566SOL    HW295538  14.718  13.449  14.625
64567SOL     OW95539  12.607   1.920   8.363
64567SOL    HW195540  12.514   1.900   8.372
64567SOL    HW295541  12.645   1.897   8.448
64568SOL     OW95542   6.201   0.385   6.803
64568SOL    HW195543   6.168   0.392   6.713
64568SOL    HW295544   6.127   0.410   6.858
64569SOL     OW95545   7.585   7.332  13.979
64569SOL    HW195546   7.670   7.371  13.997
64569SOL    HW295547   7.603   7.258  13.921
64570SOL     OW95548  13.797   5.348   4.799
64570SOL    HW195549  13.875   5.362   4.852
64570SOL    HW295550  13.829   5.311   4.717
64571SOL     OW95551  10.063   7.552  10.084
64571SOL    HW195552  10.131   7.582  10.024
64571SOL    HW295553  10.067   7.613  10.158
64572SOL     OW95554  10.206   0.605   6.438
64572SOL    HW195555  10.200   0.673   6.371
64572SOL    HW295556  10.265   0.642   6.504
64573SOL     OW95557  11.774   6.134   5.275
64573SOL    HW195558  11.809   6.047   5.257
64573SOL    HW295559  11.814   6.159   5.359
64574SOL     OW95560   5.602   8.877  13.637
64574SOL    HW195561   5.604   8.901  13.730
64574SOL    HW295562   5.634   8.787  13.635
64575SOL     OW95563   4.074   2.934  11.316
64575SOL    HW195564   3.985   2.913  11.289
64575SOL    HW295565   4.064   3.004  11.380
64576SOL     OW95566   7.592   4.438  11.137
64576SOL    HW195567   7.508   4.443  11.091
64576SOL    HW295568   7.586   4.357  11.188
64577SOL     OW95569   7.901  13.697   6.107
64577SOL    HW195570   7.809  13.688   6.083
64577SOL    HW295571   7.949  13.655   6.036
64578SOL     OW95572  11.641   0.599   9.714
64578SOL    HW195573  11.595   0.590   9.797
64578SOL    HW295574  11.682   0.685   9.718
64579SOL     OW95575   1.034   9.557  12.748
64579SOL    HW195576   0.943   9.550  12.777
64579SOL    HW295577   1.030   9.609  12.667
64580SOL     OW95578   7.236  12.476   0.514
64580SOL    HW195579   7.210  12.403   0.569
64580SOL    HW295580   7.289  12.532   0.572
64581SOL     OW95581   6.724  12.365   2.740
64581SOL    HW195582   6.782  12.394   2.810
64581SOL    HW295583   6.729  12.270   2.742
64582SOL     OW95584   4.351  12.464   4.495
64582SOL    HW195585   4.295  12.524   4.543
64582SOL    HW295586   4.365  12.506   4.410
64583SOL     OW95587   0.309   6.987   0.587
64583SOL    HW195588   0.394   6.945   0.590
64583SOL    HW295589   0.266   6.961   0.669
64584SOL     OW95590  10.555  10.653   8.404
64584SOL    HW195591  10.534  10.725   8.463
64584SOL    HW295592  10.581  10.581   8.461
64585SOL     OW95593  14.243   0.225   2.270
64585SOL    HW195594  14.312   0.290   2.285
64585SOL    HW295595  14.220   0.235   2.178
64586SOL     OW95596   0.720   5.582   8.303
64586SOL    HW195597   0.676   5.628   8.374
64586SOL    HW295598   0.797   5.543   8.343
64587SOL     OW95599  10.305   6.931  11.019
64587SOL    HW195600  10.252   6.913  10.941
64587SOL    HW295601  10.242   6.953  11.087
64588SOL     OW95602  10.772  14.484   8.916
64588SOL    HW195603  10.846  14.470   8.858
64588SOL    HW295604  10.734  14.397   8.928
64589SOL     OW95605   2.066   2.062   4.467
64589SOL    HW195606   2.007   2.051   4.541
64589SOL    HW295607   2.011   2.096   4.397
64590SOL     OW95608  11.789   3.812   2.573
64590SOL    HW195609  11.831   3.731   2.604
64590SOL    HW295610  11.832   3.881   2.622
64591SOL     OW95611  11.912   6.152   8.703
64591SOL    HW195612  11.889   6.081   8.763
64591SOL    HW295613  11.978   6.202   8.751
64592SOL     OW95614   8.708   5.929   4.282
64592SOL    HW195615   8.671   5.983   4.353
64592SOL    HW295616   8.632   5.882   4.246
64593SOL     OW95617   9.176   1.589   1.610
64593SOL    HW195618   9.218   1.510   1.642
64593SOL    HW295619   9.083   1.578   1.631
64594SOL     OW95620  14.663   1.090   5.401
64594SOL    HW195621  14.726   1.124   5.464
64594SOL    HW295622  14.607   1.165   5.380
64595SOL     OW95623  14.515   6.290   6.387
64595SOL    HW195624  14.454   6.292   6.314
64595SOL    HW295625  14.461   6.273   6.464
64596SOL     OW95626   1.652   4.242   9.360
64596SOL    HW195627   1.557   4.241   9.368
64596SOL    HW295628   1.669   4.207   9.272
64597SOL     OW95629  14.177  11.173   6.977
64597SOL    HW195630  14.204  11.187   7.067
64597SOL    HW295631  14.081  11.178   6.978
64598SOL     OW95632  11.178   8.845  10.081
64598SOL    HW195633  11.222   8.873  10.161
64598SOL    HW295634  11.112   8.782  10.111
64599SOL     OW95635   2.100   9.605  10.438
64599SOL    HW195636   2.040   9.558  10.381
64599SOL    HW295637   2.106   9.551  10.517
64600SOL     OW95638  14.817   7.878   1.153
64600SOL    HW195639  14.834   7.971   1.139
64600SOL    HW295640   0.028   7.839   1.164
64601SOL     OW95641   7.936  12.921   7.996
64601SOL    HW195642   7.896  12.870   8.067
64601SOL    HW295643   7.909  13.011   8.014
64602SOL     OW95644   6.819  14.378   2.465
64602SOL    HW195645   6.749  14.401   2.527
64602SOL    HW295646   6.853  14.294   2.496
64603SOL     OW95647  10.411   9.420   1.133
64603SOL    HW195648  10.335   9.372   1.099
64603SOL    HW295649  10.382   9.457   1.216
64604SOL     OW95650  10.898   5.735   0.919
64604SOL    HW195651  10.809   5.708   0.896
64604SOL    HW295652  10.928   5.788   0.845
64605SOL     OW95653   7.564   4.549   3.516
64605SOL    HW195654   7.567   4.644   3.531
64605SOL    HW295655   7.475   4.524   3.539
64606SOL     OW95656   9.329  13.814   9.605
64606SOL    HW195657   9.274  13.762   9.547
64606SOL    HW295658   9.309  13.782   9.693
64607SOL     OW95659   2.212  11.948   5.133
64607SOL    HW195660   2.163  11.867   5.114
64607SOL    HW295661   2.163  11.989   5.205
64608SOL     OW95662   7.594   7.237   7.766
64608SOL    HW195663   7.507   7.227   7.804
64608SOL    HW295664   7.605   7.332   7.758
64609SOL     OW95665   8.832   8.081   5.400
64609SOL    HW195666   8.804   8.160   5.446
64609SOL    HW295667   8.769   8.071   5.329
64610SOL     OW95668  12.408   8.184  13.244
64610SOL    HW195669  12.340   8.155  13.184
64610SOL    HW295670  12.471   8.229  13.188
64611SOL     OW95671   8.047  12.976  10.104
64611SOL    HW195672   7.973  12.963  10.045
64611SOL    HW295673   8.046  13.070  10.122
64612SOL     OW95674   4.891   8.859   1.203
64612SOL    HW195675   4.973   8.820   1.172
64612SOL    HW295676   4.919   8.924   1.268
64613SOL     OW95677   7.819  10.612   4.453
64613SOL    HW195678   7.834  10.562   4.374
64613SOL    HW295679   7.735  10.656   4.439
64614SOL     OW95680  11.345   5.505   2.335
64614SOL    HW195681  11.367   5.477   2.424
64614SOL    HW295682  11.286   5.437   2.303
64615SOL     OW95683   3.392   6.314   9.016
64615SOL    HW195684   3.393   6.238   8.958
64615SOL    HW295685   3.403   6.389   8.957
64616SOL     OW95686   4.916  12.578   8.111
64616SOL    HW195687   4.990  12.542   8.161
64616SOL    HW295688   4.874  12.501   8.073
64617SOL     OW95689  13.339   6.926   9.419
64617SOL    HW195690  13.414   6.980   9.393
64617SOL    HW295691  13.265   6.963   9.372
64618SOL     OW95692  14.864   7.460   8.696
64618SOL    HW195693  14.860   7.442   8.790
64618SOL    HW295694   0.026   7.547   8.690
64619SOL     OW95695  10.993   9.389   5.544
64619SOL    HW195696  11.003   9.294   5.545
64619SOL    HW295697  10.944   9.409   5.624
64620SOL     OW95698  14.511  12.307   9.354
64620SOL    HW195699  14.588  12.357   9.380
64620SOL    HW295700  14.489  12.255   9.431
64621SOL     OW95701   4.076  10.755  12.583
64621SOL    HW195702   4.152  10.812  12.578
64621SOL    HW295703   4.059  10.730  12.492
64622SOL     OW95704   8.928  11.314  10.561
64622SOL    HW195705   8.933  11.227  10.521
64622SOL    HW295706   9.019  11.335  10.583
64623SOL     OW95707  13.755   4.408   4.464
64623SOL    HW195708  13.796   4.403   4.378
64623SOL    HW295709  13.798   4.483   4.506
64624SOL     OW95710   1.061   7.504   4.094
64624SOL    HW195711   1.029   7.453   4.020
64624SOL    HW295712   0.986   7.508   4.154
64625SOL     OW95713   3.184  10.545   2.740
64625SOL    HW195714   3.219  10.626   2.777
64625SOL    HW295715   3.091  10.562   2.728
64626SOL     OW95716  14.487   5.751   6.749
64626SOL    HW195717  14.514   5.790   6.832
64626SOL    HW295718  14.441   5.822   6.703
64627SOL     OW95719   2.035   5.427  13.903
64627SOL    HW195720   2.117   5.475  13.888
64627SOL    HW295721   2.058   5.359  13.966
64628SOL     OW95722   3.567   0.199   5.964
64628SOL    HW195723   3.583   0.107   5.985
64628SOL    HW295724   3.597   0.208   5.874
64629SOL     OW95725   6.812   3.031   0.042
64629SOL    HW195726   6.905   3.052   0.031
64629SOL    HW295727   6.768   3.082  14.850
64630SOL     OW95728  13.385  10.236  10.602
64630SOL    HW195729  13.436  10.174  10.655
64630SOL    HW295730  13.356  10.302  10.665
64631SOL     OW95731   3.614   1.793  12.244
64631SOL    HW195732   3.538   1.849  12.236
64631SOL    HW295733   3.636   1.795  12.338
64632SOL     OW95734   9.739  14.803   2.738
64632SOL    HW195735   9.654  14.790   2.780
64632SOL    HW295736   9.800  14.819   2.810
64633SOL     OW95737   7.058   2.962  10.031
64633SOL    HW195738   7.047   2.950   9.936
64633SOL    HW295739   7.015   3.045  10.050
64634SOL     OW95740   2.277   6.470   7.537
64634SOL    HW195741   2.326   6.549   7.560
64634SOL    HW295742   2.253   6.483   7.445
64635SOL     OW95743  10.380   9.403   5.348
64635SOL    HW195744  10.371   9.372   5.258
64635SOL    HW295745  10.443   9.343   5.388
64636SOL     OW95746   3.081  11.850   0.046
64636SOL    HW195747   3.173  11.853   0.021
64636SOL    HW295748   3.042  11.927   0.004
64637SOL     OW95749  13.433   7.085   2.828
64637SOL    HW195750  13.369   7.140   2.873
64637SOL    HW295751  13.485   7.045   2.898
64638SOL     OW95752  14.469  14.546   1.220
64638SOL    HW195753  14.499  14.458   1.200
64638SOL    HW295754  14.545  14.602   1.204
64639SOL     OW95755   5.028   2.947  13.863
64639SOL    HW195756   5.099   3.010  13.849
64639SOL    HW295757   5.068   2.876  13.913
64640SOL     OW95758  11.690  14.583  11.915
64640SOL    HW195759  11.687  14.623  12.001
64640SOL    HW295760  11.604  14.601  11.877
64641SOL     OW95761  13.048  10.358   4.619
64641SOL    HW195762  13.021  10.363   4.711
64641SOL    HW295763  13.143  10.369   4.621
64642SOL     OW95764  14.794   5.347   6.198
64642SOL    HW195765  14.850   5.368   6.124
64642SOL    HW295766  14.722   5.410   6.193
64643SOL     OW95767   3.083   0.961   3.618
64643SOL    HW195768   3.051   0.899   3.554
64643SOL    HW295769   3.130   1.026   3.567
64644SOL     OW95770   2.340   7.889  14.321
64644SOL    HW195771   2.384   7.937  14.391
64644SOL    HW295772   2.410   7.841  14.277
64645SOL     OW95773   4.586  10.255  12.555
64645SOL    HW195774   4.533  10.263  12.475
64645SOL    HW295775   4.592  10.161  12.570
64646SOL     OW95776   9.876  10.577   8.320
64646SOL    HW195777   9.900  10.495   8.363
64646SOL    HW295778   9.780  10.579   8.326
64647SOL     OW95779   3.615   8.660   5.387
64647SOL    HW195780   3.648   8.749   5.386
64647SOL    HW295781   3.676   8.611   5.442
64648SOL     OW95782   4.599   4.333   8.495
64648SOL    HW195783   4.582   4.421   8.460
64648SOL    HW295784   4.552   4.274   8.436
64649SOL     OW95785   9.328   8.665   8.484
64649SOL    HW195786   9.380   8.714   8.420
64649SOL    HW295787   9.277   8.733   8.530
64650SOL     OW95788   1.050   0.401   7.474
64650SOL    HW195789   1.070   0.358   7.391
64650SOL    HW295790   1.135   0.428   7.509
64651SOL     OW95791   5.625   0.648   3.339
64651SOL    HW195792   5.602   0.737   3.364
64651SOL    HW295793   5.705   0.657   3.287
64652SOL     OW95794   6.525   7.206   7.922
64652SOL    HW195795   6.446   7.172   7.965
64652SOL    HW295796   6.491   7.258   7.849
64653SOL     OW95797   0.407   7.087   6.254
64653SOL    HW195798   0.485   7.084   6.199
64653SOL    HW295799   0.371   6.998   6.249
64654SOL     OW95800   3.106   8.676  14.248
64654SOL    HW195801   3.087   8.670  14.342
64654SOL    HW295802   3.182   8.734  14.242
64655SOL     OW95803   5.914   0.105   6.869
64655SOL    HW195804   5.943   0.028   6.821
64655SOL    HW295805   5.827   0.083   6.901
64656SOL     OW95806   6.206  13.060   3.767
64656SOL    HW195807   6.171  13.148   3.782
64656SOL    HW295808   6.134  13.002   3.790
64657SOL     OW95809  13.047  10.180  13.848
64657SOL    HW195810  13.121  10.125  13.874
64657SOL    HW295811  13.086  10.255  13.804
64658SOL     OW95812  10.746   6.365   7.830
64658SOL    HW195813  10.677   6.432   7.834
64658SOL    HW295814  10.756   6.347   7.737
64659SOL     OW95815   1.400  14.219   0.048
64659SOL    HW195816   1.382  14.126   0.031
64659SOL    HW295817   1.446  14.250  14.847
64660SOL     OW95818   5.130   9.234  12.246
64660SOL    HW195819   5.133   9.288  12.167
64660SOL    HW295820   5.221   9.207  12.260
64661SOL     OW95821  11.352   7.338   4.513
64661SOL    HW195822  11.351   7.246   4.485
64661SOL    HW295823  11.263   7.355   4.542
64662SOL     OW95824   1.510  13.207   1.813
64662SOL    HW195825   1.600  13.203   1.844
64662SOL    HW295826   1.473  13.121   1.833
64663SOL     OW95827   3.760   4.437   3.135
64663SOL    HW195828   3.841   4.399   3.170
64663SOL    HW295829   3.697   4.365   3.136
64664SOL     OW95830   2.913  12.192   9.922
64664SOL    HW195831   2.968  12.119   9.950
64664SOL    HW295832   2.925  12.259   9.990
64665SOL     OW95833   2.282   7.807  10.360
64665SOL    HW195834   2.277   7.879  10.296
64665SOL    HW295835   2.374   7.783  10.361
64666SOL     OW95836  13.344  10.531   7.698
64666SOL    HW195837  13.255  10.509   7.725
64666SOL    HW295838  13.344  10.518   7.604
64667SOL     OW95839  12.641  13.076  11.465
64667SOL    HW195840  12.653  12.990  11.424
64667SOL    HW295841  12.667  13.139  11.398
64668SOL     OW95842   2.226   1.654  11.141
64668SOL    HW195843   2.307   1.704  11.145
64668SOL    HW295844   2.184   1.668  11.226
64669SOL     OW95845   9.025  12.529   1.263
64669SOL    HW195846   9.115  12.499   1.253
64669SOL    HW295847   9.030  12.624   1.259
64670SOL     OW95848   9.980  10.320   6.235
64670SOL    HW195849  10.076  10.317   6.232
64670SOL    HW295850   9.953  10.228   6.236
64671SOL     OW95851   2.781   2.644   3.344
64671SOL    HW195852   2.698   2.596   3.347
64671SOL    HW295853   2.845   2.579   3.313
64672SOL     OW95854   7.638  13.997  14.223
64672SOL    HW195855   7.578  14.058  14.266
64672SOL    HW295856   7.683  14.051  14.157
64673SOL     OW95857  13.916   8.151   7.934
64673SOL    HW195858  13.852   8.103   7.881
64673SOL    HW295859  13.999   8.140   7.888
64674SOL     OW95860   2.337   8.024   2.055
64674SOL    HW195861   2.423   8.002   2.021
64674SOL    HW295862   2.301   7.940   2.085
64675SOL     OW95863  12.284   5.003  12.946
64675SOL    HW195864  12.353   5.030  12.885
64675SOL    HW295865  12.214   4.970  12.890
64676SOL     OW95866  11.220   8.283   2.902
64676SOL    HW195867  11.241   8.376   2.911
64676SOL    HW295868  11.289   8.249   2.845
64677SOL     OW95869   9.673   3.269   4.630
64677SOL    HW195870   9.741   3.325   4.594
64677SOL    HW295871   9.645   3.314   4.710
64678SOL     OW95872   5.933   8.926  13.072
64678SOL    HW195873   5.910   8.930  12.980
64678SOL    HW295874   5.885   8.998  13.112
64679SOL     OW95875  11.546   3.149   3.064
64679SOL    HW195876  11.501   3.182   2.986
64679SOL    HW295877  11.639   3.150   3.040
64680SOL     OW95878   6.147   6.144  12.573
64680SOL    HW195879   6.079   6.151  12.640
64680SOL    HW295880   6.176   6.235  12.560
64681SOL     OW95881   8.683  13.320   7.064
64681SOL    HW195882   8.659  13.324   7.157
64681SOL    HW295883   8.610  13.275   7.023
64682SOL     OW95884   5.473  12.746   0.895
64682SOL    HW195885   5.444  12.834   0.872
64682SOL    HW295886   5.400  12.709   0.944
64683SOL     OW95887  11.710  12.534   2.364
64683SOL    HW195888  11.759  12.484   2.299
64683SOL    HW295889  11.663  12.467   2.415
64684SOL     OW95890   9.321   7.474  13.571
64684SOL    HW195891   9.387   7.466  13.640
64684SOL    HW295892   9.252   7.413  13.596
64685SOL     OW95893   7.314   3.100   2.490
64685SOL    HW195894   7.272   3.175   2.450
64685SOL    HW295895   7.306   3.030   2.425
64686SOL     OW95896   3.329  11.480   6.263
64686SOL    HW195897   3.277  11.552   6.298
64686SOL    HW295898   3.277  11.446   6.190
64687SOL     OW95899   1.215   8.458  11.650
64687SOL    HW195900   1.232   8.387  11.711
64687SOL    HW295901   1.282   8.448  11.582
64688SOL     OW95902   0.168   5.256  11.020
64688SOL    HW195903   0.128   5.343  11.017
64688SOL    HW295904   0.246   5.263  10.964
64689SOL     OW95905  12.752  14.558   7.331
64689SOL    HW195906  12.765  14.579   7.239
64689SOL    HW295907  12.665  14.591   7.352
64690SOL     OW95908   3.215   2.468  14.841
64690SOL    HW195909   3.207   2.562  14.823
64690SOL    HW295910   3.128   2.443  14.874
64691SOL     OW95911   0.622   6.272   0.510
64691SOL    HW195912   0.653   6.263   0.420
64691SOL    HW295913   0.670   6.205   0.559
64692SOL     OW95914   1.395   5.023   8.408
64692SOL    HW195915   1.355   5.090   8.352
64692SOL    HW295916   1.395   5.062   8.496
64693SOL     OW95917   2.450   2.408  12.092
64693SOL    HW195918   2.535   2.412  12.048
64693SOL    HW295919   2.417   2.497  12.089
64694SOL     OW95920   4.599   9.949  12.043
64694SOL    HW195921   4.535  10.018  12.025
64694SOL    HW295922   4.546   9.870  12.053
64695SOL     OW95923  12.459   2.227   9.070
64695SOL    HW195924  12.444   2.207   9.162
64695SOL    HW295925  12.454   2.323   9.065
64696SOL     OW95926  12.248   2.771   8.876
64696SOL    HW195927  12.265   2.692   8.825
64696SOL    HW295928  12.308   2.836   8.839
64697SOL     OW95929   4.806   9.764  11.439
64697SOL    HW195930   4.762   9.737  11.519
64697SOL    HW295931   4.888   9.803  11.469
64698SOL     OW95932  13.505   2.533  10.576
64698SOL    HW195933  13.433   2.591  10.600
64698SOL    HW295934  13.584   2.579  10.607
64699SOL     OW95935  11.921   6.815   6.203
64699SOL    HW195936  11.881   6.744   6.254
64699SOL    HW295937  11.893   6.895   6.248
64700SOL     OW95938  13.148   3.344   2.131
64700SOL    HW195939  13.111   3.433   2.133
64700SOL    HW295940  13.112   3.306   2.051
64701SOL     OW95941   0.277  10.461  13.045
64701SOL    HW195942   0.333  10.383  13.046
64701SOL    HW295943   0.195  10.433  13.084
64702SOL     OW95944  12.791   8.348   0.614
64702SOL    HW195945  12.789   8.441   0.591
64702SOL    HW295946  12.706   8.332   0.656
64703SOL     OW95947   5.839   8.142   8.198
64703SOL    HW195948   5.783   8.138   8.120
64703SOL    HW295949   5.879   8.229   8.194
64704SOL     OW95950   2.213   9.059   3.957
64704SOL    HW195951   2.225   9.112   3.879
64704SOL    HW295952   2.193   8.971   3.925
64705SOL     OW95953   7.699  13.147   2.608
64705SOL    HW195954   7.659  13.080   2.552
64705SOL    HW295955   7.625  13.202   2.635
64706SOL     OW95956   5.402   4.100  12.014
64706SOL    HW195957   5.414   4.040  12.088
64706SOL    HW295958   5.458   4.065  11.945
64707SOL     OW95959  11.607   1.694   2.803
64707SOL    HW195960  11.541   1.624   2.808
64707SOL    HW295961  11.591   1.734   2.717
64708SOL     OW95962   6.243  10.070   6.925
64708SOL    HW195963   6.260  10.022   6.844
64708SOL    HW295964   6.154  10.045   6.950
64709SOL     OW95965   1.612   5.325   1.609
64709SOL    HW195966   1.668   5.269   1.664
64709SOL    HW295967   1.621   5.412   1.647
64710SOL     OW95968  14.847  14.117   0.149
64710SOL    HW195969  14.755  14.117   0.122
64710SOL    HW295970   0.007  14.196   0.109
64711SOL     OW95971   5.405   1.102   7.931
64711SOL    HW195972   5.446   1.167   7.989
64711SOL    HW295973   5.360   1.042   7.989
64712SOL     OW95974  13.425   3.880  10.572
64712SOL    HW195975  13.517   3.882  10.545
64712SOL    HW295976  13.401   3.972  10.581
64713SOL     OW95977   2.936   9.979  11.284
64713SOL    HW195978   2.913  10.069  11.305
64713SOL    HW295979   2.856   9.942  11.247
64714SOL     OW95980   5.684  13.772   3.485
64714SOL    HW195981   5.654  13.806   3.401
64714SOL    HW295982   5.603  13.751   3.532
64715SOL     OW95983   6.549   2.221   7.506
64715SOL    HW195984   6.471   2.277   7.499
64715SOL    HW295985   6.593   2.230   7.421
64716SOL     OW95986   4.996   3.967   7.824
64716SOL    HW195987   5.000   3.897   7.889
64716SOL    HW295988   5.086   3.979   7.795
64717SOL     OW95989  12.416   7.351   2.911
64717SOL    HW195990  12.394   7.351   2.818
64717SOL    HW295991  12.388   7.265   2.942
64718SOL     OW95992   0.073   1.930   2.364
64718SOL    HW195993   0.057   1.894   2.451
64718SOL    HW295994   0.046   1.861   2.304
64719SOL     OW95995  14.306  13.535   5.855
64719SOL    HW195996  14.331  13.616   5.900
64719SOL    HW295997  14.210  13.536   5.857
64720SOL     OW95998   7.844  11.328   6.023
64720SOL    HW195999   7.859  11.377   6.104
64720SOL    HW296000   7.920  11.271   6.015
64721SOL     OW96001   7.139   1.276  11.568
64721SOL    HW196002   7.074   1.330  11.522
64721SOL    HW296003   7.208   1.338  11.592
64722SOL     OW96004   0.027  12.739   1.046
64722SOL    HW196005   0.101  12.795   1.019
64722SOL    HW296006  14.831  12.767   0.990
64723SOL     OW96007  12.930   1.723   0.831
64723SOL    HW196008  12.984   1.792   0.868
64723SOL    HW296009  12.888   1.763   0.755
64724SOL     OW96010   5.383  11.871   0.196
64724SOL    HW196011   5.312  11.845   0.255
64724SOL    HW296012   5.348  11.946   0.149
64725SOL     OW96013  12.704   9.782   3.021
64725SOL    HW196014  12.788   9.787   3.068
64725SOL    HW296015  12.705   9.697   2.978
64726SOL     OW96016   9.519  10.246  13.690
64726SOL    HW196017   9.578  10.321  13.684
64726SOL    HW296018   9.535  10.196  13.610
64727SOL     OW96019   6.576   9.371  13.731
64727SOL    HW196020   6.568   9.316  13.653
64727SOL    HW296021   6.655   9.338  13.775
64728SOL     OW96022  12.615   3.900  12.020
64728SOL    HW196023  12.609   3.964  11.949
64728SOL    HW296024  12.702   3.914  12.058
64729SOL     OW96025   9.216  11.295   5.802
64729SOL    HW196026   9.133  11.318   5.759
64729SOL    HW296027   9.269  11.258   5.732
64730SOL     OW96028  13.463  11.411  11.592
64730SOL    HW196029  13.428  11.499  11.606
64730SOL    HW296030  13.552  11.425  11.559
64731SOL     OW96031   2.344  11.247   6.661
64731SOL    HW196032   2.422  11.275   6.710
64731SOL    HW296033   2.294  11.194   6.723
64732SOL     OW96034  14.027  12.333   1.608
64732SOL    HW196035  14.045  12.303   1.697
64732SOL    HW296036  14.003  12.254   1.560
64733SOL     OW96037  14.852  12.420  13.078
64733SOL    HW196038  14.762  12.444  13.101
64733SOL    HW296039   0.020  12.504  13.063
64734SOL     OW96040   0.743   4.721  12.118
64734SOL    HW196041   0.690   4.727  12.038
64734SOL    HW296042   0.679   4.715  12.189
64735SOL     OW96043  13.531   5.875   1.889
64735SOL    HW196044  13.506   5.809   1.953
64735SOL    HW296045  13.449   5.904   1.849
64736SOL     OW96046   4.441   4.917   0.567
64736SOL    HW196047   4.421   4.882   0.654
64736SOL    HW296048   4.526   4.879   0.545
64737SOL     OW96049   9.563   3.042   1.073
64737SOL    HW196050   9.627   2.972   1.087
64737SOL    HW296051   9.616   3.117   1.044
64738SOL     OW96052   8.056   4.555   3.071
64738SOL    HW196053   8.121   4.615   3.034
64738SOL    HW296054   8.016   4.514   2.995
64739SOL     OW96055  10.741   0.193   8.290
64739SOL    HW196056  10.830   0.170   8.316
64739SOL    HW296057  10.717   0.129   8.223
64740SOL     OW96058   8.593   9.773  12.567
64740SOL    HW196059   8.667   9.827  12.537
64740SOL    HW296060   8.587   9.792  12.661
64741SOL     OW96061   7.053   1.949   1.042
64741SOL    HW196062   7.075   1.993   0.960
64741SOL    HW296063   7.029   1.860   1.016
64742SOL     OW96064  10.025   6.156  13.824
64742SOL    HW196065  10.031   6.106  13.906
64742SOL    HW296066   9.946   6.210  13.835
64743SOL     OW96067  13.638   5.518   4.066
64743SOL    HW196068  13.546   5.496   4.081
64743SOL    HW296069  13.638   5.571   3.987
64744SOL     OW96070   6.505   2.445  12.169
64744SOL    HW196071   6.598   2.444  12.147
64744SOL    HW296072   6.503   2.438  12.265
64745SOL     OW96073   6.033  14.250   1.184
64745SOL    HW196074   6.009  14.217   1.097
64745SOL    HW296075   6.045  14.172   1.237
64746SOL     OW96076   7.019  12.262   6.533
64746SOL    HW196077   7.096  12.244   6.479
64746SOL    HW296078   6.989  12.176   6.562
64747SOL     OW96079  11.685   4.598   2.486
64747SOL    HW196080  11.765   4.554   2.517
64747SOL    HW296081  11.614   4.543   2.518
64748SOL     OW96082   4.993  11.397   5.157
64748SOL    HW196083   4.991  11.347   5.076
64748SOL    HW296084   4.902  11.422   5.173
64749SOL     OW96085   9.344   6.496   7.170
64749SOL    HW196086   9.374   6.532   7.253
64749SOL    HW296087   9.348   6.401   7.181
64750SOL     OW96088   1.641   9.626   5.548
64750SOL    HW196089   1.682   9.562   5.489
64750SOL    HW296090   1.705   9.697   5.555
64751SOL     OW96091   6.862   4.285   5.538
64751SOL    HW196092   6.787   4.296   5.597
64751SOL    HW296093   6.927   4.348   5.569
64752SOL     OW96094  14.326   1.836   8.620
64752SOL    HW196095  14.331   1.790   8.536
64752SOL    HW296096  14.237   1.820   8.650
64753SOL     OW96097  10.259   3.614  10.756
64753SOL    HW196098  10.309   3.536  10.781
64753SOL    HW296099  10.255   3.666  10.836
64754SOL     OW96100   1.104  10.119   1.663
64754SOL    HW196101   1.144  10.192   1.711
64754SOL    HW296102   1.147  10.041   1.697
64755SOL     OW96103  12.700  11.528  11.442
64755SOL    HW196104  12.736  11.476  11.513
64755SOL    HW296105  12.607  11.539  11.465
64756SOL     OW96106  12.056   2.397  13.929
64756SOL    HW196107  11.983   2.357  13.977
64756SOL    HW296108  12.014   2.441  13.855
64757SOL     OW96109   0.932  11.920   9.018
64757SOL    HW196110   1.026  11.919   9.036
64757SOL    HW296111   0.916  11.838   8.970
64758SOL     OW96112   4.203   8.652   4.761
64758SOL    HW196113   4.217   8.558   4.773
64758SOL    HW296114   4.142   8.658   4.688
64759SOL     OW96115   7.378   2.596   4.583
64759SOL    HW196116   7.303   2.614   4.526
64759SOL    HW296117   7.432   2.675   4.577
64760SOL     OW96118   6.860   2.804  12.430
64760SOL    HW196119   6.853   2.892  12.468
64760SOL    HW296120   6.843   2.745  12.503
64761SOL     OW96121   4.210   2.268   2.369
64761SOL    HW196122   4.217   2.204   2.440
64761SOL    HW296123   4.238   2.350   2.407
64762SOL     OW96124   3.304  14.648   1.361
64762SOL    HW196125   3.358  14.683   1.290
64762SOL    HW296126   3.225  14.702   1.360
64763SOL     OW96127   0.417   1.305  12.626
64763SOL    HW196128   0.328   1.270  12.621
64763SOL    HW296129   0.405   1.398  12.648
64764SOL     OW96130  12.598  14.438   9.428
64764SOL    HW196131  12.633  14.380   9.361
64764SOL    HW296132  12.509  14.407   9.444
64765SOL     OW96133   0.380   5.261   2.779
64765SOL    HW196134   0.402   5.308   2.860
64765SOL    HW296135   0.397   5.324   2.709
64766SOL     OW96136   8.389   0.298   0.963
64766SOL    HW196137   8.362   0.212   0.931
64766SOL    HW296138   8.482   0.304   0.941
64767SOL     OW96139   0.995  10.609  14.197
64767SOL    HW196140   1.064  10.592  14.133
64767SOL    HW296141   0.914  10.599  14.148
64768SOL     OW96142   1.443   1.243   6.183
64768SOL    HW196143   1.523   1.206   6.145
64768SOL    HW296144   1.469   1.270   6.271
64769SOL     OW96145   0.716  14.450  11.345
64769SOL    HW196146   0.673  14.532  11.369
64769SOL    HW296147   0.646  14.397  11.305
64770SOL     OW96148   5.665   6.055   4.580
64770SOL    HW196149   5.596   6.113   4.548
64770SOL    HW296150   5.634   6.029   4.667
64771SOL     OW96151   7.092   9.943   3.439
64771SOL    HW196152   7.087   9.851   3.468
64771SOL    HW296153   7.028   9.988   3.494
64772SOL     OW96154   1.324   4.186  12.173
64772SOL    HW196155   1.289   4.266  12.211
64772SOL    HW296156   1.388   4.155  12.236
64773SOL     OW96157   9.141   9.932  10.597
64773SOL    HW196158   9.155   9.848  10.554
64773SOL    HW296159   9.046   9.942  10.600
64774SOL     OW96160   5.714  12.976   0.654
64774SOL    HW196161   5.780  12.961   0.586
64774SOL    HW296162   5.763  13.017   0.725
64775SOL     OW96163   5.743  12.534   4.893
64775SOL    HW196164   5.824  12.520   4.943
64775SOL    HW296165   5.702  12.610   4.934
64776SOL     OW96166  11.541   4.987  12.352
64776SOL    HW196167  11.568   4.924  12.286
64776SOL    HW296168  11.476   4.941  12.404
64777SOL     OW96169   3.435   5.585  10.073
64777SOL    HW196170   3.519   5.607  10.114
64777SOL    HW296171   3.415   5.497  10.105
64778SOL     OW96172   9.347  13.889   7.490
64778SOL    HW196173   9.306  13.949   7.428
64778SOL    HW296174   9.308  13.912   7.574
64779SOL     OW96175  13.565  11.511  10.606
64779SOL    HW196176  13.648  11.557  10.618
64779SOL    HW296177  13.590  11.419  10.598
64780SOL     OW96178  13.985   1.175   1.258
64780SOL    HW196179  13.979   1.268   1.234
64780SOL    HW296180  13.934   1.168   1.338
64781SOL     OW96181   7.258   6.628  11.963
64781SOL    HW196182   7.284   6.693  12.028
64781SOL    HW296183   7.193   6.574  12.007
64782SOL     OW96184   8.486  13.588  11.315
64782SOL    HW196185   8.562  13.590  11.255
64782SOL    HW296186   8.436  13.512  11.287
64783SOL     OW96187  12.531   0.696   4.026
64783SOL    HW196188  12.492   0.665   4.107
64783SOL    HW296189  12.605   0.638   4.011
64784SOL     OW96190  12.393   3.583   0.671
64784SOL    HW196191  12.472   3.548   0.628
64784SOL    HW296192  12.347   3.505   0.701
64785SOL     OW96193   4.890   8.361   4.586
64785SOL    HW196194   4.906   8.272   4.618
64785SOL    HW296195   4.977   8.391   4.558
64786SOL     OW96196   1.743   1.618  13.441
64786SOL    HW196197   1.724   1.570  13.361
64786SOL    HW296198   1.743   1.710  13.415
64787SOL     OW96199   2.536  13.226   1.652
64787SOL    HW196200   2.618  13.216   1.605
64787SOL    HW296201   2.494  13.140   1.646
64788SOL     OW96202   5.261   2.150  14.626
64788SOL    HW196203   5.355   2.159  14.640
64788SOL    HW296204   5.233   2.238  14.600
64789SOL     OW96205   2.765   9.845   1.118
64789SOL    HW196206   2.768   9.784   1.192
64789SOL    HW296207   2.848   9.832   1.073
64790SOL     OW96208   8.213  11.201   6.980
64790SOL    HW196209   8.132  11.153   6.998
64790SOL    HW296210   8.204  11.229   6.888
64791SOL     OW96211   1.578  12.247   6.054
64791SOL    HW196212   1.655  12.265   5.999
64791SOL    HW296213   1.570  12.151   6.054
64792SOL     OW96214   2.659   4.490   8.411
64792SOL    HW196215   2.726   4.459   8.350
64792SOL    HW296216   2.707   4.529   8.483
64793SOL     OW96217   0.328   9.201  12.806
64793SOL    HW196218   0.346   9.130  12.867
64793SOL    HW296219   0.414   9.226  12.772
64794SOL     OW96220   5.402  12.268   8.540
64794SOL    HW196221   5.485  12.316   8.547
64794SOL    HW296222   5.395  12.219   8.622
64795SOL     OW96223   2.442   7.633  12.630
64795SOL    HW196224   2.471   7.652  12.719
64795SOL    HW296225   2.491   7.555  12.605
64796SOL     OW96226  14.756   9.210   1.581
64796SOL    HW196227  14.795   9.122   1.590
64796SOL    HW296228  14.666   9.193   1.552
64797SOL     OW96229   6.110   2.197   6.087
64797SOL    HW196230   6.170   2.269   6.105
64797SOL    HW296231   6.145   2.156   6.007
64798SOL     OW96232   2.208   0.959   7.081
64798SOL    HW196233   2.255   0.876   7.076
64798SOL    HW296234   2.266   1.022   7.039
64799SOL     OW96235  12.769   2.638  11.427
64799SOL    HW196236  12.699   2.597  11.377
64799SOL    HW296237  12.846   2.583  11.412
64800SOL     OW96238  13.729   8.858   2.860
64800SOL    HW196239  13.694   8.828   2.776
64800SOL    HW296240  13.770   8.941   2.841
64801SOL     OW96241   0.068   9.424   5.606
64801SOL    HW196242   0.085   9.441   5.513
64801SOL    HW296243   0.117   9.343   5.624
64802SOL     OW96244   7.630   2.877  12.362
64802SOL    HW196245   7.681   2.808  12.402
64802SOL    HW296246   7.679   2.900  12.282
64803SOL     OW96247  10.847  11.859   3.744
64803SOL    HW196248  10.864  11.787   3.683
64803SOL    HW296249  10.894  11.934   3.707
64804SOL     OW96250   0.169   4.647   2.881
64804SOL    HW196251   0.235   4.715   2.893
64804SOL    HW296252   0.087   4.687   2.909
64805SOL     OW96253  10.488  10.604  10.505
64805SOL    HW196254  10.518  10.563  10.586
64805SOL    HW296255  10.411  10.553  10.480
64806SOL     OW96256   6.339   9.572  14.032
64806SOL    HW196257   6.317   9.485  14.065
64806SOL    HW296258   6.430   9.566  14.004
64807SOL     OW96259   2.243  13.846   7.616
64807SOL    HW196260   2.276  13.832   7.704
64807SOL    HW296261   2.278  13.931   7.590
64808SOL     OW96262   6.297   6.778   7.011
64808SOL    HW196263   6.384   6.740   7.008
64808SOL    HW296264   6.238   6.705   7.029
64809SOL     OW96265  11.764   6.220   0.349
64809SOL    HW196266  11.792   6.138   0.390
64809SOL    HW296267  11.703   6.259   0.411
64810SOL     OW96268  13.283  13.130  13.459
64810SOL    HW196269  13.224  13.088  13.522
64810SOL    HW296270  13.256  13.096  13.374
64811SOL     OW96271  13.307   0.865   3.773
64811SOL    HW196272  13.229   0.902   3.733
64811SOL    HW296273  13.275   0.791   3.824
64812SOL     OW96274   0.247   0.857   1.019
64812SOL    HW196275   0.259   0.768   0.987
64812SOL    HW296276   0.157   0.878   0.998
64813SOL     OW96277  13.349   7.554   6.216
64813SOL    HW196278  13.432   7.594   6.242
64813SOL    HW296279  13.375   7.473   6.172
64814SOL     OW96280  13.840   7.775   3.727
64814SOL    HW196281  13.849   7.843   3.660
64814SOL    HW296282  13.927   7.768   3.766
64815SOL     OW96283   0.129  14.354   7.869
64815SOL    HW196284   0.154  14.341   7.961
64815SOL    HW296285   0.039  14.386   7.873
64816SOL     OW96286   8.467   8.784   1.932
64816SOL    HW196287   8.536   8.826   1.881
64816SOL    HW296288   8.416   8.858   1.967
64817SOL     OW96289  11.189  13.521  12.641
64817SOL    HW196290  11.094  13.512  12.646
64817SOL    HW296291  11.212  13.489  12.554
64818SOL     OW96292   3.600   1.244   0.239
64818SOL    HW196293   3.642   1.296   0.170
64818SOL    HW296294   3.578   1.309   0.307
64819SOL     OW96295   2.302   1.502  14.602
64819SOL    HW196296   2.387   1.538  14.579
64819SOL    HW296297   2.294   1.519  14.696
64820SOL     OW96298   8.484   9.985  10.236
64820SOL    HW196299   8.416   9.971  10.170
64820SOL    HW296300   8.539  10.053  10.198
64821SOL     OW96301  13.721   8.192  12.924
64821SOL    HW196302  13.741   8.208  12.832
64821SOL    HW296303  13.806   8.194  12.968
64822SOL     OW96304   8.491   8.673   3.015
64822SOL    HW196305   8.398   8.682   2.990
64822SOL    HW296306   8.494   8.594   3.068
64823SOL     OW96307  11.123  13.921   6.740
64823SOL    HW196308  11.089  13.955   6.823
64823SOL    HW296309  11.199  13.869   6.765
64824SOL     OW96310   9.599   2.675  11.813
64824SOL    HW196311   9.613   2.691  11.906
64824SOL    HW296312   9.668   2.723  11.769
64825SOL     OW96313   6.192   3.781  14.425
64825SOL    HW196314   6.147   3.706  14.386
64825SOL    HW296315   6.124   3.847  14.438
64826SOL     OW96316  10.627   9.298   9.268
64826SOL    HW196317  10.565   9.300   9.195
64826SOL    HW296318  10.710   9.328   9.230
64827SOL     OW96319  10.338   9.063  12.270
64827SOL    HW196320  10.405   9.002  12.301
64827SOL    HW296321  10.270   9.059  12.338
64828SOL     OW96322   7.331   0.112   7.386
64828SOL    HW196323   7.248   0.147   7.355
64828SOL    HW296324   7.307   0.053   7.458
64829SOL     OW96325   4.644  13.736  12.191
64829SOL    HW196326   4.594  13.814  12.214
64829SOL    HW296327   4.706  13.766  12.124
64830SOL     OW96328   5.793   9.737   4.240
64830SOL    HW196329   5.704   9.703   4.252
64830SOL    HW296330   5.848   9.680   4.293
64831SOL     OW96331   9.182   5.549   8.065
64831SOL    HW196332   9.123   5.620   8.039
64831SOL    HW296333   9.248   5.547   7.995
64832SOL     OW96334   1.226   3.613   1.393
64832SOL    HW196335   1.133   3.593   1.399
64832SOL    HW296336   1.231   3.685   1.330
64833SOL     OW96337  14.081  11.662  13.315
64833SOL    HW196338  14.112  11.638  13.228
64833SOL    HW296339  14.017  11.594  13.337
64834SOL     OW96340  11.984   5.098   8.627
64834SOL    HW196341  11.914   5.130   8.683
64834SOL    HW296342  11.943   5.035   8.569
64835SOL     OW96343  11.727   2.656   1.329
64835SOL    HW196344  11.665   2.597   1.373
64835SOL    HW296345  11.692   2.744   1.346
64836SOL     OW96346   2.168   2.523   7.150
64836SOL    HW196347   2.169   2.428   7.164
64836SOL    HW296348   2.143   2.559   7.235
64837SOL     OW96349   5.875   4.030   6.735
64837SOL    HW196350   5.877   4.077   6.652
64837SOL    HW296351   5.871   4.099   6.801
64838SOL     OW96352  14.046   4.546   0.681
64838SOL    HW196353  14.059   4.473   0.620
64838SOL    HW296354  14.126   4.549   0.733
64839SOL     OW96355   5.701   2.252  11.108
64839SOL    HW196356   5.765   2.323  11.098
64839SOL    HW296357   5.630   2.291  11.159
64840SOL     OW96358   7.068   8.235   7.798
64840SOL    HW196359   7.022   8.314   7.770
64840SOL    HW296360   7.055   8.173   7.726
64841SOL     OW96361   2.843   3.028   0.289
64841SOL    HW196362   2.758   2.983   0.293
64841SOL    HW296363   2.869   3.038   0.381
64842SOL     OW96364  14.135  13.999   4.465
64842SOL    HW196365  14.071  14.059   4.428
64842SOL    HW296366  14.218  14.046   4.458
64843SOL     OW96367   8.898  10.664  10.493
64843SOL    HW196368   8.833  10.593  10.491
64843SOL    HW296369   8.981  10.620  10.513
64844SOL     OW96370  12.381   3.435  13.968
64844SOL    HW196371  12.477   3.444  13.962
64844SOL    HW296372  12.368   3.356  14.020
64845SOL     OW96373   7.435  13.952  14.501
64845SOL    HW196374   7.359  13.961  14.558
64845SOL    HW296375   7.415  13.876  14.446
64846SOL     OW96376   1.838  11.877  14.590
64846SOL    HW196377   1.807  11.811  14.653
64846SOL    HW296378   1.924  11.846  14.564
64847SOL     OW96379   5.167  13.122   4.099
64847SOL    HW196380   5.186  13.149   4.188
64847SOL    HW296381   5.098  13.056   4.108
64848SOL     OW96382  11.643   2.272   9.872
64848SOL    HW196383  11.572   2.267   9.808
64848SOL    HW296384  11.722   2.250   9.822
64849SOL     OW96385  14.334   7.001   2.345
64849SOL    HW196386  14.408   7.033   2.295
64849SOL    HW296387  14.322   7.066   2.415
64850SOL     OW96388   7.222  13.548   9.212
64850SOL    HW196389   7.202  13.535   9.119
64850SOL    HW296390   7.137  13.541   9.256
64851SOL     OW96391   1.085   8.119  12.871
64851SOL    HW196392   1.178   8.097  12.879
64851SOL    HW296393   1.047   8.093  12.955
64852SOL     OW96394   9.823  12.953   4.199
64852SOL    HW196395   9.830  12.949   4.104
64852SOL    HW296396   9.899  13.005   4.227
64853SOL     OW96397   1.775  12.371   3.359
64853SOL    HW196398   1.868  12.377   3.381
64853SOL    HW296399   1.735  12.448   3.399
64854SOL     OW96400   1.362   3.338   2.498
64854SOL    HW196401   1.397   3.318   2.411
64854SOL    HW296402   1.423   3.403   2.534
64855SOL     OW96403  14.671   5.179   6.544
64855SOL    HW196404  14.692   5.268   6.516
64855SOL    HW296405  14.756   5.133   6.545
64856SOL     OW96406   4.141   9.154   2.306
64856SOL    HW196407   4.147   9.245   2.334
64856SOL    HW296408   4.148   9.157   2.211
64857SOL     OW96409  11.075   8.002  12.621
64857SOL    HW196410  11.042   8.067  12.683
64857SOL    HW296411  11.104   8.053  12.546
64858SOL     OW96412   7.600   4.299   7.886
64858SOL    HW196413   7.540   4.295   7.812
64858SOL    HW296414   7.601   4.210   7.921
64859SOL     OW96415   5.011   7.501  14.173
64859SOL    HW196416   4.955   7.466  14.243
64859SOL    HW296417   5.069   7.429  14.150
64860SOL     OW96418   2.765   8.050   1.294
64860SOL    HW196419   2.735   8.014   1.211
64860SOL    HW296420   2.847   8.003   1.312
64861SOL     OW96421  10.574  10.067   8.851
64861SOL    HW196422  10.521   9.988   8.848
64861SOL    HW296423  10.634  10.059   8.777
64862SOL     OW96424   1.816   6.553   8.822
64862SOL    HW196425   1.804   6.607   8.743
64862SOL    HW296426   1.901   6.580   8.857
64863SOL     OW96427  14.775  10.718   0.954
64863SOL    HW196428  14.768  10.707   1.049
64863SOL    HW296429  14.861  10.682   0.932
64864SOL     OW96430  14.741  12.755  12.553
64864SOL    HW196431  14.823  12.731  12.510
64864SOL    HW296432  14.765  12.826  12.613
64865SOL     OW96433   6.655   3.955   7.789
64865SOL    HW196434   6.725   3.901   7.752
64865SOL    HW296435   6.578   3.897   7.790
64866SOL     OW96436   9.065   3.480   2.221
64866SOL    HW196437   9.071   3.500   2.128
64866SOL    HW296438   8.973   3.495   2.243
64867SOL     OW96439  10.132   3.048   7.935
64867SOL    HW196440  10.149   2.969   7.987
64867SOL    HW296441  10.052   3.028   7.886
64868SOL     OW96442   3.320   5.723  13.299
64868SOL    HW196443   3.285   5.808  13.326
64868SOL    HW296444   3.265   5.659  13.344
64869SOL     OW96445   7.591  12.733  10.547
64869SOL    HW196446   7.655  12.674  10.506
64869SOL    HW296447   7.572  12.798  10.480
64870SOL     OW96448   2.031  13.173   2.717
64870SOL    HW196449   1.963  13.123   2.763
64870SOL    HW296450   1.982  13.235   2.663
64871SOL     OW96451   9.152   5.011  11.456
64871SOL    HW196452   9.140   5.027  11.363
64871SOL    HW296453   9.222   4.945  11.460
64872SOL     OW96454   4.920   7.322  12.563
64872SOL    HW196455   4.937   7.395  12.503
64872SOL    HW296456   5.003   7.309  12.609
64873SOL     OW96457   2.278   1.194   3.177
64873SOL    HW196458   2.308   1.275   3.220
64873SOL    HW296459   2.356   1.160   3.134
64874SOL     OW96460  12.631   3.095  11.804
64874SOL    HW196461  12.688   3.172  11.809
64874SOL    HW296462  12.551   3.122  11.849
64875SOL     OW96463   3.846  13.017   4.221
64875SOL    HW196464   3.861  13.059   4.137
64875SOL    HW296465   3.901  12.939   4.219
64876SOL     OW96466  14.677   5.255   1.591
64876SOL    HW196467  14.712   5.194   1.526
64876SOL    HW296468  14.584   5.234   1.597
64877SOL     OW96469   9.700  14.567   6.774
64877SOL    HW196470   9.793  14.545   6.782
64877SOL    HW296471   9.700  14.657   6.740
64878SOL     OW96472  11.335   0.747   1.797
64878SOL    HW196473  11.254   0.697   1.806
64878SOL    HW296474  11.353   0.781   1.884
64879SOL     OW96475   1.333   7.157   4.986
64879SOL    HW196476   1.280   7.087   5.025
64879SOL    HW296477   1.378   7.198   5.061
64880SOL     OW96478   7.223  14.816   3.329
64880SOL    HW196479   7.198  14.729   3.362
64880SOL    HW296480   7.216  14.874   3.404
64881SOL     OW96481   0.594   1.104   0.944
64881SOL    HW196482   0.513   1.092   0.894
64881SOL    HW296483   0.574   1.070   1.031
64882SOL     OW96484   4.212   0.252   9.424
64882SOL    HW196485   4.159   0.306   9.366
64882SOL    HW296486   4.276   0.210   9.367
64883SOL     OW96487   5.224  10.363  13.415
64883SOL    HW196488   5.137  10.325  13.426
64883SOL    HW296489   5.232  10.425  13.489
64884SOL     OW96490   1.518   5.927   0.883
64884SOL    HW196491   1.576   5.914   0.809
64884SOL    HW296492   1.549   6.006   0.926
64885SOL     OW96493   0.130   4.317   5.876
64885SOL    HW196494   0.169   4.332   5.962
64885SOL    HW296495   0.153   4.226   5.855
64886SOL     OW96496   6.239  11.656   0.422
64886SOL    HW196497   6.229  11.751   0.421
64886SOL    HW296498   6.300  11.639   0.494
64887SOL     OW96499   3.169   1.552   5.683
64887SOL    HW196500   3.260   1.580   5.695
64887SOL    HW296501   3.174   1.457   5.676
64888SOL     OW96502   3.739  11.091  13.742
64888SOL    HW196503   3.711  11.140  13.664
64888SOL    HW296504   3.795  11.152  13.790
64889SOL     OW96505   6.469   3.159   0.816
64889SOL    HW196506   6.490   3.075   0.776
64889SOL    HW296507   6.462   3.221   0.743
64890SOL     OW96508   4.831   6.490  10.382
64890SOL    HW196509   4.888   6.557  10.418
64890SOL    HW296510   4.774   6.465  10.455
64891SOL     OW96511  10.570   8.546   9.021
64891SOL    HW196512  10.503   8.611   9.042
64891SOL    HW296513  10.547   8.470   9.074
64892SOL     OW96514  11.630   2.048   7.996
64892SOL    HW196515  11.558   2.028   8.055
64892SOL    HW296516  11.709   2.027   8.046
64893SOL     OW96517   9.880  12.210   5.821
64893SOL    HW196518   9.949  12.247   5.875
64893SOL    HW296519   9.918  12.130   5.784
64894SOL     OW96520   6.343   2.975  13.755
64894SOL    HW196521   6.410   3.039  13.778
64894SOL    HW296522   6.363   2.951  13.664
64895SOL     OW96523   3.772   8.142  11.843
64895SOL    HW196524   3.713   8.104  11.908
64895SOL    HW296525   3.819   8.066  11.807
64896SOL     OW96526  14.107   6.110  11.858
64896SOL    HW196527  14.089   6.091  11.950
64896SOL    HW296528  14.194   6.072  11.842
64897SOL     OW96529   5.970  12.169  11.705
64897SOL    HW196530   6.054  12.125  11.691
64897SOL    HW296531   5.915  12.104  11.749
64898SOL     OW96532   0.991  12.095  10.842
64898SOL    HW196533   0.940  12.092  10.923
64898SOL    HW296534   1.055  12.024  10.851
64899SOL     OW96535   0.179   8.048   1.551
64899SOL    HW196536   0.264   8.031   1.511
64899SOL    HW296537   0.120   7.984   1.511
64900SOL     OW96538   9.036   9.670   4.933
64900SOL    HW196539   9.073   9.695   5.017
64900SOL    HW296540   9.004   9.752   4.895
64901SOL     OW96541   7.016   7.342  11.118
64901SOL    HW196542   7.026   7.432  11.151
64901SOL    HW296543   6.968   7.297  11.188
64902SOL     OW96544   4.563   3.151  14.435
64902SOL    HW196545   4.631   3.085  14.427
64902SOL    HW296546   4.605   3.233  14.407
64903SOL     OW96547   4.908   1.171  13.299
64903SOL    HW196548   4.901   1.251  13.248
64903SOL    HW296549   4.995   1.137  13.279
64904SOL     OW96550   9.128  14.386   6.582
64904SOL    HW196551   9.077  14.325   6.636
64904SOL    HW296552   9.085  14.470   6.593
64905SOL     OW96553  12.485   1.733   0.313
64905SOL    HW196554  12.449   1.665   0.256
64905SOL    HW296555  12.446   1.716   0.399
64906SOL     OW96556   6.230   9.763   0.770
64906SOL    HW196557   6.148   9.783   0.725
64906SOL    HW296558   6.212   9.782   0.862
64907SOL     OW96559   4.583  11.111   7.264
64907SOL    HW196560   4.506  11.067   7.227
64907SOL    HW296561   4.639  11.041   7.295
64908SOL     OW96562   0.866  12.016  12.747
64908SOL    HW196563   0.932  12.080  12.719
64908SOL    HW296564   0.866  11.951  12.677
64909SOL     OW96565  11.197   2.363   6.327
64909SOL    HW196566  11.135   2.434   6.313
64909SOL    HW296567  11.155   2.287   6.288
64910SOL     OW96568  14.052   3.939   7.696
64910SOL    HW196569  14.136   3.909   7.660
64910SOL    HW296570  13.987   3.887   7.649
64911SOL     OW96571   5.763   0.966   5.094
64911SOL    HW196572   5.756   0.949   5.001
64911SOL    HW296573   5.833   0.908   5.124
64912SOL     OW96574   8.243   6.947   9.750
64912SOL    HW196575   8.243   7.006   9.675
64912SOL    HW296576   8.329   6.959   9.791
64913SOL     OW96577  13.085  13.178   2.130
64913SOL    HW196578  13.081  13.274   2.126
64913SOL    HW296579  13.015  13.154   2.190
64914SOL     OW96580   6.428  11.094   6.718
64914SOL    HW196581   6.378  11.064   6.642
64914SOL    HW296582   6.467  11.177   6.690
64915SOL     OW96583  14.127  11.047   7.992
64915SOL    HW196584  14.201  11.096   8.030
64915SOL    HW296585  14.136  10.959   8.029
64916SOL     OW96586   8.196   8.372   2.994
64916SOL    HW196587   8.247   8.425   3.055
64916SOL    HW296588   8.243   8.289   2.988
64917SOL     OW96589   7.582  11.798  13.965
64917SOL    HW196590   7.657  11.852  13.939
64917SOL    HW296591   7.622  11.725  14.013
64918SOL     OW96592  11.978  14.117  13.628
64918SOL    HW196593  11.918  14.053  13.590
64918SOL    HW296594  12.062  14.071  13.631
64919SOL     OW96595   3.264   1.426   9.194
64919SOL    HW196596   3.223   1.356   9.144
64919SOL    HW296597   3.349   1.390   9.220
64920SOL     OW96598   5.668   9.858  11.680
64920SOL    HW196599   5.718   9.797  11.626
64920SOL    HW296600   5.733   9.920  11.713
64921SOL     OW96601   1.934   2.724   8.651
64921SOL    HW196602   1.907   2.798   8.705
64921SOL    HW296603   1.868   2.719   8.582
64922SOL     OW96604   0.742   3.574  13.045
64922SOL    HW196605   0.690   3.630  13.102
64922SOL    HW296606   0.802   3.528  13.105
64923SOL     OW96607   7.999  10.127   7.605
64923SOL    HW196608   7.979  10.201   7.663
64923SOL    HW296609   8.094  10.133   7.591
64924SOL     OW96610   6.766   1.053   6.969
64924SOL    HW196611   6.853   1.035   6.934
64924SOL    HW296612   6.739   1.134   6.924
64925SOL     OW96613   9.045  10.937   7.522
64925SOL    HW196614   9.053  10.855   7.570
64925SOL    HW296615   8.952  10.943   7.500
64926SOL     OW96616   9.307   8.968  10.157
64926SOL    HW196617   9.302   8.925  10.242
64926SOL    HW296618   9.223   8.950  10.116
64927SOL     OW96619   2.002   6.378   8.666
64927SOL    HW196620   1.971   6.464   8.693
64927SOL    HW296621   2.096   6.379   8.683
64928SOL     OW96622  11.108  11.653  13.851
64928SOL    HW196623  11.173  11.718  13.879
64928SOL    HW296624  11.094  11.673  13.758
64929SOL     OW96625   0.916  14.497   1.796
64929SOL    HW196626   0.856  14.518   1.724
64929SOL    HW296627   0.997  14.470   1.752
64930SOL     OW96628   8.469  11.732   2.857
64930SOL    HW196629   8.519  11.805   2.891
64930SOL    HW296630   8.382  11.769   2.839
64931SOL     OW96631  12.982   2.678   6.415
64931SOL    HW196632  12.913   2.743   6.422
64931SOL    HW296633  12.954   2.620   6.344
64932SOL     OW96634  10.466   7.948  13.841
64932SOL    HW196635  10.396   7.998  13.883
64932SOL    HW296636  10.431   7.860  13.831
64933SOL     OW96637   2.656  13.669   9.276
64933SOL    HW196638   2.653  13.651   9.370
64933SOL    HW296639   2.736  13.719   9.264
64934SOL     OW96640   1.703  10.642  11.498
64934SOL    HW196641   1.756  10.631  11.577
64934SOL    HW296642   1.716  10.562  11.448
64935SOL     OW96643   7.776   8.160   2.961
64935SOL    HW196644   7.858   8.190   3.001
64935SOL    HW296645   7.707   8.191   3.020
64936SOL     OW96646   7.669  14.493  11.149
64936SOL    HW196647   7.589  14.441  11.150
64936SOL    HW296648   7.720  14.457  11.076
64937SOL     OW96649  12.766   6.508   3.497
64937SOL    HW196650  12.730   6.435   3.445
64937SOL    HW296651  12.728   6.496   3.584
64938SOL     OW96652   6.325   4.525   3.837
64938SOL    HW196653   6.280   4.456   3.887
64938SOL    HW296654   6.310   4.502   3.746
64939SOL     OW96655  14.857   0.507  14.230
64939SOL    HW196656  14.861   0.535  14.322
64939SOL    HW296657  14.832   0.415  14.234
64940SOL     OW96658   0.384  13.981   9.633
64940SOL    HW196659   0.395  13.892   9.665
64940SOL    HW296660   0.417  13.979   9.543
64941SOL     OW96661   1.403   5.445   1.384
64941SOL    HW196662   1.430   5.409   1.469
64941SOL    HW296663   1.453   5.395   1.320
64942SOL     OW96664   3.675  12.156   3.943
64942SOL    HW196665   3.616  12.080   3.941
64942SOL    HW296666   3.756  12.122   3.982
64943SOL     OW96667   6.185  11.129  11.701
64943SOL    HW196668   6.222  11.124  11.789
64943SOL    HW296669   6.123  11.057  11.697
64944SOL     OW96670   5.127  13.821   2.855
64944SOL    HW196671   5.131  13.909   2.818
64944SOL    HW296672   5.148  13.833   2.948
64945SOL     OW96673   1.086   5.378  10.089
64945SOL    HW196674   1.053   5.466  10.110
64945SOL    HW296675   1.117   5.386   9.998
64946SOL     OW96676   7.341   1.516   8.426
64946SOL    HW196677   7.418   1.573   8.432
64946SOL    HW296678   7.315   1.522   8.334
64947SOL     OW96679  10.732   0.129  11.456
64947SOL    HW196680  10.760   0.089  11.538
64947SOL    HW296681  10.752   0.062  11.389
64948SOL     OW96682  12.584  12.135   8.009
64948SOL    HW196683  12.593  12.047   8.046
64948SOL    HW296684  12.672  12.170   8.007
64949SOL     OW96685   3.865   6.959   0.387
64949SOL    HW196686   3.908   6.989   0.467
64949SOL    HW296687   3.819   7.036   0.355
64950SOL     OW96688   6.937  12.558   1.241
64950SOL    HW196689   6.981  12.550   1.156
64950SOL    HW296690   6.910  12.649   1.245
64951SOL     OW96691   7.137   2.022   8.358
64951SOL    HW196692   7.221   2.001   8.317
64951SOL    HW296693   7.160   2.078   8.432
64952SOL     OW96694  11.475   3.067   7.873
64952SOL    HW196695  11.468   3.146   7.927
64952SOL    HW296696  11.398   3.070   7.817
64953SOL     OW96697  14.720  12.809   8.903
64953SOL    HW196698  14.639  12.854   8.879
64953SOL    HW296699  14.764  12.792   8.820
64954SOL     OW96700  12.859   1.201  10.385
64954SOL    HW196701  12.884   1.256  10.310
64954SOL    HW296702  12.932   1.210  10.446
64955SOL     OW96703   1.633   3.946   5.615
64955SOL    HW196704   1.631   3.960   5.709
64955SOL    HW296705   1.721   3.912   5.598
64956SOL     OW96706  12.163   0.079  14.202
64956SOL    HW196707  12.212   0.159  14.184
64956SOL    HW296708  12.173   0.026  14.123
64957SOL     OW96709   8.597   1.603   0.499
64957SOL    HW196710   8.532   1.554   0.549
64957SOL    HW296711   8.550   1.683   0.472
64958SOL     OW96712  12.808  10.331   7.872
64958SOL    HW196713  12.854  10.342   7.956
64958SOL    HW296714  12.878  10.324   7.807
64959SOL     OW96715  14.102   1.398   4.526
64959SOL    HW196716  14.190   1.414   4.493
64959SOL    HW296717  14.069   1.325   4.473
64960SOL     OW96718   7.233   4.990  13.103
64960SOL    HW196719   7.226   5.033  13.188
64960SOL    HW296720   7.145   4.956  13.087
64961SOL     OW96721   1.319   4.261  14.722
64961SOL    HW196722   1.287   4.343  14.683
64961SOL    HW296723   1.367   4.289  14.800
64962SOL     OW96724   4.330  12.031  14.770
64962SOL    HW196725   4.244  12.069  14.752
64962SOL    HW296726   4.350  11.980  14.691
64963SOL     OW96727   4.950  11.504  10.010
64963SOL    HW196728   4.905  11.450  10.074
64963SOL    HW296729   4.972  11.444   9.939
64964SOL     OW96730  12.374   9.889  10.164
64964SOL    HW196731  12.438   9.894  10.094
64964SOL    HW296732  12.348   9.797  10.167
64965SOL     OW96733   9.721   0.217  11.736
64965SOL    HW196734   9.669   0.166  11.673
64965SOL    HW296735   9.798   0.164  11.752
64966SOL     OW96736  12.132  10.154  14.331
64966SOL    HW196737  12.134  10.091  14.404
64966SOL    HW296738  12.214  10.139  14.285
64967SOL     OW96739  13.979  10.087  11.593
64967SOL    HW196740  14.043  10.120  11.655
64967SOL    HW296741  13.984  10.148  11.519
64968SOL     OW96742  14.861   7.623   6.457
64968SOL    HW196743   0.005   7.680   6.383
64968SOL    HW296744  14.798   7.560   6.422
64969SOL     OW96745  12.243  14.645   6.515
64969SOL    HW196746  12.164  14.622   6.466
64969SOL    HW296747  12.269  14.730   6.481
64970SOL     OW96748   0.955  13.808   1.484
64970SOL    HW196749   0.941  13.749   1.558
64970SOL    HW296750   1.020  13.764   1.430
64971SOL     OW96751   9.985   4.496   8.768
64971SOL    HW196752  10.051   4.561   8.792
64971SOL    HW296753  10.032   4.434   8.713
64972SOL     OW96754  12.884   3.847   0.123
64972SOL    HW196755  12.956   3.791   0.092
64972SOL    HW296756  12.805   3.796   0.106
64973SOL     OW96757  10.885   4.428   9.381
64973SOL    HW196758  10.822   4.436   9.310
64973SOL    HW296759  10.853   4.354   9.433
64974SOL     OW96760  11.785   4.625   7.562
64974SOL    HW196761  11.798   4.716   7.536
64974SOL    HW296762  11.699   4.602   7.528
64975SOL     OW96763   2.537   1.115   1.884
64975SOL    HW196764   2.603   1.174   1.921
64975SOL    HW296765   2.572   1.090   1.799
64976SOL     OW96766   9.612   1.781   3.422
64976SOL    HW196767   9.581   1.785   3.332
64976SOL    HW296768   9.537   1.806   3.475
64977SOL     OW96769  11.851   1.579   4.319
64977SOL    HW196770  11.899   1.506   4.281
64977SOL    HW296771  11.910   1.655   4.310
64978SOL     OW96772   7.939   1.696   7.864
64978SOL    HW196773   7.988   1.692   7.947
64978SOL    HW296774   7.984   1.633   7.808
64979SOL     OW96775  14.186   2.471   8.036
64979SOL    HW196776  14.142   2.418   8.103
64979SOL    HW296777  14.138   2.452   7.955
64980SOL     OW96778   8.084   6.703  10.092
64980SOL    HW196779   8.022   6.671  10.026
64980SOL    HW296780   8.082   6.637  10.161
64981SOL     OW96781   2.812  11.714  10.508
64981SOL    HW196782   2.893  11.671  10.534
64981SOL    HW296783   2.839  11.782  10.446
64982SOL     OW96784  10.234   7.895   0.126
64982SOL    HW196785  10.236   7.850   0.042
64982SOL    HW296786  10.216   7.826   0.190
64983SOL     OW96787   3.351  10.420   8.285
64983SOL    HW196788   3.356  10.369   8.365
64983SOL    HW296789   3.269  10.393   8.244
64984SOL     OW96790  11.602   2.410  11.405
64984SOL    HW196791  11.521   2.360  11.397
64984SOL    HW296792  11.585   2.491  11.358
64985SOL     OW96793   5.389  10.340  11.006
64985SOL    HW196794   5.314  10.302  11.051
64985SOL    HW296795   5.351  10.386  10.931
64986SOL     OW96796   9.779  11.003   7.621
64986SOL    HW196797   9.757  10.923   7.668
64986SOL    HW296798   9.749  10.987   7.532
64987SOL     OW96799  12.905   4.310   9.687
64987SOL    HW196800  12.992   4.270   9.686
64987SOL    HW296801  12.901   4.363   9.607
64988SOL     OW96802   2.772  11.075  11.711
64988SOL    HW196803   2.738  11.068  11.800
64988SOL    HW296804   2.788  11.168  11.698
64989SOL     OW96805  14.188   8.172   1.332
64989SOL    HW196806  14.104   8.215   1.341
64989SOL    HW296807  14.224   8.168   1.421
64990SOL     OW96808  13.389   2.134   0.540
64990SOL    HW196809  13.374   2.068   0.473
64990SOL    HW296810  13.442   2.201   0.496
64991SOL     OW96811   7.096   2.304   3.528
64991SOL    HW196812   7.058   2.391   3.518
64991SOL    HW296813   7.191   2.319   3.524
64992SOL     OW96814   0.135   1.375   5.689
64992SOL    HW196815   0.053   1.412   5.721
64992SOL    HW296816   0.153   1.302   5.748
64993SOL     OW96817   4.626  11.611  10.973
64993SOL    HW196818   4.610  11.666  11.049
64993SOL    HW296819   4.672  11.669  10.911
64994SOL     OW96820   2.085   9.337  14.829
64994SOL    HW196821   2.056   9.316   0.042
64994SOL    HW296822   2.177   9.361  14.839
64995SOL     OW96823   1.879   6.822   8.152
64995SOL    HW196824   1.798   6.859   8.187
64995SOL    HW296825   1.868   6.727   8.161
64996SOL     OW96826   5.570  11.434   8.410
64996SOL    HW196827   5.557  11.391   8.325
64996SOL    HW296828   5.663  11.421   8.430
64997SOL     OW96829   3.323   1.016   4.289
64997SOL    HW196830   3.384   1.028   4.362
64997SOL    HW296831   3.307   1.105   4.257
64998SOL     OW96832   3.585   6.248  14.595
64998SOL    HW196833   3.649   6.178  14.605
64998SOL    HW296834   3.552   6.238  14.506
64999SOL     OW96835   7.272  12.120   7.582
64999SOL    HW196836   7.354  12.127   7.630
64999SOL    HW296837   7.259  12.025   7.571
65000SOL     OW96838   0.144  13.127   0.368
65000SOL    HW196839   0.198  13.058   0.330
65000SOL    HW296840   0.068  13.080   0.405
65001SOL     OW96841   4.877   9.359  13.080
65001SOL    HW196842   4.962   9.322  13.104
65001SOL    HW296843   4.822   9.346  13.158
65002SOL     OW96844   7.763   7.620  10.056
65002SOL    HW196845   7.790   7.665  10.136
65002SOL    HW296846   7.668   7.631  10.054
65003SOL     OW96847   6.962   7.102   7.182
65003SOL    HW196848   7.022   7.083   7.255
65003SOL    HW296849   7.010   7.167   7.129
65004SOL     OW96850  11.484  13.044   7.508
65004SOL    HW196851  11.517  13.037   7.418
65004SOL    HW296852  11.447  12.957   7.526
65005SOL     OW96853   0.019   3.555  11.031
65005SOL    HW196854   0.014   3.631  11.090
65005SOL    HW296855  14.861   3.482  11.083
65006SOL     OW96856   1.840  14.328   5.118
65006SOL    HW196857   1.750  14.357   5.101
65006SOL    HW296858   1.884  14.405   5.155
65007SOL     OW96859  10.958   9.970  10.397
65007SOL    HW196860  11.051   9.956  10.411
65007SOL    HW296861  10.953  10.017  10.314
65008SOL     OW96862   1.068  13.029   0.275
65008SOL    HW196863   1.163  13.029   0.266
65008SOL    HW296864   1.036  13.061   0.191
65009SOL     OW96865   6.395   9.504  12.078
65009SOL    HW196866   6.441   9.517  11.995
65009SOL    HW296867   6.306   9.533  12.061
65010SOL     OW96868   8.730  10.151   8.661
65010SOL    HW196869   8.696  10.232   8.623
65010SOL    HW296870   8.792  10.118   8.596
65011SOL     OW96871   1.221  12.091   7.995
65011SOL    HW196872   1.309  12.126   8.001
65011SOL    HW296873   1.230  11.997   8.012
65012SOL     OW96874  10.782  12.110  10.433
65012SOL    HW196875  10.851  12.078  10.491
65012SOL    HW296876  10.709  12.051  10.448
65013SOL     OW96877  12.874  11.880   6.596
65013SOL    HW196878  12.889  11.972   6.613
65013SOL    HW296879  12.822  11.850   6.670
65014SOL     OW96880   1.810   1.087  12.330
65014SOL    HW196881   1.857   1.013  12.369
65014SOL    HW296882   1.736   1.046  12.284
65015SOL     OW96883   4.420   7.002   2.011
65015SOL    HW196884   4.412   7.097   2.013
65015SOL    HW296885   4.344   6.971   2.060
65016SOL     OW96886  11.163   5.730   7.835
65016SOL    HW196887  11.086   5.745   7.780
65016SOL    HW296888  11.148   5.646   7.877
65017SOL     OW96889   0.269   2.482  12.528
65017SOL    HW196890   0.253   2.405  12.582
65017SOL    HW296891   0.323   2.450  12.456
65018SOL     OW96892  11.983   4.749   5.527
65018SOL    HW196893  12.044   4.815   5.558
65018SOL    HW296894  11.922   4.797   5.471
65019SOL     OW96895   7.333  12.559   9.392
65019SOL    HW196896   7.243  12.535   9.413
65019SOL    HW296897   7.356  12.625   9.457
65020SOL     OW96898   3.522   4.102   0.044
65020SOL    HW196899   3.486   4.071  14.837
65020SOL    HW296900   3.461   4.170   0.072
65021SOL     OW96901  11.175  11.771   3.845
65021SOL    HW196902  11.095  11.728   3.814
65021SOL    HW296903  11.148  11.816   3.926
65022SOL     OW96904  13.579   7.094   6.833
65022SOL    HW196905  13.637   7.064   6.903
65022SOL    HW296906  13.568   7.017   6.777
65023SOL     OW96907   7.453   7.099  13.641
65023SOL    HW196908   7.504   7.052  13.707
65023SOL    HW296909   7.449   7.039  13.567
65024SOL     OW96910   6.466   8.270   0.596
65024SOL    HW196911   6.492   8.213   0.669
65024SOL    HW296912   6.412   8.338   0.636
65025SOL     OW96913   1.112   3.499  13.934
65025SOL    HW196914   1.070   3.413  13.931
65025SOL    HW296915   1.118   3.526  13.842
65026SOL     OW96916   3.330  11.282  10.102
65026SOL    HW196917   3.256  11.236  10.142
65026SOL    HW296918   3.388  11.212  10.072
65027SOL     OW96919  13.090  13.569   8.516
65027SOL    HW196920  13.092  13.482   8.554
65027SOL    HW296921  13.177  13.581   8.477
65028SOL     OW96922   8.292   0.309  13.646
65028SOL    HW196923   8.308   0.295  13.740
65028SOL    HW296924   8.201   0.282  13.634
65029SOL     OW96925   0.904   1.411   6.601
65029SOL    HW196926   0.863   1.335   6.642
65029SOL    HW296927   0.850   1.485   6.629
65030SOL     OW96928   4.189   9.724   8.556
65030SOL    HW196929   4.244   9.795   8.588
65030SOL    HW296930   4.249   9.665   8.512
65031SOL     OW96931  11.586   4.134  10.494
65031SOL    HW196932  11.657   4.126  10.430
65031SOL    HW296933  11.526   4.062  10.473
65032SOL     OW96934   9.413   9.784   2.361
65032SOL    HW196935   9.449   9.702   2.328
65032SOL    HW296936   9.479   9.850   2.339
65033SOL     OW96937   4.076   4.265  13.853
65033SOL    HW196938   4.118   4.324  13.916
65033SOL    HW296939   4.042   4.324  13.785
65034SOL     OW96940   0.681  10.307   9.831
65034SOL    HW196941   0.622  10.345   9.897
65034SOL    HW296942   0.664  10.357   9.751
65035SOL     OW96943   9.171   3.021   6.903
65035SOL    HW196944   9.262   3.027   6.875
65035SOL    HW296945   9.122   3.062   6.832
65036SOL     OW96946   6.548   8.766   4.987
65036SOL    HW196947   6.463   8.741   5.023
65036SOL    HW296948   6.554   8.716   4.905
65037SOL     OW96949   0.106   5.500  12.129
65037SOL    HW196950   0.112   5.596  12.121
65037SOL    HW296951   0.014   5.480  12.109
65038SOL     OW96952   1.800   9.608   6.683
65038SOL    HW196953   1.850   9.577   6.607
65038SOL    HW296954   1.791   9.531   6.739
65039SOL     OW96955   6.822   6.509   5.705
65039SOL    HW196956   6.744   6.463   5.735
65039SOL    HW296957   6.895   6.455   5.737
65040SOL     OW96958  12.885   2.962   8.647
65040SOL    HW196959  12.962   3.020   8.647
65040SOL    HW296960  12.888   2.918   8.732
65041SOL     OW96961  14.072   0.665  11.679
65041SOL    HW196962  14.051   0.757  11.663
65041SOL    HW296963  14.108   0.664  11.768
65042SOL     OW96964   4.133  10.525   2.399
65042SOL    HW196965   4.117  10.527   2.493
65042SOL    HW296966   4.117  10.615   2.370
65043SOL     OW96967  10.484   8.258  13.087
65043SOL    HW196968  10.514   8.311  13.013
65043SOL    HW296969  10.565   8.228  13.129
65044SOL     OW96970   7.575  14.864  14.694
65044SOL    HW196971   7.663  14.833  14.715
65044SOL    HW296972   7.518  14.792  14.721
65045SOL     OW96973   3.716   5.482  13.196
65045SOL    HW196974   3.693   5.545  13.127
65045SOL    HW296975   3.635   5.469  13.245
65046SOL     OW96976   2.029  13.072   1.353
65046SOL    HW196977   2.107  13.095   1.403
65046SOL    HW296978   2.053  13.087   1.261
65047SOL     OW96979   0.587  12.241  12.132
65047SOL    HW196980   0.587  12.165  12.191
65047SOL    HW296981   0.578  12.316  12.191
65048SOL     OW96982   2.523   2.915   8.268
65048SOL    HW196983   2.553   2.982   8.207
65048SOL    HW296984   2.427   2.923   8.267
65049SOL     OW96985   1.704   6.378   3.281
65049SOL    HW196986   1.707   6.356   3.374
65049SOL    HW296987   1.622   6.339   3.250
65050SOL     OW96988   9.748   1.460  10.711
65050SOL    HW196989   9.832   1.422  10.734
65050SOL    HW296990   9.687   1.386  10.709
65051SOL     OW96991   9.245  11.426   9.827
65051SOL    HW196992   9.316  11.468   9.876
65051SOL    HW296993   9.256  11.333   9.845
65052SOL     OW96994  12.994   7.943  12.266
65052SOL    HW196995  13.024   8.026  12.229
65052SOL    HW296996  12.908   7.964  12.303
65053SOL     OW96997   6.120   0.174   8.895
65053SOL    HW196998   6.190   0.202   8.954
65053SOL    HW296999   6.088   0.255   8.856
65054SOL     OW97000   5.741   4.984   0.513
65054SOL    HW197001   5.669   4.927   0.539
65054SOL    HW297002   5.775   5.019   0.595
65055SOL     OW97003  12.404  10.614   1.824
65055SOL    HW197004  12.357  10.677   1.770
65055SOL    HW297005  12.360  10.617   1.909
65056SOL     OW97006   8.318   6.804   2.778
65056SOL    HW197007   8.240   6.822   2.830
65056SOL    HW297008   8.284   6.773   2.694
65057SOL     OW97009  10.709   5.695  12.440
65057SOL    HW197010  10.777   5.713  12.375
65057SOL    HW297011  10.629   5.729  12.401
65058SOL     OW97012   7.845   5.233  11.410
65058SOL    HW197013   7.809   5.309  11.364
65058SOL    HW297014   7.933   5.223  11.374
65059SOL     OW97015   5.669   4.421   5.203
65059SOL    HW197016   5.716   4.394   5.125
65059SOL    HW297017   5.577   4.420   5.177
65060SOL     OW97018   9.899   0.547   2.486
65060SOL    HW197019   9.980   0.558   2.437
65060SOL    HW297020   9.835   0.602   2.441
65061SOL     OW97021   0.264  11.487   6.152
65061SOL    HW197022   0.338  11.426   6.144
65061SOL    HW297023   0.302  11.566   6.189
65062SOL     OW97024  12.754   4.531   2.110
65062SOL    HW197025  12.699   4.453   2.108
65062SOL    HW297026  12.692   4.604   2.106
65063SOL     OW97027   7.237   2.490  11.502
65063SOL    HW197028   7.166   2.431  11.527
65063SOL    HW297029   7.192   2.566  11.465
65064SOL     OW97030   6.873   1.535   6.149
65064SOL    HW197031   6.929   1.459   6.166
65064SOL    HW297032   6.912   1.605   6.202
65065SOL     OW97033   0.297   6.150  12.157
65065SOL    HW197034   0.243   6.144  12.078
65065SOL    HW297035   0.382   6.116  12.130
65066SOL     OW97036   0.051  10.005  11.536
65066SOL    HW197037   0.055  10.085  11.482
65066SOL    HW297038   0.136  10.001  11.578
65067SOL     OW97039   6.257  11.778  12.717
65067SOL    HW197040   6.188  11.839  12.741
65067SOL    HW297041   6.306  11.764  12.798
65068SOL     OW97042   8.839   0.004   6.832
65068SOL    HW197043   8.793   0.058   6.896
65068SOL    HW297044   8.928  14.872   6.867
65069SOL     OW97045   2.589   5.542  12.904
65069SOL    HW197046   2.550   5.488  12.973
65069SOL    HW297047   2.631   5.614  12.952
65070SOL     OW97048   7.736   1.106   6.157
65070SOL    HW197049   7.770   1.106   6.247
65070SOL    HW297050   7.695   1.192   6.147
65071SOL     OW97051   7.098   0.341   9.672
65071SOL    HW197052   7.076   0.270   9.611
65071SOL    HW297053   7.107   0.418   9.616
65072SOL     OW97054   8.359  11.078   7.871
65072SOL    HW197055   8.271  11.044   7.889
65072SOL    HW297056   8.396  11.016   7.809
65073SOL     OW97057   3.842  10.400   0.150
65073SOL    HW197058   3.753  10.397   0.115
65073SOL    HW297059   3.870  10.490   0.137
65074SOL     OW97060   1.323  12.661  12.499
65074SOL    HW197061   1.252  12.708  12.456
65074SOL    HW297062   1.319  12.573  12.462
65075SOL     OW97063   7.873   0.542   0.820
65075SOL    HW197064   7.941   0.542   0.889
65075SOL    HW297065   7.907   0.481   0.754
65076SOL     OW97066  11.881   7.194   7.772
65076SOL    HW197067  11.902   7.249   7.697
65076SOL    HW297068  11.951   7.214   7.836
65077SOL     OW97069  11.934   9.122   1.424
65077SOL    HW197070  11.998   9.133   1.494
65077SOL    HW297071  11.941   9.202   1.372
65078SOL     OW97072  12.725   4.288   5.141
65078SOL    HW197073  12.645   4.250   5.106
65078SOL    HW297074  12.736   4.370   5.093
65079SOL     OW97075   9.357   2.965  10.832
65079SOL    HW197076   9.438   2.936  10.872
65079SOL    HW297077   9.322   2.887  10.789
65080SOL     OW97078   1.119  10.797  10.821
65080SOL    HW197079   1.166  10.874  10.851
65080SOL    HW297080   1.117  10.739  10.898
65081SOL     OW97081   2.169   9.629   8.669
65081SOL    HW197082   2.215   9.711   8.654
65081SOL    HW297083   2.127   9.609   8.585
65082SOL     OW97084  13.698   7.906   1.902
65082SOL    HW197085  13.644   7.953   1.838
65082SOL    HW297086  13.781   7.954   1.904
65083SOL     OW97087  14.298   5.103   7.607
65083SOL    HW197088  14.385   5.132   7.580
65083SOL    HW297089  14.314   5.050   7.685
65084SOL     OW97090   2.150  10.894   4.875
65084SOL    HW197091   2.241  10.920   4.889
65084SOL    HW297092   2.133  10.916   4.784
65085SOL     OW97093   0.539  12.148   2.567
65085SOL    HW197094   0.508  12.089   2.636
65085SOL    HW297095   0.607  12.099   2.522
65086SOL     OW97096   2.690  14.253   9.066
65086SOL    HW197097   2.698  14.346   9.043
65086SOL    HW297098   2.621  14.220   9.008
65087SOL     OW97099   7.771   4.396  13.907
65087SOL    HW197100   7.709   4.465  13.883
65087SOL    HW297101   7.841   4.403  13.841
65088SOL     OW97102   9.050  12.228   0.608
65088SOL    HW197103   9.010  12.207   0.693
65088SOL    HW297104   9.137  12.186   0.612
65089SOL     OW97105  13.544  11.585  12.548
65089SOL    HW197106  13.472  11.554  12.493
65089SOL    HW297107  13.534  11.680  12.550
65090SOL     OW97108   0.744   9.074   4.583
65090SOL    HW197109   0.813   9.027   4.536
65090SOL    HW297110   0.663   9.048   4.539
65091SOL     OW97111   9.117   1.672  14.541
65091SOL    HW197112   9.136   1.730  14.615
65091SOL    HW297113   9.024   1.688  14.521
65092SOL     OW97114   5.151   5.985  10.582
65092SOL    HW197115   5.204   5.914  10.546
65092SOL    HW297116   5.061   5.952  10.579
65093SOL     OW97117   6.990   1.661   0.987
65093SOL    HW197118   6.902   1.634   1.014
65093SOL    HW297119   7.046   1.636   1.061
65094SOL     OW97120  13.060   9.570   9.580
65094SOL    HW197121  13.115   9.591   9.655
65094SOL    HW297122  13.087   9.631   9.512
65095SOL     OW97123   2.025   1.822   6.849
65095SOL    HW197124   1.954   1.759   6.862
65095SOL    HW297125   1.991   1.904   6.884
65096SOL     OW97126   4.934   8.598   2.172
65096SOL    HW197127   4.845   8.634   2.173
65096SOL    HW297128   4.922   8.504   2.189
65097SOL     OW97129  12.717   9.221  12.547
65097SOL    HW197130  12.761   9.249  12.467
65097SOL    HW297131  12.645   9.166  12.517
65098SOL     OW97132  10.398   6.792  14.119
65098SOL    HW197133  10.391   6.877  14.077
65098SOL    HW297134  10.412   6.730  14.047
65099SOL     OW97135  14.045  12.641   7.688
65099SOL    HW197136  14.005  12.712   7.739
65099SOL    HW297137  13.980  12.621   7.621
65100SOL     OW97138   2.973   6.451  12.812
65100SOL    HW197139   2.984   6.363  12.776
65100SOL    HW297140   2.881   6.471  12.801
65101SOL     OW97141   7.813   4.442   4.861
65101SOL    HW197142   7.768   4.357   4.863
65101SOL    HW297143   7.744   4.506   4.871
65102SOL     OW97144   2.218   3.092  10.842
65102SOL    HW197145   2.310   3.108  10.825
65102SOL    HW297146   2.206   3.110  10.935
65103SOL     OW97147  11.845   7.125   5.652
65103SOL    HW197148  11.829   7.048   5.598
65103SOL    HW297149  11.858   7.091   5.740
65104SOL     OW97150  12.152  10.921   5.363
65104SOL    HW197151  12.233  10.879   5.391
65104SOL    HW297152  12.104  10.853   5.315
65105SOL     OW97153  12.830   3.741   6.092
65105SOL    HW197154  12.820   3.827   6.051
65105SOL    HW297155  12.912   3.748   6.141
65106SOL     OW97156   9.898  14.585   6.056
65106SOL    HW197157   9.812  14.600   6.095
65106SOL    HW297158   9.898  14.492   6.033
65107SOL     OW97159   2.625  12.983  13.404
65107SOL    HW197160   2.713  13.017  13.421
65107SOL    HW297161   2.639  12.902  13.354
65108SOL     OW97162   9.807   5.299   8.812
65108SOL    HW197163   9.871   5.264   8.750
65108SOL    HW297164   9.778   5.381   8.774
65109SOL     OW97165   1.087   4.581  10.524
65109SOL    HW197166   1.107   4.651  10.587
65109SOL    HW297167   1.153   4.591  10.455
65110SOL     OW97168   1.403   1.902   4.810
65110SOL    HW197169   1.439   1.923   4.724
65110SOL    HW297170   1.429   1.811   4.826
65111SOL     OW97171   5.202   1.849   4.768
65111SOL    HW197172   5.179   1.939   4.790
65111SOL    HW297173   5.293   1.853   4.740
65112SOL     OW97174   4.238   5.262  11.541
65112SOL    HW197175   4.308   5.288  11.481
65112SOL    HW297176   4.158   5.268  11.489
65113SOL     OW97177  14.815   2.729   1.471
65113SOL    HW197178  14.791   2.669   1.400
65113SOL    HW297179   0.026   2.760   1.449
65114SOL     OW97180   4.709   8.651   0.710
65114SOL    HW197181   4.779   8.675   0.650
65114SOL    HW297182   4.746   8.668   0.797
65115SOL     OW97183  12.058  12.450  13.655
65115SOL    HW197184  12.012  12.395  13.592
65115SOL    HW297185  12.027  12.538  13.638
65116SOL     OW97186   7.221  11.031   7.414
65116SOL    HW197187   7.288  10.996   7.473
65116SOL    HW297188   7.244  10.996   7.328
65117SOL     OW97189   0.317  11.820  10.843
65117SOL    HW197190   0.328  11.872  10.923
65117SOL    HW297191   0.387  11.755  10.847
65118SOL     OW97192   8.781  14.489   2.590
65118SOL    HW197193   8.809  14.569   2.635
65118SOL    HW297194   8.862  14.441   2.574
65119SOL     OW97195   5.439  14.824   7.854
65119SOL    HW197196   5.444   0.027   7.906
65119SOL    HW297197   5.348  14.821   7.823
65120SOL     OW97198  10.271   7.733  14.783
65120SOL    HW197199  10.208   7.761  14.717
65120SOL    HW297200  10.345   7.699  14.733
65121SOL     OW97201   0.074   3.203   6.218
65121SOL    HW197202   0.093   3.295   6.199
65121SOL    HW297203  14.858   3.193   6.195
65122SOL     OW97204   5.866   0.281   4.361
65122SOL    HW197205   5.945   0.235   4.332
65122SOL    HW297206   5.799   0.213   4.366
65123SOL     OW97207  11.683   9.774   3.279
65123SOL    HW197208  11.684   9.750   3.186
65123SOL    HW297209  11.590   9.767   3.304
65124SOL     OW97210   1.013   3.108   6.417
65124SOL    HW197211   1.075   3.036   6.426
65124SOL    HW297212   1.067   3.187   6.427
65125SOL     OW97213   5.253   9.266   5.933
65125SOL    HW197214   5.277   9.325   5.861
65125SOL    HW297215   5.222   9.187   5.889
65126SOL     OW97216   2.234   9.467   4.210
65126SOL    HW197217   2.174   9.521   4.262
65126SOL    HW297218   2.257   9.522   4.135
65127SOL     OW97219   4.543   7.321   0.255
65127SOL    HW197220   4.495   7.347   0.176
65127SOL    HW297221   4.608   7.258   0.223
65128SOL     OW97222   2.814  12.962  10.235
65128SOL    HW197223   2.907  12.983  10.247
65128SOL    HW297224   2.814  12.884  10.179
65129SOL     OW97225  12.986   8.160   9.632
65129SOL    HW197226  13.049   8.232   9.619
65129SOL    HW297227  13.041   8.085   9.655
65130SOL     OW97228  10.953  11.370   8.181
65130SOL    HW197229  10.978  11.339   8.094
65130SOL    HW297230  11.036  11.397   8.221
65131SOL     OW97231   9.917   7.452   8.396
65131SOL    HW197232   9.973   7.374   8.388
65131SOL    HW297233   9.831   7.417   8.419
65132SOL     OW97234   5.964   4.163   0.595
65132SOL    HW197235   6.014   4.082   0.579
65132SOL    HW297236   5.895   4.136   0.655
65133SOL     OW97237   4.088  12.060  13.729
65133SOL    HW197238   4.013  12.000  13.723
65133SOL    HW297239   4.164  12.002  13.741
65134SOL     OW97240   3.954   9.317  10.578
65134SOL    HW197241   3.886   9.360  10.526
65134SOL    HW297242   3.966   9.374  10.654
65135SOL     OW97243   2.722  13.277   2.317
65135SOL    HW197244   2.785  13.252   2.384
65135SOL    HW297245   2.776  13.302   2.241
65136SOL     OW97246  13.725   2.179   9.420
65136SOL    HW197247  13.758   2.158   9.332
65136SOL    HW297248  13.683   2.265   9.411
65137SOL     OW97249   4.006  13.193   2.627
65137SOL    HW197250   3.921  13.178   2.586
65137SOL    HW297251   3.986  13.227   2.714
65138SOL     OW97252   0.156   9.609   1.644
65138SOL    HW197253   0.231   9.641   1.594
65138SOL    HW297254   0.158   9.514   1.634
65139SOL     OW97255   3.800   4.168   1.197
65139SOL    HW197256   3.830   4.202   1.112
65139SOL    HW297257   3.768   4.080   1.176
65140SOL     OW97258   6.141  12.842   7.113
65140SOL    HW197259   6.137  12.830   7.018
65140SOL    HW297260   6.052  12.822   7.143
65141SOL     OW97261   7.571   6.649   5.146
65141SOL    HW197262   7.479   6.625   5.135
65141SOL    HW297263   7.619   6.571   5.119
65142SOL     OW97264   9.014   6.559   7.750
65142SOL    HW197265   8.994   6.566   7.843
65142SOL    HW297266   8.938   6.596   7.706
65143SOL     OW97267   8.465  13.178  12.504
65143SOL    HW197268   8.510  13.186  12.420
65143SOL    HW297269   8.527  13.130  12.560
65144SOL     OW97270  12.892  14.371  14.011
65144SOL    HW197271  12.928  14.426  14.081
65144SOL    HW297272  12.847  14.432  13.953
65145SOL     OW97273  12.278  14.679  14.611
65145SOL    HW197274  12.306  14.600  14.565
65145SOL    HW297275  12.221  14.724  14.549
65146SOL     OW97276   6.876   0.183  13.931
65146SOL    HW197277   6.971   0.195  13.930
65146SOL    HW297278   6.862   0.105  13.985
65147SOL     OW97279   3.665   9.570   3.904
65147SOL    HW197280   3.601   9.505   3.873
65147SOL    HW297281   3.691   9.617   3.825
65148SOL     OW97282   5.846   5.864   0.562
65148SOL    HW197283   5.819   5.806   0.492
65148SOL    HW297284   5.782   5.849   0.632
65149SOL     OW97285   4.373   1.918  12.799
65149SOL    HW197286   4.463   1.940  12.774
65149SOL    HW297287   4.382   1.874  12.884
65150SOL     OW97288   2.589   0.184   3.893
65150SOL    HW197289   2.601   0.133   3.814
65150SOL    HW297290   2.528   0.254   3.868
65151SOL     OW97291   6.291  12.827   5.779
65151SOL    HW197292   6.380  12.805   5.807
65151SOL    HW297293   6.237  12.812   5.856
65152SOL     OW97294   5.815   6.218  13.148
65152SOL    HW197295   5.736   6.174  13.180
65152SOL    HW297296   5.801   6.230  13.054
65153SOL     OW97297   2.842  11.140   6.536
65153SOL    HW197298   2.861  11.099   6.452
65153SOL    HW297299   2.756  11.107   6.560
65154SOL     OW97300   4.971   1.742  13.246
65154SOL    HW197301   4.886   1.704  13.222
65154SOL    HW297302   5.023   1.668  13.278
65155SOL     OW97303   2.703  12.625   5.705
65155SOL    HW197304   2.692  12.645   5.797
65155SOL    HW297305   2.794  12.595   5.698
65156SOL     OW97306   8.821   1.676   2.687
65156SOL    HW197307   8.874   1.619   2.743
65156SOL    HW297308   8.844   1.651   2.598
65157SOL     OW97309   2.538  14.230  11.968
65157SOL    HW197310   2.510  14.284  11.894
65157SOL    HW297311   2.548  14.292  12.040
65158SOL     OW97312  11.904   8.216   9.167
65158SOL    HW197313  11.957   8.137   9.180
65158SOL    HW297314  11.855   8.199   9.086
65159SOL     OW97315   3.787   7.579  12.335
65159SOL    HW197316   3.839   7.500  12.349
65159SOL    HW297317   3.776   7.584  12.240
65160SOL     OW97318  11.584   9.711  11.075
65160SOL    HW197319  11.576   9.703  11.170
65160SOL    HW297320  11.537   9.635  11.040
65161SOL     OW97321   0.418   1.077  13.943
65161SOL    HW197322   0.477   1.095  13.870
65161SOL    HW297323   0.389   0.987  13.929
65162SOL     OW97324  14.324  11.646  10.781
65162SOL    HW197325  14.340  11.661  10.874
65162SOL    HW297326  14.412  11.638  10.742
65163SOL     OW97327  14.432  12.205  12.467
65163SOL    HW197328  14.367  12.273  12.486
65163SOL    HW297329  14.403  12.130  12.520
65164SOL     OW97330   5.306   2.388  11.731
65164SOL    HW197331   5.389   2.355  11.766
65164SOL    HW297332   5.330   2.468  11.683
65165SOL     OW97333   5.322   1.152  14.121
65165SOL    HW197334   5.316   1.149  14.216
65165SOL    HW297335   5.416   1.161  14.104
65166SOL     OW97336   0.990   6.142  11.527
65166SOL    HW197337   0.995   6.236  11.509
65166SOL    HW297338   0.898   6.127  11.547
65167SOL     OW97339   4.292   5.140   3.720
65167SOL    HW197340   4.209   5.181   3.693
65167SOL    HW297341   4.265   5.063   3.770
65168SOL     OW97342   6.252  13.734   4.820
65168SOL    HW197343   6.179  13.737   4.757
65168SOL    HW297344   6.278  13.642   4.822
65169SOL     OW97345   2.212  10.615  12.917
65169SOL    HW197346   2.218  10.689  12.857
65169SOL    HW297347   2.284  10.629  12.979
65170SOL     OW97348   1.277  10.667   1.471
65170SOL    HW197349   1.308  10.618   1.395
65170SOL    HW297350   1.204  10.719   1.438
65171SOL     OW97351  13.199   9.916   7.471
65171SOL    HW197352  13.258   9.966   7.414
65171SOL    HW297353  13.112   9.937   7.439
65172SOL     OW97354   3.370   1.541   8.942
65172SOL    HW197355   3.407   1.499   8.864
65172SOL    HW297356   3.377   1.475   9.011
65173SOL     OW97357   7.193   3.473  10.900
65173SOL    HW197358   7.237   3.481  10.816
65173SOL    HW297359   7.261   3.494  10.965
65174SOL     OW97360   4.878   4.434   8.487
65174SOL    HW197361   4.930   4.354   8.483
65174SOL    HW297362   4.787   4.405   8.478
65175SOL     OW97363   7.608   8.632  10.074
65175SOL    HW197364   7.576   8.543  10.063
65175SOL    HW297365   7.703   8.625  10.063
65176SOL     OW97366   8.817   2.463  14.167
65176SOL    HW197367   8.743   2.471  14.107
65176SOL    HW297368   8.877   2.403  14.123
65177SOL     OW97369   8.675   1.146   3.813
65177SOL    HW197370   8.720   1.086   3.872
65177SOL    HW297371   8.595   1.099   3.787
65178SOL     OW97372   1.961   7.362   0.364
65178SOL    HW197373   1.969   7.352   0.458
65178SOL    HW297374   1.927   7.451   0.352
65179SOL     OW97375  10.922   8.594   5.874
65179SOL    HW197376  10.967   8.525   5.923
65179SOL    HW297377  10.858   8.547   5.821
65180SOL     OW97378   5.554  13.781  13.190
65180SOL    HW197379   5.613  13.855  13.198
65180SOL    HW297380   5.492  13.807  13.122
65181SOL     OW97381   4.391  13.202   6.339
65181SOL    HW197382   4.338  13.228   6.263
65181SOL    HW297383   4.378  13.107   6.345
65182SOL     OW97384  14.503  13.951  10.861
65182SOL    HW197385  14.427  14.008  10.850
65182SOL    HW297386  14.568  14.005  10.906
65183SOL     OW97387   0.395   2.178  12.405
65183SOL    HW197388   0.448   2.257  12.421
65183SOL    HW297389   0.306   2.205  12.428
65184SOL     OW97390   7.112  12.969   1.559
65184SOL    HW197391   7.123  12.922   1.642
65184SOL    HW297392   7.159  13.052   1.571
65185SOL     OW97393  11.935   9.609  14.507
65185SOL    HW197394  11.887   9.684  14.542
65185SOL    HW297395  11.880   9.578  14.435
65186SOL     OW97396   6.336   0.328   1.967
65186SOL    HW197397   6.245   0.356   1.967
65186SOL    HW297398   6.380   0.387   1.906
65187SOL     OW97399   2.121   1.939   8.534
65187SOL    HW197400   2.215   1.946   8.553
65187SOL    HW297401   2.117   1.899   8.448
65188SOL     OW97402  11.265   3.339   4.202
65188SOL    HW197403  11.343   3.327   4.147
65188SOL    HW297404  11.217   3.410   4.161
65189SOL     OW97405   5.110   9.256  11.575
65189SOL    HW197406   5.033   9.310  11.555
65189SOL    HW297407   5.155   9.247  11.492
65190SOL     OW97408  13.297   5.615   8.694
65190SOL    HW197409  13.341   5.607   8.609
65190SOL    HW297410  13.368   5.626   8.757
65191SOL     OW97411   8.914  13.326  14.309
65191SOL    HW197412   8.825  13.340  14.341
65191SOL    HW297413   8.933  13.403  14.256
65192SOL     OW97414  12.209   1.027   5.131
65192SOL    HW197415  12.267   0.961   5.169
65192SOL    HW297416  12.156   1.057   5.205
65193SOL     OW97417   0.143   1.180   6.668
65193SOL    HW197418   0.155   1.262   6.619
65193SOL    HW297419   0.232   1.146   6.677
65194SOL     OW97420   8.671  14.212  13.652
65194SOL    HW197421   8.734  14.141  13.639
65194SOL    HW297422   8.710  14.287  13.606
65195SOL     OW97423  10.790  11.809   6.893
65195SOL    HW197424  10.780  11.898   6.925
65195SOL    HW297425  10.706  11.768   6.912
65196SOL     OW97426   5.148  13.365   4.880
65196SOL    HW197427   5.145  13.429   4.951
65196SOL    HW297428   5.227  13.314   4.897
65197SOL     OW97429  13.217  12.900   3.689
65197SOL    HW197430  13.259  12.912   3.604
65197SOL    HW297431  13.277  12.845   3.738
65198SOL     OW97432  13.898  13.232  14.472
65198SOL    HW197433  13.925  13.303  14.531
65198SOL    HW297434  13.960  13.237  14.399
65199SOL     OW97435   9.797   8.768   4.152
65199SOL    HW197436   9.703   8.758   4.134
65199SOL    HW297437   9.804   8.756   4.247
65200SOL     OW97438   7.207   8.749   5.166
65200SOL    HW197439   7.115   8.759   5.139
65200SOL    HW297440   7.216   8.656   5.185
65201SOL     OW97441   8.642   2.517   1.190
65201SOL    HW197442   8.711   2.480   1.135
65201SOL    HW297443   8.605   2.442   1.236
65202SOL     OW97444   4.757   2.010   4.154
65202SOL    HW197445   4.741   1.985   4.063
65202SOL    HW297446   4.841   2.056   4.152
65203SOL     OW97447  10.084  12.672   1.398
65203SOL    HW197448  10.146  12.734   1.438
65203SOL    HW297449  10.113  12.664   1.308
65204SOL     OW97450   8.422   9.235  10.965
65204SOL    HW197451   8.400   9.154  11.010
65204SOL    HW297452   8.447   9.295  11.035
65205SOL     OW97453  10.068   9.829  10.281
65205SOL    HW197454  10.076   9.738  10.311
65205SOL    HW297455   9.993   9.828  10.221
65206SOL     OW97456   5.158   1.503   6.283
65206SOL    HW197457   5.069   1.489   6.315
65206SOL    HW297458   5.188   1.416   6.259
65207SOL     OW97459   2.205  10.055   9.190
65207SOL    HW197460   2.154  10.060   9.110
65207SOL    HW297461   2.252   9.973   9.184
65208SOL     OW97462   1.198   1.648  14.298
65208SOL    HW197463   1.172   1.725  14.349
65208SOL    HW297464   1.293   1.657  14.287
65209SOL     OW97465   1.777   2.557   6.510
65209SOL    HW197466   1.782   2.616   6.434
65209SOL    HW297467   1.750   2.473   6.472
65210SOL     OW97468   3.100   3.489   0.418
65210SOL    HW197469   3.154   3.441   0.355
65210SOL    HW297470   3.152   3.490   0.499
65211SOL     OW97471  11.696   9.122  12.712
65211SOL    HW197472  11.642   9.201  12.706
65211SOL    HW297473  11.759   9.131  12.641
65212SOL     OW97474   9.906  13.672   6.305
65212SOL    HW197475   9.984  13.619   6.288
65212SOL    HW297476   9.851  13.618   6.361
65213SOL     OW97477  14.073   5.838  12.823
65213SOL    HW197478  14.147   5.798  12.868
65213SOL    HW297479  13.996   5.790  12.855
65214SOL     OW97480   5.873   0.627   9.679
65214SOL    HW197481   5.856   0.597   9.769
65214SOL    HW297482   5.863   0.548   9.626
65215SOL     OW97483  11.685   0.227  10.458
65215SOL    HW197484  11.759   0.288  10.460
65215SOL    HW297485  11.614   0.273  10.503
65216SOL     OW97486  11.031  13.296   9.696
65216SOL    HW197487  10.963  13.331   9.639
65216SOL    HW297488  11.063  13.218   9.651
65217SOL     OW97489   4.809  10.274   6.005
65217SOL    HW197490   4.716  10.254   6.017
65217SOL    HW297491   4.851  10.247   6.086
65218SOL     OW97492   7.984   7.046   3.608
65218SOL    HW197493   8.035   6.971   3.580
65218SOL    HW297494   7.895   7.012   3.619
65219SOL     OW97495   6.053   4.083   5.592
65219SOL    HW197496   5.975   4.029   5.605
65219SOL    HW297497   6.019   4.172   5.580
65220SOL     OW97498  10.782   1.241   9.052
65220SOL    HW197499  10.701   1.292   9.050
65220SOL    HW297500  10.851   1.306   9.039
65221SOL     OW97501   5.667  13.555   5.914
65221SOL    HW197502   5.704  13.639   5.885
65221SOL    HW297503   5.681  13.555   6.009
65222SOL     OW97504   9.745   4.853  13.610
65222SOL    HW197505   9.679   4.826  13.546
65222SOL    HW297506   9.829   4.840  13.565
65223SOL     OW97507  12.101   8.497   7.768
65223SOL    HW197508  12.069   8.574   7.815
65223SOL    HW297509  12.192   8.518   7.747
65224SOL     OW97510   5.675  12.615   8.126
65224SOL    HW197511   5.649  12.553   8.194
65224SOL    HW297512   5.644  12.700   8.158
65225SOL     OW97513   0.270   3.716   2.636
65225SOL    HW197514   0.298   3.701   2.726
65225SOL    HW297515   0.188   3.666   2.628
65226SOL     OW97516  14.109   4.883   7.568
65226SOL    HW197517  14.150   4.966   7.590
65226SOL    HW297518  14.019   4.890   7.600
65227SOL     OW97519   6.809   4.238  13.372
65227SOL    HW197520   6.733   4.200  13.330
65227SOL    HW297521   6.820   4.324  13.331
65228SOL     OW97522   3.976   1.195   4.742
65228SOL    HW197523   4.071   1.207   4.751
65228SOL    HW297524   3.940   1.282   4.758
65229SOL     OW97525  13.088  13.209  14.376
65229SOL    HW197526  13.164  13.163  14.342
65229SOL    HW297527  13.118  13.299  14.387
65230SOL     OW97528  12.233   1.558  13.990
65230SOL    HW197529  12.200   1.471  14.010
65230SOL    HW297530  12.239   1.601  14.076
65231SOL     OW97531   4.583   4.871   9.593
65231SOL    HW197532   4.530   4.814   9.538
65231SOL    HW297533   4.670   4.832   9.591
65232SOL     OW97534   4.623   1.673   6.778
65232SOL    HW197535   4.602   1.767   6.784
65232SOL    HW297536   4.571   1.632   6.847
65233SOL     OW97537   4.069   7.599  10.485
65233SOL    HW197538   4.080   7.636  10.398
65233SOL    HW297539   4.156   7.567  10.509
65234SOL     OW97540  10.307   6.777   0.155
65234SOL    HW197541  10.336   6.695   0.117
65234SOL    HW297542  10.346   6.778   0.242
65235SOL     OW97543  13.908   8.755   6.044
65235SOL    HW197544  13.813   8.747   6.040
65235SOL    HW297545  13.925   8.849   6.035
65236SOL     OW97546   2.725  12.096   3.957
65236SOL    HW197547   2.729  12.045   3.877
65236SOL    HW297548   2.709  12.031   4.026
65237SOL     OW97549   5.444  12.893  12.695
65237SOL    HW197550   5.498  12.913  12.619
65237SOL    HW297551   5.371  12.955  12.689
65238SOL     OW97552   2.090   2.629  11.635
65238SOL    HW197553   2.161   2.680  11.596
65238SOL    HW297554   2.055   2.577  11.563
65239SOL     OW97555   5.289   3.427   0.501
65239SOL    HW197556   5.304   3.497   0.564
65239SOL    HW297557   5.222   3.461   0.443
65240SOL     OW97558   4.830   8.519   3.448
65240SOL    HW197559   4.816   8.531   3.354
65240SOL    HW297560   4.840   8.424   3.458
65241SOL     OW97561  10.366   1.199   5.530
65241SOL    HW197562  10.293   1.260   5.544
65241SOL    HW297563  10.431   1.224   5.595
65242SOL     OW97564  14.053   8.656  12.868
65242SOL    HW197565  14.148   8.648  12.879
65242SOL    HW297566  14.017   8.582  12.917
65243SOL     OW97567  14.330   1.165   4.710
65243SOL    HW197568  14.383   1.245   4.710
65243SOL    HW297569  14.345   1.127   4.623
65244SOL     OW97570   4.314  10.047   1.185
65244SOL    HW197571   4.290  10.132   1.149
65244SOL    HW297572   4.275  10.045   1.272
65245SOL     OW97573  14.857   7.737   6.198
65245SOL    HW197574  14.840   7.729   6.104
65245SOL    HW297575   0.075   7.724   6.206
65246SOL     OW97576   3.794  10.369  14.607
65246SOL    HW197577   3.741  10.331  14.676
65246SOL    HW297578   3.863  10.417  14.652
65247SOL     OW97579   3.429   3.651   6.771
65247SOL    HW197580   3.407   3.642   6.678
65247SOL    HW297581   3.413   3.743   6.791
65248SOL     OW97582   1.490   7.344   3.396
65248SOL    HW197583   1.447   7.429   3.405
65248SOL    HW297584   1.523   7.325   3.484
65249SOL     OW97585  13.305  13.827   3.691
65249SOL    HW197586  13.364  13.843   3.765
65249SOL    HW297587  13.217  13.835   3.728
65250SOL     OW97588  13.044  14.343  12.413
65250SOL    HW197589  13.037  14.421  12.468
65250SOL    HW297590  12.954  14.311  12.404
65251SOL     OW97591   0.619  13.958   8.672
65251SOL    HW197592   0.615  14.052   8.683
65251SOL    HW297593   0.545  13.937   8.615
65252SOL     OW97594  11.301  11.696   5.056
65252SOL    HW197595  11.266  11.770   5.105
65252SOL    HW297596  11.261  11.703   4.969
65253SOL     OW97597   5.120   1.814   7.081
65253SOL    HW197598   5.097   1.850   6.996
65253SOL    HW297599   5.130   1.720   7.066
65254SOL     OW97600   2.238   7.121   2.806
65254SOL    HW197601   2.169   7.180   2.840
65254SOL    HW297602   2.210   7.034   2.834
65255SOL     OW97603  12.953  10.023   2.583
65255SOL    HW197604  13.035  10.067   2.558
65255SOL    HW297605  12.980   9.934   2.605
65256SOL     OW97606  11.831   2.784   1.122
65256SOL    HW197607  11.805   2.732   1.198
65256SOL    HW297608  11.779   2.865   1.129
65257SOL     OW97609   2.099   8.351   2.853
65257SOL    HW197610   2.007   8.342   2.830
65257SOL    HW297611   2.114   8.284   2.920
65258SOL     OW97612   6.419   6.876   4.558
65258SOL    HW197613   6.494   6.818   4.563
65258SOL    HW297614   6.409   6.911   4.646
65259SOL     OW97615   1.209   2.357   0.264
65259SOL    HW197616   1.141   2.315   0.211
65259SOL    HW297617   1.288   2.350   0.211
65260SOL     OW97618  12.268  10.476  12.301
65260SOL    HW197619  12.279  10.565  12.268
65260SOL    HW297620  12.175  10.469  12.324
65261SOL     OW97621  10.489   6.328  14.693
65261SOL    HW197622  10.578   6.294  14.680
65261SOL    HW297623  10.440   6.296  14.617
65262SOL     OW97624   2.173   8.569   2.703
65262SOL    HW197625   2.189   8.637   2.768
65262SOL    HW297626   2.136   8.496   2.753
65263SOL     OW97627   5.092   7.495  11.822
65263SOL    HW197628   5.063   7.450  11.743
65263SOL    HW297629   5.176   7.535  11.797
65264SOL     OW97630   3.323   3.549   7.579
65264SOL    HW197631   3.356   3.638   7.589
65264SOL    HW297632   3.377   3.497   7.638
65265SOL     OW97633   8.720  14.655   4.651
65265SOL    HW197634   8.727  14.722   4.719
65265SOL    HW297635   8.628  14.631   4.651
65266SOL     OW97636   1.828  13.427   4.528
65266SOL    HW197637   1.852  13.445   4.618
65266SOL    HW297638   1.737  13.396   4.534
65267SOL     OW97639  12.025  13.847  14.236
65267SOL    HW197640  12.097  13.826  14.297
65267SOL    HW297641  12.068  13.891  14.163
65268SOL     OW97642  12.076   0.684   6.118
65268SOL    HW197643  12.012   0.622   6.084
65268SOL    HW297644  12.027   0.739   6.178
65269SOL     OW97645   6.105   7.885   5.538
65269SOL    HW197646   6.138   7.838   5.615
65269SOL    HW297647   6.183   7.912   5.490
65270SOL     OW97648   7.879   4.800   4.493
65270SOL    HW197649   7.810   4.740   4.463
65270SOL    HW297650   7.953   4.782   4.435
65271SOL     OW97651  12.114   5.029  11.937
65271SOL    HW197652  12.080   4.993  11.856
65271SOL    HW297653  12.208   5.040  11.921
65272SOL     OW97654  13.991   5.169   7.679
65272SOL    HW197655  14.045   5.247   7.682
65272SOL    HW297656  13.983   5.141   7.771
65273SOL     OW97657   9.826   2.562  12.306
65273SOL    HW197658   9.828   2.467  12.316
65273SOL    HW297659   9.860   2.577  12.218
65274SOL     OW97660  10.486  13.769  13.171
65274SOL    HW197661  10.539  13.704  13.217
65274SOL    HW297662  10.444  13.720  13.099
65275SOL     OW97663   5.821   0.643   2.648
65275SOL    HW197664   5.768   0.570   2.682
65275SOL    HW297665   5.829   0.703   2.722
65276SOL     OW97666   3.244   9.316  13.474
65276SOL    HW197667   3.326   9.270  13.488
65276SOL    HW297668   3.177   9.257  13.510
65277SOL     OW97669  12.212   4.990   3.582
65277SOL    HW197670  12.135   4.939   3.610
65277SOL    HW297671  12.287   4.939   3.613
65278SOL     OW97672   1.966   9.066   4.761
65278SOL    HW197673   1.952   9.127   4.833
65278SOL    HW297674   2.043   9.100   4.716
65279SOL     OW97675   9.609  12.084   4.999
65279SOL    HW197676   9.704  12.087   4.992
65279SOL    HW297677   9.591  12.016   5.064
65280SOL     OW97678   5.866   0.682   8.317
65280SOL    HW197679   5.891   0.670   8.225
65280SOL    HW297680   5.914   0.614   8.363
65281SOL     OW97681  13.642   8.469  14.721
65281SOL    HW197682  13.658   8.477  14.627
65281SOL    HW297683  13.662   8.377  14.741
65282SOL     OW97684  11.650   3.498   0.417
65282SOL    HW197685  11.654   3.464   0.328
65282SOL    HW297686  11.603   3.581   0.409
65283SOL     OW97687   3.351   6.580   9.656
65283SOL    HW197688   3.406   6.642   9.607
65283SOL    HW297689   3.386   6.494   9.634
65284SOL     OW97690   1.291   4.287  10.842
65284SOL    HW197691   1.209   4.259  10.883
65284SOL    HW297692   1.314   4.369  10.885
65285SOL     OW97693   3.889   3.957  12.299
65285SOL    HW197694   3.816   4.017  12.319
65285SOL    HW297695   3.967   4.013  12.300
65286SOL     OW97696  14.543   8.378   2.346
65286SOL    HW197697  14.523   8.341   2.433
65286SOL    HW297698  14.559   8.301   2.291
65287SOL     OW97699   5.717   3.973   0.585
65287SOL    HW197700   5.651   4.027   0.542
65287SOL    HW297701   5.771   3.941   0.513
65288SOL     OW97702   1.627   2.085  11.633
65288SOL    HW197703   1.575   2.051  11.706
65288SOL    HW297704   1.708   2.116  11.674
65289SOL     OW97705   1.363  11.545   4.966
65289SOL    HW197706   1.344  11.638   4.952
65289SOL    HW297707   1.338  11.503   4.884
65290SOL     OW97708   9.784   9.386   5.639
65290SOL    HW197709   9.749   9.415   5.723
65290SOL    HW297710   9.874   9.359   5.659
65291SOL     OW97711   3.023   9.749   0.991
65291SOL    HW197712   3.116   9.763   1.012
65291SOL    HW297713   3.009   9.655   1.008
65292SOL     OW97714   2.447   7.043   5.414
65292SOL    HW197715   2.529   7.069   5.371
65292SOL    HW297716   2.413   7.124   5.452
65293SOL     OW97717  14.780   9.085   0.533
65293SOL    HW197718  14.838   9.041   0.596
65293SOL    HW297719  14.710   9.022   0.517
65294SOL     OW97720  14.412   0.245  13.013
65294SOL    HW197721  14.495   0.196  13.005
65294SOL    HW297722  14.370   0.234  12.928
65295SOL     OW97723   1.280   0.746  14.269
65295SOL    HW197724   1.202   0.801  14.263
65295SOL    HW297725   1.353   0.804  14.248
65296SOL     OW97726  11.001  12.198   6.829
65296SOL    HW197727  10.923  12.254   6.827
65296SOL    HW297728  10.976  12.125   6.886
65297SOL     OW97729   9.792  10.510   6.219
65297SOL    HW197730   9.863  10.446   6.209
65297SOL    HW297731   9.716  10.457   6.242
65298SOL     OW97732  13.851   7.385   0.493
65298SOL    HW197733  13.828   7.476   0.513
65298SOL    HW297734  13.934   7.391   0.446
65299SOL     OW97735   4.176   5.127   6.949
65299SOL    HW197736   4.169   5.115   6.854
65299SOL    HW297737   4.103   5.184   6.971
65300SOL     OW97738   7.211  11.911   9.997
65300SOL    HW197739   7.208  11.886   9.905
65300SOL    HW297740   7.243  11.833  10.043
65301SOL     OW97741   4.649   3.875   1.010
65301SOL    HW197742   4.662   3.964   0.977
65301SOL    HW297743   4.735   3.834   1.003
65302SOL     OW97744   7.699  14.570   7.736
65302SOL    HW197745   7.683  14.511   7.809
65302SOL    HW297746   7.794  14.584   7.737
65303SOL     OW97747   4.369   8.321   5.873
65303SOL    HW197748   4.312   8.308   5.948
65303SOL    HW297749   4.310   8.323   5.797
65304SOL     OW97750  14.751   3.438  12.880
65304SOL    HW197751  14.720   3.529  12.887
65304SOL    HW297752  14.777   3.415  12.969
65305SOL     OW97753   0.190  14.516   9.873
65305SOL    HW197754   0.101  14.536   9.846
65305SOL    HW297755   0.186  14.427   9.909
65306SOL     OW97756  13.574   3.906   4.083
65306SOL    HW197757  13.648   3.871   4.033
65306SOL    HW297758  13.564   3.845   4.156
65307SOL     OW97759   6.831  12.114   5.122
65307SOL    HW197760   6.776  12.059   5.177
65307SOL    HW297761   6.771  12.150   5.056
65308SOL     OW97762   9.092   2.535   7.070
65308SOL    HW197763   9.126   2.621   7.096
65308SOL    HW297764   8.999   2.552   7.050
65309SOL     OW97765   4.539  12.428   1.097
65309SOL    HW197766   4.472  12.496   1.093
65309SOL    HW297767   4.569  12.429   1.187
65310SOL     OW97768  10.571   6.016   3.931
65310SOL    HW197769  10.567   6.112   3.937
65310SOL    HW297770  10.479   5.989   3.933
65311SOL     OW97771   8.938   3.420   8.076
65311SOL    HW197772   9.017   3.475   8.076
65311SOL    HW297773   8.919   3.407   7.983
65312SOL     OW97774   2.701   5.901   5.727
65312SOL    HW197775   2.631   5.955   5.690
65312SOL    HW297776   2.718   5.941   5.813
65313SOL     OW97777   6.762   2.565  10.280
65313SOL    HW197778   6.815   2.530  10.208
65313SOL    HW297779   6.803   2.649  10.300
65314SOL     OW97780   3.355   2.425   0.373
65314SOL    HW197781   3.360   2.422   0.469
65314SOL    HW297782   3.430   2.478   0.347
65315SOL     OW97783   0.131  12.780   6.345
65315SOL    HW197784   0.186  12.704   6.326
65315SOL    HW297785   0.190  12.842   6.390
65316SOL     OW97786  14.081   4.733  14.332
65316SOL    HW197787  14.079   4.669  14.403
65316SOL    HW297788  14.169   4.726  14.295
65317SOL     OW97789   0.720   4.021   7.308
65317SOL    HW197790   0.675   4.027   7.393
65317SOL    HW297791   0.797   4.078   7.318
65318SOL     OW97792   9.716   3.238   1.359
65318SOL    HW197793   9.777   3.310   1.375
65318SOL    HW297794   9.661   3.268   1.288
65319SOL     OW97795   9.174   5.494   7.470
65319SOL    HW197796   9.234   5.447   7.412
65319SOL    HW297797   9.138   5.564   7.415
65320SOL     OW97798  13.925   3.280   9.865
65320SOL    HW197799  14.016   3.310   9.866
65320SOL    HW297800  13.879   3.339   9.925
65321SOL     OW97801  12.571   2.199   4.900
65321SOL    HW197802  12.496   2.242   4.859
65321SOL    HW297803  12.635   2.189   4.829
65322SOL     OW97804   0.743   0.164   7.292
65322SOL    HW197805   0.737   0.240   7.235
65322SOL    HW297806   0.658   0.159   7.336
65323SOL     OW97807   5.952  13.417  12.787
65323SOL    HW197808   5.889  13.345  12.797
65323SOL    HW297809   5.936  13.451  12.699
65324SOL     OW97810  11.361  11.887  11.210
65324SOL    HW197811  11.358  11.962  11.269
65324SOL    HW297812  11.280  11.839  11.229
65325SOL     OW97813   1.806   8.073  13.087
65325SOL    HW197814   1.889   8.026  13.089
65325SOL    HW297815   1.753   8.031  13.154
65326SOL     OW97816   3.371  12.118   3.369
65326SOL    HW197817   3.329  12.033   3.384
65326SOL    HW297818   3.358  12.166   3.451
65327SOL     OW97819   3.308   5.513   0.166
65327SOL    HW197820   3.359   5.584   0.127
65327SOL    HW297821   3.234   5.501   0.107
65328SOL     OW97822  14.286   0.531   8.936
65328SOL    HW197823  14.299   0.440   8.961
65328SOL    HW297824  14.218   0.563   8.994
65329SOL     OW97825   7.472   4.122   5.373
65329SOL    HW197826   7.393   4.142   5.324
65329SOL    HW297827   7.504   4.040   5.335
65330SOL     OW97828  11.985   8.855  13.598
65330SOL    HW197829  11.987   8.769  13.555
65330SOL    HW297830  12.068   8.860  13.646
65331SOL     OW97831   9.193  10.230   1.255
65331SOL    HW197832   9.233  10.274   1.180
65331SOL    HW297833   9.161  10.301   1.311
65332SOL     OW97834   8.315   1.563   0.612
65332SOL    HW197835   8.261   1.638   0.587
65332SOL    HW297836   8.338   1.579   0.703
65333SOL     OW97837   0.857   9.532   1.824
65333SOL    HW197838   0.906   9.451   1.836
65333SOL    HW297839   0.844   9.565   1.913
65334SOL     OW97840   6.182   0.971   2.122
65334SOL    HW197841   6.230   1.026   2.060
65334SOL    HW297842   6.160   1.031   2.194
65335SOL     OW97843  14.413   8.638   1.190
65335SOL    HW197844  14.353   8.710   1.209
65335SOL    HW297845  14.365   8.559   1.217
65336SOL     OW97846   3.388   7.333   3.478
65336SOL    HW197847   3.355   7.244   3.485
65336SOL    HW297848   3.480   7.322   3.454
65337SOL     OW97849  12.085  13.704   5.416
65337SOL    HW197850  12.155  13.770   5.407
65337SOL    HW297851  12.037  13.732   5.493
65338SOL     OW97852   0.713   9.634   9.125
65338SOL    HW197853   0.759   9.668   9.202
65338SOL    HW297854   0.629   9.603   9.159
65339SOL     OW97855  12.758   9.733   2.054
65339SOL    HW197856  12.755   9.757   2.147
65339SOL    HW297857  12.733   9.813   2.008
65340SOL     OW97858   5.289  10.043   0.712
65340SOL    HW197859   5.264  10.017   0.624
65340SOL    HW297860   5.322  10.133   0.702
65341SOL     OW97861   5.847   6.724  14.841
65341SOL    HW197862   5.893   6.770  14.771
65341SOL    HW297863   5.809   6.793   0.018
65342SOL     OW97864  14.271   7.821   2.931
65342SOL    HW197865  14.253   7.727   2.937
65342SOL    HW297866  14.277   7.838   2.836
65343SOL     OW97867   2.672   5.263  14.105
65343SOL    HW197868   2.755   5.269  14.151
65343SOL    HW297869   2.663   5.346  14.059
65344SOL     OW97870   8.462   7.171   3.735
65344SOL    HW197871   8.438   7.085   3.702
65344SOL    HW297872   8.442   7.167   3.829
65345SOL     OW97873   4.979   3.620   0.157
65345SOL    HW197874   5.067   3.586   0.141
65345SOL    HW297875   4.921   3.548   0.132
65346SOL     OW97876   2.092   5.108   3.324
65346SOL    HW197877   2.048   5.182   3.366
65346SOL    HW297878   2.185   5.123   3.340
65347SOL     OW97879   3.607   9.741   0.287
65347SOL    HW197880   3.669   9.806   0.254
65347SOL    HW297881   3.656   9.658   0.283
65348SOL     OW97882   0.648   3.455   2.068
65348SOL    HW197883   0.589   3.380   2.073
65348SOL    HW297884   0.695   3.442   1.985
65349SOL     OW97885  12.414   4.114   2.817
65349SOL    HW197886  12.500   4.140   2.851
65349SOL    HW297887  12.385   4.189   2.765
65350SOL     OW97888  13.762   3.186  10.361
65350SOL    HW197889  13.808   3.127  10.301
65350SOL    HW297890  13.671   3.155  10.360
65351SOL     OW97891   4.907   9.364   9.165
65351SOL    HW197892   4.986   9.386   9.214
65351SOL    HW297893   4.928   9.388   9.074
65352SOL     OW97894   7.032   5.601  10.720
65352SOL    HW197895   7.100   5.668  10.719
65352SOL    HW297896   7.037   5.562  10.632
65353SOL     OW97897   1.097   7.067   7.568
65353SOL    HW197898   1.186   7.090   7.594
65353SOL    HW297899   1.087   7.103   7.480
65354SOL     OW97900   0.381   2.313  13.534
65354SOL    HW197901   0.335   2.391  13.503
65354SOL    HW297902   0.474   2.337  13.531
65355SOL     OW97903  14.648  11.826   5.368
65355SOL    HW197904  14.594  11.748   5.356
65355SOL    HW297905  14.722  11.796   5.422
65356SOL     OW97906   6.631   5.370   6.891
65356SOL    HW197907   6.694   5.439   6.871
65356SOL    HW297908   6.603   5.388   6.981
65357SOL     OW97909  12.826  13.487   3.840
65357SOL    HW197910  12.866  13.400   3.832
65357SOL    HW297911  12.859  13.536   3.764
65358SOL     OW97912   3.668   2.054   8.178
65358SOL    HW197913   3.759   2.025   8.170
65358SOL    HW297914   3.663   2.134   8.126
65359SOL     OW97915   3.398   3.791   1.780
65359SOL    HW197916   3.488   3.787   1.810
65359SOL    HW297917   3.373   3.883   1.789
65360SOL     OW97918   9.669   7.332   9.127
65360SOL    HW197919   9.715   7.277   9.063
65360SOL    HW297920   9.576   7.313   9.112
65361SOL     OW97921  14.369   9.506  10.567
65361SOL    HW197922  14.421   9.474  10.493
65361SOL    HW297923  14.435   9.528  10.634
65362SOL     OW97924   0.101   4.380  10.276
65362SOL    HW197925   0.023   4.334  10.244
65362SOL    HW297926   0.104   4.359  10.369
65363SOL     OW97927  14.464   0.583  10.013
65363SOL    HW197928  14.492   0.510  10.068
65363SOL    HW297929  14.473   0.660  10.068
65364SOL     OW97930   7.158   7.244   4.582
65364SOL    HW197931   7.243   7.264   4.543
65364SOL    HW297932   7.149   7.149   4.573
65365SOL     OW97933  13.812   8.142   3.397
65365SOL    HW197934  13.783   8.085   3.469
65365SOL    HW297935  13.883   8.093   3.356
65366SOL     OW97936   4.363  10.724   7.110
65366SOL    HW197937   4.424  10.704   7.039
65366SOL    HW297938   4.355  10.643   7.159
65367SOL     OW97939   6.749  12.075   8.816
65367SOL    HW197940   6.744  12.165   8.846
65367SOL    HW297941   6.714  12.024   8.889
65368SOL     OW97942   7.403   8.233   4.325
65368SOL    HW197943   7.397   8.138   4.315
65368SOL    HW297944   7.316   8.259   4.355
65369SOL     OW97945  13.694   7.091  11.953
65369SOL    HW197946  13.661   7.094  12.043
65369SOL    HW297947  13.670   7.175  11.916
65370SOL     OW97948   4.035   7.119   9.378
65370SOL    HW197949   4.016   7.159   9.293
65370SOL    HW297950   4.130   7.103   9.377
65371SOL     OW97951  11.602  10.642   5.172
65371SOL    HW197952  11.693  10.626   5.148
65371SOL    HW297953  11.600  10.735   5.195
65372SOL     OW97954  12.592   4.937   7.770
65372SOL    HW197955  12.604   4.916   7.863
65372SOL    HW297956  12.499   4.960   7.762
65373SOL     OW97957   9.349  12.006   2.873
65373SOL    HW197958   9.306  12.088   2.896
65373SOL    HW297959   9.333  11.949   2.948
65374SOL     OW97960  10.214  14.685   5.576
65374SOL    HW197961  10.261  14.767   5.562
65374SOL    HW297962  10.220  14.640   5.492
65375SOL     OW97963   3.604  13.597  14.791
65375SOL    HW197964   3.635  13.687  14.787
65375SOL    HW297965   3.536  13.598  14.859
65376SOL     OW97966   4.079   1.175   5.449
65376SOL    HW197967   4.149   1.213   5.396
65376SOL    HW297968   4.001   1.224   5.425
65377SOL     OW97969  10.561   3.294   2.443
65377SOL    HW197970  10.639   3.253   2.406
65377SOL    HW297971  10.589   3.328   2.528
65378SOL     OW97972   7.895  12.477   5.443
65378SOL    HW197973   7.862  12.393   5.409
65378SOL    HW297974   7.984  12.458   5.470
65379SOL     OW97975   1.407   6.813   9.578
65379SOL    HW197976   1.408   6.718   9.590
65379SOL    HW297977   1.499   6.837   9.568
65380SOL     OW97978   8.341   7.271  11.380
65380SOL    HW197979   8.391   7.287  11.299
65380SOL    HW297980   8.295   7.353  11.396
65381SOL     OW97981  13.549  14.542   5.564
65381SOL    HW197982  13.578  14.612   5.623
65381SOL    HW297983  13.513  14.587   5.488
65382SOL     OW97984  13.336   8.800   8.953
65382SOL    HW197985  13.338   8.712   8.915
65382SOL    HW297986  13.243   8.820   8.963
65383SOL     OW97987   0.955   5.523   5.900
65383SOL    HW197988   0.962   5.531   5.995
65383SOL    HW297989   0.886   5.585   5.875
65384SOL     OW97990  12.884   0.494   1.078
65384SOL    HW197991  12.867   0.400   1.074
65384SOL    HW297992  12.880   0.515   1.171
65385SOL     OW97993  14.792  13.207   8.279
65385SOL    HW197994  14.708  13.162   8.283
65385SOL    HW297995  14.769  13.300   8.285
65386SOL     OW97996   8.386   3.295   6.958
65386SOL    HW197997   8.313   3.245   6.996
65386SOL    HW297998   8.393   3.373   7.012
65387SOL     OW97999   1.006   0.379   6.024
65387SOL    HW198000   0.920   0.411   6.053
65387SOL    HW298001   1.031   0.437   5.952
65388SOL     OW98002   3.578  12.083  12.871
65388SOL    HW198003   3.635  12.085  12.948
65388SOL    HW298004   3.496  12.045  12.903
65389SOL     OW98005  10.706   5.589  13.274
65389SOL    HW198006  10.769   5.541  13.328
65389SOL    HW298007  10.710   5.546  13.189
65390SOL     OW98008   6.650   5.192   8.838
65390SOL    HW198009   6.674   5.146   8.758
65390SOL    HW298010   6.574   5.145   8.871
65391SOL     OW98011  13.855   2.229   0.047
65391SOL    HW198012  13.894   2.279  14.851
65391SOL    HW298013  13.784   2.284   0.079
65392SOL     OW98014  10.810   4.023  12.831
65392SOL    HW198015  10.781   3.959  12.765
65392SOL    HW298016  10.832   3.970  12.908
65393SOL     OW98017   1.904   5.541  14.630
65393SOL    HW198018   1.849   5.506  14.701
65393SOL    HW298019   1.845   5.596  14.579
65394SOL     OW98020  11.215   4.724   9.320
65394SOL    HW198021  11.144   4.701   9.380
65394SOL    HW298022  11.248   4.640   9.289
65395SOL     OW98023   1.958   6.713  12.032
65395SOL    HW198024   1.916   6.750  12.110
65395SOL    HW298025   1.889   6.660  11.990
65396SOL     OW98026   4.317  13.086   8.328
65396SOL    HW198027   4.383  13.155   8.329
65396SOL    HW298028   4.365  13.007   8.302
65397SOL     OW98029  11.625  13.617  12.525
65397SOL    HW198030  11.598  13.704  12.553
65397SOL    HW298031  11.603  13.614  12.432
65398SOL     OW98032  11.026  10.679   1.098
65398SOL    HW198033  11.035  10.642   1.010
65398SOL    HW298034  10.966  10.752   1.088
65399SOL     OW98035   2.212   0.295   4.852
65399SOL    HW198036   2.137   0.249   4.889
65399SOL    HW298037   2.251   0.341   4.927
65400SOL     OW98038   6.392   1.103  12.371
65400SOL    HW198039   6.477   1.104  12.327
65400SOL    HW298040   6.402   1.041  12.443
65401SOL     OW98041  10.177   2.607  11.575
65401SOL    HW198042  10.095   2.562  11.598
65401SOL    HW298043  10.154   2.661  11.499
65402SOL     OW98044  11.047  10.264  11.928
65402SOL    HW198045  11.021  10.278  12.019
65402SOL    HW298046  10.982  10.204  11.893
65403SOL     OW98047   2.981  12.937  13.867
65403SOL    HW198048   2.949  12.888  13.791
65403SOL    HW298049   2.931  12.902  13.941
65404SOL     OW98050   2.309   1.736   0.138
65404SOL    HW198051   2.279   1.763   0.052
65404SOL    HW298052   2.394   1.779   0.148
65405SOL     OW98053   5.425   2.587   8.856
65405SOL    HW198054   5.401   2.518   8.795
65405SOL    HW298055   5.471   2.542   8.927
65406SOL     OW98056   6.346   7.498   8.661
65406SOL    HW198057   6.298   7.415   8.667
65406SOL    HW298058   6.438   7.472   8.663
65407SOL     OW98059   5.435   8.399  12.587
65407SOL    HW198060   5.477   8.382  12.503
65407SOL    HW298061   5.474   8.481  12.617
65408SOL     OW98062  14.558  12.318   8.911
65408SOL    HW198063  14.621  12.307   8.983
65408SOL    HW298064  14.611  12.314   8.832
65409SOL     OW98065   8.314   4.314  13.725
65409SOL    HW198066   8.252   4.340  13.793
65409SOL    HW298067   8.369   4.249  13.767
65410SOL     OW98068  10.931   1.384   5.509
65410SOL    HW198069  10.933   1.477   5.488
65410SOL    HW298070  10.946   1.340   5.426
65411SOL     OW98071   4.704   7.552  14.466
65411SOL    HW198072   4.703   7.642  14.498
65411SOL    HW298073   4.668   7.501  14.539
65412SOL     OW98074   1.801   0.589   2.217
65412SOL    HW198075   1.795   0.678   2.182
65412SOL    HW298076   1.870   0.593   2.283
65413SOL     OW98077   8.376   1.219   7.674
65413SOL    HW198078   8.323   1.146   7.705
65413SOL    HW298079   8.386   1.205   7.580
65414SOL     OW98080   8.573   5.002   4.685
65414SOL    HW198081   8.547   5.094   4.687
65414SOL    HW298082   8.669   5.004   4.686
65415SOL     OW98083   5.469   6.346   2.516
65415SOL    HW198084   5.400   6.280   2.526
65415SOL    HW298085   5.451   6.386   2.431
65416SOL     OW98086  14.854   6.729   1.061
65416SOL    HW198087  14.845   6.708   0.968
65416SOL    HW298088  14.779   6.687   1.102
65417SOL     OW98089  13.323  10.475   9.855
65417SOL    HW198090  13.286  10.498   9.941
65417SOL    HW298091  13.268  10.403   9.824
65418SOL     OW98092  11.997   3.245   4.421
65418SOL    HW198093  12.079   3.233   4.374
65418SOL    HW298094  12.004   3.331   4.461
65419SOL     OW98095   1.867  12.259   0.340
65419SOL    HW198096   1.908  12.304   0.414
65419SOL    HW298097   1.847  12.171   0.374
65420SOL     OW98098   8.754  14.760   1.901
65420SOL    HW198099   8.838  14.805   1.887
65420SOL    HW298100   8.763  14.677   1.853
65421SOL     OW98101   6.011  14.337   2.709
65421SOL    HW198102   6.077  14.400   2.683
65421SOL    HW298103   5.945  14.389   2.756
65422SOL     OW98104  12.530   2.230   7.451
65422SOL    HW198105  12.569   2.193   7.372
65422SOL    HW298106  12.448   2.269   7.422
65423SOL     OW98107  13.932   0.122   8.211
65423SOL    HW198108  14.001   0.180   8.178
65423SOL    HW298109  13.979   0.050   8.252
65424SOL     OW98110   8.544  14.564   8.240
65424SOL    HW198111   8.508  14.554   8.329
65424SOL    HW298112   8.569  14.476   8.214
65425SOL     OW98113   2.182   0.904   1.523
65425SOL    HW198114   2.170   0.977   1.461
65425SOL    HW298115   2.096   0.861   1.525
65426SOL     OW98116   9.502  12.358   7.323
65426SOL    HW198117   9.565  12.302   7.278
65426SOL    HW298118   9.548  12.442   7.331
65427SOL     OW98119   5.440   3.810   1.891
65427SOL    HW198120   5.472   3.813   1.981
65427SOL    HW298121   5.458   3.897   1.856
65428SOL     OW98122   3.348  14.482   7.130
65428SOL    HW198123   3.378  14.435   7.052
65428SOL    HW298124   3.402  14.561   7.132
65429SOL     OW98125   3.496  10.702  12.418
65429SOL    HW198126   3.555  10.648  12.365
65429SOL    HW298127   3.486  10.783  12.368
65430SOL     OW98128   1.808  10.485   2.561
65430SOL    HW198129   1.814  10.565   2.510
65430SOL    HW298130   1.763  10.511   2.641
65431SOL     OW98131  12.404   1.404   3.961
65431SOL    HW198132  12.489   1.363   3.979
65431SOL    HW298133  12.347   1.330   3.938
65432SOL     OW98134   6.283  12.169   4.124
65432SOL    HW198135   6.270  12.133   4.036
65432SOL    HW298136   6.264  12.262   4.114
65433SOL     OW98137  10.303  14.516   2.547
65433SOL    HW198138  10.228  14.517   2.607
65433SOL    HW298139  10.374  14.558   2.597
65434SOL     OW98140   7.729  11.851   2.438
65434SOL    HW198141   7.714  11.884   2.349
65434SOL    HW298142   7.715  11.757   2.431
65435SOL     OW98143   0.762   8.685   6.757
65435SOL    HW198144   0.750   8.691   6.852
65435SOL    HW298145   0.810   8.603   6.744
65436SOL     OW98146   4.525  11.849   7.193
65436SOL    HW198147   4.558  11.898   7.117
65436SOL    HW298148   4.508  11.761   7.159
65437SOL     OW98149   3.970   7.087   2.255
65437SOL    HW198150   3.982   6.992   2.247
65437SOL    HW298151   3.949   7.115   2.166
65438SOL     OW98152   8.951  12.481   5.308
65438SOL    HW198153   9.022  12.463   5.246
65438SOL    HW298154   8.913  12.563   5.276
65439SOL     OW98155   1.004   8.874  13.977
65439SOL    HW198156   1.053   8.798  14.008
65439SOL    HW298157   0.956   8.841  13.901
65440SOL     OW98158   8.217   2.809   1.409
65440SOL    HW198159   8.197   2.824   1.317
65440SOL    HW298160   8.311   2.821   1.416
65441SOL     OW98161  11.314   5.551  11.934
65441SOL    HW198162  11.281   5.505  12.012
65441SOL    HW298163  11.351   5.632  11.969
65442SOL     OW98164   3.229   0.107  13.828
65442SOL    HW198165   3.138   0.122  13.855
65442SOL    HW298166   3.279   0.109  13.910
65443SOL     OW98167   9.984  13.482   6.664
65443SOL    HW198168  10.060  13.428   6.686
65443SOL    HW298169   9.914  13.449   6.720
65444SOL     OW98170   9.937   5.610   8.037
65444SOL    HW198171  10.006   5.657   8.086
65444SOL    HW298172   9.856   5.655   8.060
65445SOL     OW98173  11.686   4.823   5.662
65445SOL    HW198174  11.669   4.870   5.581
65445SOL    HW298175  11.781   4.818   5.668
65446SOL     OW98176   9.308  13.547   3.676
65446SOL    HW198177   9.302  13.529   3.769
65446SOL    HW298178   9.397  13.579   3.662
65447SOL     OW98179   9.207   2.525   9.924
65447SOL    HW198180   9.111   2.526   9.916
65447SOL    HW298181   9.227   2.436   9.953
65448SOL     OW98182   0.195   3.706   5.912
65448SOL    HW198183   0.219   3.767   5.842
65448SOL    HW298184   0.184   3.762   5.989
65449SOL     OW98185   6.837  14.619   7.609
65449SOL    HW198186   6.758  14.662   7.641
65449SOL    HW298187   6.808  14.533   7.580
65450SOL     OW98188  11.988  10.518   5.832
65450SOL    HW198189  12.076  10.479   5.835
65450SOL    HW298190  11.969  10.526   5.739
65451SOL     OW98191   0.174  11.370   5.537
65451SOL    HW198192   0.151  11.431   5.607
65451SOL    HW298193   0.228  11.421   5.477
65452SOL     OW98194   4.067   3.885   0.967
65452SOL    HW198195   4.033   3.797   0.956
65452SOL    HW298196   4.028   3.916   1.049
65453SOL     OW98197   4.907  10.691   8.247
65453SOL    HW198198   4.988  10.653   8.212
65453SOL    HW298199   4.928  10.712   8.338
65454SOL     OW98200  12.267  12.787  13.256
65454SOL    HW198201  12.226  12.750  13.334
65454SOL    HW298202  12.205  12.854  13.226
65455SOL     OW98203   5.073   4.465   7.475
65455SOL    HW198204   5.007   4.505   7.533
65455SOL    HW298205   5.140   4.532   7.465
65456SOL     OW98206   7.345  10.937   7.197
65456SOL    HW198207   7.359  10.934   7.102
65456SOL    HW298208   7.301  10.854   7.217
65457SOL     OW98209   8.070   8.748   6.407
65457SOL    HW198210   8.006   8.816   6.429
65457SOL    HW298211   8.047   8.674   6.463
65458SOL     OW98212   2.629  10.175   4.083
65458SOL    HW198213   2.721  10.158   4.062
65458SOL    HW298214   2.584  10.172   3.998
65459SOL     OW98215  14.228   4.867   5.395
65459SOL    HW198216  14.134   4.857   5.411
65459SOL    HW298217  14.267   4.866   5.483
65460SOL     OW98218   2.929   3.924  13.933
65460SOL    HW198219   2.840   3.928  13.897
65460SOL    HW298220   2.984   3.961  13.863
65461SOL     OW98221   2.703  13.304   8.982
65461SOL    HW198222   2.611  13.277   8.980
65461SOL    HW298223   2.728  13.311   8.890
65462SOL     OW98224  13.958  12.186   2.093
65462SOL    HW198225  13.888  12.250   2.106
65462SOL    HW298226  14.035  12.228   2.131
65463SOL     OW98227  14.362  12.409  13.675
65463SOL    HW198228  14.346  12.460  13.596
65463SOL    HW298229  14.275  12.381  13.703
65464SOL     OW98230  12.558  11.200   1.186
65464SOL    HW198231  12.469  11.234   1.172
65464SOL    HW298232  12.550  11.146   1.265
65465SOL     OW98233  10.731   0.543   7.917
65465SOL    HW198234  10.756   0.453   7.937
65465SOL    HW298235  10.713   0.582   8.002
65466SOL     OW98236   4.216   5.781  12.327
65466SOL    HW198237   4.205   5.716  12.258
65466SOL    HW298238   4.225   5.864  12.281
65467SOL     OW98239   5.276   5.604  13.598
65467SOL    HW198240   5.277   5.699  13.594
65467SOL    HW298241   5.199   5.578  13.548
65468SOL     OW98242   8.624   3.203  14.742
65468SOL    HW198243   8.691   3.182  14.678
65468SOL    HW298244   8.668   3.197  14.827
65469SOL     OW98245  11.648   5.362   8.122
65469SOL    HW198246  11.648   5.458   8.123
65469SOL    HW298247  11.683   5.339   8.036
65470SOL     OW98248   0.595   2.218   5.429
65470SOL    HW198249   0.517   2.170   5.403
65470SOL    HW298250   0.665   2.180   5.375
65471SOL     OW98251  12.179   8.507   1.984
65471SOL    HW198252  12.244   8.456   2.031
65471SOL    HW298253  12.116   8.443   1.951
65472SOL     OW98254   2.570  11.545   1.107
65472SOL    HW198255   2.595  11.526   1.197
65472SOL    HW298256   2.647  11.586   1.068
65473SOL     OW98257  13.590   3.555   5.817
65473SOL    HW198258  13.589   3.590   5.906
65473SOL    HW298259  13.618   3.629   5.762
65474SOL     OW98260  14.330   6.858   1.691
65474SOL    HW198261  14.336   6.767   1.721
65474SOL    HW298262  14.354   6.910   1.767
65475SOL     OW98263   9.305  14.761  12.066
65475SOL    HW198264   9.379  14.710  12.101
65475SOL    HW298265   9.275  14.813  12.141
65476SOL     OW98266  13.211   6.631  12.649
65476SOL    HW198267  13.261   6.713  12.654
65476SOL    HW298268  13.163   6.638  12.567
65477SOL     OW98269  12.249   5.558   6.870
65477SOL    HW198270  12.287   5.475   6.896
65477SOL    HW298271  12.314   5.624   6.894
65478SOL     OW98272   9.309  10.201   7.603
65478SOL    HW198273   9.396  10.168   7.582
65478SOL    HW298274   9.324  10.263   7.675
65479SOL     OW98275   9.487  14.568   1.459
65479SOL    HW198276   9.537  14.632   1.509
65479SOL    HW298277   9.404  14.561   1.506
65480SOL     OW98278   4.662  12.141  10.155
65480SOL    HW198279   4.743  12.186  10.130
65480SOL    HW298280   4.604  12.151  10.079
65481SOL     OW98281   8.755   1.447   0.123
65481SOL    HW198282   8.756   1.535   0.161
65481SOL    HW298283   8.692   1.398   0.177
65482SOL     OW98284  13.600   8.608   1.701
65482SOL    HW198285  13.628   8.687   1.656
65482SOL    HW298286  13.540   8.638   1.768
65483SOL     OW98287   7.369   9.499   5.701
65483SOL    HW198288   7.350   9.557   5.775
65483SOL    HW298289   7.327   9.416   5.724
65484SOL     OW98290  14.458   1.542   8.839
65484SOL    HW198291  14.367   1.554   8.814
65484SOL    HW298292  14.504   1.529   8.756
65485SOL     OW98293  10.647   5.286  11.103
65485SOL    HW198294  10.728   5.336  11.098
65485SOL    HW298295  10.653   5.236  11.185
65486SOL     OW98296   4.668  14.354   7.153
65486SOL    HW198297   4.629  14.440   7.137
65486SOL    HW298298   4.706  14.361   7.241
65487SOL     OW98299   2.547   8.674  10.080
65487SOL    HW198300   2.602   8.596  10.073
65487SOL    HW298301   2.498   8.676   9.998
65488SOL     OW98302   5.688   2.569   0.723
65488SOL    HW198303   5.640   2.650   0.741
65488SOL    HW298304   5.638   2.528   0.653
65489SOL     OW98305   3.487   9.266   4.518
65489SOL    HW198306   3.511   9.223   4.600
65489SOL    HW298307   3.525   9.211   4.450
65490SOL     OW98308  10.557  10.261  10.947
65490SOL    HW198309  10.621  10.332  10.940
65490SOL    HW298310  10.488  10.284  10.885
65491SOL     OW98311  12.671  10.328  10.499
65491SOL    HW198312  12.676  10.413  10.542
65491SOL    HW298313  12.618  10.274  10.557
65492SOL     OW98314   0.342  11.104   0.765
65492SOL    HW198315   0.285  11.036   0.731
65492SOL    HW298316   0.327  11.179   0.708
65493SOL     OW98317   2.605   2.705   0.828
65493SOL    HW198318   2.624   2.770   0.760
65493SOL    HW298319   2.686   2.701   0.880
65494SOL     OW98320   9.637  11.001   5.725
65494SOL    HW198321   9.667  10.924   5.676
65494SOL    HW298322   9.547  10.981   5.748
65495SOL     OW98323  11.639   2.958  11.520
65495SOL    HW198324  11.680   2.927  11.601
65495SOL    HW298325  11.712   2.976  11.461
65496SOL     OW98326   8.842  12.552   6.018
65496SOL    HW198327   8.915  12.601   6.056
65496SOL    HW298328   8.790  12.525   6.094
65497SOL     OW98329   4.958  10.778  11.153
65497SOL    HW198330   4.906  10.828  11.090
65497SOL    HW298331   5.049  10.797  11.128
65498SOL     OW98332   8.599  11.574   0.186
65498SOL    HW198333   8.685  11.560   0.226
65498SOL    HW298334   8.544  11.505   0.223
65499SOL     OW98335   6.368   5.274   5.428
65499SOL    HW198336   6.385   5.190   5.472
65499SOL    HW298337   6.275   5.291   5.445
65500SOL     OW98338   1.026   9.131  10.419
65500SOL    HW198339   1.088   9.134  10.346
65500SOL    HW298340   0.942   9.109  10.378
65501SOL     OW98341  10.841   8.586   4.731
65501SOL    HW198342  10.839   8.630   4.646
65501SOL    HW298343  10.920   8.619   4.773
65502SOL     OW98344   9.886   9.596   2.712
65502SOL    HW198345   9.878   9.690   2.728
65502SOL    HW298346   9.824   9.579   2.640
65503SOL     OW98347  13.471  12.694   2.076
65503SOL    HW198348  13.416  12.772   2.086
65503SOL    HW298349  13.509  12.702   1.988
65504SOL     OW98350  12.046   8.486   5.501
65504SOL    HW198351  12.107   8.425   5.543
65504SOL    HW298352  11.998   8.432   5.438
65505SOL     OW98353  14.365   7.312   9.518
65505SOL    HW198354  14.311   7.234   9.533
65505SOL    HW298355  14.314   7.365   9.458
65506SOL     OW98356   3.784   1.954   8.874
65506SOL    HW198357   3.797   2.049   8.868
65506SOL    HW298358   3.869   1.920   8.902
65507SOL     OW98359   7.952   0.052  12.591
65507SOL    HW198360   7.902  14.850  12.614
65507SOL    HW298361   8.042   0.031  12.613
65508SOL     OW98362  10.536  12.318  13.208
65508SOL    HW198363  10.484  12.265  13.268
65508SOL    HW298364  10.474  12.381  13.171
65509SOL     OW98365   5.235   6.666  11.957
65509SOL    HW198366   5.252   6.752  11.995
65509SOL    HW298367   5.318   6.641  11.916
65510SOL     OW98368  13.988  12.726  14.346
65510SOL    HW198369  13.930  12.650  14.338
65510SOL    HW298370  14.059  12.708  14.284
65511SOL     OW98371   1.857   9.699   9.071
65511SOL    HW198372   1.768   9.729   9.054
65511SOL    HW298373   1.901   9.705   8.986
65512SOL     OW98374  12.747  10.976  13.467
65512SOL    HW198375  12.681  11.043  13.452
65512SOL    HW298376  12.821  11.003  13.412
65513SOL     OW98377   5.278   5.949   9.538
65513SOL    HW198378   5.304   5.938   9.447
65513SOL    HW298379   5.348   6.000   9.578
65514SOL     OW98380   0.140   6.067   2.555
65514SOL    HW198381   0.046   6.084   2.554
65514SOL    HW298382   0.164   6.052   2.464
65515SOL     OW98383  14.430   5.242  11.451
65515SOL    HW198384  14.416   5.319  11.506
65515SOL    HW298385  14.355   5.186  11.467
65516SOL     OW98386  13.223  10.504   3.116
65516SOL    HW198387  13.223  10.427   3.172
65516SOL    HW298388  13.137  10.503   3.073
65517SOL     OW98389   3.370  11.064   0.382
65517SOL    HW198390   3.350  10.974   0.410
65517SOL    HW298391   3.393  11.055   0.290
65518SOL     OW98392   3.188   1.243   2.031
65518SOL    HW198393   3.219   1.306   2.097
65518SOL    HW298394   3.173   1.296   1.953
65519SOL     OW98395   4.953  11.137   8.185
65519SOL    HW198396   4.928  11.073   8.252
65519SOL    HW298397   4.871  11.159   8.141
65520SOL     OW98398   6.541   5.041  11.898
65520SOL    HW198399   6.470   5.100  11.924
65520SOL    HW298400   6.618   5.097  11.894
65521SOL     OW98401   0.067   2.580   2.483
65521SOL    HW198402   0.080   2.658   2.538
65521SOL    HW298403   0.012   2.611   2.411
65522SOL     OW98404   7.217   4.034  10.027
65522SOL    HW198405   7.203   4.128  10.016
65522SOL    HW298406   7.311   4.022  10.017
65523SOL     OW98407   8.479   0.507   6.924
65523SOL    HW198408   8.530   0.493   7.004
65523SOL    HW298409   8.459   0.419   6.892
65524SOL     OW98410  10.242   1.881   0.217
65524SOL    HW198411  10.178   1.916   0.155
65524SOL    HW298412  10.321   1.934   0.203
65525SOL     OW98413  13.884   4.137   5.306
65525SOL    HW198414  13.974   4.109   5.327
65525SOL    HW298415  13.862   4.088   5.227
65526SOL     OW98416  11.003  14.661   2.678
65526SOL    HW198417  11.013  14.610   2.758
65526SOL    HW298418  11.090  14.662   2.639
65527SOL     OW98419   4.421   3.392  12.066
65527SOL    HW198420   4.363   3.420  11.995
65527SOL    HW298421   4.494   3.349  12.023
65528SOL     OW98422   9.925   7.805   2.142
65528SOL    HW198423   9.904   7.783   2.233
65528SOL    HW298424   9.906   7.899   2.137
65529SOL     OW98425   4.049   5.420   3.931
65529SOL    HW198426   4.019   5.366   4.004
65529SOL    HW298427   3.973   5.470   3.905
65530SOL     OW98428   9.599  11.982   6.034
65530SOL    HW198429   9.526  11.981   6.097
65530SOL    HW298430   9.677  11.982   6.089
65531SOL     OW98431   8.695  14.692  12.963
65531SOL    HW198432   8.714  14.635  12.888
65531SOL    HW298433   8.622  14.747  12.934
65532SOL     OW98434   2.238   2.547   7.838
65532SOL    HW198435   2.188   2.491   7.897
65532SOL    HW298436   2.322   2.503   7.828
65533SOL     OW98437   3.555   8.068  13.313
65533SOL    HW198438   3.472   8.029  13.342
65533SOL    HW298439   3.620   8.034  13.375
65534SOL     OW98440   9.632   1.173  11.298
65534SOL    HW198441   9.694   1.169  11.225
65534SOL    HW298442   9.687   1.189  11.375
65535SOL     OW98443   1.351   3.516   0.309
65535SOL    HW198444   1.261   3.501   0.279
65535SOL    HW298445   1.364   3.453   0.380
65536SOL     OW98446   7.928   9.757   4.278
65536SOL    HW198447   7.852   9.797   4.237
65536SOL    HW298448   7.897   9.730   4.365
65537SOL     OW98449   2.578   6.370   2.427
65537SOL    HW198450   2.544   6.451   2.466
65537SOL    HW298451   2.671   6.387   2.413
65538SOL     OW98452  14.772   8.557   8.455
65538SOL    HW198453  14.824   8.623   8.408
65538SOL    HW298454  14.822   8.476   8.447
65539SOL     OW98455  11.457   1.249   6.711
65539SOL    HW198456  11.512   1.180   6.672
65539SOL    HW298457  11.410   1.205   6.781
65540SOL     OW98458   3.071   9.861  11.821
65540SOL    HW198459   3.151   9.824  11.783
65540SOL    HW298460   3.028   9.904  11.748
65541SOL     OW98461   6.089  13.402   9.509
65541SOL    HW198462   6.051  13.317   9.534
65541SOL    HW298463   6.038  13.466   9.559
65542SOL     OW98464   1.553   5.031   0.128
65542SOL    HW198465   1.594   5.007   0.211
65542SOL    HW298466   1.565   5.126   0.123
65543SOL     OW98467   5.115  11.083   6.016
65543SOL    HW198468   5.178  11.109   5.949
65543SOL    HW298469   5.044  11.146   6.009
65544SOL     OW98470   2.780   7.548   6.935
65544SOL    HW198471   2.778   7.552   6.840
65544SOL    HW298472   2.741   7.463   6.956
65545SOL     OW98473  13.784   8.089  13.264
65545SOL    HW198474  13.696   8.058  13.247
65545SOL    HW298475  13.841   8.023  13.225
65546SOL     OW98476  11.510   5.229   6.625
65546SOL    HW198477  11.570   5.304   6.633
65546SOL    HW298478  11.542   5.167   6.691
65547SOL     OW98479   6.439  11.594   8.088
65547SOL    HW198480   6.363  11.562   8.135
65547SOL    HW298481   6.514  11.566   8.141
65548SOL     OW98482   1.978   5.140   7.968
65548SOL    HW198483   1.967   5.092   7.886
65548SOL    HW298484   2.023   5.080   8.026
65549SOL     OW98485   0.895   8.268  11.093
65549SOL    HW198486   0.932   8.217  11.021
65549SOL    HW298487   0.803   8.280  11.069
65550SOL     OW98488   1.823   5.188  14.161
65550SOL    HW198489   1.840   5.277  14.191
65550SOL    HW298490   1.866   5.132  14.226
65551SOL     OW98491   8.450   3.280   0.184
65551SOL    HW198492   8.541   3.287   0.155
65551SOL    HW298493   8.425   3.190   0.161
65552SOL     OW98494   4.959   6.187   8.668
65552SOL    HW198495   5.016   6.201   8.744
65552SOL    HW298496   5.006   6.227   8.595
65553SOL     OW98497   8.350  11.172  12.657
65553SOL    HW198498   8.324  11.200  12.745
65553SOL    HW298499   8.267  11.149  12.614
65554SOL     OW98500   2.611   3.383  13.573
65554SOL    HW198501   2.575   3.380  13.484
65554SOL    HW298502   2.705   3.399  13.560
65555SOL     OW98503  10.468  13.655   7.030
65555SOL    HW198504  10.473  13.599   7.108
65555SOL    HW298505  10.536  13.621   6.972
65556SOL     OW98506   9.409   5.722   7.117
65556SOL    HW198507   9.322   5.719   7.076
65556SOL    HW298508   9.392   5.702   7.209
65557SOL     OW98509   1.024   6.898  10.697
65557SOL    HW198510   1.096   6.835  10.696
65557SOL    HW298511   0.991   6.895  10.787
65558SOL     OW98512   7.145   2.152   2.555
65558SOL    HW198513   7.209   2.138   2.486
65558SOL    HW298514   7.111   2.240   2.539
65559SOL     OW98515   9.975  12.390   3.659
65559SOL    HW198516   9.947  12.309   3.702
65559SOL    HW298517  10.042  12.362   3.596
65560SOL     OW98518   4.155   4.961   3.882
65560SOL    HW198519   4.173   4.869   3.902
65560SOL    HW298520   4.157   5.006   3.966
65561SOL     OW98521   0.188   5.573   5.792
65561SOL    HW198522   0.228   5.541   5.711
65561SOL    HW298523   0.181   5.667   5.780
65562SOL     OW98524   6.190   9.553  10.200
65562SOL    HW198525   6.274   9.587  10.229
65562SOL    HW298526   6.132   9.563  10.275
65563SOL     OW98527   9.377   9.169   8.955
65563SOL    HW198528   9.461   9.191   8.916
65563SOL    HW298529   9.397   9.136   9.042
65564SOL     OW98530  12.002  11.714   9.887
65564SOL    HW198531  11.931  11.746   9.831
65564SOL    HW298532  11.995  11.619   9.882
65565SOL     OW98533   1.230   8.142   3.348
65565SOL    HW198534   1.306   8.105   3.303
65565SOL    HW298535   1.171   8.067   3.361
65566SOL     OW98536  13.023  11.753  14.346
65566SOL    HW198537  13.112  11.743  14.312
65566SOL    HW298538  13.014  11.846  14.365
65567SOL     OW98539   7.762  11.843  12.770
65567SOL    HW198540   7.825  11.814  12.704
65567SOL    HW298541   7.766  11.938  12.767
65568SOL     OW98542   7.680  10.831   4.737
65568SOL    HW198543   7.689  10.815   4.643
65568SOL    HW298544   7.634  10.914   4.743
65569SOL     OW98545   6.845   8.175   6.402
65569SOL    HW198546   6.938   8.164   6.422
65569SOL    HW298547   6.813   8.087   6.384
65570SOL     OW98548   2.968   2.496  10.845
65570SOL    HW198549   2.885   2.533  10.873
65570SOL    HW298550   3.015   2.570  10.805
65571SOL     OW98551   2.801  14.522   8.429
65571SOL    HW198552   2.714  14.543   8.395
65571SOL    HW298553   2.826  14.598   8.481
65572SOL     OW98554   2.779   6.355   8.386
65572SOL    HW198555   2.846   6.420   8.403
65572SOL    HW298556   2.818   6.296   8.321
65573SOL     OW98557   2.660   9.095   4.278
65573SOL    HW198558   2.673   9.047   4.196
65573SOL    HW298559   2.583   9.054   4.318
65574SOL     OW98560   7.868   7.428  12.435
65574SOL    HW198561   7.827   7.348  12.467
65574SOL    HW298562   7.816   7.498  12.472
65575SOL     OW98563  13.182  12.206   9.202
65575SOL    HW198564  13.186  12.141   9.272
65575SOL    HW298565  13.114  12.173   9.143
65576SOL     OW98566   2.980   4.738   4.205
65576SOL    HW198567   2.908   4.683   4.173
65576SOL    HW298568   3.040   4.744   4.131
65577SOL     OW98569   9.168   9.325   6.103
65577SOL    HW198570   9.203   9.414   6.101
65577SOL    HW298571   9.098   9.325   6.037
65578SOL     OW98572  10.446   9.130  13.068
65578SOL    HW198573  10.527   9.097  13.107
65578SOL    HW298574  10.407   9.184  13.136
65579SOL     OW98575   3.104  13.018  12.366
65579SOL    HW198576   3.069  13.050  12.450
65579SOL    HW298577   3.127  13.097  12.318
65580SOL     OW98578   7.819  12.562   5.687
65580SOL    HW198579   7.851  12.530   5.603
65580SOL    HW298580   7.867  12.512   5.752
65581SOL     OW98581   8.520   2.040   6.516
65581SOL    HW198582   8.427   2.049   6.537
65581SOL    HW298583   8.546   2.127   6.487
65582SOL     OW98584   7.875   6.663  12.018
65582SOL    HW198585   7.866   6.570  11.996
65582SOL    HW298586   7.786   6.693  12.037
65583SOL     OW98587  13.690  13.325  14.860
65583SOL    HW198588  13.666  13.417  14.871
65583SOL    HW298589  13.679  13.307  14.767
65584SOL     OW98590   6.417   1.286  14.315
65584SOL    HW198591   6.439   1.326  14.231
65584SOL    HW298592   6.323   1.268  14.309
65585SOL     OW98593  12.595   6.939  12.598
65585SOL    HW198594  12.623   6.848  12.606
65585SOL    HW298595  12.596   6.956  12.503
65586SOL     OW98596   1.678   2.568   9.751
65586SOL    HW198597   1.771   2.591   9.747
65586SOL    HW298598   1.640   2.633   9.811
65587SOL     OW98599   3.931   8.608  13.322
65587SOL    HW198600   3.999   8.590  13.256
65587SOL    HW298601   3.856   8.638  13.271
65588SOL     OW98602   7.126   2.061  10.378
65588SOL    HW198603   7.201   2.002  10.370
65588SOL    HW298604   7.052   2.010  10.347
65589SOL     OW98605   5.783   1.315   3.907
65589SOL    HW198606   5.760   1.222   3.913
65589SOL    HW298607   5.876   1.317   3.929
65590SOL     OW98608   3.002   1.086   9.225
65590SOL    HW198609   3.070   1.041   9.275
65590SOL    HW298610   3.003   1.043   9.139
65591SOL     OW98611   2.596   7.992  10.704
65591SOL    HW198612   2.669   8.050  10.685
65591SOL    HW298613   2.626   7.905  10.678
65592SOL     OW98614   9.807  13.746   5.965
65592SOL    HW198615   9.842  13.669   6.008
65592SOL    HW298616   9.836  13.819   6.019
65593SOL     OW98617   5.172   0.586  12.527
65593SOL    HW198618   5.132   0.622  12.448
65593SOL    HW298619   5.126   0.630  12.599
65594SOL     OW98620   4.672   9.474  10.996
65594SOL    HW198621   4.664   9.510  11.084
65594SOL    HW298622   4.620   9.393  10.998
65595SOL     OW98623  14.422   1.925   0.974
65595SOL    HW198624  14.373   1.925   0.892
65595SOL    HW298625  14.377   1.862   1.030
65596SOL     OW98626   2.376   0.002   0.448
65596SOL    HW198627   2.350   0.077   0.501
65596SOL    HW298628   2.297  14.826   0.440
65597SOL     OW98629   0.473  10.940  12.845
65597SOL    HW198630   0.442  10.886  12.773
65597SOL    HW298631   0.469  11.030  12.812
65598SOL     OW98632   9.943  10.283  14.065
65598SOL    HW198633   9.892  10.364  14.054
65598SOL    HW298634   9.931  10.236  13.982
65599SOL     OW98635   3.271   6.883  11.703
65599SOL    HW198636   3.268   6.940  11.780
65599SOL    HW298637   3.197   6.824  11.714
65600SOL     OW98638   5.716   0.105   8.376
65600SOL    HW198639   5.713   0.189   8.331
65600SOL    HW298640   5.758   0.124   8.460
65601SOL     OW98641   1.140   0.532  10.106
65601SOL    HW198642   1.203   0.531  10.033
65601SOL    HW298643   1.141   0.623  10.137
65602SOL     OW98644   2.888   7.201  12.314
65602SOL    HW198645   2.973   7.159  12.318
65602SOL    HW298646   2.881   7.233  12.224
65603SOL     OW98647  11.601   7.563   8.183
65603SOL    HW198648  11.673   7.609   8.227
65603SOL    HW298649  11.588   7.611   8.101
65604SOL     OW98650  12.522  12.205  11.462
65604SOL    HW198651  12.552  12.116  11.443
65604SOL    HW298652  12.602  12.257  11.468
65605SOL     OW98653   2.205  12.972   0.195
65605SOL    HW198654   2.139  13.008   0.254
65605SOL    HW298655   2.260  13.047   0.170
65606SOL     OW98656   9.801   6.299   5.220
65606SOL    HW198657   9.738   6.369   5.237
65606SOL    HW298658   9.801   6.247   5.300
65607SOL     OW98659   6.054  12.914   9.196
65607SOL    HW198660   6.079  12.844   9.135
65607SOL    HW298661   5.996  12.970   9.145
65608SOL     OW98662   6.953   8.508   6.931
65608SOL    HW198663   6.915   8.552   7.007
65608SOL    HW298664   6.923   8.417   6.937
65609SOL     OW98665   5.650   7.368  11.887
65609SOL    HW198666   5.702   7.435  11.932
65609SOL    HW298667   5.714   7.302  11.860
65610SOL     OW98668   2.970   0.483  13.007
65610SOL    HW198669   2.962   0.553  12.943
65610SOL    HW298670   2.899   0.422  12.985
65611SOL     OW98671   6.998   5.224   7.978
65611SOL    HW198672   6.976   5.153   7.917
65611SOL    HW298673   6.916   5.272   7.989
65612SOL     OW98674   6.928   3.194   3.974
65612SOL    HW198675   6.980   3.153   4.043
65612SOL    HW298676   6.879   3.263   4.019
65613SOL     OW98677   1.318  11.934   4.454
65613SOL    HW198678   1.308  11.914   4.361
65613SOL    HW298679   1.345  11.852   4.494
65614SOL     OW98680   2.095  10.652   0.137
65614SOL    HW198681   2.046  10.570   0.136
65614SOL    HW298682   2.182  10.627   0.167
65615SOL     OW98683  10.743   0.951  11.593
65615SOL    HW198684  10.837   0.960  11.605
65615SOL    HW298685  10.728   0.979  11.502
65616SOL     OW98686  10.037  10.461   8.755
65616SOL    HW198687  10.102  10.526   8.728
65616SOL    HW298688  10.017  10.483   8.846
65617SOL     OW98689  11.594   9.427   0.743
65617SOL    HW198690  11.612   9.340   0.779
65617SOL    HW298691  11.499   9.429   0.731
65618SOL     OW98692   3.380  11.866  13.473
65618SOL    HW198693   3.403  11.776  13.451
65618SOL    HW298694   3.464  11.906  13.498
65619SOL     OW98695   8.428   8.737  14.744
65619SOL    HW198696   8.404   8.775  14.659
65619SOL    HW298697   8.411   8.643  14.733
65620SOL     OW98698   3.513  11.307  12.518
65620SOL    HW198699   3.458  11.377  12.554
65620SOL    HW298700   3.559  11.271  12.594
65621SOL     OW98701  11.499  10.718  12.875
65621SOL    HW198702  11.463  10.784  12.935
65621SOL    HW298703  11.451  10.733  12.793
65622SOL     OW98704   3.945   5.531  14.232
65622SOL    HW198705   4.012   5.597  14.218
65622SOL    HW298706   3.895   5.530  14.151
65623SOL     OW98707   3.823  12.638   2.138
65623SOL    HW198708   3.872  12.647   2.056
65623SOL    HW298709   3.869  12.694   2.200
65624SOL     OW98710  13.564   8.763   1.319
65624SOL    HW198711  13.480   8.749   1.363
65624SOL    HW298712  13.620   8.799   1.388
65625SOL     OW98713   7.407  11.303   1.823
65625SOL    HW198714   7.324  11.281   1.779
65625SOL    HW298715   7.390  11.385   1.867
65626SOL     OW98716  13.628  10.043  13.606
65626SOL    HW198717  13.588  10.120  13.564
65626SOL    HW298718  13.722  10.061  13.604
65627SOL     OW98719  14.387   4.431   4.529
65627SOL    HW198720  14.354   4.484   4.602
65627SOL    HW298721  14.347   4.470   4.451
65628SOL     OW98722   7.881  14.310  13.395
65628SOL    HW198723   7.961  14.273  13.358
65628SOL    HW298724   7.818  14.309  13.322
65629SOL     OW98725   7.411   4.639  13.263
65629SOL    HW198726   7.398   4.556  13.309
65629SOL    HW298727   7.431   4.614  13.173
65630SOL     OW98728  12.911   9.040  11.496
65630SOL    HW198729  12.918   9.098  11.419
65630SOL    HW298730  13.001   9.009  11.509
65631SOL     OW98731  12.355  13.365   4.781
65631SOL    HW198732  12.346  13.459   4.769
65631SOL    HW298733  12.346  13.329   4.693
65632SOL     OW98734   9.730   6.512  11.231
65632SOL    HW198735   9.808   6.565  11.248
65632SOL    HW298736   9.661   6.553  11.283
65633SOL     OW98737  13.913   9.870  10.705
65633SOL    HW198738  13.832   9.826  10.680
65633SOL    HW298739  13.906   9.880  10.800
65634SOL     OW98740  14.614  13.897  14.575
65634SOL    HW198741  14.608  13.844  14.654
65634SOL    HW298742  14.656  13.978  14.603
65635SOL     OW98743   2.949   2.642  10.475
65635SOL    HW198744   3.008   2.659  10.549
65635SOL    HW298745   2.978   2.557  10.442
65636SOL     OW98746  13.810   8.424   4.573
65636SOL    HW198747  13.884   8.467   4.617
65636SOL    HW298748  13.742   8.421   4.639
65637SOL     OW98749  13.939   1.340  14.334
65637SOL    HW198750  13.989   1.261  14.354
65637SOL    HW298751  13.922   1.335  14.240
65638SOL     OW98752   3.511   9.705  11.145
65638SOL    HW198753   3.498   9.800  11.148
65638SOL    HW298754   3.480   9.680  11.058
65639SOL     OW98755  11.002  11.176  11.318
65639SOL    HW198756  10.908  11.186  11.302
65639SOL    HW298757  11.032  11.118  11.248
65640SOL     OW98758  12.328   2.376   8.455
65640SOL    HW198759  12.249   2.339   8.493
65640SOL    HW298760  12.307   2.468   8.440
65641SOL     OW98761   6.063  10.137   2.044
65641SOL    HW198762   6.027  10.144   2.132
65641SOL    HW298763   6.029  10.214   1.998
65642SOL     OW98764   6.001   4.766  10.503
65642SOL    HW198765   6.004   4.688  10.447
65642SOL    HW298766   5.908   4.789  10.505
65643SOL     OW98767   3.941  13.509   5.953
65643SOL    HW198768   3.924  13.415   5.947
65643SOL    HW298769   3.885  13.540   6.024
65644SOL     OW98770  13.751   2.761   8.914
65644SOL    HW198771  13.683   2.696   8.904
65644SOL    HW298772  13.707   2.836   8.954
65645SOL     OW98773  14.236   3.980   1.853
65645SOL    HW198774  14.164   3.957   1.795
65645SOL    HW298775  14.307   3.920   1.828
65646SOL     OW98776   4.072   0.835   6.372
65646SOL    HW198777   4.115   0.750   6.388
65646SOL    HW298778   3.979   0.815   6.376
65647SOL     OW98779   5.279  12.153   9.491
65647SOL    HW198780   5.260  12.223   9.555
65647SOL    HW298781   5.244  12.074   9.531
65648SOL     OW98782  14.238   5.467   9.077
65648SOL    HW198783  14.294   5.433   9.008
65648SOL    HW298784  14.156   5.490   9.033
65649SOL     OW98785   0.501  10.529   6.105
65649SOL    HW198786   0.475  10.557   6.017
65649SOL    HW298787   0.437  10.570   6.163
65650SOL     OW98788   1.931   1.051   2.874
65650SOL    HW198789   1.979   1.130   2.898
65650SOL    HW298790   1.995   0.997   2.828
65651SOL     OW98791   7.079   3.918  11.428
65651SOL    HW198792   7.056   4.001  11.386
65651SOL    HW298793   6.997   3.870  11.432
65652SOL     OW98794   7.457  13.041   2.904
65652SOL    HW198795   7.499  12.973   2.850
65652SOL    HW298796   7.487  13.123   2.865
65653SOL     OW98797   1.900   0.411   3.170
65653SOL    HW198798   1.913   0.336   3.113
65653SOL    HW298799   1.811   0.403   3.202
65654SOL     OW98800   2.071   8.107   3.722
65654SOL    HW198801   2.038   8.171   3.785
65654SOL    HW298802   2.127   8.159   3.664
65655SOL     OW98803   3.784   9.237   3.389
65655SOL    HW198804   3.828   9.173   3.333
65655SOL    HW298805   3.809   9.322   3.354
65656SOL     OW98806   2.160  13.539  10.540
65656SOL    HW198807   2.128  13.609  10.597
65656SOL    HW298808   2.084  13.481  10.528
65657SOL     OW98809  14.388   1.889  12.895
65657SOL    HW198810  14.413   1.923  12.981
65657SOL    HW298811  14.294   1.904  12.889
65658SOL     OW98812  12.118   9.085   0.690
65658SOL    HW198813  12.133   9.156   0.627
65658SOL    HW298814  12.100   9.130   0.772
65659SOL     OW98815   4.335  13.415   8.991
65659SOL    HW198816   4.425  13.385   8.981
65659SOL    HW298817   4.285  13.362   8.929
65660SOL     OW98818  11.860   6.485  11.949
65660SOL    HW198819  11.917   6.522  12.016
65660SOL    HW298820  11.833   6.561  11.897
65661SOL     OW98821   6.326  13.267   3.539
65661SOL    HW198822   6.250  13.292   3.591
65661SOL    HW298823   6.376  13.208   3.596
65662SOL     OW98824  13.681   0.118   7.769
65662SOL    HW198825  13.719   0.105   7.855
65662SOL    HW298826  13.687   0.212   7.753
65663SOL     OW98827   0.349   5.833  12.979
65663SOL    HW198828   0.414   5.779  13.025
65663SOL    HW298829   0.366   5.922  13.011
65664SOL     OW98830  14.427   1.680   4.599
65664SOL    HW198831  14.429   1.773   4.580
65664SOL    HW298832  14.518   1.658   4.622
65665SOL     OW98833   3.213   8.986  10.176
65665SOL    HW198834   3.183   9.012  10.263
65665SOL    HW298835   3.228   8.892  10.183
65666SOL     OW98836  14.382  14.111  11.285
65666SOL    HW198837  14.393  14.017  11.277
65666SOL    HW298838  14.328  14.135  11.209
65667SOL     OW98839   1.727   3.905  11.052
65667SOL    HW198840   1.636   3.919  11.079
65667SOL    HW298841   1.726   3.819  11.010
65668SOL     OW98842   2.573   1.756   5.081
65668SOL    HW198843   2.637   1.741   5.150
65668SOL    HW298844   2.503   1.694   5.100
65669SOL     OW98845   0.241  14.022  14.801
65669SOL    HW198846   0.333  14.026  14.775
65669SOL    HW298847   0.196  14.082  14.742
65670SOL     OW98848   7.383   3.829   1.198
65670SOL    HW198849   7.395   3.762   1.130
65670SOL    HW298850   7.377   3.911   1.149
65671SOL     OW98851   8.357   8.455   1.470
65671SOL    HW198852   8.270   8.494   1.472
65671SOL    HW298853   8.373   8.437   1.377
65672SOL     OW98854   2.190   5.582   1.797
65672SOL    HW198855   2.213   5.675   1.792
65672SOL    HW298856   2.131   5.568   1.723
65673SOL     OW98857  11.138   8.437   9.004
65673SOL    HW198858  11.163   8.507   8.943
65673SOL    HW298859  11.178   8.359   8.967
65674SOL     OW98860   4.514  13.614  14.655
65674SOL    HW198861   4.601  13.591  14.621
65674SOL    HW298862   4.472  13.661  14.583
65675SOL     OW98863  10.460   8.851   4.229
65675SOL    HW198864  10.426   8.804   4.305
65675SOL    HW298865  10.402   8.927   4.220
65676SOL     OW98866  11.885   9.762   1.225
65676SOL    HW198867  11.927   9.682   1.195
65676SOL    HW298868  11.809   9.733   1.274
65677SOL     OW98869   6.570   3.326  13.998
65677SOL    HW198870   6.608   3.345  13.912
65677SOL    HW298871   6.628   3.259  14.035
65678SOL     OW98872  13.827   7.656   0.548
65678SOL    HW198873  13.776   7.734   0.527
65678SOL    HW298874  13.918   7.685   0.547
65679SOL     OW98875   6.915   7.793   0.917
65679SOL    HW198876   6.930   7.782   0.823
65679SOL    HW298877   6.997   7.832   0.949
65680SOL     OW98878   7.688   1.681  11.266
65680SOL    HW198879   7.660   1.613  11.327
65680SOL    HW298880   7.653   1.762  11.304
65681SOL     OW98881   2.704  12.785  11.063
65681SOL    HW198882   2.754  12.705  11.080
65681SOL    HW298883   2.627  12.756  11.014
65682SOL     OW98884   4.418   2.704   7.246
65682SOL    HW198885   4.408   2.656   7.163
65682SOL    HW298886   4.358   2.660   7.306
65683SOL     OW98887   3.043  11.633   5.673
65683SOL    HW198888   2.979  11.568   5.701
65683SOL    HW298889   3.017  11.655   5.584
65684SOL     OW98890   3.259   5.526  10.814
65684SOL    HW198891   3.288   5.466  10.882
65684SOL    HW298892   3.204   5.473  10.757
65685SOL     OW98893   3.571   7.730   4.116
65685SOL    HW198894   3.597   7.669   4.185
65685SOL    HW298895   3.651   7.745   4.066
65686SOL     OW98896   7.425   2.009  13.358
65686SOL    HW198897   7.399   2.092  13.398
65686SOL    HW298898   7.484   1.969  13.422
65687SOL     OW98899   8.801  10.882   4.042
65687SOL    HW198900   8.829  10.835   3.964
65687SOL    HW298901   8.864  10.954   4.051
65688SOL     OW98902  14.470  11.790   2.347
65688SOL    HW198903  14.380  11.818   2.362
65688SOL    HW298904  14.471  11.698   2.374
65689SOL     OW98905   8.858   5.804  11.776
65689SOL    HW198906   8.914   5.732  11.803
65689SOL    HW298907   8.915   5.881  11.779
65690SOL     OW98908   0.069   7.558  14.032
65690SOL    HW198909   0.007   7.558  13.960
65690SOL    HW298910   0.129   7.630  14.012
65691SOL     OW98911   7.709   7.527  10.386
65691SOL    HW198912   7.692   7.616  10.418
65691SOL    HW298913   7.716   7.474  10.464
65692SOL     OW98914  12.712  13.636   2.421
65692SOL    HW198915  12.786  13.696   2.431
65692SOL    HW298916  12.722  13.574   2.493
65693SOL     OW98917  13.315   1.901  12.827
65693SOL    HW198918  13.363   1.863  12.753
65693SOL    HW298919  13.309   1.994  12.806
65694SOL     OW98920  14.735  13.123   9.956
65694SOL    HW198921  14.679  13.199   9.939
65694SOL    HW298922  14.743  13.080   9.871
65695SOL     OW98923   1.032   8.753   6.251
65695SOL    HW198924   0.939   8.776   6.259
65695SOL    HW298925   1.061   8.738   6.341
65696SOL     OW98926   6.720   4.383  14.083
65696SOL    HW198927   6.704   4.451  14.149
65696SOL    HW298928   6.679   4.417  14.003
65697SOL     OW98929  11.831   4.025   0.816
65697SOL    HW198930  11.774   3.963   0.862
65697SOL    HW298931  11.904   4.041   0.876
65698SOL     OW98932   3.907  12.667  11.136
65698SOL    HW198933   3.940  12.588  11.094
65698SOL    HW298934   3.981  12.698  11.189
65699SOL     OW98935   8.909  10.226  10.769
65699SOL    HW198936   9.003  10.238  10.754
65699SOL    HW298937   8.886  10.151  10.715
65700SOL     OW98938   9.929   3.499  13.716
65700SOL    HW198939  10.011   3.451  13.724
65700SOL    HW298940   9.912   3.502  13.622
65701SOL     OW98941   8.378   5.729  10.999
65701SOL    HW198942   8.428   5.793  11.050
65701SOL    HW298943   8.390   5.756  10.908
65702SOL     OW98944  13.128   9.509   2.723
65702SOL    HW198945  13.083   9.438   2.768
65702SOL    HW298946  13.190   9.465   2.664
65703SOL     OW98947   1.940  14.596   6.760
65703SOL    HW198948   1.970  14.504   6.762
65703SOL    HW298949   1.948  14.621   6.668
65704SOL     OW98950  12.625   0.784   6.974
65704SOL    HW198951  12.599   0.707   6.925
65704SOL    HW298952  12.668   0.841   6.910
65705SOL     OW98953  11.847   7.136   9.755
65705SOL    HW198954  11.860   7.144   9.850
65705SOL    HW298955  11.926   7.176   9.717
65706SOL     OW98956   3.800  10.215   3.339
65706SOL    HW198957   3.723  10.168   3.307
65706SOL    HW298958   3.862  10.146   3.363
65707SOL     OW98959   6.139   3.040   6.797
65707SOL    HW198960   6.201   2.967   6.795
65707SOL    HW298961   6.192   3.116   6.822
65708SOL     OW98962   7.792   0.774   0.296
65708SOL    HW198963   7.737   0.747   0.369
65708SOL    HW298964   7.737   0.833   0.245
65709SOL     OW98965  12.004  12.191  14.058
65709SOL    HW198966  11.977  12.276  14.022
65709SOL    HW298967  12.031  12.210  14.147
65710SOL     OW98968  14.004   5.516   8.129
65710SOL    HW198969  14.063   5.580   8.091
65710SOL    HW298970  14.053   5.477   8.201
65711SOL     OW98971   1.275   6.430  14.624
65711SOL    HW198972   1.232   6.375  14.558
65711SOL    HW298973   1.304   6.368  14.691
65712SOL     OW98974   4.984   7.474  13.135
65712SOL    HW198975   5.067   7.427  13.130
65712SOL    HW298976   4.919   7.410  13.107
65713SOL     OW98977   6.035   6.284   2.158
65713SOL    HW198978   5.958   6.231   2.136
65713SOL    HW298979   6.011   6.328   2.239
65714SOL     OW98980   9.034   0.302  12.651
65714SOL    HW198981   9.120   0.295  12.693
65714SOL    HW298982   9.023   0.217  12.608
65715SOL     OW98983   4.273  13.493   9.322
65715SOL    HW198984   4.265  13.545   9.243
65715SOL    HW298985   4.241  13.406   9.296
65716SOL     OW98986  11.069  10.292   9.955
65716SOL    HW198987  11.111  10.208   9.977
65716SOL    HW298988  11.055  10.286   9.860
65717SOL     OW98989  14.124   3.387  13.687
65717SOL    HW198990  14.176   3.436  13.750
65717SOL    HW298991  14.047   3.442  13.672
65718SOL     OW98992   0.853   7.975  10.524
65718SOL    HW198993   0.932   7.955  10.574
65718SOL    HW298994   0.783   7.931  10.571
65719SOL     OW98995   2.915  10.260   4.241
65719SOL    HW198996   2.982  10.326   4.225
65719SOL    HW298997   2.893  10.226   4.154
65720SOL     OW98998  10.657   2.628  12.856
65720SOL    HW198999  10.670   2.721  12.877
65720SOL    HW299000  10.572   2.625  12.813
65721SOL     OW99001  13.164   9.960  13.238
65721SOL    HW199002  13.228   9.963  13.309
65721SOL    HW299003  13.193  10.029  13.177
65722SOL     OW99004  11.025   4.040   5.879
65722SOL    HW199005  10.978   3.963   5.848
65722SOL    HW299006  11.055   4.016   5.966
65723SOL     OW99007   0.684   0.438   6.790
65723SOL    HW199008   0.636   0.361   6.760
65723SOL    HW299009   0.775   0.408   6.798
65724SOL     OW99010   9.809   0.587  13.294
65724SOL    HW199011   9.771   0.501  13.310
65724SOL    HW299012   9.778   0.642  13.366
65725SOL     OW99013  12.106   7.731  14.006
65725SOL    HW199014  12.124   7.673  14.080
65725SOL    HW299015  12.010   7.730  13.999
65726SOL     OW99016   5.850   1.554   0.235
65726SOL    HW199017   5.904   1.499   0.179
65726SOL    HW299018   5.910   1.586   0.302
65727SOL     OW99019   3.089   1.725   5.277
65727SOL    HW199020   3.145   1.650   5.259
65727SOL    HW299021   3.148   1.799   5.282
65728SOL     OW99022   4.576  12.644  11.591
65728SOL    HW199023   4.661  12.671  11.556
65728SOL    HW299024   4.533  12.726  11.616
65729SOL     OW99025   0.230  14.337  10.310
65729SOL    HW199026   0.151  14.391  10.315
65729SOL    HW299027   0.299  14.393  10.347
65730SOL     OW99028   9.732  14.388  13.181
65730SOL    HW199029   9.688  14.414  13.100
65730SOL    HW299030   9.661  14.360  13.239
65731SOL     OW99031   6.011   6.891  11.713
65731SOL    HW199032   6.073   6.963  11.730
65731SOL    HW299033   5.952   6.926  11.646
65732SOL     OW99034  12.263  14.014  11.327
65732SOL    HW199035  12.293  14.031  11.416
65732SOL    HW299036  12.202  13.940  11.337
65733SOL     OW99037  12.253   4.239   0.223
65733SOL    HW199038  12.289   4.150   0.228
65733SOL    HW299039  12.170   4.228   0.176
65734SOL     OW99040   6.622   3.526   2.467
65734SOL    HW199041   6.559   3.598   2.471
65734SOL    HW299042   6.601   3.472   2.544
65735SOL     OW99043  13.397  13.659  11.890
65735SOL    HW199044  13.459  13.732  11.885
65735SOL    HW299045  13.324  13.684  11.833
65736SOL     OW99046   7.271  11.076   5.280
65736SOL    HW199047   7.325  11.125   5.218
65736SOL    HW299048   7.303  10.986   5.273
65737SOL     OW99049   9.801   5.872   6.373
65737SOL    HW199050   9.777   5.937   6.439
65737SOL    HW299051   9.866   5.817   6.415
65738SOL     OW99052   5.037   8.393   8.962
65738SOL    HW199053   5.004   8.458   9.024
65738SOL    HW299054   5.110   8.351   9.009
65739SOL     OW99055   1.538   9.689   2.735
65739SOL    HW199056   1.444   9.674   2.720
65739SOL    HW299057   1.552   9.779   2.708
65740SOL     OW99058   3.192   5.809   5.654
65740SOL    HW199059   3.284   5.803   5.628
65740SOL    HW299060   3.195   5.832   5.747
65741SOL     OW99061   9.965   8.117   4.144
65741SOL    HW199062   9.926   8.030   4.152
65741SOL    HW299063  10.026   8.108   4.071
65742SOL     OW99064   6.199   9.130  12.615
65742SOL    HW199065   6.134   9.163  12.552
65742SOL    HW299066   6.267   9.198  12.616
65743SOL     OW99067   9.870   8.083   2.142
65743SOL    HW199068   9.908   8.155   2.193
65743SOL    HW299069   9.776   8.088   2.161
65744SOL     OW99070   3.711   7.911   2.480
65744SOL    HW199071   3.627   7.956   2.473
65744SOL    HW299072   3.758   7.934   2.399
65745SOL     OW99073   5.496   2.674   7.383
65745SOL    HW199074   5.438   2.749   7.365
65745SOL    HW299075   5.474   2.611   7.314
65746SOL     OW99076  11.588   6.237   2.354
65746SOL    HW199077  11.614   6.147   2.374
65746SOL    HW299078  11.664   6.276   2.311
65747SOL     OW99079   6.861  13.580  13.146
65747SOL    HW199080   6.806  13.621  13.213
65747SOL    HW299081   6.949  13.580  13.185
65748SOL     OW99082   1.711   9.918  10.192
65748SOL    HW199083   1.739   9.930  10.282
65748SOL    HW299084   1.791   9.893  10.145
65749SOL     OW99085   5.178  10.701   7.962
65749SOL    HW199086   5.155  10.780   8.012
65749SOL    HW299087   5.144  10.717   7.875
65750SOL     OW99088  10.153  14.163   8.956
65750SOL    HW199089  10.136  14.150   9.049
65750SOL    HW299090  10.188  14.252   8.950
65751SOL     OW99091  13.121   1.011   6.868
65751SOL    HW199092  13.148   0.954   6.796
65751SOL    HW299093  13.192   1.076   6.874
65752SOL     OW99094   0.717   7.266   3.523
65752SOL    HW199095   0.759   7.241   3.440
65752SOL    HW299096   0.629   7.229   3.518
65753SOL     OW99097  11.640  11.033   3.517
65753SOL    HW199098  11.569  11.070   3.569
65753SOL    HW299099  11.613  10.943   3.499
65754SOL     OW99100  11.661   9.914   4.018
65754SOL    HW199101  11.629   9.968   4.091
65754SOL    HW299102  11.618   9.830   4.031
65755SOL     OW99103  11.965  10.222   5.757
65755SOL    HW199104  11.931  10.150   5.810
65755SOL    HW299105  11.912  10.298   5.782
65756SOL     OW99106   4.743   9.724  14.204
65756SOL    HW199107   4.769   9.773  14.282
65756SOL    HW299108   4.797   9.760  14.134
65757SOL     OW99109  10.359   1.289   0.260
65757SOL    HW199110  10.269   1.268   0.287
65757SOL    HW299111  10.380   1.370   0.306
65758SOL     OW99112  11.784  13.367   9.957
65758SOL    HW199113  11.720  13.328  10.016
65758SOL    HW299114  11.864  13.375  10.009
65759SOL     OW99115   8.014  12.840  14.201
65759SOL    HW199116   8.028  12.908  14.267
65759SOL    HW299117   7.929  12.861  14.163
65760SOL     OW99118  11.721   7.865   5.349
65760SOL    HW199119  11.720   7.960   5.359
65760SOL    HW299120  11.631   7.842   5.329
65761SOL     OW99121   8.066   3.515   1.309
65761SOL    HW199122   8.061   3.611   1.304
65761SOL    HW299123   8.069   3.486   1.218
65762SOL     OW99124   5.911   3.759   4.416
65762SOL    HW199125   5.867   3.675   4.427
65762SOL    HW299126   5.883   3.791   4.330
65763SOL     OW99127   0.101   5.945  11.159
65763SOL    HW199128   0.146   5.889  11.223
65763SOL    HW299129   0.008   5.927  11.173
65764SOL     OW99130   4.256  14.116   4.350
65764SOL    HW199131   4.305  14.196   4.366
65764SOL    HW299132   4.229  14.087   4.437
65765SOL     OW99133  14.423   3.826   4.019
65765SOL    HW199134  14.491   3.760   4.032
65765SOL    HW299135  14.472   3.909   4.015
65766SOL     OW99136   8.350  13.240   9.604
65766SOL    HW199137   8.422  13.177   9.603
65766SOL    HW299138   8.309  13.230   9.518
65767SOL     OW99139   3.432  10.737  10.838
65767SOL    HW199140   3.513  10.719  10.887
65767SOL    HW299141   3.376  10.782  10.901
65768SOL     OW99142  11.261   2.965   3.470
65768SOL    HW199143  11.336   2.963   3.411
65768SOL    HW299144  11.283   2.902   3.539
65769SOL     OW99145   9.801   5.390   8.449
65769SOL    HW199146   9.866   5.460   8.442
65769SOL    HW299147   9.716   5.435   8.451
65770SOL     OW99148  10.345   3.983   4.555
65770SOL    HW199149  10.254   3.958   4.538
65770SOL    HW299150  10.347   4.077   4.543
65771SOL     OW99151   3.843   9.742   8.320
65771SOL    HW199152   3.889   9.699   8.392
65771SOL    HW299153   3.750   9.735   8.342
65772SOL     OW99154  11.251  12.404   3.956
65772SOL    HW199155  11.190  12.338   3.988
65772SOL    HW299156  11.334  12.357   3.945
65773SOL     OW99157   8.014  14.443  11.729
65773SOL    HW199158   7.934  14.399  11.699
65773SOL    HW299159   7.996  14.466  11.820
65774SOL     OW99160  13.119   5.884   5.887
65774SOL    HW199161  13.156   5.921   5.967
65774SOL    HW299162  13.055   5.820   5.918
65775SOL     OW99163   7.367  14.621   3.676
65775SOL    HW199164   7.392  14.598   3.586
65775SOL    HW299165   7.289  14.568   3.692
65776SOL     OW99166   6.787   5.284  13.643
65776SOL    HW199167   6.702   5.265  13.603
65776SOL    HW299168   6.770   5.358  13.701
65777SOL     OW99169  10.827   9.920   6.505
65777SOL    HW199170  10.862   9.842   6.547
65777SOL    HW299171  10.892   9.988   6.521
65778SOL     OW99172   7.602   3.358   0.124
65778SOL    HW199173   7.645   3.440   0.151
65778SOL    HW299174   7.551   3.382   0.047
65779SOL     OW99175   6.816   7.003   4.570
65779SOL    HW199176   6.909   7.001   4.593
65779SOL    HW299177   6.791   7.096   4.578
65780SOL     OW99178   5.889   1.388   8.812
65780SOL    HW199179   5.830   1.317   8.835
65780SOL    HW299180   5.833   1.453   8.770
65781SOL     OW99181  13.450  14.741   0.282
65781SOL    HW199182  13.479  14.819   0.236
65781SOL    HW299183  13.530  14.692   0.300
65782SOL     OW99184   7.369   2.452   8.268
65782SOL    HW199185   7.412   2.538   8.258
65782SOL    HW299186   7.380   2.410   8.182
65783SOL     OW99187   9.061  12.052   8.700
65783SOL    HW199188   9.114  12.131   8.686
65783SOL    HW299189   9.087  12.021   8.786
65784SOL     OW99190  11.421   6.812  14.142
65784SOL    HW199191  11.488   6.791  14.077
65784SOL    HW299192  11.435   6.904  14.162
65785SOL     OW99193   4.976   7.929   5.940
65785SOL    HW199194   4.981   7.834   5.931
65785SOL    HW299195   4.883   7.947   5.950
65786SOL     OW99196   4.082   7.036  13.413
65786SOL    HW199197   4.151   6.969  13.413
65786SOL    HW299198   4.108   7.096  13.343
65787SOL     OW99199   9.737   3.176  13.008
65787SOL    HW199200   9.812   3.121  13.031
65787SOL    HW299201   9.661   3.125  13.034
65788SOL     OW99202   9.890   6.740   4.400
65788SOL    HW199203   9.815   6.798   4.403
65788SOL    HW299204   9.883   6.687   4.480
65789SOL     OW99205  11.233   9.841  12.009
65789SOL    HW199206  11.261   9.921  11.963
65789SOL    HW299207  11.161   9.807  11.955
65790SOL     OW99208   8.007   8.989   9.211
65790SOL    HW199209   7.972   8.908   9.176
65790SOL    HW299210   8.049   8.964   9.293
65791SOL     OW99211   8.602   4.497   1.090
65791SOL    HW199212   8.583   4.590   1.098
65791SOL    HW299213   8.535   4.463   1.032
65792SOL     OW99214   5.606   8.448   0.502
65792SOL    HW199215   5.518   8.482   0.521
65792SOL    HW299216   5.607   8.361   0.543
65793SOL     OW99217  12.752   0.979  14.588
65793SOL    HW199218  12.748   1.073  14.568
65793SOL    HW299219  12.704   0.970  14.670
65794SOL     OW99220   9.275  11.234  12.084
65794SOL    HW199221   9.346  11.191  12.037
65794SOL    HW299222   9.252  11.310  12.030
65795SOL     OW99223   4.190   1.997   6.743
65795SOL    HW199224   4.147   1.932   6.798
65795SOL    HW299225   4.167   1.971   6.653
65796SOL     OW99226  13.260   1.153   8.167
65796SOL    HW199227  13.228   1.089   8.103
65796SOL    HW299228  13.182   1.202   8.193
65797SOL     OW99229   1.733   2.331  10.074
65797SOL    HW199230   1.736   2.423  10.099
65797SOL    HW299231   1.795   2.323  10.002
65798SOL     OW99232  14.022   7.729  10.685
65798SOL    HW199233  14.001   7.818  10.658
65798SOL    HW299234  13.964   7.674  10.632
65799SOL     OW99235   6.179   6.656  13.013
65799SOL    HW199236   6.149   6.738  13.050
65799SOL    HW299237   6.113   6.591  13.039
65800SOL     OW99238  10.124   7.071  13.212
65800SOL    HW199239  10.198   7.103  13.263
65800SOL    HW299240  10.070   7.022  13.274
65801SOL     OW99241   8.057   4.224  12.387
65801SOL    HW199242   7.985   4.288  12.392
65801SOL    HW299243   8.048   4.186  12.299
65802SOL     OW99244  13.428  11.288   1.939
65802SOL    HW199245  13.485  11.226   1.893
65802SOL    HW299246  13.415  11.358   1.875
65803SOL     OW99247   6.223   7.807   7.960
65803SOL    HW199248   6.190   7.893   7.986
65803SOL    HW299249   6.165   7.780   7.888
65804SOL     OW99250   4.020   5.939  11.195
65804SOL    HW199251   4.035   5.891  11.113
65804SOL    HW299252   4.107   5.968  11.222
65805SOL     OW99253   0.144   2.621  10.590
65805SOL    HW199254   0.098   2.704  10.580
65805SOL    HW299255   0.116   2.568  10.515
65806SOL     OW99256   9.399   0.808  12.134
65806SOL    HW199257   9.392   0.746  12.061
65806SOL    HW299258   9.309   0.837  12.149
65807SOL     OW99259   8.840   8.255   8.983
65807SOL    HW199260   8.830   8.181   8.924
65807SOL    HW299261   8.799   8.227   9.065
65808SOL     OW99262   0.670  10.074  12.588
65808SOL    HW199263   0.632   9.986  12.579
65808SOL    HW299264   0.730  10.082  12.514
65809SOL     OW99265  13.516   2.773  12.935
65809SOL    HW199266  13.546   2.830  12.865
65809SOL    HW299267  13.536   2.684  12.904
65810SOL     OW99268   2.226   2.257  11.971
65810SOL    HW199269   2.227   2.331  11.910
65810SOL    HW299270   2.289   2.282  12.040
65811SOL     OW99271   1.770   1.125   6.805
65811SOL    HW199272   1.835   1.151   6.871
65811SOL    HW299273   1.797   1.037   6.778
65812SOL     OW99274   1.018   6.164   7.528
65812SOL    HW199275   1.062   6.201   7.451
65812SOL    HW299276   0.966   6.237   7.562
65813SOL     OW99277   8.782   0.938  14.213
65813SOL    HW199278   8.750   0.869  14.271
65813SOL    HW299279   8.877   0.933  14.221
65814SOL     OW99280   3.684  13.004   4.636
65814SOL    HW199281   3.606  13.026   4.687
65814SOL    HW299282   3.751  12.983   4.701
65815SOL     OW99283   9.996   1.667   0.837
65815SOL    HW199284  10.049   1.610   0.782
65815SOL    HW299285   9.990   1.750   0.788
65816SOL     OW99286   8.797  11.690   7.085
65816SOL    HW199287   8.841  11.711   7.168
65816SOL    HW299288   8.706  11.674   7.110
65817SOL     OW99289   3.589   9.276   7.026
65817SOL    HW199290   3.551   9.216   7.091
65817SOL    HW299291   3.682   9.281   7.050
65818SOL     OW99292  11.579  13.445   4.749
65818SOL    HW199293  11.590  13.390   4.827
65818SOL    HW299294  11.511  13.402   4.698
65819SOL     OW99295   9.218   2.524  13.004
65819SOL    HW199296   9.299   2.474  13.015
65819SOL    HW299297   9.186   2.498  12.918
65820SOL     OW99298   9.810  14.103   8.536
65820SOL    HW199299   9.886  14.046   8.536
65820SOL    HW299300   9.786  14.113   8.628
65821SOL     OW99301   2.289   5.041  12.811
65821SOL    HW199302   2.323   5.114  12.759
65821SOL    HW299303   2.318   5.060  12.900
65822SOL     OW99304   9.215   0.794   1.721
65822SOL    HW199305   9.241   0.851   1.648
65822SOL    HW299306   9.147   0.843   1.767
65823SOL     OW99307   3.811   0.581   5.762
65823SOL    HW199308   3.787   0.672   5.778
65823SOL    HW299309   3.899   0.586   5.725
65824SOL     OW99310   1.428   5.946   7.357
65824SOL    HW199311   1.407   5.957   7.449
65824SOL    HW299312   1.443   6.035   7.325
65825SOL     OW99313   1.292   1.574  10.176
65825SOL    HW199314   1.241   1.548  10.253
65825SOL    HW299315   1.228   1.585  10.107
65826SOL     OW99316   8.137   5.352   9.148
65826SOL    HW199317   8.091   5.389   9.224
65826SOL    HW299318   8.172   5.269   9.180
65827SOL     OW99319  13.737   9.364   7.723
65827SOL    HW199320  13.796   9.308   7.774
65827SOL    HW299321  13.650   9.329   7.741
65828SOL     OW99322  14.215   6.757   7.832
65828SOL    HW199323  14.258   6.752   7.917
65828SOL    HW299324  14.242   6.677   7.787
65829SOL     OW99325   8.163   6.848   8.597
65829SOL    HW199326   8.119   6.933   8.597
65829SOL    HW299327   8.095   6.786   8.622
65830SOL     OW99328   9.015   8.756   6.999
65830SOL    HW199329   9.042   8.829   6.942
65830SOL    HW299330   8.923   8.774   7.019
65831SOL     OW99331   1.522   1.014  12.646
65831SOL    HW199332   1.597   1.072  12.659
65831SOL    HW299333   1.485   1.041  12.562
65832SOL     OW99334   3.966   8.696   8.995
65832SOL    HW199335   3.921   8.681   8.912
65832SOL    HW299336   3.915   8.765   9.037
65833SOL     OW99337   4.620   2.377   0.592
65833SOL    HW199338   4.639   2.447   0.655
65833SOL    HW299339   4.628   2.297   0.643
65834SOL     OW99340   6.815   4.002   0.689
65834SOL    HW199341   6.846   3.975   0.603
65834SOL    HW299342   6.881   3.969   0.750
65835SOL     OW99343  11.447   3.399   7.075
65835SOL    HW199344  11.428   3.421   7.166
65835SOL    HW299345  11.367   3.357   7.043
65836SOL     OW99346  14.038   4.127   7.935
65836SOL    HW199347  13.948   4.159   7.935
65836SOL    HW299348  14.042   4.068   7.859
65837SOL     OW99349   1.944   5.869  14.861
65837SOL    HW199350   2.019   5.928  14.867
65837SOL    HW299351   1.980   5.789  14.823
65838SOL     OW99352   2.164   0.823   0.140
65838SOL    HW199353   2.182   0.823   0.234
65838SOL    HW299354   2.207   0.902   0.108
65839SOL     OW99355   4.202  11.274  13.199
65839SOL    HW199356   4.152  11.336  13.145
65839SOL    HW299357   4.293  11.298  13.185
65840SOL     OW99358   1.091   8.856  13.382
65840SOL    HW199359   1.076   8.946  13.409
65840SOL    HW299360   1.096   8.806  13.464
65841SOL     OW99361  14.480   8.589   0.905
65841SOL    HW199362  14.453   8.629   0.987
65841SOL    HW299363  14.533   8.656   0.862
65842SOL     OW99364  14.580   8.385  13.617
65842SOL    HW199365  14.556   8.441  13.542
65842SOL    HW299366  14.540   8.300  13.597
65843SOL     OW99367   2.740  12.013   0.914
65843SOL    HW199368   2.694  12.090   0.946
65843SOL    HW299369   2.825  12.046   0.886
65844SOL     OW99370   5.579   4.064   8.237
65844SOL    HW199371   5.508   4.079   8.175
65844SOL    HW299372   5.658   4.056   8.183
65845SOL     OW99373   6.633  14.435  12.203
65845SOL    HW199374   6.575  14.465  12.273
65845SOL    HW299375   6.575  14.400  12.136
65846SOL     OW99376   7.016  12.727  12.190
65846SOL    HW199377   6.956  12.727  12.115
65846SOL    HW299378   7.098  12.692  12.155
65847SOL     OW99379   6.693   9.934  12.673
65847SOL    HW199380   6.688   9.999  12.604
65847SOL    HW299381   6.773   9.956  12.721
65848SOL     OW99382   2.271   5.271  10.497
65848SOL    HW199383   2.205   5.204  10.480
65848SOL    HW299384   2.354   5.224  10.494
65849SOL     OW99385   5.001   3.739  12.103
65849SOL    HW199386   4.985   3.678  12.175
65849SOL    HW299387   5.020   3.822  12.145
65850SOL     OW99388   8.726   0.007   9.094
65850SOL    HW199389   8.717   0.096   9.059
65850SOL    HW299390   8.802  14.847   9.049
65851SOL     OW99391   2.900   8.689   6.939
65851SOL    HW199392   2.923   8.711   6.849
65851SOL    HW299393   2.846   8.762   6.969
65852SOL     OW99394   2.754   5.611   4.078
65852SOL    HW199395   2.703   5.635   4.001
65852SOL    HW299396   2.690   5.575   4.139
65853SOL     OW99397   7.544   5.821   0.959
65853SOL    HW199398   7.555   5.820   1.054
65853SOL    HW299399   7.536   5.729   0.935
65854SOL     OW99400   1.455   3.052   5.170
65854SOL    HW199401   1.527   3.080   5.114
65854SOL    HW299402   1.497   3.002   5.240
65855SOL     OW99403  12.850   5.746   3.639
65855SOL    HW199404  12.776   5.740   3.579
65855SOL    HW299405  12.909   5.809   3.598
65856SOL     OW99406  14.826  14.498   9.774
65856SOL    HW199407  14.823  14.423   9.715
65856SOL    HW299408  14.742  14.494   9.821
65857SOL     OW99409   8.815  11.837   6.188
65857SOL    HW199410   8.750  11.792   6.241
65857SOL    HW299411   8.896  11.830   6.239
65858SOL     OW99412   3.747  14.766   5.195
65858SOL    HW199413   3.689  14.690   5.182
65858SOL    HW299414   3.714  14.809   5.274
65859SOL     OW99415   3.061   8.529   6.623
65859SOL    HW199416   3.143   8.568   6.652
65859SOL    HW299417   3.022   8.596   6.566
65860SOL     OW99418  12.569   2.149   8.206
65860SOL    HW199419  12.607   2.087   8.269
65860SOL    HW299420  12.645   2.194   8.168
65861SOL     OW99421  14.014   7.084  11.040
65861SOL    HW199422  13.944   7.021  11.055
65861SOL    HW299423  14.040   7.071  10.949
65862SOL     OW99424   3.640   3.395   5.812
65862SOL    HW199425   3.600   3.458   5.752
65862SOL    HW299426   3.720   3.367   5.767
65863SOL     OW99427   6.376   3.714   3.804
65863SOL    HW199428   6.422   3.681   3.881
65863SOL    HW299429   6.291   3.670   3.806
65864SOL     OW99430  14.362  11.712   4.945
65864SOL    HW199431  14.419  11.786   4.964
65864SOL    HW299432  14.384  11.647   5.012
65865SOL     OW99433   6.868   6.943   8.372
65865SOL    HW199434   6.872   7.029   8.330
65865SOL    HW299435   6.776   6.918   8.366
65866SOL     OW99436   6.673   1.709  11.149
65866SOL    HW199437   6.689   1.705  11.243
65866SOL    HW299438   6.760   1.718  11.110
65867SOL     OW99439  14.819   2.924  11.362
65867SOL    HW199440  14.872   2.923  11.282
65867SOL    HW299441  14.747   2.865  11.343
65868SOL     OW99442  13.856   0.475   7.700
65868SOL    HW199443  13.830   0.439   7.615
65868SOL    HW299444  13.896   0.559   7.680
65869SOL     OW99445   2.632  10.133  13.606
65869SOL    HW199446   2.600  10.212  13.563
65869SOL    HW299447   2.700  10.163  13.666
65870SOL     OW99448   2.874  11.105   9.603
65870SOL    HW199449   2.927  11.078   9.679
65870SOL    HW299450   2.905  11.193   9.582
65871SOL     OW99451  11.851   8.999   9.335
65871SOL    HW199452  11.926   9.053   9.311
65871SOL    HW299453  11.797   9.056   9.389
65872SOL     OW99454   3.542   3.596  13.808
65872SOL    HW199455   3.473   3.531  13.797
65872SOL    HW299456   3.536   3.622  13.900
65873SOL     OW99457   0.573   8.477   9.587
65873SOL    HW199458   0.607   8.547   9.532
65873SOL    HW299459   0.651   8.431   9.618
65874SOL     OW99460  13.067  12.483   9.692
65874SOL    HW199461  13.134  12.451   9.753
65874SOL    HW299462  13.000  12.415   9.692
65875SOL     OW99463   1.477   7.304   5.206
65875SOL    HW199464   1.536   7.375   5.179
65875SOL    HW299465   1.413   7.346   5.263
65876SOL     OW99466  10.248  14.813   8.562
65876SOL    HW199467  10.277   0.010   8.616
65876SOL    HW299468  10.215  14.853   8.482
65877SOL     OW99469   9.696  11.598   0.569
65877SOL    HW199470   9.751  11.523   0.591
65877SOL    HW299471   9.720  11.665   0.634
65878SOL     OW99472   3.422  10.772   2.528
65878SOL    HW199473   3.487  10.818   2.474
65878SOL    HW299474   3.384  10.707   2.469
65879SOL     OW99475   2.280   5.255   0.806
65879SOL    HW199476   2.220   5.297   0.744
65879SOL    HW299477   2.256   5.162   0.803
65880SOL     OW99478  11.998  12.294  13.046
65880SOL    HW199479  12.061  12.327  12.982
65880SOL    HW299480  12.052  12.247  13.110
65881SOL     OW99481   6.081  12.152   7.932
65881SOL    HW199482   6.165  12.108   7.920
65881SOL    HW299483   6.085  12.230   7.877
65882SOL     OW99484   9.321   9.681   5.764
65882SOL    HW199485   9.324   9.647   5.675
65882SOL    HW299486   9.338   9.775   5.754
65883SOL     OW99487   7.299  13.863  11.742
65883SOL    HW199488   7.257  13.780  11.718
65883SOL    HW299489   7.228  13.915  11.780
65884SOL     OW99490   6.087   2.769  13.347
65884SOL    HW199491   6.147   2.824  13.297
65884SOL    HW299492   6.050   2.827  13.413
65885SOL     OW99493  13.585  13.721  11.647
65885SOL    HW199494  13.571  13.739  11.554
65885SOL    HW299495  13.566  13.804  11.690
65886SOL     OW99496  12.247   5.533  13.600
65886SOL    HW199497  12.267   5.586  13.677
65886SOL    HW299498  12.175   5.476  13.628
65887SOL     OW99499  10.425  14.229   0.379
65887SOL    HW199500  10.478  14.171   0.435
65887SOL    HW299501  10.355  14.172   0.346
65888SOL     OW99502   9.544   5.076   1.947
65888SOL    HW199503   9.501   4.992   1.966
65888SOL    HW299504   9.635   5.063   1.973
65889SOL     OW99505   7.962  10.542  12.148
65889SOL    HW199506   7.973  10.447  12.157
65889SOL    HW299507   8.016  10.579  12.218
65890SOL     OW99508   0.087   2.500   8.368
65890SOL    HW199509   0.156   2.559   8.337
65890SOL    HW299510   0.124   2.458   8.446
65891SOL     OW99511   0.534  13.065  12.760
65891SOL    HW199512   0.449  13.093  12.727
65891SOL    HW299513   0.535  13.095  12.851
65892SOL     OW99514   8.436  13.900  13.707
65892SOL    HW199515   8.445  13.813  13.666
65892SOL    HW299516   8.435  13.882  13.801
65893SOL     OW99517  12.655   9.109   4.028
65893SOL    HW199518  12.680   9.133   3.939
65893SOL    HW299519  12.704   9.169   4.084
65894SOL     OW99520   2.907   6.982  10.252
65894SOL    HW199521   2.817   7.013  10.256
65894SOL    HW299522   2.907   6.916  10.182
65895SOL     OW99523   2.143   6.907   8.134
65895SOL    HW199524   2.170   6.817   8.118
65895SOL    HW299525   2.049   6.902   8.152
65896SOL     OW99526   7.876   7.777   5.921
65896SOL    HW199527   7.856   7.774   6.014
65896SOL    HW299528   7.902   7.688   5.899
65897SOL     OW99529   5.224   8.565   8.512
65897SOL    HW199530   5.181   8.650   8.501
65897SOL    HW299531   5.163   8.514   8.564
65898SOL     OW99532  10.765  10.451  14.114
65898SOL    HW199533  10.722  10.525  14.071
65898SOL    HW299534  10.703  10.423  14.181
65899SOL     OW99535  11.667  11.516   6.834
65899SOL    HW199536  11.611  11.481   6.764
65899SOL    HW299537  11.630  11.480   6.915
65900SOL     OW99538   2.433   4.721   6.342
65900SOL    HW199539   2.343   4.702   6.370
65900SOL    HW299540   2.438   4.816   6.339
65901SOL     OW99541   6.856  11.750  10.369
65901SOL    HW199542   6.945  11.771  10.398
65901SOL    HW299543   6.817  11.835  10.348
65902SOL     OW99544   6.329  14.306   2.085
65902SOL    HW199545   6.276  14.312   2.006
65902SOL    HW299546   6.314  14.217   2.118
65903SOL     OW99547  10.795   5.546   3.573
65903SOL    HW199548  10.746   5.464   3.575
65903SOL    HW299549  10.750   5.602   3.637
65904SOL     OW99550   9.546   4.183   8.623
65904SOL    HW199551   9.481   4.221   8.563
65904SOL    HW299552   9.507   4.194   8.710
65905SOL     OW99553  13.726  10.902   5.973
65905SOL    HW199554  13.797  10.958   6.004
65905SOL    HW299555  13.709  10.841   6.045
65906SOL     OW99556   1.204  12.094   7.304
65906SOL    HW199557   1.252  12.152   7.363
65906SOL    HW299558   1.201  12.142   7.221
65907SOL     OW99559   6.199  12.317   7.077
65907SOL    HW199560   6.109  12.322   7.110
65907SOL    HW299561   6.235  12.239   7.119
65908SOL     OW99562   9.774  14.063  13.918
65908SOL    HW199563   9.814  14.010  13.848
65908SOL    HW299564   9.814  14.030  13.998
65909SOL     OW99565   8.893   3.944   0.167
65909SOL    HW199566   8.903   3.930   0.073
65909SOL    HW299567   8.821   4.005   0.175
65910SOL     OW99568  13.573  12.425   5.853
65910SOL    HW199569  13.604  12.516   5.852
65910SOL    HW299570  13.477  12.432   5.851
65911SOL     OW99571   2.222   2.168   2.540
65911SOL    HW199572   2.245   2.192   2.630
65911SOL    HW299573   2.179   2.246   2.504
65912SOL     OW99574   1.684  10.445  13.395
65912SOL    HW199575   1.728  10.399  13.324
65912SOL    HW299576   1.746  10.439  13.468
65913SOL     OW99577  10.000  14.702   6.649
65913SOL    HW199578   9.960  14.664   6.571
65913SOL    HW299579  10.004  14.796   6.630
65914SOL     OW99580   4.452   2.221  13.009
65914SOL    HW199581   4.481   2.131  13.025
65914SOL    HW299582   4.363   2.225  13.043
65915SOL     OW99583   3.776   1.182  12.812
65915SOL    HW199584   3.804   1.245  12.878
65915SOL    HW299585   3.711   1.128  12.857
65916SOL     OW99586   1.681   0.601  14.415
65916SOL    HW199587   1.613   0.534  14.403
65916SOL    HW299588   1.645   0.679  14.373
65917SOL     OW99589   7.618   6.168   2.258
65917SOL    HW199590   7.681   6.228   2.297
65917SOL    HW299591   7.588   6.213   2.178
65918SOL     OW99592   2.058  12.503  14.688
65918SOL    HW199593   2.104  12.578  14.724
65918SOL    HW299594   2.099  12.488  14.603
65919SOL     OW99595   2.459   3.151  13.711
65919SOL    HW199596   2.384   3.178  13.764
65919SOL    HW299597   2.515   3.228  13.709
65920SOL     OW99598   2.564   7.119  10.218
65920SOL    HW199599   2.527   7.206  10.202
65920SOL    HW299600   2.525   7.092  10.302
65921SOL     OW99601  11.339   4.559   9.149
65921SOL    HW199602  11.376   4.474   9.175
65921SOL    HW299603  11.393   4.587   9.075
65922SOL     OW99604   9.203   9.536   7.752
65922SOL    HW199605   9.281   9.552   7.699
65922SOL    HW299606   9.134   9.517   7.688
65923SOL     OW99607   9.340   1.514  13.834
65923SOL    HW199608   9.415   1.526  13.776
65923SOL    HW299609   9.268   1.488  13.776
65924SOL     OW99610   0.569   1.453   4.061
65924SOL    HW199611   0.659   1.484   4.046
65924SOL    HW299612   0.532   1.442   3.973
65925SOL     OW99613   3.878   8.682   9.363
65925SOL    HW199614   3.971   8.691   9.381
65925SOL    HW299615   3.845   8.622   9.431
65926SOL     OW99616   6.231   0.551  12.633
65926SOL    HW199617   6.304   0.581  12.687
65926SOL    HW299618   6.180   0.630  12.616
65927SOL     OW99619   0.839   5.128   1.692
65927SOL    HW199620   0.859   5.089   1.777
65927SOL    HW299621   0.804   5.056   1.639
65928SOL     OW99622   0.025   5.030  13.708
65928SOL    HW199623   0.108   5.001  13.670
65928SOL    HW299624   0.047   5.110  13.756
65929SOL     OW99625   1.920  13.926   9.890
65929SOL    HW199626   1.934  13.846   9.839
65929SOL    HW299627   1.955  13.905   9.976
65930SOL     OW99628  10.733   8.426   5.233
65930SOL    HW199629  10.814   8.475   5.218
65930SOL    HW299630  10.764   8.337   5.253
65931SOL     OW99631  10.063   5.433   0.086
65931SOL    HW199632  10.124   5.500   0.055
65931SOL    HW299633   9.980   5.480   0.097
65932SOL     OW99634  10.579   3.795   3.632
65932SOL    HW199635  10.600   3.788   3.539
65932SOL    HW299636  10.511   3.862   3.636
65933SOL     OW99637   2.100   6.685   1.754
65933SOL    HW199638   2.149   6.633   1.818
65933SOL    HW299639   2.164   6.706   1.686
65934SOL     OW99640   1.404  13.370   8.523
65934SOL    HW199641   1.355  13.343   8.601
65934SOL    HW299642   1.337  13.391   8.458
65935SOL     OW99643  14.750  14.449  11.951
65935SOL    HW199644  14.752  14.357  11.928
65935SOL    HW299645  14.696  14.453  12.029
65936SOL     OW99646   0.143   8.081   9.950
65936SOL    HW199647   0.190   8.020  10.007
65936SOL    HW299648   0.050   8.067   9.971
65937SOL     OW99649   3.393   5.118   5.953
65937SOL    HW199650   3.320   5.178   5.935
65937SOL    HW299651   3.446   5.163   6.017
65938SOL     OW99652   0.932   0.745   9.248
65938SOL    HW199653   1.013   0.700   9.225
65938SOL    HW299654   0.879   0.678   9.291
65939SOL     OW99655  12.854   7.610  12.116
65939SOL    HW199656  12.913   7.639  12.186
65939SOL    HW299657  12.878   7.519  12.101
65940SOL     OW99658   9.752   4.372  13.511
65940SOL    HW199659   9.748   4.427  13.433
65940SOL    HW299660   9.715   4.288  13.483
65941SOL     OW99661   9.114   0.904   3.326
65941SOL    HW199662   9.071   0.866   3.249
65941SOL    HW299663   9.068   0.986   3.342
65942SOL     OW99664  12.126   6.745  10.767
65942SOL    HW199665  12.049   6.790  10.802
65942SOL    HW299666  12.130   6.663  10.815
65943SOL     OW99667   6.434  13.666   5.573
65943SOL    HW199668   6.396  13.595   5.522
65943SOL    HW299669   6.399  13.746   5.533
65944SOL     OW99670   1.660   5.705   6.665
65944SOL    HW199671   1.685   5.797   6.653
65944SOL    HW299672   1.668   5.691   6.760
65945SOL     OW99673  14.584   7.646   6.313
65945SOL    HW199674  14.615   7.706   6.245
65945SOL    HW299675  14.588   7.697   6.394
65946SOL     OW99676  14.799  12.183   7.367
65946SOL    HW199677  14.860  12.111   7.355
65946SOL    HW299678  14.840  12.239   7.433
65947SOL     OW99679   8.598  10.046   3.582
65947SOL    HW199680   8.553  10.005   3.656
65947SOL    HW299681   8.529  10.061   3.517
65948SOL     OW99682   6.536   7.875   5.082
65948SOL    HW199683   6.547   7.967   5.105
65948SOL    HW299684   6.444   7.857   5.099
65949SOL     OW99685  10.184   3.104  10.410
65949SOL    HW199686  10.260   3.057  10.377
65949SOL    HW299687  10.143   3.142  10.332
65950SOL     OW99688  13.081   2.088   7.748
65950SOL    HW199689  13.116   2.113   7.663
65950SOL    HW299690  13.123   2.147   7.810
65951SOL     OW99691   7.409   5.195   2.831
65951SOL    HW199692   7.502   5.204   2.852
65951SOL    HW299693   7.370   5.279   2.853
65952SOL     OW99694   0.205  11.686  11.579
65952SOL    HW199695   0.253  11.709  11.499
65952SOL    HW299696   0.162  11.603  11.559
65953SOL     OW99697   1.523   9.009  11.303
65953SOL    HW199698   1.454   8.989  11.367
65953SOL    HW299699   1.591   8.944  11.320
65954SOL     OW99700   1.529   6.190   7.271
65954SOL    HW199701   1.621   6.217   7.266
65954SOL    HW299702   1.491   6.220   7.189
65955SOL     OW99703   6.624  11.714  13.669
65955SOL    HW199704   6.547  11.722  13.724
65955SOL    HW299705   6.628  11.796  13.620
65956SOL     OW99706  14.407   3.284   3.198
65956SOL    HW199707  14.371   3.215   3.254
65956SOL    HW299708  14.336   3.347   3.188
65957SOL     OW99709   3.079   0.219  11.569
65957SOL    HW199710   3.145   0.188  11.631
65957SOL    HW299711   3.007   0.248  11.623
65958SOL     OW99712   3.490  12.138   6.876
65958SOL    HW199713   3.470  12.140   6.969
65958SOL    HW299714   3.547  12.062   6.865
65959SOL     OW99715  14.529   2.928   0.633
65959SOL    HW199716  14.460   2.908   0.569
65959SOL    HW299717  14.556   2.842   0.667
65960SOL     OW99718   9.401   3.951   7.407
65960SOL    HW199719   9.472   3.991   7.357
65960SOL    HW299720   9.425   3.966   7.499
65961SOL     OW99721   3.780  13.425  13.592
65961SOL    HW199722   3.803  13.461  13.677
65961SOL    HW299723   3.844  13.355  13.577
65962SOL     OW99724   3.583   8.509  13.955
65962SOL    HW199725   3.506   8.545  13.911
65962SOL    HW299726   3.648   8.497  13.885
65963SOL     OW99727  11.975  12.257   4.149
65963SOL    HW199728  11.950  12.340   4.188
65963SOL    HW299729  12.025  12.213   4.218
65964SOL     OW99730   9.168   3.222   6.525
65964SOL    HW199731   9.221   3.300   6.507
65964SOL    HW299732   9.100   3.222   6.459
65965SOL     OW99733  12.138   8.031  10.904
65965SOL    HW199734  12.190   8.090  10.959
65965SOL    HW299735  12.198   7.958  10.886
65966SOL     OW99736   7.807   5.260   8.702
65966SOL    HW199737   7.849   5.189   8.751
65966SOL    HW299738   7.869   5.281   8.632
65967SOL     OW99739   6.968   8.244  11.875
65967SOL    HW199740   6.877   8.274  11.873
65967SOL    HW299741   7.017   8.316  11.914
65968SOL     OW99742   7.832  14.616   7.408
65968SOL    HW199743   7.754  14.667   7.432
65968SOL    HW299744   7.797  14.538   7.366
65969SOL     OW99745   7.427   5.293  13.409
65969SOL    HW199746   7.353   5.237  13.434
65969SOL    HW299747   7.395   5.343  13.334
65970SOL     OW99748  11.065   8.935  14.133
65970SOL    HW199749  11.079   8.905  14.044
65970SOL    HW299750  11.005   9.009  14.124
65971SOL     OW99751  11.851  14.565  11.498
65971SOL    HW199752  11.925  14.505  11.491
65971SOL    HW299753  11.857  14.601  11.586
65972SOL     OW99754   0.310   3.833   5.672
65972SOL    HW199755   0.403   3.817   5.655
65972SOL    HW299756   0.265   3.755   5.639
65973SOL     OW99757   0.149   5.445  10.373
65973SOL    HW199758   0.240   5.437  10.403
65973SOL    HW299759   0.107   5.501  10.439
65974SOL     OW99760   5.289  10.069   1.683
65974SOL    HW199761   5.318   9.980   1.664
65974SOL    HW299762   5.251  10.100   1.601
65975SOL     OW99763  11.396   2.917  14.851
65975SOL    HW199764  11.351   2.996   0.006
65975SOL    HW299765  11.429   2.876   0.055
65976SOL     OW99766   2.984  14.018   1.582
65976SOL    HW199767   2.961  14.046   1.671
65976SOL    HW299768   2.907  13.969   1.552
65977SOL     OW99769   8.740   2.255   5.612
65977SOL    HW199770   8.814   2.268   5.554
65977SOL    HW299771   8.699   2.341   5.620
65978SOL     OW99772   3.993  11.806  13.752
65978SOL    HW199773   4.087  11.792  13.752
65978SOL    HW299774   3.956  11.720  13.736
65979SOL     OW99775   8.534  13.670   4.487
65979SOL    HW199776   8.583  13.749   4.509
65979SOL    HW299777   8.597  13.613   4.444
65980SOL     OW99778  13.038  14.675   7.463
65980SOL    HW199779  13.000  14.760   7.486
65980SOL    HW299780  12.973  14.611   7.492
65981SOL     OW99781  10.580  14.287  11.161
65981SOL    HW199782  10.604  14.217  11.102
65981SOL    HW299783  10.492  14.313  11.134
65982SOL     OW99784  12.568   4.039   0.545
65982SOL    HW199785  12.528   4.099   0.609
65982SOL    HW299786  12.537   4.070   0.460
65983SOL     OW99787   0.189  11.451   8.109
65983SOL    HW199788   0.106  11.404   8.110
65983SOL    HW299789   0.226  11.436   8.196
65984SOL     OW99790   9.115   4.342   0.361
65984SOL    HW199791   9.075   4.291   0.432
65984SOL    HW299792   9.207   4.319   0.364
65985SOL     OW99793   6.368   6.059  11.235
65985SOL    HW199794   6.419   6.068  11.316
65985SOL    HW299795   6.333   6.147  11.219
65986SOL     OW99796   9.172  12.722  11.412
65986SOL    HW199797   9.087  12.690  11.442
65986SOL    HW299798   9.190  12.672  11.332
65987SOL     OW99799  11.847   3.031   0.005
65987SOL    HW199800  11.903   3.100  14.846
65987SOL    HW299801  11.904   2.954   0.010
65988SOL     OW99802   1.154   6.909   6.125
65988SOL    HW199803   1.219   6.846   6.156
65988SOL    HW299804   1.123   6.954   6.204
65989SOL     OW99805  13.923   5.158   0.014
65989SOL    HW199806  13.926   5.253   0.005
65989SOL    HW299807  13.892   5.127  14.805
65990SOL     OW99808   2.214   8.812   7.017
65990SOL    HW199809   2.213   8.855   6.931
65990SOL    HW299810   2.193   8.720   6.998
65991SOL     OW99811  11.901   3.293   7.014
65991SOL    HW199812  11.875   3.310   7.104
65991SOL    HW299813  11.995   3.313   7.012
65992SOL     OW99814   6.476   1.599   4.088
65992SOL    HW199815   6.388   1.561   4.093
65992SOL    HW299816   6.474   1.656   4.012
65993SOL     OW99817  11.085   3.144   4.108
65993SOL    HW199818  11.141   3.206   4.155
65993SOL    HW299819  10.996   3.168   4.134
65994SOL     OW99820   2.314   2.502   2.298
65994SOL    HW199821   2.269   2.495   2.213
65994SOL    HW299822   2.407   2.504   2.276
65995SOL     OW99823  13.564   0.181   5.040
65995SOL    HW199824  13.620   0.224   4.975
65995SOL    HW299825  13.489   0.149   4.990
65996SOL     OW99826  12.209  14.272   0.514
65996SOL    HW199827  12.191  14.364   0.500
65996SOL    HW299828  12.288  14.270   0.568
65997SOL     OW99829   9.514   1.470   4.713
65997SOL    HW199830   9.435   1.429   4.749
65997SOL    HW299831   9.584   1.446   4.774
65998SOL     OW99832   2.319   6.181   3.281
65998SOL    HW199833   2.319   6.099   3.330
65998SOL    HW299834   2.252   6.235   3.323
65999SOL     OW99835   3.481   6.421  13.022
65999SOL    HW199836   3.449   6.337  13.056
65999SOL    HW299837   3.509   6.402  12.932
66000SOL     OW99838  11.522   1.628   9.520
66000SOL    HW199839  11.589   1.645   9.453
66000SOL    HW299840  11.466   1.705   9.518
66001SOL     OW99841   7.303  13.956  14.075
66001SOL    HW199842   7.217  13.968  14.034
66001SOL    HW299843   7.338  14.045  14.083
66002SOL     OW99844   6.997   4.140  11.309
66002SOL    HW199845   6.927   4.178  11.363
66002SOL    HW299846   6.997   4.192  11.229
66003SOL     OW99847   7.185   8.686   2.222
66003SOL    HW199848   7.220   8.765   2.182
66003SOL    HW299849   7.135   8.717   2.297
66004SOL     OW99850   6.196  10.090   5.228
66004SOL    HW199851   6.163  10.079   5.139
66004SOL    HW299852   6.291  10.096   5.218
66005SOL     OW99853   6.990   8.022   8.620
66005SOL    HW199854   6.925   7.986   8.560
66005SOL    HW299855   7.023   8.100   8.576
66006SOL     OW99856  10.277   1.083  14.044
66006SOL    HW199857  10.298   1.036  13.963
66006SOL    HW299858  10.208   1.144  14.018
66007SOL     OW99859  10.319   9.832   8.281
66007SOL    HW199860  10.322   9.923   8.251
66007SOL    HW299861  10.350   9.835   8.371
66008SOL     OW99862   6.309  13.908   5.023
66008SOL    HW199863   6.241  13.965   4.987
66008SOL    HW299864   6.316  13.837   4.959
66009SOL     OW99865  11.760  10.607   3.672
66009SOL    HW199866  11.815  10.628   3.596
66009SOL    HW299867  11.681  10.569   3.634
66010SOL     OW99868   1.136  10.499  12.273
66010SOL    HW199869   1.231  10.501  12.263
66010SOL    HW299870   1.102  10.539  12.192
66011SOL     OW99871  11.424  11.501  13.181
66011SOL    HW199872  11.519  11.502  13.189
66011SOL    HW299873  11.404  11.422  13.131
66012SOL     OW99874  10.594   8.275   6.981
66012SOL    HW199875  10.608   8.368   6.966
66012SOL    HW299876  10.512   8.255   6.937
66013SOL     OW99877   0.774  12.977  11.650
66013SOL    HW199878   0.734  13.008  11.731
66013SOL    HW299879   0.759  12.882  11.651
66014SOL     OW99880   9.127   9.452  14.745
66014SOL    HW199881   9.113   9.457  14.839
66014SOL    HW299882   9.171   9.535  14.723
66015SOL     OW99883   6.559   3.124  13.727
66015SOL    HW199884   6.588   3.205  13.767
66015SOL    HW299885   6.603   3.122  13.642
66016SOL     OW99886   9.514   7.029   1.606
66016SOL    HW199887   9.598   7.043   1.650
66016SOL    HW299888   9.519   6.940   1.572
66017SOL     OW99889  11.782  11.318  11.310
66017SOL    HW199890  11.749  11.272  11.388
66017SOL    HW299891  11.765  11.257  11.238
66018SOL     OW99892  10.587  14.064  14.813
66018SOL    HW199893  10.657  14.051  14.749
66018SOL    HW299894  10.596  13.990  14.873
66019SOL     OW99895   1.484  14.754  13.457
66019SOL    HW199896   1.523  14.840  13.474
66019SOL    HW299897   1.499  14.739  13.364
66020SOL     OW99898   8.832   3.092   3.718
66020SOL    HW199899   8.776   3.094   3.795
66020SOL    HW299900   8.782   3.138   3.650
66021SOL     OW99901   6.577  14.212   1.901
66021SOL    HW199902   6.617  14.263   1.971
66021SOL    HW299903   6.607  14.255   1.820
66022SOL     OW99904   9.330   5.639   4.237
66022SOL    HW199905   9.283   5.645   4.321
66022SOL    HW299906   9.298   5.714   4.187
66023SOL     OW99907   3.561   3.853  12.234
66023SOL    HW199908   3.560   3.758  12.241
66023SOL    HW299909   3.526   3.870  12.146
66024SOL     OW99910  13.371   8.079   1.784
66024SOL    HW199911  13.387   8.074   1.878
66024SOL    HW299912  13.452   8.046   1.744
66025SOL     OW99913   8.422   3.882  12.202
66025SOL    HW199914   8.485   3.811  12.214
66025SOL    HW299915   8.339   3.845  12.231
66026SOL     OW99916   3.246  10.081   6.797
66026SOL    HW199917   3.238  10.038   6.882
66026SOL    HW299918   3.218  10.015   6.734
66027SOL     OW99919   6.982   3.985   8.813
66027SOL    HW199920   7.049   4.036   8.768
66027SOL    HW299921   7.021   3.899   8.826
66028SOL     OW99922  14.675   4.059  14.622
66028SOL    HW199923  14.609   4.021  14.680
66028SOL    HW299924  14.690   3.992  14.555
66029SOL     OW99925   1.891   6.806   1.571
66029SOL    HW199926   1.884   6.816   1.476
66029SOL    HW299927   1.907   6.713   1.584
66030SOL     OW99928   1.133   6.481   2.306
66030SOL    HW199929   1.106   6.437   2.225
66030SOL    HW299930   1.103   6.571   2.295
66031SOL     OW99931   9.785  12.373  13.937
66031SOL    HW199932   9.786  12.307  14.007
66031SOL    HW299933   9.878  12.388  13.918
66032SOL     OW99934   0.182  10.044   8.701
66032SOL    HW199935   0.100  10.001   8.678
66032SOL    HW299936   0.250   9.983   8.674
66033SOL     OW99937   9.218  11.614  12.280
66033SOL    HW199938   9.198  11.700  12.243
66033SOL    HW299939   9.273  11.633  12.357
66034SOL     OW99940   7.728  13.811   0.873
66034SOL    HW199941   7.725  13.810   0.969
66034SOL    HW299942   7.640  13.839   0.847
66035SOL     OW99943  10.562   5.687   5.922
66035SOL    HW199944  10.588   5.666   5.832
66035SOL    HW299945  10.619   5.760   5.947
66036SOL     OW99946   6.731  12.434  11.034
66036SOL    HW199947   6.706  12.343  11.014
66036SOL    HW299948   6.803  12.453  10.974
66037SOL     OW99949   5.890   6.829   9.563
66037SOL    HW199950   5.853   6.776   9.492
66037SOL    HW299951   5.927   6.905   9.518
66038SOL     OW99952   5.535   5.064   0.919
66038SOL    HW199953   5.579   5.122   0.982
66038SOL    HW299954   5.462   5.026   0.968
66039SOL     OW99955   4.975   1.157  11.851
66039SOL    HW199956   5.040   1.093  11.880
66039SOL    HW299957   5.012   1.241  11.877
66040SOL     OW99958   5.878   2.178   4.338
66040SOL    HW199959   5.954   2.126   4.363
66040SOL    HW299960   5.882   2.184   4.243
66041SOL     OW99961  10.196  12.541  12.765
66041SOL    HW199962  10.131  12.543  12.695
66041SOL    HW299963  10.154  12.585  12.838
66042SOL     OW99964  10.780   0.452   4.117
66042SOL    HW199965  10.840   0.411   4.055
66042SOL    HW299966  10.693   0.429   4.085
66043SOL     OW99967  13.413   5.558  14.582
66043SOL    HW199968  13.484   5.540  14.643
66043SOL    HW299969  13.446   5.630  14.528
66044SOL     OW99970  10.311  11.985   5.912
66044SOL    HW199971  10.238  11.961   5.855
66044SOL    HW299972  10.329  11.905   5.962
66045SOL     OW99973   9.778  11.072   1.145
66045SOL    HW199974   9.785  11.156   1.099
66045SOL    HW299975   9.863  11.061   1.186
66046SOL     OW99976  12.547  10.157  12.890
66046SOL    HW199977  12.482  10.220  12.858
66046SOL    HW299978  12.497  10.100  12.948
66047SOL     OW99979  13.465  13.941   0.876
66047SOL    HW199980  13.416  13.880   0.932
66047SOL    HW299981  13.413  14.021   0.875
66048SOL     OW99982   7.401  14.569   7.374
66048SOL    HW199983   7.407  14.485   7.328
66048SOL    HW299984   7.309  14.577   7.397
66049SOL     OW99985  11.358  14.469  10.213
66049SOL    HW199986  11.321  14.452  10.299
66049SOL    HW299987  11.324  14.555  10.189
66050SOL     OW99988  12.924   6.758   1.119
66050SOL    HW199989  12.951   6.838   1.074
66050SOL    HW299990  13.006   6.715   1.144
66051SOL     OW99991  14.135   7.371  13.287
66051SOL    HW199992  14.121   7.415  13.204
66051SOL    HW299993  14.162   7.440  13.347
66052SOL     OW99994   3.691   3.405  10.929
66052SOL    HW199995   3.601   3.373  10.922
66052SOL    HW299996   3.685   3.499  10.912
66053SOL     OW99997   3.636   0.923   1.755
66053SOL    HW199998   3.636   0.970   1.838
66053SOL    HW299999   3.606   0.835   1.778
66054SOL     OW    0   9.686   5.941   4.197
66054SOL    HW1    1   9.698   5.923   4.103
66054SOL    HW2    2   9.771   5.924   4.236
66055SOL     OW    3   4.748   1.653   1.406
66055SOL    HW1    4   4.676   1.699   1.364
66055SOL    HW2    5   4.827   1.692   1.369
66056SOL     OW    6   0.984   5.381   0.621
66056SOL    HW1    7   0.892   5.398   0.601
66056SOL    HW2    8   1.011   5.318   0.553
66057SOL     OW    9  14.026   6.982  11.505
66057SOL    HW1   10  14.060   6.945  11.587
66057SOL    HW2   11  14.080   7.060  11.490
66058SOL     OW   12   8.195   9.846   9.848
66058SOL    HW1   13   8.240   9.901   9.785
66058SOL    HW2   14   8.153   9.778   9.796
66059SOL     OW   15  12.678   1.408   8.756
66059SOL    HW1   16  12.723   1.418   8.840
66059SOL    HW2   17  12.726   1.339   8.711
66060SOL     OW   18   7.887  10.287   9.845
66060SOL    HW1   19   7.881  10.340   9.925
66060SOL    HW2   20   7.814  10.225   9.852
66061SOL     OW   21   4.393   2.085  14.506
66061SOL    HW1   22   4.458   2.030  14.550
66061SOL    HW2   23   4.444   2.132  14.440
66062SOL     OW   24  12.172  11.114   6.848
66062SOL    HW1   25  12.135  11.175   6.784
66062SOL    HW2   26  12.211  11.170   6.915
66063SOL     OW   27  11.242   7.543  13.012
66063SOL    HW1   28  11.285   7.539  13.097
66063SOL    HW2   29  11.162   7.594  13.027
66064SOL     OW   30   7.022   6.482  13.301
66064SOL    HW1   31   7.036   6.503  13.208
66064SOL    HW2   32   6.934   6.445  13.304
66065SOL     OW   33   8.744   7.405  13.103
66065SOL    HW1   34   8.695   7.356  13.037
66065SOL    HW2   35   8.754   7.344  13.176
66066SOL     OW   36   5.035   4.358   6.185
66066SOL    HW1   37   5.047   4.447   6.151
66066SOL    HW2   38   4.974   4.317   6.124
66067SOL     OW   39   2.058  10.507  10.567
66067SOL    HW1   40   2.018  10.456  10.638
66067SOL    HW2   41   2.110  10.444  10.519
66068SOL     OW   42   9.108   4.914  10.912
66068SOL    HW1   43   9.172   4.855  10.871
66068SOL    HW2   44   9.112   4.993  10.859
66069SOL     OW   45  10.857  10.151   8.090
66069SOL    HW1   46  10.848  10.214   8.019
66069SOL    HW2   47  10.880  10.069   8.047
66070SOL     OW   48  14.734   1.689   3.960
66070SOL    HW1   49  14.714   1.782   3.970
66070SOL    HW2   50  14.817   1.677   4.007
66071SOL     OW   51   2.454  12.053  11.360
66071SOL    HW1   52   2.506  12.038  11.280
66071SOL    HW2   53   2.467  12.145  11.380
66072SOL     OW   54  14.095   6.556  12.853
66072SOL    HW1   55  14.123   6.488  12.791
66072SOL    HW2   56  14.133   6.529  12.937
66073SOL     OW   57   8.901   7.752   5.300
66073SOL    HW1   58   8.935   7.828   5.253
66073SOL    HW2   59   8.915   7.773   5.392
66074SOL     OW   60   8.637  14.432  12.462
66074SOL    HW1   61   8.613  14.454  12.552
66074SOL    HW2   62   8.556  14.402  12.421
66075SOL     OW   63  14.148  13.616   7.128
66075SOL    HW1   64  14.080  13.622   7.060
66075SOL    HW2   65  14.101  13.590   7.207
66076SOL     OW   66  13.185   0.643   0.974
66076SOL    HW1   67  13.133   0.574   1.015
66076SOL    HW2   68  13.139   0.724   0.996
66077SOL     OW   69  11.731   0.532   3.814
66077SOL    HW1   70  11.772   0.586   3.746
66077SOL    HW2   71  11.694   0.595   3.876
66078SOL     OW   72   9.498   5.848   1.381
66078SOL    HW1   73   9.500   5.932   1.427
66078SOL    HW2   74   9.519   5.783   1.448
66079SOL     OW   75   2.140   9.423   4.896
66079SOL    HW1   76   2.202   9.480   4.851
66079SOL    HW2   77   2.173   9.419   4.986
66080SOL     OW   78   1.876   8.654   5.784
66080SOL    HW1   79   1.947   8.701   5.741
66080SOL    HW2   80   1.828   8.721   5.832
66081SOL     OW   81   1.592  13.529   8.343
66081SOL    HW1   82   1.512  13.511   8.393
66081SOL    HW2   83   1.621  13.615   8.375
66082SOL     OW   84   2.081   2.669   2.952
66082SOL    HW1   85   2.137   2.671   3.030
66082SOL    HW2   86   2.139   2.694   2.880
66083SOL     OW   87   8.674  14.246   9.869
66083SOL    HW1   88   8.584  14.215   9.867
66083SOL    HW2   89   8.723  14.182   9.817
66084SOL     OW   90  12.110   1.751  13.817
66084SOL    HW1   91  12.143   1.694  13.886
66084SOL    HW2   92  12.054   1.694  13.764
66085SOL     OW   93   1.697   5.692   6.954
66085SOL    HW1   94   1.755   5.737   7.016
66085SOL    HW2   95   1.697   5.601   6.984
66086SOL     OW   96  10.346  13.245  14.419
66086SOL    HW1   97  10.398  13.280  14.491
66086SOL    HW2   98  10.393  13.271  14.340
66087SOL     OW   99   4.486  10.677   4.620
66087SOL    HW1  100   4.476  10.737   4.694
66087SOL    HW2  101   4.534  10.726   4.554
66088SOL     OW  102   7.197   7.336  13.818
66088SOL    HW1  103   7.263   7.404  13.830
66088SOL    HW2  104   7.209   7.307  13.727
66089SOL     OW  105  10.551  11.907  10.461
66089SOL    HW1  106  10.595  11.852  10.396
66089SOL    HW2  107  10.482  11.851  10.497
66090SOL     OW  108   7.922  10.939   1.067
66090SOL    HW1  109   7.960  11.026   1.065
66090SOL    HW2  110   7.941  10.902   0.981
66091SOL     OW  111   9.232   6.146  12.256
66091SOL    HW1  112   9.226   6.214  12.188
66091SOL    HW2  113   9.318   6.106  12.242
66092SOL     OW  114   6.996  12.096   7.605
66092SOL    HW1  115   6.972  12.080   7.696
66092SOL    HW2  116   7.091  12.110   7.607
66093SOL     OW  117   8.310   1.723   5.694
66093SOL    HW1  118   8.393   1.756   5.659
66093SOL    HW2  119   8.259   1.801   5.715
66094SOL     OW  120   4.392   5.872  14.118
66094SOL    HW1  121   4.376   5.826  14.036
66094SOL    HW2  122   4.467   5.828  14.157
66095SOL     OW  123   7.444   8.696   8.458
66095SOL    HW1  124   7.496   8.776   8.467
66095SOL    HW2  125   7.472   8.640   8.530
66096SOL     OW  126   0.176   7.322   6.479
66096SOL    HW1  127   0.256   7.341   6.527
66096SOL    HW2  128   0.121   7.400   6.492
66097SOL     OW  129   1.668  12.015   0.715
66097SOL    HW1  130   1.730  12.076   0.753
66097SOL    HW2  131   1.627  12.063   0.643
66098SOL     OW  132   5.541   6.071   7.602
66098SOL    HW1  133   5.457   6.027   7.603
66098SOL    HW2  134   5.599   6.012   7.552
66099SOL     OW  135  12.893   2.650   0.662
66099SOL    HW1  136  12.872   2.645   0.755
66099SOL    HW2  137  12.987   2.670   0.660
66100SOL     OW  138  14.725  13.392   7.553
66100SOL    HW1  139  14.804  13.403   7.501
66100SOL    HW2  140  14.657  13.369   7.489
66101SOL     OW  141   1.238   4.918   7.360
66101SOL    HW1  142   1.330   4.905   7.337
66101SOL    HW2  143   1.192   4.845   7.318
66102SOL     OW  144   1.649   8.541   9.150
66102SOL    HW1  145   1.697   8.486   9.088
66102SOL    HW2  146   1.649   8.490   9.231
66103SOL     OW  147   6.992  10.470   5.112
66103SOL    HW1  148   7.020  10.385   5.146
66103SOL    HW2  149   7.044  10.534   5.162
66104SOL     OW  150  10.110   2.325   6.185
66104SOL    HW1  151  10.118   2.250   6.244
66104SOL    HW2  152  10.074   2.395   6.240
66105SOL     OW  153  10.477  14.135  14.272
66105SOL    HW1  154  10.444  14.080  14.343
66105SOL    HW2  155  10.478  14.224  14.309
66106SOL     OW  156   6.540   2.580   0.681
66106SOL    HW1  157   6.601   2.518   0.723
66106SOL    HW2  158   6.534   2.653   0.743
66107SOL     OW  159   9.109   5.798   9.200
66107SOL    HW1  160   9.064   5.714   9.196
66107SOL    HW2  161   9.181   5.784   9.261
66108SOL     OW  162   1.366   7.618   3.448
66108SOL    HW1  163   1.383   7.708   3.474
66108SOL    HW2  164   1.316   7.581   3.521
66109SOL     OW  165   3.326   9.358  14.505
66109SOL    HW1  166   3.294   9.286  14.450
66109SOL    HW2  167   3.248   9.392  14.548
66110SOL     OW  168   2.362  11.930   5.896
66110SOL    HW1  169   2.455  11.951   5.906
66110SOL    HW2  170   2.318  12.013   5.915
66111SOL     OW  171   3.811  10.489   5.036
66111SOL    HW1  172   3.836  10.516   5.124
66111SOL    HW2  173   3.843  10.399   5.027
66112SOL     OW  174   6.729   0.901   5.229
66112SOL    HW1  175   6.633   0.902   5.232
66112SOL    HW2  176   6.755   0.967   5.294
66113SOL     OW  177   2.664   1.125   8.070
66113SOL    HW1  178   2.717   1.194   8.030
66113SOL    HW2  179   2.584   1.123   8.018
66114SOL     OW  180   9.305   2.386   1.950
66114SOL    HW1  181   9.358   2.385   2.030
66114SOL    HW2  182   9.247   2.310   1.958
66115SOL     OW  183  11.639   2.259   4.296
66115SOL    HW1  184  11.717   2.232   4.344
66115SOL    HW2  185  11.566   2.215   4.340
66116SOL     OW  186  13.383   4.679   9.067
66116SOL    HW1  187  13.477   4.698   9.068
66116SOL    HW2  188  13.347   4.742   9.005
66117SOL     OW  189   0.579   4.627   6.367
66117SOL    HW1  190   0.570   4.714   6.327
66117SOL    HW2  191   0.496   4.583   6.348
66118SOL     OW  192   9.553  11.550   8.967
66118SOL    HW1  193   9.604  11.495   9.026
66118SOL    HW2  194   9.527  11.625   9.020
66119SOL     OW  195   6.859   4.237  13.652
66119SOL    HW1  196   6.905   4.153  13.655
66119SOL    HW2  197   6.822   4.241  13.564
66120SOL     OW  198   8.305  12.584   3.092
66120SOL    HW1  199   8.209  12.582   3.091
66120SOL    HW2  200   8.331  12.508   3.039
66121SOL     OW  201   2.830   7.811  11.831
66121SOL    HW1  202   2.817   7.905  11.826
66121SOL    HW2  203   2.794   7.786  11.917
66122SOL     OW  204   2.800   4.296   3.860
66122SOL    HW1  205   2.745   4.358   3.812
66122SOL    HW2  206   2.751   4.213   3.857
66123SOL     OW  207   3.395  11.069  13.094
66123SOL    HW1  208   3.405  11.156  13.132
66123SOL    HW2  209   3.395  11.010  13.169
66124SOL     OW  210   1.565  12.855   5.029
66124SOL    HW1  211   1.591  12.905   5.106
66124SOL    HW2  212   1.469  12.860   5.029
66125SOL     OW  213   6.535  14.695  10.170
66125SOL    HW1  214   6.558  14.631  10.237
66125SOL    HW2  215   6.611  14.697  10.112
66126SOL     OW  216   1.516   1.766   4.261
66126SOL    HW1  217   1.609   1.748   4.271
66126SOL    HW2  218   1.511   1.857   4.234
66127SOL     OW  219  12.346  12.700   3.357
66127SOL    HW1  220  12.364  12.781   3.308
66127SOL    HW2  221  12.395  12.633   3.309
66128SOL     OW  222  10.402   0.725   8.806
66128SOL    HW1  223  10.441   0.714   8.720
66128SOL    HW2  224  10.469   0.772   8.857
66129SOL     OW  225   1.455  14.687  12.719
66129SOL    HW1  226   1.402  14.620  12.761
66129SOL    HW2  227   1.423  14.770  12.754
66130SOL     OW  228   2.321  12.596   3.911
66130SOL    HW1  229   2.254  12.552   3.964
66130SOL    HW2  230   2.396  12.538   3.914
66131SOL     OW  231   1.209   8.228   0.772
66131SOL    HW1  232   1.129   8.250   0.821
66131SOL    HW2  233   1.276   8.284   0.810
66132SOL     OW  234   1.181  11.606  11.265
66132SOL    HW1  235   1.256  11.667  11.261
66132SOL    HW2  236   1.183  11.560  11.181
66133SOL     OW  237   7.756   8.389   7.820
66133SOL    HW1  238   7.779   8.346   7.737
66133SOL    HW2  239   7.727   8.318   7.877
66134SOL     OW  240   0.607  11.910  12.886
66134SOL    HW1  241   0.527  11.961  12.876
66134SOL    HW2  242   0.661  11.935  12.811
66135SOL     OW  243   2.506   4.988   1.602
66135SOL    HW1  244   2.514   4.946   1.687
66135SOL    HW2  245   2.578   4.951   1.550
66136SOL     OW  246   3.128   8.036  12.555
66136SOL    HW1  247   3.169   8.027  12.641
66136SOL    HW2  248   3.146   7.953  12.511
66137SOL     OW  249   7.362  10.793   5.227
66137SOL    HW1  250   7.305  10.813   5.153
66137SOL    HW2  251   7.435  10.744   5.188
66138SOL     OW  252   3.804   8.668  14.638
66138SOL    HW1  253   3.787   8.679  14.544
66138SOL    HW2  254   3.788   8.575  14.655
66139SOL     OW  255   3.614  14.105   6.198
66139SOL    HW1  256   3.614  14.114   6.293
66139SOL    HW2  257   3.642  14.191   6.166
66140SOL     OW  258   5.365   0.334  10.131
66140SOL    HW1  259   5.280   0.312  10.169
66140SOL    HW2  260   5.344   0.388  10.055
66141SOL     OW  261   0.129   9.093   3.830
66141SOL    HW1  262   0.078   9.122   3.755
66141SOL    HW2  263   0.212   9.140   3.823
66142SOL     OW  264   5.704   2.223   1.271
66142SOL    HW1  265   5.702   2.284   1.197
66142SOL    HW2  266   5.686   2.278   1.347
66143SOL     OW  267   3.900   6.498  10.980
66143SOL    HW1  268   3.890   6.449  10.899
66143SOL    HW2  269   3.922   6.432  11.045
66144SOL     OW  270   2.379   2.288   3.653
66144SOL    HW1  271   2.344   2.219   3.597
66144SOL    HW2  272   2.331   2.280   3.735
66145SOL     OW  273   0.125  13.397   7.393
66145SOL    HW1  274   0.216  13.426   7.393
66145SOL    HW2  275   0.086  13.437   7.316
66146SOL     OW  276  12.622   0.939   9.380
66146SOL    HW1  277  12.639   1.000   9.308
66146SOL    HW2  278  12.527   0.934   9.386
66147SOL     OW  279   9.995   8.225   7.738
66147SOL    HW1  280   9.985   8.290   7.807
66147SOL    HW2  281   9.990   8.141   7.784
66148SOL     OW  282  14.765  11.233  11.203
66148SOL    HW1  283  14.837  11.278  11.159
66148SOL    HW2  284  14.708  11.203  11.131
66149SOL     OW  285   9.678   8.349   9.766
66149SOL    HW1  286   9.750   8.312   9.715
66149SOL    HW2  287   9.618   8.385   9.700
66150SOL     OW  288   7.886  14.808  13.901
66150SOL    HW1  289   7.977  14.821  13.873
66150SOL    HW2  290   7.858   0.017  13.931
66151SOL     OW  291  13.131   7.856   2.430
66151SOL    HW1  292  13.129   7.761   2.444
66151SOL    HW2  293  13.094   7.869   2.343
66152SOL     OW  294  11.140  12.065  14.186
66152SOL    HW1  295  11.071  12.008  14.152
66152SOL    HW2  296  11.208  12.006  14.218
66153SOL     OW  297   8.927   5.461   7.948
66153SOL    HW1  298   8.871   5.403   7.896
66153SOL    HW2  299   8.923   5.424   8.036
66154SOL     OW  300   6.872   1.731   6.771
66154SOL    HW1  301   6.835   1.763   6.688
66154SOL    HW2  302   6.938   1.796   6.794
66155SOL     OW  303   3.889   9.186  11.323
66155SOL    HW1  304   3.895   9.264  11.378
66155SOL    HW2  305   3.977   9.174  11.290
66156SOL     OW  306   2.400   7.553   2.058
66156SOL    HW1  307   2.396   7.476   2.116
66156SOL    HW2  308   2.376   7.519   1.972
66157SOL     OW  309   9.990   7.593   8.758
66157SOL    HW1  310   9.963   7.655   8.827
66157SOL    HW2  311   9.912   7.541   8.741
66158SOL     OW  312   6.410   9.084  12.983
66158SOL    HW1  313   6.339   9.042  12.935
66158SOL    HW2  314   6.424   9.167  12.938
66159SOL     OW  315   1.033   5.895  11.912
66159SOL    HW1  316   1.121   5.907  11.876
66159SOL    HW2  317   0.996   5.822  11.862
66160SOL     OW  318   2.365   7.810   9.632
66160SOL    HW1  319   2.455   7.780   9.642
66160SOL    HW2  320   2.312   7.734   9.653
66161SOL     OW  321  12.639   5.375   2.682
66161SOL    HW1  322  12.547   5.356   2.664
66161SOL    HW2  323  12.640   5.465   2.715
66162SOL     OW  324   3.908   2.535   7.907
66162SOL    HW1  325   3.826   2.491   7.888
66162SOL    HW2  326   3.973   2.490   7.853
66163SOL     OW  327  13.785   0.744   2.282
66163SOL    HW1  328  13.833   0.756   2.364
66163SOL    HW2  329  13.770   0.832   2.249
66164SOL     OW  330  12.800   9.316   8.881
66164SOL    HW1  331  12.796   9.241   8.822
66164SOL    HW2  332  12.858   9.378   8.837
66165SOL     OW  333   7.639   9.192   8.449
66165SOL    HW1  334   7.588   9.249   8.508
66165SOL    HW2  335   7.628   9.104   8.486
66166SOL     OW  336   2.796   4.158  11.753
66166SOL    HW1  337   2.842   4.199  11.680
66166SOL    HW2  338   2.712   4.205  11.758
66167SOL     OW  339  14.219   1.693  12.150
66167SOL    HW1  340  14.139   1.718  12.104
66167SOL    HW2  341  14.189   1.632  12.218
66168SOL     OW  342   0.465  10.612   4.788
66168SOL    HW1  343   0.434  10.522   4.783
66168SOL    HW2  344   0.396  10.664   4.746
66169SOL     OW  345   5.338   3.185  11.528
66169SOL    HW1  346   5.300   3.268  11.556
66169SOL    HW2  347   5.271   3.119  11.549
66170SOL     OW  348  14.144   5.584   1.175
66170SOL    HW1  349  14.174   5.585   1.084
66170SOL    HW2  350  14.156   5.675   1.205
66171SOL     OW  351   3.920   6.243  10.474
66171SOL    HW1  352   3.948   6.235  10.383
66171SOL    HW2  353   3.872   6.163  10.492
66172SOL     OW  354   4.190  10.252   5.072
66172SOL    HW1  355   4.272  10.218   5.038
66172SOL    HW2  356   4.194  10.234   5.166
66173SOL     OW  357  13.464   8.826   0.836
66173SOL    HW1  358  13.414   8.759   0.883
66173SOL    HW2  359  13.525   8.776   0.782
66174SOL     OW  360   3.418   1.264  10.634
66174SOL    HW1  361   3.418   1.273  10.539
66174SOL    HW2  362   3.327   1.250  10.657
66175SOL     OW  363  10.800   1.954  10.423
66175SOL    HW1  364  10.845   1.967  10.507
66175SOL    HW2  365  10.720   2.006  10.431
66176SOL     OW  366   6.754   1.379  14.473
66176SOL    HW1  367   6.735   1.362  14.380
66176SOL    HW2  368   6.847   1.401  14.474
66177SOL     OW  369   5.409   8.941  11.432
66177SOL    HW1  370   5.373   8.866  11.481
66177SOL    HW2  371   5.336   9.003  11.426
66178SOL     OW  372   6.517  12.777   3.911
66178SOL    HW1  373   6.577  12.742   3.846
66178SOL    HW2  374   6.452  12.708   3.923
66179SOL     OW  375  13.618   5.261   1.788
66179SOL    HW1  376  13.530   5.298   1.799
66179SOL    HW2  377  13.664   5.325   1.734
66180SOL     OW  378   7.882   6.932   4.733
66180SOL    HW1  379   7.842   6.863   4.678
66180SOL    HW2  380   7.864   7.013   4.686
66181SOL     OW  381  14.612   8.180   6.093
66181SOL    HW1  382  14.597   8.095   6.051
66181SOL    HW2  383  14.596   8.244   6.025
66182SOL     OW  384   9.162   1.017   2.787
66182SOL    HW1  385   9.080   1.060   2.809
66182SOL    HW2  386   9.152   0.928   2.820
66183SOL     OW  387   4.300   6.893  13.303
66183SOL    HW1  388   4.302   6.919  13.211
66183SOL    HW2  389   4.389   6.904  13.334
66184SOL     OW  390   3.673  10.951   9.233
66184SOL    HW1  391   3.578  10.947   9.242
66184SOL    HW2  392   3.701  10.859   9.234
66185SOL     OW  393   7.277   7.112  13.987
66185SOL    HW1  394   7.255   7.191  13.938
66185SOL    HW2  395   7.350   7.073  13.939
66186SOL     OW  396   8.316   0.473   5.097
66186SOL    HW1  397   8.409   0.453   5.095
66186SOL    HW2  398   8.307   0.536   5.169
66187SOL     OW  399   3.510   7.081  10.674
66187SOL    HW1  400   3.580   7.017  10.683
66187SOL    HW2  401   3.488   7.079  10.581
66188SOL     OW  402  12.873  10.690   7.966
66188SOL    HW1  403  12.860  10.605   8.007
66188SOL    HW2  404  12.798  10.700   7.908
66189SOL     OW  405   4.764   3.758   3.459
66189SOL    HW1  406   4.735   3.688   3.517
66189SOL    HW2  407   4.688   3.775   3.403
66190SOL     OW  408  11.946   3.701   0.116
66190SOL    HW1  409  12.019   3.651   0.152
66190SOL    HW2  410  11.884   3.708   0.189
66191SOL     OW  411   6.868  14.664  11.457
66191SOL    HW1  412   6.792  14.608  11.443
66191SOL    HW2  413   6.937  14.626  11.403
66192SOL     OW  414   5.557   2.063   9.735
66192SOL    HW1  415   5.559   2.064   9.639
66192SOL    HW2  416   5.601   1.982   9.759
66193SOL     OW  417   5.022   2.534   2.461
66193SOL    HW1  418   4.996   2.444   2.481
66193SOL    HW2  419   4.970   2.557   2.384
66194SOL     OW  420   4.601  14.236   7.980
66194SOL    HW1  421   4.513  14.255   8.011
66194SOL    HW2  422   4.645  14.194   8.054
66195SOL     OW  423   8.928   7.785  12.402
66195SOL    HW1  424   9.021   7.790  12.382
66195SOL    HW2  425   8.909   7.692  12.407
66196SOL     OW  426   0.976  14.159   2.187
66196SOL    HW1  427   0.921  14.221   2.234
66196SOL    HW2  428   1.048  14.141   2.247
66197SOL     OW  429  10.365  14.299   4.104
66197SOL    HW1  430  10.443  14.332   4.058
66197SOL    HW2  431  10.351  14.211   4.069
66198SOL     OW  432   2.486   1.181   7.342
66198SOL    HW1  433   2.458   1.225   7.422
66198SOL    HW2  434   2.425   1.213   7.275
66199SOL     OW  435  13.915   6.819  14.853
66199SOL    HW1  436  13.879   6.730  14.858
66199SOL    HW2  437  13.852   6.873   0.023
66200SOL     OW  438   4.482   5.634   1.440
66200SOL    HW1  439   4.404   5.657   1.390
66200SOL    HW2  440   4.478   5.538   1.448
66201SOL     OW  441   4.645   2.748   5.914
66201SOL    HW1  442   4.678   2.827   5.872
66201SOL    HW2  443   4.614   2.693   5.842
66202SOL     OW  444   2.889  13.624  10.423
66202SOL    HW1  445   2.971  13.647  10.379
66202SOL    HW2  446   2.842  13.570  10.359
66203SOL     OW  447   8.374   3.664   3.280
66203SOL    HW1  448   8.287   3.703   3.290
66203SOL    HW2  449   8.434   3.737   3.295
66204SOL     OW  450   1.012   7.299   0.717
66204SOL    HW1  451   1.087   7.350   0.688
66204SOL    HW2  452   1.037   7.265   0.803
66205SOL     OW  453   6.249   8.435   3.351
66205SOL    HW1  454   6.211   8.419   3.265
66205SOL    HW2  455   6.191   8.387   3.411
66206SOL     OW  456  14.705   1.394  12.036
66206SOL    HW1  457  14.696   1.438  12.121
66206SOL    HW2  458  14.798   1.373  12.029
66207SOL     OW  459   2.391  11.345  12.863
66207SOL    HW1  460   2.388  11.260  12.907
66207SOL    HW2  461   2.479  11.350  12.827
66208SOL     OW  462  14.462   5.086  11.088
66208SOL    HW1  463  14.534   5.125  11.038
66208SOL    HW2  464  14.424   5.021  11.029
66209SOL     OW  465   5.355   9.019   9.270
66209SOL    HW1  466   5.299   9.021   9.193
66209SOL    HW2  467   5.307   9.068   9.337
66210SOL     OW  468   4.704  12.508   5.741
66210SOL    HW1  469   4.669  12.578   5.797
66210SOL    HW2  470   4.798  12.527   5.735
66211SOL     OW  471   4.606   7.370   8.432
66211SOL    HW1  472   4.671   7.302   8.412
66211SOL    HW2  473   4.578   7.402   8.346
66212SOL     OW  474  11.069  13.303   8.359
66212SOL    HW1  475  11.073  13.301   8.264
66212SOL    HW2  476  11.122  13.379   8.384
66213SOL     OW  477  10.136  13.276  12.595
66213SOL    HW1  478  10.222  13.301  12.628
66213SOL    HW2  479  10.074  13.315  12.657
66214SOL     OW  480  10.409   1.926   7.691
66214SOL    HW1  481  10.373   1.847   7.652
66214SOL    HW2  482  10.504   1.918   7.679
66215SOL     OW  483   0.756   0.059   2.590
66215SOL    HW1  484   0.708   0.034   2.669
66215SOL    HW2  485   0.742   0.154   2.584
66216SOL     OW  486  12.528  11.008   0.966
66216SOL    HW1  487  12.571  11.050   1.042
66216SOL    HW2  488  12.526  10.915   0.988
66217SOL     OW  489   1.315   9.172   1.951
66217SOL    HW1  490   1.392   9.213   1.989
66217SOL    HW2  491   1.314   9.083   1.988
66218SOL     OW  492   9.389   8.608   6.013
66218SOL    HW1  493   9.476   8.622   5.975
66218SOL    HW2  494   9.406   8.594   6.106
66219SOL     OW  495   0.262  13.719   0.328
66219SOL    HW1  496   0.240  13.802   0.287
66219SOL    HW2  497   0.330  13.740   0.392
66220SOL     OW  498   9.752  13.586  14.671
66220SOL    HW1  499   9.809  13.583  14.595
66220SOL    HW2  500   9.756  13.677  14.700
66221SOL     OW  501   6.454   4.570   3.276
66221SOL    HW1  502   6.361   4.546   3.276
66221SOL    HW2  503   6.496   4.503   3.330
66222SOL     OW  504   8.038   7.284  11.156
66222SOL    HW1  505   8.085   7.231  11.093
66222SOL    HW2  506   7.961   7.316  11.108
66223SOL     OW  507  13.208   6.021  11.495
66223SOL    HW1  508  13.151   6.073  11.552
66223SOL    HW2  509  13.248   6.086  11.437
66224SOL     OW  510   5.310   7.957   3.876
66224SOL    HW1  511   5.216   7.943   3.868
66224SOL    HW2  512   5.345   7.931   3.791
66225SOL     OW  513   4.094   9.439   3.597
66225SOL    HW1  514   4.166   9.484   3.642
66225SOL    HW2  515   4.134   9.400   3.520
66226SOL     OW  516   0.200  12.576   0.488
66226SOL    HW1  517   0.222  12.494   0.533
66226SOL    HW2  518   0.185  12.549   0.397
66227SOL     OW  519  12.286   8.896   0.802
66227SOL    HW1  520  12.352   8.961   0.823
66227SOL    HW2  521  12.214   8.945   0.763
66228SOL     OW  522   7.071   6.312  14.252
66228SOL    HW1  523   7.166   6.313  14.255
66228SOL    HW2  524   7.047   6.221  14.268
66229SOL     OW  525   2.843   0.560   1.601
66229SOL    HW1  526   2.920   0.575   1.656
66229SOL    HW2  527   2.780   0.625   1.630
66230SOL     OW  528   2.606  11.445   2.307
66230SOL    HW1  529   2.601  11.350   2.320
66230SOL    HW2  530   2.611  11.481   2.396
66231SOL     OW  531   3.425   3.342  12.592
66231SOL    HW1  532   3.461   3.278  12.654
66231SOL    HW2  533   3.475   3.421  12.606
66232SOL     OW  534   1.469   5.796   2.769
66232SOL    HW1  535   1.548   5.744   2.760
66232SOL    HW2  536   1.468   5.852   2.692
66233SOL     OW  537   2.847   3.498   5.384
66233SOL    HW1  538   2.829   3.405   5.397
66233SOL    HW2  539   2.883   3.527   5.468
66234SOL     OW  540   7.398   1.150   6.157
66234SOL    HW1  541   7.388   1.082   6.089
66234SOL    HW2  542   7.325   1.134   6.217
66235SOL     OW  543   1.347  11.745  10.917
66235SOL    HW1  544   1.290  11.760  10.841
66235SOL    HW2  545   1.352  11.650  10.924
66236SOL     OW  546   0.491  11.640   1.160
66236SOL    HW1  547   0.416  11.586   1.185
66236SOL    HW2  548   0.557  11.577   1.129
66237SOL     OW  549   2.108   1.492   2.460
66237SOL    HW1  550   2.084   1.399   2.471
66237SOL    HW2  551   2.140   1.518   2.547
66238SOL     OW  552  12.388   8.459  13.083
66238SOL    HW1  553  12.346   8.389  13.033
66238SOL    HW2  554  12.332   8.469  13.161
66239SOL     OW  555  14.052   6.946   5.612
66239SOL    HW1  556  14.039   6.972   5.703
66239SOL    HW2  557  14.078   7.027   5.568
66240SOL     OW  558  14.484   4.963   1.746
66240SOL    HW1  559  14.424   4.984   1.818
66240SOL    HW2  560  14.523   4.880   1.771
66241SOL     OW  561  13.552   5.225   8.289
66241SOL    HW1  562  13.634   5.225   8.239
66241SOL    HW2  563  13.495   5.284   8.240
66242SOL     OW  564  10.045  12.675   3.783
66242SOL    HW1  565   9.993  12.648   3.858
66242SOL    HW2  566  10.037  12.604   3.720
66243SOL     OW  567  14.131   6.494  11.186
66243SOL    HW1  568  14.208   6.437  11.178
66243SOL    HW2  569  14.167   6.580  11.208
66244SOL     OW  570   6.939   9.947  11.212
66244SOL    HW1  571   6.864   9.890  11.231
66244SOL    HW2  572   6.956   9.993  11.294
66245SOL     OW  573  12.150  14.038  12.283
66245SOL    HW1  574  12.160  14.082  12.367
66245SOL    HW2  575  12.166  14.108  12.218
66246SOL     OW  576   2.864   2.870   4.022
66246SOL    HW1  577   2.940   2.846   4.075
66246SOL    HW2  578   2.801   2.799   4.036
66247SOL     OW  579   0.864   7.643   2.150
66247SOL    HW1  580   0.948   7.667   2.112
66247SOL    HW2  581   0.880   7.560   2.194
66248SOL     OW  582   7.357   6.755  13.671
66248SOL    HW1  583   7.296   6.812  13.717
66248SOL    HW2  584   7.360   6.675  13.723
66249SOL     OW  585  10.697   1.866   0.646
66249SOL    HW1  586  10.615   1.888   0.603
66249SOL    HW2  587  10.682   1.779   0.684
66250SOL     OW  588  13.896   0.979  10.691
66250SOL    HW1  589  13.991   0.989  10.694
66250SOL    HW2  590  13.864   1.026  10.768
66251SOL     OW  591  14.493  14.244  10.476
66251SOL    HW1  592  14.419  14.303  10.466
66251SOL    HW2  593  14.466  14.163  10.431
66252SOL     OW  594   7.138   8.270   2.502
66252SOL    HW1  595   7.163   8.362   2.514
66252SOL    HW2  596   7.188   8.223   2.569
66253SOL     OW  597   8.035   9.569   8.088
66253SOL    HW1  598   8.005   9.478   8.097
66253SOL    HW2  599   7.956   9.621   8.103
66254SOL     OW  600  11.704   6.002   2.463
66254SOL    HW1  601  11.614   5.972   2.452
66254SOL    HW2  602  11.756   5.943   2.407
66255SOL     OW  603  13.584  13.322  11.365
66255SOL    HW1  604  13.570  13.360  11.452
66255SOL    HW2  605  13.581  13.227  11.380
66256SOL     OW  606   2.331   4.867   7.264
66256SOL    HW1  607   2.379   4.949   7.276
66256SOL    HW2  608   2.370   4.806   7.327
66257SOL     OW  609   4.268   3.069   2.412
66257SOL    HW1  610   4.325   3.001   2.377
66257SOL    HW2  611   4.200   3.080   2.344
66258SOL     OW  612  11.239  11.143   8.254
66258SOL    HW1  613  11.219  11.203   8.183
66258SOL    HW2  614  11.247  11.057   8.211
66259SOL     OW  615  11.116   1.915  11.575
66259SOL    HW1  616  11.153   1.962  11.650
66259SOL    HW2  617  11.063   1.980  11.529
66260SOL     OW  618   9.117  11.027   2.623
66260SOL    HW1  619   9.103  11.117   2.653
66260SOL    HW2  620   9.187  10.994   2.680
66261SOL     OW  621   7.914   4.984   4.703
66261SOL    HW1  622   7.873   4.921   4.644
66261SOL    HW2  623   7.974   4.932   4.756
66262SOL     OW  624  12.728  11.548   6.491
66262SOL    HW1  625  12.653  11.491   6.510
66262SOL    HW2  626  12.792  11.490   6.448
66263SOL     OW  627  11.693   4.604   1.327
66263SOL    HW1  628  11.603   4.603   1.358
66263SOL    HW2  629  11.743   4.562   1.396
66264SOL     OW  630   8.483   7.999   0.812
66264SOL    HW1  631   8.541   7.986   0.887
66264SOL    HW2  632   8.473   8.094   0.806
66265SOL     OW  633   7.885  12.244   8.806
66265SOL    HW1  634   7.928  12.218   8.724
66265SOL    HW2  635   7.894  12.168   8.863
66266SOL     OW  636   5.924   3.260   2.091
66266SOL    HW1  637   6.002   3.257   2.035
66266SOL    HW2  638   5.913   3.170   2.121
66267SOL     OW  639   0.905   1.957   8.703
66267SOL    HW1  640   0.902   2.051   8.722
66267SOL    HW2  641   0.989   1.945   8.660
66268SOL     OW  642  10.704  14.246   0.086
66268SOL    HW1  643  10.746  14.194   0.155
66268SOL    HW2  644  10.655  14.182   0.034
66269SOL     OW  645  10.864   6.757   5.368
66269SOL    HW1  646  10.894   6.767   5.278
66269SOL    HW2  647  10.923   6.812   5.419
66270SOL     OW  648  14.446  10.746   3.702
66270SOL    HW1  649  14.430  10.677   3.767
66270SOL    HW2  650  14.483  10.818   3.753
66271SOL     OW  651  10.846   3.561   0.739
66271SOL    HW1  652  10.772   3.611   0.775
66271SOL    HW2  653  10.816   3.534   0.652
66272SOL     OW  654   9.748   4.645  14.579
66272SOL    HW1  655   9.769   4.736  14.559
66272SOL    HW2  656   9.823   4.613  14.629
66273SOL     OW  657  12.868  14.591  13.622
66273SOL    HW1  658  12.872  14.685  13.634
66273SOL    HW2  659  12.953  14.559  13.652
66274SOL     OW  660   7.179  11.805   8.823
66274SOL    HW1  661   7.242  11.876   8.830
66274SOL    HW2  662   7.139  11.799   8.910
66275SOL     OW  663   1.532  14.451   4.046
66275SOL    HW1  664   1.443  14.452   4.083
66275SOL    HW2  665   1.519  14.466   3.952
66276SOL     OW  666   0.926   4.732   4.804
66276SOL    HW1  667   0.977   4.752   4.726
66276SOL    HW2  668   0.838   4.765   4.785
66277SOL     OW  669   3.323  14.148   0.903
66277SOL    HW1  670   3.259  14.167   0.971
66277SOL    HW2  671   3.403  14.124   0.950
66278SOL     OW  672   3.670   3.851   3.888
66278SOL    HW1  673   3.611   3.883   3.820
66278SOL    HW2  674   3.616   3.790   3.939
66279SOL     OW  675   7.806  12.767   4.953
66279SOL    HW1  676   7.838  12.685   4.991
66279SOL    HW2  677   7.767  12.742   4.870
66280SOL     OW  678   4.604   8.605  12.575
66280SOL    HW1  679   4.686   8.592  12.526
66280SOL    HW2  680   4.549   8.531  12.549
66281SOL     OW  681   3.301   4.927   5.465
66281SOL    HW1  682   3.219   4.921   5.514
66281SOL    HW2  683   3.361   4.973   5.525
66282SOL     OW  684  12.139   8.834  12.063
66282SOL    HW1  685  12.061   8.830  12.008
66282SOL    HW2  686  12.110   8.876  12.144
66283SOL     OW  687  10.690   9.343  14.169
66283SOL    HW1  688  10.611   9.333  14.116
66283SOL    HW2  689  10.678   9.426  14.214
66284SOL     OW  690  10.461   3.643   2.245
66284SOL    HW1  691  10.437   3.554   2.219
66284SOL    HW2  692  10.377   3.688   2.255
66285SOL     OW  693   4.150  13.312   6.954
66285SOL    HW1  694   4.203  13.305   6.875
66285SOL    HW2  695   4.101  13.230   6.959
66286SOL     OW  696   1.849  10.537  13.958
66286SOL    HW1  697   1.877  10.602  13.894
66286SOL    HW2  698   1.821  10.589  14.034
66287SOL     OW  699  12.845   8.543   9.981
66287SOL    HW1  700  12.838   8.480   9.910
66287SOL    HW2  701  12.769   8.601   9.969
66288SOL     OW  702   9.628   5.230   2.844
66288SOL    HW1  703   9.685   5.158   2.816
66288SOL    HW2  704   9.539   5.194   2.836
66289SOL     OW  705   4.566   2.521  14.423
66289SOL    HW1  706   4.562   2.566  14.339
66289SOL    HW2  707   4.637   2.457  14.413
66290SOL     OW  708   9.362  13.712  12.633
66290SOL    HW1  709   9.270  13.693  12.611
66290SOL    HW2  710   9.411  13.682  12.557
66291SOL     OW  711  14.735   5.849   4.663
66291SOL    HW1  712  14.781   5.925   4.628
66291SOL    HW2  713  14.648   5.854   4.623
66292SOL     OW  714  11.036   5.795   0.691
66292SOL    HW1  715  11.111   5.744   0.721
66292SOL    HW2  716  11.025   5.770   0.599
66293SOL     OW  717   8.495   9.431   6.184
66293SOL    HW1  718   8.400   9.422   6.197
66293SOL    HW2  719   8.505   9.441   6.089
66294SOL     OW  720   1.761   4.317   7.672
66294SOL    HW1  721   1.675   4.359   7.678
66294SOL    HW2  722   1.793   4.340   7.585
66295SOL     OW  723   3.186   0.199  11.062
66295SOL    HW1  724   3.189   0.116  11.014
66295SOL    HW2  725   3.094   0.209  11.085
66296SOL     OW  726   6.185   5.844  11.298
66296SOL    HW1  727   6.125   5.908  11.335
66296SOL    HW2  728   6.255   5.896  11.257
66297SOL     OW  729   0.627   0.741  11.588
66297SOL    HW1  730   0.624   0.662  11.533
66297SOL    HW2  731   0.711   0.782  11.567
66298SOL     OW  732   6.218  13.422  10.279
66298SOL    HW1  733   6.295  13.392  10.328
66298SOL    HW2  734   6.254  13.472  10.206
66299SOL     OW  735  11.344  13.665  11.887
66299SOL    HW1  736  11.415  13.631  11.833
66299SOL    HW2  737  11.388  13.717  11.954
66300SOL     OW  738   0.402  12.159  10.914
66300SOL    HW1  739   0.436  12.076  10.881
66300SOL    HW2  740   0.431  12.161  11.005
66301SOL     OW  741   6.310  11.361  14.431
66301SOL    HW1  742   6.369  11.346  14.357
66301SOL    HW2  743   6.321  11.454  14.451
66302SOL     OW  744  13.508   7.088  14.388
66302SOL    HW1  745  13.527   7.130  14.304
66302SOL    HW2  746  13.474   7.159  14.443
66303SOL     OW  747   9.417   3.776   4.923
66303SOL    HW1  748   9.501   3.736   4.903
66303SOL    HW2  749   9.422   3.864   4.886
66304SOL     OW  750   2.377  14.550   5.465
66304SOL    HW1  751   2.439  14.496   5.514
66304SOL    HW2  752   2.423  14.634   5.452
66305SOL     OW  753   9.224  12.773   1.289
66305SOL    HW1  754   9.254  12.844   1.232
66305SOL    HW2  755   9.130  12.787   1.296
66306SOL     OW  756   2.844  10.794   5.449
66306SOL    HW1  757   2.775  10.810   5.385
66306SOL    HW2  758   2.860  10.700   5.444
66307SOL     OW  759   6.456   6.345   0.996
66307SOL    HW1  760   6.486   6.350   0.905
66307SOL    HW2  761   6.515   6.282   1.037
66308SOL     OW  762  11.294   7.668   3.201
66308SOL    HW1  763  11.241   7.743   3.227
66308SOL    HW2  764  11.384   7.693   3.221
66309SOL     OW  765  12.574   8.892  13.959
66309SOL    HW1  766  12.526   8.893  13.876
66309SOL    HW2  767  12.632   8.968  13.954
66310SOL     OW  768  13.516   1.805   2.088
66310SOL    HW1  769  13.608   1.779   2.100
66310SOL    HW2  770  13.502   1.804   1.994
66311SOL     OW  771  12.253   8.905  14.155
66311SOL    HW1  772  12.298   8.978  14.113
66311SOL    HW2  773  12.324   8.856  14.198
66312SOL     OW  774  11.892   3.375   1.591
66312SOL    HW1  775  11.849   3.298   1.627
66312SOL    HW2  776  11.827   3.414   1.532
66313SOL     OW  777   2.643  13.602   5.277
66313SOL    HW1  778   2.685  13.601   5.190
66313SOL    HW2  779   2.559  13.559   5.263
66314SOL     OW  780   7.274   0.207   9.843
66314SOL    HW1  781   7.217   0.265   9.792
66314SOL    HW2  782   7.353   0.259   9.859
66315SOL     OW  783   2.362  13.935  12.436
66315SOL    HW1  784   2.379  14.017  12.390
66315SOL    HW2  785   2.278  13.949  12.479
66316SOL     OW  786  10.108   9.162  10.800
66316SOL    HW1  787  10.106   9.116  10.884
66316SOL    HW2  788  10.168   9.235  10.814
66317SOL     OW  789  11.389   7.250   8.453
66317SOL    HW1  790  11.294   7.246   8.440
66317SOL    HW2  791  11.401   7.323   8.515
66318SOL     OW  792  14.244   6.499  12.425
66318SOL    HW1  793  14.313   6.435  12.410
66318SOL    HW2  794  14.195   6.465  12.500
66319SOL     OW  795   9.099   2.237   8.261
66319SOL    HW1  796   9.151   2.189   8.196
66319SOL    HW2  797   9.043   2.295   8.208
66320SOL     OW  798  14.762  10.612  10.288
66320SOL    HW1  799  14.829  10.577  10.229
66320SOL    HW2  800  14.799  10.694  10.321
66321SOL     OW  801   2.317  10.952   8.611
66321SOL    HW1  802   2.333  10.935   8.518
66321SOL    HW2  803   2.240  10.899   8.632
66322SOL     OW  804   7.095   6.532   3.856
66322SOL    HW1  805   7.102   6.465   3.924
66322SOL    HW2  806   7.025   6.590   3.888
66323SOL     OW  807   2.919   5.791  10.499
66323SOL    HW1  808   2.954   5.880  10.494
66323SOL    HW2  809   2.968   5.742  10.434
66324SOL     OW  810  10.617  14.398  10.420
66324SOL    HW1  811  10.602  14.488  10.394
66324SOL    HW2  812  10.617  14.400  10.516
66325SOL     OW  813   1.973  11.984   1.032
66325SOL    HW1  814   1.975  11.900   0.987
66325SOL    HW2  815   1.892  11.981   1.084
66326SOL     OW  816  11.547   9.342   6.423
66326SOL    HW1  817  11.590   9.367   6.341
66326SOL    HW2  818  11.463   9.305   6.397
66327SOL     OW  819   6.856   6.770  10.496
66327SOL    HW1  820   6.804   6.782  10.416
66327SOL    HW2  821   6.802   6.806  10.566
66328SOL     OW  822  13.935  10.731   0.298
66328SOL    HW1  823  14.014  10.679   0.285
66328SOL    HW2  824  13.921  10.775   0.214
66329SOL     OW  825   0.933  13.180   7.574
66329SOL    HW1  826   0.839  13.185   7.591
66329SOL    HW2  827   0.970  13.254   7.621
66330SOL     OW  828   8.436   3.113  13.649
66330SOL    HW1  829   8.394   3.108  13.563
66330SOL    HW2  830   8.399   3.191  13.689
66331SOL     OW  831   2.372   2.995  12.222
66331SOL    HW1  832   2.389   2.917  12.274
66331SOL    HW2  833   2.291   3.030  12.259
66332SOL     OW  834   4.924   9.614  12.937
66332SOL    HW1  835   4.962   9.588  13.021
66332SOL    HW2  836   4.961   9.553  12.873
66333SOL     OW  837   5.950  14.504   6.873
66333SOL    HW1  838   5.877  14.534   6.927
66333SOL    HW2  839   5.926  14.414   6.849
66334SOL     OW  840   4.844  11.494  14.264
66334SOL    HW1  841   4.842  11.588  14.247
66334SOL    HW2  842   4.937  11.474  14.278
66335SOL     OW  843   2.091   5.084  10.439
66335SOL    HW1  844   2.003   5.096  10.474
66335SOL    HW2  845   2.077   5.043  10.353
66336SOL     OW  846   8.230  13.951  12.403
66336SOL    HW1  847   8.182  13.935  12.322
66336SOL    HW2  848   8.319  13.919  12.385
66337SOL     OW  849   6.846   4.097   2.241
66337SOL    HW1  850   6.905   4.030   2.275
66337SOL    HW2  851   6.896   4.178   2.246
66338SOL     OW  852   0.326  14.434   8.982
66338SOL    HW1  853   0.305  14.350   9.024
66338SOL    HW2  854   0.279  14.431   8.899
66339SOL     OW  855   2.509   8.433   6.341
66339SOL    HW1  856   2.560   8.513   6.355
66339SOL    HW2  857   2.571   8.362   6.357
66340SOL     OW  858  10.989  11.319   0.578
66340SOL    HW1  859  11.057  11.314   0.644
66340SOL    HW2  860  11.022  11.383   0.515
66341SOL     OW  861  13.121   3.127   9.363
66341SOL    HW1  862  13.114   3.149   9.270
66341SOL    HW2  863  13.032   3.104   9.390
66342SOL     OW  864   7.701  13.087  12.536
66342SOL    HW1  865   7.723  13.127  12.620
66342SOL    HW2  866   7.611  13.115  12.519
66343SOL     OW  867   1.251   5.577   5.792
66343SOL    HW1  868   1.260   5.517   5.718
66343SOL    HW2  869   1.157   5.583   5.808
66344SOL     OW  870  14.035  10.865   8.564
66344SOL    HW1  871  14.021  10.953   8.600
66344SOL    HW2  872  13.968  10.856   8.496
66345SOL     OW  873   6.304   6.430   8.288
66345SOL    HW1  874   6.304   6.511   8.340
66345SOL    HW2  875   6.314   6.460   8.198
66346SOL     OW  876   7.678  12.417   0.675
66346SOL    HW1  877   7.709  12.472   0.747
66346SOL    HW2  878   7.614  12.471   0.629
66347SOL     OW  879  14.764  11.290   6.269
66347SOL    HW1  880  14.844  11.245   6.243
66347SOL    HW2  881  14.720  11.311   6.186
66348SOL     OW  882  12.731   0.987   9.785
66348SOL    HW1  883  12.660   0.968   9.846
66348SOL    HW2  884  12.810   0.958   9.830
66349SOL     OW  885   5.170   9.785   4.258
66349SOL    HW1  886   5.209   9.739   4.183
66349SOL    HW2  887   5.204   9.874   4.251
66350SOL     OW  888   4.332   0.454  14.328
66350SOL    HW1  889   4.395   0.525  14.331
66350SOL    HW2  890   4.385   0.374  14.327
66351SOL     OW  891   7.500  13.093   0.346
66351SOL    HW1  892   7.593  13.075   0.356
66351SOL    HW2  893   7.495  13.154   0.272
66352SOL     OW  894   2.884   8.245  14.493
66352SOL    HW1  895   2.926   8.159  14.494
66352SOL    HW2  896   2.923   8.291  14.419
66353SOL     OW  897   5.597   4.852   8.424
66353SOL    HW1  898   5.531   4.792   8.457
66353SOL    HW2  899   5.661   4.859   8.495
66354SOL     OW  900   3.917  12.171   5.573
66354SOL    HW1  901   3.984  12.239   5.563
66354SOL    HW2  902   3.929  12.138   5.662
66355SOL     OW  903  11.199   5.126   4.754
66355SOL    HW1  904  11.229   5.216   4.760
66355SOL    HW2  905  11.106   5.130   4.779
66356SOL     OW  906   0.217   0.647   3.610
66356SOL    HW1  907   0.242   0.735   3.581
66356SOL    HW2  908   0.290   0.619   3.665
66357SOL     OW  909   4.761   0.973   9.797
66357SOL    HW1  910   4.783   1.053   9.749
66357SOL    HW2  911   4.702   1.002   9.867
66358SOL     OW  912   3.232   5.711  13.025
66358SOL    HW1  913   3.264   5.722  13.115
66358SOL    HW2  914   3.197   5.797  13.001
66359SOL     OW  915  12.311   6.196  14.442
66359SOL    HW1  916  12.322   6.264  14.376
66359SOL    HW2  917  12.241   6.228  14.499
66360SOL     OW  918   4.381   0.652  10.520
66360SOL    HW1  919   4.349   0.665  10.431
66360SOL    HW2  920   4.453   0.589  10.510
66361SOL     OW  921   7.961   6.296   2.530
66361SOL    HW1  922   7.971   6.361   2.461
66361SOL    HW2  923   7.867   6.285   2.540
66362SOL     OW  924   5.380  14.746   4.202
66362SOL    HW1  925   5.454  14.685   4.211
66362SOL    HW2  926   5.405  14.803   4.129
66363SOL     OW  927   8.097  10.358   8.715
66363SOL    HW1  928   8.066  10.347   8.625
66363SOL    HW2  929   8.143  10.277   8.735
66364SOL     OW  930  10.800  14.219   2.723
66364SOL    HW1  931  10.709  14.194   2.735
66364SOL    HW2  932  10.847  14.137   2.711
66365SOL     OW  933   2.018   0.594   6.537
66365SOL    HW1  934   2.104   0.562   6.566
66365SOL    HW2  935   1.996   0.539   6.462
66366SOL     OW  936   7.609  11.599  11.073
66366SOL    HW1  937   7.589  11.575  11.164
66366SOL    HW2  938   7.636  11.691  11.078
66367SOL     OW  939   0.525   3.197   3.225
66367SOL    HW1  940   0.469   3.227   3.297
66367SOL    HW2  941   0.609   3.242   3.240
66368SOL     OW  942  11.261  12.409  12.497
66368SOL    HW1  943  11.318  12.459  12.438
66368SOL    HW2  944  11.212  12.476  12.545
66369SOL     OW  945   7.601  10.779   4.465
66369SOL    HW1  946   7.673  10.839   4.445
66369SOL    HW2  947   7.530  10.809   4.408
66370SOL     OW  948  11.391   0.924  11.593
66370SOL    HW1  949  11.477   0.888  11.614
66370SOL    HW2  950  11.388   1.008  11.640
66371SOL     OW  951   0.155   0.998  10.747
66371SOL    HW1  952   0.195   0.952  10.820
66371SOL    HW2  953   0.109   0.931  10.698
66372SOL     OW  954   7.162   2.478  12.140
66372SOL    HW1  955   7.175   2.418  12.066
66372SOL    HW2  956   7.077   2.519  12.122
66373SOL     OW  957  12.872   8.890  10.482
66373SOL    HW1  958  12.804   8.858  10.423
66373SOL    HW2  959  12.840   8.975  10.511
66374SOL     OW  960   9.950   1.585   2.751
66374SOL    HW1  961  10.044   1.571   2.757
66374SOL    HW2  962   9.930   1.581   2.658
66375SOL     OW  963   3.038   6.288   5.319
66375SOL    HW1  964   3.128   6.256   5.314
66375SOL    HW2  965   3.034   6.362   5.259
66376SOL     OW  966  10.351   3.640   6.000
66376SOL    HW1  967  10.295   3.600   5.934
66376SOL    HW2  968  10.348   3.579   6.074
66377SOL     OW  969   0.153   6.609  13.935
66377SOL    HW1  970   0.073   6.657  13.953
66377SOL    HW2  971   0.124   6.532  13.886
66378SOL     OW  972   2.794   3.515   1.697
66378SOL    HW1  973   2.701   3.509   1.674
66378SOL    HW2  974   2.831   3.573   1.631
66379SOL     OW  975  13.168  11.558   4.911
66379SOL    HW1  976  13.113  11.501   4.965
66379SOL    HW2  977  13.239  11.584   4.969
66380SOL     OW  978  13.263  12.408   9.881
66380SOL    HW1  979  13.326  12.479   9.891
66380SOL    HW2  980  13.318  12.329   9.876
66381SOL     OW  981  12.376   7.654   1.407
66381SOL    HW1  982  12.389   7.729   1.465
66381SOL    HW2  983  12.306   7.604   1.449
66382SOL     OW  984   7.078   3.054   7.883
66382SOL    HW1  985   7.059   2.987   7.817
66382SOL    HW2  986   7.166   3.033   7.914
66383SOL     OW  987   9.443   8.161   1.078
66383SOL    HW1  988   9.469   8.136   0.989
66383SOL    HW2  989   9.521   8.201   1.115
66384SOL     OW  990   8.122  11.022   5.176
66384SOL    HW1  991   8.143  11.033   5.269
66384SOL    HW2  992   8.028  11.004   5.175
66385SOL     OW  993   7.860   9.515  13.023
66385SOL    HW1  994   7.863   9.610  13.008
66385SOL    HW2  995   7.907   9.478  12.949
66386SOL     OW  996  10.335   4.753   9.687
66386SOL    HW1  997  10.281   4.832   9.687
66386SOL    HW2  998  10.328   4.720   9.777
66387SOL     OW  999  10.686   5.175   1.320
66387SOL    HW1 1000  10.664   5.110   1.386
66387SOL    HW2 1001  10.774   5.151   1.290
66388SOL     OW 1002   2.286   5.524   8.659
66388SOL    HW1 1003   2.338   5.545   8.737
66388SOL    HW2 1004   2.220   5.594   8.656
66389SOL     OW 1005  12.839  11.835  10.042
66389SOL    HW1 1006  12.902  11.835  10.114
66389SOL    HW2 1007  12.894  11.840   9.963
66390SOL     OW 1008  11.205   9.573   4.470
66390SOL    HW1 1009  11.178   9.652   4.423
66390SOL    HW2 1010  11.256   9.524   4.406
66391SOL     OW 1011  14.610   2.498   7.002
66391SOL    HW1 1012  14.614   2.433   7.072
66391SOL    HW2 1013  14.629   2.581   7.045
66392SOL     OW 1014   0.239   6.064  12.551
66392SOL    HW1 1015   0.260   6.117  12.627
66392SOL    HW2 1016   0.199   5.985  12.587
66393SOL     OW 1017   8.664  13.424   7.675
66393SOL    HW1 1018   8.744  13.375   7.694
66393SOL    HW2 1019   8.660  13.428   7.580
66394SOL     OW 1020   4.570  11.818   6.167
66394SOL    HW1 1021   4.547  11.732   6.132
66394SOL    HW2 1022   4.511  11.830   6.242
66395SOL     OW 1023  11.619   4.759  12.189
66395SOL    HW1 1024  11.709   4.793  12.190
66395SOL    HW2 1025  11.598   4.744  12.281
66396SOL     OW 1026   9.532   0.022   3.222
66396SOL    HW1 1027   9.520   0.099   3.278
66396SOL    HW2 1028   9.570   0.057   3.141
66397SOL     OW 1029   9.444   2.969   8.306
66397SOL    HW1 1030   9.537   2.990   8.315
66397SOL    HW2 1031   9.406   2.994   8.390
66398SOL     OW 1032   3.923   9.804   5.593
66398SOL    HW1 1033   3.874   9.744   5.648
66398SOL    HW2 1034   4.011   9.766   5.589
66399SOL     OW 1035   6.777   7.849   9.966
66399SOL    HW1 1036   6.756   7.942   9.967
66399SOL    HW2 1037   6.763   7.823   9.875
66400SOL     OW 1038   8.543   0.090   5.342
66400SOL    HW1 1039   8.577   0.111   5.429
66400SOL    HW2 1040   8.536  14.870   5.342
66401SOL     OW 1041  10.448   6.431  10.286
66401SOL    HW1 1042  10.497   6.447  10.367
66401SOL    HW2 1043  10.361   6.406  10.316
66402SOL     OW 1044   9.018   7.601   5.555
66402SOL    HW1 1045   9.049   7.687   5.528
66402SOL    HW2 1046   8.937   7.619   5.604
66403SOL     OW 1047   3.656  12.891  13.374
66403SOL    HW1 1048   3.710  12.836  13.430
66403SOL    HW2 1049   3.715  12.918  13.303
66404SOL     OW 1050   5.708   9.677   6.274
66404SOL    HW1 1051   5.711   9.616   6.348
66404SOL    HW2 1052   5.758   9.633   6.205
66405SOL     OW 1053  10.347   2.058   5.726
66405SOL    HW1 1054  10.428   2.106   5.710
66405SOL    HW2 1055  10.375   1.970   5.748
66406SOL     OW 1056  14.416   2.342   2.567
66406SOL    HW1 1057  14.471   2.264   2.563
66406SOL    HW2 1058  14.404   2.358   2.661
66407SOL     OW 1059  12.405   1.747   6.322
66407SOL    HW1 1060  12.478   1.778   6.269
66407SOL    HW2 1061  12.441   1.673   6.371
66408SOL     OW 1062   5.673   3.675   2.692
66408SOL    HW1 1063   5.646   3.621   2.766
66408SOL    HW2 1064   5.594   3.684   2.638
66409SOL     OW 1065  12.773   3.936   9.537
66409SOL    HW1 1066  12.694   3.882   9.529
66409SOL    HW2 1067  12.828   3.907   9.464
66410SOL     OW 1068  10.404   9.630   6.289
66410SOL    HW1 1069  10.361   9.546   6.275
66410SOL    HW2 1070  10.377   9.656   6.378
66411SOL     OW 1071  10.249  13.959   5.663
66411SOL    HW1 1072  10.260  13.911   5.581
66411SOL    HW2 1073  10.300  14.039   5.651
66412SOL     OW 1074   5.163   3.615  14.085
66412SOL    HW1 1075   5.231   3.553  14.060
66412SOL    HW2 1076   5.211   3.695  14.107
66413SOL     OW 1077   7.587   9.693   2.387
66413SOL    HW1 1078   7.626   9.611   2.356
66413SOL    HW2 1079   7.662   9.751   2.401
66414SOL     OW 1080   9.975  12.594  10.321
66414SOL    HW1 1081   9.914  12.538  10.370
66414SOL    HW2 1082  10.060  12.575  10.359
66415SOL     OW 1083   4.392   3.359   2.942
66415SOL    HW1 1084   4.478   3.391   2.970
66415SOL    HW2 1085   4.330   3.409   2.995
66416SOL     OW 1086   8.979  12.579   3.959
66416SOL    HW1 1087   9.055  12.622   3.920
66416SOL    HW2 1088   9.013  12.535   4.037
66417SOL     OW 1089   5.855  10.120   5.575
66417SOL    HW1 1090   5.916  10.083   5.512
66417SOL    HW2 1091   5.820  10.198   5.532
66418SOL     OW 1092   5.139   1.253  13.956
66418SOL    HW1 1093   5.206   1.233  14.022
66418SOL    HW2 1094   5.115   1.168  13.921
66419SOL     OW 1095   0.694   0.769   6.547
66419SOL    HW1 1096   0.731   0.741   6.463
66419SOL    HW2 1097   0.691   0.865   6.540
66420SOL     OW 1098   7.829   3.479  13.840
66420SOL    HW1 1099   7.857   3.558  13.885
66420SOL    HW2 1100   7.733   3.480  13.847
66421SOL     OW 1101   8.847   6.206  12.595
66421SOL    HW1 1102   8.790   6.263  12.544
66421SOL    HW2 1103   8.919   6.185  12.536
66422SOL     OW 1104  14.526  13.663   0.428
66422SOL    HW1 1105  14.517  13.616   0.345
66422SOL    HW2 1106  14.602  13.623   0.470
66423SOL     OW 1107   6.528   4.487  14.449
66423SOL    HW1 1108   6.459   4.547  14.420
66423SOL    HW2 1109   6.607   4.520  14.406
66424SOL     OW 1110   1.012  12.475   1.900
66424SOL    HW1 1111   1.019  12.380   1.910
66424SOL    HW2 1112   0.946  12.501   1.964
66425SOL     OW 1113  13.654   2.111   1.582
66425SOL    HW1 1114  13.679   2.188   1.531
66425SOL    HW2 1115  13.713   2.042   1.551
66426SOL     OW 1116   1.659   1.857   0.213
66426SOL    HW1 1117   1.723   1.820   0.152
66426SOL    HW2 1118   1.605   1.783   0.239
66427SOL     OW 1119   8.026   9.387  14.394
66427SOL    HW1 1120   8.058   9.386  14.484
66427SOL    HW2 1121   7.948   9.331  14.396
66428SOL     OW 1122   8.427   8.236   8.692
66428SOL    HW1 1123   8.484   8.289   8.636
66428SOL    HW2 1124   8.383   8.299   8.749
66429SOL     OW 1125   4.503  14.327   2.522
66429SOL    HW1 1126   4.554  14.395   2.567
66429SOL    HW2 1127   4.423  14.318   2.574
66430SOL     OW 1128   6.753   9.022   6.750
66430SOL    HW1 1129   6.699   9.019   6.829
66430SOL    HW2 1130   6.836   8.981   6.774
66431SOL     OW 1131   0.038   9.123   2.731
66431SOL    HW1 1132   0.016   9.074   2.652
66431SOL    HW2 1133  14.834   9.172   2.752
66432SOL     OW 1134   8.811  11.290   8.474
66432SOL    HW1 1135   8.892  11.275   8.522
66432SOL    HW2 1136   8.833  11.357   8.410
66433SOL     OW 1137  10.176   5.677   0.005
66433SOL    HW1 1138  10.272   5.680   0.011
66433SOL    HW2 1139  10.149   5.766   0.028
66434SOL     OW 1140  11.463   9.132  13.946
66434SOL    HW1 1141  11.406   9.208  13.946
66434SOL    HW2 1142  11.438   9.083  13.867
66435SOL     OW 1143   0.433   2.738  12.496
66435SOL    HW1 1144   0.400   2.808  12.553
66435SOL    HW2 1145   0.355   2.705  12.451
66436SOL     OW 1146   1.364   5.621   1.173
66436SOL    HW1 1147   1.336   5.571   1.250
66436SOL    HW2 1148   1.459   5.629   1.183
66437SOL     OW 1149   1.208   9.635   6.860
66437SOL    HW1 1150   1.156   9.565   6.821
66437SOL    HW2 1151   1.287   9.592   6.892
66438SOL     OW 1152  11.462   9.029   3.058
66438SOL    HW1 1153  11.450   9.005   3.150
66438SOL    HW2 1154  11.548   8.994   3.035
66439SOL     OW 1155  12.351  12.300  11.655
66439SOL    HW1 1156  12.407  12.375  11.678
66439SOL    HW2 1157  12.407  12.244  11.601
66440SOL     OW 1158   9.152   4.045   7.606
66440SOL    HW1 1159   9.190   3.962   7.634
66440SOL    HW2 1160   9.189   4.060   7.519
66441SOL     OW 1161  12.761  12.768   6.658
66441SOL    HW1 1162  12.801  12.684   6.634
66441SOL    HW2 1163  12.828  12.833   6.638
66442SOL     OW 1164   1.361  14.071   9.192
66442SOL    HW1 1165   1.277  14.047   9.230
66442SOL    HW2 1166   1.411  14.106   9.266
66443SOL     OW 1167  13.802   9.115   2.794
66443SOL    HW1 1168  13.895   9.108   2.772
66443SOL    HW2 1169  13.787   9.209   2.806
66444SOL     OW 1170   8.255  11.886   6.670
66444SOL    HW1 1171   8.306  11.894   6.750
66444SOL    HW2 1172   8.284  11.959   6.615
66445SOL     OW 1173  11.475   7.779   5.695
66445SOL    HW1 1174  11.527   7.860   5.691
66445SOL    HW2 1175  11.386   7.808   5.715
66446SOL     OW 1176   0.195  11.647   7.287
66446SOL    HW1 1177   0.183  11.642   7.382
66446SOL    HW2 1178   0.107  11.641   7.251
66447SOL     OW 1179  11.621   9.756   3.625
66447SOL    HW1 1180  11.591   9.765   3.535
66447SOL    HW2 1181  11.551   9.794   3.678
66448SOL     OW 1182   9.485   6.714  13.027
66448SOL    HW1 1183   9.431   6.775  12.976
66448SOL    HW2 1184   9.543   6.674  12.963
66449SOL     OW 1185   9.550  10.536  11.012
66449SOL    HW1 1186   9.629  10.514  10.964
66449SOL    HW2 1187   9.531  10.627  10.988
66450SOL     OW 1188   4.029   2.296  10.644
66450SOL    HW1 1189   3.968   2.301  10.718
66450SOL    HW2 1190   4.026   2.205  10.616
66451SOL     OW 1191   9.514  10.803  12.077
66451SOL    HW1 1192   9.507  10.732  12.141
66451SOL    HW2 1193   9.427  10.844  12.078
66452SOL     OW 1194   5.786   6.360   0.837
66452SOL    HW1 1195   5.714   6.417   0.810
66452SOL    HW2 1196   5.773   6.279   0.787
66453SOL     OW 1197  13.997  12.591  13.366
66453SOL    HW1 1198  14.013  12.645  13.443
66453SOL    HW2 1199  14.076  12.601  13.313
66454SOL     OW 1200  14.032  12.469  11.425
66454SOL    HW1 1201  14.025  12.564  11.414
66454SOL    HW2 1202  14.097  12.458  11.494
66455SOL     OW 1203   3.085   3.198  14.147
66455SOL    HW1 1204   3.024   3.254  14.195
66455SOL    HW2 1205   3.130   3.147  14.214
66456SOL     OW 1206   0.242  12.558   8.019
66456SOL    HW1 1207   0.219  12.544   7.927
66456SOL    HW2 1208   0.321  12.506   8.032
66457SOL     OW 1209   9.106   3.334  13.643
66457SOL    HW1 1210   9.187   3.284  13.650
66457SOL    HW2 1211   9.039   3.267  13.629
66458SOL     OW 1212   8.923   7.324   0.204
66458SOL    HW1 1213   8.856   7.390   0.221
66458SOL    HW2 1214   8.893   7.246   0.251
66459SOL     OW 1215   1.997   4.217   1.890
66459SOL    HW1 1216   2.049   4.264   1.955
66459SOL    HW2 1217   1.918   4.189   1.938
66460SOL     OW 1218   0.015   5.093   5.212
66460SOL    HW1 1219   0.044   5.066   5.299
66460SOL    HW2 1220   0.016   5.013   5.160
66461SOL     OW 1221   4.113   3.182   2.632
66461SOL    HW1 1222   4.175   3.252   2.652
66461SOL    HW2 1223   4.164   3.119   2.581
66462SOL     OW 1224   1.041   5.681  10.966
66462SOL    HW1 1225   1.081   5.687  10.879
66462SOL    HW2 1226   1.114   5.695  11.027
66463SOL     OW 1227   3.652   0.466   4.524
66463SOL    HW1 1228   3.656   0.536   4.589
66463SOL    HW2 1229   3.730   0.413   4.540
66464SOL     OW 1230  14.500   2.558  10.791
66464SOL    HW1 1231  14.583   2.532  10.750
66464SOL    HW2 1232  14.433   2.521  10.734
66465SOL     OW 1233  14.463  10.136   0.357
66465SOL    HW1 1234  14.462  10.112   0.264
66465SOL    HW2 1235  14.484  10.229   0.358
66466SOL     OW 1236  12.048  11.339   1.897
66466SOL    HW1 1237  12.142  11.349   1.883
66466SOL    HW2 1238  12.041  11.297   1.983
66467SOL     OW 1239   2.805   5.018   9.591
66467SOL    HW1 1240   2.766   5.045   9.508
66467SOL    HW2 1241   2.767   4.933   9.610
66468SOL     OW 1242  14.524   4.300   1.540
66468SOL    HW1 1243  14.554   4.270   1.454
66468SOL    HW2 1244  14.467   4.375   1.520
66469SOL     OW 1245   5.409  11.413  13.674
66469SOL    HW1 1246   5.481  11.413  13.737
66469SOL    HW2 1247   5.432  11.345  13.611
66470SOL     OW 1248   6.936   8.790   8.469
66470SOL    HW1 1249   6.877   8.746   8.530
66470SOL    HW2 1250   7.021   8.786   8.512
66471SOL     OW 1251   5.471   3.329   7.926
66471SOL    HW1 1252   5.545   3.374   7.885
66471SOL    HW2 1253   5.509   3.279   7.997
66472SOL     OW 1254   8.031   1.680  12.465
66472SOL    HW1 1255   8.108   1.731  12.488
66472SOL    HW2 1256   8.005   1.712  12.379
66473SOL     OW 1257  13.836   9.167   8.578
66473SOL    HW1 1258  13.834   9.115   8.659
66473SOL    HW2 1259  13.854   9.256   8.607
66474SOL     OW 1260   4.735   1.468  12.494
66474SOL    HW1 1261   4.664   1.516  12.452
66474SOL    HW2 1262   4.815   1.500  12.452
66475SOL     OW 1263  14.133   3.844   3.060
66475SOL    HW1 1264  14.095   3.924   3.096
66475SOL    HW2 1265  14.192   3.875   2.991
66476SOL     OW 1266   0.497   7.021  13.694
66476SOL    HW1 1267   0.412   7.039  13.734
66476SOL    HW2 1268   0.538   6.957  13.753
66477SOL     OW 1269   2.711   5.412   7.666
66477SOL    HW1 1270   2.772   5.434   7.596
66477SOL    HW2 1271   2.758   5.347   7.719
66478SOL     OW 1272   4.664   7.281   3.929
66478SOL    HW1 1273   4.584   7.229   3.922
66478SOL    HW2 1274   4.690   7.298   3.838
66479SOL     OW 1275   1.451  13.531   0.581
66479SOL    HW1 1276   1.469  13.473   0.655
66479SOL    HW2 1277   1.389  13.483   0.527
66480SOL     OW 1278  11.434   5.577  14.085
66480SOL    HW1 1279  11.391   5.640  14.143
66480SOL    HW2 1280  11.527   5.585  14.106
66481SOL     OW 1281  12.007   5.943   6.165
66481SOL    HW1 1282  11.992   5.916   6.256
66481SOL    HW2 1283  12.004   6.038   6.167
66482SOL     OW 1284  11.104   1.145  11.447
66482SOL    HW1 1285  11.172   1.212  11.454
66482SOL    HW2 1286  11.024   1.189  11.474
66483SOL     OW 1287   6.679  11.633  10.837
66483SOL    HW1 1288   6.586  11.658  10.828
66483SOL    HW2 1289   6.707  11.617  10.747
66484SOL     OW 1290  14.479   5.852  14.012
66484SOL    HW1 1291  14.508   5.848  14.104
66484SOL    HW2 1292  14.476   5.946  13.992
66485SOL     OW 1293   6.553   5.994  12.582
66485SOL    HW1 1294   6.585   6.083  12.564
66485SOL    HW2 1295   6.471   5.988  12.532
66486SOL     OW 1296   7.914   0.133   1.234
66486SOL    HW1 1297   7.825   0.100   1.220
66486SOL    HW2 1298   7.937   0.176   1.152
66487SOL     OW 1299   3.735   3.377   8.301
66487SOL    HW1 1300   3.774   3.451   8.347
66487SOL    HW2 1301   3.728   3.308   8.367
66488SOL     OW 1302  11.286   6.578   1.303
66488SOL    HW1 1303  11.357   6.523   1.270
66488SOL    HW2 1304  11.291   6.570   1.398
66489SOL     OW 1305  10.220   8.949   8.856
66489SOL    HW1 1306  10.155   8.974   8.791
66489SOL    HW2 1307  10.296   8.920   8.805
66490SOL     OW 1308   2.220   4.096   9.514
66490SOL    HW1 1309   2.215   4.107   9.419
66490SOL    HW2 1310   2.134   4.123   9.546
66491SOL     OW 1311  10.644   9.920   1.294
66491SOL    HW1 1312  10.631   9.827   1.314
66491SOL    HW2 1313  10.669   9.922   1.202
66492SOL     OW 1314  11.359   1.963  13.806
66492SOL    HW1 1315  11.295   1.892  13.805
66492SOL    HW2 1316  11.332   2.019  13.878
66493SOL     OW 1317  11.394   9.767   8.161
66493SOL    HW1 1318  11.344   9.693   8.196
66493SOL    HW2 1319  11.354   9.785   8.076
66494SOL     OW 1320   1.638  12.666  13.079
66494SOL    HW1 1321   1.617  12.600  13.146
66494SOL    HW2 1322   1.730  12.687  13.094
66495SOL     OW 1323   5.162   6.181   8.184
66495SOL    HW1 1324   5.153   6.258   8.128
66495SOL    HW2 1325   5.083   6.130   8.167
66496SOL     OW 1326   3.504   5.398   7.977
66496SOL    HW1 1327   3.455   5.475   8.008
66496SOL    HW2 1328   3.538   5.424   7.892
66497SOL     OW 1329  13.530  13.558  14.870
66497SOL    HW1 1330  13.489  13.549   0.080
66497SOL    HW2 1331  13.580  13.640  14.876
66498SOL     OW 1332   7.545   3.539  12.415
66498SOL    HW1 1333   7.475   3.604  12.413
66498SOL    HW2 1334   7.618   3.584  12.457
66499SOL     OW 1335  10.513   7.817   1.119
66499SOL    HW1 1336  10.521   7.725   1.143
66499SOL    HW2 1337  10.432   7.823   1.069
66500SOL     OW 1338   2.516   5.680   2.095
66500SOL    HW1 1339   2.551   5.768   2.108
66500SOL    HW2 1340   2.516   5.641   2.183
66501SOL     OW 1341  12.954   6.222   3.092
66501SOL    HW1 1342  12.911   6.307   3.085
66501SOL    HW2 1343  12.931   6.191   3.180
66502SOL     OW 1344   0.220   0.882   1.419
66502SOL    HW1 1345   0.130   0.885   1.387
66502SOL    HW2 1346   0.212   0.890   1.514
66503SOL     OW 1347  13.014  12.941   5.014
66503SOL    HW1 1348  13.014  13.035   5.032
66503SOL    HW2 1349  12.932  12.925   4.968
66504SOL     OW 1350   3.404   3.968   2.359
66504SOL    HW1 1351   3.402   3.872   2.364
66504SOL    HW2 1352   3.339   3.997   2.423
66505SOL     OW 1353   1.259   2.361   9.046
66505SOL    HW1 1354   1.302   2.288   9.091
66505SOL    HW2 1355   1.313   2.377   8.969
66506SOL     OW 1356   4.230  13.621  11.682
66506SOL    HW1 1357   4.277  13.549  11.640
66506SOL    HW2 1358   4.187  13.666  11.610
66507SOL     OW 1359  11.323   6.506   7.275
66507SOL    HW1 1360  11.303   6.562   7.200
66507SOL    HW2 1361  11.418   6.495   7.272
66508SOL     OW 1362   8.647   5.485   6.738
66508SOL    HW1 1363   8.652   5.525   6.652
66508SOL    HW2 1364   8.560   5.507   6.771
66509SOL     OW 1365  13.595  13.233   2.127
66509SOL    HW1 1366  13.686  13.247   2.152
66509SOL    HW2 1367  13.563  13.165   2.187
66510SOL     OW 1368  12.692   9.925  12.735
66510SOL    HW1 1369  12.647  10.007  12.759
66510SOL    HW2 1370  12.623   9.871  12.696
66511SOL     OW 1371   8.920  10.037   3.333
66511SOL    HW1 1372   8.907   9.963   3.391
66511SOL    HW2 1373   8.840  10.041   3.280
66512SOL     OW 1374   3.235   1.904   2.497
66512SOL    HW1 1375   3.287   1.882   2.574
66512SOL    HW2 1376   3.300   1.929   2.431
66513SOL     OW 1377  14.664   4.132  12.053
66513SOL    HW1 1378  14.698   4.099  11.971
66513SOL    HW2 1379  14.676   4.227  12.048
66514SOL     OW 1380  13.192   3.538   9.409
66514SOL    HW1 1381  13.236   3.466   9.454
66514SOL    HW2 1382  13.112   3.499   9.373
66515SOL     OW 1383  11.860  12.224   1.770
66515SOL    HW1 1384  11.813  12.286   1.714
66515SOL    HW2 1385  11.805  12.216   1.848
66516SOL     OW 1386  12.300  11.620  10.730
66516SOL    HW1 1387  12.381  11.578  10.758
66516SOL    HW2 1388  12.238  11.548  10.719
66517SOL     OW 1389   4.732  14.638   3.281
66517SOL    HW1 1390   4.823  14.637   3.251
66517SOL    HW2 1391   4.738  14.669   3.372
66518SOL     OW 1392  11.757  13.934  11.526
66518SOL    HW1 1393  11.777  13.920  11.619
66518SOL    HW2 1394  11.828  13.991  11.495
66519SOL     OW 1395  11.492   9.794   2.947
66519SOL    HW1 1396  11.508   9.710   2.990
66519SOL    HW2 1397  11.404   9.820   2.976
66520SOL     OW 1398  11.001   2.305   1.699
66520SOL    HW1 1399  10.911   2.331   1.676
66520SOL    HW2 1400  10.992   2.218   1.736
66521SOL     OW 1401   9.912   8.511   9.236
66521SOL    HW1 1402   9.893   8.448   9.305
66521SOL    HW2 1403   9.859   8.482   9.162
66522SOL     OW 1404   9.103   9.457   0.470
66522SOL    HW1 1405   9.054   9.422   0.545
66522SOL    HW2 1406   9.123   9.547   0.495
66523SOL     OW 1407  12.191   2.801  11.940
66523SOL    HW1 1408  12.164   2.747  12.014
66523SOL    HW2 1409  12.156   2.755  11.863
66524SOL     OW 1410   2.689   4.672   5.158
66524SOL    HW1 1411   2.671   4.721   5.078
66524SOL    HW2 1412   2.755   4.724   5.204
66525SOL     OW 1413   1.431   8.354  11.209
66525SOL    HW1 1414   1.444   8.269  11.250
66525SOL    HW2 1415   1.337   8.358  11.192
66526SOL     OW 1416   3.154  14.053  10.832
66526SOL    HW1 1417   3.086  14.112  10.799
66526SOL    HW2 1418   3.108  13.974  10.857
66527SOL     OW 1419   0.246   3.083  10.309
66527SOL    HW1 1420   0.211   2.999  10.277
66527SOL    HW2 1421   0.315   3.058  10.370
66528SOL     OW 1422   2.567   1.937  14.117
66528SOL    HW1 1423   2.598   2.025  14.137
66528SOL    HW2 1424   2.637   1.879  14.149
66529SOL     OW 1425   4.340  12.705   8.010
66529SOL    HW1 1426   4.319  12.636   7.947
66529SOL    HW2 1427   4.257  12.727   8.052
66530SOL     OW 1428  14.679   4.017   0.987
66530SOL    HW1 1429  14.726   4.060   1.058
66530SOL    HW2 1430  14.650   3.933   1.024
66531SOL     OW 1431   2.744   2.544   4.624
66531SOL    HW1 1432   2.667   2.556   4.569
66531SOL    HW2 1433   2.767   2.451   4.612
66532SOL     OW 1434   8.430  14.269   6.759
66532SOL    HW1 1435   8.385  14.242   6.679
66532SOL    HW2 1436   8.439  14.364   6.751
66533SOL     OW 1437  12.985   8.142   1.570
66533SOL    HW1 1438  12.997   8.174   1.481
66533SOL    HW2 1439  13.039   8.201   1.623
66534SOL     OW 1440   1.249  13.334   4.441
66534SOL    HW1 1441   1.327  13.327   4.496
66534SOL    HW2 1442   1.210  13.247   4.443
66535SOL     OW 1443  14.568   7.070   9.113
66535SOL    HW1 1444  14.607   7.010   9.176
66535SOL    HW2 1445  14.492   7.022   9.079
66536SOL     OW 1446   1.246  10.363   9.574
66536SOL    HW1 1447   1.279  10.276   9.547
66536SOL    HW2 1448   1.219  10.351   9.665
66537SOL     OW 1449   3.282   6.293   9.957
66537SOL    HW1 1450   3.314   6.297   9.867
66537SOL    HW2 1451   3.306   6.206   9.987
66538SOL     OW 1452   6.285  12.591   9.254
66538SOL    HW1 1453   6.272  12.594   9.348
66538SOL    HW2 1454   6.325  12.676   9.233
66539SOL     OW 1455  10.639   4.571   2.932
66539SOL    HW1 1456  10.686   4.508   2.878
66539SOL    HW2 1457  10.704   4.600   2.996
66540SOL     OW 1458  14.149   4.678   0.133
66540SOL    HW1 1459  14.134   4.771   0.146
66540SOL    HW2 1460  14.148   4.641   0.221
66541SOL     OW 1461  12.540   2.955   1.229
66541SOL    HW1 1462  12.529   2.860   1.237
66541SOL    HW2 1463  12.545   2.987   1.319
66542SOL     OW 1464   2.426   1.171   7.906
66542SOL    HW1 1465   2.333   1.193   7.920
66542SOL    HW2 1466   2.425   1.108   7.834
66543SOL     OW 1467  13.884   5.411   8.398
66543SOL    HW1 1468  13.830   5.485   8.423
66543SOL    HW2 1469  13.974   5.442   8.408
66544SOL     OW 1470   3.887   5.206   9.429
66544SOL    HW1 1471   3.830   5.247   9.494
66544SOL    HW2 1472   3.877   5.259   9.351
66545SOL     OW 1473   9.438   5.851   5.405
66545SOL    HW1 1474   9.490   5.920   5.363
66545SOL    HW2 1475   9.503   5.793   5.444
66546SOL     OW 1476   3.651  10.012   2.820
66546SOL    HW1 1477   3.724   9.953   2.803
66546SOL    HW2 1478   3.686  10.100   2.802
66547SOL     OW 1479  10.442   8.536  12.099
66547SOL    HW1 1480  10.396   8.473  12.155
66547SOL    HW2 1481  10.435   8.499  12.011
66548SOL     OW 1482   1.905  13.970  12.511
66548SOL    HW1 1483   1.872  13.931  12.430
66548SOL    HW2 1484   1.840  14.037  12.533
66549SOL     OW 1485   6.503  14.873   9.440
66549SOL    HW1 1486   6.559   0.053   9.386
66549SOL    HW2 1487   6.556  14.795   9.455
66550SOL     OW 1488  11.184  14.741  13.009
66550SOL    HW1 1489  11.136  14.702  12.937
66550SOL    HW2 1490  11.236  14.810  12.969
66551SOL     OW 1491   1.750   2.630   4.078
66551SOL    HW1 1492   1.804   2.602   4.152
66551SOL    HW2 1493   1.660   2.624   4.111
66552SOL     OW 1494   6.112   3.142   9.100
66552SOL    HW1 1495   6.119   3.237   9.088
66552SOL    HW2 1496   6.026   3.120   9.063
66553SOL     OW 1497   0.890  12.806  12.507
66553SOL    HW1 1498   0.903  12.713  12.490
66553SOL    HW2 1499   0.967  12.849  12.470
66554SOL     OW 1500   0.264   5.890   8.012
66554SOL    HW1 1501   0.352   5.870   8.044
66554SOL    HW2 1502   0.262   5.986   8.004
66555SOL     OW 1503  14.346  12.943  12.492
66555SOL    HW1 1504  14.278  12.935  12.560
66555SOL    HW2 1505  14.321  12.879  12.426
66556SOL     OW 1506  11.993   6.030  10.093
66556SOL    HW1 1507  11.952   6.049  10.008
66556SOL    HW2 1508  11.961   6.099  10.151
66557SOL     OW 1509   8.205   4.351   6.980
66557SOL    HW1 1510   8.210   4.317   6.891
66557SOL    HW2 1511   8.229   4.276   7.035
66558SOL     OW 1512   8.759   0.449   5.389
66558SOL    HW1 1513   8.811   0.506   5.445
66558SOL    HW2 1514   8.807   0.366   5.387
66559SOL     OW 1515   3.829   3.125   5.689
66559SOL    HW1 1516   3.828   3.033   5.713
66559SOL    HW2 1517   3.875   3.127   5.605
66560SOL     OW 1518   8.819   2.325   2.453
66560SOL    HW1 1519   8.908   2.321   2.489
66560SOL    HW2 1520   8.762   2.330   2.530
66561SOL     OW 1521  13.176  14.123  13.951
66561SOL    HW1 1522  13.166  14.048  14.010
66561SOL    HW2 1523  13.232  14.090  13.881
66562SOL     OW 1524   4.955   8.099  13.902
66562SOL    HW1 1525   5.048   8.091  13.919
66562SOL    HW2 1526   4.916   8.019  13.937
66563SOL     OW 1527  10.160  10.449   4.717
66563SOL    HW1 1528  10.180  10.462   4.624
66563SOL    HW2 1529  10.157  10.354   4.727
66564SOL     OW 1530   5.243   5.174   9.194
66564SOL    HW1 1531   5.150   5.170   9.217
66564SOL    HW2 1532   5.259   5.094   9.144
66565SOL     OW 1533   7.076   0.674  13.567
66565SOL    HW1 1534   7.038   0.653  13.482
66565SOL    HW2 1535   7.143   0.740  13.547
66566SOL     OW 1536   5.311   2.368   4.622
66566SOL    HW1 1537   5.328   2.390   4.531
66566SOL    HW2 1538   5.356   2.284   4.635
66567SOL     OW 1539   2.210  12.426   6.786
66567SOL    HW1 1540   2.211  12.427   6.882
66567SOL    HW2 1541   2.248  12.510   6.760
66568SOL     OW 1542   9.262   0.140   5.670
66568SOL    HW1 1543   9.232   0.120   5.581
66568SOL    HW2 1544   9.353   0.166   5.659
66569SOL     OW 1545  12.964   1.865   0.526
66569SOL    HW1 1546  13.004   1.952   0.527
66569SOL    HW2 1547  12.876   1.878   0.559
66570SOL     OW 1548  10.331  10.435   9.380
66570SOL    HW1 1549  10.346  10.512   9.324
66570SOL    HW2 1550  10.402  10.375   9.357
66571SOL     OW 1551  12.121  14.397   1.127
66571SOL    HW1 1552  12.157  14.468   1.181
66571SOL    HW2 1553  12.031  14.386   1.159
66572SOL     OW 1554   7.079   3.288   9.359
66572SOL    HW1 1555   7.031   3.263   9.280
66572SOL    HW2 1556   7.042   3.373   9.382
66573SOL     OW 1557   7.752   1.134   0.420
66573SOL    HW1 1558   7.693   1.177   0.483
66573SOL    HW2 1559   7.723   1.167   0.335
66574SOL     OW 1560   2.791  13.613  12.170
66574SOL    HW1 1561   2.881  13.602  12.200
66574SOL    HW2 1562   2.776  13.539  12.111
66575SOL     OW 1563   9.630  11.713   9.987
66575SOL    HW1 1564   9.643  11.781   9.921
66575SOL    HW2 1565   9.688  11.737  10.058
66576SOL     OW 1566  11.272   9.691   7.539
66576SOL    HW1 1567  11.314   9.632   7.602
66576SOL    HW2 1568  11.233   9.634   7.473
66577SOL     OW 1569  11.028   1.677   7.063
66577SOL    HW1 1570  11.097   1.627   7.019
66577SOL    HW2 1571  10.950   1.661   7.010
66578SOL     OW 1572  11.923   3.322   2.714
66578SOL    HW1 1573  12.004   3.364   2.684
66578SOL    HW2 1574  11.865   3.395   2.734
66579SOL     OW 1575   9.074   2.280   7.192
66579SOL    HW1 1576   9.096   2.362   7.147
66579SOL    HW2 1577   8.978   2.278   7.191
66580SOL     OW 1578   2.304   6.030  13.904
66580SOL    HW1 1579   2.317   5.993  13.816
66580SOL    HW2 1580   2.309   6.125  13.890
66581SOL     OW 1581   4.054  10.936   1.264
66581SOL    HW1 1582   4.103  10.993   1.205
66581SOL    HW2 1583   3.999  10.884   1.207
66582SOL     OW 1584   9.422   2.409   4.206
66582SOL    HW1 1585   9.466   2.493   4.191
66582SOL    HW2 1586   9.445   2.356   4.130
66583SOL     OW 1587  13.851   1.523   6.492
66583SOL    HW1 1588  13.933   1.517   6.541
66583SOL    HW2 1589  13.790   1.467   6.540
66584SOL     OW 1590  13.610  11.061   0.813
66584SOL    HW1 1591  13.687  11.055   0.757
66584SOL    HW2 1592  13.642  11.099   0.895
66585SOL     OW 1593   3.660   4.220   9.632
66585SOL    HW1 1594   3.719   4.173   9.573
66585SOL    HW2 1595   3.718   4.264   9.694
66586SOL     OW 1596   1.307  11.187  14.356
66586SOL    HW1 1597   1.320  11.267  14.406
66586SOL    HW2 1598   1.337  11.116  14.413
66587SOL     OW 1599   5.338  12.936  10.806
66587SOL    HW1 1600   5.379  12.971  10.727
66587SOL    HW2 1601   5.245  12.956  10.796
66588SOL     OW 1602   6.767   8.457  10.084
66588SOL    HW1 1603   6.771   8.540  10.035
66588SOL    HW2 1604   6.808   8.393  10.025
66589SOL     OW 1605   5.709   8.049   2.776
66589SOL    HW1 1606   5.657   8.042   2.856
66589SOL    HW2 1607   5.795   8.013   2.799
66590SOL     OW 1608   8.359   2.957   4.910
66590SOL    HW1 1609   8.385   2.913   4.829
66590SOL    HW2 1610   8.287   2.904   4.944
66591SOL     OW 1611  10.382   8.773   9.979
66591SOL    HW1 1612  10.318   8.702   9.982
66591SOL    HW2 1613  10.375   8.816  10.064
66592SOL     OW 1614  14.146   1.702   6.818
66592SOL    HW1 1615  14.216   1.674   6.759
66592SOL    HW2 1616  14.189   1.719   6.901
66593SOL     OW 1617  13.589   5.634   0.201
66593SOL    HW1 1618  13.617   5.564   0.142
66593SOL    HW2 1619  13.504   5.606   0.234
66594SOL     OW 1620   9.454   2.004   5.780
66594SOL    HW1 1621   9.439   1.934   5.716
66594SOL    HW2 1622   9.367   2.022   5.816
66595SOL     OW 1623   5.475   2.023   2.006
66595SOL    HW1 1624   5.402   1.990   1.953
66595SOL    HW2 1625   5.553   1.989   1.963
66596SOL     OW 1626   9.997   0.614   1.533
66596SOL    HW1 1627   9.961   0.703   1.536
66596SOL    HW2 1628  10.020   0.601   1.441
66597SOL     OW 1629  14.022   0.619  10.060
66597SOL    HW1 1630  14.102   0.669  10.041
66597SOL    HW2 1631  13.996   0.581   9.976
66598SOL     OW 1632  14.608   2.482  14.207
66598SOL    HW1 1633  14.631   2.474  14.299
66598SOL    HW2 1634  14.661   2.554  14.175
66599SOL     OW 1635   5.798  12.882   6.867
66599SOL    HW1 1636   5.766  12.925   6.787
66599SOL    HW2 1637   5.887  12.855   6.845
66600SOL     OW 1638   0.734   0.473  12.748
66600SOL    HW1 1639   0.786   0.530  12.805
66600SOL    HW2 1640   0.799   0.416  12.706
66601SOL     OW 1641  11.693   9.098   9.028
66601SOL    HW1 1642  11.617   9.143   9.065
66601SOL    HW2 1643  11.667   9.077   8.939
66602SOL     OW 1644  12.284   1.929  10.674
66602SOL    HW1 1645  12.322   1.993  10.615
66602SOL    HW2 1646  12.211   1.975  10.716
66603SOL     OW 1647  11.207   4.628   3.770
66603SOL    HW1 1648  11.257   4.559   3.725
66603SOL    HW2 1649  11.274   4.681   3.813
66604SOL     OW 1650   8.161   9.915   2.514
66604SOL    HW1 1651   8.176   9.868   2.432
66604SOL    HW2 1652   8.174  10.007   2.491
66605SOL     OW 1653   2.710   1.801   8.263
66605SOL    HW1 1654   2.715   1.884   8.310
66605SOL    HW2 1655   2.801   1.782   8.239
66606SOL     OW 1656   9.604   0.598  11.467
66606SOL    HW1 1657   9.648   0.571  11.547
66606SOL    HW2 1658   9.658   0.561  11.397
66607SOL     OW 1659   8.540  13.557   4.741
66607SOL    HW1 1660   8.626  13.574   4.781
66607SOL    HW2 1661   8.553  13.576   4.648
66608SOL     OW 1662   7.357   8.938  13.135
66608SOL    HW1 1663   7.278   8.901  13.095
66608SOL    HW2 1664   7.327   9.021  13.172
66609SOL     OW 1665   6.564   3.745   3.057
66609SOL    HW1 1666   6.536   3.832   3.029
66609SOL    HW2 1667   6.658   3.754   3.072
66610SOL     OW 1668   1.324  11.808  13.498
66610SOL    HW1 1669   1.264  11.826  13.426
66610SOL    HW2 1670   1.359  11.894  13.522
66611SOL     OW 1671   8.076   4.678   6.866
66611SOL    HW1 1672   8.020   4.631   6.804
66611SOL    HW2 1673   8.160   4.688   6.821
66612SOL     OW 1674   0.749   9.371   3.823
66612SOL    HW1 1675   0.720   9.299   3.766
66612SOL    HW2 1676   0.815   9.332   3.879
66613SOL     OW 1677   7.349   0.044  12.423
66613SOL    HW1 1678   7.396   0.095  12.357
66613SOL    HW2 1679   7.418   0.010  12.480
66614SOL     OW 1680   3.287  10.342   4.916
66614SOL    HW1 1681   3.351  10.410   4.938
66614SOL    HW2 1682   3.260  10.306   5.001
66615SOL     OW 1683   4.125  14.830   6.317
66615SOL    HW1 1684   4.199  14.792   6.269
66615SOL    HW2 1685   4.164  14.866   6.397
66616SOL     OW 1686   5.752  12.681   1.517
66616SOL    HW1 1687   5.749  12.760   1.572
66616SOL    HW2 1688   5.714  12.613   1.572
66617SOL     OW 1689  11.544   5.188   8.313
66617SOL    HW1 1690  11.448   5.196   8.313
66617SOL    HW2 1691  11.574   5.267   8.268
66618SOL     OW 1692   9.655  11.125   6.002
66618SOL    HW1 1693   9.664  11.072   5.923
66618SOL    HW2 1694   9.562  11.120   6.024
66619SOL     OW 1695   2.792   6.024   0.003
66619SOL    HW1 1696   2.731   5.959   0.038
66619SOL    HW2 1697   2.782   6.018  14.785
66620SOL     OW 1698  10.350   2.841   3.116
66620SOL    HW1 1699  10.257   2.865   3.124
66620SOL    HW2 1700  10.396   2.910   3.165
66621SOL     OW 1701   4.757  12.701   6.210
66621SOL    HW1 1702   4.705  12.661   6.279
66621SOL    HW2 1703   4.847  12.688   6.237
66622SOL     OW 1704   0.060  12.905  12.950
66622SOL    HW1 1705   0.062  12.973  12.884
66622SOL    HW2 1706   0.151  12.875  12.957
66623SOL     OW 1707  14.872   0.782  12.250
66623SOL    HW1 1708   0.003   0.784  12.155
66623SOL    HW2 1709   0.014   0.691  12.274
66624SOL     OW 1710  14.670  11.531   2.253
66624SOL    HW1 1711  14.690  11.445   2.215
66624SOL    HW2 1712  14.751  11.580   2.245
66625SOL     OW 1713   4.549   1.133   5.695
66625SOL    HW1 1714   4.571   1.063   5.634
66625SOL    HW2 1715   4.610   1.121   5.768
66626SOL     OW 1716   5.893   1.439   3.396
66626SOL    HW1 1717   5.831   1.454   3.325
66626SOL    HW2 1718   5.892   1.521   3.446
66627SOL     OW 1719   4.965   5.787  11.132
66627SOL    HW1 1720   4.958   5.726  11.059
66627SOL    HW2 1721   5.011   5.738  11.200
66628SOL     OW 1722   8.542   5.076   4.076
66628SOL    HW1 1723   8.455   5.045   4.050
66628SOL    HW2 1724   8.537   5.085   4.171
66629SOL     OW 1725  11.090   2.990   7.566
66629SOL    HW1 1726  11.058   3.080   7.569
66629SOL    HW2 1727  11.029   2.945   7.507
66630SOL     OW 1728   2.407  13.436  14.302
66630SOL    HW1 1729   2.330  13.423  14.246
66630SOL    HW2 1730   2.425  13.529  14.296
66631SOL     OW 1731  11.926   3.079   6.807
66631SOL    HW1 1732  11.923   3.129   6.888
66631SOL    HW2 1733  11.936   3.145   6.738
66632SOL     OW 1734  12.113  13.428  14.636
66632SOL    HW1 1735  12.060  13.367  14.686
66632SOL    HW2 1736  12.052  13.498  14.611
66633SOL     OW 1737   8.079   4.288   9.070
66633SOL    HW1 1738   8.068   4.377   9.035
66633SOL    HW2 1739   8.019   4.285   9.145
66634SOL     OW 1740   8.173  12.475   2.356
66634SOL    HW1 1741   8.144  12.419   2.427
66634SOL    HW2 1742   8.120  12.449   2.281
66635SOL     OW 1743   2.229  14.591   5.682
66635SOL    HW1 1744   2.294  14.606   5.751
66635SOL    HW2 1745   2.279  14.549   5.612
66636SOL     OW 1746   2.614   6.147  13.452
66636SOL    HW1 1747   2.580   6.071  13.404
66636SOL    HW2 1748   2.646   6.206  13.385
66637SOL     OW 1749   3.704   5.388  14.835
66637SOL    HW1 1750   3.672   5.448   0.027
66637SOL    HW2 1751   3.794   5.368  14.861
66638SOL     OW 1752   9.157   3.868  11.840
66638SOL    HW1 1753   9.207   3.878  11.758
66638SOL    HW2 1754   9.207   3.917  11.905
66639SOL     OW 1755  11.803  14.137   4.216
66639SOL    HW1 1756  11.884  14.182   4.192
66639SOL    HW2 1757  11.824  14.093   4.298
66640SOL     OW 1758   1.136   1.428   0.121
66640SOL    HW1 1759   1.149   1.339   0.151
66640SOL    HW2 1760   1.041   1.436   0.108
66641SOL     OW 1761   5.296   9.477   2.301
66641SOL    HW1 1762   5.239   9.401   2.288
66641SOL    HW2 1763   5.267   9.514   2.385
66642SOL     OW 1764   9.743   5.794  14.677
66642SOL    HW1 1765   9.824   5.790  14.626
66642SOL    HW2 1766   9.771   5.827  14.763
66643SOL     OW 1767  14.499   9.216   6.501
66643SOL    HW1 1768  14.409   9.245   6.509
66643SOL    HW2 1769  14.524   9.192   6.591
66644SOL     OW 1770  14.128  12.200   9.158
66644SOL    HW1 1771  14.200  12.263   9.157
66644SOL    HW2 1772  14.159  12.129   9.102
66645SOL     OW 1773  13.425  10.242  14.521
66645SOL    HW1 1774  13.481  10.285  14.456
66645SOL    HW2 1775  13.406  10.156  14.484
66646SOL     OW 1776   0.851  13.955   2.072
66646SOL    HW1 1777   0.907  13.881   2.047
66646SOL    HW2 1778   0.909  14.014   2.119
66647SOL     OW 1779  14.775  14.251  14.008
66647SOL    HW1 1780  14.831  14.222  13.936
66647SOL    HW2 1781  14.780  14.180  14.072
66648SOL     OW 1782   7.673  14.174  14.004
66648SOL    HW1 1783   7.583  14.199  14.028
66648SOL    HW2 1784   7.675  14.180  13.909
66649SOL     OW 1785   5.043  12.514   8.511
66649SOL    HW1 1786   4.986  12.588   8.496
66649SOL    HW2 1787   5.112  12.547   8.569
66650SOL     OW 1788   1.671  13.739   4.122
66650SOL    HW1 1789   1.681  13.834   4.117
66650SOL    HW2 1790   1.751  13.709   4.165
66651SOL     OW 1791  10.476   8.135  12.641
66651SOL    HW1 1792  10.396   8.100  12.681
66651SOL    HW2 1793  10.477   8.099  12.553
66652SOL     OW 1794   6.714   8.707   6.826
66652SOL    HW1 1795   6.665   8.626   6.834
66652SOL    HW2 1796   6.776   8.705   6.898
66653SOL     OW 1797  12.342  11.835   8.173
66653SOL    HW1 1798  12.296  11.753   8.188
66653SOL    HW2 1799  12.368  11.831   8.080
66654SOL     OW 1800   8.526   7.150   7.780
66654SOL    HW1 1801   8.466   7.197   7.722
66654SOL    HW2 1802   8.495   7.171   7.868
66655SOL     OW 1803  14.006  10.127   4.339
66655SOL    HW1 1804  13.978  10.045   4.298
66655SOL    HW2 1805  13.986  10.195   4.274
66656SOL     OW 1806  14.587   4.277   9.083
66656SOL    HW1 1807  14.543   4.317   9.158
66656SOL    HW2 1808  14.519   4.228   9.038
66657SOL     OW 1809  10.884   7.192   3.287
66657SOL    HW1 1810  10.961   7.191   3.343
66657SOL    HW2 1811  10.871   7.101   3.262
66658SOL     OW 1812   0.449   6.219   4.407
66658SOL    HW1 1813   0.537   6.256   4.407
66658SOL    HW2 1814   0.394   6.288   4.443
66659SOL     OW 1815  12.524   6.695  10.816
66659SOL    HW1 1816  12.534   6.786  10.787
66659SOL    HW2 1817  12.593   6.683  10.882
66660SOL     OW 1818   7.848  11.854  13.128
66660SOL    HW1 1819   7.826  11.922  13.065
66660SOL    HW2 1820   7.835  11.895  13.214
66661SOL     OW 1821   3.453   3.030   3.296
66661SOL    HW1 1822   3.541   3.068   3.296
66661SOL    HW2 1823   3.430   3.022   3.388
66662SOL     OW 1824  10.985   8.272   3.667
66662SOL    HW1 1825  10.899   8.310   3.682
66662SOL    HW2 1826  11.047   8.340   3.696
66663SOL     OW 1827   7.953  12.345  13.404
66663SOL    HW1 1828   8.014  12.274  13.422
66663SOL    HW2 1829   7.998  12.423  13.434
66664SOL     OW 1830   7.609  14.827  12.487
66664SOL    HW1 1831   7.568  14.754  12.533
66664SOL    HW2 1832   7.650  14.787  12.411
66665SOL     OW 1833   2.142  10.272  13.634
66665SOL    HW1 1834   2.095  10.227  13.564
66665SOL    HW2 1835   2.135  10.365  13.613
66666SOL     OW 1836   8.925   5.578   7.127
66666SOL    HW1 1837   8.843   5.598   7.083
66666SOL    HW2 1838   8.937   5.484   7.113
66667SOL     OW 1839  11.344   7.449  12.226
66667SOL    HW1 1840  11.309   7.369  12.187
66667SOL    HW2 1841  11.362   7.425  12.317
66668SOL     OW 1842   8.547   3.280  12.830
66668SOL    HW1 1843   8.640   3.278  12.849
66668SOL    HW2 1844   8.535   3.215  12.760
66669SOL     OW 1845   3.132   7.636  13.968
66669SOL    HW1 1846   3.143   7.630  13.873
66669SOL    HW2 1847   3.156   7.726  13.990
66670SOL     OW 1848  11.248  10.884   6.572
66670SOL    HW1 1849  11.339  10.860   6.557
66670SOL    HW2 1850  11.197  10.815   6.530
66671SOL     OW 1851   7.313   4.002   9.658
66671SOL    HW1 1852   7.358   3.992   9.574
66671SOL    HW2 1853   7.227   3.964   9.644
66672SOL     OW 1854  13.294   5.773  11.507
66672SOL    HW1 1855  13.379   5.773  11.464
66672SOL    HW2 1856  13.263   5.863  11.500
66673SOL     OW 1857  10.472  11.604  13.792
66673SOL    HW1 1858  10.546  11.597  13.732
66673SOL    HW2 1859  10.408  11.541  13.759
66674SOL     OW 1860  11.974  14.606  11.021
66674SOL    HW1 1861  11.937  14.686  10.984
66674SOL    HW2 1862  12.053  14.591  10.970
66675SOL     OW 1863  11.043   8.346  12.719
66675SOL    HW1 1864  11.043   8.440  12.735
66675SOL    HW2 1865  11.024   8.337  12.626
66676SOL     OW 1866   5.408  13.543  10.579
66676SOL    HW1 1867   5.503  13.556  10.580
66676SOL    HW2 1868   5.388  13.504  10.664
66677SOL     OW 1869  14.294   9.980   3.610
66677SOL    HW1 1870  14.231  10.043   3.645
66677SOL    HW2 1871  14.251   9.943   3.533
66678SOL     OW 1872  11.112   0.394   9.927
66678SOL    HW1 1873  11.188   0.403   9.871
66678SOL    HW2 1874  11.037   0.400   9.867
66679SOL     OW 1875   0.504   5.386   5.730
66679SOL    HW1 1876   0.541   5.301   5.752
66679SOL    HW2 1877   0.419   5.365   5.689
66680SOL     OW 1878   0.746  12.731   8.453
66680SOL    HW1 1879   0.748  12.692   8.540
66680SOL    HW2 1880   0.802  12.674   8.400
66681SOL     OW 1881   4.100   6.248   9.555
66681SOL    HW1 1882   4.126   6.192   9.628
66681SOL    HW2 1883   4.152   6.216   9.481
66682SOL     OW 1884   3.480   0.510   7.057
66682SOL    HW1 1885   3.394   0.532   7.021
66682SOL    HW2 1886   3.540   0.571   7.014
66683SOL     OW 1887   3.426   8.125  10.018
66683SOL    HW1 1888   3.493   8.059  10.003
66683SOL    HW2 1889   3.356   8.102   9.957
66684SOL     OW 1890   2.217  11.334  12.481
66684SOL    HW1 1891   2.190  11.399  12.546
66684SOL    HW2 1892   2.310  11.322  12.498
66685SOL     OW 1893   8.006   0.822   6.369
66685SOL    HW1 1894   7.932   0.853   6.421
66685SOL    HW2 1895   8.052   0.761   6.426
66686SOL     OW 1896   9.546  13.674   6.754
66686SOL    HW1 1897   9.613  13.661   6.821
66686SOL    HW2 1898   9.519  13.586   6.730
66687SOL     OW 1899   9.719  12.348   0.785
66687SOL    HW1 1900   9.744  12.321   0.697
66687SOL    HW2 1901   9.782  12.416   0.808
66688SOL     OW 1902   0.631  10.112   4.946
66688SOL    HW1 1903   0.566  10.065   4.893
66688SOL    HW2 1904   0.713  10.065   4.930
66689SOL     OW 1905  11.088   5.441   5.481
66689SOL    HW1 1906  11.030   5.386   5.429
66689SOL    HW2 1907  11.034   5.468   5.556
66690SOL     OW 1908   7.462   3.651  13.439
66690SOL    HW1 1909   7.375   3.676  13.469
66690SOL    HW2 1910   7.448   3.571  13.388
66691SOL     OW 1911   3.804   6.956  13.116
66691SOL    HW1 1912   3.851   6.880  13.081
66691SOL    HW2 1913   3.760   6.995  13.040
66692SOL     OW 1914   6.233   4.820   6.425
66692SOL    HW1 1915   6.257   4.728   6.418
66692SOL    HW2 1916   6.211   4.833   6.517
66693SOL     OW 1917   9.200   3.671   2.340
66693SOL    HW1 1918   9.134   3.604   2.322
66693SOL    HW2 1919   9.247   3.681   2.257
66694SOL     OW 1920   2.092  14.772   6.883
66694SOL    HW1 1921   2.029  14.715   6.839
66694SOL    HW2 1922   2.177  14.730   6.868
66695SOL     OW 1923  14.348  14.591  10.414
66695SOL    HW1 1924  14.265  14.545  10.398
66695SOL    HW2 1925  14.331  14.682  10.388
66696SOL     OW 1926   1.754   9.639  12.697
66696SOL    HW1 1927   1.779   9.550  12.674
66696SOL    HW2 1928   1.806   9.659  12.775
66697SOL     OW 1929  13.825   9.849   1.667
66697SOL    HW1 1930  13.775   9.918   1.623
66697SOL    HW2 1931  13.903   9.893   1.699
66698SOL     OW 1932   0.178   8.122  10.965
66698SOL    HW1 1933   0.106   8.092  10.911
66698SOL    HW2 1934   0.159   8.088  11.053
66699SOL     OW 1935   5.717  12.560   9.005
66699SOL    HW1 1936   5.747  12.529   8.919
66699SOL    HW2 1937   5.775  12.516   9.067
66700SOL     OW 1938   3.213  10.366   8.940
66700SOL    HW1 1939   3.190  10.282   8.899
66700SOL    HW2 1940   3.204  10.430   8.869
66701SOL     OW 1941  11.787  11.090   7.527
66701SOL    HW1 1942  11.806  11.083   7.434
66701SOL    HW2 1943  11.874  11.098   7.568
66702SOL     OW 1944   0.957  13.890  14.180
66702SOL    HW1 1945   0.924  13.896  14.270
66702SOL    HW2 1946   0.910  13.816  14.142
66703SOL     OW 1947  13.833  10.252   3.849
66703SOL    HW1 1948  13.901  10.316   3.828
66703SOL    HW2 1949  13.787  10.289   3.924
66704SOL     OW 1950   2.696   1.964   3.032
66704SOL    HW1 1951   2.747   1.938   2.955
66704SOL    HW2 1952   2.611   1.921   3.020
66705SOL     OW 1953  12.685   4.573   7.498
66705SOL    HW1 1954  12.694   4.646   7.559
66705SOL    HW2 1955  12.773   4.562   7.461
66706SOL     OW 1956  14.053   4.150  10.104
66706SOL    HW1 1957  14.137   4.177  10.141
66706SOL    HW2 1958  14.045   4.200  10.023
66707SOL     OW 1959   6.866  11.036   5.456
66707SOL    HW1 1960   6.784  11.016   5.502
66707SOL    HW2 1961   6.912  11.095   5.516
66708SOL     OW 1962   7.344  10.514   2.394
66708SOL    HW1 1963   7.288  10.515   2.316
66708SOL    HW2 1964   7.430  10.487   2.361
66709SOL     OW 1965  12.390   6.087  13.799
66709SOL    HW1 1966  12.425   5.998  13.795
66709SOL    HW2 1967  12.460   6.141  13.762
66710SOL     OW 1968  12.205   9.886  12.680
66710SOL    HW1 1969  12.158   9.811  12.643
66710SOL    HW2 1970  12.233   9.937  12.603
66711SOL     OW 1971   6.984  12.685   2.548
66711SOL    HW1 1972   6.900  12.728   2.566
66711SOL    HW2 1973   6.973  12.647   2.461
66712SOL     OW 1974  12.264  13.462   9.436
66712SOL    HW1 1975  12.240  13.432   9.348
66712SOL    HW2 1976  12.357  13.487   9.428
66713SOL     OW 1977  13.870   5.550   1.047
66713SOL    HW1 1978  13.901   5.622   0.993
66713SOL    HW2 1979  13.925   5.476   1.022
66714SOL     OW 1980   8.600   8.240   3.238
66714SOL    HW1 1981   8.626   8.212   3.326
66714SOL    HW2 1982   8.682   8.256   3.193
66715SOL     OW 1983   1.555   6.381   4.644
66715SOL    HW1 1984   1.496   6.384   4.719
66715SOL    HW2 1985   1.643   6.388   4.682
66716SOL     OW 1986  14.585   6.426   1.845
66716SOL    HW1 1987  14.651   6.490   1.818
66716SOL    HW2 1988  14.502   6.473   1.836
66717SOL     OW 1989   2.275   3.227   0.558
66717SOL    HW1 1990   2.332   3.249   0.484
66717SOL    HW2 1991   2.297   3.293   0.624
66718SOL     OW 1992   2.617   3.446   7.158
66718SOL    HW1 1993   2.523   3.436   7.170
66718SOL    HW2 1994   2.644   3.507   7.227
66719SOL     OW 1995   8.949   4.761   7.409
66719SOL    HW1 1996   9.043   4.777   7.402
66719SOL    HW2 1997   8.936   4.732   7.499
66720SOL     OW 1998   3.432  12.966   6.870
66720SOL    HW1 1999   3.500  12.935   6.929
66720SOL    HW2 2000   3.476  13.031   6.815
66721SOL     OW 2001   6.592   9.562   8.190
66721SOL    HW1 2002   6.590   9.656   8.210
66721SOL    HW2 2003   6.500   9.535   8.194
66722SOL     OW 2004   3.228   3.286   5.068
66722SOL    HW1 2005   3.230   3.376   5.037
66722SOL    HW2 2006   3.225   3.293   5.163
66723SOL     OW 2007   3.094   6.671   3.503
66723SOL    HW1 2008   3.130   6.629   3.581
66723SOL    HW2 2009   3.060   6.755   3.535
66724SOL     OW 2010   9.731   8.371   1.663
66724SOL    HW1 2011   9.823   8.349   1.643
66724SOL    HW2 2012   9.712   8.324   1.744
66725SOL     OW 2013   6.551   8.377   6.156
66725SOL    HW1 2014   6.538   8.399   6.249
66725SOL    HW2 2015   6.604   8.298   6.158
66726SOL     OW 2016   9.331  13.898   5.652
66726SOL    HW1 2017   9.347  13.817   5.603
66726SOL    HW2 2018   9.269  13.947   5.597
66727SOL     OW 2019  14.049  13.164   7.669
66727SOL    HW1 2020  14.078  13.174   7.578
66727SOL    HW2 2021  14.120  13.203   7.721
66728SOL     OW 2022  12.980  12.528   4.731
66728SOL    HW1 2023  12.956  12.564   4.816
66728SOL    HW2 2024  13.056  12.579   4.704
66729SOL     OW 2025  11.366   6.024   5.529
66729SOL    HW1 2026  11.288   5.996   5.576
66729SOL    HW2 2027  11.439   5.984   5.576
66730SOL     OW 2028  11.874  14.685  12.355
66730SOL    HW1 2029  11.916  14.701  12.440
66730SOL    HW2 2030  11.916  14.747  12.296
66731SOL     OW 2031  10.888   8.902   5.970
66731SOL    HW1 2032  10.961   8.964   5.974
66731SOL    HW2 2033  10.842   8.925   5.890
66732SOL     OW 2034   5.852  11.309  11.592
66732SOL    HW1 2035   5.808  11.335  11.511
66732SOL    HW2 2036   5.913  11.380  11.611
66733SOL     OW 2037  12.008   3.754  11.840
66733SOL    HW1 2038  11.981   3.765  11.931
66733SOL    HW2 2039  11.938   3.793  11.789
66734SOL     OW 2040   1.299  12.347  11.699
66734SOL    HW1 2041   1.358  12.395  11.757
66734SOL    HW2 2042   1.322  12.255  11.712
66735SOL     OW 2043  11.787  13.678  11.074
66735SOL    HW1 2044  11.781  13.591  11.113
66735SOL    HW2 2045  11.697  13.712  11.078
66736SOL     OW 2046   2.279  11.167   1.184
66736SOL    HW1 2047   2.330  11.097   1.225
66736SOL    HW2 2048   2.303  11.246   1.232
66737SOL     OW 2049   8.461  11.928  11.550
66737SOL    HW1 2050   8.484  11.909  11.459
66737SOL    HW2 2051   8.520  11.873  11.601
66738SOL     OW 2052   3.090   8.851   9.235
66738SOL    HW1 2053   3.091   8.825   9.327
66738SOL    HW2 2054   3.181   8.842   9.207
66739SOL     OW 2055   5.009   5.915   1.945
66739SOL    HW1 2056   4.943   5.864   1.898
66739SOL    HW2 2057   5.028   5.989   1.887
66740SOL     OW 2058  13.016   0.641   9.668
66740SOL    HW1 2059  13.101   0.666   9.704
66740SOL    HW2 2060  12.956   0.644   9.742
66741SOL     OW 2061  10.818   2.672   6.719
66741SOL    HW1 2062  10.770   2.750   6.747
66741SOL    HW2 2063  10.903   2.680   6.762
66742SOL     OW 2064   6.232   1.474  13.559
66742SOL    HW1 2065   6.301   1.411  13.539
66742SOL    HW2 2066   6.204   1.451  13.648
66743SOL     OW 2067  13.233  12.440   6.560
66743SOL    HW1 2068  13.175  12.407   6.491
66743SOL    HW2 2069  13.321  12.428   6.525
66744SOL     OW 2070  13.863   3.696   5.456
66744SOL    HW1 2071  13.942   3.701   5.402
66744SOL    HW2 2072  13.883   3.630   5.523
66745SOL     OW 2073  11.670   3.611  14.862
66745SOL    HW1 2074  11.737   3.654  14.809
66745SOL    HW2 2075  11.679   3.650   0.073
66746SOL     OW 2076   8.323  10.132  13.639
66746SOL    HW1 2077   8.247  10.176  13.601
66746SOL    HW2 2078   8.300  10.118  13.731
66747SOL     OW 2079   9.807   0.477   1.089
66747SOL    HW1 2080   9.842   0.511   1.007
66747SOL    HW2 2081   9.872   0.413   1.119
66748SOL     OW 2082   7.984   7.744   9.304
66748SOL    HW1 2083   7.929   7.756   9.382
66748SOL    HW2 2084   8.032   7.826   9.296
66749SOL     OW 2085   2.646   9.435   4.740
66749SOL    HW1 2086   2.717   9.498   4.727
66749SOL    HW2 2087   2.662   9.367   4.674
66750SOL     OW 2088   8.659   7.444   7.219
66750SOL    HW1 2089   8.662   7.352   7.245
66750SOL    HW2 2090   8.750   7.468   7.203
66751SOL     OW 2091   4.881   9.385   6.422
66751SOL    HW1 2092   4.790   9.414   6.415
66751SOL    HW2 2093   4.877   9.290   6.411
66752SOL     OW 2094   4.762   4.232   1.990
66752SOL    HW1 2095   4.680   4.214   2.036
66752SOL    HW2 2096   4.830   4.223   2.057
66753SOL     OW 2097  14.608   2.984   6.798
66753SOL    HW1 2098  14.558   2.976   6.717
66753SOL    HW2 2099  14.689   2.935   6.781
66754SOL     OW 2100   7.405   9.204   0.940
66754SOL    HW1 2101   7.330   9.263   0.941
66754SOL    HW2 2102   7.480   9.260   0.919
66755SOL     OW 2103  14.236   5.257   8.765
66755SOL    HW1 2104  14.219   5.307   8.685
66755SOL    HW2 2105  14.303   5.308   8.811
66756SOL     OW 2106  14.097  11.351   9.919
66756SOL    HW1 2107  14.009  11.336   9.955
66756SOL    HW2 2108  14.090  11.322   9.828
66757SOL     OW 2109   4.771   3.622  11.411
66757SOL    HW1 2110   4.801   3.712  11.404
66757SOL    HW2 2111   4.825   3.584  11.480
66758SOL     OW 2112  10.141   5.848   3.259
66758SOL    HW1 2113  10.047   5.835   3.271
66758SOL    HW2 2114  10.157   5.938   3.289
66759SOL     OW 2115  14.268   6.055  12.323
66759SOL    HW1 2116  14.342   5.996  12.306
66759SOL    HW2 2117  14.285   6.091  12.410
66760SOL     OW 2118   8.021   6.406   5.724
66760SOL    HW1 2119   7.940   6.448   5.695
66760SOL    HW2 2120   8.038   6.338   5.659
66761SOL     OW 2121  11.446  14.117   9.978
66761SOL    HW1 2122  11.477  14.036   9.938
66761SOL    HW2 2123  11.454  14.102  10.072
66762SOL     OW 2124  12.163   8.323  14.310
66762SOL    HW1 2125  12.205   8.382  14.247
66762SOL    HW2 2126  12.210   8.337  14.392
66763SOL     OW 2127   2.664   9.287   4.484
66763SOL    HW1 2128   2.678   9.221   4.416
66763SOL    HW2 2129   2.595   9.343   4.448
66764SOL     OW 2130  12.991   1.820   3.697
66764SOL    HW1 2131  12.990   1.725   3.695
66764SOL    HW2 2132  12.928   1.844   3.764
66765SOL     OW 2133   7.209   2.754  13.439
66765SOL    HW1 2134   7.216   2.663  13.468
66765SOL    HW2 2135   7.252   2.804  13.509
66766SOL     OW 2136   7.234   4.705   3.366
66766SOL    HW1 2137   7.143   4.691   3.342
66766SOL    HW2 2138   7.271   4.617   3.374
66767SOL     OW 2139   8.503   1.952  10.268
66767SOL    HW1 2140   8.540   1.916  10.187
66767SOL    HW2 2141   8.491   2.045  10.250
66768SOL     OW 2142   3.168   4.728   8.858
66768SOL    HW1 2143   3.099   4.792   8.874
66768SOL    HW2 2144   3.249   4.775   8.874
66769SOL     OW 2145  12.300   9.017  11.929
66769SOL    HW1 2146  12.343   8.975  11.854
66769SOL    HW2 2147  12.240   8.951  11.963
66770SOL     OW 2148  10.642   5.706   0.830
66770SOL    HW1 2149  10.629   5.725   0.737
66770SOL    HW2 2150  10.557   5.672   0.859
66771SOL     OW 2151   3.699  13.095   7.213
66771SOL    HW1 2152   3.654  13.144   7.144
66771SOL    HW2 2153   3.631  13.076   7.277
66772SOL     OW 2154   8.236   9.682   0.215
66772SOL    HW1 2155   8.313   9.631   0.240
66772SOL    HW2 2156   8.272   9.765   0.185
66773SOL     OW 2157   0.659   1.178  11.975
66773SOL    HW1 2158   0.718   1.102  11.979
66773SOL    HW2 2159   0.635   1.185  11.883
66774SOL     OW 2160   8.553  12.856   2.143
66774SOL    HW1 2161   8.463  12.824   2.150
66774SOL    HW2 2162   8.568  12.864   2.048
66775SOL     OW 2163   4.902   5.896   9.445
66775SOL    HW1 2164   4.887   5.984   9.481
66775SOL    HW2 2165   4.928   5.912   9.355
66776SOL     OW 2166   5.131  10.056   4.219
66776SOL    HW1 2167   5.158  10.122   4.284
66776SOL    HW2 2168   5.047  10.088   4.186
66777SOL     OW 2169   2.244   5.295   7.987
66777SOL    HW1 2170   2.275   5.278   8.076
66777SOL    HW2 2171   2.151   5.274   7.989
66778SOL     OW 2172   7.042  11.216   0.653
66778SOL    HW1 2173   7.106  11.279   0.686
66778SOL    HW2 2174   7.004  11.259   0.576
66779SOL     OW 2175  14.102   7.483  13.729
66779SOL    HW1 2176  14.009   7.497  13.716
66779SOL    HW2 2177  14.106   7.412  13.794
66780SOL     OW 2178   3.221   2.553  13.922
66780SOL    HW1 2179   3.310   2.546  13.889
66780SOL    HW2 2180   3.214   2.643  13.955
66781SOL     OW 2181   9.215   6.266   0.310
66781SOL    HW1 2182   9.289   6.325   0.315
66781SOL    HW2 2183   9.202   6.250   0.216
66782SOL     OW 2184   1.791  14.486   4.077
66782SOL    HW1 2185   1.702  14.494   4.044
66782SOL    HW2 2186   1.782  14.431   4.155
66783SOL     OW 2187   0.945  14.586   4.580
66783SOL    HW1 2188   0.923  14.630   4.498
66783SOL    HW2 2189   1.035  14.614   4.599
66784SOL     OW 2190  14.729   8.197   0.725
66784SOL    HW1 2191  14.645   8.154   0.739
66784SOL    HW2 2192  14.708   8.290   0.722
66785SOL     OW 2193   7.544   6.081  10.624
66785SOL    HW1 2194   7.605   6.055  10.693
66785SOL    HW2 2195   7.592   6.146  10.573
66786SOL     OW 2196  13.860   9.405   2.778
66786SOL    HW1 2197  13.781   9.458   2.769
66786SOL    HW2 2198  13.919   9.439   2.710
66787SOL     OW 2199  13.413   5.821   1.514
66787SOL    HW1 2200  13.342   5.825   1.450
66787SOL    HW2 2201  13.378   5.866   1.591
66788SOL     OW 2202   6.156  12.528   3.251
66788SOL    HW1 2203   6.226  12.536   3.315
66788SOL    HW2 2204   6.075  12.537   3.302
66789SOL     OW 2205  11.108  13.339   1.960
66789SOL    HW1 2206  11.107  13.373   1.871
66789SOL    HW2 2207  11.181  13.384   2.002
66790SOL     OW 2208   6.546   2.036  14.382
66790SOL    HW1 2209   6.611   1.986  14.431
66790SOL    HW2 2210   6.496   2.083  14.449
66791SOL     OW 2211   3.376   4.063   3.598
66791SOL    HW1 2212   3.439   3.999   3.565
66791SOL    HW2 2213   3.404   4.081   3.687
66792SOL     OW 2214   1.563  11.448  11.776
66792SOL    HW1 2215   1.546  11.437  11.870
66792SOL    HW2 2216   1.656  11.426  11.766
66793SOL     OW 2217   6.139   1.302   8.433
66793SOL    HW1 2218   6.118   1.210   8.417
66793SOL    HW2 2219   6.092   1.350   8.365
66794SOL     OW 2220   7.472  10.752   0.342
66794SOL    HW1 2221   7.502  10.817   0.406
66794SOL    HW2 2222   7.544  10.744   0.280
66795SOL     OW 2223   5.770  11.217   9.354
66795SOL    HW1 2224   5.797  11.126   9.361
66795SOL    HW2 2225   5.706  11.228   9.424
66796SOL     OW 2226   4.708  10.404   0.571
66796SOL    HW1 2227   4.628  10.365   0.608
66796SOL    HW2 2228   4.740  10.339   0.509
66797SOL     OW 2229   2.578   8.373   8.522
66797SOL    HW1 2230   2.633   8.435   8.570
66797SOL    HW2 2231   2.499   8.365   8.575
66798SOL     OW 2232   8.978   9.342   2.801
66798SOL    HW1 2233   8.939   9.359   2.715
66798SOL    HW2 2234   8.949   9.417   2.855
66799SOL     OW 2235  14.500  13.615  13.536
66799SOL    HW1 2236  14.538  13.536  13.576
66799SOL    HW2 2237  14.562  13.638  13.467
66800SOL     OW 2238  12.112   7.801   6.510
66800SOL    HW1 2239  12.135   7.733   6.447
66800SOL    HW2 2240  12.099   7.754   6.593
66801SOL     OW 2241  10.282   7.589   9.065
66801SOL    HW1 2242  10.317   7.549   9.145
66801SOL    HW2 2243  10.214   7.528   9.035
66802SOL     OW 2244  13.331   2.612  12.195
66802SOL    HW1 2245  13.246   2.596  12.154
66802SOL    HW2 2246  13.313   2.610  12.289
66803SOL     OW 2247   7.778   4.379   8.226
66803SOL    HW1 2248   7.772   4.438   8.151
66803SOL    HW2 2249   7.726   4.303   8.200
66804SOL     OW 2250  13.785   8.082   1.170
66804SOL    HW1 2251  13.776   8.174   1.143
66804SOL    HW2 2252  13.697   8.046   1.164
66805SOL     OW 2253   6.932   0.617   9.623
66805SOL    HW1 2254   6.962   0.626   9.532
66805SOL    HW2 2255   6.902   0.526   9.629
66806SOL     OW 2256   6.828   7.486   7.610
66806SOL    HW1 2257   6.901   7.474   7.670
66806SOL    HW2 2258   6.806   7.397   7.581
66807SOL     OW 2259   5.107  13.989   8.732
66807SOL    HW1 2260   5.051  13.913   8.745
66807SOL    HW2 2261   5.177  13.958   8.675
66808SOL     OW 2262  10.707   1.069   5.700
66808SOL    HW1 2263  10.786   1.022   5.673
66808SOL    HW2 2264  10.647   0.999   5.728
66809SOL     OW 2265  13.325   8.679   4.079
66809SOL    HW1 2266  13.417   8.704   4.086
66809SOL    HW2 2267  13.300   8.652   4.167
66810SOL     OW 2268  10.650  14.040   7.503
66810SOL    HW1 2269  10.561  14.016   7.477
66810SOL    HW2 2270  10.638  14.096   7.580
66811SOL     OW 2271   7.334   6.566  12.683
66811SOL    HW1 2272   7.402   6.598  12.625
66811SOL    HW2 2273   7.282   6.644  12.705
66812SOL     OW 2274   0.280  14.457  14.857
66812SOL    HW1 2275   0.234  14.459  14.773
66812SOL    HW2 2276   0.363  14.412  14.838
66813SOL     OW 2277   3.774  10.125   4.661
66813SOL    HW1 2278   3.752  10.038   4.694
66813SOL    HW2 2279   3.865  10.117   4.631
66814SOL     OW 2280   0.076   3.591  10.279
66814SOL    HW1 2281   0.001   3.647  10.297
66814SOL    HW2 2282   0.150   3.637  10.318
66815SOL     OW 2283   4.178   8.794   0.258
66815SOL    HW1 2284   4.130   8.744   0.191
66815SOL    HW2 2285   4.202   8.876   0.213
66816SOL     OW 2286   5.400   3.091  13.386
66816SOL    HW1 2287   5.493   3.090  13.412
66816SOL    HW2 2288   5.376   2.998  13.382
66817SOL     OW 2289  12.885   6.602   2.554
66817SOL    HW1 2290  12.895   6.688   2.596
66817SOL    HW2 2291  12.829   6.553   2.614
66818SOL     OW 2292   9.454  11.086   0.825
66818SOL    HW1 2293   9.427  11.042   0.906
66818SOL    HW2 2294   9.399  11.046   0.757
66819SOL     OW 2295   5.864   5.912   0.896
66819SOL    HW1 2296   5.959   5.924   0.896
66819SOL    HW2 2297   5.850   5.824   0.933
66820SOL     OW 2298  12.084   3.939   1.691
66820SOL    HW1 2299  11.999   3.898   1.675
66820SOL    HW2 2300  12.141   3.905   1.621
66821SOL     OW 2301  13.989  12.716   6.567
66821SOL    HW1 2302  13.923  12.747   6.505
66821SOL    HW2 2303  13.950  12.638   6.606
66822SOL     OW 2304   6.565   4.636  11.947
66822SOL    HW1 2305   6.510   4.708  11.980
66822SOL    HW2 2306   6.625   4.678  11.885
66823SOL     OW 2307   5.742  11.254  10.720
66823SOL    HW1 2308   5.671  11.217  10.772
66823SOL    HW2 2309   5.798  11.180  10.700
66824SOL     OW 2310  11.747  13.077   4.504
66824SOL    HW1 2311  11.723  13.094   4.596
66824SOL    HW2 2312  11.675  13.115   4.453
66825SOL     OW 2313  12.712   4.731  10.255
66825SOL    HW1 2314  12.744   4.698  10.171
66825SOL    HW2 2315  12.752   4.818  10.264
66826SOL     OW 2316   3.414   4.310   4.980
66826SOL    HW1 2317   3.370   4.388   5.014
66826SOL    HW2 2318   3.391   4.308   4.888
66827SOL     OW 2319   1.363   5.248   5.680
66827SOL    HW1 2320   1.418   5.289   5.613
66827SOL    HW2 2321   1.281   5.228   5.634
66828SOL     OW 2322  12.226  12.768   0.773
66828SOL    HW1 2323  12.273  12.849   0.753
66828SOL    HW2 2324  12.270  12.701   0.720
66829SOL     OW 2325   2.575   5.513  11.113
66829SOL    HW1 2326   2.666   5.483  11.121
66829SOL    HW2 2327   2.581   5.598  11.071
66830SOL     OW 2328   4.178   0.610   3.171
66830SOL    HW1 2329   4.202   0.532   3.121
66830SOL    HW2 2330   4.106   0.582   3.228
66831SOL     OW 2331   8.078   3.266   2.880
66831SOL    HW1 2332   8.147   3.312   2.928
66831SOL    HW2 2333   8.124   3.206   2.822
66832SOL     OW 2334   1.837   1.485   6.574
66832SOL    HW1 2335   1.862   1.574   6.547
66832SOL    HW2 2336   1.912   1.453   6.623
66833SOL     OW 2337   0.053   3.896  13.242
66833SOL    HW1 2338   0.132   3.912  13.293
66833SOL    HW2 2339  14.857   3.924  13.298
66834SOL     OW 2340   2.706  10.928   7.099
66834SOL    HW1 2341   2.726  10.924   7.006
66834SOL    HW2 2342   2.750  11.007   7.130
66835SOL     OW 2343   1.730   6.260   1.720
66835SOL    HW1 2344   1.779   6.341   1.735
66835SOL    HW2 2345   1.676   6.251   1.798
66836SOL     OW 2346   5.936   9.722  12.872
66836SOL    HW1 2347   5.966   9.781  12.942
66836SOL    HW2 2348   5.851   9.690  12.903
66837SOL     OW 2349  12.388   9.575   8.899
66837SOL    HW1 2350  12.332   9.624   8.959
66837SOL    HW2 2351  12.383   9.485   8.931
66838SOL     OW 2352   6.447   2.593   8.875
66838SOL    HW1 2353   6.505   2.667   8.890
66838SOL    HW2 2354   6.359   2.630   8.878
66839SOL     OW 2355   4.335   4.974   8.156
66839SOL    HW1 2356   4.377   4.918   8.221
66839SOL    HW2 2357   4.321   4.917   8.080
66840SOL     OW 2358   4.578  12.510   1.393
66840SOL    HW1 2359   4.603  12.465   1.474
66840SOL    HW2 2360   4.483  12.497   1.386
66841SOL     OW 2361   0.991   1.329  11.042
66841SOL    HW1 2362   0.959   1.414  11.014
66841SOL    HW2 2363   1.065   1.349  11.099
66842SOL     OW 2364   3.664   4.224  10.273
66842SOL    HW1 2365   3.709   4.255  10.351
66842SOL    HW2 2366   3.686   4.131  10.269
66843SOL     OW 2367   5.344   5.200   2.301
66843SOL    HW1 2368   5.363   5.214   2.209
66843SOL    HW2 2369   5.426   5.167   2.338
66844SOL     OW 2370  13.422   0.811  10.321
66844SOL    HW1 2371  13.401   0.898  10.289
66844SOL    HW2 2372  13.504   0.787  10.276
66845SOL     OW 2373   8.867   8.712   3.396
66845SOL    HW1 2374   8.804   8.660   3.345
66845SOL    HW2 2375   8.951   8.669   3.380
66846SOL     OW 2376   9.454   4.646  13.069
66846SOL    HW1 2377   9.549   4.651  13.056
66846SOL    HW2 2378   9.434   4.553  13.067
66847SOL     OW 2379   9.964   9.759   6.771
66847SOL    HW1 2380   9.972   9.692   6.838
66847SOL    HW2 2381   9.872   9.757   6.745
66848SOL     OW 2382   5.988   9.705   9.455
66848SOL    HW1 2383   6.084   9.702   9.451
66848SOL    HW2 2384   5.963   9.616   9.478
66849SOL     OW 2385   8.883   0.726   1.421
66849SOL    HW1 2386   8.942   0.754   1.351
66849SOL    HW2 2387   8.815   0.675   1.376
66850SOL     OW 2388   6.291  10.835   9.413
66850SOL    HW1 2389   6.295  10.750   9.371
66850SOL    HW2 2390   6.311  10.898   9.344
66851SOL     OW 2391  14.050   1.947   5.049
66851SOL    HW1 2392  13.964   1.949   5.091
66851SOL    HW2 2393  14.110   1.981   5.115
66852SOL     OW 2394   2.424  12.972  12.378
66852SOL    HW1 2395   2.448  13.055  12.419
66852SOL    HW2 2396   2.353  12.996  12.318
66853SOL     OW 2397   4.918   4.903   3.897
66853SOL    HW1 2398   4.955   4.947   3.973
66853SOL    HW2 2399   4.843   4.957   3.872
66854SOL     OW 2400   2.862   6.271   5.087
66854SOL    HW1 2401   2.924   6.340   5.112
66854SOL    HW2 2402   2.844   6.224   5.168
66855SOL     OW 2403  10.268   3.886  10.234
66855SOL    HW1 2404  10.206   3.911  10.302
66855SOL    HW2 2405  10.243   3.938  10.158
66856SOL     OW 2406  14.097   7.830   6.778
66856SOL    HW1 2407  14.153   7.830   6.700
66856SOL    HW2 2408  14.157   7.812   6.851
66857SOL     OW 2409   6.444   6.743  11.266
66857SOL    HW1 2410   6.429   6.659  11.309
66857SOL    HW2 2411   6.522   6.729  11.212
66858SOL     OW 2412  10.091  13.192   6.460
66858SOL    HW1 2413  10.086  13.101   6.432
66858SOL    HW2 2414  10.113  13.188   6.553
66859SOL     OW 2415   9.433  14.120  13.020
66859SOL    HW1 2416   9.388  14.058  12.962
66859SOL    HW2 2417   9.395  14.105  13.106
66860SOL     OW 2418   9.434  12.890   8.703
66860SOL    HW1 2419   9.519  12.906   8.744
66860SOL    HW2 2420   9.455  12.838   8.625
66861SOL     OW 2421   1.425   7.324   2.242
66861SOL    HW1 2422   1.480   7.270   2.298
66861SOL    HW2 2423   1.391   7.393   2.299
66862SOL     OW 2424   1.450  14.774  14.220
66862SOL    HW1 2425   1.539  14.797  14.194
66862SOL    HW2 2426   1.404  14.756  14.138
66863SOL     OW 2427  11.901  10.389  14.515
66863SOL    HW1 2428  11.845  10.325  14.471
66863SOL    HW2 2429  11.924  10.451  14.445
66864SOL     OW 2430   6.571   5.754  14.047
66864SOL    HW1 2431   6.566   5.669  14.004
66864SOL    HW2 2432   6.613   5.812  13.984
66865SOL     OW 2433   8.614   9.490  14.573
66865SOL    HW1 2434   8.620   9.584  14.592
66865SOL    HW2 2435   8.544   9.484  14.508
66866SOL     OW 2436  11.500   5.325  10.369
66866SOL    HW1 2437  11.573   5.384  10.387
66866SOL    HW2 2438  11.475   5.344  10.279
66867SOL     OW 2439   6.335   9.106  10.856
66867SOL    HW1 2440   6.248   9.122  10.892
66867SOL    HW2 2441   6.395   9.133  10.925
66868SOL     OW 2442   7.482   4.338  12.931
66868SOL    HW1 2443   7.411   4.394  12.898
66868SOL    HW2 2444   7.558   4.362  12.878
66869SOL     OW 2445   5.510   1.623  13.864
66869SOL    HW1 2446   5.496   1.529  13.852
66869SOL    HW2 2447   5.425   1.656  13.894
66870SOL     OW 2448   7.120  11.366  11.129
66870SOL    HW1 2449   7.115  11.279  11.170
66870SOL    HW2 2450   7.213  11.378  11.110
66871SOL     OW 2451   2.433  11.018   8.863
66871SOL    HW1 2452   2.369  11.055   8.924
66871SOL    HW2 2453   2.390  11.021   8.777
66872SOL     OW 2454  10.130   3.163  10.868
66872SOL    HW1 2455  10.040   3.168  10.901
66872SOL    HW2 2456  10.150   3.070  10.865
66873SOL     OW 2457   9.281   3.176   3.662
66873SOL    HW1 2458   9.301   3.140   3.576
66873SOL    HW2 2459   9.266   3.100   3.718
66874SOL     OW 2460   9.793  10.240  12.713
66874SOL    HW1 2461   9.706  10.246  12.672
66874SOL    HW2 2462   9.829  10.157  12.681
66875SOL     OW 2463   2.230   6.774   4.621
66875SOL    HW1 2464   2.140   6.742   4.628
66875SOL    HW2 2465   2.230   6.827   4.541
66876SOL     OW 2466  13.347   4.532   4.083
66876SOL    HW1 2467  13.439   4.508   4.093
66876SOL    HW2 2468  13.349   4.622   4.051
66877SOL     OW 2469  13.057   5.526   7.456
66877SOL    HW1 2470  13.067   5.462   7.386
66877SOL    HW2 2471  13.032   5.607   7.412
66878SOL     OW 2472   3.893   3.166  13.753
66878SOL    HW1 2473   3.841   3.086  13.760
66878SOL    HW2 2474   3.953   3.149  13.680
66879SOL     OW 2475   7.154   8.300   4.411
66879SOL    HW1 2476   7.090   8.239   4.375
66879SOL    HW2 2477   7.124   8.316   4.501
66880SOL     OW 2478   1.453   4.234   6.415
66880SOL    HW1 2479   1.456   4.330   6.411
66880SOL    HW2 2480   1.514   4.206   6.347
66881SOL     OW 2481  10.029   2.615   5.801
66881SOL    HW1 2482  10.116   2.647   5.780
66881SOL    HW2 2483   9.990   2.683   5.856
66882SOL     OW 2484   1.141   3.859  11.885
66882SOL    HW1 2485   1.140   3.897  11.973
66882SOL    HW2 2486   1.109   3.770  11.897
66883SOL     OW 2487  11.134   2.292  12.431
66883SOL    HW1 2488  11.131   2.287  12.527
66883SOL    HW2 2489  11.052   2.251  12.403
66884SOL     OW 2490   0.432  11.782   5.255
66884SOL    HW1 2491   0.337  11.774   5.243
66884SOL    HW2 2492   0.465  11.808   5.169
66885SOL     OW 2493   3.176   1.306   1.427
66885SOL    HW1 2494   3.255   1.333   1.381
66885SOL    HW2 2495   3.208   1.255   1.501
66886SOL     OW 2496   0.032   5.483   7.163
66886SOL    HW1 2497   0.032   5.540   7.086
66886SOL    HW2 2498  14.833   5.425   7.151
66887SOL     OW 2499  12.650   5.922   7.744
66887SOL    HW1 2500  12.613   5.846   7.699
66887SOL    HW2 2501  12.719   5.954   7.686
66888SOL     OW 2502   4.483  10.179  11.481
66888SOL    HW1 2503   4.571  10.217  11.476
66888SOL    HW2 2504   4.454  10.198  11.570
66889SOL     OW 2505   4.509  14.738  12.412
66889SOL    HW1 2506   4.601  14.714  12.424
66889SOL    HW2 2507   4.474  14.672  12.352
66890SOL     OW 2508   2.756   8.448  10.635
66890SOL    HW1 2509   2.703   8.459  10.556
66890SOL    HW2 2510   2.845   8.474  10.608
66891SOL     OW 2511  11.013  12.264   9.358
66891SOL    HW1 2512  11.039  12.327   9.291
66891SOL    HW2 2513  10.995  12.317   9.436
66892SOL     OW 2514   6.758  12.766   1.967
66892SOL    HW1 2515   6.806  12.784   1.886
66892SOL    HW2 2516   6.747  12.852   2.008
66893SOL     OW 2517  11.508   4.477   3.928
66893SOL    HW1 2518  11.599   4.462   3.954
66893SOL    HW2 2519  11.513   4.543   3.858
66894SOL     OW 2520   2.536   8.336   2.131
66894SOL    HW1 2521   2.552   8.255   2.178
66894SOL    HW2 2522   2.532   8.310   2.039
66895SOL     OW 2523   3.674   9.310   9.569
66895SOL    HW1 2524   3.701   9.240   9.509
66895SOL    HW2 2525   3.754   9.358   9.588
66896SOL     OW 2526   1.119   8.232   7.395
66896SOL    HW1 2527   1.205   8.264   7.423
66896SOL    HW2 2528   1.092   8.170   7.463
66897SOL     OW 2529  12.595   9.924   9.997
66897SOL    HW1 2530  12.688   9.908   9.977
66897SOL    HW2 2531  12.586  10.019   9.990
66898SOL     OW 2532  10.740  10.123   4.931
66898SOL    HW1 2533  10.695  10.112   5.015
66898SOL    HW2 2534  10.669  10.131   4.867
66899SOL     OW 2535   0.500   2.740  10.439
66899SOL    HW1 2536   0.592   2.739  10.410
66899SOL    HW2 2537   0.452   2.695  10.369
66900SOL     OW 2538   6.223   8.986   1.214
66900SOL    HW1 2539   6.230   9.075   1.249
66900SOL    HW2 2540   6.259   8.993   1.125
66901SOL     OW 2541  14.243   8.808   0.852
66901SOL    HW1 2542  14.303   8.845   0.787
66901SOL    HW2 2543  14.158   8.804   0.807
66902SOL     OW 2544   7.704  11.873  11.131
66902SOL    HW1 2545   7.751  11.845  11.210
66902SOL    HW2 2546   7.753  11.948  11.099
66903SOL     OW 2547   0.196  12.855  14.849
66903SOL    HW1 2548   0.221  12.762  14.842
66903SOL    HW2 2549   0.242  12.897  14.776
66904SOL     OW 2550   9.260  12.431   1.190
66904SOL    HW1 2551   9.355  12.439   1.183
66904SOL    HW2 2552   9.246  12.348   1.236
66905SOL     OW 2553  10.793   1.253  11.915
66905SOL    HW1 2554  10.822   1.338  11.883
66905SOL    HW2 2555  10.752   1.211  11.840
66906SOL     OW 2556   2.299  11.507   8.331
66906SOL    HW1 2557   2.242  11.548   8.396
66906SOL    HW2 2558   2.383  11.553   8.340
66907SOL     OW 2559   9.085  13.560   9.515
66907SOL    HW1 2560   9.096  13.524   9.603
66907SOL    HW2 2561   9.088  13.484   9.457
66908SOL     OW 2562  13.849   9.601  11.830
66908SOL    HW1 2563  13.881   9.589  11.741
66908SOL    HW2 2564  13.923   9.576  11.886
66909SOL     OW 2565  13.691   3.049  14.283
66909SOL    HW1 2566  13.727   2.966  14.313
66909SOL    HW2 2567  13.628   3.073  14.352
66910SOL     OW 2568   7.427   7.378   4.878
66910SOL    HW1 2569   7.482   7.319   4.826
66910SOL    HW2 2570   7.412   7.329   4.960
66911SOL     OW 2571   0.221  11.086  11.998
66911SOL    HW1 2572   0.236  11.077  12.092
66911SOL    HW2 2573   0.161  11.160  11.990
66912SOL     OW 2574   7.432   6.376   7.191
66912SOL    HW1 2575   7.500   6.434   7.227
66912SOL    HW2 2576   7.476   6.330   7.119
66913SOL     OW 2577  13.064  12.754   4.441
66913SOL    HW1 2578  12.987  12.798   4.477
66913SOL    HW2 2579  13.110  12.719   4.518
66914SOL     OW 2580   6.359   2.970   5.248
66914SOL    HW1 2581   6.454   2.964   5.263
66914SOL    HW2 2582   6.329   3.036   5.310
66915SOL     OW 2583   3.047   9.786  14.799
66915SOL    HW1 2584   2.991   9.853  14.760
66915SOL    HW2 2585   3.077   9.825   0.005
66916SOL     OW 2586   9.154  13.599   4.319
66916SOL    HW1 2587   9.150  13.694   4.309
66916SOL    HW2 2588   9.125  13.565   4.234
66917SOL     OW 2589   1.131   5.530  12.378
66917SOL    HW1 2590   1.087   5.447  12.362
66917SOL    HW2 2591   1.201   5.533  12.313
66918SOL     OW 2592   4.933   4.957   9.584
66918SOL    HW1 2593   4.890   4.873   9.596
66918SOL    HW2 2594   4.906   5.009   9.660
66919SOL     OW 2595   6.402  11.711   4.184
66919SOL    HW1 2596   6.377  11.619   4.191
66919SOL    HW2 2597   6.339  11.757   4.240
66920SOL     OW 2598  13.359   4.850  13.303
66920SOL    HW1 2599  13.347   4.866  13.397
66920SOL    HW2 2600  13.286   4.896  13.261
66921SOL     OW 2601  11.465   5.902   2.324
66921SOL    HW1 2602  11.447   5.836   2.258
66921SOL    HW2 2603  11.450   5.858   2.408
66922SOL     OW 2604   8.152   2.763  13.937
66922SOL    HW1 2605   8.122   2.777  13.847
66922SOL    HW2 2606   8.106   2.684  13.966
66923SOL     OW 2607   7.825   9.969   7.725
66923SOL    HW1 2608   7.916   9.977   7.699
66923SOL    HW2 2609   7.775   9.981   7.644
66924SOL     OW 2610  14.437  13.799  11.862
66924SOL    HW1 2611  14.350  13.773  11.831
66924SOL    HW2 2612  14.428  13.893  11.881
66925SOL     OW 2613   6.954   7.828  11.379
66925SOL    HW1 2614   6.974   7.881  11.457
66925SOL    HW2 2615   6.864   7.799  11.392
66926SOL     OW 2616  13.061   5.100  10.740
66926SOL    HW1 2617  13.147   5.078  10.706
66926SOL    HW2 2618  13.027   5.018  10.775
66927SOL     OW 2619   8.155   1.889  11.652
66927SOL    HW1 2620   8.216   1.850  11.716
66927SOL    HW2 2621   8.207   1.901  11.573
66928SOL     OW 2622  14.120  12.613   5.174
66928SOL    HW1 2623  14.049  12.674   5.154
66928SOL    HW2 2624  14.124  12.554   5.099
66929SOL     OW 2625   5.343   3.369   3.142
66929SOL    HW1 2626   5.356   3.330   3.229
66929SOL    HW2 2627   5.346   3.463   3.157
66930SOL     OW 2628  14.224  14.862   3.101
66930SOL    HW1 2629  14.216   0.012   3.192
66930SOL    HW2 2630  14.141   0.011   3.061
66931SOL     OW 2631   9.597   6.351   2.532
66931SOL    HW1 2632   9.618   6.443   2.522
66931SOL    HW2 2633   9.682   6.307   2.540
66932SOL     OW 2634   2.301  13.663   9.220
66932SOL    HW1 2635   2.361  13.592   9.198
66932SOL    HW2 2636   2.341  13.706   9.295
66933SOL     OW 2637   2.906   9.554   5.075
66933SOL    HW1 2638   2.908   9.643   5.041
66933SOL    HW2 2639   2.830   9.513   5.032
66934SOL     OW 2640   5.767   0.969   6.578
66934SOL    HW1 2641   5.788   1.062   6.567
66934SOL    HW2 2642   5.835   0.936   6.637
66935SOL     OW 2643  12.346   8.666   0.076
66935SOL    HW1 2644  12.316   8.672  14.861
66935SOL    HW2 2645  12.276   8.707   0.126
66936SOL     OW 2646   8.385   6.078   7.141
66936SOL    HW1 2647   8.466   6.028   7.154
66936SOL    HW2 2648   8.316   6.023   7.179
66937SOL     OW 2649   6.305   2.351  10.864
66937SOL    HW1 2650   6.218   2.316  10.882
66937SOL    HW2 2651   6.360   2.315  10.934
66938SOL     OW 2652   6.675   8.773   7.776
66938SOL    HW1 2653   6.705   8.785   7.866
66938SOL    HW2 2654   6.622   8.694   7.779
66939SOL     OW 2655   4.233   9.271   1.762
66939SOL    HW1 2656   4.293   9.272   1.837
66939SOL    HW2 2657   4.207   9.179   1.754
66940SOL     OW 2658  11.289  12.279   8.019
66940SOL    HW1 2659  11.242  12.362   8.028
66940SOL    HW2 2660  11.378  12.299   8.048
66941SOL     OW 2661   8.734   3.724   8.161
66941SOL    HW1 2662   8.739   3.767   8.246
66941SOL    HW2 2663   8.817   3.746   8.118
66942SOL     OW 2664   9.990   1.783   8.916
66942SOL    HW1 2665  10.046   1.848   8.959
66942SOL    HW2 2666  10.000   1.800   8.823
66943SOL     OW 2667   5.552   0.642   1.178
66943SOL    HW1 2668   5.637   0.649   1.134
66943SOL    HW2 2669   5.569   0.665   1.269
66944SOL     OW 2670   4.764  14.643   7.581
66944SOL    HW1 2671   4.766  14.739   7.582
66944SOL    HW2 2672   4.731  14.619   7.668
66945SOL     OW 2673   5.198   0.022   4.824
66945SOL    HW1 2674   5.171  14.832   4.887
66945SOL    HW2 2675   5.275  14.862   4.781
66946SOL     OW 2676  12.435   3.674   5.415
66946SOL    HW1 2677  12.507   3.620   5.449
66946SOL    HW2 2678  12.384   3.696   5.493
66947SOL     OW 2679  11.084   7.083   1.116
66947SOL    HW1 2680  10.994   7.107   1.139
66947SOL    HW2 2681  11.096   6.997   1.156
66948SOL     OW 2682  13.098   5.345   9.190
66948SOL    HW1 2683  13.109   5.429   9.146
66948SOL    HW2 2684  13.005   5.343   9.215
66949SOL     OW 2685   3.849  10.312   4.177
66949SOL    HW1 2686   3.844  10.290   4.270
66949SOL    HW2 2687   3.937  10.284   4.150
66950SOL     OW 2688  10.169   3.654   5.624
66950SOL    HW1 2689  10.079   3.661   5.593
66950SOL    HW2 2690  10.212   3.732   5.592
66951SOL     OW 2691  10.211   2.743   8.407
66951SOL    HW1 2692  10.286   2.715   8.460
66951SOL    HW2 2693  10.227   2.835   8.388
66952SOL     OW 2694  12.205   3.977   3.419
66952SOL    HW1 2695  12.260   4.053   3.437
66952SOL    HW2 2696  12.129   4.013   3.372
66953SOL     OW 2697   6.676   4.893  12.662
66953SOL    HW1 2698   6.645   4.837  12.591
66953SOL    HW2 2699   6.621   4.971  12.656
66954SOL     OW 2700   4.242   8.750  12.403
66954SOL    HW1 2701   4.298   8.673  12.402
66954SOL    HW2 2702   4.175   8.731  12.469
66955SOL     OW 2703   2.869   5.996  14.308
66955SOL    HW1 2704   2.923   5.944  14.367
66955SOL    HW2 2705   2.931   6.039  14.249
66956SOL     OW 2706  13.179  13.247   0.518
66956SOL    HW1 2707  13.218  13.184   0.578
66956SOL    HW2 2708  13.113  13.292   0.572
66957SOL     OW 2709   1.549   7.379   9.459
66957SOL    HW1 2710   1.622   7.415   9.510
66957SOL    HW2 2711   1.486   7.451   9.453
66958SOL     OW 2712   3.730  13.541   7.153
66958SOL    HW1 2713   3.722  13.461   7.102
66958SOL    HW2 2714   3.730  13.512   7.244
66959SOL     OW 2715   2.522  12.499   7.325
66959SOL    HW1 2716   2.549  12.504   7.233
66959SOL    HW2 2717   2.428  12.486   7.321
66960SOL     OW 2718   8.371   5.793   7.706
66960SOL    HW1 2719   8.454   5.765   7.745
66960SOL    HW2 2720   8.304   5.751   7.760
66961SOL     OW 2721   8.305   3.643  10.137
66961SOL    HW1 2722   8.219   3.647  10.176
66961SOL    HW2 2723   8.364   3.620  10.209
66962SOL     OW 2724   9.286   3.397   0.967
66962SOL    HW1 2725   9.290   3.492   0.954
66962SOL    HW2 2726   9.355   3.379   1.031
66963SOL     OW 2727  14.155  14.132   3.235
66963SOL    HW1 2728  14.133  14.041   3.249
66963SOL    HW2 2729  14.177  14.137   3.141
66964SOL     OW 2730  10.515   6.620   4.965
66964SOL    HW1 2731  10.492   6.708   4.934
66964SOL    HW2 2732  10.605   6.607   4.937
66965SOL     OW 2733  10.584  13.435   5.299
66965SOL    HW1 2734  10.622  13.382   5.229
66965SOL    HW2 2735  10.648  13.431   5.370
66966SOL     OW 2736   9.983  12.403   1.413
66966SOL    HW1 2737  10.019  12.486   1.444
66966SOL    HW2 2738  10.059  12.346   1.402
66967SOL     OW 2739  11.732   5.061   0.415
66967SOL    HW1 2740  11.770   5.017   0.491
66967SOL    HW2 2741  11.643   5.026   0.410
66968SOL     OW 2742  12.139   9.276   3.661
66968SOL    HW1 2743  12.226   9.237   3.649
66968SOL    HW2 2744  12.154   9.370   3.660
66969SOL     OW 2745   6.483  10.087   2.980
66969SOL    HW1 2746   6.479  10.183   2.979
66969SOL    HW2 2747   6.394  10.059   2.999
66970SOL     OW 2748  11.861   5.728   7.467
66970SOL    HW1 2749  11.927   5.768   7.409
66970SOL    HW2 2750  11.819   5.662   7.413
66971SOL     OW 2751   3.542   7.721   4.733
66971SOL    HW1 2752   3.567   7.630   4.715
66971SOL    HW2 2753   3.519   7.723   4.825
66972SOL     OW 2754   6.102   4.318   9.946
66972SOL    HW1 2755   6.119   4.280   9.861
66972SOL    HW2 2756   6.184   4.362   9.970
66973SOL     OW 2757   5.530   7.823   9.797
66973SOL    HW1 2758   5.618   7.794   9.772
66973SOL    HW2 2759   5.544   7.909   9.838
66974SOL     OW 2760   5.226   2.702  13.176
66974SOL    HW1 2761   5.138   2.676  13.201
66974SOL    HW2 2762   5.265   2.735  13.257
66975SOL     OW 2763   3.111   3.388   7.477
66975SOL    HW1 2764   3.152   3.453   7.533
66975SOL    HW2 2765   3.176   3.318   7.469
66976SOL     OW 2766   7.269  11.806   9.752
66976SOL    HW1 2767   7.303  11.884   9.708
66976SOL    HW2 2768   7.347  11.764   9.789
66977SOL     OW 2769  11.521   0.627   8.527
66977SOL    HW1 2770  11.559   0.585   8.450
66977SOL    HW2 2771  11.504   0.555   8.588
66978SOL     OW 2772   9.572   4.092   7.239
66978SOL    HW1 2773   9.523   4.173   7.224
66978SOL    HW2 2774   9.590   4.059   7.151
66979SOL     OW 2775   0.506   8.774  11.772
66979SOL    HW1 2776   0.552   8.764  11.689
66979SOL    HW2 2777   0.510   8.687  11.812
66980SOL     OW 2778   2.406  11.073   6.415
66980SOL    HW1 2779   2.343  11.134   6.454
66980SOL    HW2 2780   2.351  11.006   6.373
66981SOL     OW 2781  12.584   6.618   4.292
66981SOL    HW1 2782  12.678   6.617   4.273
66981SOL    HW2 2783  12.579   6.646   4.383
66982SOL     OW 2784   7.923   6.124   8.430
66982SOL    HW1 2785   7.976   6.046   8.411
66982SOL    HW2 2786   7.844   6.089   8.471
66983SOL     OW 2787   2.743   4.056   6.751
66983SOL    HW1 2788   2.728   4.030   6.660
66983SOL    HW2 2789   2.677   4.122   6.769
66984SOL     OW 2790  10.520   6.553   9.745
66984SOL    HW1 2791  10.578   6.619   9.708
66984SOL    HW2 2792  10.465   6.601   9.807
66985SOL     OW 2793   6.059   8.238   8.834
66985SOL    HW1 2794   6.142   8.238   8.788
66985SOL    HW2 2795   6.082   8.249   8.926
66986SOL     OW 2796   3.480  13.402   7.770
66986SOL    HW1 2797   3.450  13.328   7.822
66986SOL    HW2 2798   3.427  13.476   7.799
66987SOL     OW 2799   1.831  12.192  11.215
66987SOL    HW1 2800   1.834  12.157  11.304
66987SOL    HW2 2801   1.746  12.237  11.209
66988SOL     OW 2802   9.595   5.769   4.500
66988SOL    HW1 2803   9.590   5.710   4.576
66988SOL    HW2 2804   9.504   5.794   4.484
66989SOL     OW 2805   4.328  11.929   1.028
66989SOL    HW1 2806   4.304  12.020   1.046
66989SOL    HW2 2807   4.422  11.924   1.050
66990SOL     OW 2808   8.950   8.220   5.044
66990SOL    HW1 2809   8.953   8.310   5.077
66990SOL    HW2 2810   8.905   8.227   4.959
66991SOL     OW 2811   4.660  14.842   6.311
66991SOL    HW1 2812   4.727  14.774   6.304
66991SOL    HW2 2813   4.673   0.020   6.233
66992SOL     OW 2814  13.786   6.577   0.003
66992SOL    HW1 2815  13.700   6.537   0.019
66992SOL    HW2 2816  13.840   6.505  14.845
66993SOL     OW 2817   8.391   4.244   9.035
66993SOL    HW1 2818   8.446   4.227   8.958
66993SOL    HW2 2819   8.301   4.237   9.003
66994SOL     OW 2820   7.748   7.535   4.009
66994SOL    HW1 2821   7.736   7.469   3.940
66994SOL    HW2 2822   7.774   7.484   4.086
66995SOL     OW 2823   0.053  11.025  12.796
66995SOL    HW1 2824  14.865  11.090  12.767
66995SOL    HW2 2825   0.130  11.077  12.818
66996SOL     OW 2826   6.707   9.782   7.294
66996SOL    HW1 2827   6.788   9.777   7.244
66996SOL    HW2 2828   6.735   9.780   7.385
66997SOL     OW 2829   8.900  12.983   6.500
66997SOL    HW1 2830   8.944  13.058   6.460
66997SOL    HW2 2831   8.887  13.009   6.592
66998SOL     OW 2832   3.211  13.213   2.657
66998SOL    HW1 2833   3.173  13.129   2.682
66998SOL    HW2 2834   3.143  13.277   2.679
66999SOL     OW 2835  12.829   3.928   9.146
66999SOL    HW1 2836  12.893   3.992   9.115
66999SOL    HW2 2837  12.788   3.969   9.222
67000SOL     OW 2838   1.923   1.125   1.651
67000SOL    HW1 2839   1.940   1.134   1.745
67000SOL    HW2 2840   1.997   1.168   1.609
67001SOL     OW 2841   0.673   6.746   2.824
67001SOL    HW1 2842   0.762   6.722   2.799
67001SOL    HW2 2843   0.678   6.760   2.919
67002SOL     OW 2844   4.322   9.486  14.335
67002SOL    HW1 2845   4.238   9.503  14.292
67002SOL    HW2 2846   4.386   9.530  14.280
67003SOL     OW 2847   5.255  14.077  14.214
67003SOL    HW1 2848   5.324  14.134  14.247
67003SOL    HW2 2849   5.221  14.123  14.137
67004SOL     OW 2850   5.079  10.209   6.628
67004SOL    HW1 2851   4.997  10.226   6.673
67004SOL    HW2 2852   5.080  10.272   6.555
67005SOL     OW 2853   2.363  10.442   2.593
67005SOL    HW1 2854   2.269  10.432   2.608
67005SOL    HW2 2855   2.396  10.482   2.673
67006SOL     OW 2856   5.511   4.603  12.015
67006SOL    HW1 2857   5.437   4.545  12.034
67006SOL    HW2 2858   5.577   4.579  12.080
67007SOL     OW 2859   8.938   3.032   8.516
67007SOL    HW1 2860   8.874   3.089   8.472
67007SOL    HW2 2861   9.017   3.039   8.461
67008SOL     OW 2862  13.236   4.971   1.010
67008SOL    HW1 2863  13.205   4.945   0.923
67008SOL    HW2 2864  13.257   4.889   1.054
67009SOL     OW 2865  11.880  11.696   8.270
67009SOL    HW1 2866  11.864  11.680   8.363
67009SOL    HW2 2867  11.863  11.611   8.229
67010SOL     OW 2868   4.735   6.454   3.231
67010SOL    HW1 2869   4.655   6.424   3.188
67010SOL    HW2 2870   4.718   6.545   3.254
67011SOL     OW 2871   9.558  10.059  14.081
67011SOL    HW1 2872   9.526   9.984  14.132
67011SOL    HW2 2873   9.580  10.125  14.148
67012SOL     OW 2874   3.783  10.952   3.290
67012SOL    HW1 2875   3.862  10.902   3.311
67012SOL    HW2 2876   3.720  10.885   3.263
67013SOL     OW 2877   4.228  13.941   7.495
67013SOL    HW1 2878   4.239  13.852   7.528
67013SOL    HW2 2879   4.134  13.958   7.502
67014SOL     OW 2880   1.915  14.351   9.273
67014SOL    HW1 2881   1.908  14.266   9.316
67014SOL    HW2 2882   1.964  14.406   9.334
67015SOL     OW 2883  12.802  10.995   2.517
67015SOL    HW1 2884  12.754  11.073   2.488
67015SOL    HW2 2885  12.803  11.002   2.613
67016SOL     OW 2886  12.214  14.056   6.361
67016SOL    HW1 2887  12.200  13.992   6.292
67016SOL    HW2 2888  12.180  14.013   6.440
67017SOL     OW 2889   9.803  13.947  10.515
67017SOL    HW1 2890   9.893  13.978  10.512
67017SOL    HW2 2891   9.757  14.012  10.568
67018SOL     OW 2892   0.272  10.671  12.876
67018SOL    HW1 2893   0.272  10.590  12.926
67018SOL    HW2 2894   0.342  10.723  12.914
67019SOL     OW 2895  13.627  11.012   2.797
67019SOL    HW1 2896  13.660  11.057   2.720
67019SOL    HW2 2897  13.614  11.081   2.862
67020SOL     OW 2898   7.310   6.241  13.962
67020SOL    HW1 2899   7.347   6.153  13.967
67020SOL    HW2 2900   7.302   6.258  13.868
67021SOL     OW 2901   2.025  10.889   5.123
67021SOL    HW1 2902   2.097  10.868   5.064
67021SOL    HW2 2903   2.002  10.980   5.104
67022SOL     OW 2904   2.660   5.152   6.227
67022SOL    HW1 2905   2.753   5.135   6.243
67022SOL    HW2 2906   2.652   5.155   6.131
67023SOL     OW 2907   0.648   3.486   8.682
67023SOL    HW1 2908   0.640   3.533   8.599
67023SOL    HW2 2909   0.572   3.429   8.686
67024SOL     OW 2910  14.344   6.843   4.964
67024SOL    HW1 2911  14.347   6.930   5.004
67024SOL    HW2 2912  14.270   6.848   4.903
67025SOL     OW 2913  12.822  12.572   2.541
67025SOL    HW1 2914  12.790  12.657   2.572
67025SOL    HW2 2915  12.753  12.511   2.567
67026SOL     OW 2916   0.224   0.572  14.153
67026SOL    HW1 2917   0.133   0.570  14.182
67026SOL    HW2 2918   0.248   0.480  14.140
67027SOL     OW 2919   4.574   4.248  13.575
67027SOL    HW1 2920   4.565   4.341  13.592
67027SOL    HW2 2921   4.528   4.233  13.493
67028SOL     OW 2922  14.254  13.104  10.069
67028SOL    HW1 2923  14.226  13.030  10.015
67028SOL    HW2 2924  14.202  13.095  10.149
67029SOL     OW 2925   0.429   8.511   1.323
67029SOL    HW1 2926   0.466   8.462   1.397
67029SOL    HW2 2927   0.461   8.465   1.246
67030SOL     OW 2928   0.152   9.531   1.023
67030SOL    HW1 2929   0.200   9.604   0.984
67030SOL    HW2 2930   0.060   9.552   1.008
67031SOL     OW 2931   2.532  12.917   9.800
67031SOL    HW1 2932   2.593  12.971   9.749
67031SOL    HW2 2933   2.505  12.848   9.739
67032SOL     OW 2934  13.363  10.716   3.171
67032SOL    HW1 2935  13.432  10.682   3.228
67032SOL    HW2 2936  13.301  10.643   3.162
67033SOL     OW 2937  12.560  13.318   6.923
67033SOL    HW1 2938  12.622  13.390   6.913
67033SOL    HW2 2939  12.502  13.326   6.848
67034SOL     OW 2940   0.996   8.791   9.451
67034SOL    HW1 2941   0.993   8.885   9.432
67034SOL    HW2 2942   0.974   8.785   9.544
67035SOL     OW 2943   5.189   6.282  11.033
67035SOL    HW1 2944   5.209   6.195  11.066
67035SOL    HW2 2945   5.100   6.300  11.062
67036SOL     OW 2946  13.409  10.037   5.105
67036SOL    HW1 2947  13.329  10.018   5.153
67036SOL    HW2 2948  13.393  10.002   5.017
67037SOL     OW 2949   1.899   5.435  11.766
67037SOL    HW1 2950   1.965   5.378  11.807
67037SOL    HW2 2951   1.825   5.376  11.748
67038SOL     OW 2952   1.186   8.048  11.086
67038SOL    HW1 2953   1.249   8.120  11.086
67038SOL    HW2 2954   1.238   7.971  11.109
67039SOL     OW 2955  13.365   0.543   0.775
67039SOL    HW1 2956  13.436   0.606   0.779
67039SOL    HW2 2957  13.312   0.561   0.853
67040SOL     OW 2958   6.797   6.472   7.686
67040SOL    HW1 2959   6.761   6.387   7.658
67040SOL    HW2 2960   6.886   6.452   7.714
67041SOL     OW 2961   1.999   0.878  10.635
67041SOL    HW1 2962   1.958   0.798  10.605
67041SOL    HW2 2963   1.935   0.947  10.618
67042SOL     OW 2964   9.485  14.332  14.335
67042SOL    HW1 2965   9.530  14.410  14.303
67042SOL    HW2 2966   9.480  14.274  14.259
67043SOL     OW 2967   5.765  10.807   8.602
67043SOL    HW1 2968   5.673  10.832   8.604
67043SOL    HW2 2969   5.808  10.878   8.553
67044SOL     OW 2970   9.854   7.064  14.807
67044SOL    HW1 2971   9.806   6.986  14.835
67044SOL    HW2 2972   9.935   7.063  14.860
67045SOL     OW 2973   9.716   8.612   9.484
67045SOL    HW1 2974   9.765   8.533   9.461
67045SOL    HW2 2975   9.783   8.676   9.507
67046SOL     OW 2976   2.457   5.988   2.678
67046SOL    HW1 2977   2.394   5.932   2.633
67046SOL    HW2 2978   2.494   5.932   2.747
67047SOL     OW 2979   4.016   1.278   6.161
67047SOL    HW1 2980   4.046   1.188   6.155
67047SOL    HW2 2981   3.968   1.282   6.243
67048SOL     OW 2982   6.996   0.082   2.033
67048SOL    HW1 2983   6.928   0.134   2.075
67048SOL    HW2 2984   6.991   0.106   1.940
67049SOL     OW 2985   3.608   9.056  14.084
67049SOL    HW1 2986   3.669   9.052  14.157
67049SOL    HW2 2987   3.522   9.068  14.124
67050SOL     OW 2988   9.959  14.032  13.440
67050SOL    HW1 2989  10.048  14.025  13.405
67050SOL    HW2 2990   9.905  13.983  13.378
67051SOL     OW 2991   4.188   9.279  10.226
67051SOL    HW1 2992   4.244   9.242  10.158
67051SOL    HW2 2993   4.218   9.369  10.236
67052SOL     OW 2994   4.551   7.701   2.567
67052SOL    HW1 2995   4.559   7.747   2.650
67052SOL    HW2 2996   4.534   7.610   2.590
67053SOL     OW 2997   9.657   4.403   8.468
67053SOL    HW1 2998   9.639   4.496   8.479
67053SOL    HW2 2999   9.600   4.360   8.533
67054SOL     OW 3000  11.293   6.714   7.467
67054SOL    HW1 3001  11.201   6.735   7.453
67054SOL    HW2 3002  11.310   6.640   7.408
67055SOL     OW 3003   3.583   3.653   3.077
67055SOL    HW1 3004   3.489   3.655   3.097
67055SOL    HW2 3005   3.593   3.577   3.020
67056SOL     OW 3006   5.545   8.479   5.480
67056SOL    HW1 3007   5.617   8.430   5.519
67056SOL    HW2 3008   5.478   8.413   5.461
67057SOL     OW 3009   4.123   7.572  11.319
67057SOL    HW1 3010   4.116   7.654  11.272
67057SOL    HW2 3011   4.047   7.521  11.290
67058SOL     OW 3012   2.116  11.314   5.335
67058SOL    HW1 3013   2.170  11.392   5.324
67058SOL    HW2 3014   2.038  11.331   5.282
67059SOL     OW 3015   4.349  13.562   4.572
67059SOL    HW1 3016   4.262  13.532   4.598
67059SOL    HW2 3017   4.342  13.578   4.478
67060SOL     OW 3018   0.190  10.347  12.070
67060SOL    HW1 3019   0.124  10.283  12.044
67060SOL    HW2 3020   0.229  10.377  11.988
67061SOL     OW 3021  11.924   9.495   7.836
67061SOL    HW1 3022  11.894   9.556   7.903
67061SOL    HW2 3023  11.991   9.443   7.880
67062SOL     OW 3024   2.511   4.246  12.711
67062SOL    HW1 3025   2.485   4.249  12.803
67062SOL    HW2 3026   2.559   4.328  12.698
67063SOL     OW 3027   0.625   0.362  10.726
67063SOL    HW1 3028   0.693   0.304  10.692
67063SOL    HW2 3029   0.657   0.450  10.708
67064SOL     OW 3030   7.685   7.120  10.536
67064SOL    HW1 3031   7.593   7.135  10.511
67064SOL    HW2 3032   7.711   7.043  10.484
67065SOL     OW 3033   9.813   8.949   2.809
67065SOL    HW1 3034   9.844   8.912   2.892
67065SOL    HW2 3035   9.734   8.898   2.789
67066SOL     OW 3036   2.981   6.157   9.853
67066SOL    HW1 3037   3.004   6.248   9.830
67066SOL    HW2 3038   2.886   6.155   9.848
67067SOL     OW 3039   2.201  12.567   1.077
67067SOL    HW1 3040   2.228  12.475   1.072
67067SOL    HW2 3041   2.117  12.570   1.030
67068SOL     OW 3042   0.623   5.317   1.754
67068SOL    HW1 3043   0.715   5.301   1.732
67068SOL    HW2 3044   0.588   5.230   1.775
67069SOL     OW 3045  11.002   7.752   9.077
67069SOL    HW1 3046  10.918   7.706   9.074
67069SOL    HW2 3047  10.998   7.804   9.158
67070SOL     OW 3048   1.701   5.707  10.290
67070SOL    HW1 3049   1.776   5.707  10.350
67070SOL    HW2 3050   1.626   5.683  10.346
67071SOL     OW 3051   9.289   0.239  10.807
67071SOL    HW1 3052   9.367   0.209  10.853
67071SOL    HW2 3053   9.243   0.295  10.870
67072SOL     OW 3054  10.745   1.387  14.103
67072SOL    HW1 3055  10.750   1.295  14.079
67072SOL    HW2 3056  10.836   1.414  14.115
67073SOL     OW 3057  10.390   0.744   6.612
67073SOL    HW1 3058  10.438   0.699   6.681
67073SOL    HW2 3059  10.431   0.715   6.531
67074SOL     OW 3060   3.823   6.016   4.410
67074SOL    HW1 3061   3.905   6.048   4.373
67074SOL    HW2 3062   3.840   6.009   4.504
67075SOL     OW 3063   4.186   8.105   6.677
67075SOL    HW1 3064   4.134   8.183   6.696
67075SOL    HW2 3065   4.228   8.083   6.759
67076SOL     OW 3066  14.837  10.683   6.666
67076SOL    HW1 3067  14.855  10.596   6.702
67076SOL    HW2 3068   0.005  10.743   6.725
67077SOL     OW 3069   8.261  10.118  10.973
67077SOL    HW1 3070   8.214  10.052  10.922
67077SOL    HW2 3071   8.351  10.084  10.979
67078SOL     OW 3072   3.709   6.346   6.194
67078SOL    HW1 3073   3.711   6.279   6.126
67078SOL    HW2 3074   3.793   6.391   6.185
67079SOL     OW 3075   5.539  14.577  11.448
67079SOL    HW1 3076   5.505  14.553  11.534
67079SOL    HW2 3077   5.619  14.525  11.438
67080SOL     OW 3078   6.941   1.585  12.310
67080SOL    HW1 3079   6.856   1.629  12.311
67080SOL    HW2 3080   6.940   1.528  12.387
67081SOL     OW 3081   3.081   3.730   2.799
67081SOL    HW1 3082   3.000   3.756   2.843
67081SOL    HW2 3083   3.150   3.780   2.843
67082SOL     OW 3084   2.777   3.044   8.679
67082SOL    HW1 3085   2.791   2.978   8.746
67082SOL    HW2 3086   2.864   3.081   8.663
67083SOL     OW 3087   6.029  12.089  13.648
67083SOL    HW1 3088   5.989  12.017  13.696
67083SOL    HW2 3089   5.963  12.159  13.650
67084SOL     OW 3090  14.674  13.989   5.637
67084SOL    HW1 3091  14.713  13.993   5.725
67084SOL    HW2 3092  14.583  13.966   5.652
67085SOL     OW 3093  10.376   2.415  11.463
67085SOL    HW1 3094  10.288   2.445  11.486
67085SOL    HW2 3095  10.421   2.406  11.547
67086SOL     OW 3096  11.102   0.370   6.411
67086SOL    HW1 3097  11.082   0.444   6.468
67086SOL    HW2 3098  11.070   0.293   6.459
67087SOL     OW 3099   6.881   1.308   3.334
67087SOL    HW1 3100   6.840   1.394   3.325
67087SOL    HW2 3101   6.826   1.249   3.282
67088SOL     OW 3102   6.832   3.575   9.270
67088SOL    HW1 3103   6.885   3.611   9.199
67088SOL    HW2 3104   6.892   3.568   9.344
67089SOL     OW 3105  11.845   9.003   9.791
67089SOL    HW1 3106  11.864   8.949   9.868
67089SOL    HW2 3107  11.863   8.947   9.717
67090SOL     OW 3108  14.608   3.692   3.419
67090SOL    HW1 3109  14.690   3.721   3.458
67090SOL    HW2 3110  14.559   3.772   3.403
67091SOL     OW 3111  11.797  13.240  10.435
67091SOL    HW1 3112  11.892  13.243  10.442
67091SOL    HW2 3113  11.769  13.188  10.511
67092SOL     OW 3114   3.837   4.885   0.940
67092SOL    HW1 3115   3.890   4.893   0.860
67092SOL    HW2 3116   3.822   4.976   0.967
67093SOL     OW 3117   6.711   9.352   2.697
67093SOL    HW1 3118   6.742   9.371   2.608
67093SOL    HW2 3119   6.784   9.376   2.754
67094SOL     OW 3120   1.078  13.843  13.274
67094SOL    HW1 3121   1.082  13.891  13.357
67094SOL    HW2 3122   1.028  13.764  13.295
67095SOL     OW 3123   1.541   6.648   3.861
67095SOL    HW1 3124   1.516   6.630   3.952
67095SOL    HW2 3125   1.636   6.639   3.860
67096SOL     OW 3126  14.488   6.285   1.438
67096SOL    HW1 3127  14.520   6.196   1.430
67096SOL    HW2 3128  14.555   6.330   1.489
67097SOL     OW 3129   4.378   9.120  12.606
67097SOL    HW1 3130   4.346   9.089  12.691
67097SOL    HW2 3131   4.306   9.172  12.571
67098SOL     OW 3132  10.080   4.621  13.343
67098SOL    HW1 3133  10.037   4.706  13.340
67098SOL    HW2 3134  10.120   4.616  13.430
67099SOL     OW 3135  11.554   8.749   8.791
67099SOL    HW1 3136  11.472   8.786   8.758
67099SOL    HW2 3137  11.618   8.818   8.779
67100SOL     OW 3138  10.144   8.089   6.910
67100SOL    HW1 3139  10.049   8.092   6.893
67100SOL    HW2 3140  10.170   8.002   6.880
67101SOL     OW 3141   2.931   3.846   3.763
67101SOL    HW1 3142   2.901   3.762   3.797
67101SOL    HW2 3143   3.000   3.873   3.824
67102SOL     OW 3144  11.336   2.245  12.205
67102SOL    HW1 3145  11.249   2.240  12.245
67102SOL    HW2 3146  11.392   2.196  12.265
67103SOL     OW 3147   4.999   2.994   1.194
67103SOL    HW1 3148   4.997   3.031   1.282
67103SOL    HW2 3149   4.995   3.070   1.136
67104SOL     OW 3150   5.240   3.524   0.112
67104SOL    HW1 3151   5.255   3.432   0.090
67104SOL    HW2 3152   5.316   3.549   0.165
67105SOL     OW 3153  11.480   1.315   8.294
67105SOL    HW1 3154  11.530   1.270   8.362
67105SOL    HW2 3155  11.545   1.337   8.227
67106SOL     OW 3156  14.508   0.068   5.099
67106SOL    HW1 3157  14.456   0.148   5.086
67106SOL    HW2 3158  14.490   0.043   5.189
67107SOL     OW 3159   6.676   2.832  12.931
67107SOL    HW1 3160   6.768   2.813  12.914
67107SOL    HW2 3161   6.642   2.753  12.972
67108SOL     OW 3162  13.114   8.542  11.912
67108SOL    HW1 3163  13.179   8.557  11.980
67108SOL    HW2 3164  13.052   8.615  11.920
67109SOL     OW 3165  13.269   7.620  13.725
67109SOL    HW1 3166  13.212   7.697  13.721
67109SOL    HW2 3167  13.220   7.557  13.779
67110SOL     OW 3168   4.901  14.265  14.169
67110SOL    HW1 3169   4.836  14.199  14.194
67110SOL    HW2 3170   4.850  14.345  14.154
67111SOL     OW 3171  11.960   7.292   3.569
67111SOL    HW1 3172  11.954   7.288   3.473
67111SOL    HW2 3173  11.934   7.381   3.591
67112SOL     OW 3174   0.974  13.622   9.038
67112SOL    HW1 3175   0.934  13.576   9.112
67112SOL    HW2 3176   1.067  13.602   9.045
67113SOL     OW 3177   6.171   6.913   6.762
67113SOL    HW1 3178   6.197   6.869   6.843
67113SOL    HW2 3179   6.202   6.856   6.692
67114SOL     OW 3180   6.682  11.874   2.425
67114SOL    HW1 3181   6.648  11.964   2.423
67114SOL    HW2 3182   6.617  11.825   2.474
67115SOL     OW 3183  13.776  14.365  12.901
67115SOL    HW1 3184  13.817  14.344  12.985
67115SOL    HW2 3185  13.741  14.282  12.870
67116SOL     OW 3186  13.650   9.647   1.763
67116SOL    HW1 3187  13.671   9.592   1.688
67116SOL    HW2 3188  13.708   9.723   1.754
67117SOL     OW 3189  10.938  13.739   6.527
67117SOL    HW1 3190  10.883  13.818   6.526
67117SOL    HW2 3191  11.027  13.771   6.516
67118SOL     OW 3192  11.602   7.764   4.471
67118SOL    HW1 3193  11.559   7.774   4.555
67118SOL    HW2 3194  11.619   7.670   4.464
67119SOL     OW 3195   5.171   0.983  11.887
67119SOL    HW1 3196   5.247   0.950  11.935
67119SOL    HW2 3197   5.160   0.923  11.814
67120SOL     OW 3198  10.780  11.664  12.962
67120SOL    HW1 3199  10.768  11.688  12.870
67120SOL    HW2 3200  10.716  11.595  12.977
67121SOL     OW 3201   8.623   5.996   5.225
67121SOL    HW1 3202   8.718   5.989   5.237
67121SOL    HW2 3203   8.587   5.925   5.277
67122SOL     OW 3204   4.269   3.002  13.390
67122SOL    HW1 3205   4.302   3.091  13.390
67122SOL    HW2 3206   4.249   2.984  13.298
67123SOL     OW 3207   4.124  13.137  11.768
67123SOL    HW1 3208   4.163  13.051  11.785
67123SOL    HW2 3209   4.127  13.182  11.852
67124SOL     OW 3210   8.694  13.712   7.582
67124SOL    HW1 3211   8.624  13.657   7.549
67124SOL    HW2 3212   8.689  13.703   7.677
67125SOL     OW 3213   1.394  10.694  10.091
67125SOL    HW1 3214   1.485  10.722  10.097
67125SOL    HW2 3215   1.351  10.761  10.038
67126SOL     OW 3216  12.595   2.549  10.977
67126SOL    HW1 3217  12.605   2.611  10.905
67126SOL    HW2 3218  12.570   2.467  10.935
67127SOL     OW 3219   1.119   3.519   6.758
67127SOL    HW1 3220   1.029   3.546   6.773
67127SOL    HW2 3221   1.119   3.425   6.771
67128SOL     OW 3222   2.310   1.769   2.437
67128SOL    HW1 3223   2.292   1.714   2.361
67128SOL    HW2 3224   2.274   1.854   2.415
67129SOL     OW 3225  12.636   1.335   6.455
67129SOL    HW1 3226  12.694   1.363   6.526
67129SOL    HW2 3227  12.654   1.242   6.445
67130SOL     OW 3228  10.559   3.841   7.276
67130SOL    HW1 3229  10.631   3.866   7.334
67130SOL    HW2 3230  10.486   3.896   7.302
67131SOL     OW 3231   9.218   7.913   1.674
67131SOL    HW1 3232   9.151   7.874   1.730
67131SOL    HW2 3233   9.206   7.870   1.589
67132SOL     OW 3234  11.538   5.406  11.306
67132SOL    HW1 3235  11.481   5.357  11.365
67132SOL    HW2 3236  11.608   5.345  11.284
67133SOL     OW 3237  12.152   2.392   6.259
67133SOL    HW1 3238  12.174   2.309   6.303
67133SOL    HW2 3239  12.144   2.455   6.331
67134SOL     OW 3240   3.345   0.512   7.451
67134SOL    HW1 3241   3.282   0.520   7.522
67134SOL    HW2 3242   3.292   0.491   7.374
67135SOL     OW 3243  13.252   7.272  10.529
67135SOL    HW1 3244  13.236   7.332  10.602
67135SOL    HW2 3245  13.329   7.221  10.556
67136SOL     OW 3246  13.808  13.541   6.761
67136SOL    HW1 3247  13.761  13.619   6.732
67136SOL    HW2 3248  13.803  13.481   6.687
67137SOL     OW 3249   1.813  11.190  14.712
67137SOL    HW1 3250   1.881  11.144  14.763
67137SOL    HW2 3251   1.736  11.186  14.768
67138SOL     OW 3252  13.318   5.453  10.434
67138SOL    HW1 3253  13.286   5.363  10.438
67138SOL    HW2 3254  13.366   5.465  10.517
67139SOL     OW 3255  12.377   1.374   9.787
67139SOL    HW1 3256  12.300   1.320   9.806
67139SOL    HW2 3257  12.374   1.389   9.693
67140SOL     OW 3258  14.631   0.486   3.898
67140SOL    HW1 3259  14.552   0.539   3.891
67140SOL    HW2 3260  14.675   0.519   3.976
67141SOL     OW 3261   1.715   6.356  13.460
67141SOL    HW1 3262   1.622   6.376  13.452
67141SOL    HW2 3263   1.718   6.261  13.469
67142SOL     OW 3264   3.123  10.832  13.092
67142SOL    HW1 3265   3.105  10.792  13.007
67142SOL    HW2 3266   3.138  10.924  13.072
67143SOL     OW 3267   6.344   5.408  14.121
67143SOL    HW1 3268   6.304   5.326  14.090
67143SOL    HW2 3269   6.392   5.441  14.045
67144SOL     OW 3270  13.718  10.122  14.467
67144SOL    HW1 3271  13.754  10.177  14.537
67144SOL    HW2 3272  13.743  10.033  14.491
67145SOL     OW 3273   5.362  11.191   5.104
67145SOL    HW1 3274   5.440  11.140   5.084
67145SOL    HW2 3275   5.335  11.229   5.021
67146SOL     OW 3276  14.673   9.237  13.748
67146SOL    HW1 3277  14.668   9.150  13.786
67146SOL    HW2 3278  14.720   9.289  13.813
67147SOL     OW 3279  13.793   3.804   2.900
67147SOL    HW1 3280  13.865   3.821   2.840
67147SOL    HW2 3281  13.752   3.890   2.914
67148SOL     OW 3282  13.928   0.433   1.770
67148SOL    HW1 3283  13.885   0.481   1.840
67148SOL    HW2 3284  13.857   0.387   1.725
67149SOL     OW 3285  14.795  11.039   3.291
67149SOL    HW1 3286   0.012  11.061   3.295
67149SOL    HW2 3287  14.793  10.943   3.293
67150SOL     OW 3288   4.712   2.863   4.212
67150SOL    HW1 3289   4.624   2.868   4.173
67150SOL    HW2 3290   4.696   2.868   4.306
67151SOL     OW 3291   5.595  10.162   1.023
67151SOL    HW1 3292   5.599  10.108   0.944
67151SOL    HW2 3293   5.607  10.251   0.991
67152SOL     OW 3294  12.997  10.859   0.073
67152SOL    HW1 3295  12.944  10.809   0.010
67152SOL    HW2 3296  13.083  10.863   0.032
67153SOL     OW 3297  13.623   1.791   8.811
67153SOL    HW1 3298  13.530   1.771   8.810
67153SOL    HW2 3299  13.640   1.830   8.725
67154SOL     OW 3300   5.891   4.173   9.134
67154SOL    HW1 3301   5.964   4.179   9.073
67154SOL    HW2 3302   5.919   4.109   9.200
67155SOL     OW 3303   2.804   7.608   3.119
67155SOL    HW1 3304   2.725   7.631   3.167
67155SOL    HW2 3305   2.873   7.663   3.157
67156SOL     OW 3306   9.336   4.364  10.966
67156SOL    HW1 3307   9.255   4.413  10.977
67156SOL    HW2 3308   9.354   4.368  10.872
67157SOL     OW 3309  12.397  13.768   9.526
67157SOL    HW1 3310  12.390  13.857   9.491
67157SOL    HW2 3311  12.463  13.726   9.470
67158SOL     OW 3312   8.540   1.942  11.397
67158SOL    HW1 3313   8.523   1.858  11.439
67158SOL    HW2 3314   8.466   1.997  11.422
67159SOL     OW 3315   7.004   8.810   7.831
67159SOL    HW1 3316   7.090   8.772   7.811
67159SOL    HW2 3317   6.996   8.802   7.926
67160SOL     OW 3318   6.313   9.149   7.183
67160SOL    HW1 3319   6.261   9.228   7.173
67160SOL    HW2 3320   6.357   9.138   7.099
67161SOL     OW 3321   8.348  11.381  14.208
67161SOL    HW1 3322   8.356  11.316  14.277
67161SOL    HW2 3323   8.439  11.405  14.187
67162SOL     OW 3324   1.991   9.791  11.874
67162SOL    HW1 3325   1.912   9.794  11.928
67162SOL    HW2 3326   1.968   9.840  11.794
67163SOL     OW 3327  12.588   5.849  10.869
67163SOL    HW1 3328  12.540   5.931  10.873
67163SOL    HW2 3329  12.677   5.872  10.897
67164SOL     OW 3330   2.707  12.159  14.752
67164SOL    HW1 3331   2.749  12.089  14.701
67164SOL    HW2 3332   2.677  12.116  14.832
67165SOL     OW 3333  11.934   0.821   7.058
67165SOL    HW1 3334  11.926   0.771   7.139
67165SOL    HW2 3335  11.855   0.875   7.054
67166SOL     OW 3336   9.800  13.550   0.862
67166SOL    HW1 3337   9.714  13.532   0.900
67166SOL    HW2 3338   9.862  13.528   0.931
67167SOL     OW 3339   1.258   4.343  11.867
67167SOL    HW1 3340   1.171   4.304  11.875
67167SOL    HW2 3341   1.316   4.268  11.855
67168SOL     OW 3342   2.397   9.187  12.859
67168SOL    HW1 3343   2.421   9.264  12.806
67168SOL    HW2 3344   2.467   9.182  12.925
67169SOL     OW 3345  12.640   1.812   6.664
67169SOL    HW1 3346  12.696   1.884   6.691
67169SOL    HW2 3347  12.669   1.790   6.575
67170SOL     OW 3348  11.024   6.784   6.297
67170SOL    HW1 3349  11.117   6.804   6.303
67170SOL    HW2 3350  11.009   6.763   6.205
67171SOL     OW 3351   1.672  14.419   6.322
67171SOL    HW1 3352   1.667  14.373   6.406
67171SOL    HW2 3353   1.728  14.364   6.267
67172SOL     OW 3354   5.920   8.572  11.001
67172SOL    HW1 3355   5.958   8.484  11.005
67172SOL    HW2 3356   5.877   8.576  10.916
67173SOL     OW 3357   9.480  11.207  10.465
67173SOL    HW1 3358   9.456  11.173  10.551
67173SOL    HW2 3359   9.520  11.133  10.420
67174SOL     OW 3360   0.154  14.718   7.099
67174SOL    HW1 3361   0.157  14.752   7.010
67174SOL    HW2 3362   0.208  14.639   7.097
67175SOL     OW 3363   8.873   4.120   6.304
67175SOL    HW1 3364   8.941   4.168   6.257
67175SOL    HW2 3365   8.885   4.029   6.277
67176SOL     OW 3366  13.861   1.958  12.718
67176SOL    HW1 3367  13.788   1.906  12.751
67176SOL    HW2 3368  13.833   2.049  12.729
67177SOL     OW 3369   7.403   4.421  13.435
67177SOL    HW1 3370   7.453   4.386  13.509
67177SOL    HW2 3371   7.393   4.346  13.376
67178SOL     OW 3372   2.209   9.828  10.148
67178SOL    HW1 3373   2.245   9.834  10.236
67178SOL    HW2 3374   2.231   9.739  10.119
67179SOL     OW 3375   9.152  12.504   8.774
67179SOL    HW1 3376   9.185  12.574   8.830
67179SOL    HW2 3377   9.114  12.440   8.835
67180SOL     OW 3378   4.032   0.716   8.237
67180SOL    HW1 3379   4.066   0.801   8.264
67180SOL    HW2 3380   4.110   0.663   8.221
67181SOL     OW 3381  14.724   0.629  11.068
67181SOL    HW1 3382  14.811   0.595  11.087
67181SOL    HW2 3383  14.705   0.599  10.979
67182SOL     OW 3384   0.670   9.981   0.749
67182SOL    HW1 3385   0.637  10.056   0.699
67182SOL    HW2 3386   0.666   9.908   0.687
67183SOL     OW 3387   9.431   1.802   5.202
67183SOL    HW1 3388   9.425   1.835   5.112
67183SOL    HW2 3389   9.459   1.878   5.253
67184SOL     OW 3390   5.648  14.761   3.164
67184SOL    HW1 3391   5.625  14.708   3.088
67184SOL    HW2 3392   5.577  14.824   3.172
67185SOL     OW 3393  13.524   2.542   4.425
67185SOL    HW1 3394  13.583   2.488   4.372
67185SOL    HW2 3395  13.577   2.616   4.453
67186SOL     OW 3396  11.031   7.182   7.365
67186SOL    HW1 3397  11.061   7.272   7.359
67186SOL    HW2 3398  10.973   7.181   7.442
67187SOL     OW 3399  13.474  13.137   7.326
67187SOL    HW1 3400  13.389  13.121   7.367
67187SOL    HW2 3401  13.528  13.064   7.356
67188SOL     OW 3402  13.135   7.722  10.696
67188SOL    HW1 3403  13.099   7.744  10.781
67188SOL    HW2 3404  13.212   7.778  10.688
67189SOL     OW 3405   4.727   3.968   8.529
67189SOL    HW1 3406   4.754   3.879   8.551
67189SOL    HW2 3407   4.747   3.976   8.435
67190SOL     OW 3408   3.183   4.912   4.415
67190SOL    HW1 3409   3.162   4.904   4.322
67190SOL    HW2 3410   3.263   4.965   4.417
67191SOL     OW 3411   0.375  13.315  12.235
67191SOL    HW1 3412   0.434  13.374  12.188
67191SOL    HW2 3413   0.420  13.295  12.317
67192SOL     OW 3414   8.071   8.422   9.670
67192SOL    HW1 3415   8.008   8.452   9.605
67192SOL    HW2 3416   8.039   8.457   9.753
67193SOL     OW 3417  11.372   5.253  11.466
67193SOL    HW1 3418  11.285   5.283  11.438
67193SOL    HW2 3419  11.380   5.282  11.556
67194SOL     OW 3420  14.798   7.948   6.602
67194SOL    HW1 3421  14.869   7.961   6.539
67194SOL    HW2 3422  14.794   8.031   6.650
67195SOL     OW 3423   7.949   8.836   2.864
67195SOL    HW1 3424   7.905   8.753   2.850
67195SOL    HW2 3425   7.935   8.885   2.783
67196SOL     OW 3426  11.244   6.539   5.375
67196SOL    HW1 3427  11.339   6.535   5.364
67196SOL    HW2 3428  11.232   6.574   5.463
67197SOL     OW 3429  11.340   5.012   2.710
67197SOL    HW1 3430  11.297   4.965   2.782
67197SOL    HW2 3431  11.419   4.962   2.692
67198SOL     OW 3432  12.943   7.253   0.602
67198SOL    HW1 3433  12.855   7.273   0.571
67198SOL    HW2 3434  12.957   7.312   0.676
67199SOL     OW 3435  13.697   3.874   6.471
67199SOL    HW1 3436  13.715   3.782   6.449
67199SOL    HW2 3437  13.723   3.882   6.563
67200SOL     OW 3438   1.315   8.205  12.506
67200SOL    HW1 3439   1.351   8.291  12.528
67200SOL    HW2 3440   1.295   8.165  12.590
67201SOL     OW 3441   8.010   2.026   2.027
67201SOL    HW1 3442   7.977   1.937   2.028
67201SOL    HW2 3443   8.009   2.053   2.119
67202SOL     OW 3444   7.121   2.188   1.230
67202SOL    HW1 3445   7.119   2.101   1.191
67202SOL    HW2 3446   7.041   2.230   1.199
67203SOL     OW 3447  13.971   8.893   2.191
67203SOL    HW1 3448  13.979   8.974   2.141
67203SOL    HW2 3449  14.060   8.874   2.221
67204SOL     OW 3450  10.005   1.395   6.356
67204SOL    HW1 3451  10.060   1.438   6.420
67204SOL    HW2 3452   9.946   1.340   6.407
67205SOL     OW 3453   0.427   7.071  12.093
67205SOL    HW1 3454   0.362   7.133  12.060
67205SOL    HW2 3455   0.434   7.092  12.187
67206SOL     OW 3456  13.552   9.185   4.264
67206SOL    HW1 3457  13.593   9.241   4.197
67206SOL    HW2 3458  13.555   9.097   4.226
67207SOL     OW 3459   5.658   2.300   2.986
67207SOL    HW1 3460   5.581   2.263   3.028
67207SOL    HW2 3461   5.649   2.277   2.894
67208SOL     OW 3462  13.928   2.675   1.967
67208SOL    HW1 3463  13.910   2.767   1.987
67208SOL    HW2 3464  13.918   2.630   2.051
67209SOL     OW 3465   1.692  14.024   5.246
67209SOL    HW1 3466   1.695  14.027   5.150
67209SOL    HW2 3467   1.607  14.060   5.269
67210SOL     OW 3468  12.716   3.807   0.531
67210SOL    HW1 3469  12.796   3.856   0.552
67210SOL    HW2 3470  12.645   3.870   0.542
67211SOL     OW 3471   8.322  11.253   1.031
67211SOL    HW1 3472   8.312  11.187   1.099
67211SOL    HW2 3473   8.392  11.310   1.063
67212SOL     OW 3474  14.529   3.087  11.466
67212SOL    HW1 3475  14.471   3.017  11.497
67212SOL    HW2 3476  14.612   3.043  11.447
67213SOL     OW 3477  10.525   3.998  11.086
67213SOL    HW1 3478  10.522   4.077  11.033
67213SOL    HW2 3479  10.489   3.930  11.029
67214SOL     OW 3480  11.767   9.038  11.417
67214SOL    HW1 3481  11.702   8.982  11.375
67214SOL    HW2 3482  11.721   9.121  11.432
67215SOL     OW 3483   8.164  11.690   1.294
67215SOL    HW1 3484   8.108  11.740   1.355
67215SOL    HW2 3485   8.148  11.598   1.317
67216SOL     OW 3486   1.352   8.394   4.920
67216SOL    HW1 3487   1.371   8.434   5.004
67216SOL    HW2 3488   1.269   8.347   4.934
67217SOL     OW 3489  11.237   8.070  12.355
67217SOL    HW1 3490  11.228   8.129  12.280
67217SOL    HW2 3491  11.322   8.092  12.393
67218SOL     OW 3492   2.163  12.755  11.096
67218SOL    HW1 3493   2.236  12.817  11.099
67218SOL    HW2 3494   2.115  12.778  11.016
67219SOL     OW 3495  11.466   6.851   5.399
67219SOL    HW1 3496  11.426   6.827   5.315
67219SOL    HW2 3497  11.455   6.774   5.454
67220SOL     OW 3498  11.082   1.211   5.669
67220SOL    HW1 3499  11.167   1.191   5.629
67220SOL    HW2 3500  11.056   1.295   5.631
67221SOL     OW 3501   5.600   3.514   7.302
67221SOL    HW1 3502   5.524   3.493   7.248
67221SOL    HW2 3503   5.674   3.473   7.257
67222SOL     OW 3504   7.373   0.491   7.345
67222SOL    HW1 3505   7.356   0.475   7.438
67222SOL    HW2 3506   7.437   0.562   7.344
67223SOL     OW 3507   1.782  14.203   7.291
67223SOL    HW1 3508   1.866  14.205   7.245
67223SOL    HW2 3509   1.804  14.174   7.380
67224SOL     OW 3510   8.108   6.479   7.426
67224SOL    HW1 3511   8.181   6.435   7.384
67224SOL    HW2 3512   8.032   6.424   7.408
67225SOL     OW 3513  10.611   8.030   2.718
67225SOL    HW1 3514  10.658   8.111   2.742
67225SOL    HW2 3515  10.680   7.964   2.713
67226SOL     OW 3516  13.183   2.056  10.272
67226SOL    HW1 3517  13.148   1.976  10.234
67226SOL    HW2 3518  13.158   2.051  10.365
67227SOL     OW 3519   6.131   1.775   6.324
67227SOL    HW1 3520   6.042   1.747   6.344
67227SOL    HW2 3521   6.178   1.768   6.407
67228SOL     OW 3522  12.970   1.616  14.230
67228SOL    HW1 3523  12.996   1.703  14.261
67228SOL    HW2 3524  12.889   1.633  14.181
67229SOL     OW 3525  10.436   6.858   7.425
67229SOL    HW1 3526  10.386   6.930   7.388
67229SOL    HW2 3527  10.518   6.858   7.376
67230SOL     OW 3528   2.693   8.686   0.599
67230SOL    HW1 3529   2.669   8.594   0.615
67230SOL    HW2 3530   2.719   8.688   0.507
67231SOL     OW 3531   9.428  14.344   6.510
67231SOL    HW1 3532   9.461  14.256   6.495
67231SOL    HW2 3533   9.362  14.357   6.442
67232SOL     OW 3534   3.392  13.784   2.663
67232SOL    HW1 3535   3.403  13.724   2.738
67232SOL    HW2 3536   3.480  13.795   2.629
67233SOL     OW 3537   6.499   3.409  13.360
67233SOL    HW1 3538   6.494   3.318  13.391
67233SOL    HW2 3539   6.535   3.402  13.271
67234SOL     OW 3540   2.574   1.420  12.687
67234SOL    HW1 3541   2.572   1.475  12.608
67234SOL    HW2 3542   2.489   1.434  12.728
67235SOL     OW 3543  13.287  10.274  11.934
67235SOL    HW1 3544  13.340  10.249  11.858
67235SOL    HW2 3545  13.339  10.247  12.010
67236SOL     OW 3546   3.872  12.868  14.069
67236SOL    HW1 3547   3.920  12.900  13.992
67236SOL    HW2 3548   3.794  12.923  14.073
67237SOL     OW 3549  11.987  10.374   2.394
67237SOL    HW1 3550  12.051  10.389   2.464
67237SOL    HW2 3551  11.992  10.453   2.340
67238SOL     OW 3552   8.922  14.209   8.753
67238SOL    HW1 3553   8.874  14.187   8.673
67238SOL    HW2 3554   8.918  14.128   8.805
67239SOL     OW 3555  13.988   9.328  12.804
67239SOL    HW1 3556  13.936   9.408  12.800
67239SOL    HW2 3557  14.057   9.347  12.867
67240SOL     OW 3558   2.181   3.186   0.816
67240SOL    HW1 3559   2.214   3.170   0.728
67240SOL    HW2 3560   2.257   3.219   0.865
67241SOL     OW 3561   8.650   5.406   4.026
67241SOL    HW1 3562   8.703   5.327   4.013
67241SOL    HW2 3563   8.711   5.478   4.010
67242SOL     OW 3564  14.850   3.549   7.938
67242SOL    HW1 3565  14.856   3.583   8.027
67242SOL    HW2 3566  14.790   3.475   7.944
67243SOL     OW 3567   5.500   0.416   3.075
67243SOL    HW1 3568   5.454   0.488   3.118
67243SOL    HW2 3569   5.436   0.382   3.011
67244SOL     OW 3570   1.339  10.909  14.398
67244SOL    HW1 3571   1.327  10.896  14.303
67244SOL    HW2 3572   1.433  10.923  14.408
67245SOL     OW 3573  12.591  11.553   4.511
67245SOL    HW1 3574  12.559  11.636   4.548
67245SOL    HW2 3575  12.686  11.559   4.517
67246SOL     OW 3576   8.933   6.888  11.116
67246SOL    HW1 3577   8.965   6.974  11.091
67246SOL    HW2 3578   8.996   6.857  11.181
67247SOL     OW 3579   7.601   6.458   4.184
67247SOL    HW1 3580   7.620   6.369   4.154
67247SOL    HW2 3581   7.687   6.496   4.202
67248SOL     OW 3582   6.696   6.703  13.424
67248SOL    HW1 3583   6.747   6.669  13.498
67248SOL    HW2 3584   6.761   6.734  13.362
67249SOL     OW 3585  13.456   1.879  12.606
67249SOL    HW1 3586  13.380   1.843  12.561
67249SOL    HW2 3587  13.531   1.834  12.566
67250SOL     OW 3588   0.380   7.181  11.473
67250SOL    HW1 3589   0.341   7.141  11.396
67250SOL    HW2 3590   0.475   7.173  11.459
67251SOL     OW 3591   4.245   8.858  10.055
67251SOL    HW1 3592   4.250   8.825   9.966
67251SOL    HW2 3593   4.252   8.780  10.110
67252SOL     OW 3594   0.456   3.944   0.723
67252SOL    HW1 3595   0.531   3.927   0.666
67252SOL    HW2 3596   0.473   4.030   0.761
67253SOL     OW 3597   9.254   0.717  11.213
67253SOL    HW1 3598   9.273   0.650  11.278
67253SOL    HW2 3599   9.161   0.736  11.224
67254SOL     OW 3600  11.458  10.800   0.115
67254SOL    HW1 3601  11.486  10.873   0.060
67254SOL    HW2 3602  11.515  10.804   0.192
67255SOL     OW 3603   5.018   9.024   8.470
67255SOL    HW1 3604   4.983   9.058   8.552
67255SOL    HW2 3605   4.942   9.016   8.412
67256SOL     OW 3606  10.625  11.988  14.788
67256SOL    HW1 3607  10.707  12.011  14.831
67256SOL    HW2 3608  10.572  12.068  14.792
67257SOL     OW 3609   9.662   6.533  10.429
67257SOL    HW1 3610   9.684   6.620  10.396
67257SOL    HW2 3611   9.710   6.473  10.372
67258SOL     OW 3612   9.048   3.345   5.694
67258SOL    HW1 3613   9.136   3.378   5.673
67258SOL    HW2 3614   8.996   3.424   5.711
67259SOL     OW 3615  13.742  10.208   5.658
67259SOL    HW1 3616  13.671  10.183   5.718
67259SOL    HW2 3617  13.812  10.239   5.716
67260SOL     OW 3618   6.891   4.045  14.300
67260SOL    HW1 3619   6.855   4.032  14.212
67260SOL    HW2 3620   6.815   4.063  14.355
67261SOL     OW 3621   4.046  12.809   1.077
67261SOL    HW1 3622   4.117  12.845   1.130
67261SOL    HW2 3623   4.084  12.796   0.991
67262SOL     OW 3624   3.528   8.789   6.090
67262SOL    HW1 3625   3.487   8.776   6.005
67262SOL    HW2 3626   3.599   8.724   6.093
67263SOL     OW 3627   9.621   4.396   4.510
67263SOL    HW1 3628   9.703   4.437   4.482
67263SOL    HW2 3629   9.595   4.341   4.436
67264SOL     OW 3630   5.037   0.122   3.489
67264SOL    HW1 3631   5.046   0.028   3.473
67264SOL    HW2 3632   5.072   0.164   3.410
67265SOL     OW 3633  11.357  11.762   2.760
67265SOL    HW1 3634  11.320  11.782   2.846
67265SOL    HW2 3635  11.296  11.802   2.697
67266SOL     OW 3636  12.803  12.236   2.195
67266SOL    HW1 3637  12.795  12.213   2.288
67266SOL    HW2 3638  12.810  12.332   2.195
67267SOL     OW 3639   3.399   7.153   3.053
67267SOL    HW1 3640   3.442   7.071   3.076
67267SOL    HW2 3641   3.313   7.148   3.095
67268SOL     OW 3642   9.242  10.278   3.217
67268SOL    HW1 3643   9.166  10.268   3.161
67268SOL    HW2 3644   9.314  10.298   3.157
67269SOL     OW 3645  10.633  12.138   9.330
67269SOL    HW1 3646  10.561  12.132   9.392
67269SOL    HW2 3647  10.657  12.048   9.310
67270SOL     OW 3648   1.819   5.708   5.107
67270SOL    HW1 3649   1.755   5.640   5.126
67270SOL    HW2 3650   1.868   5.675   5.032
67271SOL     OW 3651   7.597   2.005   0.876
67271SOL    HW1 3652   7.510   2.013   0.837
67271SOL    HW2 3653   7.593   2.057   0.956
67272SOL     OW 3654  14.023   8.529  13.557
67272SOL    HW1 3655  14.072   8.609  13.575
67272SOL    HW2 3656  13.944   8.559  13.513
67273SOL     OW 3657  10.696  13.215   0.512
67273SOL    HW1 3658  10.773  13.218   0.456
67273SOL    HW2 3659  10.630  13.169   0.460
67274SOL     OW 3660   8.861   9.847   9.671
67274SOL    HW1 3661   8.900   9.760   9.668
67274SOL    HW2 3662   8.860   9.870   9.763
67275SOL     OW 3663   7.605  13.101  10.082
67275SOL    HW1 3664   7.560  13.094   9.999
67275SOL    HW2 3665   7.623  13.194  10.093
67276SOL     OW 3666   0.873   0.952   1.269
67276SOL    HW1 3667   0.916   1.033   1.241
67276SOL    HW2 3668   0.870   0.958   1.364
67277SOL     OW 3669   5.385  14.256   3.554
67277SOL    HW1 3670   5.439  14.279   3.478
67277SOL    HW2 3671   5.398  14.162   3.566
67278SOL     OW 3672   5.687   1.979   6.925
67278SOL    HW1 3673   5.630   2.056   6.918
67278SOL    HW2 3674   5.744   1.985   6.848
67279SOL     OW 3675   5.672  12.314  12.250
67279SOL    HW1 3676   5.583  12.302  12.217
67279SOL    HW2 3677   5.703  12.225  12.268
67280SOL     OW 3678  14.458   6.961   0.531
67280SOL    HW1 3679  14.520   6.966   0.458
67280SOL    HW2 3680  14.452   6.868   0.552
67281SOL     OW 3681   3.248  10.346   2.591
67281SOL    HW1 3682   3.284  10.268   2.635
67281SOL    HW2 3683   3.251  10.415   2.658
67282SOL     OW 3684   7.850   6.731   6.126
67282SOL    HW1 3685   7.931   6.724   6.075
67282SOL    HW2 3686   7.784   6.757   6.061
67283SOL     OW 3687   4.856   4.657   8.119
67283SOL    HW1 3688   4.837   4.564   8.106
67283SOL    HW2 3689   4.906   4.682   8.041
67284SOL     OW 3690   8.498   3.587  10.317
67284SOL    HW1 3691   8.478   3.569  10.408
67284SOL    HW2 3692   8.555   3.664  10.320
67285SOL     OW 3693   9.238   3.557   4.888
67285SOL    HW1 3694   9.264   3.615   4.960
67285SOL    HW2 3695   9.312   3.558   4.828
67286SOL     OW 3696   2.667  13.168   5.331
67286SOL    HW1 3697   2.731  13.112   5.375
67286SOL    HW2 3698   2.610  13.200   5.401
67287SOL     OW 3699   1.462   0.998  13.238
67287SOL    HW1 3700   1.405   0.963  13.306
67287SOL    HW2 3701   1.481   1.087  13.267
67288SOL     OW 3702   7.935   5.388  11.186
67288SOL    HW1 3703   7.914   5.369  11.095
67288SOL    HW2 3704   7.911   5.480  11.197
67289SOL     OW 3705  10.504   6.912  13.139
67289SOL    HW1 3706  10.558   6.929  13.216
67289SOL    HW2 3707  10.442   6.845  13.168
67290SOL     OW 3708   0.278  10.908   3.021
67290SOL    HW1 3709   0.318  10.946   3.099
67290SOL    HW2 3710   0.323  10.949   2.947
67291SOL     OW 3711  13.900   5.504   6.116
67291SOL    HW1 3712  13.850   5.444   6.171
67291SOL    HW2 3713  13.957   5.448   6.063
67292SOL     OW 3714   4.158   9.534   1.712
67292SOL    HW1 3715   4.199   9.448   1.718
67292SOL    HW2 3716   4.230   9.595   1.697
67293SOL     OW 3717   8.436  11.132   5.336
67293SOL    HW1 3718   8.353  11.146   5.382
67293SOL    HW2 3719   8.418  11.057   5.278
67294SOL     OW 3720   5.802   9.027  10.526
67294SOL    HW1 3721   5.775   8.953  10.471
67294SOL    HW2 3722   5.845   9.087  10.465
67295SOL     OW 3723   2.342  10.156  11.530
67295SOL    HW1 3724   2.368  10.225  11.468
67295SOL    HW2 3725   2.340  10.199  11.615
67296SOL     OW 3726   0.124   2.423   4.455
67296SOL    HW1 3727   0.139   2.494   4.518
67296SOL    HW2 3728   0.037   2.440   4.420
67297SOL     OW 3729   1.794   0.370   5.314
67297SOL    HW1 3730   1.839   0.315   5.251
67297SOL    HW2 3731   1.755   0.440   5.261
67298SOL     OW 3732  13.718   0.018   2.872
67298SOL    HW1 3733  13.681  14.825   2.926
67298SOL    HW2 3734  13.718  14.859   2.783
67299SOL     OW 3735   6.765  13.608   0.638
67299SOL    HW1 3736   6.691  13.642   0.689
67299SOL    HW2 3737   6.827  13.681   0.635
67300SOL     OW 3738   2.739   3.957   5.054
67300SOL    HW1 3739   2.654   3.980   5.018
67300SOL    HW2 3740   2.726   3.871   5.094
67301SOL     OW 3741   0.725   6.014  11.285
67301SOL    HW1 3742   0.708   6.032  11.377
67301SOL    HW2 3743   0.672   5.937  11.265
67302SOL     OW 3744  13.395   5.533   7.178
67302SOL    HW1 3745  13.435   5.520   7.092
67302SOL    HW2 3746  13.328   5.466   7.184
67303SOL     OW 3747   0.467   0.056   3.616
67303SOL    HW1 3748   0.464   0.045   3.521
67303SOL    HW2 3749   0.381   0.026   3.647
67304SOL     OW 3750   5.533  14.531   4.267
67304SOL    HW1 3751   5.604  14.584   4.305
67304SOL    HW2 3752   5.567  14.442   4.266
67305SOL     OW 3753  10.735   4.768   7.657
67305SOL    HW1 3754  10.707   4.856   7.682
67305SOL    HW2 3755  10.658   4.713   7.672
67306SOL     OW 3756   0.644  13.642  11.423
67306SOL    HW1 3757   0.633  13.554  11.461
67306SOL    HW2 3758   0.555  13.673  11.409
67307SOL     OW 3759   6.081  11.823  13.901
67307SOL    HW1 3760   6.145  11.894  13.891
67307SOL    HW2 3761   6.105  11.781  13.984
67308SOL     OW 3762  12.992  12.842   5.290
67308SOL    HW1 3763  12.984  12.847   5.195
67308SOL    HW2 3764  12.990  12.748   5.310
67309SOL     OW 3765   4.794  11.951  11.790
67309SOL    HW1 3766   4.777  12.007  11.714
67309SOL    HW2 3767   4.889  11.938  11.788
67310SOL     OW 3768   2.036  11.787   3.350
67310SOL    HW1 3769   2.071  11.713   3.401
67310SOL    HW2 3770   1.985  11.837   3.413
67311SOL     OW 3771   6.098   8.589   9.139
67311SOL    HW1 3772   6.055   8.574   9.223
67311SOL    HW2 3773   6.112   8.684   9.136
67312SOL     OW 3774   8.279   9.934  13.270
67312SOL    HW1 3775   8.187   9.917  13.250
67312SOL    HW2 3776   8.285   9.924  13.365
67313SOL     OW 3777   8.372   1.079  11.828
67313SOL    HW1 3778   8.454   1.106  11.868
67313SOL    HW2 3779   8.348   1.152  11.771
67314SOL     OW 3780   1.483   2.089   0.308
67314SOL    HW1 3781   1.540   2.017   0.280
67314SOL    HW2 3782   1.433   2.112   0.229
67315SOL     OW 3783   0.167   6.372   9.759
67315SOL    HW1 3784   0.111   6.297   9.777
67315SOL    HW2 3785   0.252   6.334   9.737
67316SOL     OW 3786   0.788   4.121  13.696
67316SOL    HW1 3787   0.870   4.084  13.663
67316SOL    HW2 3788   0.779   4.204  13.649
67317SOL     OW 3789  13.459   0.725   9.235
67317SOL    HW1 3790  13.421   0.714   9.322
67317SOL    HW2 3791  13.497   0.640   9.213
67318SOL     OW 3792  11.195  10.807  12.416
67318SOL    HW1 3793  11.100  10.800  12.406
67318SOL    HW2 3794  11.221  10.875  12.354
67319SOL     OW 3795   6.407   5.646   4.726
67319SOL    HW1 3796   6.386   5.554   4.709
67319SOL    HW2 3797   6.419   5.650   4.821
67320SOL     OW 3798   2.556   6.551  14.499
67320SOL    HW1 3799   2.487   6.488  14.477
67320SOL    HW2 3800   2.550   6.560  14.594
67321SOL     OW 3801   1.168  11.863  10.692
67321SOL    HW1 3802   1.088  11.900  10.655
67321SOL    HW2 3803   1.231  11.935  10.691
67322SOL     OW 3804   3.653   5.295   5.680
67322SOL    HW1 3805   3.716   5.241   5.727
67322SOL    HW2 3806   3.706   5.362   5.637
67323SOL     OW 3807  12.981  11.621   5.696
67323SOL    HW1 3808  13.023  11.545   5.654
67323SOL    HW2 3809  12.907  11.584   5.744
67324SOL     OW 3810   5.309   8.765   4.344
67324SOL    HW1 3811   5.310   8.670   4.360
67324SOL    HW2 3812   5.329   8.774   4.251
67325SOL     OW 3813  14.349   5.219  13.156
67325SOL    HW1 3814  14.337   5.220  13.061
67325SOL    HW2 3815  14.442   5.199  13.168
67326SOL     OW 3816   4.351   9.989   7.579
67326SOL    HW1 3817   4.346  10.023   7.668
67326SOL    HW2 3818   4.422   9.925   7.581
67327SOL     OW 3819  12.668   5.883   0.876
67327SOL    HW1 3820  12.632   5.836   0.801
67327SOL    HW2 3821  12.673   5.974   0.848
67328SOL     OW 3822   0.610  13.917   2.292
67328SOL    HW1 3823   0.623  13.983   2.224
67328SOL    HW2 3824   0.696  13.876   2.303
67329SOL     OW 3825   5.115   0.602   5.771
67329SOL    HW1 3826   5.168   0.631   5.697
67329SOL    HW2 3827   5.084   0.515   5.745
67330SOL     OW 3828  10.422   5.434   4.810
67330SOL    HW1 3829  10.379   5.359   4.769
67330SOL    HW2 3830  10.415   5.504   4.744
67331SOL     OW 3831  11.824   8.759  12.933
67331SOL    HW1 3832  11.806   8.738  12.842
67331SOL    HW2 3833  11.738   8.763  12.975
67332SOL     OW 3834   0.949   0.933   3.850
67332SOL    HW1 3835   0.946   0.951   3.756
67332SOL    HW2 3836   1.041   0.941   3.873
67333SOL     OW 3837   0.186  13.197   7.789
67333SOL    HW1 3838   0.174  13.117   7.841
67333SOL    HW2 3839   0.279  13.217   7.799
67334SOL     OW 3840  12.399   8.186  14.478
67334SOL    HW1 3841  12.480   8.236  14.467
67334SOL    HW2 3842  12.404   8.119  14.411
67335SOL     OW 3843  11.182  10.902   6.849
67335SOL    HW1 3844  11.229  10.883   6.768
67335SOL    HW2 3845  11.090  10.906   6.824
67336SOL     OW 3846   1.155   0.747  10.298
67336SOL    HW1 3847   1.106   0.695  10.362
67336SOL    HW2 3848   1.245   0.746  10.330
67337SOL     OW 3849   6.570  14.291   8.116
67337SOL    HW1 3850   6.476  14.302   8.100
67337SOL    HW2 3851   6.602  14.241   8.042
67338SOL     OW 3852   8.636   8.513   0.470
67338SOL    HW1 3853   8.640   8.548   0.559
67338SOL    HW2 3854   8.587   8.432   0.478
67339SOL     OW 3855  10.890   0.947   4.130
67339SOL    HW1 3856  10.825   0.908   4.071
67339SOL    HW2 3857  10.960   0.977   4.073
67340SOL     OW 3858   0.012  12.896   4.958
67340SOL    HW1 3859  14.863  12.981   4.921
67340SOL    HW2 3860  14.805  12.850   4.971
67341SOL     OW 3861   8.608   7.748   5.293
67341SOL    HW1 3862   8.602   7.830   5.341
67341SOL    HW2 3863   8.688   7.706   5.327
67342SOL     OW 3864   0.063   8.542  13.405
67342SOL    HW1 3865   0.007   8.503  13.338
67342SOL    HW2 3866   0.024   8.513  13.488
67343SOL     OW 3867   5.813   1.031  12.512
67343SOL    HW1 3868   5.837   0.992  12.596
67343SOL    HW2 3869   5.719   1.050  12.521
67344SOL     OW 3870   9.112   0.123   0.897
67344SOL    HW1 3871   9.114   0.073   0.815
67344SOL    HW2 3872   9.088   0.212   0.870
67345SOL     OW 3873  12.683   9.727   0.142
67345SOL    HW1 3874  12.701   9.817   0.170
67345SOL    HW2 3875  12.588   9.721   0.140
67346SOL     OW 3876   2.081   6.884   2.893
67346SOL    HW1 3877   2.097   6.817   2.960
67346SOL    HW2 3878   2.058   6.834   2.815
67347SOL     OW 3879   9.922   3.637   6.578
67347SOL    HW1 3880  10.009   3.606   6.602
67347SOL    HW2 3881   9.904   3.707   6.641
67348SOL     OW 3882  12.102  11.047   9.205
67348SOL    HW1 3883  12.015  11.087   9.210
67348SOL    HW2 3884  12.159  11.118   9.175
67349SOL     OW 3885  11.571   0.790  14.241
67349SOL    HW1 3886  11.513   0.851  14.196
67349SOL    HW2 3887  11.565   0.709  14.190
67350SOL     OW 3888   7.678   9.987   0.661
67350SOL    HW1 3889   7.681  10.056   0.595
67350SOL    HW2 3890   7.765   9.988   0.701
67351SOL     OW 3891   3.359   7.430   8.254
67351SOL    HW1 3892   3.413   7.447   8.331
67351SOL    HW2 3893   3.334   7.338   8.263
67352SOL     OW 3894   1.845   8.491   3.701
67352SOL    HW1 3895   1.904   8.559   3.667
67352SOL    HW2 3896   1.759   8.514   3.664
67353SOL     OW 3897  12.228   4.277   1.480
67353SOL    HW1 3898  12.133   4.271   1.483
67353SOL    HW2 3899  12.248   4.366   1.510
67354SOL     OW 3900   0.835  10.426   2.989
67354SOL    HW1 3901   0.824  10.491   3.059
67354SOL    HW2 3902   0.749  10.385   2.982
67355SOL     OW 3903   9.690   1.579  14.869
67355SOL    HW1 3904   9.764   1.543   0.042
67355SOL    HW2 3905   9.635   1.621   0.059
67356SOL     OW 3906   8.877  10.601   6.346
67356SOL    HW1 3907   8.954  10.592   6.289
67356SOL    HW2 3908   8.899  10.549   6.423
67357SOL     OW 3909   5.457   1.146   2.781
67357SOL    HW1 3910   5.516   1.105   2.717
67357SOL    HW2 3911   5.379   1.091   2.780
67358SOL     OW 3912   0.473   0.789  13.185
67358SOL    HW1 3913   0.433   0.742  13.112
67358SOL    HW2 3914   0.440   0.878  13.177
67359SOL     OW 3915  13.780   4.176   8.724
67359SOL    HW1 3916  13.735   4.258   8.744
67359SOL    HW2 3917  13.718   4.107   8.751
67360SOL     OW 3918  10.871  13.181   8.484
67360SOL    HW1 3919  10.786  13.225   8.476
67360SOL    HW2 3920  10.931  13.239   8.436
67361SOL     OW 3921  11.552   4.968   5.463
67361SOL    HW1 3922  11.560   5.051   5.509
67361SOL    HW2 3923  11.458   4.950   5.460
67362SOL     OW 3924  10.849  10.490  14.566
67362SOL    HW1 3925  10.783  10.559  14.565
67362SOL    HW2 3926  10.814  10.425  14.626
67363SOL     OW 3927   9.158   4.747   0.753
67363SOL    HW1 3928   9.089   4.681   0.754
67363SOL    HW2 3929   9.234   4.703   0.716
67364SOL     OW 3930   4.085   2.560  13.807
67364SOL    HW1 3931   4.034   2.480  13.811
67364SOL    HW2 3932   4.022   2.629  13.786
67365SOL     OW 3933   0.096  10.739   0.287
67365SOL    HW1 3934   0.115  10.687   0.365
67365SOL    HW2 3935   0.017  10.788   0.309
67366SOL     OW 3936  12.384  13.531  10.845
67366SOL    HW1 3937  12.305  13.491  10.809
67366SOL    HW2 3938  12.380  13.622  10.815
67367SOL     OW 3939   5.737   2.274   1.879
67367SOL    HW1 3940   5.777   2.347   1.926
67367SOL    HW2 3941   5.779   2.275   1.793
67368SOL     OW 3942   4.997  14.819   4.149
67368SOL    HW1 3943   5.060  14.753   4.119
67368SOL    HW2 3944   5.002  14.816   4.244
67369SOL     OW 3945  12.597  11.886  10.170
67369SOL    HW1 3946  12.684  11.897  10.132
67369SOL    HW2 3947  12.601  11.933  10.254
67370SOL     OW 3948  14.089   0.662  11.953
67370SOL    HW1 3949  14.018   0.720  11.979
67370SOL    HW2 3950  14.140   0.649  12.033
67371SOL     OW 3951   7.219   0.630   3.923
67371SOL    HW1 3952   7.137   0.583   3.914
67371SOL    HW2 3953   7.217   0.695   3.852
67372SOL     OW 3954   3.862   0.120   8.047
67372SOL    HW1 3955   3.945   0.159   8.020
67372SOL    HW2 3956   3.853   0.142   8.139
67373SOL     OW 3957  13.358   5.903   4.537
67373SOL    HW1 3958  13.290   5.970   4.533
67373SOL    HW2 3959  13.329   5.844   4.607
67374SOL     OW 3960   8.161  13.717   9.508
67374SOL    HW1 3961   8.193  13.631   9.482
67374SOL    HW2 3962   8.082  13.730   9.455
67375SOL     OW 3963   7.882   8.279   4.832
67375SOL    HW1 3964   7.956   8.336   4.816
67375SOL    HW2 3965   7.912   8.192   4.806
67376SOL     OW 3966   5.518  13.992   9.994
67376SOL    HW1 3967   5.572  14.022  10.067
67376SOL    HW2 3968   5.569  13.921   9.954
67377SOL     OW 3969   8.914   5.303   3.448
67377SOL    HW1 3970   8.940   5.360   3.520
67377SOL    HW2 3971   8.982   5.316   3.381
67378SOL     OW 3972  13.722  14.360  14.075
67378SOL    HW1 3973  13.692  14.303  14.005
67378SOL    HW2 3974  13.641  14.385  14.121
67379SOL     OW 3975   7.250   4.527   9.226
67379SOL    HW1 3976   7.181   4.590   9.247
67379SOL    HW2 3977   7.238   4.510   9.133
67380SOL     OW 3978   0.875  10.226  13.149
67380SOL    HW1 3979   0.942  10.218  13.217
67380SOL    HW2 3980   0.862  10.321  13.140
67381SOL     OW 3981   4.411   9.737   9.966
67381SOL    HW1 3982   4.490   9.791   9.970
67381SOL    HW2 3983   4.372   9.746  10.053
67382SOL     OW 3984  13.267   5.388   2.292
67382SOL    HW1 3985  13.279   5.482   2.305
67382SOL    HW2 3986  13.334   5.363   2.228
67383SOL     OW 3987   6.312   7.754   7.406
67383SOL    HW1 3988   6.308   7.831   7.349
67383SOL    HW2 3989   6.229   7.755   7.453
67384SOL     OW 3990  14.167   6.356   8.355
67384SOL    HW1 3991  14.170   6.269   8.314
67384SOL    HW2 3992  14.224   6.348   8.432
67385SOL     OW 3993   8.854   4.700   9.260
67385SOL    HW1 3994   8.844   4.619   9.311
67385SOL    HW2 3995   8.945   4.726   9.275
67386SOL     OW 3996   4.382  10.374   0.885
67386SOL    HW1 3997   4.315  10.325   0.931
67386SOL    HW2 3998   4.414  10.437   0.950
67387SOL     OW 3999   4.146   4.039   5.467
67387SOL    HW1 4000   4.071   4.063   5.519
67387SOL    HW2 4001   4.136   4.088   5.385
67388SOL     OW 4002   4.430   4.892  10.900
67388SOL    HW1 4003   4.452   4.965  10.842
67388SOL    HW2 4004   4.361   4.926  10.957
67389SOL     OW 4005   5.968   5.176   4.420
67389SOL    HW1 4006   5.999   5.169   4.330
67389SOL    HW2 4007   6.003   5.260   4.451
67390SOL     OW 4008   0.201  10.023  10.800
67390SOL    HW1 4009   0.164  10.104  10.836
67390SOL    HW2 4010   0.196   9.960  10.872
67391SOL     OW 4011  11.265  14.571   3.580
67391SOL    HW1 4012  11.232  14.520   3.654
67391SOL    HW2 4013  11.221  14.533   3.504
67392SOL     OW 4014  10.520   1.139  13.671
67392SOL    HW1 4015  10.585   1.167  13.606
67392SOL    HW2 4016  10.502   1.048  13.649
67393SOL     OW 4017   6.450   2.576   4.996
67393SOL    HW1 4018   6.474   2.503   4.939
67393SOL    HW2 4019   6.495   2.651   4.958
67394SOL     OW 4020  12.196  13.932   6.124
67394SOL    HW1 4021  12.226  13.842   6.109
67394SOL    HW2 4022  12.213  13.977   6.042
67395SOL     OW 4023  13.358   1.386   0.891
67395SOL    HW1 4024  13.396   1.463   0.934
67395SOL    HW2 4025  13.388   1.393   0.800
67396SOL     OW 4026   9.356   2.906   0.944
67396SOL    HW1 4027   9.305   2.981   0.914
67396SOL    HW2 4028   9.419   2.943   1.005
67397SOL     OW 4029   7.974   6.363  11.792
67397SOL    HW1 4030   7.939   6.450  11.770
67397SOL    HW2 4031   7.999   6.326  11.708
67398SOL     OW 4032   9.316   8.496  12.194
67398SOL    HW1 4033   9.277   8.426  12.141
67398SOL    HW2 4034   9.270   8.490  12.279
67399SOL     OW 4035  14.480   4.769   3.324
67399SOL    HW1 4036  14.507   4.680   3.301
67399SOL    HW2 4037  14.385   4.763   3.334
67400SOL     OW 4038  12.378  11.996  11.017
67400SOL    HW1 4039  12.347  11.909  11.042
67400SOL    HW2 4040  12.469  11.998  11.046
67401SOL     OW 4041  10.362  13.664   0.781
67401SOL    HW1 4042  10.357  13.587   0.837
67401SOL    HW2 4043  10.281  13.712   0.800
67402SOL     OW 4044   0.786   7.967   3.659
67402SOL    HW1 4045   0.776   7.927   3.745
67402SOL    HW2 4046   0.759   7.899   3.597
67403SOL     OW 4047   9.756   1.162   4.778
67403SOL    HW1 4048   9.752   1.254   4.806
67403SOL    HW2 4049   9.849   1.141   4.778
67404SOL     OW 4050   1.504   5.135  12.413
67404SOL    HW1 4051   1.437   5.074  12.441
67404SOL    HW2 4052   1.581   5.111  12.464
67405SOL     OW 4053   4.754  13.057   7.625
67405SOL    HW1 4054   4.716  13.097   7.703
67405SOL    HW2 4055   4.702  12.978   7.611
67406SOL     OW 4056   1.652   2.376   5.770
67406SOL    HW1 4057   1.690   2.333   5.693
67406SOL    HW2 4058   1.713   2.447   5.791
67407SOL     OW 4059   0.731  11.692   3.156
67407SOL    HW1 4060   0.666  11.719   3.091
67407SOL    HW2 4061   0.705  11.738   3.236
67408SOL     OW 4062  12.398  13.806   3.479
67408SOL    HW1 4063  12.470  13.868   3.471
67408SOL    HW2 4064  12.351  13.811   3.396
67409SOL     OW 4065   9.545   4.611   9.890
67409SOL    HW1 4066   9.605   4.655   9.830
67409SOL    HW2 4067   9.576   4.520   9.892
67410SOL     OW 4068   0.115   4.318   8.755
67410SOL    HW1 4069   0.210   4.312   8.767
67410SOL    HW2 4070   0.100   4.409   8.731
67411SOL     OW 4071  12.285   9.744   0.993
67411SOL    HW1 4072  12.305   9.803   0.921
67411SOL    HW2 4073  12.197   9.712   0.974
67412SOL     OW 4074   4.430   0.052   8.645
67412SOL    HW1 4075   4.496   0.121   8.652
67412SOL    HW2 4076   4.441   0.017   8.557
67413SOL     OW 4077   2.622   3.860   7.391
67413SOL    HW1 4078   2.649   3.930   7.331
67413SOL    HW2 4079   2.529   3.846   7.369
67414SOL     OW 4080   5.854   4.325   3.511
67414SOL    HW1 4081   5.808   4.320   3.595
67414SOL    HW2 4082   5.868   4.419   3.497
67415SOL     OW 4083  12.205   7.744   8.710
67415SOL    HW1 4084  12.246   7.823   8.676
67415SOL    HW2 4085  12.111   7.764   8.711
67416SOL     OW 4086   7.324   2.924   2.232
67416SOL    HW1 4087   7.260   2.937   2.162
67416SOL    HW2 4088   7.399   2.883   2.190
67417SOL     OW 4089   7.999   5.548   9.686
67417SOL    HW1 4090   8.001   5.603   9.607
67417SOL    HW2 4091   7.932   5.589   9.742
67418SOL     OW 4092   6.882  14.152   8.323
67418SOL    HW1 4093   6.965  14.131   8.364
67418SOL    HW2 4094   6.846  14.068   8.295
67419SOL     OW 4095  10.781  11.475  11.750
67419SOL    HW1 4096  10.706  11.420  11.772
67419SOL    HW2 4097  10.743  11.562  11.732
67420SOL     OW 4098   0.681   2.415  13.084
67420SOL    HW1 4099   0.698   2.397  12.992
67420SOL    HW2 4100   0.743   2.484  13.107
67421SOL     OW 4101   6.057   4.472   2.375
67421SOL    HW1 4102   6.011   4.465   2.291
67421SOL    HW2 4103   6.125   4.538   2.359
67422SOL     OW 4104   7.931   2.588   9.268
67422SOL    HW1 4105   7.883   2.506   9.253
67422SOL    HW2 4106   8.008   2.562   9.318
67423SOL     OW 4107  12.244   8.880  10.191
67423SOL    HW1 4108  12.241   8.941  10.265
67423SOL    HW2 4109  12.281   8.800  10.227
67424SOL     OW 4110   1.187   7.451  11.976
67424SOL    HW1 4111   1.262   7.509  11.975
67424SOL    HW2 4112   1.149   7.462  12.063
67425SOL     OW 4113   3.750   3.254   1.879
67425SOL    HW1 4114   3.660   3.285   1.886
67425SOL    HW2 4115   3.784   3.296   1.800
67426SOL     OW 4116   9.860   1.279   8.684
67426SOL    HW1 4117   9.850   1.342   8.755
67426SOL    HW2 4118   9.771   1.254   8.661
67427SOL     OW 4119   3.329   0.692  10.096
67427SOL    HW1 4120   3.321   0.728  10.184
67427SOL    HW2 4121   3.269   0.745  10.043
67428SOL     OW 4122  12.401   2.565  10.548
67428SOL    HW1 4123  12.482   2.612  10.565
67428SOL    HW2 4124  12.340   2.632  10.516
67429SOL     OW 4125   8.098  14.172   4.117
67429SOL    HW1 4126   8.144  14.186   4.200
67429SOL    HW2 4127   8.064  14.083   4.123
67430SOL     OW 4128   9.203  12.541  11.663
67430SOL    HW1 4129   9.243  12.601  11.600
67430SOL    HW2 4130   9.146  12.597  11.716
67431SOL     OW 4131   8.222  13.062   5.285
67431SOL    HW1 4132   8.224  13.156   5.306
67431SOL    HW2 4133   8.238  13.018   5.368
67432SOL     OW 4134   0.854   3.568   6.713
67432SOL    HW1 4135   0.798   3.496   6.684
67432SOL    HW2 4136   0.826   3.643   6.661
67433SOL     OW 4137   2.241  11.969   3.611
67433SOL    HW1 4138   2.191  11.989   3.690
67433SOL    HW2 4139   2.191  12.009   3.539
67434SOL     OW 4140  11.155   6.501   4.903
67434SOL    HW1 4141  11.247   6.505   4.930
67434SOL    HW2 4142  11.147   6.417   4.858
67435SOL     OW 4143  10.417   0.038  10.585
67435SOL    HW1 4144  10.379  14.852  10.524
67435SOL    HW2 4145  10.371   0.021  10.668
67436SOL     OW 4146   6.832   5.886   0.208
67436SOL    HW1 4147   6.750   5.841   0.226
67436SOL    HW2 4148   6.872   5.836   0.136
67437SOL     OW 4149   8.678   0.031  14.162
67437SOL    HW1 4150   8.719  14.832  14.204
67437SOL    HW2 4151   8.586   0.025  14.187
67438SOL     OW 4152   0.805   0.685   4.724
67438SOL    HW1 4153   0.826   0.711   4.814
67438SOL    HW2 4154   0.878   0.629   4.698
67439SOL     OW 4155   4.489   5.003   2.370
67439SOL    HW1 4156   4.575   4.991   2.328
67439SOL    HW2 4157   4.509   5.048   2.452
67440SOL     OW 4158  11.392   3.395   4.968
67440SOL    HW1 4159  11.419   3.442   5.047
67440SOL    HW2 4160  11.310   3.438   4.942
67441SOL     OW 4161   2.500  12.161   0.175
67441SOL    HW1 4162   2.572  12.214   0.208
67441SOL    HW2 4163   2.433  12.225   0.148
67442SOL     OW 4164   4.683   5.863   2.666
67442SOL    HW1 4165   4.741   5.900   2.732
67442SOL    HW2 4166   4.716   5.774   2.651
67443SOL     OW 4167  10.693   4.620   0.488
67443SOL    HW1 4168  10.786   4.620   0.466
67443SOL    HW2 4169  10.652   4.670   0.417
67444SOL     OW 4170   0.809   5.199   9.784
67444SOL    HW1 4171   0.862   5.271   9.817
67444SOL    HW2 4172   0.869   5.124   9.781
67445SOL     OW 4173  12.469   1.282   3.655
67445SOL    HW1 4174  12.383   1.247   3.679
67445SOL    HW2 4175  12.531   1.222   3.696
67446SOL     OW 4176   8.534  11.496   2.699
67446SOL    HW1 4177   8.627  11.507   2.681
67446SOL    HW2 4178   8.512  11.567   2.759
67447SOL     OW 4179   3.794   9.896  13.922
67447SOL    HW1 4180   3.833   9.955  13.987
67447SOL    HW2 4181   3.867   9.843  13.890
67448SOL     OW 4182  14.061  13.645   8.741
67448SOL    HW1 4183  14.043  13.578   8.807
67448SOL    HW2 4184  14.153  13.631   8.717
67449SOL     OW 4185   2.323   5.382   9.441
67449SOL    HW1 4186   2.407   5.389   9.485
67449SOL    HW2 4187   2.280   5.308   9.484
67450SOL     OW 4188  11.221   6.739  13.477
67450SOL    HW1 4189  11.194   6.666  13.423
67450SOL    HW2 4190  11.262   6.699  13.554
67451SOL     OW 4191   3.980  14.037  13.346
67451SOL    HW1 4192   3.936  14.121  13.360
67451SOL    HW2 4193   3.913  13.981  13.307
67452SOL     OW 4194   4.792  10.354   9.972
67452SOL    HW1 4195   4.723  10.420   9.975
67452SOL    HW2 4196   4.863  10.395   9.922
67453SOL     OW 4197   2.290  10.450   0.237
67453SOL    HW1 4198   2.316  10.376   0.292
67453SOL    HW2 4199   2.306  10.527   0.290
67454SOL     OW 4200   7.628   1.143  12.261
67454SOL    HW1 4201   7.597   1.137  12.170
67454SOL    HW2 4202   7.558   1.103  12.312
67455SOL     OW 4203   1.579   0.978   4.999
67455SOL    HW1 4204   1.628   0.980   5.081
67455SOL    HW2 4205   1.551   1.069   4.986
67456SOL     OW 4206   2.362   0.176  10.983
67456SOL    HW1 4207   2.447   0.220  10.996
67456SOL    HW2 4208   2.364   0.145  10.893
67457SOL     OW 4209  10.937   4.054   5.000
67457SOL    HW1 4210  11.021   4.038   5.042
67457SOL    HW2 4211  10.875   4.002   5.050
67458SOL     OW 4212  13.058   6.158   4.049
67458SOL    HW1 4213  13.025   6.117   3.969
67458SOL    HW2 4214  13.129   6.101   4.077
67459SOL     OW 4215   9.961  12.410  11.202
67459SOL    HW1 4216   9.870  12.382  11.199
67459SOL    HW2 4217   9.983  12.432  11.112
67460SOL     OW 4218   3.805   0.971   1.070
67460SOL    HW1 4219   3.712   0.949   1.071
67460SOL    HW2 4220   3.822   1.012   1.155
67461SOL     OW 4221   9.113   5.905   0.394
67461SOL    HW1 4222   9.133   5.985   0.442
67461SOL    HW2 4223   9.098   5.839   0.461
67462SOL     OW 4224   9.263  10.675   4.365
67462SOL    HW1 4225   9.305  10.595   4.395
67462SOL    HW2 4226   9.302  10.692   4.280
67463SOL     OW 4227   5.733   9.596  13.195
67463SOL    HW1 4228   5.823   9.596  13.229
67463SOL    HW2 4229   5.735   9.658  13.123
67464SOL     OW 4230   9.876   9.223   3.846
67464SOL    HW1 4231   9.902   9.299   3.898
67464SOL    HW2 4232   9.780   9.228   3.843
67465SOL     OW 4233  10.407  12.841  14.269
67465SOL    HW1 4234  10.462  12.891  14.329
67465SOL    HW2 4235  10.408  12.752  14.303
67466SOL     OW 4236   3.840   3.489   9.684
67466SOL    HW1 4237   3.779   3.510   9.614
67466SOL    HW2 4238   3.785   3.473   9.760
67467SOL     OW 4239  14.045  14.568   4.684
67467SOL    HW1 4240  14.018  14.659   4.680
67467SOL    HW2 4241  14.008  14.535   4.766
67468SOL     OW 4242   4.643  11.555  13.029
67468SOL    HW1 4243   4.552  11.558  13.000
67468SOL    HW2 4244   4.670  11.464  13.019
67469SOL     OW 4245   1.844   6.540   8.161
67469SOL    HW1 4246   1.798   6.483   8.222
67469SOL    HW2 4247   1.908   6.483   8.119
67470SOL     OW 4248  14.123  11.065  13.946
67470SOL    HW1 4249  14.191  11.130  13.962
67470SOL    HW2 4250  14.041  11.114  13.950
67471SOL     OW 4251   7.130   9.876  12.958
67471SOL    HW1 4252   7.188   9.853  12.886
67471SOL    HW2 4253   7.052   9.822  12.944
67472SOL     OW 4254   3.646  12.037  12.413
67472SOL    HW1 4255   3.620  11.984  12.338
67472SOL    HW2 4256   3.667  12.123  12.376
67473SOL     OW 4257   0.485   7.919   9.243
67473SOL    HW1 4258   0.561   7.874   9.206
67473SOL    HW2 4259   0.511   7.942   9.332
67474SOL     OW 4260   4.587   7.704   9.776
67474SOL    HW1 4261   4.576   7.610   9.791
67474SOL    HW2 4262   4.672   7.712   9.733
67475SOL     OW 4263   1.936   8.190  12.471
67475SOL    HW1 4264   1.940   8.189  12.567
67475SOL    HW2 4265   1.854   8.146  12.450
67476SOL     OW 4266  14.755  12.032  12.372
67476SOL    HW1 4267  14.682  11.975  12.398
67476SOL    HW2 4268  14.716  12.093  12.309
67477SOL     OW 4269  12.023  10.013  10.778
67477SOL    HW1 4270  12.098  10.021  10.719
67477SOL    HW2 4271  11.966   9.948  10.735
67478SOL     OW 4272   9.096   1.338   2.265
67478SOL    HW1 4273   9.022   1.289   2.300
67478SOL    HW2 4274   9.126   1.393   2.337
67479SOL     OW 4275  13.963  11.073  11.880
67479SOL    HW1 4276  13.916  11.011  11.936
67479SOL    HW2 4277  13.963  11.155  11.930
67480SOL     OW 4278   7.980   7.737   8.967
67480SOL    HW1 4279   7.979   7.752   8.873
67480SOL    HW2 4280   8.067   7.766   8.995
67481SOL     OW 4281   3.237   3.712   8.464
67481SOL    HW1 4282   3.328   3.682   8.464
67481SOL    HW2 4283   3.211   3.709   8.372
67482SOL     OW 4284   0.332   0.407   4.179
67482SOL    HW1 4285   0.317   0.484   4.124
67482SOL    HW2 4286   0.424   0.414   4.206
67483SOL     OW 4287   7.806  12.083  12.973
67483SOL    HW1 4288   7.825  12.157  13.030
67483SOL    HW2 4289   7.863  12.096  12.897
67484SOL     OW 4290   9.390   7.924   4.983
67484SOL    HW1 4291   9.381   7.928   5.078
67484SOL    HW2 4292   9.428   7.838   4.966
67485SOL     OW 4293   5.536  10.758  10.901
67485SOL    HW1 4294   5.566  10.839  10.942
67485SOL    HW2 4295   5.448  10.777  10.871
67486SOL     OW 4296   5.521  11.654   7.952
67486SOL    HW1 4297   5.545  11.743   7.980
67486SOL    HW2 4298   5.430  11.663   7.923
67487SOL     OW 4299   7.822   3.912   2.613
67487SOL    HW1 4300   7.784   3.912   2.701
67487SOL    HW2 4301   7.809   3.822   2.581
67488SOL     OW 4302   5.745   1.470  13.495
67488SOL    HW1 4303   5.729   1.454  13.402
67488SOL    HW2 4304   5.820   1.531  13.496
67489SOL     OW 4305   1.883   7.594  11.106
67489SOL    HW1 4306   1.848   7.577  11.019
67489SOL    HW2 4307   1.940   7.519  11.125
67490SOL     OW 4308   6.620   0.337   5.984
67490SOL    HW1 4309   6.633   0.325   6.078
67490SOL    HW2 4310   6.535   0.381   5.977
67491SOL     OW 4311   2.513   1.876   5.469
67491SOL    HW1 4312   2.555   1.935   5.407
67491SOL    HW2 4313   2.572   1.877   5.545
67492SOL     OW 4314  11.450  12.270   2.661
67492SOL    HW1 4315  11.491  12.229   2.737
67492SOL    HW2 4316  11.376  12.319   2.696
67493SOL     OW 4317   3.773   0.143   4.177
67493SOL    HW1 4318   3.794   0.070   4.236
67493SOL    HW2 4319   3.695   0.114   4.130
67494SOL     OW 4320   7.012   9.309  13.153
67494SOL    HW1 4321   6.941   9.296  13.216
67494SOL    HW2 4322   6.995   9.246  13.083
67495SOL     OW 4323   1.740  10.258   2.895
67495SOL    HW1 4324   1.667  10.274   2.834
67495SOL    HW2 4325   1.810  10.224   2.839
67496SOL     OW 4326  10.146  13.681  10.923
67496SOL    HW1 4327  10.180  13.762  10.961
67496SOL    HW2 4328  10.139  13.621  10.997
67497SOL     OW 4329   2.322   3.949   4.101
67497SOL    HW1 4330   2.285   4.024   4.148
67497SOL    HW2 4331   2.414   3.949   4.125
67498SOL     OW 4332  11.183   1.928   5.358
67498SOL    HW1 4333  11.198   1.923   5.263
67498SOL    HW2 4334  11.184   1.837   5.387
67499SOL     OW 4335   7.022   8.672  13.728
67499SOL    HW1 4336   6.959   8.707  13.665
67499SOL    HW2 4337   7.081   8.617  13.676
67500SOL     OW 4338   6.803  11.573  12.853
67500SOL    HW1 4339   6.835  11.498  12.902
67500SOL    HW2 4340   6.874  11.594  12.792
67501SOL     OW 4341   2.441   1.110  13.107
67501SOL    HW1 4342   2.377   1.038  13.108
67501SOL    HW2 4343   2.519   1.073  13.147
67502SOL     OW 4344   0.233   8.075   8.334
67502SOL    HW1 4345   0.275   8.089   8.418
67502SOL    HW2 4346   0.272   7.994   8.300
67503SOL     OW 4347  11.935   2.899  13.575
67503SOL    HW1 4348  12.004   2.919  13.638
67503SOL    HW2 4349  11.942   2.968  13.509
67504SOL     OW 4350   3.483   5.395   6.513
67504SOL    HW1 4351   3.441   5.472   6.476
67504SOL    HW2 4352   3.559   5.380   6.457
67505SOL     OW 4353   3.344   7.552   2.167
67505SOL    HW1 4354   3.408   7.550   2.096
67505SOL    HW2 4355   3.396   7.569   2.246
67506SOL     OW 4356   3.911   7.050   2.918
67506SOL    HW1 4357   3.992   7.100   2.931
67506SOL    HW2 4358   3.926   7.002   2.836
67507SOL     OW 4359   1.934   3.328   6.856
67507SOL    HW1 4360   1.903   3.311   6.768
67507SOL    HW2 4361   1.957   3.421   6.856
67508SOL     OW 4362   6.561   4.665  13.896
67508SOL    HW1 4363   6.627   4.609  13.856
67508SOL    HW2 4364   6.520   4.711  13.822
67509SOL     OW 4365   1.356   7.860   5.481
67509SOL    HW1 4366   1.377   7.947   5.515
67509SOL    HW2 4367   1.358   7.870   5.386
67510SOL     OW 4368   8.915   8.352  12.901
67510SOL    HW1 4369   8.958   8.267  12.905
67510SOL    HW2 4370   8.987   8.415  12.896
67511SOL     OW 4371   4.330   9.113  10.045
67511SOL    HW1 4372   4.283   9.029  10.040
67511SOL    HW2 4373   4.418   9.090  10.074
67512SOL     OW 4374  11.227   3.112   1.941
67512SOL    HW1 4375  11.261   3.130   2.029
67512SOL    HW2 4376  11.264   3.027   1.918
67513SOL     OW 4377  13.680   4.891   6.942
67513SOL    HW1 4378  13.688   4.814   6.886
67513SOL    HW2 4379  13.717   4.864   7.025
67514SOL     OW 4380   1.637   1.264  13.240
67514SOL    HW1 4381   1.718   1.310  13.220
67514SOL    HW2 4382   1.568   1.318  13.203
67515SOL     OW 4383   8.045   0.767   2.605
67515SOL    HW1 4384   8.053   0.782   2.699
67515SOL    HW2 4385   8.134   0.767   2.572
67516SOL     OW 4386   6.949   3.139  11.338
67516SOL    HW1 4387   7.041   3.161  11.357
67516SOL    HW2 4388   6.947   3.127  11.243
67517SOL     OW 4389   8.874   0.711  14.535
67517SOL    HW1 4390   8.881   0.806  14.544
67517SOL    HW2 4391   8.850   0.680  14.622
67518SOL     OW 4392  12.340   4.385  10.332
67518SOL    HW1 4393  12.360   4.475  10.357
67518SOL    HW2 4394  12.376   4.376  10.243
67519SOL     OW 4395   5.894   2.227   9.296
67519SOL    HW1 4396   5.948   2.158   9.258
67519SOL    HW2 4397   5.842   2.183   9.363
67520SOL     OW 4398  10.453  10.187  11.202
67520SOL    HW1 4399  10.505  10.188  11.121
67520SOL    HW2 4400  10.409  10.272  11.203
67521SOL     OW 4401  14.490   3.276   9.481
67521SOL    HW1 4402  14.532   3.342   9.427
67521SOL    HW2 4403  14.551   3.260   9.552
67522SOL     OW 4404   2.696   1.648   8.589
67522SOL    HW1 4405   2.748   1.728   8.594
67522SOL    HW2 4406   2.614   1.674   8.549
67523SOL     OW 4407   7.720   3.304   6.962
67523SOL    HW1 4408   7.741   3.240   7.030
67523SOL    HW2 4409   7.723   3.255   6.880
67524SOL     OW 4410   3.806   5.110   5.794
67524SOL    HW1 4411   3.886   5.138   5.840
67524SOL    HW2 4412   3.790   5.021   5.824
67525SOL     OW 4413   1.335  13.323   2.226
67525SOL    HW1 4414   1.331  13.228   2.230
67525SOL    HW2 4415   1.370  13.343   2.139
67526SOL     OW 4416   9.377   0.359  14.708
67526SOL    HW1 4417   9.321   0.309  14.767
67526SOL    HW2 4418   9.398   0.439  14.756
67527SOL     OW 4419   0.663   6.467   3.983
67527SOL    HW1 4420   0.702   6.550   3.957
67527SOL    HW2 4421   0.578   6.465   3.939
67528SOL     OW 4422   2.418  12.246   2.211
67528SOL    HW1 4423   2.346  12.308   2.217
67528SOL    HW2 4424   2.384  12.165   2.248
67529SOL     OW 4425   2.361   9.001   3.095
67529SOL    HW1 4426   2.307   8.957   3.030
67529SOL    HW2 4427   2.418   9.059   3.044
67530SOL     OW 4428   2.676  12.408  14.438
67530SOL    HW1 4429   2.705  12.369  14.521
67530SOL    HW2 4430   2.656  12.333  14.383
67531SOL     OW 4431   5.189  12.069  13.896
67531SOL    HW1 4432   5.271  12.119  13.896
67531SOL    HW2 4433   5.198  12.009  13.970
67532SOL     OW 4434   6.661   6.891   2.563
67532SOL    HW1 4435   6.730   6.933   2.512
67532SOL    HW2 4436   6.707   6.846   2.635
67533SOL     OW 4437   5.719  10.652  11.565
67533SOL    HW1 4438   5.625  10.672  11.559
67533SOL    HW2 4439   5.752  10.710  11.633
67534SOL     OW 4440   3.259   5.138   5.160
67534SOL    HW1 4441   3.273   5.177   5.246
67534SOL    HW2 4442   3.242   5.212   5.102
67535SOL     OW 4443   7.092   7.569   8.528
67535SOL    HW1 4444   7.087   7.626   8.605
67535SOL    HW2 4445   7.024   7.503   8.543
67536SOL     OW 4446  11.439  10.681   7.298
67536SOL    HW1 4447  11.469  10.765   7.333
67536SOL    HW2 4448  11.393  10.639   7.371
67537SOL     OW 4449  14.479   8.556   4.936
67537SOL    HW1 4450  14.502   8.510   5.017
67537SOL    HW2 4451  14.505   8.497   4.866
67538SOL     OW 4452   7.280   2.063   6.205
67538SOL    HW1 4453   7.303   2.154   6.186
67538SOL    HW2 4454   7.327   2.012   6.139
67539SOL     OW 4455   2.815  12.770  10.780
67539SOL    HW1 4456   2.840  12.862  10.790
67539SOL    HW2 4457   2.719  12.770  10.785
67540SOL     OW 4458  13.976   1.033   3.660
67540SOL    HW1 4459  14.045   1.008   3.598
67540SOL    HW2 4460  13.918   0.957   3.663
67541SOL     OW 4461   2.220   1.867  11.805
67541SOL    HW1 4462   2.259   1.800  11.861
67541SOL    HW2 4463   2.225   1.830  11.717
67542SOL     OW 4464  12.625  11.875  12.445
67542SOL    HW1 4465  12.664  11.802  12.396
67542SOL    HW2 4466  12.589  11.834  12.524
67543SOL     OW 4467   9.907  11.855   0.121
67543SOL    HW1 4468   9.877  11.886   0.206
67543SOL    HW2 4469   9.897  11.931   0.063
67544SOL     OW 4470   5.170  13.547   2.976
67544SOL    HW1 4471   5.125  13.626   2.944
67544SOL    HW2 4472   5.261  13.560   2.951
67545SOL     OW 4473   2.748   3.451   0.142
67545SOL    HW1 4474   2.685   3.405   0.198
67545SOL    HW2 4475   2.818   3.478   0.202
67546SOL     OW 4476  13.038   5.156   7.066
67546SOL    HW1 4477  13.018   5.161   6.973
67546SOL    HW2 4478  12.961   5.115   7.105
67547SOL     OW 4479   0.567   8.888  13.775
67547SOL    HW1 4480   0.489   8.943  13.776
67547SOL    HW2 4481   0.636   8.946  13.742
67548SOL     OW 4482   6.441   7.046  14.336
67548SOL    HW1 4483   6.358   7.060  14.290
67548SOL    HW2 4484   6.453   6.951  14.336
67549SOL     OW 4485  13.896  14.773  13.473
67549SOL    HW1 4486  13.868  14.783  13.563
67549SOL    HW2 4487  13.855  14.847  13.426
67550SOL     OW 4488  10.509  13.463   8.140
67550SOL    HW1 4489  10.537  13.524   8.208
67550SOL    HW2 4490  10.460  13.517   8.077
67551SOL     OW 4491   0.420   8.814   8.663
67551SOL    HW1 4492   0.428   8.894   8.611
67551SOL    HW2 4493   0.326   8.795   8.665
67552SOL     OW 4494  13.751  11.249  13.043
67552SOL    HW1 4495  13.659  11.223  13.038
67552SOL    HW2 4496  13.800  11.169  13.028
67553SOL     OW 4497   4.928  13.757   8.269
67553SOL    HW1 4498   5.003  13.785   8.217
67553SOL    HW2 4499   4.966  13.704   8.340
67554SOL     OW 4500  12.066   9.553  13.146
67554SOL    HW1 4501  12.111   9.517  13.070
67554SOL    HW2 4502  11.990   9.495  13.158
67555SOL     OW 4503  13.770   5.687   8.150
67555SOL    HW1 4504  13.829   5.614   8.167
67555SOL    HW2 4505  13.823   5.765   8.166
67556SOL     OW 4506   7.759  13.460  12.535
67556SOL    HW1 4507   7.818  13.426  12.467
67556SOL    HW2 4508   7.726  13.542  12.498
67557SOL     OW 4509   5.594   0.553   9.364
67557SOL    HW1 4510   5.632   0.545   9.276
67557SOL    HW2 4511   5.507   0.590   9.349
67558SOL     OW 4512  12.331   7.161   9.386
67558SOL    HW1 4513  12.401   7.185   9.325
67558SOL    HW2 4514  12.256   7.139   9.331
67559SOL     OW 4515   5.488  12.020  14.434
67559SOL    HW1 4516   5.533  11.945  14.472
67559SOL    HW2 4517   5.473  12.079  14.507
67560SOL     OW 4518   0.726   2.269   5.043
67560SOL    HW1 4519   0.663   2.205   5.011
67560SOL    HW2 4520   0.673   2.346   5.065
67561SOL     OW 4521   7.192   7.427   4.198
67561SOL    HW1 4522   7.200   7.446   4.292
67561SOL    HW2 4523   7.110   7.379   4.190
67562SOL     OW 4524   6.662   5.697   7.111
67562SOL    HW1 4525   6.620   5.651   7.184
67562SOL    HW2 4526   6.593   5.706   7.046
67563SOL     OW 4527   5.001  12.787   6.605
67563SOL    HW1 4528   5.013  12.882   6.611
67563SOL    HW2 4529   4.980  12.760   6.695
67564SOL     OW 4530  11.696   6.895  11.007
67564SOL    HW1 4531  11.727   6.953  11.076
67564SOL    HW2 4532  11.635   6.836  11.051
67565SOL     OW 4533   4.008   7.880   6.241
67565SOL    HW1 4534   4.036   7.831   6.163
67565SOL    HW2 4535   3.925   7.840   6.266
67566SOL     OW 4536   9.302  11.513   2.331
67566SOL    HW1 4537   9.217  11.475   2.356
67566SOL    HW2 4538   9.350  11.440   2.290
67567SOL     OW 4539  10.136  13.613   3.698
67567SOL    HW1 4540  10.208  13.552   3.686
67567SOL    HW2 4541  10.071  13.586   3.632
67568SOL     OW 4542  14.290   7.068   3.979
67568SOL    HW1 4543  14.350   7.138   4.003
67568SOL    HW2 4544  14.343   7.007   3.927
67569SOL     OW 4545   1.650   3.965   9.552
67569SOL    HW1 4546   1.659   3.930   9.641
67569SOL    HW2 4547   1.645   3.888   9.496
67570SOL     OW 4548   3.833  11.100   6.817
67570SOL    HW1 4549   3.890  11.032   6.853
67570SOL    HW2 4550   3.815  11.072   6.728
67571SOL     OW 4551   3.068   5.341   9.826
67571SOL    HW1 4552   3.111   5.318   9.908
67571SOL    HW2 4553   2.979   5.308   9.834
67572SOL     OW 4554  14.860   9.475   8.715
67572SOL    HW1 4555   0.066   9.513   8.685
67572SOL    HW2 4556  14.832   9.533   8.786
67573SOL     OW 4557  10.303   2.728  12.266
67573SOL    HW1 4558  10.273   2.695  12.181
67573SOL    HW2 4559  10.330   2.818  12.248
67574SOL     OW 4560   8.378   2.615   9.184
67574SOL    HW1 4561   8.410   2.691   9.233
67574SOL    HW2 4562   8.337   2.559   9.250
67575SOL     OW 4563   6.646   5.894   7.877
67575SOL    HW1 4564   6.602   5.868   7.958
67575SOL    HW2 4565   6.576   5.894   7.811
67576SOL     OW 4566  11.591  12.443  13.750
67576SOL    HW1 4567  11.636  12.438  13.665
67576SOL    HW2 4568  11.655  12.485  13.807
67577SOL     OW 4569   0.668   5.413   0.802
67577SOL    HW1 4570   0.710   5.375   0.725
67577SOL    HW2 4571   0.718   5.492   0.821
67578SOL     OW 4572  11.138   1.055  12.745
67578SOL    HW1 4573  11.165   0.978  12.695
67578SOL    HW2 4574  11.121   1.122  12.678
67579SOL     OW 4575  14.875  14.393   7.531
67579SOL    HW1 4576  14.839  14.478   7.557
67579SOL    HW2 4577   0.087  14.413   7.499
67580SOL     OW 4578  13.245   9.133   0.565
67580SOL    HW1 4579  13.210   9.105   0.481
67580SOL    HW2 4580  13.338   9.149   0.548
67581SOL     OW 4581  10.837  14.594   0.784
67581SOL    HW1 4582  10.810  14.685   0.792
67581SOL    HW2 4583  10.859  14.567   0.873
67582SOL     OW 4584  14.248   8.818   0.046
67582SOL    HW1 4585  14.332   8.782   0.075
67582SOL    HW2 4586  14.213   8.752  14.863
67583SOL     OW 4587   2.756  10.769   7.916
67583SOL    HW1 4588   2.711  10.685   7.914
67583SOL    HW2 4589   2.794  10.777   7.828
67584SOL     OW 4590   2.421   9.678   9.751
67584SOL    HW1 4591   2.480   9.618   9.797
67584SOL    HW2 4592   2.439   9.763   9.790
67585SOL     OW 4593   1.292  14.282  12.498
67585SOL    HW1 4594   1.361  14.338  12.534
67585SOL    HW2 4595   1.324  14.193  12.511
67586SOL     OW 4596   6.100  11.353   6.901
67586SOL    HW1 4597   6.165  11.288   6.929
67586SOL    HW2 4598   6.050  11.308   6.832
67587SOL     OW 4599   2.094  11.032  12.885
67587SOL    HW1 4600   2.108  10.944  12.850
67587SOL    HW2 4601   2.009  11.058  12.848
67588SOL     OW 4602   4.553  13.334   8.852
67588SOL    HW1 4603   4.586  13.250   8.822
67588SOL    HW2 4604   4.500  13.367   8.779
67589SOL     OW 4605  10.336   6.281  11.292
67589SOL    HW1 4606  10.357   6.209  11.234
67589SOL    HW2 4607  10.240   6.285  11.291
67590SOL     OW 4608   4.766  13.386   9.809
67590SOL    HW1 4609   4.849  13.339   9.816
67590SOL    HW2 4610   4.787  13.462   9.754
67591SOL     OW 4611   9.003   0.056   9.405
67591SOL    HW1 4612   8.974   0.145   9.421
67591SOL    HW2 4613   8.948   0.002   9.463
67592SOL     OW 4614   7.994   1.975   7.782
67592SOL    HW1 4615   8.090   1.974   7.782
67592SOL    HW2 4616   7.970   1.888   7.814
67593SOL     OW 4617  14.861  10.567   0.074
67593SOL    HW1 4618   0.021  10.620   0.145
67593SOL    HW2 4619   0.052  10.502   0.055
67594SOL     OW 4620   7.903   3.139   0.142
67594SOL    HW1 4621   7.825   3.168   0.095
67594SOL    HW2 4622   7.947   3.079   0.082
67595SOL     OW 4623   9.678   9.332  14.081
67595SOL    HW1 4624   9.735   9.405  14.054
67595SOL    HW2 4625   9.605   9.336  14.020
67596SOL     OW 4626   4.499   3.318  11.169
67596SOL    HW1 4627   4.466   3.407  11.176
67596SOL    HW2 4628   4.494   3.298  11.076
67597SOL     OW 4629   5.956   1.890   0.490
67597SOL    HW1 4630   5.864   1.907   0.512
67597SOL    HW2 4631   5.960   1.795   0.476
67598SOL     OW 4632   4.353   2.576   9.333
67598SOL    HW1 4633   4.391   2.490   9.349
67598SOL    HW2 4634   4.305   2.597   9.414
67599SOL     OW 4635   4.350  11.734   0.326
67599SOL    HW1 4636   4.336  11.737   0.231
67599SOL    HW2 4637   4.440  11.766   0.337
67600SOL     OW 4638   5.857   9.905  14.343
67600SOL    HW1 4639   5.833   9.971  14.408
67600SOL    HW2 4640   5.953   9.907  14.343
67601SOL     OW 4641  12.908   2.677  11.932
67601SOL    HW1 4642  12.992   2.720  11.921
67601SOL    HW2 4643  12.843   2.746  11.918
67602SOL     OW 4644   1.965  13.479   4.759
67602SOL    HW1 4645   2.031  13.495   4.826
67602SOL    HW2 4646   1.941  13.387   4.771
67603SOL     OW 4647   0.664   7.247   0.990
67603SOL    HW1 4648   0.721   7.205   1.054
67603SOL    HW2 4649   0.682   7.201   0.908
67604SOL     OW 4650  13.515   0.794   8.335
67604SOL    HW1 4651  13.594   0.764   8.380
67604SOL    HW2 4652  13.491   0.876   8.379
67605SOL     OW 4653   7.607   3.014   2.369
67605SOL    HW1 4654   7.553   2.961   2.428
67605SOL    HW2 4655   7.587   2.981   2.282
67606SOL     OW 4656   0.569  10.237  10.949
67606SOL    HW1 4657   0.608  10.167  10.896
67606SOL    HW2 4658   0.639  10.301  10.960
67607SOL     OW 4659   3.693   8.084   6.059
67607SOL    HW1 4660   3.602   8.054   6.052
67607SOL    HW2 4661   3.745   8.010   6.029
67608SOL     OW 4662  12.708  14.380   0.439
67608SOL    HW1 4663  12.703  14.335   0.523
67608SOL    HW2 4664  12.794  14.422   0.439
67609SOL     OW 4665  10.425  10.355  10.174
67609SOL    HW1 4666  10.403  10.272  10.132
67609SOL    HW2 4667  10.466  10.407  10.105
67610SOL     OW 4668   7.736   5.731   3.164
67610SOL    HW1 4669   7.827   5.711   3.183
67610SOL    HW2 4670   7.739   5.810   3.111
67611SOL     OW 4671  14.118  13.379   4.934
67611SOL    HW1 4672  14.188  13.402   4.995
67611SOL    HW2 4673  14.160  13.376   4.848
67612SOL     OW 4674   5.686   1.741   9.242
67612SOL    HW1 4675   5.593   1.762   9.239
67612SOL    HW2 4676   5.701   1.681   9.169
67613SOL     OW 4677  10.075   5.098   2.367
67613SOL    HW1 4678  10.045   5.188   2.363
67613SOL    HW2 4679  10.025   5.059   2.439
67614SOL     OW 4680   6.637   8.058   3.779
67614SOL    HW1 4681   6.715   8.036   3.728
67614SOL    HW2 4682   6.670   8.084   3.865
67615SOL     OW 4683   3.446   0.964  14.384
67615SOL    HW1 4684   3.506   0.905  14.429
67615SOL    HW2 4685   3.377   0.907  14.350
67616SOL     OW 4686   8.588   1.926   9.534
67616SOL    HW1 4687   8.563   1.833   9.539
67616SOL    HW2 4688   8.673   1.930   9.576
67617SOL     OW 4689  10.539   5.277  10.325
67617SOL    HW1 4690  10.569   5.240  10.408
67617SOL    HW2 4691  10.608   5.337  10.299
67618SOL     OW 4692  12.111  14.339   3.669
67618SOL    HW1 4693  12.195  14.339   3.624
67618SOL    HW2 4694  12.097  14.248   3.696
67619SOL     OW 4695   8.890   0.634   3.309
67619SOL    HW1 4696   8.907   0.553   3.355
67619SOL    HW2 4697   8.809   0.668   3.348
67620SOL     OW 4698  13.480   3.808   8.038
67620SOL    HW1 4699  13.460   3.815   8.131
67620SOL    HW2 4700  13.547   3.874   8.023
67621SOL     OW 4701   3.608   3.084   0.192
67621SOL    HW1 4702   3.703   3.081   0.203
67621SOL    HW2 4703   3.582   3.167   0.231
67622SOL     OW 4704   2.299  10.536   1.501
67622SOL    HW1 4705   2.215  10.583   1.498
67622SOL    HW2 4706   2.346  10.576   1.574
67623SOL     OW 4707   7.003   5.780  11.579
67623SOL    HW1 4708   6.954   5.769  11.498
67623SOL    HW2 4709   6.943   5.825  11.638
67624SOL     OW 4710   5.081   5.795   2.879
67624SOL    HW1 4711   5.162   5.751   2.905
67624SOL    HW2 4712   5.097   5.888   2.895
67625SOL     OW 4713  11.919  11.552   5.389
67625SOL    HW1 4714  11.887  11.570   5.478
67625SOL    HW2 4715  11.858  11.487   5.355
67626SOL     OW 4716   6.204   3.427   5.363
67626SOL    HW1 4717   6.208   3.439   5.268
67626SOL    HW2 4718   6.117   3.458   5.387
67627SOL     OW 4719  13.954  10.580   2.244
67627SOL    HW1 4720  13.909  10.519   2.187
67627SOL    HW2 4721  14.001  10.639   2.185
67628SOL     OW 4722   6.216   2.145   4.087
67628SOL    HW1 4723   6.238   2.221   4.033
67628SOL    HW2 4724   6.234   2.069   4.032
67629SOL     OW 4725   1.391   9.483   2.110
67629SOL    HW1 4726   1.384   9.394   2.144
67629SOL    HW2 4727   1.435   9.473   2.026
67630SOL     OW 4728   9.610  14.604  12.544
67630SOL    HW1 4729   9.667  14.567  12.611
67630SOL    HW2 4730   9.588  14.530  12.488
67631SOL     OW 4731   6.433   5.852   5.364
67631SOL    HW1 4732   6.516   5.885   5.399
67631SOL    HW2 4733   6.458   5.773   5.315
67632SOL     OW 4734   4.562   5.286  10.457
67632SOL    HW1 4735   4.599   5.199  10.473
67632SOL    HW2 4736   4.629   5.332  10.407
67633SOL     OW 4737  11.536   1.637  12.559
67633SOL    HW1 4738  11.604   1.578  12.526
67633SOL    HW2 4739  11.579   1.723  12.561
67634SOL     OW 4740   5.901  13.262  10.528
67634SOL    HW1 4741   5.874  13.175  10.499
67634SOL    HW2 4742   5.837  13.285  10.595
67635SOL     OW 4743   0.220  14.311   0.329
67635SOL    HW1 4744   0.183  14.390   0.292
67635SOL    HW2 4745   0.262  14.339   0.410
67636SOL     OW 4746   6.902   4.585  12.817
67636SOL    HW1 4747   6.811   4.602  12.794
67636SOL    HW2 4748   6.948   4.666  12.794
67637SOL     OW 4749   4.105  14.611  12.358
67637SOL    HW1 4750   4.040  14.682  12.355
67637SOL    HW2 4751   4.153  14.627  12.440
67638SOL     OW 4752   2.151   7.776  14.019
67638SOL    HW1 4753   2.075   7.796  14.073
67638SOL    HW2 4754   2.192   7.861  14.002
67639SOL     OW 4755   9.367   2.948   6.180
67639SOL    HW1 4756   9.297   3.012   6.174
67639SOL    HW2 4757   9.440   2.995   6.220
67640SOL     OW 4758   9.451   3.383  12.958
67640SOL    HW1 4759   9.513   3.418  12.893
67640SOL    HW2 4760   9.477   3.424  13.040
67641SOL     OW 4761   3.367   9.210   6.536
67641SOL    HW1 4762   3.316   9.129   6.548
67641SOL    HW2 4763   3.428   9.189   6.466
67642SOL     OW 4764   3.257   1.097  10.183
67642SOL    HW1 4765   3.221   1.184  10.201
67642SOL    HW2 4766   3.349   1.113  10.163
67643SOL     OW 4767   9.575   1.991   7.530
67643SOL    HW1 4768   9.559   1.900   7.556
67643SOL    HW2 4769   9.669   2.002   7.538
67644SOL     OW 4770  10.420   1.375   5.191
67644SOL    HW1 4771  10.352   1.325   5.147
67644SOL    HW2 4772  10.401   1.365   5.285
67645SOL     OW 4773   2.358  12.401   9.554
67645SOL    HW1 4774   2.274  12.402   9.508
67645SOL    HW2 4775   2.336  12.378   9.644
67646SOL     OW 4776   5.658   3.173   5.521
67646SOL    HW1 4777   5.584   3.213   5.567
67646SOL    HW2 4778   5.689   3.105   5.580
67647SOL     OW 4779   1.200   6.166  10.678
67647SOL    HW1 4780   1.199   6.189  10.771
67647SOL    HW2 4781   1.109   6.171  10.651
67648SOL     OW 4782   2.705   4.008   7.760
67648SOL    HW1 4783   2.724   4.025   7.853
67648SOL    HW2 4784   2.623   4.054   7.744
67649SOL     OW 4785   4.895  13.606   9.633
67649SOL    HW1 4786   4.849  13.606   9.550
67649SOL    HW2 4787   4.857  13.680   9.681
67650SOL     OW 4788   0.887   4.256   9.062
67650SOL    HW1 4789   0.881   4.272   9.156
67650SOL    HW2 4790   0.800   4.276   9.028
67651SOL     OW 4791  10.696  10.442   7.413
67651SOL    HW1 4792  10.658  10.491   7.339
67651SOL    HW2 4793  10.631  10.375   7.434
67652SOL     OW 4794   8.492  14.683  10.441
67652SOL    HW1 4795   8.416  14.636  10.477
67652SOL    HW2 4796   8.482  14.674  10.346
67653SOL     OW 4797   8.592   4.212   7.473
67653SOL    HW1 4798   8.656   4.142   7.481
67653SOL    HW2 4799   8.522   4.188   7.533
67654SOL     OW 4800   1.407  12.131  14.282
67654SOL    HW1 4801   1.349  12.189  14.233
67654SOL    HW2 4802   1.384  12.146  14.374
67655SOL     OW 4803   9.610   5.108   3.685
67655SOL    HW1 4804   9.672   5.181   3.689
67655SOL    HW2 4805   9.628   5.058   3.764
67656SOL     OW 4806  11.263   8.995   3.887
67656SOL    HW1 4807  11.329   8.930   3.910
67656SOL    HW2 4808  11.313   9.069   3.852
67657SOL     OW 4809  14.192   9.596   6.587
67657SOL    HW1 4810  14.214   9.627   6.499
67657SOL    HW2 4811  14.273   9.608   6.637
67658SOL     OW 4812  14.135   3.119  13.633
67658SOL    HW1 4813  14.157   3.209  13.656
67658SOL    HW2 4814  14.184   3.103  13.552
67659SOL     OW 4815   5.294  14.015   8.256
67659SOL    HW1 4816   5.268  13.960   8.330
67659SOL    HW2 4817   5.260  14.102   8.278
67660SOL     OW 4818   9.208  14.515   4.292
67660SOL    HW1 4819   9.145  14.587   4.282
67660SOL    HW2 4820   9.218  14.505   4.387
67661SOL     OW 4821   3.033   3.132   6.160
67661SOL    HW1 4822   2.979   3.195   6.207
67661SOL    HW2 4823   3.032   3.162   6.069
67662SOL     OW 4824   9.449   8.294   5.455
67662SOL    HW1 4825   9.418   8.372   5.409
67662SOL    HW2 4826   9.524   8.265   5.404
67663SOL     OW 4827   3.355   7.840  12.692
67663SOL    HW1 4828   3.433   7.784  12.687
67663SOL    HW2 4829   3.290   7.786  12.736
67664SOL     OW 4830  10.138   4.126  13.587
67664SOL    HW1 4831  10.105   4.212  13.612
67664SOL    HW2 4832  10.180   4.140  13.502
67665SOL     OW 4833  11.863   0.014   2.840
67665SOL    HW1 4834  11.889  14.859   2.926
67665SOL    HW2 4835  11.819  14.816   2.799
67666SOL     OW 4836  10.715  12.272   0.749
67666SOL    HW1 4837  10.804  12.249   0.724
67666SOL    HW2 4838  10.664  12.262   0.668
67667SOL     OW 4839   8.387   3.352  13.767
67667SOL    HW1 4840   8.408   3.445  13.777
67667SOL    HW2 4841   8.291   3.350  13.761
67668SOL     OW 4842  10.382   9.041   7.008
67668SOL    HW1 4843  10.382   9.083   7.094
67668SOL    HW2 4844  10.309   9.081   6.962
67669SOL     OW 4845   1.065   3.361  12.818
67669SOL    HW1 4846   1.011   3.378  12.741
67669SOL    HW2 4847   1.147   3.327  12.782
67670SOL     OW 4848   7.238  12.174   6.387
67670SOL    HW1 4849   7.291  12.130   6.454
67670SOL    HW2 4850   7.295  12.177   6.310
67671SOL     OW 4851   5.301   4.649   9.423
67671SOL    HW1 4852   5.376   4.591   9.432
67671SOL    HW2 4853   5.329   4.731   9.464
67672SOL     OW 4854   5.171   4.078  12.505
67672SOL    HW1 4855   5.121   4.044  12.579
67672SOL    HW2 4856   5.258   4.039  12.514
67673SOL     OW 4857   3.781   7.533  13.342
67673SOL    HW1 4858   3.742   7.477  13.408
67673SOL    HW2 4859   3.825   7.473  13.281
67674SOL     OW 4860   7.586   8.888   8.089
67674SOL    HW1 4861   7.572   8.800   8.123
67674SOL    HW2 4862   7.514   8.940   8.124
67675SOL     OW 4863   6.807  12.898  14.231
67675SOL    HW1 4864   6.821  12.905  14.136
67675SOL    HW2 4865   6.733  12.957  14.248
67676SOL     OW 4866   8.627  13.547  14.654
67676SOL    HW1 4867   8.630  13.494  14.574
67676SOL    HW2 4868   8.698  13.610  14.642
67677SOL     OW 4869   1.938   6.930  14.131
67677SOL    HW1 4870   1.880   6.857  14.153
67677SOL    HW2 4871   1.922   6.995  14.200
67678SOL     OW 4872  12.321   6.638   8.134
67678SOL    HW1 4873  12.408   6.612   8.104
67678SOL    HW2 4874  12.270   6.557   8.134
67679SOL     OW 4875   0.652  10.336   8.387
67679SOL    HW1 4876   0.654  10.409   8.326
67679SOL    HW2 4877   0.565  10.297   8.374
67680SOL     OW 4878   7.876   2.411  12.018
67680SOL    HW1 4879   7.971   2.400  12.017
67680SOL    HW2 4880   7.847   2.361  12.095
67681SOL     OW 4881   7.853  12.755   6.641
67681SOL    HW1 4882   7.760  12.749   6.659
67681SOL    HW2 4883   7.864  12.840   6.599
67682SOL     OW 4884   8.076  14.104   9.768
67682SOL    HW1 4885   8.165  14.073   9.783
67682SOL    HW2 4886   8.073  14.125   9.675
67683SOL     OW 4887   6.588  13.747  12.040
67683SOL    HW1 4888   6.523  13.795  12.091
67683SOL    HW2 4889   6.566  13.655  12.052
67684SOL     OW 4890   4.171   1.787   7.876
67684SOL    HW1 4891   4.154   1.711   7.821
67684SOL    HW2 4892   4.120   1.771   7.956
67685SOL     OW 4893   3.547  11.424   6.886
67685SOL    HW1 4894   3.640  11.404   6.873
67685SOL    HW2 4895   3.513  11.441   6.798
67686SOL     OW 4896   4.084  12.807   2.987
67686SOL    HW1 4897   4.091  12.891   2.940
67686SOL    HW2 4898   4.105  12.741   2.921
67687SOL     OW 4899   0.411   4.675   0.677
67687SOL    HW1 4900   0.393   4.587   0.710
67687SOL    HW2 4901   0.369   4.677   0.590
67688SOL     OW 4902  13.970  13.168   0.969
67688SOL    HW1 4903  14.037  13.188   0.903
67688SOL    HW2 4904  13.917  13.247   0.972
67689SOL     OW 4905   9.521   0.347   3.977
67689SOL    HW1 4906   9.471   0.373   3.900
67689SOL    HW2 4907   9.543   0.255   3.962
67690SOL     OW 4908   0.462   7.137   3.490
67690SOL    HW1 4909   0.406   7.199   3.443
67690SOL    HW2 4910   0.403   7.092   3.549
67691SOL     OW 4911   7.954   9.401   7.635
67691SOL    HW1 4912   7.938   9.410   7.540
67691SOL    HW2 4913   8.017   9.329   7.642
67692SOL     OW 4914   7.597  12.525   7.722
67692SOL    HW1 4915   7.649  12.463   7.670
67692SOL    HW2 4916   7.508  12.516   7.688
67693SOL     OW 4917  14.763  14.099   1.458
67693SOL    HW1 4918  14.753  14.173   1.518
67693SOL    HW2 4919  14.726  14.025   1.506
67694SOL     OW 4920   4.195   8.442   4.392
67694SOL    HW1 4921   4.217   8.534   4.376
67694SOL    HW2 4922   4.109   8.445   4.434
67695SOL     OW 4923   8.484   4.485   1.653
67695SOL    HW1 4924   8.555   4.427   1.680
67695SOL    HW2 4925   8.507   4.512   1.564
67696SOL     OW 4926   3.465   9.560   7.814
67696SOL    HW1 4927   3.482   9.468   7.830
67696SOL    HW2 4928   3.486   9.573   7.722
67697SOL     OW 4929   9.795   9.977   4.745
67697SOL    HW1 4930   9.778   9.989   4.838
67697SOL    HW2 4931   9.763   9.889   4.725
67698SOL     OW 4932   3.062  12.617  12.818
67698SOL    HW1 4933   3.090  12.700  12.858
67698SOL    HW2 4934   3.021  12.643  12.735
67699SOL     OW 4935   9.868   0.535   8.438
67699SOL    HW1 4936   9.784   0.495   8.417
67699SOL    HW2 4937   9.861   0.558   8.531
67700SOL     OW 4938   0.965  11.353  12.206
67700SOL    HW1 4939   0.914  11.327  12.130
67700SOL    HW2 4940   1.056  11.344  12.178
67701SOL     OW 4941  11.539   7.861  13.908
67701SOL    HW1 4942  11.502   7.949  13.918
67701SOL    HW2 4943  11.469   7.810  13.869
67702SOL     OW 4944   3.676   7.818   1.581
67702SOL    HW1 4945   3.659   7.771   1.499
67702SOL    HW2 4946   3.629   7.901   1.571
67703SOL     OW 4947   4.154   5.943  11.916
67703SOL    HW1 4948   4.082   5.981  11.866
67703SOL    HW2 4949   4.205   6.019  11.945
67704SOL     OW 4950   5.883   3.670   0.894
67704SOL    HW1 4951   5.846   3.626   0.818
67704SOL    HW2 4952   5.813   3.727   0.925
67705SOL     OW 4953  12.848   8.863   3.109
67705SOL    HW1 4954  12.767   8.816   3.128
67705SOL    HW2 4955  12.833   8.902   3.022
67706SOL     OW 4956  14.476  12.757  10.402
67706SOL    HW1 4957  14.483  12.843  10.360
67706SOL    HW2 4958  14.421  12.773  10.479
67707SOL     OW 4959   5.990   2.560  11.672
67707SOL    HW1 4960   5.967   2.611  11.595
67707SOL    HW2 4961   6.007   2.626  11.740
67708SOL     OW 4962   4.393   8.586   0.073
67708SOL    HW1 4963   4.451   8.653   0.038
67708SOL    HW2 4964   4.310   8.600   0.029
67709SOL     OW 4965   2.902   6.132  13.831
67709SOL    HW1 4966   2.912   6.206  13.891
67709SOL    HW2 4967   2.891   6.172  13.745
67710SOL     OW 4968   8.403   3.632   8.952
67710SOL    HW1 4969   8.380   3.717   8.914
67710SOL    HW2 4970   8.493   3.644   8.983
67711SOL     OW 4971  13.411   4.054   8.992
67711SOL    HW1 4972  13.329   4.005   8.982
67711SOL    HW2 4973  13.480   3.991   8.970
67712SOL     OW 4974   8.236   2.651  10.942
67712SOL    HW1 4975   8.169   2.718  10.949
67712SOL    HW2 4976   8.189   2.573  10.910
67713SOL     OW 4977  13.944   8.882   9.484
67713SOL    HW1 4978  13.949   8.863   9.390
67713SOL    HW2 4979  14.028   8.923   9.504
67714SOL     OW 4980   1.985   2.632  11.089
67714SOL    HW1 4981   2.024   2.552  11.055
67714SOL    HW2 4982   1.995   2.696  11.018
67715SOL     OW 4983   7.807   8.793   8.901
67715SOL    HW1 4984   7.862   8.869   8.919
67715SOL    HW2 4985   7.850   8.748   8.828
67716SOL     OW 4986   3.586   5.890   4.964
67716SOL    HW1 4987   3.582   5.865   5.057
67716SOL    HW2 4988   3.506   5.855   4.926
67717SOL     OW 4989  12.154   3.304   6.948
67717SOL    HW1 4990  12.204   3.271   7.023
67717SOL    HW2 4991  12.220   3.337   6.887
67718SOL     OW 4992  12.053   0.267   9.156
67718SOL    HW1 4993  12.130   0.254   9.100
67718SOL    HW2 4994  12.020   0.354   9.132
67719SOL     OW 4995   7.742   6.377  14.305
67719SOL    HW1 4996   7.825   6.382  14.259
67719SOL    HW2 4997   7.735   6.285  14.332
67720SOL     OW 4998   6.571   0.300  10.883
67720SOL    HW1 4999   6.637   0.370  10.882
67720SOL    HW2 5000   6.495   0.339  10.839
67721SOL     OW 5001  13.462   0.041   1.878
67721SOL    HW1 5002  13.433  14.871   1.956
67721SOL    HW2 5003  13.544   0.083   1.904
67722SOL     OW 5004   3.429  12.935   8.813
67722SOL    HW1 5005   3.518  12.907   8.835
67722SOL    HW2 5006   3.421  13.022   8.851
67723SOL     OW 5007  12.472  14.532   9.735
67723SOL    HW1 5008  12.415  14.524   9.659
67723SOL    HW2 5009  12.533  14.602   9.713
67724SOL     OW 5010   9.168  11.754   4.416
67724SOL    HW1 5011   9.086  11.777   4.460
67724SOL    HW2 5012   9.234  11.809   4.458
67725SOL     OW 5013  10.307   5.265  10.204
67725SOL    HW1 5014  10.330   5.188  10.151
67725SOL    HW2 5015  10.386   5.282  10.255
67726SOL     OW 5016   4.739   5.103   6.717
67726SOL    HW1 5017   4.715   5.184   6.763
67726SOL    HW2 5018   4.667   5.043   6.735
67727SOL     OW 5019   5.931   6.586   0.708
67727SOL    HW1 5020   5.875   6.583   0.630
67727SOL    HW2 5021   5.893   6.521   0.766
67728SOL     OW 5022   1.677  11.621   0.429
67728SOL    HW1 5023   1.700  11.586   0.343
67728SOL    HW2 5024   1.742  11.585   0.488
67729SOL     OW 5025   5.514   0.367   8.207
67729SOL    HW1 5026   5.508   0.407   8.121
67729SOL    HW2 5027   5.606   0.380   8.233
67730SOL     OW 5028   3.790   4.735  14.114
67730SOL    HW1 5029   3.876   4.717  14.076
67730SOL    HW2 5030   3.807   4.747  14.207
67731SOL     OW 5031  14.290   3.046   3.810
67731SOL    HW1 5032  14.228   3.049   3.738
67731SOL    HW2 5033  14.253   3.104   3.876
67732SOL     OW 5034  11.130  10.829   2.922
67732SOL    HW1 5035  11.074  10.900   2.954
67732SOL    HW2 5036  11.219  10.857   2.943
67733SOL     OW 5037  12.905   6.520   8.103
67733SOL    HW1 5038  12.848   6.549   8.175
67733SOL    HW2 5039  12.876   6.571   8.028
67734SOL     OW 5040   9.362   0.541   5.765
67734SOL    HW1 5041   9.407   0.609   5.815
67734SOL    HW2 5042   9.312   0.589   5.699
67735SOL     OW 5043   3.070  10.817  14.674
67735SOL    HW1 5044   3.075  10.812  14.769
67735SOL    HW2 5045   3.145  10.871  14.649
67736SOL     OW 5046  14.752  11.213  12.689
67736SOL    HW1 5047  14.661  11.209  12.720
67736SOL    HW2 5048  14.789  11.288  12.734
67737SOL     OW 5049  12.517   1.237  13.391
67737SOL    HW1 5050  12.431   1.243  13.351
67737SOL    HW2 5051  12.509   1.170  13.458
67738SOL     OW 5052   7.908  10.923  13.803
67738SOL    HW1 5053   7.911  10.920  13.899
67738SOL    HW2 5054   7.827  10.971  13.784
67739SOL     OW 5055  10.642  10.116  13.691
67739SOL    HW1 5056  10.557  10.152  13.663
67739SOL    HW2 5057  10.631  10.022  13.683
67740SOL     OW 5058   6.118   8.886   0.034
67740SOL    HW1 5059   6.093   8.806   0.081
67740SOL    HW2 5060   6.212   8.878   0.021
67741SOL     OW 5061  10.992   1.403   4.993
67741SOL    HW1 5062  10.944   1.323   5.017
67741SOL    HW2 5063  10.996   1.454   5.073
67742SOL     OW 5064   3.021  12.430   6.393
67742SOL    HW1 5065   3.116  12.425   6.381
67742SOL    HW2 5066   3.009  12.442   6.487
67743SOL     OW 5067   5.428  14.611   1.492
67743SOL    HW1 5068   5.336  14.619   1.470
67743SOL    HW2 5069   5.429  14.596   1.587
67744SOL     OW 5070  11.150   6.857  10.626
67744SOL    HW1 5071  11.242   6.834  10.641
67744SOL    HW2 5072  11.120   6.894  10.709
67745SOL     OW 5073   3.234   0.680  14.046
67745SOL    HW1 5074   3.282   0.713  13.970
67745SOL    HW2 5075   3.177   0.612  14.011
67746SOL     OW 5076  10.757  13.805   8.674
67746SOL    HW1 5077  10.754  13.791   8.769
67746SOL    HW2 5078  10.835  13.757   8.645
67747SOL     OW 5079   8.290   9.341   3.190
67747SOL    HW1 5080   8.373   9.376   3.223
67747SOL    HW2 5081   8.226   9.362   3.258
67748SOL     OW 5082  10.153   1.061   2.741
67748SOL    HW1 5083  10.242   1.031   2.720
67748SOL    HW2 5084  10.111   1.072   2.656
67749SOL     OW 5085  12.877   6.409   2.784
67749SOL    HW1 5086  12.906   6.468   2.854
67749SOL    HW2 5087  12.784   6.427   2.774
67750SOL     OW 5088   0.193  12.388   9.166
67750SOL    HW1 5089   0.130  12.433   9.223
67750SOL    HW2 5090   0.258  12.352   9.226
67751SOL     OW 5091   3.791   4.915   4.849
67751SOL    HW1 5092   3.729   4.891   4.779
67751SOL    HW2 5093   3.839   4.989   4.813
67752SOL     OW 5094   8.306   2.290   0.221
67752SOL    HW1 5095   8.395   2.275   0.252
67752SOL    HW2 5096   8.310   2.274   0.127
67753SOL     OW 5097   6.455  12.965  12.107
67753SOL    HW1 5098   6.440  12.903  12.179
67753SOL    HW2 5099   6.369  12.976  12.067
67754SOL     OW 5100  14.151  13.811   5.283
67754SOL    HW1 5101  14.234  13.766   5.301
67754SOL    HW2 5102  14.084  13.747   5.306
67755SOL     OW 5103   5.494   2.335  13.907
67755SOL    HW1 5104   5.446   2.288  13.975
67755SOL    HW2 5105   5.464   2.295  13.825
67756SOL     OW 5106   6.153   1.798   6.595
67756SOL    HW1 5107   6.065   1.766   6.615
67756SOL    HW2 5108   6.166   1.872   6.655
67757SOL     OW 5109   1.510   4.186  12.894
67757SOL    HW1 5110   1.590   4.216  12.849
67757SOL    HW2 5111   1.464   4.267  12.917
67758SOL     OW 5112   9.150  11.991   6.712
67758SOL    HW1 5113   9.183  12.010   6.799
67758SOL    HW2 5114   9.095  12.067   6.690
67759SOL     OW 5115  12.343   4.685  10.063
67759SOL    HW1 5116  12.267   4.741  10.043
67759SOL    HW2 5117  12.399   4.693   9.986
67760SOL     OW 5118   5.846  12.657   2.573
67760SOL    HW1 5119   5.766  12.657   2.626
67760SOL    HW2 5120   5.911  12.612   2.628
67761SOL     OW 5121  11.192   2.491   3.836
67761SOL    HW1 5122  11.212   2.447   3.753
67761SOL    HW2 5123  11.219   2.582   3.823
67762SOL     OW 5124   4.614  13.051   4.303
67762SOL    HW1 5125   4.531  13.098   4.298
67762SOL    HW2 5126   4.662  13.095   4.374
67763SOL     OW 5127  14.002  13.663   8.487
67763SOL    HW1 5128  14.070  13.636   8.426
67763SOL    HW2 5129  14.034  13.635   8.573
67764SOL     OW 5130  13.970  11.729   5.979
67764SOL    HW1 5131  14.007  11.741   6.067
67764SOL    HW2 5132  13.912  11.804   5.967
67765SOL     OW 5133   2.991  14.453   2.823
67765SOL    HW1 5134   3.074  14.417   2.852
67765SOL    HW2 5135   2.956  14.499   2.899
67766SOL     OW 5136   8.507   6.629  12.790
67766SOL    HW1 5137   8.442   6.695  12.814
67766SOL    HW2 5138   8.524   6.645  12.697
67767SOL     OW 5139  13.563  14.617   1.793
67767SOL    HW1 5140  13.528  14.532   1.821
67767SOL    HW2 5141  13.486  14.667   1.766
67768SOL     OW 5142  10.794   6.710   2.008
67768SOL    HW1 5143  10.871   6.766   2.018
67768SOL    HW2 5144  10.826   6.622   2.029
67769SOL     OW 5145  10.560   1.537   7.812
67769SOL    HW1 5146  10.643   1.563   7.853
67769SOL    HW2 5147  10.546   1.448   7.843
67770SOL     OW 5148   3.619   9.152  12.294
67770SOL    HW1 5149   3.698   9.206  12.305
67770SOL    HW2 5150   3.647   9.064  12.317
67771SOL     OW 5151   5.054   4.594   2.259
67771SOL    HW1 5152   5.073   4.678   2.299
67771SOL    HW2 5153   5.050   4.532   2.332
67772SOL     OW 5154  11.587  12.632   7.482
67772SOL    HW1 5155  11.582  12.566   7.552
67772SOL    HW2 5156  11.515  12.692   7.501
67773SOL     OW 5157   6.363   0.156   8.537
67773SOL    HW1 5158   6.270   0.157   8.516
67773SOL    HW2 5159   6.390   0.248   8.530
67774SOL     OW 5160   9.555  13.992   5.322
67774SOL    HW1 5161   9.513  14.033   5.396
67774SOL    HW2 5162   9.500  14.015   5.247
67775SOL     OW 5163  11.484   9.566   2.303
67775SOL    HW1 5164  11.426   9.642   2.312
67775SOL    HW2 5165  11.438   9.509   2.241
67776SOL     OW 5166   4.317   4.453   1.983
67776SOL    HW1 5167   4.404   4.445   1.945
67776SOL    HW2 5168   4.331   4.461   2.077
67777SOL     OW 5169   1.416   2.860   7.504
67777SOL    HW1 5170   1.470   2.886   7.430
67777SOL    HW2 5171   1.336   2.912   7.495
67778SOL     OW 5172  12.547  12.772   9.780
67778SOL    HW1 5173  12.483  12.823   9.731
67778SOL    HW2 5174  12.614  12.750   9.715
67779SOL     OW 5175   0.262   5.574  10.739
67779SOL    HW1 5176   0.219   5.615  10.664
67779SOL    HW2 5177   0.224   5.618  10.815
67780SOL     OW 5178   0.235   0.856  11.290
67780SOL    HW1 5179   0.283   0.775  11.275
67780SOL    HW2 5180   0.299   0.915  11.328
67781SOL     OW 5181  11.706   4.274   0.268
67781SOL    HW1 5182  11.718   4.179   0.270
67781SOL    HW2 5183  11.669   4.292   0.182
67782SOL     OW 5184   4.708  12.657   7.561
67782SOL    HW1 5185   4.621  12.627   7.534
67782SOL    HW2 5186   4.762  12.579   7.557
67783SOL     OW 5187   5.763   9.989   3.584
67783SOL    HW1 5188   5.718  10.024   3.661
67783SOL    HW2 5189   5.856   9.999   3.604
67784SOL     OW 5190  12.032  11.868   4.107
67784SOL    HW1 5191  11.973  11.795   4.088
67784SOL    HW2 5192  12.024  11.882   4.201
67785SOL     OW 5193   5.583   2.534   7.866
67785SOL    HW1 5194   5.519   2.544   7.796
67785SOL    HW2 5195   5.668   2.544   7.823
67786SOL     OW 5196   6.523   9.710   1.684
67786SOL    HW1 5197   6.563   9.691   1.768
67786SOL    HW2 5198   6.554   9.640   1.626
67787SOL     OW 5199   2.364   9.014   1.073
67787SOL    HW1 5200   2.269   9.014   1.060
67787SOL    HW2 5201   2.377   8.967   1.156
67788SOL     OW 5202   4.434   9.742  12.430
67788SOL    HW1 5203   4.462   9.831  12.408
67788SOL    HW2 5204   4.363   9.723  12.369
67789SOL     OW 5205   4.885   5.184  13.839
67789SOL    HW1 5206   4.947   5.113  13.853
67789SOL    HW2 5207   4.929   5.243  13.777
67790SOL     OW 5208   3.758   3.517  13.639
67790SOL    HW1 5209   3.838   3.520  13.692
67790SOL    HW2 5210   3.688   3.541  13.700
67791SOL     OW 5211   9.005   2.002   2.133
67791SOL    HW1 5212   8.924   2.015   2.083
67791SOL    HW2 5213   8.994   1.916   2.174
67792SOL     OW 5214  11.055   1.898   6.233
67792SOL    HW1 5215  11.075   1.984   6.194
67792SOL    HW2 5216  11.089   1.904   6.322
67793SOL     OW 5217   7.368  12.412  10.405
67793SOL    HW1 5218   7.323  12.487  10.366
67793SOL    HW2 5219   7.399  12.361  10.331
67794SOL     OW 5220   6.903   4.997  14.526
67794SOL    HW1 5221   6.807   4.990  14.527
67794SOL    HW2 5222   6.933   4.927  14.583
67795SOL     OW 5223  10.739   5.433   5.960
67795SOL    HW1 5224  10.717   5.511   5.908
67795SOL    HW2 5225  10.815   5.459   6.012
67796SOL     OW 5226  10.246  14.066  13.400
67796SOL    HW1 5227  10.238  14.159  13.379
67796SOL    HW2 5228  10.340  14.048  13.393
67797SOL     OW 5229  12.247  12.104   1.498
67797SOL    HW1 5230  12.336  12.088   1.466
67797SOL    HW2 5231  12.252  12.089   1.592
67798SOL     OW 5232  14.324   1.326  13.177
67798SOL    HW1 5233  14.273   1.297  13.101
67798SOL    HW2 5234  14.392   1.381  13.140
67799SOL     OW 5235  11.799   2.699  11.447
67799SOL    HW1 5236  11.803   2.754  11.369
67799SOL    HW2 5237  11.880   2.649  11.445
67800SOL     OW 5238   1.688  14.285   5.874
67800SOL    HW1 5239   1.719  14.363   5.920
67800SOL    HW2 5240   1.606  14.263   5.917
67801SOL     OW 5241   4.744   8.229   0.523
67801SOL    HW1 5242   4.775   8.250   0.611
67801SOL    HW2 5243   4.649   8.235   0.529
67802SOL     OW 5244   0.052   6.776  10.602
67802SOL    HW1 5245   0.035   6.809  10.514
67802SOL    HW2 5246   0.060   6.681  10.592
67803SOL     OW 5247  14.809  10.902   0.766
67803SOL    HW1 5248  14.779  10.832   0.823
67803SOL    HW2 5249  14.814  10.979   0.822
67804SOL     OW 5250   4.452   3.334   7.490
67804SOL    HW1 5251   4.368   3.365   7.523
67804SOL    HW2 5252   4.487   3.407   7.439
67805SOL     OW 5253  13.386   7.531   0.492
67805SOL    HW1 5254  13.395   7.436   0.488
67805SOL    HW2 5255  13.424   7.555   0.577
67806SOL     OW 5256   8.534   7.391   4.985
67806SOL    HW1 5257   8.504   7.369   5.073
67806SOL    HW2 5258   8.470   7.453   4.952
67807SOL     OW 5259  10.337   9.261   5.109
67807SOL    HW1 5260  10.314   9.273   5.016
67807SOL    HW2 5261  10.432   9.246   5.108
67808SOL     OW 5262   9.782   6.967   0.988
67808SOL    HW1 5263   9.854   6.915   0.955
67808SOL    HW2 5264   9.813   7.000   1.073
67809SOL     OW 5265   3.332  11.307  11.607
67809SOL    HW1 5266   3.392  11.233  11.617
67809SOL    HW2 5267   3.310  11.333  11.697
67810SOL     OW 5268  13.716  12.663   5.920
67810SOL    HW1 5269  13.727  12.601   5.992
67810SOL    HW2 5270  13.801  12.704   5.909
67811SOL     OW 5271   4.814  12.047  12.733
67811SOL    HW1 5272   4.764  11.997  12.798
67811SOL    HW2 5273   4.788  12.009  12.649
67812SOL     OW 5274  11.040   9.694   8.473
67812SOL    HW1 5275  11.100   9.690   8.547
67812SOL    HW2 5276  10.960   9.651   8.504
67813SOL     OW 5277   4.638  11.778   4.230
67813SOL    HW1 5278   4.723  11.745   4.258
67813SOL    HW2 5279   4.645  11.784   4.135
67814SOL     OW 5280   6.727   2.517   9.277
67814SOL    HW1 5281   6.717   2.422   9.265
67814SOL    HW2 5282   6.646   2.544   9.320
67815SOL     OW 5283   8.755   9.826   5.068
67815SOL    HW1 5284   8.766   9.869   4.983
67815SOL    HW2 5285   8.798   9.886   5.130
67816SOL     OW 5286  12.978   2.962   5.419
67816SOL    HW1 5287  13.016   3.037   5.373
67816SOL    HW2 5288  12.898   2.996   5.458
67817SOL     OW 5289   1.317   1.681   0.991
67817SOL    HW1 5290   1.390   1.706   1.047
67817SOL    HW2 5291   1.354   1.619   0.929
67818SOL     OW 5292   0.476   6.486   7.159
67818SOL    HW1 5293   0.519   6.404   7.136
67818SOL    HW2 5294   0.397   6.488   7.104
67819SOL     OW 5295   6.829   5.772   4.534
67819SOL    HW1 5296   6.764   5.790   4.466
67819SOL    HW2 5297   6.829   5.851   4.589
67820SOL     OW 5298  11.701  13.156  12.060
67820SOL    HW1 5299  11.743  13.116  11.983
67820SOL    HW2 5300  11.772  13.200  12.106
67821SOL     OW 5301   6.670   5.096   4.957
67821SOL    HW1 5302   6.675   5.169   5.019
67821SOL    HW2 5303   6.698   5.134   4.873
67822SOL     OW 5304   2.158   3.155   7.422
67822SOL    HW1 5305   2.075   3.189   7.388
67822SOL    HW2 5306   2.182   3.216   7.492
67823SOL     OW 5307   9.296   5.827  12.756
67823SOL    HW1 5308   9.386   5.853  12.775
67823SOL    HW2 5309   9.249   5.909  12.748
67824SOL     OW 5310  11.254   8.510   0.020
67824SOL    HW1 5311  11.237   8.556   0.102
67824SOL    HW2 5312  11.169   8.500  14.855
67825SOL     OW 5313   7.387  10.113   1.708
67825SOL    HW1 5314   7.421  10.114   1.619
67825SOL    HW2 5315   7.293  10.100   1.698
67826SOL     OW 5316   0.452  13.478  14.761
67826SOL    HW1 5317   0.368  13.432  14.753
67826SOL    HW2 5318   0.458  13.500  14.854
67827SOL     OW 5319  13.494  11.981   4.941
67827SOL    HW1 5320  13.511  11.901   4.891
67827SOL    HW2 5321  13.399  11.991   4.940
67828SOL     OW 5322   9.966  13.760   3.371
67828SOL    HW1 5323   9.938  13.839   3.416
67828SOL    HW2 5324  10.035  13.790   3.311
67829SOL     OW 5325   3.314  12.540   5.669
67829SOL    HW1 5326   3.368  12.567   5.743
67829SOL    HW2 5327   3.235  12.594   5.676
67830SOL     OW 5328   2.931  14.275   9.637
67830SOL    HW1 5329   3.011  14.321   9.610
67830SOL    HW2 5330   2.904  14.320   9.717
67831SOL     OW 5331  11.879  13.277  14.757
67831SOL    HW1 5332  11.913  13.220  14.688
67831SOL    HW2 5333  11.784  13.265  14.753
67832SOL     OW 5334   1.579   4.555   8.030
67832SOL    HW1 5335   1.625   4.628   8.070
67832SOL    HW2 5336   1.589   4.483   8.091
67833SOL     OW 5337   5.530  12.071  12.042
67833SOL    HW1 5338   5.494  11.988  12.074
67833SOL    HW2 5339   5.595  12.095  12.108
67834SOL     OW 5340   9.153  14.686   0.281
67834SOL    HW1 5341   9.201  14.676   0.363
67834SOL    HW2 5342   9.185  14.769   0.245
67835SOL     OW 5343  13.047   6.133  10.966
67835SOL    HW1 5344  13.127   6.090  10.938
67835SOL    HW2 5345  13.044   6.214  10.914
67836SOL     OW 5346   6.817   2.193   4.002
67836SOL    HW1 5347   6.883   2.123   4.003
67836SOL    HW2 5348   6.785   2.194   3.912
67837SOL     OW 5349  13.154   9.546   6.148
67837SOL    HW1 5350  13.152   9.481   6.078
67837SOL    HW2 5351  13.110   9.623   6.111
67838SOL     OW 5352   1.016  12.523  14.101
67838SOL    HW1 5353   1.107  12.552  14.106
67838SOL    HW2 5354   0.972  12.565  14.175
67839SOL     OW 5355  13.855   5.853   2.681
67839SOL    HW1 5356  13.776   5.906   2.689
67839SOL    HW2 5357  13.927   5.916   2.691
67840SOL     OW 5358  12.789  12.390   8.370
67840SOL    HW1 5359  12.819  12.342   8.447
67840SOL    HW2 5360  12.811  12.333   8.296
67841SOL     OW 5361   9.625   7.619   0.305
67841SOL    HW1 5362   9.532   7.620   0.327
67841SOL    HW2 5363   9.662   7.550   0.359
67842SOL     OW 5364   0.161  11.554   8.936
67842SOL    HW1 5365   0.234  11.604   8.973
67842SOL    HW2 5366   0.098  11.548   9.008
67843SOL     OW 5367   7.053   2.947   6.193
67843SOL    HW1 5368   7.088   2.980   6.110
67843SOL    HW2 5369   7.078   2.855   6.195
67844SOL     OW 5370  10.892   9.632  12.974
67844SOL    HW1 5371  10.896   9.638  12.878
67844SOL    HW2 5372  10.959   9.693  13.005
67845SOL     OW 5373   3.142   4.907   2.148
67845SOL    HW1 5374   3.124   4.922   2.241
67845SOL    HW2 5375   3.100   4.823   2.129
67846SOL     OW 5376  13.745   9.505  14.553
67846SOL    HW1 5377  13.778   9.462  14.474
67846SOL    HW2 5378  13.810   9.571  14.574
67847SOL     OW 5379  11.146  12.058   1.169
67847SOL    HW1 5380  11.096  12.140   1.177
67847SOL    HW2 5381  11.092  11.993   1.215
67848SOL     OW 5382   3.468  14.838   1.195
67848SOL    HW1 5383   3.564  14.830   1.197
67848SOL    HW2 5384   3.451   0.051   1.223
67849SOL     OW 5385   6.345   8.378  14.522
67849SOL    HW1 5386   6.273   8.441  14.518
67849SOL    HW2 5387   6.315   8.311  14.583
67850SOL     OW 5388   8.206   7.137   2.744
67850SOL    HW1 5389   8.217   7.101   2.832
67850SOL    HW2 5390   8.112   7.131   2.727
67851SOL     OW 5391   5.256   4.389   7.858
67851SOL    HW1 5392   5.306   4.443   7.796
67851SOL    HW2 5393   5.257   4.439   7.940
67852SOL     OW 5394   0.745   9.161  10.372
67852SOL    HW1 5395   0.704   9.077  10.387
67852SOL    HW2 5396   0.720   9.214  10.448
67853SOL     OW 5397  11.288   4.114   6.093
67853SOL    HW1 5398  11.278   4.055   6.168
67853SOL    HW2 5399  11.361   4.077   6.044
67854SOL     OW 5400   5.825   8.414   8.910
67854SOL    HW1 5401   5.752   8.404   8.848
67854SOL    HW2 5402   5.895   8.361   8.874
67855SOL     OW 5403  12.552   2.186  12.423
67855SOL    HW1 5404  12.458   2.197  12.409
67855SOL    HW2 5405  12.583   2.272  12.450
67856SOL     OW 5406   5.519  11.841  11.121
67856SOL    HW1 5407   5.580  11.771  11.098
67856SOL    HW2 5408   5.558  11.883  11.197
67857SOL     OW 5409   5.780   2.539   5.781
67857SOL    HW1 5410   5.791   2.447   5.806
67857SOL    HW2 5411   5.831   2.588   5.846
67858SOL     OW 5412  14.404   0.784   5.580
67858SOL    HW1 5413  14.354   0.776   5.661
67858SOL    HW2 5414  14.340   0.815   5.515
67859SOL     OW 5415  11.568   3.380   8.360
67859SOL    HW1 5416  11.475   3.399   8.348
67859SOL    HW2 5417  11.571   3.286   8.379
67860SOL     OW 5418  11.054  12.910   2.563
67860SOL    HW1 5419  11.029  12.999   2.584
67860SOL    HW2 5420  11.085  12.873   2.646
67861SOL     OW 5421   4.957   8.944  13.387
67861SOL    HW1 5422   4.958   8.943  13.483
67861SOL    HW2 5423   4.930   8.855  13.362
67862SOL     OW 5424   2.944   1.965   8.073
67862SOL    HW1 5425   3.016   1.983   8.013
67862SOL    HW2 5426   2.974   1.890   8.125
67863SOL     OW 5427  10.663   4.821   6.653
67863SOL    HW1 5428  10.700   4.873   6.724
67863SOL    HW2 5429  10.730   4.823   6.584
67864SOL     OW 5430  12.861  12.681  12.264
67864SOL    HW1 5431  12.868  12.757  12.322
67864SOL    HW2 5432  12.786  12.632  12.297
67865SOL     OW 5433   3.464  13.220   3.443
67865SOL    HW1 5434   3.507  13.137   3.422
67865SOL    HW2 5435   3.451  13.217   3.538
67866SOL     OW 5436   3.802  10.184   9.635
67866SOL    HW1 5437   3.756  10.138   9.564
67866SOL    HW2 5438   3.807  10.119   9.706
67867SOL     OW 5439  13.824   4.661   5.278
67867SOL    HW1 5440  13.873   4.593   5.325
67867SOL    HW2 5441  13.876   4.741   5.290
67868SOL     OW 5442   3.546  13.757  11.708
67868SOL    HW1 5443   3.561  13.671  11.747
67868SOL    HW2 5444   3.462  13.785  11.743
67869SOL     OW 5445   7.409  12.849   5.863
67869SOL    HW1 5446   7.469  12.777   5.840
67869SOL    HW2 5447   7.339  12.807   5.913
67870SOL     OW 5448   2.878  12.999   3.827
67870SOL    HW1 5449   2.859  12.910   3.858
67870SOL    HW2 5450   2.890  12.989   3.732
67871SOL     OW 5451  11.055   1.935   1.572
67871SOL    HW1 5452  11.131   1.963   1.521
67871SOL    HW2 5453  10.984   1.930   1.508
67872SOL     OW 5454  11.451   1.863   3.704
67872SOL    HW1 5455  11.512   1.890   3.773
67872SOL    HW2 5456  11.498   1.796   3.655
67873SOL     OW 5457   0.969  10.369   6.020
67873SOL    HW1 5458   0.937  10.283   5.992
67873SOL    HW2 5459   0.951  10.427   5.946
67874SOL     OW 5460   7.901   9.931   8.472
67874SOL    HW1 5461   7.856  10.009   8.503
67874SOL    HW2 5462   7.835   9.885   8.419
67875SOL     OW 5463   9.469   8.746   9.481
67875SOL    HW1 5464   9.452   8.732   9.574
67875SOL    HW2 5465   9.558   8.714   9.468
67876SOL     OW 5466  10.858  13.482  13.764
67876SOL    HW1 5467  10.905  13.531  13.696
67876SOL    HW2 5468  10.809  13.548  13.812
67877SOL     OW 5469   2.091  10.786  11.927
67877SOL    HW1 5470   2.123  10.812  12.014
67877SOL    HW2 5471   2.162  10.734  11.890
67878SOL     OW 5472   9.611   2.853  10.171
67878SOL    HW1 5473   9.532   2.811  10.136
67878SOL    HW2 5474   9.682   2.815  10.121
67879SOL     OW 5475  10.703   3.860   2.913
67879SOL    HW1 5476  10.737   3.793   2.853
67879SOL    HW2 5477  10.636   3.816   2.964
67880SOL     OW 5478   0.040  14.507  12.812
67880SOL    HW1 5479  14.864  14.546  12.883
67880SOL    HW2 5480   0.015  14.556  12.734
67881SOL     OW 5481   3.835   9.614  10.975
67881SOL    HW1 5482   3.873   9.618  11.063
67881SOL    HW2 5483   3.742   9.628  10.989
67882SOL     OW 5484  10.036  10.373  12.275
67882SOL    HW1 5485  10.037  10.421  12.192
67882SOL    HW2 5486   9.985  10.428  12.334
67883SOL     OW 5487   6.316   5.158   3.361
67883SOL    HW1 5488   6.227   5.190   3.380
67883SOL    HW2 5489   6.304   5.067   3.334
67884SOL     OW 5490   7.095   3.657  11.211
67884SOL    HW1 5491   7.045   3.673  11.291
67884SOL    HW2 5492   7.158   3.729  11.208
67885SOL     OW 5493  11.013   8.586  11.270
67885SOL    HW1 5494  10.975   8.595  11.183
67885SOL    HW2 5495  10.969   8.510  11.307
67886SOL     OW 5496   8.131   4.307  10.915
67886SOL    HW1 5497   8.085   4.326  10.997
67886SOL    HW2 5498   8.222   4.329  10.932
67887SOL     OW 5499  10.744  14.175   3.774
67887SOL    HW1 5500  10.805  14.107   3.744
67887SOL    HW2 5501  10.669  14.126   3.807
67888SOL     OW 5502   6.223  11.401   2.481
67888SOL    HW1 5503   6.257  11.424   2.568
67888SOL    HW2 5504   6.204  11.486   2.440
67889SOL     OW 5505   8.028   4.044  13.073
67889SOL    HW1 5506   8.084   4.025  12.997
67889SOL    HW2 5507   8.075   4.008  13.147
67890SOL     OW 5508   6.890  13.199   9.904
67890SOL    HW1 5509   6.937  13.142   9.843
67890SOL    HW2 5510   6.894  13.153   9.988
67891SOL     OW 5511   6.436   4.548   0.879
67891SOL    HW1 5512   6.514   4.493   0.872
67891SOL    HW2 5513   6.366   4.494   0.843
67892SOL     OW 5514   0.714   8.084   6.329
67892SOL    HW1 5515   0.678   8.035   6.403
67892SOL    HW2 5516   0.642   8.086   6.266
67893SOL     OW 5517   4.399   8.777  11.123
67893SOL    HW1 5518   4.457   8.741  11.056
67893SOL    HW2 5519   4.453   8.839  11.171
67894SOL     OW 5520   0.818   3.137   1.883
67894SOL    HW1 5521   0.822   3.051   1.843
67894SOL    HW2 5522   0.781   3.121   1.970
67895SOL     OW 5523   5.959   4.856   1.902
67895SOL    HW1 5524   6.006   4.801   1.840
67895SOL    HW2 5525   5.964   4.808   1.985
67896SOL     OW 5526   2.720  11.087  11.987
67896SOL    HW1 5527   2.743  11.028  12.058
67896SOL    HW2 5528   2.690  11.167  12.030
67897SOL     OW 5529   2.474   5.763   7.390
67897SOL    HW1 5530   2.381   5.739   7.396
67897SOL    HW2 5531   2.477   5.834   7.326
67898SOL     OW 5532   0.571   6.510   3.296
67898SOL    HW1 5533   0.510   6.569   3.341
67898SOL    HW2 5534   0.515   6.453   3.244
67899SOL     OW 5535   0.814  10.622  10.542
67899SOL    HW1 5536   0.757  10.683  10.495
67899SOL    HW2 5537   0.875  10.678  10.590
67900SOL     OW 5538   8.429   3.306   7.330
67900SOL    HW1 5539   8.496   3.295   7.263
67900SOL    HW2 5540   8.470   3.278   7.411
67901SOL     OW 5541  10.262   9.407   2.742
67901SOL    HW1 5542  10.268   9.314   2.721
67901SOL    HW2 5543  10.346   9.443   2.713
67902SOL     OW 5544   0.841   4.898   3.629
67902SOL    HW1 5545   0.813   4.951   3.704
67902SOL    HW2 5546   0.765   4.845   3.606
67903SOL     OW 5547   3.035  14.020  13.092
67903SOL    HW1 5548   3.055  14.063  13.175
67903SOL    HW2 5549   2.940  14.026  13.084
67904SOL     OW 5550  13.939  12.833  10.256
67904SOL    HW1 5551  13.884  12.859  10.330
67904SOL    HW2 5552  14.004  12.774  10.294
67905SOL     OW 5553   2.286   1.850  11.531
67905SOL    HW1 5554   2.214   1.908  11.508
67905SOL    HW2 5555   2.365   1.903  11.519
67906SOL     OW 5556   9.061  12.572   2.670
67906SOL    HW1 5557   9.046  12.494   2.617
67906SOL    HW2 5558   9.037  12.546   2.759
67907SOL     OW 5559  11.641  14.492  12.925
67907SOL    HW1 5560  11.605  14.528  13.006
67907SOL    HW2 5561  11.736  14.502  12.934
67908SOL     OW 5562   8.173  10.961  13.307
67908SOL    HW1 5563   8.089  10.969  13.262
67908SOL    HW2 5564   8.215  10.886  13.265
67909SOL     OW 5565   2.569   6.381  11.920
67909SOL    HW1 5566   2.555   6.425  11.837
67909SOL    HW2 5567   2.515   6.302  11.915
67910SOL     OW 5568   9.263   0.164   6.320
67910SOL    HW1 5569   9.212   0.214   6.384
67910SOL    HW2 5570   9.353   0.194   6.334
67911SOL     OW 5571   1.600  12.469  12.296
67911SOL    HW1 5572   1.658  12.545  12.293
67911SOL    HW2 5573   1.598  12.436  12.206
67912SOL     OW 5574   4.304   8.254   8.724
67912SOL    HW1 5575   4.318   8.159   8.730
67912SOL    HW2 5576   4.337   8.278   8.638
67913SOL     OW 5577   9.509   6.257   1.403
67913SOL    HW1 5578   9.513   6.183   1.464
67913SOL    HW2 5579   9.424   6.297   1.421
67914SOL     OW 5580  14.333  12.925  11.964
67914SOL    HW1 5581  14.427  12.931  11.948
67914SOL    HW2 5582  14.322  12.843  12.012
67915SOL     OW 5583  13.111   6.918   6.354
67915SOL    HW1 5584  13.124   6.837   6.304
67915SOL    HW2 5585  13.140   6.987   6.295
67916SOL     OW 5586   6.691   5.035  11.239
67916SOL    HW1 5587   6.733   5.096  11.177
67916SOL    HW2 5588   6.705   4.948  11.200
67917SOL     OW 5589   2.920  12.187   4.109
67917SOL    HW1 5590   2.923  12.095   4.133
67917SOL    HW2 5591   2.849  12.193   4.046
67918SOL     OW 5592   4.292   4.117   2.159
67918SOL    HW1 5593   4.212   4.065   2.162
67918SOL    HW2 5594   4.293   4.154   2.071
67919SOL     OW 5595   7.886   5.905   6.761
67919SOL    HW1 5596   7.852   5.942   6.842
67919SOL    HW2 5597   7.884   5.978   6.699
67920SOL     OW 5598  14.051   6.236   7.544
67920SOL    HW1 5599  14.002   6.192   7.474
67920SOL    HW2 5600  14.094   6.164   7.591
67921SOL     OW 5601   3.616  14.385   8.352
67921SOL    HW1 5602   3.537  14.333   8.336
67921SOL    HW2 5603   3.668  14.374   8.273
67922SOL     OW 5604   5.084  11.637   8.827
67922SOL    HW1 5605   5.083  11.560   8.770
67922SOL    HW2 5606   5.095  11.711   8.767
67923SOL     OW 5607   8.144   0.415   7.313
67923SOL    HW1 5608   8.083   0.410   7.240
67923SOL    HW2 5609   8.105   0.479   7.373
67924SOL     OW 5610  13.682   5.769   1.679
67924SOL    HW1 5611  13.709   5.837   1.616
67924SOL    HW2 5612  13.628   5.815   1.743
67925SOL     OW 5613  10.170   0.458   3.553
67925SOL    HW1 5614  10.225   0.492   3.483
67925SOL    HW2 5615  10.148   0.369   3.526
67926SOL     OW 5616   8.672  10.316   6.898
67926SOL    HW1 5617   8.753  10.313   6.847
67926SOL    HW2 5618   8.613  10.255   6.853
67927SOL     OW 5619   8.214   1.412   8.536
67927SOL    HW1 5620   8.205   1.499   8.575
67927SOL    HW2 5621   8.157   1.356   8.589
67928SOL     OW 5622  14.064  13.226   1.429
67928SOL    HW1 5623  14.082  13.182   1.346
67928SOL    HW2 5624  13.985  13.277   1.412
67929SOL     OW 5625  10.452   1.098   9.646
67929SOL    HW1 5626  10.371   1.076   9.692
67929SOL    HW2 5627  10.445   1.193   9.630
67930SOL     OW 5628   9.619   6.712  13.263
67930SOL    HW1 5629   9.580   6.736  13.179
67930SOL    HW2 5630   9.578   6.629  13.286
67931SOL     OW 5631  13.953   8.067  14.442
67931SOL    HW1 5632  13.863   8.089  14.466
67931SOL    HW2 5633  13.974   7.989  14.495
67932SOL     OW 5634  13.820  13.984   0.190
67932SOL    HW1 5635  13.855  14.066   0.155
67932SOL    HW2 5636  13.728  14.003   0.208
67933SOL     OW 5637   7.077   3.280   4.639
67933SOL    HW1 5638   7.104   3.371   4.626
67933SOL    HW2 5639   7.025   3.260   4.562
67934SOL     OW 5640   4.377   7.094  13.694
67934SOL    HW1 5641   4.404   7.039  13.767
67934SOL    HW2 5642   4.284   7.109  13.709
67935SOL     OW 5643  13.687   1.256  14.723
67935SOL    HW1 5644  13.617   1.318  14.702
67935SOL    HW2 5645  13.687   1.251  14.818
67936SOL     OW 5646  10.948   6.811   7.999
67936SOL    HW1 5647  10.916   6.722   8.013
67936SOL    HW2 5648  11.043   6.805   8.011
67937SOL     OW 5649   3.338   8.078   7.427
67937SOL    HW1 5650   3.301   8.019   7.362
67937SOL    HW2 5651   3.329   8.165   7.389
67938SOL     OW 5652   0.057   5.394   0.607
67938SOL    HW1 5653   0.127   5.402   0.672
67938SOL    HW2 5654  14.859   5.360   0.656
67939SOL     OW 5655  12.369   2.978   7.768
67939SOL    HW1 5656  12.405   2.890   7.775
67939SOL    HW2 5657  12.368   3.012   7.857
67940SOL     OW 5658  11.052   2.380   2.395
67940SOL    HW1 5659  11.138   2.422   2.391
67940SOL    HW2 5660  11.070   2.287   2.381
67941SOL     OW 5661   5.838   3.550   9.550
67941SOL    HW1 5662   5.747   3.521   9.560
67941SOL    HW2 5663   5.831   3.640   9.518
67942SOL     OW 5664   1.120   6.465   4.585
67942SOL    HW1 5665   1.112   6.495   4.676
67942SOL    HW2 5666   1.161   6.379   4.592
67943SOL     OW 5667   1.815  10.410  10.407
67943SOL    HW1 5668   1.910  10.404  10.411
67943SOL    HW2 5669   1.796  10.450  10.323
67944SOL     OW 5670   2.480   1.037  12.016
67944SOL    HW1 5671   2.538   0.986  12.073
67944SOL    HW2 5672   2.458   1.114  12.068
67945SOL     OW 5673  14.313  13.559   9.577
67945SOL    HW1 5674  14.309  13.501   9.502
67945SOL    HW2 5675  14.396  13.606   9.568
67946SOL     OW 5676   6.108   6.323   3.033
67946SOL    HW1 5677   6.201   6.309   3.016
67946SOL    HW2 5678   6.099   6.418   3.039
67947SOL     OW 5679   9.657   3.571   8.169
67947SOL    HW1 5680   9.632   3.517   8.244
67947SOL    HW2 5681   9.659   3.511   8.095
67948SOL     OW 5682  10.976   2.804  10.868
67948SOL    HW1 5683  11.010   2.833  10.952
67948SOL    HW2 5684  10.889   2.843  10.861
67949SOL     OW 5685   2.282   1.982   8.016
67949SOL    HW1 5686   2.366   1.959   7.976
67949SOL    HW2 5687   2.224   1.910   7.993
67950SOL     OW 5688   7.072   6.587   8.908
67950SOL    HW1 5689   7.011   6.653   8.939
67950SOL    HW2 5690   7.142   6.587   8.974
67951SOL     OW 5691   8.343   5.307   4.942
67951SOL    HW1 5692   8.370   5.382   4.996
67951SOL    HW2 5693   8.260   5.335   4.903
67952SOL     OW 5694   0.092   5.912  13.587
67952SOL    HW1 5695   0.010   5.958  13.609
67952SOL    HW2 5696   0.091   5.906  13.492
67953SOL     OW 5697   4.004   2.177  10.101
67953SOL    HW1 5698   4.049   2.185  10.185
67953SOL    HW2 5699   3.930   2.238  10.108
67954SOL     OW 5700   6.655   3.813   2.701
67954SOL    HW1 5701   6.563   3.833   2.713
67954SOL    HW2 5702   6.662   3.720   2.722
67955SOL     OW 5703  11.650  14.534  14.035
67955SOL    HW1 5704  11.598  14.454  14.041
67955SOL    HW2 5705  11.665  14.560  14.126
67956SOL     OW 5706  14.653   1.334   4.463
67956SOL    HW1 5707  14.660   1.239   4.466
67956SOL    HW2 5708  14.645   1.354   4.369
67957SOL     OW 5709   4.024   9.626   4.994
67957SOL    HW1 5710   3.954   9.563   4.980
67957SOL    HW2 5711   4.103   9.581   4.964
67958SOL     OW 5712   4.679   6.850   9.142
67958SOL    HW1 5713   4.618   6.901   9.195
67958SOL    HW2 5714   4.702   6.908   9.069
67959SOL     OW 5715  12.669  12.434   1.224
67959SOL    HW1 5716  12.758  12.457   1.254
67959SOL    HW2 5717  12.624  12.405   1.303
67960SOL     OW 5718  12.571   5.226   5.670
67960SOL    HW1 5719  12.583   5.186   5.756
67960SOL    HW2 5720  12.659   5.245   5.639
67961SOL     OW 5721   1.944   5.524   6.210
67961SOL    HW1 5722   1.879   5.578   6.255
67961SOL    HW2 5723   2.005   5.587   6.170
67962SOL     OW 5724   3.647   2.742  13.631
67962SOL    HW1 5725   3.648   2.782  13.545
67962SOL    HW2 5726   3.625   2.650  13.615
67963SOL     OW 5727  13.366   0.721   7.561
67963SOL    HW1 5728  13.415   0.784   7.613
67963SOL    HW2 5729  13.430   0.684   7.500
67964SOL     OW 5730   6.383   4.705   8.130
67964SOL    HW1 5731   6.331   4.752   8.066
67964SOL    HW2 5732   6.368   4.752   8.212
67965SOL     OW 5733  14.238   1.301   0.178
67965SOL    HW1 5734  14.217   1.361   0.106
67965SOL    HW2 5735  14.216   1.214   0.143
67966SOL     OW 5736   3.627  10.221  12.753
67966SOL    HW1 5737   3.602  10.292  12.695
67966SOL    HW2 5738   3.557  10.157  12.744
67967SOL     OW 5739   5.940   9.861  13.108
67967SOL    HW1 5740   6.026   9.886  13.074
67967SOL    HW2 5741   5.959   9.803  13.181
67968SOL     OW 5742   9.901   8.949  13.540
67968SOL    HW1 5743   9.965   9.004  13.494
67968SOL    HW2 5744   9.875   9.001  13.616
67969SOL     OW 5745  10.014   1.809   6.484
67969SOL    HW1 5746   9.930   1.834   6.445
67969SOL    HW2 5747  10.054   1.752   6.419
67970SOL     OW 5748   2.179   6.088   2.969
67970SOL    HW1 5749   2.267   6.078   3.005
67970SOL    HW2 5750   2.125   6.112   3.044
67971SOL     OW 5751   4.133  13.135   9.845
67971SOL    HW1 5752   4.136  13.221   9.887
67971SOL    HW2 5753   4.175  13.076   9.907
67972SOL     OW 5754   7.309  10.606   3.581
67972SOL    HW1 5755   7.243  10.595   3.512
67972SOL    HW2 5756   7.393  10.604   3.535
67973SOL     OW 5757   0.916  13.322  14.129
67973SOL    HW1 5758   0.954  13.322  14.217
67973SOL    HW2 5759   0.822  13.337  14.143
67974SOL     OW 5760  11.323   0.264  14.294
67974SOL    HW1 5761  11.273   0.345  14.299
67974SOL    HW2 5762  11.392   0.282  14.230
67975SOL     OW 5763  12.425   6.263   9.503
67975SOL    HW1 5764  12.455   6.226   9.420
67975SOL    HW2 5765  12.375   6.191   9.543
67976SOL     OW 5766  13.958  13.595   2.722
67976SOL    HW1 5767  14.010  13.609   2.642
67976SOL    HW2 5768  13.971  13.503   2.743
67977SOL     OW 5769  10.534   8.674   0.420
67977SOL    HW1 5770  10.543   8.675   0.515
67977SOL    HW2 5771  10.620   8.697   0.387
67978SOL     OW 5772   9.364   1.968   4.745
67978SOL    HW1 5773   9.317   2.027   4.685
67978SOL    HW2 5774   9.378   1.888   4.693
67979SOL     OW 5775   0.240   4.754  14.726
67979SOL    HW1 5776   0.181   4.741  14.651
67979SOL    HW2 5777   0.312   4.693  14.711
67980SOL     OW 5778   3.383  13.816   0.871
67980SOL    HW1 5779   3.410  13.888   0.814
67980SOL    HW2 5780   3.287  13.819   0.868
67981SOL     OW 5781   6.181  11.616   0.028
67981SOL    HW1 5782   6.140  11.634   0.113
67981SOL    HW2 5783   6.260  11.566   0.050
67982SOL     OW 5784   4.774  10.786  14.103
67982SOL    HW1 5785   4.864  10.807  14.126
67982SOL    HW2 5786   4.730  10.870  14.096
67983SOL     OW 5787   4.650   6.382   3.561
67983SOL    HW1 5788   4.577   6.321   3.559
67983SOL    HW2 5789   4.721   6.337   3.515
67984SOL     OW 5790   6.613   9.496  10.601
67984SOL    HW1 5791   6.706   9.501  10.624
67984SOL    HW2 5792   6.610   9.437  10.526
67985SOL     OW 5793   0.546   6.866  11.302
67985SOL    HW1 5794   0.494   6.883  11.223
67985SOL    HW2 5795   0.589   6.949  11.321
67986SOL     OW 5796   9.113   2.555  12.656
67986SOL    HW1 5797   9.027   2.596  12.654
67986SOL    HW2 5798   9.168   2.612  12.602
67987SOL     OW 5799   0.805   4.362   1.139
67987SOL    HW1 5800   0.777   4.350   1.229
67987SOL    HW2 5801   0.846   4.448   1.137
67988SOL     OW 5802   5.139  12.850   9.341
67988SOL    HW1 5803   5.164  12.932   9.298
67988SOL    HW2 5804   5.090  12.802   9.275
67989SOL     OW 5805  11.857   0.343   1.123
67989SOL    HW1 5806  11.808   0.305   1.196
67989SOL    HW2 5807  11.800   0.329   1.046
67990SOL     OW 5808  12.862   4.395   9.017
67990SOL    HW1 5809  12.886   4.481   8.983
67990SOL    HW2 5810  12.772   4.382   8.989
67991SOL     OW 5811  13.680   4.436  10.536
67991SOL    HW1 5812  13.591   4.463  10.513
67991SOL    HW2 5813  13.670   4.347  10.569
67992SOL     OW 5814  11.293  14.659   0.255
67992SOL    HW1 5815  11.282  14.611   0.337
67992SOL    HW2 5816  11.253  14.603   0.188
67993SOL     OW 5817   3.011  12.980   2.452
67993SOL    HW1 5818   2.955  12.915   2.410
67993SOL    HW2 5819   2.957  13.015   2.523
67994SOL     OW 5820   8.308   4.330   5.033
67994SOL    HW1 5821   8.214   4.344   5.038
67994SOL    HW2 5822   8.344   4.417   5.015
67995SOL     OW 5823   2.905   3.221   0.117
67995SOL    HW1 5824   2.867   3.146   0.162
67995SOL    HW2 5825   2.840   3.290   0.124
67996SOL     OW 5826   8.536   9.868  11.517
67996SOL    HW1 5827   8.575   9.788  11.553
67996SOL    HW2 5828   8.551   9.934  11.585
67997SOL     OW 5829   9.410  11.454   1.146
67997SOL    HW1 5830   9.367  11.423   1.066
67997SOL    HW2 5831   9.352  11.522   1.180
67998SOL     OW 5832   2.076   6.954  14.804
67998SOL    HW1 5833   2.121   6.931  14.723
67998SOL    HW2 5834   2.130   7.023  14.843
67999SOL     OW 5835   0.685   6.300  12.046
67999SOL    HW1 5836   0.647   6.367  12.102
67999SOL    HW2 5837   0.766   6.274  12.090
68000SOL     OW 5838  10.884  13.221   2.090
68000SOL    HW1 5839  10.934  13.262   2.019
68000SOL    HW2 5840  10.907  13.271   2.168
68001SOL     OW 5841   8.692  14.094   0.386
68001SOL    HW1 5842   8.757  14.079   0.317
68001SOL    HW2 5843   8.666  14.007   0.414
68002SOL     OW 5844  12.990   0.705   9.958
68002SOL    HW1 5845  12.989   0.756  10.038
68002SOL    HW2 5846  13.081   0.703   9.930
68003SOL     OW 5847   0.108  11.888  12.312
68003SOL    HW1 5848   0.147  11.932  12.237
68003SOL    HW2 5849   0.023  11.930  12.323
68004SOL     OW 5850   4.761   0.439   4.788
68004SOL    HW1 5851   4.682   0.397   4.821
68004SOL    HW2 5852   4.742   0.457   4.696
68005SOL     OW 5853   9.079   9.405  13.036
68005SOL    HW1 5854   9.095   9.478  13.096
68005SOL    HW2 5855   9.157   9.402  12.980
68006SOL     OW 5856  11.124   4.506   9.727
68006SOL    HW1 5857  11.113   4.582   9.783
68006SOL    HW2 5858  11.217   4.505   9.705
68007SOL     OW 5859   7.447   7.845   3.153
68007SOL    HW1 5860   7.409   7.929   3.128
68007SOL    HW2 5861   7.405   7.824   3.237
68008SOL     OW 5862   7.607   7.073   6.388
68008SOL    HW1 5863   7.561   7.078   6.305
68008SOL    HW2 5864   7.647   6.986   6.388
68009SOL     OW 5865   6.726   9.754   0.947
68009SOL    HW1 5866   6.644   9.765   0.899
68009SOL    HW2 5867   6.704   9.692   1.017
68010SOL     OW 5868   1.198  12.614   4.591
68010SOL    HW1 5869   1.215  12.681   4.525
68010SOL    HW2 5870   1.213  12.531   4.546
68011SOL     OW 5871   3.095   5.760   6.066
68011SOL    HW1 5872   3.063   5.764   6.156
68011SOL    HW2 5873   3.015   5.764   6.012
68012SOL     OW 5874   3.187  13.621   9.485
68012SOL    HW1 5875   3.128  13.663   9.547
68012SOL    HW2 5876   3.274  13.631   9.523
68013SOL     OW 5877  11.465   4.563   8.595
68013SOL    HW1 5878  11.474   4.546   8.502
68013SOL    HW2 5879  11.430   4.652   8.601
68014SOL     OW 5880   0.580   2.017   1.473
68014SOL    HW1 5881   0.589   1.991   1.381
68014SOL    HW2 5882   0.621   1.946   1.522
68015SOL     OW 5883   5.903   0.338   2.096
68015SOL    HW1 5884   5.863   0.423   2.080
68015SOL    HW2 5885   5.894   0.291   2.014
68016SOL     OW 5886   9.141   0.514   7.083
68016SOL    HW1 5887   9.058   0.473   7.107
68016SOL    HW2 5888   9.203   0.440   7.077
68017SOL     OW 5889  11.688   4.539   9.700
68017SOL    HW1 5890  11.687   4.482   9.777
68017SOL    HW2 5891  11.761   4.505   9.647
68018SOL     OW 5892  10.457  13.008   4.042
68018SOL    HW1 5893  10.453  13.039   3.952
68018SOL    HW2 5894  10.388  12.942   4.049
68019SOL     OW 5895  10.167  12.930   6.936
68019SOL    HW1 5896  10.242  12.968   6.982
68019SOL    HW2 5897  10.202  12.900   6.853
68020SOL     OW 5898  11.674   9.966   4.856
68020SOL    HW1 5899  11.609   9.924   4.912
68020SOL    HW2 5900  11.700   9.898   4.794
68021SOL     OW 5901   5.143  12.631  12.627
68021SOL    HW1 5902   5.197  12.698  12.586
68021SOL    HW2 5903   5.171  12.549  12.588
68022SOL     OW 5904  13.313   1.384   7.871
68022SOL    HW1 5905  13.346   1.355   7.956
68022SOL    HW2 5906  13.276   1.471   7.888
68023SOL     OW 5907   9.056   2.431   6.612
68023SOL    HW1 5908   9.080   2.423   6.704
68023SOL    HW2 5909   9.031   2.342   6.586
68024SOL     OW 5910   7.953   3.720  13.902
68024SOL    HW1 5911   7.917   3.797  13.947
68024SOL    HW2 5912   8.019   3.756  13.842
68025SOL     OW 5913   8.861   8.241   3.150
68025SOL    HW1 5914   8.882   8.222   3.059
68025SOL    HW2 5915   8.942   8.221   3.198
68026SOL     OW 5916   0.513   3.803  11.345
68026SOL    HW1 5917   0.601   3.838  11.356
68026SOL    HW2 5918   0.473   3.812  11.432
68027SOL     OW 5919   0.711  14.779   8.166
68027SOL    HW1 5920   0.631  14.801   8.118
68027SOL    HW2 5921   0.720  14.685   8.157
68028SOL     OW 5922  11.735   0.710  12.478
68028SOL    HW1 5923  11.817   0.671  12.449
68028SOL    HW2 5924  11.667   0.660  12.431
68029SOL     OW 5925   1.527   1.912   9.802
68029SOL    HW1 5926   1.612   1.893   9.842
68029SOL    HW2 5927   1.463   1.867   9.857
68030SOL     OW 5928   5.509  10.808   8.506
68030SOL    HW1 5929   5.447  10.791   8.435
68030SOL    HW2 5930   5.466  10.875   8.560
68031SOL     OW 5931   5.612   4.020  13.437
68031SOL    HW1 5932   5.540   3.994  13.379
68031SOL    HW2 5933   5.667   3.942  13.444
68032SOL     OW 5934  14.515  10.745   5.762
68032SOL    HW1 5935  14.556  10.706   5.839
68032SOL    HW2 5936  14.479  10.670   5.714
68033SOL     OW 5937   5.865   3.230   7.102
68033SOL    HW1 5938   5.960   3.226   7.096
68033SOL    HW2 5939   5.837   3.248   7.012
68034SOL     OW 5940  10.381  12.606  10.159
68034SOL    HW1 5941  10.397  12.625  10.252
68034SOL    HW2 5942  10.355  12.690  10.121
68035SOL     OW 5943   5.099   6.985  13.682
68035SOL    HW1 5944   5.174   6.983  13.743
68035SOL    HW2 5945   5.053   7.066  13.704
68036SOL     OW 5946  11.307  12.966   7.784
68036SOL    HW1 5947  11.323  13.051   7.742
68036SOL    HW2 5948  11.370  12.907   7.744
68037SOL     OW 5949  12.217  14.490   8.282
68037SOL    HW1 5950  12.259  14.412   8.245
68037SOL    HW2 5951  12.253  14.562   8.231
68038SOL     OW 5952   3.441   4.209   8.252
68038SOL    HW1 5953   3.426   4.124   8.211
68038SOL    HW2 5954   3.486   4.188   8.335
68039SOL     OW 5955   2.671   0.295  13.821
68039SOL    HW1 5956   2.681   0.287  13.915
68039SOL    HW2 5957   2.645   0.387  13.808
68040SOL     OW 5958   6.072   7.857   2.045
68040SOL    HW1 5959   6.073   7.814   2.130
68040SOL    HW2 5960   6.044   7.947   2.064
68041SOL     OW 5961  10.112   6.552   8.522
68041SOL    HW1 5962  10.054   6.521   8.591
68041SOL    HW2 5963  10.177   6.606   8.568
68042SOL     OW 5964   5.630  13.920  10.886
68042SOL    HW1 5965   5.623  13.920  10.981
68042SOL    HW2 5966   5.549  13.879  10.855
68043SOL     OW 5967  11.833  13.343  11.013
68043SOL    HW1 5968  11.907  13.300  10.970
68043SOL    HW2 5969  11.810  13.416  10.955
68044SOL     OW 5970   5.011   1.429   5.605
68044SOL    HW1 5971   4.979   1.456   5.518
68044SOL    HW2 5972   4.932   1.415   5.656
68045SOL     OW 5973  12.695   5.675  10.434
68045SOL    HW1 5974  12.710   5.684  10.339
68045SOL    HW2 5975  12.744   5.748  10.473
68046SOL     OW 5976   6.112   4.274  10.942
68046SOL    HW1 5977   6.085   4.228  10.862
68046SOL    HW2 5978   6.196   4.236  10.965
68047SOL     OW 5979  14.773  13.406   8.734
68047SOL    HW1 5980  14.815  13.352   8.666
68047SOL    HW2 5981  14.786  13.356   8.815
68048SOL     OW 5982   2.977   0.566   9.551
68048SOL    HW1 5983   2.896   0.552   9.501
68048SOL    HW2 5984   2.977   0.659   9.571
68049SOL     OW 5985   7.409   3.507  14.091
68049SOL    HW1 5986   7.406   3.512  13.995
68049SOL    HW2 5987   7.343   3.569  14.121
68050SOL     OW 5988   2.415   6.222   2.832
68050SOL    HW1 5989   2.340   6.195   2.885
68050SOL    HW2 5990   2.427   6.150   2.769
68051SOL     OW 5991  11.831   3.712  12.454
68051SOL    HW1 5992  11.780   3.790  12.433
68051SOL    HW2 5993  11.802   3.647  12.389
68052SOL     OW 5994   2.890   5.465   2.538
68052SOL    HW1 5995   2.937   5.543   2.567
68052SOL    HW2 5996   2.927   5.393   2.589
68053SOL     OW 5997  10.496   5.093   8.939
68053SOL    HW1 5998  10.515   5.064   9.029
68053SOL    HW2 5999  10.579   5.081   8.892
68054SOL     OW 6000   8.838   3.986  14.125
68054SOL    HW1 6001   8.823   3.994  14.219
68054SOL    HW2 6002   8.914   3.928  14.118
68055SOL     OW 6003   6.307  12.862  12.366
68055SOL    HW1 6004   6.391  12.876  12.409
68055SOL    HW2 6005   6.284  12.772  12.387
68056SOL     OW 6006   7.229   7.693   7.621
68056SOL    HW1 6007   7.153   7.726   7.667
68056SOL    HW2 6008   7.279   7.771   7.596
68057SOL     OW 6009   8.511   2.318   4.889
68057SOL    HW1 6010   8.493   2.384   4.956
68057SOL    HW2 6011   8.543   2.368   4.814
68058SOL     OW 6012   4.417   1.973  11.199
68058SOL    HW1 6013   4.399   2.050  11.145
68058SOL    HW2 6014   4.416   2.006  11.289
68059SOL     OW 6015   5.276   6.987  11.894
68059SOL    HW1 6016   5.354   6.986  11.838
68059SOL    HW2 6017   5.308   6.959  11.980
68060SOL     OW 6018   5.427   1.122   2.300
68060SOL    HW1 6019   5.517   1.136   2.326
68060SOL    HW2 6020   5.417   1.027   2.293
68061SOL     OW 6021  14.362  14.705   3.733
68061SOL    HW1 6022  14.381  14.798   3.741
68061SOL    HW2 6023  14.444  14.666   3.702
68062SOL     OW 6024   4.276   3.789   4.999
68062SOL    HW1 6025   4.333   3.721   4.962
68062SOL    HW2 6026   4.202   3.740   5.036
68063SOL     OW 6027   7.386   8.359   1.889
68063SOL    HW1 6028   7.316   8.352   1.824
68063SOL    HW2 6029   7.339   8.364   1.973
68064SOL     OW 6030   0.517  14.236  14.604
68064SOL    HW1 6031   0.513  14.210  14.697
68064SOL    HW2 6032   0.460  14.313  14.599
68065SOL     OW 6033   8.603   1.836   6.922
68065SOL    HW1 6034   8.662   1.851   6.996
68065SOL    HW2 6035   8.654   1.780   6.862
68066SOL     OW 6036   8.042  13.609   5.708
68066SOL    HW1 6037   7.988  13.586   5.632
68066SOL    HW2 6038   8.046  13.529   5.760
68067SOL     OW 6039   2.577   0.547   0.996
68067SOL    HW1 6040   2.491   0.572   1.028
68067SOL    HW2 6041   2.637   0.611   1.033
68068SOL     OW 6042  13.490   3.036  13.996
68068SOL    HW1 6043  13.518   2.945  13.986
68068SOL    HW2 6044  13.467   3.045  14.089
68069SOL     OW 6045   6.788   2.920   6.269
68069SOL    HW1 6046   6.880   2.946   6.260
68069SOL    HW2 6047   6.790   2.826   6.282
68070SOL     OW 6048   3.311  13.191   1.042
68070SOL    HW1 6049   3.367  13.268   1.059
68070SOL    HW2 6050   3.354  13.146   0.969
68071SOL     OW 6051   3.198  10.611  14.477
68071SOL    HW1 6052   3.131  10.575  14.535
68071SOL    HW2 6053   3.281  10.590  14.520
68072SOL     OW 6054   9.697   9.746   3.627
68072SOL    HW1 6055   9.603   9.741   3.639
68072SOL    HW2 6056   9.709   9.812   3.559
68073SOL     OW 6057  12.225   1.669   7.787
68073SOL    HW1 6058  12.179   1.600   7.739
68073SOL    HW2 6059  12.215   1.747   7.733
68074SOL     OW 6060  12.786   3.725   1.125
68074SOL    HW1 6061  12.777   3.671   1.204
68074SOL    HW2 6062  12.698   3.728   1.088
68075SOL     OW 6063  12.794  11.186   0.370
68075SOL    HW1 6064  12.825  11.098   0.349
68075SOL    HW2 6065  12.708  11.172   0.409
68076SOL     OW 6066   5.089   7.978   9.885
68076SOL    HW1 6067   5.103   7.924   9.807
68076SOL    HW2 6068   5.015   8.035   9.861
68077SOL     OW 6069  13.857   3.707  11.017
68077SOL    HW1 6070  13.836   3.629  11.069
68077SOL    HW2 6071  13.935   3.744  11.059
68078SOL     OW 6072   0.660   1.819  10.897
68078SOL    HW1 6073   0.571   1.844  10.871
68078SOL    HW2 6074   0.656   1.812  10.992
68079SOL     OW 6075   1.236  10.452  13.510
68079SOL    HW1 6076   1.269  10.531  13.552
68079SOL    HW2 6077   1.313  10.395  13.504
68080SOL     OW 6078  12.488  14.266   4.540
68080SOL    HW1 6079  12.492  14.317   4.621
68080SOL    HW2 6080  12.553  14.197   4.552
68081SOL     OW 6081   2.038  11.739   6.691
68081SOL    HW1 6082   2.027  11.834   6.683
68081SOL    HW2 6083   2.132  11.725   6.680
68082SOL     OW 6084   1.776  10.963  12.747
68082SOL    HW1 6085   1.838  10.891  12.734
68082SOL    HW2 6086   1.690  10.921  12.751
68083SOL     OW 6087   4.845   9.777   8.317
68083SOL    HW1 6088   4.766   9.778   8.262
68083SOL    HW2 6089   4.916   9.758   8.256
68084SOL     OW 6090  14.605   2.821   4.908
68084SOL    HW1 6091  14.578   2.884   4.842
68084SOL    HW2 6092  14.544   2.834   4.980
68085SOL     OW 6093   2.051   2.823  10.912
68085SOL    HW1 6094   2.055   2.916  10.935
68085SOL    HW2 6095   1.996   2.820  10.834
68086SOL     OW 6096   9.929   0.627  13.966
68086SOL    HW1 6097   9.990   0.665  14.030
68086SOL    HW2 6098   9.966   0.541  13.946
68087SOL     OW 6099   8.212  12.924   8.760
68087SOL    HW1 6100   8.219  12.938   8.855
68087SOL    HW2 6101   8.178  13.006   8.725
68088SOL     OW 6102  10.654  11.560   7.520
68088SOL    HW1 6103  10.638  11.542   7.612
68088SOL    HW2 6104  10.730  11.618   7.519
68089SOL     OW 6105  13.162   6.387   2.258
68089SOL    HW1 6106  13.192   6.403   2.169
68089SOL    HW2 6107  13.070   6.365   2.250
68090SOL     OW 6108   3.919  14.451   2.052
68090SOL    HW1 6109   3.974  14.526   2.077
68090SOL    HW2 6110   3.930  14.388   2.123
68091SOL     OW 6111   6.515   0.013   5.791
68091SOL    HW1 6112   6.550  14.809   5.752
68091SOL    HW2 6113   6.585   0.077   5.780
68092SOL     OW 6114   6.943  10.780   2.944
68092SOL    HW1 6115   6.955  10.754   3.036
68092SOL    HW2 6116   6.985  10.711   2.894
68093SOL     OW 6117  13.712  10.874  14.733
68093SOL    HW1 6118  13.636  10.824  14.702
68093SOL    HW2 6119  13.726  10.940  14.666
68094SOL     OW 6120   6.000   4.609  11.813
68094SOL    HW1 6121   6.017   4.515  11.815
68094SOL    HW2 6122   5.928   4.619  11.751
68095SOL     OW 6123   5.868  11.712  11.731
68095SOL    HW1 6124   5.811  11.644  11.694
68095SOL    HW2 6125   5.879  11.775  11.660
68096SOL     OW 6126  11.030   3.041   1.145
68096SOL    HW1 6127  11.049   3.130   1.175
68096SOL    HW2 6128  11.065   2.984   1.214
68097SOL     OW 6129  12.224  12.202   3.840
68097SOL    HW1 6130  12.249  12.196   3.748
68097SOL    HW2 6131  12.143  12.151   3.846
68098SOL     OW 6132   4.569   8.621   7.424
68098SOL    HW1 6133   4.597   8.569   7.499
68098SOL    HW2 6134   4.499   8.569   7.384
68099SOL     OW 6135  12.217   1.523   1.263
68099SOL    HW1 6136  12.285   1.476   1.216
68099SOL    HW2 6137  12.151   1.457   1.282
68100SOL     OW 6138   2.954   5.313   6.086
68100SOL    HW1 6139   2.920   5.245   6.144
68100SOL    HW2 6140   3.044   5.288   6.069
68101SOL     OW 6141  10.309   5.920   3.884
68101SOL    HW1 6142  10.252   5.846   3.908
68101SOL    HW2 6143  10.263   5.997   3.918
68102SOL     OW 6144   0.026  11.350   6.014
68102SOL    HW1 6145   0.089  11.285   5.982
68102SOL    HW2 6146   0.079  11.429   6.026
68103SOL     OW 6147  13.754   7.371  14.713
68103SOL    HW1 6148  13.729   7.452  14.669
68103SOL    HW2 6149  13.687   7.358  14.780
68104SOL     OW 6150   8.949   4.478   7.362
68104SOL    HW1 6151   8.980   4.567   7.379
68104SOL    HW2 6152   9.029   4.425   7.357
68105SOL     OW 6153   1.183  13.462   4.040
68105SOL    HW1 6154   1.089  13.476   4.031
68105SOL    HW2 6155   1.207  13.505   4.122
68106SOL     OW 6156   9.867  11.024  12.533
68106SOL    HW1 6157   9.911  11.041  12.449
68106SOL    HW2 6158   9.864  11.109  12.576
68107SOL     OW 6159   1.881   0.373   3.740
68107SOL    HW1 6160   1.930   0.454   3.726
68107SOL    HW2 6161   1.799   0.402   3.780
68108SOL     OW 6162  13.951   5.518   0.152
68108SOL    HW1 6163  13.925   5.483   0.237
68108SOL    HW2 6164  13.881   5.491   0.092
68109SOL     OW 6165  12.142  11.460   9.173
68109SOL    HW1 6166  12.209  11.395   9.196
68109SOL    HW2 6167  12.192  11.532   9.134
68110SOL     OW 6168  12.902  10.499   8.632
68110SOL    HW1 6169  12.992  10.515   8.602
68110SOL    HW2 6170  12.870  10.586   8.657
68111SOL     OW 6171   3.606   9.830   7.645
68111SOL    HW1 6172   3.607   9.816   7.551
68111SOL    HW2 6173   3.522   9.873   7.662
68112SOL     OW 6174   7.950   2.494  10.668
68112SOL    HW1 6175   7.957   2.424  10.732
68112SOL    HW2 6176   7.942   2.449  10.584
68113SOL     OW 6177  10.213  11.581   2.169
68113SOL    HW1 6178  10.246  11.555   2.255
68113SOL    HW2 6179  10.118  11.576   2.176
68114SOL     OW 6180   5.891  12.343  13.287
68114SOL    HW1 6181   5.951  12.283  13.244
68114SOL    HW2 6182   5.933  12.428  13.281
68115SOL     OW 6183   5.307  14.334   1.858
68115SOL    HW1 6184   5.345  14.412   1.818
68115SOL    HW2 6185   5.343  14.261   1.806
68116SOL     OW 6186  10.562   2.911  14.542
68116SOL    HW1 6187  10.503   2.986  14.539
68116SOL    HW2 6188  10.607   2.918  14.626
68117SOL     OW 6189   6.331  10.532  10.741
68117SOL    HW1 6190   6.409  10.573  10.702
68117SOL    HW2 6191   6.290  10.602  10.791
68118SOL     OW 6192   2.986   3.616   0.726
68118SOL    HW1 6193   3.058   3.599   0.786
68118SOL    HW2 6194   2.942   3.532   0.717
68119SOL     OW 6195   1.981  10.234   0.326
68119SOL    HW1 6196   2.062  10.217   0.278
68119SOL    HW2 6197   1.938  10.304   0.277
68120SOL     OW 6198   4.695   5.540   7.553
68120SOL    HW1 6199   4.705   5.528   7.647
68120SOL    HW2 6200   4.601   5.553   7.540
68121SOL     OW 6201  14.719  12.517   6.922
68121SOL    HW1 6202  14.649  12.501   6.859
68121SOL    HW2 6203  14.673  12.532   7.005
68122SOL     OW 6204  12.080   5.759   7.261
68122SOL    HW1 6205  12.098   5.666   7.246
68122SOL    HW2 6206  12.015   5.781   7.194
68123SOL     OW 6207   0.366  11.686  12.497
68123SOL    HW1 6208   0.305  11.744  12.452
68123SOL    HW2 6209   0.319  11.603  12.506
68124SOL     OW 6210  10.902   9.955  14.593
68124SOL    HW1 6211  10.847   9.980  14.519
68124SOL    HW2 6212  10.842   9.918  14.656
68125SOL     OW 6213   9.024   0.386   8.124
68125SOL    HW1 6214   9.012   0.375   8.218
68125SOL    HW2 6215   8.952   0.442   8.096
68126SOL     OW 6216   0.351   9.776   7.192
68126SOL    HW1 6217   0.444   9.797   7.203
68126SOL    HW2 6218   0.305   9.830   7.255
68127SOL     OW 6219  12.315   8.174  12.233
68127SOL    HW1 6220  12.252   8.103  12.225
68127SOL    HW2 6221  12.345   8.192  12.144
68128SOL     OW 6222  10.774   1.171   4.194
68128SOL    HW1 6223  10.838   1.239   4.176
68128SOL    HW2 6224  10.824   1.089   4.188
68129SOL     OW 6225  12.901  14.620   2.411
68129SOL    HW1 6226  12.810  14.643   2.430
68129SOL    HW2 6227  12.900  14.526   2.397
68130SOL     OW 6228   5.663  14.466  10.422
68130SOL    HW1 6229   5.699  14.533  10.480
68130SOL    HW2 6230   5.628  14.516  10.348
68131SOL     OW 6231  11.346  14.046   4.036
68131SOL    HW1 6232  11.255  14.076   4.037
68131SOL    HW2 6233  11.392  14.109   4.091
68132SOL     OW 6234  11.459   1.513   6.762
68132SOL    HW1 6235  11.553   1.529   6.764
68132SOL    HW2 6236  11.451   1.418   6.753
68133SOL     OW 6237   4.911   8.742   3.132
68133SOL    HW1 6238   4.862   8.660   3.138
68133SOL    HW2 6239   5.001   8.714   3.118
68134SOL     OW 6240   7.146  10.812  14.155
68134SOL    HW1 6241   7.147  10.716  14.148
68134SOL    HW2 6242   7.204  10.841  14.085
68135SOL     OW 6243   5.926   2.262   5.781
68135SOL    HW1 6244   5.993   2.294   5.841
68135SOL    HW2 6245   5.975   2.230   5.706
68136SOL     OW 6246  13.604   3.580  10.627
68136SOL    HW1 6247  13.592   3.485  10.617
68136SOL    HW2 6248  13.630   3.591  10.719
68137SOL     OW 6249  10.606   5.039   6.179
68137SOL    HW1 6250  10.556   5.116   6.152
68137SOL    HW2 6251  10.547   4.990   6.235
68138SOL     OW 6252  13.305   8.259  12.515
68138SOL    HW1 6253  13.365   8.226  12.582
68138SOL    HW2 6254  13.238   8.305  12.563
68139SOL     OW 6255   4.866   8.426   8.190
68139SOL    HW1 6256   4.940   8.396   8.242
68139SOL    HW2 6257   4.892   8.513   8.160
68140SOL     OW 6258  11.623  13.957   4.061
68140SOL    HW1 6259  11.665  14.033   4.102
68140SOL    HW2 6260  11.536  13.987   4.038
68141SOL     OW 6261   2.688   5.805  11.071
68141SOL    HW1 6262   2.629   5.857  11.015
68141SOL    HW2 6263   2.774   5.843  11.057
68142SOL     OW 6264  11.558   0.544   8.859
68142SOL    HW1 6265  11.464   0.561   8.855
68142SOL    HW2 6266  11.574   0.483   8.787
68143SOL     OW 6267   0.333   3.636  13.002
68143SOL    HW1 6268   0.269   3.612  13.069
68143SOL    HW2 6269   0.281   3.660  12.926
68144SOL     OW 6270   0.617   2.643   3.502
68144SOL    HW1 6271   0.665   2.630   3.584
68144SOL    HW2 6272   0.650   2.727   3.469
68145SOL     OW 6273   8.299   0.518   5.418
68145SOL    HW1 6274   8.204   0.529   5.413
68145SOL    HW2 6275   8.326   0.575   5.491
68146SOL     OW 6276  12.234   8.887   7.553
68146SOL    HW1 6277  12.221   8.840   7.635
68146SOL    HW2 6278  12.241   8.979   7.578
68147SOL     OW 6279   1.029  12.653  13.174
68147SOL    HW1 6280   0.998  12.579  13.121
68147SOL    HW2 6281   1.119  12.631  13.196
68148SOL     OW 6282   7.458   7.524  13.080
68148SOL    HW1 6283   7.479   7.484  13.165
68148SOL    HW2 6284   7.505   7.608  13.081
68149SOL     OW 6285  11.953  14.798   8.944
68149SOL    HW1 6286  11.881  14.856   8.916
68149SOL    HW2 6287  11.997  14.847   9.014
68150SOL     OW 6288   8.208   2.696   4.941
68150SOL    HW1 6289   8.142   2.701   5.010
68150SOL    HW2 6290   8.170   2.638   4.875
68151SOL     OW 6291   0.657  12.678  11.866
68151SOL    HW1 6292   0.654  12.731  11.786
68151SOL    HW2 6293   0.565  12.662  11.887
68152SOL     OW 6294   4.635   2.377   7.070
68152SOL    HW1 6295   4.570   2.386   7.140
68152SOL    HW2 6296   4.660   2.467   7.049
68153SOL     OW 6297   8.853   8.549  10.081
68153SOL    HW1 6298   8.926   8.553  10.143
68153SOL    HW2 6299   8.885   8.591  10.002
68154SOL     OW 6300  12.638  14.291   9.816
68154SOL    HW1 6301  12.638  14.385   9.800
68154SOL    HW2 6302  12.546  14.269   9.833
68155SOL     OW 6303   7.990  13.729   6.407
68155SOL    HW1 6304   7.976  13.721   6.312
68155SOL    HW2 6305   7.939  13.658   6.445
68156SOL     OW 6306   8.472  11.340   0.269
68156SOL    HW1 6307   8.437  11.404   0.331
68156SOL    HW2 6308   8.525  11.281   0.323
68157SOL     OW 6309   8.161  11.800   5.389
68157SOL    HW1 6310   8.188  11.836   5.304
68157SOL    HW2 6311   8.093  11.860   5.420
68158SOL     OW 6312   8.244   8.921   5.602
68158SOL    HW1 6313   8.162   8.882   5.572
68158SOL    HW2 6314   8.299   8.846   5.625
68159SOL     OW 6315   6.322   0.538   3.000
68159SOL    HW1 6316   6.368   0.544   2.916
68159SOL    HW2 6317   6.369   0.597   3.059
68160SOL     OW 6318   7.516   0.285   1.848
68160SOL    HW1 6319   7.443   0.299   1.908
68160SOL    HW2 6320   7.575   0.359   1.865
68161SOL     OW 6321  12.211   5.182   3.859
68161SOL    HW1 6322  12.261   5.101   3.870
68161SOL    HW2 6323  12.269   5.251   3.890
68162SOL     OW 6324  12.634  10.598   3.958
68162SOL    HW1 6325  12.675  10.555   3.883
68162SOL    HW2 6326  12.701  10.595   4.027
68163SOL     OW 6327  13.443   3.802   8.316
68163SOL    HW1 6328  13.521   3.751   8.338
68163SOL    HW2 6329  13.384   3.790   8.390
68164SOL     OW 6330   0.028  11.928  13.247
68164SOL    HW1 6331   0.054  11.995  13.184
68164SOL    HW2 6332   0.002  11.977  13.325
68165SOL     OW 6333   9.527   0.905   1.565
68165SOL    HW1 6334   9.443   0.947   1.545
68165SOL    HW2 6335   9.565   0.959   1.634
68166SOL     OW 6336  13.180  13.946   3.244
68166SOL    HW1 6337  13.235  13.887   3.295
68166SOL    HW2 6338  13.239  14.017   3.217
68167SOL     OW 6339   9.762   2.202  12.556
68167SOL    HW1 6340   9.705   2.264  12.511
68167SOL    HW2 6341   9.749   2.221  12.649
68168SOL     OW 6342  13.373   4.016  10.838
68168SOL    HW1 6343  13.283   3.999  10.809
68168SOL    HW2 6344  13.405   4.084  10.778
68169SOL     OW 6345   9.218   4.210  11.191
68169SOL    HW1 6346   9.244   4.264  11.117
68169SOL    HW2 6347   9.134   4.171  11.165
68170SOL     OW 6348   5.675   0.980   8.993
68170SOL    HW1 6349   5.722   0.981   9.076
68170SOL    HW2 6350   5.583   0.983   9.018
68171SOL     OW 6351   3.088   2.472   7.581
68171SOL    HW1 6352   3.043   2.390   7.599
68171SOL    HW2 6353   3.069   2.528   7.656
68172SOL     OW 6354  12.116  12.872   9.829
68172SOL    HW1 6355  12.043  12.933   9.834
68172SOL    HW2 6356  12.194  12.928   9.827
68173SOL     OW 6357   6.949   4.107   7.520
68173SOL    HW1 6358   7.025   4.081   7.572
68173SOL    HW2 6359   6.898   4.026   7.508
68174SOL     OW 6360   5.457  12.819  12.998
68174SOL    HW1 6361   5.392  12.762  12.956
68174SOL    HW2 6362   5.463  12.896  12.940
68175SOL     OW 6363   5.195  10.479  14.369
68175SOL    HW1 6364   5.164  10.569  14.367
68175SOL    HW2 6365   5.275  10.479  14.317
68176SOL     OW 6366   4.571   5.176   4.024
68176SOL    HW1 6367   4.571   5.115   4.098
68176SOL    HW2 6368   4.622   5.251   4.055
68177SOL     OW 6369  13.336   4.225   4.766
68177SOL    HW1 6370  13.329   4.259   4.676
68177SOL    HW2 6371  13.326   4.130   4.756
68178SOL     OW 6372   0.660   6.041  13.322
68178SOL    HW1 6373   0.752   6.063  13.308
68178SOL    HW2 6374   0.663   5.961  13.375
68179SOL     OW 6375   7.880   8.520   9.508
68179SOL    HW1 6376   7.926   8.565   9.437
68179SOL    HW2 6377   7.830   8.452   9.464
68180SOL     OW 6378   0.780   5.845  13.079
68180SOL    HW1 6379   0.767   5.930  13.037
68180SOL    HW2 6380   0.830   5.794  13.016
68181SOL     OW 6381  10.919   4.918  14.725
68181SOL    HW1 6382  10.932   4.956  14.638
68181SOL    HW2 6383  10.954   4.830  14.718
68182SOL     OW 6384   6.003   4.316  11.838
68182SOL    HW1 6385   5.960   4.242  11.795
68182SOL    HW2 6386   6.089   4.281  11.865
68183SOL     OW 6387   4.488   9.892  11.457
68183SOL    HW1 6388   4.534   9.890  11.542
68183SOL    HW2 6389   4.504   9.980  11.424
68184SOL     OW 6390   1.247  14.400   6.172
68184SOL    HW1 6391   1.229  14.347   6.249
68184SOL    HW2 6392   1.263  14.488   6.206
68185SOL     OW 6393   6.861  14.050   9.935
68185SOL    HW1 6394   6.892  13.998   9.860
68185SOL    HW2 6395   6.839  13.985  10.002
68186SOL     OW 6396   0.104  13.311   3.116
68186SOL    HW1 6397   0.092  13.287   3.024
68186SOL    HW2 6398   0.039  13.380   3.132
68187SOL     OW 6399   9.675   5.333   1.152
68187SOL    HW1 6400   9.587   5.295   1.160
68187SOL    HW2 6401   9.660   5.421   1.120
68188SOL     OW 6402   6.708   8.780   1.183
68188SOL    HW1 6403   6.765   8.836   1.131
68188SOL    HW2 6404   6.693   8.829   1.264
68189SOL     OW 6405  10.732  11.728  13.661
68189SOL    HW1 6406  10.691  11.657  13.613
68189SOL    HW2 6407  10.794  11.766  13.599
68190SOL     OW 6408   6.586   7.786   4.352
68190SOL    HW1 6409   6.641   7.813   4.278
68190SOL    HW2 6410   6.526   7.860   4.365
68191SOL     OW 6411  13.091   9.119   0.078
68191SOL    HW1 6412  13.017   9.170   0.111
68191SOL    HW2 6413  13.056   9.070   0.004
68192SOL     OW 6414   7.082   6.553   5.351
68192SOL    HW1 6415   7.135   6.476   5.329
68192SOL    HW2 6416   6.995   6.518   5.368
68193SOL     OW 6417  13.461  11.355   4.986
68193SOL    HW1 6418  13.551  11.358   4.953
68193SOL    HW2 6419  13.416  11.293   4.928
68194SOL     OW 6420   3.379  14.320   6.180
68194SOL    HW1 6421   3.386  14.357   6.268
68194SOL    HW2 6422   3.444  14.250   6.178
68195SOL     OW 6423   8.152  10.746  13.551
68195SOL    HW1 6424   8.098  10.810  13.505
68195SOL    HW2 6425   8.090  10.687  13.594
68196SOL     OW 6426   5.927  10.336  14.625
68196SOL    HW1 6427   5.927  10.427  14.653
68196SOL    HW2 6428   5.938  10.340  14.530
68197SOL     OW 6429   9.780   3.152   9.554
68197SOL    HW1 6430   9.762   3.164   9.461
68197SOL    HW2 6431   9.874   3.167   9.562
68198SOL     OW 6432   7.316   4.530  13.670
68198SOL    HW1 6433   7.254   4.461  13.693
68198SOL    HW2 6434   7.363   4.494  13.594
68199SOL     OW 6435   0.762  11.076   8.082
68199SOL    HW1 6436   0.856  11.071   8.063
68199SOL    HW2 6437   0.744  11.170   8.090
68200SOL     OW 6438   6.079   9.146  14.846
68200SOL    HW1 6439   5.994   9.146  14.802
68200SOL    HW2 6440   6.090   9.057   0.001
68201SOL     OW 6441  13.585  10.649   3.313
68201SOL    HW1 6442  13.646  10.687   3.376
68201SOL    HW2 6443  13.611  10.557   3.307
68202SOL     OW 6444   6.218   0.049   7.233
68202SOL    HW1 6445   6.188   0.031   7.145
68202SOL    HW2 6446   6.159  14.876   7.290
68203SOL     OW 6447  12.438   3.661  10.983
68203SOL    HW1 6448  12.378   3.735  10.984
68203SOL    HW2 6449  12.442   3.631  11.074
68204SOL     OW 6450   3.147   1.025   3.191
68204SOL    HW1 6451   3.145   1.025   3.287
68204SOL    HW2 6452   3.060   0.994   3.165
68205SOL     OW 6453  14.747   8.498  12.067
68205SOL    HW1 6454  14.744   8.455  11.982
68205SOL    HW2 6455  14.683   8.569  12.059
68206SOL     OW 6456   7.084   8.971  13.898
68206SOL    HW1 6457   7.089   8.934  13.810
68206SOL    HW2 6458   7.106   9.064  13.886
68207SOL     OW 6459   6.903   9.185   1.881
68207SOL    HW1 6460   6.816   9.226   1.887
68207SOL    HW2 6461   6.941   9.223   1.802
68208SOL     OW 6462   6.596   1.183   3.486
68208SOL    HW1 6463   6.507   1.218   3.488
68208SOL    HW2 6464   6.589   1.097   3.528
68209SOL     OW 6465   7.722   9.912   9.187
68209SOL    HW1 6466   7.664   9.840   9.209
68209SOL    HW2 6467   7.679   9.990   9.222
68210SOL     OW 6468   3.100   3.114   7.000
68210SOL    HW1 6469   3.055   3.186   7.044
68210SOL    HW2 6470   3.036   3.042   7.001
68211SOL     OW 6471   4.947   4.952   5.345
68211SOL    HW1 6472   4.950   5.006   5.266
68211SOL    HW2 6473   5.005   4.996   5.407
68212SOL     OW 6474  10.996   0.723  13.710
68212SOL    HW1 6475  11.046   0.643  13.693
68212SOL    HW2 6476  11.052   0.793  13.677
68213SOL     OW 6477   8.068   3.405  11.052
68213SOL    HW1 6478   8.134   3.336  11.058
68213SOL    HW2 6479   7.994   3.372  11.102
68214SOL     OW 6480   7.393  12.163   6.171
68214SOL    HW1 6481   7.477  12.206   6.153
68214SOL    HW2 6482   7.384  12.099   6.101
68215SOL     OW 6483  12.371   5.028   6.388
68215SOL    HW1 6484  12.430   5.018   6.463
68215SOL    HW2 6485  12.299   5.082   6.421
68216SOL     OW 6486   1.715   3.478  14.358
68216SOL    HW1 6487   1.667   3.533  14.295
68216SOL    HW2 6488   1.755   3.540  14.418
68217SOL     OW 6489   6.876  10.774  13.652
68217SOL    HW1 6490   6.927  10.791  13.573
68217SOL    HW2 6491   6.915  10.694  13.687
68218SOL     OW 6492  11.396  14.669   4.997
68218SOL    HW1 6493  11.389  14.653   4.903
68218SOL    HW2 6494  11.482  14.633   5.021
68219SOL     OW 6495  12.805   8.809   9.023
68219SOL    HW1 6496  12.745   8.734   9.025
68219SOL    HW2 6497  12.755   8.880   9.062
68220SOL     OW 6498   1.634   3.023   1.317
68220SOL    HW1 6499   1.687   2.962   1.368
68220SOL    HW2 6500   1.650   3.108   1.358
68221SOL     OW 6501   4.488   6.300   9.837
68221SOL    HW1 6502   4.538   6.337   9.765
68221SOL    HW2 6503   4.471   6.374   9.895
68222SOL     OW 6504  14.684  13.694  10.061
68222SOL    HW1 6505  14.770  13.734  10.074
68222SOL    HW2 6506  14.625  13.768  10.048
68223SOL     OW 6507   7.921  10.762   4.847
68223SOL    HW1 6508   7.827  10.773   4.832
68223SOL    HW2 6509   7.962  10.818   4.782
68224SOL     OW 6510   9.487   9.654   3.409
68224SOL    HW1 6511   9.486   9.686   3.499
68224SOL    HW2 6512   9.580   9.643   3.389
68225SOL     OW 6513   4.645   1.475  13.396
68225SOL    HW1 6514   4.725   1.488  13.448
68225SOL    HW2 6515   4.574   1.506  13.452
68226SOL     OW 6516  14.509   4.738   2.455
68226SOL    HW1 6517  14.512   4.797   2.530
68226SOL    HW2 6518  14.578   4.769   2.397
68227SOL     OW 6519   7.842   4.657  10.198
68227SOL    HW1 6520   7.926   4.700  10.183
68227SOL    HW2 6521   7.848   4.621  10.286
68228SOL     OW 6522   7.182   6.350   7.581
68228SOL    HW1 6523   7.264   6.343   7.628
68228SOL    HW2 6524   7.127   6.281   7.618
68229SOL     OW 6525  10.622   0.691   4.253
68229SOL    HW1 6526  10.677   0.695   4.175
68229SOL    HW2 6527  10.680   0.660   4.322
68230SOL     OW 6528   9.676   0.287  13.954
68230SOL    HW1 6529   9.597   0.237  13.976
68230SOL    HW2 6530   9.730   0.225  13.905
68231SOL     OW 6531   9.207   5.102   8.944
68231SOL    HW1 6532   9.279   5.133   8.890
68231SOL    HW2 6533   9.237   5.018   8.979
68232SOL     OW 6534   3.380   8.975   6.221
68232SOL    HW1 6535   3.418   8.921   6.151
68232SOL    HW2 6536   3.450   8.985   6.285
68233SOL     OW 6537   1.677   2.598  10.194
68233SOL    HW1 6538   1.642   2.540  10.262
68233SOL    HW2 6539   1.638   2.683  10.212
68234SOL     OW 6540   9.347   4.908   9.478
68234SOL    HW1 6541   9.442   4.896   9.477
68234SOL    HW2 6542   9.324   4.909   9.571
68235SOL     OW 6543   6.896  13.122  11.074
68235SOL    HW1 6544   6.871  13.158  10.988
68235SOL    HW2 6545   6.957  13.186  11.110
68236SOL     OW 6546  10.272  13.800   3.518
68236SOL    HW1 6547  10.229  13.728   3.564
68236SOL    HW2 6548  10.364  13.791   3.540
68237SOL     OW 6549   5.043   2.544   0.019
68237SOL    HW1 6550   5.108   2.501   0.075
68237SOL    HW2 6551   5.001   2.472  14.848
68238SOL     OW 6552  11.468   7.964   7.027
68238SOL    HW1 6553  11.483   7.991   6.937
68238SOL    HW2 6554  11.529   8.016   7.079
68239SOL     OW 6555  12.651   1.695   7.487
68239SOL    HW1 6556  12.732   1.684   7.538
68239SOL    HW2 6557  12.586   1.643   7.535
68240SOL     OW 6558  14.031  14.116   0.367
68240SOL    HW1 6559  14.115  14.107   0.322
68240SOL    HW2 6560  13.994  14.027   0.367
68241SOL     OW 6561  14.143  12.916  13.363
68241SOL    HW1 6562  14.119  12.869  13.442
68241SOL    HW2 6563  14.172  12.848  13.302
68242SOL     OW 6564   7.989   8.232   3.858
68242SOL    HW1 6565   7.960   8.171   3.926
68242SOL    HW2 6566   7.973   8.184   3.776
68243SOL     OW 6567   5.878  12.002   9.891
68243SOL    HW1 6568   5.951  11.989   9.951
68243SOL    HW2 6569   5.873  12.097   9.880
68244SOL     OW 6570   2.765  13.401   0.200
68244SOL    HW1 6571   2.815  13.321   0.185
68244SOL    HW2 6572   2.768  13.447   0.116
68245SOL     OW 6573   8.198   4.479   1.575
68245SOL    HW1 6574   8.186   4.444   1.663
68245SOL    HW2 6575   8.291   4.500   1.570
68246SOL     OW 6576   5.544   1.200   4.159
68246SOL    HW1 6577   5.488   1.197   4.237
68246SOL    HW2 6578   5.633   1.205   4.194
68247SOL     OW 6579  11.222  14.203  13.675
68247SOL    HW1 6580  11.225  14.227  13.768
68247SOL    HW2 6581  11.129  14.204  13.652
68248SOL     OW 6582   8.614  13.237   1.849
68248SOL    HW1 6583   8.690  13.204   1.898
68248SOL    HW2 6584   8.635  13.220   1.757
68249SOL     OW 6585   5.761   2.270   3.837
68249SOL    HW1 6586   5.677   2.226   3.829
68249SOL    HW2 6587   5.757   2.316   3.920
68250SOL     OW 6588   1.076   4.638   0.970
68250SOL    HW1 6589   1.163   4.678   0.972
68250SOL    HW2 6590   1.065   4.610   0.879
68251SOL     OW 6591   8.151  10.020   6.355
68251SOL    HW1 6592   8.063  10.056   6.341
68251SOL    HW2 6593   8.179  10.058   6.438
68252SOL     OW 6594   6.589   0.473   9.388
68252SOL    HW1 6595   6.502   0.447   9.360
68252SOL    HW2 6596   6.617   0.537   9.322
68253SOL     OW 6597   0.966  12.130   4.192
68253SOL    HW1 6598   0.873  12.120   4.173
68253SOL    HW2 6599   0.969  12.167   4.280
68254SOL     OW 6600  14.362   4.013   9.530
68254SOL    HW1 6601  14.375   3.952   9.457
68254SOL    HW2 6602  14.422   3.981   9.598
68255SOL     OW 6603   9.280   6.885   3.089
68255SOL    HW1 6604   9.251   6.797   3.112
68255SOL    HW2 6605   9.201   6.927   3.054
68256SOL     OW 6606  11.235   0.221   0.342
68256SOL    HW1 6607  11.194   0.211   0.428
68256SOL    HW2 6608  11.288   0.142   0.332
68257SOL     OW 6609   4.988  10.481   9.844
68257SOL    HW1 6610   4.948  10.565   9.823
68257SOL    HW2 6611   5.057  10.470   9.780
68258SOL     OW 6612   3.271   7.077  10.815
68258SOL    HW1 6613   3.359   7.094  10.784
68258SOL    HW2 6614   3.241   7.001  10.766
68259SOL     OW 6615   7.691   0.062  10.015
68259SOL    HW1 6616   7.646  14.862   9.979
68259SOL    HW2 6617   7.749   0.026  10.083
68260SOL     OW 6618   2.545   6.342   0.664
68260SOL    HW1 6619   2.541   6.252   0.698
68260SOL    HW2 6620   2.593   6.391   0.731
68261SOL     OW 6621   6.206   8.328   5.862
68261SOL    HW1 6622   6.173   8.241   5.882
68261SOL    HW2 6623   6.246   8.320   5.775
68262SOL     OW 6624  10.544  11.711   7.003
68262SOL    HW1 6625  10.576  11.652   7.071
68262SOL    HW2 6626  10.453  11.683   6.988
68263SOL     OW 6627  12.356   7.431   4.425
68263SOL    HW1 6628  12.417   7.459   4.494
68263SOL    HW2 6629  12.407   7.374   4.369
68264SOL     OW 6630   5.914   8.026  14.044
68264SOL    HW1 6631   5.958   8.046  13.961
68264SOL    HW2 6632   5.862   7.948  14.025
68265SOL     OW 6633   4.580   3.013  11.953
68265SOL    HW1 6634   4.485   2.999  11.957
68265SOL    HW2 6635   4.589   3.108  11.943
68266SOL     OW 6636   4.845   4.746   0.210
68266SOL    HW1 6637   4.881   4.686   0.144
68266SOL    HW2 6638   4.886   4.830   0.190
68267SOL     OW 6639   5.384   8.461  14.426
68267SOL    HW1 6640   5.353   8.488  14.339
68267SOL    HW2 6641   5.469   8.419  14.409
68268SOL     OW 6642   3.546   5.567   2.175
68268SOL    HW1 6643   3.563   5.570   2.269
68268SOL    HW2 6644   3.548   5.475   2.152
68269SOL     OW 6645   4.157   7.019  12.582
68269SOL    HW1 6646   4.086   7.008  12.645
68269SOL    HW2 6647   4.202   6.934  12.582
68270SOL     OW 6648   3.049   0.498   7.138
68270SOL    HW1 6649   3.120   0.441   7.167
68270SOL    HW2 6650   3.056   0.498   7.042
68271SOL     OW 6651   7.907  11.304   1.526
68271SOL    HW1 6652   7.814  11.325   1.541
68271SOL    HW2 6653   7.948  11.389   1.511
68272SOL     OW 6654  13.550   7.480   7.292
68272SOL    HW1 6655  13.457   7.501   7.299
68272SOL    HW2 6656  13.585   7.545   7.232
68273SOL     OW 6657   5.437   9.117   7.426
68273SOL    HW1 6658   5.410   9.197   7.470
68273SOL    HW2 6659   5.361   9.059   7.432
68274SOL     OW 6660   8.930   1.688   4.633
68274SOL    HW1 6661   8.980   1.766   4.655
68274SOL    HW2 6662   8.895   1.658   4.716
68275SOL     OW 6663   4.853   9.001   3.097
68275SOL    HW1 6664   4.884   8.912   3.086
68275SOL    HW2 6665   4.802   9.019   3.018
68276SOL     OW 6666   7.776   1.536   1.709
68276SOL    HW1 6667   7.814   1.621   1.731
68276SOL    HW2 6668   7.711   1.555   1.642
68277SOL     OW 6669   1.862  10.367  10.789
68277SOL    HW1 6670   1.777  10.340  10.753
68277SOL    HW2 6671   1.851  10.461  10.806
68278SOL     OW 6672   3.606   0.777  11.681
68278SOL    HW1 6673   3.578   0.688  11.706
68278SOL    HW2 6674   3.567   0.791  11.595
68279SOL     OW 6675   3.848  12.112   9.641
68279SOL    HW1 6676   3.769  12.071   9.676
68279SOL    HW2 6677   3.873  12.177   9.707
68280SOL     OW 6678   1.636   0.105   1.099
68280SOL    HW1 6679   1.553   0.071   1.064
68280SOL    HW2 6680   1.702   0.078   1.034
68281SOL     OW 6681  13.807   6.002   3.376
68281SOL    HW1 6682  13.822   6.040   3.289
68281SOL    HW2 6683  13.794   6.077   3.434
68282SOL     OW 6684   0.910  10.539   0.483
68282SOL    HW1 6685   0.911  10.445   0.461
68282SOL    HW2 6686   0.885  10.582   0.402
68283SOL     OW 6687   5.066  12.572  10.804
68283SOL    HW1 6688   5.157  12.565  10.776
68283SOL    HW2 6689   5.044  12.665  10.794
68284SOL     OW 6690   6.356  11.335   0.641
68284SOL    HW1 6691   6.416  11.289   0.582
68284SOL    HW2 6692   6.359  11.285   0.722
68285SOL     OW 6693   7.240   5.709  13.439
68285SOL    HW1 6694   7.204   5.636  13.389
68285SOL    HW2 6695   7.222   5.687  13.531
68286SOL     OW 6696   3.872   6.633   9.022
68286SOL    HW1 6697   3.943   6.610   8.961
68286SOL    HW2 6698   3.859   6.727   9.009
68287SOL     OW 6699  10.476   6.164   6.674
68287SOL    HW1 6700  10.429   6.211   6.743
68287SOL    HW2 6701  10.449   6.207   6.593
68288SOL     OW 6702   3.924   1.740   7.594
68288SOL    HW1 6703   3.939   1.676   7.663
68288SOL    HW2 6704   3.976   1.708   7.520
68289SOL     OW 6705   0.211   0.733   4.318
68289SOL    HW1 6706   0.282   0.792   4.342
68289SOL    HW2 6707   0.224   0.716   4.225
68290SOL     OW 6708  12.993   0.266   9.828
68290SOL    HW1 6709  13.073   0.316   9.843
68290SOL    HW2 6710  12.924   0.332   9.824
68291SOL     OW 6711   3.022   8.149   8.033
68291SOL    HW1 6712   2.969   8.228   8.024
68291SOL    HW2 6713   3.102   8.179   8.076
68292SOL     OW 6714   0.593  12.842   4.282
68292SOL    HW1 6715   0.686  12.861   4.294
68292SOL    HW2 6716   0.549  12.895   4.349
68293SOL     OW 6717   6.022   0.527  11.295
68293SOL    HW1 6718   5.942   0.579  11.284
68293SOL    HW2 6719   6.083   0.563  11.231
68294SOL     OW 6720   9.345   6.373   1.981
68294SOL    HW1 6721   9.418   6.319   2.009
68294SOL    HW2 6722   9.282   6.367   2.053
68295SOL     OW 6723   7.041   2.930   8.777
68295SOL    HW1 6724   7.070   2.942   8.868
68295SOL    HW2 6725   7.086   2.851   8.748
68296SOL     OW 6726   1.698  10.735   3.684
68296SOL    HW1 6727   1.717  10.749   3.777
68296SOL    HW2 6728   1.640  10.658   3.684
68297SOL     OW 6729   0.372  13.976   1.118
68297SOL    HW1 6730   0.337  13.993   1.031
68297SOL    HW2 6731   0.335  13.891   1.143
68298SOL     OW 6732  12.075   0.437   7.149
68298SOL    HW1 6733  12.093   0.348   7.119
68298SOL    HW2 6734  12.055   0.486   7.069
68299SOL     OW 6735  12.403   6.743   4.813
68299SOL    HW1 6736  12.368   6.664   4.773
68299SOL    HW2 6737  12.360   6.748   4.899
68300SOL     OW 6738   3.903  13.792   2.669
68300SOL    HW1 6739   3.933  13.863   2.612
68300SOL    HW2 6740   3.924  13.822   2.758
68301SOL     OW 6741   5.348  10.842  12.281
68301SOL    HW1 6742   5.345  10.873  12.190
68301SOL    HW2 6743   5.428  10.789  12.285
68302SOL     OW 6744   3.902   3.576  13.260
68302SOL    HW1 6745   3.936   3.661  13.286
68302SOL    HW2 6746   3.968   3.541  13.201
68303SOL     OW 6747   4.001  11.128   8.837
68303SOL    HW1 6748   3.988  11.074   8.760
68303SOL    HW2 6749   3.925  11.111   8.892
68304SOL     OW 6750   3.261   3.532   2.772
68304SOL    HW1 6751   3.197   3.461   2.781
68304SOL    HW2 6752   3.208   3.611   2.760
68305SOL     OW 6753  10.847   2.547   0.292
68305SOL    HW1 6754  10.938   2.568   0.317
68305SOL    HW2 6755  10.796   2.619   0.328
68306SOL     OW 6756  13.047   9.625   0.554
68306SOL    HW1 6757  13.135   9.589   0.570
68306SOL    HW2 6758  12.988   9.560   0.593
68307SOL     OW 6759   4.579  10.358  10.395
68307SOL    HW1 6760   4.632  10.409  10.334
68307SOL    HW2 6761   4.492  10.354  10.356
68308SOL     OW 6762  12.974   8.855   6.032
68308SOL    HW1 6763  13.025   8.935   6.018
68308SOL    HW2 6764  12.885   8.879   6.008
68309SOL     OW 6765  13.777   4.844   6.089
68309SOL    HW1 6766  13.730   4.919   6.125
68309SOL    HW2 6767  13.851   4.831   6.148
68310SOL     OW 6768   5.498  14.010   4.373
68310SOL    HW1 6769   5.552  13.959   4.433
68310SOL    HW2 6770   5.434  13.948   4.339
68311SOL     OW 6771   9.873   5.897   3.336
68311SOL    HW1 6772   9.881   5.815   3.384
68311SOL    HW2 6773   9.882   5.965   3.403
68312SOL     OW 6774   3.507   5.035  13.009
68312SOL    HW1 6775   3.434   4.974  13.021
68312SOL    HW2 6776   3.585   4.980  13.011
68313SOL     OW 6777   1.646   8.839   9.877
68313SOL    HW1 6778   1.703   8.840   9.954
68313SOL    HW2 6779   1.705   8.843   9.802
68314SOL     OW 6780   8.973   4.406   4.152
68314SOL    HW1 6781   9.064   4.409   4.122
68314SOL    HW2 6782   8.923   4.380   4.075
68315SOL     OW 6783  12.621  11.851   7.421
68315SOL    HW1 6784  12.609  11.883   7.331
68315SOL    HW2 6785  12.625  11.931   7.474
68316SOL     OW 6786   3.072   5.484  11.433
68316SOL    HW1 6787   3.096   5.564  11.387
68316SOL    HW2 6788   3.156   5.448  11.464
68317SOL     OW 6789  12.610   4.798   5.623
68317SOL    HW1 6790  12.619   4.707   5.595
68317SOL    HW2 6791  12.633   4.850   5.546
68318SOL     OW 6792   4.539   8.131   6.875
68318SOL    HW1 6793   4.494   8.176   6.947
68318SOL    HW2 6794   4.592   8.199   6.833
68319SOL     OW 6795   7.418  14.423   4.436
68319SOL    HW1 6796   7.474  14.383   4.369
68319SOL    HW2 6797   7.475  14.434   4.512
68320SOL     OW 6798   6.443   4.836   0.863
68320SOL    HW1 6799   6.428   4.742   0.853
68320SOL    HW2 6800   6.400   4.876   0.787
68321SOL     OW 6801   0.814  13.121  12.778
68321SOL    HW1 6802   0.817  13.027  12.793
68321SOL    HW2 6803   0.724  13.138  12.748
68322SOL     OW 6804  10.369  14.801   7.413
68322SOL    HW1 6805  10.451  14.804   7.460
68322SOL    HW2 6806  10.305  14.771   7.477
68323SOL     OW 6807  13.100   1.570   2.275
68323SOL    HW1 6808  13.143   1.525   2.348
68323SOL    HW2 6809  13.033   1.509   2.245
68324SOL     OW 6810  13.151  14.373   5.708
68324SOL    HW1 6811  13.236  14.352   5.668
68324SOL    HW2 6812  13.140  14.467   5.693
68325SOL     OW 6813   8.906   1.258   1.073
68325SOL    HW1 6814   8.976   1.247   1.008
68325SOL    HW2 6815   8.951   1.277   1.155
68326SOL     OW 6816  14.819   1.459   4.853
68326SOL    HW1 6817  14.824   1.435   4.945
68326SOL    HW2 6818  14.735   1.504   4.844
68327SOL     OW 6819  11.061   9.022   0.992
68327SOL    HW1 6820  10.982   9.005   1.043
68327SOL    HW2 6821  11.034   9.083   0.924
68328SOL     OW 6822  12.617   7.923   0.543
68328SOL    HW1 6823  12.708   7.951   0.542
68328SOL    HW2 6824  12.621   7.828   0.556
68329SOL     OW 6825  12.206   0.500   0.537
68329SOL    HW1 6826  12.158   0.495   0.454
68329SOL    HW2 6827  12.138   0.497   0.604
68330SOL     OW 6828   7.827  13.813   0.293
68330SOL    HW1 6829   7.811  13.759   0.371
68330SOL    HW2 6830   7.743  13.856   0.277
68331SOL     OW 6831  11.760   2.504  12.605
68331SOL    HW1 6832  11.812   2.501  12.525
68331SOL    HW2 6833  11.823   2.523  12.674
68332SOL     OW 6834  14.426   1.632   2.136
68332SOL    HW1 6835  14.408   1.710   2.188
68332SOL    HW2 6836  14.498   1.657   2.079
68333SOL     OW 6837   4.227   6.781   2.758
68333SOL    HW1 6838   4.274   6.698   2.757
68333SOL    HW2 6839   4.260   6.828   2.682
68334SOL     OW 6840   7.901   1.124   8.810
68334SOL    HW1 6841   7.963   1.192   8.836
68334SOL    HW2 6842   7.864   1.093   8.892
68335SOL     OW 6843  11.544   5.204   5.593
68335SOL    HW1 6844  11.494   5.250   5.661
68335SOL    HW2 6845  11.593   5.273   5.550
68336SOL     OW 6846   1.930   2.893   2.931
68336SOL    HW1 6847   1.995   2.839   2.886
68336SOL    HW2 6848   1.929   2.975   2.880
68337SOL     OW 6849   6.668   4.482   8.612
68337SOL    HW1 6850   6.598   4.422   8.585
68337SOL    HW2 6851   6.695   4.525   8.532
68338SOL     OW 6852  14.388   2.187   7.172
68338SOL    HW1 6853  14.357   2.132   7.244
68338SOL    HW2 6854  14.475   2.150   7.151
68339SOL     OW 6855   3.417  14.231   8.328
68339SOL    HW1 6856   3.434  14.157   8.387
68339SOL    HW2 6857   3.346  14.200   8.272
68340SOL     OW 6858   7.877   0.066   1.970
68340SOL    HW1 6859   7.887   0.007   2.044
68340SOL    HW2 6860   7.893   0.012   1.893
68341SOL     OW 6861   2.760   5.215   4.351
68341SOL    HW1 6862   2.795   5.126   4.353
68341SOL    HW2 6863   2.816   5.262   4.289
68342SOL     OW 6864   8.546  13.311   1.044
68342SOL    HW1 6865   8.615  13.377   1.032
68342SOL    HW2 6866   8.582  13.232   1.005
68343SOL     OW 6867  13.508  10.798   2.037
68343SOL    HW1 6868  13.469  10.762   1.957
68343SOL    HW2 6869  13.467  10.747   2.107
68344SOL     OW 6870  14.079   5.450   7.458
68344SOL    HW1 6871  14.126   5.374   7.423
68344SOL    HW2 6872  13.987   5.434   7.435
68345SOL     OW 6873  12.610   4.229   5.571
68345SOL    HW1 6874  12.539   4.182   5.528
68345SOL    HW2 6875  12.684   4.222   5.511
68346SOL     OW 6876  13.187   5.190   8.838
68346SOL    HW1 6877  13.273   5.201   8.797
68346SOL    HW2 6878  13.137   5.267   8.809
68347SOL     OW 6879  14.505   4.653  10.680
68347SOL    HW1 6880  14.493   4.739  10.639
68347SOL    HW2 6881  14.435   4.599  10.643
68348SOL     OW 6882   4.906   7.175  12.161
68348SOL    HW1 6883   4.938   7.095  12.120
68348SOL    HW2 6884   4.917   7.242  12.094
68349SOL     OW 6885  10.000   7.595  12.474
68349SOL    HW1 6886   9.937   7.523  12.472
68349SOL    HW2 6887  10.025   7.604  12.566
68350SOL     OW 6888  13.676   4.677   3.357
68350SOL    HW1 6889  13.691   4.583   3.364
68350SOL    HW2 6890  13.661   4.691   3.263
68351SOL     OW 6891  12.015   9.481   2.657
68351SOL    HW1 6892  12.010   9.388   2.635
68351SOL    HW2 6893  11.928   9.515   2.638
68352SOL     OW 6894   0.966  10.485   0.939
68352SOL    HW1 6895   1.062  10.484   0.932
68352SOL    HW2 6896   0.944  10.397   0.971
68353SOL     OW 6897  10.631  13.559  14.626
68353SOL    HW1 6898  10.595  13.482  14.581
68353SOL    HW2 6899  10.565  13.581  14.692
68354SOL     OW 6900   6.019   2.011  10.246
68354SOL    HW1 6901   5.962   2.081  10.214
68354SOL    HW2 6902   5.982   1.931  10.209
68355SOL     OW 6903  14.546   5.360   8.597
68355SOL    HW1 6904  14.562   5.321   8.683
68355SOL    HW2 6905  14.523   5.286   8.541
68356SOL     OW 6906   8.638   6.850   7.216
68356SOL    HW1 6907   8.698   6.792   7.170
68356SOL    HW2 6908   8.613   6.802   7.295
68357SOL     OW 6909   2.943  10.007   8.874
68357SOL    HW1 6910   3.022  10.015   8.928
68357SOL    HW2 6911   2.919   9.915   8.879
68358SOL     OW 6912  12.339   1.871   5.255
68358SOL    HW1 6913  12.289   1.952   5.259
68358SOL    HW2 6914  12.309   1.820   5.330
68359SOL     OW 6915   9.717   5.471  11.386
68359SOL    HW1 6916   9.690   5.384  11.413
68359SOL    HW2 6917   9.811   5.474  11.403
68360SOL     OW 6918  13.269   6.983  14.635
68360SOL    HW1 6919  13.192   7.024  14.595
68360SOL    HW2 6920  13.292   6.913  14.575
68361SOL     OW 6921   3.880  12.715   7.175
68361SOL    HW1 6922   3.950  12.664   7.216
68361SOL    HW2 6923   3.916  12.803   7.168
68362SOL     OW 6924   6.753   4.141   5.810
68362SOL    HW1 6925   6.817   4.108   5.874
68362SOL    HW2 6926   6.748   4.235   5.827
68363SOL     OW 6927   9.703   7.810  12.132
68363SOL    HW1 6928   9.623   7.789  12.180
68363SOL    HW2 6929   9.762   7.845  12.199
68364SOL     OW 6930   8.221  11.438   9.242
68364SOL    HW1 6931   8.141  11.487   9.263
68364SOL    HW2 6932   8.193  11.374   9.176
68365SOL     OW 6933   1.856   2.894   1.072
68365SOL    HW1 6934   1.903   2.905   0.990
68365SOL    HW2 6935   1.770   2.934   1.057
68366SOL     OW 6936   0.520   6.906   3.379
68366SOL    HW1 6937   0.562   6.919   3.294
68366SOL    HW2 6938   0.527   6.992   3.422
68367SOL     OW 6939  13.805   5.215   5.930
68367SOL    HW1 6940  13.809   5.121   5.948
68367SOL    HW2 6941  13.896   5.244   5.931
68368SOL     OW 6942   5.194   3.746   3.992
68368SOL    HW1 6943   5.133   3.706   4.054
68368SOL    HW2 6944   5.272   3.691   3.996
68369SOL     OW 6945   1.606  12.137   4.605
68369SOL    HW1 6946   1.621  12.046   4.577
68369SOL    HW2 6947   1.586  12.130   4.698
68370SOL     OW 6948   1.558   2.424   3.752
68370SOL    HW1 6949   1.653   2.434   3.739
68370SOL    HW2 6950   1.521   2.507   3.723
68371SOL     OW 6951   2.466   8.412   8.790
68371SOL    HW1 6952   2.489   8.320   8.784
68371SOL    HW2 6953   2.373   8.413   8.812
68372SOL     OW 6954   7.223  13.243   1.266
68372SOL    HW1 6955   7.176  13.266   1.347
68372SOL    HW2 6956   7.314  13.267   1.284
68373SOL     OW 6957  11.536  10.135   0.847
68373SOL    HW1 6958  11.624  10.099   0.833
68373SOL    HW2 6959  11.542  10.226   0.817
68374SOL     OW 6960  12.207   2.723   1.233
68374SOL    HW1 6961  12.178   2.733   1.324
68374SOL    HW2 6962  12.301   2.738   1.236
68375SOL     OW 6963   4.845  11.850   8.812
68375SOL    HW1 6964   4.807  11.932   8.842
68375SOL    HW2 6965   4.833  11.789   8.885
68376SOL     OW 6966   1.506   8.147   0.831
68376SOL    HW1 6967   1.573   8.136   0.899
68376SOL    HW2 6968   1.546   8.111   0.752
68377SOL     OW 6969  11.791  11.719   4.486
68377SOL    HW1 6970  11.747  11.645   4.529
68377SOL    HW2 6971  11.810  11.780   4.557
68378SOL     OW 6972   8.701   6.241   8.388
68378SOL    HW1 6973   8.682   6.150   8.366
68378SOL    HW2 6974   8.707   6.241   8.484
68379SOL     OW 6975   0.807   5.692   7.673
68379SOL    HW1 6976   0.740   5.743   7.719
68379SOL    HW2 6977   0.843   5.635   7.740
68380SOL     OW 6978   1.319   4.500   4.741
68380SOL    HW1 6979   1.269   4.444   4.801
68380SOL    HW2 6980   1.389   4.536   4.795
68381SOL     OW 6981  10.653   7.090   5.186
68381SOL    HW1 6982  10.749   7.090   5.191
68381SOL    HW2 6983  10.627   7.015   5.240
68382SOL     OW 6984   1.316   7.513   8.872
68382SOL    HW1 6985   1.294   7.547   8.786
68382SOL    HW2 6986   1.407   7.484   8.864
68383SOL     OW 6987   6.984   3.546   4.037
68383SOL    HW1 6988   7.036   3.546   3.956
68383SOL    HW2 6989   7.016   3.623   4.085
68384SOL     OW 6990   0.971   2.439  12.852
68384SOL    HW1 6991   0.876   2.451  12.849
68384SOL    HW2 6992   1.003   2.482  12.773
68385SOL     OW 6993  13.336   0.182   2.670
68385SOL    HW1 6994  13.260   0.237   2.653
68385SOL    HW2 6995  13.386   0.229   2.737
68386SOL     OW 6996  12.786   1.630   7.087
68386SOL    HW1 6997  12.872   1.625   7.127
68386SOL    HW2 6998  12.783   1.717   7.046
68387SOL     OW 6999   1.668   3.777   5.318
68387SOL    HW1 7000   1.640   3.690   5.289
68387SOL    HW2 7001   1.586   3.826   5.327
68388SOL     OW 7002  11.213  14.847  13.309
68388SOL    HW1 7003  11.144  14.814  13.367
68388SOL    HW2 7004  11.168  14.863  13.225
68389SOL     OW 7005  13.138  13.346  11.129
68389SOL    HW1 7006  13.113  13.282  11.062
68389SOL    HW2 7007  13.126  13.431  11.085
68390SOL     OW 7008   4.152   8.224   2.018
68390SOL    HW1 7009   4.139   8.181   1.933
68390SOL    HW2 7010   4.176   8.153   2.077
68391SOL     OW 7011   0.491  14.546  10.125
68391SOL    HW1 7012   0.541  14.591  10.193
68391SOL    HW2 7013   0.471  14.614  10.060
68392SOL     OW 7014   2.407   2.933   0.861
68392SOL    HW1 7015   2.475   2.999   0.848
68392SOL    HW2 7016   2.451   2.850   0.841
68393SOL     OW 7017   2.113  11.063   5.849
68393SOL    HW1 7018   2.140  10.976   5.819
68393SOL    HW2 7019   2.054  11.095   5.781
68394SOL     OW 7020  11.703   1.910  14.275
68394SOL    HW1 7021  11.686   2.000  14.303
68394SOL    HW2 7022  11.629   1.889  14.218
68395SOL     OW 7023   7.406   9.890  13.694
68395SOL    HW1 7024   7.398   9.868  13.787
68395SOL    HW2 7025   7.497   9.915  13.683
68396SOL     OW 7026   6.788   5.666   1.164
68396SOL    HW1 7027   6.701   5.626   1.159
68396SOL    HW2 7028   6.777   5.753   1.125
68397SOL     OW 7029  13.789   9.251  12.257
68397SOL    HW1 7030  13.775   9.165  12.296
68397SOL    HW2 7031  13.781   9.236  12.163
68398SOL     OW 7032  11.993  14.212   5.822
68398SOL    HW1 7033  11.932  14.202   5.896
68398SOL    HW2 7034  11.937  14.220   5.745
68399SOL     OW 7035   3.601   5.056   3.636
68399SOL    HW1 7036   3.662   4.984   3.625
68399SOL    HW2 7037   3.530   5.020   3.689
68400SOL     OW 7038   4.126   6.388   4.692
68400SOL    HW1 7039   4.209   6.401   4.648
68400SOL    HW2 7040   4.074   6.336   4.630
68401SOL     OW 7041   4.599   1.422   1.908
68401SOL    HW1 7042   4.677   1.383   1.868
68401SOL    HW2 7043   4.583   1.369   1.986
68402SOL     OW 7044   5.047  10.912  11.612
68402SOL    HW1 7045   5.047  10.992  11.665
68402SOL    HW2 7046   4.989  10.931  11.539
68403SOL     OW 7047  13.328   9.292   4.148
68403SOL    HW1 7048  13.268   9.280   4.221
68403SOL    HW2 7049  13.414   9.269   4.183
68404SOL     OW 7050   9.128   0.551  11.742
68404SOL    HW1 7051   9.219   0.526  11.760
68404SOL    HW2 7052   9.093   0.578  11.826
68405SOL     OW 7053   5.885  11.430   3.078
68405SOL    HW1 7054   5.818  11.411   3.144
68405SOL    HW2 7055   5.968  11.420   3.126
68406SOL     OW 7056   8.568   3.397  13.140
68406SOL    HW1 7057   8.481   3.433  13.158
68406SOL    HW2 7058   8.562   3.306  13.166
68407SOL     OW 7059   2.502   1.361  13.915
68407SOL    HW1 7060   2.567   1.368  13.985
68407SOL    HW2 7061   2.552   1.335  13.838
68408SOL     OW 7062   9.318  12.113   4.154
68408SOL    HW1 7063   9.388  12.048   4.150
68408SOL    HW2 7064   9.362  12.195   4.130
68409SOL     OW 7065   1.974   6.880   2.329
68409SOL    HW1 7066   1.964   6.901   2.236
68409SOL    HW2 7067   1.968   6.965   2.374
68410SOL     OW 7068   3.747   4.098   9.984
68410SOL    HW1 7069   3.814   4.105  10.053
68410SOL    HW2 7070   3.744   4.186   9.946
68411SOL     OW 7071   8.917   9.555   6.127
68411SOL    HW1 7072   8.927   9.492   6.056
68411SOL    HW2 7073   9.003   9.597   6.134
68412SOL     OW 7074   4.758   9.709  11.835
68412SOL    HW1 7075   4.762   9.660  11.917
68412SOL    HW2 7076   4.844   9.751  11.828
68413SOL     OW 7077   8.461  11.345   1.842
68413SOL    HW1 7078   8.484  11.357   1.934
68413SOL    HW2 7079   8.367  11.328   1.843
68414SOL     OW 7080   2.745   0.914  14.762
68414SOL    HW1 7081   2.741   1.003  14.726
68414SOL    HW2 7082   2.764   0.926  14.855
68415SOL     OW 7083  14.591   5.532   5.260
68415SOL    HW1 7084  14.629   5.447   5.237
68415SOL    HW2 7085  14.641   5.561   5.335
68416SOL     OW 7086   1.525  12.251  14.061
68416SOL    HW1 7087   1.433  12.250  14.036
68416SOL    HW2 7088   1.554  12.161  14.047
68417SOL     OW 7089   4.832  14.378   5.147
68417SOL    HW1 7090   4.795  14.298   5.185
68417SOL    HW2 7091   4.818  14.445   5.213
68418SOL     OW 7092   1.727   5.268   6.793
68418SOL    HW1 7093   1.818   5.249   6.770
68418SOL    HW2 7094   1.681   5.270   6.709
68419SOL     OW 7095   1.029   0.050   0.488
68419SOL    HW1 7096   0.953   0.105   0.507
68419SOL    HW2 7097   1.041  14.874   0.567
68420SOL     OW 7098  14.733   8.945   6.734
68420SOL    HW1 7099  14.764   8.930   6.645
68420SOL    HW2 7100  14.805   8.991   6.778
68421SOL     OW 7101   4.809  14.046   2.439
68421SOL    HW1 7102   4.749  13.985   2.481
68421SOL    HW2 7103   4.806  14.124   2.494
68422SOL     OW 7104   3.329   6.690   7.018
68422SOL    HW1 7105   3.367   6.611   6.979
68422SOL    HW2 7106   3.353   6.685   7.111
68423SOL     OW 7107  14.805   3.850  12.027
68423SOL    HW1 7108  14.846   3.933  12.003
68423SOL    HW2 7109  14.862   3.814  12.095
68424SOL     OW 7110  11.291  12.167   3.728
68424SOL    HW1 7111  11.333  12.189   3.645
68424SOL    HW2 7112  11.350  12.202   3.795
68425SOL     OW 7113  13.026   9.629   8.180
68425SOL    HW1 7114  13.116   9.610   8.153
68425SOL    HW2 7115  12.991   9.543   8.205
68426SOL     OW 7116  12.790   3.755   3.243
68426SOL    HW1 7117  12.847   3.755   3.166
68426SOL    HW2 7118  12.728   3.684   3.227
68427SOL     OW 7119  14.508   4.888  10.931
68427SOL    HW1 7120  14.434   4.859  10.877
68427SOL    HW2 7121  14.585   4.855  10.885
68428SOL     OW 7122   4.548   8.346  11.462
68428SOL    HW1 7123   4.545   8.341  11.367
68428SOL    HW2 7124   4.530   8.438  11.482
68429SOL     OW 7125   4.818   1.828  10.711
68429SOL    HW1 7126   4.868   1.770  10.769
68429SOL    HW2 7127   4.750   1.771  10.675
68430SOL     OW 7128  11.448   1.851   4.111
68430SOL    HW1 7129  11.360   1.847   4.073
68430SOL    HW2 7130  11.504   1.877   4.038
68431SOL     OW 7131   5.343   5.842  11.057
68431SOL    HW1 7132   5.327   5.922  11.006
68431SOL    HW2 7133   5.426   5.808  11.022
68432SOL     OW 7134   1.712   2.271  11.845
68432SOL    HW1 7135   1.753   2.184  11.837
68432SOL    HW2 7136   1.679   2.274  11.934
68433SOL     OW 7137   6.900  12.711   0.442
68433SOL    HW1 7138   6.959  12.718   0.368
68433SOL    HW2 7139   6.937  12.770   0.508
68434SOL     OW 7140   1.693   3.083   2.409
68434SOL    HW1 7141   1.737   3.011   2.365
68434SOL    HW2 7142   1.706   3.066   2.503
68435SOL     OW 7143   0.716   7.126   7.853
68435SOL    HW1 7144   0.773   7.180   7.907
68435SOL    HW2 7145   0.628   7.162   7.866
68436SOL     OW 7146   6.966   2.366   3.112
68436SOL    HW1 7147   6.885   2.349   3.064
68436SOL    HW2 7148   6.940   2.417   3.188
68437SOL     OW 7149   7.510  10.214  13.158
68437SOL    HW1 7150   7.487  10.218  13.065
68437SOL    HW2 7151   7.489  10.124  13.183
68438SOL     OW 7152   8.502   1.422   7.235
68438SOL    HW1 7153   8.410   1.399   7.247
68438SOL    HW2 7154   8.501   1.497   7.176
68439SOL     OW 7155  11.305   1.624   7.963
68439SOL    HW1 7156  11.348   1.698   7.920
68439SOL    HW2 7157  11.243   1.590   7.899
68440SOL     OW 7158   3.143   0.010   9.765
68440SOL    HW1 7159   3.098   0.022   9.849
68440SOL    HW2 7160   3.157   0.099   9.733
68441SOL     OW 7161   1.661   6.963   0.149
68441SOL    HW1 7162   1.681   7.057   0.144
68441SOL    HW2 7163   1.705   6.925   0.074
68442SOL     OW 7164  13.624  13.242   4.828
68442SOL    HW1 7165  13.594  13.217   4.915
68442SOL    HW2 7166  13.678  13.320   4.843
68443SOL     OW 7167  10.731   6.530   6.393
68443SOL    HW1 7168  10.725   6.612   6.442
68443SOL    HW2 7169  10.817   6.495   6.416
68444SOL     OW 7170   9.027   2.393   3.665
68444SOL    HW1 7171   8.978   2.381   3.746
68444SOL    HW2 7172   9.112   2.425   3.693
68445SOL     OW 7173   0.542   6.431  10.537
68445SOL    HW1 7174   0.560   6.436  10.443
68445SOL    HW2 7175   0.611   6.374  10.572
68446SOL     OW 7176   2.533   1.731  12.854
68446SOL    HW1 7177   2.569   1.813  12.888
68446SOL    HW2 7178   2.605   1.669  12.859
68447SOL     OW 7179  10.092  10.429  10.312
68447SOL    HW1 7180  10.020  10.478  10.350
68447SOL    HW2 7181  10.053  10.379  10.241
68448SOL     OW 7182   0.685   7.228   2.054
68448SOL    HW1 7183   0.645   7.164   1.996
68448SOL    HW2 7184   0.751   7.272   2.000
68449SOL     OW 7185  14.875   4.175   4.599
68449SOL    HW1 7186   0.013   4.144   4.509
68449SOL    HW2 7187  14.867   4.096   4.651
68450SOL     OW 7188   0.839   6.677   1.325
68450SOL    HW1 7189   0.826   6.635   1.410
68450SOL    HW2 7190   0.875   6.764   1.346
68451SOL     OW 7191   9.233  12.654   2.456
68451SOL    HW1 7192   9.179  12.716   2.407
68451SOL    HW2 7193   9.179  12.628   2.530
68452SOL     OW 7194  11.993  14.487   0.869
68452SOL    HW1 7195  12.076  14.533   0.869
68452SOL    HW2 7196  11.953  14.509   0.785
68453SOL     OW 7197   4.509   8.077  10.770
68453SOL    HW1 7198   4.601   8.063  10.745
68453SOL    HW2 7199   4.495   8.018  10.844
68454SOL     OW 7200   7.062   1.886   1.479
68454SOL    HW1 7201   7.054   1.907   1.572
68454SOL    HW2 7202   7.156   1.874   1.466
68455SOL     OW 7203   5.426   8.044   4.124
68455SOL    HW1 7204   5.474   7.969   4.158
68455SOL    HW2 7205   5.369   8.008   4.056
68456SOL     OW 7206   9.628   4.618   1.931
68456SOL    HW1 7207   9.595   4.538   1.973
68456SOL    HW2 7208   9.549   4.668   1.909
68457SOL     OW 7209   5.666   2.860  11.221
68457SOL    HW1 7210   5.621   2.851  11.305
68457SOL    HW2 7211   5.596   2.881  11.159
68458SOL     OW 7212   7.164   8.095   1.762
68458SOL    HW1 7213   7.147   8.070   1.671
68458SOL    HW2 7214   7.180   8.190   1.758
68459SOL     OW 7215   7.396   9.768  10.651
68459SOL    HW1 7216   7.353   9.797  10.570
68459SOL    HW2 7217   7.330   9.714  10.694
68460SOL     OW 7218   5.470   9.867   6.883
68460SOL    HW1 7219   5.455   9.789   6.830
68460SOL    HW2 7220   5.383   9.904   6.898
68461SOL     OW 7221  12.025   1.482   5.145
68461SOL    HW1 7222  11.932   1.476   5.121
68461SOL    HW2 7223  12.049   1.573   5.127
68462SOL     OW 7224   2.121   6.483   5.363
68462SOL    HW1 7225   2.150   6.394   5.385
68462SOL    HW2 7226   2.125   6.530   5.447
68463SOL     OW 7227  13.321   7.908  10.607
68463SOL    HW1 7228  13.408   7.906  10.647
68463SOL    HW2 7229  13.276   7.980  10.651
68464SOL     OW 7230   3.897   1.789  11.697
68464SOL    HW1 7231   3.805   1.781  11.721
68464SOL    HW2 7232   3.922   1.878  11.723
68465SOL     OW 7233  14.158   4.007  14.665
68465SOL    HW1 7234  14.110   3.977  14.742
68465SOL    HW2 7235  14.213   4.078  14.697
68466SOL     OW 7236   3.525   8.335   3.192
68466SOL    HW1 7237   3.429   8.340   3.192
68466SOL    HW2 7238   3.543   8.242   3.206
68467SOL     OW 7239   6.162  12.574   7.987
68467SOL    HW1 7240   6.089  12.539   8.039
68467SOL    HW2 7241   6.130  12.657   7.953
68468SOL     OW 7242   6.455  14.203   2.586
68468SOL    HW1 7243   6.398  14.145   2.637
68468SOL    HW2 7244   6.512  14.143   2.537
68469SOL     OW 7245   4.274  14.078   6.061
68469SOL    HW1 7246   4.218  14.085   5.984
68469SOL    HW2 7247   4.360  14.110   6.032
68470SOL     OW 7248   4.000   7.479   6.491
68470SOL    HW1 7249   4.004   7.394   6.536
68470SOL    HW2 7250   3.977   7.541   6.561
68471SOL     OW 7251   0.736   3.226  10.782
68471SOL    HW1 7252   0.657   3.275  10.760
68471SOL    HW2 7253   0.708   3.135  10.782
68472SOL     OW 7254   5.216  13.712  13.728
68472SOL    HW1 7255   5.213  13.795  13.681
68472SOL    HW2 7256   5.190  13.735  13.818
68473SOL     OW 7257   4.314   1.223  14.798
68473SOL    HW1 7258   4.353   1.294  14.747
68473SOL    HW2 7259   4.300   1.153  14.734
68474SOL     OW 7260   4.518   2.632  13.367
68474SOL    HW1 7261   4.484   2.691  13.434
68474SOL    HW2 7262   4.612   2.628  13.383
68475SOL     OW 7263   0.273  14.254   0.809
68475SOL    HW1 7264   0.256  14.305   0.730
68475SOL    HW2 7265   0.343  14.194   0.785
68476SOL     OW 7266   7.632   8.307   4.057
68476SOL    HW1 7267   7.660   8.222   4.089
68476SOL    HW2 7268   7.608   8.291   3.965
68477SOL     OW 7269  14.361   8.064   3.302
68477SOL    HW1 7270  14.293   8.026   3.246
68477SOL    HW2 7271  14.386   8.145   3.257
68478SOL     OW 7272   8.030   6.734   2.537
68478SOL    HW1 7273   8.042   6.684   2.618
68478SOL    HW2 7274   7.935   6.751   2.533
68479SOL     OW 7275  12.387   6.293  10.748
68479SOL    HW1 7276  12.323   6.286  10.678
68479SOL    HW2 7277  12.337   6.323  10.824
68480SOL     OW 7278   5.073   4.726  12.988
68480SOL    HW1 7279   5.084   4.787  12.916
68480SOL    HW2 7280   5.156   4.679  12.994
68481SOL     OW 7281  12.772   8.618  11.189
68481SOL    HW1 7282  12.779   8.525  11.213
68481SOL    HW2 7283  12.728   8.617  11.104
68482SOL     OW 7284  14.749   3.524  10.807
68482SOL    HW1 7285  14.805   3.545  10.882
68482SOL    HW2 7286  14.670   3.575  10.822
68483SOL     OW 7287   7.325  12.509   7.140
68483SOL    HW1 7288   7.332  12.588   7.087
68483SOL    HW2 7289   7.244  12.467   7.110
68484SOL     OW 7290   4.808  14.669   0.958
68484SOL    HW1 7291   4.795  14.663   1.053
68484SOL    HW2 7292   4.884  14.614   0.941
68485SOL     OW 7293   4.334   9.888  13.025
68485SOL    HW1 7294   4.242   9.901  13.002
68485SOL    HW2 7295   4.355   9.962  13.081
68486SOL     OW 7296   5.247  12.823  11.225
68486SOL    HW1 7297   5.312  12.855  11.288
68486SOL    HW2 7298   5.281  12.738  11.197
68487SOL     OW 7299  14.185   5.489   0.683
68487SOL    HW1 7300  14.170   5.502   0.589
68487SOL    HW2 7301  14.273   5.453   0.688
68488SOL     OW 7302   9.105  11.602   2.083
68488SOL    HW1 7303   9.127  11.695   2.082
68488SOL    HW2 7304   9.081  11.583   2.173
68489SOL     OW 7305  13.464  14.348  13.805
68489SOL    HW1 7306  13.384  14.366  13.854
68489SOL    HW2 7307  13.476  14.253  13.811
68490SOL     OW 7308  10.360  11.503   8.476
68490SOL    HW1 7309  10.302  11.554   8.421
68490SOL    HW2 7310  10.343  11.412   8.451
68491SOL     OW 7311   2.721  12.688   7.377
68491SOL    HW1 7312   2.689  12.739   7.451
68491SOL    HW2 7313   2.651  12.625   7.358
68492SOL     OW 7314   8.228   6.892  13.256
68492SOL    HW1 7315   8.182   6.886  13.339
68492SOL    HW2 7316   8.250   6.985  13.247
68493SOL     OW 7317  13.644   2.618   7.709
68493SOL    HW1 7318  13.573   2.667   7.751
68493SOL    HW2 7319  13.653   2.659   7.623
68494SOL     OW 7320   8.714   8.175   6.186
68494SOL    HW1 7321   8.714   8.119   6.109
68494SOL    HW2 7322   8.786   8.236   6.172
68495SOL     OW 7323   4.231  14.257   2.069
68495SOL    HW1 7324   4.229  14.164   2.047
68495SOL    HW2 7325   4.294  14.263   2.141
68496SOL     OW 7326  12.080  11.011  10.377
68496SOL    HW1 7327  12.104  10.971  10.461
68496SOL    HW2 7328  12.056  10.937  10.322
68497SOL     OW 7329   6.780   0.256   4.929
68497SOL    HW1 7330   6.831   0.207   4.865
68497SOL    HW2 7331   6.723   0.190   4.969
68498SOL     OW 7332   4.262  10.795   0.296
68498SOL    HW1 7333   4.180  10.804   0.249
68498SOL    HW2 7334   4.329  10.789   0.228
68499SOL     OW 7335  12.220   6.483  13.910
68499SOL    HW1 7336  12.133   6.523  13.903
68499SOL    HW2 7337  12.204   6.397  13.948
68500SOL     OW 7338   9.530  13.355   1.727
68500SOL    HW1 7339   9.525  13.302   1.807
68500SOL    HW2 7340   9.590  13.306   1.670
68501SOL     OW 7341  12.375  12.332   4.070
68501SOL    HW1 7342  12.325  12.404   4.032
68501SOL    HW2 7343  12.344  12.254   4.023
68502SOL     OW 7344   6.527   3.587   7.553
68502SOL    HW1 7345   6.555   3.596   7.644
68502SOL    HW2 7346   6.499   3.496   7.545
68503SOL     OW 7347   9.069  13.517  12.124
68503SOL    HW1 7348   8.986  13.540  12.083
68503SOL    HW2 7349   9.047  13.497  12.215
68504SOL     OW 7350   0.874   9.176  14.196
68504SOL    HW1 7351   0.963   9.196  14.164
68504SOL    HW2 7352   0.873   9.081  14.205
68505SOL     OW 7353  10.935  13.472  12.662
68505SOL    HW1 7354  10.896  13.385  12.670
68505SOL    HW2 7355  10.889  13.512  12.588
68506SOL     OW 7356   5.417   8.569   6.841
68506SOL    HW1 7357   5.446   8.478   6.838
68506SOL    HW2 7358   5.497   8.620   6.839
68507SOL     OW 7359   7.386   7.793  14.382
68507SOL    HW1 7360   7.321   7.863  14.387
68507SOL    HW2 7361   7.416   7.795  14.291
68508SOL     OW 7362   5.271   1.907   1.829
68508SOL    HW1 7363   5.246   1.991   1.790
68508SOL    HW2 7364   5.283   1.849   1.754
68509SOL     OW 7365   2.508  10.269  12.603
68509SOL    HW1 7366   2.442  10.244  12.668
68509SOL    HW2 7367   2.506  10.365  12.604
68510SOL     OW 7368   6.554  14.086  12.577
68510SOL    HW1 7369   6.579  14.068  12.487
68510SOL    HW2 7370   6.633  14.068  12.628
68511SOL     OW 7371  10.562   6.280   1.591
68511SOL    HW1 7372  10.472   6.294   1.559
68511SOL    HW2 7373  10.611   6.258   1.512
68512SOL     OW 7374   5.111   8.182   2.985
68512SOL    HW1 7375   5.189   8.190   3.040
68512SOL    HW2 7376   5.038   8.195   3.046
68513SOL     OW 7377  12.201  12.423   6.731
68513SOL    HW1 7378  12.137  12.376   6.785
68513SOL    HW2 7379  12.189  12.515   6.754
68514SOL     OW 7380   2.294   0.721  11.376
68514SOL    HW1 7381   2.331   0.808  11.391
68514SOL    HW2 7382   2.288   0.713  11.280
68515SOL     OW 7383  13.926   6.800   5.041
68515SOL    HW1 7384  13.987   6.803   4.968
68515SOL    HW2 7385  13.882   6.715   5.031
68516SOL     OW 7386  13.262   7.562   4.047
68516SOL    HW1 7387  13.274   7.519   3.962
68516SOL    HW2 7388  13.203   7.505   4.095
68517SOL     OW 7389  14.520   3.713   3.135
68517SOL    HW1 7390  14.536   3.743   3.046
68517SOL    HW2 7391  14.565   3.628   3.140
68518SOL     OW 7392  10.426   1.502   1.717
68518SOL    HW1 7393  10.427   1.575   1.656
68518SOL    HW2 7394  10.516   1.498   1.751
68519SOL     OW 7395  13.706   7.060   1.938
68519SOL    HW1 7396  13.713   6.985   1.878
68519SOL    HW2 7397  13.717   7.023   2.025
68520SOL     OW 7398   9.558   2.971   7.493
68520SOL    HW1 7399   9.550   3.014   7.408
68520SOL    HW2 7400   9.509   3.027   7.553
68521SOL     OW 7401   4.498  12.505  13.516
68521SOL    HW1 7402   4.485  12.489  13.610
68521SOL    HW2 7403   4.592  12.519  13.508
68522SOL     OW 7404   5.129   2.835   5.692
68522SOL    HW1 7405   5.119   2.869   5.781
68522SOL    HW2 7406   5.212   2.788   5.693
68523SOL     OW 7407   7.129   4.410   0.344
68523SOL    HW1 7408   7.076   4.339   0.309
68523SOL    HW2 7409   7.169   4.373   0.423
68524SOL     OW 7410   2.073   2.319   3.526
68524SOL    HW1 7411   2.157   2.347   3.563
68524SOL    HW2 7412   2.083   2.330   3.431
68525SOL     OW 7413   5.674   5.463   4.463
68525SOL    HW1 7414   5.682   5.380   4.416
68525SOL    HW2 7415   5.737   5.520   4.421
68526SOL     OW 7416   2.259   1.820  12.370
68526SOL    HW1 7417   2.308   1.850  12.293
68526SOL    HW2 7418   2.236   1.900  12.416
68527SOL     OW 7419  14.098   8.768  14.265
68527SOL    HW1 7420  14.192   8.776  14.279
68527SOL    HW2 7421  14.062   8.745  14.351
68528SOL     OW 7422  13.504   7.812   6.406
68528SOL    HW1 7423  13.554   7.891   6.385
68528SOL    HW2 7424  13.495   7.767   6.322
68529SOL     OW 7425  10.983   6.455   6.456
68529SOL    HW1 7426  11.008   6.404   6.534
68529SOL    HW2 7427  11.046   6.527   6.454
68530SOL     OW 7428   6.631   3.009   5.320
68530SOL    HW1 7429   6.658   3.098   5.341
68530SOL    HW2 7430   6.610   2.970   5.405
68531SOL     OW 7431   9.056   5.065   8.700
68531SOL    HW1 7432   9.131   5.008   8.681
68531SOL    HW2 7433   9.095   5.145   8.735
68532SOL     OW 7434   5.896   0.227   5.429
68532SOL    HW1 7435   5.922   0.210   5.338
68532SOL    HW2 7436   5.948   0.166   5.481
68533SOL     OW 7437   7.349   5.123   9.689
68533SOL    HW1 7438   7.390   5.207   9.708
68533SOL    HW2 7439   7.284   5.112   9.758
68534SOL     OW 7440  11.670   0.147   2.670
68534SOL    HW1 7441  11.683   0.238   2.696
68534SOL    HW2 7442  11.714   0.096   2.738
68535SOL     OW 7443   1.186   5.363   8.399
68535SOL    HW1 7444   1.240   5.442   8.402
68535SOL    HW2 7445   1.225   5.310   8.330
68536SOL     OW 7446   6.456   5.524   1.800
68536SOL    HW1 7447   6.441   5.605   1.849
68536SOL    HW2 7448   6.541   5.493   1.830
68537SOL     OW 7449   5.090  13.586  13.509
68537SOL    HW1 7450   5.114  13.630  13.590
68537SOL    HW2 7451   5.097  13.653  13.441
68538SOL     OW 7452  10.905   1.890   6.856
68538SOL    HW1 7453  10.994   1.908   6.886
68538SOL    HW2 7454  10.877   1.815   6.908
68539SOL     OW 7455  12.749   7.260   6.617
68539SOL    HW1 7456  12.730   7.354   6.614
68539SOL    HW2 7457  12.808   7.244   6.544
68540SOL     OW 7458   5.292   1.034   8.480
68540SOL    HW1 7459   5.228   1.094   8.441
68540SOL    HW2 7460   5.276   1.039   8.574
68541SOL     OW 7461   6.746   2.474   9.655
68541SOL    HW1 7462   6.677   2.496   9.593
68541SOL    HW2 7463   6.701   2.464   9.739
68542SOL     OW 7464   2.870   7.574   5.618
68542SOL    HW1 7465   2.847   7.483   5.597
68542SOL    HW2 7466   2.795   7.607   5.668
68543SOL     OW 7467   5.038  11.944  10.283
68543SOL    HW1 7468   5.067  11.999  10.211
68543SOL    HW2 7469   4.985  12.002  10.337
68544SOL     OW 7470  11.503   4.794   5.848
68544SOL    HW1 7471  11.447   4.727   5.810
68544SOL    HW2 7472  11.568   4.812   5.779
68545SOL     OW 7473  11.357   9.058   1.337
68545SOL    HW1 7474  11.407   9.113   1.275
68545SOL    HW2 7475  11.289   9.116   1.371
68546SOL     OW 7476  13.641  11.345   1.724
68546SOL    HW1 7477  13.691  11.303   1.795
68546SOL    HW2 7478  13.704  11.356   1.653
68547SOL     OW 7479   3.169  11.019   5.834
68547SOL    HW1 7480   3.247  11.007   5.887
68547SOL    HW2 7481   3.173  10.948   5.769
68548SOL     OW 7482  11.653   3.330   6.249
68548SOL    HW1 7483  11.681   3.380   6.326
68548SOL    HW2 7484  11.558   3.333   6.252
68549SOL     OW 7485   5.741   1.847   2.622
68549SOL    HW1 7486   5.685   1.803   2.686
68549SOL    HW2 7487   5.826   1.856   2.667
68550SOL     OW 7488   1.958   5.284   5.481
68550SOL    HW1 7489   1.996   5.196   5.478
68550SOL    HW2 7490   2.026   5.338   5.521
68551SOL     OW 7491   6.971   1.775   0.750
68551SOL    HW1 7492   7.062   1.768   0.724
68551SOL    HW2 7493   6.964   1.722   0.829
68552SOL     OW 7494   4.297  11.205   7.645
68552SOL    HW1 7495   4.351  11.262   7.699
68552SOL    HW2 7496   4.272  11.133   7.704
68553SOL     OW 7497   9.351   2.229   6.333
68553SOL    HW1 7498   9.363   2.175   6.411
68553SOL    HW2 7499   9.416   2.195   6.270
68554SOL     OW 7500   9.821  10.231  12.307
68554SOL    HW1 7501   9.896  10.290  12.301
68554SOL    HW2 7502   9.745  10.289  12.307
68555SOL     OW 7503  11.425   6.253  10.415
68555SOL    HW1 7504  11.430   6.334  10.466
68555SOL    HW2 7505  11.430   6.184  10.480
68556SOL     OW 7506   1.145  11.851   7.384
68556SOL    HW1 7507   1.229  11.807   7.371
68556SOL    HW2 7508   1.159  11.940   7.352
68557SOL     OW 7509   5.731  10.583   7.855
68557SOL    HW1 7510   5.708  10.509   7.912
68557SOL    HW2 7511   5.647  10.624   7.835
68558SOL     OW 7512   4.072   2.735   4.615
68558SOL    HW1 7513   4.124   2.655   4.618
68558SOL    HW2 7514   4.014   2.729   4.691
68559SOL     OW 7515   4.417   6.690   7.722
68559SOL    HW1 7516   4.325   6.716   7.727
68559SOL    HW2 7517   4.449   6.698   7.811
68560SOL     OW 7518   0.379   2.517   5.775
68560SOL    HW1 7519   0.358   2.574   5.849
68560SOL    HW2 7520   0.363   2.428   5.808
68561SOL     OW 7521   7.205   0.391   6.453
68561SOL    HW1 7522   7.204   0.302   6.419
68561SOL    HW2 7523   7.289   0.398   6.500
68562SOL     OW 7524  11.447   9.404   4.374
68562SOL    HW1 7525  11.507   9.360   4.434
68562SOL    HW2 7526  11.379   9.340   4.357
68563SOL     OW 7527   6.260   6.142   9.502
68563SOL    HW1 7528   6.295   6.218   9.549
68563SOL    HW2 7529   6.178   6.122   9.548
68564SOL     OW 7530   1.305   8.212   6.609
68564SOL    HW1 7531   1.273   8.300   6.628
68564SOL    HW2 7532   1.399   8.223   6.597
68565SOL     OW 7533   9.619   6.417   8.643
68565SOL    HW1 7534   9.569   6.497   8.657
68565SOL    HW2 7535   9.675   6.409   8.720
68566SOL     OW 7536   8.647  11.359  10.430
68566SOL    HW1 7537   8.580  11.374  10.497
68566SOL    HW2 7538   8.723  11.328  10.478
68567SOL     OW 7539   3.715   8.281   6.250
68567SOL    HW1 7540   3.711   8.220   6.176
68567SOL    HW2 7541   3.800   8.325   6.240
68568SOL     OW 7542  11.071   7.474   5.766
68568SOL    HW1 7543  11.032   7.514   5.844
68568SOL    HW2 7544  10.996   7.451   5.711
68569SOL     OW 7545   5.104  14.467  13.008
68569SOL    HW1 7546   5.192  14.504  13.013
68569SOL    HW2 7547   5.057  14.525  12.948
68570SOL     OW 7548  10.311   8.591   7.765
68570SOL    HW1 7549  10.352   8.508   7.741
68570SOL    HW2 7550  10.291   8.634   7.681
68571SOL     OW 7551  14.778   2.231  14.870
68571SOL    HW1 7552  14.689   2.195  14.868
68571SOL    HW2 7553  14.835   2.155  14.852
68572SOL     OW 7554   1.887  13.258   6.763
68572SOL    HW1 7555   1.879  13.259   6.668
68572SOL    HW2 7556   1.940  13.181   6.783
68573SOL     OW 7557   7.035   2.396   2.459
68573SOL    HW1 7558   7.046   2.372   2.367
68573SOL    HW2 7559   6.941   2.393   2.474
68574SOL     OW 7560   1.821   0.912   3.765
68574SOL    HW1 7561   1.852   0.997   3.798
68574SOL    HW2 7562   1.803   0.927   3.672
68575SOL     OW 7563   1.139   5.018   0.919
68575SOL    HW1 7564   1.202   4.958   0.879
68575SOL    HW2 7565   1.099   5.064   0.845
68576SOL     OW 7566  11.850   4.771   9.771
68576SOL    HW1 7567  11.818   4.858   9.793
68576SOL    HW2 7568  11.774   4.714   9.777
68577SOL     OW 7569   9.146   8.833   8.586
68577SOL    HW1 7570   9.072   8.840   8.526
68577SOL    HW2 7571   9.177   8.923   8.596
68578SOL     OW 7572   2.509   0.281   6.188
68578SOL    HW1 7573   2.558   0.329   6.121
68578SOL    HW2 7574   2.565   0.208   6.212
68579SOL     OW 7575  13.271   7.440   3.468
68579SOL    HW1 7576  13.265   7.368   3.531
68579SOL    HW2 7577  13.254   7.400   3.383
68580SOL     OW 7578  10.831  10.528   5.760
68580SOL    HW1 7579  10.913  10.505   5.717
68580SOL    HW2 7580  10.770  10.543   5.688
68581SOL     OW 7581  10.266  11.489   7.856
68581SOL    HW1 7582  10.288  11.424   7.922
68581SOL    HW2 7583  10.228  11.439   7.784
68582SOL     OW 7584   4.067   0.613  13.970
68582SOL    HW1 7585   4.112   0.678  13.916
68582SOL    HW2 7586   4.110   0.618  14.055
68583SOL     OW 7587  14.288  12.936   8.667
68583SOL    HW1 7588  14.239  12.925   8.748
68583SOL    HW2 7589  14.297  12.848   8.631
68584SOL     OW 7590   6.911  14.620   5.573
68584SOL    HW1 7591   6.937  14.563   5.645
68584SOL    HW2 7592   6.912  14.708   5.611
68585SOL     OW 7593   2.264   6.117   0.369
68585SOL    HW1 7594   2.263   6.152   0.279
68585SOL    HW2 7595   2.171   6.107   0.391
68586SOL     OW 7596  12.208   6.690   5.004
68586SOL    HW1 7597  12.160   6.746   5.066
68586SOL    HW2 7598  12.235   6.615   5.056
68587SOL     OW 7599   8.944  13.071   8.846
68587SOL    HW1 7600   8.978  12.985   8.822
68587SOL    HW2 7601   8.897  13.101   8.768
68588SOL     OW 7602   5.181  11.899   3.805
68588SOL    HW1 7603   5.184  11.913   3.710
68588SOL    HW2 7604   5.237  11.823   3.820
68589SOL     OW 7605   7.986   0.869  13.125
68589SOL    HW1 7606   7.910   0.813  13.138
68589SOL    HW2 7607   8.050   0.812  13.081
68590SOL     OW 7608  12.687   8.203  14.290
68590SOL    HW1 7609  12.705   8.258  14.366
68590SOL    HW2 7610  12.687   8.265  14.216
68591SOL     OW 7611   2.507  10.488  12.979
68591SOL    HW1 7612   2.530  10.497  13.071
68591SOL    HW2 7613   2.579  10.437  12.941
68592SOL     OW 7614  12.026   4.002   7.791
68592SOL    HW1 7615  11.954   4.040   7.741
68592SOL    HW2 7616  12.026   3.909   7.765
68593SOL     OW 7617   1.740   5.521  14.196
68593SOL    HW1 7618   1.649   5.519  14.167
68593SOL    HW2 7619   1.735   5.512  14.291
68594SOL     OW 7620  13.508  11.935  13.040
68594SOL    HW1 7621  13.577  11.952  12.976
68594SOL    HW2 7622  13.462  11.858  13.007
68595SOL     OW 7623  10.232  14.719   7.617
68595SOL    HW1 7624  10.159  14.662   7.594
68595SOL    HW2 7625  10.193  14.784   7.675
68596SOL     OW 7626   3.341   9.673   0.217
68596SOL    HW1 7627   3.428   9.700   0.246
68596SOL    HW2 7628   3.297   9.643   0.296
68597SOL     OW 7629   0.976   3.763   2.053
68597SOL    HW1 7630   1.055   3.709   2.047
68597SOL    HW2 7631   1.002   3.838   2.106
68598SOL     OW 7632   0.276   2.531  14.417
68598SOL    HW1 7633   0.276   2.591  14.492
68598SOL    HW2 7634   0.224   2.576  14.350
68599SOL     OW 7635   8.302   9.433   3.747
68599SOL    HW1 7636   8.356   9.398   3.677
68599SOL    HW2 7637   8.253   9.505   3.707
68600SOL     OW 7638   4.998   0.257   8.974
68600SOL    HW1 7639   5.074   0.299   8.933
68600SOL    HW2 7640   5.035   0.187   9.028
68601SOL     OW 7641   7.239   0.463  12.717
68601SOL    HW1 7642   7.176   0.527  12.685
68601SOL    HW2 7643   7.221   0.455  12.810
68602SOL     OW 7644   7.667   5.269   2.894
68602SOL    HW1 7645   7.648   5.360   2.917
68602SOL    HW2 7646   7.691   5.228   2.978
68603SOL     OW 7647   8.800  14.431   1.535
68603SOL    HW1 7648   8.769  14.443   1.445
68603SOL    HW2 7649   8.752  14.496   1.586
68604SOL     OW 7650   1.735  10.552   5.811
68604SOL    HW1 7651   1.666  10.563   5.745
68604SOL    HW2 7652   1.764  10.641   5.831
68605SOL     OW 7653  12.384   6.333   2.786
68605SOL    HW1 7654  12.317   6.302   2.846
68605SOL    HW2 7655  12.340   6.339   2.701
68606SOL     OW 7656  11.307  11.437   1.768
68606SOL    HW1 7657  11.389  11.470   1.733
68606SOL    HW2 7658  11.265  11.393   1.694
68607SOL     OW 7659   5.072   2.046   6.493
68607SOL    HW1 7660   5.119   2.113   6.542
68607SOL    HW2 7661   5.086   2.069   6.401
68608SOL     OW 7662  11.566   4.382   6.693
68608SOL    HW1 7663  11.652   4.416   6.718
68608SOL    HW2 7664  11.513   4.461   6.677
68609SOL     OW 7665   0.444  10.690   8.846
68609SOL    HW1 7666   0.375  10.756   8.843
68609SOL    HW2 7667   0.397  10.607   8.844
68610SOL     OW 7668   0.644   8.093  13.028
68610SOL    HW1 7669   0.605   8.015  12.989
68610SOL    HW2 7670   0.610   8.096  13.117
68611SOL     OW 7671   6.908  11.535   2.679
68611SOL    HW1 7672   6.828  11.534   2.730
68611SOL    HW2 7673   6.961  11.464   2.716
68612SOL     OW 7674   2.263   5.953   7.081
68612SOL    HW1 7675   2.351   5.937   7.115
68612SOL    HW2 7676   2.230   5.866   7.060
68613SOL     OW 7677   4.120   3.883  11.385
68613SOL    HW1 7678   4.192   3.933  11.347
68613SOL    HW2 7679   4.059   3.871  11.312
68614SOL     OW 7680   9.778  13.163   2.840
68614SOL    HW1 7681   9.780  13.184   2.746
68614SOL    HW2 7682   9.842  13.093   2.850
68615SOL     OW 7683   3.406   7.747  10.125
68615SOL    HW1 7684   3.342   7.815  10.105
68615SOL    HW2 7685   3.450   7.779  10.204
68616SOL     OW 7686   8.304  12.776   7.049
68616SOL    HW1 7687   8.367  12.838   7.086
68616SOL    HW2 7688   8.241  12.832   7.003
68617SOL     OW 7689  13.416  13.753  13.014
68617SOL    HW1 7690  13.352  13.732  13.082
68617SOL    HW2 7691  13.426  13.848  13.019
68618SOL     OW 7692  10.232  10.316   8.304
68618SOL    HW1 7693  10.137  10.312   8.290
68618SOL    HW2 7694  10.242  10.355   8.391
68619SOL     OW 7695  14.646  10.587   9.254
68619SOL    HW1 7696  14.644  10.497   9.287
68619SOL    HW2 7697  14.554  10.611   9.242
68620SOL     OW 7698  12.811   3.569   7.998
68620SOL    HW1 7699  12.734   3.594   7.948
68620SOL    HW2 7700  12.785   3.580   8.090
68621SOL     OW 7701  12.474   0.560   9.003
68621SOL    HW1 7702  12.521   0.643   9.011
68621SOL    HW2 7703  12.388   0.584   8.969
68622SOL     OW 7704   4.350  10.107   6.378
68622SOL    HW1 7705   4.388  10.021   6.362
68622SOL    HW2 7706   4.370  10.158   6.300
68623SOL     OW 7707   5.388   5.860  12.116
68623SOL    HW1 7708   5.376   5.799  12.043
68623SOL    HW2 7709   5.473   5.839  12.152
68624SOL     OW 7710  10.554  12.906   8.476
68624SOL    HW1 7711  10.549  12.912   8.380
68624SOL    HW2 7712  10.571  12.814   8.493
68625SOL     OW 7713   4.433   9.652   1.894
68625SOL    HW1 7714   4.435   9.632   1.801
68625SOL    HW2 7715   4.390   9.737   1.900
68626SOL     OW 7716  13.425   8.496   5.536
68626SOL    HW1 7717  13.514   8.528   5.548
68626SOL    HW2 7718  13.384   8.559   5.477
68627SOL     OW 7719   3.525   5.460  11.731
68627SOL    HW1 7720   3.517   5.555  11.728
68627SOL    HW2 7721   3.560   5.441  11.818
68628SOL     OW 7722  14.211   0.389   4.025
68628SOL    HW1 7723  14.206   0.355   4.115
68628SOL    HW2 7724  14.150   0.334   3.976
68629SOL     OW 7725  13.942   1.388  11.401
68629SOL    HW1 7726  13.906   1.307  11.438
68629SOL    HW2 7727  13.903   1.458  11.454
68630SOL     OW 7728   8.484   2.732   8.653
68630SOL    HW1 7729   8.523   2.820   8.660
68630SOL    HW2 7730   8.407   2.735   8.709
68631SOL     OW 7731   8.210   0.713  11.505
68631SOL    HW1 7732   8.233   0.784  11.566
68631SOL    HW2 7733   8.195   0.637  11.562
68632SOL     OW 7734  13.649  14.660   4.448
68632SOL    HW1 7735  13.695  14.743   4.440
68632SOL    HW2 7736  13.559  14.684   4.467
68633SOL     OW 7737  11.625  14.526   8.326
68633SOL    HW1 7738  11.612  14.454   8.388
68633SOL    HW2 7739  11.651  14.599   8.380
68634SOL     OW 7740   9.663   6.032   7.839
68634SOL    HW1 7741   9.625   6.027   7.926
68634SOL    HW2 7742   9.597   6.076   7.786
68635SOL     OW 7743  13.675  13.821   3.988
68635SOL    HW1 7744  13.589  13.807   4.027
68635SOL    HW2 7745  13.664  13.803   3.895
68636SOL     OW 7746   6.154  11.987  11.395
68636SOL    HW1 7747   6.114  12.074  11.391
68636SOL    HW2 7748   6.192  11.982  11.483
68637SOL     OW 7749   7.602  14.099  11.843
68637SOL    HW1 7750   7.542  14.061  11.907
68637SOL    HW2 7751   7.612  14.190  11.870
68638SOL     OW 7752   9.748   5.585   8.728
68638SOL    HW1 7753   9.653   5.579   8.724
68638SOL    HW2 7754   9.771   5.648   8.659
68639SOL     OW 7755   9.432   6.400  12.359
68639SOL    HW1 7756   9.488   6.371  12.431
68639SOL    HW2 7757   9.493   6.419  12.287
68640SOL     OW 7758   6.868  12.046   6.928
68640SOL    HW1 7759   6.857  12.050   6.833
68640SOL    HW2 7760   6.896  12.134   6.953
68641SOL     OW 7761   8.291   0.347   1.478
68641SOL    HW1 7762   8.302   0.279   1.412
68641SOL    HW2 7763   8.249   0.302   1.552
68642SOL     OW 7764   2.588  12.353  12.822
68642SOL    HW1 7765   2.654  12.285  12.811
68642SOL    HW2 7766   2.595  12.379  12.913
68643SOL     OW 7767   5.633  12.631   6.315
68643SOL    HW1 7768   5.597  12.669   6.396
68643SOL    HW2 7769   5.647  12.706   6.258
68644SOL     OW 7770   9.520  12.195  11.743
68644SOL    HW1 7771   9.442  12.242  11.772
68644SOL    HW2 7772   9.485  12.122  11.691
68645SOL     OW 7773  13.824   8.968   2.503
68645SOL    HW1 7774  13.867   9.053   2.497
68645SOL    HW2 7775  13.873   8.920   2.570
68646SOL     OW 7776   5.235   3.254  13.545
68646SOL    HW1 7777   5.155   3.210  13.515
68646SOL    HW2 7778   5.306   3.194  13.524
68647SOL     OW 7779   0.726   2.552   3.740
68647SOL    HW1 7780   0.772   2.599   3.808
68647SOL    HW2 7781   0.795   2.507   3.691
68648SOL     OW 7782   5.097  13.049   6.485
68648SOL    HW1 7783   5.105  13.092   6.570
68648SOL    HW2 7784   5.187  13.044   6.452
68649SOL     OW 7785   0.345  11.284  13.066
68649SOL    HW1 7786   0.428  11.260  13.107
68649SOL    HW2 7787   0.320  11.366  13.109
68650SOL     OW 7788   8.637  13.186  11.092
68650SOL    HW1 7789   8.646  13.091  11.087
68650SOL    HW2 7790   8.542  13.201  11.102
68651SOL     OW 7791  11.268   8.629   4.701
68651SOL    HW1 7792  11.274   8.639   4.606
68651SOL    HW2 7793  11.347   8.581   4.725
68652SOL     OW 7794   4.291  12.403   7.002
68652SOL    HW1 7795   4.249  12.488   7.007
68652SOL    HW2 7796   4.304  12.378   7.094
68653SOL     OW 7797   5.697   4.617   5.637
68653SOL    HW1 7798   5.652   4.652   5.713
68653SOL    HW2 7799   5.642   4.545   5.607
68654SOL     OW 7800  14.143   0.880  12.904
68654SOL    HW1 7801  14.111   0.954  12.853
68654SOL    HW2 7802  14.181   0.919  12.983
68655SOL     OW 7803  14.512   8.514   8.395
68655SOL    HW1 7804  14.586   8.560   8.435
68655SOL    HW2 7805  14.526   8.525   8.301
68656SOL     OW 7806  11.001   0.917  14.174
68656SOL    HW1 7807  11.057   0.937  14.249
68656SOL    HW2 7808  11.001   0.997  14.121
68657SOL     OW 7809   6.727   8.261   2.892
68657SOL    HW1 7810   6.685   8.276   2.977
68657SOL    HW2 7811   6.746   8.167   2.891
68658SOL     OW 7812   3.764  11.508   9.010
68658SOL    HW1 7813   3.737  11.420   8.986
68658SOL    HW2 7814   3.695  11.565   8.975
68659SOL     OW 7815   4.809  14.572   4.172
68659SOL    HW1 7816   4.791  14.614   4.257
68659SOL    HW2 7817   4.887  14.617   4.140
68660SOL     OW 7818   4.167   9.295  12.517
68660SOL    HW1 7819   4.149   9.388  12.504
68660SOL    HW2 7820   4.127   9.251  12.442
68661SOL     OW 7821   1.252   0.567   4.550
68661SOL    HW1 7822   1.250   0.651   4.596
68661SOL    HW2 7823   1.168   0.526   4.572
68662SOL     OW 7824   4.938   5.377  12.237
68662SOL    HW1 7825   4.857   5.328  12.251
68662SOL    HW2 7826   4.966   5.402  12.325
68663SOL     OW 7827   4.149   1.899   5.144
68663SOL    HW1 7828   4.240   1.930   5.147
68663SOL    HW2 7829   4.103   1.952   5.209
68664SOL     OW 7830   5.761  13.103  12.899
68664SOL    HW1 7831   5.762  13.050  12.979
68664SOL    HW2 7832   5.805  13.048  12.834
68665SOL     OW 7833   5.105   4.432  14.330
68665SOL    HW1 7834   5.019   4.429  14.287
68665SOL    HW2 7835   5.167   4.417  14.259
68666SOL     OW 7836  12.136   5.785   1.704
68666SOL    HW1 7837  12.080   5.816   1.775
68666SOL    HW2 7838  12.128   5.690   1.706
68667SOL     OW 7839  12.801  11.911   4.475
68667SOL    HW1 7840  12.874  11.855   4.448
68667SOL    HW2 7841  12.836  12.000   4.469
68668SOL     OW 7842  13.342   3.007   1.052
68668SOL    HW1 7843  13.319   3.099   1.046
68668SOL    HW2 7844  13.430   3.007   1.089
68669SOL     OW 7845   8.235   6.867   7.463
68669SOL    HW1 7846   8.192   6.796   7.509
68669SOL    HW2 7847   8.305   6.896   7.522
68670SOL     OW 7848   8.136   4.418   2.468
68670SOL    HW1 7849   8.061   4.457   2.423
68670SOL    HW2 7850   8.169   4.487   2.525
68671SOL     OW 7851   5.371  11.527   8.791
68671SOL    HW1 7852   5.388  11.552   8.700
68671SOL    HW2 7853   5.286  11.483   8.788
68672SOL     OW 7854   3.530   7.929   0.781
68672SOL    HW1 7855   3.516   7.856   0.841
68672SOL    HW2 7856   3.586   7.893   0.712
68673SOL     OW 7857   3.973   7.636   4.399
68673SOL    HW1 7858   4.049   7.582   4.418
68673SOL    HW2 7859   3.989   7.669   4.310
68674SOL     OW 7860   9.345  11.852   3.366
68674SOL    HW1 7861   9.256  11.828   3.343
68674SOL    HW2 7862   9.349  11.841   3.461
68675SOL     OW 7863  12.099  11.389   8.276
68675SOL    HW1 7864  12.159  11.325   8.314
68675SOL    HW2 7865  12.035  11.336   8.229
68676SOL     OW 7866   0.194   0.905  11.676
68676SOL    HW1 7867   0.162   0.972  11.736
68676SOL    HW2 7868   0.123   0.893  11.612
68677SOL     OW 7869   4.081   6.317   3.643
68677SOL    HW1 7870   4.075   6.308   3.548
68677SOL    HW2 7871   4.126   6.401   3.656
68678SOL     OW 7872   2.328   7.040   6.202
68678SOL    HW1 7873   2.396   7.060   6.137
68678SOL    HW2 7874   2.297   7.126   6.230
68679SOL     OW 7875  12.160  10.955  13.401
68679SOL    HW1 7876  12.247  10.962  13.440
68679SOL    HW2 7877  12.139  11.044  13.373
68680SOL     OW 7878  13.362   2.362   0.216
68680SOL    HW1 7879  13.388   2.449   0.187
68680SOL    HW2 7880  13.350   2.370   0.310
68681SOL     OW 7881  10.489   6.052  12.342
68681SOL    HW1 7882  10.448   6.122  12.392
68681SOL    HW2 7883  10.461   5.971  12.385
68682SOL     OW 7884   7.525   1.032  11.043
68682SOL    HW1 7885   7.561   0.955  11.087
68682SOL    HW2 7886   7.556   1.025  10.953
68683SOL     OW 7887   1.326   2.112   9.135
68683SOL    HW1 7888   1.374   2.086   9.057
68683SOL    HW2 7889   1.234   2.094   9.114
68684SOL     OW 7890   5.684   7.517   8.848
68684SOL    HW1 7891   5.620   7.461   8.892
68684SOL    HW2 7892   5.645   7.534   8.762
68685SOL     OW 7893   2.912  13.639   3.359
68685SOL    HW1 7894   2.867  13.682   3.287
68685SOL    HW2 7895   2.996  13.685   3.366
68686SOL     OW 7896   7.574   1.932   7.264
68686SOL    HW1 7897   7.599   1.895   7.180
68686SOL    HW2 7898   7.549   1.857   7.318
68687SOL     OW 7899   8.629  12.178   1.198
68687SOL    HW1 7900   8.575  12.253   1.174
68687SOL    HW2 7901   8.682  12.161   1.120
68688SOL     OW 7902   0.279   2.105   1.184
68688SOL    HW1 7903   0.356   2.150   1.151
68688SOL    HW2 7904   0.215   2.174   1.198
68689SOL     OW 7905   7.684  12.199   2.423
68689SOL    HW1 7906   7.627  12.122   2.432
68689SOL    HW2 7907   7.700  12.227   2.513
68690SOL     OW 7908   9.893   0.334   9.249
68690SOL    HW1 7909   9.975   0.380   9.232
68690SOL    HW2 7910   9.914   0.274   9.321
68691SOL     OW 7911   7.921   3.043   6.123
68691SOL    HW1 7912   7.883   3.004   6.044
68691SOL    HW2 7913   7.869   3.006   6.194
68692SOL     OW 7914  11.786   4.859   8.950
68692SOL    HW1 7915  11.808   4.776   8.992
68692SOL    HW2 7916  11.697   4.847   8.917
68693SOL     OW 7917   7.765  13.287  14.832
68693SOL    HW1 7918   7.815  13.368  14.825
68693SOL    HW2 7919   7.676  13.311  14.807
68694SOL     OW 7920   3.349  12.514   1.571
68694SOL    HW1 7921   3.358  12.425   1.604
68694SOL    HW2 7922   3.260  12.540   1.594
68695SOL     OW 7923   1.715   7.403  12.885
68695SOL    HW1 7924   1.639   7.425  12.831
68695SOL    HW2 7925   1.709   7.463  12.959
68696SOL     OW 7926  10.575   6.764   9.106
68696SOL    HW1 7927  10.661   6.724   9.122
68696SOL    HW2 7928  10.529   6.755   9.189
68697SOL     OW 7929  13.892   7.829   5.633
68697SOL    HW1 7930  13.860   7.740   5.644
68697SOL    HW2 7931  13.984   7.819   5.611
68698SOL     OW 7932   4.155  10.467  11.698
68698SOL    HW1 7933   4.211  10.544  11.690
68698SOL    HW2 7934   4.069  10.497  11.668
68699SOL     OW 7935   9.213   9.739   0.166
68699SOL    HW1 7936   9.303   9.750   0.198
68699SOL    HW2 7937   9.175   9.827   0.173
68700SOL     OW 7938   7.524   4.025   7.926
68700SOL    HW1 7939   7.557   3.948   7.879
68700SOL    HW2 7940   7.434   4.036   7.895
68701SOL     OW 7941  14.646   8.248  10.755
68701SOL    HW1 7942  14.591   8.275  10.681
68701SOL    HW2 7943  14.658   8.328  10.806
68702SOL     OW 7944   7.239   7.660  14.574
68702SOL    HW1 7945   7.286   7.690  14.496
68702SOL    HW2 7946   7.268   7.718  14.644
68703SOL     OW 7947   0.208   3.381   0.214
68703SOL    HW1 7948   0.128   3.378   0.266
68703SOL    HW2 7949   0.213   3.471   0.182
68704SOL     OW 7950   4.693   4.144   1.504
68704SOL    HW1 7951   4.743   4.125   1.425
68704SOL    HW2 7952   4.607   4.104   1.489
68705SOL     OW 7953   9.017   7.493  11.113
68705SOL    HW1 7954   9.074   7.533  11.178
68705SOL    HW2 7955   9.060   7.512  11.029
68706SOL     OW 7956   4.517  14.003   3.562
68706SOL    HW1 7957   4.568  14.048   3.630
68706SOL    HW2 7958   4.434  13.983   3.605
68707SOL     OW 7959   2.095  10.102  14.747
68707SOL    HW1 7960   2.174  10.140  14.709
68707SOL    HW2 7961   2.126  10.031  14.802
68708SOL     OW 7962   3.219   5.899   4.453
68708SOL    HW1 7963   3.287   5.831   4.451
68708SOL    HW2 7964   3.183   5.894   4.542
68709SOL     OW 7965   4.501   4.057   6.916
68709SOL    HW1 7966   4.495   4.036   6.823
68709SOL    HW2 7967   4.594   4.072   6.932
68710SOL     OW 7968  12.605   5.632  13.599
68710SOL    HW1 7969  12.668   5.570  13.636
68710SOL    HW2 7970  12.596   5.605  13.508
68711SOL     OW 7971   5.472   5.745   7.775
68711SOL    HW1 7972   5.461   5.676   7.709
68711SOL    HW2 7973   5.403   5.808   7.755
68712SOL     OW 7974   3.277  11.725   0.610
68712SOL    HW1 7975   3.322  11.809   0.601
68712SOL    HW2 7976   3.214  11.724   0.538
68713SOL     OW 7977  10.313  14.269  11.301
68713SOL    HW1 7978  10.239  14.209  11.313
68713SOL    HW2 7979  10.306  14.329  11.375
68714SOL     OW 7980  12.506   8.989   2.991
68714SOL    HW1 7981  12.488   9.082   3.004
68714SOL    HW2 7982  12.551   8.985   2.906
68715SOL     OW 7983  13.643   6.988   3.417
68715SOL    HW1 7984  13.610   6.903   3.386
68715SOL    HW2 7985  13.593   7.052   3.366
68716SOL     OW 7986   7.237   1.729   0.732
68716SOL    HW1 7987   7.306   1.763   0.674
68716SOL    HW2 7988   7.272   1.742   0.820
68717SOL     OW 7989   0.621  13.680   7.639
68717SOL    HW1 7990   0.578  13.713   7.559
68717SOL    HW2 7991   0.715  13.695   7.623
68718SOL     OW 7992   2.657   4.904  14.216
68718SOL    HW1 7993   2.587   4.922  14.153
68718SOL    HW2 7994   2.615   4.856  14.287
68719SOL     OW 7995   4.438   7.352  13.675
68719SOL    HW1 7996   4.525   7.377  13.708
68719SOL    HW2 7997   4.437   7.256  13.680
68720SOL     OW 7998   9.267   3.826   7.744
68720SOL    HW1 7999   9.352   3.785   7.731
68720SOL    HW2 8000   9.204   3.757   7.724
68721SOL     OW 8001  14.072  11.266  13.508
68721SOL    HW1 8002  14.063  11.199  13.441
68721SOL    HW2 8003  14.166  11.272  13.525
68722SOL     OW 8004  13.008  11.797  10.236
68722SOL    HW1 8005  13.031  11.706  10.256
68722SOL    HW2 8006  13.064  11.848  10.295
68723SOL     OW 8007  11.065   6.013   3.580
68723SOL    HW1 8008  11.132   5.981   3.639
68723SOL    HW2 8009  11.040   5.937   3.528
68724SOL     OW 8010  13.153   4.341  11.109
68724SOL    HW1 8011  13.140   4.354  11.015
68724SOL    HW2 8012  13.088   4.276  11.134
68725SOL     OW 8013  10.370   8.052   5.414
68725SOL    HW1 8014  10.330   7.973   5.379
68725SOL    HW2 8015  10.326   8.066   5.498
68726SOL     OW 8016  13.310   5.440  13.441
68726SOL    HW1 8017  13.306   5.532  13.466
68726SOL    HW2 8018  13.404   5.421  13.434
68727SOL     OW 8019   4.752   3.286   5.467
68727SOL    HW1 8020   4.688   3.217   5.481
68727SOL    HW2 8021   4.829   3.258   5.517
68728SOL     OW 8022   9.257  10.342  14.030
68728SOL    HW1 8023   9.249  10.276  14.099
68728SOL    HW2 8024   9.204  10.415  14.061
68729SOL     OW 8025   5.549   0.932  11.408
68729SOL    HW1 8026   5.487   0.997  11.376
68729SOL    HW2 8027   5.500   0.850  11.408
68730SOL     OW 8028   3.180   9.689   7.426
68730SOL    HW1 8029   3.194   9.782   7.440
68730SOL    HW2 8030   3.121   9.683   7.351
68731SOL     OW 8031  12.182   8.894   9.721
68731SOL    HW1 8032  12.222   8.952   9.655
68731SOL    HW2 8033  12.110   8.852   9.674
68732SOL     OW 8034   0.627   9.197  12.805
68732SOL    HW1 8035   0.653   9.134  12.738
68732SOL    HW2 8036   0.674   9.170  12.884
68733SOL     OW 8037   9.228   3.018   4.447
68733SOL    HW1 8038   9.248   3.108   4.472
68733SOL    HW2 8039   9.171   3.026   4.371
68734SOL     OW 8040   2.142   5.451   0.025
68734SOL    HW1 8041   2.202   5.404   0.083
68734SOL    HW2 8042   2.081   5.495   0.084
68735SOL     OW 8043  14.312   3.254   1.727
68735SOL    HW1 8044  14.326   3.178   1.670
68735SOL    HW2 8045  14.293   3.216   1.813
68736SOL     OW 8046   9.336  10.199   1.876
68736SOL    HW1 8047   9.399  10.174   1.808
68736SOL    HW2 8048   9.353  10.293   1.890
68737SOL     OW 8049   7.739  10.601   0.939
68737SOL    HW1 8050   7.684  10.652   0.999
68737SOL    HW2 8051   7.702  10.620   0.852
68738SOL     OW 8052  12.236   6.224   9.939
68738SOL    HW1 8053  12.140   6.225   9.933
68738SOL    HW2 8054  12.254   6.212  10.032
68739SOL     OW 8055  13.396  13.438   5.281
68739SOL    HW1 8056  13.324  13.439   5.218
68739SOL    HW2 8057  13.431  13.527   5.280
68740SOL     OW 8058  10.434   3.871   0.943
68740SOL    HW1 8059  10.417   3.956   0.903
68740SOL    HW2 8060  10.510   3.885   1.000
68741SOL     OW 8061  12.099   2.620  11.408
68741SOL    HW1 8062  12.145   2.701  11.431
68741SOL    HW2 8063  12.107   2.615  11.313
68742SOL     OW 8064   1.890   2.305   7.417
68742SOL    HW1 8065   1.973   2.344   7.446
68742SOL    HW2 8066   1.831   2.314   7.492
68743SOL     OW 8067   9.158   7.197   8.218
68743SOL    HW1 8068   9.092   7.136   8.186
68743SOL    HW2 8069   9.235   7.143   8.234
68744SOL     OW 8070   8.844   1.334   7.524
68744SOL    HW1 8071   8.858   1.428   7.511
68744SOL    HW2 8072   8.797   1.328   7.607
68745SOL     OW 8073  12.987   1.854   2.980
68745SOL    HW1 8074  13.019   1.766   3.004
68745SOL    HW2 8075  13.048   1.884   2.912
68746SOL     OW 8076  14.441   6.928   8.355
68746SOL    HW1 8077  14.514   6.904   8.413
68746SOL    HW2 8078  14.366   6.881   8.391
68747SOL     OW 8079   5.626   1.300  14.097
68747SOL    HW1 8080   5.602   1.277  14.007
68747SOL    HW2 8081   5.711   1.342  14.089
68748SOL     OW 8082  11.148   3.751  10.211
68748SOL    HW1 8083  11.158   3.821  10.276
68748SOL    HW2 8084  11.069   3.704  10.237
68749SOL     OW 8085   7.682   2.084  12.602
68749SOL    HW1 8086   7.588   2.081  12.619
68749SOL    HW2 8087   7.699   2.007  12.546
68750SOL     OW 8088   6.859  13.238   8.674
68750SOL    HW1 8089   6.936  13.263   8.623
68750SOL    HW2 8090   6.794  13.213   8.608
68751SOL     OW 8091   0.490   3.406   4.697
68751SOL    HW1 8092   0.458   3.423   4.608
68751SOL    HW2 8093   0.469   3.314   4.713
68752SOL     OW 8094   8.437   4.352  13.461
68752SOL    HW1 8095   8.424   4.356  13.556
68752SOL    HW2 8096   8.399   4.433  13.428
68753SOL     OW 8097   2.588   2.674   8.860
68753SOL    HW1 8098   2.589   2.587   8.820
68753SOL    HW2 8099   2.535   2.664   8.939
68754SOL     OW 8100   3.108  11.919  11.595
68754SOL    HW1 8101   3.067  11.958  11.673
68754SOL    HW2 8102   3.072  11.968  11.522
68755SOL     OW 8103  10.926  11.467  14.013
68755SOL    HW1 8104  10.873  11.544  13.994
68755SOL    HW2 8105  10.955  11.435  13.928
68756SOL     OW 8106   5.627   9.674   3.357
68756SOL    HW1 8107   5.601   9.586   3.384
68756SOL    HW2 8108   5.688   9.660   3.285
68757SOL     OW 8109   8.933  12.207  10.378
68757SOL    HW1 8110   8.941  12.112  10.366
68757SOL    HW2 8111   8.851  12.229  10.333
68758SOL     OW 8112  12.700  14.586  11.116
68758SOL    HW1 8113  12.610  14.602  11.142
68758SOL    HW2 8114  12.736  14.532  11.186
68759SOL     OW 8115  11.430   5.942   1.169
68759SOL    HW1 8116  11.509   5.958   1.116
68759SOL    HW2 8117  11.370   6.011   1.144
68760SOL     OW 8118  10.126   8.987   7.714
68760SOL    HW1 8119  10.135   8.996   7.809
68760SOL    HW2 8120  10.194   9.044   7.677
68761SOL     OW 8121  12.731   3.202   6.357
68761SOL    HW1 8122  12.705   3.276   6.303
68761SOL    HW2 8123  12.733   3.127   6.297
68762SOL     OW 8124  11.023   5.424  12.656
68762SOL    HW1 8125  11.059   5.357  12.598
68762SOL    HW2 8126  11.058   5.507  12.622
68763SOL     OW 8127  11.108   4.166   5.305
68763SOL    HW1 8128  11.101   4.076   5.337
68763SOL    HW2 8129  11.202   4.186   5.307
68764SOL     OW 8130   8.551   9.791   1.484
68764SOL    HW1 8131   8.579   9.713   1.532
68764SOL    HW2 8132   8.519   9.757   1.401
68765SOL     OW 8133  11.975  13.064   0.534
68765SOL    HW1 8134  12.007  13.129   0.597
68765SOL    HW2 8135  12.048  13.051   0.474
68766SOL     OW 8136  11.687  14.552   9.801
68766SOL    HW1 8137  11.771  14.596   9.793
68766SOL    HW2 8138  11.687  14.514   9.889
68767SOL     OW 8139   3.538  10.702   5.238
68767SOL    HW1 8140   3.454  10.657   5.237
68767SOL    HW2 8141   3.538  10.755   5.158
68768SOL     OW 8142   4.917   2.916   0.693
68768SOL    HW1 8143   4.921   2.906   0.788
68768SOL    HW2 8144   4.958   2.836   0.659
68769SOL     OW 8145   4.489   1.363   3.744
68769SOL    HW1 8146   4.547   1.436   3.725
68769SOL    HW2 8147   4.507   1.298   3.676
68770SOL     OW 8148  13.354  11.584   8.560
68770SOL    HW1 8149  13.349  11.571   8.655
68770SOL    HW2 8150  13.445  11.612   8.545
68771SOL     OW 8151   8.888  11.441  14.282
68771SOL    HW1 8152   8.830  11.452  14.206
68771SOL    HW2 8153   8.835  11.393  14.346
68772SOL     OW 8154   5.186   5.410  13.236
68772SOL    HW1 8155   5.246   5.354  13.187
68772SOL    HW2 8156   5.100   5.368  13.227
68773SOL     OW 8157   4.304   6.532   8.419
68773SOL    HW1 8158   4.302   6.624   8.394
68773SOL    HW2 8159   4.387   6.521   8.466
68774SOL     OW 8160   2.635  12.091  13.034
68774SOL    HW1 8161   2.599  12.003  13.043
68774SOL    HW2 8162   2.695  12.085  12.960
68775SOL     OW 8163   9.393   7.555   8.589
68775SOL    HW1 8164   9.386   7.504   8.508
68775SOL    HW2 8165   9.367   7.644   8.563
68776SOL     OW 8166  14.532   4.488  10.302
68776SOL    HW1 8167  14.587   4.412  10.321
68776SOL    HW2 8168  14.456   4.476  10.358
68777SOL     OW 8169   8.502   3.317   1.045
68777SOL    HW1 8170   8.483   3.392   0.989
68777SOL    HW2 8171   8.444   3.329   1.121
68778SOL     OW 8172  11.044   9.471   1.556
68778SOL    HW1 8173  11.091   9.528   1.616
68778SOL    HW2 8174  10.994   9.412   1.612
68779SOL     OW 8175   4.555   5.420   0.389
68779SOL    HW1 8176   4.596   5.461   0.313
68779SOL    HW2 8177   4.523   5.493   0.441
68780SOL     OW 8178   7.691   8.505  11.283
68780SOL    HW1 8179   7.730   8.469  11.363
68780SOL    HW2 8180   7.764   8.543  11.235
68781SOL     OW 8181   0.227   5.381  11.823
68781SOL    HW1 8182   0.217   5.371  11.917
68781SOL    HW2 8183   0.206   5.295  11.787
68782SOL     OW 8184  13.799   0.553  13.873
68782SOL    HW1 8185  13.881   0.504  13.884
68782SOL    HW2 8186  13.744   0.525  13.946
68783SOL     OW 8187   1.563   5.247   7.208
68783SOL    HW1 8188   1.470   5.266   7.218
68783SOL    HW2 8189   1.572   5.156   7.234
68784SOL     OW 8190   8.420   2.903  12.315
68784SOL    HW1 8191   8.406   2.997  12.313
68784SOL    HW2 8192   8.331   2.866  12.318
68785SOL     OW 8193   1.441   1.349   0.330
68785SOL    HW1 8194   1.424   1.288   0.258
68785SOL    HW2 8195   1.514   1.403   0.299
68786SOL     OW 8196   7.644   8.714   5.765
68786SOL    HW1 8197   7.676   8.804   5.759
68786SOL    HW2 8198   7.678   8.682   5.848
68787SOL     OW 8199   7.453  12.112   9.912
68787SOL    HW1 8200   7.424  12.091   9.823
68787SOL    HW2 8201   7.425  12.037   9.964
68788SOL     OW 8202   6.381  14.693   7.052
68788SOL    HW1 8203   6.460  14.710   7.104
68788SOL    HW2 8204   6.349  14.780   7.028
68789SOL     OW 8205   5.032   0.190   4.628
68789SOL    HW1 8206   4.940   0.166   4.621
68789SOL    HW2 8207   5.072   0.119   4.679
68790SOL     OW 8208   6.377  12.258   9.042
68790SOL    HW1 8209   6.408  12.223   9.126
68790SOL    HW2 8210   6.398  12.189   8.979
68791SOL     OW 8211   3.793   9.087   2.242
68791SOL    HW1 8212   3.851   9.039   2.182
68791SOL    HW2 8213   3.835   9.079   2.327
68792SOL     OW 8214   2.175   9.579   2.346
68792SOL    HW1 8215   2.242   9.644   2.323
68792SOL    HW2 8216   2.098   9.630   2.370
68793SOL     OW 8217  12.840   6.900   6.424
68793SOL    HW1 8218  12.935   6.908   6.428
68793SOL    HW2 8219  12.825   6.808   6.403
68794SOL     OW 8220   5.215  11.338  10.525
68794SOL    HW1 8221   5.275  11.310  10.593
68794SOL    HW2 8222   5.213  11.264  10.463
68795SOL     OW 8223   3.611   2.944  13.986
68795SOL    HW1 8224   3.574   2.979  14.066
68795SOL    HW2 8225   3.590   2.850  13.989
68796SOL     OW 8226   3.247   4.425   3.848
68796SOL    HW1 8227   3.328   4.471   3.870
68796SOL    HW2 8228   3.197   4.487   3.795
68797SOL     OW 8229   6.585  10.911   9.051
68797SOL    HW1 8230   6.612  11.002   9.060
68797SOL    HW2 8231   6.646  10.875   8.986
68798SOL     OW 8232   0.110  11.632   0.759
68798SOL    HW1 8233   0.059  11.575   0.818
68798SOL    HW2 8234   0.045  11.666   0.697
68799SOL     OW 8235   1.999   3.776   7.142
68799SOL    HW1 8236   1.963   3.726   7.068
68799SOL    HW2 8237   1.925   3.829   7.173
68800SOL     OW 8238   6.781  14.370   7.474
68800SOL    HW1 8239   6.871  14.340   7.481
68800SOL    HW2 8240   6.730  14.306   7.523
68801SOL     OW 8241   5.870   0.963   2.698
68801SOL    HW1 8242   5.775   0.956   2.705
68801SOL    HW2 8243   5.891   0.913   2.618
68802SOL     OW 8244  13.441   5.261  14.126
68802SOL    HW1 8245  13.435   5.274  14.031
68802SOL    HW2 8246  13.490   5.337  14.157
68803SOL     OW 8247  10.443   5.677   1.845
68803SOL    HW1 8248  10.416   5.751   1.790
68803SOL    HW2 8249  10.386   5.684   1.922
68804SOL     OW 8250   6.249  13.449   1.737
68804SOL    HW1 8251   6.266  13.539   1.707
68804SOL    HW2 8252   6.240  13.458   1.832
68805SOL     OW 8253   5.406  12.669  13.666
68805SOL    HW1 8254   5.483  12.612  13.660
68805SOL    HW2 8255   5.363  12.642  13.748
68806SOL     OW 8256  11.408   3.190   0.061
68806SOL    HW1 8257  11.420   3.139   0.141
68806SOL    HW2 8258  11.396   3.280   0.091
68807SOL     OW 8259   7.239   4.730  11.635
68807SOL    HW1 8260   7.306   4.798  11.646
68807SOL    HW2 8261   7.164   4.777  11.597
68808SOL     OW 8262   4.324   2.378   6.200
68808SOL    HW1 8263   4.411   2.417   6.203
68808SOL    HW2 8264   4.275   2.422   6.269
68809SOL     OW 8265  13.164   1.845   4.131
68809SOL    HW1 8266  13.132   1.817   4.216
68809SOL    HW2 8267  13.137   1.936   4.123
68810SOL     OW 8268   2.562   8.827  13.308
68810SOL    HW1 8269   2.517   8.899  13.351
68810SOL    HW2 8270   2.636   8.869  13.263
68811SOL     OW 8271   5.888   1.094   5.998
68811SOL    HW1 8272   5.873   1.025   5.934
68811SOL    HW2 8273   5.901   1.173   5.946
68812SOL     OW 8274   1.726   3.343   2.372
68812SOL    HW1 8275   1.804   3.359   2.320
68812SOL    HW2 8276   1.728   3.249   2.390
68813SOL     OW 8277   8.160   6.902  11.164
68813SOL    HW1 8278   8.070   6.929  11.184
68813SOL    HW2 8279   8.151   6.815  11.127
68814SOL     OW 8280   8.222   1.195  10.653
68814SOL    HW1 8281   8.267   1.128  10.705
68814SOL    HW2 8282   8.140   1.209  10.699
68815SOL     OW 8283   3.048  11.291   7.465
68815SOL    HW1 8284   3.017  11.325   7.549
68815SOL    HW2 8285   3.061  11.369   7.411
68816SOL     OW 8286   7.772   0.595   7.503
68816SOL    HW1 8287   7.736   0.677   7.538
68816SOL    HW2 8288   7.846   0.576   7.560
68817SOL     OW 8289   3.623   1.767  10.769
68817SOL    HW1 8290   3.553   1.770  10.703
68817SOL    HW2 8291   3.634   1.858  10.796
68818SOL     OW 8292   0.267   4.558   4.521
68818SOL    HW1 8293   0.268   4.463   4.524
68818SOL    HW2 8294   0.257   4.586   4.612
68819SOL     OW 8295   4.291   0.914   1.820
68819SOL    HW1 8296   4.373   0.902   1.868
68819SOL    HW2 8297   4.303   0.865   1.738
68820SOL     OW 8298   5.382  12.121   7.330
68820SOL    HW1 8299   5.388  12.045   7.273
68820SOL    HW2 8300   5.289  12.146   7.327
68821SOL     OW 8301   8.063   9.062  10.779
68821SOL    HW1 8302   8.143   9.037  10.734
68821SOL    HW2 8303   8.057   9.157  10.767
68822SOL     OW 8304   8.852  13.581  11.992
68822SOL    HW1 8305   8.833  13.538  11.909
68822SOL    HW2 8306   8.861  13.674  11.969
68823SOL     OW 8307  10.380   9.274   2.102
68823SOL    HW1 8308  10.399   9.353   2.052
68823SOL    HW2 8309  10.336   9.215   2.040
68824SOL     OW 8310  10.654  13.083  14.599
68824SOL    HW1 8311  10.690  13.003  14.562
68824SOL    HW2 8312  10.649  13.066  14.693
68825SOL     OW 8313   1.705   4.802   0.982
68825SOL    HW1 8314   1.627   4.852   1.006
68825SOL    HW2 8315   1.732   4.759   1.063
68826SOL     OW 8316  11.493   6.640  10.291
68826SOL    HW1 8317  11.437   6.596  10.227
68826SOL    HW2 8318  11.481   6.589  10.372
68827SOL     OW 8319   2.345   1.739   6.941
68827SOL    HW1 8320   2.372   1.701   7.025
68827SOL    HW2 8321   2.426   1.771   6.903
68828SOL     OW 8322  12.742  12.931   9.242
68828SOL    HW1 8323  12.726  12.886   9.159
68828SOL    HW2 8324  12.814  12.992   9.222
68829SOL     OW 8325  13.861   2.324   6.904
68829SOL    HW1 8326  13.893   2.404   6.947
68829SOL    HW2 8327  13.913   2.254   6.942
68830SOL     OW 8328  12.950   9.419   0.922
68830SOL    HW1 8329  12.962   9.398   0.829
68830SOL    HW2 8330  13.018   9.370   0.967
68831SOL     OW 8331   4.494   8.189   9.737
68831SOL    HW1 8332   4.558   8.122   9.761
68831SOL    HW2 8333   4.531   8.270   9.772
68832SOL     OW 8334   8.625  12.197   3.366
68832SOL    HW1 8335   8.621  12.109   3.403
68832SOL    HW2 8336   8.539  12.234   3.382
68833SOL     OW 8337  13.977   4.279   5.810
68833SOL    HW1 8338  13.986   4.284   5.906
68833SOL    HW2 8339  13.883   4.282   5.795
68834SOL     OW 8340   6.644  10.224   4.909
68834SOL    HW1 8341   6.587  10.285   4.861
68834SOL    HW2 8342   6.670  10.274   4.987
68835SOL     OW 8343   9.546   5.582   0.088
68835SOL    HW1 8344   9.573   5.670   0.115
68835SOL    HW2 8345   9.451   5.584   0.090
68836SOL     OW 8346  10.395   9.775  11.316
68836SOL    HW1 8347  10.365   9.695  11.273
68836SOL    HW2 8348  10.403   9.751  11.408
68837SOL     OW 8349   1.697   4.176  13.601
68837SOL    HW1 8350   1.749   4.106  13.561
68837SOL    HW2 8351   1.711   4.252  13.544
68838SOL     OW 8352   0.406   1.800  11.453
68838SOL    HW1 8353   0.473   1.759  11.398
68838SOL    HW2 8354   0.368   1.726  11.501
68839SOL     OW 8355  13.080   1.539  11.616
68839SOL    HW1 8356  13.065   1.453  11.577
68839SOL    HW2 8357  13.175   1.550  11.611
68840SOL     OW 8358   7.299   5.649   8.105
68840SOL    HW1 8359   7.249   5.571   8.083
68840SOL    HW2 8360   7.385   5.634   8.067
68841SOL     OW 8361   8.054   3.644  12.690
68841SOL    HW1 8362   8.082   3.589  12.617
68841SOL    HW2 8363   8.095   3.729  12.673
68842SOL     OW 8364   8.158   9.863  12.931
68842SOL    HW1 8365   8.180   9.815  12.851
68842SOL    HW2 8366   8.080   9.818  12.964
68843SOL     OW 8367   9.926  10.094  13.847
68843SOL    HW1 8368   9.836  10.063  13.855
68843SOL    HW2 8369   9.943  10.093  13.752
68844SOL     OW 8370  12.760  13.163   3.193
68844SOL    HW1 8371  12.760  13.101   3.265
68844SOL    HW2 8372  12.852  13.185   3.180
68845SOL     OW 8373   0.064  13.095   7.444
68845SOL    HW1 8374  14.847  13.083   7.460
68845SOL    HW2 8375   0.076  13.190   7.444
68846SOL     OW 8376  11.195  12.646   5.380
68846SOL    HW1 8377  11.228  12.579   5.320
68846SOL    HW2 8378  11.236  12.625   5.464
68847SOL     OW 8379   0.048  10.659   9.089
68847SOL    HW1 8380   0.090  10.722   9.031
68847SOL    HW2 8381  14.849  10.705   9.125
68848SOL     OW 8382   7.606  10.301  11.586
68848SOL    HW1 8383   7.534  10.237  11.594
68848SOL    HW2 8384   7.590  10.363  11.657
68849SOL     OW 8385   4.256   3.888   2.409
68849SOL    HW1 8386   4.319   3.815   2.409
68849SOL    HW2 8387   4.211   3.880   2.492
68850SOL     OW 8388  11.628  10.933   0.836
68850SOL    HW1 8389  11.723  10.944   0.842
68850SOL    HW2 8390  11.616  10.847   0.796
68851SOL     OW 8391   0.607  11.545   4.976
68851SOL    HW1 8392   0.690  11.503   4.952
68851SOL    HW2 8393   0.616  11.635   4.946
68852SOL     OW 8394   6.013   1.207   0.952
68852SOL    HW1 8395   5.949   1.173   0.889
68852SOL    HW2 8396   6.097   1.173   0.921
68853SOL     OW 8397  11.638   1.105  13.883
68853SOL    HW1 8398  11.636   1.011  13.901
68853SOL    HW2 8399  11.724   1.134  13.916
68854SOL     OW 8400  11.551  10.246   8.021
68854SOL    HW1 8401  11.510  10.205   7.945
68854SOL    HW2 8402  11.581  10.173   8.075
68855SOL     OW 8403  12.545  12.930   6.634
68855SOL    HW1 8404  12.612  12.864   6.652
68855SOL    HW2 8405  12.539  12.934   6.539
68856SOL     OW 8406   6.890   8.976  12.121
68856SOL    HW1 8407   6.909   9.064  12.153
68856SOL    HW2 8408   6.804   8.984  12.079
68857SOL     OW 8409   9.819   8.214   0.095
68857SOL    HW1 8410   9.767   8.165   0.031
68857SOL    HW2 8411   9.893   8.157   0.115
68858SOL     OW 8412   2.308  10.832   7.630
68858SOL    HW1 8413   2.248  10.884   7.683
68858SOL    HW2 8414   2.282  10.742   7.646
68859SOL     OW 8415   4.914   9.293   4.120
68859SOL    HW1 8416   4.939   9.214   4.167
68859SOL    HW2 8417   4.904   9.360   4.188
68860SOL     OW 8418  10.273   6.492  10.579
68860SOL    HW1 8419  10.339   6.510  10.647
68860SOL    HW2 8420  10.294   6.405  10.547
68861SOL     OW 8421   0.613   0.373  14.669
68861SOL    HW1 8422   0.572   0.290  14.642
68861SOL    HW2 8423   0.686   0.384  14.609
68862SOL     OW 8424   8.836   2.641   7.219
68862SOL    HW1 8425   8.797   2.599   7.295
68862SOL    HW2 8426   8.762   2.664   7.162
68863SOL     OW 8427   2.667   0.576   0.363
68863SOL    HW1 8428   2.719   0.502   0.395
68863SOL    HW2 8429   2.629   0.544   0.281
68864SOL     OW 8430   6.813  13.386   1.016
68864SOL    HW1 8431   6.799  13.291   1.010
68864SOL    HW2 8432   6.876  13.405   0.946
68865SOL     OW 8433   1.432  11.237   4.497
68865SOL    HW1 8434   1.342  11.218   4.469
68865SOL    HW2 8435   1.467  11.293   4.428
68866SOL     OW 8436  11.248   7.886  14.655
68866SOL    HW1 8437  11.336   7.872  14.690
68866SOL    HW2 8438  11.225   7.975  14.683
68867SOL     OW 8439  13.379   5.845   2.854
68867SOL    HW1 8440  13.448   5.840   2.788
68867SOL    HW2 8441  13.304   5.801   2.814
68868SOL     OW 8442  14.651   2.854  13.782
68868SOL    HW1 8443  14.604   2.854  13.865
68868SOL    HW2 8444  14.587   2.885  13.718
68869SOL     OW 8445   9.009  12.923  13.205
68869SOL    HW1 8446   8.988  12.831  13.188
68869SOL    HW2 8447   8.950  12.949  13.276
68870SOL     OW 8448   6.403  11.937  13.625
68870SOL    HW1 8449   6.401  11.878  13.700
68870SOL    HW2 8450   6.343  11.898  13.562
68871SOL     OW 8451   7.415   4.704   7.318
68871SOL    HW1 8452   7.414   4.611   7.295
68871SOL    HW2 8453   7.445   4.748   7.239
68872SOL     OW 8454  13.882   9.444   7.257
68872SOL    HW1 8455  13.787   9.443   7.248
68872SOL    HW2 8456  13.913   9.371   7.203
68873SOL     OW 8457   2.573  11.718   3.952
68873SOL    HW1 8458   2.632  11.793   3.955
68873SOL    HW2 8459   2.509  11.740   3.884
68874SOL     OW 8460  10.217  12.779   7.823
68874SOL    HW1 8461  10.170  12.765   7.906
68874SOL    HW2 8462  10.230  12.873   7.818
68875SOL     OW 8463   8.374  12.634   2.239
68875SOL    HW1 8464   8.454  12.589   2.213
68875SOL    HW2 8465   8.330  12.572   2.297
68876SOL     OW 8466   2.898   3.273   1.598
68876SOL    HW1 8467   2.824   3.220   1.627
68876SOL    HW2 8468   2.872   3.363   1.617
68877SOL     OW 8469   0.784  14.549   8.010
68877SOL    HW1 8470   0.719  14.483   7.985
68877SOL    HW2 8471   0.868  14.504   7.998
68878SOL     OW 8472   3.831  12.148   9.375
68878SOL    HW1 8473   3.847  12.140   9.469
68878SOL    HW2 8474   3.777  12.227   9.367
68879SOL     OW 8475   6.347   6.602   3.661
68879SOL    HW1 8476   6.408   6.531   3.638
68879SOL    HW2 8477   6.329   6.589   3.754
68880SOL     OW 8478  11.709   5.216  11.206
68880SOL    HW1 8479  11.755   5.143  11.248
68880SOL    HW2 8480  11.637   5.174  11.158
68881SOL     OW 8481   2.402  10.523   4.565
68881SOL    HW1 8482   2.320  10.514   4.614
68881SOL    HW2 8483   2.465  10.552   4.630
68882SOL     OW 8484  10.262   8.851   1.731
68882SOL    HW1 8485  10.305   8.908   1.794
68882SOL    HW2 8486  10.305   8.870   1.648
68883SOL     OW 8487   1.911   7.738   4.006
68883SOL    HW1 8488   1.997   7.711   3.975
68883SOL    HW2 8489   1.864   7.657   4.023
68884SOL     OW 8490   5.145   2.135   5.179
68884SOL    HW1 8491   5.203   2.134   5.103
68884SOL    HW2 8492   5.069   2.185   5.150
68885SOL     OW 8493   9.428   1.751   9.032
68885SOL    HW1 8494   9.365   1.743   9.104
68885SOL    HW2 8495   9.514   1.754   9.075
68886SOL     OW 8496  13.779  12.131   1.720
68886SOL    HW1 8497  13.698  12.151   1.673
68886SOL    HW2 8498  13.845  12.118   1.652
68887SOL     OW 8499   8.290   6.506  13.058
68887SOL    HW1 8500   8.323   6.596  13.067
68887SOL    HW2 8501   8.368   6.452  13.054
68888SOL     OW 8502   9.519  12.158  10.998
68888SOL    HW1 8503   9.539  12.074  11.041
68888SOL    HW2 8504   9.433  12.144  10.959
68889SOL     OW 8505   7.250  11.280  10.803
68889SOL    HW1 8506   7.265  11.329  10.883
68889SOL    HW2 8507   7.291  11.334  10.734
68890SOL     OW 8508  14.487   3.329   6.824
68890SOL    HW1 8509  14.508   3.368   6.740
68890SOL    HW2 8510  14.566   3.342   6.877
68891SOL     OW 8511  13.067   3.534  12.678
68891SOL    HW1 8512  13.120   3.574  12.747
68891SOL    HW2 8513  13.128   3.475  12.632
68892SOL     OW 8514  12.228  13.339   7.181
68892SOL    HW1 8515  12.237  13.410   7.244
68892SOL    HW2 8516  12.313  13.295   7.182
68893SOL     OW 8517   1.205   9.476  11.186
68893SOL    HW1 8518   1.291   9.516  11.199
68893SOL    HW2 8519   1.187   9.430  11.269
68894SOL     OW 8520   6.969   0.860  12.221
68894SOL    HW1 8521   7.031   0.867  12.294
68894SOL    HW2 8522   7.025   0.861  12.143
68895SOL     OW 8523   2.609   5.904   8.960
68895SOL    HW1 8524   2.600   5.942   8.873
68895SOL    HW2 8525   2.599   5.978   9.020
68896SOL     OW 8526   3.667   7.433   1.515
68896SOL    HW1 8527   3.646   7.505   1.455
68896SOL    HW2 8528   3.700   7.364   1.457
68897SOL     OW 8529  13.851  14.298   9.483
68897SOL    HW1 8530  13.785  14.248   9.532
68897SOL    HW2 8531  13.897  14.349   9.550
68898SOL     OW 8532  11.724   6.075   4.629
68898SOL    HW1 8533  11.753   6.009   4.566
68898SOL    HW2 8534  11.662   6.029   4.685
68899SOL     OW 8535   3.266   5.354   1.875
68899SOL    HW1 8536   3.240   5.424   1.935
68899SOL    HW2 8537   3.284   5.280   1.932
68900SOL     OW 8538   7.983  14.846  11.205
68900SOL    HW1 8539   7.917   0.029  11.243
68900SOL    HW2 8540   8.066   0.000  11.241
68901SOL     OW 8541   2.188   4.827  10.049
68901SOL    HW1 8542   2.128   4.842  10.122
68901SOL    HW2 8543   2.156   4.747  10.008
68902SOL     OW 8544   8.183  11.856  12.427
68902SOL    HW1 8545   8.124  11.924  12.457
68902SOL    HW2 8546   8.261  11.866  12.481
68903SOL     OW 8547  11.783   6.256   4.843
68903SOL    HW1 8548  11.794   6.328   4.782
68903SOL    HW2 8549  11.729   6.192   4.795
68904SOL     OW 8550   9.800  11.514  13.673
68904SOL    HW1 8551   9.784  11.422  13.655
68904SOL    HW2 8552   9.771  11.527  13.763
68905SOL     OW 8553   6.555   2.861  13.886
68905SOL    HW1 8554   6.488   2.893  13.826
68905SOL    HW2 8555   6.635   2.858  13.833
68906SOL     OW 8556   3.023   2.839   4.846
68906SOL    HW1 8557   2.993   2.851   4.756
68906SOL    HW2 8558   3.032   2.928   4.880
68907SOL     OW 8559   5.211   4.299  10.697
68907SOL    HW1 8560   5.154   4.322  10.771
68907SOL    HW2 8561   5.267   4.229  10.731
68908SOL     OW 8562  13.886   5.949   3.922
68908SOL    HW1 8563  13.952   5.938   3.990
68908SOL    HW2 8564  13.927   5.912   3.844
68909SOL     OW 8565  11.031  14.712  10.351
68909SOL    HW1 8566  11.003  14.710  10.260
68909SOL    HW2 8567  11.126  14.698  10.348
68910SOL     OW 8568   5.976   8.126  13.380
68910SOL    HW1 8569   5.931   8.044  13.361
68910SOL    HW2 8570   5.975   8.173  13.297
68911SOL     OW 8571   4.867   9.321   2.466
68911SOL    HW1 8572   4.953   9.282   2.448
68911SOL    HW2 8573   4.837   9.352   2.381
68912SOL     OW 8574   0.099   5.294   4.267
68912SOL    HW1 8575   0.167   5.354   4.296
68912SOL    HW2 8576   0.044   5.281   4.345
68913SOL     OW 8577  13.051   8.038   7.124
68913SOL    HW1 8578  12.980   8.081   7.076
68913SOL    HW2 8579  13.096   8.109   7.168
68914SOL     OW 8580   3.993   4.713   5.791
68914SOL    HW1 8581   4.004   4.733   5.698
68914SOL    HW2 8582   4.047   4.636   5.805
68915SOL     OW 8583   7.052  10.046   5.135
68915SOL    HW1 8584   7.123   9.997   5.175
68915SOL    HW2 8585   6.978   9.986   5.134
68916SOL     OW 8586   9.950   6.529  12.682
68916SOL    HW1 8587   9.973   6.439  12.704
68916SOL    HW2 8588   9.860   6.539  12.712
68917SOL     OW 8589   5.975  13.744   4.712
68917SOL    HW1 8590   5.978  13.669   4.772
68917SOL    HW2 8591   5.936  13.814   4.764
68918SOL     OW 8592  14.166  13.425   1.056
68918SOL    HW1 8593  14.119  13.504   1.029
68918SOL    HW2 8594  14.159  13.424   1.151
68919SOL     OW 8595  11.761   1.882  10.112
68919SOL    HW1 8596  11.839   1.860  10.061
68919SOL    HW2 8597  11.696   1.909  10.047
68920SOL     OW 8598   0.609   4.156   2.062
68920SOL    HW1 8599   0.555   4.080   2.078
68920SOL    HW2 8600   0.603   4.171   1.967
68921SOL     OW 8601   3.143   0.661   2.124
68921SOL    HW1 8602   3.155   0.587   2.064
68921SOL    HW2 8603   3.055   0.650   2.159
68922SOL     OW 8604  13.036   4.801   7.486
68922SOL    HW1 8605  12.987   4.724   7.459
68922SOL    HW2 8606  13.057   4.847   7.405
68923SOL     OW 8607   6.499   6.569  14.264
68923SOL    HW1 8608   6.568   6.566  14.198
68923SOL    HW2 8609   6.506   6.485  14.310
68924SOL     OW 8610  14.259   1.017   1.086
68924SOL    HW1 8611  14.314   1.034   1.163
68924SOL    HW2 8612  14.230   1.104   1.058
68925SOL     OW 8613   3.153  14.187  14.263
68925SOL    HW1 8614   3.226  14.238  14.229
68925SOL    HW2 8615   3.096  14.252  14.304
68926SOL     OW 8616   5.541   7.611   2.317
68926SOL    HW1 8617   5.476   7.631   2.250
68926SOL    HW2 8618   5.489   7.590   2.395
68927SOL     OW 8619  12.581  10.654   4.355
68927SOL    HW1 8620  12.645  10.616   4.296
68927SOL    HW2 8621  12.627  10.726   4.398
68928SOL     OW 8622  11.671   2.480  11.035
68928SOL    HW1 8623  11.643   2.399  11.077
68928SOL    HW2 8624  11.661   2.463  10.941
68929SOL     OW 8625   5.048  11.477   7.084
68929SOL    HW1 8626   5.103  11.404   7.114
68929SOL    HW2 8627   4.972  11.435   7.044
68930SOL     OW 8628  13.605  10.223   4.593
68930SOL    HW1 8629  13.623  10.155   4.529
68930SOL    HW2 8630  13.690  10.239   4.635
68931SOL     OW 8631  12.350  14.587   3.974
68931SOL    HW1 8632  12.294  14.569   4.049
68931SOL    HW2 8633  12.425  14.528   3.985
68932SOL     OW 8634   3.165   2.592   4.824
68932SOL    HW1 8635   3.125   2.541   4.754
68932SOL    HW2 8636   3.111   2.670   4.831
68933SOL     OW 8637   4.760  10.080   9.054
68933SOL    HW1 8638   4.689  10.040   9.104
68933SOL    HW2 8639   4.718  10.147   9.000
68934SOL     OW 8640  13.437   6.042   3.017
68934SOL    HW1 8641  13.417   5.968   2.960
68934SOL    HW2 8642  13.411   6.014   3.104
68935SOL     OW 8643   9.454   5.823   8.292
68935SOL    HW1 8644   9.410   5.752   8.338
68935SOL    HW2 8645   9.386   5.862   8.238
68936SOL     OW 8646   0.953  13.647   0.845
68936SOL    HW1 8647   0.983  13.561   0.817
68936SOL    HW2 8648   0.902  13.631   0.925
68937SOL     OW 8649   0.934   4.190   0.157
68937SOL    HW1 8650   0.978   4.273   0.138
68937SOL    HW2 8651   0.905   4.158   0.071
68938SOL     OW 8652   1.553  10.608   2.315
68938SOL    HW1 8653   1.552  10.695   2.273
68938SOL    HW2 8654   1.547  10.627   2.409
68939SOL     OW 8655  12.793   2.646   3.193
68939SOL    HW1 8656  12.835   2.561   3.187
68939SOL    HW2 8657  12.826   2.695   3.118
68940SOL     OW 8658   0.746  14.229  14.414
68940SOL    HW1 8659   0.799  14.235  14.493
68940SOL    HW2 8660   0.656  14.219  14.447
68941SOL     OW 8661   7.279   1.534   5.280
68941SOL    HW1 8662   7.298   1.491   5.364
68941SOL    HW2 8663   7.302   1.625   5.294
68942SOL     OW 8664   7.394   6.040  12.590
68942SOL    HW1 8665   7.419   5.985  12.665
68942SOL    HW2 8666   7.355   6.118  12.630
68943SOL     OW 8667   2.150  12.421   4.448
68943SOL    HW1 8668   2.195  12.337   4.441
68943SOL    HW2 8669   2.158  12.460   4.361
68944SOL     OW 8670  11.601  10.058  13.138
68944SOL    HW1 8671  11.544   9.982  13.130
68944SOL    HW2 8672  11.634  10.053  13.228
68945SOL     OW 8673   6.518  12.122   8.385
68945SOL    HW1 8674   6.569  12.056   8.337
68945SOL    HW2 8675   6.498  12.080   8.469
68946SOL     OW 8676  12.898   2.920   0.592
68946SOL    HW1 8677  12.869   2.964   0.672
68946SOL    HW2 8678  12.887   2.827   0.611
68947SOL     OW 8679   6.970   2.482  10.095
68947SOL    HW1 8680   7.011   2.405  10.135
68947SOL    HW2 8681   7.011   2.557  10.138
68948SOL     OW 8682   7.981   0.841  11.175
68948SOL    HW1 8683   7.997   0.851  11.268
68948SOL    HW2 8684   8.019   0.757  11.152
68949SOL     OW 8685   6.116   3.013   4.596
68949SOL    HW1 8686   6.131   3.054   4.682
68949SOL    HW2 8687   6.041   2.955   4.610
68950SOL     OW 8688   9.047   1.478  13.456
68950SOL    HW1 8689   9.014   1.568  13.449
68950SOL    HW2 8690   9.016   1.448  13.542
68951SOL     OW 8691   0.922  12.603   4.134
68951SOL    HW1 8692   0.911  12.623   4.227
68951SOL    HW2 8693   1.011  12.569   4.128
68952SOL     OW 8694   4.547  11.934   3.120
68952SOL    HW1 8695   4.611  11.924   3.191
68952SOL    HW2 8696   4.462  11.924   3.164
68953SOL     OW 8697  13.821  11.108   7.674
68953SOL    HW1 8698  13.888  11.154   7.623
68953SOL    HW2 8699  13.738  11.140   7.638
68954SOL     OW 8700   4.002   9.148  12.910
68954SOL    HW1 8701   3.980   9.241  12.910
68954SOL    HW2 8702   3.920   9.103  12.893
68955SOL     OW 8703  13.938  13.656   4.776
68955SOL    HW1 8704  13.956  13.747   4.800
68955SOL    HW2 8705  13.855  13.635   4.818
68956SOL     OW 8706   4.455  12.911   6.113
68956SOL    HW1 8707   4.487  12.919   6.023
68956SOL    HW2 8708   4.530  12.932   6.168
68957SOL     OW 8709   1.711  13.539   3.420
68957SOL    HW1 8710   1.637  13.545   3.480
68957SOL    HW2 8711   1.694  13.607   3.355
68958SOL     OW 8712   4.638   0.223   8.508
68958SOL    HW1 8713   4.605   0.253   8.423
68958SOL    HW2 8714   4.602   0.285   8.571
68959SOL     OW 8715   9.623  13.941   7.811
68959SOL    HW1 8716   9.627  13.905   7.722
68959SOL    HW2 8717   9.661  13.874   7.867
68960SOL     OW 8718  12.669  11.168   5.389
68960SOL    HW1 8719  12.723  11.119   5.327
68960SOL    HW2 8720  12.580  11.162   5.354
68961SOL     OW 8721  14.548  10.961   0.999
68961SOL    HW1 8722  14.633  10.967   0.955
68961SOL    HW2 8723  14.519  11.052   1.009
68962SOL     OW 8724   5.402   9.713   3.209
68962SOL    HW1 8725   5.426   9.713   3.116
68962SOL    HW2 8726   5.484   9.702   3.255
68963SOL     OW 8727   8.180   3.194   6.150
68963SOL    HW1 8728   8.231   3.114   6.146
68963SOL    HW2 8729   8.090   3.164   6.162
68964SOL     OW 8730  14.160   6.723   5.781
68964SOL    HW1 8731  14.089   6.665   5.753
68964SOL    HW2 8732  14.153   6.799   5.723
68965SOL     OW 8733  13.321   3.194  11.975
68965SOL    HW1 8734  13.393   3.185  11.912
68965SOL    HW2 8735  13.365   3.216  12.058
68966SOL     OW 8736  13.603  13.938   3.325
68966SOL    HW1 8737  13.632  13.975   3.408
68966SOL    HW2 8738  13.661  13.977   3.260
68967SOL     OW 8739  11.998  14.450   7.915
68967SOL    HW1 8740  12.057  14.387   7.956
68967SOL    HW2 8741  11.929  14.464   7.980
68968SOL     OW 8742   5.828  12.889   6.025
68968SOL    HW1 8743   5.912  12.935   6.022
68968SOL    HW2 8744   5.852  12.797   6.038
68969SOL     OW 8745  14.684   0.693   2.708
68969SOL    HW1 8746  14.771   0.691   2.667
68969SOL    HW2 8747  14.637   0.761   2.659
68970SOL     OW 8748   6.369   2.492   0.492
68970SOL    HW1 8749   6.428   2.481   0.418
68970SOL    HW2 8750   6.426   2.515   0.565
68971SOL     OW 8751  14.337   8.053   6.619
68971SOL    HW1 8752  14.388   8.087   6.545
68971SOL    HW2 8753  14.307   7.967   6.590
68972SOL     OW 8754   4.193   8.515   7.483
68972SOL    HW1 8755   4.118   8.508   7.425
68972SOL    HW2 8756   4.204   8.609   7.498
68973SOL     OW 8757   9.081   7.069  13.526
68973SOL    HW1 8758   9.095   6.991  13.472
68973SOL    HW2 8759   9.167   7.088  13.562
68974SOL     OW 8760   5.768  14.267   4.664
68974SOL    HW1 8761   5.797  14.217   4.588
68974SOL    HW2 8762   5.761  14.357   4.632
68975SOL     OW 8763   1.665  13.552   7.319
68975SOL    HW1 8764   1.728  13.595   7.262
68975SOL    HW2 8765   1.597  13.619   7.334
68976SOL     OW 8766   5.662   5.809  12.570
68976SOL    HW1 8767   5.719   5.797  12.646
68976SOL    HW2 8768   5.706   5.762  12.499
68977SOL     OW 8769   8.965  10.895   4.876
68977SOL    HW1 8770   9.019  10.824   4.911
68977SOL    HW2 8771   8.881  10.886   4.922
68978SOL     OW 8772   0.133  11.178   9.173
68978SOL    HW1 8773   0.161  11.228   9.096
68978SOL    HW2 8774   0.048  11.216   9.196
68979SOL     OW 8775   0.483  13.559   1.767
68979SOL    HW1 8776   0.416  13.518   1.712
68979SOL    HW2 8777   0.564  13.550   1.717
68980SOL     OW 8778  12.894  10.779   8.277
68980SOL    HW1 8779  12.952  10.703   8.270
68980SOL    HW2 8780  12.900  10.822   8.191
68981SOL     OW 8781  11.447   9.452   6.676
68981SOL    HW1 8782  11.483   9.393   6.609
68981SOL    HW2 8783  11.444   9.398   6.755
68982SOL     OW 8784  11.058   7.159  13.808
68982SOL    HW1 8785  11.010   7.226  13.760
68982SOL    HW2 8786  11.085   7.202  13.889
68983SOL     OW 8787   9.138   1.655   9.916
68983SOL    HW1 8788   9.123   1.561   9.923
68983SOL    HW2 8789   9.224   1.670   9.955
68984SOL     OW 8790   9.384  12.794   1.640
68984SOL    HW1 8791   9.421  12.812   1.554
68984SOL    HW2 8792   9.430  12.716   1.670
68985SOL     OW 8793  13.636   3.573  10.897
68985SOL    HW1 8794  13.704   3.634  10.925
68985SOL    HW2 8795  13.575   3.569  10.970
68986SOL     OW 8796  10.045   9.665   4.411
68986SOL    HW1 8797   9.950   9.663   4.400
68986SOL    HW2 8798  10.072   9.573   4.407
68987SOL     OW 8799  13.187   8.728  14.705
68987SOL    HW1 8800  13.209   8.747  14.614
68987SOL    HW2 8801  13.267   8.690  14.742
68988SOL     OW 8802   8.155   3.958   2.798
68988SOL    HW1 8803   8.242   3.997   2.786
68988SOL    HW2 8804   8.170   3.879   2.848
68989SOL     OW 8805   0.829  10.587   4.979
68989SOL    HW1 8806   0.777  10.661   5.008
68989SOL    HW2 8807   0.775  10.510   4.996
68990SOL     OW 8808   4.049   4.875  14.554
68990SOL    HW1 8809   4.123   4.822  14.585
68990SOL    HW2 8810   4.090   4.943  14.501
68991SOL     OW 8811  10.507   6.836   5.247
68991SOL    HW1 8812  10.551   6.758   5.283
68991SOL    HW2 8813  10.423   6.802   5.215
68992SOL     OW 8814   2.310   6.444  12.415
68992SOL    HW1 8815   2.235   6.440  12.355
68992SOL    HW2 8816   2.311   6.359  12.459
68993SOL     OW 8817  12.579   1.776   9.789
68993SOL    HW1 8818  12.664   1.743   9.818
68993SOL    HW2 8819  12.515   1.721   9.834
68994SOL     OW 8820   4.278   2.460   5.592
68994SOL    HW1 8821   4.278   2.480   5.686
68994SOL    HW2 8822   4.318   2.537   5.551
68995SOL     OW 8823   6.649   7.623   8.649
68995SOL    HW1 8824   6.703   7.658   8.720
68995SOL    HW2 8825   6.622   7.536   8.678
68996SOL     OW 8826   1.111   7.899   4.058
68996SOL    HW1 8827   1.153   7.813   4.055
68996SOL    HW2 8828   1.120   7.933   3.969
68997SOL     OW 8829   9.225   4.499   4.979
68997SOL    HW1 8830   9.238   4.430   4.915
68997SOL    HW2 8831   9.213   4.578   4.927
68998SOL     OW 8832  10.570   3.616  13.318
68998SOL    HW1 8833  10.608   3.638  13.233
68998SOL    HW2 8834  10.635   3.646  13.381
68999SOL     OW 8835   1.923   0.366  10.732
68999SOL    HW1 8836   1.910   0.419  10.810
68999SOL    HW2 8837   1.842   0.376  10.682
69000SOL     OW 8838   2.654   6.297  13.251
69000SOL    HW1 8839   2.745   6.327  13.247
69000SOL    HW2 8840   2.602   6.376  13.235
69001SOL     OW 8841   9.589   3.089   3.402
69001SOL    HW1 8842   9.498   3.072   3.379
69001SOL    HW2 8843   9.627   3.126   3.323
69002SOL     OW 8844  10.605  10.324   9.296
69002SOL    HW1 8845  10.626  10.301   9.206
69002SOL    HW2 8846  10.635  10.249   9.348
69003SOL     OW 8847  11.771   9.817   6.120
69003SOL    HW1 8848  11.706   9.850   6.183
69003SOL    HW2 8849  11.812   9.895   6.084
69004SOL     OW 8850  13.493  13.868  11.045
69004SOL    HW1 8851  13.405  13.830  11.050
69004SOL    HW2 8852  13.548  13.797  11.012
69005SOL     OW 8853   1.678   2.369   9.117
69005SOL    HW1 8854   1.708   2.458   9.136
69005SOL    HW2 8855   1.628   2.378   9.036
69006SOL     OW 8856   2.314   3.398   9.384
69006SOL    HW1 8857   2.305   3.385   9.478
69006SOL    HW2 8858   2.402   3.433   9.373
69007SOL     OW 8859   0.680  11.463   1.078
69007SOL    HW1 8860   0.670  11.408   1.000
69007SOL    HW2 8861   0.763  11.508   1.064
69008SOL     OW 8862  13.611   3.193   6.376
69008SOL    HW1 8863  13.523   3.186   6.413
69008SOL    HW2 8864  13.629   3.106   6.339
69009SOL     OW 8865  10.074   8.352   5.289
69009SOL    HW1 8866  10.036   8.264   5.288
69009SOL    HW2 8867  10.163   8.339   5.322
69010SOL     OW 8868  14.139   6.866  10.482
69010SOL    HW1 8869  14.129   6.773  10.461
69010SOL    HW2 8870  14.211   6.895  10.426
69011SOL     OW 8871   9.880  14.550  10.683
69011SOL    HW1 8872   9.882  14.508  10.597
69011SOL    HW2 8873   9.822  14.495  10.736
69012SOL     OW 8874  10.158   6.934   6.556
69012SOL    HW1 8875  10.217   6.897   6.622
69012SOL    HW2 8876  10.081   6.877   6.558
69013SOL     OW 8877   8.402   6.583   4.110
69013SOL    HW1 8878   8.432   6.514   4.052
69013SOL    HW2 8879   8.401   6.662   4.055
69014SOL     OW 8880   3.049   5.683   2.575
69014SOL    HW1 8881   3.027   5.733   2.653
69014SOL    HW2 8882   3.054   5.749   2.506
69015SOL     OW 8883   5.382   3.087   6.579
69015SOL    HW1 8884   5.290   3.074   6.602
69015SOL    HW2 8885   5.431   3.055   6.654
69016SOL     OW 8886   7.873  13.925   6.556
69016SOL    HW1 8887   7.902  13.904   6.645
69016SOL    HW2 8888   7.894  13.846   6.505
69017SOL     OW 8889   7.580   2.294   1.313
69017SOL    HW1 8890   7.589   2.365   1.250
69017SOL    HW2 8891   7.489   2.299   1.342
69018SOL     OW 8892   1.667  11.554   4.891
69018SOL    HW1 8893   1.696  11.463   4.902
69018SOL    HW2 8894   1.581  11.557   4.933
69019SOL     OW 8895   1.246   7.543  14.499
69019SOL    HW1 8896   1.218   7.583  14.581
69019SOL    HW2 8897   1.212   7.601  14.431
69020SOL     OW 8898   1.176   3.557  12.991
69020SOL    HW1 8899   1.133   3.496  12.931
69020SOL    HW2 8900   1.156   3.643  12.956
69021SOL     OW 8901  13.712   3.472   7.401
69021SOL    HW1 8902  13.746   3.455   7.313
69021SOL    HW2 8903  13.686   3.564   7.399
69022SOL     OW 8904   4.331  14.281   5.715
69022SOL    HW1 8905   4.283  14.358   5.746
69022SOL    HW2 8906   4.361  14.238   5.796
69023SOL     OW 8907   3.205  12.863   4.661
69023SOL    HW1 8908   3.152  12.783   4.660
69023SOL    HW2 8909   3.144  12.932   4.689
69024SOL     OW 8910  12.029   1.775   5.117
69024SOL    HW1 8911  11.946   1.815   5.091
69024SOL    HW2 8912  12.056   1.825   5.193
69025SOL     OW 8913   3.075   7.257  13.974
69025SOL    HW1 8914   3.160   7.296  13.993
69025SOL    HW2 8915   3.081   7.168  14.006
69026SOL     OW 8916   5.811  10.790   9.659
69026SOL    HW1 8917   5.819  10.695   9.664
69026SOL    HW2 8918   5.882  10.823   9.713
69027SOL     OW 8919  10.502  12.056  12.102
69027SOL    HW1 8920  10.594  12.039  12.086
69027SOL    HW2 8921  10.478  12.123  12.037
69028SOL     OW 8922   2.606  11.527   9.934
69028SOL    HW1 8923   2.672  11.503   9.868
69028SOL    HW2 8924   2.657  11.543  10.014
69029SOL     OW 8925   2.180   2.898   5.640
69029SOL    HW1 8926   2.197   2.973   5.696
69029SOL    HW2 8927   2.259   2.845   5.646
69030SOL     OW 8928   2.112   8.696   4.659
69030SOL    HW1 8929   2.059   8.658   4.729
69030SOL    HW2 8930   2.113   8.629   4.591
69031SOL     OW 8931  12.065   9.376   6.004
69031SOL    HW1 8932  12.083   9.305   6.066
69031SOL    HW2 8933  12.119   9.448   6.035
69032SOL     OW 8934   9.949  13.506   6.058
69032SOL    HW1 8935   9.934  13.429   6.113
69032SOL    HW2 8936   9.941  13.474   5.968
69033SOL     OW 8937  14.639  12.213   6.848
69033SOL    HW1 8938  14.652  12.231   6.941
69033SOL    HW2 8939  14.555  12.254   6.827
69034SOL     OW 8940   2.631   2.312   7.385
69034SOL    HW1 8941   2.567   2.241   7.381
69034SOL    HW2 8942   2.583   2.389   7.352
69035SOL     OW 8943   5.778   1.407   0.500
69035SOL    HW1 8944   5.755   1.494   0.534
69035SOL    HW2 8945   5.857   1.421   0.448
69036SOL     OW 8946  14.331   8.658   4.245
69036SOL    HW1 8947  14.366   8.745   4.227
69036SOL    HW2 8948  14.315   8.620   4.159
69037SOL     OW 8949  13.115   7.386   4.218
69037SOL    HW1 8950  13.101   7.312   4.276
69037SOL    HW2 8951  13.079   7.461   4.265
69038SOL     OW 8952  12.285   0.549   3.116
69038SOL    HW1 8953  12.189   0.548   3.118
69038SOL    HW2 8954  12.310   0.608   3.188
69039SOL     OW 8955   6.757   1.088   5.707
69039SOL    HW1 8956   6.765   1.117   5.798
69039SOL    HW2 8957   6.663   1.088   5.689
69040SOL     OW 8958   4.528   8.829   2.919
69040SOL    HW1 8959   4.591   8.900   2.903
69040SOL    HW2 8960   4.460   8.843   2.854
69041SOL     OW 8961  12.230   0.212  10.840
69041SOL    HW1 8962  12.166   0.162  10.890
69041SOL    HW2 8963  12.237   0.295  10.887
69042SOL     OW 8964  14.027   4.606   7.603
69042SOL    HW1 8965  14.094   4.673   7.617
69042SOL    HW2 8966  14.074   4.523   7.611
69043SOL     OW 8967   1.541   1.639   3.934
69043SOL    HW1 8968   1.471   1.704   3.946
69043SOL    HW2 8969   1.621   1.691   3.928
69044SOL     OW 8970   6.983   1.571   1.512
69044SOL    HW1 8971   6.918   1.640   1.505
69044SOL    HW2 8972   7.041   1.599   1.583
69045SOL     OW 8973   6.999   5.798  14.334
69045SOL    HW1 8974   7.043   5.719  14.364
69045SOL    HW2 8975   6.943   5.824  14.408
69046SOL     OW 8976   2.378   7.155   6.701
69046SOL    HW1 8977   2.303   7.163   6.643
69046SOL    HW2 8978   2.340   7.155   6.789
69047SOL     OW 8979   0.214  14.857  12.694
69047SOL    HW1 8980   0.200   0.009  12.603
69047SOL    HW2 8981   0.261  14.774  12.686
69048SOL     OW 8982  12.454   4.233   4.553
69048SOL    HW1 8983  12.379   4.178   4.530
69048SOL    HW2 8984  12.416   4.307   4.601
69049SOL     OW 8985   5.484  11.259  11.636
69049SOL    HW1 8986   5.468  11.353  11.633
69049SOL    HW2 8987   5.556  11.249  11.698
69050SOL     OW 8988   7.568   7.919   2.318
69050SOL    HW1 8989   7.556   7.954   2.230
69050SOL    HW2 8990   7.552   7.993   2.376
69051SOL     OW 8991  11.717   2.625   7.991
69051SOL    HW1 8992  11.800   2.624   7.942
69051SOL    HW2 8993  11.660   2.684   7.940
69052SOL     OW 8994   2.648  12.069  13.532
69052SOL    HW1 8995   2.586  12.128  13.490
69052SOL    HW2 8996   2.726  12.072  13.477
69053SOL     OW 8997   1.653  13.663   8.962
69053SOL    HW1 8998   1.662  13.704   9.048
69053SOL    HW2 8999   1.606  13.581   8.978
69054SOL     OW 9000   1.227   9.471   1.548
69054SOL    HW1 9001   1.148   9.522   1.529
69054SOL    HW2 9002   1.194   9.382   1.564
69055SOL     OW 9003   5.081  14.613   7.471
69055SOL    HW1 9004   5.065  14.695   7.424
69055SOL    HW2 9005   5.073  14.636   7.564
69056SOL     OW 9006  13.810  13.459   7.596
69056SOL    HW1 9007  13.740  13.426   7.652
69056SOL    HW2 9008  13.891  13.432   7.641
69057SOL     OW 9009  12.256  12.308   0.772
69057SOL    HW1 9010  12.298  12.292   0.857
69057SOL    HW2 9011  12.286  12.396   0.747
69058SOL     OW 9012   8.027   3.231   6.540
69058SOL    HW1 9013   7.953   3.245   6.482
69058SOL    HW2 9014   8.104   3.243   6.484
69059SOL     OW 9015  13.623   3.734   6.127
69059SOL    HW1 9016  13.557   3.708   6.192
69059SOL    HW2 9017  13.702   3.687   6.154
69060SOL     OW 9018   0.695   4.235  13.998
69060SOL    HW1 9019   0.729   4.175  13.932
69060SOL    HW2 9020   0.713   4.322  13.962
69061SOL     OW 9021  11.246   5.237   2.856
69061SOL    HW1 9022  11.281   5.183   2.786
69061SOL    HW2 9023  11.156   5.208   2.866
69062SOL     OW 9024   6.020   7.586   4.252
69062SOL    HW1 9025   6.042   7.556   4.340
69062SOL    HW2 9026   6.065   7.670   4.243
69063SOL     OW 9027  12.451   0.727  13.986
69063SOL    HW1 9028  12.468   0.821  13.982
69063SOL    HW2 9029  12.538   0.687  13.981
69064SOL     OW 9030  10.559   8.729   3.778
69064SOL    HW1 9031  10.544   8.674   3.854
69064SOL    HW2 9032  10.632   8.786   3.805
69065SOL     OW 9033   4.349  14.872   2.854
69065SOL    HW1 9034   4.301   0.075   2.830
69065SOL    HW2 9035   4.428  14.875   2.799
69066SOL     OW 9036  10.837   9.211  12.926
69066SOL    HW1 9037  10.840   9.121  12.892
69066SOL    HW2 9038  10.908   9.215  12.989
69067SOL     OW 9039  13.552   0.916   5.261
69067SOL    HW1 9040  13.505   0.954   5.187
69067SOL    HW2 9041  13.626   0.870   5.220
69068SOL     OW 9042  11.849  14.303   1.890
69068SOL    HW1 9043  11.794  14.321   1.814
69068SOL    HW2 9044  11.929  14.266   1.853
69069SOL     OW 9045   4.395   9.235   2.488
69069SOL    HW1 9046   4.453   9.184   2.431
69069SOL    HW2 9047   4.414   9.203   2.576
69070SOL     OW 9048   0.232   6.957   6.447
69070SOL    HW1 9049   0.220   6.891   6.379
69070SOL    HW2 9050   0.278   7.029   6.403
69071SOL     OW 9051  12.864  14.262  11.471
69071SOL    HW1 9052  12.920  14.185  11.479
69071SOL    HW2 9053  12.838  14.282  11.561
69072SOL     OW 9054  13.023  10.413  10.081
69072SOL    HW1 9055  12.959  10.417  10.152
69072SOL    HW2 9056  13.095  10.361  10.117
69073SOL     OW 9057  14.705   7.625   4.310
69073SOL    HW1 9058  14.736   7.667   4.390
69073SOL    HW2 9059  14.676   7.697   4.254
69074SOL     OW 9060  14.776   3.127   4.099
69074SOL    HW1 9061  14.749   3.199   4.157
69074SOL    HW2 9062  14.707   3.124   4.033
69075SOL     OW 9063  11.197   6.345  11.289
69075SOL    HW1 9064  11.155   6.361  11.373
69075SOL    HW2 9065  11.291   6.347  11.308
69076SOL     OW 9066   1.706  12.541   9.801
69076SOL    HW1 9067   1.766  12.612   9.824
69076SOL    HW2 9068   1.697  12.491   9.883
69077SOL     OW 9069   1.916   5.247   2.450
69077SOL    HW1 9070   1.972   5.238   2.527
69077SOL    HW2 9071   1.826   5.246   2.485
69078SOL     OW 9072   3.687  10.019  10.081
69078SOL    HW1 9073   3.602  10.060  10.063
69078SOL    HW2 9074   3.667   9.927  10.096
69079SOL     OW 9075   2.672   9.258   1.084
69079SOL    HW1 9076   2.649   9.343   1.048
69079SOL    HW2 9077   2.663   9.197   1.011
69080SOL     OW 9078   3.544  10.375   7.923
69080SOL    HW1 9079   3.522  10.458   7.964
69080SOL    HW2 9080   3.469  10.355   7.866
69081SOL     OW 9081   8.490   5.247   7.735
69081SOL    HW1 9082   8.408   5.294   7.749
69081SOL    HW2 9083   8.544   5.307   7.683
69082SOL     OW 9084   3.637   4.158   8.492
69082SOL    HW1 9085   3.581   4.193   8.562
69082SOL    HW2 9086   3.632   4.063   8.503
69083SOL     OW 9087  14.285   4.301   3.309
69083SOL    HW1 9088  14.379   4.288   3.295
69083SOL    HW2 9089  14.278   4.392   3.336
69084SOL     OW 9090   8.363  11.376   0.001
69084SOL    HW1 9091   8.385  11.358   0.092
69084SOL    HW2 9092   8.284  11.324  14.861
69085SOL     OW 9093   3.404   3.068   0.496
69085SOL    HW1 9094   3.376   3.026   0.414
69085SOL    HW2 9095   3.496   3.044   0.505
69086SOL     OW 9096   5.164  12.370  13.565
69086SOL    HW1 9097   5.158  12.395  13.657
69086SOL    HW2 9098   5.128  12.281  13.562
69087SOL     OW 9099  10.488   6.254  13.438
69087SOL    HW1 9100  10.542   6.316  13.487
69087SOL    HW2 9101  10.528   6.252  13.351
69088SOL     OW 9102  13.861  10.212   8.547
69088SOL    HW1 9103  13.888  10.294   8.588
69088SOL    HW2 9104  13.941  10.178   8.506
69089SOL     OW 9105   0.502  11.593   1.715
69089SOL    HW1 9106   0.595  11.617   1.704
69089SOL    HW2 9107   0.458  11.636   1.642
69090SOL     OW 9108   9.836  13.541   9.566
69090SOL    HW1 9109   9.756  13.592   9.579
69090SOL    HW2 9110   9.809  13.465   9.515
69091SOL     OW 9111   1.246   4.364  11.173
69091SOL    HW1 9112   1.230   4.323  11.258
69091SOL    HW2 9113   1.341   4.368  11.165
69092SOL     OW 9114   5.957   9.590   4.376
69092SOL    HW1 9115   5.939   9.526   4.445
69092SOL    HW2 9116   6.026   9.551   4.323
69093SOL     OW 9117   7.975   8.499   2.829
69093SOL    HW1 9118   7.944   8.457   2.749
69093SOL    HW2 9119   8.055   8.452   2.852
69094SOL     OW 9120   5.677   3.126  13.492
69094SOL    HW1 9121   5.746   3.150  13.553
69094SOL    HW2 9122   5.697   3.036  13.467
69095SOL     OW 9123   5.520   3.686   8.337
69095SOL    HW1 9124   5.601   3.704   8.289
69095SOL    HW2 9125   5.536   3.721   8.424
69096SOL     OW 9126   4.192   6.409   6.022
69096SOL    HW1 9127   4.254   6.479   6.000
69096SOL    HW2 9128   4.146   6.391   5.940
69097SOL     OW 9129  11.221   5.957   7.026
69097SOL    HW1 9130  11.237   6.035   7.080
69097SOL    HW2 9131  11.262   5.885   7.074
69098SOL     OW 9132   1.219  14.199   1.647
69098SOL    HW1 9133   1.129  14.172   1.632
69098SOL    HW2 9134   1.224  14.287   1.610
69099SOL     OW 9135   6.045   6.604  13.606
69099SOL    HW1 9136   6.040   6.626  13.513
69099SOL    HW2 9137   5.954   6.603  13.635
69100SOL     OW 9138  10.291   1.174   4.669
69100SOL    HW1 9139  10.204   1.211   4.688
69100SOL    HW2 9140  10.301   1.105   4.735
69101SOL     OW 9141   7.433   6.638  14.702
69101SOL    HW1 9142   7.425   6.558  14.754
69101SOL    HW2 9143   7.526   6.645  14.682
69102SOL     OW 9144  12.983   0.159  13.157
69102SOL    HW1 9145  12.965   0.131  13.247
69102SOL    HW2 9146  13.074   0.134  13.142
69103SOL     OW 9147   9.212   2.101   4.967
69103SOL    HW1 9148   9.185   2.054   5.045
69103SOL    HW2 9149   9.264   2.038   4.917
69104SOL     OW 9150   0.912  11.412   6.923
69104SOL    HW1 9151   0.858  11.465   6.864
69104SOL    HW2 9152   0.984  11.381   6.869
69105SOL     OW 9153  11.268   3.916   0.138
69105SOL    HW1 9154  11.207   3.854   0.179
69105SOL    HW2 9155  11.354   3.888   0.167
69106SOL     OW 9156  13.500   2.668   5.222
69106SOL    HW1 9157  13.424   2.720   5.196
69106SOL    HW2 9158  13.540   2.642   5.138
69107SOL     OW 9159  11.384   5.588  14.740
69107SOL    HW1 9160  11.475   5.614  14.749
69107SOL    HW2 9161  11.368   5.528  14.813
69108SOL     OW 9162   2.255   5.788   7.561
69108SOL    HW1 9163   2.321   5.776   7.630
69108SOL    HW2 9164   2.249   5.702   7.519
69109SOL     OW 9165   2.458   1.820   3.419
69109SOL    HW1 9166   2.513   1.890   3.382
69109SOL    HW2 9167   2.379   1.820   3.365
69110SOL     OW 9168   3.084   7.599   5.786
69110SOL    HW1 9169   3.165   7.641   5.759
69110SOL    HW2 9170   3.029   7.599   5.708
69111SOL     OW 9171   5.007   6.719   0.545
69111SOL    HW1 9172   5.095   6.734   0.578
69111SOL    HW2 9173   4.976   6.807   0.520
69112SOL     OW 9174   4.090   0.884   4.791
69112SOL    HW1 9175   4.095   0.863   4.698
69112SOL    HW2 9176   4.081   0.980   4.794
69113SOL     OW 9177  10.582   5.084   9.254
69113SOL    HW1 9178  10.677   5.082   9.243
69113SOL    HW2 9179  10.560   4.998   9.288
69114SOL     OW 9180   8.737   4.036   8.936
69114SOL    HW1 9181   8.769   3.960   8.984
69114SOL    HW2 9182   8.796   4.044   8.861
69115SOL     OW 9183   6.745  12.693  13.566
69115SOL    HW1 9184   6.746  12.647  13.482
69115SOL    HW2 9185   6.657  12.677  13.600
69116SOL     OW 9186  12.446  13.943  13.411
69116SOL    HW1 9187  12.404  13.865  13.377
69116SOL    HW2 9188  12.426  14.011  13.346
69117SOL     OW 9189   5.633   5.829   7.990
69117SOL    HW1 9190   5.618   5.914   7.947
69117SOL    HW2 9191   5.630   5.766   7.918
69118SOL     OW 9192   9.480   2.119   2.874
69118SOL    HW1 9193   9.444   2.182   2.812
69118SOL    HW2 9194   9.525   2.173   2.939
69119SOL     OW 9195   7.182   9.959  13.223
69119SOL    HW1 9196   7.200   9.877  13.268
69119SOL    HW2 9197   7.157   9.932  13.134
69120SOL     OW 9198   5.857   5.712  12.029
69120SOL    HW1 9199   5.869   5.691  11.936
69120SOL    HW2 9200   5.833   5.629  12.070
69121SOL     OW 9201   9.317   1.143   6.984
69121SOL    HW1 9202   9.263   1.122   7.060
69121SOL    HW2 9203   9.356   1.228   7.005
69122SOL     OW 9204   8.386   7.190   4.436
69122SOL    HW1 9205   8.314   7.243   4.469
69122SOL    HW2 9206   8.360   7.099   4.454
69123SOL     OW 9207  13.826   5.130  10.338
69123SOL    HW1 9208  13.911   5.174  10.343
69123SOL    HW2 9209  13.767   5.185  10.391
69124SOL     OW 9210  11.117   6.267   4.766
69124SOL    HW1 9211  11.126   6.182   4.725
69124SOL    HW2 9212  11.025   6.291   4.753
69125SOL     OW 9213   3.421   1.772   3.957
69125SOL    HW1 9214   3.443   1.694   4.008
69125SOL    HW2 9215   3.381   1.831   4.020
69126SOL     OW 9216   2.019  10.900   7.294
69126SOL    HW1 9217   2.101  10.945   7.278
69126SOL    HW2 9218   1.967  10.962   7.345
69127SOL     OW 9219   7.095   8.728   8.850
69127SOL    HW1 9220   7.139   8.760   8.771
69127SOL    HW2 9221   7.069   8.807   8.897
69128SOL     OW 9222   2.171   4.330   7.012
69128SOL    HW1 9223   2.222   4.292   7.083
69128SOL    HW2 9224   2.220   4.307   6.933
69129SOL     OW 9225  12.227  11.901  10.630
69129SOL    HW1 9226  12.275  11.825  10.664
69129SOL    HW2 9227  12.135  11.878  10.643
69130SOL     OW 9228  13.336  11.285  11.815
69130SOL    HW1 9229  13.408  11.312  11.758
69130SOL    HW2 9230  13.322  11.193  11.795
69131SOL     OW 9231   6.925   4.360   2.363
69131SOL    HW1 9232   7.014   4.350   2.394
69131SOL    HW2 9233   6.931   4.422   2.291
69132SOL     OW 9234   2.740   7.437   7.499
69132SOL    HW1 9235   2.750   7.388   7.417
69132SOL    HW2 9236   2.718   7.526   7.470
69133SOL     OW 9237   6.676   6.765   4.592
69133SOL    HW1 9238   6.731   6.728   4.662
69133SOL    HW2 9239   6.690   6.859   4.598
69134SOL     OW 9240   4.357   5.133   1.803
69134SOL    HW1 9241   4.354   5.037   1.802
69134SOL    HW2 9242   4.387   5.156   1.891
69135SOL     OW 9243   7.555   3.540   1.647
69135SOL    HW1 9244   7.499   3.596   1.701
69135SOL    HW2 9245   7.563   3.459   1.698
69136SOL     OW 9246   2.321   2.967   0.154
69136SOL    HW1 9247   2.271   3.046   0.132
69136SOL    HW2 9248   2.255   2.898   0.163
69137SOL     OW 9249  12.030   4.212   5.339
69137SOL    HW1 9250  12.027   4.305   5.359
69137SOL    HW2 9251  12.016   4.168   5.423
69138SOL     OW 9252  14.461   9.392  13.669
69138SOL    HW1 9253  14.428   9.374  13.581
69138SOL    HW2 9254  14.528   9.326  13.684
69139SOL     OW 9255   7.791   5.239   6.911
69139SOL    HW1 9256   7.854   5.269   6.846
69139SOL    HW2 9257   7.844   5.199   6.980
69140SOL     OW 9258  11.374   2.824  12.266
69140SOL    HW1 9259  11.417   2.822  12.180
69140SOL    HW2 9260  11.407   2.747  12.312
69141SOL     OW 9261   6.210  10.222  11.601
69141SOL    HW1 9262   6.216  10.133  11.636
69141SOL    HW2 9263   6.158  10.212  11.521
69142SOL     OW 9264   1.703  10.788   6.908
69142SOL    HW1 9265   1.664  10.703   6.887
69142SOL    HW2 9266   1.703  10.791   7.003
69143SOL     OW 9267   1.363   2.822   9.509
69143SOL    HW1 9268   1.278   2.780   9.497
69143SOL    HW2 9269   1.423   2.751   9.531
69144SOL     OW 9270   2.790   5.586   2.028
69144SOL    HW1 9271   2.816   5.569   2.119
69144SOL    HW2 9272   2.696   5.569   2.027
69145SOL     OW 9273   3.298   5.373  13.725
69145SOL    HW1 9274   3.266   5.291  13.686
69145SOL    HW2 9275   3.226   5.435  13.714
69146SOL     OW 9276   2.310  13.957   3.478
69146SOL    HW1 9277   2.404  13.952   3.495
69146SOL    HW2 9278   2.295  13.894   3.408
69147SOL     OW 9279   1.522   1.945   5.076
69147SOL    HW1 9280   1.478   1.944   4.991
69147SOL    HW2 9281   1.611   1.974   5.057
69148SOL     OW 9282  13.070  12.353   3.261
69148SOL    HW1 9283  13.052  12.260   3.246
69148SOL    HW2 9284  13.151  12.370   3.213
69149SOL     OW 9285   4.728   3.038   5.074
69149SOL    HW1 9286   4.726   2.946   5.102
69149SOL    HW2 9287   4.786   3.039   4.998
69150SOL     OW 9288   4.553  12.718  10.497
69150SOL    HW1 9289   4.547  12.628  10.465
69150SOL    HW2 9290   4.486  12.723  10.566
69151SOL     OW 9291   3.184   4.772  12.556
69151SOL    HW1 9292   3.140   4.780  12.640
69151SOL    HW2 9293   3.277   4.764  12.578
69152SOL     OW 9294   9.208   0.631   9.733
69152SOL    HW1 9295   9.120   0.669   9.741
69152SOL    HW2 9296   9.255   0.693   9.677
69153SOL     OW 9297   5.239   4.322  13.933
69153SOL    HW1 9298   5.239   4.228  13.952
69153SOL    HW2 9299   5.253   4.327  13.838
69154SOL     OW 9300   1.617  10.912   4.185
69154SOL    HW1 9301   1.683  10.861   4.231
69154SOL    HW2 9302   1.536  10.862   4.194
69155SOL     OW 9303   5.635  11.581   6.409
69155SOL    HW1 9304   5.625  11.644   6.481
69155SOL    HW2 9305   5.706  11.524   6.437
69156SOL     OW 9306   9.333   4.438  10.664
69156SOL    HW1 9307   9.287   4.511  10.622
69156SOL    HW2 9308   9.418   4.436  10.620
69157SOL     OW 9309   9.428   2.009   9.337
69157SOL    HW1 9310   9.434   2.081   9.274
69157SOL    HW2 9311   9.335   1.988   9.341
69158SOL     OW 9312   6.612   8.490   2.490
69158SOL    HW1 9313   6.702   8.485   2.521
69158SOL    HW2 9314   6.562   8.520   2.566
69159SOL     OW 9315   8.231  13.775  13.082
69159SOL    HW1 9316   8.311  13.827  13.083
69159SOL    HW2 9317   8.186  13.801  13.002
69160SOL     OW 9318  12.627   4.757  14.078
69160SOL    HW1 9319  12.634   4.703  14.000
69160SOL    HW2 9320  12.679   4.711  14.144
69161SOL     OW 9321   5.269  12.791   2.185
69161SOL    HW1 9322   5.220  12.873   2.188
69161SOL    HW2 9323   5.358  12.818   2.161
69162SOL     OW 9324  12.289   5.985   5.825
69162SOL    HW1 9325  12.235   6.064   5.826
69162SOL    HW2 9326  12.240   5.921   5.876
69163SOL     OW 9327   2.836  14.670   6.985
69163SOL    HW1 9328   2.744  14.693   6.972
69163SOL    HW2 9329   2.836  14.613   7.062
69164SOL     OW 9330   0.875  12.036   9.255
69164SOL    HW1 9331   0.898  12.011   9.166
69164SOL    HW2 9332   0.797  11.984   9.275
69165SOL     OW 9333  13.962   8.613  14.853
69165SOL    HW1 9334  13.872   8.598   0.007
69165SOL    HW2 9335  13.972   8.708  14.856
69166SOL     OW 9336   0.897  12.873   8.669
69166SOL    HW1 9337   0.864  12.784   8.671
69166SOL    HW2 9338   0.896  12.898   8.577
69167SOL     OW 9339   6.219  11.193   2.291
69167SOL    HW1 9340   6.215  11.163   2.381
69167SOL    HW2 9341   6.256  11.281   2.296
69168SOL     OW 9342   7.998   0.881   8.727
69168SOL    HW1 9343   7.969   0.832   8.804
69168SOL    HW2 9344   7.975   0.971   8.746
69169SOL     OW 9345   4.334   6.490   8.036
69169SOL    HW1 9346   4.317   6.469   8.128
69169SOL    HW2 9347   4.346   6.585   8.034
69170SOL     OW 9348   5.018   1.718  10.888
69170SOL    HW1 9349   5.011   1.726  10.983
69170SOL    HW2 9350   5.112   1.712  10.872
69171SOL     OW 9351   6.103  11.198   9.950
69171SOL    HW1 9352   6.192  11.225   9.969
69171SOL    HW2 9353   6.047  11.266   9.987
69172SOL     OW 9354   4.164   1.162  12.783
69172SOL    HW1 9355   4.132   1.247  12.753
69172SOL    HW2 9356   4.241   1.144  12.729
69173SOL     OW 9357   1.486   7.548   8.191
69173SOL    HW1 9358   1.440   7.524   8.111
69173SOL    HW2 9359   1.577   7.525   8.174
69174SOL     OW 9360   2.993  12.481   6.954
69174SOL    HW1 9361   3.060  12.533   6.999
69174SOL    HW2 9362   2.975  12.410   7.015
69175SOL     OW 9363  11.430   5.619   7.457
69175SOL    HW1 9364  11.371   5.576   7.396
69175SOL    HW2 9365  11.391   5.705   7.473
69176SOL     OW 9366  12.724   4.628   6.732
69176SOL    HW1 9367  12.630   4.640   6.722
69176SOL    HW2 9368  12.739   4.536   6.712
69177SOL     OW 9369  13.594  13.096   8.331
69177SOL    HW1 9370  13.638  13.022   8.289
69177SOL    HW2 9371  13.614  13.085   8.424
69178SOL     OW 9372   3.953  11.626   4.043
69178SOL    HW1 9373   4.022  11.622   4.108
69178SOL    HW2 9374   3.876  11.591   4.087
69179SOL     OW 9375   8.434   2.566   9.891
69179SOL    HW1 9376   8.410   2.635   9.952
69179SOL    HW2 9377   8.464   2.612   9.812
69180SOL     OW 9378   0.017   3.450  14.525
69180SOL    HW1 9379  14.864   3.380  14.466
69180SOL    HW2 9380   0.046   3.405  14.604
69181SOL     OW 9381   0.331  14.397   4.317
69181SOL    HW1 9382   0.356  14.405   4.409
69181SOL    HW2 9383   0.404  14.434   4.268
69182SOL     OW 9384   1.296   5.886   3.434
69182SOL    HW1 9385   1.224   5.842   3.479
69182SOL    HW2 9386   1.282   5.868   3.341
69183SOL     OW 9387  11.369  13.387   8.096
69183SOL    HW1 9388  11.464  13.392   8.089
69183SOL    HW2 9389  11.346  13.301   8.061
69184SOL     OW 9390  11.575   9.329   7.416
69184SOL    HW1 9391  11.560   9.421   7.394
69184SOL    HW2 9392  11.623   9.333   7.499
69185SOL     OW 9393   6.632  10.007  11.953
69185SOL    HW1 9394   6.625   9.921  11.995
69185SOL    HW2 9395   6.577   9.999  11.875
69186SOL     OW 9396   0.026   4.187  10.926
69186SOL    HW1 9397  14.867   4.272  10.901
69186SOL    HW2 9398   0.029   4.137  10.844
69187SOL     OW 9399   2.409   2.656   1.543
69187SOL    HW1 9400   2.431   2.688   1.456
69187SOL    HW2 9401   2.326   2.699   1.565
69188SOL     OW 9402   1.512  10.388   5.201
69188SOL    HW1 9403   1.498  10.325   5.130
69188SOL    HW2 9404   1.452  10.358   5.270
69189SOL     OW 9405   1.973   1.022  10.258
69189SOL    HW1 9406   2.043   1.078  10.292
69189SOL    HW2 9407   1.992   1.013  10.165
69190SOL     OW 9408   7.895   7.003  12.166
69190SOL    HW1 9409   7.947   7.078  12.137
69190SOL    HW2 9410   7.814   7.041  12.200
69191SOL     OW 9411   3.706  10.200  13.816
69191SOL    HW1 9412   3.744  10.114  13.794
69191SOL    HW2 9413   3.723  10.211  13.909
69192SOL     OW 9414  11.384  13.096   4.805
69192SOL    HW1 9415  11.432  13.046   4.738
69192SOL    HW2 9416  11.420  13.184   4.799
69193SOL     OW 9417   6.384   3.747   4.393
69193SOL    HW1 9418   6.339   3.763   4.476
69193SOL    HW2 9419   6.321   3.771   4.326
69194SOL     OW 9420   8.952  10.448   6.536
69194SOL    HW1 9421   9.037  10.413   6.508
69194SOL    HW2 9422   8.974  10.517   6.599
69195SOL     OW 9423   8.994  10.851   0.172
69195SOL    HW1 9424   8.953  10.809   0.248
69195SOL    HW2 9425   9.078  10.883   0.205
69196SOL     OW 9426   8.790  12.624  12.192
69196SOL    HW1 9427   8.865  12.610  12.250
69196SOL    HW2 9428   8.786  12.719  12.181
69197SOL     OW 9429   9.721   2.820   4.042
69197SOL    HW1 9430   9.661   2.823   4.116
69197SOL    HW2 9431   9.734   2.727   4.024
69198SOL     OW 9432  13.977  10.052   2.058
69198SOL    HW1 9433  13.951  10.123   2.117
69198SOL    HW2 9434  13.908   9.987   2.067
69199SOL     OW 9435  10.202   8.424  10.614
69199SOL    HW1 9436  10.222   8.393  10.702
69199SOL    HW2 9437  10.267   8.381  10.559
69200SOL     OW 9438   2.278   1.907   2.060
69200SOL    HW1 9439   2.234   1.848   2.121
69200SOL    HW2 9440   2.247   1.881   1.974
69201SOL     OW 9441   4.254   1.214   4.789
69201SOL    HW1 9442   4.299   1.225   4.872
69201SOL    HW2 9443   4.314   1.161   4.736
69202SOL     OW 9444  11.248   3.902   3.488
69202SOL    HW1 9445  11.317   3.938   3.545
69202SOL    HW2 9446  11.286   3.823   3.451
69203SOL     OW 9447   6.952   6.091   6.827
69203SOL    HW1 9448   7.008   6.037   6.772
69203SOL    HW2 9449   6.870   6.098   6.778
69204SOL     OW 9450  10.472  13.589  11.274
69204SOL    HW1 9451  10.510  13.519  11.222
69204SOL    HW2 9452  10.521  13.590  11.356
69205SOL     OW 9453  12.111   3.591   9.821
69205SOL    HW1 9454  12.055   3.653   9.869
69205SOL    HW2 9455  12.135   3.638   9.741
69206SOL     OW 9456   3.917   5.556   1.334
69206SOL    HW1 9457   3.834   5.512   1.316
69206SOL    HW2 9458   3.967   5.548   1.253
69207SOL     OW 9459   6.722   6.465   5.045
69207SOL    HW1 9460   6.722   6.525   5.120
69207SOL    HW2 9461   6.800   6.411   5.058
69208SOL     OW 9462  14.155  14.793   4.495
69208SOL    HW1 9463  14.079  14.807   4.552
69208SOL    HW2 9464  14.219  14.859   4.523
69209SOL     OW 9465   5.631   7.158  13.570
69209SOL    HW1 9466   5.639   7.081  13.514
69209SOL    HW2 9467   5.667   7.131  13.654
69210SOL     OW 9468   9.637   1.628   0.499
69210SOL    HW1 9469   9.598   1.577   0.428
69210SOL    HW2 9470   9.662   1.710   0.458
69211SOL     OW 9471  14.584   5.621   6.199
69211SOL    HW1 9472  14.603   5.690   6.262
69211SOL    HW2 9473  14.654   5.629   6.133
69212SOL     OW 9474   9.286   4.703  10.870
69212SOL    HW1 9475   9.242   4.702  10.785
69212SOL    HW2 9476   9.227   4.657  10.929
69213SOL     OW 9477  11.553   1.977   1.757
69213SOL    HW1 9478  11.494   1.906   1.733
69213SOL    HW2 9479  11.625   1.970   1.695
69214SOL     OW 9480   0.774  11.040  14.343
69214SOL    HW1 9481   0.829  10.963  14.357
69214SOL    HW2 9482   0.836  11.113  14.335
69215SOL     OW 9483   9.267  14.714  11.667
69215SOL    HW1 9484   9.359  14.739  11.656
69215SOL    HW2 9485   9.236  14.702  11.577
69216SOL     OW 9486   0.639  13.412  13.157
69216SOL    HW1 9487   0.561  13.428  13.104
69216SOL    HW2 9488   0.706  13.385  13.094
69217SOL     OW 9489   8.942   6.987   3.234
69217SOL    HW1 9490   8.850   6.962   3.246
69217SOL    HW2 9491   8.954   7.065   3.288
69218SOL     OW 9492   0.530   1.015   4.875
69218SOL    HW1 9493   0.462   1.057   4.927
69218SOL    HW2 9494   0.611   1.035   4.921
69219SOL     OW 9495   8.603   8.566   1.095
69219SOL    HW1 9496   8.639   8.653   1.074
69219SOL    HW2 9497   8.579   8.573   1.188
69220SOL     OW 9498   6.761   5.154   2.952
69220SOL    HW1 9499   6.796   5.239   2.925
69220SOL    HW2 9500   6.824   5.090   2.916
69221SOL     OW 9501   0.224   1.460   9.162
69221SOL    HW1 9502   0.185   1.421   9.241
69221SOL    HW2 9503   0.215   1.392   9.095
69222SOL     OW 9504  12.521   2.438  14.505
69222SOL    HW1 9505  12.470   2.468  14.431
69222SOL    HW2 9506  12.511   2.506  14.571
69223SOL     OW 9507  10.816   3.332   6.021
69223SOL    HW1 9508  10.790   3.240   6.020
69223SOL    HW2 9509  10.910   3.331   6.005
69224SOL     OW 9510   3.841   7.451   0.521
69224SOL    HW1 9511   3.799   7.371   0.551
69224SOL    HW2 9512   3.919   7.421   0.474
69225SOL     OW 9513   7.685   3.106  10.867
69225SOL    HW1 9514   7.649   3.122  10.954
69225SOL    HW2 9515   7.761   3.163  10.862
69226SOL     OW 9516   0.820  13.128   8.426
69226SOL    HW1 9517   0.834  13.221   8.411
69226SOL    HW2 9518   0.869  13.084   8.356
69227SOL     OW 9519   8.672   9.546   5.712
69227SOL    HW1 9520   8.756   9.535   5.668
69227SOL    HW2 9521   8.633   9.623   5.671
69228SOL     OW 9522  13.167  13.655   9.772
69228SOL    HW1 9523  13.145  13.634   9.682
69228SOL    HW2 9524  13.200  13.573   9.809
69229SOL     OW 9525  13.810   4.919   8.463
69229SOL    HW1 9526  13.719   4.941   8.442
69229SOL    HW2 9527  13.855   4.919   8.378
69230SOL     OW 9528   1.703  14.620  12.786
69230SOL    HW1 9529   1.611  14.635  12.764
69230SOL    HW2 9530   1.716  14.669  12.868
69231SOL     OW 9531   1.843  12.710  13.465
69231SOL    HW1 9532   1.755  12.715  13.503
69231SOL    HW2 9533   1.872  12.621  13.486
69232SOL     OW 9534   0.347  12.395  12.006
69232SOL    HW1 9535   0.414  12.344  11.960
69232SOL    HW2 9536   0.305  12.447  11.937
69233SOL     OW 9537   0.378  10.791   8.174
69233SOL    HW1 9538   0.455  10.796   8.117
69233SOL    HW2 9539   0.350  10.699   8.169
69234SOL     OW 9540   0.777   5.485  11.761
69234SOL    HW1 9541   0.684   5.464  11.772
69234SOL    HW2 9542   0.823   5.423  11.817
69235SOL     OW 9543   2.489   4.986   5.328
69235SOL    HW1 9544   2.580   4.995   5.300
69235SOL    HW2 9545   2.465   4.896   5.305
69236SOL     OW 9546   5.034   7.737   7.457
69236SOL    HW1 9547   5.005   7.801   7.521
69236SOL    HW2 9548   4.981   7.755   7.379
69237SOL     OW 9549  12.178   7.548   7.567
69237SOL    HW1 9550  12.153   7.536   7.658
69237SOL    HW2 9551  12.248   7.614   7.570
69238SOL     OW 9552  11.424   3.575   5.637
69238SOL    HW1 9553  11.426   3.620   5.552
69238SOL    HW2 9554  11.426   3.645   5.702
69239SOL     OW 9555   6.776   8.676   2.003
69239SOL    HW1 9556   6.763   8.769   1.985
69239SOL    HW2 9557   6.688   8.643   2.020
69240SOL     OW 9558   7.243   4.443   3.826
69240SOL    HW1 9559   7.291   4.525   3.819
69240SOL    HW2 9560   7.152   4.466   3.807
69241SOL     OW 9561   2.918   4.269  10.320
69241SOL    HW1 9562   2.839   4.292  10.271
69241SOL    HW2 9563   2.885   4.228  10.400
69242SOL     OW 9564   1.011  14.842   0.179
69242SOL    HW1 9565   1.024  14.831   0.273
69242SOL    HW2 9566   1.087  14.800   0.139
69243SOL     OW 9567  14.749  12.148  10.296
69243SOL    HW1 9568  14.795  12.069  10.325
69243SOL    HW2 9569  14.660  12.119  10.280
69244SOL     OW 9570   6.048   1.260   4.096
69244SOL    HW1 9571   6.087   1.258   4.009
69244SOL    HW2 9572   6.113   1.305   4.150
69245SOL     OW 9573   7.813   7.188   1.780
69245SOL    HW1 9574   7.896   7.200   1.826
69245SOL    HW2 9575   7.772   7.114   1.824
69246SOL     OW 9576   8.158   6.138   4.248
69246SOL    HW1 9577   8.167   6.231   4.232
69246SOL    HW2 9578   8.234   6.098   4.206
69247SOL     OW 9579   2.483   3.756   6.692
69247SOL    HW1 9580   2.458   3.664   6.688
69247SOL    HW2 9581   2.539   3.762   6.769
69248SOL     OW 9582   8.647  11.027   4.806
69248SOL    HW1 9583   8.711  10.959   4.786
69248SOL    HW2 9584   8.585  11.025   4.734
69249SOL     OW 9585   5.391   8.275   9.810
69249SOL    HW1 9586   5.469   8.324   9.782
69249SOL    HW2 9587   5.362   8.229   9.732
69250SOL     OW 9588  11.894   1.611  11.313
69250SOL    HW1 9589  11.984   1.611  11.347
69250SOL    HW2 9590  11.849   1.544  11.365
69251SOL     OW 9591  12.399  13.934   4.970
69251SOL    HW1 9592  12.422  13.969   5.056
69251SOL    HW2 9593  12.306  13.913   4.977
69252SOL     OW 9594   0.784   3.250   8.684
69252SOL    HW1 9595   0.714   3.189   8.659
69252SOL    HW2 9596   0.738   3.332   8.705
69253SOL     OW 9597  11.702  14.835   1.817
69253SOL    HW1 9598  11.772   0.022   1.805
69253SOL    HW2 9599  11.626  14.874   1.775
69254SOL     OW 9600   2.327   7.448   3.012
69254SOL    HW1 9601   2.321   7.424   3.104
69254SOL    HW2 9602   2.421   7.453   2.995
69255SOL     OW 9603   0.200   6.568  10.141
69255SOL    HW1 9604   0.139   6.619  10.089
69255SOL    HW2 9605   0.248   6.632  10.193
69256SOL     OW 9606  11.578   5.780  14.859
69256SOL    HW1 9607  11.538   5.861  14.830
69256SOL    HW2 9608  11.647   5.763  14.796
69257SOL     OW 9609   7.570   1.286  13.161
69257SOL    HW1 9610   7.507   1.276  13.233
69257SOL    HW2 9611   7.525   1.250  13.085
69258SOL     OW 9612  12.559   3.193  10.783
69258SOL    HW1 9613  12.613   3.146  10.845
69258SOL    HW2 9614  12.550   3.281  10.820
69259SOL     OW 9615   6.139  11.985   8.998
69259SOL    HW1 9616   6.163  12.043   9.071
69259SOL    HW2 9617   6.068  11.932   9.033
69260SOL     OW 9618  11.887  13.415   7.435
69260SOL    HW1 9619  11.975  13.377   7.433
69260SOL    HW2 9620  11.846  13.376   7.512
69261SOL     OW 9621  10.900   0.030   5.065
69261SOL    HW1 9622  10.988   0.065   5.076
69261SOL    HW2 9623  10.901  14.821   5.107
69262SOL     OW 9624   5.727   4.350   5.457
69262SOL    HW1 9625   5.819   4.346   5.485
69262SOL    HW2 9626   5.730   4.383   5.368
69263SOL     OW 9627   6.009   1.952  12.667
69263SOL    HW1 9628   6.066   1.963  12.591
69263SOL    HW2 9629   5.964   2.036  12.675
69264SOL     OW 9630   7.790  10.225   7.847
69264SOL    HW1 9631   7.795  10.130   7.835
69264SOL    HW2 9632   7.783  10.236   7.942
69265SOL     OW 9633   8.894   6.269   0.314
69265SOL    HW1 9634   8.885   6.176   0.292
69265SOL    HW2 9635   8.851   6.277   0.400
69266SOL     OW 9636   1.971   5.870   1.800
69266SOL    HW1 9637   1.947   5.955   1.763
69266SOL    HW2 9638   2.058   5.852   1.763
69267SOL     OW 9639   7.830   8.520  11.537
69267SOL    HW1 9640   7.825   8.489  11.627
69267SOL    HW2 9641   7.740   8.546  11.516
69268SOL     OW 9642   1.859  13.101  11.324
69268SOL    HW1 9643   1.812  13.020  11.341
69268SOL    HW2 9644   1.923  13.079  11.257
69269SOL     OW 9645   2.631   1.890   4.033
69269SOL    HW1 9646   2.674   1.869   3.950
69269SOL    HW2 9647   2.575   1.965   4.014
69270SOL     OW 9648  11.556   4.251   5.762
69270SOL    HW1 9649  11.581   4.336   5.726
69270SOL    HW2 9650  11.639   4.207   5.780
69271SOL     OW 9651  10.313   2.411   5.603
69271SOL    HW1 9652  10.300   2.382   5.693
69271SOL    HW2 9653  10.224   2.419   5.568
69272SOL     OW 9654   0.462   7.617   7.956
69272SOL    HW1 9655   0.373   7.607   7.991
69272SOL    HW2 9656   0.517   7.623   8.034
69273SOL     OW 9657  12.382   6.539   5.769
69273SOL    HW1 9658  12.361   6.471   5.833
69273SOL    HW2 9659  12.477   6.550   5.776
69274SOL     OW 9660   8.878   3.190   4.093
69274SOL    HW1 9661   8.806   3.252   4.098
69274SOL    HW2 9662   8.843   3.109   4.132
69275SOL     OW 9663   1.537   4.244   0.685
69275SOL    HW1 9664   1.465   4.180   0.693
69275SOL    HW2 9665   1.501   4.324   0.723
69276SOL     OW 9666  14.764   5.575   8.025
69276SOL    HW1 9667  14.805   5.651   8.066
69276SOL    HW2 9668  14.833   5.538   7.969
69277SOL     OW 9669   9.007  12.408  13.616
69277SOL    HW1 9670   8.965  12.486  13.652
69277SOL    HW2 9671   9.061  12.441  13.544
69278SOL     OW 9672   0.050   8.784   0.058
69278SOL    HW1 9673   0.120   8.770  14.870
69278SOL    HW2 9674   0.020   8.696   0.080
69279SOL     OW 9675   5.606   7.716  10.841
69279SOL    HW1 9676   5.513   7.698  10.831
69279SOL    HW2 9677   5.641   7.717  10.752
69280SOL     OW 9678  14.671   3.185  14.543
69280SOL    HW1 9679  14.655   3.159  14.634
69280SOL    HW2 9680  14.621   3.266  14.532
69281SOL     OW 9681   9.607   5.924   2.989
69281SOL    HW1 9682   9.621   5.940   3.082
69281SOL    HW2 9683   9.523   5.878   2.985
69282SOL     OW 9684   3.811   7.265  13.744
69282SOL    HW1 9685   3.801   7.170  13.745
69282SOL    HW2 9686   3.883   7.281  13.683
69283SOL     OW 9687  14.377   6.254   0.914
69283SOL    HW1 9688  14.386   6.272   1.007
69283SOL    HW2 9689  14.285   6.270   0.894
69284SOL     OW 9690  10.196  14.619  14.628
69284SOL    HW1 9691  10.209  14.566  14.707
69284SOL    HW2 9692  10.283  14.650  14.605
69285SOL     OW 9693  13.411   8.563   7.996
69285SOL    HW1 9694  13.371   8.641   8.035
69285SOL    HW2 9695  13.384   8.566   7.904
69286SOL     OW 9696   4.516   5.376   3.390
69286SOL    HW1 9697   4.486   5.406   3.476
69286SOL    HW2 9698   4.436   5.347   3.346
69287SOL     OW 9699   9.413   6.907  10.331
69287SOL    HW1 9700   9.423   6.830  10.275
69287SOL    HW2 9701   9.336   6.952  10.296
69288SOL     OW 9702  10.199   4.096  14.323
69288SOL    HW1 9703  10.226   4.077  14.233
69288SOL    HW2 9704  10.116   4.143  14.314
69289SOL     OW 9705  10.103  13.765   0.846
69289SOL    HW1 9706  10.023  13.786   0.796
69289SOL    HW2 9707  10.070  13.734   0.930
69290SOL     OW 9708  11.906   9.698  12.775
69290SOL    HW1 9709  11.950   9.774  12.812
69290SOL    HW2 9710  11.969   9.661  12.713
69291SOL     OW 9711   4.024   3.354  14.155
69291SOL    HW1 9712   3.962   3.422  14.181
69291SOL    HW2 9713   3.979   3.271  14.172
69292SOL     OW 9714  11.668   9.074   8.241
69292SOL    HW1 9715  11.609   9.072   8.166
69292SOL    HW2 9716  11.751   9.105   8.205
69293SOL     OW 9717   0.284   8.695   5.684
69293SOL    HW1 9718   0.306   8.614   5.638
69293SOL    HW2 9719   0.336   8.762   5.640
69294SOL     OW 9720   6.064  12.669   5.712
69294SOL    HW1 9721   6.139  12.724   5.686
69294SOL    HW2 9722   5.987  12.719   5.685
69295SOL     OW 9723   7.591  10.498   8.224
69295SOL    HW1 9724   7.506  10.459   8.203
69295SOL    HW2 9725   7.613  10.551   8.147
69296SOL     OW 9726   0.144   4.321   9.492
69296SOL    HW1 9727   0.195   4.335   9.571
69296SOL    HW2 9728   0.142   4.226   9.480
69297SOL     OW 9729  11.653   0.567   6.274
69297SOL    HW1 9730  11.630   0.575   6.367
69297SOL    HW2 9731  11.682   0.655   6.249
69298SOL     OW 9732   2.444   7.345  10.803
69298SOL    HW1 9733   2.488   7.268  10.768
69298SOL    HW2 9734   2.395   7.312  10.879
69299SOL     OW 9735  10.148   6.509   2.939
69299SOL    HW1 9736  10.079   6.571   2.963
69299SOL    HW2 9737  10.223   6.563   2.916
69300SOL     OW 9738   8.274   8.775   7.923
69300SOL    HW1 9739   8.353   8.828   7.935
69300SOL    HW2 9740   8.208   8.817   7.979
69301SOL     OW 9741   5.667  10.693   8.318
69301SOL    HW1 9742   5.592  10.699   8.259
69301SOL    HW2 9743   5.633  10.722   8.403
69302SOL     OW 9744   6.296  11.420   9.825
69302SOL    HW1 9745   6.300  11.516   9.818
69302SOL    HW2 9746   6.356  11.399   9.896
69303SOL     OW 9747   7.530   4.587   5.917
69303SOL    HW1 9748   7.538   4.613   5.825
69303SOL    HW2 9749   7.620   4.577   5.947
69304SOL     OW 9750   5.968  14.578  12.995
69304SOL    HW1 9751   5.988  14.567  13.088
69304SOL    HW2 9752   5.938  14.669  12.988
69305SOL     OW 9753  14.080   8.085  13.706
69305SOL    HW1 9754  13.986   8.103  13.695
69305SOL    HW2 9755  14.123   8.150  13.651
69306SOL     OW 9756   3.320   9.529   8.717
69306SOL    HW1 9757   3.236   9.531   8.764
69306SOL    HW2 9758   3.343   9.437   8.713
69307SOL     OW 9759  10.427   0.883  10.803
69307SOL    HW1 9760  10.463   0.957  10.754
69307SOL    HW2 9761  10.377   0.834  10.738
69308SOL     OW 9762   7.623   1.714   1.280
69308SOL    HW1 9763   7.678   1.712   1.202
69308SOL    HW2 9764   7.550   1.772   1.257
69309SOL     OW 9765   2.563  13.142   4.178
69309SOL    HW1 9766   2.613  13.134   4.259
69309SOL    HW2 9767   2.491  13.201   4.200
69310SOL     OW 9768   7.330   7.544   3.603
69310SOL    HW1 9769   7.268   7.509   3.539
69310SOL    HW2 9770   7.307   7.501   3.685
69311SOL     OW 9771   2.571  13.495   2.466
69311SOL    HW1 9772   2.591  13.574   2.416
69311SOL    HW2 9773   2.612  13.424   2.417
69312SOL     OW 9774   1.789   2.870   1.517
69312SOL    HW1 9775   1.695   2.857   1.528
69312SOL    HW2 9776   1.829   2.816   1.585
69313SOL     OW 9777   9.175   8.490   5.622
69313SOL    HW1 9778   9.247   8.554   5.623
69313SOL    HW2 9779   9.168   8.465   5.530
69314SOL     OW 9780  12.819   2.669  10.330
69314SOL    HW1 9781  12.837   2.575  10.340
69314SOL    HW2 9782  12.866   2.710  10.402
69315SOL     OW 9783  14.259  14.419   4.631
69315SOL    HW1 9784  14.286  14.366   4.556
69315SOL    HW2 9785  14.173  14.453   4.607
69316SOL     OW 9786   5.357   0.118   6.446
69316SOL    HW1 9787   5.405   0.087   6.523
69316SOL    HW2 9788   5.424   0.154   6.388
69317SOL     OW 9789   0.216   2.057   7.583
69317SOL    HW1 9790   0.170   2.140   7.598
69317SOL    HW2 9791   0.309   2.079   7.592
69318SOL     OW 9792   9.172   6.041   6.554
69318SOL    HW1 9793   9.168   6.079   6.642
69318SOL    HW2 9794   9.131   6.107   6.498
69319SOL     OW 9795   9.913  12.877   2.649
69319SOL    HW1 9796   9.944  12.960   2.613
69319SOL    HW2 9797   9.846  12.847   2.588
69320SOL     OW 9798   0.075  12.338   0.798
69320SOL    HW1 9799  14.860  12.340   0.827
69320SOL    HW2 9800   0.069  12.337   0.702
69321SOL     OW 9801   5.721  14.663   8.977
69321SOL    HW1 9802   5.758  14.576   8.995
69321SOL    HW2 9803   5.677  14.653   8.892
69322SOL     OW 9804   3.748   4.151   3.565
69322SOL    HW1 9805   3.730   4.220   3.628
69322SOL    HW2 9806   3.686   4.081   3.586
69323SOL     OW 9807  10.384  13.088   9.578
69323SOL    HW1 9808  10.429  13.033   9.515
69323SOL    HW2 9809  10.374  13.032   9.656
69324SOL     OW 9810  10.166   0.218  11.852
69324SOL    HW1 9811  10.259   0.197  11.859
69324SOL    HW2 9812  10.164   0.312  11.836
69325SOL     OW 9813  10.669   5.548   7.518
69325SOL    HW1 9814  10.600   5.584   7.462
69325SOL    HW2 9815  10.737   5.519   7.457
69326SOL     OW 9816   8.544   6.772   5.794
69326SOL    HW1 9817   8.463   6.784   5.844
69326SOL    HW2 9818   8.614   6.779   5.860
69327SOL     OW 9819  13.137   2.331   1.987
69327SOL    HW1 9820  13.196   2.292   1.922
69327SOL    HW2 9821  13.189   2.337   2.067
69328SOL     OW 9822   7.812  11.924   8.632
69328SOL    HW1 9823   7.814  11.927   8.727
69328SOL    HW2 9824   7.899  11.895   8.606
69329SOL     OW 9825   2.536   6.092  10.496
69329SOL    HW1 9826   2.548   6.149  10.419
69329SOL    HW2 9827   2.460   6.038  10.475
69330SOL     OW 9828   0.822   8.369   4.182
69330SOL    HW1 9829   0.907   8.373   4.226
69330SOL    HW2 9830   0.774   8.445   4.217
69331SOL     OW 9831  14.197  13.163   6.010
69331SOL    HW1 9832  14.177  13.253   6.035
69331SOL    HW2 9833  14.181  13.161   5.915
69332SOL     OW 9834  12.194   3.791  10.365
69332SOL    HW1 9835  12.259   3.757  10.427
69332SOL    HW2 9836  12.162   3.713  10.320
69333SOL     OW 9837   4.104   6.361  13.576
69333SOL    HW1 9838   4.050   6.438  13.560
69333SOL    HW2 9839   4.047   6.287  13.554
69334SOL     OW 9840   7.158   6.341   8.825
69334SOL    HW1 9841   7.101   6.279   8.779
69334SOL    HW2 9842   7.098   6.404   8.864
69335SOL     OW 9843   9.383   1.338   6.728
69335SOL    HW1 9844   9.448   1.375   6.789
69335SOL    HW2 9845   9.345   1.414   6.685
69336SOL     OW 9846   0.920  13.130   6.531
69336SOL    HW1 9847   0.942  13.178   6.611
69336SOL    HW2 9848   0.950  13.186   6.460
69337SOL     OW 9849   5.728   2.210  14.831
69337SOL    HW1 9850   5.752   2.267   0.029
69337SOL    HW2 9851   5.812   2.189  14.789
69338SOL     OW 9852  11.054  10.021   1.673
69338SOL    HW1 9853  11.105  10.070   1.738
69338SOL    HW2 9854  10.996  10.087   1.634
69339SOL     OW 9855  11.947  11.196  12.819
69339SOL    HW1 9856  11.988  11.119  12.859
69339SOL    HW2 9857  11.951  11.179  12.725
69340SOL     OW 9858   3.020   1.050   2.540
69340SOL    HW1 9859   3.058   0.962   2.546
69340SOL    HW2 9860   3.032   1.087   2.627
69341SOL     OW 9861   8.774  14.027   4.133
69341SOL    HW1 9862   8.852  14.054   4.085
69341SOL    HW2 9863   8.795  13.939   4.166
69342SOL     OW 9864   5.734  13.380   2.112
69342SOL    HW1 9865   5.763  13.440   2.180
69342SOL    HW2 9866   5.814  13.357   2.064
69343SOL     OW 9867  12.049  10.257   2.748
69343SOL    HW1 9868  12.121  10.289   2.695
69343SOL    HW2 9869  12.089  10.231   2.831
69344SOL     OW 9870  10.919   2.748   8.030
69344SOL    HW1 9871  10.954   2.754   8.119
69344SOL    HW2 9872  10.846   2.687   8.037
69345SOL     OW 9873  13.385   4.931   3.186
69345SOL    HW1 9874  13.289   4.935   3.182
69345SOL    HW2 9875  13.406   4.961   3.275
69346SOL     OW 9876  12.247   6.363   7.009
69346SOL    HW1 9877  12.307   6.362   7.083
69346SOL    HW2 9878  12.280   6.296   6.950
69347SOL     OW 9879   5.842  12.846   3.273
69347SOL    HW1 9880   5.893  12.925   3.253
69347SOL    HW2 9881   5.769  12.877   3.326
69348SOL     OW 9882   5.637  13.750   2.759
69348SOL    HW1 9883   5.546  13.778   2.746
69348SOL    HW2 9884   5.644  13.736   2.853
69349SOL     OW 9885   5.777   5.680   9.781
69349SOL    HW1 9886   5.698   5.628   9.800
69349SOL    HW2 9887   5.820   5.631   9.710
69350SOL     OW 9888   2.314  11.775   9.360
69350SOL    HW1 9889   2.329  11.689   9.398
69350SOL    HW2 9890   2.239  11.810   9.408
69351SOL     OW 9891   8.860   9.654   7.808
69351SOL    HW1 9892   8.902   9.578   7.849
69351SOL    HW2 9893   8.768   9.628   7.799
69352SOL     OW 9894   7.537   4.322   7.437
69352SOL    HW1 9895   7.519   4.326   7.343
69352SOL    HW2 9896   7.609   4.259   7.445
69353SOL     OW 9897   1.155   3.503  14.476
69353SOL    HW1 9898   1.225   3.440  14.496
69353SOL    HW2 9899   1.190   3.587  14.505
69354SOL     OW 9900   3.456  14.279   8.670
69354SOL    HW1 9901   3.380  14.227   8.646
69354SOL    HW2 9902   3.459  14.349   8.606
69355SOL     OW 9903   3.939  11.005   2.029
69355SOL    HW1 9904   3.916  11.085   2.076
69355SOL    HW2 9905   3.916  11.023   1.938
69356SOL     OW 9906   3.247  12.225   5.009
69356SOL    HW1 9907   3.288  12.200   4.926
69356SOL    HW2 9908   3.320  12.237   5.070
69357SOL     OW 9909   8.884   9.338  10.440
69357SOL    HW1 9910   8.805   9.347  10.387
69357SOL    HW2 9911   8.942   9.283  10.387
69358SOL     OW 9912   7.000   9.019   3.246
69358SOL    HW1 9913   6.974   8.965   3.321
69358SOL    HW2 9914   7.095   9.007   3.240
69359SOL     OW 9915   3.426   5.148   2.248
69359SOL    HW1 9916   3.366   5.165   2.175
69359SOL    HW2 9917   3.509   5.187   2.221
69360SOL     OW 9918   5.801  12.065   0.986
69360SOL    HW1 9919   5.862  12.075   0.913
69360SOL    HW2 9920   5.856  12.046   1.061
69361SOL     OW 9921   3.711  10.950   2.469
69361SOL    HW1 9922   3.792  10.997   2.450
69361SOL    HW2 9923   3.720  10.924   2.561
69362SOL     OW 9924   5.081  14.012   1.776
69362SOL    HW1 9925   5.054  13.968   1.695
69362SOL    HW2 9926   5.059  14.104   1.763
69363SOL     OW 9927   0.705   8.978  14.530
69363SOL    HW1 9928   0.787   8.937  14.556
69363SOL    HW2 9929   0.685   9.040  14.600
69364SOL     OW 9930  13.865  11.940   2.893
69364SOL    HW1 9931  13.904  11.912   2.976
69364SOL    HW2 9932  13.770  11.938   2.909
69365SOL     OW 9933   5.435   3.450   2.719
69365SOL    HW1 9934   5.347   3.487   2.718
69365SOL    HW2 9935   5.448   3.416   2.631
69366SOL     OW 9936   8.563  11.923   1.264
69366SOL    HW1 9937   8.470  11.914   1.286
69366SOL    HW2 9938   8.573  12.016   1.245
69367SOL     OW 9939   8.514  11.935  10.366
69367SOL    HW1 9940   8.592  11.986  10.346
69367SOL    HW2 9941   8.548  11.853  10.403
69368SOL     OW 9942  11.548   4.543  14.565
69368SOL    HW1 9943  11.630   4.581  14.532
69368SOL    HW2 9944  11.570   4.513  14.653
69369SOL     OW 9945  10.703  13.268  11.609
69369SOL    HW1 9946  10.712  13.232  11.698
69369SOL    HW2 9947  10.792  13.287  11.582
69370SOL     OW 9948   7.020   9.370   7.441
69370SOL    HW1 9949   6.929   9.397   7.454
69370SOL    HW2 9950   7.041   9.320   7.520
69371SOL     OW 9951   4.211  10.380   6.597
69371SOL    HW1 9952   4.134  10.342   6.637
69371SOL    HW2 9953   4.238  10.450   6.656
69372SOL     OW 9954   4.271   3.790  12.250
69372SOL    HW1 9955   4.222   3.728  12.304
69372SOL    HW2 9956   4.268   3.753  12.162
69373SOL     OW 9957  13.069  13.206   0.946
69373SOL    HW1 9958  13.143  13.255   0.912
69373SOL    HW2 9959  13.003  13.210   0.877
69374SOL     OW 9960   7.005  13.812   5.103
69374SOL    HW1 9961   7.071  13.748   5.077
69374SOL    HW2 9962   6.992  13.866   5.025
69375SOL     OW 9963  13.226   6.777   1.257
69375SOL    HW1 9964  13.268   6.813   1.179
69375SOL    HW2 9965  13.187   6.852   1.301
69376SOL     OW 9966  11.014   1.277  14.226
69376SOL    HW1 9967  11.030   1.369  14.247
69376SOL    HW2 9968  10.947   1.248  14.288
69377SOL     OW 9969   8.781   0.926  11.852
69377SOL    HW1 9970   8.700   0.961  11.816
69377SOL    HW2 9971   8.811   0.863  11.787
69378SOL     OW 9972   4.808  11.119   5.212
69378SOL    HW1 9973   4.824  11.170   5.291
69378SOL    HW2 9974   4.893  11.081   5.191
69379SOL     OW 9975  10.983  12.285   1.248
69379SOL    HW1 9976  11.061  12.313   1.296
69379SOL    HW2 9977  10.923  12.360   1.255
69380SOL     OW 9978  13.538   7.672   4.567
69380SOL    HW1 9979  13.505   7.603   4.625
69380SOL    HW2 9980  13.586   7.626   4.499
69381SOL     OW 9981   5.791   2.689   6.658
69381SOL    HW1 9982   5.767   2.737   6.738
69381SOL    HW2 9983   5.708   2.658   6.623
69382SOL     OW 9984   1.957  13.138  14.535
69382SOL    HW1 9985   2.015  13.206  14.569
69382SOL    HW2 9986   1.879  13.186  14.506
69383SOL     OW 9987  11.910  13.642   0.801
69383SOL    HW1 9988  11.852  13.712   0.830
69383SOL    HW2 9989  11.892  13.633   0.707
69384SOL     OW 9990  14.459  11.371  12.078
69384SOL    HW1 9991  14.552  11.362  12.054
69384SOL    HW2 9992  14.413  11.364  11.995
69385SOL     OW 9993   9.644   5.961   8.553
69385SOL    HW1 9994   9.661   6.055   8.546
69385SOL    HW2 9995   9.708   5.930   8.616
69386SOL     OW 9996   1.504   3.349   0.708
69386SOL    HW1 9997   1.532   3.275   0.763
69386SOL    HW2 9998   1.427   3.384   0.752
69387SOL     OW 9999   1.131   2.156   8.826
69387SOL    HW110000   1.072   2.213   8.776
69387SOL    HW210001   1.216   2.167   8.784
69388SOL     OW10002   4.897  13.359   5.192
69388SOL    HW110003   4.915  13.295   5.262
69388SOL    HW210004   4.866  13.306   5.119
69389SOL     OW10005   7.982   2.568   6.572
69389SOL    HW110006   7.894   2.599   6.589
69389SOL    HW210007   8.039   2.634   6.613
69390SOL     OW10008  11.841   5.170   2.102
69390SOL    HW110009  11.769   5.162   2.164
69390SOL    HW210010  11.901   5.098   2.125
69391SOL     OW10011   0.479   2.528   0.682
69391SOL    HW110012   0.469   2.598   0.747
69391SOL    HW210013   0.541   2.563   0.618
69392SOL     OW10014  10.098   4.587   0.939
69392SOL    HW110015  10.058   4.671   0.963
69392SOL    HW210016  10.192   4.606   0.934
69393SOL     OW10017  13.332   5.226   7.659
69393SOL    HW110018  13.269   5.154   7.666
69393SOL    HW210019  13.389   5.201   7.587
69394SOL     OW10020  14.656  12.308  10.515
69394SOL    HW110021  14.589  12.240  10.528
69394SOL    HW210022  14.713  12.273  10.447
69395SOL     OW10023  11.746   9.977  12.574
69395SOL    HW110024  11.759   9.894  12.527
69395SOL    HW210025  11.782  10.043  12.515
69396SOL     OW10026   3.466   1.862   6.079
69396SOL    HW110027   3.374   1.882   6.058
69396SOL    HW210028   3.503   1.947   6.104
69397SOL     OW10029  10.134   6.619   4.806
69397SOL    HW110030  10.135   6.524   4.817
69397SOL    HW210031  10.085   6.651   4.882
69398SOL     OW10032   5.309   6.410   0.692
69398SOL    HW110033   5.337   6.501   0.700
69398SOL    HW210034   5.382   6.359   0.729
69399SOL     OW10035   6.153   7.378  13.620
69399SOL    HW110036   6.066   7.339  13.619
69399SOL    HW210037   6.189   7.360  13.534
69400SOL     OW10038   8.933   5.588  14.795
69400SOL    HW110039   9.014   5.598  14.746
69400SOL    HW210040   8.875   5.656  14.761
69401SOL     OW10041  14.413  14.713   7.564
69401SOL    HW110042  14.415  14.808   7.572
69401SOL    HW210043  14.356  14.695   7.489
69402SOL     OW10044   6.215   7.579  14.510
69402SOL    HW110045   6.155   7.549  14.442
69402SOL    HW210046   6.159   7.618  14.577
69403SOL     OW10047   1.759   5.166   5.665
69403SOL    HW110048   1.832   5.214   5.625
69403SOL    HW210049   1.708   5.233   5.709
69404SOL     OW10050   9.497  12.550   9.938
69404SOL    HW110051   9.473  12.587  10.023
69404SOL    HW210052   9.593  12.551   9.937
69405SOL     OW10053  13.833   6.801  13.457
69405SOL    HW110054  13.756   6.785  13.511
69405SOL    HW210055  13.839   6.897  13.451
69406SOL     OW10056   0.105  14.259   2.223
69406SOL    HW110057   0.186  14.305   2.245
69406SOL    HW210058   0.051  14.324   2.179
69407SOL     OW10059   2.694  14.205  11.212
69407SOL    HW110060   2.635  14.186  11.139
69407SOL    HW210061   2.778  14.225  11.170
69408SOL     OW10062  11.323   7.795  10.664
69408SOL    HW110063  11.297   7.777  10.755
69408SOL    HW210064  11.334   7.709  10.624
69409SOL     OW10065   7.092   2.366  14.776
69409SOL    HW110066   7.046   2.434  14.825
69409SOL    HW210067   7.175   2.354  14.821
69410SOL     OW10068   7.268   4.236   0.507
69410SOL    HW110069   7.231   4.199   0.588
69410SOL    HW210070   7.312   4.162   0.465
69411SOL     OW10071  10.798  14.463   7.047
69411SOL    HW110072  10.837  14.495   7.128
69411SOL    HW210073  10.868  14.411   7.005
69412SOL     OW10074   7.149  12.175  14.361
69412SOL    HW110075   7.129  12.266  14.382
69412SOL    HW210076   7.215  12.181  14.291
69413SOL     OW10077   1.521   4.821   2.747
69413SOL    HW110078   1.509   4.916   2.739
69413SOL    HW210079   1.602   4.804   2.698
69414SOL     OW10080   7.104   3.932   1.425
69414SOL    HW110081   7.079   3.896   1.510
69414SOL    HW210082   7.089   3.860   1.363
69415SOL     OW10083  13.644  13.395   5.399
69415SOL    HW110084  13.555  13.397   5.363
69415SOL    HW210085  13.640  13.448   5.478
69416SOL     OW10086   1.528   5.066   6.876
69416SOL    HW110087   1.575   5.049   6.958
69416SOL    HW210088   1.582   5.132   6.831
69417SOL     OW10089   0.301   9.490  10.886
69417SOL    HW110090   0.362   9.445  10.944
69417SOL    HW210091   0.331   9.469  10.798
69418SOL     OW10092   3.214  11.287   8.630
69418SOL    HW110093   3.222  11.197   8.596
69418SOL    HW210094   3.227  11.342   8.553
69419SOL     OW10095   1.432  14.458   1.395
69419SOL    HW110096   1.346  14.494   1.373
69419SOL    HW210097   1.444  14.479   1.488
69420SOL     OW10098   9.708  14.429   0.700
69420SOL    HW110099   9.682  14.510   0.657
69420SOL    HW210100   9.801  14.441   0.719
69421SOL     OW10101   1.484  11.888  10.104
69421SOL    HW110102   1.573  11.855  10.090
69421SOL    HW210103   1.434  11.811  10.132
69422SOL     OW10104   4.808   0.750   2.089
69422SOL    HW110105   4.855   0.831   2.109
69422SOL    HW210106   4.751   0.736   2.164
69423SOL     OW10107   6.889   4.041   3.795
69423SOL    HW110108   6.903   3.953   3.828
69423SOL    HW210109   6.890   4.096   3.873
69424SOL     OW10110   8.796   2.057  11.346
69424SOL    HW110111   8.802   2.099  11.260
69424SOL    HW210112   8.702   2.042  11.360
69425SOL     OW10113  11.345   7.704   1.028
69425SOL    HW110114  11.277   7.717   0.962
69425SOL    HW210115  11.337   7.778   1.087
69426SOL     OW10116   8.051   1.315   7.009
69426SOL    HW110117   8.100   1.352   6.936
69426SOL    HW210118   7.998   1.245   6.970
69427SOL     OW10119   9.888   8.723  10.811
69427SOL    HW110120   9.948   8.682  10.750
69427SOL    HW210121   9.852   8.651  10.863
69428SOL     OW10122   8.708  11.322   6.158
69428SOL    HW110123   8.676  11.283   6.077
69428SOL    HW210124   8.790  11.276   6.176
69429SOL     OW10125   5.416  11.872  14.187
69429SOL    HW110126   5.447  11.784  14.207
69429SOL    HW210127   5.440  11.924  14.264
69430SOL     OW10128   7.642  10.972   6.274
69430SOL    HW110129   7.556  10.963   6.233
69430SOL    HW210130   7.631  10.935   6.362
69431SOL     OW10131   6.201   8.621  14.691
69431SOL    HW110132   6.144   8.563  14.741
69431SOL    HW210133   6.152   8.639  14.610
69432SOL     OW10134   8.557  13.655  13.693
69432SOL    HW110135   8.635  13.631  13.744
69432SOL    HW210136   8.546  13.583  13.631
69433SOL     OW10137  12.717   9.866   7.373
69433SOL    HW110138  12.670   9.811   7.436
69433SOL    HW210139  12.655   9.936   7.351
69434SOL     OW10140   0.840   1.385   1.639
69434SOL    HW110141   0.814   1.449   1.706
69434SOL    HW210142   0.757   1.353   1.604
69435SOL     OW10143   6.515   4.596   1.391
69435SOL    HW110144   6.545   4.528   1.451
69435SOL    HW210145   6.527   4.558   1.304
69436SOL     OW10146  13.645   8.351   3.439
69436SOL    HW110147  13.687   8.398   3.511
69436SOL    HW210148  13.703   8.278   3.421
69437SOL     OW10149  12.751  12.635   4.074
69437SOL    HW110150  12.669  12.657   4.117
69437SOL    HW210151  12.809  12.709   4.092
69438SOL     OW10152   5.958   4.690   2.897
69438SOL    HW110153   5.890   4.745   2.936
69438SOL    HW210154   6.031   4.694   2.959
69439SOL     OW10155   1.110   6.240  12.189
69439SOL    HW110156   1.202   6.215  12.181
69439SOL    HW210157   1.068   6.198  12.114
69440SOL     OW10158  10.672   7.186  11.903
69440SOL    HW110159  10.685   7.092  11.893
69440SOL    HW210160  10.760   7.221  11.918
69441SOL     OW10161  14.481  10.752   8.009
69441SOL    HW110162  14.470  10.713   7.923
69441SOL    HW210163  14.471  10.846   7.995
69442SOL     OW10164   0.432  12.641   1.884
69442SOL    HW110165   0.350  12.593   1.873
69442SOL    HW210166   0.429  12.709   1.817
69443SOL     OW10167   7.373  10.167  13.719
69443SOL    HW110168   7.377  10.073  13.697
69443SOL    HW210169   7.318  10.204  13.650
69444SOL     OW10170   3.956   8.522   6.901
69444SOL    HW110171   4.031   8.510   6.959
69444SOL    HW210172   3.881   8.489   6.951
69445SOL     OW10173   0.031  12.392   9.507
69445SOL    HW110174   0.003  12.329   9.442
69445SOL    HW210175   0.053  12.339   9.584
69446SOL     OW10176   4.518  10.348   8.496
69446SOL    HW110177   4.606  10.348   8.535
69446SOL    HW210178   4.514  10.431   8.447
69447SOL     OW10179   3.023   8.940   0.217
69447SOL    HW110180   3.046   8.872   0.153
69447SOL    HW210181   3.076   9.015   0.191
69448SOL     OW10182   9.355  10.874   1.390
69448SOL    HW110183   9.410  10.889   1.313
69448SOL    HW210184   9.349  10.959   1.432
69449SOL     OW10185   8.270   1.727   0.189
69449SOL    HW110186   8.291   1.819   0.173
69449SOL    HW210187   8.313   1.680   0.117
69450SOL     OW10188   2.160   3.895  11.598
69450SOL    HW110189   2.084   3.864  11.547
69450SOL    HW210190   2.138   3.872  11.688
69451SOL     OW10191   9.593  11.899   3.804
69451SOL    HW110192   9.655  11.908   3.732
69451SOL    HW210193   9.593  11.985   3.846
69452SOL     OW10194  14.826   7.879   2.387
69452SOL    HW110195  14.786   7.895   2.302
69452SOL    HW210196  14.766   7.920   2.450
69453SOL     OW10197  11.421  13.183   9.583
69453SOL    HW110198  11.433  13.156   9.492
69453SOL    HW210199  11.505  13.223   9.607
69454SOL     OW10200  10.694   1.331   2.511
69454SOL    HW110201  10.679   1.280   2.590
69454SOL    HW210202  10.608   1.364   2.487
69455SOL     OW10203  10.953  10.592   8.655
69455SOL    HW110204  11.018  10.593   8.725
69455SOL    HW210205  10.869  10.597   8.701
69456SOL     OW10206   6.167   7.817   4.293
69456SOL    HW110207   6.176   7.858   4.207
69456SOL    HW210208   6.241   7.851   4.344
69457SOL     OW10209   7.343  14.639   5.420
69457SOL    HW110210   7.331  14.546   5.436
69457SOL    HW210211   7.364  14.676   5.505
69458SOL     OW10212   0.623   7.625   6.796
69458SOL    HW110213   0.697   7.648   6.740
69458SOL    HW210214   0.631   7.530   6.808
69459SOL     OW10215   2.138   8.351   4.681
69459SOL    HW110216   2.070   8.418   4.693
69459SOL    HW210217   2.116   8.283   4.744
69460SOL     OW10218   3.811   1.843  14.020
69460SOL    HW110219   3.792   1.787  14.096
69460SOL    HW210220   3.793   1.787  13.944
69461SOL     OW10221   9.116   5.474   0.308
69461SOL    HW110222   9.083   5.385   0.326
69461SOL    HW210223   9.159   5.500   0.389
69462SOL     OW10224   5.602   0.379  11.129
69462SOL    HW110225   5.547   0.445  11.172
69462SOL    HW210226   5.598   0.303  11.187
69463SOL     OW10227  11.769   8.019  14.060
69463SOL    HW110228  11.734   8.105  14.085
69463SOL    HW210229  11.692   7.967  14.038
69464SOL     OW10230   6.283   7.805   0.216
69464SOL    HW110231   6.269   7.744   0.288
69464SOL    HW210232   6.210   7.788   0.156
69465SOL     OW10233  12.562   0.063   8.093
69465SOL    HW110234  12.477   0.066   8.050
69465SOL    HW210235  12.624   0.040   8.024
69466SOL     OW10236   4.562   7.906   3.720
69466SOL    HW110237   4.583   7.871   3.634
69466SOL    HW210238   4.506   7.840   3.760
69467SOL     OW10239   7.830  10.475   5.297
69467SOL    HW110240   7.833  10.475   5.393
69467SOL    HW210241   7.827  10.383   5.273
69468SOL     OW10242  14.062   9.448   7.859
69468SOL    HW110243  14.063   9.422   7.951
69468SOL    HW210244  14.011   9.380   7.816
69469SOL     OW10245  11.429   2.872   6.279
69469SOL    HW110246  11.441   2.824   6.361
69469SOL    HW210247  11.339   2.852   6.252
69470SOL     OW10248   0.786   7.992  12.684
69470SOL    HW110249   0.806   7.905  12.718
69470SOL    HW210250   0.871   8.037  12.680
69471SOL     OW10251   4.676  11.929  10.315
69471SOL    HW110252   4.645  11.849  10.274
69471SOL    HW210253   4.667  11.996  10.247
69472SOL     OW10254   1.543   7.478  12.687
69472SOL    HW110255   1.546   7.532  12.607
69472SOL    HW210256   1.486   7.405  12.664
69473SOL     OW10257   1.018  13.079   8.812
69473SOL    HW110258   0.979  13.026   8.742
69473SOL    HW210259   1.112  13.076   8.795
69474SOL     OW10260  13.492  11.637   9.789
69474SOL    HW110261  13.580  11.604   9.770
69474SOL    HW210262  13.491  11.648   9.884
69475SOL     OW10263   0.888  11.658   1.036
69475SOL    HW110264   0.975  11.674   1.072
69475SOL    HW210265   0.849  11.745   1.028
69476SOL     OW10266   9.484   0.562   4.904
69476SOL    HW110267   9.491   0.504   4.980
69476SOL    HW210268   9.416   0.625   4.928
69477SOL     OW10269   2.583  14.430  14.640
69477SOL    HW110270   2.508  14.394  14.687
69477SOL    HW210271   2.641  14.463  14.708
69478SOL     OW10272   3.519   3.637   8.688
69478SOL    HW110273   3.526   3.683   8.772
69478SOL    HW210274   3.608   3.608   8.669
69479SOL     OW10275   4.377  11.346   4.709
69479SOL    HW110276   4.376  11.314   4.799
69479SOL    HW210277   4.383  11.266   4.656
69480SOL     OW10278   2.734   1.695   2.465
69480SOL    HW110279   2.808   1.738   2.507
69480SOL    HW210280   2.774   1.637   2.400
69481SOL     OW10281  13.344   3.782   1.782
69481SOL    HW110282  13.401   3.715   1.744
69481SOL    HW210283  13.324   3.750   1.870
69482SOL     OW10284   3.345   4.273  14.487
69482SOL    HW110285   3.254   4.277  14.514
69482SOL    HW210286   3.346   4.312  14.399
69483SOL     OW10287   0.651   0.435   8.463
69483SOL    HW110288   0.671   0.449   8.370
69483SOL    HW210289   0.645   0.340   8.472
69484SOL     OW10290  12.433   9.260   3.036
69484SOL    HW110291  12.350   9.266   2.990
69484SOL    HW210292  12.447   9.347   3.072
69485SOL     OW10293   3.130   7.734   7.908
69485SOL    HW110294   3.077   7.705   7.982
69485SOL    HW210295   3.220   7.720   7.936
69486SOL     OW10296   5.432   2.176   9.953
69486SOL    HW110297   5.455   2.157   9.862
69486SOL    HW210298   5.516   2.183   9.998
69487SOL     OW10299   7.770   9.919   9.551
69487SOL    HW110300   7.704   9.868   9.505
69487SOL    HW210301   7.756  10.009   9.522
69488SOL     OW10302   7.049   7.452   5.441
69488SOL    HW110303   7.089   7.376   5.398
69488SOL    HW210304   6.986   7.414   5.502
69489SOL     OW10305   1.804   5.177   3.040
69489SOL    HW110306   1.822   5.237   2.968
69489SOL    HW210307   1.709   5.164   3.037
69490SOL     OW10308   5.891   3.699   2.954
69490SOL    HW110309   5.982   3.668   2.951
69490SOL    HW210310   5.899   3.794   2.959
69491SOL     OW10311   6.667   2.264  14.365
69491SOL    HW110312   6.635   2.174  14.364
69491SOL    HW210313   6.721   2.271  14.287
69492SOL     OW10314  14.089  11.807  12.215
69492SOL    HW110315  14.122  11.742  12.153
69492SOL    HW210316  14.088  11.762  12.299
69493SOL     OW10317  13.840  10.838   7.210
69493SOL    HW110318  13.935  10.839   7.195
69493SOL    HW210319  13.805  10.791   7.134
69494SOL     OW10320   0.973  12.364   2.403
69494SOL    HW110321   0.932  12.363   2.489
69494SOL    HW210322   0.935  12.290   2.357
69495SOL     OW10323   8.343  11.633   8.666
69495SOL    HW110324   8.324  11.622   8.573
69495SOL    HW210325   8.439  11.630   8.671
69496SOL     OW10326   9.606   3.818  13.151
69496SOL    HW110327   9.590   3.831  13.245
69496SOL    HW210328   9.521   3.795  13.115
69497SOL     OW10329  11.506   9.522  10.266
69497SOL    HW110330  11.544   9.600  10.225
69497SOL    HW210331  11.444   9.489  10.200
69498SOL     OW10332   9.226  10.738   3.303
69498SOL    HW110333   9.194  10.648   3.315
69498SOL    HW210334   9.246  10.769   3.391
69499SOL     OW10335   2.791   0.955   2.434
69499SOL    HW110336   2.853   1.006   2.486
69499SOL    HW210337   2.843   0.921   2.361
69500SOL     OW10338  14.611   9.962  13.090
69500SOL    HW110339  14.681   9.904  13.119
69500SOL    HW210340  14.622  10.042  13.142
69501SOL     OW10341  10.555  13.570   4.085
69501SOL    HW110342  10.555  13.520   4.003
69501SOL    HW210343  10.639  13.550   4.126
69502SOL     OW10344  14.121   5.178   7.385
69502SOL    HW110345  14.069   5.134   7.452
69502SOL    HW210346  14.212   5.153   7.405
69503SOL     OW10347   4.885  14.028   5.089
69503SOL    HW110348   4.907  14.040   5.181
69503SOL    HW210349   4.870  13.934   5.079
69504SOL     OW10350   1.012   4.165   8.838
69504SOL    HW110351   1.024   4.250   8.795
69504SOL    HW210352   0.968   4.185   8.920
69505SOL     OW10353   0.308   3.619   2.917
69505SOL    HW110354   0.292   3.558   2.989
69505SOL    HW210355   0.352   3.693   2.957
69506SOL     OW10356  14.470   6.112   5.519
69506SOL    HW110357  14.383   6.129   5.481
69506SOL    HW210358  14.508   6.199   5.531
69507SOL     OW10359   9.814   0.852   2.095
69507SOL    HW110360   9.733   0.901   2.086
69507SOL    HW210361   9.877   0.897   2.039
69508SOL     OW10362   8.455   5.267   8.193
69508SOL    HW110363   8.451   5.206   8.120
69508SOL    HW210364   8.414   5.221   8.266
69509SOL     OW10365   2.421   5.810  13.412
69509SOL    HW110366   2.343   5.789  13.362
69509SOL    HW210367   2.389   5.858  13.489
69510SOL     OW10368   8.653  10.521   0.791
69510SOL    HW110369   8.581  10.535   0.728
69510SOL    HW210370   8.696  10.442   0.759
69511SOL     OW10371   5.910   5.737  13.928
69511SOL    HW110372   6.003   5.761  13.920
69511SOL    HW210373   5.889   5.694  13.845
69512SOL     OW10374  10.759   5.233   3.254
69512SOL    HW110375  10.765   5.167   3.185
69512SOL    HW210376  10.795   5.190   3.331
69513SOL     OW10377   3.880  12.609  13.220
69513SOL    HW110378   3.786  12.625  13.219
69513SOL    HW210379   3.897  12.561  13.139
69514SOL     OW10380   7.454  11.126   4.113
69514SOL    HW110381   7.523  11.189   4.092
69514SOL    HW210382   7.401  11.122   4.033
69515SOL     OW10383  12.056   1.552  10.025
69515SOL    HW110384  12.131   1.568  10.083
69515SOL    HW210385  12.089   1.490   9.960
69516SOL     OW10386   6.704   1.707  12.270
69516SOL    HW110387   6.640   1.677  12.206
69516SOL    HW210388   6.750   1.779  12.227
69517SOL     OW10389   6.032   8.419   8.616
69517SOL    HW110390   5.973   8.491   8.636
69517SOL    HW210391   6.041   8.372   8.699
69518SOL     OW10392   1.279  13.551  11.188
69518SOL    HW110393   1.293  13.466  11.230
69518SOL    HW210394   1.238  13.605  11.256
69519SOL     OW10395  12.503  14.525  11.445
69519SOL    HW110396  12.488  14.568  11.529
69519SOL    HW210397  12.598  14.514  11.440
69520SOL     OW10398  12.310  13.340   5.145
69520SOL    HW110399  12.242  13.315   5.082
69520SOL    HW210400  12.283  13.426   5.177
69521SOL     OW10401   2.715   2.752   2.153
69521SOL    HW110402   2.629   2.793   2.163
69521SOL    HW210403   2.774   2.810   2.200
69522SOL     OW10404   0.501   4.152  13.674
69522SOL    HW110405   0.575   4.197  13.634
69522SOL    HW210406   0.424   4.186  13.628
69523SOL     OW10407   4.689   9.761   6.292
69523SOL    HW110408   4.770   9.797   6.258
69523SOL    HW210409   4.620   9.803   6.240
69524SOL     OW10410   3.127   4.169   9.395
69524SOL    HW110411   3.152   4.235   9.330
69524SOL    HW210412   3.054   4.122   9.355
69525SOL     OW10413   9.347   3.506  13.452
69525SOL    HW110414   9.259   3.492  13.416
69525SOL    HW210415   9.398   3.432  13.420
69526SOL     OW10416   3.768   1.332   5.913
69526SOL    HW110417   3.862   1.342   5.899
69526SOL    HW210418   3.759   1.305   6.004
69527SOL     OW10419  12.910  13.895   8.817
69527SOL    HW110420  12.860  13.869   8.893
69527SOL    HW210421  12.970  13.822   8.802
69528SOL     OW10422   7.862  10.416   6.153
69528SOL    HW110423   7.824  10.368   6.227
69528SOL    HW210424   7.855  10.356   6.079
69529SOL     OW10425   8.034   4.645   9.828
69529SOL    HW110426   8.073   4.616   9.746
69529SOL    HW210427   7.982   4.570   9.858
69530SOL     OW10428   6.310   1.289   0.635
69530SOL    HW110429   6.298   1.382   0.650
69530SOL    HW210430   6.221   1.255   0.620
69531SOL     OW10431  13.276   8.740   9.876
69531SOL    HW110432  13.331   8.674   9.919
69531SOL    HW210433  13.274   8.714   9.784
69532SOL     OW10434  10.803   2.090   0.998
69532SOL    HW110435  10.864   2.096   1.071
69532SOL    HW210436  10.804   2.177   0.959
69533SOL     OW10437   4.190  10.887  14.382
69533SOL    HW110438   4.279  10.882  14.348
69533SOL    HW210439   4.162  10.795  14.388
69534SOL     OW10440  11.172   3.071  10.824
69534SOL    HW110441  11.090   3.093  10.869
69534SOL    HW210442  11.239   3.083  10.891
69535SOL     OW10443  10.848   2.170   7.349
69535SOL    HW110444  10.865   2.212   7.434
69535SOL    HW210445  10.935   2.157   7.311
69536SOL     OW10446  12.713   0.035  11.100
69536SOL    HW110447  12.743  14.820  11.099
69536SOL    HW210448  12.619   0.029  11.083
69537SOL     OW10449   4.280   6.587  11.860
69537SOL    HW110450   4.356   6.614  11.809
69537SOL    HW210451   4.205   6.623  11.813
69538SOL     OW10452   0.756   6.268   3.773
69538SOL    HW110453   0.767   6.295   3.865
69538SOL    HW210454   0.662   6.276   3.757
69539SOL     OW10455   1.329   5.869   9.649
69539SOL    HW110456   1.328   5.821   9.566
69539SOL    HW210457   1.384   5.945   9.631
69540SOL     OW10458  10.876   3.178   8.232
69540SOL    HW110459  10.781   3.183   8.238
69540SOL    HW210460  10.893   3.129   8.151
69541SOL     OW10461   8.734   6.706   4.954
69541SOL    HW110462   8.681   6.706   5.034
69541SOL    HW210463   8.820   6.737   4.983
69542SOL     OW10464   5.907  10.268  10.932
69542SOL    HW110465   5.923  10.322  10.854
69542SOL    HW210466   5.812  10.267  10.942
69543SOL     OW10467  13.742   9.586   8.173
69543SOL    HW110468  13.759   9.493   8.161
69543SOL    HW210469  13.777   9.606   8.260
69544SOL     OW10470   1.072   0.496   9.314
69544SOL    HW110471   1.029   0.474   9.231
69544SOL    HW210472   1.122   0.418   9.336
69545SOL     OW10473  11.182  13.007   4.176
69545SOL    HW110474  11.101  13.031   4.133
69545SOL    HW210475  11.241  12.983   4.104
69546SOL     OW10476   1.959  12.935   5.716
69546SOL    HW110477   2.019  12.870   5.680
69546SOL    HW210478   1.984  13.017   5.673
69547SOL     OW10479   9.829   0.280  13.469
69547SOL    HW110480   9.809   0.332  13.547
69547SOL    HW210481   9.743   0.263  13.430
69548SOL     OW10482  14.268   4.930  13.424
69548SOL    HW110483  14.358   4.898  13.418
69548SOL    HW210484  14.250   4.934  13.518
69549SOL     OW10485   1.927  11.817  12.473
69549SOL    HW110486   1.870  11.747  12.440
69549SOL    HW210487   2.016  11.787  12.453
69550SOL     OW10488   2.683   9.117  10.875
69550SOL    HW110489   2.677   9.201  10.829
69550SOL    HW210490   2.733   9.061  10.816
69551SOL     OW10491  13.473   6.279  14.430
69551SOL    HW110492  13.380   6.294  14.448
69551SOL    HW210493  13.491   6.195  14.470
69552SOL     OW10494  14.657   3.526   2.894
69552SOL    HW110495  14.733   3.497   2.843
69552SOL    HW210496  14.627   3.605   2.850
69553SOL     OW10497  10.895   2.930   7.365
69553SOL    HW110498  10.811   2.974   7.371
69553SOL    HW210499  10.942   2.976   7.296
69554SOL     OW10500  11.373   0.462   4.912
69554SOL    HW110501  11.360   0.485   5.004
69554SOL    HW210502  11.430   0.385   4.915
69555SOL     OW10503   2.739   2.615  13.557
69555SOL    HW110504   2.747   2.625  13.462
69555SOL    HW210505   2.795   2.540  13.578
69556SOL     OW10506   7.908   1.388   5.653
69556SOL    HW110507   7.951   1.385   5.739
69556SOL    HW210508   7.948   1.463   5.609
69557SOL     OW10509   8.805   1.930   1.658
69557SOL    HW110510   8.877   1.905   1.715
69557SOL    HW210511   8.747   1.854   1.656
69558SOL     OW10512   3.802  13.028  14.462
69558SOL    HW110513   3.841  12.945  14.433
69558SOL    HW210514   3.708  13.014  14.457
69559SOL     OW10515   2.930   2.703   6.631
69559SOL    HW110516   2.883   2.673   6.553
69559SOL    HW210517   2.898   2.792   6.645
69560SOL     OW10518   1.575   9.722  11.782
69560SOL    HW110519   1.517   9.669  11.838
69560SOL    HW210520   1.647   9.663  11.760
69561SOL     OW10521  13.966   0.590   8.735
69561SOL    HW110522  14.059   0.580   8.713
69561SOL    HW210523  13.964   0.667   8.792
69562SOL     OW10524   2.412  11.266   2.114
69562SOL    HW110525   2.444  11.304   2.195
69562SOL    HW210526   2.482  11.208   2.085
69563SOL     OW10527   9.605  12.520  10.377
69563SOL    HW110528   9.625  12.574  10.454
69563SOL    HW210529   9.545  12.574  10.325
69564SOL     OW10530   9.571  13.399   6.145
69564SOL    HW110531   9.526  13.347   6.211
69564SOL    HW210532   9.652  13.427   6.188
69565SOL     OW10533   2.339  14.793   4.101
69565SOL    HW110534   2.383  14.743   4.032
69565SOL    HW210535   2.258  14.824   4.061
69566SOL     OW10536  12.640   2.076   0.450
69566SOL    HW110537  12.555   2.089   0.492
69566SOL    HW210538  12.629   2.111   0.361
69567SOL     OW10539  13.774   8.880  13.154
69567SOL    HW110540  13.865   8.876  13.125
69567SOL    HW210541  13.738   8.794  13.134
69568SOL     OW10542  12.163   0.911   1.179
69568SOL    HW110543  12.203   0.967   1.245
69568SOL    HW210544  12.124   0.839   1.229
69569SOL     OW10545   7.039  12.370   9.487
69569SOL    HW110546   7.025  12.401   9.397
69569SOL    HW210547   6.953  12.375   9.528
69570SOL     OW10548   0.218  11.414   7.030
69570SOL    HW110549   0.180  11.375   6.951
69570SOL    HW210550   0.268  11.490   6.997
69571SOL     OW10551  14.090   3.595  14.822
69571SOL    HW110552  14.131   3.672  14.784
69571SOL    HW210553  14.156   3.526  14.815
69572SOL     OW10554   6.030  12.983  11.144
69572SOL    HW110555   5.957  12.931  11.111
69572SOL    HW210556   6.049  12.948  11.231
69573SOL     OW10557  14.163   5.642   0.920
69573SOL    HW110558  14.078   5.677   0.894
69573SOL    HW210559  14.200   5.606   0.839
69574SOL     OW10560   7.621  14.727   5.823
69574SOL    HW110561   7.706  14.754   5.790
69574SOL    HW210562   7.629  14.633   5.836
69575SOL     OW10563  14.049   3.974   8.173
69575SOL    HW110564  14.121   3.912   8.180
69575SOL    HW210565  14.026   3.973   8.080
69576SOL     OW10566   1.419   9.806   8.675
69576SOL    HW110567   1.452   9.866   8.609
69576SOL    HW210568   1.474   9.728   8.667
69577SOL     OW10569   6.385   2.900   3.362
69577SOL    HW110570   6.473   2.891   3.397
69577SOL    HW210571   6.330   2.919   3.438
69578SOL     OW10572  13.622  11.088   9.084
69578SOL    HW110573  13.705  11.064   9.125
69578SOL    HW210574  13.584  11.004   9.058
69579SOL     OW10575  13.844  11.893  10.829
69579SOL    HW110576  13.890  11.892  10.913
69579SOL    HW210577  13.754  11.915  10.851
69580SOL     OW10578   5.694  12.725  14.360
69580SOL    HW110579   5.624  12.667  14.391
69580SOL    HW210580   5.756  12.668  14.316
69581SOL     OW10581   1.280  14.357   7.343
69581SOL    HW110582   1.370  14.336   7.321
69581SOL    HW210583   1.279  14.452   7.356
69582SOL     OW10584  12.350  12.509  12.653
69582SOL    HW110585  12.374  12.525  12.562
69582SOL    HW210586  12.271  12.455  12.648
69583SOL     OW10587   4.559   5.486  10.083
69583SOL    HW110588   4.465   5.489  10.065
69583SOL    HW210589   4.589   5.575  10.061
69584SOL     OW10590   6.040   7.927   9.565
69584SOL    HW110591   6.070   8.016   9.578
69584SOL    HW210592   6.120   7.875   9.562
69585SOL     OW10593   2.594   4.063   3.873
69585SOL    HW110594   2.618   3.972   3.858
69585SOL    HW210595   2.508   4.073   3.832
69586SOL     OW10596   9.832   2.190   5.299
69586SOL    HW110597   9.850   2.098   5.276
69586SOL    HW210598   9.834   2.192   5.395
69587SOL     OW10599   9.049  11.273   6.368
69587SOL    HW110600   9.007  11.342   6.317
69587SOL    HW210601   8.988  11.200   6.365
69588SOL     OW10602   9.010  10.049   8.248
69588SOL    HW110603   9.054  10.130   8.275
69588SOL    HW210604   8.924  10.078   8.219
69589SOL     OW10605  14.199  12.788   6.998
69589SOL    HW110606  14.194  12.699   7.034
69589SOL    HW210607  14.126  12.793   6.937
69590SOL     OW10608   9.834   5.311  14.575
69590SOL    HW110609   9.811   5.388  14.628
69590SOL    HW210610   9.783   5.240  14.613
69591SOL     OW10611   0.957   4.028  13.055
69591SOL    HW110612   0.903   4.062  12.984
69591SOL    HW210613   1.027   3.979  13.011
69592SOL     OW10614   8.886   4.728   0.367
69592SOL    HW110615   8.839   4.702   0.288
69592SOL    HW210616   8.835   4.802   0.401
69593SOL     OW10617  12.612  14.119  13.755
69593SOL    HW110618  12.670  14.195  13.755
69593SOL    HW210619  12.531  14.150  13.717
69594SOL     OW10620  12.209   6.731   0.170
69594SOL    HW110621  12.263   6.689   0.103
69594SOL    HW210622  12.123   6.690   0.159
69595SOL     OW10623   6.181  12.299  13.989
69595SOL    HW110624   6.183  12.273  14.081
69595SOL    HW210625   6.178  12.216  13.941
69596SOL     OW10626   1.771  10.187  12.786
69596SOL    HW110627   1.764  10.096  12.814
69596SOL    HW210628   1.686  10.208  12.748
69597SOL     OW10629   8.830  11.919  14.587
69597SOL    HW110630   8.745  11.886  14.559
69597SOL    HW210631   8.858  11.858  14.656
69598SOL     OW10632   8.208   6.275  14.043
69598SOL    HW110633   8.176   6.201  13.991
69598SOL    HW210634   8.300   6.254  14.061
69599SOL     OW10635   9.126  13.748   7.593
69599SOL    HW110636   9.150  13.662   7.559
69599SOL    HW210637   9.197  13.770   7.654
69600SOL     OW10638   8.420   1.060   4.656
69600SOL    HW110639   8.411   1.030   4.566
69600SOL    HW210640   8.480   0.998   4.697
69601SOL     OW10641   9.114   6.226   1.776
69601SOL    HW110642   9.131   6.318   1.799
69601SOL    HW210643   9.036   6.203   1.825
69602SOL     OW10644   6.039   9.190   6.606
69602SOL    HW110645   6.092   9.151   6.536
69602SOL    HW210646   6.101   9.203   6.678
69603SOL     OW10647  14.648   4.606   4.964
69603SOL    HW110648  14.624   4.683   5.015
69603SOL    HW210649  14.695   4.550   5.026
69604SOL     OW10650   7.453   5.444   0.097
69604SOL    HW110651   7.519   5.511   0.110
69604SOL    HW210652   7.382   5.487   0.049
69605SOL     OW10653   3.620  12.726   7.242
69605SOL    HW110654   3.709  12.731   7.206
69605SOL    HW210655   3.628  12.671   7.320
69606SOL     OW10656   9.014   6.965  14.332
69606SOL    HW110657   9.000   7.051  14.292
69606SOL    HW210658   9.001   6.979  14.426
69607SOL     OW10659   6.613  11.531   9.450
69607SOL    HW110660   6.553  11.604   9.431
69607SOL    HW210661   6.681  11.538   9.384
69608SOL     OW10662   0.519   7.512   5.376
69608SOL    HW110663   0.441   7.459   5.362
69608SOL    HW210664   0.583   7.478   5.314
69609SOL     OW10665   5.574   2.998   9.404
69609SOL    HW110666   5.484   2.992   9.437
69609SOL    HW210667   5.564   3.021   9.312
69610SOL     OW10668  13.173   6.279   0.561
69610SOL    HW110669  13.175   6.273   0.466
69610SOL    HW210670  13.182   6.189   0.592
69611SOL     OW10671   8.999   4.281   8.866
69611SOL    HW110672   8.933   4.342   8.836
69611SOL    HW210673   8.976   4.198   8.824
69612SOL     OW10674   9.415   0.248  13.981
69612SOL    HW110675   9.380   0.337  13.986
69612SOL    HW210676   9.340   0.192  13.998
69613SOL     OW10677   9.686  11.832  11.587
69613SOL    HW110678   9.669  11.756  11.642
69613SOL    HW210679   9.718  11.899  11.647
69614SOL     OW10680   2.150  12.362   8.305
69614SOL    HW110681   2.082  12.308   8.346
69614SOL    HW210682   2.200  12.398   8.378
69615SOL     OW10683   8.203   5.585   5.629
69615SOL    HW110684   8.141   5.549   5.565
69615SOL    HW210685   8.162   5.667   5.658
69616SOL     OW10686  13.588   4.728  12.310
69616SOL    HW110687  13.610   4.754  12.221
69616SOL    HW210688  13.671   4.728  12.357
69617SOL     OW10689   9.611   8.044   4.049
69617SOL    HW110690   9.539   8.074   3.994
69617SOL    HW210691   9.584   7.957   4.079
69618SOL     OW10692   8.431  12.449   9.582
69618SOL    HW110693   8.495  12.478   9.648
69618SOL    HW210694   8.484  12.399   9.519
69619SOL     OW10695  11.509  11.675   7.195
69619SOL    HW110696  11.581  11.717   7.243
69619SOL    HW210697  11.454  11.747   7.165
69620SOL     OW10698   9.543   7.682   4.935
69620SOL    HW110699   9.543   7.649   5.025
69620SOL    HW210700   9.631   7.665   4.904
69621SOL     OW10701   4.574   8.463   9.836
69621SOL    HW110702   4.630   8.423   9.902
69621SOL    HW210703   4.509   8.514   9.886
69622SOL     OW10704  11.552   7.317   4.990
69622SOL    HW110705  11.582   7.354   5.073
69622SOL    HW210706  11.494   7.383   4.953
69623SOL     OW10707   7.555   4.533  13.855
69623SOL    HW110708   7.542   4.465  13.790
69623SOL    HW210709   7.488   4.516  13.921
69624SOL     OW10710  13.293  12.029  10.207
69624SOL    HW110711  13.217  12.023  10.264
69624SOL    HW210712  13.300  12.122  10.185
69625SOL     OW10713  13.116  14.636  12.505
69625SOL    HW110714  13.069  14.662  12.584
69625SOL    HW210715  13.201  14.679  12.513
69626SOL     OW10716   7.631   1.299   2.346
69626SOL    HW110717   7.632   1.252   2.429
69626SOL    HW210718   7.717   1.342   2.342
69627SOL     OW10719   7.429   7.092   7.423
69627SOL    HW110720   7.405   7.182   7.401
69627SOL    HW210721   7.374   7.070   7.499
69628SOL     OW10722   2.059  10.504   2.040
69628SOL    HW110723   2.089  10.504   1.949
69628SOL    HW210724   2.077  10.415   2.070
69629SOL     OW10725  11.380  12.553   9.399
69629SOL    HW110726  11.318  12.593   9.460
69629SOL    HW210727  11.446  12.621   9.385
69630SOL     OW10728   6.531   9.524   8.966
69630SOL    HW110729   6.470   9.464   8.923
69630SOL    HW210730   6.498   9.611   8.945
69631SOL     OW10731  14.392  12.482   0.463
69631SOL    HW110732  14.298  12.496   0.471
69631SOL    HW210733  14.400  12.391   0.433
69632SOL     OW10734   0.848  12.603  12.931
69632SOL    HW110735   0.769  12.611  12.985
69632SOL    HW210736   0.815  12.579  12.844
69633SOL     OW10737  11.887   5.235   7.203
69633SOL    HW110738  11.802   5.192   7.214
69633SOL    HW210739  11.889   5.260   7.110
69634SOL     OW10740   1.466   2.745  12.439
69634SOL    HW110741   1.442   2.820  12.493
69634SOL    HW210742   1.467   2.671  12.499
69635SOL     OW10743   6.430   6.112   1.388
69635SOL    HW110744   6.448   6.119   1.481
69635SOL    HW210745   6.416   6.019   1.373
69636SOL     OW10746   2.603   2.125  10.960
69636SOL    HW110747   2.665   2.190  10.991
69636SOL    HW210748   2.652   2.072  10.898
69637SOL     OW10749   7.324   8.097  14.574
69637SOL    HW110750   7.403   8.044  14.562
69637SOL    HW210751   7.354   8.176  14.618
69638SOL     OW10752  10.862  10.285   0.638
69638SOL    HW110753  10.928  10.225   0.674
69638SOL    HW210754  10.827  10.330   0.714
69639SOL     OW10755  14.369  14.368   8.300
69639SOL    HW110756  14.463  14.376   8.282
69639SOL    HW210757  14.361  14.391   8.393
69640SOL     OW10758   8.475   1.230   8.559
69640SOL    HW110759   8.484   1.202   8.468
69640SOL    HW210760   8.394   1.280   8.561
69641SOL     OW10761  14.539   3.299   1.911
69641SOL    HW110762  14.547   3.380   1.962
69641SOL    HW210763  14.563   3.230   1.973
69642SOL     OW10764   8.261  11.364   6.433
69642SOL    HW110765   8.353  11.352   6.411
69642SOL    HW210766   8.258  11.447   6.480
69643SOL     OW10767   8.154   6.480  11.987
69643SOL    HW110768   8.184   6.565  11.954
69643SOL    HW210769   8.133   6.430  11.907
69644SOL     OW10770   3.893   7.199  10.583
69644SOL    HW110771   3.984   7.193  10.610
69644SOL    HW210772   3.888   7.281  10.533
69645SOL     OW10773   3.959   8.072   1.805
69645SOL    HW110774   3.996   7.991   1.841
69645SOL    HW210775   3.915   8.045   1.724
69646SOL     OW10776   1.095   5.504   3.444
69646SOL    HW110777   1.060   5.421   3.413
69646SOL    HW210778   1.108   5.491   3.538
69647SOL     OW10779   4.334   2.468   3.060
69647SOL    HW110780   4.325   2.406   3.131
69647SOL    HW210781   4.247   2.472   3.020
69648SOL     OW10782  10.104   5.641   5.322
69648SOL    HW110783  10.142   5.568   5.372
69648SOL    HW210784  10.180   5.687   5.287
69649SOL     OW10785   7.516   2.243   4.234
69649SOL    HW110786   7.481   2.262   4.147
69649SOL    HW210787   7.455   2.178   4.271
69650SOL     OW10788   7.871   7.315   3.866
69650SOL    HW110789   7.807   7.315   3.795
69650SOL    HW210790   7.956   7.315   3.821
69651SOL     OW10791  12.950   9.253  14.349
69651SOL    HW110792  12.879   9.225  14.406
69651SOL    HW210793  12.928   9.343  14.325
69652SOL     OW10794  10.206   2.655   7.544
69652SOL    HW110795  10.225   2.672   7.636
69652SOL    HW210796  10.114   2.626   7.544
69653SOL     OW10797   7.980   8.502   3.625
69653SOL    HW110798   8.010   8.558   3.553
69653SOL    HW210799   7.988   8.413   3.591
69654SOL     OW10800  10.335   8.915  14.822
69654SOL    HW110801  10.401   8.848  14.841
69654SOL    HW210802  10.284   8.878  14.750
69655SOL     OW10803  12.984   0.879  14.832
69655SOL    HW110804  12.996   0.870   0.051
69655SOL    HW210805  12.964   0.790  14.802
69656SOL     OW10806   8.367   5.553   6.766
69656SOL    HW110807   8.296   5.568   6.703
69656SOL    HW210808   8.330   5.492   6.830
69657SOL     OW10809   9.827   6.105  12.473
69657SOL    HW110810   9.835   6.011  12.488
69657SOL    HW210811   9.916   6.135  12.456
69658SOL     OW10812   2.816  14.464   4.210
69658SOL    HW110813   2.874  14.497   4.142
69658SOL    HW210814   2.728  14.489   4.180
69659SOL     OW10815   5.313  10.351   3.014
69659SOL    HW110816   5.394  10.334   3.063
69659SOL    HW210817   5.317  10.291   2.940
69660SOL     OW10818   4.399   6.915  10.726
69660SOL    HW110819   4.408   6.919  10.821
69660SOL    HW210820   4.397   6.821  10.706
69661SOL     OW10821   7.459   0.768  12.489
69661SOL    HW110822   7.425   0.678  12.488
69661SOL    HW210823   7.517   0.772  12.413
69662SOL     OW10824   1.902  11.385   7.056
69662SOL    HW110825   1.902  11.289   7.062
69662SOL    HW210826   1.813  11.410   7.080
69663SOL     OW10827   7.684  10.930   0.023
69663SOL    HW110828   7.595  10.903  14.873
69663SOL    HW210829   7.723  10.964  14.819
69664SOL     OW10830   1.813   5.882   9.033
69664SOL    HW110831   1.865   5.942   9.086
69664SOL    HW210832   1.748   5.937   8.990
69665SOL     OW10833  10.574   8.983   5.366
69665SOL    HW110834  10.586   8.917   5.297
69665SOL    HW210835  10.536   8.934   5.439
69666SOL     OW10836   0.785   9.436   7.422
69666SOL    HW110837   0.809   9.474   7.338
69666SOL    HW210838   0.716   9.373   7.401
69667SOL     OW10839   5.855  12.992   3.545
69667SOL    HW110840   5.828  12.910   3.585
69667SOL    HW210841   5.951  12.989   3.547
69668SOL     OW10842  13.378   4.522   8.835
69668SOL    HW110843  13.364   4.548   8.926
69668SOL    HW210844  13.299   4.551   8.789
69669SOL     OW10845  11.694   2.707   3.370
69669SOL    HW110846  11.654   2.643   3.428
69669SOL    HW210847  11.699   2.662   3.285
69670SOL     OW10848   7.777   0.538  13.681
69670SOL    HW110849   7.740   0.450  13.683
69670SOL    HW210850   7.807   0.550  13.591
69671SOL     OW10851   6.386   5.000   5.517
69671SOL    HW110852   6.453   4.963   5.574
69671SOL    HW210853   6.427   5.000   5.430
69672SOL     OW10854   4.374   2.096   6.921
69672SOL    HW110855   4.399   2.181   6.886
69672SOL    HW210856   4.311   2.061   6.858
69673SOL     OW10857  14.162   2.115   5.249
69673SOL    HW110858  14.145   2.208   5.233
69673SOL    HW210859  14.137   2.102   5.341
69674SOL     OW10860   2.189  13.259   5.395
69674SOL    HW110861   2.128  13.244   5.322
69674SOL    HW210862   2.275  13.244   5.357
69675SOL     OW10863   8.645   0.812   3.088
69675SOL    HW110864   8.620   0.899   3.057
69675SOL    HW210865   8.569   0.783   3.139
69676SOL     OW10866   5.607   7.931  14.293
69676SOL    HW110867   5.566   7.846  14.309
69676SOL    HW210868   5.680   7.911  14.234
69677SOL     OW10869   7.963   9.331  12.516
69677SOL    HW110870   7.957   9.295  12.428
69677SOL    HW210871   8.015   9.411  12.506
69678SOL     OW10872   7.920  12.138   3.752
69678SOL    HW110873   7.974  12.090   3.815
69678SOL    HW210874   7.864  12.193   3.806
69679SOL     OW10875   1.171  11.145   7.291
69679SOL    HW110876   1.104  11.203   7.256
69679SOL    HW210877   1.123  11.075   7.334
69680SOL     OW10878   6.054   1.230  11.016
69680SOL    HW110879   6.011   1.295  11.072
69680SOL    HW210880   6.033   1.146  11.057
69681SOL     OW10881   0.289   8.290  13.118
69681SOL    HW110882   0.357   8.353  13.141
69681SOL    HW210883   0.247   8.327  13.040
69682SOL     OW10884  14.456   9.253   3.033
69682SOL    HW110885  14.416   9.270   3.118
69682SOL    HW210886  14.550   9.259   3.048
69683SOL     OW10887   8.904   8.286   2.363
69683SOL    HW110888   8.888   8.317   2.274
69683SOL    HW210889   8.860   8.201   2.368
69684SOL     OW10890  12.308   2.243   1.124
69684SOL    HW110891  12.333   2.334   1.110
69684SOL    HW210892  12.212   2.243   1.122
69685SOL     OW10893   0.842   4.704   0.444
69685SOL    HW110894   0.748   4.721   0.452
69685SOL    HW210895   0.849   4.608   0.445
69686SOL     OW10896   8.006  11.351   8.011
69686SOL    HW110897   8.008  11.279   7.948
69686SOL    HW210898   7.946  11.321   8.079
69687SOL     OW10899  12.032   4.259   5.042
69687SOL    HW110900  12.068   4.343   5.072
69687SOL    HW210901  12.022   4.207   5.121
69688SOL     OW10902  10.510   2.017  14.287
69688SOL    HW110903  10.444   2.070  14.243
69688SOL    HW210904  10.460   1.961  14.346
69689SOL     OW10905  13.061   7.076   6.827
69689SOL    HW110906  13.067   7.024   6.746
69689SOL    HW210907  13.145   7.062   6.871
69690SOL     OW10908   7.865  14.162   2.214
69690SOL    HW110909   7.802  14.091   2.206
69690SOL    HW210910   7.827  14.234   2.163
69691SOL     OW10911  11.449   6.956   8.163
69691SOL    HW110912  11.452   6.940   8.257
69691SOL    HW210913  11.453   7.051   8.155
69692SOL     OW10914   3.309   3.396   7.202
69692SOL    HW110915   3.343   3.340   7.132
69692SOL    HW210916   3.277   3.335   7.268
69693SOL     OW10917  12.915  11.829  10.635
69693SOL    HW110918  12.842  11.824  10.696
69693SOL    HW210919  12.909  11.748  10.583
69694SOL     OW10920   9.095  11.380  10.144
69694SOL    HW110921   9.048  11.298  10.130
69694SOL    HW210922   9.185  11.361  10.116
69695SOL     OW10923   1.731   0.890   3.317
69695SOL    HW110924   1.682   0.814   3.284
69695SOL    HW210925   1.745   0.944   3.239
69696SOL     OW10926   2.609  12.174  13.994
69696SOL    HW110927   2.569  12.260  13.982
69696SOL    HW210928   2.584  12.148  14.083
69697SOL     OW10929  10.027   7.012   4.764
69697SOL    HW110930  10.093   6.943   4.759
69697SOL    HW210931   9.996   7.022   4.674
69698SOL     OW10932   7.801   2.822   9.650
69698SOL    HW110933   7.783   2.914   9.668
69698SOL    HW210934   7.851   2.792   9.726
69699SOL     OW10935   0.186  13.117  11.637
69699SOL    HW110936   0.228  13.070  11.709
69699SOL    HW210937   0.256  13.171  11.600
69700SOL     OW10938   9.030  11.191   1.902
69700SOL    HW110939   9.125  11.186   1.912
69700SOL    HW210940   9.007  11.113   1.852
69701SOL     OW10941   7.189   3.350   5.835
69701SOL    HW110942   7.221   3.340   5.925
69701SOL    HW210943   7.126   3.422   5.839
69702SOL     OW10944  14.593   3.390   6.549
69702SOL    HW110945  14.546   3.454   6.495
69702SOL    HW210946  14.674   3.434   6.572
69703SOL     OW10947   1.233   1.081   5.845
69703SOL    HW110948   1.162   1.131   5.803
69703SOL    HW210949   1.313   1.128   5.820
69704SOL     OW10950  14.615  11.267   5.233
69704SOL    HW110951  14.679  11.316   5.285
69704SOL    HW210952  14.646  11.177   5.236
69705SOL     OW10953   1.824   7.473  10.627
69705SOL    HW110954   1.855   7.420  10.554
69705SOL    HW210955   1.903   7.515  10.662
69706SOL     OW10956   6.965   8.080   5.791
69706SOL    HW110957   6.907   8.140   5.838
69706SOL    HW210958   6.926   8.072   5.704
69707SOL     OW10959   6.494   1.713   2.770
69707SOL    HW110960   6.419   1.668   2.809
69707SOL    HW210961   6.548   1.737   2.844
69708SOL     OW10962   7.509  12.168  13.157
69708SOL    HW110963   7.447  12.175  13.229
69708SOL    HW210964   7.578  12.111  13.190
69709SOL     OW10965   9.761  11.603   1.825
69709SOL    HW110966   9.724  11.671   1.770
69709SOL    HW210967   9.727  11.622   1.913
69710SOL     OW10968   6.399   9.264  10.607
69710SOL    HW110969   6.458   9.255  10.682
69710SOL    HW210970   6.313   9.275  10.647
69711SOL     OW10971   5.044   3.973   8.506
69711SOL    HW110972   5.097   3.911   8.456
69711SOL    HW210973   4.965   3.985   8.453
69712SOL     OW10974   3.950  11.504   9.237
69712SOL    HW110975   3.905  11.515   9.153
69712SOL    HW210976   4.004  11.582   9.245
69713SOL     OW10977   5.756   8.364   5.595
69713SOL    HW110978   5.734   8.336   5.684
69713SOL    HW210979   5.820   8.435   5.608
69714SOL     OW10980   5.804   5.602  13.555
69714SOL    HW110981   5.882   5.652  13.532
69714SOL    HW210982   5.739   5.627  13.490
69715SOL     OW10983   1.096  12.127   0.169
69715SOL    HW110984   1.015  12.162   0.130
69715SOL    HW210985   1.090  12.032   0.155
69716SOL     OW10986   3.057   3.738   4.119
69716SOL    HW110987   3.073   3.776   4.033
69716SOL    HW210988   3.145   3.718   4.152
69717SOL     OW10989   3.130  10.329   7.610
69717SOL    HW110990   3.052  10.283   7.579
69717SOL    HW210991   3.175  10.359   7.531
69718SOL     OW10992   6.277  13.837   3.036
69718SOL    HW110993   6.321  13.911   3.078
69718SOL    HW210994   6.184  13.858   3.042
69719SOL     OW10995   4.496   2.221   5.372
69719SOL    HW110996   4.587   2.231   5.402
69719SOL    HW210997   4.481   2.296   5.315
69720SOL     OW10998  13.031   8.456   8.175
69720SOL    HW110999  13.123   8.463   8.151
69720SOL    HW211000  13.003   8.373   8.138
69721SOL     OW11001   5.832   9.968   8.427
69721SOL    HW111002   5.896  10.039   8.418
69721SOL    HW211003   5.816   9.939   8.337
69722SOL     OW11004   3.456   5.110  11.291
69722SOL    HW111005   3.474   5.063  11.210
69722SOL    HW211006   3.361   5.124  11.290
69723SOL     OW11007   6.418   9.434  12.345
69723SOL    HW111008   6.514   9.441  12.338
69723SOL    HW211009   6.387   9.430  12.255
69724SOL     OW11010   6.236   9.990   2.997
69724SOL    HW111011   6.162   9.987   3.058
69724SOL    HW211012   6.257   9.898   2.980
69725SOL     OW11013   5.097  14.012   6.242
69725SOL    HW111014   5.061  14.076   6.181
69725SOL    HW211015   5.148  13.953   6.187
69726SOL     OW11016  14.659   7.625   3.885
69726SOL    HW111017  14.682   7.709   3.925
69726SOL    HW211018  14.610   7.579   3.953
69727SOL     OW11019  13.057   5.684   8.385
69727SOL    HW111020  13.140   5.654   8.347
69727SOL    HW211021  12.992   5.666   8.317
69728SOL     OW11022  13.757   5.967  10.095
69728SOL    HW111023  13.778   5.890  10.042
69728SOL    HW211024  13.793   5.947  10.181
69729SOL     OW11025   8.419  13.848   7.296
69729SOL    HW111026   8.361  13.840   7.221
69729SOL    HW211027   8.504  13.872   7.259
69730SOL     OW11028   3.160   8.342   1.926
69730SOL    HW111029   3.232   8.319   1.984
69730SOL    HW211030   3.172   8.436   1.909
69731SOL     OW11031  14.049   1.386   2.663
69731SOL    HW111032  14.105   1.463   2.661
69731SOL    HW211033  13.961   1.419   2.644
69732SOL     OW11034   4.838   5.169   3.633
69732SOL    HW111035   4.840   5.259   3.667
69732SOL    HW211036   4.774   5.124   3.687
69733SOL     OW11037   7.215   8.241   3.300
69733SOL    HW111038   7.289   8.298   3.282
69733SOL    HW211039   7.212   8.180   3.226
69734SOL     OW11040   1.293  11.625   6.411
69734SOL    HW111041   1.358  11.694   6.397
69734SOL    HW211042   1.208  11.670   6.402
69735SOL     OW11043  13.691   3.380   0.436
69735SOL    HW111044  13.758   3.421   0.490
69735SOL    HW211045  13.728   3.294   0.413
69736SOL     OW11046   0.208  10.598   9.442
69736SOL    HW111047   0.114  10.612   9.453
69736SOL    HW211048   0.215  10.514   9.396
69737SOL     OW11049  14.426  13.461   1.809
69737SOL    HW111050  14.518  13.489   1.803
69737SOL    HW211051  14.377  13.533   1.770
69738SOL     OW11052   5.765   1.672  14.176
69738SOL    HW111053   5.724   1.757  14.195
69738SOL    HW211054   5.713   1.609  14.225
69739SOL     OW11055   0.225   7.608   0.017
69739SOL    HW111056   0.135   7.611   0.049
69739SOL    HW211057   0.272   7.669   0.073
69740SOL     OW11058   6.591   1.782  10.232
69740SOL    HW111059   6.681   1.776  10.200
69740SOL    HW211060   6.596   1.755  10.324
69741SOL     OW11061  11.712   4.426   0.995
69741SOL    HW111062  11.696   4.455   1.085
69741SOL    HW211063  11.750   4.502   0.951
69742SOL     OW11064  12.491  14.843  12.819
69742SOL    HW111065  12.444  14.852  12.902
69742SOL    HW211066  12.500   0.057  12.787
69743SOL     OW11067   1.908   8.668   6.264
69743SOL    HW111068   1.929   8.665   6.358
69743SOL    HW211069   1.854   8.591   6.249
69744SOL     OW11070   2.774   4.863   6.244
69744SOL    HW111071   2.751   4.898   6.158
69744SOL    HW211072   2.806   4.938   6.294
69745SOL     OW11073   5.042   7.336  11.589
69745SOL    HW111074   5.070   7.292  11.509
69745SOL    HW211075   4.952   7.305  11.603
69746SOL     OW11076   9.022  12.120  10.094
69746SOL    HW111077   8.928  12.107  10.080
69746SOL    HW211078   9.028  12.208  10.131
69747SOL     OW11079  13.054   1.812   5.436
69747SOL    HW111080  13.066   1.742   5.501
69747SOL    HW211081  13.079   1.772   5.353
69748SOL     OW11082   1.772  12.765   0.012
69748SOL    HW111083   1.860  12.747   0.046
69748SOL    HW211084   1.786  12.828  14.818
69749SOL     OW11085  12.282   3.031   3.794
69749SOL    HW111086  12.192   3.007   3.774
69749SOL    HW211087  12.310   3.083   3.717
69750SOL     OW11088  12.970   2.000  11.698
69750SOL    HW111089  12.886   2.045  11.686
69750SOL    HW211090  13.007   2.040  11.777
69751SOL     OW11091   2.580  13.429   7.328
69751SOL    HW111092   2.513  13.387   7.274
69751SOL    HW211093   2.559  13.402   7.418
69752SOL     OW11094   4.678  13.447  10.049
69752SOL    HW111095   4.710  13.407   9.968
69752SOL    HW211096   4.593  13.485  10.026
69753SOL     OW11097   5.914   0.241  14.761
69753SOL    HW111098   5.956   0.188  14.694
69753SOL    HW211099   5.972   0.316  14.773
69754SOL     OW11100  10.157   4.492  11.004
69754SOL    HW111101  10.065   4.518  11.007
69754SOL    HW211102  10.157   4.399  11.024
69755SOL     OW11103   1.540   0.892   6.587
69755SOL    HW111104   1.629   0.890   6.552
69755SOL    HW211105   1.511   0.801   6.583
69756SOL     OW11106   8.151  11.189   0.040
69756SOL    HW111107   8.101  11.113   0.009
69756SOL    HW211108   8.179  11.165   0.129
69757SOL     OW11109   6.369  14.199  10.697
69757SOL    HW111110   6.291  14.150  10.723
69757SOL    HW211111   6.441  14.138  10.712
69758SOL     OW11112  10.322   5.144   3.950
69758SOL    HW111113  10.273   5.080   3.900
69758SOL    HW211114  10.286   5.229   3.924
69759SOL     OW11115   6.127  12.746  11.790
69759SOL    HW111116   6.061  12.712  11.850
69759SOL    HW211117   6.166  12.820  11.837
69760SOL     OW11118   8.518   9.050   0.603
69760SOL    HW111119   8.473   9.001   0.672
69760SOL    HW211120   8.448   9.094   0.555
69761SOL     OW11121   7.363   6.533   2.640
69761SOL    HW111122   7.408   6.543   2.724
69761SOL    HW211123   7.276   6.501   2.664
69762SOL     OW11124  12.183  10.995   8.261
69762SOL    HW111125  12.228  11.077   8.280
69762SOL    HW211126  12.090  11.013   8.279
69763SOL     OW11127  12.429   8.966  12.218
69763SOL    HW111128  12.510   8.918  12.199
69763SOL    HW211129  12.382   8.967  12.135
69764SOL     OW11130   7.770  10.211   1.659
69764SOL    HW111131   7.732  10.249   1.738
69764SOL    HW211132   7.696  10.204   1.598
69765SOL     OW11133   8.522   6.221  11.289
69765SOL    HW111134   8.451   6.284  11.301
69765SOL    HW211135   8.514   6.161  11.363
69766SOL     OW11136  11.741   2.634  14.360
69766SOL    HW111137  11.745   2.682  14.277
69766SOL    HW211138  11.687   2.688  14.416
69767SOL     OW11139  13.527   0.236  14.091
69767SOL    HW111140  13.455   0.178  14.068
69767SOL    HW211141  13.562   0.201  14.173
69768SOL     OW11142   3.345   6.455   7.998
69768SOL    HW111143   3.366   6.548   8.003
69768SOL    HW211144   3.349   6.434   7.905
69769SOL     OW11145   9.884   3.881   9.201
69769SOL    HW111146   9.866   3.787   9.208
69769SOL    HW211147   9.828   3.912   9.130
69770SOL     OW11148   0.792   1.350  13.867
69770SOL    HW111149   0.887   1.362  13.864
69770SOL    HW211150   0.761   1.376  13.780
69771SOL     OW11151   9.189   9.945   5.469
69771SOL    HW111152   9.185   9.960   5.564
69771SOL    HW211153   9.271   9.987   5.442
69772SOL     OW11154   6.012   8.445   6.797
69772SOL    HW111155   6.054   8.488   6.722
69772SOL    HW211156   5.990   8.517   6.856
69773SOL     OW11157   2.746   5.275   3.919
69773SOL    HW111158   2.826   5.297   3.968
69773SOL    HW211159   2.752   5.330   3.840
69774SOL     OW11160   8.879  13.989   0.207
69774SOL    HW111161   8.864  13.922   0.139
69774SOL    HW211162   8.972  14.008   0.201
69775SOL     OW11163   9.115   3.506  12.851
69775SOL    HW111164   9.157   3.554  12.780
69775SOL    HW211165   9.033   3.473  12.813
69776SOL     OW11166   6.013   5.297  10.003
69776SOL    HW111167   5.954   5.266   9.934
69776SOL    HW211168   5.968   5.275  10.084
69777SOL     OW11169  10.070   9.592   1.179
69777SOL    HW111170   9.981   9.615   1.205
69777SOL    HW211171  10.108   9.675   1.149
69778SOL     OW11172   0.498  14.248   8.390
69778SOL    HW111173   0.504  14.293   8.306
69778SOL    HW211174   0.438  14.303   8.442
69779SOL     OW11175   4.521  11.523  11.569
69779SOL    HW111176   4.463  11.593  11.599
69779SOL    HW211177   4.576  11.504  11.645
69780SOL     OW11178  12.458   6.548  13.753
69780SOL    HW111179  12.365   6.529  13.767
69780SOL    HW211180  12.463   6.580  13.663
69781SOL     OW11181  10.870   2.671   2.517
69781SOL    HW111182  10.794   2.722   2.544
69781SOL    HW211183  10.839   2.581   2.513
69782SOL     OW11184   3.089   8.850  11.717
69782SOL    HW111185   3.171   8.864  11.670
69782SOL    HW211186   3.041   8.933  11.706
69783SOL     OW11187  11.517   3.504   5.177
69783SOL    HW111188  11.551   3.484   5.264
69783SOL    HW211189  11.584   3.471   5.117
69784SOL     OW11190   3.819   0.242   8.604
69784SOL    HW111191   3.858   0.280   8.683
69784SOL    HW211192   3.779   0.316   8.559
69785SOL     OW11193   1.960   9.923   7.260
69785SOL    HW111194   1.949   9.964   7.174
69785SOL    HW211195   1.932   9.832   7.246
69786SOL     OW11196  10.571   7.726  11.390
69786SOL    HW111197  10.600   7.684  11.309
69786SOL    HW211198  10.610   7.814  11.387
69787SOL     OW11199   5.298  10.875  13.480
69787SOL    HW111200   5.272  10.951  13.533
69787SOL    HW211201   5.377  10.843  13.522
69788SOL     OW11202   2.016  13.161   3.961
69788SOL    HW111203   1.960  13.117   4.025
69788SOL    HW211204   2.103  13.161   4.002
69789SOL     OW11205   7.622  10.808  13.301
69789SOL    HW111206   7.649  10.758  13.224
69789SOL    HW211207   7.703  10.819  13.352
69790SOL     OW11208  14.053   4.965  11.829
69790SOL    HW111209  14.028   4.892  11.773
69790SOL    HW211210  14.142   4.988  11.800
69791SOL     OW11211  11.023  13.795   8.182
69791SOL    HW111212  10.944  13.759   8.142
69791SOL    HW211213  11.018  13.889   8.167
69792SOL     OW11214  12.996   0.916  14.554
69792SOL    HW111215  13.033   0.924  14.642
69792SOL    HW211216  12.902   0.928  14.567
69793SOL     OW11217  13.892  11.495   7.140
69793SOL    HW111218  13.841  11.557   7.088
69793SOL    HW211219  13.983  11.511   7.113
69794SOL     OW11220  10.614   7.086  12.638
69794SOL    HW111221  10.525   7.080  12.673
69794SOL    HW211222  10.607   7.145  12.563
69795SOL     OW11223  12.777  14.421  11.684
69795SOL    HW111224  12.858  14.470  11.690
69795SOL    HW211225  12.722  14.456  11.753
69796SOL     OW11226   4.498   0.552  10.048
69796SOL    HW111227   4.450   0.470  10.063
69796SOL    HW211228   4.541   0.540   9.963
69797SOL     OW11229   9.597   9.476   6.704
69797SOL    HW111230   9.537   9.416   6.749
69797SOL    HW211231   9.541   9.525   6.643
69798SOL     OW11232   3.027  14.417   2.383
69798SOL    HW111233   3.080  14.338   2.394
69798SOL    HW211234   2.937  14.385   2.376
69799SOL     OW11235   0.988   2.038   5.177
69799SOL    HW111236   1.059   2.060   5.237
69799SOL    HW211237   1.019   2.066   5.091
69800SOL     OW11238   8.221   8.579  11.196
69800SOL    HW111239   8.205   8.563  11.289
69800SOL    HW211240   8.170   8.658  11.176
69801SOL     OW11241   0.402  13.057   5.760
69801SOL    HW111242   0.340  13.009   5.815
69801SOL    HW211243   0.488  13.022   5.783
69802SOL     OW11244   6.966   2.350   6.357
69802SOL    HW111245   6.921   2.269   6.334
69802SOL    HW211246   6.937   2.368   6.446
69803SOL     OW11247   2.239  11.065   9.721
69803SOL    HW111248   2.201  11.151   9.706
69803SOL    HW211249   2.258  11.031   9.633
69804SOL     OW11250  12.177  12.588   4.791
69804SOL    HW111251  12.251  12.647   4.806
69804SOL    HW211252  12.209  12.527   4.724
69805SOL     OW11253  12.030   0.540   8.629
69805SOL    HW111254  12.119   0.510   8.644
69805SOL    HW211255  12.016   0.609   8.694
69806SOL     OW11256   5.215  14.439   3.929
69806SOL    HW111257   5.294  14.419   3.879
69806SOL    HW211258   5.150  14.376   3.897
69807SOL     OW11259  14.792  11.455  10.049
69807SOL    HW111260  14.806  11.455  10.144
69807SOL    HW211261  14.753  11.540  10.030
69808SOL     OW11262  13.001   5.498  11.642
69808SOL    HW111263  13.084   5.466  11.605
69808SOL    HW211264  12.987   5.582  11.600
69809SOL     OW11265   0.200   4.790   6.379
69809SOL    HW111266   0.270   4.804   6.442
69809SOL    HW211267   0.245   4.756   6.301
69810SOL     OW11268   6.356  12.329   2.238
69810SOL    HW111269   6.360  12.377   2.321
69810SOL    HW211270   6.290  12.261   2.253
69811SOL     OW11271   5.566   9.088   2.628
69811SOL    HW111272   5.601   9.176   2.640
69811SOL    HW211273   5.639   9.037   2.595
69812SOL     OW11274  13.637  10.679  10.107
69812SOL    HW111275  13.612  10.770  10.123
69812SOL    HW211276  13.724  10.685  10.068
69813SOL     OW11277   4.810   7.998   3.929
69813SOL    HW111278   4.729   8.046   3.912
69813SOL    HW211279   4.782   7.925   3.985
69814SOL     OW11280  11.643  11.481  10.888
69814SOL    HW111281  11.582  11.409  10.900
69814SOL    HW211282  11.671  11.504  10.976
69815SOL     OW11283   9.144   6.183   9.471
69815SOL    HW111284   9.142   6.254   9.534
69815SOL    HW211285   9.065   6.195   9.418
69816SOL     OW11286  10.044   2.677   9.965
69816SOL    HW111287  10.120   2.623   9.985
69816SOL    HW211288  10.007   2.638   9.885
69817SOL     OW11289   5.204   1.524   4.523
69817SOL    HW111290   5.284   1.573   4.543
69817SOL    HW211291   5.236   1.438   4.495
69818SOL     OW11292   0.005   2.130   0.689
69818SOL    HW111293  14.792   2.113   0.660
69818SOL    HW211294   0.027   2.215   0.650
69819SOL     OW11295   4.682  13.810   1.752
69819SOL    HW111296   4.675  13.768   1.838
69819SOL    HW211297   4.598  13.793   1.710
69820SOL     OW11298  14.448   6.410   4.829
69820SOL    HW111299  14.433   6.409   4.734
69820SOL    HW211300  14.504   6.334   4.845
69821SOL     OW11301   1.398  11.280   1.619
69821SOL    HW111302   1.479  11.322   1.648
69821SOL    HW211303   1.427  11.213   1.557
69822SOL     OW11304   2.543   6.484   6.670
69822SOL    HW111305   2.472   6.478   6.734
69822SOL    HW211306   2.514   6.550   6.608
69823SOL     OW11307   1.290   9.593  14.726
69823SOL    HW111308   1.297   9.535  14.802
69823SOL    HW211309   1.360   9.657  14.738
69824SOL     OW11310   8.776   6.167  12.869
69824SOL    HW111311   8.702   6.110  12.890
69824SOL    HW211312   8.768   6.181  12.774
69825SOL     OW11313   5.925  12.087  14.554
69825SOL    HW111314   5.964  12.019  14.500
69825SOL    HW211315   5.958  12.070  14.642
69826SOL     OW11316   5.855  12.443   1.741
69826SOL    HW111317   5.856  12.377   1.672
69826SOL    HW211318   5.940  12.485   1.736
69827SOL     OW11319   8.501   0.513   5.922
69827SOL    HW111320   8.490   0.436   5.978
69827SOL    HW211321   8.435   0.502   5.853
69828SOL     OW11322  12.797   6.023  14.041
69828SOL    HW111323  12.823   5.935  14.067
69828SOL    HW211324  12.864   6.080  14.077
69829SOL     OW11325   0.473  13.236   1.047
69829SOL    HW111326   0.505  13.245   0.957
69829SOL    HW211327   0.385  13.200   1.038
69830SOL     OW11328  12.182  12.712   6.690
69830SOL    HW111329  12.146  12.711   6.779
69830SOL    HW211330  12.198  12.805   6.673
69831SOL     OW11331   0.321   6.467   1.608
69831SOL    HW111332   0.304   6.373   1.605
69831SOL    HW211333   0.326   6.488   1.701
69832SOL     OW11334  11.009   6.344  12.704
69832SOL    HW111335  11.019   6.327  12.798
69832SOL    HW211336  11.018   6.439  12.696
69833SOL     OW11337   3.389   9.230  11.749
69833SOL    HW111338   3.422   9.200  11.665
69833SOL    HW211339   3.410   9.323  11.751
69834SOL     OW11340   1.332   7.158   6.197
69834SOL    HW111341   1.344   7.079   6.250
69834SOL    HW211342   1.280   7.129   6.122
69835SOL     OW11343   9.405   0.822   9.609
69835SOL    HW111344   9.412   0.778   9.525
69835SOL    HW211345   9.390   0.914   9.587
69836SOL     OW11346   8.711   9.459   0.607
69836SOL    HW111347   8.695   9.437   0.699
69836SOL    HW211348   8.801   9.430   0.590
69837SOL     OW11349   1.450   2.203   8.010
69837SOL    HW111350   1.519   2.209   7.944
69837SOL    HW211351   1.464   2.119   8.052
69838SOL     OW11352   9.187   9.895  12.755
69838SOL    HW111353   9.121   9.928  12.817
69838SOL    HW211354   9.173   9.800  12.753
69839SOL     OW11355   7.807   2.183   3.977
69839SOL    HW111356   7.770   2.271   3.986
69839SOL    HW211357   7.838   2.161   4.065
69840SOL     OW11358   8.539   9.841   7.837
69840SOL    HW111359   8.475   9.857   7.768
69840SOL    HW211360   8.553   9.747   7.835
69841SOL     OW11361   3.464  11.960   8.696
69841SOL    HW111362   3.545  11.953   8.644
69841SOL    HW211363   3.439  12.051   8.689
69842SOL     OW11364   7.344  11.784   9.320
69842SOL    HW111365   7.414  11.721   9.304
69842SOL    HW211366   7.379  11.867   9.287
69843SOL     OW11367   7.634   7.654   1.662
69843SOL    HW111368   7.572   7.715   1.702
69843SOL    HW211369   7.608   7.568   1.696
69844SOL     OW11370   6.694  13.596   7.067
69844SOL    HW111371   6.602  13.615   7.088
69844SOL    HW211372   6.743  13.629   7.142
69845SOL     OW11373  13.090   5.535  10.350
69845SOL    HW111374  13.040   5.461  10.384
69845SOL    HW211375  13.175   5.528  10.394
69846SOL     OW11376   6.918   2.060  11.009
69846SOL    HW111377   7.001   2.100  10.982
69846SOL    HW211378   6.857   2.083  10.939
69847SOL     OW11379  14.150   3.564  11.287
69847SOL    HW111380  14.231   3.575  11.337
69847SOL    HW211381  14.174   3.507  11.214
69848SOL     OW11382   8.565   9.207   1.296
69848SOL    HW111383   8.513   9.144   1.345
69848SOL    HW211384   8.649   9.164   1.283
69849SOL     OW11385   3.643   2.640   1.855
69849SOL    HW111386   3.659   2.548   1.875
69849SOL    HW211387   3.561   2.660   1.901
69850SOL     OW11388   2.072  12.664  12.763
69850SOL    HW111389   2.159  12.663  12.802
69850SOL    HW211390   2.026  12.591  12.805
69851SOL     OW11391   7.396  13.574  11.116
69851SOL    HW111392   7.472  13.555  11.172
69851SOL    HW211393   7.430  13.563  11.027
69852SOL     OW11394   0.416   8.079   7.506
69852SOL    HW111395   0.434   8.023   7.581
69852SOL    HW211396   0.347   8.138   7.536
69853SOL     OW11397  11.475  14.718   9.758
69853SOL    HW111398  11.536  14.645   9.765
69853SOL    HW211399  11.455  14.724   9.664
69854SOL     OW11400   2.825   5.647   7.728
69854SOL    HW111401   2.781   5.578   7.678
69854SOL    HW211402   2.828   5.722   7.668
69855SOL     OW11403  12.197   4.241   9.834
69855SOL    HW111404  12.158   4.210   9.916
69855SOL    HW211405  12.292   4.233   9.848
69856SOL     OW11406  13.742   4.959   4.644
69856SOL    HW111407  13.807   4.947   4.574
69856SOL    HW211408  13.775   4.905   4.716
69857SOL     OW11409   5.528  12.567  14.499
69857SOL    HW111410   5.582  12.488  14.496
69857SOL    HW211411   5.524  12.589  14.593
69858SOL     OW11412   8.464   3.995  13.442
69858SOL    HW111413   8.445   3.912  13.486
69858SOL    HW211414   8.514   4.045  13.507
69859SOL     OW11415  14.638  13.337  14.755
69859SOL    HW111416  14.634  13.241  14.755
69859SOL    HW211417  14.648  13.360  14.848
69860SOL     OW11418   2.537   8.695   0.140
69860SOL    HW111419   2.472   8.637   0.102
69860SOL    HW211420   2.486   8.768   0.177
69861SOL     OW11421   9.957  11.886   9.797
69861SOL    HW111422  10.006  11.850   9.722
69861SOL    HW211423  10.007  11.963   9.823
69862SOL     OW11424   4.523  13.274  11.111
69862SOL    HW111425   4.492  13.364  11.112
69862SOL    HW211426   4.494  13.239  11.196
69863SOL     OW11427   7.648   9.279  10.623
69863SOL    HW111428   7.595   9.220  10.570
69863SOL    HW211429   7.583   9.326  10.677
69864SOL     OW11430   6.827   0.072   9.859
69864SOL    HW111431   6.831   0.150   9.914
69864SOL    HW211432   6.740   0.076   9.818
69865SOL     OW11433  11.919  14.048  13.951
69865SOL    HW111434  11.890  14.089  14.033
69865SOL    HW211435  11.983  13.983  13.979
69866SOL     OW11436   6.618  14.149   7.884
69866SOL    HW111437   6.581  14.179   7.801
69866SOL    HW211438   6.710  14.132   7.864
69867SOL     OW11439   5.947  13.643  11.991
69867SOL    HW111440   5.897  13.641  11.909
69867SOL    HW211441   5.980  13.732  11.997
69868SOL     OW11442   0.776   2.007  13.084
69868SOL    HW111443   0.870   2.012  13.064
69868SOL    HW211444   0.769   1.932  13.143
69869SOL     OW11445   9.200  11.739  13.376
69869SOL    HW111446   9.130  11.793  13.340
69869SOL    HW211447   9.227  11.784  13.455
69870SOL     OW11448  12.578   4.757   1.108
69870SOL    HW111449  12.664   4.780   1.072
69870SOL    HW211450  12.530   4.720   1.035
69871SOL     OW11451   6.014   1.361   2.846
69871SOL    HW111452   6.045   1.331   2.931
69871SOL    HW211453   5.943   1.421   2.865
69872SOL     OW11454   1.016   1.330   1.408
69872SOL    HW111455   0.946   1.343   1.472
69872SOL    HW211456   0.970   1.320   1.324
69873SOL     OW11457  11.622   7.865   1.005
69873SOL    HW111458  11.642   7.878   1.098
69873SOL    HW211459  11.663   7.781   0.984
69874SOL     OW11460   7.591  10.907   3.448
69874SOL    HW111461   7.555  10.819   3.448
69874SOL    HW211462   7.683  10.896   3.472
69875SOL     OW11463   4.414   2.426   2.514
69875SOL    HW111464   4.400   2.384   2.598
69875SOL    HW211465   4.411   2.519   2.532
69876SOL     OW11466  12.686   2.747   7.434
69876SOL    HW111467  12.667   2.674   7.493
69876SOL    HW211468  12.781   2.759   7.440
69877SOL     OW11469   6.071  13.249   0.968
69877SOL    HW111470   6.164  13.264   0.952
69877SOL    HW211471   6.037  13.334   0.996
69878SOL     OW11472  11.887   8.064   4.918
69878SOL    HW111473  11.950   8.054   4.847
69878SOL    HW211474  11.887   7.979   4.963
69879SOL     OW11475   7.932   9.025   6.102
69879SOL    HW111476   7.971   9.036   6.016
69879SOL    HW211477   7.899   8.935   6.103
69880SOL     OW11478  10.240   4.906   2.730
69880SOL    HW111479  10.149   4.893   2.706
69880SOL    HW211480  10.271   4.976   2.673
69881SOL     OW11481   6.592   3.060  13.043
69881SOL    HW111482   6.520   3.090  12.987
69881SOL    HW211483   6.589   2.965  13.035
69882SOL     OW11484   2.452   3.656   0.969
69882SOL    HW111485   2.497   3.683   0.889
69882SOL    HW211486   2.400   3.732   0.994
69883SOL     OW11487   0.496   0.036   7.466
69883SOL    HW111488   0.533  14.844   7.521
69883SOL    HW211489   0.420  14.871   7.424
69884SOL     OW11490  11.805   1.190   7.818
69884SOL    HW111491  11.787   1.259   7.755
69884SOL    HW211492  11.837   1.236   7.896
69885SOL     OW11493   2.528   5.711   4.910
69885SOL    HW111494   2.589   5.753   4.971
69885SOL    HW211495   2.465   5.779   4.888
69886SOL     OW11496  13.193  11.280  10.636
69886SOL    HW111497  13.161  11.202  10.591
69886SOL    HW211498  13.242  11.245  10.710
69887SOL     OW11499  11.994   4.272  13.532
69887SOL    HW111500  12.008   4.306  13.444
69887SOL    HW211501  12.079   4.280  13.575
69888SOL     OW11502  12.503  11.097   3.965
69888SOL    HW111503  12.474  11.013   4.001
69888SOL    HW211504  12.489  11.089   3.870
69889SOL     OW11505   7.496   0.014   3.623
69889SOL    HW111506   7.411   0.021   3.666
69889SOL    HW211507   7.501  14.800   3.593
69890SOL     OW11508  11.422   8.682  13.515
69890SOL    HW111509  11.378   8.620  13.573
69890SOL    HW211510  11.364   8.758  13.513
69891SOL     OW11511   3.008   4.697   2.028
69891SOL    HW111512   3.011   4.688   1.933
69891SOL    HW211513   2.941   4.635   2.056
69892SOL     OW11514  11.815   7.290   6.212
69892SOL    HW111515  11.784   7.332   6.132
69892SOL    HW211516  11.826   7.198   6.188
69893SOL     OW11517   3.764   8.424  13.432
69893SOL    HW111518   3.782   8.516  13.414
69893SOL    HW211519   3.847   8.380  13.420
69894SOL     OW11520   4.358  14.480   7.571
69894SOL    HW111521   4.388  14.435   7.650
69894SOL    HW211522   4.407  14.439   7.500
69895SOL     OW11523  13.349  13.818   6.643
69895SOL    HW111524  13.347  13.796   6.550
69895SOL    HW211525  13.265  13.860   6.660
69896SOL     OW11526   0.431   4.519   8.955
69896SOL    HW111527   0.463   4.610   8.957
69896SOL    HW211528   0.426   4.494   9.047
69897SOL     OW11529  14.337   1.194   2.416
69897SOL    HW111530  14.331   1.212   2.510
69897SOL    HW211531  14.382   1.270   2.381
69898SOL     OW11532   3.284   5.761   8.912
69898SOL    HW111533   3.254   5.841   8.957
69898SOL    HW211534   3.373   5.749   8.942
69899SOL     OW11535  11.959   5.391   1.052
69899SOL    HW111536  11.911   5.360   1.129
69899SOL    HW211537  11.977   5.483   1.071
69900SOL     OW11538   5.011  11.235   4.262
69900SOL    HW111539   5.037  11.270   4.176
69900SOL    HW211540   4.922  11.204   4.249
69901SOL     OW11541  13.285   3.021  13.017
69901SOL    HW111542  13.212   3.008  13.077
69901SOL    HW211543  13.283   2.945  12.959
69902SOL     OW11544   6.533   0.094   4.198
69902SOL    HW111545   6.472   0.116   4.127
69902SOL    HW211546   6.515   0.002   4.217
69903SOL     OW11547   2.016   8.646  10.236
69903SOL    HW111548   2.065   8.624  10.316
69903SOL    HW211549   1.938   8.590  10.239
69904SOL     OW11550   8.966   8.167   3.825
69904SOL    HW111551   8.960   8.114   3.746
69904SOL    HW211552   9.040   8.129   3.873
69905SOL     OW11553   7.856   6.917   8.026
69905SOL    HW111554   7.863   6.825   8.000
69905SOL    HW211555   7.787   6.918   8.092
69906SOL     OW11556   8.380  11.169   2.324
69906SOL    HW111557   8.397  11.108   2.396
69906SOL    HW211558   8.333  11.117   2.259
69907SOL     OW11559   7.620   8.942   6.272
69907SOL    HW111560   7.629   8.951   6.177
69907SOL    HW211561   7.623   9.032   6.304
69908SOL     OW11562  13.086   8.186   3.765
69908SOL    HW111563  13.012   8.229   3.809
69908SOL    HW211564  13.094   8.102   3.810
69909SOL     OW11565  12.114  12.486   6.382
69909SOL    HW111566  12.095  12.409   6.330
69909SOL    HW211567  12.167  12.454   6.455
69910SOL     OW11568   0.347  10.311   5.101
69910SOL    HW111569   0.425  10.349   5.060
69910SOL    HW211570   0.377  10.228   5.137
69911SOL     OW11571   6.324   7.568   3.358
69911SOL    HW111572   6.230   7.575   3.373
69911SOL    HW211573   6.347   7.483   3.396
69912SOL     OW11574   1.405   0.443  12.684
69912SOL    HW111575   1.331   0.428  12.626
69912SOL    HW211576   1.370   0.425  12.772
69913SOL     OW11577   5.608  14.779  12.291
69913SOL    HW111578   5.698  14.809  12.302
69913SOL    HW211579   5.608  14.689  12.324
69914SOL     OW11580  14.147  14.118  10.701
69914SOL    HW111581  14.230  14.136  10.745
69914SOL    HW211582  14.114  14.038  10.743
69915SOL     OW11583   5.989   0.813  10.706
69915SOL    HW111584   5.911   0.811  10.761
69915SOL    HW211585   6.016   0.905  10.707
69916SOL     OW11586  12.273  13.153  14.657
69916SOL    HW111587  12.352  13.104  14.636
69916SOL    HW211588  12.303  13.243  14.669
69917SOL     OW11589  11.653   8.257  12.588
69917SOL    HW111590  11.641   8.323  12.520
69917SOL    HW211591  11.644   8.306  12.670
69918SOL     OW11592   4.339  12.557   3.059
69918SOL    HW111593   4.375  12.470   3.042
69918SOL    HW211594   4.265  12.541   3.117
69919SOL     OW11595  14.138   7.279   7.036
69919SOL    HW111596  14.162   7.326   6.956
69919SOL    HW211597  14.156   7.342   7.106
69920SOL     OW11598  13.765  13.248  13.976
69920SOL    HW111599  13.794  13.177  13.919
69920SOL    HW211600  13.676  13.267  13.948
69921SOL     OW11601   8.089  13.987   5.500
69921SOL    HW111602   8.144  14.031   5.564
69921SOL    HW211603   8.022  14.052   5.477
69922SOL     OW11604   7.623   3.600   1.088
69922SOL    HW111605   7.689   3.654   1.132
69922SOL    HW211606   7.556   3.584   1.155
69923SOL     OW11607   3.627  10.024   1.601
69923SOL    HW111608   3.624   9.953   1.664
69923SOL    HW211609   3.540  10.026   1.563
69924SOL     OW11610   3.618   3.886   8.630
69924SOL    HW111611   3.554   3.946   8.668
69924SOL    HW211612   3.656   3.841   8.705
69925SOL     OW11613   2.411  14.717   1.207
69925SOL    HW111614   2.388  14.765   1.286
69925SOL    HW211615   2.423  14.627   1.236
69926SOL     OW11616   0.339   0.346  13.485
69926SOL    HW111617   0.283   0.418  13.514
69926SOL    HW211618   0.279   0.277  13.457
69927SOL     OW11619  11.909   1.732   0.299
69927SOL    HW111620  11.991   1.779   0.288
69927SOL    HW211621  11.856   1.789   0.355
69928SOL     OW11622   7.784   7.324   9.887
69928SOL    HW111623   7.710   7.268   9.865
69928SOL    HW211624   7.776   7.338   9.982
69929SOL     OW11625   6.543   5.656   5.815
69929SOL    HW111626   6.453   5.683   5.830
69929SOL    HW211627   6.574   5.714   5.745
69930SOL     OW11628   1.129  12.165   1.656
69930SOL    HW111629   1.210  12.202   1.693
69930SOL    HW211630   1.064  12.234   1.666
69931SOL     OW11631   5.847   0.552   0.819
69931SOL    HW111632   5.842   0.487   0.889
69931SOL    HW211633   5.852   0.501   0.739
69932SOL     OW11634  10.801  10.049   0.523
69932SOL    HW111635  10.820  10.134   0.563
69932SOL    HW211636  10.835   9.985   0.585
69933SOL     OW11637   2.395   0.816   9.495
69933SOL    HW111638   2.353   0.866   9.565
69933SOL    HW211639   2.353   0.730   9.498
69934SOL     OW11640   1.869  10.254   4.716
69934SOL    HW111641   1.910  10.299   4.790
69934SOL    HW211642   1.775  10.273   4.726
69935SOL     OW11643   2.672   6.383  10.665
69935SOL    HW111644   2.598   6.386  10.605
69935SOL    HW211645   2.736   6.443  10.627
69936SOL     OW11646  14.079   5.813   9.301
69936SOL    HW111647  14.063   5.823   9.395
69936SOL    HW211648  14.013   5.750   9.272
69937SOL     OW11649   8.423  14.328  13.187
69937SOL    HW111650   8.475  14.401  13.153
69937SOL    HW211651   8.487  14.270  13.229
69938SOL     OW11652  12.608   1.012   1.422
69938SOL    HW111653  12.695   0.973   1.435
69938SOL    HW211654  12.568   1.011   1.509
69939SOL     OW11655   4.494   6.594  14.152
69939SOL    HW111656   4.572   6.621  14.201
69939SOL    HW211657   4.470   6.671  14.100
69940SOL     OW11658   5.945   2.228  10.058
69940SOL    HW111659   5.933   2.307  10.112
69940SOL    HW211660   6.040   2.215  10.055
69941SOL     OW11661   9.706   2.114  11.973
69941SOL    HW111662   9.698   2.086  12.064
69941SOL    HW211663   9.616   2.132  11.945
69942SOL     OW11664  13.545  12.456   6.994
69942SOL    HW111665  13.476  12.492   6.938
69942SOL    HW211666  13.600  12.531   7.015
69943SOL     OW11667  10.965   0.272  10.582
69943SOL    HW111668  10.897   0.302  10.522
69943SOL    HW211669  11.002   0.353  10.618
69944SOL     OW11670  13.178   2.770   3.512
69944SOL    HW111671  13.187   2.774   3.607
69944SOL    HW211672  13.137   2.685   3.495
69945SOL     OW11673  12.781   2.609   4.601
69945SOL    HW111674  12.841   2.679   4.623
69945SOL    HW211675  12.825   2.562   4.530
69946SOL     OW11676   2.778  13.437  10.261
69946SOL    HW111677   2.771  13.367  10.327
69946SOL    HW211678   2.774  13.391  10.177
69947SOL     OW11679  11.587   3.785  14.010
69947SOL    HW111680  11.508   3.832  14.035
69947SOL    HW211681  11.570   3.694  14.032
69948SOL     OW11682   4.456  13.490   8.625
69948SOL    HW111683   4.543  13.475   8.588
69948SOL    HW211684   4.415  13.552   8.566
69949SOL     OW11685   7.256  12.949   4.553
69949SOL    HW111686   7.349  12.928   4.561
69949SOL    HW211687   7.212  12.864   4.548
69950SOL     OW11688   8.248   8.899   2.645
69950SOL    HW111689   8.218   8.901   2.554
69950SOL    HW211690   8.216   8.982   2.682
69951SOL     OW11691  11.844  11.755   3.301
69951SOL    HW111692  11.841  11.839   3.347
69951SOL    HW211693  11.754  11.723   3.304
69952SOL     OW11694   3.222   2.384   3.285
69952SOL    HW111695   3.271   2.435   3.221
69952SOL    HW211696   3.275   2.389   3.365
69953SOL     OW11697   7.009  10.622   7.302
69953SOL    HW111698   6.965  10.628   7.217
69953SOL    HW211699   6.943  10.585   7.360
69954SOL     OW11700  11.012  10.192   5.825
69954SOL    HW111701  11.018  10.221   5.916
69954SOL    HW211702  11.097  10.213   5.787
69955SOL     OW11703   4.642  14.108   5.700
69955SOL    HW111704   4.653  14.030   5.646
69955SOL    HW211705   4.720  14.161   5.683
69956SOL     OW11706  10.401   9.815   2.223
69956SOL    HW111707  10.357   9.837   2.140
69956SOL    HW211708  10.465   9.748   2.199
69957SOL     OW11709  12.243  14.395  13.867
69957SOL    HW111710  12.332  14.428  13.854
69957SOL    HW211711  12.234  14.388  13.962
69958SOL     OW11712   8.459   8.600   4.753
69958SOL    HW111713   8.504   8.679   4.724
69958SOL    HW211714   8.491   8.531   4.695
69959SOL     OW11715   7.996  13.228  12.641
69959SOL    HW111716   8.062  13.162  12.622
69959SOL    HW211717   7.983  13.273  12.557
69960SOL     OW11718   0.164  10.668   3.628
69960SOL    HW111719   0.106  10.671   3.705
69960SOL    HW211720   0.247  10.635   3.662
69961SOL     OW11721   7.623  11.449   5.864
69961SOL    HW111722   7.706  11.420   5.902
69961SOL    HW211723   7.645  11.531   5.819
69962SOL     OW11724  10.939   0.725   8.901
69962SOL    HW111725  10.926   0.814   8.933
69962SOL    HW211726  10.891   0.722   8.819
69963SOL     OW11727  10.767   2.461   1.716
69963SOL    HW111728  10.797   2.507   1.793
69963SOL    HW211729  10.751   2.530   1.651
69964SOL     OW11730  10.609   4.147   6.423
69964SOL    HW111731  10.585   4.103   6.504
69964SOL    HW211732  10.575   4.091   6.353
69965SOL     OW11733   5.159   4.154  13.422
69965SOL    HW111734   5.078   4.201  13.404
69965SOL    HW211735   5.190   4.127  13.335
69966SOL     OW11736   4.767  14.005   0.637
69966SOL    HW111737   4.689  14.054   0.663
69966SOL    HW211738   4.801  14.054   0.562
69967SOL     OW11739   7.685   2.009  14.231
69967SOL    HW111740   7.679   2.042  14.142
69967SOL    HW211741   7.596   2.015  14.265
69968SOL     OW11742   5.360   5.867  12.808
69968SOL    HW111743   5.399   5.932  12.749
69968SOL    HW211744   5.357   5.787  12.756
69969SOL     OW11745   2.743   6.960   1.395
69969SOL    HW111746   2.660   7.006   1.379
69969SOL    HW211747   2.716   6.874   1.427
69970SOL     OW11748   8.266  12.628  10.804
69970SOL    HW111749   8.263  12.581  10.887
69970SOL    HW211750   8.175  12.639  10.779
69971SOL     OW11751  12.442  12.049   9.607
69971SOL    HW111752  12.373  12.115   9.609
69971SOL    HW211753  12.489  12.066   9.525
69972SOL     OW11754  10.114   5.038  11.917
69972SOL    HW111755  10.033   4.996  11.947
69972SOL    HW211756  10.175   5.025  11.990
69973SOL     OW11757  13.476   6.006   0.812
69973SOL    HW111758  13.414   5.934   0.814
69973SOL    HW211759  13.439   6.071   0.872
69974SOL     OW11760  12.740   0.410   8.694
69974SOL    HW111761  12.739   0.504   8.678
69974SOL    HW211762  12.711   0.371   8.612
69975SOL     OW11763  13.002   9.655   3.110
69975SOL    HW111764  13.085   9.657   3.156
69975SOL    HW211765  12.958   9.577   3.143
69976SOL     OW11766   7.181   3.423   1.339
69976SOL    HW111767   7.152   3.368   1.411
69976SOL    HW211768   7.245   3.369   1.293
69977SOL     OW11769   2.160   4.208   2.942
69977SOL    HW111770   2.192   4.118   2.947
69977SOL    HW211771   2.180   4.236   2.853
69978SOL     OW11772  14.445  12.620   9.025
69978SOL    HW111773  14.494  12.670   9.091
69978SOL    HW211774  14.421  12.539   9.069
69979SOL     OW11775  10.299  13.348   2.892
69979SOL    HW111776  10.374  13.385   2.847
69979SOL    HW211777  10.303  13.384   2.980
69980SOL     OW11778   7.527   3.925   4.314
69980SOL    HW111779   7.602   3.981   4.293
69980SOL    HW211780   7.474   3.977   4.374
69981SOL     OW11781  14.761   3.430   0.921
69981SOL    HW111782  14.789   3.522   0.917
69981SOL    HW211783  14.699   3.421   0.849
69982SOL     OW11784  14.451   3.206   0.625
69982SOL    HW111785  14.480   3.120   0.655
69982SOL    HW211786  14.448   3.259   0.705
69983SOL     OW11787  13.570   1.560  10.526
69983SOL    HW111788  13.517   1.536  10.450
69983SOL    HW211789  13.613   1.478  10.552
69984SOL     OW11790   5.578   1.159   2.080
69984SOL    HW111791   5.505   1.174   2.020
69984SOL    HW211792   5.537   1.147   2.165
69985SOL     OW11793  13.247   4.846   4.663
69985SOL    HW111794  13.276   4.824   4.751
69985SOL    HW211795  13.169   4.792   4.649
69986SOL     OW11796   8.417  13.087   3.554
69986SOL    HW111797   8.461  13.031   3.490
69986SOL    HW211798   8.477  13.160   3.567
69987SOL     OW11799   2.518   5.508   2.322
69987SOL    HW111800   2.424   5.493   2.333
69987SOL    HW211801   2.560   5.446   2.381
69988SOL     OW11802   3.441   7.466  11.429
69988SOL    HW111803   3.417   7.465  11.337
69988SOL    HW211804   3.534   7.441  11.429
69989SOL     OW11805   3.939   0.662   4.511
69989SOL    HW111806   4.025   0.621   4.506
69989SOL    HW211807   3.896   0.639   4.429
69990SOL     OW11808  13.285   1.633   6.670
69990SOL    HW111809  13.279   1.538   6.661
69990SOL    HW211810  13.208   1.666   6.625
69991SOL     OW11811   5.542   7.061   0.590
69991SOL    HW111812   5.610   7.017   0.642
69991SOL    HW211813   5.566   7.043   0.499
69992SOL     OW11814  12.515   7.579   7.886
69992SOL    HW111815  12.506   7.488   7.856
69992SOL    HW211816  12.596   7.610   7.845
69993SOL     OW11817   6.615  13.659   2.655
69993SOL    HW111818   6.610  13.728   2.721
69993SOL    HW211819   6.678  13.595   2.692
69994SOL     OW11820   6.296   2.439  10.105
69994SOL    HW111821   6.385   2.412  10.130
69994SOL    HW211822   6.249   2.356  10.094
69995SOL     OW11823  11.619  14.609   3.903
69995SOL    HW111824  11.531  14.632   3.932
69995SOL    HW211825  11.667  14.592   3.984
69996SOL     OW11826   0.717  12.689   3.651
69996SOL    HW111827   0.760  12.695   3.566
69996SOL    HW211828   0.634  12.644   3.632
69997SOL     OW11829   3.263  13.981  12.387
69997SOL    HW111830   3.192  13.930  12.348
69997SOL    HW211831   3.327  13.990  12.316
69998SOL     OW11832   7.327   4.630   5.204
69998SOL    HW111833   7.278   4.664   5.279
69998SOL    HW211834   7.272   4.647   5.128
69999SOL     OW11835   1.882   7.254  12.124
69999SOL    HW111836   1.931   7.337  12.121
69999SOL    HW211837   1.814   7.269  12.190
70000SOL     OW11838   2.846   8.265   0.470
70000SOL    HW111839   2.799   8.181   0.469
70000SOL    HW211840   2.822   8.307   0.387
70001SOL     OW11841  10.150   4.571   4.182
70001SOL    HW111842  10.056   4.589   4.189
70001SOL    HW211843  10.189   4.656   4.157
70002SOL     OW11844   2.567  13.373  12.970
70002SOL    HW111845   2.628  13.308  12.936
70002SOL    HW211846   2.571  13.362  13.065
70003SOL     OW11847   0.836  12.852  12.774
70003SOL    HW111848   0.829  12.766  12.816
70003SOL    HW211849   0.866  12.832  12.685
70004SOL     OW11850   4.446   5.370  13.108
70004SOL    HW111851   4.492   5.363  13.191
70004SOL    HW211852   4.490   5.441  13.061
70005SOL     OW11853  13.480   6.367   4.718
70005SOL    HW111854  13.436   6.302   4.772
70005SOL    HW211855  13.412   6.398   4.658
70006SOL     OW11856  12.564   2.632   8.873
70006SOL    HW111857  12.600   2.554   8.914
70006SOL    HW211858  12.628   2.656   8.806
70007SOL     OW11859   1.214   7.175   2.157
70007SOL    HW111860   1.285   7.234   2.183
70007SOL    HW211861   1.148   7.184   2.226
70008SOL     OW11862  11.517  10.080   4.193
70008SOL    HW111863  11.532  10.169   4.226
70008SOL    HW211864  11.437  10.087   4.141
70009SOL     OW11865   9.355   6.563   2.725
70009SOL    HW111866   9.367   6.473   2.754
70009SOL    HW211867   9.420   6.613   2.775
70010SOL     OW11868  13.165  10.159  14.357
70010SOL    HW111869  13.209  10.091  14.407
70010SOL    HW211870  13.074  10.131  14.351
70011SOL     OW11871   3.769   6.287  12.153
70011SOL    HW111872   3.702   6.355  12.147
70011SOL    HW211873   3.777   6.270  12.247
70012SOL     OW11874   4.776  13.789   6.310
70012SOL    HW111875   4.698  13.830   6.345
70012SOL    HW211876   4.849  13.841   6.345
70013SOL     OW11877   2.075   6.941   9.063
70013SOL    HW111878   2.088   6.881   8.990
70013SOL    HW211879   2.066   6.884   9.139
70014SOL     OW11880   7.883  10.885   3.387
70014SOL    HW111881   7.923  10.841   3.312
70014SOL    HW211882   7.955  10.898   3.449
70015SOL     OW11883  13.281   9.287   3.266
70015SOL    HW111884  13.224   9.326   3.332
70015SOL    HW211885  13.316   9.208   3.308
70016SOL     OW11886   7.817   7.076  13.339
70016SOL    HW111887   7.869   7.014  13.390
70016SOL    HW211888   7.822   7.158  13.388
70017SOL     OW11889  10.066   8.993   8.621
70017SOL    HW111890   9.984   9.043   8.622
70017SOL    HW211891  10.053   8.927   8.553
70018SOL     OW11892  13.604   3.881  10.852
70018SOL    HW111893  13.513   3.909  10.859
70018SOL    HW211894  13.622   3.882  10.758
70019SOL     OW11895   3.405   9.996  11.316
70019SOL    HW111896   3.349  10.024  11.389
70019SOL    HW211897   3.346   9.992  11.241
70020SOL     OW11898   4.331   2.921  11.379
70020SOL    HW111899   4.240   2.932  11.349
70020SOL    HW211900   4.378   2.995  11.341
70021SOL     OW11901   4.910  14.115   5.390
70021SOL    HW111902   4.822  14.151   5.391
70021SOL    HW211903   4.965  14.186   5.357
70022SOL     OW11904  10.156   5.273   0.306
70022SOL    HW111905  10.141   5.305   0.217
70022SOL    HW211906  10.071   5.280   0.349
70023SOL     OW11907   6.531  11.867   9.627
70023SOL    HW111908   6.541  11.933   9.696
70023SOL    HW211909   6.620  11.848   9.599
70024SOL     OW11910   2.754   2.115  13.674
70024SOL    HW111911   2.769   2.153  13.760
70024SOL    HW211912   2.699   2.038  13.691
70025SOL     OW11913   2.078  12.856   4.575
70025SOL    HW111914   2.142  12.787   4.555
70025SOL    HW211915   1.994  12.810   4.580
70026SOL     OW11916  12.309   3.497   5.715
70026SOL    HW111917  12.370   3.543   5.772
70026SOL    HW211918  12.243   3.562   5.692
70027SOL     OW11919  11.624   3.354  12.680
70027SOL    HW111920  11.585   3.323  12.599
70027SOL    HW211921  11.631   3.449  12.668
70028SOL     OW11922   1.793   9.982   1.801
70028SOL    HW111923   1.799   9.949   1.890
70028SOL    HW211924   1.699   9.985   1.783
70029SOL     OW11925   3.625  13.820   4.657
70029SOL    HW111926   3.626  13.725   4.659
70029SOL    HW211927   3.633  13.842   4.564
70030SOL     OW11928   4.359   4.588   3.266
70030SOL    HW111929   4.391   4.674   3.295
70030SOL    HW211930   4.317   4.606   3.181
70031SOL     OW11931   5.970   3.267  11.394
70031SOL    HW111932   5.916   3.211  11.339
70031SOL    HW211933   6.058   3.261  11.357
70032SOL     OW11934   3.644   4.114   7.258
70032SOL    HW111935   3.554   4.119   7.225
70032SOL    HW211936   3.699   4.131   7.182
70033SOL     OW11937   5.902  10.438   1.081
70033SOL    HW111938   5.853  10.507   1.125
70033SOL    HW211939   5.992  10.447   1.113
70034SOL     OW11940  10.238  12.920   8.360
70034SOL    HW111941  10.293  12.995   8.336
70034SOL    HW211942  10.240  12.863   8.283
70035SOL     OW11943   7.899  11.144   8.893
70035SOL    HW111944   7.842  11.214   8.924
70035SOL    HW211945   7.986  11.169   8.924
70036SOL     OW11946   3.178   6.972   6.593
70036SOL    HW111947   3.205   6.952   6.683
70036SOL    HW211948   3.110   6.907   6.575
70037SOL     OW11949  13.687   7.775  10.641
70037SOL    HW111950  13.693   7.790  10.546
70037SOL    HW211951  13.652   7.857  10.676
70038SOL     OW11952  13.165   0.026  11.036
70038SOL    HW111953  13.092  14.841  11.049
70038SOL    HW211954  13.244  14.850  11.048
70039SOL     OW11955   4.225  11.649   0.762
70039SOL    HW111956   4.144  11.615   0.799
70039SOL    HW211957   4.202  11.677   0.673
70040SOL     OW11958   6.529   5.244   9.973
70040SOL    HW111959   6.534   5.172   9.910
70040SOL    HW211960   6.436   5.251   9.994
70041SOL     OW11961  14.228   6.916  14.047
70041SOL    HW111962  14.147   6.927  13.998
70041SOL    HW211963  14.280   6.994  14.024
70042SOL     OW11964  10.731   9.882   5.413
70042SOL    HW111965  10.666   9.861   5.480
70042SOL    HW211966  10.803   9.923   5.461
70043SOL     OW11967   7.069   2.191   9.147
70043SOL    HW111968   7.119   2.121   9.188
70043SOL    HW211969   6.990   2.199   9.201
70044SOL     OW11970  12.635   4.126   4.388
70044SOL    HW111971  12.714   4.093   4.430
70044SOL    HW211972  12.584   4.164   4.460
70045SOL     OW11973   8.440   5.039  12.791
70045SOL    HW111974   8.449   5.097  12.866
70045SOL    HW211975   8.380   5.085  12.732
70046SOL     OW11976  12.742   1.877   0.238
70046SOL    HW111977  12.705   1.925   0.312
70046SOL    HW211978  12.671   1.820   0.208
70047SOL     OW11979   3.222   2.515   3.582
70047SOL    HW111980   3.164   2.440   3.597
70047SOL    HW211981   3.285   2.510   3.653
70048SOL     OW11982   5.777  10.634   7.589
70048SOL    HW111983   5.783  10.720   7.548
70048SOL    HW211984   5.788  10.651   7.682
70049SOL     OW11985  13.584   7.776  12.851
70049SOL    HW111986  13.556   7.692  12.888
70049SOL    HW211987  13.587   7.761  12.757
70050SOL     OW11988  11.310   8.970   1.092
70050SOL    HW111989  11.310   9.002   1.183
70050SOL    HW211990  11.229   9.004   1.055
70051SOL     OW11991   0.965   7.332   9.381
70051SOL    HW111992   0.972   7.375   9.466
70051SOL    HW211993   0.898   7.265   9.393
70052SOL     OW11994   1.323   8.580   2.271
70052SOL    HW111995   1.331   8.501   2.325
70052SOL    HW211996   1.393   8.637   2.301
70053SOL     OW11997  12.122   5.459   1.981
70053SOL    HW111998  12.153   5.390   2.039
70053SOL    HW211999  12.094   5.529   2.041
70054SOL     OW12000  11.261   9.756  10.544
70054SOL    HW112001  11.185   9.750  10.601
70054SOL    HW212002  11.227   9.730  10.458
70055SOL     OW12003   1.036   8.796  10.505
70055SOL    HW112004   1.022   8.889  10.484
70055SOL    HW212005   0.958   8.770  10.554
70056SOL     OW12006   1.024   4.153  13.949
70056SOL    HW112007   1.107   4.105  13.943
70056SOL    HW212008   0.965   4.093  13.994
70057SOL     OW12009  11.932   1.291   0.641
70057SOL    HW112010  11.944   1.333   0.727
70057SOL    HW212011  11.974   1.205   0.650
70058SOL     OW12012  11.493   0.815  11.295
70058SOL    HW112013  11.500   0.875  11.221
70058SOL    HW212014  11.402   0.784  11.292
70059SOL     OW12015   5.747  11.681  10.569
70059SOL    HW112016   5.668  11.734  10.578
70059SOL    HW212017   5.714  11.591  10.559
70060SOL     OW12018   8.489   4.312   9.358
70060SOL    HW112019   8.539   4.261   9.421
70060SOL    HW212020   8.543   4.312   9.278
70061SOL     OW12021  11.277   6.959  11.201
70061SOL    HW112022  11.202   6.900  11.210
70061SOL    HW212023  11.277   6.985  11.109
70062SOL     OW12024   6.280   4.172   8.856
70062SOL    HW112025   6.255   4.121   8.778
70062SOL    HW212026   6.373   4.189   8.843
70063SOL     OW12027  12.501  13.271  11.871
70063SOL    HW112028  12.563  13.278  11.943
70063SOL    HW212029  12.555  13.272  11.792
70064SOL     OW12030   6.526  12.591   2.369
70064SOL    HW112031   6.541  12.643   2.448
70064SOL    HW212032   6.551  12.502   2.395
70065SOL     OW12033   7.069   0.006   0.379
70065SOL    HW112034   7.064  14.805   0.436
70065SOL    HW212035   7.045   0.079   0.436
70066SOL     OW12036   3.390   9.090   7.161
70066SOL    HW112037   3.370   9.049   7.077
70066SOL    HW212038   3.312   9.139   7.184
70067SOL     OW12039  10.771   8.429   3.783
70067SOL    HW112040  10.707   8.448   3.851
70067SOL    HW212041  10.811   8.514   3.763
70068SOL     OW12042   3.792   1.448   4.419
70068SOL    HW112043   3.798   1.368   4.367
70068SOL    HW212044   3.699   1.471   4.416
70069SOL     OW12045   4.757  11.721   2.215
70069SOL    HW112046   4.696  11.669   2.163
70069SOL    HW212047   4.701  11.784   2.260
70070SOL     OW12048   6.033   1.223   4.943
70070SOL    HW112049   5.990   1.225   4.857
70070SOL    HW212050   6.073   1.310   4.951
70071SOL     OW12051  10.500   6.347   6.412
70071SOL    HW112052  10.530   6.429   6.452
70071SOL    HW212053  10.580   6.301   6.387
70072SOL     OW12054   5.196   8.845  12.692
70072SOL    HW112055   5.119   8.888  12.656
70072SOL    HW212056   5.164   8.761  12.724
70073SOL     OW12057  14.534  11.759  13.543
70073SOL    HW112058  14.482  11.837  13.560
70073SOL    HW212059  14.599  11.757  13.614
70074SOL     OW12060   6.883   3.127  13.725
70074SOL    HW112061   6.898   3.220  13.737
70074SOL    HW212062   6.834   3.121  13.643
70075SOL     OW12063  11.785  12.977   6.132
70075SOL    HW112064  11.726  13.024   6.192
70075SOL    HW212065  11.791  12.889   6.169
70076SOL     OW12066   4.817   2.627  13.001
70076SOL    HW112067   4.722   2.632  12.986
70076SOL    HW212068   4.855   2.625  12.913
70077SOL     OW12069   3.463   4.730  13.253
70077SOL    HW112070   3.399   4.688  13.311
70077SOL    HW212071   3.540   4.745  13.308
70078SOL     OW12072  10.161   6.641   6.479
70078SOL    HW112073  10.126   6.698   6.411
70078SOL    HW212074  10.087   6.625   6.538
70079SOL     OW12075   7.498  12.228   3.169
70079SOL    HW112076   7.450  12.276   3.236
70079SOL    HW212077   7.557  12.293   3.131
70080SOL     OW12078   8.098  14.185   5.783
70080SOL    HW112079   8.040  14.109   5.790
70080SOL    HW212080   8.152  14.181   5.862
70081SOL     OW12081   5.144  11.561   1.189
70081SOL    HW112082   5.131  11.572   1.095
70081SOL    HW212083   5.133  11.467   1.204
70082SOL     OW12084   7.169   6.314   3.343
70082SOL    HW112085   7.128   6.319   3.429
70082SOL    HW212086   7.149   6.226   3.312
70083SOL     OW12087  12.201  13.294  13.412
70083SOL    HW112088  12.265  13.311  13.343
70083SOL    HW212089  12.137  13.365  13.404
70084SOL     OW12090  10.802   9.101   9.008
70084SOL    HW112091  10.802   9.060   9.094
70084SOL    HW212092  10.734   9.054   8.959
70085SOL     OW12093   6.572   9.644   3.348
70085SOL    HW112094   6.550   9.635   3.441
70085SOL    HW212095   6.626   9.723   3.343
70086SOL     OW12096   8.876   5.863   7.461
70086SOL    HW112097   8.847   5.938   7.409
70086SOL    HW212098   8.798   5.834   7.508
70087SOL     OW12099   4.514  11.982  10.924
70087SOL    HW112100   4.566  12.052  10.963
70087SOL    HW212101   4.455  11.954  10.994
70088SOL     OW12102  13.515  13.380   4.589
70088SOL    HW112103  13.528  13.306   4.648
70088SOL    HW212104  13.539  13.346   4.503
70089SOL     OW12105   8.707   5.655   0.618
70089SOL    HW112106   8.714   5.746   0.587
70089SOL    HW212107   8.718   5.603   0.538
70090SOL     OW12108   1.281  10.485   4.347
70090SOL    HW112109   1.312  10.571   4.375
70090SOL    HW212110   1.186  10.492   4.345
70091SOL     OW12111   7.074   9.097  12.333
70091SOL    HW112112   7.031   9.180  12.354
70091SOL    HW212113   7.093   9.057  12.418
70092SOL     OW12114   0.037   7.186   0.094
70092SOL    HW112115   0.045   7.107   0.148
70092SOL    HW212116   0.071   7.160   0.008
70093SOL     OW12117  10.475  11.961   0.777
70093SOL    HW112118  10.384  11.987   0.787
70093SOL    HW212119  10.524  12.028   0.825
70094SOL     OW12120   2.237   2.474   8.829
70094SOL    HW112121   2.318   2.496   8.784
70094SOL    HW212122   2.196   2.558   8.848
70095SOL     OW12123   2.435   3.840   0.396
70095SOL    HW112124   2.443   3.830   0.301
70095SOL    HW212125   2.509   3.896   0.420
70096SOL     OW12126  11.210  14.011  14.036
70096SOL    HW112127  11.149  13.939  14.017
70096SOL    HW212128  11.293  13.968  14.053
70097SOL     OW12129   8.314   9.181  12.238
70097SOL    HW112130   8.322   9.087  12.255
70097SOL    HW212131   8.248   9.187  12.169
70098SOL     OW12132   5.172   2.267   0.988
70098SOL    HW112133   5.089   2.223   0.969
70098SOL    HW212134   5.230   2.240   0.916
70099SOL     OW12135   4.756   0.667   8.224
70099SOL    HW112136   4.823   0.655   8.291
70099SOL    HW212137   4.784   0.610   8.152
70100SOL     OW12138   2.838  12.397  14.699
70100SOL    HW112139   2.795  12.316  14.725
70100SOL    HW212140   2.923  12.370  14.666
70101SOL     OW12141   7.187   7.294   2.399
70101SOL    HW112142   7.215   7.284   2.490
70101SOL    HW212143   7.263   7.268   2.348
70102SOL     OW12144  12.725  10.381   3.767
70102SOL    HW112145  12.684  10.340   3.691
70102SOL    HW212146  12.787  10.444   3.730
70103SOL     OW12147   1.204   7.446   7.219
70103SOL    HW112148   1.244   7.532   7.204
70103SOL    HW212149   1.149   7.430   7.143
70104SOL     OW12150  12.040  14.062   4.957
70104SOL    HW112151  12.102  14.106   5.014
70104SOL    HW212152  11.970  14.032   5.015
70105SOL     OW12153   5.290   0.573   5.211
70105SOL    HW112154   5.345   0.565   5.290
70105SOL    HW212155   5.347   0.617   5.148
70106SOL     OW12156  13.305   1.692   7.321
70106SOL    HW112157  13.326   1.629   7.251
70106SOL    HW212158  13.386   1.740   7.335
70107SOL     OW12159   0.205   7.348  14.156
70107SOL    HW112160   0.264   7.358  14.231
70107SOL    HW212161   0.169   7.435  14.142
70108SOL     OW12162  10.955  14.575  11.485
70108SOL    HW112163  10.884  14.542  11.540
70108SOL    HW212164  10.927  14.555  11.396
70109SOL     OW12165   8.714   6.677  14.779
70109SOL    HW112166   8.810   6.684  14.782
70109SOL    HW212167   8.689   6.655  14.868
70110SOL     OW12168   9.130  13.377  10.861
70110SOL    HW112169   9.188  13.387  10.786
70110SOL    HW212170   9.059  13.320  10.829
70111SOL     OW12171   3.627  11.863   4.934
70111SOL    HW112172   3.615  11.768   4.920
70111SOL    HW212173   3.660  11.895   4.850
70112SOL     OW12174  14.533   0.473   8.597
70112SOL    HW112175  14.564   0.393   8.555
70112SOL    HW212176  14.539   0.455   8.690
70113SOL     OW12177   0.295  12.361   1.453
70113SOL    HW112178   0.300  12.457   1.451
70113SOL    HW212179   0.204  12.341   1.432
70114SOL     OW12180  10.066   1.526   4.619
70114SOL    HW112181  10.139   1.537   4.558
70114SOL    HW212182  10.057   1.431   4.628
70115SOL     OW12183   9.671   1.774   4.474
70115SOL    HW112184   9.735   1.706   4.453
70115SOL    HW212185   9.722   1.853   4.488
70116SOL     OW12186  12.496  10.132   3.148
70116SOL    HW112187  12.483  10.047   3.105
70116SOL    HW212188  12.407  10.164   3.165
70117SOL     OW12189  13.003   8.088  10.496
70117SOL    HW112190  12.918   8.064  10.533
70117SOL    HW212191  12.983   8.156  10.432
70118SOL     OW12192   0.508  13.979   3.416
70118SOL    HW112193   0.450  14.003   3.344
70118SOL    HW212194   0.449  13.971   3.492
70119SOL     OW12195   6.351   6.497  12.331
70119SOL    HW112196   6.282   6.459  12.385
70119SOL    HW212197   6.431   6.485  12.382
70120SOL     OW12198   4.831  14.556   3.718
70120SOL    HW112199   4.831  14.617   3.791
70120SOL    HW212200   4.816  14.610   3.641
70121SOL     OW12201  14.057  11.034  12.199
70121SOL    HW112202  13.970  11.060  12.229
70121SOL    HW212203  14.042  10.949  12.157
70122SOL     OW12204   3.365  14.487  12.241
70122SOL    HW112205   3.430  14.550  12.272
70122SOL    HW212206   3.367  14.416  12.305
70123SOL     OW12207  11.630   7.184   2.974
70123SOL    HW112208  11.557   7.241   3.000
70123SOL    HW212209  11.684   7.240   2.918
70124SOL     OW12210   4.034  11.510  14.327
70124SOL    HW112211   3.997  11.423  14.321
70124SOL    HW212212   4.078  11.524  14.243
70125SOL     OW12213  13.756  12.826  11.589
70125SOL    HW112214  13.805  12.878  11.525
70125SOL    HW212215  13.802  12.840  11.672
70126SOL     OW12216   9.463   0.294   1.338
70126SOL    HW112217   9.451   0.224   1.274
70126SOL    HW212218   9.514   0.360   1.292
70127SOL     OW12219   4.676  12.081  14.410
70127SOL    HW112220   4.674  12.006  14.470
70127SOL    HW212221   4.740  12.056  14.344
70128SOL     OW12222  11.537   9.244  10.654
70128SOL    HW112223  11.505   9.266  10.567
70128SOL    HW212224  11.540   9.148  10.655
70129SOL     OW12225  12.681  11.922   8.156
70129SOL    HW112226  12.743  11.928   8.229
70129SOL    HW212227  12.736  11.901   8.080
70130SOL     OW12228  12.828   2.841  13.599
70130SOL    HW112229  12.864   2.826  13.511
70130SOL    HW212230  12.891   2.801  13.658
70131SOL     OW12231  11.615   1.533   9.862
70131SOL    HW112232  11.680   1.559   9.797
70131SOL    HW212233  11.663   1.482   9.926
70132SOL     OW12234   6.393   2.839   9.269
70132SOL    HW112235   6.330   2.771   9.244
70132SOL    HW212236   6.342   2.902   9.319
70133SOL     OW12237  13.949  10.404   8.708
70133SOL    HW112238  13.968  10.445   8.793
70133SOL    HW212239  13.860  10.430   8.688
70134SOL     OW12240  13.377  14.016   9.073
70134SOL    HW112241  13.464  14.002   9.035
70134SOL    HW212242  13.331  13.933   9.057
70135SOL     OW12243   7.745   0.187  10.391
70135SOL    HW112244   7.660   0.226  10.374
70135SOL    HW212245   7.739   0.154  10.481
70136SOL     OW12246   2.873   5.281   0.058
70136SOL    HW112247   2.904   5.204   0.010
70136SOL    HW212248   2.808   5.321   0.000
70137SOL     OW12249   1.283  13.291  12.127
70137SOL    HW112250   1.305  13.319  12.216
70137SOL    HW212251   1.267  13.197  12.134
70138SOL     OW12252   3.157   7.822   0.380
70138SOL    HW112253   3.248   7.846   0.395
70138SOL    HW212254   3.124   7.797   0.466
70139SOL     OW12255  13.558   2.307   3.187
70139SOL    HW112256  13.473   2.346   3.208
70139SOL    HW212257  13.621   2.357   3.238
70140SOL     OW12258  10.421   5.354  11.389
70140SOL    HW112259  10.391   5.266  11.364
70140SOL    HW212260  10.376   5.413  11.328
70141SOL     OW12261   3.483  12.385  14.744
70141SOL    HW112262   3.519  12.474  14.744
70141SOL    HW212263   3.448  12.373  14.832
70142SOL     OW12264   1.746  11.865  14.271
70142SOL    HW112265   1.800  11.901  14.200
70142SOL    HW212266   1.789  11.894  14.351
70143SOL     OW12267  10.235   8.807   3.924
70143SOL    HW112268  10.227   8.890   3.972
70143SOL    HW212269  10.194   8.742   3.981
70144SOL     OW12270   9.525  10.740   9.224
70144SOL    HW112271   9.504  10.792   9.301
70144SOL    HW212272   9.471  10.777   9.154
70145SOL     OW12273   0.993   0.462   8.300
70145SOL    HW112274   0.899   0.468   8.284
70145SOL    HW212275   1.001   0.473   8.395
70146SOL     OW12276   9.149   3.085   2.033
70146SOL    HW112277   9.120   3.116   1.947
70146SOL    HW212278   9.068   3.072   2.082
70147SOL     OW12279   3.446  10.341   4.650
70147SOL    HW112280   3.512  10.341   4.719
70147SOL    HW212281   3.386  10.270   4.673
70148SOL     OW12282   7.644   0.154  12.667
70148SOL    HW112283   7.640   0.109  12.582
70148SOL    HW212284   7.658   0.084  12.731
70149SOL     OW12285   8.451   9.318  13.079
70149SOL    HW112286   8.502   9.399  13.083
70149SOL    HW212287   8.481   9.267  13.154
70150SOL     OW12288   9.698   5.160  13.662
70150SOL    HW112289   9.637   5.222  13.622
70150SOL    HW212290   9.664   5.074  13.639
70151SOL     OW12291  11.498   7.545   6.067
70151SOL    HW112292  11.445   7.503   5.999
70151SOL    HW212293  11.584   7.557   6.027
70152SOL     OW12294  11.830  10.477   1.691
70152SOL    HW112295  11.920  10.509   1.676
70152SOL    HW212296  11.826  10.394   1.645
70153SOL     OW12297   3.938   3.064   4.614
70153SOL    HW112298   3.879   2.992   4.637
70153SOL    HW212299   3.943   3.117   4.694
70154SOL     OW12300   0.333   9.122   5.980
70154SOL    HW112301   0.299   9.210   5.997
70154SOL    HW212302   0.307   9.103   5.890
70155SOL     OW12303  14.394   1.500   7.258
70155SOL    HW112304  14.431   1.544   7.334
70155SOL    HW212305  14.313   1.460   7.289
70156SOL     OW12306  14.777   5.184  11.006
70156SOL    HW112307  14.857   5.190  11.059
70156SOL    HW212308  14.796   5.238  10.929
70157SOL     OW12309   5.339   6.998  13.805
70157SOL    HW112310   5.346   7.050  13.885
70157SOL    HW212311   5.402   7.037  13.745
70158SOL     OW12312   4.207   5.383   6.591
70158SOL    HW112313   4.234   5.409   6.503
70158SOL    HW212314   4.266   5.431   6.649
70159SOL     OW12315  12.927  12.894  13.373
70159SOL    HW112316  12.863  12.827  13.398
70159SOL    HW212317  12.888  12.938  13.298
70160SOL     OW12318  13.908   5.817   7.144
70160SOL    HW112319  13.957   5.763   7.082
70160SOL    HW212320  13.818   5.784   7.139
70161SOL     OW12321  14.562   5.465   0.207
70161SOL    HW112322  14.575   5.411   0.286
70161SOL    HW212323  14.479   5.434   0.170
70162SOL     OW12324   9.991  14.875   4.377
70162SOL    HW112325  10.028  14.802   4.327
70162SOL    HW212326  10.022   0.077   4.332
70163SOL     OW12327  13.189  11.832  11.221
70163SOL    HW112328  13.144  11.774  11.283
70163SOL    HW212329  13.193  11.916  11.265
70164SOL     OW12330  12.180  10.577   8.660
70164SOL    HW112331  12.211  10.632   8.732
70164SOL    HW212332  12.163  10.492   8.700
70165SOL     OW12333  10.639   4.926  11.922
70165SOL    HW112334  10.714   4.902  11.977
70165SOL    HW212335  10.595   4.996  11.969
70166SOL     OW12336   4.361   3.274   0.023
70166SOL    HW112337   4.420   3.200   0.039
70166SOL    HW212338   4.418   3.350   0.018
70167SOL     OW12339  10.059  12.001  14.801
70167SOL    HW112340  10.104  11.917  14.808
70167SOL    HW212341  10.020  12.000  14.713
70168SOL     OW12342   6.540   4.982  12.946
70168SOL    HW112343   6.532   5.011  12.855
70168SOL    HW212344   6.476   5.033  12.994
70169SOL     OW12345   8.313   5.752  11.899
70169SOL    HW112346   8.400   5.792  11.899
70169SOL    HW212347   8.295   5.733  11.991
70170SOL     OW12348   3.063   6.017  10.408
70170SOL    HW112349   3.049   6.048  10.319
70170SOL    HW212350   3.083   6.097  10.458
70171SOL     OW12351   1.195  12.840   3.364
70171SOL    HW112352   1.281  12.826   3.404
70171SOL    HW212353   1.135  12.850   3.438
70172SOL     OW12354   5.512   0.001  12.021
70172SOL    HW112355   5.460   0.079  12.000
70172SOL    HW212356   5.521   0.003  12.116
70173SOL     OW12357  10.715  14.304  13.236
70173SOL    HW112358  10.749  14.393  13.248
70173SOL    HW212359  10.728  14.262  13.320
70174SOL     OW12360   2.888   1.003   8.713
70174SOL    HW112361   2.802   1.032   8.744
70174SOL    HW212362   2.905   1.058   8.636
70175SOL     OW12363   9.411   0.927   5.378
70175SOL    HW112364   9.487   0.871   5.392
70175SOL    HW212365   9.366   0.929   5.462
70176SOL     OW12366   0.005  13.863  11.022
70176SOL    HW112367   0.078  13.876  11.083
70176SOL    HW212368  14.869  13.768  11.020
70177SOL     OW12369   0.966  12.234   7.653
70177SOL    HW112370   0.874  12.213   7.669
70177SOL    HW212371   1.012  12.150   7.658
70178SOL     OW12372   4.212   1.944   5.772
70178SOL    HW112373   4.255   1.983   5.696
70178SOL    HW212374   4.284   1.916   5.829
70179SOL     OW12375   3.915  13.620   9.311
70179SOL    HW112376   3.880  13.532   9.302
70179SOL    HW212377   3.946  13.624   9.402
70180SOL     OW12378  14.798   9.871   7.190
70180SOL    HW112379  14.804   9.801   7.255
70180SOL    HW212380  14.746   9.833   7.119
70181SOL     OW12381  14.031  12.383   8.423
70181SOL    HW112382  14.006  12.436   8.499
70181SOL    HW212383  14.106  12.332   8.453
70182SOL     OW12384  12.282  14.558  10.139
70182SOL    HW112385  12.358  14.502  10.157
70182SOL    HW212386  12.301  14.640  10.184
70183SOL     OW12387   0.008   6.662   1.566
70183SOL    HW112388   0.011   6.737   1.506
70183SOL    HW212389   0.085   6.610   1.544
70184SOL     OW12390  13.156   5.422   9.609
70184SOL    HW112391  13.122   5.509   9.586
70184SOL    HW212392  13.106   5.397   9.686
70185SOL     OW12393   0.462   4.382   9.427
70185SOL    HW112394   0.402   4.386   9.502
70185SOL    HW212395   0.544   4.350   9.464
70186SOL     OW12396   1.817   4.565   1.728
70186SOL    HW112397   1.763   4.510   1.785
70186SOL    HW212398   1.771   4.649   1.727
70187SOL     OW12399   2.246   2.821   3.928
70187SOL    HW112400   2.341   2.833   3.923
70187SOL    HW212401   2.234   2.726   3.929
70188SOL     OW12402   7.326   5.949   8.583
70188SOL    HW112403   7.291   5.889   8.516
70188SOL    HW212404   7.365   5.892   8.649
70189SOL     OW12405   4.109   3.444  13.112
70189SOL    HW112406   4.179   3.380  13.110
70189SOL    HW212407   4.044   3.412  13.049
70190SOL     OW12408   2.814   6.630   2.976
70190SOL    HW112409   2.780   6.544   2.951
70190SOL    HW212410   2.846   6.617   3.066
70191SOL     OW12411   6.521   1.109   0.644
70191SOL    HW112412   6.447   1.169   0.634
70191SOL    HW212413   6.491   1.045   0.709
70192SOL     OW12414   9.181   4.060   1.092
70192SOL    HW112415   9.090   4.053   1.119
70192SOL    HW212416   9.178   4.095   1.003
70193SOL     OW12417   5.012   3.439   2.749
70193SOL    HW112418   4.949   3.468   2.683
70193SOL    HW212419   5.079   3.507   2.749
70194SOL     OW12420   7.351  12.344   4.694
70194SOL    HW112421   7.346  12.373   4.603
70194SOL    HW212422   7.335  12.423   4.746
70195SOL     OW12423   4.742   2.100   9.105
70195SOL    HW112424   4.714   2.116   9.194
70195SOL    HW212425   4.725   2.007   9.091
70196SOL     OW12426   3.548  12.640  10.224
70196SOL    HW112427   3.632  12.684  10.216
70196SOL    HW212428   3.551  12.598  10.310
70197SOL     OW12429  11.626  11.371   0.958
70197SOL    HW112430  11.683  11.403   1.028
70197SOL    HW212431  11.606  11.280   0.984
70198SOL     OW12432   9.091   2.147   6.303
70198SOL    HW112433   9.062   2.153   6.212
70198SOL    HW212434   9.180   2.184   6.302
70199SOL     OW12435   4.272   6.292   6.883
70199SOL    HW112436   4.325   6.360   6.924
70199SOL    HW212437   4.321   6.268   6.803
70200SOL     OW12438  13.423  14.598   8.032
70200SOL    HW112439  13.425  14.513   7.989
70200SOL    HW212440  13.490  14.593   8.100
70201SOL     OW12441   3.778   5.894  14.043
70201SOL    HW112442   3.740   5.924  14.125
70201SOL    HW212443   3.873   5.901  14.056
70202SOL     OW12444  13.086   0.712   5.982
70202SOL    HW112445  13.008   0.766   5.970
70202SOL    HW212446  13.157   0.763   5.942
70203SOL     OW12447   4.488   7.567   9.320
70203SOL    HW112448   4.519   7.493   9.372
70203SOL    HW212449   4.560   7.631   9.323
70204SOL     OW12450  11.831   1.930  13.300
70204SOL    HW112451  11.830   1.863  13.231
70204SOL    HW212452  11.738   1.950  13.315
70205SOL     OW12453   6.991  10.377  10.491
70205SOL    HW112454   6.965  10.286  10.500
70205SOL    HW212455   6.950  10.422  10.564
70206SOL     OW12456   0.150   5.786  12.120
70206SOL    HW112457   0.210   5.811  12.050
70206SOL    HW212458   0.161   5.854  12.187
70207SOL     OW12459  12.127  12.379  12.624
70207SOL    HW112460  12.135  12.330  12.542
70207SOL    HW212461  12.037  12.411  12.623
70208SOL     OW12462  14.381   3.908   1.258
70208SOL    HW112463  14.438   3.933   1.331
70208SOL    HW212464  14.428   3.838   1.213
70209SOL     OW12465   6.777   7.356   0.521
70209SOL    HW112466   6.858   7.381   0.475
70209SOL    HW212467   6.777   7.409   0.600
70210SOL     OW12468   0.165   8.709   3.118
70210SOL    HW112469   0.151   8.776   3.051
70210SOL    HW212470   0.112   8.635   3.089
70211SOL     OW12471   8.528   7.054  13.568
70211SOL    HW112472   8.455   7.078  13.511
70211SOL    HW212473   8.600   7.112  13.542
70212SOL     OW12474  14.041   9.384  13.219
70212SOL    HW112475  14.113   9.422  13.168
70212SOL    HW212476  14.074   9.380  13.308
70213SOL     OW12477   4.535   3.112   5.979
70213SOL    HW112478   4.539   3.127   6.074
70213SOL    HW212479   4.607   3.164   5.945
70214SOL     OW12480   7.418   8.174   9.376
70214SOL    HW112481   7.361   8.192   9.451
70214SOL    HW212482   7.419   8.257   9.327
70215SOL     OW12483  13.348   1.065   3.476
70215SOL    HW112484  13.396   1.143   3.448
70215SOL    HW212485  13.353   1.006   3.401
70216SOL     OW12486   2.631   9.398   2.905
70216SOL    HW112487   2.599   9.424   2.819
70216SOL    HW212488   2.723   9.426   2.906
70217SOL     OW12489   6.411  13.303   5.500
70217SOL    HW112490   6.379  13.359   5.429
70217SOL    HW212491   6.431  13.219   5.458
70218SOL     OW12492   4.295   5.097   5.112
70218SOL    HW112493   4.382   5.069   5.084
70218SOL    HW212494   4.238   5.025   5.087
70219SOL     OW12495   9.317  11.014   8.282
70219SOL    HW112496   9.247  11.022   8.346
70219SOL    HW212497   9.396  11.040   8.329
70220SOL     OW12498   0.436  14.871  12.108
70220SOL    HW112499   0.378  14.825  12.047
70220SOL    HW212500   0.524  14.860  12.070
70221SOL     OW12501   4.055   3.427   8.036
70221SOL    HW112502   4.013   3.342   8.029
70221SOL    HW212503   4.146   3.407   8.060
70222SOL     OW12504  11.679   5.826   0.217
70222SOL    HW112505  11.633   5.836   0.133
70222SOL    HW212506  11.609   5.830   0.283
70223SOL     OW12507   4.598   8.039  14.677
70223SOL    HW112508   4.572   8.112  14.622
70223SOL    HW212509   4.522   7.981  14.678
70224SOL     OW12510   2.055  13.648   7.606
70224SOL    HW112511   2.137  13.696   7.617
70224SOL    HW212512   1.997  13.710   7.563
70225SOL     OW12513  12.568   6.604  12.176
70225SOL    HW112514  12.556   6.664  12.102
70225SOL    HW212515  12.482   6.565  12.189
70226SOL     OW12516   6.305   9.518   7.587
70226SOL    HW112517   6.319   9.467   7.666
70226SOL    HW212518   6.276   9.604   7.618
70227SOL     OW12519   1.771   6.311   4.785
70227SOL    HW112520   1.765   6.287   4.877
70227SOL    HW212521   1.849   6.367   4.780
70228SOL     OW12522  10.782   0.585   4.467
70228SOL    HW112523  10.825   0.666   4.496
70228SOL    HW212524  10.814   0.518   4.527
70229SOL     OW12525   4.091   4.143   7.850
70229SOL    HW112526   4.014   4.196   7.831
70229SOL    HW212527   4.150   4.160   7.777
70230SOL     OW12528   9.552   1.709   7.575
70230SOL    HW112529   9.557   1.668   7.661
70230SOL    HW212530   9.459   1.712   7.555
70231SOL     OW12531   3.760   9.727  11.304
70231SOL    HW112532   3.749   9.783  11.380
70231SOL    HW212533   3.676   9.733  11.258
70232SOL     OW12534   7.515   9.196   1.782
70232SOL    HW112535   7.570   9.145   1.841
70232SOL    HW212536   7.574   9.261   1.745
70233SOL     OW12537   2.641  13.954  12.613
70233SOL    HW112538   2.592  13.877  12.582
70233SOL    HW212539   2.635  13.949  12.708
70234SOL     OW12540   8.939   4.514  11.922
70234SOL    HW112541   8.951   4.555  11.836
70234SOL    HW212542   8.847   4.532  11.944
70235SOL     OW12543   3.283  10.982   9.981
70235SOL    HW112544   3.297  10.897   9.940
70235SOL    HW212545   3.366  11.028   9.971
70236SOL     OW12546   2.676   0.309   7.737
70236SOL    HW112547   2.670   0.309   7.833
70236SOL    HW212548   2.769   0.301   7.718
70237SOL     OW12549   6.642   9.784   4.640
70237SOL    HW112550   6.680   9.808   4.725
70237SOL    HW212551   6.639   9.689   4.640
70238SOL     OW12552  10.846   7.222  11.575
70238SOL    HW112553  10.895   7.160  11.630
70238SOL    HW212554  10.840   7.178  11.490
70239SOL     OW12555   0.975   1.737   8.124
70239SOL    HW112556   1.016   1.684   8.056
70239SOL    HW212557   0.938   1.673   8.185
70240SOL     OW12558   0.599   2.982  13.943
70240SOL    HW112559   0.584   2.932  13.863
70240SOL    HW212560   0.579   3.072  13.918
70241SOL     OW12561   1.835   8.609   1.637
70241SOL    HW112562   1.868   8.671   1.701
70241SOL    HW212563   1.891   8.532   1.648
70242SOL     OW12564   8.053  14.048  10.685
70242SOL    HW112565   8.120  13.983  10.706
70242SOL    HW212566   8.055  14.055  10.590
70243SOL     OW12567   9.889   7.353  10.066
70243SOL    HW112568   9.847   7.362  10.151
70243SOL    HW212569   9.941   7.433  10.057
70244SOL     OW12570   0.259   7.733  11.972
70244SOL    HW112571   0.274   7.690  12.056
70244SOL    HW212572   0.197   7.804  11.992
70245SOL     OW12573   2.917  12.134   4.510
70245SOL    HW112574   2.942  12.048   4.544
70245SOL    HW212575   2.824  12.140   4.529
70246SOL     OW12576   6.091   0.889   0.072
70246SOL    HW112577   6.161   0.824   0.085
70246SOL    HW212578   6.121   0.941  14.874
70247SOL     OW12579   4.091   1.771  13.311
70247SOL    HW112580   4.148   1.702  13.275
70247SOL    HW212581   4.063   1.821  13.235
70248SOL     OW12582   1.759   8.677  14.629
70248SOL    HW112583   1.692   8.692  14.696
70248SOL    HW212584   1.730   8.729  14.555
70249SOL     OW12585   4.648  10.433   7.075
70249SOL    HW112586   4.700  10.441   7.155
70249SOL    HW212587   4.655  10.341   7.050
70250SOL     OW12588   3.036   8.865   2.619
70250SOL    HW112589   2.949   8.874   2.656
70250SOL    HW212590   3.080   8.801   2.675
70251SOL     OW12591   5.175  14.245   6.507
70251SOL    HW112592   5.262  14.254   6.546
70251SOL    HW212593   5.144  14.159   6.537
70252SOL     OW12594   3.555   7.362   8.453
70252SOL    HW112595   3.551   7.286   8.395
70252SOL    HW212596   3.644   7.394   8.443
70253SOL     OW12597   3.016  10.597   0.779
70253SOL    HW112598   3.066  10.530   0.733
70253SOL    HW212599   2.957  10.548   0.837
70254SOL     OW12600  13.154   9.483   5.414
70254SOL    HW112601  13.135   9.494   5.507
70254SOL    HW212602  13.237   9.530   5.401
70255SOL     OW12603  12.161  11.435  14.215
70255SOL    HW112604  12.193  11.348  14.239
70255SOL    HW212605  12.230  11.495  14.243
70256SOL     OW12606   7.838  11.079   0.187
70256SOL    HW112607   7.930  11.061   0.166
70256SOL    HW212608   7.789  11.022   0.128
70257SOL     OW12609  14.605   4.783   9.385
70257SOL    HW112610  14.603   4.703   9.332
70257SOL    HW212611  14.675   4.766   9.449
70258SOL     OW12612  12.801   6.965   9.732
70258SOL    HW112613  12.888   6.977   9.692
70258SOL    HW212614  12.809   7.005   9.818
70259SOL     OW12615   9.369  13.458   5.972
70259SOL    HW112616   9.409  13.523   5.915
70259SOL    HW212617   9.442  13.419   6.020
70260SOL     OW12618   9.123   4.073   4.900
70260SOL    HW112619   9.144   4.155   4.945
70260SOL    HW212620   9.047   4.095   4.846
70261SOL     OW12621   5.005  12.149  14.863
70261SOL    HW112622   4.944  12.095  14.813
70261SOL    HW212623   4.958  12.168   0.068
70262SOL     OW12624   5.726  14.638   4.400
70262SOL    HW112625   5.726  14.725   4.439
70262SOL    HW212626   5.768  14.582   4.466
70263SOL     OW12627   8.647   7.265   4.196
70263SOL    HW112628   8.606   7.180   4.214
70263SOL    HW212629   8.712   7.275   4.265
70264SOL     OW12630   6.130   1.999  13.143
70264SOL    HW112631   6.088   2.032  13.063
70264SOL    HW212632   6.073   1.928  13.172
70265SOL     OW12633   0.683  12.603   2.372
70265SOL    HW112634   0.688  12.582   2.279
70265SOL    HW212635   0.638  12.528   2.411
70266SOL     OW12636   4.939  12.584   0.927
70266SOL    HW112637   4.854  12.544   0.947
70266SOL    HW212638   4.917  12.664   0.879
70267SOL     OW12639  12.673   3.488   5.449
70267SOL    HW112640  12.669   3.500   5.544
70267SOL    HW212641  12.638   3.400   5.435
70268SOL     OW12642   0.193   9.483  12.118
70268SOL    HW112643   0.214   9.570  12.152
70268SOL    HW212644   0.275   9.451  12.081
70269SOL     OW12645   8.459  11.039   1.613
70269SOL    HW112646   8.531  11.071   1.668
70269SOL    HW212647   8.499  10.972   1.558
70270SOL     OW12648   5.884  13.338   6.006
70270SOL    HW112649   5.976  13.349   6.030
70270SOL    HW212650   5.887  13.301   5.918
70271SOL     OW12651   9.129  13.031   9.225
70271SOL    HW112652   9.214  13.003   9.259
70271SOL    HW212653   9.149  13.106   9.168
70272SOL     OW12654   6.497   2.582  12.954
70272SOL    HW112655   6.457   2.554  12.871
70272SOL    HW212656   6.551   2.507  12.980
70273SOL     OW12657   7.345  12.432   7.663
70273SOL    HW112658   7.318  12.473   7.580
70273SOL    HW212659   7.314  12.341   7.655
70274SOL     OW12660  10.994   3.139  10.187
70274SOL    HW112661  11.065   3.088  10.148
70274SOL    HW212662  11.029   3.169  10.271
70275SOL     OW12663  13.896   4.612   8.989
70275SOL    HW112664  13.865   4.581   8.904
70275SOL    HW212665  13.821   4.659   9.026
70276SOL     OW12666   9.437   2.431   0.351
70276SOL    HW112667   9.371   2.481   0.304
70276SOL    HW212668   9.396   2.409   0.435
70277SOL     OW12669  12.095   5.033   1.549
70277SOL    HW112670  12.043   4.992   1.619
70277SOL    HW212671  12.030   5.066   1.487
70278SOL     OW12672  13.290   5.490   6.030
70278SOL    HW112673  13.336   5.535   5.960
70278SOL    HW212674  13.209   5.460   5.989
70279SOL     OW12675   7.493   9.643  12.693
70279SOL    HW112676   7.554   9.580  12.656
70279SOL    HW212677   7.427   9.590  12.737
70280SOL     OW12678   8.970   8.310  10.209
70280SOL    HW112679   8.972   8.301  10.304
70280SOL    HW212680   9.047   8.261  10.179
70281SOL     OW12681   4.055  13.297   0.992
70281SOL    HW112682   4.056  13.256   1.078
70281SOL    HW212683   4.033  13.388   1.009
70282SOL     OW12684   8.134   9.735   5.892
70282SOL    HW112685   8.193   9.810   5.904
70282SOL    HW212686   8.065   9.767   5.834
70283SOL     OW12687  10.881  11.931   4.018
70283SOL    HW112688  10.802  11.963   4.060
70283SOL    HW212689  10.851  11.891   3.936
70284SOL     OW12690   7.579   1.489  12.823
70284SOL    HW112691   7.536   1.483  12.738
70284SOL    HW212692   7.641   1.561  12.813
70285SOL     OW12693   0.367  13.910  11.613
70285SOL    HW112694   0.372  13.825  11.570
70285SOL    HW212695   0.446  13.956  11.584
70286SOL     OW12696  11.487   3.036   9.074
70286SOL    HW112697  11.499   3.088   8.995
70286SOL    HW212698  11.542   2.958   9.061
70287SOL     OW12699   2.254   7.781  13.073
70287SOL    HW112700   2.193   7.855  13.076
70287SOL    HW212701   2.215   7.721  13.010
70288SOL     OW12702   3.341  13.213  13.341
70288SOL    HW112703   3.389  13.296  13.344
70288SOL    HW212704   3.350  13.177  13.429
70289SOL     OW12705   2.370   4.100   3.717
70289SOL    HW112706   2.352   4.075   3.626
70289SOL    HW212707   2.372   4.196   3.715
70290SOL     OW12708   6.024   6.265  10.384
70290SOL    HW112709   6.105   6.215  10.394
70290SOL    HW212710   6.052   6.351  10.352
70291SOL     OW12711  14.839   7.780   7.750
70291SOL    HW112712  14.775   7.754   7.684
70291SOL    HW212713  14.806   7.863   7.785
70292SOL     OW12714   2.765   1.297   1.504
70292SOL    HW112715   2.835   1.361   1.489
70292SOL    HW212716   2.761   1.287   1.599
70293SOL     OW12717  12.952  13.325   9.234
70293SOL    HW112718  12.900  13.401   9.210
70293SOL    HW212719  12.912  13.294   9.315
70294SOL     OW12720   9.872   4.531   9.337
70294SOL    HW112721   9.936   4.593   9.302
70294SOL    HW212722   9.807   4.522   9.268
70295SOL     OW12723   1.656   3.816   9.805
70295SOL    HW112724   1.709   3.782   9.876
70295SOL    HW212725   1.605   3.887   9.845
70296SOL     OW12726   2.872   1.324  11.402
70296SOL    HW112727   2.809   1.387  11.437
70296SOL    HW212728   2.868   1.250  11.463
70297SOL     OW12729  10.326   9.541   3.504
70297SOL    HW112730  10.278   9.622   3.523
70297SOL    HW212731  10.257   9.476   3.486
70298SOL     OW12732  11.745   3.530   5.584
70298SOL    HW112733  11.692   3.477   5.526
70298SOL    HW212734  11.780   3.469   5.649
70299SOL     OW12735   4.209  12.698   2.166
70299SOL    HW112736   4.127  12.726   2.208
70299SOL    HW212737   4.198  12.605   2.150
70300SOL     OW12738  13.121  11.033  10.072
70300SOL    HW112739  13.148  10.950  10.031
70300SOL    HW212740  13.048  11.063  10.019
70301SOL     OW12741  13.791   5.271   5.258
70301SOL    HW112742  13.752   5.200   5.309
70301SOL    HW212743  13.823   5.228   5.178
70302SOL     OW12744   6.811   5.371   7.506
70302SOL    HW112745   6.899   5.367   7.544
70302SOL    HW212746   6.824   5.348   7.414
70303SOL     OW12747   9.364   3.895   2.193
70303SOL    HW112748   9.312   3.957   2.244
70303SOL    HW212749   9.454   3.912   2.222
70304SOL     OW12750   2.075  14.818  11.815
70304SOL    HW112751   2.099   0.005  11.747
70304SOL    HW212752   2.116  14.852  11.894
70305SOL     OW12753   0.095   8.829  11.323
70305SOL    HW112754   0.052   8.885  11.258
70305SOL    HW212755   0.176   8.801  11.280
70306SOL     OW12756  13.077  13.947  10.875
70306SOL    HW112757  13.119  13.881  10.931
70306SOL    HW212758  13.011  13.987  10.932
70307SOL     OW12759   2.326  12.549  11.129
70307SOL    HW112760   2.243  12.593  11.108
70307SOL    HW212761   2.305  12.455  11.124
70308SOL     OW12762   1.889   7.897  13.652
70308SOL    HW112763   1.836   7.824  13.681
70308SOL    HW212764   1.825   7.963  13.624
70309SOL     OW12765  12.173   7.063   4.331
70309SOL    HW112766  12.148   7.110   4.252
70309SOL    HW212767  12.092   7.053   4.381
70310SOL     OW12768   5.018   1.689   1.385
70310SOL    HW112769   5.037   1.645   1.468
70310SOL    HW212770   5.040   1.781   1.400
70311SOL     OW12771   2.682  10.465   8.588
70311SOL    HW112772   2.768  10.504   8.604
70311SOL    HW212773   2.620  10.534   8.610
70312SOL     OW12774  11.327   3.082   5.385
70312SOL    HW112775  11.418   3.055   5.393
70312SOL    HW212776  11.317   3.153   5.448
70313SOL     OW12777   3.293  11.554   3.859
70313SOL    HW112778   3.230  11.595   3.918
70313SOL    HW212779   3.255  11.470   3.837
70314SOL     OW12780  14.298   2.097   8.460
70314SOL    HW112781  14.338   2.158   8.522
70314SOL    HW212782  14.332   2.012   8.486
70315SOL     OW12783   0.218   1.600   1.113
70315SOL    HW112784   0.174   1.592   1.198
70315SOL    HW212785   0.149   1.581   1.049
70316SOL     OW12786   0.831  12.045   6.596
70316SOL    HW112787   0.879  11.963   6.586
70316SOL    HW212788   0.766  12.027   6.665
70317SOL     OW12789  13.036   3.865   1.181
70317SOL    HW112790  13.103   3.796   1.180
70317SOL    HW212791  12.956   3.821   1.154
70318SOL     OW12792   5.368   0.782  12.529
70318SOL    HW112793   5.412   0.751  12.449
70318SOL    HW212794   5.293   0.724  12.539
70319SOL     OW12795  11.235   9.696   5.034
70319SOL    HW112796  11.171   9.749   5.082
70319SOL    HW212797  11.183   9.633   4.984
70320SOL     OW12798   4.377   3.779   2.758
70320SOL    HW112799   4.297   3.805   2.713
70320SOL    HW212800   4.361   3.798   2.850
70321SOL     OW12801   1.149   1.680  11.267
70321SOL    HW112802   1.174   1.632  11.187
70321SOL    HW212803   1.218   1.745  11.279
70322SOL     OW12804   2.911   7.790   6.325
70322SOL    HW112805   2.860   7.723   6.370
70322SOL    HW212806   2.892   7.777   6.232
70323SOL     OW12807   8.690   1.896  13.740
70323SOL    HW112808   8.603   1.936  13.731
70323SOL    HW212809   8.671   1.804  13.761
70324SOL     OW12810  14.067   5.895   0.603
70324SOL    HW112811  14.037   5.943   0.526
70324SOL    HW212812  14.056   5.803   0.580
70325SOL     OW12813   2.311   1.647   5.070
70325SOL    HW112814   2.266   1.712   5.016
70325SOL    HW212815   2.314   1.569   5.015
70326SOL     OW12816  13.871  14.113   7.259
70326SOL    HW112817  13.875  14.134   7.166
70326SOL    HW212818  13.901  14.022   7.264
70327SOL     OW12819   6.722   1.574   0.911
70327SOL    HW112820   6.672   1.556   0.991
70327SOL    HW212821   6.670   1.640   0.866
70328SOL     OW12822  12.376   7.403   6.701
70328SOL    HW112823  12.416   7.440   6.779
70328SOL    HW212824  12.291   7.370   6.731
70329SOL     OW12825   0.576  13.392   3.816
70329SOL    HW112826   0.561  13.481   3.849
70329SOL    HW212827   0.501  13.342   3.846
70330SOL     OW12828   4.591   3.564  14.296
70330SOL    HW112829   4.619   3.625  14.364
70330SOL    HW212830   4.645   3.586  14.220
70331SOL     OW12831   9.653   6.415   7.219
70331SOL    HW112832   9.723   6.462   7.263
70331SOL    HW212833   9.572   6.450   7.256
70332SOL     OW12834   1.765  13.487  14.496
70332SOL    HW112835   1.773  13.501  14.590
70332SOL    HW212836   1.740  13.573  14.461
70333SOL     OW12837   7.427  11.977   7.268
70333SOL    HW112838   7.333  11.961   7.276
70333SOL    HW212839   7.435  12.072   7.265
70334SOL     OW12840   8.673  11.212   6.595
70334SOL    HW112841   8.586  11.182   6.570
70334SOL    HW212842   8.658  11.270   6.670
70335SOL     OW12843   1.545   5.207   2.981
70335SOL    HW112844   1.535   5.301   2.965
70335SOL    HW212845   1.474   5.167   2.930
70336SOL     OW12846   4.753   5.460   3.283
70336SOL    HW112847   4.667   5.419   3.298
70336SOL    HW212848   4.751   5.487   3.192
70337SOL     OW12849   1.518  14.496   7.762
70337SOL    HW112850   1.542  14.439   7.688
70337SOL    HW212851   1.564  14.458   7.837
70338SOL     OW12852   9.995   4.914   2.592
70338SOL    HW112853   9.947   4.984   2.635
70338SOL    HW212854   9.931   4.843   2.583
70339SOL     OW12855  12.718  13.824   6.764
70339SOL    HW112856  12.685  13.836   6.854
70339SOL    HW212857  12.706  13.730   6.748
70340SOL     OW12858   7.884   2.618  13.953
70340SOL    HW112859   7.938   2.542  13.975
70340SOL    HW212860   7.808   2.611  14.010
70341SOL     OW12861   8.357   3.764  14.845
70341SOL    HW112862   8.323   3.687   0.014
70341SOL    HW212863   8.404   3.813   0.036
70342SOL     OW12864   2.227   7.762   1.996
70342SOL    HW112865   2.288   7.699   2.033
70342SOL    HW212866   2.245   7.762   1.902
70343SOL     OW12867  11.282   7.607   4.516
70343SOL    HW112868  11.335   7.531   4.493
70343SOL    HW212869  11.318   7.637   4.599
70344SOL     OW12870   0.758   6.693   3.224
70344SOL    HW112871   0.717   6.774   3.254
70344SOL    HW212872   0.694   6.625   3.243
70345SOL     OW12873   5.946   4.480   6.645
70345SOL    HW112874   5.957   4.547   6.577
70345SOL    HW212875   5.853   4.458   6.642
70346SOL     OW12876  14.015  14.378   3.861
70346SOL    HW112877  13.973  14.328   3.931
70346SOL    HW212878  13.953  14.373   3.788
70347SOL     OW12879   8.865   7.718   0.509
70347SOL    HW112880   8.957   7.744   0.499
70347SOL    HW212881   8.821   7.796   0.544
70348SOL     OW12882  11.862   2.437   2.551
70348SOL    HW112883  11.943   2.387   2.543
70348SOL    HW212884  11.818   2.425   2.467
70349SOL     OW12885  12.567  10.621  14.187
70349SOL    HW112886  12.662  10.615  14.194
70349SOL    HW212887  12.543  10.697  14.241
70350SOL     OW12888   6.604   8.975   3.359
70350SOL    HW112889   6.699   8.972   3.357
70350SOL    HW212890   6.576   8.886   3.338
70351SOL     OW12891   6.806   1.146   4.960
70351SOL    HW112892   6.742   1.210   4.927
70351SOL    HW212893   6.764   1.061   4.948
70352SOL     OW12894  13.314   2.419   0.574
70352SOL    HW112895  13.260   2.484   0.528
70352SOL    HW212896  13.256   2.344   0.586
70353SOL     OW12897  11.801  12.930   5.488
70353SOL    HW112898  11.775  12.890   5.405
70353SOL    HW212899  11.740  13.002   5.501
70354SOL     OW12900   2.299  10.036   8.821
70354SOL    HW112901   2.373  10.064   8.768
70354SOL    HW212902   2.223  10.078   8.781
70355SOL     OW12903   3.674   7.785   9.706
70355SOL    HW112904   3.656   7.869   9.663
70355SOL    HW212905   3.633   7.793   9.793
70356SOL     OW12906  12.096  10.305  10.968
70356SOL    HW112907  12.121  10.214  10.954
70356SOL    HW212908  12.080  10.311  11.063
70357SOL     OW12909  10.389  10.840  14.488
70357SOL    HW112910  10.354  10.774  14.548
70357SOL    HW212911  10.355  10.923  14.522
70358SOL     OW12912  10.160   9.740   5.707
70358SOL    HW112913  10.172   9.674   5.639
70358SOL    HW212914  10.124   9.692   5.781
70359SOL     OW12915  14.292  13.394   7.565
70359SOL    HW112916  14.361  13.329   7.581
70359SOL    HW212917  14.338  13.469   7.528
70360SOL     OW12918  12.184   6.971   2.070
70360SOL    HW112919  12.211   6.908   2.003
70360SOL    HW212920  12.088   6.973   2.063
70361SOL     OW12921   5.912   4.202   1.618
70361SOL    HW112922   5.826   4.177   1.584
70361SOL    HW212923   5.942   4.270   1.558
70362SOL     OW12924  10.315   7.338   0.018
70362SOL    HW112925  10.322   7.247  14.864
70362SOL    HW212926  10.235   7.371  14.854
70363SOL     OW12927   5.833   3.063  12.211
70363SOL    HW112928   5.747   3.067  12.254
70363SOL    HW212929   5.891   3.111  12.269
70364SOL     OW12930   1.772  12.003   7.897
70364SOL    HW112931   1.704  11.951   7.939
70364SOL    HW212932   1.725  12.062   7.838
70365SOL     OW12933   3.564   1.714  11.067
70365SOL    HW112934   3.572   1.626  11.103
70365SOL    HW212935   3.595   1.707  10.977
70366SOL     OW12936  13.997   1.332   8.462
70366SOL    HW112937  14.086   1.365   8.474
70366SOL    HW212938  13.942   1.390   8.514
70367SOL     OW12939   8.954  11.571   4.014
70367SOL    HW112940   9.011  11.560   4.091
70367SOL    HW212941   8.963  11.663   3.990
70368SOL     OW12942  13.389   1.977   1.608
70368SOL    HW112943  13.350   1.999   1.523
70368SOL    HW212944  13.483   1.991   1.596
70369SOL     OW12945   7.714   5.732  14.179
70369SOL    HW112946   7.673   5.696  14.100
70369SOL    HW212947   7.741   5.820  14.154
70370SOL     OW12948   2.291   8.886  10.706
70370SOL    HW112949   2.348   8.893  10.630
70370SOL    HW212950   2.340   8.928  10.777
70371SOL     OW12951   8.718  10.576   9.618
70371SOL    HW112952   8.711  10.512   9.689
70371SOL    HW212953   8.774  10.534   9.553
70372SOL     OW12954  12.296   2.956  14.310
70372SOL    HW112955  12.275   3.035  14.260
70372SOL    HW212956  12.321   2.989  14.396
70373SOL     OW12957  10.853   5.658   0.038
70373SOL    HW112958  10.802   5.736   0.017
70373SOL    HW212959  10.802   5.586  14.875
70374SOL     OW12960  12.839   3.346   2.488
70374SOL    HW112961  12.929   3.346   2.455
70374SOL    HW212962  12.845   3.306   2.575
70375SOL     OW12963  13.537   4.524  11.123
70375SOL    HW112964  13.627   4.499  11.142
70375SOL    HW212965  13.492   4.441  11.108
70376SOL     OW12966   8.934   3.726   0.558
70376SOL    HW112967   9.022   3.704   0.527
70376SOL    HW212968   8.898   3.643   0.590
70377SOL     OW12969   5.227   0.339   8.842
70377SOL    HW112970   5.244   0.248   8.818
70377SOL    HW212971   5.266   0.390   8.771
70378SOL     OW12972   0.952   0.088  12.165
70378SOL    HW112973   0.963   0.005  12.118
70378SOL    HW212974   0.882   0.133  12.118
70379SOL     OW12975   0.603   1.124   4.640
70379SOL    HW112976   0.566   1.066   4.707
70379SOL    HW212977   0.693   1.094   4.631
70380SOL     OW12978   0.710   1.072   3.993
70380SOL    HW112979   0.680   1.148   3.944
70380SOL    HW212980   0.796   1.051   3.956
70381SOL     OW12981  11.265  10.759   2.130
70381SOL    HW112982  11.353  10.793   2.148
70381SOL    HW212983  11.223  10.828   2.078
70382SOL     OW12984   9.808  14.408   0.369
70382SOL    HW112985   9.871  14.382   0.302
70382SOL    HW212986   9.857  14.465   0.428
70383SOL     OW12987  11.834   7.179  10.905
70383SOL    HW112988  11.748   7.206  10.938
70383SOL    HW212989  11.827   7.186  10.810
70384SOL     OW12990   8.703   5.730  13.468
70384SOL    HW112991   8.628   5.782  13.438
70384SOL    HW212992   8.671   5.640  13.471
70385SOL     OW12993   2.795  11.979  14.047
70385SOL    HW112994   2.799  11.885  14.032
70385SOL    HW212995   2.712  12.006  14.007
70386SOL     OW12996   3.069   4.860  11.651
70386SOL    HW112997   2.988   4.862  11.600
70386SOL    HW212998   3.074   4.771  11.686
70387SOL     OW12999  14.715   2.152   4.447
70387SOL    HW113000  14.751   2.191   4.527
70387SOL    HW213001  14.631   2.197   4.433
70388SOL     OW13002  12.003   8.200  14.811
70388SOL    HW113003  12.030   8.281  14.854
70388SOL    HW213004  11.976   8.228  14.723
70389SOL     OW13005   0.192   7.578   0.463
70389SOL    HW113006   0.097   7.585   0.468
70389SOL    HW213007   0.209   7.484   0.458
70390SOL     OW13008   8.121   9.323   2.240
70390SOL    HW113009   8.150   9.333   2.331
70390SOL    HW213010   8.196   9.283   2.196
70391SOL     OW13011   2.522   8.328  13.302
70391SOL    HW113012   2.559   8.262  13.243
70391SOL    HW213013   2.457   8.280  13.353
70392SOL     OW13014   7.008   8.253   9.066
70392SOL    HW113015   7.038   8.281   9.152
70392SOL    HW213016   7.015   8.331   9.012
70393SOL     OW13017   8.345   9.067   9.379
70393SOL    HW113018   8.285   9.084   9.452
70393SOL    HW213019   8.377   9.154   9.354
70394SOL     OW13020   0.725  10.704  13.503
70394SOL    HW113021   0.682  10.619  13.506
70394SOL    HW213022   0.679  10.752  13.435
70395SOL     OW13023   7.498  13.552   1.519
70395SOL    HW113024   7.489  13.622   1.584
70395SOL    HW213025   7.451  13.585   1.442
70396SOL     OW13026  10.487   8.451   3.642
70396SOL    HW113027  10.540   8.502   3.581
70396SOL    HW213028  10.502   8.491   3.727
70397SOL     OW13029  12.505  14.060   0.733
70397SOL    HW113030  12.559  13.997   0.684
70397SOL    HW213031  12.554  14.076   0.814
70398SOL     OW13032   8.625   1.155   1.109
70398SOL    HW113033   8.568   1.196   1.044
70398SOL    HW213034   8.711   1.196   1.095
70399SOL     OW13035  14.383   5.519  12.635
70399SOL    HW113036  14.443   5.593  12.620
70399SOL    HW213037  14.435   5.456  12.684
70400SOL     OW13038   0.929   2.853   2.262
70400SOL    HW113039   0.959   2.767   2.290
70400SOL    HW213040   0.987   2.877   2.190
70401SOL     OW13041  11.333  11.950   1.868
70401SOL    HW113042  11.270  11.939   1.797
70401SOL    HW213043  11.368  11.862   1.883
70402SOL     OW13044   8.952   4.074  13.496
70402SOL    HW113045   8.907   4.009  13.551
70402SOL    HW213046   9.019   4.023  13.449
70403SOL     OW13047  13.074   9.641  14.076
70403SOL    HW113048  13.134   9.576  14.039
70403SOL    HW213049  13.037   9.686  14.001
70404SOL     OW13050   7.829   1.656   4.143
70404SOL    HW113051   7.830   1.562   4.125
70404SOL    HW213052   7.736   1.678   4.150
70405SOL     OW13053   7.049  14.391   6.050
70405SOL    HW113054   6.971  14.341   6.026
70405SOL    HW213055   7.045  14.395   6.146
70406SOL     OW13056  14.375   2.291  14.183
70406SOL    HW113057  14.465   2.265  14.166
70406SOL    HW213058  14.381   2.354  14.256
70407SOL     OW13059  12.522  12.256   2.551
70407SOL    HW113060  12.567  12.200   2.488
70407SOL    HW213061  12.573  12.248   2.632
70408SOL     OW13062  11.648   9.804   2.733
70408SOL    HW113063  11.717   9.864   2.758
70408SOL    HW213064  11.604   9.781   2.815
70409SOL     OW13065  14.528  13.022  10.350
70409SOL    HW113066  14.535  13.024  10.255
70409SOL    HW213067  14.489  13.107  10.373
70410SOL     OW13068   7.923   2.618  14.420
70410SOL    HW113069   7.928   2.693  14.361
70410SOL    HW213070   7.921   2.656  14.508
70411SOL     OW13071  12.031  10.401   5.345
70411SOL    HW113072  12.031  10.340   5.271
70411SOL    HW213073  12.065  10.350   5.419
70412SOL     OW13074  10.359   5.503   3.909
70412SOL    HW113075  10.445   5.507   3.951
70412SOL    HW213076  10.376   5.524   3.817
70413SOL     OW13077   9.834   0.446   2.109
70413SOL    HW113078   9.855   0.380   2.176
70413SOL    HW213079   9.793   0.397   2.038
70414SOL     OW13080   0.377  12.496   0.230
70414SOL    HW113081   0.410  12.569   0.283
70414SOL    HW213082   0.452  12.467   0.179
70415SOL     OW13083  13.850   1.605  14.828
70415SOL    HW113084  13.902   1.685  14.818
70415SOL    HW213085  13.862   1.557  14.746
70416SOL     OW13086  13.226   7.563   5.377
70416SOL    HW113087  13.209   7.469   5.371
70416SOL    HW213088  13.311   7.569   5.420
70417SOL     OW13089   1.764   5.884  12.685
70417SOL    HW113090   1.706   5.881  12.609
70417SOL    HW213091   1.849   5.913  12.650
70418SOL     OW13092  14.593   9.918   8.720
70418SOL    HW113093  14.610   9.876   8.636
70418SOL    HW213094  14.653   9.993   8.722
70419SOL     OW13095   2.005   8.455  11.294
70419SOL    HW113096   2.059   8.479  11.369
70419SOL    HW213097   2.044   8.502  11.221
70420SOL     OW13098   6.698  10.044  13.821
70420SOL    HW113099   6.711  10.138  13.812
70420SOL    HW213100   6.617  10.026  13.773
70421SOL     OW13101   8.628   7.493   6.374
70421SOL    HW113102   8.702   7.513   6.317
70421SOL    HW213103   8.621   7.398   6.372
70422SOL     OW13104  12.359  10.148   1.040
70422SOL    HW113105  12.363  10.194   1.125
70422SOL    HW213106  12.446  10.108   1.031
70423SOL     OW13107   5.309  12.827   6.569
70423SOL    HW113108   5.315  12.761   6.500
70423SOL    HW213109   5.277  12.779   6.646
70424SOL     OW13110   4.675   9.713   9.778
70424SOL    HW113111   4.697   9.697   9.870
70424SOL    HW213112   4.690   9.629   9.735
70425SOL     OW13113  10.918   8.783   2.648
70425SOL    HW113114  11.012   8.769   2.641
70425SOL    HW213115  10.879   8.702   2.612
70426SOL     OW13116  11.301   3.588  10.043
70426SOL    HW113117  11.306   3.626   9.955
70426SOL    HW213118  11.233   3.638  10.087
70427SOL     OW13119   6.064   8.561   1.007
70427SOL    HW113120   6.036   8.481   1.052
70427SOL    HW213121   6.039   8.632   1.067
70428SOL     OW13122   4.100   9.750   2.672
70428SOL    HW113123   4.155   9.787   2.741
70428SOL    HW213124   4.161   9.726   2.603
70429SOL     OW13125  14.335   7.291   9.223
70429SOL    HW113126  14.369   7.270   9.310
70429SOL    HW213127  14.402   7.347   9.184
70430SOL     OW13128  12.570  14.176   7.728
70430SOL    HW113129  12.544  14.196   7.818
70430SOL    HW213130  12.637  14.108   7.737
70431SOL     OW13131   1.166   1.223   9.935
70431SOL    HW113132   1.128   1.310   9.946
70431SOL    HW213133   1.156   1.204   9.842
70432SOL     OW13134   2.285  12.332   7.049
70432SOL    HW113135   2.219  12.273   7.086
70432SOL    HW213136   2.265  12.417   7.087
70433SOL     OW13137   9.509  10.264   2.744
70433SOL    HW113138   9.462  10.234   2.666
70433SOL    HW213139   9.588  10.209   2.748
70434SOL     OW13140   0.222   9.690   0.278
70434SOL    HW113141   0.222   9.781   0.248
70434SOL    HW213142   0.150   9.686   0.342
70435SOL     OW13143   3.402  12.430  11.993
70435SOL    HW113144   3.397  12.342  12.029
70435SOL    HW213145   3.406  12.487  12.070
70436SOL     OW13146   2.921  11.035   6.263
70436SOL    HW113147   2.986  11.050   6.195
70436SOL    HW213148   2.926  10.941   6.281
70437SOL     OW13149   8.882  14.601  11.262
70437SOL    HW113150   8.874  14.620  11.356
70437SOL    HW213151   8.841  14.676  11.220
70438SOL     OW13152   8.265   0.530   1.064
70438SOL    HW113153   8.262   0.446   1.019
70438SOL    HW213154   8.313   0.588   1.005
70439SOL     OW13155   7.075   5.135  13.820
70439SOL    HW113156   6.989   5.097  13.801
70439SOL    HW213157   7.066   5.172  13.907
70440SOL     OW13158   5.856  13.244  11.014
70440SOL    HW113159   5.874  13.160  10.973
70440SOL    HW213160   5.937  13.293  11.005
70441SOL     OW13161   7.482   9.566  14.530
70441SOL    HW113162   7.415   9.633  14.522
70441SOL    HW213163   7.515   9.555  14.441
70442SOL     OW13164  14.063   6.998   8.959
70442SOL    HW113165  14.095   6.962   8.877
70442SOL    HW213166  14.056   7.092   8.944
70443SOL     OW13167   5.705  11.524   2.494
70443SOL    HW113168   5.783  11.476   2.522
70443SOL    HW213169   5.687  11.585   2.566
70444SOL     OW13170   7.567   4.336  13.623
70444SOL    HW113171   7.644   4.297  13.584
70444SOL    HW213172   7.528   4.266  13.676
70445SOL     OW13173   3.764  12.518   6.615
70445SOL    HW113174   3.822  12.575   6.565
70445SOL    HW213175   3.696  12.576   6.649
70446SOL     OW13176   0.169  13.035   2.887
70446SOL    HW113177   0.145  13.127   2.874
70446SOL    HW213178   0.264  13.034   2.881
70447SOL     OW13179  12.895   9.521  14.316
70447SOL    HW113180  12.955   9.557  14.250
70447SOL    HW213181  12.840   9.595  14.340
70448SOL     OW13182   8.453   3.931  10.519
70448SOL    HW113183   8.453   3.857  10.579
70448SOL    HW213184   8.543   3.938  10.489
70449SOL     OW13185   0.017  11.475   4.905
70449SOL    HW113186   0.087  11.471   4.840
70449SOL    HW213187  14.817  11.506   4.856
70450SOL     OW13188  11.869  13.768   9.782
70450SOL    HW113189  11.861  13.861   9.761
70450SOL    HW213190  11.944  13.739   9.730
70451SOL     OW13191   7.581   8.770   9.712
70451SOL    HW113192   7.597   8.683   9.674
70451SOL    HW213193   7.520   8.754   9.783
70452SOL     OW13194  12.833   8.170   2.062
70452SOL    HW113195  12.773   8.244   2.070
70452SOL    HW213196  12.789   8.110   2.002
70453SOL     OW13197  13.267   7.376  10.161
70453SOL    HW113198  13.215   7.323  10.222
70453SOL    HW213199  13.250   7.466  10.186
70454SOL     OW13200  11.590  13.987   8.802
70454SOL    HW113201  11.633  13.904   8.784
70454SOL    HW213202  11.620  14.046   8.733
70455SOL     OW13203  14.182  12.251   7.020
70455SOL    HW113204  14.246  12.183   7.000
70455SOL    HW213205  14.184  12.308   6.943
70456SOL     OW13206   7.477  13.753   3.085
70456SOL    HW113207   7.566  13.727   3.112
70456SOL    HW213208   7.477  13.740   2.991
70457SOL     OW13209   5.304  14.632  13.240
70457SOL    HW113210   5.324  14.713  13.286
70457SOL    HW213211   5.372  14.626  13.172
70458SOL     OW13212   0.041  10.788  12.933
70458SOL    HW113213   0.055  10.863  12.876
70458SOL    HW213214   0.117  10.732  12.919
70459SOL     OW13215  14.581  14.740  11.184
70459SOL    HW113216  14.627  14.813  11.142
70459SOL    HW213217  14.630  14.663  11.158
70460SOL     OW13218   6.106   1.927  11.319
70460SOL    HW113219   6.134   1.846  11.275
70460SOL    HW213220   6.080   1.899  11.407
70461SOL     OW13221  13.598   3.849   2.462
70461SOL    HW113222  13.608   3.928   2.410
70461SOL    HW213223  13.611   3.877   2.553
70462SOL     OW13224   2.937  13.946   4.146
70462SOL    HW113225   2.993  13.947   4.069
70462SOL    HW213226   2.899  14.034   4.149
70463SOL     OW13227   6.346  13.233   2.634
70463SOL    HW113228   6.368  13.157   2.580
70463SOL    HW213229   6.258  13.213   2.668
70464SOL     OW13230  10.233   3.938  11.517
70464SOL    HW113231  10.304   3.874  11.527
70464SOL    HW213232  10.254   3.983  11.436
70465SOL     OW13233   1.459   0.785   0.451
70465SOL    HW113234   1.532   0.762   0.508
70465SOL    HW213235   1.473   0.877   0.429
70466SOL     OW13236   9.132   2.037  14.609
70466SOL    HW113237   9.203   1.974  14.615
70466SOL    HW213238   9.116   2.047  14.515
70467SOL     OW13239   7.018  13.997   1.072
70467SOL    HW113240   7.101  14.003   1.025
70467SOL    HW213241   6.965  13.936   1.020
70468SOL     OW13242   2.088   4.005   7.346
70468SOL    HW113243   2.016   4.030   7.288
70468SOL    HW213244   2.046   3.980   7.428
70469SOL     OW13245   0.433   8.015   8.543
70469SOL    HW113246   0.513   8.064   8.561
70469SOL    HW213247   0.463   7.925   8.527
70470SOL     OW13248   4.554   5.001   0.137
70470SOL    HW113249   4.519   5.018   0.049
70470SOL    HW213250   4.633   5.053   0.143
70471SOL     OW13251  13.176   8.305   9.322
70471SOL    HW113252  13.271   8.319   9.325
70471SOL    HW213253  13.141   8.367   9.386
70472SOL     OW13254   9.017   6.440  12.556
70472SOL    HW113255   8.999   6.392  12.637
70472SOL    HW213256   8.965   6.394  12.489
70473SOL     OW13257   4.624  10.450  12.183
70473SOL    HW113258   4.702  10.492  12.219
70473SOL    HW213259   4.552  10.508  12.208
70474SOL     OW13260   7.000   2.713  11.800
70474SOL    HW113261   7.075   2.747  11.847
70474SOL    HW213262   6.959   2.790  11.760
70475SOL     OW13263   3.844   2.005  13.293
70475SOL    HW113264   3.855   1.976  13.202
70475SOL    HW213265   3.778   2.075  13.288
70476SOL     OW13266   9.386   4.856  13.874
70476SOL    HW113267   9.352   4.857  13.784
70476SOL    HW213268   9.363   4.942  13.909
70477SOL     OW13269  11.248  12.025   2.665
70477SOL    HW113270  11.304  12.051   2.738
70477SOL    HW213271  11.286  12.070   2.589
70478SOL     OW13272   6.628   4.969   3.187
70478SOL    HW113273   6.594   5.048   3.144
70478SOL    HW213274   6.642   4.995   3.278
70479SOL     OW13275   9.883   9.382   8.727
70479SOL    HW113276   9.800   9.358   8.769
70479SOL    HW213277   9.889   9.476   8.737
70480SOL     OW13278   3.759   9.954   6.833
70480SOL    HW113279   3.689   9.936   6.896
70480SOL    HW213280   3.714   9.980   6.753
70481SOL     OW13281   9.234   6.692  10.503
70481SOL    HW113282   9.282   6.609  10.503
70481SOL    HW213283   9.189   6.694  10.419
70482SOL     OW13284   7.783  14.495   6.942
70482SOL    HW113285   7.746  14.583   6.950
70482SOL    HW213286   7.751  14.462   6.858
70483SOL     OW13287   2.608  13.428  10.584
70483SOL    HW113288   2.557  13.442  10.664
70483SOL    HW213289   2.573  13.492  10.522
70484SOL     OW13290   9.853   4.303  14.684
70484SOL    HW113291   9.794   4.323  14.612
70484SOL    HW213292   9.844   4.209  14.698
70485SOL     OW13293   2.423   4.438   9.032
70485SOL    HW113294   2.334   4.461   9.006
70485SOL    HW213295   2.429   4.343   9.019
70486SOL     OW13296   8.500   0.644  13.481
70486SOL    HW113297   8.453   0.580  13.427
70486SOL    HW213298   8.483   0.728  13.439
70487SOL     OW13299  11.012   1.964   4.054
70487SOL    HW113300  10.986   1.877   4.027
70487SOL    HW213301  11.104   1.970   4.029
70488SOL     OW13302   7.401   0.829   4.072
70488SOL    HW113303   7.457   0.776   4.016
70488SOL    HW213304   7.314   0.789   4.064
70489SOL     OW13305   2.907   2.714   5.469
70489SOL    HW113306   2.857   2.699   5.389
70489SOL    HW213307   2.955   2.633   5.483
70490SOL     OW13308  11.555   4.099  12.137
70490SOL    HW113309  11.467   4.134  12.148
70490SOL    HW213310  11.544   4.024  12.079
70491SOL     OW13311  11.101   2.618   1.134
70491SOL    HW113312  11.191   2.620   1.101
70491SOL    HW213313  11.108   2.592   1.225
70492SOL     OW13314   6.953   1.818   8.984
70492SOL    HW113315   7.021   1.765   8.940
70492SOL    HW213316   6.951   1.899   8.934
70493SOL     OW13317   4.654  12.489  10.154
70493SOL    HW113318   4.596  12.481  10.229
70493SOL    HW213319   4.719  12.419  10.166
70494SOL     OW13320  12.662   8.743   5.702
70494SOL    HW113321  12.738   8.796   5.677
70494SOL    HW213322  12.626   8.787   5.779
70495SOL     OW13323   0.547   1.534   6.880
70495SOL    HW113324   0.491   1.505   6.807
70495SOL    HW213325   0.546   1.460   6.941
70496SOL     OW13326   6.259   2.034   9.564
70496SOL    HW113327   6.285   2.112   9.614
70496SOL    HW213328   6.166   2.023   9.584
70497SOL     OW13329   1.888  12.307   2.158
70497SOL    HW113330   1.796  12.312   2.132
70497SOL    HW213331   1.931  12.374   2.105
70498SOL     OW13332   4.211   4.335  10.270
70498SOL    HW113333   4.250   4.262  10.319
70498SOL    HW213334   4.184   4.397  10.337
70499SOL     OW13335   4.832  10.699   9.758
70499SOL    HW113336   4.807  10.766   9.822
70499SOL    HW213337   4.846  10.748   9.677
70500SOL     OW13338   1.281   7.213   3.894
70500SOL    HW113339   1.305   7.192   3.984
70500SOL    HW213340   1.186   7.215   3.895
70501SOL     OW13341   0.266   9.500   1.909
70501SOL    HW113342   0.351   9.534   1.880
70501SOL    HW213343   0.219   9.481   1.827
70502SOL     OW13344   1.326   4.725   1.346
70502SOL    HW113345   1.419   4.746   1.358
70502SOL    HW213346   1.326   4.657   1.278
70503SOL     OW13347   9.467   6.560  13.636
70503SOL    HW113348   9.400   6.595  13.577
70503SOL    HW213349   9.486   6.632  13.696
70504SOL     OW13350  13.239  11.330  13.404
70504SOL    HW113351  13.293  11.387  13.459
70504SOL    HW213352  13.301  11.271  13.362
70505SOL     OW13353   4.732   5.335   5.958
70505SOL    HW113354   4.788   5.378   5.893
70505SOL    HW213355   4.733   5.243   5.932
70506SOL     OW13356   2.803   2.079   0.834
70506SOL    HW113357   2.744   2.020   0.881
70506SOL    HW213358   2.758   2.164   0.838
70507SOL     OW13359   4.634  12.847  14.487
70507SOL    HW113360   4.716  12.833  14.439
70507SOL    HW213361   4.657  12.827  14.578
70508SOL     OW13362   9.286   2.936   3.793
70508SOL    HW113363   9.381   2.952   3.793
70508SOL    HW213364   9.266   2.910   3.704
70509SOL     OW13365  13.772   4.073   7.040
70509SOL    HW113366  13.794   4.135   7.110
70509SOL    HW213367  13.696   4.112   6.997
70510SOL     OW13368   4.268   7.964  14.716
70510SOL    HW113369   4.252   7.999  14.803
70510SOL    HW213370   4.192   7.992  14.665
70511SOL     OW13371  11.434  13.220   5.741
70511SOL    HW113372  11.439  13.308   5.778
70511SOL    HW213373  11.516  13.178   5.767
70512SOL     OW13374   2.944   9.303   6.642
70512SOL    HW113375   2.964   9.210   6.630
70512SOL    HW213376   3.013   9.349   6.595
70513SOL     OW13377   8.353   9.044   7.653
70513SOL    HW113378   8.412   9.025   7.580
70513SOL    HW213379   8.397   9.006   7.729
70514SOL     OW13380  13.124  14.542  13.687
70514SOL    HW113381  13.166  14.503  13.763
70514SOL    HW213382  13.156  14.632  13.685
70515SOL     OW13383   0.858  12.866   1.271
70515SOL    HW113384   0.779  12.813   1.270
70515SOL    HW213385   0.870  12.889   1.363
70516SOL     OW13386   8.444   5.769   6.940
70516SOL    HW113387   8.390   5.804   7.011
70516SOL    HW213388   8.402   5.686   6.916
70517SOL     OW13389  12.924   1.485   5.188
70517SOL    HW113390  12.846   1.438   5.157
70517SOL    HW213391  12.890   1.553   5.245
70518SOL     OW13392  13.613   4.752  10.499
70518SOL    HW113393  13.616   4.810  10.576
70518SOL    HW213394  13.697   4.707  10.499
70519SOL     OW13395   6.199   7.068   3.422
70519SOL    HW113396   6.263   7.136   3.398
70519SOL    HW213397   6.246   7.011   3.482
70520SOL     OW13398   7.164  14.392   4.366
70520SOL    HW113399   7.247  14.421   4.406
70520SOL    HW213400   7.154  14.449   4.289
70521SOL     OW13401  12.063  10.658   9.072
70521SOL    HW113402  12.133  10.594   9.084
70521SOL    HW213403  12.108  10.742   9.061
70522SOL     OW13404  14.427  10.800   1.228
70522SOL    HW113405  14.373  10.728   1.195
70522SOL    HW213406  14.460  10.844   1.150
70523SOL     OW13407   3.131   0.566   7.652
70523SOL    HW113408   3.163   0.627   7.718
70523SOL    HW213409   3.041   0.593   7.635
70524SOL     OW13410   5.851   8.058   9.033
70524SOL    HW113411   5.793   7.987   9.007
70524SOL    HW213412   5.796   8.137   9.027
70525SOL     OW13413  10.137  12.856  14.227
70525SOL    HW113414  10.138  12.767  14.193
70525SOL    HW213415  10.225  12.869  14.263
70526SOL     OW13416   5.423  11.700  14.863
70526SOL    HW113417   5.405  11.761   0.057
70526SOL    HW213418   5.343  11.698  14.811
70527SOL     OW13419   7.977   6.433   6.109
70527SOL    HW113420   7.947   6.478   6.188
70527SOL    HW213421   7.897   6.414   6.060
70528SOL     OW13422   3.128  11.877   1.693
70528SOL    HW113423   3.142  11.858   1.600
70528SOL    HW213424   3.179  11.811   1.739
70529SOL     OW13425  14.793   6.226  14.487
70529SOL    HW113426  14.767   6.142  14.450
70529SOL    HW213427   0.012   6.219  14.497
70530SOL     OW13428   1.440  12.265   1.473
70530SOL    HW113429   1.459  12.174   1.492
70530SOL    HW213430   1.401  12.299   1.554
70531SOL     OW13431   2.180  11.271  14.367
70531SOL    HW113432   2.139  11.209  14.427
70531SOL    HW213433   2.160  11.237  14.280
70532SOL     OW13434   7.142   9.356   0.924
70532SOL    HW113435   7.095   9.439   0.931
70532SOL    HW213436   7.145   9.337   0.830
70533SOL     OW13437   3.982   0.928  13.233
70533SOL    HW113438   3.958   1.002  13.289
70533SOL    HW213439   4.065   0.954  13.193
70534SOL     OW13440   0.103   7.181  10.157
70534SOL    HW113441   0.033   7.229  10.200
70534SOL    HW213442   0.062   7.099  10.128
70535SOL     OW13443   8.976   4.956   0.134
70535SOL    HW113444   9.004   4.976   0.044
70535SOL    HW213445   9.047   4.902   0.169
70536SOL     OW13446   7.730   2.534  11.564
70536SOL    HW113447   7.654   2.480  11.583
70536SOL    HW213448   7.696   2.606  11.511
70537SOL     OW13449  13.280   4.585   2.139
70537SOL    HW113450  13.264   4.552   2.051
70537SOL    HW213451  13.272   4.509   2.195
70538SOL     OW13452  14.561   7.168   0.031
70538SOL    HW113453  14.586   7.113  14.833
70538SOL    HW213454  14.472   7.196   0.011
70539SOL     OW13455  12.342   8.651   3.068
70539SOL    HW113456  12.374   8.675   2.981
70539SOL    HW213457  12.267   8.707   3.083
70540SOL     OW13458  11.278  13.796   1.941
70540SOL    HW113459  11.226  13.752   2.009
70540SOL    HW213460  11.217  13.859   1.902
70541SOL     OW13461   4.923   3.805   8.965
70541SOL    HW113462   4.956   3.891   8.990
70541SOL    HW213463   4.955   3.746   9.034
70542SOL     OW13464  14.489   0.943  14.732
70542SOL    HW113465  14.483   1.038  14.747
70542SOL    HW213466  14.441   0.929  14.650
70543SOL     OW13467  10.272   2.255   1.040
70543SOL    HW113468  10.325   2.199   0.983
70543SOL    HW213469  10.332   2.284   1.108
70544SOL     OW13470  10.579  14.608   4.312
70544SOL    HW113471  10.560  14.517   4.288
70544SOL    HW213472  10.662  14.628   4.268
70545SOL     OW13473   0.013   6.981   1.757
70545SOL    HW113474   0.083   6.978   1.691
70545SOL    HW213475   0.045   7.043   1.822
70546SOL     OW13476  11.293   4.347   2.079
70546SOL    HW113477  11.314   4.438   2.060
70546SOL    HW213478  11.210   4.351   2.128
70547SOL     OW13479   2.317   9.934  14.482
70547SOL    HW113480   2.241   9.982  14.451
70547SOL    HW213481   2.358   9.900  14.403
70548SOL     OW13482   9.713  11.391   4.815
70548SOL    HW113483   9.723  11.381   4.909
70548SOL    HW213484   9.791  11.350   4.778
70549SOL     OW13485  10.098   8.985   0.403
70549SOL    HW113486  10.059   9.060   0.449
70549SOL    HW213487  10.152   8.942   0.469
70550SOL     OW13488   5.661  13.719  12.746
70550SOL    HW113489   5.629  13.636  12.782
70550SOL    HW213490   5.747  13.731  12.785
70551SOL     OW13491   4.232  10.638   2.082
70551SOL    HW113492   4.173  10.705   2.116
70551SOL    HW213493   4.306  10.638   2.142
70552SOL     OW13494   6.372  11.706   6.526
70552SOL    HW113495   6.388  11.648   6.451
70552SOL    HW213496   6.449  11.696   6.581
70553SOL     OW13497   7.983   2.257   7.049
70553SOL    HW113498   8.050   2.242   7.115
70553SOL    HW213499   8.017   2.328   6.995
70554SOL     OW13500   6.797   9.357  12.499
70554SOL    HW113501   6.796   9.285  12.562
70554SOL    HW213502   6.748   9.324  12.424
70555SOL     OW13503   7.124   4.974   5.341
70555SOL    HW113504   7.073   5.053   5.358
70555SOL    HW213505   7.064   4.902   5.361
70556SOL     OW13506   7.577   3.286   2.681
70556SOL    HW113507   7.508   3.301   2.616
70556SOL    HW213508   7.531   3.263   2.761
70557SOL     OW13509   9.722  13.675  11.842
70557SOL    HW113510   9.803  13.628  11.824
70557SOL    HW213511   9.676  13.676  11.758
70558SOL     OW13512   7.516   3.913   0.122
70558SOL    HW113513   7.610   3.898   0.111
70558SOL    HW213514   7.501   4.000   0.087
70559SOL     OW13515   7.627   2.671  10.720
70559SOL    HW113516   7.535   2.649  10.732
70559SOL    HW213517   7.627   2.740  10.652
70560SOL     OW13518   4.855  10.319  12.379
70560SOL    HW113519   4.876  10.319  12.473
70560SOL    HW213520   4.808  10.237  12.365
70561SOL     OW13521   4.205   5.568  13.454
70561SOL    HW113522   4.228   5.599  13.366
70561SOL    HW213523   4.266   5.496  13.472
70562SOL     OW13524   7.725   3.010  12.760
70562SOL    HW113525   7.653   3.061  12.723
70562SOL    HW213526   7.696   2.919  12.752
70563SOL     OW13527   7.882   7.095  12.734
70563SOL    HW113528   7.929   7.018  12.767
70563SOL    HW213529   7.834   7.063  12.658
70564SOL     OW13530   9.051   7.200   4.961
70564SOL    HW113531   8.965   7.205   5.003
70564SOL    HW213532   9.036   7.235   4.873
70565SOL     OW13533   6.603   9.774  10.622
70565SOL    HW113534   6.557   9.804  10.544
70565SOL    HW213535   6.625   9.682  10.603
70566SOL     OW13536   7.336   2.261   0.924
70566SOL    HW113537   7.273   2.320   0.965
70566SOL    HW213538   7.366   2.205   0.995
70567SOL     OW13539   0.863   4.268   6.167
70567SOL    HW113540   0.900   4.328   6.232
70567SOL    HW213541   0.914   4.284   6.088
70568SOL     OW13542   9.924   6.947   9.126
70568SOL    HW113543   9.970   7.024   9.095
70568SOL    HW213544   9.915   6.891   9.049
70569SOL     OW13545   1.370  10.725   4.438
70569SOL    HW113546   1.459  10.690   4.434
70569SOL    HW213547   1.375  10.809   4.392
70570SOL     OW13548   1.052   6.129  12.694
70570SOL    HW113549   0.978   6.177  12.657
70570SOL    HW213550   1.072   6.062  12.629
70571SOL     OW13551  11.089   0.065  12.720
70571SOL    HW113552  11.169   0.037  12.765
70571SOL    HW213553  11.081   0.005  12.646
70572SOL     OW13554  10.752   1.431   0.876
70572SOL    HW113555  10.801   1.400   0.953
70572SOL    HW213556  10.696   1.357   0.853
70573SOL     OW13557  14.674  14.691   4.188
70573SOL    HW113558  14.608  14.644   4.237
70573SOL    HW213559  14.755  14.640   4.200
70574SOL     OW13560   7.379   3.080  13.343
70574SOL    HW113561   7.408   2.993  13.371
70574SOL    HW213562   7.289   3.067  13.315
70575SOL     OW13563   1.538   4.859   5.343
70575SOL    HW113564   1.458   4.905   5.317
70575SOL    HW213565   1.522   4.832   5.433
70576SOL     OW13566   9.697   2.002  14.327
70576SOL    HW113567   9.616   1.973  14.284
70576SOL    HW213568   9.702   2.096  14.306
70577SOL     OW13569   9.272  14.622   4.024
70577SOL    HW113570   9.259  14.551   4.087
70577SOL    HW213571   9.213  14.601   3.952
70578SOL     OW13572  10.596  10.696  12.762
70578SOL    HW113573  10.624  10.676  12.673
70578SOL    HW213574  10.522  10.637  12.778
70579SOL     OW13575   8.175  10.721  11.354
70579SOL    HW113576   8.102  10.730  11.292
70579SOL    HW213577   8.224  10.645  11.322
70580SOL     OW13578   0.092  14.854   6.492
70580SOL    HW113579   0.002   0.004   6.513
70580SOL    HW213580   0.113   0.025   6.412
70581SOL     OW13581   9.484   7.822  12.369
70581SOL    HW113582   9.500   7.739  12.413
70581SOL    HW213583   9.389   7.828  12.362
70582SOL     OW13584   2.618   7.539  13.975
70582SOL    HW113585   2.643   7.539  14.067
70582SOL    HW213586   2.702   7.539  13.927
70583SOL     OW13587   7.264   6.289   9.570
70583SOL    HW113588   7.271   6.310   9.476
70583SOL    HW213589   7.351   6.308   9.605
70584SOL     OW13590  13.351  12.956   4.701
70584SOL    HW113591  13.346  12.912   4.786
70584SOL    HW213592  13.444  12.954   4.679
70585SOL     OW13593   2.613  11.097  13.627
70585SOL    HW113594   2.625  11.176  13.682
70585SOL    HW213595   2.551  11.043  13.676
70586SOL     OW13596  10.700   5.814  13.145
70586SOL    HW113597  10.714   5.732  13.192
70586SOL    HW213598  10.658   5.871  13.209
70587SOL     OW13599   1.066  13.929   4.872
70587SOL    HW113600   1.135  13.876   4.831
70587SOL    HW213601   1.022  13.971   4.799
70588SOL     OW13602  13.973   0.262   5.829
70588SOL    HW113603  14.021   0.201   5.773
70588SOL    HW213604  14.041   0.318   5.867
70589SOL     OW13605   0.651   8.069  13.299
70589SOL    HW113606   0.706   7.991  13.307
70589SOL    HW213607   0.694   8.134  13.355
70590SOL     OW13608   8.766   4.215   4.290
70590SOL    HW113609   8.747   4.309   4.286
70590SOL    HW213610   8.824   4.206   4.366
70591SOL     OW13611  11.948   9.379   7.211
70591SOL    HW113612  12.018   9.344   7.157
70591SOL    HW213613  11.902   9.302   7.245
70592SOL     OW13614  10.160   9.878  10.521
70592SOL    HW113615  10.169   9.858  10.428
70592SOL    HW213616  10.235   9.934  10.541
70593SOL     OW13617   0.782   2.843   9.842
70593SOL    HW113618   0.818   2.903   9.776
70593SOL    HW213619   0.818   2.758   9.818
70594SOL     OW13620  14.106  10.488   9.956
70594SOL    HW113621  14.131  10.397   9.943
70594SOL    HW213622  14.104  10.499  10.052
70595SOL     OW13623   7.365   1.879   1.240
70595SOL    HW113624   7.335   1.902   1.328
70595SOL    HW213625   7.299   1.816   1.208
70596SOL     OW13626   2.802   3.112   4.056
70596SOL    HW113627   2.778   3.127   4.147
70596SOL    HW213628   2.818   3.018   4.050
70597SOL     OW13629   9.553   7.502   1.499
70597SOL    HW113630   9.462   7.501   1.469
70597SOL    HW213631   9.599   7.557   1.436
70598SOL     OW13632   4.459  11.205   4.929
70598SOL    HW113633   4.478  11.145   5.001
70598SOL    HW213634   4.482  11.291   4.964
70599SOL     OW13635   0.429   3.105   7.489
70599SOL    HW113636   0.463   3.169   7.551
70599SOL    HW213637   0.499   3.041   7.481
70600SOL     OW13638  14.453   8.440   9.317
70600SOL    HW113639  14.399   8.429   9.239
70600SOL    HW213640  14.505   8.359   9.321
70601SOL     OW13641   7.348   1.656   4.764
70601SOL    HW113642   7.344   1.564   4.738
70601SOL    HW213643   7.260   1.676   4.796
70602SOL     OW13644   0.988   0.480   4.609
70602SOL    HW113645   0.903   0.438   4.596
70602SOL    HW213646   1.022   0.442   4.690
70603SOL     OW13647   9.872   7.081  11.889
70603SOL    HW113648   9.887   7.066  11.982
70603SOL    HW213649   9.879   7.176  11.879
70604SOL     OW13650   1.835  12.390   5.071
70604SOL    HW113651   1.864  12.481   5.074
70604SOL    HW213652   1.750  12.394   5.027
70605SOL     OW13653   3.257  10.120  10.233
70605SOL    HW113654   3.344  10.152  10.258
70605SOL    HW213655   3.239  10.165  10.151
70606SOL     OW13656  10.474  12.331   3.671
70606SOL    HW113657  10.562  12.295   3.664
70606SOL    HW213658  10.483  12.422   3.642
70607SOL     OW13659   1.396   3.067   8.757
70607SOL    HW113660   1.362   3.099   8.673
70607SOL    HW213661   1.455   2.995   8.734
70608SOL     OW13662   8.978   7.332   5.980
70608SOL    HW113663   9.036   7.377   6.042
70608SOL    HW213664   8.933   7.266   6.034
70609SOL     OW13665   5.420   3.171  11.248
70609SOL    HW113666   5.428   3.085  11.207
70609SOL    HW213667   5.405   3.151  11.341
70610SOL     OW13668   0.940   4.784   9.148
70610SOL    HW113669   0.969   4.856   9.205
70610SOL    HW213670   0.860   4.752   9.190
70611SOL     OW13671   1.228  14.802   7.024
70611SOL    HW113672   1.285  14.851   7.084
70611SOL    HW213673   1.165  14.759   7.082
70612SOL     OW13674   5.583   3.276  11.656
70612SOL    HW113675   5.589   3.364  11.618
70612SOL    HW213676   5.510   3.235  11.610
70613SOL     OW13677   3.960   4.951   4.540
70613SOL    HW113678   3.944   5.041   4.513
70613SOL    HW213679   4.023   4.958   4.611
70614SOL     OW13680   2.257   6.658   0.456
70614SOL    HW113681   2.219   6.588   0.510
70614SOL    HW213682   2.332   6.618   0.414
70615SOL     OW13683  13.887   0.933   8.689
70615SOL    HW113684  13.965   0.886   8.657
70615SOL    HW213685  13.838   0.867   8.738
70616SOL     OW13686   6.348   1.347  10.571
70616SOL    HW113687   6.315   1.414  10.511
70616SOL    HW213688   6.275   1.329  10.630
70617SOL     OW13689   3.677   4.788   9.677
70617SOL    HW113690   3.602   4.756   9.727
70617SOL    HW213691   3.680   4.882   9.696
70618SOL     OW13692   3.176   0.681   6.017
70618SOL    HW113693   3.129   0.628   5.953
70618SOL    HW213694   3.206   0.758   5.969
70619SOL     OW13695  12.317   2.490   0.913
70619SOL    HW113696  12.287   2.426   0.848
70619SOL    HW213697  12.241   2.507   0.968
70620SOL     OW13698   7.441  14.338  11.152
70620SOL    HW113699   7.420  14.291  11.072
70620SOL    HW213700   7.356  14.361  11.190
70621SOL     OW13701   3.414  11.762   6.523
70621SOL    HW113702   3.409  11.706   6.600
70621SOL    HW213703   3.324  11.765   6.491
70622SOL     OW13704  14.082   6.419   5.932
70622SOL    HW113705  14.037   6.468   5.864
70622SOL    HW213706  14.115   6.485   5.992
70623SOL     OW13707   7.346   3.237   5.621
70623SOL    HW113708   7.313   3.167   5.679
70623SOL    HW213709   7.355   3.313   5.678
70624SOL     OW13710   8.557  12.208   7.045
70624SOL    HW113711   8.475  12.188   6.999
70624SOL    HW213712   8.554  12.153   7.123
70625SOL     OW13713   6.402  11.670  12.952
70625SOL    HW113714   6.456  11.664  12.873
70625SOL    HW213715   6.444  11.611  13.014
70626SOL     OW13716   8.182  10.839  12.466
70626SOL    HW113717   8.163  10.860  12.557
70626SOL    HW213718   8.113  10.884  12.416
70627SOL     OW13719  11.580   2.750   7.563
70627SOL    HW113720  11.628   2.685   7.512
70627SOL    HW213721  11.532   2.801   7.497
70628SOL     OW13722   4.264  12.991  14.058
70628SOL    HW113723   4.220  12.908  14.075
70628SOL    HW213724   4.328  13.000  14.129
70629SOL     OW13725  14.411   9.879   5.487
70629SOL    HW113726  14.425   9.927   5.405
70629SOL    HW213727  14.333   9.827   5.470
70630SOL     OW13728   5.311   1.925  14.841
70630SOL    HW113729   5.289   1.931  14.748
70630SOL    HW213730   5.294   1.834  14.865
70631SOL     OW13731  10.231   6.947  12.153
70631SOL    HW113732  10.201   6.951  12.243
70631SOL    HW213733  10.223   7.036  12.120
70632SOL     OW13734  13.440  13.393   6.450
70632SOL    HW113735  13.377  13.323   6.434
70632SOL    HW213736  13.403  13.441   6.525
70633SOL     OW13737   3.257   0.042   0.535
70633SOL    HW113738   3.190   0.060   0.468
70633SOL    HW213739   3.245   0.112   0.600
70634SOL     OW13740   3.822   4.961  13.777
70634SOL    HW113741   3.820   5.017  13.854
70634SOL    HW213742   3.731   4.939  13.760
70635SOL     OW13743   0.733  14.657  14.432
70635SOL    HW113744   0.813  14.605  14.438
70635SOL    HW213745   0.762  14.743  14.403
70636SOL     OW13746   8.944  11.978   1.272
70636SOL    HW113747   9.028  11.961   1.314
70636SOL    HW213748   8.888  12.008   1.344
70637SOL     OW13749   6.354  11.875   4.821
70637SOL    HW113750   6.345  11.823   4.901
70637SOL    HW213751   6.334  11.813   4.750
70638SOL     OW13752   6.833   8.224   8.802
70638SOL    HW113753   6.843   8.135   8.767
70638SOL    HW213754   6.896   8.228   8.873
70639SOL     OW13755   8.674  10.409   3.532
70639SOL    HW113756   8.668  10.380   3.623
70639SOL    HW213757   8.752  10.365   3.498
70640SOL     OW13758  14.614   1.212   2.122
70640SOL    HW113759  14.539   1.160   2.149
70640SOL    HW213760  14.644   1.170   2.041
70641SOL     OW13761  13.268   2.177   5.839
70641SOL    HW113762  13.217   2.097   5.853
70641SOL    HW213763  13.263   2.192   5.745
70642SOL     OW13764   2.546  13.131  11.428
70642SOL    HW113765   2.452  13.128  11.415
70642SOL    HW213766   2.566  13.225  11.435
70643SOL     OW13767  12.849   3.930   4.912
70643SOL    HW113768  12.866   4.012   4.957
70643SOL    HW213769  12.759   3.907   4.938
70644SOL     OW13770  11.509  10.583  10.558
70644SOL    HW113771  11.522  10.552  10.648
70644SOL    HW213772  11.529  10.507  10.503
70645SOL     OW13773   0.887  12.949  14.474
70645SOL    HW113774   0.883  13.039  14.506
70645SOL    HW213775   0.908  12.958  14.381
70646SOL     OW13776  13.409  10.212   9.542
70646SOL    HW113777  13.437  10.225   9.632
70646SOL    HW213778  13.435  10.292   9.496
70647SOL     OW13779   3.326   3.416  11.092
70647SOL    HW113780   3.236   3.424  11.123
70647SOL    HW213781   3.344   3.322  11.094
70648SOL     OW13782   8.199   5.584   9.040
70648SOL    HW113783   8.165   5.495   9.041
70648SOL    HW213784   8.261   5.587   9.112
70649SOL     OW13785   1.146  11.213   3.088
70649SOL    HW113786   1.108  11.185   3.005
70649SOL    HW213787   1.237  11.184   3.084
70650SOL     OW13788  10.886   3.000   2.074
70650SOL    HW113789  10.827   3.074   2.090
70650SOL    HW213790  10.927   2.984   2.159
70651SOL     OW13791   7.368   5.135   2.458
70651SOL    HW113792   7.383   5.052   2.412
70651SOL    HW213793   7.455   5.169   2.474
70652SOL     OW13794  13.869   3.792   7.552
70652SOL    HW113795  13.855   3.732   7.478
70652SOL    HW213796  13.804   3.861   7.538
70653SOL     OW13797   0.257  13.288  12.942
70653SOL    HW113798   0.256  13.246  13.028
70653SOL    HW213799   0.330  13.350  12.946
70654SOL     OW13800  12.262   8.186   9.132
70654SOL    HW113801  12.201   8.126   9.175
70654SOL    HW213802  12.305   8.132   9.065
70655SOL     OW13803   9.467   6.893   2.096
70655SOL    HW113804   9.384   6.913   2.139
70655SOL    HW213805   9.460   6.935   2.010
70656SOL     OW13806   6.981  12.263   2.146
70656SOL    HW113807   7.058  12.216   2.115
70656SOL    HW213808   7.007  12.298   2.231
70657SOL     OW13809   3.411  10.069  12.443
70657SOL    HW113810   3.421   9.974  12.433
70657SOL    HW213811   3.402  10.101  12.353
70658SOL     OW13812  10.968   7.024   1.909
70658SOL    HW113813  11.046   7.077   1.926
70658SOL    HW213814  10.974   6.951   1.971
70659SOL     OW13815   4.225   5.527   2.606
70659SOL    HW113816   4.187   5.519   2.519
70659SOL    HW213817   4.289   5.598   2.598
70660SOL     OW13818   9.446   9.797   7.487
70660SOL    HW113819   9.409   9.711   7.506
70660SOL    HW213820   9.429   9.811   7.394
70661SOL     OW13821  12.870   2.625   2.397
70661SOL    HW113822  12.893   2.542   2.356
70661SOL    HW213823  12.894   2.613   2.489
70662SOL     OW13824   3.844  11.903   5.582
70662SOL    HW113825   3.836  11.998   5.595
70662SOL    HW213826   3.780  11.884   5.513
70663SOL     OW13827   6.800   2.638   6.304
70663SOL    HW113828   6.720   2.630   6.251
70663SOL    HW213829   6.863   2.580   6.261
70664SOL     OW13830  11.229   6.589   6.395
70664SOL    HW113831  11.253   6.667   6.345
70664SOL    HW213832  11.262   6.516   6.343
70665SOL     OW13833   8.656  11.908   3.008
70665SOL    HW113834   8.585  11.961   3.044
70665SOL    HW213835   8.713  11.890   3.082
70666SOL     OW13836  12.624   4.652  13.379
70666SOL    HW113837  12.631   4.633  13.285
70666SOL    HW213838  12.702   4.612  13.417
70667SOL     OW13839  13.996   7.946   3.439
70667SOL    HW113840  14.038   7.874   3.486
70667SOL    HW213841  13.974   7.909   3.354
70668SOL     OW13842   6.003   2.168   2.755
70668SOL    HW113843   6.005   2.117   2.836
70668SOL    HW213844   6.060   2.120   2.695
70669SOL     OW13845   2.714   5.800   6.257
70669SOL    HW113846   2.709   5.747   6.178
70669SOL    HW213847   2.752   5.883   6.229
70670SOL     OW13848   9.213  10.842  11.375
70670SOL    HW113849   9.215  10.775  11.306
70670SOL    HW213850   9.258  10.801  11.449
70671SOL     OW13851  10.609   5.787   5.471
70671SOL    HW113852  10.646   5.764   5.387
70671SOL    HW213853  10.610   5.883   5.473
70672SOL     OW13854   3.486  12.712   2.138
70672SOL    HW113855   3.393  12.721   2.154
70672SOL    HW213856   3.514  12.643   2.198
70673SOL     OW13857   1.543   1.368   2.697
70673SOL    HW113858   1.586   1.449   2.722
70673SOL    HW213859   1.531   1.376   2.602
70674SOL     OW13860   1.640   9.959  10.600
70674SOL    HW113861   1.576  10.005  10.655
70674SOL    HW213862   1.725   9.984  10.635
70675SOL     OW13863   6.113   1.742   0.670
70675SOL    HW113864   6.074   1.827   0.688
70675SOL    HW213865   6.044   1.679   0.688
70676SOL     OW13866   3.418  11.008   7.445
70676SOL    HW113867   3.444  11.018   7.537
70676SOL    HW213868   3.322  11.011   7.447
70677SOL     OW13869   7.400  11.513  12.591
70677SOL    HW113870   7.402  11.574  12.665
70677SOL    HW213871   7.457  11.441  12.618
70678SOL     OW13872   2.805   1.802   9.927
70678SOL    HW113873   2.846   1.720   9.955
70678SOL    HW213874   2.741   1.822   9.996
70679SOL     OW13875   6.432   0.742   3.964
70679SOL    HW113876   6.436   0.685   3.888
70679SOL    HW213877   6.400   0.826   3.929
70680SOL     OW13878   7.379   7.344  10.998
70680SOL    HW113879   7.444   7.278  10.973
70680SOL    HW213880   7.427   7.427  10.990
70681SOL     OW13881  13.336   8.820   1.124
70681SOL    HW113882  13.431   8.829   1.133
70681SOL    HW213883  13.300   8.883   1.186
70682SOL     OW13884  12.761  10.819   4.787
70682SOL    HW113885  12.722  10.737   4.819
70682SOL    HW213886  12.787  10.865   4.867
70683SOL     OW13887   0.184  12.833   3.734
70683SOL    HW113888   0.235  12.836   3.653
70683SOL    HW213889   0.246  12.860   3.802
70684SOL     OW13890  10.741   1.957  11.206
70684SOL    HW113891  10.658   1.968  11.252
70684SOL    HW213892  10.724   1.995  11.119
70685SOL     OW13893   6.689  12.408   5.843
70685SOL    HW113894   6.700  12.492   5.887
70685SOL    HW213895   6.743  12.416   5.764
70686SOL     OW13896  14.733   9.972   1.726
70686SOL    HW113897  14.654   9.938   1.769
70686SOL    HW213898  14.805   9.930   1.772
70687SOL     OW13899  11.243   4.180   3.463
70687SOL    HW113900  11.160   4.218   3.436
70687SOL    HW213901  11.226   4.086   3.470
70688SOL     OW13902   7.253   8.900   3.249
70688SOL    HW113903   7.276   8.904   3.342
70688SOL    HW213904   7.320   8.843   3.211
70689SOL     OW13905   8.693   5.360   9.858
70689SOL    HW113906   8.621   5.311   9.818
70689SOL    HW213907   8.769   5.302   9.846
70690SOL     OW13908   7.940  13.865  11.105
70690SOL    HW113909   7.895  13.925  11.045
70690SOL    HW213910   7.960  13.789  11.051
70691SOL     OW13911  11.787   5.191   8.814
70691SOL    HW113912  11.805   5.240   8.894
70691SOL    HW213913  11.718   5.129   8.838
70692SOL     OW13914   9.412   3.849  13.796
70692SOL    HW113915   9.353   3.784  13.758
70692SOL    HW213916   9.396   3.929  13.746
70693SOL     OW13917   4.878   8.924  14.224
70693SOL    HW113918   4.926   8.842  14.232
70693SOL    HW213919   4.928   8.987  14.276
70694SOL     OW13920   2.059   2.662   0.470
70694SOL    HW113921   1.969   2.693   0.472
70694SOL    HW213922   2.092   2.677   0.559
70695SOL     OW13923   4.120   3.635  13.873
70695SOL    HW113924   4.215   3.625  13.865
70695SOL    HW213925   4.084   3.552  13.841
70696SOL     OW13926  11.848   4.718   9.491
70696SOL    HW113927  11.936   4.697   9.459
70696SOL    HW213928  11.849   4.692   9.583
70697SOL     OW13929  12.580   5.578  10.956
70697SOL    HW113930  12.594   5.538  10.870
70697SOL    HW213931  12.568   5.671  10.937
70698SOL     OW13932  14.016   5.279   3.387
70698SOL    HW113933  14.087   5.340   3.406
70698SOL    HW213934  14.002   5.233   3.470
70699SOL     OW13935   8.177  11.314  10.790
70699SOL    HW113936   8.186  11.300  10.695
70699SOL    HW213937   8.095  11.270  10.813
70700SOL     OW13938   3.845   0.688   0.213
70700SOL    HW113939   3.897   0.687   0.294
70700SOL    HW213940   3.776   0.624   0.229
70701SOL     OW13941   8.955   0.517   7.311
70701SOL    HW113942   9.028   0.579   7.319
70701SOL    HW213943   8.878   0.566   7.339
70702SOL     OW13944  12.391   1.212   4.785
70702SOL    HW113945  12.432   1.296   4.763
70702SOL    HW213946  12.326   1.198   4.717
70703SOL     OW13947   7.536  10.318  10.148
70703SOL    HW113948   7.614  10.262  10.154
70703SOL    HW213949   7.562  10.399  10.192
70704SOL     OW13950   8.812   9.086   6.970
70704SOL    HW113951   8.900   9.059   6.945
70704SOL    HW213952   8.776   9.011   7.017
70705SOL     OW13953  11.253   2.696   0.359
70705SOL    HW113954  11.322   2.713   0.423
70705SOL    HW213955  11.173   2.725   0.402
70706SOL     OW13956   1.437   9.486   6.354
70706SOL    HW113957   1.530   9.501   6.338
70706SOL    HW213958   1.430   9.474   6.448
70707SOL     OW13959   9.050  11.966  12.330
70707SOL    HW113960   9.088  11.960  12.417
70707SOL    HW213961   8.956  11.955  12.344
70708SOL     OW13962   2.500   8.401  10.831
70708SOL    HW113963   2.567   8.467  10.817
70708SOL    HW213964   2.418   8.443  10.805
70709SOL     OW13965  13.988  13.952   4.699
70709SOL    HW113966  14.052  13.937   4.630
70709SOL    HW213967  14.033  14.011   4.760
70710SOL     OW13968  10.337  13.734   4.072
70710SOL    HW113969  10.404  13.666   4.066
70710SOL    HW213970  10.359  13.784   4.150
70711SOL     OW13971  11.125   2.389   0.404
70711SOL    HW113972  11.184   2.463   0.390
70711SOL    HW213973  11.124   2.376   0.499
70712SOL     OW13974   1.760   2.508   2.558
70712SOL    HW113975   1.673   2.499   2.598
70712SOL    HW213976   1.748   2.478   2.468
70713SOL     OW13977  12.076   1.075   5.810
70713SOL    HW113978  12.092   1.003   5.871
70713SOL    HW213979  12.023   1.037   5.741
70714SOL     OW13980   1.924   0.542   5.045
70714SOL    HW113981   1.975   0.539   4.964
70714SOL    HW213982   1.851   0.482   5.029
70715SOL     OW13983   1.386  10.567  12.108
70715SOL    HW113984   1.436  10.620  12.046
70715SOL    HW213985   1.394  10.613  12.192
70716SOL     OW13986   2.008   3.643   9.124
70716SOL    HW113987   2.057   3.567   9.154
70716SOL    HW213988   2.076   3.706   9.098
70717SOL     OW13989   8.943   7.320  11.823
70717SOL    HW113990   8.922   7.411  11.844
70717SOL    HW213991   8.950   7.277  11.908
70718SOL     OW13992  11.754   2.040  12.444
70718SOL    HW113993  11.805   1.959  12.453
70718SOL    HW213994  11.690   2.021  12.375
70719SOL     OW13995  11.670  14.510   7.027
70719SOL    HW113996  11.620  14.489   7.106
70719SOL    HW213997  11.664  14.605   7.019
70720SOL     OW13998  13.439   5.471  14.869
70720SOL    HW113999  13.421   5.394   0.047
70720SOL    HW214000  13.374   5.535   0.020
70721SOL     OW14001   0.687   0.760   9.008
70721SOL    HW114002   0.770   0.734   8.968
70721SOL    HW214003   0.705   0.844   9.050
70722SOL     OW14004  12.789   1.238   1.805
70722SOL    HW114005  12.870   1.285   1.825
70722SOL    HW214006  12.766   1.267   1.717
70723SOL     OW14007   2.489   8.932  10.522
70723SOL    HW114008   2.546   8.932  10.599
70723SOL    HW214009   2.536   8.879  10.457
70724SOL     OW14010   4.941  13.426  13.782
70724SOL    HW114011   4.924  13.338  13.747
70724SOL    HW214012   5.035  13.428  13.798
70725SOL     OW14013   2.022   4.083   0.923
70725SOL    HW114014   1.934   4.085   0.887
70725SOL    HW214015   2.076   4.043   0.855
70726SOL     OW14016  11.552   1.849  10.486
70726SOL    HW114017  11.466   1.825  10.452
70726SOL    HW214018  11.540   1.855  10.581
70727SOL     OW14019   4.291   4.533   9.296
70727SOL    HW114020   4.294   4.437   9.287
70727SOL    HW214021   4.202   4.552   9.322
70728SOL     OW14022   7.750   0.330   7.899
70728SOL    HW114023   7.750   0.425   7.905
70728SOL    HW214024   7.677   0.302   7.955
70729SOL     OW14025  10.981   9.207   1.788
70729SOL    HW114026  10.986   9.278   1.852
70729SOL    HW214027  11.072   9.178   1.778
70730SOL     OW14028  11.781   4.428   3.686
70730SOL    HW114029  11.798   4.363   3.754
70730SOL    HW214030  11.699   4.400   3.646
70731SOL     OW14031   7.603   3.877  10.477
70731SOL    HW114032   7.673   3.889  10.542
70731SOL    HW214033   7.523   3.899  10.524
70732SOL     OW14034   5.508   4.256  13.590
70732SOL    HW114035   5.539   4.338  13.553
70732SOL    HW214036   5.563   4.189  13.548
70733SOL     OW14037  10.073  12.462   0.044
70733SOL    HW114038  10.067  12.557   0.031
70733SOL    HW214039  10.116  12.452   0.129
70734SOL     OW14040  12.400   8.733   4.762
70734SOL    HW114041  12.419   8.644   4.732
70734SOL    HW214042  12.335   8.766   4.700
70735SOL     OW14043  13.831  11.024   2.340
70735SOL    HW114044  13.891  10.980   2.401
70735SOL    HW214045  13.822  10.962   2.268
70736SOL     OW14046   5.367   2.843   7.103
70736SOL    HW114047   5.405   2.923   7.139
70736SOL    HW214048   5.293   2.824   7.162
70737SOL     OW14049   9.689   0.665   0.786
70737SOL    HW114050   9.776   0.698   0.809
70737SOL    HW214051   9.634   0.690   0.860
70738SOL     OW14052  11.622   5.975   0.729
70738SOL    HW114053  11.632   6.023   0.812
70738SOL    HW214054  11.653   6.036   0.662
70739SOL     OW14055   2.191   9.443   9.782
70739SOL    HW114056   2.162   9.470   9.869
70739SOL    HW214057   2.282   9.417   9.794
70740SOL     OW14058  13.662  11.060   0.423
70740SOL    HW114059  13.620  11.004   0.357
70740SOL    HW214060  13.714  11.000   0.476
70741SOL     OW14061   4.333  14.009   8.163
70741SOL    HW114062   4.291  14.093   8.145
70741SOL    HW214063   4.293  13.979   8.245
70742SOL     OW14064   6.297   6.031   5.238
70742SOL    HW114065   6.336   5.965   5.295
70742SOL    HW214066   6.370   6.088   5.214
70743SOL     OW14067   2.364   4.037  13.795
70743SOL    HW114068   2.316   4.052  13.713
70743SOL    HW214069   2.357   4.120  13.842
70744SOL     OW14070   2.683   5.197   5.087
70744SOL    HW114071   2.768   5.189   5.042
70744SOL    HW214072   2.659   5.289   5.075
70745SOL     OW14073   4.909   7.275  10.388
70745SOL    HW114074   4.926   7.263  10.294
70745SOL    HW214075   4.837   7.214  10.406
70746SOL     OW14076  12.058   4.066   7.104
70746SOL    HW114077  12.049   4.134   7.170
70746SOL    HW214078  12.135   4.016   7.130
70747SOL     OW14079   4.803  10.921   6.048
70747SOL    HW114080   4.812  10.844   6.105
70747SOL    HW214081   4.885  10.923   5.998
70748SOL     OW14082  12.693  13.061   6.875
70748SOL    HW114083  12.626  13.128   6.883
70748SOL    HW214084  12.655  12.984   6.917
70749SOL     OW14085   5.046   0.383   6.138
70749SOL    HW114086   5.134   0.421   6.148
70749SOL    HW214087   4.998   0.448   6.086
70750SOL     OW14088   5.053  12.947   2.856
70750SOL    HW114089   5.001  12.966   2.934
70750SOL    HW214090   5.074  13.033   2.820
70751SOL     OW14091  12.490   2.924  10.405
70751SOL    HW114092  12.521   3.005  10.445
70751SOL    HW214093  12.556   2.902  10.339
70752SOL     OW14094  12.875   4.799  13.234
70752SOL    HW114095  12.875   4.790  13.330
70752SOL    HW214096  12.783   4.817  13.213
70753SOL     OW14097   5.816   7.262   3.802
70753SOL    HW114098   5.819   7.347   3.758
70753SOL    HW214099   5.734   7.223   3.773
70754SOL     OW14100  14.677   1.175   3.545
70754SOL    HW114101  14.610   1.141   3.604
70754SOL    HW214102  14.654   1.138   3.460
70755SOL     OW14103   9.325   1.447   9.602
70755SOL    HW114104   9.248   1.500   9.581
70755SOL    HW214105   9.375   1.500   9.663
70756SOL     OW14106  12.844  11.017   5.247
70756SOL    HW114107  12.801  10.988   5.166
70756SOL    HW214108  12.931  10.976   5.243
70757SOL     OW14109  11.260   6.528   8.184
70757SOL    HW114110  11.255   6.612   8.137
70757SOL    HW214111  11.172   6.513   8.217
70758SOL     OW14112  12.154   7.002   4.653
70758SOL    HW114113  12.139   7.028   4.744
70758SOL    HW214114  12.243   6.966   4.652
70759SOL     OW14115   3.619   9.094   6.409
70759SOL    HW114116   3.668   9.170   6.441
70759SOL    HW214117   3.667   9.018   6.443
70760SOL     OW14118   6.633  11.231   8.274
70760SOL    HW114119   6.571  11.222   8.202
70760SOL    HW214120   6.718  11.213   8.234
70761SOL     OW14121   1.891   8.959   7.159
70761SOL    HW114122   1.941   8.925   7.233
70761SOL    HW214123   1.957   8.972   7.090
70762SOL     OW14124   6.321   8.889   7.316
70762SOL    HW114125   6.324   8.979   7.282
70762SOL    HW214126   6.403   8.850   7.287
70763SOL     OW14127  11.744   7.648  12.073
70763SOL    HW114128  11.706   7.563  12.050
70763SOL    HW214129  11.668   7.706  12.079
70764SOL     OW14130  10.285   8.661  10.885
70764SOL    HW114131  10.377   8.644  10.864
70764SOL    HW214132  10.288   8.721  10.960
70765SOL     OW14133  14.771   7.491   2.058
70765SOL    HW114134  14.834   7.562   2.046
70765SOL    HW214135  14.690   7.536   2.083
70766SOL     OW14136   4.691   1.786   4.273
70766SOL    HW114137   4.762   1.721   4.272
70766SOL    HW214138   4.733   1.868   4.245
70767SOL     OW14139   8.228   9.461   0.478
70767SOL    HW114140   8.174   9.396   0.434
70767SOL    HW214141   8.168   9.507   0.537
70768SOL     OW14142   7.645  12.223   5.321
70768SOL    HW114143   7.739  12.208   5.310
70768SOL    HW214144   7.626  12.190   5.409
70769SOL     OW14145   3.795  11.430   4.224
70769SOL    HW114146   3.784  11.510   4.276
70769SOL    HW214147   3.888  11.408   4.234
70770SOL     OW14148   9.399   4.299   7.660
70770SOL    HW114149   9.479   4.351   7.654
70770SOL    HW214150   9.329   4.359   7.635
70771SOL     OW14151  10.601   1.552   8.870
70771SOL    HW114152  10.609   1.617   8.801
70771SOL    HW214153  10.579   1.471   8.825
70772SOL     OW14154   1.297  13.385   5.516
70772SOL    HW114155   1.377  13.345   5.483
70772SOL    HW214156   1.227  13.332   5.477
70773SOL     OW14157   7.120  11.013  10.301
70773SOL    HW114158   7.184  11.007  10.372
70773SOL    HW214159   7.065  10.935  10.312
70774SOL     OW14160  13.130   8.235   1.775
70774SOL    HW114161  13.205   8.175   1.770
70774SOL    HW214162  13.114   8.245   1.869
70775SOL     OW14163  10.935   4.502   7.263
70775SOL    HW114164  10.890   4.586   7.261
70775SOL    HW214165  10.874   4.441   7.221
70776SOL     OW14166   7.078  11.336  14.505
70776SOL    HW114167   7.050  11.427  14.513
70776SOL    HW214168   7.005  11.286  14.543
70777SOL     OW14169   3.824   8.375   7.092
70777SOL    HW114170   3.802   8.284   7.071
70777SOL    HW214171   3.795   8.387   7.183
70778SOL     OW14172  12.577   2.515   2.383
70778SOL    HW114173  12.489   2.487   2.358
70778SOL    HW214174  12.619   2.536   2.300
70779SOL     OW14175  10.405   0.973   2.727
70779SOL    HW114176  10.466   1.045   2.715
70779SOL    HW214177  10.461   0.896   2.740
70780SOL     OW14178   8.311   5.150   2.686
70780SOL    HW114179   8.276   5.149   2.597
70780SOL    HW214180   8.239   5.117   2.740
70781SOL     OW14181   9.103   1.596   5.093
70781SOL    HW114182   9.073   1.509   5.065
70781SOL    HW214183   9.103   1.648   5.013
70782SOL     OW14184   1.815   3.051   0.723
70782SOL    HW114185   1.831   3.130   0.673
70782SOL    HW214186   1.755   3.077   0.792
70783SOL     OW14187   2.291  11.484  13.405
70783SOL    HW114188   2.198  11.506  13.402
70783SOL    HW214189   2.294  11.391  13.383
70784SOL     OW14190   7.710   3.680   2.911
70784SOL    HW114191   7.695   3.765   2.871
70784SOL    HW214192   7.691   3.617   2.842
70785SOL     OW14193   2.177   0.245  12.788
70785SOL    HW114194   2.146   0.189  12.859
70785SOL    HW214195   2.099   0.293  12.759
70786SOL     OW14196   4.149   7.738  10.272
70786SOL    HW114197   4.151   7.832  10.253
70786SOL    HW214198   4.125   7.697  10.189
70787SOL     OW14199   9.589   1.714   5.739
70787SOL    HW114200   9.575   1.658   5.663
70787SOL    HW214201   9.536   1.675   5.808
70788SOL     OW14202  10.841  11.572  11.389
70788SOL    HW114203  10.911  11.595  11.450
70788SOL    HW214204  10.829  11.651  11.335
70789SOL     OW14205   4.941   6.429  13.499
70789SOL    HW114206   4.911   6.416  13.589
70789SOL    HW214207   5.026   6.472  13.508
70790SOL     OW14208   3.050  10.510   3.197
70790SOL    HW114209   3.012  10.589   3.158
70790SOL    HW214210   2.995  10.491   3.273
70791SOL     OW14211  12.804   7.725   1.519
70791SOL    HW114212  12.733   7.760   1.465
70791SOL    HW214213  12.879   7.783   1.501
70792SOL     OW14214   9.004  10.503   6.824
70792SOL    HW114215   9.061  10.447   6.772
70792SOL    HW214216   9.059  10.576   6.851
70793SOL     OW14217   1.248   5.799   4.891
70793SOL    HW114218   1.238   5.706   4.872
70793SOL    HW214219   1.342   5.814   4.891
70794SOL     OW14220  13.246   0.629  12.794
70794SOL    HW114221  13.328   0.644  12.840
70794SOL    HW214222  13.192   0.579  12.855
70795SOL     OW14223   6.796   9.229   8.516
70795SOL    HW114224   6.719   9.242   8.460
70795SOL    HW214225   6.835   9.148   8.485
70796SOL     OW14226  11.099   6.266   0.938
70796SOL    HW114227  11.029   6.313   0.983
70796SOL    HW214228  11.138   6.332   0.880
70797SOL     OW14229   2.481  14.178   9.928
70797SOL    HW114230   2.501  14.271   9.928
70797SOL    HW214231   2.531  14.142  10.002
70798SOL     OW14232   4.571   4.598   8.457
70798SOL    HW114233   4.533   4.634   8.538
70798SOL    HW214234   4.662   4.629   8.458
70799SOL     OW14235  14.554   0.340   3.690
70799SOL    HW114236  14.498   0.393   3.634
70799SOL    HW214237  14.601   0.403   3.745
70800SOL     OW14238  14.843   8.075  10.802
70800SOL    HW114239  14.788   7.998  10.811
70800SOL    HW214240  14.782   8.145  10.779
70801SOL     OW14241   8.427   7.700  10.017
70801SOL    HW114242   8.501   7.731   9.965
70801SOL    HW214243   8.352   7.705   9.957
70802SOL     OW14244  12.585  10.134   5.038
70802SOL    HW114245  12.656  10.079   5.070
70802SOL    HW214246  12.543  10.081   4.970
70803SOL     OW14247   8.783  12.640   0.589
70803SOL    HW114248   8.846  12.584   0.635
70803SOL    HW214249   8.785  12.609   0.498
70804SOL     OW14250   2.627   0.550   5.093
70804SOL    HW114251   2.701   0.503   5.132
70804SOL    HW214252   2.549   0.502   5.124
70805SOL     OW14253   3.693   5.636   7.072
70805SOL    HW114254   3.755   5.646   7.145
70805SOL    HW214255   3.723   5.697   7.006
70806SOL     OW14256   6.509  11.925   4.405
70806SOL    HW114257   6.463  12.005   4.429
70806SOL    HW214258   6.457  11.854   4.442
70807SOL     OW14259  14.558   2.192  14.648
70807SOL    HW114260  14.607   2.128  14.597
70807SOL    HW214261  14.539   2.148  14.730
70808SOL     OW14262   3.608  10.922   6.737
70808SOL    HW114263   3.537  10.957   6.791
70808SOL    HW214264   3.679  10.904   6.799
70809SOL     OW14265   6.672  12.098  14.556
70809SOL    HW114266   6.651  12.174  14.502
70809SOL    HW214267   6.734  12.131  14.621
70810SOL     OW14268  10.931   3.669   5.259
70810SOL    HW114269  10.954   3.576   5.272
70810SOL    HW214270  10.915   3.677   5.166
70811SOL     OW14271  11.625  14.642  13.770
70811SOL    HW114272  11.551  14.612  13.717
70811SOL    HW214273  11.653  14.565  13.819
70812SOL     OW14274  13.370  14.786   4.136
70812SOL    HW114275  13.345   0.001   4.151
70812SOL    HW214276  13.431  14.766   4.207
70813SOL     OW14277   6.093   5.665   6.610
70813SOL    HW114278   6.003   5.647   6.584
70813SOL    HW214279   6.147   5.616   6.548
70814SOL     OW14280   6.191   2.410   9.607
70814SOL    HW114281   6.195   2.488   9.662
70814SOL    HW214282   6.213   2.338   9.666
70815SOL     OW14283   6.800   4.657   7.963
70815SOL    HW114284   6.855   4.709   8.022
70815SOL    HW214285   6.711   4.672   7.994
70816SOL     OW14286   6.672   3.846  13.822
70816SOL    HW114287   6.691   3.822  13.732
70816SOL    HW214288   6.683   3.765  13.872
70817SOL     OW14289   5.082  12.876   7.033
70817SOL    HW114290   5.015  12.809   7.048
70817SOL    HW214291   5.147  12.861   7.101
70818SOL     OW14292   8.419  12.039  14.743
70818SOL    HW114293   8.350  12.074  14.687
70818SOL    HW214294   8.373  11.981  14.804
70819SOL     OW14295  11.291   1.343   2.156
70819SOL    HW114296  11.203   1.336   2.120
70819SOL    HW214297  11.278   1.357   2.250
70820SOL     OW14298   0.977   7.437  12.742
70820SOL    HW114299   0.955   7.359  12.691
70820SOL    HW214300   1.038   7.485  12.686
70821SOL     OW14301  12.400  12.673  13.951
70821SOL    HW114302  12.380  12.580  13.945
70821SOL    HW214303  12.481  12.684  13.902
70822SOL     OW14304  11.201  10.863   7.178
70822SOL    HW114305  11.160  10.840   7.261
70822SOL    HW214306  11.173  10.795   7.117
70823SOL     OW14307   0.617  12.822   4.817
70823SOL    HW114308   0.685  12.758   4.837
70823SOL    HW214309   0.544  12.798   4.875
70824SOL     OW14310  14.089  10.855   4.030
70824SOL    HW114311  13.996  10.835   4.042
70824SOL    HW214312  14.092  10.950   4.018
70825SOL     OW14313   2.443   2.366  14.799
70825SOL    HW114314   2.396   2.407  14.871
70825SOL    HW214315   2.390   2.290  14.776
70826SOL     OW14316   2.558  10.541   1.052
70826SOL    HW114317   2.501  10.597   1.103
70826SOL    HW214318   2.636  10.529   1.107
70827SOL     OW14319   1.990  14.181  10.923
70827SOL    HW114320   2.065  14.225  10.962
70827SOL    HW214321   1.992  14.207  10.830
70828SOL     OW14322   7.149   6.542   1.914
70828SOL    HW114323   7.083   6.608   1.895
70828SOL    HW214324   7.172   6.557   2.006
70829SOL     OW14325   8.471   9.305   9.341
70829SOL    HW114326   8.454   9.396   9.315
70829SOL    HW214327   8.524   9.312   9.420
70830SOL     OW14328   9.991   6.039  11.628
70830SOL    HW114329  10.044   5.985  11.685
70830SOL    HW214330   9.945   6.099  11.687
70831SOL     OW14331  13.364  11.628   0.956
70831SOL    HW114332  13.333  11.576   1.030
70831SOL    HW214333  13.286  11.642   0.902
70832SOL     OW14334  12.415   6.237   6.201
70832SOL    HW114335  12.334   6.286   6.219
70832SOL    HW214336  12.434   6.192   6.283
70833SOL     OW14337   8.593   1.018   6.519
70833SOL    HW114338   8.557   1.107   6.520
70833SOL    HW214339   8.575   0.984   6.607
70834SOL     OW14340   1.377  11.296   0.655
70834SOL    HW114341   1.394  11.365   0.719
70834SOL    HW214342   1.373  11.341   0.571
70835SOL     OW14343   8.184   0.918   1.051
70835SOL    HW114344   8.235   0.853   1.004
70835SOL    HW214345   8.096   0.912   1.014
70836SOL     OW14346   9.599   8.775   2.736
70836SOL    HW114347   9.586   8.690   2.778
70836SOL    HW214348   9.544   8.836   2.785
70837SOL     OW14349   7.097   8.568   4.320
70837SOL    HW114350   7.061   8.501   4.261
70837SOL    HW214351   7.146   8.519   4.385
70838SOL     OW14352  13.624   2.001   8.983
70838SOL    HW114353  13.632   1.920   8.934
70838SOL    HW214354  13.529   2.015   8.990
70839SOL     OW14355   2.739   3.077   2.124
70839SOL    HW114356   2.651   3.103   2.150
70839SOL    HW214357   2.797   3.126   2.183
70840SOL     OW14358   8.208   3.603  11.127
70840SOL    HW114359   8.227   3.631  11.038
70840SOL    HW214360   8.143   3.533  11.116
70841SOL     OW14361   8.917   1.593  14.033
70841SOL    HW114362   8.851   1.568  13.968
70841SOL    HW214363   8.983   1.523  14.029
70842SOL     OW14364   6.350  13.957  10.890
70842SOL    HW114365   6.421  13.949  10.826
70842SOL    HW214366   6.314  13.869  10.897
70843SOL     OW14367   6.804   0.094   2.539
70843SOL    HW114368   6.788   0.155   2.467
70843SOL    HW214369   6.717   0.078   2.576
70844SOL     OW14370  10.990   5.992   4.111
70844SOL    HW114371  10.990   5.896   4.105
70844SOL    HW214372  10.967   6.022   4.023
70845SOL     OW14373  13.140  13.739  14.364
70845SOL    HW114374  13.155  13.651  14.399
70845SOL    HW214375  13.213  13.790  14.397
70846SOL     OW14376  12.760  12.512  12.658
70846SOL    HW114377  12.755  12.523  12.753
70846SOL    HW214378  12.851  12.529  12.636
70847SOL     OW14379   1.571   8.717  10.536
70847SOL    HW114380   1.653   8.741  10.494
70847SOL    HW214381   1.520   8.798  10.538
70848SOL     OW14382   3.130   1.412   1.142
70848SOL    HW114383   3.186   1.336   1.126
70848SOL    HW214384   3.190   1.478   1.178
70849SOL     OW14385   4.978   7.035  14.863
70849SOL    HW114386   4.971   6.948  14.823
70849SOL    HW214387   4.988   7.095  14.790
70850SOL     OW14388   2.139   6.438   1.268
70850SOL    HW114389   2.078   6.441   1.342
70850SOL    HW214390   2.154   6.530   1.245
70851SOL     OW14391   5.712  13.876   6.131
70851SOL    HW114392   5.698  13.897   6.224
70851SOL    HW214393   5.772  13.944   6.100
70852SOL     OW14394   6.187   5.831  11.841
70852SOL    HW114395   6.116   5.774  11.812
70852SOL    HW214396   6.211   5.799  11.927
70853SOL     OW14397   7.126  11.180  13.551
70853SOL    HW114398   7.182  11.257  13.545
70853SOL    HW214399   7.037  11.215  13.552
70854SOL     OW14400  12.935   3.405   3.139
70854SOL    HW114401  12.959   3.422   3.048
70854SOL    HW214402  12.998   3.457   3.190
70855SOL     OW14403   2.568   5.466   5.009
70855SOL    HW114404   2.514   5.467   5.087
70855SOL    HW214405   2.529   5.533   4.952
70856SOL     OW14406   9.540  11.471  10.397
70856SOL    HW114407   9.530  11.377  10.412
70856SOL    HW214408   9.493  11.488  10.316
70857SOL     OW14409   9.869   7.188   3.445
70857SOL    HW114410   9.815   7.124   3.399
70857SOL    HW214411   9.946   7.201   3.390
70858SOL     OW14412   1.240  13.919   7.728
70858SOL    HW114413   1.172  13.983   7.708
70858SOL    HW214414   1.319  13.955   7.689
70859SOL     OW14415  13.498  10.060  10.801
70859SOL    HW114416  13.584  10.097  10.782
70859SOL    HW214417  13.516   9.982  10.853
70860SOL     OW14418   3.184  11.725   2.470
70860SOL    HW114419   3.088  11.719   2.474
70860SOL    HW214420   3.212  11.634   2.456
70861SOL     OW14421   0.652   7.429   2.479
70861SOL    HW114422   0.588   7.358   2.480
70861SOL    HW214423   0.602   7.506   2.505
70862SOL     OW14424   5.546  14.737   2.431
70862SOL    HW114425   5.558  14.796   2.505
70862SOL    HW214426   5.508  14.792   2.363
70863SOL     OW14427   0.597   4.651   5.408
70863SOL    HW114428   0.546   4.630   5.486
70863SOL    HW214429   0.685   4.671   5.441
70864SOL     OW14430  11.210   4.290   4.220
70864SOL    HW114431  11.249   4.356   4.163
70864SOL    HW214432  11.189   4.337   4.301
70865SOL     OW14433   7.533   1.085  11.713
70865SOL    HW114434   7.486   1.104  11.794
70865SOL    HW214435   7.578   1.166  11.692
70866SOL     OW14436  12.664   4.679   7.077
70866SOL    HW114437  12.741   4.628   7.054
70866SOL    HW214438  12.697   4.748   7.135
70867SOL     OW14439   7.412   7.660   8.621
70867SOL    HW114440   7.368   7.591   8.670
70867SOL    HW214441   7.343   7.724   8.603
70868SOL     OW14442   5.941   3.560   2.063
70868SOL    HW114443   5.903   3.475   2.085
70868SOL    HW214444   6.033   3.540   2.044
70869SOL     OW14445   4.628   9.930  13.128
70869SOL    HW114446   4.717   9.917  13.095
70869SOL    HW214447   4.594   9.842  13.140
70870SOL     OW14448  10.183   3.330   8.658
70870SOL    HW114449  10.088   3.323   8.655
70870SOL    HW214450  10.203   3.357   8.747
70871SOL     OW14451   1.043  14.776   1.357
70871SOL    HW114452   0.966  14.777   1.413
70871SOL    HW214453   1.084  14.861   1.371
70872SOL     OW14454   4.335  12.355   7.271
70872SOL    HW114455   4.293  12.286   7.322
70872SOL    HW214456   4.419  12.369   7.314
70873SOL     OW14457   8.781   0.182   8.759
70873SOL    HW114458   8.762   0.104   8.708
70873SOL    HW214459   8.740   0.254   8.710
70874SOL     OW14460   5.444   3.915  12.215
70874SOL    HW114461   5.490   3.857  12.155
70874SOL    HW214462   5.375   3.862  12.253
70875SOL     OW14463   8.841   4.775   8.995
70875SOL    HW114464   8.932   4.789   8.967
70875SOL    HW214465   8.847   4.760   9.089
70876SOL     OW14466   9.627   8.043   2.503
70876SOL    HW114467   9.556   7.979   2.498
70876SOL    HW214468   9.645   8.067   2.412
70877SOL     OW14469   6.481  10.978  10.089
70877SOL    HW114470   6.406  10.979  10.149
70877SOL    HW214471   6.520  11.065  10.098
70878SOL     OW14472   1.184  12.229  11.988
70878SOL    HW114473   1.190  12.324  11.993
70878SOL    HW214474   1.257  12.197  12.041
70879SOL     OW14475  12.937  11.253   3.350
70879SOL    HW114476  13.005  11.287   3.292
70879SOL    HW214477  12.880  11.329   3.367
70880SOL     OW14478   0.181   5.515   9.290
70880SOL    HW114479   0.206   5.547   9.204
70880SOL    HW214480   0.115   5.448   9.273
70881SOL     OW14481   9.992   2.632   5.304
70881SOL    HW114482  10.031   2.601   5.222
70881SOL    HW214483  10.060   2.686   5.344
70882SOL     OW14484  13.387   3.567  11.400
70882SOL    HW114485  13.399   3.619  11.479
70882SOL    HW214486  13.296   3.584  11.374
70883SOL     OW14487   1.124  13.990   5.956
70883SOL    HW114488   1.114  14.085   5.963
70883SOL    HW214489   1.161  13.964   6.040
70884SOL     OW14490   4.902  11.146   9.693
70884SOL    HW114491   4.808  11.142   9.673
70884SOL    HW214492   4.932  11.226   9.651
70885SOL     OW14493   4.034  14.055  14.506
70885SOL    HW114494   4.092  14.127  14.481
70885SOL    HW214495   4.012  14.072  14.597
70886SOL     OW14496  13.200  11.259   3.254
70886SOL    HW114497  13.229  11.211   3.332
70886SOL    HW214498  13.282  11.290   3.214
70887SOL     OW14499   5.515  14.609   0.844
70887SOL    HW114500   5.510  14.667   0.920
70887SOL    HW214501   5.609  14.606   0.823
70888SOL     OW14502  11.713   0.800   6.123
70888SOL    HW114503  11.798   0.810   6.166
70888SOL    HW214504  11.727   0.831   6.033
70889SOL     OW14505   5.486   0.473  10.878
70889SOL    HW114506   5.518   0.557  10.845
70889SOL    HW214507   5.554   0.442  10.937
70890SOL     OW14508   4.141   2.330   1.636
70890SOL    HW114509   4.181   2.385   1.569
70890SOL    HW214510   4.214   2.305   1.693
70891SOL     OW14511   8.802   4.000   1.813
70891SOL    HW114512   8.799   4.073   1.875
70891SOL    HW214513   8.893   3.998   1.783
70892SOL     OW14514   7.869   7.056   2.360
70892SOL    HW114515   7.800   7.120   2.342
70892SOL    HW214516   7.945   7.109   2.386
70893SOL     OW14517   9.597   3.682  11.510
70893SOL    HW114518   9.677   3.650  11.469
70893SOL    HW214519   9.526   3.639  11.460
70894SOL     OW14520   5.277   0.058   5.291
70894SOL    HW114521   5.324  14.855   5.265
70894SOL    HW214522   5.317   0.127   5.238
70895SOL     OW14523  13.001  12.876   6.590
70895SOL    HW114524  13.055  12.797   6.601
70895SOL    HW214525  13.010  12.899   6.498
70896SOL     OW14526  11.753   8.709  12.191
70896SOL    HW114527  11.659   8.692  12.204
70896SOL    HW214528  11.782   8.745  12.275
70897SOL     OW14529  10.493   6.512   0.155
70897SOL    HW114530  10.471   6.504   0.248
70897SOL    HW214531  10.584   6.482   0.149
70898SOL     OW14532  10.603  10.513   0.822
70898SOL    HW114533  10.608  10.474   0.909
70898SOL    HW214534  10.692  10.506   0.787
70899SOL     OW14535   6.960   8.157  10.131
70899SOL    HW114536   6.903   8.197  10.066
70899SOL    HW214537   6.900   8.107  10.187
70900SOL     OW14538  13.155  10.255   0.488
70900SOL    HW114539  13.088  10.323   0.497
70900SOL    HW214540  13.114  10.177   0.526
70901SOL     OW14541  10.409  12.768  13.371
70901SOL    HW114542  10.457  12.738  13.294
70901SOL    HW214543  10.467  12.751  13.445
70902SOL     OW14544   0.416  13.485   7.631
70902SOL    HW114545   0.419  13.479   7.535
70902SOL    HW214546   0.479  13.554   7.652
70903SOL     OW14547   3.894   8.815  10.319
70903SOL    HW114548   3.958   8.774  10.377
70903SOL    HW214549   3.826   8.748  10.308
70904SOL     OW14550   6.550   2.841   8.042
70904SOL    HW114551   6.580   2.762   7.996
70904SOL    HW214552   6.618   2.858   8.107
70905SOL     OW14553   1.567   5.819   3.350
70905SOL    HW114554   1.561   5.849   3.259
70905SOL    HW214555   1.489   5.855   3.392
70906SOL     OW14556   1.699   1.246   1.544
70906SOL    HW114557   1.761   1.196   1.598
70906SOL    HW214558   1.616   1.239   1.591
70907SOL     OW14559  14.659  11.101   7.883
70907SOL    HW114560  14.745  11.084   7.922
70907SOL    HW214561  14.678  11.161   7.810
70908SOL     OW14562  14.251   0.195   5.168
70908SOL    HW114563  14.243   0.290   5.177
70908SOL    HW214564  14.275   0.164   5.254
70909SOL     OW14565   1.946   0.362  12.691
70909SOL    HW114566   1.858   0.373  12.656
70909SOL    HW214567   1.935   0.368  12.786
70910SOL     OW14568  13.863   5.665   3.102
70910SOL    HW114569  13.856   5.582   3.150
70910SOL    HW214570  13.784   5.667   3.048
70911SOL     OW14571   1.507   9.829  14.547
70911SOL    HW114572   1.524   9.801  14.637
70911SOL    HW214573   1.532   9.753  14.494
70912SOL     OW14574   9.594  10.958  12.933
70912SOL    HW114575   9.567  11.017  12.863
70912SOL    HW214576   9.541  10.983  13.008
70913SOL     OW14577   2.373  11.736   9.092
70913SOL    HW114578   2.420  11.819   9.099
70913SOL    HW214579   2.324  11.730   9.174
70914SOL     OW14580   7.494   7.465   1.237
70914SOL    HW114581   7.532   7.489   1.152
70914SOL    HW214582   7.519   7.536   1.295
70915SOL     OW14583   0.109  13.256  11.340
70915SOL    HW114584   0.058  13.256  11.258
70915SOL    HW214585   0.105  13.346  11.371
70916SOL     OW14586   1.259   1.488   3.206
70916SOL    HW114587   1.306   1.544   3.144
70916SOL    HW214588   1.170   1.484   3.172
70917SOL     OW14589   6.003  12.743   1.991
70917SOL    HW114590   6.094  12.767   2.008
70917SOL    HW214591   6.006  12.691   1.911
70918SOL     OW14592   3.356   6.841   1.067
70918SOL    HW114593   3.277   6.895   1.059
70918SOL    HW214594   3.419   6.896   1.113
70919SOL     OW14595  13.339  10.324   4.635
70919SOL    HW114596  13.423  10.280   4.621
70919SOL    HW214597  13.306  10.287   4.716
70920SOL     OW14598   1.544  14.260  14.694
70920SOL    HW114599   1.517  14.193  14.632
70920SOL    HW214600   1.638  14.271  14.678
70921SOL     OW14601   3.348  13.593   3.390
70921SOL    HW114602   3.430  13.641   3.389
70921SOL    HW214603   3.280  13.660   3.386
70922SOL     OW14604  14.788   9.390  10.363
70922SOL    HW114605  14.861   9.337  10.330
70922SOL    HW214606  14.822   9.431  10.443
70923SOL     OW14607  10.414   5.731  13.149
70923SOL    HW114608  10.382   5.687  13.228
70923SOL    HW214609  10.496   5.686  13.129
70924SOL     OW14610  13.489   9.542  13.850
70924SOL    HW114611  13.522   9.455  13.829
70924SOL    HW214612  13.544   9.602  13.799
70925SOL     OW14613   2.160  10.261  14.426
70925SOL    HW114614   2.106  10.298  14.496
70925SOL    HW214615   2.128  10.172  14.415
70926SOL     OW14616  10.612   6.978   2.310
70926SOL    HW114617  10.674   6.931   2.366
70926SOL    HW214618  10.584   6.913   2.245
70927SOL     OW14619   7.811   3.212  10.577
70927SOL    HW114620   7.869   3.277  10.536
70927SOL    HW214621   7.815   3.231  10.670
70928SOL     OW14622   0.115  12.958  12.337
70928SOL    HW114623   0.057  12.992  12.404
70928SOL    HW214624   0.085  12.868  12.323
70929SOL     OW14625   1.142  13.472   3.212
70929SOL    HW114626   1.095  13.494   3.292
70929SOL    HW214627   1.084  13.411   3.166
70930SOL     OW14628   5.581   4.886   5.676
70930SOL    HW114629   5.637   4.959   5.648
70930SOL    HW214630   5.494   4.925   5.682
70931SOL     OW14631   5.661  13.296  10.341
70931SOL    HW114632   5.686  13.280  10.250
70931SOL    HW214633   5.615  13.380  10.338
70932SOL     OW14634   7.829  12.680  10.168
70932SOL    HW114635   7.820  12.694  10.263
70932SOL    HW214636   7.910  12.630  10.159
70933SOL     OW14637  10.951   5.628   7.645
70933SOL    HW114638  11.009   5.616   7.570
70933SOL    HW214639  10.864   5.609   7.610
70934SOL     OW14640   6.780  10.651   5.883
70934SOL    HW114641   6.816  10.564   5.900
70934SOL    HW214642   6.756  10.684   5.969
70935SOL     OW14643  11.988   5.549  13.931
70935SOL    HW114644  11.966   5.469  13.882
70935SOL    HW214645  12.058   5.590  13.880
70936SOL     OW14646  12.905   9.694   9.283
70936SOL    HW114647  12.847   9.769   9.300
70936SOL    HW214648  12.987   9.719   9.325
70937SOL     OW14649   5.062   2.902   9.729
70937SOL    HW114650   5.029   2.856   9.805
70937SOL    HW214651   5.000   2.882   9.659
70938SOL     OW14652  13.712  11.501   0.097
70938SOL    HW114653  13.628  11.516   0.055
70938SOL    HW214654  13.702  11.418   0.143
70939SOL     OW14655   7.591   1.119   8.722
70939SOL    HW114656   7.549   1.087   8.802
70939SOL    HW214657   7.685   1.117   8.741
70940SOL     OW14658   3.437  11.194   3.119
70940SOL    HW114659   3.502  11.249   3.161
70940SOL    HW214660   3.366  11.188   3.183
70941SOL     OW14661   7.531  12.823   7.100
70941SOL    HW114662   7.578  12.790   7.177
70941SOL    HW214663   7.513  12.915   7.122
70942SOL     OW14664   5.738   1.431  11.992
70942SOL    HW114665   5.648   1.419  12.022
70942SOL    HW214666   5.729   1.453  11.899
70943SOL     OW14667  13.509  10.387   6.873
70943SOL    HW114668  13.451  10.434   6.812
70943SOL    HW214669  13.560  10.455   6.915
70944SOL     OW14670   3.228  10.406   7.377
70944SOL    HW114671   3.180  10.379   7.299
70944SOL    HW214672   3.281  10.480   7.347
70945SOL     OW14673   5.893   4.322   1.165
70945SOL    HW114674   5.868   4.408   1.131
70945SOL    HW214675   5.824   4.263   1.135
70946SOL     OW14676  13.259  11.542   1.535
70946SOL    HW114677  13.216  11.625   1.555
70946SOL    HW214678  13.204  11.501   1.469
70947SOL     OW14679   3.395  11.970   0.617
70947SOL    HW114680   3.394  12.062   0.589
70947SOL    HW214681   3.356  11.972   0.704
70948SOL     OW14682  12.395   5.871   8.341
70948SOL    HW114683  12.400   5.874   8.437
70948SOL    HW214684  12.476   5.913   8.312
70949SOL     OW14685   8.008   3.713  12.926
70949SOL    HW114686   8.036   3.691  12.837
70949SOL    HW214687   8.028   3.635  12.978
70950SOL     OW14688  14.359  14.175  13.664
70950SOL    HW114689  14.351  14.239  13.593
70950SOL    HW214690  14.452  14.177  13.687
70951SOL     OW14691   9.316   3.273  11.439
70951SOL    HW114692   9.340   3.274  11.346
70951SOL    HW214693   9.305   3.365  11.462
70952SOL     OW14694   0.147  12.852   5.606
70952SOL    HW114695   0.142  12.860   5.701
70952SOL    HW214696   0.086  12.781   5.584
70953SOL     OW14697   9.839  10.510   1.771
70953SOL    HW114698   9.907  10.451   1.803
70953SOL    HW214699   9.850  10.510   1.676
70954SOL     OW14700   1.991   1.001   2.415
70954SOL    HW114701   2.082   1.013   2.390
70954SOL    HW214702   1.943   0.996   2.332
70955SOL     OW14703   0.777   5.727  10.871
70955SOL    HW114704   0.870   5.733  10.894
70955SOL    HW214705   0.739   5.673  10.940
70956SOL     OW14706   8.601   8.456  14.186
70956SOL    HW114707   8.560   8.375  14.217
70956SOL    HW214708   8.691   8.431  14.165
70957SOL     OW14709   2.856   1.354  11.975
70957SOL    HW114710   2.940   1.397  11.959
70957SOL    HW214711   2.843   1.361  12.070
70958SOL     OW14712   6.302   7.010  14.834
70958SOL    HW114713   6.387   7.048  14.811
70958SOL    HW214714   6.321   6.947   0.027
70959SOL     OW14715   7.359   3.748   6.823
70959SOL    HW114716   7.292   3.794   6.772
70959SOL    HW214717   7.400   3.816   6.876
70960SOL     OW14718   7.807   3.402   2.377
70960SOL    HW114719   7.760   3.445   2.306
70960SOL    HW214720   7.897   3.397   2.347
70961SOL     OW14721  10.525  10.945  12.823
70961SOL    HW114722  10.537  10.852  12.802
70961SOL    HW214723  10.608  10.972  12.860
70962SOL     OW14724  11.306  11.017   6.093
70962SOL    HW114725  11.305  11.050   6.183
70962SOL    HW214726  11.215  11.023   6.064
70963SOL     OW14727   8.124   9.603   1.604
70963SOL    HW114728   8.170   9.531   1.561
70963SOL    HW214729   8.095   9.659   1.533
70964SOL     OW14730  13.456   5.221   4.150
70964SOL    HW114731  13.468   5.210   4.056
70964SOL    HW214732  13.417   5.308   4.159
70965SOL     OW14733   3.526   0.334  13.469
70965SOL    HW114734   3.617   0.365  13.465
70965SOL    HW214735   3.526   0.270  13.539
70966SOL     OW14736   2.747   9.637   6.303
70966SOL    HW114737   2.827   9.616   6.253
70966SOL    HW214738   2.771   9.623   6.394
70967SOL     OW14739  11.288  14.614   7.132
70967SOL    HW114740  11.372  14.657   7.148
70967SOL    HW214741  11.307  14.550   7.063
70968SOL     OW14742   5.394   7.458  11.117
70968SOL    HW114743   5.370   7.475  11.026
70968SOL    HW214744   5.472   7.403  11.111
70969SOL     OW14745   6.789  11.902   9.507
70969SOL    HW114746   6.830  11.896   9.420
70969SOL    HW214747   6.859  11.935   9.563
70970SOL     OW14748   9.566   9.485   9.821
70970SOL    HW114749   9.479   9.451   9.841
70970SOL    HW214750   9.626   9.419   9.855
70971SOL     OW14751   7.852  14.618   9.633
70971SOL    HW114752   7.910  14.543   9.646
70971SOL    HW214753   7.869  14.675   9.708
70972SOL     OW14754   1.805   6.908  12.236
70972SOL    HW114755   1.796   7.002  12.250
70972SOL    HW214756   1.720   6.871  12.262
70973SOL     OW14757  14.280   6.371   4.192
70973SOL    HW114758  14.207   6.312   4.173
70973SOL    HW214759  14.245   6.434   4.255
70974SOL     OW14760   3.098  13.923   0.047
70974SOL    HW114761   3.183  13.948   0.011
70974SOL    HW214762   3.109  13.931   0.142
70975SOL     OW14763   1.373   9.730   1.988
70975SOL    HW114764   1.353   9.723   1.895
70975SOL    HW214765   1.315   9.666   2.030
70976SOL     OW14766   2.056   7.098   4.339
70976SOL    HW114767   2.150   7.080   4.346
70976SOL    HW214768   2.023   7.027   4.284
70977SOL     OW14769   0.411   5.605   0.930
70977SOL    HW114770   0.504   5.587   0.946
70977SOL    HW214771   0.368   5.588   1.013
70978SOL     OW14772   2.360  14.501   6.869
70978SOL    HW114773   2.297  14.512   6.798
70978SOL    HW214774   2.348  14.410   6.897
70979SOL     OW14775   2.940   6.305   1.935
70979SOL    HW114776   2.852   6.317   1.899
70979SOL    HW214777   2.946   6.211   1.954
70980SOL     OW14778   5.366   5.824   6.315
70980SOL    HW114779   5.398   5.882   6.246
70980SOL    HW214780   5.434   5.757   6.323
70981SOL     OW14781   3.531   0.184   4.512
70981SOL    HW114782   3.620   0.214   4.494
70981SOL    HW214783   3.502   0.237   4.586
70982SOL     OW14784  14.819   9.681   8.877
70982SOL    HW114785  14.771   9.761   8.900
70982SOL    HW214786  14.861   9.653   8.958
70983SOL     OW14787  10.162   0.895  10.975
70983SOL    HW114788  10.234   0.855  10.927
70983SOL    HW214789  10.204   0.957  11.035
70984SOL     OW14790   8.854   0.960   4.787
70984SOL    HW114791   8.946   0.934   4.798
70984SOL    HW214792   8.852   1.009   4.705
70985SOL     OW14793  14.099   9.641  13.571
70985SOL    HW114794  14.150   9.675  13.498
70985SOL    HW214795  14.023   9.699  13.575
70986SOL     OW14796  11.020  10.506   5.095
70986SOL    HW114797  10.954  10.451   5.051
70986SOL    HW214798  11.103  10.460   5.081
70987SOL     OW14799   6.087   8.260   6.231
70987SOL    HW114800   6.069   8.288   6.321
70987SOL    HW214801   6.156   8.319   6.200
70988SOL     OW14802   1.782   9.821   7.666
70988SOL    HW114803   1.766   9.730   7.690
70988SOL    HW214804   1.840   9.854   7.735
70989SOL     OW14805   1.574  10.652   6.588
70989SOL    HW114806   1.573  10.559   6.613
70989SOL    HW214807   1.561  10.652   6.494
70990SOL     OW14808  12.981   1.740  13.824
70990SOL    HW114809  12.893   1.714  13.850
70990SOL    HW214810  13.020   1.661  13.787
70991SOL     OW14811   2.716  10.234  12.399
70991SOL    HW114812   2.703  10.150  12.355
70991SOL    HW214813   2.671  10.225  12.483
70992SOL     OW14814   4.933   0.679   8.457
70992SOL    HW114815   4.968   0.596   8.425
70992SOL    HW214816   4.873   0.655   8.527
70993SOL     OW14817  12.562  12.213   1.734
70993SOL    HW114818  12.617  12.137   1.753
70993SOL    HW214819  12.617  12.288   1.753
70994SOL     OW14820   2.487  12.283  14.675
70994SOL    HW114821   2.484  12.360  14.731
70994SOL    HW214822   2.572  12.243  14.693
70995SOL     OW14823   6.109  13.393   7.619
70995SOL    HW114824   6.019  13.362   7.619
70995SOL    HW214825   6.109  13.468   7.679
70996SOL     OW14826   0.744   3.323   4.840
70996SOL    HW114827   0.722   3.369   4.921
70996SOL    HW214828   0.669   3.337   4.783
70997SOL     OW14829  11.565   3.981   7.725
70997SOL    HW114830  11.488   3.997   7.671
70997SOL    HW214831  11.555   3.892   7.757
70998SOL     OW14832  11.141   1.507   0.522
70998SOL    HW114833  11.232   1.524   0.547
70998SOL    HW214834  11.122   1.420   0.556
70999SOL     OW14835   6.310   4.021   7.187
70999SOL    HW114836   6.300   3.989   7.097
70999SOL    HW214837   6.233   3.987   7.233
71000SOL     OW14838  10.205   5.593  14.591
71000SOL    HW114839  10.169   5.618  14.676
71000SOL    HW214840  10.207   5.497  14.594
71001SOL     OW14841  13.144   2.029  10.553
71001SOL    HW114842  13.211   2.028  10.622
71001SOL    HW214843  13.131   1.936  10.532
71002SOL     OW14844  13.851   3.563   6.190
71002SOL    HW114845  13.856   3.472   6.220
71002SOL    HW214846  13.938   3.580   6.152
71003SOL     OW14847  10.943   4.703   2.134
71003SOL    HW114848  10.865   4.702   2.079
71003SOL    HW214849  10.910   4.723   2.222
71004SOL     OW14850  14.602  14.488   1.812
71004SOL    HW114851  14.586  14.428   1.885
71004SOL    HW214852  14.650  14.561   1.851
71005SOL     OW14853  14.596  11.983   0.736
71005SOL    HW114854  14.526  11.943   0.789
71005SOL    HW214855  14.676  11.967   0.786
71006SOL     OW14856  12.497  13.051  13.321
71006SOL    HW114857  12.406  13.030  13.338
71006SOL    HW214858  12.536  12.968  13.292
71007SOL     OW14859   5.303   9.748   6.197
71007SOL    HW114860   5.339   9.776   6.113
71007SOL    HW214861   5.290   9.829   6.246
71008SOL     OW14862   8.444   5.568   9.190
71008SOL    HW114863   8.504   5.499   9.219
71008SOL    HW214864   8.495   5.622   9.130
71009SOL     OW14865   7.677   9.779  10.694
71009SOL    HW114866   7.587   9.777  10.664
71009SOL    HW214867   7.709   9.689  10.681
71010SOL     OW14868   2.329  13.281   4.240
71010SOL    HW114869   2.242  13.265   4.276
71010SOL    HW214870   2.333  13.376   4.228
71011SOL     OW14871   9.597   2.812  10.908
71011SOL    HW114872   9.655   2.855  10.844
71011SOL    HW214873   9.634   2.724  10.916
71012SOL     OW14874   0.838  11.680   2.349
71012SOL    HW114875   0.806  11.728   2.273
71012SOL    HW214876   0.771  11.613   2.365
71013SOL     OW14877  12.798  11.530   4.096
71013SOL    HW114878  12.805  11.518   4.001
71013SOL    HW214879  12.714  11.576   4.107
71014SOL     OW14880   6.318   1.064   4.070
71014SOL    HW114881   6.309   1.143   4.123
71014SOL    HW214882   6.295   0.993   4.129
71015SOL     OW14883  12.050  11.279   9.442
71015SOL    HW114884  12.048  11.375   9.435
71015SOL    HW214885  12.138  11.259   9.474
71016SOL     OW14886   5.923  14.425  11.010
71016SOL    HW114887   5.923  14.348  10.954
71016SOL    HW214888   5.955  14.394  11.094
71017SOL     OW14889   8.586  12.672   8.327
71017SOL    HW114890   8.645  12.706   8.259
71017SOL    HW214891   8.510  12.729   8.323
71018SOL     OW14892   5.396  10.080   9.931
71018SOL    HW114893   5.319  10.089   9.875
71018SOL    HW214894   5.468  10.113   9.878
71019SOL     OW14895  12.521  13.542  10.071
71019SOL    HW114896  12.562  13.455  10.071
71019SOL    HW214897  12.533  13.575  10.160
71020SOL     OW14898   8.816  14.678  14.547
71020SOL    HW114899   8.823  14.725  14.630
71020SOL    HW214900   8.732  14.633  14.552
71021SOL     OW14901  12.321   8.025   8.656
71021SOL    HW114902  12.315   8.013   8.751
71021SOL    HW214903  12.410   8.058   8.642
71022SOL     OW14904   1.554  10.547   6.081
71022SOL    HW114905   1.639  10.506   6.098
71022SOL    HW214906   1.521  10.502   6.003
71023SOL     OW14907   7.569  11.059   4.715
71023SOL    HW114908   7.502  11.056   4.647
71023SOL    HW214909   7.605  11.147   4.708
71024SOL     OW14910   3.827   4.141   7.042
71024SOL    HW114911   3.843   4.065   6.986
71024SOL    HW214912   3.914   4.176   7.059
71025SOL     OW14913  14.588   8.809  13.646
71025SOL    HW114914  14.514   8.778  13.698
71025SOL    HW214915  14.639   8.863  13.706
71026SOL     OW14916   0.967   9.068   4.398
71026SOL    HW114917   0.929   9.129   4.336
71026SOL    HW214918   0.985   8.989   4.346
71027SOL     OW14919   0.753   9.364   3.194
71027SOL    HW114920   0.785   9.361   3.103
71027SOL    HW214921   0.665   9.328   3.190
71028SOL     OW14922   4.482   5.137   7.347
71028SOL    HW114923   4.426   5.076   7.300
71028SOL    HW214924   4.557   5.150   7.289
71029SOL     OW14925   4.188   8.557   3.580
71029SOL    HW114926   4.255   8.616   3.613
71029SOL    HW214927   4.168   8.499   3.654
71030SOL     OW14928   9.698   0.041   8.908
71030SOL    HW114929   9.750  14.873   8.975
71030SOL    HW214930   9.763   0.085   8.853
71031SOL     OW14931  14.656   6.807   4.491
71031SOL    HW114932  14.626   6.822   4.580
71031SOL    HW214933  14.705   6.725   4.495
71032SOL     OW14934   6.888   5.538   8.827
71032SOL    HW114935   6.968   5.587   8.842
71032SOL    HW214936   6.831   5.598   8.779
71033SOL     OW14937   5.497   8.680  13.919
71033SOL    HW114938   5.411   8.717  13.938
71033SOL    HW214939   5.549   8.754  13.888
71034SOL     OW14940   5.381   2.402   5.109
71034SOL    HW114941   5.288   2.424   5.109
71034SOL    HW214942   5.409   2.413   5.200
71035SOL     OW14943   6.939   6.696   7.591
71035SOL    HW114944   7.030   6.673   7.574
71035SOL    HW214945   6.893   6.613   7.597
71036SOL     OW14946  12.339   3.943  14.282
71036SOL    HW114947  12.275   3.997  14.236
71036SOL    HW214948  12.311   3.853  14.266
71037SOL     OW14949  12.683   1.553   5.554
71037SOL    HW114950  12.696   1.560   5.649
71037SOL    HW214951  12.597   1.513   5.544
71038SOL     OW14952   1.989  12.334  10.448
71038SOL    HW114953   2.052  12.295  10.386
71038SOL    HW214954   2.017  12.302  10.534
71039SOL     OW14955   1.546  11.755   7.472
71039SOL    HW114956   1.473  11.735   7.413
71039SOL    HW214957   1.533  11.846   7.495
71040SOL     OW14958   5.619   1.654  10.292
71040SOL    HW114959   5.620   1.745  10.265
71040SOL    HW214960   5.580   1.607  10.219
71041SOL     OW14961   9.437  14.577   8.743
71041SOL    HW114962   9.508  14.600   8.683
71041SOL    HW214963   9.452  14.632   8.820
71042SOL     OW14964   3.146   9.903   8.059
71042SOL    HW114965   3.118   9.872   7.973
71042SOL    HW214966   3.096   9.851   8.121
71043SOL     OW14967   9.012  13.216   6.399
71043SOL    HW114968   8.984  13.307   6.388
71043SOL    HW214969   9.044  13.191   6.313
71044SOL     OW14970   3.270   9.384   4.644
71044SOL    HW114971   3.237   9.461   4.600
71044SOL    HW214972   3.331   9.345   4.581
71045SOL     OW14973   7.968   0.410   6.483
71045SOL    HW114974   8.021   0.432   6.407
71045SOL    HW214975   7.886   0.378   6.447
71046SOL     OW14976   1.007   3.774   9.545
71046SOL    HW114977   0.948   3.799   9.616
71046SOL    HW214978   1.017   3.854   9.493
71047SOL     OW14979  13.084  10.882   9.231
71047SOL    HW114980  13.179  10.893   9.241
71047SOL    HW214981  13.066  10.796   9.270
71048SOL     OW14982   1.189  13.591   0.245
71048SOL    HW114983   1.272  13.551   0.270
71048SOL    HW214984   1.199  13.612   0.152
71049SOL     OW14985   1.411   3.374  14.127
71049SOL    HW114986   1.445   3.293  14.088
71049SOL    HW214987   1.330   3.348  14.171
71050SOL     OW14988   7.245   3.659   1.537
71050SOL    HW114989   7.239   3.623   1.449
71050SOL    HW214990   7.158   3.648   1.575
71051SOL     OW14991   6.900   5.286   8.406
71051SOL    HW114992   6.867   5.266   8.493
71051SOL    HW214993   6.864   5.372   8.386
71052SOL     OW14994   1.740   5.226   4.669
71052SOL    HW114995   1.743   5.132   4.653
71052SOL    HW214996   1.828   5.247   4.701
71053SOL     OW14997  13.462  12.972   2.551
71053SOL    HW114998  13.382  13.017   2.579
71053SOL    HW214999  13.506  12.948   2.633
71054SOL     OW15000   5.088   2.591  12.366
71054SOL    HW115001   5.074   2.547  12.282
71054SOL    HW215002   5.181   2.578  12.385
71055SOL     OW15003  10.607   3.231   8.234
71055SOL    HW115004  10.542   3.195   8.173
71055SOL    HW215005  10.584   3.324   8.241
71056SOL     OW15006  13.128   3.674  12.913
71056SOL    HW115007  13.092   3.676  13.002
71056SOL    HW215008  13.219   3.701  12.924
71057SOL     OW15009  10.979  13.682   0.577
71057SOL    HW115010  10.914  13.666   0.646
71057SOL    HW215011  11.004  13.594   0.547
71058SOL     OW15012  10.420   9.341   7.327
71058SOL    HW115013  10.330   9.368   7.347
71058SOL    HW215014  10.467   9.423   7.311
71059SOL     OW15015   6.055   0.341   9.273
71059SOL    HW115016   5.993   0.356   9.202
71059SOL    HW215017   6.007   0.285   9.334
71060SOL     OW15018   0.451   6.457   2.080
71060SOL    HW115019   0.410   6.403   2.012
71060SOL    HW215020   0.453   6.400   2.157
71061SOL     OW15021  11.706  11.493   4.969
71061SOL    HW115022  11.786  11.487   5.021
71061SOL    HW215023  11.688  11.587   4.963
71062SOL     OW15024   7.819  10.259  10.246
71062SOL    HW115025   7.843  10.245  10.337
71062SOL    HW215026   7.848  10.179  10.201
71063SOL     OW15027   7.349   5.557   0.405
71063SOL    HW115028   7.338   5.532   0.313
71063SOL    HW215029   7.267   5.600   0.428
71064SOL     OW15030  14.297   9.132   4.389
71064SOL    HW115031  14.207   9.099   4.385
71064SOL    HW215032  14.301   9.198   4.320
71065SOL     OW15033   4.657   1.906   6.335
71065SOL    HW115034   4.702   1.952   6.405
71065SOL    HW215035   4.566   1.936   6.341
71066SOL     OW15036   6.782   2.765   6.796
71066SOL    HW115037   6.870   2.733   6.816
71066SOL    HW215038   6.750   2.706   6.728
71067SOL     OW15039   1.049  10.841  13.896
71067SOL    HW115040   1.005  10.757  13.907
71067SOL    HW215041   1.044  10.860  13.803
71068SOL     OW15042   4.775   2.970   6.645
71068SOL    HW115043   4.820   2.993   6.726
71068SOL    HW215044   4.773   2.874   6.645
71069SOL     OW15045  11.939   8.152   9.702
71069SOL    HW115046  11.880   8.194   9.765
71069SOL    HW215047  11.894   8.160   9.618
71070SOL     OW15048  11.842   2.747   9.240
71070SOL    HW115049  11.840   2.709   9.327
71070SOL    HW215050  11.930   2.729   9.207
71071SOL     OW15051   2.959  14.198   2.661
71071SOL    HW115052   3.042  14.197   2.614
71071SOL    HW215053   2.962  14.279   2.713
71072SOL     OW15054  10.851   5.973   7.205
71072SOL    HW115055  10.811   6.032   7.141
71072SOL    HW215056  10.887   6.030   7.272
71073SOL     OW15057   4.229   8.208   9.715
71073SOL    HW115058   4.323   8.190   9.715
71073SOL    HW215059   4.202   8.193   9.624
71074SOL     OW15060  10.829   8.821   9.918
71074SOL    HW115061  10.885   8.890   9.884
71074SOL    HW215062  10.889   8.755   9.951
71075SOL     OW15063   3.432  10.476  11.581
71075SOL    HW115064   3.433  10.394  11.630
71075SOL    HW215065   3.469  10.455  11.496
71076SOL     OW15066   0.860  10.628   0.224
71076SOL    HW115067   0.893  10.621   0.134
71076SOL    HW215068   0.777  10.674   0.216
71077SOL     OW15069  13.127  10.100  13.497
71077SOL    HW115070  13.204  10.053  13.527
71077SOL    HW215071  13.161  10.173  13.445
71078SOL     OW15072  11.250  10.973   0.606
71078SOL    HW115073  11.300  11.033   0.662
71078SOL    HW215074  11.245  11.018   0.522
71079SOL     OW15075   5.459  12.854   2.599
71079SOL    HW115076   5.439  12.917   2.669
71079SOL    HW215077   5.386  12.792   2.602
71080SOL     OW15078   9.863   9.787   8.678
71080SOL    HW115079   9.809   9.854   8.721
71080SOL    HW215080   9.849   9.802   8.584
71081SOL     OW15081   3.074   3.341   9.516
71081SOL    HW115082   3.047   3.409   9.577
71081SOL    HW215083   3.039   3.260   9.553
71082SOL     OW15084  12.450  11.590  11.490
71082SOL    HW115085  12.403  11.658  11.537
71082SOL    HW215086  12.381  11.535  11.451
71083SOL     OW15087   9.139   6.264   5.521
71083SOL    HW115088   9.124   6.358   5.512
71083SOL    HW215089   9.059   6.224   5.487
71084SOL     OW15090   3.730  11.308  13.561
71084SOL    HW115091   3.657  11.355  13.603
71084SOL    HW215092   3.712  11.314  13.467
71085SOL     OW15093   1.150   0.238  13.252
71085SOL    HW115094   1.110   0.207  13.170
71085SOL    HW215095   1.244   0.227  13.238
71086SOL     OW15096   2.207   9.373  11.695
71086SOL    HW115097   2.220   9.462  11.663
71086SOL    HW215098   2.171   9.383  11.783
71087SOL     OW15099   8.596   8.629   3.874
71087SOL    HW115100   8.647   8.679   3.810
71087SOL    HW215101   8.506   8.654   3.857
71088SOL     OW15102   9.308   7.773  10.466
71088SOL    HW115103   9.291   7.769  10.560
71088SOL    HW215104   9.235   7.724  10.426
71089SOL     OW15105  14.781  10.683   9.469
71089SOL    HW115106  14.731  10.617   9.517
71089SOL    HW215107  14.743  10.683   9.381
71090SOL     OW15108   2.617   1.421   1.727
71090SOL    HW115109   2.538   1.383   1.690
71090SOL    HW215110   2.607   1.516   1.713
71091SOL     OW15111  10.859   1.138   9.360
71091SOL    HW115112  10.913   1.202   9.314
71091SOL    HW215113  10.916   1.062   9.372
71092SOL     OW15114  14.586   0.856   3.729
71092SOL    HW115115  14.545   0.940   3.710
71092SOL    HW215116  14.588   0.811   3.645
71093SOL     OW15117   0.366   3.435   1.801
71093SOL    HW115118   0.306   3.404   1.733
71093SOL    HW215119   0.319   3.507   1.843
71094SOL     OW15120  13.265  14.614   0.921
71094SOL    HW115121  13.191  14.639   0.867
71094SOL    HW215122  13.340  14.615   0.862
71095SOL     OW15123   6.726   6.465   0.070
71095SOL    HW115124   6.714   6.497  14.857
71095SOL    HW215125   6.813   6.424   0.069
71096SOL     OW15126   6.689   4.812  14.138
71096SOL    HW115127   6.619   4.782  14.195
71096SOL    HW215128   6.662   4.786  14.050
71097SOL     OW15129  11.839   7.007   6.398
71097SOL    HW115130  11.837   6.993   6.493
71097SOL    HW215131  11.765   7.065   6.381
71098SOL     OW15132   3.068   5.147   6.694
71098SOL    HW115133   3.147   5.104   6.660
71098SOL    HW215134   3.043   5.208   6.625
71099SOL     OW15135   4.203  12.117   9.557
71099SOL    HW115136   4.293  12.086   9.554
71099SOL    HW215137   4.150  12.040   9.534
71100SOL     OW15138   7.477  13.445   7.910
71100SOL    HW115139   7.457  13.374   7.970
71100SOL    HW215140   7.522  13.403   7.837
71101SOL     OW15141  10.622   2.359   7.739
71101SOL    HW115142  10.540   2.376   7.693
71101SOL    HW215143  10.666   2.444   7.742
71102SOL     OW15144  11.064   9.541   3.683
71102SOL    HW115145  11.032   9.572   3.768
71102SOL    HW215146  11.113   9.616   3.648
71103SOL     OW15147   5.293   3.257   0.145
71103SOL    HW115148   5.275   3.164   0.156
71103SOL    HW215149   5.387   3.266   0.162
71104SOL     OW15150  10.754   2.188  11.635
71104SOL    HW115151  10.705   2.270  11.644
71104SOL    HW215152  10.692   2.120  11.660
71105SOL     OW15153   7.976  13.254  14.012
71105SOL    HW115154   8.059  13.270  13.967
71105SOL    HW215155   7.932  13.188  13.958
71106SOL     OW15156   7.470   9.629   8.966
71106SOL    HW115157   7.541   9.639   8.903
71106SOL    HW215158   7.513   9.625   9.051
71107SOL     OW15159   7.786   9.891  12.407
71107SOL    HW115160   7.718   9.876  12.341
71107SOL    HW215161   7.795   9.807  12.451
71108SOL     OW15162  11.990   1.305   7.010
71108SOL    HW115163  11.997   1.213   6.985
71108SOL    HW215164  12.010   1.306   7.104
71109SOL     OW15165  11.544   2.331  10.343
71109SOL    HW115166  11.518   2.274  10.271
71109SOL    HW215167  11.478   2.400  10.344
71110SOL     OW15168  10.136   7.783  14.536
71110SOL    HW115169  10.218   7.826  14.510
71110SOL    HW215170  10.072   7.854  14.540
71111SOL     OW15171  11.751   1.172   4.968
71111SOL    HW115172  11.843   1.169   4.997
71111SOL    HW215173  11.744   1.101   4.905
71112SOL     OW15174  14.184   7.741   4.892
71112SOL    HW115175  14.152   7.699   4.812
71112SOL    HW215176  14.156   7.832   4.884
71113SOL     OW15177   2.161   5.061  12.373
71113SOL    HW115178   2.103   5.051  12.298
71113SOL    HW215179   2.194   4.972  12.390
71114SOL     OW15180   3.146   5.537   8.892
71114SOL    HW115181   3.188   5.623   8.890
71114SOL    HW215182   3.186   5.493   8.967
71115SOL     OW15183   4.350  13.072   3.045
71115SOL    HW115184   4.391  12.990   3.069
71115SOL    HW215185   4.256  13.052   3.040
71116SOL     OW15186   2.760   0.201  12.047
71116SOL    HW115187   2.750   0.107  12.060
71116SOL    HW215188   2.713   0.220  11.966
71117SOL     OW15189   5.187  11.131   6.837
71117SOL    HW115190   5.265  11.138   6.892
71117SOL    HW215191   5.157  11.222   6.826
71118SOL     OW15192   8.852  12.280   9.727
71118SOL    HW115193   8.932  12.238   9.758
71118SOL    HW215194   8.883  12.355   9.676
71119SOL     OW15195   2.495   3.778  12.271
71119SOL    HW115196   2.570   3.779  12.211
71119SOL    HW215197   2.496   3.691  12.309
71120SOL     OW15198  11.058   5.371   0.245
71120SOL    HW115199  11.047   5.321   0.164
71120SOL    HW215200  11.039   5.309   0.315
71121SOL     OW15201  10.534   0.535   2.174
71121SOL    HW115202  10.490   0.613   2.208
71121SOL    HW215203  10.464   0.482   2.136
71122SOL     OW15204   7.780   7.807   3.173
71122SOL    HW115205   7.721   7.797   3.098
71122SOL    HW215206   7.863   7.835   3.134
71123SOL     OW15207  10.306   0.080   7.936
71123SOL    HW115208  10.230   0.137   7.951
71123SOL    HW215209  10.332   0.052   8.024
71124SOL     OW15210   4.150  10.846   5.576
71124SOL    HW115211   4.093  10.769   5.584
71124SOL    HW215212   4.116  10.908   5.641
71125SOL     OW15213  13.213   4.064   3.032
71125SOL    HW115214  13.124   4.069   2.996
71125SOL    HW215215  13.220   4.141   3.089
71126SOL     OW15216  11.035  10.621  12.001
71126SOL    HW115217  10.954  10.571  12.009
71126SOL    HW215218  11.070  10.597  11.915
71127SOL     OW15219   4.213   8.324   9.214
71127SOL    HW115220   4.125   8.332   9.179
71127SOL    HW215221   4.257   8.261   9.157
71128SOL     OW15222   5.677   4.462   4.079
71128SOL    HW115223   5.714   4.538   4.034
71128SOL    HW215224   5.734   4.389   4.053
71129SOL     OW15225  14.304   5.314  14.048
71129SOL    HW115226  14.275   5.378  14.113
71129SOL    HW215227  14.229   5.302  13.990
71130SOL     OW15228   7.364   6.386   9.227
71130SOL    HW115229   7.296   6.322   9.205
71130SOL    HW215230   7.343   6.414   9.316
71131SOL     OW15231   9.496   7.593   9.864
71131SOL    HW115232   9.577   7.623   9.824
71131SOL    HW215233   9.496   7.630   9.952
71132SOL     OW15234   7.904   3.355  10.823
71132SOL    HW115235   7.955   3.378  10.901
71132SOL    HW215236   7.938   3.411  10.754
71133SOL     OW15237   5.189   8.707   9.441
71133SOL    HW115238   5.107   8.745   9.408
71133SOL    HW215239   5.184   8.615   9.416
71134SOL     OW15240  13.983   8.983   6.982
71134SOL    HW115241  14.037   8.908   6.957
71134SOL    HW215242  13.952   8.963   7.070
71135SOL     OW15243   5.539  13.439   2.657
71135SOL    HW115244   5.510  13.414   2.569
71135SOL    HW215245   5.599  13.513   2.642
71136SOL     OW15246   1.456  10.667  11.816
71136SOL    HW115247   1.468  10.588  11.763
71136SOL    HW215248   1.395  10.720  11.765
71137SOL     OW15249  10.290   1.102  13.496
71137SOL    HW115250  10.309   1.013  13.526
71137SOL    HW215251  10.376   1.140  13.479
71138SOL     OW15252   2.458  13.104   9.387
71138SOL    HW115253   2.479  13.115   9.294
71138SOL    HW215254   2.429  13.013   9.394
71139SOL     OW15255  14.831  11.926  13.591
71139SOL    HW115256  14.754  11.983  13.589
71139SOL    HW215257   0.025  11.978  13.553
71140SOL     OW15258   8.329   2.678   7.579
71140SOL    HW115259   8.405   2.731   7.555
71140SOL    HW215260   8.268   2.741   7.618
71141SOL     OW15261   1.876   5.321  12.789
71141SOL    HW115262   1.819   5.398  12.783
71141SOL    HW215263   1.910   5.309  12.701
71142SOL     OW15264   2.866  14.445   4.709
71142SOL    HW115265   2.961  14.462   4.705
71142SOL    HW215266   2.846  14.404   4.625
71143SOL     OW15267   7.676   1.184  10.055
71143SOL    HW115268   7.655   1.172   9.962
71143SOL    HW215269   7.596   1.158  10.101
71144SOL     OW15270  12.062  14.416   3.984
71144SOL    HW115271  12.112  14.440   4.062
71144SOL    HW215272  12.057  14.496   3.933
71145SOL     OW15273   5.083  14.699  12.116
71145SOL    HW115274   5.117  14.701  12.205
71145SOL    HW215275   5.026  14.776  12.110
71146SOL     OW15276  13.801  14.439   2.894
71146SOL    HW115277  13.711  14.408   2.900
71146SOL    HW215278  13.803  14.494   2.816
71147SOL     OW15279   2.046  10.069  10.202
71147SOL    HW115280   2.134  10.033  10.202
71147SOL    HW215281   1.998  10.017  10.138
71148SOL     OW15282   9.871  10.062   4.376
71148SOL    HW115283   9.881  10.003   4.450
71148SOL    HW215284   9.780  10.052   4.348
71149SOL     OW15285   6.583   4.819   7.335
71149SOL    HW115286   6.617   4.762   7.404
71149SOL    HW215287   6.651   4.885   7.323
71150SOL     OW15288   2.526   9.177  13.903
71150SOL    HW115289   2.439   9.193  13.866
71150SOL    HW215290   2.525   9.222  13.988
71151SOL     OW15291   7.114  11.689   9.458
71151SOL    HW115292   7.045  11.724   9.402
71151SOL    HW215293   7.190  11.745   9.441
71152SOL     OW15294  11.060   0.556  14.442
71152SOL    HW115295  11.143   0.587  14.405
71152SOL    HW215296  11.054   0.600  14.527
71153SOL     OW15297   9.218   6.756  13.763
71153SOL    HW115298   9.178   6.691  13.820
71153SOL    HW215299   9.312   6.751  13.782
71154SOL     OW15300   1.146   9.265  12.733
71154SOL    HW115301   1.171   9.215  12.811
71154SOL    HW215302   1.051   9.259  12.730
71155SOL     OW15303   3.753   4.168   4.882
71155SOL    HW115304   3.659   4.160   4.870
71155SOL    HW215305   3.783   4.221   4.808
71156SOL     OW15306   3.274   1.197   4.880
71156SOL    HW115307   3.287   1.220   4.788
71156SOL    HW215308   3.192   1.239   4.905
71157SOL     OW15309   2.035   7.005   0.238
71157SOL    HW115310   2.109   7.059   0.211
71157SOL    HW215311   1.962   7.037   0.184
71158SOL     OW15312   8.545   3.747   4.853
71158SOL    HW115313   8.508   3.805   4.919
71158SOL    HW215314   8.637   3.774   4.846
71159SOL     OW15315  11.491  13.668   3.274
71159SOL    HW115316  11.538  13.710   3.347
71159SOL    HW215317  11.493  13.575   3.294
71160SOL     OW15318   8.593  10.765   4.144
71160SOL    HW115319   8.574  10.695   4.082
71160SOL    HW215320   8.672  10.807   4.109
71161SOL     OW15321  14.393   7.457   3.431
71161SOL    HW115322  14.449   7.517   3.481
71161SOL    HW215323  14.398   7.488   3.341
71162SOL     OW15324  12.482   5.493   5.948
71162SOL    HW115325  12.462   5.586   5.957
71162SOL    HW215326  12.413   5.459   5.890
71163SOL     OW15327  11.504  11.562   1.628
71163SOL    HW115328  11.578  11.622   1.622
71163SOL    HW215329  11.501  11.519   1.542
71164SOL     OW15330   5.867   2.905  10.385
71164SOL    HW115331   5.802   2.890  10.453
71164SOL    HW215332   5.942   2.851  10.411
71165SOL     OW15333   2.788   1.980   0.210
71165SOL    HW115334   2.873   1.956   0.247
71165SOL    HW215335   2.747   1.896   0.188
71166SOL     OW15336  11.284   4.503   3.101
71166SOL    HW115337  11.212   4.508   3.164
71166SOL    HW215338  11.296   4.410   3.085
71167SOL     OW15339   6.588   3.220   6.696
71167SOL    HW115340   6.682   3.201   6.693
71167SOL    HW215341   6.547   3.135   6.712
71168SOL     OW15342   5.463   2.350  11.203
71168SOL    HW115343   5.423   2.274  11.161
71168SOL    HW215344   5.475   2.324  11.294
71169SOL     OW15345   9.706   9.396   4.564
71169SOL    HW115346   9.618   9.433   4.556
71169SOL    HW215347   9.692   9.303   4.581
71170SOL     OW15348   6.867   0.391   0.292
71170SOL    HW115349   6.824   0.308   0.313
71170SOL    HW215350   6.802   0.458   0.314
71171SOL     OW15351   2.546   0.260   2.114
71171SOL    HW115352   2.606   0.220   2.177
71171SOL    HW215353   2.586   0.344   2.093
71172SOL     OW15354   0.573  13.121  11.468
71172SOL    HW115355   0.598  13.155  11.383
71172SOL    HW215356   0.649  13.073  11.499
71173SOL     OW15357  12.388   5.791  11.778
71173SOL    HW115358  12.305   5.750  11.752
71173SOL    HW215359  12.439   5.794  11.697
71174SOL     OW15360   6.151  10.381   0.396
71174SOL    HW115361   6.219  10.393   0.461
71174SOL    HW215362   6.070  10.405   0.441
71175SOL     OW15363   2.632   7.664  11.500
71175SOL    HW115364   2.616   7.735  11.562
71175SOL    HW215365   2.725   7.673  11.478
71176SOL     OW15366  13.585  11.043  13.586
71176SOL    HW115367  13.641  10.965  13.586
71176SOL    HW215368  13.643  11.114  13.561
71177SOL     OW15369   3.178  12.037   5.576
71177SOL    HW115370   3.208  11.980   5.506
71177SOL    HW215371   3.084  12.020   5.583
71178SOL     OW15372   5.329   2.168   4.983
71178SOL    HW115373   5.368   2.252   5.008
71178SOL    HW215374   5.403   2.109   4.973
71179SOL     OW15375   0.168   6.380   3.669
71179SOL    HW115376   0.117   6.461   3.667
71179SOL    HW215377   0.153   6.340   3.583
71180SOL     OW15378  10.625   9.047   4.340
71180SOL    HW115379  10.600   8.985   4.271
71180SOL    HW215380  10.715   9.070   4.319
71181SOL     OW15381   7.817   1.169  13.375
71181SOL    HW115382   7.737   1.165  13.323
71181SOL    HW215383   7.849   1.258  13.362
71182SOL     OW15384  12.222   4.450   0.878
71182SOL    HW115385  12.249   4.365   0.912
71182SOL    HW215386  12.127   4.444   0.872
71183SOL     OW15387   9.006   2.138  14.374
71183SOL    HW115388   8.917   2.140  14.337
71183SOL    HW215389   9.053   2.074  14.320
71184SOL     OW15390   7.785   4.760   0.946
71184SOL    HW115391   7.809   4.850   0.924
71184SOL    HW215392   7.868   4.713   0.952
71185SOL     OW15393   2.972  11.753  14.563
71185SOL    HW115394   2.985  11.676  14.618
71185SOL    HW215395   2.891  11.792  14.595
71186SOL     OW15396   4.332   3.934  13.231
71186SOL    HW115397   4.359   3.871  13.298
71186SOL    HW215398   4.384   3.911  13.154
71187SOL     OW15399   7.284   6.307   4.621
71187SOL    HW115400   7.368   6.352   4.607
71187SOL    HW215401   7.308   6.218   4.647
71188SOL     OW15402   9.284  10.998   3.955
71188SOL    HW115403   9.251  11.052   4.026
71188SOL    HW215404   9.268  11.049   3.876
71189SOL     OW15405   6.308  14.780   2.021
71189SOL    HW115406   6.348  14.730   2.092
71189SOL    HW215407   6.214  14.763   2.029
71190SOL     OW15408  14.496   4.311   4.224
71190SOL    HW115409  14.572   4.325   4.168
71190SOL    HW215410  14.527   4.332   4.312
71191SOL     OW15411   7.543   3.966   6.639
71191SOL    HW115412   7.486   4.041   6.653
71191SOL    HW215413   7.540   3.917   6.721
71192SOL     OW15414   9.010   2.726   3.896
71192SOL    HW115415   9.103   2.708   3.902
71192SOL    HW215416   8.997   2.759   3.807
71193SOL     OW15417   4.896   4.680   9.333
71193SOL    HW115418   4.890   4.650   9.242
71193SOL    HW215419   4.829   4.629   9.380
71194SOL     OW15420  14.510   7.732  14.795
71194SOL    HW115421  14.523   7.773  14.710
71194SOL    HW215422  14.562   7.785  14.855
71195SOL     OW15423   0.710   4.924   4.668
71195SOL    HW115424   0.781   4.983   4.642
71195SOL    HW215425   0.631   4.963   4.632
71196SOL     OW15426   9.145   9.946  10.308
71196SOL    HW115427   9.089   9.974  10.381
71196SOL    HW215428   9.185  10.027  10.277
71197SOL     OW15429   9.515  14.515   0.884
71197SOL    HW115430   9.584  14.488   0.823
71197SOL    HW215431   9.561  14.562   0.953
71198SOL     OW15432   0.235  12.387   2.402
71198SOL    HW115433   0.173  12.358   2.335
71198SOL    HW215434   0.218  12.331   2.478
71199SOL     OW15435   2.032  11.396   8.595
71199SOL    HW115436   2.035  11.475   8.542
71199SOL    HW215437   2.008  11.326   8.534
71200SOL     OW15438   5.096   8.627   2.565
71200SOL    HW115439   5.089   8.533   2.583
71200SOL    HW215440   5.175   8.635   2.513
71201SOL     OW15441   9.036  12.770   9.119
71201SOL    HW115442   9.050  12.723   9.202
71201SOL    HW215443   9.069  12.858   9.136
71202SOL     OW15444  10.010   2.414   9.644
71202SOL    HW115445  10.034   2.441   9.556
71202SOL    HW215446   9.950   2.482   9.674
71203SOL     OW15447   6.712  10.611   0.731
71203SOL    HW115448   6.716  10.581   0.641
71203SOL    HW215449   6.775  10.556   0.778
71204SOL     OW15450   0.919   1.096  13.173
71204SOL    HW115451   0.968   1.018  13.198
71204SOL    HW215452   0.957   1.123  13.089
71205SOL     OW15453  12.316   8.677   6.122
71205SOL    HW115454  12.401   8.690   6.163
71205SOL    HW215455  12.254   8.715   6.185
71206SOL     OW15456  11.628   9.873  11.553
71206SOL    HW115457  11.722   9.884  11.567
71206SOL    HW215458  11.591   9.873  11.641
71207SOL     OW15459   8.290   0.126   8.763
71207SOL    HW115460   8.337   0.053   8.802
71207SOL    HW215461   8.198   0.113   8.788
71208SOL     OW15462   0.871   2.412   7.281
71208SOL    HW115463   0.866   2.392   7.187
71208SOL    HW215464   0.930   2.487   7.286
71209SOL     OW15465  10.267   8.166  10.432
71209SOL    HW115466  10.247   8.101  10.364
71209SOL    HW215467  10.314   8.116  10.500
71210SOL     OW15468   3.619   8.126   7.467
71210SOL    HW115469   3.682   8.105   7.397
71210SOL    HW215470   3.538   8.083   7.440
71211SOL     OW15471   9.661  13.181   3.889
71211SOL    HW115472   9.623  13.263   3.921
71211SOL    HW215473   9.600  13.151   3.822
71212SOL     OW15474   5.900  10.903   7.499
71212SOL    HW115475   5.972  10.907   7.561
71212SOL    HW215476   5.856  10.988   7.509
71213SOL     OW15477   1.562  11.545  14.833
71213SOL    HW115478   1.522  11.465  14.869
71213SOL    HW215479   1.496  11.579  14.773
71214SOL     OW15480   3.867  14.769   8.767
71214SOL    HW115481   3.793  14.713   8.742
71214SOL    HW215482   3.941  14.732   8.719
71215SOL     OW15483   3.104  12.923  14.600
71215SOL    HW115484   3.107  12.996  14.539
71215SOL    HW215485   3.165  12.946  14.670
71216SOL     OW15486   0.104   7.065  13.147
71216SOL    HW115487   0.068   7.028  13.227
71216SOL    HW215488   0.027   7.079  13.091
71217SOL     OW15489   8.512   7.588   8.759
71217SOL    HW115490   8.554   7.506   8.733
71217SOL    HW215491   8.550   7.609   8.844
71218SOL     OW15492   6.100   1.549   5.912
71218SOL    HW115493   6.153   1.469   5.917
71218SOL    HW215494   6.048   1.548   5.992
71219SOL     OW15495   4.281   4.841   1.861
71219SOL    HW115496   4.271   4.880   1.948
71219SOL    HW215497   4.217   4.770   1.859
71220SOL     OW15498   9.347  11.780   3.901
71220SOL    HW115499   9.342  11.747   3.991
71220SOL    HW215500   9.401  11.859   3.908
71221SOL     OW15501   2.371   3.113   3.251
71221SOL    HW115502   2.384   3.037   3.193
71221SOL    HW215503   2.293   3.156   3.217
71222SOL     OW15504   1.211   1.716   0.099
71222SOL    HW115505   1.207   1.736   0.005
71222SOL    HW215506   1.154   1.640   0.110
71223SOL     OW15507   2.024   1.681   5.644
71223SOL    HW115508   2.113   1.717   5.649
71223SOL    HW215509   1.975   1.746   5.594
71224SOL     OW15510  13.390  12.534  13.869
71224SOL    HW115511  13.399  12.443  13.842
71224SOL    HW215512  13.380  12.530  13.964
71225SOL     OW15513   2.419   7.712   8.725
71225SOL    HW115514   2.410   7.775   8.653
71225SOL    HW215515   2.350   7.648   8.710
71226SOL     OW15516   9.402   8.886   6.489
71226SOL    HW115517   9.373   8.802   6.526
71226SOL    HW215518   9.322   8.938   6.483
71227SOL     OW15519   9.162  10.019   4.425
71227SOL    HW115520   9.089  10.080   4.426
71227SOL    HW215521   9.234  10.067   4.466
71228SOL     OW15522   6.967  10.862  13.390
71228SOL    HW115523   7.047  10.915  13.393
71228SOL    HW215524   6.989  10.786  13.337
71229SOL     OW15525   4.771  10.091  13.757
71229SOL    HW115526   4.830  10.017  13.745
71229SOL    HW215527   4.799  10.155  13.691
71230SOL     OW15528  13.241   6.453  13.809
71230SOL    HW115529  13.286   6.421  13.887
71230SOL    HW215530  13.153   6.475  13.840
71231SOL     OW15531   8.528   7.249  13.009
71231SOL    HW115532   8.515   7.175  12.950
71231SOL    HW215533   8.487   7.323  12.964
71232SOL     OW15534   5.967   5.736   9.180
71232SOL    HW115535   5.959   5.826   9.148
71232SOL    HW215536   6.043   5.739   9.239
71233SOL     OW15537   1.642  14.280   8.232
71233SOL    HW115538   1.627  14.292   8.325
71233SOL    HW215539   1.696  14.354   8.206
71234SOL     OW15540   2.448   7.282   8.288
71234SOL    HW115541   2.476   7.201   8.246
71234SOL    HW215542   2.454   7.348   8.219
71235SOL     OW15543  10.876  13.527   5.916
71235SOL    HW115544  10.904  13.488   5.998
71235SOL    HW215545  10.786  13.557   5.933
71236SOL     OW15546  10.119  10.670   0.529
71236SOL    HW115547  10.138  10.763   0.534
71236SOL    HW215548  10.203  10.629   0.508
71237SOL     OW15549   8.123   0.687   7.075
71237SOL    HW115550   8.100   0.597   7.053
71237SOL    HW215551   8.071   0.707   7.153
71238SOL     OW15552  14.476  14.704  12.881
71238SOL    HW115553  14.402  14.685  12.938
71238SOL    HW215554  14.438  14.711  12.793
71239SOL     OW15555  13.313   3.264   9.759
71239SOL    HW115556  13.371   3.324   9.806
71239SOL    HW215557  13.281   3.205   9.827
71240SOL     OW15558  14.093  11.820  11.556
71240SOL    HW115559  14.063  11.742  11.509
71240SOL    HW215560  14.064  11.806  11.646
71241SOL     OW15561  10.088  14.730   9.396
71241SOL    HW115562  10.124  14.739   9.485
71241SOL    HW215563   9.997  14.758   9.404
71242SOL     OW15564  12.009  14.620  10.274
71242SOL    HW115565  12.097  14.595  10.247
71242SOL    HW215566  12.003  14.714  10.255
71243SOL     OW15567   1.621   6.514   4.366
71243SOL    HW115568   1.554   6.462   4.410
71243SOL    HW215569   1.704   6.479   4.397
71244SOL     OW15570  10.611   7.782  12.076
71244SOL    HW115571  10.677   7.779  12.007
71244SOL    HW215572  10.531   7.749  12.034
71245SOL     OW15573  10.903   1.100   2.878
71245SOL    HW115574  10.872   1.013   2.903
71245SOL    HW215575  10.986   1.110   2.925
71246SOL     OW15576   0.236   7.707   6.242
71246SOL    HW115577   0.292   7.783   6.222
71246SOL    HW215578   0.285   7.658   6.307
71247SOL     OW15579   4.498   3.056  10.079
71247SOL    HW115580   4.412   3.023  10.105
71247SOL    HW215581   4.480   3.114  10.005
71248SOL     OW15582   2.807  11.672  11.612
71248SOL    HW115583   2.726  11.720  11.627
71248SOL    HW215584   2.853  11.724  11.546
71249SOL     OW15585   6.449  10.093  13.670
71249SOL    HW115586   6.481  10.135  13.590
71249SOL    HW215587   6.398  10.161  13.713
71250SOL     OW15588   9.346   9.887   1.277
71250SOL    HW115589   9.336   9.906   1.370
71250SOL    HW215590   9.420   9.941   1.249
71251SOL     OW15591  12.458   1.071   2.086
71251SOL    HW115592  12.455   1.134   2.158
71251SOL    HW215593  12.551   1.068   2.061
71252SOL     OW15594   6.277   9.754  11.869
71252SOL    HW115595   6.297   9.720  11.782
71252SOL    HW215596   6.234   9.681  11.914
71253SOL     OW15597   6.763   8.716   2.948
71253SOL    HW115598   6.698   8.668   2.999
71253SOL    HW215599   6.742   8.808   2.962
71254SOL     OW15600   3.485   7.112   7.189
71254SOL    HW115601   3.488   7.129   7.283
71254SOL    HW215602   3.554   7.047   7.175
71255SOL     OW15603   5.075  11.392  10.807
71255SOL    HW115604   5.104  11.396  10.716
71255SOL    HW215605   5.031  11.476  10.822
71256SOL     OW15606   8.326  12.598  12.245
71256SOL    HW115607   8.416  12.614  12.271
71256SOL    HW215608   8.294  12.531  12.307
71257SOL     OW15609   1.900  12.320   1.043
71257SOL    HW115610   1.864  12.391   1.096
71257SOL    HW215611   1.898  12.243   1.101
71258SOL     OW15612   2.436  14.857   0.079
71258SOL    HW115613   2.358  14.824   0.123
71258SOL    HW215614   2.453   0.065   0.121
71259SOL     OW15615   6.122  12.064  13.386
71259SOL    HW115616   6.214  12.087  13.397
71259SOL    HW215617   6.084  12.077  13.473
71260SOL     OW15618   8.649   0.673   6.502
71260SOL    HW115619   8.706   0.726   6.446
71260SOL    HW215620   8.560   0.702   6.480
71261SOL     OW15621  11.642   4.985   6.956
71261SOL    HW115622  11.618   5.075   6.979
71261SOL    HW215623  11.651   4.940   7.040
71262SOL     OW15624   7.937   9.841  10.876
71262SOL    HW115625   7.945   9.866  10.968
71262SOL    HW215626   7.842   9.834  10.862
71263SOL     OW15627  10.307  14.195  11.032
71263SOL    HW115628  10.305  14.212  11.126
71263SOL    HW215629  10.289  14.281  10.992
71264SOL     OW15630   5.233  13.055   7.493
71264SOL    HW115631   5.274  13.128   7.539
71264SOL    HW215632   5.139  13.073   7.498
71265SOL     OW15633  12.925   7.901  14.801
71265SOL    HW115634  12.852   7.871  14.856
71265SOL    HW215635  12.931   7.995  14.818
71266SOL     OW15636   4.417   6.376   9.158
71266SOL    HW115637   4.509   6.369   9.185
71266SOL    HW215638   4.420   6.387   9.063
71267SOL     OW15639   5.763   2.750  13.166
71267SOL    HW115640   5.758   2.768  13.259
71267SOL    HW215641   5.736   2.658  13.157
71268SOL     OW15642   7.275   9.336   3.010
71268SOL    HW115643   7.216   9.315   3.082
71268SOL    HW215644   7.229   9.402   2.959
71269SOL     OW15645  12.073  10.663   9.814
71269SOL    HW115646  12.164  10.686   9.832
71269SOL    HW215647  12.078  10.601   9.741
71270SOL     OW15648  12.616   2.177  13.517
71270SOL    HW115649  12.560   2.221  13.452
71270SOL    HW215650  12.556   2.122  13.566
71271SOL     OW15651   9.004   3.578   1.086
71271SOL    HW115652   9.048   3.605   1.005
71271SOL    HW215653   8.992   3.484   1.077
71272SOL     OW15654   3.731  11.940   8.240
71272SOL    HW115655   3.736  11.965   8.148
71272SOL    HW215656   3.815  11.898   8.258
71273SOL     OW15657  11.680   0.917   4.404
71273SOL    HW115658  11.669   1.007   4.436
71273SOL    HW215659  11.708   0.868   4.482
71274SOL     OW15660   5.310   9.487  12.451
71274SOL    HW115661   5.223   9.524  12.442
71274SOL    HW215662   5.347   9.490  12.362
71275SOL     OW15663   2.802   0.137  13.352
71275SOL    HW115664   2.870   0.129  13.284
71275SOL    HW215665   2.848   0.125  13.434
71276SOL     OW15666   7.959   7.353  12.839
71276SOL    HW115667   7.934   7.266  12.806
71276SOL    HW215668   7.913   7.362  12.922
71277SOL     OW15669   2.636   6.901  13.527
71277SOL    HW115670   2.631   6.828  13.589
71277SOL    HW215671   2.580   6.874  13.454
71278SOL     OW15672   8.973  11.781   2.941
71278SOL    HW115673   8.974  11.835   2.863
71278SOL    HW215674   8.949  11.841   3.012
71279SOL     OW15675   5.922   4.102   8.218
71279SOL    HW115676   6.017   4.090   8.220
71279SOL    HW215677   5.909   4.195   8.240
71280SOL     OW15678   7.432   5.466  13.982
71280SOL    HW115679   7.428   5.422  14.067
71280SOL    HW215680   7.446   5.395  13.919
71281SOL     OW15681   9.297  10.032  13.918
71281SOL    HW115682   9.361  10.099  13.941
71281SOL    HW215683   9.289   9.979  13.998
71282SOL     OW15684  14.323  12.192   1.766
71282SOL    HW115685  14.370  12.130   1.710
71282SOL    HW215686  14.237  12.152   1.780
71283SOL     OW15687   4.008   8.976   8.323
71283SOL    HW115688   4.013   8.881   8.313
71283SOL    HW215689   4.099   9.005   8.320
71284SOL     OW15690   5.362   3.951   8.658
71284SOL    HW115691   5.270   3.925   8.662
71284SOL    HW215692   5.362   4.033   8.608
71285SOL     OW15693  10.228  14.827   2.452
71285SOL    HW115694  10.186  14.742   2.438
71285SOL    HW215695  10.306  14.825   2.396
71286SOL     OW15696   6.532   9.005  13.637
71286SOL    HW115697   6.590   9.029  13.709
71286SOL    HW215698   6.556   8.915  13.616
71287SOL     OW15699   8.356  11.172   5.708
71287SOL    HW115700   8.418  11.191   5.778
71287SOL    HW215701   8.372  11.240   5.643
71288SOL     OW15702   9.964  12.693  11.525
71288SOL    HW115703   9.934  12.751  11.595
71288SOL    HW215704   9.911  12.718  11.449
71289SOL     OW15705   2.769  12.021  11.739
71289SOL    HW115706   2.715  11.997  11.814
71289SOL    HW215707   2.853  12.048  11.777
71290SOL     OW15708   5.553  13.239   3.888
71290SOL    HW115709   5.487  13.171   3.878
71290SOL    HW215710   5.618  13.220   3.821
71291SOL     OW15711  14.646  11.354   7.340
71291SOL    HW115712  14.606  11.433   7.303
71291SOL    HW215713  14.587  11.328   7.411
71292SOL     OW15714   5.948   3.029   2.237
71292SOL    HW115715   5.944   2.997   2.328
71292SOL    HW215716   6.038   3.010   2.210
71293SOL     OW15717   5.599   9.936   0.081
71293SOL    HW115718   5.576   9.849   0.048
71293SOL    HW215719   5.689   9.927   0.111
71294SOL     OW15720   5.982  12.999   8.830
71294SOL    HW115721   5.907  13.025   8.777
71294SOL    HW215722   5.965  12.908   8.853
71295SOL     OW15723   6.688   3.933   1.317
71295SOL    HW115724   6.679   4.027   1.302
71295SOL    HW215725   6.599   3.899   1.317
71296SOL     OW15726   2.411   5.440   3.157
71296SOL    HW115727   2.325   5.471   3.129
71296SOL    HW215728   2.420   5.471   3.247
71297SOL     OW15729   7.610  14.540   1.335
71297SOL    HW115730   7.538  14.506   1.389
71297SOL    HW215731   7.684  14.547   1.395
71298SOL     OW15732   1.155   9.361   1.821
71298SOL    HW115733   1.216   9.435   1.825
71298SOL    HW215734   1.193   9.296   1.880
71299SOL     OW15735   6.816  14.758  14.679
71299SOL    HW115736   6.770  14.678  14.653
71299SOL    HW215737   6.907  14.730  14.691
71300SOL     OW15738   3.132   6.375   4.546
71300SOL    HW115739   3.114   6.356   4.638
71300SOL    HW215740   3.223   6.349   4.534
71301SOL     OW15741  14.527  10.435  10.717
71301SOL    HW115742  14.432  10.427  10.710
71301SOL    HW215743  14.554  10.473  10.633
71302SOL     OW15744  12.357  13.593   7.981
71302SOL    HW115745  12.332  13.586   7.889
71302SOL    HW215746  12.288  13.647   8.021
71303SOL     OW15747  10.390   7.493   0.303
71303SOL    HW115748  10.447   7.471   0.230
71303SOL    HW215749  10.430   7.451   0.379
71304SOL     OW15750   8.474   1.107   1.323
71304SOL    HW115751   8.404   1.041   1.318
71304SOL    HW215752   8.488   1.133   1.232
71305SOL     OW15753  10.189   8.464   6.698
71305SOL    HW115754  10.271   8.470   6.650
71305SOL    HW215755  10.130   8.525   6.653
71306SOL     OW15756   7.393  13.111  11.672
71306SOL    HW115757   7.371  13.037  11.729
71306SOL    HW215758   7.465  13.156  11.718
71307SOL     OW15759  13.037  12.326  10.256
71307SOL    HW115760  13.129  12.299  10.250
71307SOL    HW215761  13.000  12.300  10.172
71308SOL     OW15762  10.044   7.594   1.387
71308SOL    HW115763   9.983   7.523   1.408
71308SOL    HW215764  10.008   7.670   1.432
71309SOL     OW15765  10.890  10.366   4.896
71309SOL    HW115766  10.834  10.290   4.914
71309SOL    HW215767  10.936  10.343   4.815
71310SOL     OW15768   7.821  14.383   2.943
71310SOL    HW115769   7.834  14.301   2.896
71310SOL    HW215770   7.726  14.393   2.949
71311SOL     OW15771   3.043  11.113   3.602
71311SOL    HW115772   2.949  11.105   3.583
71311SOL    HW215773   3.084  11.118   3.516
71312SOL     OW15774   6.688   1.781   6.548
71312SOL    HW115775   6.626   1.799   6.619
71312SOL    HW215776   6.653   1.829   6.473
71313SOL     OW15777  12.170   7.729   1.624
71313SOL    HW115778  12.149   7.805   1.569
71313SOL    HW215779  12.219   7.766   1.698
71314SOL     OW15780  12.601  10.391   3.148
71314SOL    HW115781  12.564  10.303   3.154
71314SOL    HW215782  12.576  10.422   3.061
71315SOL     OW15783  12.847   5.275   2.977
71315SOL    HW115784  12.907   5.224   3.031
71315SOL    HW215785  12.780   5.211   2.949
71316SOL     OW15786  13.859   3.362  12.784
71316SOL    HW115787  13.931   3.302  12.804
71316SOL    HW215788  13.886   3.405  12.703
71317SOL     OW15789   8.444   5.762   4.576
71317SOL    HW115790   8.452   5.815   4.497
71317SOL    HW215791   8.413   5.677   4.545
71318SOL     OW15792   9.198  13.725  12.356
71318SOL    HW115793   9.287  13.695  12.337
71318SOL    HW215794   9.147  13.698  12.280
71319SOL     OW15795   7.888   0.717   5.564
71319SOL    HW115796   7.858   0.774   5.634
71319SOL    HW215797   7.856   0.630   5.588
71320SOL     OW15798   0.075   4.657   7.361
71320SOL    HW115799   0.152   4.602   7.362
71320SOL    HW215800   0.066   4.688   7.451
71321SOL     OW15801   3.675   2.328   9.711
71321SOL    HW115802   3.747   2.283   9.665
71321SOL    HW215803   3.712   2.349   9.797
71322SOL     OW15804   0.741   3.365   1.765
71322SOL    HW115805   0.781   3.285   1.799
71322SOL    HW215806   0.800   3.393   1.695
71323SOL     OW15807  11.286  13.050   7.170
71323SOL    HW115808  11.367  13.065   7.122
71323SOL    HW215809  11.294  13.106   7.247
71324SOL     OW15810   0.447  11.620   7.171
71324SOL    HW115811   0.424  11.674   7.095
71324SOL    HW215812   0.367  11.618   7.224
71325SOL     OW15813   4.546  10.622   6.924
71325SOL    HW115814   4.578  10.570   6.998
71325SOL    HW215815   4.617  10.684   6.906
71326SOL     OW15816   3.551  11.475  14.455
71326SOL    HW115817   3.484  11.429  14.405
71326SOL    HW215818   3.510  11.558  14.479
71327SOL     OW15819  13.814   7.307   5.211
71327SOL    HW115820  13.760   7.279   5.285
71327SOL    HW215821  13.839   7.226   5.168
71328SOL     OW15822  11.607   8.601   4.947
71328SOL    HW115823  11.675   8.663   4.973
71328SOL    HW215824  11.528   8.655   4.941
71329SOL     OW15825  10.370   6.835  10.638
71329SOL    HW115826  10.348   6.900  10.705
71329SOL    HW215827  10.334   6.753  10.672
71330SOL     OW15828   9.359   1.224  12.430
71330SOL    HW115829   9.382   1.162  12.361
71330SOL    HW215830   9.348   1.308  12.384
71331SOL     OW15831   3.489   0.569  14.861
71331SOL    HW115832   3.431   0.556   0.060
71331SOL    HW215833   3.432   0.556  14.785
71332SOL     OW15834   4.830   1.343   7.043
71332SOL    HW115835   4.832   1.433   7.078
71332SOL    HW215836   4.822   1.288   7.121
71333SOL     OW15837   6.271   6.973   5.072
71333SOL    HW115838   6.321   6.933   5.001
71333SOL    HW215839   6.207   6.907   5.097
71334SOL     OW15840  13.908   5.993  10.328
71334SOL    HW115841  13.899   5.995  10.423
71334SOL    HW215842  13.967   6.066  10.309
71335SOL     OW15843   6.535   7.984   2.425
71335SOL    HW115844   6.529   8.060   2.483
71335SOL    HW215845   6.452   7.984   2.377
71336SOL     OW15846   0.215  11.091   7.051
71336SOL    HW115847   0.166  11.082   7.133
71336SOL    HW215848   0.285  11.153   7.071
71337SOL     OW15849   3.246   5.762   6.573
71337SOL    HW115850   3.312   5.788   6.637
71337SOL    HW215851   3.296   5.721   6.502
71338SOL     OW15852   9.048   3.635  11.956
71338SOL    HW115853   9.073   3.696  11.888
71338SOL    HW215854   9.131   3.608  11.996
71339SOL     OW15855   9.436   7.582   5.167
71339SOL    HW115856   9.358   7.534   5.137
71339SOL    HW215857   9.450   7.550   5.256
71340SOL     OW15858   5.177   3.522   3.524
71340SOL    HW115859   5.154   3.597   3.579
71340SOL    HW215860   5.252   3.482   3.567
71341SOL     OW15861  10.877  13.762  13.336
71341SOL    HW115862  10.936  13.694  13.369
71341SOL    HW215863  10.790  13.732  13.363
71342SOL     OW15864   1.367   3.564   7.879
71342SOL    HW115865   1.286   3.607   7.852
71342SOL    HW215866   1.339   3.482   7.919
71343SOL     OW15867  12.455   7.676  14.701
71343SOL    HW115868  12.416   7.760  14.677
71343SOL    HW215869  12.476   7.685  14.794
71344SOL     OW15870   8.188   9.944   1.584
71344SOL    HW115871   8.190  10.016   1.521
71344SOL    HW215872   8.235   9.978   1.661
71345SOL     OW15873   5.499   4.783  10.277
71345SOL    HW115874   5.583   4.778  10.324
71345SOL    HW215875   5.514   4.734  10.196
71346SOL     OW15876   4.473  14.645   7.237
71346SOL    HW115877   4.445  14.728   7.275
71346SOL    HW215878   4.551  14.668   7.185
71347SOL     OW15879   9.824   0.288  12.733
71347SOL    HW115880   9.858   0.206  12.698
71347SOL    HW215881   9.768   0.322  12.663
71348SOL     OW15882  11.676  12.029  11.584
71348SOL    HW115883  11.648  11.964  11.519
71348SOL    HW215884  11.618  12.104  11.569
71349SOL     OW15885  14.032  14.437  12.808
71349SOL    HW115886  13.946  14.403  12.833
71349SOL    HW215887  14.025  14.532  12.820
71350SOL     OW15888   3.371   1.281   7.641
71350SOL    HW115889   3.301   1.272   7.576
71350SOL    HW215890   3.391   1.192   7.668
71351SOL     OW15891  11.202  10.522   7.951
71351SOL    HW115892  11.259  10.564   8.016
71351SOL    HW215893  11.153  10.457   8.001
71352SOL     OW15894   0.999  14.420  11.284
71352SOL    HW115895   1.007  14.486  11.215
71352SOL    HW215896   0.907  14.424  11.310
71353SOL     OW15897   2.327   4.142   7.992
71353SOL    HW115898   2.319   4.087   8.069
71353SOL    HW215899   2.348   4.081   7.921
71354SOL     OW15900   7.792   7.361  13.680
71354SOL    HW115901   7.815   7.453  13.670
71354SOL    HW215902   7.809   7.341  13.772
71355SOL     OW15903  10.661   5.771   7.326
71355SOL    HW115904  10.731   5.816   7.278
71355SOL    HW215905  10.642   5.828   7.400
71356SOL     OW15906  12.232  10.401  13.456
71356SOL    HW115907  12.156  10.346  13.474
71356SOL    HW215908  12.303  10.360  13.505
71357SOL     OW15909  14.581   3.403   9.726
71357SOL    HW115910  14.509   3.443   9.775
71357SOL    HW215911  14.622   3.476   9.680
71358SOL     OW15912   0.677  13.663   1.512
71358SOL    HW115913   0.719  13.632   1.432
71358SOL    HW215914   0.681  13.759   1.505
71359SOL     OW15915   5.344   5.033   6.094
71359SOL    HW115916   5.395   5.077   6.161
71359SOL    HW215917   5.271   4.991   6.141
71360SOL     OW15918   7.674   4.763   7.682
71360SOL    HW115919   7.762   4.791   7.657
71360SOL    HW215920   7.673   4.669   7.667
71361SOL     OW15921  10.261   8.120   3.704
71361SOL    HW115922  10.181   8.169   3.724
71361SOL    HW215923  10.229   8.033   3.679
71362SOL     OW15924   0.336  12.430   4.954
71362SOL    HW115925   0.416  12.461   4.912
71362SOL    HW215926   0.275  12.418   4.881
71363SOL     OW15927   6.453   5.601   3.606
71363SOL    HW115928   6.399   5.556   3.541
71363SOL    HW215929   6.391   5.656   3.654
71364SOL     OW15930   4.400   7.286   1.494
71364SOL    HW115931   4.361   7.262   1.410
71364SOL    HW215932   4.427   7.377   1.482
71365SOL     OW15933  14.808  13.585   5.400
71365SOL    HW115934  14.738  13.607   5.461
71365SOL    HW215935  14.813  13.659   5.340
71366SOL     OW15936   7.839   9.338   8.652
71366SOL    HW115937   7.838   9.424   8.693
71366SOL    HW215938   7.831   9.356   8.559
71367SOL     OW15939  11.021   4.823  11.871
71367SOL    HW115940  11.012   4.868  11.955
71367SOL    HW215941  11.056   4.889  11.812
71368SOL     OW15942  13.096  10.536   8.021
71368SOL    HW115943  13.105  10.621   7.977
71368SOL    HW215944  13.083  10.558   8.113
71369SOL     OW15945   3.256   8.051   9.828
71369SOL    HW115946   3.318   8.017   9.764
71369SOL    HW215947   3.173   8.007   9.807
71370SOL     OW15948   2.431  12.586  14.364
71370SOL    HW115949   2.495  12.519  14.389
71370SOL    HW215950   2.464  12.666  14.404
71371SOL     OW15951   1.441   1.981  13.991
71371SOL    HW115952   1.450   1.990  14.085
71371SOL    HW215953   1.353   2.012  13.972
71372SOL     OW15954   5.110  10.711   0.536
71372SOL    HW115955   5.087  10.622   0.511
71372SOL    HW215956   5.114  10.759   0.453
71373SOL     OW15957   7.689   3.001   8.386
71373SOL    HW115958   7.686   3.018   8.292
71373SOL    HW215959   7.642   2.918   8.396
71374SOL     OW15960   0.765  11.816   3.672
71374SOL    HW115961   0.852  11.857   3.674
71374SOL    HW215962   0.712  11.877   3.621
71375SOL     OW15963   7.632  11.111   9.748
71375SOL    HW115964   7.709  11.147   9.703
71375SOL    HW215965   7.667  11.044   9.806
71376SOL     OW15966  11.909   4.427   9.536
71376SOL    HW115967  11.999   4.436   9.567
71376SOL    HW215968  11.918   4.411   9.442
71377SOL     OW15969   5.131   4.021  13.788
71377SOL    HW115970   5.103   3.930  13.798
71377SOL    HW215971   5.197   4.018  13.718
71378SOL     OW15972   8.772   7.056   5.982
71378SOL    HW115973   8.737   6.974   6.017
71378SOL    HW215974   8.843   7.028   5.924
71379SOL     OW15975   4.148  11.707   5.359
71379SOL    HW115976   4.177  11.663   5.439
71379SOL    HW215977   4.109  11.789   5.389
71380SOL     OW15978  11.248  11.321  12.577
71380SOL    HW115979  11.201  11.244  12.547
71380SOL    HW215980  11.179  11.381  12.607
71381SOL     OW15981   3.556   1.939   5.013
71381SOL    HW115982   3.592   2.025   4.989
71381SOL    HW215983   3.614   1.877   4.969
71382SOL     OW15984   3.586   1.654   0.056
71382SOL    HW115985   3.525   1.583   0.039
71382SOL    HW215986   3.672   1.616   0.037
71383SOL     OW15987   9.889   4.413   5.198
71383SOL    HW115988   9.853   4.480   5.256
71383SOL    HW215989   9.813   4.362   5.169
71384SOL     OW15990  12.022   9.120   2.893
71384SOL    HW115991  12.075   9.044   2.870
71384SOL    HW215992  11.991   9.101   2.981
71385SOL     OW15993   8.823   4.258  12.149
71385SOL    HW115994   8.783   4.204  12.081
71385SOL    HW215995   8.772   4.239  12.228
71386SOL     OW15996   8.885   2.661   6.551
71386SOL    HW115997   8.916   2.701   6.632
71386SOL    HW215998   8.962   2.621   6.512
71387SOL     OW15999   9.388   9.321   5.520
71387SOL    HW116000   9.395   9.297   5.612
71387SOL    HW216001   9.478   9.317   5.487
71388SOL     OW16002   1.364   7.412   5.560
71388SOL    HW116003   1.315   7.333   5.538
71388SOL    HW216004   1.360   7.418   5.655
71389SOL     OW16005   8.570  12.951  11.980
71389SOL    HW116006   8.616  12.922  12.058
71389SOL    HW216007   8.477  12.946  12.003
71390SOL     OW16008   2.387   2.192  13.056
71390SOL    HW116009   2.362   2.106  13.091
71390SOL    HW216010   2.304   2.231  13.030
71391SOL     OW16011   4.041   4.854   3.133
71391SOL    HW116012   3.957   4.883   3.169
71391SOL    HW216013   4.101   4.856   3.207
71392SOL     OW16014  14.602   2.926   5.900
71392SOL    HW116015  14.695   2.905   5.900
71392SOL    HW216016  14.558   2.843   5.920
71393SOL     OW16017  12.611   4.623  12.496
71393SOL    HW116018  12.631   4.561  12.426
71393SOL    HW216019  12.654   4.588  12.574
71394SOL     OW16020   8.764   3.277   4.453
71394SOL    HW116021   8.674   3.250   4.436
71394SOL    HW216022   8.756   3.350   4.515
71395SOL     OW16023   6.711  14.148   5.402
71395SOL    HW116024   6.703  14.224   5.344
71395SOL    HW216025   6.673  14.076   5.352
71396SOL     OW16026   7.525   2.836   4.547
71396SOL    HW116027   7.559   2.903   4.605
71396SOL    HW216028   7.599   2.778   4.531
71397SOL     OW16029   4.149   8.119   9.420
71397SOL    HW116030   4.070   8.065   9.413
71397SOL    HW216031   4.130   8.197   9.368
71398SOL     OW16032   4.295   2.644  14.406
71398SOL    HW116033   4.362   2.575  14.404
71398SOL    HW216034   4.303   2.688  14.321
71399SOL     OW16035   1.125   3.972   2.137
71399SOL    HW116036   1.080   4.019   2.208
71399SOL    HW216037   1.197   3.927   2.181
71400SOL     OW16038   1.117   4.203   1.502
71400SOL    HW116039   1.110   4.273   1.567
71400SOL    HW216040   1.195   4.225   1.451
71401SOL     OW16041   8.762   0.719   0.457
71401SOL    HW116042   8.740   0.785   0.523
71401SOL    HW216043   8.821   0.659   0.502
71402SOL     OW16044   4.477   5.921  10.345
71402SOL    HW116045   4.554   5.925  10.289
71402SOL    HW216046   4.438   5.835  10.326
71403SOL     OW16047  11.767   2.605   3.113
71403SOL    HW116048  11.803   2.531   3.065
71403SOL    HW216049  11.820   2.679   3.086
71404SOL     OW16050   4.189   0.580   7.854
71404SOL    HW116051   4.227   0.652   7.904
71404SOL    HW216052   4.102   0.567   7.892
71405SOL     OW16053  11.810  12.386   8.778
71405SOL    HW116054  11.773  12.298   8.788
71405SOL    HW216055  11.735  12.439   8.750
71406SOL     OW16056   4.786   3.933   6.691
71406SOL    HW116057   4.704   3.885   6.679
71406SOL    HW216058   4.781   3.969   6.779
71407SOL     OW16059  12.388  14.394   4.823
71407SOL    HW116060  12.300  14.389   4.858
71407SOL    HW216061  12.429  14.467   4.870
71408SOL     OW16062  10.244  10.022   3.266
71408SOL    HW116063  10.236   9.943   3.212
71408SOL    HW216064  10.154  10.042   3.293
71409SOL     OW16065   7.703   7.240  12.551
71409SOL    HW116066   7.691   7.145  12.547
71409SOL    HW216067   7.673   7.264  12.639
71410SOL     OW16068  12.527   1.346   8.442
71410SOL    HW116069  12.547   1.308   8.357
71410SOL    HW216070  12.548   1.439   8.432
71411SOL     OW16071   9.094  14.046   9.582
71411SOL    HW116072   9.099  14.052   9.487
71411SOL    HW216073   9.014  13.997   9.599
71412SOL     OW16074  12.934   8.071  12.813
71412SOL    HW116075  12.971   8.143  12.863
71412SOL    HW216076  12.887   8.018  12.877
71413SOL     OW16077   1.228   0.523   1.039
71413SOL    HW116078   1.142   0.561   1.054
71413SOL    HW216079   1.248   0.543   0.947
71414SOL     OW16080  13.974   8.983  11.498
71414SOL    HW116081  14.013   9.067  11.471
71414SOL    HW216082  13.994   8.923  11.426
71415SOL     OW16083   9.596   8.836  10.954
71415SOL    HW116084   9.681   8.879  10.953
71415SOL    HW216085   9.551   8.873  11.030
71416SOL     OW16086   2.938   7.423  11.537
71416SOL    HW116087   2.890   7.465  11.608
71416SOL    HW216088   2.977   7.496  11.488
71417SOL     OW16089   5.579  12.062   4.946
71417SOL    HW116090   5.594  12.118   5.022
71417SOL    HW216091   5.503  12.008   4.970
71418SOL     OW16092   7.390   0.469   7.642
71418SOL    HW116093   7.301   0.462   7.676
71418SOL    HW216094   7.432   0.534   7.698
71419SOL     OW16095   9.264   7.022   6.981
71419SOL    HW116096   9.253   6.932   7.010
71419SOL    HW216097   9.185   7.067   7.012
71420SOL     OW16098   8.499  12.762   3.161
71420SOL    HW116099   8.550  12.684   3.180
71420SOL    HW216100   8.409  12.729   3.153
71421SOL     OW16101  10.477   5.508  14.458
71421SOL    HW116102  10.429   5.437  14.500
71421SOL    HW216103  10.413   5.549  14.399
71422SOL     OW16104  11.086   6.282  10.912
71422SOL    HW116105  11.032   6.325  10.846
71422SOL    HW216106  11.119   6.354  10.967
71423SOL     OW16107  10.039   9.249   2.458
71423SOL    HW116108  10.071   9.208   2.539
71423SOL    HW216109  10.115   9.295   2.423
71424SOL     OW16110   7.885   6.218   6.281
71424SOL    HW116111   7.919   6.261   6.202
71424SOL    HW216112   7.940   6.141   6.292
71425SOL     OW16113   6.822   2.532  11.624
71425SOL    HW116114   6.863   2.596  11.566
71425SOL    HW216115   6.887   2.463  11.635
71426SOL     OW16116  14.387   2.644   0.729
71426SOL    HW116117  14.324   2.637   0.657
71426SOL    HW216118  14.423   2.555   0.737
71427SOL     OW16119  11.808   8.516   9.733
71427SOL    HW116120  11.875   8.534   9.667
71427SOL    HW216121  11.820   8.585   9.798
71428SOL     OW16122   8.071  14.520   5.905
71428SOL    HW116123   8.134  14.462   5.948
71428SOL    HW216124   8.123  14.566   5.839
71429SOL     OW16125   4.911  14.417   6.583
71429SOL    HW116126   4.872  14.330   6.588
71429SOL    HW216127   4.997  14.408   6.623
71430SOL     OW16128  10.472  13.193   0.838
71430SOL    HW116129  10.503  13.118   0.787
71430SOL    HW216130  10.501  13.175   0.927
71431SOL     OW16131   6.721  10.331  10.898
71431SOL    HW116132   6.748  10.246  10.934
71431SOL    HW216133   6.655  10.309  10.831
71432SOL     OW16134   1.653  12.121  10.048
71432SOL    HW116135   1.633  12.192   9.987
71432SOL    HW216136   1.568  12.081  10.068
71433SOL     OW16137   0.037   5.716   6.118
71433SOL    HW116138   0.126   5.748   6.128
71433SOL    HW216139   0.047   5.625   6.090
71434SOL     OW16140   2.988   9.168  14.844
71434SOL    HW116141   3.001   9.218   0.048
71434SOL    HW216142   2.908   9.204  14.806
71435SOL     OW16143  12.564  10.173   5.360
71435SOL    HW116144  12.545  10.208   5.273
71435SOL    HW216145  12.643  10.219   5.388
71436SOL     OW16146  10.124   6.200   8.849
71436SOL    HW116147  10.194   6.141   8.876
71436SOL    HW216148  10.106   6.176   8.758
71437SOL     OW16149   3.713   3.064   3.806
71437SOL    HW116150   3.643   3.067   3.741
71437SOL    HW216151   3.744   2.974   3.805
71438SOL     OW16152  13.079  12.229   2.973
71438SOL    HW116153  13.057  12.322   2.973
71438SOL    HW216154  13.118  12.213   2.887
71439SOL     OW16155   1.421  13.078   9.627
71439SOL    HW116156   1.444  13.031   9.546
71439SOL    HW216157   1.500  13.075   9.680
71440SOL     OW16158   0.875   2.747   4.738
71440SOL    HW116159   0.821   2.808   4.689
71440SOL    HW216160   0.953   2.797   4.762
71441SOL     OW16161   6.538   4.035  14.140
71441SOL    HW116162   6.538   4.077  14.054
71441SOL    HW216163   6.451   3.995  14.147
71442SOL     OW16164   7.838   9.056   7.777
71442SOL    HW116165   7.811   9.005   7.853
71442SOL    HW216166   7.794   9.141   7.789
71443SOL     OW16167   9.939   5.252  12.223
71443SOL    HW116168   9.983   5.336  12.210
71443SOL    HW216169  10.011   5.189  12.235
71444SOL     OW16170   7.189   7.330   1.702
71444SOL    HW116171   7.158   7.349   1.613
71444SOL    HW216172   7.267   7.276   1.689
71445SOL     OW16173  10.024   7.482  11.738
71445SOL    HW116174  10.057   7.567  11.709
71445SOL    HW216175  10.071   7.418  11.686
71446SOL     OW16176   6.426   8.112   7.417
71446SOL    HW116177   6.398   8.200   7.443
71446SOL    HW216178   6.362   8.084   7.353
71447SOL     OW16179   2.502   1.687  13.403
71447SOL    HW116180   2.412   1.678  13.432
71447SOL    HW216181   2.550   1.620  13.452
71448SOL     OW16182  12.781  13.331   6.251
71448SOL    HW116183  12.843  13.324   6.324
71448SOL    HW216184  12.833  13.308   6.174
71449SOL     OW16185   9.841   3.473   4.514
71449SOL    HW116186   9.893   3.543   4.554
71449SOL    HW216187   9.753   3.510   4.507
71450SOL     OW16188  13.156   0.594  11.829
71450SOL    HW116189  13.089   0.608  11.761
71450SOL    HW216190  13.170   0.499  11.829
71451SOL     OW16191   1.669   4.571   5.850
71451SOL    HW116192   1.626   4.524   5.922
71451SOL    HW216193   1.719   4.640   5.894
71452SOL     OW16194  10.014   9.276   7.661
71452SOL    HW116195  10.044   9.185   7.660
71452SOL    HW216196  10.067   9.317   7.729
71453SOL     OW16197   5.177   3.998   1.984
71453SOL    HW116198   5.250   4.058   2.001
71453SOL    HW216199   5.162   3.955   2.068
71454SOL     OW16200   9.015   3.154  14.158
71454SOL    HW116201   9.054   3.170  14.072
71454SOL    HW216202   8.921   3.156  14.143
71455SOL     OW16203  11.576  13.622  11.757
71455SOL    HW116204  11.636  13.552  11.781
71455SOL    HW216205  11.625  13.677  11.697
71456SOL     OW16206   5.491   6.300  10.968
71456SOL    HW116207   5.521   6.391  10.962
71456SOL    HW216208   5.410   6.305  11.019
71457SOL     OW16209   7.455   2.341  12.661
71457SOL    HW116210   7.473   2.248  12.648
71457SOL    HW216211   7.363   2.343  12.690
71458SOL     OW16212  10.608  12.208  14.046
71458SOL    HW116213  10.667  12.145  14.004
71458SOL    HW216214  10.667  12.273  14.084
71459SOL     OW16215  12.174   9.123   6.178
71459SOL    HW116216  12.237   9.165   6.237
71459SOL    HW216217  12.228   9.066   6.123
71460SOL     OW16218   6.088  10.935   3.518
71460SOL    HW116219   6.067  11.025   3.542
71460SOL    HW216220   6.182  10.936   3.500
71461SOL     OW16221   2.769   9.917   8.109
71461SOL    HW116222   2.795   9.985   8.172
71461SOL    HW216223   2.678   9.898   8.131
71462SOL     OW16224  13.367   9.983   6.499
71462SOL    HW116225  13.450  10.013   6.536
71462SOL    HW216226  13.317   9.952   6.575
71463SOL     OW16227  10.712   4.732   4.029
71463SOL    HW116228  10.710   4.825   4.009
71463SOL    HW216229  10.799   4.703   4.002
71464SOL     OW16230   8.385   2.040  13.834
71464SOL    HW116231   8.375   2.043  13.739
71464SOL    HW216232   8.336   1.962  13.861
71465SOL     OW16233   6.481   7.052   5.910
71465SOL    HW116234   6.521   6.965   5.904
71465SOL    HW216235   6.399   7.038   5.957
71466SOL     OW16236   0.227  11.030  13.422
71466SOL    HW116237   0.292  11.047  13.354
71466SOL    HW216238   0.157  11.094  13.406
71467SOL     OW16239  12.434   4.502   7.609
71467SOL    HW116240  12.461   4.575   7.665
71467SOL    HW216241  12.497   4.503   7.537
71468SOL     OW16242  14.213   0.487   3.338
71468SOL    HW116243  14.280   0.500   3.405
71468SOL    HW216244  14.144   0.438   3.383
71469SOL     OW16245   3.395   2.032   7.912
71469SOL    HW116246   3.303   2.005   7.906
71469SOL    HW216247   3.392   2.115   7.959
71470SOL     OW16248  14.679   5.479   4.817
71470SOL    HW116249  14.588   5.452   4.802
71470SOL    HW216250  14.725   5.398   4.839
71471SOL     OW16251   0.733  11.204   9.548
71471SOL    HW116252   0.733  11.300   9.550
71471SOL    HW216253   0.691  11.178   9.630
71472SOL     OW16254   3.074  12.443   0.910
71472SOL    HW116255   3.077  12.466   1.003
71472SOL    HW216256   2.981  12.427   0.893
71473SOL     OW16257  12.738   2.579   9.251
71473SOL    HW116258  12.756   2.496   9.207
71473SOL    HW216259  12.720   2.555   9.342
71474SOL     OW16260  11.533   5.214   7.658
71474SOL    HW116261  11.580   5.255   7.585
71474SOL    HW216262  11.450   5.262   7.663
71475SOL     OW16263   9.334  14.216   7.354
71475SOL    HW116264   9.284  14.294   7.379
71475SOL    HW216265   9.421  14.229   7.393
71476SOL     OW16266   8.112  13.253   1.879
71476SOL    HW116267   8.120  13.166   1.839
71476SOL    HW216268   8.202  13.276   1.902
71477SOL     OW16269   5.021   2.745  14.696
71477SOL    HW116270   4.954   2.712  14.637
71477SOL    HW216271   5.033   2.676  14.761
71478SOL     OW16272   2.022   0.748   3.010
71478SOL    HW116273   1.936   0.750   2.969
71478SOL    HW216274   2.052   0.839   3.008
71479SOL     OW16275   1.622   3.626   2.941
71479SOL    HW116276   1.550   3.675   2.979
71479SOL    HW216277   1.605   3.535   2.965
71480SOL     OW16278  13.997  10.901  14.769
71480SOL    HW116279  13.990  10.969  14.837
71480SOL    HW216280  13.907  10.892  14.736
71481SOL     OW16281   9.924  12.026   4.171
71481SOL    HW116282  10.007  12.057   4.134
71481SOL    HW216283   9.950  11.974   4.248
71482SOL     OW16284  13.433  14.042  14.711
71482SOL    HW116285  13.376  14.119  14.718
71482SOL    HW216286  13.385  13.981  14.656
71483SOL     OW16287   9.480  11.036  13.173
71483SOL    HW116288   9.503  11.114  13.225
71483SOL    HW216289   9.465  10.968  13.238
71484SOL     OW16290   8.828  13.171   5.539
71484SOL    HW116291   8.771  13.118   5.482
71484SOL    HW216292   8.910  13.122   5.543
71485SOL     OW16293  11.872   6.837  11.390
71485SOL    HW116294  11.805   6.791  11.441
71485SOL    HW216295  11.955   6.808  11.426
71486SOL     OW16296   7.763   4.590   4.290
71486SOL    HW116297   7.801   4.632   4.213
71486SOL    HW216298   7.827   4.524   4.315
71487SOL     OW16299   6.402   8.029   8.378
71487SOL    HW116300   6.451   8.044   8.298
71487SOL    HW216301   6.347   7.953   8.359
71488SOL     OW16302   4.020  12.750   9.899
71488SOL    HW116303   3.979  12.830   9.867
71488SOL    HW216304   4.034  12.766   9.992
71489SOL     OW16305  11.967   3.027   1.468
71489SOL    HW116306  12.041   3.034   1.407
71489SOL    HW216307  12.005   2.985   1.545
71490SOL     OW16308  11.767   9.670   7.259
71490SOL    HW116309  11.824   9.644   7.186
71490SOL    HW216310  11.782   9.603   7.326
71491SOL     OW16311   8.582   6.005   2.728
71491SOL    HW116312   8.610   5.925   2.683
71491SOL    HW216313   8.646   6.016   2.798
71492SOL     OW16314   0.207  13.501   5.247
71492SOL    HW116315   0.119  13.466   5.258
71492SOL    HW216316   0.219  13.561   5.320
71493SOL     OW16317   3.826  11.591   1.677
71493SOL    HW116318   3.884  11.668   1.678
71493SOL    HW216319   3.794  11.584   1.767
71494SOL     OW16320   1.902   5.413   8.108
71494SOL    HW116321   1.928   5.361   8.031
71494SOL    HW216322   1.811   5.436   8.092
71495SOL     OW16323   0.399   0.036   4.203
71495SOL    HW116324   0.461   0.010   4.272
71495SOL    HW216325   0.385  14.832   4.153
71496SOL     OW16326   5.713  10.330   4.371
71496SOL    HW116327   5.761  10.277   4.435
71496SOL    HW216328   5.646  10.375   4.424
71497SOL     OW16329   6.955   9.376   0.443
71497SOL    HW116330   7.003   9.327   0.376
71497SOL    HW216331   6.990   9.465   0.436
71498SOL     OW16332  13.842  14.543   2.632
71498SOL    HW116333  13.845  14.471   2.569
71498SOL    HW216334  13.925  14.590   2.618
71499SOL     OW16335   0.455   6.065  13.796
71499SOL    HW116336   0.370   6.102  13.822
71499SOL    HW216337   0.478   6.114  13.717
71500SOL     OW16338   4.640  13.580   7.070
71500SOL    HW116339   4.690  13.660   7.089
71500SOL    HW216340   4.559  13.611   7.031
71501SOL     OW16341  10.759  13.139   6.931
71501SOL    HW116342  10.804  13.069   6.978
71501SOL    HW216343  10.808  13.218   6.954
71502SOL     OW16344   6.095   1.669   9.540
71502SOL    HW116345   6.107   1.760   9.513
71502SOL    HW216346   6.106   1.618   9.460
71503SOL     OW16347   8.041   6.498   6.827
71503SOL    HW116348   8.008   6.548   6.902
71503SOL    HW216349   8.044   6.562   6.756
71504SOL     OW16350  14.380   4.475   1.432
71504SOL    HW116351  14.421   4.559   1.409
71504SOL    HW216352  14.291   4.483   1.399
71505SOL     OW16353   2.851  11.935   3.305
71505SOL    HW116354   2.911  11.969   3.239
71505SOL    HW216355   2.827  11.848   3.275
71506SOL     OW16356   4.959  13.641   7.630
71506SOL    HW116357   4.914  13.569   7.585
71506SOL    HW216358   4.929  13.635   7.720
71507SOL     OW16359   3.767  11.646   0.202
71507SOL    HW116360   3.791  11.571   0.256
71507SOL    HW216361   3.818  11.636   0.122
71508SOL     OW16362   2.343  13.285  14.840
71508SOL    HW116363   2.416  13.234  14.875
71508SOL    HW216364   2.377  13.325  14.760
71509SOL     OW16365   3.400   4.128   0.333
71509SOL    HW116366   3.424   4.216   0.360
71509SOL    HW216367   3.480   4.076   0.347
71510SOL     OW16368   9.659  11.728  10.293
71510SOL    HW116369   9.586  11.781  10.325
71510SOL    HW216370   9.644  11.641  10.330
71511SOL     OW16371  10.244  13.081  12.113
71511SOL    HW116372  10.267  13.103  12.203
71511SOL    HW216373  10.225  13.165  12.072
71512SOL     OW16374  10.718   2.253   2.695
71512SOL    HW116375  10.767   2.264   2.614
71512SOL    HW216376  10.757   2.318   2.755
71513SOL     OW16377   1.338  10.891   5.435
71513SOL    HW116378   1.318  10.811   5.387
71513SOL    HW216379   1.398  10.939   5.378
71514SOL     OW16380  12.514   7.815   5.295
71514SOL    HW116381  12.441   7.788   5.240
71514SOL    HW216382  12.515   7.752   5.367
71515SOL     OW16383  13.244   3.889   4.766
71515SOL    HW116384  13.223   3.798   4.789
71515SOL    HW216385  13.308   3.916   4.832
71516SOL     OW16386   5.312  14.144   3.193
71516SOL    HW116387   5.369  14.196   3.250
71516SOL    HW216388   5.237  14.201   3.176
71517SOL     OW16389  14.353  10.509   3.925
71517SOL    HW116390  14.366  10.415   3.914
71517SOL    HW216391  14.278  10.516   3.985
71518SOL     OW16392   6.710  13.703  13.342
71518SOL    HW116393   6.669  13.617  13.357
71518SOL    HW216394   6.722  13.739  13.429
71519SOL     OW16395   9.451   9.728  12.722
71519SOL    HW116396   9.357   9.736  12.737
71519SOL    HW216397   9.490   9.797  12.776
71520SOL     OW16398   2.534   3.360  11.395
71520SOL    HW116399   2.620   3.386  11.365
71520SOL    HW216400   2.500   3.437  11.442
71521SOL     OW16401   9.559   5.438   9.783
71521SOL    HW116402   9.598   5.356   9.813
71521SOL    HW216403   9.466   5.430   9.805
71522SOL     OW16404   1.786   8.101  10.834
71522SOL    HW116405   1.788   8.134  10.744
71522SOL    HW216406   1.875   8.113  10.866
71523SOL     OW16407  11.263  14.812   0.932
71523SOL    HW116408  11.195   0.002   0.922
71523SOL    HW216409  11.343  14.855   0.902
71524SOL     OW16410   9.787   2.896   0.841
71524SOL    HW116411   9.716   2.846   0.879
71524SOL    HW216412   9.804   2.854   0.756
71525SOL     OW16413   4.011   9.288  13.913
71525SOL    HW116414   3.938   9.346  13.891
71525SOL    HW216415   4.045   9.259  13.828
71526SOL     OW16416   3.769   4.302  12.038
71526SOL    HW116417   3.854   4.309  12.083
71526SOL    HW216418   3.712   4.260  12.102
71527SOL     OW16419   0.327   2.846  10.959
71527SOL    HW116420   0.383   2.920  10.979
71527SOL    HW216421   0.298   2.861  10.869
71528SOL     OW16422   2.449  13.038   4.635
71528SOL    HW116423   2.499  13.111   4.671
71528SOL    HW216424   2.397  13.005   4.709
71529SOL     OW16425   0.020   3.390  12.041
71529SOL    HW116426   0.090   3.337  12.003
71529SOL    HW216427  14.876   3.345  12.124
71530SOL     OW16428   8.307   0.196   7.371
71530SOL    HW116429   8.253   0.140   7.427
71530SOL    HW216430   8.245   0.254   7.327
71531SOL     OW16431   5.716  12.495  12.451
71531SOL    HW116432   5.781  12.460  12.512
71531SOL    HW216433   5.712  12.432  12.380
71532SOL     OW16434  14.637   6.572   7.866
71532SOL    HW116435  14.726   6.536   7.861
71532SOL    HW216436  14.603   6.566   7.777
71533SOL     OW16437   9.757  13.324   5.230
71533SOL    HW116438   9.711  13.400   5.194
71533SOL    HW216439   9.849  13.342   5.214
71534SOL     OW16440  13.703   1.325  10.492
71534SOL    HW116441  13.648   1.246  10.494
71534SOL    HW216442  13.757   1.319  10.571
71535SOL     OW16443  10.999   3.727   0.980
71535SOL    HW116444  11.065   3.740   1.048
71535SOL    HW216445  10.918   3.711   1.027
71536SOL     OW16446  13.098   0.828   2.696
71536SOL    HW116447  13.027   0.768   2.719
71536SOL    HW216448  13.159   0.774   2.645
71537SOL     OW16449  11.220  11.891  11.939
71537SOL    HW116450  11.294  11.949  11.958
71537SOL    HW216451  11.261  11.810  11.906
71538SOL     OW16452   7.578  13.523   2.162
71538SOL    HW116453   7.662  13.492   2.196
71538SOL    HW216454   7.593  13.614   2.139
71539SOL     OW16455   0.470   8.344   8.236
71539SOL    HW116456   0.394   8.399   8.216
71539SOL    HW216457   0.471   8.340   8.332
71540SOL     OW16458   2.429  10.075   5.673
71540SOL    HW116459   2.453  10.111   5.587
71540SOL    HW216460   2.501  10.099   5.730
71541SOL     OW16461   6.766   3.082  10.054
71541SOL    HW116462   6.709   3.095   9.978
71541SOL    HW216463   6.716   3.022  10.111
71542SOL     OW16464  12.091  13.522   1.836
71542SOL    HW116465  12.123  13.432   1.826
71542SOL    HW216466  12.088  13.556   1.747
71543SOL     OW16467   2.690  13.133  12.890
71543SOL    HW116468   2.750  13.102  12.822
71543SOL    HW216469   2.630  13.060  12.904
71544SOL     OW16470   7.502  12.973  13.161
71544SOL    HW116471   7.409  12.995  13.171
71544SOL    HW216472   7.537  13.044  13.107
71545SOL     OW16473   2.804   1.372   4.439
71545SOL    HW116474   2.813   1.283   4.473
71545SOL    HW216475   2.890   1.392   4.401
71546SOL     OW16476   2.433  10.135   2.612
71546SOL    HW116477   2.433  10.217   2.563
71546SOL    HW216478   2.349  10.134   2.658
71547SOL     OW16479   0.750   7.022   5.212
71547SOL    HW116480   0.770   7.083   5.283
71547SOL    HW216481   0.737   7.077   5.135
71548SOL     OW16482   7.737   7.381  10.613
71548SOL    HW116483   7.746   7.380  10.709
71548SOL    HW216484   7.724   7.290  10.589
71549SOL     OW16485   9.677  10.201   7.923
71549SOL    HW116486   9.751  10.262   7.921
71549SOL    HW216487   9.604  10.251   7.884
71550SOL     OW16488   2.817   6.317  10.155
71550SOL    HW116489   2.728   6.283  10.161
71550SOL    HW216490   2.869   6.261  10.213
71551SOL     OW16491   2.687  14.241   5.126
71551SOL    HW116492   2.759  14.227   5.187
71551SOL    HW216493   2.714  14.197   5.046
71552SOL     OW16494   2.399   9.931   3.700
71552SOL    HW116495   2.354   9.948   3.617
71552SOL    HW216496   2.461   9.861   3.680
71553SOL     OW16497   8.546   4.863  14.665
71553SOL    HW116498   8.465   4.863  14.715
71553SOL    HW216499   8.579   4.952  14.672
71554SOL     OW16500   4.375   4.238   2.759
71554SOL    HW116501   4.355   4.328   2.786
71554SOL    HW216502   4.469   4.228   2.774
71555SOL     OW16503  12.209   0.549   3.785
71555SOL    HW116504  12.198   0.455   3.800
71555SOL    HW216505  12.304   0.563   3.788
71556SOL     OW16506  10.897   8.612   0.783
71556SOL    HW116507  10.830   8.679   0.774
71556SOL    HW216508  10.867   8.540   0.727
71557SOL     OW16509   1.421   1.710  10.769
71557SOL    HW116510   1.337   1.711  10.723
71557SOL    HW216511   1.413   1.781  10.834
71558SOL     OW16512   3.234   2.964  11.840
71558SOL    HW116513   3.281   2.976  11.923
71558SOL    HW216514   3.280   3.021  11.778
71559SOL     OW16515   7.238  11.139   2.115
71559SOL    HW116516   7.317  11.128   2.062
71559SOL    HW216517   7.171  11.090   2.068
71560SOL     OW16518   4.697   0.541   7.643
71560SOL    HW116519   4.676   0.633   7.632
71560SOL    HW216520   4.758   0.521   7.573
71561SOL     OW16521  14.871  13.491  14.013
71561SOL    HW116522  14.780  13.498  13.984
71561SOL    HW216523   0.043  13.550  13.955
71562SOL     OW16524  14.737  13.237   8.971
71562SOL    HW116525  14.789  13.179   9.025
71562SOL    HW216526  14.724  13.315   9.025
71563SOL     OW16527   2.216  13.066  10.304
71563SOL    HW116528   2.235  13.048  10.212
71563SOL    HW216529   2.138  13.122  10.301
71564SOL     OW16530   8.547   8.127  13.092
71564SOL    HW116531   8.482   8.158  13.155
71564SOL    HW216532   8.631   8.146  13.133
71565SOL     OW16533  14.722  14.782  10.318
71565SOL    HW116534  14.756  14.752  10.401
71565SOL    HW216535  14.644  14.728  10.303
71566SOL     OW16536   5.075   8.348  12.836
71566SOL    HW116537   5.171   8.346  12.834
71566SOL    HW216538   5.054   8.441  12.843
71567SOL     OW16539   5.826  13.967   4.800
71567SOL    HW116540   5.762  13.965   4.729
71567SOL    HW216541   5.837  14.060   4.821
71568SOL     OW16542  14.457   8.526   9.777
71568SOL    HW116543  14.525   8.567   9.724
71568SOL    HW216544  14.455   8.435   9.747
71569SOL     OW16545   8.826   5.461   1.784
71569SOL    HW116546   8.921   5.469   1.771
71569SOL    HW216547   8.813   5.372   1.815
71570SOL     OW16548  13.303   1.357   9.799
71570SOL    HW116549  13.312   1.367   9.704
71570SOL    HW216550  13.391   1.334   9.830
71571SOL     OW16551   4.679  14.405  10.772
71571SOL    HW116552   4.642  14.323  10.806
71571SOL    HW216553   4.702  14.455  10.851
71572SOL     OW16554   9.600   3.618   0.430
71572SOL    HW116555   9.610   3.631   0.336
71572SOL    HW216556   9.687   3.633   0.466
71573SOL     OW16557   6.816   2.690  14.042
71573SOL    HW116558   6.855   2.778  14.038
71573SOL    HW216559   6.843   2.657  14.128
71574SOL     OW16560   7.487   1.459  10.776
71574SOL    HW116561   7.568   1.510  10.775
71574SOL    HW216562   7.497   1.400  10.851
71575SOL     OW16563   1.091  11.589   7.272
71575SOL    HW116564   1.183  11.612   7.261
71575SOL    HW216565   1.067  11.626   7.357
71576SOL     OW16566   3.164  10.989  13.746
71576SOL    HW116567   3.217  10.932  13.801
71576SOL    HW216568   3.101  11.029  13.806
71577SOL     OW16569   0.119   1.663   4.121
71577SOL    HW116570   0.127   1.758   4.112
71577SOL    HW216571   0.204   1.636   4.156
71578SOL     OW16572  12.274   5.453  11.577
71578SOL    HW116573  12.289   5.545  11.553
71578SOL    HW216574  12.360   5.412  11.566
71579SOL     OW16575   0.719   8.725  11.242
71579SOL    HW116576   0.688   8.651  11.293
71579SOL    HW216577   0.778   8.686  11.177
71580SOL     OW16578   2.947  14.374   2.009
71580SOL    HW116579   2.987  14.392   1.923
71580SOL    HW216580   2.853  14.373   1.991
71581SOL     OW16581  14.695   7.864  13.052
71581SOL    HW116582  14.627   7.912  13.100
71581SOL    HW216583  14.752   7.828  13.121
71582SOL     OW16584   2.862  10.934   1.224
71582SOL    HW116585   2.928  10.867   1.209
71582SOL    HW216586   2.822  10.949   1.138
71583SOL     OW16587   1.056  10.810   6.531
71583SOL    HW116588   1.134  10.779   6.577
71583SOL    HW216589   0.988  10.746   6.554
71584SOL     OW16590   6.332  13.107   9.421
71584SOL    HW116591   6.246  13.080   9.456
71584SOL    HW216592   6.394  13.049   9.465
71585SOL     OW16593   5.462  10.376   6.310
71585SOL    HW116594   5.518  10.439   6.354
71585SOL    HW216595   5.521  10.307   6.281
71586SOL     OW16596   4.172  12.139  10.684
71586SOL    HW116597   4.170  12.146  10.779
71586SOL    HW216598   4.228  12.063  10.667
71587SOL     OW16599  11.775   9.098   4.560
71587SOL    HW116600  11.761   9.014   4.605
71587SOL    HW216601  11.828   9.075   4.484
71588SOL     OW16602   0.290   5.498   4.326
71588SOL    HW116603   0.250   5.571   4.374
71588SOL    HW216604   0.369   5.536   4.287
71589SOL     OW16605   1.924   9.326  14.615
71589SOL    HW116606   1.902   9.413  14.584
71589SOL    HW216607   1.977   9.341  14.693
71590SOL     OW16608  13.475   4.228   3.568
71590SOL    HW116609  13.501   4.137   3.559
71590SOL    HW216610  13.429   4.248   3.486
71591SOL     OW16611  11.820   0.186  14.871
71591SOL    HW116612  11.816   0.090  14.865
71591SOL    HW216613  11.729   0.212   0.007
71592SOL     OW16614  14.083   0.254  11.493
71592SOL    HW116615  13.995   0.274  11.523
71592SOL    HW216616  14.108   0.175  11.542
71593SOL     OW16617   1.714   1.360   7.056
71593SOL    HW116618   1.709   1.446   7.015
71593SOL    HW216619   1.624   1.337   7.076
71594SOL     OW16620   4.426   1.463  14.687
71594SOL    HW116621   4.499   1.402  14.694
71594SOL    HW216622   4.423   1.508  14.771
71595SOL     OW16623   3.493  13.670  10.985
71595SOL    HW116624   3.536  13.677  11.071
71595SOL    HW216625   3.434  13.595  10.993
71596SOL     OW16626  11.715  13.863   9.070
71596SOL    HW116627  11.804  13.897   9.057
71596SOL    HW216628  11.679  13.856   8.981
71597SOL     OW16629   5.454  10.659   7.855
71597SOL    HW116630   5.429  10.653   7.763
71597SOL    HW216631   5.373  10.637   7.903
71598SOL     OW16632  13.390  10.513  13.405
71598SOL    HW116633  13.384  10.607  13.389
71598SOL    HW216634  13.396  10.473  13.318
71599SOL     OW16635   4.833   3.543  14.632
71599SOL    HW116636   4.920   3.516  14.605
71599SOL    HW216637   4.840   3.638  14.642
71600SOL     OW16638  11.678   1.614   5.976
71600SOL    HW116639  11.751   1.674   5.963
71600SOL    HW216640  11.623   1.656   6.043
71601SOL     OW16641   1.337   0.663   9.609
71601SOL    HW116642   1.242   0.645   9.608
71601SOL    HW216643   1.372   0.608   9.539
71602SOL     OW16644   9.811  14.169  14.435
71602SOL    HW116645   9.795  14.264  14.429
71602SOL    HW216646   9.724  14.131  14.441
71603SOL     OW16647  12.984   2.750  11.277
71603SOL    HW116648  13.065   2.793  11.303
71603SOL    HW216649  12.923   2.770  11.348
71604SOL     OW16650   1.058  11.235   5.821
71604SOL    HW116651   1.057  11.216   5.915
71604SOL    HW216652   0.991  11.178   5.785
71605SOL     OW16653   6.555   7.930   8.675
71605SOL    HW116654   6.577   7.915   8.767
71605SOL    HW216655   6.469   7.889   8.664
71606SOL     OW16656  11.070  10.430   1.281
71606SOL    HW116657  11.137  10.424   1.350
71606SOL    HW216658  11.077  10.520   1.249
71607SOL     OW16659   3.777   2.895   4.796
71607SOL    HW116660   3.787   2.808   4.756
71607SOL    HW216661   3.864   2.914   4.832
71608SOL     OW16662   1.521   9.104   5.107
71608SOL    HW116663   1.576   9.162   5.160
71608SOL    HW216664   1.484   9.161   5.039
71609SOL     OW16665  10.717   3.508  14.732
71609SOL    HW116666  10.668   3.570  14.787
71609SOL    HW216667  10.704   3.423  14.775
71610SOL     OW16668  11.110  11.796   4.787
71610SOL    HW116669  11.074  11.882   4.811
71610SOL    HW216670  11.048  11.733   4.823
71611SOL     OW16671   0.978   6.498  10.481
71611SOL    HW116672   0.960   6.570  10.420
71611SOL    HW216673   1.006   6.542  10.561
71612SOL     OW16674   6.363   2.479   6.195
71612SOL    HW116675   6.437   2.529   6.163
71612SOL    HW216676   6.306   2.469   6.119
71613SOL     OW16677   9.830   1.783   7.508
71613SOL    HW116678   9.897   1.728   7.549
71613SOL    HW216679   9.749   1.734   7.516
71614SOL     OW16680   1.023   8.290  14.605
71614SOL    HW116681   1.100   8.334  14.641
71614SOL    HW216682   0.973   8.262  14.682
71615SOL     OW16683   3.566   7.804   3.312
71615SOL    HW116684   3.493   7.790   3.372
71615SOL    HW216685   3.556   7.894   3.282
71616SOL     OW16686  12.720   9.209  14.495
71616SOL    HW116687  12.675   9.253  14.423
71616SOL    HW216688  12.672   9.235  14.573
71617SOL     OW16689  11.246   1.271   9.470
71617SOL    HW116690  11.300   1.329   9.523
71617SOL    HW216691  11.277   1.285   9.380
71618SOL     OW16692  10.126   7.195  10.062
71618SOL    HW116693  10.157   7.255  10.130
71618SOL    HW216694  10.036   7.174  10.088
71619SOL     OW16695   7.048   7.870   3.847
71619SOL    HW116696   7.060   7.827   3.932
71619SOL    HW216697   7.130   7.852   3.801
71620SOL     OW16698   7.170   1.781  13.952
71620SOL    HW116699   7.261   1.778  13.981
71620SOL    HW216700   7.123   1.722  14.012
71621SOL     OW16701   3.860   8.895   7.056
71621SOL    HW116702   3.909   8.876   7.136
71621SOL    HW216703   3.900   8.975   7.023
71622SOL     OW16704   5.233   4.040   7.691
71622SOL    HW116705   5.237   4.081   7.605
71622SOL    HW216706   5.311   4.071   7.736
71623SOL     OW16707  12.635   8.767  13.106
71623SOL    HW116708  12.614   8.691  13.052
71623SOL    HW216709  12.703   8.813  13.056
71624SOL     OW16710   1.037   8.042   8.026
71624SOL    HW116711   1.063   7.991   7.949
71624SOL    HW216712   1.025   7.977   8.095
71625SOL     OW16713   7.769   4.374   3.565
71625SOL    HW116714   7.778   4.364   3.470
71625SOL    HW216715   7.699   4.439   3.576
71626SOL     OW16716   6.738   3.562   7.385
71626SOL    HW116717   6.658   3.582   7.433
71626SOL    HW216718   6.711   3.553   7.294
71627SOL     OW16719   2.336   3.315   2.463
71627SOL    HW116720   2.429   3.333   2.446
71627SOL    HW216721   2.323   3.338   2.555
71628SOL     OW16722   1.993   6.463   3.918
71628SOL    HW116723   2.052   6.531   3.886
71628SOL    HW216724   2.045   6.382   3.914
71629SOL     OW16725   8.211   8.709   2.287
71629SOL    HW116726   8.188   8.659   2.365
71629SOL    HW216727   8.181   8.655   2.214
71630SOL     OW16728  13.730   8.522  12.816
71630SOL    HW116729  13.712   8.439  12.774
71630SOL    HW216730  13.656   8.578  12.794
71631SOL     OW16731   5.476   5.945   0.607
71631SOL    HW116732   5.535   5.893   0.660
71631SOL    HW216733   5.465   5.895   0.526
71632SOL     OW16734  14.290   4.444   8.206
71632SOL    HW116735  14.261   4.379   8.270
71632SOL    HW216736  14.270   4.404   8.121
71633SOL     OW16737  11.183   7.791  12.412
71633SOL    HW116738  11.186   7.776  12.506
71633SOL    HW216739  11.178   7.886  12.403
71634SOL     OW16740   3.392   1.187   6.741
71634SOL    HW116741   3.300   1.193   6.715
71634SOL    HW216742   3.395   1.229   6.828
71635SOL     OW16743   8.406   7.942   4.967
71635SOL    HW116744   8.356   7.922   4.888
71635SOL    HW216745   8.399   7.864   5.021
71636SOL     OW16746  11.838  10.865  11.359
71636SOL    HW116747  11.819  10.780  11.399
71636SOL    HW216748  11.934  10.871  11.361
71637SOL     OW16749  13.720   9.336  13.455
71637SOL    HW116750  13.746   9.267  13.394
71637SOL    HW216751  13.787   9.335  13.523
71638SOL     OW16752   0.928  12.751   2.986
71638SOL    HW116753   0.887  12.820   2.933
71638SOL    HW216754   1.002  12.794   3.029
71639SOL     OW16755  11.969   1.348  10.289
71639SOL    HW116756  11.923   1.407  10.348
71639SOL    HW216757  11.959   1.387  10.202
71640SOL     OW16758  14.764   3.364   2.479
71640SOL    HW116759  14.845   3.346   2.432
71640SOL    HW216760  14.739   3.280   2.518
71641SOL     OW16761   7.201   9.667   1.863
71641SOL    HW116762   7.120   9.670   1.914
71641SOL    HW216763   7.211   9.756   1.829
71642SOL     OW16764   2.534   6.474   2.759
71642SOL    HW116765   2.604   6.470   2.694
71642SOL    HW216766   2.499   6.385   2.762
71643SOL     OW16767   0.296  10.374   3.393
71643SOL    HW116768   0.275  10.288   3.432
71643SOL    HW216769   0.222  10.429   3.418
71644SOL     OW16770   4.382   5.278   9.173
71644SOL    HW116771   4.336   5.298   9.255
71644SOL    HW216772   4.429   5.197   9.192
71645SOL     OW16773   2.299   7.654  14.452
71645SOL    HW116774   2.269   7.744  14.465
71645SOL    HW216775   2.371   7.645  14.515
71646SOL     OW16776   2.311   6.152  10.347
71646SOL    HW116777   2.260   6.228  10.375
71646SOL    HW216778   2.361   6.184  10.272
71647SOL     OW16779   7.287  12.027  13.527
71647SOL    HW116780   7.270  11.971  13.602
71647SOL    HW216781   7.337  11.973  13.466
71648SOL     OW16782   8.748  11.092   4.367
71648SOL    HW116783   8.835  11.054   4.360
71648SOL    HW216784   8.715  11.092   4.277
71649SOL     OW16785   8.128   1.866   5.257
71649SOL    HW116786   8.090   1.882   5.344
71649SOL    HW216787   8.064   1.904   5.196
71650SOL     OW16788   2.283  13.594   0.991
71650SOL    HW116789   2.308  13.504   1.011
71650SOL    HW216790   2.341  13.619   0.919
71651SOL     OW16791  10.903   1.970   0.388
71651SOL    HW116792  10.827   1.963   0.446
71651SOL    HW216793  10.937   1.881   0.383
71652SOL     OW16794   3.515  12.336   5.472
71652SOL    HW116795   3.557  12.384   5.401
71652SOL    HW216796   3.574  12.350   5.547
71653SOL     OW16797  13.760  11.218  11.038
71653SOL    HW116798  13.666  11.226  11.020
71653SOL    HW216799  13.801  11.283  10.981
71654SOL     OW16800   2.754   7.345   0.612
71654SOL    HW116801   2.753   7.251   0.594
71654SOL    HW216802   2.709   7.384   0.537
71655SOL     OW16803  11.915   9.364   0.414
71655SOL    HW116804  11.920   9.459   0.416
71655SOL    HW216805  11.844   9.345   0.353
71656SOL     OW16806   0.524  12.748   4.038
71656SOL    HW116807   0.528  12.782   4.127
71656SOL    HW216808   0.612  12.762   4.003
71657SOL     OW16809   4.208  14.382   2.651
71657SOL    HW116810   4.241  14.450   2.711
71657SOL    HW216811   4.237  14.300   2.690
71658SOL     OW16812   6.189  12.205   1.737
71658SOL    HW116813   6.118  12.183   1.797
71658SOL    HW216814   6.145  12.247   1.663
71659SOL     OW16815   9.095   5.702   1.772
71659SOL    HW116816   9.067   5.672   1.685
71659SOL    HW216817   9.114   5.795   1.760
71660SOL     OW16818   1.785  11.658  14.734
71660SOL    HW116819   1.803  11.594  14.666
71660SOL    HW216820   1.696  11.638  14.763
71661SOL     OW16821  14.480   0.926   1.576
71661SOL    HW116822  14.523   0.848   1.612
71661SOL    HW216823  14.551   0.989   1.565
71662SOL     OW16824   0.335   2.242   9.859
71662SOL    HW116825   0.374   2.326   9.884
71662SOL    HW216826   0.298   2.258   9.772
71663SOL     OW16827   0.073   5.321   2.120
71663SOL    HW116828   0.156   5.275   2.105
71663SOL    HW216829   0.099   5.404   2.160
71664SOL     OW16830   1.050  11.315   0.320
71664SOL    HW116831   1.021  11.224   0.329
71664SOL    HW216832   1.003  11.347   0.243
71665SOL     OW16833  11.794   8.095   0.868
71665SOL    HW116834  11.756   8.051   0.792
71665SOL    HW216835  11.868   8.040   0.893
71666SOL     OW16836   5.932   9.369   2.103
71666SOL    HW116837   5.989   9.295   2.080
71666SOL    HW216838   5.896   9.397   2.019
71667SOL     OW16839  11.902   1.947   7.573
71667SOL    HW116840  11.988   1.954   7.615
71667SOL    HW216841  11.843   1.997   7.630
71668SOL     OW16842   5.127   2.868   7.727
71668SOL    HW116843   5.125   2.935   7.795
71668SOL    HW216844   5.063   2.898   7.663
71669SOL     OW16845   5.246  10.510  12.686
71669SOL    HW116846   5.303  10.577  12.647
71669SOL    HW216847   5.266  10.512  12.779
71670SOL     OW16848  14.748  12.817  10.177
71670SOL    HW116849  14.660  12.848  10.157
71670SOL    HW216850  14.803  12.853  10.107
71671SOL     OW16851  13.149  13.886  12.418
71671SOL    HW116852  13.064  13.845  12.405
71671SOL    HW216853  13.190  13.836  12.488
71672SOL     OW16854   7.822  14.251  10.475
71672SOL    HW116855   7.786  14.245  10.387
71672SOL    HW216856   7.746  14.259  10.533
71673SOL     OW16857  10.115  10.404  13.060
71673SOL    HW116858  10.065  10.362  13.130
71673SOL    HW216859  10.051  10.416  12.989
71674SOL     OW16860   1.098   5.083   3.109
71674SOL    HW116861   1.099   5.164   3.058
71674SOL    HW216862   1.165   5.028   3.067
71675SOL     OW16863   7.654  13.214   7.314
71675SOL    HW116864   7.726  13.220   7.250
71675SOL    HW216865   7.679  13.141   7.371
71676SOL     OW16866   3.139   4.726   3.964
71676SOL    HW116867   3.087   4.645   3.971
71676SOL    HW216868   3.229   4.696   3.961
71677SOL     OW16869   1.099  11.435   4.551
71677SOL    HW116870   1.096  11.519   4.506
71677SOL    HW216871   1.112  11.370   4.481
71678SOL     OW16872   7.032   5.744   7.452
71678SOL    HW116873   7.009   5.672   7.392
71678SOL    HW216874   7.051   5.818   7.394
71679SOL     OW16875  11.236  10.040   2.900
71679SOL    HW116876  11.179   9.987   2.845
71679SOL    HW216877  11.258   9.983   2.974
71680SOL     OW16878   9.755   0.356   0.024
71680SOL    HW116879   9.840   0.319  14.875
71680SOL    HW216880   9.758   0.359   0.120
71681SOL     OW16881   2.365   0.688  12.195
71681SOL    HW116882   2.333   0.604  12.162
71681SOL    HW216883   2.454   0.695  12.159
71682SOL     OW16884  14.240  13.067  11.134
71682SOL    HW116885  14.265  13.088  11.224
71682SOL    HW216886  14.190  13.143  11.104
71683SOL     OW16887  13.080   2.872   9.508
71683SOL    HW116888  13.127   2.935   9.454
71683SOL    HW216889  12.994   2.911   9.522
71684SOL     OW16890   5.712   0.425  12.158
71684SOL    HW116891   5.721   0.518  12.137
71684SOL    HW216892   5.646   0.392  12.097
71685SOL     OW16893   1.228   0.490   4.826
71685SOL    HW116894   1.235   0.404   4.784
71685SOL    HW216895   1.193   0.472   4.913
71686SOL     OW16896  10.492   3.327   6.695
71686SOL    HW116897  10.547   3.254   6.668
71686SOL    HW216898  10.489   3.385   6.619
71687SOL     OW16899  12.304   5.692  11.288
71687SOL    HW116900  12.223   5.644  11.302
71687SOL    HW216901  12.280   5.784  11.297
71688SOL     OW16902   7.018   3.690   0.692
71688SOL    HW116903   7.052   3.601   0.702
71688SOL    HW216904   6.939   3.679   0.639
71689SOL     OW16905   7.633   6.219   8.946
71689SOL    HW116906   7.693   6.226   8.872
71689SOL    HW216907   7.555   6.268   8.918
71690SOL     OW16908   3.068   3.647  10.447
71690SOL    HW116909   3.038   3.665  10.358
71690SOL    HW216910   3.162   3.668  10.445
71691SOL     OW16911  12.842   8.938  13.532
71691SOL    HW116912  12.878   9.010  13.480
71691SOL    HW216913  12.795   8.883  13.469
71692SOL     OW16914  13.494   7.130   5.527
71692SOL    HW116915  13.548   7.108   5.603
71692SOL    HW216916  13.468   7.045   5.491
71693SOL     OW16917   1.347   8.602   3.585
71693SOL    HW116918   1.257   8.629   3.603
71693SOL    HW216919   1.342   8.552   3.504
71694SOL     OW16920   3.863   5.335   2.183
71694SOL    HW116921   3.916   5.375   2.114
71694SOL    HW216922   3.904   5.364   2.265
71695SOL     OW16923   7.442   4.186  13.812
71695SOL    HW116924   7.356   4.211  13.846
71695SOL    HW216925   7.497   4.178  13.890
71696SOL     OW16926  12.853   8.180   8.449
71696SOL    HW116927  12.852   8.091   8.413
71696SOL    HW216928  12.828   8.236   8.376
71697SOL     OW16929   0.209   8.313   1.291
71697SOL    HW116930   0.245   8.382   1.235
71697SOL    HW216931   0.255   8.323   1.375
71698SOL     OW16932  11.018   7.359   1.934
71698SOL    HW116933  10.937   7.320   1.901
71698SOL    HW216934  11.077   7.358   1.859
71699SOL     OW16935   5.645   7.304   4.862
71699SOL    HW116936   5.583   7.327   4.793
71699SOL    HW216937   5.623   7.214   4.886
71700SOL     OW16938   1.783  14.300   1.005
71700SOL    HW116939   1.851  14.327   0.942
71700SOL    HW216940   1.829  14.241   1.065
71701SOL     OW16941   7.164  14.560   7.531
71701SOL    HW116942   7.142  14.470   7.506
71701SOL    HW216943   7.092  14.587   7.588
71702SOL     OW16944   5.613  10.207   6.166
71702SOL    HW116945   5.657  10.122   6.161
71702SOL    HW216946   5.628  10.246   6.080
71703SOL     OW16947   3.628  10.974  14.073
71703SOL    HW116948   3.631  10.888  14.114
71703SOL    HW216949   3.615  10.957  13.980
71704SOL     OW16950   4.497   4.276   3.557
71704SOL    HW116951   4.535   4.256   3.471
71704SOL    HW216952   4.525   4.366   3.576
71705SOL     OW16953  14.439  12.232   0.679
71705SOL    HW116954  14.506  12.165   0.693
71705SOL    HW216955  14.405  12.215   0.591
71706SOL     OW16956   5.932   9.606   1.203
71706SOL    HW116957   5.896   9.540   1.144
71706SOL    HW216958   5.957   9.678   1.145
71707SOL     OW16959   9.086   8.613  14.197
71707SOL    HW116960   9.168   8.656  14.173
71707SOL    HW216961   9.099   8.522  14.172
71708SOL     OW16962   7.062  13.763  11.358
71708SOL    HW116963   7.136  13.763  11.419
71708SOL    HW216964   7.081  13.692  11.297
71709SOL     OW16965   0.160   6.626  11.521
71709SOL    HW116966   0.173   6.694  11.454
71709SOL    HW216967   0.247   6.591  11.536
71710SOL     OW16968   4.575  10.973  14.546
71710SOL    HW116969   4.667  10.954  14.564
71710SOL    HW216970   4.567  11.068  14.559
71711SOL     OW16971  13.192   7.088  11.951
71711SOL    HW116972  13.222   7.168  11.908
71711SOL    HW216973  13.143   7.041  11.884
71712SOL     OW16974   8.509   8.373   4.377
71712SOL    HW116975   8.578   8.316   4.412
71712SOL    HW216976   8.445   8.312   4.340
71713SOL     OW16977   2.139   5.397  13.519
71713SOL    HW116978   2.099   5.459  13.579
71713SOL    HW216979   2.101   5.418  13.433
71714SOL     OW16980   3.770   7.738   3.017
71714SOL    HW116981   3.681   7.774   3.013
71714SOL    HW216982   3.786   7.704   2.930
71715SOL     OW16983  11.640   5.368   0.373
71715SOL    HW116984  11.681   5.294   0.328
71715SOL    HW216985  11.628   5.434   0.305
71716SOL     OW16986   3.605  12.163   1.967
71716SOL    HW116987   3.674  12.135   1.906
71716SOL    HW216988   3.632  12.251   1.993
71717SOL     OW16989   8.416   0.949   4.418
71717SOL    HW116990   8.504   0.912   4.414
71717SOL    HW216991   8.390   0.957   4.327
71718SOL     OW16992  11.093  10.815   2.342
71718SOL    HW116993  11.141  10.763   2.278
71718SOL    HW216994  11.155  10.880   2.373
71719SOL     OW16995   9.869   7.418   5.124
71719SOL    HW116996   9.960   7.388   5.122
71719SOL    HW216997   9.819   7.339   5.148
71720SOL     OW16998  12.251  11.580  13.424
71720SOL    HW116999  12.171  11.573  13.372
71720SOL    HW217000  12.322  11.575  13.359
71721SOL     OW17001  13.699   6.613  14.073
71721SOL    HW117002  13.629   6.674  14.053
71721SOL    HW217003  13.760   6.663  14.127
71722SOL     OW17004  14.226  10.147   0.557
71722SOL    HW117005  14.216  10.194   0.640
71722SOL    HW217006  14.288  10.200   0.507
71723SOL     OW17007  13.654   6.492  10.943
71723SOL    HW117008  13.606   6.558  10.994
71723SOL    HW217009  13.746   6.508  10.964
71724SOL     OW17010  12.450   8.191   6.449
71724SOL    HW117011  12.448   8.230   6.536
71724SOL    HW217012  12.419   8.102   6.462
71725SOL     OW17013   0.065  13.028   8.979
71725SOL    HW117014   0.149  13.034   8.934
71725SOL    HW217015   0.024  12.949   8.943
71726SOL     OW17016   0.135   5.474   3.703
71726SOL    HW117017   0.117   5.437   3.789
71726SOL    HW217018   0.230   5.486   3.702
71727SOL     OW17019  13.223  11.218  11.498
71727SOL    HW117020  13.174  11.298  11.514
71727SOL    HW217021  13.315  11.242  11.515
71728SOL     OW17022  13.190   7.783  14.557
71728SOL    HW117023  13.108   7.739  14.579
71728SOL    HW217024  13.255   7.713  14.553
71729SOL     OW17025   1.997   5.784   1.101
71729SOL    HW117026   1.934   5.809   1.170
71729SOL    HW217027   2.015   5.865   1.055
71730SOL     OW17028   7.172  11.576   5.049
71730SOL    HW117029   7.089  11.615   5.078
71730SOL    HW217030   7.153  11.542   4.962
71731SOL     OW17031  11.971  10.723   7.691
71731SOL    HW117032  11.894  10.780   7.682
71731SOL    HW217033  11.935  10.640   7.723
71732SOL     OW17034   7.504  13.673   9.802
71732SOL    HW117035   7.536  13.754   9.762
71732SOL    HW217036   7.490  13.696   9.894
71733SOL     OW17037  12.415   5.604   6.292
71733SOL    HW117038  12.456   5.688   6.273
71733SOL    HW217039  12.423   5.594   6.386
71734SOL     OW17040   3.383   6.946   5.673
71734SOL    HW117041   3.406   6.901   5.755
71734SOL    HW217042   3.371   7.037   5.699
71735SOL     OW17043  10.580  11.323  10.033
71735SOL    HW117044  10.668  11.319  10.072
71735SOL    HW217045  10.581  11.402   9.979
71736SOL     OW17046   4.541  12.355   5.386
71736SOL    HW117047   4.555  12.299   5.310
71736SOL    HW217048   4.511  12.296   5.455
71737SOL     OW17049   6.776   7.977   1.751
71737SOL    HW117050   6.753   8.070   1.754
71737SOL    HW217051   6.711   7.934   1.808
71738SOL     OW17052  10.382   6.064   4.817
71738SOL    HW117053  10.422   6.047   4.732
71738SOL    HW217054  10.295   6.097   4.796
71739SOL     OW17055   9.526   7.797   2.074
71739SOL    HW117056   9.492   7.810   1.986
71739SOL    HW217057   9.542   7.703   2.080
71740SOL     OW17058   5.732   1.271   1.742
71740SOL    HW117059   5.640   1.246   1.735
71740SOL    HW217060   5.749   1.319   1.661
71741SOL     OW17061  14.729   1.661   5.842
71741SOL    HW117062  14.667   1.721   5.883
71741SOL    HW217063  14.804   1.659   5.901
71742SOL     OW17064   7.070   1.635  13.695
71742SOL    HW117065   6.976   1.652  13.699
71742SOL    HW217066   7.100   1.646  13.785
71743SOL     OW17067  10.399   8.217   3.917
71743SOL    HW117068  10.385   8.169   3.835
71743SOL    HW217069  10.367   8.305   3.900
71744SOL     OW17070  12.560   2.273   6.396
71744SOL    HW117071  12.643   2.299   6.435
71744SOL    HW217072  12.544   2.185   6.430
71745SOL     OW17073  14.129  13.369   2.915
71745SOL    HW117074  14.114  13.445   2.971
71745SOL    HW217075  14.186  13.312   2.967
71746SOL     OW17076   9.346   6.017   3.324
71746SOL    HW117077   9.300   6.094   3.359
71746SOL    HW217078   9.292   5.988   3.250
71747SOL     OW17079  11.875   7.771   7.048
71747SOL    HW117080  11.862   7.857   7.009
71747SOL    HW217081  11.806   7.764   7.114
71748SOL     OW17082  10.682  11.323   1.196
71748SOL    HW117083  10.626  11.255   1.233
71748SOL    HW217084  10.704  11.379   1.270
71749SOL     OW17085   0.558  10.234   6.621
71749SOL    HW117086   0.605  10.226   6.704
71749SOL    HW217087   0.473  10.271   6.645
71750SOL     OW17088  11.908  14.587  13.274
71750SOL    HW117089  11.817  14.560  13.289
71750SOL    HW217090  11.936  14.626  13.357
71751SOL     OW17091  14.305   6.532   3.254
71751SOL    HW117092  14.288   6.447   3.296
71751SOL    HW217093  14.228   6.546   3.198
71752SOL     OW17094   4.603   5.568  14.025
71752SOL    HW117095   4.603   5.477  13.994
71752SOL    HW217096   4.696   5.588  14.037
71753SOL     OW17097  12.738  11.114  12.848
71753SOL    HW117098  12.762  11.030  12.886
71753SOL    HW217099  12.822  11.160  12.838
71754SOL     OW17100  14.141   3.779   8.656
71754SOL    HW117101  14.101   3.700   8.620
71754SOL    HW217102  14.082   3.806   8.726
71755SOL     OW17103  13.812   3.232   0.048
71755SOL    HW117104  13.752   3.240  14.851
71755SOL    HW217105  13.783   3.299   0.110
71756SOL     OW17106  12.710   3.537  12.193
71756SOL    HW117107  12.640   3.583  12.147
71756SOL    HW217108  12.754   3.605  12.244
71757SOL     OW17109   7.140  10.739   7.493
71757SOL    HW117110   7.147  10.833   7.478
71757SOL    HW217111   7.101  10.705   7.412
71758SOL     OW17112   0.882   3.472   9.341
71758SOL    HW117113   0.963   3.471   9.290
71758SOL    HW217114   0.813   3.480   9.275
71759SOL     OW17115   2.483   3.083   1.507
71759SOL    HW117116   2.469   3.100   1.600
71759SOL    HW217117   2.399   3.051   1.475
71760SOL     OW17118   9.251   3.827   8.082
71760SOL    HW117119   9.282   3.738   8.094
71760SOL    HW217120   9.159   3.824   8.108
71761SOL     OW17121   8.509  13.536   0.588
71761SOL    HW117122   8.492  13.617   0.635
71761SOL    HW217123   8.469  13.549   0.502
71762SOL     OW17124   7.065   3.246   7.406
71762SOL    HW117125   6.993   3.225   7.346
71762SOL    HW217126   7.035   3.215   7.492
71763SOL     OW17127  10.397   9.854   5.351
71763SOL    HW117128  10.366   9.908   5.278
71763SOL    HW217129  10.442   9.781   5.308
71764SOL     OW17130   9.819  12.209  10.821
71764SOL    HW117131   9.742  12.183  10.772
71764SOL    HW217132   9.857  12.126  10.851
71765SOL     OW17133  11.921   1.698   7.167
71765SOL    HW117134  11.969   1.755   7.227
71765SOL    HW217135  11.830   1.707   7.194
71766SOL     OW17136  14.108   7.272  12.798
71766SOL    HW117137  14.016   7.278  12.770
71766SOL    HW217138  14.104   7.229  12.883
71767SOL     OW17139   9.962   4.232   7.976
71767SOL    HW117140   9.982   4.278   8.058
71767SOL    HW217141   9.916   4.153   8.003
71768SOL     OW17142   9.209  11.452   7.501
71768SOL    HW117143   9.142  11.497   7.449
71768SOL    HW217144   9.164  11.374   7.535
71769SOL     OW17145  10.799   8.180  12.552
71769SOL    HW117146  10.742   8.246  12.513
71769SOL    HW217147  10.867   8.165  12.487
71770SOL     OW17148   9.561   0.268   3.359
71770SOL    HW117149   9.532   0.341   3.304
71770SOL    HW217150   9.486   0.248   3.414
71771SOL     OW17151   7.568   1.183   2.078
71771SOL    HW117152   7.532   1.250   2.020
71771SOL    HW217153   7.584   1.229   2.160
71772SOL     OW17154   3.475  13.440   5.063
71772SOL    HW117155   3.546  13.500   5.082
71772SOL    HW217156   3.423  13.437   5.143
71773SOL     OW17157  13.222  14.510   6.543
71773SOL    HW117158  13.317  14.507   6.552
71773SOL    HW217159  13.189  14.508   6.633
71774SOL     OW17160  11.028  11.633   6.883
71774SOL    HW117161  10.959  11.696   6.906
71774SOL    HW217162  11.090  11.683   6.831
71775SOL     OW17163   8.958   9.468   8.435
71775SOL    HW117164   8.919   9.539   8.487
71775SOL    HW217165   8.889   9.402   8.430
71776SOL     OW17166   2.954   8.626   3.006
71776SOL    HW117167   2.896   8.600   3.077
71776SOL    HW217168   3.032   8.659   3.050
71777SOL     OW17169   8.814   0.032  10.533
71777SOL    HW117170   8.899  14.867  10.518
71777SOL    HW217171   8.755  14.836  10.556
71778SOL     OW17172   2.181   0.141   6.548
71778SOL    HW117173   2.166   0.144   6.454
71778SOL    HW217174   2.094   0.150   6.587
71779SOL     OW17175   2.390   0.709   7.003
71779SOL    HW117176   2.458   0.764   7.042
71779SOL    HW217177   2.406   0.622   7.039
71780SOL     OW17178   0.237  13.200   1.715
71780SOL    HW117179   0.162  13.143   1.734
71780SOL    HW217180   0.290  13.195   1.794
71781SOL     OW17181  11.354   3.883   7.169
71781SOL    HW117182  11.328   3.841   7.087
71781SOL    HW217183  11.277   3.877   7.225
71782SOL     OW17184   7.642   5.873   2.597
71782SOL    HW117185   7.634   5.965   2.621
71782SOL    HW217186   7.555   5.848   2.566
71783SOL     OW17187  12.206   9.334   2.925
71783SOL    HW117188  12.164   9.402   2.977
71783SOL    HW217189  12.136   9.273   2.903
71784SOL     OW17190   7.658   8.547   8.923
71784SOL    HW117191   7.624   8.566   9.010
71784SOL    HW217192   7.696   8.629   8.893
71785SOL     OW17193   0.414   4.663   1.446
71785SOL    HW117194   0.492   4.712   1.419
71785SOL    HW217195   0.342   4.704   1.399
71786SOL     OW17196   3.628   1.157   7.398
71786SOL    HW117197   3.625   1.144   7.493
71786SOL    HW217198   3.653   1.071   7.363
71787SOL     OW17199   1.119   3.160   2.374
71787SOL    HW117200   1.175   3.083   2.384
71787SOL    HW217201   1.162   3.229   2.425
71788SOL     OW17202  11.671  10.656   5.482
71788SOL    HW117203  11.612  10.697   5.419
71788SOL    HW217204  11.651  10.698   5.566
71789SOL     OW17205  11.473  10.271  14.027
71789SOL    HW117206  11.465  10.289  13.933
71789SOL    HW217207  11.487  10.357  14.067
71790SOL     OW17208   4.807   3.843  11.679
71790SOL    HW117209   4.866   3.775  11.648
71790SOL    HW217210   4.775   3.811  11.763
71791SOL     OW17211   6.870  14.207   4.151
71791SOL    HW117212   6.798  14.249   4.103
71791SOL    HW217213   6.942  14.204   4.087
71792SOL     OW17214  13.075   9.800   2.655
71792SOL    HW117215  13.083   9.809   2.750
71792SOL    HW217216  13.112   9.714   2.635
71793SOL     OW17217  13.241   5.411   4.729
71793SOL    HW117218  13.327   5.439   4.760
71793SOL    HW217219  13.237   5.317   4.747
71794SOL     OW17220   8.851  14.703   3.771
71794SOL    HW117221   8.785  14.731   3.835
71794SOL    HW217222   8.917  14.657   3.824
71795SOL     OW17223   7.020   0.912   6.860
71795SOL    HW117224   7.092   0.915   6.797
71795SOL    HW217225   7.056   0.866   6.936
71796SOL     OW17226   9.219   1.413  14.599
71796SOL    HW117227   9.157   1.487  14.598
71796SOL    HW217228   9.264   1.419  14.514
71797SOL     OW17229   0.510   9.577  11.196
71797SOL    HW117230   0.482   9.502  11.144
71797SOL    HW217231   0.605   9.567  11.202
71798SOL     OW17232  14.847   1.947   6.639
71798SOL    HW117233  14.830   1.854   6.622
71798SOL    HW217234  14.822   1.990   6.557
71799SOL     OW17235   3.809  14.870  12.498
71799SOL    HW117236   3.740  14.835  12.554
71799SOL    HW217237   3.815  14.807  12.426
71800SOL     OW17238   2.048   4.336  14.481
71800SOL    HW117239   2.065   4.283  14.403
71800SOL    HW217240   2.063   4.426  14.453
71801SOL     OW17241  13.309   9.518   0.520
71801SOL    HW117242  13.404   9.523   0.518
71801SOL    HW217243  13.286   9.460   0.447
71802SOL     OW17244  12.814   4.070  13.007
71802SOL    HW117245  12.764   3.991  13.024
71802SOL    HW217246  12.848   4.097  13.093
71803SOL     OW17247   3.602  12.866  11.915
71803SOL    HW117248   3.633  12.847  11.826
71803SOL    HW217249   3.507  12.877  11.905
71804SOL     OW17250  11.837  10.118   3.116
71804SOL    HW117251  11.771  10.113   3.046
71804SOL    HW217252  11.836  10.210   3.143
71805SOL     OW17253   0.145   5.019   9.979
71805SOL    HW117254   0.190   5.054  10.056
71805SOL    HW217255   0.187   5.063   9.905
71806SOL     OW17256   3.821   8.101   2.190
71806SOL    HW117257   3.729   8.116   2.211
71806SOL    HW217258   3.865   8.183   2.213
71807SOL     OW17259   6.729   2.159  13.435
71807SOL    HW117260   6.755   2.092  13.499
71807SOL    HW217261   6.811   2.190  13.397
71808SOL     OW17262  14.041  10.419   2.832
71808SOL    HW117263  14.110  10.482   2.854
71808SOL    HW217264  13.973  10.471   2.790
71809SOL     OW17265   1.632   1.188   8.933
71809SOL    HW117266   1.604   1.257   8.995
71809SOL    HW217267   1.727   1.194   8.932
71810SOL     OW17268   3.097   0.869   5.792
71810SOL    HW117269   3.034   0.928   5.835
71810SOL    HW217270   3.068   0.781   5.816
71811SOL     OW17271  10.696   3.396   2.166
71811SOL    HW117272  10.710   3.328   2.232
71811SOL    HW217273  10.701   3.350   2.083
71812SOL     OW17274  12.124   1.781  10.952
71812SOL    HW117275  12.154   1.693  10.974
71812SOL    HW217276  12.036   1.787  10.990
71813SOL     OW17277  11.072   7.433   7.328
71813SOL    HW117278  11.101   7.459   7.415
71813SOL    HW217279  11.130   7.481   7.268
71814SOL     OW17280   4.722   5.745   3.489
71814SOL    HW117281   4.762   5.671   3.445
71814SOL    HW217282   4.750   5.738   3.580
71815SOL     OW17283   9.063   2.294   4.865
71815SOL    HW117284   9.115   2.221   4.896
71815SOL    HW217285   9.080   2.298   4.771
71816SOL     OW17286   3.678  12.340   2.637
71816SOL    HW117287   3.694  12.313   2.547
71816SOL    HW217288   3.745  12.295   2.688
71817SOL     OW17289   8.067  10.618   5.036
71817SOL    HW117290   8.138  10.591   4.978
71817SOL    HW217291   8.006  10.665   4.979
71818SOL     OW17292   1.626   1.192   2.410
71818SOL    HW117293   1.596   1.123   2.469
71818SOL    HW217294   1.700   1.232   2.456
71819SOL     OW17295   6.993   4.870   4.631
71819SOL    HW117296   7.052   4.938   4.663
71819SOL    HW217297   6.934   4.916   4.571
71820SOL     OW17298  10.298  13.810   9.048
71820SOL    HW117299  10.372  13.749   9.039
71820SOL    HW217300  10.310  13.849   9.134
71821SOL     OW17301   6.548   3.647   8.002
71821SOL    HW117302   6.569   3.708   8.073
71821SOL    HW217303   6.517   3.703   7.931
71822SOL     OW17304   6.962  10.061   3.898
71822SOL    HW117305   7.055  10.050   3.920
71822SOL    HW217306   6.915  10.032   3.976
71823SOL     OW17307   7.678  11.439   3.596
71823SOL    HW117308   7.664  11.350   3.565
71823SOL    HW217309   7.730  11.481   3.527
71824SOL     OW17310  13.102   5.466  14.865
71824SOL    HW117311  13.026   5.415   0.016
71824SOL    HW217312  13.171   5.401  14.850
71825SOL     OW17313  11.666  12.770   0.203
71825SOL    HW117314  11.711  12.853   0.217
71825SOL    HW217315  11.697  12.740   0.117
71826SOL     OW17316   1.653  12.246  10.423
71826SOL    HW117317   1.635  12.223  10.514
71826SOL    HW217318   1.749  12.243  10.416
71827SOL     OW17319   8.584   8.174   6.422
71827SOL    HW117320   8.617   8.150   6.336
71827SOL    HW217321   8.515   8.238   6.405
71828SOL     OW17322  11.629  10.116  11.436
71828SOL    HW117323  11.704  10.145  11.488
71828SOL    HW217324  11.611  10.027  11.466
71829SOL     OW17325  14.654   6.345  11.375
71829SOL    HW117326  14.669   6.299  11.292
71829SOL    HW217327  14.559   6.347  11.385
71830SOL     OW17328  13.802   3.753   8.087
71830SOL    HW117329  13.763   3.840   8.088
71830SOL    HW217330  13.883   3.764   8.037
71831SOL     OW17331   6.561  12.380  13.414
71831SOL    HW117332   6.569  12.340  13.500
71831SOL    HW217333   6.527  12.311  13.358
71832SOL     OW17334   7.546   5.192   7.072
71832SOL    HW117335   7.469   5.160   7.024
71832SOL    HW217336   7.621   5.159   7.022
71833SOL     OW17337  13.840   7.679   2.740
71833SOL    HW117338  13.797   7.738   2.678
71833SOL    HW217339  13.804   7.703   2.825
71834SOL     OW17340   1.185  14.205   8.014
71834SOL    HW117341   1.165  14.296   7.993
71834SOL    HW217342   1.261  14.210   8.072
71835SOL     OW17343   9.737   2.182   4.418
71835SOL    HW117344   9.644   2.203   4.413
71835SOL    HW217345   9.781   2.266   4.410
71836SOL     OW17346   0.770   9.548   8.481
71836SOL    HW117347   0.774   9.502   8.565
71836SOL    HW217348   0.850   9.522   8.436
71837SOL     OW17349   8.792   4.962  14.218
71837SOL    HW117350   8.732   5.021  14.171
71837SOL    HW217351   8.791   4.882  14.166
71838SOL     OW17352  12.956   2.581  14.240
71838SOL    HW117353  12.897   2.507  14.255
71838SOL    HW217354  13.032   2.563  14.295
71839SOL     OW17355   2.395   0.653   4.760
71839SOL    HW117356   2.345   0.641   4.841
71839SOL    HW217357   2.398   0.566   4.721
71840SOL     OW17358   6.908  13.387   1.300
71840SOL    HW117359   6.921  13.393   1.205
71840SOL    HW217360   6.900  13.293   1.317
71841SOL     OW17361   7.443   0.468  11.434
71841SOL    HW117362   7.438   0.549  11.384
71841SOL    HW217363   7.388   0.484  11.511
71842SOL     OW17364   6.270   4.616   8.511
71842SOL    HW117365   6.285   4.537   8.459
71842SOL    HW217366   6.177   4.613   8.532
71843SOL     OW17367   8.941  12.437   6.853
71843SOL    HW117368   8.901  12.523   6.864
71843SOL    HW217369   8.869  12.375   6.868
71844SOL     OW17370   5.787  12.999  14.425
71844SOL    HW117371   5.737  12.918  14.416
71844SOL    HW217372   5.774  13.026  14.515
71845SOL     OW17373   5.530  11.959   9.167
71845SOL    HW117374   5.439  11.936   9.185
71845SOL    HW217375   5.561  12.001   9.248
71846SOL     OW17376  13.148  12.395   8.612
71846SOL    HW117377  13.122  12.451   8.539
71846SOL    HW217378  13.068  12.348   8.636
71847SOL     OW17379  13.553  12.824   3.840
71847SOL    HW117380  13.582  12.751   3.786
71847SOL    HW217381  13.616  12.894   3.823
71848SOL     OW17382   8.364  13.772   3.320
71848SOL    HW117383   8.346  13.806   3.408
71848SOL    HW217384   8.348  13.845   3.262
71849SOL     OW17385   1.461   7.444  12.289
71849SOL    HW117386   1.370   7.473  12.278
71849SOL    HW217387   1.497   7.503  12.355
71850SOL     OW17388  12.662  10.729   3.535
71850SOL    HW117389  12.624  10.669   3.472
71850SOL    HW217390  12.747  10.690   3.557
71851SOL     OW17391  12.598  10.114   7.286
71851SOL    HW117392  12.527  10.107   7.223
71851SOL    HW217393  12.594  10.205   7.317
71852SOL     OW17394   1.931  12.712   0.783
71852SOL    HW117395   1.995  12.644   0.801
71852SOL    HW217396   1.851  12.683   0.828
71853SOL     OW17397  11.337  13.236  12.466
71853SOL    HW117398  11.333  13.329  12.444
71853SOL    HW217399  11.417  13.205  12.422
71854SOL     OW17400   9.724  10.079   9.492
71854SOL    HW117401   9.815  10.093   9.464
71854SOL    HW217402   9.671  10.116   9.421
71855SOL     OW17403   8.706   2.864  14.233
71855SOL    HW117404   8.701   2.803  14.159
71855SOL    HW217405   8.719   2.950  14.192
71856SOL     OW17406   7.352   5.063   6.955
71856SOL    HW117407   7.276   5.015   6.987
71856SOL    HW217408   7.368   5.027   6.868
71857SOL     OW17409   8.085   7.491   9.304
71857SOL    HW117410   8.009   7.434   9.292
71857SOL    HW217411   8.049   7.580   9.304
71858SOL     OW17412  10.914  10.322  10.479
71858SOL    HW117413  10.825  10.292  10.499
71858SOL    HW217414  10.953  10.249  10.431
71859SOL     OW17415  14.562   5.708   4.118
71859SOL    HW117416  14.540   5.744   4.204
71859SOL    HW217417  14.645   5.661   4.132
71860SOL     OW17418   9.873   5.060  10.590
71860SOL    HW117419   9.869   5.063  10.495
71860SOL    HW217420   9.965   5.074  10.611
71861SOL     OW17421   8.186   5.396  12.533
71861SOL    HW117422   8.092   5.417  12.528
71861SOL    HW217423   8.210   5.375  12.443
71862SOL     OW17424   4.364   8.770  10.328
71862SOL    HW117425   4.436   8.717  10.293
71862SOL    HW217426   4.388   8.860  10.305
71863SOL     OW17427   4.490   3.684  11.473
71863SOL    HW117428   4.558   3.619  11.458
71863SOL    HW217429   4.463   3.670  11.564
71864SOL     OW17430  11.564   3.230   1.407
71864SOL    HW117431  11.584   3.194   1.494
71864SOL    HW217432  11.640   3.207   1.354
71865SOL     OW17433   0.812  11.927   0.047
71865SOL    HW117434   0.756  11.867   0.097
71865SOL    HW217435   0.882  11.951   0.108
71866SOL     OW17436   0.198   1.886  11.280
71866SOL    HW117437   0.267   1.865  11.343
71866SOL    HW217438   0.182   1.804  11.233
71867SOL     OW17439   4.560  10.971  10.237
71867SOL    HW117440   4.535  10.942  10.149
71867SOL    HW217441   4.588  10.892  10.282
71868SOL     OW17442   0.124  11.764   5.258
71868SOL    HW117443   0.093  11.839   5.208
71868SOL    HW217444   0.076  11.769   5.341
71869SOL     OW17445   8.177  14.855  14.797
71869SOL    HW117446   8.144  14.859   0.010
71869SOL    HW217447   8.162  14.764  14.771
71870SOL     OW17448   3.670   8.582   9.042
71870SOL    HW117449   3.668   8.677   9.039
71870SOL    HW217450   3.679   8.555   8.951
71871SOL     OW17451  10.701   6.217   2.873
71871SOL    HW117452  10.753   6.259   2.941
71871SOL    HW217453  10.688   6.128   2.904
71872SOL     OW17454   5.001   4.510   4.631
71872SOL    HW117455   4.953   4.428   4.622
71872SOL    HW217456   5.061   4.496   4.704
71873SOL     OW17457   2.947  10.559   7.666
71873SOL    HW117458   3.025  10.508   7.643
71873SOL    HW217459   2.980  10.635   7.713
71874SOL     OW17460   2.597   7.417   2.953
71874SOL    HW117461   2.623   7.339   2.903
71874SOL    HW217462   2.678   7.447   2.995
71875SOL     OW17463   0.565   6.452   2.438
71875SOL    HW117464   0.618   6.503   2.376
71875SOL    HW217465   0.548   6.513   2.510
71876SOL     OW17466  11.689   0.144  10.718
71876SOL    HW117467  11.605   0.098  10.714
71876SOL    HW217468  11.713   0.157  10.626
71877SOL     OW17469   7.879  13.162   0.633
71877SOL    HW117470   7.813  13.183   0.700
71877SOL    HW217471   7.931  13.242   0.626
71878SOL     OW17472  12.510   8.413   7.910
71878SOL    HW117473  12.472   8.482   7.963
71878SOL    HW217474  12.507   8.335   7.965
71879SOL     OW17475  14.392   8.859  11.006
71879SOL    HW117476  14.397   8.807  11.086
71879SOL    HW217477  14.475   8.907  11.003
71880SOL     OW17478   6.237   1.339   7.485
71880SOL    HW117479   6.187   1.274   7.535
71880SOL    HW217480   6.277   1.395   7.551
71881SOL     OW17481  13.699   2.771   7.167
71881SOL    HW117482  13.655   2.854   7.188
71881SOL    HW217483  13.721   2.778   7.074
71882SOL     OW17484   7.340   3.652   5.160
71882SOL    HW117485   7.257   3.685   5.125
71882SOL    HW217486   7.388   3.729   5.187
71883SOL     OW17487  13.523   6.449   7.589
71883SOL    HW117488  13.501   6.405   7.671
71883SOL    HW217489  13.503   6.384   7.521
71884SOL     OW17490  14.308  13.958   8.604
71884SOL    HW117491  14.213  13.946   8.613
71884SOL    HW217492  14.319  14.006   8.522
71885SOL     OW17493  12.513   6.803  11.997
71885SOL    HW117494  12.492   6.746  11.922
71885SOL    HW217495  12.489   6.891  11.967
71886SOL     OW17496   4.159   5.928   2.102
71886SOL    HW117497   4.071   5.897   2.126
71886SOL    HW217498   4.163   5.919   2.007
71887SOL     OW17499   4.801  13.359   0.630
71887SOL    HW117500   4.755  13.283   0.664
71887SOL    HW217501   4.744  13.433   0.650
71888SOL     OW17502   6.351   3.228  10.656
71888SOL    HW117503   6.321   3.219  10.746
71888SOL    HW217504   6.364   3.322  10.645
71889SOL     OW17505   9.628   8.832   4.412
71889SOL    HW117506   9.664   8.820   4.500
71889SOL    HW217507   9.538   8.863   4.426
71890SOL     OW17508  13.536   3.525   6.735
71890SOL    HW117509  13.506   3.572   6.658
71890SOL    HW217510  13.471   3.544   6.802
71891SOL     OW17511   6.120  11.565   2.005
71891SOL    HW117512   6.035  11.594   1.970
71891SOL    HW217513   6.125  11.605   2.091
71892SOL     OW17514  10.357   4.892  10.669
71892SOL    HW117515  10.423   4.934  10.724
71892SOL    HW217516  10.407   4.853  10.597
71893SOL     OW17517   0.008  14.602   9.246
71893SOL    HW117518  14.829  14.615   9.323
71893SOL    HW217519   0.035  14.510   9.252
71894SOL     OW17520   1.690   1.052   5.287
71894SOL    HW117521   1.762   0.993   5.309
71894SOL    HW217522   1.732   1.137   5.275
71895SOL     OW17523   5.591   8.906  13.212
71895SOL    HW117524   5.633   8.838  13.161
71895SOL    HW217525   5.587   8.982  13.154
71896SOL     OW17526  11.674   8.423   6.411
71896SOL    HW117527  11.600   8.361   6.414
71896SOL    HW217528  11.749   8.371   6.438
71897SOL     OW17529   4.122  12.870   3.842
71897SOL    HW117530   4.073  12.934   3.790
71897SOL    HW217531   4.056  12.812   3.878
71898SOL     OW17532  10.183  12.277  12.768
71898SOL    HW117533  10.194  12.371  12.783
71898SOL    HW217534  10.189  12.238  12.856
71899SOL     OW17535   8.241   7.840   3.864
71899SOL    HW117536   8.180   7.863   3.794
71899SOL    HW217537   8.307   7.785   3.822
71900SOL     OW17538   3.630  13.319   8.120
71900SOL    HW117539   3.559  13.361   8.169
71900SOL    HW217540   3.665  13.253   8.180
71901SOL     OW17541   3.426   8.347   0.964
71901SOL    HW117542   3.469   8.419   1.011
71901SOL    HW217543   3.415   8.380   0.875
71902SOL     OW17544  14.226   6.686   8.705
71902SOL    HW117545  14.204   6.761   8.760
71902SOL    HW217546  14.317   6.667   8.727
71903SOL     OW17547   5.021   2.703  12.005
71903SOL    HW117548   4.927   2.722  12.001
71903SOL    HW217549   5.025   2.615  12.042
71904SOL     OW17550  14.718   1.167   0.907
71904SOL    HW117551  14.737   1.170   0.814
71904SOL    HW217552  14.629   1.201   0.915
71905SOL     OW17553   2.716   4.407   5.204
71905SOL    HW117554   2.703   4.381   5.112
71905SOL    HW217555   2.703   4.502   5.204
71906SOL     OW17556  14.594  14.566   6.686
71906SOL    HW117557  14.634  14.591   6.603
71906SOL    HW217558  14.645  14.612   6.752
71907SOL     OW17559   7.397   0.016   8.151
71907SOL    HW117560   7.316  14.860   8.112
71907SOL    HW217561   7.446  14.813   8.174
71908SOL     OW17562   5.603  13.714   7.359
71908SOL    HW117563   5.588  13.759   7.276
71908SOL    HW217564   5.518  13.675   7.381
71909SOL     OW17565  14.099   7.906  14.087
71909SOL    HW117566  14.066   7.852  14.015
71909SOL    HW217567  14.190   7.879  14.098
71910SOL     OW17568   1.229  10.893   8.588
71910SOL    HW117569   1.188  10.840   8.657
71910SOL    HW217570   1.155  10.937   8.546
71911SOL     OW17571   2.716  12.822   7.851
71911SOL    HW117572   2.772  12.895   7.877
71911SOL    HW217573   2.678  12.790   7.932
71912SOL     OW17574   5.710   7.636  12.760
71912SOL    HW117575   5.680   7.677  12.679
71912SOL    HW217576   5.710   7.707  12.825
71913SOL     OW17577   4.642   3.403   3.288
71913SOL    HW117578   4.717   3.346   3.307
71913SOL    HW217579   4.640   3.406   3.192
71914SOL     OW17580   8.468   3.858   5.102
71914SOL    HW117581   8.443   3.940   5.146
71914SOL    HW217582   8.548   3.830   5.148
71915SOL     OW17583  12.211  14.329   1.486
71915SOL    HW117584  12.260  14.255   1.451
71915SOL    HW217585  12.268  14.404   1.473
71916SOL     OW17586   9.453  13.674   7.347
71916SOL    HW117587   9.419  13.745   7.401
71916SOL    HW217588   9.457  13.711   7.258
71917SOL     OW17589  11.226   3.956   3.817
71917SOL    HW117590  11.230   4.048   3.845
71917SOL    HW217591  11.284   3.952   3.741
71918SOL     OW17592  12.829   1.432  12.760
71918SOL    HW117593  12.845   1.520  12.794
71918SOL    HW217594  12.844   1.375  12.834
71919SOL     OW17595   6.015  11.519   8.771
71919SOL    HW117596   6.079  11.570   8.722
71919SOL    HW217597   6.034  11.428   8.750
71920SOL     OW17598   3.124  11.063   5.176
71920SOL    HW117599   3.209  11.106   5.183
71920SOL    HW217600   3.104  11.066   5.082
71921SOL     OW17601   7.327   6.564   5.115
71921SOL    HW117602   7.277   6.638   5.148
71921SOL    HW217603   7.277   6.533   5.039
71922SOL     OW17604   6.258   3.867  11.854
71922SOL    HW117605   6.316   3.939  11.880
71922SOL    HW217606   6.313   3.789  11.860
71923SOL     OW17607   7.901  12.711   9.092
71923SOL    HW117608   7.822  12.759   9.115
71923SOL    HW217609   7.899  12.705   8.996
71924SOL     OW17610   2.694   7.618   1.217
71924SOL    HW117611   2.606   7.611   1.180
71924SOL    HW217612   2.745   7.553   1.170
71925SOL     OW17613  13.943   9.835   5.583
71925SOL    HW117614  14.014   9.888   5.620
71925SOL    HW217615  13.864   9.867   5.627
71926SOL     OW17616   4.300   0.113  12.401
71926SOL    HW117617   4.212   0.140  12.375
71926SOL    HW217618   4.287   0.062  12.481
71927SOL     OW17619   5.133   7.974  12.100
71927SOL    HW117620   5.212   8.016  12.066
71927SOL    HW217621   5.119   7.899  12.041
71928SOL     OW17622  10.026   0.721   0.603
71928SOL    HW117623  10.082   0.798   0.603
71928SOL    HW217624   9.980   0.723   0.687
71929SOL     OW17625  12.166  13.107   4.361
71929SOL    HW117626  12.129  13.146   4.282
71929SOL    HW217627  12.102  13.040   4.386
71930SOL     OW17628   3.280   3.477   2.030
71930SOL    HW117629   3.324   3.558   2.057
71930SOL    HW217630   3.222   3.455   2.102
71931SOL     OW17631   0.711   7.412   5.234
71931SOL    HW117632   0.737   7.411   5.142
71931SOL    HW217633   0.722   7.321   5.263
71932SOL     OW17634   4.608   4.185  11.313
71932SOL    HW117635   4.688   4.167  11.265
71932SOL    HW217636   4.611   4.126  11.388
71933SOL     OW17637   3.423   1.022   9.503
71933SOL    HW117638   3.488   1.016   9.573
71933SOL    HW217639   3.452   0.958   9.437
71934SOL     OW17640   2.385   2.620   1.020
71934SOL    HW117641   2.461   2.644   0.966
71934SOL    HW217642   2.339   2.702   1.034
71935SOL     OW17643  10.408   3.694   6.642
71935SOL    HW117644  10.424   3.741   6.723
71935SOL    HW217645  10.492   3.693   6.597
71936SOL     OW17646   5.695   0.438   5.490
71936SOL    HW117647   5.649   0.355   5.479
71936SOL    HW217648   5.784   0.414   5.515
71937SOL     OW17649  12.127  12.182   7.843
71937SOL    HW117650  12.064  12.120   7.880
71937SOL    HW217651  12.188  12.200   7.914
71938SOL     OW17652  13.297   9.851   5.987
71938SOL    HW117653  13.300   9.756   5.980
71938SOL    HW217654  13.278   9.868   6.079
71939SOL     OW17655   7.868  14.755  12.994
71939SOL    HW117656   7.848  14.668  12.960
71939SOL    HW217657   7.964  14.761  12.988
71940SOL     OW17658   7.694   2.910  10.551
71940SOL    HW117659   7.605   2.914  10.516
71940SOL    HW217660   7.712   3.000  10.579
71941SOL     OW17661   8.891   9.509  10.646
71941SOL    HW117662   8.799   9.532  10.650
71941SOL    HW217663   8.898   9.447  10.573
71942SOL     OW17664   1.720  10.710   1.428
71942SOL    HW117665   1.765  10.769   1.489
71942SOL    HW217666   1.742  10.744   1.341
71943SOL     OW17667   5.086   3.411  10.641
71943SOL    HW117668   5.145   3.344  10.608
71943SOL    HW217669   5.133   3.493  10.628
71944SOL     OW17670  11.752   5.217   6.309
71944SOL    HW117671  11.672   5.170   6.285
71944SOL    HW217672  11.726   5.275   6.380
71945SOL     OW17673  13.218  11.696   4.075
71945SOL    HW117674  13.288  11.633   4.057
71945SOL    HW217675  13.259  11.782   4.066
71946SOL     OW17676   6.181   3.913   5.829
71946SOL    HW117677   6.257   3.864   5.862
71946SOL    HW217678   6.181   3.897   5.735
71947SOL     OW17679  11.106   5.918   5.589
71947SOL    HW117680  11.044   5.991   5.597
71947SOL    HW217681  11.095   5.887   5.499
71948SOL     OW17682  10.924   4.235   2.315
71948SOL    HW117683  10.829   4.249   2.324
71948SOL    HW217684  10.941   4.153   2.361
71949SOL     OW17685  11.481   2.378   9.288
71949SOL    HW117686  11.434   2.357   9.207
71949SOL    HW217687  11.441   2.459   9.319
71950SOL     OW17688   0.841   4.197  12.893
71950SOL    HW117689   0.927   4.230  12.869
71950SOL    HW217690   0.818   4.136  12.822
71951SOL     OW17691  11.746  12.410   5.105
71951SOL    HW117692  11.763  12.494   5.064
71951SOL    HW217693  11.665  12.379   5.065
71952SOL     OW17694   3.672  14.418   4.250
71952SOL    HW117695   3.638  14.361   4.182
71952SOL    HW217696   3.761  14.439   4.221
71953SOL     OW17697  12.762   6.238   0.568
71953SOL    HW117698  12.706   6.184   0.625
71953SOL    HW217699  12.701   6.290   0.516
71954SOL     OW17700  13.245   1.553   5.060
71954SOL    HW117701  13.285   1.564   4.973
71954SOL    HW217702  13.179   1.486   5.048
71955SOL     OW17703   9.120   3.761   3.051
71955SOL    HW117704   9.136   3.805   3.134
71955SOL    HW217705   9.067   3.822   3.001
71956SOL     OW17706  14.655  13.405   9.716
71956SOL    HW117707  14.613  13.488   9.695
71956SOL    HW217708  14.583  13.341   9.712
71957SOL     OW17709   7.542   5.309   9.047
71957SOL    HW117710   7.552   5.300   8.952
71957SOL    HW217711   7.620   5.267   9.083
71958SOL     OW17712  10.254  14.047   0.657
71958SOL    HW117713  10.245  14.071   0.749
71958SOL    HW217714  10.171  14.005   0.635
71959SOL     OW17715   9.604   5.118   5.524
71959SOL    HW117716   9.603   5.209   5.494
71959SOL    HW217717   9.688   5.084   5.491
71960SOL     OW17718   7.108   6.739   0.092
71960SOL    HW117719   7.126   6.713   0.001
71960SOL    HW217720   7.191   6.774   0.124
71961SOL     OW17721   9.580   6.713  12.477
71961SOL    HW117722   9.497   6.680  12.511
71961SOL    HW217723   9.556   6.791  12.427
71962SOL     OW17724   4.085  12.142   3.118
71962SOL    HW117725   4.057  12.056   3.150
71962SOL    HW217726   4.003  12.192   3.112
71963SOL     OW17727   8.533  10.579  12.232
71963SOL    HW117728   8.560  10.650  12.174
71963SOL    HW217729   8.462  10.535  12.186
71964SOL     OW17730   9.651  12.502  13.711
71964SOL    HW117731   9.575  12.551  13.681
71964SOL    HW217732   9.643  12.500  13.806
71965SOL     OW17733   4.125   0.183  13.345
71965SOL    HW117734   4.159   0.211  13.259
71965SOL    HW217735   4.031   0.203  13.340
71966SOL     OW17736  14.847  14.217  11.848
71966SOL    HW117737  14.790  14.146  11.818
71966SOL    HW217738  14.870  14.265  11.769
71967SOL     OW17739   4.148  10.080   9.115
71967SOL    HW117740   4.185  10.057   9.200
71967SOL    HW217741   4.160  10.002   9.062
71968SOL     OW17742   6.258  10.875   8.555
71968SOL    HW117743   6.276  10.947   8.615
71968SOL    HW217744   6.300  10.799   8.595
71969SOL     OW17745   7.452  13.237   2.681
71969SOL    HW117746   7.396  13.189   2.620
71969SOL    HW217747   7.407  13.320   2.694
71970SOL     OW17748   7.040  13.936  11.874
71970SOL    HW117749   6.998  13.913  11.791
71970SOL    HW217750   7.000  14.020  11.898
71971SOL     OW17751   2.652   2.365  10.182
71971SOL    HW117752   2.570   2.351  10.231
71971SOL    HW217753   2.678   2.277  10.155
71972SOL     OW17754  14.462   5.646  14.824
71972SOL    HW117755  14.431   5.725  14.780
71972SOL    HW217756  14.479   5.675   0.037
71973SOL     OW17757   9.191   7.920  11.335
71973SOL    HW117758   9.099   7.936  11.354
71973SOL    HW217759   9.227   8.007  11.317
71974SOL     OW17760   9.965   6.887   3.379
71974SOL    HW117761   9.899   6.836   3.333
71974SOL    HW217762   9.953   6.863   3.471
71975SOL     OW17763   1.714   7.099   2.310
71975SOL    HW117764   1.696   7.029   2.372
71975SOL    HW217765   1.784   7.150   2.350
71976SOL     OW17766   6.091  11.530  13.529
71976SOL    HW117767   6.135  11.531  13.614
71976SOL    HW217768   6.005  11.568  13.545
71977SOL     OW17769  13.818  12.599   3.961
71977SOL    HW117770  13.842  12.508   3.943
71977SOL    HW217771  13.777  12.596   4.047
71978SOL     OW17772   7.265   3.001   9.423
71978SOL    HW117773   7.268   2.905   9.423
71978SOL    HW217774   7.185   3.022   9.471
71979SOL     OW17775   5.646  13.161  11.977
71979SOL    HW117776   5.714  13.201  11.923
71979SOL    HW217777   5.581  13.129  11.914
71980SOL     OW17778   0.341   5.081  13.170
71980SOL    HW117779   0.356   5.163  13.219
71980SOL    HW217780   0.427   5.039  13.168
71981SOL     OW17781   0.756   5.450  10.252
71981SOL    HW117782   0.798   5.505  10.186
71981SOL    HW217783   0.665   5.443  10.223
71982SOL     OW17784   5.721   2.004   1.838
71982SOL    HW117785   5.805   1.964   1.859
71982SOL    HW217786   5.727   2.093   1.871
71983SOL     OW17787   6.655   2.486   3.964
71983SOL    HW117788   6.699   2.427   3.902
71983SOL    HW217789   6.689   2.459   4.050
71984SOL     OW17790   8.856   9.937  14.126
71984SOL    HW117791   8.820   9.952  14.038
71984SOL    HW217792   8.779   9.915  14.179
71985SOL     OW17793   9.565   6.049   8.088
71985SOL    HW117794   9.589   6.128   8.135
71985SOL    HW217795   9.469   6.051   8.085
71986SOL     OW17796   0.117   9.952  10.206
71986SOL    HW117797   0.161   9.999  10.277
71986SOL    HW217798   0.189   9.917  10.153
71987SOL     OW17799   4.591  14.259  12.815
71987SOL    HW117800   4.623  14.253  12.725
71987SOL    HW217801   4.503  14.296  12.807
71988SOL     OW17802   3.448   0.023  11.113
71988SOL    HW117803   3.419   0.111  11.088
71988SOL    HW217804   3.413   0.010  11.201
71989SOL     OW17805  14.851   8.830   6.438
71989SOL    HW117806  14.818   8.804   6.352
71989SOL    HW217807   0.060   8.788   6.445
71990SOL     OW17808   8.162  13.265   6.297
71990SOL    HW117809   8.119  13.336   6.250
71990SOL    HW217810   8.122  13.185   6.262
71991SOL     OW17811   5.789   4.963  11.778
71991SOL    HW117812   5.737   5.031  11.734
71991SOL    HW217813   5.848   4.931  11.710
71992SOL     OW17814   0.166  12.845   7.178
71992SOL    HW117815   0.194  12.884   7.095
71992SOL    HW217816   0.149  12.753   7.158
71993SOL     OW17817   6.668   1.650   2.330
71993SOL    HW117818   6.712   1.574   2.367
71993SOL    HW217819   6.627   1.693   2.405
71994SOL     OW17820  10.599   5.628  13.558
71994SOL    HW117821  10.509   5.634  13.527
71994SOL    HW217822  10.650   5.604  13.481
71995SOL     OW17823   3.866   3.572   7.861
71995SOL    HW117824   3.954   3.559   7.895
71995SOL    HW217825   3.852   3.666   7.867
71996SOL     OW17826  12.137   8.259   6.548
71996SOL    HW117827  12.194   8.183   6.557
71996SOL    HW217828  12.133   8.297   6.636
71997SOL     OW17829   0.166  14.872  13.381
71997SOL    HW117830   0.137  14.829  13.301
71997SOL    HW217831   0.262  14.865  13.379
71998SOL     OW17832  11.571   1.957   1.373
71998SOL    HW117833  11.584   2.000   1.289
71998SOL    HW217834  11.510   1.885   1.355
71999SOL     OW17835   2.375   1.649  11.942
71999SOL    HW117836   2.461   1.636  11.982
71999SOL    HW217837   2.327   1.569  11.964
72000SOL     OW17838   3.285   2.956  14.737
72000SOL    HW117839   3.374   2.922  14.732
72000SOL    HW217840   3.270   2.996  14.651
72001SOL     OW17841   6.308   7.314   7.755
72001SOL    HW117842   6.255   7.285   7.829
72001SOL    HW217843   6.285   7.254   7.684
72002SOL     OW17844   8.308   3.330   1.242
72002SOL    HW117845   8.232   3.378   1.275
72002SOL    HW217846   8.353   3.299   1.321
72003SOL     OW17847   8.381   9.888   8.909
72003SOL    HW117848   8.432   9.825   8.858
72003SOL    HW217849   8.301   9.900   8.858
72004SOL     OW17850   6.922   5.271   7.257
72004SOL    HW117851   7.001   5.224   7.287
72004SOL    HW217852   6.935   5.280   7.162
72005SOL     OW17853   7.559   1.079   8.170
72005SOL    HW117854   7.534   0.996   8.210
72005SOL    HW217855   7.521   1.146   8.228
72006SOL     OW17856  10.499  11.375   3.435
72006SOL    HW117857  10.504  11.462   3.476
72006SOL    HW217858  10.434  11.328   3.486
72007SOL     OW17859   3.132   7.069  12.312
72007SOL    HW117860   3.112   6.991  12.362
72007SOL    HW217861   3.224   7.057  12.285
72008SOL     OW17862   1.317   3.447  14.856
72008SOL    HW117863   1.335   3.446   0.074
72008SOL    HW217864   1.227   3.476  14.849
72009SOL     OW17865   8.455   6.585  13.981
72009SOL    HW117866   8.466   6.636  14.061
72009SOL    HW217867   8.544   6.561  13.956
72010SOL     OW17868   8.679   3.119   2.823
72010SOL    HW117869   8.678   3.196   2.880
72010SOL    HW217870   8.766   3.081   2.833
72011SOL     OW17871  13.299   1.165  13.639
72011SOL    HW117872  13.221   1.211  13.670
72011SOL    HW217873  13.276   1.072  13.644
72012SOL     OW17874  11.483   4.613   5.333
72012SOL    HW117875  11.423   4.563   5.277
72012SOL    HW217876  11.570   4.594   5.297
72013SOL     OW17877   9.744   2.024  10.144
72013SOL    HW117878   9.707   1.970  10.214
72013SOL    HW217879   9.780   2.100  10.189
72014SOL     OW17880   3.752  11.626   3.562
72014SOL    HW117881   3.731  11.609   3.654
72014SOL    HW217882   3.846  11.612   3.556
72015SOL     OW17883   3.313   7.402  13.591
72015SOL    HW117884   3.325   7.319  13.637
72015SOL    HW217885   3.286   7.377  13.502
72016SOL     OW17886   8.403  13.342   7.572
72016SOL    HW117887   8.367  13.421   7.532
72016SOL    HW217888   8.482  13.372   7.617
72017SOL     OW17889   8.116   7.559   2.860
72017SOL    HW117890   8.073   7.622   2.802
72017SOL    HW217891   8.206   7.590   2.867
72018SOL     OW17892   6.169   5.540   5.140
72018SOL    HW117893   6.148   5.570   5.229
72018SOL    HW217894   6.084   5.521   5.100
72019SOL     OW17895   2.296   7.149   3.613
72019SOL    HW117896   2.267   7.057   3.606
72019SOL    HW217897   2.222   7.200   3.580
72020SOL     OW17898  10.685   2.719   5.855
72020SOL    HW117899  10.613   2.721   5.918
72020SOL    HW217900  10.764   2.707   5.908
72021SOL     OW17901   8.577  10.130   7.833
72021SOL    HW117902   8.559  10.037   7.845
72021SOL    HW217903   8.512  10.159   7.769
72022SOL     OW17904  14.145   9.260   1.163
72022SOL    HW117905  14.184   9.271   1.250
72022SOL    HW217906  14.056   9.295   1.173
72023SOL     OW17907   8.751   3.211   2.356
72023SOL    HW117908   8.799   3.128   2.361
72023SOL    HW217909   8.720   3.216   2.266
72024SOL     OW17910  13.913   4.941  14.387
72024SOL    HW117911  13.978   4.871  14.385
72024SOL    HW217912  13.902   4.967  14.296
72025SOL     OW17913   4.596   0.433  14.522
72025SOL    HW117914   4.568   0.511  14.474
72025SOL    HW217915   4.579   0.360  14.462
72026SOL     OW17916  14.810   1.883  11.379
72026SOL    HW117917   0.029   1.884  11.378
72026SOL    HW217918  14.785   1.877  11.287
72027SOL     OW17919  13.333   4.915   2.501
72027SOL    HW117920  13.397   4.968   2.454
72027SOL    HW217921  13.324   4.958   2.586
72028SOL     OW17922   9.096   5.908  11.095
72028SOL    HW117923   9.099   5.887  11.001
72028SOL    HW217924   9.048   5.835  11.134
72029SOL     OW17925   1.770   9.944  13.535
72029SOL    HW117926   1.684   9.903  13.541
72029SOL    HW217927   1.830   9.872  13.517
72030SOL     OW17928  14.661   4.189  13.081
72030SOL    HW117929  14.630   4.195  12.991
72030SOL    HW217930  14.704   4.274  13.096
72031SOL     OW17931   3.685   5.644  12.989
72031SOL    HW117932   3.607   5.689  12.955
72031SOL    HW217933   3.710   5.583  12.920
72032SOL     OW17934  11.724  14.319  13.630
72032SOL    HW117935  11.643  14.346  13.586
72032SOL    HW217936  11.760  14.250  13.575
72033SOL     OW17937  12.952  13.658   1.841
72033SOL    HW117938  12.892  13.687   1.910
72033SOL    HW217939  12.901  13.595   1.790
72034SOL     OW17940   1.373  11.253  12.864
72034SOL    HW117941   1.422  11.320  12.817
72034SOL    HW217942   1.441  11.195  12.900
72035SOL     OW17943   0.567   8.644  13.626
72035SOL    HW117944   0.584   8.722  13.678
72035SOL    HW217945   0.501   8.596  13.677
72036SOL     OW17946   4.522   1.448  11.700
72036SOL    HW117947   4.531   1.543  11.708
72036SOL    HW217948   4.483   1.421  11.783
72037SOL     OW17949   5.514   9.573   8.341
72037SOL    HW117950   5.569   9.524   8.281
72037SOL    HW217951   5.575   9.624   8.394
72038SOL     OW17952   6.842   7.719   4.548
72038SOL    HW117953   6.868   7.717   4.640
72038SOL    HW217954   6.747   7.728   4.551
72039SOL     OW17955  14.085   1.118   8.277
72039SOL    HW117956  14.111   1.205   8.245
72039SOL    HW217957  14.023   1.136   8.347
72040SOL     OW17958  13.656   6.295   3.673
72040SOL    HW117959  13.691   6.297   3.762
72040SOL    HW217960  13.593   6.367   3.671
72041SOL     OW17961   4.488   3.092   1.788
72041SOL    HW117962   4.504   3.004   1.756
72041SOL    HW217963   4.392   3.100   1.790
72042SOL     OW17964   2.301  13.893   4.437
72042SOL    HW117965   2.331  13.824   4.379
72042SOL    HW217966   2.208  13.904   4.415
72043SOL     OW17967  10.342   0.895  13.840
72043SOL    HW117968  10.367   0.891  13.747
72043SOL    HW217969  10.424   0.882  13.887
72044SOL     OW17970   7.355  10.341   2.936
72044SOL    HW117971   7.296  10.314   2.866
72044SOL    HW217972   7.338  10.280   3.007
72045SOL     OW17973   6.310   3.278   9.826
72045SOL    HW117974   6.227   3.232   9.813
72045SOL    HW217975   6.285   3.358   9.872
72046SOL     OW17976   9.450  11.978  14.848
72046SOL    HW117977   9.374  12.010   0.021
72046SOL    HW217978   9.476  11.898   0.017
72047SOL     OW17979   0.144   3.580  12.431
72047SOL    HW117980   0.100   3.553  12.512
72047SOL    HW217981   0.196   3.503  12.406
72048SOL     OW17982   1.132  11.880   3.910
72048SOL    HW117983   1.198  11.826   3.866
72048SOL    HW217984   1.091  11.931   3.840
72049SOL     OW17985   3.185  12.532   7.332
72049SOL    HW117986   3.253  12.597   7.346
72049SOL    HW217987   3.111  12.581   7.295
72050SOL     OW17988   0.144   5.709   3.187
72050SOL    HW117989   0.193   5.728   3.267
72050SOL    HW217990   0.176   5.773   3.123
72051SOL     OW17991   3.393  10.560   7.207
72051SOL    HW117992   3.482  10.595   7.213
72051SOL    HW217993   3.344  10.626   7.158
72052SOL     OW17994  13.704   7.870   0.450
72052SOL    HW117995  13.756   7.926   0.394
72052SOL    HW217996  13.657   7.930   0.508
72053SOL     OW17997  12.592  13.981  10.877
72053SOL    HW117998  12.680  13.980  10.915
72053SOL    HW217999  12.533  13.981  10.953
72054SOL     OW18000   9.448   5.686   5.742
72054SOL    HW118001   9.421   5.773   5.712
72054SOL    HW218002   9.434   5.688   5.836
72055SOL     OW18003   6.220   4.193   5.324
72055SOL    HW118004   6.240   4.167   5.414
72055SOL    HW218005   6.300   4.176   5.275
72056SOL     OW18006   1.996  14.661   6.515
72056SOL    HW118007   2.039  14.668   6.430
72056SOL    HW218008   1.941  14.739   6.521
72057SOL     OW18009  14.763   2.685   1.048
72057SOL    HW118010  14.775   2.591   1.065
72057SOL    HW218011  14.851   2.721   1.052
72058SOL     OW18012   1.230   6.209   9.777
72058SOL    HW118013   1.324   6.220   9.796
72058SOL    HW218014   1.186   6.262   9.844
72059SOL     OW18015   6.117  13.871  12.440
72059SOL    HW118016   6.149  13.818  12.367
72059SOL    HW218017   6.033  13.904  12.411
72060SOL     OW18018  13.820   9.649  11.035
72060SOL    HW118019  13.736   9.603  11.031
72060SOL    HW218020  13.885   9.580  11.022
72061SOL     OW18021   9.451  11.541   4.510
72061SOL    HW118022   9.529  11.592   4.488
72061SOL    HW218023   9.378  11.597   4.485
72062SOL     OW18024  13.556   7.629  13.900
72062SOL    HW118025  13.578   7.722  13.892
72062SOL    HW218026  13.473   7.620  13.854
72063SOL     OW18027  10.989   5.089   8.817
72063SOL    HW118028  11.054   5.033   8.773
72063SOL    HW218029  10.970   5.045   8.899
72064SOL     OW18030   7.394  13.916   9.510
72064SOL    HW118031   7.474  13.902   9.560
72064SOL    HW218032   7.391  13.843   9.448
72065SOL     OW18033   5.955   8.477   5.772
72065SOL    HW118034   5.978   8.562   5.734
72065SOL    HW218035   6.039   8.436   5.791
72066SOL     OW18036   1.348  14.247   8.218
72066SOL    HW118037   1.443  14.239   8.211
72066SOL    HW218038   1.333  14.341   8.224
72067SOL     OW18039  10.752  14.119   9.850
72067SOL    HW118040  10.657  14.108   9.859
72067SOL    HW218041  10.764  14.212   9.833
72068SOL     OW18042   9.006   9.859   4.697
72068SOL    HW118043   8.921   9.896   4.670
72068SOL    HW218044   9.068   9.894   4.634
72069SOL     OW18045  13.859  12.384  12.759
72069SOL    HW118046  13.846  12.395  12.665
72069SOL    HW218047  13.787  12.327  12.786
72070SOL     OW18048   9.119   0.552   2.908
72070SOL    HW118049   9.206   0.544   2.870
72070SOL    HW218050   9.060   0.535   2.834
72071SOL     OW18051  14.505   2.594   1.290
72071SOL    HW118052  14.438   2.541   1.247
72071SOL    HW218053  14.511   2.673   1.236
72072SOL     OW18054  12.546  11.131   6.751
72072SOL    HW118055  12.542  11.049   6.801
72072SOL    HW218056  12.551  11.199   6.817
72073SOL     OW18057   0.027   5.299   9.992
72073SOL    HW118058   0.087   5.260   9.928
72073SOL    HW218059  14.856   5.224  10.028
72074SOL     OW18060   8.001  14.302   3.721
72074SOL    HW118061   8.035  14.222   3.760
72074SOL    HW218062   7.955  14.346   3.793
72075SOL     OW18063   5.803   0.935  11.577
72075SOL    HW118064   5.780   0.864  11.638
72075SOL    HW218065   5.720   0.955  11.533
72076SOL     OW18066   1.698  12.478   3.035
72076SOL    HW118067   1.739  12.480   2.948
72076SOL    HW218068   1.747  12.543   3.086
72077SOL     OW18069  12.969   9.180   7.992
72077SOL    HW118070  12.938   9.263   7.955
72077SOL    HW218071  13.042   9.154   7.935
72078SOL     OW18072   9.255  12.925   2.755
72078SOL    HW118073   9.310  12.849   2.775
72078SOL    HW218074   9.268  12.984   2.829
72079SOL     OW18075   1.672   9.108   3.396
72079SOL    HW118076   1.717   9.188   3.367
72079SOL    HW218077   1.587   9.139   3.425
72080SOL     OW18078   1.187   2.606   2.344
72080SOL    HW118079   1.277   2.632   2.325
72080SOL    HW218080   1.181   2.605   2.439
72081SOL     OW18081   3.504   4.824   5.142
72081SOL    HW118082   3.474   4.733   5.152
72081SOL    HW218083   3.550   4.844   5.224
72082SOL     OW18084  13.546  12.486   0.302
72082SOL    HW118085  13.495  12.409   0.280
72082SOL    HW218086  13.578  12.470   0.390
72083SOL     OW18087   7.475   8.321   7.068
72083SOL    HW118088   7.506   8.258   7.003
72083SOL    HW218089   7.382   8.301   7.079
72084SOL     OW18090  10.551  10.241   9.042
72084SOL    HW118091  10.485  10.309   9.025
72084SOL    HW218092  10.546  10.185   8.965
72085SOL     OW18093  10.274   5.737   4.235
72085SOL    HW118094  10.346   5.683   4.268
72085SOL    HW218095  10.198   5.680   4.237
72086SOL     OW18096  12.461  13.218   7.158
72086SOL    HW118097  12.533  13.240   7.217
72086SOL    HW218098  12.489  13.252   7.073
72087SOL     OW18099   7.691  11.378  14.462
72087SOL    HW118100   7.620  11.337  14.511
72087SOL    HW218101   7.749  11.414  14.529
72088SOL     OW18102  10.152   7.295   0.338
72088SOL    HW118103  10.211   7.312   0.412
72088SOL    HW218104  10.209   7.295   0.261
72089SOL     OW18105   9.364  14.680   3.172
72089SOL    HW118106   9.287  14.719   3.213
72089SOL    HW218107   9.437  14.735   3.200
72090SOL     OW18108  10.847   2.519   4.428
72090SOL    HW118109  10.906   2.554   4.495
72090SOL    HW218110  10.887   2.546   4.345
72091SOL     OW18111  13.686   1.570  14.413
72091SOL    HW118112  13.675   1.665  14.423
72091SOL    HW218113  13.748   1.547  14.482
72092SOL     OW18114   1.894   1.681   3.644
72092SOL    HW118115   1.805   1.699   3.673
72092SOL    HW218116   1.942   1.763   3.657
72093SOL     OW18117   9.501  13.261  11.555
72093SOL    HW118118   9.413  13.296  11.573
72093SOL    HW218119   9.517  13.199  11.626
72094SOL     OW18120   8.844   8.530   5.548
72094SOL    HW118121   8.798   8.612   5.529
72094SOL    HW218122   8.863   8.535   5.642
72095SOL     OW18123   1.124   1.167   3.870
72095SOL    HW118124   1.137   1.214   3.787
72095SOL    HW218125   1.198   1.107   3.875
72096SOL     OW18126   8.965   6.537   0.677
72096SOL    HW118127   8.958   6.528   0.582
72096SOL    HW218128   8.946   6.629   0.694
72097SOL     OW18129  11.196   9.566   9.379
72097SOL    HW118130  11.167   9.497   9.439
72097SOL    HW218131  11.118   9.586   9.327
72098SOL     OW18132  11.303   9.065  10.806
72098SOL    HW118133  11.303   9.094  10.715
72098SOL    HW218134  11.390   9.086  10.839
72099SOL     OW18135  12.348   3.582  11.538
72099SOL    HW118136  12.363   3.498  11.495
72099SOL    HW218137  12.254   3.583  11.557
72100SOL     OW18138   2.669   1.780  10.168
72100SOL    HW118139   2.721   1.706  10.136
72100SOL    HW218140   2.607   1.741  10.230
72101SOL     OW18141   7.467  11.660  10.171
72101SOL    HW118142   7.483  11.748  10.205
72101SOL    HW218143   7.551  11.615  10.183
72102SOL     OW18144  11.430   3.331  13.994
72102SOL    HW118145  11.462   3.241  13.987
72102SOL    HW218146  11.355   3.325  14.055
72103SOL     OW18147  11.491   1.928   8.686
72103SOL    HW118148  11.402   1.950   8.660
72103SOL    HW218149  11.547   1.980   8.628
72104SOL     OW18150   3.023   7.916   9.805
72104SOL    HW118151   3.073   7.834   9.801
72104SOL    HW218152   2.956   7.900   9.871
72105SOL     OW18153   3.567   7.711   0.956
72105SOL    HW118154   3.631   7.659   0.908
72105SOL    HW218155   3.486   7.660   0.950
72106SOL     OW18156   1.065  12.394   5.090
72106SOL    HW118157   1.101  12.334   5.025
72106SOL    HW218158   1.139  12.448   5.116
72107SOL     OW18159  12.389  14.098   3.289
72107SOL    HW118160  12.320  14.050   3.336
72107SOL    HW218161  12.379  14.071   3.198
72108SOL     OW18162   3.026   1.965   3.821
72108SOL    HW118163   3.027   2.023   3.745
72108SOL    HW218164   2.939   1.925   3.820
72109SOL     OW18165   2.195   5.735   9.004
72109SOL    HW118166   2.154   5.787   8.935
72109SOL    HW218167   2.121   5.698   9.052
72110SOL     OW18168   3.012   1.017   7.817
72110SOL    HW118169   2.966   0.937   7.791
72110SOL    HW218170   2.960   1.087   7.778
72111SOL     OW18171  12.603  14.242   3.644
72111SOL    HW118172  12.588  14.277   3.556
72111SOL    HW218173  12.681  14.187   3.635
72112SOL     OW18174  12.190  12.087   2.235
72112SOL    HW118175  12.167  12.023   2.302
72112SOL    HW218176  12.283  12.105   2.250
72113SOL     OW18177   0.365   3.848   3.025
72113SOL    HW118178   0.394   3.938   3.035
72113SOL    HW218179   0.303   3.835   3.097
72114SOL     OW18180  10.200   7.967  14.029
72114SOL    HW118181  10.219   7.983  13.937
72114SOL    HW218182  10.164   7.879  14.032
72115SOL     OW18183   6.603   0.992   0.391
72115SOL    HW118184   6.681   0.937   0.389
72115SOL    HW218185   6.595   1.019   0.483
72116SOL     OW18186   6.473  10.030   7.044
72116SOL    HW118187   6.390  10.044   6.999
72116SOL    HW218188   6.449  10.025   7.137
72117SOL     OW18189   5.648   0.660  13.566
72117SOL    HW118190   5.655   0.615  13.650
72117SOL    HW218191   5.717   0.726  13.568
72118SOL     OW18192  11.673   6.857   7.975
72118SOL    HW118193  11.600   6.864   8.037
72118SOL    HW218194  11.746   6.902   8.018
72119SOL     OW18195   0.975  13.393   1.574
72119SOL    HW118196   0.924  13.381   1.494
72119SOL    HW218197   1.056  13.345   1.558
72120SOL     OW18198   4.752  10.173  11.750
72120SOL    HW118199   4.690  10.243  11.770
72120SOL    HW218200   4.801  10.160  11.831
72121SOL     OW18201   5.756   9.332  10.924
72121SOL    HW118202   5.807   9.386  10.863
72121SOL    HW218203   5.820   9.271  10.961
72122SOL     OW18204  12.189   6.266  11.402
72122SOL    HW118205  12.151   6.251  11.488
72122SOL    HW218206  12.123   6.234  11.341
72123SOL     OW18207   8.630  12.499  11.713
72123SOL    HW118208   8.642  12.589  11.742
72123SOL    HW218209   8.716  12.458  11.723
72124SOL     OW18210   5.099  11.595  14.181
72124SOL    HW118211   5.087  11.529  14.113
72124SOL    HW218212   5.052  11.672  14.148
72125SOL     OW18213   9.501   1.606   6.744
72125SOL    HW118214   9.567   1.644   6.686
72125SOL    HW218215   9.470   1.680   6.796
72126SOL     OW18216   6.066  13.165  13.036
72126SOL    HW118217   5.976  13.190  13.057
72126SOL    HW218218   6.099  13.237  12.983
72127SOL     OW18219   1.463  13.062  10.246
72127SOL    HW118220   1.513  13.105  10.315
72127SOL    HW218221   1.373  13.062  10.278
72128SOL     OW18222   7.110   4.148   1.906
72128SOL    HW118223   7.135   4.213   1.971
72128SOL    HW218224   7.066   4.198   1.838
72129SOL     OW18225   1.781  10.843   7.158
72129SOL    HW118226   1.859  10.875   7.205
72129SOL    HW218227   1.721  10.815   7.227
72130SOL     OW18228  14.081   1.884  12.875
72130SOL    HW118229  14.008   1.912  12.820
72130SOL    HW218230  14.049   1.807  12.922
72131SOL     OW18231   9.025   3.376  11.166
72131SOL    HW118232   9.109   3.350  11.202
72131SOL    HW218233   8.970   3.297  11.173
72132SOL     OW18234  12.161   2.497   9.607
72132SOL    HW118235  12.172   2.485   9.701
72132SOL    HW218236  12.247   2.529   9.577
72133SOL     OW18237  13.400   1.507  10.328
72133SOL    HW118238  13.334   1.553  10.276
72133SOL    HW218239  13.417   1.427  10.278
72134SOL     OW18240   1.491   7.458   0.291
72134SOL    HW118241   1.402   7.485   0.269
72134SOL    HW218242   1.531   7.538   0.327
72135SOL     OW18243   1.548   7.780   1.721
72135SOL    HW118244   1.556   7.688   1.748
72135SOL    HW218245   1.615   7.826   1.772
72136SOL     OW18246  13.334  12.131   5.894
72136SOL    HW118247  13.277  12.203   5.922
72136SOL    HW218248  13.304  12.110   5.805
72137SOL     OW18249  11.465  14.148  12.420
72137SOL    HW118250  11.535  14.090  12.449
72137SOL    HW218251  11.403  14.150  12.494
72138SOL     OW18252   0.195   6.637   9.724
72138SOL    HW118253   0.227   6.653   9.813
72138SOL    HW218254   0.194   6.541   9.717
72139SOL     OW18255   7.221   7.530  11.429
72139SOL    HW118256   7.159   7.567  11.365
72139SOL    HW218257   7.177   7.543  11.513
72140SOL     OW18258   0.781  11.210   7.708
72140SOL    HW118259   0.806  11.118   7.718
72140SOL    HW218260   0.728  11.212   7.629
72141SOL     OW18261  12.544   5.908  10.024
72141SOL    HW118262  12.554   5.904   9.929
72141SOL    HW218263  12.452   5.888  10.039
72142SOL     OW18264   5.697   1.914   7.682
72142SOL    HW118265   5.754   1.837   7.684
72142SOL    HW218266   5.652   1.912   7.767
72143SOL     OW18267  10.275   1.303   6.227
72143SOL    HW118268  10.181   1.287   6.222
72143SOL    HW218269  10.287   1.388   6.184
72144SOL     OW18270   3.118   2.412   2.914
72144SOL    HW118271   3.049   2.429   2.978
72144SOL    HW218272   3.128   2.317   2.914
72145SOL     OW18273  13.378  10.244   0.042
72145SOL    HW118274  13.354  10.176   0.105
72145SOL    HW218275  13.347  10.325   0.082
72146SOL     OW18276   4.323  14.168   4.825
72146SOL    HW118277   4.300  14.076   4.836
72146SOL    HW218278   4.416  14.173   4.849
72147SOL     OW18279   1.141   1.271   5.160
72147SOL    HW118280   1.168   1.353   5.201
72147SOL    HW218281   1.204   1.206   5.191
72148SOL     OW18282   0.967   2.963   9.643
72148SOL    HW118283   0.997   3.052   9.663
72148SOL    HW218284   1.003   2.944   9.557
72149SOL     OW18285   0.636  10.341  12.735
72149SOL    HW118286   0.541  10.351  12.728
72149SOL    HW218287   0.653  10.252  12.704
72150SOL     OW18288   7.259   1.137   7.837
72150SOL    HW118289   7.189   1.078   7.866
72150SOL    HW218290   7.283   1.186   7.915
72151SOL     OW18291   0.951   5.842   6.158
72151SOL    HW118292   1.024   5.895   6.124
72151SOL    HW218293   0.873   5.879   6.117
72152SOL     OW18294   4.457   8.460   2.744
72152SOL    HW118295   4.547   8.489   2.761
72152SOL    HW218296   4.413   8.538   2.710
72153SOL     OW18297   4.923   9.039  10.378
72153SOL    HW118298   4.919   9.132  10.401
72153SOL    HW218299   4.858   9.028  10.309
72154SOL     OW18300  11.239  12.594  14.546
72154SOL    HW118301  11.313  12.535  14.560
72154SOL    HW218302  11.163  12.536  14.545
72155SOL     OW18303   6.993   2.142  13.346
72155SOL    HW118304   7.029   2.056  13.367
72155SOL    HW218305   7.068   2.201  13.348
72156SOL     OW18306   0.034  11.455   6.688
72156SOL    HW118307  14.820  11.452   6.718
72156SOL    HW218308   0.050  11.368   6.651
72157SOL     OW18309   1.124  10.285  13.269
72157SOL    HW118310   1.177  10.331  13.334
72157SOL    HW218311   1.134  10.338  13.189
72158SOL     OW18312  12.531   4.227   7.881
72158SOL    HW118313  12.572   4.313   7.874
72158SOL    HW218314  12.559   4.193   7.966
72159SOL     OW18315   3.004   9.884   3.477
72159SOL    HW118316   3.030   9.909   3.389
72159SOL    HW218317   2.916   9.919   3.487
72160SOL     OW18318   0.303   8.012  13.083
72160SOL    HW118319   0.308   7.970  13.169
72160SOL    HW218320   0.313   8.105  13.102
72161SOL     OW18321   4.373   8.160   7.114
72161SOL    HW118322   4.429   8.211   7.172
72161SOL    HW218323   4.284   8.189   7.135
72162SOL     OW18324   6.248   9.639   6.084
72162SOL    HW118325   6.191   9.585   6.029
72162SOL    HW218326   6.336   9.603   6.069
72163SOL     OW18327   4.333   6.107   7.090
72163SOL    HW118328   4.418   6.100   7.047
72163SOL    HW218329   4.284   6.169   7.037
72164SOL     OW18330   0.765   2.922   0.072
72164SOL    HW118331   0.703   2.892   0.005
72164SOL    HW218332   0.714   2.980   0.128
72165SOL     OW18333   5.865   8.991  14.544
72165SOL    HW118334   5.777   8.997  14.583
72165SOL    HW218335   5.877   9.074  14.499
72166SOL     OW18336  10.502   2.281   5.456
72166SOL    HW118337  10.468   2.203   5.412
72166SOL    HW218338  10.424   2.333   5.476
72167SOL     OW18339   7.316   6.513  14.453
72167SOL    HW118340   7.388   6.497  14.514
72167SOL    HW218341   7.310   6.433  14.401
72168SOL     OW18342   0.918   7.974   1.063
72168SOL    HW118343   0.996   7.974   1.007
72168SOL    HW218344   0.855   7.919   1.016
72169SOL     OW18345   2.429  13.820   6.941
72169SOL    HW118346   2.428  13.750   7.007
72169SOL    HW218347   2.480  13.890   6.982
72170SOL     OW18348   4.879   1.574   3.489
72170SOL    HW118349   4.930   1.537   3.561
72170SOL    HW218350   4.933   1.646   3.456
72171SOL     OW18351   9.151  13.525  12.957
72171SOL    HW118352   9.213  13.590  12.988
72171SOL    HW218353   9.067  13.553  12.994
72172SOL     OW18354  14.305   1.668   3.347
72172SOL    HW118355  14.257   1.621   3.279
72172SOL    HW218356  14.266   1.756   3.347
72173SOL     OW18357  14.228   3.051   6.389
72173SOL    HW118358  14.199   2.961   6.406
72173SOL    HW218359  14.181   3.077   6.311
72174SOL     OW18360  10.271  11.187   8.418
72174SOL    HW118361  10.193  11.163   8.468
72174SOL    HW218362  10.290  11.109   8.365
72175SOL     OW18363  11.010  11.606   1.640
72175SOL    HW118364  11.096  11.644   1.627
72175SOL    HW218365  10.962  11.670   1.693
72176SOL     OW18366   2.778   1.055  10.021
72176SOL    HW118367   2.773   0.979   9.962
72176SOL    HW218368   2.761   1.130   9.964
72177SOL     OW18369   9.102   5.976   5.425
72177SOL    HW118370   9.126   6.034   5.497
72177SOL    HW218371   9.030   6.022   5.380
72178SOL     OW18372   4.639   8.688  13.950
72178SOL    HW118373   4.717   8.652  13.992
72178SOL    HW218374   4.626   8.773  13.993
72179SOL     OW18375   5.667  11.536   5.630
72179SOL    HW118376   5.686  11.581   5.548
72179SOL    HW218377   5.572  11.520   5.627
72180SOL     OW18378   3.382  10.866   9.199
72180SOL    HW118379   3.347  10.878   9.111
72180SOL    HW218380   3.308  10.884   9.257
72181SOL     OW18381   7.921   2.910   7.867
72181SOL    HW118382   7.919   3.004   7.850
72181SOL    HW218383   7.982   2.901   7.940
72182SOL     OW18384   2.877   9.097   5.544
72182SOL    HW118385   2.844   9.149   5.617
72182SOL    HW218386   2.801   9.050   5.511
72183SOL     OW18387   4.995  11.874   5.853
72183SOL    HW118388   4.969  11.849   5.942
72183SOL    HW218389   4.969  11.966   5.845
72184SOL     OW18390  13.856  11.519   4.988
72184SOL    HW118391  13.881  11.607   4.961
72184SOL    HW218392  13.935  11.467   4.977
72185SOL     OW18393   4.883   1.211  12.631
72185SOL    HW118394   4.838   1.285  12.590
72185SOL    HW218395   4.971   1.242  12.651
72186SOL     OW18396  11.339  10.162   3.232
72186SOL    HW118397  11.272  10.228   3.216
72186SOL    HW218398  11.359  10.170   3.325
72187SOL     OW18399   5.782  11.744  12.002
72187SOL    HW118400   5.784  11.659  12.045
72187SOL    HW218401   5.810  11.727  11.912
72188SOL     OW18402   9.667   9.196   7.212
72188SOL    HW118403   9.676   9.149   7.130
72188SOL    HW218404   9.733   9.158   7.269
72189SOL     OW18405   4.235   3.533   7.604
72189SOL    HW118406   4.280   3.536   7.689
72189SOL    HW218407   4.187   3.616   7.600
72190SOL     OW18408   5.753   0.385   6.362
72190SOL    HW118409   5.810   0.321   6.404
72190SOL    HW218410   5.741   0.454   6.428
72191SOL     OW18411   1.351   7.982   7.939
72191SOL    HW118412   1.292   7.950   7.871
72191SOL    HW218413   1.409   7.908   7.957
72192SOL     OW18414   9.541  14.665   8.264
72192SOL    HW118415   9.634  14.669   8.243
72192SOL    HW218416   9.539  14.647   8.358
72193SOL     OW18417  13.840   2.551  13.604
72193SOL    HW118418  13.848   2.475  13.546
72193SOL    HW218419  13.776   2.608  13.561
72194SOL     OW18420   9.249   4.889   4.203
72194SOL    HW118421   9.301   4.899   4.283
72194SOL    HW218422   9.198   4.970   4.198
72195SOL     OW18423   3.813   9.697  11.601
72195SOL    HW118424   3.866   9.685  11.522
72195SOL    HW218425   3.817   9.612  11.645
72196SOL     OW18426   9.265  11.726   2.473
72196SOL    HW118427   9.291  11.696   2.560
72196SOL    HW218428   9.301  11.660   2.413
72197SOL     OW18429   5.851   9.486  11.237
72197SOL    HW118430   5.900   9.454  11.313
72197SOL    HW218431   5.919   9.509  11.173
72198SOL     OW18432   4.741   8.543  11.326
72198SOL    HW118433   4.798   8.577  11.257
72198SOL    HW218434   4.700   8.466  11.287
72199SOL     OW18435  11.533   0.927   0.843
72199SOL    HW118436  11.575   0.981   0.776
72199SOL    HW218437  11.511   0.845   0.799
72200SOL     OW18438  14.007   3.081   1.790
72200SOL    HW118439  14.052   2.998   1.773
72200SOL    HW218440  13.960   3.100   1.710
72201SOL     OW18441   3.030   5.450  11.734
72201SOL    HW118442   3.019   5.544  11.749
72201SOL    HW218443   3.087   5.444  11.658
72202SOL     OW18444   2.478   7.691  14.180
72202SOL    HW118445   2.411   7.667  14.245
72202SOL    HW218446   2.556   7.642  14.207
72203SOL     OW18447  11.791   2.618   2.776
72203SOL    HW118448  11.823   2.542   2.824
72203SOL    HW218449  11.808   2.597   2.684
72204SOL     OW18450   5.404   5.709  12.579
72204SOL    HW118451   5.365   5.750  12.503
72204SOL    HW218452   5.498   5.728  12.571
72205SOL     OW18453   2.244   9.045   9.704
72205SOL    HW118454   2.244   9.125   9.652
72205SOL    HW218455   2.272   9.074   9.791
72206SOL     OW18456   2.252  12.134  13.604
72206SOL    HW118457   2.215  12.212  13.561
72206SOL    HW218458   2.329  12.167  13.651
72207SOL     OW18459   3.154   8.975   5.012
72207SOL    HW118460   3.110   8.988   4.928
72207SOL    HW218461   3.115   8.895   5.047
72208SOL     OW18462   6.519  10.526  14.209
72208SOL    HW118463   6.522  10.447  14.155
72208SOL    HW218464   6.552  10.498  14.295
72209SOL     OW18465  12.164  14.196  13.402
72209SOL    HW118466  12.212  14.265  13.357
72209SOL    HW218467  12.121  14.240  13.475
72210SOL     OW18468  11.947  11.229   0.915
72210SOL    HW118469  11.953  11.265   0.826
72210SOL    HW218470  11.881  11.160   0.909
72211SOL     OW18471  10.903   3.926  14.054
72211SOL    HW118472  10.998   3.922  14.040
72211SOL    HW218473  10.874   3.835  14.050
72212SOL     OW18474   0.267   5.502   6.249
72212SOL    HW118475   0.351   5.498   6.295
72212SOL    HW218476   0.206   5.537   6.315
72213SOL     OW18477   9.596   3.865  10.023
72213SOL    HW118478   9.616   3.949  10.063
72213SOL    HW218479   9.649   3.802  10.072
72214SOL     OW18480  13.231  14.466  11.913
72214SOL    HW118481  13.307  14.511  11.949
72214SOL    HW218482  13.219  14.390  11.970
72215SOL     OW18483   1.519   4.110   8.210
72215SOL    HW118484   1.460   4.131   8.138
72215SOL    HW218485   1.515   4.015   8.218
72216SOL     OW18486   0.534   8.038  11.871
72216SOL    HW118487   0.557   8.093  11.946
72216SOL    HW218488   0.615   7.992  11.849
72217SOL     OW18489  12.703   4.897   1.782
72217SOL    HW118490  12.771   4.910   1.716
72217SOL    HW218491  12.747   4.847   1.851
72218SOL     OW18492   6.373   3.684   6.595
72218SOL    HW118493   6.332   3.619   6.652
72218SOL    HW218494   6.324   3.765   6.611
72219SOL     OW18495  13.670  12.654  10.251
72219SOL    HW118496  13.677  12.658  10.346
72219SOL    HW218497  13.708  12.569  10.227
72220SOL     OW18498   0.974   3.784   6.307
72220SOL    HW118499   0.939   3.740   6.230
72220SOL    HW218500   1.018   3.715   6.357
72221SOL     OW18501   2.523   0.089  14.257
72221SOL    HW118502   2.546  14.873  14.255
72221SOL    HW218503   2.526   0.113  14.350
72222SOL     OW18504   8.434   7.700   7.837
72222SOL    HW118505   8.385   7.690   7.919
72222SOL    HW218506   8.503   7.762   7.858
72223SOL     OW18507   7.078   3.126   4.204
72223SOL    HW118508   7.030   3.189   4.258
72223SOL    HW218509   7.084   3.047   4.258
72224SOL     OW18510   4.019  11.303   7.634
72224SOL    HW118511   4.075  11.226   7.644
72224SOL    HW218512   4.056  11.349   7.558
72225SOL     OW18513   1.899   8.179   9.372
72225SOL    HW118514   1.926   8.199   9.282
72225SOL    HW218515   1.964   8.116   9.402
72226SOL     OW18516   5.447   9.091   0.854
72226SOL    HW118517   5.484   9.177   0.836
72226SOL    HW218518   5.509   9.049   0.914
72227SOL     OW18519  11.726   6.997   1.804
72227SOL    HW118520  11.641   6.979   1.762
72227SOL    HW218521  11.731   7.092   1.809
72228SOL     OW18522   1.794   7.459   5.038
72228SOL    HW118523   1.838   7.511   4.970
72228SOL    HW218524   1.706   7.497   5.043
72229SOL     OW18525   3.505   6.107   0.122
72229SOL    HW118526   3.450   6.166   0.071
72229SOL    HW218527   3.451   6.030   0.138
72230SOL     OW18528   2.180   9.087  13.476
72230SOL    HW118529   2.095   9.096  13.519
72230SOL    HW218530   2.242   9.075  13.548
72231SOL     OW18531   2.936   9.984   6.577
72231SOL    HW118532   2.933   9.964   6.483
72231SOL    HW218533   3.005   9.929   6.611
72232SOL     OW18534   7.726  13.304   3.751
72232SOL    HW118535   7.718  13.214   3.718
72232SOL    HW218536   7.758  13.294   3.840
72233SOL     OW18537   6.165   9.373   3.036
72233SOL    HW118538   6.229   9.302   3.045
72233SOL    HW218539   6.090   9.331   2.994
72234SOL     OW18540   5.017   5.075   4.102
72234SOL    HW118541   5.099   5.125   4.102
72234SOL    HW218542   4.991   5.072   4.194
72235SOL     OW18543   8.365   2.296   7.514
72235SOL    HW118544   8.348   2.278   7.606
72235SOL    HW218545   8.447   2.250   7.496
72236SOL     OW18546   1.524   1.280   4.644
72236SOL    HW118547   1.577   1.203   4.624
72236SOL    HW218548   1.575   1.353   4.609
72237SOL     OW18549  12.928   4.941   2.012
72237SOL    HW118550  12.963   5.029   2.026
72237SOL    HW218551  12.983   4.904   1.942
72238SOL     OW18552  10.459   3.298   9.736
72238SOL    HW118553  10.462   3.219   9.790
72238SOL    HW218554  10.416   3.270   9.655
72239SOL     OW18555  11.937  14.687   7.135
72239SOL    HW118556  11.859  14.710   7.084
72239SOL    HW218557  11.904  14.655   7.218
72240SOL     OW18558  11.646   7.781   4.813
72240SOL    HW118559  11.679   7.708   4.866
72240SOL    HW218560  11.716   7.799   4.750
72241SOL     OW18561   7.489   0.278   2.476
72241SOL    HW118562   7.428   0.344   2.442
72241SOL    HW218563   7.571   0.296   2.430
72242SOL     OW18564  10.288  12.456  13.056
72242SOL    HW118565  10.292  12.533  12.999
72242SOL    HW218566  10.204  12.464  13.101
72243SOL     OW18567   7.401  10.148  12.643
72243SOL    HW118568   7.331  10.096  12.604
72243SOL    HW218569   7.382  10.147  12.737
72244SOL     OW18570   0.971  10.369   5.210
72244SOL    HW118571   0.955  10.278   5.235
72244SOL    HW218572   0.959  10.419   5.291
72245SOL     OW18573   6.456   0.713   0.883
72245SOL    HW118574   6.503   0.764   0.950
72245SOL    HW218575   6.465   0.622   0.912
72246SOL     OW18576  10.839  14.484  13.567
72246SOL    HW118577  10.838  14.486  13.471
72246SOL    HW218578  10.854  14.575  13.593
72247SOL     OW18579   2.869   7.889   2.474
72247SOL    HW118580   2.885   7.918   2.385
72247SOL    HW218581   2.956   7.870   2.509
72248SOL     OW18582   5.100   0.916   4.554
72248SOL    HW118583   5.189   0.936   4.583
72248SOL    HW218584   5.046   0.984   4.594
72249SOL     OW18585   8.466   1.342  12.318
72249SOL    HW118586   8.398   1.301  12.371
72249SOL    HW218587   8.439   1.325  12.227
72250SOL     OW18588   0.123   3.997  13.861
72250SOL    HW118589   0.127   3.911  13.903
72250SOL    HW218590   0.030   4.017  13.855
72251SOL     OW18591   4.242  12.733  11.684
72251SOL    HW118592   4.325  12.777  11.664
72251SOL    HW218593   4.230  12.746  11.778
72252SOL     OW18594   1.649   2.292  11.276
72252SOL    HW118595   1.665   2.374  11.228
72252SOL    HW218596   1.736   2.254  11.288
72253SOL     OW18597   4.887   1.752   5.916
72253SOL    HW118598   4.870   1.825   5.976
72253SOL    HW218599   4.867   1.673   5.966
72254SOL     OW18600  13.638  10.935   5.278
72254SOL    HW118601  13.627  10.982   5.195
72254SOL    HW218602  13.550  10.928   5.313
72255SOL     OW18603  12.076   3.766  14.437
72255SOL    HW118604  12.049   3.810  14.357
72255SOL    HW218605  12.114   3.684  14.408
72256SOL     OW18606  11.791   6.409  11.456
72256SOL    HW118607  11.832   6.407  11.543
72256SOL    HW218608  11.753   6.321  11.445
72257SOL     OW18609   2.215   1.954  13.029
72257SOL    HW118610   2.280   1.909  13.083
72257SOL    HW218611   2.233   1.925  12.940
72258SOL     OW18612   6.113   9.849  10.284
72258SOL    HW118613   6.081   9.888  10.365
72258SOL    HW218614   6.037   9.801  10.249
72259SOL     OW18615  14.533   4.400   5.212
72259SOL    HW118616  14.589   4.351   5.271
72259SOL    HW218617  14.460   4.430   5.266
72260SOL     OW18618   6.792   6.964  13.057
72260SOL    HW118619   6.786   7.056  13.083
72260SOL    HW218620   6.806   6.967  12.962
72261SOL     OW18621   6.443   7.126  10.174
72261SOL    HW118622   6.359   7.149  10.135
72261SOL    HW218623   6.424   7.114  10.267
72262SOL     OW18624  14.646   2.748   8.983
72262SOL    HW118625  14.605   2.773   9.066
72262SOL    HW218626  14.734   2.719   9.008
72263SOL     OW18627   8.155   7.021  14.149
72263SOL    HW118628   8.075   7.005  14.198
72263SOL    HW218629   8.204   6.939  14.156
72264SOL     OW18630  14.105   6.771  14.256
72264SOL    HW118631  14.013   6.789  14.237
72264SOL    HW218632  14.154   6.821  14.190
72265SOL     OW18633  12.144  14.252  11.244
72265SOL    HW118634  12.176  14.259  11.154
72265SOL    HW218635  12.154  14.160  11.267
72266SOL     OW18636   7.998   2.541   5.558
72266SOL    HW118637   7.906   2.554   5.534
72266SOL    HW218638   8.041   2.518   5.476
72267SOL     OW18639   2.026   3.036   7.977
72267SOL    HW118640   2.016   3.048   7.883
72267SOL    HW218641   2.080   2.958   7.985
72268SOL     OW18642  11.224  14.165  10.630
72268SOL    HW118643  11.299  14.109  10.609
72268SOL    HW218644  11.153  14.103  10.647
72269SOL     OW18645   9.656   1.831   5.478
72269SOL    HW118646   9.668   1.808   5.386
72269SOL    HW218647   9.562   1.821   5.493
72270SOL     OW18648   4.030   0.920  11.272
72270SOL    HW118649   4.043   0.952  11.182
72270SOL    HW218650   3.972   0.984  11.312
72271SOL     OW18651  13.714  10.416   0.622
72271SOL    HW118652  13.800  10.451   0.599
72271SOL    HW218653  13.653  10.458   0.561
72272SOL     OW18654   1.969  12.429   8.588
72272SOL    HW118655   2.059  12.461   8.584
72272SOL    HW218656   1.963  12.362   8.521
72273SOL     OW18657  11.454   2.002   5.836
72273SOL    HW118658  11.417   1.994   5.749
72273SOL    HW218659  11.543   2.036   5.822
72274SOL     OW18660   0.255   6.971  13.427
72274SOL    HW118661   0.298   6.889  13.452
72274SOL    HW218662   0.162   6.948  13.421
72275SOL     OW18663   8.021   1.869   4.210
72275SOL    HW118664   7.973   1.953   4.205
72275SOL    HW218665   7.954   1.805   4.232
72276SOL     OW18666   0.692   5.383   3.266
72276SOL    HW118667   0.764   5.421   3.317
72276SOL    HW218668   0.703   5.289   3.276
72277SOL     OW18669   3.965   6.854   2.745
72277SOL    HW118670   3.917   6.776   2.771
72277SOL    HW218671   4.057   6.830   2.750
72278SOL     OW18672   4.138   6.462  12.297
72278SOL    HW118673   4.061   6.519  12.300
72278SOL    HW218674   4.152   6.446  12.204
72279SOL     OW18675  11.723   8.812   8.051
72279SOL    HW118676  11.677   8.828   8.134
72279SOL    HW218677  11.697   8.723   8.028
72280SOL     OW18678   5.455  10.211   3.492
72280SOL    HW118679   5.534  10.230   3.541
72280SOL    HW218680   5.387  10.266   3.533
72281SOL     OW18681   2.958   5.168   5.666
72281SOL    HW118682   2.884   5.178   5.606
72281SOL    HW218683   2.933   5.216   5.744
72282SOL     OW18684  14.740  12.412  10.038
72282SOL    HW118685  14.783  12.460  10.109
72282SOL    HW218686  14.648  12.406  10.066
72283SOL     OW18687   7.641   0.403   5.025
72283SOL    HW118688   7.647   0.460   4.948
72283SOL    HW218689   7.713   0.341   5.015
72284SOL     OW18690  13.256  13.077   2.660
72284SOL    HW118691  13.188  13.028   2.613
72284SOL    HW218692  13.222  13.085   2.749
72285SOL     OW18693   3.132   9.531   4.468
72285SOL    HW118694   3.186   9.610   4.471
72285SOL    HW218695   3.111   9.520   4.376
72286SOL     OW18696  12.947  13.241   8.447
72286SOL    HW118697  12.869  13.212   8.495
72286SOL    HW218698  13.020  13.199   8.492
72287SOL     OW18699   6.052  14.376  12.323
72287SOL    HW118700   6.091  14.380  12.409
72287SOL    HW218701   5.990  14.303  12.328
72288SOL     OW18702   2.589   9.086   0.902
72288SOL    HW118703   2.559   9.029   0.831
72288SOL    HW218704   2.539   9.056   0.979
72289SOL     OW18705   3.401  14.368  10.468
72289SOL    HW118706   3.335  14.305  10.496
72289SOL    HW218707   3.390  14.443  10.526
72290SOL     OW18708   8.516   5.724   9.506
72290SOL    HW118709   8.581   5.693   9.568
72290SOL    HW218710   8.488   5.645   9.459
72291SOL     OW18711   3.615  12.292   6.528
72291SOL    HW118712   3.522  12.309   6.547
72291SOL    HW218713   3.661  12.363   6.573
72292SOL     OW18714   1.977   5.516  10.428
72292SOL    HW118715   1.953   5.603  10.461
72292SOL    HW218716   1.918   5.501  10.355
72293SOL     OW18717   6.795   7.493  10.981
72293SOL    HW118718   6.870   7.515  10.926
72293SOL    HW218719   6.816   7.407  11.017
72294SOL     OW18720  11.656   5.195   9.755
72294SOL    HW118721  11.593   5.257   9.720
72294SOL    HW218722  11.735   5.247   9.770
72295SOL     OW18723   0.235  10.126  12.534
72295SOL    HW118724   0.263  10.192  12.471
72295SOL    HW218725   0.290  10.050  12.517
72296SOL     OW18726   3.103   7.735   1.507
72296SOL    HW118727   3.070   7.818   1.473
72296SOL    HW218728   3.048   7.717   1.584
72297SOL     OW18729   7.811   7.746   8.067
72297SOL    HW118730   7.769   7.691   8.002
72297SOL    HW218731   7.766   7.831   8.060
72298SOL     OW18732  14.027   4.255  11.129
72298SOL    HW118733  14.069   4.187  11.182
72298SOL    HW218734  14.017   4.216  11.042
72299SOL     OW18735   6.062   5.117   1.397
72299SOL    HW118736   6.038   5.046   1.457
72299SOL    HW218737   6.157   5.122   1.403
72300SOL     OW18738   9.640   8.165   3.186
72300SOL    HW118739   9.735   8.169   3.173
72300SOL    HW218740   9.629   8.114   3.267
72301SOL     OW18741   2.001   8.243   6.224
72301SOL    HW118742   1.984   8.232   6.131
72301SOL    HW218743   2.096   8.235   6.233
72302SOL     OW18744   8.059   4.689   5.880
72302SOL    HW118745   8.063   4.594   5.890
72302SOL    HW218746   8.138   4.721   5.924
72303SOL     OW18747   7.724  13.100  11.536
72303SOL    HW118748   7.694  13.031  11.595
72303SOL    HW218749   7.792  13.146  11.585
72304SOL     OW18750   6.489   4.855  12.096
72304SOL    HW118751   6.402   4.884  12.124
72304SOL    HW218752   6.526   4.931  12.051
72305SOL     OW18753   8.133   6.830   4.860
72305SOL    HW118754   8.128   6.861   4.950
72305SOL    HW218755   8.061   6.874   4.815
72306SOL     OW18756   9.003   0.789   9.122
72306SOL    HW118757   8.926   0.842   9.138
72306SOL    HW218758   8.978   0.730   9.050
72307SOL     OW18759   4.712  12.415   2.378
72307SOL    HW118760   4.778  12.468   2.423
72307SOL    HW218761   4.630  12.438   2.421
72308SOL     OW18762   8.052  10.688   7.805
72308SOL    HW118763   8.131  10.635   7.798
72308SOL    HW218764   7.999  10.643   7.871
72309SOL     OW18765  10.344   4.587  11.704
72309SOL    HW118766  10.427   4.631  11.723
72309SOL    HW218767  10.331   4.600  11.610
72310SOL     OW18768   3.990   4.363   3.483
72310SOL    HW118769   3.990   4.308   3.561
72310SOL    HW218770   4.079   4.399   3.478
72311SOL     OW18771   8.775  14.812   7.420
72311SOL    HW118772   8.765  14.821   7.515
72311SOL    HW218773   8.690  14.781   7.390
72312SOL     OW18774   5.721   3.276  14.670
72312SOL    HW118775   5.741   3.244  14.758
72312SOL    HW218776   5.731   3.199  14.613
72313SOL     OW18777   6.452  11.774  10.701
72313SOL    HW118778   6.476  11.728  10.621
72313SOL    HW218779   6.370  11.818  10.679
72314SOL     OW18780   9.937   2.465  12.018
72314SOL    HW118781  10.010   2.525  12.006
72314SOL    HW218782   9.937   2.411  11.939
72315SOL     OW18783  14.357  14.613   0.847
72315SOL    HW118784  14.344  14.651   0.934
72315SOL    HW218785  14.357  14.518   0.863
72316SOL     OW18786  12.578   8.102  11.069
72316SOL    HW118787  12.637   8.102  11.144
72316SOL    HW218788  12.636   8.101  10.992
72317SOL     OW18789  13.277   6.518   6.886
72317SOL    HW118790  13.369   6.495   6.871
72317SOL    HW218791  13.280   6.605   6.927
72318SOL     OW18792   8.113   1.894   5.719
72318SOL    HW118793   8.062   1.891   5.638
72318SOL    HW218794   8.110   1.986   5.746
72319SOL     OW18795   6.960  10.845   6.899
72319SOL    HW118796   6.972  10.865   6.806
72319SOL    HW218797   6.972  10.929   6.944
72320SOL     OW18798  12.877  10.103   1.572
72320SOL    HW118799  12.902  10.159   1.499
72320SOL    HW218800  12.822  10.158   1.628
72321SOL     OW18801   0.067   5.497   2.718
72321SOL    HW118802   0.073   5.541   2.803
72321SOL    HW218803   0.101   5.560   2.655
72322SOL     OW18804  11.147   6.112   6.599
72322SOL    HW118805  11.074   6.130   6.540
72322SOL    HW218806  11.153   6.191   6.653
72323SOL     OW18807   6.775   3.883   5.676
72323SOL    HW118808   6.818   3.910   5.595
72323SOL    HW218809   6.770   3.963   5.728
72324SOL     OW18810   4.503  12.710   9.667
72324SOL    HW118811   4.419  12.664   9.663
72324SOL    HW218812   4.484  12.796   9.630
72325SOL     OW18813  13.208   7.933  14.339
72325SOL    HW118814  13.120   7.969  14.329
72325SOL    HW218815  13.200   7.871  14.411
72326SOL     OW18816   7.454   4.203   5.632
72326SOL    HW118817   7.450   4.150   5.552
72326SOL    HW218818   7.373   4.254   5.630
72327SOL     OW18819   1.300   2.140   6.672
72327SOL    HW118820   1.301   2.046   6.687
72327SOL    HW218821   1.294   2.179   6.759
72328SOL     OW18822   3.765  11.816  11.358
72328SOL    HW118823   3.727  11.744  11.309
72328SOL    HW218824   3.706  11.890  11.342
72329SOL     OW18825   5.204   6.663  12.526
72329SOL    HW118826   5.146   6.717  12.472
72329SOL    HW218827   5.189   6.574  12.495
72330SOL     OW18828  13.187  12.048   0.444
72330SOL    HW118829  13.249  12.038   0.516
72330SOL    HW218830  13.145  12.133   0.460
72331SOL     OW18831   3.213  11.714   6.340
72331SOL    HW118832   3.137  11.705   6.397
72331SOL    HW218833   3.187  11.780   6.275
72332SOL     OW18834   2.385   3.187   1.747
72332SOL    HW118835   2.294   3.218   1.743
72332SOL    HW218836   2.430   3.249   1.804
72333SOL     OW18837   1.804  14.845   6.627
72333SOL    HW118838   1.744  14.825   6.699
72333SOL    HW218839   1.834   0.057   6.644
72334SOL     OW18840   2.498   9.327   5.721
72334SOL    HW118841   2.491   9.336   5.816
72334SOL    HW218842   2.428   9.383   5.687
72335SOL     OW18843  12.365   9.090  13.765
72335SOL    HW118844  12.450   9.123  13.794
72335SOL    HW218845  12.314   9.169  13.747
72336SOL     OW18846   5.809   3.585   7.977
72336SOL    HW118847   5.887   3.531   7.991
72336SOL    HW218848   5.830   3.639   7.901
72337SOL     OW18849   0.250   7.320   2.073
72337SOL    HW118850   0.192   7.245   2.066
72337SOL    HW218851   0.218   7.369   2.148
72338SOL     OW18852  10.500   2.736   9.382
72338SOL    HW118853  10.453   2.755   9.463
72338SOL    HW218854  10.500   2.640   9.375
72339SOL     OW18855   9.392   1.270  10.340
72339SOL    HW118856   9.448   1.341  10.370
72339SOL    HW218857   9.362   1.227  10.420
72340SOL     OW18858   6.462   1.905   5.808
72340SOL    HW118859   6.371   1.916   5.835
72340SOL    HW218860   6.513   1.952   5.874
72341SOL     OW18861  14.488   0.186  10.986
72341SOL    HW118862  14.501   0.273  10.950
72341SOL    HW218863  14.557   0.177  11.052
72342SOL     OW18864   4.970  12.607   1.889
72342SOL    HW118865   4.996  12.619   1.980
72342SOL    HW218866   4.968  12.512   1.877
72343SOL     OW18867   9.360   5.983   2.122
72343SOL    HW118868   9.283   5.927   2.128
72343SOL    HW218869   9.326   6.070   2.103
72344SOL     OW18870  11.105  10.045   2.100
72344SOL    HW118871  11.129  10.070   2.189
72344SOL    HW218872  11.016  10.077   2.089
72345SOL     OW18873   0.092   6.811   8.102
72345SOL    HW118874   0.141   6.784   8.024
72345SOL    HW218875   0.000   6.805   8.075
72346SOL     OW18876  11.033   1.850   1.265
72346SOL    HW118877  11.068   1.858   1.177
72346SOL    HW218878  11.109   1.835   1.320
72347SOL     OW18879  12.039   9.205  11.425
72347SOL    HW118880  11.991   9.288  11.427
72347SOL    HW218881  11.978   9.143  11.384
72348SOL     OW18882   7.585   4.339   1.072
72348SOL    HW118883   7.615   4.388   1.148
72348SOL    HW218884   7.609   4.393   0.997
72349SOL     OW18885   7.762   0.168  11.177
72349SOL    HW118886   7.716   0.155  11.260
72349SOL    HW218887   7.692   0.178  11.112
72350SOL     OW18888  14.371   1.305  13.683
72350SOL    HW118889  14.376   1.288  13.589
72350SOL    HW218890  14.446   1.360  13.702
72351SOL     OW18891   0.086  14.300   5.508
72351SOL    HW118892   0.129  14.380   5.540
72351SOL    HW218893   0.147  14.230   5.527
72352SOL     OW18894  10.265  14.066   1.083
72352SOL    HW118895  10.340  14.118   1.055
72352SOL    HW218896  10.194  14.092   1.025
72353SOL     OW18897  14.400  14.158   3.380
72353SOL    HW118898  14.322  14.128   3.334
72353SOL    HW218899  14.368  14.222   3.444
72354SOL     OW18900   9.969   6.107  13.041
72354SOL    HW118901  10.053   6.134  13.077
72354SOL    HW218902   9.922   6.070  13.115
72355SOL     OW18903   9.596  10.993   8.034
72355SOL    HW118904   9.528  11.059   8.021
72355SOL    HW218905   9.672  11.042   8.064
72356SOL     OW18906   7.022   0.092   6.846
72356SOL    HW118907   6.991   0.101   6.755
72356SOL    HW218908   7.035  14.874   6.858
72357SOL     OW18909  12.163  11.953   9.640
72357SOL    HW118910  12.074  11.969   9.673
72357SOL    HW218911  12.216  11.938   9.718
72358SOL     OW18912  13.512   7.594   3.541
72358SOL    HW118913  13.455   7.517   3.541
72358SOL    HW218914  13.459   7.663   3.579
72359SOL     OW18915   2.347   3.902   1.064
72359SOL    HW118916   2.369   3.907   1.157
72359SOL    HW218917   2.389   3.978   1.024
72360SOL     OW18918   2.872  13.146   3.076
72360SOL    HW118919   2.941  13.209   3.057
72360SOL    HW218920   2.791  13.190   3.049
72361SOL     OW18921   1.951   2.075  14.202
72361SOL    HW118922   1.934   2.012  14.131
72361SOL    HW218923   2.038   2.052  14.234
72362SOL     OW18924  14.036  11.318   5.902
72362SOL    HW118925  13.975  11.391   5.907
72362SOL    HW218926  14.023  11.271   5.985
72363SOL     OW18927  13.592  12.162   5.969
72363SOL    HW118928  13.514  12.111   5.946
72363SOL    HW218929  13.588  12.238   5.912
72364SOL     OW18930   4.476  11.751   1.631
72364SOL    HW118931   4.430  11.683   1.680
72364SOL    HW218932   4.565  11.750   1.666
72365SOL     OW18933  12.847   9.853   4.203
72365SOL    HW118934  12.785   9.909   4.157
72365SOL    HW218935  12.915   9.833   4.138
72366SOL     OW18936   9.187   3.763  11.218
72366SOL    HW118937   9.165   3.774  11.125
72366SOL    HW218938   9.118   3.811  11.264
72367SOL     OW18939   9.991  14.687   8.003
72367SOL    HW118940  10.004  14.737   7.922
72367SOL    HW218941  10.039  14.606   7.989
72368SOL     OW18942  10.332  11.239  11.636
72368SOL    HW118943  10.311  11.149  11.662
72368SOL    HW218944  10.247  11.283  11.634
72369SOL     OW18945   1.370  11.504   8.614
72369SOL    HW118946   1.455  11.546   8.620
72369SOL    HW218947   1.381  11.422   8.662
72370SOL     OW18948   0.749   6.969   1.647
72370SOL    HW118949   0.833   6.934   1.678
72370SOL    HW218950   0.691   6.893   1.642
72371SOL     OW18951   0.081   1.731   5.224
72371SOL    HW118952   0.086   1.776   5.309
72371SOL    HW218953   0.015   1.663   5.237
72372SOL     OW18954   7.237  12.610   9.735
72372SOL    HW118955   7.169  12.543   9.736
72372SOL    HW218956   7.319  12.561   9.745
72373SOL     OW18957   2.349   2.530  12.481
72373SOL    HW118958   2.276   2.493  12.531
72373SOL    HW218959   2.393   2.453  12.444
72374SOL     OW18960   1.053  13.674  10.377
72374SOL    HW118961   1.110  13.690  10.452
72374SOL    HW218962   1.111  13.637  10.310
72375SOL     OW18963   2.329   7.896   5.152
72375SOL    HW118964   2.329   7.988   5.125
72375SOL    HW218965   2.411   7.861   5.118
72376SOL     OW18966  10.616  12.438  10.250
72376SOL    HW118967  10.599  12.379  10.324
72376SOL    HW218968  10.531  12.475  10.228
72377SOL     OW18969  13.492   4.865   3.467
72377SOL    HW118970  13.541   4.786   3.445
72377SOL    HW218971  13.450   4.844   3.551
72378SOL     OW18972   0.596   2.689   6.722
72378SOL    HW118973   0.508   2.693   6.685
72378SOL    HW218974   0.586   2.724   6.811
72379SOL     OW18975  14.502  12.322   6.455
72379SOL    HW118976  14.406  12.316   6.460
72379SOL    HW218977  14.528  12.251   6.397
72380SOL     OW18978   0.199  10.136   4.389
72380SOL    HW118979   0.155  10.116   4.306
72380SOL    HW218980   0.271  10.194   4.365
72381SOL     OW18981   6.353   3.969   8.439
72381SOL    HW118982   6.445   3.975   8.463
72381SOL    HW218983   6.339   3.876   8.420
72382SOL     OW18984   0.261  10.886  14.734
72382SOL    HW118985   0.323  10.956  14.756
72382SOL    HW218986   0.182  10.932  14.705
72383SOL     OW18987   2.027   7.202   7.158
72383SOL    HW118988   1.963   7.244   7.100
72383SOL    HW218989   2.004   7.109   7.155
72384SOL     OW18990   0.002  13.410   4.702
72384SOL    HW118991  14.804  13.444   4.752
72384SOL    HW218992  14.843  13.338   4.651
72385SOL     OW18993  13.358   1.033   1.297
72385SOL    HW118994  13.337   1.097   1.229
72385SOL    HW218995  13.337   1.078   1.379
72386SOL     OW18996  14.750   8.381   4.824
72386SOL    HW118997  14.762   8.352   4.733
72386SOL    HW218998  14.704   8.308   4.866
72387SOL     OW18999   3.799   4.924   8.635
72387SOL    HW119000   3.810   4.982   8.560
72387SOL    HW219001   3.760   4.845   8.599
72388SOL     OW19002  11.638   1.560  12.158
72388SOL    HW119003  11.664   1.582  12.069
72388SOL    HW219004  11.597   1.640  12.191
72389SOL     OW19005   8.776   9.949   2.852
72389SOL    HW119006   8.779   9.878   2.787
72389SOL    HW219007   8.853   9.935   2.906
72390SOL     OW19008   9.378   6.263  10.122
72390SOL    HW119009   9.363   6.316  10.044
72390SOL    HW219010   9.360   6.322  10.195
72391SOL     OW19011  13.067   2.520   3.755
72391SOL    HW119012  13.152   2.555   3.728
72391SOL    HW219013  13.017   2.514   3.673
72392SOL     OW19014   4.605  10.428  11.783
72392SOL    HW119015   4.670  10.485  11.742
72392SOL    HW219016   4.587  10.470  11.868
72393SOL     OW19017  13.145   7.207   3.993
72393SOL    HW119018  13.232   7.175   3.968
72393SOL    HW219019  13.160   7.258   4.072
72394SOL     OW19020  12.715   3.455  11.266
72394SOL    HW119021  12.782   3.416  11.209
72394SOL    HW219022  12.646   3.389  11.271
72395SOL     OW19023  13.680  14.655   1.359
72395SOL    HW119024  13.606  14.715   1.364
72395SOL    HW219025  13.642  14.569   1.379
72396SOL     OW19026  10.168  13.453   3.337
72396SOL    HW119027  10.198  13.437   3.427
72396SOL    HW219028  10.128  13.370   3.311
72397SOL     OW19029   9.715  10.455   6.546
72397SOL    HW119030   9.738  10.505   6.625
72397SOL    HW219031   9.772  10.379   6.548
72398SOL     OW19032   8.483  12.453   1.431
72398SOL    HW119033   8.467  12.399   1.354
72398SOL    HW219034   8.457  12.541   1.404
72399SOL     OW19035  12.570   6.514   6.535
72399SOL    HW119036  12.553   6.584   6.598
72399SOL    HW219037  12.594   6.560   6.454
72400SOL     OW19038  11.732   5.684  14.657
72400SOL    HW119039  11.797   5.678  14.587
72400SOL    HW219040  11.723   5.594  14.688
72401SOL     OW19041   4.441   2.914   2.312
72401SOL    HW119042   4.427   2.968   2.234
72401SOL    HW219043   4.484   2.835   2.280
72402SOL     OW19044  10.242   9.834  14.374
72402SOL    HW119045  10.165   9.871  14.417
72402SOL    HW219046  10.256   9.751  14.420
72403SOL     OW19047  11.195  13.539   1.659
72403SOL    HW119048  11.127  13.526   1.592
72403SOL    HW219049  11.214  13.633   1.655
72404SOL     OW19050   1.938   3.255   7.329
72404SOL    HW119051   1.924   3.326   7.391
72404SOL    HW219052   1.852   3.239   7.290
72405SOL     OW19053   5.878  10.669  10.517
72405SOL    HW119054   5.898  10.594  10.575
72405SOL    HW219055   5.846  10.737  10.577
72406SOL     OW19056   7.298   0.047   6.785
72406SOL    HW119057   7.271   0.138   6.795
72406SOL    HW219058   7.394   0.050   6.789
72407SOL     OW19059   7.094   3.634   1.866
72407SOL    HW119060   7.043   3.651   1.787
72407SOL    HW219061   7.160   3.703   1.867
72408SOL     OW19062   3.699  13.503   2.770
72408SOL    HW119063   3.765  13.526   2.835
72408SOL    HW219064   3.618  13.543   2.803
72409SOL     OW19065   5.146   7.574  14.801
72409SOL    HW119066   5.194   7.553  14.720
72409SOL    HW219067   5.214   7.580  14.868
72410SOL     OW19068   1.707  13.998  13.840
72410SOL    HW119069   1.754  13.943  13.903
72410SOL    HW219070   1.641  13.940  13.802
72411SOL     OW19071   5.618   7.065   2.129
72411SOL    HW119072   5.625   6.988   2.071
72411SOL    HW219073   5.709   7.089   2.146
72412SOL     OW19074   8.664   0.487   9.667
72412SOL    HW119075   8.602   0.416   9.685
72412SOL    HW219076   8.619   0.543   9.604
72413SOL     OW19077  12.671  13.001   3.417
72413SOL    HW119078  12.726  13.045   3.481
72413SOL    HW219079  12.608  12.952   3.469
72414SOL     OW19080   5.155   9.869   9.622
72414SOL    HW119081   5.073   9.844   9.664
72414SOL    HW219082   5.130   9.891   9.532
72415SOL     OW19083  13.657  12.993   2.748
72415SOL    HW119084  13.667  13.087   2.736
72415SOL    HW219085  13.706  12.954   2.675
72416SOL     OW19086   4.981  11.654   7.916
72416SOL    HW119087   4.953  11.671   8.006
72416SOL    HW219088   4.904  11.674   7.863
72417SOL     OW19089   7.062  11.354  12.114
72417SOL    HW119090   7.118  11.422  12.154
72417SOL    HW219091   7.019  11.399  12.041
72418SOL     OW19092  12.241  10.472   3.988
72418SOL    HW119093  12.311  10.497   4.049
72418SOL    HW219094  12.215  10.554   3.946
72419SOL     OW19095   6.897  10.903  14.232
72419SOL    HW119096   6.890  10.987  14.186
72419SOL    HW219097   6.982  10.869  14.207
72420SOL     OW19098   6.828   7.607   1.437
72420SOL    HW119099   6.796   7.579   1.522
72420SOL    HW219100   6.750   7.635   1.390
72421SOL     OW19101   3.204   6.294  13.401
72421SOL    HW119102   3.291   6.303  13.361
72421SOL    HW219103   3.220   6.248  13.483
72422SOL     OW19104   8.973   5.737  12.316
72422SOL    HW119105   8.943   5.706  12.401
72422SOL    HW219106   9.062   5.767  12.331
72423SOL     OW19107   7.759   1.817   8.280
72423SOL    HW119108   7.795   1.825   8.191
72423SOL    HW219109   7.767   1.905   8.316
72424SOL     OW19110   2.284  13.905   3.740
72424SOL    HW119111   2.285  13.911   3.645
72424SOL    HW219112   2.195  13.879   3.762
72425SOL     OW19113   1.698   2.237   7.597
72425SOL    HW119114   1.717   2.233   7.690
72425SOL    HW219115   1.608   2.269   7.592
72426SOL     OW19116   0.311   4.164   0.456
72426SOL    HW119117   0.280   4.230   0.394
72426SOL    HW219118   0.254   4.174   0.532
72427SOL     OW19119  13.871   6.288  10.562
72427SOL    HW119120  13.865   6.194  10.580
72427SOL    HW219121  13.857   6.329  10.648
72428SOL     OW19122   0.021   9.356  14.489
72428SOL    HW119123   0.078   9.337  14.414
72428SOL    HW219124  14.814   9.314  14.468
72429SOL     OW19125   3.245   4.513   8.737
72429SOL    HW119126   3.219   4.595   8.778
72429SOL    HW219127   3.218   4.446   8.799
72430SOL     OW19128  11.254   2.253  10.363
72430SOL    HW119129  11.271   2.239  10.456
72430SOL    HW219130  11.186   2.320  10.361
72431SOL     OW19131   7.254  13.266   6.306
72431SOL    HW119132   7.216  13.343   6.349
72431SOL    HW219133   7.198  13.193   6.335
72432SOL     OW19134   8.691   6.966   1.055
72432SOL    HW119135   8.697   6.984   1.149
72432SOL    HW219136   8.727   6.878   1.045
72433SOL     OW19137  14.108  14.677   5.592
72433SOL    HW119138  14.150  14.712   5.514
72433SOL    HW219139  14.021  14.651   5.563
72434SOL     OW19140   6.309   4.422   3.587
72434SOL    HW119141   6.403   4.436   3.576
72434SOL    HW219142   6.278   4.391   3.502
72435SOL     OW19143   1.395   0.765   8.544
72435SOL    HW119144   1.437   0.781   8.459
72435SOL    HW219145   1.393   0.670   8.552
72436SOL     OW19146  12.935   6.576  11.454
72436SOL    HW119147  12.867   6.644  11.443
72436SOL    HW219148  12.893   6.496  11.423
72437SOL     OW19149   8.492  13.388   2.586
72437SOL    HW119150   8.472  13.299   2.616
72437SOL    HW219151   8.585  13.399   2.602
72438SOL     OW19152  11.140   4.392  11.036
72438SOL    HW119153  11.157   4.302  11.063
72438SOL    HW219154  11.051   4.391  11.002
72439SOL     OW19155   1.476   6.441  12.582
72439SOL    HW119156   1.409   6.394  12.633
72439SOL    HW219157   1.558   6.397  12.605
72440SOL     OW19158  11.538   2.094   8.370
72440SOL    HW119159  11.619   2.145   8.368
72440SOL    HW219160  11.503   2.099   8.281
72441SOL     OW19161   3.656   4.385  12.877
72441SOL    HW119162   3.605   4.452  12.923
72441SOL    HW219163   3.670   4.316  12.941
72442SOL     OW19164  13.038   2.426   2.323
72442SOL    HW119165  13.120   2.410   2.276
72442SOL    HW219166  13.053   2.390   2.410
72443SOL     OW19167  11.406  14.860   0.388
72443SOL    HW119168  11.357  14.805   0.326
72443SOL    HW219169  11.494  14.822   0.388
72444SOL     OW19170   9.034   6.867   1.063
72444SOL    HW119171   9.040   6.915   1.146
72444SOL    HW219172   9.121   6.874   1.024
72445SOL     OW19173  13.263   2.799   4.365
72445SOL    HW119174  13.172   2.812   4.390
72445SOL    HW219175  13.258   2.763   4.276
72446SOL     OW19176   8.713   6.064   7.334
72446SOL    HW119177   8.670   6.077   7.418
72446SOL    HW219178   8.686   6.139   7.281
72447SOL     OW19179   0.605  12.336  13.246
72447SOL    HW119180   0.697  12.316  13.259
72447SOL    HW219181   0.604  12.402  13.178
72448SOL     OW19182  10.573  14.287   9.703
72448SOL    HW119183  10.630  14.350   9.658
72448SOL    HW219184  10.492  14.287   9.652
72449SOL     OW19185  10.210  12.827  10.086
72449SOL    HW119186  10.264  12.861  10.014
72449SOL    HW219187  10.186  12.906  10.135
72450SOL     OW19188   2.235   2.264  14.220
72450SOL    HW119189   2.309   2.287  14.277
72450SOL    HW219190   2.225   2.169  14.232
72451SOL     OW19191  14.033   5.131  13.641
72451SOL    HW119192  13.946   5.093  13.634
72451SOL    HW219193  14.091   5.055  13.653
72452SOL     OW19194   9.547   4.984   6.845
72452SOL    HW119195   9.467   4.942   6.878
72452SOL    HW219196   9.524   5.077   6.840
72453SOL     OW19197  12.286   8.037   7.522
72453SOL    HW119198  12.374   8.059   7.494
72453SOL    HW219199  12.251   8.117   7.560
72454SOL     OW19200   8.998   9.976  12.962
72454SOL    HW119201   8.996  10.062  13.005
72454SOL    HW219202   8.954   9.917  13.023
72455SOL     OW19203  13.831   9.167   3.714
72455SOL    HW119204  13.768   9.235   3.692
72455SOL    HW219205  13.820   9.100   3.646
72456SOL     OW19206   5.836  10.531   6.996
72456SOL    HW119207   5.794  10.575   6.922
72456SOL    HW219208   5.814  10.584   7.072
72457SOL     OW19209  11.308  10.190   8.194
72457SOL    HW119210  11.403  10.185   8.202
72457SOL    HW219211  11.287  10.125   8.126
72458SOL     OW19212   7.087   9.956   6.983
72458SOL    HW119213   7.116   9.919   6.900
72458SOL    HW219214   7.040   9.884   7.026
72459SOL     OW19215   5.414   4.345   5.787
72459SOL    HW119216   5.363   4.272   5.823
72459SOL    HW219217   5.433   4.319   5.697
72460SOL     OW19218   3.199   5.541  14.573
72460SOL    HW119219   3.107   5.565  14.587
72460SOL    HW219220   3.198   5.445  14.567
72461SOL     OW19221   7.673   0.021   8.396
72461SOL    HW119222   7.732   0.059   8.331
72461SOL    HW219223   7.622   0.096   8.429
72462SOL     OW19224   6.184   6.665  11.197
72462SOL    HW119225   6.189   6.629  11.109
72462SOL    HW219226   6.275   6.671  11.226
72463SOL     OW19227   4.269   0.656  13.161
72463SOL    HW119228   4.341   0.696  13.112
72463SOL    HW219229   4.310   0.628  13.243
72464SOL     OW19230   9.394  10.329  12.169
72464SOL    HW119231   9.304  10.322  12.200
72464SOL    HW219232   9.389  10.391  12.096
72465SOL     OW19233   2.320  13.762   8.208
72465SOL    HW119234   2.387  13.765   8.140
72465SOL    HW219235   2.366  13.788   8.288
72466SOL     OW19236  14.361   6.404  11.865
72466SOL    HW119237  14.428   6.451  11.816
72466SOL    HW219238  14.281   6.455  11.853
72467SOL     OW19239   6.201  13.616   4.032
72467SOL    HW119240   6.112  13.590   4.005
72467SOL    HW219241   6.257  13.545   4.001
72468SOL     OW19242   9.905  12.213  14.858
72468SOL    HW119243   9.945  12.299  14.865
72468SOL    HW219244   9.978  12.153  14.842
72469SOL     OW19245  11.535   6.472   5.464
72469SOL    HW119246  11.505   6.473   5.555
72469SOL    HW219247  11.523   6.382   5.435
72470SOL     OW19248   3.485   7.922   3.762
72470SOL    HW119249   3.477   7.827   3.757
72470SOL    HW219250   3.573   7.937   3.797
72471SOL     OW19251   6.475   1.431  14.561
72471SOL    HW119252   6.564   1.456  14.536
72471SOL    HW219253   6.444   1.376  14.489
72472SOL     OW19254  10.393   7.112  11.297
72472SOL    HW119255  10.440   7.116  11.380
72472SOL    HW219256  10.329   7.042  11.310
72473SOL     OW19257   0.360  11.628  11.126
72473SOL    HW119258   0.416  11.704  11.110
72473SOL    HW219259   0.410  11.554  11.093
72474SOL     OW19260   6.119  13.882  11.530
72474SOL    HW119261   6.198  13.920  11.569
72474SOL    HW219262   6.107  13.799  11.576
72475SOL     OW19263   3.095   3.117   4.916
72475SOL    HW119264   3.161   3.108   4.847
72475SOL    HW219265   3.137   3.170   4.984
72476SOL     OW19266  10.434  10.201   7.751
72476SOL    HW119267  10.407  10.131   7.811
72476SOL    HW219268  10.499  10.250   7.800
72477SOL     OW19269   7.533   6.862   2.634
72477SOL    HW119270   7.479   6.940   2.630
72477SOL    HW219271   7.534   6.838   2.727
72478SOL     OW19272  12.648   3.793  12.590
72478SOL    HW119273  12.609   3.711  12.560
72478SOL    HW219274  12.617   3.858  12.527
72479SOL     OW19275  11.004   0.996  11.715
72479SOL    HW119276  11.051   1.075  11.689
72479SOL    HW219277  10.977   1.012  11.805
72480SOL     OW19278  13.854   5.287  12.797
72480SOL    HW119279  13.925   5.331  12.845
72480SOL    HW219280  13.786   5.274  12.863
72481SOL     OW19281  11.104   3.509  12.334
72481SOL    HW119282  11.052   3.578  12.294
72481SOL    HW219283  11.195   3.532  12.314
72482SOL     OW19284   1.882   7.883  14.426
72482SOL    HW119285   1.802   7.934  14.412
72482SOL    HW219286   1.871   7.846  14.514
72483SOL     OW19287   6.113   8.406   0.336
72483SOL    HW119288   6.017   8.408   0.341
72483SOL    HW219289   6.141   8.382   0.425
72484SOL     OW19290  11.712   9.007   3.545
72484SOL    HW119291  11.724   8.950   3.469
72484SOL    HW219292  11.620   8.996   3.569
72485SOL     OW19293  11.721   6.387  12.848
72485SOL    HW119294  11.775   6.372  12.771
72485SOL    HW219295  11.738   6.311  12.904
72486SOL     OW19296   0.550   3.634   8.467
72486SOL    HW119297   0.519   3.656   8.379
72486SOL    HW219298   0.478   3.660   8.524
72487SOL     OW19299  10.231  11.201   0.495
72487SOL    HW119300  10.235  11.227   0.587
72487SOL    HW219301  10.301  11.136   0.486
72488SOL     OW19302   3.803   7.603   6.229
72488SOL    HW119303   3.713   7.630   6.210
72488SOL    HW219304   3.828   7.655   6.306
72489SOL     OW19305   9.282   4.955   0.131
72489SOL    HW119306   9.311   4.867   0.105
72489SOL    HW219307   9.339   4.978   0.205
72490SOL     OW19308   8.303   5.879   0.068
72490SOL    HW119309   8.298   5.963   0.114
72490SOL    HW219310   8.390   5.845   0.090
72491SOL     OW19311  10.099  11.668  10.447
72491SOL    HW119312  10.030  11.734  10.451
72491SOL    HW219313  10.119  11.659  10.354
72492SOL     OW19314  10.785  13.758   8.942
72492SOL    HW119315  10.792  13.830   9.004
72492SOL    HW219316  10.846  13.692   8.976
72493SOL     OW19317   1.108  11.119   6.070
72493SOL    HW119318   1.188  11.077   6.041
72493SOL    HW219319   1.079  11.067   6.145
72494SOL     OW19320   0.113   0.104   4.308
72494SOL    HW119321   0.080   0.174   4.252
72494SOL    HW219322   0.174   0.148   4.367
72495SOL     OW19323   6.112  10.187   9.913
72495SOL    HW119324   6.133  10.193   9.819
72495SOL    HW219325   6.150  10.104   9.941
72496SOL     OW19326   6.894   8.879  14.086
72496SOL    HW119327   6.806   8.885  14.050
72496SOL    HW219328   6.952   8.904  14.014
72497SOL     OW19329   3.732  10.157   5.816
72497SOL    HW119330   3.642  10.144   5.788
72497SOL    HW219331   3.785  10.120   5.745
72498SOL     OW19332   8.706  13.162   4.198
72498SOL    HW119333   8.649  13.236   4.174
72498SOL    HW219334   8.655  13.084   4.173
72499SOL     OW19335   9.479   3.541   5.114
72499SOL    HW119336   9.453   3.623   5.155
72499SOL    HW219337   9.561   3.517   5.156
72500SOL     OW19338   3.501   8.170  11.130
72500SOL    HW119339   3.592   8.200  11.123
72500SOL    HW219340   3.473   8.201  11.216
72501SOL     OW19341   2.318   0.578   8.592
72501SOL    HW119342   2.240   0.545   8.547
72501SOL    HW219343   2.329   0.667   8.559
72502SOL     OW19344  10.636   8.046   8.639
72502SOL    HW119345  10.543   8.058   8.658
72502SOL    HW219346  10.676   8.130   8.660
72503SOL     OW19347  12.211  10.459   6.133
72503SOL    HW119348  12.209  10.425   6.044
72503SOL    HW219349  12.188  10.551   6.124
72504SOL     OW19350  14.286   9.993  13.536
72504SOL    HW119351  14.377  10.012  13.558
72504SOL    HW219352  14.237  10.024  13.612
72505SOL     OW19353  11.036   0.695   7.278
72505SOL    HW119354  10.998   0.696   7.366
72505SOL    HW219355  11.042   0.602   7.257
72506SOL     OW19356   7.530   4.930   9.744
72506SOL    HW119357   7.601   4.981   9.783
72506SOL    HW219358   7.477   4.995   9.698
72507SOL     OW19359  13.334  13.588  10.193
72507SOL    HW119360  13.347  13.516  10.255
72507SOL    HW219361  13.282  13.652  10.242
72508SOL     OW19362   5.887   3.017   8.975
72508SOL    HW119363   5.926   2.933   8.998
72508SOL    HW219364   5.847   3.002   8.889
72509SOL     OW19365   6.904  12.378  12.152
72509SOL    HW119366   6.881  12.376  12.245
72509SOL    HW219367   6.831  12.423  12.111
72510SOL     OW19368   9.928   0.603  11.746
72510SOL    HW119369   9.950   0.649  11.827
72510SOL    HW219370   9.880   0.668  11.694
72511SOL     OW19371   0.312  12.978   0.219
72511SOL    HW119372   0.258  12.947   0.146
72511SOL    HW219373   0.392  12.926   0.212
72512SOL     OW19374   5.412   7.626   3.177
72512SOL    HW119375   5.362   7.581   3.109
72512SOL    HW219376   5.501   7.632   3.142
72513SOL     OW19377  13.324   5.027  10.061
72513SOL    HW119378  13.359   4.950  10.015
72513SOL    HW219379  13.335   5.099  10.000
72514SOL     OW19380   2.740   6.914   2.070
72514SOL    HW119381   2.741   6.834   2.123
72514SOL    HW219382   2.685   6.893   1.995
72515SOL     OW19383  14.713  11.317   5.632
72515SOL    HW119384  14.738  11.324   5.540
72515SOL    HW219385  14.793  11.289   5.677
72516SOL     OW19386   2.117   6.217   3.926
72516SOL    HW119387   2.153   6.203   3.839
72516SOL    HW219388   2.189   6.195   3.986
72517SOL     OW19389  11.442  11.587   2.532
72517SOL    HW119390  11.450  11.493   2.549
72517SOL    HW219391  11.425  11.626   2.618
72518SOL     OW19392  10.832  12.680   9.412
72518SOL    HW119393  10.886  12.747   9.369
72518SOL    HW219394  10.752  12.677   9.360
72519SOL     OW19395   2.936  13.444   5.943
72519SOL    HW119396   2.861  13.384   5.946
72519SOL    HW219397   2.914  13.505   5.873
72520SOL     OW19398   3.511   3.338   6.621
72520SOL    HW119399   3.425   3.368   6.652
72520SOL    HW219400   3.504   3.339   6.525
72521SOL     OW19401   0.611  12.636   7.641
72521SOL    HW119402   0.537  12.691   7.617
72521SOL    HW219403   0.583  12.590   7.720
72522SOL     OW19404   9.351   1.089   5.002
72522SOL    HW119405   9.311   1.005   4.977
72522SOL    HW219406   9.321   1.104   5.092
72523SOL     OW19407   7.266  11.729   3.473
72523SOL    HW119408   7.298  11.720   3.563
72523SOL    HW219409   7.296  11.649   3.429
72524SOL     OW19410   9.165   7.565  12.644
72524SOL    HW119411   9.205   7.573  12.557
72524SOL    HW219412   9.213   7.494  12.686
72525SOL     OW19413  11.113   4.774   1.656
72525SOL    HW119414  11.140   4.738   1.741
72525SOL    HW219415  11.172   4.847   1.642
72526SOL     OW19416   5.213  12.705   3.160
72526SOL    HW119417   5.130  12.709   3.207
72526SOL    HW219418   5.212  12.620   3.116
72527SOL     OW19419   7.621   9.478   2.614
72527SOL    HW119420   7.650   9.415   2.679
72527SOL    HW219421   7.549   9.525   2.656
72528SOL     OW19422  13.980   4.817   6.258
72528SOL    HW119423  13.967   4.877   6.332
72528SOL    HW219424  13.954   4.731   6.292
72529SOL     OW19425   4.959  12.795   3.432
72529SOL    HW119426   4.933  12.762   3.518
72529SOL    HW219427   4.974  12.888   3.446
72530SOL     OW19428   0.056   4.196   3.942
72530SOL    HW119429   0.027   4.145   4.017
72530SOL    HW219430   0.151   4.202   3.953
72531SOL     OW19431  10.108  11.691   9.572
72531SOL    HW119432  10.103  11.785   9.554
72531SOL    HW219433  10.051  11.651   9.506
72532SOL     OW19434   5.954   3.472   3.229
72532SOL    HW119435   5.900   3.496   3.153
72532SOL    HW219436   6.035   3.521   3.217
72533SOL     OW19437   6.215   0.304  13.768
72533SOL    HW119438   6.310   0.314  13.777
72533SOL    HW219439   6.202   0.272  13.679
72534SOL     OW19440   9.675  13.724   2.297
72534SOL    HW119441   9.687  13.631   2.320
72534SOL    HW219442   9.670  13.768   2.382
72535SOL     OW19443   4.880   5.030  12.748
72535SOL    HW119444   4.927   4.953  12.717
72535SOL    HW219445   4.794   5.024  12.706
72536SOL     OW19446   0.702   8.274   4.947
72536SOL    HW119447   0.682   8.342   4.883
72536SOL    HW219448   0.639   8.204   4.930
72537SOL     OW19449   9.522   3.934   3.790
72537SOL    HW119450   9.508   3.843   3.765
72537SOL    HW219451   9.437   3.965   3.819
72538SOL     OW19452  13.467   6.246  14.839
72538SOL    HW119453  13.445   6.170  14.786
72538SOL    HW219454  13.520   6.301  14.782
72539SOL     OW19455   2.997   0.398   9.256
72539SOL    HW119456   2.976   0.363   9.169
72539SOL    HW219457   2.962   0.333   9.317
72540SOL     OW19458  10.639  12.054   7.078
72540SOL    HW119459  10.593  12.137   7.077
72540SOL    HW219460  10.571  11.988   7.067
72541SOL     OW19461   8.493  13.890   7.881
72541SOL    HW119462   8.500  13.795   7.879
72541SOL    HW219463   8.583  13.921   7.870
72542SOL     OW19464   4.093  10.825  10.736
72542SOL    HW119465   4.109  10.919  10.733
72542SOL    HW219466   4.070  10.808  10.827
72543SOL     OW19467   1.520  10.335   9.202
72543SOL    HW119468   1.601  10.301   9.166
72543SOL    HW219469   1.463  10.348   9.126
72544SOL     OW19470   5.141   1.822   2.365
72544SOL    HW119471   5.133   1.853   2.275
72544SOL    HW219472   5.143   1.902   2.418
72545SOL     OW19473  13.136   9.550  10.663
72545SOL    HW119474  13.230   9.570  10.668
72545SOL    HW219475  13.107   9.591  10.582
72546SOL     OW19476   1.030   0.758   7.872
72546SOL    HW119477   1.043   0.836   7.818
72546SOL    HW219478   0.966   0.706   7.824
72547SOL     OW19479   8.844  11.148   5.609
72547SOL    HW119480   8.935  11.124   5.596
72547SOL    HW219481   8.807  11.153   5.521
72548SOL     OW19482   1.909   7.396   2.350
72548SOL    HW119483   1.955   7.454   2.289
72548SOL    HW219484   1.816   7.420   2.340
72549SOL     OW19485   2.698   3.147   1.724
72549SOL    HW119486   2.606   3.118   1.725
72549SOL    HW219487   2.704   3.209   1.797
72550SOL     OW19488  14.736   8.562   0.156
72550SOL    HW119489  14.760   8.493   0.218
72550SOL    HW219490  14.713   8.637   0.211
72551SOL     OW19491   4.748  12.610  13.446
72551SOL    HW119492   4.839  12.634  13.466
72551SOL    HW219493   4.725  12.665  13.371
72552SOL     OW19494   0.546   6.093   8.765
72552SOL    HW119495   0.462   6.059   8.733
72552SOL    HW219496   0.529   6.115   8.856
72553SOL     OW19497   9.364   4.978  14.419
72553SOL    HW119498   9.298   4.910  14.408
72553SOL    HW219499   9.337   5.025  14.499
72554SOL     OW19500   6.325   5.401   1.429
72554SOL    HW119501   6.376   5.482   1.423
72554SOL    HW219502   6.234   5.431   1.434
72555SOL     OW19503  11.587   4.561   9.390
72555SOL    HW119504  11.681   4.573   9.408
72555SOL    HW219505  11.584   4.482   9.336
72556SOL     OW19506  11.057   8.527   2.436
72556SOL    HW119507  11.088   8.577   2.511
72556SOL    HW219508  10.994   8.585   2.393
72557SOL     OW19509   1.483   5.486   2.629
72557SOL    HW119510   1.558   5.544   2.636
72557SOL    HW219511   1.519   5.400   2.606
72558SOL     OW19512   3.957   2.079   9.830
72558SOL    HW119513   4.016   2.144   9.869
72558SOL    HW219514   3.872   2.098   9.870
72559SOL     OW19515   7.772   3.823  10.235
72559SOL    HW119516   7.705   3.884  10.268
72559SOL    HW219517   7.735   3.736  10.253
72560SOL     OW19518   3.881   8.539   1.743
72560SOL    HW119519   3.866   8.478   1.816
72560SOL    HW219520   3.862   8.487   1.664
72561SOL     OW19521   4.802   5.421   6.299
72561SOL    HW119522   4.889   5.406   6.337
72561SOL    HW219523   4.742   5.416   6.374
72562SOL     OW19524   1.228   6.944   0.327
72562SOL    HW119525   1.285   6.874   0.358
72562SOL    HW219526   1.197   6.915   0.241
72563SOL     OW19527   0.968   0.320  14.852
72563SOL    HW119528   0.910   0.249  14.824
72563SOL    HW219529   1.027   0.333  14.778
72564SOL     OW19530  13.043  11.156   8.072
72564SOL    HW119531  13.119  11.209   8.049
72564SOL    HW219532  13.039  11.088   8.005
72565SOL     OW19533   2.981   6.600  14.555
72565SOL    HW119534   2.931   6.593  14.474
72565SOL    HW219535   2.930   6.660  14.610
72566SOL     OW19536   1.491   3.578   9.739
72566SOL    HW119537   1.406   3.606   9.774
72566SOL    HW219538   1.542   3.659   9.734
72567SOL     OW19539  12.850   9.539   4.301
72567SOL    HW119540  12.851   9.634   4.287
72567SOL    HW219541  12.889   9.528   4.388
72568SOL     OW19542   1.194   1.732   4.221
72568SOL    HW119543   1.285   1.707   4.201
72568SOL    HW219544   1.163   1.775   4.142
72569SOL     OW19545   5.593  14.647   9.609
72569SOL    HW119546   5.593  14.556   9.640
72569SOL    HW219547   5.658  14.691   9.664
72570SOL     OW19548   5.906   9.404   6.495
72570SOL    HW119549   5.928   9.329   6.551
72570SOL    HW219550   5.811   9.409   6.498
72571SOL     OW19551   5.760   3.751   6.103
72571SOL    HW119552   5.854   3.732   6.094
72571SOL    HW219553   5.757   3.838   6.142
72572SOL     OW19554  10.801   8.598   7.421
72572SOL    HW119555  10.830   8.559   7.338
72572SOL    HW219556  10.881   8.631   7.461
72573SOL     OW19557  13.171  10.110  14.786
72573SOL    HW119558  13.131  10.171  14.724
72573SOL    HW219559  13.242  10.161  14.826
72574SOL     OW19560   6.927  13.309   4.313
72574SOL    HW119561   6.912  13.402   4.333
72574SOL    HW219562   6.983  13.278   4.384
72575SOL     OW19563   2.246  11.862  11.783
72575SOL    HW119564   2.254  11.767  11.796
72575SOL    HW219565   2.192  11.871  11.705
72576SOL     OW19566   3.378  13.709   0.045
72576SOL    HW119567   3.410  13.739   0.130
72576SOL    HW219568   3.371  13.789  14.869
72577SOL     OW19569   1.888   9.460   0.990
72577SOL    HW119570   1.963   9.417   0.949
72577SOL    HW219571   1.900   9.444   1.084
72578SOL     OW19572   4.238  14.627   3.465
72578SOL    HW119573   4.160  14.664   3.425
72578SOL    HW219574   4.225  14.532   3.459
72579SOL     OW19575   2.428   9.542  13.852
72579SOL    HW119576   2.358   9.488  13.814
72579SOL    HW219577   2.505   9.522  13.799
72580SOL     OW19578   8.624  11.066  10.834
72580SOL    HW119579   8.633  11.095  10.925
72580SOL    HW219580   8.587  11.141  10.788
72581SOL     OW19581   2.624   7.741   6.764
72581SOL    HW119582   2.558   7.692   6.813
72581SOL    HW219583   2.698   7.749   6.824
72582SOL     OW19584   2.794   9.032  10.015
72582SOL    HW119585   2.703   9.002  10.009
72582SOL    HW219586   2.844   8.952  10.028
72583SOL     OW19587   3.316  10.246   0.585
72583SOL    HW119588   3.395  10.209   0.623
72583SOL    HW219589   3.246  10.188   0.614
72584SOL     OW19590   9.467   4.568   6.013
72584SOL    HW119591   9.520   4.646   6.026
72584SOL    HW219592   9.510   4.521   5.942
72585SOL     OW19593  10.977   0.630   4.232
72585SOL    HW119594  10.949   0.707   4.281
72585SOL    HW219595  10.897   0.579   4.219
72586SOL     OW19596  12.102   7.065   6.457
72586SOL    HW119597  12.017   7.027   6.434
72586SOL    HW219598  12.165   6.996   6.438
72587SOL     OW19599  13.910  13.692  11.216
72587SOL    HW119600  13.824  13.727  11.239
72587SOL    HW219601  13.896  13.597  11.211
72588SOL     OW19602   9.089  10.872  10.382
72588SOL    HW119603   9.041  10.794  10.409
72588SOL    HW219604   9.023  10.940  10.374
72589SOL     OW19605  11.429   0.999   3.308
72589SOL    HW119606  11.392   0.946   3.237
72589SOL    HW219607  11.353   1.025   3.360
72590SOL     OW19608   7.860   3.291   8.243
72590SOL    HW119609   7.952   3.267   8.252
72590SOL    HW219610   7.812   3.216   8.276
72591SOL     OW19611   3.600   8.485  11.645
72591SOL    HW119612   3.520   8.528  11.675
72591SOL    HW219613   3.596   8.490  11.550
72592SOL     OW19614  10.449   6.102   0.462
72592SOL    HW119615  10.427   6.139   0.377
72592SOL    HW219616  10.373   6.048   0.485
72593SOL     OW19617   1.923   6.112  10.313
72593SOL    HW119618   1.901   6.046  10.378
72593SOL    HW219619   1.841   6.161  10.300
72594SOL     OW19620   5.366  14.769   8.152
72594SOL    HW119621   5.367  14.864   8.165
72594SOL    HW219622   5.455  14.748   8.125
72595SOL     OW19623   6.958  14.048   7.580
72595SOL    HW119624   7.028  14.113   7.567
72595SOL    HW219625   6.919  14.071   7.665
72596SOL     OW19626  12.790   1.695  13.372
72596SOL    HW119627  12.870   1.747  13.358
72596SOL    HW219628  12.764   1.714  13.462
72597SOL     OW19629  12.504   5.912   1.980
72597SOL    HW119630  12.524   5.906   2.074
72597SOL    HW219631  12.466   5.827   1.959
72598SOL     OW19632  10.030   1.230  12.898
72598SOL    HW119633  10.096   1.174  12.858
72598SOL    HW219634  10.079   1.296  12.947
72599SOL     OW19635  12.963  12.178   9.407
72599SOL    HW119636  13.034  12.114   9.400
72599SOL    HW219637  12.887  12.133   9.370
72600SOL     OW19638   2.229   4.111   5.494
72600SOL    HW119639   2.251   4.175   5.427
72600SOL    HW219640   2.261   4.028   5.460
72601SOL     OW19641   7.296   6.376   1.070
72601SOL    HW119642   7.352   6.421   1.007
72601SOL    HW219643   7.211   6.419   1.062
72602SOL     OW19644  10.808  14.713   9.826
72602SOL    HW119645  10.721  14.741   9.796
72602SOL    HW219646  10.799  14.619   9.843
72603SOL     OW19647  14.435   7.110   5.069
72603SOL    HW119648  14.384   7.191   5.076
72603SOL    HW219649  14.455   7.086   5.159
72604SOL     OW19650  13.213  12.161  12.244
72604SOL    HW119651  13.129  12.173  12.288
72604SOL    HW219652  13.206  12.216  12.166
72605SOL     OW19653   9.917  11.353  11.679
72605SOL    HW119654   9.935  11.428  11.734
72605SOL    HW219655   9.954  11.278  11.726
72606SOL     OW19656   8.959   8.476   7.912
72606SOL    HW119657   8.985   8.441   7.826
72606SOL    HW219658   8.867   8.500   7.901
72607SOL     OW19659   7.742   8.711  12.111
72607SOL    HW119660   7.758   8.620  12.136
72607SOL    HW219661   7.646   8.719  12.110
72608SOL     OW19662   1.727  10.742   7.629
72608SOL    HW119663   1.642  10.740   7.674
72608SOL    HW219664   1.750  10.649   7.621
72609SOL     OW19665   1.827  12.382  12.514
72609SOL    HW119666   1.777  12.331  12.579
72609SOL    HW219667   1.790  12.470  12.519
72610SOL     OW19668  10.127   1.759   5.970
72610SOL    HW119669  10.041   1.727   5.942
72610SOL    HW219670  10.107   1.820   6.042
72611SOL     OW19671   7.509  13.780  14.027
72611SOL    HW119672   7.425  13.818  14.052
72611SOL    HW219673   7.561  13.780  14.107
72612SOL     OW19674  14.844   8.837   2.214
72612SOL    HW119675   0.012   8.922   2.222
72612SOL    HW219676  14.752   8.860   2.198
72613SOL     OW19677   8.047  12.123   8.554
72613SOL    HW119678   8.035  12.141   8.461
72613SOL    HW219679   8.101  12.044   8.557
72614SOL     OW19680   6.255   0.862   1.260
72614SOL    HW119681   6.178   0.901   1.219
72614SOL    HW219682   6.293   0.933   1.312
72615SOL     OW19683   2.442   6.894   2.250
72615SOL    HW119684   2.522   6.939   2.279
72615SOL    HW219685   2.371   6.954   2.272
72616SOL     OW19686   6.021   6.035  13.431
72616SOL    HW119687   6.075   6.071  13.501
72616SOL    HW219688   6.056   6.073  13.351
72617SOL     OW19689  12.501  13.562   9.173
72617SOL    HW119690  12.561  13.633   9.196
72617SOL    HW219691  12.414  13.602   9.180
72618SOL     OW19692   7.380   4.562   1.117
72618SOL    HW119693   7.459   4.615   1.121
72618SOL    HW219694   7.310   4.621   1.145
72619SOL     OW19695   6.695   6.387   8.257
72619SOL    HW119696   6.695   6.471   8.303
72619SOL    HW219697   6.765   6.337   8.299
72620SOL     OW19698   3.462  10.663   6.761
72620SOL    HW119699   3.492  10.753   6.752
72620SOL    HW219700   3.490  10.637   6.848
72621SOL     OW19701   5.474   9.195   1.647
72621SOL    HW119702   5.521   9.261   1.698
72621SOL    HW219703   5.411   9.245   1.596
72622SOL     OW19704   3.633   2.294  14.063
72622SOL    HW119705   3.713   2.301  14.114
72622SOL    HW219706   3.646   2.216  14.008
72623SOL     OW19707   2.155   4.378  12.974
72623SOL    HW119708   2.084   4.344  13.030
72623SOL    HW219709   2.219   4.307  12.972
72624SOL     OW19710   5.077   8.942   3.973
72624SOL    HW119711   4.984   8.952   3.952
72624SOL    HW219712   5.099   8.855   3.940
72625SOL     OW19713   7.976   6.210   4.021
72625SOL    HW119714   7.913   6.213   3.949
72625SOL    HW219715   7.948   6.136   4.075
72626SOL     OW19716  13.607   6.547   0.361
72626SOL    HW119717  13.586   6.555   0.268
72626SOL    HW219718  13.528   6.511   0.400
72627SOL     OW19719  11.603   6.715  13.895
72627SOL    HW119720  11.666   6.775  13.934
72627SOL    HW219721  11.639   6.628  13.912
72628SOL     OW19722   7.279   5.149   1.498
72628SOL    HW119723   7.258   5.167   1.590
72628SOL    HW219724   7.195   5.150   1.453
72629SOL     OW19725   6.262  13.651   8.881
72629SOL    HW119726   6.171  13.628   8.897
72629SOL    HW219727   6.311  13.609   8.952
72630SOL     OW19728   7.004  10.867   4.991
72630SOL    HW119729   7.003  10.849   5.085
72630SOL    HW219730   6.917  10.840   4.961
72631SOL     OW19731   5.190  12.816   1.453
72631SOL    HW119732   5.158  12.726   1.449
72631SOL    HW219733   5.269  12.811   1.505
72632SOL     OW19734   5.451   3.256   2.926
72632SOL    HW119735   5.394   3.289   2.995
72632SOL    HW219736   5.458   3.328   2.863
72633SOL     OW19737  10.623  13.604   0.845
72633SOL    HW119738  10.543  13.652   0.821
72633SOL    HW219739  10.593  13.535   0.904
72634SOL     OW19740   7.754  10.352  13.565
72634SOL    HW119741   7.792  10.351  13.653
72634SOL    HW219742   7.726  10.261  13.550
72635SOL     OW19743   6.757  10.824   9.244
72635SOL    HW119744   6.673  10.814   9.199
72635SOL    HW219745   6.761  10.917   9.267
72636SOL     OW19746   6.374   1.331   6.039
72636SOL    HW119747   6.388   1.238   6.023
72636SOL    HW219748   6.455   1.373   6.012
72637SOL     OW19749  10.691   1.999   8.287
72637SOL    HW119750  10.721   1.918   8.329
72637SOL    HW219751  10.596   1.994   8.290
72638SOL     OW19752   9.397  12.134  12.592
72638SOL    HW119753   9.464  12.117  12.527
72638SOL    HW219754   9.444  12.167  12.668
72639SOL     OW19755   5.622   6.643  11.374
72639SOL    HW119756   5.602   6.682  11.459
72639SOL    HW219757   5.699   6.691  11.342
72640SOL     OW19758   0.520  14.410   5.644
72640SOL    HW119759   0.552  14.321   5.633
72640SOL    HW219760   0.599  14.462   5.663
72641SOL     OW19761  14.530   2.381   7.288
72641SOL    HW119762  14.462   2.334   7.239
72641SOL    HW219763  14.530   2.341   7.374
72642SOL     OW19764  12.347   7.120   3.825
72642SOL    HW119765  12.255   7.137   3.844
72642SOL    HW219766  12.348   7.090   3.734
72643SOL     OW19767   4.377   7.953   1.898
72643SOL    HW119768   4.404   8.041   1.874
72643SOL    HW219769   4.401   7.945   1.990
72644SOL     OW19770  10.640   4.238   2.007
72644SOL    HW119771  10.676   4.325   1.985
72644SOL    HW219772  10.697   4.177   1.961
72645SOL     OW19773   4.436   0.716   7.142
72645SOL    HW119774   4.506   0.687   7.083
72645SOL    HW219775   4.474   0.791   7.189
72646SOL     OW19776   8.331   8.763   0.512
72646SOL    HW119777   8.300   8.676   0.490
72646SOL    HW219778   8.380   8.792   0.435
72647SOL     OW19779   0.578   3.082   6.825
72647SOL    HW119780   0.660   3.129   6.809
72647SOL    HW219781   0.527   3.139   6.882
72648SOL     OW19782  13.683   4.143  13.639
72648SOL    HW119783  13.676   4.239  13.635
72648SOL    HW219784  13.602   4.112  13.601
72649SOL     OW19785   1.195  14.279   6.408
72649SOL    HW119786   1.190  14.339   6.483
72649SOL    HW219787   1.275  14.229   6.423
72650SOL     OW19788  11.850  14.744   4.218
72650SOL    HW119789  11.897  14.774   4.140
72650SOL    HW219790  11.765  14.716   4.184
72651SOL     OW19791   1.078  10.574   7.199
72651SOL    HW119792   1.120  10.660   7.197
72651SOL    HW219793   1.051  10.559   7.109
72652SOL     OW19794  11.515   1.680   8.814
72652SOL    HW119795  11.521   1.765   8.769
72652SOL    HW219796  11.604   1.662   8.843
72653SOL     OW19797  11.172   6.767  14.001
72653SOL    HW119798  11.251   6.790  14.051
72653SOL    HW219799  11.205   6.745  13.914
72654SOL     OW19800  14.426   4.588   7.172
72654SOL    HW119801  14.516   4.591   7.203
72654SOL    HW219802  14.424   4.649   7.098
72655SOL     OW19803   8.946   9.213  14.343
72655SOL    HW119804   9.033   9.226  14.380
72655SOL    HW219805   8.886   9.224  14.416
72656SOL     OW19806   6.733   9.933   9.426
72656SOL    HW119807   6.644   9.916   9.394
72656SOL    HW219808   6.731   9.909   9.518
72657SOL     OW19809   0.927   7.642   1.890
72657SOL    HW119810   0.992   7.582   1.928
72657SOL    HW219811   0.861   7.652   1.959
72658SOL     OW19812  14.688   4.518   3.889
72658SOL    HW119813  14.650   4.606   3.889
72658SOL    HW219814  14.695   4.495   3.982
72659SOL     OW19815   6.604   6.618  11.634
72659SOL    HW119816   6.653   6.598  11.555
72659SOL    HW219817   6.526   6.562  11.629
72660SOL     OW19818  12.942  10.254  10.924
72660SOL    HW119819  13.005  10.222  10.988
72660SOL    HW219820  12.965  10.346  10.911
72661SOL     OW19821   0.086   9.405   3.226
72661SOL    HW119822   0.120   9.370   3.143
72661SOL    HW219823   0.112   9.497   3.226
72662SOL     OW19824   7.344  11.704   1.780
72662SOL    HW119825   7.335  11.652   1.860
72662SOL    HW219826   7.398  11.778   1.805
72663SOL     OW19827   3.994   4.776  12.372
72663SOL    HW119828   3.983   4.682  12.384
72663SOL    HW219829   4.000   4.811  12.461
72664SOL     OW19830   6.494   6.052  13.583
72664SOL    HW119831   6.449   6.092  13.509
72664SOL    HW219832   6.551   6.120  13.617
72665SOL     OW19833   8.303  12.238   9.001
72665SOL    HW119834   8.288  12.327   9.034
72665SOL    HW219835   8.397  12.235   8.983
72666SOL     OW19836  14.016  12.784   3.971
72666SOL    HW119837  14.090  12.765   3.914
72666SOL    HW219838  13.951  12.717   3.950
72667SOL     OW19839  11.431   4.152  13.751
72667SOL    HW119840  11.401   4.242  13.763
72667SOL    HW219841  11.453   4.145  13.658
72668SOL     OW19842  11.646   3.735   9.916
72668SOL    HW119843  11.619   3.736  10.008
72668SOL    HW219844  11.715   3.801   9.910
72669SOL     OW19845   4.966   8.564   3.719
72669SOL    HW119846   4.971   8.497   3.788
72669SOL    HW219847   4.934   8.517   3.642
72670SOL     OW19848   4.023  12.159   9.181
72670SOL    HW119849   3.982  12.149   9.267
72670SOL    HW219850   3.972  12.102   9.124
72671SOL     OW19851  14.566   7.171   1.439
72671SOL    HW119852  14.536   7.259   1.417
72671SOL    HW219853  14.655   7.167   1.403
72672SOL     OW19854   3.079   0.345   9.714
72672SOL    HW119855   3.110   0.392   9.636
72672SOL    HW219856   2.984   0.338   9.701
72673SOL     OW19857  14.267   7.200   5.573
72673SOL    HW119858  14.219   7.283   5.568
72673SOL    HW219859  14.236   7.150   5.498
72674SOL     OW19860  12.536   7.514   4.596
72674SOL    HW119861  12.607   7.558   4.549
72674SOL    HW219862  12.571   7.499   4.683
72675SOL     OW19863   4.929   6.434  14.662
72675SOL    HW119864   4.915   6.391  14.578
72675SOL    HW219865   4.842   6.435  14.703
72676SOL     OW19866   7.613   5.782   9.650
72676SOL    HW119867   7.582   5.695   9.627
72676SOL    HW219868   7.563   5.841   9.592
72677SOL     OW19869   5.858   7.101   2.694
72677SOL    HW119870   5.827   7.123   2.606
72677SOL    HW219871   5.869   7.006   2.693
72678SOL     OW19872   8.931   9.263  11.457
72678SOL    HW119873   8.940   9.292  11.366
72678SOL    HW219874   9.009   9.208  11.472
72679SOL     OW19875  10.374   6.877   7.712
72679SOL    HW119876  10.428   6.923   7.777
72679SOL    HW219877  10.427   6.880   7.632
72680SOL     OW19878  10.874   7.805   3.716
72680SOL    HW119879  10.779   7.820   3.720
72680SOL    HW219880  10.905   7.866   3.650
72681SOL     OW19881   6.491   9.943  11.720
72681SOL    HW119882   6.516   9.947  11.628
72681SOL    HW219883   6.399   9.967  11.721
72682SOL     OW19884  11.774   1.439   5.029
72682SOL    HW119885  11.768   1.347   5.004
72682SOL    HW219886  11.791   1.485   4.947
72683SOL     OW19887  11.576   9.929   0.677
72683SOL    HW119888  11.517   9.981   0.732
72683SOL    HW219889  11.521   9.861   0.639
72684SOL     OW19890   5.910   4.919   4.072
72684SOL    HW119891   5.957   4.996   4.104
72684SOL    HW219892   5.900   4.934   3.978
72685SOL     OW19893  13.222   3.910   4.245
72685SOL    HW119894  13.159   3.960   4.193
72685SOL    HW219895  13.279   3.977   4.283
72686SOL     OW19896   2.204   0.179  10.500
72686SOL    HW119897   2.233   0.184  10.409
72686SOL    HW219898   2.179   0.269  10.522
72687SOL     OW19899   2.725   3.983   6.482
72687SOL    HW119900   2.726   3.890   6.460
72687SOL    HW219901   2.816   4.011   6.474
72688SOL     OW19902   9.470  14.237   2.757
72688SOL    HW119903   9.495  14.289   2.681
72688SOL    HW219904   9.511  14.281   2.831
72689SOL     OW19905   2.691   5.890   4.764
72689SOL    HW119906   2.674   5.937   4.846
72689SOL    HW219907   2.616   5.911   4.709
72690SOL     OW19908   3.689   6.357   8.016
72690SOL    HW119909   3.659   6.373   7.926
72690SOL    HW219910   3.782   6.335   8.006
72691SOL     OW19911   6.193  13.896  14.033
72691SOL    HW119912   6.257  13.964  14.010
72691SOL    HW219913   6.125  13.904  13.966
72692SOL     OW19914  14.068   3.171  10.786
72692SOL    HW119915  14.046   3.241  10.725
72692SOL    HW219916  14.160   3.151  10.768
72693SOL     OW19917   5.750   4.589   4.596
72693SOL    HW119918   5.677   4.604   4.535
72693SOL    HW219919   5.708   4.573   4.680
72694SOL     OW19920   8.472   2.865   1.505
72694SOL    HW119921   8.568   2.859   1.498
72694SOL    HW219922   8.456   2.884   1.597
72695SOL     OW19923   2.339  13.891   6.409
72695SOL    HW119924   2.396  13.843   6.350
72695SOL    HW219925   2.369  13.867   6.496
72696SOL     OW19926   1.092  11.104   3.356
72696SOL    HW119927   1.180  11.088   3.392
72696SOL    HW219928   1.106  11.119   3.263
72697SOL     OW19929  13.973  11.849  11.810
72697SOL    HW119930  14.039  11.794  11.853
72697SOL    HW219931  13.926  11.890  11.881
72698SOL     OW19932   2.632  14.184   4.361
72698SOL    HW119933   2.653  14.092   4.343
72698SOL    HW219934   2.581  14.212   4.284
72699SOL     OW19935  12.940  14.628  11.560
72699SOL    HW119936  12.999  14.593  11.627
72699SOL    HW219937  12.994  14.692  11.512
72700SOL     OW19938   5.193  12.091   6.981
72700SOL    HW119939   5.248  12.114   6.905
72700SOL    HW219940   5.108  12.071   6.944
72701SOL     OW19941  11.599  13.323  10.739
72701SOL    HW119942  11.639  13.237  10.751
72701SOL    HW219943  11.666  13.385  10.769
72702SOL     OW19944  13.011   7.445   3.702
72702SOL    HW119945  13.028   7.377   3.767
72702SOL    HW219946  13.018   7.527   3.751
72703SOL     OW19947  10.272  14.127   5.349
72703SOL    HW119948  10.302  14.037   5.362
72703SOL    HW219949  10.337  14.180   5.396
72704SOL     OW19950   9.265   5.155   3.175
72704SOL    HW119951   9.272   5.200   3.091
72704SOL    HW219952   9.352   5.117   3.188
72705SOL     OW19953   7.053   2.059   8.882
72705SOL    HW119954   7.142   2.038   8.853
72705SOL    HW219955   7.065   2.102   8.967
72706SOL     OW19956  13.790   5.383   9.527
72706SOL    HW119957  13.884   5.367   9.538
72706SOL    HW219958  13.751   5.296   9.532
72707SOL     OW19959  12.819   6.559   5.421
72707SOL    HW119960  12.840   6.552   5.327
72707SOL    HW219961  12.818   6.469   5.452
72708SOL     OW19962  13.777   0.588  12.810
72708SOL    HW119963  13.794   0.573  12.717
72708SOL    HW219964  13.864   0.591  12.850
72709SOL     OW19965   2.696   9.225  11.144
72709SOL    HW119966   2.638   9.192  11.212
72709SOL    HW219967   2.673   9.176  11.065
72710SOL     OW19968  12.017   4.291  14.657
72710SOL    HW119969  12.038   4.343  14.580
72710SOL    HW219970  11.993   4.205  14.623
72711SOL     OW19971  11.565   1.473   5.216
72711SOL    HW119972  11.648   1.451   5.174
72711SOL    HW219973  11.501   1.415   5.176
72712SOL     OW19974   9.817   4.402  11.129
72712SOL    HW119975   9.821   4.472  11.194
72712SOL    HW219976   9.742   4.424  11.074
72713SOL     OW19977   9.211   4.524   7.454
72713SOL    HW119978   9.270   4.598   7.435
72713SOL    HW219979   9.200   4.526   7.549
72714SOL     OW19980  12.141  11.782   1.079
72714SOL    HW119981  12.224  11.781   1.127
72714SOL    HW219982  12.075  11.767   1.146
72715SOL     OW19983  10.621   4.417   8.427
72715SOL    HW119984  10.678   4.493   8.418
72715SOL    HW219985  10.580   4.428   8.513
72716SOL     OW19986   7.352   1.495  10.225
72716SOL    HW119987   7.288   1.431  10.255
72716SOL    HW219988   7.413   1.444  10.171
72717SOL     OW19989  14.867  12.397  11.952
72717SOL    HW119990   0.061  12.419  11.891
72717SOL    HW219991  14.836  12.311  11.923
72718SOL     OW19992   0.135   3.993  11.695
72718SOL    HW119993   0.172   3.913  11.735
72718SOL    HW219994   0.125   3.971  11.603
72719SOL     OW19995  13.069   3.655   6.210
72719SOL    HW119996  13.019   3.577   6.235
72719SOL    HW219997  13.118   3.678   6.289
72720SOL     OW19998   0.864   8.612  14.778
72720SOL    HW119999   0.778   8.574  14.796
72720SOL    HW220000   0.907   8.613  14.864
72721SOL     OW20001   2.907  13.636   9.034
72721SOL    HW120002   2.915  13.713   9.091
72721SOL    HW220003   2.917  13.562   9.093
72722SOL     OW20004   3.464   0.198   7.523
72722SOL    HW120005   3.466   0.293   7.514
72722SOL    HW220006   3.552   0.174   7.550
72723SOL     OW20007   9.863   2.811   6.430
72723SOL    HW120008   9.922   2.760   6.375
72723SOL    HW220009   9.891   2.902   6.418
72724SOL     OW20010  13.252   5.157   7.310
72724SOL    HW120011  13.202   5.238   7.299
72724SOL    HW220012  13.331   5.184   7.356
72725SOL     OW20013  10.714   6.853   1.579
72725SOL    HW120014  10.770   6.918   1.622
72725SOL    HW220015  10.698   6.890   1.492
72726SOL     OW20016   0.241   7.019  11.795
72726SOL    HW120017   0.160   7.018  11.743
72726SOL    HW220018   0.217   6.974  11.876
72727SOL     OW20019   0.074   2.611  10.204
72727SOL    HW120020   0.028   2.605  10.120
72727SOL    HW220021   0.013   2.574  10.268
72728SOL     OW20022   0.187   5.733  14.741
72728SOL    HW120023   0.097   5.763  14.728
72728SOL    HW220024   0.181   5.664  14.806
72729SOL     OW20025   2.488   9.420   0.786
72729SOL    HW120026   2.469   9.351   0.722
72729SOL    HW220027   2.417   9.483   0.775
72730SOL     OW20028  13.709   6.757   7.294
72730SOL    HW120029  13.724   6.666   7.318
72730SOL    HW220030  13.621   6.776   7.327
72731SOL     OW20031   1.388  10.527   1.261
72731SOL    HW120032   1.370  10.588   1.189
72731SOL    HW220033   1.466  10.479   1.234
72732SOL     OW20034   0.402   7.428  12.422
72732SOL    HW120035   0.431   7.374  12.348
72732SOL    HW220036   0.357   7.367  12.480
72733SOL     OW20037  10.233   1.586   4.357
72733SOL    HW120038  10.308   1.546   4.314
72733SOL    HW220039  10.244   1.680   4.343
72734SOL     OW20040   2.206   2.315   3.870
72734SOL    HW120041   2.142   2.382   3.895
72734SOL    HW220042   2.267   2.312   3.944
72735SOL     OW20043   5.150   9.432  12.015
72735SOL    HW120044   5.098   9.379  11.955
72735SOL    HW220045   5.142   9.521  11.982
72736SOL     OW20046   5.380   2.601  13.884
72736SOL    HW120047   5.418   2.515  13.898
72736SOL    HW220048   5.288   2.592  13.911
72737SOL     OW20049   6.454   2.873  13.306
72737SOL    HW120050   6.429   2.935  13.237
72737SOL    HW220051   6.418   2.790  13.277
72738SOL     OW20052   8.982  10.189  10.426
72738SOL    HW120053   8.994  10.231  10.341
72738SOL    HW220054   8.892  10.210  10.451
72739SOL     OW20055   0.182   1.001   9.211
72739SOL    HW120056   0.208   0.910   9.195
72739SOL    HW220057   0.134   0.998   9.293
72740SOL     OW20058   3.318   5.456  12.967
72740SOL    HW120059   3.300   5.550  12.978
72740SOL    HW220060   3.339   5.426  13.055
72741SOL     OW20061   3.733   9.255   9.923
72741SOL    HW120062   3.655   9.211   9.889
72741SOL    HW220063   3.700   9.333   9.968
72742SOL     OW20064  11.990   5.810   4.776
72742SOL    HW120065  11.938   5.756   4.717
72742SOL    HW220066  11.943   5.809   4.859
72743SOL     OW20067   1.357  11.433  13.381
72743SOL    HW120068   1.370  11.512  13.328
72743SOL    HW220069   1.305  11.463  13.456
72744SOL     OW20070   9.426   5.032   8.043
72744SOL    HW120071   9.471   5.076   8.115
72744SOL    HW220072   9.458   5.076   7.965
72745SOL     OW20073  13.911  10.837   7.763
72745SOL    HW120074  13.872  10.918   7.732
72745SOL    HW220075  13.848  10.802   7.825
72746SOL     OW20076   5.215   8.743  14.009
72746SOL    HW120077   5.232   8.835  13.989
72746SOL    HW220078   5.127   8.727  13.975
72747SOL     OW20079   7.059   8.912  13.320
72747SOL    HW120080   7.045   8.832  13.269
72747SOL    HW220081   7.046   8.983  13.258
72748SOL     OW20082   4.227   5.475   6.321
72748SOL    HW120083   4.219   5.543   6.254
72748SOL    HW220084   4.272   5.518   6.393
72749SOL     OW20085   3.477  14.376   6.447
72749SOL    HW120086   3.410  14.387   6.514
72749SOL    HW220087   3.507  14.465   6.427
72750SOL     OW20088   5.800   8.753   2.153
72750SOL    HW120089   5.781   8.731   2.245
72750SOL    HW220090   5.813   8.847   2.153
72751SOL     OW20091   8.594  14.511   7.887
72751SOL    HW120092   8.567  14.439   7.831
72751SOL    HW220093   8.677  14.541   7.850
72752SOL     OW20094   9.991   4.345  13.654
72752SOL    HW120095   9.914   4.336  13.597
72752SOL    HW220096   9.990   4.436  13.681
72753SOL     OW20097  11.973   4.839  10.621
72753SOL    HW120098  12.045   4.854  10.560
72753SOL    HW220099  11.896   4.828  10.565
72754SOL     OW20100   1.844   9.523   2.149
72754SOL    HW120101   1.846   9.578   2.228
72754SOL    HW220102   1.803   9.441   2.178
72755SOL     OW20103  12.135  13.844   1.919
72755SOL    HW120104  12.054  13.816   1.874
72755SOL    HW220105  12.175  13.762   1.947
72756SOL     OW20106   2.738  12.547   6.856
72756SOL    HW120107   2.831  12.538   6.875
72756SOL    HW220108   2.694  12.510   6.933
72757SOL     OW20109  13.020   3.630   4.410
72757SOL    HW120110  13.033   3.551   4.462
72757SOL    HW220111  13.101   3.641   4.361
72758SOL     OW20112   5.861  13.062   4.032
72758SOL    HW120113   5.840  12.995   4.098
72758SOL    HW220114   5.903  13.013   3.961
72759SOL     OW20115   4.743  14.244   2.635
72759SOL    HW120116   4.721  14.337   2.635
72759SOL    HW220117   4.658  14.199   2.634
72760SOL     OW20118  10.717   7.051   9.000
72760SOL    HW120119  10.642   7.093   9.042
72760SOL    HW220120  10.735   7.105   8.923
72761SOL     OW20121  10.271  13.236   6.990
72761SOL    HW120122  10.265  13.327   7.019
72761SOL    HW220123  10.345  13.199   7.038
72762SOL     OW20124  14.523  13.552   7.911
72762SOL    HW120125  14.608  13.572   7.871
72762SOL    HW220126  14.521  13.456   7.917
72763SOL     OW20127   8.182  12.934  11.622
72763SOL    HW120128   8.192  12.848  11.582
72763SOL    HW220129   8.095  12.932  11.662
72764SOL     OW20130   8.763   4.960  11.262
72764SOL    HW120131   8.719   5.041  11.289
72764SOL    HW220132   8.823   4.987  11.193
72765SOL     OW20133  14.186   8.104   7.855
72765SOL    HW120134  14.247   8.078   7.786
72765SOL    HW220135  14.233   8.170   7.905
72766SOL     OW20136   5.629  13.086   4.532
72766SOL    HW120137   5.637  13.083   4.627
72766SOL    HW220138   5.629  12.995   4.504
72767SOL     OW20139   3.272   5.995   0.424
72767SOL    HW120140   3.267   5.994   0.328
72767SOL    HW220141   3.366   5.990   0.443
72768SOL     OW20142   2.505  12.136   5.618
72768SOL    HW120143   2.518  12.106   5.708
72768SOL    HW220144   2.425  12.091   5.589
72769SOL     OW20145   0.071   3.418  12.663
72769SOL    HW120146  14.861   3.404  12.702
72769SOL    HW220147   0.116   3.334  12.673
72770SOL     OW20148   5.627  12.274  14.681
72770SOL    HW120149   5.677  12.301  14.604
72770SOL    HW220150   5.599  12.357  14.721
72771SOL     OW20151   2.312   7.094   3.226
72771SOL    HW120152   2.225   7.078   3.190
72771SOL    HW220153   2.368   7.027   3.187
72772SOL     OW20154   3.600   7.170   9.019
72772SOL    HW120155   3.662   7.242   9.009
72772SOL    HW220156   3.599   7.128   8.933
72773SOL     OW20157   4.210  12.244  12.994
72773SOL    HW120158   4.155  12.248  13.072
72773SOL    HW220159   4.299  12.263  13.026
72774SOL     OW20160   5.261  10.415   0.998
72774SOL    HW120161   5.195  10.481   0.976
72774SOL    HW220162   5.266  10.360   0.919
72775SOL     OW20163   4.995   6.122   1.801
72775SOL    HW120164   5.049   6.201   1.799
72775SOL    HW220165   4.913   6.150   1.843
72776SOL     OW20166   4.836   8.556  11.840
72776SOL    HW120167   4.783   8.503  11.781
72776SOL    HW220168   4.797   8.543  11.926
72777SOL     OW20169   7.101  10.539  14.149
72777SOL    HW120170   7.121  10.447  14.167
72777SOL    HW220171   7.010  10.539  14.122
72778SOL     OW20172   1.974   5.098  11.271
72778SOL    HW120173   1.916   5.029  11.303
72778SOL    HW220174   1.935   5.179  11.304
72779SOL     OW20175   4.331   1.292   5.824
72779SOL    HW120176   4.289   1.353   5.763
72779SOL    HW220177   4.339   1.210   5.774
72780SOL     OW20178   4.996   8.247   3.229
72780SOL    HW120179   4.975   8.181   3.296
72780SOL    HW220180   5.072   8.293   3.264
72781SOL     OW20181   5.157   1.973   9.396
72781SOL    HW120182   5.109   2.012   9.323
72781SOL    HW220183   5.121   2.014   9.474
72782SOL     OW20184   5.572   1.502  14.280
72782SOL    HW120185   5.544   1.490  14.370
72782SOL    HW220186   5.571   1.414  14.242
72783SOL     OW20187   9.842   6.556   3.471
72783SOL    HW120188   9.876   6.471   3.444
72783SOL    HW220189   9.800   6.590   3.392
72784SOL     OW20190   9.308   5.128  11.660
72784SOL    HW120191   9.254   5.182  11.718
72784SOL    HW220192   9.246   5.089  11.599
72785SOL     OW20193   6.383  10.170   5.023
72785SOL    HW120194   6.416  10.211   4.943
72785SOL    HW220195   6.419  10.223   5.094
72786SOL     OW20196  12.709  12.793   7.165
72786SOL    HW120197  12.679  12.703   7.178
72786SOL    HW220198  12.635  12.837   7.123
72787SOL     OW20199  12.994   0.470   3.462
72787SOL    HW120200  13.029   0.549   3.421
72787SOL    HW220201  12.936   0.432   3.397
72788SOL     OW20202   3.097   2.219   5.690
72788SOL    HW120203   3.133   2.301   5.722
72788SOL    HW220204   3.167   2.180   5.637
72789SOL     OW20205   4.881  12.271  10.104
72789SOL    HW120206   4.975  12.262  10.120
72789SOL    HW220207   4.875  12.310  10.018
72790SOL     OW20208  12.756   6.751  13.227
72790SOL    HW120209  12.796   6.720  13.308
72790SOL    HW220210  12.809   6.826  13.200
72791SOL     OW20211   7.707   3.520  11.996
72791SOL    HW120212   7.738   3.610  12.003
72791SOL    HW220213   7.622   3.521  12.038
72792SOL     OW20214   6.963   4.736  12.398
72792SOL    HW120215   6.895   4.740  12.330
72792SOL    HW220216   7.043   4.716  12.351
72793SOL     OW20217   0.705   5.620  10.501
72793SOL    HW120218   0.727   5.534  10.464
72793SOL    HW220219   0.633   5.652  10.446
72794SOL     OW20220  12.855   2.097   0.884
72794SOL    HW120221  12.780   2.157   0.876
72794SOL    HW220222  12.927   2.143   0.842
72795SOL     OW20223  10.324   3.302  14.798
72795SOL    HW120224  10.288   3.335   0.004
72795SOL    HW220225  10.284   3.356  14.730
72796SOL     OW20226  12.631  14.683  10.023
72796SOL    HW120227  12.590  14.597  10.033
72796SOL    HW220228  12.682  14.677   9.942
72797SOL     OW20229   4.759   0.856   2.888
72797SOL    HW120230   4.748   0.768   2.851
72797SOL    HW220231   4.854   0.871   2.886
72798SOL     OW20232  12.656   8.941   6.902
72798SOL    HW120233  12.658   8.846   6.909
72798SOL    HW220234  12.608   8.958   6.821
72799SOL     OW20235  14.006  10.567   1.439
72799SOL    HW120236  13.952  10.520   1.502
72799SOL    HW220237  14.080  10.600   1.490
72800SOL     OW20238   2.450   8.996  10.907
72800SOL    HW120239   2.472   8.911  10.946
72800SOL    HW220240   2.535   9.038  10.891
72801SOL     OW20241   4.814  11.746   7.416
72801SOL    HW120242   4.872  11.687   7.463
72801SOL    HW220243   4.809  11.710   7.328
72802SOL     OW20244   4.770   6.126  10.052
72802SOL    HW120245   4.697   6.139   9.992
72802SOL    HW220246   4.819   6.052  10.015
72803SOL     OW20247   8.541   9.237   0.870
72803SOL    HW120248   8.514   9.154   0.911
72803SOL    HW220249   8.636   9.237   0.877
72804SOL     OW20250   6.985   7.261   2.190
72804SOL    HW120251   7.036   7.275   2.270
72804SOL    HW220252   6.981   7.348   2.150
72805SOL     OW20253  14.030   8.358  12.514
72805SOL    HW120254  14.054   8.319  12.429
72805SOL    HW220255  14.106   8.343  12.570
72806SOL     OW20256  13.610   8.672  13.604
72806SOL    HW120257  13.627   8.709  13.691
72806SOL    HW220258  13.554   8.736  13.561
72807SOL     OW20259   5.182   9.038   7.365
72807SOL    HW120260   5.131   9.071   7.291
72807SOL    HW220261   5.193   8.945   7.347
72808SOL     OW20262   7.055   6.305   3.603
72808SOL    HW120263   7.062   6.322   3.697
72808SOL    HW220264   6.974   6.256   3.593
72809SOL     OW20265  11.991  10.955   6.537
72809SOL    HW120266  11.919  10.991   6.589
72809SOL    HW220267  12.032  10.890   6.595
72810SOL     OW20268   4.812  10.172   4.793
72810SOL    HW120269   4.792  10.101   4.732
72810SOL    HW220270   4.765  10.248   4.759
72811SOL     OW20271  14.215  11.458   8.650
72811SOL    HW120272  14.198  11.416   8.734
72811SOL    HW220273  14.134  11.506   8.630
72812SOL     OW20274   9.679   7.225   4.563
72812SOL    HW120275   9.652   7.144   4.606
72812SOL    HW220276   9.601   7.281   4.566
72813SOL     OW20277   2.595  13.704  12.337
72813SOL    HW120278   2.663  13.689  12.272
72813SOL    HW220279   2.516  13.719  12.286
72814SOL     OW20280   5.809  11.326   6.436
72814SOL    HW120281   5.857  11.243   6.439
72814SOL    HW220282   5.754  11.319   6.358
72815SOL     OW20283   7.049  14.440   5.403
72815SOL    HW120284   6.968  14.409   5.362
72815SOL    HW220285   7.019  14.503   5.470
72816SOL     OW20286   4.818  13.180  14.234
72816SOL    HW120287   4.740  13.209  14.187
72816SOL    HW220288   4.888  13.179  14.168
72817SOL     OW20289   2.289  11.259  13.832
72817SOL    HW120290   2.283  11.164  13.823
72817SOL    HW220291   2.229  11.294  13.766
72818SOL     OW20292   3.772   1.411   7.354
72818SOL    HW120293   3.844   1.378   7.407
72818SOL    HW220294   3.723   1.332   7.330
72819SOL     OW20295   0.006   3.736   6.952
72819SOL    HW120296   0.042   3.692   7.028
72819SOL    HW220297  14.788   3.718   6.956
72820SOL     OW20298  14.440  10.522   9.918
72820SOL    HW120299  14.511  10.459   9.907
72820SOL    HW220300  14.361  10.468   9.925
72821SOL     OW20301   8.365   0.256   6.832
72821SOL    HW120302   8.297   0.296   6.777
72821SOL    HW220303   8.316   0.217   6.905
72822SOL     OW20304   0.922   3.943   4.508
72822SOL    HW120305   0.981   3.960   4.435
72822SOL    HW220306   0.975   3.894   4.571
72823SOL     OW20307   2.921  14.348   8.207
72823SOL    HW120308   2.882  14.405   8.273
72823SOL    HW220309   3.011  14.380   8.197
72824SOL     OW20310   4.838   8.245   3.511
72824SOL    HW120311   4.778   8.179   3.476
72824SOL    HW220312   4.884   8.200   3.582
72825SOL     OW20313  11.646  13.730   8.781
72825SOL    HW120314  11.679  13.657   8.833
72825SOL    HW220315  11.678  13.713   8.692
72826SOL     OW20316  13.475   2.788   3.577
72826SOL    HW120317  13.401   2.836   3.539
72826SOL    HW220318  13.461   2.697   3.551
72827SOL     OW20319   4.488  14.456   5.554
72827SOL    HW120320   4.407  14.504   5.570
72827SOL    HW220321   4.473  14.370   5.592
72828SOL     OW20322  10.312   4.619  11.406
72828SOL    HW120323  10.229   4.589  11.443
72828SOL    HW220324  10.303   4.714  11.401
72829SOL     OW20325   8.105  14.339   7.579
72829SOL    HW120326   8.195  14.327   7.547
72829SOL    HW220327   8.100  14.433   7.599
72830SOL     OW20328   4.966   0.455   5.000
72830SOL    HW120329   5.018   0.375   4.998
72830SOL    HW220330   4.911   0.450   4.922
72831SOL     OW20331   4.630  10.820  13.778
72831SOL    HW120332   4.592  10.808  13.691
72831SOL    HW220333   4.555  10.818  13.837
72832SOL     OW20334  10.450  11.495   4.637
72832SOL    HW120335  10.379  11.544   4.680
72832SOL    HW220336  10.529  11.519   4.686
72833SOL     OW20337  11.773   5.699   4.619
72833SOL    HW120338  11.753   5.758   4.547
72833SOL    HW220339  11.688   5.665   4.647
72834SOL     OW20340  13.406  14.070   3.534
72834SOL    HW120341  13.362  13.985   3.535
72834SOL    HW220342  13.496  14.051   3.561
72835SOL     OW20343  10.965   2.223   4.108
72835SOL    HW120344  10.964   2.144   4.054
72835SOL    HW220345  10.920   2.198   4.188
72836SOL     OW20346  13.672   4.504  12.022
72836SOL    HW120347  13.763   4.475  12.028
72836SOL    HW220348  13.632   4.444  11.958
72837SOL     OW20349   1.342   1.329   5.769
72837SOL    HW120350   1.278   1.350   5.837
72837SOL    HW220351   1.423   1.313   5.816
72838SOL     OW20352   8.152   6.748   3.783
72838SOL    HW120353   8.145   6.660   3.820
72838SOL    HW220354   8.246   6.766   3.781
72839SOL     OW20355  10.485  13.955   1.374
72839SOL    HW120356  10.400  13.971   1.331
72839SOL    HW220357  10.471  13.982   1.465
72840SOL     OW20358   4.650  11.007  11.252
72840SOL    HW120359   4.743  10.995  11.269
72840SOL    HW220360   4.646  11.079  11.189
72841SOL     OW20361  13.944   9.210   5.507
72841SOL    HW120362  13.866   9.212   5.452
72841SOL    HW220363  14.012   9.251   5.454
72842SOL     OW20364   6.710  12.168  10.501
72842SOL    HW120365   6.718  12.109  10.427
72842SOL    HW220366   6.750  12.122  10.574
72843SOL     OW20367  13.769  13.374   7.329
72843SOL    HW120368  13.810  13.445   7.280
72843SOL    HW220369  13.760  13.408   7.418
72844SOL     OW20370   5.013   0.033   1.992
72844SOL    HW120371   5.058   0.006   2.072
72844SOL    HW220372   4.955   0.104   2.020
72845SOL     OW20373   5.064  10.952   2.547
72845SOL    HW120374   5.100  10.987   2.465
72845SOL    HW220375   5.063  10.857   2.534
72846SOL     OW20376  11.444  14.198   1.704
72846SOL    HW120377  11.355  14.228   1.723
72846SOL    HW220378  11.432  14.108   1.674
72847SOL     OW20379  13.655   0.140   9.596
72847SOL    HW120380  13.630   0.169   9.683
72847SOL    HW220381  13.745   0.171   9.585
72848SOL     OW20382  13.582   9.126   3.084
72848SOL    HW120383  13.493   9.103   3.109
72848SOL    HW220384  13.606   9.063   3.017
72849SOL     OW20385   7.465  10.972   9.435
72849SOL    HW120386   7.544  10.927   9.466
72849SOL    HW220387   7.445  10.931   9.351
72850SOL     OW20388  11.259   4.701   0.070
72850SOL    HW120389  11.229   4.613   0.094
72850SOL    HW220390  11.199   4.760   0.116
72851SOL     OW20391  13.527   9.241   9.438
72851SOL    HW120392  13.620   9.250   9.418
72851SOL    HW220393  13.487   9.213   9.356
72852SOL     OW20394   7.025   1.798   3.794
72852SOL    HW120395   7.081   1.773   3.868
72852SOL    HW220396   7.040   1.891   3.783
72853SOL     OW20397   1.528   9.604   3.102
72853SOL    HW120398   1.452   9.662   3.109
72853SOL    HW220399   1.586   9.632   3.173
72854SOL     OW20400   9.255   2.697   7.746
72854SOL    HW120401   9.323   2.645   7.703
72854SOL    HW220402   9.274   2.787   7.721
72855SOL     OW20403   1.316   2.522  10.170
72855SOL    HW120404   1.305   2.616  10.160
72855SOL    HW220405   1.349   2.493  10.085
72856SOL     OW20406  11.324  10.297   2.899
72856SOL    HW120407  11.324  10.202   2.902
72856SOL    HW220408  11.301  10.319   2.809
72857SOL     OW20409  11.682   3.763   0.232
72857SOL    HW120410  11.600   3.806   0.254
72857SOL    HW220411  11.750   3.820   0.269
72858SOL     OW20412   7.246   5.998   1.059
72858SOL    HW120413   7.262   5.969   0.969
72858SOL    HW220414   7.330   5.987   1.103
72859SOL     OW20415   8.869   0.455   4.210
72859SOL    HW120416   8.905   0.376   4.250
72859SOL    HW220417   8.813   0.421   4.139
72860SOL     OW20418   6.565   1.849  14.155
72860SOL    HW120419   6.611   1.905  14.217
72860SOL    HW220420   6.475   1.881  14.156
72861SOL     OW20421  13.670   4.374   1.777
72861SOL    HW120422  13.681   4.372   1.682
72861SOL    HW220423  13.664   4.467   1.798
72862SOL     OW20424  10.022   7.342   6.222
72862SOL    HW120425  10.022   7.328   6.317
72862SOL    HW220426   9.975   7.424   6.210
72863SOL     OW20427   5.889   6.882   1.462
72863SOL    HW120428   5.860   6.948   1.525
72863SOL    HW220429   5.941   6.821   1.514
72864SOL     OW20430  10.615   4.647   8.019
72864SOL    HW120431  10.567   4.577   8.064
72864SOL    HW220432  10.629   4.614   7.930
72865SOL     OW20433   5.617   5.674   4.156
72865SOL    HW120434   5.563   5.708   4.085
72865SOL    HW220435   5.638   5.751   4.210
72866SOL     OW20436   4.240   6.818   9.523
72866SOL    HW120437   4.198   6.815   9.610
72866SOL    HW220438   4.268   6.727   9.507
72867SOL     OW20439   8.899   4.528   7.924
72867SOL    HW120440   8.846   4.562   7.995
72867SOL    HW220441   8.937   4.447   7.959
72868SOL     OW20442   5.560   9.105   8.602
72868SOL    HW120443   5.606   9.023   8.619
72868SOL    HW220444   5.628   9.164   8.570
72869SOL     OW20445   9.798   0.917  13.756
72869SOL    HW120446   9.775   0.992  13.811
72869SOL    HW220447   9.883   0.888  13.790
72870SOL     OW20448   5.039   1.085   5.450
72870SOL    HW120449   5.066   1.176   5.446
72870SOL    HW220450   4.949   1.085   5.420
72871SOL     OW20451   5.834   9.983  10.394
72871SOL    HW120452   5.803   9.914  10.335
72871SOL    HW220453   5.757  10.038  10.409
72872SOL     OW20454  14.383  10.246   8.634
72872SOL    HW120455  14.446  10.260   8.563
72872SOL    HW220456  14.307  10.298   8.609
72873SOL     OW20457   6.826   7.702   1.897
72873SOL    HW120458   6.911   7.745   1.886
72873SOL    HW220459   6.783   7.752   1.966
72874SOL     OW20460   9.853  12.926   3.157
72874SOL    HW120461   9.906  12.912   3.078
72874SOL    HW220462   9.766  12.948   3.123
72875SOL     OW20463  13.351   8.527   1.143
72875SOL    HW120464  13.285   8.504   1.209
72875SOL    HW220465  13.348   8.622   1.138
72876SOL     OW20466   6.137   8.888   2.020
72876SOL    HW120467   6.230   8.876   2.041
72876SOL    HW220468   6.133   8.878   1.925
72877SOL     OW20469   5.124  12.910  13.851
72877SOL    HW120470   5.191  12.937  13.789
72877SOL    HW220471   5.042  12.945  13.815
72878SOL     OW20472   2.646  10.375   4.711
72878SOL    HW120473   2.690  10.380   4.626
72878SOL    HW220474   2.651  10.283   4.735
72879SOL     OW20475   8.977  14.460  13.295
72879SOL    HW120476   9.052  14.429  13.345
72879SOL    HW220477   8.901  14.428  13.343
72880SOL     OW20478  10.943   0.251   8.648
72880SOL    HW120479  10.929   0.182   8.712
72880SOL    HW220480  10.964   0.205   8.566
72881SOL     OW20481   8.383   2.690   0.747
72881SOL    HW120482   8.331   2.733   0.679
72881SOL    HW220483   8.332   2.702   0.827
72882SOL     OW20484  10.015   7.055   7.718
72882SOL    HW120485   9.971   7.039   7.635
72882SOL    HW220486   9.949   7.032   7.784
72883SOL     OW20487   7.880   5.970   6.017
72883SOL    HW120488   7.787   5.977   6.037
72883SOL    HW220489   7.919   5.937   6.098
72884SOL     OW20490  12.431   1.522   5.241
72884SOL    HW120491  12.430   1.535   5.336
72884SOL    HW220492  12.388   1.438   5.228
72885SOL     OW20493   9.342  11.421   4.126
72885SOL    HW120494   9.370  11.440   4.036
72885SOL    HW220495   9.412  11.366   4.161
72886SOL     OW20496   0.848  11.731   0.456
72886SOL    HW120497   0.876  11.789   0.528
72886SOL    HW220498   0.894  11.649   0.473
72887SOL     OW20499   9.859   7.380  14.053
72887SOL    HW120500   9.915   7.379  14.130
72887SOL    HW220501   9.799   7.306  14.066
72888SOL     OW20502   6.963  12.466  10.225
72888SOL    HW120503   6.904  12.471  10.300
72888SOL    HW220504   6.924  12.525  10.160
72889SOL     OW20505   1.183   3.797  10.491
72889SOL    HW120506   1.148   3.709  10.504
72889SOL    HW220507   1.150   3.847  10.566
72890SOL     OW20508  12.228   7.187   7.728
72890SOL    HW120509  12.167   7.122   7.694
72890SOL    HW220510  12.298   7.191   7.662
72891SOL     OW20511  13.865   9.649   0.451
72891SOL    HW120512  13.821   9.609   0.375
72891SOL    HW220513  13.807   9.719   0.478
72892SOL     OW20514   2.522   2.049   7.057
72892SOL    HW120515   2.533   1.971   7.002
72892SOL    HW220516   2.577   2.033   7.133
72893SOL     OW20517  13.300   9.392  13.225
72893SOL    HW120518  13.273   9.304  13.199
72893SOL    HW220519  13.391   9.398  13.198
72894SOL     OW20520   5.211   7.974   4.497
72894SOL    HW120521   5.259   7.903   4.455
72894SOL    HW220522   5.119   7.950   4.486
72895SOL     OW20523   4.751  11.214  11.526
72895SOL    HW120524   4.800  11.296  11.527
72895SOL    HW220525   4.796  11.160  11.461
72896SOL     OW20526  12.673   2.962   5.121
72896SOL    HW120527  12.668   2.915   5.204
72896SOL    HW220528  12.678   3.054   5.146
72897SOL     OW20529  13.240  12.514  14.201
72897SOL    HW120530  13.251  12.532  14.294
72897SOL    HW220531  13.324  12.538  14.162
72898SOL     OW20532   2.270   5.227   9.006
72898SOL    HW120533   2.256   5.227   8.911
72898SOL    HW220534   2.344   5.168   9.020
72899SOL     OW20535  13.261   1.705   7.622
72899SOL    HW120536  13.311   1.632   7.585
72899SOL    HW220537  13.221   1.747   7.546
72900SOL     OW20538   1.927  10.823  13.432
72900SOL    HW120539   1.930  10.810  13.337
72900SOL    HW220540   1.974  10.905  13.446
72901SOL     OW20541   3.725   5.323  11.553
72901SOL    HW120542   3.667   5.248  11.545
72901SOL    HW220543   3.686   5.376  11.623
72902SOL     OW20544  13.854   1.124   6.303
72902SOL    HW120545  13.759   1.127   6.313
72902SOL    HW220546  13.876   1.202   6.252
72903SOL     OW20547  10.813   8.326   9.071
72903SOL    HW120548  10.733   8.279   9.049
72903SOL    HW220549  10.883   8.271   9.037
72904SOL     OW20550   5.279  10.599   5.532
72904SOL    HW120551   5.243  10.594   5.621
72904SOL    HW220552   5.239  10.676   5.494
72905SOL     OW20553  12.433   1.225   0.727
72905SOL    HW120554  12.474   1.213   0.813
72905SOL    HW220555  12.407   1.317   0.726
72906SOL     OW20556  14.675   4.030  13.287
72906SOL    HW120557  14.675   4.102  13.223
72906SOL    HW220558  14.597   3.979  13.266
72907SOL     OW20559   8.886   8.008   0.370
72907SOL    HW120560   8.811   7.995   0.429
72907SOL    HW220561   8.895   8.103   0.364
72908SOL     OW20562   1.396   0.737   5.698
72908SOL    HW120563   1.481   0.774   5.673
72908SOL    HW220564   1.417   0.650   5.732
72909SOL     OW20565  13.846   4.022  10.977
72909SOL    HW120566  13.796   3.970  10.914
72909SOL    HW220567  13.816   3.992  11.063
72910SOL     OW20568   9.124   8.536  12.411
72910SOL    HW120569   9.104   8.621  12.450
72910SOL    HW220570   9.183   8.494  12.473
72911SOL     OW20571   8.851   8.563   8.638
72911SOL    HW120572   8.812   8.599   8.559
72911SOL    HW220573   8.867   8.471   8.618
72912SOL     OW20574  14.655  14.360   8.197
72912SOL    HW120575  14.609  14.406   8.127
72912SOL    HW220576  14.689  14.281   8.156
72913SOL     OW20577   6.931   6.422   8.463
72913SOL    HW120578   6.988   6.467   8.527
72913SOL    HW220579   6.965   6.449   8.378
72914SOL     OW20580   7.648  12.619   2.897
72914SOL    HW120581   7.709  12.685   2.931
72914SOL    HW220582   7.654  12.628   2.802
72915SOL     OW20583  10.362   9.149  14.320
72915SOL    HW120584  10.412   9.200  14.257
72915SOL    HW220585  10.292   9.209  14.348
72916SOL     OW20586   9.585   4.984  10.123
72916SOL    HW120587   9.548   4.931  10.053
72916SOL    HW220588   9.534   4.959  10.201
72917SOL     OW20589  14.381   3.748   6.949
72917SOL    HW120590  14.362   3.792   7.032
72917SOL    HW220591  14.440   3.677   6.973
72918SOL     OW20592   6.155  13.725   1.601
72918SOL    HW120593   6.086  13.787   1.625
72918SOL    HW220594   6.142  13.709   1.508
72919SOL     OW20595   9.968  13.396   4.608
72919SOL    HW120596  10.004  13.388   4.520
72919SOL    HW220597  10.003  13.479   4.641
72920SOL     OW20598   2.570   1.288   8.410
72920SOL    HW120599   2.642   1.351   8.404
72920SOL    HW220600   2.576   1.254   8.499
72921SOL     OW20601  10.761   3.423  13.494
72921SOL    HW120602  10.789   3.422  13.585
72921SOL    HW220603  10.726   3.511  13.481
72922SOL     OW20604   8.264   0.047   5.130
72922SOL    HW120605   8.267   0.126   5.184
72922SOL    HW220606   8.299   0.074   5.045
72923SOL     OW20607  11.645   0.948   9.427
72923SOL    HW120608  11.701   0.986   9.494
72923SOL    HW220609  11.685   0.864   9.407
72924SOL     OW20610   6.696  14.631   9.727
72924SOL    HW120611   6.640  14.557   9.752
72924SOL    HW220612   6.706  14.622   9.633
72925SOL     OW20613  12.344   9.326   0.842
72925SOL    HW120614  12.388   9.352   0.761
72925SOL    HW220615  12.253   9.311   0.817
72926SOL     OW20616   3.677  10.857   8.545
72926SOL    HW120617   3.733  10.934   8.535
72926SOL    HW220618   3.714  10.793   8.484
72927SOL     OW20619  13.898   4.338  13.938
72927SOL    HW120620  13.809   4.310  13.958
72927SOL    HW220621  13.914   4.410  13.999
72928SOL     OW20622   6.898   2.420  13.597
72928SOL    HW120623   6.807   2.398  13.578
72928SOL    HW220624   6.893   2.482  13.670
72929SOL     OW20625   9.406  10.169   4.472
72929SOL    HW120626   9.486  10.191   4.519
72929SOL    HW220627   9.364  10.254   4.455
72930SOL     OW20628  11.136   8.889   9.173
72930SOL    HW120629  11.197   8.821   9.201
72930SOL    HW220630  11.087   8.849   9.101
72931SOL     OW20631   7.603  13.215   6.935
72931SOL    HW120632   7.570  13.251   6.853
72931SOL    HW220633   7.527  13.171   6.974
72932SOL     OW20634  12.011   8.741   4.376
72932SOL    HW120635  11.956   8.789   4.314
72932SOL    HW220636  12.037   8.805   4.441
72933SOL     OW20637  12.318   0.232   3.676
72933SOL    HW120638  12.380   0.168   3.641
72933SOL    HW220639  12.372   0.296   3.721
72934SOL     OW20640   4.758   9.905  10.919
72934SOL    HW120641   4.719   9.899  10.832
72934SOL    HW220642   4.799   9.819  10.933
72935SOL     OW20643   3.910  13.572   2.974
72935SOL    HW120644   3.946  13.607   3.056
72935SOL    HW220645   3.949  13.625   2.905
72936SOL     OW20646   6.531   2.610  14.040
72936SOL    HW120647   6.495   2.692  14.006
72936SOL    HW220648   6.625   2.625  14.046
72937SOL     OW20649   7.659   5.153   7.669
72937SOL    HW120650   7.627   5.222   7.611
72937SOL    HW220651   7.751   5.141   7.645
72938SOL     OW20652   4.495   6.008  10.812
72938SOL    HW120653   4.410   6.041  10.839
72938SOL    HW220654   4.513   5.935  10.871
72939SOL     OW20655  10.710   3.924   1.610
72939SOL    HW120656  10.770   3.864   1.566
72939SOL    HW220657  10.637   3.869   1.638
72940SOL     OW20658  10.545   6.886   8.411
72940SOL    HW120659  10.632   6.921   8.430
72940SOL    HW220660  10.525   6.829   8.485
72941SOL     OW20661  11.689  11.078  12.548
72941SOL    HW120662  11.775  11.081  12.507
72941SOL    HW220663  11.707  11.088  12.642
72942SOL     OW20664   5.335   6.074   7.877
72942SOL    HW120665   5.420   6.055   7.838
72942SOL    HW220666   5.348   6.156   7.925
72943SOL     OW20667   3.782   9.035  12.872
72943SOL    HW120668   3.751   9.056  12.784
72943SOL    HW220669   3.703   9.016  12.922
72944SOL     OW20670   8.181  11.880  12.143
72944SOL    HW120671   8.151  11.881  12.233
72944SOL    HW220672   8.210  11.790  12.128
72945SOL     OW20673  12.930   0.491   6.034
72945SOL    HW120674  12.987   0.567   6.035
72945SOL    HW220675  12.964   0.435   6.104
72946SOL     OW20676   0.260   1.994   8.314
72946SOL    HW120677   0.310   1.961   8.238
72946SOL    HW220678   0.311   1.966   8.390
72947SOL     OW20679   5.003  13.230   7.968
72947SOL    HW120680   4.962  13.246   7.882
72947SOL    HW220681   5.005  13.134   7.976
72948SOL     OW20682   1.066  11.084   8.416
72948SOL    HW120683   0.996  11.022   8.395
72948SOL    HW220684   1.049  11.160   8.360
72949SOL     OW20685  10.670   9.209   1.129
72949SOL    HW120686  10.693   9.300   1.148
72949SOL    HW220687  10.648   9.210   1.036
72950SOL     OW20688   2.741  10.554   4.081
72950SOL    HW120689   2.805  10.550   4.010
72950SOL    HW220690   2.791  10.581   4.158
72951SOL     OW20691   2.265   7.727   8.382
72951SOL    HW120692   2.301   7.797   8.327
72951SOL    HW220693   2.222   7.773   8.454
72952SOL     OW20694  11.655   0.699  12.113
72952SOL    HW120695  11.692   0.787  12.121
72952SOL    HW220696  11.730   0.641  12.127
72953SOL     OW20697  14.107   0.723  13.852
72953SOL    HW120698  14.038   0.719  13.785
72953SOL    HW220699  14.071   0.677  13.927
72954SOL     OW20700  10.579   9.137   9.731
72954SOL    HW120701  10.632   9.147   9.651
72954SOL    HW220702  10.593   9.046   9.757
72955SOL     OW20703   6.679   9.252  10.803
72955SOL    HW120704   6.613   9.221  10.865
72955SOL    HW220705   6.721   9.325  10.848
72956SOL     OW20706  12.787   4.107  10.207
72956SOL    HW120707  12.774   4.141  10.118
72956SOL    HW220708  12.765   4.181  10.264
72957SOL     OW20709   5.624  13.542   5.288
72957SOL    HW120710   5.597  13.571   5.375
72957SOL    HW220711   5.621  13.446   5.293
72958SOL     OW20712  14.574  11.773   3.546
72958SOL    HW120713  14.547  11.760   3.636
72958SOL    HW220714  14.636  11.846   3.549
72959SOL     OW20715   2.517  10.005  14.160
72959SOL    HW120716   2.477   9.928  14.201
72959SOL    HW220717   2.592  10.025  14.215
72960SOL     OW20718  10.736  11.842  14.271
72960SOL    HW120719  10.738  11.866  14.364
72960SOL    HW220720  10.810  11.890  14.233
72961SOL     OW20721  13.163  10.682  13.438
72961SOL    HW120722  13.202  10.680  13.526
72961SOL    HW220723  13.102  10.608  13.438
72962SOL     OW20724   5.620  14.177   4.894
72962SOL    HW120725   5.673  14.211   4.821
72962SOL    HW220726   5.674  14.193   4.971
72963SOL     OW20727   9.610   6.310  12.116
72963SOL    HW120728   9.692   6.263  12.130
72963SOL    HW220729   9.545   6.242  12.104
72964SOL     OW20730   1.315   9.079   8.064
72964SOL    HW120731   1.261   9.079   8.143
72964SOL    HW220732   1.298   8.993   8.024
72965SOL     OW20733  10.740  12.975   2.093
72965SOL    HW120734  10.792  13.052   2.116
72965SOL    HW220735  10.799  12.901   2.109
72966SOL     OW20736   5.524  11.473  12.000
72966SOL    HW120737   5.474  11.526  11.938
72966SOL    HW220738   5.463  11.455  12.071
72967SOL     OW20739   0.109   7.129   8.903
72967SOL    HW120740   0.153   7.199   8.855
72967SOL    HW220741   0.031   7.110   8.850
72968SOL     OW20742  10.240   7.172  14.663
72968SOL    HW120743  10.330   7.140  14.673
72968SOL    HW220744  10.186   7.093  14.663
72969SOL     OW20745   5.319  11.743   6.018
72969SOL    HW120746   5.348  11.830   6.044
72969SOL    HW220747   5.281  11.705   6.097
72970SOL     OW20748  12.869   5.889  10.845
72970SOL    HW120749  12.900   5.979  10.836
72970SOL    HW220750  12.878   5.851  10.757
72971SOL     OW20751  11.227   5.151   6.686
72971SOL    HW120752  11.307   5.201   6.666
72971SOL    HW220753  11.176   5.154   6.606
72972SOL     OW20754   9.729   7.959   0.444
72972SOL    HW120755   9.693   7.878   0.409
72972SOL    HW220756   9.692   8.028   0.390
72973SOL     OW20757  13.085   1.281  14.690
72973SOL    HW120758  13.154   1.230  14.731
72973SOL    HW220759  13.005   1.251  14.731
72974SOL     OW20760   6.567   1.544  13.952
72974SOL    HW120761   6.640   1.606  13.960
72974SOL    HW220762   6.582   1.500  13.869
72975SOL     OW20763   2.943   6.336   6.107
72975SOL    HW120764   2.911   6.349   6.018
72975SOL    HW220765   2.864   6.340   6.161
72976SOL     OW20766  14.785   1.304   1.668
72976SOL    HW120767  14.860   1.266   1.622
72976SOL    HW220768  14.819   1.385   1.705
72977SOL     OW20769   7.112  10.224  14.705
72977SOL    HW120770   7.032  10.270  14.732
72977SOL    HW220771   7.082  10.155  14.647
72978SOL     OW20772  12.924  13.164   7.052
72978SOL    HW120773  12.855  13.151   6.987
72978SOL    HW220774  12.901  13.105   7.124
72979SOL     OW20775  12.049  12.102  14.360
72979SOL    HW120776  11.980  12.059  14.410
72979SOL    HW220777  12.073  12.039  14.292
72980SOL     OW20778   4.255   5.445  10.258
72980SOL    HW120779   4.268   5.366  10.207
72980SOL    HW220780   4.271   5.418  10.349
72981SOL     OW20781   7.514   4.026   5.012
72981SOL    HW120782   7.448   4.038   5.080
72981SOL    HW220783   7.471   3.972   4.946
72982SOL     OW20784  12.868   8.226   1.238
72982SOL    HW120785  12.795   8.194   1.185
72982SOL    HW220786  12.828   8.285   1.301
72983SOL     OW20787  14.235   6.818  13.419
72983SOL    HW120788  14.179   6.740  13.424
72983SOL    HW220789  14.308   6.799  13.478
72984SOL     OW20790  14.041   3.049   4.778
72984SOL    HW120791  13.981   2.979   4.752
72984SOL    HW220792  14.000   3.129   4.746
72985SOL     OW20793   5.985  13.653   8.915
72985SOL    HW120794   5.916  13.592   8.942
72985SOL    HW220795   5.957  13.685   8.830
72986SOL     OW20796   0.456   4.692  13.246
72986SOL    HW120797   0.363   4.716  13.246
72986SOL    HW220798   0.474   4.661  13.157
72987SOL     OW20799   3.743   0.143   6.609
72987SOL    HW120800   3.705   0.121   6.524
72987SOL    HW220801   3.678   0.114   6.672
72988SOL     OW20802   4.222   8.199   8.094
72988SOL    HW120803   4.299   8.209   8.150
72988SOL    HW220804   4.166   8.273   8.118
72989SOL     OW20805   6.603   1.326  10.645
72989SOL    HW120806   6.514   1.354  10.623
72989SOL    HW220807   6.627   1.381  10.720
72990SOL     OW20808   4.895  14.245  11.321
72990SOL    HW120809   4.962  14.223  11.387
72990SOL    HW220810   4.941  14.301  11.259
72991SOL     OW20811   6.917  12.340   8.088
72991SOL    HW120812   6.835  12.297   8.062
72991SOL    HW220813   6.982  12.269   8.088
72992SOL     OW20814   6.076  13.597   2.537
72992SOL    HW120815   6.018  13.583   2.612
72992SOL    HW220816   6.164  13.584   2.571
72993SOL     OW20817  14.783  12.756   7.589
72993SOL    HW120818  14.868  12.794   7.564
72993SOL    HW220819  14.755  12.707   7.511
72994SOL     OW20820   1.102   2.007   4.893
72994SOL    HW120821   1.190   1.980   4.918
72994SOL    HW220822   1.115   2.083   4.836
72995SOL     OW20823   1.911   6.482   1.762
72995SOL    HW120824   1.971   6.556   1.755
72995SOL    HW220825   1.945   6.431   1.836
72996SOL     OW20826  13.768  13.989  13.128
72996SOL    HW120827  13.700  13.990  13.196
72996SOL    HW220828  13.792  14.081  13.117
72997SOL     OW20829   9.746  12.737   5.497
72997SOL    HW120830   9.691  12.658   5.499
72997SOL    HW220831   9.727  12.777   5.412
72998SOL     OW20832   0.516   8.030   5.003
72998SOL    HW120833   0.432   8.073   4.987
72998SOL    HW220834   0.506   7.942   4.968
72999SOL     OW20835   6.811  11.448  14.205
72999SOL    HW120836   6.790  11.355  14.213
72999SOL    HW220837   6.852  11.470  14.289
73000SOL     OW20838   2.488   1.108  13.436
73000SOL    HW120839   2.507   1.041  13.502
73000SOL    HW220840   2.400   1.088  13.406
73001SOL     OW20841   3.271  14.739  13.142
73001SOL    HW120842   3.321  14.773  13.068
73001SOL    HW220843   3.219  14.667  13.106
73002SOL     OW20844  12.535  11.331   7.465
73002SOL    HW120845  12.598  11.404   7.468
73002SOL    HW220846  12.471  11.357   7.399
73003SOL     OW20847   9.345   5.212   2.355
73003SOL    HW120848   9.370   5.270   2.283
73003SOL    HW220849   9.369   5.260   2.434
73004SOL     OW20850   8.413   4.798  12.220
73004SOL    HW120851   8.489   4.791  12.277
73004SOL    HW220852   8.347   4.743  12.262
73005SOL     OW20853   2.756   8.207   2.538
73005SOL    HW120854   2.804   8.275   2.585
73005SOL    HW220855   2.769   8.128   2.590
73006SOL     OW20856  11.154  13.344  14.177
73006SOL    HW120857  11.115  13.312  14.096
73006SOL    HW220858  11.226  13.401  14.148
73007SOL     OW20859  11.644   6.075  10.022
73007SOL    HW120860  11.702   6.069   9.946
73007SOL    HW220861  11.628   5.984  10.046
73008SOL     OW20862   5.441  11.358   4.254
73008SOL    HW120863   5.427  11.263   4.251
73008SOL    HW220864   5.528  11.369   4.292
73009SOL     OW20865   2.161   0.183   4.594
73009SOL    HW120866   2.136   0.260   4.544
73009SOL    HW220867   2.199   0.218   4.675
73010SOL     OW20868   6.262  11.901   9.438
73010SOL    HW120869   6.257  11.831   9.503
73010SOL    HW220870   6.173  11.937   9.435
73011SOL     OW20871  10.765  12.856   4.382
73011SOL    HW120872  10.769  12.948   4.409
73011SOL    HW220873  10.854  12.837   4.351
73012SOL     OW20874  13.638  14.396   2.110
73012SOL    HW120875  13.697  14.471   2.106
73012SOL    HW220876  13.656  14.347   2.029
73013SOL     OW20877   0.799   8.314   2.020
73013SOL    HW120878   0.769   8.234   2.064
73013SOL    HW220879   0.750   8.318   1.939
73014SOL     OW20880  12.117   3.385   9.539
73014SOL    HW120881  12.042   3.426   9.582
73014SOL    HW220882  12.079   3.336   9.467
73015SOL     OW20883   7.354   6.960   9.820
73015SOL    HW120884   7.316   6.960   9.908
73015SOL    HW220885   7.290   6.914   9.766
73016SOL     OW20886  11.606  13.781   2.408
73016SOL    HW120887  11.609  13.875   2.393
73016SOL    HW220888  11.600  13.742   2.321
73017SOL     OW20889   8.171   8.736   6.159
73017SOL    HW120890   8.147   8.763   6.247
73017SOL    HW220891   8.088   8.735   6.110
73018SOL     OW20892   1.735   0.223   3.503
73018SOL    HW120893   1.735   0.132   3.472
73018SOL    HW220894   1.815   0.229   3.556
73019SOL     OW20895  10.058   0.518   5.141
73019SOL    HW120896   9.979   0.469   5.121
73019SOL    HW220897  10.091   0.548   5.056
73020SOL     OW20898   7.390   8.883   1.513
73020SOL    HW120899   7.361   8.793   1.500
73020SOL    HW220900   7.385   8.897   1.607
73021SOL     OW20901   7.887  12.489   6.278
73021SOL    HW120902   7.890  12.564   6.337
73021SOL    HW220903   7.797  12.489   6.244
73022SOL     OW20904  13.668   6.054   2.643
73022SOL    HW120905  13.704   6.079   2.558
73022SOL    HW220906  13.614   6.129   2.670
73023SOL     OW20907   4.057  13.305  14.120
73023SOL    HW120908   3.983  13.354  14.084
73023SOL    HW220909   4.019  13.253  14.190
73024SOL     OW20910   6.082  14.001   6.961
73024SOL    HW120911   6.176  13.996   6.945
73024SOL    HW220912   6.056  14.087   6.927
73025SOL     OW20913  12.802  13.156   7.951
73025SOL    HW120914  12.779  13.241   7.988
73025SOL    HW220915  12.762  13.093   8.010
73026SOL     OW20916   9.249   5.555  10.120
73026SOL    HW120917   9.228   5.648  10.113
73026SOL    HW220918   9.294   5.546  10.204
73027SOL     OW20919   9.465   9.309   2.598
73027SOL    HW120920   9.552   9.325   2.634
73027SOL    HW220921   9.424   9.247   2.659
73028SOL     OW20922   5.013   7.461   2.672
73028SOL    HW120923   4.972   7.459   2.758
73028SOL    HW220924   5.082   7.395   2.676
73029SOL     OW20925   6.396   9.350   8.804
73029SOL    HW120926   6.378   9.293   8.879
73029SOL    HW220927   6.383   9.294   8.728
73030SOL     OW20928   9.580   6.025  13.350
73030SOL    HW120929   9.587   5.930  13.359
73030SOL    HW220930   9.535   6.053  13.430
73031SOL     OW20931   2.432  13.418  11.176
73031SOL    HW120932   2.514  13.456  11.146
73031SOL    HW220933   2.376  13.494  11.196
73032SOL     OW20934   8.636  13.816  11.076
73032SOL    HW120935   8.657  13.858  10.993
73032SOL    HW220936   8.560  13.762  11.057
73033SOL     OW20937   2.599  12.314  12.195
73033SOL    HW120938   2.548  12.249  12.147
73033SOL    HW220939   2.562  12.313  12.283
73034SOL     OW20940  12.828   0.265  11.197
73034SOL    HW120941  12.795   0.328  11.133
73034SOL    HW220942  12.789   0.181  11.170
73035SOL     OW20943   2.978  13.753   7.859
73035SOL    HW120944   3.003  13.813   7.930
73035SOL    HW220945   2.963  13.669   7.903
73036SOL     OW20946   4.135   9.366   3.132
73036SOL    HW120947   4.042   9.383   3.144
73036SOL    HW220948   4.161   9.423   3.059
73037SOL     OW20949  14.402  12.816   9.594
73037SOL    HW120950  14.346  12.893   9.602
73037SOL    HW220951  14.345  12.742   9.618
73038SOL     OW20952   0.587  10.742   0.236
73038SOL    HW120953   0.530  10.738   0.313
73038SOL    HW220954   0.558  10.821   0.190
73039SOL     OW20955  13.596   6.662   8.073
73039SOL    HW120956  13.527   6.597   8.084
73039SOL    HW220957  13.583   6.695   7.984
73040SOL     OW20958  14.488   6.889   3.805
73040SOL    HW120959  14.397   6.898   3.779
73040SOL    HW220960  14.528   6.974   3.783
73041SOL     OW20961  10.502   2.034   2.176
73041SOL    HW120962  10.580   2.087   2.163
73041SOL    HW220963  10.469   2.061   2.262
73042SOL     OW20964   6.941   8.406   4.143
73042SOL    HW120965   6.998   8.347   4.095
73042SOL    HW220966   6.854   8.365   4.138
73043SOL     OW20967  12.235  14.737   5.331
73043SOL    HW120968  12.261  14.646   5.319
73043SOL    HW220969  12.140  14.735   5.334
73044SOL     OW20970   6.428   6.057   0.245
73044SOL    HW120971   6.467   5.982   0.201
73044SOL    HW220972   6.423   6.031   0.337
73045SOL     OW20973   3.536   7.661   2.711
73045SOL    HW120974   3.483   7.584   2.729
73045SOL    HW220975   3.617   7.627   2.674
73046SOL     OW20976   7.632   1.838  14.869
73046SOL    HW120977   7.679   1.755  14.875
73046SOL    HW220978   7.643   1.866  14.778
73047SOL     OW20979   4.932   2.331   2.642
73047SOL    HW120980   5.008   2.379   2.675
73047SOL    HW220981   4.936   2.246   2.686
73048SOL     OW20982   2.791   7.244   6.802
73048SOL    HW120983   2.858   7.222   6.866
73048SOL    HW220984   2.712   7.260   6.854
73049SOL     OW20985   9.499   9.483  11.798
73049SOL    HW120986   9.432   9.446  11.740
73049SOL    HW220987   9.520   9.412  11.859
73050SOL     OW20988   4.452   6.393  13.080
73050SOL    HW120989   4.544   6.407  13.099
73050SOL    HW220990   4.446   6.300  13.057
73051SOL     OW20991  12.943   8.754  11.887
73051SOL    HW120992  12.851   8.732  11.901
73051SOL    HW220993  12.948   8.780  11.795
73052SOL     OW20994   3.265   1.762   9.805
73052SOL    HW120995   3.253   1.792   9.715
73052SOL    HW220996   3.283   1.668   9.797
73053SOL     OW20997  12.458  10.996   4.269
73053SOL    HW120998  12.552  10.984   4.254
73053SOL    HW220999  12.437  11.078   4.225
73054SOL     OW21000   5.848   2.740   0.917
73054SOL    HW121001   5.796   2.659   0.912
73054SOL    HW221002   5.932   2.712   0.953
73055SOL     OW21003   7.919   5.373  12.980
73055SOL    HW121004   7.909   5.283  13.011
73055SOL    HW221005   7.849   5.383  12.915
73056SOL     OW21006   9.706  11.743   7.474
73056SOL    HW121007   9.729  11.813   7.413
73056SOL    HW221008   9.615  11.722   7.453
73057SOL     OW21009  14.792   9.769   0.137
73057SOL    HW121010  14.807   9.676   0.122
73057SOL    HW221011   0.003   9.806   0.151
73058SOL     OW21012   8.617  13.141  12.894
73058SOL    HW121013   8.682  13.200  12.932
73058SOL    HW221014   8.540  13.195  12.878
73059SOL     OW21015   7.575   7.113  14.374
73059SOL    HW121016   7.558   7.160  14.455
73059SOL    HW221017   7.491   7.116  14.326
73060SOL     OW21018  11.141  14.084   4.393
73060SOL    HW121019  11.121  14.132   4.474
73060SOL    HW221020  11.062  14.091   4.340
73061SOL     OW21021   2.105   0.556   3.311
73061SOL    HW121022   2.064   0.517   3.233
73061SOL    HW221023   2.036   0.611   3.349
73062SOL     OW21024   5.633  11.067   0.925
73062SOL    HW121025   5.708  11.123   0.945
73062SOL    HW221026   5.669  10.997   0.870
73063SOL     OW21027   6.969  13.457   7.264
73063SOL    HW121028   7.040  13.521   7.263
73063SOL    HW221029   7.004  13.383   7.314
73064SOL     OW21030  12.048  13.237   0.178
73064SOL    HW121031  12.080  13.304   0.237
73064SOL    HW221032  11.983  13.282   0.123
73065SOL     OW21033   5.523  13.409  13.021
73065SOL    HW121034   5.471  13.329  13.030
73065SOL    HW221035   5.575  13.394  12.942
73066SOL     OW21036   2.703  10.642   0.386
73066SOL    HW121037   2.795  10.667   0.375
73066SOL    HW221038   2.702  10.591   0.467
73067SOL     OW21039   4.440   0.568   8.886
73067SOL    HW121040   4.438   0.517   8.967
73067SOL    HW221041   4.400   0.651   8.909
73068SOL     OW21042   0.351  10.192   9.762
73068SOL    HW121043   0.361  10.286   9.750
73068SOL    HW221044   0.426  10.167   9.817
73069SOL     OW21045  13.389  10.413  13.148
73069SOL    HW121046  13.336  10.476  13.100
73069SOL    HW221047  13.420  10.351  13.081
73070SOL     OW21048   9.918   5.964  11.377
73070SOL    HW121049   9.829   6.000  11.385
73070SOL    HW221050   9.963   5.996  11.455
73071SOL     OW21051  12.655  12.165  11.950
73071SOL    HW121052  12.669  12.143  12.042
73071SOL    HW221053  12.577  12.116  11.925
73072SOL     OW21054   6.930  12.684   3.798
73072SOL    HW121055   6.917  12.710   3.890
73072SOL    HW221056   6.927  12.589   3.799
73073SOL     OW21057   1.749   9.033   6.843
73073SOL    HW121058   1.818   9.073   6.789
73073SOL    HW221059   1.776   9.052   6.933
73074SOL     OW21060  14.325  14.829  12.268
73074SOL    HW121061  14.265  14.825  12.193
73074SOL    HW221062  14.397  14.771  12.245
73075SOL     OW21063  11.314  11.183   3.109
73075SOL    HW121064  11.383  11.238   3.146
73075SOL    HW221065  11.234  11.235   3.115
73076SOL     OW21066   6.453  10.174   4.669
73076SOL    HW121067   6.510  10.150   4.595
73076SOL    HW221068   6.371  10.130   4.650
73077SOL     OW21069   9.818   6.383  14.477
73077SOL    HW121070   9.856   6.372  14.390
73077SOL    HW221071   9.815   6.478  14.490
73078SOL     OW21072   6.426   9.421   4.938
73078SOL    HW121073   6.391   9.467   5.014
73078SOL    HW221074   6.417   9.328   4.960
73079SOL     OW21075   9.785   4.334   6.039
73079SOL    HW121076   9.753   4.272   5.974
73079SOL    HW221077   9.809   4.412   5.989
73080SOL     OW21078   3.871  13.630  14.365
73080SOL    HW121079   3.833  13.589  14.287
73080SOL    HW221080   3.859  13.565  14.434
73081SOL     OW21081   4.345   6.638  10.631
73081SOL    HW121082   4.366   6.656  10.540
73081SOL    HW221083   4.340   6.542  10.636
73082SOL     OW21084   1.980   6.941   7.144
73082SOL    HW121085   2.066   6.902   7.158
73082SOL    HW221086   1.941   6.945   7.231
73083SOL     OW21087   6.141   9.487   2.238
73083SOL    HW121088   6.060   9.471   2.190
73083SOL    HW221089   6.159   9.405   2.284
73084SOL     OW21090   7.813   3.491   4.518
73084SOL    HW121091   7.836   3.498   4.425
73084SOL    HW221092   7.879   3.543   4.563
73085SOL     OW21093   3.054   0.970  14.215
73085SOL    HW121094   3.040   0.876  14.204
73085SOL    HW221095   3.126   0.992  14.156
73086SOL     OW21096  11.108   4.864   4.925
73086SOL    HW121097  11.125   4.956   4.904
73086SOL    HW221098  11.079   4.825   4.842
73087SOL     OW21099   0.470  12.809   6.081
73087SOL    HW121100   0.519  12.810   5.998
73087SOL    HW221101   0.537  12.816   6.149
73088SOL     OW21102   4.772  10.287   3.063
73088SOL    HW121103   4.845  10.345   3.040
73088SOL    HW221104   4.814  10.211   3.104
73089SOL     OW21105   7.234   6.555  10.613
73089SOL    HW121106   7.253   6.602  10.694
73089SOL    HW221107   7.273   6.469  10.625
73090SOL     OW21108  11.409  12.433  14.727
73090SOL    HW121109  11.398  12.338  14.733
73090SOL    HW221110  11.497  12.449  14.763
73091SOL     OW21111  12.338   0.122   0.990
73091SOL    HW121112  12.322   0.080   1.075
73091SOL    HW221113  12.375   0.207   1.013
73092SOL     OW21114  13.416   5.181   5.487
73092SOL    HW121115  13.509   5.167   5.505
73092SOL    HW221116  13.389   5.247   5.551
73093SOL     OW21117   3.743   1.384   0.054
73093SOL    HW121118   3.820   1.437   0.073
73093SOL    HW221119   3.757   1.351  14.842
73094SOL     OW21120   9.777   8.202  11.901
73094SOL    HW121121   9.693   8.162  11.921
73094SOL    HW221122   9.818   8.141  11.838
73095SOL     OW21123   9.802   0.649   7.584
73095SOL    HW121124   9.819   0.693   7.668
73095SOL    HW221125   9.887   0.612   7.559
73096SOL     OW21126  12.950   7.690  14.658
73096SOL    HW121127  12.862   7.654  14.649
73096SOL    HW221128  12.939   7.765  14.717
73097SOL     OW21129   9.434  12.626   8.133
73097SOL    HW121130   9.496  12.600   8.201
73097SOL    HW221131   9.361  12.565   8.142
73098SOL     OW21132   3.889  13.479  12.827
73098SOL    HW121133   3.826  13.480  12.899
73098SOL    HW221134   3.938  13.398  12.839
73099SOL     OW21135   9.523  12.423   6.447
73099SOL    HW121136   9.567  12.505   6.427
73099SOL    HW221137   9.559  12.360   6.385
73100SOL     OW21138  14.427   4.351  12.222
73100SOL    HW121139  14.386   4.264  12.224
73100SOL    HW221140  14.393   4.394  12.300
73101SOL     OW21141   5.529  10.473   3.820
73101SOL    HW121142   5.561  10.484   3.731
73101SOL    HW221143   5.599  10.427   3.866
73102SOL     OW21144   9.175  13.687   5.091
73102SOL    HW121145   9.231  13.611   5.107
73102SOL    HW221146   9.096  13.652   5.051
73103SOL     OW21147  13.145   9.752  10.877
73103SOL    HW121148  13.123   9.708  10.959
73103SOL    HW221149  13.173   9.681  10.819
73104SOL     OW21150   1.552   8.401  14.334
73104SOL    HW121151   1.598   8.442  14.261
73104SOL    HW221152   1.475   8.456  14.348
73105SOL     OW21153   8.736   6.322   5.833
73105SOL    HW121154   8.826   6.336   5.863
73105SOL    HW221155   8.746   6.282   5.746
73106SOL     OW21156   8.298   4.848  10.940
73106SOL    HW121157   8.270   4.872  11.029
73106SOL    HW221158   8.293   4.929  10.890
73107SOL     OW21159  13.666   7.438  10.702
73107SOL    HW121160  13.736   7.493  10.737
73107SOL    HW221161  13.624   7.492  10.635
73108SOL     OW21162   5.799   7.332   0.725
73108SOL    HW121163   5.855   7.265   0.763
73108SOL    HW221164   5.852   7.412   0.727
73109SOL     OW21165  14.287   1.551   6.022
73109SOL    HW121166  14.243   1.636   6.024
73109SOL    HW221167  14.289   1.528   5.929
73110SOL     OW21168  12.408   5.665   1.889
73110SOL    HW121169  12.342   5.600   1.864
73110SOL    HW221170  12.432   5.707   1.806
73111SOL     OW21171   2.167   2.056   1.006
73111SOL    HW121172   2.197   2.130   0.953
73111SOL    HW221173   2.208   1.979   0.965
73112SOL     OW21174   5.518   6.269   0.795
73112SOL    HW121175   5.604   6.231   0.780
73112SOL    HW221176   5.504   6.263   0.889
73113SOL     OW21177  10.199   8.188   8.030
73113SOL    HW121178  10.242   8.107   8.002
73113SOL    HW221179  10.112   8.184   7.990
73114SOL     OW21180   0.358  14.442   9.669
73114SOL    HW121181   0.306  14.480   9.740
73114SOL    HW221182   0.317  14.358   9.651
73115SOL     OW21183  14.368  12.346  13.220
73115SOL    HW121184  14.345  12.414  13.283
73115SOL    HW221185  14.284  12.313  13.188
73116SOL     OW21186   6.838   1.057   3.141
73116SOL    HW121187   6.928   1.075   3.112
73116SOL    HW221188   6.844   0.972   3.184
73117SOL     OW21189   8.134  12.594   7.163
73117SOL    HW121190   8.201  12.643   7.115
73117SOL    HW221191   8.053  12.610   7.114
73118SOL     OW21192  12.991   7.990   1.008
73118SOL    HW121193  13.064   7.952   0.958
73118SOL    HW221194  13.026   8.074   1.040
73119SOL     OW21195   1.831   1.254  11.748
73119SOL    HW121196   1.822   1.316  11.676
73119SOL    HW221197   1.833   1.168  11.706
73120SOL     OW21198   3.554   3.789   9.180
73120SOL    HW121199   3.569   3.818   9.091
73120SOL    HW221200   3.509   3.705   9.171
73121SOL     OW21201   1.370   2.835   2.021
73121SOL    HW121202   1.430   2.906   2.041
73121SOL    HW221203   1.288   2.860   2.063
73122SOL     OW21204   8.527   5.544  10.616
73122SOL    HW121205   8.456   5.504  10.666
73122SOL    HW221206   8.485   5.612  10.563
73123SOL     OW21207   3.856   5.744  13.324
73123SOL    HW121208   3.948   5.717  13.320
73123SOL    HW221209   3.812   5.671  13.366
73124SOL     OW21210  13.431  11.329   2.808
73124SOL    HW121211  13.460  11.273   2.735
73124SOL    HW221212  13.405  11.267   2.877
73125SOL     OW21213   0.729  12.230  10.075
73125SOL    HW121214   0.670  12.203  10.005
73125SOL    HW221215   0.676  12.226  10.154
73126SOL     OW21216   7.064   1.893  11.291
73126SOL    HW121217   7.154   1.888  11.259
73126SOL    HW221218   7.072   1.934  11.378
73127SOL     OW21219  12.665  10.668   8.360
73127SOL    HW121220  12.732  10.726   8.323
73127SOL    HW221221  12.695  10.650   8.449
73128SOL     OW21222   7.585  14.679   5.282
73128SOL    HW121223   7.503  14.672   5.330
73128SOL    HW221224   7.642  14.613   5.320
73129SOL     OW21225  11.770  12.174  12.644
73129SOL    HW121226  11.783  12.171  12.739
73129SOL    HW221227  11.837  12.115  12.610
73130SOL     OW21228   5.007   3.602   6.971
73130SOL    HW121229   5.056   3.531   6.931
73130SOL    HW221230   5.062   3.679   6.960
73131SOL     OW21231   2.163   6.948   1.254
73131SOL    HW121232   2.089   6.990   1.209
73131SOL    HW221233   2.189   7.011   1.321
73132SOL     OW21234   5.449  13.158   6.844
73132SOL    HW121235   5.480  13.087   6.901
73132SOL    HW221236   5.450  13.121   6.756
73133SOL     OW21237   5.877   5.978   7.593
73133SOL    HW121238   5.859   6.002   7.502
73133SOL    HW221239   5.866   6.059   7.642
73134SOL     OW21240   5.564  12.722   6.564
73134SOL    HW121241   5.474  12.754   6.576
73134SOL    HW221242   5.617  12.775   6.623
73135SOL     OW21243   0.444  12.352   9.640
73135SOL    HW121244   0.525  12.398   9.616
73135SOL    HW221245   0.380  12.421   9.653
73136SOL     OW21246  14.309   3.252   0.181
73136SOL    HW121247  14.251   3.268   0.107
73136SOL    HW221248  14.252   3.251   0.258
73137SOL     OW21249   2.952   0.548   4.945
73137SOL    HW121250   2.993   0.623   4.989
73137SOL    HW221251   2.939   0.578   4.855
73138SOL     OW21252   8.673   0.944   7.513
73138SOL    HW121253   8.659   0.930   7.419
73138SOL    HW221254   8.766   0.966   7.521
73139SOL     OW21255   8.497   4.102   1.102
73139SOL    HW121256   8.468   4.191   1.122
73139SOL    HW221257   8.576   4.090   1.154
73140SOL     OW21258  13.729   0.878   4.546
73140SOL    HW121259  13.782   0.921   4.613
73140SOL    HW221260  13.649   0.931   4.542
73141SOL     OW21261   5.927   0.167   6.405
73141SOL    HW121262   5.994   0.169   6.473
73141SOL    HW221263   5.977   0.153   6.324
73142SOL     OW21264   6.333  14.043  13.803
73142SOL    HW121265   6.335  14.101  13.880
73142SOL    HW221266   6.398  13.976  13.822
73143SOL     OW21267  11.079  10.165  14.666
73143SOL    HW121268  11.042  10.077  14.659
73143SOL    HW221269  11.010  10.216  14.709
73144SOL     OW21270   2.201   1.725  14.155
73144SOL    HW121271   2.138   1.656  14.133
73144SOL    HW221272   2.285   1.679  14.161
73145SOL     OW21273  14.236   7.310  10.778
73145SOL    HW121274  14.147   7.345  10.778
73145SOL    HW221275  14.267   7.325  10.867
73146SOL     OW21276   5.060   3.485   5.815
73146SOL    HW121277   5.088   3.494   5.907
73146SOL    HW221278   5.134   3.519   5.765
73147SOL     OW21279  12.848   8.918  13.026
73147SOL    HW121280  12.831   8.950  12.937
73147SOL    HW221281  12.941   8.899  13.028
73148SOL     OW21282  14.690   3.069  12.984
73148SOL    HW121283  14.679   2.975  12.968
73148SOL    HW221284  14.785   3.082  12.989
73149SOL     OW21285   3.432  11.523  10.201
73149SOL    HW121286   3.401  11.593  10.143
73149SOL    HW221287   3.402  11.442  10.158
73150SOL     OW21288  14.314   7.796  13.517
73150SOL    HW121289  14.252   7.809  13.445
73150SOL    HW221290  14.392   7.845  13.490
73151SOL     OW21291  12.564   3.280   1.527
73151SOL    HW121292  12.617   3.332   1.467
73151SOL    HW221293  12.543   3.200   1.479
73152SOL     OW21294   3.443  11.362   2.630
73152SOL    HW121295   3.503  11.288   2.635
73152SOL    HW221296   3.499  11.439   2.644
73153SOL     OW21297   4.131   7.808   1.838
73153SOL    HW121298   4.133   7.807   1.742
73153SOL    HW221299   4.219   7.837   1.863
73154SOL     OW21300   5.954   2.099   4.652
73154SOL    HW121301   5.881   2.120   4.710
73154SOL    HW221302   6.022   2.162   4.677
73155SOL     OW21303   4.720  12.738   8.198
73155SOL    HW121304   4.697  12.785   8.118
73155SOL    HW221305   4.797  12.686   8.174
73156SOL     OW21306   8.935  10.422   0.008
73156SOL    HW121307   9.012  10.463   0.048
73156SOL    HW221308   8.968  10.343  14.842
73157SOL     OW21309  12.717  10.478   0.983
73157SOL    HW121310  12.683  10.440   1.064
73157SOL    HW221311  12.810  10.494   1.002
73158SOL     OW21312   3.722   0.308   5.016
73158SOL    HW121313   3.770   0.367   4.958
73158SOL    HW221314   3.751   0.220   4.991
73159SOL     OW21315   4.984   5.426   4.190
73159SOL    HW121316   5.054   5.361   4.184
73159SOL    HW221317   5.029   5.510   4.175
73160SOL     OW21318   5.217   9.307   3.553
73160SOL    HW121319   5.192   9.225   3.597
73160SOL    HW221320   5.211   9.374   3.621
73161SOL     OW21321   8.648   0.274   4.798
73161SOL    HW121322   8.677   0.269   4.890
73161SOL    HW221323   8.576   0.337   4.798
73162SOL     OW21324  11.882   2.453   0.945
73162SOL    HW121325  11.907   2.477   0.855
73162SOL    HW221326  11.940   2.505   1.000
73163SOL     OW21327  12.993   6.462  10.961
73163SOL    HW121328  13.050   6.497  11.030
73163SOL    HW221329  12.995   6.529  10.893
73164SOL     OW21330   7.766   3.545   7.483
73164SOL    HW121331   7.718   3.463   7.493
73164SOL    HW221332   7.846   3.533   7.534
73165SOL     OW21333   5.159  11.859   0.390
73165SOL    HW121334   5.099  11.905   0.448
73165SOL    HW221335   5.108  11.788   0.352
73166SOL     OW21336   7.238   4.126   1.252
73166SOL    HW121337   7.154   4.128   1.207
73166SOL    HW221338   7.225   4.067   1.326
73167SOL     OW21339  12.087   8.875   9.111
73167SOL    HW121340  11.994   8.859   9.128
73167SOL    HW221341  12.102   8.841   9.023
73168SOL     OW21342   5.911  13.059   2.163
73168SOL    HW121343   5.956  12.976   2.177
73168SOL    HW221344   5.849  13.065   2.236
73169SOL     OW21345   7.773   3.555  14.243
73169SOL    HW121346   7.759   3.597  14.158
73169SOL    HW221347   7.812   3.623  14.297
73170SOL     OW21348  10.201  14.559   3.734
73170SOL    HW121349  10.181  14.619   3.662
73170SOL    HW221350  10.135  14.577   3.800
73171SOL     OW21351  11.489   8.064  12.460
73171SOL    HW121352  11.527   8.139  12.506
73171SOL    HW221353  11.521   7.988  12.507
73172SOL     OW21354  11.218   8.511  10.585
73172SOL    HW121355  11.234   8.432  10.534
73172SOL    HW221356  11.136   8.546  10.550
73173SOL     OW21357   9.035  14.322  13.771
73173SOL    HW121358   8.995  14.236  13.786
73173SOL    HW221359   9.110  14.304  13.715
73174SOL     OW21360  11.049   9.399   9.108
73174SOL    HW121361  11.036   9.310   9.141
73174SOL    HW221362  11.019   9.456   9.178
73175SOL     OW21363  11.353  14.015   2.073
73175SOL    HW121364  11.351  13.924   2.045
73175SOL    HW221365  11.442  14.045   2.054
73176SOL     OW21366   6.685   2.205   9.397
73176SOL    HW121367   6.646   2.195   9.483
73176SOL    HW221368   6.775   2.176   9.408
73177SOL     OW21369   8.405  12.690  12.715
73177SOL    HW121370   8.437  12.768  12.759
73177SOL    HW221371   8.378  12.632  12.786
73178SOL     OW21372  10.181   0.624  13.000
73178SOL    HW121373  10.108   0.583  12.954
73178SOL    HW221374  10.148   0.640  13.089
73179SOL     OW21375   1.810   1.735   1.333
73179SOL    HW121376   1.856   1.708   1.253
73179SOL    HW221377   1.730   1.777   1.301
73180SOL     OW21378   1.912   8.843   1.434
73180SOL    HW121379   1.989   8.843   1.377
73180SOL    HW221380   1.897   8.751   1.455
73181SOL     OW21381  12.846   9.363   5.628
73181SOL    HW121382  12.762   9.398   5.657
73181SOL    HW221383  12.823   9.300   5.559
73182SOL     OW21384   4.312   9.736   0.250
73182SOL    HW121385   4.371   9.719   0.177
73182SOL    HW221386   4.282   9.826   0.236
73183SOL     OW21387   5.158  13.193   6.214
73183SOL    HW121388   5.230  13.134   6.238
73183SOL    HW221389   5.175  13.273   6.263
73184SOL     OW21390   8.934  14.278  10.723
73184SOL    HW121391   8.976  14.319  10.647
73184SOL    HW221392   8.840  14.282  10.704
73185SOL     OW21393  13.866   5.805   1.161
73185SOL    HW121394  13.875   5.710   1.160
73185SOL    HW221395  13.787   5.822   1.110
73186SOL     OW21396  14.209   7.571   8.801
73186SOL    HW121397  14.241   7.486   8.771
73186SOL    HW221398  14.192   7.621   8.721
73187SOL     OW21399   1.218   3.022   5.829
73187SOL    HW121400   1.145   3.020   5.767
73187SOL    HW221401   1.259   3.107   5.816
73188SOL     OW21402   4.622   1.350  11.453
73188SOL    HW121403   4.616   1.432  11.404
73188SOL    HW221404   4.586   1.371  11.539
73189SOL     OW21405  14.240   8.903   5.624
73189SOL    HW121406  14.226   8.819   5.667
73189SOL    HW221407  14.153   8.943   5.620
73190SOL     OW21408   3.157   4.329   7.266
73190SOL    HW121409   3.093   4.396   7.241
73190SOL    HW221410   3.238   4.378   7.281
73191SOL     OW21411  13.114  10.278  13.260
73191SOL    HW121412  13.071  10.262  13.176
73191SOL    HW221413  13.194  10.325  13.237
73192SOL     OW21414   9.007   1.274   3.859
73192SOL    HW121415   8.940   1.266   3.791
73192SOL    HW221416   8.971   1.226   3.934
73193SOL     OW21417   7.512   4.589   5.513
73193SOL    HW121418   7.421   4.608   5.490
73193SOL    HW221419   7.539   4.523   5.450
73194SOL     OW21420  14.002   8.101  14.742
73194SOL    HW121421  13.960   8.184  14.765
73194SOL    HW221422  14.035   8.115  14.653
73195SOL     OW21423   1.058   1.897   0.840
73195SOL    HW121424   1.077   1.833   0.908
73195SOL    HW221425   0.995   1.853   0.783
73196SOL     OW21426   2.048   6.276   1.925
73196SOL    HW121427   1.989   6.223   1.979
73196SOL    HW221428   2.124   6.292   1.980
73197SOL     OW21429   8.939   6.987   8.190
73197SOL    HW121430   8.903   6.996   8.102
73197SOL    HW221431   8.888   6.916   8.229
73198SOL     OW21432  12.972   1.530   7.841
73198SOL    HW121433  12.946   1.578   7.920
73198SOL    HW221434  12.945   1.439   7.858
73199SOL     OW21435   2.159   0.949   3.685
73199SOL    HW121436   2.218   0.962   3.610
73199SOL    HW221437   2.127   1.037   3.705
73200SOL     OW21438   7.897   4.918  11.675
73200SOL    HW121439   7.969   4.914  11.738
73200SOL    HW221440   7.873   4.827  11.661
73201SOL     OW21441   9.767   8.992  14.844
73201SOL    HW121442   9.862   8.990  14.853
73201SOL    HW221443   9.737   9.048   0.039
73202SOL     OW21444   9.354  11.283  14.516
73202SOL    HW121445   9.358  11.260  14.609
73202SOL    HW221446   9.445  11.297  14.491
73203SOL     OW21447   9.359  14.263  12.355
73203SOL    HW121448   9.315  14.191  12.308
73203SOL    HW221449   9.297  14.336  12.349
73204SOL     OW21450   9.001   7.591   6.922
73204SOL    HW121451   9.058   7.521   6.890
73204SOL    HW221452   9.029   7.669   6.874
73205SOL     OW21453   9.781   3.576   2.511
73205SOL    HW121454   9.790   3.494   2.461
73205SOL    HW221455   9.846   3.568   2.581
73206SOL     OW21456   2.766  13.040   9.262
73206SOL    HW121457   2.808  12.955   9.250
73206SOL    HW221458   2.728  13.061   9.176
73207SOL     OW21459   1.821   0.393   2.014
73207SOL    HW121460   1.831   0.447   2.092
73207SOL    HW221461   1.876   0.317   2.030
73208SOL     OW21462   0.838  11.466  12.625
73208SOL    HW121463   0.916  11.518  12.605
73208SOL    HW221464   0.768  11.531  12.629
73209SOL     OW21465   3.441  10.934  12.294
73209SOL    HW121466   3.442  10.979  12.378
73209SOL    HW221467   3.442  11.005  12.229
73210SOL     OW21468   2.608   8.730   5.964
73210SOL    HW121469   2.619   8.816   5.924
73210SOL    HW221470   2.663   8.672   5.912
73211SOL     OW21471   5.873   1.304   6.843
73211SOL    HW121472   5.906   1.255   6.768
73211SOL    HW221473   5.784   1.329   6.818
73212SOL     OW21474   2.890   1.396  12.441
73212SOL    HW121475   2.925   1.481  12.467
73212SOL    HW221476   2.871   1.406  12.347
73213SOL     OW21477   1.244   3.072   0.395
73213SOL    HW121478   1.258   3.157   0.435
73213SOL    HW221479   1.177   3.031   0.450
73214SOL     OW21480  11.792  13.455   5.741
73214SOL    HW121481  11.841  13.404   5.676
73214SOL    HW221482  11.828  13.427   5.825
73215SOL     OW21483  11.066  10.341   8.112
73215SOL    HW121484  11.148  10.307   8.148
73215SOL    HW221485  11.003  10.269   8.125
73216SOL     OW21486   0.066  13.510  11.491
73216SOL    HW121487   0.033  13.584  11.440
73216SOL    HW221488   0.139  13.546  11.542
73217SOL     OW21489  10.785   8.023   3.386
73217SOL    HW121490  10.870   8.012   3.429
73217SOL    HW221491  10.806   8.065   3.302
73218SOL     OW21492   5.163   6.338   1.525
73218SOL    HW121493   5.181   6.382   1.442
73218SOL    HW221494   5.174   6.245   1.505
73219SOL     OW21495  13.921   2.546   6.167
73219SOL    HW121496  13.959   2.498   6.093
73219SOL    HW221497  13.908   2.480   6.234
73220SOL     OW21498  12.891   6.702   3.862
73220SOL    HW121499  12.970   6.654   3.839
73220SOL    HW221500  12.836   6.697   3.783
73221SOL     OW21501   2.705  13.827   5.062
73221SOL    HW121502   2.673  13.761   5.001
73221SOL    HW221503   2.791  13.794   5.090
73222SOL     OW21504  13.270  10.742   5.885
73222SOL    HW121505  13.206  10.806   5.914
73222SOL    HW221506  13.295  10.771   5.797
73223SOL     OW21507   4.051  13.216  10.725
73223SOL    HW121508   3.962  13.251  10.713
73223SOL    HW221509   4.108  13.286  10.693
73224SOL     OW21510  10.672  11.435  12.269
73224SOL    HW121511  10.643  11.388  12.191
73224SOL    HW221512  10.611  11.410  12.337
73225SOL     OW21513   4.412  10.097  14.613
73225SOL    HW121514   4.417  10.138  14.527
73225SOL    HW221515   4.319  10.077  14.625
73226SOL     OW21516   0.878   9.300   5.912
73226SOL    HW121517   0.926   9.377   5.882
73226SOL    HW221518   0.945   9.242   5.948
73227SOL     OW21519   2.172   0.580   2.075
73227SOL    HW121520   2.247   0.607   2.128
73227SOL    HW221521   2.102   0.566   2.138
73228SOL     OW21522   9.703  10.204   1.829
73228SOL    HW121523   9.630  10.178   1.773
73228SOL    HW221524   9.680  10.292   1.860
73229SOL     OW21525   5.780   8.702   7.933
73229SOL    HW121526   5.767   8.711   7.839
73229SOL    HW221527   5.875   8.708   7.944
73230SOL     OW21528   4.905   5.324   4.566
73230SOL    HW121529   4.997   5.349   4.568
73230SOL    HW221530   4.883   5.304   4.657
73231SOL     OW21531   5.993  13.722   2.122
73231SOL    HW121532   6.059  13.789   2.104
73231SOL    HW221533   5.981  13.677   2.037
73232SOL     OW21534  14.699  12.523   4.435
73232SOL    HW121535  14.776  12.558   4.479
73232SOL    HW221536  14.645  12.599   4.416
73233SOL     OW21537  12.776  13.725   6.414
73233SOL    HW121538  12.706  13.670   6.449
73233SOL    HW221539  12.785  13.697   6.322
73234SOL     OW21540   1.513   6.198  11.248
73234SOL    HW121541   1.542   6.271  11.193
73234SOL    HW221542   1.458   6.238  11.315
73235SOL     OW21543   7.828   0.931   8.999
73235SOL    HW121544   7.742   0.919   9.038
73235SOL    HW221545   7.890   0.906   9.068
73236SOL     OW21546   0.294   9.826  14.735
73236SOL    HW121547   0.361   9.895  14.735
73236SOL    HW221548   0.338   9.750  14.772
73237SOL     OW21549   1.757   6.451   0.680
73237SOL    HW121550   1.688   6.492   0.628
73237SOL    HW221551   1.786   6.377   0.627
73238SOL     OW21552   3.856  12.922  10.640
73238SOL    HW121553   3.811  12.907  10.557
73238SOL    HW221554   3.946  12.943  10.615
73239SOL     OW21555  12.310  13.805   3.748
73239SOL    HW121556  12.306  13.808   3.653
73239SOL    HW221557  12.378  13.869   3.771
73240SOL     OW21558   7.073   9.836   9.720
73240SOL    HW121559   7.082   9.900   9.790
73240SOL    HW221560   6.980   9.817   9.717
73241SOL     OW21561   5.445   1.020   1.200
73241SOL    HW121562   5.421   1.012   1.292
73241SOL    HW221563   5.488   1.105   1.193
73242SOL     OW21564  11.927   5.045   3.910
73242SOL    HW121565  11.914   5.013   3.821
73242SOL    HW221566  12.019   5.073   3.912
73243SOL     OW21567  12.104  14.127   4.716
73243SOL    HW121568  12.024  14.178   4.702
73243SOL    HW221569  12.091  14.084   4.800
73244SOL     OW21570   0.934  11.739   8.395
73244SOL    HW121571   0.936  11.668   8.331
73244SOL    HW221572   0.936  11.695   8.480
73245SOL     OW21573   8.137   1.726  14.480
73245SOL    HW121574   8.084   1.688  14.410
73245SOL    HW221575   8.155   1.653  14.539
73246SOL     OW21576   9.175   5.439  11.262
73246SOL    HW121577   9.124   5.362  11.287
73246SOL    HW221578   9.162   5.446  11.168
73247SOL     OW21579  13.732   0.510   1.472
73247SOL    HW121580  13.736   0.580   1.537
73247SOL    HW221581  13.640   0.505   1.447
73248SOL     OW21582   5.847   2.858  11.706
73248SOL    HW121583   5.810   2.910  11.777
73248SOL    HW221584   5.780   2.859  11.638
73249SOL     OW21585   9.602   6.182   4.132
73249SOL    HW121586   9.533   6.187   4.066
73249SOL    HW221587   9.619   6.088   4.141
73250SOL     OW21588   0.582  12.660  13.348
73250SOL    HW121589   0.516  12.720  13.314
73250SOL    HW221590   0.534  12.605  13.410
73251SOL     OW21591   7.947   8.001   1.084
73251SOL    HW121592   7.967   7.967   0.997
73251SOL    HW221593   8.022   7.976   1.137
73252SOL     OW21594   7.439  13.945   6.229
73252SOL    HW121595   7.531  13.932   6.208
73252SOL    HW221596   7.428  14.040   6.233
73253SOL     OW21597  14.113  13.679   1.648
73253SOL    HW121598  14.087  13.662   1.557
73253SOL    HW221599  14.150  13.767   1.647
73254SOL     OW21600   8.768  13.899  13.749
73254SOL    HW121601   8.787  13.861  13.835
73254SOL    HW221602   8.702  13.840  13.711
73255SOL     OW21603   5.630   2.272   7.011
73255SOL    HW121604   5.675   2.241   7.089
73255SOL    HW221605   5.699   2.302   6.953
73256SOL     OW21606   7.618   4.853  10.062
73256SOL    HW121607   7.705   4.857  10.102
73256SOL    HW221608   7.634   4.816   9.975
73257SOL     OW21609   9.204   1.762  13.267
73257SOL    HW121610   9.207   1.838  13.209
73257SOL    HW221611   9.130   1.710  13.236
73258SOL     OW21612  14.646   6.343   2.080
73258SOL    HW121613  14.643   6.351   1.985
73258SOL    HW221614  14.634   6.432   2.112
73259SOL     OW21615   9.036   7.076  12.095
73259SOL    HW121616   8.982   7.004  12.062
73259SOL    HW221617   8.981   7.153  12.085
73260SOL     OW21618   3.925   8.972   8.583
73260SOL    HW121619   3.940   9.062   8.612
73260SOL    HW221620   3.962   8.969   8.495
73261SOL     OW21621   6.300   2.254  11.896
73261SOL    HW121622   6.229   2.251  11.832
73261SOL    HW221623   6.347   2.335  11.876
73262SOL     OW21624  13.037  12.052  11.424
73262SOL    HW121625  13.011  12.004  11.502
73262SOL    HW221626  13.064  12.138  11.457
73263SOL     OW21627   2.258  13.418  12.448
73263SOL    HW121628   2.217  13.381  12.369
73263SOL    HW221629   2.186  13.458  12.496
73264SOL     OW21630   4.684  12.913  11.951
73264SOL    HW121631   4.642  12.996  11.930
73264SOL    HW221632   4.613  12.848  11.945
73265SOL     OW21633  14.297   9.240   9.786
73265SOL    HW121634  14.227   9.175   9.781
73265SOL    HW221635  14.377   9.190   9.770
73266SOL     OW21636   6.555   0.536  12.971
73266SOL    HW121637   6.521   0.602  12.911
73266SOL    HW221638   6.484   0.472  12.980
73267SOL     OW21639   3.162   3.039   5.359
73267SOL    HW121640   3.251   3.012   5.334
73267SOL    HW221641   3.106   2.992   5.297
73268SOL     OW21642   6.113   8.035   8.020
73268SOL    HW121643   6.109   8.064   7.929
73268SOL    HW221644   6.141   8.112   8.069
73269SOL     OW21645  11.908   3.220  10.374
73269SOL    HW121646  11.877   3.269  10.298
73269SOL    HW221647  11.998   3.195  10.352
73270SOL     OW21648  11.533  10.103   0.462
73270SOL    HW121649  11.453  10.151   0.481
73270SOL    HW221650  11.553  10.055   0.543
73271SOL     OW21651   3.986  10.927  11.661
73271SOL    HW121652   3.940  10.880  11.730
73271SOL    HW221653   4.061  10.967  11.704
73272SOL     OW21654   2.790   4.496   6.824
73272SOL    HW121655   2.765   4.440   6.750
73272SOL    HW221656   2.746   4.579   6.807
73273SOL     OW21657   0.193   7.853   9.692
73273SOL    HW121658   0.205   7.806   9.775
73273SOL    HW221659   0.281   7.865   9.658
73274SOL     OW21660   3.246   0.526   0.844
73274SOL    HW121661   3.253   0.437   0.877
73274SOL    HW221662   3.310   0.531   0.773
73275SOL     OW21663   4.156   9.216   4.242
73275SOL    HW121664   4.063   9.210   4.266
73275SOL    HW221665   4.158   9.283   4.174
73276SOL     OW21666   1.489   0.064  10.571
73276SOL    HW121667   1.412   0.090  10.621
73276SOL    HW221668   1.559   0.121  10.604
73277SOL     OW21669   4.406   4.313   5.331
73277SOL    HW121670   4.376   4.377   5.267
73277SOL    HW221671   4.330   4.298   5.387
73278SOL     OW21672  12.005   1.312  14.239
73278SOL    HW121673  11.935   1.317  14.304
73278SOL    HW221674  12.052   1.395  14.248
73279SOL     OW21675   0.321   7.045  11.184
73279SOL    HW121676   0.390   7.084  11.131
73279SOL    HW221677   0.252   7.112  11.186
73280SOL     OW21678  11.996  12.176   5.457
73280SOL    HW121679  12.075  12.206   5.504
73280SOL    HW221680  11.966  12.254   5.410
73281SOL     OW21681   5.303   6.684   2.380
73281SOL    HW121682   5.391   6.689   2.418
73281SOL    HW221683   5.262   6.767   2.405
73282SOL     OW21684   1.063  13.649   1.711
73282SOL    HW121685   1.072  13.601   1.629
73282SOL    HW221686   1.153  13.669   1.737
73283SOL     OW21687   4.663   2.633   6.980
73283SOL    HW121688   4.752   2.668   6.983
73283SOL    HW221689   4.636   2.644   6.889
73284SOL     OW21690   9.713   8.382  13.279
73284SOL    HW121691   9.728   8.444  13.351
73284SOL    HW221692   9.619   8.385  13.264
73285SOL     OW21693   4.392   2.640   5.423
73285SOL    HW121694   4.423   2.574   5.361
73285SOL    HW221695   4.340   2.700   5.370
73286SOL     OW21696   2.691   8.786   3.604
73286SOL    HW121697   2.607   8.747   3.626
73286SOL    HW221698   2.692   8.788   3.508
73287SOL     OW21699   2.791  13.052   9.562
73287SOL    HW121700   2.840  13.126   9.525
73287SOL    HW221701   2.777  12.993   9.488
73288SOL     OW21702  14.358   6.241   7.695
73288SOL    HW121703  14.407   6.222   7.775
73288SOL    HW221704  14.322   6.156   7.669
73289SOL     OW21705   5.277  10.405   1.450
73289SOL    HW121706   5.336  10.373   1.382
73289SOL    HW221707   5.220  10.331   1.469
73290SOL     OW21708   0.093   3.891  11.446
73290SOL    HW121709   0.172   3.923  11.402
73290SOL    HW221710   0.097   3.796  11.438
73291SOL     OW21711   5.387   7.237  10.250
73291SOL    HW121712   5.335   7.311  10.279
73291SOL    HW221713   5.359   7.221  10.159
73292SOL     OW21714   6.593   5.859   3.703
73292SOL    HW121715   6.527   5.879   3.637
73292SOL    HW221716   6.558   5.783   3.750
73293SOL     OW21717   8.637   6.193   4.018
73293SOL    HW121718   8.686   6.231   3.944
73293SOL    HW221719   8.705   6.170   4.082
73294SOL     OW21720   4.623   0.996  10.629
73294SOL    HW121721   4.652   0.922  10.576
73294SOL    HW221722   4.536   1.018  10.594
73295SOL     OW21723   4.303   1.768   0.702
73295SOL    HW121724   4.358   1.845   0.692
73295SOL    HW221725   4.215   1.802   0.712
73296SOL     OW21726  14.462   6.195   8.264
73296SOL    HW121727  14.512   6.207   8.184
73296SOL    HW221728  14.500   6.257   8.326
73297SOL     OW21729   6.169  11.013   2.494
73297SOL    HW121730   6.127  10.948   2.550
73297SOL    HW221731   6.217  10.961   2.429
73298SOL     OW21732   9.172   0.863   5.178
73298SOL    HW121733   9.089   0.905   5.200
73298SOL    HW221734   9.238   0.914   5.225
73299SOL     OW21735  10.682   7.147  10.860
73299SOL    HW121736  10.586   7.145  10.858
73299SOL    HW221737  10.704   7.173  10.949
73300SOL     OW21738  13.046   8.563   1.053
73300SOL    HW121739  12.989   8.640   1.064
73300SOL    HW221740  13.086   8.550   1.139
73301SOL     OW21741  14.224  14.466   5.222
73301SOL    HW121742  14.255  14.424   5.142
73301SOL    HW221743  14.225  14.560   5.203
73302SOL     OW21744  14.046   5.163   5.467
73302SOL    HW121745  14.049   5.208   5.383
73302SOL    HW221746  14.107   5.212   5.523
73303SOL     OW21747   2.505   5.422   5.293
73303SOL    HW121748   2.462   5.340   5.317
73303SOL    HW221749   2.583   5.426   5.348
73304SOL     OW21750  10.741   6.004  12.035
73304SOL    HW121751  10.698   5.932  11.990
73304SOL    HW221752  10.674   6.071  12.045
73305SOL     OW21753   0.833  12.659   4.820
73305SOL    HW121754   0.841  12.584   4.761
73305SOL    HW221755   0.892  12.638   4.893
73306SOL     OW21756  10.875   9.200   0.315
73306SOL    HW121757  10.929   9.278   0.325
73306SOL    HW221758  10.937   9.133   0.284
73307SOL     OW21759   6.094   6.797   8.784
73307SOL    HW121760   6.162   6.844   8.832
73307SOL    HW221761   6.081   6.716   8.834
73308SOL     OW21762  12.325  13.092  11.974
73308SOL    HW121763  12.380  13.169  11.956
73308SOL    HW221764  12.326  13.042  11.892
73309SOL     OW21765  10.381   4.320   6.156
73309SOL    HW121766  10.324   4.393   6.134
73309SOL    HW221767  10.326   4.242   6.146
73310SOL     OW21768  10.477   0.760   9.644
73310SOL    HW121769  10.554   0.806   9.609
73310SOL    HW221770  10.455   0.696   9.577
73311SOL     OW21771   2.378  12.881  13.643
73311SOL    HW121772   2.303  12.836  13.680
73311SOL    HW221773   2.375  12.969  13.682
73312SOL     OW21774  11.823   9.330   9.885
73312SOL    HW121775  11.890   9.285   9.834
73312SOL    HW221776  11.796   9.266   9.951
73313SOL     OW21777   8.147  10.108   9.941
73313SOL    HW121778   8.167  10.015   9.929
73313SOL    HW221779   8.082  10.127   9.873
73314SOL     OW21780   6.975   1.985  14.219
73314SOL    HW121781   6.994   2.028  14.303
73314SOL    HW221782   6.971   1.892  14.240
73315SOL     OW21783  13.751   2.212  14.569
73315SOL    HW121784  13.814   2.170  14.627
73315SOL    HW221785  13.746   2.303  14.600
73316SOL     OW21786   8.396  13.285  13.359
73316SOL    HW121787   8.405  13.198  13.397
73316SOL    HW221788   8.383  13.268  13.265
73317SOL     OW21789   4.098   1.072   0.194
73317SOL    HW121790   4.071   1.163   0.204
73317SOL    HW221791   4.193   1.075   0.189
73318SOL     OW21792   0.094   5.073  12.998
73318SOL    HW121793   0.050   5.025  13.068
73318SOL    HW221794   0.178   5.099  13.036
73319SOL     OW21795   4.851   4.732   4.645
73319SOL    HW121796   4.927   4.680   4.617
73319SOL    HW221797   4.788   4.667   4.675
73320SOL     OW21798   7.137   4.313   4.488
73320SOL    HW121799   7.139   4.327   4.583
73320SOL    HW221800   7.226   4.333   4.460
73321SOL     OW21801   1.831   0.785  11.116
73321SOL    HW121802   1.803   0.874  11.098
73321SOL    HW221803   1.896   0.794  11.186
73322SOL     OW21804  11.472   2.552   9.532
73322SOL    HW121805  11.518   2.519   9.609
73322SOL    HW221806  11.380   2.528   9.547
73323SOL     OW21807   2.776  13.736  11.015
73323SOL    HW121808   2.724  13.720  11.094
73323SOL    HW221809   2.717  13.715  10.943
73324SOL     OW21810   8.400   6.269   5.342
73324SOL    HW121811   8.439   6.346   5.384
73324SOL    HW221812   8.432   6.271   5.252
73325SOL     OW21813   0.939   3.927  14.573
73325SOL    HW121814   0.866   3.879  14.535
73325SOL    HW221815   0.897   4.000  14.620
73326SOL     OW21816   4.496   7.868  12.599
73326SOL    HW121817   4.537   7.786  12.572
73326SOL    HW221818   4.534   7.935  12.541
73327SOL     OW21819  13.511  13.005   2.291
73327SOL    HW121820  13.485  13.012   2.383
73327SOL    HW221821  13.429  12.990   2.244
73328SOL     OW21822   1.054   8.239   2.076
73328SOL    HW121823   1.082   8.273   1.991
73328SOL    HW221824   0.958   8.247   2.074
73329SOL     OW21825   1.950   9.411  14.305
73329SOL    HW121826   1.887   9.345  14.276
73329SOL    HW221827   2.030   9.362  14.321
73330SOL     OW21828   8.299   4.668   6.703
73330SOL    HW121829   8.374   4.609   6.695
73330SOL    HW221830   8.300   4.720   6.622
73331SOL     OW21831   4.209   4.593  11.754
73331SOL    HW121832   4.148   4.658  11.719
73331SOL    HW221833   4.163   4.509  11.743
73332SOL     OW21834   2.284  14.199  10.770
73332SOL    HW121835   2.223  14.236  10.706
73332SOL    HW221836   2.268  14.250  10.850
73333SOL     OW21837   3.107   2.201  10.400
73333SOL    HW121838   3.058   2.278  10.371
73333SOL    HW221839   3.128   2.154  10.318
73334SOL     OW21840   4.321  13.606   7.865
73334SOL    HW121841   4.314  13.511   7.867
73334SOL    HW221842   4.397  13.624   7.811
73335SOL     OW21843   4.315   8.586   8.343
73335SOL    HW121844   4.291   8.665   8.391
73335SOL    HW221845   4.238   8.565   8.291
73336SOL     OW21846   4.602  10.111   8.147
73336SOL    HW121847   4.600  10.203   8.174
73336SOL    HW221848   4.539  10.068   8.205
73337SOL     OW21849   8.140   9.096   8.774
73337SOL    HW121850   8.083   9.121   8.701
73337SOL    HW221851   8.215   9.155   8.767
73338SOL     OW21852  10.099  11.495   6.232
73338SOL    HW121853  10.041  11.526   6.300
73338SOL    HW221854  10.042  11.445   6.173
73339SOL     OW21855   2.359  11.936   7.489
73339SOL    HW121856   2.287  11.877   7.466
73339SOL    HW221857   2.325  11.989   7.561
73340SOL     OW21858   2.793  11.677   8.848
73340SOL    HW121859   2.807  11.623   8.927
73340SOL    HW221860   2.701  11.701   8.852
73341SOL     OW21861  14.159   6.732   3.863
73341SOL    HW121862  14.065   6.725   3.879
73341SOL    HW221863  14.166   6.769   3.775
73342SOL     OW21864   2.756   8.000   5.831
73342SOL    HW121865   2.818   7.986   5.902
73342SOL    HW221866   2.810   8.002   5.752
73343SOL     OW21867   4.729  11.253  13.008
73343SOL    HW121868   4.810  11.251  13.059
73343SOL    HW221869   4.660  11.229  13.070
73344SOL     OW21870  14.176   4.520   9.580
73344SOL    HW121871  14.127   4.455   9.530
73344SOL    HW221872  14.217   4.575   9.513
73345SOL     OW21873  14.331   9.641   2.103
73345SOL    HW121874  14.239   9.667   2.096
73345SOL    HW221875  14.370   9.705   2.162
73346SOL     OW21876   5.051   3.322   2.358
73346SOL    HW121877   4.957   3.330   2.346
73346SOL    HW221878   5.082   3.278   2.279
73347SOL     OW21879   6.304   1.685  10.788
73347SOL    HW121880   6.381   1.658  10.839
73347SOL    HW221881   6.309   1.780  10.785
73348SOL     OW21882  14.064   5.167   4.214
73348SOL    HW121883  13.991   5.217   4.178
73348SOL    HW221884  14.098   5.117   4.140
73349SOL     OW21885   1.588  13.490   9.419
73349SOL    HW121886   1.632  13.421   9.469
73349SOL    HW221887   1.657  13.552   9.398
73350SOL     OW21888   1.474  13.897   8.890
73350SOL    HW121889   1.385  13.888   8.858
73350SOL    HW221890   1.490  13.817   8.941
73351SOL     OW21891   4.849   9.961   7.312
73351SOL    HW121892   4.932   9.930   7.276
73351SOL    HW221893   4.791   9.885   7.307
73352SOL     OW21894   2.262   4.639   4.791
73352SOL    HW121895   2.219   4.598   4.866
73352SOL    HW221896   2.267   4.570   4.726
73353SOL     OW21897   6.637   0.443  11.221
73353SOL    HW121898   6.623   0.462  11.128
73353SOL    HW221899   6.662   0.527  11.259
73354SOL     OW21900   3.099  10.847   4.360
73354SOL    HW121901   3.119  10.914   4.424
73354SOL    HW221902   3.175  10.789   4.360
73355SOL     OW21903  10.335   1.281   2.871
73355SOL    HW121904  10.337   1.243   2.958
73355SOL    HW221905  10.265   1.234   2.825
73356SOL     OW21906   7.320   2.763   8.627
73356SOL    HW121907   7.239   2.762   8.576
73356SOL    HW221908   7.333   2.854   8.651
73357SOL     OW21909   3.035  10.788   6.954
73357SOL    HW121910   2.954  10.761   6.910
73357SOL    HW221911   3.083  10.838   6.889
73358SOL     OW21912   8.012   6.625   4.575
73358SOL    HW121913   8.100   6.614   4.611
73358SOL    HW221914   8.026   6.672   4.493
73359SOL     OW21915   2.940   7.334   8.312
73359SOL    HW121916   2.951   7.256   8.366
73359SOL    HW221917   2.854   7.325   8.273
73360SOL     OW21918   3.658   1.010   0.089
73360SOL    HW121919   3.615   1.072   0.148
73360SOL    HW221920   3.703   1.066   0.025
73361SOL     OW21921   3.499   8.182   2.720
73361SOL    HW121922   3.422   8.204   2.774
73361SOL    HW221923   3.485   8.231   2.639
73362SOL     OW21924  11.776  13.918   1.373
73362SOL    HW121925  11.737  14.001   1.399
73362SOL    HW221926  11.803  13.877   1.455
73363SOL     OW21927   6.214   3.977  11.335
73363SOL    HW121928   6.209   3.896  11.385
73363SOL    HW221929   6.287   3.965  11.276
73364SOL     OW21930   7.147   8.153   1.144
73364SOL    HW121931   7.059   8.116   1.149
73364SOL    HW221932   7.201   8.082   1.107
73365SOL     OW21933   6.891   8.063   3.994
73365SOL    HW121934   6.889   8.017   4.077
73365SOL    HW221935   6.954   8.015   3.941
73366SOL     OW21936   7.069   4.942   1.683
73366SOL    HW121937   6.997   4.880   1.690
73366SOL    HW221938   7.031   5.018   1.639
73367SOL     OW21939   1.959  14.011  13.529
73367SOL    HW121940   1.928  14.096  13.559
73367SOL    HW221941   2.018  14.030  13.457
73368SOL     OW21942  13.521   9.279   9.707
73368SOL    HW121943  13.525   9.242   9.619
73368SOL    HW221944  13.434   9.254   9.739
73369SOL     OW21945   6.701   9.879   3.818
73369SOL    HW121946   6.659   9.813   3.872
73369SOL    HW221947   6.795   9.870   3.837
73370SOL     OW21948   5.082   7.110   0.805
73370SOL    HW121949   5.138   7.121   0.728
73370SOL    HW221950   5.099   7.188   0.858
73371SOL     OW21951   1.062   4.030   5.159
73371SOL    HW121952   0.967   4.040   5.144
73371SOL    HW221953   1.069   3.954   5.216
73372SOL     OW21954  13.852  12.356  11.246
73372SOL    HW121955  13.783  12.421  11.238
73372SOL    HW221956  13.923  12.402  11.292
73373SOL     OW21957  14.592   5.440  13.021
73373SOL    HW121958  14.511   5.393  13.000
73373SOL    HW221959  14.650   5.372  13.056
73374SOL     OW21960   5.022   0.895  13.612
73374SOL    HW121961   5.002   0.805  13.638
73374SOL    HW221962   4.969   0.949  13.670
73375SOL     OW21963   3.806  14.788   2.968
73375SOL    HW121964   3.731  14.842   2.997
73375SOL    HW221965   3.767  14.705   2.941
73376SOL     OW21966   7.280   0.932   6.744
73376SOL    HW121967   7.322   0.851   6.771
73376SOL    HW221968   7.344   1.000   6.764
73377SOL     OW21969   7.745   7.996   8.069
73377SOL    HW121970   7.759   8.017   7.976
73377SOL    HW221971   7.675   8.055   8.096
73378SOL     OW21972   1.379   0.793   1.190
73378SOL    HW121973   1.382   0.805   1.095
73378SOL    HW221974   1.463   0.825   1.221
73379SOL     OW21975  12.782   5.913   6.816
73379SOL    HW121976  12.854   5.861   6.851
73379SOL    HW221977  12.773   5.883   6.725
73380SOL     OW21978   6.148  12.918  12.954
73380SOL    HW121979   6.128  13.011  12.966
73380SOL    HW221980   6.090  12.873  13.015
73381SOL     OW21981   7.708  14.442   0.161
73381SOL    HW121982   7.727  14.348   0.167
73381SOL    HW221983   7.684  14.456   0.070
73382SOL     OW21984   6.354   7.198   4.747
73382SOL    HW121985   6.327   7.284   4.781
73382SOL    HW221986   6.271   7.154   4.727
73383SOL     OW21987  12.077   2.636  14.661
73383SOL    HW121988  12.079   2.545  14.631
73383SOL    HW221989  12.158   2.674  14.628
73384SOL     OW21990   9.628  11.388   5.587
73384SOL    HW121991   9.693  11.446   5.628
73384SOL    HW221992   9.665  11.300   5.596
73385SOL     OW21993  14.307  12.603  14.460
73385SOL    HW121994  14.319  12.663  14.534
73385SOL    HW221995  14.386  12.548  14.461
73386SOL     OW21996   4.655  10.311   9.313
73386SOL    HW121997   4.698  10.226   9.313
73386SOL    HW221998   4.622  10.322   9.402
73387SOL     OW21999  12.004   3.067   7.383
73387SOL    HW122000  11.937   3.052   7.449
73387SOL    HW222001  12.026   3.160   7.393
73388SOL     OW22002   3.274   3.223   1.916
73388SOL    HW122003   3.270   3.314   1.946
73388SOL    HW222004   3.183   3.200   1.898
73389SOL     OW22005   9.038  12.560   5.554
73389SOL    HW122006   9.105  12.601   5.500
73389SOL    HW222007   8.964  12.547   5.494
73390SOL     OW22008  13.131   9.699  14.568
73390SOL    HW122009  13.075   9.770  14.599
73390SOL    HW222010  13.110   9.691  14.475
73391SOL     OW22011   1.999   7.856   9.245
73391SOL    HW122012   1.951   7.931   9.210
73391SOL    HW222013   1.990   7.864   9.340
73392SOL     OW22014   9.531   8.357  12.154
73392SOL    HW122015   9.518   8.264  12.173
73392SOL    HW222016   9.460   8.401  12.201
73393SOL     OW22017   0.575  14.721  12.759
73393SOL    HW122018   0.647  14.730  12.696
73393SOL    HW222019   0.502  14.688  12.708
73394SOL     OW22020   7.491   4.354   0.747
73394SOL    HW122021   7.408   4.342   0.792
73394SOL    HW222022   7.537   4.420   0.800
73395SOL     OW22023  13.313   1.036   2.910
73395SOL    HW122024  13.358   1.075   2.985
73395SOL    HW222025  13.375   0.971   2.876
73396SOL     OW22026   9.167   4.454  13.220
73396SOL    HW122027   9.138   4.522  13.281
73396SOL    HW222028   9.174   4.499  13.136
73397SOL     OW22029   7.841   2.048  12.813
73397SOL    HW122030   7.920   2.028  12.763
73397SOL    HW222031   7.775   2.068  12.746
73398SOL     OW22032   2.505   5.006   8.112
73398SOL    HW122033   2.425   4.990   8.163
73398SOL    HW222034   2.571   4.949   8.152
73399SOL     OW22035   7.827   6.124   6.617
73399SOL    HW122036   7.741   6.137   6.576
73399SOL    HW222037   7.875   6.205   6.597
73400SOL     OW22038   9.565   5.648   7.408
73400SOL    HW122039   9.530   5.725   7.363
73400SOL    HW222040   9.660   5.661   7.408
73401SOL     OW22041   0.818   4.779  10.936
73401SOL    HW122042   0.876   4.852  10.914
73401SOL    HW222043   0.741   4.820  10.975
73402SOL     OW22044  12.475   1.585  10.717
73402SOL    HW122045  12.411   1.525  10.680
73402SOL    HW222046  12.445   1.600  10.807
73403SOL     OW22047   1.976   0.034   1.795
73403SOL    HW122048   1.956  14.838   1.736
73403SOL    HW222049   2.068   0.022   1.819
73404SOL     OW22050   8.544   2.916   7.104
73404SOL    HW122051   8.458   2.926   7.062
73404SOL    HW222052   8.598   2.985   7.065
73405SOL     OW22053  11.469   6.076  14.162
73405SOL    HW122054  11.527   6.001  14.176
73405SOL    HW222055  11.400   6.065  14.227
73406SOL     OW22056   9.342  11.240  10.163
73406SOL    HW122057   9.429  11.265  10.132
73406SOL    HW222058   9.316  11.168  10.105
73407SOL     OW22059   4.343  13.270  13.023
73407SOL    HW122060   4.330  13.280  12.929
73407SOL    HW222061   4.409  13.336  13.046
73408SOL     OW22062  14.793   6.580   9.057
73408SOL    HW122063  14.791   6.492   9.021
73408SOL    HW222064  14.705   6.592   9.094
73409SOL     OW22065  13.880   7.334  11.060
73409SOL    HW122066  13.935   7.257  11.066
73409SOL    HW222067  13.814   7.323  11.129
73410SOL     OW22068  13.119   3.340   2.440
73410SOL    HW122069  13.153   3.260   2.399
73410SOL    HW222070  13.142   3.410   2.379
73411SOL     OW22071   2.873  12.741   4.962
73411SOL    HW122072   2.875  12.684   5.039
73411SOL    HW222073   2.780  12.745   4.938
73412SOL     OW22074  12.020   3.099   8.140
73412SOL    HW122075  12.002   3.091   8.046
73412SOL    HW222076  12.116   3.101   8.145
73413SOL     OW22077  12.610   8.169   1.119
73413SOL    HW122078  12.532   8.167   1.175
73413SOL    HW222079  12.641   8.078   1.119
73414SOL     OW22080  14.374   7.800   8.058
73414SOL    HW122081  14.358   7.894   8.059
73414SOL    HW222082  14.307   7.764   8.000
73415SOL     OW22083  11.318   5.817  13.795
73415SOL    HW122084  11.341   5.909  13.810
73415SOL    HW222085  11.299   5.812  13.701
73416SOL     OW22086  13.302  13.522   9.158
73416SOL    HW122087  13.272  13.431   9.162
73416SOL    HW222088  13.392  13.519   9.189
73417SOL     OW22089   6.829   1.586   3.823
73417SOL    HW122090   6.874   1.667   3.802
73417SOL    HW222091   6.785   1.560   3.742
73418SOL     OW22092   3.999  10.777  12.866
73418SOL    HW122093   4.038  10.748  12.784
73418SOL    HW222094   4.051  10.854  12.891
73419SOL     OW22095  11.584   6.080  12.017
73419SOL    HW122096  11.539   6.033  12.087
73419SOL    HW222097  11.606   6.012  11.953
73420SOL     OW22098  13.473  13.780  10.734
73420SOL    HW122099  13.518  13.717  10.791
73420SOL    HW222100  13.502  13.865  10.766
73421SOL     OW22101   8.681   9.428  10.279
73421SOL    HW122102   8.602   9.483  10.280
73421SOL    HW222103   8.698   9.414  10.186
73422SOL     OW22104   2.190   1.550   7.909
73422SOL    HW122105   2.167   1.473   7.961
73422SOL    HW222106   2.207   1.516   7.821
73423SOL     OW22107   8.046  13.551   3.574
73423SOL    HW122108   7.964  13.568   3.620
73423SOL    HW222109   8.049  13.456   3.565
73424SOL     OW22110   6.451   9.845   7.525
73424SOL    HW122111   6.400   9.779   7.571
73424SOL    HW222112   6.424   9.839   7.434
73425SOL     OW22113  11.204   6.313   5.568
73425SOL    HW122114  11.204   6.346   5.478
73425SOL    HW222115  11.118   6.339   5.603
73426SOL     OW22116   5.953   0.337   5.869
73426SOL    HW122117   5.916   0.265   5.819
73426SOL    HW222118   5.897   0.345   5.946
73427SOL     OW22119   1.688   0.032   1.822
73427SOL    HW122120   1.659   0.037   1.730
73427SOL    HW222121   1.780   0.059   1.819
73428SOL     OW22122   0.104   5.289   1.032
73428SOL    HW122123   0.185   5.269   0.985
73428SOL    HW222124   0.036   5.285   0.966
73429SOL     OW22125  13.980  13.978   5.564
73429SOL    HW122126  14.068  13.963   5.531
73429SOL    HW222127  13.970  13.917   5.636
73430SOL     OW22128   4.992   8.612  14.656
73430SOL    HW122129   4.918   8.611  14.716
73430SOL    HW222130   5.064   8.572  14.705
73431SOL     OW22131  10.072   8.014  12.204
73431SOL    HW122132  10.003   7.961  12.244
73431SOL    HW222133  10.152   7.961  12.213
73432SOL     OW22134  13.066  14.040   2.991
73432SOL    HW122135  12.974  14.032   3.015
73432SOL    HW222136  13.112  13.987   3.056
73433SOL     OW22137   2.498   8.473  11.919
73433SOL    HW122138   2.490   8.421  11.999
73433SOL    HW222139   2.564   8.539  11.940
73434SOL     OW22140  13.891   7.361  13.090
73434SOL    HW122141  13.901   7.451  13.060
73434SOL    HW222142  13.979   7.323  13.083
73435SOL     OW22143  14.166   3.878   6.798
73435SOL    HW122144  14.139   3.852   6.710
73435SOL    HW222145  14.102   3.836   6.856
73436SOL     OW22146   1.491  10.507  12.669
73436SOL    HW122147   1.583  10.506  12.692
73436SOL    HW222148   1.460  10.418  12.688
73437SOL     OW22149  14.608   8.655   7.603
73437SOL    HW122150  14.576   8.630   7.690
73437SOL    HW222151  14.701   8.636   7.605
73438SOL     OW22152   7.462  14.377   7.879
73438SOL    HW122153   7.417  14.361   7.796
73438SOL    HW222154   7.394  14.414   7.936
73439SOL     OW22155   0.372   1.218  11.133
73439SOL    HW122156   0.370   1.144  11.193
73439SOL    HW222157   0.280   1.235  11.113
73440SOL     OW22158   1.775   3.119  13.745
73440SOL    HW122159   1.737   3.200  13.778
73440SOL    HW222160   1.704   3.076  13.697
73441SOL     OW22161   5.468   4.335  10.556
73441SOL    HW122162   5.405   4.378  10.614
73441SOL    HW222163   5.522   4.406  10.522
73442SOL     OW22164   4.049   3.276   3.790
73442SOL    HW122165   3.968   3.323   3.773
73442SOL    HW222166   4.117   3.329   3.748
73443SOL     OW22167   0.470   9.555  12.516
73443SOL    HW122168   0.511   9.508  12.589
73443SOL    HW222169   0.431   9.487  12.462
73444SOL     OW22170  11.873   0.209   0.291
73444SOL    HW122171  11.963   0.241   0.295
73444SOL    HW222172  11.860   0.186   0.198
73445SOL     OW22173   1.747  14.830  14.549
73445SOL    HW122174   1.793  14.756  14.508
73445SOL    HW222175   1.663  14.793  14.576
73446SOL     OW22176  14.123  14.589  12.337
73446SOL    HW122177  14.106  14.619  12.247
73446SOL    HW222178  14.115  14.668  12.390
73447SOL     OW22179   5.164   9.271   6.703
73447SOL    HW122180   5.153   9.364   6.684
73447SOL    HW222181   5.237   9.244   6.647
73448SOL     OW22182   8.880  10.133   1.696
73448SOL    HW122183   8.824  10.056   1.685
73448SOL    HW222184   8.968  10.098   1.709
73449SOL     OW22185   6.895   3.465  13.293
73449SOL    HW122186   6.970   3.413  13.266
73449SOL    HW222187   6.911   3.552  13.256
73450SOL     OW22188   3.773   8.698   3.524
73450SOL    HW122189   3.865   8.701   3.499
73450SOL    HW222190   3.740   8.617   3.483
73451SOL     OW22191  11.044   5.830   6.871
73451SOL    HW122192  11.092   5.890   6.928
73451SOL    HW222193  11.111   5.795   6.812
73452SOL     OW22194   6.219   0.916  12.944
73452SOL    HW122195   6.131   0.884  12.926
73452SOL    HW222196   6.253   0.942  12.859
73453SOL     OW22197   2.598   7.750   7.738
73453SOL    HW122198   2.615   7.822   7.799
73453SOL    HW222199   2.505   7.730   7.750
73454SOL     OW22200   1.616   1.528  10.751
73454SOL    HW122201   1.685   1.555  10.691
73454SOL    HW222202   1.556   1.603  10.753
73455SOL     OW22203  11.152   0.542  11.944
73455SOL    HW122204  11.091   0.575  11.878
73455SOL    HW222205  11.177   0.455  11.913
73456SOL     OW22206  10.465   8.178  12.078
73456SOL    HW122207  10.502   8.181  11.989
73456SOL    HW222208  10.529   8.128  12.128
73457SOL     OW22209   7.431   9.927   5.477
73457SOL    HW122210   7.490  10.001   5.488
73457SOL    HW222211   7.480   9.852   5.508
73458SOL     OW22212   7.181   4.541   8.699
73458SOL    HW122213   7.194   4.513   8.608
73458SOL    HW222214   7.086   4.554   8.706
73459SOL     OW22215   0.195   4.861   8.421
73459SOL    HW122216   0.208   4.844   8.328
73459SOL    HW222217   0.106   4.831   8.439
73460SOL     OW22218  12.936  13.846  13.520
73460SOL    HW122219  13.017  13.864  13.473
73460SOL    HW222220  12.918  13.927  13.568
73461SOL     OW22221  12.580   4.509   7.934
73461SOL    HW122222  12.583   4.493   8.028
73461SOL    HW222223  12.650   4.573   7.918
73462SOL     OW22224   2.975  10.697   3.007
73462SOL    HW122225   2.928  10.659   2.933
73462SOL    HW222226   2.906  10.724   3.068
73463SOL     OW22227  13.719   5.158   7.099
73463SOL    HW122228  13.790   5.102   7.132
73463SOL    HW222229  13.642   5.101   7.103
73464SOL     OW22230   0.366  11.995   6.193
73464SOL    HW122231   0.442  12.054   6.192
73464SOL    HW222232   0.366  11.956   6.105
73465SOL     OW22233   2.589  11.968   0.654
73465SOL    HW122234   2.633  11.932   0.732
73465SOL    HW222235   2.660  12.004   0.601
73466SOL     OW22236  13.532   6.258   2.782
73466SOL    HW122237  13.464   6.324   2.765
73466SOL    HW222238  13.502   6.212   2.860
73467SOL     OW22239   2.623  11.934   7.196
73467SOL    HW122240   2.594  11.958   7.285
73467SOL    HW222241   2.570  11.989   7.138
73468SOL     OW22242  10.860  12.643  14.066
73468SOL    HW122243  10.852  12.702  14.141
73468SOL    HW222244  10.954  12.641  14.048
73469SOL     OW22245   6.158   4.686  13.378
73469SOL    HW122246   6.066   4.707  13.397
73469SOL    HW222247   6.155   4.635  13.297
73470SOL     OW22248  14.109  12.860   4.494
73470SOL    HW122249  14.108  12.837   4.402
73470SOL    HW222250  14.102  12.956   4.495
73471SOL     OW22251   9.397  10.977  14.609
73471SOL    HW122252   9.326  11.020  14.561
73471SOL    HW222253   9.374  10.884  14.607
73472SOL     OW22254  10.032   5.348   8.996
73472SOL    HW122255   9.947   5.344   8.953
73472SOL    HW222256  10.049   5.258   9.025
73473SOL     OW22257   3.369  12.336   0.127
73473SOL    HW122258   3.439  12.399   0.144
73473SOL    HW222259   3.288  12.383   0.147
73474SOL     OW22260   5.563   2.605   6.459
73474SOL    HW122261   5.560   2.701   6.463
73474SOL    HW222262   5.626   2.586   6.390
73475SOL     OW22263   5.451   6.475  13.601
73475SOL    HW122264   5.510   6.505  13.670
73475SOL    HW222265   5.379   6.539  13.602
73476SOL     OW22266   8.248   7.195   7.074
73476SOL    HW122267   8.311   7.130   7.104
73476SOL    HW222268   8.286   7.230   6.994
73477SOL     OW22269   3.422   5.545   9.756
73477SOL    HW122270   3.502   5.500   9.782
73477SOL    HW222271   3.435   5.635   9.786
73478SOL     OW22272   6.285   3.005  11.803
73478SOL    HW122273   6.203   3.054  11.809
73478SOL    HW222274   6.353   3.071  11.816
73479SOL     OW22275  14.790  11.720  11.967
73479SOL    HW122276  14.717  11.782  11.972
73479SOL    HW222277  14.864  11.774  11.936
73480SOL     OW22278   0.432   4.393  14.348
73480SOL    HW122279   0.441   4.464  14.285
73480SOL    HW222280   0.501   4.332  14.325
73481SOL     OW22281   3.873   0.154   0.000
73481SOL    HW122282   3.932   0.082  14.853
73481SOL    HW222283   3.785   0.118  14.864
73482SOL     OW22284  13.672   9.614   2.194
73482SOL    HW122285  13.715   9.616   2.280
73482SOL    HW222286  13.647   9.705   2.178
73483SOL     OW22287   7.057   4.028  13.674
73483SOL    HW122288   7.020   3.941  13.662
73483SOL    HW222289   7.110   4.021  13.754
73484SOL     OW22290   3.609   6.521   4.527
73484SOL    HW122291   3.587   6.457   4.594
73484SOL    HW222292   3.687   6.565   4.561
73485SOL     OW22293  11.032   5.308   7.307
73485SOL    HW122294  10.992   5.252   7.240
73485SOL    HW222295  11.112   5.261   7.332
73486SOL     OW22296   9.332  13.408   7.675
73486SOL    HW122297   9.289  13.442   7.597
73486SOL    HW222298   9.282  13.447   7.748
73487SOL     OW22299   2.155   4.649   2.734
73487SOL    HW122300   2.076   4.595   2.728
73487SOL    HW222301   2.217   4.594   2.783
73488SOL     OW22302  11.122  12.209  12.967
73488SOL    HW122303  11.135  12.151  13.042
73488SOL    HW222304  11.173  12.169  12.897
73489SOL     OW22305   7.462   6.733   0.647
73489SOL    HW122306   7.411   6.758   0.724
73489SOL    HW222307   7.553   6.739   0.675
73490SOL     OW22308   4.129   3.189   8.841
73490SOL    HW122309   4.076   3.217   8.915
73490SOL    HW222310   4.070   3.191   8.766
73491SOL     OW22311   9.057   6.543  11.049
73491SOL    HW122312   9.114   6.500  10.985
73491SOL    HW222313   9.005   6.605  10.998
73492SOL     OW22314   8.279  14.346   8.831
73492SOL    HW122315   8.374  14.351   8.841
73492SOL    HW222316   8.253  14.435   8.807
73493SOL     OW22317   0.127  14.088   4.711
73493SOL    HW122318   0.151  14.181   4.711
73493SOL    HW222319   0.093  14.071   4.623
73494SOL     OW22320   4.893   4.099  14.018
73494SOL    HW122321   4.970   4.125  13.969
73494SOL    HW222322   4.820   4.112  13.958
73495SOL     OW22323   6.120   4.621   7.812
73495SOL    HW122324   6.035   4.641   7.851
73495SOL    HW222325   6.116   4.527   7.792
73496SOL     OW22326   7.649  14.159   7.150
73496SOL    HW122327   7.652  14.080   7.204
73496SOL    HW222328   7.738  14.167   7.115
73497SOL     OW22329   3.274  14.797   3.558
73497SOL    HW122330   3.220  14.718   3.554
73497SOL    HW222331   3.262  14.831   3.646
73498SOL     OW22332  10.944   0.033   9.248
73498SOL    HW122333  11.018  14.850   9.242
73498SOL    HW222334  10.971   0.111   9.200
73499SOL     OW22335   7.915   2.042   9.794
73499SOL    HW122336   8.002   2.039   9.834
73499SOL    HW222337   7.870   1.964   9.827
73500SOL     OW22338   1.315  13.773  13.095
73500SOL    HW122339   1.285  13.815  13.175
73500SOL    HW222340   1.399  13.815  13.075
73501SOL     OW22341  10.711   9.779   1.950
73501SOL    HW122342  10.797   9.771   1.908
73501SOL    HW222343  10.732   9.788   2.044
73502SOL     OW22344   8.314   5.879  10.132
73502SOL    HW122345   8.384   5.916  10.079
73502SOL    HW222346   8.321   5.785  10.119
73503SOL     OW22347  13.119   7.234   2.573
73503SOL    HW122348  13.181   7.269   2.510
73503SOL    HW222349  13.041   7.213   2.521
73504SOL     OW22350   7.748   0.217   5.781
73504SOL    HW122351   7.737   0.149   5.714
73504SOL    HW222352   7.833   0.199   5.820
73505SOL     OW22353   3.483   7.874  14.110
73505SOL    HW122354   3.538   7.951  14.123
73505SOL    HW222355   3.544   7.800  14.119
73506SOL     OW22356   7.453   7.344   2.278
73506SOL    HW122357   7.510   7.338   2.355
73506SOL    HW222358   7.490   7.416   2.227
73507SOL     OW22359   3.684  10.683   8.281
73507SOL    HW122360   3.727  10.631   8.349
73507SOL    HW222361   3.756  10.715   8.227
73508SOL     OW22362   3.686   2.079  13.928
73508SOL    HW122363   3.725   2.013  13.985
73508SOL    HW222364   3.696   2.043  13.840
73509SOL     OW22365   0.798   1.860   4.091
73509SOL    HW122366   0.716   1.901   4.119
73509SOL    HW222367   0.820   1.798   4.161
73510SOL     OW22368   4.532   0.451  11.099
73510SOL    HW122369   4.438   0.432  11.107
73510SOL    HW222370   4.569   0.372  11.061
73511SOL     OW22371   9.774   4.508  10.680
73511SOL    HW122372   9.820   4.586  10.710
73511SOL    HW222373   9.729   4.475  10.758
73512SOL     OW22374  12.727   6.324   0.084
73512SOL    HW122375  12.801   6.361   0.133
73512SOL    HW222376  12.752   6.233   0.069
73513SOL     OW22377  12.786   1.016   8.326
73513SOL    HW122378  12.749   0.927   8.319
73513SOL    HW222379  12.877   1.002   8.353
73514SOL     OW22380  11.657   3.782   9.630
73514SOL    HW122381  11.601   3.711   9.661
73514SOL    HW222382  11.616   3.861   9.664
73515SOL     OW22383  10.690   8.021   4.761
73515SOL    HW122384  10.653   7.933   4.773
73515SOL    HW222385  10.781   8.005   4.735
73516SOL     OW22386   0.920   8.803   8.281
73516SOL    HW122387   0.953   8.720   8.317
73516SOL    HW222388   0.853   8.776   8.219
73517SOL     OW22389   5.239   9.640   1.193
73517SOL    HW122390   5.182   9.647   1.117
73517SOL    HW222391   5.179   9.626   1.267
73518SOL     OW22392  14.504   2.224   2.265
73518SOL    HW122393  14.554   2.202   2.344
73518SOL    HW222394  14.472   2.313   2.281
73519SOL     OW22395   7.895  10.386  13.844
73519SOL    HW122396   7.832  10.399  13.915
73519SOL    HW222397   7.918  10.475  13.816
73520SOL     OW22398  13.625  13.118  14.177
73520SOL    HW122399  13.685  13.150  14.111
73520SOL    HW222400  13.565  13.060  14.129
73521SOL     OW22401  13.899   8.015   5.825
73521SOL    HW122402  13.904   7.938   5.882
73521SOL    HW222403  13.884   7.980   5.738
73522SOL     OW22404  14.801   3.849   4.672
73522SOL    HW122405  14.718   3.846   4.625
73522SOL    HW222406  14.788   3.914   4.741
73523SOL     OW22407   9.711   3.146   0.024
73523SOL    HW122408   9.752   3.066  14.869
73523SOL    HW222409   9.675   3.123   0.110
73524SOL     OW22410  11.748  13.908  10.115
73524SOL    HW122411  11.686  13.877  10.049
73524SOL    HW222412  11.743  14.003  10.111
73525SOL     OW22413   3.920   3.025  14.432
73525SOL    HW122414   3.975   2.952  14.460
73525SOL    HW222415   3.972   3.103  14.453
73526SOL     OW22416   4.967   2.315   8.368
73526SOL    HW122417   4.925   2.235   8.400
73526SOL    HW222418   4.908   2.386   8.396
73527SOL     OW22419   8.089   7.198  10.107
73527SOL    HW122420   7.999   7.228  10.116
73527SOL    HW222421   8.082   7.105  10.088
73528SOL     OW22422   3.660  11.922   1.460
73528SOL    HW122423   3.585  11.897   1.514
73528SOL    HW222424   3.628  11.915   1.370
73529SOL     OW22425  10.327   2.661   5.756
73529SOL    HW122426  10.323   2.590   5.693
73529SOL    HW222427  10.358   2.620   5.837
73530SOL     OW22428   3.102   7.100   0.848
73530SOL    HW122429   3.073   7.033   0.910
73530SOL    HW222430   3.039   7.095   0.776
73531SOL     OW22431   3.808   3.110   1.560
73531SOL    HW122432   3.777   3.200   1.570
73531SOL    HW222433   3.820   3.079   1.649
73532SOL     OW22434   8.164   8.561  12.732
73532SOL    HW122435   8.118   8.612  12.666
73532SOL    HW222436   8.173   8.620  12.807
73533SOL     OW22437  10.659  14.577   8.097
73533SOL    HW122438  10.608  14.605   8.021
73533SOL    HW222439  10.697  14.658   8.131
73534SOL     OW22440   1.292   6.228   0.920
73534SOL    HW122441   1.372   6.225   0.866
73534SOL    HW222442   1.243   6.151   0.893
73535SOL     OW22443   4.966   2.799  13.302
73535SOL    HW122444   4.999   2.766  13.385
73535SOL    HW222445   4.946   2.721  13.251
73536SOL     OW22446  13.938   3.375   7.710
73536SOL    HW122447  13.894   3.326   7.641
73536SOL    HW222448  14.031   3.369   7.689
73537SOL     OW22449   6.556   0.952   5.999
73537SOL    HW122450   6.529   0.936   6.089
73537SOL    HW222451   6.484   1.001   5.960
73538SOL     OW22452  12.029   7.637   1.919
73538SOL    HW122453  12.090   7.673   1.983
73538SOL    HW222454  11.942   7.653   1.956
73539SOL     OW22455   5.757   5.435  10.979
73539SOL    HW122456   5.672   5.460  10.941
73539SOL    HW222457   5.812   5.512  10.966
73540SOL     OW22458  14.082  12.848   2.259
73540SOL    HW122459  14.112  12.937   2.279
73540SOL    HW222460  14.032  12.857   2.178
73541SOL     OW22461  14.371   2.380   0.984
73541SOL    HW122462  14.332   2.301   1.023
73541SOL    HW222463  14.323   2.453   1.023
73542SOL     OW22464  13.144   9.752  10.476
73542SOL    HW122465  13.092   9.822  10.515
73542SOL    HW222466  13.232   9.787  10.471
73543SOL     OW22467   9.965  10.536   9.012
73543SOL    HW122468   9.919  10.620   9.015
73543SOL    HW222469   9.980  10.514   9.104
73544SOL     OW22470   5.629   0.325   1.153
73544SOL    HW122471   5.576   0.367   1.220
73544SOL    HW222472   5.710   0.376   1.151
73545SOL     OW22473   3.096  12.260   9.024
73545SOL    HW122474   3.048  12.177   9.027
73545SOL    HW222475   3.065  12.303   8.945
73546SOL     OW22476   6.074   0.830   3.788
73546SOL    HW122477   5.980   0.849   3.792
73546SOL    HW222478   6.079   0.736   3.769
73547SOL     OW22479   4.718   1.622  12.153
73547SOL    HW122480   4.646   1.596  12.211
73547SOL    HW222481   4.716   1.718  12.154
73548SOL     OW22482  12.085   9.643  12.575
73548SOL    HW122483  12.172   9.611  12.551
73548SOL    HW222484  12.034   9.637  12.494
73549SOL     OW22485   1.504  11.323   9.627
73549SOL    HW122486   1.591  11.311   9.589
73549SOL    HW222487   1.444  11.284   9.563
73550SOL     OW22488   2.296   6.052  14.462
73550SOL    HW122489   2.327   6.094  14.382
73550SOL    HW222490   2.208   6.088  14.475
73551SOL     OW22491   9.763  10.610   7.115
73551SOL    HW122492   9.817  10.635   7.190
73551SOL    HW222493   9.696  10.677   7.111
73552SOL     OW22494  11.846   0.558   2.244
73552SOL    HW122495  11.880   0.505   2.171
73552SOL    HW222496  11.923   0.574   2.299
73553SOL     OW22497  12.449   8.105   0.841
73553SOL    HW122498  12.439   8.014   0.869
73553SOL    HW222499  12.533   8.132   0.879
73554SOL     OW22500  13.584   8.670   4.171
73554SOL    HW122501  13.615   8.596   4.119
73554SOL    HW222502  13.624   8.656   4.257
73555SOL     OW22503   8.912   9.169   8.984
73555SOL    HW122504   8.967   9.183   9.061
73555SOL    HW222505   8.954   9.097   8.938
73556SOL     OW22506  12.040  13.615  13.907
73556SOL    HW122507  12.001  13.663  13.980
73556SOL    HW222508  12.122  13.660  13.889
73557SOL     OW22509  12.112   7.610   6.304
73557SOL    HW122510  12.195   7.566   6.291
73557SOL    HW222511  12.046   7.549   6.269
73558SOL     OW22512  10.763   0.127  13.429
73558SOL    HW122513  10.817   0.086  13.361
73558SOL    HW222514  10.826   0.158  13.494
73559SOL     OW22515   9.176   9.711   1.114
73559SOL    HW122516   9.100   9.754   1.153
73559SOL    HW222517   9.251   9.745   1.164
73560SOL     OW22518   5.418  10.781  10.178
73560SOL    HW122519   5.368  10.833  10.241
73560SOL    HW222520   5.463  10.716  10.231
73561SOL     OW22521   3.785  12.787   5.715
73561SOL    HW122522   3.757  12.860   5.771
73561SOL    HW222523   3.766  12.709   5.766
73562SOL     OW22524   1.130  11.347  10.807
73562SOL    HW122525   1.098  11.257  10.812
73562SOL    HW222526   1.219  11.339  10.773
73563SOL     OW22527   9.836  12.591   8.769
73563SOL    HW122528   9.883  12.562   8.691
73563SOL    HW222529   9.781  12.663   8.737
73564SOL     OW22530   6.010   1.931   9.601
73564SOL    HW122531   5.968   1.983   9.670
73564SOL    HW222532   5.947   1.931   9.529
73565SOL     OW22533   1.796  11.100   2.355
73565SOL    HW122534   1.831  11.175   2.306
73565SOL    HW222535   1.823  11.024   2.305
73566SOL     OW22536   4.713   3.454  10.757
73566SOL    HW122537   4.711   3.482  10.665
73566SOL    HW222538   4.638   3.497  10.797
73567SOL     OW22539  12.888   6.739  14.668
73567SOL    HW122540  12.948   6.789  14.724
73567SOL    HW222541  12.816   6.714  14.726
73568SOL     OW22542   1.048   9.748  10.717
73568SOL    HW122543   0.965   9.706  10.739
73568SOL    HW222544   1.113   9.699  10.767
73569SOL     OW22545   2.126   5.448   5.891
73569SOL    HW122546   2.112   5.469   5.798
73569SOL    HW222547   2.200   5.388   5.891
73570SOL     OW22548   3.841   9.407  14.567
73570SOL    HW122549   3.860   9.329  14.619
73570SOL    HW222550   3.803   9.469  14.630
73571SOL     OW22551   4.673   4.849   6.395
73571SOL    HW122552   4.585   4.878   6.421
73571SOL    HW222553   4.707   4.803   6.472
73572SOL     OW22554  14.185   0.362   1.736
73572SOL    HW122555  14.185   0.273   1.699
73572SOL    HW222556  14.095   0.374   1.767
73573SOL     OW22557   4.305  11.751   8.173
73573SOL    HW122558   4.227  11.726   8.123
73573SOL    HW222559   4.365  11.785   8.107
73574SOL     OW22560  11.054   5.560   7.397
73574SOL    HW122561  11.068   5.592   7.308
73574SOL    HW222562  11.058   5.465   7.389
73575SOL     OW22563  10.586   5.990   7.480
73575SOL    HW122564  10.648   6.022   7.546
73575SOL    HW222565  10.511   5.960   7.530
73576SOL     OW22566   5.364  11.607  12.865
73576SOL    HW122567   5.355  11.702  12.859
73576SOL    HW222568   5.276  11.575  12.882
73577SOL     OW22569  11.641   0.653   6.834
73577SOL    HW122570  11.608   0.621   6.918
73577SOL    HW222571  11.564   0.689   6.790
73578SOL     OW22572   3.060   9.632  12.972
73578SOL    HW122573   3.105   9.717  12.970
73578SOL    HW222574   2.994   9.639  12.903
73579SOL     OW22575   2.402   6.428  12.745
73579SOL    HW122576   2.432   6.380  12.668
73579SOL    HW222577   2.402   6.520  12.718
73580SOL     OW22578   1.595   8.683   3.643
73580SOL    HW122579   1.579   8.746   3.714
73580SOL    HW222580   1.508   8.659   3.612
73581SOL     OW22581   3.206  12.661   1.946
73581SOL    HW122582   3.204  12.643   2.040
73581SOL    HW222583   3.205  12.757   1.940
73582SOL     OW22584  10.150   7.718  14.088
73582SOL    HW122585  10.116   7.643  14.040
73582SOL    HW222586  10.155   7.688  14.179
73583SOL     OW22587  14.713   0.142  11.177
73583SOL    HW122588  14.769   0.193  11.119
73583SOL    HW222589  14.774   0.096  11.236
73584SOL     OW22590   4.244   2.280   5.042
73584SOL    HW122591   4.219   2.367   5.074
73584SOL    HW222592   4.161   2.235   5.026
73585SOL     OW22593  13.201   2.040   5.388
73585SOL    HW122594  13.273   2.007   5.333
73585SOL    HW222595  13.166   1.962   5.431
73586SOL     OW22596  11.671   9.405   7.994
73586SOL    HW122597  11.589   9.364   7.968
73586SOL    HW222598  11.738   9.360   7.944
73587SOL     OW22599   4.002  14.858   4.075
73587SOL    HW122600   3.961   0.055   4.029
73587SOL    HW222601   4.026   0.018   4.160
73588SOL     OW22602   1.010   3.804   6.848
73588SOL    HW122603   0.920   3.781   6.826
73588SOL    HW222604   1.002   3.880   6.906
73589SOL     OW22605   8.148  13.402   9.777
73589SOL    HW122606   8.186  13.475   9.729
73589SOL    HW222607   8.219  13.339   9.786
73590SOL     OW22608   6.718   0.969   8.358
73590SOL    HW122609   6.697   0.898   8.419
73590SOL    HW222610   6.651   1.035   8.374
73591SOL     OW22611   5.133  14.489   6.724
73591SOL    HW122612   5.177  14.542   6.657
73591SOL    HW222613   5.201  14.434   6.760
73592SOL     OW22614   0.773  13.895  10.826
73592SOL    HW122615   0.866  13.893  10.804
73592SOL    HW222616   0.744  13.805  10.818
73593SOL     OW22617   8.223  13.248  11.852
73593SOL    HW122618   8.162  13.200  11.907
73593SOL    HW222619   8.274  13.181  11.808
73594SOL     OW22620   4.935   7.420   7.895
73594SOL    HW122621   4.940   7.337   7.847
73594SOL    HW222622   5.008   7.472   7.861
73595SOL     OW22623   8.650   8.016   8.450
73595SOL    HW122624   8.718   7.970   8.402
73595SOL    HW222625   8.609   8.073   8.385
73596SOL     OW22626  10.848   7.625   1.216
73596SOL    HW122627  10.768   7.626   1.268
73596SOL    HW222628  10.889   7.540   1.236
73597SOL     OW22629   0.402   0.159  13.157
73597SOL    HW122630   0.323   0.210  13.171
73597SOL    HW222631   0.373   0.080  13.112
73598SOL     OW22632   3.987   3.021   2.822
73598SOL    HW122633   4.010   3.076   2.747
73598SOL    HW222634   3.972   2.934   2.785
73599SOL     OW22635  12.747   3.555   4.326
73599SOL    HW122636  12.755   3.485   4.391
73599SOL    HW222637  12.830   3.601   4.329
73600SOL     OW22638   2.587   8.282   1.868
73600SOL    HW122639   2.648   8.347   1.834
73600SOL    HW222640   2.634   8.199   1.860
73601SOL     OW22641  10.217  11.658   9.822
73601SOL    HW122642  10.194  11.667   9.730
73601SOL    HW222643  10.218  11.563   9.837
73602SOL     OW22644   5.585  11.915   7.837
73602SOL    HW122645   5.606  11.857   7.764
73602SOL    HW222646   5.665  11.965   7.852
73603SOL     OW22647   0.637   7.635   8.169
73603SOL    HW122648   0.719   7.632   8.120
73603SOL    HW222649   0.637   7.554   8.221
73604SOL     OW22650   3.776   6.940   4.026
73604SOL    HW122651   3.712   6.970   3.960
73604SOL    HW222652   3.817   6.863   3.986
73605SOL     OW22653  13.450  11.733  13.340
73605SOL    HW122654  13.507  11.803  13.309
73605SOL    HW222655  13.456  11.737  13.435
73606SOL     OW22656  13.103  11.011  11.814
73606SOL    HW122657  13.019  10.964  11.809
73606SOL    HW222658  13.135  11.012  11.724
73607SOL     OW22659  13.961  10.490   8.969
73607SOL    HW122660  13.912  10.408   8.972
73607SOL    HW222661  13.905  10.553   9.013
73608SOL     OW22662   2.349  12.678   6.762
73608SOL    HW122663   2.299  12.753   6.731
73608SOL    HW222664   2.439  12.697   6.735
73609SOL     OW22665   3.101  12.571  10.034
73609SOL    HW122666   3.155  12.643  10.067
73609SOL    HW222667   3.071  12.601   9.948
73610SOL     OW22668   6.873   2.856   5.182
73610SOL    HW122669   6.843   2.946   5.181
73610SOL    HW222670   6.874   2.831   5.275
73611SOL     OW22671  12.472   3.470   7.092
73611SOL    HW122672  12.525   3.409   7.040
73611SOL    HW222673  12.398   3.417   7.122
73612SOL     OW22674  13.323  12.663   7.981
73612SOL    HW122675  13.256  12.732   7.988
73612SOL    HW222676  13.305  12.605   8.055
73613SOL     OW22677   6.806  13.950  13.253
73613SOL    HW122678   6.755  13.890  13.307
73613SOL    HW222679   6.796  14.035  13.295
73614SOL     OW22680   0.390  14.509   7.068
73614SOL    HW122681   0.452  14.543   7.133
73614SOL    HW222682   0.427  14.534   6.983
73615SOL     OW22683  11.428  14.255   6.510
73615SOL    HW122684  11.456  14.222   6.595
73615SOL    HW222685  11.505  14.246   6.454
73616SOL     OW22686  12.285  11.143  14.876
73616SOL    HW122687  12.250  11.082  14.811
73616SOL    HW222688  12.325  11.087   0.066
73617SOL     OW22689  13.122   9.202   9.249
73617SOL    HW122690  13.069   9.282   9.244
73617SOL    HW222691  13.061   9.134   9.279
73618SOL     OW22692   0.427   0.258   7.631
73618SOL    HW122693   0.439   0.182   7.575
73618SOL    HW222694   0.389   0.324   7.573
73619SOL     OW22695   0.372   6.094  11.528
73619SOL    HW122696   0.291   6.050  11.501
73619SOL    HW222697   0.355   6.187  11.512
73620SOL     OW22698   3.475   3.881   1.366
73620SOL    HW122699   3.462   3.820   1.294
73620SOL    HW222700   3.538   3.837   1.424
73621SOL     OW22701   4.246  14.356  10.868
73621SOL    HW122702   4.202  14.338  10.785
73621SOL    HW222703   4.304  14.430  10.849
73622SOL     OW22704   0.855   1.289   0.419
73622SOL    HW122705   0.839   1.195   0.429
73622SOL    HW222706   0.802   1.330   0.488
73623SOL     OW22707   1.692  10.984  10.824
73623SOL    HW122708   1.604  10.988  10.787
73623SOL    HW222709   1.750  10.996  10.749
73624SOL     OW22710  13.843  12.435   5.264
73624SOL    HW122711  13.925  12.411   5.308
73624SOL    HW222712  13.864  12.432   5.171
73625SOL     OW22713   8.278  11.509  10.224
73625SOL    HW122714   8.253  11.494  10.315
73625SOL    HW222715   8.232  11.588  10.199
73626SOL     OW22716   7.806  11.370   9.019
73626SOL    HW122717   7.889  11.417   9.029
73626SOL    HW222718   7.739  11.436   9.035
73627SOL     OW22719   4.084   6.072   4.309
73627SOL    HW122720   4.125   5.988   4.330
73627SOL    HW222721   4.158   6.133   4.303
73628SOL     OW22722   2.504   4.500   3.493
73628SOL    HW122723   2.435   4.560   3.521
73628SOL    HW222724   2.466   4.452   3.419
73629SOL     OW22725   9.728   3.653  12.946
73629SOL    HW122726   9.678   3.628  13.023
73629SOL    HW222727   9.691   3.600  12.875
73630SOL     OW22728   4.460   0.972  13.027
73630SOL    HW122729   4.367   0.949  13.020
73630SOL    HW222730   4.473   0.987  13.121
73631SOL     OW22731   8.060   9.619   5.539
73631SOL    HW122732   8.005   9.662   5.474
73631SOL    HW222733   8.143   9.604   5.495
73632SOL     OW22734  12.163   2.795  10.111
73632SOL    HW122735  12.188   2.849  10.036
73632SOL    HW222736  12.242   2.746  10.132
73633SOL     OW22737   0.631   3.429   9.501
73633SOL    HW122738   0.553   3.484   9.499
73633SOL    HW222739   0.679   3.453   9.422
73634SOL     OW22740   1.927   1.585   0.832
73634SOL    HW122741   1.866   1.511   0.836
73634SOL    HW222742   1.909   1.636   0.911
73635SOL     OW22743   6.638  13.732   3.151
73635SOL    HW122744   6.592  13.801   3.198
73635SOL    HW222745   6.702  13.699   3.214
73636SOL     OW22746  13.233  11.203  14.514
73636SOL    HW122747  13.150  11.225  14.557
73636SOL    HW222748  13.209  11.192  14.422
73637SOL     OW22749   5.196   6.912   2.492
73637SOL    HW122750   5.101   6.910   2.493
73637SOL    HW222751   5.222   6.928   2.583
73638SOL     OW22752   9.696   8.026  14.209
73638SOL    HW122753   9.769   8.051  14.266
73638SOL    HW222754   9.645   7.964  14.261
73639SOL     OW22755   1.931   9.355   1.498
73639SOL    HW122756   1.852   9.301   1.511
73639SOL    HW222757   1.962   9.372   1.587
73640SOL     OW22758   0.738   9.750   2.701
73640SOL    HW122759   0.770   9.827   2.749
73640SOL    HW222760   0.704   9.785   2.619
73641SOL     OW22761   1.261   3.799   3.516
73641SOL    HW122762   1.311   3.735   3.465
73641SOL    HW222763   1.260   3.878   3.461
73642SOL     OW22764   8.543   4.006  11.139
73642SOL    HW122765   8.485   3.965  11.203
73642SOL    HW222766   8.486   4.022  11.063
73643SOL     OW22767  11.239  13.473  12.380
73643SOL    HW122768  11.272  13.563  12.379
73643SOL    HW222769  11.260  13.440  12.293
73644SOL     OW22770   1.752   2.679  13.316
73644SOL    HW122771   1.835   2.689  13.361
73644SOL    HW222772   1.694   2.742  13.358
73645SOL     OW22773  12.454  10.697   3.321
73645SOL    HW122774  12.391  10.756   3.279
73645SOL    HW222775  12.402  10.621   3.347
73646SOL     OW22776   5.745  10.405   8.056
73646SOL    HW122777   5.708  10.391   8.143
73646SOL    HW222778   5.828  10.358   8.057
73647SOL     OW22779   9.803  14.631   8.205
73647SOL    HW122780   9.861  14.627   8.129
73647SOL    HW222781   9.817  14.549   8.250
73648SOL     OW22782   3.489  14.242  13.925
73648SOL    HW122783   3.439  14.217  13.847
73648SOL    HW222784   3.539  14.164  13.948
73649SOL     OW22785  10.733  11.298   6.493
73649SOL    HW122786  10.677  11.376   6.496
73649SOL    HW222787  10.673  11.225   6.506
73650SOL     OW22788   8.427   6.842   8.695
73650SOL    HW122789   8.350   6.821   8.642
73650SOL    HW222790   8.405   6.925   8.737
73651SOL     OW22791  11.375  11.484   7.618
73651SOL    HW122792  11.384  11.524   7.705
73651SOL    HW222793  11.367  11.558   7.558
73652SOL     OW22794   6.659   5.909  12.325
73652SOL    HW122795   6.642   5.899  12.419
73652SOL    HW222796   6.733   5.851  12.308
73653SOL     OW22797  11.275  13.306   4.168
73653SOL    HW122798  11.247  13.272   4.084
73653SOL    HW222799  11.364  13.273   4.179
73654SOL     OW22800  13.483  13.790   3.127
73654SOL    HW122801  13.514  13.854   3.191
73654SOL    HW222802  13.562  13.746   3.096
73655SOL     OW22803   1.628   1.737   7.954
73655SOL    HW122804   1.540   1.771   7.971
73655SOL    HW222805   1.626   1.710   7.863
73656SOL     OW22806   9.709   4.958   0.725
73656SOL    HW122807   9.700   5.024   0.794
73656SOL    HW222808   9.673   4.878   0.765
73657SOL     OW22809   3.039   0.028   6.123
73657SOL    HW122810   2.999  14.817   6.120
73657SOL    HW222811   2.966   0.088   6.106
73658SOL     OW22812   2.031   6.113   5.624
73658SOL    HW122813   1.947   6.152   5.599
73658SOL    HW222814   2.067   6.173   5.689
73659SOL     OW22815   6.082   6.156   0.578
73659SOL    HW122816   6.049   6.227   0.523
73659SOL    HW222817   6.064   6.186   0.668
73660SOL     OW22818   0.617   1.763  11.980
73660SOL    HW122819   0.633   1.853  12.011
73660SOL    HW222820   0.557   1.726  12.045
73661SOL     OW22821  12.948   4.527   7.399
73661SOL    HW122822  13.002   4.486   7.467
73661SOL    HW222823  12.993   4.506   7.317
73662SOL     OW22824   3.955   2.187   5.913
73662SOL    HW122825   4.021   2.118   5.926
73662SOL    HW222826   3.891   2.171   5.983
73663SOL     OW22827  14.100   0.951   0.415
73663SOL    HW122828  14.010   0.934   0.443
73663SOL    HW222829  14.150   0.952   0.497
73664SOL     OW22830  10.650  14.871  11.848
73664SOL    HW122831  10.696  14.857  11.765
73664SOL    HW222832  10.719   0.003  11.913
73665SOL     OW22833   1.763  10.547   9.288
73665SOL    HW122834   1.774  10.513   9.199
73665SOL    HW222835   1.697  10.616   9.278
73666SOL     OW22836   3.003   0.220   3.805
73666SOL    HW122837   2.953   0.284   3.855
73666SOL    HW222838   2.944   0.145   3.796
73667SOL     OW22839  10.920   9.162  12.529
73667SOL    HW122840  10.925   9.094  12.462
73667SOL    HW222841  10.984   9.228  12.501
73668SOL     OW22842   3.254   5.033  10.809
73668SOL    HW122843   3.195   4.964  10.777
73668SOL    HW222844   3.291   5.071  10.729
73669SOL     OW22845  12.484   5.364   4.605
73669SOL    HW122846  12.477   5.448   4.559
73669SOL    HW222847  12.399   5.323   4.593
73670SOL     OW22848   2.822   2.830   1.202
73670SOL    HW122849   2.751   2.871   1.250
73670SOL    HW222850   2.902   2.859   1.247
73671SOL     OW22851   2.455   0.884  14.841
73671SOL    HW122852   2.388   0.952  14.842
73671SOL    HW222853   2.471   0.868  14.748
73672SOL     OW22854  14.483   3.936   5.009
73672SOL    HW122855  14.570   3.899   4.996
73672SOL    HW222856  14.487   4.022   4.967
73673SOL     OW22857   3.808  11.191   6.318
73673SOL    HW122858   3.885  11.244   6.299
73673SOL    HW222859   3.739  11.231   6.265
73674SOL     OW22860   7.744   0.146  12.187
73674SOL    HW122861   7.781   0.144  12.098
73674SOL    HW222862   7.817   0.176  12.242
73675SOL     OW22863   6.431   2.313   1.180
73675SOL    HW122864   6.388   2.277   1.103
73675SOL    HW222865   6.504   2.254   1.198
73676SOL     OW22866   7.376   5.593   1.898
73676SOL    HW122867   7.302   5.605   1.958
73676SOL    HW222868   7.439   5.660   1.923
73677SOL     OW22869   9.449   5.982   2.637
73677SOL    HW122870   9.530   6.016   2.675
73677SOL    HW222871   9.472   5.964   2.546
73678SOL     OW22872   4.943   5.614   2.995
73678SOL    HW122873   4.895   5.668   3.059
73678SOL    HW222874   4.988   5.677   2.939
73679SOL     OW22875  10.496   9.584   7.210
73679SOL    HW122876  10.583   9.596   7.171
73679SOL    HW222877  10.449   9.665   7.188
73680SOL     OW22878   1.238  13.043   5.477
73680SOL    HW122879   1.195  13.109   5.423
73680SOL    HW222880   1.175  12.971   5.483
73681SOL     OW22881   9.743   0.379   7.816
73681SOL    HW122882   9.826   0.369   7.769
73681SOL    HW222883   9.696   0.298   7.800
73682SOL     OW22884  14.304   4.894   1.038
73682SOL    HW122885  14.275   4.910   1.128
73682SOL    HW222886  14.372   4.827   1.046
73683SOL     OW22887  11.757   3.135   8.287
73683SOL    HW122888  11.723   3.109   8.201
73683SOL    HW222889  11.835   3.186   8.268
73684SOL     OW22890  14.335   0.866   8.098
73684SOL    HW122891  14.241   0.877   8.110
73684SOL    HW222892  14.345   0.842   8.006
73685SOL     OW22893  14.766  10.311  12.246
73685SOL    HW122894  14.839  10.348  12.197
73685SOL    HW222895  14.741  10.379  12.308
73686SOL     OW22896   2.130  14.749   0.399
73686SOL    HW122897   2.130  14.706   0.484
73686SOL    HW222898   2.059  14.813   0.404
73687SOL     OW22899   1.590  12.826   0.211
73687SOL    HW122900   1.587  12.732   0.227
73687SOL    HW222901   1.638  12.835   0.128
73688SOL     OW22902   7.846  10.463  10.075
73688SOL    HW122903   7.758  10.500  10.073
73688SOL    HW222904   7.836  10.383  10.127
73689SOL     OW22905   0.423   1.557  10.720
73689SOL    HW122906   0.473   1.539  10.799
73689SOL    HW222907   0.435   1.651  10.705
73690SOL     OW22908   2.145   1.161   0.756
73690SOL    HW122909   2.165   1.214   0.833
73690SOL    HW222910   2.066   1.200   0.720
73691SOL     OW22911   1.056   6.732   3.510
73691SOL    HW122912   0.979   6.702   3.559
73691SOL    HW222913   1.119   6.660   3.519
73692SOL     OW22914   9.846   5.837   9.617
73692SOL    HW122915   9.940   5.842   9.635
73692SOL    HW222916   9.810   5.915   9.658
73693SOL     OW22917  10.673  11.276   9.191
73693SOL    HW122918  10.623  11.347   9.151
73693SOL    HW222919  10.638  11.197   9.151
73694SOL     OW22920  14.766   5.120   2.774
73694SOL    HW122921  14.720   5.204   2.766
73694SOL    HW222922  14.852   5.135   2.736
73695SOL     OW22923  13.251   8.201  14.215
73695SOL    HW122924  13.157   8.204  14.229
73695SOL    HW222925  13.273   8.107  14.220
73696SOL     OW22926  11.314  10.352   8.776
73696SOL    HW122927  11.394  10.374   8.727
73696SOL    HW222928  11.310  10.418   8.845
73697SOL     OW22929   0.515   8.294   5.844
73697SOL    HW122930   0.600   8.323   5.811
73697SOL    HW222931   0.501   8.209   5.802
73698SOL     OW22932   8.228   0.737   4.518
73698SOL    HW122933   8.233   0.832   4.504
73698SOL    HW222934   8.145   0.724   4.564
73699SOL     OW22935  10.478   4.053   3.303
73699SOL    HW122936  10.478   4.138   3.259
73699SOL    HW222937  10.488   3.989   3.232
73700SOL     OW22938  13.160   4.957   8.050
73700SOL    HW122939  13.255   4.968   8.060
73700SOL    HW222940  13.124   4.989   8.133
73701SOL     OW22941   3.429   3.283  13.511
73701SOL    HW122942   3.510   3.312  13.552
73701SOL    HW222943   3.372   3.360  13.514
73702SOL     OW22944   1.602  13.808   8.402
73702SOL    HW122945   1.543  13.863   8.453
73702SOL    HW222946   1.651  13.870   8.347
73703SOL     OW22947   1.570   0.505  10.125
73703SOL    HW122948   1.634   0.569  10.155
73703SOL    HW222949   1.520   0.550  10.057
73704SOL     OW22950  11.981   4.033   4.301
73704SOL    HW122951  11.914   4.044   4.234
73704SOL    HW222952  12.018   3.947   4.284
73705SOL     OW22953  13.870   7.615   7.855
73705SOL    HW122954  13.801   7.593   7.917
73705SOL    HW222955  13.873   7.711   7.855
73706SOL     OW22956   3.804   7.578   2.294
73706SOL    HW122957   3.865   7.636   2.248
73706SOL    HW222958   3.847   7.493   2.294
73707SOL     OW22959   0.427   9.917   5.749
73707SOL    HW122960   0.354   9.857   5.763
73707SOL    HW222961   0.492   9.866   5.702
73708SOL     OW22962   7.623   2.271  13.389
73708SOL    HW122963   7.596   2.349  13.341
73708SOL    HW222964   7.695   2.235  13.338
73709SOL     OW22965  12.423   4.098   5.394
73709SOL    HW122966  12.436   4.154   5.317
73709SOL    HW222967  12.332   4.070   5.387
73710SOL     OW22968   5.868   8.007   6.678
73710SOL    HW122969   5.794   8.027   6.621
73710SOL    HW222970   5.894   7.918   6.652
73711SOL     OW22971   3.981  10.274   4.927
73711SOL    HW122972   4.061  10.278   4.979
73711SOL    HW222973   3.986  10.190   4.881
73712SOL     OW22974  12.004   5.659   1.119
73712SOL    HW122975  11.945   5.732   1.136
73712SOL    HW222976  12.065   5.659   1.193
73713SOL     OW22977   7.533  11.706   3.065
73713SOL    HW122978   7.537  11.800   3.083
73713SOL    HW222979   7.443  11.691   3.036
73714SOL     OW22980  11.703   8.823   5.182
73714SOL    HW122981  11.695   8.757   5.251
73714SOL    HW222982  11.669   8.903   5.222
73715SOL     OW22983  12.761   6.105   5.171
73715SOL    HW122984  12.816   6.045   5.221
73715SOL    HW222985  12.808   6.118   5.089
73716SOL     OW22986   3.468   6.592  13.728
73716SOL    HW122987   3.377   6.568  13.709
73716SOL    HW222988   3.500   6.518  13.781
73717SOL     OW22989   6.691  13.834   3.574
73717SOL    HW122990   6.668  13.742   3.572
73717SOL    HW222991   6.629  13.874   3.635
73718SOL     OW22992  13.613   2.504   4.949
73718SOL    HW122993  13.686   2.534   4.894
73718SOL    HW222994  13.553   2.461   4.888
73719SOL     OW22995   5.067   4.759   4.284
73719SOL    HW122996   5.130   4.778   4.355
73719SOL    HW222997   5.015   4.839   4.277
73720SOL     OW22998   5.981   5.629  10.460
73720SOL    HW122999   6.069   5.607  10.427
73720SOL    HW223000   5.922   5.607  10.388
73721SOL     OW23001   6.271   6.505   6.717
73721SOL    HW123002   6.275   6.595   6.687
73721SOL    HW223003   6.222   6.459   6.649
73722SOL     OW23004  13.391   8.957  12.269
73722SOL    HW123005  13.404   8.993  12.181
73722SOL    HW223006  13.375   9.034  12.324
73723SOL     OW23007   7.447   2.215   9.470
73723SOL    HW123008   7.439   2.124   9.443
73723SOL    HW223009   7.402   2.265   9.402
73724SOL     OW23010   7.227   0.654   5.840
73724SOL    HW123011   7.302   0.682   5.788
73724SOL    HW223012   7.199   0.572   5.800
73725SOL     OW23013   5.828  13.171   5.495
73725SOL    HW123014   5.898  13.181   5.559
73725SOL    HW223015   5.748  13.194   5.544
73726SOL     OW23016   5.496   8.452   0.220
73726SOL    HW123017   5.447   8.534   0.218
73726SOL    HW223018   5.572   8.471   0.274
73727SOL     OW23019  11.718   9.161   2.388
73727SOL    HW123020  11.667   9.087   2.354
73727SOL    HW223021  11.801   9.123   2.416
73728SOL     OW23022   3.279   8.511   2.973
73728SOL    HW123023   3.265   8.493   3.066
73728SOL    HW223024   3.359   8.464   2.952
73729SOL     OW23025   0.321  13.971   6.453
73729SOL    HW123026   0.267  13.903   6.412
73729SOL    HW223027   0.304  14.050   6.400
73730SOL     OW23028   6.385   7.585   7.975
73730SOL    HW123029   6.451   7.609   8.040
73730SOL    HW223030   6.318   7.653   7.982
73731SOL     OW23031  13.737   6.971   4.929
73731SOL    HW123032  13.686   6.914   4.872
73731SOL    HW223033  13.814   6.919   4.953
73732SOL     OW23034   7.612   3.725   2.260
73732SOL    HW123035   7.689   3.733   2.316
73732SOL    HW223036   7.618   3.636   2.223
73733SOL     OW23037  10.109   7.233  10.513
73733SOL    HW123038  10.088   7.269  10.427
73733SOL    HW223039  10.203   7.247  10.523
73734SOL     OW23040  10.556  10.641   3.041
73734SOL    HW123041  10.515  10.648   3.127
73734SOL    HW223042  10.636  10.590   3.056
73735SOL     OW23043   7.554  11.951   9.531
73735SOL    HW123044   7.617  12.021   9.515
73735SOL    HW223045   7.591  11.901   9.603
73736SOL     OW23046   8.799   9.034   3.578
73736SOL    HW123047   8.740   8.961   3.595
73736SOL    HW223048   8.857   9.036   3.655
73737SOL     OW23049   0.694  14.143   1.716
73737SOL    HW123050   0.678  14.049   1.719
73737SOL    HW223051   0.772  14.156   1.770
73738SOL     OW23052   6.485   9.462   4.174
73738SOL    HW123053   6.396   9.433   4.190
73738SOL    HW223054   6.529   9.385   4.138
73739SOL     OW23055   6.880   8.003   3.662
73739SOL    HW123056   6.936   8.016   3.586
73739SOL    HW223057   6.932   7.949   3.721
73740SOL     OW23058  12.042   9.634   0.847
73740SOL    HW123059  11.965   9.582   0.823
73740SOL    HW223060  12.107   9.614   0.780
73741SOL     OW23061   2.007   7.725   8.138
73741SOL    HW123062   1.983   7.802   8.188
73741SOL    HW223063   2.074   7.681   8.191
73742SOL     OW23064   6.607  14.643   3.986
73742SOL    HW123065   6.613  14.551   4.012
73742SOL    HW223066   6.539  14.680   4.041
73743SOL     OW23067  12.964  14.029   5.583
73743SOL    HW123068  12.943  14.014   5.675
73743SOL    HW223069  13.058  14.017   5.577
73744SOL     OW23070  12.182  10.782   8.074
73744SOL    HW123071  12.159  10.798   7.982
73744SOL    HW223072  12.167  10.866   8.117
73745SOL     OW23073  10.969   7.518   4.199
73745SOL    HW123074  10.889   7.553   4.161
73745SOL    HW223075  11.016   7.478   4.125
73746SOL     OW23076   6.552  13.138  13.480
73746SOL    HW123077   6.592  13.125  13.566
73746SOL    HW223078   6.459  13.122  13.495
73747SOL     OW23079  12.829   2.308   9.667
73747SOL    HW123080  12.790   2.223   9.648
73747SOL    HW223081  12.919   2.300   9.635
73748SOL     OW23082   8.264   1.190   0.468
73748SOL    HW123083   8.185   1.160   0.423
73748SOL    HW223084   8.332   1.129   0.439
73749SOL     OW23085   5.430  14.160  11.193
73749SOL    HW123086   5.447  14.233  11.133
73749SOL    HW223087   5.475  14.184  11.274
73750SOL     OW23088   2.044   4.965   8.496
73750SOL    HW123089   2.079   4.877   8.508
73750SOL    HW223090   1.952   4.952   8.473
73751SOL     OW23091  12.742   0.747  10.980
73751SOL    HW123092  12.677   0.695  10.933
73751SOL    HW223093  12.713   0.838  10.970
73752SOL     OW23094   7.566   8.112   3.322
73752SOL    HW123095   7.546   8.131   3.231
73752SOL    HW223096   7.513   8.174   3.372
73753SOL     OW23097   2.964   1.347   6.296
73753SOL    HW123098   2.990   1.420   6.352
73753SOL    HW223099   2.876   1.368   6.267
73754SOL     OW23100  14.858  14.740   0.686
73754SOL    HW123101  14.837  14.674   0.620
73754SOL    HW223102  14.876  14.819   0.635
73755SOL     OW23103   3.147   5.263  11.904
73755SOL    HW123104   3.093   5.320  11.849
73755SOL    HW223105   3.191   5.205  11.841
73756SOL     OW23106   6.136  10.009  12.984
73756SOL    HW123107   6.134  10.014  12.889
73756SOL    HW223108   6.228   9.996  13.007
73757SOL     OW23109  10.618  13.285   1.952
73757SOL    HW123110  10.629  13.326   2.037
73757SOL    HW223111  10.691  13.223   1.945
73758SOL     OW23112  10.669  13.437   1.695
73758SOL    HW123113  10.618  13.419   1.775
73758SOL    HW223114  10.740  13.374   1.698
73759SOL     OW23115   7.460   5.084  12.699
73759SOL    HW123116   7.481   5.055  12.788
73759SOL    HW223117   7.419   5.170  12.711
73760SOL     OW23118  13.535   2.507  12.367
73760SOL    HW123119  13.501   2.547  12.287
73760SOL    HW223120  13.567   2.421  12.339
73761SOL     OW23121   0.656  12.089  12.455
73761SOL    HW123122   0.574  12.046  12.479
73761SOL    HW223123   0.722  12.020  12.463
73762SOL     OW23124  11.187  10.755  14.208
73762SOL    HW123125  11.127  10.681  14.213
73762SOL    HW223126  11.244  10.734  14.133
73763SOL     OW23127   8.344  11.598   5.065
73763SOL    HW123128   8.298  11.533   5.117
73763SOL    HW223129   8.428  11.556   5.043
73764SOL     OW23130   4.958   2.029   2.488
73764SOL    HW123131   4.980   2.108   2.437
73764SOL    HW223132   5.002   2.042   2.572
73765SOL     OW23133   4.947  12.085   4.578
73765SOL    HW123134   4.996  12.166   4.564
73765SOL    HW223135   4.917  12.090   4.669
73766SOL     OW23136  14.149  13.547   3.701
73766SOL    HW123137  14.100  13.629   3.707
73766SOL    HW223138  14.211  13.562   3.629
73767SOL     OW23139   6.518   7.364  11.081
73767SOL    HW123140   6.566   7.446  11.098
73767SOL    HW223141   6.427   7.386  11.103
73768SOL     OW23142  11.236   7.864   9.013
73768SOL    HW123143  11.150   7.823   9.004
73768SOL    HW223144  11.264   7.842   9.101
73769SOL     OW23145  10.149  14.451   4.167
73769SOL    HW123146  10.090  14.380   4.141
73769SOL    HW223147  10.236  14.412   4.163
73770SOL     OW23148  11.680   7.197   3.784
73770SOL    HW123149  11.590   7.217   3.760
73770SOL    HW223150  11.702   7.263   3.850
73771SOL     OW23151   4.736   5.535   8.289
73771SOL    HW123152   4.670   5.534   8.219
73771SOL    HW223153   4.689   5.569   8.365
73772SOL     OW23154  10.491  13.945   1.874
73772SOL    HW123155  10.566  13.935   1.932
73772SOL    HW223156  10.432  13.873   1.898
73773SOL     OW23157   2.116   0.193  11.973
73773SOL    HW123158   2.117   0.174  12.066
73773SOL    HW223159   2.043   0.253  11.960
73774SOL     OW23160  10.707  11.201  11.110
73774SOL    HW123161  10.711  11.255  11.188
73774SOL    HW223162  10.739  11.115  11.138
73775SOL     OW23163   7.783   6.564   3.389
73775SOL    HW123164   7.865   6.594   3.428
73775SOL    HW223165   7.769   6.477   3.428
73776SOL     OW23166   5.787   9.567   7.683
73776SOL    HW123167   5.778   9.477   7.654
73776SOL    HW223168   5.867   9.599   7.640
73777SOL     OW23169   7.265   0.686  11.940
73777SOL    HW123170   7.256   0.621  12.010
73777SOL    HW223171   7.351   0.667  11.901
73778SOL     OW23172  14.340   3.066   2.996
73778SOL    HW123173  14.289   3.060   3.077
73778SOL    HW223174  14.368   3.157   2.993
73779SOL     OW23175   8.478   5.069  10.560
73779SOL    HW123176   8.524   5.036  10.483
73779SOL    HW223177   8.534   5.138  10.595
73780SOL     OW23178  12.731  10.177  10.731
73780SOL    HW123179  12.774  10.253  10.772
73780SOL    HW223180  12.794  10.106  10.742
73781SOL     OW23181   6.376   6.962   0.841
73781SOL    HW123182   6.308   6.904   0.807
73781SOL    HW223183   6.440   6.968   0.770
73782SOL     OW23184   7.118   0.068   4.106
73782SOL    HW123185   7.162   0.055   4.022
73782SOL    HW223186   7.116   0.163   4.118
73783SOL     OW23187  11.679  11.978  12.423
73783SOL    HW123188  11.753  12.020  12.466
73783SOL    HW223189  11.693  11.994  12.330
73784SOL     OW23190   3.011   6.161   3.369
73784SOL    HW123191   3.022   6.200   3.282
73784SOL    HW223192   3.095   6.117   3.385
73785SOL     OW23193   9.861  11.233   7.739
73785SOL    HW123194   9.909  11.223   7.822
73785SOL    HW223195   9.836  11.144   7.715
73786SOL     OW23196   2.459  14.537   5.875
73786SOL    HW123197   2.439  14.448   5.846
73786SOL    HW223198   2.460  14.531   5.971
73787SOL     OW23199   9.048  10.193   1.922
73787SOL    HW123200   9.010  10.242   1.849
73787SOL    HW223201   9.138  10.224   1.927
73788SOL     OW23202  14.712  13.931   9.371
73788SOL    HW123203  14.705  13.913   9.277
73788SOL    HW223204  14.710  14.026   9.377
73789SOL     OW23205   1.183   3.720   7.785
73789SOL    HW123206   1.167   3.688   7.696
73789SOL    HW223207   1.191   3.815   7.775
73790SOL     OW23208  13.370   3.461  12.841
73790SOL    HW123209  13.388   3.526  12.909
73790SOL    HW223210  13.289   3.419  12.871
73791SOL     OW23211   1.813  13.686  11.225
73791SOL    HW123212   1.736  13.674  11.280
73791SOL    HW223213   1.854  13.600  11.222
73792SOL     OW23214   9.578   5.345   1.867
73792SOL    HW123215   9.653   5.373   1.815
73792SOL    HW223216   9.575   5.250   1.855
73793SOL     OW23217   4.665   5.903   7.380
73793SOL    HW123218   4.649   5.988   7.340
73793SOL    HW223219   4.710   5.852   7.312
73794SOL     OW23220   3.364   5.637   8.083
73794SOL    HW123221   3.404   5.656   8.168
73794SOL    HW223222   3.390   5.711   8.028
73795SOL     OW23223   9.750   2.563  14.265
73795SOL    HW123224   9.687   2.626  14.299
73795SOL    HW223225   9.822   2.617  14.231
73796SOL     OW23226  14.457   7.631   7.286
73796SOL    HW123227  14.523   7.699   7.297
73796SOL    HW223228  14.397   7.645   7.360
73797SOL     OW23229   8.881  10.790   0.456
73797SOL    HW123230   8.818  10.862   0.459
73797SOL    HW223231   8.827  10.711   0.454
73798SOL     OW23232   7.239  11.254   5.481
73798SOL    HW123233   7.265  11.170   5.442
73798SOL    HW223234   7.236  11.314   5.407
73799SOL     OW23235   5.754   6.204   6.801
73799SOL    HW123236   5.660   6.219   6.810
73799SOL    HW223237   5.778   6.157   6.880
73800SOL     OW23238   3.986   1.549   0.182
73800SOL    HW123239   4.037   1.580   0.107
73800SOL    HW223240   3.964   1.628   0.231
73801SOL     OW23241   9.008  12.143  11.662
73801SOL    HW123242   9.064  12.080  11.707
73801SOL    HW223243   8.925  12.097  11.650
73802SOL     OW23244   1.903  13.643  10.294
73802SOL    HW123245   1.972  13.671  10.235
73802SOL    HW223246   1.824  13.685  10.260
73803SOL     OW23247  10.832   7.395   2.567
73803SOL    HW123248  10.763   7.450   2.530
73803SOL    HW223249  10.813   7.394   2.661
73804SOL     OW23250   2.688   0.584  14.056
73804SOL    HW123251   2.635   0.574  13.977
73804SOL    HW223252   2.627   0.615  14.123
73805SOL     OW23253  13.819   4.045   6.751
73805SOL    HW123254  13.757   4.116   6.767
73805SOL    HW223255  13.768   3.965   6.759
73806SOL     OW23256   0.034   8.849  14.523
73806SOL    HW123257   0.036   8.818  14.614
73806SOL    HW223258   0.121   8.830  14.489
73807SOL     OW23259   3.767   1.328   6.691
73807SOL    HW123260   3.781   1.370   6.605
73807SOL    HW223261   3.718   1.248   6.670
73808SOL     OW23262  12.301  11.598  10.360
73808SOL    HW123263  12.362  11.656  10.406
73808SOL    HW223264  12.235  11.576  10.425
73809SOL     OW23265  12.725  11.914   4.901
73809SOL    HW123266  12.794  11.850   4.882
73809SOL    HW223267  12.759  11.964   4.975
73810SOL     OW23268   8.489  10.481   9.127
73810SOL    HW123269   8.578  10.474   9.094
73810SOL    HW223270   8.470  10.395   9.165
73811SOL     OW23271  12.601   8.762   6.196
73811SOL    HW123272  12.665   8.697   6.168
73811SOL    HW223273  12.649   8.819   6.255
73812SOL     OW23274   4.500  12.354   8.427
73812SOL    HW123275   4.590  12.369   8.399
73812SOL    HW223276   4.446  12.379   8.352
73813SOL     OW23277   5.639   9.274  10.471
73813SOL    HW123278   5.592   9.241  10.395
73813SOL    HW223279   5.731   9.256  10.452
73814SOL     OW23280   9.606   8.039   7.442
73814SOL    HW123281   9.644   8.119   7.404
73814SOL    HW223282   9.652   8.028   7.525
73815SOL     OW23283   8.513   9.302  11.517
73815SOL    HW123284   8.474   9.219  11.546
73815SOL    HW223285   8.506   9.299  11.422
73816SOL     OW23286  12.395  12.755  14.653
73816SOL    HW123287  12.352  12.671  14.640
73816SOL    HW223288  12.413  12.788  14.565
73817SOL     OW23289   0.616   8.864  10.312
73817SOL    HW123290   0.535   8.818  10.290
73817SOL    HW223291   0.671   8.797  10.353
73818SOL     OW23292   5.704  14.529   5.067
73818SOL    HW123293   5.630  14.489   5.112
73818SOL    HW223294   5.665  14.571   4.990
73819SOL     OW23295   0.289   1.239  13.041
73819SOL    HW123296   0.295   1.334  13.048
73819SOL    HW223297   0.355   1.216  12.975
73820SOL     OW23298   9.617  14.839   1.079
73820SOL    HW123299   9.535   0.012   1.080
73820SOL    HW223300   9.590  14.749   1.096
73821SOL     OW23301  14.663   6.048   0.496
73821SOL    HW123302  14.662   5.978   0.561
73821SOL    HW223303  14.679   6.005   0.413
73822SOL     OW23304  10.285  11.728   2.538
73822SOL    HW123305  10.206  11.772   2.506
73822SOL    HW223306  10.257  11.639   2.558
73823SOL     OW23307   7.742   0.430   6.293
73823SOL    HW123308   7.727   0.525   6.294
73823SOL    HW223309   7.666   0.395   6.246
73824SOL     OW23310   3.848  12.379  14.577
73824SOL    HW123311   3.895  12.459  14.602
73824SOL    HW223312   3.755  12.404  14.582
73825SOL     OW23313   2.094   7.030   4.847
73825SOL    HW123314   2.161   6.964   4.825
73825SOL    HW223315   2.144   7.106   4.876
73826SOL     OW23316   4.661  14.406   6.024
73826SOL    HW123317   4.668  14.464   6.099
73826SOL    HW223318   4.640  14.463   5.950
73827SOL     OW23319  10.947   8.290   0.880
73827SOL    HW123320  10.929   8.310   0.788
73827SOL    HW223321  11.024   8.342   0.901
73828SOL     OW23322   1.035   2.559  11.040
73828SOL    HW123323   1.114   2.509  11.020
73828SOL    HW223324   1.068   2.640  11.078
73829SOL     OW23325   4.490   8.144  11.626
73829SOL    HW123326   4.500   8.195  11.706
73829SOL    HW223327   4.526   8.200  11.557
73830SOL     OW23328  11.834   8.315  14.610
73830SOL    HW123329  11.870   8.399  14.637
73830SOL    HW223330  11.838   8.317  14.514
73831SOL     OW23331   9.023  12.655  14.445
73831SOL    HW123332   9.021  12.566  14.409
73831SOL    HW223333   8.964  12.652  14.520
73832SOL     OW23334   2.296   8.601  10.763
73832SOL    HW123335   2.205   8.585  10.787
73832SOL    HW223336   2.320   8.682  10.806
73833SOL     OW23337   3.748  13.270   6.555
73833SOL    HW123338   3.785  13.339   6.610
73833SOL    HW223339   3.790  13.281   6.470
73834SOL     OW23340   3.449   7.418   6.174
73834SOL    HW123341   3.355   7.410   6.192
73834SOL    HW223342   3.491   7.362   6.241
73835SOL     OW23343  10.503   9.566   0.747
73835SOL    HW123344  10.448   9.639   0.719
73835SOL    HW223345  10.447   9.515   0.805
73836SOL     OW23346   5.489   3.498   4.839
73836SOL    HW123347   5.468   3.509   4.931
73836SOL    HW223348   5.521   3.583   4.811
73837SOL     OW23349   6.196  12.117   8.298
73837SOL    HW123350   6.274  12.064   8.310
73837SOL    HW223351   6.127  12.054   8.275
73838SOL     OW23352   2.347   4.388   0.668
73838SOL    HW123353   2.433   4.374   0.708
73838SOL    HW223354   2.335   4.483   0.671
73839SOL     OW23355  10.352   6.931   5.909
73839SOL    HW123356  10.321   6.852   5.955
73839SOL    HW223357  10.305   6.931   5.826
73840SOL     OW23358   8.293   7.788   1.444
73840SOL    HW123359   8.226   7.788   1.512
73840SOL    HW223360   8.370   7.751   1.486
73841SOL     OW23361  12.339   3.689   4.330
73841SOL    HW123362  12.430   3.708   4.305
73841SOL    HW223363  12.336   3.707   4.424
73842SOL     OW23364   4.647   0.252   2.448
73842SOL    HW123365   4.565   0.203   2.442
73842SOL    HW223366   4.712   0.195   2.408
73843SOL     OW23367   9.996   0.158   0.023
73843SOL    HW123368  10.091   0.157   0.036
73843SOL    HW223369   9.977   0.074  14.858
73844SOL     OW23370  12.472   7.721  13.711
73844SOL    HW123371  12.464   7.627  13.692
73844SOL    HW223372  12.386   7.745  13.746
73845SOL     OW23373  13.108   3.338   6.882
73845SOL    HW123374  13.068   3.320   6.797
73845SOL    HW223375  13.087   3.430   6.900
73846SOL     OW23376   6.921  11.581  12.003
73846SOL    HW123377   6.895  11.513  11.941
73846SOL    HW223378   6.846  11.642  12.004
73847SOL     OW23379  12.925   0.426   7.826
73847SOL    HW123380  12.861   0.358   7.804
73847SOL    HW223381  12.902   0.453   7.915
73848SOL     OW23382   3.684  10.579  14.462
73848SOL    HW123383   3.748  10.528  14.513
73848SOL    HW223384   3.669  10.658  14.515
73849SOL     OW23385   0.117   3.789   8.483
73849SOL    HW123386   0.063   3.869   8.483
73849SOL    HW223387   0.192   3.811   8.427
73850SOL     OW23388  10.241  11.146  10.141
73850SOL    HW123389  10.148  11.144  10.118
73850SOL    HW223390  10.245  11.099  10.225
73851SOL     OW23391   4.360  10.958   5.765
73851SOL    HW123392   4.314  10.898   5.824
73851SOL    HW223393   4.437  10.985   5.814
73852SOL     OW23394  10.344   8.991   4.550
73852SOL    HW123395  10.421   9.047   4.544
73852SOL    HW223396  10.271   9.052   4.561
73853SOL     OW23397   5.508   4.949  10.612
73853SOL    HW123398   5.449   4.988  10.677
73853SOL    HW223399   5.569   4.895  10.663
73854SOL     OW23400   6.079   9.417   1.647
73854SOL    HW123401   6.015   9.464   1.594
73854SOL    HW223402   6.033   9.336   1.672
73855SOL     OW23403   5.426  11.087   4.339
73855SOL    HW123404   5.375  11.006   4.330
73855SOL    HW223405   5.515  11.063   4.315
73856SOL     OW23406  13.783   8.584   6.607
73856SOL    HW123407  13.858   8.611   6.660
73856SOL    HW223408  13.786   8.488   6.609
73857SOL     OW23409   0.443   3.589  11.192
73857SOL    HW123410   0.443   3.533  11.270
73857SOL    HW223411   0.476   3.673  11.224
73858SOL     OW23412   9.845   8.811   8.970
73858SOL    HW123413   9.938   8.788   8.970
73858SOL    HW223414   9.836   8.875   9.040
73859SOL     OW23415  10.245   1.227  12.376
73859SOL    HW123416  10.199   1.310  12.373
73859SOL    HW223417  10.338   1.250  12.366
73860SOL     OW23418   2.179   2.321   0.884
73860SOL    HW123419   2.104   2.297   0.829
73860SOL    HW223420   2.225   2.389   0.835
73861SOL     OW23421  11.304   9.332   8.228
73861SOL    HW123422  11.321   9.264   8.163
73861SOL    HW223423  11.232   9.298   8.281
73862SOL     OW23424  11.788   8.150   2.245
73862SOL    HW123425  11.698   8.165   2.276
73862SOL    HW223426  11.790   8.191   2.159
73863SOL     OW23427   6.473  11.709   5.846
73863SOL    HW123428   6.450  11.793   5.886
73863SOL    HW223429   6.403  11.649   5.873
73864SOL     OW23430   7.837   3.155   0.995
73864SOL    HW123431   7.756   3.146   1.046
73864SOL    HW223432   7.818   3.225   0.933
73865SOL     OW23433   9.821   3.106  10.527
73865SOL    HW123434   9.849   3.157  10.602
73865SOL    HW223435   9.728   3.126  10.518
73866SOL     OW23436   7.012   9.007   7.655
73866SOL    HW123437   6.999   8.943   7.726
73866SOL    HW223438   6.925   9.018   7.618
73867SOL     OW23439   4.406   9.378  13.437
73867SOL    HW123440   4.405   9.473  13.432
73867SOL    HW223441   4.412   9.359  13.531
73868SOL     OW23442   2.939   6.851  10.805
73868SOL    HW123443   2.945   6.918  10.872
73868SOL    HW223444   3.031   6.828  10.786
73869SOL     OW23445   0.103   0.401  12.545
73869SOL    HW123446   0.009   0.406  12.565
73869SOL    HW223447   0.137   0.337  12.608
73870SOL     OW23448   1.808   0.269   5.688
73870SOL    HW123449   1.748   0.203   5.654
73870SOL    HW223450   1.789   0.347   5.636
73871SOL     OW23451   9.157   4.949   8.081
73871SOL    HW123452   9.247   4.972   8.104
73871SOL    HW223453   9.105   4.982   8.154
73872SOL     OW23454   5.601   4.614  11.758
73872SOL    HW123455   5.520   4.615  11.708
73872SOL    HW223456   5.574   4.623  11.849
73873SOL     OW23457   8.288   4.040   9.212
73873SOL    HW123458   8.355   4.095   9.171
73873SOL    HW223459   8.249   4.095   9.279
73874SOL     OW23460   3.776   5.997   1.306
73874SOL    HW123461   3.804   5.977   1.217
73874SOL    HW223462   3.791   5.916   1.355
73875SOL     OW23463   6.509   9.511   3.035
73875SOL    HW123464   6.517   9.565   2.956
73875SOL    HW223465   6.486   9.424   3.001
73876SOL     OW23466   7.031   5.126  14.318
73876SOL    HW123467   6.966   5.143  14.250
73876SOL    HW223468   6.982   5.082  14.388
73877SOL     OW23469   8.637   5.457   6.235
73877SOL    HW123470   8.654   5.464   6.329
73877SOL    HW223471   8.696   5.521   6.196
73878SOL     OW23472   1.835  13.209   0.340
73878SOL    HW123473   1.814  13.173   0.254
73878SOL    HW223474   1.766  13.176   0.397
73879SOL     OW23475  10.196   1.372   7.611
73879SOL    HW123476  10.280   1.418   7.605
73879SOL    HW223477  10.206   1.297   7.552
73880SOL     OW23478   5.118  13.763   5.445
73880SOL    HW123479   5.098  13.670   5.458
73880SOL    HW223480   5.188  13.764   5.379
73881SOL     OW23481   4.561   3.687   3.215
73881SOL    HW123482   4.631   3.621   3.213
73881SOL    HW223483   4.483   3.638   3.190
73882SOL     OW23484  12.655   0.692   9.461
73882SOL    HW123485  12.563   0.681   9.484
73882SOL    HW223486  12.662   0.783   9.431
73883SOL     OW23487   4.320   0.631   5.828
73883SOL    HW123488   4.368   0.706   5.864
73883SOL    HW223489   4.301   0.655   5.737
73884SOL     OW23490  14.375   8.298   8.491
73884SOL    HW123491  14.443   8.231   8.486
73884SOL    HW223492  14.415   8.375   8.451
73885SOL     OW23493   4.375   1.963   7.402
73885SOL    HW123494   4.455   2.009   7.429
73885SOL    HW223495   4.395   1.929   7.315
73886SOL     OW23496   5.697   5.615   8.157
73886SOL    HW123497   5.657   5.683   8.102
73886SOL    HW223498   5.791   5.623   8.140
73887SOL     OW23499   1.795  11.109  14.359
73887SOL    HW123500   1.824  11.184  14.308
73887SOL    HW223501   1.871  11.084  14.411
73888SOL     OW23502   6.241  11.509   8.317
73888SOL    HW123503   6.203  11.483   8.401
73888SOL    HW223504   6.246  11.427   8.267
73889SOL     OW23505   6.609   3.884   8.589
73889SOL    HW123506   6.653   3.840   8.516
73889SOL    HW223507   6.586   3.812   8.649
73890SOL     OW23508   3.285  13.665   1.341
73890SOL    HW123509   3.272  13.749   1.298
73890SOL    HW223510   3.369  13.634   1.306
73891SOL     OW23511   9.060   4.038  13.907
73891SOL    HW123512   9.086   3.965  13.852
73891SOL    HW223513   9.033   3.998  13.990
73892SOL     OW23514  12.323   9.246  10.870
73892SOL    HW123515  12.236   9.239  10.832
73892SOL    HW223516  12.373   9.296  10.805
73893SOL     OW23517   9.325   6.968   9.869
73893SOL    HW123518   9.341   7.014   9.787
73893SOL    HW223519   9.283   7.034   9.925
73894SOL     OW23520   1.871   9.282   2.270
73894SOL    HW123521   1.899   9.259   2.359
73894SOL    HW223522   1.901   9.210   2.216
73895SOL     OW23523  10.069   3.547  10.556
73895SOL    HW123524  10.080   3.453  10.568
73895SOL    HW223525  10.119   3.587  10.628
73896SOL     OW23526   9.154   5.872  12.994
73896SOL    HW123527   9.184   5.803  12.936
73896SOL    HW223528   9.149   5.950  12.939
73897SOL     OW23529   0.233   4.055   9.479
73897SOL    HW123530   0.302   4.058   9.413
73897SOL    HW223531   0.278   4.063   9.562
73898SOL     OW23532   2.946   6.792   1.262
73898SOL    HW123533   2.865   6.826   1.299
73898SOL    HW223534   2.999   6.768   1.339
73899SOL     OW23535   0.694  14.837  10.897
73899SOL    HW123536   0.719  14.751  10.930
73899SOL    HW223537   0.697   0.018  10.974
73900SOL     OW23538   8.056   6.215  14.602
73900SOL    HW123539   8.061   6.210  14.507
73900SOL    HW223540   8.148   6.220  14.631
73901SOL     OW23541  11.841   8.342  12.194
73901SOL    HW123542  11.838   8.413  12.129
73901SOL    HW223543  11.751   8.311  12.200
73902SOL     OW23544   3.863   7.463   3.076
73902SOL    HW123545   3.828   7.548   3.100
73902SOL    HW223546   3.893   7.474   2.985
73903SOL     OW23547   4.998  13.491   5.466
73903SOL    HW123548   5.008  13.446   5.382
73903SOL    HW223549   5.082  13.478   5.511
73904SOL     OW23550  10.353   7.337  10.554
73904SOL    HW123551  10.444   7.359  10.535
73904SOL    HW223552  10.318   7.415  10.597
73905SOL     OW23553   2.014   6.871  10.317
73905SOL    HW123554   1.962   6.841  10.243
73905SOL    HW223555   1.988   6.813  10.389
73906SOL     OW23556   4.668   5.645  14.662
73906SOL    HW123557   4.685   5.616  14.572
73906SOL    HW223558   4.706   5.577  14.717
73907SOL     OW23559  14.285   2.600   4.695
73907SOL    HW123560  14.206   2.632   4.652
73907SOL    HW223561  14.256   2.524   4.745
73908SOL     OW23562  12.032  14.050  14.613
73908SOL    HW123563  12.071  13.963  14.618
73908SOL    HW223564  11.999  14.066  14.702
73909SOL     OW23565  10.088   5.045  12.639
73909SOL    HW123566  10.181   5.024  12.633
73909SOL    HW223567  10.085   5.126  12.690
73910SOL     OW23568   8.007   5.294   2.340
73910SOL    HW123569   8.017   5.302   2.435
73910SOL    HW223570   8.008   5.384   2.308
73911SOL     OW23571   9.160   3.979   0.245
73911SOL    HW123572   9.066   3.961   0.239
73911SOL    HW223573   9.198   3.898   0.281
73912SOL     OW23574   2.474  10.657   8.654
73912SOL    HW123575   2.466  10.725   8.721
73912SOL    HW223576   2.400  10.599   8.670
73913SOL     OW23577   0.800   5.022   4.306
73913SOL    HW123578   0.838   5.102   4.270
73913SOL    HW223579   0.862   4.953   4.281
73914SOL     OW23580  12.472   3.369   7.762
73914SOL    HW123581  12.531   3.293   7.760
73914SOL    HW223582  12.395   3.341   7.713
73915SOL     OW23583  14.814   0.297  14.546
73915SOL    HW123584  14.764   0.353  14.604
73915SOL    HW223585  14.750   0.234  14.512
73916SOL     OW23586   8.035   9.737   7.676
73916SOL    HW123587   8.111   9.723   7.733
73916SOL    HW223588   7.968   9.678   7.711
73917SOL     OW23589   1.118   1.661   3.792
73917SOL    HW123590   1.139   1.584   3.845
73917SOL    HW223591   1.201   1.685   3.752
73918SOL     OW23592   5.237  12.978   1.091
73918SOL    HW123593   5.322  12.985   1.134
73918SOL    HW223594   5.224  12.884   1.078
73919SOL     OW23595  11.712  12.364  10.057
73919SOL    HW123596  11.699  12.302   9.986
73919SOL    HW223597  11.625  12.402  10.072
73920SOL     OW23598   6.019  12.256   9.477
73920SOL    HW123599   6.035  12.291   9.564
73920SOL    HW223600   5.959  12.183   9.491
73921SOL     OW23601  14.502   3.868   7.820
73921SOL    HW123602  14.496   3.954   7.862
73921SOL    HW223603  14.490   3.886   7.727
73922SOL     OW23604   4.831   0.901   2.427
73922SOL    HW123605   4.740   0.922   2.448
73922SOL    HW223606   4.880   0.979   2.452
73923SOL     OW23607   0.614   9.903   5.473
73923SOL    HW123608   0.634   9.915   5.381
73923SOL    HW223609   0.576   9.815   5.479
73924SOL     OW23610  12.177   6.452  14.198
73924SOL    HW123611  12.270   6.435  14.214
73924SOL    HW223612  12.139   6.364  14.188
73925SOL     OW23613   4.377  13.191  11.542
73925SOL    HW123614   4.452  13.138  11.514
73925SOL    HW223615   4.307  13.170  11.480
73926SOL     OW23616   2.219   6.025   9.167
73926SOL    HW123617   2.129   6.041   9.194
73926SOL    HW223618   2.265   6.107   9.187
73927SOL     OW23619   1.810   7.595   3.630
73927SOL    HW123620   1.787   7.631   3.545
73927SOL    HW223621   1.763   7.511   3.635
73928SOL     OW23622   1.122   1.965   2.145
73928SOL    HW123623   1.036   1.995   2.117
73928SOL    HW223624   1.147   1.899   2.080
73929SOL     OW23625  13.898   2.009   7.165
73929SOL    HW123626  13.809   1.972   7.163
73929SOL    HW223627  13.930   1.999   7.075
73930SOL     OW23628   0.592   4.258   7.758
73930SOL    HW123629   0.581   4.352   7.763
73930SOL    HW223630   0.504   4.223   7.743
73931SOL     OW23631   8.414  10.149   0.726
73931SOL    HW123632   8.375  10.100   0.654
73931SOL    HW223633   8.495  10.101   0.746
73932SOL     OW23634   9.489   4.307   2.551
73932SOL    HW123635   9.420   4.320   2.486
73932SOL    HW223636   9.448   4.330   2.634
73933SOL     OW23637  13.032  10.336  12.586
73933SOL    HW123638  12.965  10.391  12.627
73933SOL    HW223639  13.072  10.392  12.519
73934SOL     OW23640  12.032   7.940   0.712
73934SOL    HW123641  12.108   7.898   0.754
73934SOL    HW223642  12.056   7.944   0.620
73935SOL     OW23643   0.416   8.086  11.617
73935SOL    HW123644   0.467   8.151  11.569
73935SOL    HW223645   0.465   8.071  11.697
73936SOL     OW23646  12.483  13.147  14.323
73936SOL    HW123647  12.427  13.138  14.247
73936SOL    HW223648  12.572  13.143  14.288
73937SOL     OW23649   7.785   7.482   8.472
73937SOL    HW123650   7.690   7.478   8.457
73937SOL    HW223651   7.822   7.496   8.384
73938SOL     OW23652   4.377   5.058   0.334
73938SOL    HW123653   4.376   4.991   0.403
73938SOL    HW223654   4.432   5.021   0.265
73939SOL     OW23655   0.182   2.573   5.448
73939SOL    HW123656   0.135   2.614   5.375
73939SOL    HW223657   0.131   2.596   5.526
73940SOL     OW23658  12.409   1.803  12.894
73940SOL    HW123659  12.334   1.854  12.862
73940SOL    HW223660  12.381   1.712  12.884
73941SOL     OW23661   7.956  11.584   2.846
73941SOL    HW123662   7.884  11.599   2.907
73941SOL    HW223663   8.001  11.507   2.882
73942SOL     OW23664   6.293   7.009   8.358
73942SOL    HW123665   6.218   7.067   8.340
73942SOL    HW223666   6.360   7.067   8.394
73943SOL     OW23667   1.148   0.301   3.683
73943SOL    HW123668   1.142   0.230   3.620
73943SOL    HW223669   1.216   0.273   3.744
73944SOL     OW23670  13.833  10.669   0.046
73944SOL    HW123671  13.784  10.708  14.850
73944SOL    HW223672  13.790  10.584   0.060
73945SOL     OW23673   3.846   8.352   9.982
73945SOL    HW123674   3.915   8.336   9.917
73945SOL    HW223675   3.870   8.435  10.022
73946SOL     OW23676   7.331  13.463   2.712
73946SOL    HW123677   7.317  13.509   2.629
73946SOL    HW223678   7.367  13.530   2.771
73947SOL     OW23679   8.587   2.175   4.500
73947SOL    HW123680   8.512   2.186   4.558
73947SOL    HW223681   8.658   2.145   4.557
73948SOL     OW23682  13.313   3.063   1.979
73948SOL    HW123683  13.230   3.109   1.968
73948SOL    HW223684  13.356   3.108   2.052
73949SOL     OW23685   4.399   3.451   2.375
73949SOL    HW123686   4.328   3.436   2.312
73949SOL    HW223687   4.456   3.375   2.367
73950SOL     OW23688   2.683   0.255  14.099
73950SOL    HW123689   2.623   0.200  14.150
73950SOL    HW223690   2.748   0.285  14.163
73951SOL     OW23691   2.655   4.878   1.815
73951SOL    HW123692   2.622   4.812   1.876
73951SOL    HW223693   2.720   4.927   1.866
73952SOL     OW23694   4.206   6.288   1.904
73952SOL    HW123695   4.275   6.298   1.839
73952SOL    HW223696   4.253   6.275   1.987
73953SOL     OW23697   1.050  10.402  11.208
73953SOL    HW123698   1.033  10.441  11.122
73953SOL    HW223699   0.995  10.323  11.210
73954SOL     OW23700   5.665   2.014  13.204
73954SOL    HW123701   5.715   1.976  13.276
73954SOL    HW223702   5.687   2.107  13.205
73955SOL     OW23703   5.695   2.142   4.930
73955SOL    HW123704   5.782   2.114   4.957
73955SOL    HW223705   5.636   2.077   4.966
73956SOL     OW23706   6.641   7.371  10.198
73956SOL    HW123707   6.612   7.323  10.276
73956SOL    HW223708   6.638   7.463  10.224
73957SOL     OW23709   7.145   2.671   9.185
73957SOL    HW123710   7.210   2.720   9.234
73957SOL    HW223711   7.095   2.623   9.252
73958SOL     OW23712   2.035   6.168   9.818
73958SOL    HW123713   2.086   6.244   9.848
73958SOL    HW223714   2.011   6.123   9.899
73959SOL     OW23715  12.711   2.376   0.532
73959SOL    HW123716  12.632   2.403   0.578
73959SOL    HW223717  12.703   2.415   0.445
73960SOL     OW23718  13.374   0.222  12.687
73960SOL    HW123719  13.375   0.133  12.722
73960SOL    HW223720  13.459   0.231  12.644
73961SOL     OW23721  10.170   0.135   2.944
73961SOL    HW123722  10.218   0.073   2.998
73961SOL    HW223723  10.192   0.111   2.854
73962SOL     OW23724   0.038  12.228  13.804
73962SOL    HW123725   0.031  12.320  13.827
73962SOL    HW223726   0.062  12.228  13.711
73963SOL     OW23727   0.666   7.462  10.027
73963SOL    HW123728   0.614   7.485   9.949
73963SOL    HW223729   0.627   7.380  10.058
73964SOL     OW23730   4.259  12.420  10.213
73964SOL    HW123731   4.184  12.377  10.254
73964SOL    HW223732   4.272  12.372  10.131
73965SOL     OW23733   4.708   9.540  13.600
73965SOL    HW123734   4.646   9.602  13.637
73965SOL    HW223735   4.671   9.515  13.516
73966SOL     OW23736   5.695   4.296   6.939
73966SOL    HW123737   5.740   4.378   6.955
73966SOL    HW223738   5.652   4.275   7.021
73967SOL     OW23739   2.599  14.130   7.430
73967SOL    HW123740   2.632  14.121   7.520
73967SOL    HW223741   2.660  14.080   7.377
73968SOL     OW23742  14.269   1.806   1.553
73968SOL    HW123743  14.320   1.749   1.609
73968SOL    HW223744  14.324   1.821   1.476
73969SOL     OW23745   8.587   6.864   1.343
73969SOL    HW123746   8.521   6.814   1.296
73969SOL    HW223747   8.644   6.798   1.383
73970SOL     OW23748   5.685   5.135  10.871
73970SOL    HW123749   5.724   5.220  10.891
73970SOL    HW223750   5.591   5.149  10.883
73971SOL     OW23751  10.478  11.941   5.703
73971SOL    HW123752  10.538  11.872   5.731
73971SOL    HW223753  10.436  11.971   5.783
73972SOL     OW23754   6.797   5.720   5.549
73972SOL    HW123755   6.794   5.783   5.621
73972SOL    HW223756   6.809   5.635   5.592
73973SOL     OW23757   0.275   5.719   4.551
73973SOL    HW123758   0.366   5.709   4.524
73973SOL    HW223759   0.264   5.813   4.564
73974SOL     OW23760   3.154  11.013   4.630
73974SOL    HW123761   3.092  11.084   4.648
73974SOL    HW223762   3.121  10.939   4.681
73975SOL     OW23763  13.778  10.961   6.794
73975SOL    HW123764  13.872  10.976   6.784
73975SOL    HW223765  13.751  10.925   6.709
73976SOL     OW23766   3.046   5.874   2.387
73976SOL    HW123767   3.101   5.820   2.330
73976SOL    HW223768   2.957   5.862   2.353
73977SOL     OW23769   9.266   1.601   5.305
73977SOL    HW123770   9.195   1.602   5.242
73977SOL    HW223771   9.327   1.668   5.275
73978SOL     OW23772   8.630   8.575   0.742
73978SOL    HW123773   8.547   8.591   0.786
73978SOL    HW223774   8.691   8.638   0.781
73979SOL     OW23775  14.509   8.240   5.736
73979SOL    HW123776  14.570   8.234   5.809
73979SOL    HW223777  14.427   8.272   5.774
73980SOL     OW23778   8.847   9.423  14.814
73980SOL    HW123779   8.907   9.465  14.876
73980SOL    HW223780   8.904   9.384  14.748
73981SOL     OW23781   2.561  13.605  10.336
73981SOL    HW123782   2.644  13.563  10.311
73981SOL    HW223783   2.496  13.564  10.279
73982SOL     OW23784   2.807   1.116   4.596
73982SOL    HW123785   2.731   1.153   4.640
73982SOL    HW223786   2.770   1.059   4.528
73983SOL     OW23787   0.965   1.369   3.656
73983SOL    HW123788   1.015   1.294   3.624
73983SOL    HW223789   1.021   1.445   3.636
73984SOL     OW23790   6.316   2.200   0.929
73984SOL    HW123791   6.346   2.111   0.949
73984SOL    HW223792   6.374   2.230   0.859
73985SOL     OW23793   7.277  12.850   8.668
73985SOL    HW123794   7.303  12.930   8.712
73985SOL    HW223795   7.196  12.873   8.622
73986SOL     OW23796   1.791   9.242  11.340
73986SOL    HW123797   1.820   9.152  11.350
73986SOL    HW223798   1.791   9.257  11.245
73987SOL     OW23799   5.165   3.587   9.873
73987SOL    HW123800   5.215   3.566   9.794
73987SOL    HW223801   5.163   3.683   9.874
73988SOL     OW23802   2.236  11.504  14.169
73988SOL    HW123803   2.260  11.518  14.077
73988SOL    HW223804   2.311  11.460  14.208
73989SOL     OW23805   3.217  11.300   3.765
73989SOL    HW123806   3.310  11.320   3.768
73989SOL    HW223807   3.211  11.213   3.727
73990SOL     OW23808   2.128   3.035   9.467
73990SOL    HW123809   2.197   2.982   9.507
73990SOL    HW223810   2.134   3.119   9.512
73991SOL     OW23811  13.029  14.037   9.487
73991SOL    HW123812  12.987  14.106   9.538
73991SOL    HW223813  12.992  13.956   9.522
73992SOL     OW23814  11.946  14.677   8.596
73992SOL    HW123815  12.032  14.719   8.601
73992SOL    HW223816  11.911  14.704   8.511
73993SOL     OW23817   3.717  13.218   0.116
73993SOL    HW123818   3.644  13.159   0.133
73993SOL    HW223819   3.705  13.247   0.026
73994SOL     OW23820   2.992  14.361   7.817
73994SOL    HW123821   2.909  14.386   7.857
73994SOL    HW223822   3.057  14.418   7.858
73995SOL     OW23823  11.174  12.445  11.811
73995SOL    HW123824  11.082  12.470  11.817
73995SOL    HW223825  11.215  12.488  11.886
73996SOL     OW23826  10.934  13.284   9.229
73996SOL    HW123827  10.955  13.217   9.164
73996SOL    HW223828  11.019  13.314   9.260
73997SOL     OW23829   2.252   7.085   0.442
73997SOL    HW123830   2.179   7.037   0.481
73997SOL    HW223831   2.306   7.016   0.402
73998SOL     OW23832  11.125   9.310  12.386
73998SOL    HW123833  11.178   9.278  12.313
73998SOL    HW223834  11.120   9.405  12.372
73999SOL     OW23835   6.075  12.870   0.659
73999SOL    HW123836   6.119  12.789   0.631
73999SOL    HW223837   6.032  12.846   0.741
74000SOL     OW23838   7.101  12.753  12.452
74000SOL    HW123839   7.054  12.779  12.372
74000SOL    HW223840   7.124  12.835  12.494
74001SOL     OW23841   2.162  13.106   0.977
74001SOL    HW123842   2.233  13.083   0.917
74001SOL    HW223843   2.083  13.080   0.930
74002SOL     OW23844   1.562   1.687   0.635
74002SOL    HW123845   1.480   1.717   0.595
74002SOL    HW223846   1.631   1.723   0.579
74003SOL     OW23847  10.779  11.240   4.344
74003SOL    HW123848  10.864  11.199   4.356
74003SOL    HW223849  10.791  11.330   4.373
74004SOL     OW23850  12.874   2.173   2.318
74004SOL    HW123851  12.908   2.255   2.284
74004SOL    HW223852  12.802   2.199   2.376
74005SOL     OW23853   6.031  14.336  11.226
74005SOL    HW123854   6.073  14.419  11.246
74005SOL    HW223855   6.079  14.272  11.279
74006SOL     OW23856  14.245   9.938  10.319
74006SOL    HW123857  14.183   9.995  10.365
74006SOL    HW223858  14.330   9.963  10.353
74007SOL     OW23859   9.331  11.911   4.578
74007SOL    HW123860   9.285  11.991   4.606
74007SOL    HW223861   9.374  11.880   4.657
74008SOL     OW23862  12.694   0.498   2.952
74008SOL    HW123863  12.617   0.445   2.936
74008SOL    HW223864  12.764   0.455   2.902
74009SOL     OW23865   8.758   7.325   9.184
74009SOL    HW123866   8.676   7.330   9.233
74009SOL    HW223867   8.786   7.416   9.175
74010SOL     OW23868   4.863   2.146   8.800
74010SOL    HW123869   4.886   2.214   8.864
74010SOL    HW223870   4.771   2.162   8.780
74011SOL     OW23871  11.134  12.875  12.046
74011SOL    HW123872  11.192  12.865  11.970
74011SOL    HW223873  11.047  12.886  12.008
74012SOL     OW23874  12.269   0.843  11.805
74012SOL    HW123875  12.347   0.869  11.756
74012SOL    HW223876  12.298   0.767  11.856
74013SOL     OW23877   4.193   8.846   3.290
74013SOL    HW123878   4.184   8.907   3.217
74013SOL    HW223879   4.256   8.887   3.349
74014SOL     OW23880  14.771   4.859   0.310
74014SOL    HW123881  14.694   4.851   0.253
74014SOL    HW223882  14.810   4.771   0.309
74015SOL     OW23883   9.271   9.928   4.200
74015SOL    HW123884   9.256  10.008   4.249
74015SOL    HW223885   9.184   9.891   4.186
74016SOL     OW23886   4.371  10.539   1.132
74016SOL    HW123887   4.435  10.605   1.107
74016SOL    HW223888   4.401  10.507   1.217
74017SOL     OW23889   7.069   6.094  11.710
74017SOL    HW123890   7.070   6.166  11.773
74017SOL    HW223891   7.011   6.029  11.749
74018SOL     OW23892   2.846   2.783   8.767
74018SOL    HW123893   2.910   2.712   8.768
74018SOL    HW223894   2.763   2.741   8.788
74019SOL     OW23895  14.867   5.491  14.145
74019SOL    HW123896  14.772   5.501  14.141
74019SOL    HW223897   0.006   5.437  14.223
74020SOL     OW23898   8.742  12.735   7.856
74020SOL    HW123899   8.818  12.677   7.862
74020SOL    HW223900   8.748  12.791   7.933
74021SOL     OW23901   1.374   3.199   1.637
74021SOL    HW123902   1.414   3.118   1.605
74021SOL    HW223903   1.442   3.239   1.692
74022SOL     OW23904   3.668  11.143   1.160
74022SOL    HW123905   3.618  11.218   1.190
74022SOL    HW223906   3.748  11.145   1.212
74023SOL     OW23907   7.517  12.883   8.925
74023SOL    HW123908   7.479  12.800   8.895
74023SOL    HW223909   7.590  12.899   8.865
74024SOL     OW23910   3.861   6.557   9.458
74024SOL    HW123911   3.805   6.527   9.386
74024SOL    HW223912   3.919   6.621   9.417
74025SOL     OW23913   4.163   7.897   2.428
74025SOL    HW123914   4.255   7.897   2.400
74025SOL    HW223915   4.160   7.837   2.502
74026SOL     OW23916   6.139   6.628   5.102
74026SOL    HW123917   6.059   6.608   5.151
74026SOL    HW223918   6.205   6.647   5.169
74027SOL     OW23919   5.622   8.800   2.899
74027SOL    HW123920   5.598   8.891   2.915
74027SOL    HW223921   5.690   8.781   2.963
74028SOL     OW23922   1.426   2.621   2.184
74028SOL    HW123923   1.520   2.608   2.171
74028SOL    HW223924   1.405   2.700   2.134
74029SOL     OW23925   8.954   6.338   3.296
74029SOL    HW123926   9.041   6.357   3.332
74029SOL    HW223927   8.965   6.346   3.201
74030SOL     OW23928   7.278   7.304   0.808
74030SOL    HW123929   7.243   7.363   0.874
74030SOL    HW223930   7.201   7.260   0.772
74031SOL     OW23931   3.441  14.043  13.704
74031SOL    HW123932   3.484  14.062  13.620
74031SOL    HW223933   3.509  14.003  13.758
74032SOL     OW23934   4.981   9.310   6.014
74032SOL    HW123935   5.069   9.288   6.043
74032SOL    HW223936   4.983   9.294   5.919
74033SOL     OW23937  13.905   7.187   8.629
74033SOL    HW123938  13.859   7.263   8.595
74033SOL    HW223939  13.846   7.151   8.696
74034SOL     OW23940   8.696  12.082   9.708
74034SOL    HW123941   8.734  12.170   9.709
74034SOL    HW223942   8.614  12.092   9.659
74035SOL     OW23943   7.019  12.813   3.185
74035SOL    HW123944   6.952  12.846   3.245
74035SOL    HW223945   7.003  12.860   3.103
74036SOL     OW23946  12.202   9.567   3.061
74036SOL    HW123947  12.210   9.652   3.105
74036SOL    HW223948  12.140   9.519   3.115
74037SOL     OW23949  11.703   1.019   2.546
74037SOL    HW123950  11.745   1.103   2.563
74037SOL    HW223951  11.774   0.962   2.515
74038SOL     OW23952   0.541  10.958   4.743
74038SOL    HW123953   0.591  11.034   4.773
74038SOL    HW223954   0.478  10.942   4.813
74039SOL     OW23955   6.294   5.870   1.146
74039SOL    HW123956   6.319   5.844   1.234
74039SOL    HW223957   6.211   5.824   1.130
74040SOL     OW23958  10.974   4.454   6.155
74040SOL    HW123959  10.923   4.521   6.200
74040SOL    HW223960  10.977   4.482   6.064
74041SOL     OW23961  11.526   8.638   0.877
74041SOL    HW123962  11.457   8.654   0.942
74041SOL    HW223963  11.552   8.547   0.893
74042SOL     OW23964   9.273  13.677   0.028
74042SOL    HW123965   9.354  13.642  14.868
74042SOL    HW223966   9.279  13.772   0.012
74043SOL     OW23967   4.348   2.365  10.015
74043SOL    HW123968   4.379   2.304  10.082
74043SOL    HW223969   4.428   2.395   9.971
74044SOL     OW23970   7.667  13.466   0.608
74044SOL    HW123971   7.685  13.399   0.675
74044SOL    HW223972   7.627  13.418   0.536
74045SOL     OW23973  14.515   5.644  10.110
74045SOL    HW123974  14.562   5.567  10.142
74045SOL    HW223975  14.422   5.623  10.122
74046SOL     OW23976  11.671  13.708   4.722
74046SOL    HW123977  11.645  13.621   4.752
74046SOL    HW223978  11.619  13.723   4.643
74047SOL     OW23979   0.124  14.257  12.799
74047SOL    HW123980   0.121  14.278  12.705
74047SOL    HW223981   0.100  14.339  12.842
74048SOL     OW23982   8.166   5.355   3.272
74048SOL    HW123983   8.119   5.277   3.243
74048SOL    HW223984   8.189   5.401   3.191
74049SOL     OW23985   5.416  11.473   1.432
74049SOL    HW123986   5.476  11.513   1.496
74049SOL    HW223987   5.474  11.436   1.365
74050SOL     OW23988   5.288   8.163   1.429
74050SOL    HW123989   5.200   8.129   1.447
74050SOL    HW223990   5.312   8.209   1.509
74051SOL     OW23991  10.628   7.981  12.225
74051SOL    HW123992  10.584   7.955  12.306
74051SOL    HW223993  10.639   7.899  12.177
74052SOL     OW23994  12.258  10.011  11.717
74052SOL    HW123995  12.194   9.942  11.737
74052SOL    HW223996  12.205  10.087  11.694
74053SOL     OW23997  12.935   6.068   1.362
74053SOL    HW123998  12.911   6.099   1.450
74053SOL    HW223999  12.924   5.973   1.367
74054SOL     OW24000   3.652  12.715   4.854
74054SOL    HW124001   3.602  12.689   4.777
74054SOL    HW224002   3.619  12.802   4.877
74055SOL     OW24003   7.501   2.490   7.255
74055SOL    HW124004   7.436   2.495   7.325
74055SOL    HW224005   7.584   2.513   7.297
74056SOL     OW24006  14.230   6.549   4.942
74056SOL    HW124007  14.248   6.549   5.036
74056SOL    HW224008  14.302   6.498   4.904
74057SOL     OW24009  11.073   8.819   0.022
74057SOL    HW124010  11.125   8.791   0.098
74057SOL    HW224011  11.138   8.855  14.837
74058SOL     OW24012  11.477   2.914   7.385
74058SOL    HW124013  11.513   2.993   7.344
74058SOL    HW224014  11.401   2.892   7.331
74059SOL     OW24015   4.013   3.669   4.200
74059SOL    HW124016   3.962   3.590   4.185
74059SOL    HW224017   3.950   3.741   4.189
74060SOL     OW24018  10.865   8.126   0.476
74060SOL    HW124019  10.905   8.040   0.485
74060SOL    HW224020  10.858   8.140   0.381
74061SOL     OW24021   9.421   8.829  14.521
74061SOL    HW124022   9.504   8.857  14.559
74061SOL    HW224023   9.429   8.734  14.512
74062SOL     OW24024  14.464   6.939  11.568
74062SOL    HW124025  14.512   6.907  11.644
74062SOL    HW224026  14.506   7.022  11.547
74063SOL     OW24027   7.774  11.166   9.236
74063SOL    HW124028   7.681  11.161   9.214
74063SOL    HW224029   7.811  11.225   9.169
74064SOL     OW24030  10.686  11.768   5.800
74064SOL    HW124031  10.707  11.724   5.883
74064SOL    HW224032  10.750  11.839   5.793
74065SOL     OW24033   1.515   7.334   6.302
74065SOL    HW124034   1.584   7.359   6.241
74065SOL    HW224035   1.452   7.285   6.249
74066SOL     OW24036  13.027   8.283  13.153
74066SOL    HW124037  13.097   8.312  13.095
74066SOL    HW224038  12.947   8.310  13.109
74067SOL     OW24039  14.492   3.669  10.833
74067SOL    HW124040  14.420   3.702  10.887
74067SOL    HW224041  14.455   3.593  10.787
74068SOL     OW24042   2.190   9.671   1.013
74068SOL    HW124043   2.224   9.622   1.088
74068SOL    HW224044   2.131   9.610   0.969
74069SOL     OW24045  13.151   7.898   6.032
74069SOL    HW124046  13.100   7.928   6.107
74069SOL    HW224047  13.088   7.848   5.979
74070SOL     OW24048   6.504   7.792   3.291
74070SOL    HW124049   6.522   7.754   3.205
74070SOL    HW224050   6.436   7.736   3.328
74071SOL     OW24051   9.107   9.049  11.021
74071SOL    HW124052   9.151   8.972  11.056
74071SOL    HW224053   9.053   9.016  10.950
74072SOL     OW24054  11.708   1.225   0.249
74072SOL    HW124055  11.803   1.215   0.254
74072SOL    HW224056  11.680   1.156   0.188
74073SOL     OW24057   8.752   9.598  13.729
74073SOL    HW124058   8.725   9.551  13.650
74073SOL    HW224059   8.710   9.551  13.801
74074SOL     OW24060   7.901  10.751  12.629
74074SOL    HW124061   7.960  10.713  12.694
74074SOL    HW224062   7.908  10.694  12.553
74075SOL     OW24063  10.647   3.492   8.744
74075SOL    HW124064  10.715   3.557   8.727
74075SOL    HW224065  10.658   3.426   8.675
74076SOL     OW24066   6.239   7.946   4.074
74076SOL    HW124067   6.185   7.887   4.022
74076SOL    HW224068   6.329   7.926   4.047
74077SOL     OW24069  10.191   3.547   6.598
74077SOL    HW124070  10.190   3.493   6.677
74077SOL    HW224071  10.278   3.587   6.598
74078SOL     OW24072   4.704   0.507   0.755
74078SOL    HW124073   4.713   0.591   0.712
74078SOL    HW224074   4.684   0.528   0.846
74079SOL     OW24075   1.275  10.139   3.264
74079SOL    HW124076   1.316  10.159   3.180
74079SOL    HW224077   1.309  10.205   3.324
74080SOL     OW24078   2.450  11.932   3.832
74080SOL    HW124079   2.461  11.982   3.752
74080SOL    HW224080   2.356  11.930   3.848
74081SOL     OW24081  13.991   7.225   7.849
74081SOL    HW124082  13.944   7.200   7.770
74081SOL    HW224083  14.010   7.143   7.894
74082SOL     OW24084   4.661   9.606   5.331
74082SOL    HW124085   4.595   9.539   5.346
74082SOL    HW224086   4.664   9.656   5.413
74083SOL     OW24087  14.241  13.850   6.904
74083SOL    HW124088  14.156  13.842   6.862
74083SOL    HW224089  14.220  13.868   6.996
74084SOL     OW24090   6.588   3.357  10.476
74084SOL    HW124091   6.497   3.378  10.498
74084SOL    HW224092   6.582   3.306  10.396
74085SOL     OW24093   1.197   8.570   2.009
74085SOL    HW124094   1.265   8.631   1.982
74085SOL    HW224095   1.212   8.556   2.102
74086SOL     OW24096  14.098   7.303  13.983
74086SOL    HW124097  14.133   7.365  14.047
74086SOL    HW224098  14.166   7.237  13.973
74087SOL     OW24099  13.889   4.653   0.329
74087SOL    HW124100  13.962   4.680   0.385
74087SOL    HW224101  13.814   4.648   0.389
74088SOL     OW24102   2.827   9.623   8.161
74088SOL    HW124103   2.802   9.592   8.074
74088SOL    HW224104   2.887   9.696   8.144
74089SOL     OW24105  14.162   5.175  12.557
74089SOL    HW124106  14.169   5.242  12.625
74089SOL    HW224107  14.077   5.133  12.574
74090SOL     OW24108   4.526   2.622  12.534
74090SOL    HW124109   4.598   2.594  12.477
74090SOL    HW224110   4.559   2.703  12.574
74091SOL     OW24111  13.622  11.169   1.045
74091SOL    HW124112  13.581  11.255   1.052
74091SOL    HW224113  13.626  11.137   1.135
74092SOL     OW24114   1.867   1.518  12.781
74092SOL    HW124115   1.938   1.493  12.841
74092SOL    HW224116   1.893   1.605  12.750
74093SOL     OW24117  11.147   7.503   9.085
74093SOL    HW124118  11.077   7.437   9.081
74093SOL    HW224119  11.101   7.584   9.106
74094SOL     OW24120  13.517  13.200   9.362
74094SOL    HW124121  13.444  13.246   9.403
74094SOL    HW224122  13.486  13.111   9.351
74095SOL     OW24123   3.434  14.692   5.758
74095SOL    HW124124   3.404  14.746   5.830
74095SOL    HW224125   3.357  14.643   5.730
74096SOL     OW24126   1.023  13.390   0.762
74096SOL    HW124127   1.050  13.324   0.826
74096SOL    HW224128   0.987  13.339   0.689
74097SOL     OW24129   5.624  11.141   4.804
74097SOL    HW124130   5.710  11.182   4.807
74097SOL    HW224131   5.574  11.194   4.742
74098SOL     OW24132  11.004   9.607   1.314
74098SOL    HW124133  11.047   9.691   1.333
74098SOL    HW224134  11.021   9.553   1.391
74099SOL     OW24135  14.453   3.497  13.077
74099SOL    HW124136  14.457   3.444  13.156
74099SOL    HW224137  14.429   3.585  13.108
74100SOL     OW24138   8.992   5.629  11.165
74100SOL    HW124139   9.058   5.582  11.215
74100SOL    HW224140   9.007   5.602  11.074
74101SOL     OW24141   3.623  11.359   0.028
74101SOL    HW124142   3.547  11.404  14.866
74101SOL    HW224143   3.655  11.303  14.834
74102SOL     OW24144  10.719   8.275   2.766
74102SOL    HW124145  10.812   8.253   2.763
74102SOL    HW224146  10.706   8.312   2.853
74103SOL     OW24147   2.495   9.792   0.343
74103SOL    HW124148   2.405   9.795   0.310
74103SOL    HW224149   2.486   9.757   0.432
74104SOL     OW24150   4.904   7.324  11.889
74104SOL    HW124151   4.842   7.388  11.855
74104SOL    HW224152   4.990   7.359  11.867
74105SOL     OW24153   0.397  14.699   3.799
74105SOL    HW124154   0.327  14.753   3.836
74105SOL    HW224155   0.472  14.757   3.793
74106SOL     OW24156   9.477   9.273   8.622
74106SOL    HW124157   9.563   9.233   8.624
74106SOL    HW224158   9.456   9.281   8.529
74107SOL     OW24159   7.520   4.972  14.043
74107SOL    HW124160   7.550   5.025  13.969
74107SOL    HW224161   7.435   4.938  14.015
74108SOL     OW24162   8.835  10.415   4.184
74108SOL    HW124163   8.760  10.428   4.241
74108SOL    HW224164   8.908  10.459   4.229
74109SOL     OW24165  13.738   2.922   2.738
74109SOL    HW124166  13.811   2.887   2.790
74109SOL    HW224167  13.703   2.846   2.692
74110SOL     OW24168  11.242  12.774   0.677
74110SOL    HW124169  11.301  12.823   0.734
74110SOL    HW224170  11.260  12.808   0.589
74111SOL     OW24171   0.956   5.250   2.203
74111SOL    HW124172   0.885   5.189   2.221
74111SOL    HW224173   0.973   5.293   2.287
74112SOL     OW24174  10.029   7.284   4.865
74112SOL    HW124175   9.997   7.357   4.812
74112SOL    HW224176  10.022   7.207   4.808
74113SOL     OW24177   5.938  11.726  12.441
74113SOL    HW124178   5.872  11.659  12.422
74113SOL    HW224179   6.019  11.677  12.451
74114SOL     OW24180  11.635   0.058   3.024
74114SOL    HW124181  11.723   0.040   2.991
74114SOL    HW224182  11.577   0.003   2.971
74115SOL     OW24183   3.015   7.207  10.893
74115SOL    HW124184   3.100   7.163  10.884
74115SOL    HW224185   3.030   7.295  10.859
74116SOL     OW24186   1.231   8.740   3.066
74116SOL    HW124187   1.254   8.664   3.012
74116SOL    HW224188   1.296   8.805   3.043
74117SOL     OW24189  14.085   4.424   1.586
74117SOL    HW124190  14.096   4.508   1.631
74117SOL    HW224191  14.143   4.364   1.632
74118SOL     OW24192   5.868  10.358   8.903
74118SOL    HW124193   5.867  10.408   8.821
74118SOL    HW224194   5.847  10.269   8.876
74119SOL     OW24195  10.167  14.396  14.841
74119SOL    HW124196  10.136  14.357  14.759
74119SOL    HW224197  10.241  14.341  14.867
74120SOL     OW24198   8.209  13.621   0.817
74120SOL    HW124199   8.289  13.597   0.769
74120SOL    HW224200   8.149  13.651   0.749
74121SOL     OW24201   5.622   2.510  10.570
74121SOL    HW124202   5.600   2.460  10.491
74121SOL    HW224203   5.548   2.569  10.583
74122SOL     OW24204   4.934   2.019   1.097
74122SOL    HW124205   4.856   2.074   1.107
74122SOL    HW224206   4.998   2.059   1.156
74123SOL     OW24207   7.045   7.885   1.870
74123SOL    HW124208   7.105   7.958   1.858
74123SOL    HW224209   6.983   7.893   1.797
74124SOL     OW24210   6.480   9.673   9.681
74124SOL    HW124211   6.435   9.717   9.753
74124SOL    HW224212   6.439   9.708   9.602
74125SOL     OW24213   1.636   8.515   2.917
74125SOL    HW124214   1.594   8.601   2.911
74125SOL    HW224215   1.666   8.496   2.829
74126SOL     OW24216   2.993  13.619   7.110
74126SOL    HW124217   3.073  13.670   7.125
74126SOL    HW224218   2.959  13.651   7.027
74127SOL     OW24219   8.686   8.936   1.475
74127SOL    HW124220   8.750   8.870   1.449
74127SOL    HW224221   8.602   8.892   1.468
74128SOL     OW24222  10.388   6.142   2.623
74128SOL    HW124223  10.337   6.218   2.650
74128SOL    HW224224  10.443   6.174   2.552
74129SOL     OW24225  14.809   6.246  12.630
74129SOL    HW124226  14.825   6.155  12.602
74129SOL    HW224227  14.804   6.241  12.725
74130SOL     OW24228  14.794  14.327   7.155
74130SOL    HW124229  14.781  14.232   7.150
74130SOL    HW224230  14.852  14.346   7.081
74131SOL     OW24231  11.310   5.743  11.721
74131SOL    HW124232  11.288   5.729  11.628
74131SOL    HW224233  11.300   5.656  11.760
74132SOL     OW24234  10.959   1.882   0.720
74132SOL    HW124235  10.944   1.809   0.781
74132SOL    HW224236  10.872   1.920   0.707
74133SOL     OW24237   1.950   1.887  14.013
74133SOL    HW124238   1.939   1.849  13.926
74133SOL    HW224239   2.029   1.845  14.047
74134SOL     OW24240   0.975   0.977   1.953
74134SOL    HW124241   0.977   0.887   1.919
74134SOL    HW224242   0.882   1.001   1.951
74135SOL     OW24243  10.851   2.207   9.278
74135SOL    HW124244  10.826   2.192   9.369
74135SOL    HW224245  10.854   2.120   9.239
74136SOL     OW24246   5.414  11.473   3.983
74136SOL    HW124247   5.415  11.401   4.046
74136SOL    HW224248   5.506  11.488   3.962
74137SOL     OW24249   5.112   3.186   4.099
74137SOL    HW124250   5.097   3.272   4.060
74137SOL    HW224251   5.024   3.147   4.105
74138SOL     OW24252   2.035  10.877  11.266
74138SOL    HW124253   2.061  10.966  11.288
74138SOL    HW224254   2.003  10.883  11.176
74139SOL     OW24255  14.769   6.499   0.767
74139SOL    HW124256  14.766   6.403   0.767
74139SOL    HW224257  14.678   6.526   0.753
74140SOL     OW24258   6.728   8.880  13.787
74140SOL    HW124259   6.693   8.882  13.876
74140SOL    HW224260   6.726   8.787  13.764
74141SOL     OW24261  12.922  13.610   3.606
74141SOL    HW124262  12.896  13.539   3.546
74141SOL    HW224263  12.867  13.684   3.581
74142SOL     OW24264   9.770   5.329   3.118
74142SOL    HW124265   9.772   5.289   3.031
74142SOL    HW224266   9.758   5.255   3.178
74143SOL     OW24267   9.406  11.032   4.326
74143SOL    HW124268   9.467  11.103   4.308
74143SOL    HW224269   9.445  10.955   4.284
74144SOL     OW24270   9.109  13.989   0.968
74144SOL    HW124271   9.153  14.055   0.914
74144SOL    HW224272   9.070  14.039   1.040
74145SOL     OW24273  13.705   5.350   9.901
74145SOL    HW124274  13.641   5.328   9.832
74145SOL    HW224275  13.682   5.292   9.974
74146SOL     OW24276   8.233   3.872  12.648
74146SOL    HW124277   8.328   3.860  12.652
74146SOL    HW224278   8.219   3.924  12.569
74147SOL     OW24279   9.914   2.766   6.002
74147SOL    HW124280   9.957   2.751   6.086
74147SOL    HW224281   9.839   2.821   6.023
74148SOL     OW24282   1.806  10.076   1.254
74148SOL    HW124283   1.772  10.030   1.178
74148SOL    HW224284   1.834  10.007   1.315
74149SOL     OW24285   1.766   9.252   2.858
74149SOL    HW124286   1.846   9.268   2.808
74149SOL    HW224287   1.710   9.327   2.837
74150SOL     OW24288   4.851  10.892   8.717
74150SOL    HW124289   4.861  10.872   8.810
74150SOL    HW224290   4.787  10.964   8.715
74151SOL     OW24291   2.696   5.927  12.662
74151SOL    HW124292   2.771   5.875  12.692
74151SOL    HW224293   2.724   5.964  12.578
74152SOL     OW24294   2.734   1.124  13.817
74152SOL    HW124295   2.698   1.082  13.895
74152SOL    HW224296   2.828   1.122  13.830
74153SOL     OW24297   7.186  13.554   8.254
74153SOL    HW124298   7.187  13.576   8.160
74153SOL    HW224299   7.272  13.515   8.270
74154SOL     OW24300   9.970   2.210   6.616
74154SOL    HW124301   9.886   2.236   6.578
74154SOL    HW224302   9.948   2.175   6.702
74155SOL     OW24303   8.903   4.998  11.687
74155SOL    HW124304   8.990   5.030  11.665
74155SOL    HW224305   8.910   4.968  11.777
74156SOL     OW24306   3.777   5.682  10.808
74156SOL    HW124307   3.709   5.652  10.748
74156SOL    HW224308   3.859   5.667  10.761
74157SOL     OW24309  14.254  13.429  10.397
74157SOL    HW124310  14.200  13.452  10.322
74157SOL    HW224311  14.315  13.364  10.363
74158SOL     OW24312   3.057  10.740   7.832
74158SOL    HW124313   3.067  10.827   7.794
74158SOL    HW224314   3.137  10.694   7.806
74159SOL     OW24315   5.567   7.932  10.362
74159SOL    HW124316   5.541   8.010  10.411
74159SOL    HW224317   5.659   7.947  10.340
74160SOL     OW24318   6.827   0.730   6.793
74160SOL    HW124319   6.773   0.767   6.722
74160SOL    HW224320   6.895   0.796   6.807
74161SOL     OW24321  13.683   2.634   5.732
74161SOL    HW124322  13.631   2.560   5.766
74161SOL    HW224323  13.641   2.657   5.650
74162SOL     OW24324  13.889   7.432   4.857
74162SOL    HW124325  13.873   7.524   4.834
74162SOL    HW224326  13.802   7.393   4.862
74163SOL     OW24327  10.737   4.993   3.956
74163SOL    HW124328  10.753   5.038   3.872
74163SOL    HW224329  10.761   5.058   4.022
74164SOL     OW24330   9.089   5.915   7.618
74164SOL    HW124331   9.008   5.899   7.569
74164SOL    HW224332   9.059   5.933   7.707
74165SOL     OW24333  10.097   2.105   1.977
74165SOL    HW124334  10.175   2.049   1.979
74165SOL    HW224335  10.130   2.192   1.956
74166SOL     OW24336   9.392   6.270  11.120
74166SOL    HW124337   9.368   6.194  11.067
74166SOL    HW224338   9.453   6.320  11.066
74167SOL     OW24339  12.390  10.586  12.635
74167SOL    HW124340  12.308  10.598  12.684
74167SOL    HW224341  12.410  10.673  12.601
74168SOL     OW24342   5.828   4.571  10.351
74168SOL    HW124343   5.895   4.528  10.298
74168SOL    HW224344   5.755   4.585  10.291
74169SOL     OW24345  14.013   3.836   1.357
74169SOL    HW124346  13.919   3.856   1.360
74169SOL    HW224347  14.021   3.772   1.286
74170SOL     OW24348  10.380   8.690  13.561
74170SOL    HW124349  10.464   8.652  13.590
74170SOL    HW224350  10.401   8.734  13.479
74171SOL     OW24351  13.153  12.858  14.333
74171SOL    HW124352  13.158  12.814  14.418
74171SOL    HW224353  13.077  12.915  14.339
74172SOL     OW24354   9.451   4.384   7.228
74172SOL    HW124355   9.519   4.405   7.292
74172SOL    HW224356   9.385   4.453   7.240
74173SOL     OW24357   2.760   0.093   6.135
74173SOL    HW124358   2.799   0.174   6.104
74173SOL    HW224359   2.774   0.030   6.064
74174SOL     OW24360  10.371   8.068  12.943
74174SOL    HW124361  10.293   8.053  12.996
74174SOL    HW224362  10.424   8.128  12.995
74175SOL     OW24363  11.982   3.137   8.488
74175SOL    HW124364  11.891   3.108   8.486
74175SOL    HW224365  12.016   3.104   8.571
74176SOL     OW24366  12.313   5.241   9.437
74176SOL    HW124367  12.356   5.165   9.398
74176SOL    HW224368  12.220   5.217   9.440
74177SOL     OW24369   5.782  11.817  12.779
74177SOL    HW124370   5.694  11.797  12.811
74177SOL    HW224371   5.767  11.851  12.690
74178SOL     OW24372  13.864   0.440   5.653
74178SOL    HW124373  13.890   0.368   5.711
74178SOL    HW224374  13.923   0.512   5.676
74179SOL     OW24375   2.915   0.500   8.424
74179SOL    HW124376   2.968   0.553   8.484
74179SOL    HW224377   2.825   0.525   8.444
74180SOL     OW24378   0.004  12.805   1.695
74180SOL    HW124379  14.802  12.756   1.719
74180SOL    HW224380   0.050  12.819   1.779
74181SOL     OW24381   6.651  14.712   8.878
74181SOL    HW124382   6.586  14.660   8.926
74181SOL    HW224383   6.604  14.743   8.801
74182SOL     OW24384   8.616   1.839   7.610
74182SOL    HW124385   8.685   1.885   7.562
74182SOL    HW224386   8.535   1.882   7.584
74183SOL     OW24387   9.456   1.920  14.200
74183SOL    HW124388   9.392   1.876  14.257
74183SOL    HW224389   9.426   1.901  14.111
74184SOL     OW24390   4.886   1.019  10.058
74184SOL    HW124391   4.872   0.940  10.005
74184SOL    HW224392   4.968   1.056  10.025
74185SOL     OW24393   8.187   8.672  11.642
74185SOL    HW124394   8.156   8.599  11.589
74185SOL    HW224395   8.264   8.638  11.687
74186SOL     OW24396   4.877   6.423  11.553
74186SOL    HW124397   4.951   6.401  11.497
74186SOL    HW224398   4.807   6.449  11.492
74187SOL     OW24399   7.704   7.564   7.857
74187SOL    HW124400   7.743   7.630   7.800
74187SOL    HW224401   7.627   7.534   7.809
74188SOL     OW24402  12.264   2.302   8.866
74188SOL    HW124403  12.264   2.375   8.928
74188SOL    HW224404  12.330   2.242   8.900
74189SOL     OW24405   7.659   1.304   6.787
74189SOL    HW124406   7.653   1.209   6.783
74189SOL    HW224407   7.603   1.335   6.716
74190SOL     OW24408   6.944   1.509   8.836
74190SOL    HW124409   7.010   1.494   8.903
74190SOL    HW224410   6.991   1.500   8.753
74191SOL     OW24411  13.368   8.771   8.154
74191SOL    HW124412  13.411   8.788   8.238
74191SOL    HW224413  13.310   8.847   8.142
74192SOL     OW24414   5.770  10.807   4.388
74192SOL    HW124415   5.734  10.890   4.357
74192SOL    HW224416   5.825  10.776   4.316
74193SOL     OW24417   9.444   7.415   4.558
74193SOL    HW124418   9.426   7.361   4.481
74193SOL    HW224419   9.406   7.501   4.536
74194SOL     OW24420   4.066   1.119  13.014
74194SOL    HW124421   3.992   1.179  13.025
74194SOL    HW224422   4.106   1.146  12.931
74195SOL     OW24423   6.192   0.802   2.812
74195SOL    HW124424   6.114   0.747   2.815
74195SOL    HW224425   6.228   0.797   2.900
74196SOL     OW24426   5.617   4.325   6.262
74196SOL    HW124427   5.598   4.417   6.243
74196SOL    HW224428   5.640   4.323   6.354
74197SOL     OW24429   7.316  11.001  12.024
74197SOL    HW124430   7.369  11.078  12.042
74197SOL    HW224431   7.380  10.929  12.018
74198SOL     OW24432   6.019   3.518  11.566
74198SOL    HW124433   5.978   3.445  11.520
74198SOL    HW224434   6.109   3.489  11.580
74199SOL     OW24435   2.176   9.092  12.691
74199SOL    HW124436   2.266   9.116  12.712
74199SOL    HW224437   2.157   9.016  12.747
74200SOL     OW24438  12.792   3.963   5.923
74200SOL    HW124439  12.719   3.910   5.890
74200SOL    HW224440  12.841   3.989   5.845
74201SOL     OW24441   5.711   7.087  13.844
74201SOL    HW124442   5.715   6.992  13.849
74201SOL    HW224443   5.701   7.115  13.935
74202SOL     OW24444   0.552   9.278   1.063
74202SOL    HW124445   0.472   9.293   1.013
74202SOL    HW224446   0.605   9.221   1.007
74203SOL     OW24447   9.966   2.530  14.520
74203SOL    HW124448   9.945   2.478  14.598
74203SOL    HW224449   9.916   2.490  14.450
74204SOL     OW24450  10.780   9.986   7.280
74204SOL    HW124451  10.780   9.936   7.198
74204SOL    HW224452  10.730  10.065   7.261
74205SOL     OW24453  11.823   0.988   1.627
74205SOL    HW124454  11.904   0.941   1.608
74205SOL    HW224455  11.846   1.080   1.617
74206SOL     OW24456   8.080   7.141   0.965
74206SOL    HW124457   8.084   7.056   1.008
74206SOL    HW224458   8.150   7.139   0.900
74207SOL     OW24459  10.524   1.698   4.101
74207SOL    HW124460  10.529   1.669   4.192
74207SOL    HW224461  10.447   1.653   4.066
74208SOL     OW24462   9.452   9.898   9.851
74208SOL    HW124463   9.436   9.917   9.944
74208SOL    HW224464   9.529   9.951   9.829
74209SOL     OW24465  12.221   0.087   5.755
74209SOL    HW124466  12.154   0.144   5.717
74209SOL    HW224467  12.172   0.014   5.792
74210SOL     OW24468   6.911   4.989  12.519
74210SOL    HW124469   6.946   4.901  12.505
74210SOL    HW224470   6.843   4.977  12.585
74211SOL     OW24471   8.413   5.482  14.666
74211SOL    HW124472   8.375   5.428  14.597
74211SOL    HW224473   8.338   5.525  14.707
74212SOL     OW24474  10.904  13.394   8.929
74212SOL    HW124475  10.836  13.384   8.863
74212SOL    HW224476  10.857  13.427   9.006
74213SOL     OW24477   1.646   7.635   5.317
74213SOL    HW124478   1.684   7.721   5.302
74213SOL    HW224479   1.650   7.623   5.412
74214SOL     OW24480  10.635  10.077   9.415
74214SOL    HW124481  10.564  10.019   9.442
74214SOL    HW224482  10.699  10.019   9.374
74215SOL     OW24483  11.444   6.407   3.229
74215SOL    HW124484  11.468   6.476   3.292
74215SOL    HW224485  11.508   6.337   3.245
74216SOL     OW24486   1.075   9.164   4.648
74216SOL    HW124487   1.079   9.104   4.723
74216SOL    HW224488   1.063   9.108   4.572
74217SOL     OW24489  10.487  14.190   2.001
74217SOL    HW124490  10.443  14.111   1.969
74217SOL    HW224491  10.564  14.200   1.946
74218SOL     OW24492  12.575  14.215   8.314
74218SOL    HW124493  12.641  14.221   8.244
74218SOL    HW224494  12.587  14.295   8.365
74219SOL     OW24495   2.372   3.419   2.000
74219SOL    HW124496   2.285   3.458   1.990
74219SOL    HW224497   2.422   3.484   2.051
74220SOL     OW24498   6.651  12.917  11.830
74220SOL    HW124499   6.676  12.907  11.921
74220SOL    HW224500   6.687  12.840  11.786
74221SOL     OW24501   4.009   7.866  10.732
74221SOL    HW124502   4.049   7.799  10.787
74221SOL    HW224503   4.083   7.917  10.699
74222SOL     OW24504  10.688  12.249  12.469
74222SOL    HW124505  10.699  12.299  12.388
74222SOL    HW224506  10.744  12.294  12.533
74223SOL     OW24507   7.669   5.222   6.131
74223SOL    HW124508   7.674   5.166   6.053
74223SOL    HW224509   7.615   5.296   6.104
74224SOL     OW24510   2.092  12.878   3.796
74224SOL    HW124511   2.178  12.905   3.830
74224SOL    HW224512   2.032  12.890   3.869
74225SOL     OW24513   5.265   9.246   4.145
74225SOL    HW124514   5.194   9.184   4.162
74225SOL    HW224515   5.299   9.221   4.059
74226SOL     OW24516  10.628   4.819   4.700
74226SOL    HW124517  10.567   4.788   4.633
74226SOL    HW224518  10.630   4.914   4.688
74227SOL     OW24519  14.693   2.968   7.520
74227SOL    HW124520  14.643   2.889   7.501
74227SOL    HW224521  14.779   2.953   7.481
74228SOL     OW24522  14.307   5.988   7.356
74228SOL    HW124523  14.325   5.908   7.405
74228SOL    HW224524  14.212   5.987   7.343
74229SOL     OW24525  10.627   4.336   7.596
74229SOL    HW124526  10.695   4.274   7.569
74229SOL    HW224527  10.546   4.300   7.562
74230SOL     OW24528  11.039   9.499   0.610
74230SOL    HW124529  11.014   9.575   0.558
74230SOL    HW224530  11.055   9.430   0.546
74231SOL     OW24531   7.347   8.561   0.397
74231SOL    HW124532   7.402   8.488   0.426
74231SOL    HW224533   7.392   8.640   0.427
74232SOL     OW24534   4.050   1.853   0.656
74232SOL    HW124535   3.973   1.799   0.636
74232SOL    HW224536   4.079   1.885   0.570
74233SOL     OW24537  10.773   9.401   2.638
74233SOL    HW124538  10.818   9.318   2.621
74233SOL    HW224539  10.836   9.468   2.614
74234SOL     OW24540   4.492   8.971   6.817
74234SOL    HW124541   4.558   9.013   6.762
74234SOL    HW224542   4.536   8.893   6.851
74235SOL     OW24543   4.114   0.100   6.916
74235SOL    HW124544   4.204   0.133   6.911
74235SOL    HW224545   4.074   0.126   6.833
74236SOL     OW24546   4.273   0.268  13.143
74236SOL    HW124547   4.367   0.279  13.158
74236SOL    HW224548   4.250   0.337  13.081
74237SOL     OW24549  10.459   7.195  12.304
74237SOL    HW124550  10.542   7.240  12.322
74237SOL    HW224551  10.410   7.202  12.386
74238SOL     OW24552   6.827  14.302  12.628
74238SOL    HW124553   6.806  14.312  12.535
74238SOL    HW224554   6.828  14.207  12.641
74239SOL     OW24555   4.569   2.818   1.772
74239SOL    HW124556   4.614   2.813   1.687
74239SOL    HW224557   4.639   2.808   1.836
74240SOL     OW24558   8.402  10.418  14.194
74240SOL    HW124559   8.406  10.503  14.239
74240SOL    HW224560   8.492  10.402  14.164
74241SOL     OW24561   2.914   8.412  12.894
74241SOL    HW124562   3.001   8.388  12.861
74241SOL    HW224563   2.875   8.329  12.921
74242SOL     OW24564   0.146   4.484   0.661
74242SOL    HW124565   0.070   4.541   0.655
74242SOL    HW224566   0.205   4.515   0.592
74243SOL     OW24567   4.628   1.339  14.810
74243SOL    HW124568   4.706   1.326  14.755
74243SOL    HW224569   4.662   1.341   0.023
74244SOL     OW24570   2.066   8.106  10.918
74244SOL    HW124571   2.100   8.054  10.991
74244SOL    HW224572   2.108   8.068  10.840
74245SOL     OW24573   5.422   4.317   0.121
74245SOL    HW124574   5.486   4.250   0.097
74245SOL    HW224575   5.467   4.372   0.185
74246SOL     OW24576   1.425   1.846   8.632
74246SOL    HW124577   1.473   1.774   8.673
74246SOL    HW224578   1.478   1.870   8.556
74247SOL     OW24579   6.657   1.474  11.413
74247SOL    HW124580   6.623   1.562  11.430
74247SOL    HW224581   6.600   1.439  11.345
74248SOL     OW24582   2.869  13.434   8.521
74248SOL    HW124583   2.875  13.484   8.602
74248SOL    HW224584   2.777  13.439   8.497
74249SOL     OW24585   6.800   6.332   8.003
74249SOL    HW124586   6.773   6.348   8.094
74249SOL    HW224587   6.811   6.238   7.998
74250SOL     OW24588   4.686   5.909   3.726
74250SOL    HW124589   4.765   5.962   3.713
74250SOL    HW224590   4.718   5.830   3.770
74251SOL     OW24591   9.862  11.096  13.712
74251SOL    HW124592   9.918  11.022  13.689
74251SOL    HW224593   9.875  11.158  13.640
74252SOL     OW24594   2.172   4.708   6.430
74252SOL    HW124595   2.181   4.704   6.525
74252SOL    HW224596   2.094   4.761   6.416
74253SOL     OW24597   0.987  10.444   4.656
74253SOL    HW124598   0.997  10.527   4.703
74253SOL    HW224599   0.906  10.406   4.691
74254SOL     OW24600   5.959   2.822  12.463
74254SOL    HW124601   6.038   2.876  12.465
74254SOL    HW224602   5.968   2.769  12.384
74255SOL     OW24603   4.213  12.338   2.723
74255SOL    HW124604   4.168  12.324   2.639
74255SOL    HW224605   4.207  12.254   2.767
74256SOL     OW24606   8.316   6.887  12.784
74256SOL    HW124607   8.281   6.967  12.745
74256SOL    HW224608   8.359   6.915  12.864
74257SOL     OW24609  11.249  13.868   0.596
74257SOL    HW124610  11.229  13.815   0.673
74257SOL    HW224611  11.179  13.933   0.592
74258SOL     OW24612   1.054   9.779  10.452
74258SOL    HW124613   1.142   9.769  10.416
74258SOL    HW224614   1.062   9.750  10.542
74259SOL     OW24615  10.864  12.078   2.708
74259SOL    HW124616  10.830  12.011   2.648
74259SOL    HW224617  10.839  12.047   2.795
74260SOL     OW24618   4.722  11.305   4.491
74260SOL    HW124619   4.767  11.369   4.436
74260SOL    HW224620   4.656  11.355   4.538
74261SOL     OW24621  11.597   3.799   7.221
74261SOL    HW124622  11.516   3.817   7.174
74261SOL    HW224623  11.654   3.758   7.156
74262SOL     OW24624   6.437   4.469   5.998
74262SOL    HW124625   6.427   4.398   6.062
74262SOL    HW224626   6.467   4.544   6.050
74263SOL     OW24627  11.518   9.256   2.050
74263SOL    HW124628  11.429   9.238   2.081
74263SOL    HW224629  11.506   9.287   1.960
74264SOL     OW24630  10.805   3.373   4.575
74264SOL    HW124631  10.719   3.333   4.588
74264SOL    HW224632  10.786   3.465   4.557
74265SOL     OW24633  10.129   2.986  14.499
74265SOL    HW124634  10.094   3.049  14.437
74265SOL    HW224635  10.224   2.995  14.492
74266SOL     OW24636  12.672  10.769   5.367
74266SOL    HW124637  12.715  10.684   5.380
74266SOL    HW224638  12.741  10.826   5.335
74267SOL     OW24639   3.770   9.493  10.468
74267SOL    HW124640   3.721   9.490  10.386
74267SOL    HW224641   3.767   9.584  10.495
74268SOL     OW24642   6.838   9.954   1.916
74268SOL    HW124643   6.802   9.992   1.997
74268SOL    HW224644   6.773   9.976   1.850
74269SOL     OW24645   4.911   0.461  12.241
74269SOL    HW124646   4.897   0.386  12.299
74269SOL    HW224647   4.845   0.451  12.172
74270SOL     OW24648   8.634   5.058   3.526
74270SOL    HW124649   8.655   5.132   3.583
74270SOL    HW224650   8.583   4.999   3.582
74271SOL     OW24651  11.973   6.765   3.253
74271SOL    HW124652  11.999   6.772   3.161
74271SOL    HW224653  11.878   6.772   3.251
74272SOL     OW24654   1.112   1.854  13.972
74272SOL    HW124655   1.167   1.925  13.939
74272SOL    HW224656   1.046   1.841  13.904
74273SOL     OW24657   3.827   5.063   1.501
74273SOL    HW124658   3.827   5.012   1.581
74273SOL    HW224659   3.919   5.084   1.485
74274SOL     OW24660   5.690   1.169   5.713
74274SOL    HW124661   5.758   1.191   5.777
74274SOL    HW224662   5.714   1.221   5.636
74275SOL     OW24663   3.835   7.503   4.829
74275SOL    HW124664   3.842   7.444   4.905
74275SOL    HW224665   3.832   7.590   4.867
74276SOL     OW24666   2.264  11.751   1.317
74276SOL    HW124667   2.227  11.816   1.258
74276SOL    HW224668   2.358  11.762   1.310
74277SOL     OW24669   2.568   4.016   5.969
74277SOL    HW124670   2.501   4.076   6.003
74277SOL    HW224671   2.582   4.046   5.879
74278SOL     OW24672  10.342   7.222  13.343
74278SOL    HW124673  10.258   7.233  13.387
74278SOL    HW224674  10.384   7.308  13.350
74279SOL     OW24675   7.974   2.501   8.390
74279SOL    HW124676   7.966   2.416   8.434
74279SOL    HW224677   7.983   2.564   8.461
74280SOL     OW24678  13.854   9.152  10.235
74280SOL    HW124679  13.926   9.191  10.185
74280SOL    HW224680  13.789   9.222  10.242
74281SOL     OW24681   1.141   1.447   8.568
74281SOL    HW124682   1.149   1.514   8.636
74281SOL    HW224683   1.119   1.367   8.615
74282SOL     OW24684   7.510   3.767   9.346
74282SOL    HW124685   7.570   3.793   9.416
74282SOL    HW224686   7.515   3.671   9.345
74283SOL     OW24687   5.902   2.160   8.808
74283SOL    HW124688   5.834   2.095   8.788
74283SOL    HW224689   5.962   2.155   8.734
74284SOL     OW24690   5.796   1.012   9.748
74284SOL    HW124691   5.750   1.028   9.831
74284SOL    HW224692   5.872   0.959   9.774
74285SOL     OW24693   5.109  13.506   5.109
74285SOL    HW124694   5.035  13.446   5.110
74285SOL    HW224695   5.075  13.587   5.147
74286SOL     OW24696   9.200   2.261  13.132
74286SOL    HW124697   9.200   2.347  13.090
74286SOL    HW224698   9.285   2.255  13.175
74287SOL     OW24699  12.448   0.979   7.935
74287SOL    HW124700  12.423   1.004   8.024
74287SOL    HW224701  12.489   1.058   7.898
74288SOL     OW24702   3.185   7.125  10.346
74288SOL    HW124703   3.141   7.191  10.400
74288SOL    HW224704   3.120   7.056  10.334
74289SOL     OW24705   1.215   7.504   2.383
74289SOL    HW124706   1.127   7.538   2.400
74289SOL    HW224707   1.255   7.497   2.469
74290SOL     OW24708   5.747   7.015  14.456
74290SOL    HW124709   5.680   6.957  14.493
74290SOL    HW224710   5.740   7.095  14.509
74291SOL     OW24711   6.597   3.377   3.458
74291SOL    HW124712   6.662   3.444   3.477
74291SOL    HW224713   6.551   3.363   3.540
74292SOL     OW24714   9.210  10.294  10.568
74292SOL    HW124715   9.299  10.273  10.539
74292SOL    HW224716   9.153  10.250  10.506
74293SOL     OW24717   8.251  13.670   2.701
74293SOL    HW124718   8.306  13.683   2.624
74293SOL    HW224719   8.162  13.677   2.668
74294SOL     OW24720   1.319   3.279   6.319
74294SOL    HW124721   1.382   3.228   6.370
74294SOL    HW224722   1.368   3.355   6.288
74295SOL     OW24723   1.401   9.089   8.770
74295SOL    HW124724   1.306   9.099   8.782
74295SOL    HW224725   1.412   8.999   8.740
74296SOL     OW24726   0.476   8.292   8.740
74296SOL    HW124727   0.387   8.326   8.740
74296SOL    HW224728   0.493   8.272   8.648
74297SOL     OW24729  14.254   3.617   8.984
74297SOL    HW124730  14.179   3.672   8.959
74297SOL    HW224731  14.285   3.655   9.066
74298SOL     OW24732   3.670   6.414   5.072
74298SOL    HW124733   3.593   6.428   5.017
74298SOL    HW224734   3.651   6.464   5.152
74299SOL     OW24735  10.593   2.317   6.175
74299SOL    HW124736  10.504   2.345   6.193
74299SOL    HW224737  10.646   2.360   6.241
74300SOL     OW24738  14.107  14.600   7.517
74300SOL    HW124739  14.012  14.609   7.529
74300SOL    HW224740  14.116  14.544   7.440
74301SOL     OW24741   4.097   7.516   7.387
74301SOL    HW124742   4.091   7.425   7.361
74301SOL    HW224743   4.156   7.556   7.324
74302SOL     OW24744  14.639   8.615   6.611
74302SOL    HW124745  14.626   8.699   6.656
74302SOL    HW224746  14.615   8.633   6.520
74303SOL     OW24747  10.091   6.841   9.569
74303SOL    HW124748  10.098   6.747   9.550
74303SOL    HW224749  10.108   6.883   9.485
74304SOL     OW24750  13.368   6.727   0.585
74304SOL    HW124751  13.349   6.653   0.527
74304SOL    HW224752  13.427   6.783   0.535
74305SOL     OW24753   5.464  10.412   4.535
74305SOL    HW124754   5.421  10.478   4.590
74305SOL    HW224755   5.457  10.448   4.446
74306SOL     OW24756   2.595   0.689  12.396
74306SOL    HW124757   2.509   0.721  12.371
74306SOL    HW224758   2.635   0.761  12.445
74307SOL     OW24759   5.944   5.631  10.115
74307SOL    HW124760   5.972   5.706  10.167
74307SOL    HW224761   6.016   5.617  10.052
74308SOL     OW24762   4.431   1.823  13.970
74308SOL    HW124763   4.519   1.792  13.949
74308SOL    HW224764   4.441   1.871  14.053
74309SOL     OW24765  10.979   2.991   6.028
74309SOL    HW124766  10.897   3.009   5.983
74309SOL    HW224767  11.045   3.038   5.977
74310SOL     OW24768   8.424   6.343   2.828
74310SOL    HW124769   8.422   6.426   2.877
74310SOL    HW224770   8.411   6.276   2.894
74311SOL     OW24771  11.074   8.479   6.679
74311SOL    HW124772  11.036   8.461   6.593
74311SOL    HW224773  11.047   8.569   6.699
74312SOL     OW24774   7.844   2.263  10.894
74312SOL    HW124775   7.783   2.337  10.895
74312SOL    HW224776   7.929   2.302  10.911
74313SOL     OW24777   3.522  14.630   0.634
74313SOL    HW124778   3.509  14.631   0.729
74313SOL    HW224779   3.535  14.722   0.611
74314SOL     OW24780  14.381  12.802   0.867
74314SOL    HW124781  14.405  12.709   0.877
74314SOL    HW224782  14.325  12.820   0.943
74315SOL     OW24783  12.723   5.608  11.990
74315SOL    HW124784  12.747   5.607  11.897
74315SOL    HW224785  12.633   5.640  11.992
74316SOL     OW24786   1.452   3.833  11.957
74316SOL    HW124787   1.426   3.748  11.993
74316SOL    HW224788   1.517   3.811  11.889
74317SOL     OW24789  13.485  11.534   5.887
74317SOL    HW124790  13.446  11.458   5.930
74317SOL    HW224791  13.424  11.555   5.816
74318SOL     OW24792   4.814  12.621   4.001
74318SOL    HW124793   4.755  12.664   3.939
74318SOL    HW224794   4.780  12.645   4.087
74319SOL     OW24795   2.766   3.885   5.461
74319SOL    HW124796   2.755   3.980   5.458
74319SOL    HW224797   2.728   3.859   5.545
74320SOL     OW24798   5.779   4.518  10.926
74320SOL    HW124799   5.794   4.605  10.963
74320SOL    HW224800   5.688   4.498  10.949
74321SOL     OW24801  11.098   1.500  11.503
74321SOL    HW124802  11.071   1.588  11.477
74321SOL    HW224803  11.100   1.450  11.422
74322SOL     OW24804   2.733   5.577   4.727
74322SOL    HW124805   2.700   5.515   4.792
74322SOL    HW224806   2.689   5.660   4.748
74323SOL     OW24807   6.331  11.519   5.107
74323SOL    HW124808   6.418  11.513   5.068
74323SOL    HW224809   6.343  11.493   5.198
74324SOL     OW24810   9.496   1.099   0.426
74324SOL    HW124811   9.436   1.028   0.448
74324SOL    HW224812   9.460   1.175   0.472
74325SOL     OW24813  12.247   6.330  10.977
74325SOL    HW124814  12.218   6.421  10.969
74325SOL    HW224815  12.209   6.300  11.060
74326SOL     OW24816   2.222   8.981   2.432
74326SOL    HW124817   2.291   8.953   2.491
74326SOL    HW224818   2.182   9.057   2.476
74327SOL     OW24819   7.829   9.059  10.649
74327SOL    HW124820   7.908   9.071  10.701
74327SOL    HW224821   7.780   9.140  10.660
74328SOL     OW24822   8.148   1.684   3.183
74328SOL    HW124823   8.226   1.674   3.129
74328SOL    HW224824   8.155   1.614   3.248
74329SOL     OW24825   1.217   8.755  11.250
74329SOL    HW124826   1.181   8.821  11.189
74329SOL    HW224827   1.158   8.680  11.241
74330SOL     OW24828   0.509  14.671   0.618
74330SOL    HW124829   0.433  14.625   0.654
74330SOL    HW224830   0.475  14.755   0.589
74331SOL     OW24831   0.973  11.500   0.497
74331SOL    HW124832   1.006  11.423   0.450
74331SOL    HW224833   1.043  11.520   0.560
74332SOL     OW24834   4.559   5.532   7.847
74332SOL    HW124835   4.493   5.484   7.896
74332SOL    HW224836   4.523   5.620   7.836
74333SOL     OW24837   6.371   1.054  10.494
74333SOL    HW124838   6.392   1.138  10.534
74333SOL    HW224839   6.337   1.076  10.407
74334SOL     OW24840   0.080   7.787   1.491
74334SOL    HW124841   0.144   7.774   1.421
74334SOL    HW224842   0.130   7.772   1.571
74335SOL     OW24843  10.118   5.917   6.008
74335SOL    HW124844  10.208   5.912   5.977
74335SOL    HW224845  10.125   5.917   6.103
74336SOL     OW24846   1.965   2.037   8.189
74336SOL    HW124847   1.918   1.964   8.148
74336SOL    HW224848   2.050   2.000   8.213
74337SOL     OW24849   7.448  14.062   5.157
74337SOL    HW124850   7.464  14.038   5.066
74337SOL    HW224851   7.535  14.082   5.192
74338SOL     OW24852   5.036  14.547   9.177
74338SOL    HW124853   4.959  14.577   9.227
74338SOL    HW224854   5.100  14.523   9.245
74339SOL     OW24855  13.882  13.497  12.617
74339SOL    HW124856  13.883  13.402  12.631
74339SOL    HW224857  13.969  13.526  12.646
74340SOL     OW24858  13.935   2.271   1.126
74340SOL    HW124859  13.875   2.346   1.128
74340SOL    HW224860  13.938   2.245   1.034
74341SOL     OW24861  14.670   7.024   1.073
74341SOL    HW124862  14.683   7.034   0.978
74341SOL    HW224863  14.642   6.933   1.083
74342SOL     OW24864   0.532  14.588   7.312
74342SOL    HW124865   0.562  14.568   7.401
74342SOL    HW224866   0.608  14.629   7.270
74343SOL     OW24867   8.294   6.622   2.255
74343SOL    HW124868   8.199   6.615   2.253
74343SOL    HW224869   8.314   6.689   2.190
74344SOL     OW24870   4.797   0.394  10.778
74344SOL    HW124871   4.834   0.450  10.846
74344SOL    HW224872   4.869   0.381  10.716
74345SOL     OW24873  13.424   9.647  10.746
74345SOL    HW124874  13.420   9.554  10.767
74345SOL    HW224875  13.433   9.690  10.831
74346SOL     OW24876   1.168   7.599   5.619
74346SOL    HW124877   1.249   7.649   5.608
74346SOL    HW224878   1.185   7.516   5.576
74347SOL     OW24879  14.360   4.956   0.133
74347SOL    HW124880  14.306   5.035   0.132
74347SOL    HW224881  14.421   4.967   0.060
74348SOL     OW24882   7.534   7.450   2.494
74348SOL    HW124883   7.626   7.461   2.517
74348SOL    HW224884   7.498   7.539   2.498
74349SOL     OW24885   0.870   6.227   1.458
74349SOL    HW124886   0.826   6.169   1.396
74349SOL    HW224887   0.903   6.169   1.526
74350SOL     OW24888   0.375   9.376  13.028
74350SOL    HW124889   0.323   9.325  12.966
74350SOL    HW224890   0.434   9.311  13.068
74351SOL     OW24891  14.251   8.985  13.354
74351SOL    HW124892  14.255   8.906  13.300
74351SOL    HW224893  14.183   9.039  13.313
74352SOL     OW24894   1.680   8.686  13.066
74352SOL    HW124895   1.586   8.672  13.072
74352SOL    HW224896   1.718   8.611  13.111
74353SOL     OW24897   0.872   4.447   4.503
74353SOL    HW124898   0.790   4.422   4.546
74353SOL    HW224899   0.932   4.467   4.575
74354SOL     OW24900   9.480   1.522   2.118
74354SOL    HW124901   9.435   1.545   2.199
74354SOL    HW224902   9.567   1.560   2.127
74355SOL     OW24903  10.318   4.457  10.765
74355SOL    HW124904  10.257   4.495  10.829
74355SOL    HW224905  10.398   4.508  10.775
74356SOL     OW24906   1.993   9.356  13.215
74356SOL    HW124907   2.032   9.375  13.300
74356SOL    HW224908   2.064   9.315  13.165
74357SOL     OW24909   5.629  10.330  13.824
74357SOL    HW124910   5.661  10.306  13.910
74357SOL    HW224911   5.637  10.250  13.772
74358SOL     OW24912   9.824   1.234  13.609
74358SOL    HW124913   9.915   1.257  13.589
74358SOL    HW224914   9.826   1.211  13.702
74359SOL     OW24915   3.201  10.942   6.793
74359SOL    HW124916   3.191  11.029   6.831
74359SOL    HW224917   3.201  10.957   6.699
74360SOL     OW24918   0.168   9.035   2.240
74360SOL    HW124919   0.228   9.104   2.211
74360SOL    HW224920   0.212   8.996   2.316
74361SOL     OW24921   9.795   1.195   2.876
74361SOL    HW124922   9.737   1.262   2.911
74361SOL    HW224923   9.794   1.209   2.781
74362SOL     OW24924  14.673  14.700   1.105
74362SOL    HW124925  14.646  14.755   1.031
74362SOL    HW224926  14.708  14.761   1.169
74363SOL     OW24927   8.084   5.499  12.108
74363SOL    HW124928   8.033   5.535  12.035
74363SOL    HW224929   8.158   5.559  12.118
74364SOL     OW24930  13.823   8.469  14.497
74364SOL    HW124931  13.772   8.548  14.477
74364SOL    HW224932  13.856   8.440  14.411
74365SOL     OW24933  12.629   3.740   0.081
74365SOL    HW124934  12.574   3.679   0.032
74365SOL    HW224935  12.645   3.696   0.165
74366SOL     OW24936   8.103  10.061  14.205
74366SOL    HW124937   8.072  10.118  14.135
74366SOL    HW224938   8.050   9.982  14.198
74367SOL     OW24939   3.311   0.457   4.135
74367SOL    HW124940   3.380   0.422   4.191
74367SOL    HW224941   3.257   0.381   4.113
74368SOL     OW24942  10.629   8.703  12.146
74368SOL    HW124943  10.569   8.629  12.140
74368SOL    HW224944  10.695   8.687  12.079
74369SOL     OW24945   2.072  14.357  14.043
74369SOL    HW124946   2.037  14.304  13.971
74369SOL    HW224947   2.096  14.440  14.002
74370SOL     OW24948  12.353  10.179   4.643
74370SOL    HW124949  12.346  10.220   4.557
74370SOL    HW224950  12.305  10.096   4.635
74371SOL     OW24951   0.675   1.701  14.572
74371SOL    HW124952   0.670   1.794  14.551
74371SOL    HW224953   0.768   1.686  14.592
74372SOL     OW24954  14.043  11.364   1.298
74372SOL    HW124955  13.974  11.360   1.232
74372SOL    HW224956  14.045  11.277   1.337
74373SOL     OW24957   7.712   0.381   1.432
74373SOL    HW124958   7.789   0.327   1.412
74373SOL    HW224959   7.736   0.429   1.511
74374SOL     OW24960   4.439   7.048   2.325
74374SOL    HW124961   4.463   7.122   2.381
74374SOL    HW224962   4.456   7.078   2.236
74375SOL     OW24963   8.079   2.411  12.617
74375SOL    HW124964   8.083   2.503  12.643
74375SOL    HW224965   7.997   2.404  12.568
74376SOL     OW24966   5.657  12.116  12.594
74376SOL    HW124967   5.673  12.029  12.559
74376SOL    HW224968   5.721  12.172  12.549
74377SOL     OW24969  14.365  12.237   6.117
74377SOL    HW124970  14.432  12.232   6.185
74377SOL    HW224971  14.284  12.209   6.160
74378SOL     OW24972  14.327  10.171   1.863
74378SOL    HW124973  14.342  10.096   1.920
74378SOL    HW224974  14.250  10.214   1.899
74379SOL     OW24975   1.043  12.397   6.907
74379SOL    HW124976   1.077  12.484   6.930
74379SOL    HW224977   1.020  12.404   6.814
74380SOL     OW24978   1.062  11.480   3.158
74380SOL    HW124979   1.021  11.454   3.241
74380SOL    HW224980   1.121  11.407   3.137
74381SOL     OW24981   7.888   2.656   2.164
74381SOL    HW124982   7.980   2.653   2.191
74381SOL    HW224983   7.840   2.630   2.243
74382SOL     OW24984   1.821  11.070   9.771
74382SOL    HW124985   1.826  11.150   9.824
74382SOL    HW224986   1.745  11.024   9.806
74383SOL     OW24987  12.848   5.184   5.926
74383SOL    HW124988  12.772   5.127   5.933
74383SOL    HW224989  12.813   5.272   5.938
74384SOL     OW24990   8.642   5.011   1.502
74384SOL    HW124991   8.710   5.063   1.459
74384SOL    HW224992   8.577   4.996   1.433
74385SOL     OW24993   2.109  13.627   1.307
74385SOL    HW124994   2.189  13.651   1.354
74385SOL    HW224995   2.118  13.532   1.292
74386SOL     OW24996   2.156   2.381  13.991
74386SOL    HW124997   2.166   2.352  14.082
74386SOL    HW224998   2.234   2.349  13.946
74387SOL     OW24999   3.463   8.485   9.927
74387SOL    HW125000   3.503   8.458  10.009
74387SOL    HW225001   3.532   8.473   9.861
74388SOL     OW25002   7.558   3.516  11.697
74388SOL    HW125003   7.545   3.605  11.664
74388SOL    HW225004   7.653   3.505  11.699
74389SOL     OW25005   3.710   5.607  13.568
74389SOL    HW125006   3.736   5.648  13.651
74389SOL    HW225007   3.651   5.670  13.527
74390SOL     OW25008   2.801   6.090  12.842
74390SOL    HW125009   2.743   6.123  12.911
74390SOL    HW225010   2.742   6.041  12.783
74391SOL     OW25011   1.192  13.922   8.831
74391SOL    HW125012   1.104  13.932   8.794
74391SOL    HW225013   1.215  13.831   8.813
74392SOL     OW25014   5.977  14.024  12.873
74392SOL    HW125015   6.019  13.947  12.834
74392SOL    HW225016   5.987  14.092  12.807
74393SOL     OW25017   1.524  11.976   9.482
74393SOL    HW125018   1.553  11.920   9.555
74393SOL    HW225019   1.450  11.929   9.444
74394SOL     OW25020  13.750   9.986   4.479
74394SOL    HW125021  13.686   9.915   4.478
74394SOL    HW225022  13.805   9.969   4.556
74395SOL     OW25023  11.878   9.560   7.036
74395SOL    HW125024  11.939   9.595   6.971
74395SOL    HW225025  11.924   9.487   7.076
74396SOL     OW25026   7.147   0.721   7.489
74396SOL    HW125027   7.171   0.775   7.563
74396SOL    HW225028   7.150   0.631   7.523
74397SOL     OW25029   9.608   3.439   3.198
74397SOL    HW125030   9.534   3.479   3.152
74397SOL    HW225031   9.625   3.498   3.271
74398SOL     OW25032   5.259   9.150   6.283
74398SOL    HW125033   5.196   9.215   6.250
74398SOL    HW225034   5.340   9.171   6.235
74399SOL     OW25035   0.038  12.013   8.529
74399SOL    HW125036   0.041  12.109   8.520
74399SOL    HW225037  14.833  11.988   8.486
74400SOL     OW25038  13.468   9.088   0.834
74400SOL    HW125039  13.470   8.993   0.831
74400SOL    HW225040  13.474   9.110   0.927
74401SOL     OW25041   7.787   6.995   1.568
74401SOL    HW125042   7.821   6.935   1.633
74401SOL    HW225043   7.782   7.080   1.612
74402SOL     OW25044  14.570   8.973   7.288
74402SOL    HW125045  14.642   8.991   7.348
74402SOL    HW225046  14.522   8.901   7.329
74403SOL     OW25047   7.774   0.928   7.024
74403SOL    HW125048   7.808   0.951   7.110
74403SOL    HW225049   7.781   0.832   7.020
74404SOL     OW25050   7.094  12.599   6.765
74404SOL    HW125051   7.181  12.561   6.779
74404SOL    HW225052   7.108  12.694   6.770
74405SOL     OW25053   6.286  14.556   3.345
74405SOL    HW125054   6.359  14.495   3.339
74405SOL    HW225055   6.296  14.596   3.432
74406SOL     OW25056  11.131  12.211   0.009
74406SOL    HW125057  11.140  12.198  14.791
74406SOL    HW225058  11.121  12.122   0.044
74407SOL     OW25059   7.668   7.406   3.106
74407SOL    HW125060   7.665   7.458   3.186
74407SOL    HW225061   7.750   7.433   3.063
74408SOL     OW25062  12.911   0.120  11.635
74408SOL    HW125063  12.928   0.211  11.658
74408SOL    HW225064  12.827   0.100  11.677
74409SOL     OW25065   8.022   4.758  12.010
74409SOL    HW125066   8.073   4.838  11.996
74409SOL    HW225067   7.939   4.789  12.048
74410SOL     OW25068   3.277   3.773  11.558
74410SOL    HW125069   3.274   3.760  11.652
74410SOL    HW225070   3.366   3.747  11.532
74411SOL     OW25071  11.545  10.657   9.344
74411SOL    HW125072  11.639  10.661   9.325
74411SOL    HW225073  11.521  10.746   9.368
74412SOL     OW25074   0.027   9.307  11.943
74412SOL    HW125075   0.036   9.392  11.985
74412SOL    HW225076   0.116   9.271  11.944
74413SOL     OW25077   3.643   6.935   8.550
74413SOL    HW125078   3.642   6.934   8.454
74413SOL    HW225079   3.700   6.862   8.575
74414SOL     OW25080   3.238  12.602  14.292
74414SOL    HW125081   3.171  12.536  14.308
74414SOL    HW225082   3.316  12.552  14.269
74415SOL     OW25083   9.990  12.555  12.594
74415SOL    HW125084  10.038  12.589  12.519
74415SOL    HW225085   9.904  12.532  12.559
74416SOL     OW25086   5.108  10.408   7.684
74416SOL    HW125087   5.111  10.313   7.679
74416SOL    HW225088   5.060  10.427   7.765
74417SOL     OW25089  12.018   0.811   9.495
74417SOL    HW125090  12.059   0.776   9.575
74417SOL    HW225091  12.033   0.906   9.501
74418SOL     OW25092   1.514   9.716   0.906
74418SOL    HW125093   1.490   9.806   0.930
74418SOL    HW225094   1.449   9.662   0.952
74419SOL     OW25095  13.352   3.869  14.225
74419SOL    HW125096  13.372   3.894  14.134
74419SOL    HW225097  13.267   3.825  14.219
74420SOL     OW25098   1.788  14.244  14.571
74420SOL    HW125099   1.819  14.164  14.528
74420SOL    HW225100   1.821  14.315  14.515
74421SOL     OW25101   6.245   8.839  13.634
74421SOL    HW125102   6.225   8.933  13.637
74421SOL    HW225103   6.168   8.799  13.594
74422SOL     OW25104  14.772   5.545   1.348
74422SOL    HW125105  14.832   5.483   1.390
74422SOL    HW225106  14.783   5.626   1.397
74423SOL     OW25107   9.459   8.558  11.083
74423SOL    HW125108   9.414   8.497  11.141
74423SOL    HW225109   9.396   8.576  11.014
74424SOL     OW25110   9.382   1.836  12.969
74424SOL    HW125111   9.471   1.803  12.980
74424SOL    HW225112   9.360   1.817  12.878
74425SOL     OW25113  14.531   2.536   6.596
74425SOL    HW125114  14.556   2.443   6.590
74425SOL    HW225115  14.604   2.577   6.643
74426SOL     OW25116   3.445  10.100   5.748
74426SOL    HW125117   3.473  10.028   5.692
74426SOL    HW225118   3.350  10.095   5.749
74427SOL     OW25119   7.809   9.818   9.931
74427SOL    HW125120   7.745   9.752   9.958
74427SOL    HW225121   7.840   9.788   9.845
74428SOL     OW25122   0.409   1.303   8.877
74428SOL    HW125123   0.457   1.223   8.898
74428SOL    HW225124   0.329   1.298   8.928
74429SOL     OW25125  10.168   1.157   9.883
74429SOL    HW125126  10.170   1.062   9.897
74429SOL    HW225127  10.217   1.194   9.957
74430SOL     OW25128   3.617  13.687   0.999
74430SOL    HW125129   3.525  13.714   1.004
74430SOL    HW225130   3.666  13.766   1.023
74431SOL     OW25131   4.467  10.212   3.351
74431SOL    HW125132   4.410  10.288   3.359
74431SOL    HW225133   4.451  10.161   3.431
74432SOL     OW25134   6.505  13.455   8.057
74432SOL    HW125135   6.420  13.428   8.021
74432SOL    HW225136   6.556  13.480   7.980
74433SOL     OW25137   0.508   6.084   5.121
74433SOL    HW125138   0.582   6.097   5.062
74433SOL    HW225139   0.469   6.171   5.130
74434SOL     OW25140   3.530   1.847  13.141
74434SOL    HW125141   3.619   1.813  13.140
74434SOL    HW225142   3.485   1.802  13.070
74435SOL     OW25143   0.689  10.125  12.998
74435SOL    HW125144   0.701  10.038  13.036
74435SOL    HW225145   0.754  10.179  13.042
74436SOL     OW25146   0.288  12.593   3.977
74436SOL    HW125147   0.345  12.669   3.984
74436SOL    HW225148   0.278  12.579   3.883
74437SOL     OW25149   1.885   4.196  12.665
74437SOL    HW125150   1.973   4.210  12.699
74437SOL    HW225151   1.841   4.280  12.677
74438SOL     OW25152  10.537   3.215  12.796
74438SOL    HW125153  10.580   3.248  12.874
74438SOL    HW225154  10.560   3.122  12.792
74439SOL     OW25155   8.537   5.131   6.813
74439SOL    HW125156   8.487   5.051   6.831
74439SOL    HW225157   8.575   5.155   6.897
74440SOL     OW25158   0.218   8.571   5.057
74440SOL    HW125159   0.143   8.596   5.003
74440SOL    HW225160   0.186   8.499   5.111
74441SOL     OW25161   5.609  12.029   1.674
74441SOL    HW125162   5.647  12.000   1.592
74441SOL    HW225163   5.524  12.067   1.650
74442SOL     OW25164   1.306   6.827   2.182
74442SOL    HW125165   1.321   6.864   2.269
74442SOL    HW225166   1.215   6.799   2.183
74443SOL     OW25167   9.111   7.379  13.234
74443SOL    HW125168   9.137   7.469  13.253
74443SOL    HW225169   9.044   7.360  13.300
74444SOL     OW25170   0.599   7.514  11.187
74444SOL    HW125171   0.588   7.604  11.218
74444SOL    HW225172   0.510   7.484  11.169
74445SOL     OW25173   4.637   0.395  11.427
74445SOL    HW125174   4.552   0.360  11.400
74445SOL    HW225175   4.623   0.489  11.435
74446SOL     OW25176   0.093  11.304   0.852
74446SOL    HW125177   0.111  11.337   0.764
74446SOL    HW225178   0.174  11.262   0.880
74447SOL     OW25179   8.974  13.375   8.215
74447SOL    HW125180   8.919  13.417   8.282
74447SOL    HW225181   9.061  13.372   8.255
74448SOL     OW25182   0.169   2.152  11.221
74448SOL    HW125183   0.262   2.172  11.206
74448SOL    HW225184   0.168   2.063  11.255
74449SOL     OW25185   0.325  10.872   5.387
74449SOL    HW125186   0.415  10.904   5.390
74449SOL    HW225187   0.272  10.946   5.417
74450SOL     OW25188  11.276  12.350   9.905
74450SOL    HW125189  11.338  12.370   9.834
74450SOL    HW225190  11.193  12.336   9.860
74451SOL     OW25191   3.957   2.752   5.580
74451SOL    HW125192   3.871   2.765   5.620
74451SOL    HW225193   4.013   2.722   5.652
74452SOL     OW25194  12.911  14.600  14.666
74452SOL    HW125195  12.859  14.666  14.620
74452SOL    HW225196  12.890  14.613  14.758
74453SOL     OW25197   1.718   3.268   1.511
74453SOL    HW125198   1.671   3.349   1.493
74453SOL    HW225199   1.787   3.264   1.445
74454SOL     OW25200  10.634   2.942  11.968
74454SOL    HW125201  10.654   2.903  11.883
74454SOL    HW225202  10.697   3.013  11.976
74455SOL     OW25203   9.413   8.389   8.094
74455SOL    HW125204   9.439   8.317   8.150
74455SOL    HW225205   9.465   8.378   8.014
74456SOL     OW25206   1.736   2.942   7.411
74456SOL    HW125207   1.816   2.968   7.365
74456SOL    HW225208   1.745   2.981   7.498
74457SOL     OW25209  12.751  10.879   6.794
74457SOL    HW125210  12.796  10.798   6.768
74457SOL    HW225211  12.674  10.848   6.841
74458SOL     OW25212  10.572   4.175   5.241
74458SOL    HW125213  10.653   4.135   5.210
74458SOL    HW225214  10.562   4.144   5.331
74459SOL     OW25215   2.351   0.618  14.525
74459SOL    HW125216   2.383   0.532  14.551
74459SOL    HW225217   2.262   0.623  14.561
74460SOL     OW25218  10.622   1.791  14.591
74460SOL    HW125219  10.709   1.753  14.580
74460SOL    HW225220  10.562   1.722  14.564
74461SOL     OW25221  10.230  14.486   2.092
74461SOL    HW125222  10.170  14.560   2.090
74461SOL    HW225223  10.291  14.506   2.163
74462SOL     OW25224   2.664   3.996  13.386
74462SOL    HW125225   2.623   3.919  13.425
74462SOL    HW225226   2.699   3.964  13.302
74463SOL     OW25227   3.702   2.216  14.674
74463SOL    HW125228   3.687   2.272  14.598
74463SOL    HW225229   3.707   2.277  14.748
74464SOL     OW25230   6.171   4.807   8.980
74464SOL    HW125231   6.174   4.839   9.070
74464SOL    HW225232   6.225   4.869   8.931
74465SOL     OW25233   7.299   6.949  13.282
74465SOL    HW125234   7.255   7.032  13.262
74465SOL    HW225235   7.391   6.972  13.291
74466SOL     OW25236   4.121  11.978   0.796
74466SOL    HW125237   4.096  11.938   0.879
74466SOL    HW225238   4.145  11.903   0.741
74467SOL     OW25239   8.920   8.332   6.111
74467SOL    HW125240   9.001   8.383   6.110
74467SOL    HW225241   8.893   8.328   6.019
74468SOL     OW25242   0.483   0.753   8.099
74468SOL    HW125243   0.421   0.819   8.068
74468SOL    HW225244   0.429   0.691   8.148
74469SOL     OW25245  14.730   5.578   1.834
74469SOL    HW125246  14.643   5.557   1.801
74469SOL    HW225247  14.756   5.657   1.787
74470SOL     OW25248   8.378   0.726   6.432
74470SOL    HW125249   8.354   0.634   6.423
74470SOL    HW225250   8.415   0.750   6.347
74471SOL     OW25251  13.660   6.449  10.099
74471SOL    HW125252  13.658   6.390  10.174
74471SOL    HW225253  13.606   6.523  10.124
74472SOL     OW25254   7.600  13.476   9.195
74472SOL    HW125255   7.628  13.394   9.155
74472SOL    HW225256   7.537  13.450   9.262
74473SOL     OW25257   7.118   8.620  11.290
74473SOL    HW125258   7.070   8.651  11.214
74473SOL    HW225259   7.059   8.557  11.332
74474SOL     OW25260  10.316   9.959  10.861
74474SOL    HW125261  10.258   9.898  10.815
74474SOL    HW225262  10.257  10.017  10.909
74475SOL     OW25263   1.776  12.911  10.857
74475SOL    HW125264   1.753  12.996  10.893
74475SOL    HW225265   1.802  12.929  10.766
74476SOL     OW25266   1.633  14.178   7.979
74476SOL    HW125267   1.632  14.221   8.065
74476SOL    HW225268   1.551  14.128   7.976
74477SOL     OW25269  13.138  11.615   0.795
74477SOL    HW125270  13.075  11.654   0.855
74477SOL    HW225271  13.094  11.538   0.760
74478SOL     OW25272   1.846   6.429  14.300
74478SOL    HW125273   1.831   6.336  14.281
74478SOL    HW225274   1.925   6.451  14.251
74479SOL     OW25275  14.439   0.210   5.971
74479SOL    HW125276  14.501   0.237   5.904
74479SOL    HW225277  14.469   0.122   5.997
74480SOL     OW25278   0.444   6.210   2.357
74480SOL    HW125279   0.491   6.286   2.391
74480SOL    HW225280   0.352   6.235   2.361
74481SOL     OW25281  14.503   6.591  11.212
74481SOL    HW125282  14.553   6.672  11.221
74481SOL    HW225283  14.550   6.540  11.146
74482SOL     OW25284  10.632   6.720   8.841
74482SOL    HW125285  10.576   6.707   8.918
74482SOL    HW225286  10.691   6.791   8.867
74483SOL     OW25287  10.695   7.652  11.158
74483SOL    HW125288  10.615   7.669  11.109
74483SOL    HW225289  10.759   7.714  11.122
74484SOL     OW25290   4.536  10.541  10.658
74484SOL    HW125291   4.536  10.527  10.563
74484SOL    HW225292   4.460  10.492  10.690
74485SOL     OW25293   1.757  10.217   6.579
74485SOL    HW125294   1.676  10.259   6.551
74485SOL    HW225295   1.815  10.225   6.503
74486SOL     OW25296   7.159   1.703   1.713
74486SOL    HW125297   7.253   1.692   1.697
74486SOL    HW225298   7.153   1.730   1.804
74487SOL     OW25299   7.453   6.308   0.194
74487SOL    HW125300   7.400   6.348   0.263
74487SOL    HW225301   7.529   6.365   0.187
74488SOL     OW25302   9.928  12.833  13.825
74488SOL    HW125303   9.926  12.750  13.777
74488SOL    HW225304   9.978  12.892  13.768
74489SOL     OW25305  14.576   4.632   2.106
74489SOL    HW125306  14.633   4.572   2.153
74489SOL    HW225307  14.496   4.635   2.158
74490SOL     OW25308  14.487   4.934  13.685
74490SOL    HW125309  14.436   4.862  13.722
74490SOL    HW225310  14.472   4.928  13.591
74491SOL     OW25311  10.383   8.591   1.102
74491SOL    HW125312  10.462   8.572   1.051
74491SOL    HW225313  10.337   8.658   1.051
74492SOL     OW25314  10.192   1.713   5.566
74492SOL    HW125315  10.217   1.702   5.474
74492SOL    HW225316  10.270   1.751   5.607
74493SOL     OW25317  11.711   8.368   5.568
74493SOL    HW125318  11.728   8.458   5.596
74493SOL    HW225319  11.632   8.374   5.514
74494SOL     OW25320   8.939   6.895   2.231
74494SOL    HW125321   8.870   6.884   2.166
74494SOL    HW225322   8.916   6.977   2.275
74495SOL     OW25323   7.815  10.632  13.469
74495SOL    HW125324   7.889  10.597  13.419
74495SOL    HW225325   7.759  10.556  13.485
74496SOL     OW25326   3.709  11.589   3.834
74496SOL    HW125327   3.788  11.569   3.883
74496SOL    HW225328   3.640  11.596   3.900
74497SOL     OW25329   7.939   8.530   0.576
74497SOL    HW125330   8.024   8.572   0.561
74497SOL    HW225331   7.890   8.546   0.496
74498SOL     OW25332   8.447  12.384   1.168
74498SOL    HW125333   8.379  12.330   1.208
74498SOL    HW225334   8.417  12.398   1.078
74499SOL     OW25335   6.647  12.591  14.117
74499SOL    HW125336   6.694  12.527  14.063
74499SOL    HW225337   6.577  12.540  14.158
74500SOL     OW25338   2.475   0.438  11.977
74500SOL    HW125339   2.461   0.509  11.915
74500SOL    HW225340   2.389   0.422  12.015
74501SOL     OW25341  13.690  12.586  14.294
74501SOL    HW125342  13.742  12.552  14.367
74501SOL    HW225343  13.638  12.656  14.333
74502SOL     OW25344   6.770   4.608   5.627
74502SOL    HW125345   6.788   4.558   5.707
74502SOL    HW225346   6.684   4.647   5.643
74503SOL     OW25347   2.789   1.004   6.617
74503SOL    HW125348   2.861   0.949   6.647
74503SOL    HW225349   2.793   1.001   6.521
74504SOL     OW25350   7.466   5.470  12.214
74504SOL    HW125351   7.425   5.453  12.129
74504SOL    HW225352   7.478   5.565  12.216
74505SOL     OW25353   7.646   5.098   3.989
74505SOL    HW125354   7.596   5.069   4.065
74505SOL    HW225355   7.687   5.180   4.016
74506SOL     OW25356   3.312   0.892   7.186
74506SOL    HW125357   3.275   0.969   7.229
74506SOL    HW225358   3.251   0.871   7.116
74507SOL     OW25359   3.441   5.689   8.335
74507SOL    HW125360   3.536   5.684   8.347
74507SOL    HW225361   3.409   5.731   8.415
74508SOL     OW25362   8.103   6.643  11.017
74508SOL    HW125363   8.163   6.578  11.055
74508SOL    HW225364   8.015   6.607  11.034
74509SOL     OW25365  10.525   2.774   1.795
74509SOL    HW125366  10.456   2.767   1.729
74509SOL    HW225367  10.597   2.722   1.760
74510SOL     OW25368   8.559  13.233  12.249
74510SOL    HW125369   8.634  13.282  12.216
74510SOL    HW225370   8.483  13.273  12.207
74511SOL     OW25371   3.191   9.948   7.469
74511SOL    HW125372   3.248   9.996   7.529
74511SOL    HW225373   3.104   9.954   7.509
74512SOL     OW25374  12.903   8.818   4.779
74512SOL    HW125375  12.931   8.781   4.696
74512SOL    HW225376  12.816   8.782   4.794
74513SOL     OW25377  10.338   1.983   6.920
74513SOL    HW125378  10.352   2.036   6.841
74513SOL    HW225379  10.341   1.893   6.889
74514SOL     OW25380  14.483   8.941   2.670
74514SOL    HW125381  14.511   9.016   2.618
74514SOL    HW225382  14.466   8.977   2.757
74515SOL     OW25383   3.808   7.166  10.858
74515SOL    HW125384   3.875   7.119  10.908
74515SOL    HW225385   3.832   7.150  10.766
74516SOL     OW25386  13.691   0.056   6.991
74516SOL    HW125387  13.718  14.854   7.040
74516SOL    HW225388  13.621   0.025   6.933
74517SOL     OW25389   5.547   9.343  13.514
74517SOL    HW125390   5.525   9.251  13.523
74517SOL    HW225391   5.464   9.387  13.497
74518SOL     OW25392  10.703   7.429   5.870
74518SOL    HW125393  10.624   7.392   5.910
74518SOL    HW225394  10.676   7.451   5.781
74519SOL     OW25395  13.815   6.674   1.942
74519SOL    HW125396  13.811   6.745   1.877
74519SOL    HW225397  13.748   6.612   1.913
74520SOL     OW25398  13.902   6.038   6.941
74520SOL    HW125399  13.981   6.043   6.995
74520SOL    HW225400  13.880   5.945   6.941
74521SOL     OW25401  10.105   6.094   3.373
74521SOL    HW125402  10.141   6.123   3.289
74521SOL    HW225403  10.107   6.172   3.428
74522SOL     OW25404   5.216   0.875   1.133
74522SOL    HW125405   5.189   0.927   1.057
74522SOL    HW225406   5.295   0.918   1.165
74523SOL     OW25407   0.598   0.735   3.395
74523SOL    HW125408   0.549   0.817   3.401
74523SOL    HW225409   0.666   0.743   3.462
74524SOL     OW25410   9.965   3.669   4.650
74524SOL    HW125411   9.998   3.640   4.735
74524SOL    HW225412   9.938   3.760   4.664
74525SOL     OW25413   9.676  11.689   4.489
74525SOL    HW125414   9.653  11.698   4.581
74525SOL    HW225415   9.707  11.775   4.463
74526SOL     OW25416  10.523   8.311   8.434
74526SOL    HW125417  10.474   8.249   8.487
74526SOL    HW225418  10.498   8.397   8.468
74527SOL     OW25419   6.213  12.461  14.656
74527SOL    HW125420   6.280  12.519  14.618
74527SOL    HW225421   6.217  12.382  14.603
74528SOL     OW25422  14.490   8.222  12.645
74528SOL    HW125423  14.554   8.211  12.575
74528SOL    HW225424  14.494   8.315  12.668
74529SOL     OW25425  13.829  12.475  11.810
74529SOL    HW125426  13.879  12.556  11.825
74529SOL    HW225427  13.765  12.474  11.881
74530SOL     OW25428   0.862   2.110  13.437
74530SOL    HW125429   0.792   2.169  13.407
74530SOL    HW225430   0.941   2.145  13.397
74531SOL     OW25431   1.586   4.366   8.235
74531SOL    HW125432   1.553   4.277   8.246
74531SOL    HW225433   1.680   4.359   8.253
74532SOL     OW25434   0.772  11.897   0.941
74532SOL    HW125435   0.830  11.973   0.933
74532SOL    HW225436   0.698  11.928   0.993
74533SOL     OW25437   6.110  14.408  13.724
74533SOL    HW125438   6.175  14.339  13.735
74533SOL    HW225439   6.125  14.467  13.798
74534SOL     OW25440   4.583   5.774  14.272
74534SOL    HW125441   4.575   5.798  14.364
74534SOL    HW225442   4.614   5.683  14.273
74535SOL     OW25443   8.747   9.618   3.162
74535SOL    HW125444   8.717   9.578   3.244
74535SOL    HW225445   8.841   9.632   3.174
74536SOL     OW25446   0.934   3.071   4.083
74536SOL    HW125447   0.999   3.016   4.125
74536SOL    HW225448   0.930   3.040   3.992
74537SOL     OW25449   4.619  10.025   4.588
74537SOL    HW125450   4.696   9.971   4.606
74537SOL    HW225451   4.582   9.987   4.508
74538SOL     OW25452   0.956  13.861   8.700
74538SOL    HW125453   0.961  13.770   8.729
74538SOL    HW225454   0.865  13.886   8.715
74539SOL     OW25455   1.311  13.067  10.839
74539SOL    HW125456   1.255  12.989  10.841
74539SOL    HW225457   1.311  13.093  10.746
74540SOL     OW25458   2.337   4.388  12.140
74540SOL    HW125459   2.424   4.399  12.102
74540SOL    HW225460   2.349   4.403  12.234
74541SOL     OW25461   1.089   1.791  12.600
74541SOL    HW125462   1.004   1.812  12.640
74541SOL    HW225463   1.152   1.842  12.650
74542SOL     OW25464   5.099   0.660   2.895
74542SOL    HW125465   5.121   0.577   2.937
74542SOL    HW225466   5.038   0.637   2.825
74543SOL     OW25467  11.763  11.664  11.442
74543SOL    HW125468  11.812  11.593  11.401
74543SOL    HW225469  11.683  11.671  11.389
74544SOL     OW25470  11.811  13.809   5.857
74544SOL    HW125471  11.861  13.850   5.927
74544SOL    HW225472  11.733  13.775   5.901
74545SOL     OW25473   4.854   2.163   3.590
74545SOL    HW125474   4.900   2.246   3.605
74545SOL    HW225475   4.769   2.175   3.634
74546SOL     OW25476   6.052  10.540   5.085
74546SOL    HW125477   5.995  10.617   5.086
74546SOL    HW225478   6.025  10.491   5.008
74547SOL     OW25479  11.132   5.210   5.717
74547SOL    HW125480  11.045   5.242   5.696
74547SOL    HW225481  11.122   5.115   5.721
74548SOL     OW25482  13.211  12.624   3.004
74548SOL    HW125483  13.124  12.586   2.995
74548SOL    HW225484  13.251  12.614   2.918
74549SOL     OW25485   3.102   5.449   1.047
74549SOL    HW125486   3.154   5.512   1.096
74549SOL    HW225487   3.018   5.494   1.033
74550SOL     OW25488   0.975   0.893   6.804
74550SOL    HW125489   1.038   0.827   6.777
74550SOL    HW225490   0.946   0.934   6.722
74551SOL     OW25491   9.684   9.290  12.423
74551SOL    HW125492   9.668   9.259  12.512
74551SOL    HW225493   9.650   9.379  12.421
74552SOL     OW25494   5.270  14.358  11.356
74552SOL    HW125495   5.360  14.349  11.390
74552SOL    HW225496   5.243  14.446  11.383
74553SOL     OW25497   1.127   2.336   1.930
74553SOL    HW125498   1.085   2.419   1.953
74553SOL    HW225499   1.191   2.321   2.000
74554SOL     OW25500   4.023   9.498  14.393
74554SOL    HW125501   3.945   9.464  14.437
74554SOL    HW225502   3.993   9.517  14.304
74555SOL     OW25503   2.564   0.586   2.780
74555SOL    HW125504   2.638   0.628   2.823
74555SOL    HW225505   2.496   0.654   2.778
74556SOL     OW25506   0.014   0.135   0.615
74556SOL    HW125507  14.838   0.150   0.693
74556SOL    HW225508  14.860   0.201   0.553
74557SOL     OW25509   2.876   2.859   3.529
74557SOL    HW125510   2.968   2.847   3.505
74557SOL    HW225511   2.828   2.798   3.473
74558SOL     OW25512   7.608   0.366   5.493
74558SOL    HW125513   7.600   0.274   5.519
74558SOL    HW225514   7.546   0.375   5.419
74559SOL     OW25515   3.401   4.419   0.563
74559SOL    HW125516   3.379   4.497   0.512
74559SOL    HW225517   3.478   4.382   0.519
74560SOL     OW25518   9.048   9.788  13.967
74560SOL    HW125519   9.025   9.847  13.895
74560SOL    HW225520   9.014   9.832  14.045
74561SOL     OW25521   4.709   4.303   0.267
74561SOL    HW125522   4.742   4.219   0.235
74561SOL    HW225523   4.669   4.344   0.190
74562SOL     OW25524  12.622  14.805  12.123
74562SOL    HW125525  12.655  14.796  12.213
74562SOL    HW225526  12.666  14.735  12.075
74563SOL     OW25527  12.906   2.791  13.309
74563SOL    HW125528  12.988   2.787  13.261
74563SOL    HW225529  12.872   2.879  13.292
74564SOL     OW25530  10.912   7.419   0.039
74564SOL    HW125531  10.928   7.334  14.876
74564SOL    HW225532  10.961   7.418   0.120
74565SOL     OW25533   9.837  13.737  13.868
74565SOL    HW125534   9.884  13.809  13.827
74565SOL    HW225535   9.881  13.658  13.835
74566SOL     OW25536   6.929   8.382  13.755
74566SOL    HW125537   6.961   8.361  13.667
74566SOL    HW225538   6.997   8.438  13.793
74567SOL     OW25539   5.751   2.882   4.088
74567SOL    HW125540   5.706   2.829   4.022
74567SOL    HW225541   5.767   2.966   4.044
74568SOL     OW25542  14.189   2.107   0.116
74568SOL    HW125543  14.229   2.169   0.177
74568SOL    HW225544  14.095   2.124   0.123
74569SOL     OW25545   2.170   7.426   4.589
74569SOL    HW125546   2.097   7.390   4.540
74569SOL    HW225547   2.130   7.484   4.654
74570SOL     OW25548   2.614  10.840   5.281
74570SOL    HW125549   2.621  10.882   5.195
74570SOL    HW225550   2.558  10.899   5.332
74571SOL     OW25551  10.884   9.053  12.078
74571SOL    HW125552  10.908   8.968  12.040
74571SOL    HW225553  10.794   9.066  12.050
74572SOL     OW25554  10.683  14.352   2.325
74572SOL    HW125555  10.652  14.440   2.307
74572SOL    HW225556  10.670  14.341   2.420
74573SOL     OW25557   0.644  12.309   6.604
74573SOL    HW125558   0.628  12.221   6.638
74573SOL    HW225559   0.567  12.327   6.550
74574SOL     OW25560   7.767   8.932  13.926
74574SOL    HW125561   7.718   8.859  13.963
74574SOL    HW225562   7.849   8.934  13.975
74575SOL     OW25563  13.105   5.098   9.080
74575SOL    HW125564  13.133   5.125   8.993
74575SOL    HW225565  13.125   5.173   9.136
74576SOL     OW25566  12.720  10.281   2.378
74576SOL    HW125567  12.641  10.328   2.352
74576SOL    HW225568  12.690  10.220   2.445
74577SOL     OW25569   6.129   3.247   7.496
74577SOL    HW125570   6.121   3.208   7.409
74577SOL    HW225571   6.151   3.173   7.553
74578SOL     OW25572   9.175  10.419   8.551
74578SOL    HW125573   9.173  10.492   8.612
74578SOL    HW225574   9.142  10.344   8.601
74579SOL     OW25575   7.241   8.435  13.870
74579SOL    HW125576   7.200   8.400  13.949
74579SOL    HW225577   7.333   8.408  13.877
74580SOL     OW25578  13.485   6.824   0.232
74580SOL    HW125579  13.501   6.731   0.220
74580SOL    HW225580  13.391   6.834   0.222
74581SOL     OW25581  11.169  14.516   9.970
74581SOL    HW125582  11.121  14.447  10.017
74581SOL    HW225583  11.245  14.471   9.934
74582SOL     OW25584  10.226   0.125   0.674
74582SOL    HW125585  10.153   0.098   0.620
74582SOL    HW225586  10.304   0.108   0.621
74583SOL     OW25587   8.379  13.356   9.177
74583SOL    HW125588   8.435  13.279   9.185
74583SOL    HW225589   8.428  13.426   9.220
74584SOL     OW25590   6.910   6.106   0.772
74584SOL    HW125591   6.876   6.188   0.736
74584SOL    HW225592   7.001   6.103   0.741
74585SOL     OW25593   0.832   6.451   2.795
74585SOL    HW125594   0.905   6.403   2.834
74585SOL    HW225595   0.758   6.435   2.854
74586SOL     OW25596  11.688   0.824   2.185
74586SOL    HW125597  11.680   0.814   2.280
74586SOL    HW225598  11.736   0.905   2.173
74587SOL     OW25599  12.536   5.873   5.122
74587SOL    HW125600  12.460   5.916   5.080
74587SOL    HW225601  12.602   5.942   5.126
74588SOL     OW25602  10.944  13.333   6.114
74588SOL    HW125603  10.982  13.306   6.198
74588SOL    HW225604  10.850  13.322   6.126
74589SOL     OW25605   4.213   6.509  10.996
74589SOL    HW125606   4.223   6.460  10.914
74589SOL    HW225607   4.119   6.508  11.013
74590SOL     OW25608   1.720   3.224  14.458
74590SOL    HW125609   1.663   3.206  14.533
74590SOL    HW225610   1.687   3.307  14.423
74591SOL     OW25611   9.717   7.874   2.991
74591SOL    HW125612   9.701   7.932   3.065
74591SOL    HW225613   9.809   7.889   2.968
74592SOL     OW25614   2.848  14.163   6.093
74592SOL    HW125615   2.868  14.108   6.168
74592SOL    HW225616   2.911  14.235   6.098
74593SOL     OW25617   2.708   7.162  13.381
74593SOL    HW125618   2.802   7.181  13.376
74593SOL    HW225619   2.703   7.067  13.367
74594SOL     OW25620  14.441   2.842   9.178
74594SOL    HW125621  14.485   2.926   9.195
74594SOL    HW225622  14.422   2.807   9.265
74595SOL     OW25623  11.113   1.314  10.272
74595SOL    HW125624  11.023   1.315  10.240
74595SOL    HW225625  11.164   1.348  10.199
74596SOL     OW25626  11.872   7.833   4.660
74596SOL    HW125627  11.893   7.855   4.570
74596SOL    HW225628  11.956   7.837   4.706
74597SOL     OW25629   8.913  13.245  14.037
74597SOL    HW125630   8.843  13.306  14.013
74597SOL    HW225631   8.948  13.280  14.119
74598SOL     OW25632  12.326   3.500  12.729
74598SOL    HW125633  12.344   3.562  12.799
74598SOL    HW225634  12.239   3.466  12.749
74599SOL     OW25635   9.642  10.993  14.386
74599SOL    HW125636   9.631  11.027  14.475
74599SOL    HW225637   9.637  10.898  14.397
74600SOL     OW25638  13.619   6.337   7.150
74600SOL    HW125639  13.631   6.242   7.137
74600SOL    HW225640  13.701   6.366   7.190
74601SOL     OW25641   6.242   4.123  13.816
74601SOL    HW125642   6.311   4.057  13.823
74601SOL    HW225643   6.216   4.121  13.724
74602SOL     OW25644   6.721  11.020   9.732
74602SOL    HW125645   6.650  11.072   9.696
74602SOL    HW225646   6.798  11.047   9.682
74603SOL     OW25647   3.427   2.708   9.791
74603SOL    HW125648   3.391   2.778   9.736
74603SOL    HW225649   3.510   2.744   9.823
74604SOL     OW25650   9.968  10.003  13.324
74604SOL    HW125651  10.063  10.001  13.336
74604SOL    HW225652   9.954   9.965  13.237
74605SOL     OW25653   6.050   3.550  14.315
74605SOL    HW125654   6.007   3.464  14.310
74605SOL    HW225655   6.024   3.595  14.234
74606SOL     OW25656   1.514   1.075   6.826
74606SOL    HW125657   1.602   1.112   6.822
74606SOL    HW225658   1.514   1.007   6.759
74607SOL     OW25659  12.068   5.595  11.256
74607SOL    HW125660  12.001   5.609  11.323
74607SOL    HW225661  12.035   5.521  11.205
74608SOL     OW25662   0.143  14.116  13.029
74608SOL    HW125663   0.065  14.062  13.037
74608SOL    HW225664   0.153  14.130  12.934
74609SOL     OW25665   7.405  10.197   9.930
74609SOL    HW125666   7.451  10.245   9.999
74609SOL    HW225667   7.467  10.196   9.856
74610SOL     OW25668  11.364   6.648   8.777
74610SOL    HW125669  11.350   6.685   8.690
74610SOL    HW225670  11.288   6.676   8.828
74611SOL     OW25671  10.425   7.852   6.493
74611SOL    HW125672  10.442   7.766   6.531
74611SOL    HW225673  10.427   7.913   6.567
74612SOL     OW25674  10.048   4.027  12.143
74612SOL    HW125675  10.048   3.992  12.232
74612SOL    HW225676  10.081   4.116  12.152
74613SOL     OW25677   6.562   7.821  12.811
74613SOL    HW125678   6.529   7.874  12.739
74613SOL    HW225679   6.485   7.799  12.863
74614SOL     OW25680   6.873   4.337  12.990
74614SOL    HW125681   6.952   4.361  13.040
74614SOL    HW225682   6.828   4.420  12.975
74615SOL     OW25683   0.337   9.209  11.915
74615SOL    HW125684   0.378   9.295  11.901
74615SOL    HW225685   0.407   9.156  11.953
74616SOL     OW25686   6.078   7.009  12.477
74616SOL    HW125687   6.060   7.101  12.463
74616SOL    HW225688   6.165   6.995  12.438
74617SOL     OW25689   5.547   8.279  12.341
74617SOL    HW125690   5.620   8.312  12.288
74617SOL    HW225691   5.470   8.295  12.287
74618SOL     OW25692   0.329   2.301   8.901
74618SOL    HW125693   0.325   2.205   8.896
74618SOL    HW225694   0.237   2.328   8.907
74619SOL     OW25695   0.392  10.805   2.220
74619SOL    HW125696   0.470  10.861   2.217
74619SOL    HW225697   0.386  10.769   2.131
74620SOL     OW25698   4.053   9.750   2.216
74620SOL    HW125699   4.021   9.754   2.126
74620SOL    HW225700   3.976   9.727   2.268
74621SOL     OW25701   9.050   5.653   8.550
74621SOL    HW125702   9.063   5.566   8.587
74621SOL    HW225703   8.999   5.638   8.470
74622SOL     OW25704   2.817   3.363   2.197
74622SOL    HW125705   2.738   3.361   2.251
74622SOL    HW225706   2.881   3.410   2.251
74623SOL     OW25707  10.473   3.289   0.421
74623SOL    HW125708  10.434   3.308   0.336
74623SOL    HW225709  10.456   3.367   0.474
74624SOL     OW25710   6.456  10.880  13.157
74624SOL    HW125711   6.468  10.975  13.166
74624SOL    HW225712   6.533  10.850  13.110
74625SOL     OW25713   3.913   3.176   2.406
74625SOL    HW125714   3.971   3.183   2.482
74625SOL    HW225715   3.826   3.161   2.443
74626SOL     OW25716  10.015   0.413   9.781
74626SOL    HW125717  10.016   0.437   9.873
74626SOL    HW225718  10.106   0.421   9.752
74627SOL     OW25719  13.807   5.482  14.279
74627SOL    HW125720  13.879   5.428  14.246
74627SOL    HW225721  13.801   5.460  14.372
74628SOL     OW25722   8.488   6.404   5.670
74628SOL    HW125723   8.525   6.411   5.759
74628SOL    HW225724   8.407   6.454   5.674
74629SOL     OW25725  14.291   0.541  13.761
74629SOL    HW125726  14.273   0.482  13.834
74629SOL    HW225727  14.223   0.609  13.767
74630SOL     OW25728   4.701  12.255   9.543
74630SOL    HW125729   4.637  12.271   9.474
74630SOL    HW225730   4.783  12.292   9.509
74631SOL     OW25731  14.009   9.413  12.200
74631SOL    HW125732  13.931   9.374  12.238
74631SOL    HW225733  14.036   9.481  12.262
74632SOL     OW25734   5.263   9.739  13.663
74632SOL    HW125735   5.197   9.692  13.712
74632SOL    HW225736   5.272   9.823  13.708
74633SOL     OW25737  13.753  11.627   2.087
74633SOL    HW125738  13.698  11.550   2.091
74633SOL    HW225739  13.724  11.681   2.160
74634SOL     OW25740  11.459  11.845  10.136
74634SOL    HW125741  11.509  11.826  10.057
74634SOL    HW225742  11.426  11.934  10.122
74635SOL     OW25743   1.718   9.447  10.319
74635SOL    HW125744   1.667   9.476  10.243
74635SOL    HW225745   1.696   9.509  10.388
74636SOL     OW25746   1.950  11.046   7.909
74636SOL    HW125747   1.869  11.047   7.859
74636SOL    HW225748   1.968  11.139   7.927
74637SOL     OW25749   7.423   3.067   6.052
74637SOL    HW125750   7.498   3.040   5.999
74637SOL    HW225751   7.454   3.145   6.098
74638SOL     OW25752   2.464   4.000   6.541
74638SOL    HW125753   2.466   3.921   6.595
74638SOL    HW225754   2.555   4.009   6.510
74639SOL     OW25755  13.097   4.449   3.437
74639SOL    HW125756  13.098   4.377   3.500
74639SOL    HW225757  13.165   4.425   3.374
74640SOL     OW25758   7.060   7.758  10.158
74640SOL    HW125759   7.109   7.677  10.146
74640SOL    HW225760   7.120   7.828  10.133
74641SOL     OW25761   1.434   1.708   0.295
74641SOL    HW125762   1.408   1.635   0.351
74641SOL    HW225763   1.359   1.723   0.237
74642SOL     OW25764  10.369  12.651  12.550
74642SOL    HW125765  10.448  12.704  12.563
74642SOL    HW225766  10.362  12.598  12.630
74643SOL     OW25767   7.947   9.312   2.708
74643SOL    HW125768   7.854   9.317   2.729
74643SOL    HW225769   7.992   9.333   2.790
74644SOL     OW25770  10.432   7.327   8.837
74644SOL    HW125771  10.470   7.402   8.792
74644SOL    HW225772  10.373   7.288   8.772
74645SOL     OW25773   3.651   5.619   1.192
74645SOL    HW125774   3.701   5.557   1.137
74645SOL    HW225775   3.600   5.670   1.129
74646SOL     OW25776  13.507   0.713  13.581
74646SOL    HW125777  13.572   0.728  13.650
74646SOL    HW225778  13.501   0.618  13.575
74647SOL     OW25779   2.884   6.328   0.409
74647SOL    HW125780   2.792   6.354   0.415
74647SOL    HW225781   2.881   6.232   0.401
74648SOL     OW25782   0.489   6.949   8.314
74648SOL    HW125783   0.547   6.884   8.354
74648SOL    HW225784   0.438   6.900   8.250
74649SOL     OW25785  12.866   6.202   2.585
74649SOL    HW125786  12.835   6.175   2.671
74649SOL    HW225787  12.925   6.275   2.603
74650SOL     OW25788   8.087   8.038  12.159
74650SOL    HW125789   8.028   8.096  12.208
74650SOL    HW225790   8.147   8.005  12.226
74651SOL     OW25791  12.319   4.498   4.935
74651SOL    HW125792  12.261   4.445   4.880
74651SOL    HW225793  12.286   4.486   5.024
74652SOL     OW25794   3.778   1.334   2.897
74652SOL    HW125795   3.802   1.319   2.988
74652SOL    HW225796   3.682   1.340   2.897
74653SOL     OW25797   6.765  13.368  11.656
74653SOL    HW125798   6.738  13.425  11.584
74653SOL    HW225799   6.847  13.407  11.687
74654SOL     OW25800  11.741   6.416   2.655
74654SOL    HW125801  11.647   6.420   2.675
74654SOL    HW225802  11.761   6.501   2.616
74655SOL     OW25803   2.463  12.594   8.951
74655SOL    HW125804   2.451  12.500   8.968
74655SOL    HW225805   2.510  12.597   8.868
74656SOL     OW25806   1.194   1.693   5.834
74656SOL    HW125807   1.285   1.716   5.849
74656SOL    HW225808   1.189   1.600   5.858
74657SOL     OW25809  11.632   9.899   7.868
74657SOL    HW125810  11.569   9.934   7.805
74657SOL    HW225811  11.697   9.968   7.877
74658SOL     OW25812  11.711   8.182   9.920
74658SOL    HW125813  11.751   8.116   9.977
74658SOL    HW225814  11.624   8.149   9.901
74659SOL     OW25815  11.710   3.752   4.124
74659SOL    HW125816  11.634   3.749   4.066
74659SOL    HW225817  11.675   3.735   4.211
74660SOL     OW25818   5.517   2.273   8.828
74660SOL    HW125819   5.588   2.322   8.870
74660SOL    HW225820   5.547   2.182   8.832
74661SOL     OW25821   4.131   7.076  10.075
74661SOL    HW125822   4.204   7.103  10.131
74661SOL    HW225823   4.053   7.106  10.121
74662SOL     OW25824   5.554   9.627  10.831
74662SOL    HW125825   5.542   9.566  10.904
74662SOL    HW225826   5.567   9.712  10.872
74663SOL     OW25827   5.729   5.091  13.069
74663SOL    HW125828   5.816   5.103  13.030
74663SOL    HW225829   5.668   5.097  12.996
74664SOL     OW25830   1.510  12.458   6.612
74664SOL    HW125831   1.510  12.525   6.680
74664SOL    HW225832   1.468  12.500   6.537
74665SOL     OW25833  14.454  13.162   7.663
74665SOL    HW125834  14.384  13.098   7.645
74665SOL    HW225835  14.532  13.122   7.625
74666SOL     OW25836  13.359   3.142  11.599
74666SOL    HW125837  13.385   3.142  11.507
74666SOL    HW225838  13.289   3.207  11.604
74667SOL     OW25839  13.864   8.863   1.866
74667SOL    HW125840  13.779   8.834   1.832
74667SOL    HW225841  13.850   8.954   1.892
74668SOL     OW25842  10.899   2.951   8.710
74668SOL    HW125843  10.883   2.918   8.798
74668SOL    HW225844  10.869   3.042   8.713
74669SOL     OW25845   8.966   2.391  13.444
74669SOL    HW125846   8.984   2.337  13.367
74669SOL    HW225847   8.879   2.428  13.428
74670SOL     OW25848   0.724   7.855   0.803
74670SOL    HW125849   0.770   7.871   0.721
74670SOL    HW225850   0.649   7.801   0.779
74671SOL     OW25851   8.677   4.407   2.942
74671SOL    HW125852   8.605   4.469   2.929
74671SOL    HW225853   8.639   4.336   2.994
74672SOL     OW25854   8.383  11.511   3.027
74672SOL    HW125855   8.424  11.584   2.980
74672SOL    HW225856   8.436  11.435   3.005
74673SOL     OW25857   1.831  14.313   6.165
74673SOL    HW125858   1.862  14.371   6.096
74673SOL    HW225859   1.906  14.257   6.184
74674SOL     OW25860  12.157  10.760   1.005
74674SOL    HW125861  12.195  10.822   0.942
74674SOL    HW225862  12.208  10.680   0.992
74675SOL     OW25863   6.299   2.682   3.205
74675SOL    HW125864   6.379   2.630   3.216
74675SOL    HW225865   6.323   2.770   3.236
74676SOL     OW25866   8.621   0.695   3.730
74676SOL    HW125867   8.623   0.774   3.783
74676SOL    HW225868   8.675   0.715   3.654
74677SOL     OW25869   9.710   2.669   1.989
74677SOL    HW125870   9.766   2.593   1.973
74677SOL    HW225871   9.624   2.642   1.958
74678SOL     OW25872  12.826   7.824  11.732
74678SOL    HW125873  12.869   7.738  11.728
74678SOL    HW225874  12.847   7.857  11.820
74679SOL     OW25875   7.827   3.229  12.099
74679SOL    HW125876   7.789   3.269  12.177
74679SOL    HW225877   7.760   3.239  12.032
74680SOL     OW25878   3.002   9.919   7.232
74680SOL    HW125879   2.989   9.825   7.220
74680SOL    HW225880   3.080   9.926   7.287
74681SOL     OW25881   9.683   9.353   7.684
74681SOL    HW125882   9.710   9.269   7.721
74681SOL    HW225883   9.635   9.397   7.754
74682SOL     OW25884   7.983   4.624  14.089
74682SOL    HW125885   7.999   4.639  14.182
74682SOL    HW225886   8.007   4.707  14.047
74683SOL     OW25887   1.755   4.926   6.207
74683SOL    HW125888   1.692   4.996   6.221
74683SOL    HW225889   1.814   4.931   6.281
74684SOL     OW25890  12.811  10.739  14.028
74684SOL    HW125891  12.875  10.693  13.974
74684SOL    HW225892  12.808  10.689  14.109
74685SOL     OW25893  12.257   2.306  10.917
74685SOL    HW125894  12.176   2.333  10.959
74685SOL    HW225895  12.289   2.233  10.971
74686SOL     OW25896   8.831   2.941   9.605
74686SOL    HW125897   8.837   2.962   9.698
74686SOL    HW225898   8.780   3.013   9.567
74687SOL     OW25899  10.940   0.211  12.218
74687SOL    HW125900  11.024   0.183  12.254
74687SOL    HW225901  10.926   0.298  12.255
74688SOL     OW25902  10.847  14.713  12.623
74688SOL    HW125903  10.761  14.675  12.604
74688SOL    HW225904  10.834  14.808  12.616
74689SOL     OW25905  14.042  14.246   5.040
74689SOL    HW125906  14.040  14.192   5.119
74689SOL    HW225907  13.974  14.312   5.054
74690SOL     OW25908   7.435   8.941  13.895
74690SOL    HW125909   7.399   8.861  13.857
74690SOL    HW225910   7.429   8.928  13.990
74691SOL     OW25911   6.384   9.404   1.939
74691SOL    HW125912   6.453   9.414   1.873
74691SOL    HW225913   6.352   9.315   1.927
74692SOL     OW25914   0.228  12.909   1.008
74692SOL    HW125915   0.218  12.995   0.967
74692SOL    HW225916   0.315  12.880   0.982
74693SOL     OW25917   6.168   2.893  11.230
74693SOL    HW125918   6.184   2.890  11.135
74693SOL    HW225919   6.078   2.861  11.240
74694SOL     OW25920  10.331  14.245   6.863
74694SOL    HW125921  10.252  14.296   6.883
74694SOL    HW225922  10.359  14.210   6.947
74695SOL     OW25923   6.364  10.923  10.352
74695SOL    HW125924   6.438  10.943  10.410
74695SOL    HW225925   6.311  10.861  10.403
74696SOL     OW25926   0.275   1.466   7.314
74696SOL    HW125927   0.369   1.462   7.330
74696SOL    HW225928   0.237   1.475   7.401
74697SOL     OW25929   4.966   2.452   3.993
74697SOL    HW125930   4.937   2.464   4.083
74697SOL    HW225931   4.966   2.540   3.956
74698SOL     OW25932   9.417   8.521   4.522
74698SOL    HW125933   9.472   8.535   4.445
74698SOL    HW225934   9.438   8.432   4.550
74699SOL     OW25935   1.541   9.198   2.106
74699SOL    HW125936   1.609   9.214   2.040
74699SOL    HW225937   1.569   9.249   2.182
74700SOL     OW25938  11.201   4.424  14.274
74700SOL    HW125939  11.206   4.484  14.200
74700SOL    HW225940  11.186   4.338  14.234
74701SOL     OW25941   2.910   0.969   1.720
74701SOL    HW125942   2.921   0.951   1.627
74701SOL    HW225943   2.998   0.994   1.750
74702SOL     OW25944   9.145   4.056   7.889
74702SOL    HW125945   9.152   4.082   7.797
74702SOL    HW225946   9.159   3.962   7.889
74703SOL     OW25947   1.340   4.665   2.225
74703SOL    HW125948   1.330   4.575   2.254
74703SOL    HW225949   1.381   4.658   2.139
74704SOL     OW25950   4.410  11.440  12.483
74704SOL    HW125951   4.314  11.442  12.487
74704SOL    HW225952   4.430  11.423  12.391
74705SOL     OW25953  10.743   5.249   5.117
74705SOL    HW125954  10.696   5.168   5.134
74705SOL    HW225955  10.801   5.259   5.193
74706SOL     OW25956   7.229   8.289   1.386
74706SOL    HW125957   7.283   8.229   1.437
74706SOL    HW225958   7.249   8.269   1.295
74707SOL     OW25959  14.592   2.069  10.650
74707SOL    HW125960  14.596   2.128  10.725
74707SOL    HW225961  14.591   2.126  10.573
74708SOL     OW25962   9.858   3.934  13.200
74708SOL    HW125963   9.922   3.972  13.140
74708SOL    HW225964   9.789   3.901  13.143
74709SOL     OW25965  10.783   6.639   8.424
74709SOL    HW125966  10.699   6.644   8.471
74709SOL    HW225967  10.779   6.708   8.359
74710SOL     OW25968   3.006   9.672  10.366
74710SOL    HW125969   3.078   9.728  10.336
74710SOL    HW225970   3.036   9.583  10.348
74711SOL     OW25971   6.976  13.886  10.278
74711SOL    HW125972   7.056  13.934  10.254
74711SOL    HW225973   6.913  13.955  10.299
74712SOL     OW25974   2.683  14.873   8.801
74712SOL    HW125975   2.769   0.039   8.807
74712SOL    HW225976   2.628   0.062   8.758
74713SOL     OW25977  13.024   4.538   2.307
74713SOL    HW125978  12.943   4.569   2.267
74713SOL    HW225979  13.055   4.470   2.248
74714SOL     OW25980  11.962  11.481   4.699
74714SOL    HW125981  12.029  11.530   4.651
74714SOL    HW225982  11.907  11.549   4.738
74715SOL     OW25983   6.410  12.447   7.793
74715SOL    HW125984   6.349  12.513   7.760
74715SOL    HW225985   6.406  12.457   7.888
74716SOL     OW25986  12.708   1.645   5.282
74716SOL    HW125987  12.652   1.711   5.242
74716SOL    HW225988  12.675   1.638   5.372
74717SOL     OW25989  11.629  13.592  10.146
74717SOL    HW125990  11.594  13.504  10.161
74717SOL    HW225991  11.636  13.598  10.050
74718SOL     OW25992   6.953   0.751   1.812
74718SOL    HW125993   6.941   0.678   1.873
74718SOL    HW225994   6.916   0.720   1.730
74719SOL     OW25995   7.258   5.574   6.404
74719SOL    HW125996   7.322   5.502   6.399
74719SOL    HW225997   7.309   5.652   6.386
74720SOL     OW25998   3.367   6.230  11.460
74720SOL    HW125999   3.457   6.242  11.430
74720SOL    HW226000   3.342   6.315  11.495
74721SOL     OW26001  11.330   6.299  10.693
74721SOL    HW126002  11.303   6.209  10.676
74721SOL    HW226003  11.251   6.341  10.727
74722SOL     OW26004  11.411   3.810   6.403
74722SOL    HW126005  11.486   3.869   6.406
74722SOL    HW226006  11.379   3.808   6.493
74723SOL     OW26007   8.449   6.491   8.644
74723SOL    HW126008   8.401   6.503   8.562
74723SOL    HW226009   8.436   6.399   8.666
74724SOL     OW26010  11.527   2.871   0.832
74724SOL    HW126011  11.592   2.915   0.887
74724SOL    HW226012  11.451   2.928   0.835
74725SOL     OW26013   2.672   4.649  11.502
74725SOL    HW126014   2.748   4.705  11.519
74725SOL    HW226015   2.704   4.585  11.439
74726SOL     OW26016   9.993  10.329  13.591
74726SOL    HW126017  10.001  10.243  13.630
74726SOL    HW226018   9.900  10.337  13.568
74727SOL     OW26019  13.661   4.025   9.714
74727SOL    HW126020  13.653   4.120   9.703
74727SOL    HW226021  13.746   4.012   9.755
74728SOL     OW26022  13.385  14.717  11.083
74728SOL    HW126023  13.461  14.658  11.078
74728SOL    HW226024  13.373  14.748  10.994
74729SOL     OW26025  10.718   1.068  11.349
74729SOL    HW126026  10.656   1.065  11.276
74729SOL    HW226027  10.755   1.156  11.345
74730SOL     OW26028   7.611  13.107   5.893
74730SOL    HW126029   7.617  13.057   5.975
74730SOL    HW226030   7.643  13.047   5.826
74731SOL     OW26031   3.537  10.221   2.491
74731SOL    HW126032   3.559  10.210   2.399
74731SOL    HW226033   3.464  10.162   2.506
74732SOL     OW26034   1.042  10.309  13.671
74732SOL    HW126035   1.129  10.334  13.641
74732SOL    HW226036   0.982  10.346  13.606
74733SOL     OW26037  12.083   5.656   4.140
74733SOL    HW126038  12.134   5.737   4.134
74733SOL    HW226039  12.034   5.653   4.058
74734SOL     OW26040   2.244  11.451   6.492
74734SOL    HW126041   2.264  11.538   6.528
74734SOL    HW226042   2.286  11.390   6.553
74735SOL     OW26043   5.439   4.862  14.793
74735SOL    HW126044   5.534   4.875  14.802
74735SOL    HW226045   5.431   4.776  14.752
74736SOL     OW26046  13.449   7.556  10.906
74736SOL    HW126047  13.516   7.531  10.842
74736SOL    HW226048  13.494   7.619  10.964
74737SOL     OW26049  11.980  13.849  12.800
74737SOL    HW126050  11.965  13.847  12.706
74737SOL    HW226051  11.984  13.943  12.822
74738SOL     OW26052  14.421   4.130   4.686
74738SOL    HW126053  14.370   4.146   4.765
74738SOL    HW226054  14.414   4.212   4.636
74739SOL     OW26055   2.112  12.536  13.436
74739SOL    HW126056   2.183  12.475  13.417
74739SOL    HW226057   2.058  12.535  13.357
74740SOL     OW26058   5.954   9.409   2.467
74740SOL    HW126059   5.926   9.463   2.393
74740SOL    HW226060   6.036   9.449   2.497
74741SOL     OW26061   2.365   5.915   4.811
74741SOL    HW126062   2.297   5.964   4.857
74741SOL    HW226063   2.321   5.883   4.732
74742SOL     OW26064  13.191   1.694   6.002
74742SOL    HW126065  13.206   1.747   5.924
74742SOL    HW226066  13.109   1.727   6.039
74743SOL     OW26067   0.992  10.973   7.123
74743SOL    HW126068   0.958  11.000   7.037
74743SOL    HW226069   0.931  11.013   7.186
74744SOL     OW26070  14.179  14.857   3.403
74744SOL    HW126071  14.104  14.855   3.462
74744SOL    HW226072  14.224   0.062   3.425
74745SOL     OW26073   1.306  10.434   9.066
74745SOL    HW126074   1.220  10.424   9.025
74745SOL    HW226075   1.312  10.527   9.087
74746SOL     OW26076   5.826  11.796  11.127
74746SOL    HW126077   5.910  11.809  11.171
74746SOL    HW226078   5.825  11.862  11.057
74747SOL     OW26079   1.536  11.337   4.256
74747SOL    HW126080   1.631  11.326   4.253
74747SOL    HW226081   1.503  11.274   4.192
74748SOL     OW26082  11.685  11.638   9.662
74748SOL    HW126083  11.716  11.585   9.589
74748SOL    HW226084  11.599  11.602   9.683
74749SOL     OW26085   1.792   2.250   3.248
74749SOL    HW126086   1.781   2.228   3.340
74749SOL    HW226087   1.710   2.295   3.224
74750SOL     OW26088  13.825  13.109   9.759
74750SOL    HW126089  13.799  13.151   9.677
74750SOL    HW226090  13.756  13.044   9.775
74751SOL     OW26091   8.596   5.725  10.286
74751SOL    HW126092   8.626   5.635  10.274
74751SOL    HW226093   8.600   5.765  10.199
74752SOL     OW26094   4.076  12.261  12.097
74752SOL    HW126095   4.167  12.262  12.066
74752SOL    HW226096   4.048  12.352  12.092
74753SOL     OW26097   4.213  14.121  14.230
74753SOL    HW126098   4.230  14.148  14.320
74753SOL    HW226099   4.118  14.117  14.223
74754SOL     OW26100  10.119   6.231  12.780
74754SOL    HW126101  10.047   6.203  12.837
74754SOL    HW226102  10.085   6.218  12.691
74755SOL     OW26103   3.471   5.149   1.609
74755SOL    HW126104   3.379   5.172   1.621
74755SOL    HW226105   3.483   5.147   1.514
74756SOL     OW26106   7.774   8.624   6.850
74756SOL    HW126107   7.794   8.530   6.851
74756SOL    HW226108   7.719   8.637   6.927
74757SOL     OW26109   1.232   5.847   1.341
74757SOL    HW126110   1.223   5.758   1.375
74757SOL    HW226111   1.195   5.842   1.253
74758SOL     OW26112  13.895   9.556  11.533
74758SOL    HW126113  13.829   9.532  11.468
74758SOL    HW226114  13.900   9.652  11.529
74759SOL     OW26115  13.316   0.488  11.542
74759SOL    HW126116  13.312   0.438  11.461
74759SOL    HW226117  13.248   0.555  11.532
74760SOL     OW26118   8.508  14.696   9.843
74760SOL    HW126119   8.452  14.639   9.895
74760SOL    HW226120   8.544  14.639   9.774
74761SOL     OW26121   0.013   1.602  11.421
74761SOL    HW126122  14.825   1.657  11.375
74761SOL    HW226123  14.855   1.594  11.510
74762SOL     OW26124   3.591   0.406   6.206
74762SOL    HW126125   3.612   0.487   6.160
74762SOL    HW226126   3.577   0.342   6.137
74763SOL     OW26127   1.116  11.335   8.219
74763SOL    HW126128   1.090  11.418   8.181
74763SOL    HW226129   1.124  11.352   8.313
74764SOL     OW26130   1.283   8.807   9.234
74764SOL    HW126131   1.343   8.877   9.259
74764SOL    HW226132   1.200   8.853   9.217
74765SOL     OW26133   7.031   1.595  11.883
74765SOL    HW126134   7.049   1.507  11.849
74765SOL    HW226135   7.058   1.591  11.974
74766SOL     OW26136   6.413   4.194   3.794
74766SOL    HW126137   6.442   4.173   3.705
74766SOL    HW226138   6.429   4.114   3.844
74767SOL     OW26139   4.369   4.568  13.894
74767SOL    HW126140   4.411   4.636  13.947
74767SOL    HW226141   4.441   4.523  13.850
74768SOL     OW26142   2.271   4.584   7.728
74768SOL    HW126143   2.236   4.542   7.650
74768SOL    HW226144   2.364   4.562   7.728
74769SOL     OW26145   2.939   9.375  10.584
74769SOL    HW126146   2.921   9.432  10.510
74769SOL    HW226147   3.004   9.313  10.551
74770SOL     OW26148  12.789  10.430  10.231
74770SOL    HW126149  12.708  10.481  10.235
74770SOL    HW226150  12.781  10.367  10.303
74771SOL     OW26151   7.663   3.825   8.291
74771SOL    HW126152   7.681   3.731   8.288
74771SOL    HW226153   7.573   3.834   8.262
74772SOL     OW26154   0.098   5.691  10.579
74772SOL    HW126155   0.008   5.690  10.612
74772SOL    HW226156   0.096   5.754  10.507
74773SOL     OW26157  13.957  12.405   7.841
74773SOL    HW126158  13.902  12.466   7.890
74773SOL    HW226159  14.000  12.459   7.774
74774SOL     OW26160   5.441   9.738   8.993
74774SOL    HW126161   5.449   9.755   8.899
74774SOL    HW226162   5.500   9.664   9.009
74775SOL     OW26163   2.258  14.307   7.337
74775SOL    HW126164   2.305  14.348   7.409
74775SOL    HW226165   2.176  14.356   7.331
74776SOL     OW26166  13.012  13.476   0.662
74776SOL    HW126167  12.957  13.498   0.587
74776SOL    HW226168  13.087  13.535   0.655
74777SOL     OW26169   4.449  11.766  13.635
74777SOL    HW126170   4.459  11.768  13.540
74777SOL    HW226171   4.479  11.678  13.661
74778SOL     OW26172   6.813   2.019   8.720
74778SOL    HW126173   6.893   2.047   8.764
74778SOL    HW226174   6.760   1.979   8.788
74779SOL     OW26175   4.292   2.591   6.026
74779SOL    HW126176   4.298   2.504   6.066
74779SOL    HW226177   4.242   2.643   6.089
74780SOL     OW26178   2.711   9.857  13.389
74780SOL    HW126179   2.697   9.813  13.473
74780SOL    HW226180   2.734   9.947  13.413
74781SOL     OW26181   0.446   6.935   5.991
74781SOL    HW126182   0.508   6.863   5.980
74781SOL    HW226183   0.483   7.006   5.938
74782SOL     OW26184   7.172  14.063  10.196
74782SOL    HW126185   7.142  14.133  10.254
74782SOL    HW226186   7.187  14.106  10.112
74783SOL     OW26187   3.487   7.358   9.598
74783SOL    HW126188   3.558   7.422   9.601
74783SOL    HW226189   3.517   7.294   9.532
74784SOL     OW26190  12.760   1.172  13.172
74784SOL    HW126191  12.728   1.136  13.255
74784SOL    HW226192  12.742   1.266  13.177
74785SOL     OW26193   7.995   4.737   5.401
74785SOL    HW126194   8.064   4.773   5.457
74785SOL    HW226195   7.956   4.814   5.359
74786SOL     OW26196  12.999   2.885   2.309
74786SOL    HW126197  12.912   2.924   2.311
74786SOL    HW226198  12.983   2.791   2.309
74787SOL     OW26199  12.514   6.004   1.703
74787SOL    HW126200  12.495   5.924   1.653
74787SOL    HW226201  12.520   5.975   1.794
74788SOL     OW26202  10.362  11.167   7.018
74788SOL    HW126203  10.351  11.091   6.962
74788SOL    HW226204  10.311  11.148   7.096
74789SOL     OW26205   9.737   7.051   5.974
74789SOL    HW126206   9.821   7.052   5.928
74789SOL    HW226207   9.673   7.078   5.909
74790SOL     OW26208   3.410   4.339   9.656
74790SOL    HW126209   3.409   4.392   9.736
74790SOL    HW226210   3.493   4.292   9.659
74791SOL     OW26211   1.282   5.187   7.203
74791SOL    HW126212   1.232   5.163   7.125
74791SOL    HW226213   1.282   5.108   7.257
74792SOL     OW26214   3.078   3.336   0.841
74792SOL    HW126215   3.149   3.340   0.905
74792SOL    HW226216   3.108   3.273   0.775
74793SOL     OW26217   1.422   4.169  13.657
74793SOL    HW126218   1.512   4.145  13.634
74793SOL    HW226219   1.367   4.118  13.598
74794SOL     OW26220   8.424   0.733   7.246
74794SOL    HW126221   8.418   0.743   7.151
74794SOL    HW226222   8.354   0.790   7.280
74795SOL     OW26223   7.634   9.544   4.013
74795SOL    HW126224   7.600   9.503   4.093
74795SOL    HW226225   7.648   9.471   3.953
74796SOL     OW26226  13.514   0.152  13.359
74796SOL    HW126227  13.444   0.205  13.321
74796SOL    HW226228  13.488   0.139  13.450
74797SOL     OW26229   5.657  10.391   0.920
74797SOL    HW126230   5.705  10.400   0.838
74797SOL    HW226231   5.720  10.419   0.987
74798SOL     OW26232  14.455   5.722   0.219
74798SOL    HW126233  14.363   5.731   0.246
74798SOL    HW226234  14.473   5.628   0.229
74799SOL     OW26235   8.832   6.968  13.791
74799SOL    HW126236   8.920   6.974  13.826
74799SOL    HW226237   8.793   7.054  13.810
74800SOL     OW26238   0.028  13.246   0.750
74800SOL    HW126239   0.024  13.275   0.659
74800SOL    HW226240  14.822  13.200   0.765
74801SOL     OW26241   8.748   4.261   2.718
74801SOL    HW126242   8.744   4.310   2.800
74801SOL    HW226243   8.765   4.171   2.745
74802SOL     OW26244  11.859   8.729   6.426
74802SOL    HW126245  11.804   8.676   6.368
74802SOL    HW226246  11.799   8.789   6.469
74803SOL     OW26247  10.368   1.322  11.967
74803SOL    HW126248  10.312   1.361  12.034
74803SOL    HW226249  10.431   1.269  12.016
74804SOL     OW26250   3.958   2.809  14.859
74804SOL    HW126251   3.911   2.839  14.781
74804SOL    HW226252   4.046   2.847  14.850
74805SOL     OW26253  10.267   4.729  12.132
74805SOL    HW126254  10.287   4.657  12.073
74805SOL    HW226255  10.348   4.744  12.181
74806SOL     OW26256   2.484  14.444  11.756
74806SOL    HW126257   2.395  14.475  11.773
74806SOL    HW226258   2.521  14.509  11.696
74807SOL     OW26259   8.684   7.282   0.886
74807SOL    HW126260   8.694   7.230   0.806
74807SOL    HW226261   8.715   7.369   0.862
74808SOL     OW26262   3.822   0.864  13.581
74808SOL    HW126263   3.801   0.788  13.527
74808SOL    HW226264   3.916   0.878  13.567
74809SOL     OW26265   8.508   0.138   7.179
74809SOL    HW126266   8.415   0.159   7.186
74809SOL    HW226267   8.513   0.045   7.200
74810SOL     OW26268   7.336   1.390  13.628
74810SOL    HW126269   7.419   1.418  13.666
74810SOL    HW226270   7.317   1.456  13.561
74811SOL     OW26271   0.766   5.230  13.368
74811SOL    HW126272   0.833   5.170  13.335
74811SOL    HW226273   0.753   5.293  13.296
74812SOL     OW26274   4.056  12.020  14.038
74812SOL    HW126275   3.964  11.994  14.036
74812SOL    HW226276   4.090  11.994  13.953
74813SOL     OW26277   7.904   8.271  13.219
74813SOL    HW126278   7.980   8.214  13.205
74813SOL    HW226279   7.929   8.326  13.294
74814SOL     OW26280   1.117   2.128  13.346
74814SOL    HW126281   1.065   2.194  13.300
74814SOL    HW226282   1.203   2.131  13.305
74815SOL     OW26283   1.374   3.147  12.939
74815SOL    HW126284   1.433   3.121  12.868
74815SOL    HW226285   1.370   3.243  12.933
74816SOL     OW26286   6.768   8.133  14.180
74816SOL    HW126287   6.739   8.197  14.116
74816SOL    HW226288   6.692   8.118  14.236
74817SOL     OW26289   9.527  13.158   0.018
74817SOL    HW126290   9.576  13.187  14.817
74817SOL    HW226291   9.475  13.234   0.043
74818SOL     OW26292  14.508  11.898   7.304
74818SOL    HW126293  14.442  11.966   7.303
74818SOL    HW226294  14.569  11.924   7.374
74819SOL     OW26295  10.416   8.508  11.296
74819SOL    HW126296  10.489   8.566  11.316
74819SOL    HW226297  10.448   8.453  11.224
74820SOL     OW26298  12.201   0.064   1.224
74820SOL    HW126299  12.236   0.041   1.310
74820SOL    HW226300  12.197  14.858   1.177
74821SOL     OW26301  12.013   8.089   8.789
74821SOL    HW126302  12.028   7.995   8.803
74821SOL    HW226303  11.922   8.094   8.759
74822SOL     OW26304   2.162   2.776   0.735
74822SOL    HW126305   2.155   2.849   0.673
74822SOL    HW226306   2.131   2.812   0.818
74823SOL     OW26307  13.157   9.425   8.946
74823SOL    HW126308  13.101   9.477   8.888
74823SOL    HW226309  13.108   9.344   8.959
74824SOL     OW26310   6.023   4.921  13.191
74824SOL    HW126311   6.030   4.992  13.256
74824SOL    HW226312   6.096   4.937  13.132
74825SOL     OW26313   1.088  14.304   7.074
74825SOL    HW126314   1.120  14.270   7.158
74825SOL    HW226315   1.004  14.346   7.096
74826SOL     OW26316  10.582   4.156  10.580
74826SOL    HW126317  10.675   4.151  10.601
74826SOL    HW226318  10.543   4.081  10.625
74827SOL     OW26319  12.795   7.953  14.511
74827SOL    HW126320  12.755   7.895  14.445
74827SOL    HW226321  12.818   7.895  14.583
74828SOL     OW26322  10.260   3.748   7.805
74828SOL    HW126323  10.282   3.767   7.714
74828SOL    HW226324  10.344   3.742   7.850
74829SOL     OW26325  11.047  12.728  13.836
74829SOL    HW126326  11.092  12.713  13.920
74829SOL    HW226327  11.054  12.645  13.790
74830SOL     OW26328   3.763   6.823   1.422
74830SOL    HW126329   3.797   6.897   1.472
74830SOL    HW226330   3.726   6.764   1.488
74831SOL     OW26331   5.006   1.263   9.899
74831SOL    HW126332   4.994   1.358   9.899
74831SOL    HW226333   5.075   1.247   9.834
74832SOL     OW26334   1.469   9.591  12.739
74832SOL    HW126335   1.441   9.522  12.800
74832SOL    HW226336   1.564   9.584  12.737
74833SOL     OW26337  12.720  10.282  12.399
74833SOL    HW126338  12.663  10.316  12.330
74833SOL    HW226339  12.683  10.320  12.480
74834SOL     OW26340   8.370   8.836   6.431
74834SOL    HW126341   8.279   8.808   6.435
74834SOL    HW226342   8.379   8.900   6.501
74835SOL     OW26343   4.706   7.350   1.873
74835SOL    HW126344   4.782   7.295   1.895
74835SOL    HW226345   4.667   7.307   1.797
74836SOL     OW26346   0.709   2.616   8.486
74836SOL    HW126347   0.739   2.526   8.501
74836SOL    HW226348   0.618   2.615   8.514
74837SOL     OW26349   2.853  13.772   0.007
74837SOL    HW126350   2.938  13.806   0.034
74837SOL    HW226351   2.789  13.820   0.060
74838SOL     OW26352   6.197  10.868  12.379
74838SOL    HW126353   6.200  10.780  12.416
74838SOL    HW226354   6.289  10.892  12.369
74839SOL     OW26355  12.386   7.192   5.408
74839SOL    HW126356  12.379   7.155   5.496
74839SOL    HW226357  12.309   7.248   5.400
74840SOL     OW26358  11.965   5.355  14.651
74840SOL    HW126359  11.889   5.303  14.677
74840SOL    HW226360  11.948   5.380  14.560
74841SOL     OW26361   2.763  12.211   6.056
74841SOL    HW126362   2.740  12.299   6.088
74841SOL    HW226363   2.833  12.227   5.992
74842SOL     OW26364   9.032  13.519   0.832
74842SOL    HW126365   9.083  13.567   0.898
74842SOL    HW226366   9.089  13.517   0.755
74843SOL     OW26367   8.187   5.500  11.618
74843SOL    HW126368   8.220   5.493  11.528
74843SOL    HW226369   8.094   5.479  11.611
74844SOL     OW26370   9.970   1.993  13.862
74844SOL    HW126371  10.057   2.000  13.901
74844SOL    HW226372   9.985   1.993  13.768
74845SOL     OW26373   1.742  10.676  14.801
74845SOL    HW126374   1.728  10.582  14.795
74845SOL    HW226375   1.672  10.714  14.748
74846SOL     OW26376  12.978   7.184   8.090
74846SOL    HW126377  12.967   7.246   8.018
74846SOL    HW226378  12.896   7.192   8.140
74847SOL     OW26379  13.237  10.968  14.864
74847SOL    HW126380  13.193  11.050  14.842
74847SOL    HW226381  13.325  10.978  14.829
74848SOL     OW26382  12.790  14.636  12.012
74848SOL    HW126383  12.842  14.691  11.954
74848SOL    HW226384  12.854  14.594  12.069
74849SOL     OW26385   5.976   9.991   6.153
74849SOL    HW126386   6.011   9.977   6.065
74849SOL    HW226387   6.020   9.926   6.207
74850SOL     OW26388   1.662  14.614  10.739
74850SOL    HW126389   1.624  14.700  10.757
74850SOL    HW226390   1.587  14.559  10.716
74851SOL     OW26391   4.609   8.715   4.384
74851SOL    HW126392   4.556   8.779   4.337
74851SOL    HW226393   4.562   8.632   4.373
74852SOL     OW26394  14.178   9.146   7.110
74852SOL    HW126395  14.189   9.062   7.155
74852SOL    HW226396  14.102   9.134   7.053
74853SOL     OW26397  12.216   9.278   7.142
74853SOL    HW126398  12.225   9.203   7.201
74853SOL    HW226399  12.280   9.260   7.072
74854SOL     OW26400   6.134  14.048  11.027
74854SOL    HW126401   6.136  14.141  11.003
74854SOL    HW226402   6.213  14.012  10.988
74855SOL     OW26403   5.229  12.897   8.360
74855SOL    HW126404   5.216  12.960   8.431
74855SOL    HW226405   5.152  12.842   8.362
74856SOL     OW26406   2.681   4.807   7.741
74856SOL    HW126407   2.616   4.803   7.812
74856SOL    HW226408   2.709   4.899   7.740
74857SOL     OW26409  14.775  14.206   9.364
74857SOL    HW126410  14.740  14.207   9.453
74857SOL    HW226411  14.844  14.273   9.364
74858SOL     OW26412   6.887  12.283  13.203
74858SOL    HW126413   6.937  12.275  13.121
74858SOL    HW226414   6.802  12.315  13.175
74859SOL     OW26415  14.137  11.330   0.597
74859SOL    HW126416  14.199  11.360   0.663
74859SOL    HW226417  14.136  11.235   0.607
74860SOL     OW26418   8.052   1.717  13.702
74860SOL    HW126419   8.141   1.700  13.671
74860SOL    HW226420   7.996   1.688  13.630
74861SOL     OW26421   4.948   3.290   9.800
74861SOL    HW126422   4.893   3.352   9.753
74861SOL    HW226423   4.970   3.334   9.882
74862SOL     OW26424   5.270  10.071   7.529
74862SOL    HW126425   5.331  10.139   7.499
74862SOL    HW226426   5.290  10.060   7.622
74863SOL     OW26427  10.644   5.259   2.286
74863SOL    HW126428  10.640   5.328   2.220
74863SOL    HW226429  10.589   5.290   2.358
74864SOL     OW26430  13.410   7.487  12.075
74864SOL    HW126431  13.485   7.451  12.123
74864SOL    HW226432  13.335   7.436  12.105
74865SOL     OW26433   8.196  14.814   5.821
74865SOL    HW126434   8.223  14.769   5.741
74865SOL    HW226435   8.274  14.860   5.851
74866SOL     OW26436  10.742  10.289   3.121
74866SOL    HW126437  10.816  10.257   3.172
74866SOL    HW226438  10.679  10.217   3.122
74867SOL     OW26439  11.314   1.425   1.809
74867SOL    HW126440  11.275   1.339   1.820
74867SOL    HW226441  11.408   1.409   1.803
74868SOL     OW26442   7.940   7.888   7.003
74868SOL    HW126443   8.011   7.856   7.058
74868SOL    HW226444   7.920   7.976   7.036
74869SOL     OW26445   9.338  13.098   0.250
74869SOL    HW126446   9.333  13.048   0.332
74869SOL    HW226447   9.370  13.035   0.185
74870SOL     OW26448   3.114   8.887   6.238
74870SOL    HW126449   3.203   8.920   6.232
74870SOL    HW226450   3.099   8.841   6.155
74871SOL     OW26451   8.205   5.003  14.491
74871SOL    HW126452   8.221   4.909  14.487
74871SOL    HW226453   8.184   5.020  14.583
74872SOL     OW26454   3.733   7.370  14.687
74872SOL    HW126455   3.794   7.443  14.674
74872SOL    HW226456   3.683   7.367  14.605
74873SOL     OW26457   2.518   4.995  13.906
74873SOL    HW126458   2.485   4.905  13.916
74873SOL    HW226459   2.442   5.045  13.876
74874SOL     OW26460   8.307   2.363   8.421
74874SOL    HW126461   8.368   2.301   8.381
74874SOL    HW226462   8.349   2.448   8.413
74875SOL     OW26463   7.935   5.077   4.253
74875SOL    HW126464   7.950   5.056   4.161
74875SOL    HW226465   8.005   5.138   4.275
74876SOL     OW26466   3.251   7.738   5.277
74876SOL    HW126467   3.174   7.721   5.331
74876SOL    HW226468   3.237   7.687   5.198
74877SOL     OW26469   6.646   0.916   3.605
74877SOL    HW126470   6.738   0.914   3.576
74877SOL    HW226471   6.650   0.901   3.699
74878SOL     OW26472   7.840   7.395  14.028
74878SOL    HW126473   7.898   7.325  13.998
74878SOL    HW226474   7.898   7.471  14.039
74879SOL     OW26475   8.337   1.809   9.989
74879SOL    HW126476   8.306   1.796   9.900
74879SOL    HW226477   8.286   1.747  10.042
74880SOL     OW26478  13.880   3.554  13.207
74880SOL    HW126479  13.847   3.636  13.244
74880SOL    HW226480  13.891   3.573  13.114
74881SOL     OW26481   2.590   4.308   0.740
74881SOL    HW126482   2.617   4.342   0.825
74881SOL    HW226483   2.671   4.305   0.688
74882SOL     OW26484   1.746   3.164  12.403
74882SOL    HW126485   1.784   3.084  12.441
74882SOL    HW226486   1.697   3.133  12.326
74883SOL     OW26487   6.533   4.157  13.895
74883SOL    HW126488   6.541   4.204  13.812
74883SOL    HW226489   6.533   4.064  13.870
74884SOL     OW26490  12.691  12.737   0.998
74884SOL    HW126491  12.740  12.787   0.933
74884SOL    HW226492  12.757  12.707   1.060
74885SOL     OW26493  10.842   5.369  12.291
74885SOL    HW126494  10.823   5.431  12.361
74885SOL    HW226495  10.807   5.286  12.323
74886SOL     OW26496   5.258   4.921   5.525
74886SOL    HW126497   5.291   4.953   5.609
74886SOL    HW226498   5.255   4.999   5.469
74887SOL     OW26499   1.372   1.984  12.249
74887SOL    HW126500   1.422   2.008  12.327
74887SOL    HW226501   1.284   1.966  12.282
74888SOL     OW26502   4.913  13.989  13.090
74888SOL    HW126503   4.847  13.993  13.021
74888SOL    HW226504   4.963  14.070  13.080
74889SOL     OW26505   9.236  10.668  11.126
74889SOL    HW126506   9.308  10.606  11.110
74889SOL    HW226507   9.172  10.618  11.176
74890SOL     OW26508   6.226   4.701   1.042
74890SOL    HW126509   6.155   4.694   0.979
74890SOL    HW226510   6.299   4.655   1.002
74891SOL     OW26511   2.632   3.016   7.700
74891SOL    HW126512   2.611   3.000   7.608
74891SOL    HW226513   2.726   3.033   7.700
74892SOL     OW26514   5.509   0.926  14.348
74892SOL    HW126515   5.488   0.859  14.283
74892SOL    HW226516   5.597   0.955  14.324
74893SOL     OW26517   6.194  14.055   2.147
74893SOL    HW126518   6.156  14.030   2.063
74893SOL    HW226519   6.126  14.107   2.190
74894SOL     OW26520   4.920   6.105   1.524
74894SOL    HW126521   4.923   6.126   1.617
74894SOL    HW226522   5.011   6.117   1.494
74895SOL     OW26523   7.356   0.194  12.733
74895SOL    HW126524   7.327   0.282  12.713
74895SOL    HW226525   7.437   0.183  12.683
74896SOL     OW26526   7.640   7.856   1.930
74896SOL    HW126527   7.690   7.780   1.962
74896SOL    HW226528   7.632   7.914   2.005
74897SOL     OW26529   1.650   2.587   0.999
74897SOL    HW126530   1.676   2.619   1.085
74897SOL    HW226531   1.668   2.493   1.002
74898SOL     OW26532  13.724   6.226   6.869
74898SOL    HW126533  13.636   6.187   6.871
74898SOL    HW226534  13.782   6.155   6.895
74899SOL     OW26535  14.476   6.998   7.512
74899SOL    HW126536  14.470   7.041   7.597
74899SOL    HW226537  14.511   7.065   7.453
74900SOL     OW26538   7.735  14.166   1.612
74900SOL    HW126539   7.732  14.072   1.595
74900SOL    HW226540   7.792  14.201   1.544
74901SOL     OW26541  10.591   9.130   0.274
74901SOL    HW126542  10.576   9.037   0.256
74901SOL    HW226543  10.686   9.136   0.290
74902SOL     OW26544   6.638   4.382   8.864
74902SOL    HW126545   6.632   4.286   8.860
74902SOL    HW226546   6.660   4.409   8.775
74903SOL     OW26547  11.965   1.544   5.466
74903SOL    HW126548  12.009   1.594   5.397
74903SOL    HW226549  11.873   1.570   5.460
74904SOL     OW26550   2.437   1.798   4.282
74904SOL    HW126551   2.488   1.717   4.280
74904SOL    HW226552   2.366   1.780   4.343
74905SOL     OW26553   0.072  14.486   0.176
74905SOL    HW126554   0.127  14.491   0.098
74905SOL    HW226555  14.859  14.484   0.143
74906SOL     OW26556   4.395  11.564   4.505
74906SOL    HW126557   4.414  11.504   4.577
74906SOL    HW226558   4.396  11.651   4.545
74907SOL     OW26559   3.244   3.029   4.680
74907SOL    HW126560   3.338   3.028   4.662
74907SOL    HW226561   3.217   2.938   4.670
74908SOL     OW26562   2.256  10.626   6.696
74908SOL    HW126563   2.190  10.602   6.632
74908SOL    HW226564   2.320  10.555   6.692
74909SOL     OW26565   0.296   2.875  13.346
74909SOL    HW126566   0.204   2.847  13.349
74909SOL    HW226567   0.296   2.958  13.394
74910SOL     OW26568   3.322   8.108   0.850
74910SOL    HW126569   3.359   8.178   0.904
74910SOL    HW226570   3.390   8.041   0.847
74911SOL     OW26571  12.544   1.689  11.593
74911SOL    HW126572  12.449   1.683  11.597
74911SOL    HW226573  12.564   1.778  11.623
74912SOL     OW26574  12.737   3.231   2.236
74912SOL    HW126575  12.739   3.323   2.209
74912SOL    HW226576  12.722   3.234   2.330
74913SOL     OW26577   0.787   9.566  12.971
74913SOL    HW126578   0.699   9.552  13.006
74913SOL    HW226579   0.834   9.612  13.041
74914SOL     OW26580   1.674  13.802  10.254
74914SOL    HW126581   1.646  13.842  10.337
74914SOL    HW226582   1.601  13.745  10.230
74915SOL     OW26583  12.951  14.834  11.945
74915SOL    HW126584  12.867  14.874  11.969
74915SOL    HW226585  13.017   0.009  11.991
74916SOL     OW26586   8.497  13.256  10.801
74916SOL    HW126587   8.456  13.230  10.883
74916SOL    HW226588   8.521  13.173  10.759
74917SOL     OW26589   2.624   4.235   0.113
74917SOL    HW126590   2.646   4.159   0.059
74917SOL    HW226591   2.550   4.206   0.166
74918SOL     OW26592   1.529   4.856  11.457
74918SOL    HW126593   1.549   4.813  11.374
74918SOL    HW226594   1.504   4.785  11.515
74919SOL     OW26595   9.391   8.038   5.777
74919SOL    HW126596   9.420   8.125   5.805
74919SOL    HW226597   9.317   8.055   5.719
74920SOL     OW26598  11.170   3.685   1.258
74920SOL    HW126599  11.130   3.601   1.237
74920SOL    HW226600  11.240   3.663   1.320
74921SOL     OW26601   1.873   0.378  10.355
74921SOL    HW126602   1.956   0.414  10.325
74921SOL    HW226603   1.852   0.310  10.291
74922SOL     OW26604  14.014  14.652   1.430
74922SOL    HW126605  13.966  14.608   1.359
74922SOL    HW226606  14.093  14.598   1.442
74923SOL     OW26607   8.279   1.474   4.859
74923SOL    HW126608   8.362   1.450   4.820
74923SOL    HW226609   8.247   1.547   4.805
74924SOL     OW26610   7.216   4.534  13.036
74924SOL    HW126611   7.179   4.612  13.077
74924SOL    HW226612   7.281   4.568  12.975
74925SOL     OW26613  12.090  13.887   5.725
74925SOL    HW126614  12.156  13.948   5.760
74925SOL    HW226615  12.007  13.934   5.733
74926SOL     OW26616   6.915   4.660  13.758
74926SOL    HW126617   6.874   4.725  13.701
74926SOL    HW226618   6.977   4.710  13.811
74927SOL     OW26619   7.721   2.597  10.048
74927SOL    HW126620   7.649   2.570   9.990
74927SOL    HW226621   7.760   2.514  10.077
74928SOL     OW26622  13.781   9.853  14.565
74928SOL    HW126623  13.791   9.831  14.472
74928SOL    HW226624  13.861   9.820  14.606
74929SOL     OW26625   8.731  14.654  10.558
74929SOL    HW126626   8.786  14.591  10.510
74929SOL    HW226627   8.644  14.644  10.520
74930SOL     OW26628   7.606   2.652  13.545
74930SOL    HW126629   7.629   2.621  13.457
74930SOL    HW226630   7.652   2.591  13.603
74931SOL     OW26631   6.111  14.063  13.667
74931SOL    HW126632   6.061  14.073  13.747
74931SOL    HW226633   6.202  14.054  13.696
74932SOL     OW26634   6.092  14.009   1.287
74932SOL    HW126635   6.010  13.960   1.282
74932SOL    HW226636   6.146  13.973   1.217
74933SOL     OW26637  11.178  12.334   0.326
74933SOL    HW126638  11.158  12.333   0.420
74933SOL    HW226639  11.164  12.425   0.300
74934SOL     OW26640   7.969   1.840   6.624
74934SOL    HW126641   7.880   1.846   6.659
74934SOL    HW226642   8.021   1.896   6.682
74935SOL     OW26643   4.630  13.940  10.687
74935SOL    HW126644   4.578  13.923  10.765
74935SOL    HW226645   4.692  14.007  10.714
74936SOL     OW26646   0.548   7.222   7.262
74936SOL    HW126647   0.477   7.281   7.235
74936SOL    HW226648   0.512   7.134   7.249
74937SOL     OW26649  10.599   3.789   7.787
74937SOL    HW126650  10.647   3.806   7.868
74937SOL    HW226651  10.580   3.875   7.751
74938SOL     OW26652   9.843   5.959   9.249
74938SOL    HW126653   9.875   6.046   9.224
74938SOL    HW226654   9.811   5.921   9.167
74939SOL     OW26655   8.442   9.001   3.952
74939SOL    HW126656   8.464   9.043   4.035
74939SOL    HW226657   8.509   9.032   3.891
74940SOL     OW26658   1.549   0.109  11.243
74940SOL    HW126659   1.614   0.160  11.291
74940SOL    HW226660   1.597   0.072  11.170
74941SOL     OW26661   1.658   9.678   1.409
74941SOL    HW126662   1.583   9.665   1.351
74941SOL    HW226663   1.623   9.728   1.483
74942SOL     OW26664   1.696   0.727   9.993
74942SOL    HW126665   1.747   0.798   9.953
74942SOL    HW226666   1.683   0.754  10.084
74943SOL     OW26667   8.238   4.632   1.171
74943SOL    HW126668   8.218   4.589   1.254
74943SOL    HW226669   8.236   4.725   1.191
74944SOL     OW26670  10.084   5.461   3.098
74944SOL    HW126671  10.043   5.383   3.135
74944SOL    HW226672  10.174   5.459   3.131
74945SOL     OW26673  10.128   2.790  11.053
74945SOL    HW126674  10.119   2.861  11.116
74945SOL    HW226675  10.196   2.821  10.992
74946SOL     OW26676   2.496   6.663   4.536
74946SOL    HW126677   2.546   6.615   4.602
74946SOL    HW226678   2.405   6.652   4.563
74947SOL     OW26679   9.833  13.844  14.778
74947SOL    HW126680   9.801  13.932  14.756
74947SOL    HW226681   9.830  13.841  14.873
74948SOL     OW26682   6.476  12.167  13.204
74948SOL    HW126683   6.515  12.081  13.218
74948SOL    HW226684   6.386  12.150  13.178
74949SOL     OW26685  10.628  14.532   3.153
74949SOL    HW126686  10.554  14.522   3.093
74949SOL    HW226687  10.704  14.539   3.096
74950SOL     OW26688   7.366   4.813  10.574
74950SOL    HW126689   7.344   4.834  10.483
74950SOL    HW226690   7.322   4.881  10.625
74951SOL     OW26691  10.378   0.532   4.211
74951SOL    HW126692  10.465   0.570   4.207
74951SOL    HW226693  10.319   0.607   4.202
74952SOL     OW26694   7.286   9.631   3.410
74952SOL    HW126695   7.214   9.635   3.346
74952SOL    HW226696   7.245   9.653   3.494
74953SOL     OW26697  14.284   5.633   2.708
74953SOL    HW126698  14.267   5.725   2.684
74953SOL    HW226699  14.217   5.613   2.773
74954SOL     OW26700   1.107   5.815  13.036
74954SOL    HW126701   1.173   5.820  12.967
74954SOL    HW226702   1.062   5.899  13.034
74955SOL     OW26703   1.088  11.441  13.012
74955SOL    HW126704   1.078  11.403  13.100
74955SOL    HW226705   1.087  11.366  12.953
74956SOL     OW26706   2.291   6.404   3.082
74956SOL    HW126707   2.267   6.317   3.113
74956SOL    HW226708   2.282   6.460   3.159
74957SOL     OW26709   5.975   6.497  14.253
74957SOL    HW126710   5.883   6.483  14.275
74957SOL    HW226711   5.993   6.587  14.281
74958SOL     OW26712  13.353   9.208   2.125
74958SOL    HW126713  13.407   9.250   2.191
74958SOL    HW226714  13.409   9.204   2.047
74959SOL     OW26715   3.678   1.875  10.123
74959SOL    HW126716   3.683   1.953  10.067
74959SOL    HW226717   3.665   1.910  10.211
74960SOL     OW26718  14.253  12.985   9.364
74960SOL    HW126719  14.175  12.984   9.309
74960SOL    HW226720  14.303  12.908   9.335
74961SOL     OW26721   9.043   1.710   2.100
74961SOL    HW126722   9.115   1.771   2.087
74961SOL    HW226723   9.077   1.626   2.070
74962SOL     OW26724   2.610   5.404   2.572
74962SOL    HW126725   2.656   5.358   2.642
74962SOL    HW226726   2.673   5.468   2.539
74963SOL     OW26727   7.309   0.875   7.698
74963SOL    HW126728   7.395   0.853   7.662
74963SOL    HW226729   7.317   0.967   7.723
74964SOL     OW26730   7.161   1.813   7.400
74964SOL    HW126731   7.137   1.720   7.394
74964SOL    HW226732   7.219   1.818   7.476
74965SOL     OW26733  12.345   9.265   7.527
74965SOL    HW126734  12.411   9.241   7.593
74965SOL    HW226735  12.390   9.252   7.443
74966SOL     OW26736  11.182   6.087   1.681
74966SOL    HW126737  11.098   6.042   1.679
74966SOL    HW226738  11.160   6.180   1.690
74967SOL     OW26739   2.700   4.193   1.899
74967SOL    HW126740   2.735   4.216   1.813
74967SOL    HW226741   2.742   4.110   1.921
74968SOL     OW26742  10.821   6.741   4.106
74968SOL    HW126743  10.822   6.694   4.189
74968SOL    HW226744  10.749   6.703   4.057
74969SOL     OW26745   2.592   0.400   1.609
74969SOL    HW126746   2.605   0.380   1.702
74969SOL    HW226747   2.676   0.433   1.579
74970SOL     OW26748  10.211   9.847   4.263
74970SOL    HW126749  10.153   9.808   4.328
74970SOL    HW226750  10.152   9.880   4.195
74971SOL     OW26751   8.780  11.126   7.985
74971SOL    HW126752   8.786  11.062   8.056
74971SOL    HW226753   8.861  11.176   7.990
74972SOL     OW26754  12.040   9.235   9.737
74972SOL    HW126755  12.103   9.294   9.697
74972SOL    HW226756  12.091   9.157   9.759
74973SOL     OW26757   7.031   2.743   6.463
74973SOL    HW126758   7.028   2.700   6.377
74973SOL    HW226759   6.940   2.750   6.489
74974SOL     OW26760   2.986  14.004   6.313
74974SOL    HW126761   3.039  13.951   6.372
74974SOL    HW226762   3.044  14.022   6.239
74975SOL     OW26763  12.916  12.274   0.764
74975SOL    HW126764  12.860  12.302   0.836
74975SOL    HW226765  12.939  12.354   0.718
74976SOL     OW26766  14.201  11.057   2.747
74976SOL    HW126767  14.273  11.102   2.704
74976SOL    HW226768  14.185  10.979   2.693
74977SOL     OW26769  12.544   3.942  10.377
74977SOL    HW126770  12.598   3.934  10.456
74977SOL    HW226771  12.581   3.879  10.316
74978SOL     OW26772   5.538  13.589  14.791
74978SOL    HW126773   5.609  13.531  14.762
74978SOL    HW226774   5.551  13.669  14.740
74979SOL     OW26775  11.148   3.386   8.616
74979SOL    HW126776  11.144   3.467   8.565
74979SOL    HW226777  11.130   3.317   8.552
74980SOL     OW26778   6.169   0.026  11.141
74980SOL    HW126779   6.188  14.838  11.073
74980SOL    HW226780   6.152  14.851  11.219
74981SOL     OW26781  12.248  13.032  13.426
74981SOL    HW126782  12.221  13.123  13.414
74981SOL    HW226783  12.178  12.993  13.479
74982SOL     OW26784   7.796   0.305   0.445
74982SOL    HW126785   7.725   0.368   0.435
74982SOL    HW226786   7.845   0.335   0.522
74983SOL     OW26787  12.488   5.340  11.506
74983SOL    HW126788  12.476   5.282  11.432
74983SOL    HW226789  12.514   5.282  11.578
74984SOL     OW26790   5.469   6.240   4.955
74984SOL    HW126791   5.505   6.234   5.044
74984SOL    HW226792   5.377   6.216   4.966
74985SOL     OW26793   8.569   8.463  14.592
74985SOL    HW126794   8.539   8.399  14.528
74985SOL    HW226795   8.598   8.538  14.539
74986SOL     OW26796   3.281  13.958  13.493
74986SOL    HW126797   3.332  14.005  13.559
74986SOL    HW226798   3.238  14.027  13.442
74987SOL     OW26799   6.718  10.507  11.685
74987SOL    HW126800   6.649  10.446  11.660
74987SOL    HW226801   6.784  10.497  11.616
74988SOL     OW26802   4.280   7.318   3.078
74988SOL    HW126803   4.256   7.232   3.043
74988SOL    HW226804   4.218   7.334   3.148
74989SOL     OW26805  11.858   6.563  12.982
74989SOL    HW126806  11.834   6.498  12.916
74989SOL    HW226807  11.828   6.526  13.064
74990SOL     OW26808   1.215   5.330  11.771
74990SOL    HW126809   1.230   5.320  11.865
74990SOL    HW226810   1.163   5.254  11.747
74991SOL     OW26811  10.847  13.861   5.891
74991SOL    HW126812  10.805  13.776   5.905
74991SOL    HW226813  10.836  13.877   5.797
74992SOL     OW26814   0.338   6.377  12.332
74992SOL    HW126815   0.323   6.303  12.273
74992SOL    HW226816   0.259   6.379  12.387
74993SOL     OW26817   9.699   1.377   2.409
74993SOL    HW126818   9.606   1.353   2.414
74993SOL    HW226819   9.703   1.465   2.448
74994SOL     OW26820  11.276  11.926  14.766
74994SOL    HW126821  11.320  11.842  14.779
74994SOL    HW226822  11.339  11.991  14.798
74995SOL     OW26823   0.522   2.150   3.784
74995SOL    HW126824   0.457   2.201   3.736
74995SOL    HW226825   0.549   2.207   3.856
74996SOL     OW26826   6.668   6.454   9.196
74996SOL    HW126827   6.634   6.434   9.283
74996SOL    HW226828   6.599   6.428   9.136
74997SOL     OW26829   0.908   2.708   5.572
74997SOL    HW126830   0.834   2.725   5.630
74997SOL    HW226831   0.946   2.627   5.604
74998SOL     OW26832   9.410   0.301   8.557
74998SOL    HW126833   9.386   0.337   8.642
74998SOL    HW226834   9.328   0.270   8.520
74999SOL     OW26835  10.705   2.816  11.672
74999SOL    HW126836  10.677   2.729  11.643
74999SOL    HW226837  10.638   2.876  11.637
75000SOL     OW26838   3.780  11.785   9.489
75000SOL    HW126839   3.775  11.862   9.433
75000SOL    HW226840   3.712  11.798   9.555
75001SOL     OW26841  13.008   8.625  12.892
75001SOL    HW126842  13.054   8.707  12.911
75001SOL    HW226843  12.961   8.643  12.810
75002SOL     OW26844   5.662  10.196   6.579
75002SOL    HW126845   5.587  10.151   6.541
75002SOL    HW226846   5.725  10.126   6.600
75003SOL     OW26847   0.722   0.192  12.038
75003SOL    HW126848   0.777   0.229  11.969
75003SOL    HW226849   0.704   0.103  12.010
75004SOL     OW26850   4.835   9.263   7.246
75004SOL    HW126851   4.804   9.251   7.156
75004SOL    HW226852   4.816   9.179   7.289
75005SOL     OW26853   3.852   1.664   2.827
75005SOL    HW126854   3.813   1.704   2.749
75005SOL    HW226855   3.930   1.618   2.794
75006SOL     OW26856  12.956   6.126   0.394
75006SOL    HW126857  12.903   6.151   0.470
75006SOL    HW226858  12.986   6.037   0.413
75007SOL     OW26859   8.493   7.660   3.748
75007SOL    HW126860   8.582   7.647   3.780
75007SOL    HW226861   8.504   7.706   3.665
75008SOL     OW26862   5.407   2.062  11.101
75008SOL    HW126863   5.465   2.024  11.035
75008SOL    HW226864   5.424   2.010  11.180
75009SOL     OW26865  10.410   5.988  13.084
75009SOL    HW126866  10.414   5.900  13.123
75009SOL    HW226867  10.486   5.991  13.025
75010SOL     OW26868   6.635  13.690  11.169
75010SOL    HW126869   6.653  13.607  11.127
75010SOL    HW226870   6.549  13.678  11.210
75011SOL     OW26871   5.815   1.565   2.920
75011SOL    HW126872   5.735   1.555   2.868
75011SOL    HW226873   5.788   1.549   3.010
75012SOL     OW26874   4.383   8.941  12.296
75012SOL    HW126875   4.335   8.881  12.353
75012SOL    HW226876   4.315   8.986  12.246
75013SOL     OW26877  13.995  14.664  10.634
75013SOL    HW126878  14.077  14.705  10.659
75013SOL    HW226879  14.017  14.610  10.558
75014SOL     OW26880   1.076  14.749  10.229
75014SOL    HW126881   1.020  14.675  10.249
75014SOL    HW226882   1.150  14.711  10.181
75015SOL     OW26883   8.265   6.351  10.086
75015SOL    HW126884   8.186   6.400  10.108
75015SOL    HW226885   8.336   6.414  10.099
75016SOL     OW26886   6.735   9.762   6.048
75016SOL    HW126887   6.670   9.759   6.118
75016SOL    HW226888   6.816   9.787   6.093
75017SOL     OW26889   3.590   8.537   1.118
75017SOL    HW126890   3.631   8.621   1.098
75017SOL    HW226891   3.592   8.532   1.214
75018SOL     OW26892  10.476  14.591   1.679
75018SOL    HW126893  10.431  14.618   1.599
75018SOL    HW226894  10.419  14.526   1.718
75019SOL     OW26895   2.686   4.828   0.487
75019SOL    HW126896   2.759   4.770   0.507
75019SOL    HW226897   2.726   4.900   0.438
75020SOL     OW26898   0.766   8.443  10.476
75020SOL    HW126899   0.681   8.400  10.485
75020SOL    HW226900   0.827   8.385  10.521
75021SOL     OW26901   5.911   3.678  11.230
75021SOL    HW126902   5.825   3.685  11.188
75021SOL    HW226903   5.897   3.709  11.319
75022SOL     OW26904   2.177   3.611   1.740
75022SOL    HW126905   2.120   3.681   1.707
75022SOL    HW226906   2.263   3.651   1.746
75023SOL     OW26907   1.693  14.681   9.364
75023SOL    HW126908   1.776  14.728   9.354
75023SOL    HW226909   1.686  14.626   9.286
75024SOL     OW26910  10.404  13.060   8.147
75024SOL    HW126911  10.444  13.001   8.211
75024SOL    HW226912  10.478  13.110   8.112
75025SOL     OW26913  10.690   2.652  13.992
75025SOL    HW126914  10.704   2.582  13.928
75025SOL    HW226915  10.616   2.623  14.044
75026SOL     OW26916   6.513  13.776  10.289
75026SOL    HW126917   6.525  13.712  10.219
75026SOL    HW226918   6.486  13.856  10.244
75027SOL     OW26919   4.074  10.129  13.827
75027SOL    HW126920   4.029  10.141  13.743
75027SOL    HW226921   4.106  10.039  13.824
75028SOL     OW26922  12.034   7.703  12.468
75028SOL    HW126923  12.092   7.698  12.544
75028SOL    HW226924  11.946   7.700  12.504
75029SOL     OW26925  10.483   2.631  13.520
75029SOL    HW126926  10.560   2.681  13.492
75029SOL    HW226927  10.421   2.698  13.548
75030SOL     OW26928  13.427  13.112   3.947
75030SOL    HW126929  13.507  13.165   3.958
75030SOL    HW226930  13.451  13.026   3.982
75031SOL     OW26931   5.377   8.817   3.406
75031SOL    HW126932   5.308   8.771   3.454
75031SOL    HW226933   5.425   8.747   3.362
75032SOL     OW26934  11.180   5.224   3.171
75032SOL    HW126935  11.177   5.320   3.177
75032SOL    HW226936  11.204   5.207   3.080
75033SOL     OW26937   1.402   1.100   3.480
75033SOL    HW126938   1.406   1.067   3.390
75033SOL    HW226939   1.445   1.185   3.477
75034SOL     OW26940   6.489  10.805   0.405
75034SOL    HW126941   6.507  10.853   0.486
75034SOL    HW226942   6.574  10.793   0.364
75035SOL     OW26943   0.212   3.059   3.226
75035SOL    HW126944   0.252   2.991   3.280
75035SOL    HW226945   0.234   3.141   3.270
75036SOL     OW26946   0.724  11.145   1.324
75036SOL    HW126947   0.697  11.072   1.379
75036SOL    HW226948   0.676  11.220   1.357
75037SOL     OW26949   5.522  14.754  10.398
75037SOL    HW126950   5.480  14.838  10.378
75037SOL    HW226951   5.517  14.705  10.317
75038SOL     OW26952   6.282   6.119  10.392
75038SOL    HW126953   6.285   6.025  10.372
75038SOL    HW226954   6.255   6.160  10.310
75039SOL     OW26955   5.729  10.849   0.800
75039SOL    HW126956   5.660  10.791   0.832
75039SOL    HW226957   5.809  10.816   0.840
75040SOL     OW26958  12.539   8.475   5.057
75040SOL    HW126959  12.478   8.401   5.062
75040SOL    HW226960  12.513   8.532   5.130
75041SOL     OW26961   2.820   4.099   0.844
75041SOL    HW126962   2.882   4.125   0.775
75041SOL    HW226963   2.791   4.012   0.819
75042SOL     OW26964   9.689   2.677   8.250
75042SOL    HW126965   9.626   2.664   8.179
75042SOL    HW226966   9.650   2.745   8.305
75043SOL     OW26967   7.914   2.542   2.864
75043SOL    HW126968   7.905   2.577   2.953
75043SOL    HW226969   7.868   2.605   2.809
75044SOL     OW26970  12.520   4.237   0.365
75044SOL    HW126971  12.444   4.280   0.326
75044SOL    HW226972  12.589   4.247   0.299
75045SOL     OW26973  13.430   0.210  10.019
75045SOL    HW126974  13.513   0.241   9.983
75045SOL    HW226975  13.453   0.171  10.103
75046SOL     OW26976   8.195   2.738   3.908
75046SOL    HW126977   8.173   2.669   3.970
75046SOL    HW226978   8.118   2.794   3.904
75047SOL     OW26979   0.411   7.039   0.948
75047SOL    HW126980   0.326   7.017   0.911
75047SOL    HW226981   0.391   7.101   1.018
75048SOL     OW26982   6.783   0.715  10.125
75048SOL    HW126983   6.873   0.716  10.094
75048SOL    HW226984   6.736   0.659  10.063
75049SOL     OW26985   3.964  12.047   2.070
75049SOL    HW126986   3.893  11.983   2.066
75049SOL    HW226987   4.024  12.013   2.136
75050SOL     OW26988  13.557   5.322   5.910
75050SOL    HW126989  13.505   5.263   5.965
75050SOL    HW226990  13.648   5.296   5.925
75051SOL     OW26991   2.671  11.153   6.086
75051SOL    HW126992   2.696  11.178   5.997
75051SOL    HW226993   2.750  11.113   6.122
75052SOL     OW26994   7.678  12.115   6.226
75052SOL    HW126995   7.763  12.121   6.182
75052SOL    HW226996   7.654  12.022   6.220
75053SOL     OW26997  12.687  11.304   2.814
75053SOL    HW126998  12.702  11.398   2.820
75053SOL    HW226999  12.629  11.283   2.887
75054SOL     OW27000   8.285   2.230   2.678
75054SOL    HW127001   8.341   2.214   2.602
75054SOL    HW227002   8.241   2.312   2.658
75055SOL     OW27003   5.314   4.933   8.695
75055SOL    HW127004   5.356   4.933   8.780
75055SOL    HW227005   5.345   4.853   8.652
75056SOL     OW27006  13.407   5.408   5.696
75056SOL    HW127007  13.437   5.371   5.779
75056SOL    HW227008  13.477   5.468   5.669
75057SOL     OW27009   1.314   0.268  14.784
75057SOL    HW127010   1.375   0.342  14.789
75057SOL    HW227011   1.357   0.198  14.833
75058SOL     OW27012   3.541   4.125   0.843
75058SOL    HW127013   3.508   4.044   0.882
75058SOL    HW227014   3.606   4.157   0.906
75059SOL     OW27015   8.842   7.315  13.415
75059SOL    HW127016   8.839   7.221  13.432
75059SOL    HW227017   8.843   7.356  13.501
75060SOL     OW27018   7.698  11.079  11.787
75060SOL    HW127019   7.670  10.988  11.798
75060SOL    HW227020   7.616  11.129  11.784
75061SOL     OW27021   4.647   4.907   7.087
75061SOL    HW127022   4.614   4.914   6.998
75061SOL    HW227023   4.591   4.842   7.129
75062SOL     OW27024   6.164   0.813  10.447
75062SOL    HW127025   6.146   0.866  10.369
75062SOL    HW227026   6.088   0.828  10.504
75063SOL     OW27027   1.554   1.333   2.967
75063SOL    HW127028   1.550   1.382   2.885
75063SOL    HW227029   1.648   1.326   2.986
75064SOL     OW27030  12.268   1.617   5.045
75064SOL    HW127031  12.321   1.598   5.122
75064SOL    HW227032  12.230   1.703   5.062
75065SOL     OW27033  13.688   8.651   0.076
75065SOL    HW127034  13.631   8.594   0.127
75065SOL    HW227035  13.668   8.629  14.861
75066SOL     OW27036   3.222  10.951   3.922
75066SOL    HW127037   3.254  10.898   3.995
75066SOL    HW227038   3.300  10.974   3.873
75067SOL     OW27039   1.206   0.172   5.161
75067SOL    HW127040   1.244   0.159   5.249
75067SOL    HW227041   1.130   0.115   5.160
75068SOL     OW27042  10.307   0.130  14.468
75068SOL    HW127043  10.229   0.075  14.464
75068SOL    HW227044  10.283   0.202  14.527
75069SOL     OW27045   8.795   8.542  11.765
75069SOL    HW127046   8.848   8.618  11.739
75069SOL    HW227047   8.729   8.535  11.697
75070SOL     OW27048   1.570   0.203   0.406
75070SOL    HW127049   1.496   0.143   0.395
75070SOL    HW227050   1.580   0.211   0.500
75071SOL     OW27051   7.155   2.632   3.288
75071SOL    HW127052   7.162   2.715   3.242
75071SOL    HW227053   7.241   2.592   3.279
75072SOL     OW27054   9.634   0.777   5.505
75072SOL    HW127055   9.676   0.830   5.572
75072SOL    HW227056   9.695   0.781   5.431
75073SOL     OW27057   4.848   4.763  12.635
75073SOL    HW127058   4.790   4.699  12.677
75073SOL    HW227059   4.904   4.711  12.578
75074SOL     OW27060   3.987   3.424  10.479
75074SOL    HW127061   3.978   3.470  10.562
75074SOL    HW227062   4.075   3.387  10.481
75075SOL     OW27063   2.513   1.479   3.955
75075SOL    HW127064   2.496   1.471   4.049
75075SOL    HW227065   2.426   1.476   3.915
75076SOL     OW27066  11.866   6.684   2.164
75076SOL    HW127067  11.806   6.620   2.124
75076SOL    HW227068  11.906   6.729   2.089
75077SOL     OW27069   7.335   9.662   2.516
75077SOL    HW127070   7.403   9.700   2.460
75077SOL    HW227071   7.355   9.568   2.517
75078SOL     OW27072  11.568  12.604   1.646
75078SOL    HW127073  11.491  12.560   1.682
75078SOL    HW227074  11.620  12.629   1.722
75079SOL     OW27075  12.944   6.098   7.863
75079SOL    HW127076  13.022   6.154   7.858
75079SOL    HW227077  12.972   6.023   7.916
75080SOL     OW27078   4.458  14.659  10.452
75080SOL    HW127079   4.503  14.701  10.525
75080SOL    HW227080   4.370  14.698  10.452
75081SOL     OW27081   5.080   3.200  13.297
75081SOL    HW127082   5.093   3.130  13.233
75081SOL    HW227083   5.007   3.169  13.351
75082SOL     OW27084  12.384   9.610  10.080
75082SOL    HW127085  12.372   9.548  10.008
75082SOL    HW227086  12.437   9.562  10.144
75083SOL     OW27087   6.834   7.957  13.762
75083SOL    HW127088   6.888   8.009  13.822
75083SOL    HW227089   6.744   7.972  13.792
75084SOL     OW27090  13.576  11.996  10.912
75084SOL    HW127091  13.497  11.997  10.966
75084SOL    HW227092  13.544  11.991  10.822
75085SOL     OW27093   7.052   0.237  11.055
75085SOL    HW127094   7.130   0.280  11.091
75085SOL    HW227095   6.980   0.271  11.109
75086SOL     OW27096   0.790   9.541   7.175
75086SOL    HW127097   0.757   9.480   7.109
75086SOL    HW227098   0.878   9.563   7.146
75087SOL     OW27099   0.607  11.297   9.093
75087SOL    HW127100   0.558  11.313   9.174
75087SOL    HW227101   0.685  11.353   9.100
75088SOL     OW27102   9.323   2.425   9.343
75088SOL    HW127103   9.363   2.496   9.393
75088SOL    HW227104   9.270   2.378   9.407
75089SOL     OW27105   6.236   3.541  10.219
75089SOL    HW127106   6.216   3.615  10.275
75089SOL    HW227107   6.319   3.563  10.178
75090SOL     OW27108   2.947   4.402   3.007
75090SOL    HW127109   2.861   4.437   2.983
75090SOL    HW227110   2.939   4.379   3.100
75091SOL     OW27111  11.396  14.587  13.637
75091SOL    HW127112  11.364  14.556  13.721
75091SOL    HW227113  11.322  14.576  13.577
75092SOL     OW27114  11.368   9.469  12.833
75092SOL    HW127115  11.413   9.482  12.917
75092SOL    HW227116  11.309   9.544  12.827
75093SOL     OW27117   4.800   1.370   0.447
75093SOL    HW127118   4.847   1.436   0.497
75093SOL    HW227119   4.715   1.362   0.491
75094SOL     OW27120  10.977  13.178   2.633
75094SOL    HW127121  10.993  13.208   2.722
75094SOL    HW227122  10.910  13.237   2.599
75095SOL     OW27123  13.693   7.197   1.018
75095SOL    HW127124  13.664   7.288   1.025
75095SOL    HW227125  13.619   7.146   1.051
75096SOL     OW27126  10.671  13.646   8.299
75096SOL    HW127127  10.698  13.712   8.236
75096SOL    HW227128  10.589  13.680   8.335
75097SOL     OW27129  12.924   1.966   9.076
75097SOL    HW127130  12.835   1.985   9.048
75097SOL    HW227131  12.923   1.980   9.170
75098SOL     OW27132   4.253   1.181   2.217
75098SOL    HW127133   4.348   1.175   2.225
75098SOL    HW227134   4.236   1.269   2.185
75099SOL     OW27135   5.122   8.652   1.677
75099SOL    HW127136   5.141   8.720   1.742
75099SOL    HW227137   5.165   8.682   1.598
75100SOL     OW27138  11.571   2.594   0.882
75100SOL    HW127139  11.549   2.684   0.860
75100SOL    HW227140  11.596   2.596   0.974
75101SOL     OW27141   7.701  14.773   4.764
75101SOL    HW127142   7.761  14.708   4.727
75101SOL    HW227143   7.727  14.781   4.855
75102SOL     OW27144   3.388   5.235  14.260
75102SOL    HW127145   3.396   5.141  14.247
75102SOL    HW227146   3.385   5.271  14.171
75103SOL     OW27147   9.655   6.762   3.230
75103SOL    HW127148   9.620   6.782   3.144
75103SOL    HW227149   9.693   6.674   3.222
75104SOL     OW27150   5.362  14.568   9.497
75104SOL    HW127151   5.401  14.562   9.410
75104SOL    HW227152   5.432  14.600   9.553
75105SOL     OW27153   0.466   1.578  10.122
75105SOL    HW127154   0.470   1.658  10.173
75105SOL    HW227155   0.388   1.588  10.067
75106SOL     OW27156  11.373   9.762  12.988
75106SOL    HW127157  11.414   9.847  13.005
75106SOL    HW227158  11.356   9.762  12.894
75107SOL     OW27159   2.664   5.080  11.694
75107SOL    HW127160   2.642   5.148  11.631
75107SOL    HW227161   2.627   5.000  11.657
75108SOL     OW27162  10.598   6.472   2.862
75108SOL    HW127163  10.598   6.480   2.767
75108SOL    HW227164  10.657   6.398   2.880
75109SOL     OW27165   1.071   4.358  12.453
75109SOL    HW127166   0.988   4.311  12.446
75109SOL    HW227167   1.079   4.405  12.371
75110SOL     OW27168  13.095   7.592   2.498
75110SOL    HW127169  13.009   7.553   2.516
75110SOL    HW227170  13.116   7.563   2.409
75111SOL     OW27171   3.000   0.815   0.263
75111SOL    HW127172   2.912   0.831   0.229
75111SOL    HW227173   3.058   0.849   0.194
75112SOL     OW27174  14.817   9.771  11.491
75112SOL    HW127175   0.012   9.707  11.491
75112SOL    HW227176  14.860   9.855  11.503
75113SOL     OW27177  12.330  14.634   2.504
75113SOL    HW127178  12.333  14.728   2.483
75113SOL    HW227179  12.239  14.618   2.528
75114SOL     OW27180   1.990  14.819   2.563
75114SOL    HW127181   2.082  14.836   2.583
75114SOL    HW227182   1.992  14.774   2.478
75115SOL     OW27183   8.501   8.193   5.329
75115SOL    HW127184   8.569   8.152   5.276
75115SOL    HW227185   8.420   8.151   5.300
75116SOL     OW27186   3.999  10.820   5.319
75116SOL    HW127187   4.020  10.850   5.407
75116SOL    HW227188   4.050  10.740   5.308
75117SOL     OW27189   9.486  12.601   2.411
75117SOL    HW127190   9.472  12.608   2.317
75117SOL    HW227191   9.399  12.613   2.450
75118SOL     OW27192   2.573   3.280   7.593
75118SOL    HW127193   2.575   3.282   7.498
75118SOL    HW227194   2.585   3.188   7.616
75119SOL     OW27195  13.086   6.401   6.438
75119SOL    HW127196  13.169   6.355   6.431
75119SOL    HW227197  13.070   6.406   6.533
75120SOL     OW27198   4.607   5.670  13.747
75120SOL    HW127199   4.571   5.619  13.820
75120SOL    HW227200   4.531   5.703  13.700
75121SOL     OW27201   4.691   3.559   3.627
75121SOL    HW127202   4.627   3.508   3.578
75121SOL    HW227203   4.746   3.493   3.670
75122SOL     OW27204   6.183   1.148  11.375
75122SOL    HW127205   6.139   1.097  11.443
75122SOL    HW227206   6.236   1.084  11.328
75123SOL     OW27207   5.939   2.722   5.919
75123SOL    HW127208   5.958   2.796   5.977
75123SOL    HW227209   5.898   2.657   5.976
75124SOL     OW27210   1.526   5.154   1.413
75124SOL    HW127211   1.601   5.183   1.360
75124SOL    HW227212   1.536   5.201   1.496
75125SOL     OW27213   9.843  13.620  13.025
75125SOL    HW127214   9.906  13.668  13.079
75125SOL    HW227215   9.763  13.673  13.030
75126SOL     OW27216   3.004   7.649  11.395
75126SOL    HW127217   3.098   7.661  11.393
75126SOL    HW227218   2.967   7.737  11.391
75127SOL     OW27219   2.125   1.266   4.626
75127SOL    HW127220   2.205   1.314   4.602
75127SOL    HW227221   2.153   1.205   4.693
75128SOL     OW27222   8.558  12.605  12.955
75128SOL    HW127223   8.600  12.533  12.908
75128SOL    HW227224   8.576  12.587  13.047
75129SOL     OW27225   0.333   4.614   7.485
75129SOL    HW127226   0.393   4.655   7.547
75129SOL    HW227227   0.367   4.525   7.474
75130SOL     OW27228   4.570  12.980   7.344
75130SOL    HW127229   4.629  13.030   7.288
75130SOL    HW227230   4.543  12.905   7.290
75131SOL     OW27231   4.871  11.401   2.475
75131SOL    HW127232   4.888  11.308   2.486
75131SOL    HW227233   4.815  11.425   2.548
75132SOL     OW27234   3.494   7.518  12.429
75132SOL    HW127235   3.472   7.603  12.391
75132SOL    HW227236   3.590   7.518  12.434
75133SOL     OW27237   7.501   0.691   1.875
75133SOL    HW127238   7.427   0.740   1.910
75133SOL    HW227239   7.481   0.678   1.783
75134SOL     OW27240   9.847  13.703   2.883
75134SOL    HW127241   9.928  13.711   2.834
75134SOL    HW227242   9.864  13.632   2.945
75135SOL     OW27243   5.500  14.406  12.673
75135SOL    HW127244   5.446  14.344  12.723
75135SOL    HW227245   5.579  14.416  12.726
75136SOL     OW27246   5.229   5.626   8.922
75136SOL    HW127247   5.315   5.660   8.947
75136SOL    HW227248   5.171   5.653   8.993
75137SOL     OW27249   5.467   4.726   4.243
75137SOL    HW127250   5.446   4.660   4.177
75137SOL    HW227251   5.398   4.792   4.234
75138SOL     OW27252   0.631  12.964  13.353
75138SOL    HW127253   0.560  12.912  13.316
75138SOL    HW227254   0.709  12.935  13.306
75139SOL     OW27255  13.963   0.265   9.081
75139SOL    HW127256  13.937   0.266   9.173
75139SOL    HW227257  13.994   0.355   9.064
75140SOL     OW27258   9.058   3.207  12.559
75140SOL    HW127259   9.058   3.182  12.651
75140SOL    HW227260   8.970   3.241  12.543
75141SOL     OW27261   8.331  10.459   3.494
75141SOL    HW127262   8.334  10.391   3.561
75141SOL    HW227263   8.414  10.452   3.448
75142SOL     OW27264   9.995  13.934   1.963
75142SOL    HW127265   9.955  13.892   2.039
75142SOL    HW227266  10.052  14.001   1.999
75143SOL     OW27267  10.864   2.191  12.446
75143SOL    HW127268  10.788   2.246  12.428
75143SOL    HW227269  10.835   2.102  12.425
75144SOL     OW27270   4.497  10.250   2.523
75144SOL    HW127271   4.569  10.217   2.576
75144SOL    HW227272   4.434  10.178   2.521
75145SOL     OW27273   6.475  12.941  10.004
75145SOL    HW127274   6.478  12.949  10.099
75145SOL    HW227275   6.436  12.855   9.988
75146SOL     OW27276   2.762   1.383  14.046
75146SOL    HW127277   2.725   1.373  14.134
75146SOL    HW227278   2.842   1.330  14.049
75147SOL     OW27279  11.739  12.421   7.881
75147SOL    HW127280  11.703  12.408   7.793
75147SOL    HW227281  11.671  12.389   7.940
75148SOL     OW27282  11.981   5.196   1.333
75148SOL    HW127283  11.987   5.141   1.254
75148SOL    HW227284  11.888   5.215   1.342
75149SOL     OW27285   1.043   9.793   1.249
75149SOL    HW127286   1.045   9.748   1.165
75149SOL    HW227287   1.105   9.866   1.240
75150SOL     OW27288  13.738   1.049   2.204
75150SOL    HW127289  13.803   1.060   2.135
75150SOL    HW227290  13.739   1.132   2.252
75151SOL     OW27291   6.558   1.371   5.391
75151SOL    HW127292   6.577   1.443   5.452
75151SOL    HW227293   6.625   1.379   5.323
75152SOL     OW27294  11.660   6.302   5.088
75152SOL    HW127295  11.715   6.311   5.010
75152SOL    HW227296  11.697   6.226   5.134
75153SOL     OW27297  11.555   6.155   5.789
75153SOL    HW127298  11.603   6.186   5.866
75153SOL    HW227299  11.597   6.198   5.715
75154SOL     OW27300   0.286   6.485   6.974
75154SOL    HW127301   0.279   6.580   6.985
75154SOL    HW227302   0.203   6.451   7.007
75155SOL     OW27303   1.838  13.713   7.190
75155SOL    HW127304   1.837  13.739   7.098
75155SOL    HW227305   1.929  13.692   7.209
75156SOL     OW27306   4.140   0.426  10.920
75156SOL    HW127307   4.080   0.356  10.892
75156SOL    HW227308   4.206   0.429  10.851
75157SOL     OW27309   6.494  14.832   7.439
75157SOL    HW127310   6.461  14.847   7.350
75157SOL    HW227311   6.465   0.032   7.489
75158SOL     OW27312  11.206  10.147   4.124
75158SOL    HW127313  11.173  10.100   4.200
75158SOL    HW227314  11.136  10.209   4.102
75159SOL     OW27315  12.395   8.814   3.750
75159SOL    HW127316  12.301   8.795   3.742
75159SOL    HW227317  12.404   8.855   3.836
75160SOL     OW27318   4.511  14.801   8.398
75160SOL    HW127319   4.524  14.804   8.304
75160SOL    HW227320   4.424  14.763   8.409
75161SOL     OW27321   9.207  11.118   5.095
75161SOL    HW127322   9.232  11.076   5.013
75161SOL    HW227323   9.113  11.133   5.087
75162SOL     OW27324   1.221   8.487  12.827
75162SOL    HW127325   1.194   8.572  12.794
75162SOL    HW227326   1.307   8.472  12.789
75163SOL     OW27327   9.959   6.776   0.880
75163SOL    HW127328   9.985   6.697   0.928
75163SOL    HW227329   9.910   6.743   0.805
75164SOL     OW27330   5.214   9.955  10.254
75164SOL    HW127331   5.285   9.932  10.314
75164SOL    HW227332   5.197  10.047  10.271
75165SOL     OW27333   2.472  11.394   1.755
75165SOL    HW127334   2.428  11.438   1.828
75165SOL    HW227335   2.563  11.383   1.785
75166SOL     OW27336   9.606   7.022   7.760
75166SOL    HW127337   9.555   7.071   7.825
75166SOL    HW227338   9.637   6.945   7.806
75167SOL     OW27339   0.391   5.006  10.497
75167SOL    HW127340   0.334   4.999  10.574
75167SOL    HW227341   0.461   4.943  10.513
75168SOL     OW27342  10.617   6.568   1.318
75168SOL    HW127343  10.648   6.477   1.320
75168SOL    HW227344  10.697   6.621   1.321
75169SOL     OW27345   7.093   1.242   4.894
75169SOL    HW127346   7.158   1.208   4.955
75169SOL    HW227347   7.009   1.210   4.927
75170SOL     OW27348  12.233  12.274   2.595
75170SOL    HW127349  12.195  12.307   2.513
75170SOL    HW227350  12.326  12.265   2.576
75171SOL     OW27351   3.530   6.921   3.162
75171SOL    HW127352   3.614   6.966   3.171
75171SOL    HW227353   3.553   6.828   3.156
75172SOL     OW27354   6.178   5.014  11.292
75172SOL    HW127355   6.187   4.975  11.379
75172SOL    HW227356   6.120   4.953  11.245
75173SOL     OW27357  14.754   7.058   4.431
75173SOL    HW127358  14.723   7.109   4.506
75173SOL    HW227359  14.709   6.974   4.439
75174SOL     OW27360   0.852   7.040  12.987
75174SOL    HW127361   0.927   7.031  13.046
75174SOL    HW227362   0.786   6.981  13.023
75175SOL     OW27363   2.613  12.987   9.016
75175SOL    HW127364   2.558  13.053   8.974
75175SOL    HW227365   2.699  12.997   8.974
75176SOL     OW27366   0.681   4.218   2.965
75176SOL    HW127367   0.620   4.150   2.938
75176SOL    HW227368   0.665   4.290   2.903
75177SOL     OW27369  13.018   8.664  14.310
75177SOL    HW127370  12.980   8.723  14.376
75177SOL    HW227371  13.092   8.713  14.274
75178SOL     OW27372  10.991   2.628   3.068
75178SOL    HW127373  11.077   2.617   3.109
75178SOL    HW227374  11.009   2.677   2.987
75179SOL     OW27375   9.103  10.220  11.149
75179SOL    HW127376   9.098  10.304  11.194
75179SOL    HW227377   9.011  10.198  11.130
75180SOL     OW27378  10.487   4.923   7.478
75180SOL    HW127379  10.436   4.972   7.413
75180SOL    HW227380  10.445   4.837   7.481
75181SOL     OW27381  10.387   1.734   3.064
75181SOL    HW127382  10.459   1.716   3.125
75181SOL    HW227383  10.328   1.659   3.073
75182SOL     OW27384   9.354   8.079   1.356
75182SOL    HW127385   9.358   8.086   1.260
75182SOL    HW227386   9.290   8.147   1.381
75183SOL     OW27387   1.965   2.432  14.784
75183SOL    HW127388   2.006   2.505  14.737
75183SOL    HW227389   1.891   2.406  14.729
75184SOL     OW27390   9.897   9.398   1.982
75184SOL    HW127391   9.886   9.479   1.933
75184SOL    HW227392   9.963   9.349   1.932
75185SOL     OW27393   9.742   4.352  13.083
75185SOL    HW127394   9.648   4.342  13.068
75185SOL    HW227395   9.782   4.330  12.999
75186SOL     OW27396  10.430   6.894   1.043
75186SOL    HW127397  10.469   6.807   1.039
75186SOL    HW227398  10.337   6.878   1.057
75187SOL     OW27399   4.384   4.549   1.227
75187SOL    HW127400   4.298   4.543   1.269
75187SOL    HW227401   4.430   4.470   1.256
75188SOL     OW27402  14.349   4.119  13.700
75188SOL    HW127403  14.345   4.164  13.785
75188SOL    HW227404  14.391   4.181  13.641
75189SOL     OW27405   6.638  12.735   8.254
75189SOL    HW127406   6.729  12.761   8.238
75189SOL    HW227407   6.590  12.768   8.178
75190SOL     OW27408  13.081  13.200  14.715
75190SOL    HW127409  13.158  13.218  14.660
75190SOL    HW227410  13.012  13.254  14.679
75191SOL     OW27411  14.110   5.004  10.184
75191SOL    HW127412  14.020   4.971  10.183
75191SOL    HW227413  14.153   4.954  10.254
75192SOL     OW27414  14.574   9.671   9.791
75192SOL    HW127415  14.556   9.735   9.859
75192SOL    HW227416  14.496   9.615   9.790
75193SOL     OW27417   9.589  13.798   1.330
75193SOL    HW127418   9.669  13.768   1.288
75193SOL    HW227419   9.596  13.893   1.330
75194SOL     OW27420   8.868  13.130  12.306
75194SOL    HW127421   8.882  13.206  12.250
75194SOL    HW227422   8.858  13.166  12.394
75195SOL     OW27423  13.857   0.231  14.846
75195SOL    HW127424  13.898   0.316  14.829
75195SOL    HW227425  13.768   0.239  14.811
75196SOL     OW27426   6.824  13.944   6.827
75196SOL    HW127427   6.918  13.922   6.826
75196SOL    HW227428   6.810  13.989   6.744
75197SOL     OW27429   7.346   9.601   4.058
75197SOL    HW127430   7.415   9.548   4.018
75197SOL    HW227431   7.272   9.541   4.069
75198SOL     OW27432   7.917   2.871   5.098
75198SOL    HW127433   7.907   2.776   5.099
75198SOL    HW227434   7.997   2.887   5.149
75199SOL     OW27435  10.768  10.356  11.202
75199SOL    HW127436  10.800  10.441  11.234
75199SOL    HW227437  10.673  10.366  11.199
75200SOL     OW27438   3.659  13.331   6.982
75200SOL    HW127439   3.601  13.295   6.914
75200SOL    HW227440   3.748  13.313   6.950
75201SOL     OW27441   8.557  11.839  11.316
75201SOL    HW127442   8.504  11.871  11.243
75201SOL    HW227443   8.539  11.745  11.318
75202SOL     OW27444   1.106   7.510   5.912
75202SOL    HW127445   1.190   7.551   5.891
75202SOL    HW227446   1.044   7.552   5.854
75203SOL     OW27447  14.441   7.388   5.078
75203SOL    HW127448  14.518   7.360   5.127
75203SOL    HW227449  14.376   7.410   5.146
75204SOL     OW27450   5.076   0.127  10.410
75204SOL    HW127451   5.133   0.171  10.473
75204SOL    HW227452   5.119   0.042  10.394
75205SOL     OW27453   3.224  12.946   1.519
75205SOL    HW127454   3.220  13.013   1.451
75205SOL    HW227455   3.293  12.886   1.489
75206SOL     OW27456   7.475  12.987   7.919
75206SOL    HW127457   7.473  12.892   7.922
75206SOL    HW227458   7.535  13.012   7.990
75207SOL     OW27459  11.830   7.777  11.755
75207SOL    HW127460  11.921   7.747  11.750
75207SOL    HW227461  11.812   7.786  11.849
75208SOL     OW27462  13.420  11.647  12.270
75208SOL    HW127463  13.388  11.728  12.232
75208SOL    HW227464  13.385  11.646  12.358
75209SOL     OW27465   3.626  11.763  13.029
75209SOL    HW127466   3.694  11.784  13.093
75209SOL    HW227467   3.673  11.751  12.947
75210SOL     OW27468   6.730   5.030   9.440
75210SOL    HW127469   6.734   5.041   9.535
75210SOL    HW227470   6.727   5.119   9.405
75211SOL     OW27471  11.177   0.127  10.470
75211SOL    HW127472  11.198   0.041  10.507
75211SOL    HW227473  11.116   0.166  10.533
75212SOL     OW27474   9.613  12.308   9.059
75212SOL    HW127475   9.534  12.350   9.026
75212SOL    HW227476   9.682  12.335   8.997
75213SOL     OW27477  14.474   3.099   4.198
75213SOL    HW127478  14.533   3.168   4.226
75213SOL    HW227479  14.480   3.100   4.102
75214SOL     OW27480   7.392   1.200   8.496
75214SOL    HW127481   7.371   1.181   8.588
75214SOL    HW227482   7.402   1.295   8.493
75215SOL     OW27483  12.890   0.492   8.092
75215SOL    HW127484  12.858   0.431   8.158
75215SOL    HW227485  12.968   0.531   8.132
75216SOL     OW27486   4.578   1.398   5.596
75216SOL    HW127487   4.570   1.316   5.645
75216SOL    HW227488   4.648   1.446   5.641
75217SOL     OW27489  10.570  11.502  14.267
75217SOL    HW127490  10.634  11.532  14.331
75217SOL    HW227491  10.612  11.427  14.225
75218SOL     OW27492  14.809  10.565  14.157
75218SOL    HW127493  14.744  10.523  14.213
75218SOL    HW227494   0.013  10.566  14.209
75219SOL     OW27495   4.646   8.374   7.529
75219SOL    HW127496   4.734   8.369   7.491
75219SOL    HW227497   4.603   8.293   7.503
75220SOL     OW27498   7.832   5.432   8.933
75220SOL    HW127499   7.899   5.483   8.886
75220SOL    HW227500   7.805   5.365   8.871
75221SOL     OW27501  14.016   0.083  13.198
75221SOL    HW127502  13.976   0.123  13.275
75221SOL    HW227503  14.110   0.087  13.215
75222SOL     OW27504   7.912  13.270   2.238
75222SOL    HW127505   7.952  13.347   2.199
75222SOL    HW227506   7.966  13.196   2.210
75223SOL     OW27507   9.238   4.790   2.759
75223SOL    HW127508   9.314   4.767   2.812
75223SOL    HW227509   9.194   4.706   2.743
75224SOL     OW27510   3.927   9.945  11.464
75224SOL    HW127511   3.991   9.932  11.534
75224SOL    HW227512   3.880  10.025  11.489
75225SOL     OW27513   3.514   7.840   1.872
75225SOL    HW127514   3.577   7.864   1.941
75225SOL    HW227515   3.565   7.790   1.809
75226SOL     OW27516   1.168   2.862   8.605
75226SOL    HW127517   1.163   2.769   8.627
75226SOL    HW227518   1.243   2.868   8.546
75227SOL     OW27519  14.470   9.983   2.720
75227SOL    HW127520  14.442  10.048   2.655
75227SOL    HW227521  14.526  10.032   2.781
75228SOL     OW27522   8.989  11.097  11.049
75228SOL    HW127523   8.962  11.021  11.100
75228SOL    HW227524   9.073  11.072  11.011
75229SOL     OW27525   7.398  13.002   5.380
75229SOL    HW127526   7.436  13.025   5.295
75229SOL    HW227527   7.397  13.084   5.428
75230SOL     OW27528   8.445   8.066   7.589
75230SOL    HW127529   8.473   8.154   7.564
75230SOL    HW227530   8.493   8.008   7.530
75231SOL     OW27531   2.992   0.548  13.724
75231SOL    HW127532   2.967   0.586  13.809
75231SOL    HW227533   3.037   0.619  13.679
75232SOL     OW27534  13.468   1.575   8.272
75232SOL    HW127535  13.541   1.610   8.322
75232SOL    HW227536  13.391   1.594   8.325
75233SOL     OW27537   2.596  12.736   0.747
75233SOL    HW127538   2.605  12.732   0.842
75233SOL    HW227539   2.599  12.829   0.726
75234SOL     OW27540   2.375   4.537  10.978
75234SOL    HW127541   2.372   4.626  10.944
75234SOL    HW227542   2.455   4.534  11.031
75235SOL     OW27543  13.676   5.159  14.364
75235SOL    HW127544  13.702   5.069  14.346
75235SOL    HW227545  13.581   5.159  14.355
75236SOL     OW27546  12.013  13.432   7.005
75236SOL    HW127547  12.092  13.401   7.049
75236SOL    HW227548  12.002  13.522   7.036
75237SOL     OW27549   1.075   4.761  12.988
75237SOL    HW127550   1.063   4.676  13.032
75237SOL    HW227551   1.110   4.738  12.902
75238SOL     OW27552  12.721   5.536   0.189
75238SOL    HW127553  12.637   5.579   0.205
75238SOL    HW227554  12.733   5.542   0.094
75239SOL     OW27555   8.528   8.676   7.992
75239SOL    HW127556   8.621   8.671   8.014
75239SOL    HW227557   8.526   8.672   7.896
75240SOL     OW27558   3.522   3.417  14.174
75240SOL    HW127559   3.445   3.385  14.126
75240SOL    HW227560   3.557   3.340  14.218
75241SOL     OW27561   0.939   6.053   6.739
75241SOL    HW127562   0.974   6.140   6.759
75241SOL    HW227563   0.847   6.069   6.715
75242SOL     OW27564   8.886   7.972   2.819
75242SOL    HW127565   8.926   7.915   2.885
75242SOL    HW227566   8.810   7.922   2.788
75243SOL     OW27567  10.727   9.450   5.399
75243SOL    HW127568  10.794   9.512   5.372
75243SOL    HW227569  10.751   9.426   5.488
75244SOL     OW27570   4.145  11.599  11.856
75244SOL    HW127571   4.071  11.559  11.811
75244SOL    HW227572   4.186  11.527  11.904
75245SOL     OW27573   4.240  14.836   3.870
75245SOL    HW127574   4.161  14.849   3.923
75245SOL    HW227575   4.217  14.872   3.784
75246SOL     OW27576   5.752   1.610   7.060
75246SOL    HW127577   5.685   1.678   7.061
75246SOL    HW227578   5.812   1.637   6.991
75247SOL     OW27579   4.789   5.615   9.255
75247SOL    HW127580   4.779   5.650   9.343
75247SOL    HW227581   4.771   5.521   9.265
75248SOL     OW27582   5.023   7.090   5.164
75248SOL    HW127583   5.108   7.075   5.123
75248SOL    HW227584   4.971   7.134   5.096
75249SOL     OW27585   5.200   1.205   4.010
75249SOL    HW127586   5.162   1.219   4.097
75249SOL    HW227587   5.255   1.282   3.996
75250SOL     OW27588  14.469   0.558  11.892
75250SOL    HW127589  14.382   0.527  11.867
75250SOL    HW227590  14.529   0.511  11.833
75251SOL     OW27591   9.740  12.202   0.215
75251SOL    HW127592   9.822  12.203   0.166
75251SOL    HW227593   9.695  12.282   0.189
75252SOL     OW27594   6.647   1.807   9.728
75252SOL    HW127595   6.571   1.780   9.781
75252SOL    HW227596   6.660   1.735   9.667
75253SOL     OW27597   2.654  14.829   4.903
75253SOL    HW127598   2.677   0.019   4.968
75253SOL    HW227599   2.728  14.768   4.903
75254SOL     OW27600   4.321   0.449   5.522
75254SOL    HW127601   4.246   0.393   5.505
75254SOL    HW227602   4.396   0.390   5.518
75255SOL     OW27603   2.551  13.959   8.646
75255SOL    HW127604   2.500  13.983   8.723
75255SOL    HW227605   2.604  14.037   8.628
75256SOL     OW27606  10.222   0.419   2.187
75256SOL    HW127607  10.199   0.454   2.273
75256SOL    HW227608  10.174   0.474   2.125
75257SOL     OW27609  10.566   3.447   3.048
75257SOL    HW127610  10.477   3.450   3.013
75257SOL    HW227611  10.562   3.502   3.126
75258SOL     OW27612   1.352   2.124   9.864
75258SOL    HW127613   1.292   2.123   9.789
75258SOL    HW227614   1.409   2.049   9.850
75259SOL     OW27615  13.441  11.403   9.978
75259SOL    HW127616  13.395  11.487   9.979
75259SOL    HW227617  13.395  11.349  10.042
75260SOL     OW27618   3.327   1.728   7.841
75260SOL    HW127619   3.354   1.654   7.787
75260SOL    HW227620   3.254   1.767   7.793
75261SOL     OW27621   5.158  14.642   3.597
75261SOL    HW127622   5.143  14.676   3.508
75261SOL    HW227623   5.146  14.548   3.589
75262SOL     OW27624  10.964  11.755   5.565
75262SOL    HW127625  11.038  11.799   5.607
75262SOL    HW227626  10.922  11.823   5.513
75263SOL     OW27627   9.160   1.984  11.057
75263SOL    HW127628   9.235   1.983  11.116
75263SOL    HW227629   9.098   2.044  11.098
75264SOL     OW27630  10.238   7.478  13.118
75264SOL    HW127631  10.205   7.506  13.203
75264SOL    HW227632  10.332   7.494  13.122
75265SOL     OW27633   8.878  13.300   0.780
75265SOL    HW127634   8.960  13.349   0.778
75265SOL    HW227635   8.812  13.365   0.806
75266SOL     OW27636   5.329   1.872  13.508
75266SOL    HW127637   5.323   1.871  13.413
75266SOL    HW227638   5.294   1.787  13.535
75267SOL     OW27639   1.110  10.827  12.958
75267SOL    HW127640   1.039  10.846  12.897
75267SOL    HW227641   1.149  10.912  12.977
75268SOL     OW27642  10.857  11.952  14.483
75268SOL    HW127643  10.889  11.875  14.529
75268SOL    HW227644  10.869  12.024  14.545
75269SOL     OW27645   2.591  14.052  14.538
75269SOL    HW127646   2.666  14.102  14.507
75269SOL    HW227647   2.617  14.022  14.626
75270SOL     OW27648  13.306  12.199   0.706
75270SOL    HW127649  13.363  12.132   0.742
75270SOL    HW227650  13.236  12.208   0.770
75271SOL     OW27651  11.605  12.219   4.351
75271SOL    HW127652  11.537  12.221   4.284
75271SOL    HW227653  11.594  12.302   4.398
75272SOL     OW27654   9.607  11.573  10.942
75272SOL    HW127655   9.534  11.626  10.974
75272SOL    HW227656   9.685  11.626  10.958
75273SOL     OW27657  14.123   8.586   1.823
75273SOL    HW127658  14.030   8.578   1.845
75273SOL    HW227659  14.132   8.675   1.789
75274SOL     OW27660   0.510  11.195   5.376
75274SOL    HW127661   0.548  11.271   5.331
75274SOL    HW227662   0.580  11.162   5.432
75275SOL     OW27663   9.256   9.053   4.866
75275SOL    HW127664   9.327   9.043   4.803
75275SOL    HW227665   9.184   9.002   4.830
75276SOL     OW27666   3.604  11.608   3.327
75276SOL    HW127667   3.692  11.620   3.290
75276SOL    HW227668   3.618  11.610   3.422
75277SOL     OW27669  12.717   3.419  11.719
75277SOL    HW127670  12.779   3.455  11.783
75277SOL    HW227671  12.653   3.489  11.707
75278SOL     OW27672   5.398   5.806  13.940
75278SOL    HW127673   5.424   5.813  13.848
75278SOL    HW227674   5.479   5.813  13.989
75279SOL     OW27675   6.245  14.273  11.690
75279SOL    HW127676   6.160  14.314  11.677
75279SOL    HW227677   6.308  14.337  11.658
75280SOL     OW27678  11.905   1.569  14.705
75280SOL    HW127679  11.915   1.495  14.764
75280SOL    HW227680  11.872   1.531  14.623
75281SOL     OW27681   7.849  11.603  12.595
75281SOL    HW127682   7.768  11.557  12.573
75281SOL    HW227683   7.911  11.576  12.528
75282SOL     OW27684   3.857  11.145   7.279
75282SOL    HW127685   3.859  11.111   7.369
75282SOL    HW227686   3.877  11.070   7.224
75283SOL     OW27687   4.880  14.008   9.044
75283SOL    HW127688   4.818  13.935   9.050
75283SOL    HW227689   4.939  13.983   8.973
75284SOL     OW27690  14.524  12.245  14.056
75284SOL    HW127691  14.561  12.189  13.988
75284SOL    HW227692  14.600  12.273  14.108
75285SOL     OW27693   4.316   7.779  11.471
75285SOL    HW127694   4.397   7.824  11.494
75285SOL    HW227695   4.292   7.813  11.385
75286SOL     OW27696   6.091   7.759   3.942
75286SOL    HW127697   6.050   7.682   3.980
75286SOL    HW227698   6.065   7.758   3.850
75287SOL     OW27699   8.357   1.512   0.352
75287SOL    HW127700   8.354   1.520   0.448
75287SOL    HW227701   8.312   1.590   0.320
75288SOL     OW27702   1.194   3.103   9.823
75288SOL    HW127703   1.163   3.013   9.829
75288SOL    HW227704   1.229   3.111   9.734
75289SOL     OW27705   2.492   0.116   1.697
75289SOL    HW127706   2.555   0.072   1.641
75289SOL    HW227707   2.432   0.159   1.637
75290SOL     OW27708   1.679   8.293   6.062
75290SOL    HW127709   1.752   8.338   6.020
75290SOL    HW227710   1.707   8.202   6.067
75291SOL     OW27711   1.062   5.019   2.821
75291SOL    HW127712   0.986   4.967   2.847
75291SOL    HW227713   1.066   5.089   2.885
75292SOL     OW27714   6.838   3.795  12.265
75292SOL    HW127715   6.813   3.885  12.287
75292SOL    HW227716   6.934   3.795  12.271
75293SOL     OW27717   9.913   8.791   7.817
75293SOL    HW127718   9.964   8.720   7.856
75293SOL    HW227719   9.978   8.853   7.785
75294SOL     OW27720   9.123   0.616  14.730
75294SOL    HW127721   9.191   0.684  14.730
75294SOL    HW227722   9.134   0.571  14.814
75295SOL     OW27723   8.818  13.690   8.764
75295SOL    HW127724   8.790  13.636   8.838
75295SOL    HW227725   8.792  13.640   8.687
75296SOL     OW27726   0.624   7.005  14.125
75296SOL    HW127727   0.666   7.075  14.076
75296SOL    HW227728   0.658   7.015  14.214
75297SOL     OW27729  13.798   8.773   4.928
75297SOL    HW127730  13.822   8.803   5.015
75297SOL    HW227731  13.878   8.734   4.893
75298SOL     OW27732   3.830  13.501   8.053
75298SOL    HW127733   3.879  13.470   7.976
75298SOL    HW227734   3.766  13.433   8.070
75299SOL     OW27735   1.780  13.735   2.597
75299SOL    HW127736   1.705  13.744   2.538
75299SOL    HW227737   1.848  13.790   2.557
75300SOL     OW27738   1.529   5.781   6.221
75300SOL    HW127739   1.460   5.739   6.272
75300SOL    HW227740   1.538   5.726   6.143
75301SOL     OW27741  10.770   3.301   7.420
75301SOL    HW127742  10.806   3.276   7.505
75301SOL    HW227743  10.679   3.269   7.422
75302SOL     OW27744  12.322   5.742  10.468
75302SOL    HW127745  12.384   5.739  10.542
75302SOL    HW227746  12.303   5.651  10.449
75303SOL     OW27747   9.427   3.568   1.223
75303SOL    HW127748   9.462   3.641   1.274
75303SOL    HW227749   9.333   3.569   1.241
75304SOL     OW27750   7.696   9.141  13.568
75304SOL    HW127751   7.654   9.168  13.486
75304SOL    HW227752   7.634   9.165  13.636
75305SOL     OW27753  13.660   9.401   1.602
75305SOL    HW127754  13.671   9.352   1.683
75305SOL    HW227755  13.725   9.364   1.542
75306SOL     OW27756   3.625   4.373   9.221
75306SOL    HW127757   3.698   4.380   9.283
75306SOL    HW227758   3.551   4.414   9.266
75307SOL     OW27759  10.799  10.003   3.463
75307SOL    HW127760  10.755  10.032   3.543
75307SOL    HW227761  10.870  10.066   3.451
75308SOL     OW27762   0.768  13.887   1.792
75308SOL    HW127763   0.771  13.921   1.882
75308SOL    HW227764   0.773  13.792   1.803
75309SOL     OW27765  10.117   0.010  12.888
75309SOL    HW127766  10.137   0.098  12.856
75309SOL    HW227767  10.197  14.859  12.933
75310SOL     OW27768  12.502   5.321  10.997
75310SOL    HW127769  12.569   5.279  10.943
75310SOL    HW227770  12.549   5.392  11.042
75311SOL     OW27771   6.445   2.154   9.020
75311SOL    HW127772   6.378   2.222   9.010
75311SOL    HW227773   6.452   2.141   9.114
75312SOL     OW27774   9.689   2.524   1.329
75312SOL    HW127775   9.623   2.585   1.298
75312SOL    HW227776   9.714   2.557   1.416
75313SOL     OW27777   5.000   4.193   4.912
75313SOL    HW127778   4.985   4.147   4.995
75313SOL    HW227779   5.025   4.125   4.850
75314SOL     OW27780   6.337  14.740   0.520
75314SOL    HW127781   6.350  14.793   0.441
75314SOL    HW227782   6.304  14.802   0.585
75315SOL     OW27783   3.379  12.936  11.354
75315SOL    HW127784   3.392  12.938  11.259
75315SOL    HW227785   3.416  12.852  11.381
75316SOL     OW27786  13.473  13.055   4.263
75316SOL    HW127787  13.492  12.993   4.192
75316SOL    HW227788  13.449  13.001   4.337
75317SOL     OW27789   2.585  14.106   2.907
75317SOL    HW127790   2.502  14.060   2.901
75317SOL    HW227791   2.615  14.115   2.816
75318SOL     OW27792  12.901   1.431   4.619
75318SOL    HW127793  12.819   1.397   4.654
75318SOL    HW227794  12.968   1.392   4.675
75319SOL     OW27795   0.183   1.024   7.529
75319SOL    HW127796   0.226   0.961   7.587
75319SOL    HW227797   0.231   1.105   7.541
75320SOL     OW27798  12.376   6.183   7.613
75320SOL    HW127799  12.326   6.259   7.585
75320SOL    HW227800  12.461   6.218   7.638
75321SOL     OW27801   0.423   2.344  10.799
75321SOL    HW127802   0.479   2.379  10.730
75321SOL    HW227803   0.355   2.409  10.810
75322SOL     OW27804  13.477  13.521   4.249
75322SOL    HW127805  13.557  13.470   4.262
75322SOL    HW227806  13.406  13.459   4.267
75323SOL     OW27807   3.535   6.484  12.141
75323SOL    HW127808   3.510   6.407  12.091
75323SOL    HW227809   3.530   6.556  12.078
75324SOL     OW27810  11.427   1.916  14.138
75324SOL    HW127811  11.443   2.003  14.101
75324SOL    HW227812  11.433   1.857  14.063
75325SOL     OW27813  12.281   2.687   0.249
75325SOL    HW127814  12.286   2.593   0.233
75325SOL    HW227815  12.195   2.699   0.290
75326SOL     OW27816  14.835   0.549   3.628
75326SOL    HW127817  14.808   0.614   3.693
75326SOL    HW227818   0.053   0.563   3.619
75327SOL     OW27819   4.832  12.828   5.131
75327SOL    HW127820   4.908  12.878   5.160
75327SOL    HW227821   4.865  12.773   5.061
75328SOL     OW27822  14.664  11.553   4.176
75328SOL    HW127823  14.636  11.607   4.250
75328SOL    HW227824  14.665  11.613   4.102
75329SOL     OW27825  14.072   2.017   2.401
75329SOL    HW127826  14.012   1.969   2.343
75329SOL    HW227827  14.138   2.052   2.342
75330SOL     OW27828   4.697  13.714  11.063
75330SOL    HW127829   4.641  13.645  11.100
75330SOL    HW227830   4.754  13.667  11.002
75331SOL     OW27831  11.823   7.597   3.294
75331SOL    HW127832  11.876   7.677   3.307
75331SOL    HW227833  11.835   7.547   3.374
75332SOL     OW27834   7.397   3.199  13.843
75332SOL    HW127835   7.457   3.185  13.916
75332SOL    HW227836   7.354   3.115  13.830
75333SOL     OW27837   6.753   4.620   6.018
75333SOL    HW127838   6.815   4.605   6.090
75333SOL    HW227839   6.680   4.665   6.059
75334SOL     OW27840   9.303  13.954  12.799
75334SOL    HW127841   9.293  13.872  12.750
75334SOL    HW227842   9.268  14.021  12.741
75335SOL     OW27843   7.231  13.839   6.056
75335SOL    HW127844   7.240  13.745   6.040
75335SOL    HW227845   7.320  13.871   6.066
75336SOL     OW27846   8.057   9.506   9.293
75336SOL    HW127847   8.147   9.540   9.294
75336SOL    HW227848   8.062   9.424   9.343
75337SOL     OW27849   7.355   4.575  10.680
75337SOL    HW127850   7.303   4.527  10.616
75337SOL    HW227851   7.352   4.666  10.649
75338SOL     OW27852  13.765  11.481   4.119
75338SOL    HW127853  13.741  11.425   4.045
75338SOL    HW227854  13.702  11.460   4.187
75339SOL     OW27855  13.381   1.662   0.983
75339SOL    HW127856  13.369   1.630   1.073
75339SOL    HW227857  13.429   1.744   0.993
75340SOL     OW27858   2.081   8.040   8.995
75340SOL    HW127859   2.090   7.946   8.980
75340SOL    HW227860   1.991   8.051   9.027
75341SOL     OW27861   9.905  10.463  12.536
75341SOL    HW127862   9.850  10.410  12.593
75341SOL    HW227863   9.897  10.552  12.570
75342SOL     OW27864   6.612   5.408   5.442
75342SOL    HW127865   6.534   5.356   5.419
75342SOL    HW227866   6.604   5.423   5.536
75343SOL     OW27867   4.745   8.158   1.170
75343SOL    HW127868   4.710   8.082   1.124
75343SOL    HW227869   4.826   8.127   1.210
75344SOL     OW27870   1.107   6.585  12.735
75344SOL    HW127871   1.072   6.535  12.662
75344SOL    HW227872   1.196   6.608  12.708
75345SOL     OW27873   7.682   2.797   3.110
75345SOL    HW127874   7.605   2.803   3.054
75345SOL    HW227875   7.652   2.750   3.188
75346SOL     OW27876  13.771   6.229   3.915
75346SOL    HW127877  13.798   6.137   3.915
75346SOL    HW227878  13.853   6.278   3.910
75347SOL     OW27879  13.078   5.022  14.300
75347SOL    HW127880  13.137   4.998  14.371
75347SOL    HW227881  12.990   5.000  14.334
75348SOL     OW27882   7.736   8.927  10.211
75348SOL    HW127883   7.783   8.939  10.129
75348SOL    HW227884   7.660   8.985  10.205
75349SOL     OW27885  10.004   9.362   2.810
75349SOL    HW127886  10.092   9.394   2.792
75349SOL    HW227887   9.947   9.434   2.783
75350SOL     OW27888  13.475   0.220  11.147
75350SOL    HW127889  13.558   0.269  11.153
75350SOL    HW227890  13.411   0.285  11.118
75351SOL     OW27891  12.226   5.586   2.765
75351SOL    HW127892  12.252   5.641   2.839
75351SOL    HW227893  12.161   5.638   2.718
75352SOL     OW27894   5.405   2.892  11.128
75352SOL    HW127895   5.396   2.797  11.117
75352SOL    HW227896   5.315   2.925  11.125
75353SOL     OW27897   7.353  12.797  14.299
75353SOL    HW127898   7.383  12.884  14.270
75353SOL    HW227899   7.257  12.806  14.304
75354SOL     OW27900   5.746  11.746   1.412
75354SOL    HW127901   5.817  11.699   1.367
75354SOL    HW227902   5.667  11.702   1.382
75355SOL     OW27903   0.197   2.887   9.216
75355SOL    HW127904   0.227   2.914   9.130
75355SOL    HW227905   0.277   2.861   9.262
75356SOL     OW27906  14.339   3.518   1.733
75356SOL    HW127907  14.314   3.547   1.645
75356SOL    HW227908  14.349   3.423   1.725
75357SOL     OW27909   1.716   2.749  10.739
75357SOL    HW127910   1.806   2.769  10.712
75357SOL    HW227911   1.666   2.754  10.658
75358SOL     OW27912   1.936   2.680   9.771
75358SOL    HW127913   1.982   2.666   9.854
75358SOL    HW227914   1.955   2.771   9.748
75359SOL     OW27915   3.215   8.442   1.132
75359SOL    HW127916   3.277   8.379   1.095
75359SOL    HW227917   3.134   8.428   1.082
75360SOL     OW27918  10.379   2.084   7.884
75360SOL    HW127919  10.385   2.049   7.796
75360SOL    HW227920  10.307   2.035   7.925
75361SOL     OW27921   9.457  11.208   6.938
75361SOL    HW127922   9.401  11.206   7.016
75361SOL    HW227923   9.435  11.290   6.895
75362SOL     OW27924  13.241   3.108   4.606
75362SOL    HW127925  13.166   3.138   4.555
75362SOL    HW227926  13.315   3.114   4.546
75363SOL     OW27927  13.899  11.034   0.224
75363SOL    HW127928  13.820  10.983   0.244
75363SOL    HW227929  13.876  11.124   0.245
75364SOL     OW27930   5.391   7.530   0.719
75364SOL    HW127931   5.301   7.499   0.719
75364SOL    HW227932   5.428   7.496   0.637
75365SOL     OW27933   6.348   5.868  12.854
75365SOL    HW127934   6.425   5.814  12.871
75365SOL    HW227935   6.351   5.886  12.760
75366SOL     OW27936   4.047  14.227   6.689
75366SOL    HW127937   4.015  14.154   6.742
75366SOL    HW227938   4.082  14.290   6.752
75367SOL     OW27939   8.765  10.443  12.263
75367SOL    HW127940   8.814  10.509  12.312
75367SOL    HW227941   8.677  10.479  12.256
75368SOL     OW27942  14.051   8.751  14.528
75368SOL    HW127943  13.976   8.782  14.579
75368SOL    HW227944  14.107   8.707  14.593
75369SOL     OW27945  10.710  11.448   1.422
75369SOL    HW127946  10.620  11.471   1.446
75369SOL    HW227947  10.744  11.401   1.498
75370SOL     OW27948   3.269   6.246  12.836
75370SOL    HW127949   3.329   6.171  12.832
75370SOL    HW227950   3.190   6.216  12.793
75371SOL     OW27951   4.260  10.284  11.330
75371SOL    HW127952   4.305  10.207  11.364
75371SOL    HW227953   4.181  10.291  11.383
75372SOL     OW27954  13.740   8.530   7.382
75372SOL    HW127955  13.718   8.496   7.296
75372SOL    HW227956  13.705   8.619   7.383
75373SOL     OW27957   0.720   2.363   3.292
75373SOL    HW127958   0.746   2.280   3.332
75373SOL    HW227959   0.742   2.429   3.357
75374SOL     OW27960   1.369  10.937   7.378
75374SOL    HW127961   1.382  10.956   7.285
75374SOL    HW227962   1.287  10.982   7.399
75375SOL     OW27963  10.714   1.787   5.506
75375SOL    HW127964  10.769   1.750   5.575
75375SOL    HW227965  10.769   1.851   5.462
75376SOL     OW27966  11.185   5.940   9.904
75376SOL    HW127967  11.098   5.925   9.941
75376SOL    HW227968  11.180   6.026   9.863
75377SOL     OW27969  12.065  10.285  11.267
75377SOL    HW127970  11.996  10.220  11.252
75377SOL    HW227971  12.135  10.236  11.310
75378SOL     OW27972   0.878   2.944   3.847
75378SOL    HW127973   0.869   2.853   3.875
75378SOL    HW227974   0.790   2.970   3.821
75379SOL     OW27975   4.725   1.223   2.613
75379SOL    HW127976   4.654   1.272   2.652
75379SOL    HW227977   4.778   1.193   2.687
75380SOL     OW27978   6.770  12.189   1.856
75380SOL    HW127979   6.750  12.281   1.841
75380SOL    HW227980   6.742  12.145   1.776
75381SOL     OW27981   1.560   1.777  12.184
75381SOL    HW127982   1.556   1.739  12.097
75381SOL    HW227983   1.484   1.835  12.189
75382SOL     OW27984  11.423   6.415  13.357
75382SOL    HW127985  11.394   6.457  13.276
75382SOL    HW227986  11.488   6.476  13.393
75383SOL     OW27987   0.545   2.581   3.221
75383SOL    HW127988   0.585   2.639   3.157
75383SOL    HW227989   0.619   2.534   3.261
75384SOL     OW27990   2.120   0.234   9.309
75384SOL    HW127991   2.064   0.178   9.362
75384SOL    HW227992   2.077   0.320   9.311
75385SOL     OW27993   7.201   3.138   0.709
75385SOL    HW127994   7.170   3.167   0.795
75385SOL    HW227995   7.261   3.208   0.681
75386SOL     OW27996  11.854  11.020   4.883
75386SOL    HW127997  11.899  11.034   4.966
75386SOL    HW227998  11.761  11.019   4.905
75387SOL     OW27999  12.665   4.186   2.403
75387SOL    HW128000  12.712   4.151   2.327
75387SOL    HW228001  12.597   4.120   2.420
75388SOL     OW28002   4.440  13.943   3.237
75388SOL    HW128003   4.408  13.868   3.187
75388SOL    HW228004   4.484  13.999   3.172
75389SOL     OW28005   4.739   4.127   0.890
75389SOL    HW128006   4.764   4.086   0.807
75389SOL    HW228007   4.746   4.221   0.873
75390SOL     OW28008  14.105   0.847   8.585
75390SOL    HW128009  14.185   0.898   8.599
75390SOL    HW228010  14.135   0.756   8.583
75391SOL     OW28011   6.560   7.894   8.944
75391SOL    HW128012   6.506   7.816   8.959
75391SOL    HW228013   6.532   7.956   9.011
75392SOL     OW28014  14.267  13.899   5.530
75392SOL    HW128015  14.324  13.889   5.607
75392SOL    HW228016  14.251  13.809   5.501
75393SOL     OW28017   3.669   7.641   0.543
75393SOL    HW128018   3.603   7.596   0.596
75393SOL    HW228019   3.734   7.573   0.525
75394SOL     OW28020   4.291   4.230   6.522
75394SOL    HW128021   4.349   4.256   6.451
75394SOL    HW228022   4.247   4.151   6.490
75395SOL     OW28023  10.069   2.473   1.173
75395SOL    HW128024  10.005   2.506   1.110
75395SOL    HW228025  10.135   2.430   1.120
75396SOL     OW28026   2.326   0.947   4.297
75396SOL    HW128027   2.259   0.958   4.364
75396SOL    HW228028   2.391   0.890   4.338
75397SOL     OW28029   0.501  12.354   8.356
75397SOL    HW128030   0.530  12.299   8.283
75397SOL    HW228031   0.444  12.297   8.408
75398SOL     OW28032   4.361   2.737  12.890
75398SOL    HW128033   4.408   2.820  12.904
75398SOL    HW228034   4.428   2.670  12.900
75399SOL     OW28035   0.268   2.805   6.845
75399SOL    HW128036   0.287   2.799   6.939
75399SOL    HW228037   0.239   2.895   6.831
75400SOL     OW28038   2.220   9.843   0.335
75400SOL    HW128039   2.177   9.881   0.412
75400SOL    HW228040   2.171   9.763   0.317
75401SOL     OW28041   5.911   0.568  13.377
75401SOL    HW128042   5.999   0.572  13.415
75401SOL    HW228043   5.855   0.611  13.441
75402SOL     OW28044   5.794   2.290  10.710
75402SOL    HW128045   5.812   2.212  10.657
75402SOL    HW228046   5.775   2.359  10.646
75403SOL     OW28047  13.471   2.376  14.688
75403SOL    HW128048  13.452   2.365  14.595
75403SOL    HW228049  13.558   2.416  14.690
75404SOL     OW28050   9.725   8.973   8.779
75404SOL    HW128051   9.702   9.045   8.837
75404SOL    HW228052   9.764   8.907   8.837
75405SOL     OW28053   2.817  10.893  14.575
75405SOL    HW128054   2.814  10.924  14.665
75405SOL    HW228055   2.906  10.861  14.563
75406SOL     OW28056   8.430   5.081  12.136
75406SOL    HW128057   8.408   4.988  12.146
75406SOL    HW228058   8.398   5.104  12.049
75407SOL     OW28059   8.443   4.052   2.736
75407SOL    HW128060   8.419   4.101   2.657
75407SOL    HW228061   8.489   3.975   2.705
75408SOL     OW28062  11.572  11.118   9.188
75408SOL    HW128063  11.520  11.043   9.216
75408SOL    HW228064  11.545  11.133   9.097
75409SOL     OW28065  13.419   3.128   2.232
75409SOL    HW128066  13.334   3.135   2.276
75409SOL    HW228067  13.477   3.183   2.284
75410SOL     OW28068  10.731   3.261   9.699
75410SOL    HW128069  10.666   3.220   9.642
75410SOL    HW228070  10.680   3.324   9.750
75411SOL     OW28071   6.187   2.661   2.118
75411SOL    HW128072   6.270   2.653   2.071
75411SOL    HW228073   6.134   2.720   2.064
75412SOL     OW28074  11.171   2.338   0.667
75412SOL    HW128075  11.115   2.365   0.740
75412SOL    HW228076  11.236   2.407   0.660
75413SOL     OW28077   4.424   7.293   5.391
75413SOL    HW128078   4.433   7.320   5.300
75413SOL    HW228079   4.513   7.275   5.420
75414SOL     OW28080  13.261  10.353  13.570
75414SOL    HW128081  13.300  10.420  13.514
75414SOL    HW228082  13.167  10.371  13.567
75415SOL     OW28083  13.482   3.351   3.234
75415SOL    HW128084  13.563   3.381   3.274
75415SOL    HW228085  13.491   3.376   3.142
75416SOL     OW28086   3.532   2.306   8.597
75416SOL    HW128087   3.451   2.283   8.553
75416SOL    HW228088   3.599   2.298   8.530
75417SOL     OW28089   3.669  10.661  10.955
75417SOL    HW128090   3.701  10.585  10.907
75417SOL    HW228091   3.749  10.707  10.981
75418SOL     OW28092  10.475   0.856  10.169
75418SOL    HW128093  10.491   0.854  10.074
75418SOL    HW228094  10.430   0.774  10.187
75419SOL     OW28095   5.110   6.040   1.100
75419SOL    HW128096   5.126   6.113   1.039
75419SOL    HW228097   5.197   6.002   1.114
75420SOL     OW28098  14.205  14.278   7.448
75420SOL    HW128099  14.209  14.246   7.358
75420SOL    HW228100  14.253  14.361   7.446
75421SOL     OW28101  11.574   0.563  10.066
75421SOL    HW128102  11.597   0.470  10.065
75421SOL    HW228103  11.489   0.567  10.111
75422SOL     OW28104  11.396   6.778   0.333
75422SOL    HW128105  11.373   6.697   0.377
75422SOL    HW228106  11.350   6.846   0.382
75423SOL     OW28107  13.416   6.172  13.568
75423SOL    HW128108  13.446   6.183  13.477
75423SOL    HW228109  13.437   6.254  13.611
75424SOL     OW28110  14.540   9.836  14.650
75424SOL    HW128111  14.614   9.875  14.696
75424SOL    HW228112  14.515   9.761  14.704
75425SOL     OW28113   9.931   3.343   4.291
75425SOL    HW128114   9.895   3.259   4.319
75425SOL    HW228115   9.896   3.406   4.353
75426SOL     OW28116  12.303   9.714  14.367
75426SOL    HW128117  12.217   9.747  14.341
75426SOL    HW228118  12.310   9.628  14.326
75427SOL     OW28119  10.503   7.303   6.008
75427SOL    HW128120  10.452   7.339   6.081
75427SOL    HW228121  10.504   7.208   6.024
75428SOL     OW28122   2.478  11.438   8.824
75428SOL    HW128123   2.391  11.401   8.811
75428SOL    HW228124   2.528  11.410   8.746
75429SOL     OW28125   0.940   7.243  10.763
75429SOL    HW128126   0.926   7.337  10.751
75429SOL    HW228127   0.924   7.228  10.857
75430SOL     OW28128   8.419  14.851  14.220
75430SOL    HW128129   8.346  14.791  14.230
75430SOL    HW228130   8.381   0.054  14.181
75431SOL     OW28131  14.245   9.602   7.385
75431SOL    HW128132  14.228   9.512   7.357
75431SOL    HW228133  14.158   9.638   7.403
75432SOL     OW28134   8.452  13.900  13.100
75432SOL    HW128135   8.539  13.885  13.062
75432SOL    HW228136   8.470  13.935  13.187
75433SOL     OW28137   4.806  12.282  13.432
75433SOL    HW128138   4.797  12.319  13.520
75433SOL    HW228139   4.871  12.338  13.390
75434SOL     OW28140   2.739   9.645   5.602
75434SOL    HW128141   2.792   9.596   5.539
75434SOL    HW228142   2.665   9.679   5.550
75435SOL     OW28143  14.075   3.530   8.061
75435SOL    HW128144  14.144   3.563   8.118
75435SOL    HW228145  14.047   3.606   8.010
75436SOL     OW28146   1.618   6.450  12.117
75436SOL    HW128147   1.613   6.503  12.197
75436SOL    HW228148   1.576   6.367  12.140
75437SOL     OW28149   3.859   3.372  12.979
75437SOL    HW128150   3.766   3.395  12.980
75437SOL    HW228151   3.892   3.411  12.898
75438SOL     OW28152  12.438  13.023   0.118
75438SOL    HW128153  12.354  13.037   0.073
75438SOL    HW228154  12.415  13.017   0.211
75439SOL     OW28155   4.582   8.707   8.436
75439SOL    HW128156   4.503   8.664   8.405
75439SOL    HW228157   4.640   8.636   8.463
75440SOL     OW28158   7.682   0.473   1.929
75440SOL    HW128159   7.750   0.538   1.950
75440SOL    HW228160   7.602   0.510   1.966
75441SOL     OW28161  13.135   8.244  11.856
75441SOL    HW128162  13.097   8.248  11.769
75441SOL    HW228163  13.143   8.336  11.883
75442SOL     OW28164   6.479   8.513   3.744
75442SOL    HW128165   6.484   8.452   3.818
75442SOL    HW228166   6.489   8.599   3.784
75443SOL     OW28167   1.336   6.491   8.770
75443SOL    HW128168   1.298   6.549   8.836
75443SOL    HW228169   1.261   6.455   8.723
75444SOL     OW28170   9.878   9.465   1.662
75444SOL    HW128171   9.879   9.371   1.643
75444SOL    HW228172   9.809   9.500   1.606
75445SOL     OW28173  10.351   7.046   0.538
75445SOL    HW128174  10.399   6.973   0.500
75445SOL    HW228175  10.352   7.028   0.632
75446SOL     OW28176   6.871   6.641  12.718
75446SOL    HW128177   6.925   6.565  12.741
75446SOL    HW228178   6.784   6.618  12.749
75447SOL     OW28179   2.962  13.869   1.204
75447SOL    HW128180   3.050  13.906   1.211
75447SOL    HW228181   2.953  13.849   1.111
75448SOL     OW28182   5.052   1.961   1.457
75448SOL    HW128183   5.070   2.000   1.543
75448SOL    HW228184   5.016   2.033   1.405
75449SOL     OW28185   6.445  13.854  12.761
75449SOL    HW128186   6.534  13.830  12.734
75449SOL    HW228187   6.393  13.774  12.745
75450SOL     OW28188   5.728   9.119   4.618
75450SOL    HW128189   5.783   9.045   4.594
75450SOL    HW228190   5.646   9.105   4.571
75451SOL     OW28191  11.628  14.512  10.080
75451SOL    HW128192  11.698  14.492  10.142
75451SOL    HW228193  11.547  14.499  10.130
75452SOL     OW28194   4.540  12.487   7.382
75452SOL    HW128195   4.603  12.462   7.315
75452SOL    HW228196   4.547  12.419   7.448
75453SOL     OW28197  14.596   3.221  12.769
75453SOL    HW128198  14.595   3.149  12.833
75453SOL    HW228199  14.651   3.288  12.810
75454SOL     OW28200   6.199  14.864   0.717
75454SOL    HW128201   6.254  14.842   0.793
75454SOL    HW228202   6.139   0.055   0.750
75455SOL     OW28203   2.386   0.340   4.355
75455SOL    HW128204   2.447   0.297   4.415
75455SOL    HW228205   2.346   0.269   4.306
75456SOL     OW28206   8.258  11.443   9.961
75456SOL    HW128207   8.300  11.523   9.927
75456SOL    HW228208   8.236  11.465  10.051
75457SOL     OW28209  11.975  14.074  11.455
75457SOL    HW128210  11.928  14.156  11.439
75457SOL    HW228211  11.956  14.020  11.378
75458SOL     OW28212  12.167  10.881   1.271
75458SOL    HW128213  12.117  10.803   1.247
75458SOL    HW228214  12.180  10.928   1.189
75459SOL     OW28215   0.217  10.420   5.309
75459SOL    HW128216   0.179  10.482   5.248
75459SOL    HW228217   0.292  10.383   5.263
75460SOL     OW28218   7.807   4.797   9.805
75460SOL    HW128219   7.892   4.779   9.846
75460SOL    HW228220   7.766   4.710   9.796
75461SOL     OW28221   7.790  10.570   7.596
75461SOL    HW128222   7.836  10.584   7.679
75461SOL    HW228223   7.714  10.518   7.619
75462SOL     OW28224   4.516   0.510   2.386
75462SOL    HW128225   4.588   0.452   2.414
75462SOL    HW228226   4.492   0.557   2.466
75463SOL     OW28227   8.995  10.754   3.612
75463SOL    HW128228   9.074  10.745   3.558
75463SOL    HW228229   8.963  10.842   3.594
75464SOL     OW28230   9.830   3.330  10.161
75464SOL    HW128231   9.833   3.235  10.160
75464SOL    HW228232   9.787   3.354  10.079
75465SOL     OW28233  10.942  10.868  12.064
75465SOL    HW128234  10.900  10.875  12.150
75465SOL    HW228235  10.992  10.787  12.069
75466SOL     OW28236   4.319   0.416   4.638
75466SOL    HW128237   4.242   0.420   4.581
75466SOL    HW228238   4.284   0.395   4.724
75467SOL     OW28239  10.519  10.482  11.258
75467SOL    HW128240  10.449  10.523  11.309
75467SOL    HW228241  10.596  10.534  11.278
75468SOL     OW28242   6.692   0.891  12.252
75468SOL    HW128243   6.696   0.963  12.316
75468SOL    HW228244   6.783   0.878  12.225
75469SOL     OW28245  11.398   8.790  14.394
75469SOL    HW128246  11.309   8.825  14.390
75469SOL    HW228247  11.424   8.781  14.302
75470SOL     OW28248  11.741   3.879  14.395
75470SOL    HW128249  11.721   3.787  14.376
75470SOL    HW228250  11.827   3.893  14.356
75471SOL     OW28251   2.914   6.801   8.836
75471SOL    HW128252   2.946   6.853   8.910
75471SOL    HW228253   2.992   6.780   8.786
75472SOL     OW28254   9.415   1.065   6.737
75472SOL    HW128255   9.412   1.159   6.717
75472SOL    HW228256   9.378   1.058   6.824
75473SOL     OW28257   5.445   0.988   4.356
75473SOL    HW128258   5.511   0.934   4.399
75473SOL    HW228259   5.413   0.933   4.284
75474SOL     OW28260   5.654   7.650  11.345
75474SOL    HW128261   5.621   7.740  11.343
75474SOL    HW228262   5.575   7.595  11.338
75475SOL     OW28263   8.322   9.882  11.185
75475SOL    HW128264   8.414   9.908  11.177
75475SOL    HW228265   8.312   9.809  11.124
75476SOL     OW28266  14.737   8.099  12.235
75476SOL    HW128267  14.777   8.012  12.245
75476SOL    HW228268  14.763   8.127  12.148
75477SOL     OW28269  12.743   1.485  10.679
75477SOL    HW128270  12.653   1.512  10.695
75477SOL    HW228271  12.777   1.550  10.618
75478SOL     OW28272   5.785  14.105   4.441
75478SOL    HW128273   5.849  14.095   4.370
75478SOL    HW228274   5.777  14.017   4.477
75479SOL     OW28275   6.813  12.263   9.641
75479SOL    HW128276   6.750  12.272   9.713
75479SOL    HW228277   6.762  12.281   9.562
75480SOL     OW28278   3.902   2.267  11.359
75480SOL    HW128279   3.907   2.262  11.264
75480SOL    HW228280   3.903   2.361  11.378
75481SOL     OW28281   9.296   4.212  14.739
75481SOL    HW128282   9.226   4.272  14.767
75481SOL    HW228283   9.351   4.265  14.682
75482SOL     OW28284   6.159  13.385  10.983
75482SOL    HW128285   6.254  13.379  10.979
75482SOL    HW228286   6.141  13.427  11.068
75483SOL     OW28287   6.011   7.674   5.401
75483SOL    HW128288   6.034   7.762   5.429
75483SOL    HW228289   5.977   7.631   5.480
75484SOL     OW28290   0.155   4.338   5.518
75484SOL    HW128291   0.071   4.294   5.528
75484SOL    HW228292   0.169   4.384   5.600
75485SOL     OW28293   5.994   4.820  12.286
75485SOL    HW128294   5.960   4.814  12.197
75485SOL    HW228295   5.922   4.858  12.337
75486SOL     OW28296   2.261   3.031  11.127
75486SOL    HW128297   2.239   2.949  11.172
75486SOL    HW228298   2.289   3.090  11.198
75487SOL     OW28299  13.075  14.262   5.231
75487SOL    HW128300  13.110  14.252   5.319
75487SOL    HW228301  13.123  14.337   5.195
75488SOL     OW28302  11.626  11.623  13.751
75488SOL    HW128303  11.641  11.540  13.706
75488SOL    HW228304  11.592  11.599  13.837
75489SOL     OW28305  10.422   9.721  12.445
75489SOL    HW128306  10.338   9.756  12.475
75489SOL    HW228307  10.429   9.635  12.487
75490SOL     OW28308   0.872   6.954   9.168
75490SOL    HW128309   0.906   6.994   9.248
75490SOL    HW228310   0.910   6.867   9.166
75491SOL     OW28311   7.621   3.114   7.258
75491SOL    HW128312   7.602   3.191   7.311
75491SOL    HW228313   7.715   3.122   7.237
75492SOL     OW28314  14.373  12.908  13.895
75492SOL    HW128315  14.297  12.961  13.871
75492SOL    HW228316  14.347  12.818  13.873
75493SOL     OW28317   4.840   4.337   3.680
75493SOL    HW128318   4.905   4.334   3.750
75493SOL    HW228319   4.880   4.287   3.608
75494SOL     OW28320   1.100   9.721   5.197
75494SOL    HW128321   1.172   9.658   5.210
75494SOL    HW228322   1.057   9.725   5.282
75495SOL     OW28323   8.909  11.999   8.099
75495SOL    HW128324   8.949  12.082   8.126
75495SOL    HW228325   8.953  11.976   8.017
75496SOL     OW28326   5.918   3.045  13.899
75496SOL    HW128327   5.997   3.031  13.951
75496SOL    HW228328   5.893   2.958  13.869
75497SOL     OW28329   8.407  13.059  11.712
75497SOL    HW128330   8.335  13.003  11.683
75497SOL    HW228331   8.422  13.033  11.803
75498SOL     OW28332   4.782   5.080   0.867
75498SOL    HW128333   4.800   4.993   0.833
75498SOL    HW228334   4.807   5.075   0.960
75499SOL     OW28335   9.861   2.517   3.702
75499SOL    HW128336   9.862   2.607   3.736
75499SOL    HW228337   9.795   2.520   3.632
75500SOL     OW28338   7.789   4.200   2.222
75500SOL    HW128339   7.879   4.170   2.236
75500SOL    HW228340   7.754   4.213   2.310
75501SOL     OW28341  11.571   0.383  14.408
75501SOL    HW128342  11.650   0.436  14.396
75501SOL    HW228343  11.554   0.386  14.502
75502SOL     OW28344  10.820   2.049   2.821
75502SOL    HW128345  10.776   2.127   2.788
75502SOL    HW228346  10.859   2.009   2.743
75503SOL     OW28347  14.858   9.638   7.624
75503SOL    HW128348   0.014   9.605   7.540
75503SOL    HW228349   0.052   9.693   7.656
75504SOL     OW28350   3.812   2.825  11.941
75504SOL    HW128351   3.736   2.803  11.995
75504SOL    HW228352   3.803   2.919  11.924
75505SOL     OW28353   3.741   0.358   6.912
75505SOL    HW128354   3.827   0.390   6.940
75505SOL    HW228355   3.719   0.291   6.977
75506SOL     OW28356   0.239  12.054   4.671
75506SOL    HW128357   0.226  12.020   4.583
75506SOL    HW228358   0.151  12.083   4.699
75507SOL     OW28359   3.347   0.131   4.314
75507SOL    HW128360   3.293   0.123   4.393
75507SOL    HW228361   3.436   0.116   4.344
75508SOL     OW28362   1.046   9.315   2.281
75508SOL    HW128363   1.025   9.408   2.287
75508SOL    HW228364   1.007   9.276   2.359
75509SOL     OW28365   0.455  10.051  13.731
75509SOL    HW128366   0.446  10.134  13.778
75509SOL    HW228367   0.509  10.073  13.654
75510SOL     OW28368   0.975  10.838   1.690
75510SOL    HW128369   1.035  10.823   1.764
75510SOL    HW228370   1.015  10.909   1.641
75511SOL     OW28371   4.554  10.617  12.570
75511SOL    HW128372   4.591  10.703  12.550
75511SOL    HW228373   4.626  10.568  12.608
75512SOL     OW28374   2.366   4.743   1.676
75512SOL    HW128375   2.350   4.731   1.583
75512SOL    HW228376   2.442   4.687   1.694
75513SOL     OW28377   5.722   8.850  10.940
75513SOL    HW128378   5.639   8.808  10.959
75513SOL    HW228379   5.784   8.809  11.000
75514SOL     OW28380   7.516   2.845   2.541
75514SOL    HW128381   7.486   2.900   2.613
75514SOL    HW228382   7.449   2.776   2.534
75515SOL     OW28383  13.540  14.418  14.597
75515SOL    HW128384  13.465  14.370  14.561
75515SOL    HW228385  13.521  14.425  14.691
75516SOL     OW28386   4.231   7.246   8.546
75516SOL    HW128387   4.244   7.321   8.603
75516SOL    HW228388   4.138   7.246   8.526
75517SOL     OW28389   9.703   9.342  10.567
75517SOL    HW128390   9.720   9.414  10.506
75517SOL    HW228391   9.623   9.368  10.613
75518SOL     OW28392   7.029  12.009   9.007
75518SOL    HW128393   6.935  12.023   9.010
75518SOL    HW228394   7.051  12.012   8.914
75519SOL     OW28395  14.756   7.991  13.767
75519SOL    HW128396  14.792   8.071  13.806
75519SOL    HW228397  14.829   7.952  13.720
75520SOL     OW28398  13.006  14.491  11.798
75520SOL    HW128399  12.967  14.434  11.864
75520SOL    HW228400  13.090  14.519  11.836
75521SOL     OW28401  13.783   7.400   8.561
75521SOL    HW128402  13.760   7.438   8.476
75521SOL    HW228403  13.705   7.411   8.614
75522SOL     OW28404  14.221   6.655   5.201
75522SOL    HW128405  14.167   6.716   5.252
75522SOL    HW228406  14.245   6.704   5.123
75523SOL     OW28407  11.095  10.741  13.494
75523SOL    HW128408  11.028  10.705  13.553
75523SOL    HW228409  11.061  10.725  13.406
75524SOL     OW28410  13.734  14.805   2.613
75524SOL    HW128411  13.818  14.850   2.608
75524SOL    HW228412  13.755  14.713   2.603
75525SOL     OW28413  13.569   6.528   6.947
75525SOL    HW128414  13.568   6.457   7.011
75525SOL    HW228415  13.578   6.608   6.998
75526SOL     OW28416   4.245  14.437   9.836
75526SOL    HW128417   4.171  14.423   9.894
75526SOL    HW228418   4.221  14.392   9.755
75527SOL     OW28419   9.435   2.287  14.366
75527SOL    HW128420   9.395   2.374  14.366
75527SOL    HW228421   9.383   2.237  14.303
75528SOL     OW28422   2.340   5.406  12.901
75528SOL    HW128423   2.246   5.387  12.911
75528SOL    HW228424   2.364   5.364  12.819
75529SOL     OW28425   0.008   0.918   0.910
75529SOL    HW128426  14.803   0.873   0.931
75529SOL    HW228427  14.859   1.010   0.899
75530SOL     OW28428   7.555  11.336   4.647
75530SOL    HW128429   7.514  11.390   4.580
75530SOL    HW228430   7.631  11.387   4.677
75531SOL     OW28431  10.201  14.032   6.009
75531SOL    HW128432  10.184  13.938   6.013
75531SOL    HW228433  10.197  14.061   6.100
75532SOL     OW28434   0.790  12.749   3.897
75532SOL    HW128435   0.843  12.693   3.954
75532SOL    HW228436   0.783  12.700   3.815
75533SOL     OW28437   4.336  13.703   8.515
75533SOL    HW128438   4.329  13.731   8.423
75533SOL    HW228439   4.421  13.736   8.543
75534SOL     OW28440   0.854   0.251   1.483
75534SOL    HW128441   0.889   0.340   1.485
75534SOL    HW228442   0.876   0.215   1.569
75535SOL     OW28443   0.265   1.383   0.547
75535SOL    HW128444   0.320   1.392   0.469
75535SOL    HW228445   0.242   1.290   0.550
75536SOL     OW28446  11.287   0.973   1.209
75536SOL    HW128447  11.254   0.967   1.119
75536SOL    HW228448  11.284   0.883   1.241
75537SOL     OW28449   4.722   2.963   5.741
75537SOL    HW128450   4.725   3.043   5.793
75537SOL    HW228451   4.658   2.982   5.672
75538SOL     OW28452   3.548   6.489   3.849
75538SOL    HW128453   3.597   6.507   3.930
75538SOL    HW228454   3.468   6.446   3.878
75539SOL     OW28455  11.561   1.318  12.698
75539SOL    HW128456  11.603   1.397  12.733
75539SOL    HW228457  11.501   1.291  12.766
75540SOL     OW28458  11.461   8.769   2.719
75540SOL    HW128459  11.538   8.788   2.665
75540SOL    HW228460  11.491   8.701   2.779
75541SOL     OW28461   5.505   1.768  12.004
75541SOL    HW128462   5.577   1.800  11.950
75541SOL    HW228463   5.482   1.683  11.966
75542SOL     OW28464   3.371   0.087  14.590
75542SOL    HW128465   3.366  14.868  14.585
75542SOL    HW228466   3.280   0.115  14.598
75543SOL     OW28467  12.934  10.875  10.253
75543SOL    HW128468  12.972  10.820  10.184
75543SOL    HW228469  12.949  10.965  10.223
75544SOL     OW28470   2.655   2.374   1.258
75544SOL    HW128471   2.589   2.407   1.320
75544SOL    HW228472   2.605   2.354   1.179
75545SOL     OW28473  10.423   3.417   7.819
75545SOL    HW128474  10.394   3.395   7.731
75545SOL    HW228475  10.343   3.422   7.870
75546SOL     OW28476   8.993   5.601   4.578
75546SOL    HW128477   9.061   5.651   4.623
75546SOL    HW228478   8.914   5.653   4.590
75547SOL     OW28479  11.453  14.421   3.255
75547SOL    HW128480  11.411  14.507   3.257
75547SOL    HW228481  11.491  14.411   3.342
75548SOL     OW28482   9.372  11.196  14.780
75548SOL    HW128483   9.391  11.103  14.790
75548SOL    HW228484   9.415  11.237  14.855
75549SOL     OW28485   7.255  13.285   5.094
75549SOL    HW128486   7.275  13.196   5.120
75549SOL    HW228487   7.180  13.310   5.147
75550SOL     OW28488   1.176  12.759   6.610
75550SOL    HW128489   1.153  12.667   6.604
75550SOL    HW228490   1.271  12.761   6.618
75551SOL     OW28491   0.464  10.881   5.947
75551SOL    HW128492   0.480  10.975   5.939
75551SOL    HW228493   0.515  10.842   5.876
75552SOL     OW28494  14.705  11.113   8.284
75552SOL    HW128495  14.717  11.176   8.213
75552SOL    HW228496  14.761  11.145   8.355
75553SOL     OW28497   4.728   5.864  14.845
75553SOL    HW128498   4.803   5.844   0.024
75553SOL    HW228499   4.721   5.790  14.785
75554SOL     OW28500   0.541   4.467  11.460
75554SOL    HW128501   0.538   4.436  11.550
75554SOL    HW228502   0.632   4.494  11.447
75555SOL     OW28503   8.641  12.010   1.637
75555SOL    HW128504   8.610  12.070   1.704
75555SOL    HW228505   8.690  12.065   1.576
75556SOL     OW28506   5.019   2.440   5.839
75556SOL    HW128507   4.937   2.479   5.808
75556SOL    HW228508   5.079   2.450   5.766
75557SOL     OW28509   8.168   3.108   7.582
75557SOL    HW128510   8.079   3.101   7.548
75557SOL    HW228511   8.189   3.021   7.615
75558SOL     OW28512   3.199   5.897   7.146
75558SOL    HW128513   3.144   5.932   7.077
75558SOL    HW228514   3.139   5.851   7.204
75559SOL     OW28515   2.790   5.846   2.362
75559SOL    HW128516   2.745   5.801   2.434
75559SOL    HW228517   2.755   5.935   2.364
75560SOL     OW28518   8.646   8.333   2.516
75560SOL    HW128519   8.654   8.409   2.573
75560SOL    HW228520   8.711   8.347   2.447
75561SOL     OW28521  13.586   7.174   7.768
75561SOL    HW128522  13.598   7.147   7.859
75561SOL    HW228523  13.670   7.156   7.726
75562SOL     OW28524  14.580   2.247   9.851
75562SOL    HW128525  14.551   2.250   9.759
75562SOL    HW228526  14.644   2.317   9.858
75563SOL     OW28527   4.178   1.589   7.145
75563SOL    HW128528   4.173   1.632   7.230
75563SOL    HW228529   4.087   1.570   7.122
75564SOL     OW28530   7.128   3.627   5.840
75564SOL    HW128531   7.152   3.662   5.926
75564SOL    HW228532   7.053   3.679   5.813
75565SOL     OW28533   7.763   6.385   5.972
75565SOL    HW128534   7.723   6.298   5.975
75565SOL    HW228535   7.793   6.395   5.882
75566SOL     OW28536   8.758   4.633   2.537
75566SOL    HW128537   8.690   4.587   2.487
75566SOL    HW228538   8.761   4.720   2.497
75567SOL     OW28539   8.666   6.262   2.669
75567SOL    HW128540   8.591   6.275   2.727
75567SOL    HW228541   8.670   6.167   2.657
75568SOL     OW28542   4.755   0.308   8.090
75568SOL    HW128543   4.703   0.299   8.170
75568SOL    HW228544   4.732   0.231   8.038
75569SOL     OW28545  10.434   6.641   4.619
75569SOL    HW128546  10.463   6.712   4.675
75569SOL    HW228547  10.349   6.615   4.655
75570SOL     OW28548   9.479   6.375   7.937
75570SOL    HW128549   9.487   6.313   7.865
75570SOL    HW228550   9.394   6.356   7.976
75571SOL     OW28551  10.286  13.501  13.739
75571SOL    HW128552  10.221  13.488  13.808
75571SOL    HW228553  10.274  13.592  13.711
75572SOL     OW28554   3.478  10.820   2.935
75572SOL    HW128555   3.476  10.915   2.936
75572SOL    HW228556   3.390  10.794   2.963
75573SOL     OW28557   3.928   0.678   4.940
75573SOL    HW128558   3.871   0.719   5.006
75573SOL    HW228559   3.987   0.749   4.914
75574SOL     OW28560   5.922   3.629   0.506
75574SOL    HW128561   5.868   3.626   0.585
75574SOL    HW228562   5.976   3.550   0.511
75575SOL     OW28563   0.990   1.406   3.110
75575SOL    HW128564   0.997   1.311   3.099
75575SOL    HW228565   0.898   1.420   3.135
75576SOL     OW28566  14.136   8.831  10.445
75576SOL    HW128567  14.043   8.852  10.433
75576SOL    HW228568  14.180   8.916  10.440
75577SOL     OW28569  13.198  10.888  12.669
75577SOL    HW128570  13.181  10.794  12.669
75577SOL    HW228571  13.118  10.926  12.632
75578SOL     OW28572   5.075   1.265   9.511
75578SOL    HW128573   5.139   1.314   9.459
75578SOL    HW228574   5.002   1.250   9.452
75579SOL     OW28575  11.164  14.548  10.744
75579SOL    HW128576  11.096  14.491  10.708
75579SOL    HW228577  11.206  14.496  10.812
75580SOL     OW28578   1.686   0.061   4.939
75580SOL    HW128579   1.718  14.848   4.950
75580SOL    HW228580   1.710   0.084   4.850
75581SOL     OW28581  14.422  14.600   0.005
75581SOL    HW128582  14.366  14.618   0.081
75581SOL    HW228583  14.367  14.621  14.806
75582SOL     OW28584  10.522   9.485   2.726
75582SOL    HW128585  10.537   9.576   2.753
75582SOL    HW228586  10.610   9.452   2.705
75583SOL     OW28587   1.249   4.692   5.388
75583SOL    HW128588   1.222   4.742   5.311
75583SOL    HW228589   1.177   4.630   5.402
75584SOL     OW28590   0.451   7.396   8.816
75584SOL    HW128591   0.358   7.378   8.797
75584SOL    HW228592   0.449   7.460   8.888
75585SOL     OW28593   8.435  14.282   1.522
75585SOL    HW128594   8.479  14.199   1.505
75585SOL    HW228595   8.474  14.313   1.604
75586SOL     OW28596  11.844  11.164  11.558
75586SOL    HW128597  11.789  11.086  11.561
75586SOL    HW228598  11.820  11.213  11.638
75587SOL     OW28599  11.886   3.547   0.934
75587SOL    HW128600  11.837   3.468   0.958
75587SOL    HW228601  11.858   3.613   0.997
75588SOL     OW28602   3.771  12.768  13.571
75588SOL    HW128603   3.762  12.800  13.660
75588SOL    HW228604   3.849  12.713  13.573
75589SOL     OW28605   4.751   7.701  10.020
75589SOL    HW128606   4.731   7.790  10.047
75589SOL    HW228607   4.688   7.682   9.950
75590SOL     OW28608  11.402   1.843  13.148
75590SOL    HW128609  11.410   1.783  13.075
75590SOL    HW228610  11.397   1.930  13.108
75591SOL     OW28611   8.157   6.088   9.698
75591SOL    HW128612   8.213   6.049   9.765
75591SOL    HW228613   8.217   6.139   9.644
75592SOL     OW28614  14.720   5.580   0.825
75592SOL    HW128615  14.762   5.583   0.911
75592SOL    HW228616  14.732   5.490   0.796
75593SOL     OW28617   4.337  12.955   0.281
75593SOL    HW128618   4.279  13.019   0.322
75593SOL    HW228619   4.425  12.983   0.306
75594SOL     OW28620   7.624  14.176   0.933
75594SOL    HW128621   7.639  14.160   1.026
75594SOL    HW228622   7.565  14.252   0.931
75595SOL     OW28623  11.895   2.595   6.348
75595SOL    HW128624  11.869   2.676   6.392
75595SOL    HW228625  11.988   2.586   6.368
75596SOL     OW28626  12.001  10.826   9.327
75596SOL    HW128627  12.020  10.896   9.264
75596SOL    HW228628  11.938  10.865   9.388
75597SOL     OW28629   6.451   5.785   2.685
75597SOL    HW128630   6.401   5.732   2.623
75597SOL    HW228631   6.478   5.723   2.753
75598SOL     OW28632  14.765   8.652   4.203
75598SOL    HW128633  14.840   8.711   4.203
75598SOL    HW228634  14.734   8.652   4.112
75599SOL     OW28635  10.571   1.933   1.881
75599SOL    HW128636  10.573   2.026   1.862
75599SOL    HW228637  10.593   1.927   1.974
75600SOL     OW28638   3.078   5.335  12.849
75600SOL    HW128639   3.161   5.361  12.889
75600SOL    HW228640   3.025   5.303  12.922
75601SOL     OW28641   7.428   2.419   0.311
75601SOL    HW128642   7.511   2.373   0.300
75601SOL    HW228643   7.397   2.392   0.398
75602SOL     OW28644  12.112   8.029  14.356
75602SOL    HW128645  12.140   8.120  14.369
75602SOL    HW228646  12.192   7.983  14.330
75603SOL     OW28647  13.148   6.528  14.664
75603SOL    HW128648  13.130   6.536  14.571
75603SOL    HW228649  13.239   6.498  14.669
75604SOL     OW28650   9.310   0.107   1.930
75604SOL    HW128651   9.360   0.128   2.009
75604SOL    HW228652   9.306   0.012   1.928
75605SOL     OW28653  14.866  12.195   5.583
75605SOL    HW128654  14.774  12.167   5.573
75605SOL    HW228655   0.039  12.113   5.581
75606SOL     OW28656   6.459   8.576   8.316
75606SOL    HW128657   6.524   8.539   8.256
75606SOL    HW228658   6.484   8.542   8.402
75607SOL     OW28659  12.069   0.779   8.287
75607SOL    HW128660  12.015   0.705   8.313
75607SOL    HW228661  12.061   0.783   8.192
75608SOL     OW28662  14.810   1.969   4.714
75608SOL    HW128663  14.841   2.054   4.747
75608SOL    HW228664  14.729   1.990   4.668
75609SOL     OW28665   9.986   8.019  14.531
75609SOL    HW128666   9.934   8.090  14.567
75609SOL    HW228667  10.008   8.048  14.442
75610SOL     OW28668   4.186   1.406   0.495
75610SOL    HW128669   4.224   1.445   0.574
75610SOL    HW228670   4.100   1.447   0.488
75611SOL     OW28671   6.296   7.424   2.730
75611SOL    HW128672   6.214   7.374   2.736
75611SOL    HW228673   6.356   7.364   2.685
75612SOL     OW28674   5.136   4.335   2.680
75612SOL    HW128675   5.222   4.302   2.653
75612SOL    HW228676   5.133   4.321   2.774
75613SOL     OW28677   1.421  14.223  10.764
75613SOL    HW128678   1.389  14.260  10.682
75613SOL    HW228679   1.516  14.237  10.762
75614SOL     OW28680  11.129  10.928  11.195
75614SOL    HW128681  11.172  10.872  11.131
75614SOL    HW228682  11.091  10.999  11.142
75615SOL     OW28683  11.764   7.491   5.962
75615SOL    HW128684  11.770   7.560   5.896
75615SOL    HW228685  11.732   7.415   5.914
75616SOL     OW28686  13.275   0.662   9.879
75616SOL    HW128687  13.348   0.678   9.819
75616SOL    HW228688  13.274   0.737   9.937
75617SOL     OW28689   9.342  14.651   0.467
75617SOL    HW128690   9.387  14.575   0.428
75617SOL    HW228691   9.390  14.669   0.547
75618SOL     OW28692   7.428  10.744   1.263
75618SOL    HW128693   7.476  10.758   1.345
75618SOL    HW228694   7.395  10.831   1.239
75619SOL     OW28695   5.812  11.401   8.515
75619SOL    HW128696   5.898  11.392   8.475
75619SOL    HW228697   5.805  11.328   8.576
75620SOL     OW28698   1.927  11.807   6.022
75620SOL    HW128699   1.892  11.750   6.090
75620SOL    HW228700   1.999  11.756   5.983
75621SOL     OW28701   8.573   7.891   8.136
75621SOL    HW128702   8.484   7.871   8.165
75621SOL    HW228703   8.576   7.986   8.131
75622SOL     OW28704   9.492  11.133  11.950
75622SOL    HW128705   9.574  11.162  11.990
75622SOL    HW228706   9.519  11.084  11.872
75623SOL     OW28707  12.767  14.602   9.806
75623SOL    HW128708  12.781  14.586   9.713
75623SOL    HW228709  12.842  14.560   9.849
75624SOL     OW28710  11.425   6.081   0.172
75624SOL    HW128711  11.467   6.060   0.089
75624SOL    HW228712  11.414   5.996   0.215
75625SOL     OW28713   9.701   3.372   7.962
75625SOL    HW128714   9.665   3.285   7.949
75625SOL    HW228715   9.738   3.396   7.877
75626SOL     OW28716   2.087  14.269   4.921
75626SOL    HW128717   2.060  14.248   5.011
75626SOL    HW228718   2.167  14.219   4.908
75627SOL     OW28719  11.149  10.172   7.808
75627SOL    HW128720  11.141  10.113   7.733
75627SOL    HW228721  11.233  10.217   7.794
75628SOL     OW28722   1.762  12.362  12.038
75628SOL    HW128723   1.794  12.436  11.988
75628SOL    HW228724   1.826  12.349  12.108
75629SOL     OW28725   7.489   5.692   5.108
75629SOL    HW128726   7.413   5.688   5.165
75629SOL    HW228727   7.473   5.767   5.052
75630SOL     OW28728  13.805   0.934   7.587
75630SOL    HW128729  13.766   1.020   7.571
75630SOL    HW228730  13.774   0.910   7.675
75631SOL     OW28731   4.913   8.106  13.643
75631SOL    HW128732   4.986   8.159  13.610
75631SOL    HW228733   4.927   8.101  13.737
75632SOL     OW28734   4.961  12.861  11.588
75632SOL    HW128735   4.925  12.855  11.676
75632SOL    HW228736   5.052  12.833  11.596
75633SOL     OW28737   3.776   9.596   9.656
75633SOL    HW128738   3.837   9.628   9.723
75633SOL    HW228739   3.698   9.650   9.666
75634SOL     OW28740   2.591   8.298   3.109
75634SOL    HW128741   2.560   8.209   3.127
75634SOL    HW228742   2.521   8.339   3.059
75635SOL     OW28743  12.414  13.073   0.563
75635SOL    HW128744  12.480  13.127   0.521
75635SOL    HW228745  12.463  13.001   0.602
75636SOL     OW28746  13.485   2.899   2.395
75636SOL    HW128747  13.413   2.884   2.455
75636SOL    HW228748  13.459   2.977   2.345
75637SOL     OW28749   7.810   7.637   5.111
75637SOL    HW128750   7.848   7.675   5.191
75637SOL    HW228751   7.732   7.690   5.094
75638SOL     OW28752   1.072   6.422  11.628
75638SOL    HW128753   1.030   6.508  11.628
75638SOL    HW228754   1.165   6.441  11.639
75639SOL     OW28755   9.911  12.928   5.943
75639SOL    HW128756   9.832  12.943   5.891
75639SOL    HW228757   9.979  12.978   5.898
75640SOL     OW28758  11.635   0.816  11.617
75640SOL    HW128759  11.720   0.859  11.611
75640SOL    HW228760  11.639   0.744  11.553
75641SOL     OW28761   5.952   0.296  14.071
75641SOL    HW128762   5.994   0.382  14.077
75641SOL    HW228763   6.024   0.234  14.060
75642SOL     OW28764  12.148  10.100   9.553
75642SOL    HW128765  12.129  10.071   9.643
75642SOL    HW228766  12.241  10.121   9.554
75643SOL     OW28767   3.439   1.454   2.106
75643SOL    HW128768   3.498   1.389   2.069
75643SOL    HW228769   3.497   1.516   2.151
75644SOL     OW28770   5.573   0.055   0.986
75644SOL    HW128771   5.547   0.122   1.050
75644SOL    HW228772   5.625  14.870   1.037
75645SOL     OW28773   9.171  10.134   7.935
75645SOL    HW128774   9.083  10.134   7.897
75645SOL    HW228775   9.190  10.042   7.953
75646SOL     OW28776   4.667  12.618   8.428
75646SOL    HW128777   4.574  12.641   8.435
75646SOL    HW228778   4.693  12.649   8.341
75647SOL     OW28779   6.551   6.948  13.449
75647SOL    HW128780   6.603   6.868  13.443
75647SOL    HW228781   6.466   6.920  13.481
75648SOL     OW28782   9.445   7.387   5.881
75648SOL    HW128783   9.358   7.412   5.914
75648SOL    HW228784   9.476   7.464   5.834
75649SOL     OW28785   1.808  12.953   6.349
75649SOL    HW128786   1.739  13.016   6.330
75649SOL    HW228787   1.850  12.937   6.264
75650SOL     OW28788  11.698  12.413   6.616
75650SOL    HW128789  11.634  12.455   6.559
75650SOL    HW228790  11.766  12.381   6.557
75651SOL     OW28791  11.020   6.838   2.118
75651SOL    HW128792  11.028   6.908   2.183
75651SOL    HW228793  11.111   6.813   2.098
75652SOL     OW28794  12.107  13.631   1.597
75652SOL    HW128795  12.179  13.611   1.538
75652SOL    HW228796  12.083  13.721   1.578
75653SOL     OW28797  13.494   1.557   3.255
75653SOL    HW128798  13.533   1.547   3.168
75653SOL    HW228799  13.418   1.614   3.241
75654SOL     OW28800  12.899   6.559   6.982
75654SOL    HW128801  12.835   6.621   7.017
75654SOL    HW228802  12.897   6.575   6.887
75655SOL     OW28803   8.268   4.470   9.376
75655SOL    HW128804   8.344   4.414   9.360
75655SOL    HW228805   8.243   4.502   9.289
75656SOL     OW28806   7.181   5.800   3.709
75656SOL    HW128807   7.200   5.737   3.779
75656SOL    HW228808   7.097   5.771   3.673
75657SOL     OW28809  12.079  13.936  13.422
75657SOL    HW128810  12.065  13.914  13.330
75657SOL    HW228811  12.104  14.029  13.420
75658SOL     OW28812   5.910   7.255  13.786
75658SOL    HW128813   5.847   7.188  13.812
75658SOL    HW228814   5.982   7.246  13.849
75659SOL     OW28815   1.627  11.125  12.482
75659SOL    HW128816   1.681  11.130  12.561
75659SOL    HW228817   1.538  11.111  12.515
75660SOL     OW28818   8.148   2.204  11.795
75660SOL    HW128819   8.074   2.151  11.768
75660SOL    HW228820   8.144   2.281  11.738
75661SOL     OW28821  11.761  14.569   2.096
75661SOL    HW128822  11.669  14.592   2.080
75661SOL    HW228823  11.782  14.505   2.028
75662SOL     OW28824   0.578  14.819  10.261
75662SOL    HW128825   0.596   0.020  10.314
75662SOL    HW228826   0.559  14.853  10.174
75663SOL     OW28827  11.114   4.284  12.333
75663SOL    HW128828  11.068   4.356  12.374
75663SOL    HW228829  11.150   4.233  12.405
75664SOL     OW28830   9.491   7.004   9.616
75664SOL    HW128831   9.551   6.958   9.557
75664SOL    HW228832   9.527   7.093   9.622
75665SOL     OW28833  11.355   1.482  12.833
75665SOL    HW128834  11.286   1.443  12.779
75665SOL    HW228835  11.308   1.540  12.894
75666SOL     OW28836   4.810   3.656   7.299
75666SOL    HW128837   4.905   3.661   7.302
75666SOL    HW228838   4.783   3.660   7.391
75667SOL     OW28839   1.762   8.500   8.232
75667SOL    HW128840   1.809   8.549   8.300
75667SOL    HW228841   1.825   8.490   8.162
75668SOL     OW28842   2.378   8.569   7.799
75668SOL    HW128843   2.373   8.614   7.714
75668SOL    HW228844   2.464   8.527   7.798
75669SOL     OW28845   7.870  12.888   7.083
75669SOL    HW128846   7.957  12.892   7.123
75669SOL    HW228847   7.846  12.980   7.068
75670SOL     OW28848  10.212  11.323   6.800
75670SOL    HW128849  10.193  11.402   6.750
75670SOL    HW228850  10.305  11.305   6.783
75671SOL     OW28851  14.550  13.230   5.489
75671SOL    HW128852  14.467  13.224   5.443
75671SOL    HW228853  14.539  13.302   5.551
75672SOL     OW28854   0.628   9.342  13.406
75672SOL    HW128855   0.541   9.307  13.386
75672SOL    HW228856   0.641   9.323  13.499
75673SOL     OW28857   8.726   2.754  13.977
75673SOL    HW128858   8.638   2.724  13.954
75673SOL    HW228859   8.784   2.690  13.936
75674SOL     OW28860  12.241   1.318   5.193
75674SOL    HW128861  12.227   1.248   5.129
75674SOL    HW228862  12.164   1.374   5.185
75675SOL     OW28863   7.704   6.234   0.418
75675SOL    HW128864   7.780   6.245   0.475
75675SOL    HW228865   7.688   6.139   0.417
75676SOL     OW28866   5.415  14.167  13.855
75676SOL    HW128867   5.397  14.170  13.761
75676SOL    HW228868   5.349  14.224  13.894
75677SOL     OW28869   2.734   6.755  11.589
75677SOL    HW128870   2.789   6.715  11.656
75677SOL    HW228871   2.652   6.706  11.591
75678SOL     OW28872   9.501  13.071   5.352
75678SOL    HW128873   9.417  13.082   5.309
75678SOL    HW228874   9.485  13.099   5.443
75679SOL     OW28875   3.697  13.631   0.274
75679SOL    HW128876   3.709  13.713   0.226
75679SOL    HW228877   3.754  13.568   0.229
75680SOL     OW28878  14.000   4.781  10.874
75680SOL    HW128879  14.015   4.720  10.947
75680SOL    HW228880  13.943   4.733  10.814
75681SOL     OW28881   9.274   6.222   8.698
75681SOL    HW128882   9.211   6.228   8.626
75681SOL    HW228883   9.321   6.305   8.697
75682SOL     OW28884   1.065   4.305  14.320
75682SOL    HW128885   1.136   4.340  14.267
75682SOL    HW228886   1.064   4.211  14.299
75683SOL     OW28887   2.548   3.934  11.995
75683SOL    HW128888   2.624   3.894  12.037
75683SOL    HW228889   2.510   3.989  12.063
75684SOL     OW28890  11.309   4.318   5.915
75684SOL    HW128891  11.303   4.237   5.964
75684SOL    HW228892  11.369   4.299   5.843
75685SOL     OW28893   3.113  14.563   6.254
75685SOL    HW128894   3.177  14.523   6.313
75685SOL    HW228895   3.147  14.651   6.237
75686SOL     OW28896  12.239   5.872  10.086
75686SOL    HW128897  12.178   5.946  10.087
75686SOL    HW228898  12.240   5.843   9.995
75687SOL     OW28899   0.746   4.580  10.722
75687SOL    HW128900   0.759   4.623  10.806
75687SOL    HW228901   0.813   4.617  10.665
75688SOL     OW28902   7.062  11.974  10.246
75688SOL    HW128903   7.122  11.934  10.184
75688SOL    HW228904   7.110  12.050  10.279
75689SOL     OW28905   0.246   8.747  14.686
75689SOL    HW128906   0.223   8.655  14.672
75689SOL    HW228907   0.341   8.750  14.673
75690SOL     OW28908   1.314  10.759   6.642
75690SOL    HW128909   1.315  10.724   6.731
75690SOL    HW228910   1.399  10.735   6.606
75691SOL     OW28911  13.284  10.155  10.298
75691SOL    HW128912  13.205  10.210  10.296
75691SOL    HW228913  13.298  10.137  10.391
75692SOL     OW28914  10.645  13.701   2.428
75692SOL    HW128915  10.580  13.744   2.372
75692SOL    HW228916  10.683  13.634   2.372
75693SOL     OW28917   7.571  14.126   0.655
75693SOL    HW128918   7.662  14.117   0.625
75693SOL    HW228919   7.579  14.153   0.746
75694SOL     OW28920   7.225   7.080   6.663
75694SOL    HW128921   7.204   7.000   6.616
75694SOL    HW228922   7.294   7.054   6.724
75695SOL     OW28923   0.263   2.415  12.206
75695SOL    HW128924   0.343   2.366  12.186
75695SOL    HW228925   0.208   2.353  12.253
75696SOL     OW28926  11.595  14.394   0.720
75696SOL    HW128927  11.540  14.366   0.647
75696SOL    HW228928  11.683  14.362   0.698
75697SOL     OW28929   7.516   2.431   9.119
75697SOL    HW128930   7.469   2.447   9.037
75697SOL    HW228931   7.448   2.402   9.180
75698SOL     OW28932  11.061   3.880   1.692
75698SOL    HW128933  11.119   3.953   1.670
75698SOL    HW228934  11.053   3.883   1.787
75699SOL     OW28935   6.411  11.868  12.503
75699SOL    HW128936   6.366  11.808  12.562
75699SOL    HW228937   6.369  11.854  12.418
75700SOL     OW28938   8.818   3.210   7.896
75700SOL    HW128939   8.800   3.220   7.803
75700SOL    HW228940   8.899   3.158   7.899
75701SOL     OW28941   1.205   8.315  14.018
75701SOL    HW128942   1.258   8.263  14.079
75701SOL    HW228943   1.269   8.361  13.964
75702SOL     OW28944  13.469   4.641   5.524
75702SOL    HW128945  13.388   4.692   5.525
75702SOL    HW228946  13.446   4.561   5.476
75703SOL     OW28947   9.074   8.241   4.425
75703SOL    HW128948   9.079   8.294   4.346
75703SOL    HW228949   9.002   8.279   4.476
75704SOL     OW28950   1.749   4.625   3.967
75704SOL    HW128951   1.670   4.585   3.930
75704SOL    HW228952   1.738   4.617   4.062
75705SOL     OW28953  12.322  10.431   9.914
75705SOL    HW128954  12.238  10.399   9.949
75705SOL    HW228955  12.304  10.522   9.891
75706SOL     OW28956   3.335   5.108  13.215
75706SOL    HW128957   3.338   5.201  13.237
75706SOL    HW228958   3.421   5.090  13.179
75707SOL     OW28959   3.955  12.349   5.161
75707SOL    HW128960   4.030  12.292   5.143
75707SOL    HW228961   3.982  12.435   5.131
75708SOL     OW28962   4.593   0.850  14.516
75708SOL    HW128963   4.533   0.919  14.488
75708SOL    HW228964   4.642   0.889  14.588
75709SOL     OW28965  10.448   5.114   2.919
75709SOL    HW128966  10.397   5.185   2.880
75709SOL    HW228967  10.382   5.052   2.951
75710SOL     OW28968   7.882  10.406  10.930
75710SOL    HW128969   7.974  10.389  10.908
75710SOL    HW228970   7.845  10.320  10.949
75711SOL     OW28971   4.261  11.841  13.808
75711SOL    HW128972   4.274  11.819  13.901
75711SOL    HW228973   4.334  11.799  13.763
75712SOL     OW28974   1.885   3.075  12.683
75712SOL    HW128975   1.922   3.072  12.772
75712SOL    HW228976   1.846   3.162  12.676
75713SOL     OW28977  10.265  10.626   8.656
75713SOL    HW128978  10.283  10.694   8.721
75713SOL    HW228979  10.208  10.669   8.592
75714SOL     OW28980   7.129   8.844  12.994
75714SOL    HW128981   7.052   8.801  13.031
75714SOL    HW228982   7.193   8.774  12.982
75715SOL     OW28983   5.035  14.236  13.063
75715SOL    HW128984   5.073  14.321  13.040
75715SOL    HW228985   4.947  14.256  13.094
75716SOL     OW28986  10.134   5.743   8.190
75716SOL    HW128987  10.211   5.691   8.210
75716SOL    HW228988  10.169   5.826   8.158
75717SOL     OW28989   6.778   7.654   6.051
75717SOL    HW128990   6.800   7.660   5.958
75717SOL    HW228991   6.855   7.616   6.092
75718SOL     OW28992   5.191   1.087  13.541
75718SOL    HW128993   5.250   1.065  13.614
75718SOL    HW228994   5.131   1.013  13.535
75719SOL     OW28995   5.467   8.153   1.221
75719SOL    HW128996   5.401   8.123   1.284
75719SOL    HW228997   5.473   8.082   1.157
75720SOL     OW28998   8.125   0.459  12.408
75720SOL    HW128999   8.213   0.427  12.392
75720SOL    HW229000   8.123   0.479  12.501
75721SOL     OW29001   5.801  11.657  11.417
75721SOL    HW129002   5.834  11.690  11.333
75721SOL    HW229003   5.790  11.735  11.471
75722SOL     OW29004   9.964   2.655  10.346
75722SOL    HW129005  10.038   2.640  10.287
75722SOL    HW229006   9.975   2.746  10.375
75723SOL     OW29007   6.032   6.452   8.081
75723SOL    HW129008   6.108   6.510   8.076
75723SOL    HW229009   6.057   6.374   8.032
75724SOL     OW29010  12.840  11.000   9.387
75724SOL    HW129011  12.927  10.960   9.380
75724SOL    HW229012  12.857  11.087   9.424
75725SOL     OW29013   3.252   0.821   6.914
75725SOL    HW129014   3.253   0.756   6.843
75725SOL    HW229015   3.344   0.847   6.923
75726SOL     OW29016  10.695   7.681   4.598
75726SOL    HW129017  10.616   7.709   4.645
75726SOL    HW229018  10.718   7.597   4.638
75727SOL     OW29019   6.211   9.874   6.701
75727SOL    HW129020   6.215   9.778   6.705
75727SOL    HW229021   6.117   9.894   6.704
75728SOL     OW29022   1.605  10.836   0.607
75728SOL    HW129023   1.581  10.782   0.532
75728SOL    HW229024   1.637  10.918   0.570
75729SOL     OW29025  14.568  13.359   7.331
75729SOL    HW129026  14.650  13.381   7.286
75729SOL    HW229027  14.501  13.408   7.283
75730SOL     OW29028  10.957  10.339   4.621
75730SOL    HW129029  10.988  10.391   4.548
75730SOL    HW229030  11.002  10.255   4.613
75731SOL     OW29031   0.462  11.932   5.680
75731SOL    HW129032   0.459  11.916   5.586
75731SOL    HW229033   0.549  11.968   5.695
75732SOL     OW29034   5.818  13.195  11.787
75732SOL    HW129035   5.835  13.221  11.696
75732SOL    HW229036   5.790  13.104  11.781
75733SOL     OW29037   4.537   8.147   4.875
75733SOL    HW129038   4.593   8.140   4.798
75733SOL    HW229039   4.483   8.068   4.872
75734SOL     OW29040  14.066   3.689   5.282
75734SOL    HW129041  14.150   3.725   5.253
75734SOL    HW229042  14.074   3.595   5.269
75735SOL     OW29043   1.160   2.821   6.669
75735SOL    HW129044   1.232   2.876   6.702
75735SOL    HW229045   1.178   2.735   6.706
75736SOL     OW29046  12.889   4.479   7.858
75736SOL    HW129047  12.966   4.534   7.869
75736SOL    HW229048  12.834   4.528   7.796
75737SOL     OW29049   6.011  14.053   8.394
75737SOL    HW129050   6.011  14.107   8.314
75737SOL    HW229051   6.104  14.037   8.411
75738SOL     OW29052  11.128   2.564  14.615
75738SOL    HW129053  11.117   2.656  14.637
75738SOL    HW229054  11.222   2.547  14.628
75739SOL     OW29055  12.593   9.442  10.850
75739SOL    HW129056  12.594   9.386  10.773
75739SOL    HW229057  12.507   9.484  10.848
75740SOL     OW29058   4.067   9.680   3.021
75740SOL    HW129059   3.994   9.740   3.012
75740SOL    HW229060   4.051   9.612   2.955
75741SOL     OW29061  11.448   0.235  12.687
75741SOL    HW129062  11.498   0.265  12.763
75741SOL    HW229063  11.514   0.208  12.623
75742SOL     OW29064  13.486   3.561  14.819
75742SOL    HW129065  13.411   3.505  14.840
75742SOL    HW229066  13.539   3.508  14.758
75743SOL     OW29067   3.306   4.862   1.106
75743SOL    HW129068   3.309   4.890   1.197
75743SOL    HW229069   3.306   4.767   1.110
75744SOL     OW29070   2.847   9.640  11.400
75744SOL    HW129071   2.853   9.640  11.305
75744SOL    HW229072   2.788   9.568  11.421
75745SOL     OW29073  10.558   5.855   1.081
75745SOL    HW129074  10.634   5.829   1.132
75745SOL    HW229075  10.528   5.774   1.040
75746SOL     OW29076   8.843   4.489   3.158
75746SOL    HW129077   8.813   4.486   3.067
75746SOL    HW229078   8.801   4.414   3.200
75747SOL     OW29079   1.709  11.260   5.032
75747SOL    HW129080   1.692  11.230   5.121
75747SOL    HW229081   1.647  11.212   4.978
75748SOL     OW29082   9.448   5.621   6.822
75748SOL    HW129083   9.507   5.619   6.747
75748SOL    HW229084   9.494   5.672   6.888
75749SOL     OW29085  11.267   1.141   3.817
75749SOL    HW129086  11.280   1.155   3.723
75749SOL    HW229087  11.272   1.228   3.855
75750SOL     OW29088   4.087   2.424  10.398
75750SOL    HW129089   4.150   2.496  10.400
75750SOL    HW229090   4.088   2.388  10.487
75751SOL     OW29091   8.476   2.002  12.196
75751SOL    HW129092   8.441   1.982  12.110
75751SOL    HW229093   8.553   2.057  12.179
75752SOL     OW29094   2.689  14.711  10.687
75752SOL    HW129095   2.749  14.704  10.613
75752SOL    HW229096   2.728  14.657  10.755
75753SOL     OW29097   4.545  12.045   7.392
75753SOL    HW129098   4.463  12.065   7.437
75753SOL    HW229099   4.519  12.019   7.304
75754SOL     OW29100  11.390   8.616   3.032
75754SOL    HW129101  11.373   8.582   3.120
75754SOL    HW229102  11.309   8.659   3.007
75755SOL     OW29103   9.563  11.013  12.332
75755SOL    HW129104   9.614  11.093  12.320
75755SOL    HW229105   9.472  11.043  12.333
75756SOL     OW29106   0.618   5.831   9.701
75756SOL    HW129107   0.704   5.835   9.661
75756SOL    HW229108   0.559   5.805   9.630
75757SOL     OW29109   3.575   7.208   5.020
75757SOL    HW129110   3.612   7.179   5.103
75757SOL    HW229111   3.646   7.197   4.957
75758SOL     OW29112  12.194   7.975   8.418
75758SOL    HW129113  12.152   8.060   8.436
75758SOL    HW229114  12.258   7.965   8.488
75759SOL     OW29115   0.717   6.488  10.945
75759SOL    HW129116   0.687   6.496  11.036
75759SOL    HW229117   0.783   6.418  10.948
75760SOL     OW29118  14.532   1.988   8.156
75760SOL    HW129119  14.458   2.039   8.122
75760SOL    HW229120  14.563   2.036   8.232
75761SOL     OW29121  11.235  13.717  12.259
75761SOL    HW129122  11.174  13.684  12.193
75761SOL    HW229123  11.194  13.797  12.292
75762SOL     OW29124   0.506   2.298  10.358
75762SOL    HW129125   0.483   2.206  10.374
75762SOL    HW229126   0.594   2.295  10.319
75763SOL     OW29127  12.681  13.161   9.887
75763SOL    HW129128  12.765  13.144   9.931
75763SOL    HW229129  12.699  13.142   9.794
75764SOL     OW29130   3.906  11.518   0.438
75764SOL    HW129131   3.995  11.541   0.414
75764SOL    HW229132   3.915  11.442   0.496
75765SOL     OW29133  10.832   0.228   5.796
75765SOL    HW129134  10.784   0.209   5.877
75765SOL    HW229135  10.764   0.238   5.729
75766SOL     OW29136   8.005   6.394   8.391
75766SOL    HW129137   7.976   6.303   8.389
75766SOL    HW229138   7.926   6.445   8.408
75767SOL     OW29139   8.230   7.754   3.221
75767SOL    HW129140   8.149   7.762   3.170
75767SOL    HW229141   8.254   7.844   3.242
75768SOL     OW29142  12.529   4.518   8.278
75768SOL    HW129143  12.512   4.493   8.370
75768SOL    HW229144  12.473   4.595   8.264
75769SOL     OW29145   7.200   9.356   9.377
75769SOL    HW129146   7.182   9.270   9.417
75769SOL    HW229147   7.121   9.407   9.394
75770SOL     OW29148  11.713   1.303   3.528
75770SOL    HW129149  11.769   1.345   3.462
75770SOL    HW229150  11.720   1.209   3.509
75771SOL     OW29151   2.646   8.111   5.192
75771SOL    HW129152   2.551   8.113   5.191
75771SOL    HW229153   2.671   8.183   5.250
75772SOL     OW29154   5.247  12.010  14.873
75772SOL    HW129155   5.263  11.965  14.790
75772SOL    HW229156   5.156  12.037  14.869
75773SOL     OW29157   5.285  11.698   9.053
75773SOL    HW129158   5.369  11.658   9.030
75773SOL    HW229159   5.226  11.670   8.983
75774SOL     OW29160   1.984   3.900   2.848
75774SOL    HW129161   1.911   3.870   2.903
75774SOL    HW229162   2.062   3.882   2.900
75775SOL     OW29163  14.769   4.451   9.888
75775SOL    HW129164  14.831   4.497   9.831
75775SOL    HW229165  14.782   4.488   9.974
75776SOL     OW29166  12.225  10.565   4.353
75776SOL    HW129167  12.281  10.493   4.323
75776SOL    HW229168  12.241  10.635   4.290
75777SOL     OW29169  14.724   5.938  14.468
75777SOL    HW129170  14.703   5.869  14.531
75777SOL    HW229171  14.807   5.911  14.430
75778SOL     OW29172   5.371   3.972  11.215
75778SOL    HW129173   5.454   4.017  11.229
75778SOL    HW229174   5.396   3.885  11.184
75779SOL     OW29175   1.686   7.884  13.241
75779SOL    HW129176   1.739   7.844  13.310
75779SOL    HW229177   1.597   7.885  13.276
75780SOL     OW29178   7.005   6.349  11.826
75780SOL    HW129179   6.973   6.359  11.915
75780SOL    HW229180   7.067   6.421  11.814
75781SOL     OW29181  11.324   1.787   6.030
75781SOL    HW129182  11.355   1.800   6.120
75781SOL    HW229183  11.381   1.842   5.977
75782SOL     OW29184   7.060  10.342   9.943
75782SOL    HW129185   7.071  10.289  10.022
75782SOL    HW229186   6.976  10.313   9.906
75783SOL     OW29187   7.371   1.356  14.087
75783SOL    HW129188   7.414   1.308  14.158
75783SOL    HW229189   7.382   1.448  14.111
75784SOL     OW29190   0.156   6.272   3.412
75784SOL    HW129191   0.207   6.208   3.362
75784SOL    HW229192   0.153   6.349   3.355
75785SOL     OW29193   9.473   3.012   9.713
75785SOL    HW129194   9.547   2.979   9.662
75785SOL    HW229195   9.508   3.021   9.802
75786SOL     OW29196  14.391   0.452   9.791
75786SOL    HW129197  14.464   0.411   9.744
75786SOL    HW229198  14.432   0.493   9.867
75787SOL     OW29199  14.088   2.333   2.086
75787SOL    HW129200  14.070   2.420   2.121
75787SOL    HW229201  14.070   2.341   1.992
75788SOL     OW29202   0.718  13.095   4.862
75788SOL    HW129203   0.724  13.001   4.846
75788SOL    HW229204   0.625  13.111   4.879
75789SOL     OW29205   8.121  13.938   1.710
75789SOL    HW129206   8.191  13.937   1.774
75789SOL    HW229207   8.083  14.026   1.717
75790SOL     OW29208   4.935   6.854  10.370
75790SOL    HW129209   4.989   6.922  10.410
75790SOL    HW229210   4.914   6.795  10.442
75791SOL     OW29211   4.615  11.384  14.733
75791SOL    HW129212   4.679  11.407  14.801
75791SOL    HW229213   4.546  11.449  14.744
75792SOL     OW29214   0.155   6.083  13.245
75792SOL    HW129215   0.139   5.998  13.285
75792SOL    HW229216   0.219   6.065  13.175
75793SOL     OW29217  12.794   8.947   3.809
75793SOL    HW129218  12.801   9.040   3.789
75793SOL    HW229219  12.881   8.912   3.792
75794SOL     OW29220  12.450   7.096   7.572
75794SOL    HW129221  12.534   7.127   7.605
75794SOL    HW229222  12.466   7.005   7.546
75795SOL     OW29223  14.603  11.598  13.204
75795SOL    HW129224  14.521  11.552  13.221
75795SOL    HW229225  14.575  11.685  13.174
75796SOL     OW29226   9.622   6.809   4.447
75796SOL    HW129227   9.598   6.724   4.484
75796SOL    HW229228   9.630   6.867   4.523
75797SOL     OW29229  10.789   7.460   7.969
75797SOL    HW129230  10.811   7.538   8.020
75797SOL    HW229231  10.755   7.493   7.886
75798SOL     OW29232  11.583   1.674   3.073
75798SOL    HW129233  11.560   1.702   2.984
75798SOL    HW229234  11.558   1.747   3.129
75799SOL     OW29235   9.337  12.525   5.690
75799SOL    HW129236   9.329  12.548   5.783
75799SOL    HW229237   9.261  12.567   5.649
75800SOL     OW29238   1.369  11.597  14.610
75800SOL    HW129239   1.318  11.673  14.638
75800SOL    HW229240   1.432  11.632  14.547
75801SOL     OW29241  11.394  10.927   9.081
75801SOL    HW129242  11.406  10.979   9.001
75801SOL    HW229243  11.393  10.836   9.050
75802SOL     OW29244  12.516  11.500   0.600
75802SOL    HW129245  12.534  11.547   0.519
75802SOL    HW229246  12.601  11.466   0.627
75803SOL     OW29247   0.182   9.544   7.148
75803SOL    HW129248   0.193   9.496   7.230
75803SOL    HW229249   0.253   9.608   7.148
75804SOL     OW29250  12.317   6.098   9.717
75804SOL    HW129251  12.308   6.006   9.743
75804SOL    HW229252  12.340   6.143   9.799
75805SOL     OW29253  10.183   1.789   1.047
75805SOL    HW129254  10.272   1.772   1.016
75805SOL    HW229255  10.126   1.754   0.979
75806SOL     OW29256   4.202  11.435  12.179
75806SOL    HW129257   4.130  11.478  12.224
75806SOL    HW229258   4.274  11.499  12.183
75807SOL     OW29259  10.215   8.929   3.476
75807SOL    HW129260  10.253   8.855   3.524
75807SOL    HW229261  10.125   8.936   3.511
75808SOL     OW29262   9.768   1.409   7.410
75808SOL    HW129263   9.849   1.405   7.359
75808SOL    HW229264   9.793   1.375   7.496
75809SOL     OW29265   8.117   6.925   1.341
75809SOL    HW129266   8.023   6.918   1.326
75809SOL    HW229267   8.156   6.892   1.259
75810SOL     OW29268   8.095  10.676   1.468
75810SOL    HW129269   8.040  10.744   1.429
75810SOL    HW229270   8.085  10.600   1.409
75811SOL     OW29271   2.971   8.828  10.684
75811SOL    HW129272   3.032   8.885  10.637
75811SOL    HW229273   3.024   8.787  10.753
75812SOL     OW29274   4.721   4.457   6.687
75812SOL    HW129275   4.750   4.446   6.777
75812SOL    HW229276   4.790   4.416   6.634
75813SOL     OW29277   3.315   9.452   6.649
75813SOL    HW129278   3.276   9.375   6.606
75813SOL    HW229279   3.397   9.420   6.685
75814SOL     OW29280   6.365  13.644   2.884
75814SOL    HW129281   6.329  13.710   2.943
75814SOL    HW229282   6.340  13.674   2.797
75815SOL     OW29283   9.977  13.407  10.065
75815SOL    HW129284   9.886  13.396  10.038
75815SOL    HW229285   9.972  13.450  10.150
75816SOL     OW29286   6.195  10.439   0.788
75816SOL    HW129287   6.170  10.442   0.880
75816SOL    HW229288   6.290  10.427   0.789
75817SOL     OW29289  10.958   2.768  12.756
75817SOL    HW129290  10.913   2.800  12.834
75817SOL    HW229291  11.009   2.844  12.726
75818SOL     OW29292   0.500   8.475  14.268
75818SOL    HW129293   0.416   8.445  14.233
75818SOL    HW229294   0.522   8.411  14.335
75819SOL     OW29295  11.227   6.389   5.890
75819SOL    HW129296  11.269   6.319   5.841
75819SOL    HW229297  11.281   6.466   5.872
75820SOL     OW29298  11.811   0.329   0.529
75820SOL    HW129299  11.784   0.406   0.480
75820SOL    HW229300  11.840   0.267   0.463
75821SOL     OW29301  11.062  13.536  14.807
75821SOL    HW129302  10.992  13.583  14.762
75821SOL    HW229303  11.060  13.448  14.771
75822SOL     OW29304  12.235  12.141  10.750
75822SOL    HW129305  12.240  12.045  10.746
75822SOL    HW229306  12.265  12.163  10.838
75823SOL     OW29307  10.938   0.406   9.699
75823SOL    HW129308  11.013   0.367   9.654
75823SOL    HW229309  10.862   0.372   9.654
75824SOL     OW29310  11.352   9.046   4.167
75824SOL    HW129311  11.281   9.037   4.104
75824SOL    HW229312  11.347   8.968   4.221
75825SOL     OW29313   8.364   4.500   4.121
75825SOL    HW129314   8.275   4.513   4.087
75825SOL    HW229315   8.419   4.500   4.043
75826SOL     OW29316  11.712   0.169   1.317
75826SOL    HW129317  11.758   0.106   1.262
75826SOL    HW229318  11.743   0.151   1.405
75827SOL     OW29319  12.585   4.512   9.443
75827SOL    HW129320  12.595   4.446   9.374
75827SOL    HW229321  12.491   4.516   9.459
75828SOL     OW29322  13.115  13.248  13.743
75828SOL    HW129323  13.098  13.168  13.694
75828SOL    HW229324  13.029  13.275  13.776
75829SOL     OW29325  14.201  13.505   8.308
75829SOL    HW129326  14.283  13.554   8.294
75829SOL    HW229327  14.227  13.431   8.363
75830SOL     OW29328  12.492   1.989   8.735
75830SOL    HW129329  12.397   1.983   8.721
75830SOL    HW229330  12.518   2.068   8.687
75831SOL     OW29331  10.931   3.836  13.050
75831SOL    HW129332  11.003   3.864  13.105
75831SOL    HW229333  10.961   3.753  13.012
75832SOL     OW29334   6.061   7.173   5.254
75832SOL    HW129335   5.983   7.165   5.307
75832SOL    HW229336   6.041   7.123   5.174
75833SOL     OW29337  11.216  10.125   2.612
75833SOL    HW129338  11.277  10.052   2.598
75833SOL    HW229339  11.150  10.090   2.671
75834SOL     OW29340   3.183  12.839  12.059
75834SOL    HW129341   3.184  12.745  12.044
75834SOL    HW229342   3.091  12.860  12.076
75835SOL     OW29343   2.186   3.263   2.959
75835SOL    HW129344   2.108   3.314   2.937
75835SOL    HW229345   2.190   3.265   3.055
75836SOL     OW29346  13.395   7.148  12.388
75836SOL    HW129347  13.443   7.115  12.464
75836SOL    HW229348  13.341   7.219  12.422
75837SOL     OW29349   7.721   4.249  12.413
75837SOL    HW129350   7.758   4.174  12.459
75837SOL    HW229351   7.642   4.214  12.371
75838SOL     OW29352   6.581  12.820  10.701
75838SOL    HW129353   6.506  12.874  10.727
75838SOL    HW229354   6.657  12.866  10.735
75839SOL     OW29355  12.224   1.263   7.850
75839SOL    HW129356  12.187   1.186   7.894
75839SOL    HW229357  12.311   1.273   7.889
75840SOL     OW29358   4.901   7.822  14.774
75840SOL    HW129359   4.939   7.796  14.857
75840SOL    HW229360   4.853   7.744  14.744
75841SOL     OW29361   7.008  13.660   9.684
75841SOL    HW129362   7.060  13.707   9.749
75841SOL    HW229363   6.956  13.727   9.641
75842SOL     OW29364   2.169   3.165   5.092
75842SOL    HW129365   2.172   3.159   5.188
75842SOL    HW229366   2.158   3.075   5.062
75843SOL     OW29367  11.513   5.031   3.722
75843SOL    HW129368  11.419   5.041   3.711
75843SOL    HW229369  11.537   5.094   3.789
75844SOL     OW29370  10.225  12.150  10.238
75844SOL    HW129371  10.153  12.094  10.208
75844SOL    HW229372  10.208  12.234  10.196
75845SOL     OW29373   4.062   1.790   6.857
75845SOL    HW129374   3.977   1.772   6.899
75845SOL    HW229375   4.059   1.740   6.776
75846SOL     OW29376  10.555   8.878   2.735
75846SOL    HW129377  10.521   8.789   2.733
75846SOL    HW229378  10.506   8.924   2.666
75847SOL     OW29379  12.583  12.515  12.257
75847SOL    HW129380  12.616  12.558  12.179
75847SOL    HW229381  12.490  12.539  12.260
75848SOL     OW29382   0.370  11.642   2.694
75848SOL    HW129383   0.409  11.670   2.611
75848SOL    HW229384   0.280  11.673   2.690
75849SOL     OW29385   5.721  13.926   7.894
75849SOL    HW129386   5.745  13.857   7.831
75849SOL    HW229387   5.805  13.959   7.925
75850SOL     OW29388   4.156   1.052   9.011
75850SOL    HW129389   4.116   1.031   8.927
75850SOL    HW229390   4.152   0.971   9.061
75851SOL     OW29391  12.645   1.769   6.152
75851SOL    HW129392  12.638   1.714   6.074
75851SOL    HW229393  12.614   1.855   6.124
75852SOL     OW29394   7.306   2.709   5.456
75852SOL    HW129395   7.363   2.652   5.404
75852SOL    HW229396   7.344   2.797   5.446
75853SOL     OW29397   2.131   6.498  14.801
75853SOL    HW129398   2.190   6.432  14.765
75853SOL    HW229399   2.152   6.501   0.018
75854SOL     OW29400   1.013   6.469   5.014
75854SOL    HW129401   1.097   6.467   5.060
75854SOL    HW229402   1.033   6.512   4.930
75855SOL     OW29403   5.034   8.012   2.789
75855SOL    HW129404   5.055   7.925   2.822
75855SOL    HW229405   5.054   8.071   2.862
75856SOL     OW29406   5.092   4.856   1.351
75856SOL    HW129407   5.108   4.908   1.430
75856SOL    HW229408   5.106   4.918   1.279
75857SOL     OW29409  13.637   4.025  14.523
75857SOL    HW129410  13.544   4.024  14.545
75857SOL    HW229411  13.672   3.946  14.565
75858SOL     OW29412   9.853   4.841   7.297
75858SOL    HW129413   9.826   4.826   7.206
75858SOL    HW229414   9.771   4.861   7.343
75859SOL     OW29415   3.257  10.215   3.002
75859SOL    HW129416   3.198  10.290   3.006
75859SOL    HW229417   3.200  10.140   2.986
75860SOL     OW29418  14.118  10.697   3.376
75860SOL    HW129419  14.044  10.637   3.381
75860SOL    HW229420  14.153  10.700   3.465
75861SOL     OW29421   3.768  14.793  13.674
75861SOL    HW129422   3.799  14.777  13.763
75861SOL    HW229423   3.844  14.775  13.618
75862SOL     OW29424   2.485   6.203   2.060
75862SOL    HW129425   2.567   6.200   2.110
75862SOL    HW229426   2.430   6.265   2.108
75863SOL     OW29427   6.668   5.813   1.981
75863SOL    HW129428   6.714   5.856   2.053
75863SOL    HW229429   6.602   5.758   2.025
75864SOL     OW29430   3.923  13.719  12.706
75864SOL    HW129431   3.894  13.777  12.776
75864SOL    HW229432   3.929  13.633  12.748
75865SOL     OW29433   2.208  14.792  13.412
75865SOL    HW129434   2.245  14.705  13.424
75865SOL    HW229435   2.118  14.786  13.443
75866SOL     OW29436   6.211   4.513   8.921
75866SOL    HW129437   6.182   4.595   8.961
75866SOL    HW229438   6.286   4.538   8.868
75867SOL     OW29439   1.067   6.679   4.406
75867SOL    HW129440   1.078   6.598   4.458
75867SOL    HW229441   1.154   6.694   4.369
75868SOL     OW29442   2.831  11.505   0.527
75868SOL    HW129443   2.924  11.487   0.544
75868SOL    HW229444   2.784  11.434   0.569
75869SOL     OW29445  14.699   7.104  13.963
75869SOL    HW129446  14.637   7.126  13.895
75869SOL    HW229447  14.702   7.182  14.019
75870SOL     OW29448   7.213   1.019  14.819
75870SOL    HW129449   7.185   1.048   0.029
75870SOL    HW229450   7.180   1.086  14.759
75871SOL     OW29451   5.584   1.379   2.881
75871SOL    HW129452   5.534   1.417   2.953
75871SOL    HW229453   5.556   1.288   2.877
75872SOL     OW29454  13.474   8.963   7.757
75872SOL    HW129455  13.542   8.942   7.693
75872SOL    HW229456  13.392   8.944   7.712
75873SOL     OW29457   6.089   3.323   6.385
75873SOL    HW129458   6.126   3.261   6.322
75873SOL    HW229459   6.053   3.393   6.331
75874SOL     OW29460   8.387   7.117   5.011
75874SOL    HW129461   8.388   7.052   4.941
75874SOL    HW229462   8.330   7.186   4.979
75875SOL     OW29463   2.496   3.444  13.807
75875SOL    HW129464   2.523   3.434  13.715
75875SOL    HW229465   2.578   3.458  13.854
75876SOL     OW29466   3.175   2.806   4.553
75876SOL    HW129467   3.143   2.749   4.482
75876SOL    HW229468   3.265   2.778   4.567
75877SOL     OW29469   8.247  13.374  14.287
75877SOL    HW129470   8.169  13.412  14.326
75877SOL    HW229471   8.273  13.305  14.347
75878SOL     OW29472  11.884  14.653   2.331
75878SOL    HW129473  11.830  14.593   2.281
75878SOL    HW229474  11.858  14.740   2.301
75879SOL     OW29475   1.349   5.351   7.981
75879SOL    HW129476   1.345   5.291   8.056
75879SOL    HW229477   1.265   5.398   7.984
75880SOL     OW29478   2.116   9.201   5.226
75880SOL    HW129479   2.152   9.288   5.240
75880SOL    HW229480   2.138   9.180   5.135
75881SOL     OW29481  11.593  14.485  11.400
75881SOL    HW129482  11.566  14.405  11.445
75881SOL    HW229483  11.688  14.489  11.414
75882SOL     OW29484  11.322   3.425  12.616
75882SOL    HW129485  11.378   3.435  12.693
75882SOL    HW229486  11.283   3.338  12.625
75883SOL     OW29487  12.863   4.639   1.705
75883SOL    HW129488  12.951   4.635   1.667
75883SOL    HW229489  12.867   4.582   1.781
75884SOL     OW29490  10.195   0.987  12.534
75884SOL    HW129491  10.286   0.964  12.514
75884SOL    HW229492  10.185   1.076  12.498
75885SOL     OW29493   5.277   7.582   4.387
75885SOL    HW129494   5.304   7.492   4.402
75885SOL    HW229495   5.186   7.577   4.359
75886SOL     OW29496   3.505   0.916   0.475
75886SOL    HW129497   3.503   0.975   0.550
75886SOL    HW229498   3.413   0.898   0.455
75887SOL     OW29499  10.953  11.381   6.658
75887SOL    HW129500  10.874  11.361   6.608
75887SOL    HW229501  10.924  11.383   6.749
75888SOL     OW29502   9.441   9.129  10.495
75888SOL    HW129503   9.462   9.129  10.588
75888SOL    HW229504   9.505   9.070  10.456
75889SOL     OW29505   3.513  10.870   1.256
75889SOL    HW129506   3.518  10.885   1.350
75889SOL    HW229507   3.569  10.937   1.217
75890SOL     OW29508   0.438   8.682   4.817
75890SOL    HW129509   0.383   8.675   4.739
75890SOL    HW229510   0.377   8.676   4.890
75891SOL     OW29511  12.670   0.519   3.536
75891SOL    HW129512  12.707   0.431   3.536
75891SOL    HW229513  12.618   0.524   3.456
75892SOL     OW29514  12.882  11.693  10.994
75892SOL    HW129515  12.964  11.660  11.030
75892SOL    HW229516  12.815  11.665  11.057
75893SOL     OW29517  10.214   7.139   9.283
75893SOL    HW129518  10.166   7.144   9.201
75893SOL    HW229519  10.219   7.045   9.303
75894SOL     OW29520   2.818  12.176  12.807
75894SOL    HW129521   2.907  12.160  12.838
75894SOL    HW229522   2.823  12.163  12.712
75895SOL     OW29523   1.258  12.546   5.207
75895SOL    HW129524   1.246  12.638   5.230
75895SOL    HW229525   1.303  12.548   5.123
75896SOL     OW29526   6.712   7.615   6.971
75896SOL    HW129527   6.683   7.625   7.062
75896SOL    HW229528   6.808   7.616   6.977
75897SOL     OW29529   8.874   2.678   8.929
75897SOL    HW129530   8.874   2.710   8.839
75897SOL    HW229531   8.801   2.724   8.971
75898SOL     OW29532   6.799  14.321   5.985
75898SOL    HW129533   6.722  14.263   5.991
75898SOL    HW229534   6.769  14.404   6.023
75899SOL     OW29535   2.465   3.426   5.320
75899SOL    HW129536   2.538   3.406   5.261
75899SOL    HW229537   2.496   3.501   5.371
75900SOL     OW29538   7.080   4.597  13.449
75900SOL    HW129539   7.089   4.575  13.542
75900SOL    HW229540   7.142   4.669  13.436
75901SOL     OW29541  11.032   0.641   9.459
75901SOL    HW129542  10.958   0.586   9.434
75901SOL    HW229543  11.109   0.593   9.428
75902SOL     OW29544   8.450   8.446   5.565
75902SOL    HW129545   8.493   8.432   5.649
75902SOL    HW229546   8.372   8.390   5.568
75903SOL     OW29547   1.897   8.947   5.861
75903SOL    HW129548   1.864   8.920   5.946
75903SOL    HW229549   1.819   8.956   5.806
75904SOL     OW29550   9.460   6.309  11.871
75904SOL    HW129551   9.473   6.387  11.817
75904SOL    HW229552   9.548   6.274  11.883
75905SOL     OW29553   2.568  14.173  10.186
75905SOL    HW129554   2.550  14.116  10.260
75905SOL    HW229555   2.497  14.237  10.186
75906SOL     OW29556   9.964  12.467   1.075
75906SOL    HW129557   9.889  12.509   1.118
75906SOL    HW229558   9.983  12.390   1.129
75907SOL     OW29559   7.628   7.994   8.999
75907SOL    HW129560   7.671   7.908   9.003
75907SOL    HW229561   7.567   7.994   9.072
75908SOL     OW29562   2.707  11.641   8.594
75908SOL    HW129563   2.727  11.731   8.568
75908SOL    HW229564   2.750  11.630   8.679
75909SOL     OW29565   2.689   4.573  13.334
75909SOL    HW129566   2.697   4.660  13.373
75909SOL    HW229567   2.686   4.514  13.409
75910SOL     OW29568   0.030  10.808   9.996
75910SOL    HW129569   0.031  10.873   9.926
75910SOL    HW229570   0.017  10.725   9.951
75911SOL     OW29571   5.132   1.025   2.428
75911SOL    HW129572   5.135   1.019   2.333
75911SOL    HW229573   5.137   1.119   2.446
75912SOL     OW29574  13.757  14.873  12.430
75912SOL    HW129575  13.841   0.033  12.404
75912SOL    HW229576  13.748  14.793  12.379
75913SOL     OW29577   1.114   9.984   9.986
75913SOL    HW129578   1.204   9.970   9.954
75913SOL    HW229579   1.063   9.999   9.906
75914SOL     OW29580   4.595  11.378   7.090
75914SOL    HW129581   4.558  11.372   7.178
75914SOL    HW229582   4.689  11.378   7.103
75915SOL     OW29583  13.834  13.825  11.889
75915SOL    HW129584  13.882  13.776  11.956
75915SOL    HW229585  13.846  13.775  11.809
75916SOL     OW29586   3.298   9.431   2.306
75916SOL    HW129587   3.248   9.402   2.382
75916SOL    HW229588   3.322   9.350   2.261
75917SOL     OW29589  10.057  12.163   0.532
75917SOL    HW129590  10.090  12.076   0.509
75917SOL    HW229591  10.119  12.195   0.598
75918SOL     OW29592  10.029  13.177   7.376
75918SOL    HW129593   9.986  13.230   7.443
75918SOL    HW229594  10.019  13.087   7.406
75919SOL     OW29595   4.762   8.261   9.201
75919SOL    HW129596   4.684   8.299   9.240
75919SOL    HW229597   4.742   8.258   9.107
75920SOL     OW29598   8.085   9.022  14.330
75920SOL    HW129599   8.179   9.007  14.336
75920SOL    HW229600   8.062   8.996  14.240
75921SOL     OW29601   1.590   4.194  13.263
75921SOL    HW129602   1.520   4.260  13.262
75921SOL    HW229603   1.559   4.127  13.324
75922SOL     OW29604   5.167   4.816   6.638
75922SOL    HW129605   5.103   4.852   6.700
75922SOL    HW229606   5.202   4.893   6.593
75923SOL     OW29607  11.083   9.782  13.048
75923SOL    HW129608  11.145   9.794  12.976
75923SOL    HW229609  11.104   9.851  13.110
75924SOL     OW29610   1.818   1.431   3.547
75924SOL    HW129611   1.895   1.376   3.533
75924SOL    HW229612   1.850   1.521   3.538
75925SOL     OW29613   7.754  12.219   5.914
75925SOL    HW129614   7.664  12.252   5.911
75925SOL    HW229615   7.746  12.127   5.938
75926SOL     OW29616   9.378   9.555   4.010
75926SOL    HW129617   9.418   9.507   3.937
75926SOL    HW229618   9.412   9.644   4.001
75927SOL     OW29619   6.413   1.413  11.202
75927SOL    HW129620   6.369   1.396  11.285
75927SOL    HW229621   6.389   1.339  11.146
75928SOL     OW29622   0.683  14.472   0.766
75928SOL    HW129623   0.607  14.431   0.723
75928SOL    HW229624   0.663  14.565   0.767
75929SOL     OW29625  13.139   9.174  12.933
75929SOL    HW129626  13.197   9.231  12.883
75929SOL    HW229627  13.055   9.219  12.932
75930SOL     OW29628   3.699   4.608  11.622
75930SOL    HW129629   3.746   4.558  11.555
75930SOL    HW229630   3.750   4.594  11.702
75931SOL     OW29631   8.343   5.386   4.509
75931SOL    HW129632   8.268   5.326   4.507
75931SOL    HW229633   8.397   5.354   4.581
75932SOL     OW29634   9.692   5.935   3.882
75932SOL    HW129635   9.650   5.994   3.820
75932SOL    HW229636   9.723   5.862   3.828
75933SOL     OW29637   8.135   5.994   2.954
75933SOL    HW129638   8.201   5.991   2.885
75933SOL    HW229639   8.112   5.902   2.970
75934SOL     OW29640   3.097  12.344  12.813
75934SOL    HW129641   3.087  12.438  12.825
75934SOL    HW229642   3.190  12.332  12.791
75935SOL     OW29643   8.354   0.309  13.912
75935SOL    HW129644   8.280   0.347  13.961
75935SOL    HW229645   8.432   0.343  13.956
75936SOL     OW29646   0.815  11.653   7.084
75936SOL    HW129647   0.741  11.594   7.101
75936SOL    HW229648   0.884  11.622   7.142
75937SOL     OW29649  11.741   0.397   4.995
75937SOL    HW129650  11.808   0.410   5.062
75937SOL    HW229651  11.674   0.343   5.038
75938SOL     OW29652   3.720   8.134   1.650
75938SOL    HW129653   3.783   8.201   1.624
75938SOL    HW229654   3.678   8.108   1.568
75939SOL     OW29655   0.699  13.107   2.455
75939SOL    HW129656   0.775  13.051   2.472
75939SOL    HW229657   0.638  13.052   2.406
75940SOL     OW29658   5.861   9.012   7.697
75940SOL    HW129659   5.816   9.000   7.781
75940SOL    HW229660   5.934   9.071   7.717
75941SOL     OW29661   1.374  14.512  13.122
75941SOL    HW129662   1.467  14.491  13.128
75941SOL    HW229663   1.348  14.534  13.211
75942SOL     OW29664   5.224  10.519  13.652
75942SOL    HW129665   5.259  10.455  13.714
75942SOL    HW229666   5.194  10.592  13.706
75943SOL     OW29667   9.053   1.200  14.661
75943SOL    HW129668   9.034   1.213  14.568
75943SOL    HW229669   9.118   1.267  14.682
75944SOL     OW29670  14.685  13.832  11.303
75944SOL    HW129671  14.608  13.794  11.261
75944SOL    HW229672  14.675  13.927  11.292
75945SOL     OW29673   0.235   8.226  12.291
75945SOL    HW129674   0.327   8.211  12.312
75945SOL    HW229675   0.198   8.261  12.372
75946SOL     OW29676   1.570   1.701   3.403
75946SOL    HW129677   1.606   1.666   3.322
75946SOL    HW229678   1.493   1.752   3.376
75947SOL     OW29679   3.848   2.727  11.640
75947SOL    HW129680   3.869   2.744  11.732
75947SOL    HW229681   3.930   2.742  11.593
75948SOL     OW29682  11.898   2.505   4.443
75948SOL    HW129683  11.807   2.508   4.474
75948SOL    HW229684  11.922   2.412   4.449
75949SOL     OW29685   4.440  11.546   8.399
75949SOL    HW129686   4.398  11.585   8.322
75949SOL    HW229687   4.498  11.479   8.364
75950SOL     OW29688   0.780   6.543  11.942
75950SOL    HW129689   0.849   6.524  11.878
75950SOL    HW229690   0.741   6.458  11.961
75951SOL     OW29691   0.097  10.939   1.893
75951SOL    HW129692   0.115  10.949   1.987
75951SOL    HW229693   0.092  10.844   1.880
75952SOL     OW29694   8.091   7.464  14.466
75952SOL    HW129695   8.133   7.451  14.380
75952SOL    HW229696   8.148   7.419  14.528
75953SOL     OW29697  14.019   4.079   6.551
75953SOL    HW129698  13.944   4.081   6.611
75953SOL    HW229699  14.042   3.987   6.545
75954SOL     OW29700   6.076   6.577   3.521
75954SOL    HW129701   6.029   6.657   3.543
75954SOL    HW229702   6.139   6.566   3.592
75955SOL     OW29703   3.037   9.411   3.197
75955SOL    HW129704   2.993   9.493   3.221
75955SOL    HW229705   3.044   9.363   3.280
75956SOL     OW29706   2.060  12.607   2.624
75956SOL    HW129707   2.051  12.533   2.684
75956SOL    HW229708   2.023  12.576   2.541
75957SOL     OW29709   7.140   1.303   8.289
75957SOL    HW129710   7.055   1.261   8.304
75957SOL    HW229711   7.202   1.249   8.339
75958SOL     OW29712   0.988   3.046  11.582
75958SOL    HW129713   1.039   3.056  11.662
75958SOL    HW229714   1.016   3.118  11.526
75959SOL     OW29715   2.157   9.007   6.331
75959SOL    HW129716   2.217   9.081   6.340
75959SOL    HW229717   2.204   8.946   6.273
75960SOL     OW29718   0.914   0.229   0.791
75960SOL    HW129719   0.914   0.199   0.882
75960SOL    HW229720   0.996   0.278   0.782
75961SOL     OW29721   4.640  11.657   8.719
75961SOL    HW129722   4.663  11.627   8.631
75961SOL    HW229723   4.705  11.726   8.738
75962SOL     OW29724  13.424  14.407   7.847
75962SOL    HW129725  13.504  14.356   7.835
75962SOL    HW229726  13.375  14.394   7.766
75963SOL     OW29727   7.862   1.288   7.777
75963SOL    HW129728   7.844   1.195   7.788
75963SOL    HW229729   7.883   1.319   7.865
75964SOL     OW29730   2.444  10.408   2.333
75964SOL    HW129731   2.431  10.488   2.282
75964SOL    HW229732   2.427  10.433   2.423
75965SOL     OW29733   0.737  12.288   3.170
75965SOL    HW129734   0.647  12.304   3.199
75965SOL    HW229735   0.779  12.374   3.177
75966SOL     OW29736  13.429  10.630   9.004
75966SOL    HW129737  13.341  10.641   9.041
75966SOL    HW229738  13.455  10.542   9.032
75967SOL     OW29739   9.882  10.489  13.253
75967SOL    HW129740   9.887  10.534  13.337
75967SOL    HW229741   9.814  10.535  13.204
75968SOL     OW29742   5.895   8.525   1.607
75968SOL    HW129743   5.918   8.603   1.657
75968SOL    HW229744   5.911   8.453   1.668
75969SOL     OW29745   7.687   4.775   8.445
75969SOL    HW129746   7.646   4.690   8.461
75969SOL    HW229747   7.774   4.754   8.412
75970SOL     OW29748  11.492   6.817   1.027
75970SOL    HW129749  11.443   6.900   1.026
75970SOL    HW229750  11.494   6.792   1.119
75971SOL     OW29751   6.915  13.185  14.064
75971SOL    HW129752   6.998  13.198  14.110
75971SOL    HW229753   6.927  13.106  14.013
75972SOL     OW29754   1.870   7.711  11.348
75972SOL    HW129755   1.957   7.687  11.379
75972SOL    HW229756   1.868   7.683  11.256
75973SOL     OW29757   1.389   0.489   8.081
75973SOL    HW129758   1.304   0.529   8.098
75973SOL    HW229759   1.399   0.495   7.986
75974SOL     OW29760   5.074  10.367   1.742
75974SOL    HW129761   5.129  10.363   1.820
75974SOL    HW229762   5.086  10.456   1.709
75975SOL     OW29763   8.189  13.397   2.432
75975SOL    HW129764   8.274  13.367   2.463
75975SOL    HW229765   8.169  13.473   2.485
75976SOL     OW29766   2.441   3.621   2.632
75976SOL    HW129767   2.363   3.652   2.587
75976SOL    HW229768   2.420   3.530   2.656
75977SOL     OW29769   4.838   8.191   6.694
75977SOL    HW129770   4.912   8.177   6.635
75977SOL    HW229771   4.765   8.143   6.653
75978SOL     OW29772   5.924   1.827  12.937
75978SOL    HW129773   5.831   1.833  12.916
75978SOL    HW229774   5.960   1.770  12.869
75979SOL     OW29775  14.730  10.154  12.896
75979SOL    HW129776  14.686  10.081  12.938
75979SOL    HW229777  14.784  10.114  12.828
75980SOL     OW29778   8.899   5.027  11.047
75980SOL    HW129779   8.976   5.030  10.991
75980SOL    HW229780   8.825   5.032  10.986
75981SOL     OW29781  13.640   3.825   9.240
75981SOL    HW129782  13.545   3.830   9.250
75981SOL    HW229783  13.655   3.831   9.146
75982SOL     OW29784  14.697   0.924  14.342
75982SOL    HW129785  14.733   1.012  14.331
75982SOL    HW229786  14.604   0.933  14.319
75983SOL     OW29787  12.909  13.960   5.936
75983SOL    HW129788  12.927  13.944   6.029
75983SOL    HW229789  12.946  14.047   5.919
75984SOL     OW29790   3.786  14.441   0.754
75984SOL    HW129791   3.699  14.409   0.780
75984SOL    HW229792   3.845  14.371   0.780
75985SOL     OW29793  13.308  13.574   0.349
75985SOL    HW129794  13.394  13.533   0.344
75985SOL    HW229795  13.293  13.586   0.443
75986SOL     OW29796   4.331   6.960  11.966
75986SOL    HW129797   4.408   6.916  12.001
75986SOL    HW229798   4.257   6.906  11.995
75987SOL     OW29799   2.618   0.078  12.569
75987SOL    HW129800   2.674   0.003  12.588
75987SOL    HW229801   2.536   0.060  12.615
75988SOL     OW29802   2.401   3.838   5.300
75988SOL    HW129803   2.434   3.907   5.357
75988SOL    HW229804   2.415   3.757   5.349
75989SOL     OW29805  13.606   0.689   6.606
75989SOL    HW129806  13.523   0.661   6.568
75989SOL    HW229807  13.592   0.781   6.628
75990SOL     OW29808  11.068  10.350   7.499
75990SOL    HW129809  11.157  10.372   7.471
75990SOL    HW229810  11.071  10.256   7.519
75991SOL     OW29811   9.539   9.731  12.463
75991SOL    HW129812   9.502   9.753  12.549
75991SOL    HW229813   9.615   9.675  12.483
75992SOL     OW29814   4.762  10.786  10.006
75992SOL    HW129815   4.823  10.728  10.050
75992SOL    HW229816   4.782  10.873  10.041
75993SOL     OW29817  11.410   7.956   5.927
75993SOL    HW129818  11.481   7.987   5.984
75993SOL    HW229819  11.377   7.877   5.971
75994SOL     OW29820   6.760  11.875  14.407
75994SOL    HW129821   6.821  11.935  14.366
75994SOL    HW229822   6.720  11.925  14.479
75995SOL     OW29823   3.486   0.787   6.225
75995SOL    HW129824   3.555   0.724   6.203
75995SOL    HW229825   3.503   0.862   6.169
75996SOL     OW29826   0.008   9.573   2.659
75996SOL    HW129827   0.025   9.530   2.575
75996SOL    HW229828   0.060   9.523   2.722
75997SOL     OW29829   9.062   8.590   1.630
75997SOL    HW129830   9.110   8.600   1.548
75997SOL    HW229831   9.122   8.623   1.697
75998SOL     OW29832   7.952   5.134   8.126
75998SOL    HW129833   7.911   5.190   8.192
75998SOL    HW229834   7.879   5.110   8.068
75999SOL     OW29835   5.851   1.817   8.626
75999SOL    HW129836   5.947   1.813   8.629
75999SOL    HW229837   5.823   1.776   8.708
76000SOL     OW29838   0.864   8.720   9.078
76000SOL    HW129839   0.944   8.742   9.127
76000SOL    HW229840   0.847   8.798   9.025
76001SOL     OW29841   6.217   3.922   8.949
76001SOL    HW129842   6.224   3.870   8.869
76001SOL    HW229843   6.250   4.008   8.924
76002SOL     OW29844   7.160   8.387   7.244
76002SOL    HW129845   7.204   8.314   7.289
76002SOL    HW229846   7.121   8.438   7.315
76003SOL     OW29847   0.071   0.592   2.891
76003SOL    HW129848   0.077   0.498   2.872
76003SOL    HW229849   0.160   0.618   2.913
76004SOL     OW29850   3.582   9.802   9.611
76004SOL    HW129851   3.598   9.830   9.701
76004SOL    HW229852   3.667   9.810   9.568
76005SOL     OW29853  11.708   3.578   4.453
76005SOL    HW129854  11.671   3.617   4.532
76005SOL    HW229855  11.656   3.614   4.381
76006SOL     OW29856   8.833   2.755   2.500
76006SOL    HW129857   8.752   2.724   2.461
76006SOL    HW229858   8.838   2.711   2.584
76007SOL     OW29859  11.691   5.105   3.085
76007SOL    HW129860  11.625   5.051   3.041
76007SOL    HW229861  11.774   5.068   3.059
76008SOL     OW29862   5.553   9.120  13.049
76008SOL    HW129863   5.501   9.196  13.074
76008SOL    HW229864   5.551   9.119  12.953
76009SOL     OW29865   5.824  12.812   5.625
76009SOL    HW129866   5.752  12.832   5.684
76009SOL    HW229867   5.790  12.743   5.568
76010SOL     OW29868   0.706  13.093   1.480
76010SOL    HW129869   0.705  13.004   1.516
76010SOL    HW229870   0.617  13.107   1.447
76011SOL     OW29871   1.388   2.360  10.600
76011SOL    HW129872   1.390   2.267  10.618
76011SOL    HW229873   1.301   2.388  10.628
76012SOL     OW29874   7.797   4.905  12.905
76012SOL    HW129875   7.827   4.830  12.956
76012SOL    HW229876   7.812   4.980  12.962
76013SOL     OW29877   8.209  14.190   0.093
76013SOL    HW129878   8.219  14.273   0.139
76013SOL    HW229879   8.258  14.127   0.146
76014SOL     OW29880   2.248   1.671   1.498
76014SOL    HW129881   2.252   1.767   1.500
76014SOL    HW229882   2.154   1.651   1.503
76015SOL     OW29883  14.680   0.218   2.506
76015SOL    HW129884  14.705   0.140   2.456
76015SOL    HW229885  14.727   0.209   2.589
76016SOL     OW29886   6.440   9.306   7.373
76016SOL    HW129887   6.398   9.248   7.309
76016SOL    HW229888   6.368   9.350   7.417
76017SOL     OW29889  14.774   8.371   7.843
76017SOL    HW129890  14.751   8.386   7.935
76017SOL    HW229891  14.866   8.394   7.837
76018SOL     OW29892  13.339   5.009   2.052
76018SOL    HW129893  13.274   4.951   2.090
76018SOL    HW229894  13.289   5.082   2.017
76019SOL     OW29895  13.953   0.518   3.666
76019SOL    HW129896  13.930   0.587   3.604
76019SOL    HW229897  14.004   0.455   3.615
76020SOL     OW29898   5.434  11.540  10.405
76020SOL    HW129899   5.396  11.529  10.492
76020SOL    HW229900   5.383  11.480  10.349
76021SOL     OW29901   4.088  10.260   6.386
76021SOL    HW129902   4.149  10.220   6.324
76021SOL    HW229903   4.139  10.269   6.467
76022SOL     OW29904   0.377  10.722   1.974
76022SOL    HW129905   0.417  10.768   1.900
76022SOL    HW229906   0.393  10.630   1.957
76023SOL     OW29907   6.970   7.823  14.691
76023SOL    HW129908   6.909   7.805  14.762
76023SOL    HW229909   7.042   7.762  14.705
76024SOL     OW29910   0.193  11.096   3.918
76024SOL    HW129911   0.225  11.018   3.873
76024SOL    HW229912   0.134  11.061   3.986
76025SOL     OW29913   2.920   2.226   1.160
76025SOL    HW129914   2.922   2.217   1.255
76025SOL    HW229915   2.927   2.321   1.145
76026SOL     OW29916   7.568   2.512   1.501
76026SOL    HW129917   7.517   2.508   1.582
76026SOL    HW229918   7.503   2.495   1.432
76027SOL     OW29919  10.415   7.561   4.799
76027SOL    HW129920  10.346   7.495   4.798
76027SOL    HW229921  10.384   7.628   4.738
76028SOL     OW29922   9.869   5.378   3.413
76028SOL    HW129923   9.941   5.344   3.359
76028SOL    HW229924   9.792   5.331   3.383
76029SOL     OW29925  12.187   8.316  10.833
76029SOL    HW129926  12.196   8.345  10.924
76029SOL    HW229927  12.101   8.275  10.830
76030SOL     OW29928   6.285   5.735   6.101
76030SOL    HW129929   6.244   5.814   6.066
76030SOL    HW229930   6.377   5.758   6.111
76031SOL     OW29931   1.211   1.478   3.504
76031SOL    HW129932   1.240   1.495   3.415
76031SOL    HW229933   1.143   1.544   3.520
76032SOL     OW29934   9.945  11.483   9.104
76032SOL    HW129935  10.009  11.419   9.072
76032SOL    HW229936   9.904  11.516   9.024
76033SOL     OW29937   5.301   9.600   9.404
76033SOL    HW129938   5.350   9.669   9.360
76033SOL    HW229939   5.351   9.583   9.484
76034SOL     OW29940  14.223  13.273   7.881
76034SOL    HW129941  14.311  13.247   7.907
76034SOL    HW229942  14.206  13.353   7.931
76035SOL     OW29943   7.090  14.222   2.854
76035SOL    HW129944   7.101  14.224   2.949
76035SOL    HW229945   7.025  14.289   2.836
76036SOL     OW29946   8.342   0.929   6.060
76036SOL    HW129947   8.261   0.892   6.023
76036SOL    HW229948   8.403   0.856   6.061
76037SOL     OW29949   9.122   5.323  14.535
76037SOL    HW129950   9.053   5.390  14.537
76037SOL    HW229951   9.138   5.308  14.442
76038SOL     OW29952   1.356  11.387  10.603
76038SOL    HW129953   1.310  11.470  10.599
76038SOL    HW229954   1.443  11.406  10.568
76039SOL     OW29955   2.191   7.882   0.598
76039SOL    HW129956   2.271   7.834   0.578
76039SOL    HW229957   2.137   7.819   0.647
76040SOL     OW29958   7.393   9.333   2.089
76040SOL    HW129959   7.299   9.348   2.081
76040SOL    HW229960   7.434   9.412   2.055
76041SOL     OW29961   7.096  10.778   1.794
76041SOL    HW129962   7.166  10.713   1.795
76041SOL    HW229963   7.099  10.815   1.706
76042SOL     OW29964   6.464   0.818  10.383
76042SOL    HW129965   6.433   0.877  10.451
76042SOL    HW229966   6.402   0.831  10.310
76043SOL     OW29967   6.476   7.851   3.611
76043SOL    HW129968   6.565   7.851   3.647
76043SOL    HW229969   6.477   7.785   3.543
76044SOL     OW29970   5.659   3.336   0.616
76044SOL    HW129971   5.700   3.249   0.607
76044SOL    HW229972   5.578   3.319   0.663
76045SOL     OW29973   1.388   7.211   8.695
76045SOL    HW129974   1.409   7.201   8.787
76045SOL    HW229975   1.295   7.190   8.689
76046SOL     OW29976   2.976  10.182  12.658
76046SOL    HW129977   3.011  10.102  12.619
76046SOL    HW229978   2.884  10.163  12.674
76047SOL     OW29979   9.606   8.545   4.261
76047SOL    HW129980   9.592   8.451   4.249
76047SOL    HW229981   9.589   8.582   4.174
76048SOL     OW29982  14.098   7.956  12.782
76048SOL    HW129983  14.046   7.915  12.713
76048SOL    HW229984  14.140   8.030  12.738
76049SOL     OW29985   2.578  11.181  13.234
76049SOL    HW129986   2.589  11.115  13.165
76049SOL    HW229987   2.486  11.177  13.257
76050SOL     OW29988   5.943  13.531   4.012
76050SOL    HW129989   5.921  13.445   4.049
76050SOL    HW229990   5.871  13.588   4.041
76051SOL     OW29991   8.619   8.841   0.014
76051SOL    HW129992   8.549   8.822  14.828
76051SOL    HW229993   8.585   8.810   0.098
76052SOL     OW29994   1.292  11.792  12.284
76052SOL    HW129995   1.303  11.845  12.205
76052SOL    HW229996   1.327  11.706  12.259
76053SOL     OW29997   9.540  12.480   6.793
76053SOL    HW129998   9.535  12.575   6.802
76053SOL    HW229999   9.616  12.465   6.737
76054SOL     OW30000  11.820  13.465   0.110
76054SOL    HW130001  11.737  13.423   0.131
76054SOL    HW230002  11.848  13.425   0.028
76055SOL     OW30003   7.781   5.601   0.152
76055SOL    HW130004   7.710   5.637   0.098
76055SOL    HW230005   7.859   5.609   0.097
76056SOL     OW30006   5.498   8.978   8.332
76056SOL    HW130007   5.562   8.909   8.349
76056SOL    HW230008   5.508   9.040   8.404
76057SOL     OW30009   2.834   3.576   6.649
76057SOL    HW130010   2.891   3.515   6.602
76057SOL    HW230011   2.893   3.632   6.698
76058SOL     OW30012   5.792  13.331   2.867
76058SOL    HW130013   5.817  13.404   2.924
76058SOL    HW230014   5.804  13.363   2.778
76059SOL     OW30015  12.581  12.757   0.303
76059SOL    HW130016  12.554  12.721   0.218
76059SOL    HW230017  12.672  12.785   0.288
76060SOL     OW30018   3.387   8.140   0.573
76060SOL    HW130019   3.365   8.172   0.660
76060SOL    HW230020   3.379   8.044   0.579
76061SOL     OW30021   4.061  13.126   4.827
76061SOL    HW130022   3.978  13.139   4.873
76061SOL    HW230023   4.127  13.123   4.897
76062SOL     OW30024   7.706   1.017   1.905
76062SOL    HW130025   7.768   0.967   1.957
76062SOL    HW230026   7.670   1.082   1.965
76063SOL     OW30027  14.112   0.041   5.752
76063SOL    HW130028  14.105  14.857   5.678
76063SOL    HW230029  14.104  14.862   5.830
76064SOL     OW30030   2.470   5.568   1.837
76064SOL    HW130031   2.467   5.580   1.932
76064SOL    HW230032   2.379   5.572   1.809
76065SOL     OW30033   5.612   3.841   0.137
76065SOL    HW130034   5.567   3.817   0.217
76065SOL    HW230035   5.667   3.765   0.116
76066SOL     OW30036   0.602   7.335   6.865
76066SOL    HW130037   0.527   7.277   6.860
76066SOL    HW230038   0.678   7.276   6.867
76067SOL     OW30039   4.732   7.163   0.495
76067SOL    HW130040   4.795   7.222   0.455
76067SOL    HW230041   4.765   7.147   0.583
76068SOL     OW30042   6.777  13.214   6.761
76068SOL    HW130043   6.805  13.235   6.850
76068SOL    HW230044   6.698  13.265   6.748
76069SOL     OW30045   7.756   1.911   2.630
76069SOL    HW130046   7.744   1.929   2.723
76069SOL    HW230047   7.696   1.839   2.611
76070SOL     OW30048   2.446   2.748  12.346
76070SOL    HW130049   2.477   2.787  12.428
76070SOL    HW230050   2.398   2.670  12.373
76071SOL     OW30051   3.311   1.169  14.637
76071SOL    HW130052   3.248   1.155  14.566
76071SOL    HW230053   3.260   1.152  14.717
76072SOL     OW30054  11.676   1.425  13.840
76072SOL    HW130055  11.642   1.350  13.791
76072SOL    HW230056  11.679   1.496  13.776
76073SOL     OW30057   6.491   0.719   9.742
76073SOL    HW130058   6.578   0.757   9.756
76073SOL    HW230059   6.500   0.627   9.764
76074SOL     OW30060   6.556  14.261  13.147
76074SOL    HW130061   6.472  14.223  13.171
76074SOL    HW230062   6.537  14.353  13.129
76075SOL     OW30063   8.334   0.971   4.155
76075SOL    HW130064   8.250   0.927   4.142
76075SOL    HW230065   8.394   0.927   4.096
76076SOL     OW30066  14.227   6.166   8.114
76076SOL    HW130067  14.311   6.157   8.159
76076SOL    HW230068  14.215   6.260   8.103
76077SOL     OW30069   5.945   9.246   2.957
76077SOL    HW130070   5.856   9.271   2.981
76077SOL    HW230071   5.936   9.205   2.871
76078SOL     OW30072   9.351   0.795  12.936
76078SOL    HW130073   9.399   0.848  13.000
76078SOL    HW230074   9.339   0.710  12.979
76079SOL     OW30075   5.993  14.311   4.502
76079SOL    HW130076   6.025  14.221   4.510
76079SOL    HW230077   6.007  14.333   4.410
76080SOL     OW30078   1.003   9.914  14.498
76080SOL    HW130079   1.032   9.920  14.589
76080SOL    HW230080   0.935   9.846  14.499
76081SOL     OW30081  10.200   9.351   7.865
76081SOL    HW130082  10.174   9.442   7.859
76081SOL    HW230083  10.295   9.353   7.874
76082SOL     OW30084   3.299  11.887  11.790
76082SOL    HW130085   3.219  11.886  11.738
76082SOL    HW230086   3.327  11.978  11.790
76083SOL     OW30087  14.061  13.893  10.835
76083SOL    HW130088  13.978  13.867  10.875
76083SOL    HW230089  14.103  13.811  10.811
76084SOL     OW30090  12.389   1.734   1.303
76084SOL    HW130091  12.327   1.665   1.328
76084SOL    HW230092  12.437   1.698   1.229
76085SOL     OW30093   2.229   4.410   2.428
76085SOL    HW130094   2.176   4.484   2.458
76085SOL    HW230095   2.276   4.444   2.352
76086SOL     OW30096   8.251   5.085   4.406
76086SOL    HW130097   8.342   5.110   4.391
76086SOL    HW230098   8.224   5.043   4.324
76087SOL     OW30099   7.204  13.940  12.826
76087SOL    HW130100   7.192  13.944  12.921
76087SOL    HW230101   7.194  13.847  12.805
76088SOL     OW30102   8.933   6.063   4.624
76088SOL    HW130103   8.925   5.979   4.580
76088SOL    HW230104   8.995   6.113   4.571
76089SOL     OW30105  14.056  11.701   5.305
76089SOL    HW130106  14.141  11.745   5.301
76089SOL    HW230107  13.994  11.767   5.273
76090SOL     OW30108   0.383   2.105   1.619
76090SOL    HW130109   0.455   2.142   1.670
76090SOL    HW230110   0.424   2.073   1.539
76091SOL     OW30111   4.278  14.547  11.530
76091SOL    HW130112   4.279  14.502  11.446
76091SOL    HW230113   4.206  14.609  11.524
76092SOL     OW30114  12.449   0.327   2.220
76092SOL    HW130115  12.508   0.255   2.200
76092SOL    HW230116  12.485   0.366   2.300
76093SOL     OW30117   6.439   9.193   2.148
76093SOL    HW130118   6.485   9.159   2.225
76093SOL    HW230119   6.420   9.284   2.170
76094SOL     OW30120   4.447  11.704   7.398
76094SOL    HW130121   4.522  11.644   7.400
76094SOL    HW230122   4.474  11.774   7.339
76095SOL     OW30123   3.496   9.358   3.834
76095SOL    HW130124   3.477   9.329   3.744
76095SOL    HW230125   3.569   9.304   3.862
76096SOL     OW30126   3.208   7.569   5.050
76096SOL    HW130127   3.127   7.530   5.085
76096SOL    HW230128   3.278   7.512   5.083
76097SOL     OW30129  10.350   5.036   7.286
76097SOL    HW130130  10.255   5.029   7.292
76097SOL    HW230131  10.368   5.030   7.192
76098SOL     OW30132  14.107   7.378  14.606
76098SOL    HW130133  14.020   7.337  14.603
76098SOL    HW230134  14.138   7.373  14.515
76099SOL     OW30135  14.357  11.324   3.833
76099SOL    HW130136  14.361  11.419   3.834
76099SOL    HW230137  14.446  11.296   3.813
76100SOL     OW30138  14.127  13.805   8.051
76100SOL    HW130139  14.093  13.849   8.129
76100SOL    HW230140  14.178  13.871   8.005
76101SOL     OW30141  11.058   4.956   5.319
76101SOL    HW130142  10.989   4.956   5.253
76101SOL    HW230143  11.131   4.911   5.276
76102SOL     OW30144  11.440   3.871  10.657
76102SOL    HW130145  11.357   3.833  10.626
76102SOL    HW230146  11.481   3.906  10.579
76103SOL     OW30147   1.893  14.701   4.632
76103SOL    HW130148   1.888  14.621   4.685
76103SOL    HW230149   1.849  14.678   4.550
76104SOL     OW30150   6.739   0.630  14.597
76104SOL    HW130151   6.650   0.615  14.564
76104SOL    HW230152   6.794   0.572  14.544
76105SOL     OW30153   6.647   0.719  11.279
76105SOL    HW130154   6.647   0.784  11.209
76105SOL    HW230155   6.661   0.770  11.359
76106SOL     OW30156  10.801   1.577   7.605
76106SOL    HW130157  10.822   1.579   7.698
76106SOL    HW230158  10.779   1.668   7.584
76107SOL     OW30159   0.972   7.267   7.759
76107SOL    HW130160   1.050   7.315   7.733
76107SOL    HW230161   0.965   7.196   7.696
76108SOL     OW30162   7.881   4.078  12.578
76108SOL    HW130163   7.891   4.000  12.524
76108SOL    HW230164   7.965   4.088  12.623
76109SOL     OW30165   9.438   0.497   0.392
76109SOL    HW130166   9.425   0.571   0.333
76109SOL    HW230167   9.532   0.478   0.386
76110SOL     OW30168  11.009   8.706   3.412
76110SOL    HW130169  10.954   8.629   3.425
76110SOL    HW230170  10.948   8.780   3.414
76111SOL     OW30171   3.272  12.176  12.111
76111SOL    HW130172   3.253  12.235  12.185
76111SOL    HW230173   3.241  12.090  12.141
76112SOL     OW30174   1.290   8.448  10.287
76112SOL    HW130175   1.270   8.534  10.250
76112SOL    HW230176   1.334   8.467  10.369
76113SOL     OW30177   6.331   4.866  10.942
76113SOL    HW130178   6.323   4.797  10.877
76113SOL    HW230179   6.379   4.825  11.015
76114SOL     OW30180   8.337   0.736   0.888
76114SOL    HW130181   8.280   0.674   0.842
76114SOL    HW230182   8.424   0.718   0.853
76115SOL     OW30183   6.843   2.789   3.238
76115SOL    HW130184   6.813   2.702   3.211
76115SOL    HW230185   6.802   2.849   3.176
76116SOL     OW30186   9.143  13.687   2.402
76116SOL    HW130187   9.087  13.624   2.448
76116SOL    HW230188   9.086  13.761   2.385
76117SOL     OW30189   1.323   4.390   2.273
76117SOL    HW130190   1.317   4.297   2.251
76117SOL    HW230191   1.245   4.407   2.325
76118SOL     OW30192   1.420  10.398  13.033
76118SOL    HW130193   1.407  10.371  12.942
76118SOL    HW230194   1.383  10.487  13.038
76119SOL     OW30195  13.430   6.048   7.247
76119SOL    HW130196  13.363   6.089   7.192
76119SOL    HW230197  13.416   5.954   7.237
76120SOL     OW30198   1.848  11.536   6.610
76120SOL    HW130199   1.903  11.603   6.651
76120SOL    HW230200   1.850  11.463   6.672
76121SOL     OW30201  11.311   1.081   6.896
76121SOL    HW130202  11.223   1.056   6.867
76121SOL    HW230203  11.346   1.002   6.938
76122SOL     OW30204  13.224   4.254   1.522
76122SOL    HW130205  13.302   4.293   1.562
76122SOL    HW230206  13.175   4.219   1.596
76123SOL     OW30207   8.191   1.225  13.374
76123SOL    HW130208   8.235   1.190  13.296
76123SOL    HW230209   8.131   1.291  13.340
76124SOL     OW30210   0.920  11.940   2.068
76124SOL    HW130211   0.838  11.901   2.096
76124SOL    HW230212   0.974  11.866   2.041
76125SOL     OW30213  11.958   1.424   2.213
76125SOL    HW130214  12.025   1.426   2.145
76125SOL    HW230215  11.910   1.506   2.203
76126SOL     OW30216   4.194   0.936  11.531
76126SOL    HW130217   4.123   0.918  11.470
76126SOL    HW230218   4.177   1.025  11.562
76127SOL     OW30219  14.455   9.032   6.023
76127SOL    HW130220  14.417   8.945   6.017
76127SOL    HW230221  14.426   9.065   6.108
76128SOL     OW30222   0.363   7.480   5.912
76128SOL    HW130223   0.416   7.558   5.896
76128SOL    HW230224   0.349   7.478   6.007
76129SOL     OW30225   6.887   3.287   0.718
76129SOL    HW130226   6.914   3.263   0.629
76129SOL    HW230227   6.968   3.313   0.762
76130SOL     OW30228  10.676  14.450   7.416
76130SOL    HW130229  10.706  14.526   7.367
76130SOL    HW230230  10.747  14.385   7.405
76131SOL     OW30231  12.391  13.239  10.381
76131SOL    HW130232  12.385  13.226  10.287
76131SOL    HW230233  12.361  13.329  10.396
76132SOL     OW30234   3.433  12.409   6.786
76132SOL    HW130235   3.444  12.472   6.857
76132SOL    HW230236   3.446  12.324   6.828
76133SOL     OW30237   0.546   8.487   0.361
76133SOL    HW130238   0.588   8.559   0.314
76133SOL    HW230239   0.453   8.509   0.360
76134SOL     OW30240  11.812  10.281   0.630
76134SOL    HW130241  11.832  10.187   0.629
76134SOL    HW230242  11.897  10.324   0.640
76135SOL     OW30243   5.023   1.151   5.739
76135SOL    HW130244   5.008   1.093   5.665
76135SOL    HW230245   5.061   1.230   5.701
76136SOL     OW30246   3.825  10.991   3.680
76136SOL    HW130247   3.753  11.016   3.622
76136SOL    HW230248   3.867  11.075   3.702
76137SOL     OW30249  12.512   2.394   3.881
76137SOL    HW130250  12.524   2.300   3.895
76137SOL    HW230251  12.425   2.412   3.918
76138SOL     OW30252   7.451   7.815   5.394
76138SOL    HW130253   7.371   7.779   5.357
76138SOL    HW230254   7.486   7.871   5.325
76139SOL     OW30255  14.203  10.042   6.594
76139SOL    HW130256  14.162  10.101   6.531
76139SOL    HW230257  14.255  10.099   6.651
76140SOL     OW30258   9.575   9.093   8.247
76140SOL    HW130259   9.555   9.002   8.227
76140SOL    HW230260   9.608   9.091   8.337
76141SOL     OW30261   5.929  12.310   1.165
76141SOL    HW130262   5.920  12.217   1.184
76141SOL    HW230263   5.859  12.352   1.216
76142SOL     OW30264   6.309   7.998   7.711
76142SOL    HW130265   6.234   8.003   7.652
76142SOL    HW230266   6.336   8.089   7.724
76143SOL     OW30267   4.285  11.497   1.706
76143SOL    HW130268   4.280  11.544   1.623
76143SOL    HW230269   4.259  11.408   1.685
76144SOL     OW30270   4.987  13.613   7.041
76144SOL    HW130271   5.032  13.620   6.956
76144SOL    HW230272   4.903  13.657   7.028
76145SOL     OW30273   1.013   9.361   8.011
76145SOL    HW130274   0.918   9.355   8.019
76145SOL    HW230275   1.045   9.360   8.101
76146SOL     OW30276  11.229   1.865  14.812
76146SOL    HW130277  11.217   1.959  14.829
76146SOL    HW230278  11.168   1.847  14.740
76147SOL     OW30279   8.850   5.584  10.167
76147SOL    HW130280   8.871   5.608  10.076
76147SOL    HW230281   8.896   5.649  10.220
76148SOL     OW30282   0.476   3.604   6.473
76148SOL    HW130283   0.444   3.637   6.557
76148SOL    HW230284   0.502   3.682   6.424
76149SOL     OW30285  10.521  11.789  14.092
76149SOL    HW130286  10.582  11.791  14.166
76149SOL    HW230287  10.435  11.802  14.132
76150SOL     OW30288   2.799   5.018  13.324
76150SOL    HW130289   2.864   4.964  13.371
76150SOL    HW230290   2.848   5.056  13.251
76151SOL     OW30291   0.550   2.600  14.103
76151SOL    HW130292   0.612   2.537  14.140
76151SOL    HW230293   0.480   2.546  14.066
76152SOL     OW30294   2.511   0.991   1.113
76152SOL    HW130295   2.568   1.055   1.155
76152SOL    HW230296   2.535   0.995   1.020
76153SOL     OW30297   6.084   7.450   8.305
76153SOL    HW130298   6.040   7.497   8.235
76153SOL    HW230299   6.027   7.461   8.381
76154SOL     OW30300   6.922   8.441   3.129
76154SOL    HW130301   6.861   8.447   3.055
76154SOL    HW230302   6.902   8.356   3.168
76155SOL     OW30303   7.046   9.929   5.588
76155SOL    HW130304   7.121   9.871   5.582
76155SOL    HW230305   7.003   9.905   5.670
76156SOL     OW30306  14.639   1.739  10.019
76156SOL    HW130307  14.580   1.666  10.000
76156SOL    HW230308  14.597   1.815   9.981
76157SOL     OW30309   9.929  14.505   9.049
76157SOL    HW130310   9.857  14.467   9.100
76157SOL    HW230311   9.983  14.430   9.025
76158SOL     OW30312   5.113  12.999  13.575
76158SOL    HW130313   5.153  13.079  13.542
76158SOL    HW230314   5.162  12.929  13.532
76159SOL     OW30315   7.658   0.884  13.735
76159SOL    HW130316   7.717   0.872  13.660
76159SOL    HW230317   7.650   0.979  13.744
76160SOL     OW30318   8.381   0.028   0.905
76160SOL    HW130319   8.441   0.010   0.977
76160SOL    HW230320   8.294   0.011   0.941
76161SOL     OW30321  13.560   6.497  12.543
76161SOL    HW130322  13.552   6.475  12.635
76161SOL    HW230323  13.606   6.422  12.504
76162SOL     OW30324   1.348   2.653  13.908
76162SOL    HW130325   1.289   2.626  13.978
76162SOL    HW230326   1.409   2.580  13.897
76163SOL     OW30327   3.720   9.231   3.911
76163SOL    HW130328   3.777   9.254   3.837
76163SOL    HW230329   3.753   9.283   3.984
76164SOL     OW30330  11.044   1.088  11.170
76164SOL    HW130331  10.980   1.147  11.129
76164SOL    HW230332  11.040   1.110  11.263
76165SOL     OW30333  14.816  14.360   6.007
76165SOL    HW130334  14.730  14.379   6.044
76165SOL    HW230335  14.797  14.313   5.926
76166SOL     OW30336   1.172   8.326  11.154
76166SOL    HW130337   1.185   8.345  11.061
76166SOL    HW230338   1.097   8.266  11.156
76167SOL     OW30339   1.555   2.278   5.489
76167SOL    HW130340   1.488   2.244   5.548
76167SOL    HW230341   1.516   2.273   5.402
76168SOL     OW30342   1.705  13.783  14.115
76168SOL    HW130343   1.665  13.699  14.091
76168SOL    HW230344   1.785  13.787  14.061
76169SOL     OW30345   5.355   4.904  10.882
76169SOL    HW130346   5.409   4.869  10.953
76169SOL    HW230347   5.388   4.994  10.870
76170SOL     OW30348   1.208  11.912   8.975
76170SOL    HW130349   1.211  11.980   8.907
76170SOL    HW230350   1.220  11.830   8.928
76171SOL     OW30351   4.089   1.371  12.611
76171SOL    HW130352   4.055   1.323  12.536
76171SOL    HW230353   4.135   1.446  12.573
76172SOL     OW30354  14.100  11.072   0.639
76172SOL    HW130355  14.122  10.980   0.621
76172SOL    HW230356  14.122  11.084   0.732
76173SOL     OW30357   1.936  14.448   0.293
76173SOL    HW130358   1.911  14.372   0.346
76173SOL    HW230359   1.856  14.500   0.288
76174SOL     OW30360  13.847   2.513   8.808
76174SOL    HW130361  13.917   2.484   8.751
76174SOL    HW230362  13.827   2.602   8.780
76175SOL     OW30363  14.622   4.525   9.293
76175SOL    HW130364  14.576   4.469   9.355
76175SOL    HW230365  14.714   4.498   9.300
76176SOL     OW30366   0.687  10.916  13.011
76176SOL    HW130367   0.619  10.916  12.943
76176SOL    HW230368   0.767  10.889  12.966
76177SOL     OW30369  13.259   3.379   0.017
76177SOL    HW130370  13.207   3.361  14.816
76177SOL    HW230371  13.263   3.295   0.064
76178SOL     OW30372   3.000  13.447  11.837
76178SOL    HW130373   3.065  13.416  11.901
76178SOL    HW230374   2.982  13.371  11.782
76179SOL     OW30375  12.844   7.055   3.195
76179SOL    HW130376  12.772   7.057   3.258
76179SOL    HW230377  12.913   7.006   3.238
76180SOL     OW30378   0.596   3.099   0.204
76180SOL    HW130379   0.534   3.037   0.241
76180SOL    HW230380   0.556   3.185   0.219
76181SOL     OW30381  14.002   5.915   9.560
76181SOL    HW130382  13.923   5.969   9.552
76181SOL    HW230383  14.074   5.977   9.558
76182SOL     OW30384  10.605  13.122   0.000
76182SOL    HW130385  10.559  13.039   0.009
76182SOL    HW230386  10.537  13.189   0.015
76183SOL     OW30387   3.979   9.999  14.844
76183SOL    HW130388   4.016   9.913  14.863
76183SOL    HW230389   4.013  10.022  14.757
76184SOL     OW30390   1.138   0.029  14.418
76184SOL    HW130391   1.206  14.846  14.449
76184SOL    HW230392   1.168   0.116  14.443
76185SOL     OW30393   6.094   2.237   7.385
76185SOL    HW130394   6.093   2.252   7.290
76185SOL    HW230395   6.017   2.282   7.418
76186SOL     OW30396   3.398   0.419  10.152
76186SOL    HW130397   3.365   0.489  10.096
76186SOL    HW230398   3.378   0.448  10.241
76187SOL     OW30399   1.384   9.999  13.496
76187SOL    HW130400   1.465  10.042  13.471
76187SOL    HW230401   1.388   9.913  13.453
76188SOL     OW30402   1.871   1.545  11.222
76188SOL    HW130403   1.786   1.552  11.266
76188SOL    HW230404   1.852   1.569  11.131
76189SOL     OW30405   7.545   2.997   0.980
76189SOL    HW130406   7.514   3.087   0.992
76189SOL    HW230407   7.593   2.977   1.061
76190SOL     OW30408  13.215   0.026   4.590
76190SOL    HW130409  13.125   0.057   4.584
76190SOL    HW230410  13.269   0.101   4.565
76191SOL     OW30411   4.994  12.835  10.564
76191SOL    HW130412   4.956  12.863  10.481
76191SOL    HW230413   4.927  12.779  10.603
76192SOL     OW30414  11.244   2.730   3.148
76192SOL    HW130415  11.310   2.702   3.210
76192SOL    HW230416  11.290   2.790   3.088
76193SOL     OW30417   1.986  10.826  14.263
76193SOL    HW130418   1.972  10.820  14.357
76193SOL    HW230419   1.923  10.765  14.225
76194SOL     OW30420   5.158   3.724  11.449
76194SOL    HW130421   5.129   3.727  11.358
76194SOL    HW230422   5.244   3.766  11.449
76195SOL     OW30423   1.362   2.257   4.850
76195SOL    HW130424   1.308   2.267   4.772
76195SOL    HW230425   1.372   2.162   4.861
76196SOL     OW30426   5.960   4.375   7.136
76196SOL    HW130427   5.878   4.425   7.141
76196SOL    HW230428   6.027   4.435   7.168
76197SOL     OW30429   3.731   8.066  12.218
76197SOL    HW130430   3.751   7.974  12.238
76197SOL    HW230431   3.648   8.062  12.170
76198SOL     OW30432   5.439   2.026   7.829
76198SOL    HW130433   5.420   2.050   7.920
76198SOL    HW230434   5.353   2.004   7.792
76199SOL     OW30435  11.570   0.672  10.381
76199SOL    HW130436  11.518   0.646  10.306
76199SOL    HW230437  11.514   0.654  10.457
76200SOL     OW30438   3.164  10.863   3.674
76200SOL    HW130439   3.183  10.890   3.764
76200SOL    HW230440   3.155  10.945   3.626
76201SOL     OW30441   5.186  10.291   6.291
76201SOL    HW130442   5.153  10.381   6.287
76201SOL    HW230443   5.281  10.300   6.291
76202SOL     OW30444   7.994   0.577   1.045
76202SOL    HW130445   7.965   0.623   1.125
76202SOL    HW230446   8.082   0.548   1.065
76203SOL     OW30447   4.949   2.659   7.567
76203SOL    HW130448   4.921   2.667   7.658
76203SOL    HW230449   4.887   2.596   7.529
76204SOL     OW30450  11.792   6.814  13.576
76204SOL    HW130451  11.700   6.830  13.557
76204SOL    HW230452  11.827   6.900  13.598
76205SOL     OW30453   0.301   7.230   5.386
76205SOL    HW130454   0.310   7.140   5.353
76205SOL    HW230455   0.206   7.244   5.388
76206SOL     OW30456  13.841  12.672   5.605
76206SOL    HW130457  13.889  12.746   5.642
76206SOL    HW230458  13.881  12.658   5.519
76207SOL     OW30459   8.371  10.144   3.416
76207SOL    HW130460   8.305  10.092   3.371
76207SOL    HW230461   8.432  10.171   3.347
76208SOL     OW30462  14.431  14.421  14.225
76208SOL    HW130463  14.342  14.397  14.200
76208SOL    HW230464  14.469  14.340  14.258
76209SOL     OW30465   6.524   7.191   8.371
76209SOL    HW130466   6.490   7.278   8.347
76209SOL    HW230467   6.609   7.209   8.410
76210SOL     OW30468  10.060   0.760   6.064
76210SOL    HW130469  10.080   0.844   6.103
76210SOL    HW230470  10.015   0.711   6.133
76211SOL     OW30471   9.773   6.614  14.050
76211SOL    HW130472   9.784   6.633  13.957
76211SOL    HW230473   9.789   6.698  14.094
76212SOL     OW30474  10.457   0.601  14.358
76212SOL    HW130475  10.546   0.623  14.332
76212SOL    HW230476  10.454   0.505  14.355
76213SOL     OW30477   7.169   1.984  12.737
76213SOL    HW130478   7.150   1.913  12.798
76213SOL    HW230479   7.146   1.948  12.651
76214SOL     OW30480   3.500  11.134   3.525
76214SOL    HW130481   3.569  11.159   3.463
76214SOL    HW230482   3.421  11.175   3.490
76215SOL     OW30483   0.153   0.140   0.998
76215SOL    HW130484   0.192   0.163   1.082
76215SOL    HW230485   0.069   0.187   0.997
76216SOL     OW30486   1.124  10.541   2.899
76216SOL    HW130487   1.035  10.570   2.877
76216SOL    HW230488   1.111  10.463   2.953
76217SOL     OW30489   2.506   9.629   1.889
76217SOL    HW130490   2.492   9.723   1.878
76217SOL    HW230491   2.560   9.622   1.968
76218SOL     OW30492   5.105   4.843   2.373
76218SOL    HW130493   5.072   4.866   2.460
76218SOL    HW230494   5.200   4.846   2.383
76219SOL     OW30495  13.713  10.560   6.351
76219SOL    HW130496  13.672  10.515   6.425
76219SOL    HW230497  13.740  10.489   6.292
76220SOL     OW30498  14.188  10.061   9.735
76220SOL    HW130499  14.132  10.116   9.680
76220SOL    HW230500  14.213   9.988   9.679
76221SOL     OW30501   4.393   2.505   8.759
76221SOL    HW130502   4.305   2.515   8.796
76221SOL    HW230503   4.441   2.456   8.825
76222SOL     OW30504   2.090  14.809  10.430
76222SOL    HW130505   2.024  14.823  10.498
76222SOL    HW230506   2.147   0.009  10.438
76223SOL     OW30507   2.747   0.450  10.652
76223SOL    HW130508   2.709   0.436  10.566
76223SOL    HW230509   2.838   0.473  10.634
76224SOL     OW30510   6.312   7.901   2.272
76224SOL    HW130511   6.253   7.935   2.339
76224SOL    HW230512   6.272   7.818   2.245
76225SOL     OW30513   4.786   1.336   6.611
76225SOL    HW130514   4.807   1.278   6.685
76225SOL    HW230515   4.768   1.421   6.652
76226SOL     OW30516  12.143  10.025  13.631
76226SOL    HW130517  12.184  10.002  13.547
76226SOL    HW230518  12.214  10.025  13.694
76227SOL     OW30519   7.955  10.149   4.998
76227SOL    HW130520   7.883  10.207   5.021
76227SOL    HW230521   7.999  10.195   4.926
76228SOL     OW30522  12.990   1.187  14.408
76228SOL    HW130523  13.068   1.203  14.355
76228SOL    HW230524  13.025   1.153  14.491
76229SOL     OW30525  11.310   6.424   0.499
76229SOL    HW130526  11.337   6.472   0.421
76229SOL    HW230527  11.287   6.337   0.467
76230SOL     OW30528   1.226  11.858   2.314
76230SOL    HW130529   1.166  11.933   2.320
76230SOL    HW230530   1.180  11.786   2.356
76231SOL     OW30531   4.752   6.455  13.308
76231SOL    HW130532   4.807   6.442  13.385
76231SOL    HW230533   4.783   6.537  13.270
76232SOL     OW30534   3.077   6.170  11.753
76232SOL    HW130535   3.093   6.083  11.789
76232SOL    HW230536   3.016   6.211  11.815
76233SOL     OW30537   4.412   0.826   1.602
76233SOL    HW130538   4.495   0.790   1.634
76233SOL    HW230539   4.436   0.874   1.522
76234SOL     OW30540   3.018   0.829   9.524
76234SOL    HW130541   3.104   0.843   9.565
76234SOL    HW230542   3.035   0.836   9.430
76235SOL     OW30543  11.112   0.242   1.054
76235SOL    HW130544  11.056   0.279   0.985
76235SOL    HW230545  11.064   0.166   1.085
76236SOL     OW30546  12.626   2.751   2.511
76236SOL    HW130547  12.640   2.673   2.457
76236SOL    HW230548  12.532   2.751   2.529
76237SOL     OW30549  10.639  14.760   5.323
76237SOL    HW130550  10.641  14.844   5.369
76237SOL    HW230551  10.639  14.694   5.393
76238SOL     OW30552  13.782   8.346   8.045
76238SOL    HW130553  13.706   8.352   7.988
76238SOL    HW230554  13.813   8.256   8.035
76239SOL     OW30555   0.224   0.609   6.249
76239SOL    HW130556   0.211   0.680   6.313
76239SOL    HW230557   0.137   0.573   6.235
76240SOL     OW30558   4.634  14.689  13.379
76240SOL    HW130559   4.617  14.597  13.358
76240SOL    HW230560   4.611  14.736  13.299
76241SOL     OW30561  11.087   0.120   3.625
76241SOL    HW130562  11.179   0.143   3.614
76241SOL    HW230563  11.039   0.186   3.575
76242SOL     OW30564   6.850   0.492   5.988
76242SOL    HW130565   6.831   0.584   6.005
76242SOL    HW230566   6.764   0.449   5.990
76243SOL     OW30567   9.413   6.330   4.913
76243SOL    HW130568   9.394   6.410   4.864
76243SOL    HW230569   9.450   6.270   4.848
76244SOL     OW30570  10.139  10.397   3.150
76244SOL    HW130571  10.186  10.467   3.196
76244SOL    HW230572  10.207  10.339   3.118
76245SOL     OW30573  10.111   2.494  14.220
76245SOL    HW130574  10.145   2.551  14.289
76245SOL    HW230575  10.123   2.544  14.139
76246SOL     OW30576   8.818   3.569  10.145
76246SOL    HW130577   8.735   3.587  10.102
76246SOL    HW230578   8.884   3.583  10.077
76247SOL     OW30579  11.660  13.801   2.127
76247SOL    HW130580  11.641  13.726   2.071
76247SOL    HW230581  11.695  13.867   2.067
76248SOL     OW30582  11.600   2.383   6.900
76248SOL    HW130583  11.572   2.472   6.923
76248SOL    HW230584  11.527   2.347   6.850
76249SOL     OW30585   0.255   4.367  13.550
76249SOL    HW130586   0.193   4.293  13.553
76249SOL    HW230587   0.314   4.345  13.478
76250SOL     OW30588   1.239  13.057   3.615
76250SOL    HW130589   1.284  13.109   3.682
76250SOL    HW230590   1.307  13.030   3.554
76251SOL     OW30591  13.187  13.107   8.567
76251SOL    HW130592  13.141  13.073   8.643
76251SOL    HW230593  13.243  13.035   8.539
76252SOL     OW30594   3.607   6.023   6.592
76252SOL    HW130595   3.599   6.085   6.520
76252SOL    HW230596   3.670   5.958   6.560
76253SOL     OW30597   1.275   9.586   1.001
76253SOL    HW130598   1.296   9.551   1.087
76253SOL    HW230599   1.180   9.583   0.996
76254SOL     OW30600   2.617   5.848   3.765
76254SOL    HW130601   2.627   5.904   3.842
76254SOL    HW230602   2.680   5.883   3.702
76255SOL     OW30603   7.713  12.608  13.867
76255SOL    HW130604   7.801  12.628  13.898
76255SOL    HW230605   7.677  12.549  13.934
76256SOL     OW30606   4.751   7.777   0.569
76256SOL    HW130607   4.662   7.810   0.575
76256SOL    HW230608   4.806   7.855   0.564
76257SOL     OW30609   7.079  11.857   2.196
76257SOL    HW130610   7.101  11.883   2.285
76257SOL    HW230611   7.095  11.935   2.143
76258SOL     OW30612  10.076   7.045   0.469
76258SOL    HW130613  10.156   7.036   0.520
76258SOL    HW230614  10.087   7.128   0.423
76259SOL     OW30615   5.044   0.941   1.303
76259SOL    HW130616   5.094   0.907   1.229
76259SOL    HW230617   5.085   0.900   1.380
76260SOL     OW30618   3.404   5.915   6.744
76260SOL    HW130619   3.359   5.999   6.754
76260SOL    HW230620   3.487   5.937   6.703
76261SOL     OW30621  11.759   5.255  11.683
76261SOL    HW130622  11.776   5.314  11.756
76261SOL    HW230623  11.843   5.249  11.637
76262SOL     OW30624  13.102   5.182   1.109
76262SOL    HW130625  13.152   5.113   1.065
76262SOL    HW230626  13.164   5.254   1.118
76263SOL     OW30627   9.533  14.374  13.622
76263SOL    HW130628   9.594  14.341  13.557
76263SOL    HW230629   9.589  14.405  13.693
76264SOL     OW30630  13.910   8.443   9.648
76264SOL    HW130631  13.899   8.422   9.741
76264SOL    HW230632  14.005   8.447   9.635
76265SOL     OW30633   8.748   2.579  12.266
76265SOL    HW130634   8.686   2.517  12.305
76265SOL    HW230635   8.834   2.544  12.288
76266SOL     OW30636  12.316  11.937   4.465
76266SOL    HW130637  12.290  11.854   4.505
76266SOL    HW230638  12.411  11.934   4.461
76267SOL     OW30639   7.694   5.351   4.852
76267SOL    HW130640   7.715   5.262   4.880
76267SOL    HW230641   7.773   5.402   4.874
76268SOL     OW30642   4.414   7.731   3.167
76268SOL    HW130643   4.460   7.651   3.141
76268SOL    HW230644   4.366   7.706   3.246
76269SOL     OW30645   5.132   0.969   3.142
76269SOL    HW130646   5.129   1.064   3.130
76269SOL    HW230647   5.163   0.957   3.232
76270SOL     OW30648   6.714  10.539   8.276
76270SOL    HW130649   6.782  10.487   8.233
76270SOL    HW230650   6.756  10.624   8.292
76271SOL     OW30651   1.692   5.627   8.067
76271SOL    HW130652   1.687   5.599   7.975
76271SOL    HW230653   1.601   5.629   8.096
76272SOL     OW30654  14.617   5.358  14.370
76272SOL    HW130655  14.639   5.285  14.312
76272SOL    HW230656  14.542   5.326  14.421
76273SOL     OW30657   6.746   5.711   6.031
76273SOL    HW130658   6.700   5.663   5.962
76273SOL    HW230659   6.680   5.726   6.099
76274SOL     OW30660  11.281  13.225  14.380
76274SOL    HW130661  11.221  13.267  14.317
76274SOL    HW230662  11.353  13.288  14.389
76275SOL     OW30663  14.381   8.785  14.313
76275SOL    HW130664  14.425   8.709  14.275
76275SOL    HW230665  14.395   8.856  14.250
76276SOL     OW30666   2.867   3.941   5.804
76276SOL    HW130667   2.888   4.014   5.745
76276SOL    HW230668   2.775   3.923   5.786
76277SOL     OW30669   6.309   0.387   5.025
76277SOL    HW130670   6.365   0.370   4.949
76277SOL    HW230671   6.227   0.419   4.988
76278SOL     OW30672   8.084   2.182   1.425
76278SOL    HW130673   8.012   2.234   1.461
76278SOL    HW230674   8.052   2.152   1.340
76279SOL     OW30675   9.202   2.449   3.053
76279SOL    HW130676   9.247   2.533   3.042
76279SOL    HW230677   9.156   2.436   2.970
76280SOL     OW30678   1.278   0.335   1.509
76280SOL    HW130679   1.312   0.363   1.594
76280SOL    HW230680   1.271   0.415   1.458
76281SOL     OW30681   7.596  10.449   2.855
76281SOL    HW130682   7.504  10.430   2.877
76281SOL    HW230683   7.628  10.368   2.816
76282SOL     OW30684  10.956   0.695  12.137
76282SOL    HW130685  10.937   0.717  12.046
76282SOL    HW230686  11.049   0.671  12.137
76283SOL     OW30687   4.085  13.780   5.254
76283SOL    HW130688   4.033  13.748   5.327
76283SOL    HW230689   4.072  13.874   5.253
76284SOL     OW30690   0.579   3.178   3.944
76284SOL    HW130691   0.538   3.135   4.019
76284SOL    HW230692   0.571   3.271   3.962
76285SOL     OW30693   4.680   6.245   3.012
76285SOL    HW130694   4.643   6.215   3.095
76285SOL    HW230695   4.614   6.221   2.947
76286SOL     OW30696   9.434   3.621   9.156
76286SOL    HW130697   9.376   3.546   9.150
76286SOL    HW230698   9.521   3.584   9.169
76287SOL     OW30699  10.517  10.821   9.855
76287SOL    HW130700  10.523  10.844   9.948
76287SOL    HW230701  10.595  10.860   9.816
76288SOL     OW30702  10.473  12.263   2.245
76288SOL    HW130703  10.513  12.190   2.292
76288SOL    HW230704  10.379  12.249   2.254
76289SOL     OW30705   1.937   8.627   0.562
76289SOL    HW130706   1.960   8.535   0.574
76289SOL    HW230707   1.967   8.648   0.473
76290SOL     OW30708   5.630  13.005   3.392
76290SOL    HW130709   5.564  13.026   3.457
76290SOL    HW230710   5.713  13.015   3.439
76291SOL     OW30711   2.964   8.437  11.162
76291SOL    HW130712   2.940   8.528  11.174
76291SOL    HW230713   3.057   8.439  11.139
76292SOL     OW30714   2.735   9.898  11.872
76292SOL    HW130715   2.743   9.827  11.809
76292SOL    HW230716   2.804   9.881  11.937
76293SOL     OW30717   2.580   6.914   8.615
76293SOL    HW130718   2.625   6.980   8.563
76293SOL    HW230719   2.649   6.851   8.639
76294SOL     OW30720  10.524  13.253  11.132
76294SOL    HW130721  10.551  13.163  11.117
76294SOL    HW230722  10.565  13.277  11.215
76295SOL     OW30723  12.914   7.909  11.096
76295SOL    HW130724  12.897   8.001  11.077
76295SOL    HW230725  12.932   7.906  11.190
76296SOL     OW30726   6.437   7.502   4.173
76296SOL    HW130727   6.368   7.472   4.114
76296SOL    HW230728   6.460   7.424   4.224
76297SOL     OW30729   5.001   2.609   4.576
76297SOL    HW130730   5.070   2.658   4.622
76297SOL    HW230731   5.047   2.567   4.503
76298SOL     OW30732   1.917   2.719  14.480
76298SOL    HW130733   1.921   2.695  14.387
76298SOL    HW230734   1.835   2.680  14.511
76299SOL     OW30735   6.318  10.082   4.014
76299SOL    HW130736   6.298  10.039   4.097
76299SOL    HW230737   6.233  10.114   3.983
76300SOL     OW30738   6.881   3.463   3.573
76300SOL    HW130739   6.881   3.438   3.481
76300SOL    HW230740   6.918   3.387   3.619
76301SOL     OW30741  12.149   7.587   3.505
76301SOL    HW130742  12.077   7.604   3.566
76301SOL    HW230743  12.200   7.518   3.546
76302SOL     OW30744  12.505   2.677   2.158
76302SOL    HW130745  12.525   2.595   2.113
76302SOL    HW230746  12.566   2.741   2.121
76303SOL     OW30747   2.462  14.464  14.275
76303SOL    HW130748   2.448  14.393  14.213
76303SOL    HW230749   2.442  14.544  14.226
76304SOL     OW30750   7.626   6.100   6.404
76304SOL    HW130751   7.685   6.052   6.346
76304SOL    HW230752   7.633   6.191   6.376
76305SOL     OW30753  14.585  13.904   4.536
76305SOL    HW130754  14.563  13.909   4.629
76305SOL    HW230755  14.631  13.820   4.526
76306SOL     OW30756   1.813   0.817   6.541
76306SOL    HW130757   1.837   0.903   6.508
76306SOL    HW230758   1.895   0.779   6.571
76307SOL     OW30759  14.037   7.128   3.537
76307SOL    HW130760  14.132   7.128   3.528
76307SOL    HW230761  14.006   7.065   3.472
76308SOL     OW30762  12.506   8.416  10.502
76308SOL    HW130763  12.480   8.479  10.569
76308SOL    HW230764  12.526   8.470  10.425
76309SOL     OW30765   8.196  13.494   6.577
76309SOL    HW130766   8.180  13.418   6.521
76309SOL    HW230767   8.184  13.570   6.519
76310SOL     OW30768   3.236   1.846   8.395
76310SOL    HW130769   3.313   1.789   8.403
76310SOL    HW230770   3.248   1.891   8.312
76311SOL     OW30771  14.840   0.000   8.025
76311SOL    HW130772   0.014   0.076   7.998
76311SOL    HW230773   0.015  14.837   8.096
76312SOL     OW30774   4.813   6.151   9.604
76312SOL    HW130775   4.793   6.173   9.695
76312SOL    HW230776   4.732   6.172   9.557
76313SOL     OW30777  10.907   5.647   6.067
76313SOL    HW130778  10.860   5.676   6.146
76313SOL    HW230779  10.927   5.728   6.020
76314SOL     OW30780   0.362   7.675   6.726
76314SOL    HW130781   0.443   7.698   6.772
76314SOL    HW230782   0.387   7.605   6.666
76315SOL     OW30783   6.200   2.237   6.522
76315SOL    HW130784   6.272   2.245   6.459
76315SOL    HW230785   6.146   2.166   6.487
76316SOL     OW30786   8.663   5.110  11.646
76316SOL    HW130787   8.669   5.204  11.658
76316SOL    HW230788   8.752   5.078  11.660
76317SOL     OW30789  10.184  14.057   3.528
76317SOL    HW130790  10.224  13.973   3.550
76317SOL    HW230791  10.218  14.117   3.594
76318SOL     OW30792   8.948   0.931  11.444
76318SOL    HW130793   8.941   1.000  11.510
76318SOL    HW230794   9.041   0.929  11.421
76319SOL     OW30795  13.268  14.495   4.304
76319SOL    HW130796  13.205  14.429   4.275
76319SOL    HW230797  13.353  14.452   4.293
76320SOL     OW30798  13.224   1.850  13.792
76320SOL    HW130799  13.197   1.912  13.859
76320SOL    HW230800  13.143   1.803  13.768
76321SOL     OW30801   1.018   9.772  10.132
76321SOL    HW130802   1.068   9.753  10.212
76321SOL    HW230803   1.063   9.846  10.092
76322SOL     OW30804   6.000   3.141  11.709
76322SOL    HW130805   5.963   3.056  11.686
76322SOL    HW230806   6.044   3.170  11.629
76323SOL     OW30807   0.158   1.610  13.364
76323SOL    HW130808   0.240   1.561  13.371
76323SOL    HW230809   0.185   1.701  13.352
76324SOL     OW30810   0.895  10.052   4.142
76324SOL    HW130811   0.821   9.995   4.119
76324SOL    HW230812   0.971   9.994   4.141
76325SOL     OW30813  11.245   8.603   8.157
76325SOL    HW130814  11.260   8.527   8.101
76325SOL    HW230815  11.193   8.568   8.230
76326SOL     OW30816   7.437   9.183   3.633
76326SOL    HW130817   7.376   9.249   3.665
76326SOL    HW230818   7.486   9.227   3.563
76327SOL     OW30819   9.834  11.084   6.624
76327SOL    HW130820   9.785  11.116   6.700
76327SOL    HW230821   9.926  11.087   6.653
76328SOL     OW30822   7.781  12.402   7.107
76328SOL    HW130823   7.790  12.328   7.048
76328SOL    HW230824   7.830  12.473   7.065
76329SOL     OW30825   3.520  12.066   5.617
76329SOL    HW130826   3.576  12.048   5.692
76329SOL    HW230827   3.466  12.141   5.643
76330SOL     OW30828  13.337   6.887  11.079
76330SOL    HW130829  13.316   6.928  10.996
76330SOL    HW230830  13.254   6.883  11.126
76331SOL     OW30831   1.050   5.118  12.921
76331SOL    HW130832   1.113   5.188  12.903
76331SOL    HW230833   1.056   5.059  12.846
76332SOL     OW30834   3.955   9.200   2.683
76332SOL    HW130835   3.927   9.153   2.762
76332SOL    HW230836   4.030   9.150   2.652
76333SOL     OW30837   6.742   2.219   1.163
76333SOL    HW130838   6.786   2.145   1.204
76333SOL    HW230839   6.712   2.185   1.078
76334SOL     OW30840   9.907   2.527   3.153
76334SOL    HW130841   9.888   2.434   3.164
76334SOL    HW230842   9.921   2.560   3.242
76335SOL     OW30843   1.590   3.568  14.121
76335SOL    HW130844   1.520   3.503  14.117
76335SOL    HW230845   1.554   3.639  14.174
76336SOL     OW30846   0.800  14.158  11.311
76336SOL    HW130847   0.852  14.206  11.376
76336SOL    HW230848   0.836  14.185  11.226
76337SOL     OW30849  12.889  12.118   3.780
76337SOL    HW130850  12.939  12.143   3.857
76337SOL    HW230851  12.954  12.086   3.718
76338SOL     OW30852   4.128  12.565  12.936
76338SOL    HW130853   4.218  12.532  12.937
76338SOL    HW230854   4.074  12.488  12.953
76339SOL     OW30855   6.526   9.115   2.397
76339SOL    HW130856   6.454   9.146   2.452
76339SOL    HW230857   6.558   9.037   2.442
76340SOL     OW30858   7.584   1.938   9.190
76340SOL    HW130859   7.661   1.937   9.133
76340SOL    HW230860   7.611   1.991   9.265
76341SOL     OW30861   1.988  14.648   8.389
76341SOL    HW130862   1.978  14.581   8.322
76341SOL    HW230863   2.012  14.727   8.340
76342SOL     OW30864   9.771   2.363   2.237
76342SOL    HW130865   9.743   2.319   2.316
76342SOL    HW230866   9.796   2.293   2.177
76343SOL     OW30867   1.440   5.206   1.859
76343SOL    HW130868   1.526   5.226   1.897
76343SOL    HW230869   1.453   5.122   1.814
76344SOL     OW30870   0.905   7.583  12.372
76344SOL    HW130871   0.847   7.508  12.376
76344SOL    HW230872   0.991   7.549  12.399
76345SOL     OW30873   1.084  14.038   5.364
76345SOL    HW130874   1.036  13.985   5.427
76345SOL    HW230875   1.075  14.128   5.395
76346SOL     OW30876  12.220  14.230   3.013
76346SOL    HW130877  12.277  14.290   3.061
76346SOL    HW230878  12.163  14.287   2.963
76347SOL     OW30879   1.768   7.100   1.557
76347SOL    HW130880   1.801   7.023   1.509
76347SOL    HW230881   1.728   7.064   1.636
76348SOL     OW30882  14.365   2.301  11.120
76348SOL    HW130883  14.370   2.339  11.207
76348SOL    HW230884  14.304   2.228  11.129
76349SOL     OW30885  10.326  11.130   6.536
76349SOL    HW130886  10.234  11.157   6.540
76349SOL    HW230887  10.366  11.192   6.475
76350SOL     OW30888  12.367  12.606  11.977
76350SOL    HW130889  12.388  12.602  11.884
76350SOL    HW230890  12.445  12.642  12.018
76351SOL     OW30891   5.956  11.650   1.631
76351SOL    HW130892   5.937  11.743   1.618
76351SOL    HW230893   6.031  11.648   1.690
76352SOL     OW30894   9.492   6.075   4.821
76352SOL    HW130895   9.551   6.042   4.753
76352SOL    HW230896   9.525   6.037   4.902
76353SOL     OW30897  13.273  10.510   7.398
76353SOL    HW130898  13.320  10.593   7.397
76353SOL    HW230899  13.269  10.484   7.306
76354SOL     OW30900   2.438   7.654  10.109
76354SOL    HW130901   2.488   7.715  10.163
76354SOL    HW230902   2.471   7.668  10.020
76355SOL     OW30903   0.827  10.178   6.272
76355SOL    HW130904   0.765  10.250   6.270
76355SOL    HW230905   0.863  10.174   6.183
76356SOL     OW30906  11.087   7.539   6.714
76356SOL    HW130907  11.120   7.520   6.626
76356SOL    HW230908  11.160   7.514   6.772
76357SOL     OW30909  14.000   3.434  10.635
76357SOL    HW130910  14.048   3.496  10.690
76357SOL    HW230911  13.980   3.484  10.555
76358SOL     OW30912   1.079   8.679   1.720
76358SOL    HW130913   1.158   8.724   1.752
76358SOL    HW230914   1.041   8.639   1.798
76359SOL     OW30915   4.889   3.592   2.976
76359SOL    HW130916   4.971   3.545   2.960
76359SOL    HW230917   4.897   3.623   3.067
76360SOL     OW30918   8.277  11.627   6.626
76360SOL    HW130919   8.192  11.585   6.635
76360SOL    HW230920   8.257  11.720   6.611
76361SOL     OW30921   3.729  13.830   6.245
76361SOL    HW130922   3.800  13.894   6.234
76361SOL    HW230923   3.653  13.883   6.269
76362SOL     OW30924  13.299   0.836   6.737
76362SOL    HW130925  13.367   0.835   6.804
76362SOL    HW230926  13.287   0.744   6.714
76363SOL     OW30927   2.764   6.343   3.997
76363SOL    HW130928   2.803   6.289   4.066
76363SOL    HW230929   2.788   6.298   3.915
76364SOL     OW30930   9.477  12.698  13.666
76364SOL    HW130931   9.497  12.784  13.703
76364SOL    HW230932   9.411  12.662  13.725
76365SOL     OW30933   2.051  11.140   5.057
76365SOL    HW130934   2.016  11.223   5.089
76365SOL    HW230935   2.008  11.126   4.973
76366SOL     OW30936  14.463   8.840   6.667
76366SOL    HW130937  14.487   8.831   6.759
76366SOL    HW230938  14.373   8.872   6.668
76367SOL     OW30939   8.787  12.176  13.675
76367SOL    HW130940   8.817  12.266  13.666
76367SOL    HW230941   8.803  12.154  13.767
76368SOL     OW30942   3.512   3.408   7.735
76368SOL    HW130943   3.590   3.355   7.723
76368SOL    HW230944   3.441   3.344   7.746
76369SOL     OW30945  11.039   6.985   9.699
76369SOL    HW130946  11.115   7.042   9.691
76369SOL    HW230947  10.969   7.042   9.732
76370SOL     OW30948   8.242   9.845   2.261
76370SOL    HW130949   8.302   9.902   2.213
76370SOL    HW230950   8.252   9.759   2.220
76371SOL     OW30951   6.799   7.765   5.123
76371SOL    HW130952   6.705   7.782   5.133
76371SOL    HW230953   6.803   7.683   5.075
76372SOL     OW30954   7.329   5.997   6.147
76372SOL    HW130955   7.298   6.023   6.060
76372SOL    HW230956   7.253   6.010   6.204
76373SOL     OW30957  13.827   1.311   5.845
76373SOL    HW130958  13.764   1.289   5.776
76373SOL    HW230959  13.861   1.227   5.874
76374SOL     OW30960   6.503   9.053   4.895
76374SOL    HW130961   6.508   8.965   4.932
76374SOL    HW230962   6.553   9.108   4.955
76375SOL     OW30963  13.766   4.105   2.903
76375SOL    HW130964  13.808   4.094   2.988
76375SOL    HW230965  13.748   4.199   2.897
76376SOL     OW30966   4.923  14.077   6.920
76376SOL    HW130967   4.941  14.090   7.013
76376SOL    HW230968   5.010  14.061   6.881
76377SOL     OW30969   6.941   6.002   4.700
76377SOL    HW130970   6.942   6.086   4.653
76377SOL    HW230971   7.017   6.005   4.757
76378SOL     OW30972  13.976   1.661   1.966
76378SOL    HW130973  14.040   1.592   1.985
76378SOL    HW230974  13.997   1.689   1.877
76379SOL     OW30975   4.822   6.670   0.142
76379SOL    HW130976   4.759   6.704   0.077
76379SOL    HW230977   4.807   6.576   0.142
76380SOL     OW30978   6.955  12.751   0.862
76380SOL    HW130979   6.866  12.718   0.847
76380SOL    HW230980   6.999  12.680   0.909
76381SOL     OW30981   5.850   4.641   8.402
76381SOL    HW130982   5.826   4.726   8.365
76381SOL    HW230983   5.940   4.653   8.432
76382SOL     OW30984   9.995  14.666   7.143
76382SOL    HW130985   9.979  14.731   7.212
76382SOL    HW230986   9.927  14.682   7.078
76383SOL     OW30987   6.715  14.048   4.334
76383SOL    HW130988   6.781  14.097   4.286
76383SOL    HW230989   6.754  14.031   4.419
76384SOL     OW30990   1.727   3.574  14.790
76384SOL    HW130991   1.725   3.489  14.836
76384SOL    HW230992   1.635   3.594  14.773
76385SOL     OW30993   8.975   3.067   3.458
76385SOL    HW130994   8.960   3.111   3.541
76385SOL    HW230995   8.891   3.027   3.436
76386SOL     OW30996  12.611  13.373   0.734
76386SOL    HW130997  12.607  13.369   0.639
76386SOL    HW230998  12.531  13.419   0.760
76387SOL     OW30999   8.196   8.368  13.407
76387SOL    HW131000   8.142   8.447  13.399
76387SOL    HW231001   8.144   8.309  13.462
76388SOL     OW31002   5.169   5.580   0.628
76388SOL    HW131003   5.205   5.583   0.539
76388SOL    HW231004   5.133   5.668   0.642
76389SOL     OW31005   3.341  10.075   0.172
76389SOL    HW131006   3.350  10.170   0.159
76389SOL    HW231007   3.408  10.054   0.236
76390SOL     OW31008  13.955  12.334  10.596
76390SOL    HW131009  13.898  12.315  10.671
76390SOL    HW231010  14.016  12.261  10.594
76391SOL     OW31011   8.444  10.750  12.467
76391SOL    HW131012   8.360  10.787  12.439
76391SOL    HW231013   8.475  10.701  12.392
76392SOL     OW31014  13.767  13.886  12.467
76392SOL    HW131015  13.724  13.914  12.386
76392SOL    HW231016  13.696  13.850  12.520
76393SOL     OW31017  12.594   3.900   5.073
76393SOL    HW131018  12.507   3.869   5.097
76393SOL    HW231019  12.588   3.995   5.079
76394SOL     OW31020  13.877   1.928   4.809
76394SOL    HW131021  13.911   1.839   4.803
76394SOL    HW231022  13.930   1.969   4.878
76395SOL     OW31023   6.260  11.402   3.791
76395SOL    HW131024   6.202  11.469   3.755
76395SOL    HW231025   6.347  11.429   3.765
76396SOL     OW31026   1.054  14.517   9.832
76396SOL    HW131027   1.119  14.446   9.835
76396SOL    HW231028   1.089  14.583   9.891
76397SOL     OW31029   6.105   4.281   9.029
76397SOL    HW131030   6.094   4.369   8.993
76397SOL    HW231031   6.173   4.241   8.975
76398SOL     OW31032   0.161   3.643  12.759
76398SOL    HW131033   0.115   3.716  12.716
76398SOL    HW231034   0.117   3.565  12.727
76399SOL     OW31035  13.649  13.986   6.471
76399SOL    HW131036  13.646  14.037   6.390
76399SOL    HW231037  13.666  13.897   6.442
76400SOL     OW31038  14.679   0.267  10.306
76400SOL    HW131039  14.686   0.289  10.213
76400SOL    HW231040  14.741   0.326  10.350
76401SOL     OW31041   6.007   0.839   9.805
76401SOL    HW131042   5.974   0.765   9.754
76401SOL    HW231043   6.012   0.805   9.895
76402SOL     OW31044  14.830  13.936  13.124
76402SOL    HW131045   0.001  13.854  13.108
76402SOL    HW231046  14.744  13.907  13.154
76403SOL     OW31047   9.351   6.032   8.878
76403SOL    HW131048   9.321   6.088   8.807
76403SOL    HW231049   9.304   6.064   8.955
76404SOL     OW31050   6.269  11.507   3.434
76404SOL    HW131051   6.194  11.537   3.486
76404SOL    HW231052   6.335  11.575   3.444
76405SOL     OW31053  11.664  11.164  12.841
76405SOL    HW131054  11.729  11.235  12.842
76405SOL    HW231055  11.582  11.208  12.818
76406SOL     OW31056   8.536   3.197   4.842
76406SOL    HW131057   8.479   3.226   4.771
76406SOL    HW231058   8.488   3.126   4.884
76407SOL     OW31059   8.193  13.475   9.412
76407SOL    HW131060   8.182  13.385   9.443
76407SOL    HW231061   8.246  13.467   9.332
76408SOL     OW31062   4.591   7.609  12.561
76408SOL    HW131063   4.596   7.539  12.626
76408SOL    HW231064   4.681   7.641  12.553
76409SOL     OW31065   5.792   8.419  13.854
76409SOL    HW131066   5.750   8.476  13.789
76409SOL    HW231067   5.885   8.419  13.828
76410SOL     OW31068   0.542   3.219   6.245
76410SOL    HW131069   0.603   3.232   6.172
76410SOL    HW231070   0.597   3.216   6.323
76411SOL     OW31071  11.076   0.578   8.568
76411SOL    HW131072  11.122   0.644   8.516
76411SOL    HW231073  11.055   0.509   8.505
76412SOL     OW31074  12.092   4.465   4.466
76412SOL    HW131075  12.008   4.441   4.429
76412SOL    HW231076  12.156   4.413   4.418
76413SOL     OW31077  14.772   1.078   9.880
76413SOL    HW131078  14.735   1.166   9.892
76413SOL    HW231079  14.720   1.039   9.811
76414SOL     OW31080  12.047  10.989  12.935
76414SOL    HW131081  12.127  10.940  12.917
76414SOL    HW231082  11.988  10.925  12.975
76415SOL     OW31083  10.925   3.315   5.219
76415SOL    HW131084  10.866   3.302   5.293
76415SOL    HW231085  10.880   3.273   5.145
76416SOL     OW31086  12.848   9.600  12.757
76416SOL    HW131087  12.906   9.581  12.682
76416SOL    HW231088  12.764   9.560  12.732
76417SOL     OW31089   4.245   8.737  14.392
76417SOL    HW131090   4.318   8.776  14.344
76417SOL    HW231091   4.287   8.684  14.461
76418SOL     OW31092   1.585   6.757   9.101
76418SOL    HW131093   1.656   6.784   9.043
76418SOL    HW231094   1.515   6.821   9.085
76419SOL     OW31095   7.423  10.362   7.108
76419SOL    HW131096   7.461  10.430   7.164
76419SOL    HW231097   7.489  10.293   7.104
76420SOL     OW31098  13.762   9.026   9.592
76420SOL    HW131099  13.814   8.951   9.562
76420SOL    HW231100  13.758   9.084   9.516
76421SOL     OW31101   1.517  10.346  11.268
76421SOL    HW131102   1.511  10.325  11.175
76421SOL    HW231103   1.481  10.268  11.312
76422SOL     OW31104  12.626  12.662  12.049
76422SOL    HW131105  12.680  12.735  12.079
76422SOL    HW231106  12.676  12.623  11.978
76423SOL     OW31107  14.200   1.124  11.183
76423SOL    HW131108  14.138   1.178  11.134
76423SOL    HW231109  14.274   1.113  11.123
76424SOL     OW31110   3.693   2.985   2.003
76424SOL    HW131111   3.609   3.010   2.041
76424SOL    HW231112   3.747   3.063   2.009
76425SOL     OW31113   4.240  10.190   4.530
76425SOL    HW131114   4.318  10.157   4.574
76425SOL    HW231115   4.167  10.149   4.575
76426SOL     OW31116   0.708  13.154   2.955
76426SOL    HW131117   0.752  13.081   2.912
76426SOL    HW231118   0.720  13.228   2.895
76427SOL     OW31119  13.903  11.230  13.988
76427SOL    HW131120  13.819  11.273  14.004
76427SOL    HW231121  13.954  11.296  13.940
76428SOL     OW31122   3.968  14.760   6.688
76428SOL    HW131123   3.981  14.852   6.666
76428SOL    HW231124   3.937  14.761   6.779
76429SOL     OW31125   0.344  14.797  14.740
76429SOL    HW131126   0.392  14.752  14.671
76429SOL    HW231127   0.398  14.874  14.760
76430SOL     OW31128  14.856   7.614   7.180
76430SOL    HW131129  14.856   7.556   7.104
76430SOL    HW231130  14.782   7.673   7.166
76431SOL     OW31131   2.450   3.328  11.836
76431SOL    HW131132   2.532   3.358  11.875
76431SOL    HW231133   2.410   3.408  11.801
76432SOL     OW31134  10.520   3.616   3.921
76432SOL    HW131135  10.429   3.608   3.949
76432SOL    HW231136  10.517   3.674   3.845
76433SOL     OW31137   9.005   5.198   7.249
76433SOL    HW131138   9.034   5.154   7.329
76433SOL    HW231139   9.084   5.237   7.214
76434SOL     OW31140  11.490   5.209   2.451
76434SOL    HW131141  11.553   5.274   2.483
76434SOL    HW231142  11.406   5.237   2.487
76435SOL     OW31143   0.609   6.334   1.255
76435SOL    HW131144   0.675   6.343   1.187
76435SOL    HW231145   0.617   6.243   1.285
76436SOL     OW31146   3.065  13.739  13.086
76436SOL    HW131147   3.150  13.721  13.125
76436SOL    HW231148   3.054  13.834  13.095
76437SOL     OW31149  12.214   9.213   4.814
76437SOL    HW131150  12.245   9.162   4.888
76437SOL    HW231151  12.125   9.181   4.798
76438SOL     OW31152   5.617   1.776   5.177
76438SOL    HW131153   5.531   1.777   5.219
76438SOL    HW231154   5.665   1.708   5.224
76439SOL     OW31155  11.917  13.059   5.923
76439SOL    HW131156  11.962  12.980   5.893
76439SOL    HW231157  11.864  13.029   5.997
76440SOL     OW31158  12.955  14.099  12.684
76440SOL    HW131159  13.025  14.118  12.746
76440SOL    HW231160  13.000  14.054  12.611
76441SOL     OW31161   8.236   9.736   9.142
76441SOL    HW131162   8.189   9.819   9.149
76441SOL    HW231163   8.252   9.726   9.048
76442SOL     OW31164  13.199   9.553  13.397
76442SOL    HW131165  13.116   9.574  13.353
76442SOL    HW231166  13.240   9.489  13.339
76443SOL     OW31167   5.957   1.684   3.521
76443SOL    HW131168   5.946   1.621   3.592
76443SOL    HW231169   5.904   1.760   3.548
76444SOL     OW31170   9.379  13.260   9.815
76444SOL    HW131171   9.395  13.346   9.855
76444SOL    HW231172   9.466  13.229   9.789
76445SOL     OW31173   7.547   8.534   1.461
76445SOL    HW131174   7.517   8.499   1.544
76445SOL    HW231175   7.539   8.461   1.399
76446SOL     OW31176  10.284   2.943   7.731
76446SOL    HW131177  10.321   2.864   7.769
76446SOL    HW231178  10.224   2.976   7.797
76447SOL     OW31179  12.812   1.000   8.819
76447SOL    HW131180  12.851   0.937   8.879
76447SOL    HW231181  12.724   1.015   8.853
76448SOL     OW31182  11.373   8.423  10.116
76448SOL    HW131183  11.322   8.352  10.076
76448SOL    HW231184  11.459   8.416  10.075
76449SOL     OW31185   0.354  10.276   7.776
76449SOL    HW131186   0.273  10.241   7.813
76449SOL    HW231187   0.413  10.201   7.771
76450SOL     OW31188  13.402   0.008  11.318
76450SOL    HW131189  13.437   0.086  11.275
76450SOL    HW231190  13.384  14.823  11.247
76451SOL     OW31191   9.125  14.282  10.927
76451SOL    HW131192   9.115  14.372  10.957
76451SOL    HW231193   9.060  14.274  10.856
76452SOL     OW31194  11.711   0.499   9.114
76452SOL    HW131195  11.673   0.502   9.027
76452SOL    HW231196  11.661   0.563   9.165
76453SOL     OW31197   0.301  12.165  11.746
76453SOL    HW131198   0.356  12.191  11.820
76453SOL    HW231199   0.347  12.091  11.706
76454SOL     OW31200   8.709   8.299   0.962
76454SOL    HW131201   8.681   8.355   1.034
76454SOL    HW231202   8.741   8.359   0.895
76455SOL     OW31203  10.157   0.164   1.493
76455SOL    HW131204  10.144   0.109   1.570
76455SOL    HW231205  10.195   0.245   1.527
76456SOL     OW31206   0.731   8.910   6.593
76456SOL    HW131207   0.739   8.855   6.671
76456SOL    HW231208   0.714   8.998   6.627
76457SOL     OW31209   3.678   3.552   7.514
76457SOL    HW131210   3.758   3.591   7.550
76457SOL    HW231211   3.624   3.627   7.490
76458SOL     OW31212   4.769   0.380   0.225
76458SOL    HW131213   4.676   0.400   0.224
76458SOL    HW231214   4.774   0.285   0.225
76459SOL     OW31215   7.063   8.859   6.605
76459SOL    HW131216   7.144   8.829   6.564
76459SOL    HW231217   7.010   8.780   6.617
76460SOL     OW31218  14.278   2.652  14.566
76460SOL    HW131219  14.277   2.584  14.499
76460SOL    HW231220  14.292   2.733  14.518
76461SOL     OW31221  13.300   6.249   6.364
76461SOL    HW131222  13.358   6.301   6.419
76461SOL    HW231223  13.274   6.309   6.294
76462SOL     OW31224  13.611   2.977   3.345
76462SOL    HW131225  13.516   2.971   3.348
76462SOL    HW231226  13.630   3.026   3.265
76463SOL     OW31227  10.947   6.909   4.984
76463SOL    HW131228  10.945   6.823   5.026
76463SOL    HW231229  11.032   6.913   4.941
76464SOL     OW31230   2.125  11.718  11.524
76464SOL    HW131231   2.206  11.726  11.474
76464SOL    HW231232   2.060  11.689  11.459
76465SOL     OW31233   7.197   7.236  13.561
76465SOL    HW131234   7.288   7.208  13.560
76465SOL    HW231235   7.150   7.165  13.517
76466SOL     OW31236   5.978  10.932   9.855
76466SOL    HW131237   6.033  11.007   9.831
76466SOL    HW231238   6.008  10.907   9.942
76467SOL     OW31239   6.853   0.690  13.751
76467SOL    HW131240   6.926   0.697  13.690
76467SOL    HW231241   6.846   0.596  13.770
76468SOL     OW31242   3.368   3.240   1.331
76468SOL    HW131243   3.305   3.273   1.395
76468SOL    HW231244   3.384   3.149   1.357
76469SOL     OW31245   6.878   3.492   6.594
76469SOL    HW131246   6.849   3.466   6.682
76469SOL    HW231247   6.801   3.477   6.539
76470SOL     OW31248  10.275   6.156   7.350
76470SOL    HW131249  10.368   6.155   7.329
76470SOL    HW231250  10.262   6.240   7.395
76471SOL     OW31251   9.318  12.460   3.098
76471SOL    HW131252   9.372  12.439   3.175
76471SOL    HW231253   9.375  12.442   3.023
76472SOL     OW31254  10.454  12.812   5.305
76472SOL    HW131255  10.549  12.810   5.296
76472SOL    HW231256  10.425  12.869   5.234
76473SOL     OW31257   1.510   0.277   3.254
76473SOL    HW131258   1.497   0.346   3.319
76473SOL    HW231259   1.561   0.318   3.185
76474SOL     OW31260   7.355  13.163   2.444
76474SOL    HW131261   7.378  13.082   2.398
76474SOL    HW231262   7.380  13.232   2.383
76475SOL     OW31263   1.671  10.995   2.651
76475SOL    HW131264   1.747  10.937   2.661
76475SOL    HW231265   1.674  11.023   2.560
76476SOL     OW31266  12.541   1.762   8.922
76476SOL    HW131267  12.600   1.720   8.985
76476SOL    HW231268  12.583   1.846   8.904
76477SOL     OW31269  10.707  14.575  13.290
76477SOL    HW131270  10.730  14.663  13.262
76477SOL    HW231271  10.646  14.588  13.363
76478SOL     OW31272   8.551  11.883   3.327
76478SOL    HW131273   8.481  11.860   3.265
76478SOL    HW231274   8.504  11.907   3.407
76479SOL     OW31275  13.763  14.056   7.712
76479SOL    HW131276  13.709  13.982   7.683
76479SOL    HW231277  13.792  14.098   7.631
76480SOL     OW31278   0.078   9.271  13.331
76480SOL    HW131279   0.072   9.301  13.421
76480SOL    HW231280   0.030   9.188  13.330
76481SOL     OW31281  10.403  10.117   7.109
76481SOL    HW131282  10.491  10.151   7.093
76481SOL    HW231283  10.382  10.147   7.197
76482SOL     OW31284  10.555  11.562   7.269
76482SOL    HW131285  10.623  11.577   7.334
76482SOL    HW231286  10.502  11.492   7.304
76483SOL     OW31287   5.606   5.551  13.818
76483SOL    HW131288   5.633   5.474  13.768
76483SOL    HW231289   5.618   5.624  13.757
76484SOL     OW31290   7.013   2.221   0.271
76484SOL    HW131291   6.941   2.198   0.213
76484SOL    HW231292   7.022   2.316   0.263
76485SOL     OW31293   4.644   9.244   5.796
76485SOL    HW131294   4.640   9.210   5.885
76485SOL    HW231295   4.736   9.269   5.784
76486SOL     OW31296  11.913   6.228  10.291
76486SOL    HW131297  11.827   6.241  10.331
76486SOL    HW231298  11.920   6.298  10.226
76487SOL     OW31299   3.676   6.422  11.129
76487SOL    HW131300   3.603   6.484  11.139
76487SOL    HW231301   3.749   6.476  11.101
76488SOL     OW31302   3.471   2.738   8.038
76488SOL    HW131303   3.501   2.781   8.118
76488SOL    HW231304   3.535   2.764   7.971
76489SOL     OW31305  12.727  12.133  13.408
76489SOL    HW131306  12.638  12.153  13.438
76489SOL    HW231307  12.783  12.193  13.457
76490SOL     OW31308  12.408  11.083  12.513
76490SOL    HW131309  12.457  11.150  12.559
76490SOL    HW231310  12.358  11.130  12.447
76491SOL     OW31311   9.272  11.835   5.978
76491SOL    HW131312   9.257  11.884   5.896
76491SOL    HW231313   9.227  11.886   6.045
76492SOL     OW31314   6.031  14.089   5.319
76492SOL    HW131315   6.002  14.171   5.279
76492SOL    HW231316   5.956  14.030   5.311
76493SOL     OW31317  12.402   4.641  13.651
76493SOL    HW131318  12.400   4.725  13.605
76493SOL    HW231319  12.323   4.595  13.623
76494SOL     OW31320   0.581   7.269  11.023
76494SOL    HW131321   0.625   7.186  11.007
76494SOL    HW231322   0.489   7.252  11.002
76495SOL     OW31323  14.870  12.802   8.315
76495SOL    HW131324  14.852  12.734   8.250
76495SOL    HW231325   0.086  12.825   8.301
76496SOL     OW31326  12.316   6.805   1.197
76496SOL    HW131327  12.393   6.777   1.248
76496SOL    HW231328  12.267   6.725   1.181
76497SOL     OW31329  13.384   9.973   2.051
76497SOL    HW131330  13.416   9.899   1.998
76497SOL    HW231331  13.289   9.963   2.049
76498SOL     OW31332  12.260   3.041   1.338
76498SOL    HW131333  12.341   3.039   1.286
76498SOL    HW231334  12.278   2.984   1.412
76499SOL     OW31335   8.694   9.051   9.531
76499SOL    HW131336   8.681   9.050   9.436
76499SOL    HW231337   8.787   9.067   9.543
76500SOL     OW31338   9.854   3.544   2.119
76500SOL    HW131339   9.915   3.474   2.097
76500SOL    HW231340   9.794   3.504   2.182
76501SOL     OW31341   3.062  11.637   6.017
76501SOL    HW131342   3.089  11.562   6.071
76501SOL    HW231343   3.037  11.598   5.933
76502SOL     OW31344   2.790  13.677   2.194
76502SOL    HW131345   2.738  13.748   2.233
76502SOL    HW231346   2.871  13.675   2.245
76503SOL     OW31347  10.249   3.262   5.099
76503SOL    HW131348  10.173   3.307   5.065
76503SOL    HW231349  10.278   3.316   5.173
76504SOL     OW31350  10.713  10.743   0.452
76504SOL    HW131351  10.747  10.677   0.391
76504SOL    HW231352  10.663  10.803   0.397
76505SOL     OW31353   7.343   6.774  11.732
76505SOL    HW131354   7.436   6.794  11.738
76505SOL    HW231355   7.317   6.752  11.822
76506SOL     OW31356  10.653   4.075  12.381
76506SOL    HW131357  10.746   4.051  12.380
76506SOL    HW231358  10.611   4.011  12.324
76507SOL     OW31359  12.370   0.061   1.921
76507SOL    HW131360  12.328   0.019   1.996
76507SOL    HW231361  12.451   0.012   1.907
76508SOL     OW31362   2.175   5.503  10.910
76508SOL    HW131363   2.246   5.438  10.911
76508SOL    HW231364   2.132   5.490  10.826
76509SOL     OW31365   0.778   5.257  14.631
76509SOL    HW131366   0.688   5.277  14.658
76509SOL    HW231367   0.768   5.197  14.557
76510SOL     OW31368  12.875  14.207   9.638
76510SOL    HW131369  12.957  14.241   9.672
76510SOL    HW231370  12.807  14.262   9.677
76511SOL     OW31371  10.274   7.000   4.195
76511SOL    HW131372  10.274   6.941   4.271
76511SOL    HW231373  10.200   7.058   4.209
76512SOL     OW31374   5.999   3.235   0.801
76512SOL    HW131375   5.946   3.219   0.879
76512SOL    HW231376   6.089   3.225   0.830
76513SOL     OW31377   4.272  12.679  10.156
76513SOL    HW131378   4.288  12.658  10.064
76513SOL    HW231379   4.256  12.595  10.198
76514SOL     OW31380  14.537   9.349   5.725
76514SOL    HW131381  14.497   9.262   5.727
76514SOL    HW231382  14.593   9.348   5.647
76515SOL     OW31383   4.757   4.530   4.255
76515SOL    HW131384   4.845   4.498   4.272
76515SOL    HW231385   4.770   4.611   4.206
76516SOL     OW31386   4.605   9.853   5.560
76516SOL    HW131387   4.671   9.878   5.495
76516SOL    HW231388   4.655   9.842   5.641
76517SOL     OW31389   1.507  14.678   1.671
76517SOL    HW131390   1.451  14.756   1.679
76517SOL    HW231391   1.446  14.604   1.677
76518SOL     OW31392  12.796   4.489   1.084
76518SOL    HW131393  12.707   4.479   1.049
76518SOL    HW231394  12.848   4.424   1.036
76519SOL     OW31395   2.911   0.981   8.984
76519SOL    HW131396   2.882   1.065   9.020
76519SOL    HW231397   2.886   0.985   8.892
76520SOL     OW31398   6.458   4.246   6.123
76520SOL    HW131399   6.553   4.261   6.119
76520SOL    HW231400   6.449   4.154   6.146
76521SOL     OW31401   4.339  10.009  13.923
76521SOL    HW131402   4.358  10.014  13.829
76521SOL    HW231403   4.425  10.012  13.964
76522SOL     OW31404  13.293   4.611   7.837
76522SOL    HW131405  13.302   4.581   7.747
76522SOL    HW231406  13.328   4.700   7.836
76523SOL     OW31407  13.499   5.883   8.618
76523SOL    HW131408  13.435   5.950   8.597
76523SOL    HW231409  13.581   5.930   8.630
76524SOL     OW31410  10.947  13.401   4.456
76524SOL    HW131411  10.907  13.471   4.404
76524SOL    HW231412  11.024  13.375   4.406
76525SOL     OW31413   4.799  10.102  10.356
76525SOL    HW131414   4.757  10.186  10.339
76525SOL    HW231415   4.852  10.117  10.435
76526SOL     OW31416  13.318   3.435   1.019
76526SOL    HW131417  13.399   3.482   0.999
76526SOL    HW231418  13.315   3.362   0.957
76527SOL     OW31419   0.796   2.828   4.430
76527SOL    HW131420   0.774   2.736   4.442
76527SOL    HW231421   0.746   2.874   4.498
76528SOL     OW31422   6.428   7.160   1.327
76528SOL    HW131423   6.439   7.090   1.262
76528SOL    HW231424   6.366   7.220   1.286
76529SOL     OW31425   2.616   3.406   4.161
76529SOL    HW131426   2.697   3.439   4.200
76529SOL    HW231427   2.546   3.444   4.214
76530SOL     OW31428  10.235   1.123   7.501
76530SOL    HW131429  10.270   1.125   7.590
76530SOL    HW231430  10.158   1.066   7.507
76531SOL     OW31431   0.473   7.637   2.525
76531SOL    HW131432   0.449   7.706   2.586
76531SOL    HW231433   0.464   7.676   2.438
76532SOL     OW31434  13.879  13.644   5.498
76532SOL    HW131435  13.825  13.715   5.464
76532SOL    HW231436  13.914  13.677   5.581
76533SOL     OW31437   6.399  14.662   9.683
76533SOL    HW131438   6.415  14.582   9.732
76533SOL    HW231439   6.467  14.664   9.616
76534SOL     OW31440   5.145   8.972   5.402
76534SOL    HW131441   5.105   8.897   5.359
76534SOL    HW231442   5.231   8.942   5.429
76535SOL     OW31443   9.617   6.060   4.483
76535SOL    HW131444   9.619   5.964   4.487
76535SOL    HW231445   9.579   6.081   4.398
76536SOL     OW31446   3.582   6.387   0.566
76536SOL    HW131447   3.577   6.355   0.476
76536SOL    HW231448   3.495   6.370   0.602
76537SOL     OW31449  10.125   3.269   0.651
76537SOL    HW131450  10.134   3.343   0.710
76537SOL    HW231451  10.167   3.196   0.697
76538SOL     OW31452   1.695   4.564   2.179
76538SOL    HW131453   1.625   4.624   2.152
76538SOL    HW231454   1.714   4.513   2.100
76539SOL     OW31455   1.812   9.436   8.634
76539SOL    HW131456   1.808   9.477   8.548
76539SOL    HW231457   1.748   9.485   8.686
76540SOL     OW31458  13.756  12.752   1.189
76540SOL    HW131459  13.764  12.805   1.268
76540SOL    HW231460  13.767  12.662   1.219
76541SOL     OW31461  13.922   4.757  11.663
76541SOL    HW131462  13.973   4.707  11.726
76541SOL    HW231463  13.850   4.698  11.639
76542SOL     OW31464  14.259   8.887   1.187
76542SOL    HW131465  14.246   8.930   1.102
76542SOL    HW231466  14.305   8.953   1.240
76543SOL     OW31467   8.235  10.194   7.958
76543SOL    HW131468   8.297  10.195   8.031
76543SOL    HW231469   8.221  10.101   7.939
76544SOL     OW31470  12.657   7.572  11.909
76544SOL    HW131471  12.737   7.581  11.961
76544SOL    HW231472  12.588   7.553  11.973
76545SOL     OW31473   0.182   9.282  10.525
76545SOL    HW131474   0.118   9.352  10.535
76545SOL    HW231475   0.130   9.202  10.523
76546SOL     OW31476  11.596   9.154   7.752
76546SOL    HW131477  11.661   9.220   7.727
76546SOL    HW231478  11.648   9.082   7.788
76547SOL     OW31479  13.234   3.187   4.171
76547SOL    HW131480  13.289   3.167   4.247
76547SOL    HW231481  13.162   3.124   4.176
76548SOL     OW31482  12.273   3.311   0.773
76548SOL    HW131483  12.188   3.271   0.759
76548SOL    HW231484  12.270   3.343   0.863
76549SOL     OW31485   3.672   4.650  10.410
76549SOL    HW131486   3.744   4.588  10.405
76549SOL    HW231487   3.615   4.615  10.479
76550SOL     OW31488  13.364  14.004   4.392
76550SOL    HW131489  13.332  14.027   4.480
76550SOL    HW231490  13.291  14.023   4.334
76551SOL     OW31491   3.463  11.312   8.756
76551SOL    HW131492   3.383  11.274   8.718
76551SOL    HW231493   3.441  11.404   8.770
76552SOL     OW31494   1.611   6.796   6.793
76552SOL    HW131495   1.530   6.744   6.801
76552SOL    HW231496   1.631   6.823   6.882
76553SOL     OW31497  10.156  11.474   4.329
76553SOL    HW131498  10.126  11.469   4.420
76553SOL    HW231499  10.208  11.395   4.317
76554SOL     OW31500   8.844   1.492   8.183
76554SOL    HW131501   8.846   1.563   8.118
76554SOL    HW231502   8.933   1.459   8.186
76555SOL     OW31503  13.128  12.181   0.909
76555SOL    HW131504  13.131  12.258   0.965
76555SOL    HW231505  13.059  12.199   0.845
76556SOL     OW31506   3.520  14.159   2.341
76556SOL    HW131507   3.466  14.120   2.411
76556SOL    HW231508   3.597  14.102   2.336
76557SOL     OW31509  13.797   5.604  12.153
76557SOL    HW131510  13.796   5.561  12.068
76557SOL    HW231511  13.753   5.541  12.211
76558SOL     OW31512  13.636   6.482   1.836
76558SOL    HW131513  13.615   6.398   1.876
76558SOL    HW231514  13.629   6.466   1.742
76559SOL     OW31515  10.622  12.600   1.822
76559SOL    HW131516  10.686  12.533   1.798
76559SOL    HW231517  10.567  12.610   1.744
76560SOL     OW31518   6.194   7.847   4.630
76560SOL    HW131519   6.116   7.795   4.648
76560SOL    HW231520   6.255   7.785   4.588
76561SOL     OW31521  13.773   3.529   8.856
76561SOL    HW131522  13.735   3.454   8.810
76561SOL    HW231523  13.774   3.502   8.948
76562SOL     OW31524  14.525   4.108   6.518
76562SOL    HW131525  14.496   4.020   6.542
76562SOL    HW231526  14.448   4.149   6.479
76563SOL     OW31527  14.235   3.077  10.385
76563SOL    HW131528  14.201   2.988  10.378
76563SOL    HW231529  14.273   3.081  10.472
76564SOL     OW31530  12.451   5.064  12.465
76564SOL    HW131531  12.506   5.142  12.460
76564SOL    HW231532  12.488   5.006  12.398
76565SOL     OW31533   6.549   1.854   3.955
76565SOL    HW131534   6.616   1.828   4.019
76565SOL    HW231535   6.587   1.830   3.871
76566SOL     OW31536  13.662  14.020   6.035
76566SOL    HW131537  13.723  14.033   6.108
76566SOL    HW231538  13.698  14.074   5.965
76567SOL     OW31539   2.714  12.151   3.054
76567SOL    HW131540   2.667  12.182   2.976
76567SOL    HW231541   2.646  12.138   3.120
76568SOL     OW31542   5.029   4.026   2.608
76568SOL    HW131543   4.956   4.051   2.551
76568SOL    HW231544   5.104   4.073   2.572
76569SOL     OW31545   7.431  10.049   7.208
76569SOL    HW131546   7.348  10.054   7.161
76569SOL    HW231547   7.407  10.057   7.300
76570SOL     OW31548   7.779   4.231   3.783
76570SOL    HW131549   7.792   4.144   3.744
76570SOL    HW231550   7.759   4.287   3.709
76571SOL     OW31551   7.865   6.825   1.747
76571SOL    HW131552   7.821   6.740   1.738
76571SOL    HW231553   7.820   6.868   1.819
76572SOL     OW31554   4.489  13.372   2.275
76572SOL    HW131555   4.439  13.367   2.193
76572SOL    HW231556   4.477  13.286   2.316
76573SOL     OW31557   8.949  13.415   2.160
76573SOL    HW131558   9.034  13.436   2.121
76573SOL    HW231559   8.912  13.500   2.184
76574SOL     OW31560   0.505  13.295  10.982
76574SOL    HW131561   0.572  13.228  10.968
76574SOL    HW231562   0.552  13.368  11.022
76575SOL     OW31563   9.495   1.433   9.137
76575SOL    HW131564   9.457   1.494   9.200
76575SOL    HW231565   9.576   1.476   9.108
76576SOL     OW31566   9.646   4.762   5.961
76576SOL    HW131567   9.703   4.708   5.905
76576SOL    HW231568   9.683   4.850   5.954
76577SOL     OW31569   2.254  13.665   9.948
76577SOL    HW131570   2.262  13.643  10.041
76577SOL    HW231571   2.162  13.650   9.927
76578SOL     OW31572   0.999   9.422   8.436
76578SOL    HW131573   1.075   9.441   8.491
76578SOL    HW231574   1.036   9.387   8.355
76579SOL     OW31575  12.981   1.551   3.685
76579SOL    HW131576  12.988   1.519   3.775
76579SOL    HW231577  12.982   1.471   3.632
76580SOL     OW31578   8.075   5.494  10.367
76580SOL    HW131579   8.131   5.428  10.325
76580SOL    HW231580   7.986   5.465  10.348
76581SOL     OW31581   0.707   9.275   4.174
76581SOL    HW131582   0.795   9.236   4.170
76581SOL    HW231583   0.682   9.269   4.266
76582SOL     OW31584   1.784  14.655   6.185
76582SOL    HW131585   1.743  14.632   6.269
76582SOL    HW231586   1.788  14.572   6.137
76583SOL     OW31587   2.899  13.650   5.419
76583SOL    HW131588   2.931  13.580   5.363
76583SOL    HW231589   2.809  13.664   5.390
76584SOL     OW31590   3.374   0.772   1.216
76584SOL    HW131591   3.314   0.711   1.261
76584SOL    HW231592   3.344   0.773   1.126
76585SOL     OW31593  11.514   8.306   5.770
76585SOL    HW131594  11.587   8.312   5.709
76585SOL    HW231595  11.542   8.358   5.845
76586SOL     OW31596   7.805   6.575   8.392
76586SOL    HW131597   7.750   6.634   8.443
76586SOL    HW231598   7.887   6.624   8.379
76587SOL     OW31599   9.326   1.564   8.511
76587SOL    HW131600   9.290   1.562   8.422
76587SOL    HW231601   9.420   1.579   8.500
76588SOL     OW31602   0.660   0.140   7.763
76588SOL    HW131603   0.740   0.191   7.751
76588SOL    HW231604   0.591   0.195   7.724
76589SOL     OW31605   3.214   9.645   0.458
76589SOL    HW131606   3.152   9.656   0.530
76589SOL    HW231607   3.286   9.596   0.497
76590SOL     OW31608   8.486  13.626   2.250
76590SOL    HW131609   8.553  13.608   2.184
76590SOL    HW231610   8.405  13.592   2.212
76591SOL     OW31611   6.193  13.827   0.571
76591SOL    HW131612   6.142  13.747   0.573
76591SOL    HW231613   6.133  13.893   0.535
76592SOL     OW31614  12.330   8.466  13.898
76592SOL    HW131615  12.341   8.557  13.925
76592SOL    HW231616  12.254   8.435  13.947
76593SOL     OW31617   5.032   4.414   6.567
76593SOL    HW131618   5.106   4.407   6.506
76593SOL    HW231619   4.981   4.334   6.553
76594SOL     OW31620   6.576  13.886   2.840
76594SOL    HW131621   6.516  13.882   2.766
76594SOL    HW231622   6.526  13.853   2.914
76595SOL     OW31623   5.178   7.796  11.728
76595SOL    HW131624   5.257   7.843  11.703
76595SOL    HW231625   5.159   7.739  11.653
76596SOL     OW31626   6.536   4.178  10.992
76596SOL    HW131627   6.585   4.206  10.915
76596SOL    HW231628   6.518   4.259  11.040
76597SOL     OW31629  13.837  10.720   4.623
76597SOL    HW131630  13.880  10.804   4.605
76597SOL    HW231631  13.908  10.655   4.616
76598SOL     OW31632   5.523  13.947  14.237
76598SOL    HW131633   5.477  14.013  14.288
76598SOL    HW231634   5.603  13.929  14.287
76599SOL     OW31635  12.768  11.800   7.734
76599SOL    HW131636  12.714  11.869   7.696
76599SOL    HW231637  12.712  11.760   7.800
76600SOL     OW31638   8.822   7.831  14.113
76600SOL    HW131639   8.883   7.880  14.169
76600SOL    HW231640   8.800   7.753  14.163
76601SOL     OW31641   8.474   3.457  12.139
76601SOL    HW131642   8.482   3.418  12.051
76601SOL    HW231643   8.395   3.510  12.134
76602SOL     OW31644   4.299   6.734  10.098
76602SOL    HW131645   4.243   6.805  10.130
76602SOL    HW231646   4.351   6.774  10.029
76603SOL     OW31647   1.480  14.767  10.199
76603SOL    HW131648   1.485  14.762  10.104
76603SOL    HW231649   1.465  14.859  10.218
76604SOL     OW31650   0.300  14.102   9.894
76604SOL    HW131651   0.347  14.115   9.977
76604SOL    HW231652   0.320  14.012   9.869
76605SOL     OW31653   6.414   5.165  14.333
76605SOL    HW131654   6.416   5.141  14.240
76605SOL    HW231655   6.345   5.231  14.338
76606SOL     OW31656  11.789   1.707   9.724
76606SOL    HW131657  11.733   1.736   9.652
76606SOL    HW231658  11.774   1.772   9.793
76607SOL     OW31659   8.560  14.130  10.974
76607SOL    HW131660   8.634  14.128  11.035
76607SOL    HW231661   8.581  14.202  10.914
76608SOL     OW31662   5.729   2.981   8.321
76608SOL    HW131663   5.651   2.962   8.373
76608SOL    HW231664   5.763   2.895   8.295
76609SOL     OW31665   2.964  14.518   5.176
76609SOL    HW131666   2.932  14.456   5.242
76609SOL    HW231667   2.997  14.592   5.227
76610SOL     OW31668   7.424  13.229   3.572
76610SOL    HW131669   7.473  13.203   3.494
76610SOL    HW231670   7.447  13.164   3.638
76611SOL     OW31671   2.487   6.833  13.299
76611SOL    HW131672   2.414   6.885  13.265
76611SOL    HW231673   2.461   6.742  13.282
76612SOL     OW31674  10.893   3.101   0.916
76612SOL    HW131675  10.948   3.070   0.845
76612SOL    HW231676  10.945   3.087   0.996
76613SOL     OW31677  14.789   4.910   7.360
76613SOL    HW131678  14.821   4.918   7.270
76613SOL    HW231679  14.860   4.868   7.407
76614SOL     OW31680   3.859   0.418  13.106
76614SOL    HW131681   3.935   0.469  13.136
76614SOL    HW231682   3.784   0.474  13.126
76615SOL     OW31683   0.342   9.123  11.656
76615SOL    HW131684   0.279   9.054  11.634
76615SOL    HW231685   0.348   9.121  11.751
76616SOL     OW31686   3.099  13.336  12.783
76616SOL    HW131687   3.007  13.363  12.779
76616SOL    HW231688   3.125  13.355  12.873
76617SOL     OW31689   2.015  13.126  14.071
76617SOL    HW131690   1.923  13.145  14.053
76617SOL    HW231691   2.027  13.036  14.041
76618SOL     OW31692   7.674  14.267   5.149
76618SOL    HW131693   7.657  14.327   5.076
76618SOL    HW231694   7.698  14.184   5.107
76619SOL     OW31695  13.895   9.829  11.477
76619SOL    HW131696  13.800   9.842  11.476
76619SOL    HW231697  13.929   9.907  11.519
76620SOL     OW31698  13.274  10.040   8.755
76620SOL    HW131699  13.319  10.123   8.741
76620SOL    HW231700  13.344   9.974   8.757
76621SOL     OW31701   0.102  13.718   0.718
76621SOL    HW131702   0.152  13.662   0.659
76621SOL    HW231703   0.030  13.662   0.748
76622SOL     OW31704   1.308  14.692   2.264
76622SOL    HW131705   1.345  14.750   2.330
76622SOL    HW231706   1.382  14.637   2.237
76623SOL     OW31707   0.891  12.161   6.075
76623SOL    HW131708   0.950  12.086   6.068
76623SOL    HW231709   0.886  12.178   6.169
76624SOL     OW31710  12.098   5.696   3.167
76624SOL    HW131711  12.062   5.613   3.135
76624SOL    HW231712  12.027   5.736   3.216
76625SOL     OW31713   5.404   4.695   8.529
76625SOL    HW131714   5.341   4.642   8.480
76625SOL    HW231715   5.480   4.638   8.539
76626SOL     OW31716  12.890  13.496   5.608
76626SOL    HW131717  12.834  13.435   5.561
76626SOL    HW231718  12.918  13.559   5.542
76627SOL     OW31719  13.731   2.578   0.697
76627SOL    HW131720  13.734   2.489   0.662
76627SOL    HW231721  13.642   2.588   0.732
76628SOL     OW31722   6.158   4.152  11.546
76628SOL    HW131723   6.093   4.082  11.543
76628SOL    HW231724   6.242   4.108  11.556
76629SOL     OW31725   2.337  10.488  12.109
76629SOL    HW131726   2.322  10.581  12.127
76629SOL    HW231727   2.394  10.458  12.180
76630SOL     OW31728   0.096   9.072  14.847
76630SOL    HW131729   0.108   9.043  14.757
76630SOL    HW231730   0.124   8.998   0.024
76631SOL     OW31731   7.137   0.280   8.287
76631SOL    HW131732   7.102   0.358   8.245
76631SOL    HW231733   7.232   0.288   8.278
76632SOL     OW31734  13.045  13.516   9.529
76632SOL    HW131735  13.101  13.571   9.475
76632SOL    HW231736  13.000  13.458   9.468
76633SOL     OW31737   2.530   1.249  10.118
76633SOL    HW131738   2.605   1.302  10.146
76633SOL    HW231739   2.546   1.164  10.158
76634SOL     OW31740  10.183   9.315   8.244
76634SOL    HW131741  10.130   9.310   8.164
76634SOL    HW231742  10.270   9.343   8.213
76635SOL     OW31743   2.944  12.712  14.511
76635SOL    HW131744   2.865  12.732  14.561
76635SOL    HW231745   3.009  12.775  14.541
76636SOL     OW31746  12.681   9.365  14.740
76636SOL    HW131747  12.751   9.430  14.738
76636SOL    HW231748  12.642   9.375  14.827
76637SOL     OW31749   7.451   7.380   8.392
76637SOL    HW131750   7.515   7.322   8.352
76637SOL    HW231751   7.468   7.374   8.486
76638SOL     OW31752   6.331   2.894   4.013
76638SOL    HW131753   6.258   2.914   4.072
76638SOL    HW231754   6.365   2.810   4.044
76639SOL     OW31755   9.016   3.808   5.251
76639SOL    HW131756   9.059   3.822   5.166
76639SOL    HW231757   9.071   3.742   5.294
76640SOL     OW31758   1.243   5.376   3.949
76640SOL    HW131759   1.193   5.422   3.882
76640SOL    HW231760   1.302   5.319   3.900
76641SOL     OW31761   4.383   0.447   8.048
76641SOL    HW131762   4.356   0.506   7.978
76641SOL    HW231763   4.358   0.360   8.016
76642SOL     OW31764   9.026   8.610  10.697
76642SOL    HW131765   8.985   8.594  10.612
76642SOL    HW231766   9.117   8.631  10.676
76643SOL     OW31767  10.945   7.406   1.592
76643SOL    HW131768  10.954   7.484   1.646
76643SOL    HW231769  10.857   7.373   1.611
76644SOL     OW31770   7.945   9.347   5.935
76644SOL    HW131771   7.851   9.338   5.950
76644SOL    HW231772   7.957   9.319   5.844
76645SOL     OW31773   7.745   9.750   7.536
76645SOL    HW131774   7.824   9.755   7.483
76645SOL    HW231775   7.673   9.741   7.473
76646SOL     OW31776  11.409   4.750   6.125
76646SOL    HW131777  11.314   4.747   6.117
76646SOL    HW231778  11.437   4.810   6.056
76647SOL     OW31779   4.408  13.182   5.934
76647SOL    HW131780   4.457  13.105   5.962
76647SOL    HW231781   4.474  13.252   5.929
76648SOL     OW31782   7.852   1.259  14.809
76648SOL    HW131783   7.786   1.215  14.756
76648SOL    HW231784   7.882   1.192  14.870
76649SOL     OW31785  11.174  11.543   2.655
76649SOL    HW131786  11.155  11.637   2.661
76649SOL    HW231787  11.183  11.527   2.561
76650SOL     OW31788   9.817  12.837  13.442
76650SOL    HW131789   9.735  12.794  13.416
76650SOL    HW231790   9.859  12.774  13.500
76651SOL     OW31791   7.732   3.088   6.426
76651SOL    HW131792   7.679   3.068   6.504
76651SOL    HW231793   7.710   3.017   6.364
76652SOL     OW31794   7.018  12.488   3.549
76652SOL    HW131795   7.073  12.430   3.497
76652SOL    HW231796   7.050  12.479   3.638
76653SOL     OW31797   7.025   7.741  13.766
76653SOL    HW131798   7.090   7.787  13.713
76653SOL    HW231799   6.957   7.806  13.781
76654SOL     OW31800  10.339  10.040  13.660
76654SOL    HW131801  10.276  10.072  13.726
76654SOL    HW231802  10.304  10.072  13.577
76655SOL     OW31803  10.894   2.666  14.193
76655SOL    HW131804  10.849   2.650  14.110
76655SOL    HW231805  10.825   2.667  14.258
76656SOL     OW31806   9.402   1.130   4.194
76656SOL    HW131807   9.307   1.129   4.202
76656SOL    HW231808   9.430   1.045   4.228
76657SOL     OW31809   3.877   1.926  12.071
76657SOL    HW131810   3.829   1.929  11.988
76657SOL    HW231811   3.923   1.843  12.070
76658SOL     OW31812   7.291  14.044   4.501
76658SOL    HW131813   7.264  14.083   4.418
76658SOL    HW231814   7.385  14.060   4.507
76659SOL     OW31815  11.221   0.249   7.712
76659SOL    HW131816  11.310   0.226   7.683
76659SOL    HW231817  11.200   0.328   7.662
76660SOL     OW31818  12.887   2.389  10.368
76660SOL    HW131819  12.951   2.363  10.302
76660SOL    HW231820  12.829   2.314  10.376
76661SOL     OW31821   8.618   7.876   0.173
76661SOL    HW131822   8.705   7.898   0.139
76661SOL    HW231823   8.585   7.958   0.210
76662SOL     OW31824   2.355   3.250  12.422
76662SOL    HW131825   2.384   3.209  12.341
76662SOL    HW231826   2.261   3.263  12.411
76663SOL     OW31827   7.760   1.698  12.820
76663SOL    HW131828   7.845   1.729  12.790
76663SOL    HW231829   7.776   1.669  12.910
76664SOL     OW31830   1.280   5.666   0.912
76664SOL    HW131831   1.302   5.654   1.005
76664SOL    HW231832   1.193   5.629   0.903
76665SOL     OW31833   1.825   0.211  13.293
76665SOL    HW131834   1.803   0.281  13.231
76665SOL    HW231835   1.795   0.244  13.377
76666SOL     OW31836   9.131   1.310   0.892
76666SOL    HW131837   9.126   1.216   0.875
76666SOL    HW231838   9.215   1.337   0.853
76667SOL     OW31839   4.843  11.111   6.242
76667SOL    HW131840   4.835  11.024   6.204
76667SOL    HW231841   4.872  11.167   6.170
76668SOL     OW31842   2.171   5.749   6.456
76668SOL    HW131843   2.244   5.808   6.438
76668SOL    HW231844   2.119   5.750   6.376
76669SOL     OW31845   4.073   7.335   0.844
76669SOL    HW131846   3.995   7.373   0.803
76669SOL    HW231847   4.107   7.275   0.778
76670SOL     OW31848   8.805   5.157   5.285
76670SOL    HW131849   8.824   5.066   5.306
76670SOL    HW231850   8.782   5.197   5.370
76671SOL     OW31851  11.362   0.628  14.782
76671SOL    HW131852  11.454   0.650  14.766
76671SOL    HW231853  11.365   0.565  14.854
76672SOL     OW31854  12.988   0.392  11.653
76672SOL    HW131855  12.982   0.400  11.558
76672SOL    HW231856  12.958   0.477  11.686
76673SOL     OW31857  10.109   4.030   9.216
76673SOL    HW131858  10.024   3.987   9.216
76673SOL    HW231859  10.102   4.097   9.284
76674SOL     OW31860   6.220   7.440   5.431
76674SOL    HW131861   6.125   7.428   5.428
76674SOL    HW231862   6.243   7.427   5.523
76675SOL     OW31863  10.533  12.109   2.481
76675SOL    HW131864  10.525  12.031   2.536
76675SOL    HW231865  10.449  12.154   2.492
76676SOL     OW31866   5.174  12.274   5.906
76676SOL    HW131867   5.251  12.327   5.925
76676SOL    HW231868   5.180  12.200   5.967
76677SOL     OW31869  13.125  14.354  11.161
76677SOL    HW131870  13.173  14.384  11.084
76677SOL    HW231871  13.099  14.435  11.206
76678SOL     OW31872  13.708   8.667   9.862
76678SOL    HW131873  13.636   8.623   9.907
76678SOL    HW231874  13.736   8.735   9.922
76679SOL     OW31875   1.767   2.619   8.900
76679SOL    HW131876   1.811   2.556   8.842
76679SOL    HW231877   1.677   2.621   8.869
76680SOL     OW31878  11.131   0.381  10.375
76680SOL    HW131879  11.168   0.304  10.420
76680SOL    HW231880  11.067   0.345  10.315
76681SOL     OW31881   5.782   8.023   9.614
76681SOL    HW131882   5.758   7.958   9.680
76681SOL    HW231883   5.877   8.015   9.605
76682SOL     OW31884   6.059  13.313   8.717
76682SOL    HW131885   6.149  13.308   8.751
76682SOL    HW231886   6.004  13.291   8.792
76683SOL     OW31887   9.435   6.193   1.754
76683SOL    HW131888   9.488   6.266   1.723
76683SOL    HW231889   9.362   6.234   1.801
76684SOL     OW31890   1.357  14.455   4.404
76684SOL    HW131891   1.337  14.548   4.406
76684SOL    HW231892   1.336  14.428   4.315
76685SOL     OW31893   8.411   8.347  10.216
76685SOL    HW131894   8.498   8.381  10.238
76685SOL    HW231895   8.414   8.335  10.121
76686SOL     OW31896   2.825   0.591  14.857
76686SOL    HW131897   2.814   0.640  14.775
76686SOL    HW231898   2.739   0.596   0.022
76687SOL     OW31899  11.717  12.140   8.848
76687SOL    HW131900  11.667  12.136   8.929
76687SOL    HW231901  11.674  12.076   8.790
76688SOL     OW31902   7.890   6.291   7.431
76688SOL    HW131903   7.862   6.262   7.344
76688SOL    HW231904   7.903   6.210   7.480
76689SOL     OW31905  11.380   7.998  10.487
76689SOL    HW131906  11.293   8.015  10.451
76689SOL    HW231907  11.374   7.910  10.524
76690SOL     OW31908   5.657   3.029   0.277
76690SOL    HW131909   5.591   3.077   0.327
76690SOL    HW231910   5.640   2.937   0.298
76691SOL     OW31911   3.311   7.578   3.045
76691SOL    HW131912   3.259   7.572   3.125
76691SOL    HW231913   3.377   7.509   3.054
76692SOL     OW31914   0.652   3.588   0.617
76692SOL    HW131915   0.703   3.612   0.695
76692SOL    HW231916   0.710   3.530   0.568
76693SOL     OW31917   7.102  11.328  10.325
76693SOL    HW131918   7.107  11.323  10.230
76693SOL    HW231919   7.085  11.238  10.354
76694SOL     OW31920   6.470   0.881   9.249
76694SOL    HW131921   6.462   0.787   9.231
76694SOL    HW231922   6.462   0.888   9.344
76695SOL     OW31923  10.484   1.703  12.838
76695SOL    HW131924  10.471   1.745  12.754
76695SOL    HW231925  10.428   1.625  12.835
76696SOL     OW31926   2.001   7.364   1.197
76696SOL    HW131927   2.095   7.349   1.194
76696SOL    HW231928   1.985   7.430   1.130
76697SOL     OW31929   3.165   5.358   9.108
76697SOL    HW131930   3.082   5.369   9.061
76697SOL    HW231931   3.182   5.264   9.105
76698SOL     OW31932  13.313   5.960  12.079
76698SOL    HW131933  13.296   5.982  11.987
76698SOL    HW231934  13.311   5.865  12.081
76699SOL     OW31935   4.575  13.957   8.822
76699SOL    HW131936   4.594  14.051   8.816
76699SOL    HW231937   4.488  13.953   8.862
76700SOL     OW31938   1.158   4.680   3.987
76700SOL    HW131939   1.200   4.611   4.039
76700SOL    HW231940   1.071   4.645   3.967
76701SOL     OW31941   9.707   9.873   6.564
76701SOL    HW131942   9.614   9.875   6.543
76701SOL    HW231943   9.725   9.959   6.602
76702SOL     OW31944   2.971  12.022   2.525
76702SOL    HW131945   3.050  12.027   2.578
76702SOL    HW231946   2.919  12.097   2.552
76703SOL     OW31947   0.769   6.705   1.945
76703SOL    HW131948   0.821   6.785   1.938
76703SOL    HW231949   0.834   6.635   1.946
76704SOL     OW31950  12.106   5.478   4.858
76704SOL    HW131951  12.087   5.444   4.770
76704SOL    HW231952  12.138   5.402   4.907
76705SOL     OW31953   2.081  11.900   4.290
76705SOL    HW131954   2.061  11.807   4.276
76705SOL    HW231955   2.020  11.946   4.232
76706SOL     OW31956  11.115   8.058   3.167
76706SOL    HW131957  11.202   8.090   3.145
76706SOL    HW231958  11.068   8.136   3.196
76707SOL     OW31959  13.659   3.132   3.111
76707SOL    HW131960  13.581   3.187   3.103
76707SOL    HW231961  13.731   3.193   3.127
76708SOL     OW31962   6.524  14.864   4.856
76708SOL    HW131963   6.439  14.822   4.871
76708SOL    HW231964   6.532  14.868   4.760
76709SOL     OW31965  14.464   7.561   0.352
76709SOL    HW131966  14.420   7.644   0.336
76709SOL    HW231967  14.466   7.518   0.266
76710SOL     OW31968   3.548  13.293  13.520
76710SOL    HW131969   3.627  13.343  13.537
76710SOL    HW231970   3.487  13.320  13.588
76711SOL     OW31971  14.648  13.325   3.619
76711SOL    HW131972  14.637  13.354   3.529
76711SOL    HW231973  14.616  13.397   3.672
76712SOL     OW31974   2.687  12.392   7.117
76712SOL    HW131975   2.774  12.353   7.110
76712SOL    HW231976   2.627  12.318   7.110
76713SOL     OW31977  10.742   6.625  13.686
76713SOL    HW131978  10.702   6.550  13.729
76713SOL    HW231979  10.814   6.651  13.744
76714SOL     OW31980   6.907   4.526  14.573
76714SOL    HW131981   6.921   4.480  14.655
76714SOL    HW231982   6.846   4.597  14.596
76715SOL     OW31983   6.328   3.652   0.400
76715SOL    HW131984   6.268   3.597   0.350
76715SOL    HW231985   6.334   3.610   0.485
76716SOL     OW31986   8.907  12.535   2.329
76716SOL    HW131987   8.938  12.620   2.359
76716SOL    HW231988   8.971  12.473   2.364
76717SOL     OW31989   8.440   3.001   2.818
76717SOL    HW131990   8.531   3.028   2.803
76717SOL    HW231991   8.418   3.036   2.904
76718SOL     OW31992   6.402   1.511   1.886
76718SOL    HW131993   6.421   1.544   1.974
76718SOL    HW231994   6.319   1.463   1.896
76719SOL     OW31995   8.985  11.647   9.201
76719SOL    HW131996   8.978  11.594   9.121
76719SOL    HW231997   8.899  11.641   9.241
76720SOL     OW31998  13.975  13.088   1.207
76720SOL    HW131999  13.994  13.099   1.114
76720SOL    HW232000  13.881  13.072   1.210
76721SOL     OW32001  12.617  13.063  14.598
76721SOL    HW132002  12.606  13.139  14.541
76721SOL    HW232003  12.666  13.096  14.673
76722SOL     OW32004   6.802   8.293   1.428
76722SOL    HW132005   6.758   8.278   1.344
76722SOL    HW232006   6.830   8.206   1.456
76723SOL     OW32007   8.565   5.200  13.167
76723SOL    HW132008   8.626   5.247  13.110
76723SOL    HW232009   8.486   5.189  13.114
76724SOL     OW32010   8.548   2.101   3.441
76724SOL    HW132011   8.560   2.011   3.412
76724SOL    HW232012   8.636   2.129   3.468
76725SOL     OW32013  10.572   2.606   6.520
76725SOL    HW132014  10.541   2.651   6.599
76725SOL    HW232015  10.616   2.674   6.470
76726SOL     OW32016   8.900   3.334   7.308
76726SOL    HW132017   8.887   3.306   7.217
76726SOL    HW232018   8.863   3.422   7.312
76727SOL     OW32019   6.619  14.865  11.544
76727SOL    HW132020   6.658  14.848  11.459
76727SOL    HW232021   6.686   0.038  11.592
76728SOL     OW32022   3.944  14.267  11.687
76728SOL    HW132023   4.007  14.234  11.622
76728SOL    HW232024   3.890  14.329  11.639
76729SOL     OW32025  14.626   7.564   7.667
76729SOL    HW132026  14.589   7.643   7.627
76729SOL    HW232027  14.715   7.559   7.633
76730SOL     OW32028   0.316  10.291   8.979
76730SOL    HW132029   0.229  10.253   8.971
76730SOL    HW232030   0.370  10.221   9.016
76731SOL     OW32031   3.723   5.125  10.599
76731SOL    HW132032   3.788   5.055  10.602
76731SOL    HW232033   3.726   5.158  10.509
76732SOL     OW32034   3.104   2.509  14.519
76732SOL    HW132035   3.181   2.458  14.542
76732SOL    HW232036   3.035   2.476  14.577
76733SOL     OW32037   6.749   7.369   8.469
76733SOL    HW132038   6.753   7.462   8.447
76733SOL    HW232039   6.732   7.367   8.563
76734SOL     OW32040  14.325   6.503  13.365
76734SOL    HW132041  14.390   6.447  13.323
76734SOL    HW232042  14.346   6.591  13.334
76735SOL     OW32043   0.313  10.348   1.664
76735SOL    HW132044   0.366  10.269   1.666
76735SOL    HW232045   0.283  10.356   1.574
76736SOL     OW32046   9.708  10.669   4.529
76736SOL    HW132047   9.685  10.680   4.621
76736SOL    HW232048   9.679  10.750   4.487
76737SOL     OW32049  12.328   0.732  13.609
76737SOL    HW132050  12.299   0.668  13.674
76737SOL    HW232051  12.266   0.804  13.618
76738SOL     OW32052  13.160  11.098  13.592
76738SOL    HW132053  13.207  11.138  13.666
76738SOL    HW232054  13.178  11.155  13.518
76739SOL     OW32055   4.243   4.173   7.640
76739SOL    HW132056   4.303   4.240   7.608
76739SOL    HW232057   4.288   4.090   7.625
76740SOL     OW32058  14.015   3.941   4.970
76740SOL    HW132059  13.932   3.928   5.016
76740SOL    HW232060  14.009   3.884   4.893
76741SOL     OW32061   0.053   6.095  11.462
76741SOL    HW132062  14.834   6.104  11.460
76741SOL    HW232063   0.071   6.020  11.405
76742SOL     OW32064  14.264   6.129   3.727
76742SOL    HW132065  14.253   6.039   3.759
76742SOL    HW232066  14.350   6.156   3.758
76743SOL     OW32067  11.434   5.500   1.060
76743SOL    HW132068  11.370   5.442   1.099
76743SOL    HW232069  11.390   5.536   0.983
76744SOL     OW32070   0.816  11.208   5.698
76744SOL    HW132071   0.824  11.300   5.723
76744SOL    HW232072   0.837  11.206   5.605
76745SOL     OW32073  10.652   7.836   2.000
76745SOL    HW132074  10.606   7.783   2.065
76745SOL    HW232075  10.733   7.863   2.045
76746SOL     OW32076   9.894   1.207  10.529
76746SOL    HW132077   9.937   1.293  10.522
76746SOL    HW232078   9.942   1.162  10.598
76747SOL     OW32079  11.314   4.655  10.051
76747SOL    HW132080  11.400   4.614  10.047
76747SOL    HW232081  11.303   4.679  10.143
76748SOL     OW32082   4.617  10.271   5.037
76748SOL    HW132083   4.622  10.358   5.076
76748SOL    HW232084   4.704  10.233   5.054
76749SOL     OW32085  10.691   0.326   0.659
76749SOL    HW132086  10.603   0.318   0.624
76749SOL    HW232087  10.749   0.310   0.584
76750SOL     OW32088   5.188  14.362  12.433
76750SOL    HW132089   5.146  14.372  12.347
76750SOL    HW232090   5.199  14.268  12.443
76751SOL     OW32091   0.042   8.790  10.994
76751SOL    HW132092   0.126   8.762  11.028
76751SOL    HW232093   0.034   8.882  11.018
76752SOL     OW32094   8.212   6.246   8.082
76752SOL    HW132095   8.252   6.223   8.166
76752SOL    HW232096   8.176   6.333   8.096
76753SOL     OW32097  14.792   4.465  12.854
76753SOL    HW132098  14.701   4.477  12.825
76753SOL    HW232099  14.824   4.391  12.803
76754SOL     OW32100   1.909   0.597  10.905
76754SOL    HW132101   1.899   0.637  10.991
76754SOL    HW232102   1.844   0.640  10.850
76755SOL     OW32103  14.284  12.630   2.675
76755SOL    HW132104  14.196  12.669   2.675
76755SOL    HW232105  14.301  12.610   2.767
76756SOL     OW32106  12.332   9.619   4.765
76756SOL    HW132107  12.252   9.567   4.773
76756SOL    HW232108  12.366   9.625   4.855
76757SOL     OW32109  13.146   1.692   1.835
76757SOL    HW132110  13.054   1.672   1.816
76757SOL    HW232111  13.144   1.735   1.921
76758SOL     OW32112   4.593   0.766  10.939
76758SOL    HW132113   4.508   0.796  10.906
76758SOL    HW232114   4.589   0.786  11.033
76759SOL     OW32115   7.537   9.580  13.841
76759SOL    HW132116   7.502   9.586  13.930
76759SOL    HW232117   7.613   9.638  13.841
76760SOL     OW32118   9.991  13.434  13.381
76760SOL    HW132119  10.059  13.456  13.317
76760SOL    HW232120  10.035  13.378  13.445
76761SOL     OW32121   0.039   2.872  13.174
76761SOL    HW132122   0.059   2.930  13.100
76761SOL    HW232123  14.824   2.892  13.195
76762SOL     OW32124   7.133   3.424   0.767
76762SOL    HW132125   7.210   3.406   0.713
76762SOL    HW232126   7.168   3.449   0.852
76763SOL     OW32127  14.030  11.280   3.068
76763SOL    HW132128  14.073  11.236   2.995
76763SOL    HW232129  13.989  11.209   3.118
76764SOL     OW32130   9.281  14.257  13.669
76764SOL    HW132131   9.316  14.169  13.680
76764SOL    HW232132   9.357  14.312  13.650
76765SOL     OW32133   3.226   2.996  14.322
76765SOL    HW132134   3.183   2.924  14.369
76765SOL    HW232135   3.216   3.071  14.380
76766SOL     OW32136   5.711  14.343   0.606
76766SOL    HW132137   5.633  14.302   0.642
76766SOL    HW232138   5.718  14.426   0.653
76767SOL     OW32139   3.559  14.386   0.169
76767SOL    HW132140   3.575  14.400   0.263
76767SOL    HW232141   3.525  14.470   0.138
76768SOL     OW32142   4.444  12.276  13.130
76768SOL    HW132143   4.525  12.257  13.081
76768SOL    HW232144   4.462  12.247  13.219
76769SOL     OW32145   2.404   6.009   1.391
76769SOL    HW132146   2.335   5.951   1.359
76769SOL    HW232147   2.447   5.959   1.461
76770SOL     OW32148   7.021   7.937   0.454
76770SOL    HW132149   7.028   7.842   0.467
76770SOL    HW232150   6.968   7.947   0.375
76771SOL     OW32151   0.013   3.631   3.114
76771SOL    HW132152  14.798   3.602   3.111
76771SOL    HW232153   0.063   3.550   3.127
76772SOL     OW32154  11.427   1.661   8.413
76772SOL    HW132155  11.475   1.597   8.466
76772SOL    HW232156  11.486   1.736   8.408
76773SOL     OW32157   7.757   8.582   2.961
76773SOL    HW132158   7.708   8.641   2.904
76773SOL    HW232159   7.826   8.546   2.905
76774SOL     OW32160  14.097   3.795  10.400
76774SOL    HW132161  14.068   3.704  10.399
76774SOL    HW232162  14.022   3.844  10.367
76775SOL     OW32163  10.894   8.973  12.721
76775SOL    HW132164  10.803   8.948  12.704
76775SOL    HW232165  10.910   9.046  12.660
76776SOL     OW32166   7.831   5.827   2.834
76776SOL    HW132167   7.790   5.899   2.882
76776SOL    HW232168   7.788   5.827   2.749
76777SOL     OW32169   6.497   0.143   5.421
76777SOL    HW132170   6.530   0.053   5.415
76777SOL    HW232171   6.568   0.192   5.463
76778SOL     OW32172   5.102   3.723   9.539
76778SOL    HW132173   5.197   3.730   9.528
76778SOL    HW232174   5.068   3.711   9.451
76779SOL     OW32175   4.674  10.522  14.807
76779SOL    HW132176   4.685  10.427  14.797
76779SOL    HW232177   4.628  10.549  14.727
76780SOL     OW32178  10.434   5.238   8.698
76780SOL    HW132179  10.409   5.180   8.770
76780SOL    HW232180  10.377   5.314   8.707
76781SOL     OW32181   5.132   8.813   8.594
76781SOL    HW132182   5.211   8.836   8.644
76781SOL    HW232183   5.106   8.895   8.552
76782SOL     OW32184   9.338  12.422   4.407
76782SOL    HW132185   9.345  12.485   4.478
76782SOL    HW232186   9.392  12.458   4.337
76783SOL     OW32187   2.943  12.260   7.863
76783SOL    HW132188   2.914  12.178   7.905
76783SOL    HW232189   3.025  12.237   7.820
76784SOL     OW32190   4.518   4.526   8.180
76784SOL    HW132191   4.441   4.540   8.124
76784SOL    HW232192   4.495   4.569   8.262
76785SOL     OW32193   0.250   1.758   9.367
76785SOL    HW132194   0.170   1.705   9.362
76785SOL    HW232195   0.219   1.848   9.372
76786SOL     OW32196   5.597   1.114   7.035
76786SOL    HW132197   5.525   1.170   7.065
76786SOL    HW232198   5.676   1.162   7.059
76787SOL     OW32199  11.362  14.232   0.892
76787SOL    HW132200  11.442  14.217   0.943
76787SOL    HW232201  11.386  14.205   0.803
76788SOL     OW32202  12.136  10.167   0.020
76788SOL    HW132203  12.112  10.252   0.057
76788SOL    HW232204  12.130  10.179  14.802
76789SOL     OW32205  13.903   8.877  13.428
76789SOL    HW132206  13.923   8.810  13.363
76789SOL    HW232207  13.984   8.928  13.436
76790SOL     OW32208  12.044  13.093  10.262
76790SOL    HW132209  12.060  13.163  10.325
76790SOL    HW232210  11.951  13.101  10.241
76791SOL     OW32211   1.193  12.450   9.885
76791SOL    HW132212   1.241  12.533   9.880
76791SOL    HW232213   1.185  12.422   9.794
76792SOL     OW32214   0.392  11.747   5.954
76792SOL    HW132215   0.415  11.721   5.865
76792SOL    HW232216   0.464  11.716   6.008
76793SOL     OW32217  14.721   3.768   4.998
76793SOL    HW132218  14.700   3.716   5.076
76793SOL    HW232219  14.816   3.783   5.005
76794SOL     OW32220  12.409   6.339  12.605
76794SOL    HW132221  12.389   6.402  12.536
76794SOL    HW232222  12.364   6.373  12.682
76795SOL     OW32223   4.906   3.106   4.481
76795SOL    HW132224   4.972   3.053   4.435
76795SOL    HW232225   4.850   3.141   4.412
76796SOL     OW32226  11.493   8.244   6.480
76796SOL    HW132227  11.523   8.153   6.476
76796SOL    HW232228  11.423   8.243   6.545
76797SOL     OW32229   5.263   6.122   0.483
76797SOL    HW132230   5.175   6.086   0.486
76797SOL    HW232231   5.320   6.049   0.507
76798SOL     OW32232   4.043   9.995  10.508
76798SOL    HW132233   4.111  10.036  10.454
76798SOL    HW232234   4.083   9.982  10.593
76799SOL     OW32235   5.651   1.346   0.247
76799SOL    HW132236   5.733   1.396   0.241
76799SOL    HW232237   5.664   1.289   0.323
76800SOL     OW32238   3.102   2.791   0.939
76800SOL    HW132239   3.138   2.775   1.026
76800SOL    HW232240   3.178   2.782   0.880
76801SOL     OW32241   1.611  11.439   0.829
76801SOL    HW132242   1.660  11.487   0.895
76801SOL    HW232243   1.529  11.416   0.871
76802SOL     OW32244   9.870   7.819   0.107
76802SOL    HW132245   9.873   7.723   0.098
76802SOL    HW232246   9.916   7.836   0.190
76803SOL     OW32247   3.737   7.084   6.752
76803SOL    HW132248   3.770   6.994   6.758
76803SOL    HW232249   3.677   7.083   6.678
76804SOL     OW32250   0.684  12.105   0.273
76804SOL    HW132251   0.717  12.186   0.312
76804SOL    HW232252   0.608  12.133   0.222
76805SOL     OW32253   5.205   8.866  13.061
76805SOL    HW132254   5.287   8.830  13.027
76805SOL    HW232255   5.222   8.960  13.069
76806SOL     OW32256   5.956   5.439   8.469
76806SOL    HW132257   5.908   5.383   8.530
76806SOL    HW232258   5.934   5.528   8.496
76807SOL     OW32259   5.702   7.771   3.483
76807SOL    HW132260   5.674   7.801   3.570
76807SOL    HW232261   5.769   7.834   3.457
76808SOL     OW32262   2.782   0.667  11.338
76808SOL    HW132263   2.810   0.603  11.403
76808SOL    HW232264   2.718   0.722  11.383
76809SOL     OW32265   6.405   9.259   2.988
76809SOL    HW132266   6.418   9.189   3.053
76809SOL    HW232267   6.437   9.221   2.906
76810SOL     OW32268   8.367  14.014   8.450
76810SOL    HW132269   8.301  14.064   8.499
76810SOL    HW232270   8.429  14.080   8.420
76811SOL     OW32271   1.396   3.549   6.188
76811SOL    HW132272   1.345   3.488   6.134
76811SOL    HW232273   1.419   3.620   6.128
76812SOL     OW32274   7.479   6.492   4.652
76812SOL    HW132275   7.411   6.559   4.640
76812SOL    HW232276   7.561   6.538   4.636
76813SOL     OW32277  12.339   8.700  14.399
76813SOL    HW132278  12.409   8.660  14.347
76813SOL    HW232279  12.382   8.772  14.446
76814SOL     OW32280   0.941   8.231  11.412
76814SOL    HW132281   0.882   8.182  11.355
76814SOL    HW232282   1.026   8.189  11.399
76815SOL     OW32283  10.476   0.465   5.283
76815SOL    HW132284  10.424   0.486   5.205
76815SOL    HW232285  10.521   0.384   5.260
76816SOL     OW32286   5.042  13.204   3.742
76816SOL    HW132287   4.974  13.165   3.688
76816SOL    HW232288   4.995  13.253   3.810
76817SOL     OW32289   5.651   0.202   9.118
76817SOL    HW132290   5.669   0.283   9.165
76817SOL    HW232291   5.556   0.193   9.120
76818SOL     OW32292   6.647  11.418  14.790
76818SOL    HW132293   6.725  11.375  14.825
76818SOL    HW232294   6.609  11.354  14.730
76819SOL     OW32295   6.531   1.931  13.705
76819SOL    HW132296   6.487   1.860  13.752
76819SOL    HW232297   6.622   1.901  13.697
76820SOL     OW32298  11.656   4.088  10.097
76820SOL    HW132299  11.711   4.084  10.175
76820SOL    HW232300  11.568   4.104  10.132
76821SOL     OW32301   1.808  11.153   4.153
76821SOL    HW132302   1.756  11.072   4.150
76821SOL    HW232303   1.879  11.138   4.090
76822SOL     OW32304   7.564   5.536   9.529
76822SOL    HW132305   7.579   5.587   9.450
76822SOL    HW232306   7.484   5.487   9.512
76823SOL     OW32307  14.510   6.364   9.531
76823SOL    HW132308  14.505   6.458   9.513
76823SOL    HW232309  14.502   6.323   9.445
76824SOL     OW32310   8.602   6.365  13.355
76824SOL    HW132311   8.643   6.318  13.283
76824SOL    HW232312   8.511   6.376  13.327
76825SOL     OW32313   2.300   4.158   0.504
76825SOL    HW132314   2.367   4.112   0.554
76825SOL    HW232315   2.294   4.244   0.546
76826SOL     OW32316   1.239   7.627   0.478
76826SOL    HW132317   1.251   7.612   0.384
76826SOL    HW232318   1.294   7.703   0.497
76827SOL     OW32319   1.887   1.656   3.307
76827SOL    HW132320   1.982   1.641   3.317
76827SOL    HW232321   1.872   1.741   3.348
76828SOL     OW32322   5.971   8.349   5.022
76828SOL    HW132323   5.905   8.295   5.065
76828SOL    HW232324   5.931   8.375   4.940
76829SOL     OW32325  13.432   7.727   1.324
76829SOL    HW132326  13.505   7.687   1.371
76829SOL    HW232327  13.355   7.679   1.355
76830SOL     OW32328   7.556   7.353  13.561
76830SOL    HW132329   7.510   7.276  13.594
76830SOL    HW232330   7.644   7.345  13.598
76831SOL     OW32331   2.650  11.691  13.780
76831SOL    HW132332   2.606  11.776  13.777
76831SOL    HW232333   2.739  11.709  13.752
76832SOL     OW32334  11.889   0.303  14.625
76832SOL    HW132335  11.873   0.276  14.716
76832SOL    HW232336  11.887   0.221  14.575
76833SOL     OW32337   4.945   8.815  13.889
76833SOL    HW132338   4.935   8.836  13.796
76833SOL    HW232339   4.927   8.721  13.894
76834SOL     OW32340   9.267   9.722   4.677
76834SOL    HW132341   9.219   9.682   4.749
76834SOL    HW232342   9.347   9.756   4.717
76835SOL     OW32343  12.638   7.007  12.338
76835SOL    HW132344  12.661   7.100  12.341
76835SOL    HW232345  12.721   6.962  12.354
76836SOL     OW32346   7.973   2.960   7.216
76836SOL    HW132347   7.941   3.018   7.285
76836SOL    HW232348   7.949   2.872   7.246
76837SOL     OW32349   6.059   1.484   4.917
76837SOL    HW132350   6.013   1.547   4.862
76837SOL    HW232351   6.086   1.533   4.994
76838SOL     OW32352  10.031   3.676   0.257
76838SOL    HW132353   9.996   3.765   0.245
76838SOL    HW232354  10.091   3.684   0.331
76839SOL     OW32355   7.432   1.280   7.614
76839SOL    HW132356   7.344   1.249   7.595
76839SOL    HW232357   7.419   1.348   7.681
76840SOL     OW32358  14.569  14.518   6.095
76840SOL    HW132359  14.504  14.452   6.120
76840SOL    HW232360  14.540  14.549   6.009
76841SOL     OW32361   4.741   9.129   6.346
76841SOL    HW132362   4.663   9.177   6.318
76841SOL    HW232363   4.721   9.038   6.324
76842SOL     OW32364   2.521  12.376  10.758
76842SOL    HW132365   2.473  12.338  10.832
76842SOL    HW232366   2.460  12.439  10.720
76843SOL     OW32367   3.621   6.168   6.355
76843SOL    HW132368   3.678   6.104   6.313
76843SOL    HW232369   3.623   6.244   6.297
76844SOL     OW32370  12.322   5.348  13.901
76844SOL    HW132371  12.244   5.312  13.944
76844SOL    HW232372  12.360   5.408  13.966
76845SOL     OW32373   4.603  10.465  13.014
76845SOL    HW132374   4.591  10.469  12.919
76845SOL    HW232375   4.617  10.372  13.033
76846SOL     OW32376  12.404  13.056  13.787
76846SOL    HW132377  12.318  13.015  13.789
76846SOL    HW232378  12.391  13.138  13.739
76847SOL     OW32379  14.075  11.632  12.444
76847SOL    HW132380  14.167  11.608  12.436
76847SOL    HW232381  14.046  11.592  12.526
76848SOL     OW32382  10.453  14.153   5.589
76848SOL    HW132383  10.415  14.226   5.639
76848SOL    HW232384  10.547  14.169   5.592
76849SOL     OW32385   0.635   6.106   1.020
76849SOL    HW132386   0.545   6.075   1.017
76849SOL    HW232387   0.674   6.074   0.939
76850SOL     OW32388   0.607   8.388   2.830
76850SOL    HW132389   0.589   8.444   2.754
76850SOL    HW232390   0.537   8.322   2.829
76851SOL     OW32391   8.996  12.298  11.077
76851SOL    HW132392   9.013  12.253  10.994
76851SOL    HW232393   9.067  12.270  11.135
76852SOL     OW32394  10.401   9.162   8.455
76852SOL    HW132395  10.330   9.226   8.453
76852SOL    HW232396  10.408   9.130   8.365
76853SOL     OW32397   3.475   4.326   7.495
76853SOL    HW132398   3.440   4.414   7.484
76853SOL    HW232399   3.418   4.271   7.440
76854SOL     OW32400  13.982   6.764   8.362
76854SOL    HW132401  13.928   6.719   8.297
76854SOL    HW232402  14.032   6.828   8.312
76855SOL     OW32403   6.742   4.135   9.406
76855SOL    HW132404   6.837   4.148   9.413
76855SOL    HW232405   6.733   4.047   9.369
76856SOL     OW32406   1.649   8.943   1.333
76856SOL    HW132407   1.592   8.926   1.408
76856SOL    HW232408   1.717   8.875   1.339
76857SOL     OW32409   2.262   7.123  12.806
76857SOL    HW132410   2.259   7.218  12.818
76857SOL    HW232411   2.349   7.106  12.771
76858SOL     OW32412  13.889   6.467   3.431
76858SOL    HW132413  13.801   6.440   3.404
76858SOL    HW232414  13.934   6.385   3.450
76859SOL     OW32415   6.357  10.796   7.292
76859SOL    HW132416   6.361  10.851   7.214
76859SOL    HW232417   6.349  10.707   7.258
76860SOL     OW32418   4.222   6.711  12.101
76860SOL    HW132419   4.133   6.718  12.067
76860SOL    HW232420   4.262   6.641  12.049
76861SOL     OW32421  10.889  11.133   5.276
76861SOL    HW132422  10.801  11.171   5.285
76861SOL    HW232423  10.948  11.207   5.287
76862SOL     OW32424   1.569   5.947   7.943
76862SOL    HW132425   1.612   5.937   8.027
76862SOL    HW232426   1.477   5.962   7.964
76863SOL     OW32427   7.552   7.729   9.469
76863SOL    HW132428   7.566   7.639   9.441
76863SOL    HW232429   7.585   7.783   9.397
76864SOL     OW32430  11.665   0.454   8.345
76864SOL    HW132431  11.648   0.360   8.347
76864SOL    HW232432  11.737   0.464   8.282
76865SOL     OW32433   8.188   7.104   4.245
76865SOL    HW132434   8.157   7.179   4.194
76865SOL    HW232435   8.138   7.108   4.326
76866SOL     OW32436   6.543  12.065   9.829
76866SOL    HW132437   6.601  12.141   9.834
76866SOL    HW232438   6.564  12.013   9.907
76867SOL     OW32439   1.907  13.453   2.633
76867SOL    HW132440   1.843  13.508   2.588
76867SOL    HW232441   1.894  13.472   2.726
76868SOL     OW32442   8.778   9.161   0.598
76868SOL    HW132443   8.686   9.151   0.622
76868SOL    HW232444   8.777   9.161   0.502
76869SOL     OW32445   4.230   2.758   8.979
76869SOL    HW132446   4.257   2.846   8.950
76869SOL    HW232447   4.218   2.767   9.074
76870SOL     OW32448   5.615   8.175   7.059
76870SOL    HW132449   5.676   8.110   7.024
76870SOL    HW232450   5.542   8.124   7.092
76871SOL     OW32451   6.088   7.008   0.645
76871SOL    HW132452   6.105   6.920   0.681
76871SOL    HW232453   6.164   7.027   0.591
76872SOL     OW32454   7.257  12.398   1.303
76872SOL    HW132455   7.234  12.329   1.365
76872SOL    HW232456   7.177  12.414   1.253
76873SOL     OW32457   7.509   7.485   7.669
76873SOL    HW132458   7.519   7.459   7.578
76873SOL    HW232459   7.428   7.536   7.671
76874SOL     OW32460   8.571  10.642   3.508
76874SOL    HW132461   8.636  10.675   3.570
76874SOL    HW232462   8.596  10.551   3.492
76875SOL     OW32463   0.162   5.081   2.391
76875SOL    HW132464   0.198   5.157   2.437
76875SOL    HW232465   0.230   5.059   2.327
76876SOL     OW32466  11.334   1.573  11.237
76876SOL    HW132467  11.386   1.558  11.158
76876SOL    HW232468  11.331   1.669  11.245
76877SOL     OW32469  10.358   6.093  10.070
76877SOL    HW132470  10.296   6.160  10.100
76877SOL    HW232471  10.313   6.010  10.085
76878SOL     OW32472   2.752   9.978   3.513
76878SOL    HW132473   2.732   9.887   3.538
76878SOL    HW232474   2.712   9.989   3.427
76879SOL     OW32475   7.656   0.818  11.180
76879SOL    HW132476   7.693   0.731  11.161
76879SOL    HW232477   7.726   0.862  11.228
76880SOL     OW32478  13.498   4.123  10.377
76880SOL    HW132479  13.448   4.165  10.307
76880SOL    HW232480  13.525   4.039  10.341
76881SOL     OW32481  10.439   9.705   5.795
76881SOL    HW132482  10.357   9.687   5.749
76881SOL    HW232483  10.412   9.757   5.871
76882SOL     OW32484   0.661  14.076   6.602
76882SOL    HW132485   0.667  14.010   6.533
76882SOL    HW232486   0.672  14.028   6.684
76883SOL     OW32487   3.801   6.373  14.442
76883SOL    HW132488   3.718   6.326  14.446
76883SOL    HW232489   3.781   6.454  14.396
76884SOL     OW32490   6.411   4.387  14.108
76884SOL    HW132491   6.332   4.346  14.073
76884SOL    HW232492   6.465   4.404  14.031
76885SOL     OW32493  13.027   8.970  14.724
76885SOL    HW132494  13.083   8.893  14.740
76885SOL    HW232495  13.079   9.025  14.666
76886SOL     OW32496   9.761   3.993   9.428
76886SOL    HW132497   9.786   4.086   9.428
76886SOL    HW232498   9.804   3.957   9.351
76887SOL     OW32499   6.641  10.814   3.483
76887SOL    HW132500   6.648  10.907   3.505
76887SOL    HW232501   6.732  10.786   3.468
76888SOL     OW32502  12.052   2.938  10.786
76888SOL    HW132503  12.066   2.844  10.783
76888SOL    HW232504  11.983   2.955  10.722
76889SOL     OW32505  12.126   4.990   4.256
76889SOL    HW132506  12.076   4.917   4.219
76889SOL    HW232507  12.080   5.068   4.224
76890SOL     OW32508  12.422  13.491   0.175
76890SOL    HW132509  12.516  13.476   0.174
76890SOL    HW232510  12.392  13.451   0.257
76891SOL     OW32511   9.029  10.248  13.061
76891SOL    HW132512   9.002  10.293  12.980
76891SOL    HW232513   9.037  10.318  13.125
76892SOL     OW32514   8.221   1.076   8.416
76892SOL    HW132515   8.163   1.099   8.344
76892SOL    HW232516   8.293   1.029   8.373
76893SOL     OW32517  11.708   4.830   6.486
76893SOL    HW132518  11.694   4.748   6.438
76893SOL    HW232519  11.623   4.873   6.484
76894SOL     OW32520  12.051  14.367  12.721
76894SOL    HW132521  12.122  14.338  12.778
76894SOL    HW232522  12.095  14.403  12.644
76895SOL     OW32523   1.735  11.324   1.264
76895SOL    HW132524   1.644  11.353   1.256
76895SOL    HW232525   1.753  11.279   1.181
76896SOL     OW32526   1.810  11.885   3.482
76896SOL    HW132527   1.797  11.821   3.412
76896SOL    HW232528   1.727  11.932   3.487
76897SOL     OW32529  10.477   3.802   2.575
76897SOL    HW132530  10.562   3.776   2.609
76897SOL    HW232531  10.444   3.866   2.637
76898SOL     OW32532  10.590  13.337  13.059
76898SOL    HW132533  10.569  13.430  13.044
76898SOL    HW232534  10.587  13.327  13.154
76899SOL     OW32535   2.600   3.969   8.662
76899SOL    HW132536   2.509   3.980   8.637
76899SOL    HW232537   2.620   3.878   8.644
76900SOL     OW32538  10.454   8.299  11.116
76900SOL    HW132539  10.405   8.302  11.034
76900SOL    HW232540  10.423   8.219  11.159
76901SOL     OW32541   2.598   2.078   2.588
76901SOL    HW132542   2.693   2.067   2.578
76901SOL    HW232543   2.564   1.989   2.591
76902SOL     OW32544   6.940  14.418   9.788
76902SOL    HW132545   6.896  14.423   9.872
76902SOL    HW232546   7.020  14.470   9.799
76903SOL     OW32547   4.144   8.692   4.002
76903SOL    HW132548   4.136   8.764   4.064
76903SOL    HW232549   4.055   8.663   3.985
76904SOL     OW32550  13.483  10.371   9.140
76904SOL    HW132551  13.539  10.295   9.156
76904SOL    HW232552  13.441  10.389   9.224
76905SOL     OW32553  12.595  10.394   7.315
76905SOL    HW132554  12.575  10.445   7.393
76905SOL    HW232555  12.652  10.451   7.263
76906SOL     OW32556   0.966   9.086   0.528
76906SOL    HW132557   1.048   9.128   0.503
76906SOL    HW232558   0.973   9.074   0.623
76907SOL     OW32559   9.992   9.536  14.178
76907SOL    HW132560   9.999   9.630  14.196
76907SOL    HW232561   9.957   9.499  14.259
76908SOL     OW32562   3.825   0.215  14.534
76908SOL    HW132563   3.777   0.295  14.555
76908SOL    HW232564   3.903   0.218  14.590
76909SOL     OW32565  12.688   3.418  13.290
76909SOL    HW132566  12.756   3.388  13.351
76909SOL    HW232567  12.633   3.341  13.275
76910SOL     OW32568  13.560   4.740  12.037
76910SOL    HW132569  13.470   4.709  12.053
76910SOL    HW232570  13.614   4.662  12.046
76911SOL     OW32571   9.609   4.540   4.148
76911SOL    HW132572   9.683   4.478   4.155
76911SOL    HW232573   9.591   4.544   4.054
76912SOL     OW32574   2.721   0.861   4.429
76912SOL    HW132575   2.731   0.798   4.500
76912SOL    HW232576   2.665   0.817   4.365
76913SOL     OW32577  13.338   5.403   1.154
76913SOL    HW132578  13.330   5.421   1.061
76913SOL    HW232579  13.427   5.427   1.177
76914SOL     OW32580   9.746  10.828   8.610
76914SOL    HW132581   9.651  10.833   8.600
76914SOL    HW232582   9.763  10.868   8.695
76915SOL     OW32583  10.254  10.219  12.883
76915SOL    HW132584  10.171  10.233  12.929
76915SOL    HW232585  10.231  10.163  12.809
76916SOL     OW32586  11.075   2.771  12.237
76916SOL    HW132587  11.052   2.687  12.277
76916SOL    HW232588  11.162   2.790  12.272
76917SOL     OW32589   0.620  11.903  11.317
76917SOL    HW132590   0.639  11.972  11.380
76917SOL    HW232591   0.703  11.857  11.305
76918SOL     OW32592   4.928   6.345   7.567
76918SOL    HW132593   4.907   6.332   7.475
76918SOL    HW232594   4.864   6.410   7.597
76919SOL     OW32595  10.475   2.948  12.295
76919SOL    HW132596  10.482   2.986  12.383
76919SOL    HW232597  10.551   2.891  12.287
76920SOL     OW32598  11.511  10.538  13.323
76920SOL    HW132599  11.521  10.594  13.246
76920SOL    HW232600  11.467  10.593  13.387
76921SOL     OW32601  14.865  14.698   2.461
76921SOL    HW132602  14.793  14.637   2.475
76921SOL    HW232603  14.853  14.765   2.529
76922SOL     OW32604  14.579   3.506   1.272
76922SOL    HW132605  14.512   3.452   1.312
76922SOL    HW232606  14.531   3.577   1.230
76923SOL     OW32607   1.705   9.060   8.066
76923SOL    HW132608   1.707   8.970   8.098
76923SOL    HW232609   1.797   9.084   8.054
76924SOL     OW32610  13.026   9.845   3.724
76924SOL    HW132611  13.086   9.831   3.797
76924SOL    HW232612  13.078   9.823   3.646
76925SOL     OW32613   3.129  12.092   5.950
76925SOL    HW132614   3.069  12.156   5.913
76925SOL    HW232615   3.215  12.135   5.947
76926SOL     OW32616   6.784   5.087  10.389
76926SOL    HW132617   6.742   5.147  10.328
76926SOL    HW232618   6.871   5.124  10.404
76927SOL     OW32619   8.910  14.823   5.525
76927SOL    HW132620   8.931   0.017   5.587
76927SOL    HW232621   8.991  14.772   5.518
76928SOL     OW32622   6.716  10.257   7.402
76928SOL    HW132623   6.676  10.259   7.489
76928SOL    HW232624   6.642  10.264   7.341
76929SOL     OW32625   1.783   0.995  10.471
76929SOL    HW132626   1.847   1.002  10.400
76929SOL    HW232627   1.734   1.078  10.468
76930SOL     OW32628  14.380   7.782   3.325
76930SOL    HW132629  14.297   7.826   3.345
76930SOL    HW232630  14.447   7.845   3.351
76931SOL     OW32631   4.153  10.672   1.019
76931SOL    HW132632   4.225  10.638   1.073
76931SOL    HW232633   4.141  10.607   0.951
76932SOL     OW32634   3.806  12.215   8.487
76932SOL    HW132635   3.776  12.296   8.446
76932SOL    HW232636   3.897  12.205   8.459
76933SOL     OW32637   0.273   0.556   0.272
76933SOL    HW132638   0.303   0.481   0.322
76933SOL    HW232639   0.205   0.596   0.326
76934SOL     OW32640  12.120   5.064  10.159
76934SOL    HW132641  12.025   5.073  10.161
76934SOL    HW232642  12.153   5.149  10.187
76935SOL     OW32643   6.607  14.124   0.622
76935SOL    HW132644   6.574  14.209   0.595
76935SOL    HW232645   6.668  14.098   0.554
76936SOL     OW32646   9.206   5.809  14.052
76936SOL    HW132647   9.223   5.791  13.959
76936SOL    HW232648   9.283   5.775  14.097
76937SOL     OW32649   1.373  11.899   6.961
76937SOL    HW132650   1.318  11.863   6.893
76937SOL    HW232651   1.370  11.994   6.946
76938SOL     OW32652   5.750   6.625  10.736
76938SOL    HW132653   5.716   6.558  10.677
76938SOL    HW232654   5.842   6.633  10.714
76939SOL     OW32655   0.814   2.154   3.429
76939SOL    HW132656   0.830   2.062   3.407
76939SOL    HW232657   0.874   2.172   3.501
76940SOL     OW32658   0.670   8.131  11.456
76940SOL    HW132659   0.673   8.065  11.386
76940SOL    HW232660   0.715   8.090  11.530
76941SOL     OW32661   1.495  14.752   6.184
76941SOL    HW132662   1.489  14.832   6.132
76941SOL    HW232663   1.559  14.698   6.137
76942SOL     OW32664   8.855  10.682   8.192
76942SOL    HW132665   8.814  10.601   8.161
76942SOL    HW232666   8.889  10.661   8.279
76943SOL     OW32667   4.315  12.078  14.156
76943SOL    HW132668   4.232  12.052  14.115
76943SOL    HW232669   4.380  12.066  14.087
76944SOL     OW32670   5.411  11.992   1.992
76944SOL    HW132671   5.487  12.006   2.047
76944SOL    HW232672   5.350  11.942   2.046
76945SOL     OW32673   7.230   8.934   6.301
76945SOL    HW132674   7.280   8.946   6.220
76945SOL    HW232675   7.293   8.903   6.365
76946SOL     OW32676  12.726  10.823   6.505
76946SOL    HW132677  12.718  10.893   6.570
76946SOL    HW232678  12.648  10.831   6.451
76947SOL     OW32679  10.526  12.017   1.081
76947SOL    HW132680  10.573  12.080   1.136
76947SOL    HW232681  10.586  11.942   1.074
76948SOL     OW32682  11.676   9.053   1.483
76948SOL    HW132683  11.765   9.081   1.462
76948SOL    HW232684  11.621   9.128   1.460
76949SOL     OW32685   8.905   1.459  10.811
76949SOL    HW132686   8.938   1.393  10.750
76949SOL    HW232687   8.837   1.505  10.763
76950SOL     OW32688   0.210  10.964  11.746
76950SOL    HW132689   0.122  10.927  11.751
76950SOL    HW232690   0.229  10.992  11.836
76951SOL     OW32691   3.516   9.338   9.261
76951SOL    HW132692   3.606   9.316   9.237
76951SOL    HW232693   3.526   9.402   9.332
76952SOL     OW32694  13.406  13.276   1.591
76952SOL    HW132695  13.370  13.319   1.668
76952SOL    HW232696  13.499  13.295   1.594
76953SOL     OW32697   3.052   5.609   8.503
76953SOL    HW132698   2.995   5.658   8.445
76953SOL    HW232699   3.092   5.676   8.559
76954SOL     OW32700   0.757   7.318   6.309
76954SOL    HW132701   0.784   7.267   6.386
76954SOL    HW232702   0.732   7.403   6.345
76955SOL     OW32703   7.989  14.172  11.363
76955SOL    HW132704   7.949  14.085  11.373
76955SOL    HW232705   8.003  14.181  11.269
76956SOL     OW32706   2.565  10.459  14.255
76956SOL    HW132707   2.497  10.399  14.287
76956SOL    HW232708   2.517  10.526  14.207
76957SOL     OW32709  13.022   1.248  13.702
76957SOL    HW132710  12.956   1.266  13.635
76957SOL    HW232711  12.975   1.200  13.770
76958SOL     OW32712   3.721  11.128   1.491
76958SOL    HW132713   3.787  11.135   1.422
76958SOL    HW232714   3.677  11.046   1.473
76959SOL     OW32715  10.972   2.525   4.951
76959SOL    HW132716  10.936   2.472   5.023
76959SOL    HW232717  11.064   2.500   4.946
76960SOL     OW32718   8.342   7.214  13.435
76960SOL    HW132719   8.253   7.243  13.454
76960SOL    HW232720   8.397   7.281  13.477
76961SOL     OW32721   7.545   4.790   2.597
76961SOL    HW132722   7.620   4.850   2.597
76961SOL    HW232723   7.479   4.836   2.648
76962SOL     OW32724   6.187   1.130   8.080
76962SOL    HW132725   6.107   1.089   8.114
76962SOL    HW232726   6.156   1.203   8.028
76963SOL     OW32727   8.749   3.816   8.706
76963SOL    HW132728   8.743   3.900   8.752
76963SOL    HW232729   8.803   3.762   8.763
76964SOL     OW32730   3.194  14.223   2.494
76964SOL    HW132731   3.231  14.277   2.564
76964SOL    HW232732   3.262  14.158   2.475
76965SOL     OW32733   2.972  13.020   5.871
76965SOL    HW132734   2.896  13.047   5.922
76965SOL    HW232735   3.046  13.064   5.912
76966SOL     OW32736   2.369  11.176  10.636
76966SOL    HW132737   2.415  11.116  10.695
76966SOL    HW232738   2.282  11.187  10.675
76967SOL     OW32739   2.248   3.128  13.922
76967SOL    HW132740   2.154   3.129  13.942
76967SOL    HW232741   2.276   3.040  13.945
76968SOL     OW32742   5.347  14.314   5.028
76968SOL    HW132743   5.368  14.373   4.955
76968SOL    HW232744   5.278  14.256   4.994
76969SOL     OW32745   3.104  14.269   4.452
76969SOL    HW132746   3.013  14.296   4.467
76969SOL    HW232747   3.152  14.352   4.441
76970SOL     OW32748   2.957   9.695   1.610
76970SOL    HW132749   3.020   9.633   1.573
76970SOL    HW232750   2.936   9.754   1.538
76971SOL     OW32751  14.245   0.186  12.788
76971SOL    HW132752  14.199   0.111  12.750
76971SOL    HW232753  14.180   0.256  12.787
76972SOL     OW32754   6.063  12.375   7.785
76972SOL    HW132755   6.117  12.428   7.843
76972SOL    HW232756   6.044  12.432   7.711
76973SOL     OW32757   4.494  12.375   2.604
76973SOL    HW132758   4.436  12.306   2.636
76973SOL    HW232759   4.559  12.385   2.673
76974SOL     OW32760  10.067   3.850  13.370
76974SOL    HW132761   9.995   3.865  13.309
76974SOL    HW232762  10.122   3.784  13.328
76975SOL     OW32763  12.500  13.558   2.249
76975SOL    HW132764  12.577  13.582   2.301
76975SOL    HW232765  12.441  13.516   2.311
76976SOL     OW32766   3.788   2.650  14.066
76976SOL    HW132767   3.713   2.655  14.007
76976SOL    HW232768   3.751   2.662  14.154
76977SOL     OW32769  14.359  14.668   7.831
76977SOL    HW132770  14.366  14.613   7.753
76977SOL    HW232771  14.311  14.745   7.802
76978SOL     OW32772   6.526   5.007  12.326
76978SOL    HW132773   6.509   5.064  12.251
76978SOL    HW232774   6.561   4.927  12.288
76979SOL     OW32775  10.824  14.503  11.200
76979SOL    HW132776  10.774  14.471  11.125
76979SOL    HW232777  10.915  14.498  11.173
76980SOL     OW32778   7.316   2.347   5.172
76980SOL    HW132779   7.224   2.328   5.189
76980SOL    HW232780   7.322   2.442   5.174
76981SOL     OW32781   4.104   0.586   3.886
76981SOL    HW132782   4.150   0.577   3.969
76981SOL    HW232783   4.146   0.523   3.828
76982SOL     OW32784  13.327   7.139   7.181
76982SOL    HW132785  13.318   7.097   7.095
76982SOL    HW232786  13.258   7.099   7.234
76983SOL     OW32787   4.386   8.721  10.644
76983SOL    HW132788   4.434   8.796  10.680
76983SOL    HW232789   4.307   8.758  10.606
76984SOL     OW32790   3.626   5.491  10.929
76984SOL    HW132791   3.692   5.560  10.920
76984SOL    HW232792   3.566   5.505  10.856
76985SOL     OW32793  14.611  10.397   5.174
76985SOL    HW132794  14.534  10.448   5.153
76985SOL    HW232795  14.668  10.406   5.097
76986SOL     OW32796  10.318   0.778   8.380
76986SOL    HW132797  10.343   0.786   8.288
76986SOL    HW232798  10.397   0.800   8.429
76987SOL     OW32799  11.305   8.758   3.381
76987SOL    HW132800  11.215   8.775   3.353
76987SOL    HW232801  11.356   8.829   3.344
76988SOL     OW32802   6.577   0.014   4.590
76988SOL    HW132803   6.598   0.106   4.603
76988SOL    HW232804   6.662  14.849   4.572
76989SOL     OW32805  13.853   3.475  11.166
76989SOL    HW132806  13.901   3.402  11.128
76989SOL    HW232807  13.823   3.443  11.251
76990SOL     OW32808  10.253  13.869   0.120
76990SOL    HW132809  10.247  13.787   0.072
76990SOL    HW232810  10.207  13.932   0.065
76991SOL     OW32811   2.172   5.084   4.283
76991SOL    HW132812   2.080   5.067   4.301
76991SOL    HW232813   2.173   5.137   4.204
76992SOL     OW32814   2.512   2.868   9.732
76992SOL    HW132815   2.465   2.785   9.743
76992SOL    HW232816   2.592   2.844   9.685
76993SOL     OW32817   4.171   6.606   3.298
76993SOL    HW132818   4.116   6.596   3.376
76993SOL    HW232819   4.132   6.678   3.249
76994SOL     OW32820  10.314   0.701  11.402
76994SOL    HW132821  10.319   0.606  11.391
76994SOL    HW232822  10.401   0.733  11.378
76995SOL     OW32823   1.900  12.180  10.928
76995SOL    HW132824   1.898  12.195  11.022
76995SOL    HW232825   1.907  12.085  10.919
76996SOL     OW32826   1.556   2.233  14.825
76996SOL    HW132827   1.486   2.213   0.011
76996SOL    HW232828   1.529   2.315  14.784
76997SOL     OW32829  12.599  12.229   0.517
76997SOL    HW132830  12.670  12.171   0.542
76997SOL    HW232831  12.615  12.310   0.566
76998SOL     OW32832   5.722   1.305  14.698
76998SOL    HW132833   5.804   1.330  14.742
76998SOL    HW232834   5.653   1.332  14.759
76999SOL     OW32835   3.850   6.199   9.462
76999SOL    HW132836   3.861   6.241   9.377
76999SOL    HW232837   3.934   6.210   9.506
77000SOL     OW32838   8.053   4.407  14.534
77000SOL    HW132839   8.119   4.339  14.537
77000SOL    HW232840   8.002   4.389  14.455
77001SOL     OW32841   8.811   9.973   6.539
77001SOL    HW132842   8.717   9.960   6.527
77001SOL    HW232843   8.833   9.920   6.616
77002SOL     OW32844   8.690   6.599   9.272
77002SOL    HW132845   8.651   6.671   9.322
77002SOL    HW232846   8.692   6.631   9.182
77003SOL     OW32847  13.258  12.294  10.793
77003SOL    HW132848  13.269  12.386  10.768
77003SOL    HW232849  13.240  12.296  10.887
77004SOL     OW32850  12.226   4.976   9.073
77004SOL    HW132851  12.234   4.983   8.977
77004SOL    HW232852  12.132   4.983   9.090
77005SOL     OW32853   3.567  11.911   0.028
77005SOL    HW132854   3.648  11.927   0.077
77005SOL    HW232855   3.519  11.847   0.081
77006SOL     OW32856   5.216  11.388   5.956
77006SOL    HW132857   5.239  11.320   5.892
77006SOL    HW232858   5.240  11.470   5.913
77007SOL     OW32859  12.933  12.947   4.631
77007SOL    HW132860  12.960  12.953   4.722
77007SOL    HW232861  12.871  12.875   4.628
77008SOL     OW32862   4.907  11.689   4.738
77008SOL    HW132863   4.930  11.713   4.649
77008SOL    HW232864   4.907  11.773   4.786
77009SOL     OW32865   9.103  13.699   8.818
77009SOL    HW132866   9.101  13.627   8.755
77009SOL    HW232867   9.064  13.773   8.772
77010SOL     OW32868   2.639   0.512   6.860
77010SOL    HW132869   2.663   0.424   6.831
77010SOL    HW232870   2.599   0.553   6.783
77011SOL     OW32871  14.401   1.575  14.204
77011SOL    HW132872  14.331   1.639  14.217
77011SOL    HW232873  14.356   1.490  14.202
77012SOL     OW32874   6.755  14.707   9.984
77012SOL    HW132875   6.751  14.667   9.897
77012SOL    HW232876   6.791  14.794   9.969
77013SOL     OW32877   5.066  10.976   4.055
77013SOL    HW132878   5.004  10.992   3.984
77013SOL    HW232879   5.073  11.060   4.100
77014SOL     OW32880  10.398   8.305  13.948
77014SOL    HW132881  10.489   8.306  13.917
77014SOL    HW232882  10.355   8.374  13.899
77015SOL     OW32883   9.306   5.433   9.880
77015SOL    HW132884   9.305   5.479   9.964
77015SOL    HW232885   9.269   5.496   9.817
77016SOL     OW32886  10.805  13.320  14.102
77016SOL    HW132887  10.894  13.283  14.103
77016SOL    HW232888  10.756  13.262  14.043
77017SOL     OW32889   0.732   0.184   0.466
77017SOL    HW132890   0.729   0.276   0.441
77017SOL    HW232891   0.691   0.138   0.393
77018SOL     OW32892   7.707   9.800   7.147
77018SOL    HW132893   7.680   9.780   7.236
77018SOL    HW232894   7.627   9.797   7.096
77019SOL     OW32895   8.912  11.057  10.423
77019SOL    HW132896   8.821  11.037  10.404
77019SOL    HW232897   8.922  11.037  10.516
77020SOL     OW32898   1.681   6.047  10.463
77020SOL    HW132899   1.588   6.068  10.466
77020SOL    HW232900   1.685   5.952  10.464
77021SOL     OW32901  10.943  12.409   4.038
77021SOL    HW132902  10.982  12.322   4.029
77021SOL    HW232903  10.887  12.418   3.961
77022SOL     OW32904   7.168  12.781   3.416
77022SOL    HW132905   7.134  12.802   3.329
77022SOL    HW232906   7.147  12.858   3.468
77023SOL     OW32907   6.259  11.241   6.312
77023SOL    HW132908   6.200  11.284   6.374
77023SOL    HW232909   6.202  11.218   6.238
77024SOL     OW32910  12.254   9.971  10.631
77024SOL    HW132911  12.249   9.876  10.619
77024SOL    HW232912  12.346   9.988  10.650
77025SOL     OW32913   4.932  13.086   3.470
77025SOL    HW132914   4.862  13.079   3.534
77025SOL    HW232915   4.958  13.178   3.473
77026SOL     OW32916   4.234  12.992  10.757
77026SOL    HW132917   4.247  13.037  10.840
77026SOL    HW232918   4.204  13.061  10.697
77027SOL     OW32919   9.424   4.011  12.228
77027SOL    HW132920   9.364   4.039  12.298
77027SOL    HW232921   9.501   4.067  12.239
77028SOL     OW32922   7.985   9.682  11.137
77028SOL    HW132923   7.993   9.665  11.231
77028SOL    HW232924   8.004   9.775  11.128
77029SOL     OW32925  10.086   2.393   7.876
77029SOL    HW132926  10.071   2.320   7.936
77029SOL    HW232927  10.121   2.352   7.797
77030SOL     OW32928  10.779   7.640   0.931
77030SOL    HW132929  10.829   7.685   0.998
77030SOL    HW232930  10.698   7.691   0.923
77031SOL     OW32931  10.043  13.134   4.258
77031SOL    HW132932  10.112  13.072   4.235
77031SOL    HW232933  10.066  13.214   4.211
77032SOL     OW32934  14.268   1.365  14.429
77032SOL    HW132935  14.205   1.433  14.407
77032SOL    HW232936  14.303   1.391  14.514
77033SOL     OW32937   6.641   9.399  11.536
77033SOL    HW132938   6.548   9.405  11.514
77033SOL    HW232939   6.661   9.306  11.534
77034SOL     OW32940   2.855  12.589   7.682
77034SOL    HW132941   2.841  12.678   7.650
77034SOL    HW232942   2.785  12.575   7.746
77035SOL     OW32943   4.781   8.095  12.648
77035SOL    HW132944   4.730   8.054  12.578
77035SOL    HW232945   4.858   8.131  12.604
77036SOL     OW32946  10.041   8.257  13.977
77036SOL    HW132947  10.077   8.337  13.938
77036SOL    HW232948  10.097   8.187  13.944
77037SOL     OW32949  13.129   0.824  10.648
77037SOL    HW132950  13.083   0.897  10.688
77037SOL    HW232951  13.222   0.847  10.655
77038SOL     OW32952   7.825   7.195   5.179
77038SOL    HW132953   7.890   7.210   5.247
77038SOL    HW232954   7.841   7.105   5.150
77039SOL     OW32955   9.987   7.739   7.202
77039SOL    HW132956   9.935   7.751   7.123
77039SOL    HW232957   9.980   7.645   7.222
77040SOL     OW32958   2.384  12.545   5.852
77040SOL    HW132959   2.290  12.563   5.845
77040SOL    HW232960   2.415  12.549   5.761
77041SOL     OW32961   2.675   2.741   7.306
77041SOL    HW132962   2.628   2.797   7.244
77041SOL    HW232963   2.760   2.783   7.317
77042SOL     OW32964   8.418   9.944   2.082
77042SOL    HW132965   8.482  10.014   2.073
77042SOL    HW232966   8.428   9.892   2.002
77043SOL     OW32967   6.922   7.525  14.185
77043SOL    HW132968   6.942   7.551  14.095
77043SOL    HW232969   6.979   7.579  14.239
77044SOL     OW32970   6.200   6.243  14.335
77044SOL    HW132971   6.152   6.304  14.279
77044SOL    HW232972   6.290   6.246  14.303
77045SOL     OW32973   1.491  13.512   2.465
77045SOL    HW132974   1.560  13.454   2.498
77045SOL    HW232975   1.411  13.460   2.473
77046SOL     OW32976  14.725   0.389  10.072
77046SOL    HW132977  14.707   0.383   9.978
77046SOL    HW232978  14.805   0.441  10.077
77047SOL     OW32979   8.987   7.944   8.105
77047SOL    HW132980   9.002   7.909   8.193
77047SOL    HW232981   8.902   7.909   8.079
77048SOL     OW32982   9.097   5.568   3.817
77048SOL    HW132983   9.147   5.608   3.745
77048SOL    HW232984   9.158   5.566   3.890
77049SOL     OW32985   2.920   9.725   0.195
77049SOL    HW132986   2.926   9.731   0.290
77049SOL    HW232987   2.996   9.773   0.163
77050SOL     OW32988  11.116  14.465   3.775
77050SOL    HW132989  11.058  14.444   3.703
77050SOL    HW232990  11.070  14.434   3.853
77051SOL     OW32991  13.809   7.936   1.419
77051SOL    HW132992  13.834   7.922   1.328
77051SOL    HW232993  13.784   8.029   1.423
77052SOL     OW32994  10.004  10.003   8.427
77052SOL    HW132995   9.944  10.000   8.502
77052SOL    HW232996  10.087  10.032   8.465
77053SOL     OW32997   6.785   1.824   5.081
77053SOL    HW132998   6.706   1.770   5.081
77053SOL    HW232999   6.851   1.770   5.125
77054SOL     OW33000  11.129   4.958  11.188
77054SOL    HW133001  11.223   4.943  11.197
77054SOL    HW233002  11.109   5.027  11.252
77055SOL     OW33003   1.300  12.694  13.542
77055SOL    HW133004   1.236  12.650  13.597
77055SOL    HW233005   1.297  12.646  13.459
77056SOL     OW33006   7.310  12.716   2.561
77056SOL    HW133007   7.316  12.620   2.566
77056SOL    HW233008   7.266  12.733   2.478
77057SOL     OW33009  10.750   8.745   8.897
77057SOL    HW133010  10.707   8.665   8.926
77057SOL    HW233011  10.689   8.816   8.918
77058SOL     OW33012  13.271  11.903  12.169
77058SOL    HW133013  13.266  11.994  12.198
77058SOL    HW233014  13.180  11.874  12.163
77059SOL     OW33015   6.020  10.167   1.555
77059SOL    HW133016   5.937  10.202   1.585
77059SOL    HW233017   6.021  10.183   1.460
77060SOL     OW33018   0.172   2.626  13.225
77060SOL    HW133019   0.108   2.695  13.206
77060SOL    HW233020   0.171   2.570  13.148
77061SOL     OW33021   7.422   7.247   4.450
77061SOL    HW133022   7.489   7.287   4.506
77061SOL    HW233023   7.435   7.152   4.461
77062SOL     OW33024  11.767   9.720  14.151
77062SOL    HW133025  11.791   9.655  14.216
77062SOL    HW233026  11.763   9.802  14.199
77063SOL     OW33027  11.001   5.986   6.297
77063SOL    HW133028  10.965   6.010   6.382
77063SOL    HW233029  11.074   6.047   6.284
77064SOL     OW33030   9.838   0.434  10.797
77064SOL    HW133031   9.798   0.366  10.851
77064SOL    HW233032   9.798   0.423  10.710
77065SOL     OW33033   0.017   3.444  10.045
77065SOL    HW133034   0.044   3.498  10.119
77065SOL    HW233035   0.083   3.376  10.039
77066SOL     OW33036   3.492   8.484   5.649
77066SOL    HW133037   3.570   8.430   5.635
77066SOL    HW233038   3.452   8.449   5.728
77067SOL     OW33039   4.924   7.554  12.811
77067SOL    HW133040   4.925   7.600  12.895
77067SOL    HW233041   4.989   7.600  12.757
77068SOL     OW33042  12.006  13.170  13.010
77068SOL    HW133043  11.940  13.110  12.977
77068SOL    HW233044  11.986  13.253  12.967
77069SOL     OW33045   1.859  10.243   2.038
77069SOL    HW133046   1.824  10.316   2.088
77069SOL    HW233047   1.831  10.260   1.948
77070SOL     OW33048  13.848   3.213   7.527
77070SOL    HW133049  13.834   3.133   7.475
77070SOL    HW233050  13.804   3.282   7.477
77071SOL     OW33051   8.917  14.003  12.717
77071SOL    HW133052   8.945  13.919  12.682
77071SOL    HW233053   8.877  14.048  12.642
77072SOL     OW33054   6.363   0.059  11.490
77072SOL    HW133055   6.454   0.034  11.477
77072SOL    HW233056   6.365   0.116  11.567
77073SOL     OW33057  14.707   2.320  10.224
77073SOL    HW133058  14.715   2.365  10.140
77073SOL    HW233059  14.620   2.345  10.256
77074SOL     OW33060   8.940  12.463   0.729
77074SOL    HW133061   8.957  12.438   0.819
77074SOL    HW233062   8.991  12.401   0.676
77075SOL     OW33063  14.499   9.682   5.270
77075SOL    HW133064  14.471   9.766   5.234
77075SOL    HW233065  14.449   9.617   5.221
77076SOL     OW33066   9.318  12.951   9.846
77076SOL    HW133067   9.371  12.874   9.822
77076SOL    HW233068   9.355  12.979   9.929
77077SOL     OW33069   0.692   7.491   8.698
77077SOL    HW133070   0.766   7.446   8.737
77077SOL    HW233071   0.618   7.469   8.755
77078SOL     OW33072   9.996   8.619   6.563
77078SOL    HW133073   9.907   8.613   6.529
77078SOL    HW233074   9.986   8.657   6.651
77079SOL     OW33075   0.695   1.178   3.719
77079SOL    HW133076   0.719   1.088   3.699
77079SOL    HW233077   0.701   1.224   3.635
77080SOL     OW33078   3.266   9.539  10.030
77080SOL    HW133079   3.269   9.594  10.109
77080SOL    HW233080   3.223   9.593   9.965
77081SOL     OW33081   5.770  11.762   8.177
77081SOL    HW133082   5.832  11.831   8.153
77081SOL    HW233083   5.792  11.742   8.268
77082SOL     OW33084   8.352   9.126   5.865
77082SOL    HW133085   8.355   9.219   5.840
77082SOL    HW233086   8.344   9.080   5.781
77083SOL     OW33087   9.596   6.341   8.173
77083SOL    HW133088   9.677   6.390   8.189
77083SOL    HW233089   9.578   6.355   8.080
77084SOL     OW33090   5.995   7.234  12.928
77084SOL    HW133091   5.937   7.301  12.964
77084SOL    HW233092   6.023   7.269  12.843
77085SOL     OW33093   9.560  12.075   7.552
77085SOL    HW133094   9.520  11.991   7.573
77085SOL    HW233095   9.486  12.135   7.542
77086SOL     OW33096  13.156   7.440   4.753
77086SOL    HW133097  13.227   7.385   4.786
77086SOL    HW233098  13.081   7.420   4.810
77087SOL     OW33099   1.376   0.888   4.114
77087SOL    HW133100   1.404   0.979   4.119
77087SOL    HW233101   1.452   0.838   4.143
77088SOL     OW33102  13.201   1.837   5.758
77088SOL    HW133103  13.146   1.773   5.713
77088SOL    HW233104  13.139   1.894   5.803
77089SOL     OW33105  14.441   8.566  10.897
77089SOL    HW133106  14.403   8.653  10.895
77089SOL    HW233107  14.518   8.571  10.841
77090SOL     OW33108   5.329   7.358   6.464
77090SOL    HW133109   5.361   7.430   6.518
77090SOL    HW233110   5.241   7.385   6.438
77091SOL     OW33111  13.683  13.519   2.811
77091SOL    HW133112  13.743  13.553   2.745
77091SOL    HW233113  13.692  13.579   2.885
77092SOL     OW33114   2.605   5.403   9.537
77092SOL    HW133115   2.676   5.445   9.587
77092SOL    HW233116   2.585   5.465   9.468
77093SOL     OW33117   6.084  10.488   2.874
77093SOL    HW133118   6.121  10.400   2.876
77093SOL    HW233119   6.041  10.498   2.959
77094SOL     OW33120   5.209   1.598   6.916
77094SOL    HW133121   5.278   1.629   6.974
77094SOL    HW233122   5.220   1.648   6.836
77095SOL     OW33123  12.205   0.500  11.398
77095SOL    HW133124  12.265   0.438  11.358
77095SOL    HW233125  12.254   0.582  11.403
77096SOL     OW33126   4.133   3.350  11.357
77096SOL    HW133127   4.049   3.304  11.368
77096SOL    HW233128   4.157   3.335  11.266
77097SOL     OW33129   8.652   6.663   0.582
77097SOL    HW133130   8.629   6.570   0.576
77097SOL    HW233131   8.723   6.674   0.519
77098SOL     OW33132  10.325   9.132   7.633
77098SOL    HW133133  10.296   9.158   7.546
77098SOL    HW233134  10.413   9.169   7.640
77099SOL     OW33135   7.668  10.407  13.327
77099SOL    HW133136   7.615  10.334  13.293
77099SOL    HW233137   7.697  10.376  13.413
77100SOL     OW33138   3.925   9.050   3.656
77100SOL    HW133139   3.871   9.043   3.735
77100SOL    HW233140   3.878   9.113   3.601
77101SOL     OW33141  10.230   7.825  13.665
77101SOL    HW133142  10.289   7.757  13.696
77101SOL    HW233143  10.172   7.780  13.602
77102SOL     OW33144  14.311   0.026   9.769
77102SOL    HW133145  14.269  14.826   9.730
77102SOL    HW233146  14.310   0.092   9.700
77103SOL     OW33147   2.509  12.571   5.244
77103SOL    HW133148   2.547  12.650   5.207
77103SOL    HW233149   2.581  12.529   5.291
77104SOL     OW33150   4.188   8.607  11.567
77104SOL    HW133151   4.102   8.647  11.576
77104SOL    HW233152   4.171   8.520  11.531
77105SOL     OW33153   5.681  14.357  11.173
77105SOL    HW133154   5.743  14.372  11.102
77105SOL    HW233155   5.595  14.377  11.136
77106SOL     OW33156   6.874  12.441   5.647
77106SOL    HW133157   6.852  12.416   5.557
77106SOL    HW233158   6.969  12.449   5.647
77107SOL     OW33159   0.389   8.197   6.851
77107SOL    HW133160   0.453   8.199   6.780
77107SOL    HW233161   0.327   8.267   6.830
77108SOL     OW33162  12.792  11.359   0.903
77108SOL    HW133163  12.782  11.408   0.821
77108SOL    HW233164  12.771  11.269   0.879
77109SOL     OW33165   4.264   3.801   3.258
77109SOL    HW133166   4.286   3.715   3.221
77109SOL    HW233167   4.241   3.854   3.181
77110SOL     OW33168   6.886   0.295  11.291
77110SOL    HW133169   6.805   0.343  11.277
77110SOL    HW233170   6.860   0.202  11.288
77111SOL     OW33171   8.631   5.623   1.168
77111SOL    HW133172   8.619   5.528   1.175
77111SOL    HW233173   8.634   5.639   1.073
77112SOL     OW33174   3.357   1.380   8.451
77112SOL    HW133175   3.275   1.376   8.402
77112SOL    HW233176   3.407   1.450   8.409
77113SOL     OW33177  10.051   9.079   5.237
77113SOL    HW133178  10.065   9.162   5.191
77113SOL    HW233179  10.091   9.013   5.179
77114SOL     OW33180   6.284   8.684   0.937
77114SOL    HW133181   6.350   8.618   0.956
77114SOL    HW233182   6.202   8.648   0.972
77115SOL     OW33183   1.411   5.678   6.010
77115SOL    HW133184   1.365   5.613   6.063
77115SOL    HW233185   1.356   5.687   5.932
77116SOL     OW33186   0.101   1.817  13.612
77116SOL    HW133187   0.153   1.738  13.599
77116SOL    HW233188   0.146   1.885  13.562
77117SOL     OW33189  13.071   1.932   8.781
77117SOL    HW133190  13.056   2.002   8.845
77117SOL    HW233191  13.048   1.972   8.697
77118SOL     OW33192  13.719  13.604   3.318
77118SOL    HW133193  13.749  13.612   3.409
77118SOL    HW233194  13.690  13.513   3.311
77119SOL     OW33195   0.153  10.900   2.272
77119SOL    HW133196   0.240  10.871   2.245
77119SOL    HW233197   0.096  10.826   2.252
77120SOL     OW33198   7.884   2.917   8.559
77120SOL    HW133199   7.923   2.991   8.604
77120SOL    HW233200   7.814   2.954   8.506
77121SOL     OW33201  12.355   2.550   8.733
77121SOL    HW133202  12.444   2.548   8.770
77121SOL    HW233203  12.326   2.459   8.736
77122SOL     OW33204   4.653   2.324  12.741
77122SOL    HW133205   4.689   2.306  12.827
77122SOL    HW233206   4.687   2.411  12.719
77123SOL     OW33207  14.476   3.688  13.420
77123SOL    HW133208  14.441   3.750  13.485
77123SOL    HW233209  14.429   3.710  13.339
77124SOL     OW33210   3.376   4.593  13.491
77124SOL    HW133211   3.285   4.584  13.465
77124SOL    HW233212   3.381   4.678  13.534
77125SOL     OW33213   3.955   2.869   7.714
77125SOL    HW133214   3.908   2.798   7.671
77125SOL    HW233215   4.021   2.897   7.650
77126SOL     OW33216  10.963   4.259  11.947
77126SOL    HW133217  11.059   4.256  11.946
77126SOL    HW233218  10.942   4.349  11.972
77127SOL     OW33219   2.376  10.372  11.385
77127SOL    HW133220   2.290  10.413  11.399
77127SOL    HW233221   2.437  10.446  11.382
77128SOL     OW33222  13.422  11.674   4.413
77128SOL    HW133223  13.348  11.715   4.458
77128SOL    HW233224  13.499  11.715   4.453
77129SOL     OW33225  11.985   1.402  12.044
77129SOL    HW133226  11.935   1.365  12.116
77129SOL    HW233227  12.053   1.338  12.025
77130SOL     OW33228  12.360   5.374   9.692
77130SOL    HW133229  12.326   5.323   9.765
77130SOL    HW233230  12.387   5.308   9.628
77131SOL     OW33231  10.607   5.509   2.126
77131SOL    HW133232  10.548   5.584   2.129
77131SOL    HW233233  10.611   5.486   2.033
77132SOL     OW33234   3.177  12.553  10.471
77132SOL    HW133235   3.149  12.546  10.563
77132SOL    HW233236   3.273  12.556  10.477
77133SOL     OW33237  12.300  11.439   9.957
77133SOL    HW133238  12.208  11.432   9.932
77133SOL    HW233239  12.310  11.381  10.032
77134SOL     OW33240   1.230   3.625   4.173
77134SOL    HW133241   1.184   3.598   4.093
77134SOL    HW233242   1.288   3.696   4.144
77135SOL     OW33243  12.945  12.000   5.912
77135SOL    HW133244  12.862  12.018   5.868
77135SOL    HW233245  12.920  11.976   6.001
77136SOL     OW33246  10.135   5.913  11.855
77136SOL    HW133247  10.193   5.897  11.781
77136SOL    HW233248  10.166   5.996  11.892
77137SOL     OW33249   7.708  14.221   7.512
77137SOL    HW133250   7.679  14.216   7.603
77137SOL    HW233251   7.671  14.304   7.481
77138SOL     OW33252  11.486   9.802   5.476
77138SOL    HW133253  11.460   9.711   5.492
77138SOL    HW233254  11.550   9.820   5.546
77139SOL     OW33255   8.579  11.054   0.673
77139SOL    HW133256   8.584  11.027   0.765
77139SOL    HW233257   8.559  10.974   0.625
77140SOL     OW33258   3.786   6.410   1.476
77140SOL    HW133259   3.872   6.369   1.487
77140SOL    HW233260   3.754   6.379   1.392
77141SOL     OW33261  13.655   5.666   3.835
77141SOL    HW133262  13.598   5.597   3.800
77141SOL    HW233263  13.659   5.732   3.766
77142SOL     OW33264  10.638   0.069   8.017
77142SOL    HW133265  10.555   0.101   8.051
77142SOL    HW233266  10.622  14.853   7.996
77143SOL     OW33267   8.022   6.735   6.671
77143SOL    HW133268   8.108   6.748   6.631
77143SOL    HW233269   7.994   6.823   6.697
77144SOL     OW33270   7.029  13.441   9.900
77144SOL    HW133271   6.968  13.368   9.895
77144SOL    HW233272   7.008  13.495   9.824
77145SOL     OW33273   8.320   1.571   9.627
77145SOL    HW133274   8.314   1.657   9.670
77145SOL    HW233275   8.383   1.522   9.681
77146SOL     OW33276   2.798  10.314   5.680
77146SOL    HW133277   2.884  10.286   5.650
77146SOL    HW233278   2.749  10.334   5.600
77147SOL     OW33279   1.411  12.473   5.720
77147SOL    HW133280   1.360  12.437   5.792
77147SOL    HW233281   1.392  12.414   5.646
77148SOL     OW33282   5.647   3.200  11.056
77148SOL    HW133283   5.566   3.210  11.105
77148SOL    HW233284   5.620   3.194  10.965
77149SOL     OW33285   3.425   5.294   7.212
77149SOL    HW133286   3.500   5.291   7.153
77149SOL    HW233287   3.365   5.357   7.172
77150SOL     OW33288   4.647   5.857   5.217
77150SOL    HW133289   4.618   5.896   5.135
77150SOL    HW233290   4.733   5.895   5.233
77151SOL     OW33291  11.931   2.477   0.215
77151SOL    HW133292  11.983   2.464   0.135
77151SOL    HW233293  11.840   2.477   0.185
77152SOL     OW33294   6.029   3.480  13.885
77152SOL    HW133295   6.024   3.390  13.918
77152SOL    HW233296   6.017   3.535  13.963
77153SOL     OW33297   8.399   9.101   6.547
77153SOL    HW133298   8.370   9.148   6.468
77153SOL    HW233299   8.332   9.121   6.612
77154SOL     OW33300   0.227   1.926   0.607
77154SOL    HW133301   0.249   1.871   0.682
77154SOL    HW233302   0.166   1.991   0.641
77155SOL     OW33303   7.973  10.615  14.181
77155SOL    HW133304   7.988  10.527  14.216
77155SOL    HW233305   8.059  10.646  14.154
77156SOL     OW33306  13.099   1.025   3.980
77156SOL    HW133307  13.144   1.093   4.030
77156SOL    HW233308  13.109   1.050   3.889
77157SOL     OW33309   5.049   3.927   5.722
77157SOL    HW133310   5.107   3.902   5.794
77157SOL    HW233311   4.973   3.966   5.764
77158SOL     OW33312  11.123   7.522  12.453
77158SOL    HW133313  11.073   7.542  12.533
77158SOL    HW233314  11.159   7.606  12.426
77159SOL     OW33315  10.534   1.521   2.049
77159SOL    HW133316  10.589   1.520   1.970
77159SOL    HW233317  10.451   1.483   2.021
77160SOL     OW33318   1.524   2.806   9.882
77160SOL    HW133319   1.461   2.801   9.954
77160SOL    HW233320   1.514   2.895   9.848
77161SOL     OW33321  12.971   7.497   2.807
77161SOL    HW133322  12.916   7.558   2.857
77161SOL    HW233323  12.931   7.495   2.720
77162SOL     OW33324   6.098  12.375   9.744
77162SOL    HW133325   6.091  12.454   9.691
77162SOL    HW233326   6.192  12.362   9.755
77163SOL     OW33327   8.515   2.104   9.351
77163SOL    HW133328   8.544   2.062   9.432
77163SOL    HW233329   8.453   2.042   9.313
77164SOL     OW33330   6.988  13.726   3.168
77164SOL    HW133331   6.941  13.729   3.085
77164SOL    HW233332   6.921  13.709   3.234
77165SOL     OW33333   4.182   2.534   3.445
77165SOL    HW133334   4.244   2.607   3.453
77165SOL    HW233335   4.097   2.576   3.436
77166SOL     OW33336   7.738  12.762   0.516
77166SOL    HW133337   7.761  12.718   0.434
77166SOL    HW233338   7.748  12.856   0.496
77167SOL     OW33339  11.685   7.978   7.650
77167SOL    HW133340  11.679   7.885   7.631
77167SOL    HW233341  11.613   7.997   7.710
77168SOL     OW33342   5.545   7.680   4.265
77168SOL    HW133343   5.517   7.588   4.266
77168SOL    HW233344   5.496   7.719   4.193
77169SOL     OW33345   2.973   2.403   7.072
77169SOL    HW133346   2.893   2.374   7.027
77169SOL    HW233347   3.018   2.458   7.008
77170SOL     OW33348   8.485  13.669   1.155
77170SOL    HW133349   8.529  13.605   1.211
77170SOL    HW233350   8.403  13.625   1.130
77171SOL     OW33351   8.748  10.262   1.025
77171SOL    HW133352   8.828  10.219   1.056
77171SOL    HW233353   8.760  10.269   0.930
77172SOL     OW33354   3.763   4.894  11.891
77172SOL    HW133355   3.728   4.851  11.968
77172SOL    HW233356   3.803   4.975  11.924
77173SOL     OW33357  10.990   2.654  13.398
77173SOL    HW133358  11.075   2.695  13.380
77173SOL    HW233359  10.959   2.623  13.313
77174SOL     OW33360   4.338  13.532   4.246
77174SOL    HW133361   4.349  13.622   4.277
77174SOL    HW233362   4.263  13.536   4.187
77175SOL     OW33363   1.363   4.693   2.930
77175SOL    HW133364   1.420   4.685   3.006
77175SOL    HW233365   1.413   4.747   2.868
77176SOL     OW33366   1.328  13.235   1.311
77176SOL    HW133367   1.307  13.170   1.244
77176SOL    HW233368   1.420  13.256   1.296
77177SOL     OW33369  14.297   3.549   4.732
77177SOL    HW133370  14.372   3.605   4.752
77177SOL    HW233371  14.245   3.600   4.670
77178SOL     OW33372   0.415  10.576   7.774
77178SOL    HW133373   0.506  10.598   7.796
77178SOL    HW233374   0.417  10.483   7.755
77179SOL     OW33375   4.156   3.747  11.626
77179SOL    HW133376   4.157   3.793  11.542
77179SOL    HW233377   4.245   3.761  11.661
77180SOL     OW33378  10.670  13.868   1.020
77180SOL    HW133379  10.655  13.895   0.930
77180SOL    HW233380  10.641  13.777   1.024
77181SOL     OW33381   2.504   1.309   6.777
77181SOL    HW133382   2.417   1.318   6.737
77181SOL    HW233383   2.563   1.294   6.703
77182SOL     OW33384  10.591  10.944   8.213
77182SOL    HW133385  10.605  11.033   8.181
77182SOL    HW233386  10.502  10.946   8.250
77183SOL     OW33387  13.782   5.263  11.634
77183SOL    HW133388  13.735   5.264  11.551
77183SOL    HW233389  13.716   5.284  11.700
77184SOL     OW33390   6.450  14.302   5.097
77184SOL    HW133391   6.404  14.263   5.171
77184SOL    HW233392   6.391  14.292   5.023
77185SOL     OW33393  10.145   1.173   3.527
77185SOL    HW133394  10.143   1.238   3.596
77185SOL    HW233395  10.058   1.132   3.530
77186SOL     OW33396   4.549   9.525  12.530
77186SOL    HW133397   4.592   9.549  12.612
77186SOL    HW233398   4.472   9.581  12.526
77187SOL     OW33399  12.840  10.602   6.730
77187SOL    HW133400  12.861  10.581   6.639
77187SOL    HW233401  12.766  10.545   6.751
77188SOL     OW33402   7.200   1.908  12.197
77188SOL    HW133403   7.280   1.867  12.229
77188SOL    HW233404   7.197   1.886  12.104
77189SOL     OW33405  11.649   0.165   5.133
77189SOL    HW133406  11.554   0.170   5.140
77189SOL    HW233407  11.680   0.173   5.224
77190SOL     OW33408   6.590   7.979   4.108
77190SOL    HW133409   6.611   8.068   4.078
77190SOL    HW233410   6.675   7.943   4.134
77191SOL     OW33411   9.753   5.123   8.507
77191SOL    HW133412   9.661   5.143   8.522
77191SOL    HW233413   9.790   5.204   8.472
77192SOL     OW33414  11.519  13.103  12.974
77192SOL    HW133415  11.599  13.117  12.923
77192SOL    HW233416  11.448  13.118  12.912
77193SOL     OW33417   4.093   6.629   0.177
77193SOL    HW133418   4.061   6.705   0.225
77193SOL    HW233419   4.048   6.555   0.217
77194SOL     OW33420   6.815   2.040   4.914
77194SOL    HW133421   6.839   1.978   4.984
77194SOL    HW233422   6.899   2.074   4.883
77195SOL     OW33423  13.808   1.353   0.691
77195SOL    HW133424  13.856   1.306   0.760
77195SOL    HW233425  13.840   1.315   0.610
77196SOL     OW33426   8.841  13.382  10.437
77196SOL    HW133427   8.792  13.372  10.518
77196SOL    HW233428   8.803  13.460  10.396
77197SOL     OW33429   5.861  10.608   1.701
77197SOL    HW133430   5.812  10.661   1.639
77197SOL    HW233431   5.871  10.665   1.778
77198SOL     OW33432   8.507  13.745   5.328
77198SOL    HW133433   8.557  13.824   5.349
77198SOL    HW233434   8.452  13.731   5.404
77199SOL     OW33435   0.066   8.691   2.780
77199SOL    HW133436   0.122   8.757   2.820
77199SOL    HW233437  14.853   8.725   2.792
77200SOL     OW33438  11.040   1.696   9.671
77200SOL    HW133439  11.066   1.655   9.588
77200SOL    HW233440  11.104   1.663   9.735
77201SOL     OW33441   8.380  14.267  12.784
77201SOL    HW133442   8.456  14.225  12.824
77201SOL    HW233443   8.336  14.197  12.736
77202SOL     OW33444   3.913  13.378   5.137
77202SOL    HW133445   3.846  13.322   5.177
77202SOL    HW233446   3.993  13.357   5.185
77203SOL     OW33447  10.012   3.157   5.599
77203SOL    HW133448  10.084   3.107   5.639
77203SOL    HW233449  10.015   3.133   5.506
77204SOL     OW33450   9.143  10.025  13.691
77204SOL    HW133451   9.203  10.038  13.618
77204SOL    HW233452   9.197  10.037  13.769
77205SOL     OW33453   0.329  11.914  14.097
77205SOL    HW133454   0.327  11.896  14.003
77205SOL    HW233455   0.301  12.005  14.105
77206SOL     OW33456   5.302   7.214   6.175
77206SOL    HW133457   5.314   7.246   6.264
77206SOL    HW233458   5.260   7.128   6.186
77207SOL     OW33459   8.199   3.748   2.938
77207SOL    HW133460   8.123   3.692   2.952
77207SOL    HW233461   8.270   3.688   2.916
77208SOL     OW33462   9.671   5.103   4.490
77208SOL    HW133463   9.704   5.193   4.500
77208SOL    HW233464   9.616   5.090   4.567
77209SOL     OW33465  12.713  11.981  13.077
77209SOL    HW133466  12.664  12.059  13.050
77209SOL    HW233467  12.647  11.923  13.114
77210SOL     OW33468   8.927   4.798   1.092
77210SOL    HW133469   8.954   4.818   1.002
77210SOL    HW233470   8.855   4.859   1.109
77211SOL     OW33471   4.714   6.493   7.613
77211SOL    HW133472   4.670   6.533   7.538
77211SOL    HW233473   4.648   6.493   7.682
77212SOL     OW33474   1.187   2.862   7.919
77212SOL    HW133475   1.201   2.908   8.002
77212SOL    HW233476   1.191   2.931   7.852
77213SOL     OW33477  13.096  10.462   9.125
77213SOL    HW133478  13.013  10.436   9.084
77213SOL    HW233479  13.131  10.381   9.162
77214SOL     OW33480  14.191   1.991  14.023
77214SOL    HW133481  14.278   1.955  14.044
77214SOL    HW233482  14.154   2.014  14.108
77215SOL     OW33483   2.158  11.812   7.365
77215SOL    HW133484   2.078  11.762   7.379
77215SOL    HW233485   2.147  11.852   7.279
77216SOL     OW33486   8.689   9.365   6.658
77216SOL    HW133487   8.617   9.334   6.602
77216SOL    HW233488   8.766   9.360   6.602
77217SOL     OW33489  10.358  10.387   6.714
77217SOL    HW133490  10.335  10.297   6.691
77217SOL    HW233491  10.300  10.441   6.660
77218SOL     OW33492  11.938   0.472  11.175
77218SOL    HW133493  12.017   0.476  11.229
77218SOL    HW233494  11.954   0.534  11.104
77219SOL     OW33495   2.115   2.093   1.673
77219SOL    HW133496   2.172   2.059   1.603
77219SOL    HW233497   2.163   2.167   1.709
77220SOL     OW33498  10.165  13.627   4.546
77220SOL    HW133499  10.084  13.659   4.586
77220SOL    HW233500  10.155  13.645   4.453
77221SOL     OW33501  14.574   0.457   6.343
77221SOL    HW133502  14.487   0.463   6.384
77221SOL    HW233503  14.632   0.430   6.414
77222SOL     OW33504   0.679   5.316   7.874
77222SOL    HW133505   0.622   5.337   7.948
77222SOL    HW233506   0.619   5.290   7.804
77223SOL     OW33507  11.505   9.997   3.758
77223SOL    HW133508  11.423   9.996   3.806
77223SOL    HW233509  11.572   9.981   3.825
77224SOL     OW33510   4.547   0.341  14.770
77224SOL    HW133511   4.558   0.429  14.807
77224SOL    HW233512   4.544   0.355  14.676
77225SOL     OW33513   3.818   7.928   3.667
77225SOL    HW133514   3.723   7.918   3.671
77225SOL    HW233515   3.837   7.937   3.573
77226SOL     OW33516   4.762   9.876  14.429
77226SOL    HW133517   4.803   9.959  14.405
77226SOL    HW233518   4.696   9.900  14.495
77227SOL     OW33519   1.313   6.930   6.777
77227SOL    HW133520   1.289   7.022   6.791
77227SOL    HW233521   1.297   6.916   6.684
77228SOL     OW33522   3.733   8.516  12.960
77228SOL    HW133523   3.719   8.473  12.876
77228SOL    HW233524   3.693   8.458  13.025
77229SOL     OW33525   9.372  10.639  11.447
77229SOL    HW133526   9.432  10.600  11.383
77229SOL    HW233527   9.315  10.567  11.473
77230SOL     OW33528   8.469  14.511   0.929
77230SOL    HW133529   8.516  14.538   1.008
77230SOL    HW233530   8.513  14.557   0.858
77231SOL     OW33531  12.295   9.827   5.286
77231SOL    HW133532  12.308   9.902   5.343
77231SOL    HW233533  12.245   9.862   5.212
77232SOL     OW33534  12.992  10.149   6.227
77232SOL    HW133535  12.985  10.054   6.228
77232SOL    HW233536  12.951  10.177   6.309
77233SOL     OW33537  10.953   2.063   4.922
77233SOL    HW133538  11.015   2.051   4.994
77233SOL    HW233539  10.867   2.068   4.964
77234SOL     OW33540   0.638  13.162   7.259
77234SOL    HW133541   0.668  13.192   7.345
77234SOL    HW233542   0.554  13.118   7.277
77235SOL     OW33543   1.703  11.030   1.798
77235SOL    HW133544   1.644  11.091   1.842
77235SOL    HW233545   1.781  11.082   1.779
77236SOL     OW33546  13.000   4.310   8.731
77236SOL    HW133547  12.980   4.218   8.749
77236SOL    HW233548  13.057   4.308   8.654
77237SOL     OW33549  10.314   1.292  13.765
77237SOL    HW133550  10.381   1.234  13.729
77237SOL    HW233551  10.358   1.378  13.769
77238SOL     OW33552   7.838   2.683  10.297
77238SOL    HW133553   7.809   2.659  10.208
77238SOL    HW233554   7.777   2.638  10.355
77239SOL     OW33555   4.957   7.815   6.890
77239SOL    HW133556   4.905   7.890   6.917
77239SOL    HW233557   4.915   7.740   6.932
77240SOL     OW33558  12.902   4.410   9.442
77240SOL    HW133559  12.836   4.377   9.382
77240SOL    HW233560  12.977   4.431   9.385
77241SOL     OW33561   3.637   1.328   4.881
77241SOL    HW133562   3.667   1.240   4.905
77241SOL    HW233563   3.717   1.380   4.877
77242SOL     OW33564   4.758  13.840   7.041
77242SOL    HW133565   4.733  13.919   7.090
77242SOL    HW233566   4.788  13.872   6.956
77243SOL     OW33567  10.006  10.791  11.929
77243SOL    HW133568  10.070  10.786  11.999
77243SOL    HW233569   9.934  10.735  11.957
77244SOL     OW33570   0.087  11.647  11.099
77244SOL    HW133571   0.183  11.644  11.102
77244SOL    HW233572   0.065  11.735  11.130
77245SOL     OW33573   5.196   8.974   3.580
77245SOL    HW133574   5.127   9.026   3.620
77245SOL    HW233575   5.165   8.957   3.491
77246SOL     OW33576   2.470   7.036   5.093
77246SOL    HW133577   2.530   7.103   5.126
77246SOL    HW233578   2.451   7.063   5.003
77247SOL     OW33579  13.631   6.376   5.017
77247SOL    HW133580  13.579   6.395   5.095
77247SOL    HW233581  13.584   6.420   4.946
77248SOL     OW33582  11.950   0.664  10.607
77248SOL    HW133583  12.015   0.665  10.536
77248SOL    HW233584  11.964   0.748  10.652
77249SOL     OW33585   1.370  10.503   9.358
77249SOL    HW133586   1.392  10.429   9.301
77249SOL    HW233587   1.304  10.468   9.418
77250SOL     OW33588   9.501   3.008   5.649
77250SOL    HW133589   9.550   2.936   5.608
77250SOL    HW233590   9.549   3.027   5.729
77251SOL     OW33591   7.455  12.804   1.881
77251SOL    HW133592   7.526  12.831   1.823
77251SOL    HW233593   7.412  12.732   1.834
77252SOL     OW33594   9.690   0.053   4.683
77252SOL    HW133595   9.610   0.002   4.696
77252SOL    HW233596   9.686   0.082   4.592
77253SOL     OW33597   0.561   6.529   4.774
77253SOL    HW133598   0.492   6.463   4.777
77253SOL    HW233599   0.635   6.487   4.818
77254SOL     OW33600  11.184   9.987   8.951
77254SOL    HW133601  11.099   9.982   8.908
77254SOL    HW233602  11.185   9.912   9.010
77255SOL     OW33603   6.539  13.501   6.589
77255SOL    HW133604   6.599  13.449   6.536
77255SOL    HW233605   6.592  13.574   6.621
77256SOL     OW33606   4.550   3.109   0.110
77256SOL    HW133607   4.548   3.017   0.084
77256SOL    HW233608   4.602   3.110   0.190
77257SOL     OW33609   7.178   4.266  13.898
77257SOL    HW133610   7.117   4.260  13.972
77257SOL    HW233611   7.141   4.333  13.842
77258SOL     OW33612   3.246   1.138   3.471
77258SOL    HW133613   3.341   1.152   3.460
77258SOL    HW233614   3.208   1.223   3.449
77259SOL     OW33615   1.898   8.978  11.381
77259SOL    HW133616   1.821   8.933  11.347
77259SOL    HW233617   1.903   8.952  11.473
77260SOL     OW33618  12.314   3.232   9.650
77260SOL    HW133619  12.262   3.152   9.646
77260SOL    HW233620  12.258   3.299   9.610
77261SOL     OW33621   7.310  12.120   5.739
77261SOL    HW133622   7.352  12.067   5.806
77261SOL    HW233623   7.267  12.057   5.682
77262SOL     OW33624   6.374   0.143  12.188
77262SOL    HW133625   6.465   0.118  12.177
77262SOL    HW233626   6.352   0.118  12.277
77263SOL     OW33627  11.950   2.479  11.851
77263SOL    HW133628  12.006   2.425  11.796
77263SOL    HW233629  11.872   2.497  11.798
77264SOL     OW33630  11.251   9.285  11.786
77264SOL    HW133631  11.301   9.204  11.793
77264SOL    HW233632  11.177   9.273  11.845
77265SOL     OW33633  12.627   9.691   6.926
77265SOL    HW133634  12.672   9.675   7.009
77265SOL    HW233635  12.678   9.641   6.862
77266SOL     OW33636  13.093  13.573  10.984
77266SOL    HW133637  13.154  13.566  10.911
77266SOL    HW233638  13.009  13.548  10.948
77267SOL     OW33639   7.678  12.758  13.533
77267SOL    HW133640   7.617  12.765  13.607
77267SOL    HW233641   7.670  12.668  13.503
77268SOL     OW33642   9.004  10.019   2.372
77268SOL    HW133643   8.913  10.048   2.376
77268SOL    HW233644   9.039  10.064   2.294
77269SOL     OW33645   3.494   8.957  11.332
77269SOL    HW133646   3.534   8.873  11.313
77269SOL    HW233647   3.540   9.019  11.275
77270SOL     OW33648   5.620   1.877   7.174
77270SOL    HW133649   5.647   1.917   7.092
77270SOL    HW233650   5.542   1.926   7.201
77271SOL     OW33651   8.757  13.118   6.721
77271SOL    HW133652   8.674  13.071   6.727
77271SOL    HW233653   8.736  13.197   6.670
77272SOL     OW33654  13.696   2.733   4.468
77272SOL    HW133655  13.765   2.792   4.500
77272SOL    HW233656  13.668   2.773   4.386
77273SOL     OW33657   3.919   8.197   3.696
77273SOL    HW133658   3.958   8.123   3.649
77273SOL    HW233659   3.894   8.259   3.628
77274SOL     OW33660  12.870   9.252   7.343
77274SOL    HW133661  12.851   9.329   7.396
77274SOL    HW233662  12.796   9.193   7.358
77275SOL     OW33663   8.088   7.850  11.289
77275SOL    HW133664   8.027   7.920  11.265
77275SOL    HW233665   8.115   7.812  11.206
77276SOL     OW33666   0.970   9.153   4.120
77276SOL    HW133667   0.988   9.213   4.047
77276SOL    HW233668   0.947   9.070   4.078
77277SOL     OW33669   4.775  14.201   7.719
77277SOL    HW133670   4.726  14.216   7.800
77277SOL    HW233671   4.852  14.257   7.725
77278SOL     OW33672  12.084   9.307  14.200
77278SOL    HW133673  12.042   9.345  14.123
77278SOL    HW233674  12.018   9.247  14.235
77279SOL     OW33675   8.136   3.899   8.617
77279SOL    HW133676   8.136   3.902   8.522
77279SOL    HW233677   8.101   3.984   8.645
77280SOL     OW33678   0.456   2.880   2.160
77280SOL    HW133679   0.422   2.829   2.086
77280SOL    HW233680   0.500   2.816   2.215
77281SOL     OW33681  12.129   0.184   9.663
77281SOL    HW133682  12.068   0.110   9.661
77281SOL    HW233683  12.204   0.155   9.611
77282SOL     OW33684   9.857   5.995   1.065
77282SOL    HW133685   9.832   5.904   1.082
77282SOL    HW233686   9.872   6.033   1.152
77283SOL     OW33687   1.915   9.483   2.458
77283SOL    HW133688   1.922   9.436   2.375
77283SOL    HW233689   1.830   9.528   2.453
77284SOL     OW33690   1.527  10.848  14.725
77284SOL    HW133691   1.433  10.855  14.737
77284SOL    HW233692   1.545  10.895  14.643
77285SOL     OW33693   6.297   5.531   6.820
77285SOL    HW133694   6.229   5.576   6.769
77285SOL    HW233695   6.344   5.601   6.865
77286SOL     OW33696   3.855   7.053   1.904
77286SOL    HW133697   3.765   7.043   1.874
77286SOL    HW233698   3.868   7.148   1.910
77287SOL     OW33699   2.672  12.381   4.998
77287SOL    HW133700   2.588  12.394   5.041
77287SOL    HW233701   2.732  12.440   5.044
77288SOL     OW33702   2.183  13.172   9.148
77288SOL    HW133703   2.166  13.101   9.086
77288SOL    HW233704   2.126  13.154   9.222
77289SOL     OW33705   5.375   5.813   4.689
77289SOL    HW133706   5.439   5.871   4.730
77289SOL    HW233707   5.370   5.737   4.747
77290SOL     OW33708   9.887   8.457   2.610
77290SOL    HW133709   9.833   8.536   2.605
77290SOL    HW233710   9.824   8.385   2.604
77291SOL     OW33711   4.232   9.587   7.304
77291SOL    HW133712   4.167   9.584   7.234
77291SOL    HW233713   4.182   9.610   7.383
77292SOL     OW33714  11.823   8.574   6.157
77292SOL    HW133715  11.878   8.505   6.196
77292SOL    HW233716  11.733   8.546   6.176
77293SOL     OW33717   9.903  14.703   0.983
77293SOL    HW133718   9.886  14.705   1.077
77293SOL    HW233719   9.900  14.795   0.956
77294SOL     OW33720   2.816  13.172   6.571
77294SOL    HW133721   2.851  13.182   6.660
77294SOL    HW233722   2.828  13.080   6.550
77295SOL     OW33723  10.307   1.280  14.440
77295SOL    HW133724  10.236   1.217  14.447
77295SOL    HW233725  10.282   1.352  14.497
77296SOL     OW33726   7.917  13.906  14.142
77296SOL    HW133727   7.964  13.930  14.222
77296SOL    HW233728   7.852  13.976  14.130
77297SOL     OW33729   1.533   7.885  13.881
77297SOL    HW133730   1.528   7.848  13.793
77297SOL    HW233731   1.451   7.860  13.923
77298SOL     OW33732  10.124   6.135   5.255
77298SOL    HW133733  10.066   6.060   5.267
77298SOL    HW233734  10.065   6.209   5.238
77299SOL     OW33735   3.587  11.024  12.863
77299SOL    HW133736   3.562  11.041  12.953
77299SOL    HW233737   3.666  10.970  12.870
77300SOL     OW33738  13.380   8.537   7.715
77300SOL    HW133739  13.334   8.471   7.663
77300SOL    HW233740  13.472   8.526   7.690
77301SOL     OW33741  10.536   2.841   9.745
77301SOL    HW133742  10.614   2.892   9.768
77301SOL    HW233743  10.571   2.762   9.703
77302SOL     OW33744   9.861   3.188  12.224
77302SOL    HW133745   9.899   3.200  12.311
77302SOL    HW233746   9.887   3.266  12.175
77303SOL     OW33747   8.757   4.733  10.373
77303SOL    HW133748   8.692   4.745  10.304
77303SOL    HW233749   8.770   4.638  10.377
77304SOL     OW33750   6.678   1.368   9.181
77304SOL    HW133751   6.599   1.414   9.206
77304SOL    HW233752   6.647   1.293   9.130
77305SOL     OW33753   2.879   3.413   7.797
77305SOL    HW133754   2.856   3.404   7.705
77305SOL    HW233755   2.802   3.380   7.845
77306SOL     OW33756   1.315  13.853  10.265
77306SOL    HW133757   1.360  13.914  10.207
77306SOL    HW233758   1.276  13.909  10.332
77307SOL     OW33759  11.297  12.773  10.028
77307SOL    HW133760  11.374  12.772  10.084
77307SOL    HW233761  11.332  12.782   9.939
77308SOL     OW33762  10.009   1.935   0.086
77308SOL    HW133763   9.917   1.912   0.088
77308SOL    HW233764  10.010   2.027   0.057
77309SOL     OW33765  13.740  14.095  11.401
77309SOL    HW133766  13.826  14.131  11.378
77309SOL    HW233767  13.743  14.087  11.496
77310SOL     OW33768  11.538   6.636   9.346
77310SOL    HW133769  11.548   6.542   9.361
77310SOL    HW233770  11.619   6.674   9.380
77311SOL     OW33771   5.933   5.201  14.593
77311SOL    HW133772   5.869   5.225  14.526
77311SOL    HW233773   5.916   5.262  14.665
77312SOL     OW33774   4.977  12.543   3.314
77312SOL    HW133775   5.065  12.508   3.297
77312SOL    HW233776   4.992  12.623   3.364
77313SOL     OW33777   7.649   0.050   7.668
77313SOL    HW133778   7.595   0.126   7.643
77313SOL    HW233779   7.629  14.860   7.602
77314SOL     OW33780  14.624   6.800  12.453
77314SOL    HW133781  14.582   6.757  12.379
77314SOL    HW233782  14.577   6.768  12.530
77315SOL     OW33783  11.667   2.188   3.016
77315SOL    HW133784  11.606   2.116   3.027
77315SOL    HW233785  11.747   2.146   2.983
77316SOL     OW33786   8.720   0.616  12.168
77316SOL    HW133787   8.635   0.660  12.158
77316SOL    HW233788   8.778   0.684  12.202
77317SOL     OW33789   9.760  11.217   0.309
77317SOL    HW133790   9.828  11.157   0.337
77317SOL    HW233791   9.682  11.163   0.297
77318SOL     OW33792   5.252  10.935   6.675
77318SOL    HW133793   5.202  10.859   6.706
77318SOL    HW233794   5.228  11.006   6.734
77319SOL     OW33795   9.924   0.658   9.320
77319SOL    HW133796   9.914   0.566   9.293
77319SOL    HW233797   9.928   0.707   9.238
77320SOL     OW33798  12.381   9.656   1.650
77320SOL    HW133799  12.351   9.598   1.719
77320SOL    HW233800  12.413   9.598   1.581
77321SOL     OW33801  13.664   7.236   9.212
77321SOL    HW133802  13.685   7.274   9.296
77321SOL    HW233803  13.664   7.141   9.228
77322SOL     OW33804   7.300  11.077   3.073
77322SOL    HW133805   7.337  11.164   3.084
77322SOL    HW233806   7.348  11.022   3.134
77323SOL     OW33807   0.392  14.669   1.539
77323SOL    HW133808   0.339  14.611   1.592
77323SOL    HW233809   0.453  14.611   1.493
77324SOL     OW33810  10.931   8.458  10.528
77324SOL    HW133811  10.979   8.404  10.465
77324SOL    HW233812  10.860   8.401  10.559
77325SOL     OW33813   0.562   1.478  14.699
77325SOL    HW133814   0.601   1.441  14.779
77325SOL    HW233815   0.633   1.528  14.658
77326SOL     OW33816  11.767   6.802  14.716
77326SOL    HW133817  11.853   6.771  14.686
77326SOL    HW233818  11.729   6.726  14.759
77327SOL     OW33819   8.670  11.882  11.010
77327SOL    HW133820   8.725  11.805  11.024
77327SOL    HW233821   8.589  11.847  10.972
77328SOL     OW33822  13.476  11.850   1.448
77328SOL    HW133823  13.446  11.844   1.539
77328SOL    HW233824  13.395  11.854   1.397
77329SOL     OW33825  13.180  11.632   2.206
77329SOL    HW133826  13.243  11.704   2.203
77329SOL    HW233827  13.183  11.592   2.119
77330SOL     OW33828   4.225  12.399   6.725
77330SOL    HW133829   4.184  12.313   6.724
77330SOL    HW233830   4.236  12.419   6.818
77331SOL     OW33831   7.390   2.296  10.127
77331SOL    HW133832   7.467   2.248  10.097
77331SOL    HW233833   7.401   2.384  10.091
77332SOL     OW33834   0.391   5.574  14.187
77332SOL    HW133835   0.345   5.648  14.146
77332SOL    HW233836   0.482   5.585  14.162
77333SOL     OW33837  13.814  14.652   5.219
77333SOL    HW133838  13.822  14.648   5.314
77333SOL    HW233839  13.746  14.718   5.203
77334SOL     OW33840  11.989  12.109   8.342
77334SOL    HW133841  11.909  12.092   8.393
77334SOL    HW233842  11.983  12.048   8.268
77335SOL     OW33843   4.068   8.999   5.355
77335SOL    HW133844   4.120   8.944   5.297
77335SOL    HW233845   3.987   9.016   5.307
77336SOL     OW33846  14.768   1.630   4.294
77336SOL    HW133847  14.746   1.723   4.296
77336SOL    HW233848  14.780   1.610   4.202
77337SOL     OW33849   2.039   1.813   4.177
77337SOL    HW133850   1.996   1.861   4.106
77337SOL    HW233851   2.124   1.856   4.186
77338SOL     OW33852  10.653  14.628   2.306
77338SOL    HW133853  10.664  14.707   2.253
77338SOL    HW233854  10.671  14.656   2.396
77339SOL     OW33855   1.674   2.056   9.140
77339SOL    HW133856   1.719   2.118   9.083
77339SOL    HW233857   1.653   2.107   9.219
77340SOL     OW33858  12.324  11.770  11.657
77340SOL    HW133859  12.270  11.724  11.722
77340SOL    HW233860  12.276  11.851  11.639
77341SOL     OW33861   7.548  14.369   2.933
77341SOL    HW133862   7.467  14.420   2.936
77341SOL    HW233863   7.554  14.339   2.842
77342SOL     OW33864  10.637  10.572  10.262
77342SOL    HW133865  10.644  10.642  10.198
77342SOL    HW233866  10.592  10.612  10.337
77343SOL     OW33867   4.707   0.891   9.171
77343SOL    HW133868   4.623   0.883   9.127
77343SOL    HW233869   4.755   0.956   9.120
77344SOL     OW33870  10.259   9.086  14.639
77344SOL    HW133871  10.285   9.064  14.550
77344SOL    HW233872  10.326   9.047  14.695
77345SOL     OW33873   8.099  13.858   0.300
77345SOL    HW133874   8.004  13.856   0.290
77345SOL    HW233875   8.133  13.804   0.228
77346SOL     OW33876   1.439   3.553   6.459
77346SOL    HW133877   1.531   3.559   6.431
77346SOL    HW233878   1.389   3.564   6.378
77347SOL     OW33879   1.641   9.322  12.055
77347SOL    HW133880   1.681   9.276  12.129
77347SOL    HW233881   1.582   9.385  12.095
77348SOL     OW33882   7.682   8.770   1.463
77348SOL    HW133883   7.624   8.837   1.426
77348SOL    HW233884   7.623   8.706   1.503
77349SOL     OW33885   6.518   3.180   5.572
77349SOL    HW133886   6.500   3.250   5.635
77349SOL    HW233887   6.433   3.161   5.534
77350SOL     OW33888   2.795   2.210   3.058
77350SOL    HW133889   2.771   2.118   3.047
77350SOL    HW233890   2.715   2.258   3.037
77351SOL     OW33891   4.679   4.924   5.458
77351SOL    HW133892   4.767   4.896   5.433
77351SOL    HW233893   4.692   4.988   5.527
77352SOL     OW33894  14.393  11.780  14.027
77352SOL    HW133895  14.480  11.782  13.987
77352SOL    HW233896  14.392  11.700  14.079
77353SOL     OW33897  13.296   1.040   8.858
77353SOL    HW133898  13.344   1.113   8.898
77353SOL    HW233899  13.256   0.995   8.932
77354SOL     OW33900  14.583   4.999   3.381
77354SOL    HW133901  14.556   4.908   3.368
77354SOL    HW233902  14.517   5.036   3.440
77355SOL     OW33903   9.270   5.478   4.031
77355SOL    HW133904   9.288   5.516   4.117
77355SOL    HW233905   9.275   5.383   4.044
77356SOL     OW33906  12.901  11.894   7.285
77356SOL    HW133907  12.893  11.873   7.379
77356SOL    HW233908  12.986  11.857   7.260
77357SOL     OW33909   7.457  14.734   4.365
77357SOL    HW133910   7.448  14.674   4.439
77357SOL    HW233911   7.551  14.736   4.346
77358SOL     OW33912   7.681   7.551   9.299
77358SOL    HW133913   7.735   7.475   9.321
77358SOL    HW233914   7.619   7.519   9.234
77359SOL     OW33915  12.200   5.394  11.837
77359SOL    HW133916  12.231   5.421  11.751
77359SOL    HW233917  12.274   5.347  11.876
77360SOL     OW33918   4.987   0.697  11.975
77360SOL    HW133919   4.912   0.640  11.958
77360SOL    HW233920   4.951   0.770  12.026
77361SOL     OW33921   5.092  14.370   3.054
77361SOL    HW133922   5.021  14.306   3.057
77361SOL    HW233923   5.120  14.370   2.962
77362SOL     OW33924  11.577   0.967   1.746
77362SOL    HW133925  11.553   0.889   1.795
77362SOL    HW233926  11.663   0.948   1.710
77363SOL     OW33927   8.893  13.278   8.609
77363SOL    HW133928   8.821  13.318   8.657
77363SOL    HW233929   8.966  13.339   8.619
77364SOL     OW33930   4.849  14.826  12.202
77364SOL    HW133931   4.773  14.788  12.159
77364SOL    HW233932   4.857  14.777  12.284
77365SOL     OW33933   0.815   8.924   8.907
77365SOL    HW133934   0.811   8.998   8.846
77365SOL    HW233935   0.741   8.870   8.883
77366SOL     OW33936   4.317  14.146   2.712
77366SOL    HW133937   4.357  14.081   2.653
77366SOL    HW233938   4.298  14.097   2.792
77367SOL     OW33939   6.060   3.417   8.300
77367SOL    HW133940   5.987   3.367   8.263
77367SOL    HW233941   6.137   3.360   8.287
77368SOL     OW33942   3.944   0.400   8.821
77368SOL    HW133943   4.015   0.397   8.885
77368SOL    HW233944   3.889   0.473   8.850
77369SOL     OW33945   8.255   2.350   9.855
77369SOL    HW133946   8.210   2.363   9.771
77369SOL    HW233947   8.312   2.427   9.864
77370SOL     OW33948   3.981   9.949   3.388
77370SOL    HW133949   4.033  10.024   3.362
77370SOL    HW233950   3.986   9.948   3.483
77371SOL     OW33951   7.728  14.626  12.278
77371SOL    HW133952   7.684  14.595  12.198
77371SOL    HW233953   7.803  14.676  12.246
77372SOL     OW33954  10.664  11.164   0.426
77372SOL    HW133955  10.757  11.140   0.419
77372SOL    HW233956  10.640  11.193   0.338
77373SOL     OW33957   9.984   9.406   4.613
77373SOL    HW133958   9.894   9.405   4.582
77373SOL    HW233959   9.981   9.455   4.695
77374SOL     OW33960   2.211   8.244  13.135
77374SOL    HW133961   2.237   8.322  13.186
77374SOL    HW233962   2.278   8.238  13.067
77375SOL     OW33963   5.814  10.030   4.328
77375SOL    HW133964   5.768  10.062   4.406
77375SOL    HW233965   5.781   9.940   4.316
77376SOL     OW33966   0.280  12.848   2.406
77376SOL    HW133967   0.313  12.784   2.469
77376SOL    HW233968   0.235  12.913   2.460
77377SOL     OW33969   9.571  12.998   4.750
77377SOL    HW133970   9.655  13.010   4.793
77377SOL    HW233971   9.545  13.086   4.723
77378SOL     OW33972  12.506  11.064  14.182
77378SOL    HW133973  12.544  11.139  14.227
77378SOL    HW233974  12.485  11.097  14.094
77379SOL     OW33975  10.662   9.383   5.689
77379SOL    HW133976  10.633   9.324   5.619
77379SOL    HW233977  10.593   9.449   5.696
77380SOL     OW33978   2.300  13.567   2.188
77380SOL    HW133979   2.302  13.648   2.238
77380SOL    HW233980   2.379  13.569   2.135
77381SOL     OW33981   4.979   0.547   2.650
77381SOL    HW133982   4.960   0.456   2.624
77381SOL    HW233983   5.009   0.589   2.570
77382SOL     OW33984   7.651   3.196   1.437
77382SOL    HW133985   7.737   3.239   1.444
77382SOL    HW233986   7.609   3.213   1.521
77383SOL     OW33987   1.668  11.782  13.771
77383SOL    HW133988   1.763  11.783  13.754
77383SOL    HW233989   1.654  11.703  13.823
77384SOL     OW33990   5.747  11.400  11.358
77384SOL    HW133991   5.685  11.410  11.286
77384SOL    HW233992   5.791  11.484  11.364
77385SOL     OW33993  11.084   2.608   1.425
77385SOL    HW133994  11.073   2.633   1.517
77385SOL    HW233995  11.097   2.513   1.428
77386SOL     OW33996  10.510  11.691   8.932
77386SOL    HW133997  10.497  11.767   8.987
77386SOL    HW233998  10.578  11.640   8.977
77387SOL     OW33999   6.095   1.471  12.416
77387SOL    HW134000   6.001   1.466  12.427
77387SOL    HW234001   6.113   1.563  12.396
77388SOL     OW34002  10.122   2.643  13.653
77388SOL    HW134003  10.108   2.722  13.706
77388SOL    HW234004  10.190   2.595  13.700
77389SOL     OW34005   6.010   9.230  10.669
77389SOL    HW134006   5.943   9.170  10.635
77389SOL    HW234007   6.067   9.175  10.723
77390SOL     OW34008  14.804  10.086   3.995
77390SOL    HW134009  14.730  10.029   3.975
77390SOL    HW234010  14.796  10.104   4.089
77391SOL     OW34011  14.763  11.484  13.021
77391SOL    HW134012  14.736  11.394  13.039
77391SOL    HW234013  14.708  11.538  13.077
77392SOL     OW34014   9.901   2.213  12.164
77392SOL    HW134015   9.984   2.183  12.126
77392SOL    HW234016   9.883   2.297  12.121
77393SOL     OW34017   5.938  11.948   0.064
77393SOL    HW134018   5.885  11.914  14.868
77393SOL    HW234019   5.875  11.968   0.133
77394SOL     OW34020   3.913   9.238   2.966
77394SOL    HW134021   3.940   9.326   2.938
77394SOL    HW234022   3.818   9.245   2.977
77395SOL     OW34023   3.771   5.906   8.709
77395SOL    HW134024   3.684   5.936   8.738
77395SOL    HW234025   3.828   5.982   8.722
77396SOL     OW34026  10.871   0.607   6.648
77396SOL    HW134027  10.939   0.546   6.677
77396SOL    HW234028  10.920   0.680   6.610
77397SOL     OW34029   1.439   9.090   3.543
77397SOL    HW134030   1.422   9.008   3.498
77397SOL    HW234031   1.459   9.065   3.633
77398SOL     OW34032  13.906   5.862   0.234
77398SOL    HW134033  13.848   5.922   0.186
77398SOL    HW234034  13.847   5.811   0.289
77399SOL     OW34035   6.894  11.540  10.157
77399SOL    HW134036   6.976  11.554  10.109
77399SOL    HW234037   6.906  11.588  10.239
77400SOL     OW34038  11.902   2.297  10.881
77400SOL    HW134039  11.862   2.211  10.862
77400SOL    HW234040  11.837   2.360  10.850
77401SOL     OW34041   7.184  12.358  12.203
77401SOL    HW134042   7.092  12.384  12.201
77401SOL    HW234043   7.201  12.338  12.295
77402SOL     OW34044  11.465  11.249   6.137
77402SOL    HW134045  11.405  11.247   6.063
77402SOL    HW234046  11.512  11.166   6.132
77403SOL     OW34047   7.062  10.177  11.738
77403SOL    HW134048   7.117  10.233  11.792
77403SOL    HW234049   7.045  10.100  11.793
77404SOL     OW34050  13.220   9.008   8.129
77404SOL    HW134051  13.290   9.071   8.113
77404SOL    HW234052  13.173   9.043   8.205
77405SOL     OW34053   1.780  14.669   3.061
77405SOL    HW134054   1.847  14.601   3.051
77405SOL    HW234055   1.810  14.740   3.003
77406SOL     OW34056   6.716   7.314   8.063
77406SOL    HW134057   6.680   7.401   8.081
77406SOL    HW234058   6.653   7.274   8.004
77407SOL     OW34059  11.756  11.020  13.038
77407SOL    HW134060  11.714  11.065  12.965
77407SOL    HW234061  11.812  10.953  12.997
77408SOL     OW34062   9.218   4.284  11.791
77408SOL    HW134063   9.314   4.288  11.795
77408SOL    HW234064   9.197   4.310  11.701
77409SOL     OW34065  14.764   5.401   5.778
77409SOL    HW134066  14.713   5.469   5.820
77409SOL    HW234067  14.855   5.424   5.796
77410SOL     OW34068   7.788  14.714  11.074
77410SOL    HW134069   7.739  14.650  11.126
77410SOL    HW234070   7.861  14.740  11.130
77411SOL     OW34071   5.531   0.826   0.920
77411SOL    HW134072   5.516   0.762   0.989
77411SOL    HW234073   5.535   0.910   0.966
77412SOL     OW34074   9.445   9.845   4.003
77412SOL    HW134075   9.383   9.884   4.064
77412SOL    HW234076   9.464   9.916   3.940
77413SOL     OW34077  12.723   9.498   2.947
77413SOL    HW134078  12.765   9.428   2.997
77413SOL    HW234079  12.630   9.487   2.965
77414SOL     OW34080   6.147  13.935   1.032
77414SOL    HW134081   6.235  13.908   1.005
77414SOL    HW234082   6.130  14.015   0.981
77415SOL     OW34083   8.155   4.716   9.113
77415SOL    HW134084   8.105   4.662   9.174
77415SOL    HW234085   8.121   4.691   9.027
77416SOL     OW34086   8.010   3.860   7.450
77416SOL    HW134087   8.068   3.887   7.380
77416SOL    HW234088   8.052   3.783   7.489
77417SOL     OW34089   4.540   0.481   2.109
77417SOL    HW134090   4.446   0.501   2.106
77417SOL    HW234091   4.569   0.488   2.018
77418SOL     OW34092   0.647  12.179   8.183
77418SOL    HW134093   0.622  12.154   8.095
77418SOL    HW234094   0.651  12.097   8.232
77419SOL     OW34095   1.754  11.882   6.281
77419SOL    HW134096   1.724  11.955   6.336
77419SOL    HW234097   1.849  11.884   6.290
77420SOL     OW34098   0.788   0.909   7.529
77420SOL    HW134099   0.833   0.890   7.447
77420SOL    HW234100   0.696   0.894   7.510
77421SOL     OW34101   5.491   7.811   0.355
77421SOL    HW134102   5.428   7.746   0.386
77421SOL    HW234103   5.572   7.761   0.342
77422SOL     OW34104  14.330   8.239  11.961
77422SOL    HW134105  14.402   8.181  11.935
77422SOL    HW234106  14.252   8.193  11.931
77423SOL     OW34107   4.583   8.302  11.194
77423SOL    HW134108   4.623   8.321  11.109
77423SOL    HW234109   4.595   8.208  11.206
77424SOL     OW34110  14.358  11.702  10.025
77424SOL    HW134111  14.364  11.614  10.061
77424SOL    HW234112  14.404  11.757  10.089
77425SOL     OW34113   9.957   0.744   4.086
77425SOL    HW134114  10.015   0.699   4.024
77425SOL    HW234115   9.931   0.676   4.148
77426SOL     OW34116   4.707   9.197  12.160
77426SOL    HW134117   4.729   9.149  12.080
77426SOL    HW234118   4.791   9.229  12.193
77427SOL     OW34119  14.709   8.113   4.265
77427SOL    HW134120  14.776   8.095   4.199
77427SOL    HW234121  14.733   8.199   4.299
77428SOL     OW34122   2.165   2.186   4.143
77428SOL    HW134123   2.218   2.120   4.100
77428SOL    HW234124   2.228   2.250   4.176
77429SOL     OW34125   0.850   9.740  12.422
77429SOL    HW134126   0.911   9.793  12.471
77429SOL    HW234127   0.876   9.751  12.330
77430SOL     OW34128   5.008   5.138   0.443
77430SOL    HW134129   5.013   5.208   0.509
77430SOL    HW234130   4.915   5.114   0.441
77431SOL     OW34131   2.502   8.882   0.689
77431SOL    HW134132   2.425   8.849   0.643
77431SOL    HW234133   2.567   8.812   0.681
77432SOL     OW34134   6.500   7.469   7.553
77432SOL    HW134135   6.548   7.389   7.575
77432SOL    HW234136   6.545   7.503   7.475
77433SOL     OW34137   2.519   5.977   6.427
77433SOL    HW134138   2.520   6.052   6.486
77433SOL    HW234139   2.609   5.946   6.426
77434SOL     OW34140   9.519   5.830   9.821
77434SOL    HW134141   9.576   5.778   9.878
77434SOL    HW234142   9.506   5.912   9.869
77435SOL     OW34143   1.479  12.979   9.372
77435SOL    HW134144   1.439  12.892   9.377
77435SOL    HW234145   1.495  12.992   9.279
77436SOL     OW34146   5.564   8.330  13.508
77436SOL    HW134147   5.546   8.424  13.509
77436SOL    HW234148   5.645   8.322  13.458
77437SOL     OW34149   8.424   8.623   6.788
77437SOL    HW134150   8.432   8.560   6.716
77437SOL    HW234151   8.334   8.613   6.819
77438SOL     OW34152   5.576  11.940   8.342
77438SOL    HW134153   5.543  11.981   8.262
77438SOL    HW234154   5.628  11.866   8.311
77439SOL     OW34155   1.571   8.793   7.498
77439SOL    HW134156   1.634   8.754   7.438
77439SOL    HW234157   1.504   8.831   7.441
77440SOL     OW34158   0.857   1.026   0.396
77440SOL    HW134159   0.793   0.988   0.335
77440SOL    HW234160   0.830   0.994   0.482
77441SOL     OW34161  11.545   2.471   2.223
77441SOL    HW134162  11.554   2.491   2.130
77441SOL    HW234163  11.635   2.468   2.255
77442SOL     OW34164   5.953  10.870  13.575
77442SOL    HW134165   6.047  10.858  13.560
77442SOL    HW234166   5.916  10.782  13.568
77443SOL     OW34167  13.315   0.085   3.605
77443SOL    HW134168  13.263   0.045   3.675
77443SOL    HW234169  13.276   0.052   3.524
77444SOL     OW34170  10.666   1.712   1.635
77444SOL    HW134171  10.668   1.688   1.542
77444SOL    HW234172  10.624   1.798   1.635
77445SOL     OW34173  13.615  12.833  13.450
77445SOL    HW134174  13.622  12.827  13.355
77445SOL    HW234175  13.572  12.752  13.476
77446SOL     OW34176   3.669  12.539   0.510
77446SOL    HW134177   3.761  12.525   0.488
77446SOL    HW234178   3.661  12.511   0.601
77447SOL     OW34179   2.045  13.366   4.344
77447SOL    HW134180   2.067  13.456   4.324
77447SOL    HW234181   1.975  13.372   4.409
77448SOL     OW34182  10.865   2.026   4.606
77448SOL    HW134183  10.796   2.073   4.558
77448SOL    HW234184  10.846   2.044   4.698
77449SOL     OW34185   7.686   5.055  14.406
77449SOL    HW134186   7.697   5.130  14.347
77449SOL    HW234187   7.704   4.979  14.352
77450SOL     OW34188   6.491   5.398   8.392
77450SOL    HW134189   6.485   5.459   8.466
77450SOL    HW234190   6.402   5.367   8.379
77451SOL     OW34191  14.197  13.883   9.638
77451SOL    HW134192  14.282  13.867   9.596
77451SOL    HW234193  14.134  13.878   9.567
77452SOL     OW34194   4.060   0.014   8.550
77452SOL    HW134195   3.986   0.072   8.566
77452SOL    HW234196   4.102   0.003   8.635
77453SOL     OW34197   1.628  12.560   3.506
77453SOL    HW134198   1.568  12.592   3.573
77453SOL    HW234199   1.584  12.579   3.423
77454SOL     OW34200   0.599   7.333   4.106
77454SOL    HW134201   0.577   7.288   4.025
77454SOL    HW234202   0.683   7.296   4.132
77455SOL     OW34203  10.145  14.223   1.747
77455SOL    HW134204  10.148  14.167   1.670
77455SOL    HW234205  10.236  14.247   1.764
77456SOL     OW34206  13.571   3.542  13.630
77456SOL    HW134207  13.509   3.505  13.567
77456SOL    HW234208  13.652   3.493  13.617
77457SOL     OW34209   7.794   5.226   9.113
77457SOL    HW134210   7.815   5.306   9.066
77457SOL    HW234211   7.848   5.159   9.072
77458SOL     OW34212   7.533   2.727   5.784
77458SOL    HW134213   7.462   2.662   5.781
77458SOL    HW234214   7.536   2.762   5.695
77459SOL     OW34215   5.926   9.951   2.587
77459SOL    HW134216   5.941  10.042   2.611
77459SOL    HW234217   5.910   9.906   2.670
77460SOL     OW34218   8.212   7.543   6.447
77460SOL    HW134219   8.226   7.574   6.358
77460SOL    HW234220   8.282   7.584   6.498
77461SOL     OW34221  10.303  14.416   4.445
77461SOL    HW134222  10.252  14.338   4.468
77461SOL    HW234223  10.387  14.383   4.415
77462SOL     OW34224   7.762  12.993   3.581
77462SOL    HW134225   7.760  12.943   3.499
77462SOL    HW234226   7.676  13.035   3.586
77463SOL     OW34227  11.651   3.326   2.408
77463SOL    HW134228  11.572   3.272   2.399
77463SOL    HW234229  11.638   3.374   2.490
77464SOL     OW34230   5.458   9.252   6.132
77464SOL    HW134231   5.399   9.263   6.057
77464SOL    HW234232   5.534   9.306   6.112
77465SOL     OW34233  13.411   4.870   7.813
77465SOL    HW134234  13.408   4.926   7.890
77465SOL    HW234235  13.383   4.925   7.740
77466SOL     OW34236   1.060   5.104  11.754
77466SOL    HW134237   1.104   5.024  11.784
77466SOL    HW234238   1.062   5.098  11.658
77467SOL     OW34239   6.225   0.221   4.516
77467SOL    HW134240   6.208   0.244   4.424
77467SOL    HW234241   6.207   0.302   4.564
77468SOL     OW34242  14.154  12.984  14.183
77468SOL    HW134243  14.206  12.904  14.189
77468SOL    HW234244  14.063  12.953  14.179
77469SOL     OW34245   2.794   2.579   3.872
77469SOL    HW134246   2.871   2.615   3.829
77469SOL    HW234247   2.721   2.630   3.837
77470SOL     OW34248  12.934  11.096   0.771
77470SOL    HW134249  12.892  11.090   0.856
77470SOL    HW234250  12.869  11.064   0.709
77471SOL     OW34251   1.120   6.092   8.838
77471SOL    HW134252   1.180   6.106   8.764
77471SOL    HW234253   1.135   6.002   8.865
77472SOL     OW34254   1.130   7.403   8.464
77472SOL    HW134255   1.201   7.447   8.511
77472SOL    HW234256   1.050   7.436   8.505
77473SOL     OW34257   0.401  13.623   8.082
77473SOL    HW134258   0.357  13.567   8.018
77473SOL    HW234259   0.440  13.562   8.145
77474SOL     OW34260   7.869   2.893   2.031
77474SOL    HW134261   7.861   2.814   2.084
77474SOL    HW234262   7.955   2.929   2.053
77475SOL     OW34263  12.247   7.947  11.992
77475SOL    HW134264  12.321   8.007  11.978
77475SOL    HW234265  12.218   7.964  12.081
77476SOL     OW34266   3.005   4.649   1.769
77476SOL    HW134267   3.090   4.642   1.726
77476SOL    HW234268   2.941   4.632   1.700
77477SOL     OW34269   7.559  11.608   4.259
77477SOL    HW134270   7.645  11.579   4.230
77477SOL    HW234271   7.575  11.642   4.348
77478SOL     OW34272   3.770  12.125   2.353
77478SOL    HW134273   3.754  12.072   2.275
77478SOL    HW234274   3.857  12.097   2.383
77479SOL     OW34275   6.576   3.552   7.101
77479SOL    HW134276   6.534   3.467   7.116
77479SOL    HW234277   6.503   3.613   7.093
77480SOL     OW34278   2.987   5.782   4.071
77480SOL    HW134279   3.055   5.730   4.114
77480SOL    HW234280   2.911   5.726   4.069
77481SOL     OW34281  14.758   1.721   0.193
77481SOL    HW134282  14.838   1.754   0.234
77481SOL    HW234283  14.763   1.749   0.102
77482SOL     OW34284  10.601   1.699   4.985
77482SOL    HW134285  10.539   1.772   4.987
77482SOL    HW234286  10.644   1.706   4.900
77483SOL     OW34287   8.544  13.395   4.172
77483SOL    HW134288   8.488  13.433   4.105
77483SOL    HW234289   8.589  13.469   4.211
77484SOL     OW34290  10.558   2.374  12.012
77484SOL    HW134291  10.604   2.381  12.095
77484SOL    HW234292  10.489   2.310  12.028
77485SOL     OW34293   0.670  12.687   2.718
77485SOL    HW134294   0.653  12.600   2.751
77485SOL    HW234295   0.740  12.675   2.653
77486SOL     OW34296   3.814   1.086   8.803
77486SOL    HW134297   3.774   1.097   8.716
77486SOL    HW234298   3.816   0.991   8.817
77487SOL     OW34299   1.463   2.778   4.222
77487SOL    HW134300   1.458   2.799   4.315
77487SOL    HW234301   1.385   2.818   4.184
77488SOL     OW34302  13.774  10.443   0.975
77488SOL    HW134303  13.688  10.454   1.015
77488SOL    HW234304  13.769  10.357   0.932
77489SOL     OW34305   4.819   6.337  12.419
77489SOL    HW134306   4.807   6.432  12.418
77489SOL    HW234307   4.740   6.304  12.463
77490SOL     OW34308  11.288  13.780   9.080
77490SOL    HW134309  11.307  13.687   9.068
77490SOL    HW234310  11.239  13.785   9.162
77491SOL     OW34311   0.331   3.367   3.051
77491SOL    HW134312   0.416   3.410   3.044
77491SOL    HW234313   0.331   3.330   3.139
77492SOL     OW34314  12.084  12.287  14.747
77492SOL    HW134315  12.012  12.307  14.807
77492SOL    HW234316  12.094  12.192  14.753
77493SOL     OW34317  12.600   4.862   3.110
77493SOL    HW134318  12.689   4.897   3.102
77493SOL    HW234319  12.611   4.777   3.152
77494SOL     OW34320   3.886  13.868  12.147
77494SOL    HW134321   3.889  13.831  12.236
77494SOL    HW234322   3.817  13.819  12.103
77495SOL     OW34323   9.849   8.254   6.288
77495SOL    HW134324   9.753   8.258   6.289
77495SOL    HW234325   9.873   8.212   6.370
77496SOL     OW34326   9.386   4.589   0.370
77496SOL    HW134327   9.292   4.593   0.385
77496SOL    HW234328   9.400   4.647   0.295
77497SOL     OW34329   9.265   4.202  14.354
77497SOL    HW134330   9.309   4.229  14.273
77497SOL    HW234331   9.337   4.185  14.415
77498SOL     OW34332  11.804  10.382   7.285
77498SOL    HW134333  11.836  10.443   7.352
77498SOL    HW234334  11.839  10.415   7.203
77499SOL     OW34335  14.049  11.684  10.150
77499SOL    HW134336  14.144  11.675  10.143
77499SOL    HW234337  14.032  11.693  10.244
77500SOL     OW34338   9.372   5.889   3.730
77500SOL    HW134339   9.433   5.961   3.712
77500SOL    HW234340   9.425   5.826   3.779
77501SOL     OW34341  12.672   9.976   0.454
77501SOL    HW134342  12.592   9.960   0.404
77501SOL    HW234343  12.743   9.945   0.398
77502SOL     OW34344   6.641   7.240   7.610
77502SOL    HW134345   6.663   7.170   7.672
77502SOL    HW234346   6.582   7.198   7.547
77503SOL     OW34347   1.108  12.191  12.350
77503SOL    HW134348   1.052  12.213  12.424
77503SOL    HW234349   1.068  12.112  12.313
77504SOL     OW34350   7.721   8.024   5.319
77504SOL    HW134351   7.703   8.102   5.372
77504SOL    HW234352   7.655   8.028   5.249
77505SOL     OW34353   6.809  10.653  12.495
77505SOL    HW134354   6.800  10.568  12.451
77505SOL    HW234355   6.742  10.652  12.563
77506SOL     OW34356  12.011   9.788  11.926
77506SOL    HW134357  12.047   9.850  11.989
77506SOL    HW234358  12.051   9.704  11.949
77507SOL     OW34359   0.247  14.481   5.089
77507SOL    HW134360   0.199  14.496   5.008
77507SOL    HW234361   0.181  14.449   5.151
77508SOL     OW34362  14.026   2.453   4.892
77508SOL    HW134363  13.941   2.484   4.861
77508SOL    HW234364  14.042   2.373   4.842
77509SOL     OW34365   3.841   5.664   7.842
77509SOL    HW134366   3.901   5.636   7.911
77509SOL    HW234367   3.881   5.743   7.806
77510SOL     OW34368   2.661  14.835   5.241
77510SOL    HW134369   2.584   0.009   5.268
77510SOL    HW234370   2.732   0.023   5.238
77511SOL     OW34371  13.173   2.159   4.905
77511SOL    HW134372  13.104   2.215   4.942
77511SOL    HW234373  13.126   2.088   4.863
77512SOL     OW34374   7.761  11.561  10.119
77512SOL    HW134375   7.825  11.632  10.118
77512SOL    HW234376   7.761  11.526  10.030
77513SOL     OW34377   5.236  11.952   5.726
77513SOL    HW134378   5.167  11.911   5.777
77513SOL    HW234379   5.190  11.996   5.654
77514SOL     OW34380   5.317   9.730  13.370
77514SOL    HW134381   5.297   9.734  13.463
77514SOL    HW234382   5.266   9.802  13.332
77515SOL     OW34383  12.576   7.348   8.929
77515SOL    HW134384  12.526   7.280   8.884
77515SOL    HW234385  12.536   7.430   8.901
77516SOL     OW34386   1.017   8.323   6.304
77516SOL    HW134387   0.938   8.337   6.356
77516SOL    HW234388   1.072   8.268   6.360
77517SOL     OW34389   3.016  10.444  11.505
77517SOL    HW134390   3.037  10.519  11.561
77517SOL    HW234391   3.014  10.480  11.416
77518SOL     OW34392   9.754   2.491   7.774
77518SOL    HW134393   9.760   2.440   7.855
77518SOL    HW234394   9.827   2.461   7.721
77519SOL     OW34395  10.807   7.001   4.337
77519SOL    HW134396  10.899   6.988   4.314
77519SOL    HW234397  10.759   6.942   4.279
77520SOL     OW34398   1.114   1.944   2.863
77520SOL    HW134399   1.047   1.941   2.794
77520SOL    HW234400   1.075   1.898   2.937
77521SOL     OW34401   2.289   9.873   5.380
77521SOL    HW134402   2.240   9.858   5.461
77521SOL    HW234403   2.262   9.960   5.351
77522SOL     OW34404   9.471  10.444   8.072
77522SOL    HW134405   9.434  10.517   8.122
77522SOL    HW234406   9.454  10.367   8.126
77523SOL     OW34407   8.925  13.518  13.560
77523SOL    HW134408   8.858  13.471  13.610
77523SOL    HW234409   8.954  13.456  13.493
77524SOL     OW34410   9.113  14.010   7.015
77524SOL    HW134411   9.085  14.008   7.106
77524SOL    HW234412   9.040  13.971   6.966
77525SOL     OW34413  11.095  12.867   3.549
77525SOL    HW134414  11.013  12.822   3.573
77525SOL    HW234415  11.127  12.903   3.632
77526SOL     OW34416   5.251   7.358  13.946
77526SOL    HW134417   5.260   7.451  13.965
77526SOL    HW234418   5.296   7.346  13.862
77527SOL     OW34419   4.196   8.967   5.932
77527SOL    HW134420   4.148   8.929   6.005
77527SOL    HW234421   4.286   8.973   5.962
77528SOL     OW34422  14.363   6.960  14.765
77528SOL    HW134423  14.344   7.054  14.775
77528SOL    HW234424  14.316   6.919  14.838
77529SOL     OW34425  14.458   1.799   1.356
77529SOL    HW134426  14.440   1.746   1.278
77529SOL    HW234427  14.467   1.889   1.322
77530SOL     OW34428   3.608  14.856   7.307
77530SOL    HW134429   3.512  14.858   7.312
77530SOL    HW234430   3.637  14.871   7.397
77531SOL     OW34431   6.172   2.207   3.647
77531SOL    HW134432   6.206   2.256   3.722
77531SOL    HW234433   6.091   2.168   3.679
77532SOL     OW34434   9.817  13.296  12.314
77532SOL    HW134435   9.843  13.250  12.394
77532SOL    HW234436   9.888  13.358  12.298
77533SOL     OW34437  10.902   9.264  11.464
77533SOL    HW134438  10.875   9.311  11.386
77533SOL    HW234439  10.997   9.276  11.468
77534SOL     OW34440   5.481  12.653   3.608
77534SOL    HW134441   5.468  12.652   3.513
77534SOL    HW234442   5.501  12.745   3.628
77535SOL     OW34443  11.960  11.308  12.231
77535SOL    HW134444  11.978  11.328  12.139
77535SOL    HW234445  11.887  11.246  12.229
77536SOL     OW34446  14.814   7.373   5.658
77536SOL    HW134447  14.793   7.379   5.565
77536SOL    HW234448   0.033   7.383   5.661
77537SOL     OW34449  13.697   5.484  10.483
77537SOL    HW134450  13.785   5.487  10.444
77537SOL    HW234451  13.660   5.402  10.451
77538SOL     OW34452  13.789   7.551  13.987
77538SOL    HW134453  13.843   7.630  13.997
77538SOL    HW234454  13.699   7.585  13.981
77539SOL     OW34455  11.339   4.243   9.682
77539SOL    HW134456  11.332   4.337   9.700
77539SOL    HW234457  11.323   4.235   9.588
77540SOL     OW34458  12.708   2.735  12.366
77540SOL    HW134459  12.650   2.786  12.309
77540SOL    HW234460  12.737   2.796  12.433
77541SOL     OW34461  14.252   7.711   1.446
77541SOL    HW134462  14.321   7.687   1.507
77541SOL    HW234463  14.173   7.716   1.500
77542SOL     OW34464   8.026  12.026   2.358
77542SOL    HW134465   8.053  11.945   2.314
77542SOL    HW234466   7.987  11.996   2.440
77543SOL     OW34467  13.226   5.060   8.520
77543SOL    HW134468  13.297   5.118   8.547
77543SOL    HW234469  13.168   5.056   8.596
77544SOL     OW34470   9.121   3.154   1.773
77544SOL    HW134471   9.185   3.109   1.718
77544SOL    HW234472   9.042   3.159   1.719
77545SOL     OW34473   0.516   0.825   7.406
77545SOL    HW134474   0.453   0.870   7.349
77545SOL    HW234475   0.477   0.831   7.493
77546SOL     OW34476  14.329  13.634   5.366
77546SOL    HW134477  14.259  13.571   5.377
77546SOL    HW234478  14.390  13.593   5.304
77547SOL     OW34479   6.544   5.485   1.167
77547SOL    HW134480   6.490   5.492   1.089
77547SOL    HW234481   6.566   5.392   1.172
77548SOL     OW34482  11.674   3.144  10.093
77548SOL    HW134483  11.668   3.220  10.035
77548SOL    HW234484  11.633   3.073  10.042
77549SOL     OW34485   4.722  11.471   5.164
77549SOL    HW134486   4.655  11.467   5.096
77549SOL    HW234487   4.692  11.409   5.231
77550SOL     OW34488   0.438  14.042   7.423
77550SOL    HW134489   0.425  14.070   7.513
77550SOL    HW234490   0.368  14.084   7.373
77551SOL     OW34491   2.990   6.035   4.350
77551SOL    HW134492   3.006   6.130   4.345
77551SOL    HW234493   3.076   5.997   4.365
77552SOL     OW34494   4.073   7.725   4.149
77552SOL    HW134495   4.024   7.781   4.089
77552SOL    HW234496   4.145   7.780   4.180
77553SOL     OW34497   5.271  10.843  12.890
77553SOL    HW134498   5.240  10.869  12.803
77553SOL    HW234499   5.272  10.925  12.940
77554SOL     OW34500   5.517   5.245  10.052
77554SOL    HW134501   5.443   5.195  10.016
77554SOL    HW234502   5.506   5.333  10.017
77555SOL     OW34503   8.981   5.626  13.166
77555SOL    HW134504   8.951   5.540  13.194
77555SOL    HW234505   9.063   5.609  13.120
77556SOL     OW34506  12.605   4.856   4.951
77556SOL    HW134507  12.514   4.885   4.942
77556SOL    HW234508  12.635   4.895   5.033
77557SOL     OW34509  14.267   8.928   1.561
77557SOL    HW134510  14.248   8.865   1.491
77557SOL    HW234511  14.224   8.891   1.638
77558SOL     OW34512  12.781   9.272   1.998
77558SOL    HW134513  12.801   9.351   1.948
77558SOL    HW234514  12.755   9.304   2.084
77559SOL     OW34515  14.865   6.314  13.224
77559SOL    HW134516   0.048   6.245  13.253
77559SOL    HW234517   0.041   6.394  13.228
77560SOL     OW34518  11.449  11.619   6.260
77560SOL    HW134519  11.397  11.671   6.321
77560SOL    HW234520  11.414  11.530   6.270
77561SOL     OW34521   8.916  13.330   4.238
77561SOL    HW134522   8.988  13.267   4.236
77561SOL    HW234523   8.839  13.280   4.210
77562SOL     OW34524   4.561   7.163   4.345
77562SOL    HW134525   4.533   7.143   4.256
77562SOL    HW234526   4.490   7.216   4.381
77563SOL     OW34527   8.230   8.523   8.016
77563SOL    HW134528   8.229   8.616   7.993
77563SOL    HW234529   8.226   8.523   8.111
77564SOL     OW34530   8.790  12.934   3.549
77564SOL    HW134531   8.751  12.923   3.463
77564SOL    HW234532   8.741  12.874   3.606
77565SOL     OW34533  10.984   2.605   0.656
77565SOL    HW134534  10.897   2.607   0.695
77565SOL    HW234535  11.036   2.551   0.715
77566SOL     OW34536   4.575   6.477   6.331
77566SOL    HW134537   4.620   6.520   6.403
77566SOL    HW234538   4.637   6.409   6.302
77567SOL     OW34539  13.823   8.143  13.665
77567SOL    HW134540  13.828   8.201  13.589
77567SOL    HW234541  13.820   8.202  13.740
77568SOL     OW34542  11.895   1.562   9.098
77568SOL    HW134543  11.889   1.472   9.132
77568SOL    HW234544  11.976   1.597   9.135
77569SOL     OW34545   5.692   4.149  12.833
77569SOL    HW134546   5.609   4.166  12.790
77569SOL    HW234547   5.679   4.066  12.879
77570SOL     OW34548   1.412   4.226  14.452
77570SOL    HW134549   1.493   4.276  14.442
77570SOL    HW234550   1.383   4.245  14.541
77571SOL     OW34551   0.800  14.703  13.235
77571SOL    HW134552   0.756  14.677  13.154
77571SOL    HW234553   0.759  14.787  13.258
77572SOL     OW34554   2.487   2.759  13.102
77572SOL    HW134555   2.444   2.711  13.173
77572SOL    HW234556   2.496   2.849  13.136
77573SOL     OW34557  13.726  12.845   5.326
77573SOL    HW134558  13.644  12.800   5.344
77573SOL    HW234559  13.709  12.936   5.353
77574SOL     OW34560  12.757   3.351   4.563
77574SOL    HW134561  12.703   3.299   4.622
77574SOL    HW234562  12.799   3.416   4.620
77575SOL     OW34563   5.461   3.695   2.543
77575SOL    HW134564   5.388   3.641   2.575
77575SOL    HW234565   5.428   3.734   2.462
77576SOL     OW34566  14.636  11.711   0.924
77576SOL    HW134567  14.653  11.642   0.860
77576SOL    HW234568  14.655  11.671   1.009
77577SOL     OW34569   0.629  10.549   5.257
77577SOL    HW134570   0.597  10.501   5.181
77577SOL    HW234571   0.606  10.640   5.239
77578SOL     OW34572  14.370   8.971   7.519
77578SOL    HW134573  14.386   8.889   7.473
77578SOL    HW234574  14.438   8.974   7.586
77579SOL     OW34575   5.922   5.532  10.707
77579SOL    HW134576   5.847   5.473  10.697
77579SOL    HW234577   5.943   5.560  10.618
77580SOL     OW34578  14.519   2.776   2.899
77580SOL    HW134579  14.538   2.691   2.937
77580SOL    HW234580  14.565   2.839   2.955
77581SOL     OW34581   8.217  13.620   8.938
77581SOL    HW134582   8.217  13.643   8.845
77581SOL    HW234583   8.202  13.525   8.939
77582SOL     OW34584   9.570   3.942  11.041
77582SOL    HW134585   9.632   4.009  11.012
77582SOL    HW234586   9.484   3.985  11.032
77583SOL     OW34587  11.932   7.405   7.592
77583SOL    HW134588  12.008   7.394   7.534
77583SOL    HW234589  11.870   7.456   7.540
77584SOL     OW34590   6.511  11.508  13.148
77584SOL    HW134591   6.541  11.586  13.194
77584SOL    HW234592   6.589  11.455  13.136
77585SOL     OW34593   7.588   6.457  13.336
77585SOL    HW134594   7.492   6.456  13.326
77585SOL    HW234595   7.602   6.454  13.431
77586SOL     OW34596  12.152   5.237   2.201
77586SOL    HW134597  12.177   5.243   2.294
77586SOL    HW234598  12.214   5.175   2.164
77587SOL     OW34599  10.308   5.727  10.780
77587SOL    HW134600  10.305   5.648  10.833
77587SOL    HW234601  10.255   5.790  10.828
77588SOL     OW34602   3.292   6.200   5.381
77588SOL    HW134603   3.313   6.106   5.378
77588SOL    HW234604   3.369   6.241   5.420
77589SOL     OW34605   2.762   7.172   7.366
77589SOL    HW134606   2.725   7.112   7.431
77589SOL    HW234607   2.804   7.116   7.302
77590SOL     OW34608  10.770   4.313   3.191
77590SOL    HW134609  10.824   4.268   3.256
77590SOL    HW234610  10.817   4.300   3.108
77591SOL     OW34611  13.710  14.633  12.303
77591SOL    HW134612  13.713  14.614  12.209
77591SOL    HW234613  13.770  14.570  12.342
77592SOL     OW34614   5.725  12.469   6.112
77592SOL    HW134615   5.690  12.518   6.186
77592SOL    HW234616   5.661  12.400   6.097
77593SOL     OW34617  10.782  11.366   3.382
77593SOL    HW134618  10.687  11.369   3.397
77593SOL    HW234619  10.810  11.283   3.421
77594SOL     OW34620  11.642   0.122  14.332
77594SOL    HW134621  11.734   0.138  14.311
77594SOL    HW234622  11.602   0.209  14.334
77595SOL     OW34623   1.715   0.307   5.961
77595SOL    HW134624   1.741   0.375   6.023
77595SOL    HW234625   1.778   0.313   5.890
77596SOL     OW34626   5.465   0.384  12.850
77596SOL    HW134627   5.408   0.372  12.774
77596SOL    HW234628   5.498   0.296  12.870
77597SOL     OW34629   2.929   1.749   4.764
77597SOL    HW134630   2.953   1.775   4.853
77597SOL    HW234631   3.009   1.712   4.727
77598SOL     OW34632  13.814   4.097   8.265
77598SOL    HW134633  13.894   4.049   8.247
77598SOL    HW234634  13.843   4.184   8.293
77599SOL     OW34635  12.622  14.052  14.572
77599SOL    HW134636  12.674  13.999  14.632
77599SOL    HW234637  12.532  14.040  14.601
77600SOL     OW34638  13.213   9.603  11.951
77600SOL    HW134639  13.205   9.587  11.857
77600SOL    HW234640  13.249   9.692  11.957
77601SOL     OW34641   8.345  12.367   2.912
77601SOL    HW134642   8.313  12.391   2.825
77601SOL    HW234643   8.321  12.275   2.922
77602SOL     OW34644  14.851   3.352  11.222
77602SOL    HW134645  14.814   3.379  11.306
77602SOL    HW234646   0.042   3.288  11.245
77603SOL     OW34647   9.525   3.196   3.930
77603SOL    HW134648   9.606   3.196   3.981
77603SOL    HW234649   9.554   3.199   3.839
77604SOL     OW34650   0.729   7.777  12.463
77604SOL    HW134651   0.772   7.862  12.454
77604SOL    HW234652   0.800   7.713  12.451
77605SOL     OW34653   7.970   2.024  11.008
77605SOL    HW134654   7.903   2.031  10.940
77605SOL    HW234655   7.969   1.932  11.033
77606SOL     OW34656   7.191  12.344   3.745
77606SOL    HW134657   7.257  12.286   3.706
77606SOL    HW234658   7.229  12.431   3.741
77607SOL     OW34659  11.866   4.787  13.185
77607SOL    HW134660  11.940   4.746  13.141
77607SOL    HW234661  11.892   4.878  13.197
77608SOL     OW34662   8.070   8.651   4.959
77608SOL    HW134663   8.000   8.714   4.941
77608SOL    HW234664   8.048   8.575   4.906
77609SOL     OW34665  13.941  12.808  13.927
77609SOL    HW134666  13.865  12.772  13.882
77609SOL    HW234667  13.912  12.821  14.017
77610SOL     OW34668   8.946   5.281   9.782
77610SOL    HW134669   8.984   5.197   9.757
77610SOL    HW234670   8.986   5.345   9.723
77611SOL     OW34671   1.937   8.394   8.001
77611SOL    HW134672   1.984   8.358   8.076
77611SOL    HW234673   1.993   8.373   7.926
77612SOL     OW34674  14.744   4.479  13.123
77612SOL    HW134675  14.777   4.465  13.034
77612SOL    HW234676  14.709   4.568  13.122
77613SOL     OW34677   0.687   8.798   2.226
77613SOL    HW134678   0.693   8.703   2.225
77613SOL    HW234679   0.764   8.827   2.275
77614SOL     OW34680   2.519  11.190   7.403
77614SOL    HW134681   2.574  11.234   7.467
77614SOL    HW234682   2.516  11.098   7.432
77615SOL     OW34683  10.908  14.769   2.396
77615SOL    HW134684  11.000  14.784   2.416
77615SOL    HW234685  10.901  14.780   2.301
77616SOL     OW34686  11.478   9.855   5.006
77616SOL    HW134687  11.434   9.938   5.026
77616SOL    HW234688  11.408   9.790   5.010
77617SOL     OW34689   0.848  13.849  14.585
77617SOL    HW134690   0.762  13.883  14.611
77617SOL    HW234691   0.887  13.919  14.534
77618SOL     OW34692   3.408   4.289  11.923
77618SOL    HW134693   3.452   4.368  11.893
77618SOL    HW234694   3.464   4.255  11.992
77619SOL     OW34695  12.590   4.720   1.395
77619SOL    HW134696  12.571   4.807   1.430
77619SOL    HW234697  12.595   4.733   1.300
77620SOL     OW34698   7.004   8.071   5.182
77620SOL    HW134699   7.065   8.125   5.232
77620SOL    HW234700   6.990   7.994   5.237
77621SOL     OW34701   0.062   3.572   2.432
77621SOL    HW134702   0.011   3.491   2.436
77621SOL    HW234703  14.874   3.640   2.410
77622SOL     OW34704   0.663  11.704   6.541
77622SOL    HW134705   0.582  11.719   6.493
77622SOL    HW234706   0.636  11.663   6.623
77623SOL     OW34707  13.130   8.634   7.774
77623SOL    HW134708  13.221   8.622   7.749
77623SOL    HW234709  13.123   8.728   7.795
77624SOL     OW34710   0.388   6.342   6.410
77624SOL    HW134711   0.321   6.403   6.379
77624SOL    HW234712   0.354   6.309   6.493
77625SOL     OW34713  10.753   0.522  11.714
77625SOL    HW134714  10.763   0.495  11.622
77625SOL    HW234715  10.666   0.563  11.717
77626SOL     OW34716   4.252   3.292   9.458
77626SOL    HW134717   4.207   3.367   9.498
77626SOL    HW234718   4.343   3.301   9.485
77627SOL     OW34719   6.549   5.018  10.744
77627SOL    HW134720   6.600   4.942  10.773
77627SOL    HW234721   6.469   5.015  10.797
77628SOL     OW34722   7.453   8.670   9.304
77628SOL    HW134723   7.543   8.661   9.336
77628SOL    HW234724   7.434   8.763   9.309
77629SOL     OW34725   3.718   5.282   6.378
77629SOL    HW134726   3.763   5.202   6.403
77629SOL    HW234727   3.771   5.353   6.413
77630SOL     OW34728   0.634   5.624   4.783
77630SOL    HW134729   0.677   5.557   4.836
77630SOL    HW234730   0.573   5.668   4.843
77631SOL     OW34731   1.221  11.234   5.594
77631SOL    HW134732   1.300  11.181   5.602
77631SOL    HW234733   1.175  11.221   5.677
77632SOL     OW34734  10.016   8.151   0.800
77632SOL    HW134735  10.016   8.110   0.713
77632SOL    HW234736  10.103   8.132   0.835
77633SOL     OW34737   3.949   7.739   7.408
77633SOL    HW134738   3.977   7.751   7.499
77633SOL    HW234739   3.998   7.663   7.378
77634SOL     OW34740  13.353  12.020   8.921
77634SOL    HW134741  13.262  12.032   8.947
77634SOL    HW234742  13.372  11.929   8.943
77635SOL     OW34743   0.916  10.563   8.256
77635SOL    HW134744   0.843  10.558   8.195
77635SOL    HW234745   0.994  10.561   8.200
77636SOL     OW34746   1.017   4.291  10.897
77636SOL    HW134747   1.024   4.382  10.925
77636SOL    HW234748   0.930   4.264  10.926
77637SOL     OW34749   5.521  13.565   4.234
77637SOL    HW134750   5.499  13.637   4.294
77637SOL    HW234751   5.617  13.569   4.227
77638SOL     OW34752   6.879   8.046   2.131
77638SOL    HW134753   6.838   8.094   2.059
77638SOL    HW234754   6.973   8.053   2.113
77639SOL     OW34755  11.411   3.238   2.855
77639SOL    HW134756  11.427   3.321   2.810
77639SOL    HW234757  11.448   3.172   2.796
77640SOL     OW34758  14.488   8.752   2.054
77640SOL    HW134759  14.532   8.766   1.970
77640SOL    HW234760  14.401   8.722   2.030
77641SOL     OW34761   0.495  11.483   9.521
77641SOL    HW134762   0.435  11.409   9.526
77641SOL    HW234763   0.448  11.555   9.564
77642SOL     OW34764   8.445   3.535   0.889
77642SOL    HW134765   8.373   3.585   0.850
77642SOL    HW234766   8.524   3.571   0.848
77643SOL     OW34767  10.718   5.178   4.219
77643SOL    HW134768  10.796   5.177   4.274
77643SOL    HW234769  10.649   5.141   4.274
77644SOL     OW34770   8.414   7.563  12.440
77644SOL    HW134771   8.461   7.480  12.442
77644SOL    HW234772   8.482   7.630  12.436
77645SOL     OW34773   7.275   9.094   8.625
77645SOL    HW134774   7.334   9.136   8.686
77645SOL    HW234775   7.230   9.166   8.581
77646SOL     OW34776   4.222  10.416   7.443
77646SOL    HW134777   4.293  10.477   7.421
77646SOL    HW234778   4.245  10.335   7.396
77647SOL     OW34779  11.928   3.258   7.695
77647SOL    HW134780  11.836   3.240   7.715
77647SOL    HW234781  11.926   3.343   7.651
77648SOL     OW34782   6.426  14.320  12.406
77648SOL    HW134783   6.370  14.253  12.445
77648SOL    HW234784   6.418  14.395  12.466
77649SOL     OW34785   2.173  11.115   6.885
77649SOL    HW134786   2.099  11.054   6.878
77649SOL    HW234787   2.245  11.062   6.919
77650SOL     OW34788   2.136  14.166  12.035
77650SOL    HW134789   2.160  14.240  11.979
77650SOL    HW234790   2.081  14.205  12.104
77651SOL     OW34791  12.425   4.318   2.636
77651SOL    HW134792  12.417   4.407   2.601
77651SOL    HW234793  12.519   4.309   2.656
77652SOL     OW34794   8.745  14.604   8.793
77652SOL    HW134795   8.814  14.549   8.829
77652SOL    HW234796   8.677  14.605   8.861
77653SOL     OW34797   1.530   1.662   4.870
77653SOL    HW134798   1.586   1.616   4.808
77653SOL    HW234799   1.579   1.660   4.953
77654SOL     OW34800   4.203   2.779   3.890
77654SOL    HW134801   4.194   2.781   3.985
77654SOL    HW234802   4.192   2.870   3.862
77655SOL     OW34803   2.487   1.032   3.082
77655SOL    HW134804   2.544   0.998   3.151
77655SOL    HW234805   2.541   1.030   3.003
77656SOL     OW34806   1.659  10.810  10.079
77656SOL    HW134807   1.686  10.803   9.988
77656SOL    HW234808   1.732  10.852  10.123
77657SOL     OW34809   9.010   6.571   8.283
77657SOL    HW134810   9.082   6.566   8.221
77657SOL    HW234811   9.015   6.490   8.333
77658SOL     OW34812   0.238   7.293   0.445
77658SOL    HW134813   0.160   7.242   0.464
77658SOL    HW234814   0.256   7.275   0.352
77659SOL     OW34815  11.210  12.552   6.484
77659SOL    HW134816  11.257  12.529   6.403
77659SOL    HW234817  11.158  12.628   6.460
77660SOL     OW34818   7.009   7.766  12.945
77660SOL    HW134819   7.059   7.758  12.863
77660SOL    HW234820   6.948   7.692  12.942
77661SOL     OW34821  11.813   8.276  13.905
77661SOL    HW134822  11.762   8.325  13.969
77661SOL    HW234823  11.904   8.298  13.924
77662SOL     OW34824   9.108  10.440   7.728
77662SOL    HW134825   9.106  10.442   7.823
77662SOL    HW234826   9.064  10.358   7.704
77663SOL     OW34827  12.796  14.655   8.590
77663SOL    HW134828  12.819  14.562   8.597
77663SOL    HW234829  12.786  14.670   8.496
77664SOL     OW34830  12.073  10.692   0.224
77664SOL    HW134831  12.015  10.684   0.300
77664SOL    HW234832  12.028  10.754   0.167
77665SOL     OW34833   1.349   2.362   9.668
77665SOL    HW134834   1.371   2.450   9.699
77665SOL    HW234835   1.402   2.304   9.724
77666SOL     OW34836  11.935   7.992  10.361
77666SOL    HW134837  12.021   7.995  10.404
77666SOL    HW234838  11.880   7.940  10.419
77667SOL     OW34839   0.450   0.969  11.630
77667SOL    HW134840   0.374   0.969  11.688
77667SOL    HW234841   0.487   0.881  11.639
77668SOL     OW34842  12.137   3.352   7.933
77668SOL    HW134843  12.166   3.407   7.859
77668SOL    HW234844  12.055   3.392   7.961
77669SOL     OW34845   9.709   2.446   5.796
77669SOL    HW134846   9.636   2.508   5.794
77669SOL    HW234847   9.784   2.497   5.764
77670SOL     OW34848   0.107  10.959   7.692
77670SOL    HW134849   0.058  10.892   7.644
77670SOL    HW234850   0.198  10.931   7.686
77671SOL     OW34851   7.275   7.888   8.578
77671SOL    HW134852   7.205   7.944   8.611
77671SOL    HW234853   7.354   7.921   8.621
77672SOL     OW34854  11.993  13.104   5.357
77672SOL    HW134855  11.904  13.115   5.391
77672SOL    HW234856  12.035  13.188   5.373
77673SOL     OW34857   5.015  14.002   9.595
77673SOL    HW134858   5.030  13.960   9.510
77673SOL    HW234859   5.087  14.065   9.603
77674SOL     OW34860   8.514   8.585   6.519
77674SOL    HW134861   8.424   8.554   6.520
77674SOL    HW234862   8.508   8.680   6.527
77675SOL     OW34863  13.811   0.208   5.281
77675SOL    HW134864  13.733   0.188   5.227
77675SOL    HW234865  13.776   0.253   5.358
77676SOL     OW34866   5.980   8.786  13.499
77676SOL    HW134867   5.911   8.844  13.466
77676SOL    HW234868   5.959   8.774  13.592
77677SOL     OW34869  11.033  12.995   0.628
77677SOL    HW134870  10.983  13.049   0.690
77677SOL    HW234871  11.084  12.936   0.684
77678SOL     OW34872   2.627   1.087   8.776
77678SOL    HW134873   2.612   1.177   8.748
77678SOL    HW234874   2.584   1.082   8.862
77679SOL     OW34875   3.288   9.013   8.212
77679SOL    HW134876   3.283   9.060   8.295
77679SOL    HW234877   3.257   8.925   8.233
77680SOL     OW34878   6.117  11.161   4.228
77680SOL    HW134879   6.148  11.199   4.146
77680SOL    HW234880   6.059  11.090   4.200
77681SOL     OW34881   4.231   5.399  14.338
77681SOL    HW134882   4.263   5.456  14.408
77681SOL    HW234883   4.148   5.364  14.371
77682SOL     OW34884   8.090  12.941   7.263
77682SOL    HW134885   8.167  12.893   7.292
77682SOL    HW234886   8.124  13.025   7.231
77683SOL     OW34887   9.270   2.344   3.847
77683SOL    HW134888   9.349   2.390   3.873
77683SOL    HW234889   9.259   2.275   3.912
77684SOL     OW34890  11.505  13.115   2.057
77684SOL    HW134891  11.494  13.068   1.974
77684SOL    HW234892  11.416  13.128   2.090
77685SOL     OW34893   7.838  12.770   7.531
77685SOL    HW134894   7.928  12.802   7.530
77685SOL    HW234895   7.828  12.730   7.618
77686SOL     OW34896   6.681   9.421   9.190
77686SOL    HW134897   6.692   9.515   9.205
77686SOL    HW234898   6.635   9.415   9.106
77687SOL     OW34899   7.840  11.199  13.418
77687SOL    HW134900   7.834  11.106  13.396
77687SOL    HW234901   7.870  11.241  13.338
77688SOL     OW34902   9.080   0.248   0.283
77688SOL    HW134903   9.013   0.315   0.272
77688SOL    HW234904   9.147   0.269   0.218
77689SOL     OW34905  14.163   3.374  14.466
77689SOL    HW134906  14.250   3.347  14.438
77689SOL    HW234907  14.175   3.464  14.498
77690SOL     OW34908  12.133  11.924   9.361
77690SOL    HW134909  12.134  11.943   9.455
77690SOL    HW234910  12.081  11.844   9.353
77691SOL     OW34911  12.899  13.367  10.278
77691SOL    HW134912  12.872  13.413  10.198
77691SOL    HW234913  12.848  13.408  10.348
77692SOL     OW34914  10.884   8.736   2.349
77692SOL    HW134915  10.907   8.745   2.257
77692SOL    HW234916  10.802   8.687   2.349
77693SOL     OW34917  12.552   7.378   7.660
77693SOL    HW134918  12.505   7.340   7.585
77693SOL    HW234919  12.589   7.302   7.705
77694SOL     OW34920  10.616   9.859   7.913
77694SOL    HW134921  10.562   9.835   7.989
77694SOL    HW234922  10.700   9.883   7.951
77695SOL     OW34923  14.406   0.197   6.516
77695SOL    HW134924  14.486   0.154   6.487
77695SOL    HW234925  14.357   0.129   6.563
77696SOL     OW34926   9.836   0.986  12.117
77696SOL    HW134927   9.769   1.020  12.058
77696SOL    HW234928   9.905   1.052  12.116
77697SOL     OW34929   9.221  11.654   1.222
77697SOL    HW134930   9.260  11.727   1.269
77697SOL    HW234931   9.131  11.650   1.254
77698SOL     OW34932   4.756  12.369   8.773
77698SOL    HW134933   4.845  12.390   8.799
77698SOL    HW234934   4.722  12.315   8.844
77699SOL     OW34935  13.694   2.844   4.826
77699SOL    HW134936  13.611   2.840   4.873
77699SOL    HW234937  13.758   2.865   4.893
77700SOL     OW34938  14.740   2.319   0.312
77700SOL    HW134939  14.754   2.402   0.266
77700SOL    HW234940  14.825   2.299   0.353
77701SOL     OW34941   3.584   6.379   8.243
77701SOL    HW134942   3.633   6.373   8.161
77701SOL    HW234943   3.608   6.464   8.279
77702SOL     OW34944  13.775   5.536   5.165
77702SOL    HW134945  13.730   5.527   5.080
77702SOL    HW234946  13.790   5.446   5.193
77703SOL     OW34947  10.647  10.967   3.051
77703SOL    HW134948  10.616  10.878   3.064
77703SOL    HW234949  10.686  10.992   3.135
77704SOL     OW34950   8.745   0.903   0.659
77704SOL    HW134951   8.710   0.857   0.735
77704SOL    HW234952   8.729   0.996   0.678
77705SOL     OW34953   0.984   7.389  14.757
77705SOL    HW134954   0.911   7.336  14.724
77705SOL    HW234955   1.057   7.327  14.763
77706SOL     OW34956   7.305  14.653   4.601
77706SOL    HW134957   7.268  14.565   4.608
77706SOL    HW234958   7.343  14.671   4.687
77707SOL     OW34959  10.982   6.394  13.587
77707SOL    HW134960  10.935   6.347  13.655
77707SOL    HW234961  10.942   6.364  13.505
77708SOL     OW34962   3.027  14.430   0.830
77708SOL    HW134963   3.064  14.484   0.761
77708SOL    HW234964   2.933  14.435   0.817
77709SOL     OW34965   7.760   8.052   7.769
77709SOL    HW134966   7.784   7.967   7.733
77709SOL    HW234967   7.798   8.115   7.708
77710SOL     OW34968  10.519   8.912   0.817
77710SOL    HW134969  10.483   8.898   0.905
77710SOL    HW234970  10.442   8.925   0.762
77711SOL     OW34971   1.278   4.925  10.832
77711SOL    HW134972   1.241   4.992  10.774
77711SOL    HW234973   1.308   4.974  10.908
77712SOL     OW34974   7.376  13.589  10.433
77712SOL    HW134975   7.375  13.510  10.379
77712SOL    HW234976   7.308  13.645  10.395
77713SOL     OW34977   2.266   0.948   2.371
77713SOL    HW134978   2.343   0.992   2.336
77713SOL    HW234979   2.255   0.871   2.314
77714SOL     OW34980   9.195   7.637   8.103
77714SOL    HW134981   9.245   7.713   8.133
77714SOL    HW234982   9.169   7.592   8.183
77715SOL     OW34983   0.835   0.847   4.284
77715SOL    HW134984   0.896   0.897   4.337
77715SOL    HW234985   0.754   0.899   4.286
77716SOL     OW34986   6.318  11.202   3.079
77716SOL    HW134987   6.307  11.206   2.984
77716SOL    HW234988   6.272  11.122   3.105
77717SOL     OW34989   2.670  14.339  14.398
77717SOL    HW134990   2.620  14.396  14.340
77717SOL    HW234991   2.637  14.360  14.486
77718SOL     OW34992   6.050  10.832  12.750
77718SOL    HW134993   6.135  10.847  12.792
77718SOL    HW234994   6.038  10.906  12.692
77719SOL     OW34995   8.243   7.015  11.444
77719SOL    HW134996   8.228   6.981  11.356
77719SOL    HW234997   8.268   7.106  11.431
77720SOL     OW34998   8.432   8.778   8.218
77720SOL    HW134999   8.461   8.743   8.134
77720SOL    HW235000   8.348   8.736   8.235
77721SOL     OW35001   8.199   2.363  11.315
77721SOL    HW135002   8.176   2.450  11.283
77721SOL    HW235003   8.198   2.308  11.237
77722SOL     OW35004   2.914   0.264  13.690
77722SOL    HW135005   2.827   0.256  13.731
77722SOL    HW235006   2.928   0.358  13.681
77723SOL     OW35007  13.645   9.625   5.362
77723SOL    HW135008  13.701   9.616   5.439
77723SOL    HW235009  13.665   9.713   5.329
77724SOL     OW35010   8.605  11.782  12.820
77724SOL    HW135011   8.523  11.784  12.770
77724SOL    HW235012   8.596  11.707  12.879
77725SOL     OW35013   9.472   5.645   3.907
77725SOL    HW135014   9.394   5.592   3.922
77725SOL    HW235015   9.530   5.625   3.980
77726SOL     OW35016   5.866   6.925   1.938
77726SOL    HW135017   5.859   6.913   1.843
77726SOL    HW235018   5.814   6.854   1.976
77727SOL     OW35019  10.482  11.981   7.652
77727SOL    HW135020  10.435  11.909   7.611
77727SOL    HW235021  10.480  11.962   7.746
77728SOL     OW35022  10.983  11.627   3.653
77728SOL    HW135023  10.980  11.639   3.558
77728SOL    HW235024  11.035  11.548   3.666
77729SOL     OW35025  10.111   0.118  13.931
77729SOL    HW135026  10.121   0.164  13.847
77729SOL    HW235027  10.043   0.168  13.977
77730SOL     OW35028   9.625  13.864   3.418
77730SOL    HW135029   9.596  13.914   3.342
77730SOL    HW235030   9.717  13.889   3.430
77731SOL     OW35031  12.004  14.036   2.809
77731SOL    HW135032  11.953  14.024   2.729
77731SOL    HW235033  11.942  14.075   2.871
77732SOL     OW35034   1.230   6.160   1.193
77732SOL    HW135035   1.175   6.224   1.237
77732SOL    HW235036   1.212   6.173   1.100
77733SOL     OW35037   7.935   3.178   9.403
77733SOL    HW135038   7.910   3.155   9.492
77733SOL    HW235039   7.976   3.099   9.368
77734SOL     OW35040   7.286   8.340  13.388
77734SOL    HW135041   7.277   8.423  13.340
77734SOL    HW235042   7.325   8.364  13.471
77735SOL     OW35043   0.181   7.772   3.279
77735SOL    HW135044   0.145   7.852   3.317
77735SOL    HW235045   0.110   7.708   3.286
77736SOL     OW35046   0.116   4.048   3.652
77736SOL    HW135047   0.055   4.112   3.687
77736SOL    HW235048   0.067   3.966   3.650
77737SOL     OW35049   4.720   5.249  12.350
77737SOL    HW135050   4.736   5.164  12.390
77737SOL    HW235051   4.663   5.295  12.412
77738SOL     OW35052   4.506  13.977   5.189
77738SOL    HW135053   4.491  13.891   5.149
77738SOL    HW235054   4.553  13.959   5.270
77739SOL     OW35055  12.149  11.537  12.311
77739SOL    HW135056  12.099  11.575  12.239
77739SOL    HW235057  12.092  11.470  12.347
77740SOL     OW35058   4.766   1.287   4.328
77740SOL    HW135059   4.844   1.252   4.372
77740SOL    HW235060   4.722   1.340   4.394
77741SOL     OW35061   4.753  13.728   7.388
77741SOL    HW135062   4.824  13.686   7.340
77741SOL    HW235063   4.719  13.660   7.446
77742SOL     OW35064   2.600  11.834   7.541
77742SOL    HW135065   2.509  11.850   7.514
77742SOL    HW235066   2.631  11.918   7.573
77743SOL     OW35067   1.285   3.444  11.294
77743SOL    HW135068   1.358   3.446  11.233
77743SOL    HW235069   1.208   3.425  11.240
77744SOL     OW35070  11.671   5.846  12.978
77744SOL    HW135071  11.691   5.903  12.904
77744SOL    HW235072  11.722   5.767  12.962
77745SOL     OW35073   7.854  12.082  11.032
77745SOL    HW135074   7.945  12.069  11.005
77745SOL    HW235075   7.858  12.149  11.101
77746SOL     OW35076  14.224   2.165   1.066
77746SOL    HW135077  14.212   2.125   0.980
77746SOL    HW235078  14.135   2.182   1.096
77747SOL     OW35079   7.700   4.940   5.454
77747SOL    HW135080   7.795   4.952   5.451
77747SOL    HW235081   7.679   4.892   5.374
77748SOL     OW35082  13.736   8.764   3.138
77748SOL    HW135083  13.756   8.798   3.051
77748SOL    HW235084  13.814   8.714   3.163
77749SOL     OW35085  10.369   4.203  11.577
77749SOL    HW135086  10.361   4.195  11.482
77749SOL    HW235087  10.343   4.294  11.596
77750SOL     OW35088  11.344   0.617  13.913
77750SOL    HW135089  11.268   0.652  13.960
77750SOL    HW235090  11.316   0.615  13.821
77751SOL     OW35091   5.323  12.171  11.509
77751SOL    HW135092   5.394  12.215  11.555
77751SOL    HW235093   5.258  12.239  11.494
77752SOL     OW35094   4.324   5.038  14.216
77752SOL    HW135095   4.292   5.075  14.299
77752SOL    HW235096   4.264   4.966  14.197
77753SOL     OW35097  11.841   1.198  11.005
77753SOL    HW135098  11.929   1.235  11.014
77753SOL    HW235099  11.837   1.167  10.915
77754SOL     OW35100   4.655   9.962  12.527
77754SOL    HW135101   4.623   9.881  12.565
77754SOL    HW235102   4.748   9.963  12.548
77755SOL     OW35103   6.695   8.123   6.077
77755SOL    HW135104   6.611   8.101   6.037
77755SOL    HW235105   6.716   8.047   6.131
77756SOL     OW35106   8.322  12.300   0.038
77756SOL    HW135107   8.345  12.221  14.864
77756SOL    HW235108   8.233  12.320   0.011
77757SOL     OW35109   1.345  10.973   2.875
77757SOL    HW135110   1.323  10.902   2.935
77757SOL    HW235111   1.371  11.045   2.932
77758SOL     OW35112   2.287  11.788   1.903
77758SOL    HW135113   2.320  11.703   1.933
77758SOL    HW235114   2.365  11.832   1.868
77759SOL     OW35115   3.894   2.726   5.149
77759SOL    HW135116   3.818   2.731   5.206
77759SOL    HW235117   3.955   2.792   5.182
77760SOL     OW35118  12.416   5.249   1.155
77760SOL    HW135119  12.391   5.158   1.136
77760SOL    HW235120  12.473   5.243   1.232
77761SOL     OW35121   0.393  14.360   5.870
77761SOL    HW135122   0.385  14.270   5.838
77761SOL    HW235123   0.437  14.407   5.800
77762SOL     OW35124   8.620  12.391   3.623
77762SOL    HW135125   8.663  12.422   3.703
77762SOL    HW235126   8.626  12.295   3.628
77763SOL     OW35127   3.269   3.370   2.375
77763SOL    HW135128   3.195   3.394   2.320
77763SOL    HW235129   3.333   3.332   2.315
77764SOL     OW35130   3.344   3.798   9.447
77764SOL    HW135131   3.252   3.787   9.468
77764SOL    HW235132   3.362   3.731   9.380
77765SOL     OW35133  13.428  10.605   7.147
77765SOL    HW135134  13.483  10.616   7.069
77765SOL    HW235135  13.486  10.626   7.220
77766SOL     OW35136  10.114   4.475   2.896
77766SOL    HW135137  10.084   4.443   2.982
77766SOL    HW235138  10.197   4.518   2.914
77767SOL     OW35139   4.486  12.889  11.649
77767SOL    HW135140   4.492  12.954  11.720
77767SOL    HW235141   4.508  12.938  11.570
77768SOL     OW35142   6.964   7.589  13.494
77768SOL    HW135143   6.883   7.537  13.496
77768SOL    HW235144   6.977   7.617  13.585
77769SOL     OW35145   8.197   3.759   2.283
77769SOL    HW135146   8.118   3.807   2.306
77769SOL    HW235147   8.235   3.735   2.368
77770SOL     OW35148   8.453   2.686   6.774
77770SOL    HW135149   8.415   2.646   6.852
77770SOL    HW235150   8.517   2.622   6.743
77771SOL     OW35151   0.994   1.520   0.727
77771SOL    HW135152   0.999   1.456   0.798
77771SOL    HW235153   1.006   1.467   0.647
77772SOL     OW35154  14.061   2.144   6.537
77772SOL    HW135155  14.023   2.215   6.589
77772SOL    HW235156  14.065   2.070   6.598
77773SOL     OW35157   0.097   4.593  11.406
77773SOL    HW135158   0.126   4.571  11.494
77773SOL    HW235159   0.106   4.511  11.356
77774SOL     OW35160  13.322  11.615   7.527
77774SOL    HW135161  13.333  11.686   7.590
77774SOL    HW235162  13.228  11.600   7.524
77775SOL     OW35163   7.570   2.045  11.926
77775SOL    HW135164   7.596   2.134  11.902
77775SOL    HW235165   7.476   2.050  11.942
77776SOL     OW35166   8.364   2.148  11.482
77776SOL    HW135167   8.388   2.222  11.425
77776SOL    HW235168   8.289   2.108  11.439
77777SOL     OW35169   5.057   8.715  12.011
77777SOL    HW135170   5.110   8.788  12.041
77777SOL    HW235171   4.994   8.700  12.081
77778SOL     OW35172  11.232   4.529  12.494
77778SOL    HW135173  11.156   4.492  12.448
77778SOL    HW235174  11.254   4.464  12.560
77779SOL     OW35175  13.660  14.634   9.955
77779SOL    HW135176  13.709  14.572  10.010
77779SOL    HW235177  13.588  14.663  10.011
77780SOL     OW35178   9.528   6.943   8.421
77780SOL    HW135179   9.516   6.979   8.509
77780SOL    HW235180   9.615   6.974   8.394
77781SOL     OW35181   6.364   3.369   0.973
77781SOL    HW135182   6.452   3.401   0.992
77781SOL    HW235183   6.378   3.286   0.927
77782SOL     OW35184  10.994   0.303   6.027
77782SOL    HW135185  11.003   0.387   6.072
77782SOL    HW235186  11.020   0.321   5.937
77783SOL     OW35187  12.106   7.252   4.134
77783SOL    HW135188  12.063   7.299   4.063
77783SOL    HW235189  12.199   7.262   4.117
77784SOL     OW35190   4.398  11.975   8.807
77784SOL    HW135191   4.421  12.045   8.745
77784SOL    HW235192   4.443  11.897   8.773
77785SOL     OW35193  12.163  13.946   7.133
77785SOL    HW135194  12.217  13.945   7.212
77785SOL    HW235195  12.223  13.970   7.063
77786SOL     OW35196   6.217   3.294   3.905
77786SOL    HW135197   6.150   3.311   3.839
77786SOL    HW235198   6.168   3.272   3.984
77787SOL     OW35199  12.972   6.310   2.031
77787SOL    HW135200  13.012   6.270   1.954
77787SOL    HW235201  12.969   6.239   2.095
77788SOL     OW35202   9.797   3.218  11.896
77788SOL    HW135203   9.824   3.250  11.810
77788SOL    HW235204   9.860   3.257  11.957
77789SOL     OW35205   6.002  12.048   1.891
77789SOL    HW135206   5.930  11.994   1.925
77789SOL    HW235207   5.982  12.136   1.920
77790SOL     OW35208   5.969   9.519   8.763
77790SOL    HW135209   6.009   9.506   8.850
77790SOL    HW235210   5.960   9.430   8.728
77791SOL     OW35211  14.254  14.130  14.626
77791SOL    HW135212  14.329  14.157  14.679
77791SOL    HW235213  14.286  14.055  14.575
77792SOL     OW35214   8.077   1.228   6.413
77792SOL    HW135215   8.100   1.216   6.505
77792SOL    HW235216   8.123   1.157   6.367
77793SOL     OW35217   6.267   7.503  11.143
77793SOL    HW135218   6.255   7.595  11.119
77793SOL    HW235219   6.182   7.463  11.126
77794SOL     OW35220   3.633  10.808  10.137
77794SOL    HW135221   3.716  10.788  10.094
77794SOL    HW235222   3.647  10.894  10.177
77795SOL     OW35223   7.982   4.050   7.185
77795SOL    HW135224   8.020   3.970   7.149
77795SOL    HW235225   7.935   4.089   7.111
77796SOL     OW35226   6.138   9.959  12.210
77796SOL    HW135227   6.218   9.909  12.197
77796SOL    HW235228   6.079   9.900  12.258
77797SOL     OW35229   4.366   7.741   3.839
77797SOL    HW135230   4.409   7.690   3.907
77797SOL    HW235231   4.327   7.676   3.780
77798SOL     OW35232   5.571   5.276   8.764
77798SOL    HW135233   5.549   5.324   8.683
77798SOL    HW235234   5.488   5.270   8.811
77799SOL     OW35235   2.740   9.192  12.514
77799SOL    HW135236   2.757   9.102  12.540
77799SOL    HW235237   2.653   9.190  12.475
77800SOL     OW35238   1.915  11.738   9.023
77800SOL    HW135239   1.977  11.796   8.979
77800SOL    HW235240   1.863  11.796   9.079
77801SOL     OW35241   0.843  13.663   6.954
77801SOL    HW135242   0.798  13.612   6.887
77801SOL    HW235243   0.774  13.715   6.995
77802SOL     OW35244  14.760  13.474  10.782
77802SOL    HW135245  14.727  13.535  10.716
77802SOL    HW235246  14.762  13.525  10.863
77803SOL     OW35247   3.885   5.526   5.333
77803SOL    HW135248   3.845   5.504   5.417
77803SOL    HW235249   3.936   5.605   5.350
77804SOL     OW35250  10.091  11.085   6.749
77804SOL    HW135251  10.020  11.064   6.809
77804SOL    HW235252  10.128  11.167   6.783
77805SOL     OW35253  13.150  11.847   2.968
77805SOL    HW135254  13.171  11.922   3.023
77805SOL    HW235255  13.142  11.774   3.030
77806SOL     OW35256   7.302   8.357  11.050
77806SOL    HW135257   7.329   8.274  11.011
77806SOL    HW235258   7.247   8.333  11.124
77807SOL     OW35259   8.592   0.814   9.990
77807SOL    HW135260   8.613   0.856   9.907
77807SOL    HW235261   8.642   0.732   9.990
77808SOL     OW35262   5.180   1.487   1.291
77808SOL    HW135263   5.102   1.435   1.310
77808SOL    HW235264   5.155   1.577   1.314
77809SOL     OW35265   4.684   1.464  11.945
77809SOL    HW135266   4.767   1.442  11.902
77809SOL    HW235267   4.707   1.532  12.009
77810SOL     OW35268   1.301  12.876  11.196
77810SOL    HW135269   1.253  12.810  11.246
77810SOL    HW235270   1.314  12.836  11.110
77811SOL     OW35271  13.266  10.739  11.488
77811SOL    HW135272  13.206  10.665  11.497
77811SOL    HW235273  13.210  10.810  11.456
77812SOL     OW35274   9.844   2.269  10.207
77812SOL    HW135275   9.846   2.319  10.289
77812SOL    HW235276   9.783   2.317  10.151
77813SOL     OW35277   0.174   5.368   9.535
77813SOL    HW135278   0.079   5.384   9.536
77813SOL    HW235279   0.209   5.434   9.476
77814SOL     OW35280  10.805   8.316   8.631
77814SOL    HW135281  10.849   8.393   8.667
77814SOL    HW235282  10.805   8.332   8.536
77815SOL     OW35283   2.985  13.781  11.611
77815SOL    HW135284   2.927  13.855  11.594
77815SOL    HW235285   2.952  13.742  11.692
77816SOL     OW35286   2.029   3.987   7.881
77816SOL    HW135287   2.124   3.985   7.883
77816SOL    HW235288   2.002   3.902   7.917
77817SOL     OW35289   3.543  12.902   6.407
77817SOL    HW135290   3.627  12.941   6.382
77817SOL    HW235291   3.479  12.971   6.388
77818SOL     OW35292  13.329  11.917  11.010
77818SOL    HW135293  13.281  11.869  11.077
77818SOL    HW235294  13.274  11.913  10.932
77819SOL     OW35295   2.445   5.602  13.986
77819SOL    HW135296   2.521   5.590  13.929
77819SOL    HW235297   2.451   5.693  14.014
77820SOL     OW35298   8.482  10.052   5.123
77820SOL    HW135299   8.516  10.135   5.088
77820SOL    HW235300   8.537   9.985   5.083
77821SOL     OW35301   8.886  14.513   5.322
77821SOL    HW135302   8.956  14.543   5.381
77821SOL    HW235303   8.905  14.420   5.307
77822SOL     OW35304  11.940   8.229   4.358
77822SOL    HW135305  11.996   8.306   4.346
77822SOL    HW235306  11.999   8.155   4.349
77823SOL     OW35307   3.622   6.715   6.787
77823SOL    HW135308   3.692   6.652   6.769
77823SOL    HW235309   3.637   6.744   6.877
77824SOL     OW35310  14.738  11.242   2.186
77824SOL    HW135311  14.749  11.157   2.229
77824SOL    HW235312  14.826  11.279   2.184
77825SOL     OW35313  14.545  10.645   2.611
77825SOL    HW135314  14.554  10.651   2.706
77825SOL    HW235315  14.457  10.679   2.593
77826SOL     OW35316   2.309   7.493  13.547
77826SOL    HW135317   2.342   7.514  13.460
77826SOL    HW235318   2.256   7.568  13.572
77827SOL     OW35319   2.049   9.141   4.225
77827SOL    HW135320   2.100   9.175   4.298
77827SOL    HW235321   2.114   9.119   4.158
77828SOL     OW35322  11.637   2.806   9.053
77828SOL    HW135323  11.580   2.729   9.047
77828SOL    HW235324  11.708   2.779   9.112
77829SOL     OW35325   7.976   7.566   4.367
77829SOL    HW135326   7.946   7.655   4.385
77829SOL    HW235327   8.069   7.576   4.345
77830SOL     OW35328  13.159   3.198   8.223
77830SOL    HW135329  13.067   3.221   8.238
77830SOL    HW235330  13.207   3.277   8.248
77831SOL     OW35331   3.309  10.812  13.908
77831SOL    HW135332   3.395  10.805  13.867
77831SOL    HW235333   3.254  10.751  13.859
77832SOL     OW35334  10.778  12.805   2.599
77832SOL    HW135335  10.845  12.791   2.532
77832SOL    HW235336  10.755  12.898   2.591
77833SOL     OW35337  12.529   4.474  11.411
77833SOL    HW135338  12.515   4.430  11.495
77833SOL    HW235339  12.445   4.468  11.367
77834SOL     OW35340  12.324  11.525   1.000
77834SOL    HW135341  12.246  11.574   1.027
77834SOL    HW235342  12.330  11.453   1.063
77835SOL     OW35343  13.968   8.671   3.580
77835SOL    HW135344  14.007   8.626   3.655
77835SOL    HW235345  14.029   8.743   3.562
77836SOL     OW35346   3.682   2.970   4.447
77836SOL    HW135347   3.729   3.050   4.471
77836SOL    HW235348   3.693   2.963   4.353
77837SOL     OW35349   8.550   4.455   8.811
77837SOL    HW135350   8.532   4.470   8.719
77837SOL    HW235351   8.540   4.360   8.823
77838SOL     OW35352   1.935   5.140   9.192
77838SOL    HW135353   2.003   5.152   9.258
77838SOL    HW235354   1.939   5.220   9.139
77839SOL     OW35355   4.143   2.284   6.730
77839SOL    HW135356   4.128   2.190   6.738
77839SOL    HW235357   4.151   2.316   6.820
77840SOL     OW35358   3.571   2.443  11.450
77840SOL    HW135359   3.520   2.454  11.530
77840SOL    HW235360   3.506   2.424  11.382
77841SOL     OW35361   2.739  11.607   0.276
77841SOL    HW135362   2.765  11.548   0.347
77841SOL    HW235363   2.802  11.589   0.206
77842SOL     OW35364  11.442  13.050  14.601
77842SOL    HW135365  11.524  13.016  14.566
77842SOL    HW235366  11.390  12.971  14.620
77843SOL     OW35367   9.429  12.437   8.874
77843SOL    HW135368   9.461  12.380   8.804
77843SOL    HW235369   9.395  12.514   8.828
77844SOL     OW35370   4.484   4.193   0.972
77844SOL    HW135371   4.570   4.172   0.935
77844SOL    HW235372   4.425   4.128   0.933
77845SOL     OW35373   6.128   1.332   3.846
77845SOL    HW135374   6.221   1.353   3.851
77845SOL    HW235375   6.098   1.378   3.767
77846SOL     OW35376  12.344   3.369   6.741
77846SOL    HW135377  12.290   3.448   6.741
77846SOL    HW235378  12.341   3.338   6.650
77847SOL     OW35379  13.429   7.588  14.600
77847SOL    HW135380  13.509   7.606  14.649
77847SOL    HW235381  13.460   7.561  14.513
77848SOL     OW35382   1.171   9.783   0.155
77848SOL    HW135383   1.227   9.721   0.202
77848SOL    HW235384   1.213   9.867   0.167
77849SOL     OW35385  11.930   3.057   6.011
77849SOL    HW135386  11.914   3.013   6.094
77849SOL    HW235387  12.024   3.047   5.996
77850SOL     OW35388  13.858   7.279  14.461
77850SOL    HW135389  13.818   7.344  14.404
77850SOL    HW235390  13.817   7.293  14.546
77851SOL     OW35391   9.252   1.798   0.546
77851SOL    HW135392   9.314   1.799   0.473
77851SOL    HW235393   9.303   1.763   0.620
77852SOL     OW35394  11.812   1.627   1.801
77852SOL    HW135395  11.760   1.615   1.722
77852SOL    HW235396  11.779   1.561   1.862
77853SOL     OW35397   8.619  13.642  10.085
77853SOL    HW135398   8.595  13.673   9.998
77853SOL    HW235399   8.537  13.612  10.123
77854SOL     OW35400   6.774   5.949  10.377
77854SOL    HW135401   6.753   5.945  10.471
77854SOL    HW235402   6.700   5.996  10.339
77855SOL     OW35403   4.030  10.190   1.608
77855SOL    HW135404   4.027  10.130   1.683
77855SOL    HW235405   3.942  10.185   1.570
77856SOL     OW35406   7.536   7.284  14.580
77856SOL    HW135407   7.586   7.347  14.633
77856SOL    HW235408   7.444   7.309  14.594
77857SOL     OW35409   5.067   9.424   9.886
77857SOL    HW135410   5.142   9.367   9.865
77857SOL    HW235411   5.024   9.438   9.802
77858SOL     OW35412   3.588   1.118   5.382
77858SOL    HW135413   3.530   1.103   5.307
77858SOL    HW235414   3.560   1.203   5.416
77859SOL     OW35415   3.349  10.828  11.077
77859SOL    HW135416   3.299  10.888  11.132
77859SOL    HW235417   3.415  10.791  11.136
77860SOL     OW35418   3.276   8.969   4.146
77860SOL    HW135419   3.279   8.916   4.066
77860SOL    HW235420   3.307   9.055   4.119
77861SOL     OW35421   0.264   4.959   0.530
77861SOL    HW135422   0.218   5.010   0.464
77861SOL    HW235423   0.317   5.023   0.577
77862SOL     OW35424   3.934  14.729   2.706
77862SOL    HW135425   3.912  14.649   2.658
77862SOL    HW235426   3.863  14.738   2.770
77863SOL     OW35427   3.589  11.750   8.934
77863SOL    HW135428   3.640  11.806   8.876
77863SOL    HW235429   3.499  11.782   8.925
77864SOL     OW35430   3.812   9.982   9.832
77864SOL    HW135431   3.762   9.900   9.837
77864SOL    HW235432   3.796  10.024   9.917
77865SOL     OW35433   4.609   1.885   4.682
77865SOL    HW135434   4.687   1.915   4.729
77865SOL    HW235435   4.613   1.931   4.598
77866SOL     OW35436   2.007  11.477   0.020
77866SOL    HW135437   1.933  11.524  14.859
77866SOL    HW235438   2.084  11.519  14.857
77867SOL     OW35439  10.003  11.883   4.392
77867SOL    HW135440  10.000  11.792   4.363
77867SOL    HW235441  10.094  11.899   4.414
77868SOL     OW35442   5.498   9.356   2.416
77868SOL    HW135443   5.456   9.273   2.440
77868SOL    HW235444   5.429   9.408   2.376
77869SOL     OW35445   2.339   3.440   9.000
77869SOL    HW135446   2.266   3.400   9.049
77869SOL    HW235447   2.417   3.409   9.046
77870SOL     OW35448   1.134   8.690  14.157
77870SOL    HW135449   1.161   8.610  14.202
77870SOL    HW235450   1.141   8.758  14.224
77871SOL     OW35451   5.177   3.790   2.660
77871SOL    HW135452   5.112   3.860   2.649
77871SOL    HW235453   5.260   3.836   2.673
77872SOL     OW35454  12.326   0.452   7.433
77872SOL    HW135455  12.386   0.498   7.492
77872SOL    HW235456  12.326   0.505   7.353
77873SOL     OW35457   0.395   4.298  12.811
77873SOL    HW135458   0.343   4.359  12.758
77873SOL    HW235459   0.331   4.257  12.870
77874SOL     OW35460  11.332   0.824   0.561
77874SOL    HW135461  11.315   0.834   0.467
77874SOL    HW235462  11.396   0.753   0.566
77875SOL     OW35463  14.096   9.957   2.407
77875SOL    HW135464  14.008   9.929   2.385
77875SOL    HW235465  14.101  10.047   2.375
77876SOL     OW35466   3.009   6.209  14.164
77876SOL    HW135467   3.056   6.234  14.085
77876SOL    HW235468   3.061   6.246  14.236
77877SOL     OW35469   0.755  10.032  12.299
77877SOL    HW135470   0.842   9.994  12.285
77877SOL    HW235471   0.748  10.101  12.233
77878SOL     OW35472   6.524  11.767   9.369
77878SOL    HW135473   6.559  11.776   9.458
77878SOL    HW235474   6.434  11.799   9.376
77879SOL     OW35475   7.916   1.351   2.441
77879SOL    HW135476   7.967   1.300   2.504
77879SOL    HW235477   7.947   1.320   2.355
77880SOL     OW35478   2.082   3.551   6.333
77880SOL    HW135479   2.063   3.619   6.398
77880SOL    HW235480   2.106   3.475   6.385
77881SOL     OW35481  14.258   7.661  11.445
77881SOL    HW135482  14.332   7.627  11.495
77881SOL    HW235483  14.180   7.631  11.493
77882SOL     OW35484   0.166  11.440   3.479
77882SOL    HW135485   0.077  11.407   3.490
77882SOL    HW235486   0.198  11.453   3.568
77883SOL     OW35487   9.166   1.677  12.573
77883SOL    HW135488   9.165   1.640  12.662
77883SOL    HW235489   9.239   1.739  12.574
77884SOL     OW35490  12.651   9.049  10.941
77884SOL    HW135491  12.685   8.976  10.889
77884SOL    HW235492  12.699   9.125  10.910
77885SOL     OW35493  12.791   9.815   1.464
77885SOL    HW135494  12.769   9.799   1.555
77885SOL    HW235495  12.728   9.763   1.414
77886SOL     OW35496   2.916   3.260  10.215
77886SOL    HW135497   2.902   3.177  10.261
77886SOL    HW235498   2.833   3.279  10.172
77887SOL     OW35499   5.774   6.578  13.250
77887SOL    HW135500   5.791   6.659  13.298
77887SOL    HW235501   5.695   6.595  13.200
77888SOL     OW35502  14.354   5.316   3.285
77888SOL    HW135503  14.292   5.389   3.290
77888SOL    HW235504  14.400   5.318   3.369
77889SOL     OW35505  10.978  12.656   3.070
77889SOL    HW135506  10.892  12.658   3.112
77889SOL    HW235507  10.959  12.648   2.977
77890SOL     OW35508   1.526   3.900   9.167
77890SOL    HW135509   1.524   3.880   9.074
77890SOL    HW235510   1.592   3.969   9.175
77891SOL     OW35511   4.445   5.659   5.288
77891SOL    HW135512   4.481   5.622   5.368
77891SOL    HW235513   4.522   5.690   5.240
77892SOL     OW35514  14.167   6.460  13.092
77892SOL    HW135515  14.121   6.410  13.159
77892SOL    HW235516  14.259   6.438  13.103
77893SOL     OW35517   8.704   3.158   1.069
77893SOL    HW135518   8.648   3.085   1.094
77893SOL    HW235519   8.644   3.224   1.035
77894SOL     OW35520   7.540  10.651   2.177
77894SOL    HW135521   7.484  10.729   2.178
77894SOL    HW235522   7.613  10.674   2.234
77895SOL     OW35523   0.934   2.368   7.001
77895SOL    HW135524   0.917   2.278   6.971
77895SOL    HW235525   0.885   2.423   6.940
77896SOL     OW35526   8.315   2.096  10.922
77896SOL    HW135527   8.389   2.135  10.876
77896SOL    HW235528   8.283   2.027  10.864
77897SOL     OW35529   6.900   6.638  10.083
77897SOL    HW135530   6.968   6.662  10.019
77897SOL    HW235531   6.819   6.641  10.033
77898SOL     OW35532   3.100  13.982   4.854
77898SOL    HW135533   3.007  13.967   4.834
77898SOL    HW235534   3.137  14.017   4.773
77899SOL     OW35535  14.721   0.466  12.616
77899SOL    HW135536  14.655   0.412  12.660
77899SOL    HW235537  14.682   0.554  12.613
77900SOL     OW35538   6.324   4.119   5.588
77900SOL    HW135539   6.244   4.078   5.619
77900SOL    HW235540   6.359   4.165   5.664
77901SOL     OW35541   2.380  13.383   0.794
77901SOL    HW135542   2.351  13.468   0.761
77901SOL    HW235543   2.299  13.337   0.816
77902SOL     OW35544   9.051  13.526   5.713
77902SOL    HW135545   8.959  13.527   5.686
77902SOL    HW235546   9.091  13.458   5.659
77903SOL     OW35547   5.966   8.421   2.830
77903SOL    HW135548   5.906   8.445   2.901
77903SOL    HW235549   5.980   8.327   2.842
77904SOL     OW35550   9.543   3.154   7.238
77904SOL    HW135551   9.457   3.137   7.275
77904SOL    HW235552   9.528   3.162   7.144
77905SOL     OW35553   2.657   9.500   2.392
77905SOL    HW135554   2.577   9.507   2.444
77905SOL    HW235555   2.695   9.416   2.418
77906SOL     OW35556   1.039   7.068   5.753
77906SOL    HW135557   0.949   7.083   5.781
77906SOL    HW235558   1.058   6.978   5.780
77907SOL     OW35559   4.427  10.867   0.074
77907SOL    HW135560   4.380  10.887  14.869
77907SOL    HW235561   4.427  10.772   0.079
77908SOL     OW35562   4.230  12.695   7.205
77908SOL    HW135563   4.208  12.622   7.262
77908SOL    HW235564   4.210  12.664   7.116
77909SOL     OW35565  12.628   6.068  13.375
77909SOL    HW135566  12.653   6.101  13.288
77909SOL    HW235567  12.534   6.049  13.367
77910SOL     OW35568  14.848   9.307   2.205
77910SOL    HW135569  14.814   9.260   2.129
77910SOL    HW235570   0.060   9.334   2.179
77911SOL     OW35571   7.785   7.565  11.520
77911SOL    HW135572   7.832   7.555  11.437
77911SOL    HW235573   7.819   7.646  11.557
77912SOL     OW35574   1.817   3.557  12.470
77912SOL    HW135575   1.853   3.584  12.554
77912SOL    HW235576   1.783   3.638  12.432
77913SOL     OW35577  11.690   0.732   3.218
77913SOL    HW135578  11.625   0.663   3.224
77913SOL    HW235579  11.760   0.706   3.278
77914SOL     OW35580   7.029  14.300  12.191
77914SOL    HW135581   7.110  14.254  12.168
77914SOL    HW235582   6.984  14.313  12.108
77915SOL     OW35583  10.243   6.107  14.825
77915SOL    HW135584  10.186   6.166  14.775
77915SOL    HW235585  10.183   6.051  14.873
77916SOL     OW35586   9.659   9.047  10.370
77916SOL    HW135587   9.729   9.110  10.391
77916SOL    HW235588   9.687   9.007  10.288
77917SOL     OW35589   1.373   3.272   9.944
77917SOL    HW135590   1.310   3.223   9.891
77917SOL    HW235591   1.458   3.234   9.923
77918SOL     OW35592   7.764   6.054  12.146
77918SOL    HW135593   7.832   6.108  12.105
77918SOL    HW235594   7.776   6.067  12.240
77919SOL     OW35595  11.400   5.918   0.576
77919SOL    HW135596  11.455   5.942   0.650
77919SOL    HW235597  11.329   5.983   0.578
77920SOL     OW35598   1.109   9.886   4.067
77920SOL    HW135599   1.201   9.910   4.074
77920SOL    HW235600   1.108   9.792   4.085
77921SOL     OW35601   9.989   0.905   9.430
77921SOL    HW135602   9.960   0.823   9.391
77921SOL    HW235603  10.047   0.879   9.502
77922SOL     OW35604   1.715   4.979  14.366
77922SOL    HW135605   1.624   5.006  14.361
77922SOL    HW235606   1.728   4.951  14.457
77923SOL     OW35607  12.691   5.760   4.504
77923SOL    HW135608  12.621   5.695   4.491
77923SOL    HW235609  12.769   5.718   4.469
77924SOL     OW35610  14.186   9.638   9.233
77924SOL    HW135611  14.239   9.675   9.161
77924SOL    HW235612  14.215   9.687   9.310
77925SOL     OW35613   6.617  13.490   7.806
77925SOL    HW135614   6.573  13.469   7.724
77925SOL    HW235615   6.708  13.463   7.792
77926SOL     OW35616  10.759  14.173  13.450
77926SOL    HW135617  10.706  14.165  13.530
77926SOL    HW235618  10.832  14.113  13.464
77927SOL     OW35619   0.422   3.636   0.347
77927SOL    HW135620   0.452   3.561   0.399
77927SOL    HW235621   0.477   3.634   0.269
77928SOL     OW35622   3.077   2.122   4.749
77928SOL    HW135623   3.141   2.064   4.791
77928SOL    HW235624   3.038   2.172   4.821
77929SOL     OW35625   9.729  12.206   4.651
77929SOL    HW135626   9.684  12.226   4.569
77929SOL    HW235627   9.693  12.269   4.714
77930SOL     OW35628   7.137   8.303  11.264
77930SOL    HW135629   7.133   8.207  11.269
77930SOL    HW235630   7.106   8.333  11.349
77931SOL     OW35631   8.110  11.145   9.226
77931SOL    HW135632   8.030  11.094   9.239
77931SOL    HW235633   8.130  11.136   9.133
77932SOL     OW35634  11.137   1.489   3.948
77932SOL    HW135635  11.087   1.569   3.966
77932SOL    HW235636  11.155   1.492   3.854
77933SOL     OW35637   0.196  13.274  10.528
77933SOL    HW135638   0.111  13.289  10.488
77933SOL    HW235639   0.176  13.254  10.620
77934SOL     OW35640   1.686   8.186   5.737
77934SOL    HW135641   1.712   8.274   5.711
77934SOL    HW235642   1.597   8.196   5.771
77935SOL     OW35643   6.621  10.704   5.200
77935SOL    HW135644   6.595  10.686   5.290
77935SOL    HW235645   6.585  10.631   5.150
77936SOL     OW35646  11.322   9.481   0.732
77936SOL    HW135647  11.298   9.407   0.788
77936SOL    HW235648  11.319   9.557   0.790
77937SOL     OW35649   0.970   7.942   7.368
77937SOL    HW135650   0.972   7.980   7.456
77937SOL    HW235651   1.026   7.864   7.375
77938SOL     OW35652  13.044   5.906   3.547
77938SOL    HW135653  13.022   5.999   3.548
77938SOL    HW235654  13.134   5.903   3.514
77939SOL     OW35655   8.880   0.391   1.700
77939SOL    HW135656   8.966   0.394   1.742
77939SOL    HW235657   8.893   0.335   1.623
77940SOL     OW35658   7.978   8.599   9.882
77940SOL    HW135659   7.968   8.572   9.974
77940SOL    HW235660   7.933   8.683   9.877
77941SOL     OW35661   9.689  12.412   9.292
77941SOL    HW135662   9.670  12.351   9.221
77941SOL    HW235663   9.783  12.427   9.287
77942SOL     OW35664   1.629  11.580  13.921
77942SOL    HW135665   1.653  11.575  14.014
77942SOL    HW235666   1.533  11.578  13.921
77943SOL     OW35667   6.220   1.435   6.289
77943SOL    HW135668   6.256   1.401   6.208
77943SOL    HW235669   6.128   1.453   6.269
77944SOL     OW35670  10.853   4.271  12.770
77944SOL    HW135671  10.842   4.181  12.800
77944SOL    HW235672  10.802   4.276  12.689
77945SOL     OW35673   6.240  11.642   8.668
77945SOL    HW135674   6.224  11.728   8.629
77945SOL    HW235675   6.319  11.611   8.625
77946SOL     OW35676  11.296  12.802   2.366
77946SOL    HW135677  11.297  12.736   2.436
77946SOL    HW235678  11.308  12.885   2.411
77947SOL     OW35679  14.669   7.637   2.401
77947SOL    HW135680  14.721   7.718   2.399
77947SOL    HW235681  14.615   7.642   2.322
77948SOL     OW35682   1.167   0.655   1.840
77948SOL    HW135683   1.148   0.677   1.748
77948SOL    HW235684   1.163   0.560   1.843
77949SOL     OW35685   2.634   1.201  14.680
77949SOL    HW135686   2.676   1.258  14.745
77949SOL    HW235687   2.540   1.216  14.691
77950SOL     OW35688  10.802  14.098   2.359
77950SOL    HW135689  10.721  14.137   2.327
77950SOL    HW235690  10.812  14.017   2.308
77951SOL     OW35691   6.317  12.272   7.596
77951SOL    HW135692   6.351  12.337   7.657
77951SOL    HW235693   6.255  12.321   7.542
77952SOL     OW35694   9.186   2.666  14.047
77952SOL    HW135695   9.123   2.677  14.118
77952SOL    HW235696   9.152   2.593  13.996
77953SOL     OW35697  11.175   9.712   3.464
77953SOL    HW135698  11.130   9.793   3.491
77953SOL    HW235699  11.133   9.688   3.381
77954SOL     OW35700   7.503   5.277  13.793
77954SOL    HW135701   7.437   5.208  13.793
77954SOL    HW235702   7.587   5.230  13.789
77955SOL     OW35703   3.828   2.276   2.381
77955SOL    HW135704   3.739   2.241   2.375
77955SOL    HW235705   3.846   2.279   2.475
77956SOL     OW35706   9.287   7.489   2.482
77956SOL    HW135707   9.360   7.529   2.436
77956SOL    HW235708   9.275   7.404   2.439
77957SOL     OW35709   9.704   7.450  12.839
77957SOL    HW135710   9.720   7.544  12.830
77957SOL    HW235711   9.640   7.443  12.910
77958SOL     OW35712   8.047   3.668   8.696
77958SOL    HW135713   8.101   3.740   8.664
77958SOL    HW235714   8.100   3.626   8.764
77959SOL     OW35715   0.800   1.766   9.672
77959SOL    HW135716   0.826   1.674   9.686
77959SOL    HW235717   0.756   1.791   9.753
77960SOL     OW35718   3.011  13.577   4.673
77960SOL    HW135719   2.988  13.666   4.647
77960SOL    HW235720   3.079  13.551   4.612
77961SOL     OW35721   3.629   4.303   3.837
77961SOL    HW135722   3.626   4.396   3.815
77961SOL    HW235723   3.688   4.299   3.913
77962SOL     OW35724   3.927   4.464   4.424
77962SOL    HW135725   3.987   4.429   4.359
77962SOL    HW235726   3.845   4.417   4.410
77963SOL     OW35727  12.966   7.540   8.468
77963SOL    HW135728  12.908   7.466   8.449
77963SOL    HW235729  13.027   7.541   8.394
77964SOL     OW35730  14.818  12.311   7.977
77964SOL    HW135731  14.867  12.355   7.908
77964SOL    HW235732  14.727  12.337   7.961
77965SOL     OW35733  12.371  13.089   1.168
77965SOL    HW135734  12.292  13.040   1.189
77965SOL    HW235735  12.442  13.026   1.178
77966SOL     OW35736  13.912   9.581   5.492
77966SOL    HW135737  13.913   9.527   5.571
77966SOL    HW235738  13.931   9.670   5.524
77967SOL     OW35739  10.311   1.228   4.156
77967SOL    HW135740  10.334   1.254   4.066
77967SOL    HW235741  10.390   1.248   4.207
77968SOL     OW35742   6.857   8.751   7.558
77968SOL    HW135743   6.802   8.747   7.637
77968SOL    HW235744   6.844   8.839   7.525
77969SOL     OW35745   3.407   7.350  11.165
77969SOL    HW135746   3.450   7.275  11.123
77969SOL    HW235747   3.353   7.311  11.234
77970SOL     OW35748   3.993   2.340   8.349
77970SOL    HW135749   4.054   2.320   8.420
77970SOL    HW235750   4.012   2.431   8.327
77971SOL     OW35751  10.059   5.314   5.435
77971SOL    HW135752   9.977   5.337   5.478
77971SOL    HW235753  10.096   5.245   5.489
77972SOL     OW35754  14.587   5.345   1.276
77972SOL    HW135755  14.498   5.370   1.298
77972SOL    HW235756  14.639   5.424   1.290
77973SOL     OW35757  13.343  11.859  14.836
77973SOL    HW135758  13.355  11.877   0.053
77973SOL    HW235759  13.372  11.939  14.792
77974SOL     OW35760  13.956   2.178  11.184
77974SOL    HW135761  13.944   2.088  11.212
77974SOL    HW235762  14.040   2.178  11.138
77975SOL     OW35763   3.063  12.443   5.267
77975SOL    HW135764   3.131  12.395   5.315
77975SOL    HW235765   3.102  12.461   5.182
77976SOL     OW35766   6.104   7.370  14.834
77976SOL    HW135767   6.188   7.340  14.798
77976SOL    HW235768   6.096   7.325   0.042
77977SOL     OW35769   4.033  13.988   3.350
77977SOL    HW135770   4.009  14.044   3.423
77977SOL    HW235771   4.058  13.905   3.390
77978SOL     OW35772   5.372   8.699   2.206
77978SOL    HW135773   5.377   8.619   2.155
77978SOL    HW235774   5.413   8.677   2.290
77979SOL     OW35775   3.712  10.579  12.746
77979SOL    HW135776   3.802  10.557  12.722
77979SOL    HW235777   3.659  10.548  12.672
77980SOL     OW35778  14.660   9.855   9.001
77980SOL    HW135779  14.691   9.887   9.085
77980SOL    HW235780  14.642   9.934   8.950
77981SOL     OW35781   2.096   8.120   4.113
77981SOL    HW135782   2.043   8.055   4.160
77981SOL    HW235783   2.162   8.068   4.067
77982SOL     OW35784   1.657   1.439   0.772
77982SOL    HW135785   1.636   1.508   0.709
77982SOL    HW235786   1.581   1.437   0.830
77983SOL     OW35787   0.793   5.938  12.543
77983SOL    HW135788   0.879   5.895  12.538
77983SOL    HW235789   0.740   5.891  12.478
77984SOL     OW35790  14.666   7.341   4.456
77984SOL    HW135791  14.672   7.437   4.452
77984SOL    HW235792  14.713   7.311   4.378
77985SOL     OW35793  13.440  12.059   0.892
77985SOL    HW135794  13.503  12.130   0.906
77985SOL    HW235795  13.481  12.003   0.825
77986SOL     OW35796   5.022  13.689   1.256
77986SOL    HW135797   4.975  13.614   1.290
77986SOL    HW235798   5.034  13.669   1.163
77987SOL     OW35799  12.718   5.103  12.667
77987SOL    HW135800  12.704   5.053  12.586
77987SOL    HW235801  12.743   5.191  12.636
77988SOL     OW35802   0.060   1.851  11.751
77988SOL    HW135803  14.853   1.805  11.745
77988SOL    HW235804   0.103   1.814  11.828
77989SOL     OW35805   4.582   4.019   4.052
77989SOL    HW135806   4.490   4.044   4.041
77989SOL    HW235807   4.623   4.041   3.968
77990SOL     OW35808  10.980  12.874  13.432
77990SOL    HW135809  11.025  12.941  13.482
77990SOL    HW235810  10.924  12.830  13.496
77991SOL     OW35811   2.344   7.382  12.853
77991SOL    HW135812   2.286   7.398  12.778
77991SOL    HW235813   2.416   7.444  12.841
77992SOL     OW35814   8.798  13.465   0.266
77992SOL    HW135815   8.785  13.467   0.171
77992SOL    HW235816   8.715  13.432   0.301
77993SOL     OW35817   0.648  10.773   8.042
77993SOL    HW135818   0.692  10.857   8.033
77993SOL    HW235819   0.640  10.741   7.952
77994SOL     OW35820   6.136   5.475   2.426
77994SOL    HW135821   6.226   5.448   2.442
77994SOL    HW235822   6.101   5.407   2.367
77995SOL     OW35823  11.076  10.011   9.389
77995SOL    HW135824  11.014  10.073   9.352
77995SOL    HW235825  11.154  10.018   9.334
77996SOL     OW35826   8.200   2.878  14.680
77996SOL    HW135827   8.192   2.785  14.704
77996SOL    HW235828   8.293   2.897  14.690
77997SOL     OW35829   1.427  14.652   6.901
77997SOL    HW135830   1.354  14.705   6.932
77997SOL    HW235831   1.399  14.562   6.916
77998SOL     OW35832  13.903  10.847  11.271
77998SOL    HW135833  13.882  10.893  11.353
77998SOL    HW235834  13.987  10.884  11.243
77999SOL     OW35835   7.670   1.481   0.412
77999SOL    HW135836   7.740   1.544   0.427
77999SOL    HW235837   7.684   1.450   0.322
78000SOL     OW35838   4.436   2.611   9.712
78000SOL    HW135839   4.431   2.707   9.712
78000SOL    HW235840   4.351   2.582   9.680
78001SOL     OW35841  12.442   5.633   8.194
78001SOL    HW135842  12.487   5.557   8.231
78001SOL    HW235843  12.438   5.696   8.266
78002SOL     OW35844  14.068   4.091  11.769
78002SOL    HW135845  14.100   4.180  11.778
78002SOL    HW235846  13.999   4.083  11.835
78003SOL     OW35847  14.429   4.713   9.609
78003SOL    HW135848  14.502   4.765   9.575
78003SOL    HW235849  14.391   4.672   9.533
78004SOL     OW35850  10.559   4.299   5.945
78004SOL    HW135851  10.491   4.314   6.011
78004SOL    HW235852  10.562   4.381   5.895
78005SOL     OW35853   4.930  10.578   5.612
78005SOL    HW135854   4.930  10.672   5.628
78005SOL    HW235855   5.017  10.549   5.640
78006SOL     OW35856  14.681   3.007   4.542
78006SOL    HW135857  14.627   2.934   4.512
78006SOL    HW235858  14.659   3.015   4.635
78007SOL     OW35859   3.613  11.445   9.727
78007SOL    HW135860   3.574  11.457   9.640
78007SOL    HW235861   3.540  11.455   9.788
78008SOL     OW35862   8.001  13.762   3.283
78008SOL    HW135863   7.996  13.749   3.378
78008SOL    HW235864   8.074  13.706   3.256
78009SOL     OW35865   0.528  10.306  13.870
78009SOL    HW135866   0.598  10.296  13.934
78009SOL    HW235867   0.571  10.295  13.785
78010SOL     OW35868   2.824  11.230   0.250
78010SOL    HW135869   2.791  11.242   0.161
78010SOL    HW235870   2.779  11.151   0.282
78011SOL     OW35871   2.439   7.227  13.364
78011SOL    HW135872   2.525   7.200  13.395
78011SOL    HW235873   2.379   7.203  13.435
78012SOL     OW35874  13.398   7.777  13.526
78012SOL    HW135875  13.357   7.748  13.445
78012SOL    HW235876  13.363   7.718  13.593
78013SOL     OW35877   6.093   9.462   8.302
78013SOL    HW135878   6.061   9.411   8.228
78013SOL    HW235879   6.116   9.547   8.264
78014SOL     OW35880  12.832   6.052  14.387
78014SOL    HW135881  12.847   6.022  14.477
78014SOL    HW235882  12.738   6.042  14.374
78015SOL     OW35883   5.404  14.000   4.870
78015SOL    HW135884   5.402  13.974   4.778
78015SOL    HW235885   5.477  14.061   4.876
78016SOL     OW35886  11.774   7.095   8.132
78016SOL    HW135887  11.789   7.080   8.226
78016SOL    HW235888  11.706   7.163   8.130
78017SOL     OW35889   3.268  11.880   3.006
78017SOL    HW135890   3.274  11.825   2.928
78017SOL    HW235891   3.324  11.836   3.071
78018SOL     OW35892   2.063   0.059   0.022
78018SOL    HW135893   2.108  14.851   0.036
78018SOL    HW235894   2.017   0.048  14.815
78019SOL     OW35895  14.314   3.553   2.811
78019SOL    HW135896  14.409   3.557   2.803
78019SOL    HW235897  14.283   3.637   2.778
78020SOL     OW35898   8.813  10.853   6.389
78020SOL    HW135899   8.814  10.758   6.377
78020SOL    HW235900   8.881  10.870   6.454
78021SOL     OW35901   3.348  10.661   8.517
78021SOL    HW135902   3.393  10.579   8.538
78021SOL    HW235903   3.317  10.694   8.602
78022SOL     OW35904   8.519   5.214   9.661
78022SOL    HW135905   8.440   5.203   9.714
78022SOL    HW235906   8.574   5.139   9.685
78023SOL     OW35907   7.790   8.330   3.305
78023SOL    HW135908   7.776   8.423   3.293
78023SOL    HW235909   7.702   8.291   3.304
78024SOL     OW35910   6.588   4.144   8.685
78024SOL    HW135911   6.588   4.066   8.629
78024SOL    HW235912   6.654   4.125   8.751
78025SOL     OW35913   7.942  11.372   3.176
78025SOL    HW135914   7.925  11.278   3.176
78025SOL    HW235915   7.901  11.404   3.096
78026SOL     OW35916   1.707   7.181   9.087
78026SOL    HW135917   1.774   7.165   9.021
78026SOL    HW235918   1.718   7.110   9.150
78027SOL     OW35919  14.045  10.450   6.638
78027SOL    HW135920  14.137  10.464   6.660
78027SOL    HW235921  14.011  10.537   6.616
78028SOL     OW35922  12.658  12.459  11.394
78028SOL    HW135923  12.672  12.552  11.410
78028SOL    HW235924  12.608  12.455  11.312
78029SOL     OW35925  13.663   7.954   9.371
78029SOL    HW135926  13.576   7.993   9.379
78029SOL    HW235927  13.669   7.927   9.279
78030SOL     OW35928   9.313   9.702  14.461
78030SOL    HW135929   9.300   9.610  14.438
78030SOL    HW235930   9.226   9.742  14.454
78031SOL     OW35931  12.326   9.927   1.837
78031SOL    HW135932  12.331   9.848   1.783
78031SOL    HW235933  12.301   9.996   1.776
78032SOL     OW35934  10.709   2.646   5.563
78032SOL    HW135935  10.690   2.658   5.656
78032SOL    HW235936  10.791   2.695   5.550
78033SOL     OW35937  10.599   6.559  13.486
78033SOL    HW135938  10.642   6.599  13.562
78033SOL    HW235939  10.655   6.583  13.412
78034SOL     OW35940  13.984   4.680  12.977
78034SOL    HW135941  14.036   4.750  12.937
78034SOL    HW235942  13.899   4.684  12.933
78035SOL     OW35943   0.773   8.982  11.231
78035SOL    HW135944   0.763   8.888  11.246
78035SOL    HW235945   0.719   9.000  11.154
78036SOL     OW35946   3.614   7.919   6.496
78036SOL    HW135947   3.586   8.010   6.510
78036SOL    HW235948   3.533   7.873   6.473
78037SOL     OW35949   4.718   8.724   5.436
78037SOL    HW135950   4.787   8.695   5.496
78037SOL    HW235951   4.713   8.819   5.449
78038SOL     OW35952   6.256   4.803  13.779
78038SOL    HW135953   6.325   4.756  13.733
78038SOL    HW235954   6.247   4.886  13.732
78039SOL     OW35955  10.596   4.608  12.963
78039SOL    HW135956  10.677   4.627  12.915
78039SOL    HW235957  10.540   4.684  12.947
78040SOL     OW35958   5.677   6.171   8.308
78040SOL    HW135959   5.715   6.226   8.376
78040SOL    HW235960   5.584   6.166   8.330
78041SOL     OW35961  12.179   4.182   7.352
78041SOL    HW135962  12.099   4.228   7.378
78041SOL    HW235963  12.241   4.252   7.332
78042SOL     OW35964  14.046  13.657   0.875
78042SOL    HW135965  14.038  13.632   0.783
78042SOL    HW235966  14.108  13.730   0.875
78043SOL     OW35967   8.640  10.150  12.835
78043SOL    HW135968   8.672  10.185  12.919
78043SOL    HW235969   8.586  10.220  12.799
78044SOL     OW35970   9.954   4.687   7.489
78044SOL    HW135971   9.917   4.753   7.432
78044SOL    HW235972   9.926   4.713   7.577
78045SOL     OW35973   0.095   0.529  11.152
78045SOL    HW135974   0.129   0.528  11.242
78045SOL    HW235975   0.151   0.592  11.106
78046SOL     OW35976   4.659   9.089   2.447
78046SOL    HW135977   4.690   9.030   2.515
78046SOL    HW235978   4.701   9.173   2.467
78047SOL     OW35979   0.252   6.021   4.434
78047SOL    HW135980   0.281   5.946   4.383
78047SOL    HW235981   0.320   6.087   4.421
78048SOL     OW35982  10.653  12.996  11.318
78048SOL    HW135983  10.629  12.993  11.225
78048SOL    HW235984  10.739  13.037  11.319
78049SOL     OW35985   4.684  13.386   7.272
78049SOL    HW135986   4.658  13.458   7.215
78049SOL    HW235987   4.682  13.309   7.216
78050SOL     OW35988  12.664  14.638   2.180
78050SOL    HW135989  12.730  14.706   2.192
78050SOL    HW235990  12.653  14.599   2.267
78051SOL     OW35991  10.605   1.478  13.321
78051SOL    HW135992  10.627   1.511  13.408
78051SOL    HW235993  10.523   1.521  13.298
78052SOL     OW35994   3.640  13.238  14.731
78052SOL    HW135995   3.645  13.214  14.639
78052SOL    HW235996   3.567  13.299  14.736
78053SOL     OW35997  11.339   1.613   9.246
78053SOL    HW135998  11.425   1.579   9.270
78053SOL    HW235999  11.323   1.579   9.158
78054SOL     OW36000   9.306   1.032   3.176
78054SOL    HW136001   9.379   1.058   3.233
78054SOL    HW236002   9.243   0.989   3.234
78055SOL     OW36003   5.942   4.030  14.661
78055SOL    HW136004   6.009   4.046  14.595
78055SOL    HW236005   5.987   4.040  14.745
78056SOL     OW36006  13.488  13.024   5.320
78056SOL    HW136007  13.424  13.083   5.279
78056SOL    HW236008  13.436  12.950   5.351
78057SOL     OW36009   1.500  13.758  12.456
78057SOL    HW136010   1.547  13.738  12.537
78057SOL    HW236011   1.501  13.676  12.407
78058SOL     OW36012   7.319   1.373   3.105
78058SOL    HW136013   7.361   1.316   3.041
78058SOL    HW236014   7.225   1.356   3.095
78059SOL     OW36015   2.942   5.660  13.033
78059SOL    HW136016   3.037   5.656  13.023
78059SOL    HW236017   2.924   5.599  13.105
78060SOL     OW36018   0.604   3.753   5.084
78060SOL    HW136019   0.519   3.772   5.045
78060SOL    HW236020   0.665   3.752   5.010
78061SOL     OW36021   2.915   3.381  13.979
78061SOL    HW136022   2.902   3.333  14.061
78061SOL    HW236023   3.009   3.400  13.977
78062SOL     OW36024  11.616   3.836   3.126
78062SOL    HW136025  11.577   3.769   3.181
78062SOL    HW236026  11.710   3.816   3.127
78063SOL     OW36027   2.465   0.785   0.765
78063SOL    HW136028   2.513   0.715   0.720
78063SOL    HW236029   2.463   0.757   0.856
78064SOL     OW36030   5.639   4.959   4.149
78064SOL    HW136031   5.731   4.943   4.128
78064SOL    HW236032   5.599   4.872   4.150
78065SOL     OW36033  14.407  13.898  14.820
78065SOL    HW136034  14.424  13.805  14.814
78065SOL    HW236035  14.340  13.915  14.754
78066SOL     OW36036   6.211   6.867   5.639
78066SOL    HW136037   6.240   6.897   5.553
78066SOL    HW236038   6.117   6.886   5.641
78067SOL     OW36039   1.671  13.927  10.501
78067SOL    HW136040   1.577  13.940  10.511
78067SOL    HW236041   1.708  13.954  10.585
78068SOL     OW36042   2.102   3.568  13.954
78068SOL    HW136043   2.088   3.650  14.001
78068SOL    HW236044   2.014   3.534  13.938
78069SOL     OW36045  12.223   7.997   6.651
78069SOL    HW136046  12.305   7.948   6.647
78069SOL    HW236047  12.160   7.943   6.603
78070SOL     OW36048  11.615  13.841  14.537
78070SOL    HW136049  11.675  13.838  14.462
78070SOL    HW236050  11.652  13.778  14.599
78071SOL     OW36051   8.111  10.776   9.005
78071SOL    HW136052   8.094  10.747   9.094
78071SOL    HW236053   8.141  10.698   8.959
78072SOL     OW36054   0.304   0.075   5.219
78072SOL    HW136055   0.254   0.067   5.300
78072SOL    HW236056   0.395   0.056   5.245
78073SOL     OW36057  11.402  14.382  10.820
78073SOL    HW136058  11.433  14.462  10.777
78073SOL    HW236059  11.435  14.311  10.765
78074SOL     OW36060  12.380   3.700   1.928
78074SOL    HW136061  12.304   3.723   1.874
78074SOL    HW236062  12.420   3.626   1.882
78075SOL     OW36063  12.111   4.838   9.970
78075SOL    HW136064  12.119   4.930   9.996
78075SOL    HW236065  12.053   4.839   9.894
78076SOL     OW36066   1.778   2.323   1.011
78076SOL    HW136067   1.791   2.297   1.103
78076SOL    HW236068   1.851   2.281   0.965
78077SOL     OW36069   3.943   6.677   7.297
78077SOL    HW136070   4.020   6.699   7.244
78077SOL    HW236071   3.956   6.586   7.322
78078SOL     OW36072  10.977   4.386   5.264
78078SOL    HW136073  11.020   4.301   5.274
78078SOL    HW236074  11.048   4.449   5.275
78079SOL     OW36075   5.750   4.083   3.015
78079SOL    HW136076   5.841   4.104   3.038
78079SOL    HW236077   5.711   4.168   2.995
78080SOL     OW36078   3.959  10.149  13.544
78080SOL    HW136079   4.019  10.222  13.530
78080SOL    HW236080   3.872  10.184  13.522
78081SOL     OW36081   1.788   6.265  10.578
78081SOL    HW136082   1.753   6.195  10.523
78081SOL    HW236083   1.868   6.227  10.616
78082SOL     OW36084   0.377  12.218   9.351
78082SOL    HW136085   0.356  12.196   9.441
78082SOL    HW236086   0.472  12.229   9.350
78083SOL     OW36087   3.151   2.409   5.018
78083SOL    HW136088   3.160   2.452   4.933
78083SOL    HW236089   3.170   2.479   5.081
78084SOL     OW36090   9.059   9.913   6.944
78084SOL    HW136091   9.073   9.837   7.001
78084SOL    HW236092   8.964   9.926   6.945
78085SOL     OW36093  12.634   6.010   4.623
78085SOL    HW136094  12.586   5.938   4.664
78085SOL    HW236095  12.707   5.967   4.577
78086SOL     OW36096  13.371  12.126  12.494
78086SOL    HW136097  13.426  12.180  12.551
78086SOL    HW236098  13.362  12.176  12.413
78087SOL     OW36099   3.515   2.428   6.072
78087SOL    HW136100   3.469   2.380   6.141
78087SOL    HW236101   3.492   2.519   6.087
78088SOL     OW36102   1.502   4.987   1.052
78088SOL    HW136103   1.442   4.997   1.126
78088SOL    HW236104   1.489   5.066   0.999
78089SOL     OW36105  12.282   1.367   8.937
78089SOL    HW136106  12.329   1.388   8.857
78089SOL    HW236107  12.215   1.304   8.910
78090SOL     OW36108   9.724   1.129  10.870
78090SOL    HW136109   9.739   1.042  10.833
78090SOL    HW236110   9.677   1.177  10.802
78091SOL     OW36111   4.322   6.951  14.866
78091SOL    HW136112   4.283   6.986   0.070
78091SOL    HW236113   4.321   6.856   0.001
78092SOL     OW36114   8.338   5.397   3.473
78092SOL    HW136115   8.254   5.394   3.426
78092SOL    HW236116   8.402   5.364   3.409
78093SOL     OW36117  13.178  11.718   8.384
78093SOL    HW136118  13.185  11.685   8.294
78093SOL    HW236119  13.255  11.682   8.428
78094SOL     OW36120   3.135  12.000  10.631
78094SOL    HW136121   3.071  12.067  10.606
78094SOL    HW236122   3.181  12.039  10.705
78095SOL     OW36123  12.983   9.778   6.486
78095SOL    HW136124  13.053   9.715   6.498
78095SOL    HW236125  12.984   9.830   6.566
78096SOL     OW36126   6.916   6.854   6.340
78096SOL    HW136127   6.909   6.946   6.364
78096SOL    HW236128   6.922   6.855   6.244
78097SOL     OW36129   5.667   9.121   9.012
78097SOL    HW136130   5.694   9.030   8.999
78097SOL    HW236131   5.743   9.163   9.053
78098SOL     OW36132   1.149   3.909  12.514
78098SOL    HW136133   1.103   3.939  12.435
78098SOL    HW236134   1.191   3.827  12.488
78099SOL     OW36135  10.855   7.721   5.027
78099SOL    HW136136  10.848   7.699   4.935
78099SOL    HW236137  10.903   7.647   5.066
78100SOL     OW36138   1.132   1.641   1.531
78100SOL    HW136139   1.181   1.559   1.529
78100SOL    HW236140   1.185   1.701   1.478
78101SOL     OW36141  13.932  11.853   7.665
78101SOL    HW136142  14.008  11.857   7.723
78101SOL    HW236143  13.932  11.936   7.618
78102SOL     OW36144   9.067   2.592   2.515
78102SOL    HW136145   9.120   2.649   2.571
78102SOL    HW236146   9.013   2.653   2.463
78103SOL     OW36147  10.831  12.282   9.693
78103SOL    HW136148  10.852  12.368   9.657
78103SOL    HW236149  10.741  12.290   9.725
78104SOL     OW36150   9.807   8.368  12.121
78104SOL    HW136151   9.805   8.325  12.035
78104SOL    HW236152   9.715   8.380  12.143
78105SOL     OW36153  13.594  11.362   1.254
78105SOL    HW136154  13.624  11.309   1.328
78105SOL    HW236155  13.638  11.446   1.267
78106SOL     OW36156  12.598   4.815   4.646
78106SOL    HW136157  12.610   4.813   4.740
78106SOL    HW236158  12.665   4.875   4.614
78107SOL     OW36159   4.013  12.893   5.339
78107SOL    HW136160   3.977  12.977   5.369
78107SOL    HW236161   4.078  12.917   5.273
78108SOL     OW36162  14.784   1.281   8.706
78108SOL    HW136163  14.858   1.246   8.658
78108SOL    HW236164  14.822   1.349   8.762
78109SOL     OW36165   8.510   7.823   3.526
78109SOL    HW136166   8.522   7.899   3.584
78109SOL    HW236167   8.495   7.861   3.440
78110SOL     OW36168   0.010   7.499   5.959
78110SOL    HW136169  14.839   7.577   5.989
78110SOL    HW236170   0.042   7.522   5.872
78111SOL     OW36171  10.100   6.556   9.536
78111SOL    HW136172  10.021   6.510   9.565
78111SOL    HW236173  10.121   6.518   9.451
78112SOL     OW36174  11.744   1.397  14.110
78112SOL    HW136175  11.681   1.409  14.039
78112SOL    HW236176  11.801   1.326  14.080
78113SOL     OW36177   1.254  10.906  14.056
78113SOL    HW136178   1.190  10.873  13.993
78113SOL    HW236179   1.283  10.990  14.019
78114SOL     OW36180  12.763  12.685   3.768
78114SOL    HW136181  12.789  12.654   3.855
78114SOL    HW236182  12.845  12.719   3.730
78115SOL     OW36183  13.511  10.392  10.415
78115SOL    HW136184  13.482  10.344  10.338
78115SOL    HW236185  13.478  10.342  10.489
78116SOL     OW36186  10.848  10.698  13.621
78116SOL    HW136187  10.814  10.620  13.577
78116SOL    HW236188  10.769  10.746  13.648
78117SOL     OW36189   8.373  10.279   2.219
78117SOL    HW136190   8.287  10.311   2.191
78117SOL    HW236191   8.410  10.238   2.141
78118SOL     OW36192  10.520   3.132   1.072
78118SOL    HW136193  10.452   3.091   1.126
78118SOL    HW236194  10.570   3.058   1.037
78119SOL     OW36195   9.181   4.527  13.784
78119SOL    HW136196   9.165   4.544  13.876
78119SOL    HW236197   9.175   4.432  13.775
78120SOL     OW36198  11.806   2.229   0.500
78120SOL    HW136199  11.747   2.217   0.574
78120SOL    HW236200  11.754   2.277   0.436
78121SOL     OW36201   2.308   0.451  13.581
78121SOL    HW136202   2.391   0.431  13.537
78121SOL    HW236203   2.310   0.545  13.596
78122SOL     OW36204  14.256   4.405   7.261
78122SOL    HW136205  14.304   4.485   7.244
78122SOL    HW236206  14.274   4.349   7.186
78123SOL     OW36207   7.819   4.380   4.001
78123SOL    HW136208   7.784   4.328   3.929
78123SOL    HW236209   7.913   4.360   4.001
78124SOL     OW36210   1.775   0.931   9.563
78124SOL    HW136211   1.836   0.952   9.492
78124SOL    HW236212   1.742   1.016   9.592
78125SOL     OW36213  14.055   2.810   8.767
78125SOL    HW136214  14.103   2.771   8.840
78125SOL    HW236215  13.971   2.838   8.804
78126SOL     OW36216   1.199  13.332   6.126
78126SOL    HW136217   1.289  13.353   6.102
78126SOL    HW236218   1.150  13.413   6.109
78127SOL     OW36219   4.747  12.774   9.796
78127SOL    HW136220   4.660  12.758   9.759
78127SOL    HW236221   4.808  12.743   9.730
78128SOL     OW36222   2.728   7.718   8.044
78128SOL    HW136223   2.782   7.793   8.019
78128SOL    HW236224   2.749   7.651   7.979
78129SOL     OW36225   7.393  14.653  14.114
78129SOL    HW136226   7.390  14.574  14.167
78129SOL    HW236227   7.476  14.648  14.068
78130SOL     OW36228  12.600   3.822   7.413
78130SOL    HW136229  12.607   3.810   7.507
78130SOL    HW236230  12.578   3.915   7.402
78131SOL     OW36231  10.718  13.037   6.259
78131SOL    HW136232  10.689  13.128   6.249
78131SOL    HW236233  10.775  13.021   6.184
78132SOL     OW36234   9.707   9.120   0.836
78132SOL    HW136235   9.684   9.191   0.776
78132SOL    HW236236   9.660   9.043   0.801
78133SOL     OW36237   6.408   7.347   6.135
78133SOL    HW136238   6.393   7.363   6.228
78133SOL    HW236239   6.356   7.414   6.091
78134SOL     OW36240   0.319   1.873   3.707
78134SOL    HW136241   0.357   1.825   3.634
78134SOL    HW236242   0.234   1.831   3.723
78135SOL     OW36243  11.150   4.664   6.318
78135SOL    HW136244  11.136   4.675   6.224
78135SOL    HW236245  11.191   4.578   6.326
78136SOL     OW36246   3.177   3.484  11.522
78136SOL    HW136247   3.193   3.438  11.605
78136SOL    HW236248   3.223   3.567  11.530
78137SOL     OW36249   7.356  10.033   9.145
78137SOL    HW136250   7.308  10.019   9.064
78137SOL    HW236251   7.357   9.948   9.189
78138SOL     OW36252  13.140   0.693   3.352
78138SOL    HW136253  13.212   0.738   3.307
78138SOL    HW236254  13.101   0.760   3.408
78139SOL     OW36255   0.901  12.153   8.842
78139SOL    HW136256   0.899  12.068   8.886
78139SOL    HW236257   0.987  12.157   8.802
78140SOL     OW36258   5.441   1.866  12.239
78140SOL    HW136259   5.458   1.825  12.154
78140SOL    HW236260   5.523   1.857  12.287
78141SOL     OW36261  11.981   4.057  12.519
78141SOL    HW136262  12.000   3.965  12.540
78141SOL    HW236263  12.063   4.103  12.537
78142SOL     OW36264  14.068  13.841   4.200
78142SOL    HW136265  13.982  13.881   4.216
78142SOL    HW236266  14.114  13.905   4.146
78143SOL     OW36267   3.389   8.946   3.560
78143SOL    HW136268   3.426   9.006   3.624
78143SOL    HW236269   3.462   8.924   3.502
78144SOL     OW36270  14.030  12.935   9.571
78144SOL    HW136271  14.045  12.959   9.480
78144SOL    HW236272  13.978  13.007   9.607
78145SOL     OW36273   7.308   9.297   0.447
78145SOL    HW136274   7.294   9.389   0.469
78145SOL    HW236275   7.249   9.280   0.374
78146SOL     OW36276   3.252   9.953  12.016
78146SOL    HW136277   3.320   9.964  11.949
78146SOL    HW236278   3.170   9.972  11.970
78147SOL     OW36279  10.675   5.711  14.236
78147SOL    HW136280  10.686   5.621  14.205
78147SOL    HW236281  10.608   5.748  14.178
78148SOL     OW36282   0.526   6.024   2.079
78148SOL    HW136283   0.508   6.118   2.089
78148SOL    HW236284   0.619   6.020   2.054
78149SOL     OW36285   7.052  10.351   5.721
78149SOL    HW136286   7.135  10.307   5.738
78149SOL    HW236287   6.986  10.288   5.749
78150SOL     OW36288   5.324   8.464   7.738
78150SOL    HW136289   5.404   8.478   7.788
78150SOL    HW236290   5.319   8.369   7.727
78151SOL     OW36291   8.317  10.926  11.470
78151SOL    HW136292   8.272  10.845  11.444
78151SOL    HW236293   8.391  10.932  11.411
78152SOL     OW36294   6.996   7.353  13.027
78152SOL    HW136295   6.923   7.300  13.058
78152SOL    HW236296   6.963   7.442  13.024
78153SOL     OW36297   1.532   0.417   2.990
78153SOL    HW136298   1.553   0.426   2.897
78153SOL    HW236299   1.534   0.507   3.023
78154SOL     OW36300   3.791   4.594   1.957
78154SOL    HW136301   3.815   4.679   1.993
78154SOL    HW236302   3.874   4.558   1.924
78155SOL     OW36303  12.935   9.711  10.288
78155SOL    HW136304  12.980   9.692  10.206
78155SOL    HW236305  13.005   9.735  10.349
78156SOL     OW36306   8.785  14.388   0.154
78156SOL    HW136307   8.691  14.406   0.149
78156SOL    HW236308   8.821  14.462   0.204
78157SOL     OW36309   4.585  14.230   0.720
78157SOL    HW136310   4.539  14.156   0.760
78157SOL    HW236311   4.593  14.294   0.791
78158SOL     OW36312  10.290   9.957  10.022
78158SOL    HW136313  10.267   9.916  10.105
78158SOL    HW236314  10.249  10.043  10.026
78159SOL     OW36315  12.528   5.669   5.580
78159SOL    HW136316  12.497   5.581   5.562
78159SOL    HW236317  12.560   5.701   5.496
78160SOL     OW36318  12.726   8.600   4.895
78160SOL    HW136319  12.660   8.559   4.951
78160SOL    HW236320  12.810   8.572   4.932
78161SOL     OW36321   3.449  13.764   6.790
78161SOL    HW136322   3.491  13.736   6.872
78161SOL    HW236323   3.357  13.741   6.801
78162SOL     OW36324  13.443   9.102   6.049
78162SOL    HW136325  13.410   9.187   6.080
78162SOL    HW236326  13.538   9.113   6.045
78163SOL     OW36327  11.336   8.370   8.041
78163SOL    HW136328  11.375   8.395   7.958
78163SOL    HW236329  11.280   8.295   8.020
78164SOL     OW36330   7.760  13.687  14.299
78164SOL    HW136331   7.772  13.773  14.259
78164SOL    HW236332   7.745  13.705  14.391
78165SOL     OW36333  11.010   8.809   5.295
78165SOL    HW136334  11.018   8.727   5.343
78165SOL    HW236335  10.954   8.863   5.350
78166SOL     OW36336  12.378   5.761   7.187
78166SOL    HW136337  12.406   5.672   7.207
78166SOL    HW236338  12.288   5.765   7.219
78167SOL     OW36339   4.993   1.020   6.701
78167SOL    HW136340   4.990   1.046   6.609
78167SOL    HW236341   4.941   1.085   6.746
78168SOL     OW36342   3.645   0.167   5.675
78168SOL    HW136343   3.712   0.214   5.725
78168SOL    HW236344   3.614   0.231   5.611
78169SOL     OW36345   4.069   7.533   8.656
78169SOL    HW136346   3.975   7.523   8.674
78169SOL    HW236347   4.073   7.598   8.586
78170SOL     OW36348  14.512   0.712   8.755
78170SOL    HW136349  14.592   0.748   8.793
78170SOL    HW236350  14.542   0.658   8.682
78171SOL     OW36351  11.627  11.503   9.982
78171SOL    HW136352  11.574  11.469   9.910
78171SOL    HW236353  11.675  11.426  10.015
78172SOL     OW36354  13.414   7.490  11.291
78172SOL    HW136355  13.423   7.395  11.293
78172SOL    HW236356  13.504   7.523  11.301
78173SOL     OW36357   1.282  11.773  11.545
78173SOL    HW136358   1.228  11.704  11.584
78173SOL    HW236359   1.219  11.839  11.516
78174SOL     OW36360  14.709   8.321   3.475
78174SOL    HW136361  14.647   8.250   3.491
78174SOL    HW236362  14.771   8.315   3.549
78175SOL     OW36363  14.328   3.118   6.904
78175SOL    HW136364  14.393   3.181   6.873
78175SOL    HW236365  14.361   3.089   6.989
78176SOL     OW36366   7.147   3.488   3.198
78176SOL    HW136367   7.139   3.579   3.227
78176SOL    HW236368   7.128   3.491   3.104
78177SOL     OW36369  13.532   0.109  12.986
78177SOL    HW136370  13.607   0.068  13.029
78177SOL    HW236371  13.565   0.192  12.953
78178SOL     OW36372   3.192   4.911  13.392
78178SOL    HW136373   3.249   4.972  13.345
78178SOL    HW236374   3.191   4.832  13.338
78179SOL     OW36375  11.333  10.638   4.538
78179SOL    HW136376  11.322  10.689   4.458
78179SOL    HW236377  11.367  10.701   4.602
78180SOL     OW36378   4.794  14.070  12.074
78180SOL    HW136379   4.701  14.083  12.056
78180SOL    HW236380   4.810  13.977  12.059
78181SOL     OW36381   8.426   2.665   5.544
78181SOL    HW136382   8.388   2.604   5.481
78181SOL    HW236383   8.517   2.637   5.554
78182SOL     OW36384   2.118   0.174   6.285
78182SOL    HW136385   2.137   0.203   6.195
78182SOL    HW236386   2.032   0.133   6.278
78183SOL     OW36387   7.110   1.231   8.689
78183SOL    HW136388   7.024   1.222   8.732
78183SOL    HW236389   7.115   1.322   8.663
78184SOL     OW36390   3.844   8.760   9.980
78184SOL    HW136391   3.844   8.762   9.884
78184SOL    HW236392   3.896   8.837  10.005
78185SOL     OW36393  13.480   6.831   1.629
78185SOL    HW136394  13.450   6.742   1.612
78185SOL    HW236395  13.549   6.845   1.564
78186SOL     OW36396   0.368   2.876   4.472
78186SOL    HW136397   0.462   2.861   4.477
78186SOL    HW236398   0.359   2.972   4.469
78187SOL     OW36399   0.435   0.019   6.401
78187SOL    HW136400   0.430   0.114   6.405
78187SOL    HW236401   0.504  14.872   6.463
78188SOL     OW36402  11.793   6.258   4.448
78188SOL    HW136403  11.870   6.214   4.411
78188SOL    HW236404  11.765   6.201   4.520
78189SOL     OW36405   9.218  10.594   1.615
78189SOL    HW136406   9.137  10.571   1.661
78189SOL    HW236407   9.288  10.566   1.673
78190SOL     OW36408   8.365   8.320   8.208
78190SOL    HW136409   8.296   8.293   8.268
78190SOL    HW236410   8.321   8.332   8.124
78191SOL     OW36411   4.921   4.496  11.793
78191SOL    HW136412   4.983   4.435  11.752
78191SOL    HW236413   4.838   4.448  11.795
78192SOL     OW36414  13.321   6.030  10.889
78192SOL    HW136415  13.375   5.952  10.893
78192SOL    HW236416  13.371   6.097  10.934
78193SOL     OW36417   0.336   2.468   4.041
78193SOL    HW136418   0.250   2.486   4.004
78193SOL    HW236419   0.333   2.506   4.129
78194SOL     OW36420   0.035   4.403   1.414
78194SOL    HW136421   0.067   4.348   1.485
78194SOL    HW236422   0.087   4.378   1.338
78195SOL     OW36423   7.259   6.656   4.684
78195SOL    HW136424   7.182   6.618   4.643
78195SOL    HW236425   7.242   6.650   4.778
78196SOL     OW36426   6.453  14.685  14.497
78196SOL    HW136427   6.391  14.632  14.547
78196SOL    HW236428   6.539  14.646  14.515
78197SOL     OW36429   2.559   7.279  11.398
78197SOL    HW136430   2.605   7.329  11.466
78197SOL    HW236431   2.624   7.268  11.328
78198SOL     OW36432   2.563   5.336   9.095
78198SOL    HW136433   2.537   5.250   9.060
78198SOL    HW236434   2.564   5.393   9.018
78199SOL     OW36435   7.770   2.763   1.103
78199SOL    HW136436   7.838   2.804   1.049
78199SOL    HW236437   7.742   2.831   1.163
78200SOL     OW36438  14.714   1.671   4.549
78200SOL    HW136439  14.795   1.696   4.593
78200SOL    HW236440  14.741   1.646   4.461
78201SOL     OW36441   9.799  11.370   8.873
78201SOL    HW136442   9.891  11.365   8.899
78201SOL    HW236443   9.755  11.307   8.931
78202SOL     OW36444   3.437   5.978  14.190
78202SOL    HW136445   3.526   5.997  14.222
78202SOL    HW236446   3.420   6.046  14.125
78203SOL     OW36447   5.494   3.722   5.078
78203SOL    HW136448   5.447   3.692   5.155
78203SOL    HW236449   5.587   3.714   5.102
78204SOL     OW36450   7.314  12.827   7.472
78204SOL    HW136451   7.386  12.841   7.534
78204SOL    HW236452   7.321  12.735   7.448
78205SOL     OW36453  13.473   9.530   9.372
78205SOL    HW136454  13.487   9.603   9.433
78205SOL    HW236455  13.461   9.454   9.429
78206SOL     OW36456   3.201  11.746  14.405
78206SOL    HW136457   3.122  11.761  14.456
78206SOL    HW236458   3.193  11.656  14.374
78207SOL     OW36459   5.970  14.446   5.857
78207SOL    HW136460   6.032  14.399   5.912
78207SOL    HW236461   5.931  14.511   5.915
78208SOL     OW36462  10.725   3.645   2.204
78208SOL    HW136463  10.721   3.556   2.169
78208SOL    HW236464  10.634   3.668   2.223
78209SOL     OW36465   5.646   7.431  10.722
78209SOL    HW136466   5.591   7.426  10.801
78209SOL    HW236467   5.587   7.466  10.655
78210SOL     OW36468   6.229   2.701  13.893
78210SOL    HW136469   6.256   2.776  13.840
78210SOL    HW236470   6.266   2.625  13.848
78211SOL     OW36471   2.877   4.057   4.431
78211SOL    HW136472   2.912   3.987   4.487
78211SOL    HW236473   2.832   4.116   4.491
78212SOL     OW36474  10.821   0.952   2.081
78212SOL    HW136475  10.753   0.998   2.032
78212SOL    HW236476  10.896   0.949   2.021
78213SOL     OW36477   3.299  11.067   5.507
78213SOL    HW136478   3.255  10.982   5.508
78213SOL    HW236479   3.370  11.056   5.443
78214SOL     OW36480  11.943  14.481   8.349
78214SOL    HW136481  12.027  14.500   8.306
78214SOL    HW236482  11.912  14.567   8.378
78215SOL     OW36483   0.801   6.453   9.536
78215SOL    HW136484   0.750   6.421   9.461
78215SOL    HW236485   0.744   6.518   9.578
78216SOL     OW36486   0.942   2.220   0.202
78216SOL    HW136487   0.942   2.268   0.284
78216SOL    HW236488   0.901   2.279   0.139
78217SOL     OW36489   6.154  13.176   5.382
78217SOL    HW136490   6.088  13.245   5.381
78217SOL    HW236491   6.113  13.104   5.429
78218SOL     OW36492   3.150   5.547  10.086
78218SOL    HW136493   3.142   5.452  10.073
78218SOL    HW236494   3.243   5.565  10.072
78219SOL     OW36495   5.398   2.242   9.411
78219SOL    HW136496   5.330   2.283   9.356
78219SOL    HW236497   5.469   2.305   9.412
78220SOL     OW36498   2.621   4.910   8.480
78220SOL    HW136499   2.677   4.953   8.545
78220SOL    HW236500   2.663   4.927   8.396
78221SOL     OW36501   8.039   4.217  12.089
78221SOL    HW136502   8.074   4.220  12.000
78221SOL    HW236503   7.956   4.264  12.083
78222SOL     OW36504   7.386   0.818   8.659
78222SOL    HW136505   7.306   0.871   8.667
78222SOL    HW236506   7.455   0.874   8.693
78223SOL     OW36507   2.701   8.874   7.003
78223SOL    HW136508   2.653   8.895   6.923
78223SOL    HW236509   2.641   8.819   7.053
78224SOL     OW36510   1.373  14.727   3.961
78224SOL    HW136511   1.441  14.755   3.900
78224SOL    HW236512   1.353  14.637   3.937
78225SOL     OW36513   7.507   1.496  11.439
78225SOL    HW136514   7.443   1.548  11.390
78225SOL    HW236515   7.478   1.406  11.428
78226SOL     OW36516   6.125  12.031  10.144
78226SOL    HW136517   6.124  11.988  10.229
78226SOL    HW236518   6.135  12.124  10.164
78227SOL     OW36519   3.562  10.719  11.237
78227SOL    HW136520   3.614  10.680  11.168
78227SOL    HW236521   3.624  10.734  11.309
78228SOL     OW36522   2.743   2.614   7.579
78228SOL    HW136523   2.713   2.546   7.518
78228SOL    HW236524   2.749   2.693   7.527
78229SOL     OW36525  11.917   5.351   8.245
78229SOL    HW136526  11.906   5.423   8.307
78229SOL    HW236527  11.836   5.353   8.193
78230SOL     OW36528   5.933   1.379  14.869
78230SOL    HW136529   6.025   1.405  14.872
78230SOL    HW236530   5.929   1.298   0.043
78231SOL     OW36531   0.718   8.307   0.210
78231SOL    HW136532   0.647   8.364   0.242
78231SOL    HW236533   0.784   8.310   0.279
78232SOL     OW36534  12.486   7.294  14.320
78232SOL    HW136535  12.537   7.291  14.239
78232SOL    HW236536  12.492   7.385  14.349
78233SOL     OW36537  11.772   5.297  14.011
78233SOL    HW136538  11.762   5.389  14.033
78233SOL    HW236539  11.824   5.296  13.931
78234SOL     OW36540  13.355  11.587   5.369
78234SOL    HW136541  13.350  11.511   5.426
78234SOL    HW236542  13.401  11.653   5.421
78235SOL     OW36543   7.779   7.808   4.056
78235SOL    HW136544   7.805   7.723   4.021
78235SOL    HW236545   7.759   7.792   4.148
78236SOL     OW36546   2.221   4.727   5.887
78236SOL    HW136547   2.223   4.733   5.982
78236SOL    HW236548   2.212   4.634   5.868
78237SOL     OW36549   8.292  12.237  12.404
78237SOL    HW136550   8.330  12.152  12.426
78237SOL    HW236551   8.228  12.217  12.336
78238SOL     OW36552   3.915  12.770   5.005
78238SOL    HW136553   3.968  12.690   5.009
78238SOL    HW236554   3.858  12.758   4.929
78239SOL     OW36555   5.742   5.725   1.515
78239SOL    HW136556   5.715   5.817   1.506
78239SOL    HW236557   5.766   5.717   1.607
78240SOL     OW36558   2.495   8.755  11.044
78240SOL    HW136559   2.423   8.711  11.089
78240SOL    HW236560   2.574   8.714  11.080
78241SOL     OW36561  12.336  14.295   2.553
78241SOL    HW136562  12.313  14.338   2.470
78241SOL    HW236563  12.417  14.338   2.580
78242SOL     OW36564  10.683   3.427   4.922
78242SOL    HW136565  10.663   3.376   4.844
78242SOL    HW236566  10.603   3.474   4.942
78243SOL     OW36567  13.579   6.250  12.795
78243SOL    HW136568  13.486   6.259  12.774
78243SOL    HW236569  13.607   6.171  12.750
78244SOL     OW36570  14.151   2.244   4.556
78244SOL    HW136571  14.072   2.231   4.608
78244SOL    HW236572  14.144   2.179   4.486
78245SOL     OW36573   1.612   7.750  12.996
78245SOL    HW136574   1.635   7.802  13.073
78245SOL    HW236575   1.523   7.777  12.975
78246SOL     OW36576  12.908   4.918   3.625
78246SOL    HW136577  12.963   4.882   3.695
78246SOL    HW236578  12.949   5.003   3.605
78247SOL     OW36579   6.845  11.117   6.125
78247SOL    HW136580   6.875  11.205   6.149
78247SOL    HW236581   6.820  11.125   6.033
78248SOL     OW36582   7.694  11.339   2.086
78248SOL    HW136583   7.667  11.419   2.040
78248SOL    HW236584   7.615  11.310   2.131
78249SOL     OW36585   4.311   4.192  10.068
78249SOL    HW136586   4.279   4.113  10.112
78249SOL    HW236587   4.308   4.260  10.136
78250SOL     OW36588  14.554   5.413  10.413
78250SOL    HW136589  14.631   5.418  10.356
78250SOL    HW236590  14.523   5.323  10.402
78251SOL     OW36591   4.041  10.615   7.483
78251SOL    HW136592   4.104  10.544   7.471
78251SOL    HW236593   3.969  10.593   7.424
78252SOL     OW36594   6.399  11.029   4.995
78252SOL    HW136595   6.379  10.949   4.946
78252SOL    HW236596   6.437  11.088   4.930
78253SOL     OW36597   7.704  11.503   4.790
78253SOL    HW136598   7.769  11.475   4.855
78253SOL    HW236599   7.714  11.598   4.787
78254SOL     OW36600  11.003  12.682   7.704
78254SOL    HW136601  11.005  12.586   7.704
78254SOL    HW236602  10.930  12.705   7.647
78255SOL     OW36603   4.167   7.499  13.428
78255SOL    HW136604   4.259   7.473  13.420
78255SOL    HW236605   4.143   7.528  13.339
78256SOL     OW36606   2.703   6.678   1.500
78256SOL    HW136607   2.784   6.685   1.551
78256SOL    HW236608   2.699   6.587   1.473
78257SOL     OW36609  11.563   9.389   8.360
78257SOL    HW136610  11.605   9.407   8.275
78257SOL    HW236611  11.469   9.392   8.341
78258SOL     OW36612  12.280   7.571  12.596
78258SOL    HW136613  12.301   7.585  12.688
78258SOL    HW236614  12.213   7.503  12.597
78259SOL     OW36615  13.018   5.405   0.693
78259SOL    HW136616  12.989   5.476   0.637
78259SOL    HW236617  12.964   5.330   0.667
78260SOL     OW36618   8.946  11.978  13.563
78260SOL    HW136619   8.918  12.068  13.583
78260SOL    HW236620   8.976  11.983  13.472
78261SOL     OW36621   7.279   4.971   9.466
78261SOL    HW136622   7.226   5.037   9.423
78261SOL    HW236623   7.340   5.021   9.521
78262SOL     OW36624   2.526   5.269  14.602
78262SOL    HW136625   2.460   5.227  14.548
78262SOL    HW236626   2.495   5.359  14.612
78263SOL     OW36627   7.400  11.457   9.707
78263SOL    HW136628   7.403  11.510   9.787
78263SOL    HW236629   7.490  11.458   9.675
78264SOL     OW36630  14.015  11.316  10.274
78264SOL    HW136631  14.047  11.279  10.356
78264SOL    HW236632  13.951  11.382  10.300
78265SOL     OW36633   6.637   4.353  10.081
78265SOL    HW136634   6.708   4.363  10.017
78265SOL    HW236635   6.669   4.283  10.139
78266SOL     OW36636  12.174  10.409   1.159
78266SOL    HW136637  12.137  10.348   1.222
78266SOL    HW236638  12.126  10.393   1.078
78267SOL     OW36639  11.014   5.896   2.013
78267SOL    HW136640  11.050   5.913   2.100
78267SOL    HW236641  10.965   5.815   2.022
78268SOL     OW36642   6.357   9.949   9.400
78268SOL    HW136643   6.340  10.035   9.362
78268SOL    HW236644   6.300   9.944   9.476
78269SOL     OW36645   3.707   3.446   6.823
78269SOL    HW136646   3.662   3.416   6.744
78269SOL    HW236647   3.638   3.488   6.875
78270SOL     OW36648  11.030   7.007  10.826
78270SOL    HW136649  10.940   6.993  10.854
78270SOL    HW236650  11.030   7.096  10.789
78271SOL     OW36651  11.411  12.876   9.439
78271SOL    HW136652  11.321  12.893   9.466
78271SOL    HW236653  11.420  12.922   9.356
78272SOL     OW36654   2.493   5.421   4.047
78272SOL    HW136655   2.472   5.511   4.025
78272SOL    HW236656   2.556   5.394   3.981
78273SOL     OW36657   1.879  14.024   3.859
78273SOL    HW136658   1.949  13.983   3.808
78273SOL    HW236659   1.810  13.958   3.862
78274SOL     OW36660   6.944  10.736   0.553
78274SOL    HW136661   6.884  10.781   0.494
78274SOL    HW236662   6.999  10.683   0.495
78275SOL     OW36663   8.159   1.082  12.263
78275SOL    HW136664   8.219   1.088  12.338
78275SOL    HW236665   8.202   1.021  12.203
78276SOL     OW36666   2.480   5.664   7.701
78276SOL    HW136667   2.553   5.675   7.641
78276SOL    HW236668   2.493   5.731   7.768
78277SOL     OW36669  10.581   3.836   4.613
78277SOL    HW136670  10.634   3.915   4.599
78277SOL    HW236671  10.491   3.867   4.612
78278SOL     OW36672   9.671   3.108   6.688
78278SOL    HW136673   9.747   3.104   6.746
78278SOL    HW236674   9.706   3.142   6.606
78279SOL     OW36675   1.253   3.103   0.761
78279SOL    HW136676   1.297   3.054   0.691
78279SOL    HW236677   1.266   3.195   0.738
78280SOL     OW36678   8.233  10.687   8.048
78280SOL    HW136679   8.229  10.769   7.998
78280SOL    HW236680   8.324  10.658   8.038
78281SOL     OW36681   9.044  10.605   3.080
78281SOL    HW136682   9.069  10.674   3.141
78281SOL    HW236683   9.112  10.607   3.013
78282SOL     OW36684  13.050   6.415   4.155
78282SOL    HW136685  13.031   6.330   4.114
78282SOL    HW236686  13.115   6.395   4.222
78283SOL     OW36687   0.947   8.511   5.414
78283SOL    HW136688   0.890   8.444   5.451
78283SOL    HW236689   0.896   8.592   5.421
78284SOL     OW36690   6.530   9.511  11.822
78284SOL    HW136691   6.466   9.453  11.782
78284SOL    HW236692   6.568   9.559  11.748
78285SOL     OW36693   7.540   6.413  14.590
78285SOL    HW136694   7.606   6.409  14.659
78285SOL    HW236695   7.560   6.340  14.532
78286SOL     OW36696   6.864  11.409   5.577
78286SOL    HW136697   6.905  11.328   5.607
78286SOL    HW236698   6.775  11.384   5.554
78287SOL     OW36699   8.120   8.383  10.159
78287SOL    HW136700   8.142   8.470  10.191
78287SOL    HW236701   8.168   8.323  10.217
78288SOL     OW36702  10.791   8.578  12.542
78288SOL    HW136703  10.745   8.531  12.611
78288SOL    HW236704  10.868   8.615  12.585
78289SOL     OW36705   9.714  13.331   9.462
78289SOL    HW136706   9.681  13.310   9.549
78289SOL    HW236707   9.646  13.301   9.402
78290SOL     OW36708   1.200  11.707   0.085
78290SOL    HW136709   1.279  11.690   0.135
78290SOL    HW236710   1.231  11.747   0.003
78291SOL     OW36711  10.709   1.874   3.853
78291SOL    HW136712  10.633   1.818   3.834
78291SOL    HW236713  10.697   1.951   3.797
78292SOL     OW36714   9.347   1.959  13.676
78292SOL    HW136715   9.439   1.985  13.666
78292SOL    HW236716   9.344   1.869  13.643
78293SOL     OW36717   2.944  11.257   1.095
78293SOL    HW136718   2.918  11.199   1.023
78293SOL    HW236719   3.012  11.312   1.058
78294SOL     OW36720   2.778   6.608   0.075
78294SOL    HW136721   2.835   6.559   0.134
78294SOL    HW236722   2.783   6.560  14.868
78295SOL     OW36723   1.969   6.494   4.866
78295SOL    HW136724   1.992   6.543   4.945
78295SOL    HW236725   2.052   6.477   4.822
78296SOL     OW36726   1.448   0.504   6.145
78296SOL    HW136727   1.444   0.586   6.194
78296SOL    HW236728   1.378   0.512   6.080
78297SOL     OW36729   1.369  11.632   7.308
78297SOL    HW136730   1.392  11.540   7.322
78297SOL    HW236731   1.422  11.659   7.234
78298SOL     OW36732   4.393   4.784   6.127
78298SOL    HW136733   4.386   4.777   6.032
78298SOL    HW236734   4.441   4.866   6.141
78299SOL     OW36735  13.565   7.227   1.745
78299SOL    HW136736  13.647   7.178   1.757
78299SOL    HW236737  13.497   7.160   1.748
78300SOL     OW36738  10.505   7.529   2.859
78300SOL    HW136739  10.540   7.569   2.779
78300SOL    HW236740  10.496   7.436   2.837
78301SOL     OW36741  10.366   0.839  12.951
78301SOL    HW136742  10.437   0.809  12.894
78301SOL    HW236743  10.294   0.779  12.932
78302SOL     OW36744  12.332   1.098   4.253
78302SOL    HW136745  12.303   1.103   4.162
78302SOL    HW236746  12.421   1.063   4.249
78303SOL     OW36747   2.388   9.623   5.171
78303SOL    HW136748   2.384   9.704   5.221
78303SOL    HW236749   2.449   9.642   5.100
78304SOL     OW36750  13.182   7.828   0.901
78304SOL    HW136751  13.185   7.798   0.810
78304SOL    HW236752  13.272   7.817   0.932
78305SOL     OW36753   6.134   7.294  12.710
78305SOL    HW136754   6.218   7.339  12.694
78305SOL    HW236755   6.099   7.277  12.623
78306SOL     OW36756   4.268   4.717   3.027
78306SOL    HW136757   4.334   4.786   3.040
78306SOL    HW236758   4.188   4.765   3.004
78307SOL     OW36759   1.505  14.162  11.266
78307SOL    HW136760   1.556  14.106  11.325
78307SOL    HW236761   1.520  14.126  11.179
78308SOL     OW36762   3.959  11.707  14.090
78308SOL    HW136763   3.891  11.640  14.095
78308SOL    HW236764   3.912  11.789  14.079
78309SOL     OW36765   6.114   8.276  12.499
78309SOL    HW136766   6.149   8.299  12.413
78309SOL    HW236767   6.109   8.359  12.546
78310SOL     OW36768  10.364  14.059  13.690
78310SOL    HW136769  10.433  14.115  13.654
78310SOL    HW236770  10.282  14.106  13.672
78311SOL     OW36771  10.752   3.169   2.313
78311SOL    HW136772  10.751   3.076   2.335
78311SOL    HW236773  10.828   3.204   2.360
78312SOL     OW36774   0.459   9.184   4.109
78312SOL    HW136775   0.548   9.217   4.094
78312SOL    HW236776   0.438   9.212   4.198
78313SOL     OW36777   1.297   7.758   1.605
78313SOL    HW136778   1.260   7.841   1.636
78313SOL    HW236779   1.388   7.759   1.635
78314SOL     OW36780   1.450   9.385   1.383
78314SOL    HW136781   1.386   9.354   1.318
78314SOL    HW236782   1.397   9.417   1.455
78315SOL     OW36783   2.875  11.749  11.066
78315SOL    HW136784   2.921  11.796  10.996
78315SOL    HW236785   2.901  11.657  11.053
78316SOL     OW36786  12.343   5.483   6.553
78316SOL    HW136787  12.426   5.436   6.539
78316SOL    HW236788  12.303   5.440   6.628
78317SOL     OW36789   2.351   0.227  10.284
78317SOL    HW136790   2.366   0.143  10.242
78317SOL    HW236791   2.306   0.279  10.218
78318SOL     OW36792   6.115   2.785  10.491
78318SOL    HW136793   6.137   2.866  10.445
78318SOL    HW236794   6.162   2.717  10.443
78319SOL     OW36795   7.640   1.679   8.632
78319SOL    HW136796   7.722   1.728   8.638
78319SOL    HW236797   7.632   1.656   8.540
78320SOL     OW36798   5.044   1.869   4.427
78320SOL    HW136799   4.980   1.938   4.413
78320SOL    HW236800   5.041   1.851   4.521
78321SOL     OW36801   3.805   6.528  11.805
78321SOL    HW136802   3.710   6.529  11.792
78321SOL    HW236803   3.839   6.593  11.744
78322SOL     OW36804   2.639   9.061   8.826
78322SOL    HW136805   2.585   9.140   8.832
78322SOL    HW236806   2.717   9.088   8.778
78323SOL     OW36807   9.595   9.753   0.748
78323SOL    HW136808   9.562   9.842   0.759
78323SOL    HW236809   9.652   9.757   0.672
78324SOL     OW36810   2.336   5.537  10.492
78324SOL    HW136811   2.428   5.518  10.473
78324SOL    HW236812   2.293   5.451  10.491
78325SOL     OW36813   2.009   6.795   2.605
78325SOL    HW136814   1.920   6.801   2.641
78325SOL    HW236815   2.000   6.829   2.516
78326SOL     OW36816   1.260  10.617   5.686
78326SOL    HW136817   1.224  10.528   5.676
78326SOL    HW236818   1.346  10.612   5.643
78327SOL     OW36819   9.039   7.583   1.835
78327SOL    HW136820   9.005   7.549   1.753
78327SOL    HW236821   9.016   7.676   1.833
78328SOL     OW36822   9.683  14.609   4.748
78328SOL    HW136823   9.727  14.681   4.792
78328SOL    HW236824   9.750  14.541   4.741
78329SOL     OW36825   9.196  12.319  12.624
78329SOL    HW136826   9.142  12.302  12.547
78329SOL    HW236827   9.267  12.255  12.619
78330SOL     OW36828   9.262   7.418   2.821
78330SOL    HW136829   9.253   7.393   2.729
78330SOL    HW236830   9.194   7.368   2.866
78331SOL     OW36831   0.361   1.081   6.976
78331SOL    HW136832   0.281   1.132   6.990
78331SOL    HW236833   0.334   0.990   6.991
78332SOL     OW36834   0.934   2.247   6.008
78332SOL    HW136835   0.999   2.186   5.972
78332SOL    HW236836   0.886   2.278   5.931
78333SOL     OW36837   9.350   2.512   2.589
78333SOL    HW136838   9.354   2.537   2.682
78333SOL    HW236839   9.312   2.589   2.546
78334SOL     OW36840  12.877   8.518   6.499
78334SOL    HW136841  12.952   8.471   6.535
78334SOL    HW236842  12.896   8.526   6.405
78335SOL     OW36843   1.800  12.620   0.508
78335SOL    HW136844   1.775  12.701   0.552
78335SOL    HW236845   1.888  12.602   0.540
78336SOL     OW36846   3.980   0.903   7.486
78336SOL    HW136847   3.981   0.834   7.552
78336SOL    HW236848   3.888   0.912   7.462
78337SOL     OW36849  13.899  11.277   2.248
78337SOL    HW136850  13.993  11.265   2.232
78337SOL    HW236851  13.862  11.189   2.242
78338SOL     OW36852   2.549  14.608  13.471
78338SOL    HW136853   2.622  14.658  13.508
78338SOL    HW236854   2.591  14.545  13.412
78339SOL     OW36855  10.691   4.406   6.509
78339SOL    HW136856  10.652   4.446   6.431
78339SOL    HW236857  10.681   4.312   6.496
78340SOL     OW36858  14.873  11.444  10.666
78340SOL    HW136859  14.824  11.481  10.740
78340SOL    HW236860   0.051  11.516  10.634
78341SOL     OW36861   7.004   9.580   0.929
78341SOL    HW136862   6.954   9.551   1.005
78341SOL    HW236863   7.013   9.675   0.940
78342SOL     OW36864  12.411  10.650  13.502
78342SOL    HW136865  12.409  10.744  13.517
78342SOL    HW236866  12.332  10.633  13.451
78343SOL     OW36867  13.373  12.152   6.720
78343SOL    HW136868  13.335  12.205   6.790
78343SOL    HW236869  13.437  12.210   6.679
78344SOL     OW36870   1.163   8.360   3.194
78344SOL    HW136871   1.214   8.350   3.114
78344SOL    HW236872   1.193   8.288   3.250
78345SOL     OW36873  12.906   5.022   0.027
78345SOL    HW136874  12.822   5.020   0.073
78345SOL    HW236875  12.902   4.948  14.843
78346SOL     OW36876   7.076   2.501   8.249
78346SOL    HW136877   7.136   2.440   8.291
78346SOL    HW236878   6.991   2.482   8.289
78347SOL     OW36879   7.013  14.667   3.899
78347SOL    HW136880   7.093  14.698   3.941
78347SOL    HW236881   6.996  14.730   3.829
78348SOL     OW36882   4.627   3.723  13.157
78348SOL    HW136883   4.651   3.663  13.228
78348SOL    HW236884   4.666   3.684  13.079
78349SOL     OW36885   5.541   6.508   1.053
78349SOL    HW136886   5.530   6.535   0.962
78349SOL    HW236887   5.633   6.526   1.073
78350SOL     OW36888   8.959   2.270   7.817
78350SOL    HW136889   8.961   2.218   7.737
78350SOL    HW236890   8.974   2.360   7.788
78351SOL     OW36891   9.708  13.579   5.120
78351SOL    HW136892   9.639  13.613   5.177
78351SOL    HW236893   9.765  13.654   5.103
78352SOL     OW36894  14.467   0.550   2.142
78352SOL    HW136895  14.480   0.512   2.055
78352SOL    HW236896  14.379   0.586   2.140
78353SOL     OW36897  13.528   2.874  11.712
78353SOL    HW136898  13.567   2.884  11.625
78353SOL    HW236899  13.434   2.863  11.694
78354SOL     OW36900   3.574  11.483   7.536
78354SOL    HW136901   3.524  11.456   7.613
78354SOL    HW236902   3.590  11.401   7.488
78355SOL     OW36903   2.418   8.476  14.609
78355SOL    HW136904   2.465   8.559  14.598
78355SOL    HW236905   2.487   8.410  14.613
78356SOL     OW36906   5.419   8.833   4.887
78356SOL    HW136907   5.324   8.842   4.898
78356SOL    HW236908   5.452   8.824   4.977
78357SOL     OW36909   4.371  12.231   3.357
78357SOL    HW136910   4.375  12.323   3.382
78357SOL    HW236911   4.338  12.232   3.267
78358SOL     OW36912   2.364   6.181   6.940
78358SOL    HW136913   2.293   6.119   6.957
78358SOL    HW236914   2.321   6.267   6.936
78359SOL     OW36915   6.434   0.362   4.803
78359SOL    HW136916   6.397   0.422   4.738
78359SOL    HW236917   6.505   0.317   4.755
78360SOL     OW36918   9.541   5.662   2.357
78360SOL    HW136919   9.589   5.583   2.379
78360SOL    HW236920   9.557   5.675   2.263
78361SOL     OW36921   2.139  12.890  10.024
78361SOL    HW136922   2.226  12.930  10.021
78361SOL    HW236923   2.115  12.879   9.932
78362SOL     OW36924   1.064   5.821  13.890
78362SOL    HW136925   1.010   5.899  13.876
78362SOL    HW236926   1.002   5.752  13.911
78363SOL     OW36927  10.224   0.740   4.241
78363SOL    HW136928  10.158   0.769   4.177
78363SOL    HW236929  10.183   0.755   4.326
78364SOL     OW36930   6.147   9.375   5.181
78364SOL    HW136931   6.132   9.464   5.150
78364SOL    HW236932   6.076   9.324   5.140
78365SOL     OW36933  11.044  11.635   2.373
78365SOL    HW136934  10.980  11.574   2.408
78365SOL    HW236935  11.046  11.707   2.437
78366SOL     OW36936  11.829   0.784   9.117
78366SOL    HW136937  11.816   0.763   9.210
78366SOL    HW236938  11.923   0.775   9.103
78367SOL     OW36939   7.957   7.921  13.317
78367SOL    HW136940   7.900   7.905  13.242
78367SOL    HW236941   8.034   7.964  13.280
78368SOL     OW36942   0.306   5.804  11.336
78368SOL    HW136943   0.266   5.720  11.359
78368SOL    HW236944   0.351   5.832  11.416
78369SOL     OW36945   7.057   4.134  10.645
78369SOL    HW136946   7.067   4.042  10.620
78369SOL    HW236947   7.046   4.132  10.740
78370SOL     OW36948   8.150   5.169   6.662
78370SOL    HW136949   8.098   5.243   6.694
78370SOL    HW236950   8.172   5.119   6.741
78371SOL     OW36951   3.145  13.706  10.340
78371SOL    HW136952   3.114  13.788  10.302
78371SOL    HW236953   3.237  13.701  10.314
78372SOL     OW36954  11.085   3.748   9.428
78372SOL    HW136955  11.063   3.830   9.472
78372SOL    HW236956  11.158   3.770   9.371
78373SOL     OW36957   0.825   0.654   8.032
78373SOL    HW136958   0.890   0.713   7.994
78373SOL    HW236959   0.763   0.638   7.960
78374SOL     OW36960   9.893   4.144  13.908
78374SOL    HW136961   9.934   4.062  13.881
78374SOL    HW236962   9.909   4.204  13.834
78375SOL     OW36963   6.934   7.532   2.773
78375SOL    HW136964   6.847   7.571   2.767
78375SOL    HW236965   6.979   7.563   2.694
78376SOL     OW36966   0.502   5.284   8.869
78376SOL    HW136967   0.568   5.215   8.866
78376SOL    HW236968   0.420   5.239   8.892
78377SOL     OW36969  14.862   5.507   9.812
78377SOL    HW136970  14.832   5.468   9.729
78377SOL    HW236971  14.867   5.433   9.872
78378SOL     OW36972   8.332   1.383   1.201
78378SOL    HW136973   8.306   1.410   1.288
78378SOL    HW236974   8.275   1.309   1.181
78379SOL     OW36975  12.783   5.436  13.597
78379SOL    HW136976  12.825   5.388  13.526
78379SOL    HW236977  12.726   5.371  13.639
78380SOL     OW36978  12.837  14.100   3.586
78380SOL    HW136979  12.911  14.101   3.646
78380SOL    HW236980  12.868  14.049   3.511
78381SOL     OW36981  12.262  12.667   8.058
78381SOL    HW136982  12.314  12.605   8.008
78381SOL    HW236983  12.204  12.612   8.111
78382SOL     OW36984   9.318  10.947   7.480
78382SOL    HW136985   9.226  10.928   7.499
78382SOL    HW236986   9.339  10.892   7.404
78383SOL     OW36987  11.501   6.967  10.388
78383SOL    HW136988  11.504   6.950  10.483
78383SOL    HW236989  11.537   6.887  10.349
78384SOL     OW36990   1.204   2.969   4.267
78384SOL    HW136991   1.143   2.938   4.333
78384SOL    HW236992   1.242   3.048   4.304
78385SOL     OW36993   2.845   6.305  11.870
78385SOL    HW136994   2.819   6.278  11.782
78385SOL    HW236995   2.763   6.322  11.915
78386SOL     OW36996  11.803   8.818   9.022
78386SOL    HW136997  11.873   8.852   8.966
78386SOL    HW236998  11.745   8.893   9.036
78387SOL     OW36999   1.046  13.044  10.696
78387SOL    HW137000   1.134  13.060  10.662
78387SOL    HW237001   1.003  12.993  10.627
78388SOL     OW37002  11.286   2.674   4.308
78388SOL    HW137003  11.326   2.610   4.249
78388SOL    HW237004  11.336   2.754   4.295
78389SOL     OW37005   0.352   4.269  11.452
78389SOL    HW137006   0.417   4.332  11.419
78389SOL    HW237007   0.335   4.212  11.377
78390SOL     OW37008   6.575  12.973  11.527
78390SOL    HW137009   6.621  13.005  11.450
78390SOL    HW237010   6.643  12.961  11.593
78391SOL     OW37011  13.381   7.029   1.762
78391SOL    HW137012  13.412   6.956   1.709
78391SOL    HW237013  13.297   7.053   1.724
78392SOL     OW37014  14.021   0.780   4.878
78392SOL    HW137015  13.971   0.852   4.842
78392SOL    HW237016  14.101   0.820   4.912
78393SOL     OW37017   0.318   4.946  12.704
78393SOL    HW137018   0.335   4.854  12.727
78393SOL    HW237019   0.403   4.981  12.678
78394SOL     OW37020  14.795   5.649   8.355
78394SOL    HW137021  14.805   5.721   8.292
78394SOL    HW237022   0.001   5.601   8.349
78395SOL     OW37023   7.972  14.285   3.153
78395SOL    HW137024   7.932  14.199   3.165
78395SOL    HW237025   7.928  14.321   3.077
78396SOL     OW37026   6.294   9.104  13.300
78396SOL    HW137027   6.304   9.165  13.227
78396SOL    HW237028   6.267   9.022  13.259
78397SOL     OW37029   3.051   9.941  12.565
78397SOL    HW137030   2.959   9.920  12.548
78397SOL    HW237031   3.098   9.900  12.492
78398SOL     OW37032   5.940  14.222   4.107
78398SOL    HW137033   5.974  14.136   4.133
78398SOL    HW237034   6.000  14.285   4.147
78399SOL     OW37035   8.685  10.344   8.014
78399SOL    HW137036   8.641  10.266   7.981
78399SOL    HW237037   8.741  10.373   7.942
78400SOL     OW37038  11.545   2.484   9.987
78400SOL    HW137039  11.582   2.397   9.967
78400SOL    HW237040  11.453   2.477   9.961
78401SOL     OW37041   5.083  10.483  11.932
78401SOL    HW137042   5.144  10.493  12.005
78401SOL    HW237043   5.077  10.570  11.893
78402SOL     OW37044  10.922  10.559   6.016
78402SOL    HW137045  10.933  10.464   6.020
78402SOL    HW237046  10.880  10.575   5.932
78403SOL     OW37047   1.771   8.972   2.780
78403SOL    HW137048   1.683   8.991   2.746
78403SOL    HW237049   1.803   9.057   2.811
78404SOL     OW37050  12.488   8.024  12.384
78404SOL    HW137051  12.431   8.073  12.324
78404SOL    HW237052  12.462   7.933  12.374
78405SOL     OW37053   9.466   8.051   6.516
78405SOL    HW137054   9.458   8.074   6.608
78405SOL    HW237055   9.542   8.100   6.485
78406SOL     OW37056   6.720   8.314  14.597
78406SOL    HW137057   6.766   8.307  14.513
78406SOL    HW237058   6.689   8.405  14.601
78407SOL     OW37059   4.637   1.095  10.873
78407SOL    HW137060   4.548   1.130  10.868
78407SOL    HW237061   4.639   1.025  10.807
78408SOL     OW37062   4.120  14.447  13.032
78408SOL    HW137063   4.117  14.508  12.958
78408SOL    HW237064   4.122  14.504  13.109
78409SOL     OW37065   5.446   0.034  11.630
78409SOL    HW137066   5.507   0.077  11.691
78409SOL    HW237067   5.500   0.011  11.555
78410SOL     OW37068   9.526   3.009  12.046
78410SOL    HW137069   9.463   2.962  12.100
78410SOL    HW237070   9.535   3.094  12.089
78411SOL     OW37071   9.831  14.013   5.384
78411SOL    HW137072   9.766  13.996   5.316
78411SOL    HW237073   9.780  14.019   5.465
78412SOL     OW37074   2.415   6.783  11.754
78412SOL    HW137075   2.323   6.811  11.747
78412SOL    HW237076   2.445   6.821  11.836
78413SOL     OW37077   1.349   3.526  11.805
78413SOL    HW137078   1.380   3.482  11.726
78413SOL    HW237079   1.335   3.617  11.779
78414SOL     OW37080  12.814   4.629  14.849
78414SOL    HW137081  12.794   4.536  14.834
78414SOL    HW237082  12.746   4.658   0.035
78415SOL     OW37083   5.965  13.834   5.646
78415SOL    HW137084   5.926  13.815   5.732
78415SOL    HW237085   6.019  13.758   5.627
78416SOL     OW37086   9.501   7.980  10.452
78416SOL    HW137087   9.502   8.037  10.529
78416SOL    HW237088   9.443   7.907  10.477
78417SOL     OW37089   2.441  11.174   0.001
78417SOL    HW137090   2.513  11.112  14.868
78417SOL    HW237091   2.461  11.222   0.081
78418SOL     OW37092  11.795   9.043  10.999
78418SOL    HW137093  11.833   9.002  10.922
78418SOL    HW237094  11.870   9.068  11.053
78419SOL     OW37095  13.014   2.150  12.192
78419SOL    HW137096  12.968   2.193  12.265
78419SOL    HW237097  13.106   2.151  12.218
78420SOL     OW37098   6.935   5.860   5.363
78420SOL    HW137099   6.967   5.942   5.402
78420SOL    HW237100   6.867   5.829   5.423
78421SOL     OW37101  13.826   0.100   1.418
78421SOL    HW137102  13.855   0.046   1.491
78421SOL    HW237103  13.779   0.040   1.361
78422SOL     OW37104  12.998   0.550   2.402
78422SOL    HW137105  12.934   0.620   2.392
78422SOL    HW237106  13.004   0.509   2.316
78423SOL     OW37107   6.760   2.960   1.091
78423SOL    HW137108   6.823   3.012   1.140
78423SOL    HW237109   6.797   2.955   1.003
78424SOL     OW37110   3.575   3.229   4.749
78424SOL    HW137111   3.642   3.253   4.685
78424SOL    HW237112   3.558   3.137   4.733
78425SOL     OW37113   9.694   4.790   6.599
78425SOL    HW137114   9.788   4.771   6.602
78425SOL    HW237115   9.683   4.866   6.656
78426SOL     OW37116  11.949   6.710   3.686
78426SOL    HW137117  11.870   6.758   3.660
78426SOL    HW237118  11.978   6.754   3.766
78427SOL     OW37119   0.677   2.282   6.385
78427SOL    HW137120   0.635   2.218   6.441
78427SOL    HW237121   0.677   2.242   6.298
78428SOL     OW37122   2.609   3.349  12.076
78428SOL    HW137123   2.663   3.275  12.103
78428SOL    HW237124   2.669   3.424  12.074
78429SOL     OW37125   9.993  11.816   8.891
78429SOL    HW137126   9.910  11.774   8.869
78429SOL    HW237127  10.052  11.793   8.820
78430SOL     OW37128  10.357  13.365   7.727
78430SOL    HW137129  10.414  13.343   7.654
78430SOL    HW237130  10.349  13.284   7.777
78431SOL     OW37131   2.876   4.566   8.066
78431SOL    HW137132   2.896   4.515   8.144
78431SOL    HW237133   2.781   4.566   8.060
78432SOL     OW37134   2.501   2.202   3.323
78432SOL    HW137135   2.467   2.195   3.412
78432SOL    HW237136   2.460   2.129   3.276
78433SOL     OW37137   6.988  11.079  11.271
78433SOL    HW137138   6.898  11.058  11.249
78433SOL    HW237139   7.035  11.073  11.188
78434SOL     OW37140   3.069  11.105   1.411
78434SOL    HW137141   3.064  11.200   1.426
78434SOL    HW237142   3.025  11.092   1.327
78435SOL     OW37143   3.832   8.738   2.379
78435SOL    HW137144   3.788   8.823   2.374
78435SOL    HW237145   3.764   8.675   2.354
78436SOL     OW37146   5.941   6.836   5.496
78436SOL    HW137147   5.910   6.852   5.407
78436SOL    HW237148   5.861   6.826   5.548
78437SOL     OW37149  13.943   1.924   9.400
78437SOL    HW137150  13.884   1.956   9.333
78437SOL    HW237151  13.888   1.911   9.478
78438SOL     OW37152   7.614   0.612   0.992
78438SOL    HW137153   7.707   0.601   0.968
78438SOL    HW237154   7.613   0.601   1.087
78439SOL     OW37155   9.775   1.426  12.335
78439SOL    HW137156   9.729   1.394  12.413
78439SOL    HW237157   9.738   1.375  12.263
78440SOL     OW37158  14.063   6.468   8.597
78440SOL    HW137159  14.077   6.444   8.505
78440SOL    HW237160  14.121   6.543   8.611
78441SOL     OW37161   9.113   3.618  10.372
78441SOL    HW137162   9.062   3.565  10.433
78441SOL    HW237163   9.079   3.594  10.285
78442SOL     OW37164   6.145   0.559   1.914
78442SOL    HW137165   6.092   0.638   1.903
78442SOL    HW237166   6.141   0.540   2.007
78443SOL     OW37167   1.576   9.801  13.406
78443SOL    HW137168   1.600   9.797  13.314
78443SOL    HW237169   1.592   9.713  13.439
78444SOL     OW37170   0.730   7.705   0.435
78444SOL    HW137171   0.814   7.727   0.474
78444SOL    HW237172   0.696   7.633   0.489
78445SOL     OW37173   5.336   1.943  12.724
78445SOL    HW137174   5.357   2.008  12.657
78445SOL    HW237175   5.291   1.873  12.677
78446SOL     OW37176   9.082   8.646   8.770
78446SOL    HW137177   8.993   8.626   8.743
78446SOL    HW237178   9.108   8.720   8.715
78447SOL     OW37179   5.304   8.766  10.419
78447SOL    HW137180   5.386   8.813  10.404
78447SOL    HW237181   5.302   8.751  10.513
78448SOL     OW37182  14.614  10.353   6.858
78448SOL    HW137183  14.655  10.272   6.829
78448SOL    HW237184  14.520  10.335   6.855
78449SOL     OW37185   0.789   3.201   8.942
78449SOL    HW137186   0.698   3.228   8.950
78449SOL    HW237187   0.808   3.206   8.848
78450SOL     OW37188  13.298  13.156  14.232
78450SOL    HW137189  13.385  13.180  14.266
78450SOL    HW237190  13.297  13.190  14.143
78451SOL     OW37191   9.206   8.187  14.459
78451SOL    HW137192   9.286   8.154  14.500
78451SOL    HW237193   9.136   8.139  14.504
78452SOL     OW37194   1.197   7.756  13.301
78452SOL    HW137195   1.161   7.723  13.219
78452SOL    HW237196   1.133   7.732  13.367
78453SOL     OW37197  12.044   0.577   0.732
78453SOL    HW137198  12.008   0.664   0.746
78453SOL    HW237199  12.034   0.532   0.816
78454SOL     OW37200  13.573   9.903  12.785
78454SOL    HW137201  13.510   9.885  12.855
78454SOL    HW237202  13.618   9.982  12.813
78455SOL     OW37203  11.408   1.612   4.592
78455SOL    HW137204  11.503   1.612   4.578
78455SOL    HW237205  11.380   1.701   4.570
78456SOL     OW37206   4.514   0.098  12.605
78456SOL    HW137207   4.582   0.072  12.668
78456SOL    HW237208   4.532   0.046  12.527
78457SOL     OW37209   4.620   7.448   4.366
78457SOL    HW137210   4.687   7.400   4.415
78457SOL    HW237211   4.537   7.411   4.396
78458SOL     OW37212   9.196   1.451   2.694
78458SOL    HW137213   9.156   1.505   2.762
78458SOL    HW237214   9.268   1.406   2.739
78459SOL     OW37215   1.643   9.955   6.149
78459SOL    HW137216   1.650   9.957   6.244
78459SOL    HW237217   1.640   9.862   6.127
78460SOL     OW37218   6.221   0.161  10.191
78460SOL    HW137219   6.234   0.072  10.223
78460SOL    HW237220   6.196   0.150  10.099
78461SOL     OW37221  13.505   2.368   3.943
78461SOL    HW137222  13.546   2.282   3.941
78461SOL    HW237223  13.458   2.371   4.026
78462SOL     OW37224   9.917   3.549   9.678
78462SOL    HW137225   9.876   3.553   9.764
78462SOL    HW237226   9.902   3.636   9.640
78463SOL     OW37227  14.239  12.080   6.648
78463SOL    HW137228  14.201  12.147   6.705
78463SOL    HW237229  14.255  12.125   6.565
78464SOL     OW37230   3.549   5.633   6.088
78464SOL    HW137231   3.575   5.548   6.053
78464SOL    HW237232   3.613   5.695   6.053
78465SOL     OW37233  11.615  14.390   6.787
78465SOL    HW137234  11.612  14.415   6.879
78465SOL    HW237235  11.620  14.474   6.740
78466SOL     OW37236  13.532   6.564   3.562
78466SOL    HW137237  13.498   6.649   3.591
78466SOL    HW237238  13.563   6.580   3.473
78467SOL     OW37239  10.073   6.439   5.175
78467SOL    HW137240  10.160   6.423   5.213
78467SOL    HW237241  10.030   6.497   5.238
78468SOL     OW37242  13.869  13.246   5.336
78468SOL    HW137243  13.795  13.306   5.326
78468SOL    HW237244  13.877  13.234   5.430
78469SOL     OW37245  13.919  11.392   7.808
78469SOL    HW137246  13.922  11.360   7.718
78469SOL    HW237247  13.999  11.359   7.849
78470SOL     OW37248  10.387  13.107  11.761
78470SOL    HW137249  10.345  13.190  11.738
78470SOL    HW237250  10.480  13.129  11.770
78471SOL     OW37251   3.996  12.663   0.253
78471SOL    HW137252   4.011  12.724   0.181
78471SOL    HW237253   4.076  12.611   0.258
78472SOL     OW37254   0.163   8.420   9.256
78472SOL    HW137255   0.256   8.427   9.277
78472SOL    HW237256   0.153   8.333   9.217
78473SOL     OW37257   1.801   4.976   7.338
78473SOL    HW137258   1.878   4.960   7.392
78473SOL    HW237259   1.825   5.052   7.285
78474SOL     OW37260   3.803  11.980  13.617
78474SOL    HW137261   3.829  11.892  13.645
78474SOL    HW237262   3.786  12.026  13.699
78475SOL     OW37263   1.996   2.866   4.075
78475SOL    HW137264   2.082   2.880   4.035
78475SOL    HW237265   1.934   2.897   4.010
78476SOL     OW37266  10.146   0.937   0.252
78476SOL    HW137267  10.232   0.930   0.293
78476SOL    HW237268  10.155   0.892   0.168
78477SOL     OW37269  12.694  10.567   7.028
78477SOL    HW137270  12.651  10.486   7.002
78477SOL    HW237271  12.784  10.541   7.048
78478SOL     OW37272  11.652  10.684   8.906
78478SOL    HW137273  11.728  10.626   8.903
78478SOL    HW237274  11.648  10.713   8.997
78479SOL     OW37275   3.936   3.897  12.009
78479SOL    HW137276   3.868   3.963  11.993
78479SOL    HW237277   3.966   3.915  12.099
78480SOL     OW37278   0.899  11.356   9.832
78480SOL    HW137279   0.832  11.292   9.855
78480SOL    HW237280   0.854  11.418   9.775
78481SOL     OW37281  11.153   6.382   4.183
78481SOL    HW137282  11.192   6.316   4.241
78481SOL    HW237283  11.059   6.374   4.199
78482SOL     OW37284   1.554   8.582   1.041
78482SOL    HW137285   1.574   8.672   1.017
78482SOL    HW237286   1.463   8.584   1.070
78483SOL     OW37287  12.342  11.822  13.882
78483SOL    HW137288  12.307  11.761  13.817
78483SOL    HW237289  12.272  11.886  13.895
78484SOL     OW37290   1.479   7.166  10.877
78484SOL    HW137291   1.501   7.233  10.941
78484SOL    HW237292   1.516   7.197  10.795
78485SOL     OW37293  10.633  11.148   8.033
78485SOL    HW137294  10.568  11.174   7.967
78485SOL    HW237295  10.680  11.075   7.994
78486SOL     OW37296  12.347   0.560  11.841
78486SOL    HW137297  12.416   0.570  11.775
78486SOL    HW237298  12.315   0.471  11.829
78487SOL     OW37299   4.761  10.481   9.575
78487SOL    HW137300   4.809  10.495   9.493
78487SOL    HW237301   4.798  10.545   9.635
78488SOL     OW37302   0.309  13.873   4.693
78488SOL    HW137303   0.246  13.945   4.701
78488SOL    HW237304   0.270  13.802   4.744
78489SOL     OW37305  12.102   1.785   9.136
78489SOL    HW137306  12.036   1.782   9.066
78489SOL    HW237307  12.180   1.745   9.097
78490SOL     OW37308   0.243   4.824   6.781
78490SOL    HW137309   0.252   4.838   6.875
78490SOL    HW237310   0.310   4.880   6.742
78491SOL     OW37311  12.083   3.044   8.746
78491SOL    HW137312  12.061   3.043   8.839
78491SOL    HW237313  12.158   2.986   8.739
78492SOL     OW37314   5.945  12.000   1.208
78492SOL    HW137315   5.978  11.917   1.175
78492SOL    HW237316   5.920  11.982   1.298
78493SOL     OW37317  14.356   1.468   4.432
78493SOL    HW137318  14.380   1.545   4.484
78493SOL    HW237319  14.388   1.488   4.344
78494SOL     OW37320   6.938  12.049   4.026
78494SOL    HW137321   7.016  12.013   4.067
78494SOL    HW237322   6.889  12.089   4.097
78495SOL     OW37323  14.229  14.437   8.073
78495SOL    HW137324  14.278  14.406   8.149
78495SOL    HW237325  14.152  14.382   8.069
78496SOL     OW37326   7.041  12.594   8.122
78496SOL    HW137327   7.114  12.558   8.072
78496SOL    HW237328   6.970  12.531   8.108
78497SOL     OW37329   7.092  14.784   8.807
78497SOL    HW137330   7.089  14.794   8.712
78497SOL    HW237331   7.101  14.874   8.840
78498SOL     OW37332   8.117   5.893   2.180
78498SOL    HW137333   8.175   5.951   2.130
78498SOL    HW237334   8.042   5.948   2.203
78499SOL     OW37335   4.082  13.043   6.348
78499SOL    HW137336   4.083  13.108   6.278
78499SOL    HW237337   4.167  13.000   6.342
78500SOL     OW37338   1.527  13.851   0.295
78500SOL    HW137339   1.548  13.776   0.352
78500SOL    HW237340   1.532  13.816   0.206
78501SOL     OW37341   3.567  10.799   9.553
78501SOL    HW137342   3.534  10.716   9.520
78501SOL    HW237343   3.662  10.792   9.545
78502SOL     OW37344   7.165   6.475   6.706
78502SOL    HW137345   7.186   6.560   6.747
78502SOL    HW237346   7.071   6.480   6.689
78503SOL     OW37347  12.683  13.073   7.669
78503SOL    HW137348  12.631  13.143   7.708
78503SOL    HW237349  12.751  13.119   7.619
78504SOL     OW37350   7.244  11.901   4.090
78504SOL    HW137351   7.289  11.818   4.105
78504SOL    HW237352   7.294  11.943   4.019
78505SOL     OW37353  12.390   4.456  11.073
78505SOL    HW137354  12.478   4.476  11.040
78505SOL    HW237355  12.405   4.426  11.162
78506SOL     OW37356   0.539   5.107   7.398
78506SOL    HW137357   0.570   5.090   7.309
78506SOL    HW237358   0.511   5.022   7.431
78507SOL     OW37359   2.836  10.607   2.035
78507SOL    HW137360   2.842  10.516   2.005
78507SOL    HW237361   2.784  10.602   2.115
78508SOL     OW37362   7.461   6.944  11.110
78508SOL    HW137363   7.515   6.906  11.180
78508SOL    HW237364   7.497   6.907  11.029
78509SOL     OW37365  11.451   7.427  11.178
78509SOL    HW137366  11.421   7.370  11.248
78509SOL    HW237367  11.505   7.492  11.222
78510SOL     OW37368   7.695   5.980   8.239
78510SOL    HW137369   7.652   5.986   8.154
78510SOL    HW237370   7.784   6.011   8.223
78511SOL     OW37371   4.069   4.730  13.341
78511SOL    HW137372   4.107   4.816  13.358
78511SOL    HW237373   3.982   4.733  13.379
78512SOL     OW37374  12.387   0.141  11.251
78512SOL    HW137375  12.409   0.089  11.174
78512SOL    HW237376  12.398   0.080  11.325
78513SOL     OW37377  10.931   2.143  10.026
78513SOL    HW137378  10.884   2.216  10.068
78513SOL    HW237379  10.877   2.066  10.047
78514SOL     OW37380  10.484  11.178   4.796
78514SOL    HW137381  10.536  11.211   4.722
78514SOL    HW237382  10.546  11.172   4.868
78515SOL     OW37383   6.665  11.822   5.684
78515SOL    HW137384   6.626  11.829   5.597
78515SOL    HW237385   6.595  11.789   5.740
78516SOL     OW37386  13.722   8.865   1.495
78516SOL    HW137387  13.796   8.814   1.529
78516SOL    HW237388  13.676   8.895   1.573
78517SOL     OW37389   1.794   5.140   3.677
78517SOL    HW137390   1.812   5.062   3.730
78517SOL    HW237391   1.881   5.171   3.651
78518SOL     OW37392   7.745  11.314  10.879
78518SOL    HW137393   7.825  11.298  10.829
78518SOL    HW237394   7.739  11.410  10.885
78519SOL     OW37395   4.111  10.092   7.911
78519SOL    HW137396   4.103  10.144   7.831
78519SOL    HW237397   4.202  10.105   7.939
78520SOL     OW37398   2.878   7.288   7.675
78520SOL    HW137399   2.945   7.336   7.723
78520SOL    HW237400   2.838   7.353   7.617
78521SOL     OW37401  14.007   4.251   3.431
78521SOL    HW137402  14.086   4.258   3.378
78521SOL    HW237403  13.939   4.292   3.379
78522SOL     OW37404   3.269   0.453   9.023
78522SOL    HW137405   3.236   0.475   8.936
78522SOL    HW237406   3.249   0.360   9.034
78523SOL     OW37407  10.524   1.605   6.959
78523SOL    HW137408  10.524   1.606   7.055
78523SOL    HW237409  10.616   1.613   6.936
78524SOL     OW37410   9.480   2.836  11.166
78524SOL    HW137411   9.509   2.926  11.185
78524SOL    HW237412   9.513   2.819  11.078
78525SOL     OW37413   1.264   5.176  11.427
78525SOL    HW137414   1.332   5.127  11.381
78525SOL    HW237415   1.305   5.201  11.510
78526SOL     OW37416  11.507   9.441  14.521
78526SOL    HW137417  11.416   9.429  14.493
78526SOL    HW237418  11.509   9.530  14.556
78527SOL     OW37419   3.607   9.694  11.914
78527SOL    HW137420   3.689   9.739  11.894
78527SOL    HW237421   3.549   9.763  11.947
78528SOL     OW37422  13.614   2.077   8.016
78528SOL    HW137423  13.632   2.148   7.954
78528SOL    HW237424  13.566   2.013   7.964
78529SOL     OW37425  11.259  10.084   0.470
78529SOL    HW137426  11.255  10.175   0.499
78529SOL    HW237427  11.170  10.064   0.440
78530SOL     OW37428   8.622   2.717  12.895
78530SOL    HW137429   8.683   2.715  12.969
78530SOL    HW237430   8.656   2.650  12.835
78531SOL     OW37431  10.346  11.847   9.280
78531SOL    HW137432  10.370  11.814   9.366
78531SOL    HW237433  10.320  11.769   9.230
78532SOL     OW37434   6.949   5.128  13.498
78532SOL    HW137435   6.892   5.180  13.554
78532SOL    HW237436   6.918   5.038  13.508
78533SOL     OW37437  14.639   6.590   2.163
78533SOL    HW137438  14.627   6.665   2.104
78533SOL    HW237439  14.620   6.625   2.250
78534SOL     OW37440   4.686  11.526  13.417
78534SOL    HW137441   4.651  11.615  13.425
78534SOL    HW237442   4.763  11.526  13.474
78535SOL     OW37443   6.251   6.333  11.156
78535SOL    HW137444   6.262   6.426  11.176
78535SOL    HW237445   6.252   6.329  11.061
78536SOL     OW37446  11.583   7.028   1.407
78536SOL    HW137447  11.672   7.043   1.374
78536SOL    HW237448  11.560   7.110   1.451
78537SOL     OW37449   7.947   4.071   8.023
78537SOL    HW137450   7.939   4.166   8.008
78537SOL    HW237451   7.982   4.064   8.111
78538SOL     OW37452   6.784   5.145   2.592
78538SOL    HW137453   6.850   5.123   2.659
78538SOL    HW237454   6.836   5.177   2.519
78539SOL     OW37455   9.745   1.192   1.026
78539SOL    HW137456   9.789   1.249   0.963
78539SOL    HW237457   9.670   1.158   0.979
78540SOL     OW37458  11.957  12.579  12.354
78540SOL    HW137459  11.911  12.510  12.401
78540SOL    HW237460  11.890  12.622  12.301
78541SOL     OW37461  11.680   4.158  10.780
78541SOL    HW137462  11.751   4.099  10.754
78541SOL    HW237463  11.623   4.162  10.703
78542SOL     OW37464  12.594   6.805   9.433
78542SOL    HW137465  12.654   6.872   9.400
78542SOL    HW237466  12.643   6.760   9.501
78543SOL     OW37467  13.737  11.395   3.860
78543SOL    HW137468  13.832  11.394   3.867
78543SOL    HW237469  13.718  11.470   3.803
78544SOL     OW37470   4.246   3.561  14.153
78544SOL    HW137471   4.166   3.521  14.118
78544SOL    HW237472   4.290   3.598  14.077
78545SOL     OW37473  10.748   6.042   0.928
78545SOL    HW137474  10.694   5.968   0.957
78545SOL    HW237475  10.823   6.041   0.987
78546SOL     OW37476   7.273   5.218   3.392
78546SOL    HW137477   7.318   5.134   3.387
78546SOL    HW237478   7.232   5.228   3.305
78547SOL     OW37479   8.755   7.072   8.007
78547SOL    HW137480   8.707   7.091   7.926
78547SOL    HW237481   8.690   7.031   8.064
78548SOL     OW37482  14.534   2.322   6.204
78548SOL    HW137483  14.479   2.305   6.281
78548SOL    HW237484  14.485   2.284   6.131
78549SOL     OW37485  11.761  11.846   1.385
78549SOL    HW137486  11.676  11.887   1.400
78549SOL    HW237487  11.818  11.917   1.356
78550SOL     OW37488   7.822   1.782  14.384
78550SOL    HW137489   7.852   1.797  14.474
78550SOL    HW237490   7.874   1.842  14.331
78551SOL     OW37491  12.862   0.085   6.413
78551SOL    HW137492  12.806   0.104   6.338
78551SOL    HW237493  12.951   0.093   6.379
78552SOL     OW37494   2.281  14.191  13.545
78552SOL    HW137495   2.254  14.272  13.502
78552SOL    HW237496   2.247  14.122  13.489
78553SOL     OW37497   9.729   6.890   9.823
78553SOL    HW137498   9.641   6.926   9.835
78553SOL    HW237499   9.732   6.864   9.731
78554SOL     OW37500   4.006   4.649  13.069
78554SOL    HW137501   4.032   4.687  13.153
78554SOL    HW237502   4.027   4.716  13.005
78555SOL     OW37503  14.474   0.781  11.092
78555SOL    HW137504  14.467   0.742  11.179
78555SOL    HW237505  14.546   0.733  11.050
78556SOL     OW37506   6.600  11.040   5.588
78556SOL    HW137507   6.515  11.013   5.553
78556SOL    HW237508   6.609  10.991   5.670
78557SOL     OW37509  13.916   0.294   9.592
78557SOL    HW137510  13.904   0.362   9.658
78557SOL    HW237511  14.006   0.264   9.605
78558SOL     OW37512   2.851   0.351   7.286
78558SOL    HW137513   2.775   0.375   7.233
78558SOL    HW237514   2.920   0.409   7.256
78559SOL     OW37515   2.517   9.120  11.341
78559SOL    HW137516   2.457   9.160  11.404
78559SOL    HW237517   2.483   9.032  11.328
78560SOL     OW37518   6.083  10.341   4.287
78560SOL    HW137519   6.177  10.347   4.272
78560SOL    HW237520   6.045  10.404   4.226
78561SOL     OW37521  14.775   2.037  14.525
78561SOL    HW137522  14.790   1.950  14.489
78561SOL    HW237523  14.863   2.072  14.539
78562SOL     OW37524  12.323   7.080  10.786
78562SOL    HW137525  12.342   6.986  10.779
78562SOL    HW237526  12.273   7.100  10.708
78563SOL     OW37527  12.823  11.781   3.485
78563SOL    HW137528  12.785  11.799   3.571
78563SOL    HW237529  12.751  11.744   3.434
78564SOL     OW37530  14.671   1.113   5.811
78564SOL    HW137531  14.737   1.129   5.744
78564SOL    HW237532  14.666   1.018   5.818
78565SOL     OW37533   8.922   3.983   5.431
78565SOL    HW137534   8.937   3.946   5.344
78565SOL    HW237535   8.841   3.940   5.461
78566SOL     OW37536   9.525   4.566  13.888
78566SOL    HW137537   9.466   4.641  13.890
78566SOL    HW237538   9.517   4.527  13.975
78567SOL     OW37539   1.210  12.372   9.599
78567SOL    HW137540   1.301  12.391   9.621
78567SOL    HW237541   1.210  12.279   9.577
78568SOL     OW37542   3.218   2.305   9.956
78568SOL    HW137543   3.219   2.214   9.926
78568SOL    HW237544   3.296   2.344   9.915
78569SOL     OW37545   9.076   2.038   0.558
78569SOL    HW137546   9.154   1.984   0.546
78569SOL    HW237547   9.015   2.008   0.491
78570SOL     OW37548   1.725   3.714   2.082
78570SOL    HW137549   1.701   3.723   2.174
78570SOL    HW237550   1.800   3.772   2.070
78571SOL     OW37551   0.242  12.017   4.405
78571SOL    HW137552   0.237  11.977   4.318
78571SOL    HW237553   0.202  12.104   4.393
78572SOL     OW37554  11.704   6.275   8.017
78572SOL    HW137555  11.715   6.308   8.106
78572SOL    HW237556  11.756   6.195   8.014
78573SOL     OW37557   5.323   6.982  12.952
78573SOL    HW137558   5.367   6.908  12.911
78573SOL    HW237559   5.318   6.960  13.045
78574SOL     OW37560   9.179   1.552   2.454
78574SOL    HW137561   9.149   1.642   2.465
78574SOL    HW237562   9.188   1.519   2.544
78575SOL     OW37563   8.684   0.833  10.793
78575SOL    HW137564   8.678   0.758  10.734
78575SOL    HW237565   8.682   0.796  10.881
78576SOL     OW37566  11.808   2.925   7.644
78576SOL    HW137567  11.882   2.866   7.655
78576SOL    HW237568  11.735   2.868   7.622
78577SOL     OW37569   3.764   5.262   7.993
78577SOL    HW137570   3.744   5.177   8.031
78577SOL    HW237571   3.678   5.301   7.976
78578SOL     OW37572   3.706  12.392   4.107
78578SOL    HW137573   3.692  12.480   4.142
78578SOL    HW237574   3.627  12.372   4.058
78579SOL     OW37575   1.857   4.637   8.912
78579SOL    HW137576   1.827   4.556   8.871
78579SOL    HW237577   1.865   4.615   9.005
78580SOL     OW37578   7.162   4.577   0.142
78580SOL    HW137579   7.177   4.519   0.216
78580SOL    HW237580   7.242   4.571   0.090
78581SOL     OW37581   6.528   2.339   6.822
78581SOL    HW137582   6.485   2.273   6.876
78581SOL    HW237583   6.589   2.383   6.882
78582SOL     OW37584   2.701   1.638   3.391
78582SOL    HW137585   2.750   1.677   3.462
78582SOL    HW237586   2.614   1.679   3.396
78583SOL     OW37587  11.654   1.426  13.069
78583SOL    HW137588  11.620   1.349  13.024
78583SOL    HW237589  11.608   1.500  13.027
78584SOL     OW37590  13.129   4.410   7.192
78584SOL    HW137591  13.130   4.340   7.258
78584SOL    HW237592  13.066   4.379   7.127
78585SOL     OW37593   7.918  10.511  11.529
78585SOL    HW137594   7.901  10.418  11.544
78585SOL    HW237595   7.948  10.543  11.613
78586SOL     OW37596  11.154   6.634   5.628
78586SOL    HW137597  11.130   6.718   5.588
78586SOL    HW237598  11.163   6.654   5.722
78587SOL     OW37599   6.093   7.723   6.847
78587SOL    HW137600   6.104   7.629   6.839
78587SOL    HW237601   6.032   7.747   6.778
78588SOL     OW37602  11.225  11.502   7.231
78588SOL    HW137603  11.240  11.462   7.145
78588SOL    HW237604  11.296  11.565   7.241
78589SOL     OW37605  13.050  13.017   7.485
78589SOL    HW137606  13.013  13.035   7.571
78589SOL    HW237607  13.144  13.030   7.496
78590SOL     OW37608  13.624   5.484  12.872
78590SOL    HW137609  13.648   5.401  12.914
78590SOL    HW237610  13.594   5.539  12.944
78591SOL     OW37611  13.744   3.876  14.169
78591SOL    HW137612  13.737   3.852  14.076
78591SOL    HW237613  13.794   3.805  14.209
78592SOL     OW37614   7.221   7.035  11.052
78592SOL    HW137615   7.305   7.006  11.089
78592SOL    HW237616   7.200   6.969  10.986
78593SOL     OW37617   1.194   5.744   6.850
78593SOL    HW137618   1.219   5.665   6.898
78593SOL    HW237619   1.103   5.759   6.874
78594SOL     OW37620   6.476   3.869   1.650
78594SOL    HW137621   6.388   3.905   1.660
78594SOL    HW237622   6.534   3.933   1.692
78595SOL     OW37623  11.825  12.594   0.368
78595SOL    HW137624  11.889  12.639   0.424
78595SOL    HW237625  11.778  12.664   0.324
78596SOL     OW37626   9.856  10.221   0.999
78596SOL    HW137627   9.881  10.222   1.092
78596SOL    HW237628   9.938  10.235   0.953
78597SOL     OW37629  11.906   4.002  11.696
78597SOL    HW137630  11.920   4.083  11.647
78597SOL    HW237631  11.846   4.027  11.767
78598SOL     OW37632   5.770   2.121   7.204
78598SOL    HW137633   5.826   2.143   7.279
78598SOL    HW237634   5.747   2.029   7.217
78599SOL     OW37635   3.872   8.326  10.938
78599SOL    HW137636   3.880   8.329  10.842
78599SOL    HW237637   3.960   8.344  10.970
78600SOL     OW37638  12.323   9.537   8.635
78600SOL    HW137639  12.252   9.478   8.607
78600SOL    HW237640  12.315   9.541   8.730
78601SOL     OW37641  10.581  10.530   3.559
78601SOL    HW137642  10.624  10.607   3.596
78601SOL    HW237643  10.650  10.465   3.549
78602SOL     OW37644  14.564  13.612   9.491
78602SOL    HW137645  14.528  13.542   9.437
78602SOL    HW237646  14.653  13.626   9.457
78603SOL     OW37647   8.327  10.551  11.206
78603SOL    HW137648   8.322  10.572  11.113
78603SOL    HW237649   8.323  10.455  11.209
78604SOL     OW37650  14.253   6.637   9.447
78604SOL    HW137651  14.221   6.723   9.476
78604SOL    HW237652  14.309   6.607   9.519
78605SOL     OW37653   6.278   0.842   1.875
78605SOL    HW137654   6.187   0.857   1.903
78605SOL    HW237655   6.271   0.825   1.781
78606SOL     OW37656  12.425  13.344   8.784
78606SOL    HW137657  12.357  13.309   8.726
78606SOL    HW237658  12.487  13.271   8.794
78607SOL     OW37659   5.225   8.331   5.663
78607SOL    HW137660   5.167   8.271   5.710
78607SOL    HW237661   5.265   8.276   5.595
78608SOL     OW37662   6.478   5.691   8.482
78608SOL    HW137663   6.400   5.737   8.514
78608SOL    HW237664   6.549   5.754   8.493
78609SOL     OW37665   3.715   8.881  10.744
78609SOL    HW137666   3.767   8.950  10.702
78609SOL    HW237667   3.668   8.925  10.814
78610SOL     OW37668  10.081   2.221  14.149
78610SOL    HW137669   9.990   2.206  14.125
78610SOL    HW237670  10.088   2.316  14.160
78611SOL     OW37671   8.654   1.150  11.179
78611SOL    HW137672   8.639   1.079  11.241
78611SOL    HW237673   8.749   1.155  11.170
78612SOL     OW37674   6.051   0.320   2.375
78612SOL    HW137675   5.984   0.291   2.313
78612SOL    HW237676   6.133   0.286   2.341
78613SOL     OW37677  13.112  14.261   1.079
78613SOL    HW137678  13.164  14.216   1.145
78613SOL    HW237679  13.086  14.344   1.120
78614SOL     OW37680  13.317   0.460   4.159
78614SOL    HW137681  13.404   0.483   4.193
78614SOL    HW237682  13.303   0.520   4.086
78615SOL     OW37683   8.650   3.480   1.628
78615SOL    HW137684   8.580   3.534   1.590
78615SOL    HW237685   8.645   3.398   1.580
78616SOL     OW37686   6.378   1.497   4.774
78616SOL    HW137687   6.357   1.542   4.692
78616SOL    HW237688   6.340   1.553   4.842
78617SOL     OW37689   3.531   2.009  12.724
78617SOL    HW137690   3.520   2.050  12.810
78617SOL    HW237691   3.624   2.020  12.703
78618SOL     OW37692   7.701   0.479   0.197
78618SOL    HW137693   7.637   0.533   0.243
78618SOL    HW237694   7.786   0.517   0.219
78619SOL     OW37695   4.820   4.609  12.307
78619SOL    HW137696   4.844   4.534  12.253
78619SOL    HW237697   4.739   4.643  12.267
78620SOL     OW37698   7.087   0.849   9.676
78620SOL    HW137699   7.014   0.909   9.658
78620SOL    HW237700   7.060   0.767   9.635
78621SOL     OW37701  14.484   4.052  10.200
78621SOL    HW137702  14.446   4.122  10.148
78621SOL    HW237703  14.412   3.991  10.214
78622SOL     OW37704   0.654   6.739   3.836
78622SOL    HW137705   0.589   6.684   3.792
78622SOL    HW237706   0.605   6.815   3.867
78623SOL     OW37707  10.853   0.362   0.436
78623SOL    HW137708  10.872   0.443   0.484
78623SOL    HW237709  10.920   0.359   0.367
78624SOL     OW37710   3.340   4.781   1.593
78624SOL    HW137711   3.289   4.780   1.511
78624SOL    HW237712   3.309   4.705   1.642
78625SOL     OW37713   2.093   3.792   1.376
78625SOL    HW137714   2.183   3.763   1.360
78625SOL    HW237715   2.068   3.840   1.297
78626SOL     OW37716   4.855   6.899   0.349
78626SOL    HW137717   4.784   6.932   0.403
78626SOL    HW237718   4.821   6.819   0.310
78627SOL     OW37719   9.309   6.569   3.693
78627SOL    HW137720   9.219   6.582   3.720
78627SOL    HW237721   9.338   6.655   3.664
78628SOL     OW37722   9.667   4.765  10.869
78628SOL    HW137723   9.598   4.828  10.849
78628SOL    HW237724   9.731   4.775  10.798
78629SOL     OW37725  12.929   2.963  11.846
78629SOL    HW137726  13.022   2.984  11.845
78629SOL    HW237727  12.897   2.991  11.759
78630SOL     OW37728  12.528  10.156  11.585
78630SOL    HW137729  12.533  10.090  11.654
78630SOL    HW237730  12.565  10.112  11.508
78631SOL     OW37731   2.331   9.779   9.483
78631SOL    HW137732   2.387   9.736   9.418
78631SOL    HW237733   2.391   9.801   9.555
78632SOL     OW37734   0.624   9.141   0.789
78632SOL    HW137735   0.582   9.089   0.721
78632SOL    HW237736   0.618   9.087   0.868
78633SOL     OW37737  12.507   8.346   8.795
78633SOL    HW137738  12.491   8.293   8.717
78633SOL    HW237739  12.602   8.353   8.800
78634SOL     OW37740   5.211  13.239  14.840
78634SOL    HW137741   5.266  13.295   0.019
78634SOL    HW237742   5.255  13.238  14.755
78635SOL     OW37743  10.604  11.194   0.807
78635SOL    HW137744  10.560  11.271   0.843
78635SOL    HW237745  10.696  11.219   0.802
78636SOL     OW37746   5.806   3.780  12.337
78636SOL    HW137747   5.717   3.759  12.363
78636SOL    HW237748   5.797   3.842  12.265
78637SOL     OW37749   1.984   9.357   8.224
78637SOL    HW137750   1.930   9.394   8.294
78637SOL    HW237751   1.988   9.426   8.158
78638SOL     OW37752   1.351  13.140   7.364
78638SOL    HW137753   1.258  13.162   7.378
78638SOL    HW237754   1.397  13.222   7.380
78639SOL     OW37755   9.976   1.580   5.668
78639SOL    HW137756  10.052   1.622   5.628
78639SOL    HW237757   9.912   1.651   5.681
78640SOL     OW37758  10.043   6.426  13.266
78640SOL    HW137759  10.137   6.423  13.246
78640SOL    HW237760  10.000   6.409  13.182
78641SOL     OW37761  11.819   1.175   8.973
78641SOL    HW137762  11.808   1.150   9.065
78641SOL    HW237763  11.734   1.154   8.933
78642SOL     OW37764   1.685  12.713   4.804
78642SOL    HW137765   1.748  12.688   4.873
78642SOL    HW237766   1.732  12.698   4.722
78643SOL     OW37767   7.608   3.956   9.553
78643SOL    HW137768   7.645   4.002   9.477
78643SOL    HW237769   7.575   4.025   9.609
78644SOL     OW37770   0.194  11.922   4.157
78644SOL    HW137771   0.163  11.858   4.093
78644SOL    HW237772   0.143  12.001   4.139
78645SOL     OW37773   8.846   0.869  10.266
78645SOL    HW137774   8.800   0.951  10.246
78645SOL    HW237775   8.776   0.804  10.274
78646SOL     OW37776   7.072   3.585  13.770
78646SOL    HW137777   7.134   3.643  13.725
78646SOL    HW237778   7.124   3.508  13.792
78647SOL     OW37779   1.542  11.626   4.251
78647SOL    HW137780   1.552  11.608   4.157
78647SOL    HW237781   1.572  11.546   4.294
78648SOL     OW37782   8.398   5.612   1.936
78648SOL    HW137783   8.328   5.667   1.901
78648SOL    HW237784   8.373   5.596   2.027
78649SOL     OW37785  13.469   5.378   6.514
78649SOL    HW137786  13.553   5.421   6.529
78649SOL    HW237787  13.459   5.378   6.418
78650SOL     OW37788  13.178   3.560   3.898
78650SOL    HW137789  13.240   3.500   3.941
78650SOL    HW237790  13.117   3.502   3.852
78651SOL     OW37791   4.856  11.142   2.553
78651SOL    HW137792   4.926  11.081   2.530
78651SOL    HW237793   4.866  11.155   2.648
78652SOL     OW37794  14.601   3.603   7.041
78652SOL    HW137795  14.643   3.530   6.996
78652SOL    HW237796  14.576   3.568   7.127
78653SOL     OW37797   0.755   5.451   0.221
78653SOL    HW137798   0.714   5.520   0.169
78653SOL    HW237799   0.681   5.400   0.254
78654SOL     OW37800  10.631  11.413  14.713
78654SOL    HW137801  10.717  11.452  14.699
78654SOL    HW237802  10.636  11.326  14.674
78655SOL     OW37803   0.708   6.306  11.410
78655SOL    HW137804   0.640   6.240  11.395
78655SOL    HW237805   0.718   6.350  11.325
78656SOL     OW37806   2.371  13.153   8.056
78656SOL    HW137807   2.287  13.113   8.033
78656SOL    HW237808   2.348  13.241   8.084
78657SOL     OW37809   8.134  14.362   3.501
78657SOL    HW137810   8.076  14.336   3.573
78657SOL    HW237811   8.211  14.307   3.511
78658SOL     OW37812   1.547  12.948  13.624
78658SOL    HW137813   1.640  12.930  13.611
78658SOL    HW237814   1.544  13.040  13.653
78659SOL     OW37815   7.700   2.471   5.175
78659SOL    HW137816   7.790   2.505   5.167
78659SOL    HW237817   7.692   2.407   5.105
78660SOL     OW37818   9.334  10.068  12.595
78660SOL    HW137819   9.293  10.051  12.510
78660SOL    HW237820   9.280  10.020  12.658
78661SOL     OW37821   4.655   1.435   4.600
78661SOL    HW137822   4.679   1.376   4.672
78661SOL    HW237823   4.738   1.453   4.556
78662SOL     OW37824   1.459  13.877   6.346
78662SOL    HW137825   1.399  13.816   6.389
78662SOL    HW237826   1.530  13.888   6.409
78663SOL     OW37827   7.305   8.048   4.809
78663SOL    HW137828   7.222   8.087   4.837
78663SOL    HW237829   7.331   8.099   4.732
78664SOL     OW37830   1.107   4.916   0.064
78664SOL    HW137831   1.053   4.924  14.862
78664SOL    HW237832   1.050   4.946   0.135
78665SOL     OW37833   8.407   6.998   5.309
78665SOL    HW137834   8.415   7.044   5.226
78665SOL    HW237835   8.422   7.066   5.375
78666SOL     OW37836   7.475  12.452  13.103
78666SOL    HW137837   7.457  12.358  13.106
78666SOL    HW237838   7.511  12.468  13.016
78667SOL     OW37839   8.269  12.997   5.543
78667SOL    HW137840   8.245  12.906   5.559
78667SOL    HW237841   8.358  13.005   5.576
78668SOL     OW37842   8.441   3.450   6.525
78668SOL    HW137843   8.357   3.414   6.496
78668SOL    HW237844   8.467   3.395   6.598
78669SOL     OW37845  13.481   4.356  12.631
78669SOL    HW137846  13.405   4.401  12.596
78669SOL    HW237847  13.527   4.423  12.682
78670SOL     OW37848   9.976   5.199  14.375
78670SOL    HW137849   9.920   5.229  14.446
78670SOL    HW237850   9.921   5.141  14.323
78671SOL     OW37851  12.097   6.941  14.717
78671SOL    HW137852  12.104   6.850  14.689
78671SOL    HW237853  12.013   6.970  14.682
78672SOL     OW37854   9.908   0.793   1.159
78672SOL    HW137855   9.826   0.791   1.207
78672SOL    HW237856   9.960   0.721   1.196
78673SOL     OW37857   6.124   1.084   7.570
78673SOL    HW137858   6.055   1.077   7.505
78673SOL    HW237859   6.086   1.048   7.650
78674SOL     OW37860   8.170   0.630   4.154
78674SOL    HW137861   8.099   0.593   4.206
78674SOL    HW237862   8.248   0.620   4.210
78675SOL     OW37863  11.493   5.862  13.173
78675SOL    HW137864  11.457   5.950  13.164
78675SOL    HW237865  11.545   5.848  13.094
78676SOL     OW37866   5.550   2.094  10.291
78676SOL    HW137867   5.553   2.189  10.285
78676SOL    HW237868   5.531   2.076  10.383
78677SOL     OW37869  11.525   5.829  12.522
78677SOL    HW137870  11.485   5.908  12.558
78677SOL    HW237871  11.498   5.759  12.583
78678SOL     OW37872  13.207  11.091   0.845
78678SOL    HW137873  13.228  11.001   0.819
78678SOL    HW237874  13.128  11.111   0.795
78679SOL     OW37875   7.537   2.687   7.035
78679SOL    HW137876   7.486   2.613   7.068
78679SOL    HW237877   7.575   2.727   7.114
78680SOL     OW37878   9.068   6.041  14.051
78680SOL    HW137879   9.121   6.068  14.126
78680SOL    HW237880   9.122   5.976  14.006
78681SOL     OW37881  14.846   2.194   8.590
78681SOL    HW137882  14.790   2.210   8.665
78681SOL    HW237883   0.026   2.122   8.616
78682SOL     OW37884  10.058   8.263   7.121
78682SOL    HW137885  10.056   8.228   7.032
78682SOL    HW237886  10.091   8.352   7.111
78683SOL     OW37887   4.410  11.137   2.200
78683SOL    HW137888   4.415  11.041   2.207
78683SOL    HW237889   4.491  11.167   2.241
78684SOL     OW37890   4.709   8.753   8.900
78684SOL    HW137891   4.799   8.762   8.868
78684SOL    HW237892   4.663   8.709   8.828
78685SOL     OW37893   0.476  10.822   7.301
78685SOL    HW137894   0.448  10.787   7.217
78685SOL    HW237895   0.399  10.868   7.335
78686SOL     OW37896   2.262   0.819   3.912
78686SOL    HW137897   2.330   0.780   3.857
78686SOL    HW237898   2.204   0.862   3.849
78687SOL     OW37899  13.361   6.600   1.544
78687SOL    HW137900  13.281   6.557   1.573
78687SOL    HW237901  13.331   6.673   1.490
78688SOL     OW37902   7.130   1.885   5.906
78688SOL    HW137903   7.071   1.908   5.978
78688SOL    HW237904   7.177   1.966   5.887
78689SOL     OW37905   5.612   2.007   4.461
78689SOL    HW137906   5.707   2.005   4.451
78689SOL    HW237907   5.582   2.076   4.401
78690SOL     OW37908   0.077   2.774   6.362
78690SOL    HW137909   0.039   2.842   6.417
78690SOL    HW237910   0.168   2.767   6.391
78691SOL     OW37911   5.373   0.216   8.372
78691SOL    HW137912   5.411   0.280   8.312
78691SOL    HW237913   5.332   0.269   8.440
78692SOL     OW37914   9.862   7.958   5.081
78692SOL    HW137915   9.804   8.035   5.080
78692SOL    HW237916   9.805   7.885   5.057
78693SOL     OW37917   6.442   1.506   7.247
78693SOL    HW137918   6.428   1.467   7.161
78693SOL    HW237919   6.416   1.437   7.309
78694SOL     OW37920   6.746   6.696  11.844
78694SOL    HW137921   6.830   6.653  11.861
78694SOL    HW237922   6.724   6.670  11.755
78695SOL     OW37923   3.295  14.477  14.762
78695SOL    HW137924   3.330  14.391  14.787
78695SOL    HW237925   3.233  14.498  14.832
78696SOL     OW37926  11.255  11.557   1.418
78696SOL    HW137927  11.335  11.528   1.375
78696SOL    HW237928  11.191  11.488   1.398
78697SOL     OW37929  13.047  11.869   6.900
78697SOL    HW137930  13.139  11.852   6.920
78697SOL    HW237931  13.049  11.928   6.825
78698SOL     OW37932   7.768   5.339   9.536
78698SOL    HW137933   7.694   5.399   9.534
78698SOL    HW237934   7.792   5.334   9.629
78699SOL     OW37935  11.796   9.840  10.358
78699SOL    HW137936  11.809   9.910  10.294
78699SOL    HW237937  11.851   9.768  10.326
78700SOL     OW37938   8.370  11.718   5.569
78700SOL    HW137939   8.288  11.752   5.535
78700SOL    HW237940   8.421  11.694   5.491
78701SOL     OW37941   6.059   1.395  11.647
78701SOL    HW137942   6.068   1.337  11.722
78701SOL    HW237943   5.993   1.353  11.591
78702SOL     OW37944   3.170   7.497  10.345
78702SOL    HW137945   3.126   7.427  10.395
78702SOL    HW237946   3.260   7.497  10.378
78703SOL     OW37947  14.182   6.748  10.188
78703SOL    HW137948  14.163   6.840  10.165
78703SOL    HW237949  14.276   6.740  10.176
78704SOL     OW37950   1.700   2.610  13.880
78704SOL    HW137951   1.623   2.556  13.863
78704SOL    HW237952   1.756   2.556  13.936
78705SOL     OW37953   7.385   1.494   6.388
78705SOL    HW137954   7.390   1.398   6.397
78705SOL    HW237955   7.457   1.516   6.329
78706SOL     OW37956   1.723   3.146  12.100
78706SOL    HW137957   1.757   3.057  12.109
78706SOL    HW237958   1.632   3.135  12.073
78707SOL     OW37959   4.517   3.202   8.570
78707SOL    HW137960   4.581   3.203   8.498
78707SOL    HW237961   4.515   3.292   8.602
78708SOL     OW37962  11.219   0.222   8.479
78708SOL    HW137963  11.175   0.280   8.417
78708SOL    HW237964  11.285   0.177   8.427
78709SOL     OW37965  14.805  12.911  11.660
78709SOL    HW137966  14.785  12.985  11.602
78709SOL    HW237967   0.017  12.884  11.635
78710SOL     OW37968   4.731   9.194   4.503
78710SOL    HW137969   4.736   9.105   4.537
78710SOL    HW237970   4.816   9.209   4.461
78711SOL     OW37971   6.877   9.161   5.617
78711SOL    HW137972   6.880   9.090   5.553
78711SOL    HW237973   6.893   9.240   5.565
78712SOL     OW37974   0.297   5.276  10.075
78712SOL    HW137975   0.285   5.205  10.138
78712SOL    HW237976   0.208   5.302  10.050
78713SOL     OW37977   5.142  12.509   8.216
78713SOL    HW137978   5.121  12.508   8.310
78713SOL    HW237979   5.217  12.450   8.208
78714SOL     OW37980   1.960   1.587   1.489
78714SOL    HW137981   1.899   1.636   1.434
78714SOL    HW237982   1.912   1.570   1.570
78715SOL     OW37983   2.530   6.663   9.635
78715SOL    HW137984   2.527   6.633   9.544
78715SOL    HW237985   2.623   6.666   9.657
78716SOL     OW37986  13.101   5.804   4.213
78716SOL    HW137987  13.195   5.823   4.223
78716SOL    HW237988  13.096   5.754   4.131
78717SOL     OW37989  11.570  12.095   7.511
78717SOL    HW137990  11.598  12.147   7.436
78717SOL    HW237991  11.649  12.083   7.563
78718SOL     OW37992   1.023  13.494  10.633
78718SOL    HW137993   0.937  13.504  10.673
78718SOL    HW237994   1.063  13.420  10.678
78719SOL     OW37995   4.470   7.605   0.789
78719SOL    HW137996   4.412   7.661   0.737
78719SOL    HW237997   4.422   7.591   0.871
78720SOL     OW37998  11.181  11.500   8.280
78720SOL    HW137999  11.199  11.583   8.325
78720SOL    HW238000  11.267  11.467   8.255
78721SOL     OW38001   1.952   1.420   5.591
78721SOL    HW138002   2.008   1.497   5.583
78721SOL    HW238003   1.908   1.432   5.675
78722SOL     OW38004   3.623   3.022  10.015
78722SOL    HW138005   3.554   3.052  10.075
78722SOL    HW238006   3.691   3.088  10.022
78723SOL     OW38007  11.427   1.322   3.243
78723SOL    HW138008  11.509   1.371   3.249
78723SOL    HW238009  11.361   1.381   3.278
78724SOL     OW38010   5.166   5.874   3.925
78724SOL    HW138011   5.125   5.957   3.947
78724SOL    HW238012   5.230   5.896   3.858
78725SOL     OW38013  13.783   5.412   5.489
78725SOL    HW138014  13.875   5.434   5.496
78725SOL    HW238015  13.768   5.402   5.394
78726SOL     OW38016   5.979  11.883   0.546
78726SOL    HW138017   5.884  11.878   0.558
78726SOL    HW238018   5.995  11.840   0.462
78727SOL     OW38019   9.231  12.651   9.773
78727SOL    HW138020   9.273  12.716   9.716
78727SOL    HW238021   9.285  12.573   9.763
78728SOL     OW38022   2.296   5.998  13.603
78728SOL    HW138023   2.204   6.024  13.612
78728SOL    HW238024   2.344   6.080  13.603
78729SOL     OW38025   2.827  13.321   7.829
78729SOL    HW138026   2.781  13.277   7.757
78729SOL    HW238027   2.758  13.348   7.889
78730SOL     OW38028  13.162  10.048   1.113
78730SOL    HW138029  13.159  10.012   1.025
78730SOL    HW238030  13.146   9.972   1.170
78731SOL     OW38031  12.920   8.558  11.625
78731SOL    HW138032  13.011   8.585  11.633
78731SOL    HW238033  12.884   8.617  11.559
78732SOL     OW38034   9.803   9.596   1.200
78732SOL    HW138035   9.744   9.541   1.150
78732SOL    HW238036   9.807   9.678   1.152
78733SOL     OW38037   4.823   4.657  10.371
78733SOL    HW138038   4.735   4.684  10.395
78733SOL    HW238039   4.810   4.580  10.315
78734SOL     OW38040  13.530  11.446   7.591
78734SOL    HW138041  13.593  11.504   7.633
78734SOL    HW238042  13.462  11.505   7.557
78735SOL     OW38043   6.636   6.043   3.094
78735SOL    HW138044   6.610   5.987   3.167
78735SOL    HW238045   6.651   6.129   3.134
78736SOL     OW38046   3.616   4.333   0.429
78736SOL    HW138047   3.618   4.428   0.432
78736SOL    HW238048   3.699   4.308   0.388
78737SOL     OW38049   3.063   3.172  12.590
78737SOL    HW138050   2.973   3.180  12.558
78737SOL    HW238051   3.073   3.242  12.654
78738SOL     OW38052   2.373   1.176   5.071
78738SOL    HW138053   2.356   1.205   5.161
78738SOL    HW238054   2.449   1.118   5.078
78739SOL     OW38055   0.880   5.091   5.673
78739SOL    HW138056   0.923   5.155   5.730
78739SOL    HW238057   0.832   5.144   5.609
78740SOL     OW38058   3.384   6.146   8.029
78740SOL    HW138059   3.439   6.069   8.014
78740SOL    HW238060   3.298   6.122   7.994
78741SOL     OW38061  13.399  13.426   2.297
78741SOL    HW138062  13.457  13.368   2.248
78741SOL    HW238063  13.372  13.375   2.373
78742SOL     OW38064  13.431  11.549   0.283
78742SOL    HW138065  13.429  11.542   0.188
78742SOL    HW238066  13.347  11.591   0.306
78743SOL     OW38067   6.212   2.577  11.331
78743SOL    HW138068   6.218   2.575  11.235
78743SOL    HW238069   6.123   2.607  11.348
78744SOL     OW38070   2.948  10.392   1.889
78744SOL    HW138071   2.890  10.365   1.818
78744SOL    HW238072   2.955  10.315   1.945
78745SOL     OW38073  12.760   0.586  11.521
78745SOL    HW138074  12.695   0.525  11.487
78745SOL    HW238075  12.842   0.558  11.480
78746SOL     OW38076   1.279   8.040  13.029
78746SOL    HW138077   1.367   8.060  12.997
78746SOL    HW238078   1.282   8.060  13.122
78747SOL     OW38079  10.085  14.485   7.552
78747SOL    HW138080  10.050  14.423   7.488
78747SOL    HW238081  10.027  14.477   7.628
78748SOL     OW38082   8.672  11.176   1.745
78748SOL    HW138083   8.752  11.219   1.714
78748SOL    HW238084   8.617  11.248   1.776
78749SOL     OW38085   6.333   2.371   3.205
78749SOL    HW138086   6.300   2.322   3.129
78749SOL    HW238087   6.271   2.444   3.214
78750SOL     OW38088  14.636   0.572   8.967
78750SOL    HW138089  14.553   0.602   8.931
78750SOL    HW238090  14.643   0.481   8.940
78751SOL     OW38091   4.062  11.478  13.391
78751SOL    HW138092   4.103  11.401  13.350
78751SOL    HW238093   4.129  11.546  13.386
78752SOL     OW38094  10.176   9.537  13.982
78752SOL    HW138095  10.212   9.624  13.999
78752SOL    HW238096  10.107   9.526  14.047
78753SOL     OW38097   6.469   3.605  14.137
78753SOL    HW138098   6.534   3.655  14.186
78753SOL    HW238099   6.416   3.671  14.092
78754SOL     OW38100   3.011   8.710   5.162
78754SOL    HW138101   2.925   8.747   5.144
78754SOL    HW238102   2.994   8.618   5.183
78755SOL     OW38103   2.729  10.062  10.976
78755SOL    HW138104   2.747  10.003  10.903
78755SOL    HW238105   2.714  10.004  11.050
78756SOL     OW38106   1.503   3.581   8.758
78756SOL    HW138107   1.436   3.517   8.781
78756SOL    HW238108   1.508   3.639   8.834
78757SOL     OW38109   0.991   7.334  10.277
78757SOL    HW138110   1.026   7.410  10.325
78757SOL    HW238111   0.986   7.363  10.186
78758SOL     OW38112   6.580   7.726   2.350
78758SOL    HW138113   6.497   7.680   2.363
78758SOL    HW238114   6.561   7.816   2.376
78759SOL     OW38115   7.148   6.155  11.450
78759SOL    HW138116   7.118   6.134  11.538
78759SOL    HW238117   7.084   6.219  11.417
78760SOL     OW38118   6.766   2.256  14.627
78760SOL    HW138119   6.739   2.283  14.540
78760SOL    HW238120   6.842   2.311  14.647
78761SOL     OW38121   4.113   6.522  13.862
78761SOL    HW138122   4.182   6.459  13.880
78761SOL    HW238123   4.063   6.483  13.790
78762SOL     OW38124  11.818   4.748  11.044
78762SOL    HW138125  11.881   4.811  11.008
78762SOL    HW238126  11.850   4.728  11.131
78763SOL     OW38127   7.665  12.867   8.460
78763SOL    HW138128   7.584  12.863   8.410
78763SOL    HW238129   7.733  12.843   8.397
78764SOL     OW38130   8.305  13.485   1.062
78764SOL    HW138131   8.244  13.499   0.989
78764SOL    HW238132   8.379  13.438   1.024
78765SOL     OW38133   1.204  13.525  13.066
78765SOL    HW138134   1.234  13.616  13.066
78765SOL    HW238135   1.244  13.487  12.987
78766SOL     OW38136   6.555   1.733  12.507
78766SOL    HW138137   6.622   1.768  12.566
78766SOL    HW238138   6.604   1.704  12.430
78767SOL     OW38139   2.449   0.118   5.351
78767SOL    HW138140   2.363   0.101   5.391
78767SOL    HW238141   2.508   0.127   5.426
78768SOL     OW38142   4.728   4.701   1.717
78768SOL    HW138143   4.756   4.673   1.630
78768SOL    HW238144   4.799   4.757   1.748
78769SOL     OW38145   0.472  10.673   0.872
78769SOL    HW138146   0.498  10.762   0.895
78769SOL    HW238147   0.489  10.667   0.778
78770SOL     OW38148  11.410   8.796  13.857
78770SOL    HW138149  11.476   8.740  13.816
78770SOL    HW238150  11.403   8.872  13.799
78771SOL     OW38151  11.738  13.769   5.323
78771SOL    HW138152  11.755  13.684   5.282
78771SOL    HW238153  11.764  13.758   5.414
78772SOL     OW38154  13.296  12.850   9.668
78772SOL    HW138155  13.222  12.861   9.727
78772SOL    HW238156  13.339  12.936   9.666
78773SOL     OW38157   4.780   0.344   6.233
78773SOL    HW138158   4.870   0.338   6.201
78773SOL    HW238159   4.787   0.390   6.316
78774SOL     OW38160   2.358   2.328   5.414
78774SOL    HW138161   2.442   2.313   5.457
78774SOL    HW238162   2.378   2.330   5.321
78775SOL     OW38163  14.302  12.799   4.681
78775SOL    HW138164  14.339  12.882   4.713
78775SOL    HW238165  14.269  12.820   4.594
78776SOL     OW38166   4.779   5.711  10.427
78776SOL    HW138167   4.701   5.717  10.481
78776SOL    HW238168   4.832   5.787  10.452
78777SOL     OW38169   5.482   1.626   4.551
78777SOL    HW138170   5.557   1.604   4.606
78777SOL    HW238171   5.514   1.619   4.462
78778SOL     OW38172  11.669   8.224   8.225
78778SOL    HW138173  11.585   8.211   8.268
78778SOL    HW238174  11.688   8.139   8.184
78779SOL     OW38175   4.503  10.087  13.711
78779SOL    HW138176   4.598  10.085  13.708
78779SOL    HW238177   4.481  10.176  13.737
78780SOL     OW38178   9.236   3.183   6.181
78780SOL    HW138179   9.145   3.194   6.207
78780SOL    HW238180   9.279   3.265   6.206
78781SOL     OW38181   1.639   1.036   8.374
78781SOL    HW138182   1.636   1.072   8.462
78781SOL    HW238183   1.694   0.958   8.381
78782SOL     OW38184   1.670  12.446   1.933
78782SOL    HW138185   1.715  12.512   1.881
78782SOL    HW238186   1.668  12.369   1.877
78783SOL     OW38187   8.905  13.695  12.905
78783SOL    HW138188   8.911  13.745  12.824
78783SOL    HW238189   8.872  13.609  12.878
78784SOL     OW38190   0.652  13.737   3.630
78784SOL    HW138191   0.675  13.747   3.537
78784SOL    HW238192   0.733  13.708   3.671
78785SOL     OW38193  13.308  14.499   1.605
78785SOL    HW138194  13.286  14.556   1.679
78785SOL    HW238195  13.238  14.513   1.542
78786SOL     OW38196   1.630   6.831   0.658
78786SOL    HW138197   1.581   6.756   0.625
78786SOL    HW238198   1.608   6.834   0.752
78787SOL     OW38199   9.589   4.755   0.872
78787SOL    HW138200   9.617   4.742   0.962
78787SOL    HW238201   9.547   4.673   0.848
78788SOL     OW38202  14.092   8.176   3.794
78788SOL    HW138203  14.017   8.117   3.801
78788SOL    HW238204  14.100   8.193   3.700
78789SOL     OW38205   0.349   4.850   4.169
78789SOL    HW138206   0.267   4.897   4.183
78789SOL    HW238207   0.335   4.764   4.210
78790SOL     OW38208  12.455  13.799   7.597
78790SOL    HW138209  12.401  13.723   7.618
78790SOL    HW238210  12.464  13.846   7.680
78791SOL     OW38211   6.372  14.608   9.341
78791SOL    HW138212   6.300  14.655   9.298
78791SOL    HW238213   6.450  14.660   9.322
78792SOL     OW38214  11.910   9.094   3.730
78792SOL    HW138215  11.861   9.088   3.648
78792SOL    HW238216  11.955   9.178   3.726
78793SOL     OW38217   0.390  12.813  13.231
78793SOL    HW138218   0.346  12.838  13.149
78793SOL    HW238219   0.323  12.826  13.298
78794SOL     OW38220   2.790  13.676  14.077
78794SOL    HW138221   2.863  13.727  14.042
78794SOL    HW238222   2.747  13.736  14.139
78795SOL     OW38223  14.690   3.250   9.921
78795SOL    HW138224  14.658   3.316   9.859
78795SOL    HW238225  14.785   3.258   9.919
78796SOL     OW38226  12.336   9.393  10.286
78796SOL    HW138227  12.342   9.342  10.205
78796SOL    HW238228  12.276   9.342  10.341
78797SOL     OW38229   2.012  12.987   0.411
78797SOL    HW138230   2.011  12.986   0.506
78797SOL    HW238231   1.967  13.068   0.387
78798SOL     OW38232   1.014   2.208  12.321
78798SOL    HW138233   1.041   2.296  12.294
78798SOL    HW238234   1.027   2.207  12.416
78799SOL     OW38235   3.099   1.250  11.692
78799SOL    HW138236   3.123   1.158  11.708
78799SOL    HW238237   3.005   1.254  11.713
78800SOL     OW38238  11.375  13.001   3.955
78800SOL    HW138239  11.303  13.056   3.923
78800SOL    HW238240  11.446  13.017   3.893
78801SOL     OW38241  11.913  14.526   4.469
78801SOL    HW138242  11.997  14.510   4.512
78801SOL    HW238243  11.930  14.600   4.410
78802SOL     OW38244   3.566  11.651  13.486
78802SOL    HW138245   3.654  11.633  13.456
78802SOL    HW238246   3.565  11.621  13.577
78803SOL     OW38247   5.794   6.350  11.376
78803SOL    HW138248   5.877   6.364  11.331
78803SOL    HW238249   5.736   6.417  11.340
78804SOL     OW38250  11.961   0.763  11.319
78804SOL    HW138251  11.942   0.816  11.242
78804SOL    HW238252  12.055   0.749  11.317
78805SOL     OW38253  12.839   7.374   9.019
78805SOL    HW138254  12.851   7.287   8.981
78805SOL    HW238255  12.759   7.407   8.978
78806SOL     OW38256   7.931   5.391  10.878
78806SOL    HW138257   7.977   5.413  10.797
78806SOL    HW238258   7.886   5.471  10.903
78807SOL     OW38259   4.889  13.181  13.341
78807SOL    HW138260   4.825  13.249  13.359
78807SOL    HW238261   4.850  13.129  13.270
78808SOL     OW38262   8.765   0.190  13.486
78808SOL    HW138263   8.850   0.235  13.488
78808SOL    HW238264   8.736   0.189  13.577
78809SOL     OW38265  12.778   0.047   9.281
78809SOL    HW138266  12.767   0.136   9.316
78809SOL    HW238267  12.849   0.010   9.333
78810SOL     OW38268   3.022   4.708   6.285
78810SOL    HW138269   2.947   4.759   6.255
78810SOL    HW238270   3.047   4.748   6.367
78811SOL     OW38271   0.009   3.355   1.759
78811SOL    HW138272   0.002   3.295   1.834
78811SOL    HW238273  14.794   3.376   1.737
78812SOL     OW38274   3.504   3.619   2.711
78812SOL    HW138275   3.486   3.713   2.720
78812SOL    HW238276   3.423   3.576   2.739
78813SOL     OW38277   2.315   9.411  10.387
78813SOL    HW138278   2.243   9.454  10.340
78813SOL    HW238279   2.370   9.483  10.418
78814SOL     OW38280  11.906   7.564   3.625
78814SOL    HW138281  11.812   7.570   3.645
78814SOL    HW238282  11.949   7.605   3.701
78815SOL     OW38283  11.246   0.744  14.567
78815SOL    HW138284  11.285   0.698  14.641
78815SOL    HW238285  11.156   0.761  14.594
78816SOL     OW38286  12.354   4.126   2.213
78816SOL    HW138287  12.336   4.037   2.184
78816SOL    HW238288  12.305   4.135   2.295
78817SOL     OW38289   4.484   6.996   2.784
78817SOL    HW138290   4.509   6.910   2.750
78817SOL    HW238291   4.419   6.976   2.852
78818SOL     OW38292  14.168   0.146  13.495
78818SOL    HW138293  14.178   0.050  13.496
78818SOL    HW238294  14.227   0.174  13.425
78819SOL     OW38295   8.309   6.513   0.295
78819SOL    HW138296   8.394   6.478   0.320
78819SOL    HW238297   8.316   6.530   0.201
78820SOL     OW38298   2.862  10.691   8.558
78820SOL    HW138299   2.818  10.711   8.475
78820SOL    HW238300   2.921  10.765   8.572
78821SOL     OW38301  10.021   4.818   8.992
78821SOL    HW138302  10.114   4.841   8.989
78821SOL    HW238303   9.976   4.900   8.974
78822SOL     OW38304   1.680   7.623  10.884
78822SOL    HW138305   1.585   7.610  10.875
78822SOL    HW238306   1.689   7.702  10.937
78823SOL     OW38307   5.330   5.101  14.406
78823SOL    HW138308   5.331   5.015  14.366
78823SOL    HW238309   5.238   5.127  14.406
78824SOL     OW38310   9.308   9.760   3.036
78824SOL    HW138311   9.386   9.791   3.082
78824SOL    HW238312   9.313   9.665   3.040
78825SOL     OW38313   9.416  14.842   6.755
78825SOL    HW138314   9.425  14.838   6.851
78825SOL    HW238315   9.505  14.850   6.723
78826SOL     OW38316   8.907  14.631   3.314
78826SOL    HW138317   8.950  14.716   3.316
78826SOL    HW238318   8.901  14.604   3.405
78827SOL     OW38319  10.668   4.394   9.972
78827SOL    HW138320  10.624   4.418   9.891
78827SOL    HW238321  10.761   4.386   9.948
78828SOL     OW38322   2.464   8.631   3.614
78828SOL    HW138323   2.495   8.542   3.599
78828SOL    HW238324   2.412   8.625   3.695
78829SOL     OW38325   3.587   8.263  14.815
78829SOL    HW138326   3.508   8.265  14.761
78829SOL    HW238327   3.580   8.181  14.864
78830SOL     OW38328  12.482   2.356  10.780
78830SOL    HW138329  12.462   2.413  10.706
78830SOL    HW238330  12.406   2.364  10.838
78831SOL     OW38331   9.987   0.758   9.822
78831SOL    HW138332   9.945   0.709   9.893
78831SOL    HW238333  10.051   0.814   9.865
78832SOL     OW38334   1.158  14.463   2.198
78832SOL    HW138335   1.192  14.416   2.275
78832SOL    HW238336   1.175  14.555   2.216
78833SOL     OW38337   3.003   5.235   2.063
78833SOL    HW138338   3.097   5.238   2.047
78833SOL    HW238339   2.989   5.295   2.136
78834SOL     OW38340   3.630   5.077   2.567
78834SOL    HW138341   3.663   4.987   2.577
78834SOL    HW238342   3.704   5.132   2.594
78835SOL     OW38343   4.784  10.455   3.499
78835SOL    HW138344   4.753  10.463   3.409
78835SOL    HW238345   4.864  10.506   3.501
78836SOL     OW38346  10.430   8.506   1.822
78836SOL    HW138347  10.366   8.545   1.881
78836SOL    HW238348  10.513   8.550   1.843
78837SOL     OW38349   8.268   0.843   6.673
78837SOL    HW138350   8.325   0.819   6.600
78837SOL    HW238351   8.327   0.856   6.747
78838SOL     OW38352  11.830   1.959   8.141
78838SOL    HW138353  11.890   2.015   8.191
78838SOL    HW238354  11.883   1.924   8.070
78839SOL     OW38355  10.688  11.029   8.640
78839SOL    HW138356  10.756  11.086   8.604
78839SOL    HW238357  10.608  11.059   8.597
78840SOL     OW38358  11.956   8.023   6.145
78840SOL    HW138359  11.918   7.954   6.089
78840SOL    HW238360  12.041   7.987   6.172
78841SOL     OW38361   8.989  10.896   3.047
78841SOL    HW138362   8.953  10.808   3.059
78841SOL    HW238363   8.976  10.915   2.955
78842SOL     OW38364   3.271   1.321   2.302
78842SOL    HW138365   3.339   1.287   2.360
78842SOL    HW238366   3.301   1.409   2.280
78843SOL     OW38367  10.685  13.392   3.857
78843SOL    HW138368  10.758  13.330   3.853
78843SOL    HW238369  10.708  13.461   3.795
78844SOL     OW38370   5.403   0.018  13.940
78844SOL    HW138371   5.375  14.803  13.932
78844SOL    HW238372   5.477   0.026  13.881
78845SOL     OW38373  10.576  11.309  10.879
78845SOL    HW138374  10.648  11.265  10.833
78845SOL    HW238375  10.578  11.272  10.967
78846SOL     OW38376   5.968   4.273  12.376
78846SOL    HW138377   6.005   4.361  12.377
78846SOL    HW238378   6.007   4.231  12.299
78847SOL     OW38379   3.920  12.214   2.800
78847SOL    HW138380   3.948  12.283   2.861
78847SOL    HW238381   3.893  12.142   2.857
78848SOL     OW38382   5.853  12.201   5.574
78848SOL    HW138383   5.761  12.186   5.552
78848SOL    HW238384   5.851  12.263   5.646
78849SOL     OW38385   5.751   8.888   8.896
78849SOL    HW138386   5.846   8.897   8.891
78849SOL    HW238387   5.724   8.858   8.809
78850SOL     OW38388  14.098  10.953  10.712
78850SOL    HW138389  14.017  10.910  10.740
78850SOL    HW238390  14.070  11.023  10.654
78851SOL     OW38391   3.966   4.446   8.650
78851SOL    HW138392   3.923   4.399   8.721
78851SOL    HW238393   3.906   4.435   8.575
78852SOL     OW38394  10.130   6.176   2.234
78852SOL    HW138395  10.067   6.107   2.257
78852SOL    HW238396  10.122   6.240   2.305
78853SOL     OW38397   7.721   6.680  13.272
78853SOL    HW138398   7.807   6.642  13.256
78853SOL    HW238399   7.664   6.605  13.285
78854SOL     OW38400   4.907   3.169   6.384
78854SOL    HW138401   4.877   3.230   6.452
78854SOL    HW238402   4.887   3.212   6.302
78855SOL     OW38403   8.868   1.612  12.521
78855SOL    HW138404   8.957   1.609  12.556
78855SOL    HW238405   8.839   1.702  12.536
78856SOL     OW38406  14.492  12.233   1.096
78856SOL    HW138407  14.475  12.152   1.144
78856SOL    HW238408  14.417  12.290   1.118
78857SOL     OW38409   6.505   1.099   2.453
78857SOL    HW138410   6.467   1.176   2.412
78857SOL    HW238411   6.434   1.062   2.505
78858SOL     OW38412   7.264  11.215   7.773
78858SOL    HW138413   7.323  11.173   7.835
78858SOL    HW238414   7.320  11.272   7.720
78859SOL     OW38415  13.844  11.013   0.693
78859SOL    HW138416  13.841  10.930   0.646
78859SOL    HW238417  13.932  11.047   0.676
78860SOL     OW38418   0.347   1.451   2.187
78860SOL    HW138419   0.267   1.481   2.143
78860SOL    HW238420   0.374   1.525   2.241
78861SOL     OW38421   7.896   7.724   1.589
78861SOL    HW138422   7.885   7.684   1.502
78861SOL    HW238423   7.808   7.722   1.627
78862SOL     OW38424   1.357  14.721  13.947
78862SOL    HW138425   1.441  14.739  13.904
78862SOL    HW238426   1.293  14.772  13.898
78863SOL     OW38427   9.577   7.685  10.480
78863SOL    HW138428   9.561   7.658  10.571
78863SOL    HW238429   9.492   7.715  10.449
78864SOL     OW38430   1.757   8.384  14.677
78864SOL    HW138431   1.816   8.459  14.668
78864SOL    HW238432   1.748   8.373  14.772
78865SOL     OW38433  11.842  14.042   9.752
78865SOL    HW138434  11.879  14.118   9.708
78865SOL    HW238435  11.785  14.078   9.820
78866SOL     OW38436   0.218   1.722  11.049
78866SOL    HW138437   0.131   1.688  11.027
78866SOL    HW238438   0.212   1.816  11.035
78867SOL     OW38439   4.072   5.887   8.637
78867SOL    HW138440   4.051   5.875   8.729
78867SOL    HW238441   4.009   5.832   8.590
78868SOL     OW38442   5.294   0.125   9.406
78868SOL    HW138443   5.259   0.196   9.460
78868SOL    HW238444   5.388   0.127   9.423
78869SOL     OW38445   5.586  10.674  12.302
78869SOL    HW138446   5.631  10.714  12.376
78869SOL    HW238447   5.562  10.586  12.332
78870SOL     OW38448   3.308   2.671   7.183
78870SOL    HW138449   3.225   2.632   7.211
78870SOL    HW238450   3.290   2.708   7.097
78871SOL     OW38451   1.388  12.643   4.280
78871SOL    HW138452   1.394  12.558   4.322
78871SOL    HW238453   1.458  12.643   4.214
78872SOL     OW38454  11.679  13.277  12.486
78872SOL    HW138455  11.685  13.373  12.488
78872SOL    HW238456  11.657  13.252  12.575
78873SOL     OW38457  12.778   6.475   9.810
78873SOL    HW138458  12.705   6.431   9.853
78873SOL    HW238459  12.836   6.501   9.881
78874SOL     OW38460   1.190   5.918   6.651
78874SOL    HW138461   1.189   5.834   6.696
78874SOL    HW238462   1.114   5.965   6.685
78875SOL     OW38463  11.803   3.831  12.827
78875SOL    HW138464  11.832   3.741  12.843
78875SOL    HW238465  11.882   3.884  12.834
78876SOL     OW38466   0.294   4.025  13.349
78876SOL    HW138467   0.386   4.047  13.361
78876SOL    HW238468   0.248   4.074  13.417
78877SOL     OW38469   6.051  13.163   0.660
78877SOL    HW138470   6.065  13.070   0.678
78877SOL    HW238471   6.060  13.206   0.745
78878SOL     OW38472   5.867  12.129   2.669
78878SOL    HW138473   5.830  12.169   2.748
78878SOL    HW238474   5.790  12.109   2.615
78879SOL     OW38475  11.726  10.403   5.861
78879SOL    HW138476  11.655  10.466   5.870
78879SOL    HW238477  11.806  10.456   5.865
78880SOL     OW38478  13.374  12.481   3.706
78880SOL    HW138479  13.304  12.509   3.765
78880SOL    HW238480  13.390  12.557   3.650
78881SOL     OW38481   4.562   0.942   0.675
78881SOL    HW138482   4.582   1.031   0.703
78881SOL    HW238483   4.476   0.923   0.713
78882SOL     OW38484  12.957   8.535   2.845
78882SOL    HW138485  12.950   8.439   2.846
78882SOL    HW238486  12.868   8.566   2.830
78883SOL     OW38487   8.290  14.605   8.713
78883SOL    HW138488   8.302  14.641   8.801
78883SOL    HW238489   8.249  14.675   8.663
78884SOL     OW38490   4.084   0.490  13.286
78884SOL    HW138491   4.138   0.564  13.262
78884SOL    HW238492   4.141   0.435  13.340
78885SOL     OW38493   6.501   9.809   8.249
78885SOL    HW138494   6.441   9.835   8.320
78885SOL    HW238495   6.508   9.888   8.195
78886SOL     OW38496  10.669  12.529   3.507
78886SOL    HW138497  10.724  12.457   3.475
78886SOL    HW238498  10.666  12.590   3.433
78887SOL     OW38499  14.675  13.001   7.858
78887SOL    HW138500  14.717  13.006   7.772
78887SOL    HW238501  14.746  12.985   7.919
78888SOL     OW38502   8.083  14.483   0.819
78888SOL    HW138503   7.995  14.462   0.788
78888SOL    HW238504   8.133  14.403   0.803
78889SOL     OW38505   5.596  11.044   1.898
78889SOL    HW138506   5.565  11.123   1.943
78889SOL    HW238507   5.691  11.053   1.895
78890SOL     OW38508   1.950   0.723  10.318
78890SOL    HW138509   1.962   0.818  10.313
78890SOL    HW238510   1.984   0.690  10.236
78891SOL     OW38511  12.463   2.435  11.963
78891SOL    HW138512  12.417   2.479  12.034
78891SOL    HW238513  12.406   2.445  11.887
78892SOL     OW38514  13.371  14.067   7.618
78892SOL    HW138515  13.398  14.014   7.544
78892SOL    HW238516  13.289  14.026   7.648
78893SOL     OW38517  13.396   3.097  10.801
78893SOL    HW138518  13.454   3.066  10.732
78893SOL    HW238519  13.317   3.127  10.754
78894SOL     OW38520  10.959   1.445   8.986
78894SOL    HW138521  10.928   1.529   8.952
78894SOL    HW238522  11.018   1.411   8.919
78895SOL     OW38523   1.783  10.402   8.471
78895SOL    HW138524   1.815  10.490   8.493
78895SOL    HW238525   1.688  10.410   8.472
78896SOL     OW38526  10.804   4.254   4.166
78896SOL    HW138527  10.836   4.214   4.246
78896SOL    HW238528  10.709   4.248   4.172
78897SOL     OW38529   7.541  13.086   2.112
78897SOL    HW138530   7.492  13.129   2.042
78897SOL    HW238531   7.623  13.058   2.072
78898SOL     OW38532   7.265  12.976   1.976
78898SOL    HW138533   7.315  13.057   1.965
78898SOL    HW238534   7.330  12.906   1.965
78899SOL     OW38535  10.256  14.061   3.944
78899SOL    HW138536  10.309  13.993   3.986
78899SOL    HW238537  10.193  14.013   3.891
78900SOL     OW38538  11.865   3.514  13.166
78900SOL    HW138539  11.803   3.527  13.237
78900SOL    HW238540  11.814   3.528  13.086
78901SOL     OW38541   8.472   5.032  11.127
78901SOL    HW138542   8.377   5.027  11.140
78901SOL    HW238543   8.483   5.093  11.055
78902SOL     OW38544  14.872  13.648   6.033
78902SOL    HW138545   0.000  13.647   5.937
78902SOL    HW238546  14.802  13.586   6.054
78903SOL     OW38547  14.538   8.424   5.999
78903SOL    HW138548  14.517   8.491   5.933
78903SOL    HW238549  14.472   8.437   6.067
78904SOL     OW38550   7.079  11.096  12.140
78904SOL    HW138551   7.155  11.072  12.087
78904SOL    HW238552   7.085  11.192  12.147
78905SOL     OW38553  10.795  12.516   8.432
78905SOL    HW138554  10.765  12.586   8.490
78905SOL    HW238555  10.716  12.467   8.411
78906SOL     OW38556  10.689  10.281   0.339
78906SOL    HW138557  10.629  10.278   0.414
78906SOL    HW238558  10.756  10.343   0.365
78907SOL     OW38559   8.910   5.810   9.467
78907SOL    HW138560   8.985   5.816   9.407
78907SOL    HW238561   8.934   5.867   9.540
78908SOL     OW38562  13.065   8.343  11.332
78908SOL    HW138563  13.122   8.415  11.307
78908SOL    HW238564  13.107   8.265  11.295
78909SOL     OW38565   3.084  12.715   3.884
78909SOL    HW138566   3.047  12.730   3.971
78909SOL    HW238567   3.009  12.721   3.825
78910SOL     OW38568   8.146   9.343   4.691
78910SOL    HW138569   8.240   9.342   4.707
78910SOL    HW238570   8.107   9.312   4.773
78911SOL     OW38571   1.967   4.873  13.619
78911SOL    HW138572   2.016   4.802  13.578
78911SOL    HW238573   1.880   4.869  13.579
78912SOL     OW38574   0.366   9.247   0.564
78912SOL    HW138575   0.372   9.262   0.470
78912SOL    HW238576   0.295   9.304   0.593
78913SOL     OW38577  11.918   5.055   0.842
78913SOL    HW138578  11.996   5.000   0.834
78913SOL    HW238579  11.845   4.995   0.823
78914SOL     OW38580  12.619   6.472   2.742
78914SOL    HW138581  12.560   6.532   2.696
78914SOL    HW238582  12.566   6.394   2.760
78915SOL     OW38583  12.149   7.786   7.200
78915SOL    HW138584  12.081   7.776   7.133
78915SOL    HW238585  12.157   7.699   7.240
78916SOL     OW38586   7.387  10.468   5.333
78916SOL    HW138587   7.358  10.522   5.406
78916SOL    HW238588   7.463  10.514   5.298
78917SOL     OW38589  12.492   9.878   5.524
78917SOL    HW138590  12.558   9.884   5.455
78917SOL    HW238591  12.421   9.935   5.494
78918SOL     OW38592   4.736   9.087   6.046
78918SOL    HW138593   4.819   9.095   6.093
78918SOL    HW238594   4.754   9.023   5.977
78919SOL     OW38595  10.053   7.928  11.544
78919SOL    HW138596  10.083   7.985  11.472
78919SOL    HW238597  10.003   7.985  11.601
78920SOL     OW38598  11.179   6.478   0.742
78920SOL    HW138599  11.176   6.570   0.769
78920SOL    HW238600  11.215   6.480   0.653
78921SOL     OW38601   5.050   4.052   6.446
78921SOL    HW138602   5.108   4.019   6.377
78921SOL    HW238603   5.100   4.038   6.527
78922SOL     OW38604   0.686   7.804   5.257
78922SOL    HW138605   0.737   7.846   5.188
78922SOL    HW238606   0.750   7.754   5.308
78923SOL     OW38607  12.245   8.733   2.363
78923SOL    HW138608  12.294   8.683   2.429
78923SOL    HW238609  12.156   8.736   2.397
78924SOL     OW38610   9.832   8.745  14.346
78924SOL    HW138611   9.874   8.778  14.267
78924SOL    HW238612   9.904   8.714  14.400
78925SOL     OW38613   8.594  13.121  14.405
78925SOL    HW138614   8.510  13.117  14.359
78925SOL    HW238615   8.619  13.029  14.418
78926SOL     OW38616  13.448  11.700   8.250
78926SOL    HW138617  13.485  11.761   8.315
78926SOL    HW238618  13.514  11.631   8.242
78927SOL     OW38619  12.125   8.287  11.604
78927SOL    HW138620  12.203   8.237  11.630
78927SOL    HW238621  12.104   8.339  11.681
78928SOL     OW38622  13.175   6.094  10.325
78928SOL    HW138623  13.231   6.148  10.380
78928SOL    HW238624  13.172   6.141  10.241
78929SOL     OW38625   1.505  10.613   4.189
78929SOL    HW138626   1.467  10.552   4.252
78929SOL    HW238627   1.472  10.583   4.104
78930SOL     OW38628   9.502   5.383   6.550
78930SOL    HW138629   9.461   5.297   6.542
78930SOL    HW238630   9.447   5.440   6.497
78931SOL     OW38631   0.203   3.552  13.227
78931SOL    HW138632   0.243   3.493  13.291
78931SOL    HW238633   0.171   3.625  13.279
78932SOL     OW38634  12.618  13.772   9.899
78932SOL    HW138635  12.630  13.754   9.806
78932SOL    HW238636  12.584  13.690   9.935
78933SOL     OW38637   8.010   7.650  14.032
78933SOL    HW138638   7.958   7.682  13.959
78933SOL    HW238639   8.027   7.727  14.086
78934SOL     OW38640   2.460   5.231   1.427
78934SOL    HW138641   2.489   5.268   1.511
78934SOL    HW238642   2.539   5.189   1.392
78935SOL     OW38643   2.580   8.646   8.737
78935SOL    HW138644   2.636   8.627   8.812
78935SOL    HW238645   2.509   8.581   8.743
78936SOL     OW38646   3.871  14.756   0.143
78936SOL    HW138647   3.852  14.814   0.216
78936SOL    HW238648   3.787  14.742   0.100
78937SOL     OW38649  12.785   2.571  12.682
78937SOL    HW138650  12.740   2.506  12.628
78937SOL    HW238651  12.878   2.547  12.677
78938SOL     OW38652   2.743   8.396  13.440
78938SOL    HW138653   2.658   8.370  13.406
78938SOL    HW238654   2.727   8.480  13.485
78939SOL     OW38655   9.766   1.344   3.178
78939SOL    HW138656   9.815   1.398   3.116
78939SOL    HW238657   9.704   1.404   3.219
78940SOL     OW38658   6.041  14.863   8.703
78940SOL    HW138659   6.049  14.769   8.718
78940SOL    HW238660   6.085   0.027   8.779
78941SOL     OW38661   0.912   4.530   7.311
78941SOL    HW138662   0.875   4.467   7.249
78941SOL    HW238663   0.983   4.572   7.263
78942SOL     OW38664   0.812  14.502   1.036
78942SOL    HW138665   0.776  14.438   0.975
78942SOL    HW238666   0.799  14.463   1.123
78943SOL     OW38667   5.155   3.853   9.808
78943SOL    HW138668   5.078   3.849   9.752
78943SOL    HW238669   5.132   3.915   9.877
78944SOL     OW38670   6.630   3.858  12.042
78944SOL    HW138671   6.719   3.843  12.073
78944SOL    HW238672   6.641   3.905  11.960
78945SOL     OW38673   8.037   0.555   1.794
78945SOL    HW138674   8.045   0.475   1.846
78945SOL    HW238675   8.126   0.575   1.766
78946SOL     OW38676   5.130   2.495   3.184
78946SOL    HW138677   5.060   2.534   3.132
78946SOL    HW238678   5.187   2.569   3.206
78947SOL     OW38679   5.889  11.897  10.722
78947SOL    HW138680   5.812  11.925  10.771
78947SOL    HW238681   5.858  11.825  10.667
78948SOL     OW38682   3.401  11.867  12.344
78948SOL    HW138683   3.412  11.776  12.374
78948SOL    HW238684   3.384  11.916  12.424
78949SOL     OW38685   4.889   5.339   1.480
78949SOL    HW138686   4.853   5.412   1.532
78949SOL    HW238687   4.923   5.381   1.401
78950SOL     OW38688  12.279   2.842  10.541
78950SOL    HW138689  12.355   2.871  10.492
78950SOL    HW238690  12.207   2.843  10.478
78951SOL     OW38691   6.550   6.526   3.297
78951SOL    HW138692   6.470   6.570   3.324
78951SOL    HW238693   6.621   6.587   3.317
78952SOL     OW38694  12.568   8.126   2.314
78952SOL    HW138695  12.506   8.191   2.346
78952SOL    HW238696  12.585   8.151   2.223
78953SOL     OW38697  13.989   1.831   4.025
78953SOL    HW138698  14.069   1.779   4.021
78953SOL    HW238699  14.009   1.908   3.972
78954SOL     OW38700   4.027   7.049   3.317
78954SOL    HW138701   4.054   7.047   3.409
78954SOL    HW238702   4.035   7.141   3.292
78955SOL     OW38703   2.944  12.371   7.547
78955SOL    HW138704   2.925  12.440   7.611
78955SOL    HW238705   2.978  12.298   7.599
78956SOL     OW38706  11.203  14.125   5.327
78956SOL    HW138707  11.242  14.212   5.339
78956SOL    HW238708  11.149  14.134   5.247
78957SOL     OW38709   8.083   9.652   2.960
78957SOL    HW138710   8.019   9.664   3.031
78957SOL    HW238711   8.058   9.718   2.895
78958SOL     OW38712  10.679   1.942   3.094
78958SOL    HW138713  10.698   1.977   3.007
78958SOL    HW238714  10.680   2.018   3.152
78959SOL     OW38715   6.162   6.931   1.814
78959SOL    HW138716   6.121   7.014   1.837
78959SOL    HW238717   6.223   6.952   1.743
78960SOL     OW38718   6.908   0.761   0.455
78960SOL    HW138719   7.002   0.776   0.446
78960SOL    HW238720   6.879   0.738   0.367
78961SOL     OW38721   6.214   8.008   6.221
78961SOL    HW138722   6.208   7.997   6.315
78961SOL    HW238723   6.174   8.094   6.204
78962SOL     OW38724  12.262   3.909   7.194
78962SOL    HW138725  12.271   3.905   7.289
78962SOL    HW238726  12.344   3.874   7.160
78963SOL     OW38727   2.514   6.443  13.000
78963SOL    HW138728   2.552   6.356  13.005
78963SOL    HW238729   2.455   6.439  12.925
78964SOL     OW38730   5.870  11.812   4.883
78964SOL    HW138731   5.926  11.772   4.816
78964SOL    HW238732   5.920  11.803   4.964
78965SOL     OW38733  11.143   4.873  14.533
78965SOL    HW138734  11.181   4.870  14.620
78965SOL    HW238735  11.213   4.908  14.477
78966SOL     OW38736   0.232  11.002   1.136
78966SOL    HW138737   0.191  10.975   1.218
78966SOL    HW238738   0.177  10.964   1.067
78967SOL     OW38739  10.630   7.417   3.355
78967SOL    HW138740  10.721   7.425   3.385
78967SOL    HW238741  10.633   7.444   3.263
78968SOL     OW38742  10.263   4.129   7.709
78968SOL    HW138743  10.189   4.078   7.676
78968SOL    HW238744  10.238   4.220   7.692
78969SOL     OW38745  14.224   6.926   3.316
78969SOL    HW138746  14.207   6.868   3.242
78969SOL    HW238747  14.288   6.879   3.370
78970SOL     OW38748  12.394  12.075   5.086
78970SOL    HW138749  12.444  12.153   5.110
78970SOL    HW238750  12.335  12.060   5.160
78971SOL     OW38751   6.879   0.601  14.131
78971SOL    HW138752   6.816   0.529  14.119
78971SOL    HW238753   6.829   0.670  14.174
78972SOL     OW38754   6.597  10.737   4.094
78972SOL    HW138755   6.523  10.709   4.041
78972SOL    HW238756   6.622  10.658   4.143
78973SOL     OW38757   6.467  13.369  14.439
78973SOL    HW138758   6.471  13.391  14.346
78973SOL    HW238759   6.541  13.309  14.453
78974SOL     OW38760  10.226   5.951  13.944
78974SOL    HW138761  10.149   5.893  13.945
78974SOL    HW238762  10.292   5.902  13.894
78975SOL     OW38763  11.943   9.212   9.125
78975SOL    HW138764  11.859   9.174   9.101
78975SOL    HW238765  11.986   9.230   9.042
78976SOL     OW38766   4.887  13.189  13.660
78976SOL    HW138767   4.934  13.127  13.604
78976SOL    HW238768   4.798  13.154  13.665
78977SOL     OW38769   8.036  12.094   7.386
78977SOL    HW138770   7.952  12.056   7.408
78977SOL    HW238771   8.042  12.173   7.441
78978SOL     OW38772   8.877  14.711  13.225
78978SOL    HW138773   8.860  14.718  13.132
78978SOL    HW238774   8.894  14.618  13.241
78979SOL     OW38775  14.687  12.488   5.723
78979SOL    HW138776  14.781  12.475   5.713
78979SOL    HW238777  14.662  12.428   5.794
78980SOL     OW38778   4.494  11.520   5.552
78980SOL    HW138779   4.533  11.601   5.584
78980SOL    HW238780   4.527  11.452   5.611
78981SOL     OW38781  13.699   0.233   8.229
78981SOL    HW138782  13.794   0.221   8.219
78981SOL    HW238783  13.664   0.144   8.223
78982SOL     OW38784   9.240   3.137   9.235
78982SOL    HW138785   9.186   3.161   9.310
78982SOL    HW238786   9.322   3.105   9.273
78983SOL     OW38787   5.105   3.992   9.034
78983SOL    HW138788   5.139   4.080   9.022
78983SOL    HW238789   5.177   3.934   9.010
78984SOL     OW38790  10.577   4.985   1.483
78984SOL    HW138791  10.527   4.983   1.565
78984SOL    HW238792  10.627   4.904   1.484
78985SOL     OW38793   2.781   2.314  11.087
78985SOL    HW138794   2.810   2.405  11.094
78985SOL    HW238795   2.861   2.264  11.075
78986SOL     OW38796  11.549  12.295   4.949
78986SOL    HW138797  11.569  12.202   4.952
78986SOL    HW238798  11.516  12.309   4.860
78987SOL     OW38799   1.689   0.377  10.595
78987SOL    HW138800   1.709   0.379  10.501
78987SOL    HW238801   1.599   0.409  10.601
78988SOL     OW38802   9.135   5.431   1.122
78988SOL    HW138803   9.096   5.518   1.122
78988SOL    HW238804   9.072   5.377   1.073
78989SOL     OW38805   8.322   8.447   8.843
78989SOL    HW138806   8.354   8.492   8.922
78989SOL    HW238807   8.227   8.449   8.852
78990SOL     OW38808   4.570   5.371   2.974
78990SOL    HW138809   4.618   5.289   2.986
78990SOL    HW238810   4.593   5.399   2.885
78991SOL     OW38811  11.470   3.742   5.411
78991SOL    HW138812  11.420   3.738   5.330
78991SOL    HW238813  11.442   3.824   5.452
78992SOL     OW38814  14.674   3.558   6.198
78992SOL    HW138815  14.723   3.488   6.155
78992SOL    HW238816  14.736   3.631   6.203
78993SOL     OW38817   6.101   3.585  11.024
78993SOL    HW138818   6.049   3.505  11.029
78993SOL    HW238819   6.065   3.642  11.091
78994SOL     OW38820  11.754   9.769   5.653
78994SOL    HW138821  11.793   9.693   5.611
78994SOL    HW238822  11.828   9.825   5.677
78995SOL     OW38823  10.858   6.750  13.451
78995SOL    HW138824  10.856   6.674  13.393
78995SOL    HW238825  10.856   6.713  13.539
78996SOL     OW38826  11.899   4.561  10.419
78996SOL    HW138827  11.822   4.617  10.408
78996SOL    HW238828  11.876   4.504  10.493
78997SOL     OW38829   1.734   8.223  10.316
78997SOL    HW138830   1.773   8.200  10.232
78997SOL    HW238831   1.642   8.240  10.296
78998SOL     OW38832  12.735   7.562  10.331
78998SOL    HW138833  12.761   7.602  10.414
78998SOL    HW238834  12.776   7.476  10.331
78999SOL     OW38835  14.396  13.278  10.716
78999SOL    HW138836  14.402  13.283  10.812
78999SOL    HW238837  14.487  13.276  10.687
79000SOL     OW38838   1.803   8.383   0.097
79000SOL    HW138839   1.824   8.473   0.119
79000SOL    HW238840   1.884   8.346   0.064
79001SOL     OW38841   2.838   5.720  12.364
79001SOL    HW138842   2.823   5.626  12.354
79001SOL    HW238843   2.918   5.726  12.416
79002SOL     OW38844   0.794  12.518   6.327
79002SOL    HW138845   0.863  12.494   6.389
79002SOL    HW238846   0.724  12.455   6.344
79003SOL     OW38847   1.113  13.824   6.490
79003SOL    HW138848   1.119  13.729   6.500
79003SOL    HW238849   1.124  13.859   6.579
79004SOL     OW38850  11.550   7.124   6.791
79004SOL    HW138851  11.508   7.182   6.727
79004SOL    HW238852  11.623   7.176   6.825
79005SOL     OW38853   6.989   0.062   8.322
79005SOL    HW138854   6.920   0.029   8.264
79005SOL    HW238855   7.023   0.140   8.276
79006SOL     OW38856   2.821  12.554  11.128
79006SOL    HW138857   2.909  12.520  11.113
79006SOL    HW238858   2.784  12.495  11.194
79007SOL     OW38859   7.705   2.324   2.886
79007SOL    HW138860   7.654   2.398   2.853
79007SOL    HW238861   7.794   2.358   2.895
79008SOL     OW38862   8.720   1.961   5.360
79008SOL    HW138863   8.813   1.959   5.381
79008SOL    HW238864   8.697   2.053   5.363
79009SOL     OW38865   7.707   4.946   4.240
79009SOL    HW138866   7.750   4.871   4.281
79009SOL    HW238867   7.775   5.014   4.237
79010SOL     OW38868   4.998   0.364   5.755
79010SOL    HW138869   4.925   0.302   5.762
79010SOL    HW238870   5.076   0.311   5.773
79011SOL     OW38871   3.868  12.488   0.022
79011SOL    HW138872   3.939  12.516  14.840
79011SOL    HW238873   3.884  12.537   0.103
79012SOL     OW38874   5.281   2.432   6.951
79012SOL    HW138875   5.303   2.342   6.927
79012SOL    HW238876   5.198   2.425   6.998
79013SOL     OW38877  11.890   3.424   9.706
79013SOL    HW138878  11.958   3.439   9.772
79013SOL    HW238879  11.810   3.408   9.756
79014SOL     OW38880  10.706  13.153   6.662
79014SOL    HW138881  10.723  13.197   6.745
79014SOL    HW238882  10.788  13.109   6.640
79015SOL     OW38883   4.296  11.993  11.410
79015SOL    HW138884   4.246  11.917  11.379
79015SOL    HW238885   4.254  12.017  11.492
79016SOL     OW38886   5.542   0.376  12.515
79016SOL    HW138887   5.617   0.339  12.469
79016SOL    HW238888   5.482   0.302  12.526
79017SOL     OW38889   6.482   3.897  13.184
79017SOL    HW138890   6.543   3.823  13.186
79017SOL    HW238891   6.468   3.919  13.276
79018SOL     OW38892   7.266   4.806  13.728
79018SOL    HW138893   7.269   4.827  13.635
79018SOL    HW238894   7.297   4.715  13.733
79019SOL     OW38895   5.354  12.261   3.701
79019SOL    HW138896   5.394  12.186   3.746
79019SOL    HW238897   5.428  12.314   3.674
79020SOL     OW38898   0.482   5.722  14.680
79020SOL    HW138899   0.391   5.726  14.708
79020SOL    HW238900   0.481   5.761  14.592
79021SOL     OW38901  10.671  13.652   4.903
79021SOL    HW138902  10.760  13.621   4.885
79021SOL    HW238903  10.631  13.658   4.816
79022SOL     OW38904   3.507   3.261   8.539
79022SOL    HW138905   3.455   3.325   8.587
79022SOL    HW238906   3.452   3.182   8.537
79023SOL     OW38907   4.151   2.154  11.405
79023SOL    HW138908   4.072   2.208  11.412
79023SOL    HW238909   4.215   2.198  11.460
79024SOL     OW38910   7.641  10.107   3.086
79024SOL    HW138911   7.582  10.151   3.147
79024SOL    HW238912   7.584  10.050   3.033
79025SOL     OW38913   0.467   9.118   1.512
79025SOL    HW138914   0.507   9.151   1.593
79025SOL    HW238915   0.391   9.174   1.499
79026SOL     OW38916  12.752   5.366   3.473
79026SOL    HW138917  12.796   5.412   3.401
79026SOL    HW238918  12.721   5.284   3.433
79027SOL     OW38919  14.189   7.827   7.301
79027SOL    HW138920  14.131   7.752   7.315
79027SOL    HW238921  14.192   7.871   7.386
79028SOL     OW38922   2.022  13.896  13.768
79028SOL    HW138923   2.017  13.940  13.683
79028SOL    HW238924   2.085  13.825  13.753
79029SOL     OW38925   4.276   0.142  10.993
79029SOL    HW138926   4.246   0.066  11.044
79029SOL    HW238927   4.197   0.173  10.949
79030SOL     OW38928   6.217   3.807  13.118
79030SOL    HW138929   6.296   3.849  13.151
79030SOL    HW238930   6.149   3.874  13.123
79031SOL     OW38931  13.411  13.738   4.106
79031SOL    HW138932  13.413  13.686   4.186
79031SOL    HW238933  13.320  13.768   4.099
79032SOL     OW38934   4.582   4.251   5.738
79032SOL    HW138935   4.639   4.175   5.744
79032SOL    HW238936   4.502   4.218   5.696
79033SOL     OW38937  12.877   3.886   6.437
79033SOL    HW138938  12.916   3.920   6.356
79033SOL    HW238939  12.935   3.916   6.506
79034SOL     OW38940  13.895  10.640   5.385
79034SOL    HW138941  13.869  10.643   5.293
79034SOL    HW238942  13.897  10.732   5.412
79035SOL     OW38943   5.978  14.086  13.911
79035SOL    HW138944   6.000  14.149  13.980
79035SOL    HW238945   5.883  14.093  13.901
79036SOL     OW38946  11.432   0.454  11.331
79036SOL    HW138947  11.459   0.424  11.418
79036SOL    HW238948  11.505   0.509  11.302
79037SOL     OW38949   5.106   4.612   6.134
79037SOL    HW138950   5.075   4.683   6.190
79037SOL    HW238951   5.145   4.657   6.059
79038SOL     OW38952   8.943   5.663   0.210
79038SOL    HW138953   8.914   5.625   0.127
79038SOL    HW238954   8.999   5.597   0.249
79039SOL     OW38955   4.078   9.539   7.083
79039SOL    HW138956   4.107   9.481   7.012
79039SOL    HW238957   4.081   9.627   7.045
79040SOL     OW38958   6.916  11.589   5.126
79040SOL    HW138959   6.863  11.528   5.074
79040SOL    HW238960   6.872  11.593   5.211
79041SOL     OW38961  13.381   2.720   4.618
79041SOL    HW138962  13.362   2.746   4.528
79041SOL    HW238963  13.462   2.765   4.639
79042SOL     OW38964  13.756   0.548  10.513
79042SOL    HW138965  13.778   0.618  10.451
79042SOL    HW238966  13.748   0.592  10.597
79043SOL     OW38967  13.604   4.717   4.822
79043SOL    HW138968  13.569   4.777   4.888
79043SOL    HW238969  13.528   4.672   4.787
79044SOL     OW38970   7.488   5.680  11.929
79044SOL    HW138971   7.583   5.672  11.937
79044SOL    HW238972   7.465   5.615  11.862
79045SOL     OW38973   8.709  12.642   7.208
79045SOL    HW138974   8.765  12.572   7.241
79045SOL    HW238975   8.644  12.597   7.153
79046SOL     OW38976  10.945   6.772  12.442
79046SOL    HW138977  10.856   6.794  12.469
79046SOL    HW238978  10.936   6.690  12.393
79047SOL     OW38979   1.364  11.711   9.294
79047SOL    HW138980   1.339  11.655   9.367
79047SOL    HW238981   1.340  11.661   9.216
79048SOL     OW38982   0.087   4.043   7.551
79048SOL    HW138983   0.043   4.016   7.631
79048SOL    HW238984   0.024   4.027   7.481
79049SOL     OW38985   0.020   7.974   4.102
79049SOL    HW138986   0.112   7.982   4.129
79049SOL    HW238987   0.025   7.947   4.010
79050SOL     OW38988   9.537  10.628   5.262
79050SOL    HW138989   9.510  10.633   5.353
79050SOL    HW238990   9.551  10.535   5.245
79051SOL     OW38991   0.329   2.623   4.269
79051SOL    HW138992   0.324   2.577   4.353
79051SOL    HW238993   0.363   2.710   4.292
79052SOL     OW38994   5.788   0.577   0.012
79052SOL    HW138995   5.737   0.570   0.093
79052SOL    HW238996   5.768   0.664  14.855
79053SOL     OW38997  11.456  12.868  12.359
79053SOL    HW138998  11.382  12.927  12.346
79053SOL    HW238999  11.533  12.924  12.352
79054SOL     OW39000   7.504   8.293  13.920
79054SOL    HW139001   7.474   8.230  13.986
79054SOL    HW239002   7.556   8.357  13.969
79055SOL     OW39003  14.651  11.603  11.197
79055SOL    HW139004  14.608  11.527  11.236
79055SOL    HW239005  14.697  11.645  11.270
79056SOL     OW39006   9.468   7.179  13.380
79056SOL    HW139007   9.444   7.244  13.446
79056SOL    HW239008   9.400   7.112  13.386
79057SOL     OW39009  10.445   7.050   5.408
79057SOL    HW139010  10.355   7.082   5.399
79057SOL    HW239011  10.450   6.976   5.348
79058SOL     OW39012  11.430  10.573   4.962
79058SOL    HW139013  11.344  10.602   4.992
79058SOL    HW239014  11.488  10.590   5.036
79059SOL     OW39015   5.257   4.038   5.563
79059SOL    HW139016   5.304   4.077   5.637
79059SOL    HW239017   5.192   3.981   5.603
79060SOL     OW39018   0.168   5.207   6.274
79060SOL    HW139019   0.079   5.240   6.276
79060SOL    HW239020   0.223   5.285   6.275
79061SOL     OW39021  12.425   0.285  14.747
79061SOL    HW139022  12.395   0.195  14.759
79061SOL    HW239023  12.518   0.283  14.771
79062SOL     OW39024   9.017   6.008   5.729
79062SOL    HW139025   8.970   5.939   5.683
79062SOL    HW239026   8.969   6.019   5.811
79063SOL     OW39027   8.580   4.297   3.259
79063SOL    HW139028   8.671   4.276   3.279
79063SOL    HW239029   8.551   4.226   3.201
79064SOL     OW39030   0.567  13.442  14.478
79064SOL    HW139031   0.548  13.451  14.572
79064SOL    HW239032   0.488  13.475  14.434
79065SOL     OW39033  12.707   0.513  12.270
79065SOL    HW139034  12.764   0.464  12.211
79065SOL    HW239035  12.734   0.604  12.259
79066SOL     OW39036   7.843   8.819   2.306
79066SOL    HW139037   7.872   8.783   2.390
79066SOL    HW239038   7.849   8.914   2.317
79067SOL     OW39039   0.154   0.234   9.453
79067SOL    HW139040   0.098   0.311   9.460
79067SOL    HW239041   0.187   0.220   9.541
79068SOL     OW39042   7.574   9.516   6.239
79068SOL    HW139043   7.650   9.502   6.182
79068SOL    HW239044   7.531   9.431   6.243
79069SOL     OW39045  11.889  11.882  13.252
79069SOL    HW139046  11.795  11.883  13.235
79069SOL    HW239047  11.898  11.905  13.344
79070SOL     OW39048  12.484   5.840   4.782
79070SOL    HW139049  12.403   5.790   4.789
79070SOL    HW239050  12.547   5.791   4.835
79071SOL     OW39051   5.352   3.919  12.619
79071SOL    HW139052   5.321   3.859  12.686
79071SOL    HW239053   5.434   3.881  12.588
79072SOL     OW39054   1.926  14.513  10.792
79072SOL    HW139055   1.976  14.587  10.825
79072SOL    HW239056   1.838  14.546  10.779
79073SOL     OW39057   8.953  11.362   5.271
79073SOL    HW139058   8.887  11.339   5.336
79073SOL    HW239059   8.962  11.283   5.218
79074SOL     OW39060   1.486  12.298   3.176
79074SOL    HW139061   1.491  12.238   3.101
79074SOL    HW239062   1.553  12.364   3.159
79075SOL     OW39063   7.257   2.442   8.517
79075SOL    HW139064   7.287   2.527   8.551
79075SOL    HW239065   7.300   2.435   8.431
79076SOL     OW39066  10.134  10.754  11.290
79076SOL    HW139067  10.043  10.750  11.319
79076SOL    HW239068  10.167  10.836  11.327
79077SOL     OW39069  12.236   4.042  10.232
79077SOL    HW139070  12.202   3.961  10.269
79077SOL    HW239071  12.294   4.077  10.299
79078SOL     OW39072   7.057   8.126  14.704
79078SOL    HW139073   7.026   8.035  14.708
79078SOL    HW239074   7.129   8.124  14.640
79079SOL     OW39075   1.765  11.689  10.995
79079SOL    HW139076   1.720  11.605  10.984
79079SOL    HW239077   1.711  11.751  10.946
79080SOL     OW39078   1.387   7.454   3.856
79080SOL    HW139079   1.463   7.460   3.914
79080SOL    HW239080   1.355   7.364   3.868
79081SOL     OW39081   8.358   9.140   3.463
79081SOL    HW139082   8.381   9.138   3.370
79081SOL    HW239083   8.268   9.174   3.464
79082SOL     OW39084   2.797   4.895  11.856
79082SOL    HW139085   2.775   4.823  11.796
79082SOL    HW239086   2.774   4.974  11.806
79083SOL     OW39087   5.336   2.382  10.749
79083SOL    HW139088   5.410   2.374  10.809
79083SOL    HW239089   5.336   2.300  10.699
79084SOL     OW39090  12.756  14.617   2.776
79084SOL    HW139091  12.852  14.614   2.776
79084SOL    HW239092  12.733  14.631   2.684
79085SOL     OW39093   0.201   4.041   0.020
79085SOL    HW139094   0.268   3.974   0.035
79085SOL    HW239095   0.171   4.065   0.108
79086SOL     OW39096  10.624  13.403   7.125
79086SOL    HW139097  10.656  13.443   7.206
79086SOL    HW239098  10.602  13.313   7.150
79087SOL     OW39099   8.104   5.590   0.070
79087SOL    HW139100   8.148   5.665   0.030
79087SOL    HW239101   8.077   5.535  14.873
79088SOL     OW39102   3.853   1.223   9.155
79088SOL    HW139103   3.812   1.305   9.130
79088SOL    HW239104   3.886   1.186   9.073
79089SOL     OW39105   2.510   2.524   7.257
79089SOL    HW139106   2.439   2.588   7.254
79089SOL    HW239107   2.590   2.576   7.263
79090SOL     OW39108   9.576  13.068  11.002
79090SOL    HW139109   9.635  13.126  11.050
79090SOL    HW239110   9.506  13.125  10.972
79091SOL     OW39111  10.376   3.396   2.242
79091SOL    HW139112  10.369   3.342   2.164
79091SOL    HW239113  10.454   3.363   2.287
79092SOL     OW39114   5.006   4.438  13.985
79092SOL    HW139115   5.053   4.518  14.009
79092SOL    HW239116   5.075   4.375  13.967
79093SOL     OW39117   4.010  11.770  13.076
79093SOL    HW139118   3.968  11.784  13.160
79093SOL    HW239119   4.085  11.830  13.076
79094SOL     OW39120   1.463   5.910  11.163
79094SOL    HW139121   1.497   5.943  11.080
79094SOL    HW239122   1.445   5.988  11.215
79095SOL     OW39123  10.359   0.912  14.818
79095SOL    HW139124  10.349   1.003  14.845
79095SOL    HW239125  10.386   0.865   0.020
79096SOL     OW39126   2.302   0.225   1.516
79096SOL    HW139127   2.351   0.269   1.446
79096SOL    HW239128   2.211   0.249   1.500
79097SOL     OW39129   2.203   1.453   7.664
79097SOL    HW139130   2.118   1.424   7.632
79097SOL    HW239131   2.250   1.479   7.584
79098SOL     OW39132   6.074   6.757   1.604
79098SOL    HW139133   6.137   6.785   1.671
79098SOL    HW239134   6.127   6.704   1.543
79099SOL     OW39135  10.318   6.466   7.196
79099SOL    HW139136  10.376   6.490   7.269
79099SOL    HW239137  10.354   6.384   7.163
79100SOL     OW39138   2.155  10.933  12.192
79100SOL    HW139139   2.130  11.012  12.145
79100SOL    HW239140   2.198  10.964  12.272
79101SOL     OW39141  14.401  10.741   0.107
79101SOL    HW139142  14.424  10.811   0.169
79101SOL    HW239143  14.484  10.718   0.065
79102SOL     OW39144  14.107   6.779   5.407
79102SOL    HW139145  14.190   6.755   5.447
79102SOL    HW239146  14.064   6.835   5.472
79103SOL     OW39147   0.792   9.750   8.669
79103SOL    HW139148   0.780   9.694   8.593
79103SOL    HW239149   0.720   9.726   8.728
79104SOL     OW39150   1.187   4.394   9.075
79104SOL    HW139151   1.099   4.380   9.041
79104SOL    HW239152   1.174   4.451   9.151
79105SOL     OW39153   9.196   7.785   0.542
79105SOL    HW139154   9.205   7.780   0.447
79105SOL    HW239155   9.282   7.757   0.575
79106SOL     OW39156   9.648  11.059   4.811
79106SOL    HW139157   9.743  11.048   4.802
79106SOL    HW239158   9.616  11.069   4.721
79107SOL     OW39159   7.450   0.174  14.279
79107SOL    HW139160   7.445   0.263  14.314
79107SOL    HW239161   7.468   0.185  14.186
79108SOL     OW39162  14.643  12.364  13.663
79108SOL    HW139163  14.643  12.450  13.705
79108SOL    HW239164  14.553  12.334  13.670
79109SOL     OW39165   3.333   7.136   6.986
79109SOL    HW139166   3.386   7.198   6.937
79109SOL    HW239167   3.374   7.133   7.073
79110SOL     OW39168   2.646   6.147  11.378
79110SOL    HW139169   2.687   6.149  11.291
79110SOL    HW239170   2.572   6.087  11.367
79111SOL     OW39171  13.538  14.400   9.488
79111SOL    HW139172  13.584  14.432   9.565
79111SOL    HW239173  13.490  14.323   9.520
79112SOL     OW39174   6.151   2.169   1.323
79112SOL    HW139175   6.085   2.145   1.387
79112SOL    HW239176   6.128   2.119   1.245
79113SOL     OW39177   0.258   9.270   8.599
79113SOL    HW139178   0.252   9.361   8.570
79113SOL    HW239179   0.196   9.264   8.672
79114SOL     OW39180   7.188   1.748  10.037
79114SOL    HW139181   7.204   1.666   9.990
79114SOL    HW239182   7.103   1.778  10.004
79115SOL     OW39183  13.155  13.872  12.929
79115SOL    HW139184  13.222  13.852  12.994
79115SOL    HW239185  13.122  13.958  12.953
79116SOL     OW39186  14.455   2.628   0.007
79116SOL    HW139187  14.478   2.650  14.793
79116SOL    HW239188  14.467   2.710   0.055
79117SOL     OW39189  11.978  11.877  12.963
79117SOL    HW139190  12.041  11.808  12.947
79117SOL    HW239191  11.944  11.860  13.050
79118SOL     OW39192   1.080   2.360  10.590
79118SOL    HW139193   1.061   2.328  10.501
79118SOL    HW239194   1.007   2.327  10.643
79119SOL     OW39195  14.168   6.148   0.615
79119SOL    HW139196  14.195   6.172   0.527
79119SOL    HW239197  14.094   6.088   0.602
79120SOL     OW39198   9.865   3.169   0.836
79120SOL    HW139199   9.948   3.138   0.870
79120SOL    HW239200   9.813   3.090   0.824
79121SOL     OW39201   1.900   4.041   3.277
79121SOL    HW139202   1.946   3.968   3.235
79121SOL    HW239203   1.905   4.112   3.214
79122SOL     OW39204   7.658  11.856   2.709
79122SOL    HW139205   7.633  11.769   2.740
79122SOL    HW239206   7.704  11.840   2.626
79123SOL     OW39207   8.429   9.997   9.741
79123SOL    HW139208   8.402  10.085   9.715
79123SOL    HW239209   8.499  10.011   9.806
79124SOL     OW39210  11.836   2.098   8.803
79124SOL    HW139211  11.795   2.184   8.819
79124SOL    HW239212  11.916   2.100   8.854
79125SOL     OW39213   2.409  10.985   0.314
79125SOL    HW139214   2.478  11.018   0.372
79125SOL    HW239215   2.391  11.058   0.255
79126SOL     OW39216  14.714   5.374   3.585
79126SOL    HW139217  14.794   5.357   3.635
79126SOL    HW239218  14.745   5.417   3.505
79127SOL     OW39219  13.994   8.400   5.457
79127SOL    HW139220  14.024   8.309   5.459
79127SOL    HW239221  13.923   8.400   5.393
79128SOL     OW39222   9.941  12.587  13.993
79128SOL    HW139223   9.845  12.581  13.998
79128SOL    HW239224   9.958  12.675  13.960
79129SOL     OW39225   9.426   5.731   6.220
79129SOL    HW139226   9.438   5.816   6.262
79129SOL    HW239227   9.484   5.672   6.268
79130SOL     OW39228  10.957  13.862   5.415
79130SOL    HW139229  10.989  13.918   5.486
79130SOL    HW239230  11.031  13.857   5.354
79131SOL     OW39231  14.735   3.017   0.922
79131SOL    HW139232  14.688   2.968   0.989
79131SOL    HW239233  14.666   3.053   0.866
79132SOL     OW39234  10.461  12.623   9.420
79132SOL    HW139235  10.390  12.607   9.483
79132SOL    HW239236  10.509  12.541   9.417
79133SOL     OW39237   9.164  12.670  13.441
79133SOL    HW139238   9.184  12.698  13.531
79133SOL    HW239239   9.205  12.735  13.385
79134SOL     OW39240   4.306   2.946   6.601
79134SOL    HW139241   4.318   2.930   6.694
79134SOL    HW239242   4.363   3.020   6.582
79135SOL     OW39243  10.234   5.762  13.606
79135SOL    HW139244  10.207   5.684  13.654
79135SOL    HW239245  10.159   5.821  13.610
79136SOL     OW39246   4.911  10.470   9.309
79136SOL    HW139247   4.901  10.375   9.296
79136SOL    HW239248   4.898  10.508   9.222
79137SOL     OW39249   3.339   1.434  14.006
79137SOL    HW139250   3.271   1.488  14.045
79137SOL    HW239251   3.342   1.356  14.062
79138SOL     OW39252  14.516   7.240   1.107
79138SOL    HW139253  14.583   7.172   1.104
79138SOL    HW239254  14.534   7.287   1.189
79139SOL     OW39255   5.838   7.312   5.060
79139SOL    HW139256   5.764   7.312   4.999
79139SOL    HW239257   5.826   7.392   5.111
79140SOL     OW39258   1.937   8.850  13.862
79140SOL    HW139259   1.947   8.758  13.836
79140SOL    HW239260   1.893   8.891  13.787
79141SOL     OW39261   0.987   3.396  14.272
79141SOL    HW139262   0.956   3.460  14.207
79141SOL    HW239263   1.064   3.438  14.311
79142SOL     OW39264  13.244  11.042  12.043
79142SOL    HW139265  13.179  11.018  12.109
79142SOL    HW239266  13.196  11.043  11.961
79143SOL     OW39267   9.974  13.019  14.363
79143SOL    HW139268   9.919  13.073  14.307
79143SOL    HW239269  10.033  12.974  14.302
79144SOL     OW39270   3.337   0.466   1.520
79144SOL    HW139271   3.268   0.478   1.586
79144SOL    HW239272   3.303   0.509   1.442
79145SOL     OW39273   0.557   5.041   4.165
79145SOL    HW139274   0.500   4.964   4.158
79145SOL    HW239275   0.634   5.009   4.211
79146SOL     OW39276   0.392   1.460  12.364
79146SOL    HW139277   0.442   1.444  12.444
79146SOL    HW239278   0.368   1.373  12.333
79147SOL     OW39279  11.737  10.003   2.409
79147SOL    HW139280  11.682   9.925   2.418
79147SOL    HW239281  11.824   9.974   2.437
79148SOL     OW39282   6.814  13.637   3.352
79148SOL    HW139283   6.774  13.657   3.437
79148SOL    HW239284   6.850  13.549   3.363
79149SOL     OW39285   9.390   9.937   5.717
79149SOL    HW139286   9.360  10.028   5.723
79149SOL    HW239287   9.472   9.935   5.766
79150SOL     OW39288  14.255  13.303   6.644
79150SOL    HW139289  14.327  13.337   6.590
79150SOL    HW239290  14.247  13.366   6.715
79151SOL     OW39291  12.765   4.733   7.717
79151SOL    HW139292  12.711   4.799   7.760
79151SOL    HW239293  12.851   4.742   7.757
79152SOL     OW39294   6.076   3.414   9.500
79152SOL    HW139295   6.071   3.346   9.567
79152SOL    HW239296   5.998   3.468   9.515
79153SOL     OW39297   9.448   2.043  11.614
79153SOL    HW139298   9.499   1.978  11.662
79153SOL    HW239299   9.357   2.025  11.637
79154SOL     OW39300   5.453   8.927   6.389
79154SOL    HW139301   5.512   8.888   6.325
79154SOL    HW239302   5.508   8.987   6.439
79155SOL     OW39303   4.833   4.796  13.237
79155SOL    HW139304   4.880   4.713  13.232
79155SOL    HW239305   4.865   4.846  13.162
79156SOL     OW39306   4.042   3.426  10.988
79156SOL    HW139307   3.966   3.448  11.041
79156SOL    HW239308   4.068   3.339  11.019
79157SOL     OW39309  12.835   2.470   7.026
79157SOL    HW139310  12.925   2.474   7.059
79157SOL    HW239311  12.815   2.376   7.024
79158SOL     OW39312   1.056   2.613  10.609
79158SOL    HW139313   1.137   2.664  10.614
79158SOL    HW239314   1.083   2.523  10.628
79159SOL     OW39315   3.642   9.177   3.116
79159SOL    HW139316   3.615   9.234   3.188
79159SOL    HW239317   3.611   9.223   3.038
79160SOL     OW39318  14.795  11.888  10.062
79160SOL    HW139319  14.793  11.898  10.158
79160SOL    HW239320   0.004  11.921  10.036
79161SOL     OW39321   6.437  14.030   3.155
79161SOL    HW139322   6.498  13.981   3.209
79161SOL    HW239323   6.493  14.087   3.101
79162SOL     OW39324   7.173  13.056  14.617
79162SOL    HW139325   7.205  12.967  14.604
79162SOL    HW239326   7.158  13.064  14.711
79163SOL     OW39327   9.598  14.576   6.510
79163SOL    HW139328   9.529  14.509   6.512
79163SOL    HW239329   9.648  14.561   6.590
79164SOL     OW39330   9.577  10.363  12.357
79164SOL    HW139331   9.580  10.458  12.367
79164SOL    HW239332   9.507  10.347  12.294
79165SOL     OW39333   1.840   3.670   3.558
79165SOL    HW139334   1.883   3.755   3.565
79165SOL    HW239335   1.808   3.667   3.468
79166SOL     OW39336  10.916  10.838   3.880
79166SOL    HW139337  11.008  10.852   3.900
79166SOL    HW239338  10.878  10.807   3.963
79167SOL     OW39339  14.265  11.449  10.095
79167SOL    HW139340  14.219  11.426  10.014
79167SOL    HW239341  14.231  11.388  10.160
79168SOL     OW39342   3.713   4.172  13.133
79168SOL    HW139343   3.622   4.168  13.164
79168SOL    HW239344   3.740   4.262  13.148
79169SOL     OW39345  10.280  10.131   6.634
79169SOL    HW139346  10.258  10.130   6.727
79169SOL    HW239347  10.263  10.042   6.604
79170SOL     OW39348   0.181   0.344   2.995
79170SOL    HW139349   0.138   0.298   3.067
79170SOL    HW239350   0.230   0.415   3.038
79171SOL     OW39351   5.529   5.361  12.538
79171SOL    HW139352   5.473   5.343  12.462
79171SOL    HW239353   5.604   5.408  12.502
79172SOL     OW39354   5.406   4.673   0.819
79172SOL    HW139355   5.428   4.679   0.912
79172SOL    HW239356   5.312   4.691   0.816
79173SOL     OW39357   1.942  14.352  10.411
79173SOL    HW139358   1.919  14.313  10.327
79173SOL    HW239359   1.860  14.390  10.443
79174SOL     OW39360   2.280   8.280   6.285
79174SOL    HW139361   2.355   8.329   6.318
79174SOL    HW239362   2.313   8.190   6.274
79175SOL     OW39363   0.371  10.971   6.360
79175SOL    HW139364   0.381  10.915   6.283
79175SOL    HW239365   0.352  10.910   6.431
79176SOL     OW39366   6.669  12.301   9.878
79176SOL    HW139367   6.661  12.292   9.973
79176SOL    HW239368   6.739  12.365   9.866
79177SOL     OW39369   7.748   4.893  14.169
79177SOL    HW139370   7.665   4.915  14.126
79177SOL    HW239371   7.809   4.875  14.097
79178SOL     OW39372   6.711  11.748   8.483
79178SOL    HW139373   6.767  11.684   8.439
79178SOL    HW239374   6.682  11.704   8.563
79179SOL     OW39375   1.022  13.970  10.516
79179SOL    HW139376   1.010  13.894  10.572
79179SOL    HW239377   0.957  14.033  10.545
79180SOL     OW39378   5.823   8.373   3.311
79180SOL    HW139379   5.784   8.289   3.338
79180SOL    HW239380   5.812   8.430   3.387
79181SOL     OW39381  12.647   2.513   0.303
79181SOL    HW139382  12.720   2.569   0.328
79181SOL    HW239383  12.600   2.562   0.235
79182SOL     OW39384   7.647  14.759   1.082
79182SOL    HW139385   7.577  14.822   1.097
79182SOL    HW239386   7.642  14.700   1.158
79183SOL     OW39387   9.365   4.915   0.845
79183SOL    HW139388   9.329   4.827   0.851
79183SOL    HW239389   9.455   4.906   0.876
79184SOL     OW39390   9.843  11.701  13.480
79184SOL    HW139391   9.780  11.656  13.424
79184SOL    HW239392   9.845  11.649  13.560
79185SOL     OW39393  12.727  11.847   8.576
79185SOL    HW139394  12.751  11.872   8.487
79185SOL    HW239395  12.804  11.802   8.610
79186SOL     OW39396  14.059   1.301  11.731
79186SOL    HW139397  13.967   1.276  11.721
79186SOL    HW239398  14.102   1.223  11.766
79187SOL     OW39399  10.790   8.112   6.810
79187SOL    HW139400  10.748   8.154   6.885
79187SOL    HW239401  10.880   8.145   6.811
79188SOL     OW39402   7.057  13.460   6.968
79188SOL    HW139403   7.124  13.468   7.036
79188SOL    HW239404   6.987  13.409   7.008
79189SOL     OW39405   8.323  12.469  10.020
79189SOL    HW139406   8.413  12.477  10.052
79189SOL    HW239407   8.309  12.547   9.967
79190SOL     OW39408   2.041   7.956   5.127
79190SOL    HW139409   1.972   7.956   5.194
79190SOL    HW239410   2.110   7.902   5.165
79191SOL     OW39411   8.608  10.463  11.102
79191SOL    HW139412   8.572  10.419  11.025
79191SOL    HW239413   8.632  10.392  11.161
79192SOL     OW39414   2.098   8.850  10.069
79192SOL    HW139415   2.136   8.824   9.985
79192SOL    HW239416   2.090   8.768  10.118
79193SOL     OW39417   4.070   5.376  10.647
79193SOL    HW139418   4.015   5.321  10.591
79193SOL    HW239419   4.159   5.364  10.611
79194SOL     OW39420  11.669   9.090   5.008
79194SOL    HW139421  11.630   9.004   5.023
79194SOL    HW239422  11.760   9.072   4.986
79195SOL     OW39423  13.622   1.605   6.241
79195SOL    HW139424  13.569   1.626   6.318
79195SOL    HW239425  13.664   1.687   6.217
79196SOL     OW39426   5.194  10.250   4.389
79196SOL    HW139427   5.232  10.258   4.477
79196SOL    HW239428   5.114  10.303   4.394
79197SOL     OW39429   3.301   4.465  13.946
79197SOL    HW139430   3.328   4.434  13.859
79197SOL    HW239431   3.381   4.500  13.985
79198SOL     OW39432  12.928   7.964   6.527
79198SOL    HW139433  12.928   7.907   6.604
79198SOL    HW239434  12.944   8.052   6.562
79199SOL     OW39435   4.737   8.597   2.722
79199SOL    HW139436   4.794   8.555   2.786
79199SOL    HW239437   4.797   8.642   2.662
79200SOL     OW39438  11.332   6.601  12.202
79200SOL    HW139439  11.252   6.556  12.178
79200SOL    HW239440  11.304   6.673  12.259
79201SOL     OW39441  12.427  10.859   9.457
79201SOL    HW139442  12.370  10.913   9.512
79201SOL    HW239443  12.371  10.830   9.385
79202SOL     OW39444   7.788   5.224   8.306
79202SOL    HW139445   7.748   5.153   8.355
79202SOL    HW239446   7.829   5.279   8.372
79203SOL     OW39447   2.872   3.517   8.495
79203SOL    HW139448   2.939   3.450   8.483
79203SOL    HW239449   2.899   3.565   8.573
79204SOL     OW39450   9.736   1.677   9.819
79204SOL    HW139451   9.739   1.764   9.860
79204SOL    HW239452   9.717   1.617   9.891
79205SOL     OW39453   3.165   7.331   2.451
79205SOL    HW139454   3.181   7.267   2.382
79205SOL    HW239455   3.180   7.284   2.532
79206SOL     OW39456   6.409  13.010   3.947
79206SOL    HW139457   6.469  12.939   3.925
79206SOL    HW239458   6.358  13.025   3.868
79207SOL     OW39459   3.634  12.573  12.370
79207SOL    HW139460   3.631  12.636  12.442
79207SOL    HW239461   3.652  12.625  12.292
79208SOL     OW39462  14.628   4.222   0.716
79208SOL    HW139463  14.643   4.302   0.667
79208SOL    HW239464  14.650   4.245   0.807
79209SOL     OW39465   7.837   9.498   0.383
79209SOL    HW139466   7.816   9.585   0.348
79209SOL    HW239467   7.753   9.452   0.383
79210SOL     OW39468   8.203  10.559  12.419
79210SOL    HW139469   8.112  10.537  12.438
79210SOL    HW239470   8.209  10.653  12.433
79211SOL     OW39471   4.098  12.888  13.607
79211SOL    HW139472   4.064  12.842  13.530
79211SOL    HW239473   4.178  12.930  13.577
79212SOL     OW39474  12.652   7.753  11.153
79212SOL    HW139475  12.671   7.669  11.195
79212SOL    HW239476  12.739   7.790  11.136
79213SOL     OW39477   3.546   0.570  10.495
79213SOL    HW139478   3.579   0.531  10.414
79213SOL    HW239479   3.586   0.657  10.498
79214SOL     OW39480  11.643   4.475  13.801
79214SOL    HW139481  11.552   4.447  13.814
79214SOL    HW239482  11.685   4.401  13.759
79215SOL     OW39483  13.001   0.740  12.247
79215SOL    HW139484  13.056   0.704  12.177
79215SOL    HW239485  13.040   0.825  12.267
79216SOL     OW39486   2.242  13.132   1.481
79216SOL    HW139487   2.186  13.201   1.519
79216SOL    HW239488   2.291  13.098   1.555
79217SOL     OW39489  12.671   9.599   9.750
79217SOL    HW139490  12.662   9.693   9.768
79217SOL    HW239491  12.722   9.566   9.823
79218SOL     OW39492   7.291   8.119  10.378
79218SOL    HW139493   7.233   8.112  10.454
79218SOL    HW239494   7.379   8.121  10.415
79219SOL     OW39495   4.943  13.536  10.633
79219SOL    HW139496   4.888  13.612  10.615
79219SOL    HW239497   4.888  13.461  10.609
79220SOL     OW39498   8.545   0.499  10.652
79220SOL    HW139499   8.630   0.541  10.668
79220SOL    HW239500   8.558   0.408  10.677
79221SOL     OW39501   1.825  14.281   3.779
79221SOL    HW139502   1.852  14.194   3.810
79221SOL    HW239503   1.807  14.269   3.686
79222SOL     OW39504   9.817   2.035   1.581
79222SOL    HW139505   9.839   2.112   1.528
79222SOL    HW239506   9.729   2.010   1.552
79223SOL     OW39507   3.640  14.146  11.583
79223SOL    HW139508   3.663  14.239  11.583
79223SOL    HW239509   3.585  14.134  11.506
79224SOL     OW39510   0.565   9.982  11.153
79224SOL    HW139511   0.571  10.068  11.112
79224SOL    HW239512   0.477   9.979  11.189
79225SOL     OW39513   0.912  13.015   1.023
79225SOL    HW139514   0.848  12.981   0.961
79225SOL    HW239515   0.930  12.942   1.081
79226SOL     OW39516   3.625   7.098   5.264
79226SOL    HW139517   3.604   7.177   5.314
79226SOL    HW239518   3.676   7.045   5.326
79227SOL     OW39519   2.169  14.590  11.305
79227SOL    HW139520   2.233  14.551  11.245
79227SOL    HW239521   2.086  14.587  11.256
79228SOL     OW39522  11.903   5.571   1.532
79228SOL    HW139523  11.955   5.622   1.470
79228SOL    HW239524  11.950   5.488   1.539
79229SOL     OW39525   5.142  11.766   5.268
79229SOL    HW139526   5.172  11.733   5.184
79229SOL    HW239527   5.061  11.814   5.247
79230SOL     OW39528  14.112   1.261   0.945
79230SOL    HW139529  14.067   1.198   0.888
79230SOL    HW239530  14.186   1.292   0.893
79231SOL     OW39531  10.388  14.825   9.235
79231SOL    HW139532  10.344   0.024   9.274
79231SOL    HW239533  10.400  14.764   9.308
79232SOL     OW39534   0.177   4.357   4.909
79232SOL    HW139535   0.134   4.276   4.879
79232SOL    HW239536   0.134   4.426   4.859
79233SOL     OW39537  12.746   9.802  12.995
79233SOL    HW139538  12.836   9.776  12.975
79233SOL    HW239539  12.728   9.873  12.934
79234SOL     OW39540   7.305   2.334   6.216
79234SOL    HW139541   7.387   2.381   6.204
79234SOL    HW239542   7.249   2.394   6.266
79235SOL     OW39543   7.010   7.935  11.954
79235SOL    HW139544   6.971   8.019  11.930
79235SOL    HW239545   7.077   7.957  12.019
79236SOL     OW39546  10.282  13.119   4.619
79236SOL    HW139547  10.283  13.201   4.570
79236SOL    HW239548  10.205  13.072   4.587
79237SOL     OW39549   2.573   4.660  13.962
79237SOL    HW139550   2.666   4.672  13.943
79237SOL    HW239551   2.570   4.587  14.023
79238SOL     OW39552   5.492   3.829  11.553
79238SOL    HW139553   5.520   3.778  11.477
79238SOL    HW239554   5.472   3.763  11.620
79239SOL     OW39555  12.246   9.806   3.176
79239SOL    HW139556  12.194   9.886   3.183
79239SOL    HW239557  12.274   9.788   3.266
79240SOL     OW39558   9.516   5.457   3.482
79240SOL    HW139559   9.462   5.499   3.549
79240SOL    HW239560   9.578   5.524   3.455
79241SOL     OW39561  13.376   5.270   3.522
79241SOL    HW139562  13.454   5.251   3.470
79241SOL    HW239563  13.320   5.194   3.510
79242SOL     OW39564   2.185   1.562   5.313
79242SOL    HW139565   2.260   1.600   5.359
79242SOL    HW239566   2.161   1.627   5.247
79243SOL     OW39567   3.504   1.261   2.711
79243SOL    HW139568   3.458   1.234   2.632
79243SOL    HW239569   3.499   1.185   2.769
79244SOL     OW39570   7.078  12.452  11.235
79244SOL    HW139571   7.029  12.530  11.213
79244SOL    HW239572   7.023  12.406  11.298
79245SOL     OW39573   6.694  13.097   2.644
79245SOL    HW139574   6.643  13.149   2.582
79245SOL    HW239575   6.645  13.101   2.725
79246SOL     OW39576  13.572  13.993   0.610
79246SOL    HW139577  13.663  13.966   0.618
79246SOL    HW239578  13.533  13.971   0.695
79247SOL     OW39579   1.561   8.504   2.646
79247SOL    HW139580   1.471   8.479   2.667
79247SOL    HW239581   1.565   8.503   2.550
79248SOL     OW39582   2.732   9.699   2.646
79248SOL    HW139583   2.758   9.740   2.729
79248SOL    HW239584   2.743   9.769   2.581
79249SOL     OW39585  12.024  11.448   9.882
79249SOL    HW139586  11.973  11.387   9.830
79249SOL    HW239587  12.008  11.422   9.973
79250SOL     OW39588   7.911   7.800  11.530
79250SOL    HW139589   7.880   7.888  11.548
79250SOL    HW239590   7.982   7.811  11.467
79251SOL     OW39591   5.211  11.493   4.276
79251SOL    HW139592   5.164  11.431   4.332
79251SOL    HW239593   5.296  11.451   4.260
79252SOL     OW39594   2.803  12.954   0.022
79252SOL    HW139595   2.841  12.961  14.811
79252SOL    HW239596   2.778  12.862   0.029
79253SOL     OW39597  11.401  14.868  14.288
79253SOL    HW139598  11.338   0.032  14.348
79253SOL    HW239599  11.481   0.044  14.298
79254SOL     OW39600   8.117   3.426   3.377
79254SOL    HW139601   8.209   3.435   3.403
79254SOL    HW239602   8.077   3.378   3.450
79255SOL     OW39603   6.040   6.481   9.805
79255SOL    HW139604   5.996   6.555   9.846
79255SOL    HW239605   5.971   6.438   9.754
79256SOL     OW39606   2.898   2.811   4.588
79256SOL    HW139607   2.873   2.719   4.595
79256SOL    HW239608   2.991   2.809   4.566
79257SOL     OW39609  13.602   3.332  12.909
79257SOL    HW139610  13.540   3.373  12.848
79257SOL    HW239611  13.685   3.331  12.860
79258SOL     OW39612   9.787   8.701   7.563
79258SOL    HW139613   9.768   8.792   7.538
79258SOL    HW239614   9.833   8.708   7.646
79259SOL     OW39615   1.059   7.185   1.422
79259SOL    HW139616   1.059   7.179   1.518
79259SOL    HW239617   1.137   7.236   1.401
79260SOL     OW39618  11.526   2.803   9.446
79260SOL    HW139619  11.531   2.715   9.484
79260SOL    HW239620  11.436   2.810   9.414
79261SOL     OW39621   5.959   3.347  11.041
79261SOL    HW139622   5.878   3.397  11.030
79261SOL    HW239623   5.935   3.275  11.100
79262SOL     OW39624   5.519   2.421   0.179
79262SOL    HW139625   5.430   2.437   0.149
79262SOL    HW239626   5.522   2.327   0.198
79263SOL     OW39627  11.125   2.585   9.365
79263SOL    HW139628  11.114   2.514   9.302
79263SOL    HW239629  11.162   2.544   9.443
79264SOL     OW39630   8.843   9.020  14.203
79264SOL    HW139631   8.907   8.994  14.137
79264SOL    HW239632   8.882   9.096  14.246
79265SOL     OW39633   9.389   3.086   6.751
79265SOL    HW139634   9.351   3.141   6.683
79265SOL    HW239635   9.483   3.083   6.730
79266SOL     OW39636  12.407   4.451   3.566
79266SOL    HW139637  12.485   4.478   3.615
79266SOL    HW239638  12.377   4.531   3.523
79267SOL     OW39639  14.454   1.308   1.376
79267SOL    HW139640  14.386   1.351   1.324
79267SOL    HW239641  14.456   1.357   1.458
79268SOL     OW39642  12.268   7.969   5.087
79268SOL    HW139643  12.223   7.939   5.166
79268SOL    HW239644  12.303   7.888   5.048
79269SOL     OW39645   6.265   7.632   2.245
79269SOL    HW139646   6.266   7.537   2.236
79269SOL    HW239647   6.182   7.651   2.289
79270SOL     OW39648   3.944   0.825   5.971
79270SOL    HW139649   3.986   0.907   5.996
79270SOL    HW239650   3.909   0.841   5.883
79271SOL     OW39651   4.849  14.040  12.654
79271SOL    HW139652   4.783  14.031  12.723
79271SOL    HW239653   4.816  14.111  12.599
79272SOL     OW39654   2.558   9.894   5.293
79272SOL    HW139655   2.560   9.988   5.309
79272SOL    HW239656   2.481   9.863   5.340
79273SOL     OW39657  12.459  11.633   7.628
79273SOL    HW139658  12.528  11.591   7.576
79273SOL    HW239659  12.444  11.716   7.585
79274SOL     OW39660   4.893  14.216   5.712
79274SOL    HW139661   4.961  14.156   5.740
79274SOL    HW239662   4.913  14.298   5.756
79275SOL     OW39663  10.304   2.689   1.128
79275SOL    HW139664  10.287   2.702   1.035
79275SOL    HW239665  10.217   2.685   1.168
79276SOL     OW39666   8.184   2.277   3.249
79276SOL    HW139667   8.147   2.357   3.210
79276SOL    HW239668   8.236   2.238   3.178
79277SOL     OW39669  10.899   6.769   0.976
79277SOL    HW139670  10.952   6.716   0.917
79277SOL    HW239671  10.894   6.855   0.933
79278SOL     OW39672  11.795   3.345   4.226
79278SOL    HW139673  11.823   3.429   4.189
79278SOL    HW239674  11.861   3.325   4.293
79279SOL     OW39675  13.772   7.094  13.098
79279SOL    HW139676  13.782   7.186  13.122
79279SOL    HW239677  13.810   7.087  13.011
79280SOL     OW39678  11.698   7.432   2.103
79280SOL    HW139679  11.612   7.434   2.144
79280SOL    HW239680  11.705   7.516   2.057
79281SOL     OW39681   0.604  12.696   7.351
79281SOL    HW139682   0.517  12.721   7.384
79281SOL    HW239683   0.589  12.673   7.259
79282SOL     OW39684   6.213  14.630   8.739
79282SOL    HW139685   6.137  14.572   8.744
79282SOL    HW239686   6.260  14.601   8.661
79283SOL     OW39687   3.942   4.106  14.094
79283SOL    HW139688   3.972   4.031  14.044
79283SOL    HW239689   3.941   4.179  14.032
79284SOL     OW39690   7.197   4.391   8.473
79284SOL    HW139691   7.161   4.467   8.427
79284SOL    HW239692   7.284   4.378   8.434
79285SOL     OW39693  11.802   6.850  14.040
79285SOL    HW139694  11.841   6.826  14.124
79285SOL    HW239695  11.834   6.938  14.022
79286SOL     OW39696  14.449   9.404   2.376
79286SOL    HW139697  14.503   9.482   2.386
79286SOL    HW239698  14.463   9.377   2.285
79287SOL     OW39699  12.134   6.422   8.131
79287SOL    HW139700  12.101   6.414   8.042
79287SOL    HW239701  12.140   6.333   8.164
79288SOL     OW39702   7.397   4.943   3.354
79288SOL    HW139703   7.344   4.863   3.345
79288SOL    HW239704   7.438   4.954   3.268
79289SOL     OW39705  12.976   5.232   3.944
79289SOL    HW139706  12.943   5.280   3.868
79289SOL    HW239707  12.897   5.193   3.984
79290SOL     OW39708   2.694   7.130   2.344
79290SOL    HW139709   2.709   7.220   2.314
79290SOL    HW239710   2.723   7.075   2.271
79291SOL     OW39711   7.090  10.901   2.723
79291SOL    HW139712   7.003  10.923   2.759
79291SOL    HW239713   7.071  10.838   2.654
79292SOL     OW39714   9.163  11.074  12.805
79292SOL    HW139715   9.088  11.022  12.778
79292SOL    HW239716   9.126  11.146  12.856
79293SOL     OW39717  11.480   6.663   4.006
79293SOL    HW139718  11.510   6.750   3.980
79293SOL    HW239719  11.529   6.603   3.950
79294SOL     OW39720   2.101   7.564   9.308
79294SOL    HW139721   2.077   7.652   9.282
79294SOL    HW239722   2.162   7.534   9.240
79295SOL     OW39723   3.164   4.240   3.625
79295SOL    HW139724   3.218   4.162   3.639
79295SOL    HW239725   3.167   4.286   3.709
79296SOL     OW39726  14.348   3.643   7.447
79296SOL    HW139727  14.428   3.633   7.498
79296SOL    HW239728  14.289   3.576   7.481
79297SOL     OW39729   1.626   1.788  13.865
79297SOL    HW139730   1.577   1.831  13.795
79297SOL    HW239731   1.625   1.850  13.938
79298SOL     OW39732   0.533   3.476  12.570
79298SOL    HW139733   0.516   3.451  12.660
79298SOL    HW239734   0.514   3.569  12.566
79299SOL     OW39735   5.972  14.537  10.667
79299SOL    HW139736   5.977  14.582  10.751
79299SOL    HW239737   5.903  14.583  10.619
79300SOL     OW39738  12.143  13.867   6.532
79300SOL    HW139739  12.169  13.861   6.624
79300SOL    HW239740  12.155  13.778   6.497
79301SOL     OW39741   2.963   2.431  10.286
79301SOL    HW139742   2.964   2.439  10.191
79301SOL    HW239743   2.871   2.440  10.310
79302SOL     OW39744   4.752   0.148   3.262
79302SOL    HW139745   4.685   0.098   3.214
79302SOL    HW239746   4.736   0.127   3.354
79303SOL     OW39747   3.127   0.762   2.587
79303SOL    HW139748   3.170   0.818   2.651
79303SOL    HW239749   3.199   0.718   2.542
79304SOL     OW39750  12.126   3.097  14.565
79304SOL    HW139751  12.085   3.180  14.543
79304SOL    HW239752  12.076   3.031  14.517
79305SOL     OW39753   7.206   1.448  13.879
79305SOL    HW139754   7.227   1.433  13.787
79305SOL    HW239755   7.284   1.419  13.926
79306SOL     OW39756   1.267  10.759   3.015
79306SOL    HW139757   1.228  10.699   2.951
79306SOL    HW239758   1.211  10.752   3.092
79307SOL     OW39759   1.615   4.011   5.883
79307SOL    HW139760   1.640   4.102   5.891
79307SOL    HW239761   1.652   3.968   5.960
79308SOL     OW39762  12.803   8.485   5.697
79308SOL    HW139763  12.767   8.408   5.653
79308SOL    HW239764  12.740   8.554   5.679
79309SOL     OW39765  10.720  11.867   9.397
79309SOL    HW139766  10.661  11.873   9.472
79309SOL    HW239767  10.793  11.926   9.419
79310SOL     OW39768   5.074  14.837  11.484
79310SOL    HW139769   5.006  14.839  11.417
79310SOL    HW239770   5.057   0.037  11.538
79311SOL     OW39771  11.863  13.768  11.844
79311SOL    HW139772  11.901  13.847  11.805
79311SOL    HW239773  11.835  13.796  11.932
79312SOL     OW39774   0.934   9.926   3.849
79312SOL    HW139775   1.002   9.906   3.784
79312SOL    HW239776   0.980   9.919   3.933
79313SOL     OW39777   6.859  14.432  13.877
79313SOL    HW139778   6.923  14.361  13.872
79313SOL    HW239779   6.900  14.504  13.827
79314SOL     OW39780  11.766   3.830  11.519
79314SOL    HW139781  11.830   3.882  11.567
79314SOL    HW239782  11.797   3.740  11.528
79315SOL     OW39783   8.145  11.519  13.230
79315SOL    HW139784   8.109  11.434  13.204
79315SOL    HW239785   8.077  11.557  13.286
79316SOL     OW39786   8.833   3.562  10.670
79316SOL    HW139787   8.824   3.521  10.756
79316SOL    HW239788   8.878   3.644  10.687
79317SOL     OW39789  14.141  13.000   7.939
79317SOL    HW139790  14.151  13.080   7.888
79317SOL    HW239791  14.207  12.940   7.905
79318SOL     OW39792   1.795  11.108   1.435
79318SOL    HW139793   1.702  11.095   1.451
79318SOL    HW239794   1.802  11.199   1.404
79319SOL     OW39795   0.063  14.742  13.156
79319SOL    HW139796   0.054  14.648  13.168
79319SOL    HW239797  14.856  14.770  13.119
79320SOL     OW39798  10.341   5.279   4.237
79320SOL    HW139799  10.275   5.321   4.292
79320SOL    HW239800  10.314   5.299   4.148
79321SOL     OW39801  12.922  10.590  12.715
79321SOL    HW139802  12.842  10.643  12.711
79321SOL    HW239803  12.920  10.552  12.803
79322SOL     OW39804  11.415  14.260  11.141
79322SOL    HW139805  11.379  14.208  11.213
79322SOL    HW239806  11.439  14.343  11.181
79323SOL     OW39807  10.421   2.303  11.723
79323SOL    HW139808  10.326   2.304  11.734
79323SOL    HW239809  10.456   2.310  11.811
79324SOL     OW39810   9.271   6.434   4.003
79324SOL    HW139811   9.271   6.383   4.084
79324SOL    HW239812   9.286   6.369   3.934
79325SOL     OW39813   1.453   4.820   9.401
79325SOL    HW139814   1.404   4.813   9.319
79325SOL    HW239815   1.545   4.808   9.375
79326SOL     OW39816   2.638   1.911   0.959
79326SOL    HW139817   2.695   1.834   0.960
79326SOL    HW239818   2.571   1.889   0.894
79327SOL     OW39819  12.979   2.677  12.332
79327SOL    HW139820  13.001   2.718  12.415
79327SOL    HW239821  12.884   2.684  12.326
79328SOL     OW39822   5.310  10.224  12.669
79328SOL    HW139823   5.399  10.211  12.637
79328SOL    HW239824   5.300  10.319  12.671
79329SOL     OW39825   8.101   6.964   9.970
79329SOL    HW139826   8.152   6.948   9.890
79329SOL    HW239827   8.090   6.877  10.008
79330SOL     OW39828   3.561   8.731  12.721
79330SOL    HW139829   3.477   8.714  12.764
79330SOL    HW239830   3.613   8.775  12.788
79331SOL     OW39831   0.601  11.238   8.825
79331SOL    HW139832   0.598  11.251   8.920
79331SOL    HW239833   0.520  11.279   8.793
79332SOL     OW39834   0.394   7.161   5.632
79332SOL    HW139835   0.404   7.065   5.634
79332SOL    HW239836   0.393   7.182   5.539
79333SOL     OW39837   9.082   9.845   7.462
79333SOL    HW139838   9.078   9.750   7.449
79333SOL    HW239839   9.127   9.878   7.384
79334SOL     OW39840   4.211  10.768   2.963
79334SOL    HW139841   4.276  10.766   3.034
79334SOL    HW239842   4.127  10.750   3.007
79335SOL     OW39843   2.536  11.546   2.921
79335SOL    HW139844   2.544  11.461   2.878
79335SOL    HW239845   2.501  11.526   3.008
79336SOL     OW39846   3.312   9.044  10.988
79336SOL    HW139847   3.271   9.121  11.026
79336SOL    HW239848   3.324   9.067  10.896
79337SOL     OW39849  13.674  14.046   3.581
79337SOL    HW139850  13.654  14.058   3.674
79337SOL    HW239851  13.769  14.035   3.579
79338SOL     OW39852   2.324  13.771   5.862
79338SOL    HW139853   2.358  13.813   5.783
79338SOL    HW239854   2.253  13.827   5.890
79339SOL     OW39855  12.004  14.605  14.200
79339SOL    HW139856  11.974  14.526  14.155
79339SOL    HW239857  12.095  14.615  14.172
79340SOL     OW39858  10.495   5.972  14.727
79340SOL    HW139859  10.551   6.020  14.666
79340SOL    HW239860  10.432   6.037  14.759
79341SOL     OW39861  13.977  14.109   6.486
79341SOL    HW139862  13.977  14.192   6.533
79341SOL    HW239863  13.981  14.043   6.554
79342SOL     OW39864   1.280   6.682   6.242
79342SOL    HW139865   1.314   6.670   6.331
79342SOL    HW239866   1.235   6.600   6.222
79343SOL     OW39867   2.906   5.188  11.444
79343SOL    HW139868   2.820   5.209  11.480
79343SOL    HW239869   2.896   5.201  11.350
79344SOL     OW39870   3.958   2.459  12.457
79344SOL    HW139871   3.936   2.477  12.548
79344SOL    HW239872   3.882   2.412  12.422
79345SOL     OW39873  11.094  11.348   3.132
79345SOL    HW139874  11.001  11.349   3.155
79345SOL    HW239875  11.100  11.406   3.056
79346SOL     OW39876   4.466   4.678   1.661
79346SOL    HW139877   4.431   4.697   1.748
79346SOL    HW239878   4.557   4.655   1.676
79347SOL     OW39879   3.832  12.346   4.696
79347SOL    HW139880   3.826  12.407   4.769
79347SOL    HW239881   3.773  12.381   4.630
79348SOL     OW39882   3.660   0.044  13.060
79348SOL    HW139883   3.626  14.849  13.006
79348SOL    HW239884   3.614   0.035  13.144
79349SOL     OW39885   0.651  11.436   0.773
79349SOL    HW139886   0.743  11.426   0.748
79349SOL    HW239887   0.629  11.525   0.747
79350SOL     OW39888   5.073   5.754  10.243
79350SOL    HW139889   5.077   5.847  10.221
79350SOL    HW239890   5.052   5.752  10.337
79351SOL     OW39891   5.900   0.034   3.297
79351SOL    HW139892   5.827   0.030   3.235
79351SOL    HW239893   5.935   0.122   3.287
79352SOL     OW39894   2.057   3.802  14.689
79352SOL    HW139895   2.022   3.737  14.628
79352SOL    HW239896   1.982   3.856  14.712
79353SOL     OW39897  14.711  14.584  12.969
79353SOL    HW139898  14.675  14.586  13.058
79353SOL    HW239899  14.648  14.631  12.915
79354SOL     OW39900   8.480  10.684   3.236
79354SOL    HW139901   8.571  10.673   3.263
79354SOL    HW239902   8.447  10.594   3.225
79355SOL     OW39903   7.764   3.654  11.488
79355SOL    HW139904   7.834   3.629  11.428
79355SOL    HW239905   7.807   3.664  11.573
79356SOL     OW39906   4.929   2.943   0.225
79356SOL    HW139907   4.930   3.023   0.277
79356SOL    HW239908   4.921   2.973   0.135
79357SOL     OW39909   9.303  12.323  11.829
79357SOL    HW139910   9.338  12.381  11.896
79357SOL    HW239911   9.276  12.382  11.758
79358SOL     OW39912   9.569  10.019   6.948
79358SOL    HW139913   9.595  10.045   6.860
79358SOL    HW239914   9.515  10.092   6.980
79359SOL     OW39915   1.876  13.171   1.774
79359SOL    HW139916   1.915  13.254   1.744
79359SOL    HW239917   1.877  13.115   1.696
79360SOL     OW39918   3.213   9.469  12.478
79360SOL    HW139919   3.256   9.389  12.449
79360SOL    HW239920   3.125   9.441  12.504
79361SOL     OW39921   5.954   5.892   2.408
79361SOL    HW139922   5.938   5.972   2.457
79361SOL    HW239923   6.017   5.917   2.341
79362SOL     OW39924   1.357  12.936   1.876
79362SOL    HW139925   1.364  12.850   1.834
79362SOL    HW239926   1.264  12.943   1.899
79363SOL     OW39927  10.591  11.803  10.023
79363SOL    HW139928  10.511  11.753  10.040
79363SOL    HW239929  10.582  11.881  10.078
79364SOL     OW39930   9.330   0.624   7.625
79364SOL    HW139931   9.264   0.558   7.603
79364SOL    HW239932   9.377   0.587   7.700
79365SOL     OW39933   5.644  10.520   5.230
79365SOL    HW139934   5.723  10.474   5.257
79365SOL    HW239935   5.614  10.566   5.309
79366SOL     OW39936  10.640  13.321  13.399
79366SOL    HW139937  10.642  13.306  13.494
79366SOL    HW239938  10.584  13.251  13.365
79367SOL     OW39939  12.717  13.713   0.127
79367SOL    HW139940  12.677  13.784   0.076
79367SOL    HW239941  12.729  13.751   0.215
79368SOL     OW39942   9.490   2.869   9.033
79368SOL    HW139943   9.487   2.923   8.954
79368SOL    HW239944   9.468   2.781   9.004
79369SOL     OW39945  10.106   5.725   5.024
79369SOL    HW139946  10.199   5.721   4.998
79369SOL    HW239947  10.064   5.656   4.972
79370SOL     OW39948  14.736  10.419   4.635
79370SOL    HW139949  14.821  10.378   4.620
79370SOL    HW239950  14.726  10.482   4.563
79371SOL     OW39951   9.344  12.123   6.190
79371SOL    HW139952   9.301  12.160   6.113
79371SOL    HW239953   9.284  12.142   6.262
79372SOL     OW39954   5.753   5.096   8.193
79372SOL    HW139955   5.789   5.183   8.210
79372SOL    HW239956   5.658   5.110   8.193
79373SOL     OW39957   2.841   2.152  10.126
79373SOL    HW139958   2.870   2.223  10.069
79373SOL    HW239959   2.921   2.118  10.166
79374SOL     OW39960   5.899   8.404   2.263
79374SOL    HW139961   5.823   8.462   2.273
79374SOL    HW239962   5.973   8.464   2.256
79375SOL     OW39963   0.691  10.117  11.657
79375SOL    HW139964   0.751  10.042  11.655
79375SOL    HW239965   0.621  10.090  11.716
79376SOL     OW39966   9.224  10.426   6.356
79376SOL    HW139967   9.298  10.488   6.355
79376SOL    HW239968   9.265  10.340   6.355
79377SOL     OW39969   0.217   9.395   4.076
79377SOL    HW139970   0.282   9.408   4.007
79377SOL    HW239971   0.231   9.468   4.137
79378SOL     OW39972  13.906   5.892   8.253
79378SOL    HW139973  13.919   5.875   8.346
79378SOL    HW239974  13.995   5.895   8.217
79379SOL     OW39975   8.268   9.569  10.727
79379SOL    HW139976   8.264   9.651  10.677
79379SOL    HW239977   8.196   9.576  10.789
79380SOL     OW39978  12.920  12.876  10.059
79380SOL    HW139979  12.862  12.834  10.122
79380SOL    HW239980  12.948  12.805  10.001
79381SOL     OW39981   4.751   6.984   8.843
79381SOL    HW139982   4.833   6.941   8.868
79381SOL    HW239983   4.778   7.053   8.782
79382SOL     OW39984   4.295  14.364  13.412
79382SOL    HW139985   4.383  14.327  13.421
79382SOL    HW239986   4.283  14.417  13.491
79383SOL     OW39987   7.825  10.881   5.990
79383SOL    HW139988   7.793  10.873   6.080
79383SOL    HW239989   7.834  10.790   5.960
79384SOL     OW39990   9.173   1.466   1.110
79384SOL    HW139991   9.150   1.427   1.026
79384SOL    HW239992   9.151   1.398   1.174
79385SOL     OW39993   8.237   6.750   0.821
79385SOL    HW139994   8.328   6.777   0.824
79385SOL    HW239995   8.232   6.689   0.747
79386SOL     OW39996   6.439   3.720   2.493
79386SOL    HW139997   6.443   3.811   2.463
79386SOL    HW239998   6.360   3.685   2.452
79387SOL     OW39999  13.359  10.577   8.413
79387SOL    HW140000  13.427  10.644   8.418
79387SOL    HW240001  13.403  10.495   8.437
79388SOL     OW40002  11.817   8.445   4.861
79388SOL    HW140003  11.739   8.497   4.880
79388SOL    HW240004  11.825   8.385   4.935
79389SOL     OW40005  14.743   5.312   0.794
79389SOL    HW140006  14.709   5.249   0.730
79389SOL    HW240007  14.713   5.278   0.878
79390SOL     OW40008  13.658   8.640   0.681
79390SOL    HW140009  13.745   8.626   0.719
79390SOL    HW240010  13.665   8.725   0.637
79391SOL     OW40011   6.890  14.314  13.064
79391SOL    HW140012   6.898  14.374  12.990
79391SOL    HW240013   6.798  14.285  13.061
79392SOL     OW40014   8.288  11.482  12.719
79392SOL    HW140015   8.358  11.445  12.665
79392SOL    HW240016   8.238  11.406  12.749
79393SOL     OW40017   8.407   9.931   3.769
79393SOL    HW140018   8.431   9.872   3.841
79393SOL    HW240019   8.325   9.971   3.798
79394SOL     OW40020   8.680   0.899   7.846
79394SOL    HW140021   8.645   0.848   7.773
79394SOL    HW240022   8.775   0.887   7.840
79395SOL     OW40023   1.169   8.559   6.940
79395SOL    HW140024   1.143   8.627   7.002
79395SOL    HW240025   1.088   8.535   6.895
79396SOL     OW40026   4.871   9.228   2.200
79396SOL    HW140027   4.814   9.216   2.123
79396SOL    HW240028   4.904   9.140   2.219
79397SOL     OW40029   8.092  10.978   3.628
79397SOL    HW140030   8.103  10.883   3.618
79397SOL    HW240031   8.178  11.014   3.610
79398SOL     OW40032  11.272  12.330   4.308
79398SOL    HW140033  11.224  12.354   4.388
79398SOL    HW240034  11.280  12.412   4.260
79399SOL     OW40035   6.531   6.610   7.702
79399SOL    HW140036   6.545   6.663   7.624
79399SOL    HW240037   6.608   6.553   7.706
79400SOL     OW40038  10.142  10.504  10.623
79400SOL    HW140039  10.062  10.495  10.676
79400SOL    HW240040  10.198  10.562  10.675
79401SOL     OW40041   6.758  11.968   3.166
79401SOL    HW140042   6.808  12.019   3.102
79401SOL    HW240043   6.667  11.978   3.139
79402SOL     OW40044   4.709   8.053   1.843
79402SOL    HW140045   4.633   8.106   1.867
79402SOL    HW240046   4.709   7.982   1.908
79403SOL     OW40047   1.288  12.590   4.886
79403SOL    HW140048   1.381  12.570   4.869
79403SOL    HW240049   1.240  12.519   4.844
79404SOL     OW40050   6.902   7.944   0.225
79404SOL    HW140051   6.885   7.865   0.173
79404SOL    HW240052   6.902   8.015   0.160
79405SOL     OW40053   2.117  12.879   9.470
79405SOL    HW140054   2.201  12.843   9.443
79405SOL    HW240055   2.123  12.883   9.566
79406SOL     OW40056   5.556   2.059   1.620
79406SOL    HW140057   5.613   2.045   1.697
79406SOL    HW240058   5.598   2.008   1.551
79407SOL     OW40059   0.641   7.496   0.845
79407SOL    HW140060   0.621   7.574   0.896
79407SOL    HW240061   0.639   7.424   0.908
79408SOL     OW40062   1.052   2.054   9.083
79408SOL    HW140063   1.043   2.080   8.991
79408SOL    HW240064   1.008   2.124   9.132
79409SOL     OW40065  14.496   2.474   8.906
79409SOL    HW140066  14.496   2.471   9.002
79409SOL    HW240067  14.427   2.537   8.884
79410SOL     OW40068   2.033   7.741   7.870
79410SOL    HW140069   1.996   7.745   7.958
79410SOL    HW240070   2.118   7.784   7.878
79411SOL     OW40071   2.766   4.620   0.682
79411SOL    HW140072   2.710   4.543   0.679
79411SOL    HW240073   2.789   4.630   0.774
79412SOL     OW40074  13.333  13.997   5.933
79412SOL    HW140075  13.282  13.947   5.996
79412SOL    HW240076  13.344  14.083   5.973
79413SOL     OW40077   8.782   7.762   3.615
79413SOL    HW140078   8.747   7.746   3.527
79413SOL    HW240079   8.841   7.837   3.604
79414SOL     OW40080   9.667  13.074  13.321
79414SOL    HW140081   9.727  13.004  13.348
79414SOL    HW240082   9.591  13.064  13.379
79415SOL     OW40083   7.050   6.453   1.186
79415SOL    HW140084   7.093   6.372   1.213
79415SOL    HW240085   6.958   6.428   1.174
79416SOL     OW40086   6.745   6.227  14.694
79416SOL    HW140087   6.716   6.156  14.751
79416SOL    HW240088   6.834   6.203  14.670
79417SOL     OW40089  12.880  12.276   5.062
79417SOL    HW140090  12.965  12.258   5.102
79417SOL    HW240091  12.821  12.210   5.100
79418SOL     OW40092   3.540   4.793   3.429
79418SOL    HW140093   3.514   4.865   3.371
79418SOL    HW240094   3.482   4.721   3.406
79419SOL     OW40095   2.886   7.344   1.079
79419SOL    HW140096   2.828   7.290   1.026
79419SOL    HW240097   2.897   7.295   1.161
79420SOL     OW40098   4.154   7.279  11.172
79420SOL    HW140099   4.201   7.303  11.252
79420SOL    HW240100   4.092   7.351  11.159
79421SOL     OW40101   7.702  10.977   2.616
79421SOL    HW140102   7.702  10.906   2.552
79421SOL    HW240103   7.611  11.008   2.617
79422SOL     OW40104   7.530   0.240  10.229
79422SOL    HW140105   7.592   0.187  10.179
79422SOL    HW240106   7.444   0.214  10.196
79423SOL     OW40107   8.533  11.499   8.156
79423SOL    HW140108   8.447  11.492   8.116
79423SOL    HW240109   8.524  11.456   8.241
79424SOL     OW40110   2.557   6.260   3.394
79424SOL    HW140111   2.624   6.192   3.385
79424SOL    HW240112   2.489   6.236   3.331
79425SOL     OW40113   1.297  12.401  12.369
79425SOL    HW140114   1.233  12.332  12.352
79425SOL    HW240115   1.377  12.355  12.394
79426SOL     OW40116  12.869  11.084   1.033
79426SOL    HW140117  12.951  11.115   1.072
79426SOL    HW240118  12.803  11.147   1.063
79427SOL     OW40119   1.768   8.848  13.617
79427SOL    HW140120   1.711   8.787  13.665
79427SOL    HW240121   1.714   8.927  13.606
79428SOL     OW40122   3.656   7.181  12.573
79428SOL    HW140123   3.577   7.236  12.570
79428SOL    HW240124   3.626   7.094  12.547
79429SOL     OW40125  14.304  14.870   1.033
79429SOL    HW140126  14.347   0.001   0.948
79429SOL    HW240127  14.367   0.029   1.095
79430SOL     OW40128  12.237  11.994  11.373
79430SOL    HW140129  12.255  11.951  11.290
79430SOL    HW240130  12.317  11.979  11.425
79431SOL     OW40131   9.274  10.084  12.996
79431SOL    HW140132   9.203  10.148  13.004
79431SOL    HW240133   9.239  10.017  12.937
79432SOL     OW40134   9.997   1.440   9.557
79432SOL    HW140135  10.047   1.360   9.546
79432SOL    HW240136   9.907   1.411   9.569
79433SOL     OW40137  12.199  11.023   1.787
79433SOL    HW140138  12.212  10.963   1.714
79433SOL    HW240139  12.105  11.016   1.807
79434SOL     OW40140  11.444   1.983   9.257
79434SOL    HW140141  11.410   1.953   9.173
79434SOL    HW240142  11.505   1.913   9.284
79435SOL     OW40143   4.067   4.084  10.587
79435SOL    HW140144   4.081   3.991  10.608
79435SOL    HW240145   4.154   4.118  10.567
79436SOL     OW40146   8.778   5.067   5.838
79436SOL    HW140147   8.721   5.004   5.795
79436SOL    HW240148   8.749   5.153   5.806
79437SOL     OW40149   7.539   5.020   9.137
79437SOL    HW140150   7.549   4.998   9.044
79437SOL    HW240151   7.604   5.090   9.151
79438SOL     OW40152   3.175  10.025  11.542
79438SOL    HW140153   3.130  10.107  11.564
79438SOL    HW240154   3.222  10.002  11.622
79439SOL     OW40155  10.786  12.578   9.941
79439SOL    HW140156  10.872  12.556   9.906
79439SOL    HW240157  10.759  12.501   9.991
79440SOL     OW40158   2.436   9.141  12.461
79440SOL    HW140159   2.373   9.068  12.463
79440SOL    HW240160   2.414   9.194  12.537
79441SOL     OW40161   6.719   9.414   3.347
79441SOL    HW140162   6.727   9.383   3.437
79441SOL    HW240163   6.652   9.482   3.351
79442SOL     OW40164   8.701   2.114   0.565
79442SOL    HW140165   8.721   2.068   0.483
79442SOL    HW240166   8.734   2.203   0.551
79443SOL     OW40167   6.374   1.442   9.628
79443SOL    HW140168   6.319   1.479   9.697
79443SOL    HW240169   6.314   1.388   9.576
79444SOL     OW40170   2.231   2.071  13.455
79444SOL    HW140171   2.315   2.105  13.424
79444SOL    HW240172   2.252   2.026  13.537
79445SOL     OW40173  14.864   9.171   9.449
79445SOL    HW140174  14.803   9.098   9.461
79445SOL    HW240175  14.842   9.233   9.519
79446SOL     OW40176   4.008  14.046   9.251
79446SOL    HW140177   4.095  14.011   9.269
79446SOL    HW240178   3.951  14.004   9.316
79447SOL     OW40179   6.070   7.654   2.926
79447SOL    HW140180   5.997   7.602   2.957
79447SOL    HW240181   6.141   7.635   2.988
79448SOL     OW40182   9.117   5.241   2.006
79448SOL    HW140183   9.203   5.279   2.021
79448SOL    HW240184   9.105   5.243   1.911
79449SOL     OW40185   3.472  12.176   9.564
79449SOL    HW140186   3.439  12.140   9.646
79449SOL    HW240187   3.461  12.105   9.500
79450SOL     OW40188   2.595  12.663   3.754
79450SOL    HW140189   2.506  12.698   3.745
79450SOL    HW240190   2.610  12.614   3.673
79451SOL     OW40191  10.932   8.935   7.079
79451SOL    HW140192  10.941   9.020   7.035
79451SOL    HW240193  10.869   8.887   7.025
79452SOL     OW40194   9.756   0.441   4.082
79452SOL    HW140195   9.808   0.419   4.005
79452SOL    HW240196   9.666   0.419   4.057
79453SOL     OW40197   0.165   6.086  14.547
79453SOL    HW140198   0.134   6.030  14.618
79453SOL    HW240199   0.222   6.150  14.590
79454SOL     OW40200   3.945   9.602   1.117
79454SOL    HW140201   3.928   9.675   1.057
79454SOL    HW240202   4.040   9.604   1.130
79455SOL     OW40203  12.431   6.144  14.830
79455SOL    HW140204  12.363   6.144   0.022
79455SOL    HW240205  12.477   6.061  14.842
79456SOL     OW40206   7.798   7.939  13.554
79456SOL    HW140207   7.785   8.033  13.545
79456SOL    HW240208   7.837   7.912  13.471
79457SOL     OW40209  14.440   6.331  12.436
79457SOL    HW140210  14.425   6.249  12.482
79457SOL    HW240211  14.524   6.318  12.391
79458SOL     OW40212   1.403   1.241   8.498
79458SOL    HW140213   1.355   1.178   8.444
79458SOL    HW240214   1.338   1.273   8.561
79459SOL     OW40215  12.589  14.481  11.901
79459SOL    HW140216  12.565  14.404  11.952
79459SOL    HW240217  12.647  14.531  11.959
79460SOL     OW40218   0.995  11.984   6.952
79460SOL    HW140219   1.051  12.060   6.965
79460SOL    HW240220   1.052  11.918   6.914
79461SOL     OW40221  14.497   7.019  10.029
79461SOL    HW140222  14.429   6.969   9.983
79461SOL    HW240223  14.537   7.073   9.961
79462SOL     OW40224   6.367  10.960   7.067
79462SOL    HW140225   6.352  10.892   7.002
79462SOL    HW240226   6.462  10.971   7.069
79463SOL     OW40227   1.248   4.599  14.248
79463SOL    HW140228   1.271   4.506  14.247
79463SOL    HW240229   1.234   4.621  14.156
79464SOL     OW40230   5.024   3.319  11.569
79464SOL    HW140231   5.015   3.346  11.478
79464SOL    HW240232   5.073   3.390  11.610
79465SOL     OW40233  10.875   1.264  11.048
79465SOL    HW140234  10.826   1.336  11.089
79465SOL    HW240235  10.951   1.307  11.008
79466SOL     OW40236   2.003   6.097  13.559
79466SOL    HW140237   1.944   6.063  13.626
79466SOL    HW240238   1.973   6.057  13.477
79467SOL     OW40239   2.846   2.103   9.355
79467SOL    HW140240   2.910   2.153   9.306
79467SOL    HW240241   2.802   2.048   9.290
79468SOL     OW40242  10.412   5.842   4.979
79468SOL    HW140243  10.382   5.913   4.922
79468SOL    HW240244  10.422   5.767   4.921
79469SOL     OW40245   0.693  14.868   4.071
79469SOL    HW140246   0.622   0.051   4.045
79469SOL    HW240247   0.673  14.845   4.162
79470SOL     OW40248   4.969  13.393   3.390
79470SOL    HW140249   5.008  13.397   3.302
79470SOL    HW240250   5.014  13.462   3.439
79471SOL     OW40251   3.538   0.064   8.342
79471SOL    HW140252   3.529   0.129   8.273
79471SOL    HW240253   3.468   0.085   8.404
79472SOL     OW40254   8.708   8.494   6.234
79472SOL    HW140255   8.795   8.458   6.215
79472SOL    HW240256   8.661   8.424   6.277
79473SOL     OW40257   0.862   7.468  13.445
79473SOL    HW140258   0.871   7.449  13.351
79473SOL    HW240259   0.770   7.450  13.464
79474SOL     OW40260   4.981   9.503   2.177
79474SOL    HW140261   4.994   9.410   2.198
79474SOL    HW240262   4.887   9.517   2.189
79475SOL     OW40263   2.657  13.385  11.997
79475SOL    HW140264   2.617  13.361  12.080
79475SOL    HW240265   2.626  13.474  11.979
79476SOL     OW40266   0.009   1.441   3.929
79476SOL    HW140267  14.872   1.535   3.939
79476SOL    HW240268   0.098   1.425   3.962
79477SOL     OW40269   5.571   6.145  11.222
79477SOL    HW140270   5.569   6.169  11.130
79477SOL    HW240271   5.652   6.184  11.255
79478SOL     OW40272   5.405   9.040   7.941
79478SOL    HW140273   5.374   9.064   7.854
79478SOL    HW240274   5.394   8.945   7.945
79479SOL     OW40275   1.071  12.418   7.456
79479SOL    HW140276   1.004  12.478   7.424
79479SOL    HW240277   1.025  12.361   7.517
79480SOL     OW40278   1.919   5.648  13.573
79480SOL    HW140279   1.924   5.705  13.496
79480SOL    HW240280   1.974   5.691  13.638
79481SOL     OW40281   6.035  11.653   5.058
79481SOL    HW140282   5.980  11.584   5.021
79481SOL    HW240283   6.124  11.629   5.032
79482SOL     OW40284   9.268   8.311   9.603
79482SOL    HW140285   9.338   8.374   9.587
79482SOL    HW240286   9.301   8.229   9.567
79483SOL     OW40287   5.222  14.334  13.355
79483SOL    HW140288   5.188  14.415  13.317
79483SOL    HW240289   5.150  14.272  13.345
79484SOL     OW40290  11.415   2.557   8.408
79484SOL    HW140291  11.484   2.600   8.358
79484SOL    HW240292  11.455   2.538   8.493
79485SOL     OW40293   5.171   0.914   3.964
79485SOL    HW140294   5.185   1.008   3.973
79485SOL    HW240295   5.107   0.892   4.031
79486SOL     OW40296   5.107  12.068   8.334
79486SOL    HW140297   5.037  12.081   8.398
79486SOL    HW240298   5.172  12.016   8.381
79487SOL     OW40299   8.482   2.514   6.117
79487SOL    HW140300   8.526   2.448   6.063
79487SOL    HW240301   8.469   2.588   6.057
79488SOL     OW40302  10.969   3.084  11.781
79488SOL    HW140303  10.935   2.995  11.782
79488SOL    HW240304  10.933   3.123  11.701
79489SOL     OW40305  10.206   9.416   4.362
79489SOL    HW140306  10.279   9.355   4.370
79489SOL    HW240307  10.153   9.401   4.440
79490SOL     OW40308   1.652  12.040  13.537
79490SOL    HW140309   1.575  12.088  13.566
79490SOL    HW240310   1.684  11.996  13.615
79491SOL     OW40311   8.880   8.771   7.713
79491SOL    HW140312   8.956   8.829   7.715
79491SOL    HW240313   8.877   8.738   7.623
79492SOL     OW40314  10.247   7.860   8.611
79492SOL    HW140315  10.154   7.875   8.596
79492SOL    HW240316  10.262   7.890   8.700
79493SOL     OW40317   6.930   4.847   3.483
79493SOL    HW140318   6.996   4.912   3.505
79493SOL    HW240319   6.848   4.896   3.478
79494SOL     OW40320   6.286   6.618   3.341
79494SOL    HW140321   6.215   6.651   3.394
79494SOL    HW240322   6.244   6.566   3.273
79495SOL     OW40323  13.326   7.612  13.293
79495SOL    HW140324  13.386   7.539  13.276
79495SOL    HW240325  13.294   7.637  13.206
79496SOL     OW40326   1.130  10.178  13.936
79496SOL    HW140327   1.188  10.102  13.930
79496SOL    HW240328   1.096  10.189  13.847
79497SOL     OW40329  10.221  12.913   6.094
79497SOL    HW140330  10.194  12.839   6.149
79497SOL    HW240331  10.201  12.885   6.005
79498SOL     OW40332   3.775   0.697   8.196
79498SOL    HW140333   3.770   0.604   8.218
79498SOL    HW240334   3.860   0.725   8.230
79499SOL     OW40335  14.857  14.117  13.390
79499SOL    HW140336   0.045  14.096  13.324
79499SOL    HW240337   0.022  14.184  13.444
79500SOL     OW40338   5.025   4.683   7.914
79500SOL    HW140339   4.992   4.653   7.830
79500SOL    HW240340   5.097   4.742   7.892
79501SOL     OW40341  11.017  13.811   1.302
79501SOL    HW140342  11.072  13.858   1.365
79501SOL    HW240343  10.995  13.877   1.236
79502SOL     OW40344  11.988   7.105  11.379
79502SOL    HW140345  12.005   7.124  11.287
79502SOL    HW240346  11.980   7.009  11.382
79503SOL     OW40347   9.948  10.876   2.539
79503SOL    HW140348  10.011  10.906   2.474
79503SOL    HW240349   9.987  10.899   2.624
79504SOL     OW40350   8.935   4.021   8.764
79504SOL    HW140351   9.021   4.012   8.804
79504SOL    HW240352   8.946   3.990   8.674
79505SOL     OW40353   9.444   3.761  14.062
79505SOL    HW140354   9.370   3.813  14.093
79505SOL    HW240355   9.437   3.764  13.967
79506SOL     OW40356  14.186  11.121   7.731
79506SOL    HW140357  14.160  11.051   7.671
79506SOL    HW240358  14.134  11.105   7.810
79507SOL     OW40359  13.857   4.948  10.119
79507SOL    HW140360  13.820   4.998  10.046
79507SOL    HW240361  13.828   4.994  10.197
79508SOL     OW40362   9.701  10.531   5.918
79508SOL    HW140363   9.735  10.555   6.004
79508SOL    HW240364   9.609  10.559   5.919
79509SOL     OW40365  13.884   2.255  14.174
79509SOL    HW140366  13.958   2.276  14.118
79509SOL    HW240367  13.821   2.325  14.159
79510SOL     OW40368   9.550   1.760   3.083
79510SOL    HW140369   9.490   1.822   3.124
79510SOL    HW240370   9.631   1.809   3.069
79511SOL     OW40371   6.135   1.890   7.834
79511SOL    HW140372   6.213   1.851   7.872
79511SOL    HW240373   6.075   1.901   7.908
79512SOL     OW40374   7.885  14.447   3.441
79512SOL    HW140375   7.972  14.411   3.460
79512SOL    HW240376   7.865  14.415   3.353
79513SOL     OW40377  10.387   4.648   4.360
79513SOL    HW140378  10.342   4.714   4.307
79513SOL    HW240379  10.478   4.652   4.330
79514SOL     OW40380  10.796  14.059   5.198
79514SOL    HW140381  10.888  14.058   5.174
79514SOL    HW240382  10.796  14.078   5.292
79515SOL     OW40383  11.885  14.739   3.079
79515SOL    HW140384  11.820  14.696   3.135
79515SOL    HW240385  11.951  14.772   3.140
79516SOL     OW40386   8.286   3.615   2.511
79516SOL    HW140387   8.296   3.522   2.533
79516SOL    HW240388   8.208   3.643   2.559
79517SOL     OW40389  11.499   3.129   4.448
79517SOL    HW140390  11.476   3.149   4.539
79517SOL    HW240391  11.594   3.130   4.446
79518SOL     OW40392   7.654  12.447   3.111
79518SOL    HW140393   7.605  12.515   3.065
79518SOL    HW240394   7.743  12.454   3.077
79519SOL     OW40395   9.811  12.274   0.500
79519SOL    HW140396   9.782  12.255   0.411
79519SOL    HW240397   9.904  12.250   0.501
79520SOL     OW40398   4.287  11.259   7.086
79520SOL    HW140399   4.285  11.262   7.182
79520SOL    HW240400   4.304  11.166   7.066
79521SOL     OW40401   4.557   1.978   2.921
79521SOL    HW140402   4.621   1.998   2.852
79521SOL    HW240403   4.491   1.925   2.877
79522SOL     OW40404  13.846  13.643  14.375
79522SOL    HW140405  13.913  13.702  14.343
79522SOL    HW240406  13.842  13.573  14.311
79523SOL     OW40407  11.584   8.971  11.148
79523SOL    HW140408  11.568   8.877  11.143
79523SOL    HW240409  11.657   8.986  11.088
79524SOL     OW40410  11.100   4.754  13.367
79524SOL    HW140411  11.043   4.774  13.441
79524SOL    HW240412  11.175   4.812  13.379
79525SOL     OW40413   5.938   8.849  11.339
79525SOL    HW140414   5.919   8.833  11.431
79525SOL    HW240415   5.879   8.790  11.291
79526SOL     OW40416   6.161   6.999  10.966
79526SOL    HW140417   6.251   6.972  10.983
79526SOL    HW240418   6.109   6.919  10.975
79527SOL     OW40419  10.457   1.449  11.738
79527SOL    HW140420  10.455   1.390  11.662
79527SOL    HW240421  10.422   1.396  11.810
79528SOL     OW40422   6.005  14.275  14.117
79528SOL    HW140423   6.068  14.327  14.167
79528SOL    HW240424   5.941  14.339  14.085
79529SOL     OW40425  12.089   9.744   1.995
79529SOL    HW140426  12.161   9.710   1.942
79529SOL    HW240427  12.077   9.680   2.065
79530SOL     OW40428  11.754  11.014   8.687
79530SOL    HW140429  11.837  10.993   8.645
79530SOL    HW240430  11.777  11.029   8.779
79531SOL     OW40431   7.914  12.191   5.304
79531SOL    HW140432   8.002  12.205   5.272
79531SOL    HW240433   7.921  12.113   5.360
79532SOL     OW40434  10.559  10.716  11.783
79532SOL    HW140435  10.478  10.690  11.828
79532SOL    HW240436  10.596  10.786  11.837
79533SOL     OW40437   5.925   6.475  10.921
79533SOL    HW140438   5.928   6.401  10.861
79533SOL    HW240439   5.902   6.437  11.006
79534SOL     OW40440  14.688  11.548   2.943
79534SOL    HW140441  14.691  11.533   3.037
79534SOL    HW240442  14.621  11.616   2.932
79535SOL     OW40443  12.836   7.775   9.936
79535SOL    HW140444  12.855   7.803  10.025
79535SOL    HW240445  12.830   7.856   9.886
79536SOL     OW40446   3.781   5.227   2.963
79536SOL    HW140447   3.834   5.164   2.914
79536SOL    HW240448   3.789   5.309   2.914
79537SOL     OW40449   9.777  11.777   0.774
79537SOL    HW140450   9.813  11.860   0.742
79537SOL    HW240451   9.760  11.793   0.867
79538SOL     OW40452   6.438   7.294   0.663
79538SOL    HW140453   6.406   7.379   0.694
79538SOL    HW240454   6.397   7.284   0.577
79539SOL     OW40455   7.663  14.437  10.761
79539SOL    HW140456   7.628  14.359  10.718
79539SOL    HW240457   7.608  14.509  10.728
79540SOL     OW40458   1.201   4.047  11.027
79540SOL    HW140459   1.178   4.134  11.059
79540SOL    HW240460   1.118   4.000  11.025
79541SOL     OW40461   6.159   8.680   9.406
79541SOL    HW140462   6.249   8.661   9.380
79541SOL    HW240463   6.165   8.700   9.499
79542SOL     OW40464  10.019  13.201   4.783
79542SOL    HW140465  10.022  13.260   4.708
79542SOL    HW240466  10.099  13.219   4.832
79543SOL     OW40467  14.427  14.115  11.769
79543SOL    HW140468  14.469  14.192  11.731
79543SOL    HW240469  14.361  14.090  11.705
79544SOL     OW40470  11.809   8.805   4.938
79544SOL    HW140471  11.901   8.776   4.941
79544SOL    HW240472  11.788   8.827   5.029
79545SOL     OW40473   0.044   0.114  13.651
79545SOL    HW140474   0.126   0.150  13.685
79545SOL    HW240475   0.063   0.023  13.631
79546SOL     OW40476   3.857   4.838   8.892
79546SOL    HW140477   3.818   4.840   8.805
79546SOL    HW240478   3.937   4.786   8.881
79547SOL     OW40479   5.286  12.653   6.181
79547SOL    HW140480   5.327  12.635   6.265
79547SOL    HW240481   5.281  12.749   6.177
79548SOL     OW40482   2.660   5.323   7.008
79548SOL    HW140483   2.701   5.240   7.035
79548SOL    HW240484   2.695   5.388   7.068
79549SOL     OW40485   8.242   4.037   0.272
79549SOL    HW140486   8.243   4.070   0.362
79549SOL    HW240487   8.192   3.955   0.277
79550SOL     OW40488  12.175  13.292   3.153
79550SOL    HW140489  12.206  13.352   3.085
79550SOL    HW240490  12.212  13.326   3.234
79551SOL     OW40491   8.388   0.887  10.467
79551SOL    HW140492   8.411   0.807  10.420
79551SOL    HW240493   8.293   0.893  10.459
79552SOL     OW40494  14.384   1.134  13.893
79552SOL    HW140495  14.294   1.129  13.859
79552SOL    HW240496  14.433   1.179  13.825
79553SOL     OW40497  14.404   5.610   8.673
79553SOL    HW140498  14.468   5.545   8.702
79553SOL    HW240499  14.368   5.646   8.755
79554SOL     OW40500   4.472   7.664  11.014
79554SOL    HW140501   4.468   7.605  10.939
79554SOL    HW240502   4.560   7.701  11.011
79555SOL     OW40503   3.845   2.622   7.632
79555SOL    HW140504   3.824   2.612   7.539
79555SOL    HW240505   3.873   2.535   7.660
79556SOL     OW40506   9.315  12.036   9.185
79556SOL    HW140507   9.384  12.096   9.213
79556SOL    HW240508   9.238  12.061   9.236
79557SOL     OW40509   2.677   2.285   2.107
79557SOL    HW140510   2.603   2.225   2.112
79557SOL    HW240511   2.754   2.230   2.124
79558SOL     OW40512  11.720   2.280   4.706
79558SOL    HW140513  11.647   2.342   4.706
79558SOL    HW240514  11.791   2.327   4.750
79559SOL     OW40515   2.196   4.955   5.300
79559SOL    HW140516   2.202   4.862   5.279
79559SOL    HW240517   2.284   4.990   5.282
79560SOL     OW40518   5.851  10.769  11.807
79560SOL    HW140519   5.893  10.699  11.856
79560SOL    HW240520   5.783  10.803  11.866
79561SOL     OW40521   4.269  13.873   9.275
79561SOL    HW140522   4.340  13.930   9.245
79561SOL    HW240523   4.279  13.794   9.223
79562SOL     OW40524   7.937   0.511   2.637
79562SOL    HW140525   7.993   0.588   2.649
79562SOL    HW240526   7.962   0.452   2.708
79563SOL     OW40527   5.703   3.150   1.611
79563SOL    HW140528   5.741   3.068   1.577
79563SOL    HW240529   5.668   3.126   1.697
79564SOL     OW40530  11.335   0.187  13.087
79564SOL    HW140531  11.420   0.179  13.130
79564SOL    HW240532  11.350   0.156  12.998
79565SOL     OW40533   5.664   4.786   6.717
79565SOL    HW140534   5.611   4.854   6.676
79565SOL    HW240535   5.731   4.834   6.767
79566SOL     OW40536  10.309  13.207   3.492
79566SOL    HW140537  10.401  13.195   3.470
79566SOL    HW240538  10.267  13.126   3.462
79567SOL     OW40539  11.175  13.480   0.563
79567SOL    HW140540  11.266  13.476   0.595
79567SOL    HW240541  11.178  13.542   0.490
79568SOL     OW40542   4.187   8.233  12.464
79568SOL    HW140543   4.171   8.310  12.411
79568SOL    HW240544   4.135   8.247  12.543
79569SOL     OW40545  11.078  13.645  11.785
79569SOL    HW140546  11.079  13.564  11.733
79569SOL    HW240547  11.165  13.649  11.825
79570SOL     OW40548  14.423   0.022   2.930
79570SOL    HW140549  14.450  14.819   2.883
79570SOL    HW240550  14.355  14.868   2.990
79571SOL     OW40551   7.484   0.584   6.472
79571SOL    HW140552   7.524   0.612   6.390
79571SOL    HW240553   7.401   0.630   6.475
79572SOL     OW40554  13.723  14.216  14.514
79572SOL    HW140555  13.655  14.276  14.545
79572SOL    HW240556  13.695  14.192  14.426
79573SOL     OW40557   6.210  14.114  11.916
79573SOL    HW140558   6.218  14.159  11.832
79573SOL    HW240559   6.169  14.179  11.973
79574SOL     OW40560   4.799   1.074  12.304
79574SOL    HW140561   4.772   1.035  12.387
79574SOL    HW240562   4.884   1.114  12.323
79575SOL     OW40563  12.810   9.088   2.499
79575SOL    HW140564  12.798   9.144   2.576
79575SOL    HW240565  12.885   9.126   2.453
79576SOL     OW40566   7.942   2.783  10.573
79576SOL    HW140567   7.862   2.791  10.521
79576SOL    HW240568   7.917   2.727  10.646
79577SOL     OW40569   7.695  10.455   9.511
79577SOL    HW140570   7.752  10.531   9.498
79577SOL    HW240571   7.616  10.491   9.551
79578SOL     OW40572   2.832   8.590  13.076
79578SOL    HW140573   2.868   8.524  13.017
79578SOL    HW240574   2.863   8.565  13.162
79579SOL     OW40575   4.266  11.450   6.337
79579SOL    HW140576   4.356  11.445   6.303
79579SOL    HW240577   4.256  11.541   6.364
79580SOL     OW40578   7.426   1.997   3.967
79580SOL    HW140579   7.513   1.989   3.928
79580SOL    HW240580   7.405   2.090   3.961
79581SOL     OW40581   5.290   4.242  13.029
79581SOL    HW140582   5.242   4.265  12.950
79581SOL    HW240583   5.248   4.162  13.060
79582SOL     OW40584   3.150   1.646  12.316
79582SOL    HW140585   3.179   1.731  12.283
79582SOL    HW240586   3.111   1.665  12.401
79583SOL     OW40587  10.111  14.842   3.260
79583SOL    HW140588  10.187  14.824   3.205
79583SOL    HW240589  10.041  14.786   3.224
79584SOL     OW40590   3.719   1.663  13.134
79584SOL    HW140591   3.810   1.636  13.148
79584SOL    HW240592   3.687   1.608  13.063
79585SOL     OW40593   2.330   5.937   2.339
79585SOL    HW140594   2.318   5.939   2.244
79585SOL    HW240595   2.326   6.028   2.367
79586SOL     OW40596   3.402  10.522   4.121
79586SOL    HW140597   3.373  10.570   4.198
79586SOL    HW240598   3.491  10.494   4.143
79587SOL     OW40599   7.748   5.510   8.152
79587SOL    HW140600   7.768   5.505   8.246
79587SOL    HW240601   7.742   5.419   8.123
79588SOL     OW40602   0.781   9.369  11.449
79588SOL    HW140603   0.771   9.458  11.415
79588SOL    HW240604   0.861   9.336  11.406
79589SOL     OW40605   8.873   9.541   4.732
79589SOL    HW140606   8.854   9.595   4.655
79589SOL    HW240607   8.937   9.593   4.782
79590SOL     OW40608   7.226   7.520   1.963
79590SOL    HW140609   7.320   7.500   1.972
79590SOL    HW240610   7.208   7.508   1.869
79591SOL     OW40611  10.174  14.060   2.325
79591SOL    HW140612  10.210  14.147   2.342
79591SOL    HW240613  10.148  14.062   2.233
79592SOL     OW40614   4.208  13.866  12.049
79592SOL    HW140615   4.175  13.799  12.108
79592SOL    HW240616   4.270  13.820  11.993
79593SOL     OW40617  11.924   5.732   0.279
79593SOL    HW140618  11.839   5.768   0.252
79593SOL    HW240619  11.976   5.732   0.198
79594SOL     OW40620   9.053   1.286   4.724
79594SOL    HW140621   9.055   1.281   4.628
79594SOL    HW240622   9.124   1.229   4.752
79595SOL     OW40623   5.815  12.746  12.453
79595SOL    HW140624   5.879  12.695  12.502
79595SOL    HW240625   5.744  12.684  12.434
79596SOL     OW40626   5.248  14.642  13.886
79596SOL    HW140627   5.183  14.615  13.951
79596SOL    HW240628   5.234  14.583  13.812
79597SOL     OW40629  11.439   4.184   3.197
79597SOL    HW140630  11.392   4.216   3.120
79597SOL    HW240631  11.390   4.105   3.223
79598SOL     OW40632   3.814   1.815   6.957
79598SOL    HW140633   3.736   1.759   6.953
79598SOL    HW240634   3.786   1.893   7.005
79599SOL     OW40635   4.893   5.638   5.484
79599SOL    HW140636   4.914   5.638   5.391
79599SOL    HW240637   4.929   5.720   5.518
79600SOL     OW40638  12.034   9.105  11.102
79600SOL    HW140639  12.111   9.061  11.066
79600SOL    HW240640  12.067   9.191  11.130
79601SOL     OW40641   3.453  10.367   5.821
79601SOL    HW140642   3.530  10.404   5.777
79601SOL    HW240643   3.450  10.276   5.792
79602SOL     OW40644   4.641   8.007  12.417
79602SOL    HW140645   4.588   8.065  12.362
79602SOL    HW240646   4.721   7.992  12.366
79603SOL     OW40647  14.032  12.425   4.666
79603SOL    HW140648  14.093  12.490   4.702
79603SOL    HW240649  13.998  12.379   4.742
79604SOL     OW40650  10.711   3.427   6.526
79604SOL    HW140651  10.774   3.402   6.594
79604SOL    HW240652  10.694   3.520   6.541
79605SOL     OW40653   4.443   2.608   2.774
79605SOL    HW140654   4.434   2.624   2.867
79605SOL    HW240655   4.533   2.579   2.763
79606SOL     OW40656   1.553  13.045  14.415
79606SOL    HW140657   1.602  12.980  14.364
79606SOL    HW240658   1.612  13.121  14.419
79607SOL     OW40659   8.790   4.374   0.306
79607SOL    HW140660   8.780   4.444   0.242
79607SOL    HW240661   8.850   4.409   0.371
79608SOL     OW40662  11.986   5.000   5.201
79608SOL    HW140663  12.025   5.060   5.266
79608SOL    HW240664  11.933   5.057   5.145
79609SOL     OW40665   1.401  13.971  12.170
79609SOL    HW140666   1.382  13.877  12.171
79609SOL    HW240667   1.364  14.002  12.088
79610SOL     OW40668   2.123   9.035   0.967
79610SOL    HW140669   2.159   9.108   0.917
79610SOL    HW240670   2.065   9.075   1.032
79611SOL     OW40671   2.362  10.153   3.326
79611SOL    HW140672   2.276  10.110   3.335
79611SOL    HW240673   2.369  10.171   3.232
79612SOL     OW40674   6.239   1.884   6.076
79612SOL    HW140675   6.180   1.841   6.138
79612SOL    HW240676   6.210   1.853   5.990
79613SOL     OW40677  14.420   1.148  10.785
79613SOL    HW140678  14.326   1.135  10.771
79613SOL    HW240679  14.434   1.120  10.875
79614SOL     OW40680   3.603  14.788   4.519
79614SOL    HW140681   3.551  14.866   4.505
79614SOL    HW240682   3.618  14.786   4.614
79615SOL     OW40683   8.181  12.957  10.821
79615SOL    HW140684   8.161  12.903  10.744
79615SOL    HW240685   8.119  12.927  10.888
79616SOL     OW40686   9.068   9.784  14.444
79616SOL    HW140687   9.052   9.690  14.454
79616SOL    HW240688   8.984   9.820  14.416
79617SOL     OW40689   0.167   3.282   1.001
79617SOL    HW140690   0.192   3.357   1.054
79617SOL    HW240691   0.090   3.312   0.952
79618SOL     OW40692  13.315   3.846   5.230
79618SOL    HW140693  13.237   3.878   5.184
79618SOL    HW240694  13.306   3.751   5.228
79619SOL     OW40695   2.507  13.075  10.476
79619SOL    HW140696   2.445  13.143  10.451
79619SOL    HW240697   2.519  13.087  10.570
79620SOL     OW40698   4.323   8.955   3.853
79620SOL    HW140699   4.301   8.863   3.839
79620SOL    HW240700   4.268   9.003   3.791
79621SOL     OW40701   9.779   7.541   4.339
79621SOL    HW140702   9.801   7.623   4.384
79621SOL    HW240703   9.692   7.556   4.303
79622SOL     OW40704  12.779  13.626   0.801
79622SOL    HW140705  12.869  13.617   0.834
79622SOL    HW240706  12.748  13.536   0.794
79623SOL     OW40707   0.296  12.267  12.260
79623SOL    HW140708   0.285  12.341  12.320
79623SOL    HW240709   0.312  12.307  12.175
79624SOL     OW40710   1.946   9.531  11.679
79624SOL    HW140711   1.912   9.507  11.766
79624SOL    HW240712   2.004   9.605  11.695
79625SOL     OW40713  12.520  12.151  12.941
79625SOL    HW140714  12.438  12.126  12.898
79625SOL    HW240715  12.494  12.179  13.028
79626SOL     OW40716   2.336   3.300   4.394
79626SOL    HW140717   2.317   3.282   4.302
79626SOL    HW240718   2.401   3.234   4.419
79627SOL     OW40719  13.066   3.969   1.816
79627SOL    HW140720  13.058   4.058   1.781
79627SOL    HW240721  13.119   3.923   1.750
79628SOL     OW40722   3.604   2.219   4.931
79628SOL    HW140723   3.556   2.220   5.013
79628SOL    HW240724   3.650   2.303   4.929
79629SOL     OW40725   5.271   9.498   0.334
79629SOL    HW140726   5.319   9.416   0.349
79629SOL    HW240727   5.199   9.496   0.397
79630SOL     OW40728   0.814   5.819  10.618
79630SOL    HW140729   0.790   5.794  10.707
79630SOL    HW240730   0.775   5.751  10.563
79631SOL     OW40731   7.617   8.038   4.882
79631SOL    HW140732   7.524   8.060   4.886
79631SOL    HW240733   7.657   8.114   4.838
79632SOL     OW40734  10.772   5.709  11.616
79632SOL    HW140735  10.802   5.623  11.585
79632SOL    HW240736  10.833   5.732  11.686
79633SOL     OW40737   1.617   1.813   0.870
79633SOL    HW140738   1.613   1.756   0.794
79633SOL    HW240739   1.540   1.869   0.862
79634SOL     OW40740  14.416   5.135   4.585
79634SOL    HW140741  14.363   5.174   4.516
79634SOL    HW240742  14.441   5.209   4.640
79635SOL     OW40743   2.130   4.074   8.915
79635SOL    HW140744   2.047   4.074   8.867
79635SOL    HW240745   2.118   4.009   8.984
79636SOL     OW40746  13.919   1.130  13.712
79636SOL    HW140747  13.849   1.110  13.649
79636SOL    HW240748  13.902   1.221  13.738
79637SOL     OW40749  14.689   0.397  13.833
79637SOL    HW140750  14.697   0.457  13.907
79637SOL    HW240751  14.740   0.438  13.763
79638SOL     OW40752  11.508  14.506   1.204
79638SOL    HW140753  11.592  14.526   1.164
79638SOL    HW240754  11.458  14.587   1.198
79639SOL     OW40755   9.302   2.985  13.451
79639SOL    HW140756   9.338   3.032  13.376
79639SOL    HW240757   9.248   2.916  13.411
79640SOL     OW40758   5.210   6.176   0.214
79640SOL    HW140759   5.216   6.174   0.309
79640SOL    HW240760   5.186   6.267   0.194
79641SOL     OW40761   1.801  11.548   0.965
79641SOL    HW140762   1.877  11.498   0.935
79641SOL    HW240763   1.816  11.562   1.058
79642SOL     OW40764   0.162   4.471   1.935
79642SOL    HW140765   0.230   4.539   1.932
79642SOL    HW240766   0.089   4.508   1.887
79643SOL     OW40767   6.651   4.800   8.178
79643SOL    HW140768   6.727   4.849   8.210
79643SOL    HW240769   6.580   4.864   8.179
79644SOL     OW40770   2.828   4.901  11.490
79644SOL    HW140771   2.868   4.986  11.471
79644SOL    HW240772   2.770   4.885  11.416
79645SOL     OW40773   5.626   5.742  10.559
79645SOL    HW140774   5.646   5.674  10.623
79645SOL    HW240775   5.601   5.694  10.480
79646SOL     OW40776   2.554   7.282   9.607
79646SOL    HW140777   2.622   7.218   9.586
79646SOL    HW240778   2.474   7.245   9.570
79647SOL     OW40779   8.505   5.051   6.405
79647SOL    HW140780   8.439   4.982   6.411
79647SOL    HW240781   8.477   5.116   6.469
79648SOL     OW40782  10.755   3.296   1.916
79648SOL    HW140783  10.686   3.288   1.851
79648SOL    HW240784  10.832   3.323   1.866
79649SOL     OW40785  14.526  11.411   4.776
79649SOL    HW140786  14.529  11.400   4.871
79649SOL    HW240787  14.580  11.488   4.759
79650SOL     OW40788  10.263  12.214   2.866
79650SOL    HW140789  10.200  12.164   2.814
79650SOL    HW240790  10.249  12.184   2.956
79651SOL     OW40791   0.525   2.114   0.288
79651SOL    HW140792   0.517   2.063   0.208
79651SOL    HW240793   0.516   2.050   0.358
79652SOL     OW40794   0.483   9.409   6.079
79652SOL    HW140795   0.526   9.402   6.164
79652SOL    HW240796   0.390   9.415   6.099
79653SOL     OW40797   1.045  13.419  12.443
79653SOL    HW140798   1.140  13.419  12.430
79653SOL    HW240799   1.013  13.487  12.384
79654SOL     OW40800   4.106  12.636  11.467
79654SOL    HW140801   4.158  12.668  11.541
79654SOL    HW240802   4.160  12.657  11.390
79655SOL     OW40803  11.136  13.545   3.972
79655SOL    HW140804  11.099  13.540   3.883
79655SOL    HW240805  11.135  13.638   3.993
79656SOL     OW40806   0.428  11.478  13.933
79656SOL    HW140807   0.341  11.510  13.957
79656SOL    HW240808   0.478  11.557  13.913
79657SOL     OW40809  11.074  12.240   8.253
79657SOL    HW140810  11.061  12.278   8.340
79657SOL    HW240811  11.016  12.291   8.196
79658SOL     OW40812   9.658   4.354   9.941
79658SOL    HW140813   9.631   4.298  10.013
79658SOL    HW240814   9.748   4.379   9.962
79659SOL     OW40815   9.040  10.885   1.982
79659SOL    HW140816   9.039  10.926   1.895
79659SOL    HW240817   8.954  10.844   1.991
79660SOL     OW40818  10.917   5.404  11.096
79660SOL    HW140819  10.926   5.318  11.056
79660SOL    HW240820  10.915   5.387  11.190
79661SOL     OW40821  10.376  12.466   6.143
79661SOL    HW140822  10.392  12.536   6.207
79661SOL    HW240823  10.358  12.389   6.197
79662SOL     OW40824  14.255  10.600   0.309
79662SOL    HW140825  14.212  10.514   0.311
79662SOL    HW240826  14.255  10.624   0.216
79663SOL     OW40827   8.372  11.479  13.948
79663SOL    HW140828   8.354  11.457  14.040
79663SOL    HW240829   8.466  11.463  13.938
79664SOL     OW40830   6.489   8.075   1.433
79664SOL    HW140831   6.580   8.057   1.455
79664SOL    HW240832   6.444   8.081   1.517
79665SOL     OW40833   4.700  10.884   4.243
79665SOL    HW140834   4.748  10.824   4.186
79665SOL    HW240835   4.610  10.881   4.211
79666SOL     OW40836   4.728   6.141   0.635
79666SOL    HW140837   4.634   6.121   0.626
79666SOL    HW240838   4.731   6.215   0.696
79667SOL     OW40839   2.187   8.894   7.728
79667SOL    HW140840   2.095   8.922   7.724
79667SOL    HW240841   2.204   8.855   7.643
79668SOL     OW40842   9.405   7.555   3.293
79668SOL    HW140843   9.384   7.571   3.201
79668SOL    HW240844   9.483   7.610   3.309
79669SOL     OW40845   7.570  10.468   5.008
79669SOL    HW140846   7.554  10.381   4.971
79669SOL    HW240847   7.556  10.528   4.935
79670SOL     OW40848   3.134  10.570   9.393
79670SOL    HW140849   3.129  10.666   9.398
79670SOL    HW240850   3.203  10.553   9.329
79671SOL     OW40851   9.380  10.415   7.809
79671SOL    HW140852   9.431  10.442   7.885
79671SOL    HW240853   9.290  10.411   7.841
79672SOL     OW40854   0.621   7.175  12.616
79672SOL    HW140855   0.560   7.106  12.644
79672SOL    HW240856   0.591   7.254  12.661
79673SOL     OW40857  14.724  13.153   2.156
79673SOL    HW140858  14.813  13.173   2.126
79673SOL    HW240859  14.692  13.087   2.095
79674SOL     OW40860   1.621  11.215   9.390
79674SOL    HW140861   1.615  11.120   9.381
79674SOL    HW240862   1.713  11.234   9.369
79675SOL     OW40863  11.349  12.349  14.434
79675SOL    HW140864  11.433  12.386  14.463
79675SOL    HW240865  11.365  12.321  14.344
79676SOL     OW40866   0.955   2.116   4.263
79676SOL    HW140867   0.924   2.048   4.322
79676SOL    HW240868   0.893   2.115   4.190
79677SOL     OW40869   4.744   9.621  13.240
79677SOL    HW140870   4.743   9.527  13.223
79677SOL    HW240871   4.662   9.653  13.203
79678SOL     OW40872   8.522   7.603   9.367
79678SOL    HW140873   8.553   7.591   9.456
79678SOL    HW240874   8.432   7.637   9.377
79679SOL     OW40875   0.409  11.376   1.866
79679SOL    HW140876   0.446  11.456   1.829
79679SOL    HW240877   0.476  11.345   1.928
79680SOL     OW40878   2.919   1.710   9.617
79680SOL    HW140879   2.869   1.791   9.627
79680SOL    HW240880   2.875   1.663   9.545
79681SOL     OW40881   7.396  11.955  10.475
79681SOL    HW140882   7.464  11.893  10.450
79681SOL    HW240883   7.436  12.008  10.544
79682SOL     OW40884   1.441   7.741   2.316
79682SOL    HW140885   1.350   7.768   2.329
79682SOL    HW240886   1.455   7.673   2.382
79683SOL     OW40887   8.756   6.666   1.445
79683SOL    HW140888   8.747   6.571   1.441
79683SOL    HW240889   8.844   6.684   1.412
79684SOL     OW40890   7.896   2.312   9.445
79684SOL    HW140891   7.910   2.218   9.430
79684SOL    HW240892   7.983   2.351   9.440
79685SOL     OW40893  10.063   7.224   8.308
79685SOL    HW140894  10.099   7.139   8.331
79685SOL    HW240895  10.001   7.206   8.237
79686SOL     OW40896   9.623   9.698   9.969
79686SOL    HW140897   9.598   9.631   9.905
79686SOL    HW240898   9.585   9.779   9.935
79687SOL     OW40899  10.412   9.284  10.170
79687SOL    HW140900  10.447   9.292  10.081
79687SOL    HW240901  10.377   9.371  10.190
79688SOL     OW40902   1.075  14.116  11.733
79688SOL    HW140903   1.093  14.200  11.689
79688SOL    HW240904   1.161  14.084  11.759
79689SOL     OW40905  13.025   9.805   8.905
79689SOL    HW140906  13.109   9.762   8.899
79689SOL    HW240907  13.035   9.867   8.978
79690SOL     OW40908   3.197   4.399  11.479
79690SOL    HW140909   3.261   4.470  11.477
79690SOL    HW240910   3.218   4.350  11.559
79691SOL     OW40911   0.629   7.918   1.398
79691SOL    HW140912   0.673   7.967   1.467
79691SOL    HW240913   0.678   7.837   1.390
79692SOL     OW40914   2.601  12.758   6.734
79692SOL    HW140915   2.652  12.689   6.777
79692SOL    HW240916   2.629  12.839   6.777
79693SOL     OW40917  11.020   5.121  14.411
79693SOL    HW140918  11.001   5.213  14.398
79693SOL    HW240919  11.072   5.118  14.491
79694SOL     OW40920   8.368  14.053   3.241
79694SOL    HW140921   8.339  14.133   3.198
79694SOL    HW240922   8.464  14.056   3.236
79695SOL     OW40923   8.111   2.975  13.666
79695SOL    HW140924   8.083   3.054  13.620
79695SOL    HW240925   8.089   2.991  13.757
79696SOL     OW40926   3.910   9.978  14.158
79696SOL    HW140927   4.001   9.951  14.157
79696SOL    HW240928   3.893  10.003  14.249
79697SOL     OW40929   8.976  12.938  11.259
79697SOL    HW140930   8.920  13.015  11.262
79697SOL    HW240931   8.992  12.923  11.166
79698SOL     OW40932   4.059  11.205   8.529
79698SOL    HW140933   4.147  11.178   8.554
79698SOL    HW240934   4.028  11.257   8.604
79699SOL     OW40935   3.346   8.841  13.924
79699SOL    HW140936   3.390   8.809  14.003
79699SOL    HW240937   3.274   8.780  13.909
79700SOL     OW40938   0.814  10.417   6.712
79700SOL    HW140939   0.909  10.408   6.706
79700SOL    HW240940   0.782  10.329   6.727
79701SOL     OW40941  12.810   9.732  13.604
79701SOL    HW140942  12.777   9.816  13.638
79701SOL    HW240943  12.900   9.751  13.578
79702SOL     OW40944   3.605   2.109  11.620
79702SOL    HW140945   3.645   2.110  11.534
79702SOL    HW240946   3.672   2.071  11.678
79703SOL     OW40947  13.668  12.824  14.719
79703SOL    HW140948  13.742  12.883  14.733
79703SOL    HW240949  13.627  12.816  14.805
79704SOL     OW40950   3.654  14.358   2.208
79704SOL    HW140951   3.741  14.329   2.235
79704SOL    HW240952   3.594  14.316   2.269
79705SOL     OW40953   2.979   4.300  13.498
79705SOL    HW140954   3.059   4.252  13.519
79705SOL    HW240955   2.996   4.388  13.530
79706SOL     OW40956   5.696   2.642   8.745
79706SOL    HW140957   5.729   2.560   8.780
79706SOL    HW240958   5.619   2.662   8.798
79707SOL     OW40959  11.061   6.278   6.989
79707SOL    HW140960  11.136   6.249   7.041
79707SOL    HW240961  10.998   6.207   6.995
79708SOL     OW40962  12.239   1.507  13.282
79708SOL    HW140963  12.211   1.433  13.336
79708SOL    HW240964  12.259   1.576  13.345
79709SOL     OW40965  12.528   5.563   4.129
79709SOL    HW140966  12.481   5.479   4.130
79709SOL    HW240967  12.550   5.577   4.037
79710SOL     OW40968   0.345   8.423  10.055
79710SOL    HW140969   0.292   8.388  10.127
79710SOL    HW240970   0.281   8.468   9.999
79711SOL     OW40971  14.178   5.686  10.631
79711SOL    HW140972  14.241   5.654  10.567
79711SOL    HW240973  14.093   5.674  10.589
79712SOL     OW40974  13.943   1.601   5.505
79712SOL    HW140975  13.959   1.525   5.449
79712SOL    HW240976  13.965   1.677   5.451
79713SOL     OW40977   2.978   1.204  12.733
79713SOL    HW140978   3.047   1.142  12.755
79713SOL    HW240979   2.953   1.182  12.644
79714SOL     OW40980   5.328   4.635  12.877
79714SOL    HW140981   5.384   4.712  12.863
79714SOL    HW240982   5.309   4.603  12.788
79715SOL     OW40983   6.438   6.505  13.679
79715SOL    HW140984   6.372   6.468  13.620
79715SOL    HW240985   6.388   6.565  13.736
79716SOL     OW40986   9.223   3.759   5.937
79716SOL    HW140987   9.218   3.818   6.013
79716SOL    HW240988   9.147   3.782   5.884
79717SOL     OW40989  11.275   9.481   2.086
79717SOL    HW140990  11.257   9.394   2.121
79717SOL    HW240991  11.290   9.467   1.992
79718SOL     OW40992   6.274  10.223   7.834
79718SOL    HW140993   6.353  10.276   7.827
79718SOL    HW240994   6.202  10.286   7.824
79719SOL     OW40995   9.675   0.095   4.395
79719SOL    HW140996   9.693   0.186   4.419
79719SOL    HW240997   9.676   0.095   4.299
79720SOL     OW40998  10.795  10.617   2.170
79720SOL    HW140999  10.848  10.694   2.191
79720SOL    HW241000  10.761  10.635   2.083
79721SOL     OW41001   0.078  12.913  10.000
79721SOL    HW141002   0.024  12.992  10.004
79721SOL    HW241003   0.164  12.944   9.971
79722SOL     OW41004   9.539   1.841   8.471
79722SOL    HW141005   9.538   1.767   8.531
79722SOL    HW241006   9.484   1.907   8.513
79723SOL     OW41007  11.258   6.783   8.063
79723SOL    HW141008  11.295   6.870   8.082
79723SOL    HW241009  11.323   6.742   8.005
79724SOL     OW41010   9.690   8.478  14.075
79724SOL    HW141011   9.618   8.422  14.048
79724SOL    HW241012   9.677   8.491  14.168
79725SOL     OW41013   1.050  10.105   2.183
79725SOL    HW141014   1.104  10.045   2.234
79725SOL    HW241015   1.001  10.049   2.123
79726SOL     OW41016   5.329   0.732  14.538
79726SOL    HW141017   5.327   0.795  14.610
79726SOL    HW241018   5.368   0.780  14.465
79727SOL     OW41019   7.038  13.186  13.488
79727SOL    HW141020   7.031  13.154  13.578
79727SOL    HW241021   6.969  13.141  13.441
79728SOL     OW41022   0.630   5.882   7.761
79728SOL    HW141023   0.647   5.950   7.827
79728SOL    HW241024   0.587   5.930   7.689
79729SOL     OW41025   8.197   0.695  10.789
79729SOL    HW141026   8.199   0.629  10.859
79729SOL    HW241027   8.268   0.755  10.810
79730SOL     OW41028   1.092   0.265  10.917
79730SOL    HW141029   1.100   0.345  10.969
79730SOL    HW241030   1.168   0.267  10.859
79731SOL     OW41031   6.370   3.434   7.966
79731SOL    HW141032   6.442   3.496   7.953
79731SOL    HW241033   6.411   3.358   8.006
79732SOL     OW41034   5.264   7.453  13.391
79732SOL    HW141035   5.292   7.364  13.413
79732SOL    HW241036   5.344   7.501  13.373
79733SOL     OW41037   6.909   6.204   6.486
79733SOL    HW141038   6.975   6.261   6.446
79733SOL    HW241039   6.957   6.125   6.509
79734SOL     OW41040  10.677   5.714   5.219
79734SOL    HW141041  10.669   5.796   5.170
79734SOL    HW241042  10.623   5.652   5.169
79735SOL     OW41043  11.601   3.375   5.407
79735SOL    HW141044  11.512   3.352   5.435
79735SOL    HW241045  11.650   3.293   5.411
79736SOL     OW41046  12.492   5.095   9.733
79736SOL    HW141047  12.397   5.087   9.727
79736SOL    HW241048  12.524   5.054   9.652
79737SOL     OW41049   0.226   9.457   7.406
79737SOL    HW141050   0.158   9.396   7.377
79737SOL    HW241051   0.288   9.402   7.455
79738SOL     OW41052   5.123   9.724   3.014
79738SOL    HW141053   5.078   9.791   2.963
79738SOL    HW241054   5.206   9.764   3.039
79739SOL     OW41055   6.226  10.554  12.075
79739SOL    HW141056   6.223  10.493  12.149
79739SOL    HW241057   6.269  10.505  12.005
79740SOL     OW41058   9.640  14.767  12.022
79740SOL    HW141059   9.731  14.745  12.001
79740SOL    HW241060   9.645  14.821  12.101
79741SOL     OW41061  13.084  11.356  11.072
79741SOL    HW141062  13.117  11.292  11.134
79741SOL    HW241063  13.017  11.310  11.022
79742SOL     OW41064   1.242  11.749   3.135
79742SOL    HW141065   1.160  11.798   3.130
79742SOL    HW241066   1.218  11.668   3.179
79743SOL     OW41067   4.230  11.233   3.040
79743SOL    HW141068   4.309  11.266   2.998
79743SOL    HW241069   4.241  11.256   3.132
79744SOL     OW41070   9.327   3.728   0.091
79744SOL    HW141071   9.359   3.638   0.089
79744SOL    HW241072   9.263   3.730   0.162
79745SOL     OW41073   1.131   7.565   6.332
79745SOL    HW141074   1.098   7.610   6.409
79745SOL    HW241075   1.170   7.484   6.366
79746SOL     OW41076   4.093   8.346   2.877
79746SOL    HW141077   4.038   8.424   2.870
79746SOL    HW241078   4.098   8.328   2.971
79747SOL     OW41079   8.403  13.149   2.010
79747SOL    HW141080   8.465  13.204   1.961
79747SOL    HW241081   8.420  13.169   2.102
79748SOL     OW41082   3.429  13.557   4.015
79748SOL    HW141083   3.336  13.543   4.032
79748SOL    HW241084   3.463  13.470   3.993
79749SOL     OW41085   8.384  10.259   9.668
79749SOL    HW141086   8.477  10.273   9.650
79749SOL    HW241087   8.345  10.249   9.581
79750SOL     OW41088   6.644   0.157   9.243
79750SOL    HW141089   6.736   0.137   9.256
79750SOL    HW241090   6.641   0.202   9.158
79751SOL     OW41091   8.375  12.652   7.920
79751SOL    HW141092   8.421  12.582   7.875
79751SOL    HW241093   8.289  12.616   7.940
79752SOL     OW41094  14.045  11.576  10.730
79752SOL    HW141095  14.134  11.592  10.759
79752SOL    HW241096  14.029  11.644  10.664
79753SOL     OW41097   0.054   9.304  13.612
79753SOL    HW141098  14.847   9.271  13.645
79753SOL    HW241099   0.089   9.357  13.684
79754SOL     OW41100  11.147  10.376  13.909
79754SOL    HW141101  11.119  10.345  13.994
79754SOL    HW241102  11.154  10.298  13.855
79755SOL     OW41103   1.998  10.403   3.412
79755SOL    HW141104   1.939  10.449   3.352
79755SOL    HW241105   2.037  10.473   3.465
79756SOL     OW41106   9.493   6.189  10.800
79756SOL    HW141107   9.421   6.146  10.846
79756SOL    HW241108   9.567   6.129  10.809
79757SOL     OW41109  11.550   2.753  14.485
79757SOL    HW141110  11.565   2.839  14.524
79757SOL    HW241111  11.493   2.708  14.547
79758SOL     OW41112   3.442  12.691  11.529
79758SOL    HW141113   3.390  12.747  11.586
79758SOL    HW241114   3.512  12.658  11.585
79759SOL     OW41115   5.668   0.597  12.838
79759SOL    HW141116   5.741   0.555  12.883
79759SOL    HW241117   5.593   0.540  12.856
79760SOL     OW41118   5.560  12.954   6.993
79760SOL    HW141119   5.650  12.929   6.971
79760SOL    HW241120   5.528  12.883   7.049
79761SOL     OW41121   3.799   7.789  14.344
79761SOL    HW141122   3.784   7.695  14.347
79761SOL    HW241123   3.849   7.803  14.263
79762SOL     OW41124  10.113   2.946   3.838
79762SOL    HW141125  10.169   3.011   3.880
79762SOL    HW241126  10.154   2.931   3.753
79763SOL     OW41127   4.732   5.194  13.554
79763SOL    HW141128   4.763   5.116  13.509
79763SOL    HW241129   4.810   5.234  13.591
79764SOL     OW41130   2.232  11.574   3.962
79764SOL    HW141131   2.304  11.577   4.025
79764SOL    HW241132   2.274  11.548   3.880
79765SOL     OW41133   7.395   9.875   4.135
79765SOL    HW141134   7.393   9.802   4.073
79765SOL    HW241135   7.312   9.920   4.121
79766SOL     OW41136   0.622  14.316  14.179
79766SOL    HW141137   0.611  14.224  14.152
79766SOL    HW241138   0.676  14.311  14.258
79767SOL     OW41139   7.572  12.728   4.728
79767SOL    HW141140   7.642  12.791   4.712
79767SOL    HW241141   7.610  12.643   4.706
79768SOL     OW41142   1.592   6.706   1.623
79768SOL    HW141143   1.663   6.769   1.632
79768SOL    HW241144   1.543   6.735   1.546
79769SOL     OW41145   9.512   0.113   5.269
79769SOL    HW141146   9.595   0.126   5.222
79769SOL    HW241147   9.518   0.173   5.344
79770SOL     OW41148  11.748   6.553   1.965
79770SOL    HW141149  11.758   6.472   1.916
79770SOL    HW241150  11.672   6.596   1.925
79771SOL     OW41151   0.230  11.820   8.592
79771SOL    HW141152   0.291  11.891   8.610
79771SOL    HW241153   0.151  11.863   8.561
79772SOL     OW41154   6.893   9.014   2.895
79772SOL    HW141155   6.938   8.937   2.930
79772SOL    HW241156   6.835   8.978   2.828
79773SOL     OW41157   1.026   9.754   5.469
79773SOL    HW141158   1.022   9.668   5.511
79773SOL    HW241159   1.001   9.816   5.538
79774SOL     OW41160  14.109   9.273   6.238
79774SOL    HW141161  14.187   9.217   6.241
79774SOL    HW241162  14.081   9.271   6.147
79775SOL     OW41163  14.034   9.559   2.140
79775SOL    HW141164  14.048   9.652   2.120
79775SOL    HW241165  14.089   9.543   2.216
79776SOL     OW41166  11.153   2.267   6.590
79776SOL    HW141167  11.085   2.199   6.592
79776SOL    HW241168  11.157   2.293   6.498
79777SOL     OW41169   0.201   5.151  11.689
79777SOL    HW141170   0.218   5.083  11.754
79777SOL    HW241171   0.260   5.130  11.616
79778SOL     OW41172  12.529  13.157   2.854
79778SOL    HW141173  12.605  13.115   2.816
79778SOL    HW241174  12.564  13.225   2.911
79779SOL     OW41175   0.860  10.974   9.481
79779SOL    HW141176   0.914  10.995   9.405
79779SOL    HW241177   0.808  11.053   9.497
79780SOL     OW41178  11.489   6.266   7.605
79780SOL    HW141179  11.465   6.300   7.691
79780SOL    HW241180  11.405   6.259   7.558
79781SOL     OW41181   4.153   2.095   3.872
79781SOL    HW141182   4.073   2.122   3.827
79781SOL    HW241183   4.129   2.013   3.915
79782SOL     OW41184   7.939   9.188  14.834
79782SOL    HW141185   7.914   9.277  14.860
79782SOL    HW241186   7.863   9.155  14.788
79783SOL     OW41187   3.211   1.954   5.996
79783SOL    HW141188   3.206   1.910   5.911
79783SOL    HW241189   3.131   1.928   6.041
79784SOL     OW41190   5.991   3.353  12.557
79784SOL    HW141191   5.992   3.257  12.553
79784SOL    HW241192   6.076   3.379  12.521
79785SOL     OW41193   2.108   6.695   6.878
79785SOL    HW141194   2.148   6.780   6.858
79785SOL    HW241195   2.181   6.634   6.884
79786SOL     OW41196  14.833   5.862   5.145
79786SOL    HW141197   0.035   5.810   5.158
79786SOL    HW241198  14.770   5.801   5.106
79787SOL     OW41199  11.984   8.565  14.630
79787SOL    HW141200  12.010   8.618  14.555
79787SOL    HW241201  12.030   8.482  14.617
79788SOL     OW41202  14.156   8.475   1.190
79788SOL    HW141203  14.130   8.538   1.122
79788SOL    HW241204  14.181   8.396   1.142
79789SOL     OW41205   7.016  11.912  11.825
79789SOL    HW141206   7.037  11.833  11.875
79789SOL    HW241207   6.969  11.880  11.748
79790SOL     OW41208  13.074   4.535   8.295
79790SOL    HW141209  13.161   4.510   8.324
79790SOL    HW241210  13.086   4.620   8.251
79791SOL     OW41211  10.370   6.327   5.772
79791SOL    HW141212  10.326   6.295   5.851
79791SOL    HW241213  10.340   6.267   5.703
79792SOL     OW41214  14.475  11.944  12.332
79792SOL    HW141215  14.483  12.038  12.353
79792SOL    HW241216  14.441  11.943  12.243
79793SOL     OW41217   0.524   4.622  12.533
79793SOL    HW141218   0.557   4.539  12.566
79793SOL    HW241219   0.454   4.646  12.593
79794SOL     OW41220  10.759   2.187   9.812
79794SOL    HW141221  10.810   2.146   9.742
79794SOL    HW241222  10.819   2.189   9.887
79795SOL     OW41223   1.017  11.277   9.140
79795SOL    HW141224   0.999  11.192   9.182
79795SOL    HW241225   1.009  11.341   9.211
79796SOL     OW41226  12.566   9.231   5.170
79796SOL    HW141227  12.598   9.314   5.204
79796SOL    HW241228  12.645   9.180   5.154
79797SOL     OW41229  10.420   9.636  13.199
79797SOL    HW141230  10.372   9.709  13.158
79797SOL    HW241231  10.467   9.595  13.126
79798SOL     OW41232   3.956   4.842  13.579
79798SOL    HW141233   3.989   4.771  13.635
79798SOL    HW241234   3.897   4.892  13.635
79799SOL     OW41235   1.312   7.783  12.360
79799SOL    HW141236   1.221   7.797  12.389
79799SOL    HW241237   1.309   7.795  12.265
79800SOL     OW41238   8.882   0.727  11.633
79800SOL    HW141239   8.954   0.665  11.641
79800SOL    HW241240   8.908   0.786  11.562
79801SOL     OW41241   3.158   0.173   9.020
79801SOL    HW141242   3.069   0.186   9.053
79801SOL    HW241243   3.186   0.091   9.059
79802SOL     OW41244   8.927   0.215  11.207
79802SOL    HW141245   8.950   0.141  11.263
79802SOL    HW241246   8.833   0.203  11.189
79803SOL     OW41247  12.951  10.855  12.436
79803SOL    HW141248  12.920  10.777  12.390
79803SOL    HW241249  12.876  10.915  12.434
79804SOL     OW41250  13.326   7.754   3.649
79804SOL    HW141251  13.344   7.839   3.610
79804SOL    HW241252  13.241   7.729   3.613
79805SOL     OW41253   4.287  14.119  12.460
79805SOL    HW141254   4.269  14.183  12.528
79805SOL    HW241255   4.287  14.035  12.506
79806SOL     OW41256   8.862   5.980  13.171
79806SOL    HW141257   8.905   5.932  13.242
79806SOL    HW241258   8.885   5.933  13.092
79807SOL     OW41259   8.208   2.697  14.375
79807SOL    HW141260   8.176   2.617  14.417
79807SOL    HW241261   8.129   2.745  14.351
79808SOL     OW41262   7.017   4.058  10.913
79808SOL    HW141263   6.947   3.994  10.899
79808SOL    HW241264   7.078   4.015  10.973
79809SOL     OW41265  14.498  13.572  11.249
79809SOL    HW141266  14.564  13.547  11.184
79809SOL    HW241267  14.493  13.497  11.308
79810SOL     OW41268   4.429   1.085   6.051
79810SOL    HW141269   4.453   1.150   6.117
79810SOL    HW241270   4.397   1.136   5.977
79811SOL     OW41271   3.050  13.383   1.120
79811SOL    HW141272   3.025  13.470   1.088
79811SOL    HW241273   3.104  13.346   1.050
79812SOL     OW41274   5.996   3.966  10.992
79812SOL    HW141275   6.085   3.977  10.957
79812SOL    HW241276   6.002   3.997  11.083
79813SOL     OW41277   0.186   1.910   6.838
79813SOL    HW141278   0.210   2.001   6.859
79813SOL    HW241279   0.129   1.918   6.762
79814SOL     OW41280   2.106   7.042   7.662
79814SOL    HW141281   2.100   7.066   7.755
79814SOL    HW241282   2.159   7.112   7.623
79815SOL     OW41283  12.436  12.527   9.674
79815SOL    HW141284  12.343  12.540   9.693
79815SOL    HW241285  12.477  12.611   9.697
79816SOL     OW41286   8.415   1.964   7.496
79816SOL    HW141287   8.426   1.904   7.422
79816SOL    HW241288   8.368   2.039   7.459
79817SOL     OW41289  13.813   2.469   5.170
79817SOL    HW141290  13.814   2.467   5.266
79817SOL    HW241291  13.729   2.430   5.146
79818SOL     OW41292   4.575   8.510  12.836
79818SOL    HW141293   4.601   8.542  12.749
79818SOL    HW241294   4.578   8.415  12.827
79819SOL     OW41295   0.689   4.390   1.392
79819SOL    HW141296   0.659   4.299   1.401
79819SOL    HW241297   0.616   4.436   1.350
79820SOL     OW41298   1.152   9.913  11.967
79820SOL    HW141299   1.167   9.991  12.021
79820SOL    HW241300   1.240   9.876  11.955
79821SOL     OW41301  12.235  14.606   0.814
79821SOL    HW141302  12.281  14.611   0.731
79821SOL    HW241303  12.304  14.586   0.878
79822SOL     OW41304  10.333   3.349   6.194
79822SOL    HW141305  10.275   3.276   6.174
79822SOL    HW241306  10.393   3.354   6.119
79823SOL     OW41307   8.708   5.164   0.761
79823SOL    HW141308   8.732   5.072   0.748
79823SOL    HW241309   8.640   5.180   0.697
79824SOL     OW41310   6.129   1.472  14.302
79824SOL    HW141311   6.176   1.458  14.220
79824SOL    HW241312   6.094   1.561  14.295
79825SOL     OW41313   7.177  14.295  10.940
79825SOL    HW141314   7.151  14.205  10.916
79825SOL    HW241315   7.109  14.323  11.002
79826SOL     OW41316   6.736   3.422   5.667
79826SOL    HW141317   6.695   3.435   5.753
79826SOL    HW241318   6.802   3.355   5.682
79827SOL     OW41319   5.428   8.757   2.691
79827SOL    HW141320   5.495   8.760   2.759
79827SOL    HW241321   5.427   8.665   2.663
79828SOL     OW41322   2.867  14.751   5.945
79828SOL    HW141323   2.945  14.732   5.893
79828SOL    HW241324   2.884  14.710   6.030
79829SOL     OW41325  13.934   0.846   6.105
79829SOL    HW141326  13.862   0.854   6.168
79829SOL    HW241327  13.940   0.752   6.088
79830SOL     OW41328  11.505   3.146   1.976
79830SOL    HW141329  11.445   3.188   2.038
79830SOL    HW241330  11.464   3.062   1.956
79831SOL     OW41331   6.894   8.399   8.564
79831SOL    HW141332   6.870   8.331   8.626
79831SOL    HW241333   6.845   8.476   8.592
79832SOL     OW41334  11.038   9.107  10.803
79832SOL    HW141335  11.132   9.093  10.813
79832SOL    HW241336  11.031   9.182  10.744
79833SOL     OW41337   5.928   5.535   5.030
79833SOL    HW141338   5.856   5.506   5.086
79833SOL    HW241339   5.924   5.630   5.033
79834SOL     OW41340  12.123  12.404   0.311
79834SOL    HW141341  12.215  12.424   0.329
79834SOL    HW241342  12.076  12.437   0.387
79835SOL     OW41343   9.351   6.614  11.146
79835SOL    HW141344   9.371   6.535  11.096
79835SOL    HW241345   9.369   6.590  11.237
79836SOL     OW41346   6.707   9.016  11.702
79836SOL    HW141347   6.707   9.046  11.611
79836SOL    HW241348   6.638   9.066  11.745
79837SOL     OW41349  10.747   2.137   7.762
79837SOL    HW141350  10.693   2.216   7.758
79837SOL    HW241351  10.795   2.136   7.679
79838SOL     OW41352  13.465   1.299   3.374
79838SOL    HW141353  13.382   1.310   3.421
79838SOL    HW241354  13.490   1.387   3.347
79839SOL     OW41355   1.017   3.483   6.439
79839SOL    HW141356   1.015   3.429   6.360
79839SOL    HW241357   1.065   3.431   6.502
79840SOL     OW41358  11.241   0.827   3.584
79840SOL    HW141359  11.332   0.800   3.569
79840SOL    HW241360  11.189   0.762   3.537
79841SOL     OW41361  14.288   8.444   9.051
79841SOL    HW141362  14.233   8.440   8.973
79841SOL    HW241363  14.273   8.532   9.086
79842SOL     OW41364  10.203   4.654   0.657
79842SOL    HW141365  10.108   4.665   0.669
79842SOL    HW241366  10.214   4.562   0.635
79843SOL     OW41367   6.131   1.487   1.965
79843SOL    HW141368   6.066   1.548   2.001
79843SOL    HW241369   6.167   1.443   2.041
79844SOL     OW41370   9.249   8.951   2.999
79844SOL    HW141371   9.189   8.899   3.053
79844SOL    HW241372   9.191   9.006   2.946
79845SOL     OW41373   1.185  14.491   6.608
79845SOL    HW141374   1.119  14.525   6.548
79845SOL    HW241375   1.150  14.510   6.695
79846SOL     OW41376   0.347   0.237   5.006
79846SOL    HW141377   0.343   0.166   5.071
79846SOL    HW241378   0.262   0.234   4.962
79847SOL     OW41379   5.671  14.653   5.733
79847SOL    HW141380   5.669  14.711   5.656
79847SOL    HW241381   5.619  14.577   5.707
79848SOL     OW41382  14.006   3.968  12.544
79848SOL    HW141383  13.951   3.921  12.481
79848SOL    HW241384  14.096   3.953  12.513
79849SOL     OW41385   3.137   1.355  10.287
79849SOL    HW141386   3.088   1.327  10.364
79849SOL    HW241387   3.227   1.366  10.318
79850SOL     OW41388   8.284  14.521   1.242
79850SOL    HW141389   8.322  14.561   1.321
79850SOL    HW241390   8.190  14.537   1.251
79851SOL     OW41391  12.950   0.848  10.198
79851SOL    HW141392  12.877   0.842  10.259
79851SOL    HW241393  13.026   0.865  10.253
79852SOL     OW41394   8.378  12.910   9.288
79852SOL    HW141395   8.435  12.835   9.305
79852SOL    HW241396   8.299  12.892   9.338
79853SOL     OW41397   6.698   5.834   0.462
79853SOL    HW141398   6.649   5.908   0.426
79853SOL    HW241399   6.693   5.847   0.557
79854SOL     OW41400  11.153   9.722  10.012
79854SOL    HW141401  11.104   9.763   9.940
79854SOL    HW241402  11.112   9.636  10.023
79855SOL     OW41403   5.781   1.927   5.315
79855SOL    HW141404   5.706   1.872   5.293
79855SOL    HW241405   5.743   2.009   5.346
79856SOL     OW41406   6.758  10.924   8.845
79856SOL    HW141407   6.755  10.952   8.754
79856SOL    HW241408   6.850  10.904   8.861
79857SOL     OW41409   2.782   2.446  11.490
79857SOL    HW141410   2.763   2.539  11.492
79857SOL    HW241411   2.709   2.408  11.440
79858SOL     OW41412  14.152   0.192   1.987
79858SOL    HW141413  14.135   0.175   1.894
79858SOL    HW241414  14.065   0.198   2.027
79859SOL     OW41415   0.155   8.068   6.135
79859SOL    HW141416   0.182   8.153   6.168
79859SOL    HW241417   0.125   8.020   6.212
79860SOL     OW41418   3.784   8.449  12.363
79860SOL    HW141419   3.714   8.499  12.403
79860SOL    HW241420   3.818   8.505  12.294
79861SOL     OW41421  14.740   0.131   0.851
79861SOL    HW141422  14.689   0.191   0.905
79861SOL    HW241423  14.690   0.050   0.850
79862SOL     OW41424   0.076   1.583   2.846
79862SOL    HW141425   0.107   1.662   2.800
79862SOL    HW241426   0.006   1.549   2.791
79863SOL     OW41427  10.786  11.228   9.436
79863SOL    HW141428  10.733  11.162   9.481
79863SOL    HW241429  10.744  11.240   9.351
79864SOL     OW41430   9.350  10.453   9.106
79864SOL    HW141431   9.264  10.473   9.144
79864SOL    HW241432   9.409  10.449   9.181
79865SOL     OW41433   0.709   2.554  12.186
79865SOL    HW141434   0.792   2.508  12.201
79865SOL    HW241435   0.661   2.499  12.124
79866SOL     OW41436   4.722  14.784  10.199
79866SOL    HW141437   4.748  14.745  10.282
79866SOL    HW241438   4.659  14.722  10.162
79867SOL     OW41439   0.566  10.458   0.320
79867SOL    HW141440   0.514  10.397   0.268
79867SOL    HW241441   0.554  10.543   0.276
79868SOL     OW41442   3.273   5.561  12.332
79868SOL    HW141443   3.354   5.609  12.314
79868SOL    HW241444   3.229   5.556  12.248
79869SOL     OW41445   4.090   7.377   6.806
79869SOL    HW141446   4.039   7.458   6.811
79869SOL    HW241447   4.042   7.323   6.743
79870SOL     OW41448  10.943   3.644   7.541
79870SOL    HW141449  10.847   3.645   7.549
79870SOL    HW241450  10.962   3.562   7.495
79871SOL     OW41451  14.611   2.960  11.862
79871SOL    HW141452  14.631   2.927  11.774
79871SOL    HW241453  14.611   2.882  11.917
79872SOL     OW41454  14.427   7.566   3.173
79872SOL    HW141455  14.385   7.640   3.217
79872SOL    HW241456  14.363   7.536   3.109
79873SOL     OW41457   7.418   6.750   0.934
79873SOL    HW141458   7.344   6.700   0.968
79873SOL    HW241459   7.402   6.840   0.963
79874SOL     OW41460   9.832  11.359   4.267
79874SOL    HW141461   9.776  11.381   4.341
79874SOL    HW241462   9.879  11.281   4.295
79875SOL     OW41463   5.277   6.641   1.907
79875SOL    HW141464   5.183   6.645   1.924
79875SOL    HW241465   5.284   6.594   1.824
79876SOL     OW41466  13.709  13.713   6.411
79876SOL    HW141467  13.759  13.724   6.330
79876SOL    HW241468  13.722  13.621   6.435
79877SOL     OW41469   9.068  13.544   4.592
79877SOL    HW141470   9.115  13.562   4.511
79877SOL    HW241471   8.986  13.592   4.584
79878SOL     OW41472   1.160   9.690   0.614
79878SOL    HW141473   1.222   9.736   0.557
79878SOL    HW241474   1.115   9.760   0.661
79879SOL     OW41475   1.947  13.066   2.294
79879SOL    HW141476   2.013  13.086   2.228
79879SOL    HW241477   1.965  12.976   2.320
79880SOL     OW41478   8.767  14.146   1.177
79880SOL    HW141479   8.824  14.194   1.117
79880SOL    HW241480   8.769  14.056   1.146
79881SOL     OW41481  10.256   5.326   8.054
79881SOL    HW141482  10.301   5.402   8.090
79881SOL    HW241483  10.186   5.363   8.000
79882SOL     OW41484   7.152   2.081   3.709
79882SOL    HW141485   7.234   2.046   3.673
79882SOL    HW241486   7.135   2.160   3.659
79883SOL     OW41487   8.874   4.472   8.734
79883SOL    HW141488   8.824   4.553   8.746
79883SOL    HW241489   8.838   4.434   8.654
79884SOL     OW41490   7.948   2.530   9.774
79884SOL    HW141491   7.974   2.596   9.838
79884SOL    HW241492   7.853   2.520   9.787
79885SOL     OW41493  11.046   7.660   2.218
79885SOL    HW141494  11.134   7.692   2.196
79885SOL    HW241495  11.058   7.566   2.231
79886SOL     OW41496   8.499   3.884   7.106
79886SOL    HW141497   8.484   3.831   7.028
79886SOL    HW241498   8.560   3.952   7.078
79887SOL     OW41499   2.594  11.567   1.470
79887SOL    HW141500   2.575  11.660   1.457
79887SOL    HW241501   2.552  11.546   1.554
79888SOL     OW41502  14.544  10.737   2.230
79888SOL    HW141503  14.597  10.813   2.206
79888SOL    HW241504  14.455  10.772   2.241
79889SOL     OW41505   4.428   0.031   7.364
79889SOL    HW141506   4.372   0.089   7.312
79889SOL    HW241507   4.505   0.083   7.384
79890SOL     OW41508   4.106   5.017   5.385
79890SOL    HW141509   4.133   5.074   5.312
79890SOL    HW241510   4.144   4.932   5.364
79891SOL     OW41511   4.237   7.869   9.290
79891SOL    HW141512   4.330   7.850   9.303
79891SOL    HW241513   4.221   7.948   9.342
79892SOL     OW41514   0.116  13.416   3.980
79892SOL    HW141515   0.208  13.391   3.966
79892SOL    HW241516   0.066  13.345   3.939
79893SOL     OW41517   1.943  12.028   4.105
79893SOL    HW141518   1.863  12.069   4.137
79893SOL    HW241519   1.914  11.946   4.065
79894SOL     OW41520   7.472  12.625  14.642
79894SOL    HW141521   7.380  12.649  14.640
79894SOL    HW241522   7.472  12.531  14.664
79895SOL     OW41523  13.711   9.239   0.935
79895SOL    HW141524  13.692   9.295   0.860
79895SOL    HW241525  13.631   9.241   0.988
79896SOL     OW41526  14.255  14.106  12.943
79896SOL    HW141527  14.312  14.182  12.932
79896SOL    HW241528  14.190  14.115  12.873
79897SOL     OW41529   3.466   8.058   3.333
79897SOL    HW141530   3.436   8.142   3.368
79897SOL    HW241531   3.386   8.015   3.304
79898SOL     OW41532  14.447  12.371   6.739
79898SOL    HW141533  14.498  12.350   6.661
79898SOL    HW241534  14.387  12.439   6.711
79899SOL     OW41535   7.603   6.393  11.450
79899SOL    HW141536   7.524   6.362  11.406
79899SOL    HW241537   7.617   6.331  11.521
79900SOL     OW41538  10.171   2.821   9.322
79900SOL    HW141539  10.233   2.782   9.383
79900SOL    HW241540  10.182   2.915   9.334
79901SOL     OW41541   2.530  12.870  12.896
79901SOL    HW141542   2.472  12.881  12.821
79901SOL    HW241543   2.473  12.879  12.972
79902SOL     OW41544   1.022   5.552   1.671
79902SOL    HW141545   0.970   5.632   1.659
79902SOL    HW241546   1.028   5.542   1.766
79903SOL     OW41547   3.174   9.468   2.941
79903SOL    HW141548   3.153   9.442   3.031
79903SOL    HW241549   3.109   9.423   2.888
79904SOL     OW41550  12.013   8.066   4.074
79904SOL    HW141551  11.942   8.003   4.062
79904SOL    HW241552  12.054   8.040   4.156
79905SOL     OW41553  13.055   5.884   0.451
79905SOL    HW141554  13.132   5.872   0.506
79905SOL    HW241555  13.062   5.815   0.385
79906SOL     OW41556   0.656  10.496   2.155
79906SOL    HW141557   0.588  10.536   2.210
79906SOL    HW241558   0.675  10.562   2.089
79907SOL     OW41559  13.617  11.849   1.025
79907SOL    HW141560  13.560  11.914   1.068
79907SOL    HW241561  13.566  11.820   0.950
79908SOL     OW41562   4.019   5.978   9.276
79908SOL    HW141563   3.988   5.923   9.205
79908SOL    HW241564   3.984   6.065   9.256
79909SOL     OW41565   6.052   7.640  14.706
79909SOL    HW141566   6.050   7.579  14.780
79909SOL    HW241567   5.959   7.657  14.687
79910SOL     OW41568   6.412  14.797   0.908
79910SOL    HW141569   6.372  14.710   0.910
79910SOL    HW241570   6.489  14.787   0.853
79911SOL     OW41571  13.015   6.908   3.358
79911SOL    HW141572  12.980   6.926   3.445
79911SOL    HW241573  13.110   6.902   3.372
79912SOL     OW41574   0.350  10.786   6.168
79912SOL    HW141575   0.395  10.811   6.088
79912SOL    HW241576   0.262  10.759   6.140
79913SOL     OW41577   2.762   8.812   8.956
79913SOL    HW141578   2.828   8.764   9.005
79913SOL    HW241579   2.808   8.846   8.879
79914SOL     OW41580   4.879  10.945  11.372
79914SOL    HW141581   4.836  10.881  11.428
79914SOL    HW241582   4.918  10.893  11.302
79915SOL     OW41583   7.562   3.617   9.829
79915SOL    HW141584   7.535   3.709   9.834
79915SOL    HW241585   7.623   3.614   9.756
79916SOL     OW41586   1.899  11.236   0.103
79916SOL    HW141587   1.979  11.209   0.147
79916SOL    HW241588   1.922  11.319   0.061
79917SOL     OW41589   2.735   9.624  12.397
79917SOL    HW141590   2.646   9.588  12.391
79917SOL    HW241591   2.769   9.590  12.480
79918SOL     OW41592   0.367   0.821  13.863
79918SOL    HW141593   0.315   0.852  13.788
79918SOL    HW241594   0.401   0.737  13.835
79919SOL     OW41595   9.599  11.998   6.490
79919SOL    HW141596   9.557  12.072   6.534
79919SOL    HW241597   9.539  11.975   6.420
79920SOL     OW41598   4.804  10.633  10.520
79920SOL    HW141599   4.854  10.692  10.464
79920SOL    HW241600   4.838  10.546  10.499
79921SOL     OW41601   4.371   5.517   3.606
79921SOL    HW141602   4.279   5.493   3.616
79921SOL    HW241603   4.415   5.473   3.679
79922SOL     OW41604  11.870   6.479   0.815
79922SOL    HW141605  11.964   6.475   0.833
79922SOL    HW241606  11.837   6.546   0.876
79923SOL     OW41607   8.924   6.437   6.440
79923SOL    HW141608   8.988   6.460   6.373
79923SOL    HW241609   8.972   6.379   6.500
79924SOL     OW41610   8.189   6.461   1.723
79924SOL    HW141611   8.101   6.423   1.720
79924SOL    HW241612   8.240   6.399   1.775
79925SOL     OW41613   3.611   4.141   2.742
79925SOL    HW141614   3.631   4.185   2.659
79925SOL    HW241615   3.689   4.088   2.760
79926SOL     OW41616   2.898   0.564   2.659
79926SOL    HW141617   2.932   0.641   2.613
79926SOL    HW241618   2.935   0.571   2.747
79927SOL     OW41619  13.646   6.535  11.473
79927SOL    HW141620  13.706   6.590  11.423
79927SOL    HW241621  13.560   6.552  11.435
79928SOL     OW41622   5.126   3.434   6.799
79928SOL    HW141623   5.105   3.446   6.706
79928SOL    HW241624   5.218   3.408   6.800
79929SOL     OW41625   8.901   2.596   3.531
79929SOL    HW141626   8.979   2.549   3.563
79929SOL    HW241627   8.909   2.684   3.570
79930SOL     OW41628   6.164   4.540  13.149
79930SOL    HW141629   6.110   4.461  13.144
79930SOL    HW241630   6.246   4.515  13.106
79931SOL     OW41631  11.690  10.207   0.204
79931SOL    HW141632  11.633  10.193   0.279
79931SOL    HW241633  11.770  10.244   0.241
79932SOL     OW41634   4.907   8.064   2.127
79932SOL    HW141635   4.887   8.040   2.036
79932SOL    HW241636   4.856   8.002   2.180
79933SOL     OW41637   0.605   5.668   6.598
79933SOL    HW141638   0.561   5.727   6.660
79933SOL    HW241639   0.681   5.636   6.645
79934SOL     OW41640  10.124  11.378   0.253
79934SOL    HW141641  10.096  11.467   0.231
79934SOL    HW241642  10.071  11.354   0.329
79935SOL     OW41643  13.674   6.945  11.719
79935SOL    HW141644  13.688   6.992  11.802
79935SOL    HW241645  13.604   6.883  11.738
79936SOL     OW41646   4.329  10.886   0.932
79936SOL    HW141647   4.416  10.858   0.962
79936SOL    HW241648   4.271  10.813   0.954
79937SOL     OW41649   0.473   0.592  12.656
79937SOL    HW141650   0.406   0.591  12.724
79937SOL    HW241651   0.553   0.565  12.700
79938SOL     OW41652   2.525   0.083   8.178
79938SOL    HW141653   2.484   0.169   8.172
79938SOL    HW241654   2.453   0.021   8.169
79939SOL     OW41655   6.931   4.271   1.753
79939SOL    HW141656   6.995   4.254   1.684
79939SOL    HW241657   6.886   4.351   1.726
79940SOL     OW41658   3.381  11.303   5.690
79940SOL    HW141659   3.468  11.326   5.658
79940SOL    HW241660   3.354  11.229   5.636
79941SOL     OW41661  11.901  11.014   3.636
79941SOL    HW141662  11.900  11.110   3.640
79941SOL    HW241663  11.827  10.992   3.579
79942SOL     OW41664  10.571  12.824   0.227
79942SOL    HW141665  10.617  12.776   0.158
79942SOL    HW241666  10.640  12.864   0.279
79943SOL     OW41667  12.472   8.839   4.030
79943SOL    HW141668  12.526   8.909   4.067
79943SOL    HW241669  12.478   8.767   4.092
79944SOL     OW41670   3.306   2.865   2.129
79944SOL    HW141671   3.361   2.943   2.128
79944SOL    HW241672   3.300   2.841   2.222
79945SOL     OW41673   6.589   4.281  12.849
79945SOL    HW141674   6.676   4.261  12.883
79945SOL    HW241675   6.549   4.195  12.836
79946SOL     OW41676   7.666   2.757  12.880
79946SOL    HW141677   7.587   2.799  12.912
79946SOL    HW241678   7.707   2.720  12.958
79947SOL     OW41679   5.811   0.367  12.926
79947SOL    HW141680   5.845   0.317  12.852
79947SOL    HW241681   5.749   0.308  12.968
79948SOL     OW41682  12.764   8.627   1.574
79948SOL    HW141683  12.691   8.645   1.633
79948SOL    HW241684  12.818   8.563   1.621
79949SOL     OW41685   7.925   1.494  10.637
79949SOL    HW141686   7.950   1.413  10.681
79949SOL    HW241687   7.844   1.520  10.681
79950SOL     OW41688   1.054  14.236   3.628
79950SOL    HW141689   1.107  14.198   3.557
79950SOL    HW241690   1.064  14.331   3.617
79951SOL     OW41691   7.403   1.355   0.145
79951SOL    HW141692   7.328   1.365   0.086
79951SOL    HW241693   7.432   1.445   0.162
79952SOL     OW41694  14.465   6.742  10.161
79952SOL    HW141695  14.520   6.723  10.236
79952SOL    HW241696  14.494   6.829  10.131
79953SOL     OW41697   0.415   1.517   3.824
79953SOL    HW141698   0.344   1.543   3.765
79953SOL    HW241699   0.473   1.464   3.770
79954SOL     OW41700  10.712   9.667   9.205
79954SOL    HW141701  10.759   9.713   9.135
79954SOL    HW241702  10.634   9.632   9.162
79955SOL     OW41703   4.737  12.943   4.698
79955SOL    HW141704   4.684  12.936   4.778
79955SOL    HW241705   4.684  12.902   4.630
79956SOL     OW41706  12.130  11.693  14.823
79956SOL    HW141707  12.162  11.783  14.824
79956SOL    HW241708  12.208  11.639  14.833
79957SOL     OW41709   1.142  10.493  13.979
79957SOL    HW141710   1.198  10.513  13.904
79957SOL    HW241711   1.159  10.401  13.999
79958SOL     OW41712  10.273  12.931  11.115
79958SOL    HW141713  10.283  12.937  11.210
79958SOL    HW241714  10.197  12.984  11.096
79959SOL     OW41715   4.294   9.902   7.324
79959SOL    HW141716   4.213   9.852   7.334
79959SOL    HW241717   4.323   9.917   7.414
79960SOL     OW41718   9.875   6.920   1.246
79960SOL    HW141719   9.924   6.972   1.310
79960SOL    HW241720   9.822   6.860   1.300
79961SOL     OW41721   9.651   7.642   3.952
79961SOL    HW141722   9.661   7.664   4.045
79961SOL    HW241723   9.580   7.578   3.950
79962SOL     OW41724  14.420   3.989   0.902
79962SOL    HW141725  14.383   4.078   0.901
79962SOL    HW241726  14.505   4.000   0.944
79963SOL     OW41727   7.361  12.423  11.247
79963SOL    HW141728   7.370  12.339  11.202
79963SOL    HW241729   7.268  12.443  11.241
79964SOL     OW41730   7.105   5.417   5.549
79964SOL    HW141731   7.057   5.336   5.530
79964SOL    HW241732   7.167   5.426   5.477
79965SOL     OW41733   4.976   4.215  11.511
79965SOL    HW141734   4.895   4.265  11.504
79965SOL    HW241735   5.030   4.265  11.572
79966SOL     OW41736   6.097   0.949   5.483
79966SOL    HW141737   6.101   1.001   5.402
79966SOL    HW241738   6.181   0.903   5.486
79967SOL     OW41739   9.944   2.274   6.908
79967SOL    HW141740   9.969   2.302   6.996
79967SOL    HW241741   9.850   2.295   6.902
79968SOL     OW41742   6.083  13.219  11.796
79968SOL    HW141743   6.097  13.307  11.761
79968SOL    HW241744   5.989  13.213  11.810
79969SOL     OW41745   0.973   9.265  13.138
79969SOL    HW141746   1.002   9.344  13.093
79969SOL    HW241747   0.993   9.281  13.230
79970SOL     OW41748   1.993  12.216  13.855
79970SOL    HW141749   2.070  12.228  13.910
79970SOL    HW241750   1.938  12.293  13.874
79971SOL     OW41751  10.510  14.590   5.853
79971SOL    HW141752  10.563  14.666   5.828
79971SOL    HW241753  10.420  14.617   5.835
79972SOL     OW41754  14.314  11.306  13.649
79972SOL    HW141755  14.393  11.257  13.627
79972SOL    HW241756  14.313  11.308  13.745
79973SOL     OW41757   7.396   4.970   1.071
79973SOL    HW141758   7.374   5.044   1.014
79973SOL    HW241759   7.449   5.008   1.141
79974SOL     OW41760   0.343   4.832   2.327
79974SOL    HW141761   0.432   4.806   2.304
79974SOL    HW241762   0.291   4.815   2.248
79975SOL     OW41763   5.396   5.236  12.306
79975SOL    HW141764   5.338   5.304  12.272
79975SOL    HW241765   5.418   5.183  12.229
79976SOL     OW41766   0.216   7.685  10.167
79976SOL    HW141767   0.124   7.659  10.177
79976SOL    HW241768   0.262   7.635  10.235
79977SOL     OW41769  13.741   8.620   8.165
79977SOL    HW141770  13.743   8.535   8.120
79977SOL    HW241771  13.690   8.677   8.106
79978SOL     OW41772   2.923   7.404   9.616
79978SOL    HW141773   3.009   7.386   9.654
79978SOL    HW241774   2.873   7.444   9.686
79979SOL     OW41775   6.991   1.284  13.644
79979SOL    HW141776   7.021   1.299  13.554
79979SOL    HW241777   7.049   1.339  13.698
79980SOL     OW41778   2.565  10.221   0.314
79980SOL    HW141779   2.566  10.288   0.246
79980SOL    HW241780   2.478  10.227   0.353
79981SOL     OW41781  11.756  11.456   8.118
79981SOL    HW141782  11.759  11.392   8.189
79981SOL    HW241783  11.799  11.412   8.044
79982SOL     OW41784  12.799  12.724   4.549
79982SOL    HW141785  12.703  12.725   4.556
79982SOL    HW241786  12.823  12.633   4.566
79983SOL     OW41787   2.932  12.921   7.543
79983SOL    HW141788   2.905  12.890   7.456
79983SOL    HW241789   2.877  12.997   7.559
79984SOL     OW41790   8.263  10.952   8.336
79984SOL    HW141791   8.319  10.935   8.260
79984SOL    HW241792   8.206  11.024   8.309
79985SOL     OW41793  12.095   9.114   4.157
79985SOL    HW141794  12.082   9.206   4.133
79985SOL    HW241795  12.095   9.067   4.074
79986SOL     OW41796   0.991   8.442   9.846
79986SOL    HW141797   1.064   8.400   9.892
79986SOL    HW241798   0.912   8.406   9.886
79987SOL     OW41799  13.717  10.394   4.958
79987SOL    HW141800  13.624  10.380   4.941
79987SOL    HW241801  13.756  10.307   4.950
79988SOL     OW41802   0.397   4.098   5.462
79988SOL    HW141803   0.388   4.185   5.423
79988SOL    HW241804   0.480   4.102   5.509
79989SOL     OW41805   7.811  10.255   4.587
79989SOL    HW141806   7.838  10.340   4.623
79989SOL    HW241807   7.831  10.261   4.494
79990SOL     OW41808   7.684  10.182  10.879
79990SOL    HW141809   7.607  10.128  10.862
79990SOL    HW241810   7.722  10.199  10.793
79991SOL     OW41811   9.478   4.924   7.255
79991SOL    HW141812   9.561   4.878   7.267
79991SOL    HW241813   9.501   5.004   7.208
79992SOL     OW41814   1.870   6.310  14.619
79992SOL    HW141815   1.830   6.329  14.703
79992SOL    HW241816   1.802   6.263  14.570
79993SOL     OW41817   8.783  11.239   0.724
79993SOL    HW141818   8.799  11.258   0.816
79993SOL    HW241819   8.712  11.175   0.725
79994SOL     OW41820   5.739   0.811   8.012
79994SOL    HW141821   5.696   0.844   8.091
79994SOL    HW241822   5.674   0.754   7.971
79995SOL     OW41823   8.047  14.134   9.471
79995SOL    HW141824   8.126  14.105   9.426
79995SOL    HW241825   7.990  14.167   9.401
79996SOL     OW41826   4.725   1.643   6.517
79996SOL    HW141827   4.706   1.721   6.466
79996SOL    HW241828   4.677   1.655   6.598
79997SOL     OW41829   3.106   1.824   0.136
79997SOL    HW141830   3.159   1.903   0.125
79997SOL    HW241831   3.058   1.839   0.217
79998SOL     OW41832   4.870  14.752   3.882
79998SOL    HW141833   4.896  14.778   3.970
79998SOL    HW241834   4.935  14.792   3.825
79999SOL     OW41835   0.759  14.069   2.515
79999SOL    HW141836   0.664  14.068   2.512
79999SOL    HW241837   0.785  14.119   2.437
80000SOL     OW41838   4.067  12.482   3.543
80000SOL    HW141839   4.080  12.402   3.595
80000SOL    HW241840   4.045  12.450   3.455
80001SOL     OW41841   1.098   4.082  12.083
80001SOL    HW141842   1.036   4.128  12.027
80001SOL    HW241843   1.165   4.147  12.104
80002SOL     OW41844   6.609   7.478   6.314
80002SOL    HW141845   6.550   7.428   6.371
80002SOL    HW241846   6.661   7.411   6.269
80003SOL     OW41847   4.676  11.754   9.291
80003SOL    HW141848   4.765  11.781   9.270
80003SOL    HW241849   4.686  11.688   9.360
80004SOL     OW41850   6.090   0.185   8.483
80004SOL    HW141851   6.062   0.109   8.534
80004SOL    HW241852   6.054   0.171   8.396
80005SOL     OW41853  10.463   9.982  14.778
80005SOL    HW141854  10.453   9.898  14.733
80005SOL    HW241855  10.380  10.027  14.763
80006SOL     OW41856   7.489   4.323   2.261
80006SOL    HW141857   7.519   4.232   2.266
80006SOL    HW241858   7.395   4.317   2.243
80007SOL     OW41859   5.969   2.458  10.187
80007SOL    HW141860   5.940   2.535  10.137
80007SOL    HW241861   6.033   2.493  10.249
80008SOL     OW41862  14.063   2.346  11.639
80008SOL    HW141863  13.987   2.382  11.685
80008SOL    HW241864  14.137   2.396  11.672
80009SOL     OW41865  10.831   5.591   9.702
80009SOL    HW141866  10.918   5.613   9.670
80009SOL    HW241867  10.835   5.497   9.720
80010SOL     OW41868  12.251   8.219   2.043
80010SOL    HW141869  12.173   8.176   2.007
80010SOL    HW241870  12.249   8.198   2.136
80011SOL     OW41871  10.951   1.971  10.993
80011SOL    HW141872  10.884   1.947  10.930
80011SOL    HW241873  11.023   2.005  10.939
80012SOL     OW41874  11.799  10.602   9.248
80012SOL    HW141875  11.841  10.536   9.194
80012SOL    HW241876  11.840  10.684   9.221
80013SOL     OW41877  10.615   7.816   7.184
80013SOL    HW141878  10.664   7.737   7.206
80013SOL    HW241879  10.548   7.786   7.122
80014SOL     OW41880   2.109   7.419  14.021
80014SOL    HW141881   2.064   7.428  13.936
80014SOL    HW241882   2.193   7.462  14.009
80015SOL     OW41883   7.215   6.098   7.769
80015SOL    HW141884   7.265   6.049   7.704
80015SOL    HW241885   7.241   6.060   7.853
80016SOL     OW41886   8.547  14.618   2.051
80016SOL    HW141887   8.624  14.665   2.023
80016SOL    HW241888   8.559  14.529   2.017
80017SOL     OW41889   7.471   0.297   6.195
80017SOL    HW141890   7.452   0.209   6.162
80017SOL    HW241891   7.442   0.355   6.125
80018SOL     OW41892   7.478   7.986   8.705
80018SOL    HW141893   7.540   7.918   8.727
80018SOL    HW241894   7.513   8.066   8.745
80019SOL     OW41895  12.085  13.460   0.953
80019SOL    HW141896  12.038  13.534   0.915
80019SOL    HW241897  12.022  13.388   0.950
80020SOL     OW41898   0.443  13.709   9.585
80020SOL    HW141899   0.443  13.614   9.593
80020SOL    HW241900   0.367  13.729   9.531
80021SOL     OW41901   3.160   6.342   2.774
80021SOL    HW141902   3.149   6.398   2.851
80021SOL    HW241903   3.255   6.334   2.763
80022SOL     OW41904  14.204   3.866   1.057
80022SOL    HW141905  14.268   3.885   0.989
80022SOL    HW241906  14.251   3.880   1.139
80023SOL     OW41907  10.231   8.993  11.767
80023SOL    HW141908  10.220   9.088  11.764
80023SOL    HW241909  10.302   8.979  11.830
80024SOL     OW41910   2.390   3.086  10.399
80024SOL    HW141911   2.306   3.075  10.356
80024SOL    HW241912   2.436   3.003  10.384
80025SOL     OW41913   8.260   9.104   3.103
80025SOL    HW141914   8.326   9.090   3.034
80025SOL    HW241915   8.276   9.193   3.134
80026SOL     OW41916   5.298   1.239   1.497
80026SOL    HW141917   5.300   1.145   1.481
80026SOL    HW241918   5.209   1.266   1.473
80027SOL     OW41919   4.928   6.101  11.344
80027SOL    HW141920   4.971   6.047  11.277
80027SOL    HW241921   4.858   6.146  11.297
80028SOL     OW41922   0.738   1.804   8.532
80028SOL    HW141923   0.789   1.850   8.598
80028SOL    HW241924   0.772   1.715   8.532
80029SOL     OW41925   9.656  12.790   4.584
80029SOL    HW141926   9.614  12.862   4.632
80029SOL    HW241927   9.684  12.729   4.652
80030SOL     OW41928   0.330  10.890   0.260
80030SOL    HW141929   0.240  10.857   0.263
80030SOL    HW241930   0.368  10.864   0.344
80031SOL     OW41931  12.594  12.858   3.640
80031SOL    HW141932  12.570  12.893   3.725
80031SOL    HW241933  12.654  12.786   3.659
80032SOL     OW41934   2.205   0.997  11.905
80032SOL    HW141935   2.298   1.008  11.925
80032SOL    HW241936   2.161   1.061  11.961
80033SOL     OW41937   1.831   8.392  12.148
80033SOL    HW141938   1.762   8.433  12.097
80033SOL    HW241939   1.813   8.415  12.239
80034SOL     OW41940  13.976  14.410   8.024
80034SOL    HW141941  13.966  14.381   7.934
80034SOL    HW241942  13.945  14.500   8.024
80035SOL     OW41943   6.618   4.812  11.756
80035SOL    HW141944   6.603   4.888  11.812
80035SOL    HW241945   6.576   4.835  11.673
80036SOL     OW41946   8.191  12.332   9.740
80036SOL    HW141947   8.249  12.401   9.773
80036SOL    HW241948   8.108  12.348   9.784
80037SOL     OW41949  13.704  11.711  14.125
80037SOL    HW141950  13.741  11.798  14.109
80037SOL    HW241951  13.647  11.723  14.201
80038SOL     OW41952   4.804  13.967   2.943
80038SOL    HW141953   4.759  13.917   2.874
80038SOL    HW241954   4.839  13.900   3.002
80039SOL     OW41955   6.632   7.848   4.823
80039SOL    HW141956   6.718   7.811   4.846
80039SOL    HW241957   6.583   7.845   4.905
80040SOL     OW41958   3.728   7.254   0.893
80040SOL    HW141959   3.724   7.216   0.805
80040SOL    HW241960   3.743   7.179   0.950
80041SOL     OW41961   5.322   7.679   3.750
80041SOL    HW141962   5.411   7.668   3.783
80041SOL    HW241963   5.333   7.728   3.668
80042SOL     OW41964   6.258  13.071   8.114
80042SOL    HW141965   6.194  13.002   8.130
80042SOL    HW241966   6.307  13.041   8.037
80043SOL     OW41967   6.363   0.374   1.549
80043SOL    HW141968   6.297   0.435   1.582
80043SOL    HW241969   6.442   0.427   1.537
80044SOL     OW41970   7.547   5.796  11.625
80044SOL    HW141971   7.472   5.834  11.579
80044SOL    HW241972   7.554   5.847  11.706
80045SOL     OW41973   7.486  14.001  13.807
80045SOL    HW141974   7.495  13.959  13.892
80045SOL    HW241975   7.574  14.001  13.770
80046SOL     OW41976   5.830  14.291  13.701
80046SOL    HW141977   5.851  14.214  13.648
80046SOL    HW241978   5.907  14.348  13.691
80047SOL     OW41979   8.483   2.975   9.567
80047SOL    HW141980   8.531   3.058   9.568
80047SOL    HW241981   8.391   3.001   9.579
80048SOL     OW41982   3.931   2.435   2.154
80048SOL    HW141983   3.898   2.396   2.074
80048SOL    HW241984   3.895   2.381   2.225
80049SOL     OW41985   9.390   0.980   3.563
80049SOL    HW141986   9.448   0.947   3.631
80049SOL    HW241987   9.339   0.903   3.536
80050SOL     OW41988   2.139   1.815   7.212
80050SOL    HW141989   2.157   1.872   7.136
80050SOL    HW241990   2.124   1.876   7.284
80051SOL     OW41991   2.284   2.353   9.555
80051SOL    HW141992   2.275   2.364   9.461
80051SOL    HW241993   2.204   2.391   9.592
80052SOL     OW41994   2.212   6.172   0.799
80052SOL    HW141995   2.173   6.258   0.780
80052SOL    HW241996   2.288   6.193   0.854
80053SOL     OW41997   5.228   8.806  12.207
80053SOL    HW141998   5.298   8.783  12.147
80053SOL    HW241999   5.263   8.787  12.294
80054SOL     OW42000   5.381   5.016  13.972
80054SOL    HW142001   5.391   5.109  13.953
80054SOL    HW242002   5.409   4.972  13.892
80055SOL     OW42003   5.852   3.445   2.358
80055SOL    HW142004   5.817   3.356   2.365
80055SOL    HW242005   5.779   3.496   2.322
80056SOL     OW42006   5.908  12.591   3.398
80056SOL    HW142007   5.879  12.665   3.344
80056SOL    HW242008   5.857  12.517   3.366
80057SOL     OW42009   9.678  13.361  12.089
80057SOL    HW142010   9.630  13.443  12.101
80057SOL    HW242011   9.733  13.353  12.167
80058SOL     OW42012  13.130  11.238   9.502
80058SOL    HW142013  13.133  11.144   9.521
80058SOL    HW242014  13.137  11.280   9.587
80059SOL     OW42015   4.918   4.916   2.122
80059SOL    HW142016   4.961   4.860   2.188
80059SOL    HW242017   4.908   4.859   2.046
80060SOL     OW42018   8.092   7.117   8.918
80060SOL    HW142019   8.070   7.207   8.895
80060SOL    HW242020   8.074   7.067   8.838
80061SOL     OW42021  13.164   2.614   3.147
80061SOL    HW142022  13.161   2.578   3.058
80061SOL    HW242023  13.165   2.709   3.135
80062SOL     OW42024   5.854  12.894   9.383
80062SOL    HW142025   5.878  12.802   9.388
80062SOL    HW242026   5.925  12.935   9.333
80063SOL     OW42027  14.307   3.173   9.774
80063SOL    HW142028  14.399   3.152   9.788
80063SOL    HW242029  14.307   3.264   9.744
80064SOL     OW42030   7.895   4.621  13.576
80064SOL    HW142031   7.904   4.610  13.481
80064SOL    HW242032   7.942   4.547  13.613
80065SOL     OW42033   2.410   2.069   2.380
80065SOL    HW142034   2.337   2.104   2.431
80065SOL    HW242035   2.485   2.074   2.439
80066SOL     OW42036  13.220   3.028   5.065
80066SOL    HW142037  13.130   2.996   5.073
80066SOL    HW242038  13.217   3.092   4.994
80067SOL     OW42039  13.611   4.995   2.836
80067SOL    HW142040  13.565   4.929   2.889
80067SOL    HW242041  13.612   4.958   2.748
80068SOL     OW42042   4.932   0.513   8.920
80068SOL    HW142043   4.935   0.553   9.007
80068SOL    HW242044   4.885   0.431   8.933
80069SOL     OW42045  11.568  11.933   0.184
80069SOL    HW142046  11.613  12.010   0.150
80069SOL    HW242047  11.549  11.880   0.106
80070SOL     OW42048  11.085   0.667   2.531
80070SOL    HW142049  10.994   0.684   2.507
80070SOL    HW242050  11.115   0.749   2.570
80071SOL     OW42051  11.608  12.833  13.079
80071SOL    HW142052  11.571  12.747  13.060
80071SOL    HW242053  11.539  12.895  13.054
80072SOL     OW42054   9.259  12.816   8.386
80072SOL    HW142055   9.209  12.767   8.321
80072SOL    HW242056   9.326  12.755   8.415
80073SOL     OW42057  13.442   9.000   0.362
80073SOL    HW142058  13.415   8.997   0.270
80073SOL    HW242059  13.363   8.974   0.411
80074SOL     OW42060   4.962   9.317  10.436
80074SOL    HW142061   4.939   9.399  10.394
80074SOL    HW242062   4.984   9.342  10.526
80075SOL     OW42063  13.863   9.322  10.916
80075SOL    HW142064  13.794   9.381  10.946
80075SOL    HW242065  13.914   9.373  10.853
80076SOL     OW42066   5.417   5.884   6.053
80076SOL    HW142067   5.373   5.946   5.995
80076SOL    HW242068   5.386   5.798   6.024
80077SOL     OW42069   4.441  10.497   7.715
80077SOL    HW142070   4.434  10.539   7.629
80077SOL    HW242071   4.508  10.430   7.703
80078SOL     OW42072   1.056   7.230   5.293
80078SOL    HW142073   1.079   7.142   5.263
80078SOL    HW242074   0.964   7.223   5.319
80079SOL     OW42075   4.577   8.534   6.607
80079SOL    HW142076   4.661   8.571   6.580
80079SOL    HW242077   4.601   8.464   6.668
80080SOL     OW42078   9.398   5.490   7.881
80080SOL    HW142079   9.461   5.558   7.857
80080SOL    HW242080   9.342   5.482   7.804
80081SOL     OW42081  10.702   6.660  14.663
80081SOL    HW142082  10.728   6.666  14.755
80081SOL    HW242083  10.669   6.748  14.642
80082SOL     OW42084   7.549   4.592   6.377
80082SOL    HW142085   7.500   4.594   6.459
80082SOL    HW242086   7.499   4.647   6.317
80083SOL     OW42087  14.228  11.906   1.866
80083SOL    HW142088  14.194  11.819   1.891
80083SOL    HW242089  14.156  11.966   1.886
80084SOL     OW42090   6.950   6.318   2.623
80084SOL    HW142091   6.900   6.386   2.669
80084SOL    HW242092   6.899   6.238   2.637
80085SOL     OW42093   3.629  14.189   1.974
80085SOL    HW142094   3.608  14.231   1.891
80085SOL    HW242095   3.646  14.261   2.034
80086SOL     OW42096   7.750  14.669   8.049
80086SOL    HW142097   7.834  14.625   8.060
80086SOL    HW242098   7.771  14.751   8.004
80087SOL     OW42099   0.129   1.696   5.638
80087SOL    HW142100   0.105   1.740   5.720
80087SOL    HW242101   0.080   1.614   5.640
80088SOL     OW42102   5.077   4.728   5.623
80088SOL    HW142103   5.030   4.779   5.688
80088SOL    HW242104   5.137   4.791   5.582
80089SOL     OW42105   7.388  10.769  10.185
80089SOL    HW142106   7.345  10.780  10.270
80089SOL    HW242107   7.348  10.690  10.148
80090SOL     OW42108   9.000   6.968   9.035
80090SOL    HW142109   9.087   6.943   9.069
80090SOL    HW242110   9.012   6.970   8.940
80091SOL     OW42111   1.801  12.532  12.841
80091SOL    HW142112   1.765  12.563  12.758
80091SOL    HW242113   1.761  12.588  12.907
80092SOL     OW42114   1.852   7.629   8.939
80092SOL    HW142115   1.928   7.687   8.935
80092SOL    HW242116   1.857   7.578   8.858
80093SOL     OW42117   2.907  11.587   2.480
80093SOL    HW142118   2.815  11.601   2.502
80093SOL    HW242119   2.911  11.597   2.385
80094SOL     OW42120   3.470   4.692   2.053
80094SOL    HW142121   3.460   4.748   2.130
80094SOL    HW242122   3.498   4.751   1.984
80095SOL     OW42123   6.130   4.199   1.410
80095SOL    HW142124   6.059   4.135   1.403
80095SOL    HW242125   6.097   4.276   1.363
80096SOL     OW42126   5.741   3.424   4.706
80096SOL    HW142127   5.794   3.413   4.785
80096SOL    HW242128   5.650   3.417   4.737
80097SOL     OW42129  12.093  10.667   8.313
80097SOL    HW142130  12.078  10.699   8.224
80097SOL    HW242131  12.155  10.730   8.351
80098SOL     OW42132   5.328  14.823   0.200
80098SOL    HW142133   5.357  14.850   0.287
80098SOL    HW242134   5.260   0.010   0.177
80099SOL     OW42135   1.193   1.046  13.393
80099SOL    HW142136   1.207   0.994  13.472
80099SOL    HW242137   1.123   1.001  13.346
80100SOL     OW42138   8.407   2.173   5.812
80100SOL    HW142139   8.421   2.135   5.725
80100SOL    HW242140   8.315   2.158   5.830
80101SOL     OW42141  10.522   6.980   2.629
80101SOL    HW142142  10.539   7.015   2.542
80101SOL    HW242143  10.437   6.937   2.620
80102SOL     OW42144  10.681   5.801   8.733
80102SOL    HW142145  10.679   5.706   8.738
80102SOL    HW242146  10.589   5.827   8.735
80103SOL     OW42147   9.580  13.007  14.127
80103SOL    HW142148   9.675  13.003  14.141
80103SOL    HW242149   9.568  13.082  14.069
80104SOL     OW42150   9.590  13.098  12.166
80104SOL    HW142151   9.586  13.168  12.101
80104SOL    HW242152   9.614  13.020  12.115
80105SOL     OW42153  14.782   3.203   6.767
80105SOL    HW142154  14.714   3.135   6.771
80105SOL    HW242155  14.789   3.225   6.674
80106SOL     OW42156  11.997   9.441   5.764
80106SOL    HW142157  12.016   9.405   5.851
80106SOL    HW242158  12.077   9.427   5.714
80107SOL     OW42159   5.090  10.956   9.618
80107SOL    HW142160   5.027  10.894   9.580
80107SOL    HW242161   5.036  11.016   9.669
80108SOL     OW42162   2.231   4.854   6.134
80108SOL    HW142163   2.189   4.934   6.165
80108SOL    HW242164   2.314   4.850   6.181
80109SOL     OW42165   9.718   4.599   9.558
80109SOL    HW142166   9.712   4.516   9.606
80109SOL    HW242167   9.794   4.587   9.500
80110SOL     OW42168   4.863  11.646   7.181
80110SOL    HW142169   4.933  11.583   7.169
80110SOL    HW242170   4.827  11.659   7.093
80111SOL     OW42171   9.414   8.808   2.024
80111SOL    HW142172   9.386   8.765   2.104
80111SOL    HW242173   9.425   8.900   2.048
80112SOL     OW42174  14.372  11.206  13.008
80112SOL    HW142175  14.281  11.213  12.978
80112SOL    HW242176  14.369  11.139  13.076
80113SOL     OW42177  10.902   4.959   5.095
80113SOL    HW142178  10.817   4.932   5.131
80113SOL    HW242179  10.924   4.891   5.032
80114SOL     OW42180   6.406   8.923   1.015
80114SOL    HW142181   6.465   8.930   0.940
80114SOL    HW242182   6.367   8.836   1.008
80115SOL     OW42183  11.551   9.951   0.018
80115SOL    HW142184  11.583  10.038   0.041
80115SOL    HW242185  11.468   9.943   0.065
80116SOL     OW42186  12.511  13.320   1.011
80116SOL    HW142187  12.462  13.337   0.930
80116SOL    HW242188  12.535  13.227   1.004
80117SOL     OW42189  13.296  13.126  12.708
80117SOL    HW142190  13.212  13.115  12.662
80117SOL    HW242191  13.326  13.213  12.681
80118SOL     OW42192  13.754   7.451  14.274
80118SOL    HW142193  13.835   7.500  14.286
80118SOL    HW242194  13.732   7.462  14.181
80119SOL     OW42195   2.258  14.038   8.460
80119SOL    HW142196   2.318  13.964   8.447
80119SOL    HW242197   2.316  14.113   8.472
80120SOL     OW42198  13.973  10.662  11.647
80120SOL    HW142199  13.897  10.718  11.633
80120SOL    HW242200  14.022  10.704  11.717
80121SOL     OW42201   9.043   0.030  11.363
80121SOL    HW142202   9.105  14.860  11.307
80121SOL    HW242203   9.097   0.080  11.424
80122SOL     OW42204  12.512  13.700  10.314
80122SOL    HW142205  12.511  13.782  10.264
80122SOL    HW242206  12.454  13.717  10.388
80123SOL     OW42207   3.301  12.498   8.554
80123SOL    HW142208   3.391  12.529   8.551
80123SOL    HW242209   3.256  12.543   8.483
80124SOL     OW42210   9.619   7.542   8.073
80124SOL    HW142211   9.628   7.604   8.145
80124SOL    HW242212   9.706   7.536   8.034
80125SOL     OW42213  12.194   3.715   9.598
80125SOL    HW142214  12.236   3.798   9.619
80125SOL    HW242215  12.258   3.669   9.544
80126SOL     OW42216  14.334   6.183   0.393
80126SOL    HW142217  14.360   6.223   0.310
80126SOL    HW242218  14.413   6.139   0.424
80127SOL     OW42219   9.474   9.965  11.830
80127SOL    HW142220   9.448   9.888  11.880
80127SOL    HW242221   9.562   9.985  11.860
80128SOL     OW42222   7.910   4.353  10.174
80128SOL    HW142223   7.883   4.405  10.250
80128SOL    HW242224   7.850   4.279  10.173
80129SOL     OW42225   1.581   5.012  10.672
80129SOL    HW142226   1.607   5.022  10.764
80129SOL    HW242227   1.543   5.096  10.648
80130SOL     OW42228   4.016   0.951   1.778
80130SOL    HW142229   4.109   0.935   1.793
80130SOL    HW242230   3.974   0.868   1.801
80131SOL     OW42231  12.107   1.164  10.118
80131SOL    HW142232  12.191   1.121  10.130
80131SOL    HW242233  12.052   1.132  10.189
80132SOL     OW42234   4.702   3.124  13.695
80132SOL    HW142235   4.669   3.073  13.769
80132SOL    HW242236   4.789   3.153  13.723
80133SOL     OW42237   6.494   3.054   1.093
80133SOL    HW142238   6.578   3.012   1.074
80133SOL    HW242239   6.474   3.105   1.015
80134SOL     OW42240   2.863  13.290  10.496
80134SOL    HW142241   2.806  13.334  10.558
80134SOL    HW242242   2.859  13.198  10.522
80135SOL     OW42243  10.649  13.215   2.794
80135SOL    HW142244  10.613  13.155   2.859
80135SOL    HW242245  10.671  13.159   2.719
80136SOL     OW42246  10.896  14.432   4.305
80136SOL    HW142247  10.892  14.448   4.399
80136SOL    HW242248  10.875  14.516   4.266
80137SOL     OW42249  12.706   6.927   8.753
80137SOL    HW142250  12.645   6.933   8.827
80137SOL    HW242251  12.650   6.914   8.677
80138SOL     OW42252   8.715   7.846  13.645
80138SOL    HW142253   8.724   7.939  13.664
80138SOL    HW242254   8.706   7.842  13.550
80139SOL     OW42255  11.582  12.895   8.902
80139SOL    HW142256  11.655  12.920   8.958
80139SOL    HW242257  11.524  12.844   8.959
80140SOL     OW42258  14.745   0.081   0.265
80140SOL    HW142259  14.813   0.066   0.331
80140SOL    HW242260  14.718   0.172   0.279
80141SOL     OW42261   3.476   0.344   0.503
80141SOL    HW142262   3.536   0.357   0.576
80141SOL    HW242263   3.395   0.312   0.544
80142SOL     OW42264   6.690   7.801   7.160
80142SOL    HW142265   6.638   7.881   7.151
80142SOL    HW242266   6.781   7.831   7.159
80143SOL     OW42267   4.599  11.240  10.251
80143SOL    HW142268   4.643  11.229  10.335
80143SOL    HW242269   4.589  11.150  10.217
80144SOL     OW42270  10.240  11.335   3.757
80144SOL    HW142271  10.269  11.390   3.830
80144SOL    HW242272  10.166  11.285   3.793
80145SOL     OW42273   2.301   2.643   4.992
80145SOL    HW142274   2.247   2.564   4.994
80145SOL    HW242275   2.368   2.624   4.926
80146SOL     OW42276   5.414   0.095  10.261
80146SOL    HW142277   5.398   0.178  10.217
80146SOL    HW242278   5.331   0.049  10.257
80147SOL     OW42279   7.368   5.362   9.838
80147SOL    HW142280   7.302   5.407   9.785
80147SOL    HW242281   7.434   5.428   9.855
80148SOL     OW42282  10.668   2.370  12.283
80148SOL    HW142283  10.671   2.430  12.357
80148SOL    HW242284  10.603   2.304  12.308
80149SOL     OW42285  13.394  11.981   0.254
80149SOL    HW142286  13.460  11.942   0.311
80149SOL    HW242287  13.321  12.002   0.313
80150SOL     OW42288   3.013   8.519   4.585
80150SOL    HW142289   2.950   8.556   4.523
80150SOL    HW242290   2.988   8.427   4.592
80151SOL     OW42291   8.576   0.890  14.636
80151SOL    HW142292   8.547   0.919  14.723
80151SOL    HW242293   8.672   0.897  14.639
80152SOL     OW42294   6.826   9.487   1.112
80152SOL    HW142295   6.755   9.496   1.175
80152SOL    HW242296   6.800   9.412   1.058
80153SOL     OW42297   5.557   0.777  11.115
80153SOL    HW142298   5.499   0.705  11.142
80153SOL    HW242299   5.499   0.850  11.098
80154SOL     OW42300   0.894   8.233   5.134
80154SOL    HW142301   0.901   8.308   5.194
80154SOL    HW242302   0.831   8.262   5.067
80155SOL     OW42303  12.944  13.075   9.131
80155SOL    HW142304  13.026  13.031   9.155
80155SOL    HW242305  12.948  13.159   9.176
80156SOL     OW42306   1.929   1.932   3.951
80156SOL    HW142307   1.836   1.909   3.954
80156SOL    HW242308   1.953   1.925   3.859
80157SOL     OW42309   1.248   5.197   2.398
80157SOL    HW142310   1.290   5.159   2.475
80157SOL    HW242311   1.315   5.254   2.360
80158SOL     OW42312   1.006  12.622   2.291
80158SOL    HW142313   1.023  12.549   2.350
80158SOL    HW242314   1.092  12.644   2.255
80159SOL     OW42315   7.833   7.806   7.677
80159SOL    HW142316   7.928   7.797   7.675
80159SOL    HW242317   7.801   7.730   7.628
80160SOL     OW42318   1.345   4.778   8.744
80160SOL    HW142319   1.291   4.822   8.679
80160SOL    HW242320   1.283   4.744   8.808
80161SOL     OW42321   2.832  13.512   3.626
80161SOL    HW142322   2.738  13.521   3.618
80161SOL    HW242323   2.869  13.567   3.558
80162SOL     OW42324   4.668   8.004   9.844
80162SOL    HW142325   4.762   8.020   9.842
80162SOL    HW242326   4.656   7.924   9.793
80163SOL     OW42327  13.925   2.208   4.724
80163SOL    HW142328  13.853   2.271   4.717
80163SOL    HW242329  13.887   2.133   4.771
80164SOL     OW42330  14.116  13.796   4.961
80164SOL    HW142331  14.203  13.759   4.954
80164SOL    HW242332  14.124  13.883   4.921
80165SOL     OW42333  10.887   1.876  13.076
80165SOL    HW142334  10.834   1.917  13.145
80165SOL    HW242335  10.838   1.894  12.996
80166SOL     OW42336   2.403   1.184   5.529
80166SOL    HW142337   2.417   1.226   5.444
80166SOL    HW242338   2.376   1.254   5.587
80167SOL     OW42339   5.314   4.514  13.118
80167SOL    HW142340   5.279   4.425  13.106
80167SOL    HW242341   5.320   4.549  13.030
80168SOL     OW42342   1.937   8.613   3.205
80168SOL    HW142343   1.967   8.624   3.295
80168SOL    HW242344   1.862   8.673   3.197
80169SOL     OW42345  11.037  11.632  11.829
80169SOL    HW142346  11.083  11.637  11.913
80169SOL    HW242347  10.949  11.604  11.851
80170SOL     OW42348  12.597   7.471  11.218
80170SOL    HW142349  12.660   7.433  11.280
80170SOL    HW242350  12.511   7.452  11.256
80171SOL     OW42351   7.643   7.726   5.558
80171SOL    HW142352   7.632   7.632   5.543
80171SOL    HW242353   7.601   7.768   5.484
80172SOL     OW42354  13.701   6.799   7.626
80172SOL    HW142355  13.793   6.810   7.603
80172SOL    HW242356  13.654   6.826   7.547
80173SOL     OW42357  12.822   4.394  11.607
80173SOL    HW142358  12.896   4.334  11.611
80173SOL    HW242359  12.755   4.347  11.559
80174SOL     OW42360  11.442  12.156  14.858
80174SOL    HW142361  11.434  12.195   0.068
80174SOL    HW242362  11.537  12.148  14.844
80175SOL     OW42363   4.066   4.558   1.950
80175SOL    HW142364   4.070   4.649   1.980
80175SOL    HW242365   4.154   4.524   1.964
80176SOL     OW42366   6.464  13.098   7.549
80176SOL    HW142367   6.407  13.160   7.594
80176SOL    HW242368   6.551  13.137   7.553
80177SOL     OW42369  14.393   6.350   5.115
80177SOL    HW142370  14.412   6.257   5.123
80177SOL    HW242371  14.399   6.368   5.021
80178SOL     OW42372   2.151   1.694  14.779
80178SOL    HW142373   2.144   1.703  14.684
80178SOL    HW242374   2.095   1.619  14.799
80179SOL     OW42375   5.230   8.434   1.859
80179SOL    HW142376   5.157   8.489   1.829
80179SOL    HW242377   5.300   8.451   1.796
80180SOL     OW42378  11.641   4.434   4.421
80180SOL    HW142379  11.614   4.526   4.412
80180SOL    HW242380  11.729   4.431   4.385
80181SOL     OW42381   4.231  12.579   5.696
80181SOL    HW142382   4.185  12.661   5.684
80181SOL    HW242383   4.300  12.579   5.630
80182SOL     OW42384  11.508   2.061  11.416
80182SOL    HW142385  11.479   2.139  11.369
80182SOL    HW242386  11.598   2.080  11.442
80183SOL     OW42387  11.610   1.565  11.873
80183SOL    HW142388  11.537   1.506  11.889
80183SOL    HW242389  11.570   1.647  11.843
80184SOL     OW42390  13.741   1.860   0.233
80184SOL    HW142391  13.743   1.764   0.227
80184SOL    HW242392  13.652   1.884   0.210
80185SOL     OW42393   8.787   0.927   0.168
80185SOL    HW142394   8.816   0.984   0.096
80185SOL    HW242395   8.755   0.988   0.235
80186SOL     OW42396   3.781  12.392   7.713
80186SOL    HW142397   3.773  12.479   7.674
80186SOL    HW242398   3.712  12.341   7.670
80187SOL     OW42399  14.684   4.301   4.955
80187SOL    HW142400  14.592   4.324   4.967
80187SOL    HW242401  14.727   4.327   5.037
80188SOL     OW42402   7.555   5.499   5.421
80188SOL    HW142403   7.597   5.543   5.347
80188SOL    HW242404   7.620   5.502   5.491
80189SOL     OW42405   6.913  13.769  13.893
80189SOL    HW142406   6.851  13.821  13.943
80189SOL    HW242407   6.932  13.694  13.950
80190SOL     OW42408   7.296  12.761  10.650
80190SOL    HW142409   7.270  12.793  10.564
80190SOL    HW242410   7.357  12.827  10.683
80191SOL     OW42411  14.375  11.994  12.659
80191SOL    HW142412  14.456  11.944  12.650
80191SOL    HW242413  14.370  12.015  12.753
80192SOL     OW42414   0.093   1.474   6.633
80192SOL    HW142415   0.152   1.539   6.596
80192SOL    HW242416   0.039   1.446   6.558
80193SOL     OW42417  13.704  14.731   5.743
80193SOL    HW142418  13.711  14.823   5.765
80193SOL    HW242419  13.767  14.687   5.801
80194SOL     OW42420  14.676  12.581   2.512
80194SOL    HW142421  14.636  12.576   2.425
80194SOL    HW242422  14.622  12.644   2.560
80195SOL     OW42423   1.952  11.334   6.166
80195SOL    HW142424   1.925  11.405   6.224
80195SOL    HW242425   2.048  11.331   6.174
80196SOL     OW42426  10.429   1.757   0.883
80196SOL    HW142427  10.477   1.684   0.844
80196SOL    HW242428  10.497   1.810   0.924
80197SOL     OW42429  11.347  13.703   3.681
80197SOL    HW142430  11.273  13.655   3.644
80197SOL    HW242431  11.320  13.725   3.770
80198SOL     OW42432   3.824  14.285   4.914
80198SOL    HW142433   3.747  14.243   4.951
80198SOL    HW242434   3.881  14.213   4.886
80199SOL     OW42435  10.121  11.831   6.308
80199SOL    HW142436  10.069  11.791   6.378
80199SOL    HW242437  10.100  11.924   6.312
80200SOL     OW42438   5.404  11.479  11.311
80200SOL    HW142439   5.464  11.474  11.237
80200SOL    HW242440   5.455  11.518  11.381
80201SOL     OW42441   0.735   3.110  11.460
80201SOL    HW142442   0.800   3.060  11.510
80201SOL    HW242443   0.782   3.142  11.384
80202SOL     OW42444   6.480   8.463  13.686
80202SOL    HW142445   6.397   8.426  13.653
80202SOL    HW242446   6.537   8.463  13.610
80203SOL     OW42447   0.072  13.535   2.086
80203SOL    HW142448   0.048  13.573   2.171
80203SOL    HW242449   0.039  13.445   2.089
80204SOL     OW42450   6.848   4.417   5.842
80204SOL    HW142451   6.941   4.410   5.863
80204SOL    HW242452   6.808   4.455   5.920
80205SOL     OW42453  13.413  11.858  12.747
80205SOL    HW142454  13.361  11.907  12.683
80205SOL    HW242455  13.381  11.768  12.739
80206SOL     OW42456   1.642   6.082   4.737
80206SOL    HW142457   1.685   6.164   4.762
80206SOL    HW242458   1.604   6.049   4.819
80207SOL     OW42459  11.342   3.088   4.691
80207SOL    HW142460  11.296   3.075   4.774
80207SOL    HW242461  11.389   3.171   4.703
80208SOL     OW42462  12.278  10.448   9.069
80208SOL    HW142463  12.335  10.377   9.096
80208SOL    HW242464  12.275  10.443   8.973
80209SOL     OW42465  11.083   3.522   9.151
80209SOL    HW142466  11.083   3.593   9.215
80209SOL    HW242467  11.147   3.459   9.183
80210SOL     OW42468   7.364   4.203  11.519
80210SOL    HW142469   7.332   4.113  11.528
80210SOL    HW242470   7.378   4.233  11.609
80211SOL     OW42471   3.989   8.955  10.071
80211SOL    HW142472   3.948   8.966  10.156
80211SOL    HW242473   4.079   8.928  10.091
80212SOL     OW42474  10.147   3.370   4.623
80212SOL    HW142475  10.087   3.445   4.618
80212SOL    HW242476  10.169   3.351   4.532
80213SOL     OW42477   2.340  11.463  10.482
80213SOL    HW142478   2.268  11.430  10.535
80213SOL    HW242479   2.299  11.521  10.419
80214SOL     OW42480  13.848   9.122   4.530
80214SOL    HW142481  13.809   9.038   4.506
80214SOL    HW242482  13.849   9.121   4.626
80215SOL     OW42483  13.024   7.056  13.524
80215SOL    HW142484  12.943   7.005  13.524
80215SOL    HW242485  13.035   7.083  13.616
80216SOL     OW42486   4.794   0.046   2.366
80216SOL    HW142487   4.834   0.059   2.280
80216SOL    HW242488   4.736  14.847   2.354
80217SOL     OW42489   8.981  14.222   2.257
80217SOL    HW142490   9.004  14.285   2.188
80217SOL    HW242491   9.026  14.254   2.335
80218SOL     OW42492   2.257  11.074   9.268
80218SOL    HW142493   2.171  11.052   9.303
80218SOL    HW242494   2.239  11.114   9.183
80219SOL     OW42495  13.894  10.053   6.692
80219SOL    HW142496  13.851  10.138   6.680
80219SOL    HW242497  13.901  10.044   6.787
80220SOL     OW42498  13.938   1.058   5.917
80220SOL    HW142499  14.008   1.103   5.869
80220SOL    HW242500  13.980   0.978   5.950
80221SOL     OW42501   8.920  14.307   3.949
80221SOL    HW142502   8.882  14.340   4.030
80221SOL    HW242503   8.853  14.325   3.882
80222SOL     OW42504   2.297   7.396   1.170
80222SOL    HW142505   2.363   7.383   1.239
80222SOL    HW242506   2.317   7.483   1.135
80223SOL     OW42507  13.379   5.520   9.882
80223SOL    HW142508  13.297   5.566   9.864
80223SOL    HW242509  13.375   5.499   9.975
80224SOL     OW42510   2.017   2.323   2.019
80224SOL    HW142511   2.027   2.407   2.064
80224SOL    HW242512   2.063   2.260   2.075
80225SOL     OW42513  12.633  12.461   0.696
80225SOL    HW142514  12.633  12.478   0.791
80225SOL    HW242515  12.688  12.531   0.660
80226SOL     OW42516   1.037  14.197   2.611
80226SOL    HW142517   1.055  14.165   2.700
80226SOL    HW242518   0.947  14.169   2.593
80227SOL     OW42519  12.433  13.426  14.082
80227SOL    HW142520  12.375  13.373  14.027
80227SOL    HW242521  12.375  13.493  14.119
80228SOL     OW42522   2.259   7.982   0.162
80228SOL    HW142523   2.207   7.961   0.085
80228SOL    HW242524   2.250   8.077   0.172
80229SOL     OW42525  11.060  10.467  11.496
80229SOL    HW142526  11.089  10.489  11.407
80229SOL    HW242527  11.031  10.377  11.489
80230SOL     OW42528   5.590  10.345   8.462
80230SOL    HW142529   5.542  10.286   8.520
80230SOL    HW242530   5.610  10.422   8.516
80231SOL     OW42531  12.303  13.393  11.531
80231SOL    HW142532  12.299  13.413  11.625
80231SOL    HW242533  12.312  13.298  11.527
80232SOL     OW42534   3.139   9.856   6.700
80232SOL    HW142535   3.155   9.831   6.791
80232SOL    HW242536   3.117   9.774   6.656
80233SOL     OW42537   2.221  10.461   4.775
80233SOL    HW142538   2.155  10.453   4.845
80233SOL    HW242539   2.304  10.471   4.822
80234SOL     OW42540   3.639   2.022   7.759
80234SOL    HW142541   3.618   2.068   7.678
80234SOL    HW242542   3.557   2.025   7.810
80235SOL     OW42543   3.550  13.218   6.760
80235SOL    HW142544   3.469  13.247   6.719
80235SOL    HW242545   3.609  13.198   6.687
80236SOL     OW42546  13.637  13.882   1.722
80236SOL    HW142547  13.711  13.859   1.666
80236SOL    HW242548  13.591  13.799   1.736
80237SOL     OW42549  11.184  13.178  13.226
80237SOL    HW142550  11.188  13.221  13.312
80237SOL    HW242551  11.268  13.134  13.217
80238SOL     OW42552   0.423   0.104  14.155
80238SOL    HW142553   0.427   0.009  14.158
80238SOL    HW242554   0.513   0.133  14.167
80239SOL     OW42555   4.524  13.149   8.136
80239SOL    HW142556   4.499  13.242   8.135
80239SOL    HW242557   4.444  13.103   8.159
80240SOL     OW42558  12.117   6.048   7.288
80240SOL    HW142559  12.097   5.955   7.276
80240SOL    HW242560  12.075   6.091   7.213
80241SOL     OW42561  14.767   7.289  10.299
80241SOL    HW142562  14.817   7.279  10.380
80241SOL    HW242563  14.703   7.218  10.301
80242SOL     OW42564  14.749  12.569  10.272
80242SOL    HW142565  14.740  12.656  10.234
80242SOL    HW242566  14.780  12.584  10.361
80243SOL     OW42567  14.514   3.760  12.097
80243SOL    HW142568  14.595   3.781  12.052
80243SOL    HW242569  14.446   3.801  12.043
80244SOL     OW42570  11.989  13.131  13.928
80244SOL    HW142571  11.918  13.137  13.864
80244SOL    HW242572  12.050  13.068  13.891
80245SOL     OW42573   3.670   5.428   7.347
80245SOL    HW142574   3.653   5.340   7.381
80245SOL    HW242575   3.583   5.462   7.323
80246SOL     OW42576  10.044   8.762   4.910
80246SOL    HW142577   9.959   8.799   4.936
80246SOL    HW242578  10.058   8.689   4.971
80247SOL     OW42579  12.909   5.226   0.373
80247SOL    HW142580  12.857   5.306   0.382
80247SOL    HW242581  12.892   5.177   0.453
80248SOL     OW42582   2.286  12.366   3.484
80248SOL    HW142583   2.302  12.285   3.436
80248SOL    HW242584   2.284  12.340   3.576
80249SOL     OW42585   6.435   7.468   5.011
80249SOL    HW142586   6.412   7.386   5.056
80249SOL    HW242587   6.383   7.466   4.931
80250SOL     OW42588  13.976   8.150   0.627
80250SOL    HW142589  13.884   8.145   0.602
80250SOL    HW242590  13.994   8.243   0.636
80251SOL     OW42591  14.280  12.258   4.475
80251SOL    HW142592  14.363  12.300   4.497
80251SOL    HW242593  14.216  12.329   4.479
80252SOL     OW42594  14.106   7.699   2.116
80252SOL    HW142595  14.077   7.711   2.025
80252SOL    HW242596  14.132   7.607   2.121
80253SOL     OW42597  13.354  10.536   3.442
80253SOL    HW142598  13.438  10.525   3.398
80253SOL    HW242599  13.377  10.558   3.533
80254SOL     OW42600   6.138  14.249   6.517
80254SOL    HW142601   6.216  14.215   6.473
80254SOL    HW242602   6.165  14.262   6.608
80255SOL     OW42603   6.312  12.295  10.710
80255SOL    HW142604   6.335  12.265  10.798
80255SOL    HW242605   6.260  12.224  10.673
80256SOL     OW42606   4.272  10.501   0.668
80256SOL    HW142607   4.326  10.494   0.589
80256SOL    HW242608   4.322  10.456   0.736
80257SOL     OW42609   4.919   0.525  11.530
80257SOL    HW142610   4.863   0.603  11.531
80257SOL    HW242611   4.899   0.482  11.447
80258SOL     OW42612   2.487   8.172   4.596
80258SOL    HW142613   2.500   8.264   4.571
80258SOL    HW242614   2.571   8.131   4.578
80259SOL     OW42615   8.177   0.254   5.915
80259SOL    HW142616   8.097   0.201   5.911
80259SOL    HW242617   8.224   0.220   5.991
80260SOL     OW42618  11.173   2.604  12.895
80260SOL    HW142619  11.208   2.552  12.823
80260SOL    HW242620  11.131   2.679  12.852
80261SOL     OW42621   2.068  12.360   2.756
80261SOL    HW142622   2.110  12.275   2.769
80261SOL    HW242623   1.976  12.340   2.739
80262SOL     OW42624   3.941   3.060  13.265
80262SOL    HW142625   3.876   3.073  13.196
80262SOL    HW242626   4.009   3.006  13.226
80263SOL     OW42627   4.122   3.375  12.688
80263SOL    HW142628   4.193   3.435  12.664
80263SOL    HW242629   4.163   3.289  12.689
80264SOL     OW42630   8.107   1.115   5.971
80264SOL    HW142631   8.108   1.211   5.981
80264SOL    HW242632   8.134   1.082   6.057
80265SOL     OW42633  13.206  13.416  10.782
80265SOL    HW142634  13.128  13.432  10.730
80265SOL    HW242635  13.275  13.400  10.718
80266SOL     OW42636   3.509   5.065   7.546
80266SOL    HW142637   3.499   5.020   7.630
80266SOL    HW242638   3.473   5.005   7.482
80267SOL     OW42639   0.762  14.706   5.350
80267SOL    HW142640   0.678  14.671   5.382
80267SOL    HW242641   0.825  14.682   5.417
80268SOL     OW42642   1.903   7.915  12.789
80268SOL    HW142643   1.913   7.994  12.735
80268SOL    HW242644   1.927   7.843  12.731
80269SOL     OW42645  13.084  14.339  10.742
80269SOL    HW142646  13.030  14.416  10.757
80269SOL    HW242647  13.138  14.362  10.666
80270SOL     OW42648   2.368   9.715  14.693
80270SOL    HW142649   2.308   9.643  14.678
80270SOL    HW242650   2.329   9.789  14.647
80271SOL     OW42651   2.130  12.652   4.891
80271SOL    HW142652   2.048  12.659   4.940
80271SOL    HW242653   2.181  12.586   4.938
80272SOL     OW42654   2.560   7.487   2.490
80272SOL    HW142655   2.599   7.572   2.511
80272SOL    HW242656   2.466   7.499   2.506
80273SOL     OW42657   4.088   5.783  10.983
80273SOL    HW142658   4.144   5.707  11.003
80273SOL    HW242659   4.080   5.782  10.888
80274SOL     OW42660   0.318   2.639   4.924
80274SOL    HW142661   0.305   2.544   4.924
80274SOL    HW242662   0.381   2.654   4.995
80275SOL     OW42663  10.959  14.029   3.149
80275SOL    HW142664  11.011  13.994   3.077
80275SOL    HW242665  10.925  14.112   3.117
80276SOL     OW42666  12.450   3.118   0.637
80276SOL    HW142667  12.381   3.054   0.620
80276SOL    HW242668  12.413   3.177   0.703
80277SOL     OW42669   0.752   5.752  11.694
80277SOL    HW142670   0.734   5.785  11.783
80277SOL    HW242671   0.745   5.657  11.702
80278SOL     OW42672  13.524  11.652   7.048
80278SOL    HW142673  13.619  11.647   7.039
80278SOL    HW242674  13.509  11.674   7.140
80279SOL     OW42675   2.777   1.702   4.171
80279SOL    HW142676   2.709   1.763   4.142
80279SOL    HW242677   2.748   1.674   4.257
80280SOL     OW42678   7.773   2.928  14.066
80280SOL    HW142679   7.728   2.844  14.075
80280SOL    HW242680   7.770   2.967  14.153
80281SOL     OW42681   0.406  14.131   8.043
80281SOL    HW142682   0.428  14.066   8.109
80281SOL    HW242683   0.334  14.092   7.993
80282SOL     OW42684   8.082   5.971   4.420
80282SOL    HW142685   8.007   5.923   4.383
80282SOL    HW242686   8.083   6.054   4.372
80283SOL     OW42687   2.803   6.050   7.011
80283SOL    HW142688   2.872   5.990   6.984
80283SOL    HW242689   2.847   6.111   7.071
80284SOL     OW42690  11.871   3.047   4.883
80284SOL    HW142691  11.832   3.083   4.963
80284SOL    HW242692  11.929   3.116   4.851
80285SOL     OW42693   1.911   0.343   8.459
80285SOL    HW142694   1.879   0.254   8.444
80285SOL    HW242695   1.936   0.374   8.372
80286SOL     OW42696   7.161  10.442   8.218
80286SOL    HW142697   7.079  10.485   8.243
80286SOL    HW242698   7.134  10.372   8.159
80287SOL     OW42699   5.879  10.449   4.869
80287SOL    HW142700   5.793  10.474   4.835
80287SOL    HW242701   5.922  10.404   4.795
80288SOL     OW42702  12.950   9.564   5.284
80288SOL    HW142703  12.972   9.657   5.277
80288SOL    HW242704  13.028   9.523   5.322
80289SOL     OW42705  11.605   6.387  12.055
80289SOL    HW142706  11.570   6.300  12.077
80289SOL    HW242707  11.700   6.375  12.054
80290SOL     OW42708  11.834   8.024  12.603
80290SOL    HW142709  11.766   8.089  12.586
80290SOL    HW242710  11.787   7.950  12.643
80291SOL     OW42711   1.814   7.564   0.647
80291SOL    HW142712   1.800   7.560   0.552
80291SOL    HW242713   1.782   7.479   0.679
80292SOL     OW42714   6.600   4.033   2.172
80292SOL    HW142715   6.553   4.006   2.251
80292SOL    HW242716   6.692   4.035   2.200
80293SOL     OW42717   5.532   7.999  10.672
80293SOL    HW142718   5.580   7.917  10.661
80293SOL    HW242719   5.458   7.975  10.729
80294SOL     OW42720   9.062  10.081   3.641
80294SOL    HW142721   9.051  10.046   3.553
80294SOL    HW242722   8.973  10.095   3.673
80295SOL     OW42723  12.724  10.292  11.274
80295SOL    HW142724  12.658  10.232  11.241
80295SOL    HW242725  12.752  10.254  11.358
80296SOL     OW42726   9.346  12.922  14.254
80296SOL    HW142727   9.273  12.952  14.200
80296SOL    HW242728   9.424  12.958  14.211
80297SOL     OW42729   6.732   0.366   3.976
80297SOL    HW142730   6.649   0.353   3.931
80297SOL    HW242731   6.715   0.341   4.067
80298SOL     OW42732  14.512  13.685   3.426
80298SOL    HW142733  14.503  13.756   3.361
80298SOL    HW242734  14.591  13.708   3.475
80299SOL     OW42735   2.614   4.608  13.050
80299SOL    HW142736   2.676   4.544  13.017
80299SOL    HW242737   2.596   4.580  13.140
80300SOL     OW42738  13.589  13.759   3.724
80300SOL    HW142739  13.509  13.708   3.736
80300SOL    HW242740  13.644  13.704   3.668
80301SOL     OW42741   5.605   8.293  14.423
80301SOL    HW142742   5.610   8.226  14.491
80301SOL    HW242743   5.653   8.257  14.349
80302SOL     OW42744   3.101  11.394   4.999
80302SOL    HW142745   3.059  11.451   4.934
80302SOL    HW242746   3.193  11.419   4.997
80303SOL     OW42747   8.588   8.757  10.056
80303SOL    HW142748   8.584   8.754   9.960
80303SOL    HW242749   8.645   8.684  10.080
80304SOL     OW42750   2.941   1.966  13.556
80304SOL    HW142751   2.969   2.015  13.479
80304SOL    HW242752   2.864   2.013  13.588
80305SOL     OW42753  13.352   8.818   5.103
80305SOL    HW142754  13.441   8.853   5.109
80305SOL    HW242755  13.300   8.892   5.070
80306SOL     OW42756   8.076  13.706   7.036
80306SOL    HW142757   8.164  13.745   7.032
80306SOL    HW242758   8.034  13.751   7.110
80307SOL     OW42759   6.177  10.422   1.075
80307SOL    HW142760   6.248  10.366   1.042
80307SOL    HW242761   6.223  10.490   1.126
80308SOL     OW42762  14.587  13.727   4.152
80308SOL    HW142763  14.643  13.742   4.228
80308SOL    HW242764  14.641  13.752   4.077
80309SOL     OW42765  12.873   1.454  14.444
80309SOL    HW142766  12.897   1.483  14.355
80309SOL    HW242767  12.896   1.362  14.446
80310SOL     OW42768  11.961   6.297   7.393
80310SOL    HW142769  11.962   6.341   7.478
80310SOL    HW242770  12.026   6.227   7.402
80311SOL     OW42771   9.296   2.114   0.290
80311SOL    HW142772   9.295   2.210   0.286
80311SOL    HW242773   9.213   2.088   0.252
80312SOL     OW42774  12.936   4.602  12.337
80312SOL    HW142775  13.020   4.606  12.290
80312SOL    HW242776  12.886   4.676  12.302
80313SOL     OW42777  13.962   2.170   7.377
80313SOL    HW142778  13.943   2.111   7.304
80313SOL    HW242779  13.915   2.132   7.452
80314SOL     OW42780  13.984   2.258  11.941
80314SOL    HW142781  13.984   2.175  11.894
80314SOL    HW242782  13.916   2.310  11.898
80315SOL     OW42783  13.954   0.416   0.774
80315SOL    HW142784  13.986   0.332   0.809
80315SOL    HW242785  14.013   0.436   0.702
80316SOL     OW42786  13.870   7.463   7.046
80316SOL    HW142787  13.788   7.481   7.001
80316SOL    HW242788  13.863   7.372   7.075
80317SOL     OW42789   6.502   9.801   3.615
80317SOL    HW142790   6.583   9.827   3.659
80317SOL    HW242791   6.441   9.781   3.686
80318SOL     OW42792  12.147   6.566  12.849
80318SOL    HW142793  12.115   6.480  12.875
80318SOL    HW242794  12.206   6.592  12.920
80319SOL     OW42795   3.306   1.506   6.113
80319SOL    HW142796   3.344   1.434   6.062
80319SOL    HW242797   3.381   1.550   6.153
80320SOL     OW42798   7.743   8.054  11.564
80320SOL    HW142799   7.700   8.089  11.642
80320SOL    HW242800   7.671   8.032  11.505
80321SOL     OW42801   8.830   8.671   2.695
80321SOL    HW142802   8.839   8.606   2.765
80321SOL    HW242803   8.738   8.665   2.669
80322SOL     OW42804   5.833   4.965   4.461
80322SOL    HW142805   5.882   4.897   4.414
80322SOL    HW242806   5.886   5.045   4.450
80323SOL     OW42807  11.059   8.583   9.253
80323SOL    HW142808  10.965   8.587   9.265
80323SOL    HW242809  11.071   8.538   9.170
80324SOL     OW42810  14.159  10.271   6.440
80324SOL    HW142811  14.199  10.319   6.367
80324SOL    HW242812  14.115  10.339   6.491
80325SOL     OW42813   8.000   4.050   4.811
80325SOL    HW142814   7.918   4.007   4.787
80325SOL    HW242815   7.996   4.135   4.766
80326SOL     OW42816  12.894   4.999   9.791
80326SOL    HW142817  12.951   5.076   9.790
80326SOL    HW242818  12.912   4.955   9.708
80327SOL     OW42819  12.416   6.849  12.262
80327SOL    HW142820  12.439   6.831  12.171
80327SOL    HW242821  12.492   6.896  12.297
80328SOL     OW42822   0.221   0.872   3.326
80328SOL    HW142823   0.195   0.963   3.309
80328SOL    HW242824   0.226   0.832   3.239
80329SOL     OW42825   2.658   2.349   3.890
80329SOL    HW142826   2.684   2.433   3.927
80329SOL    HW242827   2.740   2.301   3.877
80330SOL     OW42828  14.320   4.367  14.694
80330SOL    HW142829  14.344   4.297  14.755
80330SOL    HW242830  14.255   4.419  14.741
80331SOL     OW42831   1.213  11.425   5.380
80331SOL    HW142832   1.205  11.383   5.466
80331SOL    HW242833   1.194  11.356   5.318
80332SOL     OW42834   1.307   1.018   6.581
80332SOL    HW142835   1.312   1.107   6.548
80332SOL    HW242836   1.397   0.988   6.583
80333SOL     OW42837   3.499  11.667   0.161
80333SOL    HW142838   3.463  11.711   0.239
80333SOL    HW242839   3.593  11.668   0.174
80334SOL     OW42840   7.136   6.406  12.478
80334SOL    HW142841   7.160   6.448  12.560
80334SOL    HW242842   7.156   6.472  12.411
80335SOL     OW42843   2.852   5.770  13.668
80335SOL    HW142844   2.804   5.723  13.600
80335SOL    HW242845   2.886   5.700  13.725
80336SOL     OW42846   7.500   0.517  13.091
80336SOL    HW142847   7.545   0.463  13.156
80336SOL    HW242848   7.552   0.507  13.011
80337SOL     OW42849   8.410  14.489  12.648
80337SOL    HW142850   8.386  14.444  12.567
80337SOL    HW242851   8.422  14.419  12.712
80338SOL     OW42852   2.960   2.431   0.060
80338SOL    HW142853   2.904   2.364   0.100
80338SOL    HW242854   2.993   2.482   0.135
80339SOL     OW42855   9.928   0.138   0.704
80339SOL    HW142856  10.014   0.180   0.718
80339SOL    HW242857   9.869   0.211   0.687
80340SOL     OW42858   1.340   1.873  10.990
80340SOL    HW142859   1.422   1.850  11.033
80340SOL    HW242860   1.326   1.965  11.012
80341SOL     OW42861   5.928  13.514   1.096
80341SOL    HW142862   5.992  13.566   1.144
80341SOL    HW242863   5.896  13.572   1.027
80342SOL     OW42864   8.421   6.857   3.992
80342SOL    HW142865   8.447   6.874   3.902
80342SOL    HW242866   8.443   6.938   4.039
80343SOL     OW42867  10.078  10.902   2.801
80343SOL    HW142868  10.163  10.910   2.757
80343SOL    HW242869  10.050  10.992   2.817
80344SOL     OW42870  13.429  11.907   6.003
80344SOL    HW142871  13.355  11.875   6.056
80344SOL    HW242872  13.389  11.968   5.942
80345SOL     OW42873   4.185   3.261   4.048
80345SOL    HW142874   4.245   3.264   3.973
80345SOL    HW242875   4.097   3.259   4.008
80346SOL     OW42876   2.743  14.530   8.891
80346SOL    HW142877   2.772  14.608   8.938
80346SOL    HW242878   2.824  14.484   8.868
80347SOL     OW42879   4.751   2.705  13.522
80347SOL    HW142880   4.810   2.708  13.598
80347SOL    HW242881   4.714   2.793  13.518
80348SOL     OW42882   1.286  12.080   1.032
80348SOL    HW142883   1.215  12.142   1.049
80348SOL    HW242884   1.309  12.046   1.118
80349SOL     OW42885   8.502   1.849   8.828
80349SOL    HW142886   8.563   1.809   8.890
80349SOL    HW242887   8.553   1.858   8.747
80350SOL     OW42888  12.594  14.349  14.761
80350SOL    HW142889  12.663  14.408  14.791
80350SOL    HW242890  12.634  14.302  14.688
80351SOL     OW42891   3.695   1.565   9.440
80351SOL    HW142892   3.705   1.574   9.346
80351SOL    HW242893   3.774   1.605   9.477
80352SOL     OW42894   7.982   6.269  11.034
80352SOL    HW142895   8.068   6.273  10.992
80352SOL    HW242896   7.997   6.220  11.115
80353SOL     OW42897   9.157   9.624  12.760
80353SOL    HW142898   9.196   9.554  12.812
80353SOL    HW242899   9.071   9.590  12.735
80354SOL     OW42900   2.025  12.743   1.497
80354SOL    HW142901   2.101  12.770   1.446
80354SOL    HW242902   1.951  12.753   1.437
80355SOL     OW42903   0.837   7.141   6.135
80355SOL    HW142904   0.788   7.189   6.202
80355SOL    HW242905   0.920   7.189   6.127
80356SOL     OW42906   8.698   3.602   4.382
80356SOL    HW142907   8.632   3.630   4.446
80356SOL    HW242908   8.753   3.541   4.431
80357SOL     OW42909   1.506   5.355   5.470
80357SOL    HW142910   1.458   5.388   5.394
80357SOL    HW242911   1.598   5.358   5.443
80358SOL     OW42912  10.308   9.799  14.033
80358SOL    HW142913  10.400   9.820  14.017
80358SOL    HW242914  10.269   9.882  14.062
80359SOL     OW42915   2.549  14.265  10.542
80359SOL    HW142916   2.539  14.292  10.633
80359SOL    HW242917   2.609  14.329  10.504
80360SOL     OW42918  14.498   9.907   3.063
80360SOL    HW142919  14.506   9.975   2.997
80360SOL    HW242920  14.468   9.829   3.016
80361SOL     OW42921  13.439   0.521   2.864
80361SOL    HW142922  13.348   0.507   2.840
80361SOL    HW242923  13.469   0.436   2.896
80362SOL     OW42924   5.673   2.728   3.884
80362SOL    HW142925   5.592   2.704   3.838
80362SOL    HW242926   5.715   2.792   3.827
80363SOL     OW42927   4.586   9.359   6.642
80363SOL    HW142928   4.557   9.411   6.717
80363SOL    HW242929   4.640   9.419   6.591
80364SOL     OW42930  11.441   4.843   9.423
80364SOL    HW142931  11.374   4.814   9.362
80364SOL    HW242932  11.501   4.769   9.430
80365SOL     OW42933   4.079   3.446   5.756
80365SOL    HW142934   4.164   3.447   5.712
80365SOL    HW242935   4.023   3.501   5.701
80366SOL     OW42936   8.138   1.926   7.342
80366SOL    HW142937   8.088   1.846   7.360
80366SOL    HW242938   8.110   1.987   7.410
80367SOL     OW42939  12.930   0.603  10.691
80367SOL    HW142940  12.842   0.625  10.658
80367SOL    HW242941  12.978   0.685  10.686
80368SOL     OW42942   0.363  10.534   8.055
80368SOL    HW142943   0.290  10.473   8.048
80368SOL    HW242944   0.395  10.543   7.966
80369SOL     OW42945  14.024   1.375   9.841
80369SOL    HW142946  14.077   1.427   9.781
80369SOL    HW242947  14.087   1.337   9.903
80370SOL     OW42948  11.346   2.596   2.738
80370SOL    HW142949  11.419   2.649   2.770
80370SOL    HW242950  11.381   2.508   2.732
80371SOL     OW42951   8.463  12.115   3.087
80371SOL    HW142952   8.529  12.179   3.114
80371SOL    HW242953   8.395  12.121   3.155
80372SOL     OW42954   2.495  14.357   0.167
80372SOL    HW142955   2.433  14.355   0.240
80372SOL    HW242956   2.564  14.296   0.194
80373SOL     OW42957   4.881   9.659  10.952
80373SOL    HW142958   4.843   9.594  11.012
80373SOL    HW242959   4.968   9.625  10.932
80374SOL     OW42960  11.142   3.718   0.321
80374SOL    HW142961  11.073   3.665   0.280
80374SOL    HW242962  11.103   3.749   0.402
80375SOL     OW42963  13.810  12.525   8.062
80375SOL    HW142964  13.774  12.444   8.097
80375SOL    HW242965  13.740  12.589   8.073
80376SOL     OW42966   1.199  13.557  13.722
80376SOL    HW142967   1.132  13.584  13.785
80376SOL    HW242968   1.227  13.638  13.680
80377SOL     OW42969  13.682   1.502   4.700
80377SOL    HW142970  13.632   1.583   4.704
80377SOL    HW242971  13.679   1.467   4.789
80378SOL     OW42972  12.257  10.073  10.957
80378SOL    HW142973  12.329  10.087  10.896
80378SOL    HW242974  12.190  10.027  10.905
80379SOL     OW42975  14.170   9.381   8.777
80379SOL    HW142976  14.119   9.459   8.760
80379SOL    HW242977  14.159   9.327   8.699
80380SOL     OW42978  13.700   0.991  13.523
80380SOL    HW142979  13.682   0.944  13.605
80380SOL    HW242980  13.740   0.925  13.466
80381SOL     OW42981  14.202  11.951   7.364
80381SOL    HW142982  14.217  11.889   7.293
80381SOL    HW242983  14.231  12.035   7.329
80382SOL     OW42984   2.210   6.209   5.423
80382SOL    HW142985   2.177   6.159   5.347
80382SOL    HW242986   2.171   6.165   5.499
80383SOL     OW42987   1.989   4.251   5.598
80383SOL    HW142988   1.919   4.202   5.555
80383SOL    HW242989   2.069   4.223   5.553
80384SOL     OW42990  14.729   5.479  11.500
80384SOL    HW142991  14.764   5.410  11.556
80384SOL    HW242992  14.768   5.560  11.533
80385SOL     OW42993  14.363   7.892   2.681
80385SOL    HW142994  14.347   7.811   2.633
80385SOL    HW242995  14.433   7.936   2.633
80386SOL     OW42996  11.286   6.357  14.531
80386SOL    HW142997  11.298   6.447  14.562
80386SOL    HW242998  11.292   6.304  14.610
80387SOL     OW42999  14.148  11.271   0.131
80387SOL    HW143000  14.134  11.328   0.207
80387SOL    HW243001  14.091  11.308   0.063
80388SOL     OW43002   3.444   4.044  10.688
80388SOL    HW143003   3.354   4.036  10.718
80388SOL    HW243004   3.467   4.135  10.704
80389SOL     OW43005   1.139   0.131   3.457
80389SOL    HW143006   1.156   0.038   3.439
80389SOL    HW243007   1.165   0.176   3.377
80390SOL     OW43008   0.067   6.725   5.409
80390SOL    HW143009   0.006   6.724   5.335
80390SOL    HW243010   0.105   6.637   5.410
80391SOL     OW43011  10.156  14.564  14.068
80391SOL    HW143012  10.103  14.512  14.128
80391SOL    HW243013  10.226  14.601  14.122
80392SOL     OW43014  13.546   2.181  12.968
80392SOL    HW143015  13.534   2.088  12.991
80392SOL    HW243016  13.482   2.197  12.898
80393SOL     OW43017  11.784   8.519   1.378
80393SOL    HW143018  11.875   8.520   1.409
80393SOL    HW243019  11.788   8.559   1.291
80394SOL     OW43020   0.587   6.512  11.200
80394SOL    HW143021   0.499   6.548  11.209
80394SOL    HW243022   0.641   6.562  11.261
80395SOL     OW43023   1.163   7.094  10.328
80395SOL    HW143024   1.138   7.186  10.315
80395SOL    HW243025   1.158   7.082  10.423
80396SOL     OW43026   6.849   3.176   6.807
80396SOL    HW143027   6.880   3.265   6.793
80396SOL    HW243028   6.894   3.148   6.887
80397SOL     OW43029  12.758  11.011  14.116
80397SOL    HW143030  12.772  10.916  14.112
80397SOL    HW243031  12.663  11.021  14.104
80398SOL     OW43032   0.972   6.683   9.858
80398SOL    HW143033   0.916   6.749   9.816
80398SOL    HW243034   0.911   6.621   9.897
80399SOL     OW43035   5.978   3.629  13.651
80399SOL    HW143036   5.954   3.577  13.575
80399SOL    HW243037   5.998   3.566  13.720
80400SOL     OW43038  11.870   9.135  14.225
80400SOL    HW143039  11.796   9.134  14.286
80400SOL    HW243040  11.830   9.142  14.139
80401SOL     OW43041  13.401   3.072   9.216
80401SOL    HW143042  13.439   3.073   9.304
80401SOL    HW243043  13.317   3.118   9.226
80402SOL     OW43044  14.470   5.741   5.905
80402SOL    HW143045  14.540   5.803   5.921
80402SOL    HW243046  14.401   5.764   5.967
80403SOL     OW43047  12.559  12.578   8.267
80403SOL    HW143048  12.611  12.519   8.322
80403SOL    HW243049  12.553  12.533   8.183
80404SOL     OW43050  13.869  13.515  12.329
80404SOL    HW143051  13.935  13.445  12.330
80404SOL    HW243052  13.872  13.553  12.416
80405SOL     OW43053   7.515  11.622   8.198
80405SOL    HW143054   7.463  11.651   8.273
80405SOL    HW243055   7.468  11.656   8.122
80406SOL     OW43056  10.216  11.984   8.415
80406SOL    HW143057  10.288  12.040   8.386
80406SOL    HW243058  10.189  11.936   8.336
80407SOL     OW43059   4.876   6.114   3.683
80407SOL    HW143060   4.914   6.173   3.748
80407SOL    HW243061   4.809   6.167   3.640
80408SOL     OW43062  10.773  12.803   1.517
80408SOL    HW143063  10.819  12.843   1.590
80408SOL    HW243064  10.842  12.760   1.466
80409SOL     OW43065   5.741  10.422  10.161
80409SOL    HW143066   5.773  10.351  10.217
80409SOL    HW243067   5.820  10.464  10.128
80410SOL     OW43068   7.728   8.567   5.969
80410SOL    HW143069   7.709   8.537   6.058
80410SOL    HW243070   7.739   8.488   5.918
80411SOL     OW43071   4.597   3.545  10.534
80411SOL    HW143072   4.544   3.503  10.467
80411SOL    HW243073   4.569   3.637  10.532
80412SOL     OW43074   3.425  13.395   3.136
80412SOL    HW143075   3.508  13.442   3.131
80412SOL    HW243076   3.431  13.329   3.066
80413SOL     OW43077   8.820   8.347   8.141
80413SOL    HW143078   8.895   8.343   8.200
80413SOL    HW243079   8.858   8.344   8.053
80414SOL     OW43080  14.094   0.036   6.948
80414SOL    HW143081  14.095   0.089   7.028
80414SOL    HW243082  14.073  14.824   6.978
80415SOL     OW43083   6.598  13.447  11.072
80415SOL    HW143084   6.503  13.444  11.056
80415SOL    HW243085   6.613  13.387  11.145
80416SOL     OW43086   0.427   6.573   6.194
80416SOL    HW143087   0.471   6.656   6.174
80416SOL    HW243088   0.397   6.584   6.284
80417SOL     OW43089   9.685   5.758   5.516
80417SOL    HW143090   9.750   5.689   5.504
80417SOL    HW243091   9.728   5.821   5.574
80418SOL     OW43092   9.923   5.563  14.112
80418SOL    HW143093   9.892   5.473  14.103
80418SOL    HW243094   9.898   5.588  14.201
80419SOL     OW43095   5.853  12.265   9.821
80419SOL    HW143096   5.943  12.295   9.837
80419SOL    HW243097   5.808  12.343   9.788
80420SOL     OW43098   5.160   0.243   5.019
80420SOL    HW143099   5.201   0.219   5.102
80420SOL    HW243100   5.172   0.166   4.963
80421SOL     OW43101   9.979  14.331   0.150
80421SOL    HW143102  10.040  14.360   0.083
80421SOL    HW243103   9.977  14.236   0.141
80422SOL     OW43104   5.945   7.951   4.422
80422SOL    HW143105   6.032   7.925   4.393
80422SOL    HW243106   5.903   7.869   4.449
80423SOL     OW43107   7.719   6.109   4.260
80423SOL    HW143108   7.655   6.134   4.194
80423SOL    HW243109   7.679   6.136   4.343
80424SOL     OW43110   3.765  13.435   3.364
80424SOL    HW143111   3.702  13.461   3.432
80424SOL    HW243112   3.847  13.476   3.390
80425SOL     OW43113   0.299   4.009   5.097
80425SOL    HW143114   0.256   3.990   5.180
80425SOL    HW243115   0.324   3.923   5.062
80426SOL     OW43116   5.792  12.591   2.056
80426SOL    HW143117   5.872  12.636   2.027
80426SOL    HW243118   5.783  12.615   2.148
80427SOL     OW43119  13.049   3.372   3.685
80427SOL    HW143120  13.011   3.431   3.620
80427SOL    HW243121  13.144   3.381   3.674
80428SOL     OW43122   1.379   3.077  10.941
80428SOL    HW143123   1.301   3.064  10.888
80428SOL    HW243124   1.446   3.022  10.899
80429SOL     OW43125   6.637   5.471   9.927
80429SOL    HW143126   6.592   5.392   9.957
80429SOL    HW243127   6.722   5.439   9.893
80430SOL     OW43128  14.635   9.927   4.375
80430SOL    HW143129  14.603   9.899   4.290
80430SOL    HW243130  14.556   9.943   4.427
80431SOL     OW43131  12.466  11.826   9.047
80431SOL    HW143132  12.484  11.920   9.038
80431SOL    HW243133  12.551  11.784   9.038
80432SOL     OW43134  11.522   3.029  13.406
80432SOL    HW143135  11.592   3.071  13.457
80432SOL    HW243136  11.454   3.095  13.399
80433SOL     OW43137   8.616   1.423   1.852
80433SOL    HW143138   8.545   1.443   1.790
80433SOL    HW243139   8.689   1.397   1.796
80434SOL     OW43140  14.748  10.927   0.295
80434SOL    HW143141  14.795  11.006   0.267
80434SOL    HW243142  14.667  10.929   0.244
80435SOL     OW43143   5.455   2.913   8.073
80435SOL    HW143144   5.475   2.865   7.993
80435SOL    HW243145   5.395   2.855   8.121
80436SOL     OW43146  14.385  12.212  14.317
80436SOL    HW143147  14.372  12.232  14.224
80436SOL    HW243148  14.414  12.121  14.318
80437SOL     OW43149   4.499  13.163  13.823
80437SOL    HW143150   4.529  13.240  13.777
80437SOL    HW243151   4.408  13.182  13.846
80438SOL     OW43152  12.819   6.866   6.728
80438SOL    HW143153  12.764   6.915   6.789
80438SOL    HW243154  12.806   6.909   6.644
80439SOL     OW43155  13.681  14.343   4.970
80439SOL    HW143156  13.724  14.346   5.056
80439SOL    HW243157  13.735  14.397   4.914
80440SOL     OW43158   7.441   0.731   5.712
80440SOL    HW143159   7.436   0.810   5.658
80440SOL    HW243160   7.534   0.726   5.737
80441SOL     OW43161  13.767   0.053   4.311
80441SOL    HW143162  13.763   0.060   4.215
80441SOL    HW243163  13.836   0.113   4.337
80442SOL     OW43164  10.715   7.089  14.852
80442SOL    HW143165  10.767   7.032  14.795
80442SOL    HW243166  10.624   7.074  14.824
80443SOL     OW43167   5.853   5.625   8.850
80443SOL    HW143168   5.841   5.623   8.945
80443SOL    HW243169   5.768   5.652   8.816
80444SOL     OW43170   6.886  12.784   8.189
80444SOL    HW143171   6.896  12.831   8.106
80444SOL    HW243172   6.939  12.705   8.178
80445SOL     OW43173  14.616   5.728   1.500
80445SOL    HW143174  14.549   5.753   1.437
80445SOL    HW243175  14.570   5.673   1.564
80446SOL     OW43176   3.698   6.883   9.835
80446SOL    HW143177   3.690   6.823   9.760
80446SOL    HW243178   3.658   6.965   9.804
80447SOL     OW43179  12.281  11.538   8.764
80447SOL    HW143180  12.240  11.595   8.699
80447SOL    HW243181  12.244  11.566   8.848
80448SOL     OW43182  13.100   2.702   2.620
80448SOL    HW143183  13.165   2.634   2.601
80448SOL    HW243184  13.148   2.784   2.613
80449SOL     OW43185   5.616   8.145  14.673
80449SOL    HW143186   5.553   8.164  14.742
80449SOL    HW243187   5.695   8.116  14.720
80450SOL     OW43188  10.268  10.372   2.361
80450SOL    HW143189  10.302  10.332   2.441
80450SOL    HW243190  10.212  10.305   2.322
80451SOL     OW43191  11.989  13.130   9.840
80451SOL    HW143192  12.043  13.173   9.906
80451SOL    HW243193  11.902  13.168   9.852
80452SOL     OW43194  12.583   3.334   0.854
80452SOL    HW143195  12.651   3.385   0.898
80452SOL    HW243196  12.601   3.244   0.880
80453SOL     OW43197  10.588  14.105   9.334
80453SOL    HW143198  10.672  14.059   9.333
80453SOL    HW243199  10.611  14.197   9.320
80454SOL     OW43200   3.826   8.752   0.156
80454SOL    HW143201   3.774   8.703   0.092
80454SOL    HW243202   3.897   8.790   0.105
80455SOL     OW43203   8.849   1.714  14.582
80455SOL    HW143204   8.837   1.799  14.625
80455SOL    HW243205   8.814   1.651  14.645
80456SOL     OW43206   2.291  11.072   5.145
80456SOL    HW143207   2.281  11.098   5.237
80456SOL    HW243208   2.209  11.099   5.103
80457SOL     OW43209   7.298   2.007   6.469
80457SOL    HW143210   7.275   2.020   6.377
80457SOL    HW243211   7.298   1.912   6.480
80458SOL     OW43212   3.777   6.751  11.541
80458SOL    HW143213   3.798   6.672  11.492
80458SOL    HW243214   3.722   6.802  11.482
80459SOL     OW43215   5.495   7.508  10.511
80459SOL    HW143216   5.483   7.571  10.441
80459SOL    HW243217   5.411   7.462  10.516
80460SOL     OW43218   2.094  13.976   6.322
80460SOL    HW143219   2.052  13.906   6.272
80460SOL    HW243220   2.166  13.933   6.368
80461SOL     OW43221   9.805   9.104  12.231
80461SOL    HW143222   9.791   9.141  12.143
80461SOL    HW243223   9.786   9.176  12.291
80462SOL     OW43224   9.027   4.732   5.205
80462SOL    HW143225   8.959   4.797   5.224
80462SOL    HW243226   9.056   4.753   5.116
80463SOL     OW43227  11.808  14.547   8.097
80463SOL    HW143228  11.808  14.640   8.073
80463SOL    HW243229  11.748  14.542   8.172
80464SOL     OW43230  11.395   8.174  14.272
80464SOL    HW143231  11.490   8.188  14.277
80464SOL    HW243232  11.377   8.107  14.338
80465SOL     OW43233   9.185   4.991   3.428
80465SOL    HW143234   9.250   5.025   3.367
80465SOL    HW243235   9.109   4.970   3.374
80466SOL     OW43236   0.139  14.698   1.155
80466SOL    HW143237   0.101  14.777   1.194
80466SOL    HW243238   0.162  14.724   1.066
80467SOL     OW43239   8.484   1.896   7.953
80467SOL    HW143240   8.466   1.910   8.046
80467SOL    HW243241   8.464   1.803   7.939
80468SOL     OW43242   4.385   8.223   6.504
80468SOL    HW143243   4.345   8.172   6.574
80468SOL    HW243244   4.363   8.314   6.525
80469SOL     OW43245  10.051   1.623   7.599
80469SOL    HW143246  10.080   1.536   7.627
80469SOL    HW243247  10.110   1.646   7.528
80470SOL     OW43248   4.341   7.047  13.041
80470SOL    HW143249   4.402   7.120  13.028
80470SOL    HW243250   4.367   6.982  12.975
80471SOL     OW43251   8.398   2.928   2.432
80471SOL    HW143252   8.441   3.006   2.468
80471SOL    HW243253   8.392   2.945   2.338
80472SOL     OW43254   1.084   1.970   3.621
80472SOL    HW143255   1.013   1.913   3.649
80472SOL    HW243256   1.109   1.938   3.534
80473SOL     OW43257  13.576  10.101  12.404
80473SOL    HW143258  13.664  10.101  12.443
80473SOL    HW243259  13.567  10.014  12.366
80474SOL     OW43260  10.569   0.923   6.296
80474SOL    HW143261  10.662   0.912   6.315
80474SOL    HW243262  10.530   0.839   6.319
80475SOL     OW43263   6.016  12.691   8.344
80475SOL    HW143264   6.032  12.597   8.348
80475SOL    HW243265   6.081  12.729   8.404
80476SOL     OW43266  13.966   8.340  11.241
80476SOL    HW143267  14.037   8.399  11.213
80476SOL    HW243268  14.004   8.291  11.315
80477SOL     OW43269  11.584  14.229  10.702
80477SOL    HW143270  11.658  14.291  10.704
80477SOL    HW243271  11.580  14.200  10.611
80478SOL     OW43272   3.475   5.844   2.548
80478SOL    HW143273   3.483   5.754   2.517
80478SOL    HW243274   3.449   5.835   2.640
80479SOL     OW43275   9.463  10.834  13.353
80479SOL    HW143276   9.435  10.887  13.428
80479SOL    HW243277   9.483  10.749  13.391
80480SOL     OW43278   0.070   2.773   4.147
80480SOL    HW143279   0.108   2.694   4.186
80480SOL    HW243280   0.125   2.791   4.070
80481SOL     OW43281   6.439   5.848   1.671
80481SOL    HW143282   6.387   5.828   1.749
80481SOL    HW243283   6.514   5.788   1.676
80482SOL     OW43284   3.256   6.550   8.281
80482SOL    HW143285   3.329   6.589   8.331
80482SOL    HW243286   3.206   6.625   8.250
80483SOL     OW43287   1.831  12.906   9.442
80483SOL    HW143288   1.841  12.968   9.370
80483SOL    HW243289   1.909  12.919   9.497
80484SOL     OW43290   8.008  11.612   5.035
80484SOL    HW143291   7.925  11.589   5.076
80484SOL    HW243292   8.075  11.590   5.101
80485SOL     OW43293   0.971   3.614   4.622
80485SOL    HW143294   1.002   3.556   4.552
80485SOL    HW243295   1.038   3.682   4.628
80486SOL     OW43296  14.555   6.862   4.759
80486SOL    HW143297  14.620   6.915   4.807
80486SOL    HW243298  14.479   6.860   4.817
80487SOL     OW43299  10.221   5.910  12.875
80487SOL    HW143300  10.212   5.879  12.965
80487SOL    HW243301  10.254   6.000  12.884
80488SOL     OW43302   0.250   2.615   7.250
80488SOL    HW143303   0.200   2.571   7.181
80488SOL    HW243304   0.311   2.549   7.281
80489SOL     OW43305   1.906   9.401   7.792
80489SOL    HW143306   1.985   9.374   7.838
80489SOL    HW243307   1.860   9.320   7.772
80490SOL     OW43308   2.378   9.392  12.136
80490SOL    HW143309   2.433   9.445  12.078
80490SOL    HW243310   2.417   9.403  12.223
80491SOL     OW43311   7.679   4.724  13.373
80491SOL    HW143312   7.669   4.662  13.446
80491SOL    HW243313   7.608   4.702  13.313
80492SOL     OW43314   0.819  13.369   6.263
80492SOL    HW143315   0.833  13.355   6.169
80492SOL    HW243316   0.863  13.452   6.282
80493SOL     OW43317   8.865   0.398   0.240
80493SOL    HW143318   8.771   0.380   0.238
80493SOL    HW243319   8.871   0.493   0.243
80494SOL     OW43320   8.309   0.892  11.274
80494SOL    HW143321   8.357   0.874  11.193
80494SOL    HW243322   8.275   0.807  11.302
80495SOL     OW43323   7.303   8.008   0.155
80495SOL    HW143324   7.394   8.010   0.124
80495SOL    HW243325   7.306   8.054   0.239
80496SOL     OW43326   7.638   0.367   9.039
80496SOL    HW143327   7.562   0.371   8.982
80496SOL    HW243328   7.604   0.387   9.126
80497SOL     OW43329  12.650  12.718  11.658
80497SOL    HW143330  12.623  12.798  11.701
80497SOL    HW243331  12.665  12.743  11.567
80498SOL     OW43332  14.354  14.224  10.860
80498SOL    HW143333  14.337  14.304  10.811
80498SOL    HW243334  14.416  14.250  10.928
80499SOL     OW43335   1.613  10.215   9.693
80499SOL    HW143336   1.567  10.215   9.777
80499SOL    HW243337   1.574  10.287   9.644
80500SOL     OW43338   8.713   0.238   5.870
80500SOL    HW143339   8.768   0.312   5.894
80500SOL    HW243340   8.638   0.244   5.929
80501SOL     OW43341   9.815   5.923   8.789
80501SOL    HW143342   9.804   6.009   8.830
80501SOL    HW243343   9.809   5.861   8.862
80502SOL     OW43344  10.154   6.643   2.338
80502SOL    HW143345  10.064   6.638   2.372
80502SOL    HW243346  10.204   6.582   2.393
80503SOL     OW43347  10.164   2.298  11.787
80503SOL    HW143348  10.097   2.273  11.724
80503SOL    HW243349  10.174   2.221  11.843
80504SOL     OW43350   9.559   5.065  14.260
80504SOL    HW143351   9.501   5.020  14.322
80504SOL    HW243352   9.502   5.129  14.217
80505SOL     OW43353  11.401  10.628   8.922
80505SOL    HW143354  11.404  10.573   9.000
80505SOL    HW243355  11.493  10.646   8.902
80506SOL     OW43356   2.847   3.192  11.184
80506SOL    HW143357   2.821   3.282  11.203
80506SOL    HW243358   2.794   3.138  11.244
80507SOL     OW43359  14.596   0.433  13.122
80507SOL    HW143360  14.615   0.398  13.208
80507SOL    HW243361  14.538   0.369  13.081
80508SOL     OW43362   1.236   7.704   1.321
80508SOL    HW143363   1.165   7.768   1.311
80508SOL    HW243364   1.271   7.720   1.408
80509SOL     OW43365  12.368  12.352  14.857
80509SOL    HW143366  12.285  12.328  14.816
80509SOL    HW243367  12.362  12.447  14.869
80510SOL     OW43368  14.002   8.781   9.802
80510SOL    HW143369  14.059   8.717   9.760
80510SOL    HW243370  13.935   8.800   9.737
80511SOL     OW43371  10.874   1.323  11.583
80511SOL    HW143372  10.824   1.376  11.646
80511SOL    HW243373  10.934   1.385  11.542
80512SOL     OW43374  13.938   6.472   1.642
80512SOL    HW143375  13.941   6.418   1.563
80512SOL    HW243376  13.847   6.465   1.672
80513SOL     OW43377   0.666   0.218  13.108
80513SOL    HW143378   0.578   0.181  13.114
80513SOL    HW243379   0.691   0.206  13.016
80514SOL     OW43380  11.435   5.454   2.600
80514SOL    HW143381  11.361   5.479   2.656
80514SOL    HW243382  11.493   5.406   2.658
80515SOL     OW43383   5.516  14.743  13.111
80515SOL    HW143384   5.593  14.750  13.167
80515SOL    HW243385   5.538  14.674  13.048
80516SOL     OW43386   7.406   8.827  14.604
80516SOL    HW143387   7.457   8.751  14.632
80516SOL    HW243388   7.315   8.801  14.616
80517SOL     OW43389  13.863   1.454   2.198
80517SOL    HW143390  13.950   1.415   2.209
80517SOL    HW243391  13.875   1.546   2.224
80518SOL     OW43392   7.681   8.864   7.462
80518SOL    HW143393   7.681   8.812   7.382
80518SOL    HW243394   7.736   8.813   7.523
80519SOL     OW43395   0.576   1.674  13.169
80519SOL    HW143396   0.606   1.605  13.110
80519SOL    HW243397   0.539   1.628  13.244
80520SOL     OW43398  10.965  12.239   0.632
80520SOL    HW143399  10.928  12.199   0.553
80520SOL    HW243400  11.039  12.183   0.656
80521SOL     OW43401   1.746   7.022   7.462
80521SOL    HW143402   1.827   6.971   7.457
80521SOL    HW243403   1.775   7.113   7.465
80522SOL     OW43404   4.978   9.384   6.882
80522SOL    HW143405   5.025   9.313   6.838
80522SOL    HW243406   4.915   9.415   6.818
80523SOL     OW43407   0.010   4.174  11.185
80523SOL    HW143408   0.062   4.253  11.196
80523SOL    HW243409   0.014   4.155  11.091
80524SOL     OW43410  12.122   1.075  11.172
80524SOL    HW143411  12.174   1.155  11.178
80524SOL    HW243412  12.167   1.014  11.231
80525SOL     OW43413   0.574   3.219   7.116
80525SOL    HW143414   0.647   3.268   7.078
80525SOL    HW243415   0.614   3.164   7.183
80526SOL     OW43416   5.593  10.095  10.422
80526SOL    HW143417   5.574  10.184  10.450
80526SOL    HW243418   5.586  10.098  10.326
80527SOL     OW43419  14.064   1.100   6.644
80527SOL    HW143420  14.067   1.041   6.568
80527SOL    HW243421  14.142   1.076   6.695
80528SOL     OW43422  14.276   5.407   5.604
80528SOL    HW143423  14.249   5.325   5.646
80528SOL    HW243424  14.357   5.431   5.648
80529SOL     OW43425   2.224   3.907   3.828
80529SOL    HW143426   2.280   3.875   3.899
80529SOL    HW243427   2.266   3.989   3.800
80530SOL     OW43428  11.011  10.346  13.126
80530SOL    HW143429  10.990  10.342  13.219
80530SOL    HW243430  11.106  10.332  13.122
80531SOL     OW43431   3.884   9.231   4.307
80531SOL    HW143432   3.818   9.294   4.278
80531SOL    HW243433   3.916   9.268   4.390
80532SOL     OW43434  10.346   2.124   8.937
80532SOL    HW143435  10.389   2.185   8.877
80532SOL    HW243436  10.415   2.064   8.963
80533SOL     OW43437   5.772   9.632   0.067
80533SOL    HW143438   5.805   9.546   0.042
80533SOL    HW243439   5.834   9.694   0.028
80534SOL     OW43440  10.811  14.166   5.453
80534SOL    HW143441  10.877  14.235   5.463
80534SOL    HW243442  10.781  14.149   5.542
80535SOL     OW43443   7.336   1.443  11.135
80535SOL    HW143444   7.262   1.404  11.182
80535SOL    HW243445   7.297   1.510  11.079
80536SOL     OW43446  10.491  12.839   7.733
80536SOL    HW143447  10.484  12.849   7.638
80536SOL    HW243448  10.405  12.806   7.760
80537SOL     OW43449   8.845   0.582   6.975
80537SOL    HW143450   8.816   0.647   6.911
80537SOL    HW243451   8.766   0.561   7.025
80538SOL     OW43452   7.340   2.403  13.128
80538SOL    HW143453   7.429   2.416  13.162
80538SOL    HW243454   7.303   2.334  13.184
80539SOL     OW43455   3.765   2.037  13.671
80539SOL    HW143456   3.858   2.052  13.658
80539SOL    HW243457   3.741   1.973  13.604
80540SOL     OW43458  11.638   5.272   0.692
80540SOL    HW143459  11.677   5.280   0.605
80540SOL    HW243460  11.709   5.291   0.752
80541SOL     OW43461  12.628  12.691   8.805
80541SOL    HW143462  12.594  12.607   8.777
80541SOL    HW243463  12.693  12.714   8.739
80542SOL     OW43464   7.608  14.343   6.330
80542SOL    HW143465   7.666  14.285   6.379
80542SOL    HW243466   7.578  14.289   6.256
80543SOL     OW43467   0.622   7.266   0.389
80543SOL    HW143468   0.580   7.333   0.335
80543SOL    HW243469   0.659   7.314   0.463
80544SOL     OW43470  10.166   1.371   5.545
80544SOL    HW143471  10.088   1.385   5.491
80544SOL    HW243472  10.185   1.456   5.583
80545SOL     OW43473  14.497   2.522   9.191
80545SOL    HW143474  14.433   2.496   9.258
80545SOL    HW243475  14.552   2.587   9.233
80546SOL     OW43476  12.837  13.796   1.291
80546SOL    HW143477  12.782  13.748   1.354
80546SOL    HW243478  12.922  13.804   1.335
80547SOL     OW43479  11.191  10.489   2.125
80547SOL    HW143480  11.233  10.454   2.046
80547SOL    HW243481  11.209  10.583   2.122
80548SOL     OW43482   4.235   2.107   2.855
80548SOL    HW143483   4.246   2.012   2.857
80548SOL    HW243484   4.141   2.121   2.866
80549SOL     OW43485  13.473  12.565  13.230
80549SOL    HW143486  13.490  12.471  13.224
80549SOL    HW243487  13.551  12.605  13.192
80550SOL     OW43488   9.009   5.042   3.065
80550SOL    HW143489   8.919   5.059   3.095
80550SOL    HW243490   9.061   5.113   3.103
80551SOL     OW43491  14.034   2.691   9.987
80551SOL    HW143492  13.986   2.669   9.907
80551SOL    HW243493  14.103   2.750   9.957
80552SOL     OW43494   0.391   7.936  13.374
80552SOL    HW143495   0.459   8.003  13.368
80552SOL    HW243496   0.342   7.959  13.453
80553SOL     OW43497   5.053  10.906   3.595
80553SOL    HW143498   5.104  10.825   3.604
80553SOL    HW243499   4.971  10.878   3.555
80554SOL     OW43500  13.146   7.611   8.283
80554SOL    HW143501  13.101   7.685   8.244
80554SOL    HW243502  13.198   7.574   8.212
80555SOL     OW43503   6.571   1.645   1.434
80555SOL    HW143504   6.564   1.650   1.529
80555SOL    HW243505   6.484   1.620   1.404
80556SOL     OW43506  12.613   3.148   7.138
80556SOL    HW143507  12.592   3.076   7.078
80556SOL    HW243508  12.626   3.224   7.081
80557SOL     OW43509  11.698   0.076   8.915
80557SOL    HW143510  11.718   0.096   9.007
80557SOL    HW243511  11.664  14.863   8.918
80558SOL     OW43512   4.906   0.349  14.809
80558SOL    HW143513   4.837   0.325  14.870
80558SOL    HW243514   4.985   0.355  14.863
80559SOL     OW43515   4.543   2.312   2.958
80559SOL    HW143516   4.487   2.365   3.015
80559SOL    HW243517   4.526   2.222   2.985
80560SOL     OW43518  14.495   4.262   6.817
80560SOL    HW143519  14.486   4.168   6.803
80560SOL    HW243520  14.587   4.281   6.795
80561SOL     OW43521  12.375   6.975   0.628
80561SOL    HW143522  12.455   7.023   0.653
80561SOL    HW243523  12.382   6.966   0.533
80562SOL     OW43524   8.744   5.266   7.288
80562SOL    HW143525   8.835   5.237   7.285
80562SOL    HW243526   8.742   5.329   7.361
80563SOL     OW43527  11.035  13.616   4.793
80563SOL    HW143528  11.024  13.662   4.710
80563SOL    HW243529  11.130  13.610   4.804
80564SOL     OW43530   9.465   0.993   0.190
80564SOL    HW143531   9.493   1.043   0.266
80564SOL    HW243532   9.383   1.034   0.163
80565SOL     OW43533   7.332   6.396  11.049
80565SOL    HW143534   7.407   6.390  11.108
80565SOL    HW243535   7.340   6.319  10.993
80566SOL     OW43536   6.502   2.174  11.431
80566SOL    HW143537   6.581   2.164  11.379
80566SOL    HW243538   6.516   2.255  11.480
80567SOL     OW43539  12.285  14.298  11.592
80567SOL    HW143540  12.252  14.267  11.676
80567SOL    HW243541  12.343  14.370  11.614
80568SOL     OW43542   1.633   1.858   2.549
80568SOL    HW143543   1.720   1.849   2.587
80568SOL    HW243544   1.581   1.897   2.619
80569SOL     OW43545   9.881   7.616   1.963
80569SOL    HW143546   9.890   7.671   2.041
80569SOL    HW243547   9.899   7.675   1.890
80570SOL     OW43548   9.456  12.766   6.495
80570SOL    HW143549   9.474  12.849   6.540
80570SOL    HW243550   9.408  12.714   6.559
80571SOL     OW43551   5.698   9.200   4.887
80571SOL    HW143552   5.603   9.184   4.893
80571SOL    HW243553   5.720   9.174   4.798
80572SOL     OW43554   6.757   3.427  12.451
80572SOL    HW143555   6.679   3.466  12.491
80572SOL    HW243556   6.805   3.502  12.417
80573SOL     OW43557  12.325   7.361   9.581
80573SOL    HW143558  12.296   7.319   9.500
80573SOL    HW243559  12.393   7.303   9.615
80574SOL     OW43560   1.692   1.400   4.220
80574SOL    HW143561   1.768   1.352   4.252
80574SOL    HW243562   1.729   1.480   4.182
80575SOL     OW43563   5.954   2.100  12.933
80575SOL    HW143564   5.936   2.006  12.937
80575SOL    HW243565   5.913   2.129  12.852
80576SOL     OW43566  14.498   1.649   0.535
80576SOL    HW143567  14.586   1.681   0.556
80576SOL    HW243568  14.503   1.555   0.548
80577SOL     OW43569   0.456   8.755   3.664
80577SOL    HW143570   0.411   8.671   3.649
80577SOL    HW243571   0.447   8.769   3.758
80578SOL     OW43572   0.856   3.908  11.902
80578SOL    HW143573   0.947   3.903  11.871
80578SOL    HW243574   0.862   3.895  11.996
80579SOL     OW43575   3.647   5.290   4.805
80579SOL    HW143576   3.702   5.363   4.832
80579SOL    HW243577   3.561   5.330   4.789
80580SOL     OW43578   5.077   6.403  11.916
80580SOL    HW143579   5.102   6.487  11.953
80580SOL    HW243580   4.981   6.404  11.919
80581SOL     OW43581   7.153   4.441  14.435
80581SOL    HW143582   7.081   4.498  14.462
80581SOL    HW243583   7.224   4.462  14.497
80582SOL     OW43584  12.984   3.872   8.410
80582SOL    HW143585  13.024   3.891   8.325
80582SOL    HW243586  12.942   3.787   8.398
80583SOL     OW43587   0.469   4.662   9.770
80583SOL    HW143588   0.384   4.699   9.750
80583SOL    HW243589   0.523   4.681   9.693
80584SOL     OW43590   2.436   2.266  14.385
80584SOL    HW143591   2.483   2.342  14.421
80584SOL    HW243592   2.490   2.237  14.312
80585SOL     OW43593   5.983   8.684  14.226
80585SOL    HW143594   6.007   8.593  14.243
80585SOL    HW243595   5.927   8.680  14.149
80586SOL     OW43596  11.350  12.133  11.345
80586SOL    HW143597  11.417  12.201  11.350
80586SOL    HW243598  11.271  12.175  11.377
80587SOL     OW43599  12.634   3.848  10.923
80587SOL    HW143600  12.680   3.768  10.946
80587SOL    HW243601  12.552   3.817  10.883
80588SOL     OW43602  13.628   9.670   8.714
80588SOL    HW143603  13.668   9.630   8.637
80588SOL    HW243604  13.639   9.605   8.783
80589SOL     OW43605   7.395   8.188  14.151
80589SOL    HW143606   7.463   8.120  14.156
80589SOL    HW243607   7.393   8.227  14.238
80590SOL     OW43608  11.300  10.688  10.319
80590SOL    HW143609  11.220  10.669  10.269
80590SOL    HW243610  11.363  10.716  10.253
80591SOL     OW43611   1.734   7.544   1.078
80591SOL    HW143612   1.746   7.514   0.988
80591SOL    HW243613   1.823   7.548   1.114
80592SOL     OW43614  13.767  14.681   0.599
80592SOL    HW143615  13.858  14.700   0.622
80592SOL    HW243616  13.719  14.692   0.681
80593SOL     OW43617   3.039  13.618   0.964
80593SOL    HW143618   3.025  13.713   0.955
80593SOL    HW243619   3.096  13.596   0.890
80594SOL     OW43620   6.390   3.307   2.241
80594SOL    HW143621   6.391   3.401   2.225
80594SOL    HW243622   6.453   3.294   2.312
80595SOL     OW43623  14.240   3.451   1.483
80595SOL    HW143624  14.290   3.451   1.401
80595SOL    HW243625  14.252   3.363   1.519
80596SOL     OW43626  10.356   9.990   4.579
80596SOL    HW143627  10.315   9.908   4.552
80596SOL    HW243628  10.304  10.019   4.654
80597SOL     OW43629   3.324   8.468   0.738
80597SOL    HW143630   3.285   8.547   0.701
80597SOL    HW243631   3.257   8.401   0.728
80598SOL     OW43632  13.654   6.276   0.838
80598SOL    HW143633  13.700   6.297   0.757
80598SOL    HW243634  13.597   6.351   0.854
80599SOL     OW43635   7.669  10.651   7.992
80599SOL    HW143636   7.591  10.619   7.947
80599SOL    HW243637   7.666  10.746   7.979
80600SOL     OW43638   7.955  11.567  13.962
80600SOL    HW143639   7.982  11.499  13.900
80600SOL    HW243640   7.888  11.617  13.915
80601SOL     OW43641   8.126   1.878   1.830
80601SOL    HW143642   8.096   1.938   1.898
80601SOL    HW243643   8.174   1.810   1.878
80602SOL     OW43644  12.183   3.499   2.318
80602SOL    HW143645  12.197   3.588   2.351
80602SOL    HW243646  12.134   3.511   2.237
80603SOL     OW43647   0.355   4.750  10.050
80603SOL    HW143648   0.390   4.756   9.961
80603SOL    HW243649   0.332   4.658  10.061
80604SOL     OW43650  12.092   9.777   8.244
80604SOL    HW143651  12.095   9.872   8.232
80604SOL    HW243652  12.040   9.764   8.323
80605SOL     OW43653   2.571   8.131  11.182
80605SOL    HW143654   2.517   8.125  11.103
80605SOL    HW243655   2.645   8.186  11.158
80606SOL     OW43656   6.254  12.428  11.536
80606SOL    HW143657   6.312  12.449  11.608
80606SOL    HW243658   6.282  12.485  11.464
80607SOL     OW43659   1.633   6.962   8.879
80607SOL    HW143660   1.564   7.010   8.925
80607SOL    HW243661   1.589   6.924   8.803
80608SOL     OW43662  14.083  12.947   5.129
80608SOL    HW143663  14.015  12.882   5.112
80608SOL    HW243664  14.042  13.031   5.106
80609SOL     OW43665  10.320   9.600   9.843
80609SOL    HW143666  10.326   9.694   9.862
80609SOL    HW243667  10.327   9.558   9.929
80610SOL     OW43668   4.225   5.552  11.118
80610SOL    HW143669   4.139   5.509  11.123
80610SOL    HW243670   4.256   5.552  11.208
80611SOL     OW43671   1.906  10.412   7.919
80611SOL    HW143672   1.911  10.457   8.003
80611SOL    HW243673   1.976  10.348   7.921
80612SOL     OW43674   3.945   2.488  12.939
80612SOL    HW143675   3.906   2.548  13.002
80612SOL    HW243676   4.038   2.512  12.937
80613SOL     OW43677  10.714   1.884   3.441
80613SOL    HW143678  10.688   1.822   3.509
80613SOL    HW243679  10.698   1.838   3.359
80614SOL     OW43680  11.887   9.022  10.729
80614SOL    HW143681  11.937   9.103  10.729
80614SOL    HW243682  11.938   8.963  10.673
80615SOL     OW43683  11.607   8.891  11.823
80615SOL    HW143684  11.671   8.888  11.752
80615SOL    HW243685  11.587   8.799  11.841
80616SOL     OW43686  10.952   5.768   8.812
80616SOL    HW143687  10.871   5.806   8.778
80616SOL    HW243688  10.980   5.707   8.744
80617SOL     OW43689  11.521   4.376   2.832
80617SOL    HW143690  11.497   4.407   2.745
80617SOL    HW243691  11.611   4.405   2.845
80618SOL     OW43692   7.404   5.503  10.554
80618SOL    HW143693   7.383   5.594  10.531
80618SOL    HW243694   7.421   5.505  10.648
80619SOL     OW43695  14.221  10.694   1.988
80619SOL    HW143696  14.308  10.668   1.959
80619SOL    HW243697  14.233  10.725   2.078
80620SOL     OW43698   9.001  11.262   6.731
80620SOL    HW143699   8.930  11.198   6.717
80620SOL    HW243700   8.957  11.338   6.768
80621SOL     OW43701   4.382   8.131   8.442
80621SOL    HW143702   4.456   8.072   8.458
80621SOL    HW243703   4.411   8.186   8.369
80622SOL     OW43704  10.995  14.175   1.224
80622SOL    HW143705  11.016  14.154   1.133
80622SOL    HW243706  11.080  14.184   1.266
80623SOL     OW43707   1.601   1.436   8.443
80623SOL    HW143708   1.529   1.374   8.457
80623SOL    HW243709   1.647   1.402   8.367
80624SOL     OW43710  11.213   5.265   2.512
80624SOL    HW143711  11.143   5.308   2.463
80624SOL    HW243712  11.217   5.312   2.595
80625SOL     OW43713   5.890  14.374   6.411
80625SOL    HW143714   5.824  14.311   6.441
80625SOL    HW243715   5.971  14.346   6.453
80626SOL     OW43716   7.298   2.329   8.889
80626SOL    HW143717   7.319   2.409   8.841
80626SOL    HW243718   7.245   2.278   8.828
80627SOL     OW43719  13.634   3.715   8.712
80627SOL    HW143720  13.683   3.639   8.743
80627SOL    HW243721  13.676   3.739   8.630
80628SOL     OW43722   6.349   0.317  12.778
80628SOL    HW143723   6.255   0.331  12.789
80628SOL    HW243724   6.371   0.366  12.699
80629SOL     OW43725   6.403   9.696   9.972
80629SOL    HW143726   6.325   9.700   9.916
80629SOL    HW243727   6.368   9.684  10.060
80630SOL     OW43728   1.939  14.506  10.104
80630SOL    HW143729   1.938  14.410  10.098
80630SOL    HW243730   1.872  14.534  10.042
80631SOL     OW43731   9.934   3.637  10.060
80631SOL    HW143732  10.023   3.672  10.064
80631SOL    HW243733   9.944   3.547  10.031
80632SOL     OW43734   1.350   3.824  14.772
80632SOL    HW143735   1.365   3.918  14.766
80632SOL    HW243736   1.397   3.797  14.850
80633SOL     OW43737   2.055   8.514  12.818
80633SOL    HW143738   2.150   8.526  12.820
80633SOL    HW243739   2.043   8.420  12.827
80634SOL     OW43740  13.292   8.441   3.024
80634SOL    HW143741  13.313   8.396   3.106
80634SOL    HW243742  13.377   8.450   2.980
80635SOL     OW43743  11.987   2.889  12.271
80635SOL    HW143744  11.989   2.982  12.294
80635SOL    HW243745  12.075   2.857  12.290
80636SOL     OW43746   9.786   4.202  12.265
80636SOL    HW143747   9.733   4.196  12.185
80636SOL    HW243748   9.790   4.113  12.298
80637SOL     OW43749   1.805   2.574   3.072
80637SOL    HW143750   1.826   2.556   3.164
80637SOL    HW243751   1.881   2.619   3.038
80638SOL     OW43752   4.922   1.529  11.790
80638SOL    HW143753   4.903   1.487  11.706
80638SOL    HW243754   4.997   1.480  11.825
80639SOL     OW43755   6.037   8.420   5.288
80639SOL    HW143756   6.050   8.379   5.202
80639SOL    HW243757   5.990   8.354   5.339
80640SOL     OW43758   7.124   1.398  13.406
80640SOL    HW143759   7.155   1.472  13.355
80640SOL    HW243760   7.171   1.323  13.371
80641SOL     OW43761   4.815  10.413   1.775
80641SOL    HW143762   4.908  10.393   1.764
80641SOL    HW243763   4.775  10.329   1.796
80642SOL     OW43764   0.997   3.964   1.639
80642SOL    HW143765   1.015   4.056   1.658
80642SOL    HW243766   1.026   3.917   1.717
80643SOL     OW43767   7.810   3.390   8.963
80643SOL    HW143768   7.885   3.330   8.958
80643SOL    HW243769   7.743   3.340   9.009
80644SOL     OW43770   2.501  14.590   5.135
80644SOL    HW143771   2.517  14.551   5.049
80644SOL    HW243772   2.560  14.665   5.139
80645SOL     OW43773   5.638  13.176  11.183
80645SOL    HW143774   5.689  13.237  11.131
80645SOL    HW243775   5.594  13.120  11.118
80646SOL     OW43776  10.996  11.767   9.918
80646SOL    HW143777  11.076  11.715   9.928
80646SOL    HW243778  10.925  11.706   9.938
80647SOL     OW43779   8.191  12.273   5.048
80647SOL    HW143780   8.104  12.306   5.024
80647SOL    HW243781   8.173  12.200   5.108
80648SOL     OW43782   3.771   1.070  13.737
80648SOL    HW143783   3.763   0.990  13.685
80648SOL    HW243784   3.839   1.121  13.692
80649SOL     OW43785   9.512   3.546   3.738
80649SOL    HW143786   9.482   3.532   3.649
80649SOL    HW243787   9.455   3.490   3.792
80650SOL     OW43788   8.306  14.687   7.431
80650SOL    HW143789   8.256  14.632   7.370
80650SOL    HW243790   8.239  14.734   7.480
80651SOL     OW43791  13.834   7.045  12.818
80651SOL    HW143792  13.835   7.131  12.775
80651SOL    HW243793  13.823   6.983  12.747
80652SOL     OW43794  12.025   1.522   2.583
80652SOL    HW143795  12.077   1.595   2.615
80652SOL    HW243796  12.000   1.473   2.661
80653SOL     OW43797   6.064   0.102   4.284
80653SOL    HW143798   6.065   0.044   4.208
80653SOL    HW243799   6.111   0.181   4.254
80654SOL     OW43800   0.435   0.780  14.129
80654SOL    HW143801   0.407   0.817  14.045
80654SOL    HW243802   0.354   0.749  14.169
80655SOL     OW43803   4.907  10.160   7.768
80655SOL    HW143804   4.903  10.179   7.675
80655SOL    HW243805   4.859  10.078   7.778
80656SOL     OW43806   3.843   3.684   3.795
80656SOL    HW143807   3.922   3.734   3.773
80656SOL    HW243808   3.778   3.751   3.818
80657SOL     OW43809   5.509   9.555   2.003
80657SOL    HW143810   5.536   9.480   2.056
80657SOL    HW243811   5.424   9.581   2.040
80658SOL     OW43812   7.275   4.255   9.583
80658SOL    HW143813   7.328   4.232   9.506
80658SOL    HW243814   7.284   4.180   9.641
80659SOL     OW43815  14.650  12.722  14.195
80659SOL    HW143816  14.694  12.793  14.147
80659SOL    HW243817  14.632  12.656  14.128
80660SOL     OW43818   8.763  11.464   0.556
80660SOL    HW143819   8.693  11.413   0.516
80660SOL    HW243820   8.822  11.399   0.594
80661SOL     OW43821   3.222   2.312   8.326
80661SOL    HW143822   3.252   2.389   8.279
80661SOL    HW243823   3.154   2.345   8.385
80662SOL     OW43824   4.243   7.597   7.166
80662SOL    HW143825   4.233   7.657   7.091
80662SOL    HW243826   4.203   7.515   7.136
80663SOL     OW43827  11.408  12.381   1.015
80663SOL    HW143828  11.382  12.457   1.067
80663SOL    HW243829  11.503  12.388   1.008
80664SOL     OW43830  13.671   2.124   3.680
80664SOL    HW143831  13.602   2.060   3.660
80664SOL    HW243832  13.632   2.182   3.745
80665SOL     OW43833  10.258  12.594   4.779
80665SOL    HW143834  10.337  12.648   4.789
80665SOL    HW243835  10.272  12.522   4.840
80666SOL     OW43836   0.797   7.980   5.075
80666SOL    HW143837   0.849   8.060   5.066
80666SOL    HW243838   0.716   7.999   5.028
80667SOL     OW43839   7.195   9.676   5.574
80667SOL    HW143840   7.259   9.616   5.612
80667SOL    HW243841   7.180   9.643   5.486
80668SOL     OW43842  11.479   2.283   6.128
80668SOL    HW143843  11.431   2.204   6.102
80668SOL    HW243844  11.479   2.280   6.224
80669SOL     OW43845   6.657  11.689  12.463
80669SOL    HW143846   6.672  11.775  12.423
80669SOL    HW243847   6.745  11.655  12.481
80670SOL     OW43848   2.166  13.259   9.791
80670SOL    HW143849   2.226  13.204   9.741
80670SOL    HW243850   2.203  13.347   9.785
80671SOL     OW43851   2.214  12.965   2.592
80671SOL    HW143852   2.150  12.901   2.560
80671SOL    HW243853   2.175  13.001   2.671
80672SOL     OW43854  13.241  14.600  13.361
80672SOL    HW143855  13.328  14.560  13.355
80672SOL    HW243856  13.232  14.651  13.281
80673SOL     OW43857   9.660   1.883   1.950
80673SOL    HW143858   9.704   1.805   1.915
80673SOL    HW243859   9.613   1.920   1.875
80674SOL     OW43860   8.379  10.985   5.979
80674SOL    HW143861   8.298  10.953   6.018
80674SOL    HW243862   8.353  11.063   5.929
80675SOL     OW43863   8.616   1.123   8.806
80675SOL    HW143864   8.704   1.154   8.782
80675SOL    HW243865   8.563   1.141   8.728
80676SOL     OW43866  14.104   9.331   4.545
80676SOL    HW143867  14.027   9.323   4.488
80676SOL    HW243868  14.103   9.252   4.599
80677SOL     OW43869   9.344  14.864   7.112
80677SOL    HW143870   9.363  14.834   7.201
80677SOL    HW243871   9.327  14.784   7.062
80678SOL     OW43872   2.727  12.210  13.271
80678SOL    HW143873   2.765  12.124  13.288
80678SOL    HW243874   2.684  12.201  13.185
80679SOL     OW43875   0.255  10.535   6.586
80679SOL    HW143876   0.298  10.504   6.666
80679SOL    HW243877   0.171  10.489   6.584
80680SOL     OW43878   8.522  11.084  13.146
80680SOL    HW143879   8.592  11.119  13.199
80680SOL    HW243880   8.513  10.992  13.174
80681SOL     OW43881   4.553   7.091  14.800
80681SOL    HW143882   4.580   7.018  14.857
80681SOL    HW243883   4.458   7.087  14.800
80682SOL     OW43884   2.885   9.072   2.835
80682SOL    HW143885   2.808   9.027   2.801
80682SOL    HW243886   2.865   9.084   2.928
80683SOL     OW43887   4.008   9.846  10.877
80683SOL    HW143888   3.980   9.834  10.968
80683SOL    HW243889   3.927   9.862  10.829
80684SOL     OW43890  12.147   4.249   3.904
80684SOL    HW143891  12.205   4.324   3.905
80684SOL    HW243892  12.192   4.184   3.849
80685SOL     OW43893   9.106   0.616   1.069
80685SOL    HW143894   9.111   0.526   1.103
80685SOL    HW243895   9.141   0.610   0.981
80686SOL     OW43896   3.347  10.799  12.734
80686SOL    HW143897   3.278  10.823  12.796
80686SOL    HW243898   3.309  10.727  12.682
80687SOL     OW43899  10.178   1.491   1.503
80687SOL    HW143900  10.216   1.492   1.415
80687SOL    HW243901  10.222   1.563   1.548
80688SOL     OW43902   9.953   8.803   2.581
80688SOL    HW143903   9.902   8.851   2.646
80688SOL    HW243904   9.888   8.773   2.517
80689SOL     OW43905   1.042  10.014   3.235
80689SOL    HW143906   0.991  10.033   3.313
80689SOL    HW243907   1.128  10.053   3.251
80690SOL     OW43908  13.784   3.051   8.145
80690SOL    HW143909  13.690   3.032   8.154
80690SOL    HW243910  13.804   3.030   8.054
80691SOL     OW43911  10.434   3.138   3.602
80691SOL    HW143912  10.453   3.141   3.508
80691SOL    HW243913  10.345   3.172   3.610
80692SOL     OW43914  13.319   2.403   3.219
80692SOL    HW143915  13.235   2.357   3.220
80692SOL    HW243916  13.297   2.493   3.197
80693SOL     OW43917   8.373   7.882   1.781
80693SOL    HW143918   8.287   7.853   1.749
80693SOL    HW243919   8.432   7.810   1.761
80694SOL     OW43920  13.937   4.850   2.952
80694SOL    HW143921  13.918   4.845   2.858
80694SOL    HW243922  14.001   4.781   2.968
80695SOL     OW43923  12.396   2.691   4.149
80695SOL    HW143924  12.389   2.685   4.244
80695SOL    HW243925  12.472   2.748   4.134
80696SOL     OW43926  12.250   6.260  10.219
80696SOL    HW143927  12.312   6.320  10.260
80696SOL    HW243928  12.171   6.268  10.273
80697SOL     OW43929   1.012   4.735   2.524
80697SOL    HW143930   0.997   4.829   2.524
80697SOL    HW243931   1.107   4.726   2.520
80698SOL     OW43932   3.442   5.248   2.666
80698SOL    HW143933   3.382   5.239   2.592
80698SOL    HW243934   3.514   5.188   2.646
80699SOL     OW43935   8.729   4.335   6.444
80699SOL    HW143936   8.750   4.424   6.472
80699SOL    HW243937   8.809   4.285   6.460
80700SOL     OW43938   1.215   3.129   1.296
80700SOL    HW143939   1.229   3.224   1.294
80700SOL    HW243940   1.248   3.099   1.211
80701SOL     OW43941   2.840  12.031   9.312
80701SOL    HW143942   2.761  11.979   9.299
80701SOL    HW243943   2.832  12.064   9.401
80702SOL     OW43944   4.024   5.218   3.687
80702SOL    HW143945   4.043   5.261   3.771
80702SOL    HW243946   3.969   5.144   3.710
80703SOL     OW43947   7.874   6.428  10.598
80703SOL    HW143948   7.878   6.361  10.666
80703SOL    HW243949   7.811   6.394  10.535
80704SOL     OW43950  10.167   1.993   4.628
80704SOL    HW143951  10.172   2.058   4.558
80704SOL    HW243952  10.139   2.043   4.704
80705SOL     OW43953   4.132   0.591   9.695
80705SOL    HW143954   4.131   0.509   9.744
80705SOL    HW243955   4.223   0.621   9.700
80706SOL     OW43956   8.422  13.948  10.170
80706SOL    HW143957   8.505  13.902  10.185
80706SOL    HW243958   8.387  13.962  10.258
80707SOL     OW43959   4.887   7.755  13.782
80707SOL    HW143960   4.953   7.785  13.720
80707SOL    HW243961   4.835   7.691  13.733
80708SOL     OW43962  11.065   9.531  12.278
80708SOL    HW143963  11.010   9.609  12.287
80708SOL    HW243964  11.081   9.523  12.184
80709SOL     OW43965  12.943   5.999   3.863
80709SOL    HW143966  12.883   6.040   3.800
80709SOL    HW243967  12.901   5.915   3.884
80710SOL     OW43968   7.787   4.604  14.633
80710SOL    HW143969   7.783   4.619  14.539
80710SOL    HW243970   7.852   4.536  14.645
80711SOL     OW43971  14.723   6.032   5.783
80711SOL    HW143972  14.647   6.077   5.819
80711SOL    HW243973  14.796   6.093   5.797
80712SOL     OW43974  12.810   0.004  13.899
80712SOL    HW143975  12.836   0.038  13.813
80712SOL    HW243976  12.715  14.873  13.893
80713SOL     OW43977  14.023   7.447   8.473
80713SOL    HW143978  13.945   7.410   8.515
80713SOL    HW243979  14.043   7.386   8.402
80714SOL     OW43980  14.875   0.452   8.654
80714SOL    HW143981  14.867   0.388   8.583
80714SOL    HW243982   0.016   0.535   8.609
80715SOL     OW43983   7.136  12.630   1.037
80715SOL    HW143984   7.176  12.715   1.059
80715SOL    HW243985   7.210  12.571   1.026
80716SOL     OW43986   7.454   3.939   0.618
80716SOL    HW143987   7.461   4.010   0.553
80716SOL    HW243988   7.369   3.899   0.600
80717SOL     OW43989   3.246   0.572   8.799
80717SOL    HW143990   3.182   0.519   8.753
80717SOL    HW243991   3.326   0.564   8.746
80718SOL     OW43992  14.446  12.870   7.897
80718SOL    HW143993  14.525  12.911   7.863
80718SOL    HW243994  14.417  12.811   7.827
80719SOL     OW43995   9.909  10.055   6.307
80719SOL    HW143996   9.833  10.089   6.355
80719SOL    HW243997   9.949   9.992   6.367
80720SOL     OW43998   1.827   0.618  12.346
80720SOL    HW143999   1.757   0.683  12.340
80720SOL    HW244000   1.907   0.667  12.326
80721SOL     OW44001  12.836   3.176   7.408
80721SOL    HW144002  12.809   3.124   7.332
80721SOL    HW244003  12.760   3.230   7.428
80722SOL     OW44004  12.060   9.372   6.398
80722SOL    HW144005  12.050   9.330   6.484
80722SOL    HW244006  12.154   9.379   6.386
80723SOL     OW44007   9.646   4.351   9.663
80723SOL    HW144008   9.643   4.333   9.757
80723SOL    HW244009   9.636   4.264   9.622
80724SOL     OW44010  11.333   4.810   8.526
80724SOL    HW144011  11.380   4.861   8.461
80724SOL    HW244012  11.272   4.757   8.475
80725SOL     OW44013   6.071   3.371  12.192
80725SOL    HW144014   6.144   3.397  12.136
80725SOL    HW244015   6.053   3.448  12.245
80726SOL     OW44016   3.894  11.183   4.827
80726SOL    HW144017   3.870  11.231   4.748
80726SOL    HW244018   3.896  11.249   4.896
80727SOL     OW44019   1.852   6.284   5.336
80727SOL    HW144020   1.888   6.370   5.359
80727SOL    HW244021   1.831   6.243   5.421
80728SOL     OW44022   6.806   6.701   5.502
80728SOL    HW144023   6.809   6.634   5.571
80728SOL    HW244024   6.807   6.784   5.550
80729SOL     OW44025   0.192   1.798  12.315
80729SOL    HW144026   0.210   1.866  12.249
80729SOL    HW244027   0.246   1.824  12.390
80730SOL     OW44028   9.213   8.658   6.502
80730SOL    HW144029   9.216   8.567   6.531
80730SOL    HW244030   9.173   8.705   6.575
80731SOL     OW44031   7.272   9.711   6.263
80731SOL    HW144032   7.333   9.702   6.336
80731SOL    HW244033   7.324   9.748   6.192
80732SOL     OW44034   9.996   0.022   4.674
80732SOL    HW144035   9.971   0.016   4.582
80732SOL    HW244036   9.913   0.020   4.722
80733SOL     OW44037  10.564   1.476   6.456
80733SOL    HW144038  10.540   1.398   6.407
80733SOL    HW244039  10.591   1.539   6.390
80734SOL     OW44040  10.054  13.238   2.260
80734SOL    HW144041  10.121  13.174   2.237
80734SOL    HW244042  10.080  13.268   2.347
80735SOL     OW44043   7.353   2.554   9.986
80735SOL    HW144044   7.338   2.518   9.899
80735SOL    HW244045   7.385   2.643   9.971
80736SOL     OW44046  11.453  12.414  10.123
80736SOL    HW144047  11.394  12.384  10.054
80736SOL    HW244048  11.433  12.357  10.197
80737SOL     OW44049   8.256   6.503   1.392
80737SOL    HW144050   8.232   6.549   1.472
80737SOL    HW244051   8.182   6.444   1.374
80738SOL     OW44052   7.197  13.961   8.438
80738SOL    HW144053   7.281  13.917   8.453
80738SOL    HW244054   7.148  13.901   8.382
80739SOL     OW44055  10.898  11.564   2.955
80739SOL    HW144056  10.828  11.621   2.923
80739SOL    HW244057  10.893  11.486   2.900
80740SOL     OW44058  11.000   2.127   7.610
80740SOL    HW144059  11.090   2.104   7.634
80740SOL    HW244060  11.008   2.212   7.567
80741SOL     OW44061   7.269   8.163   7.350
80741SOL    HW144062   7.291   8.103   7.422
80741SOL    HW244063   7.247   8.105   7.277
80742SOL     OW44064   9.028   7.046   6.181
80742SOL    HW144065   8.958   7.111   6.191
80742SOL    HW244066   8.984   6.962   6.193
80743SOL     OW44067   9.660   9.914  14.703
80743SOL    HW144068   9.597   9.983  14.726
80743SOL    HW244069   9.688   9.936  14.614
80744SOL     OW44070   7.505   1.362   1.849
80744SOL    HW144071   7.529   1.453   1.866
80744SOL    HW244072   7.565   1.334   1.780
80745SOL     OW44073  14.173  11.233   7.283
80745SOL    HW144074  14.091  11.187   7.300
80745SOL    HW244075  14.222  11.226   7.366
80746SOL     OW44076  10.518   3.549   9.835
80746SOL    HW144077  10.503   3.456   9.821
80746SOL    HW244078  10.464   3.593   9.769
80747SOL     OW44079   0.910   6.456   9.221
80747SOL    HW144080   0.821   6.444   9.254
80747SOL    HW244081   0.931   6.374   9.177
80748SOL     OW44082   8.010  13.398   6.122
80748SOL    HW144083   8.035  13.371   6.034
80748SOL    HW244084   7.917  13.422   6.114
80749SOL     OW44085   9.944  12.417   4.233
80749SOL    HW144086   9.917  12.463   4.313
80749SOL    HW244087  10.023  12.370   4.258
80750SOL     OW44088   7.889   3.268  12.873
80750SOL    HW144089   7.832   3.211  12.821
80750SOL    HW244090   7.850   3.355  12.864
80751SOL     OW44091   7.822  11.219   5.391
80751SOL    HW144092   7.747  11.197   5.447
80751SOL    HW244093   7.863  11.135   5.372
80752SOL     OW44094   0.660   1.206   0.081
80752SOL    HW144095   0.640   1.156   0.160
80752SOL    HW244096   0.705   1.144   0.025
80753SOL     OW44097   3.667   5.489  12.785
80753SOL    HW144098   3.629   5.504  12.699
80753SOL    HW244099   3.615   5.418  12.823
80754SOL     OW44100   6.137   2.351   1.646
80754SOL    HW144101   6.169   2.314   1.728
80754SOL    HW244102   6.203   2.417   1.623
80755SOL     OW44103   3.200   6.389  11.207
80755SOL    HW144104   3.237   6.405  11.295
80755SOL    HW244105   3.258   6.438  11.148
80756SOL     OW44106   4.704  11.831   5.466
80756SOL    HW144107   4.665  11.800   5.385
80756SOL    HW244108   4.739  11.751   5.507
80757SOL     OW44109   3.385   9.880  14.399
80757SOL    HW144110   3.304   9.890  14.449
80757SOL    HW244111   3.449   9.933  14.446
80758SOL     OW44112  10.246  10.955  10.336
80758SOL    HW144113  10.252  10.878  10.279
80758SOL    HW244114  10.284  10.926  10.419
80759SOL     OW44115  12.139   3.632   0.856
80759SOL    HW144116  12.228   3.602   0.870
80759SOL    HW244117  12.084   3.567   0.901
80760SOL     OW44118   1.245   1.488   2.145
80760SOL    HW144119   1.210   1.402   2.169
80760SOL    HW244120   1.199   1.511   2.064
80761SOL     OW44121   5.285   5.179  11.118
80761SOL    HW144122   5.319   5.150  11.203
80761SOL    HW244123   5.235   5.258  11.138
80762SOL     OW44124  10.767   5.126  12.359
80762SOL    HW144125  10.703   5.055  12.367
80762SOL    HW244126  10.829   5.111  12.431
80763SOL     OW44127  14.229   8.181   9.802
80763SOL    HW144128  14.208   8.240   9.875
80763SOL    HW244129  14.147   8.173   9.753
80764SOL     OW44130   5.515   6.013  12.595
80764SOL    HW144131   5.568   5.939  12.565
80764SOL    HW244132   5.572   6.089  12.587
80765SOL     OW44133   3.995   7.307  13.506
80765SOL    HW144134   3.953   7.291  13.421
80765SOL    HW244135   4.048   7.386  13.491
80766SOL     OW44136   3.949  13.636  10.512
80766SOL    HW144137   3.947  13.543  10.531
80766SOL    HW244138   4.020  13.671  10.567
80767SOL     OW44139   7.638   8.381   0.359
80767SOL    HW144140   7.683   8.449   0.407
80767SOL    HW244141   7.577   8.343   0.422
80768SOL     OW44142  14.790   3.689   0.817
80768SOL    HW144143  14.736   3.752   0.771
80768SOL    HW244144  14.858   3.664   0.754
80769SOL     OW44145   9.043   5.038  10.637
80769SOL    HW144146   9.016   4.987  10.561
80769SOL    HW244147   9.139   5.033  10.637
80770SOL     OW44148  10.533  13.924   4.191
80770SOL    HW144149  10.483  13.879   4.259
80770SOL    HW244150  10.623  13.897   4.206
80771SOL     OW44151  10.421   8.412  11.853
80771SOL    HW144152  10.463   8.328  11.838
80771SOL    HW244153  10.464   8.471  11.791
80772SOL     OW44154  14.607   6.770  10.418
80772SOL    HW144155  14.551   6.776  10.495
80772SOL    HW244156  14.693   6.797  10.449
80773SOL     OW44157  12.854  14.164   8.369
80773SOL    HW144158  12.842  14.150   8.463
80773SOL    HW244159  12.889  14.081   8.337
80774SOL     OW44160  14.720   8.452   2.034
80774SOL    HW144161  14.672   8.476   1.955
80774SOL    HW244162  14.704   8.525   2.094
80775SOL     OW44163   5.527   2.190   6.388
80775SOL    HW144164   5.462   2.123   6.369
80775SOL    HW244165   5.505   2.263   6.330
80776SOL     OW44166   1.813   2.597   4.494
80776SOL    HW144167   1.874   2.655   4.450
80776SOL    HW244168   1.753   2.567   4.426
80777SOL     OW44169  12.219   1.206   1.457
80777SOL    HW144170  12.288   1.194   1.391
80777SOL    HW244171  12.146   1.244   1.408
80778SOL     OW44172   0.251   1.253  11.476
80778SOL    HW144173   0.314   1.182  11.462
80778SOL    HW244174   0.305   1.329  11.497
80779SOL     OW44175  13.353   4.817   4.918
80779SOL    HW144176  13.301   4.770   4.984
80779SOL    HW244177  13.409   4.874   4.970
80780SOL     OW44178  12.669   8.820   4.311
80780SOL    HW144179  12.722   8.837   4.233
80780SOL    HW244180  12.660   8.725   4.314
80781SOL     OW44181   5.892   4.456   2.123
80781SOL    HW144182   5.875   4.369   2.158
80781SOL    HW244183   5.870   4.449   2.030
80782SOL     OW44184   2.862  12.480   6.095
80782SOL    HW144185   2.905  12.552   6.049
80782SOL    HW244186   2.913  12.468   6.174
80783SOL     OW44187   6.185  13.843  11.278
80783SOL    HW144188   6.180  13.923  11.226
80783SOL    HW244189   6.154  13.868  11.365
80784SOL     OW44190  12.295   6.856   7.107
80784SOL    HW144191  12.318   6.940   7.147
80784SOL    HW244192  12.203   6.864   7.085
80785SOL     OW44193   3.545   5.054   8.875
80785SOL    HW144194   3.538   5.076   8.968
80785SOL    HW244195   3.635   5.077   8.852
80786SOL     OW44196  13.546   6.681   4.540
80786SOL    HW144197  13.491   6.759   4.530
80786SOL    HW244198  13.629   6.715   4.573
80787SOL     OW44199  13.528   5.079   4.830
80787SOL    HW144200  13.489   5.155   4.786
80787SOL    HW244201  13.580   5.037   4.763
80788SOL     OW44202  14.144  12.038   4.613
80788SOL    HW144203  14.194  12.117   4.589
80788SOL    HW244204  14.114  12.002   4.530
80789SOL     OW44205  10.305  10.533  12.225
80789SOL    HW144206  10.374  10.468  12.210
80789SOL    HW244207  10.267  10.509  12.309
80790SOL     OW44208   5.955   8.102   2.167
80790SOL    HW144209   5.875   8.142   2.132
80790SOL    HW244210   5.967   8.144   2.252
80791SOL     OW44211  12.341  10.258   9.342
80791SOL    HW144212  12.384  10.236   9.424
80791SOL    HW244213  12.291  10.179   9.319
80792SOL     OW44214   9.695   3.329  11.250
80792SOL    HW144215   9.781   3.368  11.268
80792SOL    HW244216   9.660   3.382  11.178
80793SOL     OW44217   4.350   7.312  12.791
80793SOL    HW144218   4.327   7.404  12.774
80793SOL    HW244219   4.272   7.263  12.767
80794SOL     OW44220   5.321   3.960   3.845
80794SOL    HW144221   5.267   4.022   3.797
80794SOL    HW244222   5.259   3.910   3.898
80795SOL     OW44223  14.415   4.646  14.100
80795SOL    HW144224  14.501   4.625  14.136
80795SOL    HW244225  14.362   4.568  14.118
80796SOL     OW44226  13.813   9.939   9.951
80796SOL    HW144227  13.899   9.946   9.993
80796SOL    HW244228  13.820   9.864   9.893
80797SOL     OW44229   7.068   4.184   2.786
80797SOL    HW144230   7.131   4.125   2.827
80797SOL    HW244231   7.008   4.126   2.739
80798SOL     OW44232   2.357  14.725  10.667
80798SOL    HW144233   2.283  14.696  10.614
80798SOL    HW244234   2.434  14.691  10.621
80799SOL     OW44235   4.220  10.951   7.061
80799SOL    HW144236   4.267  10.871   7.039
80799SOL    HW244237   4.127  10.928   7.052
80800SOL     OW44238   7.302   3.049   6.313
80800SOL    HW144239   7.358   3.030   6.238
80800SOL    HW244240   7.213   3.041   6.279
80801SOL     OW44241   9.658   2.314   9.532
80801SOL    HW144242   9.595   2.335   9.463
80801SOL    HW244243   9.658   2.391   9.589
80802SOL     OW44244   3.371   0.240  14.321
80802SOL    HW144245   3.413   0.320  14.353
80802SOL    HW244246   3.371   0.181  14.397
80803SOL     OW44247   8.785   7.534   7.718
80803SOL    HW144248   8.798   7.625   7.694
80803SOL    HW244249   8.828   7.484   7.649
80804SOL     OW44250   0.356   7.073   9.572
80804SOL    HW144251   0.418   7.019   9.523
80804SOL    HW244252   0.360   7.040   9.662
80805SOL     OW44253   4.744   7.966   2.606
80805SOL    HW144254   4.784   8.029   2.666
80805SOL    HW244255   4.715   7.894   2.663
80806SOL     OW44256  11.049   9.100   4.196
80806SOL    HW144257  10.995   9.107   4.276
80806SOL    HW244258  11.061   9.006   4.184
80807SOL     OW44259   1.452  12.484   8.755
80807SOL    HW144260   1.544  12.483   8.729
80807SOL    HW244261   1.403  12.484   8.672
80808SOL     OW44262  13.049  12.136   8.965
80808SOL    HW144263  12.988  12.209   8.978
80808SOL    HW244264  12.992  12.059   8.959
80809SOL     OW44265  11.340  14.497   2.979
80809SOL    HW144266  11.361  14.409   2.946
80809SOL    HW244267  11.376  14.498   3.068
80810SOL     OW44268   5.783   0.619   7.520
80810SOL    HW144269   5.773   0.689   7.584
80810SOL    HW244270   5.738   0.544   7.558
80811SOL     OW44271   2.611   6.246  14.844
80811SOL    HW144272   2.558   6.200  14.779
80811SOL    HW244273   2.676   6.181  14.871
80812SOL     OW44274  12.853  13.634   6.175
80812SOL    HW144275  12.858  13.672   6.087
80812SOL    HW244276  12.834  13.542   6.160
80813SOL     OW44277  12.448   4.112   1.059
80813SOL    HW144278  12.471   4.196   1.099
80813SOL    HW244279  12.361   4.126   1.022
80814SOL     OW44280  14.120   2.856   4.086
80814SOL    HW144281  14.087   2.781   4.136
80814SOL    HW244282  14.179   2.901   4.146
80815SOL     OW44283  11.766   5.978   3.955
80815SOL    HW144284  11.815   6.003   3.877
80815SOL    HW244285  11.831   5.975   4.025
80816SOL     OW44286   8.812   3.913  13.178
80816SOL    HW144287   8.897   3.913  13.220
80816SOL    HW244288   8.789   4.006  13.171
80817SOL     OW44289  10.666  10.626  12.495
80817SOL    HW144290  10.632  10.674  12.420
80817SOL    HW244291  10.729  10.564  12.458
80818SOL     OW44292   1.624   7.740   0.682
80818SOL    HW144293   1.574   7.728   0.762
80818SOL    HW244294   1.693   7.673   0.686
80819SOL     OW44295   7.498  13.363   5.284
80819SOL    HW144296   7.442  13.324   5.351
80819SOL    HW244297   7.530  13.289   5.233
80820SOL     OW44298   5.365   5.516   6.489
80820SOL    HW144299   5.456   5.533   6.514
80820SOL    HW244300   5.313   5.567   6.551
80821SOL     OW44301  10.039   6.920  13.465
80821SOL    HW144302  10.122   6.953  13.498
80821SOL    HW244303  10.024   6.839  13.513
80822SOL     OW44304   7.860   4.027   8.328
80822SOL    HW144305   7.799   4.063   8.264
80822SOL    HW244306   7.822   3.943   8.353
80823SOL     OW44307   2.889   8.455   8.001
80823SOL    HW144308   2.973   8.474   8.043
80823SOL    HW244309   2.873   8.529   7.943
80824SOL     OW44310   8.273   0.474   4.630
80824SOL    HW144311   8.272   0.553   4.576
80824SOL    HW244312   8.232   0.500   4.712
80825SOL     OW44313   7.709  10.253   5.111
80825SOL    HW144314   7.687  10.345   5.100
80825SOL    HW244315   7.632  10.214   5.152
80826SOL     OW44316  12.430   6.101   6.453
80826SOL    HW144317  12.479   6.022   6.431
80826SOL    HW244318  12.475   6.136   6.530
80827SOL     OW44319   7.294   7.812   0.743
80827SOL    HW144320   7.271   7.722   0.720
80827SOL    HW244321   7.387   7.820   0.721
80828SOL     OW44322   2.533   2.448   8.694
80828SOL    HW144323   2.619   2.417   8.664
80828SOL    HW244324   2.472   2.416   8.627
80829SOL     OW44325   0.300   3.888  12.067
80829SOL    HW144326   0.377   3.943  12.085
80829SOL    HW244327   0.301   3.823  12.137
80830SOL     OW44328  13.643   9.497   0.002
80830SOL    HW144329  13.611   9.548  14.804
80830SOL    HW244330  13.736   9.518   0.006
80831SOL     OW44331  11.776   1.858   4.187
80831SOL    HW144332  11.745   1.774   4.151
80831SOL    HW244333  11.782   1.916   4.111
80832SOL     OW44334  14.214   7.446   1.780
80832SOL    HW144335  14.298   7.404   1.798
80832SOL    HW244336  14.150   7.375   1.776
80833SOL     OW44337   4.191   1.479  13.885
80833SOL    HW144338   4.132   1.528  13.943
80833SOL    HW244339   4.133   1.440  13.819
80834SOL     OW44340   9.369   5.219   8.769
80834SOL    HW144341   9.426   5.146   8.742
80834SOL    HW244342   9.429   5.286   8.800
80835SOL     OW44343  12.091   8.406   9.272
80835SOL    HW144344  12.022   8.355   9.231
80835SOL    HW244345  12.172   8.375   9.230
80836SOL     OW44346  11.278   8.139   0.905
80836SOL    HW144347  11.311   8.228   0.912
80836SOL    HW244348  11.251   8.131   0.813
80837SOL     OW44349   7.090   4.788  12.785
80837SOL    HW144350   7.131   4.761  12.702
80837SOL    HW244351   7.080   4.883  12.777
80838SOL     OW44352   3.025  11.290   8.850
80838SOL    HW144353   2.996  11.201   8.829
80838SOL    HW244354   3.093  11.309   8.786
80839SOL     OW44355   8.241  14.460   4.162
80839SOL    HW144356   8.262  14.546   4.198
80839SOL    HW244357   8.149  14.446   4.185
80840SOL     OW44358   9.497   0.198  13.730
80840SOL    HW144359   9.505   0.266  13.662
80840SOL    HW244360   9.483   0.247  13.811
80841SOL     OW44361   7.117   2.542   7.851
80841SOL    HW144362   7.124   2.581   7.938
80841SOL    HW244363   7.052   2.472   7.861
80842SOL     OW44364   3.035   3.349  12.829
80842SOL    HW144365   3.120   3.375  12.864
80842SOL    HW244366   2.978   3.344  12.906
80843SOL     OW44367   9.702   5.733   8.376
80843SOL    HW144368   9.732   5.747   8.286
80843SOL    HW244369   9.631   5.795   8.388
80844SOL     OW44370   3.647   5.799  13.797
80844SOL    HW144371   3.585   5.871  13.801
80844SOL    HW244372   3.716   5.823  13.859
80845SOL     OW44373   1.990  14.250  13.170
80845SOL    HW144374   2.040  14.291  13.099
80845SOL    HW244375   1.980  14.159  13.142
80846SOL     OW44376   9.006  12.341   2.516
80846SOL    HW144377   8.919  12.300   2.516
80846SOL    HW244378   9.064  12.273   2.550
80847SOL     OW44379   1.772   3.783  10.640
80847SOL    HW144380   1.797   3.708  10.693
80847SOL    HW244381   1.710   3.747  10.576
80848SOL     OW44382   9.632   0.413   8.448
80848SOL    HW144383   9.600   0.418   8.358
80848SOL    HW244384   9.564   0.364   8.494
80849SOL     OW44385  14.833   9.437   4.009
80849SOL    HW144386   0.049   9.423   4.030
80849SOL    HW244387  14.833   9.501   3.938
80850SOL     OW44388   9.573   3.175  11.477
80850SOL    HW144389   9.489   3.220  11.481
80850SOL    HW244390   9.611   3.202  11.393
80851SOL     OW44391   4.879   8.326   4.141
80851SOL    HW144392   4.870   8.416   4.173
80851SOL    HW244393   4.886   8.273   4.220
80852SOL     OW44394   3.355   6.647   5.571
80852SOL    HW144395   3.365   6.664   5.664
80852SOL    HW244396   3.331   6.731   5.533
80853SOL     OW44397   4.127  14.095   9.665
80853SOL    HW144398   4.126  14.010   9.621
80853SOL    HW244399   4.220  14.119   9.669
80854SOL     OW44400   3.311   2.205   4.277
80854SOL    HW144401   3.286   2.185   4.367
80854SOL    HW244402   3.390   2.154   4.261
80855SOL     OW44403  13.640   7.545   0.717
80855SOL    HW144404  13.725   7.580   0.693
80855SOL    HW244405  13.589   7.622   0.744
80856SOL     OW44406   8.608   2.739   2.330
80856SOL    HW144407   8.556   2.780   2.398
80856SOL    HW244408   8.591   2.791   2.251
80857SOL     OW44409  14.401   3.675   2.039
80857SOL    HW144410  14.381   3.595   1.991
80857SOL    HW244411  14.421   3.740   1.971
80858SOL     OW44412  12.066   0.032   7.682
80858SOL    HW144413  12.045   0.078   7.601
80858SOL    HW244414  12.160   0.016   7.677
80859SOL     OW44415  14.816  11.407   1.575
80859SOL    HW144416  14.824  11.349   1.650
80859SOL    HW244417   0.005  11.376   1.512
80860SOL     OW44418   6.581   2.746   7.533
80860SOL    HW144419   6.549   2.752   7.623
80860SOL    HW244420   6.570   2.835   7.498
80861SOL     OW44421  13.678   5.688   4.311
80861SOL    HW144422  13.766   5.683   4.347
80861SOL    HW244423  13.690   5.687   4.216
80862SOL     OW44424   6.326  14.176  14.045
80862SOL    HW144425   6.368  14.136  14.121
80862SOL    HW244426   6.295  14.261  14.078
80863SOL     OW44427  12.068   9.347   4.399
80863SOL    HW144428  12.063   9.370   4.306
80863SOL    HW244429  12.129   9.274   4.403
80864SOL     OW44430  13.780   6.794   4.621
80864SOL    HW144431  13.852   6.732   4.630
80864SOL    HW244432  13.818   6.879   4.641
80865SOL     OW44433  10.516  13.676  12.383
80865SOL    HW144434  10.477  13.753  12.342
80865SOL    HW244435  10.443  13.618  12.402
80866SOL     OW44436   2.809   0.401  14.542
80866SOL    HW144437   2.758   0.338  14.593
80866SOL    HW244438   2.773   0.486  14.567
80867SOL     OW44439   1.232  14.700   9.962
80867SOL    HW144440   1.287  14.641   9.910
80867SOL    HW244441   1.271  14.786   9.950
80868SOL     OW44442   9.451   7.773  12.793
80868SOL    HW144443   9.520   7.800  12.853
80868SOL    HW244444   9.496   7.720  12.726
80869SOL     OW44445  13.300   4.884   1.499
80869SOL    HW144446  13.320   4.928   1.416
80869SOL    HW244447  13.288   4.956   1.562
80870SOL     OW44448  13.688  13.819   5.396
80870SOL    HW144449  13.723  13.888   5.340
80870SOL    HW244450  13.647  13.866   5.469
80871SOL     OW44451   5.962   8.668   0.779
80871SOL    HW144452   6.029   8.678   0.711
80871SOL    HW244453   6.010   8.640   0.857
80872SOL     OW44454   1.542   2.965  12.703
80872SOL    HW144455   1.540   3.060  12.688
80872SOL    HW244456   1.634   2.942  12.696
80873SOL     OW44457   6.900   1.406   0.533
80873SOL    HW144458   6.883   1.425   0.626
80873SOL    HW244459   6.990   1.435   0.519
80874SOL     OW44460   6.688   9.319   1.952
80874SOL    HW144461   6.620   9.351   2.011
80874SOL    HW244462   6.656   9.340   1.864
80875SOL     OW44463   4.853   7.975   0.164
80875SOL    HW144464   4.855   7.880   0.166
80875SOL    HW244465   4.944   8.001   0.151
80876SOL     OW44466   2.408  14.633  10.403
80876SOL    HW144467   2.329  14.583  10.422
80876SOL    HW244468   2.380  14.702  10.343
80877SOL     OW44469   6.357  13.545   3.438
80877SOL    HW144470   6.347  13.459   3.479
80877SOL    HW244471   6.297  13.543   3.363
80878SOL     OW44472   0.711   8.784   2.624
80878SOL    HW144473   0.767   8.843   2.574
80878SOL    HW244474   0.771   8.739   2.684
80879SOL     OW44475   7.823  14.234   5.607
80879SOL    HW144476   7.823  14.292   5.531
80879SOL    HW244477   7.737  14.192   5.606
80880SOL     OW44478   2.760   7.277  10.509
80880SOL    HW144479   2.720   7.356  10.545
80880SOL    HW244480   2.703   7.206  10.539
80881SOL     OW44481   4.382   4.644   9.799
80881SOL    HW144482   4.463   4.595   9.807
80881SOL    HW244483   4.409   4.736   9.807
80882SOL     OW44484   0.157   5.161   3.119
80882SOL    HW144485   0.074   5.125   3.148
80882SOL    HW244486   0.133   5.229   3.056
80883SOL     OW44487  13.242  10.560   4.288
80883SOL    HW144488  13.156  10.589   4.321
80883SOL    HW244489  13.296  10.555   4.367
80884SOL     OW44490   0.933   6.193   8.431
80884SOL    HW144491   1.004   6.242   8.390
80884SOL    HW244492   0.977   6.126   8.484
80885SOL     OW44493   7.873   0.740   5.214
80885SOL    HW144494   7.822   0.768   5.138
80885SOL    HW244495   7.821   0.766   5.290
80886SOL     OW44496   9.018   8.846  13.403
80886SOL    HW144497   8.975   8.762  13.389
80886SOL    HW244498   8.993   8.898  13.327
80887SOL     OW44499   7.119  13.596  13.216
80887SOL    HW144500   7.136  13.689  13.202
80887SOL    HW244501   7.148  13.580  13.306
80888SOL     OW44502   2.614   1.480  13.512
80888SOL    HW144503   2.642   1.441  13.594
80888SOL    HW244504   2.644   1.420  13.444
80889SOL     OW44505  14.469   9.393   8.129
80889SOL    HW144506  14.442   9.457   8.063
80889SOL    HW244507  14.465   9.442   8.211
80890SOL     OW44508  10.698   8.076   9.521
80890SOL    HW144509  10.641   8.029   9.460
80890SOL    HW244510  10.731   8.151   9.470
80891SOL     OW44511   7.874  12.987   9.576
80891SOL    HW144512   7.842  13.010   9.489
80891SOL    HW244513   7.924  13.063   9.605
80892SOL     OW44514   4.333   4.714   4.277
80892SOL    HW144515   4.336   4.663   4.197
80892SOL    HW244516   4.404   4.679   4.331
80893SOL     OW44517   7.660   0.632  10.869
80893SOL    HW144518   7.661   0.593  10.957
80893SOL    HW244519   7.738   0.688  10.868
80894SOL     OW44520   2.832   7.094   4.619
80894SOL    HW144521   2.805   7.181   4.649
80894SOL    HW244522   2.922   7.105   4.590
80895SOL     OW44523   6.942   1.983   6.095
80895SOL    HW144524   6.885   1.911   6.121
80895SOL    HW244525   6.977   2.017   6.178
80896SOL     OW44526   2.923   9.380   4.577
80896SOL    HW144527   2.845   9.376   4.521
80896SOL    HW244528   2.959   9.467   4.561
80897SOL     OW44529  14.194  10.921  10.025
80897SOL    HW144530  14.219  10.900   9.935
80897SOL    HW244531  14.227  10.847  10.077
80898SOL     OW44532   3.005   7.551   3.447
80898SOL    HW144533   2.921   7.595   3.458
80898SOL    HW244534   3.062   7.591   3.513
80899SOL     OW44535   0.974  10.569   7.632
80899SOL    HW144536   1.020  10.579   7.715
80899SOL    HW244537   1.043  10.553   7.568
80900SOL     OW44538   2.591  10.748   6.816
80900SOL    HW144539   2.660  10.707   6.867
80900SOL    HW244540   2.516  10.689   6.824
80901SOL     OW44541   1.184   7.149   8.205
80901SOL    HW144542   1.248   7.155   8.276
80901SOL    HW244543   1.140   7.233   8.205
80902SOL     OW44544   8.951   2.184  13.241
80902SOL    HW144545   9.044   2.191  13.221
80902SOL    HW244546   8.910   2.156  13.159
80903SOL     OW44547   0.665  14.380  10.952
80903SOL    HW144548   0.635  14.352  10.865
80903SOL    HW244549   0.743  14.327  10.968
80904SOL     OW44550   4.067   3.583   4.725
80904SOL    HW144551   4.106   3.621   4.646
80904SOL    HW244552   3.995   3.530   4.693
80905SOL     OW44553   1.696   4.580   5.391
80905SOL    HW144554   1.685   4.491   5.424
80905SOL    HW244555   1.743   4.626   5.461
80906SOL     OW44556  12.540   8.995  10.650
80906SOL    HW144557  12.620   8.960  10.690
80906SOL    HW244558  12.472   8.930  10.672
80907SOL     OW44559  10.761   0.004   9.013
80907SOL    HW144560  10.838   0.006   8.957
80907SOL    HW244561  10.690   0.039   8.958
80908SOL     OW44562   8.490   3.674  13.433
80908SOL    HW144563   8.427   3.713  13.494
80908SOL    HW244564   8.458   3.585  13.419
80909SOL     OW44565   3.945   3.507  10.723
80909SOL    HW144566   3.871   3.537  10.776
80909SOL    HW244567   4.004   3.465  10.786
80910SOL     OW44568   9.531  13.647   1.651
80910SOL    HW144569   9.438  13.669   1.649
80910SOL    HW244570   9.533  13.555   1.678
80911SOL     OW44571  13.615  12.255   5.610
80911SOL    HW144572  13.632  12.324   5.674
80911SOL    HW244573  13.660  12.178   5.644
80912SOL     OW44574   7.400   3.607   7.279
80912SOL    HW144575   7.437   3.696   7.280
80912SOL    HW244576   7.444   3.564   7.205
80913SOL     OW44577  11.040   2.558  10.128
80913SOL    HW144578  10.962   2.516  10.091
80913SOL    HW244579  11.069   2.499  10.197
80914SOL     OW44580   6.963   3.382  10.981
80914SOL    HW144581   6.960   3.298  10.935
80914SOL    HW244582   7.047   3.421  10.954
80915SOL     OW44583   8.880  12.293   8.226
80915SOL    HW144584   8.831  12.360   8.274
80915SOL    HW244585   8.913  12.339   8.148
80916SOL     OW44586   0.314   7.056   8.519
80916SOL    HW144587   0.345   7.039   8.430
80916SOL    HW244588   0.389   7.097   8.563
80917SOL     OW44589   8.297  11.544   7.327
80917SOL    HW144590   8.274  11.454   7.303
80917SOL    HW244591   8.214  11.591   7.327
80918SOL     OW44592   7.538   4.445   4.259
80918SOL    HW144593   7.611   4.505   4.274
80918SOL    HW244594   7.580   4.361   4.239
80919SOL     OW44595  11.737   8.466   2.242
80919SOL    HW144596  11.826   8.491   2.266
80919SOL    HW244597  11.690   8.464   2.325
80920SOL     OW44598   8.545   4.052   4.890
80920SOL    HW144599   8.453   4.075   4.880
80920SOL    HW244600   8.574   4.029   4.802
80921SOL     OW44601   6.766   1.575  14.852
80921SOL    HW144602   6.686   1.524  14.841
80921SOL    HW244603   6.811   1.534   0.050
80922SOL     OW44604   6.878   0.470   0.657
80922SOL    HW144605   6.872   0.546   0.600
80922SOL    HW244606   6.800   0.419   0.638
80923SOL     OW44607   5.938   2.491   4.741
80923SOL    HW144608   6.005   2.424   4.731
80923SOL    HW244609   5.884   2.483   4.663
80924SOL     OW44610   3.664  13.210   2.731
80924SOL    HW144611   3.605  13.284   2.716
80924SOL    HW244612   3.743  13.249   2.768
80925SOL     OW44613  14.678   9.262   8.662
80925SOL    HW144614  14.739   9.335   8.667
80925SOL    HW244615  14.639   9.257   8.750
80926SOL     OW44616  11.584   7.969  11.340
80926SOL    HW144617  11.618   7.991  11.253
80926SOL    HW244618  11.663   7.956  11.394
80927SOL     OW44619   5.580   5.030   1.309
80927SOL    HW144620   5.649   5.069   1.362
80927SOL    HW244621   5.561   5.095   1.241
80928SOL     OW44622   5.396   4.344  12.137
80928SOL    HW144623   5.430   4.322  12.223
80928SOL    HW244624   5.403   4.262  12.087
80929SOL     OW44625  12.612  10.702   8.638
80929SOL    HW144626  12.604  10.743   8.724
80929SOL    HW244627  12.567  10.761   8.578
80930SOL     OW44628   3.825   3.559   8.753
80930SOL    HW144629   3.840   3.587   8.663
80930SOL    HW244630   3.907   3.577   8.798
80931SOL     OW44631   1.790   6.818   9.824
80931SOL    HW144632   1.735   6.894   9.805
80931SOL    HW244633   1.729   6.750   9.853
80932SOL     OW44634   6.916  14.185  11.900
80932SOL    HW144635   6.890  14.221  11.815
80932SOL    HW244636   6.838  14.138  11.930
80933SOL     OW44637  13.262   5.074  11.055
80933SOL    HW144638  13.267   5.151  10.999
80933SOL    HW244639  13.243   5.108  11.142
80934SOL     OW44640  10.272  12.923   6.682
80934SOL    HW144641  10.290  12.973   6.603
80934SOL    HW244642  10.358  12.905   6.720
80935SOL     OW44643  11.369   4.507   9.595
80935SOL    HW144644  11.429   4.560   9.648
80935SOL    HW244645  11.422   4.480   9.520
80936SOL     OW44646   5.028   2.115   4.128
80936SOL    HW144647   5.046   2.203   4.160
80936SOL    HW244648   5.107   2.090   4.080
80937SOL     OW44649   2.398   7.949  14.720
80937SOL    HW144650   2.468   7.887  14.701
80937SOL    HW244651   2.317   7.904  14.694
80938SOL     OW44652  12.506  14.198  14.355
80938SOL    HW144653  12.565  14.161  14.421
80938SOL    HW244654  12.442  14.128  14.340
80939SOL     OW44655  12.603   9.743   8.806
80939SOL    HW144656  12.534   9.679   8.825
80939SOL    HW244657  12.678   9.713   8.858
80940SOL     OW44658  10.624   1.191   0.292
80940SOL    HW144659  10.665   1.261   0.342
80940SOL    HW244660  10.530   1.209   0.297
80941SOL     OW44661   8.363   9.519  12.354
80941SOL    HW144662   8.393   9.434  12.388
80941SOL    HW244663   8.268   9.508  12.342
80942SOL     OW44664   2.495   2.350   4.598
80942SOL    HW144665   2.437   2.287   4.556
80942SOL    HW244666   2.581   2.307   4.598
80943SOL     OW44667   7.686   5.114   3.430
80943SOL    HW144668   7.602   5.125   3.384
80943SOL    HW244669   7.686   5.182   3.497
80944SOL     OW44670   1.212   8.276  10.873
80944SOL    HW144671   1.169   8.328  10.805
80944SOL    HW244672   1.304   8.301  10.868
80945SOL     OW44673   1.915   1.539   9.498
80945SOL    HW144674   1.880   1.512   9.582
80945SOL    HW244675   1.981   1.604   9.519
80946SOL     OW44676  10.106   9.823   9.597
80946SOL    HW144677  10.012   9.807   9.604
80946SOL    HW244678  10.145   9.735   9.595
80947SOL     OW44679   4.214   3.674  10.986
80947SOL    HW144680   4.223   3.744  10.921
80947SOL    HW244681   4.159   3.608  10.944
80948SOL     OW44682  10.297   9.664   6.536
80948SOL    HW144683  10.282   9.736   6.597
80948SOL    HW244684  10.219   9.610   6.543
80949SOL     OW44685   7.241  14.181   1.928
80949SOL    HW144686   7.188  14.234   1.988
80949SOL    HW244687   7.249  14.235   1.849
80950SOL     OW44688   2.038   4.499  13.741
80950SOL    HW144689   1.949   4.501  13.775
80950SOL    HW244690   2.039   4.567  13.673
80951SOL     OW44691   6.861   5.967   3.782
80951SOL    HW144692   6.909   5.888   3.757
80951SOL    HW244693   6.772   5.937   3.798
80952SOL     OW44694  10.813   7.692   6.939
80952SOL    HW144695  10.832   7.620   6.998
80952SOL    HW244696  10.860   7.767   6.975
80953SOL     OW44697   3.729   5.090  14.394
80953SOL    HW144698   3.756   5.055  14.309
80953SOL    HW244699   3.663   5.155  14.373
80954SOL     OW44700   3.978  12.616  13.915
80954SOL    HW144701   3.972  12.625  14.010
80954SOL    HW244702   4.071  12.601  13.898
80955SOL     OW44703   3.089   5.844  12.235
80955SOL    HW144704   3.007   5.845  12.284
80955SOL    HW244705   3.088   5.762  12.186
80956SOL     OW44706   0.949   4.175   7.388
80956SOL    HW144707   0.952   4.144   7.478
80956SOL    HW244708   1.011   4.248   7.386
80957SOL     OW44709  12.538  10.391   9.732
80957SOL    HW144710  12.464  10.398   9.793
80957SOL    HW244711  12.517  10.453   9.662
80958SOL     OW44712  12.696   9.160   1.668
80958SOL    HW144713  12.699   9.192   1.578
80958SOL    HW244714  12.659   9.232   1.718
80959SOL     OW44715   6.056  14.098   1.629
80959SOL    HW144716   6.070  14.091   1.535
80959SOL    HW244717   6.081  14.187   1.651
80960SOL     OW44718  11.217   7.143  11.378
80960SOL    HW144719  11.152   7.212  11.365
80960SOL    HW244720  11.210   7.089  11.299
80961SOL     OW44721   1.561   4.189   4.436
80961SOL    HW144722   1.466   4.188   4.440
80961SOL    HW244723   1.587   4.259   4.495
80962SOL     OW44724   0.006   5.889   2.338
80962SOL    HW144725  14.820   5.940   2.286
80962SOL    HW244726   0.039   5.823   2.276
80963SOL     OW44727   8.474   8.629   7.665
80963SOL    HW144728   8.386   8.667   7.661
80963SOL    HW244729   8.533   8.704   7.657
80964SOL     OW44730   0.534   5.213  10.388
80964SOL    HW144731   0.478   5.146  10.427
80964SOL    HW244732   0.583   5.167  10.320
80965SOL     OW44733   6.014   9.022   4.941
80965SOL    HW144734   6.057   8.944   4.976
80965SOL    HW244735   5.926   9.018   4.978
80966SOL     OW44736   5.229  10.754   4.094
80966SOL    HW144737   5.270  10.738   4.009
80966SOL    HW244738   5.173  10.830   4.080
80967SOL     OW44739   7.568  11.808   7.111
80967SOL    HW144740   7.542  11.825   7.021
80967SOL    HW244741   7.523  11.875   7.163
80968SOL     OW44742   1.311  10.501   0.355
80968SOL    HW144743   1.370  10.575   0.372
80968SOL    HW244744   1.354  10.451   0.286
80969SOL     OW44745   7.734  12.741   7.271
80969SOL    HW144746   7.787  12.796   7.214
80969SOL    HW244747   7.790  12.723   7.346
80970SOL     OW44748  13.922  12.407   5.627
80970SOL    HW144749  13.951  12.413   5.536
80970SOL    HW244750  13.877  12.490   5.643
80971SOL     OW44751   3.118   6.794   0.502
80971SOL    HW144752   3.083   6.799   0.591
80971SOL    HW244753   3.048   6.829   0.447
80972SOL     OW44754   0.441   8.105   1.447
80972SOL    HW144755   0.507   8.044   1.413
80972SOL    HW244756   0.488   8.188   1.458
80973SOL     OW44757  11.470   0.927   2.452
80973SOL    HW144758  11.397   0.987   2.466
80973SOL    HW244759  11.547   0.978   2.476
80974SOL     OW44760  11.823  12.299   2.810
80974SOL    HW144761  11.753  12.233   2.812
80974SOL    HW244762  11.886  12.270   2.875
80975SOL     OW44763  14.512   0.281  14.088
80975SOL    HW144764  14.556   0.304  14.006
80975SOL    HW244765  14.466   0.200  14.067
80976SOL     OW44766   7.197   2.570  13.640
80976SOL    HW144767   7.251   2.550  13.716
80976SOL    HW244768   7.119   2.516  13.650
80977SOL     OW44769   3.869   2.669   8.349
80977SOL    HW144770   3.928   2.674   8.274
80977SOL    HW244771   3.807   2.599   8.327
80978SOL     OW44772  12.329  10.466   1.485
80978SOL    HW144773  12.337  10.395   1.423
80978SOL    HW244774  12.416  10.505   1.491
80979SOL     OW44775  13.524   5.134   2.204
80979SOL    HW144776  13.504   5.227   2.193
80979SOL    HW244777  13.454   5.089   2.157
80980SOL     OW44778   1.495   4.491  11.833
80980SOL    HW144779   1.528   4.515  11.919
80980SOL    HW244780   1.403   4.469  11.848
80981SOL     OW44781   7.699   3.147   0.674
80981SOL    HW144782   7.636   3.103   0.617
80981SOL    HW244783   7.708   3.088   0.750
80982SOL     OW44784  11.540  10.218   5.789
80982SOL    HW144785  11.610  10.281   5.804
80982SOL    HW244786  11.560  10.180   5.703
80983SOL     OW44787   8.663  12.742   3.677
80983SOL    HW144788   8.596  12.693   3.628
80983SOL    HW244789   8.617  12.772   3.755
80984SOL     OW44790   0.593   2.710   0.202
80984SOL    HW144791   0.560   2.709   0.112
80984SOL    HW244792   0.529   2.763   0.250
80985SOL     OW44793   8.142   5.841  12.726
80985SOL    HW144794   8.214   5.883  12.679
80985SOL    HW244795   8.161   5.748  12.720
80986SOL     OW44796  11.878   9.929  13.633
80986SOL    HW144797  11.965   9.969  13.633
80986SOL    HW244798  11.823   9.992  13.585
80987SOL     OW44799   9.241   4.735  11.582
80987SOL    HW144800   9.236   4.742  11.677
80987SOL    HW244801   9.158   4.696  11.556
80988SOL     OW44802  14.579  11.360   1.431
80988SOL    HW144803  14.663  11.377   1.474
80988SOL    HW244804  14.603  11.335   1.342
80989SOL     OW44805   6.935  12.433   8.359
80989SOL    HW144806   6.843  12.457   8.348
80989SOL    HW244807   6.964  12.407   8.271
80990SOL     OW44808  14.199   3.520   2.499
80990SOL    HW144809  14.105   3.537   2.504
80990SOL    HW244810  14.211   3.438   2.546
80991SOL     OW44811  10.972   6.597   5.073
80991SOL    HW144812  11.046   6.571   5.020
80991SOL    HW244813  10.898   6.547   5.037
80992SOL     OW44814   3.268   0.816   9.605
80992SOL    HW144815   3.325   0.741   9.587
80992SOL    HW244816   3.319   0.891   9.576
80993SOL     OW44817   9.532  14.399   3.522
80993SOL    HW144818   9.616  14.440   3.503
80993SOL    HW244819   9.506  14.358   3.439
80994SOL     OW44820   3.626  14.426   2.755
80994SOL    HW144821   3.621  14.514   2.717
80994SOL    HW244822   3.693  14.434   2.823
80995SOL     OW44823   6.561   7.396   4.755
80995SOL    HW144824   6.519   7.310   4.746
80995SOL    HW244825   6.489   7.456   4.772
80996SOL     OW44826   2.939   2.239  10.815
80996SOL    HW144827   2.940   2.332  10.791
80996SOL    HW244828   3.017   2.228  10.870
80997SOL     OW44829   0.026   3.750  14.515
80997SOL    HW144830   0.018   3.655  14.505
80997SOL    HW244831   0.035   3.763  14.610
80998SOL     OW44832  11.470   1.802  11.835
80998SOL    HW144833  11.386   1.847  11.831
80998SOL    HW244834  11.533   1.864  11.798
80999SOL     OW44835   1.439   4.105   7.682
80999SOL    HW144836   1.428   4.083   7.589
80999SOL    HW244837   1.376   4.175   7.698
81000SOL     OW44838   9.908   9.115   0.549
81000SOL    HW144839   9.877   9.066   0.625
81000SOL    HW244840   9.832   9.120   0.491
81001SOL     OW44841  10.792   7.184   4.023
81001SOL    HW144842  10.775   7.259   3.965
81001SOL    HW244843  10.872   7.207   4.069
81002SOL     OW44844   5.118  12.027  12.767
81002SOL    HW144845   5.033  12.061  12.738
81002SOL    HW244846   5.170  12.106  12.784
81003SOL     OW44847   3.866  13.373   6.320
81003SOL    HW144848   3.958  13.360   6.298
81003SOL    HW244849   3.864  13.456   6.368
81004SOL     OW44850   2.131   6.109   9.558
81004SOL    HW144851   2.113   6.036   9.498
81004SOL    HW244852   2.104   6.076   9.644
81005SOL     OW44853  14.325  14.199   8.853
81005SOL    HW144854  14.250  14.143   8.834
81005SOL    HW244855  14.301  14.246   8.933
81006SOL     OW44856   0.024   8.779   8.314
81006SOL    HW144857  14.831   8.837   8.284
81006SOL    HW244858   0.091   8.837   8.350
81007SOL     OW44859  10.109  12.109   7.501
81007SOL    HW144860  10.129  12.051   7.575
81007SOL    HW244861  10.171  12.182   7.510
81008SOL     OW44862   6.488   0.450   9.775
81008SOL    HW144863   6.505   0.381   9.711
81008SOL    HW244864   6.394   0.443   9.793
81009SOL     OW44865   5.658  10.410   5.532
81009SOL    HW144866   5.700  10.415   5.618
81009SOL    HW244867   5.620  10.496   5.519
81010SOL     OW44868  12.492   7.479  12.103
81010SOL    HW144869  12.456   7.448  12.020
81010SOL    HW244870  12.429   7.543  12.135
81011SOL     OW44871   4.359   7.699  10.732
81011SOL    HW144872   4.290   7.702  10.798
81011SOL    HW244873   4.365   7.606  10.707
81012SOL     OW44874   9.587   8.509   6.676
81012SOL    HW144875   9.511   8.490   6.730
81012SOL    HW244876   9.551   8.556   6.601
81013SOL     OW44877  12.159   7.381  12.345
81013SOL    HW144878  12.170   7.462  12.295
81013SOL    HW244879  12.236   7.328  12.322
81014SOL     OW44880   2.602   3.657   1.356
81014SOL    HW144881   2.616   3.584   1.416
81014SOL    HW244882   2.654   3.728   1.392
81015SOL     OW44883   5.232   4.124  14.817
81015SOL    HW144884   5.300   4.056  14.814
81015SOL    HW244885   5.278   4.206  14.800
81016SOL     OW44886   9.729   7.166   7.416
81016SOL    HW144887   9.717   7.204   7.503
81016SOL    HW244888   9.641   7.165   7.377
81017SOL     OW44889  11.256  11.859   3.583
81017SOL    HW144890  11.292  11.772   3.568
81017SOL    HW244891  11.210  11.853   3.666
81018SOL     OW44892  12.682  13.482  11.353
81018SOL    HW144893  12.592  13.454  11.334
81018SOL    HW244894  12.672  13.552  11.418
81019SOL     OW44895   2.154   1.321   9.112
81019SOL    HW144896   2.074   1.351   9.156
81019SOL    HW244897   2.225   1.364   9.160
81020SOL     OW44898   2.631   2.742   8.421
81020SOL    HW144899   2.590   2.782   8.344
81020SOL    HW244900   2.608   2.801   8.493
81021SOL     OW44901   2.020   9.445   1.740
81021SOL    HW144902   2.051   9.400   1.819
81021SOL    HW244903   1.971   9.520   1.774
81022SOL     OW44904   8.059   0.093   0.637
81022SOL    HW144905   8.031   0.014   0.590
81022SOL    HW244906   8.149   0.075   0.663
81023SOL     OW44907   0.570   2.047   8.776
81023SOL    HW144908   0.550   2.121   8.833
81023SOL    HW244909   0.664   2.036   8.784
81024SOL     OW44910   3.044   6.650   0.947
81024SOL    HW144911   3.108   6.614   1.008
81024SOL    HW244912   2.961   6.613   0.976
81025SOL     OW44913   7.375   7.234   6.982
81025SOL    HW144914   7.352   7.145   6.959
81025SOL    HW244915   7.411   7.271   6.902
81026SOL     OW44916   2.017  13.442   1.823
81026SOL    HW144917   2.024  13.407   1.912
81026SOL    HW244918   1.949  13.508   1.828
81027SOL     OW44919  14.166  10.017   5.221
81027SOL    HW144920  14.200  10.103   5.243
81027SOL    HW244921  14.244   9.962   5.212
81028SOL     OW44922  12.358   7.181   0.907
81028SOL    HW144923  12.381   7.158   0.997
81028SOL    HW244924  12.265   7.205   0.911
81029SOL     OW44925  14.042   0.645  12.887
81029SOL    HW144926  14.092   0.591  12.947
81029SOL    HW244927  14.073   0.734  12.903
81030SOL     OW44928   0.271   5.869   6.099
81030SOL    HW144929   0.322   5.924   6.158
81030SOL    HW244930   0.235   5.931   6.035
81031SOL     OW44931   5.449   7.462   0.966
81031SOL    HW144932   5.456   7.460   0.871
81031SOL    HW244933   5.439   7.371   0.992
81032SOL     OW44934  12.186  14.507   4.228
81032SOL    HW144935  12.195  14.571   4.298
81032SOL    HW244936  12.242  14.434   4.254
81033SOL     OW44937   0.250   9.734   8.650
81033SOL    HW144938   0.267   9.733   8.744
81033SOL    HW244939   0.332   9.707   8.610
81034SOL     OW44940   0.397  11.328  12.223
81034SOL    HW144941   0.323  11.287  12.267
81034SOL    HW244942   0.364  11.413  12.194
81035SOL     OW44943   0.957   5.442   5.452
81035SOL    HW144944   0.932   5.483   5.369
81035SOL    HW244945   0.875   5.437   5.502
81036SOL     OW44946   2.561   8.785   4.040
81036SOL    HW144947   2.643   8.834   4.039
81036SOL    HW244948   2.495   8.848   4.070
81037SOL     OW44949   8.118   2.680   9.060
81037SOL    HW144950   8.203   2.642   9.082
81037SOL    HW244951   8.058   2.644   9.125
81038SOL     OW44952   7.441   9.812   1.026
81038SOL    HW144953   7.510   9.835   1.088
81038SOL    HW244954   7.382   9.755   1.076
81039SOL     OW44955   7.538   7.974  12.856
81039SOL    HW144956   7.576   8.062  12.860
81039SOL    HW244957   7.578   7.935  12.778
81040SOL     OW44958  11.203   2.263  13.346
81040SOL    HW144959  11.117   2.227  13.369
81040SOL    HW244960  11.212   2.340  13.402
81041SOL     OW44961   8.575   6.520   3.258
81041SOL    HW144962   8.657   6.532   3.305
81041SOL    HW244963   8.596   6.460   3.187
81042SOL     OW44964   5.484   4.265   2.249
81042SOL    HW144965   5.564   4.312   2.226
81042SOL    HW244966   5.499   4.234   2.339
81043SOL     OW44967   7.707  14.383   9.442
81043SOL    HW144968   7.754  14.389   9.525
81043SOL    HW244969   7.766  14.334   9.384
81044SOL     OW44970   7.181   5.312  10.681
81044SOL    HW144971   7.224   5.386  10.638
81044SOL    HW244972   7.161   5.343  10.769
81045SOL     OW44973  11.390   6.579   3.436
81045SOL    HW144974  11.464   6.634   3.460
81045SOL    HW244975  11.372   6.526   3.515
81046SOL     OW44976  14.761   8.056   8.691
81046SOL    HW144977  14.695   8.011   8.637
81046SOL    HW244978  14.844   8.015   8.666
81047SOL     OW44979  13.482  13.669   1.465
81047SOL    HW144980  13.392  13.646   1.485
81047SOL    HW244981  13.498  13.631   1.378
81048SOL     OW44982   6.544   9.753   6.251
81048SOL    HW144983   6.560   9.830   6.305
81048SOL    HW244984   6.458   9.721   6.279
81049SOL     OW44985  12.566   3.075   9.525
81049SOL    HW144986  12.492   3.133   9.545
81049SOL    HW244987  12.611   3.064   9.609
81050SOL     OW44988   0.453  11.963   8.273
81050SOL    HW144989   0.374  11.953   8.220
81050SOL    HW244990   0.428  12.024   8.343
81051SOL     OW44991   0.343   7.387  13.723
81051SOL    HW144992   0.386   7.369  13.807
81051SOL    HW244993   0.308   7.302  13.696
81052SOL     OW44994   2.628  11.947   2.808
81052SOL    HW144995   2.652  12.040   2.808
81052SOL    HW244996   2.701  11.904   2.763
81053SOL     OW44997   2.092  10.659   2.262
81053SOL    HW144998   2.100  10.596   2.190
81053SOL    HW244999   2.181  10.692   2.275
81054SOL     OW45000   7.074  12.284   1.085
81054SOL    HW145001   7.043  12.230   1.013
81054SOL    HW245002   7.118  12.223   1.144
81055SOL     OW45003  10.615   2.626   5.187
81055SOL    HW145004  10.581   2.541   5.158
81055SOL    HW245005  10.680   2.649   5.121
81056SOL     OW45006  12.391  11.497   0.140
81056SOL    HW145007  12.430  11.533   0.221
81056SOL    HW245008  12.310  11.456   0.169
81057SOL     OW45009   2.008  13.443  12.003
81057SOL    HW145010   2.076  13.508  12.016
81057SOL    HW245011   1.936  13.472  12.058
81058SOL     OW45012   9.205  12.384   0.349
81058SOL    HW145013   9.203  12.357   0.441
81058SOL    HW245014   9.176  12.476   0.351
81059SOL     OW45015   0.644   3.278   2.492
81059SOL    HW145016   0.570   3.336   2.478
81059SOL    HW245017   0.684   3.269   2.405
81060SOL     OW45018   1.649  11.833   3.702
81060SOL    HW145019   1.622  11.884   3.625
81060SOL    HW245020   1.688  11.754   3.666
81061SOL     OW45021  10.091   5.819  11.216
81061SOL    HW145022  10.165   5.837  11.274
81061SOL    HW245023  10.015   5.851  11.264
81062SOL     OW45024   6.272   4.780   2.547
81062SOL    HW145025   6.179   4.767   2.565
81062SOL    HW245026   6.313   4.699   2.577
81063SOL     OW45027  11.667   6.172  11.450
81063SOL    HW145028  11.669   6.116  11.372
81063SOL    HW245029  11.689   6.113  11.522
81064SOL     OW45030   2.634   3.052  12.101
81064SOL    HW145031   2.666   3.027  12.188
81064SOL    HW245032   2.539   3.039  12.107
81065SOL     OW45033  12.915   4.040   3.002
81065SOL    HW145034  12.840   4.003   3.048
81065SOL    HW245035  12.936   4.120   3.051
81066SOL     OW45036  11.811   4.725  14.183
81066SOL    HW145037  11.846   4.796  14.130
81066SOL    HW245038  11.814   4.648  14.126
81067SOL     OW45039  13.054  10.612   9.347
81067SOL    HW145040  12.962  10.595   9.368
81067SOL    HW245041  13.068  10.568   9.263
81068SOL     OW45042   2.203  14.676   6.347
81068SOL    HW145043   2.231  14.746   6.289
81068SOL    HW245044   2.282  14.625   6.364
81069SOL     OW45045  12.850  10.766   6.094
81069SOL    HW145046  12.785  10.752   6.026
81069SOL    HW245047  12.808  10.735   6.174
81070SOL     OW45048   8.067   2.558  10.171
81070SOL    HW145049   8.104   2.643  10.195
81070SOL    HW245050   7.987   2.551  10.221
81071SOL     OW45051   2.439   2.322   5.146
81071SOL    HW145052   2.520   2.291   5.186
81071SOL    HW245053   2.417   2.257   5.080
81072SOL     OW45054   7.686  10.183   2.030
81072SOL    HW145055   7.779  10.192   2.051
81072SOL    HW245056   7.675  10.233   1.949
81073SOL     OW45057   6.477  10.170   1.322
81073SOL    HW145058   6.407  10.145   1.382
81073SOL    HW245059   6.451  10.257   1.290
81074SOL     OW45060   1.401   0.115  13.269
81074SOL    HW145061   1.424   0.143  13.357
81074SOL    HW245062   1.465   0.046  13.248
81075SOL     OW45063  11.946   7.115   5.973
81075SOL    HW145064  12.041   7.120   5.964
81075SOL    HW245065  11.931   7.033   6.021
81076SOL     OW45066  14.799   1.900   0.853
81076SOL    HW145067  14.801   1.994   0.866
81076SOL    HW245068   0.011   1.870   0.875
81077SOL     OW45069   0.515   2.502   6.418
81077SOL    HW145070   0.587   2.439   6.412
81077SOL    HW245071   0.478   2.489   6.505
81078SOL     OW45072  11.104   0.134  14.689
81078SOL    HW145073  11.164   0.206  14.669
81078SOL    HW245074  11.024   0.155  14.641
81079SOL     OW45075   1.108   0.562  12.553
81079SOL    HW145076   1.045   0.508  12.601
81079SOL    HW245077   1.154   0.501  12.496
81080SOL     OW45078   7.748   1.512   3.370
81080SOL    HW145079   7.722   1.424   3.395
81080SOL    HW245080   7.779   1.503   3.280
81081SOL     OW45081   6.549  12.525  13.755
81081SOL    HW145082   6.617  12.457  13.750
81081SOL    HW245083   6.467  12.477  13.759
81082SOL     OW45084   6.208   5.041   4.813
81082SOL    HW145085   6.239   5.064   4.900
81082SOL    HW245086   6.130   5.096   4.800
81083SOL     OW45087   3.404  12.172  13.361
81083SOL    HW145088   3.399  12.203  13.451
81083SOL    HW245089   3.385  12.250  13.308
81084SOL     OW45090  14.241   9.169  11.932
81084SOL    HW145091  14.232   9.224  11.855
81084SOL    HW245092  14.333   9.178  11.957
81085SOL     OW45093  14.638  12.092   3.269
81085SOL    HW145094  14.661  12.174   3.226
81085SOL    HW245095  14.560  12.061   3.221
81086SOL     OW45096   8.924  10.012   5.943
81086SOL    HW145097   8.832  10.040   5.945
81086SOL    HW245098   8.961  10.047   6.024
81087SOL     OW45099  11.407  12.155   1.164
81087SOL    HW145100  11.396  12.240   1.120
81087SOL    HW245101  11.322  12.112   1.156
81088SOL     OW45102  11.343   2.519   1.846
81088SOL    HW145103  11.424   2.515   1.898
81088SOL    HW245104  11.288   2.582   1.893
81089SOL     OW45105   7.711   2.855  11.627
81089SOL    HW145106   7.679   2.904  11.703
81089SOL    HW245107   7.800   2.829  11.651
81090SOL     OW45108   6.924   5.777   3.584
81090SOL    HW145109   6.849   5.718   3.587
81090SOL    HW245110   6.905   5.837   3.512
81091SOL     OW45111  12.645   2.982  11.364
81091SOL    HW145112  12.632   2.902  11.312
81091SOL    HW245113  12.691   3.041  11.305
81092SOL     OW45114   8.170  11.936  10.416
81092SOL    HW145115   8.094  11.987  10.390
81092SOL    HW245116   8.137  11.875  10.481
81093SOL     OW45117   2.928  11.608   0.080
81093SOL    HW145118   2.928  11.571  14.868
81093SOL    HW245119   2.956  11.699   0.067
81094SOL     OW45120   3.958   2.704   4.886
81094SOL    HW145121   4.040   2.655   4.895
81094SOL    HW245122   3.922   2.707   4.975
81095SOL     OW45123  14.241  10.271   5.293
81095SOL    HW145124  14.321  10.264   5.344
81095SOL    HW245125  14.176  10.303   5.355
81096SOL     OW45126   4.647   9.028   3.507
81096SOL    HW145127   4.613   8.943   3.480
81096SOL    HW245128   4.699   9.058   3.433
81097SOL     OW45129   0.010   6.823   2.002
81097SOL    HW145130  14.854   6.861   1.920
81097SOL    HW245131   0.053   6.742   1.976
81098SOL     OW45132   1.466  14.747  14.791
81098SOL    HW145133   1.440  14.726  14.702
81098SOL    HW245134   1.557  14.716  14.797
81099SOL     OW45135  12.980  12.659   9.521
81099SOL    HW145136  13.005  12.602   9.594
81099SOL    HW245137  13.062  12.690   9.485
81100SOL     OW45138  12.557  13.867   4.303
81100SOL    HW145139  12.492  13.855   4.234
81100SOL    HW245140  12.537  13.800   4.368
81101SOL     OW45141   9.586   9.044  11.740
81101SOL    HW145142   9.598   9.102  11.664
81101SOL    HW245143   9.541   9.099  11.805
81102SOL     OW45144   0.064  12.508  10.918
81102SOL    HW145145   0.032  12.436  10.864
81102SOL    HW245146  14.871  12.574  10.914
81103SOL     OW45147  11.818  11.199  13.220
81103SOL    HW145148  11.810  11.124  13.162
81103SOL    HW245149  11.883  11.255  13.178
81104SOL     OW45150  14.306   5.065   0.788
81104SOL    HW145151  14.335   5.150   0.820
81104SOL    HW245152  14.279   5.018   0.866
81105SOL     OW45153   8.080  14.053  11.777
81105SOL    HW145154   8.049  13.995  11.708
81105SOL    HW245155   8.144  14.110  11.734
81106SOL     OW45156   6.592   6.932  11.674
81106SOL    HW145157   6.540   6.935  11.594
81106SOL    HW245158   6.628   6.844  11.677
81107SOL     OW45159   3.872   5.494   5.636
81107SOL    HW145160   3.804   5.556   5.663
81107SOL    HW245161   3.902   5.455   5.718
81108SOL     OW45162  11.054  13.586  12.102
81108SOL    HW145163  11.031  13.510  12.156
81108SOL    HW245164  10.973  13.635  12.095
81109SOL     OW45165  10.171   3.842   6.013
81109SOL    HW145166  10.238   3.774   6.017
81109SOL    HW245167  10.097   3.807   6.063
81110SOL     OW45168  10.467  11.872  13.814
81110SOL    HW145169  10.475  11.863  13.909
81110SOL    HW245170  10.449  11.783  13.783
81111SOL     OW45171   0.564  10.378   3.059
81111SOL    HW145172   0.571  10.338   3.146
81111SOL    HW245173   0.505  10.452   3.071
81112SOL     OW45174   7.067   1.789   4.904
81112SOL    HW145175   7.050   1.698   4.928
81112SOL    HW245176   7.043   1.839   4.982
81113SOL     OW45177   7.244   4.037   7.875
81113SOL    HW145178   7.168   4.061   7.821
81113SOL    HW245179   7.244   3.941   7.874
81114SOL     OW45180  14.177   1.202   2.027
81114SOL    HW145181  14.177   1.295   2.051
81114SOL    HW245182  14.129   1.199   1.944
81115SOL     OW45183   7.517  10.389  11.017
81115SOL    HW145184   7.440  10.360  10.968
81115SOL    HW245185   7.568  10.310  11.031
81116SOL     OW45186   8.214  13.260   6.853
81116SOL    HW145187   8.213  13.290   6.944
81116SOL    HW245188   8.193  13.338   6.802
81117SOL     OW45189   2.895   6.389   5.542
81117SOL    HW145190   2.948   6.382   5.621
81117SOL    HW245191   2.951   6.354   5.472
81118SOL     OW45192  14.073   6.542   1.877
81118SOL    HW145193  13.994   6.585   1.908
81118SOL    HW245194  14.047   6.500   1.795
81119SOL     OW45195  10.967   7.942  10.133
81119SOL    HW145196  11.019   7.906  10.061
81119SOL    HW245197  10.954   8.034  10.109
81120SOL     OW45198   6.105   5.233   0.936
81120SOL    HW145199   6.020   5.256   0.974
81120SOL    HW245200   6.166   5.239   1.009
81121SOL     OW45201   9.400   0.121   1.015
81121SOL    HW145202   9.341   0.116   0.940
81121SOL    HW245203   9.413   0.215   1.029
81122SOL     OW45204   4.745  10.694  10.771
81122SOL    HW145205   4.801  10.681  10.694
81122SOL    HW245206   4.658  10.666  10.742
81123SOL     OW45207   0.636   2.764   9.539
81123SOL    HW145208   0.649   2.752   9.445
81123SOL    HW245209   0.543   2.785   9.548
81124SOL     OW45210   8.259   3.324   1.947
81124SOL    HW145211   8.264   3.297   2.039
81124SOL    HW245212   8.347   3.309   1.912
81125SOL     OW45213   2.278   9.610   2.808
81125SOL    HW145214   2.240   9.525   2.831
81125SOL    HW245215   2.206   9.659   2.768
81126SOL     OW45216   4.750  13.482   8.982
81126SOL    HW145217   4.683  13.427   8.939
81126SOL    HW245218   4.754  13.448   9.071
81127SOL     OW45219   7.087  10.362   9.097
81127SOL    HW145220   7.030  10.440   9.099
81127SOL    HW245221   7.094  10.336   9.188
81128SOL     OW45222   8.765   2.188   8.200
81128SOL    HW145223   8.712   2.177   8.121
81128SOL    HW245224   8.823   2.262   8.181
81129SOL     OW45225   1.994  11.446  13.102
81129SOL    HW145226   1.995  11.496  13.184
81129SOL    HW245227   2.066  11.482  13.051
81130SOL     OW45228   7.132  14.743  12.529
81130SOL    HW145229   7.105  14.779  12.614
81130SOL    HW245230   7.199  14.804  12.498
81131SOL     OW45231  11.826   6.009   8.084
81131SOL    HW145232  11.869   5.953   8.019
81131SOL    HW245233  11.779   5.948   8.141
81132SOL     OW45234   6.429  12.991   3.526
81132SOL    HW145235   6.518  12.957   3.520
81132SOL    HW245236   6.410  13.026   3.439
81133SOL     OW45237   0.426   5.822   9.991
81133SOL    HW145238   0.423   5.796  10.083
81133SOL    HW245239   0.383   5.750   9.944
81134SOL     OW45240   1.319   0.474   5.402
81134SOL    HW145241   1.409   0.495   5.376
81134SOL    HW245242   1.265   0.528   5.344
81135SOL     OW45243  11.422   6.335   1.285
81135SOL    HW145244  11.514   6.320   1.265
81135SOL    HW245245  11.376   6.262   1.242
81136SOL     OW45246   5.124  11.743  14.743
81136SOL    HW145247   5.097  11.652  14.731
81136SOL    HW245248   5.152  11.771  14.655
81137SOL     OW45249   9.955   0.499  12.893
81137SOL    HW145250   9.924   0.411  12.871
81137SOL    HW245251   9.925   0.553  12.820
81138SOL     OW45252   6.316  12.579   8.672
81138SOL    HW145253   6.391  12.527   8.645
81138SOL    HW245254   6.247  12.514   8.690
81139SOL     OW45255  10.498   0.373  14.641
81139SOL    HW145256  10.468   0.458  14.675
81139SOL    HW245257  10.438   0.309  14.680
81140SOL     OW45258  10.182  14.289  13.187
81140SOL    HW145259  10.136  14.368  13.216
81140SOL    HW245260  10.273  14.303  13.212
81141SOL     OW45261   5.922  10.987   2.325
81141SOL    HW145262   5.945  10.896   2.343
81141SOL    HW245263   6.002  11.036   2.343
81142SOL     OW45264  10.444   6.624  13.908
81142SOL    HW145265  10.497   6.559  13.954
81142SOL    HW245266  10.370   6.575  13.872
81143SOL     OW45267   7.275  11.363   1.334
81143SOL    HW145268   7.268  11.418   1.412
81143SOL    HW245269   7.369  11.344   1.326
81144SOL     OW45270   8.302  14.169   6.275
81144SOL    HW145271   8.390  14.151   6.310
81144SOL    HW245272   8.243  14.121   6.334
81145SOL     OW45273   6.412   8.834  14.269
81145SOL    HW145274   6.412   8.828  14.364
81145SOL    HW245275   6.326   8.870  14.247
81146SOL     OW45276  12.725   6.922  11.744
81146SOL    HW145277  12.784   6.873  11.801
81146SOL    HW245278  12.660   6.959  11.804
81147SOL     OW45279   3.090  10.328   0.896
81147SOL    HW145280   3.172  10.378   0.895
81147SOL    HW245281   3.106  10.255   0.836
81148SOL     OW45282   0.562   3.083   8.684
81148SOL    HW145283   0.555   3.043   8.771
81148SOL    HW245284   0.612   3.020   8.633
81149SOL     OW45285  12.217   5.430   2.998
81149SOL    HW145286  12.297   5.381   2.979
81149SOL    HW245287  12.194   5.470   2.915
81150SOL     OW45288   6.413  13.804   2.091
81150SOL    HW145289   6.351  13.832   2.023
81150SOL    HW245290   6.464  13.883   2.109
81151SOL     OW45291   4.584   4.507   5.405
81151SOL    HW145292   4.512   4.447   5.384
81151SOL    HW245293   4.658   4.449   5.427
81152SOL     OW45294   1.669  10.994   5.657
81152SOL    HW145295   1.724  10.953   5.724
81152SOL    HW245296   1.680  10.939   5.579
81153SOL     OW45297   8.922   1.820  11.263
81153SOL    HW145298   8.849   1.774  11.222
81153SOL    HW245299   8.887   1.907  11.282
81154SOL     OW45300  12.124   8.781   0.190
81154SOL    HW145301  12.056   8.744   0.134
81154SOL    HW245302  12.096   8.872   0.204
81155SOL     OW45303   7.328   4.422   3.081
81155SOL    HW145304   7.290   4.405   3.167
81155SOL    HW245305   7.387   4.348   3.066
81156SOL     OW45306  13.150   8.293  10.554
81156SOL    HW145307  13.103   8.213  10.529
81156SOL    HW245308  13.193   8.271  10.637
81157SOL     OW45309  13.427   1.286   7.643
81157SOL    HW145310  13.381   1.311   7.723
81157SOL    HW245311  13.364   1.234   7.593
81158SOL     OW45312  14.546  12.972   0.430
81158SOL    HW145313  14.507  12.938   0.511
81158SOL    HW245314  14.502  13.055   0.416
81159SOL     OW45315   2.092  13.843   8.857
81159SOL    HW145316   2.127  13.760   8.890
81159SOL    HW245317   2.000  13.842   8.883
81160SOL     OW45318   2.018   5.485  11.142
81160SOL    HW145319   1.931   5.523  11.146
81160SOL    HW245320   2.055   5.518  11.060
81161SOL     OW45321  10.961   7.894   7.020
81161SOL    HW145322  10.939   7.964   7.081
81161SOL    HW245323  11.048   7.864   7.049
81162SOL     OW45324   5.354  12.368   8.300
81162SOL    HW145325   5.340  12.329   8.386
81162SOL    HW245326   5.443  12.402   8.303
81163SOL     OW45327  13.883  12.217   9.257
81163SOL    HW145328  13.868  12.182   9.344
81163SOL    HW245329  13.972  12.192   9.235
81164SOL     OW45330   3.323   2.454  12.414
81164SOL    HW145331   3.396   2.494  12.462
81164SOL    HW245332   3.363   2.382  12.365
81165SOL     OW45333   2.816   2.231  13.928
81165SOL    HW145334   2.804   2.325  13.920
81165SOL    HW245335   2.896   2.221  13.980
81166SOL     OW45336   3.189  14.371  10.222
81166SOL    HW145337   3.261  14.425  10.191
81166SOL    HW245338   3.115  14.431  10.231
81167SOL     OW45339   7.692   6.306   5.306
81167SOL    HW145340   7.766   6.361   5.331
81167SOL    HW245341   7.731   6.224   5.277
81168SOL     OW45342  14.008   2.298   0.864
81168SOL    HW145343  14.039   2.371   0.810
81168SOL    HW245344  14.049   2.221   0.827
81169SOL     OW45345   4.948  12.489  14.559
81169SOL    HW145346   4.924  12.505  14.651
81169SOL    HW245347   4.866  12.463  14.517
81170SOL     OW45348   8.713   4.356   9.930
81170SOL    HW145349   8.692   4.314  10.013
81170SOL    HW245350   8.699   4.287   9.864
81171SOL     OW45351  12.789   6.798  11.170
81171SOL    HW145352  12.735   6.875  11.152
81171SOL    HW245353  12.758   6.732  11.109
81172SOL     OW45354   6.028   1.556   6.891
81172SOL    HW145355   6.120   1.533   6.897
81172SOL    HW245356   5.982   1.472   6.885
81173SOL     OW45357   5.930   4.922  11.536
81173SOL    HW145358   5.914   5.011  11.503
81173SOL    HW245359   6.021   4.923  11.565
81174SOL     OW45360  12.963   9.310  11.721
81174SOL    HW145361  12.901   9.326  11.649
81174SOL    HW245362  12.935   9.369  11.790
81175SOL     OW45363  14.399   2.808   8.585
81175SOL    HW145364  14.411   2.812   8.679
81175SOL    HW245365  14.482   2.839   8.549
81176SOL     OW45366   6.943   9.721  12.827
81176SOL    HW145367   6.885   9.647  12.846
81176SOL    HW245368   6.958   9.716  12.733
81177SOL     OW45369  11.026   9.975   1.005
81177SOL    HW145370  11.040   9.884   1.031
81177SOL    HW245371  11.058  10.026   1.078
81178SOL     OW45372   1.090  14.745   1.896
81178SOL    HW145373   1.119  14.702   1.816
81178SOL    HW245374   1.017  14.691   1.927
81179SOL     OW45375   9.129   7.726   3.349
81179SOL    HW145376   9.109   7.634   3.333
81179SOL    HW245377   9.153   7.730   3.441
81180SOL     OW45378   7.741  12.698   1.618
81180SOL    HW145379   7.774  12.699   1.528
81180SOL    HW245380   7.715  12.788   1.635
81181SOL     OW45381   6.592   8.014   9.202
81181SOL    HW145382   6.654   8.054   9.263
81181SOL    HW245383   6.536   8.087   9.175
81182SOL     OW45384   8.964  14.539   6.886
81182SOL    HW145385   8.987  14.593   6.961
81182SOL    HW245386   8.875  14.564   6.864
81183SOL     OW45387  12.883   0.328   5.285
81183SOL    HW145388  12.872   0.331   5.380
81183SOL    HW245389  12.928   0.245   5.268
81184SOL     OW45390   8.124   9.669  14.099
81184SOL    HW145391   8.125   9.737  14.031
81184SOL    HW245392   8.213   9.634  14.099
81185SOL     OW45393   4.429  14.637   2.434
81185SOL    HW145394   4.472  14.664   2.354
81185SOL    HW245395   4.383  14.556   2.411
81186SOL     OW45396   5.890   4.042   1.337
81186SOL    HW145397   5.879   3.948   1.325
81186SOL    HW245398   5.889   4.078   1.249
81187SOL     OW45399   8.059  11.116  10.147
81187SOL    HW145400   8.154  11.126  10.143
81187SOL    HW245401   8.025  11.181  10.086
81188SOL     OW45402   4.871  13.532  12.208
81188SOL    HW145403   4.818  13.463  12.248
81188SOL    HW245404   4.849  13.611  12.257
81189SOL     OW45405   9.713   6.817   2.208
81189SOL    HW145406   9.744   6.729   2.189
81189SOL    HW245407   9.632   6.826   2.157
81190SOL     OW45408   7.407   2.577   8.864
81190SOL    HW145409   7.462   2.621   8.929
81190SOL    HW245410   7.333   2.635   8.851
81191SOL     OW45411   4.688   6.949  12.473
81191SOL    HW145412   4.631   7.010  12.519
81191SOL    HW245413   4.773   6.993  12.469
81192SOL     OW45414  10.501   5.327  12.551
81192SOL    HW145415  10.592   5.356  12.547
81192SOL    HW245416  10.476   5.338  12.643
81193SOL     OW45417   3.684   0.731   2.357
81193SOL    HW145418   3.623   0.659   2.375
81193SOL    HW245419   3.770   0.689   2.354
81194SOL     OW45420  12.236  12.335  12.924
81194SOL    HW145421  12.243  12.244  12.953
81194SOL    HW245422  12.326  12.365  12.918
81195SOL     OW45423   9.826   6.268  11.115
81195SOL    HW145424   9.880   6.322  11.057
81195SOL    HW245425   9.778   6.331  11.169
81196SOL     OW45426   2.482   5.183   1.060
81196SOL    HW145427   2.393   5.198   1.092
81196SOL    HW245428   2.505   5.264   1.015
81197SOL     OW45429   2.087   1.607  10.430
81197SOL    HW145430   2.147   1.558  10.486
81197SOL    HW245431   2.084   1.694  10.469
81198SOL     OW45432  13.214  11.916  12.545
81198SOL    HW145433  13.124  11.947  12.558
81198SOL    HW245434  13.260  11.992  12.510
81199SOL     OW45435   3.125  12.972   2.773
81199SOL    HW145436   3.159  12.894   2.817
81199SOL    HW245437   3.034  12.951   2.753
81200SOL     OW45438   0.701   5.514  14.727
81200SOL    HW145439   0.757   5.501  14.651
81200SOL    HW245440   0.613   5.528  14.690
81201SOL     OW45441  11.876   8.383   1.917
81201SOL    HW145442  11.943   8.321   1.887
81201SOL    HW245443  11.797   8.329   1.927
81202SOL     OW45444   4.159   7.442  14.198
81202SOL    HW145445   4.228   7.467  14.137
81202SOL    HW245446   4.081   7.489  14.167
81203SOL     OW45447   4.091   1.207   0.999
81203SOL    HW145448   4.033   1.189   1.073
81203SOL    HW245449   4.032   1.210   0.923
81204SOL     OW45450  14.164   2.266  12.162
81204SOL    HW145451  14.088   2.263  12.104
81204SOL    HW245452  14.230   2.212  12.118
81205SOL     OW45453   8.797  10.275   0.758
81205SOL    HW145454   8.749  10.195   0.735
81205SOL    HW245455   8.879  10.269   0.708
81206SOL     OW45456   6.539  12.353  10.364
81206SOL    HW145457   6.451  12.316  10.375
81206SOL    HW245458   6.589  12.318  10.438
81207SOL     OW45459  11.944  11.526  11.255
81207SOL    HW145460  12.022  11.476  11.233
81207SOL    HW245461  11.879  11.460  11.278
81208SOL     OW45462   1.787  14.829  11.793
81208SOL    HW145463   1.799  14.874  11.876
81208SOL    HW245464   1.875  14.824  11.755
81209SOL     OW45465   4.848   7.576   1.830
81209SOL    HW145466   4.795   7.514   1.879
81209SOL    HW245467   4.929   7.530   1.811
81210SOL     OW45468   7.558   2.828   2.122
81210SOL    HW145469   7.637   2.872   2.093
81210SOL    HW245470   7.524   2.785   2.044
81211SOL     OW45471   7.324   3.368   0.602
81211SOL    HW145472   7.309   3.457   0.570
81211SOL    HW245473   7.324   3.313   0.523
81212SOL     OW45474   7.812   1.316   9.171
81212SOL    HW145475   7.885   1.276   9.123
81212SOL    HW245476   7.742   1.322   9.107
81213SOL     OW45477   2.239   6.509  12.087
81213SOL    HW145478   2.200   6.429  12.123
81213SOL    HW245479   2.166   6.572  12.086
81214SOL     OW45480  10.343   0.448   5.794
81214SOL    HW145481  10.391   0.512   5.846
81214SOL    HW245482  10.253   0.452   5.827
81215SOL     OW45483   5.345   1.629  14.490
81215SOL    HW145484   5.385   1.690  14.428
81215SOL    HW245485   5.419   1.579  14.525
81216SOL     OW45486   0.554   6.109   3.453
81216SOL    HW145487   0.599   6.037   3.499
81216SOL    HW245488   0.578   6.097   3.361
81217SOL     OW45489  14.199  11.403   4.333
81217SOL    HW145490  14.178  11.397   4.426
81217SOL    HW245491  14.205  11.497   4.317
81218SOL     OW45492   0.286  12.026   9.089
81218SOL    HW145493   0.273  12.110   9.046
81218SOL    HW245494   0.256  12.040   9.179
81219SOL     OW45495   0.907  14.814   9.176
81219SOL    HW145496   0.917  14.783   9.266
81219SOL    HW245497   0.943  14.742   9.123
81220SOL     OW45498   6.775   4.559  14.332
81220SOL    HW145499   6.810   4.638  14.291
81220SOL    HW245500   6.822   4.554  14.416
81221SOL     OW45501   5.753   5.823   5.293
81221SOL    HW145502   5.763   5.770   5.372
81221SOL    HW245503   5.766   5.913   5.323
81222SOL     OW45504  10.208   7.321   7.183
81222SOL    HW145505  10.221   7.413   7.208
81222SOL    HW245506  10.134   7.293   7.237
81223SOL     OW45507  13.207   9.117   0.855
81223SOL    HW145508  13.301   9.099   0.868
81223SOL    HW245509  13.193   9.102   0.762
81224SOL     OW45510   9.905   7.434  10.402
81224SOL    HW145511   9.837   7.369  10.387
81224SOL    HW245512   9.860   7.518  10.400
81225SOL     OW45513  10.466   4.081  13.493
81225SOL    HW145514  10.465   4.060  13.586
81225SOL    HW245515  10.482   4.175  13.490
81226SOL     OW45516   5.928  10.889   3.062
81226SOL    HW145517   5.893  10.957   3.121
81226SOL    HW245518   5.986  10.937   3.002
81227SOL     OW45519   7.100  10.634  11.391
81227SOL    HW145520   7.082  10.721  11.428
81227SOL    HW245521   7.082  10.573  11.463
81228SOL     OW45522   3.641   9.961  12.248
81228SOL    HW145523   3.553   9.938  12.276
81228SOL    HW245524   3.653  10.052  12.278
81229SOL     OW45525   7.957   2.977   1.233
81229SOL    HW145526   7.985   2.995   1.323
81229SOL    HW245527   8.023   3.019   1.178
81230SOL     OW45528   3.154   6.923   9.539
81230SOL    HW145529   3.174   6.912   9.632
81230SOL    HW245530   3.097   6.849   9.518
81231SOL     OW45531   7.458   9.802   7.010
81231SOL    HW145532   7.468   9.833   6.920
81231SOL    HW245533   7.390   9.735   7.005
81232SOL     OW45534   1.631   0.091   2.652
81232SOL    HW145535   1.645  14.873   2.652
81232SOL    HW245536   1.591   0.110   2.737
81233SOL     OW45537   3.272   0.680  12.730
81233SOL    HW145538   3.195   0.699  12.785
81233SOL    HW245539   3.254   0.594  12.692
81234SOL     OW45540  14.356  13.224   5.268
81234SOL    HW145541  14.349  13.143   5.218
81234SOL    HW245542  14.344  13.294   5.204
81235SOL     OW45543   5.512  14.209   0.724
81235SOL    HW145544   5.417  14.218   0.718
81235SOL    HW245545   5.526  14.154   0.801
81236SOL     OW45546   5.728   9.252   3.821
81236SOL    HW145547   5.750   9.301   3.742
81236SOL    HW245548   5.765   9.165   3.806
81237SOL     OW45549   9.741   7.240   1.331
81237SOL    HW145550   9.655   7.241   1.289
81237SOL    HW245551   9.804   7.239   1.258
81238SOL     OW45552  10.024   5.573  10.845
81238SOL    HW145553   9.931   5.592  10.852
81238SOL    HW245554  10.060   5.648  10.798
81239SOL     OW45555  12.308   7.669  11.759
81239SOL    HW145556  12.397   7.703  11.773
81239SOL    HW245557  12.255   7.748  11.744
81240SOL     OW45558   1.113   5.031  13.578
81240SOL    HW145559   1.148   5.111  13.618
81240SOL    HW245560   1.081   5.058  13.492
81241SOL     OW45561   6.010  12.624   1.470
81241SOL    HW145562   5.916  12.639   1.463
81241SOL    HW245563   6.048  12.711   1.485
81242SOL     OW45564   8.134   7.708  11.044
81242SOL    HW145565   8.061   7.705  10.981
81242SOL    HW245566   8.209   7.733  10.991
81243SOL     OW45567   9.414   1.631   2.881
81243SOL    HW145568   9.349   1.642   2.950
81243SOL    HW245569   9.497   1.656   2.921
81244SOL     OW45570   5.846  10.481   1.418
81244SOL    HW145571   5.832  10.518   1.505
81244SOL    HW245572   5.794  10.400   1.418
81245SOL     OW45573   1.633   0.527  13.862
81245SOL    HW145574   1.583   0.599  13.901
81245SOL    HW245575   1.614   0.532  13.768
81246SOL     OW45576  11.401   9.733  13.707
81246SOL    HW145577  11.446   9.803  13.754
81246SOL    HW245578  11.472   9.680  13.670
81247SOL     OW45579  11.399   3.443   3.113
81247SOL    HW145580  11.316   3.449   3.159
81247SOL    HW245581  11.398   3.358   3.070
81248SOL     OW45582   9.197   2.493   6.043
81248SOL    HW145583   9.182   2.574   6.091
81248SOL    HW245584   9.110   2.465   6.016
81249SOL     OW45585   5.312   0.088   4.378
81249SOL    HW145586   5.334   0.128   4.294
81249SOL    HW245587   5.321  14.870   4.363
81250SOL     OW45588   7.972  14.150   7.454
81250SOL    HW145589   7.888  14.190   7.479
81250SOL    HW245590   8.038  14.210   7.488
81251SOL     OW45591   0.448   7.612  13.018
81251SOL    HW145592   0.424   7.623  13.110
81251SOL    HW245593   0.507   7.537  13.017
81252SOL     OW45594   2.680   4.295   4.925
81252SOL    HW145595   2.602   4.240   4.931
81252SOL    HW245596   2.648   4.383   4.906
81253SOL     OW45597   0.729   4.033  10.283
81253SOL    HW145598   0.757   3.969  10.218
81253SOL    HW245599   0.671   4.092  10.234
81254SOL     OW45600   0.095   9.398   7.806
81254SOL    HW145601   0.044   9.460   7.754
81254SOL    HW245602   0.086   9.429   7.896
81255SOL     OW45603   4.504   8.651  10.897
81255SOL    HW145604   4.446   8.631  10.824
81255SOL    HW245605   4.590   8.666  10.856
81256SOL     OW45606   2.521   6.667   3.233
81256SOL    HW145607   2.573   6.746   3.214
81256SOL    HW245608   2.477   6.648   3.150
81257SOL     OW45609   4.734   9.825   2.958
81257SOL    HW145610   4.815   9.828   2.907
81257SOL    HW245611   4.681   9.897   2.923
81258SOL     OW45612   3.763  14.590  10.430
81258SOL    HW145613   3.789  14.608  10.340
81258SOL    HW245614   3.846  14.575  10.476
81259SOL     OW45615   8.307   3.532   5.143
81259SOL    HW145616   8.402   3.519   5.133
81259SOL    HW245617   8.291   3.620   5.108
81260SOL     OW45618   1.761   1.637   4.691
81260SOL    HW145619   1.856   1.628   4.698
81260SOL    HW245620   1.739   1.591   4.610
81261SOL     OW45621   5.346  12.635   4.890
81261SOL    HW145622   5.344  12.642   4.985
81261SOL    HW245623   5.278  12.696   4.861
81262SOL     OW45624   0.988   4.441   7.565
81262SOL    HW145625   0.958   4.482   7.484
81262SOL    HW245626   0.920   4.463   7.629
81263SOL     OW45627   4.476  12.250   6.129
81263SOL    HW145628   4.433  12.284   6.208
81263SOL    HW245629   4.497  12.328   6.078
81264SOL     OW45630   7.190   7.665  11.884
81264SOL    HW145631   7.117   7.649  11.945
81264SOL    HW245632   7.265   7.680  11.941
81265SOL     OW45633  10.128   0.423   6.250
81265SOL    HW145634  10.182   0.464   6.317
81265SOL    HW245635  10.041   0.415   6.291
81266SOL     OW45636   6.760   5.601   2.440
81266SOL    HW145637   6.809   5.646   2.371
81266SOL    HW245638   6.669   5.620   2.422
81267SOL     OW45639  14.651   7.908   3.098
81267SOL    HW145640  14.568   7.937   3.059
81267SOL    HW245641  14.641   7.928   3.191
81268SOL     OW45642   7.984  12.052   0.694
81268SOL    HW145643   7.890  12.071   0.692
81268SOL    HW245644   8.024  12.125   0.648
81269SOL     OW45645   1.024   7.112   9.019
81269SOL    HW145646   1.065   7.172   9.082
81269SOL    HW245647   0.965   7.059   9.072
81270SOL     OW45648  14.175   3.243   6.613
81270SOL    HW145649  14.142   3.211   6.697
81270SOL    HW245650  14.216   3.167   6.572
81271SOL     OW45651   9.890   8.117   6.838
81271SOL    HW145652   9.841   8.063   6.900
81271SOL    HW245653   9.831   8.190   6.818
81272SOL     OW45654  12.194   1.242  12.227
81272SOL    HW145655  12.257   1.313  12.212
81272SOL    HW245656  12.211   1.180  12.157
81273SOL     OW45657   8.111   1.768   0.567
81273SOL    HW145658   8.122   1.857   0.535
81273SOL    HW245659   8.139   1.772   0.658
81274SOL     OW45660   4.686   5.835  11.730
81274SOL    HW145661   4.748   5.844  11.802
81274SOL    HW245662   4.729   5.874  11.655
81275SOL     OW45663   0.351   2.117   2.611
81275SOL    HW145664   0.355   2.107   2.516
81275SOL    HW245665   0.423   2.062   2.643
81276SOL     OW45666   5.822   0.199   2.817
81276SOL    HW145667   5.860   0.258   2.752
81276SOL    HW245668   5.897   0.161   2.863
81277SOL     OW45669   7.789   6.147   3.236
81277SOL    HW145670   7.836   6.141   3.153
81277SOL    HW245671   7.697   6.153   3.211
81278SOL     OW45672   8.837   0.056   5.284
81278SOL    HW145673   8.821  14.856   5.227
81278SOL    HW245674   8.864   0.018   5.367
81279SOL     OW45675  11.690  12.901   3.349
81279SOL    HW145676  11.687  12.903   3.253
81279SOL    HW245677  11.602  12.926   3.377
81280SOL     OW45678  10.060   2.144   3.703
81280SOL    HW145679  10.116   2.121   3.629
81280SOL    HW245680   9.983   2.088   3.693
81281SOL     OW45681  11.598  13.283  13.424
81281SOL    HW145682  11.617  13.248  13.512
81281SOL    HW245683  11.526  13.345  13.438
81282SOL     OW45684  10.165   2.724  14.393
81282SOL    HW145685  10.143   2.802  14.444
81282SOL    HW245686  10.123   2.652  14.440
81283SOL     OW45687   2.181  10.661   6.964
81283SOL    HW145688   2.129  10.581   6.969
81283SOL    HW245689   2.217  10.661   6.875
81284SOL     OW45690   3.845   5.471   4.513
81284SOL    HW145691   3.897   5.498   4.589
81284SOL    HW245692   3.831   5.551   4.463
81285SOL     OW45693  10.521   7.564  10.611
81285SOL    HW145694  10.587   7.634  10.611
81285SOL    HW245695  10.478   7.573  10.696
81286SOL     OW45696  14.108   8.335   7.681
81286SOL    HW145697  14.123   8.305   7.770
81286SOL    HW245698  14.170   8.406   7.668
81287SOL     OW45699   4.062   0.237  13.757
81287SOL    HW145700   4.073   0.218  13.850
81287SOL    HW245701   4.068   0.151  13.714
81288SOL     OW45702  13.543   4.745  13.611
81288SOL    HW145703  13.627   4.746  13.566
81288SOL    HW245704  13.544   4.664  13.662
81289SOL     OW45705  12.935   4.546   6.123
81289SOL    HW145706  12.879   4.616   6.089
81289SOL    HW245707  12.876   4.473   6.139
81290SOL     OW45708   1.636   7.094   5.871
81290SOL    HW145709   1.661   7.058   5.956
81290SOL    HW245710   1.712   7.081   5.816
81291SOL     OW45711   9.607   8.976  14.306
81291SOL    HW145712   9.665   9.052  14.305
81291SOL    HW245713   9.647   8.917  14.370
81292SOL     OW45714  14.342   9.044   4.834
81292SOL    HW145715  14.419   8.990   4.849
81292SOL    HW245716  14.330   9.092   4.916
81293SOL     OW45717  14.195   1.477   2.035
81293SOL    HW145718  14.289   1.492   2.031
81293SOL    HW245719  14.170   1.504   2.123
81294SOL     OW45720  10.466   2.642   1.358
81294SOL    HW145721  10.559   2.643   1.337
81294SOL    HW245722  10.422   2.660   1.275
81295SOL     OW45723   8.142  14.715  12.959
81295SOL    HW145724   8.131  14.720  13.054
81295SOL    HW245725   8.168  14.624  12.944
81296SOL     OW45726   6.372  13.273   5.766
81296SOL    HW145727   6.363  13.275   5.671
81296SOL    HW245728   6.443  13.211   5.783
81297SOL     OW45729   2.873   6.932   7.779
81297SOL    HW145730   2.879   6.855   7.836
81297SOL    HW245731   2.928   6.998   7.822
81298SOL     OW45732   4.372   6.923   4.607
81298SOL    HW145733   4.432   6.997   4.610
81298SOL    HW245734   4.350   6.914   4.514
81299SOL     OW45735  11.073   9.656   0.132
81299SOL    HW145736  11.154   9.694   0.165
81299SOL    HW245737  11.101   9.583   0.077
81300SOL     OW45738  14.203   2.549  13.784
81300SOL    HW145739  14.167   2.635  13.759
81300SOL    HW245740  14.297   2.557  13.770
81301SOL     OW45741   3.748  13.820   7.208
81301SOL    HW145742   3.697  13.807   7.288
81301SOL    HW245743   3.732  13.740   7.157
81302SOL     OW45744  13.351   4.208   2.584
81302SOL    HW145745  13.303   4.192   2.502
81302SOL    HW245746  13.286   4.192   2.653
81303SOL     OW45747   5.218  13.753   0.952
81303SOL    HW145748   5.125  13.731   0.951
81303SOL    HW245749   5.254  13.713   0.873
81304SOL     OW45750   7.023   0.552  13.049
81304SOL    HW145751   7.113   0.556  13.081
81304SOL    HW245752   7.015   0.465  13.009
81305SOL     OW45753   9.837   3.281  11.637
81305SOL    HW145754   9.809   3.233  11.559
81305SOL    HW245755   9.932   3.276  11.634
81306SOL     OW45756   9.987   0.347   3.183
81306SOL    HW145757   9.895   0.323   3.183
81306SOL    HW245758  10.011   0.347   3.090
81307SOL     OW45759   8.463  14.147   7.022
81307SOL    HW145760   8.491  14.232   7.056
81307SOL    HW245761   8.437  14.165   6.932
81308SOL     OW45762   6.500  14.033   8.506
81308SOL    HW145763   6.541  13.990   8.581
81308SOL    HW245764   6.570  14.039   8.441
81309SOL     OW45765  14.188   8.773  13.195
81309SOL    HW145766  14.123   8.811  13.136
81309SOL    HW245767  14.140   8.706  13.243
81310SOL     OW45768  14.751   1.941   2.643
81310SOL    HW145769  14.741   1.892   2.724
81310SOL    HW245770  14.713   1.884   2.576
81311SOL     OW45771   6.503   4.168  11.356
81311SOL    HW145772   6.429   4.194  11.301
81311SOL    HW245773   6.464   4.150  11.441
81312SOL     OW45774   9.325   6.444  10.527
81312SOL    HW145775   9.339   6.354  10.557
81312SOL    HW245776   9.349   6.442  10.434
81313SOL     OW45777   9.338  14.393  12.953
81313SOL    HW145778   9.369  14.311  12.991
81313SOL    HW245779   9.415  14.430  12.910
81314SOL     OW45780  12.502   8.930  14.455
81314SOL    HW145781  12.469   8.995  14.517
81314SOL    HW245782  12.521   8.980  14.376
81315SOL     OW45783   1.285   8.079   1.239
81315SOL    HW145784   1.307   8.133   1.163
81315SOL    HW245785   1.358   8.092   1.299
81316SOL     OW45786   2.412   8.862   7.277
81316SOL    HW145787   2.407   8.813   7.195
81316SOL    HW245788   2.504   8.855   7.304
81317SOL     OW45789   2.439  12.005   9.682
81317SOL    HW145790   2.446  11.945   9.757
81317SOL    HW245791   2.476  12.087   9.712
81318SOL     OW45792   6.643   4.538   9.070
81318SOL    HW145793   6.639   4.479   8.995
81318SOL    HW245794   6.671   4.622   9.034
81319SOL     OW45795   0.444   1.840   2.696
81319SOL    HW145796   0.351   1.848   2.721
81319SOL    HW245797   0.461   1.746   2.695
81320SOL     OW45798   2.591   9.441   6.967
81320SOL    HW145799   2.678   9.416   6.937
81320SOL    HW245800   2.550   9.359   6.995
81321SOL     OW45801   6.517  12.578  10.923
81321SOL    HW145802   6.578  12.539  10.987
81321SOL    HW245803   6.536  12.532  10.841
81322SOL     OW45804  10.125  14.212   4.827
81322SOL    HW145805  10.089  14.301   4.822
81322SOL    HW245806  10.180  14.213   4.905
81323SOL     OW45807   9.873  10.309  10.163
81323SOL    HW145808   9.854  10.278  10.074
81323SOL    HW245809   9.828  10.247  10.220
81324SOL     OW45810  10.102   6.283   8.326
81324SOL    HW145811  10.120   6.333   8.406
81324SOL    HW245812  10.182   6.292   8.274
81325SOL     OW45813   0.601   3.556   3.930
81325SOL    HW145814   0.601   3.489   3.861
81325SOL    HW245815   0.590   3.639   3.883
81326SOL     OW45816   6.299   6.012   0.803
81326SOL    HW145817   6.245   5.937   0.781
81326SOL    HW245818   6.240   6.087   0.795
81327SOL     OW45819   0.212  14.083   8.687
81327SOL    HW145820   0.153  14.012   8.711
81327SOL    HW245821   0.282  14.041   8.637
81328SOL     OW45822   0.939   8.682  14.467
81328SOL    HW145823   1.030   8.655  14.480
81328SOL    HW245824   0.900   8.679  14.554
81329SOL     OW45825   0.945   7.307   7.160
81329SOL    HW145826   0.956   7.337   7.070
81329SOL    HW245827   1.005   7.234   7.169
81330SOL     OW45828   9.315  12.242   0.591
81330SOL    HW145829   9.307  12.277   0.680
81330SOL    HW245830   9.404  12.206   0.588
81331SOL     OW45831   2.755   8.449   1.688
81331SOL    HW145832   2.702   8.474   1.612
81331SOL    HW245833   2.802   8.529   1.712
81332SOL     OW45834  11.672   8.221  14.846
81332SOL    HW145835  11.724   8.224  14.766
81332SOL    HW245836  11.711   8.288   0.025
81333SOL     OW45837   4.816  12.427   6.596
81333SOL    HW145838   4.737  12.421   6.542
81333SOL    HW245839   4.823  12.342   6.638
81334SOL     OW45840   8.631   3.514  14.200
81334SOL    HW145841   8.616   3.438  14.143
81334SOL    HW245842   8.689   3.570  14.150
81335SOL     OW45843   5.036   0.827   9.787
81335SOL    HW145844   5.073   0.845   9.873
81335SOL    HW245845   4.963   0.889   9.779
81336SOL     OW45846   4.992   5.825  12.341
81336SOL    HW145847   4.970   5.906  12.294
81336SOL    HW245848   4.925   5.818  12.409
81337SOL     OW45849   6.815   9.895  10.785
81337SOL    HW145850   6.908   9.887  10.809
81337SOL    HW245851   6.801   9.829  10.718
81338SOL     OW45852  12.881  14.354   2.091
81338SOL    HW145853  12.975  14.337   2.091
81338SOL    HW245854  12.849  14.316   2.173
81339SOL     OW45855   6.417   8.520   4.262
81339SOL    HW145856   6.498   8.538   4.309
81339SOL    HW245857   6.356   8.587   4.293
81340SOL     OW45858   3.865   0.173   7.347
81340SOL    HW145859   3.802   0.241   7.322
81340SOL    HW245860   3.815   0.115   7.405
81341SOL     OW45861   7.197   8.454   6.996
81341SOL    HW145862   7.108   8.478   6.969
81341SOL    HW245863   7.188   8.430   7.089
81342SOL     OW45864  12.988   5.342   1.979
81342SOL    HW145865  12.903   5.304   1.958
81342SOL    HW245866  12.969   5.433   2.003
81343SOL     OW45867   7.860   3.889  14.143
81343SOL    HW145868   7.810   3.808  14.157
81343SOL    HW245869   7.949   3.859  14.124
81344SOL     OW45870   0.507   9.649   9.700
81344SOL    HW145871   0.497   9.579   9.636
81344SOL    HW245872   0.449   9.624   9.772
81345SOL     OW45873  12.609   8.378  11.505
81345SOL    HW145874  12.524   8.358  11.468
81345SOL    HW245875  12.634   8.299  11.553
81346SOL     OW45876   9.510   0.625   1.565
81346SOL    HW145877   9.601   0.597   1.551
81346SOL    HW245878   9.515   0.720   1.570
81347SOL     OW45879   4.688   2.761  11.976
81347SOL    HW145880   4.612   2.819  11.972
81347SOL    HW245881   4.728   2.767  11.890
81348SOL     OW45882   9.873   1.875  11.738
81348SOL    HW145883   9.796   1.931  11.724
81348SOL    HW245884   9.946   1.936  11.748
81349SOL     OW45885  12.769  10.526   1.453
81349SOL    HW145886  12.759  10.434   1.427
81349SOL    HW245887  12.714  10.574   1.392
81350SOL     OW45888   5.219  12.751  11.589
81350SOL    HW145889   5.283  12.730  11.657
81350SOL    HW245890   5.269  12.798  11.523
81351SOL     OW45891  12.619  12.227  10.115
81351SOL    HW145892  12.542  12.193  10.160
81351SOL    HW245893  12.684  12.240  10.184
81352SOL     OW45894   1.348   0.321   6.326
81352SOL    HW145895   1.411   0.378   6.283
81352SOL    HW245896   1.332   0.250   6.263
81353SOL     OW45897  11.566  14.413  12.362
81353SOL    HW145898  11.539  14.321  12.359
81353SOL    HW245899  11.652  14.411  12.405
81354SOL     OW45900   6.475  13.479  12.057
81354SOL    HW145901   6.466  13.388  12.083
81354SOL    HW245902   6.481  13.477  11.961
81355SOL     OW45903   0.290   8.333   7.528
81355SOL    HW145904   0.370   8.344   7.579
81355SOL    HW245905   0.283   8.413   7.477
81356SOL     OW45906  11.112   5.732  14.432
81356SOL    HW145907  11.181   5.693  14.378
81356SOL    HW245908  11.152   5.810  14.470
81357SOL     OW45909   7.246   2.743   9.436
81357SOL    HW145910   7.321   2.685   9.418
81357SOL    HW245911   7.201   2.700   9.509
81358SOL     OW45912   7.995  11.880   8.203
81358SOL    HW145913   7.902  11.884   8.225
81358SOL    HW245914   8.035  11.952   8.251
81359SOL     OW45915  13.063   4.567  14.140
81359SOL    HW145916  13.114   4.515  14.202
81359SOL    HW245917  13.032   4.642  14.192
81360SOL     OW45918   9.615   0.516   7.454
81360SOL    HW145919   9.659   0.432   7.469
81360SOL    HW245920   9.671   0.580   7.497
81361SOL     OW45921   0.796   8.647  10.082
81361SOL    HW145922   0.871   8.625  10.136
81361SOL    HW245923   0.728   8.584  10.107
81362SOL     OW45924  11.710   6.479  13.988
81362SOL    HW145925  11.682   6.389  13.972
81362SOL    HW245926  11.769   6.473  14.063
81363SOL     OW45927   7.464   1.454   3.708
81363SOL    HW145928   7.369   1.465   3.718
81363SOL    HW245929   7.489   1.519   3.642
81364SOL     OW45930  11.342   3.786  13.390
81364SOL    HW145931  11.436   3.802  13.380
81364SOL    HW245932  11.336   3.693  13.415
81365SOL     OW45933   8.393   1.993  13.562
81365SOL    HW145934   8.303   2.008  13.534
81365SOL    HW245935   8.423   1.919  13.509
81366SOL     OW45936   7.719  12.387   2.650
81366SOL    HW145937   7.691  12.466   2.604
81366SOL    HW245938   7.813  12.398   2.662
81367SOL     OW45939  13.644  13.379   1.889
81367SOL    HW145940  13.626  13.345   1.976
81367SOL    HW245941  13.735  13.408   1.892
81368SOL     OW45942   5.463  13.330   1.558
81368SOL    HW145943   5.463  13.240   1.527
81368SOL    HW245944   5.370  13.355   1.558
81369SOL     OW45945  14.370   9.070   0.234
81369SOL    HW145946  14.446   9.032   0.190
81369SOL    HW245947  14.407   9.116   0.309
81370SOL     OW45948   3.084  10.197  11.747
81370SOL    HW145949   3.076  10.283  11.706
81370SOL    HW245950   3.140  10.212  11.823
81371SOL     OW45951   7.676   8.106   9.820
81371SOL    HW145952   7.715   8.096   9.733
81371SOL    HW245953   7.749   8.095   9.881
81372SOL     OW45954  11.072   5.389  13.742
81372SOL    HW145955  11.165   5.366  13.744
81372SOL    HW245956  11.069   5.474  13.699
81373SOL     OW45957   5.108   7.428  13.632
81373SOL    HW145958   5.183   7.464  13.680
81373SOL    HW245959   5.131   7.440  13.540
81374SOL     OW45960  11.816   5.596   2.981
81374SOL    HW145961  11.749   5.616   3.047
81374SOL    HW245962  11.870   5.528   3.020
81375SOL     OW45963   4.407  11.978   5.121
81375SOL    HW145964   4.483  12.036   5.129
81375SOL    HW245965   4.434  11.897   5.164
81376SOL     OW45966   2.912  12.708  13.404
81376SOL    HW145967   2.870  12.738  13.323
81376SOL    HW245968   2.902  12.613  13.402
81377SOL     OW45969  13.954  13.772  12.860
81377SOL    HW145970  13.983  13.733  12.777
81377SOL    HW245971  13.984  13.863  12.855
81378SOL     OW45972  14.296  11.423   7.139
81378SOL    HW145973  14.253  11.345   7.173
81378SOL    HW245974  14.369  11.439   7.199
81379SOL     OW45975  13.458  12.627  13.521
81379SOL    HW145976  13.452  12.620  13.425
81379SOL    HW245977  13.437  12.540  13.553
81380SOL     OW45978   4.403   5.025   3.479
81380SOL    HW145979   4.335   5.089   3.459
81380SOL    HW245980   4.400   5.015   3.574
81381SOL     OW45981   9.608  13.125   0.556
81381SOL    HW145982   9.570  13.196   0.608
81381SOL    HW245983   9.534  13.067   0.536
81382SOL     OW45984   8.203   9.200   6.903
81382SOL    HW145985   8.159   9.136   6.847
81382SOL    HW245986   8.229   9.271   6.844
81383SOL     OW45987  10.421   5.779   8.965
81383SOL    HW145988  10.340   5.730   8.981
81383SOL    HW245989  10.472   5.722   8.907
81384SOL     OW45990  13.043   0.870   7.122
81384SOL    HW145991  13.081   0.916   7.047
81384SOL    HW245992  13.004   0.939   7.176
81385SOL     OW45993   8.714   1.249   3.540
81385SOL    HW145994   8.619   1.255   3.550
81385SOL    HW245995   8.743   1.200   3.617
81386SOL     OW45996   9.334   5.036   6.119
81386SOL    HW145997   9.250   5.025   6.163
81386SOL    HW245998   9.316   5.012   6.028
81387SOL     OW45999   1.321  13.814  11.745
81387SOL    HW146000   1.304  13.844  11.835
81387SOL    HW246001   1.315  13.893  11.692
81388SOL     OW46002  10.606   3.736   5.851
81388SOL    HW146003  10.558   3.787   5.916
81388SOL    HW246004  10.556   3.748   5.770
81389SOL     OW46005   9.497   3.048  10.594
81389SOL    HW146006   9.453   3.019  10.674
81389SOL    HW246007   9.539   2.969  10.560
81390SOL     OW46008   9.759  14.097  14.723
81390SOL    HW146009   9.720  14.178  14.757
81390SOL    HW246010   9.836  14.127  14.674
81391SOL     OW46011   7.351   4.466   4.489
81391SOL    HW146012   7.413   4.474   4.416
81391SOL    HW246013   7.308   4.551   4.494
81392SOL     OW46014  12.262   9.038   1.381
81392SOL    HW146015  12.356   9.024   1.367
81392SOL    HW246016  12.244   8.998   1.465
81393SOL     OW46017   1.717   4.092  10.824
81393SOL    HW146018   1.740   4.001  10.807
81393SOL    HW246019   1.690   4.094  10.916
81394SOL     OW46020  10.925   1.315  12.756
81394SOL    HW146021  10.906   1.405  12.730
81394SOL    HW246022  10.841   1.270  12.751
81395SOL     OW46023  13.953   0.302  13.985
81395SOL    HW146024  14.002   0.308  14.066
81395SOL    HW246025  13.906   0.219  13.991
81396SOL     OW46026   4.498   3.785   4.678
81396SOL    HW146027   4.590   3.783   4.653
81396SOL    HW246028   4.486   3.707   4.732
81397SOL     OW46029   0.901  10.918   8.748
81397SOL    HW146030   0.839  10.878   8.809
81397SOL    HW246031   0.847  10.961   8.683
81398SOL     OW46032   6.843   3.427  11.317
81398SOL    HW146033   6.843   3.344  11.365
81398SOL    HW246034   6.920   3.423  11.261
81399SOL     OW46035   5.158   7.536   5.429
81399SOL    HW146036   5.105   7.503   5.502
81399SOL    HW246037   5.171   7.461   5.372
81400SOL     OW46038   9.213   0.498   3.303
81400SOL    HW146039   9.298   0.501   3.259
81400SOL    HW246040   9.149   0.497   3.231
81401SOL     OW46041   9.926   2.639   0.234
81401SOL    HW146042   9.924   2.556   0.281
81401SOL    HW246043   9.834   2.659   0.216
81402SOL     OW46044  14.124   6.870   4.790
81402SOL    HW146045  14.135   6.814   4.713
81402SOL    HW246046  14.080   6.949   4.757
81403SOL     OW46047  12.594  10.588  12.966
81403SOL    HW146048  12.683  10.554  12.960
81403SOL    HW246049  12.549  10.527  13.024
81404SOL     OW46050   0.424  13.405   8.859
81404SOL    HW146051   0.451  13.448   8.940
81404SOL    HW246052   0.506  13.381   8.816
81405SOL     OW46053   7.896   0.287  12.369
81405SOL    HW146054   7.906   0.233  12.448
81405SOL    HW246055   7.971   0.346  12.370
81406SOL     OW46056   7.934   6.118   9.527
81406SOL    HW146057   7.969   6.183   9.466
81406SOL    HW246058   8.005   6.103   9.590
81407SOL     OW46059   2.435  13.937   9.061
81407SOL    HW146060   2.498  13.983   9.117
81407SOL    HW246061   2.397  13.870   9.118
81408SOL     OW46062   8.110   5.635   7.321
81408SOL    HW146063   8.082   5.640   7.229
81408SOL    HW246064   8.033   5.601   7.367
81409SOL     OW46065   5.427  12.575   1.436
81409SOL    HW146066   5.514  12.539   1.456
81409SOL    HW246067   5.368  12.528   1.495
81410SOL     OW46068  14.819   9.036  13.331
81410SOL    HW146069  14.729   9.016  13.358
81410SOL    HW246070  14.870   8.961  13.360
81411SOL     OW46071   2.667   1.044   9.417
81411SOL    HW146072   2.736   0.986   9.450
81411SOL    HW246073   2.672   1.035   9.322
81412SOL     OW46074   8.443   9.532  10.253
81412SOL    HW146075   8.435   9.488  10.168
81412SOL    HW246076   8.360   9.514  10.297
81413SOL     OW46077  10.502   9.565   7.531
81413SOL    HW146078  10.575   9.573   7.592
81413SOL    HW246079  10.504   9.473   7.503
81414SOL     OW46080   4.866  12.750   3.703
81414SOL    HW146081   4.794  12.795   3.749
81414SOL    HW246082   4.945  12.797   3.731
81415SOL     OW46083   1.437   9.932  12.261
81415SOL    HW146084   1.416   9.843  12.232
81415SOL    HW246085   1.401   9.938  12.350
81416SOL     OW46086  12.722   8.428  14.109
81416SOL    HW146087  12.741   8.487  14.182
81416SOL    HW246088  12.711   8.487  14.033
81417SOL     OW46089   8.700  14.234   1.890
81417SOL    HW146090   8.758  14.307   1.868
81417SOL    HW246091   8.750  14.156   1.863
81418SOL     OW46092  13.322  10.940   6.867
81418SOL    HW146093  13.226  10.936   6.860
81418SOL    HW246094  13.353  10.863   6.819
81419SOL     OW46095   8.103  14.058   8.341
81419SOL    HW146096   8.114  14.154   8.338
81419SOL    HW246097   8.191  14.024   8.322
81420SOL     OW46098   8.344   7.774   0.869
81420SOL    HW146099   8.387   7.853   0.838
81420SOL    HW246100   8.341   7.784   0.964
81421SOL     OW46101  14.790  10.109   0.280
81421SOL    HW146102  14.730  10.170   0.237
81421SOL    HW246103  14.734  10.050   0.329
81422SOL     OW46104  11.058   3.419  13.436
81422SOL    HW146105  11.066   3.406  13.341
81422SOL    HW246106  10.964   3.420  13.452
81423SOL     OW46107  10.484  13.632   1.137
81423SOL    HW146108  10.412  13.695   1.135
81423SOL    HW246109  10.548  13.671   1.197
81424SOL     OW46110  11.708  12.383  10.432
81424SOL    HW146111  11.681  12.294  10.412
81424SOL    HW246112  11.788  12.396  10.382
81425SOL     OW46113   2.262   9.652   7.243
81425SOL    HW146114   2.250   9.690   7.156
81425SOL    HW246115   2.229   9.718   7.303
81426SOL     OW46116   4.503  11.391  12.224
81426SOL    HW146117   4.545  11.471  12.191
81426SOL    HW246118   4.562  11.320  12.197
81427SOL     OW46119   6.365   8.777  10.009
81427SOL    HW146120   6.323   8.691  10.001
81427SOL    HW246121   6.307   8.837   9.962
81428SOL     OW46122  14.397   6.750   3.450
81428SOL    HW146123  14.358   6.685   3.390
81428SOL    HW246124  14.476   6.708   3.482
81429SOL     OW46125   2.241   6.482   7.280
81429SOL    HW146126   2.285   6.545   7.223
81429SOL    HW246127   2.157   6.465   7.237
81430SOL     OW46128  13.003  10.431  14.349
81430SOL    HW146129  13.092  10.411  14.320
81430SOL    HW246130  13.013  10.460  14.439
81431SOL     OW46131   7.620  11.985   3.066
81431SOL    HW146132   7.689  12.002   3.001
81431SOL    HW246133   7.578  12.070   3.078
81432SOL     OW46134   6.158   2.995  14.026
81432SOL    HW146135   6.198   2.953  13.950
81432SOL    HW246136   6.201   2.954  14.101
81433SOL     OW46137   4.001   6.623   4.890
81433SOL    HW146138   4.083   6.644   4.846
81433SOL    HW246139   3.979   6.702   4.940
81434SOL     OW46140   3.714   3.221   4.052
81434SOL    HW146141   3.736   3.153   4.115
81434SOL    HW246142   3.738   3.184   3.967
81435SOL     OW46143  10.448  11.971  10.167
81435SOL    HW146144  10.402  12.054  10.183
81435SOL    HW246145  10.393  11.926  10.103
81436SOL     OW46146   1.399  14.234   5.886
81436SOL    HW146147   1.370  14.206   5.800
81436SOL    HW246148   1.378  14.328   5.889
81437SOL     OW46149  13.949   0.544   6.321
81437SOL    HW146150  13.884   0.477   6.301
81437SOL    HW246151  13.903   0.605   6.379
81438SOL     OW46152   4.276   4.264   3.095
81438SOL    HW146153   4.309   4.220   3.173
81438SOL    HW246154   4.331   4.233   3.024
81439SOL     OW46155   1.055   1.935   5.771
81439SOL    HW146156   1.103   1.990   5.833
81439SOL    HW246157   1.107   1.855   5.764
81440SOL     OW46158   6.878   9.098  10.544
81440SOL    HW146159   6.786   9.122  10.529
81440SOL    HW246160   6.890   9.016  10.497
81441SOL     OW46161   8.956   1.984   7.026
81441SOL    HW146162   8.948   1.926   6.950
81441SOL    HW246163   9.050   2.001   7.032
81442SOL     OW46164   2.079  14.405   1.227
81442SOL    HW146165   2.144  14.368   1.288
81442SOL    HW246166   1.995  14.372   1.259
81443SOL     OW46167   2.478   6.591  10.887
81443SOL    HW146168   2.489   6.672  10.936
81443SOL    HW246169   2.385   6.589  10.864
81444SOL     OW46170   5.519   3.106   9.818
81444SOL    HW146171   5.501   3.024   9.774
81444SOL    HW246172   5.433   3.139   9.844
81445SOL     OW46173   7.982   1.546   9.221
81445SOL    HW146174   7.925   1.618   9.249
81445SOL    HW246175   7.922   1.473   9.204
81446SOL     OW46176   6.855   0.391   9.012
81446SOL    HW146177   6.761   0.398   9.029
81446SOL    HW246178   6.863   0.390   8.917
81447SOL     OW46179   7.485  14.332   8.867
81447SOL    HW146180   7.568  14.371   8.837
81447SOL    HW246181   7.473  14.367   8.955
81448SOL     OW46182   2.086   3.672  10.411
81448SOL    HW146183   2.123   3.701  10.494
81448SOL    HW246184   2.038   3.749  10.378
81449SOL     OW46185   0.329  14.793   6.748
81449SOL    HW146186   0.307  14.723   6.686
81449SOL    HW246187   0.356  14.866   6.692
81450SOL     OW46188   3.629   9.382   2.883
81450SOL    HW146189   3.621   9.454   2.820
81450SOL    HW246190   3.542   9.342   2.886
81451SOL     OW46191  14.220   6.763   4.549
81451SOL    HW146192  14.309   6.755   4.583
81451SOL    HW246193  14.228   6.748   4.455
81452SOL     OW46194  14.146   5.021   6.735
81452SOL    HW146195  14.188   5.104   6.710
81452SOL    HW246196  14.058   5.046   6.764
81453SOL     OW46197   9.127  14.829   2.478
81453SOL    HW146198   9.130  14.786   2.564
81453SOL    HW246199   9.068   0.027   2.490
81454SOL     OW46200   8.305   9.838   5.456
81454SOL    HW146201   8.311   9.742   5.453
81454SOL    HW246202   8.354   9.862   5.535
81455SOL     OW46203  12.422   6.624   2.541
81455SOL    HW146204  12.328   6.633   2.523
81455SOL    HW246205  12.458   6.710   2.516
81456SOL     OW46206  10.324   7.320   0.547
81456SOL    HW146207  10.289   7.339   0.634
81456SOL    HW246208  10.331   7.225   0.545
81457SOL     OW46209   2.748   8.730   9.809
81457SOL    HW146210   2.664   8.728   9.855
81457SOL    HW246211   2.727   8.704   9.719
81458SOL     OW46212   1.979   1.159  14.025
81458SOL    HW146213   1.932   1.224  13.973
81458SOL    HW246214   2.002   1.090  13.963
81459SOL     OW46215   6.765  13.780   6.439
81459SOL    HW146216   6.813  13.778   6.522
81459SOL    HW246217   6.827  13.747   6.375
81460SOL     OW46218   7.776   5.656   2.085
81460SOL    HW146219   7.761   5.624   1.996
81460SOL    HW246220   7.739   5.744   2.084
81461SOL     OW46221  13.281  13.406   2.787
81461SOL    HW146222  13.188  13.403   2.811
81461SOL    HW246223  13.325  13.433   2.868
81462SOL     OW46224  12.833  10.643  14.296
81462SOL    HW146225  12.888  10.564  14.295
81462SOL    HW246226  12.895  10.714  14.313
81463SOL     OW46227  13.643  10.848   7.017
81463SOL    HW146228  13.602  10.927   7.053
81463SOL    HW246229  13.679  10.877   6.933
81464SOL     OW46230   3.903   8.009   4.464
81464SOL    HW146231   3.874   8.019   4.373
81464SOL    HW246232   3.861   7.928   4.493
81465SOL     OW46233  13.636   3.492   5.350
81465SOL    HW146234  13.725   3.457   5.361
81465SOL    HW246235  13.629   3.510   5.256
81466SOL     OW46236  12.589   6.953  10.726
81466SOL    HW146237  12.538   6.952  10.645
81466SOL    HW246238  12.672   6.994  10.701
81467SOL     OW46239   4.041   1.060   3.136
81467SOL    HW146240   4.113   1.005   3.105
81467SOL    HW246241   4.029   1.125   3.067
81468SOL     OW46242   2.253  14.857   2.576
81468SOL    HW146243   2.270   0.040   2.649
81468SOL    HW246244   2.325  14.795   2.579
81469SOL     OW46245   6.928  14.399  10.337
81469SOL    HW146246   6.864  14.459  10.375
81469SOL    HW246247   6.912  14.402  10.243
81470SOL     OW46248  13.021   7.680  12.337
81470SOL    HW146249  13.009   7.773  12.315
81470SOL    HW246250  13.080   7.681  12.413
81471SOL     OW46251   7.751   1.949   2.925
81471SOL    HW146252   7.678   2.010   2.916
81471SOL    HW246253   7.737   1.905   3.009
81472SOL     OW46254  10.732   7.698   5.934
81472SOL    HW146255  10.684   7.741   6.005
81472SOL    HW246256  10.692   7.612   5.927
81473SOL     OW46257  11.023   6.989  11.932
81473SOL    HW146258  11.088   6.942  11.880
81473SOL    HW246259  10.993   6.926  11.997
81474SOL     OW46260  11.764   4.255  12.243
81474SOL    HW146261  11.687   4.243  12.188
81474SOL    HW246262  11.730   4.292  12.325
81475SOL     OW46263   9.242   0.600   6.246
81475SOL    HW146264   9.240   0.613   6.341
81475SOL    HW246265   9.335   0.598   6.223
81476SOL     OW46266   9.546  14.626  11.797
81476SOL    HW146267   9.546  14.543  11.846
81476SOL    HW246268   9.551  14.694  11.865
81477SOL     OW46269   4.986  13.143  14.024
81477SOL    HW146270   5.028  13.076  13.969
81477SOL    HW246271   4.951  13.206  13.961
81478SOL     OW46272   2.711   9.549   9.252
81478SOL    HW146273   2.656   9.620   9.285
81478SOL    HW246274   2.750   9.511   9.331
81479SOL     OW46275   9.919   8.754  11.959
81479SOL    HW146276   9.937   8.754  12.053
81479SOL    HW246277   9.893   8.844  11.939
81480SOL     OW46278   3.607   3.722  11.784
81480SOL    HW146279   3.559   3.781  11.726
81480SOL    HW246280   3.672   3.681  11.727
81481SOL     OW46281   0.064   8.539   5.792
81481SOL    HW146282   0.096   8.612   5.740
81481SOL    HW246283   0.057   8.466   5.730
81482SOL     OW46284   5.588  14.657   2.097
81482SOL    HW146285   5.608  14.676   2.189
81482SOL    HW246286   5.547  14.571   2.099
81483SOL     OW46287   6.576   3.643  10.348
81483SOL    HW146288   6.544   3.593  10.273
81483SOL    HW246289   6.594   3.577  10.415
81484SOL     OW46290   4.949   3.147   1.448
81484SOL    HW146291   4.935   3.172   1.540
81484SOL    HW246292   5.034   3.184   1.426
81485SOL     OW46293   7.274   8.223   3.630
81485SOL    HW146294   7.281   8.317   3.644
81485SOL    HW246295   7.292   8.185   3.716
81486SOL     OW46296  13.096  10.691   2.193
81486SOL    HW146297  13.013  10.723   2.226
81486SOL    HW246298  13.158  10.709   2.264
81487SOL     OW46299  13.336   7.416   0.177
81487SOL    HW146300  13.255   7.466   0.170
81487SOL    HW246301  13.348   7.403   0.271
81488SOL     OW46302  12.270   4.395  11.370
81488SOL    HW146303  12.181   4.387  11.335
81488SOL    HW246304  12.301   4.305  11.378
81489SOL     OW46305   2.097   2.300   7.879
81489SOL    HW146306   2.085   2.217   7.834
81489SOL    HW246307   2.017   2.349   7.859
81490SOL     OW46308   9.012  12.060   3.643
81490SOL    HW146309   8.923  12.037   3.614
81490SOL    HW246310   9.000  12.118   3.717
81491SOL     OW46311   6.443   1.092   4.413
81491SOL    HW146312   6.505   1.141   4.359
81491SOL    HW246313   6.477   1.101   4.502
81492SOL     OW46314   5.859   4.113  10.593
81492SOL    HW146315   5.866   4.190  10.650
81492SOL    HW246316   5.855   4.150  10.505
81493SOL     OW46317   1.105   5.930   7.673
81493SOL    HW146318   1.096   5.863   7.606
81493SOL    HW246319   1.065   6.008   7.635
81494SOL     OW46320  14.819   3.924  12.959
81494SOL    HW146321  14.859   3.972  13.032
81494SOL    HW246322  14.824   3.832  12.985
81495SOL     OW46323  14.592  14.476   9.926
81495SOL    HW146324  14.659  14.486   9.995
81495SOL    HW246325  14.515  14.444   9.973
81496SOL     OW46326   7.707  12.121   0.674
81496SOL    HW146327   7.623  12.113   0.629
81496SOL    HW246328   7.728  12.215   0.670
81497SOL     OW46329   7.855   1.077   5.904
81497SOL    HW146330   7.948   1.098   5.909
81497SOL    HW246331   7.822   1.088   5.993
81498SOL     OW46332   7.532  12.843   7.662
81498SOL    HW146333   7.517  12.856   7.755
81498SOL    HW246334   7.591  12.768   7.657
81499SOL     OW46335   3.113   5.337   7.005
81499SOL    HW146336   3.033   5.325   6.954
81499SOL    HW246337   3.183   5.305   6.948
81500SOL     OW46338   8.651  13.124   4.716
81500SOL    HW146339   8.691  13.129   4.630
81500SOL    HW246340   8.557  13.129   4.699
81501SOL     OW46341   1.900  12.492  14.170
81501SOL    HW146342   1.819  12.465  14.214
81501SOL    HW246343   1.970  12.451  14.222
81502SOL     OW46344  10.212  12.655   2.898
81502SOL    HW146345  10.124  12.692   2.890
81502SOL    HW246346  10.222  12.598   2.822
81503SOL     OW46347   5.545   8.564   9.594
81503SOL    HW146348   5.526   8.518   9.512
81503SOL    HW246349   5.597   8.502   9.644
81504SOL     OW46350  12.694   7.477  13.838
81504SOL    HW146351  12.646   7.394  13.831
81504SOL    HW246352  12.692   7.513  13.749
81505SOL     OW46353   6.172  12.254   4.805
81505SOL    HW146354   6.145  12.307   4.880
81505SOL    HW246355   6.114  12.178   4.808
81506SOL     OW46356  14.020   5.705  13.154
81506SOL    HW146357  14.014   5.662  13.239
81506SOL    HW246358  14.109   5.687  13.124
81507SOL     OW46359  13.512  10.776   7.682
81507SOL    HW146360  13.546  10.778   7.593
81507SOL    HW246361  13.469  10.691   7.691
81508SOL     OW46362  14.213   6.964  13.157
81508SOL    HW146363  14.136   6.934  13.109
81508SOL    HW246364  14.224   6.899  13.227
81509SOL     OW46365   5.180   2.169  13.315
81509SOL    HW146366   5.274   2.158  13.329
81509SOL    HW246367   5.141   2.093  13.358
81510SOL     OW46368  11.567  12.373   9.498
81510SOL    HW146369  11.621  12.373   9.420
81510SOL    HW246370  11.487  12.420   9.472
81511SOL     OW46371   4.847   1.087   9.054
81511SOL    HW146372   4.835   1.169   9.007
81511SOL    HW246373   4.901   1.033   8.996
81512SOL     OW46374   1.876   0.628  10.583
81512SOL    HW146375   1.900   0.649  10.493
81512SOL    HW246376   1.856   0.534  10.580
81513SOL     OW46377   6.820  13.386   9.491
81513SOL    HW146378   6.890  13.322   9.477
81513SOL    HW246379   6.829  13.411   9.583
81514SOL     OW46380  11.257   6.411  11.679
81514SOL    HW146381  11.283   6.418  11.770
81514SOL    HW246382  11.169   6.373  11.682
81515SOL     OW46383   3.482   0.816   9.318
81515SOL    HW146384   3.460   0.726   9.292
81515SOL    HW246385   3.576   0.813   9.335
81516SOL     OW46386  10.216   3.497  13.759
81516SOL    HW146387  10.214   3.591  13.778
81516SOL    HW246388  10.222   3.455  13.845
81517SOL     OW46389  13.565   4.083   8.384
81517SOL    HW146390  13.641   4.062   8.330
81517SOL    HW246391  13.576   4.029   8.462
81518SOL     OW46392   0.972   3.755   5.279
81518SOL    HW146393   0.895   3.796   5.318
81518SOL    HW246394   0.983   3.673   5.328
81519SOL     OW46395   3.594   6.257  10.465
81519SOL    HW146396   3.519   6.208  10.433
81519SOL    HW246397   3.667   6.196  10.457
81520SOL     OW46398   8.889   7.200   8.396
81520SOL    HW146399   8.794   7.197   8.391
81520SOL    HW246400   8.919   7.187   8.307
81521SOL     OW46401   1.268  11.154  13.214
81521SOL    HW146402   1.347  11.127  13.167
81521SOL    HW246403   1.286  11.243  13.243
81522SOL     OW46404   5.215   4.323   8.271
81522SOL    HW146405   5.191   4.293   8.359
81522SOL    HW246406   5.310   4.317   8.269
81523SOL     OW46407  10.590   3.543   1.316
81523SOL    HW146408  10.520   3.595   1.356
81523SOL    HW246409  10.637   3.506   1.391
81524SOL     OW46410   6.812   5.554   6.826
81524SOL    HW146411   6.832   5.644   6.852
81524SOL    HW246412   6.897   5.514   6.807
81525SOL     OW46413   5.434  12.946   1.302
81525SOL    HW146414   5.424  12.966   1.395
81525SOL    HW246415   5.518  12.985   1.278
81526SOL     OW46416   6.620   5.905   8.542
81526SOL    HW146417   6.709   5.889   8.576
81526SOL    HW246418   6.590   5.982   8.590
81527SOL     OW46419   2.368  10.602   4.306
81527SOL    HW146420   2.373  10.573   4.396
81527SOL    HW246421   2.407  10.531   4.255
81528SOL     OW46422   2.003   7.564   6.649
81528SOL    HW146423   2.078   7.517   6.687
81528SOL    HW246424   2.042   7.642   6.609
81529SOL     OW46425   4.586   4.690   2.092
81529SOL    HW146426   4.566   4.644   2.010
81529SOL    HW246427   4.674   4.661   2.115
81530SOL     OW46428   0.447  11.742  14.271
81530SOL    HW146429   0.465  11.657  14.231
81530SOL    HW246430   0.405  11.793  14.202
81531SOL     OW46431   4.496   5.656   8.221
81531SOL    HW146432   4.462   5.712   8.291
81531SOL    HW246433   4.532   5.718   8.157
81532SOL     OW46434   2.896   2.963   6.702
81532SOL    HW146435   2.969   2.991   6.647
81532SOL    HW246436   2.882   3.036   6.763
81533SOL     OW46437   2.216   3.541  12.587
81533SOL    HW146438   2.137   3.490  12.601
81533SOL    HW246439   2.186   3.622  12.546
81534SOL     OW46440   9.081   2.308  14.129
81534SOL    HW146441   9.087   2.321  14.223
81534SOL    HW246442   9.158   2.257  14.106
81535SOL     OW46443   4.119   2.401   1.027
81535SOL    HW146444   4.042   2.366   1.073
81535SOL    HW246445   4.163   2.454   1.093
81536SOL     OW46446  12.563   2.792   2.823
81536SOL    HW146447  12.628   2.724   2.803
81536SOL    HW246448  12.607   2.848   2.887
81537SOL     OW46449   4.498   1.535   1.670
81537SOL    HW146450   4.527   1.478   1.741
81537SOL    HW246451   4.574   1.541   1.611
81538SOL     OW46452   5.274   3.130  12.947
81538SOL    HW146453   5.204   3.100  13.005
81538SOL    HW246454   5.345   3.156  13.006
81539SOL     OW46455   1.007   2.089   7.364
81539SOL    HW146456   0.942   2.023   7.339
81539SOL    HW246457   1.030   2.133   7.281
81540SOL     OW46458   2.368   9.842   7.577
81540SOL    HW146459   2.391   9.765   7.526
81540SOL    HW246460   2.298   9.884   7.527
81541SOL     OW46461   0.672   3.675   8.916
81541SOL    HW146462   0.762   3.708   8.925
81541SOL    HW246463   0.672   3.628   8.833
81542SOL     OW46464  10.025   1.310   3.262
81542SOL    HW146465  10.007   1.233   3.316
81542SOL    HW246466   9.955   1.312   3.198
81543SOL     OW46467  12.426   9.143  12.498
81543SOL    HW146468  12.353   9.111  12.446
81543SOL    HW246469  12.480   9.066  12.515
81544SOL     OW46470  12.201  10.353   5.889
81544SOL    HW146471  12.160  10.275   5.852
81544SOL    HW246472  12.293  10.345   5.864
81545SOL     OW46473   9.781   0.090  11.492
81545SOL    HW146474   9.864   0.126  11.458
81545SOL    HW246475   9.789  14.872  11.479
81546SOL     OW46476  10.314  12.184  13.328
81546SOL    HW146477  10.350  12.113  13.381
81546SOL    HW246478  10.219  12.178  13.340
81547SOL     OW46479   0.827   0.209   6.499
81547SOL    HW146480   0.739   0.215   6.538
81547SOL    HW246481   0.822   0.266   6.422
81548SOL     OW46482   3.350   8.388   2.114
81548SOL    HW146483   3.403   8.373   2.193
81548SOL    HW246484   3.317   8.477   2.124
81549SOL     OW46485  14.143   5.955   8.677
81549SOL    HW146486  14.151   5.992   8.589
81549SOL    HW246487  14.198   6.012   8.731
81550SOL     OW46488   5.929  11.840  10.365
81550SOL    HW146489   5.856  11.857  10.424
81550SOL    HW246490   5.889  11.795  10.290
81551SOL     OW46491  12.043   8.630   4.927
81551SOL    HW146492  12.081   8.604   4.843
81551SOL    HW246493  11.985   8.557   4.950
81552SOL     OW46494   6.403  11.111   0.806
81552SOL    HW146495   6.437  11.110   0.895
81552SOL    HW246496   6.331  11.049   0.807
81553SOL     OW46497   6.267  13.381  11.475
81553SOL    HW146498   6.209  13.313  11.509
81553SOL    HW246499   6.303  13.423  11.554
81554SOL     OW46500   4.027   7.985   7.302
81554SOL    HW146501   4.002   7.905   7.348
81554SOL    HW246502   4.122   7.990   7.312
81555SOL     OW46503  13.827   2.090   4.359
81555SOL    HW146504  13.733   2.087   4.378
81555SOL    HW246505  13.861   2.009   4.397
81556SOL     OW46506   4.709  13.384   8.545
81556SOL    HW146507   4.792  13.373   8.591
81556SOL    HW246508   4.666  13.299   8.554
81557SOL     OW46509   6.923  10.137   3.037
81557SOL    HW146510   6.880  10.066   3.085
81557SOL    HW246511   6.852  10.176   2.985
81558SOL     OW46512  12.906   6.838   1.654
81558SOL    HW146513  12.869   6.800   1.575
81558SOL    HW246514  12.966   6.905   1.622
81559SOL     OW46515   8.591   2.470   2.645
81559SOL    HW146516   8.542   2.551   2.661
81559SOL    HW246517   8.579   2.419   2.725
81560SOL     OW46518  11.251   9.155  13.448
81560SOL    HW146519  11.324   9.155  13.386
81560SOL    HW246520  11.248   9.244  13.482
81561SOL     OW46521  11.862   7.650  12.836
81561SOL    HW146522  11.850   7.601  12.755
81561SOL    HW246523  11.948   7.623  12.869
81562SOL     OW46524   0.577   0.246   1.551
81562SOL    HW146525   0.668   0.267   1.527
81562SOL    HW246526   0.569   0.153   1.533
81563SOL     OW46527   2.874   9.750  10.597
81563SOL    HW146528   2.910   9.714  10.516
81563SOL    HW246529   2.918   9.701  10.667
81564SOL     OW46530   1.124  13.160   0.899
81564SOL    HW146531   1.056  13.100   0.927
81564SOL    HW246532   1.157  13.200   0.980
81565SOL     OW46533   6.433  10.215   2.685
81565SOL    HW146534   6.471  10.167   2.611
81565SOL    HW246535   6.413  10.301   2.649
81566SOL     OW46536   5.339   2.366   2.973
81566SOL    HW146537   5.295   2.327   2.897
81566SOL    HW246538   5.279   2.434   3.003
81567SOL     OW46539   1.660   7.262  12.304
81567SOL    HW146540   1.590   7.327  12.294
81567SOL    HW246541   1.623   7.197  12.364
81568SOL     OW46542   3.783  11.813  14.502
81568SOL    HW146543   3.777  11.878  14.573
81568SOL    HW246544   3.858  11.841  14.450
81569SOL     OW46545   7.102   8.073   9.347
81569SOL    HW146546   7.123   8.035   9.262
81569SOL    HW246547   7.014   8.109   9.337
81570SOL     OW46548   1.915   7.382   4.499
81570SOL    HW146549   1.842   7.429   4.541
81570SOL    HW246550   1.874   7.305   4.460
81571SOL     OW46551  11.899  12.330   0.076
81571SOL    HW146552  11.949  12.283   0.144
81571SOL    HW246553  11.906  12.422   0.101
81572SOL     OW46554  11.523  14.693   1.993
81572SOL    HW146555  11.481  14.609   1.974
81572SOL    HW246556  11.582  14.707   1.918
81573SOL     OW46557   9.859  14.708  11.503
81573SOL    HW146558   9.859  14.635  11.565
81573SOL    HW246559   9.951  14.715  11.476
81574SOL     OW46560  14.140   0.170   0.635
81574SOL    HW146561  14.076   0.186   0.565
81574SOL    HW246562  14.112   0.087   0.674
81575SOL     OW46563  12.617  13.411  12.677
81575SOL    HW146564  12.707  13.433  12.656
81575SOL    HW246565  12.591  13.347  12.611
81576SOL     OW46566   5.629   4.384   1.677
81576SOL    HW146567   5.547   4.425   1.649
81576SOL    HW246568   5.653   4.326   1.605
81577SOL     OW46569   6.570  13.762   0.791
81577SOL    HW146570   6.556  13.855   0.775
81577SOL    HW246571   6.614  13.759   0.876
81578SOL     OW46572   2.768   0.957  11.190
81578SOL    HW146573   2.705   0.886  11.193
81578SOL    HW246574   2.722   1.032  11.229
81579SOL     OW46575   2.941   1.361   7.718
81579SOL    HW146576   2.883   1.434   7.697
81579SOL    HW246577   2.892   1.283   7.694
81580SOL     OW46578   8.018   9.016   5.837
81580SOL    HW146579   8.087   8.959   5.802
81580SOL    HW246580   8.012   9.088   5.775
81581SOL     OW46581   4.861   3.516  13.878
81581SOL    HW146582   4.898   3.557  13.957
81581SOL    HW246583   4.776   3.482  13.906
81582SOL     OW46584   4.728   8.075   3.314
81582SOL    HW146585   4.640   8.099   3.283
81582SOL    HW246586   4.760   8.014   3.248
81583SOL     OW46587   0.560   5.434   9.095
81583SOL    HW146588   0.559   5.375   9.019
81583SOL    HW246589   0.647   5.422   9.133
81584SOL     OW46590  14.509   5.878   4.896
81584SOL    HW146591  14.568   5.832   4.956
81584SOL    HW246592  14.558   5.883   4.814
81585SOL     OW46593   0.684   2.587   8.201
81585SOL    HW146594   0.608   2.563   8.254
81585SOL    HW246595   0.718   2.666   8.243
81586SOL     OW46596   4.867   5.947   9.061
81586SOL    HW146597   4.881   6.042   9.068
81586SOL    HW246598   4.881   5.928   8.968
81587SOL     OW46599   0.097  10.338   4.959
81587SOL    HW146600   0.178  10.343   5.009
81587SOL    HW246601   0.110  10.264   4.900
81588SOL     OW46602   1.144   6.848   3.280
81588SOL    HW146603   1.118   6.824   3.369
81588SOL    HW246604   1.096   6.788   3.224
81589SOL     OW46605   5.577   7.376   4.534
81589SOL    HW146606   5.507   7.311   4.526
81589SOL    HW246607   5.542   7.440   4.596
81590SOL     OW46608   3.914   6.934   8.996
81590SOL    HW146609   3.970   6.991   9.048
81590SOL    HW246610   3.917   6.972   8.908
81591SOL     OW46611   4.431   8.929  11.612
81591SOL    HW146612   4.491   8.861  11.582
81591SOL    HW246613   4.373   8.946  11.537
81592SOL     OW46614   4.263   0.201   3.276
81592SOL    HW146615   4.267   0.119   3.226
81592SOL    HW246616   4.343   0.201   3.328
81593SOL     OW46617   3.142   9.849   0.154
81593SOL    HW146618   3.152   9.925   0.211
81593SOL    HW246619   3.226   9.802   0.160
81594SOL     OW46620   1.729   9.020  11.022
81594SOL    HW146621   1.771   9.050  10.941
81594SOL    HW246622   1.695   9.100  11.062
81595SOL     OW46623   0.839  14.321  11.546
81595SOL    HW146624   0.803  14.380  11.480
81595SOL    HW246625   0.924  14.359  11.569
81596SOL     OW46626   1.376  10.242  10.421
81596SOL    HW146627   1.334  10.185  10.356
81596SOL    HW246628   1.305  10.300  10.450
81597SOL     OW46629   0.088   1.422  14.182
81597SOL    HW146630   0.177   1.400  14.155
81597SOL    HW246631   0.036   1.412  14.102
81598SOL     OW46632   3.013  11.068   9.837
81598SOL    HW146633   3.086  11.019   9.872
81598SOL    HW246634   2.935  11.024   9.872
81599SOL     OW46635   1.562   9.116  14.490
81599SOL    HW146636   1.636   9.083  14.440
81599SOL    HW246637   1.597   9.189  14.541
81600SOL     OW46638  13.084   9.293  10.695
81600SOL    HW146639  13.103   9.385  10.675
81600SOL    HW246640  13.129   9.243  10.627
81601SOL     OW46641   3.027  10.923  11.940
81601SOL    HW146642   3.068  10.973  12.010
81601SOL    HW246643   2.993  10.989  11.880
81602SOL     OW46644   6.908   9.761  14.704
81602SOL    HW146645   6.817   9.785  14.721
81602SOL    HW246646   6.906   9.721  14.617
81603SOL     OW46647   2.912   3.719   7.935
81603SOL    HW146648   2.914   3.663   8.012
81603SOL    HW246649   2.859   3.670   7.872
81604SOL     OW46650  10.284  11.492   1.124
81604SOL    HW146651  10.334  11.456   1.050
81604SOL    HW246652  10.346  11.549   1.169
81605SOL     OW46653   3.197  11.393  14.541
81605SOL    HW146654   3.109  11.353  14.536
81605SOL    HW246655   3.229  11.391  14.451
81606SOL     OW46656   8.039  10.653   2.653
81606SOL    HW146657   8.105  10.689   2.712
81606SOL    HW246658   8.040  10.713   2.577
81607SOL     OW46659  10.621   7.037   5.809
81607SOL    HW146660  10.527   7.031   5.798
81607SOL    HW246661  10.639   6.994   5.893
81608SOL     OW46662   4.599   4.143  10.409
81608SOL    HW146663   4.610   4.144  10.313
81608SOL    HW246664   4.679   4.183  10.442
81609SOL     OW46665  14.179  13.917   3.410
81609SOL    HW146666  14.266  13.885   3.386
81609SOL    HW246667  14.120  13.844   3.389
81610SOL     OW46668   8.446  12.030  12.475
81610SOL    HW146669   8.499  11.956  12.444
81610SOL    HW246670   8.491  12.062  12.553
81611SOL     OW46671   8.442  12.023  10.651
81611SOL    HW146672   8.444  12.035  10.556
81611SOL    HW246673   8.497  11.946  10.666
81612SOL     OW46674   4.671  11.460   2.690
81612SOL    HW146675   4.648  11.492   2.603
81612SOL    HW246676   4.609  11.390   2.708
81613SOL     OW46677  14.628  10.801  13.055
81613SOL    HW146678  14.707  10.804  13.000
81613SOL    HW246679  14.658  10.762  13.137
81614SOL     OW46680   7.392   5.750   3.293
81614SOL    HW146681   7.344   5.787   3.219
81614SOL    HW246682   7.367   5.657   3.293
81615SOL     OW46683  11.097  11.554  12.716
81615SOL    HW146684  11.025  11.617  12.717
81615SOL    HW246685  11.097  11.518  12.805
81616SOL     OW46686  14.418   9.875   8.290
81616SOL    HW146687  14.427   9.968   8.314
81616SOL    HW246688  14.457   9.868   8.203
81617SOL     OW46689  10.572  14.380   2.921
81617SOL    HW146690  10.561  14.293   2.881
81617SOL    HW246691  10.648  14.417   2.876
81618SOL     OW46692   6.616  11.381   5.291
81618SOL    HW146693   6.601  11.348   5.380
81618SOL    HW246694   6.675  11.318   5.251
81619SOL     OW46695   3.686  10.710  13.196
81619SOL    HW146696   3.639  10.677  13.119
81619SOL    HW246697   3.758  10.762  13.159
81620SOL     OW46698   0.308   2.529   0.107
81620SOL    HW146699   0.242   2.495   0.047
81620SOL    HW246700   0.367   2.579   0.051
81621SOL     OW46701   7.930  13.251  10.882
81621SOL    HW146702   7.932  13.292  10.968
81621SOL    HW246703   7.844  13.210  10.876
81622SOL     OW46704   7.457   5.387   7.871
81622SOL    HW146705   7.486   5.433   7.792
81622SOL    HW246706   7.532   5.333   7.896
81623SOL     OW46707   5.794  14.607  14.385
81623SOL    HW146708   5.709  14.577  14.354
81623SOL    HW246709   5.843  14.527  14.403
81624SOL     OW46710  13.673   3.821   7.119
81624SOL    HW146711  13.706   3.906   7.092
81624SOL    HW246712  13.601   3.802   7.058
81625SOL     OW46713   6.931   6.055   5.141
81625SOL    HW146714   6.930   6.002   5.221
81625SOL    HW246715   7.012   6.031   5.097
81626SOL     OW46716   2.295   3.862  13.367
81626SOL    HW146717   2.317   3.900  13.452
81626SOL    HW246718   2.299   3.936  13.306
81627SOL     OW46719  10.524  14.613   2.681
81627SOL    HW146720  10.554  14.703   2.676
81627SOL    HW246721  10.605  14.561   2.683
81628SOL     OW46722   4.656  14.005  14.611
81628SOL    HW146723   4.726  14.045  14.662
81628SOL    HW246724   4.673  14.032  14.521
81629SOL     OW46725  11.113  14.041   5.569
81629SOL    HW146726  11.059  14.107   5.611
81629SOL    HW246727  11.143  14.083   5.488
81630SOL     OW46728   4.388   8.598  11.912
81630SOL    HW146729   4.417   8.537  11.980
81630SOL    HW246730   4.409   8.685  11.947
81631SOL     OW46731   9.631   6.009   3.259
81631SOL    HW146732   9.562   6.037   3.319
81631SOL    HW246733   9.702   5.979   3.317
81632SOL     OW46734   0.936   5.130  11.115
81632SOL    HW146735   0.954   5.223  11.100
81632SOL    HW246736   0.878   5.105  11.043
81633SOL     OW46737  11.243   7.090  14.537
81633SOL    HW146738  11.191   7.010  14.546
81633SOL    HW246739  11.331   7.060  14.514
81634SOL     OW46740   8.558   5.987  13.702
81634SOL    HW146741   8.625   5.980  13.770
81634SOL    HW246742   8.507   5.906  13.710
81635SOL     OW46743   4.121   6.715  13.209
81635SOL    HW146744   4.040   6.730  13.258
81635SOL    HW246745   4.189   6.753  13.264
81636SOL     OW46746   0.123   9.143  14.133
81636SOL    HW146747   0.080   9.119  14.215
81636SOL    HW246748   0.214   9.118  14.145
81637SOL     OW46749   3.086   2.532   6.339
81637SOL    HW146750   3.038   2.513   6.258
81637SOL    HW246751   3.049   2.615   6.370
81638SOL     OW46752   4.564   4.515  10.091
81638SOL    HW146753   4.629   4.469  10.143
81638SOL    HW246754   4.611   4.591  10.056
81639SOL     OW46755   7.344   2.950   2.725
81639SOL    HW146756   7.362   2.993   2.809
81639SOL    HW246757   7.321   3.022   2.666
81640SOL     OW46758  14.343  11.225   7.495
81640SOL    HW146759  14.373  11.148   7.446
81640SOL    HW246760  14.283  11.189   7.560
81641SOL     OW46761   5.007   2.101   2.774
81641SOL    HW146762   5.102   2.099   2.780
81641SOL    HW246763   4.978   2.129   2.861
81642SOL     OW46764   5.049   0.151  12.141
81642SOL    HW146765   5.034   0.191  12.055
81642SOL    HW246766   4.961   0.124  12.170
81643SOL     OW46767   7.435   2.580  12.167
81643SOL    HW146768   7.463   2.556  12.255
81643SOL    HW246769   7.340   2.572  12.168
81644SOL     OW46770   1.824   4.866  11.310
81644SOL    HW146771   1.830   4.793  11.248
81644SOL    HW246772   1.844   4.828  11.395
81645SOL     OW46773  12.294   6.515  12.209
81645SOL    HW146774  12.241   6.457  12.263
81645SOL    HW246775  12.251   6.514  12.124
81646SOL     OW46776   1.705   5.532   7.817
81646SOL    HW146777   1.645   5.496   7.751
81646SOL    HW246778   1.793   5.509   7.784
81647SOL     OW46779   0.837   4.417   3.149
81647SOL    HW146780   0.782   4.367   3.090
81647SOL    HW246781   0.912   4.444   3.096
81648SOL     OW46782   4.606   2.294  13.294
81648SOL    HW146783   4.520   2.321  13.326
81648SOL    HW246784   4.667   2.324  13.362
81649SOL     OW46785   3.579   9.356   3.575
81649SOL    HW146786   3.617   9.270   3.559
81649SOL    HW246787   3.644   9.418   3.543
81650SOL     OW46788   9.427  13.164  10.297
81650SOL    HW146789   9.397  13.079  10.265
81650SOL    HW246790   9.453  13.148  10.387
81651SOL     OW46791  14.375  11.720   1.584
81651SOL    HW146792  14.318  11.656   1.542
81651SOL    HW246793  14.347  11.722   1.675
81652SOL     OW46794   5.088  10.139   2.889
81652SOL    HW146795   5.091  10.181   2.974
81652SOL    HW246796   5.161  10.177   2.840
81653SOL     OW46797   6.521   1.807   6.757
81653SOL    HW146798   6.543   1.894   6.791
81653SOL    HW246799   6.460   1.771   6.821
81654SOL     OW46800   0.093  10.285   2.611
81654SOL    HW146801   0.178  10.280   2.655
81654SOL    HW246802   0.102  10.229   2.535
81655SOL     OW46803  11.373  12.849   0.449
81655SOL    HW146804  11.428  12.925   0.430
81655SOL    HW246805  11.420  12.775   0.412
81656SOL     OW46806  11.990   5.352   4.630
81656SOL    HW146807  11.974   5.260   4.649
81656SOL    HW246808  11.919   5.376   4.570
81657SOL     OW46809  10.370  14.699   0.299
81657SOL    HW146810  10.391  14.606   0.302
81657SOL    HW246811  10.307  14.707   0.227
81658SOL     OW46812   7.142  14.155   1.412
81658SOL    HW146813   7.155  14.115   1.325
81658SOL    HW246814   7.105  14.241   1.394
81659SOL     OW46815  13.300   4.608   4.449
81659SOL    HW146816  13.228   4.635   4.393
81659SOL    HW246817  13.352   4.688   4.462
81660SOL     OW46818   0.510  10.500   9.388
81660SOL    HW146819   0.442  10.566   9.381
81660SOL    HW246820   0.522  10.467   9.299
81661SOL     OW46821   2.062   9.942  13.707
81661SOL    HW146822   1.973   9.929  13.737
81661SOL    HW246823   2.109   9.977  13.783
81662SOL     OW46824  11.643   0.171   2.369
81662SOL    HW146825  11.640   0.266   2.372
81662SOL    HW246826  11.630   0.144   2.460
81663SOL     OW46827   9.919  10.474   0.595
81663SOL    HW146828   9.851  10.533   0.628
81663SOL    HW246829   9.995  10.530   0.583
81664SOL     OW46830  13.159   0.254   6.003
81664SOL    HW146831  13.211   0.302   6.068
81664SOL    HW246832  13.179   0.298   5.920
81665SOL     OW46833   9.034  13.613  14.857
81665SOL    HW146834   9.123  13.638   0.005
81665SOL    HW246835   9.033  13.517  14.863
81666SOL     OW46836   3.273  13.461   9.266
81666SOL    HW146837   3.278  13.533   9.204
81666SOL    HW246838   3.211  13.491   9.333
81667SOL     OW46839   0.319   5.122   0.931
81667SOL    HW146840   0.337   5.035   0.967
81667SOL    HW246841   0.392   5.176   0.961
81668SOL     OW46842   6.347  11.177  13.533
81668SOL    HW146843   6.369  11.239  13.463
81668SOL    HW246844   6.251  11.169  13.528
81669SOL     OW46845   8.288   4.817  10.471
81669SOL    HW146846   8.226   4.786  10.405
81669SOL    HW246847   8.235   4.873  10.528
81670SOL     OW46848   9.698   0.489   6.922
81670SOL    HW146849   9.674   0.514   7.011
81670SOL    HW246850   9.624   0.438   6.890
81671SOL     OW46851   8.919  12.597  13.378
81671SOL    HW146852   9.008  12.623  13.403
81671SOL    HW246853   8.910  12.626  13.287
81672SOL     OW46854  14.001   1.646   7.876
81672SOL    HW146855  13.962   1.734   7.876
81672SOL    HW246856  13.963   1.603   7.953
81673SOL     OW46857   1.837  13.943  12.245
81673SOL    HW146858   1.781  13.929  12.168
81673SOL    HW246859   1.918  13.896  12.224
81674SOL     OW46860   9.813   6.241   8.821
81674SOL    HW146861   9.749   6.312   8.831
81674SOL    HW246862   9.836   6.217   8.911
81675SOL     OW46863   4.173   4.534  12.696
81675SOL    HW146864   4.160   4.623  12.662
81675SOL    HW246865   4.100   4.484  12.660
81676SOL     OW46866   7.070  13.900   5.351
81676SOL    HW146867   6.997  13.924   5.408
81676SOL    HW246868   7.029  13.877   5.268
81677SOL     OW46869   2.317   9.242   0.288
81677SOL    HW146870   2.338   9.307   0.221
81677SOL    HW246871   2.403   9.210   0.317
81678SOL     OW46872   2.437   5.822  12.773
81678SOL    HW146873   2.376   5.825  12.699
81678SOL    HW246874   2.521   5.848  12.736
81679SOL     OW46875   0.625  14.773   6.577
81679SOL    HW146876   0.620  14.678   6.565
81679SOL    HW246877   0.711  14.788   6.617
81680SOL     OW46878   7.990  10.671  11.151
81680SOL    HW146879   7.965  10.655  11.060
81680SOL    HW246880   7.924  10.625  11.202
81681SOL     OW46881   8.348  13.162  13.618
81681SOL    HW146882   8.269  13.213  13.601
81681SOL    HW246883   8.326  13.108  13.694
81682SOL     OW46884   6.082  11.577  10.683
81682SOL    HW146885   6.070  11.559  10.590
81682SOL    HW246886   5.998  11.558  10.723
81683SOL     OW46887   9.391   1.675   1.024
81683SOL    HW146888   9.315   1.729   1.045
81683SOL    HW246889   9.463   1.738   1.015
81684SOL     OW46890   7.201   1.602  10.959
81684SOL    HW146891   7.257   1.672  10.926
81684SOL    HW246892   7.172   1.555  10.880
81685SOL     OW46893  14.373   4.679   6.895
81685SOL    HW146894  14.372   4.584   6.895
81685SOL    HW246895  14.321   4.704   6.819
81686SOL     OW46896   3.604  10.140   5.095
81686SOL    HW146897   3.645  10.159   5.179
81686SOL    HW246898   3.513  10.123   5.117
81687SOL     OW46899  13.998   2.047  14.624
81687SOL    HW146900  14.065   2.114  14.610
81687SOL    HW246901  14.014   1.982  14.556
81688SOL     OW46902  13.746   0.931   9.969
81688SOL    HW146903  13.754   0.846   9.927
81688SOL    HW246904  13.787   0.993   9.909
81689SOL     OW46905   3.112   3.085   6.573
81689SOL    HW146906   3.182   3.090   6.638
81689SOL    HW246907   3.152   3.041   6.498
81690SOL     OW46908   6.647   5.901   4.057
81690SOL    HW146909   6.727   5.953   4.049
81690SOL    HW246910   6.576   5.964   4.054
81691SOL     OW46911  14.605  12.452  13.196
81691SOL    HW146912  14.596  12.543  13.168
81691SOL    HW246913  14.515  12.423  13.213
81692SOL     OW46914   6.450   3.298  14.534
81692SOL    HW146915   6.539   3.289  14.499
81692SOL    HW246916   6.410   3.366  14.481
81693SOL     OW46917   5.840  13.860  14.662
81693SOL    HW146918   5.908  13.801  14.696
81693SOL    HW246919   5.859  13.867  14.569
81694SOL     OW46920   2.700   6.181   4.893
81694SOL    HW146921   2.757   6.202   4.968
81694SOL    HW246922   2.617   6.223   4.915
81695SOL     OW46923   1.415  10.423   3.025
81695SOL    HW146924   1.432  10.434   3.118
81695SOL    HW246925   1.322  10.445   3.014
81696SOL     OW46926   4.050   9.832   7.936
81696SOL    HW146927   4.066   9.925   7.922
81696SOL    HW246928   3.955   9.825   7.946
81697SOL     OW46929   0.697   5.450  13.181
81697SOL    HW146930   0.640   5.504  13.126
81697SOL    HW246931   0.778   5.441  13.130
81698SOL     OW46932  14.153   6.274   2.833
81698SOL    HW146933  14.083   6.278   2.898
81698SOL    HW246934  14.222   6.222   2.874
81699SOL     OW46935   8.358   8.752  11.455
81699SOL    HW146936   8.280   8.752  11.512
81699SOL    HW246937   8.401   8.669  11.474
81700SOL     OW46938   6.116   6.653  14.609
81700SOL    HW146939   6.122   6.560  14.632
81700SOL    HW246940   6.028   6.663  14.574
81701SOL     OW46941  14.261   0.887   0.626
81701SOL    HW146942  14.222   0.901   0.712
81701SOL    HW246943  14.353   0.871   0.643
81702SOL     OW46944  14.560   4.272   6.058
81702SOL    HW146945  14.513   4.236   5.982
81702SOL    HW246946  14.492   4.283   6.124
81703SOL     OW46947   7.566   8.294   3.077
81703SOL    HW146948   7.529   8.360   3.135
81703SOL    HW246949   7.497   8.279   3.012
81704SOL     OW46950   7.442   7.147   8.950
81704SOL    HW146951   7.383   7.076   8.925
81704SOL    HW246952   7.529   7.114   8.928
81705SOL     OW46953   2.165  12.410   1.389
81705SOL    HW146954   2.070  12.415   1.398
81705SOL    HW246955   2.182  12.317   1.371
81706SOL     OW46956   1.793  13.222  12.305
81706SOL    HW146957   1.768  13.188  12.219
81706SOL    HW246958   1.826  13.146  12.352
81707SOL     OW46959   8.861   7.714   6.573
81707SOL    HW146960   8.851   7.751   6.485
81707SOL    HW246961   8.854   7.789   6.631
81708SOL     OW46962   6.237   5.410   4.737
81708SOL    HW146963   6.173   5.464   4.690
81708SOL    HW246964   6.248   5.333   4.680
81709SOL     OW46965   4.190   4.415  14.038
81709SOL    HW146966   4.208   4.383  14.127
81709SOL    HW246967   4.265   4.471  14.018
81710SOL     OW46968   4.031   7.376  11.985
81710SOL    HW146969   4.005   7.284  11.983
81710SOL    HW246970   4.122   7.375  12.015
81711SOL     OW46971  13.558  13.081  13.552
81711SOL    HW146972  13.475  13.089  13.505
81711SOL    HW246973  13.584  12.990  13.539
81712SOL     OW46974   7.413   0.405   0.080
81712SOL    HW146975   7.507   0.405   0.102
81712SOL    HW246976   7.370   0.435   0.160
81713SOL     OW46977   2.297   5.127   7.789
81713SOL    HW146978   2.353   5.056   7.821
81713SOL    HW246979   2.299   5.192   7.859
81714SOL     OW46980   2.917   8.806   6.702
81714SOL    HW146981   2.892   8.896   6.678
81714SOL    HW246982   2.914   8.758   6.619
81715SOL     OW46983  11.254  10.591   3.636
81715SOL    HW146984  11.317  10.573   3.566
81715SOL    HW246985  11.234  10.505   3.673
81716SOL     OW46986   8.343  14.873   3.747
81716SOL    HW146987   8.352   0.034   3.835
81716SOL    HW246988   8.255  14.836   3.745
81717SOL     OW46989   5.255   7.886   9.264
81717SOL    HW146990   5.169   7.861   9.231
81717SOL    HW246991   5.247   7.876   9.359
81718SOL     OW46992  12.962   2.588   1.809
81718SOL    HW146993  12.902   2.537   1.755
81718SOL    HW246994  13.033   2.527   1.830
81719SOL     OW46995   5.273   2.833   7.406
81719SOL    HW146996   5.184   2.836   7.372
81719SOL    HW246997   5.273   2.892   7.481
81720SOL     OW46998   4.687  10.335   0.179
81720SOL    HW146999   4.776  10.356   0.210
81720SOL    HW247000   4.699  10.310   0.087
81721SOL     OW47001   9.174  13.346   3.518
81721SOL    HW147002   9.194  13.401   3.594
81721SOL    HW247003   9.258  13.334   3.474
81722SOL     OW47004   1.061   0.274   0.284
81722SOL    HW147005   0.983   0.219   0.279
81722SOL    HW247006   1.078   0.301   0.194
81723SOL     OW47007   5.803   0.188   0.699
81723SOL    HW147008   5.878   0.244   0.718
81723SOL    HW247009   5.841   0.102   0.678
81724SOL     OW47010   0.803   5.135  13.663
81724SOL    HW147011   0.777   5.098  13.578
81724SOL    HW247012   0.894   5.163  13.650
81725SOL     OW47013   0.758   2.307  14.323
81725SOL    HW147014   0.845   2.280  14.353
81725SOL    HW247015   0.742   2.390  14.368
81726SOL     OW47016  11.933   4.670   2.117
81726SOL    HW147017  11.873   4.715   2.177
81726SOL    HW247018  11.922   4.577   2.137
81727SOL     OW47019  14.210   4.373   9.009
81727SOL    HW147020  14.294   4.386   8.964
81727SOL    HW247021  14.147   4.359   8.938
81728SOL     OW47022  10.455  14.604  10.769
81728SOL    HW147023  10.374  14.647  10.797
81728SOL    HW247024  10.507  14.673  10.729
81729SOL     OW47025   6.075   0.546  13.820
81729SOL    HW147026   6.083   0.550  13.915
81729SOL    HW247027   6.136   0.477  13.793
81730SOL     OW47028   9.161  14.564   9.231
81730SOL    HW147029   9.241  14.514   9.218
81730SOL    HW247030   9.190  14.649   9.262
81731SOL     OW47031   9.620  10.102   9.221
81731SOL    HW147032   9.542  10.132   9.268
81731SOL    HW247033   9.590  10.087   9.132
81732SOL     OW47034   7.829  11.385   7.338
81732SOL    HW147035   7.860  11.396   7.427
81732SOL    HW247036   7.900  11.417   7.283
81733SOL     OW47037   5.316   2.954   9.503
81733SOL    HW147038   5.254   2.913   9.444
81733SOL    HW247039   5.284   2.934   9.591
81734SOL     OW47040  11.562   0.949   6.589
81734SOL    HW147041  11.622   0.993   6.648
81734SOL    HW247042  11.600   0.960   6.502
81735SOL     OW47043   3.011   5.695  14.776
81735SOL    HW147044   2.918   5.704  14.758
81735SOL    HW247045   3.042   5.784  14.790
81736SOL     OW47046   9.836   7.163  13.577
81736SOL    HW147047   9.804   7.091  13.524
81736SOL    HW247048   9.821   7.241  13.524
81737SOL     OW47049  14.561   0.999   0.396
81737SOL    HW147050  14.643   0.984   0.349
81737SOL    HW247051  14.507   0.923   0.375
81738SOL     OW47052  14.100   3.411   5.839
81738SOL    HW147053  14.169   3.432   5.776
81738SOL    HW247054  14.025   3.462   5.810
81739SOL     OW47055   9.847   3.837  11.144
81739SOL    HW147056   9.926   3.838  11.198
81739SOL    HW247057   9.801   3.918  11.167
81740SOL     OW47058   2.726   7.637   9.262
81740SOL    HW147059   2.740   7.673   9.174
81740SOL    HW247060   2.635   7.659   9.283
81741SOL     OW47061  11.096   6.883   5.875
81741SOL    HW147062  11.019   6.860   5.822
81741SOL    HW247063  11.093   6.821   5.948
81742SOL     OW47064  14.220  14.520   1.601
81742SOL    HW147065  14.270  14.453   1.555
81742SOL    HW247066  14.286  14.580   1.635
81743SOL     OW47067   1.640   2.880   3.326
81743SOL    HW147068   1.545   2.870   3.330
81743SOL    HW247069   1.658   2.900   3.234
81744SOL     OW47070   5.115  12.575  14.356
81744SOL    HW147071   5.116  12.656  14.407
81744SOL    HW247072   5.064  12.513  14.408
81745SOL     OW47073   5.807   8.533   8.157
81745SOL    HW147074   5.800   8.585   8.077
81745SOL    HW247075   5.724   8.485   8.161
81746SOL     OW47076   4.957   3.299   5.651
81746SOL    HW147077   4.969   3.379   5.702
81746SOL    HW247078   5.044   3.278   5.617
81747SOL     OW47079   7.716   7.730   9.066
81747SOL    HW147080   7.718   7.678   9.146
81747SOL    HW247081   7.808   7.741   9.043
81748SOL     OW47082   1.730  13.733  11.806
81748SOL    HW147083   1.818  13.714  11.836
81748SOL    HW247084   1.741  13.795  11.734
81749SOL     OW47085   4.425   7.941  14.336
81749SOL    HW147086   4.447   7.919  14.426
81749SOL    HW247087   4.453   8.031  14.325
81750SOL     OW47088  14.303   1.808   7.563
81750SOL    HW147089  14.246   1.856   7.503
81750SOL    HW247090  14.247   1.740   7.600
81751SOL     OW47091  14.435   7.975   5.616
81751SOL    HW147092  14.402   7.979   5.526
81751SOL    HW247093  14.476   8.060   5.630
81752SOL     OW47094  13.042   7.525   7.840
81752SOL    HW147095  12.996   7.458   7.889
81752SOL    HW247096  13.116   7.549   7.896
81753SOL     OW47097   0.720   5.702   8.048
81753SOL    HW147098   0.725   5.674   8.139
81753SOL    HW247099   0.799   5.755   8.035
81754SOL     OW47100   1.242   3.879   0.912
81754SOL    HW147101   1.336   3.862   0.910
81754SOL    HW247102   1.210   3.831   0.989
81755SOL     OW47103  12.854   0.861  12.746
81755SOL    HW147104  12.933   0.899  12.707
81755SOL    HW247105  12.812   0.814  12.675
81756SOL     OW47106   0.177   8.558  12.214
81756SOL    HW147107   0.147   8.510  12.137
81756SOL    HW247108   0.122   8.635  12.218
81757SOL     OW47109  14.713   3.394  11.470
81757SOL    HW147110  14.638   3.364  11.418
81757SOL    HW247111  14.676   3.412  11.557
81758SOL     OW47112  13.296   8.857   7.570
81758SOL    HW147113  13.365   8.903   7.522
81758SOL    HW247114  13.244   8.815   7.502
81759SOL     OW47115   9.653  12.360   8.024
81759SOL    HW147116   9.577  12.347   8.080
81759SOL    HW247117   9.650  12.287   7.962
81760SOL     OW47118   8.227   5.333  12.291
81760SOL    HW147119   8.178   5.377  12.221
81760SOL    HW247120   8.300   5.290  12.245
81761SOL     OW47121   8.486   1.246  14.265
81761SOL    HW147122   8.491   1.177  14.331
81761SOL    HW247123   8.560   1.304  14.286
81762SOL     OW47124   9.847  12.882  11.691
81762SOL    HW147125   9.907  12.934  11.745
81762SOL    HW247126   9.791  12.947  11.648
81763SOL     OW47127   1.565   7.045   4.244
81763SOL    HW147128   1.605   7.011   4.164
81763SOL    HW247129   1.627   7.022   4.313
81764SOL     OW47130  13.765  11.142   2.611
81764SOL    HW147131  13.781  11.108   2.523
81764SOL    HW247132  13.802  11.230   2.609
81765SOL     OW47133   5.561  10.761   6.849
81765SOL    HW147134   5.622  10.722   6.785
81765SOL    HW247135   5.610  10.832   6.888
81766SOL     OW47136   0.165  13.870  14.236
81766SOL    HW147137   0.207  13.908  14.313
81766SOL    HW247138   0.076  13.850  14.266
81767SOL     OW47139   9.757   9.942  11.540
81767SOL    HW147140   9.848   9.970  11.545
81767SOL    HW247141   9.749   9.899  11.455
81768SOL     OW47142  10.338   2.255  13.464
81768SOL    HW147143  10.252   2.218  13.487
81768SOL    HW247144  10.372   2.195  13.397
81769SOL     OW47145  10.768  14.301  14.208
81769SOL    HW147146  10.847  14.249  14.195
81769SOL    HW247147  10.761  14.312  14.303
81770SOL     OW47148   5.336   7.881  13.297
81770SOL    HW147149   5.245   7.882  13.266
81770SOL    HW247150   5.377   7.955  13.253
81771SOL     OW47151   5.301   5.037   7.991
81771SOL    HW147152   5.332   5.112   7.940
81771SOL    HW247153   5.357   5.037   8.069
81772SOL     OW47154   9.015  10.264  14.654
81772SOL    HW147155   8.980  10.270  14.566
81772SOL    HW247156   9.081  10.195  14.649
81773SOL     OW47157   3.388   5.708  14.077
81773SOL    HW147158   3.379   5.658  14.158
81773SOL    HW247159   3.423   5.793  14.105
81774SOL     OW47160   4.806   6.766   0.732
81774SOL    HW147161   4.874   6.819   0.774
81774SOL    HW247162   4.851   6.721   0.661
81775SOL     OW47163  10.330   4.561   0.236
81775SOL    HW147164  10.236   4.548   0.250
81775SOL    HW247165  10.345   4.537   0.145
81776SOL     OW47166  13.145   9.694   0.054
81776SOL    HW147167  13.200   9.616   0.043
81776SOL    HW247168  13.194   9.764   0.012
81777SOL     OW47169   2.486  12.124   8.569
81777SOL    HW147170   2.498  12.209   8.528
81777SOL    HW247171   2.559  12.115   8.629
81778SOL     OW47172   4.153   3.876  14.679
81778SOL    HW147173   4.069   3.842  14.709
81778SOL    HW247174   4.133   3.965  14.650
81779SOL     OW47175   2.582   6.964   9.861
81779SOL    HW147176   2.630   6.906   9.920
81779SOL    HW247177   2.628   6.955   9.777
81780SOL     OW47178  12.687  11.839   3.759
81780SOL    HW147179  12.618  11.799   3.706
81780SOL    HW247180  12.736  11.765   3.794
81781SOL     OW47181  14.209   7.439   6.179
81781SOL    HW147182  14.304   7.433   6.181
81781SOL    HW247183  14.182   7.433   6.270
81782SOL     OW47184   4.087   8.446  12.369
81782SOL    HW147185   4.072   8.500  12.290
81782SOL    HW247186   4.041   8.493  12.439
81783SOL     OW47187   4.424   3.558   7.311
81783SOL    HW147188   4.478   3.614   7.256
81783SOL    HW247189   4.403   3.612   7.387
81784SOL     OW47190  10.102   4.623   7.224
81784SOL    HW147191  10.190   4.644   7.193
81784SOL    HW247192  10.085   4.686   7.294
81785SOL     OW47193   8.265   7.132  11.027
81785SOL    HW147194   8.246   7.053  11.078
81785SOL    HW247195   8.336   7.175  11.075
81786SOL     OW47196   6.912  10.856   2.153
81786SOL    HW147197   7.006  10.837   2.160
81786SOL    HW247198   6.871  10.804   2.222
81787SOL     OW47199  11.979  10.673   0.487
81787SOL    HW147200  11.892  10.637   0.501
81787SOL    HW247201  12.034  10.629   0.552
81788SOL     OW47202   5.159  11.812  13.731
81788SOL    HW147203   5.179  11.886  13.674
81788SOL    HW247204   5.172  11.735  13.676
81789SOL     OW47205  14.172   7.549   2.995
81789SOL    HW147206  14.104   7.532   3.061
81789SOL    HW247207  14.124   7.564   2.914
81790SOL     OW47208   0.178  11.467   3.763
81790SOL    HW147209   0.251  11.508   3.811
81790SOL    HW247210   0.119  11.437   3.832
81791SOL     OW47211   8.383  12.144  12.841
81791SOL    HW147212   8.437  12.163  12.764
81791SOL    HW247213   8.318  12.082  12.810
81792SOL     OW47214   7.939  12.604  12.176
81792SOL    HW147215   7.903  12.665  12.111
81792SOL    HW247216   8.001  12.657  12.226
81793SOL     OW47217   1.350   1.997  10.385
81793SOL    HW147218   1.391   1.995  10.298
81793SOL    HW247219   1.257   1.986  10.367
81794SOL     OW47220   3.643   5.404   5.994
81794SOL    HW147221   3.618   5.337   6.057
81794SOL    HW247222   3.732   5.379   5.967
81795SOL     OW47223   3.860  13.638  11.097
81795SOL    HW147224   3.816  13.553  11.087
81795SOL    HW247225   3.790  13.702  11.085
81796SOL     OW47226  12.705   9.394   2.228
81796SOL    HW147227  12.717   9.482   2.263
81796SOL    HW247228  12.696   9.338   2.306
81797SOL     OW47229   8.099  14.279  12.394
81797SOL    HW147230   8.085  14.265  12.488
81797SOL    HW247231   8.072  14.196  12.354
81798SOL     OW47232   7.325   9.070   9.602
81798SOL    HW147233   7.332   9.052   9.696
81798SOL    HW247234   7.232   9.057   9.583
81799SOL     OW47235   0.414  11.132  12.619
81799SOL    HW147236   0.477  11.164  12.553
81799SOL    HW247237   0.353  11.078  12.569
81800SOL     OW47238  10.990  13.318   0.377
81800SOL    HW147239  11.034  13.347   0.297
81800SOL    HW247240  11.029  13.371   0.446
81801SOL     OW47241  11.233  12.260   6.147
81801SOL    HW147242  11.327  12.242   6.156
81801SOL    HW247243  11.191  12.178   6.173
81802SOL     OW47244   6.756  11.806   7.834
81802SOL    HW147245   6.722  11.853   7.757
81802SOL    HW247246   6.727  11.716   7.823
81803SOL     OW47247   0.193  14.742  10.054
81803SOL    HW147248   0.185  14.662  10.001
81803SOL    HW247249   0.105  14.778  10.056
81804SOL     OW47250   0.385  11.377   3.292
81804SOL    HW147251   0.302  11.393   3.336
81804SOL    HW247252   0.450  11.375   3.362
81805SOL     OW47253   2.221   4.005  11.341
81805SOL    HW147254   2.289   4.041  11.398
81805SOL    HW247255   2.158   3.965  11.401
81806SOL     OW47256   0.816   6.981   7.285
81806SOL    HW147257   0.825   7.073   7.309
81806SOL    HW247258   0.739   6.951   7.335
81807SOL     OW47259   9.238   9.862   7.905
81807SOL    HW147260   9.319   9.882   7.858
81807SOL    HW247261   9.191   9.801   7.848
81808SOL     OW47262  11.918   6.845  12.367
81808SOL    HW147263  12.013   6.835  12.364
81808SOL    HW247264  11.900   6.888  12.451
81809SOL     OW47265   9.667   9.654  14.409
81809SOL    HW147266   9.640   9.645  14.501
81809SOL    HW247267   9.592   9.624  14.359
81810SOL     OW47268   5.038  13.387  14.609
81810SOL    HW147269   5.003  13.436  14.535
81810SOL    HW247270   5.116  13.437  14.636
81811SOL     OW47271   6.029   7.191   4.573
81811SOL    HW147272   5.946   7.144   4.563
81811SOL    HW247273   6.085   7.131   4.622
81812SOL     OW47274   2.943   6.378   8.768
81812SOL    HW147275   2.958   6.370   8.862
81812SOL    HW247276   2.854   6.413   8.761
81813SOL     OW47277  12.254   0.672   3.530
81813SOL    HW147278  12.203   0.655   3.609
81813SOL    HW247279  12.266   0.586   3.490
81814SOL     OW47280  13.142   4.877   4.117
81814SOL    HW147281  13.151   4.847   4.208
81814SOL    HW247282  13.147   4.973   4.123
81815SOL     OW47283   8.612  11.410   6.771
81815SOL    HW147284   8.695  11.444   6.802
81815SOL    HW247285   8.565  11.383   6.850
81816SOL     OW47286  11.235   1.464   8.345
81816SOL    HW147287  11.285   1.545   8.360
81816SOL    HW247288  11.295   1.394   8.371
81817SOL     OW47289   3.126   3.794  11.350
81817SOL    HW147290   3.178   3.801  11.270
81817SOL    HW247291   3.190   3.781  11.420
81818SOL     OW47292   1.283  13.513  13.369
81818SOL    HW147293   1.299  13.530  13.277
81818SOL    HW247294   1.370  13.509  13.409
81819SOL     OW47295   8.031   3.950   5.554
81819SOL    HW147296   7.941   3.983   5.563
81819SOL    HW247297   8.068   4.001   5.482
81820SOL     OW47298  13.458   9.841   8.804
81820SOL    HW147299  13.391   9.782   8.838
81820SOL    HW247300  13.529   9.783   8.777
81821SOL     OW47301  10.319  13.228   5.335
81821SOL    HW147302  10.353  13.169   5.268
81821SOL    HW247303  10.385  13.298   5.340
81822SOL     OW47304   9.252   6.229  12.531
81822SOL    HW147305   9.284   6.319  12.532
81822SOL    HW247306   9.245   6.207  12.438
81823SOL     OW47307   1.693  12.268   6.689
81823SOL    HW147308   1.605  12.308   6.687
81823SOL    HW247309   1.750  12.334   6.649
81824SOL     OW47310   2.604  11.660  12.984
81824SOL    HW147311   2.584  11.585  13.040
81824SOL    HW247312   2.628  11.621  12.900
81825SOL     OW47313  13.748  12.891   8.271
81825SOL    HW147314  13.840  12.887   8.246
81825SOL    HW247315  13.743  12.845   8.354
81826SOL     OW47316   0.824  12.427   0.309
81826SOL    HW147317   0.866  12.364   0.249
81826SOL    HW247318   0.894  12.451   0.370
81827SOL     OW47319   5.476   2.577  11.912
81827SOL    HW147320   5.571   2.583  11.920
81827SOL    HW247321   5.459   2.485  11.894
81828SOL     OW47322   8.421   3.272   8.088
81828SOL    HW147323   8.406   3.264   8.183
81828SOL    HW247324   8.344   3.232   8.048
81829SOL     OW47325   6.273   7.612  11.926
81829SOL    HW147326   6.199   7.612  11.866
81829SOL    HW247327   6.320   7.693  11.906
81830SOL     OW47328   3.814  11.148   9.733
81830SOL    HW147329   3.727  11.111   9.719
81830SOL    HW247330   3.835  11.192   9.651
81831SOL     OW47331   1.735  12.190   7.442
81831SOL    HW147332   1.771  12.168   7.356
81831SOL    HW247333   1.659  12.245   7.422
81832SOL     OW47334  11.884   1.659   7.507
81832SOL    HW147335  11.888   1.753   7.494
81832SOL    HW247336  11.975   1.629   7.493
81833SOL     OW47337   3.969   5.430   0.369
81833SOL    HW147338   3.963   5.522   0.343
81833SOL    HW247339   4.060   5.407   0.354
81834SOL     OW47340   3.942   1.716  14.489
81834SOL    HW147341   4.037   1.712  14.494
81834SOL    HW247342   3.914   1.747  14.575
81835SOL     OW47343   4.033  12.920   8.367
81835SOL    HW147344   4.042  12.992   8.305
81835SOL    HW247345   3.952  12.875   8.340
81836SOL     OW47346   1.008   3.642  14.153
81836SOL    HW147347   0.916   3.667  14.146
81836SOL    HW247348   1.036   3.627  14.063
81837SOL     OW47349   4.805   9.827   0.906
81837SOL    HW147350   4.843   9.912   0.927
81837SOL    HW247351   4.854   9.798   0.829
81838SOL     OW47352   4.694  11.093  11.753
81838SOL    HW147353   4.739  11.135  11.680
81838SOL    HW247354   4.631  11.158  11.783
81839SOL     OW47355   5.237   1.577   3.170
81839SOL    HW147356   5.299   1.541   3.105
81839SOL    HW247357   5.176   1.629   3.118
81840SOL     OW47358   0.274   9.802  13.626
81840SOL    HW147359   0.308   9.728  13.575
81840SOL    HW247360   0.349   9.836  13.673
81841SOL     OW47361   8.590   9.210  12.166
81841SOL    HW147362   8.619   9.273  12.231
81841SOL    HW247363   8.494   9.215  12.169
81842SOL     OW47364   6.721  13.025   2.101
81842SOL    HW147365   6.702  13.005   2.192
81842SOL    HW247366   6.791  13.090   2.105
81843SOL     OW47367  13.238   9.754   8.591
81843SOL    HW147368  13.225   9.775   8.498
81843SOL    HW247369  13.174   9.808   8.637
81844SOL     OW47370   2.759  14.055   5.474
81844SOL    HW147371   2.842  14.097   5.453
81844SOL    HW247372   2.784  13.973   5.518
81845SOL     OW47373   9.641   6.325   9.122
81845SOL    HW147374   9.573   6.359   9.179
81845SOL    HW247375   9.628   6.230   9.123
81846SOL     OW47376   4.639   6.210  10.963
81846SOL    HW147377   4.574   6.165  10.910
81846SOL    HW247378   4.700   6.141  10.990
81847SOL     OW47379   5.368   0.909  13.189
81847SOL    HW147380   5.357   0.858  13.269
81847SOL    HW247381   5.447   0.873  13.148
81848SOL     OW47382  11.546  10.294  12.343
81848SOL    HW147383  11.610  10.354  12.381
81848SOL    HW247384  11.469  10.348  12.324
81849SOL     OW47385  11.792   2.869  12.706
81849SOL    HW147386  11.778   2.784  12.748
81849SOL    HW247387  11.798   2.848  12.613
81850SOL     OW47388   1.481   5.470   2.898
81850SOL    HW147389   1.434   5.544   2.937
81850SOL    HW247390   1.487   5.493   2.805
81851SOL     OW47391   8.134   5.814   6.850
81851SOL    HW147392   8.045   5.815   6.815
81851SOL    HW247393   8.154   5.906   6.869
81852SOL     OW47394  12.530   0.998   2.700
81852SOL    HW147395  12.478   1.078   2.695
81852SOL    HW247396  12.569   1.000   2.788
81853SOL     OW47397   1.417  11.748  11.221
81853SOL    HW147398   1.480  11.681  11.248
81853SOL    HW247399   1.407  11.735  11.127
81854SOL     OW47400   4.750   1.132   2.881
81854SOL    HW147401   4.700   1.168   2.955
81854SOL    HW247402   4.723   1.040   2.877
81855SOL     OW47403   2.772  12.457   7.954
81855SOL    HW147404   2.829  12.390   7.916
81855SOL    HW247405   2.686  12.440   7.914
81856SOL     OW47406  13.432  13.415  10.982
81856SOL    HW147407  13.370  13.406  10.910
81856SOL    HW247408  13.377  13.439  11.057
81857SOL     OW47409   9.182   9.272   0.306
81857SOL    HW147410   9.136   9.327   0.369
81857SOL    HW247411   9.263   9.246   0.351
81858SOL     OW47412   4.070  10.190  14.339
81858SOL    HW147413   4.104  10.274  14.308
81858SOL    HW247414   4.135  10.126  14.308
81859SOL     OW47415   8.468   6.309  13.027
81859SOL    HW147416   8.560   6.290  13.040
81859SOL    HW247417   8.453   6.295  12.934
81860SOL     OW47418   1.062   9.087   6.352
81860SOL    HW147419   1.119   9.022   6.393
81860SOL    HW247420   1.005   9.036   6.294
81861SOL     OW47421  10.355   5.259   1.630
81861SOL    HW147422  10.381   5.178   1.674
81861SOL    HW247423  10.309   5.309   1.698
81862SOL     OW47424   0.245   6.639  12.362
81862SOL    HW147425   0.313   6.573  12.346
81862SOL    HW247426   0.177   6.592  12.410
81863SOL     OW47427   7.785  11.071   2.206
81863SOL    HW147428   7.750  11.140   2.263
81863SOL    HW247429   7.867  11.106   2.173
81864SOL     OW47430  11.076   8.109  14.432
81864SOL    HW147431  10.997   8.141  14.390
81864SOL    HW247432  11.081   8.159  14.514
81865SOL     OW47433   5.437   3.139   1.384
81865SOL    HW147434   5.441   3.153   1.289
81865SOL    HW247435   5.528   3.147   1.413
81866SOL     OW47436   4.375   1.718   0.307
81866SOL    HW147437   4.357   1.716   0.401
81866SOL    HW247438   4.337   1.800   0.277
81867SOL     OW47439  14.217  10.807  14.113
81867SOL    HW147440  14.177  10.871  14.055
81867SOL    HW247441  14.266  10.860  14.177
81868SOL     OW47442   5.984   1.777   2.902
81868SOL    HW147443   5.994   1.781   2.807
81868SOL    HW247444   5.926   1.702   2.916
81869SOL     OW47445   2.034   7.825   0.230
81869SOL    HW147446   2.028   7.828   0.134
81869SOL    HW247447   2.127   7.843   0.248
81870SOL     OW47448   2.321  10.007  12.022
81870SOL    HW147449   2.271  10.089  12.027
81870SOL    HW247450   2.255   9.939  12.012
81871SOL     OW47451  11.036  11.209   4.649
81871SOL    HW147452  11.121  11.208   4.605
81871SOL    HW247453  10.986  11.276   4.603
81872SOL     OW47454   0.817   9.123   3.366
81872SOL    HW147455   0.782   9.143   3.280
81872SOL    HW247456   0.852   9.206   3.398
81873SOL     OW47457   0.260   4.657   0.437
81873SOL    HW147458   0.246   4.607   0.356
81873SOL    HW247459   0.203   4.733   0.428
81874SOL     OW47460   1.384  11.805   2.108
81874SOL    HW147461   1.393  11.711   2.126
81874SOL    HW247462   1.325  11.837   2.176
81875SOL     OW47463   4.192   2.276   3.578
81875SOL    HW147464   4.133   2.296   3.650
81875SOL    HW247465   4.185   2.352   3.520
81876SOL     OW47466  14.307   1.384  12.259
81876SOL    HW147467  14.291   1.440  12.335
81876SOL    HW247468  14.377   1.429  12.211
81877SOL     OW47469   2.579   9.938  12.596
81877SOL    HW147470   2.537   9.967  12.515
81877SOL    HW247471   2.663   9.902  12.569
81878SOL     OW47472  13.334   9.676   2.943
81878SOL    HW147473  13.300   9.604   2.890
81878SOL    HW247474  13.307   9.755   2.896
81879SOL     OW47475  13.144   9.497   7.453
81879SOL    HW147476  13.219   9.443   7.425
81879SOL    HW247477  13.184   9.579   7.484
81880SOL     OW47478  14.711   0.560   5.154
81880SOL    HW147479  14.728   0.473   5.118
81880SOL    HW247480  14.621   0.555   5.186
81881SOL     OW47481   2.387   5.015  10.102
81881SOL    HW147482   2.330   4.942  10.124
81881SOL    HW247483   2.355   5.088  10.156
81882SOL     OW47484   8.713   8.590   7.821
81882SOL    HW147485   8.655   8.572   7.747
81882SOL    HW247486   8.773   8.657   7.790
81883SOL     OW47487   4.863   9.628   1.330
81883SOL    HW147488   4.832   9.575   1.256
81883SOL    HW247489   4.867   9.717   1.295
81884SOL     OW47490   1.525   0.488   7.342
81884SOL    HW147491   1.570   0.404   7.332
81884SOL    HW247492   1.584   0.541   7.396
81885SOL     OW47493  10.666   5.438  11.530
81885SOL    HW147494  10.696   5.423  11.620
81885SOL    HW247495  10.601   5.370  11.514
81886SOL     OW47496   4.843   8.963  13.641
81886SOL    HW147497   4.800   9.014  13.710
81886SOL    HW247498   4.808   8.874  13.652
81887SOL     OW47499  12.248  11.588  12.894
81887SOL    HW147500  12.169  11.534  12.901
81887SOL    HW247501  12.283  11.567  12.807
81888SOL     OW47502  11.805  13.481   6.603
81888SOL    HW147503  11.770  13.466   6.514
81888SOL    HW247504  11.849  13.565   6.598
81889SOL     OW47505  11.744   7.715   5.776
81889SOL    HW147506  11.785   7.739   5.693
81889SOL    HW247507  11.652   7.739   5.765
81890SOL     OW47508  12.323   1.946   2.864
81890SOL    HW147509  12.336   1.873   2.925
81890SOL    HW247510  12.370   1.919   2.785
81891SOL     OW47511   1.881  11.976   0.366
81891SOL    HW147512   1.907  11.958   0.456
81891SOL    HW247513   1.953  11.942   0.313
81892SOL     OW47514   4.670   2.179   4.940
81892SOL    HW147515   4.597   2.231   4.906
81892SOL    HW247516   4.694   2.120   4.868
81893SOL     OW47517   3.075  11.718   4.032
81893SOL    HW147518   3.043  11.776   4.100
81893SOL    HW247519   2.996  11.686   3.988
81894SOL     OW47520   2.432   1.540   8.434
81894SOL    HW147521   2.479   1.457   8.427
81894SOL    HW247522   2.383   1.533   8.516
81895SOL     OW47523   0.069  11.244  10.270
81895SOL    HW147524   0.144  11.287  10.229
81895SOL    HW247525   0.094  11.151  10.273
81896SOL     OW47526  11.784  11.436   7.268
81896SOL    HW147527  11.823  11.496   7.204
81896SOL    HW247528  11.698  11.416   7.232
81897SOL     OW47529   0.267   3.056   1.852
81897SOL    HW147530   0.261   2.976   1.903
81897SOL    HW247531   0.360   3.067   1.833
81898SOL     OW47532   8.409   8.020   8.558
81898SOL    HW147533   8.494   8.025   8.514
81898SOL    HW247534   8.392   8.108   8.589
81899SOL     OW47535   3.650  12.806   1.011
81899SOL    HW147536   3.704  12.876   1.047
81899SOL    HW247537   3.709  12.732   1.002
81900SOL     OW47538  13.243  10.567   0.026
81900SOL    HW147539  13.192  10.526   0.096
81900SOL    HW247540  13.282  10.645   0.066
81901SOL     OW47541  11.546   0.213   3.458
81901SOL    HW147542  11.492   0.139   3.485
81901SOL    HW247543  11.492   0.290   3.474
81902SOL     OW47544  12.504   7.864   6.872
81902SOL    HW147545  12.459   7.913   6.942
81902SOL    HW247546  12.557   7.799   6.918
81903SOL     OW47547   5.143  13.055   9.134
81903SOL    HW147548   5.071  13.104   9.094
81903SOL    HW247549   5.171  13.109   9.208
81904SOL     OW47550   5.342   9.815   3.740
81904SOL    HW147551   5.429   9.776   3.753
81904SOL    HW247552   5.325   9.863   3.821
81905SOL     OW47553   0.699   5.506   5.591
81905SOL    HW147554   0.658   5.565   5.528
81905SOL    HW247555   0.625   5.466   5.637
81906SOL     OW47556   8.462   3.887   0.228
81906SOL    HW147557   8.444   3.834   0.307
81906SOL    HW247558   8.397   3.957   0.230
81907SOL     OW47559  13.459   3.877   6.363
81907SOL    HW147560  13.465   3.942   6.292
81907SOL    HW247561  13.537   3.892   6.416
81908SOL     OW47562   7.731  12.284  12.640
81908SOL    HW147563   7.646  12.314  12.673
81908SOL    HW247564   7.714  12.261  12.549
81909SOL     OW47565   8.010  13.359   7.015
81909SOL    HW147566   8.032  13.416   7.088
81909SOL    HW247567   8.009  13.418   6.939
81910SOL     OW47568   9.020   7.636   9.323
81910SOL    HW147569   9.077   7.712   9.326
81910SOL    HW247570   9.073   7.564   9.358
81911SOL     OW47571  11.035   3.443   8.244
81911SOL    HW147572  10.992   3.358   8.250
81911SOL    HW247573  10.987   3.498   8.306
81912SOL     OW47574   3.921   5.748   2.327
81912SOL    HW147575   3.874   5.737   2.244
81912SOL    HW247576   3.865   5.705   2.392
81913SOL     OW47577  14.756  13.806   2.701
81913SOL    HW147578  14.788  13.736   2.758
81913SOL    HW247579  14.834  13.836   2.654
81914SOL     OW47580   1.988   5.405   1.954
81914SOL    HW147581   2.076   5.411   1.918
81914SOL    HW247582   1.936   5.466   1.901
81915SOL     OW47583   7.507   4.559   9.331
81915SOL    HW147584   7.507   4.653   9.348
81915SOL    HW247585   7.427   4.544   9.280
81916SOL     OW47586   5.596   9.882   4.451
81916SOL    HW147587   5.562   9.937   4.381
81916SOL    HW247588   5.579   9.792   4.422
81917SOL     OW47589  14.637  14.279   4.795
81917SOL    HW147590  14.656  14.287   4.702
81917SOL    HW247591  14.707  14.328   4.839
81918SOL     OW47592  14.374   5.366   2.619
81918SOL    HW147593  14.467   5.374   2.596
81918SOL    HW247594  14.348   5.455   2.643
81919SOL     OW47595   0.303   3.069  13.559
81919SOL    HW147596   0.295   3.160  13.588
81919SOL    HW247597   0.271   3.017  13.633
81920SOL     OW47598  11.096  14.591  12.805
81920SOL    HW147599  11.031  14.627  12.745
81920SOL    HW247600  11.121  14.507  12.766
81921SOL     OW47601   8.876   6.743   0.407
81921SOL    HW147602   8.942   6.803   0.441
81921SOL    HW247603   8.925   6.668   0.374
81922SOL     OW47604   2.014  12.108   2.311
81922SOL    HW147605   2.049  12.036   2.259
81922SOL    HW247606   1.979  12.169   2.246
81923SOL     OW47607  12.190   7.814  13.315
81923SOL    HW147608  12.277   7.776  13.298
81923SOL    HW247609  12.206   7.880  13.383
81924SOL     OW47610   2.346   1.594   1.752
81924SOL    HW147611   2.272   1.548   1.793
81924SOL    HW247612   2.321   1.601   1.660
81925SOL     OW47613   7.751   4.122   9.333
81925SOL    HW147614   7.692   4.165   9.270
81925SOL    HW247615   7.823   4.184   9.344
81926SOL     OW47616   1.700   3.725   1.811
81926SOL    HW147617   1.731   3.814   1.792
81926SOL    HW247618   1.726   3.710   1.902
81927SOL     OW47619  13.840   6.488   4.066
81927SOL    HW147620  13.876   6.555   4.124
81927SOL    HW247621  13.748   6.510   4.058
81928SOL     OW47622   0.457   3.727   3.397
81928SOL    HW147623   0.382   3.783   3.377
81928SOL    HW247624   0.533   3.784   3.384
81929SOL     OW47625   1.192   0.268   6.621
81929SOL    HW147626   1.197   0.211   6.698
81929SOL    HW247627   1.282   0.294   6.604
81930SOL     OW47628   4.466   9.681   8.339
81930SOL    HW147629   4.438   9.598   8.299
81930SOL    HW247630   4.523   9.654   8.411
81931SOL     OW47631   8.446   6.453  11.898
81931SOL    HW147632   8.448   6.523  11.964
81931SOL    HW247633   8.535   6.452  11.862
81932SOL     OW47634   2.080   2.762   4.802
81932SOL    HW147635   2.104   2.853   4.817
81932SOL    HW247636   2.155   2.711   4.833
81933SOL     OW47637   7.333  14.018   6.965
81933SOL    HW147638   7.280  14.005   7.044
81933SOL    HW247639   7.373  14.104   6.977
81934SOL     OW47640   3.222   4.206   6.927
81934SOL    HW147641   3.197   4.297   6.909
81934SOL    HW247642   3.204   4.160   6.845
81935SOL     OW47643  11.441   2.456  13.328
81935SOL    HW147644  11.508   2.394  13.297
81935SOL    HW247645  11.408   2.497  13.248
81936SOL     OW47646  11.298   3.481   5.993
81936SOL    HW147647  11.332   3.521   6.073
81936SOL    HW247648  11.377   3.450   5.947
81937SOL     OW47649  12.682   7.593   7.527
81937SOL    HW147650  12.650   7.542   7.601
81937SOL    HW247651  12.777   7.600   7.541
81938SOL     OW47652   4.603   2.498   9.930
81938SOL    HW147653   4.696   2.517   9.918
81938SOL    HW247654   4.567   2.499   9.842
81939SOL     OW47655  11.008  11.018  14.644
81939SOL    HW147656  10.960  10.989  14.566
81939SOL    HW247657  11.098  10.992  14.628
81940SOL     OW47658   2.365   7.815   7.509
81940SOL    HW147659   2.336   7.800   7.598
81940SOL    HW247660   2.396   7.730   7.478
81941SOL     OW47661   5.504  12.964   7.845
81941SOL    HW147662   5.540  12.876   7.838
81941SOL    HW247663   5.552  13.015   7.781
81942SOL     OW47664  10.407  12.604  14.386
81942SOL    HW147665  10.463  12.560  14.450
81942SOL    HW247666  10.357  12.533  14.346
81943SOL     OW47667   6.622   6.560   2.189
81943SOL    HW147668   6.596   6.497   2.255
81943SOL    HW247669   6.696   6.608   2.228
81944SOL     OW47670   9.567  14.582  10.723
81944SOL    HW147671   9.561  14.593  10.818
81944SOL    HW247672   9.536  14.493  10.708
81945SOL     OW47673   1.881   6.875   5.741
81945SOL    HW147674   1.963   6.848   5.783
81945SOL    HW247675   1.907   6.943   5.679
81946SOL     OW47676   2.270   3.348   5.677
81946SOL    HW147677   2.324   3.426   5.689
81946SOL    HW247678   2.180   3.380   5.683
81947SOL     OW47679  13.865   1.120  12.263
81947SOL    HW147680  13.855   1.045  12.320
81947SOL    HW247681  13.942   1.166  12.296
81948SOL     OW47682   1.176   0.647   8.098
81948SOL    HW147683   1.128   0.700   8.034
81948SOL    HW247684   1.142   0.677   8.183
81949SOL     OW47685   8.734  11.876   9.186
81949SOL    HW147686   8.773  11.805   9.237
81949SOL    HW247687   8.653  11.898   9.232
81950SOL     OW47688  14.219   4.104  14.259
81950SOL    HW147689  14.279   4.147  14.320
81950SOL    HW247690  14.141   4.159  14.259
81951SOL     OW47691  13.765   1.697   1.284
81951SOL    HW147692  13.775   1.637   1.210
81951SOL    HW247693  13.714   1.770   1.250
81952SOL     OW47694   4.740   0.589   8.615
81952SOL    HW147695   4.693   0.663   8.576
81952SOL    HW247696   4.672   0.522   8.627
81953SOL     OW47697   4.853   9.362   2.761
81953SOL    HW147698   4.937   9.317   2.770
81953SOL    HW247699   4.845   9.379   2.667
81954SOL     OW47700   5.386   0.102   3.535
81954SOL    HW147701   5.385   0.007   3.535
81954SOL    HW247702   5.420   0.126   3.449
81955SOL     OW47703  12.945  13.637   4.681
81955SOL    HW147704  13.011  13.683   4.629
81955SOL    HW247705  12.988  13.620   4.765
81956SOL     OW47706   4.568   4.847   3.327
81956SOL    HW147707   4.630   4.814   3.392
81956SOL    HW247708   4.526   4.922   3.370
81957SOL     OW47709   7.122   7.868  14.112
81957SOL    HW147710   7.033   7.841  14.135
81957SOL    HW247711   7.162   7.895  14.195
81958SOL     OW47712   4.744   1.618  13.146
81958SOL    HW147713   4.680   1.608  13.076
81958SOL    HW247714   4.696   1.596  13.226
81959SOL     OW47715   7.013   3.896   0.868
81959SOL    HW147716   7.023   3.822   0.808
81959SOL    HW247717   6.992   3.855   0.952
81960SOL     OW47718  11.746   7.449   0.357
81960SOL    HW147719  11.745   7.382   0.290
81960SOL    HW247720  11.738   7.401   0.440
81961SOL     OW47721   8.839   0.476   7.699
81961SOL    HW147722   8.753   0.462   7.739
81961SOL    HW247723   8.844   0.412   7.628
81962SOL     OW47724  12.195   5.768   5.284
81962SOL    HW147725  12.224   5.686   5.244
81962SOL    HW247726  12.260   5.784   5.353
81963SOL     OW47727   6.549  11.018   3.082
81963SOL    HW147728   6.497  11.092   3.112
81963SOL    HW247729   6.485  10.955   3.048
81964SOL     OW47730   6.233   0.471   7.514
81964SOL    HW147731   6.228   0.424   7.431
81964SOL    HW247732   6.165   0.538   7.508
81965SOL     OW47733   3.105   6.208   3.929
81965SOL    HW147734   3.130   6.299   3.945
81965SOL    HW247735   3.037   6.212   3.862
81966SOL     OW47736  10.563   4.684  11.832
81966SOL    HW147737  10.637   4.663  11.775
81966SOL    HW247738  10.575   4.775  11.856
81967SOL     OW47739   8.861  12.631  13.695
81967SOL    HW147740   8.766  12.632  13.683
81967SOL    HW247741   8.880  12.711  13.745
81968SOL     OW47742  12.510   0.468   5.928
81968SOL    HW147743  12.580   0.434   5.872
81968SOL    HW247744  12.450   0.394   5.940
81969SOL     OW47745   7.532   0.230  12.329
81969SOL    HW147746   7.571   0.299  12.383
81969SOL    HW247747   7.607   0.185  12.289
81970SOL     OW47748   5.115   8.607   4.674
81970SOL    HW147749   5.176   8.543   4.710
81970SOL    HW247750   5.038   8.602   4.730
81971SOL     OW47751   1.564   7.637  12.481
81971SOL    HW147752   1.654   7.658  12.454
81971SOL    HW247753   1.510   7.698  12.432
81972SOL     OW47754   4.102   4.864   4.800
81972SOL    HW147755   4.033   4.799   4.784
81972SOL    HW247756   4.184   4.817   4.780
81973SOL     OW47757   3.932   8.022  10.995
81973SOL    HW147758   4.005   8.008  10.934
81973SOL    HW247759   3.935   8.116  11.015
81974SOL     OW47760   7.407   4.661   4.158
81974SOL    HW147761   7.401   4.650   4.063
81974SOL    HW247762   7.449   4.581   4.189
81975SOL     OW47763  13.349   6.421   8.474
81975SOL    HW147764  13.256   6.441   8.467
81975SOL    HW247765  13.367   6.421   8.568
81976SOL     OW47766  12.311  13.361   3.418
81976SOL    HW147767  12.287  13.338   3.507
81976SOL    HW247768  12.404  13.338   3.411
81977SOL     OW47769   8.326   7.953  11.370
81977SOL    HW147770   8.274   7.989  11.298
81977SOL    HW247771   8.285   7.868  11.388
81978SOL     OW47772   5.600   3.497   0.375
81978SOL    HW147773   5.602   3.444   0.455
81978SOL    HW247774   5.670   3.461   0.321
81979SOL     OW47775  12.188   5.519   0.282
81979SOL    HW147776  12.191   5.545   0.374
81979SOL    HW247777  12.096   5.531   0.258
81980SOL     OW47778   9.704  11.966   3.316
81980SOL    HW147779   9.735  11.980   3.227
81980SOL    HW247780   9.611  11.990   3.313
81981SOL     OW47781   1.351  12.971  14.603
81981SOL    HW147782   1.424  13.011  14.556
81981SOL    HW247783   1.388  12.939  14.684
81982SOL     OW47784  12.856  12.521   4.978
81982SOL    HW147785  12.768  12.549   5.004
81982SOL    HW247786  12.862  12.430   5.007
81983SOL     OW47787   1.643   9.065   4.748
81983SOL    HW147788   1.646   9.160   4.749
81983SOL    HW247789   1.700   9.038   4.820
81984SOL     OW47790   0.044  10.183  11.905
81984SOL    HW147791   0.108  10.191  11.834
81984SOL    HW247792   0.069  10.102  11.950
81985SOL     OW47793   1.986  14.367   5.471
81985SOL    HW147794   2.076  14.336   5.468
81985SOL    HW247795   1.933  14.289   5.451
81986SOL     OW47796   7.069   0.781  10.802
81986SOL    HW147797   7.070   0.823  10.888
81986SOL    HW247798   7.160   0.756  10.786
81987SOL     OW47799   6.154   9.566   3.478
81987SOL    HW147800   6.094   9.554   3.551
81987SOL    HW247801   6.241   9.575   3.518
81988SOL     OW47802  12.755  14.441   7.813
81988SOL    HW147803  12.739  14.368   7.754
81988SOL    HW247804  12.672  14.488   7.817
81989SOL     OW47805   1.415   1.350   0.924
81989SOL    HW147806   1.411   1.259   0.953
81989SOL    HW247807   1.378   1.349   0.836
81990SOL     OW47808   2.513   8.640   7.548
81990SOL    HW147809   2.563   8.591   7.613
81990SOL    HW247810   2.533   8.597   7.465
81991SOL     OW47811   0.581   3.332   1.444
81991SOL    HW147812   0.571   3.258   1.505
81991SOL    HW247813   0.676   3.341   1.434
81992SOL     OW47814   5.873  12.610   7.042
81992SOL    HW147815   5.965  12.589   7.029
81992SOL    HW247816   5.851  12.573   7.127
81993SOL     OW47817   0.206  11.258  10.889
81993SOL    HW147818   0.221  11.340  10.842
81993SOL    HW247819   0.293  11.227  10.913
81994SOL     OW47820  12.343   9.862   3.745
81994SOL    HW147821  12.350   9.954   3.772
81994SOL    HW247822  12.253   9.852   3.715
81995SOL     OW47823  11.851   2.055   3.981
81995SOL    HW147824  11.934   2.072   4.026
81995SOL    HW247825  11.809   2.141   3.975
81996SOL     OW47826  11.941   5.600  10.450
81996SOL    HW147827  11.978   5.521  10.490
81996SOL    HW247828  11.976   5.600  10.361
81997SOL     OW47829   2.551   4.681  12.382
81997SOL    HW147830   2.557   4.754  12.320
81997SOL    HW247831   2.641   4.649  12.389
81998SOL     OW47832   2.026   4.314  13.205
81998SOL    HW147833   2.066   4.301  13.291
81998SOL    HW247834   1.959   4.245  13.199
81999SOL     OW47835  14.090   8.788   1.370
81999SOL    HW147836  14.149   8.836   1.310
81999SOL    HW247837  14.025   8.749   1.312
82000SOL     OW47838  12.573   2.372  12.751
82000SOL    HW147839  12.600   2.408  12.836
82000SOL    HW247840  12.478   2.385  12.749
82001SOL     OW47841   7.078  13.062   2.452
82001SOL    HW147842   7.041  13.054   2.540
82001SOL    HW247843   7.166  13.097   2.466
82002SOL     OW47844   6.727   4.800  10.831
82002SOL    HW147845   6.806   4.815  10.779
82002SOL    HW247846   6.694   4.715  10.801
82003SOL     OW47847   4.224  13.022  13.012
82003SOL    HW147848   4.250  13.113  13.028
82003SOL    HW247849   4.307  12.975  13.004
82004SOL     OW47850   3.789  10.540  12.414
82004SOL    HW147851   3.826  10.624  12.385
82004SOL    HW247852   3.821  10.477  12.349
82005SOL     OW47853  12.447  11.144   2.230
82005SOL    HW147854  12.373  11.092   2.199
82005SOL    HW247855  12.481  11.187   2.152
82006SOL     OW47856  12.570  14.143   5.502
82006SOL    HW147857  12.569  14.117   5.594
82006SOL    HW247858  12.490  14.106   5.466
82007SOL     OW47859  12.066   1.706   4.807
82007SOL    HW147860  12.043   1.624   4.765
82007SOL    HW247861  12.039   1.695   4.898
82008SOL     OW47862   6.114  14.119   5.015
82008SOL    HW147863   6.145  14.180   5.082
82008SOL    HW247864   6.114  14.171   4.935
82009SOL     OW47865  13.461   9.775   9.548
82009SOL    HW147866  13.511   9.734   9.619
82009SOL    HW247867  13.395   9.828   9.592
82010SOL     OW47868   5.137  14.157  11.473
82010SOL    HW147869   5.182  14.236  11.444
82010SOL    HW247870   5.167  14.145  11.564
82011SOL     OW47871   3.791  13.322  10.276
82011SOL    HW147872   3.741  13.269  10.212
82011SOL    HW247873   3.788  13.410  10.240
82012SOL     OW47874   3.793   1.950   2.243
82012SOL    HW147875   3.878   1.990   2.263
82012SOL    HW247876   3.796   1.864   2.286
82013SOL     OW47877  14.205   1.165   7.419
82013SOL    HW147878  14.161   1.124   7.493
82013SOL    HW247879  14.299   1.159   7.440
82014SOL     OW47880   4.220  14.149   3.224
82014SOL    HW147881   4.150  14.093   3.256
82014SOL    HW247882   4.299  14.115   3.266
82015SOL     OW47883   9.763   4.823   2.194
82015SOL    HW147884   9.709   4.765   2.248
82015SOL    HW247885   9.828   4.858   2.255
82016SOL     OW47886  10.066   3.673   3.936
82016SOL    HW147887   9.995   3.658   3.873
82016SOL    HW247888  10.021   3.686   4.020
82017SOL     OW47889   4.524   6.944   1.765
82017SOL    HW147890   4.502   6.950   1.858
82017SOL    HW247891   4.567   7.027   1.745
82018SOL     OW47892   1.169   0.984   8.249
82018SOL    HW147893   1.196   1.015   8.336
82018SOL    HW247894   1.116   0.907   8.266
82019SOL     OW47895   5.569   3.634   8.980
82019SOL    HW147896   5.519   3.599   8.907
82019SOL    HW247897   5.503   3.668   9.040
82020SOL     OW47898   3.158   6.294  14.818
82020SOL    HW147899   3.252   6.278  14.828
82020SOL    HW247900   3.149   6.333  14.731
82021SOL     OW47901   3.856   9.428   4.911
82021SOL    HW147902   3.857   9.378   4.992
82021SOL    HW247903   3.764   9.453   4.899
82022SOL     OW47904   9.517   7.594   5.675
82022SOL    HW147905   9.426   7.572   5.655
82022SOL    HW247906   9.552   7.628   5.593
82023SOL     OW47907   5.489   1.820   8.177
82023SOL    HW147908   5.434   1.797   8.252
82023SOL    HW247909   5.564   1.866   8.215
82024SOL     OW47910  11.828   0.386   8.147
82024SOL    HW147911  11.783   0.451   8.094
82024SOL    HW247912  11.895   0.350   8.089
82025SOL     OW47913   5.788   2.779   2.081
82025SOL    HW147914   5.871   2.825   2.073
82025SOL    HW247915   5.793   2.735   2.166
82026SOL     OW47916  10.299   8.451  12.957
82026SOL    HW147917  10.275   8.544  12.959
82026SOL    HW247918  10.318   8.433  12.865
82027SOL     OW47919  11.755  13.019   0.238
82027SOL    HW147920  11.742  13.111   0.216
82027SOL    HW247921  11.732  13.014   0.331
82028SOL     OW47922   9.650   4.250   2.013
82028SOL    HW147923   9.582   4.186   1.991
82028SOL    HW247924   9.677   4.287   1.929
82029SOL     OW47925   4.040   4.957  13.980
82029SOL    HW147926   4.104   5.012  13.936
82029SOL    HW247927   3.988   4.919  13.908
82030SOL     OW47928   4.948   1.511   2.700
82030SOL    HW147929   4.865   1.546   2.732
82030SOL    HW247930   4.989   1.584   2.654
82031SOL     OW47931   8.263   0.592  11.038
82031SOL    HW147932   8.325   0.519  11.030
82031SOL    HW247933   8.219   0.576  11.122
82032SOL     OW47934   3.511  10.293   3.032
82032SOL    HW147935   3.557  10.293   2.948
82032SOL    HW247936   3.424  10.260   3.011
82033SOL     OW47937   6.456   7.087   9.012
82033SOL    HW147938   6.513   7.046   9.077
82033SOL    HW247939   6.496   7.173   8.997
82034SOL     OW47940  10.370   4.504   3.325
82034SOL    HW147941  10.409   4.427   3.283
82034SOL    HW247942  10.393   4.576   3.267
82035SOL     OW47943  11.397   1.141   6.103
82035SOL    HW147944  11.316   1.152   6.053
82035SOL    HW247945  11.416   1.227   6.139
82036SOL     OW47946   6.623   2.263   7.246
82036SOL    HW147947   6.678   2.315   7.187
82036SOL    HW247948   6.602   2.185   7.195
82037SOL     OW47949   2.192  14.793   4.883
82037SOL    HW147950   2.217  14.714   4.931
82037SOL    HW247951   2.228  14.781   4.796
82038SOL     OW47952   4.276  14.841  13.398
82038SOL    HW147953   4.347  14.843  13.333
82038SOL    HW247954   4.201   0.005  13.353
82039SOL     OW47955   8.518   7.478   7.720
82039SOL    HW147956   8.477   7.533   7.788
82039SOL    HW247957   8.607   7.513   7.712
82040SOL     OW47958   3.630   2.946   7.243
82040SOL    HW147959   3.553   2.953   7.187
82040SOL    HW247960   3.702   2.926   7.183
82041SOL     OW47961  11.099   3.224  12.459
82041SOL    HW147962  11.137   3.171  12.389
82041SOL    HW247963  11.140   3.310  12.449
82042SOL     OW47964   9.614  12.741   3.821
82042SOL    HW147965   9.552  12.727   3.893
82042SOL    HW247966   9.654  12.656   3.806
82043SOL     OW47967   6.646  10.142   5.951
82043SOL    HW147968   6.576  10.205   5.970
82043SOL    HW247969   6.609  10.057   5.972
82044SOL     OW47970   8.638   2.769   9.048
82044SOL    HW147971   8.689   2.786   9.128
82044SOL    HW247972   8.553   2.738   9.080
82045SOL     OW47973  10.318  13.394  11.726
82045SOL    HW147974  10.255  13.421  11.659
82045SOL    HW247975  10.376  13.469  11.736
82046SOL     OW47976  12.708   2.220  10.746
82046SOL    HW147977  12.619   2.251  10.762
82046SOL    HW247978  12.704   2.178  10.661
82047SOL     OW47979   0.378   7.886   6.516
82047SOL    HW147980   0.401   7.841   6.435
82047SOL    HW247981   0.345   7.816   6.573
82048SOL     OW47982   4.329  12.316  11.212
82048SOL    HW147983   4.356  12.374  11.283
82048SOL    HW247984   4.299  12.375  11.143
82049SOL     OW47985   9.778   9.495  11.857
82049SOL    HW147986   9.713   9.560  11.833
82049SOL    HW247987   9.816   9.466  11.774
82050SOL     OW47988   7.653  14.431   7.294
82050SOL    HW147989   7.599  14.508   7.276
82050SOL    HW247990   7.605  14.359   7.254
82051SOL     OW47991   2.497   9.330  13.500
82051SOL    HW147992   2.550   9.359  13.573
82051SOL    HW247993   2.421   9.387  13.500
82052SOL     OW47994   7.082   7.000   0.831
82052SOL    HW147995   7.025   6.971   0.760
82052SOL    HW247996   7.170   6.998   0.794
82053SOL     OW47997   9.221   7.134   8.852
82053SOL    HW147998   9.192   7.155   8.940
82053SOL    HW247999   9.140   7.133   8.800
82054SOL     OW48000  13.602   3.248   7.110
82054SOL    HW148001  13.510   3.250   7.087
82054SOL    HW248002  13.629   3.340   7.111
82055SOL     OW48003  12.076   2.364  11.095
82055SOL    HW148004  12.088   2.459  11.089
82055SOL    HW248005  12.008   2.344  11.031
82056SOL     OW48006   1.239  11.759   8.309
82056SOL    HW148007   1.166  11.732   8.365
82056SOL    HW248008   1.237  11.855   8.312
82057SOL     OW48009   6.604   2.776  11.465
82057SOL    HW148010   6.578   2.760  11.555
82057SOL    HW248011   6.546   2.718  11.413
82058SOL     OW48012   2.065  12.248   0.145
82058SOL    HW148013   2.007  12.232   0.220
82058SOL    HW248014   2.139  12.188   0.158
82059SOL     OW48015  13.809  13.966   3.157
82059SOL    HW148016  13.900  13.940   3.159
82059SOL    HW248017  13.809  14.048   3.106
82060SOL     OW48018  13.407  13.160   1.910
82060SOL    HW148019  13.455  13.093   1.861
82060SOL    HW248020  13.466  13.184   1.981
82061SOL     OW48021   8.048  11.289  12.259
82061SOL    HW148022   7.968  11.247  12.291
82061SOL    HW248023   8.115  11.221  12.265
82062SOL     OW48024   4.779   5.314   0.750
82062SOL    HW148025   4.794   5.233   0.800
82062SOL    HW248026   4.709   5.291   0.689
82063SOL     OW48027   7.647   5.078  12.496
82063SOL    HW148028   7.736   5.093  12.530
82063SOL    HW248029   7.590   5.102  12.568
82064SOL     OW48030   2.744   1.338   5.844
82064SOL    HW148031   2.812   1.401   5.819
82064SOL    HW248032   2.730   1.285   5.765
82065SOL     OW48033   9.066  13.086  14.556
82065SOL    HW148034   8.997  13.020  14.552
82065SOL    HW248035   9.102  13.079  14.644
82066SOL     OW48036  12.369   7.221   4.101
82066SOL    HW148037  12.377   7.147   4.041
82066SOL    HW248038  12.439   7.208   4.165
82067SOL     OW48039   4.657   2.210   4.600
82067SOL    HW148040   4.661   2.255   4.516
82067SOL    HW248041   4.566   2.216   4.627
82068SOL     OW48042   2.368   2.169   7.345
82068SOL    HW148043   2.311   2.175   7.268
82068SOL    HW248044   2.343   2.243   7.400
82069SOL     OW48045  11.985  13.783   4.049
82069SOL    HW148046  11.971  13.811   4.139
82069SOL    HW248047  11.944  13.851   3.995
82070SOL     OW48048   1.678   7.396   0.048
82070SOL    HW148049   1.628   7.436   0.118
82070SOL    HW248050   1.614   7.377  14.856
82071SOL     OW48051  11.927   6.615   5.730
82071SOL    HW148052  11.892   6.623   5.641
82071SOL    HW248053  12.021   6.630   5.721
82072SOL     OW48054   5.943   1.798   1.224
82072SOL    HW148055   6.037   1.785   1.214
82072SOL    HW248056   5.918   1.853   1.149
82073SOL     OW48057  13.599  12.304   7.223
82073SOL    HW148058  13.511  12.289   7.255
82073SOL    HW248059  13.587  12.345   7.137
82074SOL     OW48060   6.542   1.440   0.295
82074SOL    HW148061   6.626   1.479   0.316
82074SOL    HW248062   6.548   1.419   0.201
82075SOL     OW48063   5.798   3.099   9.470
82075SOL    HW148064   5.777   3.124   9.560
82075SOL    HW248065   5.714   3.072   9.432
82076SOL     OW48066  14.391   6.944   1.382
82076SOL    HW148067  14.424   7.030   1.407
82076SOL    HW248068  14.358   6.906   1.463
82077SOL     OW48069   1.422   3.750   1.886
82077SOL    HW148070   1.507   3.716   1.858
82077SOL    HW248071   1.372   3.672   1.909
82078SOL     OW48072  12.252   4.406   8.316
82078SOL    HW148073  12.319   4.426   8.381
82078SOL    HW248074  12.187   4.475   8.327
82079SOL     OW48075  12.606   9.882   1.684
82079SOL    HW148076  12.617   9.919   1.772
82079SOL    HW248077  12.543   9.811   1.696
82080SOL     OW48078   6.351  14.302  11.178
82080SOL    HW148079   6.410  14.227  11.172
82080SOL    HW248080   6.293  14.281  11.251
82081SOL     OW48081   8.283   6.772  14.169
82081SOL    HW148082   8.253   6.688  14.134
82081SOL    HW248083   8.376   6.758  14.188
82082SOL     OW48084   4.392   9.314   1.549
82082SOL    HW148085   4.319   9.323   1.487
82082SOL    HW248086   4.350   9.288   1.631
82083SOL     OW48087   4.843   9.550   6.726
82083SOL    HW148088   4.889   9.570   6.644
82083SOL    HW248089   4.800   9.632   6.749
82084SOL     OW48090   9.992  10.043  13.605
82084SOL    HW148091   9.967  10.034  13.513
82084SOL    HW248092   9.996   9.953  13.637
82085SOL     OW48093  10.354   3.041   1.665
82085SOL    HW148094  10.381   2.959   1.625
82085SOL    HW248095  10.343   3.101   1.592
82086SOL     OW48096   4.157   2.975   1.258
82086SOL    HW148097   4.143   2.932   1.343
82086SOL    HW248098   4.250   2.994   1.255
82087SOL     OW48099   1.976   7.495   5.437
82087SOL    HW148100   1.941   7.430   5.375
82087SOL    HW248101   2.058   7.523   5.397
82088SOL     OW48102  13.667   8.579  10.398
82088SOL    HW148103  13.683   8.671  10.379
82088SOL    HW248104  13.748   8.535  10.370
82089SOL     OW48105   4.706   1.990  10.450
82089SOL    HW148106   4.658   1.946  10.521
82089SOL    HW248107   4.744   1.919  10.399
82090SOL     OW48108   5.957   4.047  11.271
82090SOL    HW148109   6.040   4.004  11.294
82090SOL    HW248110   5.934   4.096  11.349
82091SOL     OW48111  13.713   4.196  12.797
82091SOL    HW148112  13.797   4.237  12.822
82091SOL    HW248113  13.664   4.267  12.755
82092SOL     OW48114   2.312   5.577   5.164
82092SOL    HW148115   2.337   5.667   5.185
82092SOL    HW248116   2.379   5.523   5.206
82093SOL     OW48117  10.933   9.957   5.563
82093SOL    HW148118  10.946  10.049   5.539
82093SOL    HW248119  11.006   9.938   5.622
82094SOL     OW48120   4.974  12.923   3.142
82094SOL    HW148121   4.892  12.971   3.126
82094SOL    HW248122   4.960  12.881   3.227
82095SOL     OW48123   9.271   4.354  10.054
82095SOL    HW148124   9.346   4.410  10.071
82095SOL    HW248125   9.303   4.265  10.072
82096SOL     OW48126   8.940   7.139   7.825
82096SOL    HW148127   8.926   7.102   7.912
82096SOL    HW248128   8.934   7.234   7.839
82097SOL     OW48129  13.707  11.482   5.508
82097SOL    HW148130  13.662  11.468   5.425
82097SOL    HW248131  13.795  11.510   5.484
82098SOL     OW48132  14.628  14.470   3.830
82098SOL    HW148133  14.644  14.510   3.744
82098SOL    HW248134  14.711  14.479   3.876
82099SOL     OW48135   0.786  10.313   8.663
82099SOL    HW148136   0.816  10.401   8.640
82099SOL    HW248137   0.752  10.277   8.582
82100SOL     OW48138   4.772  10.455   2.785
82100SOL    HW148139   4.727  10.371   2.798
82100SOL    HW248140   4.838  10.437   2.719
82101SOL     OW48141  12.464   7.328   9.943
82101SOL    HW148142  12.465   7.286   9.857
82101SOL    HW248143  12.440   7.419   9.926
82102SOL     OW48144   0.999   0.232  11.241
82102SOL    HW148145   1.092   0.208  11.236
82102SOL    HW248146   0.970   0.195  11.325
82103SOL     OW48147   3.361  13.305   7.510
82103SOL    HW148148   3.412  13.353   7.575
82103SOL    HW248149   3.287  13.269   7.560
82104SOL     OW48150   0.922  11.909  13.849
82104SOL    HW148151   0.843  11.949  13.885
82104SOL    HW248152   0.905  11.900  13.755
82105SOL     OW48153   7.524   3.683   4.130
82105SOL    HW148154   7.527   3.772   4.164
82105SOL    HW248155   7.528   3.627   4.208
82106SOL     OW48156   5.894  14.480   7.513
82106SOL    HW148157   5.875  14.400   7.563
82106SOL    HW248158   5.941  14.449   7.435
82107SOL     OW48159   1.662   1.686   7.639
82107SOL    HW148160   1.653   1.623   7.568
82107SOL    HW248161   1.674   1.770   7.596
82108SOL     OW48162   4.919  13.901   7.563
82108SOL    HW148163   4.869  13.853   7.496
82108SOL    HW248164   4.984  13.838   7.593
82109SOL     OW48165   9.159   3.781  14.389
82109SOL    HW148166   9.221   3.713  14.414
82109SOL    HW248167   9.078   3.735  14.369
82110SOL     OW48168   0.002  10.759   8.374
82110SOL    HW148169   0.072  10.751   8.439
82110SOL    HW248170   0.038  10.818   8.308
82111SOL     OW48171   0.240   1.623   7.816
82111SOL    HW148172   0.187   1.698   7.790
82111SOL    HW248173   0.262   1.639   7.908
82112SOL     OW48174  10.695   2.481  12.547
82112SOL    HW148175  10.631   2.411  12.562
82112SOL    HW248176  10.649   2.561  12.573
82113SOL     OW48177   3.768  12.648   7.621
82113SOL    HW148178   3.731  12.700   7.693
82113SOL    HW248179   3.794  12.713   7.555
82114SOL     OW48180   1.076   4.851  14.055
82114SOL    HW148181   1.064   4.766  14.012
82114SOL    HW248182   1.164   4.847  14.092
82115SOL     OW48183   2.519  11.512  14.252
82115SOL    HW148184   2.542  11.426  14.287
82115SOL    HW248185   2.501  11.565  14.330
82116SOL     OW48186  13.548   8.854  10.752
82116SOL    HW148187  13.618   8.834  10.690
82116SOL    HW248188  13.487   8.781  10.744
82117SOL     OW48189   0.458   1.630   0.072
82117SOL    HW148190   0.505   1.555   0.038
82117SOL    HW248191   0.395   1.593   0.134
82118SOL     OW48192   9.760   8.733  13.343
82118SOL    HW148193   9.741   8.827  13.348
82118SOL    HW248194   9.674   8.692  13.337
82119SOL     OW48195  14.314   5.636   4.640
82119SOL    HW148196  14.391   5.619   4.585
82119SOL    HW248197  14.247   5.577   4.607
82120SOL     OW48198  11.574   0.861   8.664
82120SOL    HW148199  11.562   0.789   8.602
82120SOL    HW248200  11.636   0.826   8.729
82121SOL     OW48201   8.490   9.395   2.513
82121SOL    HW148202   8.505   9.466   2.576
82121SOL    HW248203   8.569   9.341   2.520
82122SOL     OW48204   4.581  12.336  12.766
82122SOL    HW148205   4.671  12.363  12.750
82122SOL    HW248206   4.587  12.248  12.802
82123SOL     OW48207   4.609   0.624  12.319
82123SOL    HW148208   4.554   0.676  12.259
82123SOL    HW248209   4.655   0.562  12.262
82124SOL     OW48210   8.430   6.916   7.676
82124SOL    HW148211   8.381   6.894   7.755
82124SOL    HW248212   8.491   6.984   7.704
82125SOL     OW48213   5.321   3.605   7.726
82125SOL    HW148214   5.297   3.689   7.687
82125SOL    HW248215   5.407   3.584   7.687
82126SOL     OW48216   4.895   8.107  12.893
82126SOL    HW148217   4.903   8.203  12.898
82126SOL    HW248218   4.844   8.091  12.814
82127SOL     OW48219  12.791   3.163  14.280
82127SOL    HW148220  12.867   3.117  14.315
82127SOL    HW248221  12.778   3.237  14.339
82128SOL     OW48222   7.969   1.252  10.762
82128SOL    HW148223   7.922   1.263  10.844
82128SOL    HW248224   7.913   1.195  10.709
82129SOL     OW48225   3.313   8.912   9.730
82129SOL    HW148226   3.300   8.858   9.807
82129SOL    HW248227   3.226   8.920   9.691
82130SOL     OW48228   3.331  12.273   3.606
82130SOL    HW148229   3.269  12.345   3.589
82130SOL    HW248230   3.301  12.236   3.689
82131SOL     OW48231   1.559   7.204   2.980
82131SOL    HW148232   1.603   7.225   2.898
82131SOL    HW248233   1.610   7.249   3.047
82132SOL     OW48234   6.666  14.447  14.069
82132SOL    HW148235   6.585  14.479  14.029
82132SOL    HW248236   6.730  14.451  13.999
82133SOL     OW48237   2.488   0.783  11.106
82133SOL    HW148238   2.394   0.799  11.096
82133SOL    HW248239   2.499   0.690  11.086
82134SOL     OW48240   8.293   6.256  11.766
82134SOL    HW148241   8.347   6.186  11.802
82134SOL    HW248242   8.334   6.336  11.798
82135SOL     OW48243  12.090   8.090  12.502
82135SOL    HW148244  12.001   8.075  12.533
82135SOL    HW248245  12.144   8.033  12.557
82136SOL     OW48246   1.660   7.599  11.520
82136SOL    HW148247   1.726   7.666  11.503
82136SOL    HW248248   1.710   7.522  11.548
82137SOL     OW48249  13.458   8.928  12.822
82137SOL    HW148250  13.462   8.993  12.751
82137SOL    HW248251  13.478   8.978  12.901
82138SOL     OW48252  10.575   9.656   1.747
82138SOL    HW148253  10.528   9.721   1.694
82138SOL    HW248254  10.645   9.706   1.789
82139SOL     OW48255   2.412  11.020  14.158
82139SOL    HW148256   2.319  11.015  14.177
82139SOL    HW248257   2.452  10.955  14.215
82140SOL     OW48258   0.705  10.653   9.697
82140SOL    HW148259   0.616  10.645   9.732
82140SOL    HW248260   0.719  10.572   9.648
82141SOL     OW48261   3.926  11.442   8.455
82141SOL    HW148262   3.903  11.423   8.546
82141SOL    HW248263   3.940  11.356   8.415
82142SOL     OW48264   8.208   2.433   8.746
82142SOL    HW148265   8.204   2.349   8.793
82142SOL    HW248266   8.225   2.408   8.655
82143SOL     OW48267   9.675   6.855  10.768
82143SOL    HW148268   9.688   6.789  10.837
82143SOL    HW248269   9.642   6.932  10.814
82144SOL     OW48270   0.942  13.271   3.093
82144SOL    HW148271   0.891  13.196   3.063
82144SOL    HW248272   1.033  13.246   3.078
82145SOL     OW48273   4.771  10.188   3.342
82145SOL    HW148274   4.844  10.155   3.290
82145SOL    HW248275   4.813  10.232   3.416
82146SOL     OW48276   1.394   7.862  14.625
82146SOL    HW148277   1.462   7.821  14.573
82146SOL    HW248278   1.369   7.796  14.689
82147SOL     OW48279  11.224   8.238  12.108
82147SOL    HW148280  11.147   8.233  12.051
82147SOL    HW248281  11.288   8.290  12.059
82148SOL     OW48282   9.760   1.308   9.569
82148SOL    HW148283   9.761   1.222   9.526
82148SOL    HW248284   9.682   1.351   9.533
82149SOL     OW48285   2.654   3.839   6.914
82149SOL    HW148286   2.730   3.809   6.963
82149SOL    HW248287   2.689   3.905   6.854
82150SOL     OW48288  13.968   9.916   9.028
82150SOL    HW148289  13.882   9.878   9.045
82150SOL    HW248290  13.950   9.995   8.977
82151SOL     OW48291  11.175   1.359  12.665
82151SOL    HW148292  11.170   1.305  12.586
82151SOL    HW248293  11.085   1.359  12.700
82152SOL     OW48294   0.286  14.816  11.891
82152SOL    HW148295   0.314  14.796  11.802
82152SOL    HW248296   0.216   0.004  11.880
82153SOL     OW48297  10.236   3.792   2.174
82153SOL    HW148298  10.248   3.885   2.192
82153SOL    HW248299  10.141   3.780   2.173
82154SOL     OW48300  14.611   9.167   7.080
82154SOL    HW148301  14.591   9.101   7.147
82154SOL    HW248302  14.553   9.240   7.101
82155SOL     OW48303   0.108   4.712  13.494
82155SOL    HW148304   0.176   4.778  13.482
82155SOL    HW248305   0.117   4.685  13.586
82156SOL     OW48306   5.222   5.322  10.174
82156SOL    HW148307   5.168   5.272  10.113
82156SOL    HW248308   5.165   5.338  10.249
82157SOL     OW48309   4.775   6.898   6.437
82157SOL    HW148310   4.687   6.932   6.422
82157SOL    HW248311   4.771   6.855   6.522
82158SOL     OW48312  13.640   4.514  12.777
82158SOL    HW148313  13.655   4.485  12.867
82158SOL    HW248314  13.643   4.610  12.782
82159SOL     OW48315   6.342   6.160   2.501
82159SOL    HW148316   6.378   6.224   2.562
82159SOL    HW248317   6.414   6.142   2.440
82160SOL     OW48318  12.460   9.447  14.050
82160SOL    HW148319  12.499   9.530  14.023
82160SOL    HW248320  12.407   9.419  13.975
82161SOL     OW48321   9.439  13.080  12.431
82161SOL    HW148322   9.415  12.987  12.428
82161SOL    HW248323   9.484  13.096  12.348
82162SOL     OW48324   6.570   2.990  14.222
82162SOL    HW148325   6.481   2.960  14.242
82162SOL    HW248326   6.595   2.942  14.143
82163SOL     OW48327   5.561   3.109  12.762
82163SOL    HW148328   5.480   3.098  12.712
82163SOL    HW248329   5.539   3.078  12.850
82164SOL     OW48330   8.549  10.523   5.732
82164SOL    HW148331   8.590  10.597   5.776
82164SOL    HW248332   8.618  10.456   5.728
82165SOL     OW48333  11.189  10.512   6.912
82165SOL    HW148334  11.281  10.537   6.903
82165SOL    HW248335  11.177  10.497   7.005
82166SOL     OW48336   5.357   9.358   7.557
82166SOL    HW148337   5.415   9.423   7.596
82166SOL    HW248338   5.284   9.409   7.522
82167SOL     OW48339   6.120   9.016   3.229
82167SOL    HW148340   6.128   9.084   3.296
82167SOL    HW248341   6.168   8.941   3.264
82168SOL     OW48342   1.541   3.984  10.048
82168SOL    HW148343   1.538   4.058  10.108
82168SOL    HW248344   1.469   3.927  10.076
82169SOL     OW48345   8.759   8.606   9.455
82169SOL    HW148346   8.846   8.570   9.436
82169SOL    HW248347   8.750   8.596   9.550
82170SOL     OW48348  10.134  14.366   0.545
82170SOL    HW148349  10.148  14.278   0.579
82170SOL    HW248350  10.197  14.374   0.474
82171SOL     OW48351   2.090  12.941   5.048
82171SOL    HW148352   2.137  12.973   4.971
82171SOL    HW248353   2.159  12.906   5.105
82172SOL     OW48354   3.559   2.585  12.834
82172SOL    HW148355   3.465   2.576  12.820
82172SOL    HW248356   3.567   2.630  12.918
82173SOL     OW48357   0.922  14.866   7.986
82173SOL    HW148358   0.959   0.055   8.045
82173SOL    HW248359   0.846  14.832   8.034
82174SOL     OW48360   9.826   5.175   6.832
82174SOL    HW148361   9.734   5.203   6.830
82174SOL    HW248362   9.851   5.170   6.740
82175SOL     OW48363   4.778  14.240   8.344
82175SOL    HW148364   4.711  14.198   8.397
82175SOL    HW248365   4.778  14.190   8.262
82176SOL     OW48366   1.733   0.924   1.589
82176SOL    HW148367   1.778   0.980   1.653
82176SOL    HW248368   1.799   0.862   1.561
82177SOL     OW48369   3.236   1.707  13.163
82177SOL    HW148370   3.311   1.765  13.174
82177SOL    HW248371   3.260   1.628  13.212
82178SOL     OW48372   7.832   1.381  13.055
82178SOL    HW148373   7.831   1.372  12.960
82178SOL    HW248374   7.747   1.349  13.084
82179SOL     OW48375   7.019   5.121  12.164
82179SOL    HW148376   6.975   5.096  12.244
82179SOL    HW248377   7.033   5.216  12.173
82180SOL     OW48378  12.680   3.377  12.414
82180SOL    HW148379  12.717   3.436  12.349
82180SOL    HW248380  12.611   3.428  12.457
82181SOL     OW48381   8.747  14.763   4.028
82181SOL    HW148382   8.790  14.822   4.089
82181SOL    HW248383   8.708  14.696   4.084
82182SOL     OW48384   8.230  11.016  10.578
82182SOL    HW148385   8.287  10.968  10.517
82182SOL    HW248386   8.268  11.103  10.584
82183SOL     OW48387   2.458  10.131   8.392
82183SOL    HW148388   2.364  10.137   8.375
82183SOL    HW248389   2.490  10.221   8.385
82184SOL     OW48390   8.070  10.192   3.671
82184SOL    HW148391   8.065  10.126   3.740
82184SOL    HW248392   8.164  10.212   3.664
82185SOL     OW48393   2.513   8.728   2.872
82185SOL    HW148394   2.551   8.751   2.956
82185SOL    HW248395   2.419   8.741   2.883
82186SOL     OW48396   1.210   7.466   0.694
82186SOL    HW148397   1.213   7.540   0.756
82186SOL    HW248398   1.239   7.503   0.611
82187SOL     OW48399  11.113  14.783  14.121
82187SOL    HW148400  11.202  14.765  14.089
82187SOL    HW248401  11.124  14.860  14.177
82188SOL     OW48402   0.546  13.937   5.103
82188SOL    HW148403   0.466  13.985   5.083
82188SOL    HW248404   0.613  13.981   5.051
82189SOL     OW48405   6.368   8.071   3.026
82189SOL    HW148406   6.451   8.105   3.060
82189SOL    HW248407   6.390   8.035   2.940
82190SOL     OW48408   5.889   8.823  13.762
82190SOL    HW148409   5.883   8.916  13.741
82190SOL    HW248410   5.974   8.813  13.805
82191SOL     OW48411  11.653   0.119   6.430
82191SOL    HW148412  11.736   0.075   6.449
82191SOL    HW248413  11.602   0.055   6.380
82192SOL     OW48414   3.101   6.630  12.105
82192SOL    HW148415   3.021   6.673  12.135
82192SOL    HW248416   3.077   6.538  12.095
82193SOL     OW48417  14.414  14.150   0.551
82193SOL    HW148418  14.507  14.167   0.566
82193SOL    HW248419  14.374  14.237   0.549
82194SOL     OW48420   5.087   0.369   1.937
82194SOL    HW148421   5.021   0.314   1.978
82194SOL    HW248422   5.170   0.323   1.950
82195SOL     OW48423  12.786  11.819   5.235
82195SOL    HW148424  12.797  11.742   5.180
82195SOL    HW248425  12.787  11.785   5.325
82196SOL     OW48426   5.333  11.852   1.120
82196SOL    HW148427   5.346  11.794   1.045
82196SOL    HW248428   5.367  11.802   1.195
82197SOL     OW48429   1.064   8.769   2.649
82197SOL    HW148430   1.043   8.832   2.718
82197SOL    HW248431   1.111   8.820   2.583
82198SOL     OW48432   5.933  10.477   8.665
82198SOL    HW148433   5.842  10.495   8.640
82198SOL    HW248434   5.985  10.532   8.608
82199SOL     OW48435   4.578   4.696  12.195
82199SOL    HW148436   4.564   4.781  12.152
82199SOL    HW248437   4.535   4.633  12.138
82200SOL     OW48438   3.475   3.676   0.002
82200SOL    HW148439   3.437   3.741   0.061
82200SOL    HW248440   3.556   3.716  14.847
82201SOL     OW48441   1.295   5.372   0.344
82201SOL    HW148442   1.273   5.281   0.325
82201SOL    HW248443   1.228   5.423   0.298
82202SOL     OW48444   0.752  13.832   6.695
82202SOL    HW148445   0.781  13.745   6.669
82202SOL    HW248446   0.670  13.818   6.742
82203SOL     OW48447   8.344   0.127   3.092
82203SOL    HW148448   8.344   0.045   3.141
82203SOL    HW248449   8.327   0.100   3.002
82204SOL     OW48450  13.758   1.180   9.605
82204SOL    HW148451  13.787   1.131   9.529
82204SOL    HW248452  13.834   1.182   9.663
82205SOL     OW48453   8.297   9.355   9.662
82205SOL    HW148454   8.316   9.303   9.739
82205SOL    HW248455   8.381   9.395   9.638
82206SOL     OW48456   6.937   0.858   2.057
82206SOL    HW148457   6.938   0.813   1.973
82206SOL    HW248458   6.963   0.948   2.037
82207SOL     OW48459   5.627   9.530   1.342
82207SOL    HW148460   5.717   9.512   1.315
82207SOL    HW248461   5.573   9.479   1.282
82208SOL     OW48462  13.957   9.889   1.068
82208SOL    HW148463  13.867   9.909   1.091
82208SOL    HW248464  13.972   9.934   0.985
82209SOL     OW48465   7.116   4.420   3.272
82209SOL    HW148466   7.090   4.399   3.362
82209SOL    HW248467   7.052   4.487   3.244
82210SOL     OW48468  13.831   2.161   8.588
82210SOL    HW148469  13.846   2.163   8.493
82210SOL    HW248470  13.903   2.211   8.625
82211SOL     OW48471   9.091  12.271   9.035
82211SOL    HW148472   9.008  12.227   9.013
82211SOL    HW248473   9.130  12.215   9.103
82212SOL     OW48474   2.978   6.961   6.153
82212SOL    HW148475   3.028   6.885   6.180
82212SOL    HW248476   2.958   7.007   6.235
82213SOL     OW48477  13.837   9.061   7.270
82213SOL    HW148478  13.881   8.992   7.319
82213SOL    HW248479  13.818   9.129   7.334
82214SOL     OW48480   4.141   8.893   4.187
82214SOL    HW148481   4.074   8.897   4.255
82214SOL    HW248482   4.198   8.968   4.205
82215SOL     OW48483   3.180   2.775   0.443
82215SOL    HW148484   3.271   2.774   0.472
82215SOL    HW248485   3.148   2.862   0.468
82216SOL     OW48486   7.047   1.364   3.101
82216SOL    HW148487   7.016   1.357   3.191
82216SOL    HW248488   7.030   1.455   3.076
82217SOL     OW48489   2.072  10.285   3.751
82217SOL    HW148490   2.050  10.199   3.715
82217SOL    HW248491   1.990  10.320   3.784
82218SOL     OW48492   9.121   4.802   8.378
82218SOL    HW148493   9.053   4.854   8.420
82218SOL    HW248494   9.074   4.747   8.316
82219SOL     OW48495  12.844  12.180   7.309
82219SOL    HW148496  12.829  12.087   7.297
82219SOL    HW248497  12.832  12.195   7.403
82220SOL     OW48498   7.835   0.244   8.586
82220SOL    HW148499   7.897   0.203   8.525
82220SOL    HW248500   7.890   0.278   8.656
82221SOL     OW48501   9.967  13.904  13.695
82221SOL    HW148502  10.040  13.843  13.686
82221SOL    HW248503   9.962  13.949  13.611
82222SOL     OW48504  14.673  13.053  12.166
82222SOL    HW148505  14.730  13.062  12.090
82222SOL    HW248506  14.605  13.119  12.154
82223SOL     OW48507  13.123  11.650   0.003
82223SOL    HW148508  13.207  11.694  14.866
82223SOL    HW248509  13.125  11.623   0.095
82224SOL     OW48510   7.765   3.803  13.072
82224SOL    HW148511   7.746   3.717  13.111
82224SOL    HW248512   7.847   3.790  13.024
82225SOL     OW48513  13.451  12.566   6.303
82225SOL    HW148514  13.511  12.555   6.230
82225SOL    HW248515  13.365  12.543   6.267
82226SOL     OW48516  10.426   8.954   6.239
82226SOL    HW148517  10.410   8.876   6.187
82226SOL    HW248518  10.509   8.989   6.205
82227SOL     OW48519   6.558   5.265   2.625
82227SOL    HW148520   6.535   5.245   2.716
82227SOL    HW248521   6.637   5.212   2.609
82228SOL     OW48522   2.028   5.579   0.266
82228SOL    HW148523   2.013   5.664   0.306
82228SOL    HW248524   2.070   5.527   0.335
82229SOL     OW48525   0.071   6.834   2.533
82229SOL    HW148526   0.164   6.814   2.546
82229SOL    HW248527   0.061   6.844   2.438
82230SOL     OW48528  11.700  14.025  12.527
82230SOL    HW148529  11.759  13.995  12.459
82230SOL    HW248530  11.756  14.070  12.590
82231SOL     OW48531   0.426  14.844   5.555
82231SOL    HW148532   0.347   0.005   5.516
82231SOL    HW248533   0.394  14.792   5.629
82232SOL     OW48534   9.467  11.963   0.813
82232SOL    HW148535   9.474  11.886   0.869
82232SOL    HW248536   9.513  12.032   0.861
82233SOL     OW48537   2.839   8.959   9.265
82233SOL    HW148538   2.824   9.028   9.201
82233SOL    HW248539   2.930   8.934   9.252
82234SOL     OW48540   5.319   3.652   7.158
82234SOL    HW148541   5.338   3.559   7.146
82234SOL    HW248542   5.243   3.668   7.103
82235SOL     OW48543  11.383   8.776   7.732
82235SOL    HW148544  11.345   8.701   7.776
82235SOL    HW248545  11.310   8.838   7.721
82236SOL     OW48546   1.578   0.740   3.800
82236SOL    HW148547   1.512   0.808   3.786
82236SOL    HW248548   1.661   0.787   3.798
82237SOL     OW48549   0.266   5.928   8.948
82237SOL    HW148550   0.323   5.996   8.982
82237SOL    HW248551   0.180   5.969   8.941
82238SOL     OW48552  10.275  10.949   1.815
82238SOL    HW148553  10.288  10.897   1.895
82238SOL    HW248554  10.270  11.039   1.845
82239SOL     OW48555   8.914   3.658  14.838
82239SOL    HW148556   8.852   3.661  14.765
82239SOL    HW248557   8.981   3.723  14.816
82240SOL     OW48558   4.214   4.004  10.257
82240SOL    HW148559   4.194   3.930  10.199
82240SOL    HW248560   4.208   3.967  10.346
82241SOL     OW48561   2.003   9.746  14.731
82241SOL    HW148562   1.980   9.834  14.703
82241SOL    HW248563   1.970   9.689  14.661
82242SOL     OW48564  12.541   8.478   6.308
82242SOL    HW148565  12.517   8.391   6.276
82242SOL    HW248566  12.468   8.505   6.363
82243SOL     OW48567   9.692   0.636  11.993
82243SOL    HW148568   9.639   0.687  11.931
82243SOL    HW248569   9.681   0.545  11.963
82244SOL     OW48570   3.566  14.369  14.342
82244SOL    HW148571   3.497  14.352  14.406
82244SOL    HW248572   3.626  14.429  14.387
82245SOL     OW48573  12.140   7.935   4.753
82245SOL    HW148574  12.220   7.890   4.725
82245SOL    HW248575  12.132   8.009   4.691
82246SOL     OW48576   2.833  14.313  10.128
82246SOL    HW148577   2.824  14.387  10.068
82246SOL    HW248578   2.743  14.286  10.146
82247SOL     OW48579  11.517   3.725  10.153
82247SOL    HW148580  11.457   3.676  10.098
82247SOL    HW248581  11.554   3.660  10.213
82248SOL     OW48582  14.684   3.278  12.515
82248SOL    HW148583  14.695   3.226  12.594
82248SOL    HW248584  14.748   3.349  12.523
82249SOL     OW48585  11.133   9.795   1.984
82249SOL    HW148586  11.107   9.747   2.063
82249SOL    HW248587  11.102   9.884   2.000
82250SOL     OW48588   4.799   4.083   2.471
82250SOL    HW148589   4.730   4.143   2.501
82250SOL    HW248590   4.751   4.007   2.438
82251SOL     OW48591   4.335   6.195  12.699
82251SOL    HW148592   4.414   6.234  12.737
82251SOL    HW248593   4.292   6.153  12.774
82252SOL     OW48594  10.576   8.642   0.693
82252SOL    HW148595  10.555   8.720   0.744
82252SOL    HW248596  10.585   8.572   0.757
82253SOL     OW48597  11.370   4.161  10.137
82253SOL    HW148598  11.320   4.131  10.213
82253SOL    HW248599  11.325   4.241  10.109
82254SOL     OW48600   8.448  13.809   4.233
82254SOL    HW148601   8.535  13.770   4.237
82254SOL    HW248602   8.463  13.903   4.247
82255SOL     OW48603  14.658   7.117   7.304
82255SOL    HW148604  14.727   7.111   7.238
82255SOL    HW248605  14.608   7.195   7.279
82256SOL     OW48606  14.639   0.372   8.189
82256SOL    HW148607  14.562   0.427   8.176
82256SOL    HW248608  14.611   0.285   8.161
82257SOL     OW48609   2.407   1.499   0.720
82257SOL    HW148610   2.452   1.579   0.749
82257SOL    HW248611   2.334   1.490   0.781
82258SOL     OW48612   7.031   3.784  12.498
82258SOL    HW148613   7.106   3.819  12.547
82258SOL    HW248614   6.955   3.809  12.550
82259SOL     OW48615   7.372   5.590  14.429
82259SOL    HW148616   7.335   5.607  14.343
82259SOL    HW248617   7.466   5.579  14.413
82260SOL     OW48618  10.013   3.844  14.391
82260SOL    HW148619   9.985   3.931  14.364
82260SOL    HW248620  10.103   3.857  14.424
82261SOL     OW48621   9.221   6.148   4.991
82261SOL    HW148622   9.308   6.181   4.969
82261SOL    HW248623   9.231   6.107   5.077
82262SOL     OW48624   0.301   5.879   7.531
82262SOL    HW148625   0.369   5.937   7.567
82262SOL    HW248626   0.278   5.822   7.605
82263SOL     OW48627   4.469   7.929   4.678
82263SOL    HW148628   4.475   7.836   4.658
82263SOL    HW248629   4.552   7.966   4.649
82264SOL     OW48630   6.177   2.849   4.909
82264SOL    HW148631   6.083   2.844   4.893
82264SOL    HW248632   6.217   2.809   4.832
82265SOL     OW48633   5.335  13.144   8.837
82265SOL    HW148634   5.324  13.232   8.872
82265SOL    HW248635   5.428  13.137   8.816
82266SOL     OW48636  10.718   0.552   3.090
82266SOL    HW148637  10.790   0.537   3.028
82266SOL    HW248638  10.651   0.488   3.064
82267SOL     OW48639  14.296   4.862  10.325
82267SOL    HW148640  14.354   4.828  10.258
82267SOL    HW248641  14.265   4.784  10.372
82268SOL     OW48642  12.064   4.638   3.086
82268SOL    HW148643  12.074   4.543   3.083
82268SOL    HW248644  12.119   4.670   3.015
82269SOL     OW48645   6.507   2.387   9.882
82269SOL    HW148646   6.488   2.468   9.929
82269SOL    HW248647   6.589   2.356   9.921
82270SOL     OW48648  13.411   3.416   4.204
82270SOL    HW148649  13.355   3.358   4.152
82270SOL    HW248650  13.362   3.497   4.210
82271SOL     OW48651   8.722   8.807  13.568
82271SOL    HW148652   8.779   8.737  13.535
82271SOL    HW248653   8.738   8.880  13.509
82272SOL     OW48654   1.069  12.534  13.604
82272SOL    HW148655   0.986  12.551  13.559
82272SOL    HW248656   1.044  12.486  13.683
82273SOL     OW48657   2.215   9.546   4.525
82273SOL    HW148658   2.265   9.606   4.470
82273SOL    HW248659   2.176   9.602   4.593
82274SOL     OW48660   5.884  13.434   7.987
82274SOL    HW148661   5.955  13.427   8.051
82274SOL    HW248662   5.840  13.349   7.991
82275SOL     OW48663   6.220  10.265  13.580
82275SOL    HW148664   6.221  10.176  13.545
82275SOL    HW248665   6.251  10.319  13.508
82276SOL     OW48666   2.071  12.049  12.437
82276SOL    HW148667   2.089  11.995  12.360
82276SOL    HW248668   2.010  11.997  12.490
82277SOL     OW48669   6.719   0.699  11.765
82277SOL    HW148670   6.769   0.643  11.705
82277SOL    HW248671   6.711   0.647  11.845
82278SOL     OW48672   2.836   5.359   5.841
82278SOL    HW148673   2.864   5.353   5.932
82278SOL    HW248674   2.803   5.449   5.833
82279SOL     OW48675   5.522   3.059   5.920
82279SOL    HW148676   5.467   3.000   5.970
82279SOL    HW248677   5.533   3.136   5.976
82280SOL     OW48678   5.353  13.445   8.401
82280SOL    HW148679   5.370  13.419   8.310
82280SOL    HW248680   5.365  13.540   8.401
82281SOL     OW48681   1.010  10.584  11.538
82281SOL    HW148682   0.974  10.618  11.456
82281SOL    HW248683   0.972  10.496  11.546
82282SOL     OW48684   3.739  10.795   2.042
82282SOL    HW148685   3.698  10.859   2.101
82282SOL    HW248686   3.826  10.831   2.024
82283SOL     OW48687   9.781   3.660  12.176
82283SOL    HW148688   9.783   3.616  12.261
82283SOL    HW248689   9.828   3.601  12.117
82284SOL     OW48690  13.221  14.761   0.469
82284SOL    HW148691  13.139  14.742   0.423
82284SOL    HW248692  13.289  14.750   0.402
82285SOL     OW48693  10.150   7.548  10.410
82285SOL    HW148694  10.153   7.639  10.440
82285SOL    HW248695  10.067   7.514  10.444
82286SOL     OW48696  13.127   0.376   8.822
82286SOL    HW148697  13.091   0.293   8.850
82286SOL    HW248698  13.190   0.400   8.890
82287SOL     OW48699   1.156  13.503  12.024
82287SOL    HW148700   1.198  13.508  11.938
82287SOL    HW248701   1.181  13.417  12.058
82288SOL     OW48702   8.042   8.168   8.668
82288SOL    HW148703   8.084   8.224   8.603
82288SOL    HW248704   7.964   8.217   8.695
82289SOL     OW48705   2.906  13.405   9.166
82289SOL    HW148706   2.991  13.366   9.145
82289SOL    HW248707   2.845  13.364   9.105
82290SOL     OW48708  13.754   3.572   2.185
82290SOL    HW148709  13.780   3.492   2.140
82290SOL    HW248710  13.709   3.624   2.119
82291SOL     OW48711  14.332   4.347  14.028
82291SOL    HW148712  14.315   4.328  14.120
82291SOL    HW248713  14.272   4.290  13.980
82292SOL     OW48714   8.704   5.326   5.780
82292SOL    HW148715   8.619   5.368   5.787
82292SOL    HW248716   8.765   5.387   5.822
82293SOL     OW48717   5.404   6.117   2.230
82293SOL    HW148718   5.440   6.165   2.304
82293SOL    HW248719   5.328   6.168   2.203
82294SOL     OW48720   7.507  11.567   9.296
82294SOL    HW148721   7.592  11.578   9.339
82294SOL    HW248722   7.461  11.502   9.349
82295SOL     OW48723  14.789   4.887   4.252
82295SOL    HW148724  14.766   4.802   4.291
82295SOL    HW248725  14.726   4.948   4.289
82296SOL     OW48726  10.916   8.500   9.575
82296SOL    HW148727  11.008   8.525   9.563
82296SOL    HW248728  10.868   8.557   9.516
82297SOL     OW48729   2.601  10.173   9.466
82297SOL    HW148730   2.647  10.223   9.533
82297SOL    HW248731   2.664  10.165   9.394
82298SOL     OW48732   5.087   5.386  13.974
82298SOL    HW148733   5.155   5.453  13.966
82298SOL    HW248734   5.034   5.394  13.895
82299SOL     OW48735   6.094   0.489  13.044
82299SOL    HW148736   6.050   0.574  13.041
82299SOL    HW248737   6.041   0.437  13.105
82300SOL     OW48738   2.376   9.788   6.829
82300SOL    HW148739   2.460   9.832   6.842
82300SOL    HW248740   2.398   9.704   6.788
82301SOL     OW48741   6.175   0.548  10.389
82301SOL    HW148742   6.186   0.639  10.418
82301SOL    HW248743   6.260   0.507  10.407
82302SOL     OW48744  11.696   7.671   2.577
82302SOL    HW148745  11.696   7.630   2.490
82302SOL    HW248746  11.604   7.691   2.593
82303SOL     OW48747   4.512  14.833  11.545
82303SOL    HW148748   4.534  14.746  11.577
82303SOL    HW248749   4.537  14.831  11.452
82304SOL     OW48750  14.352   2.688  13.421
82304SOL    HW148751  14.335   2.728  13.335
82304SOL    HW248752  14.410   2.614  13.402
82305SOL     OW48753   7.645  10.102   9.812
82305SOL    HW148754   7.607  10.024   9.853
82305SOL    HW248755   7.627  10.091   9.719
82306SOL     OW48756   4.936   6.372  11.106
82306SOL    HW148757   4.949   6.426  11.184
82306SOL    HW248758   4.877   6.424  11.051
82307SOL     OW48759   8.377  13.559  12.165
82307SOL    HW148760   8.337  13.624  12.108
82307SOL    HW248761   8.397  13.485  12.107
82308SOL     OW48762   0.563   9.856   0.528
82308SOL    HW148763   0.524   9.939   0.499
82308SOL    HW248764   0.619   9.830   0.455
82309SOL     OW48765   7.864   5.834  12.861
82309SOL    HW148766   7.835   5.879  12.781
82309SOL    HW248767   7.954   5.807  12.841
82310SOL     OW48768  12.802  13.380   1.217
82310SOL    HW148769  12.777  13.301   1.171
82310SOL    HW248770  12.732  13.442   1.199
82311SOL     OW48771   6.184  10.138   8.970
82311SOL    HW148772   6.177  10.184   8.887
82311SOL    HW248773   6.170  10.046   8.948
82312SOL     OW48774  13.930  14.495   9.661
82312SOL    HW148775  13.967  14.578   9.630
82312SOL    HW248776  13.835  14.510   9.661
82313SOL     OW48777  10.337   3.558   2.943
82313SOL    HW148778  10.298   3.611   3.012
82313SOL    HW248779  10.269   3.494   2.920
82314SOL     OW48780  14.797   5.886  12.594
82314SOL    HW148781  14.796   5.858  12.503
82314SOL    HW248782  14.836   5.812  12.641
82315SOL     OW48783   6.679   1.250  13.916
82315SOL    HW148784   6.617   1.186  13.952
82315SOL    HW248785   6.764   1.224  13.952
82316SOL     OW48786  13.048   3.096  14.364
82316SOL    HW148787  13.086   3.138  14.287
82316SOL    HW248788  13.116   3.106  14.431
82317SOL     OW48789   1.201   3.601   5.528
82317SOL    HW148790   1.208   3.686   5.571
82317SOL    HW248791   1.106   3.586   5.521
82318SOL     OW48792  11.366  11.703  11.816
82318SOL    HW148793  11.456  11.670  11.825
82318SOL    HW248794  11.325  11.644  11.754
82319SOL     OW48795   4.624   9.261   0.957
82319SOL    HW148796   4.672   9.331   1.001
82319SOL    HW248797   4.671   9.181   0.980
82320SOL     OW48798  11.320   8.624   6.589
82320SOL    HW148799  11.270   8.542   6.587
82320SOL    HW248800  11.262   8.686   6.633
82321SOL     OW48801   5.148   0.898   6.086
82321SOL    HW148802   5.242   0.885   6.087
82321SOL    HW248803   5.121   0.883   6.177
82322SOL     OW48804   4.827   6.389   2.546
82322SOL    HW148805   4.845   6.299   2.572
82322SOL    HW248806   4.894   6.441   2.589
82323SOL     OW48807  14.535  14.768   8.307
82323SOL    HW148808  14.539  14.675   8.330
82323SOL    HW248809  14.458  14.801   8.354
82324SOL     OW48810  11.830   7.526  10.968
82324SOL    HW148811  11.905   7.469  10.950
82324SOL    HW248812  11.836   7.543  11.063
82325SOL     OW48813  12.430   6.378  13.279
82325SOL    HW148814  12.507   6.322  13.278
82325SOL    HW248815  12.465   6.467  13.290
82326SOL     OW48816   0.132   6.240   0.431
82326SOL    HW148817   0.173   6.321   0.460
82326SOL    HW248818   0.186   6.170   0.468
82327SOL     OW48819  13.965   5.445   2.534
82327SOL    HW148820  14.054   5.441   2.499
82327SOL    HW248821  13.928   5.525   2.496
82328SOL     OW48822   5.277   9.275   9.806
82328SOL    HW148823   5.307   9.198   9.756
82328SOL    HW248824   5.329   9.347   9.773
82329SOL     OW48825   4.756   4.420   7.481
82329SOL    HW148826   4.773   4.345   7.424
82329SOL    HW248827   4.746   4.382   7.568
82330SOL     OW48828   8.022  11.459   1.207
82330SOL    HW148829   7.929  11.452   1.186
82330SOL    HW248830   8.052  11.536   1.158
82331SOL     OW48831   5.593   3.984   3.912
82331SOL    HW148832   5.605   3.993   4.007
82331SOL    HW248833   5.501   4.006   3.898
82332SOL     OW48834   1.135  12.607   7.091
82332SOL    HW148835   1.181  12.691   7.079
82332SOL    HW248836   1.074  12.623   7.163
82333SOL     OW48837   6.147   2.362  11.685
82333SOL    HW148838   6.095   2.441  11.673
82333SOL    HW248839   6.152   2.322  11.598
82334SOL     OW48840   4.458   6.075   1.132
82334SOL    HW148841   4.504   6.016   1.072
82334SOL    HW248842   4.365   6.060   1.113
82335SOL     OW48843  13.418   4.535   9.479
82335SOL    HW148844  13.394   4.622   9.448
82335SOL    HW248845  13.501   4.547   9.525
82336SOL     OW48846   8.713   2.598   1.485
82336SOL    HW148847   8.655   2.578   1.559
82336SOL    HW248848   8.666   2.566   1.408
82337SOL     OW48849  10.294   7.017  13.527
82337SOL    HW148850  10.324   7.034  13.616
82337SOL    HW248851  10.343   7.078  13.473
82338SOL     OW48852   9.393   0.692  12.679
82338SOL    HW148853   9.485   0.715  12.674
82338SOL    HW248854   9.357   0.750  12.746
82339SOL     OW48855   2.829  11.812   5.904
82339SOL    HW148856   2.834  11.732   5.956
82339SOL    HW248857   2.891  11.799   5.832
82340SOL     OW48858   9.072   3.435   3.562
82340SOL    HW148859   9.104   3.524   3.551
82340SOL    HW248860   9.143   3.390   3.609
82341SOL     OW48861   8.604   9.965  14.262
82341SOL    HW148862   8.511   9.949  14.277
82341SOL    HW248863   8.606  10.045  14.210
82342SOL     OW48864  11.834   6.855   5.859
82342SOL    HW148865  11.864   6.794   5.792
82342SOL    HW248866  11.844   6.807   5.941
82343SOL     OW48867   4.430   6.245   3.546
82343SOL    HW148868   4.422   6.160   3.590
82343SOL    HW248869   4.363   6.299   3.587
82344SOL     OW48870  14.511   8.878   8.475
82344SOL    HW148871  14.475   8.926   8.550
82344SOL    HW248872  14.551   8.801   8.514
82345SOL     OW48873   3.417   4.087   8.854
82345SOL    HW148874   3.385   3.998   8.873
82345SOL    HW248875   3.456   4.116   8.937
82346SOL     OW48876   4.255  10.948   7.730
82346SOL    HW148877   4.326  10.887   7.749
82346SOL    HW248878   4.175  10.895   7.741
82347SOL     OW48879  11.642   3.791   6.783
82347SOL    HW148880  11.688   3.764   6.863
82347SOL    HW248881  11.631   3.886   6.794
82348SOL     OW48882   5.462  10.845   6.018
82348SOL    HW148883   5.396  10.861   5.951
82348SOL    HW248884   5.452  10.752   6.040
82349SOL     OW48885  13.440   5.609   9.290
82349SOL    HW148886  13.417   5.657   9.370
82349SOL    HW248887  13.358   5.597   9.244
82350SOL     OW48888   0.693  13.509  11.043
82350SOL    HW148889   0.768  13.451  11.027
82350SOL    HW248890   0.726  13.574  11.104
82351SOL     OW48891  14.227  10.354   4.999
82351SOL    HW148892  14.197  10.325   5.084
82351SOL    HW248893  14.147  10.377   4.952
82352SOL     OW48894   6.590   0.613  11.972
82352SOL    HW148895   6.528   0.645  11.907
82352SOL    HW248896   6.546   0.624  12.056
82353SOL     OW48897   3.064   9.080   9.965
82353SOL    HW148898   2.986   9.089  10.019
82353SOL    HW248899   3.136   9.074  10.028
82354SOL     OW48900   4.672   2.717   8.424
82354SOL    HW148901   4.651   2.719   8.331
82354SOL    HW248902   4.589   2.735   8.468
82355SOL     OW48903   6.342   7.447   0.140
82355SOL    HW148904   6.414   7.488   0.093
82355SOL    HW248905   6.264   7.494   0.109
82356SOL     OW48906  13.288   7.584   5.106
82356SOL    HW148907  13.259   7.580   5.197
82356SOL    HW248908  13.381   7.565   5.110
82357SOL     OW48909   9.245   7.181  10.563
82357SOL    HW148910   9.204   7.128  10.630
82357SOL    HW248911   9.299   7.119  10.513
82358SOL     OW48912   1.587  12.661  13.560
82358SOL    HW148913   1.595  12.661  13.656
82358SOL    HW248914   1.495  12.682  13.544
82359SOL     OW48915   7.619  13.759   7.578
82359SOL    HW148916   7.702  13.806   7.568
82359SOL    HW248917   7.615  13.701   7.502
82360SOL     OW48918   3.458   4.165   9.112
82360SOL    HW148919   3.532   4.216   9.144
82360SOL    HW248920   3.427   4.116   9.188
82361SOL     OW48921   9.172   9.948   9.582
82361SOL    HW148922   9.220  10.023   9.616
82361SOL    HW248923   9.113   9.923   9.654
82362SOL     OW48924   1.618   5.280   8.023
82362SOL    HW148925   1.634   5.216   7.954
82362SOL    HW248926   1.551   5.338   7.988
82363SOL     OW48927  14.129  10.067   6.040
82363SOL    HW148928  14.091  10.104   5.960
82363SOL    HW248929  14.150  10.143   6.094
82364SOL     OW48930   1.135   1.102  11.939
82364SOL    HW148931   1.229   1.098  11.919
82364SOL    HW248932   1.130   1.090  12.033
82365SOL     OW48933  12.506   2.727   9.202
82365SOL    HW148934  12.576   2.664   9.216
82365SOL    HW248935  12.545   2.793   9.145
82366SOL     OW48936   5.175  12.362   3.891
82366SOL    HW148937   5.177  12.456   3.875
82366SOL    HW248938   5.233  12.325   3.824
82367SOL     OW48939   9.549   6.322  13.747
82367SOL    HW148940   9.520   6.411  13.728
82367SOL    HW248941   9.482   6.287  13.805
82368SOL     OW48942   4.458  13.164   2.421
82368SOL    HW148943   4.368  13.144   2.445
82368SOL    HW248944   4.486  13.230   2.485
82369SOL     OW48945  12.065  12.345   1.060
82369SOL    HW148946  11.979  12.378   1.032
82369SOL    HW248947  12.100  12.415   1.115
82370SOL     OW48948   3.878   4.162   6.346
82370SOL    HW148949   3.925   4.124   6.420
82370SOL    HW248950   3.819   4.226   6.386
82371SOL     OW48951   5.529   3.055  12.323
82371SOL    HW148952   5.583   3.020  12.394
82371SOL    HW248953   5.545   3.149  12.326
82372SOL     OW48954   8.658  11.482  11.610
82372SOL    HW148955   8.708  11.459  11.688
82372SOL    HW248956   8.575  11.437  11.619
82373SOL     OW48957  10.823  13.775   0.345
82373SOL    HW148958  10.863  13.747   0.427
82373SOL    HW248959  10.763  13.705   0.322
82374SOL     OW48960   7.160   0.791  14.675
82374SOL    HW148961   7.150   0.725  14.744
82374SOL    HW248962   7.185   0.871  14.721
82375SOL     OW48963  10.322  10.376   4.242
82375SOL    HW148964  10.277  10.457   4.217
82375SOL    HW248965  10.253  10.321   4.281
82376SOL     OW48966   5.256   0.825   0.212
82376SOL    HW148967   5.165   0.813   0.239
82376SOL    HW248968   5.308   0.791   0.285
82377SOL     OW48969   1.468   2.768  13.129
82377SOL    HW148970   1.393   2.792  13.073
82377SOL    HW248971   1.455   2.674  13.146
82378SOL     OW48972   2.251  12.699  14.209
82378SOL    HW148973   2.183  12.640  14.242
82378SOL    HW248974   2.332  12.663  14.245
82379SOL     OW48975   0.563  11.704  13.586
82379SOL    HW148976   0.576  11.798  13.597
82379SOL    HW248977   0.611  11.683  13.506
82380SOL     OW48978  12.435   4.330  11.671
82380SOL    HW148979  12.475   4.293  11.750
82380SOL    HW248980  12.415   4.253  11.617
82381SOL     OW48981   5.246  12.787  14.696
82381SOL    HW148982   5.229  12.702  14.737
82381SOL    HW248983   5.174  12.797  14.633
82382SOL     OW48984  12.750   9.437  11.552
82382SOL    HW148985  12.683   9.369  11.546
82382SOL    HW248986  12.710   9.504  11.608
82383SOL     OW48987   7.114  13.025   2.973
82383SOL    HW148988   7.024  13.056   2.973
82383SOL    HW248989   7.127  12.989   2.885
82384SOL     OW48990   0.856  11.720   5.408
82384SOL    HW148991   0.851  11.787   5.340
82384SOL    HW248992   0.924  11.752   5.467
82385SOL     OW48993   8.138  11.864   8.563
82385SOL    HW148994   8.208  11.888   8.624
82385SOL    HW248995   8.169  11.786   8.519
82386SOL     OW48996   8.747  11.524   4.831
82386SOL    HW148997   8.840  11.531   4.852
82386SOL    HW248998   8.739  11.441   4.785
82387SOL     OW48999   1.750  10.179   3.987
82387SOL    HW149000   1.730  10.100   3.938
82387SOL    HW249001   1.838  10.164   4.023
82388SOL     OW49002   6.366   0.189   1.264
82388SOL    HW149003   6.360   0.096   1.284
82388SOL    HW249004   6.455   0.214   1.292
82389SOL     OW49005   3.332   7.767   7.674
82389SOL    HW149006   3.323   7.674   7.694
82389SOL    HW249007   3.382   7.769   7.592
82390SOL     OW49008  13.940   0.977   0.991
82390SOL    HW149009  13.992   0.986   1.071
82390SOL    HW249010  13.934   0.883   0.976
82391SOL     OW49011  13.367   4.088  14.859
82391SOL    HW149012  13.378   4.069  14.766
82391SOL    HW249013  13.410   4.015   0.027
82392SOL     OW49014   3.032   1.841   5.013
82392SOL    HW149015   3.070   1.789   5.084
82392SOL    HW249016   3.104   1.895   4.981
82393SOL     OW49017  10.281   1.457   1.227
82393SOL    HW149018  10.297   1.379   1.173
82393SOL    HW249019  10.320   1.529   1.177
82394SOL     OW49020   6.491  14.318   0.482
82394SOL    HW149021   6.516  14.388   0.421
82394SOL    HW249022   6.427  14.266   0.433
82395SOL     OW49023  13.709  10.435   9.645
82395SOL    HW149024  13.766  10.403   9.716
82395SOL    HW249025  13.635  10.474   9.690
82396SOL     OW49026  14.034  12.515   8.709
82396SOL    HW149027  14.065  12.516   8.799
82396SOL    HW249028  13.972  12.442   8.705
82397SOL     OW49029   7.285   0.505   9.547
82397SOL    HW149030   7.337   0.559   9.607
82397SOL    HW249031   7.330   0.421   9.547
82398SOL     OW49032   7.337   9.553  14.155
82398SOL    HW149033   7.304   9.470  14.122
82398SOL    HW249034   7.419   9.530  14.199
82399SOL     OW49035   3.225   0.405   0.046
82399SOL    HW149036   3.225   0.443  14.835
82399SOL    HW249037   3.268   0.472   0.101
82400SOL     OW49038  11.762  10.503   8.004
82400SOL    HW149039  11.789  10.429   8.058
82400SOL    HW249040  11.710  10.559   8.063
82401SOL     OW49041  10.436  11.323  13.275
82401SOL    HW149042  10.525  11.351  13.299
82401SOL    HW249043  10.388  11.405  13.263
82402SOL     OW49044   6.312  12.284  12.870
82402SOL    HW149045   6.398  12.301  12.831
82402SOL    HW249046   6.266  12.368  12.864
82403SOL     OW49047   2.427   5.604   0.117
82403SOL    HW149048   2.379   5.521   0.123
82403SOL    HW249049   2.391   5.658   0.187
82404SOL     OW49050   4.660   2.843  12.666
82404SOL    HW149051   4.599   2.875  12.733
82404SOL    HW249052   4.691   2.923  12.622
82405SOL     OW49053   2.301  12.373   0.718
82405SOL    HW149054   2.314  12.293   0.769
82405SOL    HW249055   2.387  12.415   0.718
82406SOL     OW49056   6.716  12.690  10.193
82406SOL    HW149057   6.621  12.687  10.196
82406SOL    HW249058   6.744  12.692  10.284
82407SOL     OW49059   5.980   8.667   9.659
82407SOL    HW149060   5.924   8.603   9.615
82407SOL    HW249061   6.056   8.616   9.687
82408SOL     OW49062  10.966   0.595   0.556
82408SOL    HW149063  11.015   0.615   0.476
82408SOL    HW249064  11.010   0.646   0.624
82409SOL     OW49065   0.714   0.484   5.734
82409SOL    HW149066   0.751   0.540   5.665
82409SOL    HW249067   0.701   0.399   5.693
82410SOL     OW49068   6.250   6.334   1.395
82410SOL    HW149069   6.269   6.347   1.488
82410SOL    HW249070   6.308   6.263   1.368
82411SOL     OW49071   3.048   8.278   5.491
82411SOL    HW149072   3.096   8.205   5.453
82411SOL    HW249073   3.092   8.356   5.458
82412SOL     OW49074   0.781   9.913   7.450
82412SOL    HW149075   0.817   9.830   7.480
82412SOL    HW249076   0.841   9.979   7.483
82413SOL     OW49077  13.127   2.611   0.117
82413SOL    HW149078  13.082   2.582   0.037
82413SOL    HW249079  13.110   2.542   0.181
82414SOL     OW49080   5.407  11.142   1.113
82414SOL    HW149081   5.424  11.103   1.027
82414SOL    HW249082   5.412  11.068   1.174
82415SOL     OW49083   8.097   0.364  14.047
82415SOL    HW149084   8.037   0.402  14.110
82415SOL    HW249085   8.150   0.437  14.015
82416SOL     OW49086  13.915   1.512  14.565
82416SOL    HW149087  13.986   1.573  14.584
82416SOL    HW249088  13.944   1.467  14.485
82417SOL     OW49089   5.053  10.909   0.980
82417SOL    HW149090   4.987  10.905   0.911
82417SOL    HW249091   5.021  10.977   1.040
82418SOL     OW49092  13.048   7.971   7.651
82418SOL    HW149093  13.069   7.922   7.730
82418SOL    HW249094  12.976   7.922   7.611
82419SOL     OW49095   8.751   7.135   0.304
82419SOL    HW149096   8.711   7.049   0.288
82419SOL    HW249097   8.679   7.190   0.332
82420SOL     OW49098  13.171   1.444  10.038
82420SOL    HW149099  13.224   1.424   9.960
82420SOL    HW249100  13.184   1.369  10.096
82421SOL     OW49101   2.205   9.306   7.080
82421SOL    HW149102   2.151   9.339   7.152
82421SOL    HW249103   2.234   9.384   7.034
82422SOL     OW49104   7.364   4.284   9.192
82422SOL    HW149105   7.313   4.359   9.220
82422SOL    HW249106   7.413   4.315   9.116
82423SOL     OW49107   3.723  10.863   2.767
82423SOL    HW149108   3.648  10.833   2.818
82423SOL    HW249109   3.745  10.789   2.711
82424SOL     OW49110   8.004   5.847   9.231
82424SOL    HW149111   7.998   5.794   9.151
82424SOL    HW249112   8.091   5.886   9.229
82425SOL     OW49113  13.491  13.664   2.600
82425SOL    HW149114  13.547  13.663   2.523
82425SOL    HW249115  13.524  13.594   2.656
82426SOL     OW49116  10.048  14.230  12.233
82426SOL    HW149117  10.042  14.179  12.151
82426SOL    HW249118   9.964  14.276  12.238
82427SOL     OW49119  11.799   1.555  10.153
82427SOL    HW149120  11.839   1.584  10.235
82427SOL    HW249121  11.864   1.575  10.086
82428SOL     OW49122   8.238  12.342  10.533
82428SOL    HW149123   8.270  12.314  10.448
82428SOL    HW249124   8.254  12.436  10.535
82429SOL     OW49125   9.095  10.880   8.841
82429SOL    HW149126   9.117  10.964   8.882
82429SOL    HW249127   9.007  10.861   8.873
82430SOL     OW49128   1.850   0.138   7.875
82430SOL    HW149129   1.758   0.114   7.872
82430SOL    HW249130   1.897   0.055   7.874
82431SOL     OW49131   5.427  11.149  14.286
82431SOL    HW149132   5.477  11.145  14.368
82431SOL    HW249133   5.344  11.190  14.311
82432SOL     OW49134   4.070   6.803  11.884
82432SOL    HW149135   4.061   6.866  11.813
82432SOL    HW249136   4.000   6.826  11.945
82433SOL     OW49137  10.048   9.064   9.404
82433SOL    HW149138  10.138   9.095   9.392
82433SOL    HW249139  10.024   9.094   9.492
82434SOL     OW49140   7.017  14.815   6.210
82434SOL    HW149141   6.933  14.844   6.246
82434SOL    HW249142   7.043   0.009   6.151
82435SOL     OW49143  11.941   2.325   9.480
82435SOL    HW149144  11.923   2.363   9.394
82435SOL    HW249145  12.013   2.378   9.515
82436SOL     OW49146   1.320   2.685   2.852
82436SOL    HW149147   1.264   2.609   2.869
82436SOL    HW249148   1.400   2.668   2.901
82437SOL     OW49149  12.763   8.210  14.584
82437SOL    HW149150  12.767   8.129  14.532
82437SOL    HW249151  12.757   8.180  14.675
82438SOL     OW49152   8.457   0.827   2.802
82438SOL    HW149153   8.402   0.759   2.765
82438SOL    HW249154   8.400   0.871   2.866
82439SOL     OW49155   7.102   1.483   7.922
82439SOL    HW149156   7.065   1.399   7.896
82439SOL    HW249157   7.183   1.460   7.968
82440SOL     OW49158   7.655   8.908   8.523
82440SOL    HW149159   7.745   8.878   8.512
82440SOL    HW249160   7.658   8.965   8.599
82441SOL     OW49161   9.402   0.156  11.325
82441SOL    HW149162   9.414   0.061  11.314
82441SOL    HW249163   9.370   0.166  11.414
82442SOL     OW49164  12.332   2.365   2.465
82442SOL    HW149165  12.282   2.426   2.519
82442SOL    HW249166  12.335   2.285   2.517
82443SOL     OW49167   1.824  14.495   1.956
82443SOL    HW149168   1.809  14.475   1.864
82443SOL    HW249169   1.753  14.554   1.980
82444SOL     OW49170   2.560   6.020  14.242
82444SOL    HW149171   2.628   5.982  14.298
82444SOL    HW249172   2.538   5.950  14.181
82445SOL     OW49173   9.644   9.251  12.711
82445SOL    HW149174   9.587   9.185  12.750
82445SOL    HW249175   9.726   9.244  12.760
82446SOL     OW49176   2.081   6.965  13.550
82446SOL    HW149177   2.152   7.016  13.589
82446SOL    HW249178   2.002   7.016  13.568
82447SOL     OW49179   9.530  12.383   0.456
82447SOL    HW149180   9.441  12.350   0.437
82447SOL    HW249181   9.570  12.314   0.509
82448SOL     OW49182  13.504  13.244   5.119
82448SOL    HW149183  13.460  13.296   5.186
82448SOL    HW249184  13.596  13.246   5.143
82449SOL     OW49185  11.829   4.728  12.779
82449SOL    HW149186  11.825   4.642  12.821
82449SOL    HW249187  11.867   4.712  12.693
82450SOL     OW49188   3.674  11.478  10.305
82450SOL    HW149189   3.735  11.436  10.245
82450SOL    HW249190   3.595  11.491  10.254
82451SOL     OW49191   1.540   0.154   2.909
82451SOL    HW149192   1.526   0.230   2.965
82451SOL    HW249193   1.582   0.089   2.965
82452SOL     OW49194  11.854  11.634   2.446
82452SOL    HW149195  11.763  11.627   2.415
82452SOL    HW249196  11.847  11.651   2.539
82453SOL     OW49197   3.941  10.330   7.254
82453SOL    HW149198   3.944  10.312   7.348
82453SOL    HW249199   4.032  10.350   7.231
82454SOL     OW49200   0.186   0.944   0.290
82454SOL    HW149201   0.243   0.887   0.342
82454SOL    HW249202   0.206   0.922   0.199
82455SOL     OW49203   4.884   1.059  13.806
82455SOL    HW149204   4.834   0.988  13.846
82455SOL    HW249205   4.844   1.139  13.840
82456SOL     OW49206   8.481   4.330  12.003
82456SOL    HW149207   8.426   4.352  12.079
82456SOL    HW249208   8.453   4.242  11.979
82457SOL     OW49209   7.320  11.385  12.359
82457SOL    HW149210   7.248  11.440  12.329
82457SOL    HW249211   7.355  11.432  12.435
82458SOL     OW49212   1.166   8.284   6.030
82458SOL    HW149213   1.110   8.298   5.954
82458SOL    HW249214   1.104   8.268   6.102
82459SOL     OW49215  10.990  10.299  12.193
82459SOL    HW149216  11.079  10.309  12.227
82459SOL    HW249217  10.937  10.280  12.270
82460SOL     OW49218  11.350   2.848  12.599
82460SOL    HW149219  11.408   2.773  12.587
82460SOL    HW249220  11.409   2.923  12.610
82461SOL     OW49221   7.189   9.284  10.206
82461SOL    HW149222   7.113   9.339  10.191
82461SOL    HW249223   7.195   9.229  10.128
82462SOL     OW49224   6.937   3.454   7.693
82462SOL    HW149225   6.955   3.503   7.613
82462SOL    HW249226   6.962   3.364   7.671
82463SOL     OW49227   3.912   3.853   0.459
82463SOL    HW149228   3.851   3.847   0.533
82463SOL    HW249229   3.961   3.934   0.476
82464SOL     OW49230  14.420  12.478  14.735
82464SOL    HW149231  14.377  12.461  14.819
82464SOL    HW249232  14.408  12.397  14.684
82465SOL     OW49233  12.885  12.659   7.434
82465SOL    HW149234  12.815  12.652   7.369
82465SOL    HW249235  12.846  12.708   7.506
82466SOL     OW49236   6.882   9.604   6.906
82466SOL    HW149237   6.830   9.683   6.891
82466SOL    HW249238   6.830   9.533   6.868
82467SOL     OW49239   3.712   3.783   0.642
82467SOL    HW149240   3.724   3.717   0.710
82467SOL    HW249241   3.625   3.819   0.659
82468SOL     OW49242  14.379   1.350   9.580
82468SOL    HW149243  14.395   1.379   9.491
82468SOL    HW249244  14.302   1.399   9.609
82469SOL     OW49245   2.667   6.912   3.875
82469SOL    HW149246   2.721   6.986   3.900
82469SOL    HW249247   2.608   6.898   3.949
82470SOL     OW49248   8.322   4.149   3.420
82470SOL    HW149249   8.319   4.234   3.464
82470SOL    HW249250   8.390   4.100   3.467
82471SOL     OW49251   1.726   7.854   2.470
82471SOL    HW149252   1.802   7.901   2.505
82471SOL    HW249253   1.659   7.863   2.538
82472SOL     OW49254  10.784   2.282   0.402
82472SOL    HW149255  10.811   2.373   0.392
82472SOL    HW249256  10.821   2.237   0.326
82473SOL     OW49257  13.247  14.773   5.447
82473SOL    HW149258  13.177  14.744   5.388
82473SOL    HW249259  13.328  14.758   5.398
82474SOL     OW49260   4.403  10.593  14.211
82474SOL    HW149261   4.420  10.673  14.261
82474SOL    HW249262   4.484  10.578  14.161
82475SOL     OW49263   0.288  14.121   5.483
82475SOL    HW149264   0.356  14.159   5.428
82475SOL    HW249265   0.266  14.038   5.442
82476SOL     OW49266   9.612  10.462   6.918
82476SOL    HW149267   9.606  10.370   6.943
82476SOL    HW249268   9.694  10.492   6.957
82477SOL     OW49269   4.232   1.853  10.526
82477SOL    HW149270   4.326   1.842  10.540
82477SOL    HW249271   4.224   1.938  10.483
82478SOL     OW49272   3.911   5.147   1.797
82478SOL    HW149273   3.898   5.124   1.888
82478SOL    HW249274   3.993   5.197   1.796
82479SOL     OW49275   1.932   2.145   2.490
82479SOL    HW149276   1.909   2.099   2.409
82479SOL    HW249277   1.950   2.234   2.462
82480SOL     OW49278  10.596   2.445  11.197
82480SOL    HW149279  10.528   2.512  11.208
82480SOL    HW249280  10.577   2.380  11.265
82481SOL     OW49281  13.055  11.252   3.034
82481SOL    HW149282  13.002  11.331   3.035
82481SOL    HW249283  13.092  11.247   3.122
82482SOL     OW49284   3.204   1.760   6.796
82482SOL    HW149285   3.114   1.756   6.763
82482SOL    HW249286   3.242   1.836   6.754
82483SOL     OW49287  12.905   9.857   5.412
82483SOL    HW149288  12.809   9.856   5.405
82483SOL    HW249289  12.934   9.905   5.335
82484SOL     OW49290  11.729   6.690   1.454
82484SOL    HW149291  11.747   6.767   1.508
82484SOL    HW249292  11.652   6.715   1.402
82485SOL     OW49293   8.772  12.288   1.877
82485SOL    HW149294   8.776  12.379   1.904
82485SOL    HW249295   8.682  12.276   1.846
82486SOL     OW49296  11.883   2.952   8.953
82486SOL    HW149297  11.829   2.934   8.876
82486SOL    HW249298  11.934   2.872   8.966
82487SOL     OW49299   8.394   5.228   6.587
82487SOL    HW149300   8.300   5.213   6.602
82487SOL    HW249301   8.432   5.229   6.674
82488SOL     OW49302   6.818  14.326   9.205
82488SOL    HW149303   6.805  14.319   9.110
82488SOL    HW249304   6.767  14.255   9.241
82489SOL     OW49305  13.982   2.220   3.072
82489SOL    HW149306  13.968   2.312   3.093
82489SOL    HW249307  14.069   2.201   3.105
82490SOL     OW49308  14.119  11.165  10.492
82490SOL    HW149309  14.208  11.160  10.457
82490SOL    HW249310  14.126  11.224  10.567
82491SOL     OW49311  10.055  11.226  11.488
82491SOL    HW149312  10.042  11.268  11.404
82491SOL    HW249313  10.017  11.286  11.552
82492SOL     OW49314  10.582   1.434   9.126
82492SOL    HW149315  10.581   1.493   9.051
82492SOL    HW249316  10.493   1.399   9.131
82493SOL     OW49317   3.423   8.378   9.078
82493SOL    HW149318   3.477   8.397   9.001
82493SOL    HW249319   3.420   8.461   9.126
82494SOL     OW49320  14.766   0.099  10.704
82494SOL    HW149321  14.792   0.015  10.744
82494SOL    HW249322  14.672   0.090  10.689
82495SOL     OW49323  12.113   8.083  13.135
82495SOL    HW149324  12.140   8.012  13.193
82495SOL    HW249325  12.037   8.122  13.178
82496SOL     OW49326   8.541   2.127   1.923
82496SOL    HW149327   8.580   2.188   1.986
82496SOL    HW249328   8.526   2.180   1.845
82497SOL     OW49329   8.427   9.501   2.233
82497SOL    HW149330   8.444   9.446   2.310
82497SOL    HW249331   8.489   9.469   2.167
82498SOL     OW49332  12.861   3.890  11.392
82498SOL    HW149333  12.836   3.805  11.428
82498SOL    HW249334  12.809   3.898  11.312
82499SOL     OW49335   5.503  13.755   1.014
82499SOL    HW149336   5.420  13.715   1.043
82499SOL    HW249337   5.564  13.737   1.086
82500SOL     OW49338   8.907   1.416  13.680
82500SOL    HW149339   8.837   1.430  13.744
82500SOL    HW249340   8.909   1.321  13.667
82501SOL     OW49341   6.627   2.143   7.892
82501SOL    HW149342   6.664   2.105   7.813
82501SOL    HW249343   6.555   2.198   7.862
82502SOL     OW49344  13.598  14.143  11.886
82502SOL    HW149345  13.522  14.183  11.844
82502SOL    HW249346  13.638  14.215  11.935
82503SOL     OW49347   5.099   3.657  13.805
82503SOL    HW149348   5.016   3.635  13.762
82503SOL    HW249349   5.081   3.646  13.898
82504SOL     OW49350   2.881  12.235   1.157
82504SOL    HW149351   2.870  12.242   1.252
82504SOL    HW249352   2.962  12.185   1.146
82505SOL     OW49353   8.417   8.739  10.854
82505SOL    HW149354   8.322   8.741  10.854
82505SOL    HW249355   8.442   8.775  10.939
82506SOL     OW49356   9.475  10.368   9.851
82506SOL    HW149357   9.538  10.364   9.923
82506SOL    HW249358   9.474  10.460   9.825
82507SOL     OW49359  12.999  14.759   8.724
82507SOL    HW149360  12.923  14.738   8.671
82507SOL    HW249361  12.996  14.696   8.797
82508SOL     OW49362  13.022   2.417  12.720
82508SOL    HW149363  13.010   2.380  12.808
82508SOL    HW249364  13.112   2.450  12.720
82509SOL     OW49365   0.889   8.661   5.988
82509SOL    HW149366   0.847   8.582   6.022
82509SOL    HW249367   0.924   8.705   6.065
82510SOL     OW49368   1.900  10.431   0.144
82510SOL    HW149369   1.876  10.358   0.087
82510SOL    HW249370   1.818  10.477   0.161
82511SOL     OW49371   8.671   8.646   6.004
82511SOL    HW149372   8.582   8.683   6.002
82511SOL    HW249373   8.671   8.587   6.079
82512SOL     OW49374  11.588  10.466   4.072
82512SOL    HW149375  11.579  10.415   4.152
82512SOL    HW249376  11.650  10.416   4.019
82513SOL     OW49377   0.808   2.236  10.594
82513SOL    HW149378   0.814   2.205  10.684
82513SOL    HW249379   0.777   2.160  10.544
82514SOL     OW49380   1.162   2.061   8.109
82514SOL    HW149381   1.189   2.005   8.182
82514SOL    HW249382   1.243   2.077   8.060
82515SOL     OW49383   9.526  13.366   5.444
82515SOL    HW149384   9.607  13.354   5.394
82515SOL    HW249385   9.500  13.456   5.425
82516SOL     OW49386   4.659  10.449   3.269
82516SOL    HW149387   4.702  10.410   3.193
82516SOL    HW249388   4.622  10.375   3.317
82517SOL     OW49389   4.277   7.836   4.274
82517SOL    HW149390   4.346   7.899   4.252
82517SOL    HW249391   4.263   7.848   4.368
82518SOL     OW49392  12.369   8.033   9.596
82518SOL    HW149393  12.439   7.984   9.554
82518SOL    HW249394  12.414   8.088   9.660
82519SOL     OW49395   7.952   3.117   4.730
82519SOL    HW149396   7.979   3.171   4.804
82519SOL    HW249397   7.878   3.164   4.691
82520SOL     OW49398   9.964   9.745   3.742
82520SOL    HW149399   9.926   9.691   3.812
82520SOL    HW249400   9.890   9.766   3.685
82521SOL     OW49401   7.310   5.875  11.481
82521SOL    HW149402   7.280   5.966  11.479
82521SOL    HW249403   7.243   5.829  11.530
82522SOL     OW49404   7.372  10.230   9.328
82522SOL    HW149405   7.356  10.159   9.265
82522SOL    HW249406   7.298  10.225   9.388
82523SOL     OW49407  13.664  14.679  11.739
82523SOL    HW149408  13.587  14.729  11.714
82523SOL    HW249409  13.639  14.587  11.726
82524SOL     OW49410  11.543   1.737  13.977
82524SOL    HW149411  11.626   1.698  14.004
82524SOL    HW249412  11.559   1.767  13.887
82525SOL     OW49413   3.353   4.220  12.694
82525SOL    HW149414   3.426   4.270  12.658
82525SOL    HW249415   3.348   4.247  12.786
82526SOL     OW49416   9.687   4.082   0.631
82526SOL    HW149417   9.707   4.140   0.704
82526SOL    HW249418   9.610   4.033   0.660
82527SOL     OW49419  12.140   0.241   7.497
82527SOL    HW149420  12.214   0.301   7.510
82527SOL    HW249421  12.064   0.299   7.489
82528SOL     OW49422   6.095  13.924   7.772
82528SOL    HW149423   6.166  13.951   7.831
82528SOL    HW249424   6.017  13.964   7.809
82529SOL     OW49425  13.164   0.084  13.810
82529SOL    HW149426  13.073   0.100  13.833
82529SOL    HW249427  13.208   0.167  13.829
82530SOL     OW49428  13.570  14.776   0.795
82530SOL    HW149429  13.626  14.854   0.790
82530SOL    HW249430  13.482  14.808   0.777
82531SOL     OW49431   7.622   9.311   1.249
82531SOL    HW149432   7.628   9.382   1.312
82531SOL    HW249433   7.611   9.232   1.302
82532SOL     OW49434  12.376   5.459   2.564
82532SOL    HW149435  12.384   5.518   2.489
82532SOL    HW249436  12.312   5.501   2.621
82533SOL     OW49437  11.909   7.470   2.387
82533SOL    HW149438  11.979   7.431   2.335
82533SOL    HW249439  11.915   7.427   2.472
82534SOL     OW49440   0.452   4.409   0.776
82534SOL    HW149441   0.458   4.315   0.795
82534SOL    HW249442   0.511   4.450   0.839
82535SOL     OW49443  11.871   4.966   0.041
82535SOL    HW149444  11.790   4.923   0.068
82535SOL    HW249445  11.938   4.897   0.045
82536SOL     OW49446   2.985  10.365  13.358
82536SOL    HW149447   3.078  10.385  13.358
82536SOL    HW249448   2.980  10.271  13.340
82537SOL     OW49449   3.226   3.147   0.695
82537SOL    HW149450   3.253   3.115   0.781
82537SOL    HW249451   3.291   3.110   0.635
82538SOL     OW49452   9.713  11.238   6.817
82538SOL    HW149453   9.734  11.330   6.837
82538SOL    HW249454   9.646  11.214   6.882
82539SOL     OW49455   7.207   5.503  11.487
82539SOL    HW149456   7.114   5.480  11.486
82539SOL    HW249457   7.214   5.577  11.427
82540SOL     OW49458   3.522   8.423  12.090
82540SOL    HW149459   3.510   8.348  12.149
82540SOL    HW249460   3.594   8.397  12.032
82541SOL     OW49461   7.341   7.172  14.253
82541SOL    HW149462   7.319   7.142  14.164
82541SOL    HW249463   7.268   7.229  14.278
82542SOL     OW49464  10.479  13.315  14.657
82542SOL    HW149465  10.547  13.249  14.671
82542SOL    HW249466  10.445  13.333  14.745
82543SOL     OW49467  13.606   4.813   5.361
82543SOL    HW149468  13.543   4.787   5.428
82543SOL    HW249469  13.656   4.733   5.344
82544SOL     OW49470   8.311   9.567   5.403
82544SOL    HW149471   8.356   9.492   5.441
82544SOL    HW249472   8.352   9.577   5.316
82545SOL     OW49473   0.179   3.454   1.216
82545SOL    HW149474   0.129   3.375   1.237
82545SOL    HW249475   0.241   3.463   1.289
82546SOL     OW49476   0.495   5.604   4.189
82546SOL    HW149477   0.586   5.628   4.206
82546SOL    HW249478   0.446   5.686   4.196
82547SOL     OW49479   3.783  14.622   7.269
82547SOL    HW149480   3.719  14.686   7.302
82547SOL    HW249481   3.757  14.607   7.178
82548SOL     OW49482   7.851   2.475   4.654
82548SOL    HW149483   7.772   2.443   4.696
82548SOL    HW249484   7.890   2.398   4.613
82549SOL     OW49485   6.093  14.356   7.336
82549SOL    HW149486   6.144  14.308   7.401
82549SOL    HW249487   6.154  14.423   7.303
82550SOL     OW49488   7.851   9.943  12.001
82550SOL    HW149489   7.756   9.935  12.014
82550SOL    HW249490   7.888   9.876  12.058
82551SOL     OW49491  10.707   5.974   4.370
82551SOL    HW149492  10.781   6.029   4.346
82551SOL    HW249493  10.743   5.911   4.432
82552SOL     OW49494  11.718   3.608  14.377
82552SOL    HW149495  11.629   3.632  14.401
82552SOL    HW249496  11.755   3.571  14.458
82553SOL     OW49497  12.485   0.332   9.896
82553SOL    HW149498  12.392   0.353   9.893
82553SOL    HW249499  12.489   0.248   9.943
82554SOL     OW49500  12.499   3.233  14.286
82554SOL    HW149501  12.580   3.186  14.303
82554SOL    HW249502  12.458   3.185  14.213
82555SOL     OW49503   3.027  12.458  14.421
82555SOL    HW149504   3.087  12.425  14.488
82555SOL    HW249505   2.993  12.539  14.458
82556SOL     OW49506   9.955   0.360   6.033
82556SOL    HW149507   9.991   0.383   5.948
82556SOL    HW249508  10.022   0.388   6.096
82557SOL     OW49509  14.386   5.701   9.161
82557SOL    HW149510  14.316   5.765   9.173
82557SOL    HW249511  14.341   5.617   9.155
82558SOL     OW49512  14.237   8.415  13.061
82558SOL    HW149513  14.311   8.361  13.032
82558SOL    HW249514  14.183   8.356  13.114
82559SOL     OW49515   5.225   9.140   8.162
82559SOL    HW149516   5.140   9.149   8.118
82559SOL    HW249517   5.266   9.065   8.119
82560SOL     OW49518   2.157   3.808   5.537
82560SOL    HW149519   2.078   3.852   5.505
82560SOL    HW249520   2.141   3.715   5.520
82561SOL     OW49521   2.949   8.707   7.235
82561SOL    HW149522   3.019   8.757   7.192
82561SOL    HW249523   2.995   8.637   7.282
82562SOL     OW49524   5.093  12.341  13.861
82562SOL    HW149525   5.139  12.259  13.876
82562SOL    HW249526   5.001  12.321  13.881
82563SOL     OW49527   2.165  11.583   0.325
82563SOL    HW149528   2.148  11.673   0.297
82563SOL    HW249529   2.168  11.533   0.243
82564SOL     OW49530   3.215  10.761   0.572
82564SOL    HW149531   3.127  10.729   0.594
82564SOL    HW249532   3.212  10.778   0.478
82565SOL     OW49533   5.649   8.086   6.123
82565SOL    HW149534   5.607   8.109   6.040
82565SOL    HW249535   5.664   7.992   6.117
82566SOL     OW49536  10.081   6.882   0.011
82566SOL    HW149537  10.119   6.901  14.802
82566SOL    HW249538  10.154   6.848   0.063
82567SOL     OW49539   7.370   0.663   9.283
82567SOL    HW149540   7.388   0.681   9.191
82567SOL    HW249541   7.303   0.594   9.281
82568SOL     OW49542   7.835  13.145   4.361
82568SOL    HW149543   7.745  13.127   4.388
82568SOL    HW249544   7.876  13.185   4.438
82569SOL     OW49545   9.564   6.715  12.087
82569SOL    HW149546   9.640   6.701  12.144
82569SOL    HW249547   9.585   6.667  12.007
82570SOL     OW49548   3.845  11.588   3.092
82570SOL    HW149549   3.915  11.530   3.124
82570SOL    HW249550   3.861  11.595   2.998
82571SOL     OW49551  14.141  13.487   3.963
82571SOL    HW149552  14.127  13.496   3.869
82571SOL    HW249553  14.059  13.517   4.003
82572SOL     OW49554   9.788   9.449   3.060
82572SOL    HW149555   9.817   9.539   3.047
82572SOL    HW249556   9.771   9.416   2.972
82573SOL     OW49557   1.831  13.241   6.501
82573SOL    HW149558   1.830  13.148   6.477
82573SOL    HW249559   1.833  13.288   6.418
82574SOL     OW49560   0.116   6.945   5.564
82574SOL    HW149561   0.211   6.934   5.572
82574SOL    HW249562   0.088   6.873   5.507
82575SOL     OW49563   2.980   3.933   6.333
82575SOL    HW149564   3.059   3.984   6.352
82575SOL    HW249565   2.975   3.869   6.405
82576SOL     OW49566   6.101   4.792   4.402
82576SOL    HW149567   6.074   4.747   4.323
82576SOL    HW249568   6.120   4.881   4.374
82577SOL     OW49569   7.562  11.461  13.048
82577SOL    HW149570   7.551  11.457  13.143
82577SOL    HW249571   7.598  11.548  13.032
82578SOL     OW49572   2.126   9.045  13.853
82578SOL    HW149573   2.032   9.049  13.870
82578SOL    HW249574   2.140   8.959  13.814
82579SOL     OW49575   4.710  14.825  10.845
82579SOL    HW149576   4.709  14.766  10.920
82579SOL    HW249577   4.774  14.787  10.785
82580SOL     OW49578  14.591   5.160  14.742
82580SOL    HW149579  14.521   5.151  14.806
82580SOL    HW249580  14.581   5.084  14.684
82581SOL     OW49581   8.061   1.223   1.300
82581SOL    HW149582   8.114   1.271   1.363
82581SOL    HW249583   8.005   1.167   1.354
82582SOL     OW49584   7.663   9.304   7.827
82582SOL    HW149585   7.620   9.349   7.900
82582SOL    HW249586   7.618   9.337   7.750
82583SOL     OW49587  11.588   0.500  10.945
82583SOL    HW149588  11.546   0.545  10.872
82583SOL    HW249589  11.680   0.523  10.937
82584SOL     OW49590  12.153   2.332   4.123
82584SOL    HW149591  12.103   2.268   4.072
82584SOL    HW249592  12.090   2.401   4.144
82585SOL     OW49593  14.612  11.258  13.100
82585SOL    HW149594  14.574  11.220  13.179
82585SOL    HW249595  14.545  11.246  13.033
82586SOL     OW49596  13.444  14.090   5.283
82586SOL    HW149597  13.384  14.032   5.236
82586SOL    HW249598  13.514  14.109   5.221
82587SOL     OW49599   9.608   6.928   3.621
82587SOL    HW149600   9.680   6.864   3.623
82587SOL    HW249601   9.636   6.994   3.558
82588SOL     OW49602  14.098   2.091   6.236
82588SOL    HW149603  14.008   2.095   6.206
82588SOL    HW249604  14.093   2.106   6.330
82589SOL     OW49605  12.166  11.385   5.137
82589SOL    HW149606  12.250  11.413   5.101
82589SOL    HW249607  12.172  11.289   5.140
82590SOL     OW49608  13.123  11.292  12.404
82590SOL    HW149609  13.217  11.312  12.405
82590SOL    HW249610  13.103  11.269  12.495
82591SOL     OW49611  10.550   4.381   8.005
82591SOL    HW149612  10.492   4.334   7.945
82591SOL    HW249613  10.542   4.335   8.088
82592SOL     OW49614  14.416  14.056   4.147
82592SOL    HW149615  14.497  14.090   4.109
82592SOL    HW249616  14.365  14.027   4.072
82593SOL     OW49617   2.626   1.614   2.775
82593SOL    HW149618   2.590   1.550   2.836
82593SOL    HW249619   2.688   1.564   2.721
82594SOL     OW49620  11.017  12.901   3.234
82594SOL    HW149621  11.074  12.917   3.310
82594SOL    HW249622  11.055  12.823   3.192
82595SOL     OW49623   9.770   5.396   4.162
82595SOL    HW149624   9.696   5.357   4.117
82595SOL    HW249625   9.792   5.474   4.110
82596SOL     OW49626  14.521   1.310   5.657
82596SOL    HW149627  14.495   1.250   5.587
82596SOL    HW249628  14.562   1.254   5.723
82597SOL     OW49629   0.243   1.819   1.354
82597SOL    HW149630   0.266   1.738   1.400
82597SOL    HW249631   0.319   1.838   1.299
82598SOL     OW49632   5.474  10.112   1.445
82598SOL    HW149633   5.509  10.057   1.375
82598SOL    HW249634   5.412  10.171   1.401
82599SOL     OW49635  12.814   9.326   4.150
82599SOL    HW149636  12.842   9.369   4.069
82599SOL    HW249637  12.827   9.393   4.217
82600SOL     OW49638   7.027   3.834   3.908
82600SOL    HW149639   7.093   3.791   3.854
82600SOL    HW249640   7.064   3.832   3.996
82601SOL     OW49641   7.368   4.916   4.811
82601SOL    HW149642   7.320   4.981   4.760
82601SOL    HW249643   7.423   4.967   4.871
82602SOL     OW49644  12.976   2.146  10.858
82602SOL    HW149645  12.921   2.192  10.794
82602SOL    HW249646  13.035   2.214  10.892
82603SOL     OW49647   0.734  14.276   7.705
82603SOL    HW149648   0.715  14.183   7.698
82603SOL    HW249649   0.686  14.305   7.783
82604SOL     OW49650   8.643  14.702   1.639
82604SOL    HW149651   8.723  14.734   1.597
82604SOL    HW249652   8.590  14.781   1.652
82605SOL     OW49653   5.159   1.211   8.140
82605SOL    HW149654   5.114   1.228   8.057
82605SOL    HW249655   5.204   1.128   8.126
82606SOL     OW49656  14.689   2.951   0.417
82606SOL    HW149657  14.737   2.881   0.460
82606SOL    HW249658  14.620   2.975   0.479
82607SOL     OW49659  14.002  14.837   7.915
82607SOL    HW149660  14.048  14.844   7.998
82607SOL    HW249661  13.920  14.792   7.937
82608SOL     OW49662  10.689   4.723   1.500
82608SOL    HW149663  10.763   4.701   1.444
82608SOL    HW249664  10.612   4.709   1.446
82609SOL     OW49665   5.843  14.491   3.630
82609SOL    HW149666   5.939  14.489   3.633
82609SOL    HW249667   5.823  14.522   3.541
82610SOL     OW49668   7.955   7.548   5.828
82610SOL    HW149669   7.984   7.491   5.899
82610SOL    HW249670   7.890   7.497   5.780
82611SOL     OW49671   6.154  13.980   0.071
82611SOL    HW149672   6.146  13.896   0.115
82611SOL    HW249673   6.142  14.045   0.140
82612SOL     OW49674   1.548  13.340   8.156
82612SOL    HW149675   1.473  13.369   8.103
82612SOL    HW249676   1.546  13.397   8.233
82613SOL     OW49677  12.501   1.142  11.160
82613SOL    HW149678  12.585   1.105  11.186
82613SOL    HW249679  12.450   1.145  11.241
82614SOL     OW49680  13.075   0.891   9.524
82614SOL    HW149681  13.000   0.949   9.539
82614SOL    HW249682  13.040   0.803   9.538
82615SOL     OW49683   6.534  13.846  13.880
82615SOL    HW149684   6.554  13.767  13.830
82615SOL    HW249685   6.595  13.844  13.953
82616SOL     OW49686   5.398   5.229   2.003
82616SOL    HW149687   5.396   5.134   2.014
82616SOL    HW249688   5.440   5.242   1.919
82617SOL     OW49689  11.303  12.943   9.202
82617SOL    HW149690  11.297  13.038   9.195
82617SOL    HW249691  11.217  12.915   9.233
82618SOL     OW49692  14.109   1.529  10.559
82618SOL    HW149693  14.185   1.504  10.508
82618SOL    HW249694  14.082   1.448  10.603
82619SOL     OW49695   8.739   5.906  10.934
82619SOL    HW149696   8.715   5.996  10.912
82619SOL    HW249697   8.735   5.903  11.030
82620SOL     OW49698  14.858   6.507   3.324
82620SOL    HW149699  14.867   6.600   3.301
82620SOL    HW249700  14.780   6.505   3.380
82621SOL     OW49701   2.294  12.375   0.430
82621SOL    HW149702   2.374  12.327   0.407
82621SOL    HW249703   2.301  12.387   0.525
82622SOL     OW49704  14.236   3.286  11.175
82622SOL    HW149705  14.303   3.281  11.243
82622SOL    HW249706  14.284   3.313  11.096
82623SOL     OW49707  12.308   8.324   3.811
82623SOL    HW149708  12.349   8.239   3.797
82623SOL    HW249709  12.314   8.368   3.726
82624SOL     OW49710   3.901   0.261  14.263
82624SOL    HW149711   3.862   0.205  14.330
82624SOL    HW249712   3.843   0.337  14.258
82625SOL     OW49713   1.413  11.691   4.473
82625SOL    HW149714   1.474  11.682   4.400
82625SOL    HW249715   1.453  11.640   4.544
82626SOL     OW49716   7.711  13.097  14.411
82626SOL    HW149717   7.754  13.012  14.422
82626SOL    HW249718   7.769  13.146  14.352
82627SOL     OW49719   7.791   5.731  13.521
82627SOL    HW149720   7.881   5.740  13.551
82627SOL    HW249721   7.782   5.794  13.449
82628SOL     OW49722   6.168   4.710   2.249
82628SOL    HW149723   6.219   4.786   2.219
82628SOL    HW249724   6.088   4.712   2.197
82629SOL     OW49725   3.514   1.351   7.241
82629SOL    HW149726   3.528   1.432   7.290
82629SOL    HW249727   3.560   1.284   7.292
82630SOL     OW49728   4.105   3.230  14.472
82630SOL    HW149729   4.114   3.322  14.448
82630SOL    HW249730   4.096   3.231  14.567
82631SOL     OW49731   5.189   8.617   6.955
82631SOL    HW149732   5.215   8.609   7.047
82631SOL    HW249733   5.262   8.580   6.906
82632SOL     OW49734   7.751  13.014   3.075
82632SOL    HW149735   7.737  13.086   3.014
82632SOL    HW249736   7.831  13.037   3.122
82633SOL     OW49737  14.711   6.685   2.758
82633SOL    HW149738  14.771   6.623   2.717
82633SOL    HW249739  14.753   6.709   2.840
82634SOL     OW49740   9.158  14.645   7.628
82634SOL    HW149741   9.208  14.625   7.707
82634SOL    HW249742   9.163  14.566   7.575
82635SOL     OW49743  10.132   4.828  13.092
82635SOL    HW149744  10.159   4.845  13.002
82635SOL    HW249745  10.079   4.749  13.088
82636SOL     OW49746   4.909  11.049  12.684
82636SOL    HW149747   4.927  10.976  12.625
82636SOL    HW249748   4.995  11.072  12.720
82637SOL     OW49749   0.002  11.263   5.077
82637SOL    HW149750  14.831  11.281   5.158
82637SOL    HW249751  14.867  11.342   5.025
82638SOL     OW49752   4.944  11.451  13.612
82638SOL    HW149753   4.931  11.358  13.634
82638SOL    HW249754   5.038  11.464  13.619
82639SOL     OW49755   8.488   3.962   3.541
82639SOL    HW149756   8.543   3.903   3.488
82639SOL    HW249757   8.464   3.910   3.618
82640SOL     OW49758  13.660   1.185   5.134
82640SOL    HW149759  13.645   1.193   5.229
82640SOL    HW249760  13.747   1.147   5.127
82641SOL     OW49761   9.238   8.287   9.231
82641SOL    HW149762   9.152   8.261   9.262
82641SOL    HW249763   9.250   8.377   9.262
82642SOL     OW49764  11.699   9.944  11.031
82642SOL    HW149765  11.718   9.933  10.938
82642SOL    HW249766  11.680   9.855  11.062
82643SOL     OW49767   6.225   4.077   4.931
82643SOL    HW149768   6.277   4.156   4.946
82643SOL    HW249769   6.142   4.094   4.976
82644SOL     OW49770   7.736  13.510  11.624
82644SOL    HW149771   7.739  13.604  11.601
82644SOL    HW249772   7.814  13.474  11.582
82645SOL     OW49773  10.239   2.105  13.883
82645SOL    HW149774  10.231   2.055  13.801
82645SOL    HW249775  10.224   2.195  13.857
82646SOL     OW49776  11.701   8.534  10.306
82646SOL    HW149777  11.662   8.499  10.386
82646SOL    HW249778  11.795   8.535  10.324
82647SOL     OW49779  10.431   5.000  13.667
82647SOL    HW149780  10.458   4.980  13.756
82647SOL    HW249781  10.342   4.967  13.661
82648SOL     OW49782  14.407   6.115  13.624
82648SOL    HW149783  14.473   6.059  13.585
82648SOL    HW249784  14.347   6.055  13.669
82649SOL     OW49785   7.357   6.057   4.694
82649SOL    HW149786   7.400   6.020   4.617
82649SOL    HW249787   7.315   5.982   4.736
82650SOL     OW49788   1.529   9.453   7.302
82650SOL    HW149789   1.525   9.511   7.378
82650SOL    HW249790   1.623   9.441   7.286
82651SOL     OW49791  11.861  13.105  13.266
82651SOL    HW149792  11.955  13.118  13.252
82651SOL    HW249793  11.823  13.193  13.259
82652SOL     OW49794   4.517   5.354   1.311
82652SOL    HW149795   4.493   5.263   1.296
82652SOL    HW249796   4.584   5.351   1.379
82653SOL     OW49797   5.931  12.500   8.099
82653SOL    HW149798   5.849  12.551   8.097
82653SOL    HW249799   5.917  12.436   8.168
82654SOL     OW49800   0.846   8.783   7.945
82654SOL    HW149801   0.941   8.790   7.951
82654SOL    HW249802   0.831   8.706   7.890
82655SOL     OW49803   6.843  14.631   2.861
82655SOL    HW149804   6.884  14.699   2.914
82655SOL    HW249805   6.758  14.668   2.837
82656SOL     OW49806  10.958  11.694   0.601
82656SOL    HW149807  11.052  11.676   0.601
82656SOL    HW249808  10.948  11.770   0.658
82657SOL     OW49809   1.686   1.468   0.213
82657SOL    HW149810   1.748   1.476   0.286
82657SOL    HW249811   1.700   1.546   0.160
82658SOL     OW49812   3.710   1.746   4.343
82658SOL    HW149813   3.751   1.735   4.429
82658SOL    HW249814   3.637   1.684   4.343
82659SOL     OW49815   3.936   3.830   1.902
82659SOL    HW149816   3.997   3.765   1.867
82659SOL    HW249817   3.950   3.828   1.996
82660SOL     OW49818  11.883  13.214   6.814
82660SOL    HW149819  11.827  13.233   6.889
82660SOL    HW249820  11.966  13.257   6.834
82661SOL     OW49821  11.774   3.069   0.270
82661SOL    HW149822  11.774   3.164   0.254
82661SOL    HW249823  11.786   3.030   0.184
82662SOL     OW49824  11.383   0.591   4.470
82662SOL    HW149825  11.391   0.594   4.375
82662SOL    HW249826  11.460   0.542   4.499
82663SOL     OW49827   4.953   0.028   2.611
82663SOL    HW149828   5.043  14.875   2.601
82663SOL    HW249829   4.917   0.028   2.523
82664SOL     OW49830  13.657   4.195  14.013
82664SOL    HW149831  13.672   4.165  14.102
82664SOL    HW249832  13.575   4.243  14.016
82665SOL     OW49833  13.567   0.972   5.765
82665SOL    HW149834  13.592   1.064   5.756
82665SOL    HW249835  13.500   0.959   5.698
82666SOL     OW49836   8.809   3.519   2.268
82666SOL    HW149837   8.715   3.511   2.253
82666SOL    HW249838   8.820   3.501   2.361
82667SOL     OW49839   7.508  13.857   1.552
82667SOL    HW149840   7.461  13.936   1.526
82667SOL    HW249841   7.577  13.848   1.486
82668SOL     OW49842   8.589   8.453   5.809
82668SOL    HW149843   8.518   8.461   5.873
82668SOL    HW249844   8.657   8.512   5.841
82669SOL     OW49845   9.630   2.700  12.095
82669SOL    HW149846   9.661   2.613  12.123
82669SOL    HW249847   9.601   2.742  12.176
82670SOL     OW49848   7.327  14.388   8.596
82670SOL    HW149849   7.373  14.382   8.679
82670SOL    HW249850   7.381  14.339   8.534
82671SOL     OW49851  14.210   5.432   9.923
82671SOL    HW149852  14.292   5.396   9.888
82671SOL    HW249853  14.153   5.356   9.933
82672SOL     OW49854   2.788   9.094   2.250
82672SOL    HW149855   2.871   9.140   2.266
82672SOL    HW249856   2.792   9.018   2.308
82673SOL     OW49857  10.603   4.561   7.730
82673SOL    HW149858  10.616   4.495   7.662
82673SOL    HW249859  10.510   4.554   7.753
82674SOL     OW49860  10.500  14.008  13.322
82674SOL    HW149861  10.508  13.941  13.254
82674SOL    HW249862  10.576  14.064  13.309
82675SOL     OW49863   2.945   8.743   0.685
82675SOL    HW149864   2.861   8.730   0.643
82675SOL    HW249865   2.993   8.661   0.668
82676SOL     OW49866   2.021  13.877  10.130
82676SOL    HW149867   2.083  13.942  10.098
82676SOL    HW249868   1.990  13.913  10.214
82677SOL     OW49869   5.853   4.083   3.323
82677SOL    HW149870   5.846   4.003   3.375
82677SOL    HW249871   5.826   4.153   3.383
82678SOL     OW49872   8.205  12.454   5.406
82678SOL    HW149873   8.216  12.360   5.392
82678SOL    HW249874   8.181  12.462   5.498
82679SOL     OW49875   9.769   2.813   7.634
82679SOL    HW149876   9.833   2.804   7.563
82679SOL    HW249877   9.691   2.848   7.592
82680SOL     OW49878  12.652   9.798   5.301
82680SOL    HW149879  12.609   9.714   5.286
82680SOL    HW249880  12.674   9.829   5.213
82681SOL     OW49881  13.178  14.170  12.801
82681SOL    HW149882  13.256  14.119  12.781
82681SOL    HW249883  13.170  14.164  12.896
82682SOL     OW49884   1.668  10.421   7.164
82682SOL    HW149885   1.676  10.326   7.163
82682SOL    HW249886   1.756  10.452   7.185
82683SOL     OW49887   1.554   6.311   8.227
82683SOL    HW149888   1.611   6.300   8.303
82683SOL    HW249889   1.489   6.376   8.256
82684SOL     OW49890   9.668   3.118   6.170
82684SOL    HW149891   9.602   3.181   6.141
82684SOL    HW249892   9.709   3.159   6.246
82685SOL     OW49893  13.170  10.965   5.732
82685SOL    HW149894  13.095  10.932   5.782
82685SOL    HW249895  13.161  11.061   5.738
82686SOL     OW49896   0.319   7.068   3.731
82686SOL    HW149897   0.297   6.978   3.758
82686SOL    HW249898   0.241   7.119   3.750
82687SOL     OW49899  11.349  13.890  10.558
82687SOL    HW149900  11.408  13.815  10.556
82687SOL    HW249901  11.272  13.861  10.510
82688SOL     OW49902   8.638   7.004   3.301
82688SOL    HW149903   8.611   7.016   3.210
82688SOL    HW249904   8.608   7.083   3.346
82689SOL     OW49905  12.427   8.596  11.651
82689SOL    HW149906  12.360   8.594  11.582
82689SOL    HW249907  12.496   8.538  11.619
82690SOL     OW49908   3.984   0.583   8.482
82690SOL    HW149909   4.017   0.614   8.398
82690SOL    HW249910   3.999   0.488   8.480
82691SOL     OW49911   8.575  14.874   5.068
82691SOL    HW149912   8.604   0.064   5.130
82691SOL    HW249913   8.632  14.799   5.085
82692SOL     OW49914   4.556   4.124   2.167
82692SOL    HW149915   4.460   4.115   2.169
82692SOL    HW249916   4.587   4.063   2.234
82693SOL     OW49917   1.641   0.591   6.817
82693SOL    HW149918   1.554   0.556   6.833
82693SOL    HW249919   1.637   0.681   6.848
82694SOL     OW49920   7.460   6.331  12.639
82694SOL    HW149921   7.471   6.304  12.548
82694SOL    HW249922   7.423   6.419  12.634
82695SOL     OW49923   4.780   3.590   4.550
82695SOL    HW149924   4.690   3.560   4.535
82695SOL    HW249925   4.834   3.512   4.534
82696SOL     OW49926   0.172   1.422  11.112
82696SOL    HW149927   0.113   1.491  11.081
82696SOL    HW249928   0.116   1.344  11.118
82697SOL     OW49929   7.583   5.749  13.699
82697SOL    HW149930   7.530   5.681  13.658
82697SOL    HW249931   7.660   5.757  13.643
82698SOL     OW49932   6.617   1.125  13.549
82698SOL    HW149933   6.540   1.076  13.578
82698SOL    HW249934   6.690   1.084  13.596
82699SOL     OW49935  13.179   4.884  12.344
82699SOL    HW149936  13.152   4.922  12.260
82699SOL    HW249937  13.101   4.891  12.399
82700SOL     OW49938  10.845  13.873  12.804
82700SOL    HW149939  10.921  13.932  12.806
82700SOL    HW249940  10.829  13.851  12.896
82701SOL     OW49941  14.444   1.462   2.374
82701SOL    HW149942  14.394   1.505   2.444
82701SOL    HW249943  14.432   1.520   2.298
82702SOL     OW49944   9.151   0.129   5.044
82702SOL    HW149945   9.237   0.088   5.061
82702SOL    HW249946   9.170   0.222   5.034
82703SOL     OW49947  13.484   8.010   2.801
82703SOL    HW149948  13.432   7.999   2.722
82703SOL    HW249949  13.574   8.017   2.770
82704SOL     OW49950   8.837   8.243   6.869
82704SOL    HW149951   8.788   8.284   6.798
82704SOL    HW249952   8.925   8.279   6.861
82705SOL     OW49953  12.996   6.821   2.766
82705SOL    HW149954  13.070   6.875   2.737
82705SOL    HW249955  12.946   6.878   2.825
82706SOL     OW49956   0.439   4.162  12.442
82706SOL    HW149957   0.349   4.130  12.442
82706SOL    HW249958   0.433   4.252  12.409
82707SOL     OW49959   5.546  12.733   9.573
82707SOL    HW149960   5.516  12.751   9.662
82707SOL    HW249961   5.466  12.712   9.524
82708SOL     OW49962  12.599   1.836  12.361
82708SOL    HW149963  12.565   1.824  12.449
82708SOL    HW249964  12.670   1.899  12.370
82709SOL     OW49965   5.436   6.261  13.975
82709SOL    HW149966   5.408   6.339  14.022
82709SOL    HW249967   5.384   6.190  14.013
82710SOL     OW49968   6.168   4.469   5.978
82710SOL    HW149969   6.260   4.475   5.952
82710SOL    HW249970   6.131   4.555   5.956
82711SOL     OW49971  13.614  11.872   4.508
82711SOL    HW149972  13.603  11.965   4.525
82711SOL    HW249973  13.698  11.866   4.464
82712SOL     OW49974   5.283   3.806   7.505
82712SOL    HW149975   5.252   3.821   7.415
82712SOL    HW249976   5.365   3.855   7.510
82713SOL     OW49977  13.081   4.162   7.337
82713SOL    HW149978  13.007   4.102   7.322
82713SOL    HW249979  13.151   4.127   7.281
82714SOL     OW49980   4.581   4.722  11.040
82714SOL    HW149981   4.618   4.778  11.109
82714SOL    HW249982   4.520   4.779  10.993
82715SOL     OW49983   8.132   7.604  13.111
82715SOL    HW149984   8.173   7.526  13.073
82715SOL    HW249985   8.169   7.677  13.061
82716SOL     OW49986   4.113   0.702   2.004
82716SOL    HW149987   4.143   0.775   2.059
82716SOL    HW249988   4.017   0.711   2.003
82717SOL     OW49989   0.707   9.665   1.299
82717SOL    HW149990   0.714   9.576   1.264
82717SOL    HW249991   0.738   9.658   1.390
82718SOL     OW49992   0.036  13.367   0.502
82718SOL    HW149993   0.054  13.421   0.425
82718SOL    HW249994   0.053  13.278   0.473
82719SOL     OW49995  11.233  12.086   3.422
82719SOL    HW149996  11.318  12.130   3.436
82719SOL    HW249997  11.241  12.004   3.470
82720SOL     OW49998  12.114  13.367   5.469
82720SOL    HW149999  12.196  13.322   5.446
82720SOL    HW250000  12.136  13.420   5.546
82721SOL     OW50001   1.347  14.187   5.612
82721SOL    HW150002   1.351  14.216   5.521
82721SOL    HW250003   1.322  14.095   5.606
82722SOL     OW50004   9.896   9.836   5.626
82722SOL    HW150005   9.984   9.829   5.663
82722SOL    HW250006   9.881   9.752   5.583
82723SOL     OW50007  14.256  12.035   8.982
82723SOL    HW150008  14.219  12.099   8.922
82723SOL    HW250009  14.327  11.993   8.932
82724SOL     OW50010   7.854  10.311   0.640
82724SOL    HW150011   7.860  10.232   0.694
82724SOL    HW250012   7.760  10.325   0.629
82725SOL     OW50013  11.522  14.064   7.183
82725SOL    HW150014  11.512  14.035   7.092
82725SOL    HW250015  11.608  14.032   7.209
82726SOL     OW50016  14.008   2.036  10.134
82726SOL    HW150017  13.999   2.110  10.074
82726SOL    HW250018  13.933   2.044  10.193
82727SOL     OW50019  13.124   5.621   6.206
82727SOL    HW150020  13.167   5.696   6.166
82727SOL    HW250021  13.153   5.546   6.153
82728SOL     OW50022   4.414  14.753   7.631
82728SOL    HW150023   4.389  14.666   7.599
82728SOL    HW250024   4.426  14.805   7.551
82729SOL     OW50025  10.423   3.855   4.316
82729SOL    HW150026  10.349   3.902   4.356
82729SOL    HW250027  10.437   3.780   4.374
82730SOL     OW50028   0.078   8.598  11.433
82730SOL    HW150029   0.169   8.603  11.460
82730SOL    HW250030   0.066   8.674  11.375
82731SOL     OW50031  12.702   3.525  12.980
82731SOL    HW150032  12.734   3.449  12.931
82731SOL    HW250033  12.651   3.488  13.052
82732SOL     OW50034   9.496   1.600   5.986
82732SOL    HW150035   9.438   1.605   6.063
82732SOL    HW250036   9.538   1.515   5.993
82733SOL     OW50037   6.402   2.595   4.009
82733SOL    HW150038   6.366   2.615   3.923
82733SOL    HW250039   6.485   2.552   3.991
82734SOL     OW50040  12.576   5.877  12.469
82734SOL    HW150041  12.658   5.914  12.501
82734SOL    HW250042  12.596   5.849  12.379
82735SOL     OW50043   3.134   2.082   6.972
82735SOL    HW150044   3.130   2.160   7.027
82735SOL    HW250045   3.172   2.112   6.890
82736SOL     OW50046  14.006   7.591  10.064
82736SOL    HW150047  14.013   7.686  10.055
82736SOL    HW250048  14.014   7.558   9.974
82737SOL     OW50049   2.588  14.648  12.367
82737SOL    HW150050   2.566  14.597  12.288
82737SOL    HW250051   2.504  14.684  12.395
82738SOL     OW50052  13.322  12.024   8.287
82738SOL    HW150053  13.260  11.973   8.235
82738SOL    HW250054  13.343  11.968   8.362
82739SOL     OW50055  12.320   0.153   2.915
82739SOL    HW150056  12.279   0.121   2.996
82739SOL    HW250057  12.348   0.074   2.869
82740SOL     OW50058   8.419  14.239   3.613
82740SOL    HW150059   8.443  14.147   3.606
82740SOL    HW250060   8.387  14.249   3.703
82741SOL     OW50061   5.219   8.121   2.251
82741SOL    HW150062   5.186   8.052   2.309
82741SOL    HW250063   5.238   8.076   2.169
82742SOL     OW50064   7.011   5.232   6.358
82742SOL    HW150065   6.932   5.202   6.312
82742SOL    HW250066   7.028   5.319   6.322
82743SOL     OW50067   8.641  14.608   3.300
82743SOL    HW150068   8.736  14.610   3.285
82743SOL    HW250069   8.619  14.699   3.321
82744SOL     OW50070  11.123   4.155   8.747
82744SOL    HW150071  11.085   4.224   8.693
82744SOL    HW250072  11.172   4.202   8.814
82745SOL     OW50073   4.996   4.240  13.155
82745SOL    HW150074   4.951   4.273  13.233
82745SOL    HW250075   4.976   4.147  13.154
82746SOL     OW50076   2.210  10.021   2.005
82746SOL    HW150077   2.176  10.038   2.093
82746SOL    HW250078   2.161  10.080   1.948
82747SOL     OW50079  13.482  12.254   8.822
82747SOL    HW150080  13.571  12.217   8.816
82747SOL    HW250081  13.431  12.185   8.865
82748SOL     OW50082  13.851   1.983   5.958
82748SOL    HW150083  13.862   2.053   6.022
82748SOL    HW250084  13.758   1.985   5.935
82749SOL     OW50085   6.636   0.925  11.920
82749SOL    HW150086   6.601   0.885  11.999
82749SOL    HW250087   6.673   0.852  11.870
82750SOL     OW50088   5.446   8.409  13.898
82750SOL    HW150089   5.514   8.363  13.948
82750SOL    HW250090   5.474   8.500  13.898
82751SOL     OW50091  12.389   6.693   3.334
82751SOL    HW150092  12.465   6.751   3.330
82751SOL    HW250093  12.384   6.652   3.248
82752SOL     OW50094   1.585  10.598   1.760
82752SOL    HW150095   1.613  10.544   1.685
82752SOL    HW250096   1.490  10.593   1.758
82753SOL     OW50097  14.055   2.302   2.765
82753SOL    HW150098  13.990   2.299   2.835
82753SOL    HW250099  14.080   2.395   2.760
82754SOL     OW50100   9.197  12.193   1.293
82754SOL    HW150101   9.132  12.144   1.343
82754SOL    HW250102   9.180  12.170   1.201
82755SOL     OW50103  13.909   8.478  12.993
82755SOL    HW150104  13.843   8.488  12.925
82755SOL    HW250105  13.936   8.386  12.987
82756SOL     OW50106   1.390  13.954   1.612
82756SOL    HW150107   1.364  13.908   1.532
82756SOL    HW250108   1.339  14.035   1.610
82757SOL     OW50109   3.429   3.098   2.099
82757SOL    HW150110   3.457   3.167   2.160
82757SOL    HW250111   3.393   3.145   2.024
82758SOL     OW50112   4.151  11.180   3.974
82758SOL    HW150113   4.141  11.122   3.899
82758SOL    HW250114   4.220  11.140   4.026
82759SOL     OW50115  10.878  12.168   7.623
82759SOL    HW150116  10.889  12.156   7.528
82759SOL    HW250117  10.784  12.174   7.635
82760SOL     OW50118   0.592  10.996   7.111
82760SOL    HW150119   0.641  11.076   7.132
82760SOL    HW250120   0.579  10.953   7.195
82761SOL     OW50121  10.257  13.918  12.505
82761SOL    HW150122  10.191  13.894  12.571
82761SOL    HW250123  10.269  14.013  12.517
82762SOL     OW50124   2.295   1.776   9.097
82762SOL    HW150125   2.238   1.837   9.145
82762SOL    HW250126   2.384   1.801   9.123
82763SOL     OW50127  12.032   2.611  12.085
82763SOL    HW150128  11.987   2.570  12.011
82763SOL    HW250129  11.966   2.669  12.124
82764SOL     OW50130   7.476  11.209  12.214
82764SOL    HW150131   7.559  11.228  12.258
82764SOL    HW250132   7.414  11.270  12.253
82765SOL     OW50133   9.799   5.024   2.034
82765SOL    HW150134   9.889   5.021   2.004
82765SOL    HW250135   9.789   4.945   2.088
82766SOL     OW50136   4.472   3.421   3.488
82766SOL    HW150137   4.389   3.416   3.440
82766SOL    HW250138   4.538   3.400   3.422
82767SOL     OW50139   2.383   3.786   3.598
82767SOL    HW150140   2.471   3.787   3.636
82767SOL    HW250141   2.325   3.807   3.671
82768SOL     OW50142   6.868   5.313   8.670
82768SOL    HW150143   6.796   5.272   8.717
82768SOL    HW250144   6.889   5.391   8.721
82769SOL     OW50145  12.305  10.615   9.300
82769SOL    HW150146  12.299  10.689   9.240
82769SOL    HW250147  12.308  10.538   9.242
82770SOL     OW50148  11.620   1.151  11.988
82770SOL    HW150149  11.540   1.106  11.961
82770SOL    HW250150  11.644   1.205  11.913
82771SOL     OW50151  12.298   5.053   8.114
82771SOL    HW150152  12.215   5.062   8.067
82771SOL    HW250153  12.273   5.016   8.199
82772SOL     OW50154   7.523   1.168  10.520
82772SOL    HW150155   7.526   1.098  10.455
82772SOL    HW250156   7.504   1.124  10.603
82773SOL     OW50157   5.927  12.351   2.299
82773SOL    HW150158   5.952  12.436   2.262
82773SOL    HW250159   5.853  12.370   2.355
82774SOL     OW50160   8.244  10.050   0.531
82774SOL    HW150161   8.160  10.067   0.488
82774SOL    HW250162   8.255   9.955   0.527
82775SOL     OW50163  11.857  10.106  11.174
82775SOL    HW150164  11.785  10.167  11.188
82775SOL    HW250165  11.817  10.032  11.128
82776SOL     OW50166   4.670   1.815   1.877
82776SOL    HW150167   4.730   1.795   1.804
82776SOL    HW250168   4.624   1.894   1.849
82777SOL     OW50169   6.831   0.749   0.167
82777SOL    HW150170   6.850   0.752   0.074
82777SOL    HW250171   6.816   0.840   0.192
82778SOL     OW50172  10.809   7.349   0.351
82778SOL    HW150173  10.740   7.316   0.295
82778SOL    HW250174  10.796   7.444   0.354
82779SOL     OW50175   8.753   6.024  14.245
82779SOL    HW150176   8.738   6.089  14.176
82779SOL    HW250177   8.836   6.050  14.284
82780SOL     OW50178   4.159  10.518   3.477
82780SOL    HW150179   4.116  10.529   3.392
82780SOL    HW250180   4.252  10.530   3.459
82781SOL     OW50181   9.590   0.417  10.640
82781SOL    HW150182   9.534   0.357  10.591
82781SOL    HW250183   9.530   0.465  10.697
82782SOL     OW50184   0.083   8.822  13.414
82782SOL    HW150185   0.105   8.848  13.503
82782SOL    HW250186   0.085   8.726  13.415
82783SOL     OW50187   0.758   0.259   1.220
82783SOL    HW150188   0.801   0.252   1.305
82783SOL    HW250189   0.668   0.231   1.237
82784SOL     OW50190   7.358   9.876  10.977
82784SOL    HW150191   7.289   9.818  10.943
82784SOL    HW250192   7.317   9.922  11.050
82785SOL     OW50193   4.433   3.500   2.009
82785SOL    HW150194   4.425   3.588   2.045
82785SOL    HW250195   4.447   3.513   1.915
82786SOL     OW50196  11.012   1.484  11.227
82786SOL    HW150197  11.055   1.434  11.158
82786SOL    HW250198  10.999   1.571  11.190
82787SOL     OW50199   0.095   5.379   8.718
82787SOL    HW150200   0.019   5.414   8.764
82787SOL    HW250201   0.100   5.287   8.747
82788SOL     OW50202   1.104   8.272   4.944
82788SOL    HW150203   1.027   8.317   4.910
82788SOL    HW250204   1.083   8.255   5.036
82789SOL     OW50205   3.978  12.641   1.912
82789SOL    HW150206   4.014  12.553   1.921
82789SOL    HW250207   3.909  12.632   1.846
82790SOL     OW50208   7.950  12.851  13.277
82790SOL    HW150209   7.871  12.822  13.232
82790SOL    HW250210   7.917  12.906  13.348
82791SOL     OW50211   8.615   0.827   4.719
82791SOL    HW150212   8.698   0.865   4.690
82791SOL    HW250213   8.620   0.736   4.690
82792SOL     OW50214  11.767   1.362  11.845
82792SOL    HW150215  11.838   1.390  11.903
82792SOL    HW250216  11.702   1.432  11.851
82793SOL     OW50217   8.911   6.367  10.705
82793SOL    HW150218   8.908   6.320  10.788
82793SOL    HW250219   8.941   6.455  10.728
82794SOL     OW50220  10.211   6.239   3.876
82794SOL    HW150221  10.166   6.323   3.863
82794SOL    HW250222  10.272   6.234   3.803
82795SOL     OW50223   9.037   9.993   2.974
82795SOL    HW150224   9.005   9.949   3.052
82795SOL    HW250225   9.110  10.047   3.005
82796SOL     OW50226   8.119   0.362   9.604
82796SOL    HW150227   8.086   0.276   9.576
82796SOL    HW250228   8.200   0.373   9.555
82797SOL     OW50229   3.735   9.569   2.116
82797SOL    HW150230   3.695   9.486   2.141
82797SOL    HW250231   3.806   9.545   2.056
82798SOL     OW50232   4.406   3.627  10.117
82798SOL    HW150233   4.433   3.714  10.088
82798SOL    HW250234   4.389   3.579  10.037
82799SOL     OW50235  13.913  10.421   5.764
82799SOL    HW150236  13.877  10.507   5.785
82799SOL    HW250237  13.938  10.427   5.672
82800SOL     OW50238   1.332   3.721  13.440
82800SOL    HW150239   1.380   3.651  13.484
82800SOL    HW250240   1.292   3.679  13.363
82801SOL     OW50241   7.356  10.148   7.938
82801SOL    HW150242   7.294  10.109   7.877
82801SOL    HW250243   7.433  10.092   7.934
82802SOL     OW50244   3.410  12.855  11.050
82802SOL    HW150245   3.489  12.813  11.084
82802SOL    HW250246   3.442  12.911  10.979
82803SOL     OW50247   9.695   1.949   6.782
82803SOL    HW150248   9.692   1.995   6.698
82803SOL    HW250249   9.775   1.896   6.777
82804SOL     OW50250  12.315   5.485  13.349
82804SOL    HW150251  12.385   5.420  13.342
82804SOL    HW250252  12.301   5.496  13.443
82805SOL     OW50253  10.815  11.618   8.626
82805SOL    HW150254  10.865  11.548   8.583
82805SOL    HW250255  10.765  11.573   8.694
82806SOL     OW50256   2.737   8.613   8.352
82806SOL    HW150257   2.720   8.658   8.435
82806SOL    HW250258   2.799   8.544   8.375
82807SOL     OW50259  10.798  11.560  10.212
82807SOL    HW150260  10.811  11.469  10.184
82807SOL    HW250261  10.795  11.610  10.130
82808SOL     OW50262   9.382  13.927   1.130
82808SOL    HW150263   9.376  13.853   1.190
82808SOL    HW250264   9.359  13.891   1.045
82809SOL     OW50265  13.439   7.929   4.626
82809SOL    HW150266  13.475   7.841   4.609
82809SOL    HW250267  13.472   7.952   4.713
82810SOL     OW50268  12.975   2.120   5.729
82810SOL    HW150269  12.992   2.068   5.808
82810SOL    HW250270  12.906   2.072   5.683
82811SOL     OW50271  10.471  13.733  11.031
82811SOL    HW150272  10.483  13.759  11.122
82811SOL    HW250273  10.419  13.653  11.036
82812SOL     OW50274   6.047   4.238   0.335
82812SOL    HW150275   6.135   4.213   0.306
82812SOL    HW250276   6.054   4.242   0.431
82813SOL     OW50277  11.713  11.644   0.947
82813SOL    HW150278  11.744  11.571   1.000
82813SOL    HW250279  11.747  11.722   0.992
82814SOL     OW50280  11.249  11.322   9.086
82814SOL    HW150281  11.321  11.333   9.148
82814SOL    HW250282  11.291  11.322   9.000
82815SOL     OW50283   4.399  12.504  12.887
82815SOL    HW150284   4.424  12.590  12.853
82815SOL    HW250285   4.459  12.443  12.842
82816SOL     OW50286   8.659   7.394  14.340
82816SOL    HW150287   8.578   7.357  14.376
82816SOL    HW250288   8.729   7.350  14.387
82817SOL     OW50289   5.561   5.107   2.916
82817SOL    HW150290   5.638   5.162   2.928
82817SOL    HW250291   5.512   5.149   2.846
82818SOL     OW50292  10.549   0.799   8.560
82818SOL    HW150293  10.590   0.872   8.514
82818SOL    HW250294  10.601   0.723   8.534
82819SOL     OW50295  12.021  13.938   9.441
82819SOL    HW150296  12.049  13.919   9.530
82819SOL    HW250297  12.021  14.034   9.435
82820SOL     OW50298  12.142   4.452   2.417
82820SOL    HW150299  12.115   4.428   2.328
82820SOL    HW250300  12.215   4.513   2.404
82821SOL     OW50301   7.298   7.939   4.348
82821SOL    HW150302   7.235   7.867   4.351
82821SOL    HW250303   7.360   7.920   4.418
82822SOL     OW50304   1.222   8.793   0.380
82822SOL    HW150305   1.199   8.702   0.364
82822SOL    HW250306   1.302   8.789   0.432
82823SOL     OW50307   4.945   0.371  13.582
82823SOL    HW150308   4.992   0.361  13.499
82823SOL    HW250309   4.864   0.321  13.570
82824SOL     OW50310   8.111   5.659   2.031
82824SOL    HW150311   8.020   5.630   2.037
82824SOL    HW250312   8.111   5.747   2.068
82825SOL     OW50313   4.289   4.028   1.284
82825SOL    HW150314   4.208   4.007   1.330
82825SOL    HW250315   4.358   4.005   1.347
82826SOL     OW50316   2.212   9.504  14.616
82826SOL    HW150317   2.167   9.477  14.695
82826SOL    HW250318   2.232   9.422  14.570
82827SOL     OW50319  14.570   6.446   3.970
82827SOL    HW150320  14.585   6.541   3.963
82827SOL    HW250321  14.580   6.428   4.064
82828SOL     OW50322  11.912   2.791   4.945
82828SOL    HW150323  11.828   2.761   4.911
82828SOL    HW250324  11.915   2.885   4.924
82829SOL     OW50325   1.808   4.060   3.727
82829SOL    HW150326   1.727   4.064   3.779
82829SOL    HW250327   1.778   4.048   3.637
82830SOL     OW50328   5.198  11.773   7.398
82830SOL    HW150329   5.224  11.833   7.328
82830SOL    HW250330   5.262  11.789   7.468
82831SOL     OW50331   6.061   1.517   8.216
82831SOL    HW150332   5.980   1.550   8.255
82831SOL    HW250333   6.041   1.509   8.123
82832SOL     OW50334   6.399  12.227   1.521
82832SOL    HW150335   6.349  12.208   1.600
82832SOL    HW250336   6.348  12.294   1.476
82833SOL     OW50337   8.130  12.479   8.389
82833SOL    HW150338   8.152  12.565   8.426
82833SOL    HW250339   8.116  12.423   8.466
82834SOL     OW50340  11.175  12.210  14.588
82834SOL    HW150341  11.192  12.141  14.523
82834SOL    HW250342  11.234  12.281  14.563
82835SOL     OW50343   3.403   1.980   2.723
82835SOL    HW150344   3.388   2.075   2.727
82835SOL    HW250345   3.356   1.945   2.799
82836SOL     OW50346  13.112  13.829   4.160
82836SOL    HW150347  13.100  13.916   4.199
82836SOL    HW250348  13.070  13.769   4.222
82837SOL     OW50349  12.088   9.418   3.244
82837SOL    HW150350  12.152   9.436   3.313
82837SOL    HW250351  12.023   9.361   3.286
82838SOL     OW50352   8.421  13.641   2.511
82838SOL    HW150353   8.464  13.573   2.563
82838SOL    HW250354   8.453  13.626   2.422
82839SOL     OW50355   9.094  14.315   1.834
82839SOL    HW150356   9.163  14.249   1.823
82839SOL    HW250357   9.119  14.385   1.775
82840SOL     OW50358  11.195   1.841   8.419
82840SOL    HW150359  11.218   1.750   8.441
82840SOL    HW250360  11.191   1.843   8.324
82841SOL     OW50361   9.735   9.713  13.486
82841SOL    HW150362   9.792   9.749  13.417
82841SOL    HW250363   9.670   9.662  13.439
82842SOL     OW50364   5.474   9.359   0.789
82842SOL    HW150365   5.451   9.445   0.822
82842SOL    HW250366   5.391   9.323   0.756
82843SOL     OW50367   2.108  10.477  12.684
82843SOL    HW150368   2.193  10.486  12.640
82843SOL    HW250369   2.112  10.542  12.755
82844SOL     OW50370   0.551   0.703   5.851
82844SOL    HW150371   0.540   0.609   5.835
82844SOL    HW250372   0.639   0.723   5.819
82845SOL     OW50373  10.025   9.702   7.709
82845SOL    HW150374   9.958   9.670   7.649
82845SOL    HW250375  10.108   9.684   7.665
82846SOL     OW50376  13.231  10.197  12.374
82846SOL    HW150377  13.171  10.176  12.302
82846SOL    HW250378  13.218  10.126  12.437
82847SOL     OW50379  13.376   8.304   0.048
82847SOL    HW150380  13.419   8.380   0.086
82847SOL    HW250381  13.363   8.244   0.122
82848SOL     OW50382  14.245   9.064   0.977
82848SOL    HW150383  14.214   9.132   1.037
82848SOL    HW250384  14.175   9.055   0.913
82849SOL     OW50385   1.931   0.469   7.351
82849SOL    HW150386   1.994   0.509   7.291
82849SOL    HW250387   1.894   0.396   7.301
82850SOL     OW50388  14.604   4.185   5.363
82850SOL    HW150389  14.594   4.119   5.432
82850SOL    HW250390  14.669   4.147   5.304
82851SOL     OW50391   0.319  12.308   5.614
82851SOL    HW150392   0.315  12.298   5.709
82851SOL    HW250393   0.407  12.280   5.590
82852SOL     OW50394  10.843   6.192  10.370
82852SOL    HW150395  10.824   6.193  10.276
82852SOL    HW250396  10.863   6.101  10.390
82853SOL     OW50397   4.304  14.054   6.873
82853SOL    HW150398   4.241  13.989   6.904
82853SOL    HW250399   4.260  14.138   6.887
82854SOL     OW50400   8.981   7.890   5.516
82854SOL    HW150401   8.967   7.981   5.492
82854SOL    HW250402   8.997   7.893   5.611
82855SOL     OW50403  12.101  14.267   1.806
82855SOL    HW150404  12.191  14.296   1.790
82855SOL    HW250405  12.079  14.217   1.727
82856SOL     OW50406   5.890  11.411   3.554
82856SOL    HW150407   5.817  11.368   3.599
82856SOL    HW250408   5.875  11.504   3.567
82857SOL     OW50409   0.372  11.465  13.648
82857SOL    HW150410   0.466  11.457  13.636
82857SOL    HW250411   0.358  11.442  13.740
82858SOL     OW50412   7.067   0.749   8.136
82858SOL    HW150413   7.088   0.674   8.192
82858SOL    HW250414   7.043   0.710   8.052
82859SOL     OW50415   8.239   6.586   0.563
82859SOL    HW150416   8.281   6.508   0.599
82859SOL    HW250417   8.247   6.576   0.468
82860SOL     OW50418   8.157   5.462   2.820
82860SOL    HW150419   8.066   5.438   2.803
82860SOL    HW250420   8.152   5.549   2.859
82861SOL     OW50421   2.143   0.835   6.439
82861SOL    HW150422   2.218   0.876   6.483
82861SOL    HW250423   2.125   0.757   6.491
82862SOL     OW50424   7.528  12.895   2.669
82862SOL    HW150425   7.574  12.812   2.665
82862SOL    HW250426   7.448  12.881   2.618
82863SOL     OW50427  12.358   6.152   0.421
82863SOL    HW150428  12.428   6.214   0.443
82863SOL    HW250429  12.379   6.073   0.471
82864SOL     OW50430  13.892   1.395   6.212
82864SOL    HW150431  13.891   1.436   6.298
82864SOL    HW250432  13.935   1.459   6.155
82865SOL     OW50433   0.261   4.292   4.560
82865SOL    HW150434   0.319   4.221   4.587
82865SOL    HW250435   0.199   4.301   4.633
82866SOL     OW50436   7.198  10.540  13.514
82866SOL    HW150437   7.274  10.563  13.459
82866SOL    HW250438   7.196  10.444  13.513
82867SOL     OW50439  11.798   4.675   4.283
82867SOL    HW150440  11.868   4.686   4.219
82867SOL    HW250441  11.718   4.669   4.230
82868SOL     OW50442   2.336  14.810   9.913
82868SOL    HW150443   2.269  14.859   9.865
82868SOL    HW250444   2.406  14.795   9.849
82869SOL     OW50445   2.476   7.564   7.298
82869SOL    HW150446   2.540   7.596   7.361
82869SOL    HW250447   2.487   7.469   7.298
82870SOL     OW50448   0.290  12.660   4.462
82870SOL    HW150449   0.333  12.737   4.499
82870SOL    HW250450   0.233  12.629   4.531
82871SOL     OW50451   6.473   9.399   9.957
82871SOL    HW150452   6.543   9.358   9.905
82871SOL    HW250453   6.471   9.490   9.925
82872SOL     OW50454  13.113   1.732  11.916
82872SOL    HW150455  13.050   1.677  11.870
82872SOL    HW250456  13.064   1.767  11.991
82873SOL     OW50457  12.721  12.860  14.296
82873SOL    HW150458  12.769  12.922  14.351
82873SOL    HW250459  12.739  12.774  14.335
82874SOL     OW50460   9.383  12.960   0.530
82874SOL    HW150461   9.387  12.904   0.453
82874SOL    HW250462   9.309  12.927   0.581
82875SOL     OW50463   3.327  11.147   6.271
82875SOL    HW150464   3.361  11.185   6.189
82875SOL    HW250465   3.403  11.140   6.328
82876SOL     OW50466   4.228   2.377   6.990
82876SOL    HW150467   4.304   2.330   6.955
82876SOL    HW250468   4.221   2.347   7.080
82877SOL     OW50469   8.966  10.349   3.795
82877SOL    HW150470   8.906  10.406   3.843
82877SOL    HW250471   8.912  10.275   3.766
82878SOL     OW50472  12.860   0.855   4.102
82878SOL    HW150473  12.921   0.907   4.050
82878SOL    HW250474  12.883   0.764   4.085
82879SOL     OW50475  12.028   0.083   4.936
82879SOL    HW150476  12.080   0.003   4.935
82879SOL    HW250477  12.083   0.148   4.893
82880SOL     OW50478  10.844   1.741  10.252
82880SOL    HW150479  10.824   1.782  10.168
82880SOL    HW250480  10.843   1.813  10.315
82881SOL     OW50481   1.710   6.551   1.097
82881SOL    HW150482   1.768   6.555   1.022
82881SOL    HW250483   1.622   6.539   1.060
82882SOL     OW50484   3.858  13.082   6.886
82882SOL    HW150485   3.951  13.063   6.900
82882SOL    HW250486   3.832  13.021   6.817
82883SOL     OW50487  10.080   9.945   5.231
82883SOL    HW150488  10.091   9.881   5.161
82883SOL    HW250489  10.163   9.945   5.278
82884SOL     OW50490   7.998   4.643  12.778
82884SOL    HW150491   7.946   4.662  12.700
82884SOL    HW250492   8.088   4.662  12.752
82885SOL     OW50493   0.961   8.795   4.575
82885SOL    HW150494   0.983   8.711   4.532
82885SOL    HW250495   1.024   8.857   4.539
82886SOL     OW50496   5.945   9.385  14.613
82886SOL    HW150497   5.924   9.351  14.700
82886SOL    HW250498   5.989   9.468  14.629
82887SOL     OW50499   2.854  14.402  11.725
82887SOL    HW150500   2.831  14.332  11.786
82887SOL    HW250501   2.826  14.370  11.639
82888SOL     OW50502   9.135   5.989   1.344
82888SOL    HW150503   9.117   6.057   1.409
82888SOL    HW250504   9.096   5.910   1.380
82889SOL     OW50505   0.600   7.368   6.083
82889SOL    HW150506   0.662   7.352   6.155
82889SOL    HW250507   0.514   7.354   6.122
82890SOL     OW50508  12.397   6.968   9.562
82890SOL    HW150509  12.450   6.910   9.507
82890SOL    HW250510  12.368   7.038   9.503
82891SOL     OW50511   1.747   4.886   5.630
82891SOL    HW150512   1.728   4.977   5.605
82891SOL    HW250513   1.840   4.887   5.654
82892SOL     OW50514  12.036   1.420  11.040
82892SOL    HW150515  12.118   1.447  10.999
82892SOL    HW250516  12.061   1.395  11.129
82893SOL     OW50517   4.767   5.428   7.324
82893SOL    HW150518   4.748   5.459   7.412
82893SOL    HW250519   4.730   5.339   7.321
82894SOL     OW50520  13.962   4.916   5.394
82894SOL    HW150521  13.923   4.945   5.312
82894SOL    HW250522  14.005   4.993   5.430
82895SOL     OW50523   2.993   8.052   6.363
82895SOL    HW150524   2.934   8.084   6.295
82895SOL    HW250525   2.968   7.961   6.376
82896SOL     OW50526   3.223  10.469  12.229
82896SOL    HW150527   3.193  10.437  12.314
82896SOL    HW250528   3.169  10.422  12.165
82897SOL     OW50529  10.514  11.697  10.797
82897SOL    HW150530  10.587  11.653  10.840
82897SOL    HW250531  10.492  11.639  10.723
82898SOL     OW50532   5.450   1.546   0.588
82898SOL    HW150533   5.529   1.522   0.636
82898SOL    HW250534   5.471   1.529   0.496
82899SOL     OW50535   9.617  11.120   1.426
82899SOL    HW150536   9.541  11.092   1.477
82899SOL    HW250537   9.622  11.059   1.353
82900SOL     OW50538  14.701   4.846   5.459
82900SOL    HW150539  14.749   4.771   5.423
82900SOL    HW250540  14.768   4.909   5.483
82901SOL     OW50541   9.902   7.861   4.174
82901SOL    HW150542   9.814   7.827   4.191
82901SOL    HW250543   9.933   7.811   4.099
82902SOL     OW50544   8.632  14.772  11.815
82902SOL    HW150545   8.714  14.727  11.832
82902SOL    HW250546   8.602  14.803  11.901
82903SOL     OW50547   4.962  12.861  12.613
82903SOL    HW150548   4.989  12.882  12.702
82903SOL    HW250549   4.953  12.766  12.613
82904SOL     OW50550   2.067   5.831  14.047
82904SOL    HW150551   1.990   5.857  14.098
82904SOL    HW250552   2.099   5.753  14.091
82905SOL     OW50553   4.823   0.939  13.416
82905SOL    HW150554   4.893   0.916  13.477
82905SOL    HW250555   4.851   1.022  13.377
82906SOL     OW50556  13.448   4.544  11.736
82906SOL    HW150557  13.457   4.494  11.817
82906SOL    HW250558  13.381   4.608  11.755
82907SOL     OW50559   8.852   4.922   3.641
82907SOL    HW150560   8.780   4.897   3.699
82907SOL    HW250561   8.811   4.977   3.574
82908SOL     OW50562  12.609   9.497  10.214
82908SOL    HW150563  12.622   9.581  10.257
82908SOL    HW250564  12.670   9.498  10.141
82909SOL     OW50565   7.037   0.962   5.650
82909SOL    HW150566   7.120   1.009   5.657
82909SOL    HW250567   6.971   1.031   5.643
82910SOL     OW50568  11.076   7.191  11.136
82910SOL    HW150569  11.150   7.184  11.076
82910SOL    HW250570  11.004   7.224  11.081
82911SOL     OW50571  11.791   6.412  14.241
82911SOL    HW150572  11.838   6.355  14.301
82911SOL    HW250573  11.698   6.397  14.261
82912SOL     OW50574   1.483   0.746  13.891
82912SOL    HW150575   1.533   0.821  13.858
82912SOL    HW250576   1.444   0.777  13.973
82913SOL     OW50577   1.250   8.731   4.067
82913SOL    HW150578   1.191   8.693   4.002
82913SOL    HW250579   1.320   8.667   4.077
82914SOL     OW50580   8.431  11.663  14.526
82914SOL    HW150581   8.507  11.722  14.527
82914SOL    HW250582   8.388  11.679  14.610
82915SOL     OW50583   1.924   1.808  14.374
82915SOL    HW150584   2.012   1.808  14.413
82915SOL    HW250585   1.879   1.880  14.419
82916SOL     OW50586   6.404   9.444   3.543
82916SOL    HW150587   6.484   9.396   3.563
82916SOL    HW250588   6.395   9.438   3.448
82917SOL     OW50589  14.444  12.871   3.105
82917SOL    HW150590  14.515  12.841   3.049
82917SOL    HW250591  14.393  12.931   3.050
82918SOL     OW50592   7.015  13.399   8.985
82918SOL    HW150593   7.025  13.494   8.987
82918SOL    HW250594   6.922  13.384   8.968
82919SOL     OW50595  12.842   7.021   2.237
82919SOL    HW150596  12.906   6.983   2.176
82919SOL    HW250597  12.759   7.015   2.191
82920SOL     OW50598   5.309  12.217   9.213
82920SOL    HW150599   5.285  12.128   9.189
82920SOL    HW250600   5.296  12.221   9.308
82921SOL     OW50601  14.093  13.895  14.851
82921SOL    HW150602  14.018  13.944  14.817
82921SOL    HW250603  14.107  13.826  14.786
82922SOL     OW50604   3.099   8.741   1.390
82922SOL    HW150605   3.066   8.761   1.302
82922SOL    HW250606   3.035   8.780   1.449
82923SOL     OW50607   8.406   0.365   7.638
82923SOL    HW150608   8.414   0.270   7.645
82923SOL    HW250609   8.396   0.381   7.544
82924SOL     OW50610   9.506   8.635  13.252
82924SOL    HW150611   9.454   8.595  13.183
82924SOL    HW250612   9.446   8.698  13.293
82925SOL     OW50613   5.671  11.885   3.672
82925SOL    HW150614   5.688  11.876   3.766
82925SOL    HW250615   5.716  11.966   3.648
82926SOL     OW50616   8.502  13.759   9.814
82926SOL    HW150617   8.496  13.845   9.773
82926SOL    HW250618   8.490  13.697   9.742
82927SOL     OW50619   2.571  13.477   3.580
82927SOL    HW150620   2.617  13.412   3.526
82927SOL    HW250621   2.536  13.427   3.653
82928SOL     OW50622   0.705  11.080   8.624
82928SOL    HW150623   0.674  11.117   8.706
82928SOL    HW250624   0.681  11.144   8.558
82929SOL     OW50625   8.228  13.459  10.989
82929SOL    HW150626   8.256  13.399  10.919
82929SOL    HW250627   8.155  13.508  10.951
82930SOL     OW50628   3.569   6.480  10.616
82930SOL    HW150629   3.620   6.460  10.694
82930SOL    HW250630   3.584   6.406  10.557
82931SOL     OW50631   0.446   5.531  12.808
82931SOL    HW150632   0.424   5.465  12.742
82931SOL    HW250633   0.541   5.523  12.819
82932SOL     OW50634  10.031  13.363  14.204
82932SOL    HW150635  10.042  13.429  14.136
82932SOL    HW250636  10.051  13.408  14.286
82933SOL     OW50637   3.046   1.709  13.530
82933SOL    HW150638   2.985   1.782  13.529
82933SOL    HW250639   3.035   1.666  13.445
82934SOL     OW50640   3.639   7.986   9.498
82934SOL    HW150641   3.582   8.031   9.436
82934SOL    HW250642   3.649   7.898   9.462
82935SOL     OW50643  12.050   7.403  12.599
82935SOL    HW150644  12.072   7.400  12.505
82935SOL    HW250645  11.957   7.424  12.601
82936SOL     OW50646   8.983   4.214   0.554
82936SOL    HW150647   8.928   4.226   0.631
82936SOL    HW250648   9.029   4.132   0.570
82937SOL     OW50649   8.642   6.320   3.069
82937SOL    HW150650   8.588   6.258   3.021
82937SOL    HW250651   8.723   6.325   3.019
82938SOL     OW50652   0.402   0.884   6.507
82938SOL    HW150653   0.401   0.963   6.561
82938SOL    HW250654   0.464   0.903   6.437
82939SOL     OW50655   3.712   0.438  14.554
82939SOL    HW150656   3.658   0.500  14.505
82939SOL    HW250657   3.688   0.454  14.646
82940SOL     OW50658  11.722   1.322  10.049
82940SOL    HW150659  11.690   1.264  10.118
82940SOL    HW250660  11.741   1.404  10.094
82941SOL     OW50661   5.742   1.253  10.764
82941SOL    HW150662   5.733   1.258  10.859
82941SOL    HW250663   5.783   1.336  10.740
82942SOL     OW50664  12.852   2.707  12.939
82942SOL    HW150665  12.804   2.790  12.941
82942SOL    HW250666  12.834   2.672  12.852
82943SOL     OW50667   1.109   8.553   7.587
82943SOL    HW150668   1.070   8.564   7.500
82943SOL    HW250669   1.191   8.505   7.571
82944SOL     OW50670   7.888   5.264   6.275
82944SOL    HW150671   7.975   5.252   6.237
82944SOL    HW250672   7.827   5.231   6.208
82945SOL     OW50673   6.678   8.384  10.542
82945SOL    HW150674   6.720   8.328  10.607
82945SOL    HW250675   6.749   8.408  10.482
82946SOL     OW50676   9.586   2.550   6.972
82946SOL    HW150677   9.552   2.624   6.922
82946SOL    HW250678   9.526   2.541   7.046
82947SOL     OW50679   3.227  14.871   4.524
82947SOL    HW150680   3.136  14.864   4.552
82947SOL    HW250681   3.278  14.840   4.598
82948SOL     OW50682  10.690  13.312   6.159
82948SOL    HW150683  10.649  13.391   6.194
82948SOL    HW250684  10.629  13.282   6.091
82949SOL     OW50685   2.757  13.708   9.606
82949SOL    HW150686   2.733  13.730   9.696
82949SOL    HW250687   2.852  13.697   9.608
82950SOL     OW50688   8.175   5.644   6.552
82950SOL    HW150689   8.197   5.702   6.479
82950SOL    HW250690   8.080   5.646   6.557
82951SOL     OW50691  14.107  11.347  11.023
82951SOL    HW150692  14.175  11.305  10.971
82951SOL    HW250693  14.033  11.356  10.964
82952SOL     OW50694  10.377   3.785   7.569
82952SOL    HW150695  10.432   3.713   7.541
82952SOL    HW250696  10.439   3.852   7.600
82953SOL     OW50697   8.041  12.659   0.691
82953SOL    HW150698   8.071  12.677   0.602
82953SOL    HW250699   7.946  12.667   0.686
82954SOL     OW50700   4.059   8.384   8.791
82954SOL    HW150701   4.134   8.329   8.767
82954SOL    HW250702   3.984   8.340   8.751
82955SOL     OW50703   0.777   0.555   6.021
82955SOL    HW150704   0.733   0.525   5.941
82955SOL    HW250705   0.839   0.621   5.991
82956SOL     OW50706   5.990  10.627   0.737
82956SOL    HW150707   5.960  10.650   0.825
82956SOL    HW250708   6.066  10.571   0.752
82957SOL     OW50709   4.349   2.996  10.894
82957SOL    HW150710   4.333   2.907  10.865
82957SOL    HW250711   4.354   3.047  10.813
82958SOL     OW50712   3.573   5.387   8.654
82958SOL    HW150713   3.522   5.378   8.734
82958SOL    HW250714   3.596   5.298   8.630
82959SOL     OW50715   4.430  11.796   2.582
82959SOL    HW150716   4.498  11.751   2.532
82959SOL    HW250717   4.466  11.804   2.670
82960SOL     OW50718  10.166  11.887   4.009
82960SOL    HW150719  10.154  11.795   4.029
82960SOL    HW250720  10.108  11.904   3.935
82961SOL     OW50721   5.884  12.281   0.388
82961SOL    HW150722   5.829  12.223   0.335
82961SOL    HW250723   5.877  12.245   0.477
82962SOL     OW50724   1.217   3.955  10.252
82962SOL    HW150725   1.177   4.036  10.284
82962SOL    HW250726   1.195   3.889  10.318
82963SOL     OW50727  10.880   5.123   3.492
82963SOL    HW150728  10.894   5.176   3.570
82963SOL    HW250729  10.838   5.043   3.525
82964SOL     OW50730   6.392  13.657  11.586
82964SOL    HW150731   6.391  13.674  11.491
82964SOL    HW250732   6.414  13.742  11.625
82965SOL     OW50733   2.199   0.547   2.953
82965SOL    HW150734   2.152   0.465   2.966
82965SOL    HW250735   2.136   0.615   2.978
82966SOL     OW50736   0.710   5.322   5.134
82966SOL    HW150737   0.632   5.374   5.150
82966SOL    HW250738   0.677   5.237   5.105
82967SOL     OW50739   5.744   1.103   4.497
82967SOL    HW150740   5.763   1.016   4.463
82967SOL    HW250741   5.768   1.163   4.426
82968SOL     OW50742   9.608   9.903   4.291
82968SOL    HW150743   9.549   9.951   4.349
82968SOL    HW250744   9.569   9.912   4.204
82969SOL     OW50745   3.697  11.561   0.782
82969SOL    HW150746   3.702  11.546   0.877
82969SOL    HW250747   3.609  11.532   0.758
82970SOL     OW50748   1.689  13.215  12.648
82970SOL    HW150749   1.748  13.250  12.581
82970SOL    HW250750   1.727  13.245  12.731
82971SOL     OW50751   0.393   5.952   3.981
82971SOL    HW150752   0.332   5.912   3.920
82971SOL    HW250753   0.480   5.930   3.946
82972SOL     OW50754   0.766   6.395   8.487
82972SOL    HW150755   0.832   6.333   8.456
82972SOL    HW250756   0.691   6.341   8.512
82973SOL     OW50757   2.020   2.047   9.016
82973SOL    HW150758   2.012   2.139   9.041
82973SOL    HW250759   2.018   1.999   9.099
82974SOL     OW50760   1.963   3.068  10.970
82974SOL    HW150761   1.889   3.089  10.912
82974SOL    HW250762   1.991   3.153  11.003
82975SOL     OW50763  14.123   3.348   7.020
82975SOL    HW150764  14.132   3.342   6.925
82975SOL    HW250765  14.038   3.309   7.038
82976SOL     OW50766   6.506   9.230   6.988
82976SOL    HW150767   6.500   9.148   6.940
82976SOL    HW250768   6.590   9.225   7.034
82977SOL     OW50769  10.842  12.315   6.105
82977SOL    HW150770  10.765  12.370   6.094
82977SOL    HW250771  10.915  12.369   6.074
82978SOL     OW50772   3.732   2.249   6.327
82978SOL    HW150773   3.785   2.300   6.265
82978SOL    HW250774   3.690   2.316   6.382
82979SOL     OW50775   2.949   2.860  13.613
82979SOL    HW150776   2.864   2.830  13.579
82979SOL    HW250777   2.932   2.950  13.643
82980SOL     OW50778   4.917   9.925  12.609
82980SOL    HW150779   4.995   9.970  12.640
82980SOL    HW250780   4.943   9.833  12.602
82981SOL     OW50781   3.040   7.977   5.948
82981SOL    HW150782   3.086   7.905   5.991
82981SOL    HW250783   3.077   7.980   5.859
82982SOL     OW50784   6.487   0.308   0.318
82982SOL    HW150785   6.519   0.278   0.233
82982SOL    HW250786   6.433   0.385   0.298
82983SOL     OW50787  14.008  11.621   9.758
82983SOL    HW150788  14.005  11.533   9.720
82983SOL    HW250789  13.986  11.608   9.850
82984SOL     OW50790   3.148  13.943  11.223
82984SOL    HW150791   3.163  13.874  11.159
82984SOL    HW250792   3.167  13.902  11.308
82985SOL     OW50793  13.836  10.855  12.036
82985SOL    HW150794  13.777  10.866  11.961
82985SOL    HW250795  13.777  10.838  12.110
82986SOL     OW50796  12.081   5.247   5.959
82986SOL    HW150797  12.119   5.335   5.949
82986SOL    HW250798  12.155   5.191   5.980
82987SOL     OW50799  10.390   2.469  13.321
82987SOL    HW150800  10.357   2.416  13.394
82987SOL    HW250801  10.407   2.555  13.360
82988SOL     OW50802   5.426   9.116   5.306
82988SOL    HW150803   5.521   9.131   5.305
82988SOL    HW250804   5.416   9.032   5.351
82989SOL     OW50805   9.628   0.492   5.491
82989SOL    HW150806   9.683   0.477   5.567
82989SOL    HW250807   9.607   0.585   5.494
82990SOL     OW50808   2.194  13.096   7.542
82990SOL    HW150809   2.118  13.062   7.495
82990SOL    HW250810   2.181  13.191   7.544
82991SOL     OW50811   3.651   9.541   6.481
82991SOL    HW150812   3.598   9.558   6.559
82991SOL    HW250813   3.716   9.612   6.481
82992SOL     OW50814  12.065   7.161   3.771
82992SOL    HW150815  11.993   7.187   3.828
82992SOL    HW250816  12.049   7.206   3.688
82993SOL     OW50817  13.857  10.582  14.105
82993SOL    HW150818  13.818  10.635  14.174
82993SOL    HW250819  13.858  10.640  14.028
82994SOL     OW50820  10.089   8.735   8.436
82994SOL    HW150821  10.140   8.754   8.357
82994SOL    HW250822  10.052   8.648   8.420
82995SOL     OW50823  10.920   1.863   8.473
82995SOL    HW150824  10.876   1.787   8.435
82995SOL    HW250825  11.007   1.862   8.435
82996SOL     OW50826   8.389   7.614   6.206
82996SOL    HW150827   8.414   7.523   6.221
82996SOL    HW250828   8.461   7.665   6.244
82997SOL     OW50829  12.427   4.566   2.418
82997SOL    HW150830  12.393   4.606   2.338
82997SOL    HW250831  12.507   4.522   2.391
82998SOL     OW50832   9.361   4.126   3.038
82998SOL    HW150833   9.424   4.157   3.103
82998SOL    HW250834   9.332   4.041   3.071
82999SOL     OW50835  11.616  12.045  10.769
82999SOL    HW150836  11.622  12.024  10.862
82999SOL    HW250837  11.616  12.141  10.767
83000SOL     OW50838  13.105   1.806   4.416
83000SOL    HW150839  13.050   1.761   4.481
83000SOL    HW250840  13.188   1.758   4.418
83001SOL     OW50841   4.646   5.026  10.538
83001SOL    HW150842   4.614   4.936  10.531
83001SOL    HW250843   4.740   5.019  10.526
83002SOL     OW50844   3.976   1.527   2.526
83002SOL    HW150845   3.899   1.492   2.570
83002SOL    HW250846   4.037   1.454   2.522
83003SOL     OW50847   4.405  10.872   7.318
83003SOL    HW150848   4.321  10.916   7.331
83003SOL    HW250849   4.390  10.814   7.243
83004SOL     OW50850   4.063  14.800  14.478
83004SOL    HW150851   4.084  14.708  14.462
83004SOL    HW250852   4.091  14.846  14.399
83005SOL     OW50853  12.294   2.702   2.347
83005SOL    HW150854  12.334   2.687   2.433
83005SOL    HW250855  12.367   2.698   2.286
83006SOL     OW50856   6.818   9.604   4.912
83006SOL    HW150857   6.738   9.565   4.876
83006SOL    HW250858   6.814   9.585   5.006
83007SOL     OW50859   0.139   8.134   7.673
83007SOL    HW150860   0.086   8.087   7.609
83007SOL    HW250861   0.173   8.210   7.625
83008SOL     OW50862   5.934  10.421  12.725
83008SOL    HW150863   5.952  10.394  12.815
83008SOL    HW250864   5.860  10.367  12.698
83009SOL     OW50865   3.650   5.397  14.279
83009SOL    HW150866   3.672   5.448  14.201
83009SOL    HW250867   3.566   5.357  14.258
83010SOL     OW50868   9.834   0.080   6.130
83010SOL    HW150869   9.869   0.164   6.101
83010SOL    HW250870   9.901   0.016   6.107
83011SOL     OW50871   8.599  10.774   8.362
83011SOL    HW150872   8.540  10.813   8.297
83011SOL    HW250873   8.661  10.843   8.383
83012SOL     OW50874   3.106  12.096   4.306
83012SOL    HW150875   3.076  12.142   4.227
83012SOL    HW250876   3.043  12.119   4.373
83013SOL     OW50877   8.169   4.997   9.199
83013SOL    HW150878   8.229   4.965   9.132
83013SOL    HW250879   8.101   4.930   9.205
83014SOL     OW50880   5.406   2.772  14.619
83014SOL    HW150881   5.452   2.768  14.703
83014SOL    HW250882   5.315   2.790  14.642
83015SOL     OW50883   4.872   3.061   9.225
83015SOL    HW150884   4.865   3.044   9.131
83015SOL    HW250885   4.782   3.059   9.257
83016SOL     OW50886   6.121  10.449   8.991
83016SOL    HW150887   6.035  10.406   8.985
83016SOL    HW250888   6.102  10.541   8.971
83017SOL     OW50889   5.898  11.682   0.244
83017SOL    HW150890   5.811  11.720   0.232
83017SOL    HW250891   5.957  11.758   0.241
83018SOL     OW50892   7.324   4.239   6.330
83018SOL    HW150893   7.285   4.297   6.395
83018SOL    HW250894   7.409   4.279   6.310
83019SOL     OW50895   3.344   2.476  11.625
83019SOL    HW150896   3.280   2.488  11.555
83019SOL    HW250897   3.360   2.382  11.627
83020SOL     OW50898   1.928   5.515  13.026
83020SOL    HW150899   1.841   5.554  13.021
83020SOL    HW250900   1.929   5.447  12.959
83021SOL     OW50901   3.881  11.635   1.390
83021SOL    HW150902   3.858  11.721   1.357
83021SOL    HW250903   3.924  11.652   1.474
83022SOL     OW50904   6.775   3.632   3.788
83022SOL    HW150905   6.790   3.613   3.695
83022SOL    HW250906   6.860   3.661   3.821
83023SOL     OW50907  14.096  14.291   0.580
83023SOL    HW150908  14.098  14.209   0.531
83023SOL    HW250909  14.179  14.334   0.559
83024SOL     OW50910   9.753  14.073   5.671
83024SOL    HW150911   9.844  14.058   5.695
83024SOL    HW250912   9.703  14.017   5.731
83025SOL     OW50913   7.617   6.654   0.080
83025SOL    HW150914   7.658   6.570   0.102
83025SOL    HW250915   7.631   6.663  14.862
83026SOL     OW50916   9.300  14.160   0.577
83026SOL    HW150917   9.253  14.082   0.546
83026SOL    HW250918   9.287  14.225   0.508
83027SOL     OW50919   7.496  10.752  14.166
83027SOL    HW150920   7.446  10.687  14.215
83027SOL    HW250921   7.439  10.775  14.092
83028SOL     OW50922   5.035  14.486   7.791
83028SOL    HW150923   5.024  14.581   7.799
83028SOL    HW250924   5.013  14.452   7.877
83029SOL     OW50925   3.253   2.427   9.554
83029SOL    HW150926   3.311   2.430   9.630
83029SOL    HW250927   3.190   2.357   9.575
83030SOL     OW50928  12.929   1.838   9.746
83030SOL    HW150929  12.873   1.769   9.781
83030SOL    HW250930  13.017   1.816   9.778
83031SOL     OW50931   8.775   1.467   2.929
83031SOL    HW150932   8.825   1.547   2.945
83031SOL    HW250933   8.688   1.498   2.902
83032SOL     OW50934   3.700   2.008  10.865
83032SOL    HW150935   3.717   2.077  10.929
83032SOL    HW250936   3.733   2.043  10.782
83033SOL     OW50937   7.225   3.832   2.851
83033SOL    HW150938   7.282   3.761   2.823
83033SOL    HW250939   7.178   3.858   2.772
83034SOL     OW50940   2.713   1.247   9.848
83034SOL    HW150941   2.626   1.219   9.818
83034SOL    HW250942   2.703   1.340   9.869
83035SOL     OW50943  10.665   0.182   2.581
83035SOL    HW150944  10.596   0.186   2.648
83035SOL    HW250945  10.641   0.250   2.518
83036SOL     OW50946   7.151   5.201  11.795
83036SOL    HW150947   7.184   5.200  11.885
83036SOL    HW250948   7.175   5.287  11.762
83037SOL     OW50949  12.059   0.164  13.869
83037SOL    HW150950  12.043   0.257  13.852
83037SOL    HW250951  11.971   0.128  13.886
83038SOL     OW50952   1.145   4.961   6.514
83038SOL    HW150953   1.050   4.951   6.502
83038SOL    HW250954   1.182   4.880   6.479
83039SOL     OW50955   3.157   8.462   4.067
83039SOL    HW150956   3.083   8.477   4.008
83039SOL    HW250957   3.138   8.516   4.143
83040SOL     OW50958   4.800  10.462  14.546
83040SOL    HW150959   4.797  10.423  14.458
83040SOL    HW250960   4.709  10.478  14.569
83041SOL     OW50961   8.574   6.732   6.916
83041SOL    HW150962   8.631   6.778   6.854
83041SOL    HW250963   8.505   6.694   6.861
83042SOL     OW50964  10.541  11.197   8.473
83042SOL    HW150965  10.614  11.218   8.415
83042SOL    HW250966  10.463  11.209   8.418
83043SOL     OW50967   6.919   2.005   2.963
83043SOL    HW150968   7.008   1.984   2.992
83043SOL    HW250969   6.883   2.059   3.033
83044SOL     OW50970   5.138   4.380   0.181
83044SOL    HW150971   5.084   4.443   0.132
83044SOL    HW250972   5.227   4.395   0.149
83045SOL     OW50973  11.665   8.173  14.370
83045SOL    HW150974  11.636   8.103  14.427
83045SOL    HW250975  11.751   8.144  14.338
83046SOL     OW50976   5.331  14.539   7.396
83046SOL    HW150977   5.385  14.531   7.475
83046SOL    HW250978   5.241  14.540   7.428
83047SOL     OW50979  11.969   3.251   0.407
83047SOL    HW150980  11.997   3.194   0.335
83047SOL    HW250981  11.885   3.215   0.434
83048SOL     OW50982   1.501  12.870  10.578
83048SOL    HW150983   1.557  12.800  10.542
83048SOL    HW250984   1.414  12.850  10.544
83049SOL     OW50985  11.147  11.910   5.702
83049SOL    HW150986  11.207  11.910   5.776
83049SOL    HW250987  11.116  12.000   5.696
83050SOL     OW50988   9.243  10.432   9.487
83050SOL    HW150989   9.251  10.508   9.431
83050SOL    HW250990   9.220  10.360   9.428
83051SOL     OW50991  12.434   6.537   3.598
83051SOL    HW150992  12.427   6.591   3.677
83051SOL    HW250993  12.466   6.597   3.530
83052SOL     OW50994   9.063  11.155   0.961
83052SOL    HW150995   8.976  11.196   0.965
83052SOL    HW250996   9.045  11.062   0.948
83053SOL     OW50997   2.848  14.472  13.282
83053SOL    HW150998   2.839  14.546  13.223
83053SOL    HW250999   2.761  14.432  13.285
83054SOL     OW51000   5.367   9.610   0.897
83054SOL    HW151001   5.367   9.699   0.932
83054SOL    HW251002   5.297   9.610   0.832
83055SOL     OW51003  13.789  12.678   2.056
83055SOL    HW151004  13.747  12.634   1.982
83055SOL    HW251005  13.880  12.648   2.053
83056SOL     OW51006  11.805   5.685   9.391
83056SOL    HW151007  11.810   5.703   9.485
83056SOL    HW251008  11.861   5.608   9.379
83057SOL     OW51009  13.252  14.308  13.055
83057SOL    HW151010  13.194  14.372  13.014
83057SOL    HW251011  13.307  14.359  13.114
83058SOL     OW51012  11.158   5.237   0.811
83058SOL    HW151013  11.100   5.161   0.812
83058SOL    HW251014  11.238   5.206   0.770
83059SOL     OW51015  11.621   4.717  13.665
83059SOL    HW151016  11.661   4.658  13.600
83059SOL    HW251017  11.570   4.659  13.721
83060SOL     OW51018   3.422   2.678   6.075
83060SOL    HW151019   3.341   2.715   6.110
83060SOL    HW251020   3.491   2.731   6.116
83061SOL     OW51021  10.452  11.183   1.570
83061SOL    HW151022  10.484  11.110   1.623
83061SOL    HW251023  10.504  11.258   1.599
83062SOL     OW51024   4.331   2.269  10.624
83062SOL    HW151025   4.368   2.278  10.712
83062SOL    HW251026   4.242   2.302  10.632
83063SOL     OW51027  12.618   2.745   0.640
83063SOL    HW151028  12.593   2.749   0.547
83063SOL    HW251029  12.669   2.664   0.647
83064SOL     OW51030   5.416   8.559  13.078
83064SOL    HW151031   5.498   8.512  13.063
83064SOL    HW251032   5.411   8.622  13.006
83065SOL     OW51033   9.582  14.470  13.876
83065SOL    HW151034   9.550  14.380  13.886
83065SOL    HW251035   9.516  14.525  13.917
83066SOL     OW51036  11.824  14.146   6.033
83066SOL    HW151037  11.863  14.059   6.041
83066SOL    HW251038  11.837  14.186   6.119
83067SOL     OW51039  14.430  11.969  11.315
83067SOL    HW151040  14.376  11.891  11.302
83067SOL    HW251041  14.413  11.996  11.405
83068SOL     OW51042  11.606   8.965   9.993
83068SOL    HW151043  11.598   8.877  10.030
83068SOL    HW251044  11.680   8.958   9.932
83069SOL     OW51045   8.835   7.282   4.398
83069SOL    HW151046   8.796   7.364   4.425
83069SOL    HW251047   8.833   7.227   4.477
83070SOL     OW51048  10.417   5.410  12.799
83070SOL    HW151049  10.451   5.402  12.888
83070SOL    HW251050  10.398   5.504  12.789
83071SOL     OW51051   2.273   8.135   8.432
83071SOL    HW151052   2.210   8.120   8.362
83071SOL    HW251053   2.273   8.230   8.445
83072SOL     OW51054   2.367   8.295  11.645
83072SOL    HW151055   2.282   8.319  11.684
83072SOL    HW251056   2.362   8.331  11.556
83073SOL     OW51057  11.414   0.385   0.513
83073SOL    HW151058  11.326   0.347   0.508
83073SOL    HW251059  11.472   0.315   0.486
83074SOL     OW51060   5.375   4.151   2.033
83074SOL    HW151061   5.430   4.193   1.966
83074SOL    HW251062   5.385   4.206   2.110
83075SOL     OW51063   6.638   0.401   1.085
83075SOL    HW151064   6.615   0.313   1.115
83075SOL    HW251065   6.586   0.414   1.006
83076SOL     OW51066   2.602   4.140   5.724
83076SOL    HW151067   2.549   4.219   5.721
83076SOL    HW251068   2.691   4.170   5.706
83077SOL     OW51069  12.287   6.057   4.471
83077SOL    HW151070  12.293   6.078   4.564
83077SOL    HW251071  12.350   6.116   4.428
83078SOL     OW51072  14.824   4.269   3.697
83078SOL    HW151073  14.792   4.359   3.707
83078SOL    HW251074  14.856   4.245   3.784
83079SOL     OW51075   2.760   5.986  10.250
83079SOL    HW151076   2.703   5.920  10.289
83079SOL    HW251077   2.776   6.048  10.321
83080SOL     OW51078   4.348   9.150   4.429
83080SOL    HW151079   4.290   9.197   4.371
83080SOL    HW251080   4.290   9.105   4.490
83081SOL     OW51081   5.967   4.442   1.495
83081SOL    HW151082   6.053   4.479   1.513
83081SOL    HW251083   5.906   4.514   1.511
83082SOL     OW51084  12.343   7.639   0.507
83082SOL    HW151085  12.411   7.677   0.562
83082SOL    HW251086  12.275   7.706   0.502
83083SOL     OW51087   2.470  13.693  14.317
83083SOL    HW151088   2.444  13.702  14.408
83083SOL    HW251089   2.548  13.748  14.309
83084SOL     OW51090   9.365   4.169   0.300
83084SOL    HW151091   9.278   4.135   0.279
83084SOL    HW251092   9.419   4.091   0.312
83085SOL     OW51093  11.674  12.735  10.072
83085SOL    HW151094  11.640  12.692   9.994
83085SOL    HW251095  11.645  12.680  10.145
83086SOL     OW51096   3.521   3.693   4.038
83086SOL    HW151097   3.462   3.697   4.113
83086SOL    HW251098   3.605   3.663   4.074
83087SOL     OW51099   8.070  10.583   9.993
83087SOL    HW151100   8.074  10.666  10.040
83087SOL    HW251101   7.992  10.540  10.027
83088SOL     OW51102  13.442   8.345   0.945
83088SOL    HW151103  13.411   8.258   0.970
83088SOL    HW251104  13.406   8.404   1.012
83089SOL     OW51105  12.998   4.036   6.177
83089SOL    HW151106  12.970   4.103   6.240
83089SOL    HW251107  13.083   4.006   6.211
83090SOL     OW51108   3.334  13.805   4.906
83090SOL    HW151109   3.255  13.841   4.865
83090SOL    HW251110   3.321  13.821   5.000
83091SOL     OW51111  12.103   0.010  13.042
83091SOL    HW151112  12.138  14.801  13.015
83091SOL    HW251113  12.097   0.061  12.961
83092SOL     OW51114  10.105   2.467   4.439
83092SOL    HW151115  10.108   2.378   4.473
83092SOL    HW251116  10.196   2.495   4.436
83093SOL     OW51117   2.965  11.514  10.603
83093SOL    HW151118   2.989  11.485  10.514
83093SOL    HW251119   3.048  11.537  10.644
83094SOL     OW51120   3.138   7.904  11.082
83094SOL    HW151121   3.074   7.975  11.080
83094SOL    HW251122   3.118   7.856  11.162
83095SOL     OW51123  14.053   1.747   1.195
83095SOL    HW151124  13.991   1.812   1.228
83095SOL    HW251125  14.034   1.740   1.102
83096SOL     OW51126   4.242   2.869  14.773
83096SOL    HW151127   4.280   2.879  14.860
83096SOL    HW251128   4.298   2.921  14.716
83097SOL     OW51129  11.429   4.503   5.054
83097SOL    HW151130  11.452   4.589   5.020
83097SOL    HW251131  11.335   4.495   5.038
83098SOL     OW51132   0.223   2.230  10.503
83098SOL    HW151133   0.234   2.167  10.432
83098SOL    HW251134   0.305   2.279  10.506
83099SOL     OW51135   5.615   2.238   8.147
83099SOL    HW151136   5.533   2.203   8.113
83099SOL    HW251137   5.682   2.200   8.091
83100SOL     OW51138   6.336   7.613  13.140
83100SOL    HW151139   6.367   7.560  13.066
83100SOL    HW251140   6.416   7.639  13.186
83101SOL     OW51141   9.843   3.455   1.490
83101SOL    HW151142   9.926   3.501   1.473
83101SOL    HW251143   9.776   3.522   1.476
83102SOL     OW51144   5.810   9.958   7.509
83102SOL    HW151145   5.722   9.934   7.480
83102SOL    HW251146   5.840   9.883   7.560
83103SOL     OW51147  13.734   8.584  11.018
83103SOL    HW151148  13.707   8.599  11.109
83103SOL    HW251149  13.766   8.670  10.989
83104SOL     OW51150   6.892   3.643   2.092
83104SOL    HW151151   6.958   3.575   2.083
83104SOL    HW251152   6.900   3.694   2.011
83105SOL     OW51153  11.396   6.393   9.203
83105SOL    HW151154  11.305   6.397   9.175
83105SOL    HW251155  11.446   6.420   9.126
83106SOL     OW51156   9.348   4.422   3.649
83106SOL    HW151157   9.430   4.451   3.689
83106SOL    HW251158   9.284   4.490   3.673
83107SOL     OW51159   6.197  11.295   7.719
83107SOL    HW151160   6.168  11.232   7.786
83107SOL    HW251161   6.210  11.377   7.767
83108SOL     OW51162   4.792   7.511  11.720
83108SOL    HW151163   4.778   7.558  11.638
83108SOL    HW251164   4.839   7.573  11.776
83109SOL     OW51165  12.933   2.253   0.670
83109SOL    HW151166  12.916   2.328   0.727
83109SOL    HW251167  12.877   2.268   0.594
83110SOL     OW51168   4.472   5.664   0.534
83110SOL    HW151169   4.536   5.732   0.555
83110SOL    HW251170   4.409   5.708   0.475
83111SOL     OW51171  11.824   9.023   7.878
83111SOL    HW151172  11.798   8.951   7.935
83111SOL    HW251173  11.879   8.982   7.811
83112SOL     OW51174  11.082   7.948   6.397
83112SOL    HW151175  11.018   7.944   6.326
83112SOL    HW251176  11.158   7.992   6.358
83113SOL     OW51177  14.767   0.394   6.532
83113SOL    HW151178  14.854   0.435   6.533
83113SOL    HW251179  14.722   0.431   6.608
83114SOL     OW51180   9.888   0.028  10.550
83114SOL    HW151181   9.816  14.854  10.588
83114SOL    HW251182   9.925   0.076  10.624
83115SOL     OW51183   5.545   6.027   4.827
83115SOL    HW151184   5.503   6.114   4.828
83115SOL    HW251185   5.559   6.007   4.919
83116SOL     OW51186   5.088  10.099   8.138
83116SOL    HW151187   5.008  10.061   8.101
83116SOL    HW251188   5.119  10.031   8.198
83117SOL     OW51189   0.570  10.889  14.455
83117SOL    HW151190   0.558  10.842  14.372
83117SOL    HW251191   0.651  10.939  14.442
83118SOL     OW51192  12.958   2.253  13.775
83118SOL    HW151193  12.924   2.310  13.706
83118SOL    HW251194  13.027   2.304  13.817
83119SOL     OW51195   7.677   9.333   0.181
83119SOL    HW151196   7.766   9.337   0.145
83119SOL    HW251197   7.635   9.413   0.149
83120SOL     OW51198   2.981   3.658   9.082
83120SOL    HW151199   2.897   3.701   9.067
83120SOL    HW251200   3.046   3.721   9.050
83121SOL     OW51201  11.987   6.807   2.988
83121SOL    HW151202  11.904   6.795   2.942
83121SOL    HW251203  12.051   6.761   2.934
83122SOL     OW51204   5.212   8.533  13.237
83122SOL    HW151205   5.241   8.564  13.323
83122SOL    HW251206   5.292   8.534  13.183
83123SOL     OW51207  10.970   6.186   2.019
83123SOL    HW151208  11.061   6.215   2.009
83123SOL    HW251209  10.972   6.094   1.994
83124SOL     OW51210   5.136   7.523   0.280
83124SOL    HW151211   5.222   7.510   0.241
83124SOL    HW251212   5.073   7.501   0.211
83125SOL     OW51213   7.024   1.635   5.490
83125SOL    HW151214   6.999   1.568   5.553
83125SOL    HW251215   7.089   1.688   5.536
83126SOL     OW51216  14.597   6.282   7.310
83126SOL    HW151217  14.683   6.241   7.299
83126SOL    HW251218  14.615   6.375   7.322
83127SOL     OW51219   7.931  10.907   0.785
83127SOL    HW151220   7.852  10.960   0.795
83127SOL    HW251221   7.991  10.964   0.737
83128SOL     OW51222  13.184   1.468  13.845
83128SOL    HW151223  13.104   1.446  13.891
83128SOL    HW251224  13.175   1.424  13.760
83129SOL     OW51225  13.068   1.523   1.303
83129SOL    HW151226  13.038   1.502   1.215
83129SOL    HW251227  12.995   1.572   1.342
83130SOL     OW51228   0.276  13.968  11.891
83130SOL    HW151229   0.255  14.061  11.884
83130SOL    HW251230   0.282  13.938  11.800
83131SOL     OW51231   5.406   2.054   1.337
83131SOL    HW151232   5.319   2.053   1.377
83131SOL    HW251233   5.403   2.127   1.275
83132SOL     OW51234   5.276   2.912   4.913
83132SOL    HW151235   5.212   2.910   4.983
83132SOL    HW251236   5.360   2.927   4.957
83133SOL     OW51237   3.532   5.488  12.545
83133SOL    HW151238   3.449   5.441  12.540
83133SOL    HW251239   3.532   5.545  12.469
83134SOL     OW51240   9.317   0.562   8.346
83134SOL    HW151241   9.226   0.579   8.324
83134SOL    HW251242   9.333   0.472   8.320
83135SOL     OW51243   3.060  11.235  14.176
83135SOL    HW151244   3.011  11.238  14.093
83135SOL    HW251245   3.002  11.187  14.236
83136SOL     OW51246   4.394  12.650   3.880
83136SOL    HW151247   4.368  12.561   3.905
83136SOL    HW251248   4.347  12.666   3.798
83137SOL     OW51249  14.147   5.207   1.862
83137SOL    HW151250  14.233   5.180   1.892
83137SOL    HW251251  14.094   5.212   1.942
83138SOL     OW51252   8.062   2.884   2.812
83138SOL    HW151253   8.078   2.877   2.906
83138SOL    HW251254   7.975   2.846   2.800
83139SOL     OW51255   1.298   4.472   7.262
83139SOL    HW151256   1.327   4.503   7.347
83139SOL    HW251257   1.366   4.501   7.201
83140SOL     OW51258   2.615  11.359  13.797
83140SOL    HW151259   2.528  11.398  13.809
83140SOL    HW251260   2.652  11.355  13.885
83141SOL     OW51261   7.747   1.837   7.980
83141SOL    HW151262   7.787   1.779   7.916
83141SOL    HW251263   7.820   1.883   8.020
83142SOL     OW51264   3.947   4.849   4.046
83142SOL    HW151265   3.965   4.856   4.139
83142SOL    HW251266   3.980   4.763   4.021
83143SOL     OW51267   8.189   5.473   5.880
83143SOL    HW151268   8.264   5.416   5.895
83143SOL    HW251269   8.196   5.498   5.788
83144SOL     OW51270   6.821  13.302  11.323
83144SOL    HW151271   6.783  13.374  11.373
83144SOL    HW251272   6.910  13.293  11.355
83145SOL     OW51273  11.031   4.040  10.952
83145SOL    HW151274  10.990   4.100  11.015
83145SOL    HW251275  11.125   4.056  10.962
83146SOL     OW51276   1.994  13.633   8.060
83146SOL    HW151277   1.952  13.564   8.111
83146SOL    HW251278   2.075  13.652   8.108
83147SOL     OW51279   6.094   1.972   2.170
83147SOL    HW151280   6.076   1.887   2.211
83147SOL    HW251281   6.122   2.028   2.243
83148SOL     OW51282  12.864   5.372  12.528
83148SOL    HW151283  12.877   5.461  12.562
83148SOL    HW251284  12.946   5.351  12.484
83149SOL     OW51285   4.805   7.159   0.748
83149SOL    HW151286   4.781   7.235   0.801
83149SOL    HW251287   4.891   7.132   0.781
83150SOL     OW51288   3.684  11.560   2.196
83150SOL    HW151289   3.723  11.491   2.250
83150SOL    HW251290   3.725  11.550   2.110
83151SOL     OW51291   5.198   9.874   2.438
83151SOL    HW151292   5.250   9.823   2.500
83151SOL    HW251293   5.262   9.908   2.375
83152SOL     OW51294  14.569  12.354   1.570
83152SOL    HW151295  14.510  12.366   1.497
83152SOL    HW251296  14.605  12.266   1.557
83153SOL     OW51297  11.386   9.127   9.964
83153SOL    HW151298  11.448   9.055   9.978
83153SOL    HW251299  11.432   9.185   9.903
83154SOL     OW51300   2.315  14.065  13.090
83154SOL    HW151301   2.375  14.134  13.063
83154SOL    HW251302   2.258  14.052  13.014
83155SOL     OW51303  11.818   2.158  13.818
83155SOL    HW151304  11.801   2.223  13.885
83155SOL    HW251305  11.831   2.208  13.737
83156SOL     OW51306  11.169   7.778  12.735
83156SOL    HW151307  11.240   7.818  12.785
83156SOL    HW251308  11.109   7.850  12.717
83157SOL     OW51309  10.995   3.001   7.130
83157SOL    HW151310  10.922   2.968   7.077
83157SOL    HW251311  11.004   3.093   7.105
83158SOL     OW51312   7.161   0.131   7.095
83158SOL    HW151313   7.185   0.221   7.119
83158SOL    HW251314   7.135   0.138   7.003
83159SOL     OW51315  14.323  12.696   1.417
83159SOL    HW151316  14.275  12.626   1.463
83159SOL    HW251317  14.375  12.738   1.484
83160SOL     OW51318   3.195   2.422  11.001
83160SOL    HW151319   3.198   2.334  10.964
83160SOL    HW251320   3.124   2.465  10.953
83161SOL     OW51321   3.342   6.206   8.605
83161SOL    HW151322   3.427   6.163   8.601
83161SOL    HW251323   3.363   6.300   8.610
83162SOL     OW51324   0.139   4.484  11.661
83162SOL    HW151325   0.147   4.525  11.747
83162SOL    HW251326   0.177   4.397  11.672
83163SOL     OW51327  12.275   7.378   4.828
83163SOL    HW151328  12.206   7.442   4.807
83163SOL    HW251329  12.229   7.295   4.838
83164SOL     OW51330   7.285  14.427   2.618
83164SOL    HW151331   7.262  14.495   2.556
83164SOL    HW251332   7.218  14.360   2.606
83165SOL     OW51333   3.350   3.336   3.013
83165SOL    HW151334   3.343   3.241   3.022
83165SOL    HW251335   3.265   3.370   3.043
83166SOL     OW51336   9.016  11.853   0.547
83166SOL    HW151337   9.092  11.871   0.602
83166SOL    HW251338   9.034  11.898   0.464
83167SOL     OW51339   8.874   2.912   5.563
83167SOL    HW151340   8.779   2.926   5.555
83167SOL    HW251341   8.895   2.850   5.493
83168SOL     OW51342   4.211   7.203   1.276
83168SOL    HW151343   4.284   7.181   1.218
83168SOL    HW251344   4.139   7.224   1.218
83169SOL     OW51345   3.611   8.520   4.466
83169SOL    HW151346   3.613   8.476   4.551
83169SOL    HW251347   3.595   8.612   4.487
83170SOL     OW51348   2.245   1.966   1.464
83170SOL    HW151349   2.156   1.943   1.438
83170SOL    HW251350   2.290   1.984   1.382
83171SOL     OW51351  14.061   2.367   6.698
83171SOL    HW151352  14.026   2.358   6.786
83171SOL    HW251353  14.154   2.345   6.707
83172SOL     OW51354   9.052   5.455   1.562
83172SOL    HW151355   9.145   5.444   1.544
83172SOL    HW251356   9.017   5.497   1.483
83173SOL     OW51357  11.526  14.174   7.960
83173SOL    HW151358  11.606  14.174   7.908
83173SOL    HW251359  11.456  14.182   7.895
83174SOL     OW51360   2.673   9.679   3.885
83174SOL    HW151361   2.666   9.585   3.900
83174SOL    HW251362   2.658   9.718   3.971
83175SOL     OW51363  11.675   2.921   1.453
83175SOL    HW151364  11.649   3.007   1.485
83175SOL    HW251365  11.770   2.922   1.456
83176SOL     OW51366   4.698  13.750   4.610
83176SOL    HW151367   4.624  13.699   4.642
83176SOL    HW251368   4.659  13.830   4.574
83177SOL     OW51369  13.906   6.387  10.018
83177SOL    HW151370  13.813   6.400  10.039
83177SOL    HW251371  13.917   6.292  10.012
83178SOL     OW51372   2.923   7.956  11.337
83178SOL    HW151373   2.871   7.933  11.415
83178SOL    HW251374   2.930   8.051  11.340
83179SOL     OW51375   8.994  12.813   2.376
83179SOL    HW151376   8.976  12.864   2.455
83179SOL    HW251377   8.918  12.830   2.320
83180SOL     OW51378   3.192  13.492   4.352
83180SOL    HW151379   3.140  13.571   4.335
83180SOL    HW251380   3.127  13.422   4.358
83181SOL     OW51381   4.210   7.703   0.699
83181SOL    HW151382   4.186   7.664   0.783
83181SOL    HW251383   4.137   7.762   0.679
83182SOL     OW51384   7.576  14.611  13.893
83182SOL    HW151385   7.519  14.549  13.847
83182SOL    HW251386   7.570  14.691  13.841
83183SOL     OW51387   6.542   4.268   6.814
83183SOL    HW151388   6.592   4.267   6.732
83183SOL    HW251389   6.600   4.227   6.877
83184SOL     OW51390  13.352  12.852   7.268
83184SOL    HW151391  13.268  12.811   7.287
83184SOL    HW251392  13.333  12.946   7.269
83185SOL     OW51393   6.241   8.586   3.615
83185SOL    HW151394   6.260   8.531   3.539
83185SOL    HW251395   6.315   8.572   3.675
83186SOL     OW51396  10.300   0.488   3.115
83186SOL    HW151397  10.228   0.437   3.079
83186SOL    HW251398  10.358   0.503   3.041
83187SOL     OW51399  14.354  14.644   3.348
83187SOL    HW151400  14.302  14.724   3.341
83187SOL    HW251401  14.289  14.574   3.349
83188SOL     OW51402  10.738   5.003   2.182
83188SOL    HW151403  10.760   4.936   2.247
83188SOL    HW251404  10.658   5.044   2.215
83189SOL     OW51405   8.752  12.955   5.785
83189SOL    HW151406   8.819  13.019   5.808
83189SOL    HW251407   8.793  12.900   5.718
83190SOL     OW51408   7.829  11.368  13.137
83190SOL    HW151409   7.783  11.361  13.053
83190SOL    HW251410   7.819  11.460  13.162
83191SOL     OW51411   7.313   6.201  10.331
83191SOL    HW151412   7.239   6.251  10.296
83191SOL    HW251413   7.390   6.250  10.303
83192SOL     OW51414   4.304   5.545  13.748
83192SOL    HW151415   4.344   5.459  13.742
83192SOL    HW251416   4.269   5.562  13.661
83193SOL     OW51417   3.457   9.097  13.402
83193SOL    HW151418   3.408   9.093  13.320
83193SOL    HW251419   3.544   9.063  13.380
83194SOL     OW51420  11.553   0.186   4.804
83194SOL    HW151421  11.596   0.103   4.825
83194SOL    HW251422  11.460   0.167   4.810
83195SOL     OW51423   5.535  12.539   4.271
83195SOL    HW151424   5.538  12.634   4.285
83195SOL    HW251425   5.453  12.525   4.223
83196SOL     OW51426   3.384  11.218   5.975
83196SOL    HW151427   3.384  11.284   5.906
83196SOL    HW251428   3.453  11.157   5.949
83197SOL     OW51429  14.222   3.090  10.042
83197SOL    HW151430  14.240   3.167   9.987
83197SOL    HW251431  14.145   3.115  10.092
83198SOL     OW51432  11.056  13.991   4.757
83198SOL    HW151433  11.076  13.922   4.694
83198SOL    HW251434  10.966  13.972   4.785
83199SOL     OW51435  11.886   3.506  12.216
83199SOL    HW151436  11.929   3.574  12.164
83199SOL    HW251437  11.916   3.522  12.306
83200SOL     OW51438  13.174  14.719   4.960
83200SOL    HW151439  13.080  14.739   4.970
83200SOL    HW251440  13.182  14.693   4.868
83201SOL     OW51441  10.607   5.557  10.603
83201SOL    HW151442  10.635   5.520  10.687
83201SOL    HW251443  10.661   5.511  10.538
83202SOL     OW51444  13.664  13.551   5.637
83202SOL    HW151445  13.607  13.627   5.631
83202SOL    HW251446  13.748  13.581   5.602
83203SOL     OW51447  11.431   7.270   6.578
83203SOL    HW151448  11.372   7.329   6.626
83203SOL    HW251449  11.484   7.329   6.524
83204SOL     OW51450   3.524  12.448  11.222
83204SOL    HW151451   3.432  12.473  11.213
83204SOL    HW251452   3.528  12.359  11.187
83205SOL     OW51453   6.392  12.831   7.633
83205SOL    HW151454   6.472  12.841   7.683
83205SOL    HW251455   6.392  12.904   7.572
83206SOL     OW51456  10.156   7.319   5.979
83206SOL    HW151457  10.124   7.321   6.069
83206SOL    HW251458  10.087   7.358   5.927
83207SOL     OW51459   1.120   6.165   3.155
83207SOL    HW151460   1.183   6.137   3.088
83207SOL    HW251461   1.063   6.089   3.167
83208SOL     OW51462   1.626   3.169   0.875
83208SOL    HW151463   1.588   3.090   0.914
83208SOL    HW251464   1.635   3.230   0.948
83209SOL     OW51465   8.998   6.010   1.093
83209SOL    HW151466   9.053   6.006   1.171
83209SOL    HW251467   9.059   6.021   1.020
83210SOL     OW51468   5.691   3.820   6.747
83210SOL    HW151469   5.639   3.857   6.676
83210SOL    HW251470   5.743   3.893   6.780
83211SOL     OW51471   9.342  13.943   0.069
83211SOL    HW151472   9.426  13.949   0.116
83211SOL    HW251473   9.279  13.984   0.128
83212SOL     OW51474  11.144  10.446  14.409
83212SOL    HW151475  11.068  10.395  14.380
83212SOL    HW251476  11.211  10.380  14.427
83213SOL     OW51477  11.264  10.205   0.044
83213SOL    HW151478  11.184  10.227   0.092
83213SOL    HW251479  11.233  10.156  14.844
83214SOL     OW51480  14.257   5.713  12.975
83214SOL    HW151481  14.309   5.676  13.047
83214SOL    HW251482  14.314   5.780  12.937
83215SOL     OW51483   8.139   3.773   3.340
83215SOL    HW151484   8.177   3.848   3.386
83215SOL    HW251485   8.052   3.803   3.313
83216SOL     OW51486   3.600   8.248   0.440
83216SOL    HW151487   3.632   8.196   0.366
83216SOL    HW251488   3.513   8.213   0.459
83217SOL     OW51489   2.409   6.013   3.074
83217SOL    HW151490   2.387   5.946   3.139
83217SOL    HW251491   2.462   6.076   3.122
83218SOL     OW51492   5.281  14.721   9.713
83218SOL    HW151493   5.195  14.759   9.698
83218SOL    HW251494   5.310  14.693   9.626
83219SOL     OW51495   9.748   5.310   9.236
83219SOL    HW151496   9.730   5.260   9.315
83219SOL    HW251497   9.670   5.298   9.182
83220SOL     OW51498   8.136  14.004   3.357
83220SOL    HW151499   8.070  14.046   3.301
83220SOL    HW251500   8.219  14.020   3.312
83221SOL     OW51501   2.844  12.074   9.605
83221SOL    HW151502   2.796  12.155   9.622
83221SOL    HW251503   2.936  12.099   9.607
83222SOL     OW51504   0.043   6.143   4.253
83222SOL    HW151505   0.113   6.114   4.312
83222SOL    HW251506  14.839   6.107   4.291
83223SOL     OW51507  14.380   6.193   1.825
83223SOL    HW151508  14.459   6.247   1.813
83223SOL    HW251509  14.319   6.251   1.871
83224SOL     OW51510   6.883   4.474   2.102
83224SOL    HW151511   6.836   4.404   2.057
83224SOL    HW251512   6.817   4.542   2.117
83225SOL     OW51513   1.078   1.105  10.261
83225SOL    HW151514   1.016   1.033  10.253
83225SOL    HW251515   1.070   1.135  10.351
83226SOL     OW51516   3.702   8.407  12.695
83226SOL    HW151517   3.657   8.463  12.632
83226SOL    HW251518   3.792   8.439  12.696
83227SOL     OW51519   6.037   4.038   6.024
83227SOL    HW151520   6.093   4.020   5.949
83227SOL    HW251521   5.974   4.103   5.992
83228SOL     OW51522   7.268  13.557  13.425
83228SOL    HW151523   7.267  13.462  13.428
83228SOL    HW251524   7.207  13.584  13.495
83229SOL     OW51525  12.927  14.541   7.040
83229SOL    HW151526  12.842  14.499   7.046
83229SOL    HW251527  12.910  14.633   7.059
83230SOL     OW51528   7.256   2.536  14.082
83230SOL    HW151529   7.296   2.596  14.145
83230SOL    HW251530   7.306   2.548  14.002
83231SOL     OW51531   2.499   1.791  11.196
83231SOL    HW151532   2.550   1.710  11.191
83231SOL    HW251533   2.561   1.856  11.228
83232SOL     OW51534   7.654   1.672  11.614
83232SOL    HW151535   7.658   1.614  11.691
83232SOL    HW251536   7.608   1.620  11.548
83233SOL     OW51537  11.563   8.307   8.799
83233SOL    HW151538  11.539   8.216   8.820
83233SOL    HW251539  11.479   8.353   8.794
83234SOL     OW51540   2.747   3.279   4.514
83234SOL    HW151541   2.755   3.362   4.466
83234SOL    HW251542   2.739   3.305   4.605
83235SOL     OW51543  13.997   2.786   7.234
83235SOL    HW151544  13.924   2.728   7.210
83235SOL    HW251545  14.015   2.836   7.154
83236SOL     OW51546   1.733   8.243   0.365
83236SOL    HW151547   1.766   8.296   0.292
83236SOL    HW251548   1.785   8.163   0.363
83237SOL     OW51549   7.362  12.593   7.406
83237SOL    HW151550   7.454  12.570   7.392
83237SOL    HW251551   7.321  12.580   7.320
83238SOL     OW51552   8.218   2.310   3.733
83238SOL    HW151553   8.259   2.278   3.813
83238SOL    HW251554   8.243   2.247   3.666
83239SOL     OW51555   8.248   3.506  10.731
83239SOL    HW151556   8.226   3.422  10.772
83239SOL    HW251557   8.225   3.572  10.797
83240SOL     OW51558  13.239   7.323   9.837
83240SOL    HW151559  13.276   7.363   9.916
83240SOL    HW251560  13.269   7.232   9.840
83241SOL     OW51561  13.520   9.049   5.450
83241SOL    HW151562  13.449   8.986   5.461
83241SOL    HW251563  13.495   9.123   5.506
83242SOL     OW51564   9.273   3.125  14.696
83242SOL    HW151565   9.305   3.052  14.749
83242SOL    HW251566   9.260   3.087  14.609
83243SOL     OW51567  13.468   4.549  10.769
83243SOL    HW151568  13.466   4.630  10.820
83243SOL    HW251569  13.530   4.493  10.815
83244SOL     OW51570   1.835   9.541   8.355
83244SOL    HW151571   1.906   9.583   8.403
83244SOL    HW251572   1.820   9.598   8.279
83245SOL     OW51573   0.486   7.950   7.744
83245SOL    HW151574   0.537   8.025   7.774
83245SOL    HW251575   0.415   7.943   7.807
83246SOL     OW51576   1.308   1.058  11.165
83246SOL    HW151577   1.321   0.991  11.232
83246SOL    HW251578   1.397   1.082  11.137
83247SOL     OW51579  11.350   4.854   8.889
83247SOL    HW151580  11.398   4.855   8.972
83247SOL    HW251581  11.415   4.828   8.824
83248SOL     OW51582  12.796   4.057  13.484
83248SOL    HW151583  12.725   4.016  13.435
83248SOL    HW251584  12.803   4.006  13.565
83249SOL     OW51585  11.339   0.549  10.197
83249SOL    HW151586  11.256   0.569  10.155
83249SOL    HW251587  11.323   0.469  10.246
83250SOL     OW51588  12.828   8.203   9.408
83250SOL    HW151589  12.747   8.252   9.422
83250SOL    HW251590  12.863   8.188   9.495
83251SOL     OW51591  11.224   9.305   2.575
83251SOL    HW151592  11.312   9.269   2.566
83251SOL    HW251593  11.221   9.338   2.665
83252SOL     OW51594  12.406   3.658   1.488
83252SOL    HW151595  12.408   3.572   1.446
83252SOL    HW251596  12.488   3.700   1.460
83253SOL     OW51597   7.181   0.573   6.123
83253SOL    HW151598   7.163   0.582   6.029
83253SOL    HW251599   7.269   0.536   6.127
83254SOL     OW51600   5.986   0.088   4.660
83254SOL    HW151601   6.058   0.090   4.596
83254SOL    HW251602   6.023   0.130   4.738
83255SOL     OW51603  13.549   4.026  11.582
83255SOL    HW151604  13.496   4.058  11.655
83255SOL    HW251605  13.608   4.098  11.561
83256SOL     OW51606  10.739   0.032   1.274
83256SOL    HW151607  10.649   0.011   1.249
83256SOL    HW251608  10.745   0.003   1.365
83257SOL     OW51609  14.348   7.671  13.755
83257SOL    HW151610  14.328   7.715  13.673
83257SOL    HW251611  14.265   7.635  13.784
83258SOL     OW51612   7.913   4.366   0.522
83258SOL    HW151613   7.859   4.318   0.584
83258SOL    HW251614   7.978   4.411   0.576
83259SOL     OW51615   2.425   4.227   9.671
83259SOL    HW151616   2.374   4.194   9.597
83259SOL    HW251617   2.457   4.312   9.642
83260SOL     OW51618   0.790   7.821  11.832
83260SOL    HW151619   0.752   7.738  11.805
83260SOL    HW251620   0.884   7.804  11.840
83261SOL     OW51621   8.877  13.785   2.935
83261SOL    HW151622   8.853  13.876   2.955
83261SOL    HW251623   8.953  13.792   2.878
83262SOL     OW51624   8.722   6.694  12.517
83262SOL    HW151625   8.737   6.682  12.423
83262SOL    HW251626   8.683   6.781  12.525
83263SOL     OW51627   3.763  12.901  12.762
83263SOL    HW151628   3.799  12.955  12.692
83263SOL    HW251629   3.784  12.811  12.736
83264SOL     OW51630   4.310  12.903   3.368
83264SOL    HW151631   4.366  12.899   3.290
83264SOL    HW251632   4.310  12.995   3.394
83265SOL     OW51633  11.196   7.908  13.259
83265SOL    HW151634  11.251   7.855  13.316
83265SOL    HW251635  11.246   7.916  13.178
83266SOL     OW51636   0.353  13.612  10.463
83266SOL    HW151637   0.369  13.553  10.390
83266SOL    HW251638   0.349  13.555  10.540
83267SOL     OW51639   4.020   1.798  10.719
83267SOL    HW151640   3.966   1.725  10.750
83267SOL    HW251641   4.088   1.756  10.666
83268SOL     OW51642  11.707   6.470   1.636
83268SOL    HW151643  11.699   6.539   1.570
83268SOL    HW251644  11.632   6.484   1.694
83269SOL     OW51645   5.439  12.937  14.805
83269SOL    HW151646   5.384  12.867  14.771
83269SOL    HW251647   5.428  13.010  14.744
83270SOL     OW51648  13.488   6.276   3.998
83270SOL    HW151649  13.583   6.273   3.988
83270SOL    HW251650  13.464   6.190   4.033
83271SOL     OW51651  12.640   7.294   7.168
83271SOL    HW151652  12.593   7.318   7.088
83271SOL    HW251653  12.707   7.232   7.139
83272SOL     OW51654   2.057  14.546   9.374
83272SOL    HW151655   2.118  14.564   9.446
83272SOL    HW251656   2.021  14.631   9.352
83273SOL     OW51657   9.463   8.205   8.297
83273SOL    HW151658   9.398   8.141   8.326
83273SOL    HW251659   9.540   8.187   8.351
83274SOL     OW51660  10.140  12.450   1.775
83274SOL    HW151661  10.048  12.437   1.795
83274SOL    HW251662  10.183  12.369   1.802
83275SOL     OW51663   4.708   5.645   0.247
83275SOL    HW151664   4.771   5.664   0.316
83275SOL    HW251665   4.743   5.690   0.170
83276SOL     OW51666  12.841  10.081  13.999
83276SOL    HW151667  12.868  10.123  14.080
83276SOL    HW251668  12.918  10.085  13.942
83277SOL     OW51669   4.163  13.710   2.183
83277SOL    HW151670   4.225  13.716   2.110
83277SOL    HW251671   4.151  13.616   2.197
83278SOL     OW51672  13.523  14.419   2.907
83278SOL    HW151673  13.479  14.432   2.823
83278SOL    HW251674  13.481  14.341   2.944
83279SOL     OW51675  14.557   3.875  14.804
83279SOL    HW151676  14.500   3.847  14.875
83279SOL    HW251677  14.644   3.846  14.830
83280SOL     OW51678   9.874  10.400  12.925
83280SOL    HW151679   9.830  10.338  12.984
83280SOL    HW251680   9.883  10.352  12.843
83281SOL     OW51681   7.946  10.525   8.406
83281SOL    HW151682   7.981  10.436   8.397
83281SOL    HW251683   8.013  10.582   8.369
83282SOL     OW51684   1.280   2.737  10.630
83282SOL    HW151685   1.269   2.824  10.668
83282SOL    HW251686   1.306   2.682  10.704
83283SOL     OW51687   5.734  11.165   8.231
83283SOL    HW151688   5.734  11.099   8.161
83283SOL    HW251689   5.792  11.233   8.200
83284SOL     OW51690   5.561   6.610   0.792
83284SOL    HW151691   5.578   6.583   0.702
83284SOL    HW251692   5.532   6.701   0.785
83285SOL     OW51693  10.958   9.636   3.951
83285SOL    HW151694  10.868   9.617   3.926
83285SOL    HW251695  10.963   9.611   4.044
83286SOL     OW51696   8.908   7.924  10.552
83286SOL    HW151697   8.902   7.939  10.647
83286SOL    HW251698   8.940   8.007  10.517
83287SOL     OW51699   6.882  12.607   6.387
83287SOL    HW151700   6.852  12.545   6.321
83287SOL    HW251701   6.851  12.571   6.470
83288SOL     OW51702   7.555  12.496  11.444
83288SOL    HW151703   7.512  12.570  11.486
83288SOL    HW251704   7.483  12.441  11.412
83289SOL     OW51705   0.089   0.610  11.435
83289SOL    HW151706   0.111   0.693  11.477
83289SOL    HW251707  14.870   0.612  11.427
83290SOL     OW51708   0.217   8.829   2.508
83290SOL    HW151709   0.129   8.864   2.500
83290SOL    HW251710   0.207   8.735   2.493
83291SOL     OW51711  10.261   5.420   8.812
83291SOL    HW151712  10.273   5.430   8.907
83291SOL    HW251713  10.169   5.397   8.802
83292SOL     OW51714   8.263   9.015   1.542
83292SOL    HW151715   8.234   9.025   1.451
83292SOL    HW251716   8.316   8.935   1.542
83293SOL     OW51717   6.354   1.011   8.918
83293SOL    HW151718   6.449   0.999   8.917
83293SOL    HW251719   6.341   1.104   8.904
83294SOL     OW51720   7.129  13.120   4.021
83294SOL    HW151721   7.195  13.052   4.035
83294SOL    HW251722   7.146  13.184   4.090
83295SOL     OW51723   8.940   0.310   9.461
83295SOL    HW151724   8.865   0.319   9.402
83295SOL    HW251725   8.908   0.342   9.545
83296SOL     OW51726  13.089  13.642  11.949
83296SOL    HW151727  13.170  13.622  11.996
83296SOL    HW251728  13.118  13.676  11.864
83297SOL     OW51729   4.291   7.769   1.509
83297SOL    HW151730   4.330   7.855   1.528
83297SOL    HW251731   4.220   7.789   1.448
83298SOL     OW51732   8.003   3.555   7.148
83298SOL    HW151733   7.954   3.604   7.215
83298SOL    HW251734   8.089   3.540   7.188
83299SOL     OW51735   0.367  13.725  11.386
83299SOL    HW151736   0.388  13.665  11.315
83299SOL    HW251737   0.320  13.797  11.344
83300SOL     OW51738   3.575  14.180   7.717
83300SOL    HW151739   3.653  14.127   7.733
83300SOL    HW251740   3.506  14.116   7.700
83301SOL     OW51741   6.073  12.643   3.836
83301SOL    HW151742   6.015  12.606   3.902
83301SOL    HW251743   6.070  12.581   3.763
83302SOL     OW51744   6.207   3.120   2.741
83302SOL    HW151745   6.238   3.162   2.661
83302SOL    HW251746   6.139   3.179   2.774
83303SOL     OW51747  12.722  13.705  14.004
83303SOL    HW151748  12.770  13.622  13.998
83303SOL    HW251749  12.716  13.736  13.913
83304SOL     OW51750   1.959   6.468   2.197
83304SOL    HW151751   1.995   6.411   2.265
83304SOL    HW251752   2.023   6.539   2.189
83305SOL     OW51753  13.375  12.150  12.817
83305SOL    HW151754  13.382  12.181  12.727
83305SOL    HW251755  13.411  12.061  12.815
83306SOL     OW51756   1.909   5.220   0.561
83306SOL    HW151757   1.891   5.157   0.630
83306SOL    HW251758   1.826   5.231   0.516
83307SOL     OW51759   2.328  10.355   3.535
83307SOL    HW151760   2.237  10.335   3.557
83307SOL    HW251761   2.348  10.298   3.461
83308SOL     OW51762  13.450   2.386   5.830
83308SOL    HW151763  13.497   2.396   5.912
83308SOL    HW251764  13.375   2.330   5.851
83309SOL     OW51765   4.806   4.078   0.129
83309SOL    HW151766   4.896   4.109   0.125
83309SOL    HW251767   4.768   4.102   0.044
83310SOL     OW51768   4.597   6.658  14.858
83310SOL    HW151769   4.612   6.571  14.823
83310SOL    HW251770   4.506   6.658   0.010
83311SOL     OW51771   0.150  14.766   6.079
83311SOL    HW151772   0.197  14.719   6.148
83311SOL    HW251773   0.217  14.787   6.014
83312SOL     OW51774  10.715   7.967  11.308
83312SOL    HW151775  10.630   8.009  11.319
83312SOL    HW251776  10.760   7.983  11.392
83313SOL     OW51777   0.558   2.992   7.865
83313SOL    HW151778   0.580   3.002   7.772
83313SOL    HW251779   0.596   3.069   7.907
83314SOL     OW51780   8.105  11.820   0.631
83314SOL    HW151781   8.071  11.890   0.686
83314SOL    HW251782   8.125  11.862   0.547
83315SOL     OW51783   2.436   9.919   6.377
83315SOL    HW151784   2.430  10.014   6.364
83315SOL    HW251785   2.473   9.910   6.465
83316SOL     OW51786  14.677   3.142   6.496
83316SOL    HW151787  14.667   3.161   6.402
83316SOL    HW251788  14.627   3.210   6.540
83317SOL     OW51789   9.448  11.277   0.220
83317SOL    HW151790   9.526  11.305   0.172
83317SOL    HW251791   9.483  11.233   0.297
83318SOL     OW51792   3.737  11.638   4.380
83318SOL    HW151793   3.645  11.617   4.390
83318SOL    HW251794   3.745  11.728   4.410
83319SOL     OW51795   0.529   7.860  10.439
83319SOL    HW151796   0.581   7.807  10.500
83319SOL    HW251797   0.580   7.860  10.358
83320SOL     OW51798  10.789   7.144  12.245
83320SOL    HW151799  10.851   7.170  12.312
83320SOL    HW251800  10.764   7.225  12.202
83321SOL     OW51801  12.203   9.728   5.774
83321SOL    HW151802  12.248   9.683   5.702
83321SOL    HW251803  12.133   9.778   5.732
83322SOL     OW51804   0.542  11.577   4.313
83322SOL    HW151805   0.500  11.645   4.260
83322SOL    HW251806   0.493  11.578   4.395
83323SOL     OW51807   1.784  10.245  12.269
83323SOL    HW151808   1.844  10.233  12.342
83323SOL    HW251809   1.765  10.339  12.268
83324SOL     OW51810   0.893   0.312   7.711
83324SOL    HW151811   0.914   0.248   7.643
83324SOL    HW251812   0.968   0.372   7.711
83325SOL     OW51813   5.053   6.188   2.382
83325SOL    HW151814   5.072   6.109   2.333
83325SOL    HW251815   5.036   6.255   2.315
83326SOL     OW51816  10.843  14.060  14.714
83326SOL    HW151817  10.920  14.070  14.771
83326SOL    HW251818  10.874  14.005  14.642
83327SOL     OW51819  13.582   7.894  13.918
83327SOL    HW151820  13.647   7.963  13.908
83327SOL    HW251821  13.521   7.929  13.983
83328SOL     OW51822  13.231   8.292   9.669
83328SOL    HW151823  13.240   8.280   9.764
83328SOL    HW251824  13.216   8.385   9.658
83329SOL     OW51825   3.064   2.660   1.763
83329SOL    HW151826   2.984   2.673   1.815
83329SOL    HW251827   3.108   2.745   1.768
83330SOL     OW51828   0.046  11.609  12.343
83330SOL    HW151829   0.050  11.537  12.280
83330SOL    HW251830   0.089  11.682  12.298
83331SOL     OW51831  10.127   6.228   9.684
83331SOL    HW151832  10.218   6.248   9.707
83331SOL    HW251833  10.116   6.263   9.596
83332SOL     OW51834   6.140   6.925  11.285
83332SOL    HW151835   6.101   6.956  11.203
83332SOL    HW251836   6.169   6.836  11.265
83333SOL     OW51837  13.296   0.930  14.337
83333SOL    HW151838  13.337   1.003  14.383
83333SOL    HW251839  13.205   0.932  14.364
83334SOL     OW51840   0.457   9.533   2.193
83334SOL    HW151841   0.448   9.462   2.257
83334SOL    HW251842   0.367   9.562   2.177
83335SOL     OW51843   0.947   5.514   8.427
83335SOL    HW151844   0.985   5.550   8.507
83335SOL    HW251845   1.017   5.461   8.389
83336SOL     OW51846   8.810   0.732   6.178
83336SOL    HW151847   8.887   0.739   6.122
83336SOL    HW251848   8.825   0.797   6.247
83337SOL     OW51849  10.745  11.594   9.417
83337SOL    HW151850  10.732  11.689   9.422
83337SOL    HW251851  10.840  11.583   9.420
83338SOL     OW51852   7.018   4.071   5.020
83338SOL    HW151853   6.999   4.146   4.962
83338SOL    HW251854   6.936   4.023   5.024
83339SOL     OW51855  12.343   7.489   6.213
83339SOL    HW151856  12.290   7.412   6.196
83339SOL    HW251857  12.431   7.456   6.230
83340SOL     OW51858  14.127   0.774   4.312
83340SOL    HW151859  14.099   0.816   4.231
83340SOL    HW251860  14.217   0.748   4.297
83341SOL     OW51861   4.338   5.783   7.325
83341SOL    HW151862   4.253   5.789   7.282
83341SOL    HW251863   4.397   5.834   7.268
83342SOL     OW51864  12.580   7.194  12.736
83342SOL    HW151865  12.626   7.255  12.678
83342SOL    HW251866  12.591   7.108  12.694
83343SOL     OW51867   5.207   3.543   2.495
83343SOL    HW151868   5.143   3.474   2.482
83343SOL    HW251869   5.156   3.624   2.496
83344SOL     OW51870   4.498   0.607   2.632
83344SOL    HW151871   4.449   0.581   2.710
83344SOL    HW251872   4.583   0.637   2.666
83345SOL     OW51873  12.441  13.621   6.550
83345SOL    HW151874  12.381  13.582   6.487
83345SOL    HW251875  12.429  13.716   6.538
83346SOL     OW51876   6.433  14.440  13.860
83346SOL    HW151877   6.345  14.445  13.897
83346SOL    HW251878   6.430  14.493  13.781
83347SOL     OW51879   9.428   4.504   9.463
83347SOL    HW151880   9.515   4.500   9.503
83347SOL    HW251881   9.434   4.575   9.399
83348SOL     OW51882   1.531  14.181   2.480
83348SOL    HW151883   1.565  14.196   2.392
83348SOL    HW251884   1.477  14.258   2.498
83349SOL     OW51885  12.585   2.250  13.811
83349SOL    HW151886  12.666   2.301  13.807
83349SOL    HW251887  12.553   2.250  13.721
83350SOL     OW51888  11.610  11.228  14.626
83350SOL    HW151889  11.549  11.211  14.554
83350SOL    HW251890  11.669  11.152  14.626
83351SOL     OW51891   7.497   5.296  14.696
83351SOL    HW151892   7.427   5.312  14.633
83351SOL    HW251893   7.452   5.280  14.779
83352SOL     OW51894   3.914   2.250  13.841
83352SOL    HW151895   3.820   2.267  13.851
83352SOL    HW251896   3.933   2.180  13.903
83353SOL     OW51897   5.046   1.310  13.561
83353SOL    HW151898   5.117   1.249  13.577
83353SOL    HW251899   4.998   1.273  13.487
83354SOL     OW51900  13.403  11.134   0.303
83354SOL    HW151901  13.483  11.091   0.272
83354SOL    HW251902  13.398  11.111   0.396
83355SOL     OW51903   7.158   1.597   6.698
83355SOL    HW151904   7.083   1.602   6.638
83355SOL    HW251905   7.129   1.537   6.767
83356SOL     OW51906  11.333   3.142  11.068
83356SOL    HW151907  11.314   3.077  11.135
83356SOL    HW251908  11.380   3.211  11.114
83357SOL     OW51909   7.091  11.140   8.386
83357SOL    HW151910   7.112  11.154   8.478
83357SOL    HW251911   7.172  11.106   8.347
83358SOL     OW51912  13.031  12.406   0.189
83358SOL    HW151913  12.946  12.372   0.215
83358SOL    HW251914  13.012  12.488   0.144
83359SOL     OW51915   8.255   5.771   9.363
83359SOL    HW151916   8.337   5.723   9.353
83359SOL    HW251917   8.221   5.743   9.449
83360SOL     OW51918   3.471   0.416  10.702
83360SOL    HW151919   3.500   0.477  10.635
83360SOL    HW251920   3.413   0.355  10.656
83361SOL     OW51921   9.774   6.091   3.507
83361SOL    HW151922   9.842   6.100   3.574
83361SOL    HW251923   9.707   6.155   3.532
83362SOL     OW51924   9.472  10.784   8.634
83362SOL    HW151925   9.407  10.826   8.577
83362SOL    HW251926   9.434  10.698   8.654
83363SOL     OW51927   5.349   1.474  12.887
83363SOL    HW151928   5.363   1.562  12.852
83363SOL    HW251929   5.295   1.487  12.965
83364SOL     OW51930   0.282  11.034  11.117
83364SOL    HW151931   0.251  11.066  11.201
83364SOL    HW251932   0.249  10.944  11.112
83365SOL     OW51933   0.107   0.758  10.149
83365SOL    HW151934   0.187   0.786  10.191
83365SOL    HW251935   0.068   0.838  10.114
83366SOL     OW51936  14.866   2.639   6.104
83366SOL    HW151937  14.869   2.544   6.113
83366SOL    HW251938   0.048   2.672   6.172
83367SOL     OW51939   0.420  14.232  11.433
83367SOL    HW151940   0.472  14.232  11.514
83367SOL    HW251941   0.472  14.182  11.371
83368SOL     OW51942  10.737   0.486   7.025
83368SOL    HW151943  10.663   0.432   6.997
83368SOL    HW251944  10.814   0.431   7.010
83369SOL     OW51945   6.115   0.644   4.435
83369SOL    HW151946   6.054   0.607   4.371
83369SOL    HW251947   6.195   0.660   4.384
83370SOL     OW51948   9.851  11.077  10.486
83370SOL    HW151949   9.905  10.998  10.488
83370SOL    HW251950   9.908  11.146  10.522
83371SOL     OW51951   7.267   7.111  11.718
83371SOL    HW151952   7.313   7.095  11.636
83371SOL    HW251953   7.284   7.033  11.771
83372SOL     OW51954  10.561   0.960   5.187
83372SOL    HW151955  10.656   0.959   5.184
83372SOL    HW251956  10.534   0.877   5.147
83373SOL     OW51957   1.766  13.684  12.763
83373SOL    HW151958   1.765  13.777  12.785
83373SOL    HW251959   1.674  13.661  12.751
83374SOL     OW51960   9.473  12.344   4.131
83374SOL    HW151961   9.465  12.440   4.128
83374SOL    HW251962   9.567  12.329   4.142
83375SOL     OW51963   4.292   3.760   6.628
83375SOL    HW151964   4.238   3.704   6.684
83375SOL    HW251965   4.230   3.820   6.587
83376SOL     OW51966  11.657   2.155   5.719
83376SOL    HW151967  11.638   2.230   5.776
83376SOL    HW251968  11.748   2.133   5.738
83377SOL     OW51969  12.452   9.170  10.104
83377SOL    HW151970  12.422   9.088  10.065
83377SOL    HW251971  12.507   9.210  10.037
83378SOL     OW51972   7.909   8.987   2.642
83378SOL    HW151973   7.922   9.008   2.550
83378SOL    HW251974   7.877   9.068   2.681
83379SOL     OW51975   5.146   3.893   2.255
83379SOL    HW151976   5.111   3.964   2.309
83379SOL    HW251977   5.091   3.818   2.275
83380SOL     OW51978   0.806   9.041   0.101
83380SOL    HW151979   0.766   8.963   0.063
83380SOL    HW251980   0.738   9.108   0.097
83381SOL     OW51981   9.354   3.665   8.403
83381SOL    HW151982   9.323   3.678   8.493
83381SOL    HW251983   9.430   3.723   8.395
83382SOL     OW51984   1.089  10.849   2.749
83382SOL    HW151985   1.070  10.920   2.810
83382SOL    HW251986   1.183  10.858   2.732
83383SOL     OW51987  10.769   9.035  10.835
83383SOL    HW151988  10.864   9.035  10.842
83383SOL    HW251989  10.747   9.127  10.820
83384SOL     OW51990   6.535  10.028  14.222
83384SOL    HW151991   6.491  10.113  14.223
83384SOL    HW251992   6.466   9.966  14.196
83385SOL     OW51993  11.052  10.615   0.093
83385SOL    HW151994  11.144  10.618   0.119
83385SOL    HW251995  11.054  10.599  14.875
83386SOL     OW51996   0.226  13.930  10.802
83386SOL    HW151997   0.159  13.986  10.842
83386SOL    HW251998   0.284  13.990  10.756
83387SOL     OW51999  13.969   4.194  14.251
83387SOL    HW152000  13.953   4.251  14.326
83387SOL    HW252001  13.883   4.159  14.228
83388SOL     OW52002  13.497  13.577   7.722
83388SOL    HW152003  13.429  13.560   7.787
83388SOL    HW252004  13.512  13.493   7.680
83389SOL     OW52005   7.240  11.101   2.814
83389SOL    HW152006   7.270  11.071   2.900
83389SOL    HW252007   7.173  11.039   2.788
83390SOL     OW52008  14.166   5.473   2.374
83390SOL    HW152009  14.248   5.459   2.422
83390SOL    HW252010  14.193   5.514   2.292
83391SOL     OW52011  10.273   3.952  11.222
83391SOL    HW152012  10.366   3.963  11.201
83391SOL    HW252013  10.227   4.006  11.158
83392SOL     OW52014   0.959   0.314   6.983
83392SOL    HW152015   0.958   0.307   6.888
83392SOL    HW252016   0.869   0.294   7.010
83393SOL     OW52017   1.731   3.602   6.685
83393SOL    HW152018   1.755   3.680   6.734
83393SOL    HW252019   1.646   3.576   6.721
83394SOL     OW52020   4.753   6.708   3.278
83394SOL    HW152021   4.792   6.795   3.270
83394SOL    HW252022   4.677   6.720   3.335
83395SOL     OW52023   1.689   5.637   1.405
83395SOL    HW152024   1.664   5.624   1.497
83395SOL    HW252025   1.708   5.548   1.373
83396SOL     OW52026   5.484  11.599   9.867
83396SOL    HW152027   5.444  11.682   9.891
83396SOL    HW252028   5.447  11.536   9.928
83397SOL     OW52029   7.373  10.510   9.332
83397SOL    HW152030   7.340  10.539   9.417
83397SOL    HW252031   7.377  10.415   9.340
83398SOL     OW52032   8.766   7.593  10.547
83398SOL    HW152033   8.682   7.640  10.546
83398SOL    HW252034   8.803   7.614  10.633
83399SOL     OW52035   8.494   2.590   3.052
83399SOL    HW152036   8.452   2.506   3.066
83399SOL    HW252037   8.461   2.620   2.967
83400SOL     OW52038   7.205   0.540   8.535
83400SOL    HW152039   7.218   0.450   8.564
83400SOL    HW252040   7.288   0.584   8.553
83401SOL     OW52041   7.162   1.135  14.042
83401SOL    HW152042   7.222   1.209  14.053
83401SOL    HW252043   7.214   1.070  13.995
83402SOL     OW52044   6.848   1.070   1.726
83402SOL    HW152045   6.916   1.119   1.680
83402SOL    HW252046   6.884   0.982   1.737
83403SOL     OW52047   4.572   4.643   9.477
83403SOL    HW152048   4.592   4.582   9.549
83403SOL    HW252049   4.561   4.586   9.400
83404SOL     OW52050   9.675  14.159  12.901
83404SOL    HW152051   9.742  14.177  12.967
83404SOL    HW252052   9.595  14.148  12.952
83405SOL     OW52053   8.147   8.376   1.731
83405SOL    HW152054   8.175   8.462   1.760
83405SOL    HW252055   8.066   8.392   1.682
83406SOL     OW52056  12.319   0.697   6.714
83406SOL    HW152057  12.315   0.758   6.787
83406SOL    HW252058  12.403   0.652   6.726
83407SOL     OW52059  12.513   9.631   5.601
83407SOL    HW152060  12.511   9.726   5.592
83407SOL    HW252061  12.524   9.599   5.511
83408SOL     OW52062   4.122   8.562  11.909
83408SOL    HW152063   4.069   8.485  11.888
83408SOL    HW252064   4.211   8.529  11.917
83409SOL     OW52065  11.297   1.320  11.287
83409SOL    HW152066  11.282   1.280  11.202
83409SOL    HW252067  11.301   1.414  11.269
83410SOL     OW52068  13.591   8.610   6.885
83410SOL    HW152069  13.667   8.560   6.856
83410SOL    HW252070  13.628   8.682   6.936
83411SOL     OW52071   3.636   0.407  12.220
83411SOL    HW152072   3.610   0.393  12.312
83411SOL    HW252073   3.701   0.339  12.203
83412SOL     OW52074   3.019   6.730  14.254
83412SOL    HW152075   2.939   6.699  14.298
83412SOL    HW252076   3.057   6.792  14.316
83413SOL     OW52077   7.640  14.255   3.537
83413SOL    HW152078   7.643  14.204   3.456
83413SOL    HW252079   7.712  14.318   3.528
83414SOL     OW52080   6.297   3.953  14.712
83414SOL    HW152081   6.273   3.889  14.779
83414SOL    HW252082   6.306   3.902  14.632
83415SOL     OW52083   6.602  12.161   0.122
83415SOL    HW152084   6.645  12.079   0.098
83415SOL    HW252085   6.539  12.177   0.052
83416SOL     OW52086   8.481   3.749  12.721
83416SOL    HW152087   8.555   3.734  12.779
83416SOL    HW252088   8.418   3.681  12.744
83417SOL     OW52089  11.420   1.439   2.835
83417SOL    HW152090  11.421   1.389   2.916
83417SOL    HW252091  11.395   1.375   2.768
83418SOL     OW52092  13.205  10.985  10.350
83418SOL    HW152093  13.200  10.889  10.344
83418SOL    HW252094  13.167  11.015  10.268
83419SOL     OW52095   7.224   3.365   5.079
83419SOL    HW152096   7.150   3.420   5.055
83419SOL    HW252097   7.253   3.400   5.164
83420SOL     OW52098   0.801   9.105   2.861
83420SOL    HW152099   0.748   9.106   2.940
83420SOL    HW252100   0.745   9.146   2.794
83421SOL     OW52101   1.313   6.392   6.918
83421SOL    HW152102   1.347   6.482   6.915
83421SOL    HW252103   1.276   6.378   6.831
83422SOL     OW52104  12.229   6.051   9.117
83422SOL    HW152105  12.155   6.003   9.080
83422SOL    HW252106  12.281   6.076   9.040
83423SOL     OW52107   9.114   2.073  12.516
83423SOL    HW152108   9.170   2.148  12.532
83423SOL    HW252109   9.028   2.111  12.496
83424SOL     OW52110   2.261  10.564   7.641
83424SOL    HW152111   2.207  10.485   7.648
83424SOL    HW252112   2.351  10.532   7.642
83425SOL     OW52113  11.580   1.198  11.039
83425SOL    HW152114  11.673   1.192  11.016
83425SOL    HW252115  11.578   1.186  11.134
83426SOL     OW52116  13.620  11.565   0.486
83426SOL    HW152117  13.625  11.475   0.517
83426SOL    HW252118  13.592  11.558   0.395
83427SOL     OW52119   2.653  13.622   5.750
83427SOL    HW152120   2.719  13.600   5.684
83427SOL    HW252121   2.573  13.636   5.699
83428SOL     OW52122  11.128   6.834   4.709
83428SOL    HW152123  11.100   6.900   4.646
83428SOL    HW252124  11.217   6.859   4.732
83429SOL     OW52125   2.284   9.243  13.795
83429SOL    HW152126   2.233   9.178  13.844
83429SOL    HW252127   2.231   9.262  13.718
83430SOL     OW52128   7.818  14.821   1.724
83430SOL    HW152129   7.728  14.842   1.701
83430SOL    HW252130   7.865  14.822   1.640
83431SOL     OW52131  10.397   4.837   8.033
83431SOL    HW152132  10.415   4.928   8.006
83431SOL    HW252133  10.478   4.810   8.077
83432SOL     OW52134  10.358   8.407   1.309
83432SOL    HW152135  10.363   8.458   1.228
83432SOL    HW252136  10.378   8.469   1.379
83433SOL     OW52137   1.270  12.638  10.784
83433SOL    HW152138   1.336  12.610  10.721
83433SOL    HW252139   1.321  12.677  10.856
83434SOL     OW52140  12.568  10.611   4.824
83434SOL    HW152141  12.570  10.516   4.840
83434SOL    HW252142  12.506  10.621   4.752
83435SOL     OW52143   1.840  10.175  14.855
83435SOL    HW152144   1.809  10.103  14.800
83435SOL    HW252145   1.934  10.177  14.841
83436SOL     OW52146  11.248   2.886  13.971
83436SOL    HW152147  11.294   2.809  13.937
83436SOL    HW252148  11.156   2.869  13.954
83437SOL     OW52149   7.055   1.296   4.309
83437SOL    HW152150   7.031   1.309   4.218
83437SOL    HW252151   7.002   1.360   4.357
83438SOL     OW52152   8.311   9.280  11.822
83438SOL    HW152153   8.277   9.239  11.902
83438SOL    HW252154   8.305   9.212  11.755
83439SOL     OW52155   8.874   0.429   5.969
83439SOL    HW152156   8.965   0.456   5.972
83439SOL    HW252157   8.825   0.509   5.952
83440SOL     OW52158   3.856  10.143   9.315
83440SOL    HW152159   3.848  10.193   9.234
83440SOL    HW252160   3.950  10.144   9.334
83441SOL     OW52161   7.554   0.247   8.079
83441SOL    HW152162   7.492   0.310   8.043
83441SOL    HW252163   7.501   0.168   8.095
83442SOL     OW52164   4.176   8.404   4.897
83442SOL    HW152165   4.268   8.396   4.871
83442SOL    HW252166   4.178   8.451   4.980
83443SOL     OW52167  11.447   4.422   1.574
83443SOL    HW152168  11.454   4.381   1.488
83443SOL    HW252169  11.431   4.349   1.634
83444SOL     OW52170   7.271   7.080   2.828
83444SOL    HW152171   7.253   7.168   2.795
83444SOL    HW252172   7.238   7.022   2.758
83445SOL     OW52173   5.905   5.218  11.129
83445SOL    HW152174   5.929   5.290  11.071
83445SOL    HW252175   5.871   5.150  11.070
83446SOL     OW52176  14.871   0.605   9.234
83446SOL    HW152177  14.831   0.520   9.251
83446SOL    HW252178   0.066   0.611   9.297
83447SOL     OW52179   6.536   6.851   3.897
83447SOL    HW152180   6.495   6.815   3.976
83447SOL    HW252181   6.548   6.775   3.840
83448SOL     OW52182   7.783   5.448  10.209
83448SOL    HW152183   7.700   5.464  10.254
83448SOL    HW252184   7.760   5.439  10.117
83449SOL     OW52185   8.899   0.723   9.490
83449SOL    HW152186   8.923   0.739   9.581
83449SOL    HW252187   8.977   0.744   9.440
83450SOL     OW52188   4.911   8.387   7.438
83450SOL    HW152189   4.947   8.299   7.449
83450SOL    HW252190   4.949   8.437   7.511
83451SOL     OW52191  11.266   8.793  10.801
83451SOL    HW152192  11.360   8.811  10.800
83451SOL    HW252193  11.225   8.878  10.814
83452SOL     OW52194  11.226  10.954   7.740
83452SOL    HW152195  11.153  11.012   7.718
83452SOL    HW252196  11.184  10.874   7.772
83453SOL     OW52197   1.124   2.545  11.370
83453SOL    HW152198   1.120   2.475  11.305
83453SOL    HW252199   1.088   2.621  11.324
83454SOL     OW52200  12.884   4.074   4.495
83454SOL    HW152201  12.938   4.137   4.447
83454SOL    HW252202  12.924   4.071   4.582
83455SOL     OW52203   0.861  10.659  10.837
83455SOL    HW152204   0.948  10.690  10.814
83455SOL    HW252205   0.855  10.572  10.797
83456SOL     OW52206  10.691  10.839   6.329
83456SOL    HW152207  10.764  10.900   6.324
83456SOL    HW252208  10.671  10.818   6.237
83457SOL     OW52209   2.083  10.310   4.572
83457SOL    HW152210   2.006  10.268   4.610
83457SOL    HW252211   2.116  10.367   4.642
83458SOL     OW52212   5.919   9.943  13.696
83458SOL    HW152213   5.840   9.995  13.683
83458SOL    HW252214   5.887   9.855  13.715
83459SOL     OW52215  10.204   8.474   3.153
83459SOL    HW152216  10.215   8.509   3.241
83459SOL    HW252217  10.161   8.389   3.166
83460SOL     OW52218   7.061   8.661   0.937
83460SOL    HW152219   7.132   8.635   0.995
83460SOL    HW252220   7.105   8.692   0.858
83461SOL     OW52221  11.572  11.694   3.393
83461SOL    HW152222  11.536  11.607   3.408
83461SOL    HW252223  11.501  11.743   3.352
83462SOL     OW52224   6.787  11.882   6.467
83462SOL    HW152225   6.702  11.869   6.426
83462SOL    HW252226   6.835  11.801   6.450
83463SOL     OW52227   6.713  10.896   1.947
83463SOL    HW152228   6.765  10.844   2.007
83463SOL    HW252229   6.651  10.834   1.909
83464SOL     OW52230   0.184   7.449   2.498
83464SOL    HW152231   0.263   7.397   2.484
83464SOL    HW252232   0.190   7.519   2.433
83465SOL     OW52233   3.096   2.085  10.168
83465SOL    HW152234   3.112   1.998  10.205
83465SOL    HW252235   3.128   2.079  10.078
83466SOL     OW52236  12.041   7.368  10.861
83466SOL    HW152237  12.010   7.384  10.771
83466SOL    HW252238  12.021   7.276  10.876
83467SOL     OW52239   4.664   9.351  13.283
83467SOL    HW152240   4.570   9.358  13.300
83467SOL    HW252241   4.688   9.264  13.316
83468SOL     OW52242  10.632   0.849  13.133
83468SOL    HW152243  10.663   0.801  13.056
83468SOL    HW252244  10.603   0.934  13.099
83469SOL     OW52245   0.658   3.428   6.578
83469SOL    HW152246   0.620   3.351   6.534
83469SOL    HW252247   0.634   3.502   6.521
83470SOL     OW52248   5.555   2.146  11.400
83470SOL    HW152249   5.598   2.101  11.327
83470SOL    HW252250   5.532   2.077  11.461
83471SOL     OW52251   4.034   9.790  10.212
83471SOL    HW152252   4.119   9.821  10.180
83471SOL    HW252253   4.056   9.728  10.281
83472SOL     OW52254   3.118   2.822  12.403
83472SOL    HW152255   3.098   2.784  12.489
83472SOL    HW252256   3.044   2.795  12.348
83473SOL     OW52257  10.190  10.155  13.871
83473SOL    HW152258  10.099  10.130  13.858
83473SOL    HW252259  10.214  10.115  13.955
83474SOL     OW52260   4.288   5.623   8.846
83474SOL    HW152261   4.352   5.682   8.886
83474SOL    HW252262   4.292   5.544   8.900
83475SOL     OW52263  13.839   9.394   4.452
83475SOL    HW152264  13.802   9.430   4.533
83475SOL    HW252265  13.827   9.299   4.461
83476SOL     OW52266   2.876   0.527   8.892
83476SOL    HW152267   2.891   0.567   8.807
83476SOL    HW252268   2.793   0.563   8.922
83477SOL     OW52269  11.240  14.269   8.205
83477SOL    HW152270  11.289  14.258   8.286
83477SOL    HW252271  11.224  14.180   8.174
83478SOL     OW52272  11.365   3.652   6.998
83478SOL    HW152273  11.406   3.573   7.035
83478SOL    HW252274  11.410   3.666   6.915
83479SOL     OW52275   4.745   3.515  11.162
83479SOL    HW152276   4.736   3.584  11.228
83479SOL    HW252277   4.663   3.466  11.168
83480SOL     OW52278   2.914   8.030   5.578
83480SOL    HW152279   2.938   8.110   5.530
83480SOL    HW252280   2.998   7.991   5.603
83481SOL     OW52281  11.907   1.145  12.992
83481SOL    HW152282  11.980   1.118  12.937
83481SOL    HW252283  11.831   1.141  12.935
83482SOL     OW52284  12.233  11.284   7.906
83482SOL    HW152285  12.215  11.375   7.880
83482SOL    HW252286  12.248  11.238   7.824
83483SOL     OW52287   8.754   0.196  13.224
83483SOL    HW152288   8.663   0.180  13.201
83483SOL    HW252289   8.752   0.222  13.316
83484SOL     OW52290  11.389   7.395   0.333
83484SOL    HW152291  11.441   7.342   0.394
83484SOL    HW252292  11.454   7.447   0.285
83485SOL     OW52293   4.444   6.237   4.098
83485SOL    HW152294   4.412   6.148   4.114
83485SOL    HW252295   4.422   6.285   4.178
83486SOL     OW52296   0.410  14.813  11.616
83486SOL    HW152297   0.403  14.860  11.533
83486SOL    HW252298   0.404  14.720  11.592
83487SOL     OW52299   6.686  10.131   6.231
83487SOL    HW152300   6.696  10.111   6.138
83487SOL    HW252301   6.701  10.225   6.238
83488SOL     OW52302  13.068   6.264  10.531
83488SOL    HW152303  13.142   6.323  10.521
83488SOL    HW252304  13.087   6.191  10.472
83489SOL     OW52305   1.346  12.467  11.424
83489SOL    HW152306   1.332  12.414  11.502
83489SOL    HW252307   1.390  12.546  11.455
83490SOL     OW52308   5.408  14.807   4.694
83490SOL    HW152309   5.498  14.825   4.722
83490SOL    HW252310   5.417  14.776   4.604
83491SOL     OW52311   3.592   8.021  10.515
83491SOL    HW152312   3.630   8.007  10.602
83491SOL    HW252313   3.546   8.105  10.522
83492SOL     OW52314  12.775   0.201   6.848
83492SOL    HW152315  12.708   0.133   6.840
83492SOL    HW252316  12.729   0.274   6.890
83493SOL     OW52317   5.106   1.284   0.738
83493SOL    HW152318   5.141   1.246   0.658
83493SOL    HW252319   5.140   1.373   0.740
83494SOL     OW52320   9.956  12.740   9.798
83494SOL    HW152321  10.030  12.736   9.858
83494SOL    HW252322   9.996  12.751   9.712
83495SOL     OW52323   1.777   3.353   3.945
83495SOL    HW152324   1.702   3.353   4.006
83495SOL    HW252325   1.797   3.446   3.933
83496SOL     OW52326   3.361   3.467   3.579
83496SOL    HW152327   3.306   3.392   3.556
83496SOL    HW252328   3.438   3.428   3.621
83497SOL     OW52329  11.301   7.010   9.072
83497SOL    HW152330  11.266   7.036   9.158
83497SOL    HW252331  11.344   6.926   9.088
83498SOL     OW52332  11.317   2.179   9.655
83498SOL    HW152333  11.284   2.150   9.570
83498SOL    HW252334  11.247   2.158   9.716
83499SOL     OW52335   3.427   0.764  12.100
83499SOL    HW152336   3.467   0.825  12.038
83499SOL    HW252337   3.421   0.813  12.182
83500SOL     OW52338   3.677   6.268   5.354
83500SOL    HW152339   3.767   6.244   5.337
83500SOL    HW252340   3.682   6.334   5.423
83501SOL     OW52341   1.497  12.564  10.591
83501SOL    HW152342   1.585  12.564  10.629
83501SOL    HW252343   1.512  12.565  10.496
83502SOL     OW52344  14.108   3.165  12.208
83502SOL    HW152345  14.092   3.218  12.130
83502SOL    HW252346  14.026   3.119  12.222
83503SOL     OW52347   5.821  13.504  11.550
83503SOL    HW152348   5.801  13.515  11.457
83503SOL    HW252349   5.805  13.411  11.568
83504SOL     OW52350   5.928  10.697   9.298
83504SOL    HW152351   5.967  10.639   9.364
83504SOL    HW252352   5.995  10.705   9.230
83505SOL     OW52353  14.407   6.380  12.808
83505SOL    HW152354  14.386   6.291  12.781
83505SOL    HW252355  14.432   6.373  12.900
83506SOL     OW52356  11.765   7.189   4.444
83506SOL    HW152357  11.680   7.145   4.456
83506SOL    HW252358  11.830   7.121   4.458
83507SOL     OW52359   8.065  14.714   0.995
83507SOL    HW152360   8.037  14.687   1.082
83507SOL    HW252361   8.087  14.633   0.949
83508SOL     OW52362  10.081  13.801   8.517
83508SOL    HW152363  10.076  13.824   8.609
83508SOL    HW252364  10.094  13.885   8.472
83509SOL     OW52365   4.911   4.202   2.208
83509SOL    HW152366   4.882   4.161   2.290
83509SOL    HW252367   4.946   4.287   2.235
83510SOL     OW52368  10.276   4.022   8.308
83510SOL    HW152369  10.306   4.007   8.397
83510SOL    HW252370  10.276   4.117   8.298
83511SOL     OW52371   4.685   3.717   5.705
83511SOL    HW152372   4.688   3.680   5.793
83511SOL    HW252373   4.737   3.656   5.652
83512SOL     OW52374  14.699  12.821   3.574
83512SOL    HW152375  14.617  12.869   3.570
83512SOL    HW252376  14.766  12.888   3.590
83513SOL     OW52377   6.741   5.676   1.742
83513SOL    HW152378   6.830   5.700   1.716
83513SOL    HW252379   6.717   5.741   1.808
83514SOL     OW52380   5.780  10.157  11.550
83514SOL    HW152381   5.827  10.080  11.517
83514SOL    HW252382   5.816  10.230  11.501
83515SOL     OW52383   7.884  11.952   5.443
83515SOL    HW152384   7.911  11.952   5.535
83515SOL    HW252385   7.798  11.908   5.444
83516SOL     OW52386  10.207   3.396   8.929
83516SOL    HW152387  10.119   3.425   8.953
83516SOL    HW252388  10.260   3.415   9.007
83517SOL     OW52389   4.440   5.320  13.739
83517SOL    HW152390   4.497   5.351  13.809
83517SOL    HW252391   4.437   5.225  13.750
83518SOL     OW52392   9.498  13.918   4.355
83518SOL    HW152393   9.418  13.900   4.404
83518SOL    HW252394   9.513  14.012   4.365
83519SOL     OW52395  14.043   0.272   7.905
83519SOL    HW152396  14.002   0.326   7.838
83519SOL    HW252397  14.053   0.186   7.865
83520SOL     OW52398   1.935   9.877   3.611
83520SOL    HW152399   1.912   9.827   3.532
83520SOL    HW252400   1.971   9.959   3.577
83521SOL     OW52401   5.460  14.829  11.359
83521SOL    HW152402   5.365  14.824  11.361
83521SOL    HW252403   5.489  14.738  11.357
83522SOL     OW52404  12.488  12.772   4.072
83522SOL    HW152405  12.534  12.806   3.995
83522SOL    HW252406  12.469  12.850   4.124
83523SOL     OW52407   4.165   3.996   5.928
83523SOL    HW152408   4.197   4.050   6.000
83523SOL    HW252409   4.204   4.033   5.849
83524SOL     OW52410  13.876   2.521   4.491
83524SOL    HW152411  13.816   2.449   4.470
83524SOL    HW252412  13.828   2.600   4.466
83525SOL     OW52413   6.825   4.547  13.334
83525SOL    HW152414   6.914   4.581  13.349
83525SOL    HW252415   6.791   4.601  13.263
83526SOL     OW52416   7.091   5.724   8.737
83526SOL    HW152417   7.161   5.665   8.707
83526SOL    HW252418   7.056   5.762   8.657
83527SOL     OW52419   0.373   2.972   0.831
83527SOL    HW152420   0.345   2.971   0.740
83527SOL    HW252421   0.294   2.949   0.881
83528SOL     OW52422  11.199   1.966   2.902
83528SOL    HW152423  11.170   2.049   2.939
83528SOL    HW252424  11.168   1.969   2.811
83529SOL     OW52425  13.653  14.019  13.780
83529SOL    HW152426  13.715  13.982  13.718
83529SOL    HW252427  13.639  13.950  13.844
83530SOL     OW52428   1.525   9.403   0.524
83530SOL    HW152429   1.441   9.445   0.506
83530SOL    HW252430   1.503   9.324   0.573
83531SOL     OW52431  12.983   7.259   1.286
83531SOL    HW152432  12.942   7.317   1.350
83531SOL    HW252433  12.923   7.260   1.211
83532SOL     OW52434   6.228   6.362   2.004
83532SOL    HW152435   6.160   6.335   2.065
83532SOL    HW252436   6.213   6.456   1.991
83533SOL     OW52437  11.646   7.502   3.738
83533SOL    HW152438  11.623   7.431   3.679
83533SOL    HW252439  11.572   7.562   3.734
83534SOL     OW52440  14.750   4.076   2.629
83534SOL    HW152441  14.792   4.065   2.715
83534SOL    HW252442  14.822   4.066   2.566
83535SOL     OW52443  11.884   0.200  12.683
83535SOL    HW152444  11.827   0.127  12.708
83535SOL    HW252445  11.849   0.230  12.599
83536SOL     OW52446  14.613   7.468  14.796
83536SOL    HW152447  14.690   7.457  14.853
83536SOL    HW252448  14.563   7.539  14.837
83537SOL     OW52449   3.456   8.047   5.929
83537SOL    HW152450   3.415   8.111   5.985
83537SOL    HW252451   3.460   8.089   5.843
83538SOL     OW52452   3.609  14.641   9.661
83538SOL    HW152453   3.684  14.692   9.630
83538SOL    HW252454   3.636  14.607   9.746
83539SOL     OW52455   6.456  13.431   0.408
83539SOL    HW152456   6.371  13.388   0.400
83539SOL    HW252457   6.447  13.487   0.485
83540SOL     OW52458  14.567  13.860   2.499
83540SOL    HW152459  14.626  13.836   2.570
83540SOL    HW252460  14.624  13.901   2.433
83541SOL     OW52461   7.509   5.311   8.481
83541SOL    HW152462   7.450   5.315   8.406
83541SOL    HW252463   7.567   5.238   8.462
83542SOL     OW52464   4.922   3.015  10.411
83542SOL    HW152465   4.958   3.033  10.498
83542SOL    HW252466   4.967   2.936  10.382
83543SOL     OW52467   6.622  14.516   0.079
83543SOL    HW152468   6.542  14.568   0.070
83543SOL    HW252469   6.609  14.441   0.021
83544SOL     OW52470   4.496   0.881   2.005
83544SOL    HW152471   4.516   0.799   2.048
83544SOL    HW252472   4.516   0.949   2.070
83545SOL     OW52473   7.427  10.364   0.990
83545SOL    HW152474   7.385  10.449   0.977
83545SOL    HW252475   7.380  10.305   0.931
83546SOL     OW52476  12.436   8.914   5.921
83546SOL    HW152477  12.395   8.872   5.997
83546SOL    HW252478  12.366   8.966   5.882
83547SOL     OW52479   7.813   6.894  14.040
83547SOL    HW152480   7.849   6.806  14.047
83547SOL    HW252481   7.796   6.921  14.131
83548SOL     OW52482  11.337  13.231   6.127
83548SOL    HW152483  11.385  13.286   6.065
83548SOL    HW252484  11.263  13.197   6.076
83549SOL     OW52485   0.270   7.890   2.025
83549SOL    HW152486   0.343   7.878   1.964
83549SOL    HW252487   0.312   7.913   2.108
83550SOL     OW52488  14.580  10.165  10.765
83550SOL    HW152489  14.662  10.178  10.812
83550SOL    HW252490  14.570  10.244  10.712
83551SOL     OW52491   1.076  13.279   5.396
83551SOL    HW152492   1.020  13.292   5.319
83551SOL    HW252493   1.023  13.225   5.455
83552SOL     OW52494   4.447   1.381   4.388
83552SOL    HW152495   4.506   1.395   4.462
83552SOL    HW252496   4.385   1.454   4.392
83553SOL     OW52497  12.157  12.916  14.164
83553SOL    HW152498  12.199  12.849  14.218
83553SOL    HW252499  12.067  12.922  14.197
83554SOL     OW52500  11.294  12.941   6.525
83554SOL    HW152501  11.238  12.898   6.461
83554SOL    HW252502  11.253  12.923   6.609
83555SOL     OW52503   6.089  11.029  13.291
83555SOL    HW152504   6.109  11.061  13.379
83555SOL    HW252505   6.100  10.935  13.296
83556SOL     OW52506   4.306   0.690   4.632
83556SOL    HW152507   4.276   0.604   4.661
83556SOL    HW252508   4.367   0.719   4.700
83557SOL     OW52509  14.845  11.372   2.443
83557SOL    HW152510   0.001  11.375   2.353
83557SOL    HW252511  14.864  11.283   2.472
83558SOL     OW52512   7.034   7.052   4.016
83558SOL    HW152513   7.011   7.141   4.042
83558SOL    HW252514   7.070   7.012   4.095
83559SOL     OW52515   1.161   6.757  14.218
83559SOL    HW152516   1.249   6.795  14.220
83559SOL    HW252517   1.138   6.757  14.125
83560SOL     OW52518  10.583   9.221   1.875
83560SOL    HW152519  10.569   9.182   1.789
83560SOL    HW252520  10.640   9.296   1.858
83561SOL     OW52521   5.793  12.570   0.550
83561SOL    HW152522   5.865  12.601   0.494
83561SOL    HW252523   5.725  12.544   0.488
83562SOL     OW52524   0.821   2.149   2.193
83562SOL    HW152525   0.758   2.219   2.210
83562SOL    HW252526   0.822   2.096   2.273
83563SOL     OW52527   6.538   1.191   7.924
83563SOL    HW152528   6.530   1.197   8.019
83563SOL    HW252529   6.534   1.282   7.894
83564SOL     OW52530  14.115  14.323   6.053
83564SOL    HW152531  14.108  14.391   6.120
83564SOL    HW252532  14.147  14.369   5.975
83565SOL     OW52533   1.821   9.015   0.277
83565SOL    HW152534   1.760   8.945   0.256
83565SOL    HW252535   1.815   9.076   0.203
83566SOL     OW52536   8.171   8.716   8.255
83566SOL    HW152537   8.157   8.805   8.287
83566SOL    HW252538   8.091   8.695   8.207
83567SOL     OW52539   2.989   5.518   7.875
83567SOL    HW152540   2.915   5.559   7.830
83567SOL    HW252541   2.999   5.568   7.955
83568SOL     OW52542  14.450  14.852  14.668
83568SOL    HW152543  14.389   0.012  14.732
83568SOL    HW252544  14.531  14.840  14.716
83569SOL     OW52545   6.338   1.896   8.887
83569SOL    HW152546   6.389   1.968   8.924
83569SOL    HW252547   6.404   1.835   8.854
83570SOL     OW52548   1.139   6.313   0.292
83570SOL    HW152549   1.083   6.335   0.217
83570SOL    HW252550   1.142   6.394   0.343
83571SOL     OW52551   1.475   3.543   6.734
83571SOL    HW152552   1.393   3.565   6.779
83571SOL    HW252553   1.455   3.556   6.641
83572SOL     OW52554   0.419  11.111  14.835
83572SOL    HW152555   0.442  11.198  14.867
83572SOL    HW252556   0.493  11.056  14.860
83573SOL     OW52557  12.919  12.544   2.924
83573SOL    HW152558  12.873  12.533   3.007
83573SOL    HW252559  12.866  12.495   2.861
83574SOL     OW52560  14.676  10.525  12.782
83574SOL    HW152561  14.768  10.507  12.802
83574SOL    HW252562  14.670  10.620  12.778
83575SOL     OW52563   6.985   3.723   1.646
83575SOL    HW152564   6.959   3.786   1.713
83575SOL    HW252565   6.908   3.715   1.590
83576SOL     OW52566   9.597   5.591   1.041
83576SOL    HW152567   9.565   5.677   1.067
83576SOL    HW252568   9.589   5.591   0.945
83577SOL     OW52569  11.285  13.159   7.988
83577SOL    HW152570  11.315  13.068   7.986
83577SOL    HW252571  11.298  13.190   7.898
83578SOL     OW52572  14.560   9.920   6.497
83578SOL    HW152573  14.555   9.885   6.586
83578SOL    HW252574  14.469   9.918   6.465
83579SOL     OW52575  12.786   0.714   8.647
83579SOL    HW152576  12.788   0.684   8.556
83579SOL    HW252577  12.752   0.803   8.642
83580SOL     OW52578  14.099  10.921   7.157
83580SOL    HW152579  14.177  10.872   7.183
83580SOL    HW252580  14.133  10.997   7.109
83581SOL     OW52581   3.610  10.390  12.555
83581SOL    HW152582   3.674  10.320  12.545
83581SOL    HW252583   3.636  10.455  12.490
83582SOL     OW52584  10.860   7.407   5.578
83582SOL    HW152585  10.837   7.314   5.588
83582SOL    HW252586  10.877   7.417   5.484
83583SOL     OW52587   5.326   1.769   6.716
83583SOL    HW152588   5.357   1.707   6.650
83583SOL    HW252589   5.405   1.793   6.765
83584SOL     OW52590   9.310  13.436   5.164
83584SOL    HW152591   9.372  13.364   5.148
83584SOL    HW252592   9.226  13.393   5.179
83585SOL     OW52593   7.713  14.796   4.306
83585SOL    HW152594   7.792  14.849   4.316
83585SOL    HW252595   7.733  14.737   4.233
83586SOL     OW52596  11.013   4.463  14.472
83586SOL    HW152597  11.095   4.480  14.426
83586SOL    HW252598  10.952   4.437  14.403
83587SOL     OW52599  10.522  10.400   6.487
83587SOL    HW152600  10.614  10.426   6.490
83587SOL    HW252601  10.498  10.389   6.579
83588SOL     OW52602   7.715   4.258   2.747
83588SOL    HW152603   7.675   4.341   2.719
83588SOL    HW252604   7.717   4.204   2.667
83589SOL     OW52605   7.670   9.771   5.207
83589SOL    HW152606   7.638   9.861   5.209
83589SOL    HW252607   7.736   9.770   5.138
83590SOL     OW52608  13.566   9.750   6.517
83590SOL    HW152609  13.506   9.739   6.590
83590SOL    HW252610  13.633   9.682   6.530
83591SOL     OW52611   4.287   3.483  14.405
83591SOL    HW152612   4.353   3.424  14.367
83591SOL    HW252613   4.243   3.521  14.329
83592SOL     OW52614   8.336   1.699   6.132
83592SOL    HW152615   8.347   1.710   6.227
83592SOL    HW252616   8.401   1.757   6.093
83593SOL     OW52617  10.656  12.471   4.907
83593SOL    HW152618  10.620  12.547   4.861
83593SOL    HW252619  10.665  12.404   4.839
83594SOL     OW52620  10.368   2.996   1.277
83594SOL    HW152621  10.349   2.904   1.258
83594SOL    HW252622  10.304   3.019   1.345
83595SOL     OW52623   4.705   1.805  13.870
83595SOL    HW152624   4.755   1.863  13.812
83595SOL    HW252625   4.698   1.723  13.822
83596SOL     OW52626   8.025   3.077  13.244
83596SOL    HW152627   8.005   3.013  13.175
83596SOL    HW252628   8.118   3.097  13.232
83597SOL     OW52629  11.371   6.738   5.155
83597SOL    HW152630  11.387   6.664   5.097
83597SOL    HW252631  11.282   6.723   5.189
83598SOL     OW52632  11.822   8.707   9.938
83598SOL    HW152633  11.729   8.713   9.961
83598SOL    HW252634  11.866   8.763  10.002
83599SOL     OW52635  13.415   7.129   3.943
83599SOL    HW152636  13.434   7.186   3.868
83599SOL    HW252637  13.486   7.065   3.943
83600SOL     OW52638   3.453  14.220  10.005
83600SOL    HW152639   3.415  14.282   9.943
83600SOL    HW252640   3.465  14.271  10.085
83601SOL     OW52641   3.342   1.140   1.594
83601SOL    HW152642   3.349   1.117   1.686
83601SOL    HW252643   3.433   1.146   1.564
83602SOL     OW52644  11.113   6.324  10.215
83602SOL    HW152645  11.184   6.261  10.223
83602SOL    HW252646  11.040   6.275  10.177
83603SOL     OW52647   8.566   7.800   4.756
83603SOL    HW152648   8.595   7.795   4.847
83603SOL    HW252649   8.523   7.885   4.749
83604SOL     OW52650   1.053   5.934   2.117
83604SOL    HW152651   0.959   5.948   2.132
83604SOL    HW252652   1.083   5.886   2.195
83605SOL     OW52653  12.158   1.854   0.246
83605SOL    HW152654  12.220   1.860   0.318
83605SOL    HW252655  12.165   1.939   0.201
83606SOL     OW52656  12.217   5.439   7.946
83606SOL    HW152657  12.195   5.461   8.037
83606SOL    HW252658  12.295   5.384   7.953
83607SOL     OW52659   1.175   9.585   4.149
83607SOL    HW152660   1.095   9.539   4.176
83607SOL    HW252661   1.221   9.604   4.230
83608SOL     OW52662   5.383  14.238   6.673
83608SOL    HW152663   5.449  14.287   6.721
83608SOL    HW252664   5.421  14.151   6.662
83609SOL     OW52665  14.808   6.316   8.621
83609SOL    HW152666  14.829   6.224   8.605
83609SOL    HW252667   0.015   6.357   8.642
83610SOL     OW52668   4.364   9.774  14.723
83610SOL    HW152669   4.293   9.824  14.763
83610SOL    HW252670   4.323   9.727  14.651
83611SOL     OW52671  10.173  12.945  13.713
83611SOL    HW152672  10.188  12.963  13.806
83611SOL    HW252673  10.160  12.850  13.710
83612SOL     OW52674   8.021  14.828   6.620
83612SOL    HW152675   7.928  14.840   6.637
83612SOL    HW252676   8.048  14.760   6.681
83613SOL     OW52677   3.207   0.620   4.350
83613SOL    HW152678   3.289   0.668   4.348
83613SOL    HW252679   3.206   0.571   4.268
83614SOL     OW52680   3.955   7.651   0.961
83614SOL    HW152681   4.021   7.718   0.952
83614SOL    HW252682   3.919   7.663   1.049
83615SOL     OW52683  13.256  10.794  10.014
83615SOL    HW152684  13.275  10.792   9.920
83615SOL    HW252685  13.331  10.752  10.055
83616SOL     OW52686  14.634   4.971  14.532
83616SOL    HW152687  14.672   5.020  14.460
83616SOL    HW252688  14.642   4.879  14.507
83617SOL     OW52689   6.138   9.835   3.423
83617SOL    HW152690   6.151   9.744   3.397
83617SOL    HW252691   6.220   9.878   3.401
83618SOL     OW52692   8.495   9.908   7.042
83618SOL    HW152693   8.447   9.904   7.125
83618SOL    HW252694   8.527   9.819   7.029
83619SOL     OW52695   0.834   8.254   7.989
83619SOL    HW152696   0.888   8.184   8.025
83619SOL    HW252697   0.870   8.334   8.028
83620SOL     OW52698   7.468   0.796   4.330
83620SOL    HW152699   7.471   0.801   4.235
83620SOL    HW252700   7.451   0.886   4.358
83621SOL     OW52701   2.243   6.640   9.917
83621SOL    HW152702   2.253   6.726   9.877
83621SOL    HW252703   2.300   6.642   9.993
83622SOL     OW52704  10.849   0.020   7.587
83622SOL    HW152705  10.900  14.818   7.568
83622SOL    HW252706  10.833   0.060   7.501
83623SOL     OW52707   7.472   4.554   7.556
83623SOL    HW152708   7.521   4.613   7.498
83623SOL    HW252709   7.491   4.466   7.523
83624SOL     OW52710   2.334   5.726   6.875
83624SOL    HW152711   2.407   5.754   6.821
83624SOL    HW252712   2.370   5.662   6.935
83625SOL     OW52713   2.330   4.567   4.068
83625SOL    HW152714   2.400   4.595   4.128
83625SOL    HW252715   2.279   4.503   4.119
83626SOL     OW52716  11.690  11.505  13.144
83626SOL    HW152717  11.702  11.410  13.152
83626SOL    HW252718  11.736  11.541  13.220
83627SOL     OW52719  10.849   7.661   6.367
83627SOL    HW152720  10.822   7.740   6.320
83627SOL    HW252721  10.856   7.688   6.458
83628SOL     OW52722   9.685   1.394  13.464
83628SOL    HW152723   9.611   1.357  13.414
83628SOL    HW252724   9.728   1.317  13.502
83629SOL     OW52725   3.231   7.984  11.673
83629SOL    HW152726   3.176   7.908  11.691
83629SOL    HW252727   3.170   8.058  11.670
83630SOL     OW52728  12.999   1.131   2.708
83630SOL    HW152729  12.919   1.091   2.673
83630SOL    HW252730  13.063   1.059   2.709
83631SOL     OW52731   3.866  10.390   8.160
83631SOL    HW152732   3.787  10.373   8.212
83631SOL    HW252733   3.850  10.474   8.118
83632SOL     OW52734   0.388   3.409  14.535
83632SOL    HW152735   0.478   3.398  14.566
83632SOL    HW252736   0.334   3.387  14.611
83633SOL     OW52737   4.644   5.800   9.981
83633SOL    HW152738   4.633   5.872   9.919
83633SOL    HW252739   4.663   5.841  10.065
83634SOL     OW52740   0.270   0.302   0.444
83634SOL    HW152741   0.300   0.294   0.535
83634SOL    HW252742   0.198   0.239   0.437
83635SOL     OW52743   8.225   6.079   5.355
83635SOL    HW152744   8.283   6.143   5.314
83635SOL    HW252745   8.251   5.995   5.318
83636SOL     OW52746  13.594  12.717   0.976
83636SOL    HW152747  13.649  12.690   1.050
83636SOL    HW252748  13.582  12.637   0.925
83637SOL     OW52749   6.538   1.109   6.532
83637SOL    HW152750   6.605   1.041   6.536
83637SOL    HW252751   6.544   1.143   6.442
83638SOL     OW52752   1.059   3.324   5.249
83638SOL    HW152753   1.044   3.340   5.156
83638SOL    HW252754   1.154   3.322   5.258
83639SOL     OW52755  14.494   7.030   5.324
83639SOL    HW152756  14.433   7.034   5.398
83639SOL    HW252757  14.521   6.939   5.320
83640SOL     OW52758  10.143   8.381  11.376
83640SOL    HW152759  10.142   8.410  11.467
83640SOL    HW252760  10.095   8.448  11.328
83641SOL     OW52761  13.537   5.826   4.778
83641SOL    HW152762  13.529   5.921   4.766
83641SOL    HW252763  13.512   5.789   4.693
83642SOL     OW52764   3.830   7.898  11.778
83642SOL    HW152765   3.746   7.860  11.753
83642SOL    HW252766   3.893   7.827  11.765
83643SOL     OW52767   0.097   5.385   3.983
83643SOL    HW152768   0.187   5.417   3.987
83643SOL    HW252769   0.081   5.345   4.068
83644SOL     OW52770   6.363   9.223   5.121
83644SOL    HW152771   6.332   9.136   5.143
83644SOL    HW252772   6.293   9.282   5.150
83645SOL     OW52773   1.301  13.040  12.752
83645SOL    HW152774   1.320  12.946  12.752
83645SOL    HW252775   1.324  13.069  12.840
83646SOL     OW52776  10.332   8.324   7.282
83646SOL    HW152777  10.336   8.245   7.228
83646SOL    HW252778  10.272   8.302   7.353
83647SOL     OW52779   0.043   1.980   2.949
83647SOL    HW152780   0.121   2.034   2.944
83647SOL    HW252781  14.849   2.036   2.916
83648SOL     OW52782   7.754   1.938   8.645
83648SOL    HW152783   7.842   1.943   8.683
83648SOL    HW252784   7.739   2.026   8.609
83649SOL     OW52785  13.479   6.996  13.985
83649SOL    HW152786  13.438   7.073  13.946
83649SOL    HW252787  13.534   7.032  14.054
83650SOL     OW52788  12.078   9.637   7.648
83650SOL    HW152789  12.098   9.575   7.579
83650SOL    HW252790  12.030   9.586   7.713
83651SOL     OW52791   6.926   1.339   9.278
83651SOL    HW152792   6.843   1.353   9.233
83651SOL    HW252793   6.920   1.250   9.312
83652SOL     OW52794   8.106   8.821  12.269
83652SOL    HW152795   8.028   8.877  12.272
83652SOL    HW252796   8.103   8.780  12.182
83653SOL     OW52797  13.506  13.573  12.811
83653SOL    HW152798  13.507  13.633  12.886
83653SOL    HW252799  13.413  13.556  12.795
83654SOL     OW52800   0.990  13.766   2.292
83654SOL    HW152801   1.005  13.860   2.307
83654SOL    HW252802   1.076  13.727   2.304
83655SOL     OW52803   4.314  12.219   2.084
83655SOL    HW152804   4.319  12.212   1.988
83655SOL    HW252805   4.365  12.145   2.116
83656SOL     OW52806   1.216   5.278   0.765
83656SOL    HW152807   1.143   5.321   0.721
83656SOL    HW252808   1.206   5.303   0.857
83657SOL     OW52809   4.275   0.247   0.314
83657SOL    HW152810   4.200   0.288   0.357
83657SOL    HW252811   4.296   0.172   0.369
83658SOL     OW52812  11.531  13.317  10.123
83658SOL    HW152813  11.481  13.365  10.057
83658SOL    HW252814  11.479  13.239  10.141
83659SOL     OW52815  14.798  11.144   7.619
83659SOL    HW152816  14.829  11.218   7.566
83659SOL    HW252817  14.875  11.089   7.631
83660SOL     OW52818  13.185   2.513  12.460
83660SOL    HW152819  13.103   2.562  12.463
83660SOL    HW252820  13.237   2.547  12.533
83661SOL     OW52821  13.153   3.754   9.618
83661SOL    HW152822  13.143   3.671   9.571
83661SOL    HW252823  13.239   3.786   9.594
83662SOL     OW52824   9.793   3.404   4.986
83662SOL    HW152825   9.781   3.309   4.989
83662SOL    HW252826   9.881   3.418   5.022
83663SOL     OW52827   7.459   5.876  10.030
83663SOL    HW152828   7.409   5.954  10.006
83663SOL    HW252829   7.469   5.882  10.125
83664SOL     OW52830  13.562   8.035   8.868
83664SOL    HW152831  13.562   7.954   8.817
83664SOL    HW252832  13.639   8.083   8.836
83665SOL     OW52833   1.128   4.919   8.676
83665SOL    HW152834   1.055   4.857   8.675
83665SOL    HW252835   1.096   4.993   8.623
83666SOL     OW52836  12.087   0.040  11.003
83666SOL    HW152837  12.090   0.072  11.093
83666SOL    HW252838  11.995   0.016  10.989
83667SOL     OW52839   7.063   7.251   8.510
83667SOL    HW152840   6.995   7.232   8.445
83667SOL    HW252841   7.139   7.277   8.458
83668SOL     OW52842   5.170   9.391   8.998
83668SOL    HW152843   5.162   9.377   9.093
83668SOL    HW252844   5.204   9.480   8.990
83669SOL     OW52845   9.899  14.058   0.394
83669SOL    HW152846   9.918  13.965   0.393
83669SOL    HW252847   9.894  14.084   0.302
83670SOL     OW52848  12.019  12.984   4.091
83670SOL    HW152849  11.976  13.047   4.033
83670SOL    HW252850  11.948  12.933   4.128
83671SOL     OW52851   2.703  11.590   4.560
83671SOL    HW152852   2.626  11.533   4.557
83671SOL    HW252853   2.724  11.598   4.653
83672SOL     OW52854  13.962   7.194   6.358
83672SOL    HW152855  14.025   7.263   6.375
83672SOL    HW252856  14.004   7.114   6.390
83673SOL     OW52857   6.736   5.801   8.147
83673SOL    HW152858   6.770   5.765   8.229
83673SOL    HW252859   6.673   5.736   8.116
83674SOL     OW52860   7.925  12.275  10.285
83674SOL    HW152861   7.952  12.308  10.370
83674SOL    HW252862   7.947  12.345  10.224
83675SOL     OW52863  13.052  13.832   3.853
83675SOL    HW152864  13.041  13.808   3.945
83675SOL    HW252865  12.974  13.795   3.810
83676SOL     OW52866   4.843  14.407   7.474
83676SOL    HW152867   4.933  14.431   7.451
83676SOL    HW252868   4.806  14.486   7.514
83677SOL     OW52869   4.578   9.993   3.215
83677SOL    HW152870   4.668   9.974   3.242
83677SOL    HW252871   4.559  10.078   3.254
83678SOL     OW52872   5.585   6.746   2.267
83678SOL    HW152873   5.510   6.709   2.219
83678SOL    HW252874   5.551   6.826   2.306
83679SOL     OW52875  10.606  14.783   7.550
83679SOL    HW152876  10.675  14.847   7.568
83679SOL    HW252877  10.639  14.701   7.588
83680SOL     OW52878  11.759   0.278  11.116
83680SOL    HW152879  11.676   0.327  11.109
83680SOL    HW252880  11.813   0.330  11.175
83681SOL     OW52881   9.971  13.620   8.131
83681SOL    HW152882   9.945  13.529   8.147
83681SOL    HW252883   9.891  13.664   8.103
83682SOL     OW52884   8.987   0.207  13.077
83682SOL    HW152885   9.047   0.263  13.126
83682SOL    HW252886   8.914   0.191  13.137
83683SOL     OW52887   0.059   1.521   0.014
83683SOL    HW152888  14.841   1.530  14.874
83683SOL    HW252889   0.099   1.529  14.803
83684SOL     OW52890  14.616   2.815  11.641
83684SOL    HW152891  14.549   2.796  11.576
83684SOL    HW252892  14.655   2.730  11.661
83685SOL     OW52893  10.498   0.136  13.101
83685SOL    HW152894  10.473   0.219  13.140
83685SOL    HW252895  10.586   0.151  13.067
83686SOL     OW52896  10.473   0.311  10.520
83686SOL    HW152897  10.377   0.315  10.517
83686SOL    HW252898  10.492   0.219  10.542
83687SOL     OW52899  12.136  12.258  11.818
83687SOL    HW152900  12.210  12.279  11.762
83687SOL    HW252901  12.121  12.338  11.870
83688SOL     OW52902   5.513  10.358  10.495
83688SOL    HW152903   5.423  10.347  10.523
83688SOL    HW252904   5.508  10.420  10.422
83689SOL     OW52905   0.685   1.349  12.528
83689SOL    HW152906   0.694   1.333  12.434
83689SOL    HW252907   0.641   1.271  12.561
83690SOL     OW52908  13.681   4.272  11.570
83690SOL    HW152909  13.777   4.275  11.572
83690SOL    HW252910  13.660   4.272  11.476
83691SOL     OW52911   0.188  12.926   3.319
83691SOL    HW152912   0.152  13.015   3.314
83691SOL    HW252913   0.114  12.869   3.295
83692SOL     OW52914   0.386  12.481   2.125
83692SOL    HW152915   0.291  12.492   2.122
83692SOL    HW252916   0.420  12.569   2.138
83693SOL     OW52917   2.991   1.781   2.619
83693SOL    HW152918   3.059   1.715   2.631
83693SOL    HW252919   3.037   1.855   2.579
83694SOL     OW52920   3.874  11.983   1.293
83694SOL    HW152921   3.824  11.980   1.374
83694SOL    HW252922   3.894  12.076   1.281
83695SOL     OW52923   8.119   3.179   6.989
83695SOL    HW152924   8.121   3.099   6.936
83695SOL    HW252925   8.092   3.247   6.928
83696SOL     OW52926  14.639   9.402  11.102
83696SOL    HW152927  14.609   9.476  11.154
83696SOL    HW252928  14.575   9.394  11.031
83697SOL     OW52929   8.255   9.683   1.828
83697SOL    HW152930   8.229   9.647   1.913
83697SOL    HW252931   8.182   9.664   1.770
83698SOL     OW52932  10.157  10.750   8.263
83698SOL    HW152933  10.200  10.667   8.243
83698SOL    HW252934  10.137  10.788   8.177
83699SOL     OW52935   5.252  14.817  13.678
83699SOL    HW152936   5.250  14.759  13.754
83699SOL    HW252937   5.219   0.024  13.710
83700SOL     OW52938   5.708   4.729   1.111
83700SOL    HW152939   5.628   4.721   1.163
83700SOL    HW252940   5.714   4.822   1.089
83701SOL     OW52941   4.176   7.211  13.200
83701SOL    HW152942   4.230   7.165  13.136
83701SOL    HW252943   4.229   7.286  13.227
83702SOL     OW52944  11.622   9.017   1.019
83702SOL    HW152945  11.617   8.961   1.096
83702SOL    HW252946  11.597   8.960   0.946
83703SOL     OW52947   9.234  12.908   5.716
83703SOL    HW152948   9.277  12.857   5.647
83703SOL    HW252949   9.259  12.865   5.797
83704SOL     OW52950   0.108  14.407   3.277
83704SOL    HW152951   0.021  14.368   3.275
83704SOL    HW252952   0.118  14.447   3.190
83705SOL     OW52953   4.224  12.555   0.163
83705SOL    HW152954   4.292  12.619   0.143
83705SOL    HW252955   4.264  12.497   0.227
83706SOL     OW52956  10.396  12.594   5.603
83706SOL    HW152957  10.360  12.544   5.676
83706SOL    HW252958  10.391  12.685   5.632
83707SOL     OW52959   2.154   7.672   3.910
83707SOL    HW152960   2.137   7.594   3.858
83707SOL    HW252961   2.245   7.663   3.938
83708SOL     OW52962   3.726  14.538   4.905
83708SOL    HW152963   3.640  14.532   4.945
83708SOL    HW252964   3.764  14.451   4.917
83709SOL     OW52965   4.740   1.483   7.656
83709SOL    HW152966   4.657   1.453   7.692
83709SOL    HW252967   4.774   1.408   7.608
83710SOL     OW52968   5.056   3.359  11.898
83710SOL    HW152969   5.136   3.365  11.951
83710SOL    HW252970   5.057   3.271  11.862
83711SOL     OW52971  14.164   5.849   5.076
83711SOL    HW152972  14.186   5.797   4.998
83711SOL    HW252973  14.222   5.816   5.144
83712SOL     OW52974   3.628   4.682   4.152
83712SOL    HW152975   3.659   4.677   4.243
83712SOL    HW252976   3.631   4.776   4.132
83713SOL     OW52977   4.975   4.558   0.388
83713SOL    HW152978   5.043   4.586   0.327
83713SOL    HW252979   4.914   4.507   0.335
83714SOL     OW52980   4.772   4.767  14.325
83714SOL    HW152981   4.794   4.677  14.301
83714SOL    HW252982   4.847   4.819  14.295
83715SOL     OW52983  13.065   8.569   3.380
83715SOL    HW152984  13.072   8.567   3.285
83715SOL    HW252985  13.032   8.482   3.404
83716SOL     OW52986   4.156   2.949  13.930
83716SOL    HW152987   4.062   2.938  13.945
83716SOL    HW252988   4.179   3.030  13.977
83717SOL     OW52989  13.707  13.912   4.653
83717SOL    HW152990  13.694  13.817   4.652
83717SOL    HW252991  13.797  13.922   4.685
83718SOL     OW52992   9.449   9.088   7.883
83718SOL    HW152993   9.367   9.037   7.882
83718SOL    HW252994   9.425   9.171   7.922
83719SOL     OW52995   4.249  11.180  12.081
83719SOL    HW152996   4.241  11.260  12.133
83719SOL    HW252997   4.171  11.180  12.026
83720SOL     OW52998   6.128   4.528   1.917
83720SOL    HW152999   6.043   4.538   1.874
83720SOL    HW253000   6.126   4.439   1.953
83721SOL     OW53001  10.796  14.195  11.305
83721SOL    HW153002  10.882  14.235  11.290
83721SOL    HW253003  10.736  14.247  11.251
83722SOL     OW53004   9.257   5.083   7.507
83722SOL    HW153005   9.178   5.125   7.540
83722SOL    HW253006   9.282   5.021   7.575
83723SOL     OW53007  10.805   4.104   1.804
83723SOL    HW153008  10.840   4.151   1.728
83723SOL    HW253009  10.803   4.012   1.776
83724SOL     OW53010   2.516   7.800   6.245
83724SOL    HW153011   2.574   7.727   6.265
83724SOL    HW253012   2.457   7.767   6.178
83725SOL     OW53013   6.326   2.526   6.859
83725SOL    HW153014   6.324   2.511   6.954
83725SOL    HW253015   6.342   2.440   6.821
83726SOL     OW53016  14.337  11.414   9.105
83726SOL    HW153017  14.389  11.352   9.156
83726SOL    HW253018  14.400  11.479   9.075
83727SOL     OW53019  14.254   3.056   9.103
83727SOL    HW153020  14.350   3.047   9.103
83727SOL    HW253021  14.225   2.997   9.173
83728SOL     OW53022   5.242  11.679   1.423
83728SOL    HW153023   5.314  11.617   1.430
83728SOL    HW253024   5.205  11.664   1.336
83729SOL     OW53025   2.327  11.525   5.362
83729SOL    HW153026   2.414  11.503   5.395
83729SOL    HW253027   2.313  11.616   5.388
83730SOL     OW53028   8.121   3.990  13.697
83730SOL    HW153029   8.154   4.066  13.648
83730SOL    HW253030   8.041   4.022  13.739
83731SOL     OW53031   6.018  11.999  12.437
83731SOL    HW153032   5.981  11.914  12.415
83731SOL    HW253033   6.108  11.979  12.464
83732SOL     OW53034   6.430  14.816   6.676
83732SOL    HW153035   6.477   0.021   6.655
83732SOL    HW253036   6.489  14.769   6.735
83733SOL     OW53037   3.880  10.689   8.773
83733SOL    HW153038   3.884  10.669   8.679
83733SOL    HW253039   3.911  10.609   8.816
83734SOL     OW53040  11.340  14.671   4.724
83734SOL    HW153041  11.412  14.676   4.661
83734SOL    HW253042  11.298  14.587   4.705
83735SOL     OW53043   5.709   7.768   4.489
83735SOL    HW153044   5.652   7.792   4.562
83735SOL    HW253045   5.648   7.747   4.418
83736SOL     OW53046   7.924   4.830  13.315
83736SOL    HW153047   7.933   4.791  13.228
83736SOL    HW253048   7.851   4.783  13.355
83737SOL     OW53049   5.638   4.933   6.343
83737SOL    HW153050   5.596   4.857   6.383
83737SOL    HW253051   5.717   4.948   6.396
83738SOL     OW53052  10.069   4.559  11.534
83738SOL    HW153053  10.011   4.510  11.477
83738SOL    HW253054  10.032   4.549  11.622
83739SOL     OW53055  12.048   7.893   7.430
83739SOL    HW153056  12.116   7.938   7.480
83739SOL    HW253057  12.094   7.856   7.354
83740SOL     OW53058  13.908   7.747   6.060
83740SOL    HW153059  13.944   7.659   6.050
83740SOL    HW253060  13.818   7.739   6.030
83741SOL     OW53061  12.502  13.130  12.872
83741SOL    HW153062  12.436  13.064  12.852
83741SOL    HW253063  12.452  13.210  12.890
83742SOL     OW53064  11.901   9.392   1.754
83742SOL    HW153065  11.913   9.370   1.846
83742SOL    HW253066  11.973   9.452   1.734
83743SOL     OW53067   6.530   5.673  13.160
83743SOL    HW153068   6.443   5.643  13.186
83743SOL    HW253069   6.554   5.738  13.225
83744SOL     OW53070   3.994  10.447   8.851
83744SOL    HW153071   4.073  10.500   8.859
83744SOL    HW253072   4.005  10.400   8.768
83745SOL     OW53073   4.024   7.030  14.838
83745SOL    HW153074   4.065   6.966  14.780
83745SOL    HW253075   4.082   7.032   0.039
83746SOL     OW53076   1.594   6.041   5.617
83746SOL    HW153077   1.635   5.954   5.611
83746SOL    HW253078   1.544   6.049   5.535
83747SOL     OW53079   4.161   8.548   1.648
83747SOL    HW153080   4.236   8.563   1.705
83747SOL    HW253081   4.085   8.551   1.707
83748SOL     OW53082  12.275  11.376   2.138
83748SOL    HW153083  12.351  11.405   2.189
83748SOL    HW253084  12.205  11.435   2.165
83749SOL     OW53085   8.529   1.408  10.986
83749SOL    HW153086   8.482   1.395  11.068
83749SOL    HW253087   8.460   1.415  10.920
83750SOL     OW53088   8.622   1.404   7.716
83750SOL    HW153089   8.554   1.336   7.714
83750SOL    HW253090   8.604   1.458   7.639
83751SOL     OW53091   2.808   6.331   2.956
83751SOL    HW153092   2.877   6.319   3.022
83751SOL    HW253093   2.849   6.308   2.873
83752SOL     OW53094  12.870   5.192   0.643
83752SOL    HW153095  12.779   5.178   0.672
83752SOL    HW253096  12.906   5.104   0.638
83753SOL     OW53097   6.935   8.619   6.643
83753SOL    HW153098   6.842   8.611   6.667
83753SOL    HW253099   6.980   8.625   6.727
83754SOL     OW53100  12.296   2.511  11.733
83754SOL    HW153101  12.312   2.506  11.639
83754SOL    HW253102  12.238   2.586  11.744
83755SOL     OW53103   4.940   9.174   5.336
83755SOL    HW153104   5.012   9.155   5.396
83755SOL    HW253105   4.964   9.258   5.295
83756SOL     OW53106   7.977   2.587   4.085
83756SOL    HW153107   8.002   2.568   3.995
83756SOL    HW253108   7.885   2.560   4.091
83757SOL     OW53109   8.319   9.979   8.467
83757SOL    HW153110   8.315  10.074   8.464
83757SOL    HW253111   8.310   9.951   8.376
83758SOL     OW53112   0.142  10.252   7.137
83758SOL    HW153113   0.148  10.231   7.044
83758SOL    HW253114   0.229  10.283   7.161
83759SOL     OW53115   1.873  13.411   1.477
83759SOL    HW153116   1.832  13.328   1.453
83759SOL    HW253117   1.962  13.386   1.504
83760SOL     OW53118   8.345   5.160   1.959
83760SOL    HW153119   8.370   5.252   1.952
83760SOL    HW253120   8.252   5.162   1.981
83761SOL     OW53121   6.698   3.449   6.828
83761SOL    HW153122   6.616   3.490   6.854
83761SOL    HW253123   6.706   3.372   6.885
83762SOL     OW53124   1.056  10.867   9.968
83762SOL    HW153125   1.015  10.810   9.903
83762SOL    HW253126   1.033  10.828  10.053
83763SOL     OW53127  10.262   8.898   2.922
83763SOL    HW153128  10.172   8.880   2.950
83763SOL    HW253129  10.304   8.811   2.919
83764SOL     OW53130   3.870   0.361   5.237
83764SOL    HW153131   3.800   0.350   5.172
83764SOL    HW253132   3.928   0.286   5.222
83765SOL     OW53133   6.334  11.458   2.725
83765SOL    HW153134   6.409  11.450   2.784
83765SOL    HW253135   6.266  11.499   2.779
83766SOL     OW53136   0.721   6.990   7.616
83766SOL    HW153137   0.730   7.040   7.698
83766SOL    HW253138   0.629   7.000   7.592
83767SOL     OW53139  12.909   9.127   1.160
83767SOL    HW153140  12.982   9.182   1.132
83767SOL    HW253141  12.948   9.062   1.218
83768SOL     OW53142  13.003   1.052  10.794
83768SOL    HW153143  13.009   1.131  10.741
83768SOL    HW253144  13.031   1.080  10.881
83769SOL     OW53145   6.313  11.289   8.889
83769SOL    HW153146   6.390  11.329   8.848
83769SOL    HW253147   6.264  11.363   8.925
83770SOL     OW53148   9.743   1.809  14.691
83770SOL    HW153149   9.709   1.765  14.768
83770SOL    HW253150   9.830   1.771  14.678
83771SOL     OW53151   5.789   7.562   0.121
83771SOL    HW153152   5.713   7.600   0.077
83771SOL    HW253153   5.781   7.468   0.105
83772SOL     OW53154  14.438  12.470  11.813
83772SOL    HW153155  14.361  12.464  11.869
83772SOL    HW253156  14.512  12.460  11.873
83773SOL     OW53157  13.740   9.835   2.706
83773SOL    HW153158  13.707   9.843   2.796
83773SOL    HW253159  13.781   9.919   2.688
83774SOL     OW53160   1.336   9.690   7.966
83774SOL    HW153161   1.363   9.643   8.045
83774SOL    HW253162   1.337   9.623   7.897
83775SOL     OW53163   3.804  11.513   9.478
83775SOL    HW153164   3.836  11.524   9.389
83775SOL    HW253165   3.773  11.600   9.504
83776SOL     OW53166   3.074   9.685   3.649
83776SOL    HW153167   3.169   9.677   3.638
83776SOL    HW253168   3.049   9.756   3.590
83777SOL     OW53169   7.986   5.256   7.323
83777SOL    HW153170   8.052   5.224   7.384
83777SOL    HW253171   7.925   5.305   7.379
83778SOL     OW53172  12.436  12.306   6.421
83778SOL    HW153173  12.422  12.325   6.328
83778SOL    HW253174  12.404  12.384   6.466
83779SOL     OW53175  10.460   9.299  12.408
83779SOL    HW153176  10.423   9.214  12.383
83779SOL    HW253177  10.534   9.277  12.466
83780SOL     OW53178  12.122   4.233   0.647
83780SOL    HW153179  12.197   4.206   0.700
83780SOL    HW253180  12.077   4.299   0.700
83781SOL     OW53181   2.563   2.764   7.719
83781SOL    HW153182   2.635   2.709   7.690
83781SOL    HW253183   2.594   2.854   7.706
83782SOL     OW53184   7.099   0.309  12.913
83782SOL    HW153185   7.122   0.256  12.837
83782SOL    HW253186   7.013   0.277  12.939
83783SOL     OW53187   8.457   4.211  12.398
83783SOL    HW153188   8.504   4.155  12.336
83783SOL    HW253189   8.521   4.227  12.468
83784SOL     OW53190   8.667   7.278   7.471
83784SOL    HW153191   8.575   7.253   7.479
83784SOL    HW253192   8.701   7.273   7.561
83785SOL     OW53193   7.196   3.860  13.105
83785SOL    HW153194   7.287   3.875  13.132
83785SOL    HW253195   7.175   3.933  13.047
83786SOL     OW53196   0.475   0.249   0.251
83786SOL    HW153197   0.538   0.319   0.268
83786SOL    HW253198   0.407   0.261   0.316
83787SOL     OW53199  13.624   3.705   4.640
83787SOL    HW153200  13.548   3.750   4.604
83787SOL    HW253201  13.699   3.753   4.605
83788SOL     OW53202   7.410   6.418   7.735
83788SOL    HW153203   7.360   6.425   7.816
83788SOL    HW253204   7.493   6.462   7.755
83789SOL     OW53205  12.848  10.862   9.087
83789SOL    HW153206  12.923  10.875   9.145
83789SOL    HW253207  12.773  10.892   9.138
83790SOL     OW53208   0.775   5.923   2.834
83790SOL    HW153209   0.817   5.916   2.920
83790SOL    HW253210   0.844   5.957   2.777
83791SOL     OW53211   0.529   3.089  10.123
83791SOL    HW153212   0.475   3.049  10.055
83791SOL    HW253213   0.594   3.023  10.145
83792SOL     OW53214  13.659   1.920   5.512
83792SOL    HW153215  13.580   1.971   5.533
83792SOL    HW253216  13.626   1.834   5.485
83793SOL     OW53217   1.275   7.632   5.007
83793SOL    HW153218   1.240   7.709   5.051
83793SOL    HW253219   1.220   7.560   5.037
83794SOL     OW53220   3.034  13.856   5.271
83794SOL    HW153221   3.082  13.785   5.229
83794SOL    HW253222   2.995  13.816   5.349
83795SOL     OW53223   2.557   2.482   3.313
83795SOL    HW153224   2.540   2.388   3.315
83795SOL    HW253225   2.474   2.522   3.341
83796SOL     OW53226   8.346   0.351   2.858
83796SOL    HW153227   8.302   0.327   2.776
83796SOL    HW253228   8.419   0.290   2.864
83797SOL     OW53229   3.655   1.230  11.259
83797SOL    HW153230   3.595   1.157  11.276
83797SOL    HW253231   3.638   1.254  11.168
83798SOL     OW53232   3.666   9.558   8.017
83798SOL    HW153233   3.656   9.475   8.065
83798SOL    HW253234   3.596   9.556   7.952
83799SOL     OW53235  10.050   3.321   6.830
83799SOL    HW153236  10.083   3.326   6.920
83799SOL    HW253237   9.972   3.267   6.836
83800SOL     OW53238  12.191  14.631  11.756
83800SOL    HW153239  12.099  14.640  11.729
83800SOL    HW253240  12.188  14.576  11.834
83801SOL     OW53241   7.537   0.660   3.372
83801SOL    HW153242   7.605   0.624   3.429
83801SOL    HW253243   7.520   0.747   3.408
83802SOL     OW53244   2.237   5.406   3.836
83802SOL    HW153245   2.280   5.469   3.779
83802SOL    HW253246   2.144   5.423   3.826
83803SOL     OW53247  12.659   1.044   6.320
83803SOL    HW153248  12.625   1.034   6.409
83803SOL    HW253249  12.736   0.988   6.317
83804SOL     OW53250   5.471   8.915   6.009
83804SOL    HW153251   5.505   8.999   5.977
83804SOL    HW253252   5.407   8.940   6.076
83805SOL     OW53253   2.699   9.803   2.060
83805SOL    HW153254   2.742   9.774   1.979
83805SOL    HW253255   2.769   9.802   2.126
83806SOL     OW53256  10.206  13.906  14.244
83806SOL    HW153257  10.185  13.952  14.163
83806SOL    HW253258  10.244  13.823  14.215
83807SOL     OW53259   7.690   4.946   6.915
83807SOL    HW153260   7.757   5.013   6.901
83807SOL    HW253261   7.739   4.865   6.927
83808SOL     OW53262   7.956  13.436   8.375
83808SOL    HW153263   7.932  13.496   8.304
83808SOL    HW253264   7.879  13.380   8.385
83809SOL     OW53265  14.625   6.195  14.733
83809SOL    HW153266  14.676   6.153  14.663
83809SOL    HW253267  14.691   6.228  14.794
83810SOL     OW53268   9.112   1.159   0.622
83810SOL    HW153269   9.127   1.107   0.701
83810SOL    HW253270   9.198   1.191   0.597
83811SOL     OW53271   8.237   7.353   5.458
83811SOL    HW153272   8.321   7.315   5.485
83811SOL    HW253273   8.189   7.364   5.539
83812SOL     OW53274   2.706   2.331   8.516
83812SOL    HW153275   2.763   2.394   8.471
83812SOL    HW253276   2.653   2.292   8.447
83813SOL     OW53277   5.122  11.996   9.650
83813SOL    HW153278   5.160  11.913   9.680
83813SOL    HW253279   5.048  12.011   9.709
83814SOL     OW53280  14.250   2.821  12.529
83814SOL    HW153281  14.282   2.785  12.447
83814SOL    HW253282  14.312   2.889  12.552
83815SOL     OW53283   3.155   9.503   1.755
83815SOL    HW153284   3.122   9.567   1.691
83815SOL    HW253285   3.160   9.421   1.706
83816SOL     OW53286  11.839   0.443  10.462
83816SOL    HW153287  11.855   0.494  10.382
83816SOL    HW253288  11.856   0.504  10.533
83817SOL     OW53289  14.031   7.743  11.739
83817SOL    HW153290  14.054   7.695  11.660
83817SOL    HW253291  14.112   7.788  11.765
83818SOL     OW53292   1.610   6.576   3.474
83818SOL    HW153293   1.621   6.519   3.550
83818SOL    HW253294   1.628   6.664   3.507
83819SOL     OW53295  11.145  13.481   9.246
83819SOL    HW153296  11.176  13.558   9.294
83819SOL    HW253297  11.219  13.455   9.192
83820SOL     OW53298   1.125  14.537   2.615
83820SOL    HW153299   1.205  14.573   2.578
83820SOL    HW253300   1.063  14.610   2.614
83821SOL     OW53301  14.686   5.275  13.668
83821SOL    HW153302  14.769   5.236  13.693
83821SOL    HW253303  14.645   5.299  13.751
83822SOL     OW53304   3.443  14.121   5.522
83822SOL    HW153305   3.391  14.153   5.449
83822SOL    HW253306   3.509  14.189   5.536
83823SOL     OW53307   5.715  13.194   1.645
83823SOL    HW153308   5.785  13.259   1.651
83823SOL    HW253309   5.648  13.236   1.592
83824SOL     OW53310   1.931  10.904   9.132
83824SOL    HW153311   1.846  10.895   9.175
83824SOL    HW253312   1.970  10.982   9.173
83825SOL     OW53313   0.385   7.489  10.799
83825SOL    HW153314   0.419   7.406  10.832
83825SOL    HW253315   0.425   7.500  10.713
83826SOL     OW53316   3.092   4.584  11.702
83826SOL    HW153317   3.148   4.578  11.779
83826SOL    HW253318   3.116   4.508  11.648
83827SOL     OW53319   8.058  12.303   7.564
83827SOL    HW153320   8.103  12.384   7.588
83827SOL    HW253321   8.015  12.274   7.644
83828SOL     OW53322   8.932   9.853   6.324
83828SOL    HW153323   9.020   9.886   6.342
83828SOL    HW253324   8.878   9.889   6.394
83829SOL     OW53325  13.890   1.887   4.521
83829SOL    HW153326  13.967   1.835   4.542
83829SOL    HW253327  13.862   1.923   4.605
83830SOL     OW53328   1.602   6.894   8.179
83830SOL    HW153329   1.599   6.801   8.157
83830SOL    HW253330   1.510   6.919   8.190
83831SOL     OW53331   8.259  13.608   4.120
83831SOL    HW153332   8.303  13.575   4.042
83831SOL    HW253333   8.315  13.678   4.152
83832SOL     OW53334  12.969  13.058   6.290
83832SOL    HW153335  12.874  13.056   6.301
83832SOL    HW253336  12.992  12.970   6.259
83833SOL     OW53337  10.867   4.437  14.256
83833SOL    HW153338  10.906   4.473  14.176
83833SOL    HW253339  10.842   4.348  14.232
83834SOL     OW53340   5.316   7.269   1.278
83834SOL    HW153341   5.371   7.206   1.326
83834SOL    HW253342   5.328   7.245   1.186
83835SOL     OW53343   6.269   5.136  10.964
83835SOL    HW153344   6.237   5.179  10.884
83835SOL    HW253345   6.242   5.045  10.954
83836SOL     OW53346   7.293   0.453   2.366
83836SOL    HW153347   7.283   0.507   2.445
83836SOL    HW253348   7.206   0.417   2.350
83837SOL     OW53349   3.921  13.374   1.632
83837SOL    HW153350   3.940  13.281   1.614
83837SOL    HW253351   3.947  13.386   1.723
83838SOL     OW53352   0.984  11.360   6.169
83838SOL    HW153353   1.066  11.354   6.120
83838SOL    HW253354   0.921  11.309   6.118
83839SOL     OW53355   5.716  11.734   2.704
83839SOL    HW153356   5.623  11.711   2.696
83839SOL    HW253357   5.729  11.745   2.799
83840SOL     OW53358   2.371   0.663   2.253
83840SOL    HW153359   2.395   0.624   2.338
83840SOL    HW253360   2.442   0.725   2.235
83841SOL     OW53361   4.812   0.043   7.177
83841SOL    HW153362   4.826   0.067   7.268
83841SOL    HW253363   4.891  14.870   7.152
83842SOL     OW53364   9.757   9.101   5.693
83842SOL    HW153365   9.806   9.160   5.635
83842SOL    HW253366   9.743   9.022   5.642
83843SOL     OW53367   4.013  13.474   8.274
83843SOL    HW153368   3.942  13.487   8.211
83843SOL    HW253369   4.092  13.503   8.228
83844SOL     OW53370   3.643   0.012  14.449
83844SOL    HW153371   3.581   0.034  14.519
83844SOL    HW253372   3.719   0.067  14.466
83845SOL     OW53373   0.928   7.749   4.994
83845SOL    HW153374   0.955   7.739   4.903
83845SOL    HW253375   0.915   7.843   5.005
83846SOL     OW53376   9.346   3.359  11.171
83846SOL    HW153377   9.310   3.316  11.093
83846SOL    HW253378   9.359   3.450  11.145
83847SOL     OW53379  14.516   9.353  10.382
83847SOL    HW153380  14.501   9.261  10.362
83847SOL    HW253381  14.611   9.364  10.377
83848SOL     OW53382   8.632   2.903   6.231
83848SOL    HW153383   8.623   2.911   6.326
83848SOL    HW253384   8.723   2.876   6.217
83849SOL     OW53385   2.071  11.304   9.664
83849SOL    HW153386   2.011  11.341   9.599
83849SOL    HW253387   2.042  11.340   9.747
83850SOL     OW53388   5.831   3.749   3.736
83850SOL    HW153389   5.812   3.711   3.821
83850SOL    HW253390   5.757   3.724   3.681
83851SOL     OW53391  13.460  12.650   2.795
83851SOL    HW153392  13.545  12.686   2.819
83851SOL    HW253393  13.470  12.620   2.705
83852SOL     OW53394  11.229  10.601   9.381
83852SOL    HW153395  11.135  10.599   9.398
83852SOL    HW253396  11.268  10.639   9.460
83853SOL     OW53397  11.521  10.365  13.036
83853SOL    HW153398  11.512  10.321  13.121
83853SOL    HW253399  11.449  10.329  12.983
83854SOL     OW53400   3.993  13.976   7.169
83854SOL    HW153401   3.965  14.059   7.207
83854SOL    HW253402   3.920  13.916   7.186
83855SOL     OW53403   6.411  11.589   0.637
83855SOL    HW153404   6.469  11.578   0.562
83855SOL    HW253405   6.393  11.500   0.666
83856SOL     OW53406  10.443  10.936   7.259
83856SOL    HW153407  10.520  10.992   7.250
83856SOL    HW253408  10.389  10.979   7.325
83857SOL     OW53409   8.869   5.922  12.694
83857SOL    HW153410   8.809   5.966  12.754
83857SOL    HW253411   8.951   5.970  12.703
83858SOL     OW53412   1.457  11.014  10.224
83858SOL    HW153413   1.507  10.934  10.208
83858SOL    HW253414   1.394  11.017  10.151
83859SOL     OW53415   0.944   5.724  11.481
83859SOL    HW153416   0.883   5.729  11.554
83859SOL    HW253417   0.926   5.803  11.429
83860SOL     OW53418  11.865   0.522   7.647
83860SOL    HW153419  11.902   0.491   7.565
83860SOL    HW253420  11.770   0.511   7.636
83861SOL     OW53421   9.411   1.107  11.612
83861SOL    HW153422   9.448   1.020  11.594
83861SOL    HW253423   9.340   1.116  11.548
83862SOL     OW53424   5.371  14.178  10.806
83862SOL    HW153425   5.460  14.145  10.793
83862SOL    HW253426   5.339  14.130  10.883
83863SOL     OW53427   7.846  11.387   4.478
83863SOL    HW153428   7.806  11.407   4.393
83863SOL    HW253429   7.859  11.472   4.520
83864SOL     OW53430   6.583  11.119   8.571
83864SOL    HW153431   6.672  11.143   8.595
83864SOL    HW253432   6.574  11.144   8.480
83865SOL     OW53433   9.385   7.389   4.817
83865SOL    HW153434   9.335   7.467   4.842
83865SOL    HW253435   9.405   7.402   4.725
83866SOL     OW53436   9.205   1.488   5.949
83866SOL    HW153437   9.277   1.532   5.994
83866SOL    HW253438   9.247   1.431   5.885
83867SOL     OW53439   3.316  13.317  13.714
83867SOL    HW153440   3.261  13.240  13.702
83867SOL    HW253441   3.258  13.391  13.699
83868SOL     OW53442   8.462   2.520  14.804
83868SOL    HW153443   8.512   2.561  14.734
83868SOL    HW253444   8.481   2.572   0.005
83869SOL     OW53445  10.440  13.355   8.967
83869SOL    HW153446  10.491  13.278   8.941
83869SOL    HW253447  10.351  13.335   8.937
83870SOL     OW53448   1.182   2.442  11.920
83870SOL    HW153449   1.133   2.404  11.848
83870SOL    HW253450   1.156   2.535  11.920
83871SOL     OW53451   6.961   6.224   8.187
83871SOL    HW153452   6.969   6.171   8.266
83871SOL    HW253453   6.931   6.163   8.120
83872SOL     OW53454   2.708   5.540   3.348
83872SOL    HW153455   2.769   5.584   3.289
83872SOL    HW253456   2.754   5.540   3.433
83873SOL     OW53457   1.064  14.527   3.627
83873SOL    HW153458   0.968  14.529   3.635
83873SOL    HW253459   1.095  14.585   3.697
83874SOL     OW53460   3.985   5.396   0.815
83874SOL    HW153461   3.891   5.382   0.809
83874SOL    HW253462   4.024   5.319   0.774
83875SOL     OW53463   1.408   9.564   5.705
83875SOL    HW153464   1.399   9.630   5.773
83875SOL    HW253465   1.482   9.592   5.652
83876SOL     OW53466   9.425  12.610   0.580
83876SOL    HW153467   9.475  12.547   0.528
83876SOL    HW253468   9.489  12.676   0.606
83877SOL     OW53469   4.340   2.704  10.818
83877SOL    HW153470   4.289   2.656  10.883
83877SOL    HW253471   4.421   2.653  10.810
83878SOL     OW53472  12.394   9.473  12.089
83878SOL    HW153473  12.343   9.394  12.071
83878SOL    HW253474  12.407   9.472  12.183
83879SOL     OW53475   5.721   3.198   2.384
83879SOL    HW153476   5.645   3.160   2.341
83879SOL    HW253477   5.790   3.133   2.374
83880SOL     OW53478   8.340   1.660   2.690
83880SOL    HW153479   8.393   1.650   2.611
83880SOL    HW253480   8.274   1.725   2.667
83881SOL     OW53481   0.290   4.058   1.973
83881SOL    HW153482   0.207   4.010   1.976
83881SOL    HW253483   0.352   4.002   2.021
83882SOL     OW53484   5.276   8.636  13.488
83882SOL    HW153485   5.205   8.586  13.527
83882SOL    HW253486   5.354   8.612  13.539
83883SOL     OW53487  12.716   5.230   6.759
83883SOL    HW153488  12.777   5.297   6.791
83883SOL    HW253489  12.684   5.188   6.838
83884SOL     OW53490   1.601  13.332   4.327
83884SOL    HW153491   1.581  13.341   4.234
83884SOL    HW253492   1.665  13.260   4.331
83885SOL     OW53493   0.185   7.496  12.630
83885SOL    HW153494   0.236   7.436  12.685
83885SOL    HW253495   0.223   7.582  12.647
83886SOL     OW53496  12.531   8.282   3.004
83886SOL    HW153497  12.624   8.301   2.994
83886SOL    HW253498  12.529   8.192   3.037
83887SOL     OW53499  13.454   8.000   0.122
83887SOL    HW153500  13.381   8.044   0.164
83887SOL    HW253501  13.505   7.964   0.195
83888SOL     OW53502   7.323  10.497   8.451
83888SOL    HW153503   7.288  10.464   8.368
83888SOL    HW253504   7.325  10.421   8.509
83889SOL     OW53505  12.216   5.930  14.415
83889SOL    HW153506  12.274   5.907  14.488
83889SOL    HW253507  12.253   6.012  14.381
83890SOL     OW53508   5.754   3.142   3.944
83890SOL    HW153509   5.782   3.120   3.856
83890SOL    HW253510   5.660   3.158   3.936
83891SOL     OW53511  10.961   9.453   4.536
83891SOL    HW153512  11.048   9.493   4.524
83891SOL    HW253513  10.912   9.518   4.586
83892SOL     OW53514  10.847   6.742   2.766
83892SOL    HW153515  10.766   6.738   2.816
83892SOL    HW253516  10.894   6.816   2.802
83893SOL     OW53517  12.356   5.317   4.094
83893SOL    HW153518  12.418   5.296   4.164
83893SOL    HW253519  12.279   5.351   4.139
83894SOL     OW53520   9.508   8.574  11.938
83894SOL    HW153521   9.512   8.518  12.015
83894SOL    HW253522   9.424   8.553  11.898
83895SOL     OW53523   5.592   0.455   1.481
83895SOL    HW153524   5.641   0.537   1.487
83895SOL    HW253525   5.621   0.404   1.557
83896SOL     OW53526   0.431   8.481  10.850
83896SOL    HW153527   0.474   8.414  10.903
83896SOL    HW253528   0.501   8.540  10.824
83897SOL     OW53529   2.835   6.533   6.616
83897SOL    HW153530   2.750   6.517   6.658
83897SOL    HW253531   2.836   6.473   6.541
83898SOL     OW53532  10.573   1.591   4.701
83898SOL    HW153533  10.518   1.513   4.693
83898SOL    HW253534  10.513   1.665   4.690
83899SOL     OW53535   6.326  14.608   3.044
83899SOL    HW153536   6.406  14.657   3.064
83899SOL    HW253537   6.347  14.517   3.066
83900SOL     OW53538   0.796   8.056  14.363
83900SOL    HW153539   0.841   8.140  14.368
83900SOL    HW253540   0.843   8.000  14.425
83901SOL     OW53541  12.546  14.374  10.542
83901SOL    HW153542  12.564  14.468  10.533
83901SOL    HW253543  12.534  14.361  10.636
83902SOL     OW53544  12.063   9.293   8.907
83902SOL    HW153545  12.046   9.379   8.868
83902SOL    HW253546  12.103   9.242   8.836
83903SOL     OW53547   1.261  10.719  13.610
83903SOL    HW153548   1.166  10.730  13.606
83903SOL    HW253549   1.294  10.784  13.547
83904SOL     OW53550  10.805  14.591   2.959
83904SOL    HW153551  10.886  14.640   2.969
83904SOL    HW253552  10.816  14.542   2.877
83905SOL     OW53553   9.715   9.965  12.605
83905SOL    HW153554   9.666   9.965  12.522
83905SOL    HW253555   9.651   9.936  12.670
83906SOL     OW53556   9.328   5.164   9.803
83906SOL    HW153557   9.403   5.115   9.837
83906SOL    HW253558   9.340   5.253   9.838
83907SOL     OW53559   3.140  13.835   6.479
83907SOL    HW153560   3.154  13.807   6.569
83907SOL    HW253561   3.228  13.846   6.443
83908SOL     OW53562   5.428   0.990   7.703
83908SOL    HW153563   5.416   1.045   7.780
83908SOL    HW253564   5.459   1.051   7.636
83909SOL     OW53565   4.968   6.947   1.610
83909SOL    HW153566   4.929   7.032   1.588
83909SOL    HW253567   4.905   6.883   1.576
83910SOL     OW53568   5.133   9.967  13.999
83910SOL    HW153569   5.195  10.008  14.060
83910SOL    HW253570   5.153   9.873  14.005
83911SOL     OW53571   4.802   1.744   7.506
83911SOL    HW153572   4.807   1.672   7.569
83911SOL    HW253573   4.887   1.744   7.463
83912SOL     OW53574   4.989   5.661   9.618
83912SOL    HW153575   4.907   5.620   9.645
83912SOL    HW253576   4.963   5.747   9.584
83913SOL     OW53577   6.577   3.433  11.582
83913SOL    HW153578   6.653   3.419  11.639
83913SOL    HW253579   6.589   3.522  11.548
83914SOL     OW53580   0.524  10.113   8.238
83914SOL    HW153581   0.535  10.126   8.144
83914SOL    HW253582   0.585  10.043   8.259
83915SOL     OW53583   9.723   8.285   4.094
83915SOL    HW153584   9.669   8.215   4.058
83915SOL    HW253585   9.801   8.241   4.129
83916SOL     OW53586  12.898   8.847   2.633
83916SOL    HW153587  12.926   8.777   2.575
83916SOL    HW253588  12.891   8.924   2.577
83917SOL     OW53589   1.896  13.499  13.277
83917SOL    HW153590   1.894  13.453  13.361
83917SOL    HW253591   1.847  13.579  13.292
83918SOL     OW53592  10.806  11.909   0.991
83918SOL    HW153593  10.894  11.923   0.956
83918SOL    HW253594  10.772  11.998   1.006
83919SOL     OW53595   9.384   8.764   7.743
83919SOL    HW153596   9.383   8.691   7.680
83919SOL    HW253597   9.388   8.722   7.829
83920SOL     OW53598   6.516   8.570   4.713
83920SOL    HW153599   6.438   8.515   4.713
83920SOL    HW253600   6.586   8.514   4.679
83921SOL     OW53601  10.081   8.875   7.461
83921SOL    HW153602  10.040   8.938   7.401
83921SOL    HW253603  10.079   8.918   7.547
83922SOL     OW53604  14.418   9.453   0.943
83922SOL    HW153605  14.447   9.543   0.930
83922SOL    HW253606  14.490   9.412   0.991
83923SOL     OW53607   2.697  13.733  11.597
83923SOL    HW153608   2.760  13.745  11.527
83923SOL    HW253609   2.682  13.822  11.631
83924SOL     OW53610   6.983   0.290   7.881
83924SOL    HW153611   7.010   0.366   7.830
83924SOL    HW253612   7.065   0.243   7.899
83925SOL     OW53613   9.148   7.175   4.582
83925SOL    HW153614   9.224   7.149   4.633
83925SOL    HW253615   9.179   7.177   4.491
83926SOL     OW53616  11.726   9.605   4.549
83926SOL    HW153617  11.771   9.607   4.465
83926SOL    HW253618  11.745   9.517   4.583
83927SOL     OW53619  12.329   4.463   9.277
83927SOL    HW153620  12.299   4.423   9.358
83927SOL    HW253621  12.316   4.556   9.290
83928SOL     OW53622   9.899   3.875   0.685
83928SOL    HW153623   9.817   3.908   0.649
83928SOL    HW253624   9.967   3.930   0.646
83929SOL     OW53625   0.982   8.056   3.833
83929SOL    HW153626   0.933   8.114   3.892
83929SOL    HW253627   0.932   8.056   3.752
83930SOL     OW53628   0.937   2.078   6.539
83930SOL    HW153629   0.869   2.050   6.477
83930SOL    HW253630   0.944   2.004   6.600
83931SOL     OW53631  11.372   1.000   5.539
83931SOL    HW153632  11.457   1.042   5.544
83931SOL    HW253633  11.312   1.068   5.510
83932SOL     OW53634  12.586   2.496   4.394
83932SOL    HW153635  12.529   2.573   4.385
83932SOL    HW253636  12.612   2.497   4.486
83933SOL     OW53637  14.481  12.820   6.943
83933SOL    HW153638  14.387  12.823   6.957
83933SOL    HW253639  14.492  12.776   6.859
83934SOL     OW53640  13.761   2.401   7.201
83934SOL    HW153641  13.815   2.477   7.179
83934SOL    HW253642  13.785   2.334   7.137
83935SOL     OW53643   5.707   0.481   1.898
83935SOL    HW153644   5.753   0.401   1.872
83935SOL    HW253645   5.616   0.466   1.873
83936SOL     OW53646   9.412   9.107   0.096
83936SOL    HW153647   9.386   9.191   0.132
83936SOL    HW253648   9.339   9.081   0.040
83937SOL     OW53649   1.910   7.109   1.210
83937SOL    HW153650   1.833   7.107   1.153
83937SOL    HW253651   1.934   7.202   1.214
83938SOL     OW53652  14.072   4.306   4.690
83938SOL    HW153653  14.083   4.401   4.679
83938SOL    HW253654  14.112   4.269   4.612
83939SOL     OW53655  14.254   4.508   2.662
83939SOL    HW153656  14.182   4.449   2.638
83939SOL    HW253657  14.310   4.509   2.584
83940SOL     OW53658   1.207  13.613   6.782
83940SOL    HW153659   1.230  13.699   6.818
83940SOL    HW253660   1.251  13.551   6.840
83941SOL     OW53661  13.524  13.596  14.581
83941SOL    HW153662  13.523  13.533  14.509
83941SOL    HW253663  13.535  13.542  14.660
83942SOL     OW53664  12.580   3.741  10.027
83942SOL    HW153665  12.563   3.689   9.948
83942SOL    HW253666  12.673   3.763  10.021
83943SOL     OW53667   2.783   1.138   7.668
83943SOL    HW153668   2.704   1.192   7.659
83943SOL    HW253669   2.750   1.053   7.696
83944SOL     OW53670   4.631   5.342   6.846
83944SOL    HW153671   4.551   5.351   6.899
83944SOL    HW253672   4.628   5.416   6.785
83945SOL     OW53673   8.779  10.920  13.992
83945SOL    HW153674   8.838  10.976  14.042
83945SOL    HW253675   8.730  10.871  14.058
83946SOL     OW53676   5.527   2.908  12.077
83946SOL    HW153677   5.549   2.951  12.160
83946SOL    HW253678   5.432   2.896  12.081
83947SOL     OW53679   6.078  13.643   8.469
83947SOL    HW153680   6.050  13.700   8.397
83947SOL    HW253681   6.091  13.557   8.429
83948SOL     OW53682  12.889   0.599   2.737
83948SOL    HW153683  12.926   0.612   2.824
83948SOL    HW253684  12.939   0.525   2.701
83949SOL     OW53685   0.934   8.302  10.668
83949SOL    HW153686   0.917   8.211  10.691
83949SOL    HW253687   0.872   8.353  10.721
83950SOL     OW53688   0.387   9.700  10.597
83950SOL    HW153689   0.398   9.731  10.507
83950SOL    HW253690   0.404   9.777  10.651
83951SOL     OW53691   6.437   4.670  10.474
83951SOL    HW153692   6.483   4.753  10.484
83951SOL    HW253693   6.472   4.633  10.393
83952SOL     OW53694   5.038   4.996   0.227
83952SOL    HW153695   5.103   5.059   0.195
83952SOL    HW253696   5.034   5.011   0.321
83953SOL     OW53697   0.809  12.906  13.594
83953SOL    HW153698   0.738  12.942  13.540
83953SOL    HW253699   0.881  12.892  13.533
83954SOL     OW53700   9.840   7.657   1.137
83954SOL    HW153701   9.907   7.588   1.142
83954SOL    HW253702   9.860   7.704   1.056
83955SOL     OW53703   3.400   7.332  12.175
83955SOL    HW153704   3.453   7.411  12.189
83955SOL    HW253705   3.463   7.267  12.144
83956SOL     OW53706  12.884   0.993  13.365
83956SOL    HW153707  12.967   0.971  13.324
83956SOL    HW253708  12.825   0.921  13.339
83957SOL     OW53709   9.112   6.593   3.409
83957SOL    HW153710   9.098   6.686   3.394
83957SOL    HW253711   9.087   6.579   3.500
83958SOL     OW53712  11.660  11.037  14.331
83958SOL    HW153713  11.675  11.056  14.424
83958SOL    HW253714  11.670  10.942  14.324
83959SOL     OW53715   3.535  14.487  11.301
83959SOL    HW153716   3.622  14.505  11.266
83959SOL    HW253717   3.487  14.448  11.227
83960SOL     OW53718  12.922  11.720   1.207
83960SOL    HW153719  12.900  11.723   1.114
83960SOL    HW253720  12.954  11.631   1.221
83961SOL     OW53721  14.705   7.365  11.634
83961SOL    HW153722  14.795   7.336  11.622
83961SOL    HW253723  14.705   7.457  11.610
83962SOL     OW53724   0.145  13.351  14.606
83962SOL    HW153725   0.167  13.389  14.691
83962SOL    HW253726   0.084  13.413  14.566
83963SOL     OW53727   7.939   2.024   9.435
83963SOL    HW153728   7.960   1.973   9.357
83963SOL    HW253729   7.865   1.979   9.475
83964SOL     OW53730   2.721   5.098  13.766
83964SOL    HW153731   2.658   5.102  13.694
83964SOL    HW253732   2.671   5.070  13.842
83965SOL     OW53733   2.642   3.120   6.438
83965SOL    HW153734   2.556   3.089   6.412
83965SOL    HW253735   2.637   3.127   6.533
83966SOL     OW53736  10.663   8.390   4.731
83966SOL    HW153737  10.678   8.356   4.819
83966SOL    HW253738  10.741   8.442   4.711
83967SOL     OW53739  10.147  14.055  14.775
83967SOL    HW153740  10.216  14.122  14.768
83967SOL    HW253741  10.104  14.056  14.690
83968SOL     OW53742   2.470   8.386  13.892
83968SOL    HW153743   2.523   8.316  13.931
83968SOL    HW253744   2.485   8.379  13.798
83969SOL     OW53745   0.850   0.885  11.497
83969SOL    HW153746   0.906   0.917  11.568
83969SOL    HW253747   0.840   0.959  11.438
83970SOL     OW53748  10.296   9.491  12.536
83970SOL    HW153749  10.353   9.448  12.472
83970SOL    HW253750  10.207   9.467  12.509
83971SOL     OW53751  14.803   7.583  11.503
83971SOL    HW153752   0.009   7.584  11.454
83971SOL    HW253753  14.736   7.561  11.438
83972SOL     OW53754   8.934  12.999   7.404
83972SOL    HW153755   8.850  12.997   7.451
83972SOL    HW253756   8.914  12.968   7.316
83973SOL     OW53757  14.033  11.468  13.986
83973SOL    HW153758  14.112  11.432  13.946
83973SOL    HW253759  14.060  11.491  14.075
83974SOL     OW53760   9.093   7.380   0.941
83974SOL    HW153761   9.071   7.437   0.867
83974SOL    HW253762   9.013   7.376   0.993
83975SOL     OW53763   2.714   1.710   7.131
83975SOL    HW153764   2.808   1.711   7.150
83975SOL    HW253765   2.709   1.696   7.036
83976SOL     OW53766  10.354  10.257  14.178
83976SOL    HW153767  10.388  10.299  14.099
83976SOL    HW253768  10.316  10.329  14.229
83977SOL     OW53769   5.032   4.387   3.899
83977SOL    HW153770   5.125   4.379   3.877
83977SOL    HW253771   5.017   4.481   3.909
83978SOL     OW53772  12.454   7.533   2.019
83978SOL    HW153773  12.459   7.510   2.112
83978SOL    HW253774  12.365   7.565   2.006
83979SOL     OW53775   2.178  11.470   2.870
83979SOL    HW153776   2.117  11.405   2.833
83979SOL    HW253777   2.222  11.508   2.794
83980SOL     OW53778  13.683   9.462   9.168
83980SOL    HW153779  13.733   9.538   9.197
83980SOL    HW253780  13.616   9.451   9.235
83981SOL     OW53781   9.492  10.214   5.113
83981SOL    HW153782   9.401  10.210   5.142
83981SOL    HW253783   9.540  10.249   5.188
83982SOL     OW53784   6.893   0.176   3.508
83982SOL    HW153785   6.804   0.143   3.501
83982SOL    HW253786   6.907   0.225   3.427
83983SOL     OW53787   7.258  14.622  10.187
83983SOL    HW153788   7.216  14.672  10.116
83983SOL    HW253789   7.347  14.608  10.156
83984SOL     OW53790   3.100  13.260   9.576
83984SOL    HW153791   3.191  13.272   9.547
83984SOL    HW253792   3.049  13.258   9.495
83985SOL     OW53793  13.283   6.187   1.566
83985SOL    HW153794  13.378   6.185   1.578
83985SOL    HW253795  13.269   6.252   1.498
83986SOL     OW53796   2.007   3.670   8.656
83986SOL    HW153797   2.085   3.685   8.603
83986SOL    HW253798   2.039   3.669   8.747
83987SOL     OW53799   6.941   0.912  13.916
83987SOL    HW153800   6.908   0.828  13.883
83987SOL    HW253801   7.026   0.922  13.874
83988SOL     OW53802   1.903   2.966   6.234
83988SOL    HW153803   1.810   2.986   6.230
83988SOL    HW253804   1.924   2.933   6.147
83989SOL     OW53805   5.930   6.116   8.674
83989SOL    HW153806   5.884   6.175   8.615
83989SOL    HW253807   5.870   6.043   8.688
83990SOL     OW53808   5.590   1.662   3.112
83990SOL    HW153809   5.531   1.731   3.080
83990SOL    HW253810   5.666   1.709   3.146
83991SOL     OW53811   9.781   0.674   4.516
83991SOL    HW153812   9.819   0.635   4.437
83991SOL    HW253813   9.694   0.634   4.523
83992SOL     OW53814  14.426  13.621   2.470
83992SOL    HW153815  14.473  13.704   2.474
83992SOL    HW253816  14.486  13.562   2.425
83993SOL     OW53817   1.886  13.277   8.498
83993SOL    HW153818   1.901  13.194   8.543
83993SOL    HW253819   1.801  13.267   8.455
83994SOL     OW53820   8.412   2.980   9.915
83994SOL    HW153821   8.370   2.943   9.838
83994SOL    HW253822   8.347   2.971   9.985
83995SOL     OW53823   6.850   9.989   2.642
83995SOL    HW153824   6.935   9.999   2.686
83995SOL    HW253825   6.789   9.972   2.714
83996SOL     OW53826   9.327   2.742  12.518
83996SOL    HW153827   9.250   2.754  12.462
83996SOL    HW253828   9.374   2.825  12.513
83997SOL     OW53829  10.138   9.825   8.662
83997SOL    HW153830  10.049   9.829   8.696
83997SOL    HW253831  10.134   9.756   8.596
83998SOL     OW53832   0.625   6.780   8.500
83998SOL    HW153833   0.557   6.713   8.505
83998SOL    HW253834   0.632   6.813   8.590
83999SOL     OW53835   7.339   9.164  14.798
83999SOL    HW153836   7.339   9.213  14.716
83999SOL    HW253837   7.301   9.079  14.776
84000SOL     OW53838   9.955   5.072  13.689
84000SOL    HW153839   9.860   5.073  13.690
84000SOL    HW253840   9.980   5.150  13.639
84001SOL     OW53841   9.816  14.641  13.486
84001SOL    HW153842   9.752  14.679  13.546
84001SOL    HW253843   9.828  14.707  13.418
84002SOL     OW53844   6.573  10.947  14.619
84002SOL    HW153845   6.636  10.900  14.564
84002SOL    HW253846   6.610  11.035  14.627
84003SOL     OW53847   3.462  12.052  11.071
84003SOL    HW153848   3.542  12.035  11.120
84003SOL    HW253849   3.418  11.966  11.068
84004SOL     OW53850   6.341   5.903   4.922
84004SOL    HW153851   6.282   5.932   4.991
84004SOL    HW253852   6.407   5.850   4.967
84005SOL     OW53853  12.730   1.486  12.023
84005SOL    HW153854  12.671   1.546  12.067
84005SOL    HW253855  12.731   1.515  11.932
84006SOL     OW53856   7.702  11.589  10.812
84006SOL    HW153857   7.639  11.633  10.754
84006SOL    HW253858   7.668  11.605  10.900
84007SOL     OW53859   0.141   6.474   0.911
84007SOL    HW153860   0.053   6.512   0.918
84007SOL    HW253861   0.126   6.381   0.892
84008SOL     OW53862   3.807   7.774   4.585
84008SOL    HW153863   3.754   7.709   4.630
84008SOL    HW253864   3.846   7.727   4.512
84009SOL     OW53865   8.377   3.447   9.393
84009SOL    HW153866   8.293   3.429   9.434
84009SOL    HW253867   8.355   3.473   9.303
84010SOL     OW53868   1.270   2.134  10.125
84010SOL    HW153869   1.238   2.115  10.037
84010SOL    HW253870   1.341   2.197  10.112
84011SOL     OW53871   8.853   4.076  14.412
84011SOL    HW153872   8.939   4.062  14.451
84011SOL    HW253873   8.793   4.074  14.486
84012SOL     OW53874  12.323  12.081   9.888
84012SOL    HW153875  12.341  11.992   9.857
84012SOL    HW253876  12.300  12.069   9.980
84013SOL     OW53877   0.806   7.639  11.407
84013SOL    HW153878   0.819   7.636  11.312
84013SOL    HW253879   0.768   7.725  11.423
84014SOL     OW53880   5.112  10.748   2.107
84014SOL    HW153881   5.105  10.843   2.109
84014SOL    HW253882   5.204  10.731   2.087
84015SOL     OW53883   6.719   6.513   4.756
84015SOL    HW153884   6.673   6.559   4.826
84015SOL    HW253885   6.782   6.457   4.802
84016SOL     OW53886  12.216  12.260  11.347
84016SOL    HW153887  12.291  12.293  11.396
84016SOL    HW253888  12.223  12.165  11.353
84017SOL     OW53889   3.839   6.911  14.364
84017SOL    HW153890   3.854   6.944  14.453
84017SOL    HW253891   3.851   6.987  14.308
84018SOL     OW53892   9.220   2.080   7.042
84018SOL    HW153893   9.295   2.130   7.009
84018SOL    HW253894   9.174   2.141   7.100
84019SOL     OW53895   5.542   3.730  12.037
84019SOL    HW153896   5.448   3.710  12.034
84019SOL    HW253897   5.582   3.661  11.984
84020SOL     OW53898  14.430   7.439   0.760
84020SOL    HW153899  14.427   7.346   0.738
84020SOL    HW253900  14.504   7.446   0.821
84021SOL     OW53901   7.943   3.947  14.670
84021SOL    HW153902   7.895   4.007  14.726
84021SOL    HW253903   8.017   3.918  14.722
84022SOL     OW53904   0.292   2.892  10.698
84022SOL    HW153905   0.294   2.985  10.675
84022SOL    HW253906   0.210   2.860  10.661
84023SOL     OW53907  10.421   2.457  10.904
84023SOL    HW153908  10.366   2.450  10.982
84023SOL    HW253909  10.510   2.467  10.938
84024SOL     OW53910   8.699   4.714   3.363
84024SOL    HW153911   8.652   4.654   3.305
84024SOL    HW253912   8.772   4.747   3.310
84025SOL     OW53913   8.793   8.229   4.816
84025SOL    HW153914   8.850   8.156   4.792
84025SOL    HW253915   8.715   8.188   4.853
84026SOL     OW53916  10.926   3.447   6.720
84026SOL    HW153917  10.902   3.383   6.788
84026SOL    HW253918  11.017   3.468   6.738
84027SOL     OW53919   2.463  10.133   1.874
84027SOL    HW153920   2.546  10.116   1.918
84027SOL    HW253921   2.402  10.070   1.911
84028SOL     OW53922   5.704   7.264  12.562
84028SOL    HW153923   5.756   7.340  12.536
84028SOL    HW253924   5.628   7.266  12.505
84029SOL     OW53925  14.630   7.711   1.236
84029SOL    HW153926  14.541   7.733   1.208
84029SOL    HW253927  14.672   7.796   1.253
84030SOL     OW53928  14.215  13.732   4.436
84030SOL    HW153929  14.187  13.700   4.351
84030SOL    HW253930  14.184  13.822   4.440
84031SOL     OW53931   0.199   5.316   5.051
84031SOL    HW153932   0.251   5.383   5.006
84031SOL    HW253933   0.126   5.299   4.992
84032SOL     OW53934   5.725  10.443  13.464
84032SOL    HW153935   5.635  10.444  13.431
84032SOL    HW253936   5.759  10.358  13.437
84033SOL     OW53937  14.727   2.420   5.233
84033SOL    HW153938  14.800   2.410   5.172
84033SOL    HW253939  14.696   2.331   5.249
84034SOL     OW53940  10.254   5.034  14.501
84034SOL    HW153941  10.183   4.976  14.526
84034SOL    HW253942  10.292   4.994  14.423
84035SOL     OW53943  11.125   4.770   8.158
84035SOL    HW153944  11.139   4.731   8.244
84035SOL    HW253945  11.050   4.722   8.122
84036SOL     OW53946   5.277   0.798   1.893
84036SOL    HW153947   5.216   0.772   1.824
84036SOL    HW253948   5.362   0.803   1.848
84037SOL     OW53949   4.378  10.484   0.435
84037SOL    HW153950   4.370  10.535   0.355
84037SOL    HW253951   4.458  10.433   0.423
84038SOL     OW53952   1.820  11.256   8.775
84038SOL    HW153953   1.887  11.322   8.788
84038SOL    HW253954   1.839  11.218   8.690
84039SOL     OW53955  11.201  10.677   0.433
84039SOL    HW153956  11.186  10.742   0.364
84039SOL    HW253957  11.130  10.692   0.495
84040SOL     OW53958   5.387   2.314   1.194
84040SOL    HW153959   5.340   2.300   1.111
84040SOL    HW253960   5.460   2.371   1.172
84041SOL     OW53961   1.999   4.143   2.531
84041SOL    HW153962   2.043   4.152   2.446
84041SOL    HW253963   1.924   4.202   2.525
84042SOL     OW53964   8.668  10.531  12.695
84042SOL    HW153965   8.652  10.461  12.758
84042SOL    HW253966   8.583  10.574  12.685
84043SOL     OW53967   8.357  12.165  10.313
84043SOL    HW153968   8.356  12.069  10.316
84043SOL    HW253969   8.317  12.186  10.228
84044SOL     OW53970  13.879   8.975   3.273
84044SOL    HW153971  13.840   8.908   3.218
84044SOL    HW253972  13.973   8.957   3.270
84045SOL     OW53973   0.433   6.124   7.276
84045SOL    HW153974   0.522   6.118   7.309
84045SOL    HW253975   0.441   6.175   7.195
84046SOL     OW53976   6.844  10.359   9.686
84046SOL    HW153977   6.789  10.288   9.651
84046SOL    HW253978   6.811  10.373   9.774
84047SOL     OW53979   1.748   3.437   4.443
84047SOL    HW153980   1.694   3.498   4.393
84047SOL    HW253981   1.828   3.485   4.461
84048SOL     OW53982   5.102   9.823   1.606
84048SOL    HW153983   5.189   9.823   1.646
84048SOL    HW253984   5.120   9.821   1.511
84049SOL     OW53985   5.734   8.843   9.497
84049SOL    HW153986   5.700   8.756   9.518
84049SOL    HW253987   5.659   8.890   9.462
84050SOL     OW53988   3.762   6.032  14.628
84050SOL    HW153989   3.750   6.010  14.721
84050SOL    HW253990   3.852   6.064  14.622
84051SOL     OW53991  13.559   6.888  12.617
84051SOL    HW153992  13.550   6.833  12.695
84051SOL    HW253993  13.589   6.829  12.549
84052SOL     OW53994   2.507   0.878   2.147
84052SOL    HW153995   2.578   0.874   2.083
84052SOL    HW253996   2.534   0.946   2.209
84053SOL     OW53997   0.430  11.928   9.972
84053SOL    HW153998   0.451  12.021   9.965
84053SOL    HW253999   0.512  11.883   9.952
84054SOL     OW54000   6.105  12.841   8.142
84054SOL    HW154001   6.050  12.813   8.068
84054SOL    HW254002   6.079  12.785   8.214
84055SOL     OW54003  12.794   1.905   8.126
84055SOL    HW154004  12.852   1.953   8.186
84055SOL    HW254005  12.727   1.867   8.183
84056SOL     OW54006   7.771   5.302  14.273
84056SOL    HW154007   7.807   5.349  14.198
84056SOL    HW254008   7.846   5.261  14.315
84057SOL     OW54009   7.257   6.931   8.327
84057SOL    HW154010   7.241   6.846   8.369
84057SOL    HW254011   7.176   6.948   8.278
84058SOL     OW54012   4.494   2.364   7.975
84058SOL    HW154013   4.404   2.391   7.955
84058SOL    HW254014   4.512   2.295   7.911
84059SOL     OW54015   0.897  14.149   3.175
84059SOL    HW154016   0.867  14.159   3.265
84059SOL    HW254017   0.835  14.200   3.122
84060SOL     OW54018   9.097   0.773   7.287
84060SOL    HW154019   9.178   0.723   7.296
84060SOL    HW254020   9.079   0.773   7.193
84061SOL     OW54021   7.028   9.263  11.651
84061SOL    HW154022   7.023   9.318  11.573
84061SOL    HW254023   7.015   9.174  11.619
84062SOL     OW54024   6.219   2.309   8.038
84062SOL    HW154025   6.299   2.350   8.071
84062SOL    HW254026   6.150   2.341   8.096
84063SOL     OW54027   3.960  12.287  13.784
84063SOL    HW154028   3.885  12.232  13.761
84063SOL    HW254029   4.036  12.230  13.772
84064SOL     OW54030  13.906  11.366  10.830
84064SOL    HW154031  13.918  11.445  10.777
84064SOL    HW254032  13.845  11.312  10.779
84065SOL     OW54033  12.284   0.358  14.524
84065SOL    HW154034  12.365   0.355  14.473
84065SOL    HW254035  12.310   0.332  14.612
84066SOL     OW54036  13.242   7.574   2.260
84066SOL    HW154037  13.212   7.595   2.171
84066SOL    HW254038  13.299   7.498   2.248
84067SOL     OW54039   1.261   5.962   0.836
84067SOL    HW154040   1.216   5.940   0.918
84067SOL    HW254041   1.349   5.925   0.847
84068SOL     OW54042  13.839  14.829   8.558
84068SOL    HW154043  13.752  14.850   8.591
84068SOL    HW254044  13.883  14.785   8.630
84069SOL     OW54045   1.776   5.229   3.323
84069SOL    HW154046   1.795   5.225   3.229
84069SOL    HW254047   1.808   5.314   3.351
84070SOL     OW54048   4.153   0.178   7.388
84070SOL    HW154049   4.168   0.229   7.309
84070SOL    HW254050   4.062   0.196   7.412
84071SOL     OW54051   8.472   2.847   4.678
84071SOL    HW154052   8.531   2.919   4.655
84071SOL    HW254053   8.435   2.818   4.594
84072SOL     OW54054   0.254  13.080   4.244
84072SOL    HW154055   0.221  13.161   4.283
84072SOL    HW254056   0.348  13.096   4.231
84073SOL     OW54057   9.692  12.878   7.893
84073SOL    HW154058   9.617  12.866   7.835
84073SOL    HW254059   9.738  12.795   7.891
84074SOL     OW54060   8.498  12.745   3.868
84074SOL    HW154061   8.407  12.775   3.859
84074SOL    HW254062   8.493  12.668   3.924
84075SOL     OW54063   1.088  10.143  11.040
84075SOL    HW154064   1.108  10.052  11.020
84075SOL    HW254065   1.136  10.193  10.974
84076SOL     OW54066   4.871  10.934  14.614
84076SOL    HW154067   4.855  10.946  14.708
84076SOL    HW254068   4.936  10.864  14.609
84077SOL     OW54069   3.330   7.807  13.089
84077SOL    HW154070   3.398   7.765  13.144
84077SOL    HW254071   3.261   7.740  13.082
84078SOL     OW54072   1.836  13.712  14.354
84078SOL    HW154073   1.924  13.739  14.329
84078SOL    HW254074   1.779  13.747  14.286
84079SOL     OW54075  12.668   7.676  12.627
84079SOL    HW154076  12.677   7.757  12.676
84079SOL    HW254077  12.666   7.608  12.694
84080SOL     OW54078  10.663  10.697  13.122
84080SOL    HW154079  10.752  10.673  13.095
84080SOL    HW254080  10.611  10.688  13.042
84081SOL     OW54081   9.223  11.614   7.102
84081SOL    HW154082   9.154  11.579   7.046
84081SOL    HW254083   9.261  11.537   7.145
84082SOL     OW54084   4.088   0.982   2.276
84082SOL    HW154085   4.018   1.043   2.301
84082SOL    HW254086   4.160   1.039   2.248
84083SOL     OW54087   5.249  13.497  11.553
84083SOL    HW154088   5.328  13.551  11.548
84083SOL    HW254089   5.178  13.556  11.528
84084SOL     OW54090   2.568   0.424  13.446
84084SOL    HW154091   2.591   0.412  13.354
84084SOL    HW254092   2.579   0.518  13.462
84085SOL     OW54093  11.479  10.760  12.539
84085SOL    HW154094  11.392  10.740  12.574
84085SOL    HW254095  11.467  10.840  12.489
84086SOL     OW54096  13.560   6.093   4.874
84086SOL    HW154097  13.652   6.117   4.876
84086SOL    HW254098  13.515   6.171   4.844
84087SOL     OW54099  14.509   6.499   4.273
84087SOL    HW154100  14.475   6.588   4.287
84087SOL    HW254101  14.434   6.450   4.240
84088SOL     OW54102   7.924   6.542   6.358
84088SOL    HW154103   7.873   6.619   6.333
84088SOL    HW254104   7.992   6.576   6.416
84089SOL     OW54105   2.970   8.679  13.388
84089SOL    HW154106   2.899   8.707  13.446
84089SOL    HW254107   3.031   8.753  13.388
84090SOL     OW54108   6.408   0.555   2.691
84090SOL    HW154109   6.445   0.620   2.631
84090SOL    HW254110   6.324   0.531   2.652
84091SOL     OW54111  10.517   3.498   2.683
84091SOL    HW154112  10.468   3.518   2.603
84091SOL    HW254113  10.471   3.545   2.752
84092SOL     OW54114  14.743   1.003  10.449
84092SOL    HW154115  14.772   0.918  10.481
84092SOL    HW254116  14.763   1.002  10.355
84093SOL     OW54117   6.674  11.863   4.787
84093SOL    HW154118   6.590  11.903   4.806
84093SOL    HW254119   6.700  11.821   4.869
84094SOL     OW54120   3.242   6.045   5.035
84094SOL    HW154121   3.310   6.039   4.968
84094SOL    HW254122   3.280   6.003   5.112
84095SOL     OW54123  13.765  11.330   2.890
84095SOL    HW154124  13.852  11.294   2.876
84095SOL    HW254125  13.710  11.253   2.909
84096SOL     OW54126   6.826   6.819   2.805
84096SOL    HW154127   6.853   6.795   2.894
84096SOL    HW254128   6.895   6.879   2.776
84097SOL     OW54129   2.632   8.426   0.593
84097SOL    HW154130   2.702   8.362   0.603
84097SOL    HW254131   2.577   8.412   0.671
84098SOL     OW54132   4.282   4.146   3.349
84098SOL    HW154133   4.212   4.124   3.411
84098SOL    HW254134   4.362   4.119   3.393
84099SOL     OW54135   0.622   1.390  13.490
84099SOL    HW154136   0.669   1.455  13.542
84099SOL    HW254137   0.685   1.362  13.423
84100SOL     OW54138   5.991  14.349  11.569
84100SOL    HW154139   5.991  14.270  11.514
84100SOL    HW254140   5.918  14.401  11.536
84101SOL     OW54141   8.459   2.439   3.474
84101SOL    HW154142   8.551   2.419   3.491
84101SOL    HW254143   8.411   2.368   3.517
84102SOL     OW54144  12.883   5.214   5.654
84102SOL    HW154145  12.904   5.155   5.726
84102SOL    HW254146  12.922   5.298   5.679
84103SOL     OW54147   4.446  10.283   2.245
84103SOL    HW154148   4.485  10.253   2.327
84103SOL    HW254149   4.415  10.371   2.264
84104SOL     OW54150  10.981   4.410   0.697
84104SOL    HW154151  10.901   4.363   0.675
84104SOL    HW254152  10.962   4.501   0.674
84105SOL     OW54153  13.799   8.302   9.878
84105SOL    HW154154  13.705   8.290   9.896
84105SOL    HW254155  13.840   8.226   9.919
84106SOL     OW54156  10.069  13.509   3.003
84106SOL    HW154157  10.123  13.433   3.023
84106SOL    HW254158   9.996  13.504   3.065
84107SOL     OW54159  11.606   5.959   6.684
84107SOL    HW154160  11.534   5.998   6.734
84107SOL    HW254161  11.648   6.033   6.641
84108SOL     OW54162  11.532   5.824  11.852
84108SOL    HW154163  11.599   5.761  11.826
84108SOL    HW254164  11.456   5.803  11.796
84109SOL     OW54165  14.128   7.572  13.102
84109SOL    HW154166  14.164   7.661  13.102
84109SOL    HW254167  14.077   7.566  13.021
84110SOL     OW54168   4.235  13.308  13.561
84110SOL    HW154169   4.246  13.213  13.569
84110SOL    HW254170   4.279  13.331  13.479
84111SOL     OW54171  14.652   2.796  11.196
84111SOL    HW154172  14.608   2.839  11.122
84111SOL    HW254173  14.699   2.723  11.157
84112SOL     OW54174   8.097  12.335   6.273
84112SOL    HW154175   8.136  12.333   6.185
84112SOL    HW254176   8.031  12.405   6.268
84113SOL     OW54177  14.830  12.155   4.676
84113SOL    HW154178  14.824  12.175   4.583
84113SOL    HW254179  14.825  12.240   4.720
84114SOL     OW54180   4.558  12.030   6.727
84114SOL    HW154181   4.480  12.070   6.687
84114SOL    HW254182   4.631  12.062   6.673
84115SOL     OW54183  13.506   5.786   2.608
84115SOL    HW154184  13.583   5.841   2.593
84115SOL    HW254185  13.445   5.811   2.538
84116SOL     OW54186   6.825  11.848  13.459
84116SOL    HW154187   6.895  11.802  13.414
84116SOL    HW254188   6.845  11.941  13.448
84117SOL     OW54189  14.193   2.647   8.921
84117SOL    HW154190  14.154   2.691   8.996
84117SOL    HW254191  14.171   2.554   8.934
84118SOL     OW54192   2.205   8.810  11.454
84118SOL    HW154193   2.211   8.877  11.522
84118SOL    HW254194   2.220   8.858  11.372
84119SOL     OW54195   0.424  10.737   0.462
84119SOL    HW154196   0.353  10.691   0.506
84119SOL    HW254197   0.477  10.774   0.533
84120SOL     OW54198   3.718   8.813   4.252
84120SOL    HW154199   3.646   8.816   4.315
84120SOL    HW254200   3.676   8.828   4.168
84121SOL     OW54201  14.030   5.301  10.276
84121SOL    HW154202  14.033   5.231  10.211
84121SOL    HW254203  13.954   5.354  10.251
84122SOL     OW54204   7.758   9.462   6.962
84122SOL    HW154205   7.788   9.397   6.898
84122SOL    HW254206   7.759   9.415   7.045
84123SOL     OW54207   6.893  11.267  13.643
84123SOL    HW154208   6.853  11.343  13.600
84123SOL    HW254209   6.917  11.299  13.731
84124SOL     OW54210   6.014   9.643   7.882
84124SOL    HW154211   6.048   9.556   7.905
84124SOL    HW254212   5.968   9.672   7.961
84125SOL     OW54213   0.313   8.064   0.381
84125SOL    HW154214   0.339   8.150   0.349
84125SOL    HW254215   0.313   8.074   0.477
84126SOL     OW54216   8.435   4.488   8.581
84126SOL    HW154217   8.500   4.504   8.513
84126SOL    HW254218   8.393   4.406   8.556
84127SOL     OW54219  10.583  13.393   1.449
84127SOL    HW154220  10.600  13.429   1.536
84127SOL    HW254221  10.601  13.300   1.457
84128SOL     OW54222   4.644   4.292   9.518
84128SOL    HW154223   4.725   4.261   9.559
84128SOL    HW254224   4.632   4.234   9.443
84129SOL     OW54225   8.753   3.206   8.370
84129SOL    HW154226   8.765   3.301   8.361
84129SOL    HW254227   8.716   3.178   8.287
84130SOL     OW54228   3.519   6.552   4.913
84130SOL    HW154229   3.513   6.646   4.931
84130SOL    HW254230   3.597   6.543   4.859
84131SOL     OW54231   3.357   4.744  11.647
84131SOL    HW154232   3.275   4.791  11.632
84131SOL    HW254233   3.422   4.793  11.597
84132SOL     OW54234   5.773   5.396  13.166
84132SOL    HW154235   5.791   5.303  13.150
84132SOL    HW254236   5.715   5.421  13.094
84133SOL     OW54237  14.606   9.500   2.730
84133SOL    HW154238  14.576   9.576   2.679
84133SOL    HW254239  14.694   9.482   2.696
84134SOL     OW54240   5.866   3.052   3.159
84134SOL    HW154241   5.845   3.098   3.240
84134SOL    HW254242   5.822   3.102   3.090
84135SOL     OW54243   4.741  10.815  11.572
84135SOL    HW154244   4.731  10.890  11.630
84135SOL    HW254245   4.653  10.800  11.537
84136SOL     OW54246  11.472   6.279   4.755
84136SOL    HW154247  11.488   6.337   4.681
84136SOL    HW254248  11.520   6.199   4.734
84137SOL     OW54249  14.474  12.460  10.107
84137SOL    HW154250  14.508  12.466  10.197
84137SOL    HW254251  14.383  12.435  10.118
84138SOL     OW54252   6.194   6.003   6.241
84138SOL    HW154253   6.107   5.979   6.274
84138SOL    HW254254   6.176   6.048   6.159
84139SOL     OW54255   6.693   0.901  11.070
84139SOL    HW154256   6.703   0.988  11.107
84139SOL    HW254257   6.677   0.916  10.977
84140SOL     OW54258  13.678   0.781  11.859
84140SOL    HW154259  13.680   0.686  11.847
84140SOL    HW254260  13.753   0.800  11.914
84141SOL     OW54261   7.323   6.531   3.346
84141SOL    HW154262   7.285   6.447   3.318
84141SOL    HW254263   7.295   6.540   3.437
84142SOL     OW54264   4.865   3.648   6.434
84142SOL    HW154265   4.822   3.719   6.386
84142SOL    HW254266   4.802   3.576   6.432
84143SOL     OW54267   8.393  11.451  11.288
84143SOL    HW154268   8.409  11.374  11.342
84143SOL    HW254269   8.366  11.519  11.350
84144SOL     OW54270   5.655   3.416   9.351
84144SOL    HW154271   5.586   3.397   9.286
84144SOL    HW254272   5.736   3.413   9.301
84145SOL     OW54273   5.695   2.711   9.882
84145SOL    HW154274   5.654   2.781   9.932
84145SOL    HW254275   5.667   2.631   9.927
84146SOL     OW54276  14.307   1.362   0.768
84146SOL    HW154277  14.277   1.305   0.697
84146SOL    HW254278  14.400   1.375   0.751
84147SOL     OW54279   0.284  13.625   4.353
84147SOL    HW154280   0.247  13.712   4.338
84147SOL    HW254281   0.333  13.634   4.435
84148SOL     OW54282   4.108   6.937   5.122
84148SOL    HW154283   4.148   6.891   5.196
84148SOL    HW254284   4.149   6.898   5.044
84149SOL     OW54285   8.652   9.391   9.860
84149SOL    HW154286   8.629   9.435   9.778
84149SOL    HW254287   8.684   9.305   9.833
84150SOL     OW54288  10.157  13.610   2.704
84150SOL    HW154289  10.196  13.671   2.642
84150SOL    HW254290  10.229  13.581   2.759
84151SOL     OW54291  10.773   7.662   9.995
84151SOL    HW154292  10.694   7.695  10.038
84151SOL    HW254293  10.820   7.614  10.063
84152SOL     OW54294   5.284   3.572   5.670
84152SOL    HW154295   5.351   3.639   5.660
84152SOL    HW254296   5.325   3.503   5.722
84153SOL     OW54297   0.991   0.715   5.947
84153SOL    HW154298   1.012   0.685   6.035
84153SOL    HW254299   1.071   0.758   5.917
84154SOL     OW54300   6.731  10.595   4.618
84154SOL    HW154301   6.786  10.667   4.588
84154SOL    HW254302   6.790  10.520   4.624
84155SOL     OW54303   2.786   0.784   6.110
84155SOL    HW154304   2.824   0.717   6.167
84155SOL    HW254305   2.732   0.735   6.048
84156SOL     OW54306   6.480  14.398   3.013
84156SOL    HW154307   6.496  14.396   3.107
84156SOL    HW254308   6.505  14.311   2.982
84157SOL     OW54309   3.145   0.852  12.023
84157SOL    HW154310   3.225   0.823  12.068
84157SOL    HW254311   3.082   0.782  12.037
84158SOL     OW54312  12.290   2.936   5.498
84158SOL    HW154313  12.224   3.001   5.519
84158SOL    HW254314  12.322   2.960   5.411
84159SOL     OW54315   3.316   0.375  13.957
84159SOL    HW154316   3.273   0.323  13.889
84159SOL    HW254317   3.393   0.323  13.982
84160SOL     OW54318  14.231   0.605   8.595
84160SOL    HW154319  14.324   0.595   8.615
84160SOL    HW254320  14.211   0.531   8.536
84161SOL     OW54321  14.418   0.316  10.149
84161SOL    HW154322  14.500   0.267  10.139
84161SOL    HW254323  14.405   0.322  10.243
84162SOL     OW54324   6.291   7.568   3.066
84162SOL    HW154325   6.317   7.582   3.157
84162SOL    HW254326   6.370   7.532   3.024
84163SOL     OW54327   4.304   3.582  12.610
84163SOL    HW154328   4.262   3.665  12.633
84163SOL    HW254329   4.287   3.571  12.517
84164SOL     OW54330   7.209   2.922   7.307
84164SOL    HW154331   7.254   2.885   7.382
84164SOL    HW254332   7.171   3.004   7.339
84165SOL     OW54333   6.429   6.619   1.785
84165SOL    HW154334   6.515   6.594   1.751
84165SOL    HW254335   6.441   6.622   1.880
84166SOL     OW54336   2.900  14.328   8.617
84166SOL    HW154337   2.930  14.364   8.700
84166SOL    HW254338   2.876  14.404   8.565
84167SOL     OW54339  12.712   5.163   3.265
84167SOL    HW154340  12.678   5.205   3.186
84167SOL    HW254341  12.804   5.143   3.244
84168SOL     OW54342   2.781   3.618   7.340
84168SOL    HW154343   2.873   3.643   7.331
84168SOL    HW254344   2.734   3.701   7.341
84169SOL     OW54345  12.221   5.978  11.034
84169SOL    HW154346  12.247   6.049  10.976
84169SOL    HW254347  12.288   5.976  11.102
84170SOL     OW54348   1.202   1.193  13.006
84170SOL    HW154349   1.207   1.099  13.022
84170SOL    HW254350   1.174   1.200  12.915
84171SOL     OW54351   6.517   6.539   2.821
84171SOL    HW154352   6.547   6.580   2.740
84171SOL    HW254353   6.589   6.551   2.882
84172SOL     OW54354  13.857  11.110   3.210
84172SOL    HW154355  13.791  11.075   3.271
84172SOL    HW254356  13.830  11.077   3.124
84173SOL     OW54357  12.529   0.089   1.339
84173SOL    HW154358  12.451   0.047   1.375
84173SOL    HW254359  12.601   0.056   1.392
84174SOL     OW54360  14.566  13.010   2.008
84174SOL    HW154361  14.536  13.059   1.931
84174SOL    HW254362  14.496  13.021   2.072
84175SOL     OW54363   9.645  12.136  10.043
84175SOL    HW154364   9.568  12.184  10.012
84175SOL    HW254365   9.663  12.072   9.974
84176SOL     OW54366  10.716  10.404  11.845
84176SOL    HW154367  10.728  10.310  11.858
84176SOL    HW254368  10.756  10.444  11.922
84177SOL     OW54369   0.906   4.840   7.331
84177SOL    HW154370   0.972   4.862   7.265
84177SOL    HW254371   0.956   4.802   7.403
84178SOL     OW54372   8.815   1.826  10.775
84178SOL    HW154373   8.896   1.804  10.821
84178SOL    HW254374   8.777   1.897  10.826
84179SOL     OW54375   5.121   1.300   4.264
84179SOL    HW154376   5.199   1.295   4.318
84179SOL    HW254377   5.050   1.320   4.325
84180SOL     OW54378   0.325   9.178   2.604
84180SOL    HW154379   0.362   9.105   2.655
84180SOL    HW254380   0.234   9.151   2.587
84181SOL     OW54381   4.120   3.134  10.408
84181SOL    HW154382   4.195   3.075  10.411
84181SOL    HW254383   4.075   3.121  10.492
84182SOL     OW54384   1.899   9.824   9.315
84182SOL    HW154385   1.923   9.785   9.231
84182SOL    HW254386   1.843   9.898   9.292
84183SOL     OW54387   7.488  10.580   9.633
84183SOL    HW154388   7.483  10.542   9.721
84183SOL    HW254389   7.403  10.623   9.621
84184SOL     OW54390   0.763   6.796   0.114
84184SOL    HW154391   0.786   6.802   0.022
84184SOL    HW254392   0.771   6.886   0.147
84185SOL     OW54393  12.572   9.475   7.173
84185SOL    HW154394  12.595   9.407   7.237
84185SOL    HW254395  12.653   9.525   7.161
84186SOL     OW54396   6.516  14.445   5.412
84186SOL    HW154397   6.439  14.394   5.384
84186SOL    HW254398   6.504  14.530   5.371
84187SOL     OW54399   3.109  12.976   1.095
84187SOL    HW154400   3.198  13.003   1.073
84187SOL    HW254401   3.108  12.882   1.082
84188SOL     OW54402   9.812  10.666   6.731
84188SOL    HW154403   9.808  10.711   6.647
84188SOL    HW254404   9.747  10.711   6.785
84189SOL     OW54405   9.829   0.244   7.444
84189SOL    HW154406   9.752   0.241   7.388
84189SOL    HW254407   9.899   0.276   7.387
84190SOL     OW54408  12.598   3.926   8.464
84190SOL    HW154409  12.657   3.936   8.390
84190SOL    HW254410  12.518   3.972   8.438
84191SOL     OW54411   1.581   3.509   2.001
84191SOL    HW154412   1.627   3.589   2.025
84191SOL    HW254413   1.651   3.444   1.991
84192SOL     OW54414  11.910  11.025   8.344
84192SOL    HW154415  11.820  11.008   8.370
84192SOL    HW254416  11.961  11.014   8.424
84193SOL     OW54417   8.789  10.817   4.607
84193SOL    HW154418   8.868  10.768   4.584
84193SOL    HW254419   8.755  10.771   4.684
84194SOL     OW54420   3.816   9.953  10.342
84194SOL    HW154421   3.895   9.942  10.395
84194SOL    HW254422   3.828   9.892  10.268
84195SOL     OW54423   6.117   2.062   6.326
84195SOL    HW154424   6.112   1.966   6.318
84195SOL    HW254425   6.161   2.090   6.246
84196SOL     OW54426   1.651   2.129   3.567
84196SOL    HW154427   1.602   2.089   3.639
84196SOL    HW254428   1.734   2.155   3.606
84197SOL     OW54429  10.791   6.473   7.150
84197SOL    HW154430  10.809   6.466   7.244
84197SOL    HW254431  10.845   6.547   7.121
84198SOL     OW54432  14.733   3.660  13.244
84198SOL    HW154433  14.641   3.686  13.249
84198SOL    HW254434  14.773   3.698  13.322
84199SOL     OW54435   0.874   0.492   1.603
84199SOL    HW154436   0.798   0.537   1.639
84199SOL    HW254437   0.946   0.555   1.611
84200SOL     OW54438   0.620   3.191  13.466
84200SOL    HW154439   0.703   3.237  13.454
84200SOL    HW254440   0.580   3.233  13.542
84201SOL     OW54441   6.751  14.282   2.212
84201SOL    HW154442   6.704  14.352   2.166
84201SOL    HW254443   6.780  14.323   2.294
84202SOL     OW54444  10.374   2.700  10.715
84202SOL    HW154445  10.445   2.658  10.667
84202SOL    HW254446  10.327   2.627  10.756
84203SOL     OW54447   5.106  12.371   5.200
84203SOL    HW154448   5.127  12.286   5.237
84203SOL    HW254449   5.110  12.358   5.105
84204SOL     OW54450   8.012   8.517   7.838
84204SOL    HW154451   7.929   8.481   7.867
84204SOL    HW254452   8.070   8.511   7.914
84205SOL     OW54453   4.649   6.507   2.820
84205SOL    HW154454   4.691   6.452   2.886
84205SOL    HW254455   4.722   6.545   2.771
84206SOL     OW54456   3.212   1.899  12.165
84206SOL    HW154457   3.231   1.912  12.073
84206SOL    HW254458   3.118   1.913  12.173
84207SOL     OW54459   5.637   8.479  10.196
84207SOL    HW154460   5.697   8.553  10.205
84207SOL    HW254461   5.572   8.493  10.265
84208SOL     OW54462   3.356   8.079  13.046
84208SOL    HW154463   3.332   7.986  13.047
84208SOL    HW254464   3.382   8.098  13.135
84209SOL     OW54465  12.772   6.806   7.441
84209SOL    HW154466  12.806   6.717   7.444
84209SOL    HW254467  12.807   6.843   7.359
84210SOL     OW54468  12.510   6.342   0.473
84210SOL    HW154469  12.529   6.378   0.387
84210SOL    HW254470  12.433   6.391   0.504
84211SOL     OW54471   4.178  12.135   1.267
84211SOL    HW154472   4.269  12.163   1.274
84211SOL    HW254473   4.134  12.208   1.225
84212SOL     OW54474  13.408  12.859   6.623
84212SOL    HW154475  13.391  12.913   6.546
84212SOL    HW254476  13.461  12.787   6.590
84213SOL     OW54477  12.162  10.267   3.642
84213SOL    HW154478  12.080  10.232   3.675
84213SOL    HW254479  12.159  10.360   3.664
84214SOL     OW54480   5.443  12.557  13.244
84214SOL    HW154481   5.482  12.525  13.163
84214SOL    HW254482   5.517  12.567  13.304
84215SOL     OW54483   0.636  10.664  12.030
84215SOL    HW154484   0.673  10.601  12.091
84215SOL    HW254485   0.664  10.632  11.944
84216SOL     OW54486   5.589   3.378   3.436
84216SOL    HW154487   5.552   3.466   3.434
84216SOL    HW254488   5.518   3.321   3.407
84217SOL     OW54489  12.850  13.227   7.518
84217SOL    HW154490  12.912  13.198   7.451
84217SOL    HW254491  12.904  13.276   7.581
84218SOL     OW54492   3.854   1.133   9.784
84218SOL    HW154493   3.864   1.110   9.692
84218SOL    HW254494   3.934   1.100   9.826
84219SOL     OW54495   3.703   8.487   2.382
84219SOL    HW154496   3.770   8.439   2.334
84219SOL    HW254497   3.702   8.446   2.469
84220SOL     OW54498   0.587   3.326  14.705
84220SOL    HW154499   0.624   3.238  14.705
84220SOL    HW254500   0.575   3.347  14.798
84221SOL     OW54501  13.719  11.240  10.678
84221SOL    HW154502  13.782  11.192  10.625
84221SOL    HW254503  13.644  11.180  10.687
84222SOL     OW54504  13.591   1.201  12.270
84222SOL    HW154505  13.677   1.163  12.287
84222SOL    HW254506  13.607   1.264  12.199
84223SOL     OW54507  12.479   0.600   7.630
84223SOL    HW154508  12.512   0.599   7.719
84223SOL    HW254509  12.526   0.672   7.587
84224SOL     OW54510   1.980  10.894   6.928
84224SOL    HW154511   2.044  10.829   6.959
84224SOL    HW254512   1.895  10.857   6.953
84225SOL     OW54513   8.284   8.214  11.199
84225SOL    HW154514   8.335   8.137  11.175
84225SOL    HW254515   8.344   8.287  11.190
84226SOL     OW54516   9.715   7.271   5.331
84226SOL    HW154517   9.630   7.270   5.374
84226SOL    HW254518   9.762   7.345   5.371
84227SOL     OW54519   2.272   7.832   1.456
84227SOL    HW154520   2.264   7.761   1.520
84227SOL    HW254521   2.291   7.910   1.508
84228SOL     OW54522   9.202   6.267   3.644
84228SOL    HW154523   9.212   6.235   3.554
84228SOL    HW254524   9.265   6.339   3.651
84229SOL     OW54525   4.129  10.554   4.342
84229SOL    HW154526   4.094  10.506   4.417
84229SOL    HW254527   4.057  10.554   4.278
84230SOL     OW54528   5.326  12.243   5.657
84230SOL    HW154529   5.258  12.309   5.645
84230SOL    HW254530   5.285  12.176   5.712
84231SOL     OW54531   1.903   0.732  13.147
84231SOL    HW154532   1.873   0.699  13.062
84231SOL    HW254533   1.852   0.812  13.160
84232SOL     OW54534   7.812   6.393   3.736
84232SOL    HW154535   7.888   6.335   3.728
84232SOL    HW254536   7.749   6.358   3.673
84233SOL     OW54537   7.897  12.766   9.769
84233SOL    HW154538   7.870  12.823   9.697
84233SOL    HW254539   7.896  12.823   9.846
84234SOL     OW54540   4.270   5.571   9.235
84234SOL    HW154541   4.187   5.618   9.243
84234SOL    HW254542   4.257   5.491   9.286
84235SOL     OW54543   5.056  13.714  13.175
84235SOL    HW154544   4.989  13.782  13.182
84235SOL    HW254545   5.069  13.703  13.081
84236SOL     OW54546   2.147   6.794   0.888
84236SOL    HW154547   2.103   6.804   0.804
84236SOL    HW254548   2.212   6.864   0.890
84237SOL     OW54549   0.233   9.479   0.117
84237SOL    HW154550   0.148   9.482   0.072
84237SOL    HW254551   0.233   9.557   0.172
84238SOL     OW54552   3.772  14.571  11.171
84238SOL    HW154553   3.818  14.502  11.124
84238SOL    HW254554   3.751  14.636  11.104
84239SOL     OW54555  10.862  12.013  12.631
84239SOL    HW154556  10.927  12.079  12.608
84239SOL    HW254557  10.801  12.013  12.556
84240SOL     OW54558   7.418  12.950  11.897
84240SOL    HW154559   7.363  12.872  11.904
84240SOL    HW254560   7.425  12.983  11.987
84241SOL     OW54561  12.169   0.922  10.344
84241SOL    HW154562  12.082   0.949  10.316
84241SOL    HW254563  12.184   0.968  10.426
84242SOL     OW54564   8.936   5.954  10.098
84242SOL    HW154565   8.948   6.049  10.098
84242SOL    HW254566   9.002   5.921  10.159
84243SOL     OW54567   2.592   8.420   9.461
84243SOL    HW154568   2.686   8.416   9.442
84243SOL    HW254569   2.551   8.373   9.388
84244SOL     OW54570   2.368   8.243  12.336
84244SOL    HW154571   2.340   8.155  12.361
84244SOL    HW254572   2.414   8.276  12.413
84245SOL     OW54573   5.654  12.169   8.917
84245SOL    HW154574   5.688  12.090   8.960
84245SOL    HW254575   5.699  12.241   8.960
84246SOL     OW54576  13.140   9.355   6.516
84246SOL    HW154577  13.219   9.407   6.534
84246SOL    HW254578  13.174   9.273   6.479
84247SOL     OW54579   8.425  14.171  12.111
84247SOL    HW154580   8.337  14.165  12.074
84247SOL    HW254581   8.482  14.133  12.044
84248SOL     OW54582   8.755   0.911   3.972
84248SOL    HW154583   8.662   0.890   3.977
84248SOL    HW254584   8.800   0.828   3.984
84249SOL     OW54585   1.126   4.683   7.169
84249SOL    HW154586   1.197   4.618   7.173
84249SOL    HW254587   1.134   4.722   7.082
84250SOL     OW54588  12.177   0.700  13.855
84250SOL    HW154589  12.271   0.698  13.875
84250SOL    HW254590  12.138   0.747  13.928
84251SOL     OW54591   7.390   8.518   6.789
84251SOL    HW154592   7.333   8.500   6.863
84251SOL    HW254593   7.373   8.609   6.767
84252SOL     OW54594   3.123   2.244   7.232
84252SOL    HW154595   3.069   2.292   7.170
84252SOL    HW254596   3.060   2.197   7.287
84253SOL     OW54597   6.290  11.859   7.981
84253SOL    HW154598   6.306  11.846   8.074
84253SOL    HW254599   6.361  11.813   7.937
84254SOL     OW54600   5.181   1.941   7.736
84254SOL    HW154601   5.155   1.934   7.645
84254SOL    HW254602   5.104   1.978   7.780
84255SOL     OW54603   2.535   2.971  13.534
84255SOL    HW154604   2.530   3.045  13.594
84255SOL    HW254605   2.448   2.932  13.537
84256SOL     OW54606   8.832   4.258   3.321
84256SOL    HW154607   8.819   4.304   3.404
84256SOL    HW254608   8.927   4.257   3.309
84257SOL     OW54609  11.951   6.513  10.204
84257SOL    HW154610  11.993   6.536  10.121
84257SOL    HW254611  11.874   6.569  10.208
84258SOL     OW54612   0.864   4.967  11.312
84258SOL    HW154613   0.873   5.037  11.246
84258SOL    HW254614   0.772   4.944  11.310
84259SOL     OW54615  12.475   4.326   1.216
84259SOL    HW154616  12.554   4.380   1.211
84259SOL    HW254617  12.412   4.379   1.265
84260SOL     OW54618  11.387   4.999   3.163
84260SOL    HW154619  11.385   5.079   3.214
84260SOL    HW254620  11.386   4.928   3.228
84261SOL     OW54621   2.276   0.899  10.689
84261SOL    HW154622   2.288   0.987  10.723
84261SOL    HW254623   2.181   0.889  10.679
84262SOL     OW54624   1.518   4.223  10.152
84262SOL    HW154625   1.584   4.282  10.116
84262SOL    HW254626   1.483   4.269  10.228
84263SOL     OW54627   1.296   6.136   9.532
84263SOL    HW154628   1.375   6.187   9.552
84263SOL    HW254629   1.248   6.134   9.615
84264SOL     OW54630   2.571   7.599   4.339
84264SOL    HW154631   2.518   7.678   4.332
84264SOL    HW254632   2.634   7.618   4.409
84265SOL     OW54633  14.412   8.663  11.200
84265SOL    HW154634  14.417   8.684  11.293
84265SOL    HW254635  14.503   8.643  11.176
84266SOL     OW54636   9.280   8.807  12.090
84266SOL    HW154637   9.218   8.819  12.162
84266SOL    HW254638   9.313   8.718  12.102
84267SOL     OW54639   3.963   6.557  14.102
84267SOL    HW154640   4.040   6.532  14.050
84267SOL    HW254641   3.891   6.505  14.065
84268SOL     OW54642  14.171   6.205   4.662
84268SOL    HW154643  14.198   6.124   4.620
84268SOL    HW254644  14.146   6.179   4.751
84269SOL     OW54645  12.613  11.319   8.179
84269SOL    HW154646  12.565  11.402   8.181
84269SOL    HW254647  12.567  11.267   8.113
84270SOL     OW54648  14.608   8.848  10.292
84270SOL    HW154649  14.588   8.777  10.231
84270SOL    HW254650  14.525   8.865  10.336
84271SOL     OW54651   1.136   5.133   9.751
84271SOL    HW154652   1.093   5.059   9.795
84271SOL    HW254653   1.175   5.095   9.673
84272SOL     OW54654   3.434   1.523   2.771
84272SOL    HW154655   3.456   1.430   2.774
84272SOL    HW254656   3.424   1.548   2.863
84273SOL     OW54657   2.667   7.022  13.794
84273SOL    HW154658   2.662   6.988  13.705
84273SOL    HW254659   2.701   7.111  13.784
84274SOL     OW54660   0.813  13.576  12.786
84274SOL    HW154661   0.761  13.652  12.758
84274SOL    HW254662   0.862  13.551  12.708
84275SOL     OW54663  12.459   5.479   2.113
84275SOL    HW154664  12.429   5.406   2.058
84275SOL    HW254665  12.467   5.553   2.053
84276SOL     OW54666  11.535  10.786   1.515
84276SOL    HW154667  11.539  10.757   1.606
84276SOL    HW254668  11.553  10.708   1.463
84277SOL     OW54669  12.973  11.965  11.662
84277SOL    HW154670  12.913  11.899  11.697
84277SOL    HW254671  13.040  11.975  11.729
84278SOL     OW54672   8.202   5.397  12.994
84278SOL    HW154673   8.112   5.397  12.963
84278SOL    HW254674   8.236   5.483  12.968
84279SOL     OW54675   1.017   7.172   3.835
84279SOL    HW154676   1.040   7.122   3.757
84279SOL    HW254677   0.955   7.117   3.883
84280SOL     OW54678   9.875   8.873   5.308
84280SOL    HW154679   9.858   8.896   5.399
84280SOL    HW254680   9.913   8.952   5.270
84281SOL     OW54681  14.830  12.764  10.792
84281SOL    HW154682  14.751  12.818  10.791
84281SOL    HW254683  14.833  12.723  10.705
84282SOL     OW54684  14.633  13.568   0.808
84282SOL    HW154685  14.613  13.657   0.836
84282SOL    HW254686  14.663  13.524   0.887
84283SOL     OW54687   0.851   6.019   9.348
84283SOL    HW154688   0.947   6.015   9.344
84283SOL    HW254689   0.832   6.046   9.438
84284SOL     OW54690  10.340  12.027   3.627
84284SOL    HW154691  10.291  11.947   3.607
84284SOL    HW254692  10.410  11.999   3.685
84285SOL     OW54693   3.701   9.615   2.736
84285SOL    HW154694   3.640   9.653   2.673
84285SOL    HW254695   3.758   9.688   2.761
84286SOL     OW54696  10.900  12.530   4.752
84286SOL    HW154697  10.907  12.603   4.691
84286SOL    HW254698  10.820  12.548   4.802
84287SOL     OW54699   0.429   7.941   4.696
84287SOL    HW154700   0.470   7.965   4.612
84287SOL    HW254701   0.409   7.848   4.688
84288SOL     OW54702   1.547   9.290  12.776
84288SOL    HW154703   1.638   9.270  12.799
84288SOL    HW254704   1.498   9.275  12.857
84289SOL     OW54705   9.752   3.285   4.077
84289SOL    HW154706   9.825   3.305   4.135
84289SOL    HW254707   9.775   3.201   4.036
84290SOL     OW54708  11.567   7.406   1.193
84290SOL    HW154709  11.579   7.355   1.113
84290SOL    HW254710  11.655   7.409   1.233
84291SOL     OW54711   2.296   9.779   3.462
84291SOL    HW154712   2.285   9.707   3.524
84291SOL    HW254713   2.370   9.752   3.408
84292SOL     OW54714  11.356   5.330  11.712
84292SOL    HW154715  11.262   5.348  11.715
84292SOL    HW254716  11.389   5.353  11.799
84293SOL     OW54717  12.537  11.973   7.169
84293SOL    HW154718  12.483  11.895   7.181
84293SOL    HW254719  12.605  11.947   7.108
84294SOL     OW54720   0.063  12.012  11.650
84294SOL    HW154721   0.068  11.932  11.702
84294SOL    HW254722   0.121  12.074  11.695
84295SOL     OW54723   1.655   7.155  12.969
84295SOL    HW154724   1.734   7.109  12.998
84295SOL    HW254725   1.687   7.240  12.940
84296SOL     OW54726   5.066   4.521   9.508
84296SOL    HW154727   5.150   4.553   9.477
84296SOL    HW254728   5.001   4.566   9.453
84297SOL     OW54729   8.468  11.967   0.517
84297SOL    HW154730   8.482  12.048   0.468
84297SOL    HW254731   8.514  11.981   0.600
84298SOL     OW54732   8.807  12.634  10.283
84298SOL    HW154733   8.873  12.679  10.335
84298SOL    HW254734   8.767  12.572  10.344
84299SOL     OW54735  11.920   7.391   4.340
84299SOL    HW154736  11.978   7.334   4.290
84299SOL    HW254737  11.861   7.331   4.387
84300SOL     OW54738  13.931   9.340   9.055
84300SOL    HW154739  13.908   9.429   9.082
84300SOL    HW254740  13.855   9.309   9.007
84301SOL     OW54741  14.714  11.132   3.555
84301SOL    HW154742  14.730  11.099   3.466
84301SOL    HW254743  14.800  11.130   3.597
84302SOL     OW54744   0.789   2.564   6.189
84302SOL    HW154745   0.828   2.484   6.225
84302SOL    HW254746   0.831   2.635   6.238
84303SOL     OW54747  10.568   8.822   6.023
84303SOL    HW154748  10.623   8.886   5.978
84303SOL    HW254749  10.607   8.813   6.110
84304SOL     OW54750   0.373   2.587  10.263
84304SOL    HW154751   0.405   2.503  10.295
84304SOL    HW254752   0.281   2.571  10.242
84305SOL     OW54753   4.551  11.237   2.515
84305SOL    HW154754   4.461  11.233   2.547
84305SOL    HW254755   4.592  11.157   2.548
84306SOL     OW54756   0.895   8.584  14.207
84306SOL    HW154757   0.879   8.592  14.301
84306SOL    HW254758   0.976   8.633  14.192
84307SOL     OW54759   8.353   3.688   6.040
84307SOL    HW154760   8.289   3.637   6.090
84307SOL    HW254761   8.421   3.710   6.103
84308SOL     OW54762  11.864   2.699  11.045
84308SOL    HW154763  11.796   2.631  11.036
84308SOL    HW254764  11.818   2.781  11.028
84309SOL     OW54765   9.981   4.871   0.972
84309SOL    HW154766  10.014   4.961   0.972
84309SOL    HW254767   9.902   4.875   1.026
84310SOL     OW54768   6.712   0.933   1.014
84310SOL    HW154769   6.700   1.024   1.043
84310SOL    HW254770   6.628   0.891   1.033
84311SOL     OW54771  10.443   9.427  14.661
84311SOL    HW154772  10.514   9.373  14.627
84311SOL    HW254773  10.414   9.381  14.740
84312SOL     OW54774   6.238   5.528  13.781
84312SOL    HW154775   6.154   5.530  13.737
84312SOL    HW254776   6.266   5.436  13.776
84313SOL     OW54777   8.188   9.192  12.993
84313SOL    HW154778   8.102   9.169  13.026
84313SOL    HW254779   8.249   9.169  13.064
84314SOL     OW54780   2.596   7.422  14.782
84314SOL    HW154781   2.521   7.375  14.747
84314SOL    HW254782   2.588   7.413   0.001
84315SOL     OW54783  11.594   5.056   7.391
84315SOL    HW154784  11.611   5.149   7.399
84315SOL    HW254785  11.499   5.047   7.404
84316SOL     OW54786   1.084  13.626   1.301
84316SOL    HW154787   1.171  13.609   1.336
84316SOL    HW254788   1.099  13.661   1.214
84317SOL     OW54789  10.872  13.566  11.036
84317SOL    HW154790  10.862  13.594  10.945
84317SOL    HW254791  10.833  13.479  11.039
84318SOL     OW54792   9.230   4.332   9.490
84318SOL    HW154793   9.302   4.395   9.498
84318SOL    HW254794   9.152   4.387   9.477
84319SOL     OW54795  12.095  14.518   6.738
84319SOL    HW154796  12.135  14.431   6.733
84319SOL    HW254797  12.117  14.559   6.654
84320SOL     OW54798   4.842   4.459  14.223
84320SOL    HW154799   4.868   4.462  14.131
84320SOL    HW254800   4.751   4.428  14.221
84321SOL     OW54801  11.168   3.926   6.279
84321SOL    HW154802  11.227   3.874   6.333
84321SOL    HW254803  11.137   3.866   6.212
84322SOL     OW54804  10.091   1.141   9.611
84322SOL    HW154805  10.073   1.159   9.703
84322SOL    HW254806  10.111   1.047   9.608
84323SOL     OW54807   4.364   2.069   3.662
84323SOL    HW154808   4.338   2.044   3.750
84323SOL    HW254809   4.289   2.118   3.628
84324SOL     OW54810   4.868  11.343   6.918
84324SOL    HW154811   4.892  11.313   6.831
84324SOL    HW254812   4.851  11.437   6.908
84325SOL     OW54813   0.015   0.391   5.013
84325SOL    HW154814   0.053   0.469   4.973
84325SOL    HW254815   0.034   0.320   4.953
84326SOL     OW54816  14.685  10.268  11.820
84326SOL    HW154817  14.763  10.220  11.848
84326SOL    HW254818  14.616  10.202  11.817
84327SOL     OW54819  11.130  11.403   3.691
84327SOL    HW154820  11.165  11.412   3.779
84327SOL    HW254821  11.120  11.309   3.678
84328SOL     OW54822   4.764  12.381   5.010
84328SOL    HW154823   4.695  12.412   4.950
84328SOL    HW254824   4.757  12.437   5.086
84329SOL     OW54825   6.807   1.439   2.687
84329SOL    HW154826   6.854   1.365   2.649
84329SOL    HW254827   6.854   1.516   2.656
84330SOL     OW54828  13.945   4.993   5.086
84330SOL    HW154829  14.021   5.035   5.044
84330SOL    HW254830  13.873   5.055   5.071
84331SOL     OW54831   8.123  14.731  14.204
84331SOL    HW154832   8.036  14.748  14.167
84331SOL    HW254833   8.179  14.716  14.127
84332SOL     OW54834   2.329   2.395   5.969
84332SOL    HW154835   2.382   2.315   5.967
84332SOL    HW254836   2.295   2.398   6.059
84333SOL     OW54837  12.538  14.149   4.814
84333SOL    HW154838  12.473  14.219   4.821
84333SOL    HW254839  12.499  14.075   4.860
84334SOL     OW54840  13.558   7.012  12.954
84334SOL    HW154841  13.603   6.929  12.939
84334SOL    HW254842  13.620   7.064  13.005
84335SOL     OW54843   9.383  13.021   1.318
84335SOL    HW154844   9.460  12.979   1.356
84335SOL    HW254845   9.344  13.070   1.391
84336SOL     OW54846   8.632  10.566  13.021
84336SOL    HW154847   8.675  10.648  13.043
84336SOL    HW254848   8.641  10.559  12.926
84337SOL     OW54849   9.959   9.951  13.041
84337SOL    HW154850   9.959   9.911  12.954
84337SOL    HW254851   9.889  10.015  13.038
84338SOL     OW54852   0.226   6.186  13.836
84338SOL    HW154853   0.168   6.263  13.834
84338SOL    HW254854   0.172   6.116  13.872
84339SOL     OW54855   3.864  12.973   2.824
84339SOL    HW154856   3.809  12.947   2.751
84339SOL    HW254857   3.811  12.955   2.902
84340SOL     OW54858  12.545   8.756   7.731
84340SOL    HW154859  12.595   8.816   7.786
84340SOL    HW254860  12.527   8.806   7.651
84341SOL     OW54861  12.834   1.055  10.026
84341SOL    HW154862  12.914   1.047  10.078
84341SOL    HW254863  12.768   1.009  10.078
84342SOL     OW54864   4.527   9.679   0.056
84342SOL    HW154865   4.492   9.695  14.844
84342SOL    HW254866   4.621   9.692   0.046
84343SOL     OW54867   7.657  12.873   6.072
84343SOL    HW154868   7.616  12.821   6.003
84343SOL    HW254869   7.739  12.828   6.091
84344SOL     OW54870   8.037   6.237   3.706
84344SOL    HW154871   8.019   6.214   3.615
84344SOL    HW254872   8.049   6.153   3.750
84345SOL     OW54873   6.440   6.341   9.096
84345SOL    HW154874   6.390   6.299   9.026
84345SOL    HW254875   6.384   6.412   9.126
84346SOL     OW54876   0.379   6.452  13.694
84346SOL    HW154877   0.332   6.382  13.648
84346SOL    HW254878   0.331   6.531  13.672
84347SOL     OW54879   4.221  11.369   0.774
84347SOL    HW154880   4.145  11.423   0.753
84347SOL    HW254881   4.296  11.426   0.756
84348SOL     OW54882   0.077  10.565   5.107
84348SOL    HW154883   0.024  10.623   5.052
84348SOL    HW254884   0.094  10.489   5.052
84349SOL     OW54885   9.741  13.249  10.288
84349SOL    HW154886   9.651  13.263  10.316
84349SOL    HW254887   9.737  13.253  10.192
84350SOL     OW54888   9.677   9.479   3.309
84350SOL    HW154889   9.748   9.467   3.245
84350SOL    HW254890   9.675   9.398   3.359
84351SOL     OW54891  10.729   8.658  14.492
84351SOL    HW154892  10.677   8.718  14.439
84351SOL    HW254893  10.806   8.709  14.517
84352SOL     OW54894   0.298   6.880  13.098
84352SOL    HW154895   0.224   6.940  13.098
84352SOL    HW254896   0.352   6.908  13.172
84353SOL     OW54897   2.337   6.490   9.725
84353SOL    HW154898   2.410   6.548   9.706
84353SOL    HW254899   2.298   6.525   9.806
84354SOL     OW54900   0.934  13.251  11.365
84354SOL    HW154901   0.972  13.170  11.329
84354SOL    HW254902   0.927  13.234  11.459
84355SOL     OW54903   7.371  13.229  10.698
84355SOL    HW154904   7.353  13.151  10.750
84355SOL    HW254905   7.463  13.222  10.675
84356SOL     OW54906   3.597   0.174   3.067
84356SOL    HW154907   3.511   0.173   3.108
84356SOL    HW254908   3.580   0.148   2.976
84357SOL     OW54909  10.652   8.601   5.773
84357SOL    HW154910  10.651   8.653   5.693
84357SOL    HW254911  10.700   8.655   5.836
84358SOL     OW54912   9.172   3.475  14.154
84358SOL    HW154913   9.123   3.531  14.214
84358SOL    HW254914   9.176   3.390  14.197
84359SOL     OW54915   1.550   9.301   8.122
84359SOL    HW154916   1.645   9.308   8.135
84359SOL    HW254917   1.539   9.226   8.064
84360SOL     OW54918   5.837   3.162   8.658
84360SOL    HW154919   5.925   3.174   8.622
84360SOL    HW254920   5.817   3.070   8.643
84361SOL     OW54921  14.073  13.321  13.693
84361SOL    HW154922  14.125  13.243  13.715
84361SOL    HW254923  14.064  13.317  13.598
84362SOL     OW54924   8.072  12.165   9.544
84362SOL    HW154925   8.122  12.083   9.548
84362SOL    HW254926   8.125  12.228   9.593
84363SOL     OW54927   6.302  11.292   8.168
84363SOL    HW154928   6.276  11.215   8.219
84363SOL    HW254929   6.344  11.257   8.090
84364SOL     OW54930   6.689  10.109  12.478
84364SOL    HW154931   6.770  10.157  12.463
84364SOL    HW254932   6.620  10.168  12.449
84365SOL     OW54933   4.874  10.788   9.502
84365SOL    HW154934   4.835  10.813   9.418
84365SOL    HW254935   4.899  10.696   9.491
84366SOL     OW54936   4.576   3.478  14.725
84366SOL    HW154937   4.661   3.504  14.689
84366SOL    HW254938   4.512   3.513  14.663
84367SOL     OW54939   4.104   6.841   0.445
84367SOL    HW154940   4.043   6.872   0.511
84367SOL    HW254941   4.095   6.745   0.446
84368SOL     OW54942   1.952  14.251  10.053
84368SOL    HW154943   2.027  14.193  10.062
84368SOL    HW254944   1.938  14.259   9.958
84369SOL     OW54945  13.275   4.406   3.833
84369SOL    HW154946  13.300   4.357   3.911
84369SOL    HW254947  13.358   4.433   3.794
84370SOL     OW54948  11.329  12.295   8.460
84370SOL    HW154949  11.260  12.326   8.401
84370SOL    HW254950  11.285  12.234   8.519
84371SOL     OW54951  13.952  11.570   8.772
84371SOL    HW154952  13.963  11.491   8.825
84371SOL    HW254953  13.880  11.550   8.713
84372SOL     OW54954   3.568   9.294  13.971
84372SOL    HW154955   3.596   9.216  14.019
84372SOL    HW254956   3.544   9.357  14.039
84373SOL     OW54957   5.300  14.565   5.947
84373SOL    HW154958   5.267  14.566   6.037
84373SOL    HW254959   5.389  14.601   5.954
84374SOL     OW54960   5.290  14.234  10.503
84374SOL    HW154961   5.386  14.238  10.495
84374SOL    HW254962   5.259  14.299  10.440
84375SOL     OW54963   7.098  11.586   7.932
84375SOL    HW154964   7.190  11.603   7.953
84375SOL    HW254965   7.081  11.637   7.852
84376SOL     OW54966  13.445  11.230   2.523
84376SOL    HW154967  13.409  11.141   2.514
84376SOL    HW254968  13.399  11.281   2.456
84377SOL     OW54969   7.196  13.472   4.585
84377SOL    HW154970   7.231  13.395   4.631
84377SOL    HW254971   7.104  13.475   4.609
84378SOL     OW54972   8.250   9.406   7.282
84378SOL    HW154973   8.236   9.429   7.374
84378SOL    HW254974   8.173   9.443   7.237
84379SOL     OW54975   9.326   4.269  13.598
84379SOL    HW154976   9.295   4.255  13.688
84379SOL    HW254977   9.405   4.322  13.608
84380SOL     OW54978   9.191   5.694   2.739
84380SOL    HW154979   9.110   5.702   2.689
84380SOL    HW254980   9.259   5.679   2.673
84381SOL     OW54981   6.434  10.667   3.671
84381SOL    HW154982   6.462  10.590   3.621
84381SOL    HW254983   6.486  10.739   3.635
84382SOL     OW54984  11.427   3.817  14.647
84382SOL    HW154985  11.338   3.783  14.653
84382SOL    HW254986  11.426   3.897  14.700
84383SOL     OW54987  12.515   8.199  12.575
84383SOL    HW154988  12.606   8.191  12.604
84383SOL    HW254989  12.510   8.142  12.498
84384SOL     OW54990  12.510   8.351   0.354
84384SOL    HW154991  12.433   8.326   0.303
84384SOL    HW254992  12.517   8.285   0.422
84385SOL     OW54993   9.239   1.120   6.031
84385SOL    HW154994   9.150   1.151   6.013
84385SOL    HW254995   9.228   1.050   6.095
84386SOL     OW54996   3.193   9.305   2.567
84386SOL    HW154997   3.203   9.218   2.606
84386SOL    HW254998   3.126   9.348   2.621
84387SOL     OW54999  14.681  13.893   7.674
84387SOL    HW155000  14.668  13.940   7.591
84387SOL    HW255001  14.710  13.961   7.735
84388SOL     OW55002  14.801   1.711   6.832
84388SOL    HW155003  14.767   1.675   6.914
84388SOL    HW255004   0.009   1.750   6.856
84389SOL     OW55005   8.365  12.759   1.396
84389SOL    HW155006   8.449  12.804   1.389
84389SOL    HW255007   8.308  12.805   1.335
84390SOL     OW55008   0.291   2.411   2.525
84390SOL    HW155009   0.224   2.476   2.503
84390SOL    HW255010   0.244   2.328   2.530
84391SOL     OW55011  11.601   7.749   7.957
84391SOL    HW155012  11.557   7.827   7.991
84391SOL    HW255013  11.623   7.771   7.866
84392SOL     OW55014   1.503   7.093  12.467
84392SOL    HW155015   1.495   7.010  12.420
84392SOL    HW255016   1.548   7.071  12.548
84393SOL     OW55017   3.416   2.265   2.787
84393SOL    HW155018   3.497   2.311   2.764
84393SOL    HW255019   3.351   2.299   2.725
84394SOL     OW55020   8.017  14.403   9.676
84394SOL    HW155021   8.082  14.365   9.735
84394SOL    HW255022   7.982  14.327   9.628
84395SOL     OW55023   2.856  10.999  10.475
84395SOL    HW155024   2.855  10.983  10.381
84395SOL    HW255025   2.862  10.912  10.514
84396SOL     OW55026   3.200   7.736   0.118
84396SOL    HW155027   3.190   7.777   0.204
84396SOL    HW255028   3.227   7.807   0.061
84397SOL     OW55029  13.878   8.290   5.882
84397SOL    HW155030  13.894   8.196   5.871
84397SOL    HW255031  13.783   8.299   5.872
84398SOL     OW55032   7.455   9.032   9.848
84398SOL    HW155033   7.529   9.052   9.791
84398SOL    HW255034   7.454   8.937   9.852
84399SOL     OW55035   6.056   0.206   3.867
84399SOL    HW155036   6.027   0.116   3.881
84399SOL    HW255037   6.027   0.228   3.779
84400SOL     OW55038  10.853   8.075  10.876
84400SOL    HW155039  10.767   8.107  10.904
84400SOL    HW255040  10.866   7.994  10.925
84401SOL     OW55041   1.276  10.091   9.487
84401SOL    HW155042   1.219  10.027   9.529
84401SOL    HW255043   1.352  10.040   9.458
84402SOL     OW55044   7.647   8.666   4.655
84402SOL    HW155045   7.587   8.724   4.608
84402SOL    HW255046   7.734   8.704   4.640
84403SOL     OW55047  13.602   8.657   8.397
84403SOL    HW155048  13.682   8.675   8.447
84403SOL    HW255049  13.630   8.600   8.326
84404SOL     OW55050   8.468   9.847  10.840
84404SOL    HW155051   8.392   9.817  10.889
84404SOL    HW255052   8.520   9.897  10.903
84405SOL     OW55053  14.190  14.199  10.354
84405SOL    HW155054  14.276  14.156  10.350
84405SOL    HW255055  14.127  14.127  10.358
84406SOL     OW55056  12.392  10.933   3.116
84406SOL    HW155057  12.448  11.010   3.106
84406SOL    HW255058  12.431  10.868   3.058
84407SOL     OW55059  13.111   1.607   5.616
84407SOL    HW155060  13.195   1.560   5.612
84407SOL    HW255061  13.045   1.538   5.619
84408SOL     OW55062   2.388   5.591   1.074
84408SOL    HW155063   2.426   5.659   1.020
84408SOL    HW255064   2.452   5.577   1.144
84409SOL     OW55065  10.011   2.227  11.542
84409SOL    HW155066  10.005   2.301  11.481
84409SOL    HW255067   9.926   2.183  11.533
84410SOL     OW55068  14.167   3.375  10.191
84410SOL    HW155069  14.180   3.395  10.099
84410SOL    HW255070  14.252   3.345  10.222
84411SOL     OW55071  12.090   9.263   7.619
84411SOL    HW155072  12.123   9.229   7.702
84411SOL    HW255073  12.168   9.278   7.566
84412SOL     OW55074   1.963   7.670   6.959
84412SOL    HW155075   1.883   7.711   6.925
84412SOL    HW255076   2.031   7.697   6.898
84413SOL     OW55077   7.773   3.251   6.701
84413SOL    HW155078   7.841   3.318   6.700
84413SOL    HW255079   7.749   3.238   6.609
84414SOL     OW55080  11.697   9.272   0.237
84414SOL    HW155081  11.717   9.294   0.146
84414SOL    HW255082  11.710   9.177   0.242
84415SOL     OW55083   1.350  11.671  10.129
84415SOL    HW155084   1.369  11.579  10.111
84415SOL    HW255085   1.255  11.675  10.139
84416SOL     OW55086   7.192  10.513   6.056
84416SOL    HW155087   7.153  10.426   6.045
84416SOL    HW255088   7.285  10.499   6.041
84417SOL     OW55089   7.319   3.012   8.650
84417SOL    HW155090   7.378   3.081   8.620
84417SOL    HW255091   7.232   3.042   8.622
84418SOL     OW55092   7.395  12.455   6.121
84418SOL    HW155093   7.355  12.529   6.076
84418SOL    HW255094   7.343  12.443   6.200
84419SOL     OW55095  13.183   2.227   5.586
84419SOL    HW155096  13.102   2.203   5.631
84419SOL    HW255097  13.193   2.160   5.519
84420SOL     OW55098  13.784   3.064   3.872
84420SOL    HW155099  13.847   2.998   3.843
84420SOL    HW255100  13.724   3.075   3.798
84421SOL     OW55101   7.521  12.720  10.938
84421SOL    HW155102   7.463  12.648  10.912
84421SOL    HW255103   7.494  12.743  11.027
84422SOL     OW55104   3.481   7.740   4.993
84422SOL    HW155105   3.514   7.812   5.047
84422SOL    HW255106   3.394   7.723   5.027
84423SOL     OW55107   1.771  10.034   9.204
84423SOL    HW155108   1.767  10.056   9.111
84423SOL    HW255109   1.827  10.101   9.242
84424SOL     OW55110   2.840  12.301   2.100
84424SOL    HW155111   2.842  12.376   2.040
84424SOL    HW255112   2.845  12.224   2.043
84425SOL     OW55113   3.670   5.560   8.434
84425SOL    HW155114   3.711   5.489   8.383
84425SOL    HW255115   3.624   5.515   8.504
84426SOL     OW55116   1.380   3.602  10.287
84426SOL    HW155117   1.453   3.629  10.343
84426SOL    HW255118   1.344   3.525  10.331
84427SOL     OW55119  10.522   0.187   7.749
84427SOL    HW155120  10.433   0.159   7.769
84427SOL    HW255121  10.575   0.108   7.760
84428SOL     OW55122   6.572  13.130   7.004
84428SOL    HW155123   6.582  13.047   6.958
84428SOL    HW255124   6.576  13.196   6.935
84429SOL     OW55125   0.187   3.483   9.276
84429SOL    HW155126   0.190   3.416   9.207
84429SOL    HW255127   0.153   3.561   9.232
84430SOL     OW55128   3.097   5.804   9.941
84430SOL    HW155129   3.016   5.854   9.939
84430SOL    HW255130   3.093   5.755  10.023
84431SOL     OW55131   4.197  11.953  13.154
84431SOL    HW155132   4.272  11.989  13.106
84431SOL    HW255133   4.150  12.030  13.186
84432SOL     OW55134   5.262   6.140  14.198
84432SOL    HW155135   5.244   6.088  14.120
84432SOL    HW255136   5.281   6.075  14.266
84433SOL     OW55137  11.008  11.005   2.618
84433SOL    HW155138  10.965  10.935   2.570
84433SOL    HW255139  10.963  11.009   2.702
84434SOL     OW55140   1.406   6.423   5.723
84434SOL    HW155141   1.471   6.437   5.654
84434SOL    HW255142   1.405   6.505   5.773
84435SOL     OW55143   9.753   5.021   5.124
84435SOL    HW155144   9.786   4.949   5.070
84435SOL    HW255145   9.659   5.005   5.130
84436SOL     OW55146  13.146  11.919   6.118
84436SOL    HW155147  13.062  11.949   6.152
84436SOL    HW255148  13.127  11.888   6.030
84437SOL     OW55149   3.446   1.257  12.791
84437SOL    HW155150   3.488   1.188  12.842
84437SOL    HW255151   3.513   1.326  12.784
84438SOL     OW55152   5.238   9.602   8.315
84438SOL    HW155153   5.211   9.510   8.318
84438SOL    HW255154   5.332   9.600   8.333
84439SOL     OW55155   4.537   6.049   9.571
84439SOL    HW155156   4.489   6.092   9.500
84439SOL    HW255157   4.595   5.987   9.526
84440SOL     OW55158   0.602   4.247   1.810
84440SOL    HW155159   0.539   4.260   1.739
84440SOL    HW255160   0.687   4.249   1.766
84441SOL     OW55161  11.932  11.467   0.417
84441SOL    HW155162  11.864  11.467   0.349
84441SOL    HW255163  11.917  11.547   0.467
84442SOL     OW55164  11.438   8.338   0.997
84442SOL    HW155165  11.532   8.330   1.007
84442SOL    HW255166  11.404   8.346   1.086
84443SOL     OW55167   8.750   0.646  14.277
84443SOL    HW155168   8.818   0.645  14.344
84443SOL    HW255169   8.669   0.662  14.326
84444SOL     OW55170   2.150  10.003   3.364
84444SOL    HW155171   2.088   9.960   3.306
84444SOL    HW255172   2.207   9.933   3.395
84445SOL     OW55173   7.167   7.426   8.023
84445SOL    HW155174   7.201   7.513   8.004
84445SOL    HW255175   7.154   7.426   8.118
84446SOL     OW55176   4.918   4.775  11.940
84446SOL    HW155177   4.910   4.683  11.912
84446SOL    HW255178   5.005   4.802  11.908
84447SOL     OW55179   6.200   5.109  12.662
84447SOL    HW155180   6.208   5.038  12.727
84447SOL    HW255181   6.237   5.072  12.582
84448SOL     OW55182   1.715   6.161   7.619
84448SOL    HW155183   1.652   6.201   7.680
84448SOL    HW255184   1.666   6.091   7.577
84449SOL     OW55185  10.906   1.901   8.142
84449SOL    HW155186  10.816   1.929   8.162
84449SOL    HW255187  10.958   1.981   8.148
84450SOL     OW55188   7.708  10.403   1.850
84450SOL    HW155189   7.719  10.481   1.796
84450SOL    HW255190   7.744  10.428   1.935
84451SOL     OW55191  12.558  10.343  14.131
84451SOL    HW155192  12.575  10.434  14.153
84451SOL    HW255193  12.590  10.334  14.041
84452SOL     OW55194   6.486   0.688   3.186
84452SOL    HW155195   6.577   0.666   3.165
84452SOL    HW255196   6.475   0.660   3.277
84453SOL     OW55197   0.033  13.348   9.841
84453SOL    HW155198   0.059  13.399   9.917
84453SOL    HW255199  14.814  13.345   9.844
84454SOL     OW55200  13.091   2.405   9.924
84454SOL    HW155201  13.015   2.398   9.867
84454SOL    HW255202  13.107   2.499   9.933
84455SOL     OW55203   6.593  11.249   7.542
84455SOL    HW155204   6.617  11.196   7.466
84455SOL    HW255205   6.515  11.206   7.577
84456SOL     OW55206   1.600   1.293   9.841
84456SOL    HW155207   1.541   1.340   9.900
84456SOL    HW255208   1.573   1.202   9.847
84457SOL     OW55209   5.469  12.832   4.258
84457SOL    HW155210   5.414  12.805   4.184
84457SOL    HW255211   5.485  12.925   4.243
84458SOL     OW55212   5.528  10.221  12.967
84458SOL    HW155213   5.523  10.190  13.057
84458SOL    HW255214   5.595  10.166  12.926
84459SOL     OW55215   5.184   3.258   1.382
84459SOL    HW155216   5.171   3.329   1.446
84459SOL    HW255217   5.272   3.227   1.399
84460SOL     OW55218   4.515   7.039   0.331
84460SOL    HW155219   4.551   6.951   0.322
84460SOL    HW255220   4.435   7.037   0.277
84461SOL     OW55221   0.773   1.586   4.323
84461SOL    HW155222   0.733   1.506   4.358
84461SOL    HW255223   0.782   1.569   4.229
84462SOL     OW55224  12.649   5.223   4.765
84462SOL    HW155225  12.600   5.287   4.714
84462SOL    HW255226  12.605   5.221   4.850
84463SOL     OW55227   2.274  13.518   2.588
84463SOL    HW155228   2.362  13.555   2.582
84463SOL    HW255229   2.284  13.427   2.562
84464SOL     OW55230   0.741   3.852   8.481
84464SOL    HW155231   0.744   3.866   8.576
84464SOL    HW255232   0.687   3.775   8.470
84465SOL     OW55233   3.418  12.142   7.150
84465SOL    HW155234   3.474  12.200   7.203
84465SOL    HW255235   3.462  12.057   7.153
84466SOL     OW55236   7.156   2.069  10.854
84466SOL    HW155237   7.153   2.103  10.765
84466SOL    HW255238   7.231   2.009  10.855
84467SOL     OW55239   3.542   5.784  13.482
84467SOL    HW155240   3.490   5.864  13.492
84467SOL    HW255241   3.510   5.745  13.401
84468SOL     OW55242   1.501   8.508  12.334
84468SOL    HW155243   1.422   8.552  12.303
84468SOL    HW255244   1.472   8.421  12.361
84469SOL     OW55245  12.879   3.966   7.381
84469SOL    HW155246  12.789   3.939   7.362
84469SOL    HW255247  12.916   3.892   7.430
84470SOL     OW55248   9.362   1.773   7.365
84470SOL    HW155249   9.284   1.718   7.359
84470SOL    HW255250   9.431   1.721   7.324
84471SOL     OW55251   2.038   4.922   9.831
84471SOL    HW155252   2.078   4.836   9.843
84471SOL    HW255253   2.112   4.980   9.812
84472SOL     OW55254   6.358   1.651  14.673
84472SOL    HW155255   6.326   1.694  14.594
84472SOL    HW255256   6.387   1.565  14.645
84473SOL     OW55257  14.831  10.441   0.599
84473SOL    HW155258  14.875  10.357   0.610
84473SOL    HW255259  14.815  10.447   0.504
84474SOL     OW55260   4.144   9.035  13.428
84474SOL    HW155261   4.080   9.104  13.409
84474SOL    HW255262   4.103   8.983  13.497
84475SOL     OW55263   6.301  14.806   3.879
84475SOL    HW155264   6.272   0.010   3.922
84475SOL    HW255265   6.278  14.819   3.787
84476SOL     OW55266  10.200  12.954   0.538
84476SOL    HW155267  10.231  13.040   0.510
84476SOL    HW255268  10.274  12.896   0.522
84477SOL     OW55269  13.044   3.922  11.133
84477SOL    HW155270  13.019   3.987  11.068
84477SOL    HW255271  13.000   3.949  11.213
84478SOL     OW55272  14.273  12.713   8.336
84478SOL    HW155273  14.251  12.692   8.427
84478SOL    HW255274  14.193  12.693   8.287
84479SOL     OW55275   5.601   2.945  13.036
84479SOL    HW155276   5.652   2.880  13.083
84479SOL    HW255277   5.530   2.895  12.995
84480SOL     OW55278   9.500   2.160   1.023
84480SOL    HW155279   9.431   2.135   1.083
84480SOL    HW255280   9.573   2.186   1.079
84481SOL     OW55281   3.234   1.937   1.393
84481SOL    HW155282   3.159   1.911   1.339
84481SOL    HW255283   3.255   1.859   1.444
84482SOL     OW55284   1.608  12.870   3.964
84482SOL    HW155285   1.525  12.823   3.959
84482SOL    HW255286   1.674  12.802   3.960
84483SOL     OW55287  12.023  14.225   9.424
84483SOL    HW155288  11.930  14.233   9.401
84483SOL    HW255289  12.069  14.270   9.354
84484SOL     OW55290   8.450   1.316  14.641
84484SOL    HW155291   8.448   1.301  14.736
84484SOL    HW255292   8.534   1.359  14.625
84485SOL     OW55293  12.566  13.257  10.114
84485SOL    HW155294  12.604  13.209  10.040
84485SOL    HW255295  12.600  13.212  10.192
84486SOL     OW55296   6.798  14.667  12.893
84486SOL    HW155297   6.722  14.694  12.945
84486SOL    HW255298   6.760  14.617  12.820
84487SOL     OW55299  13.245   2.845   3.778
84487SOL    HW155300  13.282   2.758   3.794
84487SOL    HW255301  13.318   2.897   3.744
84488SOL     OW55302   7.478  14.456   5.619
84488SOL    HW155303   7.447  14.542   5.646
84488SOL    HW255304   7.426  14.394   5.671
84489SOL     OW55305  14.209   1.686   7.100
84489SOL    HW155306  14.256   1.748   7.156
84489SOL    HW255307  14.259   1.605   7.108
84490SOL     OW55308   1.882  10.784  11.770
84490SOL    HW155309   1.927  10.833  11.700
84490SOL    HW255310   1.949  10.772  11.837
84491SOL     OW55311   2.143  13.914   5.157
84491SOL    HW155312   2.141  13.847   5.088
84491SOL    HW255313   2.236  13.935   5.166
84492SOL     OW55314   0.821  11.373  10.987
84492SOL    HW155315   0.844  11.321  11.064
84492SOL    HW255316   0.852  11.322  10.913
84493SOL     OW55317   4.558  14.238   7.535
84493SOL    HW155318   4.556  14.199   7.447
84493SOL    HW255319   4.650  14.258   7.550
84494SOL     OW55320   3.350   2.712   7.466
84494SOL    HW155321   3.328   2.719   7.374
84494SOL    HW255322   3.410   2.785   7.482
84495SOL     OW55323   4.443   1.766   3.305
84495SOL    HW155324   4.531   1.782   3.340
84495SOL    HW255325   4.387   1.762   3.382
84496SOL     OW55326   6.840  13.340   0.556
84496SOL    HW155327   6.750  13.312   0.536
84496SOL    HW255328   6.830  13.429   0.589
84497SOL     OW55329   1.134   4.599  13.910
84497SOL    HW155330   1.102   4.643  13.831
84497SOL    HW255331   1.225   4.578  13.890
84498SOL     OW55332   9.140   2.151   2.334
84498SOL    HW155333   9.092   2.096   2.272
84498SOL    HW255334   9.151   2.096   2.411
84499SOL     OW55335   2.254  14.316   6.556
84499SOL    HW155336   2.330  14.268   6.523
84499SOL    HW255337   2.208  14.344   6.476
84500SOL     OW55338   2.610   9.497  11.358
84500SOL    HW155339   2.609   9.430  11.426
84500SOL    HW255340   2.593   9.449  11.277
84501SOL     OW55341  13.216   0.488   4.581
84501SOL    HW155342  13.200   0.525   4.494
84501SOL    HW255343  13.262   0.558   4.629
84502SOL     OW55344   2.865   3.870   4.227
84502SOL    HW155345   2.950   3.837   4.198
84502SOL    HW255346   2.878   3.892   4.319
84503SOL     OW55347   7.290  10.129   2.499
84503SOL    HW155348   7.378  10.098   2.519
84503SOL    HW255349   7.274  10.100   2.409
84504SOL     OW55350   9.410   2.574   7.214
84504SOL    HW155351   9.342   2.618   7.264
84504SOL    HW255352   9.482   2.637   7.212
84505SOL     OW55353  10.064   9.721   0.370
84505SOL    HW155354  10.102   9.684   0.450
84505SOL    HW255355   9.989   9.665   0.351
84506SOL     OW55356   9.740  11.858  14.521
84506SOL    HW155357   9.818  11.888  14.473
84506SOL    HW255358   9.750  11.894  14.609
84507SOL     OW55359   8.622   0.941   2.355
84507SOL    HW155360   8.694   0.956   2.416
84507SOL    HW255361   8.613   1.024   2.308
84508SOL     OW55362  11.954  10.301   8.651
84508SOL    HW155363  12.030  10.318   8.707
84508SOL    HW255364  11.943  10.382   8.600
84509SOL     OW55365   5.770   1.867   9.461
84509SOL    HW155366   5.693   1.906   9.501
84509SOL    HW255367   5.740   1.839   9.374
84510SOL     OW55368   2.775   7.979   2.727
84510SOL    HW155369   2.698   7.934   2.761
84510SOL    HW255370   2.785   7.944   2.638
84511SOL     OW55371   1.154   8.462   9.110
84511SOL    HW155372   1.151   8.367   9.107
84511SOL    HW255373   1.201   8.482   9.191
84512SOL     OW55374  12.628   2.626  13.686
84512SOL    HW155375  12.643   2.700  13.628
84512SOL    HW255376  12.715   2.588  13.700
84513SOL     OW55377   3.808   8.201  14.308
84513SOL    HW155378   3.739   8.149  14.348
84513SOL    HW255379   3.881   8.139  14.298
84514SOL     OW55380   6.278  10.106  13.993
84514SOL    HW155381   6.209  10.127  13.930
84514SOL    HW255382   6.315  10.023  13.963
84515SOL     OW55383   6.711   3.793  10.154
84515SOL    HW155384   6.784   3.734  10.134
84515SOL    HW255385   6.656   3.743  10.215
84516SOL     OW55386   6.906  12.599  12.909
84516SOL    HW155387   6.860  12.683  12.918
84516SOL    HW255388   6.980  12.605  12.969
84517SOL     OW55389   6.379   9.748   6.966
84517SOL    HW155390   6.414   9.754   6.877
84517SOL    HW255391   6.415   9.666   7.000
84518SOL     OW55392  14.767   7.701   3.494
84518SOL    HW155393  14.774   7.671   3.403
84518SOL    HW255394  14.823   7.779   3.498
84519SOL     OW55395   6.446  11.736  11.270
84519SOL    HW155396   6.460  11.824  11.305
84519SOL    HW255397   6.382  11.697  11.330
84520SOL     OW55398  13.734   6.383   5.409
84520SOL    HW155399  13.788   6.447   5.361
84520SOL    HW255400  13.795   6.312   5.431
84521SOL     OW55401   2.543   6.443   5.663
84521SOL    HW155402   2.583   6.522   5.626
84521SOL    HW255403   2.616   6.383   5.678
84522SOL     OW55404   0.806  14.869   3.211
84522SOL    HW155405   0.780   0.027   3.296
84522SOL    HW255406   0.901   0.006   3.207
84523SOL     OW55407   7.711   2.854   4.231
84523SOL    HW155408   7.672   2.937   4.258
84523SOL    HW255409   7.719   2.804   4.312
84524SOL     OW55410   1.188  13.518   2.342
84524SOL    HW155411   1.111  13.472   2.374
84524SOL    HW255412   1.247  13.449   2.312
84525SOL     OW55413   4.557  13.019  11.438
84525SOL    HW155414   4.560  12.943  11.379
84525SOL    HW255415   4.649  13.036  11.460
84526SOL     OW55416   7.063  11.341   2.784
84526SOL    HW155417   7.019  11.285   2.848
84526SOL    HW255418   7.147  11.363   2.825
84527SOL     OW55419   2.316   8.409   7.453
84527SOL    HW155420   2.350   8.323   7.477
84527SOL    HW255421   2.393   8.459   7.426
84528SOL     OW55422   1.929   9.841   3.313
84528SOL    HW155423   1.834   9.834   3.302
84528SOL    HW255424   1.963   9.758   3.279
84529SOL     OW55425   0.833   2.459  14.629
84529SOL    HW155426   0.849   2.528  14.565
84529SOL    HW255427   0.903   2.395  14.613
84530SOL     OW55428   9.259   7.954   3.237
84530SOL    HW155429   9.264   7.940   3.143
84530SOL    HW255430   9.212   7.877   3.270
84531SOL     OW55431   8.976   3.088  11.207
84531SOL    HW155432   9.065   3.053  11.211
84531SOL    HW255433   8.965   3.134  11.291
84532SOL     OW55434   9.185   4.427   6.842
84532SOL    HW155435   9.145   4.390   6.920
84532SOL    HW255436   9.211   4.515   6.867
84533SOL     OW55437   5.985   2.404   8.154
84533SOL    HW155438   5.922   2.384   8.085
84533SOL    HW255439   5.940   2.383   8.236
84534SOL     OW55440   7.344   0.307   4.298
84534SOL    HW155441   7.251   0.303   4.274
84534SOL    HW255442   7.381   0.226   4.265
84535SOL     OW55443   8.495   4.446   2.564
84535SOL    HW155444   8.435   4.414   2.498
84535SOL    HW255445   8.580   4.451   2.520
84536SOL     OW55446   8.229  14.345   9.840
84536SOL    HW155447   8.290  14.388   9.900
84536SOL    HW255448   8.285  14.309   9.771
84537SOL     OW55449   4.618   9.661   7.805
84537SOL    HW155450   4.639   9.614   7.724
84537SOL    HW255451   4.635   9.597   7.874
84538SOL     OW55452   2.535   1.477   5.768
84538SOL    HW155453   2.445   1.472   5.799
84538SOL    HW255454   2.586   1.435   5.837
84539SOL     OW55455  11.939   3.432   8.153
84539SOL    HW155456  11.851   3.469   8.153
84539SOL    HW255457  11.927   3.340   8.132
84540SOL     OW55458   2.206   8.924   2.169
84540SOL    HW155459   2.155   8.843   2.181
84540SOL    HW255460   2.203   8.967   2.255
84541SOL     OW55461   5.201   7.545   3.943
84541SOL    HW155462   5.111   7.548   3.910
84541SOL    HW255463   5.254   7.580   3.872
84542SOL     OW55464  10.009   1.406   0.474
84542SOL    HW155465  10.040   1.497   0.482
84542SOL    HW255466   9.950   1.395   0.548
84543SOL     OW55467  10.517   9.474   3.713
84543SOL    HW155468  10.568   9.410   3.665
84543SOL    HW255469  10.454   9.508   3.650
84544SOL     OW55470  12.591  12.853  12.869
84544SOL    HW155471  12.568  12.945  12.885
84544SOL    HW255472  12.539  12.804  12.933
84545SOL     OW55473  13.372   2.989   0.434
84545SOL    HW155474  13.301   3.046   0.464
84545SOL    HW255475  13.363   2.909   0.486
84546SOL     OW55476   6.403  14.092   5.945
84546SOL    HW155477   6.430  14.162   6.004
84546SOL    HW255478   6.460  14.102   5.869
84547SOL     OW55479   8.800   2.546   8.303
84547SOL    HW155480   8.853   2.538   8.223
84547SOL    HW255481   8.812   2.637   8.330
84548SOL     OW55482   6.846   0.399   4.323
84548SOL    HW155483   6.880   0.407   4.412
84548SOL    HW255484   6.754   0.374   4.334
84549SOL     OW55485   9.805   8.060  11.625
84549SOL    HW155486   9.799   8.109  11.543
84549SOL    HW255487   9.765   7.975  11.606
84550SOL     OW55488   2.801   7.357   8.864
84550SOL    HW155489   2.851   7.370   8.783
84550SOL    HW255490   2.772   7.445   8.888
84551SOL     OW55491  13.611   7.924   6.719
84551SOL    HW155492  13.639   7.902   6.631
84551SOL    HW255493  13.693   7.935   6.768
84552SOL     OW55494   5.426  13.648  13.944
84552SOL    HW155495   5.415  13.738  13.913
84552SOL    HW255496   5.443  13.597  13.864
84553SOL     OW55497   0.484   6.606   8.743
84553SOL    HW155498   0.534   6.524   8.743
84553SOL    HW255499   0.452   6.614   8.653
84554SOL     OW55500  12.544   3.175  13.219
84554SOL    HW155501  12.587   3.174  13.134
84554SOL    HW255502  12.453   3.199  13.200
84555SOL     OW55503   1.588   1.489  12.809
84555SOL    HW155504   1.680   1.484  12.836
84555SOL    HW255505   1.592   1.513  12.716
84556SOL     OW55506   1.554   1.232   4.912
84556SOL    HW155507   1.545   1.277   4.828
84556SOL    HW255508   1.503   1.286   4.974
84557SOL     OW55509  11.036   5.667  10.235
84557SOL    HW155510  11.126   5.646  10.208
84557SOL    HW255511  11.032   5.641  10.327
84558SOL     OW55512   9.722   3.166   5.486
84558SOL    HW155513   9.735   3.096   5.422
84558SOL    HW255514   9.809   3.183   5.522
84559SOL     OW55515   7.280   9.804   8.015
84559SOL    HW155516   7.323   9.735   7.965
84559SOL    HW255517   7.187   9.780   8.015
84560SOL     OW55518  11.637   4.576   8.063
84560SOL    HW155519  11.552   4.620   8.055
84560SOL    HW255520  11.639   4.516   7.988
84561SOL     OW55521  11.356  11.175   4.809
84561SOL    HW155522  11.299  11.101   4.833
84561SOL    HW255523  11.412  11.141   4.739
84562SOL     OW55524   2.488   4.357   7.055
84562SOL    HW155525   2.431   4.429   7.081
84562SOL    HW255526   2.568   4.370   7.107
84563SOL     OW55527   4.038   1.058   4.328
84563SOL    HW155528   4.094   1.003   4.383
84563SOL    HW255529   4.095   1.131   4.302
84564SOL     OW55530   0.541  14.636   6.863
84564SOL    HW155531   0.562  14.591   6.781
84564SOL    HW255532   0.462  14.687   6.842
84565SOL     OW55533  11.077  11.314  11.968
84565SOL    HW155534  11.132  11.392  11.968
84565SOL    HW255535  11.023  11.323  11.890
84566SOL     OW55536  12.618   6.914   5.081
84566SOL    HW155537  12.669   6.868   5.015
84566SOL    HW255538  12.683   6.963   5.132
84567SOL     OW55539   7.728  13.682   3.187
84567SOL    HW155540   7.707  13.671   3.280
84567SOL    HW255541   7.820  13.658   3.180
84568SOL     OW55542  12.443   5.533   0.882
84568SOL    HW155543  12.473   5.540   0.972
84568SOL    HW255544  12.522   5.535   0.829
84569SOL     OW55545  13.381   2.050  13.618
84569SOL    HW155546  13.334   1.978  13.661
84569SOL    HW255547  13.408   2.013  13.533
84570SOL     OW55548   3.921   9.471   9.377
84570SOL    HW155549   3.963   9.551   9.344
84570SOL    HW255550   3.876   9.498   9.456
84571SOL     OW55551   6.332  14.620   0.064
84571SOL    HW155552   6.247  14.577   0.069
84571SOL    HW255553   6.368  14.612   0.152
84572SOL     OW55554   0.846   7.827  14.016
84572SOL    HW155555   0.852   7.785  13.930
84572SOL    HW255556   0.892   7.911  14.005
84573SOL     OW55557   0.655  11.973   8.750
84573SOL    HW155558   0.733  12.029   8.748
84573SOL    HW255559   0.644  11.951   8.842
84574SOL     OW55560  12.360  10.529   2.105
84574SOL    HW155561  12.448  10.493   2.104
84574SOL    HW255562  12.305  10.458   2.137
84575SOL     OW55563   0.626   2.954   7.234
84575SOL    HW155564   0.666   2.937   7.149
84575SOL    HW255565   0.651   2.880   7.288
84576SOL     OW55566   8.907   3.093  12.079
84576SOL    HW155567   8.885   3.001  12.095
84576SOL    HW255568   8.972   3.114  12.145
84577SOL     OW55569   1.441   5.154  13.017
84577SOL    HW155570   1.409   5.091  13.083
84577SOL    HW255571   1.363   5.177  12.967
84578SOL     OW55572   1.155   5.613  10.711
84578SOL    HW155573   1.081   5.569  10.669
84578SOL    HW255574   1.231   5.560  10.687
84579SOL     OW55575   1.369   0.873   7.098
84579SOL    HW155576   1.357   0.968   7.091
84579SOL    HW255577   1.281   0.836   7.096
84580SOL     OW55578   7.142  11.452   4.688
84580SOL    HW155579   7.166  11.422   4.601
84580SOL    HW255580   7.056  11.492   4.677
84581SOL     OW55581  12.099   7.282   0.879
84581SOL    HW155582  12.009   7.299   0.853
84581SOL    HW255583  12.103   7.308   0.971
84582SOL     OW55584   0.596   2.681   2.980
84582SOL    HW155585   0.506   2.709   2.965
84582SOL    HW255586   0.649   2.759   2.960
84583SOL     OW55587   0.967   6.840   7.623
84583SOL    HW155588   0.880   6.880   7.621
84583SOL    HW255589   1.027   6.913   7.612
84584SOL     OW55590  13.389  14.372   2.540
84584SOL    HW155591  13.440  14.450   2.565
84584SOL    HW255592  13.448  14.323   2.483
84585SOL     OW55593  14.767   9.040  13.070
84585SOL    HW155594  14.843   9.013  13.019
84585SOL    HW255595  14.796   9.035  13.162
84586SOL     OW55596  10.838   5.650  12.788
84586SOL    HW155597  10.872   5.608  12.867
84586SOL    HW255598  10.839   5.744  12.808
84587SOL     OW55599  12.016   4.306  12.931
84587SOL    HW155600  12.087   4.323  12.992
84587SOL    HW255601  12.054   4.320  12.844
84588SOL     OW55602   8.922   9.574  13.379
84588SOL    HW155603   8.832   9.549  13.400
84588SOL    HW255604   8.958   9.606  13.462
84589SOL     OW55605   9.850   6.473   5.862
84589SOL    HW155606   9.780   6.420   5.900
84589SOL    HW255607   9.883   6.419   5.790
84590SOL     OW55608  12.246  11.233  10.527
84590SOL    HW155609  12.159  11.274  10.523
84590SOL    HW255610  12.228  11.139  10.519
84591SOL     OW55611   9.052   7.478   1.386
84591SOL    HW155612   9.074   7.397   1.340
84591SOL    HW255613   9.067   7.547   1.321
84592SOL     OW55614   7.162   4.288   5.696
84592SOL    HW155615   7.135   4.332   5.616
84592SOL    HW255616   7.134   4.346   5.767
84593SOL     OW55617  12.123   9.000   3.865
84593SOL    HW155618  12.056   9.051   3.821
84593SOL    HW255619  12.201   9.055   3.863
84594SOL     OW55620  13.497   8.932   9.124
84594SOL    HW155621  13.497   9.028   9.126
84594SOL    HW255622  13.422   8.909   9.069
84595SOL     OW55623   4.921   8.922   4.667
84595SOL    HW155624   4.829   8.932   4.645
84595SOL    HW255625   4.963   9.002   4.634
84596SOL     OW55626   5.552  11.502  14.592
84596SOL    HW155627   5.642  11.473  14.575
84596SOL    HW255628   5.538  11.484  14.685
84597SOL     OW55629  13.570  12.062   9.274
84597SOL    HW155630  13.526  12.017   9.346
84597SOL    HW255631  13.635  11.999   9.242
84598SOL     OW55632  11.559  12.048  14.518
84598SOL    HW155633  11.498  12.118  14.543
84598SOL    HW255634  11.502  11.980  14.481
84599SOL     OW55635   4.431  12.439  11.455
84599SOL    HW155636   4.413  12.389  11.534
84599SOL    HW255637   4.489  12.509  11.484
84600SOL     OW55638   0.466   4.197   6.930
84600SOL    HW155639   0.396   4.228   6.872
84600SOL    HW255640   0.546   4.210   6.879
84601SOL     OW55641   9.674   4.368   2.952
84601SOL    HW155642   9.641   4.394   3.037
84601SOL    HW255643   9.605   4.315   2.913
84602SOL     OW55644   6.009   5.159   8.545
84602SOL    HW155645   5.913   5.155   8.542
84602SOL    HW255646   6.037   5.115   8.465
84603SOL     OW55647   9.644   7.586  11.165
84603SOL    HW155648   9.700   7.584  11.243
84603SOL    HW255649   9.653   7.498  11.127
84604SOL     OW55650   8.101  10.929   7.619
84604SOL    HW155651   8.076  10.852   7.670
84604SOL    HW255652   8.187  10.908   7.583
84605SOL     OW55653   1.902   1.714  13.773
84605SOL    HW155654   1.812   1.713  13.803
84605SOL    HW255655   1.913   1.630  13.728
84606SOL     OW55656  12.812  13.099   5.238
84606SOL    HW155657  12.795  13.008   5.215
84606SOL    HW255658  12.789  13.148   5.159
84607SOL     OW55659   4.191   9.680   3.280
84607SOL    HW155660   4.276   9.723   3.267
84607SOL    HW255661   4.163   9.658   3.191
84608SOL     OW55662  11.641   2.246  13.226
84608SOL    HW155663  11.606   2.190  13.296
84608SOL    HW255664  11.658   2.186  13.153
84609SOL     OW55665   7.454  13.145   7.701
84609SOL    HW155666   7.454  13.078   7.769
84609SOL    HW255667   7.535  13.194   7.716
84610SOL     OW55668  11.232  10.176  10.254
84610SOL    HW155669  11.244  10.147  10.164
84610SOL    HW255670  11.259  10.268  10.253
84611SOL     OW55671  11.763   4.107   5.871
84611SOL    HW155672  11.821   4.183   5.875
84611SOL    HW255673  11.821   4.033   5.853
84612SOL     OW55674   7.843  13.833  12.948
84612SOL    HW155675   7.804  13.791  12.872
84612SOL    HW255676   7.930  13.862  12.919
84613SOL     OW55677   5.850  12.403   4.201
84613SOL    HW155678   5.779  12.448   4.155
84613SOL    HW255679   5.808  12.357   4.273
84614SOL     OW55680   0.031   2.017   8.152
84614SOL    HW155681   0.105   2.003   8.211
84614SOL    HW255682  14.865   2.096   8.186
84615SOL     OW55683   0.491  13.623   6.655
84615SOL    HW155684   0.508  13.587   6.568
84615SOL    HW255685   0.561  13.589   6.710
84616SOL     OW55686   2.516   3.856   2.345
84616SOL    HW155687   2.499   3.908   2.267
84616SOL    HW255688   2.594   3.805   2.323
84617SOL     OW55689   8.014   9.426   4.931
84617SOL    HW155690   7.989   9.515   4.906
84617SOL    HW255691   7.933   9.375   4.921
84618SOL     OW55692   1.129  10.188   0.265
84618SOL    HW155693   1.090  10.269   0.230
84618SOL    HW255694   1.085  10.176   0.350
84619SOL     OW55695   0.876  10.164   0.750
84619SOL    HW155696   0.865  10.201   0.837
84619SOL    HW255697   0.826  10.083   0.752
84620SOL     OW55698   7.675  13.994  12.401
84620SOL    HW155699   7.675  14.079  12.356
84620SOL    HW255700   7.590  13.989  12.444
84621SOL     OW55701   5.901   6.170   9.940
84621SOL    HW155702   5.901   6.174   9.844
84621SOL    HW255703   5.870   6.256   9.967
84622SOL     OW55704   7.245  11.165   2.384
84622SOL    HW155705   7.228  11.146   2.292
84622SOL    HW255706   7.276  11.083   2.421
84623SOL     OW55707   1.957  12.828   6.169
84623SOL    HW155708   1.983  12.736   6.170
84623SOL    HW255709   1.912  12.839   6.085
84624SOL     OW55710  13.490  14.194   8.896
84624SOL    HW155711  13.582  14.215   8.885
84624SOL    HW255712  13.456  14.263   8.954
84625SOL     OW55713   5.980  10.881  10.252
84625SOL    HW155714   5.908  10.888  10.190
84625SOL    HW255715   5.955  10.810  10.311
84626SOL     OW55716   8.110   5.111  14.761
84626SOL    HW155717   8.053   5.185  14.782
84626SOL    HW255718   8.078   5.039  14.816
84627SOL     OW55719  12.059   0.262   5.615
84627SOL    HW155720  11.983   0.319   5.617
84627SOL    HW255721  12.123   0.309   5.561
84628SOL     OW55722   4.837  14.584  14.846
84628SOL    HW155723   4.887  14.506  14.820
84628SOL    HW255724   4.888  14.622   0.042
84629SOL     OW55725   4.015   0.926   6.882
84629SOL    HW155726   3.988   0.952   6.794
84629SOL    HW255727   4.110   0.926   6.880
84630SOL     OW55728   6.874   8.285   1.010
84630SOL    HW155729   6.791   8.291   1.057
84630SOL    HW255730   6.896   8.192   1.010
84631SOL     OW55731   1.317   7.477   2.639
84631SOL    HW155732   1.235   7.513   2.674
84631SOL    HW255733   1.384   7.506   2.701
84632SOL     OW55734  12.383   9.068  10.431
84632SOL    HW155735  12.438   9.029  10.499
84632SOL    HW255736  12.310   9.107  10.478
84633SOL     OW55737  11.727  13.262   7.603
84633SOL    HW155738  11.637  13.261   7.571
84633SOL    HW255739  11.737  13.181   7.653
84634SOL     OW55740   0.697   9.834  14.717
84634SOL    HW155741   0.724   9.748  14.748
84634SOL    HW255742   0.677   9.821  14.624
84635SOL     OW55743   1.534  12.574   5.516
84635SOL    HW155744   1.569  12.661   5.536
84635SOL    HW255745   1.496  12.544   5.599
84636SOL     OW55746   0.799   7.264  11.861
84636SOL    HW155747   0.894   7.260  11.877
84636SOL    HW255748   0.790   7.244  11.768
84637SOL     OW55749   1.197   6.207   4.710
84637SOL    HW155750   1.279   6.158   4.714
84637SOL    HW255751   1.129   6.141   4.717
84638SOL     OW55752   4.805   0.755   5.683
84638SOL    HW155753   4.874   0.757   5.749
84638SOL    HW255754   4.851   0.752   5.599
84639SOL     OW55755  14.416  13.146   6.406
84639SOL    HW155756  14.422  13.064   6.356
84639SOL    HW255757  14.499  13.153   6.452
84640SOL     OW55758   9.464   5.020  11.227
84640SOL    HW155759   9.452   4.981  11.314
84640SOL    HW255760   9.557   5.044  11.225
84641SOL     OW55761   8.006  11.801   4.824
84641SOL    HW155762   8.098  11.825   4.817
84641SOL    HW255763   7.994  11.772   4.914
84642SOL     OW55764   4.314  12.796  13.232
84642SOL    HW155765   4.345  12.708  13.254
84642SOL    HW255766   4.342  12.808  13.141
84643SOL     OW55767   3.392   1.963   6.919
84643SOL    HW155768   3.369   1.877   6.883
84643SOL    HW255769   3.309   2.001   6.947
84644SOL     OW55770   6.871   8.668  12.024
84644SOL    HW155771   6.804   8.677  11.955
84644SOL    HW255772   6.913   8.754  12.027
84645SOL     OW55773  14.379   2.465   5.670
84645SOL    HW155774  14.436   2.399   5.711
84645SOL    HW255775  14.327   2.500   5.743
84646SOL     OW55776   9.801   2.030  11.092
84646SOL    HW155777   9.715   2.037  11.135
84646SOL    HW255778   9.780   2.020  10.999
84647SOL     OW55779   9.776  10.353  10.525
84647SOL    HW155780   9.737  10.392  10.603
84647SOL    HW255781   9.846  10.297  10.558
84648SOL     OW55782   5.459   9.717   5.697
84648SOL    HW155783   5.417   9.803   5.700
84648SOL    HW255784   5.533   9.730   5.637
84649SOL     OW55785  10.011   9.041   2.227
84649SOL    HW155786  10.047   9.112   2.280
84649SOL    HW255787   9.934   9.080   2.186
84650SOL     OW55788   0.348  12.171   5.110
84650SOL    HW155789   0.401  12.179   5.189
84650SOL    HW255790   0.351  12.258   5.071
84651SOL     OW55791   5.627  12.708   7.778
84651SOL    HW155792   5.682  12.642   7.737
84651SOL    HW255793   5.578  12.660   7.845
84652SOL     OW55794   4.441   5.843  11.986
84652SOL    HW155795   4.487   5.914  12.032
84652SOL    HW255796   4.359   5.883  11.957
84653SOL     OW55797   9.311   3.387   6.339
84653SOL    HW155798   9.248   3.447   6.301
84653SOL    HW255799   9.387   3.441   6.360
84654SOL     OW55800   8.477   6.810   5.522
84654SOL    HW155801   8.501   6.822   5.614
84654SOL    HW255802   8.420   6.884   5.502
84655SOL     OW55803  10.813  11.436  12.589
84655SOL    HW155804  10.864  11.377  12.534
84655SOL    HW255805  10.810  11.518  12.540
84656SOL     OW55806   5.563  10.577   9.699
84656SOL    HW155807   5.592  10.553   9.611
84656SOL    HW255808   5.557  10.672   9.697
84657SOL     OW55809   3.323   9.086   5.500
84657SOL    HW155810   3.330   9.023   5.572
84657SOL    HW255811   3.303   9.031   5.424
84658SOL     OW55812   0.389   3.386   2.777
84658SOL    HW155813   0.435   3.469   2.790
84658SOL    HW255814   0.376   3.353   2.866
84659SOL     OW55815   9.895  12.150   5.021
84659SOL    HW155816   9.949  12.228   5.039
84659SOL    HW255817   9.913  12.128   4.930
84660SOL     OW55818  13.026  11.160   2.795
84660SOL    HW155819  12.935  11.130   2.793
84660SOL    HW255820  13.042  11.179   2.888
84661SOL     OW55821   3.856   4.291   0.948
84661SOL    HW155822   3.941   4.333   0.957
84661SOL    HW255823   3.816   4.332   0.871
84662SOL     OW55824  14.266   4.932   4.776
84662SOL    HW155825  14.318   5.006   4.745
84662SOL    HW255826  14.322   4.856   4.763
84663SOL     OW55827   1.286  10.004  12.809
84663SOL    HW155828   1.206  10.038  12.849
84663SOL    HW255829   1.264   9.915  12.783
84664SOL     OW55830   5.111  12.709  14.016
84664SOL    HW155831   5.022  12.695  14.049
84664SOL    HW255832   5.103  12.788  13.962
84665SOL     OW55833  13.221  10.140   4.811
84665SOL    HW155834  13.161  10.071   4.784
84665SOL    HW255835  13.307  10.110   4.782
84666SOL     OW55836   0.444  12.701   0.587
84666SOL    HW155837   0.388  12.752   0.646
84666SOL    HW255838   0.383  12.658   0.528
84667SOL     OW55839   8.514   2.710   9.678
84667SOL    HW155840   8.601   2.679   9.654
84667SOL    HW255841   8.513   2.803   9.653
84668SOL     OW55842   0.904   4.547   6.698
84668SOL    HW155843   0.875   4.490   6.769
84668SOL    HW255844   0.867   4.508   6.619
84669SOL     OW55845   7.151   0.541   3.615
84669SOL    HW155846   7.075   0.487   3.632
84669SOL    HW255847   7.132   0.584   3.531
84670SOL     OW55848   4.088   3.249  10.737
84670SOL    HW155849   4.104   3.314  10.805
84670SOL    HW255850   3.993   3.245  10.730
84671SOL     OW55851  12.124   0.699   9.781
84671SOL    HW155852  12.183   0.657   9.843
84671SOL    HW255853  12.095   0.628   9.723
84672SOL     OW55854   5.196   4.707  11.839
84672SOL    HW155855   5.191   4.658  11.757
84672SOL    HW255856   5.194   4.641  11.907
84673SOL     OW55857   4.469   9.340  14.091
84673SOL    HW155858   4.495   9.425  14.125
84673SOL    HW255859   4.376   9.350  14.070
84674SOL     OW55860  11.238  12.711   8.920
84674SOL    HW155861  11.259  12.793   8.876
84674SOL    HW255862  11.303  12.704   8.990
84675SOL     OW55863  14.398   1.795   7.301
84675SOL    HW155864  14.472   1.741   7.272
84675SOL    HW255865  14.416   1.813   7.393
84676SOL     OW55866  14.260  12.410  10.500
84676SOL    HW155867  14.189  12.445  10.447
84676SOL    HW255868  14.340  12.435  10.453
84677SOL     OW55869   1.741   6.854   4.964
84677SOL    HW155870   1.792   6.854   5.045
84677SOL    HW255871   1.650   6.846   4.992
84678SOL     OW55872   4.648   6.258  14.266
84678SOL    HW155873   4.558   6.287  14.249
84678SOL    HW255874   4.650   6.168  14.235
84679SOL     OW55875   7.512   2.299   5.361
84679SOL    HW155876   7.500   2.392   5.377
84679SOL    HW255877   7.449   2.278   5.293
84680SOL     OW55878  13.356   6.626  14.302
84680SOL    HW155879  13.347   6.597  14.393
84680SOL    HW255880  13.371   6.721  14.308
84681SOL     OW55881   2.556  12.326  10.260
84681SOL    HW155882   2.616  12.378  10.314
84681SOL    HW255883   2.469  12.345  10.296
84682SOL     OW55884   7.336   0.969   5.351
84682SOL    HW155885   7.371   0.956   5.263
84682SOL    HW255886   7.414   0.984   5.406
84683SOL     OW55887  10.836   6.491  11.609
84683SOL    HW155888  10.835   6.463  11.518
84683SOL    HW255889  10.860   6.584  11.606
84684SOL     OW55890   3.010  10.707  14.134
84684SOL    HW155891   2.930  10.659  14.154
84684SOL    HW255892   3.011  10.712  14.038
84685SOL     OW55893   5.061  11.039   4.817
84685SOL    HW155894   5.047  11.012   4.726
84685SOL    HW255895   5.023  10.968   4.869
84686SOL     OW55896  10.236   0.801  11.640
84686SOL    HW155897  10.273   0.759  11.563
84686SOL    HW255898  10.225   0.893  11.614
84687SOL     OW55899   5.510   4.828  12.816
84687SOL    HW155900   5.466   4.878  12.885
84687SOL    HW255901   5.587   4.880  12.794
84688SOL     OW55902  12.983  13.999  10.497
84688SOL    HW155903  12.945  14.077  10.457
84688SOL    HW255904  13.078  14.015  10.495
84689SOL     OW55905   6.681   7.277   7.092
84689SOL    HW155906   6.739   7.308   7.162
84689SOL    HW255907   6.741   7.249   7.023
84690SOL     OW55908   4.687  14.621  11.009
84690SOL    HW155909   4.646  14.620  11.095
84690SOL    HW255910   4.781  14.609  11.028
84691SOL     OW55911   1.130   0.733  11.136
84691SOL    HW155912   1.095   0.698  11.218
84691SOL    HW255913   1.077   0.811  11.119
84692SOL     OW55914   3.626   5.146   4.555
84692SOL    HW155915   3.658   5.201   4.626
84692SOL    HW255916   3.654   5.057   4.579
84693SOL     OW55917   5.655   3.410   9.915
84693SOL    HW155918   5.567   3.380   9.891
84693SOL    HW255919   5.713   3.362   9.856
84694SOL     OW55920  10.622   4.339  11.842
84694SOL    HW155921  10.665   4.425  11.839
84694SOL    HW255922  10.602   4.319  11.751
84695SOL     OW55923   7.149   1.406   1.364
84695SOL    HW155924   7.100   1.438   1.440
84695SOL    HW255925   7.162   1.313   1.382
84696SOL     OW55926   7.333   3.427  12.889
84696SOL    HW155927   7.272   3.397  12.821
84696SOL    HW255928   7.418   3.431  12.844
84697SOL     OW55929   5.401  10.145   4.019
84697SOL    HW155930   5.347  10.211   3.975
84697SOL    HW255931   5.342  10.072   4.036
84698SOL     OW55932   9.548   6.392   5.798
84698SOL    HW155933   9.605   6.315   5.798
84698SOL    HW255934   9.473   6.367   5.745
84699SOL     OW55935   2.874   6.870   0.407
84699SOL    HW155936   2.830   6.874   0.322
84699SOL    HW255937   2.809   6.832   0.467
84700SOL     OW55938   6.846  10.976   2.550
84700SOL    HW155939   6.915  11.042   2.547
84700SOL    HW255940   6.839  10.952   2.642
84701SOL     OW55941  14.194   3.156   2.004
84701SOL    HW155942  14.123   3.151   1.939
84701SOL    HW255943  14.180   3.241   2.047
84702SOL     OW55944   1.246   9.902  11.124
84702SOL    HW155945   1.336   9.932  11.139
84702SOL    HW255946   1.238   9.899  11.029
84703SOL     OW55947   0.792  11.612   8.044
84703SOL    HW155948   0.734  11.665   8.098
84703SOL    HW255949   0.766  11.632   7.954
84704SOL     OW55950   8.844   8.676   4.082
84704SOL    HW155951   8.815   8.623   4.157
84704SOL    HW255952   8.773   8.669   4.019
84705SOL     OW55953   9.738   3.207  13.300
84705SOL    HW155954   9.795   3.271  13.343
84705SOL    HW255955   9.782   3.123  13.313
84706SOL     OW55956   7.832   1.430   0.809
84706SOL    HW155957   7.880   1.380   0.743
84706SOL    HW255958   7.861   1.520   0.797
84707SOL     OW55959   3.915   5.274   4.122
84707SOL    HW155960   3.861   5.263   4.200
84707SOL    HW255961   3.998   5.232   4.144
84708SOL     OW55962   5.800  13.131   3.185
84708SOL    HW155963   5.712  13.132   3.223
84708SOL    HW255964   5.805  13.049   3.138
84709SOL     OW55965  14.480   6.752  13.098
84709SOL    HW155966  14.486   6.656  13.090
84709SOL    HW255967  14.412   6.776  13.035
84710SOL     OW55968  12.579   4.479   4.842
84710SOL    HW155969  12.545   4.430   4.768
84710SOL    HW255970  12.501   4.509   4.889
84711SOL     OW55971   1.409   8.450  12.607
84711SOL    HW155972   1.452   8.528  12.642
84711SOL    HW255973   1.324   8.482  12.574
84712SOL     OW55974   3.382   5.550  14.328
84712SOL    HW155975   3.474   5.536  14.348
84712SOL    HW255976   3.349   5.603  14.400
84713SOL     OW55977   1.388   6.411   3.046
84713SOL    HW155978   1.378   6.467   3.123
84713SOL    HW255979   1.477   6.426   3.017
84714SOL     OW55980   2.553   8.705   0.924
84714SOL    HW155981   2.514   8.642   0.863
84714SOL    HW255982   2.524   8.791   0.892
84715SOL     OW55983   5.551   6.168   5.236
84715SOL    HW155984   5.596   6.087   5.259
84715SOL    HW255985   5.599   6.236   5.283
84716SOL     OW55986   1.081  14.380   8.871
84716SOL    HW155987   1.013  14.349   8.812
84716SOL    HW255988   1.131  14.302   8.894
84717SOL     OW55989  10.162   4.058  14.593
84717SOL    HW155990  10.135   4.138  14.638
84717SOL    HW255991  10.152   4.078  14.500
84718SOL     OW55992  14.142   1.125  10.688
84718SOL    HW155993  14.109   1.214  10.699
84718SOL    HW255994  14.103   1.095  10.606
84719SOL     OW55995  12.080  11.229  11.388
84719SOL    HW155996  12.070  11.167  11.315
84719SOL    HW255997  12.000  11.219  11.440
84720SOL     OW55998   8.843   8.751   1.387
84720SOL    HW155999   8.864   8.662   1.416
84720SOL    HW256000   8.916   8.775   1.330
84721SOL     OW56001   3.535  10.620   2.049
84721SOL    HW156002   3.620  10.656   2.073
84721SOL    HW256003   3.549  10.578   1.965
84722SOL     OW56004   1.802   8.932   2.073
84722SOL    HW156005   1.734   8.974   2.019
84722SOL    HW256006   1.870   8.998   2.083
84723SOL     OW56007  13.668   7.714  11.061
84723SOL    HW156008  13.585   7.753  11.088
84723SOL    HW256009  13.687   7.649  11.128
84724SOL     OW56010   0.657   4.348  10.628
84724SOL    HW156011   0.691   4.432  10.659
84724SOL    HW256012   0.589   4.372  10.565
84725SOL     OW56013   9.222  11.463   9.149
84725SOL    HW156014   9.148  11.448   9.090
84725SOL    HW256015   9.249  11.553   9.130
84726SOL     OW56016  13.524  10.908  14.379
84726SOL    HW156017  13.493  10.878  14.465
84726SOL    HW256018  13.535  11.003  14.390
84727SOL     OW56019   9.728   0.808  12.873
84727SOL    HW156020   9.678   0.797  12.791
84727SOL    HW256021   9.810   0.850  12.846
84728SOL     OW56022  10.198   9.257   9.169
84728SOL    HW156023  10.180   9.350   9.188
84728SOL    HW256024  10.152   9.241   9.086
84729SOL     OW56025   2.907   1.000   0.867
84729SOL    HW156026   2.851   1.073   0.840
84729SOL    HW256027   2.874   0.925   0.817
84730SOL     OW56028   2.607   3.149   3.089
84730SOL    HW156029   2.573   3.095   3.019
84730SOL    HW256030   2.542   3.143   3.159
84731SOL     OW56031  13.005   5.491  14.404
84731SOL    HW156032  12.932   5.474  14.344
84731SOL    HW256033  13.057   5.558  14.360
84732SOL     OW56034   6.293   6.113   8.207
84732SOL    HW156035   6.330   6.049   8.145
84732SOL    HW256036   6.248   6.059   8.272
84733SOL     OW56037  10.205  12.281   3.535
84733SOL    HW156038  10.255  12.362   3.544
84733SOL    HW256039  10.268  12.211   3.552
84734SOL     OW56040   5.325   8.314  12.197
84734SOL    HW156041   5.336   8.227  12.159
84734SOL    HW256042   5.231   8.322  12.213
84735SOL     OW56043  12.575   2.809   3.892
84735SOL    HW156044  12.554   2.839   3.803
84735SOL    HW256045  12.596   2.717   3.882
84736SOL     OW56046   3.218   1.468  13.308
84736SOL    HW156047   3.181   1.480  13.395
84736SOL    HW256048   3.310   1.446  13.324
84737SOL     OW56049  11.686  12.917  13.966
84737SOL    HW156050  11.768  12.941  13.922
84737SOL    HW256051  11.620  12.970  13.923
84738SOL     OW56052  14.202  10.044   1.433
84738SOL    HW156053  14.259   9.971   1.459
84738SOL    HW256054  14.214  10.050   1.338
84739SOL     OW56055  14.255   5.074   8.154
84739SOL    HW156056  14.313   5.061   8.079
84739SOL    HW256057  14.271   5.164   8.182
84740SOL     OW56058  13.941  12.673   9.990
84740SOL    HW156059  13.906  12.730  10.059
84740SOL    HW256060  13.879  12.681   9.918
84741SOL     OW56061   1.166  11.207   1.780
84741SOL    HW156062   1.221  11.159   1.718
84741SOL    HW256063   1.207  11.294   1.786
84742SOL     OW56064  12.555   4.484   0.962
84742SOL    HW156065  12.464   4.504   0.941
84742SOL    HW256066  12.599   4.479   0.877
84743SOL     OW56067  11.548  11.196   0.163
84743SOL    HW156068  11.546  11.120   0.106
84743SOL    HW256069  11.605  11.258   0.118
84744SOL     OW56070  10.026   0.641   5.666
84744SOL    HW156071  10.084   0.713   5.641
84744SOL    HW256072  10.009   0.595   5.584
84745SOL     OW56073   3.999  11.379   6.245
84745SOL    HW156074   3.998  11.386   6.150
84745SOL    HW256075   4.092  11.387   6.268
84746SOL     OW56076   9.285  11.700  11.927
84746SOL    HW156077   9.234  11.757  11.984
84746SOL    HW256078   9.372  11.696  11.968
84747SOL     OW56079   6.870  14.699  12.488
84747SOL    HW156080   6.964  14.716  12.498
84747SOL    HW256081   6.862  14.604  12.500
84748SOL     OW56082  13.325   1.638   1.266
84748SOL    HW156083  13.241   1.595   1.285
84748SOL    HW256084  13.364   1.653   1.352
84749SOL     OW56085   6.751  13.243  14.436
84749SOL    HW156086   6.744  13.225  14.530
84749SOL    HW256087   6.845  13.239  14.419
84750SOL     OW56088  12.143  13.846   4.699
84750SOL    HW156089  12.061  13.816   4.659
84750SOL    HW256090  12.135  13.941   4.703
84751SOL     OW56091  10.509  13.058   0.384
84751SOL    HW156092  10.491  12.978   0.334
84751SOL    HW256093  10.426  13.106   0.384
84752SOL     OW56094  10.198   0.882   9.959
84752SOL    HW156095  10.269   0.836  10.003
84752SOL    HW256096  10.126   0.881  10.021
84753SOL     OW56097  14.432  12.131   4.106
84753SOL    HW156098  14.424  12.217   4.066
84753SOL    HW256099  14.389  12.071   4.044
84754SOL     OW56100  10.274   5.296   0.664
84754SOL    HW156101  10.360   5.331   0.689
84754SOL    HW256102  10.290   5.251   0.581
84755SOL     OW56103   6.535  13.002   7.271
84755SOL    HW156104   6.533  13.056   7.192
84755SOL    HW256105   6.583  13.054   7.335
84756SOL     OW56106   9.801  14.759   9.105
84756SOL    HW156107   9.715  14.723   9.125
84756SOL    HW256108   9.855  14.682   9.086
84757SOL     OW56109   6.659  10.124  10.361
84757SOL    HW156110   6.733  10.069  10.337
84757SOL    HW256111   6.584  10.083  10.318
84758SOL     OW56112  14.600   4.910   1.359
84758SOL    HW156113  14.657   4.895   1.435
84758SOL    HW256114  14.633   4.991   1.321
84759SOL     OW56115   7.601   2.596   8.664
84759SOL    HW156116   7.540   2.560   8.728
84759SOL    HW256117   7.644   2.668   8.710
84760SOL     OW56118  10.518  11.620  11.185
84760SOL    HW156119  10.449  11.591  11.246
84760SOL    HW256120  10.479  11.694  11.139
84761SOL     OW56121   1.948   6.715   3.727
84761SOL    HW156122   1.956   6.695   3.634
84761SOL    HW256123   2.037   6.708   3.762
84762SOL     OW56124  12.716   5.422  10.660
84762SOL    HW156125  12.708   5.342  10.713
84762SOL    HW256126  12.632   5.427  10.614
84763SOL     OW56127   0.468  10.044  12.244
84763SOL    HW156128   0.542  10.002  12.287
84763SOL    HW256129   0.461   9.998  12.160
84764SOL     OW56130   3.363  11.387  13.435
84764SOL    HW156131   3.432  11.372  13.499
84764SOL    HW256132   3.297  11.437  13.482
84765SOL     OW56133   8.970  14.273  14.515
84765SOL    HW156134   9.007  14.297  14.430
84765SOL    HW256135   9.046  14.263  14.572
84766SOL     OW56136   2.020   2.426  13.758
84766SOL    HW156137   1.996   2.340  13.724
84766SOL    HW256138   2.074   2.407  13.835
84767SOL     OW56139   0.560   8.215   5.490
84767SOL    HW156140   0.566   8.160   5.412
84767SOL    HW256141   0.529   8.156   5.559
84768SOL     OW56142   3.288   5.032   0.530
84768SOL    HW156143   3.312   5.066   0.616
84768SOL    HW256144   3.358   4.972   0.507
84769SOL     OW56145  14.386   4.738   1.317
84769SOL    HW156146  14.454   4.792   1.358
84769SOL    HW256147  14.304   4.770   1.354
84770SOL     OW56148  10.009  11.083  12.313
84770SOL    HW156149  10.063  11.162  12.308
84770SOL    HW256150  10.036  11.031  12.237
84771SOL     OW56151  10.354   6.216  10.525
84771SOL    HW156152  10.301   6.148  10.567
84771SOL    HW256153  10.402   6.170  10.456
84772SOL     OW56154  13.046  10.391  11.861
84772SOL    HW156155  12.986  10.324  11.826
84772SOL    HW256156  13.121  10.341  11.894
84773SOL     OW56157  13.190   0.388   7.753
84773SOL    HW156158  13.112   0.419   7.799
84773SOL    HW256159  13.243   0.347   7.821
84774SOL     OW56160   2.108   3.004  10.605
84774SOL    HW156161   2.117   3.079  10.547
84774SOL    HW256162   2.124   3.039  10.693
84775SOL     OW56163   4.373   0.886   9.618
84775SOL    HW156164   4.304   0.903   9.553
84775SOL    HW256165   4.370   0.792   9.633
84776SOL     OW56166   8.017   3.997   6.507
84776SOL    HW156167   7.959   4.045   6.567
84776SOL    HW256168   7.958   3.952   6.447
84777SOL     OW56169   4.618  12.189   5.139
84777SOL    HW156170   4.671  12.254   5.093
84777SOL    HW256171   4.677  12.154   5.206
84778SOL     OW56172   5.467   0.744   7.053
84778SOL    HW156173   5.561   0.755   7.062
84778SOL    HW256174   5.455   0.653   7.028
84779SOL     OW56175  11.047   0.292   2.795
84779SOL    HW156176  11.120   0.336   2.751
84779SOL    HW256177  11.000   0.248   2.725
84780SOL     OW56178  11.725  10.986  11.160
84780SOL    HW156179  11.657  11.036  11.206
84780SOL    HW256180  11.767  10.935  11.229
84781SOL     OW56181   2.416   4.106   2.806
84781SOL    HW156182   2.342   4.156   2.770
84781SOL    HW256183   2.453   4.060   2.730
84782SOL     OW56184   3.178   3.627   1.836
84782SOL    HW156185   3.214   3.554   1.885
84782SOL    HW256186   3.255   3.673   1.801
84783SOL     OW56187   6.424  11.204   9.650
84783SOL    HW156188   6.379  11.269   9.705
84783SOL    HW256189   6.362  11.132   9.642
84784SOL     OW56190   7.820   6.252  10.795
84784SOL    HW156191   7.869   6.259  10.877
84784SOL    HW256192   7.798   6.159  10.788
84785SOL     OW56193   0.717   3.558   1.114
84785SOL    HW156194   0.809   3.535   1.122
84785SOL    HW256195   0.710   3.643   1.158
84786SOL     OW56196   5.656   8.476   6.245
84786SOL    HW156197   5.713   8.399   6.244
84786SOL    HW256198   5.658   8.508   6.155
84787SOL     OW56199  12.344   5.752   7.937
84787SOL    HW156200  12.336   5.697   8.015
84787SOL    HW256201  12.411   5.709   7.884
84788SOL     OW56202   0.928   5.153   4.029
84788SOL    HW156203   1.000   5.106   4.071
84788SOL    HW256204   0.964   5.181   3.945
84789SOL     OW56205   4.558  12.929   5.874
84789SOL    HW156206   4.617  12.996   5.839
84789SOL    HW256207   4.491  12.918   5.806
84790SOL     OW56208  14.615   2.051   8.458
84790SOL    HW156209  14.567   2.132   8.475
84790SOL    HW256210  14.640   2.019   8.544
84791SOL     OW56211  12.922   9.431   6.673
84791SOL    HW156212  12.990   9.441   6.607
84791SOL    HW256213  12.901   9.337   6.672
84792SOL     OW56214  11.175   3.762   7.627
84792SOL    HW156215  11.185   3.750   7.722
84792SOL    HW256216  11.088   3.727   7.608
84793SOL     OW56217   8.147  14.565   9.153
84793SOL    HW156218   8.123  14.649   9.191
84793SOL    HW256219   8.075  14.544   9.092
84794SOL     OW56220   5.205   5.575   3.853
84794SOL    HW156221   5.222   5.669   3.856
84794SOL    HW256222   5.111   5.568   3.836
84795SOL     OW56223   6.514  10.737  12.853
84795SOL    HW156224   6.482  10.787  12.778
84795SOL    HW256225   6.583  10.792  12.891
84796SOL     OW56226   6.887   0.470  12.384
84796SOL    HW156227   6.964   0.482  12.329
84796SOL    HW256228   6.818   0.521  12.341
84797SOL     OW56229  14.749  13.664   0.142
84797SOL    HW156230  14.709  13.585   0.105
84797SOL    HW256231  14.760  13.722   0.067
84798SOL     OW56232  11.690   9.521   1.012
84798SOL    HW156233  11.642   9.593   1.054
84798SOL    HW256234  11.626   9.480   0.955
84799SOL     OW56235  11.070  11.555  11.544
84799SOL    HW156236  11.086  11.611  11.619
84799SOL    HW256237  11.046  11.470  11.582
84800SOL     OW56238  10.649  10.649   9.220
84800SOL    HW156239  10.635  10.661   9.314
84800SOL    HW256240  10.706  10.572   9.214
84801SOL     OW56241  10.294   2.443   1.594
84801SOL    HW156242  10.224   2.417   1.534
84801SOL    HW256243  10.365   2.381   1.577
84802SOL     OW56244   4.817   3.015   2.858
84802SOL    HW156245   4.827   3.110   2.863
84802SOL    HW256246   4.848   2.992   2.771
84803SOL     OW56247   4.489  13.117  11.891
84803SOL    HW156248   4.414  13.085  11.940
84803SOL    HW256249   4.452  13.164  11.816
84804SOL     OW56250  10.246   5.665  13.353
84804SOL    HW156251  10.206   5.741  13.311
84804SOL    HW256252  10.237   5.683  13.447
84805SOL     OW56253   0.344   2.062   5.385
84805SOL    HW156254   0.313   2.152   5.396
84805SOL    HW256255   0.266   2.013   5.356
84806SOL     OW56256  13.569   0.102   1.156
84806SOL    HW156257  13.545   0.193   1.170
84806SOL    HW256258  13.645   0.106   1.097
84807SOL     OW56259   8.285  12.422   2.642
84807SOL    HW156260   8.327  12.377   2.568
84807SOL    HW256261   8.307  12.514   2.629
84808SOL     OW56262   4.915   5.524   9.981
84808SOL    HW156263   4.886   5.542  10.070
84808SOL    HW256264   4.970   5.599   9.957
84809SOL     OW56265   2.604   3.939   8.174
84809SOL    HW156266   2.632   3.874   8.238
84809SOL    HW256267   2.684   3.963   8.128
84810SOL     OW56268   8.668  10.182  14.093
84810SOL    HW156269   8.741  10.217  14.043
84810SOL    HW256270   8.597  10.173  14.029
84811SOL     OW56271   0.867   0.724   4.004
84811SOL    HW156272   0.811   0.761   4.071
84811SOL    HW256273   0.893   0.798   3.950
84812SOL     OW56274   7.229   9.279  11.853
84812SOL    HW156275   7.201   9.264  11.944
84812SOL    HW256276   7.147   9.285  11.804
84813SOL     OW56277   2.001  11.324   7.923
84813SOL    HW156278   2.045  11.353   7.843
84813SOL    HW256279   1.952  11.401   7.952
84814SOL     OW56280  13.795   1.243   1.975
84814SOL    HW156281  13.823   1.272   1.888
84814SOL    HW256282  13.808   1.319   2.031
84815SOL     OW56283   0.486  10.518   3.947
84815SOL    HW156284   0.432  10.536   4.024
84815SOL    HW256285   0.548  10.452   3.976
84816SOL     OW56286  14.184   5.880   8.191
84816SOL    HW156287  14.258   5.820   8.178
84816SOL    HW256288  14.192   5.942   8.118
84817SOL     OW56289  12.564   8.719   1.765
84817SOL    HW156290  12.572   8.795   1.822
84817SOL    HW256291  12.482   8.732   1.718
84818SOL     OW56292  13.302  13.710   7.195
84818SOL    HW156293  13.220  13.739   7.235
84818SOL    HW256294  13.335  13.788   7.150
84819SOL     OW56295   8.820  10.023  14.705
84819SOL    HW156296   8.763   9.965  14.655
84819SOL    HW256297   8.841  10.095  14.645
84820SOL     OW56298   5.322  13.998   5.140
84820SOL    HW156299   5.248  14.057   5.123
84820SOL    HW256300   5.361  13.983   5.053
84821SOL     OW56301   7.909   3.458   7.807
84821SOL    HW156302   7.846   3.418   7.747
84821SOL    HW256303   7.990   3.462   7.757
84822SOL     OW56304   8.199  11.248   8.213
84822SOL    HW156305   8.203  11.192   8.135
84822SOL    HW256306   8.227  11.334   8.181
84823SOL     OW56307   6.944  13.756   8.767
84823SOL    HW156308   6.936  13.760   8.672
84823SOL    HW256309   6.867  13.706   8.796
84824SOL     OW56310  10.886   1.503   9.793
84824SOL    HW156311  10.863   1.418   9.757
84824SOL    HW256312  10.930   1.548   9.721
84825SOL     OW56313   5.662  14.260   0.306
84825SOL    HW156314   5.584  14.207   0.319
84825SOL    HW256315   5.671  14.309   0.388
84826SOL     OW56316   1.244   8.628   5.950
84826SOL    HW156317   1.173   8.692   5.943
84826SOL    HW256318   1.217   8.556   5.894
84827SOL     OW56319  13.345  14.562   8.342
84827SOL    HW156320  13.347  14.470   8.316
84827SOL    HW256321  13.254  14.588   8.331
84828SOL     OW56322   1.726   4.013   0.844
84828SOL    HW156323   1.765   3.946   0.786
84828SOL    HW256324   1.673   4.067   0.786
84829SOL     OW56325   4.671  12.789  14.738
84829SOL    HW156326   4.714  12.716  14.783
84829SOL    HW256327   4.716  12.867  14.770
84830SOL     OW56328   8.649   4.540  10.968
84830SOL    HW156329   8.631   4.634  10.961
84830SOL    HW256330   8.648   4.523  11.062
84831SOL     OW56331  12.126   1.218   2.681
84831SOL    HW156332  12.041   1.210   2.637
84831SOL    HW256333  12.111   1.285   2.748
84832SOL     OW56334   2.265  12.093  10.575
84832SOL    HW156335   2.274  11.998  10.568
84832SOL    HW256336   2.349  12.123  10.610
84833SOL     OW56337   4.660   9.898   1.900
84833SOL    HW156338   4.696   9.811   1.882
84833SOL    HW256339   4.625   9.927   1.816
84834SOL     OW56340   6.948  10.896  12.495
84834SOL    HW156341   6.894  10.817  12.491
84834SOL    HW256342   7.012  10.885  12.424
84835SOL     OW56343   6.473  11.217   6.049
84835SOL    HW156344   6.545  11.241   5.991
84835SOL    HW256345   6.509  11.228   6.137
84836SOL     OW56346  12.511   3.568  12.519
84836SOL    HW156347  12.452   3.598  12.451
84836SOL    HW256348  12.454   3.530  12.586
84837SOL     OW56349   5.169   8.494  14.818
84837SOL    HW156350   5.169   8.413  14.869
84837SOL    HW256351   5.185   8.467  14.728
84838SOL     OW56352   9.798  11.379   5.989
84838SOL    HW156353   9.785  11.284   5.986
84838SOL    HW256354   9.736  11.413   5.925
84839SOL     OW56355   6.387   5.882  12.293
84839SOL    HW156356   6.481   5.898  12.279
84839SOL    HW256357   6.348   5.891  12.207
84840SOL     OW56358  11.005  11.357  12.328
84840SOL    HW156359  11.064  11.326  12.259
84840SOL    HW256360  10.990  11.449  12.307
84841SOL     OW56361  11.929   5.548   7.037
84841SOL    HW156362  11.960   5.631   7.001
84841SOL    HW256363  12.000   5.518   7.093
84842SOL     OW56364   6.556  13.993  10.734
84842SOL    HW156365   6.599  13.930  10.791
84842SOL    HW256366   6.531  13.942  10.657
84843SOL     OW56367  10.203   7.039   2.180
84843SOL    HW156368  10.232   6.961   2.133
84843SOL    HW256369  10.114   7.054   2.148
84844SOL     OW56370   8.758   3.214   5.556
84844SOL    HW156371   8.769   3.187   5.465
84844SOL    HW256372   8.842   3.250   5.581
84845SOL     OW56373   0.752  12.223  14.361
84845SOL    HW156374   0.678  12.280  14.338
84845SOL    HW256375   0.769  12.242  14.453
84846SOL     OW56376  12.703  12.119  12.232
84846SOL    HW156377  12.716  12.073  12.315
84846SOL    HW256378  12.609  12.113  12.215
84847SOL     OW56379   7.682  11.228   7.054
84847SOL    HW156380   7.743  11.298   7.079
84847SOL    HW256381   7.620  11.224   7.126
84848SOL     OW56382   7.097  10.934   7.958
84848SOL    HW156383   7.105  10.941   8.053
84848SOL    HW256384   7.187  10.932   7.926
84849SOL     OW56385  11.589   3.003   1.094
84849SOL    HW156386  11.495   2.986   1.102
84849SOL    HW256387  11.609   3.061   1.167
84850SOL     OW56388   6.598  10.490   2.736
84850SOL    HW156389   6.660  10.556   2.705
84850SOL    HW256390   6.522  10.500   2.679
84851SOL     OW56391  10.318   4.723   5.709
84851SOL    HW156392  10.320   4.818   5.697
84851SOL    HW256393  10.324   4.711   5.804
84852SOL     OW56394  14.056  11.570   2.921
84852SOL    HW156395  14.084  11.526   3.001
84852SOL    HW256396  14.070  11.506   2.852
84853SOL     OW56397   1.389   7.645   7.442
84853SOL    HW156398   1.427   7.567   7.483
84853SOL    HW256399   1.464   7.702   7.426
84854SOL     OW56400   1.672   8.692   0.625
84854SOL    HW156401   1.642   8.762   0.683
84854SOL    HW256402   1.768   8.694   0.632
84855SOL     OW56403  12.119  13.556   3.330
84855SOL    HW156404  12.147  13.646   3.345
84855SOL    HW256405  12.197  13.503   3.349
84856SOL     OW56406   8.071  13.953   2.178
84856SOL    HW156407   8.049  13.923   2.090
84856SOL    HW256408   8.042  14.044   2.181
84857SOL     OW56409   4.191   5.893   3.428
84857SOL    HW156410   4.245   5.926   3.499
84857SOL    HW256411   4.248   5.834   3.379
84858SOL     OW56412  11.508   2.317  11.760
84858SOL    HW156413  11.527   2.358  11.844
84858SOL    HW256414  11.593   2.289  11.727
84859SOL     OW56415   9.767  13.526   2.058
84859SOL    HW156416   9.817  13.444   2.048
84859SOL    HW256417   9.722  13.517   2.141
84860SOL     OW56418  10.350  12.163   4.705
84860SOL    HW156419  10.340  12.070   4.683
84860SOL    HW256420  10.272  12.205   4.669
84861SOL     OW56421   1.406   0.630  13.383
84861SOL    HW156422   1.461   0.553  13.391
84861SOL    HW256423   1.329   0.600  13.335
84862SOL     OW56424  10.899  13.395   3.601
84862SOL    HW156425  10.896  13.328   3.670
84862SOL    HW256426  10.812  13.435   3.603
84863SOL     OW56427  10.146   0.764   0.014
84863SOL    HW156428  10.149   0.677   0.055
84863SOL    HW256429  10.208   0.758  14.817
84864SOL     OW56430  12.545  10.854  12.998
84864SOL    HW156431  12.636  10.884  12.994
84864SOL    HW256432  12.551  10.759  12.986
84865SOL     OW56433  10.319  10.566   5.098
84865SOL    HW156434  10.261  10.490   5.092
84865SOL    HW256435  10.282  10.620   5.168
84866SOL     OW56436   3.601   6.102   7.781
84866SOL    HW156437   3.660   6.087   7.855
84866SOL    HW256438   3.626   6.188   7.748
84867SOL     OW56439   2.268   5.117   5.647
84867SOL    HW156440   2.177   5.103   5.622
84867SOL    HW256441   2.270   5.100   5.741
84868SOL     OW56442  13.325  14.320  14.465
84868SOL    HW156443  13.279  14.259  14.407
84868SOL    HW256444  13.262  14.391  14.480
84869SOL     OW56445   5.518   0.546   9.751
84869SOL    HW156446   5.599   0.575   9.793
84869SOL    HW256447   5.541   0.464   9.708
84870SOL     OW56448   2.671   5.736   4.338
84870SOL    HW156449   2.616   5.670   4.379
84870SOL    HW256450   2.743   5.750   4.400
84871SOL     OW56451   5.535  11.401   1.030
84871SOL    HW156452   5.492  11.316   1.022
84871SOL    HW256453   5.614  11.384   1.081
84872SOL     OW56454   3.950  12.835  14.341
84872SOL    HW156455   3.926  12.850  14.250
84872SOL    HW256456   4.039  12.870  14.349
84873SOL     OW56457   9.498  13.046  13.514
84873SOL    HW156458   9.410  13.032  13.547
84873SOL    HW256459   9.537  13.109  13.575
84874SOL     OW56460  12.907  13.895  11.968
84874SOL    HW156461  12.994  13.921  11.999
84874SOL    HW256462  12.847  13.948  12.021
84875SOL     OW56463   3.372  13.866  12.074
84875SOL    HW156464   3.314  13.901  12.006
84875SOL    HW256465   3.452  13.917  12.066
84876SOL     OW56466   8.644  11.335   9.782
84876SOL    HW156467   8.639  11.399   9.853
84876SOL    HW256468   8.660  11.388   9.704
84877SOL     OW56469   2.515  12.048   8.883
84877SOL    HW156470   2.525  12.063   8.977
84877SOL    HW256471   2.530  11.954   8.872
84878SOL     OW56472   6.274   5.499   9.674
84878SOL    HW156473   6.192   5.520   9.630
84878SOL    HW256474   6.337   5.561   9.638
84879SOL     OW56475  10.782   8.508  12.820
84879SOL    HW156476  10.762   8.418  12.842
84879SOL    HW256477  10.710   8.559  12.856
84880SOL     OW56478   2.324  13.377   9.335
84880SOL    HW156479   2.279  13.322   9.270
84880SOL    HW256480   2.255  13.410   9.391
84881SOL     OW56481   7.061   1.495   1.957
84881SOL    HW156482   6.992   1.537   2.008
84881SOL    HW256483   7.061   1.542   1.873
84882SOL     OW56484  11.385   5.029  11.307
84882SOL    HW156485  11.400   5.103  11.366
84882SOL    HW256486  11.474   5.000  11.283
84883SOL     OW56487   2.626  11.552   2.560
84883SOL    HW156488   2.570  11.504   2.621
84883SOL    HW256489   2.655  11.629   2.609
84884SOL     OW56490  13.138   0.895   7.604
84884SOL    HW156491  13.222   0.850   7.602
84884SOL    HW256492  13.159   0.988   7.608
84885SOL     OW56493   4.644   9.102  11.635
84885SOL    HW156494   4.564   9.056  11.661
84885SOL    HW256495   4.640   9.104  11.539
84886SOL     OW56496  14.292   3.506  13.912
84886SOL    HW156497  14.376   3.498  13.866
84886SOL    HW256498  14.298   3.443  13.984
84887SOL     OW56499  10.256  14.735  10.450
84887SOL    HW156500  10.215  14.659  10.492
84887SOL    HW256501  10.222  14.735  10.360
84888SOL     OW56502   1.128   8.761   5.062
84888SOL    HW156503   1.143   8.723   4.976
84888SOL    HW256504   1.081   8.843   5.045
84889SOL     OW56505   1.989   2.828   5.287
84889SOL    HW156506   1.969   2.861   5.375
84889SOL    HW256507   1.921   2.764   5.269
84890SOL     OW56508   9.172   9.733  11.928
84890SOL    HW156509   9.265   9.752  11.934
84890SOL    HW256510   9.164   9.643  11.959
84891SOL     OW56511   8.674   7.264  11.771
84891SOL    HW156512   8.641   7.267  11.681
84891SOL    HW256513   8.767   7.285  11.763
84892SOL     OW56514   0.836   2.806   6.016
84892SOL    HW156515   0.808   2.721   6.050
84892SOL    HW256516   0.871   2.852   6.092
84893SOL     OW56517  13.650   6.328   3.389
84893SOL    HW156518  13.670   6.292   3.476
84893SOL    HW256519  13.555   6.320   3.380
84894SOL     OW56520   8.350   3.970   3.053
84894SOL    HW156521   8.279   4.028   3.082
84894SOL    HW256522   8.305   3.890   3.024
84895SOL     OW56523   7.055   1.880  11.652
84895SOL    HW156524   6.999   1.804  11.635
84895SOL    HW256525   7.140   1.855  11.616
84896SOL     OW56526   8.712  14.757   2.958
84896SOL    HW156527   8.742  14.846   2.978
84896SOL    HW256528   8.626  14.751   3.000
84897SOL     OW56529  11.280  11.097   6.368
84897SOL    HW156530  11.264  11.026   6.430
84897SOL    HW256531  11.198  11.147   6.366
84898SOL     OW56532   8.535  13.578   5.112
84898SOL    HW156533   8.585  13.500   5.137
84898SOL    HW256534   8.530  13.630   5.193
84899SOL     OW56535   8.154  10.227  11.626
84899SOL    HW156536   8.147  10.275  11.709
84899SOL    HW256537   8.064  10.221  11.594
84900SOL     OW56538  11.670  14.365   4.407
84900SOL    HW156539  11.749  14.415   4.426
84900SOL    HW256540  11.682  14.334   4.318
84901SOL     OW56541   7.627   3.018   4.739
84901SOL    HW156542   7.670   3.018   4.825
84901SOL    HW256543   7.656   3.100   4.698
84902SOL     OW56544  14.858   6.426   6.190
84902SOL    HW156545  14.842   6.509   6.145
84902SOL    HW256546  14.800   6.428   6.266
84903SOL     OW56547   1.257  11.467   4.247
84903SOL    HW156548   1.212  11.548   4.271
84903SOL    HW256549   1.350  11.487   4.262
84904SOL     OW56550   9.612  14.741   6.143
84904SOL    HW156551   9.527  14.780   6.165
84904SOL    HW256552   9.623  14.759   6.050
84905SOL     OW56553   3.372   8.657   8.070
84905SOL    HW156554   3.311   8.661   8.144
84905SOL    HW256555   3.453   8.694   8.104
84906SOL     OW56556   8.992   4.928   9.729
84906SOL    HW156557   8.929   4.897   9.665
84906SOL    HW256558   8.950   4.913   9.814
84907SOL     OW56559   4.983   9.734   6.003
84907SOL    HW156560   5.032   9.684   5.938
84907SOL    HW256561   4.946   9.669   6.061
84908SOL     OW56562   3.567   6.443   1.654
84908SOL    HW156563   3.611   6.423   1.571
84908SOL    HW256564   3.616   6.516   1.691
84909SOL     OW56565   7.689   1.424   9.372
84909SOL    HW156566   7.718   1.392   9.286
84909SOL    HW256567   7.603   1.385   9.384
84910SOL     OW56568   5.045  10.271   7.957
84910SOL    HW156569   4.987  10.229   7.893
84910SOL    HW256570   5.076  10.198   8.011
84911SOL     OW56571   4.739  12.410   3.267
84911SOL    HW156572   4.812  12.453   3.313
84911SOL    HW256573   4.698  12.355   3.334
84912SOL     OW56574   2.321  14.261  12.513
84912SOL    HW156575   2.409  14.222  12.511
84912SOL    HW256576   2.327  14.330  12.579
84913SOL     OW56577  11.654   7.594   6.742
84913SOL    HW156578  11.676   7.683   6.713
84913SOL    HW256579  11.558   7.592   6.739
84914SOL     OW56580   9.222   7.377  10.248
84914SOL    HW156581   9.188   7.463  10.220
84914SOL    HW256582   9.231   7.384  10.343
84915SOL     OW56583   9.021   4.257   9.838
84915SOL    HW156584   9.034   4.221   9.926
84915SOL    HW256585   9.037   4.351   9.848
84916SOL     OW56586   9.071   2.920   6.376
84916SOL    HW156587   9.136   2.878   6.320
84916SOL    HW256588   9.050   3.001   6.330
84917SOL     OW56589  11.763   9.593   2.599
84917SOL    HW156590  11.686   9.537   2.586
84917SOL    HW256591  11.728   9.672   2.640
84918SOL     OW56592   6.646  14.237  11.307
84918SOL    HW156593   6.705  14.179  11.260
84918SOL    HW256594   6.595  14.178  11.364
84919SOL     OW56595   9.235  13.512   7.457
84919SOL    HW156596   9.299  13.565   7.410
84919SOL    HW256597   9.180  13.475   7.388
84920SOL     OW56598   8.601   1.192   0.015
84920SOL    HW156599   8.590   1.252   0.089
84920SOL    HW256600   8.518   1.145   0.010
84921SOL     OW56601   8.947   9.797  13.198
84921SOL    HW156602   9.032   9.753  13.203
84921SOL    HW256603   8.892   9.749  13.260
84922SOL     OW56604   4.763   3.458   4.839
84922SOL    HW156605   4.771   3.363   4.834
84922SOL    HW256606   4.752   3.486   4.748
84923SOL     OW56607  14.666   2.918   1.900
84923SOL    HW156608  14.571   2.919   1.891
84923SOL    HW256609  14.699   2.934   1.812
84924SOL     OW56610  14.552   8.487   5.315
84924SOL    HW156611  14.534   8.425   5.386
84924SOL    HW256612  14.517   8.570   5.347
84925SOL     OW56613  13.199   8.274  12.825
84925SOL    HW156614  13.199   8.316  12.911
84925SOL    HW256615  13.166   8.341  12.765
84926SOL     OW56616  13.732   8.982   0.735
84926SOL    HW156617  13.761   9.046   0.669
84926SOL    HW256618  13.671   9.031   0.790
84927SOL     OW56619   0.756   3.174   9.494
84927SOL    HW156620   0.715   3.255   9.526
84927SOL    HW256621   0.849   3.187   9.509
84928SOL     OW56622   4.431   8.330   0.433
84928SOL    HW156623   4.384   8.408   0.402
84928SOL    HW256624   4.438   8.342   0.528
84929SOL     OW56625  10.993   0.721  14.648
84929SOL    HW156626  10.909   0.697  14.610
84929SOL    HW256627  10.980   0.810  14.680
84930SOL     OW56628  10.049  12.641   5.782
84930SOL    HW156629  10.133  12.634   5.827
84930SOL    HW256630   9.987  12.666   5.850
84931SOL     OW56631  13.142  12.751  10.998
84931SOL    HW156632  13.059  12.720  10.963
84931SOL    HW256633  13.120  12.834  11.040
84932SOL     OW56634   3.736  12.712   3.430
84932SOL    HW156635   3.678  12.661   3.487
84932SOL    HW256636   3.741  12.661   3.349
84933SOL     OW56637   1.832  10.773   4.295
84933SOL    HW156638   1.922  10.801   4.311
84933SOL    HW256639   1.840  10.702   4.231
84934SOL     OW56640   6.541   4.787   9.590
84934SOL    HW156641   6.469   4.850   9.587
84934SOL    HW256642   6.572   4.783   9.500
84935SOL     OW56643  13.068   9.195  13.841
84935SOL    HW156644  12.975   9.205  13.823
84935SOL    HW256645  13.112   9.243  13.771
84936SOL     OW56646   6.859   5.359  10.206
84936SOL    HW156647   6.939   5.314  10.234
84936SOL    HW256648   6.872   5.375  10.113
84937SOL     OW56649  11.154  13.887   1.518
84937SOL    HW156650  11.142  13.899   1.612
84937SOL    HW256651  11.243  13.851   1.509
84938SOL     OW56652  14.667   8.911   8.231
84938SOL    HW156653  14.608   8.885   8.303
84938SOL    HW256654  14.630   8.993   8.199
84939SOL     OW56655   0.563   5.278   0.312
84939SOL    HW156656   0.522   5.243   0.233
84939SOL    HW256657   0.500   5.260   0.381
84940SOL     OW56658   4.150   4.900  12.198
84940SOL    HW156659   4.126   4.841  12.126
84940SOL    HW256660   4.104   4.865  12.274
84941SOL     OW56661   0.853  13.198   4.150
84941SOL    HW156662   0.797  13.276   4.139
84941SOL    HW256663   0.853  13.156   4.065
84942SOL     OW56664  13.677   7.911  14.248
84942SOL    HW156665  13.720   7.997  14.242
84942SOL    HW256666  13.741   7.850  14.212
84943SOL     OW56667   9.838   5.760   0.078
84943SOL    HW156668   9.861   5.678   0.121
84943SOL    HW256669   9.761   5.791   0.126
84944SOL     OW56670   8.684  12.646  13.995
84944SOL    HW156671   8.664  12.676  13.906
84944SOL    HW256672   8.775  12.671  14.009
84945SOL     OW56673   4.096   7.818   1.264
84945SOL    HW156674   4.008   7.784   1.279
84945SOL    HW256675   4.092   7.856   1.176
84946SOL     OW56676  13.628   5.752   5.202
84946SOL    HW156677  13.677   5.815   5.150
84946SOL    HW256678  13.693   5.689   5.233
84947SOL     OW56679   2.917   9.074   8.726
84947SOL    HW156680   2.953   9.144   8.781
84947SOL    HW256681   2.962   8.995   8.756
84948SOL     OW56682   1.223   8.394   1.196
84948SOL    HW156683   1.234   8.400   1.291
84948SOL    HW256684   1.233   8.485   1.165
84949SOL     OW56685   9.680   2.669   2.799
84949SOL    HW156686   9.734   2.744   2.827
84949SOL    HW256687   9.732   2.592   2.823
84950SOL     OW56688  11.340   3.963   7.575
84950SOL    HW156689  11.286   4.030   7.615
84950SOL    HW256690  11.283   3.886   7.569
84951SOL     OW56691   9.695   6.400   0.791
84951SOL    HW156692   9.716   6.344   0.866
84951SOL    HW256693   9.759   6.471   0.796
84952SOL     OW56694  12.193   3.825  11.011
84952SOL    HW156695  12.152   3.897  10.963
84952SOL    HW256696  12.126   3.757  11.015
84953SOL     OW56697   8.342   5.883   8.724
84953SOL    HW156698   8.431   5.857   8.701
84953SOL    HW256699   8.343   5.888   8.820
84954SOL     OW56700  12.099   2.151   1.974
84954SOL    HW156701  12.036   2.105   2.029
84954SOL    HW256702  12.157   2.082   1.942
84955SOL     OW56703   9.727  11.829   5.028
84955SOL    HW156704   9.738  11.815   4.934
84955SOL    HW256705   9.651  11.776   5.051
84956SOL     OW56706   0.770  14.164  10.774
84956SOL    HW156707   0.757  14.193  10.683
84956SOL    HW256708   0.750  14.071  10.772
84957SOL     OW56709  11.381   8.692   0.434
84957SOL    HW156710  11.360   8.602   0.461
84957SOL    HW256711  11.457   8.715   0.487
84958SOL     OW56712   0.440  10.285   7.183
84958SOL    HW156713   0.503  10.355   7.197
84958SOL    HW256714   0.459  10.220   7.251
84959SOL     OW56715  14.057   3.522   7.418
84959SOL    HW156716  14.026   3.608   7.390
84959SOL    HW256717  13.984   3.486   7.468
84960SOL     OW56718   6.938   0.519   1.970
84960SOL    HW156719   6.942   0.431   1.932
84960SOL    HW256720   6.896   0.507   2.055
84961SOL     OW56721   0.128   2.378  13.089
84961SOL    HW156722   0.144   2.320  13.164
84961SOL    HW256723   0.209   2.374  13.038
84962SOL     OW56724   9.488  11.184  11.373
84962SOL    HW156725   9.412  11.230  11.336
84962SOL    HW256726   9.543  11.254  11.409
84963SOL     OW56727   1.838   6.607   0.876
84963SOL    HW156728   1.869   6.686   0.830
84963SOL    HW256729   1.804   6.551   0.807
84964SOL     OW56730   2.128  12.159   7.160
84964SOL    HW156731   2.033  12.149   7.166
84964SOL    HW256732   2.161  12.070   7.147
84965SOL     OW56733  11.313   7.036   6.544
84965SOL    HW156734  11.352   7.121   6.563
84965SOL    HW256735  11.220   7.053   6.535
84966SOL     OW56736   9.728   5.266  12.057
84966SOL    HW156737   9.812   5.259  12.103
84966SOL    HW256738   9.725   5.188  12.002
84967SOL     OW56739  14.550   8.942   3.504
84967SOL    HW156740  14.519   8.874   3.565
84967SOL    HW256741  14.563   9.019   3.559
84968SOL     OW56742   8.910   4.333  13.484
84968SOL    HW156743   8.933   4.244  13.458
84968SOL    HW256744   8.856   4.323  13.562
84969SOL     OW56745   1.783  10.255  13.220
84969SOL    HW156746   1.689  10.235  13.228
84969SOL    HW256747   1.819  10.182  13.170
84970SOL     OW56748   3.067   4.603   7.255
84970SOL    HW156749   3.072   4.630   7.347
84970SOL    HW256750   3.090   4.682   7.206
84971SOL     OW56751  13.888  12.271   4.878
84971SOL    HW156752  13.950  12.201   4.897
84971SOL    HW256753  13.820  12.230   4.826
84972SOL     OW56754   8.567   8.341   3.974
84972SOL    HW156755   8.495   8.303   3.924
84972SOL    HW256756   8.572   8.432   3.945
84973SOL     OW56757   5.825   1.498  10.665
84973SOL    HW156758   5.824   1.495  10.569
84973SOL    HW256759   5.905   1.548  10.686
84974SOL     OW56760  14.086  14.189  14.253
84974SOL    HW156761  14.051  14.183  14.342
84974SOL    HW256762  14.089  14.283  14.234
84975SOL     OW56763  11.871  10.779  12.969
84975SOL    HW156764  11.876  10.743  12.881
84975SOL    HW256765  11.815  10.717  13.017
84976SOL     OW56766  10.275   5.916   2.223
84976SOL    HW156767  10.286   5.919   2.318
84976SOL    HW256768  10.237   6.001   2.200
84977SOL     OW56769   8.853   1.966   9.598
84977SOL    HW156770   8.920   1.899   9.610
84977SOL    HW256771   8.851   2.013   9.681
84978SOL     OW56772  12.105  11.536   6.511
84978SOL    HW156773  12.044  11.531   6.437
84978SOL    HW256774  12.159  11.613   6.493
84979SOL     OW56775  11.323  13.163   5.460
84979SOL    HW156776  11.241  13.176   5.509
84979SOL    HW256777  11.390  13.157   5.527
84980SOL     OW56778   1.900   4.016  10.582
84980SOL    HW156779   1.849   3.940  10.610
84980SOL    HW256780   1.835   4.075  10.544
84981SOL     OW56781  10.549  14.667  10.379
84981SOL    HW156782  10.461  14.675  10.416
84981SOL    HW256783  10.543  14.707  10.293
84982SOL     OW56784   7.966   7.197  11.408
84982SOL    HW156785   7.962   7.154  11.323
84982SOL    HW256786   7.966   7.290  11.388
84983SOL     OW56787   1.290   4.750   4.632
84983SOL    HW156788   1.308   4.663   4.667
84983SOL    HW256789   1.223   4.785   4.690
84984SOL     OW56790  11.593   0.212   9.887
84984SOL    HW156791  11.609   0.119   9.896
84984SOL    HW256792  11.589   0.245   9.976
84985SOL     OW56793   9.410   1.155   9.844
84985SOL    HW156794   9.332   1.110   9.876
84985SOL    HW256795   9.480   1.090   9.849
84986SOL     OW56796   6.815  11.422   4.898
84986SOL    HW156797   6.829  11.483   4.826
84986SOL    HW256798   6.821  11.336   4.858
84987SOL     OW56799   5.781   0.035   8.644
84987SOL    HW156800   5.866   0.058   8.682
84987SOL    HW256801   5.717   0.069   8.707
84988SOL     OW56802   3.597   0.498   9.873
84988SOL    HW156803   3.504   0.492   9.851
84988SOL    HW256804   3.612   0.427   9.935
84989SOL     OW56805   1.466  11.089   1.441
84989SOL    HW156806   1.399  11.063   1.378
84989SOL    HW256807   1.503  11.007   1.473
84990SOL     OW56808  14.601  11.356  14.128
84990SOL    HW156809  14.634  11.387  14.044
84990SOL    HW256810  14.532  11.418  14.151
84991SOL     OW56811   8.814  13.557   1.335
84991SOL    HW156812   8.730  13.518   1.313
84991SOL    HW256813   8.857  13.491   1.391
84992SOL     OW56814   4.097   0.775   9.061
84992SOL    HW156815   4.047   0.736   9.132
84992SOL    HW256816   4.162   0.708   9.038
84993SOL     OW56817   3.055  13.878  14.365
84993SOL    HW156818   3.069  13.830  14.447
84993SOL    HW256819   3.143  13.903  14.337
84994SOL     OW56820  13.409   0.917  11.386
84994SOL    HW156821  13.479   0.873  11.434
84994SOL    HW256822  13.451   0.946  11.305
84995SOL     OW56823  12.484   0.802   9.772
84995SOL    HW156824  12.488   0.712   9.740
84995SOL    HW256825  12.566   0.842   9.741
84996SOL     OW56826  10.580   2.207   5.696
84996SOL    HW156827  10.548   2.237   5.611
84996SOL    HW256828  10.599   2.287   5.744
84997SOL     OW56829   8.857   5.161   6.483
84997SOL    HW156830   8.863   5.255   6.467
84997SOL    HW256831   8.853   5.153   6.578
84998SOL     OW56832   2.405   1.862   1.752
84998SOL    HW156833   2.312   1.877   1.737
84998SOL    HW256834   2.413   1.767   1.763
84999SOL     OW56835   0.640  12.870   2.349
84999SOL    HW156836   0.653  12.775   2.349
84999SOL    HW256837   0.676  12.899   2.265
85000SOL     OW56838  10.848   2.736   6.163
85000SOL    HW156839  10.865   2.825   6.133
85000SOL    HW256840  10.778   2.744   6.227
85001SOL     OW56841  13.545   3.375   0.194
85001SOL    HW156842  13.562   3.434   0.121
85001SOL    HW256843  13.598   3.410   0.266
85002SOL     OW56844   1.525   7.675   8.624
85002SOL    HW156845   1.486   7.673   8.537
85002SOL    HW256846   1.463   7.725   8.677
85003SOL     OW56847   6.083   3.778   2.640
85003SOL    HW156848   6.053   3.723   2.712
85003SOL    HW256849   6.067   3.868   2.669
85004SOL     OW56850   0.296   3.142   4.492
85004SOL    HW156851   0.236   3.140   4.418
85004SOL    HW256852   0.381   3.165   4.454
85005SOL     OW56853  13.495  14.583  12.522
85005SOL    HW156854  13.435  14.517  12.559
85005SOL    HW256855  13.536  14.539  12.448
85006SOL     OW56856   4.445  12.873  12.980
85006SOL    HW156857   4.473  12.816  12.909
85006SOL    HW256858   4.518  12.934  12.991
85007SOL     OW56859   9.043   1.862   7.455
85007SOL    HW156860   9.125   1.835   7.414
85007SOL    HW256861   9.069   1.908   7.534
85008SOL     OW56862   1.271   1.252   2.894
85008SOL    HW156863   1.352   1.266   2.943
85008SOL    HW256864   1.216   1.201   2.954
85009SOL     OW56865   1.000   3.353  10.262
85009SOL    HW156866   0.915   3.325  10.295
85009SOL    HW256867   1.015   3.299  10.185
85010SOL     OW56868   3.960  10.766   8.214
85010SOL    HW156869   3.980  10.850   8.255
85010SOL    HW256870   4.045  10.726   8.199
85011SOL     OW56871   6.263   2.185  13.372
85011SOL    HW156872   6.236   2.161  13.284
85011SOL    HW256873   6.229   2.114  13.427
85012SOL     OW56874   6.112  11.650   3.604
85012SOL    HW156875   6.020  11.626   3.595
85012SOL    HW256876   6.122  11.728   3.549
85013SOL     OW56877   2.607  12.773   6.201
85013SOL    HW156878   2.515  12.788   6.223
85013SOL    HW256879   2.654  12.843   6.246
85014SOL     OW56880   3.272   1.492   3.783
85014SOL    HW156881   3.239   1.580   3.767
85014SOL    HW256882   3.366   1.497   3.768
85015SOL     OW56883   1.030   3.377   4.141
85015SOL    HW156884   1.060   3.418   4.060
85015SOL    HW256885   0.992   3.294   4.113
85016SOL     OW56886   1.483   2.271   2.554
85016SOL    HW156887   1.538   2.262   2.632
85016SOL    HW256888   1.393   2.277   2.588
85017SOL     OW56889   1.231   6.896   5.455
85017SOL    HW156890   1.315   6.852   5.457
85017SOL    HW256891   1.237   6.964   5.522
85018SOL     OW56892   4.971  13.561   6.593
85018SOL    HW156893   4.921  13.485   6.564
85018SOL    HW256894   4.906  13.630   6.604
85019SOL     OW56895  11.058   0.492   4.827
85019SOL    HW156896  11.068   0.507   4.921
85019SOL    HW256897  11.147   0.496   4.792
85020SOL     OW56898   5.987  10.910   8.748
85020SOL    HW156899   5.991  10.991   8.697
85020SOL    HW256900   5.921  10.857   8.703
85021SOL     OW56901   4.856   9.282   3.839
85021SOL    HW156902   4.900   9.300   3.922
85021SOL    HW256903   4.844   9.187   3.838
85022SOL     OW56904   4.565   8.822   0.540
85022SOL    HW156905   4.623   8.751   0.566
85022SOL    HW256906   4.602   8.854   0.457
85023SOL     OW56907   9.479   9.006   4.702
85023SOL    HW156908   9.452   8.937   4.642
85023SOL    HW256909   9.525   9.069   4.646
85024SOL     OW56910  14.382   2.893   1.902
85024SOL    HW156911  14.341   2.819   1.947
85024SOL    HW256912  14.332   2.969   1.931
85025SOL     OW56913  10.187   2.695   0.380
85025SOL    HW156914  10.241   2.740   0.446
85025SOL    HW256915  10.200   2.746   0.300
85026SOL     OW56916   6.686  13.035   4.001
85026SOL    HW156917   6.727  13.095   4.063
85026SOL    HW256918   6.592  13.051   4.010
85027SOL     OW56919   5.196   5.346  14.548
85027SOL    HW156920   5.165   5.354  14.457
85027SOL    HW256921   5.291   5.340  14.540
85028SOL     OW56922   0.053   3.473   5.988
85028SOL    HW156923   0.103   3.554   5.988
85028SOL    HW256924  14.838   3.500   5.975
85029SOL     OW56925   5.849   4.463   5.816
85029SOL    HW156926   5.763   4.441   5.852
85029SOL    HW256927   5.833   4.543   5.765
85030SOL     OW56928   2.253   4.732   5.525
85030SOL    HW156929   2.182   4.762   5.583
85030SOL    HW256930   2.213   4.730   5.438
85031SOL     OW56931  12.007   8.757  11.184
85031SOL    HW156932  11.988   8.843  11.146
85031SOL    HW256933  11.980   8.764  11.276
85032SOL     OW56934   5.793  12.911   4.777
85032SOL    HW156935   5.797  12.852   4.701
85032SOL    HW256936   5.776  12.854   4.851
85033SOL     OW56937   9.380  12.640   2.732
85033SOL    HW156938   9.402  12.573   2.667
85033SOL    HW256939   9.302  12.606   2.776
85034SOL     OW56940   0.772   4.313  14.307
85034SOL    HW156941   0.719   4.317  14.227
85034SOL    HW256942   0.862   4.320  14.275
85035SOL     OW56943   3.034   8.130  10.691
85035SOL    HW156944   2.943   8.141  10.663
85035SOL    HW256945   3.038   8.043  10.730
85036SOL     OW56946   6.665   8.645   2.274
85036SOL    HW156947   6.636   8.568   2.324
85036SOL    HW256948   6.733   8.684   2.328
85037SOL     OW56949   7.804   7.428   0.449
85037SOL    HW156950   7.755   7.346   0.447
85037SOL    HW256951   7.881   7.408   0.503
85038SOL     OW56952   6.119  13.027   7.537
85038SOL    HW156953   6.099  13.039   7.444
85038SOL    HW256954   6.203  12.980   7.537
85039SOL     OW56955   3.014   1.115  12.469
85039SOL    HW156956   2.993   1.185  12.406
85039SOL    HW256957   3.040   1.041  12.415
85040SOL     OW56958  13.033  11.482  13.313
85040SOL    HW156959  13.084  11.560  13.293
85040SOL    HW256960  13.097  11.416  13.338
85041SOL     OW56961   2.442  11.853  14.657
85041SOL    HW156962   2.386  11.917  14.612
85041SOL    HW256963   2.423  11.867  14.750
85042SOL     OW56964  12.811   3.145   1.734
85042SOL    HW156965  12.758   3.157   1.813
85042SOL    HW256966  12.848   3.057   1.743
85043SOL     OW56967   6.995   9.883  12.394
85043SOL    HW156968   7.034   9.802  12.426
85043SOL    HW256969   6.902   9.863  12.383
85044SOL     OW56970  12.749  13.851   8.041
85044SOL    HW156971  12.666  13.843   8.089
85044SOL    HW256972  12.815  13.822   8.104
85045SOL     OW56973   1.613   2.013  13.595
85045SOL    HW156974   1.552   2.074  13.636
85045SOL    HW256975   1.576   1.998  13.508
85046SOL     OW56976  10.612  12.044   3.329
85046SOL    HW156977  10.577  12.113   3.273
85046SOL    HW256978  10.649  12.091   3.404
85047SOL     OW56979   8.512  11.148   8.105
85047SOL    HW156980   8.459  11.151   8.025
85047SOL    HW256981   8.602  11.137   8.073
85048SOL     OW56982   2.194   6.999  11.070
85048SOL    HW156983   2.120   6.996  11.010
85048SOL    HW256984   2.207   6.909  11.098
85049SOL     OW56985   3.791  14.220   1.224
85049SOL    HW156986   3.799  14.170   1.306
85049SOL    HW256987   3.776  14.310   1.252
85050SOL     OW56988   9.299   8.422   9.861
85050SOL    HW156989   9.302   8.370   9.781
85050SOL    HW256990   9.332   8.364   9.929
85051SOL     OW56991  13.361   5.832  10.607
85051SOL    HW156992  13.438   5.842  10.550
85051SOL    HW256993  13.373   5.900  10.674
85052SOL     OW56994  13.174   9.163  14.605
85052SOL    HW156995  13.194   9.225  14.675
85052SOL    HW256996  13.138   9.217  14.534
85053SOL     OW56997   6.910  13.988   1.927
85053SOL    HW156998   6.864  13.910   1.896
85053SOL    HW256999   6.920  14.042   1.849
85054SOL     OW57000   7.022   8.474   9.821
85054SOL    HW157001   6.947   8.463   9.880
85054SOL    HW257002   7.078   8.398   9.840
85055SOL     OW57003  12.005   7.678   6.707
85055SOL    HW157004  11.982   7.617   6.777
85055SOL    HW257005  11.921   7.704   6.669
85056SOL     OW57006   6.088  13.021   3.286
85056SOL    HW157007   6.087  12.983   3.374
85056SOL    HW257008   6.180  13.034   3.266
85057SOL     OW57009   9.383  11.965  13.175
85057SOL    HW157010   9.359  12.023  13.247
85057SOL    HW257011   9.479  11.965  13.175
85058SOL     OW57012  10.588  11.080   2.548
85058SOL    HW157013  10.572  11.026   2.471
85058SOL    HW257014  10.595  11.018   2.620
85059SOL     OW57015  10.868  11.262   0.819
85059SOL    HW157016  10.900  11.324   0.883
85059SOL    HW257017  10.887  11.303   0.734
85060SOL     OW57018   2.720   6.466   0.847
85060SOL    HW157019   2.689   6.521   0.920
85060SOL    HW257020   2.772   6.398   0.889
85061SOL     OW57021   1.126   3.333   3.062
85061SOL    HW157022   1.127   3.372   2.974
85061SOL    HW257023   1.147   3.240   3.047
85062SOL     OW57024  11.735  11.351   5.364
85062SOL    HW157025  11.649  11.326   5.332
85062SOL    HW257026  11.739  11.315   5.453
85063SOL     OW57027   0.841  13.958  13.681
85063SOL    HW157028   0.783  14.022  13.723
85063SOL    HW257029   0.814  13.874  13.718
85064SOL     OW57030   4.675   8.512   4.688
85064SOL    HW157031   4.605   8.517   4.623
85064SOL    HW257032   4.740   8.454   4.650
85065SOL     OW57033  14.427   4.082  10.754
85065SOL    HW157034  14.493   4.017  10.778
85065SOL    HW257035  14.436   4.091  10.659
85066SOL     OW57036   6.893  14.003   5.555
85066SOL    HW157037   6.827  13.935   5.571
85066SOL    HW257038   6.850  14.066   5.498
85067SOL     OW57039   4.445   7.227   4.959
85067SOL    HW157040   4.532   7.217   4.920
85067SOL    HW257041   4.452   7.304   5.015
85068SOL     OW57042   1.697  12.128  11.918
85068SOL    HW157043   1.783  12.125  11.876
85068SOL    HW257044   1.699  12.209  11.970
85069SOL     OW57045   3.199  12.956   7.450
85069SOL    HW157046   3.164  13.011   7.380
85069SOL    HW257047   3.122  12.929   7.501
85070SOL     OW57048   2.586   8.272  13.657
85070SOL    HW157049   2.559   8.180  13.660
85070SOL    HW257050   2.675   8.270  13.621
85071SOL     OW57051   3.380   7.408   7.364
85071SOL    HW157052   3.416   7.416   7.275
85071SOL    HW257053   3.439   7.346   7.407
85072SOL     OW57054   1.806  11.975  12.240
85072SOL    HW157055   1.791  12.068  12.256
85072SOL    HW257056   1.898  11.961  12.261
85073SOL     OW57057   0.960  13.609   5.759
85073SOL    HW157058   0.986  13.522   5.787
85073SOL    HW257059   0.941  13.600   5.665
85074SOL     OW57060  13.676   7.852   4.343
85074SOL    HW157061  13.753   7.867   4.398
85074SOL    HW257062  13.602   7.859   4.402
85075SOL     OW57063  14.464   5.746  11.218
85075SOL    HW157064  14.468   5.697  11.136
85075SOL    HW257065  14.389   5.709  11.265
85076SOL     OW57066  12.625   4.501   4.208
85076SOL    HW157067  12.677   4.434   4.251
85076SOL    HW257068  12.604   4.564   4.277
85077SOL     OW57069  14.293   7.626  11.175
85077SOL    HW157070  14.214   7.644  11.125
85077SOL    HW257071  14.269   7.647  11.266
85078SOL     OW57072  14.128  13.976   1.633
85078SOL    HW157073  14.198  13.994   1.570
85078SOL    HW257074  14.055  14.030   1.604
85079SOL     OW57075   6.872   2.182  12.685
85079SOL    HW157076   6.837   2.140  12.606
85079SOL    HW257077   6.860   2.117  12.754
85080SOL     OW57078   6.599   4.569   4.702
85080SOL    HW157079   6.597   4.587   4.608
85080SOL    HW257080   6.692   4.556   4.722
85081SOL     OW57081  13.121   6.102   9.426
85081SOL    HW157082  13.060   6.037   9.461
85081SOL    HW257083  13.113   6.177   9.486
85082SOL     OW57084  10.413   2.548   8.027
85082SOL    HW157085  10.456   2.592   8.100
85082SOL    HW257086  10.320   2.550   8.049
85083SOL     OW57087  10.757  11.618  14.469
85083SOL    HW157088  10.816  11.642  14.541
85083SOL    HW257089  10.750  11.697  14.416
85084SOL     OW57090   7.438  10.041   0.844
85084SOL    HW157091   7.504  10.031   0.775
85084SOL    HW257092   7.436   9.956   0.888
85085SOL     OW57093  10.505   5.851   2.815
85085SOL    HW157094  10.420   5.847   2.861
85085SOL    HW257095  10.488   5.907   2.739
85086SOL     OW57096  10.022   6.550   1.025
85086SOL    HW157097   9.930   6.562   1.047
85086SOL    HW257098  10.062   6.514   1.104
85087SOL     OW57099  11.707   7.051  12.154
85087SOL    HW157100  11.701   6.956  12.158
85087SOL    HW257101  11.782   7.073  12.210
85088SOL     OW57102  11.055  10.653   2.701
85088SOL    HW157103  11.079  10.561   2.693
85088SOL    HW257104  11.119  10.691   2.762
85089SOL     OW57105  13.372   3.129   3.589
85089SOL    HW157106  13.338   3.105   3.502
85089SOL    HW257107  13.353   3.222   3.597
85090SOL     OW57108   5.099   6.505   2.506
85090SOL    HW157109   5.167   6.552   2.457
85090SOL    HW257110   5.100   6.543   2.593
85091SOL     OW57111   8.366   4.475   9.848
85091SOL    HW157112   8.296   4.488   9.784
85091SOL    HW257113   8.436   4.533   9.819
85092SOL     OW57114   9.010   0.848   8.502
85092SOL    HW157115   9.036   0.767   8.458
85092SOL    HW257116   8.922   0.866   8.468
85093SOL     OW57117  13.754   9.618   4.896
85093SOL    HW157118  13.775   9.689   4.957
85093SOL    HW257119  13.755   9.539   4.950
85094SOL     OW57120  10.322   8.404   0.867
85094SOL    HW157121  10.242   8.456   0.858
85094SOL    HW257122  10.367   8.414   0.783
85095SOL     OW57123   1.520  12.411  10.007
85095SOL    HW157124   1.441  12.409  10.062
85095SOL    HW257125   1.487  12.395   9.918
85096SOL     OW57126   2.824   8.081   9.659
85096SOL    HW157127   2.882   8.026   9.712
85096SOL    HW257128   2.839   8.170   9.690
85097SOL     OW57129   8.994  11.643  11.253
85097SOL    HW157130   9.014  11.585  11.180
85097SOL    HW257131   9.063  11.625  11.317
85098SOL     OW57132   7.150   9.213   4.888
85098SOL    HW157133   7.099   9.288   4.856
85098SOL    HW257134   7.088   9.164   4.942
85099SOL     OW57135   3.200  13.315   5.051
85099SOL    HW157136   3.185  13.391   4.995
85099SOL    HW257137   3.192  13.349   5.140
85100SOL     OW57138  13.928  14.134  14.044
85100SOL    HW157139  13.931  14.223  14.011
85100SOL    HW257140  13.982  14.135  14.123
85101SOL     OW57141   4.956   8.858   2.494
85101SOL    HW157142   5.007   8.780   2.517
85101SOL    HW257143   4.931   8.895   2.579
85102SOL     OW57144   4.680   0.651   4.924
85102SOL    HW157145   4.711   0.642   5.014
85102SOL    HW257146   4.700   0.567   4.884
85103SOL     OW57147   9.414   5.767   4.957
85103SOL    HW157148   9.457   5.848   4.983
85103SOL    HW257149   9.378   5.732   5.039
85104SOL     OW57150   1.881   9.697   0.088
85104SOL    HW157151   1.935   9.728   0.015
85104SOL    HW257152   1.836   9.776   0.119
85105SOL     OW57153   2.919   2.205  13.036
85105SOL    HW157154   2.937   2.257  12.958
85105SOL    HW257155   2.971   2.126  13.025
85106SOL     OW57156   2.338  12.246   7.639
85106SOL    HW157157   2.390  12.325   7.644
85106SOL    HW257158   2.321  12.222   7.731
85107SOL     OW57159   5.571   0.768   9.577
85107SOL    HW157160   5.655   0.789   9.619
85107SOL    HW257161   5.567   0.672   9.579
85108SOL     OW57162   6.647  10.520   4.256
85108SOL    HW157163   6.671  10.442   4.207
85108SOL    HW257164   6.731  10.556   4.286
85109SOL     OW57165   7.982   1.749   1.165
85109SOL    HW157166   8.015   1.663   1.139
85109SOL    HW257167   7.901   1.759   1.114
85110SOL     OW57168   0.188   3.329   6.672
85110SOL    HW157169   0.191   3.262   6.604
85110SOL    HW257170   0.105   3.375   6.657
85111SOL     OW57171   4.250  13.563   5.271
85111SOL    HW157172   4.239  13.527   5.360
85111SOL    HW257173   4.186  13.634   5.267
85112SOL     OW57174   7.511   6.112   1.158
85112SOL    HW157175   7.571   6.096   1.085
85112SOL    HW257176   7.450   6.177   1.125
85113SOL     OW57177   3.479   2.169   0.572
85113SOL    HW157178   3.471   2.264   0.570
85113SOL    HW257179   3.456   2.144   0.661
85114SOL     OW57180   6.597  12.529   3.596
85114SOL    HW157181   6.679  12.574   3.577
85114SOL    HW257182   6.624  12.443   3.629
85115SOL     OW57183   5.522  13.840   2.427
85115SOL    HW157184   5.596  13.844   2.487
85115SOL    HW257185   5.557  13.870   2.343
85116SOL     OW57186   9.439  11.770   4.179
85116SOL    HW157187   9.354  11.754   4.220
85116SOL    HW257188   9.479  11.839   4.233
85117SOL     OW57189   6.362   4.825  11.221
85117SOL    HW157190   6.425   4.836  11.292
85117SOL    HW257191   6.332   4.913  11.200
85118SOL     OW57192   4.154   1.330   7.777
85118SOL    HW157193   4.204   1.347   7.697
85118SOL    HW257194   4.213   1.277   7.831
85119SOL     OW57195  11.652   1.165   4.527
85119SOL    HW157196  11.581   1.229   4.530
85119SOL    HW257197  11.682   1.158   4.618
85120SOL     OW57198   6.332  13.599   7.287
85120SOL    HW157199   6.251  13.636   7.323
85120SOL    HW257200   6.312  13.507   7.270
85121SOL     OW57201   4.628   4.405   0.636
85121SOL    HW157202   4.547   4.355   0.626
85121SOL    HW257203   4.669   4.368   0.714
85122SOL     OW57204   5.494   8.011   9.257
85122SOL    HW157205   5.547   7.934   9.235
85122SOL    HW257206   5.405   7.978   9.263
85123SOL     OW57207  13.216  14.849   6.023
85123SOL    HW157208  13.190   0.025   5.948
85123SOL    HW257209  13.145  14.862   6.087
85124SOL     OW57210   4.033   1.263   1.900
85124SOL    HW157211   4.062   1.347   1.936
85124SOL    HW257212   4.113   1.212   1.889
85125SOL     OW57213   3.062  14.568  13.096
85125SOL    HW157214   3.034  14.565  13.187
85125SOL    HW257215   3.002  14.629  13.053
85126SOL     OW57216  11.490   8.043   6.758
85126SOL    HW157217  11.426   7.980   6.725
85126SOL    HW257218  11.460   8.128   6.726
85127SOL     OW57219  12.175  12.051   0.679
85127SOL    HW157220  12.186  12.063   0.585
85127SOL    HW257221  12.195  12.137   0.717
85128SOL     OW57222  14.089   8.741   4.471
85128SOL    HW157223  14.106   8.724   4.378
85128SOL    HW257224  14.138   8.820   4.491
85129SOL     OW57225  14.546  13.083   8.337
85129SOL    HW157226  14.496  13.014   8.294
85129SOL    HW257227  14.538  13.065   8.430
85130SOL     OW57228  13.723   9.702   3.116
85130SOL    HW157229  13.731   9.768   3.048
85130SOL    HW257230  13.770   9.626   3.082
85131SOL     OW57231   8.278   8.335  13.047
85131SOL    HW157232   8.248   8.426  13.059
85131SOL    HW257233   8.338   8.320  13.120
85132SOL     OW57234  14.671   0.646  13.379
85132SOL    HW157235  14.635   0.672  13.294
85132SOL    HW257236  14.596   0.646  13.438
85133SOL     OW57237   1.870  10.314   1.363
85133SOL    HW157238   1.866  10.226   1.326
85133SOL    HW257239   1.925  10.363   1.303
85134SOL     OW57240  14.829   1.020  14.088
85134SOL    HW157241  14.866   0.982  14.168
85134SOL    HW257242  14.767   0.954  14.057
85135SOL     OW57243   2.132   5.732   8.561
85135SOL    HW157244   2.156   5.798   8.495
85135SOL    HW257245   2.134   5.780   8.644
85136SOL     OW57246   9.528   5.412   7.538
85136SOL    HW157247   9.502   5.463   7.462
85136SOL    HW257248   9.498   5.464   7.613
85137SOL     OW57249  12.929  14.122   0.920
85137SOL    HW157250  12.848  14.109   0.969
85137SOL    HW257251  12.990  14.159   0.984
85138SOL     OW57252   3.190  14.520   7.893
85138SOL    HW157253   3.278  14.531   7.855
85138SOL    HW257254   3.160  14.610   7.908
85139SOL     OW57255  10.295  10.985  11.739
85139SOL    HW157256  10.259  10.897  11.725
85139SOL    HW257257  10.336  10.981  11.825
85140SOL     OW57258  12.275  10.384  13.989
85140SOL    HW157259  12.365  10.380  13.958
85140SOL    HW257260  12.239  10.297  13.972
85141SOL     OW57261   3.946   4.327  10.767
85141SOL    HW157262   3.972   4.258  10.707
85141SOL    HW257263   4.028   4.358  10.806
85142SOL     OW57264   9.691  11.846   5.835
85142SOL    HW157265   9.623  11.794   5.792
85142SOL    HW257266   9.644  11.916   5.879
85143SOL     OW57267  14.730  13.237   4.524
85143SOL    HW157268  14.695  13.150   4.502
85143SOL    HW257269  14.668  13.298   4.484
85144SOL     OW57270  11.080  12.158   3.978
85144SOL    HW157271  11.024  12.084   4.000
85144SOL    HW257272  11.137  12.126   3.908
85145SOL     OW57273   6.834   3.328   2.821
85145SOL    HW157274   6.893   3.253   2.815
85145SOL    HW257275   6.754   3.293   2.859
85146SOL     OW57276  14.165  12.217  13.111
85146SOL    HW157277  14.178  12.124  13.096
85146SOL    HW257278  14.073  12.233  13.092
85147SOL     OW57279  11.715   0.988   4.776
85147SOL    HW157280  11.796   0.941   4.754
85147SOL    HW257281  11.654   0.919   4.803
85148SOL     OW57282  13.618   1.228   1.313
85148SOL    HW157283  13.583   1.310   1.278
85148SOL    HW257284  13.654   1.183   1.237
85149SOL     OW57285   9.631   1.063   0.696
85149SOL    HW157286   9.721   1.097   0.697
85149SOL    HW257287   9.613   1.046   0.604
85150SOL     OW57288  12.709   4.562   9.693
85150SOL    HW157289  12.749   4.481   9.725
85150SOL    HW257290  12.680   4.541   9.604
85151SOL     OW57291   8.792  10.067   4.391
85151SOL    HW157292   8.784  10.030   4.478
85151SOL    HW257293   8.875  10.115   4.392
85152SOL     OW57294  11.456   8.212   7.650
85152SOL    HW157295  11.404   8.179   7.577
85152SOL    HW257296  11.518   8.272   7.610
85153SOL     OW57297  12.372   4.949   7.004
85153SOL    HW157298  12.368   4.855   7.021
85153SOL    HW257299  12.348   4.957   6.911
85154SOL     OW57300   6.337   5.303  11.798
85154SOL    HW157301   6.426   5.336  11.787
85154SOL    HW257302   6.312   5.271  11.711
85155SOL     OW57303   6.829  14.515   3.108
85155SOL    HW157304   6.834  14.419   3.111
85155SOL    HW257305   6.846  14.537   3.016
85156SOL     OW57306  14.567   9.357   3.342
85156SOL    HW157307  14.619   9.436   3.358
85156SOL    HW257308  14.620   9.306   3.281
85157SOL     OW57309   5.339   6.911   2.090
85157SOL    HW157310   5.348   6.925   1.996
85157SOL    HW257311   5.415   6.955   2.128
85158SOL     OW57312   8.307   0.010   9.191
85158SOL    HW157313   8.294  14.823   9.262
85158SOL    HW257314   8.374   0.069   9.223
85159SOL     OW57315   0.716  14.715  11.474
85159SOL    HW157316   0.638  14.700  11.528
85159SOL    HW257317   0.788  14.679  11.525
85160SOL     OW57318  12.193   2.980   9.650
85160SOL    HW157319  12.178   2.918   9.579
85160SOL    HW257320  12.127   3.049   9.636
85161SOL     OW57321   5.239  13.317  13.572
85161SOL    HW157322   5.221  13.399  13.526
85161SOL    HW257323   5.234  13.340  13.664
85162SOL     OW57324   8.226   4.019   1.020
85162SOL    HW157325   8.166   4.091   1.042
85162SOL    HW257326   8.313   4.059   1.024
85163SOL     OW57327   9.917  11.387   6.558
85163SOL    HW157328   9.904  11.451   6.488
85163SOL    HW257329   9.972  11.320   6.519
85164SOL     OW57330  12.444   0.857  12.573
85164SOL    HW157331  12.371   0.913  12.545
85164SOL    HW257332  12.501   0.916  12.623
85165SOL     OW57333   9.326   8.800   0.073
85165SOL    HW157334   9.245   8.751   0.064
85165SOL    HW257335   9.311   8.880   0.022
85166SOL     OW57336   7.920  14.064   2.475
85166SOL    HW157337   7.897  14.047   2.384
85166SOL    HW257338   7.872  14.143   2.499
85167SOL     OW57339   1.968  14.390   6.454
85167SOL    HW157340   1.994  14.378   6.363
85167SOL    HW257341   1.988  14.482   6.472
85168SOL     OW57342   3.099   1.756  10.489
85168SOL    HW157343   3.069   1.830  10.542
85168SOL    HW257344   3.146   1.699  10.550
85169SOL     OW57345  13.762   5.049   9.886
85169SOL    HW157346  13.797   4.985   9.824
85169SOL    HW257347  13.709   5.108   9.833
85170SOL     OW57348   7.728  10.785  11.744
85170SOL    HW157349   7.644  10.755  11.709
85170SOL    HW257350   7.780  10.705  11.751
85171SOL     OW57351  14.485   0.928  11.826
85171SOL    HW157352  14.525   0.934  11.913
85171SOL    HW257353  14.528   0.853  11.786
85172SOL     OW57354   5.375   7.608  14.002
85172SOL    HW157355   5.389   7.700  14.021
85172SOL    HW257356   5.439   7.562  14.055
85173SOL     OW57357  13.215   1.531  14.592
85173SOL    HW157358  13.215   1.518  14.497
85173SOL    HW257359  13.157   1.463  14.626
85174SOL     OW57360   3.799   6.047   6.184
85174SOL    HW157361   3.834   5.979   6.127
85174SOL    HW257362   3.873   6.106   6.198
85175SOL     OW57363   5.969   6.756  12.292
85175SOL    HW157364   6.062   6.744  12.275
85175SOL    HW257365   5.948   6.840  12.249
85176SOL     OW57366  12.318   0.236  12.564
85176SOL    HW157367  12.344   0.154  12.523
85176SOL    HW257368  12.386   0.252  12.630
85177SOL     OW57369   4.558  12.840   0.845
85177SOL    HW157370   4.550  12.886   0.929
85177SOL    HW257371   4.639  12.789   0.854
85178SOL     OW57372   7.908  10.502   4.697
85178SOL    HW157373   7.882  10.537   4.611
85178SOL    HW257374   7.891  10.575   4.757
85179SOL     OW57375  12.735  13.842   1.890
85179SOL    HW157376  12.694  13.837   1.976
85179SOL    HW257377  12.663  13.832   1.828
85180SOL     OW57378  11.842   2.317   1.869
85180SOL    HW157379  11.868   2.244   1.926
85180SOL    HW257380  11.885   2.394   1.907
85181SOL     OW57381   0.369   4.154   2.297
85181SOL    HW157382   0.410   4.085   2.244
85181SOL    HW257383   0.309   4.198   2.238
85182SOL     OW57384   2.326   2.352   7.545
85182SOL    HW157385   2.321   2.272   7.597
85182SOL    HW257386   2.373   2.414   7.600
85183SOL     OW57387   4.321   0.466  10.713
85183SOL    HW157388   4.343   0.526  10.642
85183SOL    HW257389   4.402   0.459  10.764
85184SOL     OW57390   4.447  13.171   2.801
85184SOL    HW157391   4.412  13.148   2.887
85184SOL    HW257392   4.471  13.087   2.762
85185SOL     OW57393   2.964  14.244   7.340
85185SOL    HW157394   2.926  14.157   7.330
85185SOL    HW257395   3.054  14.229   7.369
85186SOL     OW57396  12.575  10.534   7.534
85186SOL    HW157397  12.535  10.467   7.591
85186SOL    HW257398  12.639  10.578   7.590
85187SOL     OW57399  14.632   7.850   8.560
85187SOL    HW157400  14.718   7.828   8.525
85187SOL    HW257401  14.589   7.765   8.574
85188SOL     OW57402  14.280   0.390   4.289
85188SOL    HW157403  14.331   0.319   4.326
85188SOL    HW257404  14.256   0.444   4.365
85189SOL     OW57405   8.381   8.431   2.242
85189SOL    HW157406   8.400   8.506   2.298
85189SOL    HW257407   8.385   8.356   2.301
85190SOL     OW57408   8.427   4.853  14.030
85190SOL    HW157409   8.495   4.802  13.986
85190SOL    HW257410   8.403   4.921  13.967
85191SOL     OW57411   6.397  12.638   0.122
85191SOL    HW157412   6.303  12.651   0.106
85191SOL    HW257413   6.401  12.556   0.172
85192SOL     OW57414   5.891   7.461  10.851
85192SOL    HW157415   5.860   7.550  10.867
85192SOL    HW257416   5.915   7.429  10.938
85193SOL     OW57417   9.234   9.048  14.798
85193SOL    HW157418   9.141   9.059  14.817
85193SOL    HW257419   9.241   9.061  14.704
85194SOL     OW57420   4.710   6.265  11.284
85194SOL    HW157421   4.738   6.301  11.200
85194SOL    HW257422   4.627   6.310  11.302
85195SOL     OW57423   4.215   2.024  10.080
85195SOL    HW157424   4.220   1.929  10.068
85195SOL    HW257425   4.122   2.044  10.073
85196SOL     OW57426   3.746   2.666   1.618
85196SOL    HW157427   3.803   2.742   1.617
85196SOL    HW257428   3.709   2.664   1.707
85197SOL     OW57429   3.208  13.501   6.241
85197SOL    HW157430   3.117  13.530   6.234
85197SOL    HW257431   3.216  13.471   6.332
85198SOL     OW57432   2.323   9.219   6.418
85198SOL    HW157433   2.410   9.234   6.380
85198SOL    HW257434   2.296   9.306   6.449
85199SOL     OW57435   3.279   8.079  14.476
85199SOL    HW157436   3.257   8.136  14.403
85199SOL    HW257437   3.311   7.998  14.435
85200SOL     OW57438   4.175  13.233   9.268
85200SOL    HW157439   4.113  13.211   9.337
85200SOL    HW257440   4.253  13.182   9.288
85201SOL     OW57441   0.485   5.264  12.009
85201SOL    HW157442   0.524   5.327  12.070
85201SOL    HW257443   0.470   5.314  11.929
85202SOL     OW57444   7.006  13.101   5.378
85202SOL    HW157445   6.978  13.137   5.462
85202SOL    HW257446   6.980  13.166   5.314
85203SOL     OW57447   6.571   5.974   5.771
85203SOL    HW157448   6.535   6.008   5.853
85203SOL    HW257449   6.520   6.017   5.702
85204SOL     OW57450  13.017   2.540   3.484
85204SOL    HW157451  13.016   2.444   3.490
85204SOL    HW257452  12.976   2.559   3.399
85205SOL     OW57453   1.026  11.103   2.846
85205SOL    HW157454   1.050  11.188   2.810
85205SOL    HW257455   0.932  11.108   2.860
85206SOL     OW57456  14.863  13.845   8.058
85206SOL    HW157457  14.855  13.798   8.141
85206SOL    HW257458  14.828  13.784   7.993
85207SOL     OW57459  14.813   3.902   5.767
85207SOL    HW157460  14.775   3.854   5.841
85207SOL    HW257461  14.808   3.841   5.693
85208SOL     OW57462   6.759   3.005  14.440
85208SOL    HW157463   6.740   2.964  14.355
85208SOL    HW257464   6.710   2.953  14.503
85209SOL     OW57465  12.774   5.866   0.125
85209SOL    HW157466  12.829   5.839   0.051
85209SOL    HW257467  12.792   5.960   0.135
85210SOL     OW57468   5.314  11.349  12.982
85210SOL    HW157469   5.219  11.352  12.991
85210SOL    HW257470   5.348  11.392  13.061
85211SOL     OW57471  13.185  12.905   2.884
85211SOL    HW157472  13.151  12.825   2.845
85211SOL    HW257473  13.257  12.876   2.940
85212SOL     OW57474  10.080   4.108  11.750
85212SOL    HW157475  10.109   4.196  11.775
85212SOL    HW257476  10.054   4.116  11.659
85213SOL     OW57477  11.208   3.125  10.011
85213SOL    HW157478  11.215   3.217   9.987
85213SOL    HW257479  11.143   3.089   9.952
85214SOL     OW57480  12.544  12.774  14.875
85214SOL    HW157481  12.544  12.869   0.012
85214SOL    HW257482  12.488  12.761  14.797
85215SOL     OW57483  14.670   3.452   9.400
85215SOL    HW157484  14.663   3.547   9.411
85215SOL    HW257485  14.711   3.441   9.315
85216SOL     OW57486   1.860   7.329   6.976
85216SOL    HW157487   1.813   7.409   7.000
85216SOL    HW257488   1.814   7.298   6.898
85217SOL     OW57489  10.512   2.115   4.831
85217SOL    HW157490  10.572   2.122   4.905
85217SOL    HW257491  10.445   2.181   4.848
85218SOL     OW57492  13.688  12.891   7.226
85218SOL    HW157493  13.639  12.914   7.147
85218SOL    HW257494  13.779  12.910   7.205
85219SOL     OW57495   8.780  14.324  13.928
85219SOL    HW157496   8.728  14.274  13.865
85219SOL    HW257497   8.864  14.337  13.884
85220SOL     OW57498   4.757   8.725   9.498
85220SOL    HW157499   4.724   8.815   9.499
85220SOL    HW257500   4.681   8.672   9.520
85221SOL     OW57501  12.558  13.634   3.600
85221SOL    HW157502  12.475  13.677   3.580
85221SOL    HW257503  12.621  13.672   3.538
85222SOL     OW57504  11.458   3.515   8.598
85222SOL    HW157505  11.547   3.544   8.579
85222SOL    HW257506  11.418   3.504   8.511
85223SOL     OW57507  11.708  12.634   1.894
85223SOL    HW157508  11.772  12.663   1.829
85223SOL    HW257509  11.759  12.577   1.952
85224SOL     OW57510   4.707   1.231   9.670
85224SOL    HW157511   4.649   1.250   9.597
85224SOL    HW257512   4.795   1.229   9.632
85225SOL     OW57513  14.569  14.076   0.114
85225SOL    HW157514  14.560  14.068   0.209
85225SOL    HW257515  14.540  13.991   0.081
85226SOL     OW57516  11.774   7.952   8.375
85226SOL    HW157517  11.799   7.975   8.285
85226SOL    HW257518  11.696   7.897   8.364
85227SOL     OW57519   9.575  11.703   2.432
85227SOL    HW157520   9.525  11.721   2.352
85227SOL    HW257521   9.600  11.790   2.464
85228SOL     OW57522   9.311   3.855  11.589
85228SOL    HW157523   9.314   3.899  11.505
85228SOL    HW257524   9.393   3.882  11.633
85229SOL     OW57525  10.714   6.787   0.309
85229SOL    HW157526  10.784   6.742   0.356
85229SOL    HW257527  10.722   6.879   0.336
85230SOL     OW57528   5.664   8.757  12.965
85230SOL    HW157529   5.722   8.807  12.908
85230SOL    HW257530   5.576   8.771  12.928
85231SOL     OW57531   2.733   6.663  13.693
85231SOL    HW157532   2.736   6.645  13.787
85231SOL    HW257533   2.824   6.677  13.668
85232SOL     OW57534   5.563   9.950   3.029
85232SOL    HW157535   5.514  10.032   3.024
85232SOL    HW257536   5.598   9.948   3.118
85233SOL     OW57537   8.578   0.583   8.252
85233SOL    HW157538   8.533   0.509   8.291
85233SOL    HW257539   8.527   0.604   8.174
85234SOL     OW57540  10.680  12.808  12.339
85234SOL    HW157541  10.736  12.825  12.264
85234SOL    HW257542  10.597  12.779  12.301
85235SOL     OW57543  10.606  10.805   6.065
85235SOL    HW157544  10.631  10.731   6.011
85235SOL    HW257545  10.511  10.810   6.057
85236SOL     OW57546   3.950   8.330   2.274
85236SOL    HW157547   4.038   8.316   2.239
85236SOL    HW257548   3.912   8.397   2.218
85237SOL     OW57549  14.222   2.273   9.785
85237SOL    HW157550  14.154   2.249   9.722
85237SOL    HW257551  14.243   2.191   9.830
85238SOL     OW57552  13.599   7.495   0.966
85238SOL    HW157553  13.625   7.520   0.877
85238SOL    HW257554  13.652   7.551   1.023
85239SOL     OW57555   5.144   5.121   1.260
85239SOL    HW157556   5.202   5.155   1.328
85239SOL    HW257557   5.077   5.188   1.250
85240SOL     OW57558  12.615  12.167   5.971
85240SOL    HW157559  12.588  12.107   6.040
85240SOL    HW257560  12.618  12.114   5.892
85241SOL     OW57561   8.984  11.108   2.180
85241SOL    HW157562   9.009  11.016   2.175
85241SOL    HW257563   8.998  11.142   2.091
85242SOL     OW57564   1.672  11.611  14.200
85242SOL    HW157565   1.686  11.705  14.208
85242SOL    HW257566   1.687  11.577  14.288
85243SOL     OW57567   3.347   9.689   2.923
85243SOL    HW157568   3.417   9.681   2.989
85243SOL    HW257569   3.315   9.599   2.911
85244SOL     OW57570   7.525   0.895   2.147
85244SOL    HW157571   7.560   0.826   2.091
85244SOL    HW257572   7.505   0.967   2.087
85245SOL     OW57573   2.890  13.117   0.533
85245SOL    HW157574   2.847  13.145   0.614
85245SOL    HW257575   2.912  13.198   0.488
85246SOL     OW57576   2.511   9.129   9.440
85246SOL    HW157577   2.439   9.069   9.457
85246SOL    HW257578   2.494   9.204   9.497
85247SOL     OW57579  14.026   4.148  10.800
85247SOL    HW157580  13.967   4.212  10.760
85247SOL    HW257581  13.974   4.106  10.868
85248SOL     OW57582  10.433   0.299   6.714
85248SOL    HW157583  10.371   0.302   6.786
85248SOL    HW257584  10.379   0.309   6.635
85249SOL     OW57585   1.234   4.635   3.194
85249SOL    HW157586   1.324   4.638   3.162
85249SOL    HW257587   1.242   4.629   3.289
85250SOL     OW57588   4.910  13.194   6.268
85250SOL    HW157589   5.005  13.183   6.264
85250SOL    HW257590   4.896  13.249   6.345
85251SOL     OW57591  12.493   4.972   3.993
85251SOL    HW157592  12.549   4.896   3.976
85251SOL    HW257593  12.480   4.972   4.088
85252SOL     OW57594   0.866   4.924   3.027
85252SOL    HW157595   0.874   4.841   3.076
85252SOL    HW257596   0.897   4.990   3.089
85253SOL     OW57597  11.626  13.267   9.732
85253SOL    HW157598  11.650  13.175   9.720
85253SOL    HW257599  11.676  13.295   9.808
85254SOL     OW57600   8.745   8.798   5.302
85254SOL    HW157601   8.765   8.709   5.273
85254SOL    HW257602   8.650   8.806   5.291
85255SOL     OW57603   7.204   3.373   7.981
85255SOL    HW157604   7.287   3.419   7.992
85255SOL    HW257605   7.193   3.364   7.886
85256SOL     OW57606  11.143   5.065   3.382
85256SOL    HW157607  11.051   5.091   3.388
85256SOL    HW257608  11.178   5.123   3.314
85257SOL     OW57609   1.191   0.133   9.413
85257SOL    HW157610   1.287   0.143   9.414
85257SOL    HW257611   1.177   0.040   9.430
85258SOL     OW57612   8.947  12.921  13.514
85258SOL    HW157613   8.875  12.975  13.547
85258SOL    HW257614   8.940  12.839  13.563
85259SOL     OW57615   5.767   0.436   0.579
85259SOL    HW157616   5.757   0.416   0.486
85259SOL    HW257617   5.754   0.352   0.623
85260SOL     OW57618  10.882  12.177   8.958
85260SOL    HW157619  10.876  12.103   8.898
85260SOL    HW257620  10.881  12.138   9.045
85261SOL     OW57621   0.976   0.828  13.270
85261SOL    HW157622   0.924   0.784  13.202
85261SOL    HW257623   0.918   0.831  13.346
85262SOL     OW57624  14.276   1.945   3.313
85262SOL    HW157625  14.183   1.964   3.302
85262SOL    HW257626  14.294   1.968   3.404
85263SOL     OW57627   5.837   9.336   7.125
85263SOL    HW157628   5.791   9.409   7.083
85263SOL    HW257629   5.768   9.280   7.160
85264SOL     OW57630   7.314   1.861  13.154
85264SOL    HW157631   7.368   1.909  13.217
85264SOL    HW257632   7.236   1.916  13.144
85265SOL     OW57633   1.265   8.529   7.206
85265SOL    HW157634   1.250   8.540   7.112
85265SOL    HW257635   1.359   8.538   7.216
85266SOL     OW57636   7.276   0.239   9.266
85266SOL    HW157637   7.276   0.165   9.206
85266SOL    HW257638   7.184   0.247   9.295
85267SOL     OW57639   3.152   4.773   2.578
85267SOL    HW157640   3.086   4.748   2.641
85267SOL    HW257641   3.235   4.764   2.625
85268SOL     OW57642   2.820   9.836   4.327
85268SOL    HW157643   2.854   9.919   4.360
85268SOL    HW257644   2.896   9.794   4.285
85269SOL     OW57645   9.940  13.403   5.806
85269SOL    HW157646   9.854  13.360   5.814
85269SOL    HW257647   9.959  13.401   5.712
85270SOL     OW57648   7.716   2.978   5.289
85270SOL    HW157649   7.783   2.936   5.235
85270SOL    HW257650   7.696   3.059   5.242
85271SOL     OW57651   7.562   0.458   6.983
85271SOL    HW157652   7.567   0.441   7.077
85271SOL    HW257653   7.482   0.413   6.956
85272SOL     OW57654  11.346  13.457  10.948
85272SOL    HW157655  11.289  13.508  11.006
85272SOL    HW257656  11.392  13.523  10.896
85273SOL     OW57657   0.179   2.790   2.010
85273SOL    HW157658   0.123   2.735   1.956
85273SOL    HW257659   0.266   2.752   2.002
85274SOL     OW57660   8.185  13.557   3.301
85274SOL    HW157661   8.151  13.551   3.391
85274SOL    HW257662   8.250  13.626   3.305
85275SOL     OW57663  13.592   4.232  13.214
85275SOL    HW157664  13.508   4.205  13.252
85275SOL    HW257665  13.646   4.254  13.289
85276SOL     OW57666   4.547  12.393   0.588
85276SOL    HW157667   4.490  12.427   0.658
85276SOL    HW257668   4.626  12.364   0.634
85277SOL     OW57669  10.315   7.333   4.431
85277SOL    HW157670  10.289   7.321   4.522
85277SOL    HW257671  10.338   7.245   4.401
85278SOL     OW57672   7.732   5.012  11.501
85278SOL    HW157673   7.812   4.982  11.545
85278SOL    HW257674   7.759   5.093  11.458
85279SOL     OW57675   6.725   6.375  10.275
85279SOL    HW157676   6.788   6.347  10.342
85279SOL    HW257677   6.719   6.470  10.287
85280SOL     OW57678   5.174  14.505   9.839
85280SOL    HW157679   5.212  14.420   9.813
85280SOL    HW257680   5.220  14.569   9.785
85281SOL     OW57681  11.261   6.113   3.860
85281SOL    HW157682  11.278   6.205   3.881
85281SOL    HW257683  11.343   6.082   3.821
85282SOL     OW57684   0.757   0.937  12.935
85282SOL    HW157685   0.767   0.860  12.992
85282SOL    HW257686   0.663   0.939  12.915
85283SOL     OW57687   4.608  12.937   1.727
85283SOL    HW157688   4.671  12.865   1.718
85283SOL    HW257689   4.555  12.934   1.647
85284SOL     OW57690  12.443   7.868   1.011
85284SOL    HW157691  12.481   7.785   1.038
85284SOL    HW257692  12.410   7.908   1.092
85285SOL     OW57693  10.819   1.329   7.470
85285SOL    HW157694  10.750   1.346   7.406
85285SOL    HW257695  10.817   1.404   7.529
85286SOL     OW57696   8.369   6.196  14.554
85286SOL    HW157697   8.365   6.252  14.631
85286SOL    HW257698   8.367   6.107  14.589
85287SOL     OW57699  10.451   7.940   2.498
85287SOL    HW157700  10.366   7.896   2.503
85287SOL    HW257701  10.474   7.960   2.589
85288SOL     OW57702   4.803   0.772  13.860
85288SOL    HW157703   4.877   0.727  13.820
85288SOL    HW257704   4.796   0.734  13.947
85289SOL     OW57705   6.637   0.606   5.786
85289SOL    HW157706   6.724   0.577   5.760
85289SOL    HW257707   6.631   0.696   5.754
85290SOL     OW57708   8.260  11.451   9.649
85290SOL    HW157709   8.196  11.410   9.591
85290SOL    HW257710   8.285  11.382   9.710
85291SOL     OW57711  14.667   4.286  11.622
85291SOL    HW157712  14.706   4.228  11.557
85291SOL    HW257713  14.620   4.352  11.570
85292SOL     OW57714   0.577   7.016  10.127
85292SOL    HW157715   0.660   7.062  10.141
85292SOL    HW257716   0.602   6.933  10.087
85293SOL     OW57717   5.659  11.301   4.404
85293SOL    HW157718   5.737  11.338   4.446
85293SOL    HW257719   5.684  11.211   4.385
85294SOL     OW57720   0.232   3.232  10.758
85294SOL    HW157721   0.234   3.293  10.832
85294SOL    HW257722   0.142   3.233  10.728
85295SOL     OW57723  14.138   5.068  10.896
85295SOL    HW157724  14.110   4.978  10.912
85295SOL    HW257725  14.162   5.101  10.982
85296SOL     OW57726   0.391   6.520  14.459
85296SOL    HW157727   0.397   6.517  14.554
85296SOL    HW257728   0.310   6.568  14.442
85297SOL     OW57729   1.962   5.484   2.625
85297SOL    HW157730   2.001   5.490   2.538
85297SOL    HW257731   2.037   5.478   2.684
85298SOL     OW57732  11.884  12.458  13.974
85298SOL    HW157733  11.956  12.498  14.021
85298SOL    HW257734  11.856  12.525  13.912
85299SOL     OW57735  11.117   8.957   2.019
85299SOL    HW157736  11.195   8.907   1.994
85299SOL    HW257737  11.061   8.954   1.941
85300SOL     OW57738   7.038  12.688   7.693
85300SOL    HW157739   7.004  12.731   7.614
85300SOL    HW257740   6.960  12.664   7.743
85301SOL     OW57741  10.167  13.729   6.073
85301SOL    HW157742  10.073  13.719   6.062
85301SOL    HW257743  10.191  13.666   6.140
85302SOL     OW57744  12.943  12.974   6.843
85302SOL    HW157745  12.970  12.961   6.752
85302SOL    HW257746  12.849  12.992   6.838
85303SOL     OW57747   1.339  14.702   9.129
85303SOL    HW157748   1.245  14.718   9.119
85303SOL    HW257749   1.380  14.755   9.062
85304SOL     OW57750  10.634   2.453  11.626
85304SOL    HW157751  10.627   2.508  11.548
85304SOL    HW257752  10.591   2.503  11.695
85305SOL     OW57753  11.615  10.100   2.947
85305SOL    HW157754  11.597  10.008   2.927
85305SOL    HW257755  11.579  10.148   2.873
85306SOL     OW57756  10.165   7.549  13.582
85306SOL    HW157757  10.160   7.468  13.531
85306SOL    HW257758  10.224   7.528  13.654
85307SOL     OW57759   4.299   2.252   5.853
85307SOL    HW157760   4.273   2.178   5.908
85307SOL    HW257761   4.218   2.280   5.811
85308SOL     OW57762   3.371   4.428  13.695
85308SOL    HW157763   3.370   4.490  13.622
85308SOL    HW257764   3.405   4.347  13.657
85309SOL     OW57765  11.338   7.091  11.815
85309SOL    HW157766  11.406   7.074  11.750
85309SOL    HW257767  11.256   7.081  11.767
85310SOL     OW57768   3.524   0.091   4.091
85310SOL    HW157769   3.459   0.140   4.141
85310SOL    HW257770   3.473   0.025   4.044
85311SOL     OW57771  12.091   0.740  12.612
85311SOL    HW157772  12.032   0.696  12.551
85311SOL    HW257773  12.173   0.691  12.607
85312SOL     OW57774   0.086   8.978  12.042
85312SOL    HW157775   0.131   9.036  11.979
85312SOL    HW257776   0.151   8.962  12.110
85313SOL     OW57777   2.363  13.761   9.496
85313SOL    HW157778   2.419  13.688   9.524
85313SOL    HW257779   2.368  13.824   9.568
85314SOL     OW57780   8.715  11.006   7.738
85314SOL    HW157781   8.725  11.052   7.821
85314SOL    HW257782   8.759  11.063   7.674
85315SOL     OW57783  11.019   7.235   2.449
85315SOL    HW157784  11.061   7.305   2.399
85315SOL    HW257785  10.952   7.279   2.502
85316SOL     OW57786  12.651   2.752   0.141
85316SOL    HW157787  12.610   2.779   0.224
85316SOL    HW257788  12.675   2.834   0.099
85317SOL     OW57789   4.998   8.109   0.937
85317SOL    HW157790   4.996   8.131   1.030
85317SOL    HW257791   5.018   8.015   0.934
85318SOL     OW57792   9.208   2.069   0.015
85318SOL    HW157793   9.185   2.162   0.009
85318SOL    HW257794   9.184   2.033  14.806
85319SOL     OW57795  11.199  10.761   4.286
85319SOL    HW157796  11.288  10.727   4.283
85319SOL    HW257797  11.176  10.776   4.194
85320SOL     OW57798  14.417   9.932   5.147
85320SOL    HW157799  14.420   9.921   5.052
85320SOL    HW257800  14.486   9.995   5.167
85321SOL     OW57801   2.099   4.580  13.220
85321SOL    HW157802   2.086   4.487  13.238
85321SOL    HW257803   2.017   4.608  13.179
85322SOL     OW57804  12.546  13.287   5.001
85322SOL    HW157805  12.474  13.332   5.046
85322SOL    HW257806  12.558  13.338   4.920
85323SOL     OW57807   6.908   8.787  13.508
85323SOL    HW157808   6.975   8.822  13.450
85323SOL    HW257809   6.833   8.846  13.496
85324SOL     OW57810  11.490  10.283  14.789
85324SOL    HW157811  11.497  10.367  14.835
85324SOL    HW257812  11.407  10.246  14.819
85325SOL     OW57813  11.805   7.122  13.929
85325SOL    HW157814  11.823   7.085  13.843
85325SOL    HW257815  11.714   7.099  13.947
85326SOL     OW57816   2.953   4.225  14.254
85326SOL    HW157817   2.977   4.211  14.163
85326SOL    HW257818   2.933   4.318  14.260
85327SOL     OW57819   6.311   8.239   6.711
85327SOL    HW157820   6.357   8.256   6.794
85327SOL    HW257821   6.256   8.163   6.730
85328SOL     OW57822  11.955   7.839  14.540
85328SOL    HW157823  12.002   7.894  14.477
85328SOL    HW257824  11.999   7.754  14.534
85329SOL     OW57825   2.396  12.119   7.270
85329SOL    HW157826   2.382  12.035   7.315
85329SOL    HW257827   2.310  12.161   7.271
85330SOL     OW57828   7.955   0.992  12.444
85330SOL    HW157829   7.972   1.000  12.350
85330SOL    HW257830   7.995   1.071  12.482
85331SOL     OW57831   8.909  14.678   1.247
85331SOL    HW157832   8.982  14.624   1.216
85331SOL    HW257833   8.831  14.634   1.214
85332SOL     OW57834  11.451   1.842   7.060
85332SOL    HW157835  11.482   1.931   7.043
85332SOL    HW257836  11.416   1.813   6.976
85333SOL     OW57837   8.178   3.624   0.869
85333SOL    HW157838   8.171   3.693   0.804
85333SOL    HW257839   8.206   3.669   0.949
85334SOL     OW57840  11.686  12.846   3.716
85334SOL    HW157841  11.674  12.779   3.782
85334SOL    HW257842  11.756  12.813   3.659
85335SOL     OW57843   4.555  11.511   3.470
85335SOL    HW157844   4.538  11.603   3.490
85335SOL    HW257845   4.485  11.463   3.514
85336SOL     OW57846  14.117   2.313  13.387
85336SOL    HW157847  14.068   2.389  13.417
85336SOL    HW257848  14.128   2.259  13.466
85337SOL     OW57849   5.555  11.632   1.619
85337SOL    HW157850   5.505  11.696   1.669
85337SOL    HW257851   5.633  11.679   1.590
85338SOL     OW57852   4.189  11.519   2.674
85338SOL    HW157853   4.259  11.567   2.717
85338SOL    HW257854   4.166  11.572   2.598
85339SOL     OW57855  12.693   8.304   8.273
85339SOL    HW157856  12.717   8.272   8.186
85339SOL    HW257857  12.601   8.328   8.266
85340SOL     OW57858   3.059  13.729  12.557
85340SOL    HW157859   3.028  13.748  12.646
85340SOL    HW257860   3.036  13.807  12.506
85341SOL     OW57861   9.832   9.811  10.121
85341SOL    HW157862   9.778   9.747  10.074
85341SOL    HW257863   9.834   9.888  10.064
85342SOL     OW57864  14.806  12.872   6.638
85342SOL    HW157865  14.837  12.801   6.693
85342SOL    HW257866   0.009  12.909   6.599
85343SOL     OW57867   7.247  12.755   0.558
85343SOL    HW157868   7.228  12.679   0.503
85343SOL    HW257869   7.164  12.801   0.566
85344SOL     OW57870   6.121  12.492  12.212
85344SOL    HW157871   6.056  12.422  12.220
85344SOL    HW257872   6.073  12.571  12.235
85345SOL     OW57873  11.571  12.453   6.986
85345SOL    HW157874  11.595  12.476   7.076
85345SOL    HW257875  11.484  12.493   6.975
85346SOL     OW57876  13.755   0.125   5.741
85346SOL    HW157877  13.771   0.148   5.649
85346SOL    HW257878  13.831   0.158   5.788
85347SOL     OW57879  10.580  11.124   6.132
85347SOL    HW157880  10.581  11.090   6.043
85347SOL    HW257881  10.630  11.060   6.182
85348SOL     OW57882   2.896  12.509  13.000
85348SOL    HW157883   2.941  12.427  13.022
85348SOL    HW257884   2.947  12.546  12.928
85349SOL     OW57885  10.059   9.046   3.249
85349SOL    HW157886  10.120   8.983   3.287
85349SOL    HW257887   9.977   9.030   3.294
85350SOL     OW57888   2.730   8.478   7.045
85350SOL    HW157889   2.771   8.418   7.107
85350SOL    HW257890   2.801   8.538   7.019
85351SOL     OW57891   7.225   6.535   1.646
85351SOL    HW157892   7.320   6.528   1.657
85351SOL    HW257893   7.192   6.547   1.735
85352SOL     OW57894   0.023   6.481   5.646
85352SOL    HW157895  14.868   6.415   5.585
85352SOL    HW257896   0.053   6.553   5.590
85353SOL     OW57897  14.713  11.758   4.010
85353SOL    HW157898  14.802  11.761   3.976
85353SOL    HW257899  14.704  11.838   4.060
85354SOL     OW57900  10.881  13.634  14.646
85354SOL    HW157901  10.788  13.619  14.630
85354SOL    HW257902  10.926  13.581  14.580
85355SOL     OW57903  13.240  12.993   0.712
85355SOL    HW157904  13.288  12.911   0.723
85355SOL    HW257905  13.308  13.058   0.692
85356SOL     OW57906  11.305   4.050  10.934
85356SOL    HW157907  11.387   4.002  10.936
85356SOL    HW257908  11.308   4.101  10.853
85357SOL     OW57909   9.655   8.622   4.724
85357SOL    HW157910   9.616   8.597   4.640
85357SOL    HW257911   9.737   8.573   4.727
85358SOL     OW57912   6.282  14.717   4.881
85358SOL    HW157913   6.198  14.747   4.916
85358SOL    HW257914   6.321  14.666   4.952
85359SOL     OW57915   0.629   8.956   7.979
85359SOL    HW157916   0.658   9.046   7.967
85359SOL    HW257917   0.709   8.904   7.979
85360SOL     OW57918  11.673   1.375   2.779
85360SOL    HW157919  11.732   1.439   2.819
85360SOL    HW257920  11.589   1.392   2.820
85361SOL     OW57921   0.176  10.301  10.878
85361SOL    HW157922   0.118  10.373  10.856
85361SOL    HW257923   0.255  10.317  10.827
85362SOL     OW57924   7.002  11.050   7.057
85362SOL    HW157925   6.926  11.093   7.096
85362SOL    HW257926   7.055  11.022   7.132
85363SOL     OW57927  12.220  10.376   2.571
85363SOL    HW157928  12.290  10.317   2.598
85363SOL    HW257929  12.262  10.461   2.558
85364SOL     OW57930   1.241  12.821   8.552
85364SOL    HW157931   1.188  12.761   8.605
85364SOL    HW257932   1.241  12.903   8.601
85365SOL     OW57933   7.322   8.385  12.746
85365SOL    HW157934   7.273   8.466  12.730
85365SOL    HW257935   7.263   8.315  12.719
85366SOL     OW57936  12.034   1.120   2.989
85366SOL    HW157937  11.967   1.051   2.986
85366SOL    HW257938  11.992   1.196   2.949
85367SOL     OW57939   1.948   1.978   1.155
85367SOL    HW157940   1.946   2.064   1.197
85367SOL    HW257941   2.019   1.985   1.091
85368SOL     OW57942   3.332   9.806   0.671
85368SOL    HW157943   3.350   9.727   0.619
85368SOL    HW257944   3.406   9.812   0.731
85369SOL     OW57945  14.257  11.915   9.582
85369SOL    HW157946  14.242  12.010   9.576
85369SOL    HW257947  14.178  11.882   9.625
85370SOL     OW57948  13.189   6.717   3.551
85370SOL    HW157949  13.170   6.637   3.501
85370SOL    HW257950  13.213   6.781   3.484
85371SOL     OW57951  12.986  11.634   2.405
85371SOL    HW157952  12.907  11.675   2.368
85371SOL    HW257953  13.055  11.656   2.343
85372SOL     OW57954   9.491   0.753   5.927
85372SOL    HW157955   9.523   0.843   5.936
85372SOL    HW257956   9.492   0.719   6.017
85373SOL     OW57957   7.921   3.366   6.032
85373SOL    HW157958   7.897   3.275   6.049
85373SOL    HW257959   7.915   3.376   5.937
85374SOL     OW57960  13.114   2.401  10.966
85374SOL    HW157961  13.031   2.413  11.012
85374SOL    HW257962  13.108   2.462  10.892
85375SOL     OW57963   6.427  13.450   7.561
85375SOL    HW157964   6.367  13.460   7.635
85375SOL    HW257965   6.383  13.493   7.488
85376SOL     OW57966   1.876   6.590   5.494
85376SOL    HW157967   1.959   6.598   5.542
85376SOL    HW257968   1.875   6.665   5.434
85377SOL     OW57969   2.483   3.084   7.195
85377SOL    HW157970   2.417   3.029   7.238
85377SOL    HW257971   2.442   3.171   7.190
85378SOL     OW57972   7.179  10.255  13.224
85378SOL    HW157973   7.189  10.161  13.241
85378SOL    HW257974   7.129  10.288  13.299
85379SOL     OW57975   9.902   8.530   4.754
85379SOL    HW157976   9.949   8.472   4.695
85379SOL    HW257977   9.943   8.516   4.839
85380SOL     OW57978   6.219  14.796   9.216
85380SOL    HW157979   6.155  14.763   9.153
85380SOL    HW257980   6.295  14.819   9.163
85381SOL     OW57981  14.724   0.474   4.690
85381SOL    HW157982  14.766   0.559   4.676
85381SOL    HW257983  14.794   0.418   4.724
85382SOL     OW57984  11.482   6.933   1.676
85382SOL    HW157985  11.420   6.873   1.636
85382SOL    HW257986  11.506   6.993   1.605
85383SOL     OW57987   7.871   1.308  12.790
85383SOL    HW157988   7.793   1.257  12.770
85383SOL    HW257989   7.888   1.359  12.711
85384SOL     OW57990   4.561   0.463   4.524
85384SOL    HW157991   4.570   0.374   4.488
85384SOL    HW257992   4.473   0.463   4.563
85385SOL     OW57993  10.940  12.839  14.761
85385SOL    HW157994  10.979  12.873  14.842
85385SOL    HW257995  10.981  12.891  14.692
85386SOL     OW57996   3.520  12.748   0.764
85386SOL    HW157997   3.569  12.792   0.694
85386SOL    HW257998   3.573  12.763   0.843
85387SOL     OW57999   5.677  10.097   2.512
85387SOL    HW158000   5.651  10.128   2.599
85387SOL    HW258001   5.734  10.022   2.529
85388SOL     OW58002  12.847  14.459   1.352
85388SOL    HW158003  12.905  14.457   1.428
85388SOL    HW258004  12.892  14.514   1.288
85389SOL     OW58005   7.290   6.450   0.359
85389SOL    HW158006   7.224   6.453   0.290
85389SOL    HW258007   7.318   6.541   0.370
85390SOL     OW58008   3.687  14.128  14.279
85390SOL    HW158009   3.685  14.069  14.353
85390SOL    HW258010   3.644  14.208  14.311
85391SOL     OW58011  12.098   7.585   4.454
85391SOL    HW158012  12.033   7.517   4.435
85391SOL    HW258013  12.182   7.540   4.449
85392SOL     OW58014   4.464  10.244   4.685
85392SOL    HW158015   4.518  10.176   4.644
85392SOL    HW258016   4.525  10.315   4.703
85393SOL     OW58017   1.351  13.899   5.277
85393SOL    HW158018   1.329  13.974   5.221
85393SOL    HW258019   1.315  13.921   5.363
85394SOL     OW58020  12.315   5.496   1.346
85394SOL    HW158021  12.364   5.578   1.340
85394SOL    HW258022  12.302   5.469   1.255
85395SOL     OW58023   8.612   2.376   9.900
85395SOL    HW158024   8.547   2.446   9.892
85395SOL    HW258025   8.642   2.361   9.811
85396SOL     OW58026   2.043  12.152  10.187
85396SOL    HW158027   2.085  12.104  10.116
85396SOL    HW258028   1.964  12.101  10.207
85397SOL     OW58029   1.577  10.342  10.768
85397SOL    HW158030   1.559  10.341  10.862
85397SOL    HW258031   1.516  10.408  10.734
85398SOL     OW58032   8.473  11.734   9.088
85398SOL    HW158033   8.541  11.668   9.075
85398SOL    HW258034   8.454  11.731   9.182
85399SOL     OW58035   3.187  11.249  12.197
85399SOL    HW158036   3.136  11.299  12.134
85399SOL    HW258037   3.276  11.284  12.189
85400SOL     OW58038  11.174   2.838   8.821
85400SOL    HW158039  11.251   2.833   8.764
85400SOL    HW258040  11.136   2.750   8.818
85401SOL     OW58041   5.843  10.221  13.375
85401SOL    HW158042   5.816  10.133  13.351
85401SOL    HW258043   5.918  10.239  13.318
85402SOL     OW58044   1.187  14.091  10.330
85402SOL    HW158045   1.149  14.153  10.267
85402SOL    HW258046   1.112  14.060  10.381
85403SOL     OW58047   9.967   1.465   8.928
85403SOL    HW158048  10.009   1.394   8.879
85403SOL    HW258049  10.022   1.542   8.912
85404SOL     OW58050   1.888   2.773   2.046
85404SOL    HW158051   1.835   2.846   2.014
85404SOL    HW258052   1.966   2.775   1.991
85405SOL     OW58053  13.468  11.536   3.980
85405SOL    HW158054  13.545  11.584   3.949
85405SOL    HW258055  13.484  11.524   4.074
85406SOL     OW58056   0.509  10.440  10.272
85406SOL    HW158057   0.588  10.402  10.232
85406SOL    HW258058   0.486  10.379  10.342
85407SOL     OW58059  14.546  12.559  13.979
85407SOL    HW158060  14.452  12.565  13.999
85407SOL    HW258061  14.571  12.472  14.008
85408SOL     OW58062   1.703  10.362  11.454
85408SOL    HW158063   1.765  10.298  11.419
85408SOL    HW258064   1.637  10.371  11.385
85409SOL     OW58065   5.992   8.748   5.736
85409SOL    HW158066   6.060   8.733   5.670
85409SOL    HW258067   5.941   8.822   5.702
85410SOL     OW58068  12.480   9.217   8.323
85410SOL    HW158069  12.484   9.188   8.232
85410SOL    HW258070  12.408   9.280   8.326
85411SOL     OW58071   6.914   1.353   0.135
85411SOL    HW158072   6.904   1.285   0.202
85411SOL    HW258073   6.972   1.314   0.070
85412SOL     OW58074   6.304   0.392  13.530
85412SOL    HW158075   6.250   0.341  13.470
85412SOL    HW258076   6.391   0.352  13.524
85413SOL     OW58077  10.432  14.587   3.857
85413SOL    HW158078  10.481  14.643   3.797
85413SOL    HW258079  10.351  14.566   3.810
85414SOL     OW58080   8.891   8.567   6.687
85414SOL    HW158081   8.826   8.500   6.669
85414SOL    HW258082   8.857   8.646   6.645
85415SOL     OW58083   3.357   3.061   6.430
85415SOL    HW158084   3.352   3.043   6.336
85415SOL    HW258085   3.392   2.981   6.469
85416SOL     OW58086  12.341   5.927  13.312
85416SOL    HW158087  12.322   5.861  13.245
85416SOL    HW258088  12.298   5.894  13.390
85417SOL     OW58089   5.894  10.077  14.720
85417SOL    HW158090   5.908  10.171  14.709
85417SOL    HW258091   5.906  10.061  14.813
85418SOL     OW58092  11.078   5.984  14.630
85418SOL    HW158093  11.140   5.930  14.679
85418SOL    HW258094  10.994   5.940  14.639
85419SOL     OW58095  14.728   6.909   7.745
85419SOL    HW158096  14.785   6.864   7.807
85419SOL    HW258097  14.650   6.853   7.740
85420SOL     OW58098   1.132  13.383   9.993
85420SOL    HW158099   1.091  13.370  10.079
85420SOL    HW258100   1.215  13.335   9.999
85421SOL     OW58101   1.705   3.643  10.978
85421SOL    HW158102   1.729   3.589  11.054
85421SOL    HW258103   1.760   3.610  10.907
85422SOL     OW58104   2.745   5.745  14.721
85422SOL    HW158105   2.731   5.694  14.640
85422SOL    HW258106   2.657   5.773  14.746
85423SOL     OW58107  14.509  14.635  13.859
85423SOL    HW158108  14.441  14.582  13.819
85423SOL    HW258109  14.547  14.579  13.927
85424SOL     OW58110   3.048   1.944   1.184
85424SOL    HW158111   2.967   1.903   1.214
85424SOL    HW258112   3.024   2.035   1.166
85425SOL     OW58113  13.147   0.655   1.510
85425SOL    HW158114  13.127   0.733   1.562
85425SOL    HW258115  13.213   0.684   1.448
85426SOL     OW58116  10.878   6.173   8.441
85426SOL    HW158117  10.830   6.106   8.490
85426SOL    HW258118  10.945   6.202   8.502
85427SOL     OW58119   3.096  13.674   7.493
85427SOL    HW158120   3.127  13.599   7.444
85427SOL    HW258121   3.004  13.682   7.470
85428SOL     OW58122   1.434   7.897   4.061
85428SOL    HW158123   1.394   7.814   4.087
85428SOL    HW258124   1.489   7.874   3.986
85429SOL     OW58125   5.661   1.376   2.221
85429SOL    HW158126   5.677   1.307   2.285
85429SOL    HW258127   5.651   1.330   2.138
85430SOL     OW58128  10.103   2.533  10.656
85430SOL    HW158129  10.088   2.476  10.732
85430SOL    HW258130  10.104   2.621  10.693
85431SOL     OW58131   0.245  14.807  12.958
85431SOL    HW158132   0.162  14.807  13.005
85431SOL    HW258133   0.221  14.828  12.868
85432SOL     OW58134   7.441   4.720  10.199
85432SOL    HW158135   7.369   4.779  10.223
85432SOL    HW258136   7.498   4.774  10.144
85433SOL     OW58137   9.622   8.684   8.835
85433SOL    HW158138   9.704   8.684   8.885
85433SOL    HW258139   9.569   8.752   8.876
85434SOL     OW58140  12.674   2.759  14.046
85434SOL    HW158141  12.638   2.818  14.113
85434SOL    HW258142  12.632   2.675  14.065
85435SOL     OW58143   3.280   6.508  11.461
85435SOL    HW158144   3.323   6.574  11.515
85435SOL    HW258145   3.206   6.555  11.421
85436SOL     OW58146  13.790   1.883  10.348
85436SOL    HW158147  13.813   1.850  10.261
85436SOL    HW258148  13.765   1.974  10.333
85437SOL     OW58149   2.355   1.812   2.829
85437SOL    HW158150   2.335   1.901   2.857
85437SOL    HW258151   2.441   1.819   2.787
85438SOL     OW58152  14.278   1.986   6.876
85438SOL    HW158153  14.328   2.023   6.802
85438SOL    HW258154  14.345   1.945   6.931
85439SOL     OW58155   6.033  12.518  10.066
85439SOL    HW158156   6.112  12.465  10.050
85439SOL    HW258157   6.066  12.607  10.079
85440SOL     OW58158  11.844   0.236  12.055
85440SOL    HW158159  11.791   0.178  12.000
85440SOL    HW258160  11.932   0.230  12.017
85441SOL     OW58161   3.603   6.256   9.168
85441SOL    HW158162   3.658   6.335   9.175
85441SOL    HW258163   3.532   6.282   9.110
85442SOL     OW58164   8.533   7.281   7.005
85442SOL    HW158165   8.561   7.354   7.059
85442SOL    HW258166   8.578   7.205   7.043
85443SOL     OW58167   2.495  13.775   0.036
85443SOL    HW158168   2.502  13.718  14.835
85443SOL    HW258169   2.439  13.727   0.096
85444SOL     OW58170   1.130   0.100   8.483
85444SOL    HW158171   1.141   0.110   8.578
85444SOL    HW258172   1.036   0.083   8.472
85445SOL     OW58173   0.804   4.759   3.327
85445SOL    HW158174   0.735   4.796   3.381
85445SOL    HW258175   0.761   4.736   3.244
85446SOL     OW58176   5.330   9.347   2.829
85446SOL    HW158177   5.388   9.368   2.902
85446SOL    HW258178   5.293   9.262   2.851
85447SOL     OW58179  12.764  12.489  10.732
85447SOL    HW158180  12.800  12.401  10.736
85447SOL    HW258181  12.807  12.530  10.656
85448SOL     OW58182   1.378   4.858  13.640
85448SOL    HW158183   1.350   4.944  13.672
85448SOL    HW258184   1.443   4.829  13.703
85449SOL     OW58185  11.556   9.458   6.149
85449SOL    HW158186  11.649   9.478   6.136
85449SOL    HW258187  11.521   9.448   6.061
85450SOL     OW58188   0.104   9.150   9.834
85450SOL    HW158189   0.027   9.151   9.891
85450SOL    HW258190   0.178   9.145   9.894
85451SOL     OW58191   2.328   0.199   7.648
85451SOL    HW158192   2.311   0.105   7.656
85451SOL    HW258193   2.342   0.213   7.554
85452SOL     OW58194   6.354  10.203   5.948
85452SOL    HW158195   6.327  10.269   6.011
85452SOL    HW258196   6.289  10.133   5.958
85453SOL     OW58197   6.139  12.900  13.667
85453SOL    HW158198   6.209  12.934  13.722
85453SOL    HW258199   6.113  12.818  13.710
85454SOL     OW58200   7.448   8.346   3.436
85454SOL    HW158201   7.419   8.436   3.452
85454SOL    HW258202   7.380   8.292   3.476
85455SOL     OW58203   7.117  10.354   9.669
85455SOL    HW158204   7.023  10.339   9.662
85455SOL    HW258205   7.133  10.365   9.763
85456SOL     OW58206  13.399   0.699  10.556
85456SOL    HW158207  13.413   0.739  10.470
85456SOL    HW258208  13.389   0.606  10.537
85457SOL     OW58209   9.331   4.145   5.236
85457SOL    HW158210   9.249   4.170   5.193
85457SOL    HW258211   9.304   4.108   5.319
85458SOL     OW58212  14.691   1.840   4.991
85458SOL    HW158213  14.748   1.857   4.915
85458SOL    HW258214  14.730   1.892   5.062
85459SOL     OW58215  10.166   0.118   1.010
85459SOL    HW158216  10.072   0.116   1.026
85459SOL    HW258217  10.178   0.073   0.927
85460SOL     OW58218  13.391   4.820  12.779
85460SOL    HW158219  13.402   4.737  12.826
85460SOL    HW258220  13.338   4.798  12.703
85461SOL     OW58221   4.536   9.515   8.554
85461SOL    HW158222   4.481   9.532   8.631
85461SOL    HW258223   4.511   9.427   8.526
85462SOL     OW58224   3.058  13.059  11.181
85462SOL    HW158225   3.070  12.969  11.212
85462SOL    HW258226   3.060  13.112  11.261
85463SOL     OW58227   5.604  12.408   0.340
85463SOL    HW158228   5.578  12.331   0.289
85463SOL    HW258229   5.583  12.385   0.430
85464SOL     OW58230  12.080  12.005  13.587
85464SOL    HW158231  12.009  11.942  13.573
85464SOL    HW258232  12.148  11.979  13.525
85465SOL     OW58233   6.528   5.812   0.110
85465SOL    HW158234   6.438   5.789   0.085
85465SOL    HW258235   6.560   5.736   0.159
85466SOL     OW58236   4.198  10.297  12.613
85466SOL    HW158237   4.236  10.360  12.552
85466SOL    HW258238   4.272  10.242  12.638
85467SOL     OW58239  10.418   6.990   9.031
85467SOL    HW158240  10.334   6.956   9.062
85467SOL    HW258241  10.480   6.919   9.046
85468SOL     OW58242   6.555   7.053   6.242
85468SOL    HW158243   6.549   7.085   6.152
85468SOL    HW258244   6.469   7.070   6.280
85469SOL     OW58245   0.642   3.975  12.783
85469SOL    HW158246   0.713   3.919  12.751
85469SOL    HW258247   0.610   3.930  12.861
85470SOL     OW58248   5.821   8.880   4.516
85470SOL    HW158249   5.771   8.822   4.573
85470SOL    HW258250   5.911   8.849   4.524
85471SOL     OW58251   2.904   3.050   8.946
85471SOL    HW158252   2.963   3.120   8.972
85471SOL    HW258253   2.817   3.079   8.975
85472SOL     OW58254  12.622   0.669  14.534
85472SOL    HW158255  12.556   0.645  14.468
85472SOL    HW258256  12.602   0.760  14.556
85473SOL     OW58257   1.439   0.995   2.982
85473SOL    HW158258   1.486   1.072   2.948
85473SOL    HW258259   1.445   1.004   3.077
85474SOL     OW58260   6.896   2.227   9.697
85474SOL    HW158261   6.969   2.259   9.752
85474SOL    HW258262   6.847   2.306   9.676
85475SOL     OW58263   6.957   5.481   5.050
85475SOL    HW158264   6.996   5.564   5.078
85475SOL    HW258265   7.025   5.416   5.064
85476SOL     OW58266   9.917   2.755   3.768
85476SOL    HW158267   9.885   2.815   3.702
85476SOL    HW258268   9.972   2.809   3.825
85477SOL     OW58269  12.510   4.500   5.534
85477SOL    HW158270  12.494   4.491   5.440
85477SOL    HW258271  12.535   4.413   5.563
85478SOL     OW58272  12.410  11.455   5.608
85478SOL    HW158273  12.429  11.486   5.520
85478SOL    HW258274  12.419  11.532   5.664
85479SOL     OW58275   1.412  10.953   7.015
85479SOL    HW158276   1.456  10.872   6.987
85479SOL    HW258277   1.367  10.983   6.936
85480SOL     OW58278   8.166   7.127   1.749
85480SOL    HW158279   8.139   7.213   1.780
85480SOL    HW258280   8.151   7.069   1.824
85481SOL     OW58281   3.699   3.367  14.443
85481SOL    HW158282   3.689   3.399  14.533
85481SOL    HW258283   3.714   3.273  14.452
85482SOL     OW58284   6.642  14.598   4.410
85482SOL    HW158285   6.691  14.649   4.474
85482SOL    HW258286   6.697  14.521   4.393
85483SOL     OW58287   0.610   8.206  10.251
85483SOL    HW158288   0.596   8.121  10.208
85483SOL    HW258289   0.704   8.212  10.262
85484SOL     OW58290   6.445   0.071   2.315
85484SOL    HW158291   6.358   0.101   2.287
85484SOL    HW258292   6.454  14.861   2.275
85485SOL     OW58293   3.836   0.406   4.137
85485SOL    HW158294   3.816   0.313   4.142
85485SOL    HW258295   3.932   0.410   4.136
85486SOL     OW58296  10.190  11.396   9.803
85486SOL    HW158297  10.095  11.384   9.813
85486SOL    HW258298  10.229  11.334   9.865
85487SOL     OW58299   9.548  14.646   5.065
85487SOL    HW158300   9.633  14.614   5.094
85487SOL    HW258301   9.506  14.570   5.025
85488SOL     OW58302   4.458   9.238   5.207
85488SOL    HW158303   4.532   9.186   5.239
85488SOL    HW258304   4.426   9.189   5.131
85489SOL     OW58305   4.647   3.474   0.689
85489SOL    HW158306   4.674   3.492   0.599
85489SOL    HW258307   4.614   3.384   0.686
85490SOL     OW58308   9.822  14.852   6.995
85490SOL    HW158309   9.754  14.799   6.953
85490SOL    HW258310   9.782   0.062   7.006
85491SOL     OW58311   7.658   3.930  13.879
85491SOL    HW158312   7.617   3.934  13.793
85491SOL    HW258313   7.626   4.008  13.924
85492SOL     OW58314   4.550  14.431   4.734
85492SOL    HW158315   4.629  14.422   4.787
85492SOL    HW258316   4.565  14.374   4.658
85493SOL     OW58317   2.959   8.866   1.604
85493SOL    HW158318   2.869   8.839   1.623
85493SOL    HW258319   2.996   8.888   1.689
85494SOL     OW58320  13.959   3.221   5.124
85494SOL    HW158321  13.885   3.175   5.084
85494SOL    HW258322  14.024   3.152   5.141
85495SOL     OW58323   8.582  14.672  13.619
85495SOL    HW158324   8.617  14.733  13.554
85495SOL    HW258325   8.659  14.641  13.667
85496SOL     OW58326   9.574   1.942   0.740
85496SOL    HW158327   9.666   1.970   0.741
85496SOL    HW258328   9.534   1.995   0.671
85497SOL     OW58329   1.523  14.741   5.197
85497SOL    HW158330   1.452  14.803   5.180
85497SOL    HW258331   1.566  14.775   5.276
85498SOL     OW58332   7.382   1.958   8.232
85498SOL    HW158333   7.367   1.889   8.168
85498SOL    HW258334   7.400   2.036   8.180
85499SOL     OW58335   3.798  10.793   0.889
85499SOL    HW158336   3.703  10.780   0.885
85499SOL    HW258337   3.833  10.720   0.838
85500SOL     OW58338  12.287   2.674   8.069
85500SOL    HW158339  12.373   2.642   8.093
85500SOL    HW258340  12.304   2.755   8.020
85501SOL     OW58341  13.697  14.608  11.032
85501SOL    HW158342  13.681  14.635  11.123
85501SOL    HW258343  13.780  14.651  11.010
85502SOL     OW58344   0.747   9.890  10.003
85502SOL    HW158345   0.700   9.809  10.026
85502SOL    HW258346   0.789   9.869   9.920
85503SOL     OW58347  10.454   3.122  10.735
85503SOL    HW158348  10.511   3.123  10.659
85503SOL    HW258349  10.395   3.196  10.723
85504SOL     OW58350   6.772   3.004   9.476
85504SOL    HW158351   6.681   3.021   9.451
85504SOL    HW258352   6.790   2.916   9.441
85505SOL     OW58353   9.974   1.110   1.418
85505SOL    HW158354   9.924   1.191   1.407
85505SOL    HW258355  10.031   1.127   1.493
85506SOL     OW58356   0.786  11.970   8.317
85506SOL    HW158357   0.713  11.934   8.368
85506SOL    HW258358   0.853  11.901   8.320
85507SOL     OW58359   5.399   9.918  10.475
85507SOL    HW158360   5.443   9.855  10.532
85507SOL    HW258361   5.468   9.979  10.448
85508SOL     OW58362   2.570   8.374   6.008
85508SOL    HW158363   2.554   8.347   6.099
85508SOL    HW258364   2.567   8.292   5.959
85509SOL     OW58365   1.730   5.112  13.782
85509SOL    HW158366   1.761   5.083  13.868
85509SOL    HW258367   1.809   5.139  13.736
85510SOL     OW58368   6.389   2.468   4.283
85510SOL    HW158369   6.359   2.388   4.241
85510SOL    HW258370   6.384   2.535   4.215
85511SOL     OW58371  11.596   0.473   7.559
85511SOL    HW158372  11.518   0.522   7.533
85511SOL    HW258373  11.621   0.424   7.481
85512SOL     OW58374   8.672   6.555   2.652
85512SOL    HW158375   8.761   6.566   2.617
85512SOL    HW258376   8.672   6.468   2.691
85513SOL     OW58377   3.894   6.363  11.569
85513SOL    HW158378   3.867   6.386  11.658
85513SOL    HW258379   3.828   6.300  11.539
85514SOL     OW58380  10.296   4.132   4.235
85514SOL    HW158381  10.226   4.115   4.297
85514SOL    HW258382  10.277   4.076   4.160
85515SOL     OW58383   6.354   0.870   8.624
85515SOL    HW158384   6.264   0.838   8.628
85515SOL    HW258385   6.367   0.918   8.705
85516SOL     OW58386  13.613   8.812   2.599
85516SOL    HW158387  13.678   8.873   2.565
85516SOL    HW258388  13.534   8.865   2.610
85517SOL     OW58389  10.028  10.403   3.991
85517SOL    HW158390  10.022  10.485   3.944
85517SOL    HW258391   9.963  10.411   4.061
85518SOL     OW58392  12.932   9.538  13.239
85518SOL    HW158393  12.875   9.612  13.260
85518SOL    HW258394  12.967   9.560  13.152
85519SOL     OW58395   0.132   9.492  12.560
85519SOL    HW158396   0.100   9.419  12.613
85519SOL    HW258397   0.209   9.456  12.516
85520SOL     OW58398   7.894   5.513   6.162
85520SOL    HW158399   7.987   5.492   6.168
85520SOL    HW258400   7.849   5.435   6.194
85521SOL     OW58401  10.222  10.035   2.801
85521SOL    HW158402  10.313  10.059   2.821
85521SOL    HW258403  10.221  10.021   2.706
85522SOL     OW58404   0.928   2.376   3.079
85522SOL    HW158405   0.842   2.410   3.106
85522SOL    HW258406   0.930   2.287   3.115
85523SOL     OW58407   7.878   1.705   0.752
85523SOL    HW158408   7.960   1.720   0.799
85523SOL    HW258409   7.905   1.659   0.672
85524SOL     OW58410   9.683   5.881   7.305
85524SOL    HW158411   9.707   5.896   7.397
85524SOL    HW258412   9.624   5.954   7.284
85525SOL     OW58413  12.856   4.960   2.738
85525SOL    HW158414  12.882   5.014   2.663
85525SOL    HW258415  12.792   5.013   2.785
85526SOL     OW58416  13.954   8.380   3.913
85526SOL    HW158417  14.005   8.310   3.871
85526SOL    HW258418  14.001   8.460   3.891
85527SOL     OW58419   4.721   9.488   7.970
85527SOL    HW158420   4.727   9.435   8.050
85527SOL    HW258421   4.689   9.427   7.903
85528SOL     OW58422  10.582   7.034   6.453
85528SOL    HW158423  10.650   6.991   6.402
85528SOL    HW258424  10.500   7.011   6.409
85529SOL     OW58425   0.194   3.680   3.946
85529SOL    HW158426   0.216   3.766   3.983
85529SOL    HW258427   0.205   3.619   4.019
85530SOL     OW58428   4.397   7.585  11.810
85530SOL    HW158429   4.478   7.631  11.791
85530SOL    HW258430   4.328   7.650  11.794
85531SOL     OW58431   5.032   0.246  11.887
85531SOL    HW158432   5.081   0.187  11.829
85531SOL    HW258433   5.046   0.333  11.851
85532SOL     OW58434   3.059   4.404  12.160
85532SOL    HW158435   3.023   4.332  12.110
85532SOL    HW258436   2.986   4.437  12.213
85533SOL     OW58437  12.123   3.789   7.550
85533SOL    HW158438  12.036   3.827   7.537
85533SOL    HW258439  12.182   3.864   7.546
85534SOL     OW58440   7.736   0.608  12.959
85534SOL    HW158441   7.740   0.604  13.054
85534SOL    HW258442   7.754   0.519  12.930
85535SOL     OW58443   1.895   9.986  14.615
85535SOL    HW158444   1.963  10.050  14.637
85535SOL    HW258445   1.914   9.961  14.524
85536SOL     OW58446   2.330   4.383  13.674
85536SOL    HW158447   2.395   4.331  13.721
85536SOL    HW258448   2.279   4.425  13.744
85537SOL     OW58449   9.383   1.447   3.667
85537SOL    HW158450   9.330   1.387   3.615
85537SOL    HW258451   9.376   1.414   3.756
85538SOL     OW58452   2.148   6.366  10.473
85538SOL    HW158453   2.108   6.437  10.422
85538SOL    HW258454   2.080   6.342  10.536
85539SOL     OW58455  13.192  14.805  13.552
85539SOL    HW158456  13.183  14.724  13.501
85539SOL    HW258457  13.285  14.827  13.545
85540SOL     OW58458   8.696   7.240   8.938
85540SOL    HW158459   8.670   7.149   8.949
85540SOL    HW258460   8.707   7.273   9.027
85541SOL     OW58461  11.527   9.901   6.628
85541SOL    HW158462  11.478   9.978   6.658
85541SOL    HW258463  11.608   9.904   6.678
85542SOL     OW58464   7.554   8.315   1.254
85542SOL    HW158465   7.635   8.265   1.246
85542SOL    HW258466   7.526   8.330   1.164
85543SOL     OW58467   6.776  10.021   8.889
85543SOL    HW158468   6.864  10.009   8.855
85543SOL    HW258469   6.718   9.990   8.819
85544SOL     OW58470  11.504   9.739  10.599
85544SOL    HW158471  11.410   9.752  10.589
85544SOL    HW258472  11.540   9.828  10.607
85545SOL     OW58473   8.980  13.670   9.080
85545SOL    HW158474   8.990  13.676   8.985
85545SOL    HW258475   8.889  13.643   9.093
85546SOL     OW58476   8.876  13.303   5.079
85546SOL    HW158477   8.887  13.286   4.985
85546SOL    HW258478   8.781  13.317   5.089
85547SOL     OW58479   9.791   0.808   3.219
85547SOL    HW158480   9.865   0.826   3.278
85547SOL    HW258481   9.758   0.894   3.195
85548SOL     OW58482   1.698   3.905  14.280
85548SOL    HW158483   1.650   3.895  14.362
85548SOL    HW258484   1.651   3.974  14.232
85549SOL     OW58485  11.350   8.400  11.661
85549SOL    HW158486  11.347   8.457  11.584
85549SOL    HW258487  11.349   8.311  11.625
85550SOL     OW58488  11.977   8.187  11.370
85550SOL    HW158489  12.014   8.100  11.358
85550SOL    HW258490  12.019   8.220  11.449
85551SOL     OW58491   7.224   4.048   7.590
85551SOL    HW158492   7.302   4.077   7.542
85551SOL    HW258493   7.222   3.953   7.579
85552SOL     OW58494   1.864   9.389  12.246
85552SOL    HW158495   1.934   9.333  12.210
85552SOL    HW258496   1.843   9.349  12.331
85553SOL     OW58497   9.194   6.125   6.828
85553SOL    HW158498   9.121   6.109   6.887
85553SOL    HW258499   9.255   6.179   6.878
85554SOL     OW58500  14.242  14.434   2.227
85554SOL    HW158501  14.287  14.362   2.185
85554SOL    HW258502  14.150  14.423   2.204
85555SOL     OW58503   8.698   6.327   3.790
85555SOL    HW158504   8.677   6.380   3.713
85555SOL    HW258505   8.792   6.311   3.783
85556SOL     OW58506   0.749   9.017   7.143
85556SOL    HW158507   0.699   8.989   7.220
85556SOL    HW258508   0.840   9.017   7.172
85557SOL     OW58509   2.817   0.500   5.334
85557SOL    HW158510   2.797   0.447   5.411
85557SOL    HW258511   2.878   0.566   5.366
85558SOL     OW58512  11.136  13.182  13.674
85558SOL    HW158513  11.090  13.218  13.599
85558SOL    HW258514  11.142  13.088  13.656
85559SOL     OW58515   2.455   4.257  13.231
85559SOL    HW158516   2.539   4.262  13.277
85559SOL    HW258517   2.396   4.308  13.286
85560SOL     OW58518   1.602  12.339   4.272
85560SOL    HW158519   1.538  12.319   4.340
85560SOL    HW258520   1.569  12.292   4.195
85561SOL     OW58521   1.282  14.050   8.367
85561SOL    HW158522   1.352  14.073   8.428
85561SOL    HW258523   1.285  14.119   8.300
85562SOL     OW58524  10.077   8.136   0.163
85562SOL    HW158525  10.123   8.159   0.083
85562SOL    HW258526  10.121   8.057   0.194
85563SOL     OW58527  12.404  13.263   6.669
85563SOL    HW158528  12.479  13.276   6.611
85563SOL    HW258529  12.410  13.171   6.696
85564SOL     OW58530   0.837   6.213   9.126
85564SOL    HW158531   0.866   6.133   9.170
85564SOL    HW258532   0.765   6.244   9.180
85565SOL     OW58533  10.428   9.628   0.209
85565SOL    HW158534  10.358   9.692   0.199
85565SOL    HW258535  10.394   9.547   0.171
85566SOL     OW58536   0.637   3.541   9.788
85566SOL    HW158537   0.671   3.506   9.705
85566SOL    HW258538   0.585   3.469   9.824
85567SOL     OW58539   3.442   3.519   9.283
85567SOL    HW158540   3.359   3.486   9.317
85567SOL    HW258541   3.473   3.449   9.225
85568SOL     OW58542   5.693   1.540   8.663
85568SOL    HW158543   5.762   1.556   8.599
85568SOL    HW258544   5.622   1.501   8.613
85569SOL     OW58545   2.867   7.894   7.912
85569SOL    HW158546   2.947   7.894   7.860
85569SOL    HW258547   2.864   7.982   7.951
85570SOL     OW58548   3.614  10.981   2.192
85570SOL    HW158549   3.651  10.985   2.281
85570SOL    HW258550   3.578  11.068   2.177
85571SOL     OW58551   1.414  10.383   0.136
85571SOL    HW158552   1.463  10.304   0.115
85571SOL    HW258553   1.358  10.397   0.060
85572SOL     OW58554   0.967   6.096   2.743
85572SOL    HW158555   0.990   6.169   2.801
85572SOL    HW258556   0.914   6.136   2.674
85573SOL     OW58557   9.839   1.989   0.642
85573SOL    HW158558   9.885   2.072   0.654
85573SOL    HW258559   9.905   1.931   0.602
85574SOL     OW58560   7.820  11.235   9.500
85574SOL    HW158561   7.778  11.260   9.418
85574SOL    HW258562   7.911  11.263   9.490
85575SOL     OW58563   0.938   6.776  12.794
85575SOL    HW158564   0.984   6.806  12.872
85575SOL    HW258565   0.991   6.704  12.760
85576SOL     OW58566   0.158   3.605   0.073
85576SOL    HW158567   0.157   3.681   0.015
85576SOL    HW258568   0.078   3.613   0.124
85577SOL     OW58569   5.784   0.873   3.731
85577SOL    HW158570   5.779   0.954   3.781
85577SOL    HW258571   5.720   0.815   3.772
85578SOL     OW58572  12.459  12.748   3.011
85578SOL    HW158573  12.392  12.681   2.999
85578SOL    HW258574  12.447  12.780   3.100
85579SOL     OW58575   4.731   5.890  10.200
85579SOL    HW158576   4.779   5.826  10.254
85579SOL    HW258577   4.792   5.962  10.189
85580SOL     OW58578   2.384  11.133   1.633
85580SOL    HW158579   2.421  11.208   1.680
85580SOL    HW258580   2.416  11.143   1.543
85581SOL     OW58581   4.554  10.201  10.618
85581SOL    HW158582   4.570  10.241  10.532
85581SOL    HW258583   4.566  10.273  10.680
85582SOL     OW58584   9.618  12.348   4.862
85582SOL    HW158585   9.571  12.269   4.889
85582SOL    HW258586   9.622  12.402   4.941
85583SOL     OW58587   3.722   7.574  13.847
85583SOL    HW158588   3.817   7.578  13.845
85583SOL    HW258589   3.699   7.512  13.777
85584SOL     OW58590   0.576   4.183  14.721
85584SOL    HW158591   0.499   4.237  14.737
85584SOL    HW258592   0.575   4.167  14.627
85585SOL     OW58593   7.915   9.073   2.387
85585SOL    HW158594   7.885   9.145   2.332
85585SOL    HW258595   8.009   9.086   2.395
85586SOL     OW58596   5.553   0.526  10.226
85586SOL    HW158597   5.527   0.528  10.318
85586SOL    HW258598   5.500   0.456  10.188
85587SOL     OW58599   9.239   4.158  10.637
85587SOL    HW158600   9.161   4.148  10.691
85587SOL    HW258601   9.263   4.250  10.647
85588SOL     OW58602  12.057   7.686  10.656
85588SOL    HW158603  12.016   7.744  10.719
85588SOL    HW258604  12.065   7.739  10.576
85589SOL     OW58605   0.451   9.646  14.374
85589SOL    HW158606   0.492   9.596  14.444
85589SOL    HW258607   0.423   9.580  14.311
85590SOL     OW58608   5.318   0.229   2.444
85590SOL    HW158609   5.247   0.292   2.432
85590SOL    HW258610   5.358   0.253   2.527
85591SOL     OW58611  10.154  11.739   6.042
85591SOL    HW158612  10.135  11.756   6.134
85591SOL    HW258613  10.245  11.710   6.041
85592SOL     OW58614  10.833  11.143   2.296
85592SOL    HW158615  10.786  11.063   2.319
85592SOL    HW258616  10.919  11.133   2.338
85593SOL     OW58617  12.218   1.969   8.629
85593SOL    HW158618  12.250   1.921   8.552
85593SOL    HW258619  12.127   1.942   8.637
85594SOL     OW58620   6.636  10.503  10.128
85594SOL    HW158621   6.544  10.516  10.149
85594SOL    HW258622   6.680  10.499  10.213
85595SOL     OW58623  13.444  12.688   3.527
85595SOL    HW158624  13.529  12.688   3.483
85595SOL    HW258625  13.418  12.780   3.531
85596SOL     OW58626  14.277  12.935   7.500
85596SOL    HW158627  14.192  12.910   7.465
85596SOL    HW258628  14.317  12.986   7.430
85597SOL     OW58629   9.837   8.961   8.030
85597SOL    HW158630   9.836   8.940   8.124
85597SOL    HW258631   9.913   8.915   7.996
85598SOL     OW58632   6.901   6.815   0.271
85598SOL    HW158633   6.827   6.755   0.264
85598SOL    HW258634   6.965   6.782   0.208
85599SOL     OW58635   4.853   3.197  11.758
85599SOL    HW158636   4.888   3.155  11.836
85599SOL    HW258637   4.929   3.236  11.715
85600SOL     OW58638  13.739   9.322  11.936
85600SOL    HW158639  13.724   9.235  11.897
85600SOL    HW258640  13.750   9.380  11.861
85601SOL     OW58641  10.157   5.070   5.063
85601SOL    HW158642  10.135   5.160   5.086
85601SOL    HW258643  10.142   5.020   5.143
85602SOL     OW58644  13.324   4.094   5.618
85602SOL    HW158645  13.401   4.040   5.604
85602SOL    HW258646  13.260   4.064   5.553
85603SOL     OW58647  13.501   7.253   6.334
85603SOL    HW158648  13.449   7.325   6.368
85603SOL    HW258649  13.575   7.245   6.395
85604SOL     OW58650   8.369   8.085   9.955
85604SOL    HW158651   8.387   8.042   9.871
85604SOL    HW258652   8.434   8.049  10.015
85605SOL     OW58653   8.492   7.697  10.792
85605SOL    HW158654   8.536   7.743  10.720
85605SOL    HW258655   8.402   7.728  10.789
85606SOL     OW58656   5.423   7.133   5.248
85606SOL    HW158657   5.425   7.135   5.344
85606SOL    HW258658   5.515   7.136   5.222
85607SOL     OW58659  11.277  14.240  11.713
85607SOL    HW158660  11.257  14.326  11.677
85607SOL    HW258661  11.224  14.179  11.662
85608SOL     OW58662   0.149   4.173  12.852
85608SOL    HW158663   0.204   4.102  12.819
85608SOL    HW258664   0.123   4.221  12.773
85609SOL     OW58665  10.271   8.453   3.922
85609SOL    HW158666  10.203   8.431   3.858
85609SOL    HW258667  10.223   8.494   3.994
85610SOL     OW58668   9.214   3.848   6.205
85610SOL    HW158669   9.243   3.939   6.213
85610SOL    HW258670   9.128   3.847   6.248
85611SOL     OW58671  13.695   8.215   7.631
85611SOL    HW158672  13.778   8.194   7.589
85611SOL    HW258673  13.691   8.155   7.706
85612SOL     OW58674   9.334   3.655   4.077
85612SOL    HW158675   9.273   3.675   4.148
85612SOL    HW258676   9.406   3.607   4.119
85613SOL     OW58677   4.356   2.926   6.889
85613SOL    HW158678   4.299   2.884   6.953
85613SOL    HW258679   4.416   2.980   6.940
85614SOL     OW58680   0.194   3.005   8.723
85614SOL    HW158681   0.225   3.002   8.633
85614SOL    HW258682   0.112   2.955   8.723
85615SOL     OW58683  13.894   9.162  13.003
85615SOL    HW158684  13.922   9.071  13.000
85615SOL    HW258685  13.943   9.205  12.933
85616SOL     OW58686  14.837  14.736   1.571
85616SOL    HW158687  14.767  14.684   1.612
85616SOL    HW258688   0.026  14.672   1.544
85617SOL     OW58689   9.022  13.246   1.708
85617SOL    HW158690   9.036  13.176   1.772
85617SOL    HW258691   8.998  13.322   1.761
85618SOL     OW58692   3.929  10.562  14.780
85618SOL    HW158693   4.016  10.522  14.787
85618SOL    HW258694   3.946  10.655  14.764
85619SOL     OW58695  12.412  10.517   0.506
85619SOL    HW158696  12.439  10.534   0.416
85619SOL    HW258697  12.393  10.423   0.507
85620SOL     OW58698   4.461  12.093   9.964
85620SOL    HW158699   4.412  12.012   9.951
85620SOL    HW258700   4.395  12.158   9.985
85621SOL     OW58701   6.110  14.086  14.710
85621SOL    HW158702   6.125  14.042  14.793
85621SOL    HW258703   6.032  14.140  14.726
85622SOL     OW58704  10.519   7.515   0.594
85622SOL    HW158705  10.460   7.442   0.575
85622SOL    HW258706  10.590   7.475   0.644
85623SOL     OW58707   2.575   3.153   6.729
85623SOL    HW158708   2.532   3.174   6.812
85623SOL    HW258709   2.578   3.058   6.727
85624SOL     OW58710  11.630   9.580   6.817
85624SOL    HW158711  11.704   9.585   6.757
85624SOL    HW258712  11.560   9.540   6.765
85625SOL     OW58713   5.349  13.203  12.956
85625SOL    HW158714   5.271  13.150  12.938
85625SOL    HW258715   5.353  13.264  12.882
85626SOL     OW58716   5.825   1.261   8.114
85626SOL    HW158717   5.869   1.190   8.160
85626SOL    HW258718   5.885   1.286   8.044
85627SOL     OW58719   4.962   7.168  10.995
85627SOL    HW158720   4.988   7.078  11.015
85627SOL    HW258721   5.003   7.221  11.063
85628SOL     OW58722   9.370   4.309   1.324
85628SOL    HW158723   9.378   4.219   1.356
85628SOL    HW258724   9.276   4.321   1.311
85629SOL     OW58725   3.337   4.570   1.748
85629SOL    HW158726   3.343   4.600   1.839
85629SOL    HW258727   3.423   4.532   1.730
85630SOL     OW58728  13.860   0.552   8.194
85630SOL    HW158729  13.856   0.564   8.099
85630SOL    HW258730  13.861   0.641   8.230
85631SOL     OW58731  14.774   4.457   2.108
85631SOL    HW158732  14.806   4.376   2.148
85631SOL    HW258733  14.768   4.438   2.015
85632SOL     OW58734   5.062   5.552  11.878
85632SOL    HW158735   5.104   5.466  11.870
85632SOL    HW258736   5.038   5.558  11.971
85633SOL     OW58737   3.962  14.516   1.106
85633SOL    HW158738   3.925  14.522   1.018
85633SOL    HW258739   3.886  14.522   1.165
85634SOL     OW58740  12.876   2.267  12.428
85634SOL    HW158741  12.801   2.320  12.401
85634SOL    HW258742  12.932   2.327  12.477
85635SOL     OW58743   1.260   9.592  10.838
85635SOL    HW158744   1.303   9.562  10.757
85635SOL    HW258745   1.328   9.582  10.905
85636SOL     OW58746   4.712  12.780   0.559
85636SOL    HW158747   4.735  12.866   0.593
85636SOL    HW258748   4.796  12.737   0.543
85637SOL     OW58749   8.771   7.543  12.150
85637SOL    HW158750   8.686   7.578  12.122
85637SOL    HW258751   8.751   7.495  12.230
85638SOL     OW58752  12.687  13.521  13.175
85638SOL    HW158753  12.648  13.592  13.124
85638SOL    HW258754  12.634  13.517  13.254
85639SOL     OW58755   3.801  11.808  13.265
85639SOL    HW158756   3.766  11.731  13.310
85639SOL    HW258757   3.837  11.862  13.335
85640SOL     OW58758   9.622   5.322  14.003
85640SOL    HW158759   9.653   5.232  13.994
85640SOL    HW258760   9.646   5.364  13.920
85641SOL     OW58761   2.829   3.955  12.871
85641SOL    HW158762   2.747   3.994  12.838
85641SOL    HW258763   2.888   4.030  12.880
85642SOL     OW58764  11.514   4.003  12.571
85642SOL    HW158765  11.587   4.054  12.606
85642SOL    HW258766  11.479   3.956  12.647
85643SOL     OW58767  11.775   2.910   4.666
85643SOL    HW158768  11.773   2.990   4.613
85643SOL    HW258769  11.802   2.939   4.753
85644SOL     OW58770   3.040   2.919  13.347
85644SOL    HW158771   3.042   2.835  13.302
85644SOL    HW258772   3.027   2.896  13.439
85645SOL     OW58773   8.856   5.446   2.102
85645SOL    HW158774   8.881   5.405   2.019
85645SOL    HW258775   8.889   5.385   2.169
85646SOL     OW58776  10.018   2.521  12.658
85646SOL    HW158777   9.926   2.545  12.670
85646SOL    HW258778  10.045   2.484  12.742
85647SOL     OW58779   2.834   6.814   4.661
85647SOL    HW158780   2.826   6.908   4.645
85647SOL    HW258781   2.768   6.775   4.605
85648SOL     OW58782   1.950   4.761   1.230
85648SOL    HW158783   1.859   4.784   1.246
85648SOL    HW258784   1.994   4.777   1.314
85649SOL     OW58785  14.028  14.280  11.900
85649SOL    HW158786  14.081  14.341  11.950
85649SOL    HW258787  14.091  14.219  11.861
85650SOL     OW58788   6.706  13.662   0.078
85650SOL    HW158789   6.788  13.711   0.090
85650SOL    HW258790   6.700  13.647  14.860
85651SOL     OW58791   1.607  13.505   9.731
85651SOL    HW158792   1.596  13.573   9.664
85651SOL    HW258793   1.633  13.553   9.810
85652SOL     OW58794   6.415   5.488  14.793
85652SOL    HW158795   6.355   5.475  14.719
85652SOL    HW258796   6.373   5.557  14.845
85653SOL     OW58797   6.578  13.464  13.414
85653SOL    HW158798   6.485  13.461  13.394
85653SOL    HW258799   6.585  13.435  13.505
85654SOL     OW58800  11.744   5.261   2.577
85654SOL    HW158801  11.821   5.226   2.533
85654SOL    HW258802  11.724   5.196   2.645
85655SOL     OW58803   2.591  11.828  13.194
85655SOL    HW158804   2.661  11.803  13.253
85655SOL    HW258805   2.599  11.767  13.121
85656SOL     OW58806   1.869   0.857   2.156
85656SOL    HW158807   1.799   0.872   2.093
85656SOL    HW258808   1.942   0.826   2.103
85657SOL     OW58809  11.798   2.296  13.571
85657SOL    HW158810  11.852   2.289  13.492
85657SOL    HW258811  11.769   2.387  13.572
85658SOL     OW58812   0.223   8.306  10.278
85658SOL    HW158813   0.203   8.325  10.370
85658SOL    HW258814   0.219   8.211  10.271
85659SOL     OW58815   9.413  11.626   8.031
85659SOL    HW158816   9.432  11.543   7.989
85659SOL    HW258817   9.481  11.685   8.000
85660SOL     OW58818   8.215   8.100   8.899
85660SOL    HW158819   8.127   8.137   8.888
85660SOL    HW258820   8.265   8.137   8.826
85661SOL     OW58821   7.393  10.452   1.563
85661SOL    HW158822   7.360  10.435   1.475
85661SOL    HW258823   7.489  10.450   1.553
85662SOL     OW58824   2.531  12.904   2.663
85662SOL    HW158825   2.517  12.943   2.749
85662SOL    HW258826   2.457  12.934   2.610
85663SOL     OW58827   2.022   7.574  10.267
85663SOL    HW158828   2.051   7.606  10.353
85663SOL    HW258829   2.082   7.615  10.205
85664SOL     OW58830  12.108   2.909   3.309
85664SOL    HW158831  12.203   2.894   3.315
85664SOL    HW258832  12.100   2.997   3.271
85665SOL     OW58833   9.013   5.876   4.036
85665SOL    HW158834   9.045   5.852   3.949
85665SOL    HW258835   8.918   5.882   4.026
85666SOL     OW58836   5.861   9.596  10.775
85666SOL    HW158837   5.876   9.666  10.713
85666SOL    HW258838   5.766   9.581  10.772
85667SOL     OW58839   1.109   3.373  10.870
85667SOL    HW158840   1.163   3.414  10.937
85667SOL    HW258841   1.028   3.350  10.915
85668SOL     OW58842  13.116   7.336   6.942
85668SOL    HW158843  13.098   7.410   6.883
85668SOL    HW258844  13.100   7.259   6.888
85669SOL     OW58845  11.262   0.898  11.935
85669SOL    HW158846  11.202   0.840  11.888
85669SOL    HW258847  11.344   0.850  11.938
85670SOL     OW58848  10.098   3.243  11.565
85670SOL    HW158849  10.070   3.332  11.542
85670SOL    HW258850  10.180   3.255  11.613
85671SOL     OW58851  10.233   3.698   0.469
85671SOL    HW158852  10.315   3.653   0.489
85671SOL    HW258853  10.248   3.788   0.496
85672SOL     OW58854   3.024   1.114   1.265
85672SOL    HW158855   3.070   1.197   1.267
85672SOL    HW258856   3.040   1.080   1.176
85673SOL     OW58857   2.401   1.310   2.259
85673SOL    HW158858   2.387   1.384   2.317
85673SOL    HW258859   2.409   1.349   2.172
85674SOL     OW58860   7.090   0.434   7.618
85674SOL    HW158861   7.089   0.362   7.555
85674SOL    HW258862   6.998   0.448   7.641
85675SOL     OW58863  11.072   7.678  14.614
85675SOL    HW158864  11.089   7.602  14.558
85675SOL    HW258865  11.148   7.734  14.603
85676SOL     OW58866  10.941   9.557   9.290
85676SOL    HW158867  10.857   9.599   9.271
85676SOL    HW258868  10.921   9.487   9.351
85677SOL     OW58869   9.791   3.862   1.928
85677SOL    HW158870   9.808   3.928   1.861
85677SOL    HW258871   9.872   3.854   1.977
85678SOL     OW58872  13.073   3.411   4.568
85678SOL    HW158873  13.037   3.335   4.614
85678SOL    HW258874  13.168   3.401   4.575
85679SOL     OW58875   9.660  13.990   2.129
85679SOL    HW158876   9.609  14.071   2.129
85679SOL    HW258877   9.595  13.922   2.111
85680SOL     OW58878   0.087   1.298  12.109
85680SOL    HW158879   0.155   1.312  12.042
85680SOL    HW258880   0.135   1.299  12.192
85681SOL     OW58881  11.284  13.738  11.065
85681SOL    HW158882  11.353  13.774  11.008
85681SOL    HW258883  11.207  13.792  11.046
85682SOL     OW58884  11.318   2.243   2.878
85682SOL    HW158885  11.294   2.242   2.971
85682SOL    HW258886  11.371   2.322   2.868
85683SOL     OW58887  12.008   2.957   0.505
85683SOL    HW158888  12.027   2.957   0.411
85683SOL    HW258889  11.931   3.013   0.514
85684SOL     OW58890  10.134   5.343   2.534
85684SOL    HW158891  10.073   5.345   2.460
85684SOL    HW258892  10.099   5.407   2.596
85685SOL     OW58893   7.130   7.675   8.828
85685SOL    HW158894   7.120   7.769   8.840
85685SOL    HW258895   7.081   7.636   8.900
85686SOL     OW58896  10.037   4.939   1.960
85686SOL    HW158897   9.994   4.854   1.957
85686SOL    HW258898  10.082   4.940   2.045
85687SOL     OW58899  10.087   6.786  11.520
85687SOL    HW158900  10.122   6.705  11.481
85687SOL    HW258901  10.035   6.756  11.594
85688SOL     OW58902   0.143  11.610   1.465
85688SOL    HW158903   0.053  11.643   1.469
85688SOL    HW258904   0.196  11.680   1.504
85689SOL     OW58905   1.016   9.970  13.660
85689SOL    HW158906   1.067   9.968  13.742
85689SOL    HW258907   1.070  10.021  13.600
85690SOL     OW58908  14.319   7.611  10.545
85690SOL    HW158909  14.225   7.596  10.537
85690SOL    HW258910  14.328   7.660  10.627
85691SOL     OW58911   0.291   1.949  12.083
85691SOL    HW158912   0.221   2.014  12.084
85691SOL    HW258913   0.343   1.971  12.005
85692SOL     OW58914   1.125   7.453  12.470
85692SOL    HW158915   1.108   7.426  12.379
85692SOL    HW258916   1.191   7.392  12.501
85693SOL     OW58917  11.820   5.317   1.885
85693SOL    HW158918  11.890   5.378   1.908
85693SOL    HW258919  11.812   5.260   1.962
85694SOL     OW58920  11.667  12.127  10.389
85694SOL    HW158921  11.638  12.044  10.427
85694SOL    HW258922  11.674  12.110  10.295
85695SOL     OW58923   0.720  11.086  14.701
85695SOL    HW158924   0.697  10.996  14.723
85695SOL    HW258925   0.745  11.126  14.784
85696SOL     OW58926  13.357  11.545  14.400
85696SOL    HW158927  13.310  11.592  14.469
85696SOL    HW258928  13.289  11.508  14.345
85697SOL     OW58929  11.272   5.105   4.371
85697SOL    HW158930  11.297   5.198   4.370
85697SOL    HW258931  11.322   5.066   4.299
85698SOL     OW58932   3.390  14.068   7.182
85698SOL    HW158933   3.378  14.150   7.229
85698SOL    HW258934   3.327  14.073   7.110
85699SOL     OW58935   8.579   0.494   7.799
85699SOL    HW158936   8.592   0.575   7.750
85699SOL    HW258937   8.511   0.447   7.751
85700SOL     OW58938   1.054  11.358   2.791
85700SOL    HW158939   1.131  11.358   2.733
85700SOL    HW258940   1.064  11.438   2.843
85701SOL     OW58941   7.665  13.774   4.646
85701SOL    HW158942   7.588  13.744   4.598
85701SOL    HW258943   7.648  13.749   4.737
85702SOL     OW58944  13.858   8.540   1.919
85702SOL    HW158945  13.814   8.472   1.868
85702SOL    HW258946  13.788   8.600   1.944
85703SOL     OW58947   5.243   5.215   4.405
85703SOL    HW158948   5.307   5.285   4.417
85703SOL    HW258949   5.288   5.136   4.435
85704SOL     OW58950   9.840   2.663   9.721
85704SOL    HW158951   9.761   2.669   9.775
85704SOL    HW258952   9.833   2.736   9.660
85705SOL     OW58953  14.170   3.736   1.604
85705SOL    HW158954  14.123   3.793   1.544
85705SOL    HW258955  14.191   3.658   1.552
85706SOL     OW58956   1.218  13.283  13.535
85706SOL    HW158957   1.207  13.367  13.581
85706SOL    HW258958   1.291  13.298  13.475
85707SOL     OW58959   0.948  13.405   5.175
85707SOL    HW158960   0.987  13.370   5.095
85707SOL    HW258961   0.856  13.419   5.153
85708SOL     OW58962  12.572   6.578   8.054
85708SOL    HW158963  12.626   6.657   8.055
85708SOL    HW258964  12.632   6.508   8.029
85709SOL     OW58965  11.950   7.343   3.259
85709SOL    HW158966  12.032   7.388   3.240
85709SOL    HW258967  11.886   7.385   3.200
85710SOL     OW58968   4.944   4.931   8.398
85710SOL    HW158969   5.016   4.912   8.337
85710SOL    HW258970   4.901   4.846   8.410
85711SOL     OW58971   6.446  14.070  11.124
85711SOL    HW158972   6.415  14.017  11.051
85711SOL    HW258973   6.531  14.033  11.147
85712SOL     OW58974   8.398   8.962  14.492
85712SOL    HW158975   8.357   9.048  14.501
85712SOL    HW258976   8.436   8.964  14.404
85713SOL     OW58977  12.275   4.347   4.263
85713SOL    HW158978  12.357   4.352   4.214
85713SOL    HW258979  12.208   4.373   4.200
85714SOL     OW58980   1.519   8.063   8.758
85714SOL    HW158981   1.474   8.044   8.676
85714SOL    HW258982   1.464   8.128   8.801
85715SOL     OW58983   9.548   7.767   3.537
85715SOL    HW158984   9.576   7.753   3.446
85715SOL    HW258985   9.535   7.679   3.572
85716SOL     OW58986   7.702   4.865   2.085
85716SOL    HW158987   7.754   4.803   2.034
85716SOL    HW258988   7.735   4.951   2.059
85717SOL     OW58989   6.491  12.361  14.166
85717SOL    HW158990   6.476  12.303  14.092
85717SOL    HW258991   6.423  12.337  14.229
85718SOL     OW58992   3.005   4.443   6.299
85718SOL    HW158993   3.018   4.419   6.391
85718SOL    HW258994   2.990   4.537   6.301
85719SOL     OW58995   5.210   3.240   6.023
85719SOL    HW158996   5.162   3.193   6.091
85719SOL    HW258997   5.302   3.225   6.044
85720SOL     OW58998   1.295  13.902   5.608
85720SOL    HW158999   1.202  13.916   5.627
85720SOL    HW259000   1.297  13.821   5.557
85721SOL     OW59001  10.727  13.528   0.259
85721SOL    HW159002  10.773  13.487   0.333
85721SOL    HW259003  10.755  13.477   0.183
85722SOL     OW59004   0.211   3.743  11.757
85722SOL    HW159005   0.215   3.696  11.840
85722SOL    HW259006   0.130   3.713  11.716
85723SOL     OW59007   1.932   9.872  10.052
85723SOL    HW159008   2.015   9.841  10.089
85723SOL    HW259009   1.933   9.840   9.962
85724SOL     OW59010   3.685  14.420  13.885
85724SOL    HW159011   3.621  14.361  13.924
85724SOL    HW259012   3.726  14.464  13.960
85725SOL     OW59013   0.970   0.899   2.846
85725SOL    HW159014   0.950   0.874   2.936
85725SOL    HW259015   1.003   0.818   2.806
85726SOL     OW59016   8.319   7.899   9.311
85726SOL    HW159017   8.294   7.879   9.221
85726SOL    HW259018   8.288   7.824   9.362
85727SOL     OW59019  11.089  14.686   8.729
85727SOL    HW159020  11.109  14.729   8.646
85727SOL    HW259021  11.079  14.594   8.707
85728SOL     OW59022   8.960   8.576   9.795
85728SOL    HW159023   8.968   8.484   9.769
85728SOL    HW259024   8.999   8.625   9.722
85729SOL     OW59025   7.868   2.945  11.894
85729SOL    HW159026   7.930   3.010  11.861
85729SOL    HW259027   7.897   2.863  11.856
85730SOL     OW59028  14.164   6.249  11.584
85730SOL    HW159029  14.163   6.345  11.580
85730SOL    HW259030  14.154   6.230  11.678
85731SOL     OW59031   5.060  10.285   5.854
85731SOL    HW159032   5.001  10.351   5.891
85731SOL    HW259033   5.003  10.229   5.800
85732SOL     OW59034   7.802   3.906   7.850
85732SOL    HW159035   7.809   3.826   7.902
85732SOL    HW259036   7.847   3.973   7.901
85733SOL     OW59037   3.307   6.053   6.415
85733SOL    HW159038   3.269   5.965   6.413
85733SOL    HW259039   3.400   6.039   6.436
85734SOL     OW59040   9.218   8.840   4.205
85734SOL    HW159041   9.179   8.758   4.235
85734SOL    HW259042   9.144   8.894   4.179
85735SOL     OW59043  10.715   6.976   1.303
85735SOL    HW159044  10.796   7.013   1.338
85735SOL    HW259045  10.710   7.008   1.213
85736SOL     OW59046   9.282   7.004  12.168
85736SOL    HW159047   9.205   7.050  12.134
85736SOL    HW259048   9.272   6.915  12.134
85737SOL     OW59049   0.367   1.887  10.102
85737SOL    HW159050   0.283   1.845  10.115
85737SOL    HW259051   0.348   1.981  10.105
85738SOL     OW59052   8.956   9.123   5.121
85738SOL    HW159053   8.870   9.162   5.111
85738SOL    HW259054   9.017   9.193   5.096
85739SOL     OW59055   9.243  10.509   2.907
85739SOL    HW159056   9.316  10.545   2.856
85739SOL    HW259057   9.184  10.472   2.841
85740SOL     OW59058   9.859   1.957   7.287
85740SOL    HW159059   9.880   1.897   7.358
85740SOL    HW259060   9.904   1.919   7.211
85741SOL     OW59061   1.267   3.143  14.812
85741SOL    HW159062   1.323   3.216  14.840
85741SOL    HW259063   1.272   3.080   0.008
85742SOL     OW59064   4.502  11.881   7.998
85742SOL    HW159065   4.481  11.935   7.923
85742SOL    HW259066   4.580  11.922   8.036
85743SOL     OW59067   1.148  12.917   2.276
85743SOL    HW159068   1.194  12.836   2.297
85743SOL    HW259069   1.215  12.973   2.238
85744SOL     OW59070   2.149   5.229   2.170
85744SOL    HW159071   2.106   5.311   2.145
85744SOL    HW259072   2.232   5.257   2.210
85745SOL     OW59073  13.515   9.869  14.621
85745SOL    HW159074  13.607   9.852  14.602
85745SOL    HW259075  13.477   9.783  14.638
85746SOL     OW59076   0.050   4.262  14.066
85746SOL    HW159077   0.012   4.224  13.987
85746SOL    HW259078   0.018   4.207  14.137
85747SOL     OW59079  12.407  14.156   1.417
85747SOL    HW159080  12.420  14.125   1.507
85747SOL    HW259081  12.494  14.186   1.390
85748SOL     OW59082   9.569   7.804   1.654
85748SOL    HW159083   9.567   7.867   1.582
85748SOL    HW259084   9.547   7.720   1.613
85749SOL     OW59085  11.747   1.530   6.480
85749SOL    HW159086  11.755   1.436   6.498
85749SOL    HW259087  11.733   1.570   6.565
85750SOL     OW59088  12.843   3.168  11.250
85750SOL    HW159089  12.830   3.155  11.344
85750SOL    HW259090  12.931   3.206  11.244
85751SOL     OW59091   8.275   9.032  14.105
85751SOL    HW159092   8.276   9.028  14.009
85751SOL    HW259093   8.364   9.008  14.132
85752SOL     OW59094   8.383  10.325  13.041
85752SOL    HW159095   8.357  10.341  13.132
85752SOL    HW259096   8.346  10.239  13.021
85753SOL     OW59097  11.094   8.369  14.548
85753SOL    HW159098  11.017   8.398  14.498
85753SOL    HW259099  11.169   8.406  14.501
85754SOL     OW59100   9.515  13.233   5.118
85754SOL    HW159101   9.597  13.253   5.073
85754SOL    HW259102   9.542  13.191   5.200
85755SOL     OW59103   1.571   4.817  11.812
85755SOL    HW159104   1.487   4.773  11.830
85755SOL    HW259105   1.637   4.753  11.836
85756SOL     OW59106  13.037   3.621   6.842
85756SOL    HW159107  12.971   3.653   6.904
85756SOL    HW259108  12.995   3.630   6.756
85757SOL     OW59109  14.570   0.111   7.499
85757SOL    HW159110  14.639   0.120   7.564
85757SOL    HW259111  14.611   0.063   7.427
85758SOL     OW59112   8.487   1.313   4.741
85758SOL    HW159113   8.502   1.343   4.652
85758SOL    HW259114   8.480   1.218   4.734
85759SOL     OW59115  14.355   7.285   5.863
85759SOL    HW159116  14.322   7.274   5.774
85759SOL    HW259117  14.351   7.379   5.878
85760SOL     OW59118   2.452  13.062   6.703
85760SOL    HW159119   2.501  13.012   6.637
85760SOL    HW259120   2.475  13.153   6.685
85761SOL     OW59121   6.598   2.018   9.562
85761SOL    HW159122   6.516   1.981   9.529
85761SOL    HW259123   6.648   1.943   9.592
85762SOL     OW59124   4.184   4.820   2.560
85762SOL    HW159125   4.267   4.787   2.593
85762SOL    HW259126   4.177   4.784   2.471
85763SOL     OW59127   8.866  10.193  12.225
85763SOL    HW159128   8.807  10.172  12.152
85763SOL    HW259129   8.837  10.280  12.254
85764SOL     OW59130   7.899  10.437   3.953
85764SOL    HW159131   7.869  10.365   3.897
85764SOL    HW259132   7.976  10.472   3.907
85765SOL     OW59133  13.439  12.924  12.551
85765SOL    HW159134  13.397  12.972  12.622
85765SOL    HW259135  13.517  12.974  12.530
85766SOL     OW59136   0.571   8.050   9.480
85766SOL    HW159137   0.533   8.138   9.481
85766SOL    HW259138   0.598   8.035   9.570
85767SOL     OW59139   2.813   4.752  12.610
85767SOL    HW159140   2.907   4.756  12.627
85767SOL    HW259141   2.788   4.843  12.592
85768SOL     OW59142   1.854   2.251   3.695
85768SOL    HW159143   1.855   2.340   3.730
85768SOL    HW259144   1.915   2.253   3.622
85769SOL     OW59145  13.800  13.581   7.948
85769SOL    HW159146  13.746  13.617   8.019
85769SOL    HW259147  13.749  13.507   7.915
85770SOL     OW59148   3.123   2.574  12.257
85770SOL    HW159149   3.039   2.533  12.276
85770SOL    HW259150   3.185   2.528  12.315
85771SOL     OW59151   7.249  11.751   5.925
85771SOL    HW159152   7.195  11.753   5.846
85771SOL    HW259153   7.189  11.727   5.995
85772SOL     OW59154   7.678   1.908   1.841
85772SOL    HW159155   7.752   1.868   1.795
85772SOL    HW259156   7.633   1.835   1.882
85773SOL     OW59157   3.504   1.273  14.447
85773SOL    HW159158   3.451   1.311  14.517
85773SOL    HW259159   3.482   1.180  14.447
85774SOL     OW59160  11.329  13.031   2.525
85774SOL    HW159161  11.318  13.042   2.620
85774SOL    HW259162  11.419  13.001   2.515
85775SOL     OW59163  13.095   9.951   5.225
85775SOL    HW159164  13.143   9.871   5.204
85775SOL    HW259165  13.139   9.986   5.302
85776SOL     OW59166   9.194  11.489  13.588
85776SOL    HW159167   9.201  11.568  13.535
85776SOL    HW259168   9.223  11.516  13.675
85777SOL     OW59169  13.487   6.756  14.788
85777SOL    HW159170  13.452   6.832  14.834
85777SOL    HW259171  13.541   6.793  14.718
85778SOL     OW59172  10.058   5.646   5.721
85778SOL    HW159173  10.013   5.570   5.685
85778SOL    HW259174  10.128   5.665   5.658
85779SOL     OW59175   4.125   1.718  11.589
85779SOL    HW159176   4.041   1.742  11.629
85779SOL    HW259177   4.118   1.750  11.499
85780SOL     OW59178   0.147  13.422  14.225
85780SOL    HW159179   0.089  13.461  14.160
85780SOL    HW259180   0.185  13.497  14.270
85781SOL     OW59181   4.507  13.668   7.669
85781SOL    HW159182   4.428  13.691   7.620
85781SOL    HW259183   4.568  13.740   7.651
85782SOL     OW59184   4.134   7.699   3.007
85782SOL    HW159185   4.224   7.693   3.039
85782SOL    HW259186   4.086   7.741   3.078
85783SOL     OW59187   3.352  10.754   8.006
85783SOL    HW159188   3.405  10.675   8.012
85783SOL    HW259189   3.309  10.762   8.091
85784SOL     OW59190   0.864   4.716   0.131
85784SOL    HW159191   0.888   4.627   0.103
85784SOL    HW259192   0.868   4.713   0.226
85785SOL     OW59193   4.619   0.526  12.853
85785SOL    HW159194   4.708   0.543  12.823
85785SOL    HW259195   4.566   0.530  12.773
85786SOL     OW59196  10.607   5.789   6.457
85786SOL    HW159197  10.535   5.837   6.415
85786SOL    HW259198  10.635   5.846   6.529
85787SOL     OW59199   1.077   6.573   5.915
85787SOL    HW159200   1.043   6.510   5.852
85787SOL    HW259201   1.137   6.523   5.969
85788SOL     OW59202  14.876   9.861   0.854
85788SOL    HW159203   0.012   9.938   0.910
85788SOL    HW259204  14.872   9.787   0.914
85789SOL     OW59205   8.749   5.034  12.235
85789SOL    HW159206   8.694   4.971  12.282
85789SOL    HW259207   8.778   4.987  12.157
85790SOL     OW59208   3.881   3.176   0.915
85790SOL    HW159209   3.967   3.214   0.902
85790SOL    HW259210   3.886   3.089   0.875
85791SOL     OW59211  14.816   3.087   1.284
85791SOL    HW159212  14.785   3.148   1.218
85791SOL    HW259213   0.025   3.120   1.310
85792SOL     OW59214   7.642  12.466   4.268
85792SOL    HW159215   7.619  12.384   4.225
85792SOL    HW259216   7.670  12.440   4.355
85793SOL     OW59217   4.064  12.196  12.758
85793SOL    HW159218   4.126  12.255  12.716
85793SOL    HW259219   4.099  12.181  12.846
85794SOL     OW59220   1.101  12.418   0.381
85794SOL    HW159221   1.150  12.391   0.459
85794SOL    HW259222   1.125  12.354   0.314
85795SOL     OW59223  12.078   7.992   2.781
85795SOL    HW159224  12.029   7.911   2.799
85795SOL    HW259225  12.165   7.976   2.817
85796SOL     OW59226  12.213   2.347   2.188
85796SOL    HW159227  12.155   2.272   2.199
85796SOL    HW259228  12.263   2.351   2.270
85797SOL     OW59229  12.729   1.872   5.796
85797SOL    HW159230  12.750   1.872   5.703
85797SOL    HW259231  12.660   1.938   5.805
85798SOL     OW59232   8.908  11.878   3.912
85798SOL    HW159233   8.815  11.890   3.931
85798SOL    HW259234   8.951  11.949   3.959
85799SOL     OW59235   3.488   2.466  10.086
85799SOL    HW159236   3.508   2.557  10.108
85799SOL    HW259237   3.418   2.442  10.145
85800SOL     OW59238   9.641   0.243  14.658
85800SOL    HW159239   9.549   0.268  14.668
85800SOL    HW259240   9.680   0.263  14.743
85801SOL     OW59241   7.187   9.756  14.693
85801SOL    HW159242   7.191   9.675  14.642
85801SOL    HW259243   7.093   9.768  14.710
85802SOL     OW59244  11.289  10.720   1.376
85802SOL    HW159245  11.277  10.782   1.304
85802SOL    HW259246  11.337  10.770   1.442
85803SOL     OW59247  12.780   0.181   0.141
85803SOL    HW159248  12.850   0.183   0.205
85803SOL    HW259249  12.700   0.184   0.194
85804SOL     OW59250  13.758   9.426   5.088
85804SOL    HW159251  13.791   9.450   5.175
85804SOL    HW259252  13.777   9.332   5.081
85805SOL     OW59253   2.139   9.665  11.327
85805SOL    HW159254   2.101   9.595  11.381
85805SOL    HW259255   2.222   9.685  11.370
85806SOL     OW59256   7.207  13.777   9.795
85806SOL    HW159257   7.270  13.738   9.734
85806SOL    HW259258   7.231  13.870   9.797
85807SOL     OW59259   9.431   5.640  10.321
85807SOL    HW159260   9.475   5.712  10.276
85807SOL    HW259261   9.459   5.561  10.274
85808SOL     OW59262  13.885   1.181  12.658
85808SOL    HW159263  13.937   1.245  12.609
85808SOL    HW259264  13.811   1.230  12.692
85809SOL     OW59265   1.648   6.736   5.811
85809SOL    HW159266   1.662   6.709   5.902
85809SOL    HW259267   1.723   6.792   5.791
85810SOL     OW59268   2.939   0.367  10.296
85810SOL    HW159269   3.016   0.375  10.352
85810SOL    HW259270   2.885   0.301  10.339
85811SOL     OW59271  12.010   1.379  12.412
85811SOL    HW159272  11.956   1.315  12.457
85811SOL    HW259273  12.040   1.334  12.333
85812SOL     OW59274  11.193  13.548  13.780
85812SOL    HW159275  11.116  13.585  13.738
85812SOL    HW259276  11.164  13.462  13.810
85813SOL     OW59277  13.338   7.606   1.056
85813SOL    HW159278  13.316   7.569   1.141
85813SOL    HW259279  13.433   7.594   1.048
85814SOL     OW59280   9.254  10.826   3.576
85814SOL    HW159281   9.328  10.822   3.636
85814SOL    HW259282   9.207  10.906   3.602
85815SOL     OW59283  13.597   9.862   5.894
85815SOL    HW159284  13.627   9.941   5.939
85815SOL    HW259285  13.509   9.846   5.929
85816SOL     OW59286  14.142  13.726   0.198
85816SOL    HW159287  14.104  13.748   0.113
85816SOL    HW259288  14.235  13.748   0.189
85817SOL     OW59289  11.612  13.112   7.254
85817SOL    HW159290  11.708  13.114   7.253
85817SOL    HW259291  11.588  13.086   7.166
85818SOL     OW59292   3.568   8.724  10.123
85818SOL    HW159293   3.602   8.682  10.202
85818SOL    HW259294   3.614   8.679  10.051
85819SOL     OW59295   1.439   3.599   3.355
85819SOL    HW159296   1.435   3.580   3.261
85819SOL    HW259297   1.372   3.543   3.394
85820SOL     OW59298  13.329   6.602  10.478
85820SOL    HW159299  13.360   6.532  10.536
85820SOL    HW259300  13.234   6.589  10.474
85821SOL     OW59301   1.338   5.172  14.307
85821SOL    HW159302   1.398   5.174  14.381
85821SOL    HW259303   1.300   5.260  14.303
85822SOL     OW59304   3.683   6.912  11.339
85822SOL    HW159305   3.647   6.932  11.252
85822SOL    HW259306   3.764   6.963  11.344
85823SOL     OW59307   0.923   7.519   4.351
85823SOL    HW159308   0.867   7.469   4.411
85823SOL    HW259309   1.009   7.477   4.357
85824SOL     OW59310  12.904   3.047   6.091
85824SOL    HW159311  12.824   2.995   6.097
85824SOL    HW259312  12.910   3.073   5.999
85825SOL     OW59313   5.039   8.415  12.157
85825SOL    HW159314   5.078   8.400  12.071
85825SOL    HW259315   5.031   8.510  12.164
85826SOL     OW59316  14.530  13.284  12.069
85826SOL    HW159317  14.484  13.349  12.016
85826SOL    HW259318  14.605  13.331  12.105
85827SOL     OW59319   5.455   6.162  10.157
85827SOL    HW159320   5.480   6.252  10.138
85827SOL    HW259321   5.509   6.109  10.098
85828SOL     OW59322  13.782  12.708   3.698
85828SOL    HW159323  13.853  12.666   3.649
85828SOL    HW259324  13.784  12.665   3.783
85829SOL     OW59325   2.750   2.774  11.698
85829SOL    HW159326   2.821   2.835  11.716
85829SOL    HW259327   2.682   2.796  11.762
85830SOL     OW59328  10.614  12.887   8.207
85830SOL    HW159329  10.610  12.848   8.120
85830SOL    HW259330  10.707  12.895   8.226
85831SOL     OW59331  12.055  14.071   3.719
85831SOL    HW159332  12.065  14.007   3.648
85831SOL    HW259333  12.091  14.026   3.796
85832SOL     OW59334  14.852   5.139  10.365
85832SOL    HW159335  14.806   5.135  10.282
85832SOL    HW259336  14.804   5.078  10.422
85833SOL     OW59337   9.968   4.714   6.606
85833SOL    HW159338   9.936   4.626   6.586
85833SOL    HW259339  10.064   4.707   6.599
85834SOL     OW59340   1.311   4.917  14.171
85834SOL    HW159341   1.343   4.839  14.216
85834SOL    HW259342   1.341   4.990  14.226
85835SOL     OW59343   0.517   0.576  13.746
85835SOL    HW159344   0.481   0.553  13.660
85835SOL    HW259345   0.612   0.579  13.732
85836SOL     OW59346   9.369   4.077  11.389
85836SOL    HW159347   9.340   4.140  11.455
85836SOL    HW259348   9.304   4.085  11.318
85837SOL     OW59349   3.641  12.143   4.249
85837SOL    HW159350   3.550  12.175   4.249
85837SOL    HW259351   3.691  12.216   4.212
85838SOL     OW59352  10.977  11.986   1.896
85838SOL    HW159353  10.913  11.975   1.967
85838SOL    HW259354  10.960  11.912   1.837
85839SOL     OW59355   0.206   3.955   5.328
85839SOL    HW159356   0.253   3.990   5.404
85839SOL    HW259357   0.121   3.929   5.362
85840SOL     OW59358   5.236  11.041  13.683
85840SOL    HW159359   5.298  11.060  13.753
85840SOL    HW259360   5.173  10.982  13.722
85841SOL     OW59361   4.800   8.580  12.960
85841SOL    HW159362   4.820   8.500  13.007
85841SOL    HW259363   4.708   8.572  12.935
85842SOL     OW59364  10.325   1.126   5.141
85842SOL    HW159365  10.412   1.086   5.139
85842SOL    HW259366  10.267   1.058   5.174
85843SOL     OW59367   2.118   7.070   7.924
85843SOL    HW159368   2.053   7.123   7.970
85843SOL    HW259369   2.167   7.026   7.994
85844SOL     OW59370   9.932   8.745   1.310
85844SOL    HW159371   9.899   8.681   1.248
85844SOL    HW259372   9.931   8.828   1.261
85845SOL     OW59373   4.348   6.611   5.952
85845SOL    HW159374   4.353   6.675   5.881
85845SOL    HW259375   4.397   6.650   6.023
85846SOL     OW59376  10.402   6.790  12.030
85846SOL    HW159377  10.389   6.831  11.945
85846SOL    HW259378  10.336   6.831  12.087
85847SOL     OW59379  11.245  14.754  12.546
85847SOL    HW159380  11.267  14.666  12.577
85847SOL    HW259381  11.330  14.795  12.532
85848SOL     OW59382   9.666   5.100   0.489
85848SOL    HW159383   9.698   5.077   0.576
85848SOL    HW259384   9.718   5.048   0.429
85849SOL     OW59385   8.226   6.377   1.117
85849SOL    HW159386   8.279   6.424   1.054
85849SOL    HW259387   8.142   6.423   1.118
85850SOL     OW59388   1.688   0.704   0.878
85850SOL    HW159389   1.649   0.652   0.948
85850SOL    HW259390   1.724   0.781   0.923
85851SOL     OW59391   5.151   4.110   1.517
85851SOL    HW159392   5.135   4.204   1.529
85851SOL    HW259393   5.086   4.068   1.573
85852SOL     OW59394   4.355   8.027   1.516
85852SOL    HW159395   4.448   8.049   1.513
85852SOL    HW259396   4.315   8.100   1.562
85853SOL     OW59397  11.925  12.766   2.239
85853SOL    HW159398  11.890  12.852   2.217
85853SOL    HW259399  11.847  12.711   2.250
85854SOL     OW59400   7.292  10.580  10.854
85854SOL    HW159401   7.252  10.499  10.884
85854SOL    HW259402   7.378  10.554  10.820
85855SOL     OW59403   3.205   1.210   4.137
85855SOL    HW159404   3.199   1.150   4.062
85855SOL    HW259405   3.115   1.239   4.151
85856SOL     OW59406  11.757   7.215  10.637
85856SOL    HW159407  11.788   7.301  10.607
85856SOL    HW259408  11.670   7.207  10.599
85857SOL     OW59409  10.843  11.002   8.296
85857SOL    HW159410  10.864  10.999   8.202
85857SOL    HW259411  10.754  10.966   8.301
85858SOL     OW59412   0.635   4.375   4.611
85858SOL    HW159413   0.552   4.373   4.564
85858SOL    HW259414   0.610   4.388   4.703
85859SOL     OW59415  12.550   6.993   5.908
85859SOL    HW159416  12.603   6.937   5.852
85859SOL    HW259417  12.592   6.990   5.994
85860SOL     OW59418   9.926   4.427   3.884
85860SOL    HW159419   9.999   4.366   3.894
85860SOL    HW259420   9.884   4.428   3.970
85861SOL     OW59421  10.024   3.568   7.833
85861SOL    HW159422  10.108   3.586   7.790
85861SOL    HW259423  10.047   3.548   7.923
85862SOL     OW59424  13.933   1.803  14.330
85862SOL    HW159425  13.915   1.816  14.237
85862SOL    HW259426  13.848   1.804  14.372
85863SOL     OW59427   2.631   9.854   6.923
85863SOL    HW159428   2.656   9.933   6.970
85863SOL    HW259429   2.646   9.783   6.985
85864SOL     OW59430   1.160   1.282  11.305
85864SOL    HW159431   1.209   1.308  11.383
85864SOL    HW259432   1.206   1.204  11.274
85865SOL     OW59433   6.627  14.150  13.818
85865SOL    HW159434   6.628  14.155  13.914
85865SOL    HW259435   6.549  14.199  13.793
85866SOL     OW59436   9.477   6.179   0.836
85866SOL    HW159437   9.507   6.267   0.814
85866SOL    HW259438   9.395   6.192   0.884
85867SOL     OW59439   3.134   1.343   8.317
85867SOL    HW159440   3.066   1.278   8.300
85867SOL    HW259441   3.098   1.425   8.285
85868SOL     OW59442   2.542   5.815   1.571
85868SOL    HW159443   2.564   5.827   1.663
85868SOL    HW259444   2.538   5.720   1.559
85869SOL     OW59445   2.925   1.891   8.968
85869SOL    HW159446   2.899   1.911   8.878
85869SOL    HW259447   2.990   1.822   8.960
85870SOL     OW59448   0.426   3.142  12.304
85870SOL    HW159449   0.401   3.079  12.372
85870SOL    HW259450   0.433   3.090  12.225
85871SOL     OW59451   1.008   3.174   5.969
85871SOL    HW159452   0.966   3.091   5.947
85871SOL    HW259453   1.095   3.169   5.931
85872SOL     OW59454   3.813  11.828   1.071
85872SOL    HW159455   3.826  11.867   1.158
85872SOL    HW259456   3.901  11.817   1.036
85873SOL     OW59457   4.414  10.019   3.842
85873SOL    HW159458   4.363   9.940   3.859
85873SOL    HW259459   4.365  10.090   3.885
85874SOL     OW59460  13.152   5.953   7.506
85874SOL    HW159461  13.201   5.985   7.431
85874SOL    HW259462  13.211   5.891   7.549
85875SOL     OW59463   1.535  11.446   5.710
85875SOL    HW159464   1.502  11.436   5.800
85875SOL    HW259465   1.469  11.499   5.666
85876SOL     OW59466   2.972   0.841  13.739
85876SOL    HW159467   3.060   0.806  13.750
85876SOL    HW259468   2.976   0.927  13.781
85877SOL     OW59469   9.032   0.407  14.050
85877SOL    HW159470   9.096   0.368  14.109
85877SOL    HW259471   8.981   0.332  14.018
85878SOL     OW59472  13.469   1.522  12.609
85878SOL    HW159473  13.478   1.438  12.564
85878SOL    HW259474  13.382   1.518  12.650
85879SOL     OW59475   1.817   2.118   4.336
85879SOL    HW159476   1.729   2.144   4.365
85879SOL    HW259477   1.815   2.131   4.241
85880SOL     OW59478  12.422  13.031   4.233
85880SOL    HW159479  12.333  13.039   4.267
85880SOL    HW259480  12.476  13.017   4.310
85881SOL     OW59481  13.647   1.142   7.545
85881SOL    HW159482  13.567   1.188   7.569
85881SOL    HW259483  13.700   1.208   7.500
85882SOL     OW59484   4.776   7.726  11.526
85882SOL    HW159485   4.777   7.663  11.455
85882SOL    HW259486   4.857   7.775  11.517
85883SOL     OW59487   9.070  14.073   9.298
85883SOL    HW159488   9.004  14.017   9.257
85883SOL    HW259489   9.149  14.059   9.246
85884SOL     OW59490   6.831   9.527   7.596
85884SOL    HW159491   6.768   9.512   7.666
85884SOL    HW259492   6.865   9.615   7.613
85885SOL     OW59493   5.524  13.042  10.957
85885SOL    HW159494   5.448  12.992  10.927
85885SOL    HW259495   5.599  12.998  10.919
85886SOL     OW59496  13.410   0.244   0.648
85886SOL    HW159497  13.367   0.160   0.664
85886SOL    HW259498  13.378   0.301   0.717
85887SOL     OW59499  11.097  12.615  13.280
85887SOL    HW159500  11.167  12.572  13.230
85887SOL    HW259501  11.095  12.704  13.246
85888SOL     OW59502  14.368   3.875   8.783
85888SOL    HW159503  14.308   3.860   8.710
85888SOL    HW259504  14.311   3.890   8.858
85889SOL     OW59505   5.952   4.807  12.003
85889SOL    HW159506   6.005   4.844  11.932
85889SOL    HW259507   5.923   4.722  11.970
85890SOL     OW59508   2.085  10.885   5.625
85890SOL    HW159509   2.064  10.954   5.562
85890SOL    HW259510   2.074  10.803   5.576
85891SOL     OW59511   9.410   5.313  10.444
85891SOL    HW159512   9.491   5.279  10.479
85891SOL    HW259513   9.420   5.305  10.349
85892SOL     OW59514   8.057   2.809   6.233
85892SOL    HW159515   8.061   2.726   6.185
85892SOL    HW259516   8.117   2.867   6.187
85893SOL     OW59517   3.521   5.930  10.645
85893SOL    HW159518   3.439   5.933  10.595
85893SOL    HW259519   3.517   5.848  10.694
85894SOL     OW59520  10.457   7.152   8.372
85894SOL    HW159521  10.504   7.168   8.454
85894SOL    HW259522  10.456   7.056   8.364
85895SOL     OW59523   7.369   3.373  13.386
85895SOL    HW159524   7.378   3.279  13.373
85895SOL    HW259525   7.293   3.398  13.334
85896SOL     OW59526  12.951   9.387   0.226
85896SOL    HW159527  12.945   9.459   0.164
85896SOL    HW259528  12.876   9.331   0.207
85897SOL     OW59529  11.606   0.300  10.133
85897SOL    HW159530  11.513   0.281  10.146
85897SOL    HW259531  11.651   0.244  10.196
85898SOL     OW59532   8.460   4.649   1.423
85898SOL    HW159533   8.481   4.651   1.330
85898SOL    HW259534   8.422   4.735   1.441
85899SOL     OW59535   2.384  13.042   2.009
85899SOL    HW159536   2.430  13.075   2.086
85899SOL    HW259537   2.291  13.059   2.026
85900SOL     OW59538   1.452  13.301   7.076
85900SOL    HW159539   1.370  13.252   7.085
85900SOL    HW259540   1.495  13.264   6.999
85901SOL     OW59541   5.129  14.329   2.074
85901SOL    HW159542   5.089  14.242   2.071
85901SOL    HW259543   5.175  14.338   1.991
85902SOL     OW59544  13.041   7.486   6.142
85902SOL    HW159545  13.073   7.487   6.052
85902SOL    HW259546  13.119   7.499   6.196
85903SOL     OW59547   3.658  14.589   3.177
85903SOL    HW159548   3.605  14.629   3.108
85903SOL    HW259549   3.692  14.663   3.227
85904SOL     OW59550  11.764   6.697   2.891
85904SOL    HW159551  11.699   6.743   2.943
85904SOL    HW259552  11.732   6.704   2.801
85905SOL     OW59553   7.994  10.509  13.282
85905SOL    HW159554   7.970  10.418  13.302
85905SOL    HW259555   8.038  10.504  13.197
85906SOL     OW59556  10.517   3.244   3.985
85906SOL    HW159557  10.500   3.234   4.079
85906SOL    HW259558  10.613   3.249   3.978
85907SOL     OW59559   7.988   8.807  11.221
85907SOL    HW159560   7.963   8.844  11.306
85907SOL    HW259561   7.999   8.884  11.165
85908SOL     OW59562  12.832   6.753  10.562
85908SOL    HW159563  12.754   6.795  10.598
85908SOL    HW259564  12.864   6.814  10.495
85909SOL     OW59565  10.619   8.818   2.050
85909SOL    HW159566  10.681   8.760   2.007
85909SOL    HW259567  10.670   8.861   2.119
85910SOL     OW59568   8.925  11.971   2.736
85910SOL    HW159569   8.847  12.026   2.748
85910SOL    HW259570   8.998  12.033   2.739
85911SOL     OW59571   8.568  14.065   4.301
85911SOL    HW159572   8.512  14.143   4.301
85911SOL    HW259573   8.628  14.079   4.228
85912SOL     OW59574   6.259  10.262   2.255
85912SOL    HW159575   6.234  10.175   2.284
85912SOL    HW259576   6.248  10.318   2.332
85913SOL     OW59577  14.174   6.121   5.732
85913SOL    HW159578  14.136   6.122   5.820
85913SOL    HW259579  14.256   6.170   5.740
85914SOL     OW59580  11.885   0.675   1.730
85914SOL    HW159581  11.831   0.596   1.717
85914SOL    HW259582  11.889   0.685   1.825
85915SOL     OW59583   1.090  13.748   7.348
85915SOL    HW159584   1.116  13.703   7.429
85915SOL    HW259585   1.162  13.809   7.331
85916SOL     OW59586   2.914   9.409  12.542
85916SOL    HW159587   2.907   9.314  12.534
85916SOL    HW259588   2.941   9.423  12.633
85917SOL     OW59589   2.087   4.783  14.268
85917SOL    HW159590   1.998   4.774  14.235
85917SOL    HW259591   2.103   4.877  14.270
85918SOL     OW59592   5.111   7.609   7.720
85918SOL    HW159593   5.180   7.567   7.670
85918SOL    HW259594   5.086   7.686   7.668
85919SOL     OW59595   6.024   3.027  14.767
85919SOL    HW159596   6.078   3.106  14.765
85919SOL    HW259597   6.080   2.961  14.809
85920SOL     OW59598   8.544  11.275   8.374
85920SOL    HW159599   8.544  11.240   8.285
85920SOL    HW259600   8.625  11.244   8.412
85921SOL     OW59601  12.151   5.984   3.693
85921SOL    HW159602  12.219   5.981   3.760
85921SOL    HW259603  12.196   5.955   3.613
85922SOL     OW59604  14.412   7.301  12.379
85922SOL    HW159605  14.352   7.265  12.313
85922SOL    HW259606  14.448   7.224  12.423
85923SOL     OW59607   1.879   5.370   4.363
85923SOL    HW159608   1.918   5.431   4.301
85923SOL    HW259609   1.947   5.358   4.430
85924SOL     OW59610  12.225  13.667   9.182
85924SOL    HW159611  12.146  13.681   9.233
85924SOL    HW259612  12.228  13.741   9.121
85925SOL     OW59613   5.172  11.200  14.461
85925SOL    HW159614   5.083  11.212  14.494
85925SOL    HW259615   5.215  11.147  14.527
85926SOL     OW59616  12.164   0.188   6.271
85926SOL    HW159617  12.193   0.170   6.361
85926SOL    HW259618  12.197   0.276   6.253
85927SOL     OW59619   5.036   5.038  12.255
85927SOL    HW159620   5.003   5.037  12.165
85927SOL    HW259621   5.106   4.973  12.256
85928SOL     OW59622   4.490   0.055   3.830
85928SOL    HW159623   4.403   0.046   3.868
85928SOL    HW259624   4.473   0.079   3.739
85929SOL     OW59625   9.003   2.746  14.618
85929SOL    HW159626   8.965   2.659  14.603
85929SOL    HW259627   9.075   2.730  14.679
85930SOL     OW59628  12.117  10.442  13.694
85930SOL    HW159629  12.200  10.440  13.742
85930SOL    HW259630  12.143  10.449  13.602
85931SOL     OW59631   1.875   3.809   5.530
85931SOL    HW159632   1.943   3.741   5.528
85931SOL    HW259633   1.812   3.781   5.463
85932SOL     OW59634   2.859   2.043   7.011
85932SOL    HW159635   2.952   2.042   6.986
85932SOL    HW259636   2.823   2.120   6.967
85933SOL     OW59637   0.562   4.554   8.106
85933SOL    HW159638   0.621   4.603   8.162
85933SOL    HW259639   0.548   4.471   8.152
85934SOL     OW59640   9.767   2.939   1.550
85934SOL    HW159641   9.782   2.959   1.643
85934SOL    HW259642   9.806   3.013   1.503
85935SOL     OW59643  13.436   0.500   8.816
85935SOL    HW159644  13.509   0.550   8.780
85935SOL    HW259645  13.380   0.566   8.857
85936SOL     OW59646   1.486   1.619   1.631
85936SOL    HW159647   1.465   1.628   1.538
85936SOL    HW259648   1.416   1.564   1.666
85937SOL     OW59649   5.001   2.028  14.261
85937SOL    HW159650   5.013   1.954  14.202
85937SOL    HW259651   5.088   2.066  14.271
85938SOL     OW59652  10.833   9.859  12.005
85938SOL    HW159653  10.890   9.826  12.074
85938SOL    HW259654  10.755   9.804  12.010
85939SOL     OW59655   9.008  13.785   3.883
85939SOL    HW159656   8.993  13.868   3.927
85939SOL    HW259657   9.047  13.809   3.799
85940SOL     OW59658   1.529   5.986   2.588
85940SOL    HW159659   1.529   5.990   2.492
85940SOL    HW259660   1.485   6.066   2.616
85941SOL     OW59661   1.420   1.341   7.495
85941SOL    HW159662   1.426   1.349   7.591
85941SOL    HW259663   1.504   1.374   7.463
85942SOL     OW59664   9.920   6.754  11.287
85942SOL    HW159665   9.879   6.827  11.240
85942SOL    HW259666   9.988   6.796  11.340
85943SOL     OW59667   5.709   9.483  14.469
85943SOL    HW159668   5.669   9.398  14.485
85943SOL    HW259669   5.796   9.476  14.507
85944SOL     OW59670   8.541  10.214   2.025
85944SOL    HW159671   8.631  10.185   2.043
85944SOL    HW259672   8.544  10.248   1.936
85945SOL     OW59673   1.711  11.751   2.338
85945SOL    HW159674   1.710  11.843   2.364
85945SOL    HW259675   1.792  11.740   2.288
85946SOL     OW59676   3.994  11.757   2.007
85946SOL    HW159677   3.918  11.699   2.011
85946SOL    HW259678   4.068  11.699   1.990
85947SOL     OW59679   9.464   1.062   7.363
85947SOL    HW159680   9.475   0.970   7.386
85947SOL    HW259681   9.550   1.089   7.329
85948SOL     OW59682   0.603  11.504  10.292
85948SOL    HW159683   0.629  11.431  10.349
85948SOL    HW259684   0.550  11.561  10.348
85949SOL     OW59685   7.986   8.303  14.281
85949SOL    HW159686   7.998   8.329  14.373
85949SOL    HW259687   8.052   8.235  14.267
85950SOL     OW59688   2.766  12.698   3.431
85950SOL    HW159689   2.700  12.653   3.378
85950SOL    HW259690   2.785  12.636   3.502
85951SOL     OW59691  14.084   6.160  14.636
85951SOL    HW159692  14.096   6.153  14.731
85951SOL    HW259693  14.103   6.072  14.603
85952SOL     OW59694   6.734   1.867  14.483
85952SOL    HW159695   6.794   1.845  14.555
85952SOL    HW259696   6.721   1.785  14.436
85953SOL     OW59697   7.151   1.292   7.633
85953SOL    HW159698   7.193   1.246   7.706
85953SOL    HW259699   7.074   1.239   7.612
85954SOL     OW59700   1.426  11.844   9.835
85954SOL    HW159701   1.402  11.929   9.798
85954SOL    HW259702   1.445  11.862   9.927
85955SOL     OW59703  12.192  10.924  12.086
85955SOL    HW159704  12.197  10.970  12.002
85955SOL    HW259705  12.102  10.938  12.115
85956SOL     OW59706   3.313  12.341   9.152
85956SOL    HW159707   3.243  12.310   9.095
85956SOL    HW259708   3.392  12.331   9.099
85957SOL     OW59709   7.347  12.596   4.804
85957SOL    HW159710   7.366  12.583   4.896
85957SOL    HW259711   7.417  12.654   4.773
85958SOL     OW59712  10.342   5.960   7.577
85958SOL    HW159713  10.254   5.962   7.541
85958SOL    HW259714  10.332   5.923   7.665
85959SOL     OW59715  13.965   3.224   8.776
85959SOL    HW159716  13.992   3.208   8.685
85959SOL    HW259717  13.901   3.156   8.794
85960SOL     OW59718   2.713   5.830   7.543
85960SOL    HW159719   2.654   5.801   7.473
85960SOL    HW259720   2.732   5.921   7.521
85961SOL     OW59721   7.111   0.961   6.536
85961SOL    HW159722   7.041   1.020   6.563
85961SOL    HW259723   7.179   0.973   6.603
85962SOL     OW59724   7.551  10.118   4.639
85962SOL    HW159725   7.524  10.160   4.721
85962SOL    HW259726   7.631  10.164   4.614
85963SOL     OW59727   5.145  14.508  14.343
85963SOL    HW159728   5.209  14.524  14.412
85963SOL    HW259729   5.198  14.491  14.265
85964SOL     OW59730   9.055   8.209   8.147
85964SOL    HW159731   9.042   8.115   8.151
85964SOL    HW259732   9.129   8.226   8.206
85965SOL     OW59733   9.142   8.272  10.699
85965SOL    HW159734   9.111   8.329  10.769
85965SOL    HW259735   9.208   8.216  10.740
85966SOL     OW59736   3.855   1.984   6.352
85966SOL    HW159737   3.782   1.944   6.398
85966SOL    HW259738   3.836   2.078   6.355
85967SOL     OW59739   4.645   8.938   4.598
85967SOL    HW159740   4.661   8.866   4.538
85967SOL    HW259741   4.550   8.945   4.603
85968SOL     OW59742   2.425   7.984   2.635
85968SOL    HW159743   2.429   8.077   2.660
85968SOL    HW259744   2.435   7.937   2.718
85969SOL     OW59745   8.709   2.321   9.662
85969SOL    HW159746   8.643   2.344   9.597
85969SOL    HW259747   8.789   2.363   9.630
85970SOL     OW59748   2.000   9.012  12.297
85970SOL    HW159749   2.031   8.957  12.225
85970SOL    HW259750   2.033   9.099  12.276
85971SOL     OW59751  13.869   1.075   9.382
85971SOL    HW159752  13.915   1.117   9.309
85971SOL    HW259753  13.921   0.997   9.402
85972SOL     OW59754   0.439   5.657  10.357
85972SOL    HW159755   0.396   5.699  10.432
85972SOL    HW259756   0.427   5.563  10.372
85973SOL     OW59757   2.884   2.282   6.016
85973SOL    HW159758   2.928   2.261   6.098
85973SOL    HW259759   2.944   2.342   5.971
85974SOL     OW59760   1.395   5.687   7.865
85974SOL    HW159761   1.422   5.651   7.950
85974SOL    HW259762   1.315   5.638   7.844
85975SOL     OW59763   6.710   8.327   8.285
85975SOL    HW159764   6.728   8.382   8.362
85975SOL    HW259765   6.767   8.251   8.297
85976SOL     OW59766   4.007   0.955  12.707
85976SOL    HW159767   3.932   0.981  12.759
85976SOL    HW259768   4.076   1.017  12.731
85977SOL     OW59769   9.728  14.318   6.495
85977SOL    HW159770   9.668  14.377   6.450
85977SOL    HW259771   9.679  14.236   6.503
85978SOL     OW59772   9.703   5.219  11.489
85978SOL    HW159773   9.731   5.179  11.407
85978SOL    HW259774   9.629   5.165  11.518
85979SOL     OW59775   9.099   9.095  13.518
85979SOL    HW159776   9.097   9.001  13.503
85979SOL    HW259777   9.087   9.133  13.431
85980SOL     OW59778  11.546   7.052  13.984
85980SOL    HW159779  11.510   7.072  14.070
85980SOL    HW259780  11.469   7.039  13.928
85981SOL     OW59781   2.911   5.515  13.851
85981SOL    HW159782   2.979   5.521  13.918
85981SOL    HW259783   2.918   5.426  13.817
85982SOL     OW59784   8.285   7.120   2.280
85982SOL    HW159785   8.257   7.041   2.327
85982SOL    HW259786   8.357   7.155   2.333
85983SOL     OW59787  11.653   6.971   2.632
85983SOL    HW159788  11.625   7.057   2.600
85983SOL    HW259789  11.748   6.975   2.630
85984SOL     OW59790   5.156   4.249  14.535
85984SOL    HW159791   5.126   4.297  14.459
85984SOL    HW259792   5.241   4.288  14.557
85985SOL     OW59793  14.099  14.085   1.897
85985SOL    HW159794  14.105  14.053   1.808
85985SOL    HW259795  14.055  14.170   1.889
85986SOL     OW59796   5.503  10.674   4.488
85986SOL    HW159797   5.588  10.633   4.506
85986SOL    HW259798   5.493  10.738   4.559
85987SOL     OW59799   7.691  10.705   5.519
85987SOL    HW159800   7.677  10.781   5.463
85987SOL    HW259801   7.613  10.702   5.574
85988SOL     OW59802   7.391   6.760  14.090
85988SOL    HW159803   7.452   6.754  14.163
85988SOL    HW259804   7.400   6.677  14.043
85989SOL     OW59805  13.151  13.496   3.673
85989SOL    HW159806  13.066  13.537   3.657
85989SOL    HW259807  13.213  13.569   3.676
85990SOL     OW59808  11.086   2.560  11.236
85990SOL    HW159809  10.999   2.538  11.269
85990SOL    HW259810  11.123   2.619  11.302
85991SOL     OW59811   2.567  13.591  14.723
85991SOL    HW159812   2.512  13.525  14.680
85991SOL    HW259813   2.655  13.553  14.721
85992SOL     OW59814   3.903  14.594  11.691
85992SOL    HW159815   3.975  14.559  11.745
85992SOL    HW259816   3.904  14.688  11.709
85993SOL     OW59817   3.653   1.154   1.598
85993SOL    HW159818   3.709   1.185   1.669
85993SOL    HW259819   3.644   1.060   1.613
85994SOL     OW59820   8.796   6.475  10.473
85994SOL    HW159821   8.722   6.427  10.438
85994SOL    HW259822   8.835   6.416  10.538
85995SOL     OW59823   5.322  10.649  14.177
85995SOL    HW159824   5.302  10.742  14.185
85995SOL    HW259825   5.417  10.645  14.170
85996SOL     OW59826   9.069  11.129   5.477
85996SOL    HW159827   9.059  11.097   5.388
85996SOL    HW259828   9.058  11.224   5.470
85997SOL     OW59829   3.081   6.994  14.037
85997SOL    HW159830   3.155   7.001  14.098
85997SOL    HW259831   3.006   6.972  14.093
85998SOL     OW59832  14.666   7.295   4.785
85998SOL    HW159833  14.651   7.365   4.849
85998SOL    HW259834  14.723   7.335   4.720
85999SOL     OW59835   0.004   5.810   8.078
85999SOL    HW159836  14.841   5.857   8.005
85999SOL    HW259837   0.098   5.819   8.065
86000SOL     OW59838  10.505  14.149   5.965
86000SOL    HW159839  10.516  14.055   5.952
86000SOL    HW259840  10.412  14.161   5.981
86001SOL     OW59841   4.503   9.826   7.169
86001SOL    HW159842   4.488   9.853   7.078
86001SOL    HW259843   4.422   9.851   7.215
86002SOL     OW59844   0.034  11.664   8.728
86002SOL    HW159845   0.073  11.640   8.812
86002SOL    HW259846   0.108  11.694   8.675
86003SOL     OW59847  13.399   1.798  11.279
86003SOL    HW159848  13.437   1.719  11.318
86003SOL    HW259849  13.352   1.840  11.351
86004SOL     OW59850   3.557   9.811  11.612
86004SOL    HW159851   3.511   9.742  11.564
86004SOL    HW259852   3.634   9.767  11.649
86005SOL     OW59853   8.922   4.237  11.749
86005SOL    HW159854   9.000   4.265  11.797
86005SOL    HW259855   8.855   4.227  11.816
86006SOL     OW59856   6.348   9.367   4.659
86006SOL    HW159857   6.296   9.289   4.643
86006SOL    HW259858   6.341   9.382   4.754
86007SOL     OW59859  11.914  14.513   0.588
86007SOL    HW159860  11.871  14.428   0.574
86007SOL    HW259861  12.004  14.499   0.557
86008SOL     OW59862  12.746  12.403   3.770
86008SOL    HW159863  12.834  12.401   3.734
86008SOL    HW259864  12.715  12.492   3.754
86009SOL     OW59865   1.768   5.479   1.060
86009SOL    HW159866   1.804   5.493   0.973
86009SOL    HW259867   1.711   5.555   1.075
86010SOL     OW59868  10.266   4.630   5.238
86010SOL    HW159869  10.269   4.568   5.166
86010SOL    HW259870  10.357   4.641   5.265
86011SOL     OW59871  11.008  12.356   6.400
86011SOL    HW159872  10.955  12.430   6.368
86011SOL    HW259873  10.999  12.289   6.331
86012SOL     OW59874   9.640   1.719   6.531
86012SOL    HW159875   9.656   1.635   6.487
86012SOL    HW259876   9.623   1.780   6.459
86013SOL     OW59877  11.639  10.770   3.968
86013SOL    HW159878  11.731  10.746   3.960
86013SOL    HW259879  11.591  10.690   3.948
86014SOL     OW59880  14.386  13.374  14.348
86014SOL    HW159881  14.404  13.310  14.417
86014SOL    HW259882  14.295  13.360  14.325
86015SOL     OW59883   4.672  11.285   2.298
86015SOL    HW159884   4.756  11.303   2.339
86015SOL    HW259885   4.618  11.249   2.367
86016SOL     OW59886   9.479   3.992  12.857
86016SOL    HW159887   9.469   3.995  12.952
86016SOL    HW259888   9.471   4.082  12.828
86017SOL     OW59889   0.775   5.502  14.443
86017SOL    HW159890   0.680   5.503  14.437
86017SOL    HW259891   0.802   5.425  14.393
86018SOL     OW59892   4.243   0.987   3.692
86018SOL    HW159893   4.308   0.983   3.762
86018SOL    HW259894   4.293   0.973   3.612
86019SOL     OW59895  13.096   4.813  11.435
86019SOL    HW159896  13.031   4.759  11.479
86019SOL    HW259897  13.158   4.751  11.396
86020SOL     OW59898   2.233   0.170   0.607
86020SOL    HW159899   2.219   0.118   0.686
86020SOL    HW259900   2.148   0.171   0.564
86021SOL     OW59901  11.694   3.555   1.956
86021SOL    HW159902  11.783   3.575   1.925
86021SOL    HW259903  11.670   3.631   2.010
86022SOL     OW59904   3.017   6.191  14.485
86022SOL    HW159905   3.091   6.153  14.438
86022SOL    HW259906   2.946   6.128  14.473
86023SOL     OW59907   7.278   9.939   4.807
86023SOL    HW159908   7.250  10.023   4.845
86023SOL    HW259909   7.324   9.895   4.879
86024SOL     OW59910   9.154  10.367   3.609
86024SOL    HW159911   9.232  10.314   3.625
86024SOL    HW259912   9.099  10.353   3.686
86025SOL     OW59913   1.388   7.222  11.948
86025SOL    HW159914   1.336   7.191  12.023
86025SOL    HW259915   1.366   7.162  11.877
86026SOL     OW59916   2.278  12.484   8.536
86026SOL    HW159917   2.273  12.510   8.628
86026SOL    HW259918   2.365  12.445   8.527
86027SOL     OW59919   3.929  10.120   8.139
86027SOL    HW159920   3.962  10.090   8.054
86027SOL    HW259921   3.913  10.214   8.126
86028SOL     OW59922   1.260  12.131   7.717
86028SOL    HW159923   1.241  12.139   7.811
86028SOL    HW259924   1.188  12.079   7.683
86029SOL     OW59925  13.190   3.621   4.835
86029SOL    HW159926  13.157   3.557   4.773
86029SOL    HW259927  13.269   3.581   4.871
86030SOL     OW59928  11.390  13.504   9.106
86030SOL    HW159929  11.474  13.467   9.134
86030SOL    HW259930  11.370  13.459   9.023
86031SOL     OW59931   1.069   3.993   4.293
86031SOL    HW159932   1.059   3.939   4.214
86031SOL    HW259933   1.164   4.006   4.301
86032SOL     OW59934   9.867   7.348   0.625
86032SOL    HW159935   9.850   7.430   0.672
86032SOL    HW259936   9.915   7.294   0.688
86033SOL     OW59937   1.576   7.098  11.433
86033SOL    HW159938   1.657   7.070  11.390
86033SOL    HW259939   1.534   7.016  11.461
86034SOL     OW59940  10.257   1.848   4.218
86034SOL    HW159941  10.188   1.912   4.237
86034SOL    HW259942  10.233   1.812   4.133
86035SOL     OW59943   6.705  11.870   0.163
86035SOL    HW159944   6.703  11.777   0.183
86035SOL    HW259945   6.795  11.898   0.182
86036SOL     OW59946  11.391  12.354   2.096
86036SOL    HW159947  11.389  12.345   2.191
86036SOL    HW259948  11.407  12.447   2.081
86037SOL     OW59949   6.072   5.234   2.280
86037SOL    HW159950   5.983   5.228   2.246
86037SOL    HW259951   6.127   5.216   2.204
86038SOL     OW59952   1.178   9.132  14.509
86038SOL    HW159953   1.122   9.196  14.553
86038SOL    HW259954   1.212   9.178  14.433
86039SOL     OW59955   1.579  10.153   0.093
86039SOL    HW159956   1.659  10.127   0.140
86039SOL    HW259957   1.607  10.163   0.002
86040SOL     OW59958   1.683   6.580   6.330
86040SOL    HW159959   1.671   6.632   6.410
86040SOL    HW259960   1.607   6.603   6.276
86041SOL     OW59961   0.031  12.047   0.282
86041SOL    HW159962  14.856  12.053   0.363
86041SOL    HW259963   0.100  12.113   0.293
86042SOL     OW59964  10.304   6.980   3.400
86042SOL    HW159965  10.372   6.913   3.398
86042SOL    HW259966  10.347   7.057   3.436
86043SOL     OW59967   1.073   2.540   2.910
86043SOL    HW159968   1.007   2.594   2.867
86043SOL    HW259969   1.022   2.486   2.971
86044SOL     OW59970   9.292  12.426   9.588
86044SOL    HW159971   9.366  12.443   9.529
86044SOL    HW259972   9.215  12.456   9.539
86045SOL     OW59973  12.318  14.391   9.519
86045SOL    HW159974  12.289  14.462   9.461
86045SOL    HW259975  12.241  14.369   9.571
86046SOL     OW59976  12.424   8.047   8.237
86046SOL    HW159977  12.338   8.034   8.277
86046SOL    HW259978  12.484   7.994   8.291
86047SOL     OW59979  14.616   1.913  13.064
86047SOL    HW159980  14.697   1.946  13.102
86047SOL    HW259981  14.587   1.983  13.006
86048SOL     OW59982   1.394  11.353   7.249
86048SOL    HW159983   1.320  11.320   7.300
86048SOL    HW259984   1.450  11.277   7.235
86049SOL     OW59985   1.433   6.980   2.873
86049SOL    HW159986   1.494   6.913   2.841
86049SOL    HW259987   1.489   7.051   2.904
86050SOL     OW59988  11.970  13.040  11.455
86050SOL    HW159989  11.980  13.085  11.539
86050SOL    HW259990  11.970  12.947  11.477
86051SOL     OW59991  13.821  11.635   2.524
86051SOL    HW159992  13.728  11.631   2.502
86051SOL    HW259993  13.823  11.630   2.620
86052SOL     OW59994  11.286   1.863   6.495
86052SOL    HW159995  11.262   1.771   6.504
86052SOL    HW259996  11.356   1.864   6.430
86053SOL     OW59997   0.557   3.334  11.042
86053SOL    HW159998   0.481   3.388  11.023
86053SOL    HW259999   0.631   3.395  11.040
86054SOL     OW60000  14.281  11.509   3.385
86054SOL    HW160001  14.188  11.488   3.390
86054SOL    HW260002  14.312  11.462   3.307
86055SOL     OW60003  13.716   4.436   5.891
86055SOL    HW160004  13.663   4.504   5.934
86055SOL    HW260005  13.675   4.426   5.805
86056SOL     OW60006   9.562   8.543   2.864
86056SOL    HW160007   9.643   8.496   2.883
86056SOL    HW260008   9.512   8.538   2.946
86057SOL     OW60009   2.420   4.578   2.336
86057SOL    HW160010   2.386   4.635   2.267
86057SOL    HW260011   2.475   4.635   2.390
86058SOL     OW60012  13.682   7.613   9.922
86058SOL    HW160013  13.705   7.531   9.878
86058SOL    HW260014  13.642   7.585  10.004
86059SOL     OW60015   1.248  11.598   3.457
86059SOL    HW160016   1.164  11.552   3.463
86059SOL    HW260017   1.303  11.542   3.402
86060SOL     OW60018   5.031   5.810   4.421
86060SOL    HW160019   4.962   5.744   4.430
86060SOL    HW260020   4.993   5.890   4.460
86061SOL     OW60021  10.695   9.149   9.498
86061SOL    HW160022  10.741   9.074   9.459
86061SOL    HW260023  10.681   9.209   9.425
86062SOL     OW60024   7.826  12.525  12.520
86062SOL    HW160025   7.813  12.474  12.600
86062SOL    HW260026   7.778  12.478  12.453
86063SOL     OW60027   2.454   7.385  14.468
86063SOL    HW160028   2.406   7.381  14.551
86063SOL    HW260029   2.536   7.429  14.491
86064SOL     OW60030  11.801  11.610   5.609
86064SOL    HW160031  11.764  11.587   5.694
86064SOL    HW260032  11.725  11.637   5.557
86065SOL     OW60033  10.330  14.857  12.510
86065SOL    HW160034  10.259   0.045  12.514
86065SOL    HW260035  10.322  14.819  12.422
86066SOL     OW60036  14.459   3.770   1.779
86066SOL    HW160037  14.414   3.688   1.758
86066SOL    HW260038  14.493   3.800   1.695
86067SOL     OW60039   7.328   2.042   0.762
86067SOL    HW160040   7.331   2.128   0.805
86067SOL    HW260041   7.236   2.016   0.768
86068SOL     OW60042   7.659   6.880   8.208
86068SOL    HW160043   7.625   6.861   8.296
86068SOL    HW260044   7.586   6.923   8.163
86069SOL     OW60045   6.267  10.907  12.910
86069SOL    HW160046   6.338  10.898  12.847
86069SOL    HW260047   6.311  10.916  12.994
86070SOL     OW60048  12.226   6.441   6.210
86070SOL    HW160049  12.243   6.529   6.174
86070SOL    HW260050  12.130   6.434   6.207
86071SOL     OW60051   5.627  10.799   2.360
86071SOL    HW160052   5.697  10.816   2.297
86071SOL    HW260053   5.603  10.885   2.394
86072SOL     OW60054  13.351  14.075  13.737
86072SOL    HW160055  13.371  14.144  13.673
86072SOL    HW260056  13.430  14.022  13.742
86073SOL     OW60057   2.221   6.334   2.136
86073SOL    HW160058   2.191   6.424   2.139
86073SOL    HW260059   2.217   6.303   2.227
86074SOL     OW60060   4.703   9.443  10.288
86074SOL    HW160061   4.775   9.505  10.301
86074SOL    HW260062   4.734   9.385  10.218
86075SOL     OW60063  11.242  13.094   8.385
86075SOL    HW160064  11.194  13.175   8.368
86075SOL    HW260065  11.226  13.040   8.307
86076SOL     OW60066   5.973  12.779   0.939
86076SOL    HW160067   6.036  12.723   0.984
86076SOL    HW260068   5.888  12.740   0.958
86077SOL     OW60069  12.876   7.549   4.837
86077SOL    HW160070  12.883   7.513   4.926
86077SOL    HW260071  12.876   7.643   4.849
86078SOL     OW60072  10.674  12.734   1.175
86078SOL    HW160073  10.749  12.705   1.227
86078SOL    HW260074  10.696  12.707   1.085
86079SOL     OW60075   9.701   9.118   5.002
86079SOL    HW160076   9.632   9.164   4.954
86079SOL    HW260077   9.664   9.101   5.088
86080SOL     OW60078   8.334  12.864  12.474
86080SOL    HW160079   8.342  12.809  12.552
86080SOL    HW260080   8.423  12.869  12.438
86081SOL     OW60081  14.603   1.332  10.265
86081SOL    HW160082  14.652   1.336  10.347
86081SOL    HW260083  14.647   1.396  10.208
86082SOL     OW60084  11.994   5.447   3.130
86082SOL    HW160085  12.078   5.443   3.084
86082SOL    HW260086  11.992   5.368   3.184
86083SOL     OW60087   9.539   6.262  11.373
86083SOL    HW160088   9.566   6.170  11.374
86083SOL    HW260089   9.507   6.277  11.284
86084SOL     OW60090   2.670   0.060  11.040
86084SOL    HW160091   2.675   0.143  11.087
86084SOL    HW260092   2.760   0.029  11.035
86085SOL     OW60093  12.428   3.931   1.259
86085SOL    HW160094  12.445   3.996   1.191
86085SOL    HW260095  12.333   3.928   1.267
86086SOL     OW60096  12.800   3.397   0.406
86086SOL    HW160097  12.785   3.308   0.439
86086SOL    HW260098  12.895   3.401   0.391
86087SOL     OW60099   8.189   2.173  12.621
86087SOL    HW160100   8.158   2.264  12.622
86087SOL    HW260101   8.115   2.122  12.588
86088SOL     OW60102   1.541   5.987   8.682
86088SOL    HW160103   1.483   6.042   8.630
86088SOL    HW260104   1.538   5.901   8.640
86089SOL     OW60105   8.623   4.567  10.702
86089SOL    HW160106   8.656   4.554  10.791
86089SOL    HW260107   8.670   4.502  10.649
86090SOL     OW60108   2.811   8.613   4.430
86090SOL    HW160109   2.734   8.656   4.394
86090SOL    HW260110   2.793   8.519   4.421
86091SOL     OW60111   1.356   6.329  10.101
86091SOL    HW160112   1.262   6.333  10.084
86091SOL    HW260113   1.392   6.405  10.055
86092SOL     OW60114  10.163   4.409   6.786
86092SOL    HW160115  10.173   4.329   6.839
86092SOL    HW260116  10.142   4.477   6.850
86093SOL     OW60117   2.332   4.618  12.903
86093SOL    HW160118   2.414   4.614  12.951
86093SOL    HW260119   2.289   4.534  12.921
86094SOL     OW60120   8.453   2.133   2.449
86094SOL    HW160121   8.430   2.057   2.502
86094SOL    HW260122   8.543   2.117   2.422
86095SOL     OW60123  12.140   9.889  14.043
86095SOL    HW160124  12.235   9.896  14.055
86095SOL    HW260125  12.110   9.980  14.035
86096SOL     OW60126   5.251   4.840   7.801
86096SOL    HW160127   5.229   4.905   7.734
86096SOL    HW260128   5.268   4.892   7.880
86097SOL     OW60129   3.616  13.057   4.347
86097SOL    HW160130   3.701  13.061   4.303
86097SOL    HW260131   3.637  13.054   4.440
86098SOL     OW60132   2.947   5.466  14.563
86098SOL    HW160133   2.880   5.524  14.525
86098SOL    HW260134   2.899   5.386  14.584
86099SOL     OW60135   7.574   7.573  14.793
86099SOL    HW160136   7.669   7.587  14.786
86099SOL    HW260137   7.537   7.619  14.718
86100SOL     OW60138   3.016   0.524   2.918
86100SOL    HW160139   2.991   0.433   2.935
86100SOL    HW260140   3.014   0.565   3.005
86101SOL     OW60141   8.506  11.299  10.745
86101SOL    HW160142   8.550  11.371  10.790
86101SOL    HW260143   8.433  11.339  10.700
86102SOL     OW60144  13.567   0.209  14.803
86102SOL    HW160145  13.506   0.270  14.762
86102SOL    HW260146  13.571   0.135  14.743
86103SOL     OW60147   9.805   2.697  13.494
86103SOL    HW160148   9.873   2.645  13.451
86103SOL    HW260149   9.756   2.635  13.547
86104SOL     OW60150  14.738  12.146   1.483
86104SOL    HW160151  14.770  12.236   1.473
86104SOL    HW260152  14.801  12.092   1.436
86105SOL     OW60153   6.427   1.632   6.951
86105SOL    HW160154   6.401   1.543   6.972
86105SOL    HW260155   6.517   1.639   6.981
86106SOL     OW60156   7.902   2.366   3.786
86106SOL    HW160157   7.901   2.295   3.849
86106SOL    HW260158   7.981   2.350   3.733
86107SOL     OW60159  14.773   7.118   7.579
86107SOL    HW160160  14.806   7.090   7.494
86107SOL    HW260161  14.750   7.036   7.624
86108SOL     OW60162   9.251   7.376  13.910
86108SOL    HW160163   9.161   7.394  13.883
86108SOL    HW260164   9.251   7.284  13.936
86109SOL     OW60165  13.222  11.377   6.286
86109SOL    HW160166  13.134  11.378   6.324
86109SOL    HW260167  13.274  11.431   6.345
86110SOL     OW60168  13.040  10.688   7.262
86110SOL    HW160169  13.121  10.730   7.293
86110SOL    HW260170  12.973  10.716   7.324
86111SOL     OW60171  11.301   5.536   0.314
86111SOL    HW160172  11.228   5.484   0.282
86111SOL    HW260173  11.316   5.505   0.403
86112SOL     OW60174   4.760   9.754   9.210
86112SOL    HW160175   4.846   9.726   9.242
86112SOL    HW260176   4.732   9.821   9.272
86113SOL     OW60177   5.346   0.631   5.914
86113SOL    HW160178   5.274   0.591   5.865
86113SOL    HW260179   5.425   0.603   5.868
86114SOL     OW60180  11.550   6.191  13.158
86114SOL    HW160181  11.509   6.254  13.217
86114SOL    HW260182  11.506   6.204  13.074
86115SOL     OW60183   6.674  10.708  13.520
86115SOL    HW160184   6.746  10.761  13.556
86115SOL    HW260185   6.715  10.655  13.452
86116SOL     OW60186  11.073   5.674   9.612
86116SOL    HW160187  11.038   5.761   9.630
86116SOL    HW260188  11.133   5.687   9.538
86117SOL     OW60189   9.313   2.507   1.532
86117SOL    HW160190   9.376   2.574   1.556
86117SOL    HW260191   9.253   2.550   1.471
86118SOL     OW60192  12.037   3.329   8.766
86118SOL    HW160193  12.053   3.248   8.717
86118SOL    HW260194  11.942   3.340   8.764
86119SOL     OW60195   5.667   9.222   7.908
86119SOL    HW160196   5.726   9.149   7.930
86119SOL    HW260197   5.619   9.238   7.989
86120SOL     OW60198   3.918   2.473  14.398
86120SOL    HW160199   3.965   2.470  14.315
86120SOL    HW260200   3.840   2.525  14.381
86121SOL     OW60201   5.421  12.203  12.393
86121SOL    HW160202   5.470  12.161  12.463
86121SOL    HW260203   5.385  12.131  12.342
86122SOL     OW60204  13.103   0.950   2.004
86122SOL    HW160205  13.197   0.957   1.985
86122SOL    HW260206  13.096   0.962   2.098
86123SOL     OW60207   1.732   6.344  14.845
86123SOL    HW160208   1.639   6.361  14.829
86123SOL    HW260209   1.744   6.365   0.061
86124SOL     OW60210  12.325   2.366  13.943
86124SOL    HW160211  12.351   2.446  13.898
86124SOL    HW260212  12.229   2.371  13.948
86125SOL     OW60213   6.372   4.629  12.640
86125SOL    HW160214   6.449   4.578  12.614
86125SOL    HW260215   6.299   4.588  12.593
86126SOL     OW60216   1.149  12.196  12.783
86126SOL    HW160217   1.179  12.263  12.844
86126SOL    HW260218   1.079  12.238  12.733
86127SOL     OW60219   7.659  12.154   7.200
86127SOL    HW160220   7.723  12.217   7.167
86127SOL    HW260221   7.620  12.117   7.121
86128SOL     OW60222   4.295   9.716   6.718
86128SOL    HW160223   4.358   9.731   6.789
86128SOL    HW260224   4.288   9.800   6.674
86129SOL     OW60225   7.848   5.149  10.046
86129SOL    HW160226   7.849   5.167  10.140
86129SOL    HW260227   7.756   5.131  10.026
86130SOL     OW60228   5.165   5.094   7.619
86130SOL    HW160229   5.128   5.128   7.700
86130SOL    HW260230   5.108   5.021   7.595
86131SOL     OW60231  10.174   0.571   8.868
86131SOL    HW160232  10.210   0.557   8.955
86131SOL    HW260233  10.218   0.649   8.836
86132SOL     OW60234   8.377   7.928   9.719
86132SOL    HW160235   8.305   7.874   9.751
86132SOL    HW260236   8.449   7.867   9.706
86133SOL     OW60237  14.061   3.017  12.511
86133SOL    HW160238  14.122   2.949  12.540
86133SOL    HW260239  14.060   3.081  12.581
86134SOL     OW60240   3.200   8.799  11.076
86134SOL    HW160241   3.253   8.744  11.132
86134SOL    HW260242   3.257   8.872  11.053
86135SOL     OW60243   7.431  10.159   9.598
86135SOL    HW160244   7.379  10.092   9.554
86135SOL    HW260245   7.393  10.242   9.567
86136SOL     OW60246  10.425   8.214   2.405
86136SOL    HW160247  10.348   8.180   2.451
86136SOL    HW260248  10.475   8.260   2.473
86137SOL     OW60249   5.221   3.361   8.284
86137SOL    HW160250   5.282   3.314   8.341
86137SOL    HW260251   5.254   3.451   8.282
86138SOL     OW60252   1.013   1.604  11.479
86138SOL    HW160253   1.075   1.627  11.409
86138SOL    HW260254   0.947   1.674  11.475
86139SOL     OW60255   9.287   3.442   5.691
86139SOL    HW160256   9.370   3.467   5.650
86139SOL    HW260257   9.292   3.479   5.779
86140SOL     OW60258   3.119  13.024   9.155
86140SOL    HW160259   3.209  13.009   9.184
86140SOL    HW260260   3.070  12.948   9.185
86141SOL     OW60261  13.197   9.145  13.194
86141SOL    HW160262  13.104   9.134  13.214
86141SOL    HW260263  13.203   9.131  13.099
86142SOL     OW60264  14.222   5.873   4.691
86142SOL    HW160265  14.309   5.908   4.673
86142SOL    HW260266  14.229   5.779   4.675
86143SOL     OW60267   8.476   5.696  11.524
86143SOL    HW160268   8.559   5.741  11.512
86143SOL    HW260269   8.471   5.635  11.451
86144SOL     OW60270  13.281   0.929  10.019
86144SOL    HW160271  13.312   0.984   9.948
86144SOL    HW260272  13.211   0.979  10.060
86145SOL     OW60273   3.559  12.068   0.970
86145SOL    HW160274   3.475  12.041   0.933
86145SOL    HW260275   3.604  12.111   0.897
86146SOL     OW60276  11.637  13.272   2.235
86146SOL    HW160277  11.593  13.213   2.174
86146SOL    HW260278  11.716  13.301   2.189
86147SOL     OW60279   4.940   8.554  13.890
86147SOL    HW160280   5.014   8.494  13.888
86147SOL    HW260281   4.874   8.513  13.835
86148SOL     OW60282  14.703  10.842   6.477
86148SOL    HW160283  14.740  10.773   6.530
86148SOL    HW260284  14.717  10.922   6.528
86149SOL     OW60285   9.901  13.356   8.135
86149SOL    HW160286   9.847  13.365   8.057
86149SOL    HW260287   9.979  13.309   8.105
86150SOL     OW60288   6.743  14.596   1.263
86150SOL    HW160289   6.725  14.677   1.215
86150SOL    HW260290   6.832  14.608   1.297
86151SOL     OW60291   9.189   6.426   2.549
86151SOL    HW160292   9.185   6.330   2.549
86151SOL    HW260293   9.246   6.447   2.623
86152SOL     OW60294   5.121   1.301   4.692
86152SOL    HW160295   5.051   1.294   4.758
86152SOL    HW260296   5.159   1.387   4.708
86153SOL     OW60297   9.396   6.877   6.004
86153SOL    HW160298   9.429   6.821   5.934
86153SOL    HW260299   9.466   6.878   6.069
86154SOL     OW60300   1.990  14.696   2.314
86154SOL    HW160301   2.018  14.619   2.264
86154SOL    HW260302   1.895  14.693   2.312
86155SOL     OW60303  13.459   9.727   3.175
86155SOL    HW160304  13.545   9.692   3.150
86155SOL    HW260305  13.402   9.705   3.102
86156SOL     OW60306  12.066   4.716   2.624
86156SOL    HW160307  11.971   4.715   2.639
86156SOL    HW260308  12.104   4.687   2.707
86157SOL     OW60309   7.188  11.429   3.612
86157SOL    HW160310   7.221  11.339   3.616
86157SOL    HW260311   7.231  11.473   3.685
86158SOL     OW60312   5.350   7.566  12.448
86158SOL    HW160313   5.431   7.557  12.397
86158SOL    HW260314   5.373   7.536  12.535
86159SOL     OW60315   4.594   2.096  12.106
86159SOL    HW160316   4.519   2.127  12.056
86159SOL    HW260317   4.623   2.172  12.157
86160SOL     OW60318   6.348  11.986   1.784
86160SOL    HW160319   6.286  12.052   1.755
86160SOL    HW260320   6.371  12.012   1.873
86161SOL     OW60321  13.813  10.660   5.107
86161SOL    HW160322  13.748  10.594   5.130
86161SOL    HW260323  13.783  10.696   5.024
86162SOL     OW60324   2.595   1.726   5.920
86162SOL    HW160325   2.607   1.663   5.849
86162SOL    HW260326   2.517   1.696   5.966
86163SOL     OW60327   4.620   0.877   1.773
86163SOL    HW160328   4.696   0.935   1.780
86163SOL    HW260329   4.588   0.870   1.863
86164SOL     OW60330   3.902  10.759   6.721
86164SOL    HW160331   3.863  10.761   6.634
86164SOL    HW260332   3.989  10.722   6.708
86165SOL     OW60333   3.504  13.574   0.472
86165SOL    HW160334   3.538  13.604   0.556
86165SOL    HW260335   3.579  13.578   0.413
86166SOL     OW60336   8.337   3.117  13.361
86166SOL    HW160337   8.349   3.022  13.357
86166SOL    HW260338   8.377   3.149  13.280
86167SOL     OW60339   3.703   5.833  12.577
86167SOL    HW160340   3.774   5.857  12.636
86167SOL    HW260341   3.694   5.908  12.518
86168SOL     OW60342   6.231   3.997   1.619
86168SOL    HW160343   6.163   3.932   1.599
86168SOL    HW260344   6.230   4.056   1.544
86169SOL     OW60345   2.214   0.952   2.996
86169SOL    HW160346   2.259   0.894   2.935
86169SOL    HW260347   2.283   1.006   3.033
86170SOL     OW60348  10.788   0.668   4.980
86170SOL    HW160349  10.817   0.681   4.889
86170SOL    HW260350  10.847   0.722   5.032
86171SOL     OW60351  14.811   1.949   7.166
86171SOL    HW160352   0.030   1.948   7.173
86171SOL    HW260353  14.781   1.909   7.248
86172SOL     OW60354   6.588   2.460  13.761
86172SOL    HW160355   6.612   2.396  13.827
86172SOL    HW260356   6.609   2.417  13.678
86173SOL     OW60357  14.133   1.377   7.277
86173SOL    HW160358  14.143   1.292   7.320
86173SOL    HW260359  14.134   1.358   7.184
86174SOL     OW60360  12.481  12.102   9.053
86174SOL    HW160361  12.402  12.154   9.066
86174SOL    HW260362  12.541  12.161   9.005
86175SOL     OW60363   5.441   0.790   0.659
86175SOL    HW160364   5.447   0.695   0.653
86175SOL    HW260365   5.459   0.810   0.751
86176SOL     OW60366   5.831   3.910   5.670
86176SOL    HW160367   5.783   3.956   5.739
86176SOL    HW260368   5.863   3.830   5.712
86177SOL     OW60369   2.582   5.170  13.163
86177SOL    HW160370   2.576   5.102  13.095
86177SOL    HW260371   2.597   5.121  13.244
86178SOL     OW60372   2.919   4.431   9.864
86178SOL    HW160373   2.865   4.505   9.891
86178SOL    HW260374   2.975   4.466   9.795
86179SOL     OW60375   9.660  11.046  11.058
86179SOL    HW160376   9.625  11.017  11.142
86179SOL    HW260377   9.613  11.127  11.038
86180SOL     OW60378   8.178   0.500   0.212
86180SOL    HW160379   8.194   0.405   0.214
86180SOL    HW260380   8.113   0.512   0.143
86181SOL     OW60381   6.437   7.434  12.083
86181SOL    HW160382   6.500   7.481  12.138
86181SOL    HW260383   6.440   7.480  11.999
86182SOL     OW60384   3.499  12.899   1.720
86182SOL    HW160385   3.416  12.932   1.754
86182SOL    HW260386   3.516  12.820   1.772
86183SOL     OW60387   6.324  14.348   8.034
86183SOL    HW160388   6.298  14.421   7.977
86183SOL    HW260389   6.271  14.359   8.113
86184SOL     OW60390   2.846   9.275   1.291
86184SOL    HW160391   2.815   9.360   1.321
86184SOL    HW260392   2.781   9.247   1.227
86185SOL     OW60393   8.498   9.720   9.553
86185SOL    HW160394   8.457   9.793   9.599
86185SOL    HW260395   8.559   9.762   9.492
86186SOL     OW60396  13.257  11.538   6.542
86186SOL    HW160397  13.190  11.603   6.566
86186SOL    HW260398  13.340  11.578   6.567
86187SOL     OW60399   3.170   9.898  12.802
86187SOL    HW160400   3.118   9.926  12.726
86187SOL    HW260401   3.261   9.908  12.774
86188SOL     OW60402   5.070  13.854  14.011
86188SOL    HW160403   5.071  13.946  13.984
86188SOL    HW260404   5.150  13.843  14.062
86189SOL     OW60405   4.242  13.260   6.698
86189SOL    HW160406   4.246  13.337   6.642
86189SOL    HW260407   4.156  13.222   6.681
86190SOL     OW60408  10.107   5.315  10.863
86190SOL    HW160409  10.079   5.406  10.862
86190SOL    HW260410  10.041   5.268  10.812
86191SOL     OW60411  12.032   1.902   3.244
86191SOL    HW160412  12.033   1.979   3.302
86191SOL    HW260413  12.074   1.833   3.295
86192SOL     OW60414   3.625   4.764   6.245
86192SOL    HW160415   3.621   4.839   6.186
86192SOL    HW260416   3.716   4.759   6.272
86193SOL     OW60417   9.493  13.524  13.571
86193SOL    HW160418   9.464  13.519  13.480
86193SOL    HW260419   9.451  13.451  13.614
86194SOL     OW60420  11.199   2.095  10.911
86194SOL    HW160421  11.252   2.033  10.960
86194SOL    HW260422  11.202   2.175  10.964
86195SOL     OW60423  10.038   7.433   1.132
86195SOL    HW160424  10.090   7.454   1.209
86195SOL    HW260425  10.096   7.379   1.078
86196SOL     OW60426   6.840   3.983  14.030
86196SOL    HW160427   6.790   3.954  13.954
86196SOL    HW260428   6.850   4.078  14.018
86197SOL     OW60429  12.877   1.571   0.439
86197SOL    HW160430  12.862   1.665   0.437
86197SOL    HW260431  12.958   1.559   0.389
86198SOL     OW60432   9.725  10.260   7.121
86198SOL    HW160433   9.683  10.179   7.092
86198SOL    HW260434   9.652  10.316   7.147
86199SOL     OW60435   4.907  11.969  14.685
86199SOL    HW160436   4.986  11.915  14.692
86199SOL    HW260437   4.850  11.922  14.624
86200SOL     OW60438   8.167   3.994  10.805
86200SOL    HW160439   8.225   4.066  10.780
86200SOL    HW260440   8.087   4.037  10.834
86201SOL     OW60441   0.264   8.886  11.827
86201SOL    HW160442   0.239   8.871  11.736
86201SOL    HW260443   0.357   8.863  11.829
86202SOL     OW60444  12.481   8.989   1.566
86202SOL    HW160445  12.427   8.971   1.644
86202SOL    HW260446  12.547   9.051   1.597
86203SOL     OW60447   7.671   4.913   6.461
86203SOL    HW160448   7.610   4.939   6.531
86203SOL    HW260449   7.748   4.968   6.475
86204SOL     OW60450   3.250   3.490  13.493
86204SOL    HW160451   3.220   3.561  13.550
86204SOL    HW260452   3.277   3.533  13.412
86205SOL     OW60453  14.191   4.642  12.095
86205SOL    HW160454  14.213   4.652  12.187
86205SOL    HW260455  14.276   4.648  12.050
86206SOL     OW60456  14.405  10.450   4.389
86206SOL    HW160457  14.372  10.435   4.478
86206SOL    HW260458  14.364  10.381   4.336
86207SOL     OW60459  13.347   7.611  11.603
86207SOL    HW160460  13.422   7.662  11.573
86207SOL    HW260461  13.375   7.520  11.596
86208SOL     OW60462   6.023  11.409  11.097
86208SOL    HW160463   5.988  11.344  11.158
86208SOL    HW260464   6.089  11.456  11.148
86209SOL     OW60465  10.553   6.284  10.019
86209SOL    HW160466  10.504   6.205  10.043
86209SOL    HW260467  10.540   6.343  10.093
86210SOL     OW60468   7.066  10.912   4.636
86210SOL    HW160469   7.014  10.840   4.600
86210SOL    HW260470   7.095  10.962   4.560
86211SOL     OW60471  11.364   2.093   3.549
86211SOL    HW160472  11.409   2.066   3.629
86211SOL    HW260473  11.271   2.081   3.569
86212SOL     OW60474  13.362  13.448  11.262
86212SOL    HW160475  13.282  13.400  11.245
86212SOL    HW260476  13.432  13.384  11.251
86213SOL     OW60477   9.158   9.058   8.817
86213SOL    HW160478   9.130   8.981   8.866
86213SOL    HW260479   9.224   9.100   8.872
86214SOL     OW60480  10.535   4.259   4.285
86214SOL    HW160481  10.524   4.339   4.234
86214SOL    HW260482  10.449   4.217   4.283
86215SOL     OW60483   3.050   4.534  10.352
86215SOL    HW160484   3.145   4.521  10.348
86215SOL    HW260485   3.014   4.448  10.332
86216SOL     OW60486   8.813  10.222   4.836
86216SOL    HW160487   8.771  10.307   4.834
86216SOL    HW260488   8.796  10.188   4.924
86217SOL     OW60489  13.456   8.771   3.415
86217SOL    HW160490  13.531   8.775   3.474
86217SOL    HW260491  13.384   8.740   3.470
86218SOL     OW60492   1.358   8.743  10.256
86218SOL    HW160493   1.358   8.827  10.212
86218SOL    HW260494   1.356   8.765  10.350
86219SOL     OW60495  10.688   9.649   0.310
86219SOL    HW160496  10.692   9.742   0.290
86219SOL    HW260497  10.608   9.618   0.268
86220SOL     OW60498  10.954   0.496   2.932
86220SOL    HW160499  10.989   0.582   2.909
86220SOL    HW260500  11.003   0.435   2.878
86221SOL     OW60501   8.355   1.135   1.633
86221SOL    HW160502   8.320   1.048   1.613
86221SOL    HW260503   8.426   1.148   1.570
86222SOL     OW60504  11.198   3.501   6.751
86222SOL    HW160505  11.263   3.571   6.745
86222SOL    HW260506  11.204   3.456   6.667
86223SOL     OW60507  13.507   1.883  13.013
86223SOL    HW160508  13.429   1.870  12.959
86223SOL    HW260509  13.475   1.878  13.103
86224SOL     OW60510  13.696   7.020  10.827
86224SOL    HW160511  13.724   7.111  10.832
86224SOL    HW260512  13.677   7.007  10.734
86225SOL     OW60513   9.454   8.340   0.348
86225SOL    HW160514   9.504   8.420   0.335
86225SOL    HW260515   9.365   8.362   0.321
86226SOL     OW60516   5.729   8.435   5.925
86226SOL    HW160517   5.802   8.480   5.882
86226SOL    HW260518   5.770   8.377   5.989
86227SOL     OW60519   7.530   2.112   2.906
86227SOL    HW160520   7.576   2.191   2.877
86227SOL    HW260521   7.449   2.111   2.854
86228SOL     OW60522   4.769   7.217  13.891
86228SOL    HW160523   4.854   7.181  13.867
86228SOL    HW260524   4.787   7.308  13.913
86229SOL     OW60525  12.726   0.096   3.135
86229SOL    HW160526  12.736   0.015   3.085
86229SOL    HW260527  12.634   0.098   3.159
86230SOL     OW60528   6.763   8.688   5.840
86230SOL    HW160529   6.784   8.630   5.767
86230SOL    HW260530   6.692   8.643   5.886
86231SOL     OW60531   9.320   8.036   7.026
86231SOL    HW160532   9.375   8.011   7.100
86231SOL    HW260533   9.248   8.086   7.064
86232SOL     OW60534   6.500   6.082   2.192
86232SOL    HW160535   6.555   6.049   2.262
86232SOL    HW260536   6.437   6.011   2.175
86233SOL     OW60537  10.826   3.529   4.000
86233SOL    HW160538  10.736   3.555   4.023
86233SOL    HW260539  10.836   3.556   3.909
86234SOL     OW60540   3.080  12.606   0.682
86234SOL    HW160541   3.102  12.532   0.739
86234SOL    HW260542   2.986  12.596   0.666
86235SOL     OW60543   2.579   9.814   9.256
86235SOL    HW160544   2.539   9.889   9.211
86235SOL    HW260545   2.522   9.740   9.237
86236SOL     OW60546   3.289   2.657   9.384
86236SOL    HW160547   3.285   2.576   9.434
86236SOL    HW260548   3.304   2.630   9.293
86237SOL     OW60549   9.655   4.707   0.549
86237SOL    HW160550   9.649   4.799   0.523
86237SOL    HW260551   9.577   4.667   0.511
86238SOL     OW60552   9.518   7.718   6.798
86238SOL    HW160553   9.563   7.648   6.845
86238SOL    HW260554   9.499   7.784   6.865
86239SOL     OW60555   3.509   8.719   3.145
86239SOL    HW160556   3.548   8.690   3.062
86239SOL    HW260557   3.458   8.796   3.122
86240SOL     OW60558   2.684  11.685  14.086
86240SOL    HW160559   2.614  11.639  14.132
86240SOL    HW260560   2.659  11.681  13.993
86241SOL     OW60561  11.693  10.513  13.918
86241SOL    HW160562  11.698  10.552  13.831
86241SOL    HW260563  11.600  10.489  13.927
86242SOL     OW60564   3.966   3.235   0.600
86242SOL    HW160565   4.036   3.237   0.665
86242SOL    HW260566   3.943   3.326   0.586
86243SOL     OW60567  12.607   8.548  12.301
86243SOL    HW160568  12.609   8.535  12.206
86243SOL    HW260569  12.521   8.516  12.328
86244SOL     OW60570   5.968   6.492   4.848
86244SOL    HW160571   6.007   6.424   4.902
86244SOL    HW260572   5.884   6.512   4.891
86245SOL     OW60573  12.584  14.434   5.660
86245SOL    HW160574  12.640  14.398   5.729
86245SOL    HW260575  12.636  14.425   5.580
86246SOL     OW60576   3.375   6.281   1.758
86246SOL    HW160577   3.444   6.346   1.743
86246SOL    HW260578   3.307   6.329   1.805
86247SOL     OW60579  10.094   8.087   6.192
86247SOL    HW160580  10.023   8.126   6.243
86247SOL    HW260581  10.174   8.107   6.242
86248SOL     OW60582   5.492   9.345   3.137
86248SOL    HW160583   5.407   9.341   3.094
86248SOL    HW260584   5.472   9.367   3.228
86249SOL     OW60585   5.773   4.747   7.197
86249SOL    HW160586   5.805   4.831   7.165
86249SOL    HW260587   5.773   4.691   7.119
86250SOL     OW60588  11.477   4.762   1.445
86250SOL    HW160589  11.389   4.757   1.408
86250SOL    HW260590  11.490   4.855   1.462
86251SOL     OW60591   7.772  14.168   9.873
86251SOL    HW160592   7.812  14.099   9.820
86251SOL    HW260593   7.821  14.167   9.956
86252SOL     OW60594   6.431   0.803  14.131
86252SOL    HW160595   6.443   0.880  14.074
86252SOL    HW260596   6.519   0.765  14.139
86253SOL     OW60597   5.243   6.190   2.590
86253SOL    HW160598   5.214   6.100   2.607
86253SOL    HW260599   5.167   6.232   2.549
86254SOL     OW60600   0.677  13.240   8.131
86254SOL    HW160601   0.706  13.149   8.131
86254SOL    HW260602   0.700  13.274   8.045
86255SOL     OW60603   9.734  13.954   9.644
86255SOL    HW160604   9.746  13.931   9.736
86255SOL    HW260605   9.683  14.035   9.646
86256SOL     OW60606   3.830   4.366   9.391
86256SOL    HW160607   3.808   4.445   9.440
86256SOL    HW260608   3.860   4.304   9.457
86257SOL     OW60609  13.425   4.686  14.149
86257SOL    HW160610  13.359   4.696  14.218
86257SOL    HW260611  13.426   4.770  14.104
86258SOL     OW60612   6.985  12.355   9.220
86258SOL    HW160613   7.042  12.338   9.145
86258SOL    HW260614   6.898  12.327   9.191
86259SOL     OW60615   2.998   4.727  14.273
86259SOL    HW160616   2.937   4.654  14.285
86259SOL    HW260617   3.067   4.712  14.337
86260SOL     OW60618   5.885   5.588   4.357
86260SOL    HW160619   5.894   5.659   4.420
86260SOL    HW260620   5.840   5.627   4.282
86261SOL     OW60621  12.191   8.056   0.520
86261SOL    HW160622  12.282   8.079   0.537
86261SOL    HW260623  12.149   8.140   0.501
86262SOL     OW60624   6.152  14.809   1.687
86262SOL    HW160625   6.070  14.840   1.649
86262SOL    HW260626   6.220  14.856   1.638
86263SOL     OW60627  11.038  12.835   5.247
86263SOL    HW160628  11.009  12.787   5.170
86263SOL    HW260629  11.104  12.778   5.287
86264SOL     OW60630   6.748   5.829  12.036
86264SOL    HW160631   6.702   5.886  11.974
86264SOL    HW260632   6.692   5.752  12.044
86265SOL     OW60633  13.616   7.527   6.876
86265SOL    HW160634  13.673   7.554   6.804
86265SOL    HW260635  13.547   7.476   6.835
86266SOL     OW60636   7.520   0.985   8.983
86266SOL    HW160637   7.427   0.966   8.992
86266SOL    HW260638   7.553   0.989   9.073
86267SOL     OW60639   9.942  12.761   3.321
86267SOL    HW160640   9.896  12.818   3.260
86267SOL    HW260641   9.911  12.673   3.300
86268SOL     OW60642   8.237  11.696  11.792
86268SOL    HW160643   8.213  11.779  11.750
86268SOL    HW260644   8.204  11.703  11.881
86269SOL     OW60645   7.860   2.238   4.977
86269SOL    HW160646   7.793   2.177   5.008
86269SOL    HW260647   7.832   2.261   4.888
86270SOL     OW60648  10.601   0.886  13.931
86270SOL    HW160649  10.682   0.904  13.883
86270SOL    HW260650  10.587   0.964  13.985
86271SOL     OW60651  10.235   1.681   9.153
86271SOL    HW160652  10.148   1.672   9.191
86271SOL    HW260653  10.228   1.642   9.065
86272SOL     OW60654   6.935   9.549   2.045
86272SOL    HW160655   7.002   9.482   2.036
86272SOL    HW260656   6.874   9.533   1.973
86273SOL     OW60657   0.879   1.269  10.491
86273SOL    HW160658   0.951   1.213  10.519
86273SOL    HW260659   0.832   1.217  10.426
86274SOL     OW60660   7.370  13.019   1.436
86274SOL    HW160661   7.307  12.967   1.487
86274SOL    HW260662   7.373  13.103   1.481
86275SOL     OW60663  13.150  10.164   2.390
86275SOL    HW160664  13.106  10.235   2.435
86275SOL    HW260665  13.241  10.193   2.382
86276SOL     OW60666  10.370  10.686   0.846
86276SOL    HW160667  10.422  10.608   0.824
86276SOL    HW260668  10.393  10.750   0.779
86277SOL     OW60669  12.541   0.404   6.936
86277SOL    HW160670  12.530   0.347   7.013
86277SOL    HW260671  12.457   0.398   6.890
86278SOL     OW60672   1.965   9.267  14.026
86278SOL    HW160673   2.013   9.274  14.109
86278SOL    HW260674   1.984   9.349  13.981
86279SOL     OW60675   0.801  10.927   5.795
86279SOL    HW160676   0.803  11.014   5.755
86279SOL    HW260677   0.717  10.890   5.768
86280SOL     OW60678  10.087  11.323   2.380
86280SOL    HW160679  10.049  11.235   2.384
86280SOL    HW260680  10.172  11.310   2.338
86281SOL     OW60681   3.564  13.717   9.327
86281SOL    HW160682   3.475  13.720   9.293
86281SOL    HW260683   3.609  13.791   9.287
86282SOL     OW60684   6.903   9.764  14.193
86282SOL    HW160685   6.985   9.767  14.144
86282SOL    HW260686   6.848   9.703  14.144
86283SOL     OW60687   2.692   9.019   4.764
86283SOL    HW160688   2.761   9.086   4.766
86283SOL    HW260689   2.727   8.950   4.707
86284SOL     OW60690   6.921   6.430  11.055
86284SOL    HW160691   6.926   6.481  10.974
86284SOL    HW260692   6.954   6.344  11.031
86285SOL     OW60693  12.548  10.162   6.641
86285SOL    HW160694  12.568  10.088   6.698
86285SOL    HW260695  12.482  10.129   6.580
86286SOL     OW60696   4.397   7.154  10.522
86286SOL    HW160697   4.366   7.235  10.563
86286SOL    HW260698   4.385   7.087  10.590
86287SOL     OW60699   4.553   3.229   6.249
86287SOL    HW160700   4.527   3.273   6.330
86287SOL    HW260701   4.622   3.168   6.276
86288SOL     OW60702   8.266   6.552   6.354
86288SOL    HW160703   8.265   6.457   6.371
86288SOL    HW260704   8.294   6.560   6.263
86289SOL     OW60705   1.591  13.315  11.976
86289SOL    HW160706   1.633  13.243  12.024
86289SOL    HW260707   1.497  13.296  11.982
86290SOL     OW60708   7.881  14.284   3.997
86290SOL    HW160709   7.844  14.206   3.955
86290SOL    HW260710   7.968  14.256   4.026
86291SOL     OW60711  11.954  11.867   0.226
86291SOL    HW160712  11.970  11.961   0.239
86291SOL    HW260713  11.915  11.861   0.139
86292SOL     OW60714  14.133   2.042  13.301
86292SOL    HW160715  14.100   2.022  13.388
86292SOL    HW260716  14.067   2.102  13.264
86293SOL     OW60717  11.905   9.321   2.017
86293SOL    HW160718  11.895   9.231   2.049
86293SOL    HW260719  11.822   9.363   2.039
86294SOL     OW60720   1.846   9.926   8.339
86294SOL    HW160721   1.760   9.923   8.297
86294SOL    HW260722   1.840  10.001   8.398
86295SOL     OW60723   9.933   6.784   8.678
86295SOL    HW160724  10.008   6.829   8.639
86295SOL    HW260725   9.876   6.763   8.604
86296SOL     OW60726  13.176  12.145   1.450
86296SOL    HW160727  13.137  12.126   1.536
86296SOL    HW260728  13.159  12.066   1.399
86297SOL     OW60729   9.607   3.578  14.430
86297SOL    HW160730   9.665   3.538  14.495
86297SOL    HW260731   9.589   3.507  14.367
86298SOL     OW60732   2.278   8.764   7.490
86298SOL    HW160733   2.347   8.703   7.514
86298SOL    HW260734   2.316   8.816   7.419
86299SOL     OW60735   9.185  14.200  14.674
86299SOL    HW160736   9.140  14.232  14.752
86299SOL    HW260737   9.277  14.221  14.689
86300SOL     OW60738  12.899   5.270   9.554
86300SOL    HW160739  12.904   5.233   9.466
86300SOL    HW260740  12.853   5.353   9.542
86301SOL     OW60741  10.481   0.768   9.910
86301SOL    HW160742  10.487   0.765   9.815
86301SOL    HW260743  10.394   0.733   9.930
86302SOL     OW60744  12.929  11.920  13.282
86302SOL    HW160745  12.868  11.986  13.315
86302SOL    HW260746  13.003  11.923  13.343
86303SOL     OW60747   4.166  10.370   7.102
86303SOL    HW160748   4.172  10.275   7.100
86303SOL    HW260749   4.247  10.398   7.144
86304SOL     OW60750   2.938   3.078  10.525
86304SOL    HW160751   3.015   3.043  10.481
86304SOL    HW260752   2.968   3.161  10.563
86305SOL     OW60753   4.318   3.419   7.080
86305SOL    HW160754   4.350   3.449   7.165
86305SOL    HW260755   4.241   3.366   7.100
86306SOL     OW60756  13.600  14.120   7.237
86306SOL    HW160757  13.544  14.069   7.296
86306SOL    HW260758  13.689  14.107   7.271
86307SOL     OW60759  12.797  12.499   2.238
86307SOL    HW160760  12.843  12.510   2.322
86307SOL    HW260761  12.807  12.583   2.194
86308SOL     OW60762   9.555  10.160   6.084
86308SOL    HW160763   9.625  10.096   6.070
86308SOL    HW260764   9.553  10.212   6.004
86309SOL     OW60765   9.863   8.441   3.897
86309SOL    HW160766   9.941   8.479   3.937
86309SOL    HW260767   9.810   8.412   3.971
86310SOL     OW60768  14.602   6.020  10.934
86310SOL    HW160769  14.570   6.090  10.877
86310SOL    HW260770  14.619   5.947  10.875
86311SOL     OW60771  10.804   6.560   8.091
86311SOL    HW160772  10.839   6.524   8.173
86311SOL    HW260773  10.820   6.490   8.026
86312SOL     OW60774  12.691  13.245   7.308
86312SOL    HW160775  12.727  13.270   7.393
86312SOL    HW260776  12.749  13.174   7.278
86313SOL     OW60777  13.840  11.650   0.856
86313SOL    HW160778  13.785  11.582   0.895
86313SOL    HW260779  13.863  11.616   0.770
86314SOL     OW60780  14.753   7.995   9.994
86314SOL    HW160781  14.676   8.053   9.999
86314SOL    HW260782  14.718   7.908  10.009
86315SOL     OW60783  11.967  11.630   6.789
86315SOL    HW160784  11.874  11.607   6.785
86315SOL    HW260785  11.998  11.620   6.699
86316SOL     OW60786   3.578   0.823   7.646
86316SOL    HW160787   3.510   0.854   7.586
86316SOL    HW260788   3.641   0.777   7.590
86317SOL     OW60789   0.037   8.381   0.323
86317SOL    HW160790   0.081   8.430   0.393
86317SOL    HW260791   0.100   8.383   0.251
86318SOL     OW60792   0.720  12.744  13.785
86318SOL    HW160793   0.637  12.785  13.810
86318SOL    HW260794   0.756  12.801  13.717
86319SOL     OW60795   1.386   9.436   0.060
86319SOL    HW160796   1.385   9.378  14.861
86319SOL    HW260797   1.378   9.378   0.136
86320SOL     OW60798  10.233   1.099  10.201
86320SOL    HW160799  10.264   1.050  10.278
86320SOL    HW260800  10.162   1.153  10.234
86321SOL     OW60801   7.229   9.138   1.542
86321SOL    HW160802   7.140   9.103   1.541
86321SOL    HW260803   7.285   9.061   1.532
86322SOL     OW60804   2.755   0.529   3.137
86322SOL    HW160805   2.825   0.565   3.191
86322SOL    HW260806   2.713   0.606   3.098
86323SOL     OW60807   0.139   0.155   9.797
86323SOL    HW160808   0.195   0.084   9.768
86323SOL    HW260809   0.128   0.140   9.891
86324SOL     OW60810   5.969   2.390  11.987
86324SOL    HW160811   6.039   2.325  11.991
86324SOL    HW260812   5.952   2.402  11.893
86325SOL     OW60813  10.958   4.575   5.905
86325SOL    HW160814  10.908   4.656   5.910
86325SOL    HW260815  10.920   4.528   5.830
86326SOL     OW60816   4.016   8.478  14.709
86326SOL    HW160817   4.024   8.513  14.621
86326SOL    HW260818   4.099   8.434  14.725
86327SOL     OW60819  13.466  12.912   9.338
86327SOL    HW160820  13.501  12.870   9.260
86327SOL    HW260821  13.372  12.896   9.335
86328SOL     OW60822  14.792  10.893   6.221
86328SOL    HW160823  14.767  10.867   6.310
86328SOL    HW260824  14.845  10.972   6.234
86329SOL     OW60825   3.184   7.659  13.321
86329SOL    HW160826   3.146   7.673  13.234
86329SOL    HW260827   3.277   7.647  13.305
86330SOL     OW60828   4.700   7.897   1.098
86330SOL    HW160829   4.693   7.854   1.013
86330SOL    HW260830   4.790   7.880   1.126
86331SOL     OW60831   9.248  11.006   0.632
86331SOL    HW160832   9.232  10.911   0.626
86331SOL    HW260833   9.170  11.046   0.594
86332SOL     OW60834  13.656   3.614   8.288
86332SOL    HW160835  13.708   3.629   8.208
86332SOL    HW260836  13.656   3.519   8.299
86333SOL     OW60837   0.554  10.068   6.955
86333SOL    HW160838   0.499  10.123   7.011
86333SOL    HW260839   0.504   9.987   6.945
86334SOL     OW60840  14.788   3.667  11.253
86334SOL    HW160841  14.712   3.679  11.311
86334SOL    HW260842  14.863   3.674  11.312
86335SOL     OW60843   2.758   8.772   7.807
86335SOL    HW160844   2.826   8.818   7.856
86335SOL    HW260845   2.806   8.719   7.743
86336SOL     OW60846   2.729   3.530   3.457
86336SOL    HW160847   2.683   3.477   3.522
86336SOL    HW260848   2.796   3.577   3.507
86337SOL     OW60849   8.296   2.060  13.110
86337SOL    HW160850   8.299   1.964  13.110
86337SOL    HW260851   8.343   2.086  13.031
86338SOL     OW60852  11.328   8.090   3.434
86338SOL    HW160853  11.348   8.006   3.475
86338SOL    HW260854  11.307   8.069   3.343
86339SOL     OW60855   3.462   8.796  13.175
86339SOL    HW160856   3.419   8.735  13.235
86339SOL    HW260857   3.394   8.860  13.154
86340SOL     OW60858  11.989   0.579   6.925
86340SOL    HW160859  11.972   0.666   6.961
86340SOL    HW260860  11.913   0.561   6.869
86341SOL     OW60861   3.069  11.974   9.982
86341SOL    HW160862   3.117  11.950   9.903
86341SOL    HW260863   3.050  11.891  10.026
86342SOL     OW60864   2.187  12.425   2.201
86342SOL    HW160865   2.223  12.512   2.216
86342SOL    HW260866   2.125  12.437   2.129
86343SOL     OW60867   2.036   6.293   2.415
86343SOL    HW160868   2.063   6.205   2.440
86343SOL    HW260869   2.071   6.350   2.484
86344SOL     OW60870   9.321   1.136  10.569
86344SOL    HW160871   9.262   1.061  10.576
86344SOL    HW260872   9.268   1.211  10.596
86345SOL     OW60873   6.046  13.627   2.827
86345SOL    HW160874   6.131  13.583   2.823
86345SOL    HW260875   5.993  13.573   2.884
86346SOL     OW60876   0.552   0.115   1.847
86346SOL    HW160877   0.575   0.025   1.872
86346SOL    HW260878   0.622   0.142   1.788
86347SOL     OW60879  12.840   6.364   1.651
86347SOL    HW160880  12.807   6.418   1.579
86347SOL    HW260881  12.786   6.388   1.726
86348SOL     OW60882   1.703   5.284   2.600
86348SOL    HW160883   1.633   5.218   2.600
86348SOL    HW260884   1.731   5.289   2.691
86349SOL     OW60885   2.621   6.191   6.856
86349SOL    HW160886   2.676   6.123   6.895
86349SOL    HW260887   2.537   6.185   6.903
86350SOL     OW60888  12.703   7.779  10.869
86350SOL    HW160889  12.662   7.732  10.942
86350SOL    HW260890  12.761   7.842  10.911
86351SOL     OW60891  14.153  11.358   8.896
86351SOL    HW160892  14.191  11.372   8.982
86351SOL    HW260893  14.071  11.312   8.913
86352SOL     OW60894   6.359  10.849   0.997
86352SOL    HW160895   6.407  10.800   1.064
86352SOL    HW260896   6.327  10.927   1.043
86353SOL     OW60897  13.541  11.551   2.509
86353SOL    HW160898  13.563  11.487   2.576
86353SOL    HW260899  13.486  11.504   2.447
86354SOL     OW60900   2.898  14.255   0.019
86354SOL    HW160901   2.860  14.326  14.845
86354SOL    HW260902   2.989  14.281   0.033
86355SOL     OW60903  13.941   2.030   0.203
86355SOL    HW160904  13.874   1.972   0.239
86355SOL    HW260905  13.893   2.103   0.166
86356SOL     OW60906   4.950  10.208   3.942
86356SOL    HW160907   5.020  10.260   3.981
86356SOL    HW260908   4.881  10.208   4.008
86357SOL     OW60909   1.137   4.916  10.438
86357SOL    HW160910   1.231   4.901  10.447
86357SOL    HW260911   1.117   4.886  10.349
86358SOL     OW60912   0.530   5.314   4.468
86358SOL    HW160913   0.507   5.387   4.526
86358SOL    HW260914   0.474   5.326   4.392
86359SOL     OW60915  10.345   8.381  12.702
86359SOL    HW160916  10.388   8.301  12.671
86359SOL    HW260917  10.270   8.393  12.644
86360SOL     OW60918   3.255   1.528   5.155
86360SOL    HW160919   3.203   1.520   5.075
86360SOL    HW260920   3.330   1.470   5.140
86361SOL     OW60921   0.637   5.614   9.923
86361SOL    HW160922   0.724   5.584   9.897
86361SOL    HW260923   0.624   5.695   9.874
86362SOL     OW60924  13.245  11.924   9.789
86362SOL    HW160925  13.266  11.870   9.712
86362SOL    HW260926  13.291  11.881   9.861
86363SOL     OW60927  13.100   6.392   7.921
86363SOL    HW160928  13.169   6.456   7.898
86363SOL    HW260929  13.059   6.428   7.999
86364SOL     OW60930   5.607   5.502   0.855
86364SOL    HW160931   5.670   5.469   0.790
86364SOL    HW260932   5.661   5.551   0.917
86365SOL     OW60933  10.725  12.782   6.639
86365SOL    HW160934  10.773  12.702   6.616
86365SOL    HW260935  10.691  12.765   6.727
86366SOL     OW60936  12.813   6.456   3.114
86366SOL    HW160937  12.769   6.435   3.196
86366SOL    HW260938  12.834   6.549   3.122
86367SOL     OW60939  12.328   3.276   2.257
86367SOL    HW160940  12.319   3.291   2.163
86367SOL    HW260941  12.275   3.345   2.297
86368SOL     OW60942  13.031   2.009   3.465
86368SOL    HW160943  13.123   2.005   3.492
86368SOL    HW260944  12.987   1.947   3.522
86369SOL     OW60945   2.550   6.117   0.803
86369SOL    HW160946   2.548   6.024   0.782
86369SOL    HW260947   2.503   6.124   0.886
86370SOL     OW60948  11.514   4.281   3.548
86370SOL    HW160949  11.450   4.235   3.494
86370SOL    HW260950  11.590   4.224   3.550
86371SOL     OW60951   3.053   7.551   1.183
86371SOL    HW160952   3.020   7.476   1.134
86371SOL    HW260953   2.996   7.556   1.260
86372SOL     OW60954   5.581  14.083   5.238
86372SOL    HW160955   5.607  14.107   5.149
86372SOL    HW260956   5.487  14.066   5.231
86373SOL     OW60957   0.338   3.141  14.833
86373SOL    HW160958   0.325   3.079  14.761
86373SOL    HW260959   0.339   3.086   0.035
86374SOL     OW60960   0.532  10.906  12.166
86374SOL    HW160961   0.621  10.932  12.191
86374SOL    HW260962   0.543  10.821  12.123
86375SOL     OW60963   1.562   3.973   0.272
86375SOL    HW160964   1.647   3.934   0.256
86375SOL    HW260965   1.518   3.912   0.332
86376SOL     OW60966   3.275   3.385   6.776
86376SOL    HW160967   3.295   3.468   6.820
86376SOL    HW260968   3.183   3.393   6.750
86377SOL     OW60969   0.416   8.756   9.269
86377SOL    HW160970   0.437   8.676   9.221
86377SOL    HW260971   0.494   8.773   9.323
86378SOL     OW60972   8.151  13.366   8.581
86378SOL    HW160973   8.094  13.395   8.510
86378SOL    HW260974   8.100  13.302   8.629
86379SOL     OW60975   3.199   2.816  12.983
86379SOL    HW160976   3.107   2.836  12.965
86379SOL    HW260977   3.246   2.897  12.964
86380SOL     OW60978  14.395   8.540  14.854
86380SOL    HW160979  14.460   8.477  14.824
86380SOL    HW260980  14.440   8.589   0.047
86381SOL     OW60981   0.478   5.962   6.481
86381SOL    HW160982   0.428   6.008   6.412
86381SOL    HW260983   0.411   5.915   6.531
86382SOL     OW60984   0.090   4.173   7.071
86382SOL    HW160985   0.044   4.104   7.022
86382SOL    HW260986   0.020   4.229   7.104
86383SOL     OW60987   4.100   7.078  14.455
86383SOL    HW160988   4.171   7.064  14.518
86383SOL    HW260989   4.020   7.066  14.507
86384SOL     OW60990  12.543  13.673   6.117
86384SOL    HW160991  12.537  13.579   6.130
86384SOL    HW260992  12.471  13.709   6.169
86385SOL     OW60993  13.434  12.314   9.224
86385SOL    HW160994  13.501  12.246   9.214
86385SOL    HW260995  13.353  12.265   9.242
86386SOL     OW60996  13.783   5.696  12.880
86386SOL    HW160997  13.739   5.611  12.870
86386SOL    HW260998  13.716   5.761  12.860
86387SOL     OW60999  11.299   4.890   1.010
86387SOL    HW161000  11.238   4.909   0.940
86387SOL    HW261001  11.262   4.933   1.087
86388SOL     OW61002   0.521  13.881   8.916
86388SOL    HW161003   0.547  13.916   8.831
86388SOL    HW261004   0.577  13.926   8.979
86389SOL     OW61005  14.710   1.322   2.376
86389SOL    HW161006  14.729   1.244   2.324
86389SOL    HW261007  14.615   1.335   2.365
86390SOL     OW61008   6.192   6.513   8.659
86390SOL    HW161009   6.104   6.506   8.622
86390SOL    HW261010   6.231   6.588   8.614
86391SOL     OW61011  14.782   3.832   2.294
86391SOL    HW161012  14.697   3.868   2.270
86391SOL    HW261013  14.820   3.898   2.351
86392SOL     OW61014   4.955   1.169   4.455
86392SOL    HW161015   4.976   1.204   4.541
86392SOL    HW261016   5.031   1.116   4.432
86393SOL     OW61017   5.802   8.462   3.033
86393SOL    HW161018   5.807   8.477   3.128
86393SOL    HW261019   5.718   8.419   3.020
86394SOL     OW61020   8.149  11.053  13.746
86394SOL    HW161021   8.064  11.013  13.762
86394SOL    HW261022   8.151  11.130  13.804
86395SOL     OW61023   2.198  14.375   4.204
86395SOL    HW161024   2.139  14.419   4.265
86395SOL    HW261025   2.167  14.402   4.118
86396SOL     OW61026  13.556   7.232   4.637
86396SOL    HW161027  13.463   7.252   4.654
86396SOL    HW261028  13.598   7.243   4.722
86397SOL     OW61029   0.493   6.871   1.999
86397SOL    HW161030   0.568   6.861   2.057
86397SOL    HW261031   0.517   6.943   1.941
86398SOL     OW61032   6.799  12.054   5.837
86398SOL    HW161033   6.732  12.122   5.831
86398SOL    HW261034   6.777  11.993   5.766
86399SOL     OW61035  10.554   1.628   4.368
86399SOL    HW161036  10.647   1.624   4.344
86399SOL    HW261037  10.550   1.587   4.454
86400SOL     OW61038  10.001   7.794   0.383
86400SOL    HW161039   9.957   7.709   0.385
86400SOL    HW261040  10.094   7.773   0.371
86401SOL     OW61041   1.022   5.363   8.080
86401SOL    HW161042   0.951   5.310   8.115
86401SOL    HW261043   0.978   5.426   8.022
86402SOL     OW61044   1.975   1.917   1.468
86402SOL    HW161045   1.921   1.870   1.404
86402SOL    HW261046   1.916   1.929   1.543
86403SOL     OW61047   3.954   1.936   2.675
86403SOL    HW161048   3.971   1.983   2.756
86403SOL    HW261049   3.859   1.941   2.664
86404SOL     OW61050   4.458  10.527   3.526
86404SOL    HW161051   4.539  10.517   3.475
86404SOL    HW261052   4.469  10.610   3.572
86405SOL     OW61053   2.282  12.035   0.241
86405SOL    HW161054   2.369  12.064   0.214
86405SOL    HW261055   2.296  11.995   0.327
86406SOL     OW61056   7.081   2.468   9.394
86406SOL    HW161057   7.024   2.404   9.349
86406SOL    HW261058   7.032   2.493   9.472
86407SOL     OW61059   2.066   2.561   9.260
86407SOL    HW161060   2.058   2.600   9.347
86407SOL    HW261061   2.041   2.630   9.200
86408SOL     OW61062   3.314  13.732  13.208
86408SOL    HW161063   3.375  13.794  13.168
86408SOL    HW261064   3.362  13.697  13.283
86409SOL     OW61065   9.654   8.163   8.653
86409SOL    HW161066   9.685   8.182   8.564
86409SOL    HW261067   9.645   8.250   8.694
86410SOL     OW61068   1.953  11.418  10.851
86410SOL    HW161069   1.998  11.363  10.915
86410SOL    HW261070   1.929  11.497  10.900
86411SOL     OW61071  12.488   4.552   3.212
86411SOL    HW161072  12.562   4.601   3.248
86411SOL    HW261073  12.490   4.571   3.118
86412SOL     OW61074   2.808   5.273   9.742
86412SOL    HW161075   2.813   5.207   9.673
86412SOL    HW261076   2.829   5.355   9.698
86413SOL     OW61077   8.179  13.729   5.968
86413SOL    HW161078   8.248  13.785   5.932
86413SOL    HW261079   8.149  13.677   5.894
86414SOL     OW61080  13.756   2.257  13.690
86414SOL    HW161081  13.751   2.275  13.596
86414SOL    HW261082  13.844   2.285  13.715
86415SOL     OW61083  14.040   2.434  13.116
86415SOL    HW161084  14.123   2.475  13.094
86415SOL    HW261085  14.064   2.360  13.171
86416SOL     OW61086   0.288   5.035   5.783
86416SOL    HW161087   0.253   4.985   5.709
86416SOL    HW261088   0.215   5.087   5.814
86417SOL     OW61089   8.072  13.055  11.990
86417SOL    HW161090   8.055  13.108  12.069
86417SOL    HW261091   7.993  13.001  11.981
86418SOL     OW61092   3.754   6.380   3.017
86418SOL    HW161093   3.819   6.321   2.979
86418SOL    HW261094   3.805   6.445   3.066
86419SOL     OW61095   0.560  14.482   6.076
86419SOL    HW161096   0.511  14.418   6.025
86419SOL    HW261097   0.539  14.566   6.034
86420SOL     OW61098   0.442  11.844   0.978
86420SOL    HW161099   0.460  11.778   1.045
86420SOL    HW261100   0.464  11.927   1.020
86421SOL     OW61101   4.934   3.224   1.716
86421SOL    HW161102   4.981   3.262   1.790
86421SOL    HW261103   4.851   3.270   1.715
86422SOL     OW61104   4.117   3.755  13.569
86422SOL    HW161105   4.150   3.672  13.601
86422SOL    HW261106   4.195   3.807  13.548
86423SOL     OW61107   5.493  14.334   3.280
86423SOL    HW161108   5.580  14.366   3.302
86423SOL    HW261109   5.448  14.410   3.243
86424SOL     OW61110  11.217   4.449   7.293
86424SOL    HW161111  11.138   4.480   7.248
86424SOL    HW261112  11.185   4.417   7.377
86425SOL     OW61113   4.700  10.264   4.094
86425SOL    HW161114   4.613  10.271   4.056
86425SOL    HW261115   4.708  10.342   4.150
86426SOL     OW61116   8.249   9.328  14.209
86426SOL    HW161117   8.262   9.236  14.232
86426SOL    HW261118   8.159   9.347  14.235
86427SOL     OW61119  12.126   6.223   5.908
86427SOL    HW161120  12.217   6.252   5.913
86427SOL    HW261121  12.076   6.303   5.895
86428SOL     OW61122  12.853   7.465   6.325
86428SOL    HW161123  12.940   7.475   6.287
86428SOL    HW261124  12.866   7.483   6.419
86429SOL     OW61125   5.438   3.642   1.605
86429SOL    HW161126   5.475   3.553   1.607
86429SOL    HW261127   5.433   3.667   1.697
86430SOL     OW61128  13.464   1.979  10.223
86430SOL    HW161129  13.474   2.025  10.306
86430SOL    HW261130  13.386   2.017  10.183
86431SOL     OW61131  11.775   2.758   5.603
86431SOL    HW161132  11.705   2.796   5.656
86431SOL    HW261133  11.839   2.727   5.666
86432SOL     OW61134   5.259   1.115   5.967
86432SOL    HW161135   5.302   1.096   5.884
86432SOL    HW261136   5.236   1.030   6.003
86433SOL     OW61137   6.888   7.550   9.993
86433SOL    HW161138   6.845   7.472   9.958
86433SOL    HW261139   6.960   7.567   9.933
86434SOL     OW61140   3.398   4.189   3.878
86434SOL    HW161141   3.483   4.229   3.860
86434SOL    HW261142   3.335   4.260   3.865
86435SOL     OW61143   6.189   1.116  10.269
86435SOL    HW161144   6.154   1.153  10.189
86435SOL    HW261145   6.115   1.116  10.330
86436SOL     OW61146   7.565   4.746   1.133
86436SOL    HW161147   7.623   4.768   1.060
86436SOL    HW261148   7.505   4.820   1.139
86437SOL     OW61149   1.879   1.979  12.470
86437SOL    HW161150   1.874   2.067  12.432
86437SOL    HW261151   1.944   1.987  12.540
86438SOL     OW61152   0.609   2.885   8.481
86438SOL    HW161153   0.680   2.897   8.417
86438SOL    HW261154   0.598   2.790   8.486
86439SOL     OW61155   9.088   3.600   7.048
86439SOL    HW161156   9.072   3.506   7.056
86439SOL    HW261157   9.182   3.609   7.061
86440SOL     OW61158   6.373  12.947   0.955
86440SOL    HW161159   6.329  12.952   1.040
86440SOL    HW261160   6.343  12.864   0.917
86441SOL     OW61161  10.914   9.399   7.785
86441SOL    HW161162  10.917   9.344   7.706
86441SOL    HW261163  10.929   9.488   7.753
86442SOL     OW61164  14.307   6.878  12.343
86442SOL    HW161165  14.279   6.952  12.289
86442SOL    HW261166  14.229   6.824  12.353
86443SOL     OW61167   2.297   2.079   3.501
86443SOL    HW161168   2.294   2.025   3.580
86443SOL    HW261169   2.226   2.046   3.446
86444SOL     OW61170  13.761  14.703   7.963
86444SOL    HW161171  13.694  14.676   7.901
86444SOL    HW261172  13.720  14.692   8.049
86445SOL     OW61173   9.679   9.188   8.933
86445SOL    HW161174   9.712   9.278   8.926
86445SOL    HW261175   9.637   9.185   9.019
86446SOL     OW61176   1.050  11.120  10.872
86446SOL    HW161177   1.131  11.070  10.874
86446SOL    HW261178   1.032  11.141  10.963
86447SOL     OW61179  10.316   9.999  11.957
86447SOL    HW161180  10.379   9.940  11.914
86447SOL    HW261181  10.357  10.019  12.041
86448SOL     OW61182   2.318  13.753   1.449
86448SOL    HW161183   2.388  13.814   1.424
86448SOL    HW261184   2.364  13.675   1.481
86449SOL     OW61185   1.331   6.452  11.683
86449SOL    HW161186   1.390   6.385  11.648
86449SOL    HW261187   1.352   6.455  11.777
86450SOL     OW61188  13.182   0.762  11.322
86450SOL    HW161189  13.203   0.749  11.229
86450SOL    HW261190  13.254   0.815  11.355
86451SOL     OW61191   7.326  10.930  10.460
86451SOL    HW161192   7.287  10.842  10.459
86451SOL    HW261193   7.335  10.951  10.553
86452SOL     OW61194   5.652  11.876  13.396
86452SOL    HW161195   5.672  11.934  13.470
86452SOL    HW261196   5.644  11.936  13.321
86453SOL     OW61197   1.405  14.846   4.220
86453SOL    HW161198   1.388  14.847   4.126
86453SOL    HW261199   1.348  14.776   4.254
86454SOL     OW61200  11.089   7.557   9.383
86454SOL    HW161201  11.142   7.636   9.393
86454SOL    HW261202  11.151   7.485   9.397
86455SOL     OW61203   3.815   8.044  10.034
86455SOL    HW161204   3.860   8.128  10.023
86455SOL    HW261205   3.834   8.018  10.124
86456SOL     OW61206   3.364   6.576  11.073
86456SOL    HW161207   3.405   6.607  10.992
86456SOL    HW261208   3.430   6.591  11.141
86457SOL     OW61209   7.744   9.984  11.127
86457SOL    HW161210   7.724  10.053  11.065
86457SOL    HW261211   7.838   9.995  11.146
86458SOL     OW61212   6.559   2.416  11.058
86458SOL    HW161213   6.640   2.417  11.110
86458SOL    HW261214   6.588   2.434  10.968
86459SOL     OW61215   8.473   7.269   2.418
86459SOL    HW161216   8.531   7.209   2.465
86459SOL    HW261217   8.528   7.309   2.351
86460SOL     OW61218  11.568   6.968   0.696
86460SOL    HW161219  11.642   7.010   0.739
86460SOL    HW261220  11.606   6.930   0.616
86461SOL     OW61221  12.892  10.843   2.320
86461SOL    HW161222  12.880  10.906   2.391
86461SOL    HW261223  12.836  10.875   2.250
86462SOL     OW61224   3.482   2.629  14.183
86462SOL    HW161225   3.400   2.667  14.149
86462SOL    HW261226   3.457   2.542  14.212
86463SOL     OW61227   6.213  14.099   2.763
86463SOL    HW161228   6.165  14.182   2.768
86463SOL    HW261229   6.148  14.033   2.788
86464SOL     OW61230   3.621   1.793  11.720
86464SOL    HW161231   3.573   1.816  11.640
86464SOL    HW261232   3.598   1.701  11.736
86465SOL     OW61233   3.052  12.157   5.199
86465SOL    HW161234   3.092  12.156   5.285
86465SOL    HW261235   3.125  12.154   5.138
86466SOL     OW61236   4.849  12.811  11.015
86466SOL    HW161237   4.840  12.750  11.088
86466SOL    HW261238   4.943  12.814  10.997
86467SOL     OW61239   2.009  12.174   3.623
86467SOL    HW161240   2.019  12.156   3.530
86467SOL    HW261241   1.952  12.105   3.655
86468SOL     OW61242   1.150  10.056   8.647
86468SOL    HW161243   1.190   9.982   8.601
86468SOL    HW261244   1.204  10.131   8.623
86469SOL     OW61245   6.397   6.592   0.320
86469SOL    HW161246   6.417   6.501   0.296
86469SOL    HW261247   6.320   6.585   0.377
86470SOL     OW61248  12.716   2.315   8.090
86470SOL    HW161249  12.779   2.315   8.018
86470SOL    HW261250  12.656   2.387   8.069
86471SOL     OW61251   8.742   4.099   6.623
86471SOL    HW161252   8.766   4.175   6.676
86471SOL    HW261253   8.659   4.123   6.582
86472SOL     OW61254  12.755   3.691   8.262
86472SOL    HW161255  12.738   3.779   8.230
86472SOL    HW261256  12.671   3.662   8.298
86473SOL     OW61257   0.505   8.922   7.629
86473SOL    HW161258   0.422   8.952   7.666
86473SOL    HW261259   0.510   8.830   7.655
86474SOL     OW61260  12.026  13.438   2.506
86474SOL    HW161261  12.018  13.504   2.575
86474SOL    HW261262  11.936  13.418   2.481
86475SOL     OW61263   4.668   0.036   9.093
86475SOL    HW161264   4.649   0.018   9.185
86475SOL    HW261265   4.607  14.856   9.044
86476SOL     OW61266   2.037  14.259   7.845
86476SOL    HW161267   2.114  14.314   7.836
86476SOL    HW261268   2.017  14.231   7.756
86477SOL     OW61269   5.791   3.646  13.135
86477SOL    HW161270   5.775   3.567  13.187
86477SOL    HW261271   5.881   3.636  13.104
86478SOL     OW61272   5.899  14.525  14.055
86478SOL    HW161273   5.845  14.520  13.976
86478SOL    HW261274   5.888  14.614  14.086
86479SOL     OW61275   2.339  12.349   9.828
86479SOL    HW161276   2.350  12.437   9.864
86479SOL    HW261277   2.377  12.290   9.893
86480SOL     OW61278   2.198   0.618   8.099
86480SOL    HW161279   2.145   0.676   8.153
86480SOL    HW261280   2.134   0.569   8.047
86481SOL     OW61281  12.158  11.068   1.036
86481SOL    HW161282  12.193  11.006   0.971
86481SOL    HW261283  12.092  11.118   0.989
86482SOL     OW61284   6.152   1.664  11.180
86482SOL    HW161285   6.176   1.629  11.265
86482SOL    HW261286   6.235   1.681  11.136
86483SOL     OW61287  10.795  10.234  13.003
86483SOL    HW161288  10.881  10.247  13.045
86483SOL    HW261289  10.733  10.278  13.062
86484SOL     OW61290  13.595  12.223  12.073
86484SOL    HW161291  13.519  12.275  12.046
86484SOL    HW261292  13.559  12.157  12.131
86485SOL     OW61293  11.685  12.839  10.411
86485SOL    HW161294  11.662  12.776  10.343
86485SOL    HW261295  11.602  12.860  10.454
86486SOL     OW61296  14.186  13.785   2.729
86486SOL    HW161297  14.150  13.872   2.743
86486SOL    HW261298  14.130  13.747   2.661
86487SOL     OW61299   2.985   5.257   8.741
86487SOL    HW161300   3.077   5.233   8.749
86487SOL    HW261301   2.972   5.271   8.647
86488SOL     OW61302   4.009   2.708  12.644
86488SOL    HW161303   4.062   2.631  12.662
86488SOL    HW261304   3.930   2.697  12.697
86489SOL     OW61305   7.405   1.146  12.943
86489SOL    HW161306   7.313   1.120  12.935
86489SOL    HW261307   7.431   1.169  12.854
86490SOL     OW61308   9.046   1.838   1.814
86490SOL    HW161309   9.050   1.755   1.768
86490SOL    HW261310   9.009   1.817   1.900
86491SOL     OW61311   6.652   3.413   6.476
86491SOL    HW161312   6.607   3.391   6.557
86491SOL    HW261313   6.715   3.342   6.463
86492SOL     OW61314   3.229   7.209   5.397
86492SOL    HW161315   3.272   7.254   5.470
86492SOL    HW261316   3.296   7.150   5.363
86493SOL     OW61317   3.385   6.386   4.397
86493SOL    HW161318   3.421   6.308   4.356
86493SOL    HW261319   3.461   6.428   4.438
86494SOL     OW61320  13.863  13.871  13.361
86494SOL    HW161321  13.922  13.803  13.330
86494SOL    HW261322  13.827  13.911  13.282
86495SOL     OW61323   4.476  11.260  11.466
86495SOL    HW161324   4.570  11.247  11.479
86495SOL    HW261325   4.461  11.351  11.494
86496SOL     OW61326   5.013   5.356   0.615
86496SOL    HW161327   4.946   5.365   0.683
86496SOL    HW261328   5.079   5.421   0.638
86497SOL     OW61329   0.347  12.137   2.232
86497SOL    HW161330   0.255  12.154   2.210
86497SOL    HW261331   0.397  12.198   2.178
86498SOL     OW61332   8.358   1.044   5.531
86498SOL    HW161333   8.340   0.952   5.511
86498SOL    HW261334   8.274   1.079   5.560
86499SOL     OW61335  11.489  11.099  11.253
86499SOL    HW161336  11.460  11.125  11.341
86499SOL    HW261337  11.443  11.017  11.236
86500SOL     OW61338  10.592   1.415   2.845
86500SOL    HW161339  10.503   1.384   2.830
86500SOL    HW261340  10.589   1.508   2.825
86501SOL     OW61341   0.625  11.520   0.363
86501SOL    HW161342   0.645  11.429   0.384
86501SOL    HW261343   0.705  11.568   0.383
86502SOL     OW61344  14.754   3.424   3.414
86502SOL    HW161345  14.710   3.506   3.438
86502SOL    HW261346  14.719   3.402   3.328
86503SOL     OW61347  13.072   6.442   3.522
86503SOL    HW161348  13.009   6.511   3.542
86503SOL    HW261349  13.063   6.427   3.428
86504SOL     OW61350  14.318   0.661  11.286
86504SOL    HW161351  14.273   0.595  11.339
86504SOL    HW261352  14.254   0.732  11.278
86505SOL     OW61353   1.649   3.349   5.639
86505SOL    HW161354   1.575   3.374   5.585
86505SOL    HW261355   1.682   3.431   5.676
86506SOL     OW61356  11.494  13.963  13.335
86506SOL    HW161357  11.495  13.867  13.343
86506SOL    HW261358  11.404  13.984  13.307
86507SOL     OW61359   8.904   0.665   0.172
86507SOL    HW161360   8.865   0.677   0.259
86507SOL    HW261361   8.894   0.750   0.130
86508SOL     OW61362  13.049   1.398   1.720
86508SOL    HW161363  13.085   1.342   1.651
86508SOL    HW261364  13.121   1.457   1.742
86509SOL     OW61365   0.679   0.163  14.164
86509SOL    HW161366   0.742   0.223  14.204
86509SOL    HW261367   0.732   0.101  14.114
86510SOL     OW61368  14.249   0.927  12.153
86510SOL    HW161369  14.239   0.832  12.162
86510SOL    HW261370  14.319   0.950  12.213
86511SOL     OW61371  10.487  13.265   6.536
86511SOL    HW161372  10.562  13.227   6.582
86511SOL    HW261373  10.467  13.203   6.467
86512SOL     OW61374  12.649   1.856  11.328
86512SOL    HW161375  12.664   1.828  11.418
86512SOL    HW261376  12.735   1.884  11.296
86513SOL     OW61377  11.431   7.482   8.615
86513SOL    HW161378  11.525   7.497   8.609
86513SOL    HW261379  11.414   7.470   8.709
86514SOL     OW61380   8.140   6.583  12.837
86514SOL    HW161381   8.199   6.522  12.881
86514SOL    HW261382   8.131   6.656  12.898
86515SOL     OW61383   2.553   9.115   0.380
86515SOL    HW161384   2.499   9.082   0.453
86515SOL    HW261385   2.631   9.059   0.380
86516SOL     OW61386  10.585  11.762   5.177
86516SOL    HW161387  10.557  11.816   5.250
86516SOL    HW261388  10.503  11.728   5.139
86517SOL     OW61389  14.435   4.981   5.589
86517SOL    HW161390  14.514   4.942   5.551
86517SOL    HW261391  14.461   5.072   5.607
86518SOL     OW61392   9.672  11.902  12.335
86518SOL    HW161393   9.656  11.996  12.330
86518SOL    HW261394   9.600  11.868  12.388
86519SOL     OW61395   9.500   2.180  13.913
86519SOL    HW161396   9.534   2.186  13.823
86519SOL    HW261397   9.539   2.100  13.948
86520SOL     OW61398   8.821   3.472   1.827
86520SOL    HW161399   8.762   3.466   1.753
86520SOL    HW261400   8.793   3.551   1.874
86521SOL     OW61401  12.192   6.764   6.380
86521SOL    HW161402  12.110   6.715   6.372
86521SOL    HW261403  12.255   6.699   6.412
86522SOL     OW61404   9.662  10.575   0.676
86522SOL    HW161405   9.628  10.652   0.721
86522SOL    HW261406   9.685  10.514   0.747
86523SOL     OW61407  10.291   9.301   6.757
86523SOL    HW161408  10.330   9.214   6.759
86523SOL    HW261409  10.356   9.358   6.797
86524SOL     OW61410   6.607   8.190   2.645
86524SOL    HW161411   6.621   8.245   2.721
86524SOL    HW261412   6.620   8.249   2.570
86525SOL     OW61413   5.471   4.527   7.526
86525SOL    HW161414   5.426   4.554   7.606
86525SOL    HW261415   5.401   4.506   7.465
86526SOL     OW61416   0.234   2.399  11.943
86526SOL    HW161417   0.253   2.406  12.037
86526SOL    HW261418   0.142   2.422  11.935
86527SOL     OW61419   3.208  13.324  10.657
86527SOL    HW161420   3.224  13.265  10.730
86527SOL    HW261421   3.146  13.389  10.692
86528SOL     OW61422   9.980   3.611   2.722
86528SOL    HW161423   9.929   3.668   2.779
86528SOL    HW261424  10.053   3.665   2.692
86529SOL     OW61425   6.899   2.378  12.885
86529SOL    HW161426   6.944   2.324  12.820
86529SOL    HW261427   6.814   2.337  12.896
86530SOL     OW61428  10.975   9.849  13.959
86530SOL    HW161429  11.059   9.805  13.974
86530SOL    HW261430  10.910   9.786  13.989
86531SOL     OW61431   7.415   5.130   0.066
86531SOL    HW161432   7.372   5.048   0.091
86531SOL    HW261433   7.343   5.191   0.051
86532SOL     OW61434  14.163   8.146   5.036
86532SOL    HW161435  14.128   8.097   5.110
86532SOL    HW261436  14.199   8.226   5.074
86533SOL     OW61437  10.856  10.006  12.750
86533SOL    HW161438  10.765  10.034  12.740
86533SOL    HW261439  10.907  10.078  12.712
86534SOL     OW61440   8.293   4.874   7.905
86534SOL    HW161441   8.340   4.859   7.823
86534SOL    HW261442   8.303   4.791   7.953
86535SOL     OW61443   0.337  13.693   1.162
86535SOL    HW161444   0.432  13.695   1.171
86535SOL    HW261445   0.319  13.611   1.116
86536SOL     OW61446  11.195   5.022   6.920
86536SOL    HW161447  11.205   4.928   6.905
86536SOL    HW261448  11.192   5.059   6.832
86537SOL     OW61449   5.550   3.630   7.574
86537SOL    HW161450   5.563   3.723   7.554
86537SOL    HW261451   5.561   3.586   7.490
86538SOL     OW61452   8.069  13.744   0.584
86538SOL    HW161453   8.092  13.767   0.494
86538SOL    HW261454   7.976  13.720   0.579
86539SOL     OW61455  13.172  13.559   7.023
86539SOL    HW161456  13.121  13.586   6.947
86539SOL    HW261457  13.200  13.640   7.064
86540SOL     OW61458  10.075   4.984   9.979
86540SOL    HW161459  10.020   5.061   9.961
86540SOL    HW261460  10.139   4.983   9.908
86541SOL     OW61461  14.431  12.411   1.351
86541SOL    HW161462  14.380  12.330   1.337
86541SOL    HW261463  14.391  12.475   1.293
86542SOL     OW61464  11.990  11.896   2.989
86542SOL    HW161465  11.980  11.801   2.997
86542SOL    HW261466  12.033  11.908   2.904
86543SOL     OW61467   9.785   8.516   2.150
86543SOL    HW161468   9.864   8.559   2.182
86543SOL    HW261469   9.786   8.430   2.192
86544SOL     OW61470  11.194   6.506   2.767
86544SOL    HW161471  11.222   6.577   2.825
86544SOL    HW261472  11.190   6.429   2.824
86545SOL     OW61473  12.697  14.374  12.406
86545SOL    HW161474  12.740  14.411  12.483
86545SOL    HW261475  12.631  14.315  12.441
86546SOL     OW61476   2.878   0.816  13.315
86546SOL    HW161477   2.892   0.816  13.221
86546SOL    HW261478   2.899   0.905  13.343
86547SOL     OW61479   3.575   2.132  12.004
86547SOL    HW161480   3.597   2.215  11.961
86547SOL    HW261481   3.635   2.127  12.078
86548SOL     OW61482  13.276   2.240   6.592
86548SOL    HW161483  13.306   2.230   6.682
86548SOL    HW261484  13.189   2.279   6.600
86549SOL     OW61485   7.581  13.666  13.044
86549SOL    HW161486   7.662  13.615  13.043
86549SOL    HW261487   7.557  13.675  12.952
86550SOL     OW61488   6.359   4.396   4.562
86550SOL    HW161489   6.280   4.445   4.542
86550SOL    HW261490   6.368   4.402   4.657
86551SOL     OW61491   4.258   7.753  11.125
86551SOL    HW161492   4.346   7.723  11.100
86551SOL    HW261493   4.270   7.843  11.153
86552SOL     OW61494   4.832   0.275   0.845
86552SOL    HW161495   4.809   0.365   0.824
86552SOL    HW261496   4.860   0.238   0.761
86553SOL     OW61497   1.905   9.132   9.709
86553SOL    HW161498   1.975   9.188   9.676
86553SOL    HW261499   1.827   9.188   9.708
86554SOL     OW61500  10.821   3.204   4.977
86554SOL    HW161501  10.880   3.182   4.906
86554SOL    HW261502  10.781   3.287   4.951
86555SOL     OW61503   5.611   0.158  12.846
86555SOL    HW161504   5.613   0.142  12.751
86555SOL    HW261505   5.698   0.130  12.876
86556SOL     OW61506   4.970   5.466  11.535
86556SOL    HW161507   5.040   5.449  11.597
86556SOL    HW261508   4.965   5.388  11.481
86557SOL     OW61509  12.315   7.231  13.485
86557SOL    HW161510  12.338   7.244  13.393
86557SOL    HW261511  12.227   7.194  13.483
86558SOL     OW61512  14.124  11.374   6.268
86558SOL    HW161513  14.172  11.456   6.262
86558SOL    HW261514  14.032  11.399   6.262
86559SOL     OW61515  10.163   6.250   1.107
86559SOL    HW161516  10.086   6.208   1.146
86559SOL    HW261517  10.223   6.178   1.090
86560SOL     OW61518  11.931   4.379  10.210
86560SOL    HW161519  11.957   4.432  10.134
86560SOL    HW261520  11.915   4.443  10.279
86561SOL     OW61521   4.041  13.756   3.165
86561SOL    HW161522   3.990  13.829   3.199
86561SOL    HW261523   4.059  13.701   3.241
86562SOL     OW61524   1.490   0.090   8.959
86562SOL    HW161525   1.490   0.064   8.867
86562SOL    HW261526   1.473   0.184   8.957
86563SOL     OW61527  14.614   8.821   0.818
86563SOL    HW161528  14.685   8.860   0.870
86563SOL    HW261529  14.535   8.864   0.850
86564SOL     OW61530   0.431  10.964  14.072
86564SOL    HW161531   0.418  10.994  14.162
86564SOL    HW261532   0.526  10.958  14.062
86565SOL     OW61533  11.934   5.226   2.834
86565SOL    HW161534  11.945   5.232   2.739
86565SOL    HW261535  12.023   5.229   2.869
86566SOL     OW61536   7.250   2.827   6.642
86566SOL    HW161537   7.185   2.799   6.577
86566SOL    HW261538   7.266   2.919   6.621
86567SOL     OW61539   9.813   7.666   6.286
86567SOL    HW161540   9.777   7.621   6.210
86567SOL    HW261541   9.771   7.752   6.285
86568SOL     OW61542  11.388  14.332   5.457
86568SOL    HW161543  11.349  14.371   5.535
86568SOL    HW261544  11.377  14.399   5.389
86569SOL     OW61545  14.070   2.763   3.160
86569SOL    HW161546  14.122   2.843   3.162
86569SOL    HW261547  14.075   2.729   3.250
86570SOL     OW61548   2.184  14.251  14.450
86570SOL    HW161549   2.205  14.332  14.404
86570SOL    HW261550   2.146  14.280  14.533
86571SOL     OW61551  14.049   1.311   4.777
86571SOL    HW161552  14.065   1.345   4.689
86571SOL    HW261553  14.136   1.300   4.815
86572SOL     OW61554   3.453   5.986   7.162
86572SOL    HW161555   3.368   5.943   7.147
86572SOL    HW261556   3.449   6.066   7.110
86573SOL     OW61557   6.436  11.382  12.088
86573SOL    HW161558   6.376  11.432  12.034
86573SOL    HW261559   6.456  11.440  12.162
86574SOL     OW61560   7.217   3.110  12.326
86574SOL    HW161561   7.158   3.185  12.314
86574SOL    HW261562   7.162   3.033  12.316
86575SOL     OW61563   7.588   8.330   6.700
86575SOL    HW161564   7.678   8.310   6.725
86575SOL    HW261565   7.563   8.402   6.758
86576SOL     OW61566   6.261  10.103   0.844
86576SOL    HW161567   6.328  10.048   0.802
86576SOL    HW261568   6.310  10.154   0.909
86577SOL     OW61569  10.583   4.123   4.004
86577SOL    HW161570  10.492   4.098   3.989
86577SOL    HW261571  10.620   4.050   4.054
86578SOL     OW61572  12.039   8.250   0.746
86578SOL    HW161573  11.994   8.165   0.743
86578SOL    HW261574  12.009   8.295   0.667
86579SOL     OW61575   2.231   7.884  11.493
86579SOL    HW161576   2.189   7.968  11.513
86579SOL    HW261577   2.313   7.908  11.449
86580SOL     OW61578  13.336   5.803   7.629
86580SOL    HW161579  13.354   5.715   7.597
86580SOL    HW261580  13.385   5.808   7.712
86581SOL     OW61581  13.499   6.574   9.086
86581SOL    HW161582  13.469   6.604   9.172
86581SOL    HW261583  13.534   6.487   9.103
86582SOL     OW61584   4.895   7.477   3.001
86582SOL    HW161585   4.932   7.400   3.045
86582SOL    HW261586   4.952   7.549   3.028
86583SOL     OW61587   0.590   6.122   2.760
86583SOL    HW161588   0.656   6.069   2.804
86583SOL    HW261589   0.537   6.059   2.711
86584SOL     OW61590   6.908   6.796  13.272
86584SOL    HW161591   7.001   6.787  13.295
86584SOL    HW261592   6.909   6.843  13.189
86585SOL     OW61593  10.951   6.012  10.854
86585SOL    HW161594  10.981   5.963  10.931
86585SOL    HW261595  10.987   6.100  10.866
86586SOL     OW61596   8.820  11.796  11.429
86586SOL    HW161597   8.738  11.824  11.388
86586SOL    HW261598   8.846  11.718  11.380
86587SOL     OW61599   0.251   9.053   5.733
86587SOL    HW161600   0.159   9.030   5.720
86587SOL    HW261601   0.299   8.997   5.672
86588SOL     OW61602  12.602   6.159   2.826
86588SOL    HW161603  12.600   6.079   2.773
86588SOL    HW261604  12.516   6.198   2.814
86589SOL     OW61605   4.306  12.458  10.951
86589SOL    HW161606   4.379  12.509  10.987
86589SOL    HW261607   4.302  12.483  10.859
86590SOL     OW61608   4.302   5.994   2.587
86590SOL    HW161609   4.225   6.045   2.563
86590SOL    HW261610   4.376   6.053   2.569
86591SOL     OW61611  14.643   8.600   6.279
86591SOL    HW161612  14.678   8.511   6.290
86591SOL    HW261613  14.709   8.645   6.226
86592SOL     OW61614  13.891   0.140  11.794
86592SOL    HW161615  13.856   0.195  11.724
86592SOL    HW261616  13.984   0.163  11.797
86593SOL     OW61617   0.395  11.639   9.245
86593SOL    HW161618   0.375  11.703   9.312
86593SOL    HW261619   0.379  11.685   9.162
86594SOL     OW61620   0.949  12.047  13.235
86594SOL    HW161621   0.909  12.074  13.153
86594SOL    HW261622   1.043  12.063  13.222
86595SOL     OW61623   6.735   2.255  13.854
86595SOL    HW161624   6.688   2.183  13.812
86595SOL    HW261625   6.826   2.243  13.827
86596SOL     OW61626  14.637   1.663   7.745
86596SOL    HW161627  14.724   1.695   7.720
86596SOL    HW261628  14.614   1.714   7.823
86597SOL     OW61629   2.563   4.687   9.055
86597SOL    HW161630   2.538   4.711   8.965
86597SOL    HW261631   2.532   4.596   9.064
86598SOL     OW61632   9.926   3.464   0.868
86598SOL    HW161633   9.908   3.384   0.818
86598SOL    HW261634  10.021   3.465   0.876
86599SOL     OW61635   4.340  11.083   8.500
86599SOL    HW161636   4.355  11.133   8.419
86599SOL    HW261637   4.400  11.122   8.564
86600SOL     OW61638   4.015  11.459   9.690
86600SOL    HW161639   3.976  11.502   9.613
86600SOL    HW261640   3.947  11.465   9.757
86601SOL     OW61641   6.188  12.465   4.120
86601SOL    HW161642   6.139  12.484   4.200
86601SOL    HW261643   6.122  12.436   4.057
86602SOL     OW61644  13.580   6.995  11.194
86602SOL    HW161645  13.502   6.942  11.177
86602SOL    HW261646  13.654   6.937  11.176
86603SOL     OW61647  13.407  11.036   6.081
86603SOL    HW161648  13.460  10.966   6.120
86603SOL    HW261649  13.434  11.037   5.989
86604SOL     OW61650   3.044  12.219  13.635
86604SOL    HW161651   3.041  12.311  13.609
86604SOL    HW261652   2.961  12.203  13.679
86605SOL     OW61653   4.836  11.946   1.415
86605SOL    HW161654   4.821  11.874   1.353
86605SOL    HW261655   4.931  11.954   1.421
86606SOL     OW61656   5.335   5.619   8.079
86606SOL    HW161657   5.346   5.682   8.008
86606SOL    HW261658   5.372   5.663   8.156
86607SOL     OW61659   5.541  13.978  10.455
86607SOL    HW161660   5.568  14.068  10.438
86607SOL    HW261661   5.446  13.978  10.442
86608SOL     OW61662   9.559  11.058   8.409
86608SOL    HW161663   9.631  10.998   8.387
86608SOL    HW261664   9.596  11.146   8.393
86609SOL     OW61665   3.565   2.236  12.918
86609SOL    HW161666   3.632   2.271  12.859
86609SOL    HW261667   3.556   2.302  12.987
86610SOL     OW61668   5.043  10.221   3.462
86610SOL    HW161669   5.087  10.141   3.489
86610SOL    HW261670   5.059  10.227   3.368
86611SOL     OW61671   5.407   8.487   2.064
86611SOL    HW161672   5.345   8.433   2.014
86611SOL    HW261673   5.489   8.481   2.015
86612SOL     OW61674  14.534  12.968  11.118
86612SOL    HW161675  14.505  12.900  11.057
86612SOL    HW261676  14.521  12.929  11.205
86613SOL     OW61677  12.429   5.766   1.610
86613SOL    HW161678  12.406   5.755   1.518
86613SOL    HW261679  12.345   5.764   1.656
86614SOL     OW61680   2.724  12.533   9.352
86614SOL    HW161681   2.779  12.500   9.281
86614SOL    HW261682   2.769  12.612   9.383
86615SOL     OW61683   4.921  13.674   3.219
86615SOL    HW161684   5.003  13.698   3.263
86615SOL    HW261685   4.937  13.696   3.127
86616SOL     OW61686  10.301  10.116   5.818
86616SOL    HW161687  10.309  10.042   5.758
86616SOL    HW261688  10.384  10.163   5.811
86617SOL     OW61689   7.737   0.405  14.372
86617SOL    HW161690   7.729   0.409  14.277
86617SOL    HW261691   7.824   0.369  14.387
86618SOL     OW61692  11.215   0.675   4.033
86618SOL    HW161693  11.127   0.649   4.062
86618SOL    HW261694  11.202   0.707   3.944
86619SOL     OW61695   9.301  14.774  10.639
86619SOL    HW161696   9.353  14.853  10.654
86619SOL    HW261697   9.323  14.717  10.714
86620SOL     OW61698   8.280  14.317   8.053
86620SOL    HW161699   8.367  14.328   8.092
86620SOL    HW261700   8.249  14.233   8.087
86621SOL     OW61701   8.457   8.835  13.709
86621SOL    HW161702   8.515   8.822  13.634
86621SOL    HW261703   8.449   8.748  13.748
86622SOL     OW61704   3.546  12.390  14.479
86622SOL    HW161705   3.501  12.342  14.548
86622SOL    HW261706   3.562  12.477  14.517
86623SOL     OW61707   5.694  10.942   6.982
86623SOL    HW161708   5.787  10.949   6.963
86623SOL    HW261709   5.685  10.970   7.073
86624SOL     OW61710   7.309   6.093  14.383
86624SOL    HW161711   7.215   6.076  14.393
86624SOL    HW261712   7.345   6.009  14.355
86625SOL     OW61713   8.153  11.107   6.465
86625SOL    HW161714   8.165  11.088   6.558
86625SOL    HW261715   8.218  11.175   6.446
86626SOL     OW61716   9.379   8.914   6.055
86626SOL    HW161717   9.411   8.937   5.968
86626SOL    HW261718   9.408   8.824   6.069
86627SOL     OW61719   4.317  14.775   9.441
86627SOL    HW161720   4.250  14.820   9.492
86627SOL    HW261721   4.339  14.698   9.493
86628SOL     OW61722   7.430  11.379   4.370
86628SOL    HW161723   7.340  11.389   4.339
86628SOL    HW261724   7.473  11.460   4.345
86629SOL     OW61725  11.277  10.565   7.522
86629SOL    HW161726  11.349  10.567   7.584
86629SOL    HW261727  11.292  10.485   7.471
86630SOL     OW61728   0.231   6.795   9.506
86630SOL    HW161729   0.171   6.868   9.488
86630SOL    HW261730   0.206   6.765   9.593
86631SOL     OW61731   5.023   0.220  11.557
86631SOL    HW161732   4.929   0.238  11.567
86631SOL    HW261733   5.063   0.307  11.551
86632SOL     OW61734   8.213   3.363   4.941
86632SOL    HW161735   8.120   3.341   4.945
86632SOL    HW261736   8.228   3.420   5.017
86633SOL     OW61737  14.361   4.424   7.837
86633SOL    HW161738  14.370   4.392   7.747
86633SOL    HW261739  14.444   4.401   7.879
86634SOL     OW61740   7.160   4.046  14.275
86634SOL    HW161741   7.171   3.978  14.342
86634SOL    HW261742   7.066   4.045  14.256
86635SOL     OW61743   3.797   7.076   1.579
86635SOL    HW161744   3.876   7.129   1.593
86635SOL    HW261745   3.728   7.125   1.624
86636SOL     OW61746  13.030  10.124  12.173
86636SOL    HW161747  12.982  10.127  12.256
86636SOL    HW261748  12.964  10.145  12.107
86637SOL     OW61749   6.667  13.687   7.521
86637SOL    HW161750   6.709  13.639   7.593
86637SOL    HW261751   6.582  13.712   7.555
86638SOL     OW61752   7.338   5.770  10.461
86638SOL    HW161753   7.249   5.773  10.428
86638SOL    HW261754   7.388   5.829  10.404
86639SOL     OW61755   7.004   0.927  11.045
86639SOL    HW161756   6.924   0.876  11.040
86639SOL    HW261757   7.015   0.945  11.139
86640SOL     OW61758   8.899   3.966   9.656
86640SOL    HW161759   8.889   3.924   9.741
86640SOL    HW261760   8.951   4.044   9.673
86641SOL     OW61761  14.794   5.587  13.226
86641SOL    HW161762  14.833   5.564  13.311
86641SOL    HW261763  14.847   5.539  13.162
86642SOL     OW61764  10.483   4.285   3.128
86642SOL    HW161765  10.495   4.209   3.071
86642SOL    HW261766  10.570   4.325   3.134
86643SOL     OW61767   8.079   6.689   7.594
86643SOL    HW161768   8.004   6.748   7.590
86643SOL    HW261769   8.060   6.621   7.529
86644SOL     OW61770   9.439   7.008   0.300
86644SOL    HW161771   9.529   7.029   0.274
86644SOL    HW261772   9.447   6.980   0.391
86645SOL     OW61773  11.626   5.517   8.651
86645SOL    HW161774  11.641   5.553   8.739
86645SOL    HW261775  11.549   5.461   8.661
86646SOL     OW61776   4.217   5.085   2.304
86646SOL    HW161777   4.240   5.175   2.324
86646SOL    HW261778   4.298   5.036   2.320
86647SOL     OW61779   7.977   5.456   9.339
86647SOL    HW161780   7.939   5.539   9.314
86647SOL    HW261781   7.906   5.409   9.384
86648SOL     OW61782   0.461   0.151  11.110
86648SOL    HW161783   0.444   0.070  11.063
86648SOL    HW261784   0.375   0.179  11.143
86649SOL     OW61785  11.661  14.485  13.355
86649SOL    HW161786  11.697  14.403  13.323
86649SOL    HW261787  11.573  14.463  13.384
86650SOL     OW61788  14.121   9.338   0.004
86650SOL    HW161789  14.170   9.256   0.013
86650SOL    HW261790  14.186   9.401  14.848
86651SOL     OW61791  11.174  11.518  13.062
86651SOL    HW161792  11.182  11.431  13.022
86651SOL    HW261793  11.248  11.523  13.123
86652SOL     OW61794   1.191   1.788  10.650
86652SOL    HW161795   1.125   1.761  10.713
86652SOL    HW261796   1.148   1.853  10.595
86653SOL     OW61797   2.131  10.704   3.658
86653SOL    HW161798   2.211  10.750   3.633
86653SOL    HW261799   2.149  10.670   3.746
86654SOL     OW61800  12.280   9.871  12.091
86654SOL    HW161801  12.200   9.865  12.144
86654SOL    HW261802  12.293   9.965  12.078
86655SOL     OW61803   7.688  10.395   5.854
86655SOL    HW161804   7.600  10.384   5.818
86655SOL    HW261805   7.703  10.489   5.853
86656SOL     OW61806   0.195   6.499   5.862
86656SOL    HW161807   0.146   6.485   5.781
86656SOL    HW261808   0.256   6.425   5.866
86657SOL     OW61809   2.348  13.997   7.887
86657SOL    HW161810   2.277  14.002   7.951
86657SOL    HW261811   2.411  13.936   7.925
86658SOL     OW61812   1.457   6.239   3.301
86658SOL    HW161813   1.386   6.302   3.304
86658SOL    HW261814   1.446   6.185   3.379
86659SOL     OW61815   8.451   0.818   4.925
86659SOL    HW161816   8.509   0.802   4.851
86659SOL    HW261817   8.438   0.913   4.925
86660SOL     OW61818   4.384   1.361   6.494
86660SOL    HW161819   4.345   1.372   6.407
86660SOL    HW261820   4.478   1.352   6.476
86661SOL     OW61821   6.937   3.932  13.323
86661SOL    HW161822   6.864   3.962  13.377
86661SOL    HW261823   7.013   3.936  13.381
86662SOL     OW61824  13.532  12.130  13.228
86662SOL    HW161825  13.518  12.086  13.311
86662SOL    HW261826  13.546  12.060  13.165
86663SOL     OW61827  14.688  12.342   8.399
86663SOL    HW161828  14.628  12.389   8.342
86663SOL    HW261829  14.694  12.255   8.360
86664SOL     OW61830  10.991  14.318  10.098
86664SOL    HW161831  10.982  14.317  10.193
86664SOL    HW261832  11.023  14.230  10.076
86665SOL     OW61833  10.206   8.665   0.881
86665SOL    HW161834  10.208   8.759   0.865
86665SOL    HW261835  10.125   8.635   0.841
86666SOL     OW61836   1.908   9.343   4.068
86666SOL    HW161837   1.927   9.436   4.072
86666SOL    HW261838   1.981   9.302   4.114
86667SOL     OW61839  14.691   8.503   9.071
86667SOL    HW161840  14.765   8.517   9.012
86667SOL    HW261841  14.625   8.459   9.017
86668SOL     OW61842   5.835   8.346   7.134
86668SOL    HW161843   5.768   8.315   7.073
86668SOL    HW261844   5.802   8.322   7.220
86669SOL     OW61845  14.126   1.094  12.738
86669SOL    HW161846  14.050   1.122  12.688
86669SOL    HW261847  14.188   1.063  12.672
86670SOL     OW61848   2.188   2.774   1.623
86670SOL    HW161849   2.235   2.835   1.680
86670SOL    HW261850   2.126   2.729   1.682
86671SOL     OW61851   0.791   4.336  11.699
86671SOL    HW161852   0.697   4.339  11.719
86671SOL    HW261853   0.816   4.428  11.691
86672SOL     OW61854   5.729   1.463   4.563
86672SOL    HW161855   5.680   1.407   4.503
86672SOL    HW261856   5.806   1.410   4.587
86673SOL     OW61857   8.825  11.157   9.422
86673SOL    HW161858   8.735  11.189   9.416
86673SOL    HW261859   8.838  11.106   9.343
86674SOL     OW61860   4.649   5.882   8.760
86674SOL    HW161861   4.629   5.788   8.759
86674SOL    HW261862   4.730   5.890   8.710
86675SOL     OW61863   8.448   0.069   0.005
86675SOL    HW161864   8.366   0.044  14.838
86675SOL    HW261865   8.453   0.010   0.080
86676SOL     OW61866   1.243   6.748  11.659
86676SOL    HW161867   1.154   6.755  11.694
86676SOL    HW261868   1.270   6.659  11.680
86677SOL     OW61869   3.682  12.828   3.151
86677SOL    HW161870   3.743  12.891   3.190
86677SOL    HW261871   3.732  12.747   3.145
86678SOL     OW61872   6.013   9.111  13.692
86678SOL    HW161873   6.014   9.127  13.598
86678SOL    HW261874   6.060   9.185  13.730
86679SOL     OW61875   2.671   5.112   6.678
86679SOL    HW161876   2.629   5.032   6.646
86679SOL    HW261877   2.605   5.180   6.668
86680SOL     OW61878   3.862  11.012  10.482
86680SOL    HW161879   3.846  10.997  10.575
86680SOL    HW261880   3.787  11.065  10.453
86681SOL     OW61881   0.231   6.294   2.979
86681SOL    HW161882   0.263   6.222   3.034
86681SOL    HW261883   0.137   6.277   2.968
86682SOL     OW61884  13.118  11.222  14.822
86682SOL    HW161885  13.189  11.251   0.002
86682SOL    HW261886  13.042  11.214   0.004
86683SOL     OW61887   4.662   4.956  12.598
86683SOL    HW161888   4.722   4.884  12.617
86683SOL    HW261889   4.659   4.960  12.502
86684SOL     OW61890   8.962  11.498   7.408
86684SOL    HW161891   8.971  11.588   7.377
86684SOL    HW261892   8.910  11.505   7.488
86685SOL     OW61893   5.957   9.243   9.215
86685SOL    HW161894   5.926   9.281   9.297
86685SOL    HW261895   5.942   9.149   9.226
86686SOL     OW61896  14.650  14.416   4.326
86686SOL    HW161897  14.569  14.414   4.275
86686SOL    HW261898  14.719  14.394   4.263
86687SOL     OW61899   6.155   1.441   3.258
86687SOL    HW161900   6.065   1.440   3.291
86687SOL    HW261901   6.164   1.358   3.211
86688SOL     OW61902   7.290   5.331  13.115
86688SOL    HW161903   7.327   5.415  13.088
86688SOL    HW261904   7.241   5.300  13.039
86689SOL     OW61905   3.421   6.557   5.219
86689SOL    HW161906   3.386   6.557   5.308
86689SOL    HW261907   3.410   6.466   5.189
86690SOL     OW61908   9.841  10.935   6.150
86690SOL    HW161909   9.813  11.021   6.119
86690SOL    HW261910   9.895  10.953   6.227
86691SOL     OW61911   2.524   0.307   8.521
86691SOL    HW161912   2.567   0.229   8.485
86691SOL    HW261913   2.492   0.280   8.606
86692SOL     OW61914   1.563  12.166  11.144
86692SOL    HW161915   1.533  12.133  11.059
86692SOL    HW261916   1.550  12.093  11.204
86693SOL     OW61917   3.549   1.961  10.362
86693SOL    HW161918   3.469   1.934  10.316
86693SOL    HW261919   3.518   2.013  10.435
86694SOL     OW61920   2.160  13.226  13.420
86694SOL    HW161921   2.251  13.198  13.408
86694SOL    HW261922   2.114  13.147  13.449
86695SOL     OW61923   2.847   9.360  14.483
86695SOL    HW161924   2.820   9.423  14.416
86695SOL    HW261925   2.784   9.371  14.554
86696SOL     OW61926   3.212  13.265   0.560
86696SOL    HW161927   3.146  13.277   0.492
86696SOL    HW261928   3.293  13.247   0.512
86697SOL     OW61929  10.075  14.439   9.882
86697SOL    HW161930  10.167  14.446   9.859
86697SOL    HW261931  10.033  14.408   9.802
86698SOL     OW61932  12.294   3.888  12.129
86698SOL    HW161933  12.367   3.947  12.111
86698SOL    HW261934  12.299   3.821  12.062
86699SOL     OW61935  14.466   7.478   1.585
86699SOL    HW161936  14.549   7.506   1.624
86699SOL    HW261937  14.426   7.421   1.650
86700SOL     OW61938   8.291   5.967   7.991
86700SOL    HW161939   8.238   5.974   7.911
86700SOL    HW261940   8.278   6.050   8.036
86701SOL     OW61941  14.158   6.964   2.984
86701SOL    HW161942  14.099   7.021   2.934
86701SOL    HW261943  14.245   6.983   2.949
86702SOL     OW61944   2.894   5.423   7.448
86702SOL    HW161945   2.985   5.394   7.457
86702SOL    HW261946   2.874   5.410   7.355
86703SOL     OW61947   9.236   0.686  10.008
86703SOL    HW161948   9.245   0.688   9.913
86703SOL    HW261949   9.146   0.657  10.023
86704SOL     OW61950  14.646   7.516  14.274
86704SOL    HW161951  14.681   7.596  14.234
86704SOL    HW261952  14.651   7.533  14.368
86705SOL     OW61953   7.036   0.188   0.835
86705SOL    HW161954   6.979   0.179   0.758
86705SOL    HW261955   7.106   0.124   0.820
86706SOL     OW61956  10.956  11.132   2.055
86706SOL    HW161957  10.899  11.138   2.132
86706SOL    HW261958  11.023  11.199   2.068
86707SOL     OW61959   3.107   7.801   2.264
86707SOL    HW161960   3.200   7.787   2.283
86707SOL    HW261961   3.077   7.716   2.232
86708SOL     OW61962   0.158   9.332   1.699
86708SOL    HW161963   0.124   9.277   1.770
86708SOL    HW261964   0.177   9.271   1.628
86709SOL     OW61965   2.091  10.761   8.698
86709SOL    HW161966   2.061  10.686   8.646
86709SOL    HW261967   2.110  10.723   8.784
86710SOL     OW61968   7.304  13.232   4.719
86710SOL    HW161969   7.270  13.142   4.717
86710SOL    HW261970   7.313  13.252   4.812
86711SOL     OW61971   6.839   7.651   0.434
86711SOL    HW161972   6.934   7.658   0.418
86711SOL    HW261973   6.812   7.574   0.384
86712SOL     OW61974  13.034   0.929   8.388
86712SOL    HW161975  13.103   0.949   8.451
86712SOL    HW261976  13.010   0.838   8.407
86713SOL     OW61977  13.621   0.298   4.765
86713SOL    HW161978  13.582   0.384   4.777
86713SOL    HW261979  13.561   0.252   4.707
86714SOL     OW61980   0.648  12.324   5.146
86714SOL    HW161981   0.600  12.355   5.069
86714SOL    HW261982   0.696  12.247   5.115
86715SOL     OW61983  12.038   6.689  13.938
86715SOL    HW161984  12.061   6.759  13.876
86715SOL    HW261985  11.951   6.712  13.969
86716SOL     OW61986   4.401   1.993  11.617
86716SOL    HW161987   4.367   1.920  11.565
86716SOL    HW261988   4.422   1.955  11.702
86717SOL     OW61989   5.058   5.522  12.456
86717SOL    HW161990   5.146   5.496  12.431
86717SOL    HW261991   5.066   5.547  12.549
86718SOL     OW61992  14.130   0.293   6.323
86718SOL    HW161993  14.142   0.385   6.297
86718SOL    HW261994  14.052   0.295   6.379
86719SOL     OW61995  10.164  13.290  11.963
86719SOL    HW161996  10.233  13.347  11.927
86719SOL    HW261997  10.092  13.297  11.900
86720SOL     OW61998   6.386  12.761  14.240
86720SOL    HW161999   6.356  12.689  14.184
86720SOL    HW262000   6.335  12.837  14.210
86721SOL     OW62001  12.672   0.136   2.632
86721SOL    HW162002  12.603   0.078   2.663
86721SOL    HW262003  12.742   0.077   2.602
86722SOL     OW62004  10.640   7.161   8.575
86722SOL    HW162005  10.693   7.235   8.603
86722SOL    HW262006  10.703   7.090   8.561
86723SOL     OW62007   8.089   5.210  10.474
86723SOL    HW162008   8.114   5.234  10.385
86723SOL    HW262009   8.062   5.119  10.468
86724SOL     OW62010   1.519  12.574   2.094
86724SOL    HW162011   1.583  12.516   2.053
86724SOL    HW262012   1.438  12.560   2.045
86725SOL     OW62013   8.963   5.309   2.316
86725SOL    HW162014   8.988   5.217   2.310
86725SOL    HW262015   8.968   5.330   2.409
86726SOL     OW62016   4.532  13.192   0.944
86726SOL    HW162017   4.507  13.127   1.009
86726SOL    HW262018   4.466  13.260   0.951
86727SOL     OW62019   7.087   8.819   7.227
86727SOL    HW162020   7.068   8.756   7.296
86727SOL    HW262021   7.106   8.901   7.274
86728SOL     OW62022   0.266   4.915   3.065
86728SOL    HW162023   0.231   5.003   3.048
86728SOL    HW262024   0.214   4.882   3.138
86729SOL     OW62025   7.092   5.390  13.665
86729SOL    HW162026   7.048   5.305  13.664
86729SOL    HW262027   7.076   5.427  13.578
86730SOL     OW62028  14.505   0.239   7.851
86730SOL    HW162029  14.439   0.303   7.877
86730SOL    HW262030  14.524   0.191   7.931
86731SOL     OW62031  13.763   6.568  13.132
86731SOL    HW162032  13.710   6.647  13.123
86731SOL    HW262033  13.822   6.586  13.205
86732SOL     OW62034  13.121   4.848   4.416
86732SOL    HW162035  13.158   4.886   4.496
86732SOL    HW262036  13.050   4.791   4.447
86733SOL     OW62037  13.670   4.275   5.609
86733SOL    HW162038  13.716   4.192   5.597
86733SOL    HW262039  13.609   4.259   5.681
86734SOL     OW62040   7.737  13.350   5.863
86734SOL    HW162041   7.723  13.353   5.769
86734SOL    HW262042   7.693  13.269   5.891
86735SOL     OW62043  11.081   5.443   2.129
86735SOL    HW162044  11.150   5.383   2.156
86735SOL    HW262045  11.051   5.408   2.044
86736SOL     OW62046   9.460   7.440  13.084
86736SOL    HW162047   9.379   7.392  13.066
86736SOL    HW262048   9.443   7.484  13.167
86737SOL     OW62049  12.974  10.304   5.693
86737SOL    HW162050  13.035  10.365   5.650
86737SOL    HW262051  13.017  10.282   5.776
86738SOL     OW62052  10.872   5.118   1.983
86738SOL    HW162053  10.827   5.097   2.065
86738SOL    HW262054  10.807   5.100   1.915
86739SOL     OW62055  10.560  13.480   4.410
86739SOL    HW162056  10.511  13.562   4.403
86739SOL    HW262057  10.616  13.479   4.333
86740SOL     OW62058   2.290   4.376   3.701
86740SOL    HW162059   2.196   4.362   3.688
86740SOL    HW262060   2.306   4.464   3.667
86741SOL     OW62061  14.424   2.602   8.019
86741SOL    HW162062  14.344   2.557   8.043
86741SOL    HW262063  14.445   2.657   8.095
86742SOL     OW62064  14.316   4.449   6.726
86742SOL    HW162065  14.235   4.399   6.730
86742SOL    HW262066  14.384   4.384   6.746
86743SOL     OW62067   4.428   1.154   7.302
86743SOL    HW162068   4.343   1.130   7.339
86743SOL    HW262069   4.445   1.242   7.335
86744SOL     OW62070   1.012   7.115   9.640
86744SOL    HW162071   1.100   7.091   9.670
86744SOL    HW262072   1.012   7.095   9.547
86745SOL     OW62073  12.551  14.003   5.807
86745SOL    HW162074  12.618  14.060   5.845
86745SOL    HW262075  12.469  14.038   5.840
86746SOL     OW62076  14.108  10.319   7.403
86746SOL    HW162077  14.066  10.400   7.433
86746SOL    HW262078  14.177  10.349   7.344
86747SOL     OW62079   7.442  12.539   6.516
86747SOL    HW162080   7.356  12.551   6.475
86747SOL    HW262081   7.422  12.519   6.608
86748SOL     OW62082   3.470   4.555  11.806
86748SOL    HW162083   3.461   4.632  11.750
86748SOL    HW262084   3.402   4.565  11.873
86749SOL     OW62085   7.665  10.087   7.451
86749SOL    HW162086   7.601  10.028   7.411
86749SOL    HW262087   7.724  10.111   7.380
86750SOL     OW62088  13.592   0.121   6.455
86750SOL    HW162089  13.640   0.112   6.537
86750SOL    HW262090  13.635   0.061   6.394
86751SOL     OW62091   2.779   7.021   6.620
86751SOL    HW162092   2.793   7.098   6.674
86751SOL    HW262093   2.787   6.947   6.681
86752SOL     OW62094  14.829   5.015   1.867
86752SOL    HW162095  14.814   5.109   1.866
86752SOL    HW262096  14.828   4.991   1.959
86753SOL     OW62097   6.074   1.836   7.552
86753SOL    HW162098   6.143   1.885   7.508
86753SOL    HW262099   6.103   1.829   7.643
86754SOL     OW62100  14.442  11.105   3.381
86754SOL    HW162101  14.411  11.043   3.447
86754SOL    HW262102  14.523  11.141   3.418
86755SOL     OW62103  12.406  14.444   1.334
86755SOL    HW162104  12.461  14.481   1.265
86755SOL    HW262105  12.416  14.349   1.325
86756SOL     OW62106   8.878   4.479   4.928
86756SOL    HW162107   8.850   4.396   4.888
86756SOL    HW262108   8.797   4.515   4.966
86757SOL     OW62109   0.994  10.760  13.547
86757SOL    HW162110   0.901  10.762  13.523
86757SOL    HW262111   1.026  10.847  13.523
86758SOL     OW62112   0.575  13.950   3.790
86758SOL    HW162113   0.563  14.025   3.732
86758SOL    HW262114   0.625  13.887   3.738
86759SOL     OW62115   2.917   9.054   7.163
86759SOL    HW162116   2.859   8.985   7.132
86759SOL    HW262117   2.938   9.028   7.253
86760SOL     OW62118   2.514   7.460   5.567
86760SOL    HW162119   2.464   7.409   5.503
86760SOL    HW262120   2.559   7.527   5.514
86761SOL     OW62121   1.904   8.191  10.556
86761SOL    HW162122   1.865   8.195  10.469
86761SOL    HW262123   1.983   8.244  10.550
86762SOL     OW62124   7.364   4.977  10.985
86762SOL    HW162125   7.364   4.942  11.074
86762SOL    HW262126   7.444   5.030  10.980
86763SOL     OW62127   4.175   5.156  13.673
86763SOL    HW162128   4.126   5.174  13.753
86763SOL    HW262129   4.211   5.241  13.647
86764SOL     OW62130   4.309   0.783   8.509
86764SOL    HW162131   4.261   0.853   8.554
86764SOL    HW262132   4.278   0.703   8.551
86765SOL     OW62133   7.792   7.008   8.659
86765SOL    HW162134   7.780   7.077   8.593
86765SOL    HW262135   7.883   6.980   8.647
86766SOL     OW62136   4.238   8.346   2.266
86766SOL    HW162137   4.246   8.301   2.350
86766SOL    HW262138   4.317   8.400   2.260
86767SOL     OW62139   6.700  11.220  14.321
86767SOL    HW162140   6.609  11.236  14.293
86767SOL    HW262141   6.740  11.175  14.247
86768SOL     OW62142   0.078   9.838   2.702
86768SOL    HW162143   0.019   9.771   2.735
86768SOL    HW262144   0.091   9.815   2.610
86769SOL     OW62145   8.978  10.777  14.797
86769SOL    HW162146   8.960  10.828  14.876
86769SOL    HW262147   9.008  10.692  14.829
86770SOL     OW62148   5.515   6.596  12.809
86770SOL    HW162149   5.509   6.501  12.800
86770SOL    HW262150   5.560   6.626  12.730
86771SOL     OW62151   0.535   2.381   9.376
86771SOL    HW162152   0.622   2.420   9.367
86771SOL    HW262153   0.478   2.455   9.396
86772SOL     OW62154   3.860   8.918   9.467
86772SOL    HW162155   3.839   9.002   9.425
86772SOL    HW262156   3.838   8.852   9.401
86773SOL     OW62157   7.563   5.346   7.445
86773SOL    HW162158   7.613   5.398   7.382
86773SOL    HW262159   7.500   5.297   7.392
86774SOL     OW62160  10.232  14.314  10.295
86774SOL    HW162161  10.174  14.363  10.238
86774SOL    HW262162  10.315  14.311  10.248
86775SOL     OW62163   1.873  11.648   7.889
86775SOL    HW162164   1.948  11.629   7.832
86775SOL    HW262165   1.902  11.723   7.942
86776SOL     OW62166   6.541  14.752  12.630
86776SOL    HW162167   6.588  14.676  12.663
86776SOL    HW262168   6.609  14.816  12.611
86777SOL     OW62169   1.387   8.271   8.226
86777SOL    HW162170   1.446   8.347   8.223
86777SOL    HW262171   1.370   8.257   8.319
86778SOL     OW62172  12.192   9.444  14.438
86778SOL    HW162173  12.110   9.488  14.458
86778SOL    HW262174  12.175   9.396  14.357
86779SOL     OW62175   5.026   7.734   3.071
86779SOL    HW162176   4.931   7.742   3.076
86779SOL    HW262177   5.058   7.792   3.140
86780SOL     OW62178  12.997   3.080   4.481
86780SOL    HW162179  12.989   3.016   4.410
86780SOL    HW262180  12.945   3.155   4.453
86781SOL     OW62181   8.726   8.905  12.885
86781SOL    HW162182   8.819   8.901  12.864
86781SOL    HW262183   8.690   8.821  12.855
86782SOL     OW62184   2.817   0.826   7.827
86782SOL    HW162185   2.738   0.835   7.881
86782SOL    HW262186   2.799   0.751   7.770
86783SOL     OW62187   9.541   8.489   7.474
86783SOL    HW162188   9.468   8.452   7.524
86783SOL    HW262189   9.595   8.533   7.539
86784SOL     OW62190   6.328   3.459   6.204
86784SOL    HW162191   6.310   3.544   6.165
86784SOL    HW262192   6.249   3.438   6.254
86785SOL     OW62193  10.219   9.867   6.690
86785SOL    HW162194  10.239   9.911   6.773
86785SOL    HW262195  10.130   9.835   6.701
86786SOL     OW62196  10.839   5.434   0.720
86786SOL    HW162197  10.838   5.437   0.816
86786SOL    HW262198  10.922   5.473   0.695
86787SOL     OW62199   2.111   1.371   7.032
86787SOL    HW162200   2.073   1.458   7.023
86787SOL    HW262201   2.035   1.314   7.045
86788SOL     OW62202  10.500   1.293  11.493
86788SOL    HW162203  10.570   1.336  11.444
86788SOL    HW262204  10.421   1.310  11.442
86789SOL     OW62205   0.316  12.246   8.904
86789SOL    HW162206   0.248  12.313   8.895
86789SOL    HW262207   0.398  12.292   8.882
86790SOL     OW62208  13.264   6.009   8.586
86790SOL    HW162209  13.233   5.963   8.664
86790SOL    HW262210  13.185   6.027   8.536
86791SOL     OW62211   0.326   3.795  12.374
86791SOL    HW162212   0.251   3.736  12.374
86791SOL    HW262213   0.289   3.881  12.394
86792SOL     OW62214   2.795   2.219  14.296
86792SOL    HW162215   2.744   2.298  14.313
86792SOL    HW262216   2.878   2.251  14.260
86793SOL     OW62217   7.830  10.105   4.120
86793SOL    HW162218   7.826  10.013   4.143
86793SOL    HW262219   7.783  10.112   4.037
86794SOL     OW62220   0.322  10.469  13.569
86794SOL    HW162221   0.415  10.483  13.549
86794SOL    HW262222   0.305  10.526  13.644
86795SOL     OW62223   7.571   4.108  12.183
86795SOL    HW162224   7.564   4.199  12.156
86795SOL    HW262225   7.481   4.078  12.190
86796SOL     OW62226  12.484   3.931   4.264
86796SOL    HW162227  12.392   3.959   4.260
86796SOL    HW262228  12.524   3.990   4.327
86797SOL     OW62229   2.013   9.664   4.310
86797SOL    HW162230   2.010   9.759   4.322
86797SOL    HW262231   1.980   9.650   4.221
86798SOL     OW62232   4.000   5.796   9.498
86798SOL    HW162233   3.916   5.814   9.539
86798SOL    HW262234   4.039   5.883   9.483
86799SOL     OW62235   0.700   7.896   6.049
86799SOL    HW162236   0.710   7.926   5.959
86799SOL    HW262237   0.782   7.920   6.092
86800SOL     OW62238   1.524  12.955   4.425
86800SOL    HW162239   1.493  12.864   4.422
86800SOL    HW262240   1.463  13.003   4.368
86801SOL     OW62241  12.307   0.582   7.204
86801SOL    HW162242  12.311   0.640   7.129
86801SOL    HW262243  12.241   0.516   7.181
86802SOL     OW62244   6.945  12.322  12.940
86802SOL    HW162245   6.916  12.411  12.920
86802SOL    HW262246   7.039  12.324  12.926
86803SOL     OW62247   7.165   6.725   1.008
86803SOL    HW162248   7.097   6.782   1.042
86803SOL    HW262249   7.140   6.710   0.917
86804SOL     OW62250   5.873   6.344  11.893
86804SOL    HW162251   5.821   6.293  11.955
86804SOL    HW262252   5.813   6.363  11.821
86805SOL     OW62253   1.800  12.689   3.179
86805SOL    HW162254   1.808  12.686   3.274
86805SOL    HW262255   1.804  12.782   3.158
86806SOL     OW62256   0.847   2.646   1.521
86806SOL    HW162257   0.940   2.624   1.524
86806SOL    HW262258   0.803   2.561   1.526
86807SOL     OW62259   9.198  13.206  12.328
86807SOL    HW162260   9.284  13.173  12.356
86807SOL    HW262261   9.212  13.231  12.236
86808SOL     OW62262   7.712   5.623  12.989
86808SOL    HW162263   7.773   5.626  13.063
86808SOL    HW262264   7.739   5.695  12.932
86809SOL     OW62265  10.555   6.399  12.714
86809SOL    HW162266  10.636   6.366  12.675
86809SOL    HW262267  10.564   6.494  12.710
86810SOL     OW62268   1.954   2.109   0.214
86810SOL    HW162269   1.934   2.202   0.222
86810SOL    HW262270   1.950   2.092   0.120
86811SOL     OW62271   5.710   7.241  13.194
86811SOL    HW162272   5.725   7.326  13.152
86811SOL    HW262273   5.695   7.180  13.122
86812SOL     OW62274   5.187  10.580   2.357
86812SOL    HW162275   5.265  10.635   2.353
86812SOL    HW262276   5.123  10.632   2.405
86813SOL     OW62277   2.856   2.216   3.506
86813SOL    HW162278   2.810   2.192   3.425
86813SOL    HW262279   2.793   2.270   3.554
86814SOL     OW62280   2.996   3.337   7.237
86814SOL    HW162281   3.039   3.392   7.302
86814SOL    HW262282   2.977   3.255   7.284
86815SOL     OW62283  10.908  10.748  10.712
86815SOL    HW162284  10.925  10.654  10.709
86815SOL    HW262285  10.994  10.787  10.724
86816SOL     OW62286   2.480   4.969   0.880
86816SOL    HW162287   2.491   5.036   0.947
86816SOL    HW262288   2.547   4.989   0.814
86817SOL     OW62289  10.760   1.657  12.022
86817SOL    HW162290  10.838   1.712  12.033
86817SOL    HW262291  10.728   1.678  11.934
86818SOL     OW62292  13.441   0.974   0.433
86818SOL    HW162293  13.467   1.056   0.477
86818SOL    HW262294  13.356   0.952   0.471
86819SOL     OW62295   9.737   0.468   1.523
86819SOL    HW162296   9.826   0.504   1.521
86819SOL    HW262297   9.750   0.375   1.541
86820SOL     OW62298  10.044   7.511  13.910
86820SOL    HW162299   9.980   7.450  13.948
86820SOL    HW262300   9.990   7.579  13.870
86821SOL     OW62301   1.811  13.063   1.516
86821SOL    HW162302   1.755  12.986   1.518
86821SOL    HW262303   1.889  13.035   1.467
86822SOL     OW62304   4.422   0.050   5.232
86822SOL    HW162305   4.411  14.835   5.260
86822SOL    HW262306   4.517   0.062   5.226
86823SOL     OW62307  10.963   8.360   8.106
86823SOL    HW162308  10.931   8.345   8.017
86823SOL    HW262309  10.969   8.455   8.113
86824SOL     OW62310   6.746  11.860   3.933
86824SOL    HW162311   6.808  11.908   3.988
86824SOL    HW262312   6.732  11.916   3.857
86825SOL     OW62313   0.506   6.321  13.889
86825SOL    HW162314   0.451   6.376  13.833
86825SOL    HW262315   0.473   6.232  13.875
86826SOL     OW62316   4.461   8.976   1.763
86826SOL    HW162317   4.367   8.985   1.745
86826SOL    HW262318   4.476   8.882   1.766
86827SOL     OW62319   4.028  10.832  11.340
86827SOL    HW162320   4.090  10.880  11.286
86827SOL    HW262321   4.031  10.876  11.425
86828SOL     OW62322   6.712   5.067   3.999
86828SOL    HW162323   6.736   5.090   4.088
86828SOL    HW262324   6.720   5.148   3.949
86829SOL     OW62325   6.096   9.404   8.973
86829SOL    HW162326   6.044   9.405   9.054
86829SOL    HW262327   6.106   9.312   8.952
86830SOL     OW62328   8.089   9.199   6.625
86830SOL    HW162329   8.109   9.213   6.533
86830SOL    HW262330   8.003   9.237   6.637
86831SOL     OW62331  11.616   3.025   3.666
86831SOL    HW162332  11.584   2.939   3.694
86831SOL    HW262333  11.589   3.031   3.575
86832SOL     OW62334   7.838   3.028  13.005
86832SOL    HW162335   7.854   3.122  13.001
86832SOL    HW262336   7.812   3.004  12.916
86833SOL     OW62337   2.961   7.636  14.567
86833SOL    HW162338   3.021   7.692  14.517
86833SOL    HW262339   3.015   7.601  14.638
86834SOL     OW62340   5.716  13.207   3.658
86834SOL    HW162341   5.728  13.282   3.600
86834SOL    HW262342   5.799  13.158   3.650
86835SOL     OW62343   1.000  12.391   5.600
86835SOL    HW162344   0.983  12.383   5.693
86835SOL    HW262345   0.930  12.447   5.567
86836SOL     OW62346  11.037   5.765   3.187
86836SOL    HW162347  11.077   5.702   3.128
86836SOL    HW262348  10.943   5.747   3.180
86837SOL     OW62349   5.150   6.678   2.161
86837SOL    HW162350   5.189   6.755   2.119
86837SOL    HW262351   5.195   6.672   2.245
86838SOL     OW62352  12.971   8.349   8.630
86838SOL    HW162353  13.064   8.351   8.609
86838SOL    HW262354  12.935   8.279   8.575
86839SOL     OW62355   7.607  12.532  10.081
86839SOL    HW162356   7.679  12.589  10.106
86839SOL    HW262357   7.545  12.589  10.035
86840SOL     OW62358   5.341  10.773   3.489
86840SOL    HW162359   5.292  10.772   3.407
86840SOL    HW262360   5.429  10.801   3.464
86841SOL     OW62361   8.432  13.891   5.928
86841SOL    HW162362   8.462  13.808   5.964
86841SOL    HW262363   8.510  13.930   5.888
86842SOL     OW62364   8.097   0.082  11.960
86842SOL    HW162365   8.116  14.876  11.915
86842SOL    HW262366   8.127   0.068  12.049
86843SOL     OW62367   1.052   7.709   9.230
86843SOL    HW162368   1.062   7.666   9.145
86843SOL    HW262369   1.035   7.801   9.208
86844SOL     OW62370   0.708   3.354  13.693
86844SOL    HW162371   0.772   3.383  13.628
86844SOL    HW262372   0.761   3.306  13.758
86845SOL     OW62373   5.881   9.815   2.806
86845SOL    HW162374   5.886   9.737   2.751
86845SOL    HW262375   5.834   9.786   2.884
86846SOL     OW62376  14.403  13.516   0.165
86846SOL    HW162377  14.425  13.433   0.207
86846SOL    HW262378  14.311  13.508   0.141
86847SOL     OW62379   6.862  12.258  14.729
86847SOL    HW162380   6.908  12.329  14.774
86847SOL    HW262381   6.907  12.178  14.758
86848SOL     OW62382  10.588   9.160   1.417
86848SOL    HW162383  10.661   9.190   1.471
86848SOL    HW262384  10.610   9.189   1.328
86849SOL     OW62385  10.301   7.962   0.979
86849SOL    HW162386  10.285   8.048   1.017
86849SOL    HW262387  10.342   7.979   0.895
86850SOL     OW62388   3.878   6.953   9.574
86850SOL    HW162389   3.845   6.865   9.590
86850SOL    HW262390   3.922   6.947   9.489
86851SOL     OW62391   1.105  14.698   8.725
86851SOL    HW162392   1.051  14.631   8.765
86851SOL    HW262393   1.046  14.748   8.669
86852SOL     OW62394   7.059  11.499  10.518
86852SOL    HW162395   7.104  11.580  10.493
86852SOL    HW262396   7.082  11.437  10.449
86853SOL     OW62397   1.579   0.152   5.352
86853SOL    HW162398   1.648   0.218   5.343
86853SOL    HW262399   1.625   0.073   5.381
86854SOL     OW62400  14.006   5.693  13.417
86854SOL    HW162401  14.048   5.710  13.502
86854SOL    HW262402  13.914   5.679  13.438
86855SOL     OW62403   4.729   7.349   0.919
86855SOL    HW162404   4.720   7.357   1.014
86855SOL    HW262405   4.784   7.423   0.894
86856SOL     OW62406  14.783  10.606   5.877
86856SOL    HW162407  14.842  10.541   5.839
86856SOL    HW262408  14.730  10.636   5.803
86857SOL     OW62409  11.205   0.650   6.984
86857SOL    HW162410  11.159   0.726   7.020
86857SOL    HW262411  11.296   0.678   6.979
86858SOL     OW62412   4.720   3.523   6.817
86858SOL    HW162413   4.796   3.579   6.799
86858SOL    HW262414   4.757   3.446   6.859
86859SOL     OW62415  13.164   6.859  13.386
86859SOL    HW162416  13.096   6.924  13.400
86859SOL    HW262417  13.201   6.842  13.472
86860SOL     OW62418   6.880  10.816   5.283
86860SOL    HW162419   6.864  10.901   5.324
86860SOL    HW262420   6.794  10.788   5.250
86861SOL     OW62421   5.853   5.339  14.810
86861SOL    HW162422   5.778   5.360  14.866
86861SOL    HW262423   5.924   5.395  14.843
86862SOL     OW62424  14.219   6.332   2.005
86862SOL    HW162425  14.176   6.406   1.963
86862SOL    HW262426  14.148   6.273   2.029
86863SOL     OW62427  13.884   4.530  14.141
86863SOL    HW162428  13.879   4.512  14.235
86863SOL    HW262429  13.958   4.591  14.132
86864SOL     OW62430   8.887   6.396   8.702
86864SOL    HW162431   8.854   6.485   8.712
86864SOL    HW262432   8.808   6.342   8.697
86865SOL     OW62433   3.886  12.335   1.298
86865SOL    HW162434   3.805  12.296   1.264
86865SOL    HW262435   3.865  12.361   1.387
86866SOL     OW62436   5.293  12.435   0.518
86866SOL    HW162437   5.382  12.404   0.502
86866SOL    HW262438   5.257  12.373   0.582
86867SOL     OW62439   3.179   5.858   3.065
86867SOL    HW162440   3.205   5.948   3.046
86867SOL    HW262441   3.235   5.832   3.138
86868SOL     OW62442   9.894   9.703   3.086
86868SOL    HW162443   9.899   9.772   3.152
86868SOL    HW262444   9.959   9.728   3.020
86869SOL     OW62445   5.305  11.242   2.126
86869SOL    HW162446   5.395  11.212   2.131
86869SOL    HW262447   5.310  11.326   2.079
86870SOL     OW62448  11.834   5.011  14.025
86870SOL    HW162449  11.744   4.981  14.017
86870SOL    HW262450  11.826   5.101  14.059
86871SOL     OW62451   9.486   3.463   5.493
86871SOL    HW162452   9.556   3.470   5.429
86871SOL    HW262453   9.425   3.400   5.455
86872SOL     OW62454   4.360   3.848   0.704
86872SOL    HW162455   4.454   3.848   0.684
86872SOL    HW262456   4.325   3.777   0.650
86873SOL     OW62457   1.682  12.909   8.598
86873SOL    HW162458   1.757  12.949   8.554
86873SOL    HW262459   1.628  12.874   8.527
86874SOL     OW62460   6.780   0.511   2.200
86874SOL    HW162461   6.707   0.452   2.216
86874SOL    HW262462   6.749   0.598   2.226
86875SOL     OW62463   1.831  12.225   5.949
86875SOL    HW162464   1.858  12.189   6.033
86875SOL    HW262465   1.892  12.187   5.886
86876SOL     OW62466   8.041   2.401   1.932
86876SOL    HW162467   8.013   2.492   1.924
86876SOL    HW262468   8.134   2.403   1.908
86877SOL     OW62469   4.734   2.863   1.560
86877SOL    HW162470   4.737   2.911   1.477
86877SOL    HW262471   4.802   2.904   1.614
86878SOL     OW62472  11.828  14.700   5.715
86878SOL    HW162473  11.842  14.655   5.799
86878SOL    HW262474  11.845  14.792   5.735
86879SOL     OW62475  13.806   2.390  11.164
86879SOL    HW162476  13.717   2.355  11.163
86879SOL    HW262477  13.862   2.315  11.181
86880SOL     OW62478  13.893   5.386   1.709
86880SOL    HW162479  13.874   5.470   1.667
86880SOL    HW262480  13.934   5.334   1.640
86881SOL     OW62481  13.468  10.610  12.804
86881SOL    HW162482  13.475  10.517  12.827
86881SOL    HW262483  13.396  10.615  12.741
86882SOL     OW62484   9.152  10.223   1.597
86882SOL    HW162485   9.230  10.246   1.547
86882SOL    HW262486   9.115  10.307   1.625
86883SOL     OW62487   6.333  11.676   9.871
86883SOL    HW162488   6.323  11.767   9.844
86883SOL    HW262489   6.257  11.659   9.927
86884SOL     OW62490  12.606   1.954  11.637
86884SOL    HW162491  12.667   1.978  11.707
86884SOL    HW262492  12.563   2.036  11.614
86885SOL     OW62493  14.213   5.580   0.162
86885SOL    HW162494  14.119   5.581   0.147
86885SOL    HW262495  14.249   5.532   0.086
86886SOL     OW62496   8.332   4.130   4.342
86886SOL    HW162497   8.271   4.104   4.273
86886SOL    HW262498   8.280   4.190   4.397
86887SOL     OW62499   3.375   7.857   2.216
86887SOL    HW162500   3.331   7.863   2.131
86887SOL    HW262501   3.402   7.765   2.222
86888SOL     OW62502  10.687   2.408  14.347
86888SOL    HW162503  10.667   2.501  14.346
86888SOL    HW262504  10.772   2.401  14.302
86889SOL     OW62505   8.901   7.731  10.337
86889SOL    HW162506   8.823   7.707  10.387
86889SOL    HW262507   8.962   7.766  10.401
86890SOL     OW62508   7.471  12.957  10.814
86890SOL    HW162509   7.500  12.867  10.826
86890SOL    HW262510   7.546  13.002  10.776
86891SOL     OW62511   4.443   8.079   0.785
86891SOL    HW162512   4.380   8.137   0.741
86891SOL    HW262513   4.473   8.128   0.861
86892SOL     OW62514   5.729   4.805   5.938
86892SOL    HW162515   5.797   4.753   5.981
86892SOL    HW262516   5.775   4.850   5.867
86893SOL     OW62517   3.277  12.182  11.834
86893SOL    HW162518   3.344  12.236  11.792
86893SOL    HW262519   3.281  12.207  11.926
86894SOL     OW62520  11.307  10.966   7.460
86894SOL    HW162521  11.258  10.905   7.405
86894SOL    HW262522  11.275  10.951   7.548
86895SOL     OW62523   8.582  14.874   4.785
86895SOL    HW162524   8.589   0.093   4.790
86895SOL    HW262525   8.567  14.846   4.876
86896SOL     OW62526  12.759   3.372   8.434
86896SOL    HW162527  12.713   3.456   8.428
86896SOL    HW262528  12.690   3.307   8.434
86897SOL     OW62529   1.442  11.478   5.216
86897SOL    HW162530   1.363  11.482   5.269
86897SOL    HW262531   1.412  11.493   5.126
86898SOL     OW62532   8.150   2.528   3.127
86898SOL    HW162533   8.070   2.581   3.125
86898SOL    HW262534   8.159   2.496   3.037
86899SOL     OW62535  13.559  10.467   0.352
86899SOL    HW162536  13.551  10.454   0.257
86899SOL    HW262537  13.513  10.392   0.390
86900SOL     OW62538  11.347   7.671   6.867
86900SOL    HW162539  11.340   7.718   6.783
86900SOL    HW262540  11.282   7.714   6.923
86901SOL     OW62541   5.179   3.798  13.490
86901SOL    HW162542   5.204   3.715  13.531
86901SOL    HW262543   5.215   3.865  13.548
86902SOL     OW62544   4.140  13.932  13.522
86902SOL    HW162545   4.086  13.968  13.452
86902SOL    HW262546   4.151  13.840  13.499
86903SOL     OW62547   7.885   1.305  13.707
86903SOL    HW162548   7.960   1.258  13.670
86903SOL    HW262549   7.816   1.239  13.711
86904SOL     OW62550  10.097  12.495  11.774
86904SOL    HW162551  10.005  12.481  11.795
86904SOL    HW262552  10.114  12.438  11.700
86905SOL     OW62553   7.881  12.372  14.513
86905SOL    HW162554   7.892  12.467  14.508
86905SOL    HW262555   7.798  12.356  14.468
86906SOL     OW62556  10.792   9.621   4.687
86906SOL    HW162557  10.802   9.608   4.782
86906SOL    HW262558  10.700   9.645   4.677
86907SOL     OW62559   9.707   8.688   2.501
86907SOL    HW162560   9.687   8.723   2.588
86907SOL    HW262561   9.634   8.629   2.482
86908SOL     OW62562   3.188   1.284   8.712
86908SOL    HW162563   3.138   1.317   8.787
86908SOL    HW262564   3.279   1.284   8.742
86909SOL     OW62565  14.256   1.722   0.450
86909SOL    HW162566  14.331   1.673   0.485
86909SOL    HW262567  14.191   1.655   0.429
86910SOL     OW62568   3.612   2.720   9.064
86910SOL    HW162569   3.700   2.718   9.027
86910SOL    HW262570   3.625   2.738   9.157
86911SOL     OW62571   2.898   7.417  12.506
86911SOL    HW162572   2.899   7.367  12.588
86911SOL    HW262573   2.915   7.352  12.438
86912SOL     OW62574  11.774  14.786  14.011
86912SOL    HW162575  11.807  14.756  14.095
86912SOL    HW262576  11.744  14.706  13.967
86913SOL     OW62577  14.825   5.932   3.796
86913SOL    HW162578  14.828   5.917   3.701
86913SOL    HW262579   0.040   5.934   3.822
86914SOL     OW62580   2.366   3.149  11.395
86914SOL    HW162581   2.432   3.079  11.399
86914SOL    HW262582   2.417   3.230  11.399
86915SOL     OW62583  11.442   4.482  11.580
86915SOL    HW162584  11.351   4.489  11.608
86915SOL    HW262585  11.491   4.529  11.648
86916SOL     OW62586  10.329   1.553   6.119
86916SOL    HW162587  10.423   1.560   6.103
86916SOL    HW262588  10.289   1.603   6.048
86917SOL     OW62589   4.411  10.368   5.899
86917SOL    HW162590   4.474  10.305   5.863
86917SOL    HW262591   4.464  10.443   5.925
86918SOL     OW62592   7.636   9.225   0.454
86918SOL    HW162593   7.649   9.221   0.360
86918SOL    HW262594   7.564   9.286   0.466
86919SOL     OW62595   8.684   1.487  14.718
86919SOL    HW162596   8.735   1.421  14.671
86919SOL    HW262597   8.690   1.462  14.810
86920SOL     OW62598   9.054   2.174  11.226
86920SOL    HW162599   9.011   2.146  11.307
86920SOL    HW262600   9.101   2.254  11.250
86921SOL     OW62601   0.418   9.687   1.207
86921SOL    HW162602   0.501   9.696   1.254
86921SOL    HW262603   0.431   9.736   1.125
86922SOL     OW62604   8.066   6.761   4.353
86922SOL    HW162605   8.004   6.702   4.309
86922SOL    HW262606   8.079   6.833   4.292
86923SOL     OW62607   1.999   1.508   6.237
86923SOL    HW162608   1.917   1.530   6.192
86923SOL    HW262609   2.006   1.574   6.306
86924SOL     OW62610  14.402   1.597   1.720
86924SOL    HW162611  14.348   1.552   1.784
86924SOL    HW262612  14.423   1.530   1.655
86925SOL     OW62613   3.759   6.243   3.798
86925SOL    HW162614   3.733   6.183   3.728
86925SOL    HW262615   3.824   6.300   3.757
86926SOL     OW62616  12.894  11.178  13.943
86926SOL    HW162617  12.981  11.138  13.943
86926SOL    HW262618  12.838  11.114  13.987
86927SOL     OW62619   4.689   8.163   2.288
86927SOL    HW162620   4.643   8.208   2.358
86927SOL    HW262621   4.777   8.148   2.322
86928SOL     OW62622   7.793   0.269   9.833
86928SOL    HW162623   7.747   0.226   9.760
86928SOL    HW262624   7.778   0.211   9.908
86929SOL     OW62625   6.538  11.128   2.110
86929SOL    HW162626   6.559  11.141   2.203
86929SOL    HW262627   6.595  11.057   2.083
86930SOL     OW62628   4.123  13.058   2.889
86930SOL    HW162629   4.029  13.070   2.874
86930SOL    HW262630   4.164  13.088   2.808
86931SOL     OW62631  14.578  14.373   8.701
86931SOL    HW162632  14.483  14.364   8.708
86931SOL    HW262633  14.601  14.432   8.773
86932SOL     OW62634   1.270  13.028   8.745
86932SOL    HW162635   1.343  12.979   8.783
86932SOL    HW262636   1.290  13.120   8.765
86933SOL     OW62637  14.450   7.358   3.781
86933SOL    HW162638  14.369   7.377   3.828
86933SOL    HW262639  14.485   7.444   3.758
86934SOL     OW62640   6.943   7.386   7.859
86934SOL    HW162641   6.892   7.370   7.938
86934SOL    HW262642   7.028   7.417   7.892
86935SOL     OW62643   1.297  12.369  13.520
86935SOL    HW162644   1.222  12.425  13.500
86935SOL    HW262645   1.312  12.382  13.613
86936SOL     OW62646   4.776   9.930   7.748
86936SOL    HW162647   4.847   9.882   7.706
86936SOL    HW262648   4.703   9.868   7.750
86937SOL     OW62649   9.077  12.813  12.078
86937SOL    HW162650   9.089  12.849  12.165
86937SOL    HW262651   9.157  12.763  12.061
86938SOL     OW62652   4.508   7.513   6.194
86938SOL    HW162653   4.471   7.491   6.109
86938SOL    HW262654   4.488   7.439   6.250
86939SOL     OW62655   6.277   2.442   9.072
86939SOL    HW162656   6.343   2.506   9.098
86939SOL    HW262657   6.282   2.438   8.977
86940SOL     OW62658  10.386   0.575   3.357
86940SOL    HW162659  10.356   0.525   3.281
86940SOL    HW262660  10.379   0.666   3.330
86941SOL     OW62661   6.628   9.745   7.875
86941SOL    HW162662   6.567   9.752   7.948
86941SOL    HW262663   6.617   9.656   7.842
86942SOL     OW62664  14.141   8.412  11.811
86942SOL    HW162665  14.210   8.365  11.858
86942SOL    HW262666  14.166   8.406  11.719
86943SOL     OW62667   3.302   6.054   7.429
86943SOL    HW162668   3.388   6.070   7.467
86943SOL    HW262669   3.320   6.017   7.342
86944SOL     OW62670   4.608  11.866   0.317
86944SOL    HW162671   4.663  11.839   0.243
86944SOL    HW262672   4.645  11.820   0.392
86945SOL     OW62673   8.786   9.590   1.614
86945SOL    HW162674   8.870   9.565   1.574
86945SOL    HW262675   8.720   9.547   1.560
86946SOL     OW62676   1.686  11.567   2.518
86946SOL    HW162677   1.719  11.622   2.589
86946SOL    HW262678   1.693  11.622   2.440
86947SOL     OW62679  13.424   1.962   5.243
86947SOL    HW162680  13.503   2.008   5.272
86947SOL    HW262681  13.398   2.008   5.163
86948SOL     OW62682   5.101   5.567   1.368
86948SOL    HW162683   5.092   5.607   1.281
86948SOL    HW262684   5.194   5.580   1.390
86949SOL     OW62685   7.376   7.884   8.073
86949SOL    HW162686   7.385   7.978   8.083
86949SOL    HW262687   7.369   7.851   8.163
86950SOL     OW62688  14.583  14.191  10.181
86950SOL    HW162689  14.526  14.201  10.105
86950SOL    HW262690  14.606  14.281  10.206
86951SOL     OW62691   4.893   4.591   9.000
86951SOL    HW162692   4.805   4.585   8.963
86951SOL    HW262693   4.926   4.501   8.996
86952SOL     OW62694   3.732   5.207  11.278
86952SOL    HW162695   3.743   5.302  11.286
86952SOL    HW262696   3.638   5.193  11.286
86953SOL     OW62697   1.546   8.714  14.807
86953SOL    HW162698   1.560   8.726   0.025
86953SOL    HW262699   1.451   8.703  14.799
86954SOL     OW62700   9.893   8.863   3.482
86954SOL    HW162701   9.899   8.783   3.430
86954SOL    HW262702   9.814   8.852   3.535
86955SOL     OW62703   9.222  10.723   8.430
86955SOL    HW162704   9.135  10.685   8.443
86955SOL    HW262705   9.218  10.807   8.477
86956SOL     OW62706   7.213   4.339   8.171
86956SOL    HW162707   7.293   4.390   8.187
86956SOL    HW262708   7.240   4.248   8.183
86957SOL     OW62709  13.971   8.455   3.441
86957SOL    HW162710  13.908   8.425   3.506
86957SOL    HW262711  14.011   8.533   3.481
86958SOL     OW62712   4.809   3.639   7.825
86958SOL    HW162713   4.729   3.640   7.878
86958SOL    HW262714   4.870   3.694   7.872
86959SOL     OW62715   8.125  12.947   5.907
86959SOL    HW162716   8.191  12.879   5.895
86959SOL    HW262717   8.056  12.925   5.846
86960SOL     OW62718  11.945  11.286   7.388
86960SOL    HW162719  11.903  11.258   7.470
86960SOL    HW262720  11.878  11.337   7.343
86961SOL     OW62721  14.736  14.509   9.463
86961SOL    HW162722  14.715  14.594   9.502
86961SOL    HW262723  14.682  14.447   9.511
86962SOL     OW62724   7.356   9.626   0.323
86962SOL    HW162725   7.391   9.715   0.318
86962SOL    HW262726   7.399   9.579   0.251
86963SOL     OW62727  13.268   9.667   8.884
86963SOL    HW162728  13.318   9.635   8.809
86963SOL    HW262729  13.280   9.599   8.951
86964SOL     OW62730   1.043  12.320  14.647
86964SOL    HW162731   1.081  12.399  14.608
86964SOL    HW262732   0.956  12.313  14.607
86965SOL     OW62733  11.100  13.230   6.348
86965SOL    HW162734  11.168  13.204   6.287
86965SOL    HW262735  11.148  13.259   6.426
86966SOL     OW62736  14.366   6.583   1.790
86966SOL    HW162737  14.333   6.565   1.702
86966SOL    HW262738  14.299   6.549   1.849
86967SOL     OW62739  13.637   6.873   2.154
86967SOL    HW162740  13.544   6.880   2.137
86967SOL    HW262741  13.647   6.788   2.197
86968SOL     OW62742   6.364   2.655   5.376
86968SOL    HW162743   6.322   2.667   5.290
86968SOL    HW262744   6.292   2.663   5.438
86969SOL     OW62745   3.917   6.167  14.303
86969SOL    HW162746   3.978   6.124  14.364
86969SOL    HW262747   3.891   6.247  14.348
86970SOL     OW62748   5.590   5.687   6.390
86970SOL    HW162749   5.614   5.746   6.462
86970SOL    HW262750   5.657   5.703   6.323
86971SOL     OW62751  11.266   4.623  14.652
86971SOL    HW162752  11.291   4.632  14.744
86971SOL    HW262753  11.349   4.618  14.604
86972SOL     OW62754  13.383   1.544   2.140
86972SOL    HW162755  13.300   1.562   2.185
86972SOL    HW262756  13.419   1.631   2.121
86973SOL     OW62757   1.006  11.293  13.576
86973SOL    HW162758   0.946  11.348  13.627
86973SOL    HW262759   1.074  11.268  13.638
86974SOL     OW62760   3.138  13.525  13.609
86974SOL    HW162761   3.119  13.535  13.515
86974SOL    HW262762   3.182  13.606  13.633
86975SOL     OW62763   3.298   4.944   1.811
86975SOL    HW162764   3.341   4.880   1.755
86975SOL    HW262765   3.215   4.963   1.768
86976SOL     OW62766   9.187  14.662  12.397
86976SOL    HW162767   9.220  14.718  12.327
86976SOL    HW262768   9.249  14.675  12.469
86977SOL     OW62769  13.778   0.358   8.752
86977SOL    HW162770  13.832   0.438   8.754
86977SOL    HW262771  13.773   0.335   8.660
86978SOL     OW62772   9.950   8.096   6.521
86978SOL    HW162773  10.003   8.025   6.557
86978SOL    HW262774   9.910   8.138   6.597
86979SOL     OW62775   2.008  13.585  12.417
86979SOL    HW162776   2.079  13.603  12.356
86979SOL    HW262777   2.025  13.644  12.491
86980SOL     OW62778  12.277   5.380   7.424
86980SOL    HW162779  12.263   5.459   7.475
86980SOL    HW262780  12.200   5.326   7.441
86981SOL     OW62781   7.572   0.737   7.322
86981SOL    HW162782   7.587   0.831   7.314
86981SOL    HW262783   7.629   0.709   7.393
86982SOL     OW62784  14.362   4.743  13.832
86982SOL    HW162785  14.374   4.728  13.926
86982SOL    HW262786  14.370   4.657  13.792
86983SOL     OW62787   7.519   8.934   3.703
86983SOL    HW162788   7.569   8.927   3.621
86983SOL    HW262789   7.474   9.018   3.696
86984SOL     OW62790   5.920  13.840   1.641
86984SOL    HW162791   5.833  13.824   1.677
86984SOL    HW262792   5.936  13.933   1.659
86985SOL     OW62793   8.730  11.573   2.340
86985SOL    HW162794   8.726  11.496   2.396
86985SOL    HW262795   8.652  11.567   2.285
86986SOL     OW62796   6.846   4.188  10.244
86986SOL    HW162797   6.840   4.218  10.335
86986SOL    HW262798   6.887   4.102  10.250
86987SOL     OW62799   3.265   2.452   5.767
86987SOL    HW162800   3.317   2.430   5.845
86987SOL    HW262801   3.239   2.543   5.780
86988SOL     OW62802  14.195  13.371   1.923
86988SOL    HW162803  14.204  13.278   1.905
86988SOL    HW262804  14.271  13.412   1.881
86989SOL     OW62805   4.049  11.608  12.354
86989SOL    HW162806   4.083  11.696  12.343
86989SOL    HW262807   4.087  11.576  12.436
86990SOL     OW62808  12.456   7.442   5.028
86990SOL    HW162809  12.462   7.374   5.095
86990SOL    HW262810  12.410   7.400   4.955
86991SOL     OW62811  11.930  11.918   0.769
86991SOL    HW162812  11.870  11.905   0.695
86991SOL    HW262813  12.011  11.947   0.728
86992SOL     OW62814   9.514  11.302  11.046
86992SOL    HW162815   9.433  11.342  11.077
86992SOL    HW262816   9.565  11.375  11.010
86993SOL     OW62817   8.772   9.730   7.231
86993SOL    HW162818   8.755   9.685   7.314
86993SOL    HW262819   8.855   9.694   7.200
86994SOL     OW62820  10.098   1.272  13.567
86994SOL    HW162821  10.148   1.303  13.642
86994SOL    HW262822  10.152   1.204  13.528
86995SOL     OW62823  10.981  13.571  10.527
86995SOL    HW162824  11.031  13.490  10.520
86995SOL    HW262825  11.026  13.633  10.470
86996SOL     OW62826   9.324   6.068  10.958
86996SOL    HW162827   9.360   6.001  11.016
86996SOL    HW262828   9.256   6.022  10.908
86997SOL     OW62829   5.336   7.625  10.128
86997SOL    HW162830   5.290   7.706  10.105
86997SOL    HW262831   5.370   7.593  10.044
86998SOL     OW62832  10.729   3.871  10.890
86998SOL    HW162833  10.635   3.854  10.882
86998SOL    HW262834  10.755   3.905  10.804
86999SOL     OW62835   3.822   2.092   4.022
86999SOL    HW162836   3.745   2.146   4.041
86999SOL    HW262837   3.790   2.025   3.962
87000SOL     OW62838  10.206   2.808   3.599
87000SOL    HW162839  10.289   2.792   3.555
87000SOL    HW262840  10.180   2.722   3.634
87001SOL     OW62841   0.543   8.565   1.658
87001SOL    HW162842   0.595   8.586   1.736
87001SOL    HW262843   0.509   8.649   1.629
87002SOL     OW62844   3.730   7.526   9.587
87002SOL    HW162845   3.813   7.493   9.620
87002SOL    HW262846   3.724   7.615   9.621
87003SOL     OW62847  10.806   8.414   7.206
87003SOL    HW162848  10.790   8.470   7.130
87003SOL    HW262849  10.718   8.385   7.234
87004SOL     OW62850   2.170  10.156   6.127
87004SOL    HW162851   2.112  10.091   6.166
87004SOL    HW262852   2.134  10.172   6.040
87005SOL     OW62853   9.845   7.867   5.752
87005SOL    HW162854   9.923   7.837   5.799
87005SOL    HW262855   9.776   7.809   5.781
87006SOL     OW62856   4.453   9.457   1.182
87006SOL    HW162857   4.443   9.496   1.269
87006SOL    HW262858   4.528   9.502   1.144
87007SOL     OW62859   5.561   7.891  11.274
87007SOL    HW162860   5.522   7.846  11.198
87007SOL    HW262861   5.498   7.878  11.345
87008SOL     OW62862   1.756   6.169   3.856
87008SOL    HW162863   1.779   6.205   3.942
87008SOL    HW262864   1.694   6.231   3.820
87009SOL     OW62865  10.947   2.743   5.473
87009SOL    HW162866  10.995   2.666   5.442
87009SOL    HW262867  10.892   2.768   5.399
87010SOL     OW62868  14.345  11.052   9.031
87010SOL    HW162869  14.308  11.127   8.984
87010SOL    HW262870  14.272  11.019   9.084
87011SOL     OW62871   0.123   3.077  12.967
87011SOL    HW162872   0.184   3.142  13.004
87011SOL    HW262873   0.179   3.004  12.940
87012SOL     OW62874   8.941  11.264   2.985
87012SOL    HW162875   8.869  11.324   2.965
87012SOL    HW262876   8.907  11.178   2.963
87013SOL     OW62877   2.551   0.644   0.057
87013SOL    HW162878   2.474   0.587   0.054
87013SOL    HW262879   2.520   0.728   0.021
87014SOL     OW62880  10.682   3.049   5.723
87014SOL    HW162881  10.767   3.006   5.725
87014SOL    HW262882  10.634   3.005   5.653
87015SOL     OW62883   9.957   6.887   0.274
87015SOL    HW162884  10.021   6.888   0.202
87015SOL    HW262885  10.005   6.917   0.350
87016SOL     OW62886   8.593   1.569  11.390
87016SOL    HW162887   8.562   1.493  11.340
87016SOL    HW262888   8.572   1.644  11.334
87017SOL     OW62889   1.580   8.523   7.175
87017SOL    HW162890   1.648   8.574   7.131
87017SOL    HW262891   1.539   8.472   7.105
87018SOL     OW62892   7.000   6.493   8.153
87018SOL    HW162893   6.961   6.524   8.071
87018SOL    HW262894   6.965   6.405   8.163
87019SOL     OW62895   5.322   1.650  10.982
87019SOL    HW162896   5.296   1.728  10.934
87019SOL    HW262897   5.335   1.584  10.914
87020SOL     OW62898  14.626   1.624   3.098
87020SOL    HW162899  14.547   1.635   3.045
87020SOL    HW262900  14.601   1.558   3.163
87021SOL     OW62901   9.828   8.670  12.848
87021SOL    HW162902   9.773   8.618  12.906
87021SOL    HW262903   9.872   8.606  12.792
87022SOL     OW62904  12.192   6.680   2.805
87022SOL    HW162905  12.165   6.603   2.754
87022SOL    HW262906  12.196   6.751   2.741
87023SOL     OW62907   4.058  13.022  12.159
87023SOL    HW162908   4.019  13.013  12.246
87023SOL    HW262909   3.999  12.973  12.101
87024SOL     OW62910  12.103  13.761  14.625
87024SOL    HW162911  12.130  13.730  14.712
87024SOL    HW262912  12.011  13.733  14.618
87025SOL     OW62913  14.254  12.038   2.856
87025SOL    HW162914  14.224  12.003   2.939
87025SOL    HW262915  14.349  12.026   2.856
87026SOL     OW62916  10.225   9.024  12.495
87026SOL    HW162917  10.143   8.992  12.530
87026SOL    HW262918  10.266   9.072  12.567
87027SOL     OW62919   1.635  12.505  13.286
87027SOL    HW162920   1.644  12.410  13.296
87027SOL    HW262921   1.595  12.534  13.368
87028SOL     OW62922   8.069   5.450   1.298
87028SOL    HW162923   7.993   5.466   1.241
87028SOL    HW262924   8.072   5.526   1.356
87029SOL     OW62925   0.673  14.818  11.977
87029SOL    HW162926   0.762  14.793  12.003
87029SOL    HW262927   0.679  14.833  11.882
87030SOL     OW62928   0.496   7.855   1.897
87030SOL    HW162929   0.565   7.799   1.860
87030SOL    HW262930   0.495   7.932   1.841
87031SOL     OW62931  12.794   8.773  13.325
87031SOL    HW162932  12.738   8.705  13.362
87031SOL    HW262933  12.759   8.788  13.238
87032SOL     OW62934  10.187   7.386   3.380
87032SOL    HW162935  10.129   7.322   3.340
87032SOL    HW262936  10.207   7.449   3.310
87033SOL     OW62937  12.344   9.574  10.814
87033SOL    HW162938  12.250   9.579  10.832
87033SOL    HW262939  12.350   9.581  10.719
87034SOL     OW62940   3.263   9.937   5.018
87034SOL    HW162941   3.323   9.869   4.987
87034SOL    HW262942   3.184   9.889   5.045
87035SOL     OW62943   3.654   9.111   1.321
87035SOL    HW162944   3.680   9.107   1.229
87035SOL    HW262945   3.572   9.161   1.320
87036SOL     OW62946   8.007  13.920   0.920
87036SOL    HW162947   7.930  13.928   0.865
87036SOL    HW262948   8.008  13.828   0.948
87037SOL     OW62949   0.283   9.725   8.929
87037SOL    HW162950   0.200   9.716   8.976
87037SOL    HW262951   0.333   9.789   8.979
87038SOL     OW62952  14.219   0.242  11.056
87038SOL    HW162953  14.178   0.233  10.970
87038SOL    HW262954  14.313   0.229  11.039
87039SOL     OW62955   7.141   7.105   0.266
87039SOL    HW162956   7.144   7.015   0.299
87039SOL    HW262957   7.228   7.121   0.228
87040SOL     OW62958   1.523   6.599   4.108
87040SOL    HW162959   1.447   6.643   4.147
87040SOL    HW262960   1.573   6.568   4.183
87041SOL     OW62961  11.272   0.863   0.016
87041SOL    HW162962  11.315   0.799  14.836
87041SOL    HW262963  11.231   0.925  14.831
87042SOL     OW62964  10.859   3.566   3.022
87042SOL    HW162965  10.764   3.555   3.025
87042SOL    HW262966  10.889   3.501   2.959
87043SOL     OW62967   9.831   2.057   7.576
87043SOL    HW162968   9.869   1.987   7.523
87043SOL    HW262969   9.815   2.016   7.662
87044SOL     OW62970  10.762   6.549   3.261
87044SOL    HW162971  10.724   6.636   3.248
87044SOL    HW262972  10.766   6.538   3.356
87045SOL     OW62973  11.915   8.261   3.455
87045SOL    HW162974  11.903   8.307   3.372
87045SOL    HW262975  11.891   8.325   3.522
87046SOL     OW62976  10.627   4.558   9.238
87046SOL    HW162977  10.696   4.604   9.190
87046SOL    HW262978  10.599   4.621   9.304
87047SOL     OW62979   2.905  13.237   3.528
87047SOL    HW162980   2.947  13.181   3.594
87047SOL    HW262981   2.896  13.322   3.571
87048SOL     OW62982   0.435   3.724  12.606
87048SOL    HW162983   0.366   3.705  12.670
87048SOL    HW262984   0.387   3.744  12.526
87049SOL     OW62985  11.850  14.765   5.204
87049SOL    HW162986  11.789  14.747   5.276
87049SOL    HW262987  11.892  14.848   5.227
87050SOL     OW62988   0.712   1.801   1.608
87050SOL    HW162989   0.787   1.744   1.592
87050SOL    HW262990   0.747   1.872   1.662
87051SOL     OW62991  11.930   9.498  10.757
87051SOL    HW162992  11.917   9.471  10.848
87051SOL    HW262993  11.846   9.484  10.715
87052SOL     OW62994   2.391  13.150   8.402
87052SOL    HW162995   2.457  13.192   8.346
87052SOL    HW262996   2.439  13.125   8.481
87053SOL     OW62997  12.107  12.341   2.357
87053SOL    HW162998  12.024  12.370   2.318
87053SOL    HW262999  12.121  12.253   2.321
87054SOL     OW63000   2.530   7.398   0.167
87054SOL    HW163001   2.460   7.437   0.219
87054SOL    HW263002   2.601   7.383   0.230
87055SOL     OW63003  11.521   5.587   4.715
87055SOL    HW163004  11.470   5.668   4.711
87055SOL    HW263005  11.455   5.518   4.703
87056SOL     OW63006   5.225  11.958   9.127
87056SOL    HW163007   5.284  11.894   9.086
87056SOL    HW263008   5.164  11.904   9.178
87057SOL     OW63009  12.748   9.755   3.632
87057SOL    HW163010  12.826   9.793   3.672
87057SOL    HW263011  12.697   9.723   3.706
87058SOL     OW63012  11.001   7.202  13.378
87058SOL    HW163013  11.030   7.231  13.291
87058SOL    HW263014  10.967   7.114  13.363
87059SOL     OW63015   2.629   9.996   4.505
87059SOL    HW163016   2.579  10.078   4.503
87059SOL    HW263017   2.616   9.958   4.419
87060SOL     OW63018   4.358   9.770   2.550
87060SOL    HW163019   4.309   9.819   2.484
87060SOL    HW263020   4.439   9.820   2.561
87061SOL     OW63021   3.620   4.604   0.357
87061SOL    HW163022   3.610   4.629   0.266
87061SOL    HW263023   3.680   4.669   0.394
87062SOL     OW63024  12.798  14.339   7.515
87062SOL    HW163025  12.788  14.414   7.456
87062SOL    HW263026  12.725  14.281   7.492
87063SOL     OW63027   7.884   2.575   7.168
87063SOL    HW163028   7.863   2.489   7.206
87063SOL    HW263029   7.873   2.563   7.074
87064SOL     OW63030   2.721   1.855   3.766
87064SOL    HW163031   2.776   1.884   3.692
87064SOL    HW263032   2.714   1.761   3.755
87065SOL     OW63033   9.120   1.142   7.727
87065SOL    HW163034   9.209   1.107   7.722
87065SOL    HW263035   9.082   1.123   7.642
87066SOL     OW63036   2.322   9.793   4.401
87066SOL    HW163037   2.340   9.793   4.307
87066SOL    HW263038   2.231   9.823   4.408
87067SOL     OW63039  11.787   3.502   9.032
87067SOL    HW163040  11.763   3.410   9.046
87067SOL    HW263041  11.801   3.509   8.938
87068SOL     OW63042   3.945   4.592   9.800
87068SOL    HW163043   4.025   4.581   9.748
87068SOL    HW263044   3.977   4.610   9.888
87069SOL     OW63045   2.440  14.747  12.054
87069SOL    HW163046   2.516  14.786  12.098
87069SOL    HW263047   2.445  14.780  11.964
87070SOL     OW63048   9.731   3.030   0.479
87070SOL    HW163049   9.758   2.952   0.527
87070SOL    HW263050   9.801   3.093   0.494
87071SOL     OW63051   8.280  11.245  12.888
87071SOL    HW163052   8.354  11.291  12.927
87071SOL    HW263053   8.213  11.244  12.957
87072SOL     OW63054   4.063   1.514  14.297
87072SOL    HW163055   3.977   1.524  14.338
87072SOL    HW263056   4.114   1.589  14.329
87073SOL     OW63057  13.364   1.243  13.409
87073SOL    HW163058  13.336   1.219  13.497
87073SOL    HW263059  13.458   1.229  13.409
87074SOL     OW63060  11.693   5.005  10.756
87074SOL    HW163061  11.691   4.913  10.779
87074SOL    HW263062  11.631   5.047  10.816
87075SOL     OW63063   8.635  10.861   1.404
87075SOL    HW163064   8.652  10.773   1.370
87075SOL    HW263065   8.693  10.918   1.354
87076SOL     OW63066  10.826  10.762   6.583
87076SOL    HW163067  10.793  10.819   6.514
87076SOL    HW263068  10.917  10.789   6.595
87077SOL     OW63069  13.619  10.702  10.729
87077SOL    HW163070  13.713  10.713  10.743
87077SOL    HW263071  13.600  10.751  10.649
87078SOL     OW63072  12.273   7.660   2.523
87078SOL    HW163073  12.194   7.667   2.577
87078SOL    HW263074  12.294   7.750   2.500
87079SOL     OW63075   5.940  10.717   6.348
87079SOL    HW163076   5.992  10.636   6.351
87079SOL    HW263077   5.984  10.771   6.282
87080SOL     OW63078   8.841   6.417  12.342
87080SOL    HW163079   8.855   6.509  12.322
87080SOL    HW263080   8.759   6.395  12.299
87081SOL     OW63081  14.219   5.165   5.728
87081SOL    HW163082  14.285   5.096   5.723
87081SOL    HW263083  14.142   5.122   5.765
87082SOL     OW63084   3.353  14.027  14.364
87082SOL    HW163085   3.407  14.024  14.285
87082SOL    HW263086   3.280  14.084  14.341
87083SOL     OW63087  10.931  13.093  12.246
87083SOL    HW163088  10.991  13.114  12.318
87083SOL    HW263089  10.954  13.155  12.177
87084SOL     OW63090   8.344   3.806   1.928
87084SOL    HW163091   8.373   3.865   1.997
87084SOL    HW263092   8.349   3.858   1.848
87085SOL     OW63093   0.058   0.815   6.115
87085SOL    HW163094   0.045   0.901   6.157
87085SOL    HW263095   0.090   0.759   6.186
87086SOL     OW63096   9.732   7.300   3.667
87086SOL    HW163097   9.766   7.276   3.581
87086SOL    HW263098   9.759   7.228   3.724
87087SOL     OW63099   7.500   6.979  13.907
87087SOL    HW163100   7.450   6.926  13.969
87087SOL    HW263101   7.591   6.967  13.934
87088SOL     OW63102   7.184  14.343  11.879
87088SOL    HW163103   7.090  14.324  11.867
87088SOL    HW263104   7.221  14.338  11.791
87089SOL     OW63105   5.599   4.962   7.501
87089SOL    HW163106   5.570   4.897   7.565
87089SOL    HW263107   5.674   5.004   7.541
87090SOL     OW63108   0.320  12.694  12.164
87090SOL    HW163109   0.274  12.713  12.246
87090SOL    HW263110   0.249  12.680  12.100
87091SOL     OW63111  11.695  11.371   3.099
87091SOL    HW163112  11.768  11.396   3.156
87091SOL    HW263113  11.619  11.372   3.157
87092SOL     OW63114   8.055  11.723   7.909
87092SOL    HW163115   8.067  11.666   7.833
87092SOL    HW263116   7.970  11.699   7.944
87093SOL     OW63117   8.190   7.571   2.493
87093SOL    HW163118   8.253   7.615   2.549
87093SOL    HW263119   8.205   7.478   2.508
87094SOL     OW63120   3.213   1.013   8.895
87094SOL    HW163121   3.119   0.994   8.902
87094SOL    HW263122   3.256   0.934   8.927
87095SOL     OW63123  12.773   1.022  12.035
87095SOL    HW163124  12.751   1.089  12.100
87095SOL    HW263125  12.836   1.065  11.977
87096SOL     OW63126   7.198  13.781  10.906
87096SOL    HW163127   7.220  13.869  10.874
87096SOL    HW263128   7.282  13.744  10.934
87097SOL     OW63129   5.247   9.953   5.665
87097SOL    HW163130   5.208   9.990   5.586
87097SOL    HW263131   5.203   9.998   5.737
87098SOL     OW63132   3.798   0.485   9.670
87098SOL    HW163133   3.735   0.459   9.603
87098SOL    HW263134   3.757   0.460   9.753
87099SOL     OW63135   2.465   3.543   5.695
87099SOL    HW163136   2.525   3.529   5.768
87099SOL    HW263137   2.424   3.627   5.713
87100SOL     OW63138  10.236  10.612  10.159
87100SOL    HW163139  10.209  10.553  10.229
87100SOL    HW263140  10.297  10.561  10.107
87101SOL     OW63141   8.814  12.951  11.702
87101SOL    HW163142   8.779  13.028  11.656
87101SOL    HW263143   8.842  12.985  11.787
87102SOL     OW63144   8.240   6.260   3.933
87102SOL    HW163145   8.165   6.209   3.903
87102SOL    HW263146   8.225   6.272   4.027
87103SOL     OW63147   4.249  10.307   2.936
87103SOL    HW163148   4.270  10.352   2.854
87103SOL    HW263149   4.334  10.280   2.971
87104SOL     OW63150   8.002   4.032  11.382
87104SOL    HW163151   7.948   4.091  11.328
87104SOL    HW263152   8.091   4.062  11.368
87105SOL     OW63153   5.881  11.173  11.254
87105SOL    HW163154   5.858  11.103  11.315
87105SOL    HW263155   5.846  11.252  11.293
87106SOL     OW63156   7.478   9.092  14.437
87106SOL    HW163157   7.406   9.035  14.460
87106SOL    HW263158   7.457   9.176  14.478
87107SOL     OW63159   9.990   5.943   2.308
87107SOL    HW163160   9.962   5.852   2.305
87107SOL    HW263161  10.034   5.952   2.393
87108SOL     OW63162   7.951   1.507   1.977
87108SOL    HW163163   7.923   1.595   2.004
87108SOL    HW263164   7.897   1.487   1.901
87109SOL     OW63165   1.835   5.778   2.079
87109SOL    HW163166   1.744   5.809   2.078
87109SOL    HW263167   1.871   5.808   1.995
87110SOL     OW63168   5.110  11.427   7.793
87110SOL    HW163169   5.177  11.385   7.847
87110SOL    HW263170   5.074  11.496   7.849
87111SOL     OW63171   1.989   1.030   9.421
87111SOL    HW163172   1.953   1.058   9.337
87111SOL    HW263173   2.070   1.080   9.430
87112SOL     OW63174   4.283   9.197   9.242
87112SOL    HW163175   4.334   9.209   9.161
87112SOL    HW263176   4.272   9.286   9.276
87113SOL     OW63177   9.150  11.948   4.921
87113SOL    HW163178   9.146  11.915   5.011
87113SOL    HW263179   9.220  11.897   4.880
87114SOL     OW63180   3.454  12.397   7.794
87114SOL    HW163181   3.529  12.342   7.771
87114SOL    HW263182   3.423  12.431   7.711
87115SOL     OW63183  12.972  14.029  14.432
87115SOL    HW163184  12.983  13.949  14.381
87115SOL    HW263185  12.935  14.001  14.515
87116SOL     OW63186   0.123  10.455   6.060
87116SOL    HW163187   0.060  10.457   6.131
87116SOL    HW263188   0.174  10.375   6.075
87117SOL     OW63189   8.277   4.957   4.644
87117SOL    HW163190   8.366   4.988   4.658
87117SOL    HW263191   8.263   4.967   4.550
87118SOL     OW63192  13.892   0.953  12.463
87118SOL    HW163193  13.876   1.012  12.537
87118SOL    HW263194  13.941   0.880  12.501
87119SOL     OW63195   8.637   9.342   4.875
87119SOL    HW163196   8.637   9.246   4.879
87119SOL    HW263197   8.719   9.368   4.917
87120SOL     OW63198   0.066  11.155   3.670
87120SOL    HW163199   0.113  11.094   3.727
87120SOL    HW263200   0.065  11.238   3.718
87121SOL     OW63201  10.627   4.913  12.436
87121SOL    HW163202  10.575   4.932  12.514
87121SOL    HW263203  10.712   4.888  12.470
87122SOL     OW63204   7.272   1.270   3.556
87122SOL    HW163205   7.333   1.312   3.496
87122SOL    HW263206   7.267   1.329   3.631
87123SOL     OW63207   0.630  10.816   3.110
87123SOL    HW163208   0.586  10.751   3.164
87123SOL    HW263209   0.637  10.893   3.166
87124SOL     OW63210   0.116   1.210   1.554
87124SOL    HW163211   0.112   1.124   1.595
87124SOL    HW263212   0.154   1.194   1.468
87125SOL     OW63213  14.235   9.796  13.358
87125SOL    HW163214  14.323   9.757  13.351
87125SOL    HW263215  14.247   9.869  13.419
87126SOL     OW63216  11.965   9.529   1.096
87126SOL    HW163217  12.012   9.580   1.030
87126SOL    HW263218  11.874   9.531   1.066
87127SOL     OW63219  13.145   4.913   7.247
87127SOL    HW163220  13.061   4.947   7.214
87127SOL    HW263221  13.202   4.990   7.251
87128SOL     OW63222  12.119   6.283   1.184
87128SOL    HW163223  12.185   6.282   1.115
87128SOL    HW263224  12.098   6.375   1.197
87129SOL     OW63225  13.168  13.459  10.002
87129SOL    HW163226  13.204  13.479  10.088
87129SOL    HW263227  13.161  13.364  10.000
87130SOL     OW63228   7.404  14.757  11.080
87130SOL    HW163229   7.383  14.800  10.997
87130SOL    HW263230   7.488  14.713  11.063
87131SOL     OW63231   5.632  13.476   9.841
87131SOL    HW163232   5.559  13.506   9.788
87131SOL    HW263233   5.638  13.382   9.825
87132SOL     OW63234   1.319   4.830   4.940
87132SOL    HW163235   1.366   4.785   4.870
87132SOL    HW263236   1.319   4.922   4.915
87133SOL     OW63237   4.046   8.861  14.071
87133SOL    HW163238   3.981   8.906  14.017
87133SOL    HW263239   4.029   8.894  14.160
87134SOL     OW63240  11.597   7.824  12.695
87134SOL    HW163241  11.531   7.868  12.747
87134SOL    HW263242  11.588   7.731  12.718
87135SOL     OW63243  12.451   3.888   3.240
87135SOL    HW163244  12.366   3.916   3.273
87135SOL    HW263245  12.464   3.801   3.277
87136SOL     OW63246   0.417   1.429   2.910
87136SOL    HW163247   0.462   1.410   2.993
87136SOL    HW263248   0.383   1.344   2.882
87137SOL     OW63249   6.695   6.825   4.935
87137SOL    HW163250   6.647   6.762   4.989
87137SOL    HW263251   6.627   6.875   4.889
87138SOL     OW63252   1.844  12.360   5.342
87138SOL    HW163253   1.816  12.347   5.251
87138SOL    HW263254   1.880  12.448   5.343
87139SOL     OW63255   2.686   6.224   8.980
87139SOL    HW163256   2.668   6.186   9.065
87139SOL    HW263257   2.771   6.187   8.954
87140SOL     OW63258   8.991   2.305  10.856
87140SOL    HW163259   9.049   2.274  10.925
87140SOL    HW263260   9.010   2.248  10.781
87141SOL     OW63261   2.211  12.060   9.571
87141SOL    HW163262   2.166  11.980   9.546
87141SOL    HW263263   2.297  12.032   9.602
87142SOL     OW63264   3.579   3.215  10.710
87142SOL    HW163265   3.672   3.211  10.730
87142SOL    HW263266   3.573   3.272  10.634
87143SOL     OW63267  13.899   1.156   4.170
87143SOL    HW163268  13.841   1.223   4.133
87143SOL    HW263269  13.856   1.073   4.150
87144SOL     OW63270  13.138  12.507  12.358
87144SOL    HW163271  13.102  12.553  12.433
87144SOL    HW263272  13.075  12.438  12.338
87145SOL     OW63273   9.756   5.902   2.526
87145SOL    HW163274   9.762   5.938   2.615
87145SOL    HW263275   9.724   5.813   2.538
87146SOL     OW63276   9.891   9.809  12.792
87146SOL    HW163277   9.826   9.837  12.728
87146SOL    HW263278   9.958   9.764  12.741
87147SOL     OW63279   6.912   3.181   3.603
87147SOL    HW163280   6.822   3.184   3.638
87147SOL    HW263281   6.929   3.088   3.587
87148SOL     OW63282  11.221   0.691  13.201
87148SOL    HW163283  11.190   0.621  13.143
87148SOL    HW263284  11.164   0.765  13.181
87149SOL     OW63285   5.235   5.506   6.257
87149SOL    HW163286   5.182   5.430   6.281
87149SOL    HW263287   5.295   5.518   6.330
87150SOL     OW63288   4.879   0.482  11.017
87150SOL    HW163289   4.867   0.438  11.101
87150SOL    HW263290   4.973   0.494  11.010
87151SOL     OW63291   9.856   6.553   7.363
87151SOL    HW163292   9.910   6.486   7.320
87151SOL    HW263293   9.912   6.631   7.366
87152SOL     OW63294   1.585   3.169   0.166
87152SOL    HW163295   1.599   3.083   0.127
87152SOL    HW263296   1.575   3.151   0.260
87153SOL     OW63297  11.726   0.772   8.868
87153SOL    HW163298  11.687   0.685   8.865
87153SOL    HW263299  11.751   0.784   8.960
87154SOL     OW63300   4.923   2.408   0.537
87154SOL    HW163301   4.968   2.348   0.477
87154SOL    HW263302   4.840   2.365   0.557
87155SOL     OW63303  10.571   7.330  14.122
87155SOL    HW163304  10.519   7.383  14.182
87155SOL    HW263305  10.652   7.312  14.170
87156SOL     OW63306   8.296   4.535  13.323
87156SOL    HW163307   8.224   4.475  13.301
87156SOL    HW263308   8.292   4.603  13.255
87157SOL     OW63309  10.020   3.114   2.539
87157SOL    HW163310  10.011   3.209   2.550
87157SOL    HW263311   9.973   3.094   2.458
87158SOL     OW63312   0.589  14.452  13.594
87158SOL    HW163313   0.576  14.467  13.500
87158SOL    HW263314   0.559  14.532  13.636
87159SOL     OW63315   4.878   0.988   3.409
87159SOL    HW163316   4.849   0.923   3.473
87159SOL    HW263317   4.950   0.946   3.363
87160SOL     OW63318   7.480  13.900   0.796
87160SOL    HW163319   7.495  13.965   0.729
87160SOL    HW263320   7.462  13.819   0.748
87161SOL     OW63321  13.317   9.930   2.345
87161SOL    HW163322  13.228   9.965   2.346
87161SOL    HW263323  13.345   9.939   2.254
87162SOL     OW63324   9.080  11.287   2.367
87162SOL    HW163325   9.032  11.216   2.324
87162SOL    HW263326   9.048  11.367   2.325
87163SOL     OW63327   0.472   5.494  14.460
87163SOL    HW163328   0.391   5.532  14.492
87163SOL    HW263329   0.464   5.498  14.365
87164SOL     OW63330  13.934  13.119   9.373
87164SOL    HW163331  13.857  13.157   9.417
87164SOL    HW263332  13.951  13.178   9.300
87165SOL     OW63333   8.160  10.827  10.078
87165SOL    HW163334   8.255  10.842  10.075
87165SOL    HW263335   8.122  10.914  10.085
87166SOL     OW63336   8.400  11.082   7.285
87166SOL    HW163337   8.340  11.010   7.304
87166SOL    HW263338   8.414  11.077   7.190
87167SOL     OW63339   8.387  11.672   9.878
87167SOL    HW163340   8.401  11.717   9.961
87167SOL    HW263341   8.472  11.634   9.855
87168SOL     OW63342  14.250   9.593   1.551
87168SOL    HW163343  14.263   9.555   1.464
87168SOL    HW263344  14.158   9.619   1.552
87169SOL     OW63345   4.594   1.624   8.739
87169SOL    HW163346   4.666   1.686   8.723
87169SOL    HW263347   4.530   1.643   8.670
87170SOL     OW63348  11.867  12.764   3.515
87170SOL    HW163349  11.825  12.828   3.456
87170SOL    HW263350  11.926  12.715   3.458
87171SOL     OW63351   6.035   7.477   3.939
87171SOL    HW163352   6.117   7.434   3.963
87171SOL    HW263353   6.023   7.454   3.846
87172SOL     OW63354   5.114   2.122   4.822
87172SOL    HW163355   5.085   2.212   4.804
87172SOL    HW263356   5.189   2.133   4.881
87173SOL     OW63357  10.037   8.122   8.475
87173SOL    HW163358  10.095   8.193   8.505
87173SOL    HW263359  10.005   8.152   8.390
87174SOL     OW63360  12.982  11.089   6.451
87174SOL    HW163361  13.066  11.061   6.417
87174SOL    HW263362  12.972  11.180   6.421
87175SOL     OW63363  12.727   7.158   4.615
87175SOL    HW163364  12.733   7.194   4.526
87175SOL    HW263365  12.652   7.203   4.654
87176SOL     OW63366   2.336  11.489   1.227
87176SOL    HW163367   2.406  11.510   1.165
87176SOL    HW263368   2.312  11.573   1.265
87177SOL     OW63369   4.017   5.150   0.555
87177SOL    HW163370   4.004   5.079   0.492
87177SOL    HW263371   3.936   5.200   0.552
87178SOL     OW63372   2.806   6.614  14.365
87178SOL    HW163373   2.730   6.613  14.424
87178SOL    HW263374   2.768   6.614  14.277
87179SOL     OW63375   5.402   9.053  11.949
87179SOL    HW163376   5.415   8.961  11.974
87179SOL    HW263377   5.376   9.097  12.030
87180SOL     OW63378  10.135   2.032   7.202
87180SOL    HW163379  10.137   1.982   7.120
87180SOL    HW263380  10.086   2.112   7.180
87181SOL     OW63381   1.656   8.361   0.620
87181SOL    HW163382   1.681   8.319   0.537
87181SOL    HW263383   1.573   8.403   0.602
87182SOL     OW63384  14.412   1.871   9.134
87182SOL    HW163385  14.423   1.951   9.082
87182SOL    HW263386  14.354   1.897   9.206
87183SOL     OW63387  14.827  13.325  10.441
87183SOL    HW163388  14.829  13.418  10.419
87183SOL    HW263389  14.801  13.281  10.360
87184SOL     OW63390   9.362   9.437   9.359
87184SOL    HW163391   9.446   9.454   9.402
87184SOL    HW263392   9.342   9.517   9.312
87185SOL     OW63393   0.754   7.630  13.852
87185SOL    HW163394   0.685   7.593  13.797
87185SOL    HW263395   0.822   7.564  13.853
87186SOL     OW63396   6.288   0.159  10.689
87186SOL    HW163397   6.290   0.251  10.715
87186SOL    HW263398   6.300   0.111  10.771
87187SOL     OW63399   8.293   1.804  11.356
87187SOL    HW163400   8.224   1.869  11.349
87187SOL    HW263401   8.340   1.809  11.272
87188SOL     OW63402   3.839   0.948   6.654
87188SOL    HW163403   3.808   0.857   6.657
87188SOL    HW263404   3.761   1.000   6.638
87189SOL     OW63405   6.825  12.801  11.640
87189SOL    HW163406   6.848  12.726  11.585
87189SOL    HW263407   6.893  12.804  11.708
87190SOL     OW63408  12.200   9.093   7.801
87190SOL    HW163409  12.184   9.025   7.867
87190SOL    HW263410  12.260   9.154   7.843
87191SOL     OW63411  10.818   0.226   0.101
87191SOL    HW163412  10.883   0.247   0.167
87191SOL    HW263413  10.761   0.161   0.142
87192SOL     OW63414  10.249  12.473   3.146
87192SOL    HW163415  10.199  12.522   3.081
87192SOL    HW263416  10.218  12.383   3.138
87193SOL     OW63417   7.059   0.737   4.321
87193SOL    HW163418   7.104   0.821   4.310
87193SOL    HW263419   7.064   0.718   4.414
87194SOL     OW63420   6.972  11.733   1.812
87194SOL    HW163421   6.984  11.640   1.827
87194SOL    HW263422   7.042  11.775   1.863
87195SOL     OW63423   0.785  13.611   6.523
87195SOL    HW163424   0.792  13.660   6.441
87195SOL    HW263425   0.873  13.576   6.538
87196SOL     OW63426   5.192   4.482   5.674
87196SOL    HW163427   5.168   4.571   5.699
87196SOL    HW263428   5.285   4.474   5.698
87197SOL     OW63429   1.232   4.315   7.678
87197SOL    HW163430   1.229   4.378   7.750
87197SOL    HW263431   1.163   4.344   7.619
87198SOL     OW63432   7.774  10.318   1.333
87198SOL    HW163433   7.762  10.336   1.240
87198SOL    HW263434   7.696  10.269   1.358
87199SOL     OW63435   7.729   7.831  10.243
87199SOL    HW163436   7.674   7.891  10.194
87199SOL    HW263437   7.701   7.842  10.334
87200SOL     OW63438   2.729  14.596  14.147
87200SOL    HW163439   2.717  14.688  14.124
87200SOL    HW263440   2.680  14.548  14.080
87201SOL     OW63441   6.823   3.517  11.727
87201SOL    HW163442   6.873   3.547  11.802
87201SOL    HW263443   6.876   3.448  11.687
87202SOL     OW63444  11.592   5.773  11.492
87202SOL    HW163445  11.670   5.752  11.439
87202SOL    HW263446  11.623   5.838  11.555
87203SOL     OW63447  13.204  11.567   9.977
87203SOL    HW163448  13.222  11.655  10.009
87203SOL    HW263449  13.122  11.574   9.930
87204SOL     OW63450  12.907  12.650  10.939
87204SOL    HW163451  12.933  12.586  11.005
87204SOL    HW263452  12.858  12.600  10.875
87205SOL     OW63453  10.394   0.854   8.138
87205SOL    HW163454  10.438   0.933   8.171
87205SOL    HW263455  10.363   0.879   8.051
87206SOL     OW63456  10.416   9.017   2.511
87206SOL    HW163457  10.481   9.082   2.484
87206SOL    HW263458  10.395   8.968   2.431
87207SOL     OW63459  10.285  11.989  14.496
87207SOL    HW163460  10.372  11.948  14.498
87207SOL    HW263461  10.300  12.077  14.532
87208SOL     OW63462   6.610   6.498  12.414
87208SOL    HW163463   6.634   6.545  12.334
87208SOL    HW263464   6.642   6.554  12.485
87209SOL     OW63465   1.353   9.286   0.783
87209SOL    HW163466   1.343   9.225   0.855
87209SOL    HW263467   1.300   9.362   0.807
87210SOL     OW63468   8.221   5.056  10.680
87210SOL    HW163469   8.166   5.117  10.630
87210SOL    HW263470   8.309   5.069  10.645
87211SOL     OW63471  13.579  13.837  10.000
87211SOL    HW163472  13.608  13.862   9.912
87211SOL    HW263473  13.523  13.761   9.986
87212SOL     OW63474  14.784   3.804  10.485
87212SOL    HW163475  14.693   3.795  10.513
87212SOL    HW263476  14.828   3.729  10.524
87213SOL     OW63477   0.846   9.455   6.809
87213SOL    HW163478   0.935   9.425   6.789
87213SOL    HW263479   0.799   9.377   6.837
87214SOL     OW63480   7.722  13.908   5.879
87214SOL    HW163481   7.806  13.890   5.837
87214SOL    HW263482   7.679  13.823   5.886
87215SOL     OW63483   3.744  11.942  12.651
87215SOL    HW163484   3.703  11.996  12.584
87215SOL    HW263485   3.693  11.960  12.731
87216SOL     OW63486  13.953   0.393  12.506
87216SOL    HW163487  13.972   0.398  12.600
87216SOL    HW263488  13.887   0.462  12.492
87217SOL     OW63489   2.560   1.173   4.647
87217SOL    HW163490   2.501   1.241   4.615
87217SOL    HW263491   2.510   1.091   4.638
87218SOL     OW63492   6.476   4.243  11.853
87218SOL    HW163493   6.404   4.200  11.901
87218SOL    HW263494   6.535   4.273  11.922
87219SOL     OW63495   4.112   8.301   8.436
87219SOL    HW163496   4.048   8.233   8.455
87219SOL    HW263497   4.197   8.260   8.454
87220SOL     OW63498  14.580   9.714   6.028
87220SOL    HW163499  14.624   9.771   6.092
87220SOL    HW263500  14.637   9.715   5.952
87221SOL     OW63501  10.364  14.772  12.260
87221SOL    HW163502  10.450  14.789  12.300
87221SOL    HW263503  10.367  14.815  12.175
87222SOL     OW63504   6.591   7.987   5.507
87222SOL    HW163505   6.681   8.014   5.525
87222SOL    HW263506   6.543   8.069   5.497
87223SOL     OW63507   9.877   1.565   4.947
87223SOL    HW163508   9.937   1.603   4.883
87223SOL    HW263509   9.928   1.561   5.028
87224SOL     OW63510  14.728   8.697   9.781
87224SOL    HW163511  14.789   8.639   9.736
87224SOL    HW263512  14.745   8.784   9.743
87225SOL     OW63513   2.388   4.411   8.423
87225SOL    HW163514   2.364   4.501   8.446
87225SOL    HW263515   2.476   4.418   8.386
87226SOL     OW63516  13.727   1.951   2.434
87226SOL    HW163517  13.653   1.902   2.470
87226SOL    HW263518  13.697   2.041   2.431
87227SOL     OW63519  11.432   7.822  13.363
87227SOL    HW163520  11.474   7.865  13.437
87227SOL    HW263521  11.505   7.793  13.307
87228SOL     OW63522   8.939   8.123   9.769
87228SOL    HW163523   8.932   8.188   9.838
87228SOL    HW263524   8.948   8.040   9.815
87229SOL     OW63525  10.144   8.629  14.091
87229SOL    HW163526  10.168   8.721  14.106
87229SOL    HW263527  10.121   8.595  14.177
87230SOL     OW63528   2.124   2.120  11.741
87230SOL    HW163529   2.153   2.164  11.821
87230SOL    HW263530   2.153   2.029  11.752
87231SOL     OW63531   6.501   3.045   9.062
87231SOL    HW163532   6.464   2.990   9.131
87231SOL    HW263533   6.560   3.104   9.108
87232SOL     OW63534   3.659  12.020   6.583
87232SOL    HW163535   3.650  12.113   6.564
87232SOL    HW263536   3.571  11.992   6.609
87233SOL     OW63537   8.572   3.802  13.157
87233SOL    HW163538   8.530   3.761  13.233
87233SOL    HW263539   8.659   3.826  13.189
87234SOL     OW63540   5.116   7.916   2.382
87234SOL    HW163541   5.122   7.837   2.436
87234SOL    HW263542   5.026   7.918   2.351
87235SOL     OW63543  10.522  13.676   5.168
87235SOL    HW163544  10.536  13.600   5.225
87235SOL    HW263545  10.591  13.670   5.103
87236SOL     OW63546  12.972   8.512   0.292
87236SOL    HW163547  12.878   8.515   0.312
87236SOL    HW263548  12.993   8.419   0.292
87237SOL     OW63549  10.600  10.155   2.485
87237SOL    HW163550  10.625  10.171   2.394
87237SOL    HW263551  10.680  10.121   2.526
87238SOL     OW63552   1.530   6.230   0.710
87238SOL    HW163553   1.600   6.189   0.659
87238SOL    HW263554   1.449   6.199   0.669
87239SOL     OW63555  10.348   3.800   8.929
87239SOL    HW163556  10.361   3.732   8.863
87239SOL    HW263557  10.286   3.860   8.889
87240SOL     OW63558   5.340  13.623  12.934
87240SOL    HW163559   5.392  13.567  12.991
87240SOL    HW263560   5.384  13.708  12.937
87241SOL     OW63561   2.248   9.175   5.837
87241SOL    HW163562   2.153   9.167   5.841
87241SOL    HW263563   2.275   9.109   5.773
87242SOL     OW63564   0.567  13.547   0.436
87242SOL    HW163565   0.485  13.499   0.446
87242SOL    HW263566   0.617  13.523   0.514
87243SOL     OW63567   1.359   9.617   4.397
87243SOL    HW163568   1.307   9.628   4.477
87243SOL    HW263569   1.377   9.524   4.393
87244SOL     OW63570   7.333   3.392   3.385
87244SOL    HW163571   7.392   3.328   3.345
87244SOL    HW263572   7.266   3.408   3.318
87245SOL     OW63573  13.169   7.023   9.238
87245SOL    HW163574  13.188   6.968   9.162
87245SOL    HW263575  13.076   7.044   9.230
87246SOL     OW63576  11.540  14.641  14.569
87246SOL    HW163577  11.555  14.735  14.571
87246SOL    HW263578  11.506  14.621  14.657
87247SOL     OW63579   3.960  13.840   0.292
87247SOL    HW163580   4.031  13.781   0.268
87247SOL    HW263581   3.997  13.928   0.282
87248SOL     OW63582  10.947   9.079   2.975
87248SOL    HW163583  10.880   9.022   2.938
87248SOL    HW263584  10.998   9.022   3.032
87249SOL     OW63585  14.151  10.460  13.538
87249SOL    HW163586  14.135  10.538  13.590
87249SOL    HW263587  14.247  10.450  13.537
87250SOL     OW63588  11.814   2.666   2.212
87250SOL    HW163589  11.825   2.581   2.255
87250SOL    HW263590  11.882   2.721   2.251
87251SOL     OW63591   3.416   1.332   1.289
87251SOL    HW163592   3.387   1.416   1.252
87251SOL    HW263593   3.401   1.269   1.218
87252SOL     OW63594   5.122  14.583   1.029
87252SOL    HW163595   5.135  14.520   1.100
87252SOL    HW263596   5.171  14.661   1.056
87253SOL     OW63597  10.346  13.765  13.434
87253SOL    HW163598  10.431  13.722  13.438
87253SOL    HW263599  10.355  13.829  13.364
87254SOL     OW63600  12.841   6.352   7.145
87254SOL    HW163601  12.781   6.416   7.185
87254SOL    HW263602  12.871   6.394   7.065
87255SOL     OW63603   0.977  11.330  11.625
87255SOL    HW163604   1.070  11.307  11.621
87255SOL    HW263605   0.950  11.306  11.713
87256SOL     OW63606  14.127   3.702  13.707
87256SOL    HW163607  14.109   3.746  13.624
87256SOL    HW263608  14.067   3.743  13.770
87257SOL     OW63609   6.834   6.097   9.604
87257SOL    HW163610   6.883   6.123   9.525
87257SOL    HW263611   6.749   6.067   9.570
87258SOL     OW63612  13.964   6.408  14.705
87258SOL    HW163613  13.958   6.469  14.632
87258SOL    HW263614  14.036   6.350  14.682
87259SOL     OW63615  10.171   6.936  12.443
87259SOL    HW163616  10.100   6.891  12.487
87259SOL    HW263617  10.143   7.027  12.436
87260SOL     OW63618  10.140   5.352   5.784
87260SOL    HW163619  10.161   5.279   5.842
87260SOL    HW263620  10.052   5.333   5.753
87261SOL     OW63621   8.665  13.846  14.426
87261SOL    HW163622   8.576  13.876  14.444
87261SOL    HW263623   8.716  13.873  14.502
87262SOL     OW63624  13.737   2.597   8.395
87262SOL    HW163625  13.821   2.574   8.435
87262SOL    HW263626  13.737   2.549   8.312
87263SOL     OW63627  11.529  14.646   5.940
87263SOL    HW163628  11.478  14.725   5.920
87263SOL    HW263629  11.496  14.580   5.879
87264SOL     OW63630  12.306   5.951   7.490
87264SOL    HW163631  12.251   5.993   7.423
87264SOL    HW263632  12.338   6.024   7.543
87265SOL     OW63633  11.638   5.489   5.321
87265SOL    HW163634  11.573   5.557   5.340
87265SOL    HW263635  11.635   5.479   5.226
87266SOL     OW63636   8.743   8.503   7.146
87266SOL    HW163637   8.652   8.484   7.125
87266SOL    HW263638   8.787   8.507   7.061
87267SOL     OW63639   6.229  10.182   9.255
87267SOL    HW163640   6.282  10.261   9.242
87267SOL    HW263641   6.184  10.170   9.171
87268SOL     OW63642   1.991   8.593   9.957
87268SOL    HW163643   2.017   8.579  10.048
87268SOL    HW263644   1.937   8.672   9.959
87269SOL     OW63645   2.093   7.973   9.982
87269SOL    HW163646   2.029   7.922   9.932
87269SOL    HW263647   2.062   7.968  10.072
87270SOL     OW63648   9.161   1.274  10.907
87270SOL    HW163649   9.195   1.294  10.820
87270SOL    HW263650   9.183   1.351  10.959
87271SOL     OW63651   7.622   7.197  11.303
87271SOL    HW163652   7.651   7.199  11.212
87271SOL    HW263653   7.562   7.272  11.311
87272SOL     OW63654   5.166   4.916  12.812
87272SOL    HW163655   5.183   4.990  12.754
87272SOL    HW263656   5.167   4.954  12.900
87273SOL     OW63657   6.798   3.069  10.361
87273SOL    HW163658   6.848   3.134  10.312
87273SOL    HW263659   6.719   3.055  10.310
87274SOL     OW63660   3.768   2.623   7.344
87274SOL    HW163661   3.680   2.586   7.343
87274SOL    HW263662   3.757   2.713   7.312
87275SOL     OW63663  10.082   6.623   8.269
87275SOL    HW163664  10.155   6.685   8.266
87275SOL    HW263665  10.083   6.590   8.359
87276SOL     OW63666  10.622   8.338  10.065
87276SOL    HW163667  10.616   8.389   9.984
87276SOL    HW263668  10.539   8.291  10.071
87277SOL     OW63669   7.530   6.657  12.525
87277SOL    HW163670   7.507   6.657  12.432
87277SOL    HW263671   7.626   6.667  12.526
87278SOL     OW63672   1.125  10.448  14.363
87278SOL    HW163673   1.069  10.499  14.305
87278SOL    HW263674   1.068  10.381  14.400
87279SOL     OW63675   5.962  13.889  13.305
87279SOL    HW163676   5.921  13.805  13.285
87279SOL    HW263677   6.031  13.867  13.368
87280SOL     OW63678   6.412   5.329  11.075
87280SOL    HW163679   6.364   5.257  11.034
87280SOL    HW263680   6.490   5.341  11.020
87281SOL     OW63681   4.236  13.495  13.768
87281SOL    HW163682   4.246  13.435  13.694
87281SOL    HW263683   4.240  13.438  13.845
87282SOL     OW63684   4.476   6.712   1.285
87282SOL    HW163685   4.551   6.763   1.315
87282SOL    HW263686   4.400   6.764   1.311
87283SOL     OW63687   1.472   4.016  10.399
87283SOL    HW163688   1.384   4.006  10.361
87283SOL    HW263689   1.456   4.044  10.489
87284SOL     OW63690   8.488  13.840  14.837
87284SOL    HW163691   8.467  13.930  14.813
87284SOL    HW263692   8.467  13.788  14.759
87285SOL     OW63693   6.089   7.310   4.267
87285SOL    HW163694   6.104   7.218   4.289
87285SOL    HW263695   6.116   7.359   4.345
87286SOL     OW63696  14.708  14.677   7.826
87286SOL    HW163697  14.617  14.700   7.848
87286SOL    HW263698  14.760  14.747   7.864
87287SOL     OW63699   6.952  14.158  14.243
87287SOL    HW163700   6.945  14.077  14.293
87287SOL    HW263701   6.861  14.182  14.223
87288SOL     OW63702   3.352   9.268   0.707
87288SOL    HW163703   3.430   9.218   0.683
87288SOL    HW263704   3.284   9.236   0.647
87289SOL     OW63705  11.393   1.721  13.488
87289SOL    HW163706  11.362   1.631  13.486
87289SOL    HW263707  11.323   1.772  13.446
87290SOL     OW63708   9.360  12.257  13.954
87290SOL    HW163709   9.333  12.261  14.046
87290SOL    HW263710   9.328  12.172  13.923
87291SOL     OW63711   2.570   3.433  13.031
87291SOL    HW163712   2.563   3.494  12.958
87291SOL    HW263713   2.598   3.351  12.991
87292SOL     OW63714  14.054  12.028  12.808
87292SOL    HW163715  14.095  12.113  12.828
87292SOL    HW263716  14.121  11.980  12.759
87293SOL     OW63717  13.265  11.302   0.148
87293SOL    HW163718  13.320  11.242   0.199
87293SOL    HW263719  13.195  11.326   0.208
87294SOL     OW63720   8.543   4.855   8.247
87294SOL    HW163721   8.569   4.866   8.339
87294SOL    HW263722   8.447   4.861   8.248
87295SOL     OW63723  12.415  11.172   3.683
87295SOL    HW163724  12.414  11.118   3.604
87295SOL    HW263725  12.336  11.226   3.676
87296SOL     OW63726   9.158   0.103   8.219
87296SOL    HW163727   9.115   0.042   8.160
87296SOL    HW263728   9.111   0.186   8.208
87297SOL     OW63729   6.455   1.913  11.670
87297SOL    HW163730   6.433   1.899  11.579
87297SOL    HW263731   6.548   1.936  11.669
87298SOL     OW63732   6.538  11.658  11.971
87298SOL    HW163733   6.478  11.729  11.993
87298SOL    HW263734   6.531  11.598  12.045
87299SOL     OW63735   5.284   3.188  10.534
87299SOL    HW163736   5.315   3.198  10.445
87299SOL    HW263737   5.354   3.223  10.589
87300SOL     OW63738  12.937   3.038  11.549
87300SOL    HW163739  12.916   3.132  11.550
87300SOL    HW263740  12.864   2.997  11.503
87301SOL     OW63741   3.667  13.498   2.479
87301SOL    HW163742   3.756  13.511   2.446
87301SOL    HW263743   3.675  13.512   2.574
87302SOL     OW63744   2.057   9.688   2.621
87302SOL    HW163745   2.101   9.740   2.554
87302SOL    HW263746   2.010   9.620   2.572
87303SOL     OW63747   7.278   7.314  12.956
87303SOL    HW163748   7.325   7.397  12.957
87303SOL    HW263749   7.192   7.335  12.992
87304SOL     OW63750  11.809  11.644  11.711
87304SOL    HW163751  11.833  11.737  11.717
87304SOL    HW263752  11.780  11.632  11.621
87305SOL     OW63753   9.377   6.179  14.872
87305SOL    HW163754   9.388   6.254   0.054
87305SOL    HW263755   9.283   6.157   0.003
87306SOL     OW63756  10.854   9.179   4.337
87306SOL    HW163757  10.837   9.274   4.341
87306SOL    HW263758  10.847   9.150   4.428
87307SOL     OW63759   1.495   6.785  10.946
87307SOL    HW163760   1.493   6.830  10.862
87307SOL    HW263761   1.567   6.826  10.995
87308SOL     OW63762   5.367   5.011   5.765
87308SOL    HW163763   5.415   5.065   5.828
87308SOL    HW263764   5.276   5.037   5.776
87309SOL     OW63765   8.854  11.033   9.155
87309SOL    HW163766   8.847  10.964   9.088
87309SOL    HW263767   8.913  11.098   9.116
87310SOL     OW63768   1.319  10.243   1.394
87310SOL    HW163769   1.407  10.206   1.400
87310SOL    HW263770   1.332  10.337   1.405
87311SOL     OW63771   0.441   9.624   0.595
87311SOL    HW163772   0.479   9.564   0.531
87311SOL    HW263773   0.493   9.704   0.585
87312SOL     OW63774  10.335  13.426   3.651
87312SOL    HW163775  10.326  13.338   3.614
87312SOL    HW263776  10.333  13.412   3.746
87313SOL     OW63777   7.434   2.339   5.824
87313SOL    HW163778   7.407   2.427   5.797
87313SOL    HW263779   7.517   2.325   5.779
87314SOL     OW63780   9.435  14.401  12.014
87314SOL    HW163781   9.348  14.365  11.998
87314SOL    HW263782   9.422  14.463  12.086
87315SOL     OW63783   4.293   3.310   3.279
87315SOL    HW163784   4.354   3.242   3.249
87315SOL    HW263785   4.209   3.266   3.286
87316SOL     OW63786   0.478   7.141   6.513
87316SOL    HW163787   0.465   7.108   6.424
87316SOL    HW263788   0.566   7.181   6.511
87317SOL     OW63789   8.717   1.258   3.237
87317SOL    HW163790   8.722   1.258   3.333
87317SOL    HW263791   8.799   1.219   3.209
87318SOL     OW63792  14.472  14.847   2.387
87318SOL    HW163793  14.452   0.021   2.467
87318SOL    HW263794  14.442  14.758   2.407
87319SOL     OW63795   0.648   8.973   5.791
87319SOL    HW163796   0.646   9.067   5.769
87319SOL    HW263797   0.607   8.968   5.878
87320SOL     OW63798  14.473   6.294   6.842
87320SOL    HW163799  14.519   6.378   6.845
87320SOL    HW263800  14.425   6.290   6.925
87321SOL     OW63801  10.338   5.912   1.729
87321SOL    HW163802  10.299   5.923   1.816
87321SOL    HW263803  10.300   5.982   1.676
87322SOL     OW63804  10.535   7.748   0.187
87322SOL    HW163805  10.445   7.730   0.216
87322SOL    HW263806  10.565   7.665   0.150
87323SOL     OW63807   0.499  11.295   7.561
87323SOL    HW163808   0.409  11.267   7.550
87323SOL    HW263809   0.552  11.227   7.519
87324SOL     OW63810   6.288   7.744   8.627
87324SOL    HW163811   6.310   7.651   8.633
87324SOL    HW263812   6.226   7.759   8.699
87325SOL     OW63813  12.672  10.595   7.788
87325SOL    HW163814  12.592  10.612   7.838
87325SOL    HW263815  12.698  10.506   7.814
87326SOL     OW63816   3.924  12.678   6.451
87326SOL    HW163817   4.006  12.697   6.497
87326SOL    HW263818   3.946  12.685   6.358
87327SOL     OW63819   2.307   1.861   6.518
87327SOL    HW163820   2.325   1.944   6.562
87327SOL    HW263821   2.328   1.795   6.583
87328SOL     OW63822   1.013   5.538   0.842
87328SOL    HW163823   0.979   5.624   0.817
87328SOL    HW263824   1.022   5.491   0.759
87329SOL     OW63825   2.135   7.453   6.317
87329SOL    HW163826   2.057   7.415   6.275
87329SOL    HW263827   2.114   7.546   6.326
87330SOL     OW63828   6.820   0.783   2.572
87330SOL    HW163829   6.798   0.871   2.544
87330SOL    HW263830   6.826   0.733   2.491
87331SOL     OW63831   6.886   6.347   5.436
87331SOL    HW163832   6.942   6.386   5.503
87331SOL    HW263833   6.841   6.276   5.481
87332SOL     OW63834  11.509   1.345  12.278
87332SOL    HW163835  11.551   1.431  12.281
87332SOL    HW263836  11.458   1.347  12.196
87333SOL     OW63837  12.746   6.771  11.422
87333SOL    HW163838  12.743   6.762  11.326
87333SOL    HW263839  12.807   6.844  11.437
87334SOL     OW63840   6.542  12.026   5.143
87334SOL    HW163841   6.497  12.084   5.081
87334SOL    HW263842   6.480  11.955   5.159
87335SOL     OW63843   7.104   1.521   3.343
87335SOL    HW163844   7.122   1.615   3.340
87335SOL    HW263845   7.190   1.480   3.335
87336SOL     OW63846   8.985   3.146   4.382
87336SOL    HW163847   8.912   3.206   4.400
87336SOL    HW263848   8.944   3.060   4.374
87337SOL     OW63849   5.429   5.024   4.569
87337SOL    HW163850   5.502   4.969   4.597
87337SOL    HW263851   5.352   4.967   4.574
87338SOL     OW63852   4.092  11.146   5.076
87338SOL    HW163853   4.148  11.181   5.146
87338SOL    HW263854   4.043  11.222   5.046
87339SOL     OW63855   9.462   9.197  11.197
87339SOL    HW163856   9.521   9.263  11.233
87339SOL    HW263857   9.379   9.211  11.243
87340SOL     OW63858   5.706  14.539   3.336
87340SOL    HW163859   5.679  14.608   3.276
87340SOL    HW263860   5.758  14.479   3.282
87341SOL     OW63861   3.521  13.067   9.124
87341SOL    HW163862   3.473  13.096   9.047
87341SOL    HW263863   3.603  13.117   9.122
87342SOL     OW63864   0.227  11.013   8.265
87342SOL    HW163865   0.265  10.949   8.205
87342SOL    HW263866   0.302  11.049   8.313
87343SOL     OW63867  13.566  12.071   2.435
87343SOL    HW163868  13.518  11.990   2.415
87343SOL    HW263869  13.654  12.041   2.457
87344SOL     OW63870   9.838   4.571   8.012
87344SOL    HW163871   9.888   4.490   8.022
87344SOL    HW263872   9.886   4.635   8.064
87345SOL     OW63873   7.647  12.483   7.336
87345SOL    HW163874   7.705  12.425   7.287
87345SOL    HW263875   7.644  12.564   7.283
87346SOL     OW63876  13.057   1.562   8.508
87346SOL    HW163877  12.993   1.491   8.508
87346SOL    HW263878  13.015   1.632   8.458
87347SOL     OW63879   8.815   2.029   7.566
87347SOL    HW163880   8.848   1.964   7.504
87347SOL    HW263881   8.882   2.096   7.570
87348SOL     OW63882  12.178   7.546   5.770
87348SOL    HW163883  12.113   7.553   5.841
87348SOL    HW263884  12.260   7.573   5.811
87349SOL     OW63885   8.989   0.194   1.487
87349SOL    HW163886   9.056   0.260   1.505
87349SOL    HW263887   9.021   0.149   1.408
87350SOL     OW63888   8.403   1.550  12.943
87350SOL    HW163889   8.372   1.480  12.885
87350SOL    HW263890   8.479   1.512  12.987
87351SOL     OW63891   6.728  10.269   6.615
87351SOL    HW163892   6.680  10.259   6.697
87351SOL    HW263893   6.780  10.188   6.608
87352SOL     OW63894  11.803  12.138   2.120
87352SOL    HW163895  11.777  12.060   2.169
87352SOL    HW263896  11.725  12.159   2.068
87353SOL     OW63897   7.246   6.332   5.250
87353SOL    HW163898   7.303   6.379   5.189
87353SOL    HW263899   7.242   6.243   5.215
87354SOL     OW63900   6.117   2.301   4.709
87354SOL    HW163901   6.154   2.345   4.786
87354SOL    HW263902   6.190   2.293   4.648
87355SOL     OW63903   9.225   3.256   0.739
87355SOL    HW163904   9.270   3.282   0.819
87355SOL    HW263905   9.177   3.335   0.712
87356SOL     OW63906   9.568   5.096  11.680
87356SOL    HW163907   9.473   5.096  11.671
87356SOL    HW263908   9.590   5.187  11.697
87357SOL     OW63909  10.802   7.716  12.411
87357SOL    HW163910  10.746   7.653  12.366
87357SOL    HW263911  10.863   7.661  12.461
87358SOL     OW63912   7.341   0.970   3.332
87358SOL    HW163913   7.322   0.897   3.273
87358SOL    HW263914   7.257   1.015   3.343
87359SOL     OW63915  10.950   2.183   7.943
87359SOL    HW163916  10.860   2.177   7.911
87359SOL    HW263917  10.948   2.257   8.004
87360SOL     OW63918   9.776   4.201   3.409
87360SOL    HW163919   9.730   4.150   3.476
87360SOL    HW263920   9.775   4.291   3.442
87361SOL     OW63921   3.414   7.189   5.910
87361SOL    HW163922   3.497   7.186   5.957
87361SOL    HW263923   3.363   7.257   5.955
87362SOL     OW63924   1.436   6.060   6.701
87362SOL    HW163925   1.446   6.044   6.795
87362SOL    HW263926   1.348   6.028   6.680
87363SOL     OW63927   9.944  12.876  10.311
87363SOL    HW163928   9.859  12.865  10.269
87363SOL    HW263929   9.974  12.787  10.327
87364SOL     OW63930   1.339   4.325  12.520
87364SOL    HW163931   1.357   4.394  12.584
87364SOL    HW263932   1.252   4.346  12.487
87365SOL     OW63933   5.829  13.524   7.690
87365SOL    HW163934   5.781  13.496   7.612
87365SOL    HW263935   5.832  13.446   7.746
87366SOL     OW63936   0.194  11.350   2.800
87366SOL    HW163937   0.214  11.373   2.891
87366SOL    HW263938   0.099  11.342   2.798
87367SOL     OW63939  11.351  10.503   1.874
87367SOL    HW163940  11.422  10.536   1.928
87367SOL    HW263941  11.393  10.474   1.793
87368SOL     OW63942  12.959   2.263   2.961
87368SOL    HW163943  12.874   2.271   3.003
87368SOL    HW263944  12.986   2.173   2.976
87369SOL     OW63945   6.702  12.648   0.833
87369SOL    HW163946   6.642  12.707   0.786
87369SOL    HW263947   6.681  12.661   0.925
87370SOL     OW63948   8.714  10.533  14.032
87370SOL    HW163949   8.802  10.562  14.009
87370SOL    HW263950   8.670  10.520  13.949
87371SOL     OW63951  13.543   5.511   7.407
87371SOL    HW163952  13.507   5.520   7.319
87371SOL    HW263953  13.473   5.541   7.465
87372SOL     OW63954   5.507  12.203   2.918
87372SOL    HW163955   5.573  12.257   2.873
87372SOL    HW263956   5.426  12.252   2.909
87373SOL     OW63957   9.933  12.247   6.759
87373SOL    HW163958   9.979  12.286   6.833
87373SOL    HW263959   9.866  12.311   6.736
87374SOL     OW63960  14.332   3.777  13.903
87374SOL    HW163961  14.263   3.831  13.941
87374SOL    HW263962  14.286   3.705  13.861
87375SOL     OW63963  13.546   2.767  11.155
87375SOL    HW163964  13.500   2.792  11.076
87375SOL    HW263965  13.582   2.680  11.136
87376SOL     OW63966   4.445   3.902   1.905
87376SOL    HW163967   4.435   3.834   1.972
87376SOL    HW263968   4.382   3.877   1.837
87377SOL     OW63969  12.685   4.167  12.743
87377SOL    HW163970  12.763   4.134  12.698
87377SOL    HW263971  12.699   4.144  12.835
87378SOL     OW63972   7.881  13.559   6.836
87378SOL    HW163973   7.932  13.629   6.878
87378SOL    HW263974   7.805  13.547   6.893
87379SOL     OW63975   6.341  13.344   0.896
87379SOL    HW163976   6.287  13.417   0.866
87379SOL    HW263977   6.426  13.384   0.915
87380SOL     OW63978   0.531  12.390   2.435
87380SOL    HW163979   0.439  12.388   2.408
87380SOL    HW263980   0.546  12.304   2.473
87381SOL     OW63981  11.167   6.032   0.766
87381SOL    HW163982  11.123   6.081   0.835
87381SOL    HW263983  11.109   5.958   0.748
87382SOL     OW63984  14.054   7.051   7.394
87382SOL    HW163985  13.961   7.040   7.376
87382SOL    HW263986  14.071   6.995   7.470
87383SOL     OW63987  11.347   5.583   4.439
87383SOL    HW163988  11.263   5.610   4.477
87383SOL    HW263989  11.387   5.665   4.412
87384SOL     OW63990  13.477   3.610  14.180
87384SOL    HW163991  13.543   3.580  14.117
87384SOL    HW263992  13.473   3.705  14.167
87385SOL     OW63993   7.590   4.316   6.299
87385SOL    HW163994   7.555   4.327   6.210
87385SOL    HW263995   7.617   4.404   6.326
87386SOL     OW63996   9.825   1.711   1.135
87386SOL    HW163997   9.858   1.784   1.082
87386SOL    HW263998   9.901   1.656   1.151
87387SOL     OW63999   1.004  11.503   0.030
87387SOL    HW164000   1.050  11.586   0.033
87387SOL    HW264001   1.058  11.447  14.850
87388SOL     OW64002   8.675   4.974  13.728
87388SOL    HW164003   8.752   4.999  13.678
87388SOL    HW264004   8.636   5.057  13.756
87389SOL     OW64005   7.946   9.809  13.127
87389SOL    HW164006   7.893   9.887  13.111
87389SOL    HW264007   7.982   9.821  13.215
87390SOL     OW64008   3.517   8.436   0.169
87390SOL    HW164009   3.546   8.368   0.229
87390SOL    HW264010   3.567   8.421   0.089
87391SOL     OW64011  11.490  11.636   9.440
87391SOL    HW164012  11.561  11.572   9.425
87391SOL    HW264013  11.536  11.718   9.457
87392SOL     OW64014   8.504   2.397  12.966
87392SOL    HW164015   8.465   2.310  12.963
87392SOL    HW264016   8.440   2.451  13.012
87393SOL     OW64017  10.152  14.207  12.918
87393SOL    HW164018  10.181  14.224  13.007
87393SOL    HW264019  10.218  14.250  12.863
87394SOL     OW64020  12.205   6.277  12.805
87394SOL    HW164021  12.187   6.191  12.844
87394SOL    HW264022  12.264   6.320  12.867
87395SOL     OW64023  13.913  10.637   9.717
87395SOL    HW164024  13.996  10.590   9.720
87395SOL    HW264025  13.851  10.575   9.677
87396SOL     OW64026   8.446   1.249   3.567
87396SOL    HW164027   8.408   1.337   3.579
87396SOL    HW264028   8.388   1.191   3.616
87397SOL     OW64029  14.259   7.690   7.022
87397SOL    HW164030  14.194   7.706   7.090
87397SOL    HW264031  14.277   7.596   7.028
87398SOL     OW64032   6.377  13.653  11.309
87398SOL    HW164033   6.312  13.720  11.291
87398SOL    HW264034   6.327  13.575  11.331
87399SOL     OW64035  12.230  14.306  14.176
87399SOL    HW164036  12.239  14.352  14.259
87399SOL    HW264037  12.142  14.328  14.145
87400SOL     OW64038   4.615   3.817  10.245
87400SOL    HW164039   4.700   3.855  10.266
87400SOL    HW264040   4.571   3.807  10.329
87401SOL     OW64041   0.680   7.740   1.720
87401SOL    HW164042   0.677   7.651   1.687
87401SOL    HW264043   0.772   7.754   1.743
87402SOL     OW64044   7.067   4.408   5.201
87402SOL    HW164045   6.987   4.363   5.176
87402SOL    HW264046   7.052   4.499   5.178
87403SOL     OW64047   4.520   3.304  14.146
87403SOL    HW164048   4.442   3.266  14.186
87403SOL    HW264049   4.542   3.379  14.202
87404SOL     OW64050   1.691   7.382  11.295
87404SOL    HW164051   1.672   7.468  11.331
87404SOL    HW264052   1.771   7.354  11.340
87405SOL     OW64053   9.682   2.855   6.096
87405SOL    HW164054   9.636   2.815   6.170
87405SOL    HW264055   9.678   2.949   6.113
87406SOL     OW64056   2.017   9.611   7.931
87406SOL    HW164057   2.009   9.694   7.885
87406SOL    HW264058   1.977   9.547   7.872
87407SOL     OW64059   2.419   5.371   5.816
87407SOL    HW164060   2.449   5.429   5.747
87407SOL    HW264061   2.398   5.289   5.771
87408SOL     OW64062   1.633  10.017   8.129
87408SOL    HW164063   1.615   9.947   8.065
87408SOL    HW264064   1.708  10.064   8.091
87409SOL     OW64065   7.381  13.956  13.290
87409SOL    HW164066   7.431  13.875  13.282
87409SOL    HW264067   7.344  13.953  13.379
87410SOL     OW64068  12.857   1.063   7.374
87410SOL    HW164069  12.828   1.026   7.290
87410SOL    HW264070  12.806   1.015   7.440
87411SOL     OW64071   0.040  13.270  11.065
87411SOL    HW164072  14.860  13.194  11.078
87411SOL    HW264073   0.126  13.234  11.044
87412SOL     OW64074   2.696   6.993   2.557
87412SOL    HW164075   2.729   7.027   2.641
87412SOL    HW264076   2.705   7.066   2.497
87413SOL     OW64077   0.074   3.084   0.460
87413SOL    HW164078   0.068   3.168   0.415
87413SOL    HW264079  14.869   3.038   0.438
87414SOL     OW64080   6.968  13.839   1.290
87414SOL    HW164081   7.029  13.882   1.351
87414SOL    HW264082   6.999  13.864   1.203
87415SOL     OW64083   3.107  12.796   3.537
87415SOL    HW164084   3.120  12.756   3.451
87415SOL    HW264085   3.019  12.832   3.534
87416SOL     OW64086   3.118   2.204   9.636
87416SOL    HW164087   3.190   2.168   9.688
87416SOL    HW264088   3.050   2.137   9.641
87417SOL     OW64089   2.602   2.899   7.047
87417SOL    HW164090   2.529   2.849   7.012
87417SOL    HW264091   2.562   2.979   7.083
87418SOL     OW64092   8.407   9.187   9.832
87418SOL    HW164093   8.389   9.170   9.925
87418SOL    HW264094   8.462   9.114   9.805
87419SOL     OW64095   8.582  11.577   1.264
87419SOL    HW164096   8.560  11.591   1.356
87419SOL    HW264097   8.510  11.616   1.215
87420SOL     OW64098   2.265   3.561  13.750
87420SOL    HW164099   2.212   3.541  13.828
87420SOL    HW264100   2.352   3.529  13.772
87421SOL     OW64101   3.505   4.091   4.744
87421SOL    HW164102   3.556   4.044   4.678
87421SOL    HW264103   3.482   4.024   4.809
87422SOL     OW64104   2.594  11.212  12.272
87422SOL    HW164105   2.575  11.269  12.346
87422SOL    HW264106   2.517  11.220  12.215
87423SOL     OW64107  13.549   1.539   4.367
87423SOL    HW164108  13.601   1.611   4.332
87423SOL    HW264109  13.600   1.460   4.348
87424SOL     OW64110   9.085   6.361   3.040
87424SOL    HW164111   9.166   6.327   3.002
87424SOL    HW264112   9.019   6.344   2.974
87425SOL     OW64113   8.572   5.835  11.899
87425SOL    HW164114   8.661   5.814  11.870
87425SOL    HW264115   8.573   5.929  11.917
87426SOL     OW64116  11.184   4.948   8.697
87426SOL    HW164117  11.209   4.928   8.787
87426SOL    HW264118  11.247   4.899   8.644
87427SOL     OW64119  12.080  13.771   2.914
87427SOL    HW164120  12.053  13.759   3.005
87427SOL    HW264121  12.077  13.866   2.901
87428SOL     OW64122   3.198  12.984   8.013
87428SOL    HW164123   3.235  12.898   8.033
87428SOL    HW264124   3.160  12.974   7.926
87429SOL     OW64125   9.882   4.475   2.752
87429SOL    HW164126   9.959   4.500   2.804
87429SOL    HW264127   9.816   4.452   2.817
87430SOL     OW64128   6.759  12.606  10.647
87430SOL    HW164129   6.711  12.688  10.639
87430SOL    HW264130   6.693  12.540  10.668
87431SOL     OW64131   6.855   9.848   5.058
87431SOL    HW164132   6.766   9.861   5.025
87431SOL    HW264133   6.889   9.774   5.007
87432SOL     OW64134   9.290  12.797  14.480
87432SOL    HW164135   9.304  12.860  14.410
87432SOL    HW264136   9.223  12.738  14.447
87433SOL     OW64137   4.754   2.435  13.783
87433SOL    HW164138   4.690   2.497  13.818
87433SOL    HW264139   4.837   2.459  13.826
87434SOL     OW64140   3.144   1.061  13.183
87434SOL    HW164141   3.139   1.051  13.278
87434SOL    HW264142   3.232   1.030  13.161
87435SOL     OW64143   6.675  10.595  13.772
87435SOL    HW164144   6.719  10.672  13.808
87435SOL    HW264145   6.666  10.614  13.679
87436SOL     OW64146   2.279  12.843   5.890
87436SOL    HW164147   2.251  12.837   5.799
87436SOL    HW264148   2.236  12.770   5.934
87437SOL     OW64149   3.220   9.793   2.431
87437SOL    HW164150   3.165   9.715   2.434
87437SOL    HW264151   3.256   9.794   2.342
87438SOL     OW64152   3.581   6.909  12.482
87438SOL    HW164153   3.592   6.842  12.550
87438SOL    HW264154   3.654   6.895  12.422
87439SOL     OW64155   3.805   5.008   6.156
87439SOL    HW164156   3.824   4.965   6.073
87439SOL    HW264157   3.888   5.006   6.203
87440SOL     OW64158   2.153  11.162   3.063
87440SOL    HW164159   2.144  11.170   3.158
87440SOL    HW264160   2.248  11.154   3.049
87441SOL     OW64161  10.746   2.712   1.597
87441SOL    HW164162  10.755   2.705   1.502
87441SOL    HW264163  10.780   2.799   1.619
87442SOL     OW64164   4.330  12.302   5.146
87442SOL    HW164165   4.301  12.214   5.168
87442SOL    HW264166   4.419  12.291   5.115
87443SOL     OW64167   8.427   9.256  12.472
87443SOL    HW164168   8.490   9.191  12.501
87443SOL    HW264169   8.390   9.219  12.392
87444SOL     OW64170   9.673   2.481   4.924
87444SOL    HW164171   9.719   2.555   4.962
87444SOL    HW264172   9.647   2.427   4.999
87445SOL     OW64173  11.866   6.333  11.723
87445SOL    HW164174  11.874   6.386  11.802
87445SOL    HW264175  11.779   6.295  11.728
87446SOL     OW64176  11.618  14.474   9.530
87446SOL    HW164177  11.646  14.468   9.622
87446SOL    HW264178  11.542  14.416   9.524
87447SOL     OW64179   2.826   3.629   4.660
87447SOL    HW164180   2.911   3.601   4.693
87447SOL    HW264181   2.773   3.549   4.658
87448SOL     OW64182  13.307   9.094   5.787
87448SOL    HW164183  13.235   9.034   5.808
87448SOL    HW264184  13.369   9.083   5.859
87449SOL     OW64185   5.980  11.078   0.702
87449SOL    HW164186   6.014  11.155   0.657
87449SOL    HW264187   6.058  11.033   0.736
87450SOL     OW64188   2.844  12.065   6.472
87450SOL    HW164189   2.770  12.023   6.428
87450SOL    HW264190   2.899  12.097   6.401
87451SOL     OW64191   5.361  13.048   2.813
87451SOL    HW164192   5.404  13.119   2.860
87451SOL    HW264193   5.334  12.987   2.882
87452SOL     OW64194  13.637   7.761  12.561
87452SOL    HW164195  13.653   7.851  12.534
87452SOL    HW264196  13.600   7.719  12.483
87453SOL     OW64197  12.781   2.514   4.903
87453SOL    HW164198  12.694   2.512   4.861
87453SOL    HW264199  12.834   2.566   4.842
87454SOL     OW64200  11.779   8.835   3.350
87454SOL    HW164201  11.872   8.840   3.328
87454SOL    HW264202  11.747   8.756   3.305
87455SOL     OW64203   7.250   7.324  10.416
87455SOL    HW164204   7.220   7.370  10.494
87455SOL    HW264205   7.178   7.334  10.354
87456SOL     OW64206   7.503   0.183  13.991
87456SOL    HW164207   7.480   0.092  13.971
87456SOL    HW264208   7.597   0.187  13.977
87457SOL     OW64209   8.381   8.398   7.854
87457SOL    HW164210   8.413   8.455   7.784
87457SOL    HW264211   8.341   8.457   7.917
87458SOL     OW64212   7.965   8.178  12.888
87458SOL    HW164213   8.060   8.176  12.897
87458SOL    HW264214   7.949   8.205  12.798
87459SOL     OW64215   8.314   2.411   1.984
87459SOL    HW164216   8.362   2.376   2.059
87459SOL    HW264217   8.379   2.418   1.915
87460SOL     OW64218   0.028  13.005  11.980
87460SOL    HW164219   0.068  13.070  12.037
87460SOL    HW264220   0.102  12.959  11.940
87461SOL     OW64221  11.292  11.309  13.978
87461SOL    HW164222  11.214  11.331  14.028
87461SOL    HW264223  11.330  11.235  14.025
87462SOL     OW64224   2.585   2.123   8.247
87462SOL    HW164225   2.601   2.070   8.169
87462SOL    HW264226   2.584   2.213   8.216
87463SOL     OW64227  13.444   7.764  12.315
87463SOL    HW164228  13.389   7.806  12.382
87463SOL    HW264229  13.475   7.836  12.261
87464SOL     OW64230   9.491   1.126   3.325
87464SOL    HW164231   9.478   1.086   3.412
87464SOL    HW264232   9.512   1.217   3.343
87465SOL     OW64233  13.973  12.278  10.014
87465SOL    HW164234  13.922  12.310   9.939
87465SOL    HW264235  13.942  12.188  10.027
87466SOL     OW64236   5.227   6.907  14.136
87466SOL    HW164237   5.157   6.852  14.173
87466SOL    HW264238   5.190   6.940  14.054
87467SOL     OW64239  12.402   7.670  14.096
87467SOL    HW164240  12.375   7.578  14.100
87467SOL    HW264241  12.329   7.714  14.053
87468SOL     OW64242  10.417   0.595   7.626
87468SOL    HW164243  10.394   0.530   7.693
87468SOL    HW264244  10.336   0.646   7.614
87469SOL     OW64245   8.107  13.308  13.606
87469SOL    HW164246   8.136  13.398  13.594
87469SOL    HW264247   8.015  13.308  13.580
87470SOL     OW64248   8.650  10.997  14.741
87470SOL    HW164249   8.697  11.069  14.783
87470SOL    HW264250   8.644  10.930  14.809
87471SOL     OW64251   3.314   8.294  14.679
87471SOL    HW164252   3.297   8.225  14.615
87471SOL    HW264253   3.302   8.375  14.631
87472SOL     OW64254   7.785   9.045   7.303
87472SOL    HW164255   7.742   8.998   7.374
87472SOL    HW264256   7.879   9.038   7.323
87473SOL     OW64257   2.400   7.953   8.587
87473SOL    HW164258   2.337   8.014   8.547
87473SOL    HW264259   2.453   8.008   8.644
87474SOL     OW64260   2.743   0.307  12.557
87474SOL    HW164261   2.703   0.348  12.480
87474SOL    HW264262   2.686   0.232  12.576
87475SOL     OW64263   4.588   0.738  11.766
87475SOL    HW164264   4.622   0.660  11.811
87475SOL    HW264265   4.527   0.777  11.828
87476SOL     OW64266   4.619   4.245   2.600
87476SOL    HW164267   4.631   4.338   2.580
87476SOL    HW264268   4.650   4.236   2.690
87477SOL     OW64269   3.546   1.319  10.036
87477SOL    HW164270   3.464   1.367  10.026
87477SOL    HW264271   3.600   1.348   9.963
87478SOL     OW64272   1.058   7.854  12.400
87478SOL    HW164273   1.026   7.772  12.362
87478SOL    HW264274   0.979   7.906  12.414
87479SOL     OW64275   7.912  12.509   6.739
87479SOL    HW164276   7.891  12.597   6.707
87479SOL    HW264277   7.913  12.455   6.660
87480SOL     OW64278  10.936   2.306   1.173
87480SOL    HW164279  10.967   2.273   1.257
87480SOL    HW264280  11.012   2.301   1.115
87481SOL     OW64281   0.743   0.232  10.104
87481SOL    HW164282   0.798   0.295  10.150
87481SOL    HW264283   0.797   0.152  10.101
87482SOL     OW64284   9.842   0.225   6.799
87482SOL    HW164285   9.902   0.188   6.734
87482SOL    HW264286   9.870   0.316   6.808
87483SOL     OW64287  12.515   3.934  11.396
87483SOL    HW164288  12.585   3.937  11.331
87483SOL    HW264289  12.436   3.914  11.346
87484SOL     OW64290  14.871  10.153   2.109
87484SOL    HW164291   0.014  10.232   2.160
87484SOL    HW264292   0.079  10.127   2.072
87485SOL     OW64293   3.865   0.929  12.969
87485SOL    HW164294   3.851   0.865  13.039
87485SOL    HW264295   3.934   0.987  13.002
87486SOL     OW64296  13.050   9.226  10.378
87486SOL    HW164297  13.145   9.236  10.389
87486SOL    HW264298  13.017   9.316  10.376
87487SOL     OW64299   2.028   8.277   9.993
87487SOL    HW164300   2.059   8.360  10.029
87487SOL    HW264301   2.068   8.210  10.049
87488SOL     OW64302   2.680   0.666  10.860
87488SOL    HW164303   2.696   0.582  10.817
87488SOL    HW264304   2.604   0.651  10.916
87489SOL     OW64305   7.030   9.480   8.069
87489SOL    HW164306   7.010   9.550   8.008
87489SOL    HW264307   6.945   9.453   8.104
87490SOL     OW64308  14.070   6.748   1.199
87490SOL    HW164309  14.067   6.728   1.293
87490SOL    HW264310  14.128   6.682   1.162
87491SOL     OW64311   7.583   8.815  11.123
87491SOL    HW164312   7.624   8.827  11.037
87491SOL    HW264313   7.497   8.778  11.103
87492SOL     OW64314  12.819  11.993   9.222
87492SOL    HW164315  12.843  11.913   9.268
87492SOL    HW264316  12.832  11.971   9.129
87493SOL     OW64317   0.403   5.133  14.347
87493SOL    HW164318   0.463   5.061  14.369
87493SOL    HW264319   0.347   5.143  14.424
87494SOL     OW64320   0.631  14.352   1.963
87494SOL    HW164321   0.642  14.446   1.951
87494SOL    HW264322   0.718  14.315   1.946
87495SOL     OW64323   7.079   5.522   1.022
87495SOL    HW164324   7.073   5.595   0.960
87495SOL    HW264325   7.062   5.562   1.108
87496SOL     OW64326  12.614   9.037   0.006
87496SOL    HW164327  12.632   8.943  14.872
87496SOL    HW264328  12.572   9.062  14.800
87497SOL     OW64329  11.852   7.182  11.955
87497SOL    HW164330  11.804   7.153  12.032
87497SOL    HW264331  11.789   7.232  11.904
87498SOL     OW64332   3.090   3.114   1.120
87498SOL    HW164333   3.000   3.120   1.087
87498SOL    HW264334   3.103   3.195   1.168
87499SOL     OW64335   6.757   4.337   6.229
87499SOL    HW164336   6.814   4.414   6.224
87499SOL    HW264337   6.709   4.347   6.311
87500SOL     OW64338   2.389   3.826   8.947
87500SOL    HW164339   2.379   3.866   8.860
87500SOL    HW264340   2.395   3.900   9.007
87501SOL     OW64341   7.460   5.979   3.854
87501SOL    HW164342   7.443   6.028   3.773
87501SOL    HW264343   7.373   5.960   3.889
87502SOL     OW64344   4.282   4.154   3.694
87502SOL    HW164345   4.306   4.065   3.719
87502SOL    HW264346   4.364   4.191   3.659
87503SOL     OW64347  13.282  12.584   7.724
87503SOL    HW164348  13.331  12.627   7.795
87503SOL    HW264349  13.198  12.629   7.723
87504SOL     OW64350   8.503   6.301   8.830
87504SOL    HW164351   8.439   6.252   8.882
87504SOL    HW264352   8.485   6.393   8.848
87505SOL     OW64353   6.720  12.541  11.274
87505SOL    HW164354   6.653  12.606  11.252
87505SOL    HW264355   6.729  12.489  11.194
87506SOL     OW64356   5.189   0.929  10.010
87506SOL    HW164357   5.265   0.983  10.029
87506SOL    HW264358   5.171   0.882  10.092
87507SOL     OW64359   0.478  13.566  12.605
87507SOL    HW164360   0.404  13.506  12.610
87507SOL    HW264361   0.513  13.553  12.517
87508SOL     OW64362  12.545  13.475   3.817
87508SOL    HW164363  12.539  13.528   3.737
87508SOL    HW264364  12.638  13.454   3.825
87509SOL     OW64365  10.569   0.779  11.325
87509SOL    HW164366  10.648   0.731  11.349
87509SOL    HW264367  10.565   0.772  11.230
87510SOL     OW64368   6.311   1.796   7.152
87510SOL    HW164369   6.350   1.745   7.081
87510SOL    HW264370   6.255   1.734   7.199
87511SOL     OW64371  14.247   1.190   6.030
87511SOL    HW164372  14.212   1.183   5.941
87511SOL    HW264373  14.236   1.282   6.053
87512SOL     OW64374  11.525   3.289   4.728
87512SOL    HW164375  11.602   3.342   4.709
87512SOL    HW264376  11.491   3.326   4.810
87513SOL     OW64377  10.775   1.100   7.664
87513SOL    HW164378  10.788   1.131   7.574
87513SOL    HW264379  10.685   1.067   7.664
87514SOL     OW64380   7.341   9.135  10.890
87514SOL    HW164381   7.254   9.130  10.852
87514SOL    HW264382   7.329   9.114  10.983
87515SOL     OW64383   4.665  13.998  13.779
87515SOL    HW164384   4.744  13.966  13.823
87515SOL    HW264385   4.696  14.023  13.692
87516SOL     OW64386  13.000  12.554   7.891
87516SOL    HW164387  13.003  12.619   7.822
87516SOL    HW264388  13.081  12.504   7.882
87517SOL     OW64389   2.939  13.044   1.729
87517SOL    HW164390   2.907  13.068   1.816
87517SOL    HW264391   2.896  13.107   1.671
87518SOL     OW64392  10.720   8.027   2.432
87518SOL    HW164393  10.724   7.935   2.409
87518SOL    HW264394  10.628   8.042   2.453
87519SOL     OW64395   8.481   2.409   4.117
87519SOL    HW164396   8.556   2.440   4.169
87519SOL    HW264397   8.487   2.458   4.035
87520SOL     OW64398   5.470   8.751   1.211
87520SOL    HW164399   5.517   8.677   1.250
87520SOL    HW264400   5.433   8.798   1.285
87521SOL     OW64401   0.499   1.760  13.412
87521SOL    HW164402   0.590   1.788  13.407
87521SOL    HW264403   0.473   1.776  13.502
87522SOL     OW64404   8.561   1.645  11.852
87522SOL    HW164405   8.650   1.662  11.882
87522SOL    HW264406   8.511   1.722  11.877
87523SOL     OW64407   4.613   5.552   5.492
87523SOL    HW164408   4.612   5.459   5.468
87523SOL    HW264409   4.706   5.576   5.494
87524SOL     OW64410   9.952   2.259   0.676
87524SOL    HW164411   9.868   2.303   0.681
87524SOL    HW264412   9.978   2.245   0.767
87525SOL     OW64413   6.660   1.424  11.938
87525SOL    HW164414   6.607   1.430  12.017
87525SOL    HW264415   6.737   1.374  11.965
87526SOL     OW64416  13.172   8.703   8.700
87526SOL    HW164417  13.196   8.644   8.771
87526SOL    HW264418  13.249   8.706   8.644
87527SOL     OW64419   2.082   2.359   2.355
87527SOL    HW164420   2.143   2.432   2.344
87527SOL    HW264421   2.004   2.386   2.306
87528SOL     OW64422   1.710   8.638  13.770
87528SOL    HW164423   1.805   8.628  13.781
87528SOL    HW264424   1.682   8.557  13.727
87529SOL     OW64425   2.757  14.550   3.486
87529SOL    HW164426   2.829  14.512   3.436
87529SOL    HW264427   2.727  14.624   3.433
87530SOL     OW64428   1.485   3.561   7.493
87530SOL    HW164429   1.502   3.640   7.442
87530SOL    HW264430   1.553   3.560   7.560
87531SOL     OW64431   1.770  14.562   4.414
87531SOL    HW164432   1.716  14.633   4.380
87531SOL    HW264433   1.729  14.483   4.381
87532SOL     OW64434  13.332  10.022   5.775
87532SOL    HW164435  13.320   9.961   5.848
87532SOL    HW264436  13.399  10.083   5.805
87533SOL     OW64437  13.938   7.558   8.818
87533SOL    HW164438  13.918   7.498   8.746
87533SOL    HW264439  14.033   7.567   8.816
87534SOL     OW64440  10.239   4.870  11.730
87534SOL    HW164441  10.210   4.783  11.758
87534SOL    HW264442  10.187   4.931  11.782
87535SOL     OW64443   1.816  11.106   7.392
87535SOL    HW164444   1.763  11.026   7.398
87535SOL    HW264445   1.759  11.175   7.426
87536SOL     OW64446   9.802  13.469   8.368
87536SOL    HW164447   9.732  13.409   8.393
87536SOL    HW264448   9.840  13.430   8.290
87537SOL     OW64449  14.527   7.474   9.199
87537SOL    HW164450  14.612   7.512   9.218
87537SOL    HW264451  14.471   7.503   9.271
87538SOL     OW64452  10.950   5.611  11.849
87538SOL    HW164453  10.964   5.706  11.842
87538SOL    HW264454  11.021   5.573  11.797
87539SOL     OW64455  11.265   9.651   2.680
87539SOL    HW164456  11.242   9.571   2.728
87539SOL    HW264457  11.361   9.650   2.677
87540SOL     OW64458   7.653  13.597   3.432
87540SOL    HW164459   7.562  13.572   3.451
87540SOL    HW264460   7.694  13.609   3.518
87541SOL     OW64461   0.509   0.332   6.321
87541SOL    HW164462   0.417   0.333   6.348
87541SOL    HW264463   0.556   0.366   6.397
87542SOL     OW64464  13.911   8.605   0.774
87542SOL    HW164465  13.958   8.552   0.709
87542SOL    HW264466  13.979   8.631   0.837
87543SOL     OW64467  10.790   0.630   0.201
87543SOL    HW164468  10.882   0.625   0.225
87543SOL    HW264469  10.785   0.701   0.138
87544SOL     OW64470   7.211  14.388   2.347
87544SOL    HW164471   7.250  14.310   2.387
87544SOL    HW264472   7.156  14.353   2.276
87545SOL     OW64473   0.442   2.319  14.360
87545SOL    HW164474   0.404   2.402  14.389
87545SOL    HW264475   0.499   2.292  14.433
87546SOL     OW64476   6.191   3.242  10.899
87546SOL    HW164477   6.123   3.253  10.965
87546SOL    HW264478   6.267   3.288  10.936
87547SOL     OW64479   4.112  14.529  11.096
87547SOL    HW164480   4.040  14.466  11.084
87547SOL    HW264481   4.174  14.508  11.027
87548SOL     OW64482  14.345   7.783   0.287
87548SOL    HW164483  14.294   7.794   0.207
87548SOL    HW264484  14.398   7.862   0.294
87549SOL     OW64485   0.429   6.622   5.758
87549SOL    HW164486   0.495   6.667   5.810
87549SOL    HW264487   0.358   6.605   5.819
87550SOL     OW64488  11.988  12.675   0.574
87550SOL    HW164489  12.072  12.711   0.603
87550SOL    HW264490  11.997  12.581   0.587
87551SOL     OW64491   9.376  13.544  11.255
87551SOL    HW164492   9.402  13.476  11.194
87551SOL    HW264493   9.312  13.501  11.313
87552SOL     OW64494   2.155  14.554  10.429
87552SOL    HW164495   2.119  14.643  10.435
87552SOL    HW264496   2.079  14.497  10.442
87553SOL     OW64497   5.507   0.927   0.101
87553SOL    HW164498   5.481   0.989   0.033
87553SOL    HW264499   5.429   0.918   0.156
87554SOL     OW64500   2.584   7.105  10.734
87554SOL    HW164501   2.551   7.019  10.762
87554SOL    HW264502   2.632   7.138  10.810
87555SOL     OW64503   7.361   9.378  10.545
87555SOL    HW164504   7.373   9.283  10.538
87555SOL    HW264505   7.381   9.398  10.636
87556SOL     OW64506   7.879   0.729   6.730
87556SOL    HW164507   7.970   0.739   6.756
87556SOL    HW264508   7.862   0.804   6.672
87557SOL     OW64509   6.381   3.824   2.744
87557SOL    HW164510   6.292   3.832   2.779
87557SOL    HW264511   6.371   3.772   2.664
87558SOL     OW64512  12.198   5.038  12.426
87558SOL    HW164513  12.179   4.960  12.375
87558SOL    HW264514  12.293   5.048  12.422
87559SOL     OW64515   7.531   1.306  11.001
87559SOL    HW164516   7.519   1.219  11.040
87559SOL    HW264517   7.467   1.361  11.046
87560SOL     OW64518  12.727   6.593   1.063
87560SOL    HW164519  12.673   6.664   1.028
87560SOL    HW264520  12.814   6.631   1.072
87561SOL     OW64521  14.177   5.678   7.365
87561SOL    HW164522  14.126   5.605   7.399
87561SOL    HW264523  14.148   5.687   7.274
87562SOL     OW64524   3.015   5.741   7.339
87562SOL    HW164525   3.015   5.650   7.309
87562SOL    HW264526   3.027   5.735   7.434
87563SOL     OW64527   6.926  13.354  14.774
87563SOL    HW164528   6.901  13.263  14.755
87563SOL    HW264529   6.965  13.351  14.861
87564SOL     OW64530   1.636  11.646   1.583
87564SOL    HW164531   1.548  11.664   1.550
87564SOL    HW264532   1.633  11.553   1.607
87565SOL     OW64533   1.483  13.244   6.499
87565SOL    HW164534   1.519  13.242   6.410
87565SOL    HW264535   1.541  13.302   6.547
87566SOL     OW64536   2.184   4.895   2.914
87566SOL    HW164537   2.173   4.804   2.887
87566SOL    HW264538   2.102   4.916   2.959
87567SOL     OW64539   1.970  11.112   3.272
87567SOL    HW164540   1.933  11.048   3.212
87567SOL    HW264541   2.031  11.063   3.327
87568SOL     OW64542   8.482  10.714   1.567
87568SOL    HW164543   8.486  10.631   1.519
87568SOL    HW264544   8.529  10.776   1.511
87569SOL     OW64545   5.094   7.487   7.412
87569SOL    HW164546   5.056   7.445   7.334
87569SOL    HW264547   5.046   7.569   7.421
87570SOL     OW64548  13.509   1.049   4.610
87570SOL    HW164549  13.495   1.107   4.535
87570SOL    HW264550  13.431   0.993   4.612
87571SOL     OW64551   7.353  12.626  13.400
87571SOL    HW164552   7.273  12.624  13.348
87571SOL    HW264553   7.329  12.671  13.481
87572SOL     OW64554   1.680  13.479  12.975
87572SOL    HW164555   1.629  13.509  12.899
87572SOL    HW264556   1.711  13.392  12.950
87573SOL     OW64557   0.623   3.538  14.383
87573SOL    HW164558   0.716   3.527  14.402
87573SOL    HW264559   0.591   3.596  14.452
87574SOL     OW64560   3.403   3.258   5.986
87574SOL    HW164561   3.452   3.304   5.917
87574SOL    HW264562   3.377   3.327   6.047
87575SOL     OW64563   8.105   7.241  13.973
87575SOL    HW164564   8.139   7.190  14.046
87575SOL    HW264565   8.078   7.177  13.908
87576SOL     OW64566   9.087   2.263   3.433
87576SOL    HW164567   9.062   2.318   3.358
87576SOL    HW264568   9.062   2.314   3.509
87577SOL     OW64569  11.549   3.603   3.863
87577SOL    HW164570  11.490   3.531   3.838
87577SOL    HW264571  11.490   3.677   3.878
87578SOL     OW64572   7.164   2.241   1.585
87578SOL    HW164573   7.145   2.194   1.666
87578SOL    HW264574   7.128   2.186   1.516
87579SOL     OW64575   5.325  10.356   0.636
87579SOL    HW164576   5.346  10.449   0.646
87579SOL    HW264577   5.410  10.314   0.628
87580SOL     OW64578   9.083   1.355  11.963
87580SOL    HW164579   9.147   1.426  11.966
87580SOL    HW264580   9.132   1.278  11.935
87581SOL     OW64581   2.472   4.893   5.878
87581SOL    HW164582   2.518   4.904   5.795
87581SOL    HW264583   2.402   4.831   5.859
87582SOL     OW64584  10.809   3.621  14.059
87582SOL    HW164585  10.806   3.543  14.115
87582SOL    HW264586  10.724   3.621  14.015
87583SOL     OW64587   3.450   0.987   8.739
87583SOL    HW164588   3.373   1.028   8.780
87583SOL    HW264589   3.455   1.028   8.653
87584SOL     OW64590   5.535   7.114   3.859
87584SOL    HW164591   5.476   7.176   3.902
87584SOL    HW264592   5.508   7.116   3.767
87585SOL     OW64593   4.604   2.781   5.511
87585SOL    HW164594   4.677   2.728   5.479
87585SOL    HW264595   4.527   2.741   5.472
87586SOL     OW64596   2.303  10.550   3.085
87586SOL    HW164597   2.253  10.615   3.134
87586SOL    HW264598   2.252  10.470   3.093
87587SOL     OW64599   2.199  13.490   5.052
87587SOL    HW164600   2.120  13.542   5.045
87587SOL    HW264601   2.230  13.504   5.141
87588SOL     OW64602  11.354  10.949  14.669
87588SOL    HW164603  11.433  10.899  14.650
87588SOL    HW264604  11.296  10.930  14.596
87589SOL     OW64605   8.858   1.357  12.989
87589SOL    HW164606   8.835   1.271  12.953
87589SOL    HW264607   8.875   1.411  12.911
87590SOL     OW64608   3.280  13.622  12.144
87590SOL    HW164609   3.297  13.713  12.121
87590SOL    HW264610   3.330  13.608  12.225
87591SOL     OW64611   3.202   0.276   0.656
87591SOL    HW164612   3.106   0.278   0.651
87591SOL    HW264613   3.221   0.298   0.747
87592SOL     OW64614   9.493   2.514   2.199
87592SOL    HW164615   9.459   2.426   2.214
87592SOL    HW264616   9.565   2.502   2.137
87593SOL     OW64617  11.895  10.218   4.165
87593SOL    HW164618  11.857  10.153   4.224
87593SOL    HW264619  11.947  10.275   4.222
87594SOL     OW64620  11.484   9.353  14.871
87594SOL    HW164621  11.555   9.326  14.813
87594SOL    HW264622  11.441   9.425  14.824
87595SOL     OW64623   9.017  11.251   7.958
87595SOL    HW164624   9.065  11.332   7.937
87595SOL    HW264625   9.081  11.181   7.944
87596SOL     OW64626   5.871   2.001   6.119
87596SOL    HW164627   5.963   2.025   6.110
87596SOL    HW264628   5.828   2.081   6.147
87597SOL     OW64629   3.408   9.050  10.366
87597SOL    HW164630   3.476   9.018  10.425
87597SOL    HW264631   3.445   9.040  10.279
87598SOL     OW64632  10.588   9.594   4.382
87598SOL    HW164633  10.589   9.686   4.407
87598SOL    HW264634  10.609   9.547   4.462
87599SOL     OW64635   1.942  11.113   7.092
87599SOL    HW164636   1.928  11.034   7.040
87599SOL    HW264637   2.035  11.110   7.114
87600SOL     OW64638   4.409   1.617   7.925
87600SOL    HW164639   4.468   1.675   7.973
87600SOL    HW264640   4.333   1.672   7.903
87601SOL     OW64641   7.302  11.464   3.364
87601SOL    HW164642   7.231  11.486   3.303
87601SOL    HW264643   7.257  11.445   3.446
87602SOL     OW64644  10.890   2.187  13.091
87602SOL    HW164645  10.928   2.195  13.179
87602SOL    HW264646  10.914   2.268  13.047
87603SOL     OW64647   9.242   4.770  13.197
87603SOL    HW164648   9.323   4.721  13.182
87603SOL    HW264649   9.271   4.858  13.221
87604SOL     OW64650   0.117  10.175   0.432
87604SOL    HW164651   0.035  10.177   0.383
87604SOL    HW264652   0.093  10.140   0.518
87605SOL     OW64653   4.621  13.815  12.564
87605SOL    HW164654   4.663  13.808  12.650
87605SOL    HW264655   4.685  13.862  12.511
87606SOL     OW64656   6.098   0.184   4.873
87606SOL    HW164657   6.193   0.191   4.873
87606SOL    HW264658   6.067   0.272   4.898
87607SOL     OW64659  13.940  13.024   2.057
87607SOL    HW164660  13.922  12.955   1.993
87607SOL    HW264661  13.870  13.015   2.122
87608SOL     OW64662   3.707  11.763  11.699
87608SOL    HW164663   3.652  11.696  11.660
87608SOL    HW264664   3.701  11.747  11.793
87609SOL     OW64665   2.226  13.837   7.319
87609SOL    HW164666   2.217  13.743   7.303
87609SOL    HW264667   2.236  13.844   7.414
87610SOL     OW64668  13.637  12.457   6.124
87610SOL    HW164669  13.628  12.422   6.036
87610SOL    HW264670  13.705  12.404   6.165
87611SOL     OW64671   9.921   7.588   0.716
87611SOL    HW164672   9.993   7.593   0.778
87611SOL    HW264673   9.905   7.678   0.690
87612SOL     OW64674   5.376   9.713   9.655
87612SOL    HW164675   5.295   9.755   9.627
87612SOL    HW264676   5.393   9.750   9.742
87613SOL     OW64677   0.910  13.676  13.025
87613SOL    HW164678   0.993  13.633  13.045
87613SOL    HW264679   0.876  13.627  12.950
87614SOL     OW64680   9.243   6.317   4.589
87614SOL    HW164681   9.204   6.400   4.614
87614SOL    HW264682   9.335   6.325   4.611
87615SOL     OW64683  10.643  11.133   7.187
87615SOL    HW164684  10.700  11.204   7.216
87615SOL    HW264685  10.558  11.173   7.176
87616SOL     OW64686   7.262  13.689   1.193
87616SOL    HW164687   7.240  13.675   1.285
87616SOL    HW264688   7.181  13.670   1.145
87617SOL     OW64689   8.915   6.113   1.916
87617SOL    HW164690   8.926   6.052   1.989
87617SOL    HW264691   8.821   6.123   1.906
87618SOL     OW64692   2.393   5.821   9.231
87618SOL    HW164693   2.340   5.814   9.152
87618SOL    HW264694   2.398   5.915   9.248
87619SOL     OW64695   4.309   1.448   1.014
87619SOL    HW164696   4.378   1.442   1.081
87619SOL    HW264697   4.243   1.386   1.043
87620SOL     OW64698   8.864  14.017  14.056
87620SOL    HW164699   8.864  13.950  14.124
87620SOL    HW264700   8.835  14.096  14.100
87621SOL     OW64701   5.597   8.512   7.467
87621SOL    HW164702   5.630   8.481   7.382
87621SOL    HW264703   5.501   8.509   7.458
87622SOL     OW64704   3.298  11.957  10.411
87622SOL    HW164705   3.243  11.966  10.488
87622SOL    HW264706   3.274  12.030  10.355
87623SOL     OW64707  10.792   6.595   9.148
87623SOL    HW164708  10.881   6.616   9.175
87623SOL    HW264709  10.798   6.581   9.053
87624SOL     OW64710  13.891   9.130   4.234
87624SOL    HW164711  13.800   9.133   4.263
87624SOL    HW264712  13.887   9.090   4.147
87625SOL     OW64713  12.551  11.150   2.484
87625SOL    HW164714  12.504  11.152   2.400
87625SOL    HW264715  12.630  11.202   2.469
87626SOL     OW64716   0.426   7.673  13.311
87626SOL    HW164717   0.507   7.636  13.347
87626SOL    HW264718   0.412   7.753  13.362
87627SOL     OW64719   9.066   4.946   7.819
87627SOL    HW164720   9.074   4.933   7.913
87627SOL    HW264721   8.986   4.997   7.808
87628SOL     OW64722   7.334   6.308  14.222
87628SOL    HW164723   7.356   6.217  14.243
87628SOL    HW264724   7.315   6.307  14.128
87629SOL     OW64725  13.315  11.810   7.699
87629SOL    HW164726  13.356  11.834   7.782
87629SOL    HW264727  13.243  11.873   7.689
87630SOL     OW64728   0.896   5.884   1.455
87630SOL    HW164729   0.989   5.905   1.454
87630SOL    HW264730   0.879   5.854   1.545
87631SOL     OW64731   5.961   2.765   3.454
87631SOL    HW164732   6.040   2.805   3.491
87631SOL    HW264733   5.995   2.705   3.387
87632SOL     OW64734   0.483  14.065  14.140
87632SOL    HW164735   0.432  14.138  14.105
87632SOL    HW264736   0.455  13.989  14.089
87633SOL     OW64737   7.998  12.603  10.736
87633SOL    HW164738   7.911  12.601  10.775
87633SOL    HW264739   7.991  12.547  10.659
87634SOL     OW64740   6.706   1.353  12.933
87634SOL    HW164741   6.727   1.283  12.870
87634SOL    HW264742   6.642   1.313  12.992
87635SOL     OW64743   6.771  14.015   0.887
87635SOL    HW164744   6.706  13.981   0.948
87635SOL    HW264745   6.721  14.069   0.826
87636SOL     OW64746   2.122  10.728   4.282
87636SOL    HW164747   2.216  10.718   4.269
87636SOL    HW264748   2.092  10.641   4.307
87637SOL     OW64749  13.552   6.377   1.251
87637SOL    HW164750  13.537   6.435   1.176
87637SOL    HW264751  13.645   6.357   1.248
87638SOL     OW64752   1.868   7.001  13.017
87638SOL    HW164753   1.836   6.938  13.081
87638SOL    HW264754   1.939   7.047  13.062
87639SOL     OW64755   5.757   8.161   4.403
87639SOL    HW164756   5.693   8.099   4.370
87639SOL    HW264757   5.837   8.110   4.413
87640SOL     OW64758  10.640  11.414   4.996
87640SOL    HW164759  10.583  11.342   5.024
87640SOL    HW264760  10.728  11.387   5.023
87641SOL     OW64761   5.267   9.069  11.684
87641SOL    HW164762   5.276   9.082  11.778
87641SOL    HW264763   5.201   9.132  11.657
87642SOL     OW64764   5.700   3.720  10.868
87642SOL    HW164765   5.651   3.708  10.786
87642SOL    HW264766   5.736   3.808  10.861
87643SOL     OW64767   8.499   9.519  12.693
87643SOL    HW164768   8.432   9.564  12.744
87643SOL    HW264769   8.563   9.490  12.758
87644SOL     OW64770   6.469   8.696   9.313
87644SOL    HW164771   6.547   8.671   9.363
87644SOL    HW264772   6.488   8.785   9.282
87645SOL     OW64773   1.528   0.375  14.400
87645SOL    HW164774   1.455   0.356  14.341
87645SOL    HW264775   1.489   0.374  14.488
87646SOL     OW64776   4.484   5.969  14.789
87646SOL    HW164777   4.579   5.960  14.783
87646SOL    HW264778   4.467   5.982   0.006
87647SOL     OW64779   6.995   5.760  13.253
87647SOL    HW164780   7.010   5.847  13.290
87647SOL    HW264781   7.082   5.731  13.224
87648SOL     OW64782   6.151   7.434   3.690
87648SOL    HW164783   6.237   7.463   3.722
87648SOL    HW264784   6.172   7.377   3.616
87649SOL     OW64785  11.504   9.371   3.409
87649SOL    HW164786  11.584   9.328   3.380
87649SOL    HW264787  11.514   9.379   3.504
87650SOL     OW64788   2.640   2.849  14.050
87650SOL    HW164789   2.649   2.938  14.085
87650SOL    HW264790   2.637   2.861  13.955
87651SOL     OW64791   3.788  12.891   8.249
87651SOL    HW164792   3.749  12.890   8.162
87651SOL    HW264793   3.743  12.963   8.295
87652SOL     OW64794  13.785   4.246  10.305
87652SOL    HW164795  13.706   4.197  10.326
87652SOL    HW264796  13.817   4.277  10.390
87653SOL     OW64797   2.222   4.487   0.234
87653SOL    HW164798   2.140   4.449   0.267
87653SOL    HW264799   2.225   4.574   0.274
87654SOL     OW64800   3.570   7.119   8.730
87654SOL    HW164801   3.477   7.133   8.748
87654SOL    HW264802   3.574   7.034   8.685
87655SOL     OW64803  12.496   9.530   7.694
87655SOL    HW164804  12.516   9.441   7.666
87655SOL    HW264805  12.404   9.526   7.723
87656SOL     OW64806  14.362   8.119   7.609
87656SOL    HW164807  14.341   8.208   7.579
87656SOL    HW264808  14.456   8.111   7.594
87657SOL     OW64809   8.367   7.752   2.626
87657SOL    HW164810   8.399   7.787   2.709
87657SOL    HW264811   8.414   7.802   2.559
87658SOL     OW64812  13.656   6.732  12.393
87658SOL    HW164813  13.733   6.676  12.383
87658SOL    HW264814  13.583   6.677  12.367
87659SOL     OW64815  10.525   6.682   2.134
87659SOL    HW164816  10.519   6.601   2.183
87659SOL    HW264817  10.618   6.692   2.113
87660SOL     OW64818   8.564   2.087   8.979
87660SOL    HW164819   8.524   2.025   8.918
87660SOL    HW264820   8.588   2.034   9.055
87661SOL     OW64821   7.569   2.055  13.903
87661SOL    HW164822   7.657   2.081  13.931
87661SOL    HW264823   7.577   2.041  13.809
87662SOL     OW64824   5.669   4.748  10.756
87662SOL    HW164825   5.663   4.653  10.748
87662SOL    HW264826   5.670   4.765  10.850
87663SOL     OW64827   1.477   8.395   6.948
87663SOL    HW164828   1.540   8.336   6.909
87663SOL    HW264829   1.477   8.471   6.890
87664SOL     OW64830   3.793   1.014   5.232
87664SOL    HW164831   3.710   1.043   5.270
87664SOL    HW264832   3.835   0.963   5.302
87665SOL     OW64833   8.962   1.771   9.344
87665SOL    HW164834   9.003   1.765   9.258
87665SOL    HW264835   8.870   1.789   9.326
87666SOL     OW64836   9.631  13.173   9.747
87666SOL    HW164837   9.718  13.210   9.732
87666SOL    HW264838   9.643  13.078   9.736
87667SOL     OW64839   9.785   2.911  10.727
87667SOL    HW164840   9.851   2.849  10.757
87667SOL    HW264841   9.787   2.904  10.631
87668SOL     OW64842   8.839   1.531   8.512
87668SOL    HW164843   8.909   1.562   8.569
87668SOL    HW264844   8.883   1.510   8.430
87669SOL     OW64845   7.860   5.109  13.088
87669SOL    HW164846   7.767   5.111  13.108
87669SOL    HW264847   7.904   5.117  13.173
87670SOL     OW64848   7.535   6.774   9.779
87670SOL    HW164849   7.614   6.812   9.742
87670SOL    HW264850   7.473   6.846   9.783
87671SOL     OW64851  14.725  13.350   5.820
87671SOL    HW164852  14.706  13.267   5.776
87671SOL    HW264853  14.819  13.362   5.809
87672SOL     OW64854   5.169   4.010   9.370
87672SOL    HW164855   5.215   3.926   9.363
87672SOL    HW264856   5.078   3.990   9.350
87673SOL     OW64857  12.527   4.842   8.546
87673SOL    HW164858  12.546   4.930   8.580
87673SOL    HW264859  12.433   4.830   8.563
87674SOL     OW64860   4.053   9.026   5.716
87674SOL    HW164861   4.101   9.016   5.798
87674SOL    HW264862   4.084   9.109   5.680
87675SOL     OW64863   6.869   1.234   4.687
87675SOL    HW164864   6.845   1.169   4.753
87675SOL    HW264865   6.950   1.199   4.648
87676SOL     OW64866  13.339   4.921  13.584
87676SOL    HW164867  13.391   4.986  13.630
87676SOL    HW264868  13.377   4.837  13.610
87677SOL     OW64869   9.876  10.863   1.527
87677SOL    HW164870   9.883  10.831   1.617
87677SOL    HW264871   9.866  10.958   1.537
87678SOL     OW64872   6.250  12.883   8.980
87678SOL    HW164873   6.180  12.823   8.954
87678SOL    HW264874   6.267  12.936   8.902
87679SOL     OW64875  13.460   6.627   7.373
87679SOL    HW164876  13.426   6.552   7.324
87679SOL    HW264877  13.500   6.589   7.451
87680SOL     OW64878   7.691  11.510  11.332
87680SOL    HW164879   7.730  11.435  11.288
87680SOL    HW264880   7.645  11.472  11.407
87681SOL     OW64881  13.364   9.019   8.429
87681SOL    HW164882  13.369   9.110   8.460
87681SOL    HW264883  13.407   9.020   8.344
87682SOL     OW64884   3.487   1.840   0.282
87682SOL    HW164885   3.530   1.804   0.205
87682SOL    HW264886   3.430   1.908   0.247
87683SOL     OW64887  12.670   6.018   3.053
87683SOL    HW164888  12.679   6.100   3.004
87683SOL    HW264889  12.754   5.974   3.041
87684SOL     OW64890   2.565   8.464   7.345
87684SOL    HW164891   2.588   8.521   7.272
87684SOL    HW264892   2.578   8.375   7.312
87685SOL     OW64893   9.061  10.188   8.658
87685SOL    HW164894   9.017  10.119   8.609
87685SOL    HW264895   9.140  10.146   8.691
87686SOL     OW64896   2.817  12.589   0.684
87686SOL    HW164897   2.785  12.587   0.774
87686SOL    HW264898   2.761  12.652   0.639
87687SOL     OW64899  10.568  13.929   4.622
87687SOL    HW164900  10.568  13.834   4.610
87687SOL    HW264901  10.476  13.951   4.641
87688SOL     OW64902   9.427  11.720  11.045
87688SOL    HW164903   9.398  11.766  11.123
87688SOL    HW264904   9.388  11.769  10.972
87689SOL     OW64905   0.558   8.211   7.313
87689SOL    HW164906   0.513   8.159   7.378
87689SOL    HW264907   0.576   8.294   7.356
87690SOL     OW64908   5.246   9.612  11.544
87690SOL    HW164909   5.307   9.566  11.486
87690SOL    HW264910   5.284   9.600  11.632
87691SOL     OW64911   2.778  11.029  12.337
87691SOL    HW164912   2.717  11.102  12.328
87691SOL    HW264913   2.749  10.966  12.272
87692SOL     OW64914  10.837  14.424   1.233
87692SOL    HW164915  10.903  14.357   1.217
87692SOL    HW264916  10.761  14.375   1.265
87693SOL     OW64917   4.482   8.755   1.045
87693SOL    HW164918   4.570   8.762   1.009
87693SOL    HW264919   4.496   8.735   1.138
87694SOL     OW64920  10.277   8.935  12.815
87694SOL    HW164921  10.243   8.873  12.750
87694SOL    HW264922  10.283   8.884  12.896
87695SOL     OW64923   8.242  10.717  13.202
87695SOL    HW164924   8.235  10.702  13.108
87695SOL    HW264925   8.215  10.634  13.242
87696SOL     OW64926  12.107   4.153  11.058
87696SOL    HW164927  12.093   4.247  11.075
87696SOL    HW264928  12.051   4.109  11.122
87697SOL     OW64929   1.168   7.957   0.271
87697SOL    HW164930   1.104   7.891   0.243
87697SOL    HW264931   1.144   8.036   0.224
87698SOL     OW64932   6.315   1.961  11.992
87698SOL    HW164933   6.325   2.037  11.935
87698SOL    HW264934   6.290   1.890  11.933
87699SOL     OW64935   2.548  14.578   4.211
87699SOL    HW164936   2.487  14.642   4.174
87699SOL    HW264937   2.510  14.555   4.296
87700SOL     OW64938   5.637  11.832   7.540
87700SOL    HW164939   5.652  11.738   7.527
87700SOL    HW264940   5.688  11.874   7.470
87701SOL     OW64941  13.574   3.757  12.500
87701SOL    HW164942  13.502   3.728  12.556
87701SOL    HW264943  13.622   3.820  12.554
87702SOL     OW64944   4.547   1.305   0.222
87702SOL    HW164945   4.616   1.345   0.274
87702SOL    HW264946   4.493   1.378   0.192
87703SOL     OW64947   6.076  13.352   4.380
87703SOL    HW164948   6.134  13.331   4.306
87703SOL    HW264949   6.040  13.437   4.359
87704SOL     OW64950  10.984   6.457   6.187
87704SOL    HW164951  10.918   6.394   6.158
87704SOL    HW264952  10.977   6.456   6.283
87705SOL     OW64953   7.954   3.499   5.209
87705SOL    HW164954   7.895   3.486   5.283
87705SOL    HW264955   8.041   3.501   5.248
87706SOL     OW64956   5.143  12.060  10.037
87706SOL    HW164957   5.065  12.048   9.983
87706SOL    HW264958   5.153  12.155  10.044
87707SOL     OW64959   1.697   4.228   7.134
87707SOL    HW164960   1.653   4.285   7.197
87707SOL    HW264961   1.626   4.194   7.079
87708SOL     OW64962   6.631   1.294   1.364
87708SOL    HW164963   6.717   1.275   1.328
87708SOL    HW264964   6.643   1.370   1.420
87709SOL     OW64965   3.588  12.803   9.944
87709SOL    HW164966   3.650  12.816  10.016
87709SOL    HW264967   3.524  12.874   9.955
87710SOL     OW64968   7.979  14.694   2.672
87710SOL    HW164969   7.963  14.669   2.581
87710SOL    HW264970   8.048  14.760   2.668
87711SOL     OW64971  11.469   8.850   6.420
87711SOL    HW164972  11.539   8.894   6.372
87711SOL    HW264973  11.514   8.785   6.474
87712SOL     OW64974  10.303  14.016   4.766
87712SOL    HW164975  10.269  14.102   4.793
87712SOL    HW264976  10.337  13.978   4.847
87713SOL     OW64977  13.469  14.424   5.157
87713SOL    HW164978  13.505  14.370   5.086
87713SOL    HW264979  13.375  14.406   5.156
87714SOL     OW64980   3.818   5.176   8.508
87714SOL    HW164981   3.862   5.121   8.443
87714SOL    HW264982   3.806   5.260   8.464
87715SOL     OW64983   8.742   5.907  13.862
87715SOL    HW164984   8.710   5.840  13.922
87715SOL    HW264985   8.815   5.865  13.816
87716SOL     OW64986   8.696  10.829   0.112
87716SOL    HW164987   8.765  10.835   0.178
87716SOL    HW264988   8.616  10.815   0.162
87717SOL     OW64989  11.018  11.514   9.048
87717SOL    HW164990  11.109  11.496   9.072
87717SOL    HW264991  10.982  11.429   9.022
87718SOL     OW64992  10.450  14.091   1.645
87718SOL    HW164993  10.432  14.021   1.708
87718SOL    HW264994  10.515  14.146   1.687
87719SOL     OW64995   6.047   3.655  12.280
87719SOL    HW164996   5.958   3.686  12.295
87719SOL    HW264997   6.064   3.673  12.188
87720SOL     OW64998  13.697  10.543  13.144
87720SOL    HW164999  13.660  10.617  13.192
87720SOL    HW265000  13.675  10.561  13.052
87721SOL     OW65001   5.818  14.305  11.994
87721SOL    HW165002   5.787  14.394  12.011
87721SOL    HW265003   5.913  14.311  12.006
87722SOL     OW65004  12.575  10.602   5.695
87722SOL    HW165005  12.649  10.558   5.736
87722SOL    HW265006  12.544  10.540   5.629
87723SOL     OW65007   8.860  12.518   0.365
87723SOL    HW165008   8.934  12.558   0.317
87723SOL    HW265009   8.888  12.428   0.379
87724SOL     OW65010   9.522  10.449   3.582
87724SOL    HW165011   9.539  10.533   3.540
87724SOL    HW265012   9.561  10.384   3.524
87725SOL     OW65013   8.348   0.001   9.637
87725SOL    HW165014   8.257   0.028   9.628
87725SOL    HW265015   8.359  14.857   9.730
87726SOL     OW65016  13.164   9.128   8.982
87726SOL    HW165017  13.153   9.141   9.076
87726SOL    HW265018  13.135   9.038   8.966
87727SOL     OW65019   9.897  11.364   3.127
87727SOL    HW165020   9.895  11.269   3.119
87727SOL    HW265021   9.989  11.385   3.142
87728SOL     OW65022  13.232  11.391   9.754
87728SOL    HW165023  13.239  11.443   9.834
87728SOL    HW265024  13.282  11.312   9.774
87729SOL     OW65025   2.124   2.467   0.299
87729SOL    HW165026   2.200   2.522   0.278
87729SOL    HW265027   2.080   2.513   0.370
87730SOL     OW65028   0.621   4.927  10.632
87730SOL    HW165029   0.665   4.930  10.547
87730SOL    HW265030   0.663   4.996  10.683
87731SOL     OW65031   5.106   0.690   4.788
87731SOL    HW165032   5.041   0.727   4.728
87731SOL    HW265033   5.073   0.711   4.875
87732SOL     OW65034   8.339  10.696   5.471
87732SOL    HW165035   8.274  10.626   5.482
87732SOL    HW265036   8.363  10.720   5.561
87733SOL     OW65037   5.312   0.525   6.197
87733SOL    HW165038   5.325   0.557   6.107
87733SOL    HW265039   5.392   0.477   6.217
87734SOL     OW65040   7.419   5.436   1.187
87734SOL    HW165041   7.369   5.437   1.106
87734SOL    HW265042   7.390   5.515   1.234
87735SOL     OW65043   6.094   2.333  12.805
87735SOL    HW165044   6.024   2.289  12.758
87735SOL    HW265045   6.051   2.369  12.883
87736SOL     OW65046   0.733  11.920   7.055
87736SOL    HW165047   0.821  11.954   7.035
87736SOL    HW265048   0.747  11.828   7.074
87737SOL     OW65049  12.367   3.662  13.233
87737SOL    HW165050  12.285   3.691  13.271
87737SOL    HW265051  12.389   3.582  13.281
87738SOL     OW65052  10.214   3.054  11.137
87738SOL    HW165053  10.166   3.130  11.102
87738SOL    HW265054  10.301   3.061  11.098
87739SOL     OW65055   5.554   0.463   6.995
87739SOL    HW165056   5.486   0.473   6.929
87739SOL    HW265057   5.578   0.370   6.991
87740SOL     OW65058   2.271   8.648   2.463
87740SOL    HW165059   2.213   8.723   2.471
87740SOL    HW265060   2.244   8.589   2.533
87741SOL     OW65061   1.970   4.185   7.169
87741SOL    HW165062   1.880   4.197   7.138
87741SOL    HW265063   2.020   4.252   7.122
87742SOL     OW65064  10.671  14.237   1.812
87742SOL    HW165065  10.745  14.250   1.872
87742SOL    HW265066  10.712  14.234   1.726
87743SOL     OW65067  14.505   1.190   6.088
87743SOL    HW165068  14.412   1.188   6.108
87743SOL    HW265069  14.519   1.118   6.026
87744SOL     OW65070   4.363  13.546  12.913
87744SOL    HW165071   4.456  13.559  12.896
87744SOL    HW265072   4.327  13.519  12.828
87745SOL     OW65073  12.565   7.875  13.511
87745SOL    HW165074  12.490   7.929  13.489
87745SOL    HW265075  12.537   7.825  13.588
87746SOL     OW65076   1.128   2.951   2.099
87746SOL    HW165077   1.125   3.037   2.058
87746SOL    HW265078   1.163   2.966   2.186
87747SOL     OW65079   4.038  14.834   0.621
87747SOL    HW165080   3.960   0.013   0.633
87747SOL    HW265081   4.002  14.749   0.594
87748SOL     OW65082   1.822   3.210   9.982
87748SOL    HW165083   1.806   3.283   9.922
87748SOL    HW265084   1.855   3.252  10.062
87749SOL     OW65085   1.114   4.844   3.729
87749SOL    HW165086   1.071   4.764   3.700
87749SOL    HW265087   1.088   4.853   3.821
87750SOL     OW65088   9.785   6.705  13.551
87750SOL    HW165089   9.755   6.787  13.513
87750SOL    HW265090   9.862   6.682  13.501
87751SOL     OW65091  13.041   4.508  14.523
87751SOL    HW165092  12.958   4.463  14.538
87751SOL    HW265093  13.065   4.545  14.608
87752SOL     OW65094  14.152  10.540  12.595
87752SOL    HW165095  14.163  10.547  12.500
87752SOL    HW265096  14.206  10.609  12.632
87753SOL     OW65097   4.438  13.267  13.373
87753SOL    HW165098   4.459  13.176  13.352
87753SOL    HW265099   4.473  13.317  13.298
87754SOL     OW65100  13.158  14.765  10.225
87754SOL    HW165101  13.228  14.704  10.249
87754SOL    HW265102  13.202  14.832  10.172
87755SOL     OW65103   1.369   5.045   2.154
87755SOL    HW165104   1.327   4.981   2.096
87755SOL    HW265105   1.305   5.116   2.161
87756SOL     OW65106   0.606   3.872  10.979
87756SOL    HW165107   0.702   3.875  10.981
87756SOL    HW265108   0.580   3.961  11.002
87757SOL     OW65109  11.086   1.077  10.004
87757SOL    HW165110  11.007   1.031  10.033
87757SOL    HW265111  11.056   1.165   9.982
87758SOL     OW65112   2.277  13.294  10.495
87758SOL    HW165113   2.244  13.267  10.409
87758SOL    HW265114   2.250  13.386  10.503
87759SOL     OW65115   8.544   9.266   3.605
87759SOL    HW165116   8.484   9.220   3.547
87759SOL    HW265117   8.562   9.204   3.675
87760SOL     OW65118  12.721   1.624  13.824
87760SOL    HW165119  12.736   1.559  13.757
87760SOL    HW265120  12.630   1.611  13.851
87761SOL     OW65121  11.074  12.329  10.688
87761SOL    HW165122  11.091  12.319  10.595
87761SOL    HW265123  10.983  12.360  10.692
87762SOL     OW65124   6.200   1.292   5.803
87762SOL    HW165125   6.263   1.285   5.875
87762SOL    HW265126   6.229   1.226   5.740
87763SOL     OW65127   3.192   3.598   0.922
87763SOL    HW165128   3.173   3.540   0.995
87763SOL    HW265129   3.281   3.629   0.938
87764SOL     OW65130   6.209   7.123   2.437
87764SOL    HW165131   6.294   7.097   2.473
87764SOL    HW265132   6.176   7.044   2.394
87765SOL     OW65133   4.111  13.250  12.014
87765SOL    HW165134   4.081  13.325  12.065
87765SOL    HW265135   4.089  13.174  12.068
87766SOL     OW65136  12.063   5.498   5.600
87766SOL    HW165137  12.089   5.419   5.647
87766SOL    HW265138  12.050   5.564   5.668
87767SOL     OW65139  13.136   0.902   1.647
87767SOL    HW165140  13.159   0.995   1.651
87767SOL    HW265141  13.127   0.876   1.739
87768SOL     OW65142   2.440  11.763   2.758
87768SOL    HW165143   2.491  11.702   2.811
87768SOL    HW265144   2.492  11.843   2.756
87769SOL     OW65145   1.879   9.329   9.263
87769SOL    HW165146   1.963   9.375   9.270
87769SOL    HW265147   1.814   9.393   9.292
87770SOL     OW65148   8.077   1.182   3.044
87770SOL    HW165149   8.011   1.176   2.975
87770SOL    HW265150   8.025   1.190   3.125
87771SOL     OW65151  12.371  13.218   5.586
87771SOL    HW165152  12.433  13.290   5.597
87771SOL    HW265153  12.393  13.180   5.501
87772SOL     OW65154   7.540  11.188  12.580
87772SOL    HW165155   7.591  11.107  12.573
87772SOL    HW265156   7.528  11.201  12.674
87773SOL     OW65157  14.309   0.021   6.280
87773SOL    HW165158  14.282   0.112   6.288
87773SOL    HW265159  14.291  14.860   6.366
87774SOL     OW65160   7.218   8.532   6.103
87774SOL    HW165161   7.286   8.483   6.150
87774SOL    HW265162   7.265   8.601   6.056
87775SOL     OW65163  13.499   1.004   7.190
87775SOL    HW165164  13.431   0.956   7.236
87775SOL    HW265165  13.581   0.971   7.226
87776SOL     OW65166   0.823   5.336  12.141
87776SOL    HW165167   0.849   5.322  12.050
87776SOL    HW265168   0.748   5.394  12.136
87777SOL     OW65169   7.503   9.315   8.646
87777SOL    HW165170   7.515   9.299   8.739
87777SOL    HW265171   7.431   9.378   8.642
87778SOL     OW65172   6.337   7.306  14.694
87778SOL    HW165173   6.393   7.256  14.635
87778SOL    HW265174   6.343   7.396  14.662
87779SOL     OW65175  14.740   7.524  11.943
87779SOL    HW165176  14.805   7.523  11.873
87779SOL    HW265177  14.763   7.600  11.997
87780SOL     OW65178  12.801   1.882   6.977
87780SOL    HW165179  12.858   1.853   6.905
87780SOL    HW265180  12.849   1.953   7.019
87781SOL     OW65181  10.048   3.938   9.659
87781SOL    HW165182   9.984   3.876   9.626
87781SOL    HW265183  10.037   3.936   9.754
87782SOL     OW65184   1.962   8.442   7.252
87782SOL    HW165185   1.924   8.529   7.256
87782SOL    HW265186   1.975   8.417   7.344
87783SOL     OW65187   7.743  12.218   1.763
87783SOL    HW165188   7.794  12.166   1.701
87783SOL    HW265189   7.675  12.258   1.710
87784SOL     OW65190  10.801   9.401   0.796
87784SOL    HW165191  10.739   9.329   0.788
87784SOL    HW265192  10.779   9.460   0.724
87785SOL     OW65193   4.276  14.076   3.950
87785SOL    HW165194   4.229  14.156   3.971
87785SOL    HW265195   4.366  14.091   3.981
87786SOL     OW65196   9.303  13.684  14.462
87786SOL    HW165197   9.369  13.615  14.469
87786SOL    HW265198   9.317  13.738  14.541
87787SOL     OW65199   3.560   0.971   1.233
87787SOL    HW165200   3.511   1.032   1.287
87787SOL    HW265201   3.510   0.890   1.236
87788SOL     OW65202  12.053   4.584   8.412
87788SOL    HW165203  12.120   4.652   8.418
87788SOL    HW265204  11.991   4.616   8.346
87789SOL     OW65205   7.473   4.826   0.067
87789SOL    HW165206   7.561   4.831   0.029
87789SOL    HW265207   7.485   4.850   0.159
87790SOL     OW65208   7.689   1.066  12.557
87790SOL    HW165209   7.762   1.043  12.501
87790SOL    HW265210   7.616   1.081  12.497
87791SOL     OW65211   0.436   2.613   5.525
87791SOL    HW165212   0.353   2.606   5.479
87791SOL    HW265213   0.418   2.580   5.613
87792SOL     OW65214   7.483  14.008   7.946
87792SOL    HW165215   7.407  14.015   8.003
87792SOL    HW265216   7.450  14.031   7.859
87793SOL     OW65217   4.544   6.409  10.267
87793SOL    HW165218   4.626   6.376  10.303
87793SOL    HW265219   4.482   6.336  10.277
87794SOL     OW65220   4.343   2.157   2.165
87794SOL    HW165221   4.289   2.197   2.233
87794SOL    HW265222   4.389   2.086   2.210
87795SOL     OW65223  12.125  10.759   2.681
87795SOL    HW165224  12.083  10.837   2.644
87795SOL    HW265225  12.058  10.717   2.734
87796SOL     OW65226   5.833  12.340   5.785
87796SOL    HW165227   5.763  12.404   5.793
87796SOL    HW265228   5.895  12.364   5.855
87797SOL     OW65229   2.457   3.268   8.806
87797SOL    HW165230   2.377   3.316   8.826
87797SOL    HW265231   2.436   3.177   8.825
87798SOL     OW65232  14.259   9.535   4.110
87798SOL    HW165233  14.279   9.442   4.118
87798SOL    HW265234  14.291   9.559   4.023
87799SOL     OW65235   7.093  14.207   3.976
87799SOL    HW165236   7.043  14.270   3.924
87799SOL    HW265237   7.121  14.141   3.913
87800SOL     OW65238  10.206   2.423   4.048
87800SOL    HW165239  10.137   2.402   3.985
87800SOL    HW265240  10.168   2.492   4.102
87801SOL     OW65241   0.650  13.700   5.553
87801SOL    HW165242   0.717  13.636   5.530
87801SOL    HW265243   0.634  13.748   5.471
87802SOL     OW65244   8.497   5.725   2.853
87802SOL    HW165245   8.475   5.803   2.802
87802SOL    HW265246   8.456   5.739   2.938
87803SOL     OW65247   4.853  10.928  10.909
87803SOL    HW165248   4.839  10.861  10.842
87803SOL    HW265249   4.803  11.004  10.879
87804SOL     OW65250   6.577   8.547   3.051
87804SOL    HW165251   6.602   8.503   3.132
87804SOL    HW265252   6.510   8.491   3.012
87805SOL     OW65253  11.981  10.641   5.552
87805SOL    HW165254  11.895  10.673   5.525
87805SOL    HW265255  12.016  10.597   5.475
87806SOL     OW65256  10.040  14.016   9.685
87806SOL    HW165257   9.987  13.940   9.661
87806SOL    HW265258  10.130  13.985   9.680
87807SOL     OW65259  12.582   4.507   0.522
87807SOL    HW165260  12.555   4.417   0.538
87807SOL    HW265261  12.678   4.502   0.514
87808SOL     OW65262  11.658  12.968   5.049
87808SOL    HW165263  11.592  12.899   5.044
87808SOL    HW265264  11.665  12.988   5.142
87809SOL     OW65265  13.165  10.777   8.595
87809SOL    HW165266  13.251  10.799   8.561
87809SOL    HW265267  13.181  10.709   8.661
87810SOL     OW65268   9.045  13.464  11.129
87810SOL    HW165269   9.047  13.553  11.094
87810SOL    HW265270   9.075  13.409  11.056
87811SOL     OW65271   3.436   2.948   1.447
87811SOL    HW165272   3.399   2.965   1.534
87811SOL    HW265273   3.457   2.855   1.449
87812SOL     OW65274  13.943   5.491   1.944
87812SOL    HW165275  13.944   5.453   1.856
87812SOL    HW265276  14.035   5.510   1.963
87813SOL     OW65277   1.931  14.828   9.405
87813SOL    HW165278   1.949   0.000   9.324
87813SOL    HW265279   1.890   0.017   9.463
87814SOL     OW65280   9.278   2.105   4.522
87814SOL    HW165281   9.352   2.164   4.508
87814SOL    HW265282   9.275   2.051   4.443
87815SOL     OW65283  12.702  10.871   5.066
87815SOL    HW165284  12.727  10.781   5.085
87815SOL    HW265285  12.612  10.878   5.097
87816SOL     OW65286   5.296   4.000   8.113
87816SOL    HW165287   5.218   3.954   8.145
87816SOL    HW265288   5.342   3.935   8.059
87817SOL     OW65289   7.909   7.825   8.446
87817SOL    HW165290   7.821   7.797   8.471
87817SOL    HW265291   7.956   7.835   8.529
87818SOL     OW65292   0.581   1.211  14.196
87818SOL    HW165293   0.525   1.186  14.122
87818SOL    HW265294   0.549   1.156  14.269
87819SOL     OW65295   3.601   7.262  10.305
87819SOL    HW165296   3.678   7.316  10.286
87819SOL    HW265297   3.585   7.213  10.224
87820SOL     OW65298  14.127   8.584   2.451
87820SOL    HW165299  14.213   8.624   2.437
87820SOL    HW265300  14.141   8.521   2.522
87821SOL     OW65301  13.179  11.203   1.959
87821SOL    HW165302  13.273  11.207   1.975
87821SOL    HW265303  13.141  11.263   2.023
87822SOL     OW65304  14.716   6.662  12.770
87822SOL    HW165305  14.679   6.593  12.716
87822SOL    HW265306  14.645   6.725  12.781
87823SOL     OW65307   3.408  14.483  11.953
87823SOL    HW165308   3.467  14.416  11.990
87823SOL    HW265309   3.360  14.516  12.029
87824SOL     OW65310   8.142   6.110  10.152
87824SOL    HW165311   8.169   6.181  10.094
87824SOL    HW265312   8.191   6.034  10.121
87825SOL     OW65313   7.527   3.012  10.058
87825SOL    HW165314   7.544   2.985  10.148
87825SOL    HW265315   7.598   3.073  10.038
87826SOL     OW65316  13.236  13.827  12.677
87826SOL    HW165317  13.291  13.901  12.650
87826SOL    HW265318  13.191  13.858  12.755
87827SOL     OW65319   1.251   5.985  11.797
87827SOL    HW165320   1.346   5.987  11.803
87827SOL    HW265321   1.224   6.075  11.814
87828SOL     OW65322   3.527   1.637   6.703
87828SOL    HW165323   3.617   1.641   6.673
87828SOL    HW265324   3.533   1.597   6.790
87829SOL     OW65325   8.585   6.034   0.779
87829SOL    HW165326   8.494   6.003   0.778
87829SOL    HW265327   8.601   6.059   0.870
87830SOL     OW65328  11.300  14.485   5.697
87830SOL    HW165329  11.289  14.443   5.782
87830SOL    HW265330  11.261  14.572   5.708
87831SOL     OW65331  11.753   2.140   3.313
87831SOL    HW165332  11.721   2.172   3.229
87831SOL    HW265333  11.847   2.125   3.299
87832SOL     OW65334   7.906  14.039  12.533
87832SOL    HW165335   7.824  14.024  12.485
87832SOL    HW265336   7.925  13.955  12.573
87833SOL     OW65337   7.170   0.062  11.254
87833SOL    HW165338   7.253   0.101  11.280
87833SOL    HW265339   7.130   0.127  11.197
87834SOL     OW65340   3.042   7.514   0.264
87834SOL    HW165341   2.991   7.591   0.289
87834SOL    HW265342   3.130   7.548   0.247
87835SOL     OW65343  13.759  10.106   1.588
87835SOL    HW165344  13.790  10.186   1.546
87835SOL    HW265345  13.677  10.132   1.632
87836SOL     OW65346  12.806   8.984   8.103
87836SOL    HW165347  12.877   9.031   8.060
87836SOL    HW265348  12.801   9.022   8.191
87837SOL     OW65349   0.499   6.855   9.428
87837SOL    HW165350   0.473   6.859   9.336
87837SOL    HW265351   0.429   6.803   9.469
87838SOL     OW65352  11.531   5.090  14.174
87838SOL    HW165353  11.550   5.005  14.135
87838SOL    HW265354  11.453   5.121  14.127
87839SOL     OW65355   5.845   5.066   7.610
87839SOL    HW165356   5.900   5.142   7.590
87839SOL    HW265357   5.901   4.991   7.589
87840SOL     OW65358   6.960  10.615   9.613
87840SOL    HW165359   6.923  10.653   9.693
87840SOL    HW265360   6.916  10.531   9.603
87841SOL     OW65361  13.248   2.831   2.205
87841SOL    HW165362  13.164   2.842   2.250
87841SOL    HW265363  13.272   2.919   2.177
87842SOL     OW65364   3.422  13.194   7.941
87842SOL    HW165365   3.476  13.244   8.002
87842SOL    HW265366   3.405  13.111   7.987
87843SOL     OW65367   4.906  13.919   0.345
87843SOL    HW165368   4.874  13.905   0.256
87843SOL    HW265369   4.937  13.833   0.373
87844SOL     OW65370  10.238   2.487   9.140
87844SOL    HW165371  10.238   2.583   9.130
87844SOL    HW265372  10.172   2.457   9.077
87845SOL     OW65373  12.889  10.068  13.639
87845SOL    HW165374  12.968  10.069  13.585
87845SOL    HW265375  12.921  10.091  13.726
87846SOL     OW65376  12.234  14.022   2.508
87846SOL    HW165377  12.141  14.041   2.491
87846SOL    HW265378  12.277  14.107   2.499
87847SOL     OW65379  13.055   1.425   7.323
87847SOL    HW165380  13.087   1.452   7.409
87847SOL    HW265381  13.025   1.506   7.282
87848SOL     OW65382   9.563   1.494  10.371
87848SOL    HW165383   9.510   1.526  10.298
87848SOL    HW265384   9.591   1.574  10.417
87849SOL     OW65385   8.549   0.093   9.348
87849SOL    HW165386   8.592   0.178   9.358
87849SOL    HW265387   8.568   0.066   9.258
87850SOL     OW65388   9.208  14.596   6.110
87850SOL    HW165389   9.126  14.643   6.092
87850SOL    HW265390   9.269  14.664   6.136
87851SOL     OW65391   6.467   7.376   6.930
87851SOL    HW165392   6.551   7.347   6.967
87851SOL    HW265393   6.415   7.296   6.923
87852SOL     OW65394  11.056   4.861   3.214
87852SOL    HW165395  11.097   4.939   3.251
87852SOL    HW265396  11.078   4.791   3.276
87853SOL     OW65397   2.817  13.047   7.958
87853SOL    HW165398   2.767  13.110   7.905
87853SOL    HW265399   2.815  13.083   8.047
87854SOL     OW65400  13.096   8.950   9.968
87854SOL    HW165401  13.170   8.889   9.960
87854SOL    HW265402  13.066   8.963   9.878
87855SOL     OW65403  12.369   5.768  12.328
87855SOL    HW165404  12.306   5.839  12.316
87855SOL    HW265405  12.412   5.789  12.411
87856SOL     OW65406   1.030   9.641   1.475
87856SOL    HW165407   0.942   9.666   1.504
87856SOL    HW265408   1.034   9.669   1.384
87857SOL     OW65409   2.010   6.525   7.524
87857SOL    HW165410   2.102   6.543   7.540
87857SOL    HW265411   1.974   6.505   7.610
87858SOL     OW65412  13.814  10.564   1.254
87858SOL    HW165413  13.887  10.569   1.317
87858SOL    HW265414  13.848  10.512   1.182
87859SOL     OW65415   5.112  13.623   4.200
87859SOL    HW165416   5.028  13.581   4.180
87859SOL    HW265417   5.122  13.690   4.132
87860SOL     OW65418  14.086  10.976   1.027
87860SOL    HW165419  14.077  11.061   0.985
87860SOL    HW265420  14.176  10.949   1.010
87861SOL     OW65421   8.735  13.382   7.395
87861SOL    HW165422   8.814  13.342   7.430
87861SOL    HW265423   8.767  13.454   7.340
87862SOL     OW65424  14.123   6.436  10.438
87862SOL    HW165425  14.027   6.440  10.441
87862SOL    HW265426  14.146   6.364  10.496
87863SOL     OW65427  12.257  13.472   4.371
87863SOL    HW165428  12.215  13.462   4.286
87863SOL    HW265429  12.265  13.382   4.404
87864SOL     OW65430   6.755   1.367   2.964
87864SOL    HW165431   6.758   1.271   2.969
87864SOL    HW265432   6.782   1.387   2.874
87865SOL     OW65433   1.270  13.957   3.201
87865SOL    HW165434   1.280  14.042   3.159
87865SOL    HW265435   1.252  13.897   3.129
87866SOL     OW65436   7.244   0.379  14.682
87866SOL    HW165437   7.318   0.318  14.673
87866SOL    HW265438   7.284   0.465  14.690
87867SOL     OW65439   6.647  14.633   8.351
87867SOL    HW165440   6.652  14.546   8.391
87867SOL    HW265441   6.735  14.650   8.318
87868SOL     OW65442  12.527  14.007  14.065
87868SOL    HW165443  12.485  14.003  13.979
87868SOL    HW265444  12.614  14.042  14.048
87869SOL     OW65445   7.203   1.167  12.529
87869SOL    HW165446   7.235   1.188  12.616
87869SOL    HW265447   7.140   1.237  12.509
87870SOL     OW65448   8.642   5.648   1.826
87870SOL    HW165449   8.565   5.615   1.872
87870SOL    HW265450   8.699   5.571   1.817
87871SOL     OW65451   6.242   7.504   7.341
87871SOL    HW165452   6.190   7.488   7.420
87871SOL    HW265453   6.262   7.597   7.344
87872SOL     OW65454  13.586   7.067   5.769
87872SOL    HW165455  13.558   7.015   5.844
87872SOL    HW265456  13.669   7.106   5.797
87873SOL     OW65457   8.799   9.954   5.295
87873SOL    HW165458   8.857   9.926   5.366
87873SOL    HW265459   8.717   9.976   5.339
87874SOL     OW65460   9.450   6.542  11.684
87874SOL    HW165461   9.521   6.593  11.722
87874SOL    HW265462   9.371   6.570  11.731
87875SOL     OW65463  12.691  14.863   4.222
87875SOL    HW165464  12.720   0.074   4.195
87875SOL    HW265465  12.730  14.851   4.309
87876SOL     OW65466  12.265   1.390  13.035
87876SOL    HW165467  12.224   1.428  13.112
87876SOL    HW265468  12.340   1.341  13.068
87877SOL     OW65469  14.809   7.187   6.370
87877SOL    HW165470  14.822   7.243   6.294
87877SOL    HW265471   0.015   7.194   6.419
87878SOL     OW65472   6.369   9.965   0.494
87878SOL    HW165473   6.400   9.960   0.403
87878SOL    HW265474   6.424   9.902   0.541
87879SOL     OW65475  13.610   6.663   0.923
87879SOL    HW165476  13.612   6.625   0.835
87879SOL    HW265477  13.597   6.757   0.908
87880SOL     OW65478   2.337  12.192   3.124
87880SOL    HW165479   2.333  12.142   3.042
87880SOL    HW265480   2.394  12.266   3.104
87881SOL     OW65481   2.932   8.313  13.753
87881SOL    HW165482   2.849   8.329  13.799
87881SOL    HW265483   2.915   8.342  13.663
87882SOL     OW65484  12.195   8.020   3.186
87882SOL    HW165485  12.105   8.049   3.198
87882SOL    HW265486  12.214   7.968   3.265
87883SOL     OW65487  10.780   9.309  13.350
87883SOL    HW165488  10.788   9.354  13.266
87883SOL    HW265489  10.863   9.327  13.395
87884SOL     OW65490   6.090  14.177   0.262
87884SOL    HW165491   6.067  14.139   0.347
87884SOL    HW265492   6.007  14.182   0.215
87885SOL     OW65493   0.258  14.313  14.281
87885SOL    HW165494   0.273  14.391  14.228
87885SOL    HW265495   0.250  14.241  14.218
87886SOL     OW65496   5.061   4.953   6.293
87886SOL    HW165497   5.058   5.004   6.374
87886SOL    HW265498   4.969   4.941   6.269
87887SOL     OW65499  11.830  14.182  13.340
87887SOL    HW165500  11.914  14.179  13.295
87887SOL    HW265501  11.766  14.162  13.272
87888SOL     OW65502   7.492   7.720   9.739
87888SOL    HW165503   7.439   7.799   9.746
87888SOL    HW265504   7.541   7.732   9.657
87889SOL     OW65505  13.718   5.310   7.766
87889SOL    HW165506  13.749   5.274   7.683
87889SOL    HW265507  13.718   5.234   7.826
87890SOL     OW65508   2.782   5.377  10.586
87890SOL    HW165509   2.737   5.369  10.670
87890SOL    HW265510   2.736   5.316  10.529
87891SOL     OW65511  13.899   8.486   2.837
87891SOL    HW165512  13.931   8.470   2.748
87891SOL    HW265513  13.936   8.414   2.889
87892SOL     OW65514  13.679   8.226   1.536
87892SOL    HW165515  13.730   8.252   1.613
87892SOL    HW265516  13.652   8.308   1.496
87893SOL     OW65517   0.775   3.168   7.974
87893SOL    HW165518   0.829   3.218   8.035
87893SOL    HW265519   0.752   3.088   8.022
87894SOL     OW65520  10.197   9.390   3.328
87894SOL    HW165521  10.220   9.455   3.262
87894SOL    HW265522  10.157   9.318   3.278
87895SOL     OW65523   2.991   0.310   4.188
87895SOL    HW165524   2.907   0.282   4.225
87895SOL    HW265525   2.983   0.405   4.180
87896SOL     OW65526   4.559   2.174  13.579
87896SOL    HW165527   4.495   2.129  13.635
87896SOL    HW265528   4.511   2.249  13.543
87897SOL     OW65529  10.215   0.607  14.636
87897SOL    HW165530  10.145   0.658  14.596
87897SOL    HW265531  10.216   0.525  14.587
87898SOL     OW65532  12.149   6.339   0.325
87898SOL    HW165533  12.161   6.408   0.390
87898SOL    HW265534  12.223   6.280   0.338
87899SOL     OW65535   2.936   2.041  12.588
87899SOL    HW165536   2.926   1.965  12.645
87899SOL    HW265537   2.973   2.005  12.507
87900SOL     OW65538   5.695   6.736   2.551
87900SOL    HW165539   5.649   6.666   2.599
87900SOL    HW265540   5.631   6.767   2.487
87901SOL     OW65541   6.337   3.726  11.012
87901SOL    HW165542   6.314   3.797  10.952
87901SOL    HW265543   6.260   3.669  11.011
87902SOL     OW65544  13.247   8.303  10.000
87902SOL    HW165545  13.205   8.387  10.019
87902SOL    HW265546  13.209   8.243  10.065
87903SOL     OW65547  14.033   9.122  13.293
87903SOL    HW165548  14.027   9.214  13.269
87903SOL    HW265549  13.942   9.092  13.295
87904SOL     OW65550   4.189   8.996   1.723
87904SOL    HW165551   4.158   8.942   1.795
87904SOL    HW265552   4.118   8.994   1.658
87905SOL     OW65553  13.238   9.047   4.986
87905SOL    HW165554  13.261   9.063   4.894
87905SOL    HW265555  13.294   9.108   5.035
87906SOL     OW65556  13.977   0.148  12.346
87906SOL    HW165557  13.950   0.164  12.256
87906SOL    HW265558  13.987   0.236  12.384
87907SOL     OW65559  14.559   2.137   0.722
87907SOL    HW165560  14.490   2.074   0.701
87907SOL    HW265561  14.513   2.222   0.724
87908SOL     OW65562  12.166   5.815  13.498
87908SOL    HW165563  12.154   5.740  13.557
87908SOL    HW265564  12.084   5.822  13.450
87909SOL     OW65565   0.147   8.796   8.641
87909SOL    HW165566   0.089   8.872   8.642
87909SOL    HW265567   0.109   8.735   8.704
87910SOL     OW65568   4.192   7.286   6.060
87910SOL    HW165569   4.148   7.316   5.980
87910SOL    HW265570   4.165   7.348   6.127
87911SOL     OW65571   3.742  13.076   2.495
87911SOL    HW165572   3.669  13.024   2.460
87911SOL    HW265573   3.713  13.101   2.583
87912SOL     OW65574   8.382  10.460  14.721
87912SOL    HW165575   8.464  10.487  14.679
87912SOL    HW265576   8.335  10.542  14.736
87913SOL     OW65577   5.547   0.782  14.048
87913SOL    HW165578   5.496   0.816  13.975
87913SOL    HW265579   5.490   0.717  14.090
87914SOL     OW65580  12.596   8.213  11.756
87914SOL    HW165581  12.635   8.137  11.713
87914SOL    HW265582  12.670   8.266  11.784
87915SOL     OW65583  11.873   8.851  14.576
87915SOL    HW165584  11.780   8.843  14.556
87915SOL    HW265585  11.916   8.793  14.514
87916SOL     OW65586   3.629   2.805   8.599
87916SOL    HW165587   3.599   2.878   8.653
87916SOL    HW265588   3.724   2.812   8.598
87917SOL     OW65589   1.094   3.208  13.363
87917SOL    HW165590   1.154   3.153  13.414
87917SOL    HW265591   1.145   3.233  13.285
87918SOL     OW65592  11.992  10.529  10.599
87918SOL    HW165593  12.025  10.441  10.583
87918SOL    HW265594  11.967  10.530  10.692
87919SOL     OW65595   7.116  10.213   9.431
87919SOL    HW165596   7.117  10.247   9.521
87919SOL    HW265597   7.039  10.253   9.391
87920SOL     OW65598   2.013  14.327   6.711
87920SOL    HW165599   2.083  14.266   6.733
87920SOL    HW265600   2.021  14.339   6.616
87921SOL     OW65601   8.971  13.142   3.267
87921SOL    HW165602   8.922  13.221   3.242
87921SOL    HW265603   8.916  13.100   3.332
87922SOL     OW65604  12.142   0.129  13.292
87922SOL    HW165605  12.061   0.180  13.300
87922SOL    HW265606  12.138   0.092  13.204
87923SOL     OW65607   3.646   7.741   7.823
87923SOL    HW165608   3.702   7.817   7.812
87923SOL    HW265609   3.693   7.684   7.884
87924SOL     OW65610   8.967   8.470   2.072
87924SOL    HW165611   8.997   8.557   2.097
87924SOL    HW265612   8.875   8.481   2.051
87925SOL     OW65613  12.354   0.845   9.429
87925SOL    HW165614  12.371   0.920   9.487
87925SOL    HW265615  12.320   0.777   9.487
87926SOL     OW65616   7.389  12.450   2.542
87926SOL    HW165617   7.446  12.411   2.608
87926SOL    HW265618   7.383  12.384   2.473
87927SOL     OW65619   4.279   7.992   3.912
87927SOL    HW165620   4.326   7.909   3.904
87927SOL    HW265621   4.249   8.011   3.823
87928SOL     OW65622   9.712  14.219  11.753
87928SOL    HW165623   9.799  14.190  11.724
87928SOL    HW265624   9.652  14.179  11.690
87929SOL     OW65625  11.103   1.778  12.688
87929SOL    HW165626  11.114   1.827  12.769
87929SOL    HW265627  11.189   1.784  12.645
87930SOL     OW65628   5.953  12.734   6.586
87930SOL    HW165629   5.870  12.767   6.552
87930SOL    HW265630   6.011  12.732   6.509
87931SOL     OW65631   1.883  14.481   5.936
87931SOL    HW165632   1.884  14.497   5.842
87931SOL    HW265633   1.975  14.462   5.958
87932SOL     OW65634  11.207   1.700   1.427
87932SOL    HW165635  11.186   1.722   1.518
87932SOL    HW265636  11.230   1.607   1.429
87933SOL     OW65637   4.600  14.231   1.803
87933SOL    HW165638   4.670  14.267   1.859
87933SOL    HW265639   4.557  14.308   1.766
87934SOL     OW65640   0.124   6.049   4.694
87934SOL    HW165641   0.163   6.034   4.608
87934SOL    HW265642   0.120   6.145   4.701
87935SOL     OW65643   6.338   9.259   0.285
87935SOL    HW165644   6.348   9.165   0.273
87935SOL    HW265645   6.307   9.291   0.200
87936SOL     OW65646   9.177  13.736  10.385
87936SOL    HW165647   9.110  13.763  10.323
87936SOL    HW265648   9.130  13.715  10.465
87937SOL     OW65649  12.085   7.990   9.886
87937SOL    HW165650  12.053   8.013   9.798
87937SOL    HW265651  12.013   7.940   9.925
87938SOL     OW65652   1.026   5.279  12.628
87938SOL    HW165653   1.016   5.275  12.533
87938SOL    HW265654   0.972   5.207  12.661
87939SOL     OW65655   1.843  10.362   5.648
87939SOL    HW165656   1.802  10.414   5.717
87939SOL    HW265657   1.821  10.408   5.567
87940SOL     OW65658   4.054   1.804  12.747
87940SOL    HW165659   4.127   1.810  12.808
87940SOL    HW265660   4.092   1.761  12.669
87941SOL     OW65661  12.489   8.858   8.376
87941SOL    HW165662  12.489   8.933   8.435
87941SOL    HW265663  12.581   8.831   8.370
87942SOL     OW65664   4.798   4.941  12.357
87942SOL    HW165665   4.768   4.873  12.297
87942SOL    HW265666   4.882   4.969  12.321
87943SOL     OW65667   4.237   1.402   6.248
87943SOL    HW165668   4.185   1.334   6.205
87943SOL    HW265669   4.190   1.483   6.231
87944SOL     OW65670   6.553   8.531  14.559
87944SOL    HW165671   6.481   8.467  14.550
87944SOL    HW265672   6.588   8.539  14.470
87945SOL     OW65673   8.928   3.018   5.797
87945SOL    HW165674   8.899   2.977   5.717
87945SOL    HW265675   8.847   3.042   5.843
87946SOL     OW65676   5.678   5.131   0.259
87946SOL    HW165677   5.607   5.068   0.250
87946SOL    HW265678   5.745   5.085   0.310
87947SOL     OW65679   0.889   0.293  14.529
87947SOL    HW165680   0.955   0.223  14.526
87947SOL    HW265681   0.934   0.370  14.494
87948SOL     OW65682   7.248   9.250   6.079
87948SOL    HW165683   7.180   9.295   6.129
87948SOL    HW265684   7.232   9.157   6.095
87949SOL     OW65685   5.582  11.683   5.861
87949SOL    HW165686   5.550  11.612   5.917
87949SOL    HW265687   5.655  11.645   5.813
87950SOL     OW65688  11.229  12.413   0.577
87950SOL    HW165689  11.301  12.460   0.619
87950SOL    HW265690  11.193  12.357   0.646
87951SOL     OW65691  14.701   7.360   0.175
87951SOL    HW165692  14.660   7.307   0.106
87951SOL    HW265693  14.743   7.295   0.232
87952SOL     OW65694   7.854   8.047   9.493
87952SOL    HW165695   7.845   7.964   9.540
87952SOL    HW265696   7.930   8.089   9.533
87953SOL     OW65697   0.202  10.634  14.276
87953SOL    HW165698   0.233  10.675  14.195
87953SOL    HW265699   0.172  10.707  14.330
87954SOL     OW65700  14.045   4.107  13.336
87954SOL    HW165701  13.960   4.099  13.380
87954SOL    HW265702  14.029   4.077  13.247
87955SOL     OW65703   3.786   0.703  12.004
87955SOL    HW165704   3.702   0.670  11.970
87955SOL    HW265705   3.762   0.778  12.057
87956SOL     OW65706   2.779   8.970   0.375
87956SOL    HW165707   2.874   8.965   0.372
87956SOL    HW265708   2.749   8.882   0.353
87957SOL     OW65709   3.660   6.661   6.146
87957SOL    HW165710   3.726   6.608   6.191
87957SOL    HW265711   3.709   6.710   6.080
87958SOL     OW65712  13.802   8.951   8.231
87958SOL    HW165713  13.782   8.864   8.265
87958SOL    HW265714  13.834   9.000   8.307
87959SOL     OW65715   9.745   9.790   0.519
87959SOL    HW165716   9.731   9.785   0.424
87959SOL    HW265717   9.822   9.847   0.529
87960SOL     OW65718  10.898  11.608  12.297
87960SOL    HW165719  10.840  11.673  12.338
87960SOL    HW265720  10.839  11.552  12.247
87961SOL     OW65721   5.628   1.981   8.566
87961SOL    HW165722   5.589   1.972   8.653
87961SOL    HW265723   5.717   1.945   8.575
87962SOL     OW65724  13.280   3.656   3.497
87962SOL    HW165725  13.276   3.720   3.568
87962SOL    HW265726  13.373   3.643   3.481
87963SOL     OW65727   2.156  12.441   8.881
87963SOL    HW165728   2.193  12.418   8.966
87963SOL    HW265729   2.142  12.357   8.837
87964SOL     OW65730   8.805   0.544   8.122
87964SOL    HW165731   8.811   0.635   8.092
87964SOL    HW265732   8.726   0.542   8.176
87965SOL     OW65733  11.943   9.937   1.854
87965SOL    HW165734  11.983   9.864   1.902
87965SOL    HW265735  11.974  10.016   1.899
87966SOL     OW65736   3.624   6.782   7.988
87966SOL    HW165737   3.715   6.756   7.977
87966SOL    HW265738   3.594   6.802   7.899
87967SOL     OW65739  11.452  12.185  12.467
87967SOL    HW165740  11.384  12.147  12.411
87967SOL    HW265741  11.512  12.112  12.483
87968SOL     OW65742  10.895  10.745  13.275
87968SOL    HW165743  10.892  10.725  13.182
87968SOL    HW265744  10.833  10.684  13.315
87969SOL     OW65745   9.924   0.237  10.095
87969SOL    HW165746   9.861   0.167  10.080
87969SOL    HW265747   9.891   0.285  10.170
87970SOL     OW65748   8.315  13.912   7.030
87970SOL    HW165749   8.240  13.970   7.042
87970SOL    HW265750   8.391  13.969   7.039
87971SOL     OW65751   1.229   1.016   8.531
87971SOL    HW165752   1.272   0.931   8.532
87971SOL    HW265753   1.155   1.007   8.592
87972SOL     OW65754  12.271   4.003   4.660
87972SOL    HW165755  12.243   4.070   4.723
87972SOL    HW265756  12.241   4.036   4.575
87973SOL     OW65757  12.456  12.412   0.256
87973SOL    HW165758  12.448  12.440   0.165
87973SOL    HW265759  12.432  12.319   0.254
87974SOL     OW65760  13.326  12.501  11.421
87974SOL    HW165761  13.303  12.532  11.333
87974SOL    HW265762  13.386  12.567  11.454
87975SOL     OW65763  10.260   9.506  10.098
87975SOL    HW165764  10.235   9.580  10.153
87975SOL    HW265765  10.178   9.461  10.078
87976SOL     OW65766   5.440   6.590   0.067
87976SOL    HW165767   5.495   6.589  14.865
87976SOL    HW265768   5.374   6.524   0.051
87977SOL     OW65769   1.057  11.941   5.973
87977SOL    HW165770   1.105  11.966   5.894
87977SOL    HW265771   1.035  11.848   5.960
87978SOL     OW65772   4.441  11.615   7.054
87978SOL    HW165773   4.500  11.541   7.046
87978SOL    HW265774   4.357  11.576   7.080
87979SOL     OW65775  10.842   9.981   2.288
87979SOL    HW165776  10.772  10.044   2.269
87979SOL    HW265777  10.858   9.990   2.382
87980SOL     OW65778   5.229  11.377   9.908
87980SOL    HW165779   5.303  11.366   9.848
87980SOL    HW265780   5.169  11.436   9.861
87981SOL     OW65781   4.678  14.807   6.599
87981SOL    HW165782   4.672  14.795   6.504
87981SOL    HW265783   4.763  14.772   6.622
87982SOL     OW65784   7.439   4.140   5.899
87982SOL    HW165785   7.429   4.135   5.804
87982SOL    HW265786   7.404   4.057   5.932
87983SOL     OW65787   5.865   4.224   9.471
87983SOL    HW165788   5.960   4.219   9.485
87983SOL    HW265789   5.849   4.314   9.445
87984SOL     OW65790   9.320   2.769   8.632
87984SOL    HW165791   9.300   2.770   8.726
87984SOL    HW265792   9.263   2.701   8.596
87985SOL     OW65793   9.269  11.183   9.885
87985SOL    HW165794   9.211  11.117   9.923
87985SOL    HW265795   9.294  11.147   9.800
87986SOL     OW65796   6.201   5.452   6.104
87986SOL    HW165797   6.166   5.442   6.015
87986SOL    HW265798   6.212   5.546   6.115
87987SOL     OW65799   4.785   1.142   6.845
87987SOL    HW165800   4.829   1.205   6.902
87987SOL    HW265801   4.715   1.106   6.899
87988SOL     OW65802  13.367   2.051   9.705
87988SOL    HW165803  13.338   2.018   9.619
87988SOL    HW265804  13.327   2.138   9.712
87989SOL     OW65805  11.794   4.991   9.905
87989SOL    HW165806  11.728   5.057   9.880
87989SOL    HW265807  11.814   5.012   9.996
87990SOL     OW65808   1.495  10.023   7.095
87990SOL    HW165809   1.446  10.070   7.028
87990SOL    HW265810   1.449   9.939   7.104
87991SOL     OW65811   3.179   1.485  11.054
87991SOL    HW165812   3.223   1.521  10.978
87991SOL    HW265813   3.248   1.440  11.103
87992SOL     OW65814   0.810   3.727   4.815
87992SOL    HW165815   0.863   3.700   4.890
87992SOL    HW265816   0.853   3.687   4.740
87993SOL     OW65817   8.469  10.080   1.070
87993SOL    HW165818   8.451  10.174   1.071
87993SOL    HW265819   8.501  10.061   1.158
87994SOL     OW65820   2.531   1.719   9.889
87994SOL    HW165821   2.594   1.659   9.930
87994SOL    HW265822   2.514   1.682   9.803
87995SOL     OW65823  12.334  12.901   5.116
87995SOL    HW165824  12.350  12.971   5.052
87995SOL    HW265825  12.413  12.900   5.170
87996SOL     OW65826   7.064   2.050   4.010
87996SOL    HW165827   7.106   1.964   4.002
87996SOL    HW265828   7.072   2.089   3.924
87997SOL     OW65829   8.565   5.809   5.025
87997SOL    HW165830   8.557   5.886   5.080
87997SOL    HW265831   8.637   5.829   4.965
87998SOL     OW65832   8.142   0.144   6.989
87998SOL    HW165833   8.110   0.108   7.072
87998SOL    HW265834   8.069   0.194   6.955
87999SOL     OW65835   7.166   6.684  14.714
87999SOL    HW165836   7.140   6.737  14.639
87999SOL    HW265837   7.254   6.654  14.694
88000SOL     OW65838   1.812   5.374   2.847
88000SOL    HW165839   1.785   5.448   2.902
88000SOL    HW265840   1.877   5.411   2.787
88001SOL     OW65841   4.558   4.958   9.841
88001SOL    HW165842   4.521   5.046   9.849
88001SOL    HW265843   4.560   4.942   9.746
88002SOL     OW65844   2.666  11.386  12.736
88002SOL    HW165845   2.746  11.435  12.717
88002SOL    HW265846   2.697  11.300  12.764
88003SOL     OW65847   4.391  11.354  10.015
88003SOL    HW165848   4.362  11.360  10.106
88003SOL    HW265849   4.319  11.311   9.969
88004SOL     OW65850   1.858   2.888  14.709
88004SOL    HW165851   1.923   2.827  14.673
88004SOL    HW265852   1.871   2.969  14.661
88005SOL     OW65853   6.951   7.458   2.019
88005SOL    HW165854   6.893   7.532   2.001
88005SOL    HW265855   7.039   7.496   2.018
88006SOL     OW65856   0.801  11.249   3.515
88006SOL    HW165857   0.706  11.242   3.505
88006SOL    HW265858   0.814  11.303   3.593
88007SOL     OW65859  10.819   6.129   9.761
88007SOL    HW165860  10.820   6.220   9.791
88007SOL    HW265861  10.747   6.126   9.697
88008SOL     OW65862   3.652  13.717  12.030
88008SOL    HW165863   3.559  13.734  12.047
88008SOL    HW265864   3.652  13.640  11.973
88009SOL     OW65865   9.437   7.204  12.106
88009SOL    HW165866   9.389   7.135  12.152
88009SOL    HW265867   9.500   7.158  12.052
88010SOL     OW65868  11.586  12.234   8.329
88010SOL    HW165869  11.500  12.197   8.308
88010SOL    HW265870  11.566  12.311   8.383
88011SOL     OW65871  13.467   2.499  11.756
88011SOL    HW165872  13.505   2.495  11.668
88011SOL    HW265873  13.533   2.545  11.809
88012SOL     OW65874   3.763  10.464  14.071
88012SOL    HW165875   3.706  10.418  14.132
88012SOL    HW265876   3.827  10.398  14.044
88013SOL     OW65877  13.654   6.841   0.508
88013SOL    HW165878  13.682   6.824   0.418
88013SOL    HW265879  13.649   6.754   0.548
88014SOL     OW65880   4.209   0.608   1.572
88014SOL    HW165881   4.279   0.595   1.507
88014SOL    HW265882   4.245   0.672   1.633
88015SOL     OW65883  13.683  11.095   1.319
88015SOL    HW165884  13.689  11.004   1.287
88015SOL    HW265885  13.642  11.087   1.405
88016SOL     OW65886   6.751   6.894  10.258
88016SOL    HW165887   6.663   6.861  10.243
88016SOL    HW265888   6.774   6.940  10.177
88017SOL     OW65889   6.600  10.994   0.629
88017SOL    HW165890   6.535  11.022   0.694
88017SOL    HW265891   6.677  10.971   0.681
88018SOL     OW65892   9.741   1.461  11.868
88018SOL    HW165893   9.750   1.367  11.880
88018SOL    HW265894   9.717   1.494  11.955
88019SOL     OW65895  14.082  10.557   7.088
88019SOL    HW165896  14.130  10.620   7.035
88019SOL    HW265897  14.111  10.572   7.178
88020SOL     OW65898   6.457  14.857   9.089
88020SOL    HW165899   6.508  14.872   9.010
88020SOL    HW265900   6.497   0.038   9.155
88021SOL     OW65901   6.165   5.485   9.392
88021SOL    HW165902   6.078   5.487   9.433
88021SOL    HW265903   6.172   5.396   9.356
88022SOL     OW65904  13.201   0.862   4.400
88022SOL    HW165905  13.285   0.881   4.358
88022SOL    HW265906  13.183   0.771   4.377
88023SOL     OW65907   5.708   0.730  11.735
88023SOL    HW165908   5.710   0.634  11.729
88023SOL    HW265909   5.642   0.748  11.802
88024SOL     OW65910  10.872   6.107   6.528
88024SOL    HW165911  10.821   6.168   6.474
88024SOL    HW265912  10.814   6.031   6.538
88025SOL     OW65913   3.809   7.200   4.892
88025SOL    HW165914   3.895   7.175   4.925
88025SOL    HW265915   3.804   7.160   4.806
88026SOL     OW65916   1.668   3.775  11.783
88026SOL    HW165917   1.703   3.809  11.701
88026SOL    HW265918   1.721   3.817  11.851
88027SOL     OW65919   3.694   8.806   9.192
88027SOL    HW165920   3.767   8.775   9.245
88027SOL    HW265921   3.616   8.790   9.246
88028SOL     OW65922  13.806  10.725   2.469
88028SOL    HW165923  13.832  10.679   2.389
88028SOL    HW265924  13.728  10.679   2.500
88029SOL     OW65925  14.078   4.077  11.349
88029SOL    HW165926  14.011   4.103  11.412
88029SOL    HW265927  14.155   4.128  11.374
88030SOL     OW65928   4.774   5.841  13.560
88030SOL    HW165929   4.718   5.777  13.604
88030SOL    HW265930   4.736   5.926  13.583
88031SOL     OW65931   8.854  12.515   8.392
88031SOL    HW165932   8.833  12.585   8.330
88031SOL    HW265933   8.926  12.550   8.444
88032SOL     OW65934  13.339  13.236  13.969
88032SOL    HW165935  13.269  13.211  13.909
88032SOL    HW265936  13.420  13.212  13.923
88033SOL     OW65937  14.714   2.398  12.731
88033SOL    HW165938  14.761   2.434  12.655
88033SOL    HW265939  14.750   2.445  12.806
88034SOL     OW65940   6.701  13.291   0.207
88034SOL    HW165941   6.781  13.238   0.211
88034SOL    HW265942   6.660  13.267   0.125
88035SOL     OW65943  10.510   2.370  13.942
88035SOL    HW165944  10.457   2.310  13.993
88035SOL    HW265945  10.515   2.450  13.995
88036SOL     OW65946  13.566   7.521   5.122
88036SOL    HW165947  13.601   7.435   5.144
88036SOL    HW265948  13.642   7.579   5.125
88037SOL     OW65949  10.379   3.147   9.197
88037SOL    HW165950  10.368   3.239   9.172
88037SOL    HW265951  10.304   3.130   9.255
88038SOL     OW65952   1.504   3.161   3.072
88038SOL    HW165953   1.414   3.141   3.047
88038SOL    HW265954   1.545   3.076   3.084
88039SOL     OW65955   9.971   3.345  13.020
88039SOL    HW165956  10.009   3.411  13.077
88039SOL    HW265957   9.877   3.347  13.041
88040SOL     OW65958   1.787  11.264   0.659
88040SOL    HW165959   1.747  11.327   0.719
88040SOL    HW265960   1.835  11.317   0.596
88041SOL     OW65961   4.247   0.526   9.099
88041SOL    HW165962   4.247   0.553   9.191
88041SOL    HW265963   4.186   0.453   9.095
88042SOL     OW65964  13.404  14.842   5.787
88042SOL    HW165965  13.477  14.789   5.754
88042SOL    HW265966  13.352  14.781   5.838
88043SOL     OW65967   7.647   0.006  11.400
88043SOL    HW165968   7.652   0.064  11.477
88043SOL    HW265969   7.632  14.795  11.436
88044SOL     OW65970   7.067  13.342  11.160
88044SOL    HW165971   7.077  13.319  11.252
88044SOL    HW265972   7.078  13.437  11.157
88045SOL     OW65973   3.375  14.443  11.056
88045SOL    HW165974   3.285  14.438  11.087
88045SOL    HW265975   3.380  14.377  10.987
88046SOL     OW65976   8.243  12.577   7.421
88046SOL    HW165977   8.335  12.604   7.415
88046SOL    HW265978   8.208  12.596   7.334
88047SOL     OW65979   2.380  14.672   1.678
88047SOL    HW165980   2.305  14.726   1.702
88047SOL    HW265981   2.355  14.583   1.701
88048SOL     OW65982  10.665   5.458   3.121
88048SOL    HW165983  10.695   5.450   3.031
88048SOL    HW265984  10.685   5.373   3.161
88049SOL     OW65985  12.414   8.253  10.256
88049SOL    HW165986  12.345   8.296  10.306
88049SOL    HW265987  12.395   8.275  10.165
88050SOL     OW65988   9.628   9.568   5.249
88050SOL    HW165989   9.674   9.608   5.322
88050SOL    HW265990   9.595   9.485   5.284
88051SOL     OW65991   1.775   5.974   5.131
88051SOL    HW165992   1.809   5.896   5.087
88051SOL    HW265993   1.736   5.940   5.212
88052SOL     OW65994  11.329   2.613   2.225
88052SOL    HW165995  11.416   2.572   2.223
88052SOL    HW265996  11.313   2.631   2.317
88053SOL     OW65997  13.734  14.084   5.597
88053SOL    HW165998  13.816  14.042   5.572
88053SOL    HW265999  13.754  14.132   5.677
88054SOL     OW66000   8.094   2.565  13.010
88054SOL    HW166001   8.184   2.542  13.033
88054SOL    HW266002   8.056   2.482  12.980
88055SOL     OW66003   3.627   2.516  14.640
88055SOL    HW166004   3.585   2.488  14.721
88055SOL    HW266005   3.719   2.530  14.663
88056SOL     OW66006   7.555  14.659   3.914
88056SOL    HW166007   7.481  14.664   3.853
88056SOL    HW266008   7.584  14.568   3.909
88057SOL     OW66009  12.834   4.234   3.653
88057SOL    HW166010  12.926   4.215   3.638
88057SOL    HW266011  12.803   4.162   3.708
88058SOL     OW66012   0.670   7.029  10.996
88058SOL    HW166013   0.631   6.949  10.960
88058SOL    HW266014   0.759   7.004  11.018
88059SOL     OW66015   0.866   4.684   5.490
88059SOL    HW166016   0.931   4.617   5.508
88059SOL    HW266017   0.909   4.767   5.513
88060SOL     OW66018   9.088   6.956  10.148
88060SOL    HW166019   9.020   6.977  10.211
88060SOL    HW266020   9.147   7.032  10.151
88061SOL     OW66021  14.114  10.477  12.927
88061SOL    HW166022  14.197  10.495  12.971
88061SOL    HW266023  14.132  10.400  12.873
88062SOL     OW66024   1.490   9.665   7.511
88062SOL    HW166025   1.481   9.746   7.460
88062SOL    HW266026   1.561   9.684   7.572
88063SOL     OW66027   3.908   9.116   0.827
88063SOL    HW166028   3.995   9.108   0.866
88063SOL    HW266029   3.881   9.206   0.848
88064SOL     OW66030   2.005  12.017   6.624
88064SOL    HW166031   1.981  12.109   6.608
88064SOL    HW266032   2.084  12.022   6.677
88065SOL     OW66033   0.594   4.781   3.525
88065SOL    HW166034   0.507   4.812   3.504
88065SOL    HW266035   0.581   4.693   3.561
88066SOL     OW66036   8.609   0.737   0.850
88066SOL    HW166037   8.692   0.689   0.855
88066SOL    HW266038   8.600   0.778   0.936
88067SOL     OW66039   0.218  14.369   8.741
88067SOL    HW166040   0.269  14.377   8.660
88067SOL    HW266041   0.181  14.281   8.738
88068SOL     OW66042   7.677   6.851  11.263
88068SOL    HW166043   7.719   6.878  11.345
88068SOL    HW266044   7.634   6.768  11.284
88069SOL     OW66045  13.080  11.251   5.347
88069SOL    HW166046  13.138  11.178   5.369
88069SOL    HW266047  12.993  11.212   5.342
88070SOL     OW66048   9.502  10.503   9.335
88070SOL    HW166049   9.521  10.588   9.296
88070SOL    HW266050   9.543  10.508   9.422
88071SOL     OW66051   5.583   2.445   2.558
88071SOL    HW166052   5.606   2.537   2.572
88071SOL    HW266053   5.630   2.421   2.478
88072SOL     OW66054   1.074   6.590  11.321
88072SOL    HW166055   1.137   6.534  11.367
88072SOL    HW266056   1.103   6.679  11.339
88073SOL     OW66057  14.325  12.563   7.950
88073SOL    HW166058  14.287  12.510   7.880
88073SOL    HW266059  14.281  12.531   8.029
88074SOL     OW66060   5.097  14.423   4.403
88074SOL    HW166061   5.056  14.348   4.446
88074SOL    HW266062   5.025  14.477   4.373
88075SOL     OW66063   4.122   6.620   3.930
88075SOL    HW166064   4.211   6.645   3.904
88075SOL    HW266065   4.130   6.529   3.959
88076SOL     OW66066   8.843  13.793   0.025
88076SOL    HW166067   8.922  13.740   0.029
88076SOL    HW266068   8.773  13.731   0.005
88077SOL     OW66069  13.133   4.977  10.270
88077SOL    HW166070  13.143   4.891  10.231
88077SOL    HW266071  13.163   5.038  10.202
88078SOL     OW66072   0.091   0.962   1.670
88078SOL    HW166073   0.104   0.924   1.756
88078SOL    HW266074   0.003   0.936   1.644
88079SOL     OW66075   5.680   1.770   1.625
88079SOL    HW166076   5.747   1.828   1.662
88079SOL    HW266077   5.661   1.808   1.539
88080SOL     OW66078  14.198   0.263   0.100
88080SOL    HW166079  14.102   0.261   0.105
88080SOL    HW266080  14.226   0.273   0.191
88081SOL     OW66081   3.220  10.581   9.106
88081SOL    HW166082   3.209  10.495   9.067
88081SOL    HW266083   3.313  10.601   9.094
88082SOL     OW66084  10.739  14.736  14.665
88082SOL    HW166085  10.786  14.705  14.742
88082SOL    HW266086  10.803  14.732  14.594
88083SOL     OW66087   1.483  14.712   6.469
88083SOL    HW166088   1.488  14.722   6.374
88083SOL    HW266089   1.483  14.617   6.483
88084SOL     OW66090   4.972   8.716   8.790
88084SOL    HW166091   5.009   8.631   8.812
88084SOL    HW266092   5.007   8.736   8.703
88085SOL     OW66093   6.457   1.912   2.395
88085SOL    HW166094   6.393   1.841   2.385
88085SOL    HW266095   6.457   1.932   2.489
88086SOL     OW66096   0.234  10.098   3.489
88086SOL    HW166097   0.159  10.131   3.538
88086SOL    HW266098   0.274  10.034   3.548
88087SOL     OW66099  12.470   7.562   8.168
88087SOL    HW166100  12.466   7.588   8.076
88087SOL    HW266101  12.398   7.499   8.178
88088SOL     OW66102   0.355   0.447  10.708
88088SOL    HW166103   0.449   0.459  10.692
88088SOL    HW266104   0.340   0.354  10.691
88089SOL     OW66105  10.113  12.724   2.037
88089SOL    HW166106  10.183  12.661   2.051
88089SOL    HW266107  10.098  12.763   2.123
88090SOL     OW66108   7.632   0.099  10.613
88090SOL    HW166109   7.676   0.037  10.672
88090SOL    HW266110   7.541   0.069  10.611
88091SOL     OW66111   2.615   5.205   5.928
88091SOL    HW166112   2.531   5.234   5.892
88091SOL    HW266113   2.681   5.252   5.878
88092SOL     OW66114  14.445   6.443  14.671
88092SOL    HW166115  14.448   6.361  14.721
88092SOL    HW266116  14.518   6.436  14.609
88093SOL     OW66117  11.251  11.755   5.439
88093SOL    HW166118  11.298  11.691   5.493
88093SOL    HW266119  11.219  11.820   5.501
88094SOL     OW66120  11.625   5.229   7.101
88094SOL    HW166121  11.650   5.313   7.063
88094SOL    HW266122  11.533   5.241   7.127
88095SOL     OW66123   7.820  14.567   4.617
88095SOL    HW166124   7.867  14.627   4.559
88095SOL    HW266125   7.862  14.482   4.603
88096SOL     OW66126   2.644   1.616  13.144
88096SOL    HW166127   2.621   1.636  13.235
88096SOL    HW266128   2.583   1.547  13.119
88097SOL     OW66129   6.085  10.998  14.552
88097SOL    HW166130   6.093  11.092  14.565
88097SOL    HW266131   6.072  10.988  14.457
88098SOL     OW66132  10.350   7.083   1.802
88098SOL    HW166133  10.428   7.101   1.856
88098SOL    HW266134  10.289   7.040   1.862
88099SOL     OW66135   2.549  13.675  10.796
88099SOL    HW166136   2.486  13.713  10.735
88099SOL    HW266137   2.505  13.597  10.830
88100SOL     OW66138  13.842   8.755   5.197
88100SOL    HW166139  13.761   8.777   5.243
88100SOL    HW266140  13.911   8.772   5.261
88101SOL     OW66141   8.316   3.423  11.720
88101SOL    HW166142   8.375   3.351  11.697
88101SOL    HW266143   8.279   3.397  11.804
88102SOL     OW66144  10.157   5.622   5.998
88102SOL    HW166145  10.136   5.713   5.981
88102SOL    HW266146  10.151   5.579   5.912
88103SOL     OW66147   7.061   1.731   4.640
88103SOL    HW166148   7.054   1.796   4.711
88103SOL    HW266149   6.980   1.680   4.648
88104SOL     OW66150   7.779  13.942  11.312
88104SOL    HW166151   7.777  13.876  11.382
88104SOL    HW266152   7.829  13.901  11.241
88105SOL     OW66153  10.630  14.801  12.958
88105SOL    HW166154  10.622  14.832  12.868
88105SOL    HW266155  10.545  14.819  12.997
88106SOL     OW66156   4.469   4.026   9.096
88106SOL    HW166157   4.379   4.003   9.120
88106SOL    HW266158   4.460   4.107   9.046
88107SOL     OW66159   9.384   8.002   6.062
88107SOL    HW166160   9.425   8.020   5.976
88107SOL    HW266161   9.444   7.940   6.104
88108SOL     OW66162   3.451   5.170   3.081
88108SOL    HW166163   3.456   5.207   3.169
88108SOL    HW266164   3.491   5.237   3.025
88109SOL     OW66165   3.026   3.038   0.519
88109SOL    HW166166   2.998   2.989   0.597
88109SOL    HW266167   3.105   3.085   0.548
88110SOL     OW66168   0.289   3.556  10.719
88110SOL    HW166169   0.294   3.514  10.804
88110SOL    HW266170   0.355   3.625  10.723
88111SOL     OW66171   3.354   0.568  11.232
88111SOL    HW166172   3.305   0.490  11.256
88111SOL    HW266173   3.303   0.608  11.161
88112SOL     OW66174  12.013  10.209  13.167
88112SOL    HW166175  11.929  10.223  13.123
88112SOL    HW266176  11.993  10.219  13.261
88113SOL     OW66177   0.729   7.453   5.531
88113SOL    HW166178   0.686   7.446   5.616
88113SOL    HW266179   0.661   7.486   5.472
88114SOL     OW66180   3.843   3.521  14.256
88114SOL    HW166181   3.877   3.573  14.328
88114SOL    HW266182   3.792   3.452  14.298
88115SOL     OW66183  11.464   0.170   9.442
88115SOL    HW166184  11.487   0.262   9.430
88115SOL    HW266185  11.535   0.122   9.400
88116SOL     OW66186   5.625   9.514   6.543
88116SOL    HW166187   5.659   9.579   6.604
88116SOL    HW266188   5.546   9.479   6.585
88117SOL     OW66189  14.128   9.310   8.516
88117SOL    HW166190  14.066   9.241   8.491
88117SOL    HW266191  14.111   9.381   8.455
88118SOL     OW66192  13.536  13.733   9.317
88118SOL    HW166193  13.622  13.707   9.285
88118SOL    HW266194  13.554  13.781   9.398
88119SOL     OW66195   2.012   9.119   2.046
88119SOL    HW166196   2.105   9.099   2.051
88119SOL    HW266197   2.008   9.214   2.033
88120SOL     OW66198  12.904   5.619   5.577
88120SOL    HW166199  12.973   5.643   5.639
88120SOL    HW266200  12.939   5.643   5.491
88121SOL     OW66201  14.528  13.961   0.381
88121SOL    HW166202  14.494  13.880   0.419
88121SOL    HW266203  14.485  14.031   0.431
88122SOL     OW66204   3.784   1.676  14.263
88122SOL    HW166205   3.690   1.680  14.278
88122SOL    HW266206   3.823   1.704  14.346
88123SOL     OW66207   0.732   7.132   0.738
88123SOL    HW166208   0.662   7.178   0.692
88123SOL    HW266209   0.812   7.179   0.712
88124SOL     OW66210  13.923   4.441   4.200
88124SOL    HW166211  13.927   4.534   4.221
88124SOL    HW266212  13.915   4.438   4.105
88125SOL     OW66213  11.811  10.286   8.383
88125SOL    HW166214  11.747  10.244   8.440
88125SOL    HW266215  11.874  10.216   8.363
88126SOL     OW66216   7.845  14.757   3.408
88126SOL    HW166217   7.901  14.681   3.391
88126SOL    HW266218   7.896  14.813   3.465
88127SOL     OW66219   1.782   4.497  13.764
88127SOL    HW166220   1.730   4.427  13.804
88127SOL    HW266221   1.774   4.570  13.826
88128SOL     OW66222  13.695   5.073   5.421
88128SOL    HW166223  13.725   5.092   5.509
88128SOL    HW266224  13.683   4.978   5.419
88129SOL     OW66225  11.302   7.628   7.239
88129SOL    HW166226  11.318   7.639   7.333
88129SOL    HW266227  11.368   7.564   7.211
88130SOL     OW66228   6.193   4.827  14.523
88130SOL    HW166229   6.253   4.844  14.450
88130SOL    HW266230   6.238   4.862  14.600
88131SOL     OW66231   9.837   4.714   1.741
88131SOL    HW166232   9.798   4.790   1.698
88131SOL    HW266233   9.762   4.664   1.773
88132SOL     OW66234  14.336   4.195   1.190
88132SOL    HW166235  14.331   4.100   1.198
88132SOL    HW266236  14.416   4.219   1.236
88133SOL     OW66237  11.642  13.829  13.090
88133SOL    HW166238  11.586  13.827  13.013
88133SOL    HW266239  11.598  13.773  13.154
88134SOL     OW66240  13.088   8.299   2.037
88134SOL    HW166241  13.059   8.390   2.033
88134SOL    HW266242  13.015   8.252   2.078
88135SOL     OW66243   8.985   2.342  12.794
88135SOL    HW166244   9.004   2.415  12.735
88135SOL    HW266245   8.923   2.378  12.857
88136SOL     OW66246   1.689   3.716   3.336
88136SOL    HW166247   1.619   3.669   3.380
88136SOL    HW266248   1.662   3.808   3.338
88137SOL     OW66249  12.802   7.414   1.007
88137SOL    HW166250  12.821   7.440   0.916
88137SOL    HW266251  12.748   7.485   1.041
88138SOL     OW66252   4.609  11.347   6.190
88138SOL    HW166253   4.671  11.330   6.260
88138SOL    HW266254   4.547  11.274   6.194
88139SOL     OW66255   7.196   6.713   2.466
88139SOL    HW166256   7.281   6.691   2.504
88139SOL    HW266257   7.201   6.808   2.451
88140SOL     OW66258  10.787   7.276   4.669
88140SOL    HW166259  10.747   7.326   4.598
88140SOL    HW266260  10.855   7.333   4.704
88141SOL     OW66261   2.906  14.057   1.867
88141SOL    HW166262   2.816  14.029   1.852
88141SOL    HW266263   2.899  14.122   1.938
88142SOL     OW66264   4.627   2.015  12.767
88142SOL    HW166265   4.705   1.993  12.717
88142SOL    HW266266   4.571   2.062  12.706
88143SOL     OW66267  12.014   9.999   9.818
88143SOL    HW166268  11.988  10.080   9.774
88143SOL    HW266269  12.057  10.028   9.898
88144SOL     OW66270   3.365  11.953   5.057
88144SOL    HW166271   3.458  11.945   5.077
88144SOL    HW266272   3.363  11.983   4.966
88145SOL     OW66273   7.405  14.330   7.594
88145SOL    HW166274   7.411  14.426   7.600
88145SOL    HW266275   7.416  14.311   7.501
88146SOL     OW66276   7.998   6.921  14.352
88146SOL    HW166277   8.023   6.984  14.420
88146SOL    HW266278   7.902   6.929  14.346
88147SOL     OW66279   1.374   6.173  12.167
88147SOL    HW166280   1.438   6.181  12.096
88147SOL    HW266281   1.419   6.211  12.243
88148SOL     OW66282  11.840   3.027   9.281
88148SOL    HW166283  11.852   2.937   9.251
88148SOL    HW266284  11.760   3.023   9.334
88149SOL     OW66285   0.070   7.914   8.026
88149SOL    HW166286   0.109   7.831   8.054
88149SOL    HW266287  14.862   7.918   8.073
88150SOL     OW66288   1.916   4.784   9.410
88150SOL    HW166289   1.993   4.747   9.454
88150SOL    HW266290   1.941   4.785   9.317
88151SOL     OW66291   3.094   8.482   8.180
88151SOL    HW166292   3.027   8.466   8.246
88151SOL    HW266293   3.158   8.412   8.193
88152SOL     OW66294  11.044  14.180   9.203
88152SOL    HW166295  10.994  14.145   9.129
88152SOL    HW266296  11.055  14.273   9.184
88153SOL     OW66297  10.921  14.837   0.296
88153SOL    HW166298  10.946  14.856   0.206
88153SOL    HW266299  10.997  14.791   0.332
88154SOL     OW66300   2.885   5.154   2.426
88154SOL    HW166301   2.848   5.144   2.514
88154SOL    HW266302   2.965   5.102   2.427
88155SOL     OW66303   3.016   9.965   3.195
88155SOL    HW166304   2.948  10.029   3.219
88155SOL    HW266305   3.033   9.983   3.102
88156SOL     OW66306  11.235  13.390  12.100
88156SOL    HW166307  11.327  13.363  12.100
88156SOL    HW266308  11.229  13.453  12.028
88157SOL     OW66309   0.168  11.559   0.406
88157SOL    HW166310   0.130  11.636   0.363
88157SOL    HW266311   0.246  11.593   0.451
88158SOL     OW66312   3.423   7.700   7.438
88158SOL    HW166313   3.513   7.700   7.406
88158SOL    HW266314   3.395   7.609   7.431
88159SOL     OW66315   2.184   6.585   8.363
88159SOL    HW166316   2.244   6.580   8.437
88159SOL    HW266317   2.240   6.610   8.289
88160SOL     OW66318  12.517   8.039   5.870
88160SOL    HW166319  12.592   8.096   5.890
88160SOL    HW266320  12.554   7.951   5.872
88161SOL     OW66321   9.762   5.852   5.756
88161SOL    HW166322   9.788   5.791   5.825
88161SOL    HW266323   9.671   5.875   5.778
88162SOL     OW66324   3.812  14.334  10.276
88162SOL    HW166325   3.838  14.243  10.268
88162SOL    HW266326   3.802  14.347  10.371
88163SOL     OW66327   1.882  10.135   8.518
88163SOL    HW166328   1.800  10.104   8.555
88163SOL    HW266329   1.869  10.229   8.508
88164SOL     OW66330   4.746   4.881   2.419
88164SOL    HW166331   4.804   4.889   2.344
88164SOL    HW266332   4.773   4.950   2.479
88165SOL     OW66333  12.499   2.488   4.811
88165SOL    HW166334  12.436   2.499   4.882
88165SOL    HW266335  12.488   2.567   4.757
88166SOL     OW66336   9.827  13.699   8.509
88166SOL    HW166337   9.921  13.719   8.508
88166SOL    HW266338   9.812  13.654   8.426
88167SOL     OW66339   5.914  14.785   0.949
88167SOL    HW166340   5.860  14.761   0.873
88167SOL    HW266341   6.004  14.766   0.921
88168SOL     OW66342   5.560   2.071  10.572
88168SOL    HW166343   5.648   2.037  10.554
88168SOL    HW266344   5.563   2.096  10.664
88169SOL     OW66345  10.287  10.247  11.597
88169SOL    HW166346  10.269  10.324  11.544
88169SOL    HW266347  10.363  10.206  11.555
88170SOL     OW66348  13.347  11.506   3.428
88170SOL    HW166349  13.269  11.556   3.452
88170SOL    HW266350  13.333  11.420   3.468
88171SOL     OW66351   2.951   8.684  12.645
88171SOL    HW166352   2.996   8.603  12.620
88171SOL    HW266353   3.020   8.750  12.647
88172SOL     OW66354   7.925   6.031   7.517
88172SOL    HW166355   7.902   5.940   7.536
88172SOL    HW266356   7.961   6.028   7.428
88173SOL     OW66357   7.857   5.905   0.916
88173SOL    HW166358   7.789   5.972   0.913
88173SOL    HW266359   7.847   5.864   1.001
88174SOL     OW66360  10.694  12.938  10.260
88174SOL    HW166361  10.716  12.846  10.243
88174SOL    HW266362  10.604  12.936  10.290
88175SOL     OW66363   8.709   5.704   1.400
88175SOL    HW166364   8.662   5.679   1.320
88175SOL    HW266365   8.674   5.790   1.423
88176SOL     OW66366   8.354   7.973  12.716
88176SOL    HW166367   8.373   7.885  12.684
88176SOL    HW266368   8.433   8.000  12.762
88177SOL     OW66369   3.527   7.027   1.237
88177SOL    HW166370   3.448   7.082   1.238
88177SOL    HW266371   3.599   7.088   1.253
88178SOL     OW66372   9.744   8.389   9.052
88178SOL    HW166373   9.660   8.352   9.025
88178SOL    HW266374   9.809   8.342   8.998
88179SOL     OW66375  11.885   6.108   4.170
88179SOL    HW166376  11.905   6.186   4.118
88179SOL    HW266377  11.919   6.127   4.257
88180SOL     OW66378   8.628  12.248  11.535
88180SOL    HW166379   8.628  12.317  11.601
88180SOL    HW266380   8.550  12.264  11.483
88181SOL     OW66381   2.977  10.414   8.439
88181SOL    HW166382   3.034  10.436   8.366
88181SOL    HW266383   2.908  10.480   8.437
88182SOL     OW66384   1.765  10.472  12.648
88182SOL    HW166385   1.850  10.464  12.605
88182SOL    HW266386   1.752  10.388  12.692
88183SOL     OW66387  12.753   7.250   2.881
88183SOL    HW166388  12.717   7.319   2.826
88183SOL    HW266389  12.730   7.277   2.970
88184SOL     OW66390   1.945   1.600   7.138
88184SOL    HW166391   1.982   1.677   7.182
88184SOL    HW266392   1.900   1.635   7.061
88185SOL     OW66393   5.959  10.926  12.195
88185SOL    HW166394   5.871  10.902  12.225
88185SOL    HW266395   6.014  10.854  12.224
88186SOL     OW66396   6.862   2.393   8.373
88186SOL    HW166397   6.853   2.301   8.397
88186SOL    HW266398   6.863   2.440   8.457
88187SOL     OW66399  13.557  11.265   8.900
88187SOL    HW166400  13.476  11.217   8.886
88187SOL    HW266401  13.620  11.198   8.927
88188SOL     OW66402   1.801   8.479  10.264
88188SOL    HW166403   1.753   8.489  10.182
88188SOL    HW266404   1.757   8.406  10.308
88189SOL     OW66405   5.880   0.827  13.564
88189SOL    HW166406   5.891   0.809  13.658
88189SOL    HW266407   5.963   0.865  13.536
88190SOL     OW66408   5.001  11.853  12.125
88190SOL    HW166409   5.003  11.863  12.220
88190SOL    HW266410   5.033  11.937  12.091
88191SOL     OW66411  13.546   1.750   0.587
88191SOL    HW166412  13.477   1.807   0.555
88191SOL    HW266413  13.553   1.681   0.521
88192SOL     OW66414   4.708  12.554  14.232
88192SOL    HW166415   4.666  12.541  14.147
88192SOL    HW266416   4.712  12.466  14.270
88193SOL     OW66417   4.493   5.629   3.067
88193SOL    HW166418   4.532   5.542   3.078
88193SOL    HW266419   4.424   5.616   3.001
88194SOL     OW66420   3.719   4.557   1.248
88194SOL    HW166421   3.660   4.632   1.257
88194SOL    HW266422   3.804   4.596   1.228
88195SOL     OW66423  11.853   9.588   1.491
88195SOL    HW166424  11.872   9.498   1.466
88195SOL    HW266425  11.784   9.616   1.431
88196SOL     OW66426  12.294   5.764   6.534
88196SOL    HW166427  12.296   5.672   6.560
88196SOL    HW266428  12.368   5.775   6.474
88197SOL     OW66429   3.608   0.486   5.591
88197SOL    HW166430   3.663   0.430   5.537
88197SOL    HW266431   3.666   0.522   5.658
88198SOL     OW66432   5.507   4.336   8.363
88198SOL    HW166433   5.546   4.253   8.338
88198SOL    HW266434   5.581   4.395   8.375
88199SOL     OW66435  13.731   2.710   6.422
88199SOL    HW166436  13.799   2.758   6.375
88199SOL    HW266437  13.718   2.630   6.371
88200SOL     OW66438   1.461   6.071   5.382
88200SOL    HW166439   1.431   6.080   5.292
88200SOL    HW266440   1.441   6.155   5.423
88201SOL     OW66441  11.365   0.995   9.400
88201SOL    HW166442  11.326   1.082   9.408
88201SOL    HW266443  11.443   0.999   9.455
88202SOL     OW66444   7.419   2.977   5.512
88202SOL    HW166445   7.506   2.937   5.510
88202SOL    HW266446   7.436   3.071   5.519
88203SOL     OW66447  10.808  14.326   3.365
88203SOL    HW166448  10.853  14.392   3.312
88203SOL    HW266449  10.768  14.376   3.436
88204SOL     OW66450  14.705  13.381   0.145
88204SOL    HW166451  14.773  13.314   0.138
88204SOL    HW266452  14.655  13.356   0.223
88205SOL     OW66453   4.964   8.668   3.994
88205SOL    HW166454   4.891   8.680   4.055
88205SOL    HW266455   4.923   8.674   3.908
88206SOL     OW66456   5.636   7.901   8.257
88206SOL    HW166457   5.704   7.953   8.215
88206SOL    HW266458   5.571   7.887   8.188
88207SOL     OW66459   5.382   4.700  11.585
88207SOL    HW166460   5.298   4.704  11.538
88207SOL    HW266461   5.448   4.711  11.516
88208SOL     OW66462   6.205   0.713   5.080
88208SOL    HW166463   6.254   0.664   5.146
88208SOL    HW266464   6.125   0.741   5.125
88209SOL     OW66465   6.092   8.869   6.931
88209SOL    HW166466   6.038   8.804   6.977
88209SOL    HW266467   6.059   8.953   6.962
88210SOL     OW66468   7.110  12.996   8.511
88210SOL    HW166469   7.023  13.001   8.472
88210SOL    HW266470   7.142  13.086   8.511
88211SOL     OW66471   8.734   1.825  12.380
88211SOL    HW166472   8.705   1.761  12.315
88211SOL    HW266473   8.791   1.884  12.331
88212SOL     OW66474   4.045  10.218  12.353
88212SOL    HW166475   4.095  10.221  12.435
88212SOL    HW266476   4.079  10.290  12.301
88213SOL     OW66477  14.551   6.370   5.509
88213SOL    HW166478  14.528   6.427   5.436
88213SOL    HW266479  14.545   6.426   5.586
88214SOL     OW66480  12.692   8.900  12.182
88214SOL    HW166481  12.777   8.943  12.191
88214SOL    HW266482  12.695   8.858  12.096
88215SOL     OW66483   0.515  14.852   0.198
88215SOL    HW166484   0.600  14.847   0.154
88215SOL    HW266485   0.502   0.069   0.215
88216SOL     OW66486   4.927   1.625   6.685
88216SOL    HW166487   4.869   1.609   6.611
88216SOL    HW266488   4.880   1.689   6.739
88217SOL     OW66489   6.504   0.077  13.303
88217SOL    HW166490   6.555   0.028  13.368
88217SOL    HW266491   6.464   0.010  13.248
88218SOL     OW66492   1.862   6.672   6.734
88218SOL    HW166493   1.944   6.676   6.783
88218SOL    HW266494   1.801   6.724   6.787
88219SOL     OW66495   6.381   3.034  10.430
88219SOL    HW166496   6.398   3.097  10.500
88219SOL    HW266497   6.286   3.038  10.417
88220SOL     OW66498   6.400   9.107   3.210
88220SOL    HW166499   6.468   9.064   3.262
88220SOL    HW266500   6.318   9.081   3.253
88221SOL     OW66501   8.272   8.997  13.815
88221SOL    HW166502   8.212   8.924  13.807
88221SOL    HW266503   8.355   8.965  13.778
88222SOL     OW66504   7.820   3.349  12.550
88222SOL    HW166505   7.772   3.321  12.471
88222SOL    HW266506   7.910   3.321  12.534
88223SOL     OW66507  14.743   4.105  11.790
88223SOL    HW166508  14.705   4.173  11.734
88223SOL    HW266509  14.817   4.070  11.740
88224SOL     OW66510   1.577   1.194   7.693
88224SOL    HW166511   1.594   1.104   7.666
88224SOL    HW266512   1.638   1.209   7.765
88225SOL     OW66513   5.117   5.707   7.781
88225SOL    HW166514   5.100   5.799   7.801
88225SOL    HW266515   5.065   5.689   7.703
88226SOL     OW66516  13.480  10.078   8.409
88226SOL    HW166517  13.517  10.093   8.496
88226SOL    HW266518  13.447  10.164   8.382
88227SOL     OW66519   3.506   2.417  13.146
88227SOL    HW166520   3.564   2.486  13.178
88227SOL    HW266521   3.426   2.428  13.197
88228SOL     OW66522  12.676   6.442  14.703
88228SOL    HW166523  12.749   6.390  14.668
88228SOL    HW266524  12.667   6.413  14.794
88229SOL     OW66525  10.320  11.302   2.225
88229SOL    HW166526  10.376  11.378   2.242
88229SOL    HW266527  10.370  11.228   2.259
88230SOL     OW66528   6.973   7.029  13.462
88230SOL    HW166529   6.927   6.949  13.434
88230SOL    HW266530   6.903   7.086  13.496
88231SOL     OW66531   1.220  14.090   5.119
88231SOL    HW166532   1.142  14.070   5.171
88231SOL    HW266533   1.192  14.080   5.028
88232SOL     OW66534   5.238   9.989  13.745
88232SOL    HW166535   5.268  10.079  13.747
88232SOL    HW266536   5.172   9.983  13.814
88233SOL     OW66537   0.075   6.945   2.877
88233SOL    HW166538   0.153   6.924   2.827
88233SOL    HW266539   0.036   6.860   2.900
88234SOL     OW66540   9.258   7.111  14.647
88234SOL    HW166541   9.243   7.059  14.726
88234SOL    HW266542   9.179   7.164  14.639
88235SOL     OW66543  13.171   0.115   1.863
88235SOL    HW166544  13.266   0.120   1.866
88235SOL    HW266545  13.142   0.149   1.948
88236SOL     OW66546  12.197  10.099   2.934
88236SOL    HW166547  12.178  10.088   3.027
88236SOL    HW266548  12.245  10.021   2.909
88237SOL     OW66549   5.878  10.019   0.112
88237SOL    HW166550   5.919   9.949   0.162
88237SOL    HW266551   5.927  10.098   0.135
88238SOL     OW66552  14.355   6.097  12.587
88238SOL    HW166553  14.295   6.133  12.652
88238SOL    HW266554  14.387   6.016  12.626
88239SOL     OW66555   6.529   3.991   5.918
88239SOL    HW166556   6.591   3.972   5.989
88239SOL    HW266557   6.583   4.030   5.849
88240SOL     OW66558   4.228  14.322   6.911
88240SOL    HW166559   4.263  14.310   6.999
88240SOL    HW266560   4.293  14.376   6.866
88241SOL     OW66561   4.805  10.140   1.787
88241SOL    HW166562   4.873  10.162   1.850
88241SOL    HW266563   4.829  10.053   1.753
88242SOL     OW66564   4.072   1.342  12.258
88242SOL    HW166565   4.055   1.346  12.164
88242SOL    HW266566   4.132   1.414  12.275
88243SOL     OW66567   2.715   7.354   8.145
88243SOL    HW166568   2.742   7.305   8.067
88243SOL    HW266569   2.638   7.403   8.116
88244SOL     OW66570  14.836   1.259   0.682
88244SOL    HW166571   0.018   1.225   0.614
88244SOL    HW266572  14.821   1.350   0.657
88245SOL     OW66573  12.268   2.403   6.665
88245SOL    HW166574  12.194   2.416   6.724
88245SOL    HW266575  12.293   2.311   6.678
88246SOL     OW66576   8.859   5.707   8.944
88246SOL    HW166577   8.888   5.671   9.028
88246SOL    HW266578   8.923   5.775   8.924
88247SOL     OW66579   5.887   2.395   3.302
88247SOL    HW166580   5.961   2.373   3.358
88247SOL    HW266581   5.920   2.464   3.244
88248SOL     OW66582   4.788  11.469   0.017
88248SOL    HW166583   4.732  11.482   0.093
88248SOL    HW266584   4.859  11.532   0.028
88249SOL     OW66585   0.750   7.125   2.303
88249SOL    HW166586   0.706   7.163   2.227
88249SOL    HW266587   0.681   7.079   2.351
88250SOL     OW66588  14.464  14.406   4.100
88250SOL    HW166589  14.387  14.460   4.088
88250SOL    HW266590  14.514  14.417   4.018
88251SOL     OW66591   7.955   1.590   3.758
88251SOL    HW166592   8.008   1.555   3.830
88251SOL    HW266593   7.965   1.685   3.764
88252SOL     OW66594  10.017   9.797   4.780
88252SOL    HW166595   9.987   9.884   4.756
88252SOL    HW266596  10.049   9.806   4.870
88253SOL     OW66597  11.573  12.477   7.250
88253SOL    HW166598  11.575  12.531   7.329
88253SOL    HW266599  11.631  12.403   7.270
88254SOL     OW66600   6.514  12.853   4.618
88254SOL    HW166601   6.558  12.769   4.628
88254SOL    HW266602   6.497  12.860   4.524
88255SOL     OW66603   8.720   4.155  10.461
88255SOL    HW166604   8.733   4.151  10.366
88255SOL    HW266605   8.752   4.071  10.494
88256SOL     OW66606   2.840  11.364  11.600
88256SOL    HW166607   2.828  11.458  11.612
88256SOL    HW266608   2.918  11.357  11.545
88257SOL     OW66609   6.366  12.948   4.838
88257SOL    HW166610   6.442  12.922   4.785
88257SOL    HW266611   6.293  12.947   4.776
88258SOL     OW66612   3.280  14.676  13.852
88258SOL    HW166613   3.275  14.771  13.845
88258SOL    HW266614   3.373  14.656  13.845
88259SOL     OW66615   1.140   5.812  12.175
88259SOL    HW166616   1.105   5.818  12.086
88259SOL    HW266617   1.212   5.750  12.168
88260SOL     OW66618   0.373   8.899  12.719
88260SOL    HW166619   0.460   8.936  12.707
88260SOL    HW266620   0.313   8.969  12.689
88261SOL     OW66621   4.669  14.434   0.920
88261SOL    HW166622   4.757  14.397   0.918
88261SOL    HW266623   4.683  14.529   0.918
88262SOL     OW66624   6.352   2.326  13.051
88262SOL    HW166625   6.431   2.366  13.086
88262SOL    HW266626   6.282   2.389  13.070
88263SOL     OW66627   3.672  12.684   9.535
88263SOL    HW166628   3.721  12.602   9.547
88263SOL    HW266629   3.584  12.656   9.510
88264SOL     OW66630  14.463   6.426   0.731
88264SOL    HW166631  14.482   6.381   0.648
88264SOL    HW266632  14.439   6.356   0.791
88265SOL     OW66633  12.935  14.625   1.144
88265SOL    HW166634  12.974  14.712   1.134
88265SOL    HW266635  12.911  14.600   1.055
88266SOL     OW66636  12.170  11.716   5.453
88266SOL    HW166637  12.220  11.729   5.372
88266SOL    HW266638  12.085  11.681   5.423
88267SOL     OW66639  10.145  11.357   7.665
88267SOL    HW166640  10.058  11.394   7.673
88267SOL    HW266641  10.165  11.362   7.572
88268SOL     OW66642  10.092   8.664  10.654
88268SOL    HW166643  10.149   8.663  10.731
88268SOL    HW266644  10.090   8.573  10.625
88269SOL     OW66645  13.313   5.391   5.365
88269SOL    HW166646  13.230   5.399   5.412
88269SOL    HW266647  13.343   5.302   5.383
88270SOL     OW66648  14.673  14.268   2.599
88270SOL    HW166649  14.711  14.211   2.532
88270SOL    HW266650  14.719  14.246   2.680
88271SOL     OW66651   3.937   6.872   2.069
88271SOL    HW166652   3.932   6.944   2.006
88271SOL    HW266653   3.881   6.804   2.033
88272SOL     OW66654   7.449   5.014   4.174
88272SOL    HW166655   7.377   4.965   4.213
88272SOL    HW266656   7.528   4.971   4.208
88273SOL     OW66657  11.749   5.673   7.714
88273SOL    HW166658  11.829   5.661   7.765
88273SOL    HW266659  11.780   5.686   7.624
88274SOL     OW66660  11.661   6.769   4.494
88274SOL    HW166661  11.586   6.712   4.509
88274SOL    HW266662  11.728   6.712   4.457
88275SOL     OW66663   8.644   2.800   3.785
88275SOL    HW166664   8.591   2.735   3.832
88275SOL    HW266665   8.637   2.776   3.693
88276SOL     OW66666   3.773  13.390   9.218
88276SOL    HW166667   3.786  13.440   9.138
88276SOL    HW266668   3.752  13.301   9.188
88277SOL     OW66669   4.008   3.484   5.457
88277SOL    HW166670   3.945   3.541   5.502
88277SOL    HW266671   4.080   3.542   5.432
88278SOL     OW66672   5.763  14.078  11.283
88278SOL    HW166673   5.727  14.162  11.255
88278SOL    HW266674   5.837  14.100  11.339
88279SOL     OW66675   5.404   2.388   5.891
88279SOL    HW166676   5.337   2.335   5.848
88279SOL    HW266677   5.484   2.370   5.842
88280SOL     OW66678  13.097   8.956   3.776
88280SOL    HW166679  13.071   8.963   3.684
88280SOL    HW266680  13.137   9.040   3.797
88281SOL     OW66681   6.921   1.729   9.909
88281SOL    HW166682   6.920   1.649   9.857
88281SOL    HW266683   6.883   1.796   9.852
88282SOL     OW66684   5.933   2.713   9.517
88282SOL    HW166685   5.861   2.650   9.524
88282SOL    HW266686   5.913   2.764   9.438
88283SOL     OW66687  11.617   7.677  10.515
88283SOL    HW166688  11.666   7.615  10.461
88283SOL    HW266689  11.590   7.626  10.591
88284SOL     OW66690   5.956   4.275   5.953
88284SOL    HW166691   6.041   4.318   5.964
88284SOL    HW266692   5.908   4.332   5.893
88285SOL     OW66693  14.114  11.897  13.942
88285SOL    HW166694  14.181  11.859  13.999
88285SOL    HW266695  14.162  11.955  13.883
88286SOL     OW66696  10.856   7.428   8.358
88286SOL    HW166697  10.836   7.394   8.445
88286SOL    HW266698  10.894   7.354   8.311
88287SOL     OW66699   3.460  13.305  10.536
88287SOL    HW166700   3.534  13.315  10.597
88287SOL    HW266701   3.383  13.322  10.589
88288SOL     OW66702  13.557   1.847   3.391
88288SOL    HW166703  13.573   1.930   3.347
88288SOL    HW266704  13.640   1.799   3.384
88289SOL     OW66705   3.806  12.120   7.063
88289SOL    HW166706   3.893  12.081   7.053
88289SOL    HW266707   3.750  12.067   7.006
88290SOL     OW66708   6.547   9.488   0.201
88290SOL    HW166709   6.464   9.443   0.184
88290SOL    HW266710   6.551   9.494   0.297
88291SOL     OW66711   4.992   3.625  11.867
88291SOL    HW166712   4.987   3.677  11.948
88291SOL    HW266713   5.014   3.537  11.897
88292SOL     OW66714  10.353  11.511  14.457
88292SOL    HW166715  10.293  11.573  14.415
88292SOL    HW266716  10.408  11.478  14.386
88293SOL     OW66717   8.538   7.524  11.392
88293SOL    HW166718   8.585   7.443  11.408
88293SOL    HW266719   8.591   7.592  11.433
88294SOL     OW66720   2.850  13.753   7.415
88294SOL    HW166721   2.776  13.728   7.361
88294SOL    HW266722   2.814  13.813   7.481
88295SOL     OW66723   2.843  13.676  11.343
88295SOL    HW166724   2.936  13.653  11.347
88295SOL    HW266725   2.842  13.763  11.304
88296SOL     OW66726   7.415   6.573   2.005
88296SOL    HW166727   7.358   6.645   1.980
88296SOL    HW266728   7.484   6.572   1.939
88297SOL     OW66729   3.920  14.201   5.728
88297SOL    HW166730   3.833  14.178   5.760
88297SOL    HW266731   3.903  14.261   5.655
88298SOL     OW66732  11.392   7.781   8.802
88298SOL    HW166733  11.357   7.831   8.876
88298SOL    HW266734  11.319   7.728   8.771
88299SOL     OW66735   7.554  11.474  13.318
88299SOL    HW166736   7.637  11.504  13.353
88299SOL    HW266737   7.493  11.477  13.391
88300SOL     OW66738   6.123  10.807   3.877
88300SOL    HW166739   6.111  10.716   3.852
88300SOL    HW266740   6.149  10.803   3.969
88301SOL     OW66741  14.440   5.392   3.551
88301SOL    HW166742  14.380   5.383   3.625
88301SOL    HW266743  14.526   5.369   3.586
88302SOL     OW66744  10.407   6.860   6.659
88302SOL    HW166745  10.463   6.896   6.590
88302SOL    HW266746  10.449   6.777   6.682
88303SOL     OW66747   6.520   5.721   2.356
88303SOL    HW166748   6.436   5.722   2.402
88303SOL    HW266749   6.555   5.809   2.368
88304SOL     OW66750   1.821   0.036  12.743
88304SOL    HW166751   1.743   0.089  12.725
88304SOL    HW266752   1.799  14.861  12.820
88305SOL     OW66753   0.808   4.846  14.251
88305SOL    HW166754   0.779   4.829  14.162
88305SOL    HW266755   0.881   4.784  14.264
88306SOL     OW66756   3.926   6.560   7.023
88306SOL    HW166757   3.974   6.479   7.041
88306SOL    HW266758   3.993   6.629   7.026
88307SOL     OW66759  13.278   6.454   8.926
88307SOL    HW166760  13.317   6.497   9.003
88307SOL    HW266761  13.352   6.433   8.870
88308SOL     OW66762   4.086  10.904   4.961
88308SOL    HW166763   4.076  10.994   4.995
88308SOL    HW266764   4.007  10.889   4.910
88309SOL     OW66765   1.690   4.963  12.784
88309SOL    HW166766   1.611   5.004  12.819
88309SOL    HW266767   1.704   5.005  12.699
88310SOL     OW66768   4.697  10.714   7.153
88310SOL    HW166769   4.760  10.719   7.081
88310SOL    HW266770   4.730  10.645   7.209
88311SOL     OW66771   6.442   6.632   5.891
88311SOL    HW166772   6.353   6.652   5.918
88311SOL    HW266773   6.481   6.589   5.968
88312SOL     OW66774   1.886   5.254   1.692
88312SOL    HW166775   1.952   5.261   1.623
88312SOL    HW266776   1.923   5.191   1.754
88313SOL     OW66777   3.553   3.918  11.611
88313SOL    HW166778   3.490   3.984  11.581
88313SOL    HW266779   3.636   3.965  11.617
88314SOL     OW66780   8.690   2.585   4.211
88314SOL    HW166781   8.619   2.645   4.191
88314SOL    HW266782   8.694   2.584   4.307
88315SOL     OW66783   6.430   4.274   5.007
88315SOL    HW166784   6.503   4.220   4.978
88315SOL    HW266785   6.434   4.271   5.103
88316SOL     OW66786  14.045   5.525   5.172
88316SOL    HW166787  13.954   5.554   5.166
88316SOL    HW266788  14.066   5.534   5.265
88317SOL     OW66789   1.475   6.012   8.382
88317SOL    HW166790   1.508   5.925   8.406
88317SOL    HW266791   1.545   6.072   8.405
88318SOL     OW66792  10.368   5.732   9.645
88318SOL    HW166793  10.348   5.780   9.565
88318SOL    HW266794  10.332   5.644   9.630
88319SOL     OW66795   2.867  12.498   1.919
88319SOL    HW166796   2.947  12.539   1.887
88319SOL    HW266797   2.821  12.568   1.965
88320SOL     OW66798   8.599  12.263   0.554
88320SOL    HW166799   8.666  12.200   0.528
88320SOL    HW266800   8.592  12.322   0.479
88321SOL     OW66801  14.196  13.258   5.463
88321SOL    HW166802  14.155  13.344   5.455
88321SOL    HW266803  14.248  13.249   5.384
88322SOL     OW66804  10.866   9.353   8.395
88322SOL    HW166805  10.853   9.424   8.458
88322SOL    HW266806  10.778   9.320   8.377
88323SOL     OW66807   1.599  12.992   4.738
88323SOL    HW166808   1.636  12.963   4.822
88323SOL    HW266809   1.605  12.914   4.682
88324SOL     OW66810   3.493  12.644  13.471
88324SOL    HW166811   3.461  12.730  13.498
88324SOL    HW266812   3.586  12.658  13.452
88325SOL     OW66813   7.316  14.638   0.434
88325SOL    HW166814   7.406  14.604   0.440
88325SOL    HW266815   7.326  14.726   0.398
88326SOL     OW66816   4.188   1.651   2.693
88326SOL    HW166817   4.115   1.643   2.631
88326SOL    HW266818   4.180   1.575   2.750
88327SOL     OW66819  13.334  12.551   2.254
88327SOL    HW166820  13.403  12.554   2.188
88327SOL    HW266821  13.256  12.524   2.207
88328SOL     OW66822   3.141   9.196   0.561
88328SOL    HW166823   3.163   9.156   0.477
88328SOL    HW266824   3.119   9.122   0.618
88329SOL     OW66825   2.058  13.823  11.535
88329SOL    HW166826   2.115  13.899  11.522
88329SOL    HW266827   2.064  13.774  11.453
88330SOL     OW66828  13.540   2.678   8.535
88330SOL    HW166829  13.611   2.653   8.476
88330SOL    HW266830  13.488   2.598   8.545
88331SOL     OW66831   6.084   3.631   1.718
88331SOL    HW166832   6.153   3.566   1.708
88331SOL    HW266833   6.120   3.695   1.779
88332SOL     OW66834   8.338   3.620   7.533
88332SOL    HW166835   8.373   3.567   7.605
88332SOL    HW266836   8.347   3.710   7.563
88333SOL     OW66837   7.874  11.693   4.485
88333SOL    HW166838   7.835  11.726   4.566
88333SOL    HW266839   7.822  11.735   4.416
88334SOL     OW66840  11.696  12.020  14.115
88334SOL    HW166841  11.674  12.074  14.191
88334SOL    HW266842  11.740  12.079  14.055
88335SOL     OW66843   9.227  12.185   4.629
88335SOL    HW166844   9.137  12.166   4.654
88335SOL    HW266845   9.246  12.270   4.671
88336SOL     OW66846  14.345   1.211   0.418
88336SOL    HW166847  14.311   1.239   0.333
88336SOL    HW266848  14.406   1.140   0.398
88337SOL     OW66849  14.647   2.800   8.477
88337SOL    HW166850  14.645   2.710   8.445
88337SOL    HW266851  14.715   2.843   8.424
88338SOL     OW66852  12.182   8.497   8.397
88338SOL    HW166853  12.154   8.442   8.470
88338SOL    HW266854  12.146   8.583   8.416
88339SOL     OW66855  14.768  12.055   1.765
88339SOL    HW166856  14.781  12.040   1.671
88339SOL    HW266857  14.686  12.011   1.786
88340SOL     OW66858  10.300   6.170  13.724
88340SOL    HW166859  10.255   6.215  13.652
88340SOL    HW266860  10.230   6.121  13.768
88341SOL     OW66861   2.654  13.028   4.924
88341SOL    HW166862   2.582  12.982   4.966
88341SOL    HW266863   2.617  13.113   4.899
88342SOL     OW66864   3.131  10.427   4.270
88342SOL    HW166865   3.167  10.342   4.246
88342SOL    HW266866   3.147  10.434   4.364
88343SOL     OW66867  12.256   3.967   9.730
88343SOL    HW166868  12.282   4.035   9.667
88343SOL    HW266869  12.228   4.015   9.808
88344SOL     OW66870  13.147   8.139   9.082
88344SOL    HW166871  13.119   8.190   9.159
88344SOL    HW266872  13.145   8.202   9.010
88345SOL     OW66873  14.847   7.922   9.051
88345SOL    HW166874  14.792   7.879   8.986
88345SOL    HW266875   0.059   7.887   9.035
88346SOL     OW66876   9.446   3.194   1.393
88346SOL    HW166877   9.535   3.171   1.419
88346SOL    HW266878   9.453   3.217   1.301
88347SOL     OW66879  12.132   9.236  10.419
88347SOL    HW166880  12.127   9.141  10.408
88347SOL    HW266881  12.060   9.270  10.366
88348SOL     OW66882   3.196   1.821  11.884
88348SOL    HW166883   3.207   1.747  11.824
88348SOL    HW266884   3.286   1.849  11.904
88349SOL     OW66885   1.455   6.297   8.948
88349SOL    HW166886   1.409   6.364   8.898
88349SOL    HW266887   1.538   6.338   8.974
88350SOL     OW66888   7.456   1.195  12.678
88350SOL    HW166889   7.534   1.142  12.664
88350SOL    HW266890   7.479   1.282  12.646
88351SOL     OW66891   6.740   2.998   0.749
88351SOL    HW166892   6.778   3.082   0.724
88351SOL    HW266893   6.657   2.994   0.701
88352SOL     OW66894  11.815  12.735   5.702
88352SOL    HW166895  11.781  12.768   5.619
88352SOL    HW266896  11.738  12.710   5.752
88353SOL     OW66897   9.177   8.442  14.555
88353SOL    HW166898   9.082   8.447  14.569
88353SOL    HW266899   9.190   8.360  14.508
88354SOL     OW66900   5.694   9.464  12.375
88354SOL    HW166901   5.658   9.502  12.295
88354SOL    HW266902   5.774   9.420  12.346
88355SOL     OW66903   4.196  14.498   1.396
88355SOL    HW166904   4.153  14.431   1.449
88355SOL    HW266905   4.139  14.574   1.402
88356SOL     OW66906   4.342   9.221   7.885
88356SOL    HW166907   4.252   9.198   7.906
88356SOL    HW266908   4.337   9.309   7.848
88357SOL     OW66909   7.312   4.549  11.807
88357SOL    HW166910   7.272   4.598  11.735
88357SOL    HW266911   7.258   4.569  11.883
88358SOL     OW66912   5.258  12.645   7.299
88358SOL    HW166913   5.287  12.639   7.390
88358SOL    HW266914   5.200  12.570   7.286
88359SOL     OW66915   9.147   0.126   5.394
88359SOL    HW166916   9.144   0.120   5.298
88359SOL    HW266917   9.125   0.217   5.412
88360SOL     OW66918   5.693   5.505  12.183
88360SOL    HW166919   5.687   5.473  12.093
88360SOL    HW266920   5.604   5.533  12.205
88361SOL     OW66921   2.356   4.273  13.939
88361SOL    HW166922   2.363   4.255  14.033
88361SOL    HW266923   2.442   4.308  13.915
88362SOL     OW66924   6.069  10.453   6.402
88362SOL    HW166925   6.162  10.436   6.418
88362SOL    HW266926   6.034  10.368   6.374
88363SOL     OW66927  13.506   6.169   7.466
88363SOL    HW166928  13.493   6.113   7.389
88363SOL    HW266929  13.418   6.187   7.498
88364SOL     OW66930   0.574   0.460   3.936
88364SOL    HW166931   0.662   0.490   3.914
88364SOL    HW266932   0.565   0.479   4.029
88365SOL     OW66933   6.426   4.425  12.300
88365SOL    HW166934   6.386   4.512  12.301
88365SOL    HW266935   6.392   4.382  12.378
88366SOL     OW66936  13.298   8.532   8.295
88366SOL    HW166937  13.327   8.592   8.227
88366SOL    HW266938  13.249   8.586   8.357
88367SOL     OW66939  10.487  12.938  11.546
88367SOL    HW166940  10.459  13.014  11.596
88367SOL    HW266941  10.551  12.972  11.483
88368SOL     OW66942  14.025   9.617   4.347
88368SOL    HW166943  13.992   9.587   4.262
88368SOL    HW266944  13.998   9.549   4.409
88369SOL     OW66945   6.819   9.438   8.251
88369SOL    HW166946   6.739   9.478   8.215
88369SOL    HW266947   6.858   9.507   8.305
88370SOL     OW66948   7.247  13.861  12.300
88370SOL    HW166949   7.264  13.781  12.251
88370SOL    HW266950   7.166  13.896  12.262
88371SOL     OW66951   1.802  13.320   9.013
88371SOL    HW166952   1.719  13.366   9.027
88371SOL    HW266953   1.791  13.273   8.930
88372SOL     OW66954   2.144   5.460   5.579
88372SOL    HW166955   2.097   5.536   5.613
88372SOL    HW266956   2.225   5.495   5.543
88373SOL     OW66957   1.781   1.062   3.131
88373SOL    HW166958   1.864   1.074   3.176
88373SOL    HW266959   1.806   1.037   3.042
88374SOL     OW66960   9.943   5.844   8.504
88374SOL    HW166961   9.929   5.898   8.582
88374SOL    HW266962   9.855   5.816   8.479
88375SOL     OW66963  14.852   8.448   6.030
88375SOL    HW166964  14.764   8.483   6.044
88375SOL    HW266965   0.008   8.494   5.953
88376SOL     OW66966   1.113  11.414   7.535
88376SOL    HW166967   1.165  11.358   7.593
88376SOL    HW266968   1.040  11.359   7.508
88377SOL     OW66969   7.929   3.480  13.098
88377SOL    HW166970   7.842   3.505  13.129
88377SOL    HW266971   7.922   3.387  13.076
88378SOL     OW66972   5.998  12.907   3.818
88378SOL    HW166973   6.032  12.818   3.827
88378SOL    HW266974   5.916  12.895   3.770
88379SOL     OW66975   8.572   9.142   6.145
88379SOL    HW166976   8.485   9.111   6.169
88379SOL    HW266977   8.617   9.155   6.229
88380SOL     OW66978   0.602   2.908   3.441
88380SOL    HW166979   0.590   2.923   3.347
88380SOL    HW266980   0.513   2.899   3.475
88381SOL     OW66981  12.577  11.240  12.651
88381SOL    HW166982  12.597  11.222  12.743
88381SOL    HW266983  12.652  11.290  12.619
88382SOL     OW66984   7.493   8.896   2.450
88382SOL    HW166985   7.398   8.902   2.434
88382SOL    HW266986   7.525   8.985   2.434
88383SOL     OW66987  10.084   2.335  10.843
88383SOL    HW166988  10.009   2.311  10.897
88383SOL    HW266989  10.134   2.254  10.833
88384SOL     OW66990  10.511   7.553  13.139
88384SOL    HW166991  10.477   7.643  13.144
88384SOL    HW266992  10.548   7.547  13.051
88385SOL     OW66993   2.428   3.947  10.130
88385SOL    HW166994   2.514   3.984  10.112
88385SOL    HW266995   2.370   4.022  10.138
88386SOL     OW66996   4.024   1.060  13.926
88386SOL    HW166997   4.006   1.082  13.835
88386SOL    HW266998   4.025   1.144  13.972
88387SOL     OW66999   3.244   1.357   0.800
88387SOL    HW167000   3.237   1.279   0.745
88387SOL    HW267001   3.165   1.407   0.782
88388SOL     OW67002   3.082   0.241   0.938
88388SOL    HW167003   2.986   0.247   0.933
88388SOL    HW267004   3.100   0.147   0.938
88389SOL     OW67005  13.795   2.429   5.431
88389SOL    HW167006  13.830   2.353   5.477
88389SOL    HW267007  13.703   2.432   5.458
88390SOL     OW67008   0.533   3.470   8.093
88390SOL    HW167009   0.441   3.473   8.118
88390SOL    HW267010   0.565   3.386   8.128
88391SOL     OW67011   5.355   3.012   5.373
88391SOL    HW167012   5.448   3.022   5.396
88391SOL    HW267013   5.356   2.957   5.295
88392SOL     OW67014  13.908   9.122   1.190
88392SOL    HW167015  13.985   9.135   1.244
88392SOL    HW267016  13.930   9.163   1.106
88393SOL     OW67017   6.763  12.251  14.152
88393SOL    HW167018   6.737  12.231  14.241
88393SOL    HW267019   6.680  12.254  14.103
88394SOL     OW67020   1.374   8.000   8.555
88394SOL    HW167021   1.380   8.095   8.551
88394SOL    HW267022   1.323   7.976   8.477
88395SOL     OW67023   1.540   7.431  12.038
88395SOL    HW167024   1.518   7.442  12.131
88395SOL    HW267025   1.477   7.367  12.006
88396SOL     OW67026   6.096  11.155   9.386
88396SOL    HW167027   6.139  11.070   9.391
88396SOL    HW267028   6.073  11.175   9.477
88397SOL     OW67029   9.504  14.281  14.616
88397SOL    HW167030   9.442  14.353  14.605
88397SOL    HW267031   9.510  14.241  14.529
88398SOL     OW67032  12.451  11.844   0.672
88398SOL    HW167033  12.386  11.796   0.724
88398SOL    HW267034  12.399  11.891   0.607
88399SOL     OW67035   6.411   5.559   7.747
88399SOL    HW167036   6.351   5.579   7.675
88399SOL    HW267037   6.496   5.545   7.704
88400SOL     OW67038   5.131   5.470   1.681
88400SOL    HW167039   5.092   5.388   1.713
88400SOL    HW267040   5.074   5.497   1.609
88401SOL     OW67041  12.868   3.344   9.833
88401SOL    HW167042  12.825   3.399   9.767
88401SOL    HW267043  12.803   3.276   9.853
88402SOL     OW67044   5.543   2.804  13.781
88402SOL    HW167045   5.571   2.833  13.868
88402SOL    HW267046   5.460   2.759  13.796
88403SOL     OW67047  13.560  10.108   8.685
88403SOL    HW167048  13.547  10.024   8.727
88403SOL    HW267049  13.566  10.171   8.757
88404SOL     OW67050   5.373   1.919  14.408
88404SOL    HW167051   5.348   2.010  14.425
88404SOL    HW267052   5.305   1.886  14.350
88405SOL     OW67053   4.525   8.995  10.393
88405SOL    HW167054   4.506   8.967  10.482
88405SOL    HW267055   4.540   9.089  10.400
88406SOL     OW67056  11.131  14.820   1.493
88406SOL    HW167057  11.076  14.747   1.463
88406SOL    HW267058  11.093  14.844   1.578
88407SOL     OW67059   9.401   9.063  14.007
88407SOL    HW167060   9.410   8.978  13.965
88407SOL    HW267061   9.450   9.123  13.950
88408SOL     OW67062   7.213   5.662   5.810
88408SOL    HW167063   7.261   5.688   5.889
88408SOL    HW267064   7.125   5.640   5.841
88409SOL     OW67065  12.262   4.132   9.458
88409SOL    HW167066  12.174   4.102   9.436
88409SOL    HW267067  12.319   4.086   9.397
88410SOL     OW67068   7.019   1.305   9.939
88410SOL    HW167069   6.984   1.378   9.886
88410SOL    HW267070   6.967   1.229   9.912
88411SOL     OW67071   4.065   3.893   3.905
88411SOL    HW167072   4.144   3.849   3.873
88411SOL    HW267073   4.058   3.971   3.852
88412SOL     OW67074   0.517   4.669  12.267
88412SOL    HW167075   0.511   4.655  12.362
88412SOL    HW267076   0.489   4.760  12.254
88413SOL     OW67077   2.676   5.571  14.488
88413SOL    HW167078   2.633   5.573  14.403
88413SOL    HW267079   2.608   5.541  14.549
88414SOL     OW67080   3.484   1.844   4.681
88414SOL    HW167081   3.573   1.863   4.708
88414SOL    HW267082   3.477   1.748   4.687
88415SOL     OW67083   5.022  10.775  12.964
88415SOL    HW167084   5.015  10.688  12.925
88415SOL    HW267085   5.111  10.804  12.943
88416SOL     OW67086   7.753   6.052   7.763
88416SOL    HW167087   7.805   6.089   7.692
88416SOL    HW267088   7.662   6.069   7.738
88417SOL     OW67089  11.124  14.703   3.922
88417SOL    HW167090  11.131  14.636   3.854
88417SOL    HW267091  11.215  14.722   3.946
88418SOL     OW67092   1.833  14.169   6.836
88418SOL    HW167093   1.891  14.232   6.794
88418SOL    HW267094   1.804  14.212   6.916
88419SOL     OW67095   5.595   7.916  13.462
88419SOL    HW167096   5.624   7.951  13.547
88419SOL    HW267097   5.527   7.977  13.434
88420SOL     OW67098   5.021   4.363   2.422
88420SOL    HW167099   5.008   4.372   2.517
88420SOL    HW267100   5.088   4.295   2.414
88421SOL     OW67101   3.708   3.835   6.932
88421SOL    HW167102   3.689   3.756   6.981
88421SOL    HW267103   3.622   3.867   6.904
88422SOL     OW67104  11.677  14.343   1.685
88422SOL    HW167105  11.655  14.407   1.617
88422SOL    HW267106  11.596  14.294   1.698
88423SOL     OW67107  12.578  14.133   2.921
88423SOL    HW167108  12.633  14.098   2.851
88423SOL    HW267109  12.488  14.123   2.888
88424SOL     OW67110   2.488  10.841   5.757
88424SOL    HW167111   2.455  10.919   5.714
88424SOL    HW267112   2.582  10.841   5.739
88425SOL     OW67113   7.165  14.139   3.680
88425SOL    HW167114   7.218  14.060   3.687
88425SOL    HW267115   7.137  14.140   3.588
88426SOL     OW67116   4.577  14.450   8.710
88426SOL    HW167117   4.618  14.496   8.637
88426SOL    HW267118   4.626  14.369   8.719
88427SOL     OW67119  10.628  10.811  14.376
88427SOL    HW167120  10.660  10.739  14.431
88427SOL    HW267121  10.550  10.843  14.421
88428SOL     OW67122  13.013   2.119   6.881
88428SOL    HW167123  12.988   2.137   6.971
88428SOL    HW267124  13.029   2.025   6.879
88429SOL     OW67125   8.318  12.455   0.540
88429SOL    HW167126   8.368  12.375   0.527
88429SOL    HW267127   8.384  12.522   0.561
88430SOL     OW67128   1.822   1.470  13.220
88430SOL    HW167129   1.859   1.445  13.135
88430SOL    HW267130   1.865   1.553  13.240
88431SOL     OW67131   5.541   6.070   9.568
88431SOL    HW167132   5.574   6.081   9.479
88431SOL    HW267133   5.559   6.153   9.611
88432SOL     OW67134   8.235  12.804  10.114
88432SOL    HW167135   8.207  12.731  10.058
88432SOL    HW267136   8.161  12.864  10.115
88433SOL     OW67137   7.363   5.809  14.649
88433SOL    HW167138   7.352   5.740  14.584
88433SOL    HW267139   7.453   5.839  14.637
88434SOL     OW67140  11.288   6.767   2.048
88434SOL    HW167141  11.314   6.722   2.128
88434SOL    HW267142  11.356   6.833   2.033
88435SOL     OW67143   8.054   2.861  13.031
88435SOL    HW167144   8.032   2.770  13.048
88435SOL    HW267145   7.970   2.905  13.021
88436SOL     OW67146  10.211  12.527   8.098
88436SOL    HW167147  10.127  12.491   8.068
88436SOL    HW267148  10.274  12.458   8.078
88437SOL     OW67149  14.197   2.926  11.220
88437SOL    HW167150  14.127   2.961  11.276
88437SOL    HW267151  14.182   2.831  11.219
88438SOL     OW67152  11.657  13.760   7.475
88438SOL    HW167153  11.622  13.848   7.489
88438SOL    HW267154  11.584  13.702   7.493
88439SOL     OW67155  11.579  10.029  12.240
88439SOL    HW167156  11.660  10.028  12.292
88439SOL    HW267157  11.541  10.115  12.256
88440SOL     OW67158   3.133   4.068   6.710
88440SOL    HW167159   3.105   4.140   6.654
88440SOL    HW267160   3.186   4.012   6.652
88441SOL     OW67161   3.671  12.837   8.874
88441SOL    HW167162   3.721  12.781   8.815
88441SOL    HW267163   3.736  12.873   8.934
88442SOL     OW67164   2.737   6.312  11.609
88442SOL    HW167165   2.730   6.257  11.530
88442SOL    HW267166   2.773   6.395  11.578
88443SOL     OW67167  13.821   5.325   4.110
88443SOL    HW167168  13.899   5.369   4.077
88443SOL    HW267169  13.749   5.382   4.084
88444SOL     OW67170  10.280   7.277   2.932
88444SOL    HW167171  10.297   7.206   2.994
88444SOL    HW267172  10.236   7.235   2.858
88445SOL     OW67173   1.246  10.312   5.031
88445SOL    HW167174   1.206  10.256   4.965
88445SOL    HW267175   1.259  10.255   5.107
88446SOL     OW67176  11.410  11.205  14.437
88446SOL    HW167177  11.357  11.261  14.379
88446SOL    HW267178  11.416  11.122  14.389
88447SOL     OW67179   6.106   1.135   1.394
88447SOL    HW167180   6.060   1.121   1.311
88447SOL    HW267181   6.198   1.146   1.369
88448SOL     OW67182   3.662  14.748   3.721
88448SOL    HW167183   3.747  14.788   3.704
88448SOL    HW267184   3.652  14.753   3.816
88449SOL     OW67185   2.673  12.071   8.249
88449SOL    HW167186   2.643  12.124   8.176
88449SOL    HW267187   2.717  12.133   8.307
88450SOL     OW67188   7.658  11.418   9.602
88450SOL    HW167189   7.673  11.493   9.545
88450SOL    HW267190   7.713  11.348   9.567
88451SOL     OW67191   9.642   1.995   5.978
88451SOL    HW167192   9.696   1.971   5.903
88451SOL    HW267193   9.552   1.974   5.951
88452SOL     OW67194   7.422  12.126   2.825
88452SOL    HW167195   7.387  12.208   2.790
88452SOL    HW267196   7.506  12.151   2.864
88453SOL     OW67197   2.355  11.851   4.310
88453SOL    HW167198   2.381  11.926   4.364
88453SOL    HW267199   2.262  11.866   4.292
88454SOL     OW67200  12.179   5.296   8.658
88454SOL    HW167201  12.226   5.289   8.575
88454SOL    HW267202  12.106   5.234   8.650
88455SOL     OW67203  10.611   8.137   4.320
88455SOL    HW167204  10.613   8.130   4.225
88455SOL    HW267205  10.528   8.182   4.339
88456SOL     OW67206   6.543   8.780   7.236
88456SOL    HW167207   6.635   8.797   7.214
88456SOL    HW267208   6.538   8.684   7.241
88457SOL     OW67209   0.086   5.663   8.956
88457SOL    HW167210   0.165   5.612   8.941
88457SOL    HW267211   0.113   5.736   9.010
88458SOL     OW67212   5.370   3.046  11.845
88458SOL    HW167213   5.378   2.977  11.779
88458SOL    HW267214   5.406   3.007  11.925
88459SOL     OW67215   5.997   2.162  14.737
88459SOL    HW167216   6.021   2.070  14.749
88459SOL    HW267217   6.071   2.211  14.773
88460SOL     OW67218   9.605   7.753  11.701
88460SOL    HW167219   9.638   7.664  11.692
88460SOL    HW267220   9.557   7.769  11.620
88461SOL     OW67221   5.511  11.154   4.017
88461SOL    HW167222   5.498  11.060   4.005
88461SOL    HW267223   5.440  11.194   3.967
88462SOL     OW67224   4.168   7.109   9.804
88462SOL    HW167225   4.161   7.024   9.761
88462SOL    HW267226   4.151   7.090   9.897
88463SOL     OW67227  14.284   6.751  11.204
88463SOL    HW167228  14.290   6.801  11.122
88463SOL    HW267229  14.358   6.690  11.200
88464SOL     OW67230   7.808   9.815  10.432
88464SOL    HW167231   7.797   9.802  10.526
88464SOL    HW267232   7.860   9.739  10.403
88465SOL     OW67233   5.914   4.429  10.552
88465SOL    HW167234   5.874   4.489  10.488
88465SOL    HW267235   6.008   4.439  10.538
88466SOL     OW67236   6.071  13.897   3.519
88466SOL    HW167237   6.147  13.858   3.475
88466SOL    HW267238   6.025  13.822   3.557
88467SOL     OW67239  13.561   3.664  12.075
88467SOL    HW167240  13.654   3.650  12.095
88467SOL    HW267241  13.548   3.619  11.992
88468SOL     OW67242  12.626   4.514  10.970
88468SOL    HW167243  12.622   4.605  10.940
88468SOL    HW267244  12.717   4.489  10.957
88469SOL     OW67245  13.590  11.156   3.838
88469SOL    HW167246  13.634  11.088   3.889
88469SOL    HW267247  13.647  11.232   3.845
88470SOL     OW67248   2.798   6.092   5.272
88470SOL    HW167249   2.714   6.137   5.284
88470SOL    HW267250   2.837   6.090   5.359
88471SOL     OW67251  13.257   2.281  12.131
88471SOL    HW167252  13.206   2.360  12.115
88471SOL    HW267253  13.323   2.282  12.061
88472SOL     OW67254   6.637  14.228   1.618
88472SOL    HW167255   6.638  14.132   1.618
88472SOL    HW267256   6.661  14.252   1.528
88473SOL     OW67257   6.298  14.557  14.684
88473SOL    HW167258   6.206  14.581  14.670
88473SOL    HW267259   6.312  14.573  14.778
88474SOL     OW67260   4.122   6.896   4.017
88474SOL    HW167261   4.216   6.894   4.035
88474SOL    HW267262   4.103   6.809   3.980
88475SOL     OW67263  12.380   6.341   8.038
88475SOL    HW167264  12.410   6.426   8.005
88475SOL    HW267265  12.294   6.330   7.997
88476SOL     OW67266   9.846   5.343   7.661
88476SOL    HW167267   9.832   5.436   7.677
88476SOL    HW267268   9.817   5.300   7.741
88477SOL     OW67269   8.593  13.911   1.223
88477SOL    HW167270   8.661  13.867   1.172
88477SOL    HW267271   8.523  13.846   1.230
88478SOL     OW67272   4.489  14.188   5.939
88478SOL    HW167273   4.540  14.240   6.001
88478SOL    HW267274   4.554  14.137   5.890
88479SOL     OW67275   6.443   4.096   5.220
88479SOL    HW167276   6.455   4.072   5.128
88479SOL    HW267277   6.525   4.072   5.263
88480SOL     OW67278  14.210  12.498   9.411
88480SOL    HW167279  14.147  12.566   9.388
88480SOL    HW267280  14.296  12.537   9.395
88481SOL     OW67281   3.047   6.780   8.395
88481SOL    HW167282   3.008   6.761   8.309
88481SOL    HW267283   2.973   6.779   8.455
88482SOL     OW67284  14.022  12.895   8.185
88482SOL    HW167285  14.049  12.919   8.274
88482SOL    HW267286  14.075  12.951   8.129
88483SOL     OW67287   3.651  12.834   5.459
88483SOL    HW167288   3.661  12.746   5.422
88483SOL    HW267289   3.696  12.830   5.543
88484SOL     OW67290   8.450   4.952   3.747
88484SOL    HW167291   8.409   5.034   3.777
88484SOL    HW267292   8.385   4.885   3.766
88485SOL     OW67293   2.995  13.452   0.695
88485SOL    HW167294   3.066  13.456   0.631
88485SOL    HW267295   3.031  13.397   0.766
88486SOL     OW67296  12.239   1.356   7.529
88486SOL    HW167297  12.194   1.342   7.445
88486SOL    HW267298  12.169   1.379   7.590
88487SOL     OW67299  14.032  14.043   1.108
88487SOL    HW167300  14.066  14.093   1.033
88487SOL    HW267301  14.043  14.102   1.182
88488SOL     OW67302   1.075   4.878  10.117
88488SOL    HW167303   1.066   4.973  10.124
88488SOL    HW267304   0.985   4.846  10.113
88489SOL     OW67305   9.051   3.599  13.929
88489SOL    HW167306   9.038   3.546  13.850
88489SOL    HW267307   9.086   3.538  13.993
88490SOL     OW67308   8.398   9.196  13.336
88490SOL    HW167309   8.307   9.226  13.343
88490SOL    HW267310   8.403   9.120  13.393
88491SOL     OW67311  13.388  10.495  14.673
88491SOL    HW167312  13.375  10.417  14.619
88491SOL    HW267313  13.322  10.487  14.742
88492SOL     OW67314   4.299   9.498   4.273
88492SOL    HW167315   4.327   9.429   4.213
88492SOL    HW267316   4.347   9.576   4.245
88493SOL     OW67317   0.800  13.075   4.513
88493SOL    HW167318   0.763  13.164   4.511
88493SOL    HW267319   0.739  13.026   4.567
88494SOL     OW67320   4.251   7.964   7.499
88494SOL    HW167321   4.322   7.901   7.507
88494SOL    HW267322   4.285   8.044   7.538
88495SOL     OW67323   1.663   1.956   1.790
88495SOL    HW167324   1.681   1.969   1.883
88495SOL    HW267325   1.736   1.999   1.745
88496SOL     OW67326  10.178   7.967   3.431
88496SOL    HW167327  10.228   7.925   3.361
88496SOL    HW267328  10.199   7.916   3.510
88497SOL     OW67329   1.422   7.561  14.195
88497SOL    HW167330   1.354   7.494  14.197
88497SOL    HW267331   1.502   7.514  14.221
88498SOL     OW67332   0.497   5.270  14.711
88498SOL    HW167333   0.480   5.270  14.805
88498SOL    HW267334   0.498   5.177  14.687
88499SOL     OW67335   0.177   6.256   7.326
88499SOL    HW167336   0.264   6.223   7.303
88499SOL    HW267337   0.192   6.311   7.403
88500SOL     OW67338   2.903  11.727   7.406
88500SOL    HW167339   2.816  11.719   7.444
88500SOL    HW267340   2.913  11.820   7.386
88501SOL     OW67341  14.124   7.729   3.733
88501SOL    HW167342  14.095   7.686   3.653
88501SOL    HW267343  14.161   7.658   3.786
88502SOL     OW67344  14.514  10.532   7.573
88502SOL    HW167345  14.554  10.543   7.659
88502SOL    HW267346  14.471  10.446   7.578
88503SOL     OW67347   6.779   6.522   3.034
88503SOL    HW167348   6.822   6.607   3.045
88503SOL    HW267349   6.752   6.496   3.122
88504SOL     OW67350   5.949   5.994  11.454
88504SOL    HW167351   5.977   6.038  11.534
88504SOL    HW267352   5.860   5.966  11.472
88505SOL     OW67353   8.237   1.843  13.934
88505SOL    HW167354   8.146   1.871  13.946
88505SOL    HW267355   8.234   1.748  13.937
88506SOL     OW67356  13.511   4.366   7.635
88506SOL    HW167357  13.483   4.276   7.619
88506SOL    HW267358  13.443   4.420   7.596
88507SOL     OW67359   3.384  14.605   1.620
88507SOL    HW167360   3.348  14.576   1.537
88507SOL    HW267361   3.337  14.553   1.686
88508SOL     OW67362   1.694  12.633   9.449
88508SOL    HW167363   1.748  12.710   9.431
88508SOL    HW267364   1.749  12.558   9.426
88509SOL     OW67365   0.646   4.578  13.413
88509SOL    HW167366   0.706   4.539  13.349
88509SOL    HW267367   0.585   4.630  13.360
88510SOL     OW67368   4.232   0.369   3.027
88510SOL    HW167369   4.227   0.304   3.097
88510SOL    HW267370   4.222   0.318   2.946
88511SOL     OW67371   8.148   7.169  13.172
88511SOL    HW167372   8.124   7.223  13.248
88511SOL    HW267373   8.201   7.228  13.117
88512SOL     OW67374   4.199   6.405   8.901
88512SOL    HW167375   4.231   6.487   8.863
88512SOL    HW267376   4.144   6.433   8.975
88513SOL     OW67377  14.206   0.587   5.405
88513SOL    HW167378  14.192   0.555   5.495
88513SOL    HW267379  14.119   0.582   5.364
88514SOL     OW67380  10.287   6.568   6.699
88514SOL    HW167381  10.383   6.567   6.691
88514SOL    HW267382  10.256   6.597   6.613
88515SOL     OW67383   4.462   9.500   6.890
88515SOL    HW167384   4.476   9.523   6.982
88515SOL    HW267385   4.388   9.439   6.892
88516SOL     OW67386   2.639   8.071   6.946
88516SOL    HW167387   2.585   8.150   6.943
88516SOL    HW267388   2.623   8.029   6.862
88517SOL     OW67389   5.698   8.355   1.175
88517SOL    HW167390   5.603   8.351   1.163
88517SOL    HW267391   5.729   8.402   1.097
88518SOL     OW67392   0.102   0.504  10.082
88518SOL    HW167393   0.107   0.593  10.117
88518SOL    HW267394   0.172   0.457  10.128
88519SOL     OW67395  13.731   2.051   6.625
88519SOL    HW167396  13.820   2.024   6.649
88519SOL    HW267397  13.710   1.999   6.548
88520SOL     OW67398   8.057   7.098   8.626
88520SOL    HW167399   8.133   7.155   8.632
88520SOL    HW267400   7.985   7.156   8.600
88521SOL     OW67401   5.166   4.914   3.317
88521SOL    HW167402   5.159   4.834   3.368
88521SOL    HW267403   5.149   4.984   3.380
88522SOL     OW67404   0.748  14.821   3.790
88522SOL    HW167405   0.706  14.830   3.875
88522SOL    HW267406   0.780   0.032   3.769
88523SOL     OW67407   9.675   4.412  14.360
88523SOL    HW167408   9.755   4.465  14.354
88523SOL    HW267409   9.694   4.334  14.308
88524SOL     OW67410  11.347  10.262  12.871
88524SOL    HW167411  11.352  10.176  12.829
88524SOL    HW267412  11.352  10.325  12.799
88525SOL     OW67413  12.002  10.051  11.604
88525SOL    HW167414  11.941  10.018  11.670
88525SOL    HW267415  11.989   9.993  11.528
88526SOL     OW67416   4.462   1.831  12.086
88526SOL    HW167417   4.400   1.830  12.159
88526SOL    HW267418   4.481   1.924  12.072
88527SOL     OW67419  10.686   2.619   0.758
88527SOL    HW167420  10.673   2.714   0.749
88527SOL    HW267421  10.613   2.591   0.814
88528SOL     OW67422   2.314   3.616   1.356
88528SOL    HW167423   2.292   3.532   1.398
88528SOL    HW267424   2.409   3.621   1.363
88529SOL     OW67425   1.444   3.820   1.231
88529SOL    HW167426   1.455   3.912   1.208
88529SOL    HW267427   1.353   3.801   1.209
88530SOL     OW67428   3.483   5.562   2.547
88530SOL    HW167429   3.397   5.527   2.524
88530SOL    HW267430   3.512   5.507   2.620
88531SOL     OW67431  14.247  10.452  10.686
88531SOL    HW167432  14.180  10.488  10.627
88531SOL    HW267433  14.210  10.369  10.716
88532SOL     OW67434   5.115   1.026   0.894
88532SOL    HW167435   5.121   0.978   0.812
88532SOL    HW267436   5.124   1.118   0.869
88533SOL     OW67437  14.677  12.743   5.023
88533SOL    HW167438  14.589  12.721   5.053
88533SOL    HW267439  14.731  12.736   5.101
88534SOL     OW67440   4.618  14.592  14.327
88534SOL    HW167441   4.628  14.550  14.412
88534SOL    HW267442   4.642  14.683  14.342
88535SOL     OW67443  12.608   1.644   0.795
88535SOL    HW167444  12.586   1.573   0.734
88535SOL    HW267445  12.704   1.647   0.795
88536SOL     OW67446   5.230   2.435   0.196
88536SOL    HW167447   5.218   2.390   0.280
88536SOL    HW267448   5.240   2.364   0.132
88537SOL     OW67449   2.122  14.095  12.870
88537SOL    HW167450   2.061  14.036  12.913
88537SOL    HW267451   2.100  14.089  12.777
88538SOL     OW67452  14.125   8.558   8.613
88538SOL    HW167453  14.201   8.547   8.671
88538SOL    HW267454  14.162   8.578   8.528
88539SOL     OW67455  14.230   8.436  11.263
88539SOL    HW167456  14.246   8.358  11.210
88539SOL    HW267457  14.248   8.509  11.204
88540SOL     OW67458  12.671   0.556  14.817
88540SOL    HW167459  12.675   0.598  14.731
88540SOL    HW267460  12.617   0.614  14.870
88541SOL     OW67461   2.603   8.495   4.945
88541SOL    HW167462   2.625   8.586   4.925
88541SOL    HW267463   2.679   8.463   4.994
88542SOL     OW67464   4.860  13.529   6.190
88542SOL    HW167465   4.785  13.489   6.233
88542SOL    HW267466   4.835  13.621   6.178
88543SOL     OW67467  14.021  14.447   1.770
88543SOL    HW167468  14.087  14.507   1.736
88543SOL    HW267469  13.953  14.503   1.806
88544SOL     OW67470  13.983   8.087   9.702
88544SOL    HW167471  13.958   8.098   9.610
88544SOL    HW267472  13.907   8.118   9.751
88545SOL     OW67473   4.771   3.269   6.587
88545SOL    HW167474   4.814   3.289   6.669
88545SOL    HW267475   4.737   3.180   6.599
88546SOL     OW67476  11.213  13.984   8.523
88546SOL    HW167477  11.208  13.895   8.558
88546SOL    HW267478  11.158  14.036   8.581
88547SOL     OW67479   6.109  10.752  13.229
88547SOL    HW167480   6.160  10.684  13.272
88547SOL    HW267481   6.019  10.737  13.259
88548SOL     OW67482  12.075   7.695   0.476
88548SOL    HW167483  12.081   7.765   0.410
88548SOL    HW267484  12.080   7.614   0.425
88549SOL     OW67485  14.730  12.635  13.789
88549SOL    HW167486  14.678  12.596  13.860
88549SOL    HW267487  14.675  12.704  13.753
88550SOL     OW67488   9.235   7.129   7.645
88550SOL    HW167489   9.293   7.086   7.583
88550SOL    HW267490   9.147   7.100   7.622
88551SOL     OW67491  13.056   0.392   2.131
88551SOL    HW167492  12.963   0.371   2.138
88551SOL    HW267493  13.100   0.308   2.123
88552SOL     OW67494   5.087   8.139   1.193
88552SOL    HW167495   5.038   8.166   1.270
88552SOL    HW267496   5.153   8.079   1.226
88553SOL     OW67497   1.082  10.948  14.527
88553SOL    HW167498   1.157  10.923  14.474
88553SOL    HW267499   1.015  10.882  14.508
88554SOL     OW67500   7.808   7.237  14.335
88554SOL    HW167501   7.799   7.287  14.254
88554SOL    HW267502   7.720   7.203  14.352
88555SOL     OW67503   4.488  13.367   7.877
88555SOL    HW167504   4.401  13.329   7.871
88555SOL    HW267505   4.534  13.334   7.799
88556SOL     OW67506  10.392   0.958   4.539
88556SOL    HW167507  10.341   1.035   4.565
88556SOL    HW267508  10.450   0.941   4.614
88557SOL     OW67509   8.144   5.150  13.810
88557SOL    HW167510   8.132   5.245  13.817
88557SOL    HW267511   8.077   5.123  13.747
88558SOL     OW67512  12.743   3.766   3.606
88558SOL    HW167513  12.821   3.716   3.582
88558SOL    HW267514  12.719   3.731   3.692
88559SOL     OW67515  11.083   0.510  14.857
88559SOL    HW167516  11.172   0.528  14.828
88559SOL    HW267517  11.033   0.588  14.832
88560SOL     OW67518   5.930   1.640  11.723
88560SOL    HW167519   5.857   1.602  11.772
88560SOL    HW267520   5.976   1.565  11.687
88561SOL     OW67521   6.340   5.277  13.759
88561SOL    HW167522   6.353   5.274  13.664
88561SOL    HW267523   6.287   5.201  13.779
88562SOL     OW67524   3.158   6.018   9.006
88562SOL    HW167525   3.166   6.098   9.058
88562SOL    HW267526   3.067   5.992   9.016
88563SOL     OW67527   7.207   9.810   0.713
88563SOL    HW167528   7.244   9.725   0.690
88563SOL    HW267529   7.260   9.839   0.788
88564SOL     OW67530   0.699   1.034   9.489
88564SOL    HW167531   0.618   0.986   9.470
88564SOL    HW267532   0.743   1.042   9.404
88565SOL     OW67533   4.848  13.360   8.171
88565SOL    HW167534   4.881  13.312   8.096
88565SOL    HW267535   4.926  13.393   8.216
88566SOL     OW67536   2.336   8.909   9.465
88566SOL    HW167537   2.334   8.813   9.466
88566SOL    HW267538   2.296   8.935   9.547
88567SOL     OW67539  13.922   8.200   2.898
88567SOL    HW167540  13.873   8.146   2.836
88567SOL    HW267541  13.872   8.193   2.980
88568SOL     OW67542   2.701  12.257   7.473
88568SOL    HW167543   2.787  12.298   7.472
88568SOL    HW267544   2.641  12.323   7.438
88569SOL     OW67545  13.371   0.569   8.381
88569SOL    HW167546  13.433   0.554   8.452
88569SOL    HW267547  13.386   0.659   8.354
88570SOL     OW67548   3.833   1.385   2.195
88570SOL    HW167549   3.924   1.355   2.190
88570SOL    HW267550   3.824   1.448   2.124
88571SOL     OW67551  11.493  11.178  11.542
88571SOL    HW167552  11.406  11.140  11.554
88571SOL    HW267553  11.487  11.266  11.579
88572SOL     OW67554   8.553  12.295   5.346
88572SOL    HW167555   8.620  12.320   5.282
88572SOL    HW267556   8.519  12.379   5.378
88573SOL     OW67557   1.052   9.891  14.749
88573SOL    HW167558   0.972   9.870  14.796
88573SOL    HW267559   1.115   9.826  14.779
88574SOL     OW67560   8.046   8.230  13.576
88574SOL    HW167561   8.029   8.248  13.669
88574SOL    HW267562   8.087   8.143  13.576
88575SOL     OW67563   6.637  14.596   4.844
88575SOL    HW167564   6.597  14.682   4.838
88575SOL    HW267565   6.588  14.542   4.782
88576SOL     OW67566  11.325   4.976   2.109
88576SOL    HW167567  11.333   4.909   2.177
88576SOL    HW267568  11.380   4.943   2.038
88577SOL     OW67569   6.232   2.831  10.960
88577SOL    HW167570   6.172   2.853  10.889
88577SOL    HW267571   6.312   2.880  10.939
88578SOL     OW67572   6.801   9.004   7.478
88578SOL    HW167573   6.807   8.977   7.386
88578SOL    HW267574   6.774   9.095   7.475
88579SOL     OW67575   2.496   1.295   2.606
88579SOL    HW167576   2.561   1.336   2.662
88579SOL    HW267577   2.481   1.358   2.535
88580SOL     OW67578  12.235   8.295   8.008
88580SOL    HW167579  12.219   8.204   7.983
88580SOL    HW267580  12.249   8.340   7.925
88581SOL     OW67581   3.488   9.538   9.445
88581SOL    HW167582   3.572   9.535   9.490
88581SOL    HW267583   3.441   9.460   9.475
88582SOL     OW67584   8.717   1.787   5.838
88582SOL    HW167585   8.768   1.773   5.918
88582SOL    HW267586   8.740   1.876   5.810
88583SOL     OW67587   4.815  12.842   9.406
88583SOL    HW167588   4.762  12.803   9.336
88583SOL    HW267589   4.764  12.918   9.435
88584SOL     OW67590   3.403   0.764   7.855
88584SOL    HW167591   3.319   0.783   7.813
88584SOL    HW267592   3.468   0.808   7.799
88585SOL     OW67593   5.209  13.861   6.535
88585SOL    HW167594   5.245  13.800   6.600
88585SOL    HW267595   5.209  13.811   6.454
88586SOL     OW67596   6.951   2.828  13.096
88586SOL    HW167597   7.039   2.860  13.074
88586SOL    HW267598   6.930   2.766  13.026
88587SOL     OW67599   6.525   8.995   8.354
88587SOL    HW167600   6.532   9.090   8.358
88587SOL    HW267601   6.469   8.972   8.428
88588SOL     OW67602   4.024   5.189  10.441
88588SOL    HW167603   3.963   5.145  10.381
88588SOL    HW267604   4.054   5.119  10.500
88589SOL     OW67605   7.359  13.158   3.275
88589SOL    HW167606   7.443  13.113   3.266
88589SOL    HW267607   7.335  13.184   3.186
88590SOL     OW67608   1.815   5.614  12.137
88590SOL    HW167609   1.886   5.557  12.167
88590SOL    HW267610   1.778   5.650  12.217
88591SOL     OW67611   6.257   1.681   5.657
88591SOL    HW167612   6.271   1.755   5.716
88591SOL    HW267613   6.254   1.605   5.715
88592SOL     OW67614  13.611   5.563   2.918
88592SOL    HW167615  13.693   5.530   2.881
88592SOL    HW267616  13.546   5.547   2.849
88593SOL     OW67617  10.747   3.613  12.510
88593SOL    HW167618  10.674   3.564  12.472
88593SOL    HW267619  10.795   3.647  12.434
88594SOL     OW67620  14.542   7.543  11.358
88594SOL    HW167621  14.473   7.604  11.333
88594SOL    HW267622  14.519   7.516  11.447
88595SOL     OW67623   4.735   4.841  13.801
88595SOL    HW167624   4.711   4.774  13.737
88595SOL    HW267625   4.813   4.806  13.844
88596SOL     OW67626   3.246  12.432   2.389
88596SOL    HW167627   3.290  12.388   2.461
88596SOL    HW267628   3.161  12.389   2.383
88597SOL     OW67629   6.347   0.772  11.536
88597SOL    HW167630   6.321   0.699  11.479
88597SOL    HW267631   6.274   0.833  11.530
88598SOL     OW67632   4.750   5.433  14.818
88598SOL    HW167633   4.838   5.445  14.782
88598SOL    HW267634   4.765   5.387   0.025
88599SOL     OW67635  10.314  14.456  11.573
88599SOL    HW167636  10.331  14.527  11.636
88599SOL    HW267637  10.377  14.471  11.503
88600SOL     OW67638  14.793   2.529  12.994
88600SOL    HW167639  14.826   2.595  12.933
88600SOL    HW267640  14.871   2.497  13.039
88601SOL     OW67641  14.151   1.840  10.891
88601SOL    HW167642  14.218   1.795  10.840
88601SOL    HW267643  14.100   1.889  10.827
88602SOL     OW67644   8.288  10.188   7.541
88602SOL    HW167645   8.283  10.214   7.449
88602SOL    HW267646   8.343  10.255   7.582
88603SOL     OW67647   1.321   0.363   7.497
88603SOL    HW167648   1.360   0.315   7.570
88603SOL    HW267649   1.390   0.422   7.468
88604SOL     OW67650   4.840   8.676   6.508
88604SOL    HW167651   4.925   8.679   6.552
88604SOL    HW267652   4.851   8.611   6.439
88605SOL     OW67653   4.584   4.124   5.175
88605SOL    HW167654   4.510   4.169   5.214
88605SOL    HW267655   4.553   4.035   5.159
88606SOL     OW67656  13.092   5.609   3.087
88606SOL    HW167657  13.163   5.667   3.112
88606SOL    HW267658  13.015   5.666   3.084
88607SOL     OW67659   3.670  14.659  11.970
88607SOL    HW167660   3.611  14.733  11.960
88607SOL    HW267661   3.619  14.583  11.943
88608SOL     OW67662   9.838  11.970   5.557
88608SOL    HW167663   9.801  11.928   5.479
88608SOL    HW267664   9.793  11.928   5.631
88609SOL     OW67665   0.596  11.674  10.766
88609SOL    HW167666   0.581  11.603  10.827
88609SOL    HW267667   0.691  11.686  10.765
88610SOL     OW67668   1.042  10.913  12.499
88610SOL    HW167669   1.000  10.986  12.543
88610SOL    HW267670   0.971  10.852  12.479
88611SOL     OW67671   8.398   7.531   8.360
88611SOL    HW167672   8.426   7.451   8.403
88611SOL    HW267673   8.438   7.601   8.410
88612SOL     OW67674   5.115   1.343  14.593
88612SOL    HW167675   5.168   1.423  14.593
88612SOL    HW267676   5.103   1.321  14.501
88613SOL     OW67677   6.089   5.470   2.800
88613SOL    HW167678   6.011   5.510   2.762
88613SOL    HW267679   6.131   5.541   2.849
88614SOL     OW67680   3.946   7.017   5.642
88614SOL    HW167681   3.857   7.052   5.640
88614SOL    HW267682   4.003   7.094   5.650
88615SOL     OW67683   7.740  10.878  14.606
88615SOL    HW167684   7.794  10.812  14.563
88615SOL    HW267685   7.655  10.836  14.617
88616SOL     OW67686   3.049  12.092  14.083
88616SOL    HW167687   2.973  12.046  14.047
88616SOL    HW267688   3.020  12.183  14.092
88617SOL     OW67689  14.363   2.686   3.451
88617SOL    HW167690  14.444   2.664   3.497
88617SOL    HW267691  14.388   2.754   3.388
88618SOL     OW67692   2.896   9.273   2.016
88618SOL    HW167693   2.837   9.225   2.075
88618SOL    HW267694   2.974   9.219   2.011
88619SOL     OW67695   3.992   0.345  10.008
88619SOL    HW167696   3.947   0.266  10.039
88619SOL    HW267697   3.947   0.417  10.052
88620SOL     OW67698   8.444   6.651   4.941
88620SOL    HW167699   8.387   6.667   5.016
88620SOL    HW267700   8.526   6.696   4.962
88621SOL     OW67701   0.710  11.576  10.052
88621SOL    HW167702   0.686  11.551  10.142
88621SOL    HW267703   0.792  11.528  10.036
88622SOL     OW67704   9.488   7.642   6.100
88622SOL    HW167705   9.549   7.709   6.070
88622SOL    HW267706   9.505   7.635   6.194
88623SOL     OW67707   5.226   5.217  11.505
88623SOL    HW167708   5.155   5.188  11.448
88623SOL    HW267709   5.301   5.163  11.478
88624SOL     OW67710   5.125   1.357  11.943
88624SOL    HW167711   5.194   1.317  11.997
88624SOL    HW267712   5.080   1.418  12.003
88625SOL     OW67713   3.013   3.371  10.468
88625SOL    HW167714   3.031   3.463  10.487
88625SOL    HW267715   2.956   3.374  10.391
88626SOL     OW67716   6.256   0.491   8.222
88626SOL    HW167717   6.344   0.499   8.260
88626SOL    HW267718   6.246   0.570   8.168
88627SOL     OW67719   9.926  10.233   3.550
88627SOL    HW167720  10.019  10.238   3.572
88627SOL    HW267721   9.882  10.229   3.634
88628SOL     OW67722  14.288   8.677   3.186
88628SOL    HW167723  14.335   8.651   3.265
88628SOL    HW267724  14.250   8.595   3.153
88629SOL     OW67725  10.116  13.975   1.599
88629SOL    HW167726  10.164  13.975   1.516
88629SOL    HW267727  10.024  13.975   1.574
88630SOL     OW67728   5.085  14.140  13.992
88630SOL    HW167729   5.039  14.153  13.909
88630SOL    HW267730   5.024  14.173  14.058
88631SOL     OW67731  14.649   0.916  12.042
88631SOL    HW167732  14.742   0.898  12.026
88631SOL    HW267733  14.650   0.998  12.092
88632SOL     OW67734  13.691   3.996   7.527
88632SOL    HW167735  13.710   4.058   7.457
88632SOL    HW267736  13.595   3.996   7.533
88633SOL     OW67737   2.606   8.505   2.358
88633SOL    HW167738   2.684   8.534   2.312
88633SOL    HW267739   2.596   8.413   2.333
88634SOL     OW67740   1.275   8.853   1.865
88634SOL    HW167741   1.298   8.919   1.800
88634SOL    HW267742   1.306   8.889   1.948
88635SOL     OW67743  13.947  10.024   6.940
88635SOL    HW167744  14.006   9.957   6.975
88635SOL    HW267745  13.970  10.103   6.989
88636SOL     OW67746   8.319   8.088   2.966
88636SOL    HW167747   8.274   8.016   2.921
88636SOL    HW267748   8.377   8.125   2.899
88637SOL     OW67749   9.054   1.293   6.431
88637SOL    HW167750   9.030   1.334   6.349
88637SOL    HW267751   9.139   1.332   6.453
88638SOL     OW67752   4.013   9.109   9.163
88638SOL    HW167753   4.007   9.025   9.117
88638SOL    HW267754   4.080   9.096   9.229
88639SOL     OW67755  13.966  14.445  11.412
88639SOL    HW167756  13.875  14.418  11.416
88639SOL    HW267757  13.964  14.539  11.431
88640SOL     OW67758   2.967  10.748  13.664
88640SOL    HW167759   2.968  10.654  13.683
88640SOL    HW267760   2.992  10.754  13.572
88641SOL     OW67761   8.560   6.269   1.694
88641SOL    HW167762   8.640   6.249   1.645
88641SOL    HW267763   8.490   6.228   1.644
88642SOL     OW67764   6.114  12.233   2.613
88642SOL    HW167765   6.019  12.239   2.624
88642SOL    HW267766   6.125  12.184   2.531
88643SOL     OW67767  11.330  12.083   8.190
88643SOL    HW167768  11.261  12.127   8.240
88643SOL    HW267769  11.327  12.124   8.104
88644SOL     OW67770  14.385   9.721  11.168
88644SOL    HW167771  14.424   9.727  11.081
88644SOL    HW267772  14.346   9.807  11.183
88645SOL     OW67773   3.526   9.018  11.895
88645SOL    HW167774   3.456   9.069  11.855
88645SOL    HW267775   3.516   8.930  11.859
88646SOL     OW67776  11.698   3.917   9.116
88646SOL    HW167777  11.635   3.923   9.045
88646SOL    HW267778  11.715   3.823   9.125
88647SOL     OW67779  13.484  10.624  11.255
88647SOL    HW167780  13.462  10.688  11.323
88647SOL    HW267781  13.579  10.619  11.258
88648SOL     OW67782  14.139  13.502   8.024
88648SOL    HW167783  14.157  13.595   8.033
88648SOL    HW267784  14.137  13.469   8.113
88649SOL     OW67785   0.650  10.285   5.897
88649SOL    HW167786   0.727  10.234   5.871
88649SOL    HW267787   0.642  10.271   5.991
88650SOL     OW67788   7.822  10.625   9.137
88650SOL    HW167789   7.857  10.575   9.211
88650SOL    HW267790   7.897  10.670   9.100
88651SOL     OW67791   2.924   0.225   8.525
88651SOL    HW167792   2.885   0.311   8.511
88651SOL    HW267793   2.874   0.166   8.469
88652SOL     OW67794  14.267   2.197   1.393
88652SOL    HW167795  14.201   2.129   1.380
88652SOL    HW267796  14.292   2.189   1.485
88653SOL     OW67797   2.163  12.494  14.415
88653SOL    HW167798   2.257  12.491  14.398
88653SOL    HW267799   2.129  12.414  14.375
88654SOL     OW67800   4.004   5.020   2.504
88654SOL    HW167801   4.062   4.944   2.510
88654SOL    HW267802   4.052   5.081   2.447
88655SOL     OW67803   6.484   9.363  14.784
88655SOL    HW167804   6.451   9.306  14.714
88655SOL    HW267805   6.412   9.368  14.846
88656SOL     OW67806   5.695   8.317   9.658
88656SOL    HW167807   5.765   8.372   9.622
88656SOL    HW267808   5.725   8.227   9.643
88657SOL     OW67809  11.640   3.125   7.282
88657SOL    HW167810  11.685   3.042   7.298
88657SOL    HW267811  11.586   3.108   7.205
88658SOL     OW67812   9.887   5.866   6.784
88658SOL    HW167813   9.926   5.801   6.725
88658SOL    HW267814   9.899   5.830   6.871
88659SOL     OW67815  14.498   2.335   4.426
88659SOL    HW167816  14.425   2.337   4.364
88659SOL    HW267817  14.457   2.311   4.510
88660SOL     OW67818   9.349   1.661  14.748
88660SOL    HW167819   9.254   1.674  14.755
88660SOL    HW267820   9.384   1.699  14.829
88661SOL     OW67821   5.120  13.724  11.935
88661SOL    HW167822   5.104  13.629  11.942
88661SOL    HW267823   5.201  13.731  11.885
88662SOL     OW67824  13.581   4.248   9.504
88662SOL    HW167825  13.664   4.221   9.464
88662SOL    HW267826  13.596   4.339   9.531
88663SOL     OW67827   2.570   6.527   3.930
88663SOL    HW167828   2.652   6.477   3.933
88663SOL    HW267829   2.563   6.566   4.018
88664SOL     OW67830  12.804   8.505  10.804
88664SOL    HW167831  12.770   8.548  10.725
88664SOL    HW267832  12.726   8.490  10.857
88665SOL     OW67833  10.068   3.789  13.625
88665SOL    HW167834  10.056   3.702  13.587
88665SOL    HW267835  10.081   3.847  13.549
88666SOL     OW67836   7.804   7.645  13.585
88666SOL    HW167837   7.855   7.629  13.505
88666SOL    HW267838   7.779   7.737  13.580
88667SOL     OW67839   5.875  14.066   5.997
88667SOL    HW167840   5.848  14.157   6.004
88667SOL    HW267841   5.968  14.071   5.974
88668SOL     OW67842   1.318   5.442   6.124
88668SOL    HW167843   1.349   5.402   6.205
88668SOL    HW267844   1.250   5.382   6.092
88669SOL     OW67845  11.575   4.888   8.270
88669SOL    HW167846  11.663   4.851   8.266
88669SOL    HW267847  11.586   4.970   8.318
88670SOL     OW67848   9.284   6.365   1.478
88670SOL    HW167849   9.213   6.418   1.442
88670SOL    HW267850   9.307   6.409   1.559
88671SOL     OW67851   6.671   1.434   1.825
88671SOL    HW167852   6.612   1.496   1.783
88671SOL    HW267853   6.739   1.417   1.760
88672SOL     OW67854   6.009   6.988  14.839
88672SOL    HW167855   6.040   6.987  14.749
88672SOL    HW267856   6.073   7.041   0.010
88673SOL     OW67857  13.658   7.592   3.793
88673SOL    HW167858  13.731   7.653   3.785
88673SOL    HW267859  13.627   7.580   3.704
88674SOL     OW67860   9.125   4.794   9.344
88674SOL    HW167861   9.137   4.720   9.284
88674SOL    HW267862   9.214   4.819   9.369
88675SOL     OW67863  14.239   8.244  10.814
88675SOL    HW167864  14.288   8.165  10.836
88675SOL    HW267865  14.280   8.313  10.866
88676SOL     OW67866  14.235   7.057   9.617
88676SOL    HW167867  14.168   6.999   9.581
88676SOL    HW267868  14.192   7.101   9.690
88677SOL     OW67869  11.210  12.966  12.303
88677SOL    HW167870  11.165  12.936  12.223
88677SOL    HW267871  11.149  13.027  12.343
88678SOL     OW67872   0.118   8.944  10.252
88678SOL    HW167873   0.066   8.943  10.171
88678SOL    HW267874   0.133   8.851  10.271
88679SOL     OW67875   0.314   6.382   6.736
88679SOL    HW167876   0.315   6.425   6.822
88679SOL    HW267877   0.274   6.446   6.678
88680SOL     OW67878   2.170   7.583   1.556
88680SOL    HW167879   2.209   7.498   1.575
88680SOL    HW267880   2.128   7.609   1.638
88681SOL     OW67881   2.303   1.542   7.409
88681SOL    HW167882   2.290   1.496   7.326
88681SOL    HW267883   2.322   1.633   7.383
88682SOL     OW67884   0.930   3.812   5.659
88682SOL    HW167885   0.918   3.875   5.588
88682SOL    HW267886   0.843   3.803   5.698
88683SOL     OW67887  13.261   0.765  11.051
88683SOL    HW167888  13.177   0.805  11.026
88683SOL    HW267889  13.285   0.711  10.975
88684SOL     OW67890  14.663  14.594   4.552
88684SOL    HW167891  14.583  14.620   4.506
88684SOL    HW267892  14.704  14.530   4.493
88685SOL     OW67893   7.673  11.854   0.583
88685SOL    HW167894   7.678  11.949   0.575
88685SOL    HW267895   7.618  11.827   0.509
88686SOL     OW67896  14.405  13.765   7.754
88686SOL    HW167897  14.493  13.795   7.732
88686SOL    HW267898  14.419  13.692   7.813
88687SOL     OW67899   8.214   0.260  12.645
88687SOL    HW167900   8.143   0.310  12.685
88687SOL    HW267901   8.189   0.169  12.656
88688SOL     OW67902   9.657  10.227   3.430
88688SOL    HW167903   9.743  10.226   3.472
88688SOL    HW267904   9.676  10.237   3.336
88689SOL     OW67905   2.488   8.738   1.832
88689SOL    HW167906   2.520   8.679   1.900
88689SOL    HW267907   2.461   8.817   1.878
88690SOL     OW67908   3.905   6.210   4.878
88690SOL    HW167909   3.813   6.211   4.906
88690SOL    HW267910   3.912   6.133   4.822
88691SOL     OW67911   8.865  11.570   4.376
88691SOL    HW167912   8.828  11.486   4.402
88691SOL    HW267913   8.935  11.547   4.315
88692SOL     OW67914  11.107  11.829   4.130
88692SOL    HW167915  11.129  11.891   4.200
88692SOL    HW267916  11.017  11.850   4.107
88693SOL     OW67917  12.282   5.209  13.144
88693SOL    HW167918  12.358   5.227  13.089
88693SOL    HW267919  12.239   5.135  13.101
88694SOL     OW67920   3.375   5.616   4.707
88694SOL    HW167921   3.325   5.543   4.671
88694SOL    HW267922   3.408   5.663   4.630
88695SOL     OW67923   7.686  12.492  11.185
88695SOL    HW167924   7.701  12.548  11.262
88695SOL    HW267925   7.601  12.452  11.202
88696SOL     OW67926   3.533  10.038   5.466
88696SOL    HW167927   3.506  10.054   5.376
88696SOL    HW267928   3.571   9.950   5.465
88697SOL     OW67929   0.916  12.676  11.231
88697SOL    HW167930   0.977  12.720  11.291
88697SOL    HW267931   0.970  12.652  11.155
88698SOL     OW67932  11.622   7.605  11.307
88698SOL    HW167933  11.601   7.608  11.400
88698SOL    HW267934  11.694   7.542  11.300
88699SOL     OW67935   5.851   2.591  10.660
88699SOL    HW167936   5.765   2.557  10.637
88699SOL    HW267937   5.850   2.682  10.633
88700SOL     OW67938   6.064   7.638  12.995
88700SOL    HW167939   6.123   7.622  13.070
88700SOL    HW267940   6.063   7.733  12.985
88701SOL     OW67941   4.588   0.211  13.920
88701SOL    HW167942   4.643   0.261  13.980
88701SOL    HW267943   4.571   0.270  13.847
88702SOL     OW67944   3.911   2.421  10.197
88702SOL    HW167945   3.987   2.421  10.254
88702SOL    HW267946   3.879   2.511  10.198
88703SOL     OW67947   8.028   9.296   8.198
88703SOL    HW167948   8.002   9.347   8.275
88703SOL    HW267949   7.945   9.266   8.160
88704SOL     OW67950   3.829   0.280  11.784
88704SOL    HW167951   3.839   0.374  11.771
88704SOL    HW267952   3.896   0.240  11.728
88705SOL     OW67953   6.101  12.448  11.225
88705SOL    HW167954   6.150  12.372  11.192
88705SOL    HW267955   6.168  12.507  11.259
88706SOL     OW67956  10.485  12.293   5.023
88706SOL    HW167957  10.560  12.352   5.015
88706SOL    HW267958  10.464  12.294   5.116
88707SOL     OW67959   6.245   5.070   2.433
88707SOL    HW167960   6.188   5.079   2.356
88707SOL    HW267961   6.195   5.111   2.504
88708SOL     OW67962  12.630  10.915   9.249
88708SOL    HW167963  12.544  10.943   9.280
88708SOL    HW267964  12.691  10.944   9.317
88709SOL     OW67965  12.430  13.658  14.812
88709SOL    HW167966  12.458  13.595   0.003
88709SOL    HW267967  12.339  13.678  14.834
88710SOL     OW67968   3.900  10.161   7.474
88710SOL    HW167969   3.846  10.082   7.465
88710SOL    HW267970   3.938  10.154   7.561
88711SOL     OW67971   4.791  10.996   5.522
88711SOL    HW167972   4.696  11.003   5.528
88711SOL    HW267973   4.806  10.944   5.443
88712SOL     OW67974   2.796   9.618   6.585
88712SOL    HW167975   2.774   9.706   6.615
88712SOL    HW267976   2.889   9.608   6.606
88713SOL     OW67977   5.616  13.334  10.610
88713SOL    HW167978   5.670  13.410  10.629
88713SOL    HW267979   5.630  13.316  10.517
88714SOL     OW67980   8.043   5.629   0.578
88714SOL    HW167981   8.113   5.615   0.515
88714SOL    HW267982   8.054   5.720   0.605
88715SOL     OW67983   5.292  13.712   9.083
88715SOL    HW167984   5.212  13.663   9.063
88715SOL    HW267985   5.356  13.680   9.019
88716SOL     OW67986   2.373   7.225   8.993
88716SOL    HW167987   2.418   7.165   9.052
88716SOL    HW267988   2.293   7.249   9.039
88717SOL     OW67989  10.506  13.884  13.843
88717SOL    HW167990  10.466  13.948  13.784
88717SOL    HW267991  10.531  13.935  13.920
88718SOL     OW67992   9.904   0.217  14.571
88718SOL    HW167993   9.816   0.255  14.575
88718SOL    HW267994   9.921   0.205  14.478
88719SOL     OW67995  12.203   1.413   8.503
88719SOL    HW167996  12.221   1.344   8.438
88719SOL    HW267997  12.199   1.493   8.451
88720SOL     OW67998   9.401   1.892   5.531
88720SOL    HW167999   9.313   1.860   5.550
88720SOL    HW268000   9.387   1.980   5.496
88721SOL     OW68001   8.557   7.616   5.794
88721SOL    HW168002   8.545   7.699   5.842
88721SOL    HW268003   8.597   7.558   5.858
88722SOL     OW68004   1.508  10.625   9.799
88722SOL    HW168005   1.502  10.567   9.875
88722SOL    HW268006   1.490  10.568   9.724
88723SOL     OW68007  12.302  12.792  13.570
88723SOL    HW168008  12.312  12.872  13.518
88723SOL    HW268009  12.390  12.774  13.603
88724SOL     OW68010   3.532  13.574  11.259
88724SOL    HW168011   3.604  13.515  11.278
88724SOL    HW268012   3.526  13.632  11.335
88725SOL     OW68013   2.605   1.618   3.725
88725SOL    HW168014   2.555   1.571   3.659
88725SOL    HW268015   2.557   1.606   3.806
88726SOL     OW68016   7.055   7.519  13.931
88726SOL    HW168017   7.113   7.444  13.914
88726SOL    HW268018   7.074   7.580  13.860
88727SOL     OW68019  12.521  14.464   6.519
88727SOL    HW168020  12.550  14.453   6.429
88727SOL    HW268021  12.437  14.510   6.512
88728SOL     OW68022   0.343   6.131   6.849
88728SOL    HW168023   0.299   6.066   6.794
88728SOL    HW268024   0.331   6.214   6.803
88729SOL     OW68025   9.328   3.245   7.403
88729SOL    HW168026   9.255   3.190   7.432
88729SOL    HW268027   9.288   3.329   7.380
88730SOL     OW68028   4.324   5.709  10.279
88730SOL    HW168029   4.302   5.617  10.263
88730SOL    HW268030   4.251   5.758  10.243
88731SOL     OW68031   2.689   0.030  10.204
88731SOL    HW168032   2.602   0.041  10.166
88731SOL    HW268033   2.699  14.812  10.215
88732SOL     OW68034   8.340   2.292  13.934
88732SOL    HW168035   8.332   2.206  13.892
88732SOL    HW268036   8.263   2.340  13.904
88733SOL     OW68037  12.049  12.336   9.094
88733SOL    HW168038  11.977  12.382   9.050
88733SOL    HW268039  12.030  12.347   9.187
88734SOL     OW68040   5.919   1.735   6.706
88734SOL    HW168041   5.935   1.656   6.758
88734SOL    HW268042   5.840   1.714   6.656
88735SOL     OW68043   9.250   6.615  11.846
88735SOL    HW168044   9.166   6.576  11.867
88735SOL    HW268045   9.265   6.679  11.916
88736SOL     OW68046   6.685   8.413   8.013
88736SOL    HW168047   6.697   8.362   8.093
88736SOL    HW268048   6.768   8.460   8.002
88737SOL     OW68049  14.672   8.227   8.472
88737SOL    HW168050  14.704   8.249   8.559
88737SOL    HW268051  14.751   8.206   8.421
88738SOL     OW68052   2.586   6.479  12.510
88738SOL    HW168053   2.643   6.553  12.488
88738SOL    HW268054   2.511   6.487  12.452
88739SOL     OW68055   7.007   7.226  12.760
88739SOL    HW168056   7.018   7.227  12.855
88739SOL    HW268057   7.019   7.318  12.734
88740SOL     OW68058  13.840  11.867   5.215
88740SOL    HW168059  13.814  11.957   5.193
88740SOL    HW268060  13.789  11.812   5.155
88741SOL     OW68061   5.639  10.471  11.844
88741SOL    HW168062   5.647  10.566  11.852
88741SOL    HW268063   5.580  10.457  11.770
88742SOL     OW68064   4.445   4.753   5.815
88742SOL    HW168065   4.353   4.776   5.798
88742SOL    HW268066   4.487   4.760   5.730
88743SOL     OW68067  11.747   2.946   1.826
88743SOL    HW168068  11.736   2.856   1.796
88743SOL    HW268069  11.705   2.948   1.911
88744SOL     OW68070  10.625   3.667  10.067
88744SOL    HW168071  10.609   3.610   9.992
88744SOL    HW268072  10.712   3.705  10.050
88745SOL     OW68073   5.364   8.204  14.802
88745SOL    HW168074   5.321   8.220  14.718
88745SOL    HW268075   5.420   8.280  14.816
88746SOL     OW68076   3.998   2.801   8.042
88746SOL    HW168077   3.937   2.743   7.997
88746SOL    HW268078   3.969   2.889   8.018
88747SOL     OW68079  13.525  13.834  13.948
88747SOL    HW168080  13.445  13.792  13.916
88747SOL    HW268081  13.576  13.762  13.986
88748SOL     OW68082   1.667   4.887   7.895
88748SOL    HW168083   1.676   4.965   7.839
88748SOL    HW268084   1.676   4.813   7.835
88749SOL     OW68085  13.227   1.586   4.044
88749SOL    HW168086  13.156   1.536   4.004
88749SOL    HW268087  13.189   1.673   4.060
88750SOL     OW68088   9.580   5.737  12.511
88750SOL    HW168089   9.560   5.705  12.424
88750SOL    HW268090   9.572   5.661  12.568
88751SOL     OW68091  10.617   6.218   4.920
88751SOL    HW168092  10.575   6.142   4.960
88751SOL    HW268093  10.554   6.248   4.854
88752SOL     OW68094   4.699   7.824   2.032
88752SOL    HW168095   4.771   7.771   2.066
88752SOL    HW268096   4.626   7.804   2.090
88753SOL     OW68097   7.945  13.332  12.343
88753SOL    HW168098   8.011  13.401  12.348
88753SOL    HW268099   7.981  13.268  12.283
88754SOL     OW68100  11.397   1.216   2.992
88754SOL    HW168101  11.479   1.182   2.958
88754SOL    HW268102  11.407   1.214   3.087
88755SOL     OW68103  14.211   1.417  11.299
88755SOL    HW168104  14.126   1.405  11.341
88755SOL    HW268105  14.265   1.346  11.332
88756SOL     OW68106  10.605   3.275  14.853
88756SOL    HW168107  10.639   3.239   0.058
88756SOL    HW268108  10.511   3.285  14.868
88757SOL     OW68109  14.272   5.163   3.050
88757SOL    HW168110  14.308   5.214   3.123
88757SOL    HW268111  14.336   5.094   3.035
88758SOL     OW68112   9.922   3.133   6.081
88758SOL    HW168113   9.959   3.118   6.168
88758SOL    HW268114   9.828   3.124   6.093
88759SOL     OW68115   5.606   7.673   9.500
88759SOL    HW168116   5.698   7.682   9.526
88759SOL    HW268117   5.589   7.579   9.504
88760SOL     OW68118   2.668   3.972   0.486
88760SOL    HW168119   2.725   3.896   0.473
88760SOL    HW268120   2.699   4.038   0.424
88761SOL     OW68121   7.784   4.314   6.013
88761SOL    HW168122   7.879   4.307   6.026
88761SOL    HW268123   7.762   4.400   6.047
88762SOL     OW68124   5.504  12.323   3.333
88762SOL    HW168125   5.528  12.305   3.424
88762SOL    HW268126   5.486  12.237   3.295
88763SOL     OW68127  14.578   1.331   7.521
88763SOL    HW168128  14.670   1.349   7.537
88763SOL    HW268129  14.536   1.417   7.518
88764SOL     OW68130  10.594   0.917   0.580
88764SOL    HW168131  10.655   0.950   0.514
88764SOL    HW268132  10.601   0.822   0.574
88765SOL     OW68133   1.466   6.735   7.376
88765SOL    HW168134   1.384   6.695   7.348
88765SOL    HW268135   1.492   6.686   7.454
88766SOL     OW68136  14.455  11.840   9.812
88766SOL    HW168137  14.377  11.867   9.764
88766SOL    HW268138  14.422  11.784   9.882
88767SOL     OW68139  10.791   8.916   0.829
88767SOL    HW168140  10.810   8.928   0.922
88767SOL    HW268141  10.696   8.904   0.825
88768SOL     OW68142   2.188   3.984   4.921
88768SOL    HW168143   2.260   3.955   4.865
88768SOL    HW268144   2.119   4.010   4.860
88769SOL     OW68145   6.404  10.807   2.970
88769SOL    HW168146   6.451  10.726   2.953
88769SOL    HW268147   6.312  10.784   2.962
88770SOL     OW68148  13.834   6.866  11.044
88770SOL    HW168149  13.791   6.879  10.959
88770SOL    HW268150  13.872   6.778  11.038
88771SOL     OW68151   5.655   0.405   7.643
88771SOL    HW168152   5.594   0.341   7.607
88771SOL    HW268153   5.727   0.353   7.678
88772SOL     OW68154  10.044   4.811   0.303
88772SOL    HW168155  10.135   4.814   0.333
88772SOL    HW268156  10.003   4.744   0.358
88773SOL     OW68157   8.426  14.253  13.789
88773SOL    HW168158   8.511  14.251  13.746
88773SOL    HW268159   8.405  14.162  13.807
88774SOL     OW68160   8.877   6.223   5.403
88774SOL    HW168161   8.846   6.233   5.313
88774SOL    HW268162   8.797   6.211   5.454
88775SOL     OW68163   1.007  13.208   4.381
88775SOL    HW168164   0.958  13.225   4.301
88775SOL    HW268165   0.940  13.190   4.447
88776SOL     OW68166   4.682  11.286   3.335
88776SOL    HW168167   4.733  11.242   3.404
88776SOL    HW268168   4.638  11.357   3.381
88777SOL     OW68169   8.632   7.243   5.848
88777SOL    HW168170   8.661   7.166   5.897
88777SOL    HW268171   8.604   7.306   5.915
88778SOL     OW68172   2.644  13.180   9.744
88778SOL    HW168173   2.704  13.243   9.783
88778SOL    HW268174   2.695  13.139   9.674
88779SOL     OW68175  10.965   2.840   3.549
88779SOL    HW168176  11.033   2.783   3.515
88779SOL    HW268177  10.891   2.828   3.490
88780SOL     OW68178   6.902   0.165   0.563
88780SOL    HW168179   6.883   0.258   0.565
88780SOL    HW268180   6.819   0.122   0.585
88781SOL     OW68181  13.879   9.931   6.086
88781SOL    HW168182  13.888   9.870   6.013
88781SOL    HW268183  13.968   9.960   6.103
88782SOL     OW68184   5.118   3.877  10.402
88782SOL    HW168185   5.194   3.905  10.352
88782SOL    HW268186   5.100   3.951  10.461
88783SOL     OW68187   9.353  13.893  14.672
88783SOL    HW168188   9.362  13.895  14.767
88783SOL    HW268189   9.336  13.984  14.648
88784SOL     OW68190   4.534   1.356   0.573
88784SOL    HW168191   4.492   1.278   0.535
88784SOL    HW268192   4.468   1.393   0.631
88785SOL     OW68193   8.568   0.774   1.358
88785SOL    HW168194   8.590   0.683   1.378
88785SOL    HW268195   8.485   0.789   1.403
88786SOL     OW68196   6.234   3.586   3.269
88786SOL    HW168197   6.192   3.665   3.302
88786SOL    HW268198   6.302   3.566   3.334
88787SOL     OW68199   5.425   4.272  11.564
88787SOL    HW168200   5.490   4.258  11.494
88787SOL    HW268201   5.478   4.293  11.641
88788SOL     OW68202   0.421  13.597   5.723
88788SOL    HW168203   0.496  13.641   5.684
88788SOL    HW268204   0.436  13.504   5.705
88789SOL     OW68205   2.254  13.189  10.934
88789SOL    HW168206   2.221  13.164  10.848
88789SOL    HW268207   2.348  13.171  10.930
88790SOL     OW68208   9.817   5.589  10.379
88790SOL    HW168209   9.863   5.612  10.299
88790SOL    HW268210   9.786   5.499  10.364
88791SOL     OW68211   9.610   9.322   0.651
88791SOL    HW168212   9.527   9.368   0.664
88791SOL    HW268213   9.632   9.339   0.559
88792SOL     OW68214   4.795   2.055  14.567
88792SOL    HW168215   4.881   2.033  14.604
88792SOL    HW268216   4.753   1.970  14.553
88793SOL     OW68217  10.041  11.492   1.873
88793SOL    HW168218   9.959  11.515   1.829
88793SOL    HW268219  10.017  11.484   1.966
88794SOL     OW68220   1.148   6.490   2.783
88794SOL    HW168221   1.233   6.508   2.821
88794SOL    HW268222   1.165   6.425   2.714
88795SOL     OW68223   9.724   8.974  14.013
88795SOL    HW168224   9.676   8.917  13.953
88795SOL    HW268225   9.657   9.004  14.076
88796SOL     OW68226  11.651   9.391   1.660
88796SOL    HW168227  11.742   9.377   1.685
88796SOL    HW268228  11.645   9.357   1.570
88797SOL     OW68229   5.726  12.448  13.868
88797SOL    HW168230   5.765  12.365  13.840
88797SOL    HW268231   5.643  12.423  13.908
88798SOL     OW68232   7.986  12.111   9.048
88798SOL    HW168233   8.066  12.059   9.053
88798SOL    HW268234   7.991  12.171   9.123
88799SOL     OW68235   3.112  14.612   5.845
88799SOL    HW168236   3.108  14.560   5.765
88799SOL    HW268237   3.162  14.558   5.906
88800SOL     OW68238   5.919  13.679   3.557
88800SOL    HW168239   5.832  13.713   3.535
88800SOL    HW268240   5.903  13.613   3.624
88801SOL     OW68241   1.785  14.351   7.832
88801SOL    HW168242   1.741  14.275   7.870
88801SOL    HW268243   1.878  14.330   7.835
88802SOL     OW68244  10.149   7.260   5.655
88802SOL    HW168245  10.143   7.264   5.559
88802SOL    HW268246  10.242   7.244   5.672
88803SOL     OW68247   3.060   2.672  12.607
88803SOL    HW168248   3.121   2.599  12.614
88803SOL    HW268249   3.010   2.669  12.689
88804SOL     OW68250  12.116   4.535  14.074
88804SOL    HW168251  12.201   4.513  14.035
88804SOL    HW268252  12.089   4.615  14.029
88805SOL     OW68253   6.517  10.973  11.788
88805SOL    HW168254   6.538  10.899  11.844
88805SOL    HW268255   6.460  10.936  11.720
88806SOL     OW68256  14.719  13.375   1.935
88806SOL    HW168257  14.656  13.388   2.006
88806SOL    HW268258  14.758  13.462   1.921
88807SOL     OW68259   8.836   0.286  12.852
88807SOL    HW168260   8.891   0.255  12.924
88807SOL    HW268261   8.898   0.318  12.787
88808SOL     OW68262   5.146   1.976   6.798
88808SOL    HW168263   5.165   2.061   6.759
88808SOL    HW268264   5.208   1.916   6.756
88809SOL     OW68265   9.437  11.298   7.444
88809SOL    HW168266   9.439  11.233   7.514
88809SOL    HW268267   9.357  11.349   7.460
88810SOL     OW68268   0.116  10.818   8.027
88810SOL    HW168269   0.096  10.911   8.018
88810SOL    HW268270   0.209  10.816   8.053
88811SOL     OW68271   3.223   5.409   4.598
88811SOL    HW168272   3.143   5.404   4.649
88811SOL    HW268273   3.207   5.351   4.523
88812SOL     OW68274  14.651   5.122   6.199
88812SOL    HW168275  14.600   5.183   6.147
88812SOL    HW268276  14.732   5.168   6.219
88813SOL     OW68277  12.739  13.135  13.539
88813SOL    HW168278  12.769  13.081  13.465
88813SOL    HW268279  12.716  13.071  13.607
88814SOL     OW68280   6.132   5.917   3.943
88814SOL    HW168281   6.172   5.923   3.856
88814SOL    HW268282   6.174   5.987   3.993
88815SOL     OW68283  10.595   0.276   9.405
88815SOL    HW168284  10.564   0.191   9.374
88815SOL    HW268285  10.631   0.259   9.492
88816SOL     OW68286   6.523   6.889  13.085
88816SOL    HW168287   6.613   6.919  13.074
88816SOL    HW268288   6.480   6.912  13.002
88817SOL     OW68289   1.185  14.102   4.373
88817SOL    HW168290   1.254  14.076   4.434
88817SOL    HW268291   1.228  14.101   4.287
88818SOL     OW68292   4.822   7.133   6.781
88818SOL    HW168293   4.810   7.136   6.876
88818SOL    HW268294   4.843   7.223   6.757
88819SOL     OW68295   1.925  14.291  13.546
88819SOL    HW168296   1.831  14.306  13.553
88819SOL    HW268297   1.964  14.376  13.566
88820SOL     OW68298   3.545  13.819   6.501
88820SOL    HW168299   3.557  13.809   6.596
88820SOL    HW268300   3.570  13.734   6.465
88821SOL     OW68301   4.808  13.949  13.340
88821SOL    HW168302   4.848  13.986  13.261
88821SOL    HW268303   4.719  13.927  13.314
88822SOL     OW68304  13.852  14.185   3.328
88822SOL    HW168305  13.918  14.253   3.336
88822SOL    HW268306  13.891  14.109   3.372
88823SOL     OW68307  12.852  14.830   0.662
88823SOL    HW168308  12.861   0.049   0.673
88823SOL    HW268309  12.806  14.820   0.579
88824SOL     OW68310   1.459  13.421   6.037
88824SOL    HW168311   1.500  13.445   5.954
88824SOL    HW268312   1.480  13.493   6.096
88825SOL     OW68313  14.418   7.484   2.775
88825SOL    HW168314  14.339   7.526   2.742
88825SOL    HW268315  14.484   7.501   2.709
88826SOL     OW68316   1.456   4.902   3.346
88826SOL    HW168317   1.510   4.873   3.421
88826SOL    HW268318   1.464   4.997   3.347
88827SOL     OW68319  10.284   4.494  13.775
88827SOL    HW168320  10.217   4.535  13.720
88827SOL    HW268321  10.366   4.504  13.725
88828SOL     OW68322   4.562  12.090  12.905
88828SOL    HW168323   4.521  12.018  12.856
88828SOL    HW268324   4.562  12.060  12.996
88829SOL     OW68325   4.297   9.977   1.680
88829SOL    HW168326   4.244   9.953   1.756
88829SOL    HW268327   4.373  10.022   1.717
88830SOL     OW68328   1.108   0.662   6.777
88830SOL    HW168329   1.122   0.653   6.683
88830SOL    HW268330   1.191   0.696   6.811
88831SOL     OW68331   7.432   1.792  12.252
88831SOL    HW168332   7.523   1.764  12.241
88831SOL    HW268333   7.384   1.712  12.274
88832SOL     OW68334   0.316  11.116  10.053
88832SOL    HW168335   0.348  11.196  10.093
88832SOL    HW268336   0.392  11.058  10.050
88833SOL     OW68337   4.872  13.621  11.572
88833SOL    HW168338   4.786  13.652  11.543
88833SOL    HW268339   4.930  13.696  11.561
88834SOL     OW68340   4.773  12.544   4.305
88834SOL    HW168341   4.759  12.497   4.388
88834SOL    HW268342   4.866  12.566   4.305
88835SOL     OW68343   5.137   7.461  10.263
88835SOL    HW168344   5.179   7.520  10.201
88835SOL    HW268345   5.090   7.399  10.208
88836SOL     OW68346   4.560   5.427   6.127
88836SOL    HW168347   4.610   5.381   6.060
88836SOL    HW268348   4.621   5.434   6.201
88837SOL     OW68349  12.088   3.496  13.906
88837SOL    HW168350  12.175   3.487  13.945
88837SOL    HW268351  12.034   3.537  13.974
88838SOL     OW68352  11.013   1.266   5.302
88838SOL    HW168353  11.106   1.242   5.309
88838SOL    HW268354  11.013   1.356   5.271
88839SOL     OW68355  14.248  12.409  12.006
88839SOL    HW168356  14.226  12.328  11.959
88839SOL    HW268357  14.237  12.388  12.098
88840SOL     OW68358   5.540   5.090   3.252
88840SOL    HW168359   5.482   5.161   3.225
88840SOL    HW268360   5.523   5.079   3.346
88841SOL     OW68361   5.203   0.900   9.583
88841SOL    HW168362   5.144   0.931   9.514
88841SOL    HW268363   5.145   0.863   9.650
88842SOL     OW68364   2.227   3.183  13.274
88842SOL    HW168365   2.194   3.200  13.362
88842SOL    HW268366   2.149   3.187  13.218
88843SOL     OW68367  11.256  10.275  13.202
88843SOL    HW168368  11.244  10.337  13.273
88843SOL    HW268369  11.271  10.191  13.245
88844SOL     OW68370   8.145   3.587   1.936
88844SOL    HW168371   8.188   3.501   1.943
88844SOL    HW268372   8.217   3.649   1.929
88845SOL     OW68373   5.499   6.453  12.398
88845SOL    HW168374   5.558   6.520  12.432
88845SOL    HW268375   5.418   6.464  12.446
88846SOL     OW68376  14.842   7.370  12.536
88846SOL    HW168377  14.788   7.323  12.600
88846SOL    HW268378   0.041   7.402  12.587
88847SOL     OW68379   9.442   9.253   3.224
88847SOL    HW168380   9.479   9.219   3.143
88847SOL    HW268381   9.435   9.177   3.282
88848SOL     OW68382   7.185  14.390  12.393
88848SOL    HW168383   7.171  14.316  12.452
88848SOL    HW268384   7.119  14.379  12.325
88849SOL     OW68385   1.430   6.419   0.302
88849SOL    HW168386   1.352   6.421   0.247
88849SOL    HW268387   1.448   6.326   0.316
88850SOL     OW68388   2.342   6.643   8.885
88850SOL    HW168389   2.330   6.732   8.851
88850SOL    HW268390   2.433   6.622   8.869
88851SOL     OW68391   7.726  10.683   8.846
88851SOL    HW168392   7.783  10.606   8.844
88851SOL    HW268393   7.786  10.757   8.835
88852SOL     OW68394   5.894  12.081   5.869
88852SOL    HW168395   5.938  12.104   5.951
88852SOL    HW268396   5.871  12.165   5.829
88853SOL     OW68397  14.289  14.299   3.602
88853SOL    HW168398  14.242  14.382   3.615
88853SOL    HW268399  14.348  14.293   3.677
88854SOL     OW68400   9.806   3.473   7.714
88854SOL    HW168401   9.845   3.447   7.630
88854SOL    HW268402   9.873   3.527   7.756
88855SOL     OW68403   7.101   6.088   8.698
88855SOL    HW168404   7.191   6.066   8.675
88855SOL    HW268405   7.092   6.062   8.790
88856SOL     OW68406   5.368   1.067  13.786
88856SOL    HW168407   5.383   0.973  13.778
88856SOL    HW268408   5.453   1.103  13.812
88857SOL     OW68409   6.005   4.629  14.277
88857SOL    HW168410   6.020   4.535  14.268
88857SOL    HW268411   6.040   4.651  14.363
88858SOL     OW68412   7.149   5.049   6.501
88858SOL    HW168413   7.218   5.043   6.435
88858SOL    HW268414   7.087   5.112   6.465
88859SOL     OW68415   7.436   9.383  10.803
88859SOL    HW168416   7.427   9.449  10.872
88859SOL    HW268417   7.393   9.306  10.839
88860SOL     OW68418   7.666   6.819   9.039
88860SOL    HW168419   7.672   6.743   8.981
88860SOL    HW268420   7.696   6.788   9.124
88861SOL     OW68421  12.887   3.953   8.019
88861SOL    HW168422  12.794   3.953   8.039
88861SOL    HW268423  12.913   4.045   8.026
88862SOL     OW68424   9.661  11.213   9.895
88862SOL    HW168425   9.641  11.240   9.805
88862SOL    HW268426   9.639  11.120   9.898
88863SOL     OW68427  13.113  10.707   2.629
88863SOL    HW168428  13.159  10.624   2.643
88863SOL    HW268429  13.181  10.774   2.636
88864SOL     OW68430   0.021  12.329   6.824
88864SOL    HW168431  14.865  12.411   6.862
88864SOL    HW268432  14.818  12.279   6.804
88865SOL     OW68433  14.096   8.990   5.927
88865SOL    HW168434  14.051   9.008   5.844
88865SOL    HW268435  14.078   9.067   5.980
88866SOL     OW68436  10.279  13.897  12.237
88866SOL    HW168437  10.323  13.980  12.222
88866SOL    HW268438  10.259  13.896  12.330
88867SOL     OW68439  12.138   9.739  14.694
88867SOL    HW168440  12.204   9.682  14.733
88867SOL    HW268441  12.078   9.679  14.650
88868SOL     OW68442   8.956  13.011   7.876
88868SOL    HW168443   9.021  12.941   7.884
88868SOL    HW268444   8.947  13.046   7.965
88869SOL     OW68445  11.630  11.245   9.861
88869SOL    HW168446  11.619  11.150   9.854
88869SOL    HW268447  11.715  11.257   9.903
88870SOL     OW68448   2.384   9.564   0.215
88870SOL    HW168449   2.323   9.580   0.143
88870SOL    HW268450   2.466   9.604   0.186
88871SOL     OW68451  12.362   0.846   3.836
88871SOL    HW168452  12.288   0.786   3.842
88871SOL    HW268453  12.437   0.794   3.867
88872SOL     OW68454   3.058   5.629   9.753
88872SOL    HW168455   3.056   5.540   9.789
88872SOL    HW268456   3.075   5.685   9.829
88873SOL     OW68457   8.169   7.298  10.472
88873SOL    HW168458   8.074   7.297  10.464
88873SOL    HW268459   8.201   7.305  10.382
88874SOL     OW68460   3.526   8.285   8.105
88874SOL    HW168461   3.572   8.202   8.094
88874SOL    HW268462   3.539   8.331   8.022
88875SOL     OW68463  11.744  13.834   7.138
88875SOL    HW168464  11.762  13.751   7.181
88875SOL    HW268465  11.785  13.826   7.051
88876SOL     OW68466   4.979   8.006  11.727
88876SOL    HW168467   5.049   7.941  11.728
88876SOL    HW268468   5.021   8.086  11.698
88877SOL     OW68469  14.261   5.394  10.948
88877SOL    HW168470  14.280   5.374  11.039
88877SOL    HW268471  14.344   5.379  10.902
88878SOL     OW68472   8.557  14.312   8.091
88878SOL    HW168473   8.541  14.368   8.016
88878SOL    HW268474   8.645  14.277   8.078
88879SOL     OW68475   9.299   0.912   0.512
88879SOL    HW168476   9.253   0.854   0.452
88879SOL    HW268477   9.266   0.888   0.599
88880SOL     OW68478   7.999  11.849   6.332
88880SOL    HW168479   7.961  11.798   6.260
88880SOL    HW268480   8.063  11.790   6.371
88881SOL     OW68481   4.852   8.801   6.099
88881SOL    HW168482   4.811   8.807   6.013
88881SOL    HW268483   4.925   8.740   6.087
88882SOL     OW68484   3.303   2.486   8.612
88882SOL    HW168485   3.326   2.437   8.691
88882SOL    HW268486   3.239   2.430   8.568
88883SOL     OW68487  11.436  12.484  13.431
88883SOL    HW168488  11.376  12.477  13.357
88883SOL    HW268489  11.381  12.474  13.508
88884SOL     OW68490   2.154  13.658  13.303
88884SOL    HW168491   2.169  13.692  13.215
88884SOL    HW268492   2.080  13.598  13.294
88885SOL     OW68493   3.552   9.299  12.079
88885SOL    HW168494   3.587   9.244  12.150
88885SOL    HW268495   3.594   9.266  12.000
88886SOL     OW68496  13.097  14.314   2.864
88886SOL    HW168497  13.093  14.240   2.925
88886SOL    HW268498  13.162  14.288   2.799
88887SOL     OW68499  14.726  10.998  13.648
88887SOL    HW168500  14.710  10.930  13.582
88887SOL    HW268501  14.819  11.020  13.638
88888SOL     OW68502   5.996   6.199   1.351
88888SOL    HW168503   6.086   6.232   1.344
88888SOL    HW268504   5.949   6.268   1.399
88889SOL     OW68505  10.333   1.612   5.110
88889SOL    HW168506  10.395   1.639   5.041
88889SOL    HW268507  10.381   1.545   5.159
88890SOL     OW68508   7.849   6.021   5.293
88890SOL    HW168509   7.872   5.997   5.383
88890SOL    HW268510   7.761   5.985   5.281
88891SOL     OW68511   8.427   0.458   8.928
88891SOL    HW168512   8.373   0.523   8.884
88891SOL    HW268513   8.453   0.501   9.010
88892SOL     OW68514  12.749   3.547   7.501
88892SOL    HW168515  12.717   3.572   7.415
88892SOL    HW268516  12.741   3.626   7.554
88893SOL     OW68517  13.361   0.884   1.982
88893SOL    HW168518  13.389   0.872   2.073
88893SOL    HW268519  13.385   0.802   1.938
88894SOL     OW68520   1.261   6.893   1.534
88894SOL    HW168521   1.200   6.819   1.539
88894SOL    HW268522   1.338   6.858   1.490
88895SOL     OW68523   3.582   8.914   2.136
88895SOL    HW168524   3.638   8.982   2.175
88895SOL    HW268525   3.558   8.857   2.209
88896SOL     OW68526   5.019   3.241   0.283
88896SOL    HW168527   5.108   3.271   0.262
88896SOL    HW268528   5.019   3.228   0.378
88897SOL     OW68529   7.216   9.282  12.125
88897SOL    HW168530   7.216   9.372  12.159
88897SOL    HW268531   7.160   9.234  12.187
88898SOL     OW68532   1.784   1.659   6.926
88898SOL    HW168533   1.769   1.638   6.834
88898SOL    HW268534   1.701   1.696   6.956
88899SOL     OW68535   9.871  12.282   7.454
88899SOL    HW168536   9.963  12.255   7.459
88899SOL    HW268537   9.874  12.371   7.421
88900SOL     OW68538  12.882  14.241  11.152
88900SOL    HW168539  12.855  14.235  11.243
88900SOL    HW268540  12.976  14.259  11.156
88901SOL     OW68541   5.154  10.026   5.952
88901SOL    HW168542   5.094  10.101   5.957
88901SOL    HW268543   5.126   9.969   6.023
88902SOL     OW68544   3.417   3.174  11.747
88902SOL    HW168545   3.356   3.245  11.765
88902SOL    HW268546   3.478   3.210  11.682
88903SOL     OW68547   7.667  13.042  10.475
88903SOL    HW168548   7.761  13.057  10.466
88903SOL    HW268549   7.642  13.091  10.554
88904SOL     OW68550   7.798   2.267   3.280
88904SOL    HW168551   7.826   2.231   3.364
88904SOL    HW268552   7.850   2.219   3.216
88905SOL     OW68553  13.646  10.020   1.956
88905SOL    HW168554  13.704  10.059   1.891
88905SOL    HW268555  13.589   9.962   1.905
88906SOL     OW68556   8.855   1.149   4.068
88906SOL    HW168557   8.789   1.212   4.096
88906SOL    HW268558   8.806   1.068   4.054
88907SOL     OW68559   5.783  12.645  10.588
88907SOL    HW168560   5.710  12.707  10.591
88907SOL    HW268561   5.755  12.578  10.526
88908SOL     OW68562   2.586   1.058   3.634
88908SOL    HW168563   2.599   1.129   3.697
88908SOL    HW268564   2.571   0.980   3.688
88909SOL     OW68565   1.323   2.197   2.893
88909SOL    HW168566   1.416   2.221   2.887
88909SOL    HW268567   1.319   2.109   2.857
88910SOL     OW68568  11.118   7.685  10.329
88910SOL    HW168569  11.196   7.644  10.292
88910SOL    HW268570  11.045   7.635  10.293
88911SOL     OW68571   8.147   0.322   4.420
88911SOL    HW168572   8.209   0.380   4.464
88911SOL    HW268573   8.075   0.312   4.481
88912SOL     OW68574   7.502   2.883   7.268
88912SOL    HW168575   7.554   2.961   7.289
88912SOL    HW268576   7.414   2.918   7.253
88913SOL     OW68577  12.214   2.145   9.290
88913SOL    HW168578  12.128   2.104   9.296
88913SOL    HW268579  12.276   2.073   9.299
88914SOL     OW68580   7.977  10.019   2.227
88914SOL    HW168581   7.952  10.107   2.255
88914SOL    HW268582   8.070  10.013   2.250
88915SOL     OW68583   0.122   3.066   3.595
88915SOL    HW168584   0.111   3.068   3.690
88915SOL    HW268585   0.114   3.158   3.568
88916SOL     OW68586  11.736   4.314  14.212
88916SOL    HW168587  11.659   4.367  14.236
88916SOL    HW268588  11.699   4.233  14.176
88917SOL     OW68589   2.969   2.360  13.260
88917SOL    HW168590   2.920   2.336  13.339
88917SOL    HW268591   2.929   2.310  13.190
88918SOL     OW68592   4.905   4.270   4.660
88918SOL    HW168593   4.943   4.256   4.747
88918SOL    HW268594   4.946   4.204   4.605
88919SOL     OW68595   9.676  10.485  13.673
88919SOL    HW168596   9.634  10.559  13.717
88919SOL    HW268597   9.731  10.525  13.606
88920SOL     OW68598   1.161  12.128   9.857
88920SOL    HW168599   1.147  12.047   9.808
88920SOL    HW268600   1.072  12.158   9.878
88921SOL     OW68601   8.583   9.646   2.713
88921SOL    HW168602   8.590   9.684   2.626
88921SOL    HW268603   8.490   9.656   2.736
88922SOL     OW68604   3.153   3.730   0.267
88922SOL    HW168605   3.223   3.777   0.222
88922SOL    HW268606   3.198   3.684   0.338
88923SOL     OW68607   2.724   8.252   6.326
88923SOL    HW168608   2.743   8.207   6.244
88923SOL    HW268609   2.726   8.183   6.393
88924SOL     OW68610  11.926  11.521  14.312
88924SOL    HW168611  11.946  11.531  14.405
88924SOL    HW268612  11.999  11.471  14.276
88925SOL     OW68613  14.022   3.518  10.365
88925SOL    HW168614  14.085   3.472  10.310
88925SOL    HW268615  13.948   3.536  10.307
88926SOL     OW68616  11.516   6.457   2.972
88926SOL    HW168617  11.506   6.422   3.060
88926SOL    HW268618  11.521   6.552   2.984
88927SOL     OW68619   9.585   7.422   1.753
88927SOL    HW168620   9.677   7.395   1.761
88927SOL    HW268621   9.574   7.443   1.661
88928SOL     OW68622   1.863  14.642   8.929
88928SOL    HW168623   1.889  14.621   8.839
88928SOL    HW268624   1.928  14.598   8.984
88929SOL     OW68625  12.450   0.879   8.910
88929SOL    HW168626  12.491   0.961   8.884
88929SOL    HW268627  12.511   0.839   8.971
88930SOL     OW68628  14.112   7.845   8.333
88930SOL    HW168629  14.033   7.850   8.386
88930SOL    HW268630  14.123   7.933   8.298
88931SOL     OW68631  12.080   5.731   9.572
88931SOL    HW168632  12.002   5.784   9.559
88931SOL    HW268633  12.145   5.769   9.514
88932SOL     OW68634   1.480   0.724  14.598
88932SOL    HW168635   1.457   0.802  14.649
88932SOL    HW268636   1.538   0.757  14.529
88933SOL     OW68637   7.851   2.178  13.259
88933SOL    HW168638   7.941   2.210  13.247
88933SOL    HW268639   7.832   2.129  13.179
88934SOL     OW68640   8.173   3.364  11.473
88934SOL    HW168641   8.206   3.276  11.489
88934SOL    HW268642   8.189   3.411  11.555
88935SOL     OW68643   3.121  12.308   4.596
88935SOL    HW168644   3.075  12.233   4.559
88935SOL    HW268645   3.060  12.346   4.659
88936SOL     OW68646  10.917   1.350   6.575
88936SOL    HW168647  10.964   1.424   6.612
88936SOL    HW268648  10.895   1.378   6.486
88937SOL     OW68649  10.162  10.570  14.875
88937SOL    HW168650  10.242  10.573   0.051
88937SOL    HW268651  10.096  10.533   0.057
88938SOL     OW68652   9.430  13.221   1.148
88938SOL    HW168653   9.511  13.243   1.194
88938SOL    HW268654   9.397  13.144   1.193
88939SOL     OW68655   5.677   6.900  10.787
88939SOL    HW168656   5.727   6.960  10.731
88939SOL    HW268657   5.702   6.813  10.757
88940SOL     OW68658   7.280  12.793   0.065
88940SOL    HW168659   7.364  12.838   0.066
88940SOL    HW268660   7.215  12.863   0.062
88941SOL     OW68661   8.779  12.180   2.509
88941SOL    HW168662   8.805  12.091   2.485
88941SOL    HW268663   8.723  12.209   2.437
88942SOL     OW68664  13.405  10.655   1.824
88942SOL    HW168665  13.394  10.689   1.735
88942SOL    HW268666  13.321  10.671   1.866
88943SOL     OW68667  13.580  11.020  12.319
88943SOL    HW168668  13.606  10.935  12.285
88943SOL    HW268669  13.537  11.001  12.402
88944SOL     OW68670  11.305   5.201   7.903
88944SOL    HW168671  11.388   5.177   7.944
88944SOL    HW268672  11.238   5.164   7.961
88945SOL     OW68673  12.004   8.412  10.641
88945SOL    HW168674  12.075   8.435  10.701
88945SOL    HW268675  11.928   8.458  10.675
88946SOL     OW68676   4.607   1.560  10.314
88946SOL    HW168677   4.648   1.633  10.268
88946SOL    HW268678   4.578   1.501  10.244
88947SOL     OW68679   5.301   5.315   8.339
88947SOL    HW168680   5.245   5.316   8.416
88947SOL    HW268681   5.240   5.327   8.265
88948SOL     OW68682   6.855  13.922  10.673
88948SOL    HW168683   6.809  14.005  10.657
88948SOL    HW268684   6.876  13.889  10.585
88949SOL     OW68685  11.422   6.516  11.897
88949SOL    HW168686  11.371   6.560  11.966
88949SOL    HW268687  11.485   6.462  11.945
88950SOL     OW68688   1.117  12.994   4.256
88950SOL    HW168689   1.102  13.075   4.304
88950SOL    HW268690   1.076  13.008   4.170
88951SOL     OW68691   2.200   8.322  13.558
88951SOL    HW168692   2.274   8.282  13.512
88951SOL    HW268693   2.162   8.250  13.609
88952SOL     OW68694   3.691  13.492  13.327
88952SOL    HW168695   3.731  13.499  13.414
88952SOL    HW268696   3.600  13.515  13.341
88953SOL     OW68697   0.077   9.481  11.203
88953SOL    HW168698   0.118   9.547  11.258
88953SOL    HW268699   0.057   9.527  11.121
88954SOL     OW68700   6.156   9.031   3.551
88954SOL    HW168701   6.215   8.974   3.503
88954SOL    HW268702   6.142   9.106   3.493
88955SOL     OW68703   4.160  12.414  13.486
88955SOL    HW168704   4.215  12.375  13.554
88955SOL    HW268705   4.097  12.468  13.534
88956SOL     OW68706   3.873   8.571   4.208
88956SOL    HW168707   3.830   8.656   4.224
88956SOL    HW268708   3.896   8.574   4.115
88957SOL     OW68709   2.504   0.915  12.866
88957SOL    HW168710   2.512   0.940  12.958
88957SOL    HW268711   2.438   0.975  12.830
88958SOL     OW68712   6.642   2.833   4.308
88958SOL    HW168713   6.699   2.790   4.372
88958SOL    HW268714   6.598   2.902   4.357
88959SOL     OW68715   1.553  11.507  10.933
88959SOL    HW168716   1.485  11.481  10.995
88959SOL    HW268717   1.559  11.433  10.873
88960SOL     OW68718  11.366   0.877   3.833
88960SOL    HW168719  11.321   0.961   3.843
88960SOL    HW268720  11.364   0.860   3.739
88961SOL     OW68721   2.207   6.910  14.140
88961SOL    HW168722   2.225   7.002  14.123
88961SOL    HW268723   2.114   6.900  14.121
88962SOL     OW68724   0.522   4.835   8.912
88962SOL    HW168725   0.481   4.889   8.980
88962SOL    HW268726   0.453   4.822   8.847
88963SOL     OW68727   6.461  13.932   0.451
88963SOL    HW168728   6.391  13.923   0.517
88963SOL    HW268729   6.489  14.023   0.460
88964SOL     OW68730   0.080   6.707   0.775
88964SOL    HW168731   0.158   6.696   0.722
88964SOL    HW268732   0.021   6.638   0.746
88965SOL     OW68733  11.934   7.263   5.450
88965SOL    HW168734  11.882   7.215   5.514
88965SOL    HW268735  11.891   7.246   5.366
88966SOL     OW68736  13.509   9.769   4.716
88966SOL    HW168737  13.539   9.770   4.625
88966SOL    HW268738  13.431   9.713   4.715
88967SOL     OW68739   6.568   0.821   1.553
88967SOL    HW168740   6.529   0.866   1.627
88967SOL    HW268741   6.585   0.890   1.488
88968SOL     OW68742  12.386  14.139   9.828
88968SOL    HW168743  12.329  14.195   9.881
88968SOL    HW268744  12.385  14.055   9.874
88969SOL     OW68745   3.004   8.707   6.436
88969SOL    HW168746   3.013   8.627   6.384
88969SOL    HW268747   2.999   8.777   6.371
88970SOL     OW68748  13.576   6.993  13.329
88970SOL    HW168749  13.668   7.005  13.303
88970SOL    HW268750  13.580   6.978  13.424
88971SOL     OW68751   3.394   1.823   8.131
88971SOL    HW168752   3.402   1.817   8.036
88971SOL    HW268753   3.449   1.897   8.155
88972SOL     OW68754  14.453   3.228   2.469
88972SOL    HW168755  14.457   3.322   2.485
88972SOL    HW268756  14.522   3.191   2.523
88973SOL     OW68757  13.739   3.093   8.851
88973SOL    HW168758  13.752   3.025   8.785
88973SOL    HW268759  13.670   3.059   8.908
88974SOL     OW68760   1.815   6.880   3.133
88974SOL    HW168761   1.807   6.789   3.161
88974SOL    HW268762   1.753   6.928   3.188
88975SOL     OW68763  12.479  14.780   6.158
88975SOL    HW168764  12.548  14.720   6.186
88975SOL    HW268765  12.442  14.739   6.079
88976SOL     OW68766  11.397  11.940   9.604
88976SOL    HW168767  11.308  11.962   9.576
88976SOL    HW268768  11.405  11.846   9.587
88977SOL     OW68769   0.921   6.646   6.177
88977SOL    HW168770   0.944   6.623   6.087
88977SOL    HW268771   0.895   6.563   6.217
88978SOL     OW68772   0.819   0.632   6.334
88978SOL    HW168773   0.896   0.676   6.298
88978SOL    HW268774   0.769   0.604   6.257
88979SOL     OW68775   6.720  11.160   6.954
88979SOL    HW168776   6.785  11.158   6.884
88979SOL    HW268777   6.652  11.219   6.922
88980SOL     OW68778   9.522   0.179   6.411
88980SOL    HW168779   9.541   0.206   6.321
88980SOL    HW268780   9.562   0.093   6.419
88981SOL     OW68781   3.854   7.093  14.578
88981SOL    HW168782   3.863   7.188  14.578
88981SOL    HW268783   3.788   7.075  14.645
88982SOL     OW68784   2.981   3.941  11.763
88982SOL    HW168785   2.916   4.009  11.783
88982SOL    HW268786   3.059   3.967  11.812
88983SOL     OW68787  13.872  13.093  13.758
88983SOL    HW168788  13.851  12.999  13.760
88983SOL    HW268789  13.904  13.108  13.669
88984SOL     OW68790  13.919   7.870  11.050
88984SOL    HW168791  13.828   7.848  11.033
88984SOL    HW268792  13.931   7.957  11.011
88985SOL     OW68793   7.871   6.642  11.729
88985SOL    HW168794   7.876   6.729  11.689
88985SOL    HW268795   7.784   6.639  11.769
88986SOL     OW68796   9.175   0.525   6.827
88986SOL    HW168797   9.132   0.533   6.912
88986SOL    HW268798   9.103   0.519   6.764
88987SOL     OW68799   6.467  12.661   7.358
88987SOL    HW168800   6.395  12.721   7.377
88987SOL    HW268801   6.431  12.600   7.295
88988SOL     OW68802   0.271  13.005   5.199
88988SOL    HW168803   0.180  12.979   5.184
88988SOL    HW268804   0.306  12.937   5.257
88989SOL     OW68805  11.847  13.585  14.613
88989SOL    HW168806  11.777  13.548  14.667
88989SOL    HW268807  11.823  13.563  14.523
88990SOL     OW68808  14.046   3.088  14.832
88990SOL    HW168809  13.978   3.139  14.875
88990SOL    HW268810  14.020   3.085  14.740
88991SOL     OW68811  13.910   7.519   3.273
88991SOL    HW168812  13.822   7.551   3.292
88991SOL    HW268813  13.923   7.446   3.334
88992SOL     OW68814   4.154   8.734   9.401
88992SOL    HW168815   4.168   8.828   9.409
88992SOL    HW268816   4.207   8.707   9.327
88993SOL     OW68817  13.772   9.186   7.476
88993SOL    HW168818  13.807   9.225   7.557
88993SOL    HW268819  13.677   9.191   7.487
88994SOL     OW68820  14.777   2.915   3.503
88994SOL    HW168821  14.847   2.977   3.521
88994SOL    HW268822  14.822   2.836   3.471
88995SOL     OW68823   0.501  13.137  10.049
88995SOL    HW168824   0.526  13.120  10.140
88995SOL    HW268825   0.422  13.190  10.055
88996SOL     OW68826   9.615  12.167   8.425
88996SOL    HW168827   9.578  12.179   8.338
88996SOL    HW268828   9.588  12.079   8.451
88997SOL     OW68829  13.665  14.703  11.296
88997SOL    HW168830  13.712  14.783  11.273
88997SOL    HW268831  13.588  14.734  11.345
88998SOL     OW68832   7.116  13.332   0.109
88998SOL    HW168833   7.122  13.427   0.093
88998SOL    HW268834   7.084  13.325   0.199
88999SOL     OW68835   7.135   5.341  12.842
88999SOL    HW168836   7.042   5.333  12.823
88999SOL    HW268837   7.139   5.398  12.919
89000SOL     OW68838   6.136   5.383  12.640
89000SOL    HW168839   6.104   5.302  12.679
89000SOL    HW268840   6.187   5.355  12.564
89001SOL     OW68841   2.955   3.563  12.671
89001SOL    HW168842   2.892   3.545  12.601
89001SOL    HW268843   2.951   3.485  12.727
89002SOL     OW68844  14.777   3.181   8.278
89002SOL    HW168845  14.776   3.091   8.245
89002SOL    HW268846  14.843   3.225   8.226
89003SOL     OW68847   1.354   4.503   5.565
89003SOL    HW168848   1.339   4.590   5.529
89003SOL    HW268849   1.347   4.444   5.490
89004SOL     OW68850   4.821  13.656  10.182
89004SOL    HW168851   4.726  13.659  10.195
89004SOL    HW268852   4.837  13.571  10.142
89005SOL     OW68853   9.155   8.656   9.977
89005SOL    HW168854   9.090   8.615   9.920
89005SOL    HW268855   9.235   8.606   9.961
89006SOL     OW68856   7.848  11.799   3.381
89006SOL    HW168857   7.775  11.856   3.356
89006SOL    HW268858   7.816  11.710   3.364
89007SOL     OW68859   4.433   5.426  10.984
89007SOL    HW168860   4.382   5.480  11.044
89007SOL    HW268861   4.465   5.488  10.919
89008SOL     OW68862   8.870   2.907  12.774
89008SOL    HW168863   8.791   2.868  12.736
89008SOL    HW268864   8.942   2.869  12.724
89009SOL     OW68865   5.951   5.348   2.011
89009SOL    HW168866   5.894   5.330   2.086
89009SOL    HW268867   5.984   5.436   2.028
89010SOL     OW68868   1.465  11.505   7.954
89010SOL    HW168869   1.516  11.432   7.990
89010SOL    HW268870   1.515  11.533   7.877
89011SOL     OW68871   3.248   7.746   8.581
89011SOL    HW168872   3.305   7.674   8.606
89011SOL    HW268873   3.214   7.721   8.495
89012SOL     OW68874   4.152   9.332   3.934
89012SOL    HW168875   4.107   9.257   3.896
89012SOL    HW268876   4.245   9.311   3.924
89013SOL     OW68877   8.853   1.085   1.696
89013SOL    HW168878   8.821   1.048   1.613
89013SOL    HW268879   8.915   1.020   1.728
89014SOL     OW68880  13.836   7.264  13.987
89014SOL    HW168881  13.927   7.269  13.960
89014SOL    HW268882  13.813   7.353  14.013
89015SOL     OW68883  10.873  14.645  14.207
89015SOL    HW168884  10.957  14.681  14.180
89015SOL    HW268885  10.819  14.650  14.128
89016SOL     OW68886   4.335  11.929   8.386
89016SOL    HW168887   4.318  11.859   8.323
89016SOL    HW268888   4.333  11.886   8.471
89017SOL     OW68889  14.428  14.590   6.430
89017SOL    HW168890  14.523  14.582   6.436
89017SOL    HW268891  14.402  14.527   6.363
89018SOL     OW68892  14.844   9.244   8.384
89018SOL    HW168893  14.802   9.218   8.466
89018SOL    HW268894  14.773   9.245   8.320
89019SOL     OW68895  13.777  14.428  13.318
89019SOL    HW168896  13.832  14.504  13.335
89019SOL    HW268897  13.801  14.365  13.385
89020SOL     OW68898   6.041   3.840  11.663
89020SOL    HW168899   6.062   3.791  11.583
89020SOL    HW268900   6.122   3.838  11.714
89021SOL     OW68901  13.535   2.037  14.634
89021SOL    HW168902  13.452   2.052  14.590
89021SOL    HW268903  13.588   2.114  14.612
89022SOL     OW68904   9.657   5.359   7.899
89022SOL    HW168905   9.628   5.268   7.885
89022SOL    HW268906   9.576   5.408   7.914
89023SOL     OW68907   6.618   7.301   5.967
89023SOL    HW168908   6.559   7.340   6.031
89023SOL    HW268909   6.570   7.224   5.934
89024SOL     OW68910  11.654  11.375   1.756
89024SOL    HW168911  11.605  11.433   1.698
89024SOL    HW268912  11.743  11.375   1.719
89025SOL     OW68913   7.287  14.092   5.487
89025SOL    HW168914   7.222  14.138   5.541
89025SOL    HW268915   7.237  14.028   5.438
89026SOL     OW68916   2.088   3.655  12.979
89026SOL    HW168917   2.152   3.679  13.046
89026SOL    HW268918   2.098   3.560  12.968
89027SOL     OW68919   6.413   4.402   9.152
89027SOL    HW168920   6.483   4.452   9.110
89027SOL    HW268921   6.349   4.388   9.083
89028SOL     OW68922  13.293  10.322   2.721
89028SOL    HW168923  13.307  10.256   2.788
89028SOL    HW268924  13.329  10.402   2.759
89029SOL     OW68925   8.507  12.125   6.695
89029SOL    HW168926   8.499  12.218   6.716
89029SOL    HW268927   8.446  12.111   6.623
89030SOL     OW68928  11.173   9.219  13.999
89030SOL    HW168929  11.175   9.165  13.920
89030SOL    HW268930  11.185   9.308  13.967
89031SOL     OW68931  14.245   3.368   5.563
89031SOL    HW168932  14.252   3.285   5.515
89031SOL    HW268933  14.165   3.408   5.530
89032SOL     OW68934   8.834   6.517   0.181
89032SOL    HW168935   8.876   6.496   0.098
89032SOL    HW268936   8.837   6.435   0.231
89033SOL     OW68937   5.086   0.008   5.757
89033SOL    HW168938   5.115   0.055   5.679
89033SOL    HW268939   5.111   0.064   5.830
89034SOL     OW68940   2.477   4.540   9.279
89034SOL    HW168941   2.455   4.467   9.220
89034SOL    HW268942   2.432   4.616   9.241
89035SOL     OW68943   0.655   1.763  10.370
89035SOL    HW168944   0.574   1.731  10.409
89035SOL    HW268945   0.720   1.697  10.393
89036SOL     OW68946   7.525   6.285  13.139
89036SOL    HW168947   7.574   6.272  13.057
89036SOL    HW268948   7.584   6.336  13.194
89037SOL     OW68949  10.610   5.959   5.128
89037SOL    HW168950  10.591   6.049   5.153
89037SOL    HW268951  10.526   5.922   5.102
89038SOL     OW68952   1.526   3.729   0.075
89038SOL    HW168953   1.606   3.780   0.061
89038SOL    HW268954   1.553   3.659   0.135
89039SOL     OW68955   0.066   2.525   4.763
89039SOL    HW168956   0.046   2.601   4.817
89039SOL    HW268957   0.143   2.552   4.711
89040SOL     OW68958   8.120   0.668   9.593
89040SOL    HW168959   8.065   0.673   9.515
89040SOL    HW268960   8.128   0.574   9.610
89041SOL     OW68961   5.213   0.969  14.712
89041SOL    HW168962   5.216   0.971  14.616
89041SOL    HW268963   5.129   0.927  14.732
89042SOL     OW68964   0.668  12.483  13.709
89042SOL    HW168965   0.750  12.470  13.661
89042SOL    HW268966   0.664  12.577  13.725
89043SOL     OW68967   8.500  14.807  12.451
89043SOL    HW168968   8.486  14.745  12.379
89043SOL    HW268969   8.530   0.011  12.408
89044SOL     OW68970   3.638   4.780   8.232
89044SOL    HW168971   3.643   4.716   8.302
89044SOL    HW268972   3.582   4.849   8.267
89045SOL     OW68973  14.158   6.414   8.022
89045SOL    HW168974  14.069   6.446   8.040
89045SOL    HW268975  14.190   6.470   7.952
89046SOL     OW68976  10.207   8.959   5.028
89046SOL    HW168977  10.160   8.898   4.971
89046SOL    HW268978  10.239   9.027   4.969
89047SOL     OW68979   5.122   0.305   1.315
89047SOL    HW168980   5.208   0.346   1.305
89047SOL    HW268981   5.060   0.379   1.318
89048SOL     OW68982   2.408  11.405  10.775
89048SOL    HW168983   2.467  11.467  10.732
89048SOL    HW268984   2.420  11.323  10.726
89049SOL     OW68985   9.810  10.877   2.229
89049SOL    HW168986   9.720  10.879   2.198
89049SOL    HW268987   9.808  10.822   2.306
89050SOL     OW68988   7.371  11.401   2.461
89050SOL    HW168989   7.310  11.469   2.491
89050SOL    HW268990   7.315  11.325   2.442
89051SOL     OW68991  13.307   1.995   3.419
89051SOL    HW168992  13.321   1.937   3.344
89051SOL    HW268993  13.385   1.984   3.474
89052SOL     OW68994   2.050   0.895   0.875
89052SOL    HW168995   2.130   0.941   0.901
89052SOL    HW268996   2.028   0.842   0.952
89053SOL     OW68997   8.961   5.582  12.079
89053SOL    HW168998   9.031   5.518  12.096
89053SOL    HW268999   8.952   5.631  12.161
89054SOL     OW69000   8.916   3.121  13.640
89054SOL    HW169001   8.828   3.102  13.675
89054SOL    HW269002   8.975   3.075  13.699
89055SOL     OW69003  14.655   3.654   3.996
89055SOL    HW169004  14.671   3.745   3.970
89055SOL    HW269005  14.675   3.603   3.917
89056SOL     OW69006  14.558   4.188   7.263
89056SOL    HW169007  14.476   4.155   7.299
89056SOL    HW269008  14.625   4.127   7.295
89057SOL     OW69009  11.115  13.519   7.758
89057SOL    HW169010  11.154  13.575   7.825
89057SOL    HW269011  11.029  13.557   7.743
89058SOL     OW69012  12.614  10.397  11.719
89058SOL    HW169013  12.541  10.404  11.780
89058SOL    HW269014  12.591  10.324  11.661
89059SOL     OW69015   5.646   6.807  13.848
89059SOL    HW169016   5.597   6.807  13.766
89059SOL    HW269017   5.647   6.715  13.876
89060SOL     OW69018   6.874  10.646   1.348
89060SOL    HW169019   6.846  10.605   1.266
89060SOL    HW269020   6.931  10.718   1.320
89061SOL     OW69021   9.485  12.215   5.263
89061SOL    HW169022   9.441  12.238   5.344
89061SOL    HW269023   9.457  12.125   5.245
89062SOL     OW69024   1.239  11.542   9.474
89062SOL    HW169025   1.212  11.452   9.487
89062SOL    HW269026   1.210  11.588   9.552
89063SOL     OW69027  13.020   5.523   2.592
89063SOL    HW169028  13.039   5.556   2.504
89063SOL    HW269029  12.952   5.457   2.578
89064SOL     OW69030   8.282  12.256  10.790
89064SOL    HW169031   8.371  12.251  10.755
89064SOL    HW269032   8.231  12.298  10.720
89065SOL     OW69033   5.008  12.938   8.023
89065SOL    HW169034   4.992  12.858   8.074
89065SOL    HW269035   5.100  12.930   7.995
89066SOL     OW69036  10.180   9.880   2.562
89066SOL    HW169037  10.128   9.886   2.481
89066SOL    HW269038  10.270   9.870   2.532
89067SOL     OW69039  14.721   2.133  13.593
89067SOL    HW169040  14.654   2.107  13.530
89067SOL    HW269041  14.672   2.154  13.673
89068SOL     OW69042  11.849   4.303  11.975
89068SOL    HW169043  11.855   4.283  12.068
89068SOL    HW269044  11.939   4.326  11.950
89069SOL     OW69045  13.102  12.460   1.096
89069SOL    HW169046  13.166  12.519   1.057
89069SOL    HW269047  13.151  12.411   1.161
89070SOL     OW69048   5.898  13.060   0.895
89070SOL    HW169049   5.974  13.098   0.938
89070SOL    HW269050   5.902  12.967   0.916
89071SOL     OW69051   4.615   0.256   4.371
89071SOL    HW169052   4.617   0.332   4.313
89071SOL    HW269053   4.692   0.204   4.345
89072SOL     OW69054   7.282  10.082   7.429
89072SOL    HW169055   7.207  10.126   7.389
89072SOL    HW269056   7.324  10.150   7.481
89073SOL     OW69057   0.866   4.089  10.512
89073SOL    HW169058   0.951   4.097  10.467
89073SOL    HW269059   0.803   4.079  10.440
89074SOL     OW69060  14.518  10.677  13.781
89074SOL    HW169061  14.555  10.608  13.836
89074SOL    HW269062  14.554  10.758  13.816
89075SOL     OW69063   0.761   8.526  12.310
89075SOL    HW169064   0.782   8.619  12.310
89075SOL    HW269065   0.691   8.517  12.375
89076SOL     OW69066  11.922   0.699   2.007
89076SOL    HW169067  11.958   0.613   2.028
89076SOL    HW269068  11.842   0.705   2.059
89077SOL     OW69069  12.917  12.636   0.134
89077SOL    HW169070  12.864  12.618   0.056
89077SOL    HW269071  12.883  12.719   0.167
89078SOL     OW69072   8.315   5.903  11.324
89078SOL    HW169073   8.349   5.925  11.411
89078SOL    HW269074   8.393   5.897  11.269
89079SOL     OW69075   9.444   5.714  14.130
89079SOL    HW169076   9.423   5.630  14.171
89079SOL    HW269077   9.504   5.691  14.059
89080SOL     OW69078   5.583  14.391   9.736
89080SOL    HW169079   5.501  14.350   9.763
89080SOL    HW269080   5.610  14.343   9.658
89081SOL     OW69081   5.537  12.903   8.845
89081SOL    HW169082   5.598  12.884   8.917
89081SOL    HW269083   5.453  12.922   8.889
89082SOL     OW69084   2.158  12.924   9.021
89082SOL    HW169085   2.251  12.901   9.027
89082SOL    HW269086   2.113  12.855   9.070
89083SOL     OW69087   0.167   7.115  10.439
89083SOL    HW169088   0.141   7.197  10.479
89083SOL    HW269089   0.251   7.134  10.397
89084SOL     OW69090   2.008   6.992   6.877
89084SOL    HW169091   1.993   6.978   6.971
89084SOL    HW269092   2.066   7.068   6.873
89085SOL     OW69093  11.177   3.691   7.909
89085SOL    HW169094  11.204   3.685   8.001
89085SOL    HW269095  11.105   3.754   7.909
89086SOL     OW69096   0.027  10.666   1.899
89086SOL    HW169097   0.071  10.582   1.913
89086SOL    HW269098  14.812  10.649   1.922
89087SOL     OW69099   2.058   9.283   0.234
89087SOL    HW169100   2.148   9.276   0.266
89087SOL    HW269101   2.004   9.244   0.303
89088SOL     OW69102   3.588   5.181  13.548
89088SOL    HW169103   3.682   5.202  13.549
89088SOL    HW269104   3.562   5.184  13.640
89089SOL     OW69105  13.569   6.389  14.020
89089SOL    HW169106  13.626   6.463  14.040
89089SOL    HW269107  13.630   6.319  13.996
89090SOL     OW69108   7.666   8.311   5.905
89090SOL    HW169109   7.671   8.253   5.829
89090SOL    HW269110   7.683   8.254   5.980
89091SOL     OW69111   1.067  12.903  10.932
89091SOL    HW169112   1.037  12.940  10.849
89091SOL    HW269113   1.068  12.808  10.918
89092SOL     OW69114   5.157   7.007   3.012
89092SOL    HW169115   5.068   7.024   3.045
89092SOL    HW269116   5.209   7.080   3.046
89093SOL     OW69117  13.891   6.363   6.276
89093SOL    HW169118  13.977   6.400   6.259
89093SOL    HW269119  13.904   6.308   6.354
89094SOL     OW69120   5.029   0.727  12.334
89094SOL    HW169121   5.004   0.673  12.259
89094SOL    HW269122   4.946   0.759  12.370
89095SOL     OW69123  12.986   3.524  14.660
89095SOL    HW169124  12.959   3.601  14.610
89095SOL    HW269125  12.905   3.491  14.698
89096SOL     OW69126  12.611  10.684   9.935
89096SOL    HW169127  12.515  10.687   9.935
89096SOL    HW269128  12.638  10.760   9.986
89097SOL     OW69129  12.438   8.440   8.288
89097SOL    HW169130  12.450   8.524   8.245
89097SOL    HW269131  12.344   8.423   8.284
89098SOL     OW69132   1.868  14.167   3.056
89098SOL    HW169133   1.889  14.144   2.966
89098SOL    HW269134   1.784  14.123   3.073
89099SOL     OW69135   4.191   3.874  10.027
89099SOL    HW169136   4.286   3.870  10.016
89099SOL    HW269137   4.158   3.912   9.945
89100SOL     OW69138   3.385   6.809   0.770
89100SOL    HW169139   3.361   6.827   0.861
89100SOL    HW269140   3.362   6.716   0.757
89101SOL     OW69141   6.480   2.609  11.290
89101SOL    HW169142   6.506   2.561  11.211
89101SOL    HW269143   6.387   2.591  11.300
89102SOL     OW69144   8.707   6.858   5.398
89102SOL    HW169145   8.624   6.856   5.445
89102SOL    HW269146   8.728   6.951   5.390
89103SOL     OW69147   1.470  12.716   3.647
89103SOL    HW169148   1.497  12.760   3.728
89103SOL    HW269149   1.375  12.720   3.648
89104SOL     OW69150   1.168   9.340  11.453
89104SOL    HW169151   1.101   9.285  11.412
89104SOL    HW269152   1.220   9.280  11.507
89105SOL     OW69153   5.805   7.395  14.090
89105SOL    HW169154   5.789   7.489  14.082
89105SOL    HW269155   5.901   7.387  14.085
89106SOL     OW69156   6.460   5.096   8.466
89106SOL    HW169157   6.411   5.145   8.532
89106SOL    HW269158   6.393   5.061   8.407
89107SOL     OW69159   1.647   3.870   8.633
89107SOL    HW169160   1.685   3.928   8.568
89107SOL    HW269161   1.621   3.792   8.583
89108SOL     OW69162   7.144   3.233  13.534
89108SOL    HW169163   7.139   3.155  13.480
89108SOL    HW269164   7.158   3.305  13.472
89109SOL     OW69165   9.329   2.030   8.978
89109SOL    HW169166   9.423   2.048   8.970
89109SOL    HW269167   9.325   1.944   9.018
89110SOL     OW69168   7.294  12.430   0.968
89110SOL    HW169169   7.352  12.368   0.925
89110SOL    HW269170   7.228  12.376   1.011
89111SOL     OW69171  11.715   9.198   6.055
89111SOL    HW169172  11.649   9.146   6.101
89111SOL    HW269173  11.673   9.283   6.041
89112SOL     OW69174   2.293   3.853   7.861
89112SOL    HW169175   2.373   3.849   7.808
89112SOL    HW269176   2.312   3.798   7.937
89113SOL     OW69177  10.094  13.548   4.060
89113SOL    HW169178  10.058  13.581   3.978
89113SOL    HW269179  10.169  13.605   4.078
89114SOL     OW69180   4.530   6.280   8.335
89114SOL    HW169181   4.572   6.352   8.382
89114SOL    HW269182   4.581   6.270   8.255
89115SOL     OW69183   2.305  11.475   0.085
89115SOL    HW169184   2.266  11.392   0.055
89115SOL    HW269185   2.362  11.502   0.012
89116SOL     OW69186   0.682   2.194  13.269
89116SOL    HW169187   0.730   2.125  13.224
89116SOL    HW269188   0.667   2.260  13.203
89117SOL     OW69189  13.393   3.464   8.723
89117SOL    HW169190  13.487   3.455   8.708
89117SOL    HW269191  13.386   3.499   8.812
89118SOL     OW69192   3.501   4.133  14.267
89118SOL    HW169193   3.420   4.083  14.275
89118SOL    HW269194   3.472   4.223  14.252
89119SOL     OW69195   6.607   5.998   0.677
89119SOL    HW169196   6.551   6.027   0.605
89119SOL    HW269197   6.661   6.075   0.697
89120SOL     OW69198  12.239   7.806   8.199
89120SOL    HW169199  12.329   7.776   8.188
89120SOL    HW269200  12.240   7.856   8.281
89121SOL     OW69201   0.797   8.502  12.995
89121SOL    HW169202   0.750   8.427  12.960
89121SOL    HW269203   0.865   8.520  12.930
89122SOL     OW69204   5.929   9.604  14.212
89122SOL    HW169205   5.904   9.696  14.204
89122SOL    HW269206   5.934   9.572  14.122
89123SOL     OW69207  11.750  13.063  10.218
89123SOL    HW169208  11.710  13.119  10.284
89123SOL    HW269209  11.734  12.974  10.249
89124SOL     OW69210   9.326  14.077  10.766
89124SOL    HW169211   9.282  14.124  10.696
89124SOL    HW269212   9.261  14.015  10.800
89125SOL     OW69213   6.107   1.439   1.436
89125SOL    HW169214   6.031   1.466   1.385
89125SOL    HW269215   6.090   1.347   1.458
89126SOL     OW69216   3.047   1.127   6.473
89126SOL    HW169217   3.030   1.198   6.411
89126SOL    HW269218   2.983   1.060   6.451
89127SOL     OW69219  12.906   6.934   2.468
89127SOL    HW169220  12.911   7.018   2.515
89127SOL    HW269221  12.879   6.958   2.379
89128SOL     OW69222   1.493   4.205   0.070
89128SOL    HW169223   1.581   4.241   0.083
89128SOL    HW269224   1.492   4.124   0.120
89129SOL     OW69225   5.007   2.947   5.929
89129SOL    HW169226   4.917   2.944   5.897
89129SOL    HW269227   5.007   3.017   5.994
89130SOL     OW69228  12.658   3.453  14.040
89130SOL    HW169229  12.662   3.481  13.949
89130SOL    HW269230  12.719   3.379  14.045
89131SOL     OW69231  13.808  10.474  13.544
89131SOL    HW169232  13.851  10.557  13.522
89131SOL    HW269233  13.863  10.407  13.504
89132SOL     OW69234  11.335  13.804  11.403
89132SOL    HW169235  11.330  13.754  11.321
89132SOL    HW269236  11.246  13.837  11.416
89133SOL     OW69237  10.964  10.079   3.131
89133SOL    HW169238  11.042  10.106   3.082
89133SOL    HW269239  10.916  10.023   3.071
89134SOL     OW69240  13.857  14.686   7.615
89134SOL    HW169241  13.779  14.653   7.659
89134SOL    HW269242  13.922  14.695   7.685
89135SOL     OW69243   7.450   0.045   1.063
89135SOL    HW169244   7.397   0.018   0.988
89135SOL    HW269245   7.398   0.113   1.105
89136SOL     OW69246   2.458   6.047   5.642
89136SOL    HW169247   2.404   6.011   5.571
89136SOL    HW269248   2.414   6.017   5.722
89137SOL     OW69249  14.724  10.144   3.167
89137SOL    HW169250  14.663  10.106   3.230
89137SOL    HW269251  14.685  10.123   3.081
89138SOL     OW69252   4.851   8.672   4.795
89138SOL    HW169253   4.858   8.755   4.748
89138SOL    HW269254   4.787   8.622   4.745
89139SOL     OW69255   4.457   8.866   9.633
89139SOL    HW169256   4.382   8.833   9.683
89139SOL    HW269257   4.501   8.787   9.600
89140SOL     OW69258   7.949  13.347   9.406
89140SOL    HW169259   7.938  13.425   9.460
89140SOL    HW269260   7.951  13.379   9.316
89141SOL     OW69261  10.705   9.635  13.783
89141SOL    HW169262  10.645   9.581  13.834
89141SOL    HW269263  10.792   9.611  13.815
89142SOL     OW69264  12.940   9.882  12.514
89142SOL    HW169265  12.961   9.973  12.495
89142SOL    HW269266  12.852   9.885  12.552
89143SOL     OW69267   8.937   6.538   5.198
89143SOL    HW169268   8.990   6.491   5.133
89143SOL    HW269269   8.920   6.473   5.266
89144SOL     OW69270   8.417  11.790   3.757
89144SOL    HW169271   8.408  11.696   3.742
89144SOL    HW269272   8.334  11.817   3.796
89145SOL     OW69273  14.620   7.290   3.542
89145SOL    HW169274  14.554   7.356   3.521
89145SOL    HW269275  14.633   7.241   3.460
89146SOL     OW69276   1.354   0.047  12.770
89146SOL    HW169277   1.435   0.096  12.756
89146SOL    HW269278   1.288   0.114  12.788
89147SOL     OW69279   8.055   2.177   0.278
89147SOL    HW169280   8.133   2.232   0.270
89147SOL    HW269281   8.016   2.178   0.191
89148SOL     OW69282   8.620   3.603  11.421
89148SOL    HW169283   8.688   3.603  11.353
89148SOL    HW269284   8.539   3.582  11.374
89149SOL     OW69285  13.220  14.004   5.516
89149SOL    HW169286  13.247  14.076   5.459
89149SOL    HW269287  13.277  14.012   5.593
89150SOL     OW69288   8.974   3.256   9.315
89150SOL    HW169289   8.922   3.288   9.242
89150SOL    HW269290   8.980   3.330   9.375
89151SOL     OW69291  11.094   0.527   9.034
89151SOL    HW169292  11.020   0.574   8.997
89151SOL    HW269293  11.115   0.460   8.969
89152SOL     OW69294  12.731  12.356   0.961
89152SOL    HW169295  12.707  12.362   1.054
89152SOL    HW269296  12.665  12.298   0.923
89153SOL     OW69297  10.788  10.999  13.296
89153SOL    HW169298  10.703  10.971  13.262
89153SOL    HW269299  10.830  10.918  13.324
89154SOL     OW69300   3.037  11.355   1.511
89154SOL    HW169301   3.064  11.395   1.594
89154SOL    HW269302   2.942  11.364   1.508
89155SOL     OW69303   1.101   7.071   4.281
89155SOL    HW169304   1.068   7.080   4.370
89155SOL    HW269305   1.033   7.107   4.225
89156SOL     OW69306   3.722   6.045   0.322
89156SOL    HW169307   3.674   6.074   0.244
89156SOL    HW269308   3.756   6.126   0.360
89157SOL     OW69309   8.194  14.355  14.049
89157SOL    HW169310   8.100  14.336  14.052
89157SOL    HW269311   8.208  14.393  13.962
89158SOL     OW69312   2.036  13.839   1.472
89158SOL    HW169313   2.030  13.790   1.554
89158SOL    HW269314   2.123  13.819   1.437
89159SOL     OW69315   7.355   3.292   6.861
89159SOL    HW169316   7.413   3.248   6.923
89159SOL    HW269317   7.277   3.236   6.859
89160SOL     OW69318  11.513   0.254   3.160
89160SOL    HW169319  11.568   0.193   3.111
89160SOL    HW269320  11.523   0.228   3.251
89161SOL     OW69321   1.284   8.661   9.977
89161SOL    HW169322   1.285   8.565   9.986
89161SOL    HW269323   1.254   8.693  10.061
89162SOL     OW69324   2.878   2.510   1.209
89162SOL    HW169325   2.789   2.482   1.231
89162SOL    HW269326   2.881   2.602   1.234
89163SOL     OW69327   2.929   4.826  13.460
89163SOL    HW169328   3.021   4.853  13.452
89163SOL    HW269329   2.918   4.810  13.554
89164SOL     OW69330  14.388   8.079   8.164
89164SOL    HW169331  14.424   8.057   8.250
89164SOL    HW269332  14.308   8.128   8.184
89165SOL     OW69333   4.559   2.410  14.686
89165SOL    HW169334   4.558   2.440  14.595
89165SOL    HW269335   4.483   2.453  14.726
89166SOL     OW69336   7.482   7.733   2.532
89166SOL    HW169337   7.400   7.713   2.485
89166SOL    HW269338   7.524   7.800   2.479
89167SOL     OW69339  11.684  12.339  11.055
89167SOL    HW169340  11.720  12.411  11.004
89167SOL    HW269341  11.702  12.363  11.146
89168SOL     OW69342  14.295   9.717   4.334
89168SOL    HW169343  14.282   9.793   4.277
89168SOL    HW269344  14.283   9.642   4.277
89169SOL     OW69345  11.193  11.129   5.508
89169SOL    HW169346  11.131  11.062   5.481
89169SOL    HW269347  11.162  11.209   5.465
89170SOL     OW69348  14.181  10.404   8.569
89170SOL    HW169349  14.100  10.412   8.621
89170SOL    HW269350  14.217  10.492   8.567
89171SOL     OW69351  14.860   6.313   6.725
89171SOL    HW169352  14.786   6.261   6.694
89171SOL    HW269353  14.867   6.292   6.818
89172SOL     OW69354   1.742   8.158   2.543
89172SOL    HW169355   1.672   8.178   2.605
89172SOL    HW269356   1.812   8.122   2.596
89173SOL     OW69357   2.757   7.869   4.858
89173SOL    HW169358   2.850   7.890   4.849
89173SOL    HW269359   2.714   7.954   4.870
89174SOL     OW69360   4.791   6.261   1.333
89174SOL    HW169361   4.855   6.332   1.327
89174SOL    HW269362   4.813   6.215   1.414
89175SOL     OW69363   4.147  12.451  14.769
89175SOL    HW169364   4.214  12.454  14.702
89175SOL    HW269365   4.185  12.499  14.843
89176SOL     OW69366   0.536   2.117   4.928
89176SOL    HW169367   0.486   2.081   5.002
89176SOL    HW269368   0.517   2.057   4.856
89177SOL     OW69369   2.449   0.360   5.212
89177SOL    HW169370   2.462   0.286   5.272
89177SOL    HW269371   2.356   0.357   5.189
89178SOL     OW69372  10.061   5.456   2.794
89178SOL    HW169373  10.069   5.446   2.888
89178SOL    HW269374  10.045   5.549   2.780
89179SOL     OW69375  12.753   2.351  14.835
89179SOL    HW169376  12.704   2.269  14.826
89179SOL    HW269377  12.794   2.364  14.749
89180SOL     OW69378  11.527   5.089   6.232
89180SOL    HW169379  11.520   5.001   6.269
89180SOL    HW269380  11.515   5.076   6.138
89181SOL     OW69381   8.321   1.671   6.808
89181SOL    HW169382   8.287   1.753   6.773
89181SOL    HW269383   8.410   1.664   6.774
89182SOL     OW69384  10.891  11.496   4.624
89182SOL    HW169385  10.983  11.521   4.633
89182SOL    HW269386  10.853  11.567   4.573
89183SOL     OW69387   9.309  13.881  13.480
89183SOL    HW169388   9.320  13.912  13.570
89183SOL    HW269389   9.227  13.831  13.481
89184SOL     OW69390   1.143   2.347   4.254
89184SOL    HW169391   1.104   2.263   4.230
89184SOL    HW269392   1.083   2.384   4.319
89185SOL     OW69393   4.708   1.971   2.308
89185SOL    HW169394   4.788   1.960   2.358
89185SOL    HW269395   4.720   2.055   2.263
89186SOL     OW69396   9.269   7.470   5.641
89186SOL    HW169397   9.244   7.397   5.698
89186SOL    HW269398   9.185   7.508   5.613
89187SOL     OW69399  14.366   4.447   4.991
89187SOL    HW169400  14.434   4.418   5.052
89187SOL    HW269401  14.286   4.449   5.043
89188SOL     OW69402   7.180  10.278   7.251
89188SOL    HW169403   7.188  10.337   7.326
89188SOL    HW269404   7.262  10.289   7.203
89189SOL     OW69405  11.650   1.504   3.254
89189SOL    HW169406  11.683   1.566   3.320
89189SOL    HW269407  11.622   1.560   3.182
89190SOL     OW69408  13.359   5.456  10.176
89190SOL    HW169409  13.371   5.434  10.268
89190SOL    HW269410  13.288   5.520  10.175
89191SOL     OW69411  11.564   3.215  12.415
89191SOL    HW169412  11.589   3.243  12.327
89191SOL    HW269413  11.493   3.152  12.402
89192SOL     OW69414   7.135   4.011   3.635
89192SOL    HW169415   7.162   4.086   3.688
89192SOL    HW269416   7.045   3.994   3.661
89193SOL     OW69417   5.149   3.022  12.388
89193SOL    HW169418   5.191   3.107  12.404
89193SOL    HW269419   5.074   3.021  12.448
89194SOL     OW69420   8.535  13.060   0.219
89194SOL    HW169421   8.568  13.014   0.142
89194SOL    HW269422   8.489  12.994   0.269
89195SOL     OW69423   0.550  10.445   0.618
89195SOL    HW169424   0.573  10.452   0.525
89195SOL    HW269425   0.631  10.465   0.664
89196SOL     OW69426   0.265   4.031  11.002
89196SOL    HW169427   0.237   3.944  10.973
89196SOL    HW269428   0.198   4.090  10.967
89197SOL     OW69429   8.759   3.708  13.457
89197SOL    HW169430   8.763   3.617  13.428
89197SOL    HW269431   8.666   3.731  13.450
89198SOL     OW69432  12.410   0.720   2.663
89198SOL    HW169433  12.460   0.801   2.652
89198SOL    HW269434  12.381   0.723   2.754
89199SOL     OW69435   5.300   2.807   3.872
89199SOL    HW169436   5.341   2.829   3.788
89199SOL    HW269437   5.312   2.884   3.926
89200SOL     OW69438   7.958   7.156   9.803
89200SOL    HW169439   8.017   7.111   9.863
89200SOL    HW269440   7.904   7.212   9.859
89201SOL     OW69441  14.507   2.179   9.594
89201SOL    HW169442  14.512   2.099   9.541
89201SOL    HW269443  14.449   2.237   9.546
89202SOL     OW69444   9.633  14.823  13.636
89202SOL    HW169445   9.571  14.754  13.613
89202SOL    HW269446   9.579   0.016  13.673
89203SOL     OW69447   4.156  12.821   1.603
89203SOL    HW169448   4.234  12.798   1.654
89203SOL    HW269449   4.099  12.866   1.665
89204SOL     OW69450   3.496   3.319  10.461
89204SOL    HW169451   3.552   3.393  10.436
89204SOL    HW269452   3.417   3.329  10.408
89205SOL     OW69453   6.038   5.286   7.983
89205SOL    HW169454   6.087   5.318   8.059
89205SOL    HW269455   6.059   5.348   7.913
89206SOL     OW69456   1.936  10.046   2.827
89206SOL    HW169457   1.939  10.098   2.908
89206SOL    HW269458   1.901   9.962   2.854
89207SOL     OW69459   2.688   3.950   1.430
89207SOL    HW169460   2.675   4.045   1.422
89207SOL    HW269461   2.776   3.936   1.395
89208SOL     OW69462   0.343   0.740  13.490
89208SOL    HW169463   0.313   0.735  13.399
89208SOL    HW269464   0.288   0.677  13.537
89209SOL     OW69465   6.262  14.488   0.619
89209SOL    HW169466   6.296  14.574   0.597
89209SOL    HW269467   6.339  14.436   0.642
89210SOL     OW69468  12.649   9.860   6.366
89210SOL    HW169469  12.577   9.886   6.424
89210SOL    HW269470  12.684   9.780   6.405
89211SOL     OW69471   2.508   9.026  14.419
89211SOL    HW169472   2.442   8.965  14.452
89211SOL    HW269473   2.536   9.075  14.496
89212SOL     OW69474  13.244   2.587  12.717
89212SOL    HW169475  13.219   2.663  12.771
89212SOL    HW269476  13.326   2.556  12.756
89213SOL     OW69477   2.723  11.818   6.821
89213SOL    HW169478   2.713  11.913   6.832
89213SOL    HW269479   2.755  11.788   6.906
89214SOL     OW69480   1.894   3.485  11.568
89214SOL    HW169481   1.928   3.450  11.650
89214SOL    HW269482   1.811   3.525  11.592
89215SOL     OW69483  10.787   8.575  10.777
89215SOL    HW169484  10.779   8.516  10.702
89215SOL    HW269485  10.854   8.639  10.750
89216SOL     OW69486   9.480   8.986   5.800
89216SOL    HW169487   9.442   9.015   5.717
89216SOL    HW269488   9.571   9.016   5.797
89217SOL     OW69489   0.882  11.207  11.420
89217SOL    HW169490   0.917  11.241  11.502
89217SOL    HW269491   0.846  11.121  11.442
89218SOL     OW69492  14.218  12.288   9.782
89218SOL    HW169493  14.212  12.204   9.827
89218SOL    HW269494  14.222  12.353   9.852
89219SOL     OW69495  10.345  11.178  11.287
89219SOL    HW169496  10.386  11.216  11.365
89219SOL    HW269497  10.302  11.253  11.245
89220SOL     OW69498   0.452   1.577  11.041
89220SOL    HW169499   0.390   1.647  11.064
89220SOL    HW269500   0.425   1.503  11.095
89221SOL     OW69501   3.621  14.839  13.946
89221SOL    HW169502   3.607  14.779  13.872
89221SOL    HW269503   3.716  14.851  13.950
89222SOL     OW69504   9.500   3.430   2.333
89222SOL    HW169505   9.535   3.512   2.368
89222SOL    HW269506   9.412   3.424   2.370
89223SOL     OW69507   6.865  13.517   4.489
89223SOL    HW169508   6.938  13.565   4.449
89223SOL    HW269509   6.795  13.581   4.498
89224SOL     OW69510   2.259   5.326   1.273
89224SOL    HW169511   2.307   5.287   1.346
89224SOL    HW269512   2.277   5.420   1.279
89225SOL     OW69513  12.146   1.817  14.459
89225SOL    HW169514  12.104   1.801  14.544
89225SOL    HW269515  12.074   1.819  14.397
89226SOL     OW69516   7.932   1.070   6.824
89226SOL    HW169517   7.837   1.060   6.815
89226SOL    HW269518   7.957   1.003   6.888
89227SOL     OW69519   6.310   5.613   4.048
89227SOL    HW169520   6.276   5.679   4.108
89227SOL    HW269521   6.245   5.608   3.978
89228SOL     OW69522  13.340   8.237  11.460
89228SOL    HW169523  13.427   8.262  11.429
89228SOL    HW269524  13.349   8.229  11.555
89229SOL     OW69525   7.590  12.360   4.838
89229SOL    HW169526   7.505  12.352   4.796
89229SOL    HW269527   7.643  12.412   4.778
89230SOL     OW69528   5.858   7.638  14.318
89230SOL    HW169529   5.842   7.671  14.406
89230SOL    HW269530   5.777   7.655  14.270
89231SOL     OW69531   0.047   1.138   0.398
89231SOL    HW169532   0.106   1.068   0.370
89231SOL    HW269533   0.019   1.179   0.316
89232SOL     OW69534  11.103  11.474   5.598
89232SOL    HW169535  11.057  11.557   5.609
89232SOL    HW269536  11.196  11.498   5.594
89233SOL     OW69537   6.270   6.693  13.346
89233SOL    HW169538   6.361   6.669  13.332
89233SOL    HW269539   6.228   6.612  13.375
89234SOL     OW69540  11.021   0.357   0.232
89234SOL    HW169541  11.100   0.322   0.273
89234SOL    HW269542  11.052   0.406   0.156
89235SOL     OW69543  13.922  10.045   3.443
89235SOL    HW169544  13.829  10.022   3.441
89235SOL    HW269545  13.968   9.961   3.436
89236SOL     OW69546   7.422   3.569  11.036
89236SOL    HW169547   7.457   3.597  11.120
89236SOL    HW269548   7.473   3.492  11.013
89237SOL     OW69549   2.678   7.484  10.670
89237SOL    HW169550   2.766   7.504  10.703
89237SOL    HW269551   2.624   7.472  10.748
89238SOL     OW69552   1.203  10.832   7.154
89238SOL    HW169553   1.271  10.896   7.131
89238SOL    HW269554   1.121  10.878   7.141
89239SOL     OW69555   1.669   5.564   5.615
89239SOL    HW169556   1.698   5.489   5.562
89239SOL    HW269557   1.591   5.595   5.570
89240SOL     OW69558   9.067   6.680   2.337
89240SOL    HW169559   9.026   6.766   2.330
89240SOL    HW269560   9.074   6.649   2.246
89241SOL     OW69561   0.444   0.206   4.462
89241SOL    HW169562   0.473   0.169   4.546
89241SOL    HW269563   0.498   0.162   4.397
89242SOL     OW69564   8.426  13.132   7.772
89242SOL    HW169565   8.429  13.199   7.704
89242SOL    HW269566   8.333  13.124   7.794
89243SOL     OW69567  11.701   0.595   5.928
89243SOL    HW169568  11.633   0.528   5.934
89243SOL    HW269569  11.688   0.649   6.006
89244SOL     OW69570  11.406   4.765   3.367
89244SOL    HW169571  11.467   4.814   3.422
89244SOL    HW269572  11.321   4.775   3.411
89245SOL     OW69573  12.948   0.314   4.263
89245SOL    HW169574  12.938   0.392   4.318
89245SOL    HW269575  12.894   0.333   4.186
89246SOL     OW69576   4.015   7.863   0.614
89246SOL    HW169577   3.926   7.849   0.581
89246SOL    HW269578   4.071   7.860   0.536
89247SOL     OW69579   9.930  11.586   2.166
89247SOL    HW169580   9.848  11.612   2.124
89247SOL    HW269581   9.906  11.567   2.256
89248SOL     OW69582   0.968  11.413   9.383
89248SOL    HW169583   0.873  11.406   9.370
89248SOL    HW269584   0.982  11.504   9.406
89249SOL     OW69585   4.454  12.864   8.257
89249SOL    HW169586   4.550  12.862   8.261
89249SOL    HW269587   4.427  12.775   8.279
89250SOL     OW69588  10.942   3.773   1.466
89250SOL    HW169589  10.969   3.828   1.539
89250SOL    HW269590  11.024   3.733   1.435
89251SOL     OW69591  14.280  12.270   5.306
89251SOL    HW169592  14.272  12.270   5.211
89251SOL    HW269593  14.365  12.228   5.323
89252SOL     OW69594   1.201   0.249   4.688
89252SOL    HW169595   1.115   0.235   4.728
89252SOL    HW269596   1.263   0.218   4.754
89253SOL     OW69597   4.925   5.065  12.000
89253SOL    HW169598   4.885   4.977  12.000
89253SOL    HW269599   4.956   5.076  11.910
89254SOL     OW69600   7.778  14.595   6.359
89254SOL    HW169601   7.714  14.665   6.348
89254SOL    HW269602   7.763  14.538   6.283
89255SOL     OW69603   1.343  10.683  13.279
89255SOL    HW169604   1.317  10.770  13.311
89255SOL    HW269605   1.406  10.652  13.344
89256SOL     OW69606   9.552  11.449   9.749
89256SOL    HW169607   9.589  11.495   9.673
89256SOL    HW269608   9.574  11.506   9.824
89257SOL     OW69609  10.392  13.823   4.983
89257SOL    HW169610  10.466  13.884   4.985
89257SOL    HW269611  10.412  13.759   5.051
89258SOL     OW69612   6.593   4.504  13.492
89258SOL    HW169613   6.535   4.539  13.425
89258SOL    HW269614   6.682   4.519  13.458
89259SOL     OW69615   0.330   0.987   9.552
89259SOL    HW169616   0.373   0.911   9.512
89259SOL    HW269617   0.354   1.060   9.495
89260SOL     OW69618   0.861  14.707   7.753
89260SOL    HW169619   0.899  14.736   7.836
89260SOL    HW269620   0.770  14.689   7.773
89261SOL     OW69621  11.568   1.403   2.184
89261SOL    HW169622  11.491   1.358   2.150
89261SOL    HW269623  11.545   1.423   2.275
89262SOL     OW69624   3.483   0.546   7.993
89262SOL    HW169625   3.493   0.575   8.084
89262SOL    HW269626   3.444   0.621   7.948
89263SOL     OW69627   1.691   9.382  13.458
89263SOL    HW169628   1.604   9.402  13.423
89263SOL    HW269629   1.714   9.298  13.417
89264SOL     OW69630  13.105   0.818  13.435
89264SOL    HW169631  13.195   0.817  13.402
89264SOL    HW269632  13.114   0.810  13.530
89265SOL     OW69633  10.254   8.247   5.888
89265SOL    HW169634  10.160   8.234   5.902
89265SOL    HW269635  10.291   8.159   5.899
89266SOL     OW69636  12.347  10.301  10.366
89266SOL    HW169637  12.388  10.333  10.447
89266SOL    HW269638  12.387  10.216  10.351
89267SOL     OW69639   6.410   4.575   8.766
89267SOL    HW169640   6.500   4.542   8.768
89267SOL    HW269641   6.372   4.535   8.688
89268SOL     OW69642  12.929   4.416   1.907
89268SOL    HW169643  12.885   4.469   1.973
89268SOL    HW269644  12.883   4.332   1.909
89269SOL     OW69645   9.985   6.576   5.397
89269SOL    HW169646   9.989   6.664   5.435
89269SOL    HW269647   9.906   6.537   5.434
89270SOL     OW69648  11.190  10.874   0.211
89270SOL    HW169649  11.161  10.954   0.167
89270SOL    HW269650  11.262  10.841   0.157
89271SOL     OW69651  11.409  13.677  14.491
89271SOL    HW169652  11.388  13.666  14.583
89271SOL    HW269653  11.481  13.740  14.489
89272SOL     OW69654   2.762   9.464   3.559
89272SOL    HW169655   2.836   9.413   3.591
89272SOL    HW269656   2.719   9.407   3.495
89273SOL     OW69657   9.707   5.870  14.074
89273SOL    HW169658   9.650   5.804  14.114
89273SOL    HW269659   9.647   5.938  14.043
89274SOL     OW69660   4.321  12.132   8.172
89274SOL    HW169661   4.317  12.064   8.240
89274SOL    HW269662   4.389  12.102   8.112
89275SOL     OW69663   9.054   6.941  12.729
89275SOL    HW169664   9.090   7.005  12.668
89275SOL    HW269665   9.091   6.857  12.701
89276SOL     OW69666   4.617   0.770  13.669
89276SOL    HW169667   4.676   0.770  13.744
89276SOL    HW269668   4.571   0.854  13.675
89277SOL     OW69669   7.383   5.624   1.391
89277SOL    HW169670   7.354   5.590   1.475
89277SOL    HW269671   7.304   5.663   1.353
89278SOL     OW69672   5.081  10.537  13.992
89278SOL    HW169673   5.030  10.509  13.916
89278SOL    HW269674   5.022  10.522  14.066
89279SOL     OW69675  12.874   0.993   0.932
89279SOL    HW169676  12.864   1.037   1.016
89279SOL    HW269677  12.829   1.051   0.870
89280SOL     OW69678   3.427  14.012   4.504
89280SOL    HW169679   3.491  14.009   4.433
89280SOL    HW269680   3.459  13.945   4.566
89281SOL     OW69681   0.552  10.308   7.474
89281SOL    HW169682   0.641  10.342   7.477
89281SOL    HW269683   0.544  10.256   7.554
89282SOL     OW69684   3.087   9.921  10.231
89282SOL    HW169685   3.159   9.984  10.229
89282SOL    HW269686   3.013   9.970  10.264
89283SOL     OW69687  13.771   0.993  13.900
89283SOL    HW169688  13.838   1.052  13.867
89283SOL    HW269689  13.699   1.050  13.927
89284SOL     OW69690   2.413  10.692   0.388
89284SOL    HW169691   2.437  10.769   0.337
89284SOL    HW269692   2.492  10.639   0.391
89285SOL     OW69693  13.777   9.683   6.996
89285SOL    HW169694  13.792   9.648   6.908
89285SOL    HW269695  13.736   9.768   6.982
89286SOL     OW69696   8.433   8.418  12.830
89286SOL    HW169697   8.428   8.509  12.800
89286SOL    HW269698   8.361   8.409  12.892
89287SOL     OW69699  12.803   0.703  14.248
89287SOL    HW169700  12.736   0.771  14.251
89287SOL    HW269701  12.804   0.666  14.336
89288SOL     OW69702   6.130   7.839  13.202
89288SOL    HW169703   6.111   7.751  13.234
89288SOL    HW269704   6.045   7.883  13.199
89289SOL     OW69705  10.469   8.065   5.966
89289SOL    HW169706  10.561   8.086   5.954
89289SOL    HW269707  10.454   8.074   6.060
89290SOL     OW69708   2.869   8.112   6.106
89290SOL    HW169709   2.886   8.197   6.065
89290SOL    HW269710   2.922   8.050   6.055
89291SOL     OW69711   4.629   7.658   6.411
89291SOL    HW169712   4.653   7.577   6.455
89291SOL    HW269713   4.573   7.630   6.338
89292SOL     OW69714   0.376   7.098   1.611
89292SOL    HW169715   0.333   7.028   1.561
89292SOL    HW269716   0.432   7.142   1.547
89293SOL     OW69717   2.488   6.574   0.307
89293SOL    HW169718   2.530   6.617   0.232
89293SOL    HW269719   2.539   6.494   0.320
89294SOL     OW69720  10.716  10.111  11.350
89294SOL    HW169721  10.653  10.047  11.314
89294SOL    HW269722  10.709  10.187  11.292
89295SOL     OW69723  11.163   4.128   7.716
89295SOL    HW169724  11.153   4.158   7.806
89295SOL    HW269725  11.086   4.073   7.700
89296SOL     OW69726   7.435   1.693   0.409
89296SOL    HW169727   7.502   1.630   0.436
89296SOL    HW269728   7.451   1.706   0.315
89297SOL     OW69729   3.208   5.178  14.754
89297SOL    HW169730   3.259   5.187  14.674
89297SOL    HW269731   3.190   5.268  14.781
89298SOL     OW69732  11.186   2.782   9.636
89298SOL    HW169733  11.233   2.755   9.715
89298SOL    HW269734  11.103   2.734   9.640
89299SOL     OW69735   4.040  12.217   0.306
89299SOL    HW169736   4.027  12.123   0.289
89299SOL    HW269737   4.034  12.258   0.220
89300SOL     OW69738   9.884   7.982   9.864
89300SOL    HW169739   9.898   8.076   9.866
89300SOL    HW269740   9.932   7.952   9.786
89301SOL     OW69741   5.349   3.945   0.924
89301SOL    HW169742   5.376   4.035   0.910
89301SOL    HW269743   5.281   3.950   0.992
89302SOL     OW69744  12.097   7.330  11.943
89302SOL    HW169745  12.081   7.424  11.929
89302SOL    HW269746  12.013   7.296  11.974
89303SOL     OW69747   2.060   0.721  12.693
89303SOL    HW169748   2.037   0.814  12.705
89303SOL    HW269749   2.045   0.682  12.779
89304SOL     OW69750  14.130   5.849   2.950
89304SOL    HW169751  14.123   5.755   2.961
89304SOL    HW269752  14.189   5.861   2.876
89305SOL     OW69753   8.341   2.535  13.140
89305SOL    HW169754   8.327   2.625  13.171
89305SOL    HW269755   8.344   2.482  13.220
89306SOL     OW69756   3.424  10.250   1.257
89306SOL    HW169757   3.490  10.313   1.229
89306SOL    HW269758   3.467  10.165   1.253
89307SOL     OW69759   4.120   1.445   3.060
89307SOL    HW169760   4.121   1.468   2.967
89307SOL    HW269761   4.190   1.380   3.070
89308SOL     OW69762   8.585  13.329   3.386
89308SOL    HW169763   8.594  13.321   3.481
89308SOL    HW269764   8.555  13.418   3.371
89309SOL     OW69765  12.160   4.885   1.226
89309SOL    HW169766  12.249   4.895   1.258
89309SOL    HW269767  12.160   4.929   1.141
89310SOL     OW69768   4.942   1.195   3.850
89310SOL    HW169769   4.969   1.234   3.766
89310SOL    HW269770   5.024   1.178   3.896
89311SOL     OW69771   5.462  11.997   3.268
89311SOL    HW169772   5.485  11.942   3.343
89311SOL    HW269773   5.379  11.961   3.236
89312SOL     OW69774   2.300   2.411   1.189
89312SOL    HW169775   2.206   2.426   1.176
89312SOL    HW269776   2.343   2.478   1.136
89313SOL     OW69777   9.916  12.162   8.070
89313SOL    HW169778   9.877  12.109   8.000
89313SOL    HW269779   9.857  12.149   8.145
89314SOL     OW69780  10.042  10.322   5.889
89314SOL    HW169781  10.087  10.388   5.942
89314SOL    HW269782  10.108  10.253   5.878
89315SOL     OW69783   5.630   2.594  12.879
89315SOL    HW169784   5.580   2.673  12.861
89315SOL    HW269785   5.613   2.575  12.972
89316SOL     OW69786   8.306   1.845   3.351
89316SOL    HW169787   8.372   1.799   3.300
89316SOL    HW269788   8.224   1.828   3.304
89317SOL     OW69789  12.059  10.855   3.459
89317SOL    HW169790  12.140  10.830   3.504
89317SOL    HW269791  12.018  10.918   3.519
89318SOL     OW69792   4.395   1.652   3.036
89318SOL    HW169793   4.428   1.712   3.103
89318SOL    HW269794   4.427   1.566   3.063
89319SOL     OW69795  13.585   5.568   4.547
89319SOL    HW169796  13.538   5.617   4.480
89319SOL    HW269797  13.668   5.543   4.506
89320SOL     OW69798  14.819   7.673   0.407
89320SOL    HW169799  14.726   7.690   0.422
89320SOL    HW269800  14.860   7.760   0.411
89321SOL     OW69801  10.325   2.376   5.883
89321SOL    HW169802  10.245   2.358   5.932
89321SOL    HW269803  10.360   2.290   5.861
89322SOL     OW69804   2.630  12.625   3.018
89322SOL    HW169805   2.539  12.645   3.040
89322SOL    HW269806   2.681  12.667   3.087
89323SOL     OW69807   1.741   6.482  13.931
89323SOL    HW169808   1.783   6.457  14.013
89323SOL    HW269809   1.812   6.516  13.877
89324SOL     OW69810   6.796   7.025  12.797
89324SOL    HW169811   6.752   6.984  12.723
89324SOL    HW269812   6.869   7.073  12.757
89325SOL     OW69813   0.232   7.217  12.417
89325SOL    HW169814   0.184   7.293  12.383
89325SOL    HW269815   0.172   7.178  12.480
89326SOL     OW69816   1.189   8.903   4.489
89326SOL    HW169817   1.282   8.885   4.503
89326SOL    HW269818   1.167   8.859   4.407
89327SOL     OW69819  10.616  12.520   2.398
89327SOL    HW169820  10.660  12.561   2.324
89327SOL    HW269821  10.670  12.444   2.419
89328SOL     OW69822   9.182   9.556   8.588
89328SOL    HW169823   9.130   9.497   8.533
89328SOL    HW269824   9.154   9.536   8.678
89329SOL     OW69825   8.402   6.168   6.034
89329SOL    HW169826   8.441   6.122   5.960
89329SOL    HW269827   8.325   6.212   5.997
89330SOL     OW69828  13.114   9.864   2.944
89330SOL    HW169829  13.096   9.936   3.004
89330SOL    HW269830  13.103   9.785   2.997
89331SOL     OW69831   6.275  12.852   1.746
89331SOL    HW169832   6.314  12.771   1.713
89331SOL    HW269833   6.185  12.851   1.712
89332SOL     OW69834  11.991  14.370  14.093
89332SOL    HW169835  11.951  14.378  14.006
89332SOL    HW269836  11.917  14.357  14.152
89333SOL     OW69837  13.005   6.258  13.932
89333SOL    HW169838  12.996   6.223  14.021
89333SOL    HW269839  12.916   6.283  13.907
89334SOL     OW69840   9.745   1.034   8.904
89334SOL    HW169841   9.774   1.028   8.995
89334SOL    HW269842   9.655   1.068   8.910
89335SOL     OW69843   2.838   1.343   8.029
89335SOL    HW169844   2.920   1.351   7.981
89335SOL    HW269845   2.864   1.322   8.119
89336SOL     OW69846  14.625   2.189  14.349
89336SOL    HW169847  14.624   2.169  14.256
89336SOL    HW269848  14.684   2.124  14.387
89337SOL     OW69849   3.923  14.863   7.092
89337SOL    HW169850   3.976   0.040   7.033
89337SOL    HW269851   3.957   0.006   7.179
89338SOL     OW69852   4.877   5.418   3.772
89338SOL    HW169853   4.818   5.433   3.845
89338SOL    HW269854   4.887   5.504   3.730
89339SOL     OW69855   5.238   9.993   0.974
89339SOL    HW169856   5.290   9.922   1.010
89339SOL    HW269857   5.259   9.993   0.880
89340SOL     OW69858   7.660  10.116  13.481
89340SOL    HW169859   7.753  10.106  13.459
89340SOL    HW269860   7.614  10.066  13.413
89341SOL     OW69861   6.150   0.895  13.501
89341SOL    HW169862   6.177   0.805  13.520
89341SOL    HW269863   6.158   0.904  13.406
89342SOL     OW69864   8.216  13.716   9.782
89342SOL    HW169865   8.309  13.690   9.780
89342SOL    HW269866   8.191  13.723   9.691
89343SOL     OW69867  14.011  13.554   5.100
89343SOL    HW169868  14.021  13.647   5.080
89343SOL    HW269869  14.052  13.509   5.026
89344SOL     OW69870   3.261   3.941   8.604
89344SOL    HW169871   3.296   3.894   8.681
89344SOL    HW269872   3.253   3.873   8.537
89345SOL     OW69873   1.410  13.105   4.980
89345SOL    HW169874   1.481  13.072   4.924
89345SOL    HW269875   1.418  13.200   4.975
89346SOL     OW69876  14.022   3.249  11.359
89346SOL    HW169877  14.055   3.276  11.273
89346SOL    HW269878  13.983   3.329  11.395
89347SOL     OW69879   2.597  14.076   8.226
89347SOL    HW169880   2.660  14.048   8.291
89347SOL    HW269881   2.549  14.148   8.268
89348SOL     OW69882   0.208   2.544   2.847
89348SOL    HW169883   0.184   2.584   2.764
89348SOL    HW269884   0.170   2.456   2.844
89349SOL     OW69885   6.623   1.867   7.283
89349SOL    HW169886   6.701   1.916   7.255
89349SOL    HW269887   6.552   1.903   7.231
89350SOL     OW69888  11.709   2.891  10.911
89350SOL    HW169889  11.669   2.957  10.854
89350SOL    HW269890  11.760   2.836  10.852
89351SOL     OW69891   9.775   4.111   7.537
89351SOL    HW169892   9.739   4.023   7.531
89351SOL    HW269893   9.700   4.167   7.557
89352SOL     OW69894   7.455  14.303   3.750
89352SOL    HW169895   7.502  14.317   3.667
89352SOL    HW269896   7.434  14.210   3.749
89353SOL     OW69897   9.284  12.165  13.342
89353SOL    HW169898   9.260  12.154  13.433
89353SOL    HW269899   9.322  12.252  13.337
89354SOL     OW69900  11.324  12.792  14.359
89354SOL    HW169901  11.260  12.742  14.410
89354SOL    HW269902  11.359  12.728  14.296
89355SOL     OW69903  10.100   0.534   5.890
89355SOL    HW169904  10.073   0.576   5.809
89355SOL    HW269905  10.106   0.605   5.953
89356SOL     OW69906   4.150   5.484   1.514
89356SOL    HW169907   4.188   5.570   1.533
89356SOL    HW269908   4.099   5.498   1.434
89357SOL     OW69909  14.719   7.857  11.933
89357SOL    HW169910  14.765   7.941  11.933
89357SOL    HW269911  14.724   7.826  12.023
89358SOL     OW69912   0.201  14.361   2.598
89358SOL    HW169913   0.226  14.284   2.547
89358SOL    HW269914   0.139  14.328   2.663
89359SOL     OW69915   4.190  14.773   4.986
89359SOL    HW169916   4.130  14.701   4.964
89359SOL    HW269917   4.213  14.758   5.078
89360SOL     OW69918   2.703   4.740   9.632
89360SOL    HW169919   2.762   4.664   9.632
89360SOL    HW269920   2.680   4.752   9.540
89361SOL     OW69921   8.728  10.323   5.715
89361SOL    HW169922   8.802  10.277   5.678
89361SOL    HW269923   8.687  10.259   5.774
89362SOL     OW69924   7.064   9.010   0.229
89362SOL    HW169925   7.031   8.997   0.140
89362SOL    HW269926   7.118   8.932   0.245
89363SOL     OW69927   8.297  11.009  14.128
89363SOL    HW169928   8.321  11.060  14.205
89363SOL    HW269929   8.232  11.063  14.082
89364SOL     OW69930  14.245  12.842  10.972
89364SOL    HW169931  14.253  12.919  11.028
89364SOL    HW269932  14.180  12.787  11.015
89365SOL     OW69933  14.321   2.766  11.757
89365SOL    HW169934  14.294   2.837  11.699
89365SOL    HW269935  14.416   2.777  11.766
89366SOL     OW69936   3.736  14.414   4.656
89366SOL    HW169937   3.695  14.465   4.726
89366SOL    HW269938   3.736  14.324   4.689
89367SOL     OW69939   9.791   6.901   5.469
89367SOL    HW169940   9.778   6.982   5.518
89367SOL    HW269941   9.703   6.869   5.450
89368SOL     OW69942   9.475  11.841   6.945
89368SOL    HW169943   9.468  11.824   6.851
89368SOL    HW269944   9.492  11.755   6.983
89369SOL     OW69945  11.046   9.398   2.381
89369SOL    HW169946  11.123   9.373   2.432
89369SOL    HW269947  10.978   9.336   2.408
89370SOL     OW69948   6.662  12.456   8.307
89370SOL    HW169949   6.594  12.406   8.263
89370SOL    HW269950   6.648  12.546   8.277
89371SOL     OW69951   0.846   9.721   6.870
89371SOL    HW169952   0.932   9.743   6.834
89371SOL    HW269953   0.844   9.625   6.869
89372SOL     OW69954  12.712  10.546  10.966
89372SOL    HW169955  12.662  10.628  10.961
89372SOL    HW269956  12.720  10.528  11.059
89373SOL     OW69957  11.598   7.075   8.494
89373SOL    HW169958  11.558   6.989   8.482
89373SOL    HW269959  11.526   7.138   8.481
89374SOL     OW69960   4.441  10.015  12.376
89374SOL    HW169961   4.531  10.001  12.404
89374SOL    HW269962   4.448  10.081  12.307
89375SOL     OW69963   9.279   9.372  12.868
89375SOL    HW169964   9.339   9.337  12.933
89375SOL    HW269965   9.311   9.337  12.784
89376SOL     OW69966   1.576  14.689   3.221
89376SOL    HW169967   1.529  14.606   3.222
89376SOL    HW269968   1.657  14.670   3.173
89377SOL     OW69969   4.161   2.050  14.391
89377SOL    HW169970   4.170   2.128  14.337
89377SOL    HW269971   4.233   2.056  14.453
89378SOL     OW69972   4.452   3.870  12.976
89378SOL    HW169973   4.444   3.908  12.888
89378SOL    HW269974   4.532   3.817  12.971
89379SOL     OW69975   2.541   5.932  11.598
89379SOL    HW169976   2.636   5.927  11.595
89379SOL    HW269977   2.512   5.884  11.520
89380SOL     OW69978   8.488   1.909   0.981
89380SOL    HW169979   8.541   1.975   0.937
89380SOL    HW269980   8.418   1.959   1.024
89381SOL     OW69981   6.665   5.116   9.166
89381SOL    HW169982   6.596   5.164   9.212
89381SOL    HW269983   6.729   5.183   9.142
89382SOL     OW69984   1.673  10.707  14.096
89382SOL    HW169985   1.678  10.772  14.025
89382SOL    HW269986   1.582  10.675  14.092
89383SOL     OW69987  11.071  14.467   2.873
89383SOL    HW169988  11.141  14.477   2.936
89383SOL    HW269989  11.104  14.401   2.811
89384SOL     OW69990   0.706   3.017   2.112
89384SOL    HW169991   0.747   3.007   2.198
89384SOL    HW269992   0.624   2.968   2.118
89385SOL     OW69993   4.125   2.388   9.081
89385SOL    HW169994   4.154   2.402   8.991
89385SOL    HW269995   4.063   2.459   9.098
89386SOL     OW69996   6.149   4.327  13.947
89386SOL    HW169997   6.072   4.355  13.897
89386SOL    HW269998   6.190   4.261  13.891
89387SOL     OW69999   6.827   0.624  12.165
89387SOL    HW170000   6.907   0.673  12.184
89387SOL    HW270001   6.758   0.690  12.162
89388SOL     OW70002   6.720  11.435   1.190
89388SOL    HW170003   6.816  11.439   1.195
89388SOL    HW270004   6.690  11.520   1.222
89389SOL     OW70005  12.178  12.871   8.719
89389SOL    HW170006  12.199  12.795   8.774
89389SOL    HW270007  12.223  12.854   8.636
89390SOL     OW70008   8.506   1.352   3.948
89390SOL    HW170009   8.554   1.295   3.888
89390SOL    HW270010   8.488   1.432   3.897
89391SOL     OW70011  13.413   4.214   2.294
89391SOL    HW170012  13.452   4.133   2.262
89391SOL    HW270013  13.484   4.259   2.339
89392SOL     OW70014   7.570  14.650   3.405
89392SOL    HW170015   7.622  14.728   3.385
89392SOL    HW270016   7.628  14.596   3.460
89393SOL     OW70017   2.777   4.918   4.966
89393SOL    HW170018   2.812   5.002   4.937
89393SOL    HW270019   2.849   4.856   4.953
89394SOL     OW70020   0.066  12.417   0.287
89394SOL    HW170021   0.006  12.471   0.236
89394SOL    HW270022   0.113  12.365   0.222
89395SOL     OW70023   3.001   0.523  13.269
89395SOL    HW170024   3.029   0.494  13.182
89395SOL    HW270025   2.911   0.553  13.256
89396SOL     OW70026  12.491  10.004  10.779
89396SOL    HW170027  12.523   9.922  10.817
89396SOL    HW270028  12.570  10.049  10.750
89397SOL     OW70029  11.350   3.935   9.409
89397SOL    HW170030  11.427   3.879   9.414
89397SOL    HW270031  11.307   3.910   9.327
89398SOL     OW70032   6.629  10.360   5.664
89398SOL    HW170033   6.692  10.367   5.593
89398SOL    HW270034   6.613  10.266   5.672
89399SOL     OW70035  12.782   3.623  10.609
89399SOL    HW170036  12.783   3.718  10.611
89399SOL    HW270037  12.689   3.600  10.616
89400SOL     OW70038   6.656   9.160   6.537
89400SOL    HW170039   6.686   9.103   6.466
89400SOL    HW270040   6.700   9.126   6.615
89401SOL     OW70041   8.709   4.486   7.463
89401SOL    HW170042   8.676   4.396   7.462
89401SOL    HW270043   8.789   4.483   7.410
89402SOL     OW70044   0.602  13.110  13.045
89402SOL    HW170045   0.559  13.145  13.123
89402SOL    HW270046   0.694  13.104  13.070
89403SOL     OW70047  11.038   2.886   1.856
89403SOL    HW170048  11.009   2.928   1.937
89403SOL    HW270049  11.120   2.844   1.879
89404SOL     OW70050   8.926   0.293   7.182
89404SOL    HW170051   8.936   0.376   7.228
89404SOL    HW270052   8.995   0.237   7.218
89405SOL     OW70053   7.680   7.596   3.310
89405SOL    HW170054   7.712   7.612   3.399
89405SOL    HW270055   7.723   7.663   3.257
89406SOL     OW70056   1.817  11.562  10.299
89406SOL    HW170057   1.867  11.485  10.271
89406SOL    HW270058   1.829  11.565  10.394
89407SOL     OW70059   0.616   6.355   8.112
89407SOL    HW170060   0.681   6.425   8.113
89407SOL    HW270061   0.662   6.278   8.144
89408SOL     OW70062  11.154  11.573  12.070
89408SOL    HW170063  11.247  11.552  12.078
89408SOL    HW270064  11.141  11.648  12.129
89409SOL     OW70065   7.096   8.101   6.468
89409SOL    HW170066   7.184   8.066   6.483
89409SOL    HW270067   7.040   8.024   6.464
89410SOL     OW70068  13.784   3.796   3.937
89410SOL    HW170069  13.867   3.810   3.982
89410SOL    HW270070  13.800   3.825   3.848
89411SOL     OW70071  11.886  11.956  14.804
89411SOL    HW170072  11.890  11.892  14.733
89411SOL    HW270073  11.973  11.996  14.805
89412SOL     OW70074   3.881   4.711  14.377
89412SOL    HW170075   3.886   4.780  14.444
89412SOL    HW270076   3.907   4.631  14.423
89413SOL     OW70077  14.022  11.929   8.163
89413SOL    HW170078  14.015  11.945   8.069
89413SOL    HW270079  13.984  12.008   8.203
89414SOL     OW70080  14.635   0.853  10.808
89414SOL    HW170081  14.707   0.828  10.866
89414SOL    HW270082  14.666   0.833  10.720
89415SOL     OW70083   3.635   6.056   0.702
89415SOL    HW170084   3.595   6.024   0.621
89415SOL    HW270085   3.725   6.024   0.699
89416SOL     OW70086  10.687   8.656  13.638
89416SOL    HW170087  10.744   8.655  13.562
89416SOL    HW270088  10.737   8.610  13.706
89417SOL     OW70089   0.101   1.123  11.016
89417SOL    HW170090   0.083   1.045  11.068
89417SOL    HW270091   0.139   1.089  10.934
89418SOL     OW70092  12.763  10.397   2.735
89418SOL    HW170093  12.793  10.462   2.672
89418SOL    HW270094  12.760  10.315   2.686
89419SOL     OW70095   7.769  11.308   2.387
89419SOL    HW170096   7.696  11.295   2.448
89419SOL    HW270097   7.739  11.377   2.328
89420SOL     OW70098   6.840   2.179   3.507
89420SOL    HW170099   6.834   2.094   3.463
89420SOL    HW270100   6.934   2.200   3.505
89421SOL     OW70101  11.490  11.306  11.058
89421SOL    HW170102  11.446  11.254  10.991
89421SOL    HW270103  11.499  11.247  11.133
89422SOL     OW70104   6.975   1.310   2.447
89422SOL    HW170105   7.047   1.294   2.508
89422SOL    HW270106   6.983   1.241   2.381
89423SOL     OW70107   2.800  11.009   7.645
89423SOL    HW170108   2.722  11.065   7.640
89423SOL    HW270109   2.827  10.997   7.554
89424SOL     OW70110  14.479   3.711   5.576
89424SOL    HW170111  14.440   3.724   5.490
89424SOL    HW270112  14.407   3.724   5.637
89425SOL     OW70113  12.796   5.159   6.435
89425SOL    HW170114  12.815   5.068   6.413
89425SOL    HW270115  12.860   5.210   6.386
89426SOL     OW70116   5.926   6.830  13.807
89426SOL    HW170117   5.836   6.801  13.823
89426SOL    HW270118   5.965   6.834  13.895
89427SOL     OW70119  10.554  11.097   1.333
89427SOL    HW170120  10.614  11.031   1.368
89427SOL    HW270121  10.511  11.134   1.410
89428SOL     OW70122   4.322  10.893  10.486
89428SOL    HW170123   4.255  10.958  10.465
89428SOL    HW270124   4.274  10.812  10.498
89429SOL     OW70125  11.988   4.295   7.596
89429SOL    HW170126  11.903   4.258   7.622
89429SOL    HW270127  12.050   4.224   7.612
89430SOL     OW70128  10.078   5.679   3.712
89430SOL    HW170129  10.095   5.671   3.806
89430SOL    HW270130  10.077   5.773   3.696
89431SOL     OW70131   4.902  11.061   1.883
89431SOL    HW170132   4.834  11.101   1.937
89431SOL    HW270133   4.891  11.100   1.797
89432SOL     OW70134  11.259   1.318   1.057
89432SOL    HW170135  11.306   1.243   1.095
89432SOL    HW270136  11.299   1.395   1.096
89433SOL     OW70137   8.925  12.364   7.984
89433SOL    HW170138   8.934  12.433   7.918
89433SOL    HW270139   8.885  12.291   7.938
89434SOL     OW70140   2.996  10.120   2.077
89434SOL    HW170141   3.053  10.047   2.054
89434SOL    HW270142   3.048  10.173   2.137
89435SOL     OW70143   4.281   6.527   3.648
89435SOL    HW170144   4.343   6.584   3.602
89435SOL    HW270145   4.316   6.519   3.736
89436SOL     OW70146  12.435   3.021   8.267
89436SOL    HW170147  12.371   3.091   8.274
89436SOL    HW270148  12.473   3.031   8.180
89437SOL     OW70149   4.470   4.395   7.833
89437SOL    HW170150   4.462   4.430   7.744
89437SOL    HW270151   4.550   4.434   7.867
89438SOL     OW70152   3.511   9.553  12.897
89438SOL    HW170153   3.427   9.546  12.943
89438SOL    HW270154   3.526   9.465  12.864
89439SOL     OW70155   8.756   5.269   8.084
89439SOL    HW170156   8.689   5.326   8.048
89439SOL    HW270157   8.725   5.180   8.067
89440SOL     OW70158  10.935   4.030  13.727
89440SOL    HW170159  10.878   3.997  13.796
89440SOL    HW270160  10.934   3.962  13.660
89441SOL     OW70161   9.678   3.093   2.568
89441SOL    HW170162   9.726   3.010   2.574
89441SOL    HW270163   9.684   3.118   2.476
89442SOL     OW70164   2.546   2.888   6.682
89442SOL    HW170165   2.543   2.819   6.615
89442SOL    HW270166   2.486   2.858   6.750
89443SOL     OW70167  14.875  13.786   9.560
89443SOL    HW170168   0.074  13.784   9.502
89443SOL    HW270169  14.799  13.779   9.502
89444SOL     OW70170  10.801  13.031   7.623
89444SOL    HW170171  10.883  13.073   7.651
89444SOL    HW270172  10.762  12.999   7.705
89445SOL     OW70173   9.873   3.358  12.761
89445SOL    HW170174   9.925   3.355  12.841
89445SOL    HW270175   9.823   3.276  12.762
89446SOL     OW70176   7.221   9.485   0.014
89446SOL    HW170177   7.241   9.574  14.859
89446SOL    HW270178   7.134   9.466  14.855
89447SOL     OW70179   0.234   9.864   8.006
89447SOL    HW170180   0.260   9.783   7.963
89447SOL    HW270181   0.290   9.869   8.083
89448SOL     OW70182   5.106   1.610   4.859
89448SOL    HW170183   5.106   1.696   4.816
89448SOL    HW270184   5.192   1.573   4.839
89449SOL     OW70185   5.973   9.683  13.312
89449SOL    HW170186   6.055   9.636  13.293
89449SOL    HW270187   5.990   9.728  13.395
89450SOL     OW70188  13.029  11.858   9.564
89450SOL    HW170189  13.049  11.773   9.524
89450SOL    HW270190  12.936  11.870   9.548
89451SOL     OW70191  11.443   3.909   5.124
89451SOL    HW170192  11.532   3.920   5.090
89451SOL    HW270193  11.415   3.824   5.089
89452SOL     OW70194   1.976   0.063   0.482
89452SOL    HW170195   1.901   0.034   0.534
89452SOL    HW270196   1.937   0.104   0.405
89453SOL     OW70197   9.065   7.945  14.589
89453SOL    HW170198   9.017   7.972  14.667
89453SOL    HW270199   9.142   7.899  14.623
89454SOL     OW70200   5.013   3.635   9.146
89454SOL    HW170201   4.927   3.658   9.183
89454SOL    HW270202   5.036   3.552   9.189
89455SOL     OW70203   8.378   9.874   2.662
89455SOL    HW170204   8.444   9.833   2.606
89455SOL    HW270205   8.299   9.875   2.609
89456SOL     OW70206   0.666   2.533   4.436
89456SOL    HW170207   0.622   2.557   4.518
89456SOL    HW270208   0.618   2.457   4.405
89457SOL     OW70209   5.383   4.298  10.290
89457SOL    HW170210   5.374   4.306  10.385
89457SOL    HW270211   5.438   4.221  10.277
89458SOL     OW70212   7.069   2.582   5.196
89458SOL    HW170213   7.139   2.636   5.159
89458SOL    HW270214   7.032   2.635   5.266
89459SOL     OW70215   9.999  14.529  13.253
89459SOL    HW170216   9.961  14.616  13.259
89459SOL    HW270217   9.926  14.472  13.232
89460SOL     OW70218   8.635   8.025   9.476
89460SOL    HW170219   8.582   8.065   9.546
89460SOL    HW270220   8.660   7.940   9.512
89461SOL     OW70221   7.802   6.027  11.775
89461SOL    HW170222   7.861   5.989  11.710
89461SOL    HW270223   7.857   6.043  11.851
89462SOL     OW70224  12.985   4.992  12.550
89462SOL    HW170225  12.990   4.910  12.601
89462SOL    HW270226  12.892   5.015  12.552
89463SOL     OW70227   0.216  12.137  14.623
89463SOL    HW170228   0.178  12.207  14.675
89463SOL    HW270229   0.235  12.177  14.538
89464SOL     OW70230  14.179   7.658   7.904
89464SOL    HW170231  14.189   7.585   7.843
89464SOL    HW270232  14.089   7.650   7.937
89465SOL     OW70233   0.182   3.177  11.199
89465SOL    HW170234   0.174   3.085  11.176
89465SOL    HW270235   0.254   3.210  11.144
89466SOL     OW70236  11.486  11.434   9.712
89466SOL    HW170237  11.470  11.418   9.619
89466SOL    HW270238  11.525  11.352   9.743
89467SOL     OW70239   0.554   7.991  10.111
89467SOL    HW170240   0.546   8.040  10.029
89467SOL    HW270241   0.591   7.907  10.085
89468SOL     OW70242   4.791   6.000  11.107
89468SOL    HW170243   4.858   5.932  11.117
89468SOL    HW270244   4.708   5.954  11.119
89469SOL     OW70245   7.541  11.376  14.181
89469SOL    HW170246   7.579  11.342  14.262
89469SOL    HW270247   7.583  11.461  14.168
89470SOL     OW70248   1.693   6.094  13.646
89470SOL    HW170249   1.744   6.052  13.715
89470SOL    HW270250   1.644   6.164  13.691
89471SOL     OW70251  11.064  11.788  10.877
89471SOL    HW170252  11.151  11.827  10.870
89471SOL    HW270253  11.057  11.761  10.969
89472SOL     OW70254   6.341  10.232  13.170
89472SOL    HW170255   6.302  10.281  13.097
89472SOL    HW270256   6.421  10.194  13.134
89473SOL     OW70257  11.296   7.963   4.837
89473SOL    HW170258  11.344   8.040   4.865
89473SOL    HW270259  11.222   7.998   4.787
89474SOL     OW70260  12.720  14.789   3.473
89474SOL    HW170261  12.710  14.694   3.472
89474SOL    HW270262  12.803  14.805   3.517
89475SOL     OW70263   5.694   8.773   8.308
89475SOL    HW170264   5.697   8.746   8.217
89475SOL    HW270265   5.654   8.698   8.354
89476SOL     OW70266  10.303   4.676  14.007
89476SOL    HW170267  10.395   4.691  13.985
89476SOL    HW270268  10.269   4.624  13.934
89477SOL     OW70269   2.639   0.056   3.641
89477SOL    HW170270   2.544   0.046   3.646
89477SOL    HW270271   2.674  14.854   3.683
89478SOL     OW70272  14.358   1.031   9.394
89478SOL    HW170273  14.432   1.057   9.338
89478SOL    HW270274  14.396   1.024   9.482
89479SOL     OW70275   2.087   5.401  10.676
89479SOL    HW170276   2.025   5.419  10.605
89479SOL    HW270277   2.162   5.360  10.634
89480SOL     OW70278   9.856  11.314  12.975
89480SOL    HW170279   9.870  11.219  12.977
89480SOL    HW270280   9.783  11.326  12.915
89481SOL     OW70281   3.527  14.144   1.082
89481SOL    HW170282   3.495  14.073   1.138
89481SOL    HW270283   3.622  14.143   1.094
89482SOL     OW70284  10.738   1.634  11.417
89482SOL    HW170285  10.787   1.637  11.499
89482SOL    HW270286  10.648   1.654  11.442
89483SOL     OW70287   4.453   5.534   1.121
89483SOL    HW170288   4.386   5.580   1.172
89483SOL    HW270289   4.487   5.468   1.181
89484SOL     OW70290  13.907   2.309   0.426
89484SOL    HW170291  13.832   2.261   0.390
89484SOL    HW270292  13.955   2.341   0.350
89485SOL     OW70293   7.191   9.374   9.052
89485SOL    HW170294   7.275   9.357   9.095
89485SOL    HW270295   7.127   9.327   9.105
89486SOL     OW70296  11.361  14.587  11.498
89486SOL    HW170297  11.331  14.669  11.458
89486SOL    HW270298  11.453  14.579  11.471
89487SOL     OW70299   5.378   5.109   2.704
89487SOL    HW170300   5.285   5.129   2.701
89487SOL    HW270301   5.384   5.032   2.760
89488SOL     OW70302  11.271   7.265  12.002
89488SOL    HW170303  11.314   7.198  11.947
89488SOL    HW270304  11.227   7.322  11.940
89489SOL     OW70305  11.310   1.520  13.850
89489SOL    HW170306  11.383   1.555  13.800
89489SOL    HW270307  11.330   1.541  13.941
89490SOL     OW70308   3.373   2.461   7.545
89490SOL    HW170309   3.392   2.554   7.540
89490SOL    HW270310   3.278   2.456   7.551
89491SOL     OW70311   9.129  10.974  13.500
89491SOL    HW170312   9.098  10.986  13.590
89491SOL    HW270313   9.201  11.036  13.490
89492SOL     OW70314  12.873   4.702  10.710
89492SOL    HW170315  12.781   4.694  10.732
89492SOL    HW270316  12.920   4.664  10.785
89493SOL     OW70317   2.932   8.439   2.801
89493SOL    HW170318   2.892   8.361   2.839
89493SOL    HW270319   2.937   8.501   2.874
89494SOL     OW70320   5.669   5.768  13.053
89494SOL    HW170321   5.633   5.818  13.127
89494SOL    HW270322   5.680   5.833  12.984
89495SOL     OW70323   4.273   4.507   2.843
89495SOL    HW170324   4.308   4.577   2.788
89495SOL    HW270325   4.260   4.548   2.929
89496SOL     OW70326   1.106  13.203   8.125
89496SOL    HW170327   1.200  13.188   8.120
89496SOL    HW270328   1.071  13.124   8.167
89497SOL     OW70329   6.011   3.347   0.553
89497SOL    HW170330   5.982   3.297   0.630
89497SOL    HW270331   6.049   3.281   0.495
89498SOL     OW70332   8.781   8.541  11.149
89498SOL    HW170333   8.719   8.583  11.208
89498SOL    HW270334   8.853   8.604  11.140
89499SOL     OW70335  10.590  14.654  12.595
89499SOL    HW170336  10.527  14.600  12.547
89499SOL    HW270337  10.538  14.726  12.630
89500SOL     OW70338  10.872   6.932  12.791
89500SOL    HW170339  10.779   6.952  12.774
89500SOL    HW270340  10.877   6.919  12.885
89501SOL     OW70341   6.995   5.289  14.042
89501SOL    HW170342   6.924   5.308  14.104
89501SOL    HW270343   7.043   5.371  14.035
89502SOL     OW70344   1.017  12.551  11.574
89502SOL    HW170345   0.993  12.509  11.656
89502SOL    HW270346   0.954  12.518  11.510
89503SOL     OW70347   4.452  12.787   6.639
89503SOL    HW170348   4.429  12.869   6.683
89503SOL    HW270349   4.448  12.720   6.708
89504SOL     OW70350   4.772  13.995   6.089
89504SOL    HW170351   4.773  13.980   5.995
89504SOL    HW270352   4.839  13.935   6.123
89505SOL     OW70353   4.790   5.066   1.492
89505SOL    HW170354   4.856   5.136   1.493
89505SOL    HW270355   4.819   5.008   1.422
89506SOL     OW70356   0.491   9.391   8.379
89506SOL    HW170357   0.406   9.348   8.387
89506SOL    HW270358   0.474   9.466   8.322
89507SOL     OW70359   1.057   6.558  13.000
89507SOL    HW170360   1.107   6.479  13.020
89507SOL    HW270361   1.062   6.565  12.904
89508SOL     OW70362  14.441   2.703   5.528
89508SOL    HW170363  14.379   2.695   5.455
89508SOL    HW270364  14.414   2.636   5.591
89509SOL     OW70365   9.913  13.882   4.274
89509SOL    HW170366   9.852  13.867   4.202
89509SOL    HW270367   9.887  13.966   4.311
89510SOL     OW70368   4.660   8.730   2.132
89510SOL    HW170369   4.591   8.672   2.164
89510SOL    HW270370   4.656   8.805   2.192
89511SOL     OW70371   7.861   8.348   8.129
89511SOL    HW170372   7.913   8.276   8.093
89511SOL    HW270373   7.778   8.307   8.154
89512SOL     OW70374  13.965   7.024   3.180
89512SOL    HW170375  14.015   7.020   3.262
89512SOL    HW270376  14.028   7.000   3.112
89513SOL     OW70377   5.600   3.329  12.315
89513SOL    HW170378   5.646   3.331  12.231
89513SOL    HW270379   5.651   3.386  12.372
89514SOL     OW70380  10.217   1.562   8.275
89514SOL    HW170381  10.177   1.596   8.195
89514SOL    HW270382  10.145   1.560   8.338
89515SOL     OW70383   8.150   5.943  13.322
89515SOL    HW170384   8.079   6.002  13.298
89515SOL    HW270385   8.225   5.974  13.271
89516SOL     OW70386  14.364  14.163   2.187
89516SOL    HW170387  14.436  14.121   2.234
89516SOL    HW270388  14.298  14.180   2.254
89517SOL     OW70389  11.220  11.978   6.154
89517SOL    HW170390  11.302  11.939   6.123
89517SOL    HW270391  11.162  11.975   6.078
89518SOL     OW70392   6.247  11.591  11.425
89518SOL    HW170393   6.258  11.618  11.516
89518SOL    HW270394   6.193  11.512  11.429
89519SOL     OW70395   8.606   6.423   3.533
89519SOL    HW170396   8.687   6.467   3.505
89519SOL    HW270397   8.547   6.433   3.459
89520SOL     OW70398   1.642   4.932   4.748
89520SOL    HW170399   1.661   4.880   4.826
89520SOL    HW270400   1.693   4.891   4.678
89521SOL     OW70401   8.976  10.272  10.163
89521SOL    HW170402   8.960  10.222  10.083
89521SOL    HW270403   8.999  10.360  10.132
89522SOL     OW70404   3.195   9.025   1.239
89522SOL    HW170405   3.274   9.025   1.186
89522SOL    HW270406   3.162   8.935   1.233
89523SOL     OW70407   2.316   4.615   7.100
89523SOL    HW170408   2.409   4.636   7.084
89523SOL    HW270409   2.288   4.681   7.164
89524SOL     OW70410  14.072   8.630   4.911
89524SOL    HW170411  14.064   8.552   4.965
89524SOL    HW270412  14.048   8.600   4.823
89525SOL     OW70413  12.000   0.423   4.218
89525SOL    HW170414  11.989   0.371   4.138
89525SOL    HW270415  12.069   0.485   4.197
89526SOL     OW70416  12.640  14.292   8.885
89526SOL    HW170417  12.594  14.210   8.865
89526SOL    HW270418  12.727  14.264   8.914
89527SOL     OW70419   9.532   1.326   1.875
89527SOL    HW170420   9.510   1.343   1.967
89527SOL    HW270421   9.599   1.392   1.854
89528SOL     OW70422  13.038   7.254  10.346
89528SOL    HW170423  13.108   7.243  10.410
89528SOL    HW270424  13.020   7.349  10.346
89529SOL     OW70425  12.803  14.019   3.064
89529SOL    HW170426  12.793  13.974   2.980
89529SOL    HW270427  12.738  14.089   3.061
89530SOL     OW70428  11.357   6.234  13.772
89530SOL    HW170429  11.286   6.296  13.789
89530SOL    HW270430  11.433   6.289  13.753
89531SOL     OW70431   8.070   7.311  12.280
89531SOL    HW170432   8.009   7.356  12.338
89531SOL    HW270433   8.036   7.325  12.192
89532SOL     OW70434  10.614   5.127  11.386
89532SOL    HW170435  10.520   5.144  11.380
89532SOL    HW270436  10.628   5.102  11.477
89533SOL     OW70437   7.564  13.190   9.255
89533SOL    HW170438   7.499  13.120   9.267
89533SOL    HW270439   7.521  13.268   9.289
89534SOL     OW70440  11.092  12.104   1.582
89534SOL    HW170441  11.146  12.053   1.523
89534SOL    HW270442  11.151  12.170   1.618
89535SOL     OW70443   9.023   0.793   0.709
89535SOL    HW170444   9.011   0.750   0.624
89535SOL    HW270445   8.952   0.857   0.713
89536SOL     OW70446   4.656   0.329   1.888
89536SOL    HW170447   4.702   0.408   1.861
89536SOL    HW270448   4.567   0.340   1.855
89537SOL     OW70449   9.575  10.789   7.427
89537SOL    HW170450   9.564  10.698   7.456
89537SOL    HW270451   9.518  10.840   7.484
89538SOL     OW70452   7.945   7.925   4.959
89538SOL    HW170453   7.980   7.962   5.040
89538SOL    HW270454   7.867   7.877   4.986
89539SOL     OW70455   5.432  12.135  13.341
89539SOL    HW170456   5.514  12.149  13.294
89539SOL    HW270457   5.412  12.220  13.381
89540SOL     OW70458   0.806   3.298   7.732
89540SOL    HW170459   0.820   3.245   7.810
89540SOL    HW270460   0.829   3.241   7.659
89541SOL     OW70461   2.875   2.442   5.213
89541SOL    HW170462   2.966   2.468   5.225
89541SOL    HW270463   2.832   2.520   5.180
89542SOL     OW70464   2.899  12.128   8.435
89542SOL    HW170465   2.958  12.162   8.501
89542SOL    HW270466   2.921  12.176   8.355
89543SOL     OW70467   9.636  14.156   8.345
89543SOL    HW170468   9.703  14.130   8.408
89543SOL    HW270469   9.630  14.251   8.354
89544SOL     OW70470   5.998   5.709  14.634
89544SOL    HW170471   5.925   5.770  14.629
89544SOL    HW270472   6.076   5.765  14.636
89545SOL     OW70473  11.849  12.413  12.556
89545SOL    HW170474  11.802  12.462  12.623
89545SOL    HW270475  11.806  12.327  12.554
89546SOL     OW70476   9.787   0.716  12.452
89546SOL    HW170477   9.860   0.655  12.440
89546SOL    HW270478   9.718   0.681  12.396
89547SOL     OW70479   7.761  12.998   6.578
89547SOL    HW170480   7.704  12.939   6.528
89547SOL    HW270481   7.723  12.999   6.666
89548SOL     OW70482   1.488   8.793   8.905
89548SOL    HW170483   1.554   8.751   8.960
89548SOL    HW270484   1.499   8.886   8.921
89549SOL     OW70485  13.622  11.082   8.017
89549SOL    HW170486  13.529  11.092   8.036
89549SOL    HW270487  13.635  10.988   8.007
89550SOL     OW70488   7.407   7.640  10.660
89550SOL    HW170489   7.377   7.684  10.581
89550SOL    HW270490   7.346   7.567  10.672
89551SOL     OW70491  12.976   4.969   7.851
89551SOL    HW170492  12.892   4.991   7.891
89551SOL    HW270493  13.038   4.973   7.924
89552SOL     OW70494  10.449   9.815   3.538
89552SOL    HW170495  10.391   9.771   3.475
89552SOL    HW270496  10.537   9.792   3.509
89553SOL     OW70497   2.012   4.384   0.379
89553SOL    HW170498   2.024   4.390   0.473
89553SOL    HW270499   1.954   4.458   0.357
89554SOL     OW70500   9.007  12.904  10.979
89554SOL    HW170501   8.947  12.832  10.959
89554SOL    HW270502   8.992  12.968  10.909
89555SOL     OW70503   4.727  10.818  12.903
89555SOL    HW170504   4.801  10.877  12.889
89555SOL    HW270505   4.758  10.754  12.967
89556SOL     OW70506  13.800   6.720   5.486
89556SOL    HW170507  13.744   6.672   5.547
89556SOL    HW270508  13.853   6.653   5.444
89557SOL     OW70509   7.702   5.840   3.833
89557SOL    HW170510   7.733   5.925   3.801
89557SOL    HW270511   7.614   5.859   3.868
89558SOL     OW70512   9.067   4.072   2.175
89558SOL    HW170513   9.150   4.107   2.143
89558SOL    HW270514   9.060   4.105   2.264
89559SOL     OW70515   4.677  14.134   3.769
89559SOL    HW170516   4.654  14.217   3.728
89559SOL    HW270517   4.638  14.139   3.857
89560SOL     OW70518   0.543   3.844   7.932
89560SOL    HW170519   0.558   3.757   7.896
89560SOL    HW270520   0.630   3.877   7.954
89561SOL     OW70521  11.502   5.175   8.966
89561SOL    HW170522  11.517   5.270   8.961
89561SOL    HW270523  11.463   5.162   9.053
89562SOL     OW70524   8.624   4.811  11.007
89562SOL    HW170525   8.571   4.815  10.927
89562SOL    HW270526   8.599   4.890  11.056
89563SOL     OW70527   8.261   3.276   9.924
89563SOL    HW170528   8.210   3.199   9.900
89563SOL    HW270529   8.303   3.251  10.006
89564SOL     OW70530   7.647  11.804  10.373
89564SOL    HW170531   7.726  11.825  10.424
89564SOL    HW270532   7.636  11.710  10.383
89565SOL     OW70533   6.075  13.740   0.213
89565SOL    HW170534   6.074  13.655   0.257
89565SOL    HW270535   5.997  13.784   0.244
89566SOL     OW70536  12.558   1.081   5.688
89566SOL    HW170537  12.513   1.159   5.722
89566SOL    HW270538  12.490   1.013   5.686
89567SOL     OW70539   6.787   8.745   0.435
89567SOL    HW170540   6.860   8.735   0.497
89567SOL    HW270541   6.794   8.836   0.404
89568SOL     OW70542  14.516   6.487   2.748
89568SOL    HW170543  14.589   6.549   2.754
89568SOL    HW270544  14.438   6.542   2.755
89569SOL     OW70545   4.448   6.871   9.912
89569SOL    HW170546   4.534   6.833   9.892
89569SOL    HW270547   4.464   6.965   9.913
89570SOL     OW70548   4.127   9.850   1.518
89570SOL    HW170549   4.065   9.822   1.585
89570SOL    HW270550   4.203   9.881   1.568
89571SOL     OW70551  14.207  11.929   2.567
89571SOL    HW170552  14.137  11.935   2.632
89571SOL    HW270553  14.259  11.853   2.594
89572SOL     OW70554   9.282   6.118   9.852
89572SOL    HW170555   9.328   6.119   9.768
89572SOL    HW270556   9.287   6.209   9.883
89573SOL     OW70557   6.822   9.563   6.464
89573SOL    HW170558   6.745   9.507   6.466
89573SOL    HW270559   6.897   9.504   6.472
89574SOL     OW70560   2.138  13.613   7.038
89574SOL    HW170561   2.095  13.586   6.956
89574SOL    HW270562   2.149  13.707   7.029
89575SOL     OW70563   3.602   1.765   3.306
89575SOL    HW170564   3.664   1.743   3.376
89575SOL    HW270565   3.656   1.805   3.238
89576SOL     OW70566  10.596   3.581  11.383
89576SOL    HW170567  10.592   3.513  11.450
89576SOL    HW270568  10.555   3.657  11.425
89577SOL     OW70569   0.656  10.928   4.062
89577SOL    HW170570   0.731  10.966   4.016
89577SOL    HW270571   0.595  10.903   3.993
89578SOL     OW70572   0.831   5.741   9.166
89578SOL    HW170573   0.762   5.701   9.112
89578SOL    HW270574   0.790   5.753   9.252
89579SOL     OW70575  10.155  10.102   0.199
89579SOL    HW170576  10.221  10.167   0.175
89579SOL    HW270577  10.117  10.135   0.280
89580SOL     OW70578   5.965  14.862  10.471
89580SOL    HW170579   5.910  14.790  10.500
89580SOL    HW270580   6.049  14.848  10.515
89581SOL     OW70581   2.302  11.072  12.623
89581SOL    HW170582   2.281  11.020  12.701
89581SOL    HW270583   2.316  11.160  12.657
89582SOL     OW70584  13.816   6.738   6.396
89582SOL    HW170585  13.764   6.808   6.356
89582SOL    HW270586  13.831   6.769   6.486
89583SOL     OW70587   4.602   0.015  12.866
89583SOL    HW170588   4.521  14.859  12.905
89583SOL    HW270589   4.671  14.849  12.916
89584SOL     OW70590   5.467  11.473   1.867
89584SOL    HW170591   5.406  11.420   1.816
89584SOL    HW270592   5.507  11.531   1.804
89585SOL     OW70593  11.865   2.247   6.939
89585SOL    HW170594  11.779   2.279   6.912
89585SOL    HW270595  11.917   2.245   6.859
89586SOL     OW70596  11.188   4.279  12.970
89586SOL    HW170597  11.281   4.294  12.951
89586SOL    HW270598  11.188   4.211  13.038
89587SOL     OW70599   2.078   7.290   3.547
89587SOL    HW170600   1.994   7.249   3.527
89587SOL    HW270601   2.074   7.374   3.501
89588SOL     OW70602   7.950   9.323  11.909
89588SOL    HW170603   7.963   9.365  11.824
89588SOL    HW270604   7.877   9.263  11.895
89589SOL     OW70605   7.966   3.872   2.359
89589SOL    HW170606   7.929   3.923   2.287
89589SOL    HW270607   7.946   3.924   2.437
89590SOL     OW70608  11.601  10.379  10.378
89590SOL    HW170609  11.516  10.383  10.335
89590SOL    HW270610  11.624  10.286  10.378
89591SOL     OW70611  14.322   2.891   4.279
89591SOL    HW170612  14.380   2.866   4.352
89591SOL    HW270613  14.357   2.974   4.248
89592SOL     OW70614   4.021   6.686   3.582
89592SOL    HW170615   4.086   6.628   3.621
89592SOL    HW270616   3.937   6.654   3.614
89593SOL     OW70617   2.300   7.172  11.240
89593SOL    HW170618   2.257   7.108  11.184
89593SOL    HW270619   2.394   7.153  11.231
89594SOL     OW70620   7.314   6.109  13.534
89594SOL    HW170621   7.405   6.095  13.508
89594SOL    HW270622   7.274   6.154  13.460
89595SOL     OW70623   9.230   5.343   4.992
89595SOL    HW170624   9.168   5.278   5.025
89595SOL    HW270625   9.308   5.330   5.045
89596SOL     OW70626   3.100   9.937  13.210
89596SOL    HW170627   3.181   9.945  13.160
89596SOL    HW270628   3.108   9.854  13.257
89597SOL     OW70629   7.523   5.527   0.923
89597SOL    HW170630   7.466   5.465   0.878
89597SOL    HW270631   7.531   5.493   1.012
89598SOL     OW70632  11.026   5.604  13.593
89598SOL    HW170633  11.089   5.675  13.605
89598SOL    HW270634  10.941   5.645  13.606
89599SOL     OW70635   8.518   7.474   5.546
89599SOL    HW170636   8.554   7.500   5.631
89599SOL    HW270637   8.429   7.511   5.546
89600SOL     OW70638   5.673   8.807  11.725
89600SOL    HW170639   5.712   8.770  11.804
89600SOL    HW270640   5.660   8.899  11.746
89601SOL     OW70641   7.640   2.315  11.810
89601SOL    HW170642   7.694   2.285  11.737
89601SOL    HW270643   7.569   2.365  11.769
89602SOL     OW70644  10.791  12.138   4.365
89602SOL    HW170645  10.810  12.048   4.393
89602SOL    HW270646  10.836  12.193   4.430
89603SOL     OW70647  13.029   4.742   2.682
89603SOL    HW170648  13.055   4.753   2.773
89603SOL    HW270649  12.968   4.813   2.665
89604SOL     OW70650   5.480   6.422   5.497
89604SOL    HW170651   5.415   6.492   5.486
89604SOL    HW270652   5.486   6.410   5.591
89605SOL     OW70653   1.753   8.281  13.824
89605SOL    HW170654   1.732   8.226  13.749
89605SOL    HW270655   1.711   8.238  13.899
89606SOL     OW70656  14.731  11.260   9.138
89606SOL    HW170657  14.676  11.249   9.060
89606SOL    HW270658  14.669  11.263   9.211
89607SOL     OW70659   7.475   1.648   4.364
89607SOL    HW170660   7.442   1.710   4.429
89607SOL    HW270661   7.415   1.574   4.369
89608SOL     OW70662   4.116   3.951   3.433
89608SOL    HW170663   4.169   3.921   3.360
89608SOL    HW270664   4.028   3.961   3.397
89609SOL     OW70665  10.039  14.106  11.182
89609SOL    HW170666  10.069  14.016  11.196
89609SOL    HW270667  10.041  14.117  11.087
89610SOL     OW70668  13.218   7.412  14.582
89610SOL    HW170669  13.291   7.470  14.564
89610SOL    HW270670  13.259   7.328  14.604
89611SOL     OW70671   3.329  10.422   0.879
89611SOL    HW170672   3.358  10.510   0.853
89611SOL    HW270673   3.391  10.363   0.838
89612SOL     OW70674   8.715  10.985   3.195
89612SOL    HW170675   8.776  10.983   3.121
89612SOL    HW270676   8.744  10.913   3.251
89613SOL     OW70677   6.991   5.513   4.800
89613SOL    HW170678   6.919   5.471   4.754
89613SOL    HW270679   6.958   5.527   4.889
89614SOL     OW70680   8.068   2.289  10.086
89614SOL    HW170681   8.124   2.295  10.009
89614SOL    HW270682   8.059   2.379  10.117
89615SOL     OW70683  10.768  11.127  13.761
89615SOL    HW170684  10.707  11.180  13.813
89615SOL    HW270685  10.847  11.122  13.815
89616SOL     OW70686   8.350  14.279   9.598
89616SOL    HW170687   8.409  14.230   9.541
89616SOL    HW270688   8.294  14.329   9.538
89617SOL     OW70689   9.947   8.993   1.783
89617SOL    HW170690   9.923   8.925   1.846
89617SOL    HW270691   9.927   8.954   1.698
89618SOL     OW70692   5.689   4.804  13.596
89618SOL    HW170693   5.711   4.889  13.558
89618SOL    HW270694   5.735   4.741  13.541
89619SOL     OW70695   4.304   3.502  11.854
89619SOL    HW170696   4.380   3.523  11.799
89619SOL    HW270697   4.272   3.587  11.884
89620SOL     OW70698   4.143   8.062  12.259
89620SOL    HW170699   4.082   8.128  12.224
89620SOL    HW270700   4.141   8.075  12.353
89621SOL     OW70701  13.527   4.416   6.282
89621SOL    HW170702  13.617   4.384   6.274
89621SOL    HW270703  13.489   4.404   6.195
89622SOL     OW70704   4.060  10.970   9.751
89622SOL    HW170705   3.972  10.936   9.768
89622SOL    HW270706   4.118  10.896   9.770
89623SOL     OW70707   6.933   3.083   8.157
89623SOL    HW170708   6.971   3.020   8.095
89623SOL    HW270709   6.905   3.030   8.231
89624SOL     OW70710  11.672  12.237  11.352
89624SOL    HW170711  11.665  12.332  11.341
89624SOL    HW270712  11.763  12.223  11.376
89625SOL     OW70713   7.237   9.284  14.127
89625SOL    HW170714   7.290   9.247  14.198
89625SOL    HW270715   7.150   9.249  14.142
89626SOL     OW70716   7.171   0.347   5.206
89626SOL    HW170717   7.174   0.252   5.221
89626SOL    HW270718   7.078   0.368   5.207
89627SOL     OW70719   2.642   5.267  11.517
89627SOL    HW170720   2.559   5.224  11.499
89627SOL    HW270721   2.629   5.357  11.487
89628SOL     OW70722   9.510  10.189  10.908
89628SOL    HW170723   9.428  10.175  10.861
89628SOL    HW270724   9.483  10.210  10.998
89629SOL     OW70725  11.534   5.000   4.418
89629SOL    HW170726  11.445   5.034   4.429
89629SOL    HW270727  11.587   5.078   4.404
89630SOL     OW70728   1.943   1.536  10.198
89630SOL    HW170729   2.009   1.554  10.265
89630SOL    HW270730   1.899   1.620  10.184
89631SOL     OW70731   0.935   3.127  14.358
89631SOL    HW170732   0.972   3.216  14.356
89631SOL    HW270733   0.894   3.117  14.272
89632SOL     OW70734   6.349  14.611   7.519
89632SOL    HW170735   6.343  14.558   7.440
89632SOL    HW270736   6.408  14.682   7.496
89633SOL     OW70737   5.720   2.356  14.449
89633SOL    HW170738   5.734   2.323  14.360
89633SOL    HW270739   5.686   2.444  14.438
89634SOL     OW70740  14.409   9.407   0.212
89634SOL    HW170741  14.452   9.438   0.292
89634SOL    HW270742  14.463   9.335   0.182
89635SOL     OW70743   5.681   7.207   1.248
89635SOL    HW170744   5.732   7.282   1.217
89635SOL    HW270745   5.736   7.131   1.228
89636SOL     OW70746   3.310  12.274  12.628
89636SOL    HW170747   3.232  12.316  12.591
89636SOL    HW270748   3.302  12.182  12.603
89637SOL     OW70749  14.680   8.648   1.203
89637SOL    HW170750  14.714   8.604   1.281
89637SOL    HW270751  14.587   8.659   1.220
89638SOL     OW70752   9.891  10.772   4.945
89638SOL    HW170753   9.834  10.696   4.930
89638SOL    HW270754   9.978  10.742   4.920
89639SOL     OW70755   8.784  11.111   9.702
89639SOL    HW170756   8.733  11.184   9.738
89639SOL    HW270757   8.765  11.113   9.608
89640SOL     OW70758   8.870   8.456  14.091
89640SOL    HW170759   8.955   8.427  14.057
89640SOL    HW270760   8.837   8.515  14.024
89641SOL     OW70761  11.790   2.826  12.433
89641SOL    HW170762  11.864   2.814  12.374
89641SOL    HW270763  11.723   2.765  12.401
89642SOL     OW70764   5.840   1.854  10.809
89642SOL    HW170765   5.867   1.785  10.870
89642SOL    HW270766   5.898   1.927  10.830
89643SOL     OW70767  12.461   2.644   5.097
89643SOL    HW170768  12.551   2.624   5.124
89643SOL    HW270769  12.411   2.644   5.178
89644SOL     OW70770   5.739  10.742   2.879
89644SOL    HW170771   5.818  10.786   2.909
89644SOL    HW270772   5.677  10.814   2.862
89645SOL     OW70773  12.796   7.440  11.419
89645SOL    HW170774  12.871   7.397  11.378
89645SOL    HW270775  12.792   7.403  11.507
89646SOL     OW70776   9.996  14.388   3.554
89646SOL    HW170777  10.020  14.348   3.471
89646SOL    HW270778  10.072  14.439   3.580
89647SOL     OW70779   1.011   5.296   5.785
89647SOL    HW170780   0.990   5.276   5.876
89647SOL    HW270781   0.970   5.381   5.770
89648SOL     OW70782   3.702   3.493   4.353
89648SOL    HW170783   3.623   3.440   4.359
89648SOL    HW270784   3.708   3.517   4.260
89649SOL     OW70785  11.143   6.399  13.007
89649SOL    HW170786  11.217   6.406  12.947
89649SOL    HW270787  11.117   6.490  13.024
89650SOL     OW70788   8.684   1.275   9.648
89650SOL    HW170789   8.759   1.315   9.605
89650SOL    HW270790   8.694   1.296   9.740
89651SOL     OW70791   4.166   0.664   7.198
89651SOL    HW170792   4.150   0.664   7.293
89651SOL    HW270793   4.251   0.708   7.189
89652SOL     OW70794   2.532   6.911   4.462
89652SOL    HW170795   2.526   6.818   4.485
89652SOL    HW270796   2.593   6.948   4.526
89653SOL     OW70797   7.728   8.106  13.119
89653SOL    HW170798   7.783   8.172  13.161
89653SOL    HW270799   7.783   8.071  13.049
89654SOL     OW70800   0.800   0.312   3.448
89654SOL    HW170801   0.757   0.341   3.367
89654SOL    HW270802   0.777   0.219   3.456
89655SOL     OW70803  13.532  11.117   6.401
89655SOL    HW170804  13.437  11.115   6.392
89655SOL    HW270805  13.547  11.131   6.494
89656SOL     OW70806  12.581  10.840   2.224
89656SOL    HW170807  12.538  10.925   2.209
89656SOL    HW270808  12.594  10.837   2.318
89657SOL     OW70809   3.437   5.989  13.087
89657SOL    HW170810   3.429   6.010  12.994
89657SOL    HW270811   3.350   5.959  13.113
89658SOL     OW70812   0.397   8.733  10.153
89658SOL    HW170813   0.330   8.713  10.218
89658SOL    HW270814   0.371   8.684  10.075
89659SOL     OW70815   1.207   9.886   4.991
89659SOL    HW170816   1.166   9.833   5.059
89659SOL    HW270817   1.218   9.826   4.918
89660SOL     OW70818  14.248   9.764   0.858
89660SOL    HW170819  14.255   9.753   0.764
89660SOL    HW270820  14.338   9.775   0.889
89661SOL     OW70821   5.904   9.666  13.732
89661SOL    HW170822   5.839   9.598  13.750
89661SOL    HW270823   5.944   9.684  13.816
89662SOL     OW70824   9.122  12.897   1.616
89662SOL    HW170825   9.197  12.858   1.659
89662SOL    HW270826   9.158  12.942   1.539
89663SOL     OW70827  10.146   1.605  11.872
89663SOL    HW170828  10.190   1.568  11.949
89663SOL    HW270829  10.080   1.664  11.907
89664SOL     OW70830  13.102  10.292   2.999
89664SOL    HW170831  13.027  10.286   2.940
89664SOL    HW270832  13.130  10.201   3.013
89665SOL     OW70833   5.733  12.059  12.269
89665SOL    HW170834   5.792  12.008  12.213
89665SOL    HW270835   5.728  12.008  12.350
89666SOL     OW70836   8.767   0.039   6.579
89666SOL    HW170837   8.700   0.098   6.614
89666SOL    HW270838   8.785  14.855   6.651
89667SOL     OW70839   9.076   0.180   6.031
89667SOL    HW170840   9.149   0.167   6.091
89667SOL    HW270841   9.024   0.249   6.071
89668SOL     OW70842   1.055   2.823   5.371
89668SOL    HW170843   0.998   2.809   5.447
89668SOL    HW270844   0.999   2.807   5.295
89669SOL     OW70845  11.409  14.603   1.643
89669SOL    HW170846  11.367  14.524   1.676
89669SOL    HW270847  11.372  14.674   1.696
89670SOL     OW70848   4.260   0.571  12.487
89670SOL    HW170849   4.177   0.525  12.497
89670SOL    HW270850   4.237   0.653  12.443
89671SOL     OW70851  12.431   1.255   2.296
89671SOL    HW170852  12.472   1.315   2.358
89671SOL    HW270853  12.341   1.286   2.288
89672SOL     OW70854   5.263   9.162   5.032
89672SOL    HW170855   5.317   9.176   4.955
89672SOL    HW270856   5.325   9.141   5.102
89673SOL     OW70857  12.778  10.613   5.090
89673SOL    HW170858  12.752  10.590   5.179
89673SOL    HW270859  12.732  10.551   5.035
89674SOL     OW70860   1.656   4.333   2.847
89674SOL    HW170861   1.642   4.376   2.763
89674SOL    HW270862   1.665   4.240   2.827
89675SOL     OW70863   1.749   6.337   4.095
89675SOL    HW170864   1.698   6.375   4.167
89675SOL    HW270865   1.839   6.367   4.111
89676SOL     OW70866  13.979   6.035  12.511
89676SOL    HW170867  14.067   5.999  12.503
89676SOL    HW270868  13.922   5.969  12.471
89677SOL     OW70869  10.777   3.221  13.811
89677SOL    HW170870  10.848   3.162  13.787
89677SOL    HW270871  10.702   3.192  13.758
89678SOL     OW70872  11.422  13.664   7.220
89678SOL    HW170873  11.387  13.678   7.132
89678SOL    HW270874  11.511  13.632   7.205
89679SOL     OW70875   4.770  11.593   5.564
89679SOL    HW170876   4.843  11.613   5.622
89679SOL    HW270877   4.780  11.500   5.544
89680SOL     OW70878   0.661   4.477   0.936
89680SOL    HW170879   0.734   4.500   0.878
89680SOL    HW270880   0.693   4.401   0.985
89681SOL     OW70881   5.922   4.923   1.214
89681SOL    HW170882   6.013   4.924   1.187
89681SOL    HW270883   5.925   4.924   1.310
89682SOL     OW70884   6.174  12.786   6.038
89682SOL    HW170885   6.136  12.869   6.011
89682SOL    HW270886   6.100  12.725   6.039
89683SOL     OW70887  12.007  11.616   1.744
89683SOL    HW170888  12.045  11.542   1.791
89683SOL    HW270889  12.009  11.689   1.807
89684SOL     OW70890   3.016   9.882   8.509
89684SOL    HW170891   2.998   9.977   8.510
89684SOL    HW270892   2.932   9.842   8.529
89685SOL     OW70893   1.452   6.906   1.126
89685SOL    HW170894   1.382   6.845   1.102
89685SOL    HW270895   1.425   6.989   1.086
89686SOL     OW70896  13.333   1.810  14.056
89686SOL    HW170897  13.402   1.870  14.027
89686SOL    HW270898  13.282   1.794  13.976
89687SOL     OW70899  11.966   5.481   9.300
89687SOL    HW170900  12.025   5.442   9.236
89687SOL    HW270901  12.002   5.455   9.385
89688SOL     OW70902   0.585  12.244   6.027
89688SOL    HW170903   0.584  12.235   6.122
89688SOL    HW270904   0.635  12.169   5.997
89689SOL     OW70905  13.909   6.660   2.195
89689SOL    HW170906  13.870   6.675   2.109
89689SOL    HW270907  13.985   6.718   2.197
89690SOL     OW70908   0.787   3.001   5.795
89690SOL    HW170909   0.808   2.955   5.876
89690SOL    HW270910   0.739   2.937   5.743
89691SOL     OW70911   1.828   1.769  11.695
89691SOL    HW170912   1.820   1.855  11.737
89691SOL    HW270913   1.893   1.723  11.747
89692SOL     OW70914  13.410   7.369   2.170
89692SOL    HW170915  13.494   7.391   2.210
89692SOL    HW270916  13.366   7.313   2.235
89693SOL     OW70917   0.283   5.597   9.897
89693SOL    HW170918   0.201   5.611   9.850
89693SOL    HW270919   0.333   5.539   9.840
89694SOL     OW70920   0.608  13.919  13.302
89694SOL    HW170921   0.668  13.979  13.258
89694SOL    HW270922   0.656  13.837  13.307
89695SOL     OW70923   6.554   3.244   2.433
89695SOL    HW170924   6.591   3.174   2.486
89695SOL    HW270925   6.623   3.268   2.371
89696SOL     OW70926  10.933   4.452   2.549
89696SOL    HW170927  10.970   4.539   2.558
89696SOL    HW270928  11.008   4.395   2.534
89697SOL     OW70929  13.106  11.530   8.139
89697SOL    HW170930  13.031  11.471   8.146
89697SOL    HW270931  13.088  11.582   8.060
89698SOL     OW70932  12.734  12.091   5.199
89698SOL    HW170933  12.741  11.998   5.220
89698SOL    HW270934  12.684  12.128   5.272
89699SOL     OW70935   8.032   7.370   8.967
89699SOL    HW170936   8.032   7.408   9.055
89699SOL    HW270937   7.963   7.417   8.920
89700SOL     OW70938  10.661  14.573  12.142
89700SOL    HW170939  10.721  14.550  12.213
89700SOL    HW270940  10.661  14.668  12.141
89701SOL     OW70941   6.902   0.903  11.730
89701SOL    HW170942   6.861   0.822  11.762
89701SOL    HW270943   6.856   0.973  11.776
89702SOL     OW70944   9.358   6.645   5.575
89702SOL    HW170945   9.276   6.660   5.529
89702SOL    HW270946   9.332   6.629   5.666
89703SOL     OW70947   2.611  12.288   9.567
89703SOL    HW170948   2.624  12.229   9.642
89703SOL    HW270949   2.515  12.294   9.558
89704SOL     OW70950  10.883   8.720  13.845
89704SOL    HW170951  10.955   8.672  13.885
89704SOL    HW270952  10.876   8.801  13.896
89705SOL     OW70953  12.421   7.590   5.914
89705SOL    HW170954  12.458   7.506   5.888
89705SOL    HW270955  12.391   7.577   6.004
89706SOL     OW70956  11.047   2.138   4.411
89706SOL    HW170957  11.000   2.103   4.488
89706SOL    HW270958  11.124   2.180   4.448
89707SOL     OW70959  10.244  13.806   7.728
89707SOL    HW170960  10.162  13.839   7.692
89707SOL    HW270961  10.225  13.787   7.820
89708SOL     OW70962  11.506   6.441  13.700
89708SOL    HW170963  11.564   6.513  13.724
89708SOL    HW270964  11.502   6.444  13.604
89709SOL     OW70965   8.411  14.503  14.170
89709SOL    HW170966   8.335  14.456  14.136
89709SOL    HW270967   8.405  14.591  14.131
89710SOL     OW70968   7.653   3.318   4.111
89710SOL    HW170969   7.567   3.360   4.111
89710SOL    HW270970   7.665   3.289   4.021
89711SOL     OW70971  11.330   4.959  13.402
89711SOL    HW170972  11.410   4.989  13.444
89711SOL    HW270973  11.280   5.039  13.385
89712SOL     OW70974  14.615   7.042   1.754
89712SOL    HW170975  14.607   7.073   1.664
89712SOL    HW270976  14.710   7.037   1.770
89713SOL     OW70977   1.867  11.759  13.259
89713SOL    HW170978   1.852  11.768  13.353
89713SOL    HW270979   1.919  11.835  13.235
89714SOL     OW70980   5.778  12.729   7.339
89714SOL    HW170981   5.707  12.673   7.306
89714SOL    HW270982   5.846  12.667   7.364
89715SOL     OW70983  14.176  12.356  11.189
89715SOL    HW170984  14.153  12.268  11.218
89715SOL    HW270985  14.152  12.412  11.262
89716SOL     OW70986   8.179  11.108   8.971
89716SOL    HW170987   8.271  11.132   8.959
89716SOL    HW270988   8.164  11.037   8.908
89717SOL     OW70989   4.160   6.065   7.690
89717SOL    HW170990   4.174   6.160   7.691
89717SOL    HW270991   4.248   6.028   7.683
89718SOL     OW70992   8.915   4.949   8.497
89718SOL    HW170993   8.926   5.016   8.429
89718SOL    HW270994   8.898   4.999   8.577
89719SOL     OW70995   0.236  12.971   1.265
89719SOL    HW170996   0.240  12.915   1.187
89719SOL    HW270997   0.263  13.057   1.234
89720SOL     OW70998   9.059  12.055   6.101
89720SOL    HW170999   9.094  12.144   6.111
89720SOL    HW271000   9.026  12.052   6.012
89721SOL     OW71001  10.396   7.176  13.081
89721SOL    HW171002  10.370   7.218  13.163
89721SOL    HW271003  10.436   7.093  13.107
89722SOL     OW71004   2.611  10.066  10.281
89722SOL    HW171005   2.619  10.008  10.205
89722SOL    HW271006   2.551  10.135  10.252
89723SOL     OW71007  13.842   0.410   3.890
89723SOL    HW171008  13.894   0.441   3.816
89723SOL    HW271009  13.832   0.486   3.947
89724SOL     OW71010   8.538  10.552  13.776
89724SOL    HW171011   8.580  10.606  13.709
89724SOL    HW271012   8.469  10.608  13.811
89725SOL     OW71013  12.204   8.864  13.736
89725SOL    HW171014  12.240   8.949  13.760
89725SOL    HW271015  12.271   8.801  13.764
89726SOL     OW71016   3.443   4.944   3.230
89726SOL    HW171017   3.404   4.893   3.160
89726SOL    HW271018   3.460   5.030   3.191
89727SOL     OW71019   1.949   4.959   5.119
89727SOL    HW171020   1.976   4.917   5.201
89727SOL    HW271021   1.865   5.000   5.140
89728SOL     OW71022   7.596   9.485   1.762
89728SOL    HW171023   7.564   9.529   1.841
89728SOL    HW271024   7.691   9.498   1.764
89729SOL     OW71025   3.154   9.424   5.983
89729SOL    HW171026   3.188   9.335   5.994
89729SOL    HW271027   3.082   9.415   5.921
89730SOL     OW71028   7.138  11.570   2.368
89730SOL    HW171029   7.091  11.648   2.335
89730SOL    HW271030   7.114  11.501   2.306
89731SOL     OW71031   8.529   0.755  14.367
89731SOL    HW171032   8.529   0.782  14.459
89731SOL    HW271033   8.442   0.779  14.336
89732SOL     OW71034  12.976   0.206   3.132
89732SOL    HW171035  12.928   0.288   3.123
89732SOL    HW271036  12.909   0.140   3.150
89733SOL     OW71037  10.911   6.721   0.471
89733SOL    HW171038  10.915   6.653   0.538
89733SOL    HW271039  10.966   6.791   0.504
89734SOL     OW71040   6.705  10.949   6.694
89734SOL    HW171041   6.749  10.889   6.754
89734SOL    HW271042   6.612  10.936   6.711
89735SOL     OW71043  10.369   7.783   4.614
89735SOL    HW171044  10.388   7.745   4.528
89735SOL    HW271045  10.383   7.877   4.602
89736SOL     OW71046  10.913   8.369  12.123
89736SOL    HW171047  10.872   8.299  12.174
89736SOL    HW271048  10.949   8.325  12.046
89737SOL     OW71049  13.708   5.360   2.376
89737SOL    HW171050  13.736   5.362   2.284
89737SOL    HW271051  13.790   5.366   2.425
89738SOL     OW71052   1.592  11.560   4.636
89738SOL    HW171053   1.609  11.554   4.730
89738SOL    HW271054   1.643  11.489   4.597
89739SOL     OW71055   2.897  10.514   8.890
89739SOL    HW171056   2.940  10.433   8.918
89739SOL    HW271057   2.959  10.555   8.831
89740SOL     OW71058  10.429  10.228   2.076
89740SOL    HW171059  10.422  10.208   1.982
89740SOL    HW271060  10.347  10.196   2.113
89741SOL     OW71061   0.443  14.476  10.419
89741SOL    HW171062   0.501  14.410  10.381
89741SOL    HW271063   0.488  14.505  10.498
89742SOL     OW71064   9.944  13.628   7.656
89742SOL    HW171065   9.957  13.723   7.652
89742SOL    HW271066  10.030  13.590   7.639
89743SOL     OW71067   9.338   2.642   4.902
89743SOL    HW171068   9.416   2.685   4.866
89743SOL    HW271069   9.359   2.626   4.994
89744SOL     OW71070   2.665  14.657   3.717
89744SOL    HW171071   2.745  14.669   3.768
89744SOL    HW271072   2.692  14.605   3.641
89745SOL     OW71073  11.839   7.715   0.154
89745SOL    HW171074  11.745   7.732   0.162
89745SOL    HW271075  11.878   7.801   0.140
89746SOL     OW71076   1.457   9.922  11.975
89746SOL    HW171077   1.507   9.841  11.984
89746SOL    HW271078   1.437   9.948  12.065
89747SOL     OW71079  13.203   1.484  14.331
89747SOL    HW171080  13.279   1.540  14.313
89747SOL    HW271081  13.129   1.532  14.293
89748SOL     OW71082  11.532  10.892  13.532
89748SOL    HW171083  11.471  10.966  13.533
89748SOL    HW271084  11.478  10.816  13.512
89749SOL     OW71085   9.670   6.358  11.608
89749SOL    HW171086   9.650   6.301  11.534
89749SOL    HW271087   9.612   6.433  11.597
89750SOL     OW71088   3.637   3.019   6.243
89750SOL    HW171089   3.677   3.099   6.211
89750SOL    HW271090   3.638   3.028   6.338
89751SOL     OW71091   4.395   0.459   7.210
89751SOL    HW171092   4.308   0.447   7.247
89751SOL    HW271093   4.413   0.552   7.222
89752SOL     OW71094   1.527   6.243   4.346
89752SOL    HW171095   1.590   6.171   4.340
89752SOL    HW271096   1.475   6.222   4.423
89753SOL     OW71097   9.883   9.430  14.452
89753SOL    HW171098   9.898   9.371  14.526
89753SOL    HW271099   9.814   9.489  14.482
89754SOL     OW71100  12.081   0.114  14.870
89754SOL    HW171101  12.112   0.092  14.782
89754SOL    HW271102  11.998   0.159  14.855
89755SOL     OW71103   1.779   6.511   2.564
89755SOL    HW171104   1.757   6.572   2.494
89755SOL    HW271105   1.791   6.426   2.521
89756SOL     OW71106   8.713  10.346   8.964
89756SOL    HW171107   8.804  10.366   8.940
89756SOL    HW271108   8.672  10.320   8.882
89757SOL     OW71109   2.758   6.681   2.194
89757SOL    HW171110   2.829   6.633   2.237
89757SOL    HW271111   2.687   6.683   2.259
89758SOL     OW71112   5.736   5.508   5.242
89758SOL    HW171113   5.700   5.428   5.280
89758SOL    HW271114   5.753   5.565   5.317
89759SOL     OW71115  11.105   4.442   2.265
89759SOL    HW171116  11.035   4.377   2.268
89759SOL    HW271117  11.064   4.519   2.226
89760SOL     OW71118   9.698   1.182  13.122
89760SOL    HW171119   9.740   1.259  13.082
89760SOL    HW271120   9.770   1.120  13.136
89761SOL     OW71121   1.256   4.928  13.089
89761SOL    HW171122   1.281   4.931  13.182
89761SOL    HW271123   1.168   4.888  13.090
89762SOL     OW71124   5.263   2.874   1.652
89762SOL    HW171125   5.327   2.897   1.585
89762SOL    HW271126   5.201   2.947   1.652
89763SOL     OW71127   6.331  10.311   1.677
89763SOL    HW171128   6.269  10.237   1.674
89763SOL    HW271129   6.408  10.275   1.722
89764SOL     OW71130  13.011  10.607  13.880
89764SOL    HW171131  12.959  10.546  13.828
89764SOL    HW271132  13.087  10.627  13.825
89765SOL     OW71133   7.265  13.639   5.386
89765SOL    HW171134   7.345  13.651   5.335
89765SOL    HW271135   7.213  13.717   5.368
89766SOL     OW71136   4.106  10.912   9.052
89766SOL    HW171137   4.149  10.989   9.017
89766SOL    HW271138   4.013  10.937   9.058
89767SOL     OW71139  11.188  12.337   5.902
89767SOL    HW171140  11.267  12.324   5.849
89767SOL    HW271141  11.219  12.332   5.992
89768SOL     OW71142   4.503   6.113   5.080
89768SOL    HW171143   4.583   6.094   5.031
89768SOL    HW271144   4.520   6.197   5.124
89769SOL     OW71145   3.018   9.563   2.229
89769SOL    HW171146   3.007   9.550   2.135
89769SOL    HW271147   3.104   9.526   2.249
89770SOL     OW71148   4.050  11.332   2.248
89770SOL    HW171149   4.066  11.238   2.240
89770SOL    HW271150   4.135  11.368   2.275
89771SOL     OW71151   0.193   4.016  14.295
89771SOL    HW171152   0.234   4.089  14.340
89771SOL    HW271153   0.167   3.956  14.365
89772SOL     OW71154   8.505  10.241   0.151
89772SOL    HW171155   8.539  10.284   0.073
89772SOL    HW271156   8.414  10.269   0.157
89773SOL     OW71157   3.245   2.810  14.045
89773SOL    HW171158   3.301   2.864  14.100
89773SOL    HW271159   3.159   2.851  14.050
89774SOL     OW71160  13.427   2.198   8.634
89774SOL    HW171161  13.492   2.212   8.703
89774SOL    HW271162  13.412   2.286   8.598
89775SOL     OW71163   6.370   1.497  13.030
89775SOL    HW171164   6.410   1.558  13.092
89775SOL    HW271165   6.277   1.520  13.031
89776SOL     OW71166   0.028   6.887   2.264
89776SOL    HW171167  14.865   6.883   2.177
89776SOL    HW271168  14.847   6.947   2.313
89777SOL     OW71169   8.226  11.464   2.494
89777SOL    HW171170   8.290  11.407   2.453
89777SOL    HW271171   8.230  11.442   2.587
89778SOL     OW71172   1.469   2.290  10.030
89778SOL    HW171173   1.564   2.292  10.036
89778SOL    HW271174   1.450   2.241   9.950
89779SOL     OW71175   2.811   4.116   6.177
89779SOL    HW171176   2.859   4.050   6.226
89779SOL    HW271177   2.790   4.074   6.094
89780SOL     OW71178   4.920   6.578  12.880
89780SOL    HW171179   4.851   6.620  12.828
89780SOL    HW271180   5.001   6.622  12.853
89781SOL     OW71181  10.229   1.920   0.770
89781SOL    HW171182  10.268   2.001   0.805
89781SOL    HW271183  10.280   1.850   0.810
89782SOL     OW71184   8.565   7.917   8.820
89782SOL    HW171185   8.528   7.999   8.787
89782SOL    HW271186   8.527   7.908   8.908
89783SOL     OW71187  10.917   8.960   4.676
89783SOL    HW171188  10.995   8.945   4.729
89783SOL    HW271189  10.930   9.046   4.637
89784SOL     OW71190   0.599  10.455  13.515
89784SOL    HW171191   0.651  10.375  13.514
89784SOL    HW271192   0.562  10.461  13.426
89785SOL     OW71193   0.420   0.774  12.320
89785SOL    HW171194   0.358   0.729  12.377
89785SOL    HW271195   0.465   0.704  12.273
89786SOL     OW71196   3.155   3.678   8.205
89786SOL    HW171197   3.168   3.633   8.121
89786SOL    HW271198   3.069   3.719   8.197
89787SOL     OW71199   4.484  13.254  10.714
89787SOL    HW171200   4.483  13.162  10.688
89787SOL    HW271201   4.564  13.263  10.766
89788SOL     OW71202  14.577  12.110   7.498
89788SOL    HW171203  14.617  12.097   7.584
89788SOL    HW271204  14.648  12.141   7.442
89789SOL     OW71205   6.144  11.575   6.131
89789SOL    HW171206   6.061  11.608   6.097
89789SOL    HW271207   6.128  11.561   6.224
89790SOL     OW71208  13.000  11.835  12.247
89790SOL    HW171209  13.021  11.751  12.288
89790SOL    HW271210  12.908  11.828  12.223
89791SOL     OW71211   1.672  13.682  13.175
89791SOL    HW171212   1.631  13.755  13.128
89791SOL    HW271213   1.673  13.610  13.112
89792SOL     OW71214   3.144  12.988  14.209
89792SOL    HW171215   3.131  13.048  14.135
89792SOL    HW271216   3.062  12.991  14.257
89793SOL     OW71217  11.842   6.325  13.383
89793SOL    HW171218  11.820   6.396  13.443
89793SOL    HW271219  11.936   6.313  13.394
89794SOL     OW71220   0.163   2.947   6.126
89794SOL    HW171221   0.248   2.934   6.168
89794SOL    HW271222   0.135   3.034   6.154
89795SOL     OW71223   4.513   7.383   5.157
89795SOL    HW171224   4.606   7.389   5.176
89795SOL    HW271225   4.482   7.474   5.158
89796SOL     OW71226   2.482   0.303   0.363
89796SOL    HW171227   2.415   0.258   0.414
89796SOL    HW271228   2.553   0.319   0.426
89797SOL     OW71229   6.165   7.189   5.893
89797SOL    HW171230   6.181   7.096   5.904
89797SOL    HW271231   6.115   7.214   5.971
89798SOL     OW71232  10.590   7.907   9.194
89798SOL    HW171233  10.508   7.873   9.159
89798SOL    HW271234  10.657   7.846   9.163
89799SOL     OW71235  10.244  10.497  14.305
89799SOL    HW171236  10.153  10.493  14.334
89799SOL    HW271237  10.293  10.449  14.372
89800SOL     OW71238  14.441   2.805   3.194
89800SOL    HW171239  14.524   2.843   3.167
89800SOL    HW271240  14.417   2.746   3.123
89801SOL     OW71241   1.100   1.223  13.738
89801SOL    HW171242   1.037   1.160  13.772
89801SOL    HW271243   1.172   1.169  13.705
89802SOL     OW71244  10.576  12.245  13.763
89802SOL    HW171245  10.497  12.216  13.717
89802SOL    HW271246  10.560  12.222  13.855
89803SOL     OW71247   2.542   7.785   0.487
89803SOL    HW171248   2.488   7.718   0.529
89803SOL    HW271249   2.546   7.758   0.396
89804SOL     OW71250   5.739   9.637  12.066
89804SOL    HW171251   5.787   9.649  11.984
89804SOL    HW271252   5.681   9.563  12.049
89805SOL     OW71253  13.536   3.667   3.563
89805SOL    HW171254  13.571   3.621   3.639
89805SOL    HW271255  13.613   3.696   3.514
89806SOL     OW71256  12.456   4.181  14.013
89806SOL    HW171257  12.460   4.268  14.053
89806SOL    HW271258  12.476   4.195  13.921
89807SOL     OW71259   0.004  12.452   3.478
89807SOL    HW171260   0.025  12.478   3.388
89807SOL    HW271261  14.826  12.373   3.467
89808SOL     OW71262  13.323   7.118  13.756
89808SOL    HW171263  13.322   7.163  13.671
89808SOL    HW271264  13.231   7.101  13.775
89809SOL     OW71265   0.048   9.574   6.134
89809SOL    HW171266   0.036   9.575   6.229
89809SOL    HW271267  14.836   9.587   6.099
89810SOL     OW71268   5.047   0.791  11.721
89810SOL    HW171269   4.974   0.767  11.664
89810SOL    HW271270   5.021   0.759  11.808
89811SOL     OW71271   9.903   2.968  12.696
89811SOL    HW171272   9.838   3.038  12.693
89811SOL    HW271273   9.897   2.926  12.610
89812SOL     OW71274   9.976   3.209   3.443
89812SOL    HW171275   9.973   3.240   3.353
89812SOL    HW271276   9.896   3.245   3.483
89813SOL     OW71277   9.231   9.107   5.670
89813SOL    HW171278   9.248   9.149   5.755
89813SOL    HW271279   9.192   9.023   5.692
89814SOL     OW71280   6.008   9.138   4.340
89814SOL    HW171281   6.021   9.054   4.295
89814SOL    HW271282   6.054   9.128   4.423
89815SOL     OW71283   4.598  11.524  10.230
89815SOL    HW171284   4.532  11.537  10.161
89815SOL    HW271285   4.600  11.429  10.243
89816SOL     OW71286  14.042   5.337   9.645
89816SOL    HW171287  14.031   5.401   9.715
89816SOL    HW271288  14.083   5.261   9.688
89817SOL     OW71289   9.456  14.844   8.531
89817SOL    HW171290   9.543  14.851   8.570
89817SOL    HW271291   9.431   0.059   8.513
89818SOL     OW71292  13.520   3.769  11.559
89818SOL    HW171293  13.596   3.738  11.509
89818SOL    HW271294  13.519   3.864  11.546
89819SOL     OW71295   5.751   5.772  11.646
89819SOL    HW171296   5.674   5.822  11.670
89819SOL    HW271297   5.719   5.708  11.582
89820SOL     OW71298   5.317  14.508   7.757
89820SOL    HW171299   5.224  14.504   7.777
89820SOL    HW271300   5.354  14.428   7.795
89821SOL     OW71301   4.255   4.363  13.191
89821SOL    HW171302   4.202   4.388  13.115
89821SOL    HW271303   4.273   4.445  13.236
89822SOL     OW71304   3.111   4.482  11.211
89822SOL    HW171305   3.126   4.430  11.291
89822SOL    HW271306   3.145   4.569  11.233
89823SOL     OW71307   6.619   1.900   9.167
89823SOL    HW171308   6.636   1.986   9.207
89823SOL    HW271309   6.533   1.875   9.201
89824SOL     OW71310  10.465   3.100  11.035
89824SOL    HW171311  10.466   3.122  10.942
89824SOL    HW271312  10.466   3.185  11.080
89825SOL     OW71313  13.396  13.883  12.272
89825SOL    HW171314  13.410  13.796  12.310
89825SOL    HW271315  13.310  13.910  12.304
89826SOL     OW71316   2.536  10.485   6.740
89826SOL    HW171317   2.610  10.475   6.680
89826SOL    HW271318   2.559  10.431   6.815
89827SOL     OW71319  10.674  11.342   5.363
89827SOL    HW171320  10.581  11.355   5.342
89827SOL    HW271321  10.716  11.425   5.338
89828SOL     OW71322   2.490   5.532  10.022
89828SOL    HW171323   2.429   5.480   9.970
89828SOL    HW271324   2.471   5.509  10.113
89829SOL     OW71325   2.010   5.853  11.415
89829SOL    HW171326   1.967   5.779  11.371
89829SOL    HW271327   2.053   5.814  11.491
89830SOL     OW71328   2.594   6.503   4.731
89830SOL    HW171329   2.681   6.505   4.772
89830SOL    HW271330   2.567   6.412   4.736
89831SOL     OW71331   5.257  13.509   1.682
89831SOL    HW171332   5.198  13.564   1.733
89831SOL    HW271333   5.305  13.571   1.626
89832SOL     OW71334   0.159  12.064  12.076
89832SOL    HW171335   0.082  12.119  12.063
89832SOL    HW271336   0.226  12.124  12.108
89833SOL     OW71337   9.229   6.054   4.694
89833SOL    HW171338   9.282   6.059   4.774
89833SOL    HW271339   9.250   6.133   4.646
89834SOL     OW71340   6.807  14.603   6.119
89834SOL    HW171341   6.734  14.625   6.178
89834SOL    HW271342   6.885  14.630   6.167
89835SOL     OW71343   7.446   8.222   9.821
89835SOL    HW171344   7.383   8.161   9.781
89835SOL    HW271345   7.529   8.175   9.818
89836SOL     OW71346   6.006   1.799   2.625
89836SOL    HW171347   6.026   1.732   2.560
89836SOL    HW271348   6.062   1.873   2.602
89837SOL     OW71349  12.626  10.905   7.557
89837SOL    HW171350  12.553  10.843   7.548
89837SOL    HW271351  12.641  10.909   7.652
89838SOL     OW71352  11.872  11.322  12.504
89838SOL    HW171353  11.963  11.322  12.536
89838SOL    HW271354  11.881  11.328  12.409
89839SOL     OW71355  11.801   4.744   2.720
89839SOL    HW171356  11.719   4.732   2.671
89839SOL    HW271357  11.776   4.796   2.796
89840SOL     OW71358   3.469   3.925   6.857
89840SOL    HW171359   3.477   4.020   6.842
89840SOL    HW271360   3.404   3.917   6.927
89841SOL     OW71361   9.422  10.048  10.095
89841SOL    HW171362   9.469  10.000  10.163
89841SOL    HW271363   9.355  10.098  10.143
89842SOL     OW71364  11.737   9.212   5.426
89842SOL    HW171365  11.775   9.127   5.444
89842SOL    HW271366  11.652   9.193   5.386
89843SOL     OW71367  13.159   1.186   7.782
89843SOL    HW171368  13.207   1.177   7.699
89843SOL    HW271369  13.206   1.254   7.830
89844SOL     OW71370  12.124  12.631  13.460
89844SOL    HW171371  12.194  12.572  13.433
89844SOL    HW271372  12.164  12.686  13.527
89845SOL     OW71373  10.869  11.447   1.008
89845SOL    HW171374  10.802  11.391   1.048
89845SOL    HW271375  10.822  11.525   0.980
89846SOL     OW71376   9.317   0.822   3.993
89846SOL    HW171377   9.243   0.877   4.021
89846SOL    HW271378   9.277   0.737   3.974
89847SOL     OW71379  14.635  14.521  13.473
89847SOL    HW171380  14.710  14.571  13.505
89847SOL    HW271381  14.559  14.562  13.515
89848SOL     OW71382  10.896   7.016   7.214
89848SOL    HW171383  10.959   7.056   7.275
89848SOL    HW271384  10.936   7.029   7.127
89849SOL     OW71385   2.068  13.815  11.260
89849SOL    HW171386   2.063  13.899  11.216
89849SOL    HW271387   1.987  13.769  11.236
89850SOL     OW71388   3.492   1.634   6.262
89850SOL    HW171389   3.458   1.662   6.347
89850SOL    HW271390   3.511   1.716   6.216
89851SOL     OW71391   2.918   8.639   2.380
89851SOL    HW171392   2.955   8.604   2.462
89851SOL    HW271393   2.899   8.561   2.328
89852SOL     OW71394   0.449   0.711   9.993
89852SOL    HW171395   0.533   0.754  10.010
89852SOL    HW271396   0.391   0.744  10.061
89853SOL     OW71397   1.359  12.768  12.734
89853SOL    HW171398   1.357  12.714  12.655
89853SOL    HW271399   1.276  12.747  12.778
89854SOL     OW71400  13.373   2.949   0.109
89854SOL    HW171401  13.420   2.968   0.189
89854SOL    HW271402  13.434   2.972   0.039
89855SOL     OW71403   1.186  13.164   4.026
89855SOL    HW171404   1.245  13.154   3.951
89855SOL    HW271405   1.159  13.256   4.024
89856SOL     OW71406  12.265  13.112   4.869
89856SOL    HW171407  12.299  13.201   4.858
89856SOL    HW271408  12.177  13.115   4.833
89857SOL     OW71409   5.321   6.580   1.659
89857SOL    HW171410   5.335   6.635   1.582
89857SOL    HW271411   5.276   6.503   1.625
89858SOL     OW71412   0.562  12.608   3.048
89858SOL    HW171413   0.554  12.617   3.143
89858SOL    HW271414   0.642  12.556   3.036
89859SOL     OW71415   1.683   7.827   6.621
89859SOL    HW171416   1.636   7.880   6.557
89859SOL    HW271417   1.740   7.772   6.568
89860SOL     OW71418  12.398   6.202  12.153
89860SOL    HW171419  12.380   6.282  12.202
89860SOL    HW271420  12.398   6.229  12.061
89861SOL     OW71421   6.853   7.864  14.187
89861SOL    HW171422   6.841   7.957  14.169
89861SOL    HW271423   6.822   7.853  14.277
89862SOL     OW71424   5.842   2.320  13.070
89862SOL    HW171425   5.858   2.399  13.020
89862SOL    HW271426   5.889   2.251  13.023
89863SOL     OW71427   9.075   1.262   8.935
89863SOL    HW171428   9.016   1.188   8.920
89863SOL    HW271429   9.131   1.263   8.858
89864SOL     OW71430   4.485   3.108   3.212
89864SOL    HW171431   4.559   3.050   3.230
89864SOL    HW271432   4.477   3.108   3.117
89865SOL     OW71433   5.004   8.585  13.569
89865SOL    HW171434   4.944   8.616  13.636
89865SOL    HW271435   4.948   8.547  13.502
89866SOL     OW71436  11.596   8.270  13.256
89866SOL    HW171437  11.618   8.363  13.260
89866SOL    HW271438  11.613   8.245  13.165
89867SOL     OW71439  12.101   5.102  11.435
89867SOL    HW171440  12.178   5.113  11.492
89867SOL    HW271441  12.138   5.085  11.349
89868SOL     OW71442   7.894   7.732  14.595
89868SOL    HW171443   7.801   7.707  14.591
89868SOL    HW271444   7.929   7.703  14.511
89869SOL     OW71445   2.781   7.696   3.526
89869SOL    HW171446   2.748   7.785   3.539
89869SOL    HW271447   2.753   7.649   3.604
89870SOL     OW71448   5.615  11.945   7.046
89870SOL    HW171449   5.632  11.945   7.140
89870SOL    HW271450   5.701  11.926   7.007
89871SOL     OW71451   3.363  11.089   1.127
89871SOL    HW171452   3.411  11.014   1.163
89871SOL    HW271453   3.400  11.165   1.172
89872SOL     OW71454  13.099   8.028   8.654
89872SOL    HW171455  13.168   8.039   8.719
89872SOL    HW271456  13.131   8.074   8.576
89873SOL     OW71457   8.077   7.288   5.687
89873SOL    HW171458   8.128   7.233   5.747
89873SOL    HW271459   8.002   7.234   5.663
89874SOL     OW71460   7.656   3.768   3.167
89874SOL    HW171461   7.665   3.725   3.082
89874SOL    HW271462   7.566   3.752   3.194
89875SOL     OW71463   8.876   7.106   4.608
89875SOL    HW171464   8.860   7.044   4.680
89875SOL    HW271465   8.964   7.082   4.576
89876SOL     OW71466   1.942   9.354   0.510
89876SOL    HW171467   1.867   9.376   0.564
89876SOL    HW271468   2.004   9.427   0.523
89877SOL     OW71469   1.657   3.727   9.350
89877SOL    HW171470   1.670   3.654   9.289
89877SOL    HW271471   1.588   3.780   9.310
89878SOL     OW71472   4.976  10.891  10.185
89878SOL    HW171473   5.024  10.844  10.118
89878SOL    HW271474   4.934  10.964  10.139
89879SOL     OW71475   1.357   6.938  13.493
89879SOL    HW171476   1.368   6.870  13.561
89879SOL    HW271477   1.263   6.936  13.474
89880SOL     OW71478  11.619   1.456   9.197
89880SOL    HW171479  11.649   1.367   9.216
89880SOL    HW271480  11.692   1.497   9.152
89881SOL     OW71481   7.397   3.049   8.926
89881SOL    HW171482   7.386   3.034   8.832
89881SOL    HW271483   7.318   3.012   8.966
89882SOL     OW71484   2.556  13.255   2.619
89882SOL    HW171485   2.482  13.304   2.582
89882SOL    HW271486   2.545  13.263   2.714
89883SOL     OW71487   4.275  12.863   1.949
89883SOL    HW171488   4.247  12.828   2.034
89883SOL    HW271489   4.297  12.785   1.898
89884SOL     OW71490   7.892   7.107   5.580
89884SOL    HW171491   7.915   7.135   5.492
89884SOL    HW271492   7.835   7.031   5.567
89885SOL     OW71493  13.997   9.638   5.217
89885SOL    HW171494  13.933   9.628   5.287
89885SOL    HW271495  14.044   9.719   5.238
89886SOL     OW71496  12.244   2.105   1.602
89886SOL    HW171497  12.289   2.120   1.518
89886SOL    HW271498  12.219   2.193   1.631
89887SOL     OW71499   4.395  11.803  14.589
89887SOL    HW171500   4.329  11.736  14.569
89887SOL    HW271501   4.426  11.833  14.504
89888SOL     OW71502   7.728  14.410  13.145
89888SOL    HW171503   7.775  14.434  13.065
89888SOL    HW271504   7.644  14.375  13.114
89889SOL     OW71505   5.545  12.733  10.437
89889SOL    HW171506   5.465  12.784  10.433
89889SOL    HW271507   5.591  12.752  10.356
89890SOL     OW71508   1.245   9.069   9.484
89890SOL    HW171509   1.270   9.103   9.570
89890SOL    HW271510   1.319   9.089   9.428
89891SOL     OW71511  12.238   0.732   7.867
89891SOL    HW171512  12.316   0.731   7.922
89891SOL    HW271513  12.262   0.788   7.793
89892SOL     OW71514  10.174   8.800   6.974
89892SOL    HW171515  10.214   8.790   7.060
89892SOL    HW271516  10.173   8.894   6.958
89893SOL     OW71517   7.227   5.829  12.448
89893SOL    HW171518   7.133   5.846  12.458
89893SOL    HW271519   7.269   5.905  12.487
89894SOL     OW71520  10.977   1.721  12.309
89894SOL    HW171521  11.043   1.652  12.303
89894SOL    HW271522  10.901   1.678  12.348
89895SOL     OW71523  14.544   6.879   2.638
89895SOL    HW171524  14.461   6.834   2.653
89895SOL    HW271525  14.610   6.819   2.674
89896SOL     OW71526   0.508   2.183  14.616
89896SOL    HW171527   0.590   2.163  14.570
89896SOL    HW271528   0.473   2.098  14.641
89897SOL     OW71529   3.270  11.449   2.444
89897SOL    HW171530   3.285  11.384   2.374
89897SOL    HW271531   3.318  11.415   2.519
89898SOL     OW71532   3.654   7.808   8.632
89898SOL    HW171533   3.627   7.765   8.551
89898SOL    HW271534   3.623   7.750   8.702
89899SOL     OW71535  11.466   5.321  10.058
89899SOL    HW171536  11.505   5.250  10.007
89899SOL    HW271537  11.372   5.301  10.059
89900SOL     OW71538   2.497  11.963  11.805
89900SOL    HW171539   2.510  12.042  11.753
89900SOL    HW271540   2.407  11.936  11.784
89901SOL     OW71541   4.212  14.353   3.432
89901SOL    HW171542   4.232  14.309   3.515
89901SOL    HW271543   4.216  14.284   3.366
89902SOL     OW71544   7.859   5.482  13.740
89902SOL    HW171545   7.817   5.501  13.656
89902SOL    HW271546   7.799   5.423  13.785
89903SOL     OW71547   0.968  12.843   6.442
89903SOL    HW171548   1.025  12.813   6.513
89903SOL    HW271549   0.946  12.933   6.466
89904SOL     OW71550  13.903  10.677   6.509
89904SOL    HW171551  13.945  10.745   6.457
89904SOL    HW271552  13.818  10.664   6.468
89905SOL     OW71553  11.179   7.787   2.875
89905SOL    HW171554  11.237   7.775   2.800
89905SOL    HW271555  11.151   7.698   2.898
89906SOL     OW71556  13.990  12.415   4.386
89906SOL    HW171557  13.989  12.506   4.355
89906SOL    HW271558  14.007  12.422   4.480
89907SOL     OW71559   3.613   1.354   9.602
89907SOL    HW171560   3.637   1.358   9.694
89907SOL    HW271561   3.662   1.426   9.561
89908SOL     OW71562   0.476   3.854   9.280
89908SOL    HW171563   0.437   3.934   9.315
89908SOL    HW271564   0.567   3.856   9.310
89909SOL     OW71565  11.261   3.765   8.158
89909SOL    HW171566  11.331   3.822   8.191
89909SOL    HW271567  11.202   3.754   8.232
89910SOL     OW71568   6.934   1.905  12.178
89910SOL    HW171569   7.030   1.912  12.177
89910SOL    HW271570   6.904   1.987  12.216
89911SOL     OW71571   8.003   0.735   4.698
89911SOL    HW171572   8.047   0.797   4.755
89911SOL    HW271573   7.945   0.685   4.756
89912SOL     OW71574   9.272   6.312   3.385
89912SOL    HW171575   9.274   6.405   3.362
89912SOL    HW271576   9.353   6.277   3.347
89913SOL     OW71577  12.789  11.345  12.526
89913SOL    HW171578  12.827  11.371  12.443
89913SOL    HW271579  12.863  11.343  12.587
89914SOL     OW71580  12.744   4.019   6.823
89914SOL    HW171581  12.649   4.030   6.823
89914SOL    HW271582  12.766   4.000   6.914
89915SOL     OW71583   0.122  10.351   7.524
89915SOL    HW171584   0.112  10.431   7.576
89915SOL    HW271585   0.195  10.304   7.565
89916SOL     OW71586   9.953   0.693   8.962
89916SOL    HW171587   9.964   0.785   8.935
89916SOL    HW271588  10.039   0.654   8.948
89917SOL     OW71589   1.178   7.477  13.428
89917SOL    HW171590   1.094   7.434  13.410
89917SOL    HW271591   1.232   7.409  13.467
89918SOL     OW71592   9.689   0.699   2.745
89918SOL    HW171593   9.734   0.782   2.758
89918SOL    HW271594   9.652   0.678   2.831
89919SOL     OW71595  14.663   9.150  10.206
89919SOL    HW171596  14.758   9.165  10.202
89919SOL    HW271597  14.654   9.067  10.254
89920SOL     OW71598   1.881   3.818   5.154
89920SOL    HW171599   1.808   3.826   5.215
89920SOL    HW271600   1.888   3.724   5.136
89921SOL     OW71601   5.069  13.135  11.721
89921SOL    HW171602   5.066  13.143  11.816
89921SOL    HW271603   5.040  13.045  11.704
89922SOL     OW71604   5.823  14.412   9.032
89922SOL    HW171605   5.754  14.377   8.976
89922SOL    HW271606   5.900  14.357   9.012
89923SOL     OW71607  12.571   9.679   9.357
89923SOL    HW171608  12.629   9.649   9.426
89923SOL    HW271609  12.509   9.608   9.345
89924SOL     OW71610  14.197   3.573   6.557
89924SOL    HW171611  14.246   3.532   6.628
89924SOL    HW271612  14.243   3.545   6.477
89925SOL     OW71613  12.286  10.208   8.276
89925SOL    HW171614  12.242  10.292   8.264
89925SOL    HW271615  12.215  10.145   8.286
89926SOL     OW71616   2.533   1.759   6.316
89926SOL    HW171617   2.461   1.770   6.378
89926SOL    HW271618   2.493   1.772   6.230
89927SOL     OW71619   1.786   0.545  11.493
89927SOL    HW171620   1.877   0.569  11.472
89927SOL    HW271621   1.760   0.608  11.560
89928SOL     OW71622   4.796   2.628   3.453
89928SOL    HW171623   4.852   2.552   3.468
89928SOL    HW271624   4.833   2.696   3.509
89929SOL     OW71625  11.968   5.320   6.884
89929SOL    HW171626  11.891   5.269   6.862
89929SOL    HW271627  11.933   5.402   6.919
89930SOL     OW71628   4.783   3.021  13.168
89930SOL    HW171629   4.840   2.970  13.226
89930SOL    HW271630   4.813   2.999  13.080
89931SOL     OW71631   8.967   5.694   4.232
89931SOL    HW171632   9.002   5.758   4.170
89931SOL    HW271633   8.944   5.618   4.178
89932SOL     OW71634   1.889  14.865   3.306
89932SOL    HW171635   1.808  14.861   3.256
89932SOL    HW271636   1.865  14.838   3.394
89933SOL     OW71637   0.231   7.550  12.236
89933SOL    HW171638   0.146   7.555  12.280
89933SOL    HW271639   0.283   7.490  12.289
89934SOL     OW71640   7.219   7.557  10.061
89934SOL    HW171641   7.311   7.580  10.072
89934SOL    HW271642   7.202   7.571   9.968
89935SOL     OW71643  10.698  14.570  10.915
89935SOL    HW171644  10.671  14.599  10.828
89935SOL    HW271645  10.790  14.595  10.922
89936SOL     OW71646  13.371  11.120  10.106
89936SOL    HW171647  13.371  11.150  10.197
89936SOL    HW271648  13.278  11.107  10.085
89937SOL     OW71649  10.597  12.237   5.785
89937SOL    HW171650  10.533  12.221   5.854
89937SOL    HW271651  10.649  12.310   5.817
89938SOL     OW71652   9.920   5.736   0.786
89938SOL    HW171653   9.909   5.732   0.691
89938SOL    HW271654   9.910   5.829   0.807
89939SOL     OW71655   4.307  10.953  14.717
89939SOL    HW171656   4.331  11.040  14.745
89939SOL    HW271657   4.377  10.926  14.658
89940SOL     OW71658   6.145   9.977  11.183
89940SOL    HW171659   6.181   9.897  11.222
89940SOL    HW271660   6.061   9.951  11.146
89941SOL     OW71661   6.749  12.775   8.589
89941SOL    HW171662   6.792  12.708   8.535
89941SOL    HW271663   6.714  12.727   8.664
89942SOL     OW71664   8.112  13.586  10.655
89942SOL    HW171665   8.121  13.491  10.667
89942SOL    HW271666   8.084  13.596  10.564
89943SOL     OW71667  13.800   1.882  12.285
89943SOL    HW171668  13.726   1.941  12.274
89943SOL    HW271669  13.781   1.833  12.364
89944SOL     OW71670   2.812   5.469  11.379
89944SOL    HW171671   2.907   5.462  11.383
89944SOL    HW271672   2.784   5.392  11.330
89945SOL     OW71673   2.001   3.272  14.758
89945SOL    HW171674   1.917   3.299  14.795
89945SOL    HW271675   1.977   3.212  14.686
89946SOL     OW71676   7.037   2.950   1.545
89946SOL    HW171677   7.103   2.918   1.483
89946SOL    HW271678   6.957   2.902   1.521
89947SOL     OW71679  12.685  12.433   6.758
89947SOL    HW171680  12.718  12.473   6.678
89947SOL    HW271681  12.764  12.406   6.805
89948SOL     OW71682   1.274   9.468   9.898
89948SOL    HW171683   1.319   9.394   9.941
89948SOL    HW271684   1.339   9.538   9.897
89949SOL     OW71685  12.911   6.611   6.344
89949SOL    HW171686  12.970   6.678   6.309
89949SOL    HW271687  12.969   6.539   6.369
89950SOL     OW71688   3.942   0.599   7.638
89950SOL    HW171689   3.948   0.640   7.724
89950SOL    HW271690   3.903   0.513   7.655
89951SOL     OW71691  14.062  11.841   5.586
89951SOL    HW171692  13.986  11.829   5.642
89951SOL    HW271693  14.040  11.795   5.505
89952SOL     OW71694  12.787   0.829   1.571
89952SOL    HW171695  12.746   0.744   1.588
89952SOL    HW271696  12.820   0.856   1.656
89953SOL     OW71697   2.628  12.141   7.948
89953SOL    HW171698   2.586  12.125   7.863
89953SOL    HW271699   2.616  12.235   7.962
89954SOL     OW71700   3.717   7.468   0.226
89954SOL    HW171701   3.787   7.514   0.180
89954SOL    HW271702   3.682   7.534   0.286
89955SOL     OW71703   3.630   4.851   4.562
89955SOL    HW171704   3.560   4.789   4.583
89955SOL    HW271705   3.684   4.804   4.498
89956SOL     OW71706   7.844   3.480   4.213
89956SOL    HW171707   7.775   3.416   4.226
89956SOL    HW271708   7.867   3.472   4.120
89957SOL     OW71709   6.949   2.832   7.268
89957SOL    HW171710   6.926   2.806   7.358
89957SOL    HW271711   7.045   2.821   7.265
89958SOL     OW71712   5.794   1.652   8.169
89958SOL    HW171713   5.752   1.731   8.202
89958SOL    HW271714   5.757   1.582   8.223
89959SOL     OW71715  11.522  13.020   7.006
89959SOL    HW171716  11.551  13.055   6.922
89959SOL    HW271717  11.553  12.929   7.007
89960SOL     OW71718   3.794  11.734   8.580
89960SOL    HW171719   3.757  11.815   8.544
89960SOL    HW271720   3.883  11.730   8.544
89961SOL     OW71721  11.587  13.296   4.981
89961SOL    HW171722  11.605  13.204   5.000
89961SOL    HW271723  11.580  13.337   5.067
89962SOL     OW71724   7.842  10.894  13.483
89962SOL    HW171725   7.833  10.803  13.510
89962SOL    HW271726   7.863  10.941  13.564
89963SOL     OW71727   8.987   9.937  10.841
89963SOL    HW171728   9.000   9.853  10.886
89963SOL    HW271729   8.946   9.914  10.758
89964SOL     OW71730  11.570   3.544  14.125
89964SOL    HW171731  11.616   3.465  14.097
89964SOL    HW271732  11.587   3.550  14.219
89965SOL     OW71733  10.999   3.226   0.319
89965SOL    HW171734  10.909   3.241   0.291
89965SOL    HW271735  11.046   3.203   0.239
89966SOL     OW71736   9.398  10.293   0.236
89966SOL    HW171737   9.425  10.218   0.183
89966SOL    HW271738   9.455  10.288   0.314
89967SOL     OW71739   0.612   8.287   8.504
89967SOL    HW171740   0.687   8.229   8.485
89967SOL    HW271741   0.647   8.375   8.491
89968SOL     OW71742   2.694  14.329   1.254
89968SOL    HW171743   2.604  14.359   1.265
89968SOL    HW271744   2.688  14.234   1.258
89969SOL     OW71745   4.415   9.474   5.342
89969SOL    HW171746   4.420   9.394   5.290
89969SOL    HW271747   4.383   9.541   5.281
89970SOL     OW71748  12.144   2.677  12.959
89970SOL    HW171749  12.151   2.637  13.045
89970SOL    HW271750  12.221   2.646  12.912
89971SOL     OW71751   3.568   0.487  13.052
89971SOL    HW171752   3.520   0.478  13.135
89971SOL    HW271753   3.538   0.414  12.998
89972SOL     OW71754  12.074   2.955   4.212
89972SOL    HW171755  12.138   2.912   4.155
89972SOL    HW271756  12.035   2.884   4.263
89973SOL     OW71757   5.505  12.921   3.684
89973SOL    HW171758   5.543  12.941   3.770
89973SOL    HW271759   5.416  12.955   3.689
89974SOL     OW71760  13.171   2.744   7.949
89974SOL    HW171761  13.140   2.797   7.876
89974SOL    HW271762  13.145   2.793   8.027
89975SOL     OW71763  12.943  10.150  12.425
89975SOL    HW171764  12.964  10.208  12.498
89975SOL    HW271765  12.861  10.183  12.391
89976SOL     OW71766  10.815   7.198   0.800
89976SOL    HW171767  10.811   7.274   0.858
89976SOL    HW271768  10.771   7.227   0.720
89977SOL     OW71769   4.472   1.434   7.741
89977SOL    HW171770   4.463   1.358   7.799
89977SOL    HW271771   4.443   1.508   7.794
89978SOL     OW71772   3.983   4.224   1.573
89978SOL    HW171773   3.899   4.240   1.532
89978SOL    HW271774   3.962   4.181   1.656
89979SOL     OW71775   6.214  12.071  13.850
89979SOL    HW171776   6.308  12.082  13.839
89979SOL    HW271777   6.180  12.068  13.760
89980SOL     OW71778  11.027   5.621   9.027
89980SOL    HW171779  11.084   5.561   8.979
89980SOL    HW271780  10.985   5.675   8.959
89981SOL     OW71781  14.572   3.002   5.405
89981SOL    HW171782  14.555   2.920   5.453
89981SOL    HW271783  14.536   2.986   5.317
89982SOL     OW71784  13.067  14.623   9.056
89982SOL    HW171785  13.095  14.555   9.117
89982SOL    HW271786  13.147  14.670   9.033
89983SOL     OW71787   1.197   0.310  11.632
89983SOL    HW171788   1.228   0.356  11.554
89983SOL    HW271789   1.275   0.269  11.668
89984SOL     OW71790  12.728   4.914  12.481
89984SOL    HW171791  12.664   4.844  12.496
89984SOL    HW271792  12.762   4.898  12.393
89985SOL     OW71793   7.181  13.473   9.565
89985SOL    HW171794   7.132  13.487   9.484
89985SOL    HW271795   7.135  13.525   9.631
89986SOL     OW71796   0.673  13.511   6.821
89986SOL    HW171797   0.604  13.482   6.880
89986SOL    HW271798   0.709  13.430   6.784
89987SOL     OW71799  13.360   4.089   4.403
89987SOL    HW171800  13.328   4.169   4.446
89987SOL    HW271801  13.456   4.097   4.407
89988SOL     OW71802   3.800   4.772  11.218
89988SOL    HW171803   3.859   4.829  11.170
89988SOL    HW271804   3.820   4.787  11.310
89989SOL     OW71805  10.108   7.496  14.803
89989SOL    HW171806  10.172   7.565  14.821
89989SOL    HW271807  10.035   7.514  14.861
89990SOL     OW71808  13.913   6.481  13.980
89990SOL    HW171809  13.834   6.524  14.015
89990SOL    HW271810  13.963   6.457  14.058
89991SOL     OW71811   1.405   7.197   7.732
89991SOL    HW171812   1.393   7.224   7.641
89991SOL    HW271813   1.465   7.123   7.728
89992SOL     OW71814   4.691   4.155  10.159
89992SOL    HW171815   4.764   4.094  10.167
89992SOL    HW271816   4.700   4.191  10.070
89993SOL     OW71817   2.236  11.953   6.791
89993SOL    HW171818   2.309  12.012   6.774
89993SOL    HW271819   2.229  11.951   6.886
89994SOL     OW71820  12.882   4.793   4.099
89994SOL    HW171821  12.891   4.698   4.092
89994SOL    HW271822  12.972   4.825   4.105
89995SOL     OW71823   3.973   6.735   9.901
89995SOL    HW171824   3.960   6.680   9.823
89995SOL    HW271825   3.916   6.695   9.967
89996SOL     OW71826   2.536  12.758  11.751
89996SOL    HW171827   2.603  12.735  11.816
89996SOL    HW271828   2.585  12.774  11.670
89997SOL     OW71829   2.008   6.921   7.441
89997SOL    HW171830   2.035   6.955   7.527
89997SOL    HW271831   2.090   6.896   7.398
89998SOL     OW71832   0.005  12.994   8.025
89998SOL    HW171833   0.100  13.000   8.023
89998SOL    HW271834  14.859  12.999   8.118
89999SOL     OW71835   7.182   8.308   3.955
89999SOL    HW171836   7.107   8.265   3.914
89999SOL    HW271837   7.247   8.239   3.967
90000SOL     OW71838   2.459   7.907   8.950
90000SOL    HW171839   2.553   7.918   8.935
90000SOL    HW271840   2.440   7.817   8.926
90001SOL     OW71841   6.092   4.982   6.047
90001SOL    HW171842   6.163   5.027   6.003
90001SOL    HW271843   6.012   5.023   6.013
90002SOL     OW71844   8.603   6.562  13.586
90002SOL    HW171845   8.649   6.644  13.603
90002SOL    HW271846   8.555   6.578  13.505
90003SOL     OW71847   4.649  12.833  10.056
90003SOL    HW171848   4.580  12.766  10.054
90003SOL    HW271849   4.684  12.834   9.966
90004SOL     OW71850   7.051   2.916   4.458
90004SOL    HW171851   7.009   3.001   4.446
90004SOL    HW271852   7.045   2.899   4.552
90005SOL     OW71853   9.419   1.368   7.116
90005SOL    HW171854   9.353   1.360   7.185
90005SOL    HW271855   9.450   1.458   7.123
90006SOL     OW71856   8.748   0.377   3.102
90006SOL    HW171857   8.759   0.450   3.041
90006SOL    HW271858   8.662   0.391   3.142
90007SOL     OW71859  10.637   3.214  13.388
90007SOL    HW171860  10.554   3.210  13.436
90007SOL    HW271861  10.679   3.294  13.419
90008SOL     OW71862   7.749   9.318   4.876
90008SOL    HW171863   7.688   9.353   4.811
90008SOL    HW271864   7.703   9.329   4.959
90009SOL     OW71865   4.768   7.746  10.996
90009SOL    HW171866   4.851   7.702  11.011
90009SOL    HW271867   4.772   7.776  10.905
90010SOL     OW71868   8.042  11.128   8.612
90010SOL    HW171869   8.101  11.078   8.669
90010SOL    HW271870   7.967  11.069   8.599
90011SOL     OW71871   8.838   2.016   1.280
90011SOL    HW171872   8.795   1.938   1.246
90011SOL    HW271873   8.926   1.986   1.304
90012SOL     OW71874   8.585   6.247  10.022
90012SOL    HW171875   8.543   6.312  10.077
90012SOL    HW271876   8.587   6.286   9.935
90013SOL     OW71877  13.772  12.608   7.003
90013SOL    HW171878  13.828  12.591   7.079
90013SOL    HW271879  13.761  12.703   7.003
90014SOL     OW71880   7.050  12.273   2.727
90014SOL    HW171881   6.976  12.332   2.740
90014SOL    HW271882   7.090  12.267   2.813
90015SOL     OW71883   0.101   2.200   1.905
90015SOL    HW171884   0.179   2.247   1.933
90015SOL    HW271885   0.097   2.123   1.962
90016SOL     OW71886   3.127   8.168   0.482
90016SOL    HW171887   3.092   8.184   0.569
90016SOL    HW271888   3.222   8.177   0.492
90017SOL     OW71889   4.577   7.079   4.605
90017SOL    HW171890   4.580   7.118   4.517
90017SOL    HW271891   4.643   7.127   4.655
90018SOL     OW71892  12.162   6.125   6.422
90018SOL    HW171893  12.140   6.152   6.511
90018SOL    HW271894  12.256   6.109   6.425
90019SOL     OW71895   3.060   6.931  14.462
90019SOL    HW171896   3.117   6.888  14.527
90019SOL    HW271897   3.095   7.019  14.455
90020SOL     OW71898   0.037   2.123  12.785
90020SOL    HW171899  14.836   2.088  12.741
90020SOL    HW271900   0.042   2.074  12.867
90021SOL     OW71901   2.561  11.690   9.605
90021SOL    HW171902   2.508  11.665   9.681
90021SOL    HW271903   2.638  11.733   9.643
90022SOL     OW71904   4.444   5.028   4.708
90022SOL    HW171905   4.453   5.016   4.803
90022SOL    HW271906   4.406   4.946   4.677
90023SOL     OW71907   9.200  11.926   5.714
90023SOL    HW171908   9.227  11.857   5.653
90023SOL    HW271909   9.204  12.007   5.662
90024SOL     OW71910   8.088  12.139  12.206
90024SOL    HW171911   8.044  12.191  12.138
90024SOL    HW271912   8.117  12.061  12.160
90025SOL     OW71913  12.516   3.143   2.423
90025SOL    HW171914  12.475   3.148   2.509
90025SOL    HW271915  12.463   3.202   2.368
90026SOL     OW71916   8.495   6.135   3.452
90026SOL    HW171917   8.486   6.157   3.544
90026SOL    HW271918   8.406   6.120   3.421
90027SOL     OW71919   0.712   7.703  12.859
90027SOL    HW171920   0.633   7.756  12.875
90027SOL    HW271921   0.688   7.644  12.788
90028SOL     OW71922  14.466  12.834  11.335
90028SOL    HW171923  14.406  12.759  11.328
90028SOL    HW271924  14.428  12.888  11.405
90029SOL     OW71925  10.929   3.172   4.732
90029SOL    HW171926  10.902   3.089   4.692
90029SOL    HW271927  10.880   3.239   4.684
90030SOL     OW71928  10.620  10.917  14.733
90030SOL    HW171929  10.539  10.935  14.782
90030SOL    HW271930  10.683  10.891  14.801
90031SOL     OW71931   4.479  14.451   3.201
90031SOL    HW171932   4.440  14.390   3.139
90031SOL    HW271933   4.436  14.432   3.285
90032SOL     OW71934   1.295   8.689   2.751
90032SOL    HW171935   1.299   8.612   2.693
90032SOL    HW271936   1.226   8.744   2.714
90033SOL     OW71937   4.556   8.397  14.112
90033SOL    HW171938   4.649   8.391  14.093
90033SOL    HW271939   4.515   8.415  14.028
90034SOL     OW71940   1.698   3.215   9.656
90034SOL    HW171941   1.674   3.254   9.572
90034SOL    HW271942   1.717   3.289   9.712
90035SOL     OW71943   2.287   5.407   2.393
90035SOL    HW171944   2.265   5.325   2.438
90035SOL    HW271945   2.204   5.453   2.386
90036SOL     OW71946  14.447  11.349   4.267
90036SOL    HW171947  14.514  11.417   4.277
90036SOL    HW271948  14.368  11.388   4.304
90037SOL     OW71949   7.084   0.845   6.153
90037SOL    HW171950   7.052   0.859   6.064
90037SOL    HW271951   7.159   0.786   6.143
90038SOL     OW71952   1.499   4.901   9.963
90038SOL    HW171953   1.524   4.878   9.873
90038SOL    HW271954   1.450   4.983   9.954
90039SOL     OW71955  10.770   3.277   4.143
90039SOL    HW171956  10.822   3.255   4.220
90039SOL    HW271957  10.829   3.328   4.087
90040SOL     OW71958   0.195   9.983   9.696
90040SOL    HW171959   0.243  10.065   9.708
90040SOL    HW271960   0.247   9.933   9.635
90041SOL     OW71961   5.015   8.504   7.653
90041SOL    HW171962   4.977   8.560   7.721
90041SOL    HW271963   5.109   8.519   7.660
90042SOL     OW71964   3.733   6.263   1.802
90042SOL    HW171965   3.672   6.303   1.741
90042SOL    HW271966   3.738   6.171   1.774
90043SOL     OW71967   2.826   1.052   4.257
90043SOL    HW171968   2.858   1.003   4.182
90043SOL    HW271969   2.794   0.985   4.318
90044SOL     OW71970  12.740   6.640  10.963
90044SOL    HW171971  12.810   6.647  10.898
90044SOL    HW271972  12.743   6.549  10.991
90045SOL     OW71973   5.147   7.092   1.763
90045SOL    HW171974   5.216   7.053   1.817
90045SOL    HW271975   5.098   7.017   1.729
90046SOL     OW71976   3.602   1.745   8.811
90046SOL    HW171977   3.677   1.803   8.806
90046SOL    HW271978   3.539   1.792   8.866
90047SOL     OW71979  11.827  14.399  10.279
90047SOL    HW171980  11.893  14.468  10.271
90047SOL    HW271981  11.853  14.352  10.358
90048SOL     OW71982   2.779   4.488  12.680
90048SOL    HW171983   2.816   4.448  12.602
90048SOL    HW271984   2.769   4.580  12.657
90049SOL     OW71985  10.100   5.307  13.289
90049SOL    HW171986  10.023   5.327  13.341
90049SOL    HW271987  10.081   5.221  13.250
90050SOL     OW71988   1.255   1.002  13.706
90050SOL    HW171989   1.328   0.984  13.647
90050SOL    HW271990   1.223   0.916  13.732
90051SOL     OW71991   3.354   3.424   8.696
90051SOL    HW171992   3.262   3.450   8.699
90051SOL    HW271993   3.402   3.506   8.687
90052SOL     OW71994  10.579   2.393   6.791
90052SOL    HW171995  10.565   2.298   6.796
90052SOL    HW271996  10.667   2.402   6.754
90053SOL     OW71997  10.954  14.263  13.703
90053SOL    HW171998  10.964  14.297  13.791
90053SOL    HW271999  10.907  14.332  13.656
90054SOL     OW72000   3.446   1.837  12.525
90054SOL    HW172001   3.442   1.902  12.455
90054SOL    HW272002   3.475   1.885  12.602
90055SOL     OW72003   0.727  12.689   9.408
90055SOL    HW172004   0.679  12.769   9.431
90055SOL    HW272005   0.819  12.715   9.410
90056SOL     OW72006  11.400   1.285   7.793
90056SOL    HW172007  11.404   1.286   7.889
90056SOL    HW272008  11.330   1.346   7.772
90057SOL     OW72009  13.221   3.640   4.209
90057SOL    HW172010  13.181   3.725   4.225
90057SOL    HW272011  13.174   3.606   4.133
90058SOL     OW72012  11.263   8.860  12.620
90058SOL    HW172013  11.275   8.939  12.568
90058SOL    HW272014  11.183   8.820  12.586
90059SOL     OW72015  13.972   2.754   2.449
90059SOL    HW172016  14.039   2.818   2.475
90059SOL    HW272017  13.903   2.807   2.410
90060SOL     OW72018   0.995  11.827   3.204
90060SOL    HW172019   0.936  11.902   3.192
90060SOL    HW272020   0.937  11.753   3.220
90061SOL     OW72021   2.353  11.020   4.421
90061SOL    HW172022   2.354  11.053   4.511
90061SOL    HW272023   2.291  10.947   4.423
90062SOL     OW72024  14.106  13.148   9.748
90062SOL    HW172025  14.146  13.071   9.788
90062SOL    HW272026  14.014  13.144   9.775
90063SOL     OW72027   2.430   4.439   1.379
90063SOL    HW172028   2.367   4.368   1.393
90063SOL    HW272029   2.382   4.518   1.402
90064SOL     OW72030   8.631   4.758   9.684
90064SOL    HW172031   8.707   4.805   9.650
90064SOL    HW272032   8.619   4.794   9.772
90065SOL     OW72033  14.568  10.582   7.286
90065SOL    HW172034  14.539  10.559   7.374
90065SOL    HW272035  14.600  10.499   7.249
90066SOL     OW72036  13.405   6.596   5.525
90066SOL    HW172037  13.317   6.597   5.488
90066SOL    HW272038  13.430   6.504   5.525
90067SOL     OW72039  13.164  12.951   1.603
90067SOL    HW172040  13.071  12.967   1.617
90067SOL    HW272041  13.184  12.994   1.520
90068SOL     OW72042   4.550  14.198   8.496
90068SOL    HW172043   4.503  14.271   8.456
90068SOL    HW272044   4.482  14.134   8.517
90069SOL     OW72045   3.972  11.320   3.137
90069SOL    HW172046   4.055  11.302   3.094
90069SOL    HW272047   3.917  11.244   3.115
90070SOL     OW72048   1.140   7.377   4.373
90070SOL    HW172049   1.213   7.416   4.324
90070SOL    HW272050   1.181   7.328   4.444
90071SOL     OW72051   0.153  12.652   2.727
90071SOL    HW172052   0.219  12.680   2.790
90071SOL    HW272053   0.200  12.643   2.645
90072SOL     OW72054   5.930   7.702   2.519
90072SOL    HW172055   5.993   7.630   2.523
90072SOL    HW272056   5.847   7.661   2.544
90073SOL     OW72057  13.121   8.112   4.071
90073SOL    HW172058  13.167   8.148   4.148
90073SOL    HW272059  13.178   8.041   4.041
90074SOL     OW72060   4.376  11.602   9.492
90074SOL    HW172061   4.316  11.673   9.470
90074SOL    HW272062   4.460  11.646   9.507
90075SOL     OW72063   3.674  14.124  11.048
90075SOL    HW172064   3.708  14.055  10.990
90075SOL    HW272065   3.745  14.187  11.054
90076SOL     OW72066   8.888   1.998  12.228
90076SOL    HW172067   8.954   1.952  12.279
90076SOL    HW272068   8.918   1.989  12.137
90077SOL     OW72069   9.926   6.525   2.456
90077SOL    HW172070   9.843   6.571   2.444
90077SOL    HW272071   9.921   6.491   2.545
90078SOL     OW72072   7.755   3.788  11.921
90078SOL    HW172073   7.691   3.822  11.858
90078SOL    HW272074   7.828   3.759  11.867
90079SOL     OW72075  11.031  13.252  11.989
90079SOL    HW172076  11.117  13.270  12.027
90079SOL    HW272077  11.021  13.318  11.921
90080SOL     OW72078   8.280  11.439   5.600
90080SOL    HW172079   8.199  11.428   5.649
90080SOL    HW272080   8.288  11.534   5.589
90081SOL     OW72081   2.839   0.076   1.337
90081SOL    HW172082   2.916   0.119   1.374
90081SOL    HW272083   2.780   0.148   1.314
90082SOL     OW72084  12.275   6.265   4.759
90082SOL    HW172085  12.259   6.171   4.748
90082SOL    HW272086  12.281   6.278   4.853
90083SOL     OW72087  10.318  11.784  10.558
90083SOL    HW172088  10.248  11.761  10.497
90083SOL    HW272089  10.366  11.702  10.571
90084SOL     OW72090  12.688   8.761  10.116
90084SOL    HW172091  12.783   8.768  10.106
90084SOL    HW272092  12.668   8.813  10.194
90085SOL     OW72093  12.798  11.278  13.720
90085SOL    HW172094  12.827  11.227  13.796
90085SOL    HW272095  12.704  11.262  13.714
90086SOL     OW72096   5.250   4.361  11.376
90086SOL    HW172097   5.167   4.314  11.384
90086SOL    HW272098   5.298   4.339  11.456
90087SOL     OW72099   4.081  12.394   3.821
90087SOL    HW172100   4.082  12.476   3.869
90087SOL    HW272101   4.047  12.330   3.884
90088SOL     OW72102   6.960   3.922   3.134
90088SOL    HW172103   7.013   4.001   3.131
90088SOL    HW272104   6.948   3.897   3.043
90089SOL     OW72105  14.115  12.527   0.345
90089SOL    HW172106  14.116  12.617   0.310
90089SOL    HW272107  14.104  12.538   0.439
90090SOL     OW72108   8.314  11.635  11.500
90090SOL    HW172109   8.288  11.716  11.544
90090SOL    HW272110   8.333  11.574  11.571
90091SOL     OW72111  12.839  13.350   8.904
90091SOL    HW172112  12.847  13.410   8.977
90091SOL    HW272113  12.929  13.324   8.885
90092SOL     OW72114   2.070  14.800  10.777
90092SOL    HW172115   2.009  14.791  10.704
90092SOL    HW272116   2.054   0.012  10.811
90093SOL     OW72117  12.353  14.637   8.947
90093SOL    HW172118  12.447  14.630   8.929
90093SOL    HW272119  12.349  14.670   9.037
90094SOL     OW72120  10.962   0.982   5.689
90094SOL    HW172121  11.005   0.968   5.774
90094SOL    HW272122  10.984   1.072   5.666
90095SOL     OW72123  11.916  10.807  10.559
90095SOL    HW172124  11.833  10.770  10.588
90095SOL    HW272125  11.969  10.731  10.535
90096SOL     OW72126   8.427   9.699  13.750
90096SOL    HW172127   8.466   9.638  13.813
90096SOL    HW272128   8.501   9.727  13.696
90097SOL     OW72129   8.560   8.177  14.222
90097SOL    HW172130   8.644   8.146  14.254
90097SOL    HW272131   8.550   8.135  14.137
90098SOL     OW72132   5.468  11.766  10.713
90098SOL    HW172133   5.441  11.768  10.622
90098SOL    HW272134   5.443  11.852  10.748
90099SOL     OW72135   8.572  11.266   9.506
90099SOL    HW172136   8.514  11.318   9.562
90099SOL    HW272137   8.576  11.315   9.424
90100SOL     OW72138   2.676   0.068   8.415
90100SOL    HW172139   2.622   0.057   8.337
90100SOL    HW272140   2.667  14.862   8.463
90101SOL     OW72141   8.576   6.672   0.835
90101SOL    HW172142   8.609   6.666   0.745
90101SOL    HW272143   8.653   6.654   0.890
90102SOL     OW72144  12.109  13.120   2.170
90102SOL    HW172145  12.179  13.066   2.205
90102SOL    HW272146  12.083  13.077   2.089
90103SOL     OW72147   8.678  11.150   4.085
90103SOL    HW172148   8.726  11.092   4.025
90103SOL    HW272149   8.645  11.220   4.028
90104SOL     OW72150   4.555   1.296   9.885
90104SOL    HW172151   4.616   1.296   9.811
90104SOL    HW272152   4.471   1.268   9.846
90105SOL     OW72153  11.437   3.642   6.191
90105SOL    HW172154  11.419   3.691   6.272
90105SOL    HW272155  11.518   3.679   6.158
90106SOL     OW72156   8.061  11.845   2.751
90106SOL    HW172157   8.157  11.836   2.752
90106SOL    HW272158   8.029  11.756   2.739
90107SOL     OW72159  11.297  12.507   6.247
90107SOL    HW172160  11.378  12.514   6.196
90107SOL    HW272161  11.261  12.421   6.222
90108SOL     OW72162  11.702  12.310   9.270
90108SOL    HW172163  11.727  12.371   9.199
90108SOL    HW272164  11.782  12.262   9.289
90109SOL     OW72165  13.774   5.946  13.407
90109SOL    HW172166  13.855   5.931  13.456
90109SOL    HW272167  13.706   5.945  13.474
90110SOL     OW72168   0.104  10.914   9.198
90110SOL    HW172169   0.115  11.008   9.184
90110SOL    HW272170   0.010  10.899   9.194
90111SOL     OW72171   8.993   9.534   2.314
90111SOL    HW172172   9.043   9.607   2.278
90111SOL    HW272173   8.902   9.556   2.296
90112SOL     OW72174  12.214   6.748   7.764
90112SOL    HW172175  12.139   6.690   7.753
90112SOL    HW272176  12.184   6.814   7.826
90113SOL     OW72177  14.235   3.938   2.351
90113SOL    HW172178  14.243   4.020   2.302
90113SOL    HW272179  14.170   3.888   2.302
90114SOL     OW72180   0.881  12.671   7.699
90114SOL    HW172181   0.899  12.745   7.641
90114SOL    HW272182   0.790  12.648   7.681
90115SOL     OW72183  11.960   5.247   3.503
90115SOL    HW172184  11.908   5.319   3.466
90115SOL    HW272185  12.032   5.235   3.441
90116SOL     OW72186   5.518   9.528   7.704
90116SOL    HW172187   5.515   9.544   7.798
90116SOL    HW272188   5.608   9.549   7.679
90117SOL     OW72189   4.147   4.563   1.377
90117SOL    HW172190   4.101   4.645   1.360
90117SOL    HW272191   4.092   4.495   1.337
90118SOL     OW72192   2.216   7.798   5.649
90118SOL    HW172193   2.270   7.724   5.677
90118SOL    HW272194   2.212   7.791   5.554
90119SOL     OW72195   7.689   3.595  10.588
90119SOL    HW172196   7.782   3.604  10.608
90119SOL    HW272197   7.649   3.672  10.629
90120SOL     OW72198   9.310   7.457   0.503
90120SOL    HW172199   9.299   7.382   0.445
90120SOL    HW272200   9.333   7.530   0.445
90121SOL     OW72201   7.146   2.911   7.035
90121SOL    HW172202   7.160   2.908   7.130
90121SOL    HW272203   7.104   2.996   7.020
90122SOL     OW72204  14.753  14.650  11.453
90122SOL    HW172205  14.832  14.686  11.413
90122SOL    HW272206  14.774  14.643  11.546
90123SOL     OW72207   7.112  12.173   9.964
90123SOL    HW172208   7.059  12.146   9.889
90123SOL    HW272209   7.149  12.092   9.998
90124SOL     OW72210  11.941   6.251  14.427
90124SOL    HW172211  11.901   6.168  14.453
90124SOL    HW272212  12.006   6.227  14.360
90125SOL     OW72213   7.722  14.267   2.575
90125SOL    HW172214   7.637  14.260   2.618
90125SOL    HW272215   7.785  14.276   2.646
90126SOL     OW72216   7.486   5.407  12.709
90126SOL    HW172217   7.400   5.450  12.706
90126SOL    HW272218   7.516   5.407  12.618
90127SOL     OW72219   9.781  14.115   8.138
90127SOL    HW172220   9.747  14.163   8.062
90127SOL    HW272221   9.715  14.128   8.206
90128SOL     OW72222  14.139   2.761   0.917
90128SOL    HW172223  14.164   2.726   0.831
90128SOL    HW272224  14.157   2.689   0.977
90129SOL     OW72225   1.308   6.201   1.985
90129SOL    HW172226   1.357   6.122   1.960
90129SOL    HW272227   1.370   6.273   1.972
90130SOL     OW72228   7.776  11.695   1.431
90130SOL    HW172229   7.868  11.709   1.455
90130SOL    HW272230   7.781  11.641   1.352
90131SOL     OW72231   7.397   6.878  10.645
90131SOL    HW172232   7.436   6.958  10.610
90131SOL    HW272233   7.357   6.836  10.569
90132SOL     OW72234  11.165  12.830   2.840
90132SOL    HW172235  11.254  12.866   2.836
90132SOL    HW272236  11.116  12.893   2.891
90133SOL     OW72237  10.898  11.897   1.622
90133SOL    HW172238  10.961  11.968   1.634
90133SOL    HW272239  10.876  11.900   1.529
90134SOL     OW72240  13.898   4.260   1.857
90134SOL    HW172241  13.809   4.286   1.834
90134SOL    HW272242  13.900   4.264   1.953
90135SOL     OW72243   0.003   4.023   1.869
90135SOL    HW172244  14.814   3.961   1.835
90135SOL    HW272245   0.077   4.014   1.810
90136SOL     OW72246  10.387  13.447   8.430
90136SOL    HW172247  10.311  13.484   8.385
90136SOL    HW272248  10.393  13.495   8.512
90137SOL     OW72249   6.050   7.698  13.708
90137SOL    HW172250   6.115   7.628  13.696
90137SOL    HW272251   6.102   7.776  13.726
90138SOL     OW72252   9.957   4.746   8.275
90138SOL    HW172253   9.882   4.807   8.272
90138SOL    HW272254  10.015   4.777   8.205
90139SOL     OW72255   3.365   4.545   5.685
90139SOL    HW172256   3.328   4.553   5.598
90139SOL    HW272257   3.293   4.565   5.744
90140SOL     OW72258   0.766   3.610   5.798
90140SOL    HW172259   0.807   3.531   5.764
90140SOL    HW272260   0.761   3.595   5.893
90141SOL     OW72261  10.883   6.664   1.247
90141SOL    HW172262  10.898   6.583   1.198
90141SOL    HW272263  10.869   6.731   1.180
90142SOL     OW72264   3.572  10.902   0.570
90142SOL    HW172265   3.634  10.975   0.575
90142SOL    HW272266   3.502  10.925   0.631
90143SOL     OW72267   9.692   0.634   8.229
90143SOL    HW172268   9.622   0.699   8.235
90143SOL    HW272269   9.732   0.634   8.316
90144SOL     OW72270   7.313   5.390   5.349
90144SOL    HW172271   7.399   5.432   5.356
90144SOL    HW272272   7.330   5.297   5.363
90145SOL     OW72273  12.047   7.839  11.410
90145SOL    HW172274  12.090   7.781  11.472
90145SOL    HW272275  12.101   7.833  11.330
90146SOL     OW72276   0.455  13.216   0.309
90146SOL    HW172277   0.529  13.226   0.250
90146SOL    HW272278   0.414  13.134   0.283
90147SOL     OW72279   3.424   2.884   4.225
90147SOL    HW172280   3.438   2.874   4.131
90147SOL    HW272281   3.467   2.966   4.248
90148SOL     OW72282  14.728   0.357   5.401
90148SOL    HW172283  14.690   0.334   5.316
90148SOL    HW272284  14.805   0.301   5.409
90149SOL     OW72285  11.267  11.492  14.857
90149SOL    HW172286  11.283  11.456  14.769
90149SOL    HW272287  11.174  11.516  14.855
90150SOL     OW72288  12.305   3.996   7.491
90150SOL    HW172289  12.367   4.049   7.540
90150SOL    HW272290  12.258   4.058   7.435
90151SOL     OW72291  10.568   5.687  12.696
90151SOL    HW172292  10.598   5.757  12.637
90151SOL    HW272293  10.649   5.645  12.727
90152SOL     OW72294   8.885  14.668  11.852
90152SOL    HW172295   8.959  14.726  11.868
90152SOL    HW272296   8.922  14.598  11.798
90153SOL     OW72297   0.737   1.668   6.160
90153SOL    HW172298   0.759   1.731   6.229
90153SOL    HW272299   0.645   1.684   6.141
90154SOL     OW72300   4.698   4.619   3.884
90154SOL    HW172301   4.773   4.603   3.941
90154SOL    HW272302   4.734   4.617   3.795
90155SOL     OW72303   5.498  11.282   8.769
90155SOL    HW172304   5.458  11.226   8.836
90155SOL    HW272305   5.485  11.371   8.801
90156SOL     OW72306  11.350   9.255   0.858
90156SOL    HW172307  11.266   9.234   0.897
90156SOL    HW272308  11.382   9.171   0.823
90157SOL     OW72309  11.377   0.945   8.443
90157SOL    HW172310  11.443   0.943   8.374
90157SOL    HW272311  11.427   0.951   8.524
90158SOL     OW72312   4.842   8.582   4.229
90158SOL    HW172313   4.750   8.573   4.255
90158SOL    HW272314   4.887   8.614   4.307
90159SOL     OW72315   0.931   7.767   1.535
90159SOL    HW172316   0.956   7.800   1.448
90159SOL    HW272317   0.966   7.832   1.596
90160SOL     OW72318  10.053   5.886   7.521
90160SOL    HW172319  10.007   5.970   7.521
90160SOL    HW272320  10.025   5.844   7.439
90161SOL     OW72321   1.669  14.697   2.595
90161SOL    HW172322   1.761  14.711   2.617
90161SOL    HW272323   1.634  14.648   2.669
90162SOL     OW72324   6.995  10.855   5.787
90162SOL    HW172325   6.943  10.779   5.813
90162SOL    HW272326   6.937  10.930   5.803
90163SOL     OW72327   1.959   1.712   6.440
90163SOL    HW172328   2.017   1.782   6.411
90163SOL    HW272329   1.878   1.756   6.464
90164SOL     OW72330  13.964   3.057   3.262
90164SOL    HW172331  13.940   3.050   3.354
90164SOL    HW272332  14.059   3.046   3.261
90165SOL     OW72333   9.604   5.205  13.147
90165SOL    HW172334   9.682   5.258  13.160
90165SOL    HW272335   9.551   5.254  13.085
90166SOL     OW72336  11.264   4.579  14.067
90166SOL    HW172337  11.314   4.615  13.994
90166SOL    HW272338  11.180   4.554  14.029
90167SOL     OW72339   7.736   8.108   1.215
90167SOL    HW172340   7.668   8.043   1.198
90167SOL    HW272341   7.816   8.067   1.184
90168SOL     OW72342  13.791   8.151  10.343
90168SOL    HW172343  13.803   8.076  10.285
90168SOL    HW272344  13.696   8.156  10.357
90169SOL     OW72345   7.353   3.463   9.934
90169SOL    HW172346   7.316   3.515  10.005
90169SOL    HW272347   7.437   3.506   9.915
90170SOL     OW72348   5.899   0.004   1.570
90170SOL    HW172349   5.805   0.006   1.558
90170SOL    HW272350   5.934  14.848   1.487
90171SOL     OW72351   1.206   2.048  11.759
90171SOL    HW172352   1.196   2.135  11.720
90171SOL    HW272353   1.117   2.022  11.783
90172SOL     OW72354   9.013  12.035  13.037
90172SOL    HW172355   9.019  12.096  12.963
90172SOL    HW272356   8.970  11.958  13.001
90173SOL     OW72357   6.593   6.888   8.400
90173SOL    HW172358   6.547   6.877   8.483
90173SOL    HW272359   6.551   6.963   8.358
90174SOL     OW72360   1.856   0.984   0.424
90174SOL    HW172361   1.842   0.901   0.378
90174SOL    HW272362   1.889   0.958   0.510
90175SOL     OW72363  12.297  14.100   5.571
90175SOL    HW172364  12.232  14.145   5.517
90175SOL    HW272365  12.330  14.168   5.630
90176SOL     OW72366  11.757   5.396   5.559
90176SOL    HW172367  11.853   5.402   5.555
90176SOL    HW272368  11.727   5.448   5.485
90177SOL     OW72369   4.942   7.220   1.948
90177SOL    HW172370   4.933   7.144   2.005
90177SOL    HW272371   5.011   7.195   1.887
90178SOL     OW72372  12.795   0.049   5.459
90178SOL    HW172373  12.745   0.083   5.385
90178SOL    HW272374  12.761   0.096   5.535
90179SOL     OW72375  12.356   2.851   1.520
90179SOL    HW172376  12.430   2.911   1.526
90179SOL    HW272377  12.389   2.776   1.470
90180SOL     OW72378  10.968   6.018   3.267
90180SOL    HW172379  11.054   6.058   3.270
90180SOL    HW272380  10.985   5.926   3.246
90181SOL     OW72381   8.952   8.964  13.162
90181SOL    HW172382   8.990   8.946  13.076
90181SOL    HW272383   8.919   9.053  13.156
90182SOL     OW72384   3.380  10.888   6.022
90182SOL    HW172385   3.471  10.858   6.032
90182SOL    HW272386   3.376  10.969   6.072
90183SOL     OW72387  11.517   7.065  10.829
90183SOL    HW172388  11.541   7.153  10.856
90183SOL    HW272389  11.570   7.007  10.884
90184SOL     OW72390  12.711  14.531   6.704
90184SOL    HW172391  12.781  14.569   6.651
90184SOL    HW272392  12.647  14.500   6.641
90185SOL     OW72393  12.870  11.197   0.069
90185SOL    HW172394  12.862  11.102   0.064
90185SOL    HW272395  12.789  11.225   0.112
90186SOL     OW72396  14.202   2.464  10.073
90186SOL    HW172397  14.255   2.454   9.993
90186SOL    HW272398  14.147   2.541  10.055
90187SOL     OW72399   7.767   9.463  11.255
90187SOL    HW172400   7.770   9.492  11.346
90187SOL    HW272401   7.769   9.544  11.204
90188SOL     OW72402  10.490   1.738   3.783
90188SOL    HW172403  10.493   1.646   3.809
90188SOL    HW272404  10.406   1.769   3.817
90189SOL     OW72405   9.367   7.269   0.301
90189SOL    HW172406   9.377   7.175   0.315
90189SOL    HW272407   9.341   7.277   0.209
90190SOL     OW72408  11.030  11.362  10.922
90190SOL    HW172409  11.088  11.438  10.916
90190SOL    HW272410  11.018  11.333  10.832
90191SOL     OW72411   0.059  12.253   7.098
90191SOL    HW172412   0.059  12.273   7.004
90191SOL    HW272413   0.102  12.329   7.139
90192SOL     OW72414   7.853  13.603   3.967
90192SOL    HW172415   7.806  13.652   4.034
90192SOL    HW272416   7.901  13.536   4.016
90193SOL     OW72417   2.290   0.180  12.242
90193SOL    HW172418   2.286   0.223  12.327
90193SOL    HW272419   2.381   0.148  12.236
90194SOL     OW72420   3.620  10.359   0.371
90194SOL    HW172421   3.706  10.377   0.408
90194SOL    HW272422   3.559  10.373   0.443
90195SOL     OW72423   9.602   6.947   9.293
90195SOL    HW172424   9.526   7.005   9.301
90195SOL    HW272425   9.646   6.977   9.213
90196SOL     OW72426   5.362   3.421   2.277
90196SOL    HW172427   5.334   3.505   2.312
90196SOL    HW272428   5.380   3.368   2.355
90197SOL     OW72429   9.392  12.277   7.556
90197SOL    HW172430   9.409  12.297   7.464
90197SOL    HW272431   9.384  12.363   7.599
90198SOL     OW72432   7.318  14.464   9.908
90198SOL    HW172433   7.241  14.451   9.964
90198SOL    HW272434   7.313  14.555   9.881
90199SOL     OW72435   0.782   3.877   9.158
90199SOL    HW172436   0.846   3.835   9.101
90199SOL    HW272437   0.706   3.891   9.102
90200SOL     OW72438   6.355   8.732   4.506
90200SOL    HW172439   6.320   8.770   4.587
90200SOL    HW272440   6.408   8.658   4.536
90201SOL     OW72441   2.055   1.595   3.006
90201SOL    HW172442   2.022   1.669   2.956
90201SOL    HW272443   2.005   1.596   3.088
90202SOL     OW72444   7.859   2.055   0.723
90202SOL    HW172445   7.789   2.006   0.768
90202SOL    HW272446   7.938   2.031   0.770
90203SOL     OW72447  13.356  13.922   1.500
90203SOL    HW172448  13.387  13.832   1.489
90203SOL    HW272449  13.260  13.915   1.499
90204SOL     OW72450   6.179  10.013   2.367
90204SOL    HW172451   6.188   9.930   2.319
90204SOL    HW272452   6.165   9.987   2.458
90205SOL     OW72453  13.937   6.672   2.774
90205SOL    HW172454  13.947   6.696   2.682
90205SOL    HW272455  13.849   6.636   2.780
90206SOL     OW72456   8.229   2.392   4.608
90206SOL    HW172457   8.252   2.433   4.525
90206SOL    HW272458   8.186   2.461   4.658
90207SOL     OW72459  14.459  13.943   9.490
90207SOL    HW172460  14.414  13.980   9.414
90207SOL    HW272461  14.548  13.924   9.459
90208SOL     OW72462   8.937  12.560  11.261
90208SOL    HW172463   8.965  12.485  11.313
90208SOL    HW272464   8.932  12.633  11.322
90209SOL     OW72465   4.528  14.167  13.072
90209SOL    HW172466   4.450  14.216  13.100
90209SOL    HW272467   4.558  14.213  12.994
90210SOL     OW72468   9.018  11.468   3.621
90210SOL    HW172469   8.949  11.434   3.565
90210SOL    HW272470   9.006  11.563   3.620
90211SOL     OW72471   8.300  13.777   5.540
90211SOL    HW172472   8.291  13.721   5.617
90211SOL    HW272473   8.216  13.824   5.534
90212SOL     OW72474   9.470  11.600   6.449
90212SOL    HW172475   9.513  11.616   6.366
90212SOL    HW272476   9.377  11.614   6.431
90213SOL     OW72477   7.093   0.809   2.644
90213SOL    HW172478   7.009   0.799   2.600
90213SOL    HW272479   7.074   0.792   2.736
90214SOL     OW72480   8.136  11.679   3.666
90214SOL    HW172481   8.065  11.616   3.677
90214SOL    HW272482   8.093  11.763   3.650
90215SOL     OW72483   3.810   5.675   1.816
90215SOL    HW172484   3.748   5.725   1.763
90215SOL    HW272485   3.822   5.593   1.769
90216SOL     OW72486  10.193   0.857   3.868
90216SOL    HW172487  10.223   0.928   3.811
90216SOL    HW272488  10.186   0.781   3.810
90217SOL     OW72489   3.390  12.820   9.696
90217SOL    HW172490   3.402  12.742   9.643
90217SOL    HW272491   3.448  12.807   9.771
90218SOL     OW72492   4.263   1.088   2.569
90218SOL    HW172493   4.184   1.054   2.612
90218SOL    HW272494   4.298   1.013   2.521
90219SOL     OW72495  11.490   8.852   6.774
90219SOL    HW172496  11.548   8.878   6.703
90219SOL    HW272497  11.432   8.787   6.734
90220SOL     OW72498   3.549   4.187  12.192
90220SOL    HW172499   3.548   4.113  12.254
90220SOL    HW272500   3.465   4.230  12.206
90221SOL     OW72501   0.171   8.194  10.654
90221SOL    HW172502   0.106   8.137  10.695
90221SOL    HW272503   0.221   8.137  10.596
90222SOL     OW72504  12.181   6.439   8.522
90222SOL    HW172505  12.201   6.370   8.458
90222SOL    HW272506  12.187   6.394   8.607
90223SOL     OW72507   0.792   1.590  12.563
90223SOL    HW172508   0.743   1.509  12.577
90223SOL    HW272509   0.879   1.573  12.600
90224SOL     OW72510  11.776   3.047   2.232
90224SOL    HW172511  11.857   3.037   2.183
90224SOL    HW272512  11.769   3.141   2.247
90225SOL     OW72513  10.317  10.038   7.945
90225SOL    HW172514  10.226  10.048   7.975
90225SOL    HW272515  10.368  10.028   8.025
90226SOL     OW72516   8.185   1.626  13.131
90226SOL    HW172517   8.117   1.645  13.066
90226SOL    HW272518   8.263   1.606  13.080
90227SOL     OW72519  14.574   0.510   6.706
90227SOL    HW172520  14.490   0.490   6.665
90227SOL    HW272521  14.555   0.580   6.768
90228SOL     OW72522  11.284   3.126   3.785
90228SOL    HW172523  11.293   3.058   3.851
90228SOL    HW272524  11.210   3.097   3.731
90229SOL     OW72525   0.970   0.262   4.809
90229SOL    HW172526   0.933   0.297   4.890
90229SOL    HW272527   0.905   0.198   4.779
90230SOL     OW72528   9.539   9.218   2.976
90230SOL    HW172529   9.609   9.249   2.919
90230SOL    HW272530   9.461   9.218   2.921
90231SOL     OW72531   2.278  13.143  12.057
90231SOL    HW172532   2.257  13.171  11.968
90231SOL    HW272533   2.322  13.059  12.046
90232SOL     OW72534  12.543   6.405  11.083
90232SOL    HW172535  12.615   6.355  11.046
90232SOL    HW272536  12.464   6.362  11.050
90233SOL     OW72537   5.899   5.860   7.846
90233SOL    HW172538   5.894   5.902   7.760
90233SOL    HW272539   5.846   5.916   7.903
90234SOL     OW72540   2.051  11.251   6.457
90234SOL    HW172541   2.101  11.329   6.436
90234SOL    HW272542   2.076  11.230   6.548
90235SOL     OW72543  11.687  11.577   5.876
90235SOL    HW172544  11.715  11.552   5.964
90235SOL    HW272545  11.647  11.498   5.840
90236SOL     OW72546   6.573   6.118  11.955
90236SOL    HW172547   6.606   6.105  12.044
90236SOL    HW272548   6.511   6.190  11.963
90237SOL     OW72549  10.245  12.730  13.006
90237SOL    HW172550  10.232  12.797  12.939
90237SOL    HW272551  10.179  12.749  13.072
90238SOL     OW72552   2.663   0.527   1.846
90238SOL    HW172553   2.670   0.545   1.939
90238SOL    HW272554   2.627   0.607   1.808
90239SOL     OW72555  13.506  13.973   8.706
90239SOL    HW172556  13.487  14.042   8.642
90239SOL    HW272557  13.501  14.017   8.791
90240SOL     OW72558   9.552   4.429  10.499
90240SOL    HW172559   9.566   4.503  10.440
90240SOL    HW272560   9.637   4.417  10.543
90241SOL     OW72561   3.793   4.287   7.396
90241SOL    HW172562   3.721   4.234   7.361
90241SOL    HW272563   3.752   4.342   7.463
90242SOL     OW72564   4.943   5.296  12.848
90242SOL    HW172565   4.889   5.361  12.803
90242SOL    HW272566   4.920   5.213  12.807
90243SOL     OW72567   2.496   6.678   4.935
90243SOL    HW172568   2.544   6.611   4.886
90243SOL    HW272569   2.559   6.711   4.999
90244SOL     OW72570   8.922  10.113   7.151
90244SOL    HW172571   8.863  10.074   7.086
90244SOL    HW272572   8.888  10.202   7.163
90245SOL     OW72573   4.350   2.657   1.770
90245SOL    HW172574   4.420   2.721   1.779
90245SOL    HW272575   4.329   2.631   1.860
90246SOL     OW72576  13.815  11.754   5.706
90246SOL    HW172577  13.740  11.742   5.764
90246SOL    HW272578  13.858  11.668   5.704
90247SOL     OW72579   7.964   0.577  14.169
90247SOL    HW172580   7.923   0.658  14.199
90247SOL    HW272581   8.040   0.565  14.227
90248SOL     OW72582  13.369  11.897  13.892
90248SOL    HW172583  13.410  11.918  13.976
90248SOL    HW272584  13.405  11.811  13.868
90249SOL     OW72585   2.533  13.127  10.975
90249SOL    HW172586   2.544  13.182  11.052
90249SOL    HW272587   2.620  13.090  10.959
90250SOL     OW72588   3.158   4.205  13.226
90250SOL    HW172589   3.208   4.225  13.306
90250SOL    HW272590   3.100   4.134  13.253
90251SOL     OW72591   3.403  11.031   4.993
90251SOL    HW172592   3.357  11.091   4.934
90251SOL    HW272593   3.447  10.969   4.935
90252SOL     OW72594   0.540   2.871   5.967
90252SOL    HW172595   0.621   2.821   5.976
90252SOL    HW272596   0.472   2.805   5.951
90253SOL     OW72597  12.296   8.592   4.141
90253SOL    HW172598  12.381   8.589   4.098
90253SOL    HW272599  12.314   8.632   4.226
90254SOL     OW72600   5.794  10.488   2.782
90254SOL    HW172601   5.887  10.493   2.804
90254SOL    HW272602   5.759  10.573   2.808
90255SOL     OW72603   9.085   8.825  11.879
90255SOL    HW172604   9.040   8.764  11.937
90255SOL    HW272605   9.166   8.847  11.925
90256SOL     OW72606  12.689  12.889   7.900
90256SOL    HW172607  12.607  12.885   7.949
90256SOL    HW272608  12.681  12.968   7.847
90257SOL     OW72609   7.976   1.367   1.621
90257SOL    HW172610   7.901   1.391   1.676
90257SOL    HW272611   7.949   1.390   1.532
90258SOL     OW72612  13.388   2.199   5.070
90258SOL    HW172613  13.406   2.278   5.119
90258SOL    HW272614  13.293   2.196   5.061
90259SOL     OW72615   5.743   4.717   3.965
90259SOL    HW172616   5.782   4.678   3.887
90259SOL    HW272617   5.708   4.801   3.935
90260SOL     OW72618   8.755   0.240   9.950
90260SOL    HW172619   8.835   0.292   9.937
90260SOL    HW272620   8.784   0.149   9.946
90261SOL     OW72621  10.801   0.712  12.954
90261SOL    HW172622  10.857   0.685  13.026
90261SOL    HW272623  10.845   0.788  12.915
90262SOL     OW72624  11.928   0.578   0.025
90262SOL    HW172625  12.005   0.546  14.854
90262SOL    HW272626  11.919   0.669  14.873
90263SOL     OW72627   4.844  11.113   3.488
90263SOL    HW172628   4.833  11.018   3.496
90263SOL    HW272629   4.937  11.127   3.506
90264SOL     OW72630  10.176   9.227   6.439
90264SOL    HW172631  10.221   9.233   6.523
90264SOL    HW272632  10.105   9.165   6.454
90265SOL     OW72633  13.794  11.939   4.211
90265SOL    HW172634  13.818  11.850   4.186
90265SOL    HW272635  13.876  11.981   4.235
90266SOL     OW72636   8.844   3.965   7.809
90266SOL    HW172637   8.788   3.899   7.768
90266SOL    HW272638   8.885   4.011   7.736
90267SOL     OW72639   2.455  13.390  14.585
90267SOL    HW172640   2.387  13.454  14.566
90267SOL    HW272641   2.481  13.356  14.499
90268SOL     OW72642   2.016   9.114   3.713
90268SOL    HW172643   2.015   9.038   3.771
90268SOL    HW272644   1.975   9.083   3.632
90269SOL     OW72645  12.939   2.198   1.310
90269SOL    HW172646  13.021   2.164   1.345
90269SOL    HW272647  12.906   2.128   1.254
90270SOL     OW72648  11.643  11.493   2.000
90270SOL    HW172649  11.672  11.457   1.916
90270SOL    HW272650  11.632  11.417   2.056
90271SOL     OW72651   5.914   5.302   3.133
90271SOL    HW172652   5.861   5.306   3.213
90271SOL    HW272653   5.873   5.365   3.074
90272SOL     OW72654   2.583  14.719   7.611
90272SOL    HW172655   2.630  14.708   7.693
90272SOL    HW272656   2.623  14.796   7.570
90273SOL     OW72657   9.352  11.553   8.439
90273SOL    HW172658   9.437  11.541   8.398
90273SOL    HW272659   9.330  11.466   8.474
90274SOL     OW72660   4.384  13.239   4.827
90274SOL    HW172661   4.356  13.225   4.736
90274SOL    HW272662   4.326  13.308   4.859
90275SOL     OW72663   3.827   3.922   1.479
90275SOL    HW172664   3.744   3.875   1.488
90275SOL    HW272665   3.804   4.014   1.489
90276SOL     OW72666  11.301   0.022   7.869
90276SOL    HW172667  11.331  14.821   7.821
90276SOL    HW272668  11.283   0.087   7.802
90277SOL     OW72669   3.079   6.579   9.523
90277SOL    HW172670   2.999   6.558   9.571
90277SOL    HW272671   3.150   6.551   9.580
90278SOL     OW72672  11.766   3.424   4.710
90278SOL    HW172673  11.773   3.453   4.619
90278SOL    HW272674  11.839   3.467   4.755
90279SOL     OW72675   0.178  13.871   2.746
90279SOL    HW172676   0.210  13.957   2.775
90279SOL    HW272677   0.256  13.816   2.745
90280SOL     OW72678  10.483   0.934   4.214
90280SOL    HW172679  10.524   0.855   4.250
90280SOL    HW272680  10.392   0.910   4.200
90281SOL     OW72681   2.308   5.747  10.964
90281SOL    HW172682   2.382   5.774  10.910
90281SOL    HW272683   2.262   5.682  10.912
90282SOL     OW72684   5.503  14.296  10.071
90282SOL    HW172685   5.476  14.206  10.052
90282SOL    HW272686   5.489  14.343   9.989
90283SOL     OW72687   3.848   3.433  11.176
90283SOL    HW172688   3.859   3.367  11.245
90283SOL    HW272689   3.787   3.394  11.114
90284SOL     OW72690   4.024   8.920  13.690
90284SOL    HW172691   4.051   8.923  13.782
90284SOL    HW272692   3.953   8.855  13.688
90285SOL     OW72693   3.190  11.583  13.814
90285SOL    HW172694   3.227  11.671  13.806
90285SOL    HW272695   3.262  11.529  13.847
90286SOL     OW72696  14.872   8.687   1.687
90286SOL    HW172697   0.059   8.662   1.754
90286SOL    HW272698  14.841   8.604   1.651
90287SOL     OW72699   1.876  11.439   9.494
90287SOL    HW172700   1.883  11.407   9.404
90287SOL    HW272701   1.790  11.480   9.498
90288SOL     OW72702  13.700   0.429   9.102
90288SOL    HW172703  13.613   0.422   9.140
90288SOL    HW272704  13.690   0.397   9.013
90289SOL     OW72705   4.942   5.715  10.771
90289SOL    HW172706   4.855   5.676  10.783
90289SOL    HW272707   4.994   5.680  10.844
90290SOL     OW72708   1.944   0.441   4.304
90290SOL    HW172709   1.929   0.505   4.233
90290SOL    HW272710   1.939   0.356   4.260
90291SOL     OW72711  14.369  11.748   7.806
90291SOL    HW172712  14.333  11.675   7.755
90291SOL    HW272713  14.357  11.825   7.750
90292SOL     OW72714   0.209   1.519  13.720
90292SOL    HW172715   0.272   1.536  13.790
90292SOL    HW272716   0.235   1.435  13.683
90293SOL     OW72717  12.133   8.037   4.336
90293SOL    HW172718  12.228   8.025   4.342
90293SOL    HW272719  12.096   7.957   4.374
90294SOL     OW72720   2.581   3.146  10.039
90294SOL    HW172721   2.509   3.108   9.989
90294SOL    HW272722   2.636   3.071  10.062
90295SOL     OW72723  13.902   4.828   2.701
90295SOL    HW172724  13.818   4.853   2.662
90295SOL    HW272725  13.964   4.835   2.628
90296SOL     OW72726   3.422  11.625   2.056
90296SOL    HW172727   3.424  11.542   2.010
90296SOL    HW272728   3.501  11.625   2.110
90297SOL     OW72729  13.769  13.613   8.680
90297SOL    HW172730  13.735  13.573   8.600
90297SOL    HW272731  13.857  13.643   8.656
90298SOL     OW72732   6.691   4.661   7.569
90298SOL    HW172733   6.633   4.621   7.634
90298SOL    HW272734   6.769   4.606   7.568
90299SOL     OW72735  13.826  10.957   8.833
90299SOL    HW172736  13.732  10.958   8.850
90299SOL    HW272737  13.837  11.008   8.753
90300SOL     OW72738   9.468   0.590   3.519
90300SOL    HW172739   9.402   0.653   3.492
90300SOL    HW272740   9.527   0.583   3.444
90301SOL     OW72741   9.183   2.526   8.526
90301SOL    HW172742   9.104   2.477   8.500
90301SOL    HW272743   9.244   2.459   8.556
90302SOL     OW72744   8.175  13.518  12.335
90302SOL    HW172745   8.225  13.551  12.261
90302SOL    HW272746   8.213  13.562  12.411
90303SOL     OW72747   5.832  10.611  13.669
90303SOL    HW172748   5.756  10.620  13.726
90303SOL    HW272749   5.805  10.547  13.603
90304SOL     OW72750   4.238   8.999   7.364
90304SOL    HW172751   4.322   8.968   7.330
90304SOL    HW272752   4.242   9.094   7.354
90305SOL     OW72753  11.722   6.029  10.786
90305SOL    HW172754  11.677   6.111  10.807
90305SOL    HW272755  11.801   6.056  10.739
90306SOL     OW72756   5.580  12.724   1.929
90306SOL    HW172757   5.655  12.687   1.975
90306SOL    HW272758   5.574  12.814   1.962
90307SOL     OW72759   2.578   8.168   8.766
90307SOL    HW172760   2.628   8.170   8.848
90307SOL    HW272761   2.641   8.140   8.700
90308SOL     OW72762  14.853  10.768   7.507
90308SOL    HW172763  14.863  10.740   7.417
90308SOL    HW272764   0.025  10.704   7.558
90309SOL     OW72765   1.018   5.129   9.160
90309SOL    HW172766   1.060   5.102   9.078
90309SOL    HW272767   0.924   5.130   9.141
90310SOL     OW72768  13.963  12.064   9.488
90310SOL    HW172769  14.026  12.136   9.492
90310SOL    HW272770  13.930  12.056   9.578
90311SOL     OW72771   4.975  10.287   2.632
90311SOL    HW172772   4.958  10.286   2.537
90311SOL    HW272773   4.955  10.198   2.660
90312SOL     OW72774   6.873  12.430  12.653
90312SOL    HW172775   6.921  12.405  12.731
90312SOL    HW272776   6.804  12.488  12.685
90313SOL     OW72777  11.371   9.005  11.561
90313SOL    HW172778  11.349   9.087  11.518
90313SOL    HW272779  11.342   9.016  11.652
90314SOL     OW72780   8.747   6.606   3.972
90314SOL    HW172781   8.680   6.587   4.037
90314SOL    HW272782   8.818   6.646   4.022
90315SOL     OW72783   2.340   2.579  11.441
90315SOL    HW172784   2.426   2.566  11.402
90315SOL    HW272785   2.305   2.490  11.451
90316SOL     OW72786   5.902   5.258  10.575
90316SOL    HW172787   5.981   5.311  10.562
90316SOL    HW272788   5.934   5.170  10.595
90317SOL     OW72789   8.969  11.164  13.394
90317SOL    HW172790   9.036  11.103  13.366
90317SOL    HW272791   8.989  11.183  13.485
90318SOL     OW72792  12.496   7.059   2.566
90318SOL    HW172793  12.545   6.988   2.524
90318SOL    HW272794  12.474   7.118   2.494
90319SOL     OW72795   3.258   6.360  10.303
90319SOL    HW172796   3.209   6.341  10.223
90319SOL    HW272797   3.333   6.301  10.300
90320SOL     OW72798   4.476  10.624  13.311
90320SOL    HW172799   4.424  10.646  13.233
90320SOL    HW272800   4.567  10.622  13.279
90321SOL     OW72801   4.597   9.115  13.872
90321SOL    HW172802   4.617   9.159  13.789
90321SOL    HW272803   4.517   9.159  13.903
90322SOL     OW72804   3.388   9.433   0.969
90322SOL    HW172805   3.350   9.381   0.898
90322SOL    HW272806   3.482   9.417   0.962
90323SOL     OW72807   5.365  10.586   6.795
90323SOL    HW172808   5.405  10.501   6.776
90323SOL    HW272809   5.439  10.644   6.811
90324SOL     OW72810  12.027  12.595   5.765
90324SOL    HW172811  11.953  12.644   5.729
90324SOL    HW272812  12.073  12.562   5.689
90325SOL     OW72813   1.134   8.201   0.139
90325SOL    HW172814   1.067   8.186   0.072
90325SOL    HW272815   1.176   8.283   0.113
90326SOL     OW72816   8.930   7.869   1.315
90326SOL    HW172817   9.005   7.859   1.374
90326SOL    HW272818   8.916   7.782   1.279
90327SOL     OW72819   8.710  13.411   8.858
90327SOL    HW172820   8.641  13.345   8.868
90327SOL    HW272821   8.716  13.452   8.944
90328SOL     OW72822  14.468   2.881   8.173
90328SOL    HW172823  14.466   2.937   8.251
90328SOL    HW272824  14.382   2.894   8.132
90329SOL     OW72825   9.843   6.192   2.510
90329SOL    HW172826   9.827   6.098   2.497
90329SOL    HW272827   9.927   6.195   2.556
90330SOL     OW72828   4.531   3.630  10.864
90330SOL    HW172829   4.606   3.687  10.886
90330SOL    HW272830   4.487   3.616  10.948
90331SOL     OW72831   8.955   5.007   4.499
90331SOL    HW172832   8.920   5.092   4.524
90331SOL    HW272833   8.879   4.949   4.495
90332SOL     OW72834   6.978   3.888   7.255
90332SOL    HW172835   7.051   3.885   7.194
90332SOL    HW272836   6.956   3.981   7.261
90333SOL     OW72837   7.304  14.363   5.353
90333SOL    HW172838   7.312  14.279   5.398
90333SOL    HW272839   7.213  14.388   5.366
90334SOL     OW72840   3.691   7.098   7.802
90334SOL    HW172841   3.753   7.073   7.870
90334SOL    HW272842   3.742   7.097   7.721
90335SOL     OW72843   8.415   8.138   9.144
90335SOL    HW172844   8.342   8.098   9.190
90335SOL    HW272845   8.384   8.224   9.117
90336SOL     OW72846   6.284   0.845   6.664
90336SOL    HW172847   6.327   0.929   6.649
90336SOL    HW272848   6.342   0.799   6.725
90337SOL     OW72849  12.527   6.116  10.178
90337SOL    HW172850  12.545   6.043  10.120
90337SOL    HW272851  12.441   6.097  10.215
90338SOL     OW72852   0.760  14.608  11.054
90338SOL    HW172853   0.730  14.527  11.013
90338SOL    HW272854   0.846  14.587  11.089
90339SOL     OW72855  14.788   1.803   7.420
90339SOL    HW172856  14.703   1.848   7.418
90339SOL    HW272857  14.828   1.831   7.502
90340SOL     OW72858   0.971   4.546   3.384
90340SOL    HW172859   0.935   4.629   3.350
90340SOL    HW272860   0.903   4.481   3.364
90341SOL     OW72861   5.218   1.980   0.558
90341SOL    HW172862   5.124   1.991   0.566
90341SOL    HW272863   5.231   1.885   0.559
90342SOL     OW72864   0.998   4.992   2.481
90342SOL    HW172865   0.950   5.019   2.403
90342SOL    HW272866   1.090   5.006   2.459
90343SOL     OW72867   7.472   3.910   2.138
90343SOL    HW172868   7.536   3.845   2.167
90343SOL    HW272869   7.521   3.964   2.076
90344SOL     OW72870   8.525  14.414   0.129
90344SOL    HW172871   8.436  14.441   0.152
90344SOL    HW272872   8.515  14.331   0.084
90345SOL     OW72873  13.374  13.049  10.764
90345SOL    HW172874  13.367  12.954  10.776
90345SOL    HW272875  13.415  13.080  10.844
90346SOL     OW72876  13.805   9.358   3.337
90346SOL    HW172877  13.750   9.349   3.415
90346SOL    HW272878  13.742   9.378   3.267
90347SOL     OW72879  12.035   0.342   7.991
90347SOL    HW172880  12.097   0.383   8.052
90347SOL    HW272881  12.066   0.369   7.904
90348SOL     OW72882  13.239   7.375  12.479
90348SOL    HW172883  13.289   7.434  12.535
90348SOL    HW272884  13.149   7.380  12.513
90349SOL     OW72885   5.328   5.836  13.475
90349SOL    HW172886   5.340   5.768  13.409
90349SOL    HW272887   5.349   5.918  13.431
90350SOL     OW72888  12.865  11.464   3.065
90350SOL    HW172889  12.795  11.451   3.129
90350SOL    HW272890  12.824  11.511   2.993
90351SOL     OW72891   2.953  13.156  10.008
90351SOL    HW172892   2.909  13.084  10.052
90351SOL    HW272893   2.884  13.220   9.990
90352SOL     OW72894   7.165  12.774   9.512
90352SOL    HW172895   7.161  12.723   9.592
90352SOL    HW272896   7.249  12.820   9.516
90353SOL     OW72897   8.627  12.365   2.992
90353SOL    HW172898   8.664  12.412   2.917
90353SOL    HW272899   8.532  12.373   2.980
90354SOL     OW72900   5.304   2.618   6.740
90354SOL    HW172901   5.371   2.579   6.684
90354SOL    HW272902   5.298   2.559   6.815
90355SOL     OW72903   7.267   0.617  13.178
90355SOL    HW172904   7.271   0.712  13.173
90355SOL    HW272905   7.355   0.588  13.154
90356SOL     OW72906   9.457   2.331  12.956
90356SOL    HW172907   9.527   2.395  12.972
90356SOL    HW272908   9.434   2.299  13.043
90357SOL     OW72909   3.016   0.902   2.974
90357SOL    HW172910   3.058   0.817   2.987
90357SOL    HW272911   3.079   0.952   2.922
90358SOL     OW72912   4.096   5.343   8.676
90358SOL    HW172913   4.122   5.260   8.716
90358SOL    HW272914   4.173   5.372   8.627
90359SOL     OW72915  13.011   1.533   0.041
90359SOL    HW172916  12.974   1.618   0.016
90359SOL    HW272917  12.951   1.468   0.005
90360SOL     OW72918   6.647   5.922  11.184
90360SOL    HW172919   6.681   5.995  11.236
90360SOL    HW272920   6.559   5.950  11.160
90361SOL     OW72921   5.525   7.918   1.074
90361SOL    HW172922   5.559   7.841   1.028
90361SOL    HW272923   5.518   7.889   1.165
90362SOL     OW72924   5.374  13.857  10.847
90362SOL    HW172925   5.332  13.804  10.780
90362SOL    HW272926   5.303  13.905  10.889
90363SOL     OW72927   4.093   5.032   9.399
90363SOL    HW172928   4.020   5.085   9.431
90363SOL    HW272929   4.103   5.058   9.308
90364SOL     OW72930  10.349   4.104  12.875
90364SOL    HW172931  10.355   4.065  12.788
90364SOL    HW272932  10.391   4.040  12.933
90365SOL     OW72933   1.198   0.019  13.778
90365SOL    HW172934   1.217   0.112  13.793
90365SOL    HW272935   1.212   0.007  13.684
90366SOL     OW72936   9.817  12.897   7.621
90366SOL    HW172937   9.875  12.957   7.574
90366SOL    HW272938   9.827  12.922   7.713
90367SOL     OW72939  11.473   8.858   0.093
90367SOL    HW172940  11.443   8.879   0.005
90367SOL    HW272941  11.435   8.773   0.112
90368SOL     OW72942  12.978   0.083  14.785
90368SOL    HW172943  12.914   0.105  14.852
90368SOL    HW272944  12.926   0.046  14.713
90369SOL     OW72945  12.932   7.922  11.365
90369SOL    HW172946  13.006   7.904  11.423
90369SOL    HW272947  12.873   7.847  11.376
90370SOL     OW72948  11.786   6.934  12.607
90370SOL    HW172949  11.777   6.999  12.677
90370SOL    HW272950  11.795   6.850  12.653
90371SOL     OW72951  14.324   2.412   0.116
90371SOL    HW172952  14.376   2.352   0.169
90371SOL    HW272953  14.388   2.476   0.084
90372SOL     OW72954   5.255   9.467   6.485
90372SOL    HW172955   5.235   9.474   6.392
90372SOL    HW272956   5.336   9.517   6.496
90373SOL     OW72957   9.038   8.532  13.645
90373SOL    HW172958   9.120   8.526  13.595
90373SOL    HW272959   8.977   8.575  13.585
90374SOL     OW72960   8.291   6.058   1.992
90374SOL    HW172961   8.298   5.997   1.918
90374SOL    HW272962   8.297   6.145   1.952
90375SOL     OW72963   2.965   6.826   0.731
90375SOL    HW172964   2.898   6.772   0.688
90375SOL    HW272965   3.006   6.767   0.794
90376SOL     OW72966  12.651   9.432  11.906
90376SOL    HW172967  12.629   9.489  11.832
90376SOL    HW272968  12.580   9.445  11.969
90377SOL     OW72969   7.858   1.744  11.073
90377SOL    HW172970   7.845   1.689  10.995
90377SOL    HW272971   7.775   1.738  11.120
90378SOL     OW72972  10.156   0.442   4.359
90378SOL    HW172973  10.168   0.455   4.453
90378SOL    HW272974  10.240   0.465   4.320
90379SOL     OW72975  14.391   1.146   5.484
90379SOL    HW172976  14.297   1.160   5.478
90379SOL    HW272977  14.408   1.071   5.427
90380SOL     OW72978   1.236   9.372  10.306
90380SOL    HW172979   1.225   9.378  10.211
90380SOL    HW272980   1.153   9.405  10.342
90381SOL     OW72981   5.320  13.512  10.839
90381SOL    HW172982   5.255  13.449  10.869
90381SOL    HW272983   5.318  13.582  10.905
90382SOL     OW72984  12.039  11.096   1.451
90382SOL    HW172985  12.119  11.147   1.438
90382SOL    HW272986  12.060  11.009   1.415
90383SOL     OW72987  14.406  11.929   0.380
90383SOL    HW172988  14.441  11.919   0.292
90383SOL    HW272989  14.347  11.855   0.392
90384SOL     OW72990   8.432  14.131   0.257
90384SOL    HW172991   8.513  14.180   0.276
90384SOL    HW272992   8.450  14.042   0.288
90385SOL     OW72993  10.959   3.922  13.415
90385SOL    HW172994  11.017   3.875  13.355
90385SOL    HW272995  10.955   4.011  13.380
90386SOL     OW72996  10.479   0.838   0.214
90386SOL    HW172997  10.488   0.796   0.300
90386SOL    HW272998  10.567   0.837   0.177
90387SOL     OW72999   2.015   0.846  12.318
90387SOL    HW173000   2.028   0.863  12.224
90387SOL    HW273001   2.099   0.811  12.348
90388SOL     OW73002   0.213   5.462   3.130
90388SOL    HW173003   0.136   5.436   3.080
90388SOL    HW273004   0.202   5.556   3.144
90389SOL     OW73005   4.537  13.227   3.266
90389SOL    HW173006   4.617  13.253   3.312
90389SOL    HW273007   4.469  13.230   3.333
90390SOL     OW73008   8.774   8.237  13.919
90390SOL    HW173009   8.807   8.259  14.007
90390SOL    HW273010   8.707   8.171  13.935
90391SOL     OW73011   4.626   0.132   0.486
90391SOL    HW173012   4.596   0.223   0.482
90391SOL    HW273013   4.587   0.098   0.566
90392SOL     OW73014  10.671   4.207  11.553
90392SOL    HW173015  10.672   4.268  11.480
90392SOL    HW273016  10.597   4.150  11.536
90393SOL     OW73017  14.557   8.995   1.522
90393SOL    HW173018  14.467   9.026   1.532
90393SOL    HW273019  14.571   8.935   1.595
90394SOL     OW73020   0.377  11.348   8.338
90394SOL    HW173021   0.446  11.413   8.344
90394SOL    HW273022   0.416  11.268   8.373
90395SOL     OW73023   6.224   3.151   6.195
90395SOL    HW173024   6.164   3.132   6.123
90395SOL    HW273025   6.305   3.180   6.153
90396SOL     OW73026  10.821  11.940   6.541
90396SOL    HW173027  10.896  11.965   6.488
90396SOL    HW273028  10.818  11.844   6.534
90397SOL     OW73029   2.442   9.340   5.072
90397SOL    HW173030   2.532   9.372   5.064
90397SOL    HW273031   2.393   9.416   5.105
90398SOL     OW73032   7.342   5.621  12.597
90398SOL    HW173033   7.300   5.585  12.519
90398SOL    HW273034   7.380   5.704  12.568
90399SOL     OW73035  12.659   7.114   7.742
90399SOL    HW173036  12.684   7.087   7.830
90399SOL    HW273037  12.721   7.070   7.685
90400SOL     OW73038  14.183   8.132   9.371
90400SOL    HW173039  14.092   8.110   9.391
90400SOL    HW273040  14.188   8.128   9.275
90401SOL     OW73041  14.295  10.667   3.188
90401SOL    HW173042  14.231  10.687   3.256
90401SOL    HW273043  14.370  10.722   3.210
90402SOL     OW73044  10.432  11.310   7.324
90402SOL    HW173045  10.426  11.243   7.393
90402SOL    HW273046  10.342  11.319   7.292
90403SOL     OW73047  12.965   5.808  14.379
90403SOL    HW173048  12.930   5.897  14.377
90403SOL    HW273049  13.022   5.806  14.455
90404SOL     OW73050   2.312   8.708  14.798
90404SOL    HW173051   2.341   8.618  14.809
90404SOL    HW273052   2.241   8.703  14.733
90405SOL     OW73053  14.076   5.382  11.368
90405SOL    HW173054  14.120   5.410  11.448
90405SOL    HW273055  14.026   5.458  11.340
90406SOL     OW73056  12.983   0.656  12.495
90406SOL    HW173057  12.982   0.708  12.415
90406SOL    HW273058  13.012   0.569  12.467
90407SOL     OW73059  14.075  10.069   0.347
90407SOL    HW173060  14.141  10.102   0.408
90407SOL    HW273061  13.998  10.123   0.363
90408SOL     OW73062  10.078  11.173   6.413
90408SOL    HW173063  10.043  11.089   6.382
90408SOL    HW273064  10.094  11.224   6.333
90409SOL     OW73065   2.947   7.217   2.860
90409SOL    HW173066   2.898   7.277   2.803
90409SOL    HW273067   2.958   7.265   2.942
90410SOL     OW73068  13.723   3.377  12.322
90410SOL    HW173069  13.707   3.284  12.340
90410SOL    HW273070  13.636   3.413  12.305
90411SOL     OW73071   2.097   9.287   9.595
90411SOL    HW173072   2.106   9.342   9.673
90411SOL    HW273073   2.149   9.331   9.528
90412SOL     OW73074   8.065  14.169  13.835
90412SOL    HW173075   8.008  14.177  13.912
90412SOL    HW273076   8.096  14.259  13.819
90413SOL     OW73077  13.078   5.622   7.106
90413SOL    HW173078  13.024   5.675   7.165
90413SOL    HW273079  13.124   5.686   7.052
90414SOL     OW73080   3.636  13.412   3.623
90414SOL    HW173081   3.553  13.378   3.658
90414SOL    HW273082   3.665  13.477   3.687
90415SOL     OW73083   1.533   9.832   0.157
90415SOL    HW173084   1.614   9.880   0.177
90415SOL    HW273085   1.465   9.899   0.162
90416SOL     OW73086  12.977   3.624  11.159
90416SOL    HW173087  12.985   3.718  11.175
90416SOL    HW273088  12.911   3.618  11.090
90417SOL     OW73089   6.295   2.858  13.017
90417SOL    HW173090   6.202   2.838  13.013
90417SOL    HW273091   6.334   2.805  12.947
90418SOL     OW73092   7.770   3.061   5.693
90418SOL    HW173093   7.701   3.127   5.702
90418SOL    HW273094   7.850   3.113   5.684
90419SOL     OW73095  10.125  12.319   4.610
90419SOL    HW173096  10.043  12.365   4.592
90419SOL    HW273097  10.188  12.389   4.629
90420SOL     OW73098   1.132   2.774  13.205
90420SOL    HW173099   1.180   2.828  13.141
90420SOL    HW273100   1.063   2.831  13.238
90421SOL     OW73101   7.504   0.391   3.817
90421SOL    HW173102   7.436   0.383   3.885
90421SOL    HW273103   7.464   0.352   3.739
90422SOL     OW73104   2.539   7.289   7.257
90422SOL    HW173105   2.457   7.241   7.273
90422SOL    HW273106   2.608   7.227   7.281
90423SOL     OW73107   2.079   2.721   6.688
90423SOL    HW173108   2.017   2.761   6.750
90423SOL    HW273109   2.061   2.765   6.605
90424SOL     OW73110  10.153   2.685  12.039
90424SOL    HW173111  10.204   2.685  11.958
90424SOL    HW273112  10.123   2.775  12.049
90425SOL     OW73113   9.940   3.720   4.187
90425SOL    HW173114   9.942   3.637   4.236
90425SOL    HW273115   9.849   3.731   4.162
90426SOL     OW73116  14.505   8.161   3.540
90426SOL    HW173117  14.495   8.181   3.633
90426SOL    HW273118  14.421   8.183   3.501
90427SOL     OW73119   3.216  13.683   8.110
90427SOL    HW173120   3.168  13.687   8.193
90427SOL    HW273121   3.210  13.771   8.075
90428SOL     OW73122   7.339   4.457  10.231
90428SOL    HW173123   7.366   4.543  10.200
90428SOL    HW273124   7.314   4.409  10.153
90429SOL     OW73125  13.736   0.119   0.835
90429SOL    HW173126  13.739   0.214   0.823
90429SOL    HW273127  13.778   0.103   0.919
90430SOL     OW73128  14.541   3.952   2.266
90430SOL    HW173129  14.527   3.944   2.172
90430SOL    HW273130  14.515   4.042   2.287
90431SOL     OW73131   8.382  10.927   9.195
90431SOL    HW173132   8.422  10.900   9.277
90431SOL    HW273133   8.300  10.967   9.220
90432SOL     OW73134   3.172  10.994   0.948
90432SOL    HW173135   3.217  11.053   1.008
90432SOL    HW273136   3.239  10.934   0.917
90433SOL     OW73137  10.167   3.872   5.092
90433SOL    HW173138  10.119   3.905   5.168
90433SOL    HW273139  10.249   3.921   5.092
90434SOL     OW73140   7.692   7.960  12.639
90434SOL    HW173141   7.615   7.961  12.582
90434SOL    HW273142   7.731   8.047  12.627
90435SOL     OW73143   9.503   2.625   6.325
90435SOL    HW173144   9.434   2.574   6.367
90435SOL    HW273145   9.460   2.707   6.300
90436SOL     OW73146   8.177   9.736   6.406
90436SOL    HW173147   8.173   9.825   6.372
90436SOL    HW273148   8.189   9.746   6.500
90437SOL     OW73149  11.742   2.899   7.137
90437SOL    HW173150  11.800   2.915   7.062
90437SOL    HW273151  11.764   2.810   7.164
90438SOL     OW73152   1.296   6.182  14.785
90438SOL    HW173153   1.209   6.152  14.812
90438SOL    HW273154   1.306   6.149  14.696
90439SOL     OW73155   9.901   7.805  12.336
90439SOL    HW173156   9.847   7.859  12.395
90439SOL    HW273157   9.936   7.736  12.393
90440SOL     OW73158   3.770  12.975   5.174
90440SOL    HW173159   3.714  12.918   5.226
90440SOL    HW273160   3.828  12.916   5.126
90441SOL     OW73161  13.781   4.602   1.421
90441SOL    HW173162  13.780   4.670   1.488
90441SOL    HW273163  13.730   4.639   1.348
90442SOL     OW73164   3.073  12.307  13.174
90442SOL    HW173165   3.072  12.213  13.161
90442SOL    HW273166   3.020  12.321  13.253
90443SOL     OW73167  12.844   8.560   3.998
90443SOL    HW173168  12.917   8.619   4.016
90443SOL    HW273169  12.819   8.581   3.908
90444SOL     OW73170  12.273   7.000  11.044
90444SOL    HW173171  12.186   7.026  11.074
90444SOL    HW273172  12.288   7.051  10.964
90445SOL     OW73173  13.407   1.264   7.238
90445SOL    HW173174  13.452   1.180   7.231
90445SOL    HW273175  13.474   1.324   7.270
90446SOL     OW73176  12.340   0.588  12.572
90446SOL    HW173177  12.391   0.542  12.506
90446SOL    HW273178  12.378   0.676  12.574
90447SOL     OW73179  12.521   5.813   2.888
90447SOL    HW173180  12.435   5.796   2.927
90447SOL    HW273181  12.568   5.864   2.955
90448SOL     OW73182   5.691  10.283   3.611
90448SOL    HW173183   5.647  10.366   3.592
90448SOL    HW273184   5.784  10.303   3.609
90449SOL     OW73185  13.441   5.044   8.014
90449SOL    HW173186  13.529   5.080   8.003
90449SOL    HW273187  13.392   5.116   8.055
90450SOL     OW73188   3.214   7.904   6.229
90450SOL    HW173189   3.223   7.889   6.135
90450SOL    HW273190   3.132   7.954   6.238
90451SOL     OW73191   2.115   8.013   6.999
90451SOL    HW173192   2.130   7.940   6.939
90451SOL    HW273193   2.104   7.972   7.085
90452SOL     OW73194  14.279   4.809  10.826
90452SOL    HW173195  14.188   4.817  10.798
90452SOL    HW273196  14.283   4.725  10.872
90453SOL     OW73197  12.896   0.038   9.922
90453SOL    HW173198  12.927   0.114   9.873
90453SOL    HW273199  12.841   0.075   9.991
90454SOL     OW73200  13.229   0.971   8.601
90454SOL    HW173201  13.200   0.886   8.634
90454SOL    HW273202  13.251   1.022   8.679
90455SOL     OW73203   4.057  14.395  12.201
90455SOL    HW173204   4.081  14.480  12.236
90455SOL    HW273205   3.963  14.401  12.183
90456SOL     OW73206   9.577   6.850   0.817
90456SOL    HW173207   9.554   6.916   0.751
90456SOL    HW273208   9.624   6.898   0.885
90457SOL     OW73209   1.816  12.961  10.593
90457SOL    HW173210   1.908  12.969  10.567
90457SOL    HW273211   1.783  12.886  10.544
90458SOL     OW73212   7.511   1.042   4.836
90458SOL    HW173213   7.568   1.089   4.897
90458SOL    HW273214   7.572   1.000   4.775
90459SOL     OW73215  10.108  13.038  10.726
90459SOL    HW173216  10.049  13.112  10.732
90459SOL    HW273217  10.139  13.038  10.635
90460SOL     OW73218   1.702   0.075   9.572
90460SOL    HW173219   1.723   0.154   9.621
90460SOL    HW273220   1.630   0.035   9.620
90461SOL     OW73221   8.512   7.688   0.429
90461SOL    HW173222   8.489   7.659   0.341
90461SOL    HW273223   8.571   7.762   0.415
90462SOL     OW73224  13.462   7.962   8.408
90462SOL    HW173225  13.370   7.975   8.432
90462SOL    HW273226  13.475   7.867   8.414
90463SOL     OW73227   9.964   5.121   0.815
90463SOL    HW173228   9.880   5.117   0.861
90463SOL    HW273229   9.947   5.081   0.730
90464SOL     OW73230   4.139  11.388  13.683
90464SOL    HW173231   4.190  11.318  13.723
90464SOL    HW273232   4.119  11.355  13.595
90465SOL     OW73233   0.524   3.661  13.891
90465SOL    HW173234   0.556   3.751  13.885
90465SOL    HW273235   0.459   3.664  13.962
90466SOL     OW73236  13.211   4.109  12.192
90466SOL    HW173237  13.285   4.049  12.177
90466SOL    HW273238  13.252   4.190  12.223
90467SOL     OW73239  13.121   4.307   2.738
90467SOL    HW173240  13.110   4.397   2.707
90467SOL    HW273241  13.035   4.268   2.728
90468SOL     OW73242   4.688  10.936  12.197
90468SOL    HW173243   4.743  10.868  12.158
90468SOL    HW273244   4.633  10.967  12.125
90469SOL     OW73245   4.152   4.317   6.747
90469SOL    HW173246   4.099   4.238   6.735
90469SOL    HW273247   4.214   4.315   6.675
90470SOL     OW73248   4.744   9.270  12.847
90470SOL    HW173249   4.791   9.301  12.925
90470SOL    HW273250   4.658   9.246  12.880
90471SOL     OW73251   9.433  10.307  10.443
90471SOL    HW173252   9.499  10.238  10.442
90471SOL    HW273253   9.469  10.374  10.500
90472SOL     OW73254   2.976   5.736   9.159
90472SOL    HW173255   2.914   5.681   9.206
90472SOL    HW273256   3.062   5.710   9.192
90473SOL     OW73257   7.654   4.604   6.844
90473SOL    HW173258   7.732   4.554   6.819
90473SOL    HW273259   7.682   4.657   6.919
90474SOL     OW73260   6.917  14.711   3.332
90474SOL    HW173261   6.988  14.660   3.371
90474SOL    HW273262   6.880  14.654   3.265
90475SOL     OW73263   1.132   1.783   1.820
90475SOL    HW173264   1.118   1.738   1.736
90475SOL    HW273265   1.227   1.789   1.829
90476SOL     OW73266   8.813   6.201   4.831
90476SOL    HW173267   8.734   6.148   4.831
90476SOL    HW273268   8.875   6.152   4.777
90477SOL     OW73269   4.148   6.562   1.233
90477SOL    HW173270   4.118   6.592   1.147
90477SOL    HW273271   4.126   6.633   1.293
90478SOL     OW73272   2.248   0.264   2.049
90478SOL    HW173273   2.339   0.260   2.080
90478SOL    HW273274   2.228   0.357   2.047
90479SOL     OW73275   7.389   6.388   0.806
90479SOL    HW173276   7.365   6.318   0.745
90479SOL    HW273277   7.485   6.387   0.807
90480SOL     OW73278  13.970   9.690   0.743
90480SOL    HW173279  13.950   9.695   0.649
90480SOL    HW273280  14.055   9.733   0.751
90481SOL     OW73281   7.631  10.132   3.522
90481SOL    HW173282   7.723  10.146   3.499
90481SOL    HW273283   7.615  10.040   3.500
90482SOL     OW73284   5.828  12.192   3.912
90482SOL    HW173285   5.813  12.168   3.820
90482SOL    HW273286   5.843  12.109   3.957
90483SOL     OW73287   5.745  14.096   7.459
90483SOL    HW173288   5.724  14.164   7.395
90483SOL    HW273289   5.812  14.043   7.417
90484SOL     OW73290   9.752   3.962   2.729
90484SOL    HW173291   9.750   3.956   2.825
90484SOL    HW273292   9.791   4.047   2.711
90485SOL     OW73293   6.141   9.790   3.995
90485SOL    HW173294   6.052   9.825   3.993
90485SOL    HW273295   6.158   9.762   3.905
90486SOL     OW73296  11.181  13.607   2.112
90486SOL    HW173297  11.250  13.541   2.110
90486SOL    HW273298  11.176  13.634   2.204
90487SOL     OW73299   8.566  13.229  10.136
90487SOL    HW173300   8.477  13.245  10.104
90487SOL    HW273301   8.597  13.153  10.086
90488SOL     OW73302   4.657  13.552   1.041
90488SOL    HW173303   4.655  13.639   1.003
90488SOL    HW273304   4.572  13.513   1.019
90489SOL     OW73305  12.453  11.160   8.029
90489SOL    HW173306  12.427  11.100   7.959
90489SOL    HW273307  12.376  11.215   8.043
90490SOL     OW73308   8.330   0.436   6.414
90490SOL    HW173309   8.424   0.421   6.406
90490SOL    HW273310   8.294   0.352   6.443
90491SOL     OW73311   7.111  12.554  10.682
90491SOL    HW173312   7.172  12.481  10.689
90491SOL    HW273313   7.166  12.632  10.675
90492SOL     OW73314   9.955   7.774   5.492
90492SOL    HW173315   9.907   7.807   5.568
90492SOL    HW273316   9.893   7.781   5.419
90493SOL     OW73317   6.760   6.186   5.675
90493SOL    HW173318   6.679   6.236   5.690
90493SOL    HW273319   6.749   6.106   5.726
90494SOL     OW73320   3.420   4.356   5.421
90494SOL    HW173321   3.368   4.276   5.424
90494SOL    HW273322   3.414   4.393   5.509
90495SOL     OW73323  10.382  13.737  12.702
90495SOL    HW173324  10.377  13.809  12.764
90495SOL    HW273325  10.360  13.776  12.618
90496SOL     OW73326   1.531   4.860  14.794
90496SOL    HW173327   1.470   4.792  14.823
90496SOL    HW273328   1.515   4.934  14.853
90497SOL     OW73329   2.573  12.349   6.724
90497SOL    HW173330   2.527  12.409   6.783
90497SOL    HW273331   2.661  12.385   6.718
90498SOL     OW73332   4.219  13.760   1.225
90498SOL    HW173333   4.234  13.666   1.217
90498SOL    HW273334   4.234  13.794   1.136
90499SOL     OW73335   9.529  11.362   2.168
90499SOL    HW173336   9.468  11.327   2.232
90499SOL    HW273337   9.612  11.320   2.188
90500SOL     OW73338  11.863   4.980  11.290
90500SOL    HW173339  11.906   4.986  11.375
90500SOL    HW273340  11.915   4.916  11.241
90501SOL     OW73341   5.723   1.464   1.542
90501SOL    HW173342   5.774   1.492   1.466
90501SOL    HW273343   5.699   1.546   1.586
90502SOL     OW73344  11.535  12.854  12.665
90502SOL    HW173345  11.492  12.780  12.708
90502SOL    HW273346  11.484  12.930  12.691
90503SOL     OW73347  14.616   5.211   5.598
90503SOL    HW173348  14.686   5.168   5.549
90503SOL    HW273349  14.660   5.281   5.645
90504SOL     OW73350   8.959  13.354   7.895
90504SOL    HW173351   8.983  13.345   7.987
90504SOL    HW273352   8.870  13.387   7.896
90505SOL     OW73353   3.177   7.830   3.915
90505SOL    HW173354   3.220   7.915   3.914
90505SOL    HW273355   3.249   7.767   3.921
90506SOL     OW73356   7.791   0.574  11.109
90506SOL    HW173357   7.824   0.537  11.190
90506SOL    HW273358   7.856   0.549  11.043
90507SOL     OW73359   7.438   0.455  14.419
90507SOL    HW173360   7.526   0.426  14.440
90507SOL    HW273361   7.438   0.549  14.435
90508SOL     OW73362  10.903   4.340  10.536
90508SOL    HW173363  10.982   4.326  10.484
90508SOL    HW273364  10.860   4.414  10.493
90509SOL     OW73365   4.113   3.979   4.849
90509SOL    HW173366   4.171   4.052   4.870
90509SOL    HW273367   4.157   3.902   4.887
90510SOL     OW73368   4.315   4.448   0.201
90510SOL    HW173369   4.327   4.353   0.197
90510SOL    HW273370   4.387   4.479   0.255
90511SOL     OW73371   5.322   7.394   3.425
90511SOL    HW173372   5.400   7.381   3.371
90511SOL    HW273373   5.269   7.458   3.376
90512SOL     OW73374   2.797  13.506   8.817
90512SOL    HW173375   2.816  13.541   8.904
90512SOL    HW273376   2.851  13.428   8.810
90513SOL     OW73377  13.403   0.663   1.861
90513SOL    HW173378  13.315   0.630   1.843
90513SOL    HW273379  13.444   0.595   1.915
90514SOL     OW73380   2.821  10.948   2.359
90514SOL    HW173381   2.857  10.860   2.348
90514SOL    HW273382   2.875  10.987   2.428
90515SOL     OW73383  12.477  11.918  13.197
90515SOL    HW173384  12.476  12.008  13.230
90515SOL    HW273385  12.428  11.922  13.114
90516SOL     OW73386  14.259  10.597  14.470
90516SOL    HW173387  14.251  10.550  14.552
90516SOL    HW273388  14.174  10.584  14.426
90517SOL     OW73389   2.223   7.655   2.762
90517SOL    HW173390   2.263   7.596   2.826
90517SOL    HW273391   2.168   7.713   2.815
90518SOL     OW73392   8.290  10.609   0.344
90518SOL    HW173393   8.278  10.636   0.435
90518SOL    HW273394   8.305  10.515   0.348
90519SOL     OW73395  14.276   1.412   1.188
90519SOL    HW173396  14.190   1.396   1.225
90519SOL    HW273397  14.259   1.462   1.108
90520SOL     OW73398  12.871  14.521   8.917
90520SOL    HW173399  12.925  14.463   8.863
90520SOL    HW273400  12.933  14.559   8.980
90521SOL     OW73401  13.964   7.977   0.102
90521SOL    HW173402  13.982   8.004   0.012
90521SOL    HW273403  13.949   7.883   0.096
90522SOL     OW73404   3.501   5.876   7.642
90522SOL    HW173405   3.533   5.958   7.680
90522SOL    HW273406   3.542   5.873   7.555
90523SOL     OW73407   3.732  14.128   4.634
90523SOL    HW173408   3.772  14.145   4.549
90523SOL    HW273409   3.643  14.100   4.614
90524SOL     OW73410   0.736   5.766   4.206
90524SOL    HW173411   0.691   5.849   4.224
90524SOL    HW273412   0.820   5.774   4.251
90525SOL     OW73413  14.861   9.930  12.750
90525SOL    HW173414   0.061   9.878  12.726
90525SOL    HW273415  14.794   9.866  12.773
90526SOL     OW73416  14.628  11.734   3.177
90526SOL    HW173417  14.539  11.762   3.199
90526SOL    HW273418  14.658  11.798   3.112
90527SOL     OW73419  14.778   8.443  10.891
90527SOL    HW173420  14.871   8.424  10.881
90527SOL    HW273421  14.771   8.538  10.883
90528SOL     OW73422   2.372  14.082  14.819
90528SOL    HW173423   2.464  14.076  14.796
90528SOL    HW273424   2.352  14.176  14.816
90529SOL     OW73425  14.420   8.021   6.305
90529SOL    HW173426  14.480   8.054   6.372
90529SOL    HW273427  14.471   7.958   6.255
90530SOL     OW73428  10.479   1.891  13.891
90530SOL    HW173429  10.442   1.925  13.973
90530SOL    HW273430  10.407   1.893  13.829
90531SOL     OW73431   4.731  13.517  14.491
90531SOL    HW173432   4.822  13.533  14.465
90531SOL    HW273433   4.681  13.523  14.410
90532SOL     OW73434   6.895   6.736   1.156
90532SOL    HW173435   6.975   6.750   1.206
90532SOL    HW273436   6.827   6.721   1.222
90533SOL     OW73437   0.269  13.866  10.323
90533SOL    HW173438   0.233  13.938  10.375
90533SOL    HW273439   0.297  13.801  10.388
90534SOL     OW73440   5.986   9.972   5.378
90534SOL    HW173441   5.910   9.992   5.323
90534SOL    HW273442   6.062   9.996   5.325
90535SOL     OW73443  11.422  12.290   3.522
90535SOL    HW173444  11.494  12.260   3.577
90535SOL    HW273445  11.464  12.339   3.451
90536SOL     OW73446   9.115  13.646  10.753
90536SOL    HW173447   9.208  13.672  10.757
90536SOL    HW273448   9.107  13.577  10.819
90537SOL     OW73449  14.006   8.955  12.552
90537SOL    HW173450  14.098   8.957  12.576
90537SOL    HW273451  13.987   8.862  12.537
90538SOL     OW73452   6.316  12.372   2.947
90538SOL    HW173453   6.303  12.374   2.852
90538SOL    HW273454   6.239  12.416   2.983
90539SOL     OW73455   9.702  13.470  11.080
90539SOL    HW173456   9.735  13.391  11.037
90539SOL    HW273457   9.661  13.519  11.009
90540SOL     OW73458   9.539   3.210   6.980
90540SOL    HW173459   9.592   3.177   6.907
90540SOL    HW273460   9.572   3.299   6.995
90541SOL     OW73461  13.291   4.286  11.366
90541SOL    HW173462  13.248   4.321  11.288
90541SOL    HW273463  13.367   4.342  11.379
90542SOL     OW73464  13.256   9.733   1.173
90542SOL    HW173465  13.232   9.657   1.227
90542SOL    HW273466  13.199   9.726   1.096
90543SOL     OW73467  14.260  13.455   6.887
90543SOL    HW173468  14.204  13.530   6.909
90543SOL    HW273469  14.349  13.486   6.907
90544SOL     OW73470   4.838   3.773   1.234
90544SOL    HW173471   4.899   3.739   1.169
90544SOL    HW273472   4.825   3.865   1.211
90545SOL     OW73473  12.720   1.810   2.684
90545SOL    HW173474  12.663   1.769   2.749
90545SOL    HW273475  12.703   1.904   2.692
90546SOL     OW73476   7.557  12.688  12.940
90546SOL    HW173477   7.649  12.664  12.928
90546SOL    HW273478   7.547  12.700  13.034
90547SOL     OW73479   6.281   4.169   9.786
90547SOL    HW173480   6.340   4.184   9.712
90547SOL    HW273481   6.307   4.083   9.820
90548SOL     OW73482   2.065   0.794   8.693
90548SOL    HW173483   2.134   0.734   8.723
90548SOL    HW273484   2.033   0.754   8.612
90549SOL     OW73485   6.450   9.455   5.459
90549SOL    HW173486   6.393   9.532   5.456
90549SOL    HW273487   6.425   9.410   5.539
90550SOL     OW73488   3.061   9.397  12.764
90550SOL    HW173489   3.091   9.440  12.844
90550SOL    HW273490   3.129   9.333  12.744
90551SOL     OW73491   1.525   3.841   8.241
90551SOL    HW173492   1.550   3.765   8.189
90551SOL    HW273493   1.526   3.810   8.332
90552SOL     OW73494  14.392  10.816   2.855
90552SOL    HW173495  14.417  10.892   2.803
90552SOL    HW273496  14.392  10.848   2.945
90553SOL     OW73497   6.854   9.204  13.379
90553SOL    HW173498   6.926   9.202  13.442
90553SOL    HW273499   6.775   9.204  13.432
90554SOL     OW73500   3.664   1.172   7.680
90554SOL    HW173501   3.614   1.135   7.753
90554SOL    HW273502   3.754   1.146   7.697
90555SOL     OW73503  11.856  11.824  13.586
90555SOL    HW173504  11.825  11.856  13.670
90555SOL    HW273505  11.883  11.734  13.603
90556SOL     OW73506  14.837   4.178   0.385
90556SOL    HW173507   0.001   4.191   0.471
90556SOL    HW273508  14.841   4.265   0.344
90557SOL     OW73509   7.029  13.044   9.733
90557SOL    HW173510   7.081  13.039   9.653
90557SOL    HW273511   7.063  12.974   9.789
90558SOL     OW73512   8.021   9.607   8.577
90558SOL    HW173513   8.051   9.695   8.602
90558SOL    HW273514   7.971   9.577   8.653
90559SOL     OW73515   3.291  12.431  13.296
90559SOL    HW173516   3.208  12.435  13.248
90559SOL    HW273517   3.273  12.476  13.379
90560SOL     OW73518  11.202   5.763  10.741
90560SOL    HW173519  11.147   5.838  10.719
90560SOL    HW273520  11.218   5.771  10.835
90561SOL     OW73521   3.184  12.825  12.948
90561SOL    HW173522   3.162  12.863  13.034
90561SOL    HW273523   3.235  12.893  12.905
90562SOL     OW73524   1.276   1.389   1.510
90562SOL    HW173525   1.336   1.406   1.438
90562SOL    HW273526   1.197   1.354   1.469
90563SOL     OW73527   8.506  14.533  11.492
90563SOL    HW173528   8.536  14.599  11.430
90563SOL    HW273529   8.579  14.471  11.498
90564SOL     OW73530   2.396   2.412   4.074
90564SOL    HW173531   2.480   2.418   4.028
90564SOL    HW273532   2.391   2.492   4.126
90565SOL     OW73533   7.019   9.519   4.555
90565SOL    HW173534   7.090   9.497   4.495
90565SOL    HW273535   6.958   9.445   4.548
90566SOL     OW73536   5.290  12.660   9.095
90566SOL    HW173537   5.197  12.681   9.098
90566SOL    HW273538   5.294  12.577   9.048
90567SOL     OW73539   8.395   2.022   6.910
90567SOL    HW173540   8.475   1.970   6.907
90567SOL    HW273541   8.358   2.004   6.997
90568SOL     OW73542   6.315   0.527  11.079
90568SOL    HW173543   6.262   0.464  11.029
90568SOL    HW273544   6.371   0.568  11.013
90569SOL     OW73545   8.261  10.131   9.442
90569SOL    HW173546   8.203  10.110   9.369
90569SOL    HW273547   8.268  10.050   9.492
90570SOL     OW73548   3.074  11.169  10.183
90570SOL    HW173549   3.005  11.104  10.176
90570SOL    HW273550   3.051  11.237  10.120
90571SOL     OW73551  13.236   6.634   4.064
90571SOL    HW173552  13.212   6.630   3.972
90571SOL    HW273553  13.189   6.560   4.104
90572SOL     OW73554  14.323   0.932  10.314
90572SOL    HW173555  14.230   0.937  10.292
90572SOL    HW273556  14.326   0.881  10.395
90573SOL     OW73557  13.841  11.673   8.012
90573SOL    HW173558  13.837  11.626   7.928
90573SOL    HW273559  13.829  11.765   7.989
90574SOL     OW73560  13.824  10.265   8.986
90574SOL    HW173561  13.861  10.235   9.069
90574SOL    HW273562  13.853  10.201   8.921
90575SOL     OW73563  13.998   2.471   3.585
90575SOL    HW173564  13.945   2.391   3.587
90575SOL    HW273565  13.964   2.524   3.658
90576SOL     OW73566   3.573   2.802  11.603
90576SOL    HW173567   3.543   2.766  11.686
90576SOL    HW273568   3.668   2.793  11.606
90577SOL     OW73569   7.635   6.368   6.647
90577SOL    HW173570   7.704   6.435   6.644
90577SOL    HW273571   7.609   6.357   6.555
90578SOL     OW73572   7.084   8.206   4.895
90578SOL    HW173573   7.138   8.258   4.954
90578SOL    HW273574   6.997   8.207   4.935
90579SOL     OW73575  10.230   6.343  10.105
90579SOL    HW173576  10.149   6.382  10.136
90579SOL    HW273577  10.283   6.417  10.075
90580SOL     OW73578   4.688  12.684   5.953
90580SOL    HW173579   4.721  12.693   6.043
90580SOL    HW273580   4.693  12.773   5.917
90581SOL     OW73581   9.811   7.268   1.064
90581SOL    HW173582   9.803   7.257   0.969
90581SOL    HW273583   9.880   7.333   1.075
90582SOL     OW73584  14.032   4.889   8.278
90582SOL    HW173585  14.089   4.813   8.280
90582SOL    HW273586  14.091   4.964   8.291
90583SOL     OW73587   0.691   3.165  11.725
90583SOL    HW173588   0.598   3.163  11.746
90583SOL    HW273589   0.693   3.165  11.629
90584SOL     OW73590   6.620   3.185   7.803
90584SOL    HW173591   6.682   3.112   7.811
90584SOL    HW273592   6.584   3.196   7.891
90585SOL     OW73593  11.521   0.583   2.844
90585SOL    HW173594  11.459   0.519   2.879
90585SOL    HW273595  11.547   0.547   2.759
90586SOL     OW73596   3.107   6.949   3.998
90586SOL    HW173597   3.076   6.983   4.082
90586SOL    HW273598   3.201   6.937   4.010
90587SOL     OW73599   9.272   0.345   4.286
90587SOL    HW173600   9.287   0.252   4.268
90587SOL    HW273601   9.341   0.369   4.347
90588SOL     OW73602  10.848  14.130   7.988
90588SOL    HW173603  10.781  14.071   7.952
90588SOL    HW273604  10.817  14.218   7.963
90589SOL     OW73605  11.414   0.439   9.537
90589SOL    HW173606  11.508   0.450   9.525
90589SOL    HW273607  11.402   0.424   9.630
90590SOL     OW73608   3.297   9.068  13.193
90590SOL    HW173609   3.203   9.082  13.198
90590SOL    HW273610   3.332   9.152  13.162
90591SOL     OW73611  10.171   3.728  11.700
90591SOL    HW173612  10.163   3.820  11.677
90591SOL    HW273613  10.227   3.727  11.777
90592SOL     OW73614   4.456   1.413   7.432
90592SOL    HW173615   4.451   1.500   7.392
90592SOL    HW273616   4.460   1.431   7.526
90593SOL     OW73617   9.542   1.570  11.721
90593SOL    HW173618   9.485   1.501  11.687
90593SOL    HW273619   9.604   1.524  11.779
90594SOL     OW73620   9.639   7.324   2.341
90594SOL    HW173621   9.671   7.362   2.423
90594SOL    HW273622   9.694   7.363   2.273
90595SOL     OW73623   1.107   8.133   1.429
90595SOL    HW173624   1.163   8.143   1.351
90595SOL    HW273625   1.029   8.185   1.409
90596SOL     OW73626   7.116   3.432  14.818
90596SOL    HW173627   7.192   3.397  14.772
90596SOL    HW273628   7.067   3.479  14.751
90597SOL     OW73629  13.386  12.914  10.260
90597SOL    HW173630  13.427  12.936  10.344
90597SOL    HW273631  13.295  12.893  10.281
90598SOL     OW73632  12.854   3.639  13.618
90598SOL    HW173633  12.830   3.657  13.527
90598SOL    HW273634  12.885   3.723  13.652
90599SOL     OW73635   0.386   8.854   8.026
90599SOL    HW173636   0.469   8.900   8.037
90599SOL    HW273637   0.328   8.919   7.986
90600SOL     OW73638   5.364   7.761  11.144
90600SOL    HW173639   5.279   7.801  11.162
90600SOL    HW273640   5.346   7.667  11.138
90601SOL     OW73641  14.865  12.084   4.939
90601SOL    HW173642   0.004  12.095   4.845
90601SOL    HW273643  14.856  12.173   4.972
90602SOL     OW73644  13.986   3.978   0.030
90602SOL    HW173645  13.990   3.994   0.124
90602SOL    HW273646  13.956   4.060  14.868
90603SOL     OW73647   1.357  12.696   1.721
90603SOL    HW173648   1.294  12.683   1.650
90603SOL    HW273649   1.441  12.709   1.677
90604SOL     OW73650   7.859   5.452   5.165
90604SOL    HW173651   7.943   5.482   5.198
90604SOL    HW273652   7.874   5.362   5.136
90605SOL     OW73653   6.529   6.417   3.553
90605SOL    HW173654   6.528   6.325   3.581
90605SOL    HW273655   6.535   6.413   3.458
90606SOL     OW73656   4.055   5.895  10.277
90606SOL    HW173657   4.040   5.983  10.243
90606SOL    HW273658   4.030   5.900  10.369
90607SOL     OW73659   4.171   2.913   2.022
90607SOL    HW173660   4.092   2.955   2.056
90607SOL    HW273661   4.154   2.819   2.032
90608SOL     OW73662  12.164   2.687  10.743
90608SOL    HW173663  12.229   2.737  10.694
90608SOL    HW273664  12.142   2.614  10.686
90609SOL     OW73665   1.292   4.280   0.976
90609SOL    HW173666   1.205   4.241   0.972
90609SOL    HW273667   1.293   4.346   0.906
90610SOL     OW73668   0.599   3.469   6.870
90610SOL    HW173669   0.646   3.432   6.795
90610SOL    HW273670   0.663   3.528   6.912
90611SOL     OW73671  11.359   1.848   9.029
90611SOL    HW173672  11.335   1.917   8.967
90611SOL    HW273673  11.401   1.781   8.975
90612SOL     OW73674   2.521   8.126   3.695
90612SOL    HW173675   2.537   8.094   3.784
90612SOL    HW273676   2.501   8.218   3.707
90613SOL     OW73677  10.824   9.569   8.567
90613SOL    HW173678  10.747   9.626   8.564
90613SOL    HW273679  10.851   9.570   8.659
90614SOL     OW73680  14.270   4.155   9.831
90614SOL    HW173681  14.222   4.084   9.873
90614SOL    HW273682  14.257   4.141   9.737
90615SOL     OW73683   5.407  10.692   0.350
90615SOL    HW173684   5.340  10.678   0.284
90615SOL    HW273685   5.490  10.687   0.302
90616SOL     OW73686   7.478  12.825   0.713
90616SOL    HW173687   7.508  12.754   0.771
90616SOL    HW273688   7.404  12.787   0.666
90617SOL     OW73689   8.747   1.178   8.079
90617SOL    HW173690   8.821   1.132   8.040
90617SOL    HW273691   8.679   1.174   8.011
90618SOL     OW73692   7.850   2.049  11.261
90618SOL    HW173693   7.844   2.145  11.269
90618SOL    HW273694   7.887   2.035  11.174
90619SOL     OW73695   9.547   2.467   4.605
90619SOL    HW173696   9.522   2.559   4.613
90619SOL    HW273697   9.488   2.421   4.664
90620SOL     OW73698   5.800   8.149   1.635
90620SOL    HW173699   5.813   8.173   1.543
90620SOL    HW273700   5.805   8.053   1.635
90621SOL     OW73701   8.750  11.203  13.938
90621SOL    HW173702   8.745  11.107  13.932
90621SOL    HW273703   8.748  11.222  14.032
90622SOL     OW73704  11.946   2.502   4.153
90622SOL    HW173705  11.969   2.590   4.123
90622SOL    HW273706  11.930   2.512   4.247
90623SOL     OW73707   2.955   9.593   6.086
90623SOL    HW173708   3.045   9.562   6.078
90623SOL    HW273709   2.932   9.624   5.998
90624SOL     OW73710   3.776  11.262  14.035
90624SOL    HW173711   3.835  11.205  13.987
90624SOL    HW273712   3.750  11.211  14.112
90625SOL     OW73713   9.909   0.717   5.108
90625SOL    HW173714   9.976   0.659   5.145
90625SOL    HW273715   9.919   0.799   5.156
90626SOL     OW73716  12.828   6.816   4.319
90626SOL    HW173717  12.855   6.790   4.231
90626SOL    HW273718  12.893   6.776   4.377
90627SOL     OW73719   3.918   3.313   1.227
90627SOL    HW173720   3.907   3.219   1.213
90627SOL    HW273721   3.877   3.353   1.151
90628SOL     OW73722  10.693   0.946   9.862
90628SOL    HW173723  10.723   0.932   9.772
90628SOL    HW273724  10.611   0.897   9.868
90629SOL     OW73725   3.322   5.130   9.111
90629SOL    HW173726   3.414   5.137   9.136
90629SOL    HW273727   3.304   5.036   9.111
90630SOL     OW73728  11.245  13.523   5.686
90630SOL    HW173729  11.292  13.579   5.748
90630SOL    HW273730  11.283  13.545   5.601
90631SOL     OW73731   1.133  12.290   4.800
90631SOL    HW173732   1.052  12.321   4.760
90631SOL    HW273733   1.113  12.202   4.832
90632SOL     OW73734   3.059   4.443   4.229
90632SOL    HW173735   3.053   4.471   4.138
90632SOL    HW273736   3.039   4.350   4.227
90633SOL     OW73737   1.633  10.527   6.928
90633SOL    HW173738   1.538  10.536   6.917
90633SOL    HW273739   1.644  10.490   7.015
90634SOL     OW73740  12.899   1.302   6.905
90634SOL    HW173741  12.934   1.231   6.958
90634SOL    HW273742  12.916   1.382   6.956
90635SOL     OW73743   7.299  10.460   0.049
90635SOL    HW173744   7.229  10.517   0.018
90635SOL    HW273745   7.368  10.467  14.859
90636SOL     OW73746  13.945   4.757   6.591
90636SOL    HW173747  13.946   4.845   6.553
90636SOL    HW273748  14.028   4.718   6.562
90637SOL     OW73749   2.155  10.779   4.583
90637SOL    HW173750   2.113  10.722   4.519
90637SOL    HW273751   2.085  10.840   4.610
90638SOL     OW73752   3.784   6.518  12.361
90638SOL    HW173753   3.825   6.479  12.439
90638SOL    HW273754   3.704   6.559  12.394
90639SOL     OW73755   0.530   8.673   7.756
90639SOL    HW173756   0.471   8.600   7.742
90639SOL    HW273757   0.565   8.659   7.845
90640SOL     OW73758  10.754   2.957  10.919
90640SOL    HW173759  10.733   2.950  10.826
90640SOL    HW273760  10.757   3.051  10.936
90641SOL     OW73761  11.158  13.121   9.547
90641SOL    HW173762  11.204  13.176   9.482
90641SOL    HW273763  11.228  13.085   9.601
90642SOL     OW73764   4.266   1.797   8.241
90642SOL    HW173765   4.282   1.702   8.240
90642SOL    HW273766   4.191   1.807   8.301
90643SOL     OW73767   0.972   5.035  13.321
90643SOL    HW173768   1.022   5.079  13.252
90643SOL    HW273769   1.015   4.950  13.331
90644SOL     OW73770  10.261  13.604   9.627
90644SOL    HW173771  10.349  13.569   9.638
90644SOL    HW273772  10.215  13.578   9.707
90645SOL     OW73773  12.730   1.897   0.651
90645SOL    HW173774  12.677   1.897   0.731
90645SOL    HW273775  12.688   1.962   0.595
90646SOL     OW73776   2.884   7.807   8.728
90646SOL    HW173777   2.809   7.866   8.724
90646SOL    HW273778   2.960   7.864   8.738
90647SOL     OW73779   3.065   6.901  11.441
90647SOL    HW173780   3.119   6.953  11.501
90647SOL    HW273781   2.983   6.949  11.434
90648SOL     OW73782  12.747  12.854   1.744
90648SOL    HW173783  12.683  12.910   1.790
90648SOL    HW273784  12.695  12.807   1.679
90649SOL     OW73785  11.033   4.205   7.974
90649SOL    HW173786  11.022   4.131   8.034
90649SOL    HW273787  10.953   4.256   7.984
90650SOL     OW73788  13.478   6.070  11.681
90650SOL    HW173789  13.446   6.147  11.727
90650SOL    HW273790  13.425   6.066  11.601
90651SOL     OW73791  13.100   0.157  13.417
90651SOL    HW173792  13.160   0.232  13.417
90651SOL    HW273793  13.134   0.099  13.485
90652SOL     OW73794   5.704  13.226  10.069
90652SOL    HW173795   5.661  13.210   9.985
90652SOL    HW273796   5.768  13.295  10.052
90653SOL     OW73797  14.078  11.444  14.517
90653SOL    HW173798  14.066  11.507  14.588
90653SOL    HW273799  14.137  11.377  14.553
90654SOL     OW73800   1.995   7.484  13.770
90654SOL    HW173801   1.933   7.557  13.774
90654SOL    HW273802   2.004   7.467  13.676
90655SOL     OW73803   7.634  13.383   0.313
90655SOL    HW173804   7.621  13.477   0.302
90655SOL    HW273805   7.579  13.344   0.246
90656SOL     OW73806  11.533   6.000   4.824
90656SOL    HW173807  11.492   5.921   4.789
90656SOL    HW273808  11.555   5.979   4.915
90657SOL     OW73809   2.628   7.401  12.604
90657SOL    HW173810   2.677   7.380  12.525
90657SOL    HW273811   2.649   7.331  12.666
90658SOL     OW73812  12.967   5.829   0.756
90658SOL    HW173813  12.895   5.871   0.804
90658SOL    HW273814  12.941   5.738   0.749
90659SOL     OW73815   9.483  11.102   8.713
90659SOL    HW173816   9.479  11.023   8.660
90659SOL    HW273817   9.576  11.121   8.722
90660SOL     OW73818   3.895   0.425   4.851
90660SOL    HW173819   3.990   0.417   4.857
90660SOL    HW273820   3.876   0.510   4.890
90661SOL     OW73821   0.685   4.005  11.725
90661SOL    HW173822   0.734   3.987  11.805
90661SOL    HW273823   0.654   4.095  11.735
90662SOL     OW73824   3.104   9.711   9.051
90662SOL    HW173825   3.093   9.631   9.102
90662SOL    HW273826   3.030   9.766   9.077
90663SOL     OW73827   2.667  14.784   3.386
90663SOL    HW173828   2.671  14.819   3.297
90663SOL    HW273829   2.650  14.861   3.441
90664SOL     OW73830   8.520  13.934  14.221
90664SOL    HW173831   8.574  13.897  14.290
90664SOL    HW273832   8.516  14.028  14.241
90665SOL     OW73833   4.404   2.805  13.528
90665SOL    HW173834   4.371   2.800  13.618
90665SOL    HW273835   4.354   2.876  13.488
90666SOL     OW73836   9.138   2.495   2.255
90666SOL    HW173837   9.135   2.526   2.346
90666SOL    HW273838   9.169   2.405   2.262
90667SOL     OW73839  10.140  12.340   0.743
90667SOL    HW173840  10.127  12.319   0.835
90667SOL    HW273841  10.086  12.418   0.728
90668SOL     OW73842   7.071  14.687  12.931
90668SOL    HW173843   7.058  14.602  12.890
90668SOL    HW273844   6.984  14.714  12.960
90669SOL     OW73845  13.897  13.638  13.083
90669SOL    HW173846  13.930  13.701  13.018
90669SOL    HW273847  13.838  13.581  13.033
90670SOL     OW73848  12.140   0.137  11.582
90670SOL    HW173849  12.207   0.171  11.641
90670SOL    HW273850  12.179   0.059  11.544
90671SOL     OW73851  13.825   8.981   8.761
90671SOL    HW173852  13.882   8.953   8.833
90671SOL    HW273853  13.760   8.911   8.754
90672SOL     OW73854   0.226  14.333   1.071
90672SOL    HW173855   0.300  14.388   1.045
90672SOL    HW273856   0.202  14.285   0.992
90673SOL     OW73857   2.542  11.954   3.346
90673SOL    HW173858   2.545  11.929   3.253
90673SOL    HW273859   2.632  11.945   3.376
90674SOL     OW73860  10.037  12.958   4.652
90674SOL    HW173861   9.990  12.888   4.698
90674SOL    HW273862  10.037  13.031   4.714
90675SOL     OW73863  11.018  12.814  11.484
90675SOL    HW173864  10.970  12.747  11.436
90675SOL    HW273865  11.034  12.883  11.420
90676SOL     OW73866   4.955   5.758   4.125
90676SOL    HW173867   5.009   5.778   4.049
90676SOL    HW273868   4.998   5.803   4.198
90677SOL     OW73869  14.176   3.766  12.795
90677SOL    HW173870  14.153   3.679  12.760
90677SOL    HW273871  14.257   3.788  12.750
90678SOL     OW73872   4.663   9.405   3.661
90678SOL    HW173873   4.732   9.373   3.718
90678SOL    HW273874   4.703   9.409   3.574
90679SOL     OW73875   6.450   3.033   0.231
90679SOL    HW173876   6.530   3.038   0.284
90679SOL    HW273877   6.395   2.969   0.277
90680SOL     OW73878   6.106   9.959   1.267
90680SOL    HW173879   6.044  10.031   1.255
90680SOL    HW273880   6.170   9.991   1.330
90681SOL     OW73881   3.269  12.752  10.156
90681SOL    HW173882   3.346  12.698  10.174
90681SOL    HW273883   3.300  12.819  10.094
90682SOL     OW73884   3.427   9.262   1.280
90682SOL    HW173885   3.332   9.258   1.291
90682SOL    HW273886   3.439   9.278   1.186
90683SOL     OW73887   8.394   3.177  12.293
90683SOL    HW173888   8.439   3.256  12.263
90683SOL    HW273889   8.325   3.163  12.228
90684SOL     OW73890  14.079   8.681   1.028
90684SOL    HW173891  14.024   8.742   1.077
90684SOL    HW273892  14.147   8.736   0.989
90685SOL     OW73893  12.932   9.838   8.017
90685SOL    HW173894  12.948   9.758   8.067
90685SOL    HW273895  13.016   9.859   7.977
90686SOL     OW73896   2.373   7.202  14.175
90686SOL    HW173897   2.403   7.166  14.092
90686SOL    HW273898   2.284   7.234  14.156
90687SOL     OW73899  13.905   8.204   7.205
90687SOL    HW173900  13.996   8.179   7.222
90687SOL    HW273901  13.863   8.201   7.291
90688SOL     OW73902   6.998  14.699   6.896
90688SOL    HW173903   7.073  14.664   6.848
90688SOL    HW273904   6.945  14.622   6.917
90689SOL     OW73905  13.211   4.785  10.713
90689SOL    HW173906  13.290   4.763  10.761
90689SOL    HW273907  13.158   4.835  10.776
90690SOL     OW73908  10.762   7.096   5.581
90690SOL    HW173909  10.704   7.159   5.539
90690SOL    HW273910  10.719   7.074   5.663
90691SOL     OW73911   3.531   8.106   2.273
90691SOL    HW173912   3.500   8.035   2.218
90691SOL    HW273913   3.463   8.117   2.339
90692SOL     OW73914   8.727  11.212   7.491
90692SOL    HW173915   8.772  11.258   7.561
90692SOL    HW273916   8.646  11.262   7.478
90693SOL     OW73917   6.052   1.269   5.504
90693SOL    HW173918   6.057   1.226   5.419
90693SOL    HW273919   5.964   1.308   5.505
90694SOL     OW73920   4.086   8.969  14.510
90694SOL    HW173921   4.033   8.998  14.436
90694SOL    HW273922   4.150   8.910  14.471
90695SOL     OW73923  10.793  12.009   5.750
90695SOL    HW173924  10.868  12.066   5.733
90695SOL    HW273925  10.723  12.069   5.776
90696SOL     OW73926  12.735   5.491  14.779
90696SOL    HW173927  12.690   5.494  14.694
90696SOL    HW273928  12.710   5.407  14.817
90697SOL     OW73929  12.549   5.239  14.237
90697SOL    HW173930  12.474   5.184  14.216
90697SOL    HW273931  12.542   5.253  14.332
90698SOL     OW73932   2.044   3.796   6.474
90698SOL    HW173933   1.964   3.835   6.510
90698SOL    HW273934   2.112   3.816   6.539
90699SOL     OW73935   9.887   6.120   4.469
90699SOL    HW173936   9.919   6.044   4.421
90699SOL    HW273937   9.792   6.116   4.458
90700SOL     OW73938  11.619   2.260  12.562
90700SOL    HW173939  11.689   2.325  12.565
90700SOL    HW273940  11.664   2.177  12.546
90701SOL     OW73941  13.036   5.052  11.300
90701SOL    HW173942  13.033   4.979  11.362
90701SOL    HW273943  13.111   5.105  11.328
90702SOL     OW73944  11.500  12.681  14.189
90702SOL    HW173945  11.584  12.708  14.227
90702SOL    HW273946  11.522  12.646  14.103
90703SOL     OW73947   3.823  14.143   0.239
90703SOL    HW173948   3.891  14.205   0.267
90703SOL    HW273949   3.795  14.174   0.153
90704SOL     OW73950   3.482   9.939   4.615
90704SOL    HW173951   3.570   9.928   4.651
90704SOL    HW273952   3.439   9.999   4.675
90705SOL     OW73953   9.412   6.918   3.890
90705SOL    HW173954   9.504   6.931   3.911
90705SOL    HW273955   9.402   6.824   3.877
90706SOL     OW73956   7.536   3.061   6.670
90706SOL    HW173957   7.441   3.052   6.675
90706SOL    HW273958   7.567   3.048   6.760
90707SOL     OW73959   9.033   6.480   1.467
90707SOL    HW173960   9.040   6.565   1.425
90707SOL    HW273961   8.971   6.493   1.539
90708SOL     OW73962   5.131  10.911   8.143
90708SOL    HW173963   5.082  10.992   8.144
90708SOL    HW273964   5.172  10.906   8.230
90709SOL     OW73965  14.789   7.559   9.244
90709SOL    HW173966  14.836   7.638   9.216
90709SOL    HW273967  14.829   7.489   9.192
90710SOL     OW73968  10.232   8.572   2.005
90710SOL    HW173969  10.181   8.521   2.068
90710SOL    HW273970  10.174   8.584   1.930
90711SOL     OW73971  12.475   3.074   3.976
90711SOL    HW173972  12.428   3.066   3.893
90711SOL    HW273973  12.519   2.989   3.987
90712SOL     OW73974  12.624  12.591  14.419
90712SOL    HW173975  12.568  12.600  14.341
90712SOL    HW273976  12.672  12.510  14.405
90713SOL     OW73977  11.884  14.276   6.811
90713SOL    HW173978  11.922  14.335   6.877
90713SOL    HW273979  11.789  14.290   6.818
90714SOL     OW73980   0.368  12.423  14.626
90714SOL    HW173981   0.416  12.499  14.595
90714SOL    HW273982   0.331  12.384  14.547
90715SOL     OW73983   6.218   8.302   4.960
90715SOL    HW173984   6.136   8.342   4.990
90715SOL    HW273985   6.232   8.229   5.020
90716SOL     OW73986   7.302  11.375  13.060
90716SOL    HW173987   7.306  11.399  13.152
90716SOL    HW273988   7.393  11.357  13.036
90717SOL     OW73989   1.297   4.082   2.421
90717SOL    HW173990   1.264   3.993   2.408
90717SOL    HW273991   1.343   4.102   2.340
90718SOL     OW73992   7.850  14.721   8.708
90718SOL    HW173993   7.808  14.644   8.746
90718SOL    HW273994   7.843  14.707   8.613
90719SOL     OW73995   7.497   1.394   1.316
90719SOL    HW173996   7.462   1.437   1.238
90719SOL    HW273997   7.423   1.343   1.350
90720SOL     OW73998  13.321   0.640  10.810
90720SOL    HW173999  13.316   0.635  10.715
90720SOL    HW274000  13.378   0.568  10.836
90721SOL     OW74001   0.540  14.560  12.525
90721SOL    HW174002   0.622  14.510  12.519
90721SOL    HW274003   0.471  14.493  12.524
90722SOL     OW74004  14.539   5.374  13.880
90722SOL    HW174005  14.467   5.388  13.943
90722SOL    HW274006  14.527   5.444  13.815
90723SOL     OW74007   0.771   2.965   0.878
90723SOL    HW174008   0.830   3.040   0.889
90723SOL    HW274009   0.698   2.983   0.937
90724SOL     OW74010   4.224  11.717   3.164
90724SOL    HW174011   4.156  11.704   3.229
90724SOL    HW274012   4.286  11.776   3.205
90725SOL     OW74013   3.999   5.535  14.867
90725SOL    HW174014   3.959   5.574  14.789
90725SOL    HW274015   4.032   5.610   0.041
90726SOL     OW74016   6.794   6.061   9.870
90726SOL    HW174017   6.807   6.087   9.779
90726SOL    HW274018   6.793   6.143   9.919
90727SOL     OW74019   0.589   8.015   8.033
90727SOL    HW174020   0.570   8.100   7.991
90727SOL    HW274021   0.505   7.987   8.069
90728SOL     OW74022  11.115  13.454   7.236
90728SOL    HW174023  11.078  13.480   7.320
90728SOL    HW274024  11.149  13.366   7.251
90729SOL     OW74025  14.583  13.567  14.331
90729SOL    HW174026  14.540  13.643  14.293
90729SOL    HW274027  14.528  13.493  14.307
90730SOL     OW74028   6.463   5.253   5.158
90730SOL    HW174029   6.396   5.261   5.090
90730SOL    HW274030   6.415   5.255   5.240
90731SOL     OW74031   0.334  10.344  12.770
90731SOL    HW174032   0.301  10.285  12.701
90731SOL    HW274033   0.353  10.286  12.843
90732SOL     OW74034   6.199  12.861   4.058
90732SOL    HW174035   6.258  12.925   4.017
90732SOL    HW274036   6.256  12.811   4.116
90733SOL     OW74037   3.257  12.555   3.352
90733SOL    HW174038   3.299  12.475   3.319
90733SOL    HW274039   3.226  12.599   3.273
90734SOL     OW74040  11.059  11.903   9.688
90734SOL    HW174041  11.053  11.844   9.763
90734SOL    HW274042  10.970  11.937   9.676
90735SOL     OW74043   0.685   3.295  13.106
90735SOL    HW174044   0.770   3.270  13.144
90735SOL    HW274045   0.708   3.351  13.032
90736SOL     OW74046  12.791  12.281  10.380
90736SOL    HW174047  12.880  12.295  10.347
90736SOL    HW274048  12.802  12.264  10.473
90737SOL     OW74049   1.180   8.702   0.109
90737SOL    HW174050   1.204   8.742   0.025
90737SOL    HW274051   1.229   8.752   0.174
90738SOL     OW74052  12.755  14.032   7.215
90738SOL    HW174053  12.848  14.014   7.228
90738SOL    HW274054  12.712  13.989   7.289
90739SOL     OW74055   1.363   5.165   9.950
90739SOL    HW174056   1.272   5.178   9.926
90739SOL    HW274057   1.410   5.160   9.867
90740SOL     OW74058  13.867   2.957  12.315
90740SOL    HW174059  13.889   2.876  12.268
90740SOL    HW274060  13.943   2.973  12.371
90741SOL     OW74061   3.010   4.999   8.915
90741SOL    HW174062   3.094   5.046   8.912
90741SOL    HW274063   2.949   5.061   8.955
90742SOL     OW74064   4.128  10.267  12.951
90742SOL    HW174065   4.129  10.183  12.904
90742SOL    HW274066   4.042  10.303  12.933
90743SOL     OW74067   9.775   0.485   5.732
90743SOL    HW174068   9.831   0.561   5.748
90743SOL    HW274069   9.834   0.419   5.695
90744SOL     OW74070  13.235  11.273   8.976
90744SOL    HW174071  13.176  11.221   8.921
90744SOL    HW274072  13.293  11.209   9.016
90745SOL     OW74073   2.723   4.975   6.004
90745SOL    HW174074   2.677   4.934   5.931
90745SOL    HW274075   2.710   5.069   5.991
90746SOL     OW74076  13.758   7.069   9.552
90746SOL    HW174077  13.712   7.152   9.543
90746SOL    HW274078  13.784   7.066   9.644
90747SOL     OW74079  12.168   5.623   8.452
90747SOL    HW174080  12.164   5.630   8.548
90747SOL    HW274081  12.130   5.705   8.420
90748SOL     OW74082   6.131  13.121   2.384
90748SOL    HW174083   6.096  13.033   2.395
90748SOL    HW274084   6.218  13.107   2.346
90749SOL     OW74085  12.539  12.643   6.923
90749SOL    HW174086  12.575  12.593   6.850
90749SOL    HW274087  12.545  12.584   6.998
90750SOL     OW74088  14.430   1.691   6.384
90750SOL    HW174089  14.483   1.612   6.373
90750SOL    HW274090  14.343   1.666   6.352
90751SOL     OW74091   9.630  13.800  13.078
90751SOL    HW174092   9.555  13.786  13.135
90751SOL    HW274093   9.595  13.794  12.989
90752SOL     OW74094   8.563   8.261  11.425
90752SOL    HW174095   8.646   8.297  11.454
90752SOL    HW274096   8.576   8.166  11.426
90753SOL     OW74097  13.776   8.975   3.533
90753SOL    HW174098  13.735   8.890   3.549
90753SOL    HW274099  13.815   8.968   3.446
90754SOL     OW74100   2.464   4.887   6.695
90754SOL    HW174101   2.438   4.875   6.786
90754SOL    HW274102   2.415   4.964   6.665
90755SOL     OW74103   6.884   4.310   4.955
90755SOL    HW174104   6.875   4.301   5.050
90755SOL    HW274105   6.823   4.380   4.931
90756SOL     OW74106   7.406   7.033  10.211
90756SOL    HW174107   7.392   6.940  10.190
90756SOL    HW274108   7.486   7.056  10.164
90757SOL     OW74109   9.591   5.002  11.944
90757SOL    HW174110   9.574   5.034  11.855
90757SOL    HW274111   9.505   4.975  11.976
90758SOL     OW74112   9.678   9.411   0.382
90758SOL    HW174113   9.603   9.469   0.393
90758SOL    HW274114   9.739   9.460   0.328
90759SOL     OW74115   0.108   6.055   7.028
90759SOL    HW174116   0.174   6.122   7.012
90759SOL    HW274117   0.134   6.015   7.111
90760SOL     OW74118  10.850   9.778   4.318
90760SOL    HW174119  10.825   9.856   4.368
90760SOL    HW274120  10.773   9.757   4.266
90761SOL     OW74121  13.471  14.327  10.971
90761SOL    HW174122  13.423  14.252  10.936
90761SOL    HW274123  13.514  14.366  10.896
90762SOL     OW74124  13.090  12.198   2.379
90762SOL    HW174125  13.165  12.213   2.436
90762SOL    HW274126  13.029  12.269   2.400
90763SOL     OW74127   1.730   8.220  11.161
90763SOL    HW174128   1.751   8.135  11.198
90763SOL    HW274129   1.669   8.201  11.090
90764SOL     OW74130  11.562  13.234   4.371
90764SOL    HW174131  11.502  13.309   4.376
90764SOL    HW274132  11.592  13.234   4.281
90765SOL     OW74133   2.909   4.953   1.959
90765SOL    HW174134   2.979   4.888   1.961
90765SOL    HW274135   2.919   5.002   2.041
90766SOL     OW74136   0.735   9.439   7.935
90766SOL    HW174137   0.655   9.430   7.883
90766SOL    HW274138   0.716   9.394   8.017
90767SOL     OW74139   1.282  13.599   6.385
90767SOL    HW174140   1.258  13.511   6.415
90767SOL    HW274141   1.216  13.621   6.319
90768SOL     OW74142   4.160   5.564   8.359
90768SOL    HW174143   4.184   5.657   8.351
90768SOL    HW274144   4.194   5.537   8.444
90769SOL     OW74145   5.647  11.671   0.676
90769SOL    HW174146   5.643  11.590   0.626
90769SOL    HW274147   5.729  11.665   0.725
90770SOL     OW74148   3.619   7.874   1.168
90770SOL    HW174149   3.625   7.823   1.087
90770SOL    HW274150   3.579   7.957   1.142
90771SOL     OW74151   1.517   2.799  13.395
90771SOL    HW174152   1.492   2.774  13.307
90771SOL    HW274153   1.467   2.741  13.452
90772SOL     OW74154   5.535  12.429   5.080
90772SOL    HW174155   5.583  12.419   4.998
90772SOL    HW274156   5.602  12.449   5.145
90773SOL     OW74157   3.956   7.797   3.207
90773SOL    HW174158   3.919   7.737   3.273
90773SOL    HW274159   3.893   7.795   3.135
90774SOL     OW74160  11.911   2.451   9.227
90774SOL    HW174161  11.855   2.388   9.182
90774SOL    HW274162  11.892   2.535   9.184
90775SOL     OW74163  11.620   9.599   9.818
90775SOL    HW174164  11.667   9.661   9.763
90775SOL    HW274165  11.661   9.607   9.904
90776SOL     OW74166  13.704  12.286   0.890
90776SOL    HW174167  13.744  12.247   0.968
90776SOL    HW274168  13.763  12.261   0.818
90777SOL     OW74169   9.776  10.030   8.844
90777SOL    HW174170   9.727   9.989   8.915
90777SOL    HW274171   9.745  10.121   8.843
90778SOL     OW74172   5.055   5.149  13.376
90778SOL    HW174173   4.983   5.191  13.330
90778SOL    HW274174   5.013   5.093  13.441
90779SOL     OW74175  13.508  14.677   5.322
90779SOL    HW174176  13.471  14.599   5.281
90779SOL    HW274177  13.535  14.732   5.249
90780SOL     OW74178   2.996   2.587   1.512
90780SOL    HW174179   2.905   2.616   1.510
90780SOL    HW274180   3.033   2.630   1.589
90781SOL     OW74181   9.251   6.343  12.072
90781SOL    HW174182   9.232   6.431  12.103
90781SOL    HW274183   9.329   6.353  12.017
90782SOL     OW74184   7.508  10.740   1.543
90782SOL    HW174185   7.424  10.708   1.575
90782SOL    HW274186   7.562  10.661   1.536
90783SOL     OW74187   9.210  14.288   8.325
90783SOL    HW174188   9.167  14.324   8.403
90783SOL    HW274189   9.246  14.204   8.354
90784SOL     OW74190   0.424  10.160  10.166
90784SOL    HW174191   0.446  10.245  10.128
90784SOL    HW274192   0.360  10.122  10.106
90785SOL     OW74193   9.238  12.995   3.975
90785SOL    HW174194   9.236  13.032   3.887
90785SOL    HW274195   9.152  12.954   3.985
90786SOL     OW74196   8.140   6.509  10.473
90786SOL    HW174197   8.214   6.452  10.492
90786SOL    HW274198   8.066   6.467  10.517
90787SOL     OW74199   1.114   0.379   2.231
90787SOL    HW174200   1.066   0.345   2.155
90787SOL    HW274201   1.083   0.469   2.240
90788SOL     OW74202   9.244   0.794  12.461
90788SOL    HW174203   9.270   0.720  12.515
90788SOL    HW274204   9.247   0.761  12.372
90789SOL     OW74205  10.491   9.936   1.964
90789SOL    HW174206  10.542   9.997   2.017
90789SOL    HW274207  10.548   9.860   1.952
90790SOL     OW74208   1.775   4.016   2.288
90790SOL    HW174209   1.703   4.027   2.349
90790SOL    HW274210   1.854   4.032   2.341
90791SOL     OW74211  14.254   6.524   7.714
90791SOL    HW174212  14.308   6.462   7.665
90791SOL    HW274213  14.167   6.517   7.675
90792SOL     OW74214   7.145  10.915   5.530
90792SOL    HW174215   7.065  10.901   5.581
90792SOL    HW274216   7.114  10.942   5.444
90793SOL     OW74217   5.159   0.066   2.912
90793SOL    HW174218   5.156  14.863   2.858
90793SOL    HW274219   5.072   0.105   2.901
90794SOL     OW74220   9.353   9.403   3.769
90794SOL    HW174221   9.363   9.378   3.677
90794SOL    HW274222   9.296   9.337   3.806
90795SOL     OW74223   3.849   0.374  12.034
90795SOL    HW174224   3.874   0.287  12.066
90795SOL    HW274225   3.802   0.358  11.952
90796SOL     OW74226  10.037   4.385   8.180
90796SOL    HW174227  10.005   4.433   8.256
90796SOL    HW274228  10.112   4.436   8.149
90797SOL     OW74229   0.790  13.826   7.308
90797SOL    HW174230   0.784  13.905   7.254
90797SOL    HW274231   0.879  13.794   7.295
90798SOL     OW74232  13.728   9.140  11.077
90798SOL    HW174233  13.755   9.218  11.028
90798SOL    HW274234  13.810   9.093  11.095
90799SOL     OW74235   4.533   1.356   8.833
90799SOL    HW174236   4.445   1.330   8.804
90799SOL    HW274237   4.568   1.408   8.761
90800SOL     OW74238   4.482  11.591   7.899
90800SOL    HW174239   4.481  11.662   7.834
90800SOL    HW274240   4.561  11.607   7.950
90801SOL     OW74241  10.771   2.970  10.259
90801SOL    HW174242  10.844   3.032  10.253
90801SOL    HW274243  10.739   2.962  10.170
90802SOL     OW74244  12.088   5.902  13.959
90802SOL    HW174245  12.015   5.885  14.019
90802SOL    HW274246  12.047   5.946  13.884
90803SOL     OW74247   1.141   1.574   9.927
90803SOL    HW174248   1.116   1.667   9.934
90803SOL    HW274249   1.085   1.540   9.858
90804SOL     OW74250  12.464   5.924   9.278
90804SOL    HW174251  12.419   5.990   9.224
90804SOL    HW274252  12.557   5.946   9.271
90805SOL     OW74253  11.996   3.816   8.758
90805SOL    HW174254  12.062   3.883   8.772
90805SOL    HW274255  11.913   3.864   8.754
90806SOL     OW74256   9.900   4.210  10.266
90806SOL    HW174257   9.931   4.263  10.339
90806SOL    HW274258   9.978   4.194  10.213
90807SOL     OW74259  11.772  11.707   7.933
90807SOL    HW174260  11.738  11.618   7.925
90807SOL    HW274261  11.720  11.747   8.002
90808SOL     OW74262   4.651   1.796   9.085
90808SOL    HW174263   4.560   1.792   9.056
90808SOL    HW274264   4.647   1.780   9.179
90809SOL     OW74265  14.389   8.138  13.344
90809SOL    HW174266  14.381   8.232  13.360
90809SOL    HW274267  14.390   8.099  13.431
90810SOL     OW74268   0.913  14.102   4.339
90810SOL    HW174269   1.009  14.104   4.343
90810SOL    HW274270   0.890  14.171   4.277
90811SOL     OW74271  12.287  13.066   2.950
90811SOL    HW174272  12.299  13.018   3.032
90811SOL    HW274273  12.375  13.083   2.919
90812SOL     OW74274   2.582   3.244   8.543
90812SOL    HW174275   2.652   3.179   8.540
90812SOL    HW274276   2.557   3.248   8.636
90813SOL     OW74277   1.206   7.497   3.624
90813SOL    HW174278   1.260   7.487   3.703
90813SOL    HW274279   1.123   7.533   3.657
90814SOL     OW74280   9.011  11.034   4.411
90814SOL    HW174281   9.102  11.045   4.385
90814SOL    HW274282   9.007  10.944   4.445
90815SOL     OW74283   8.613   8.024  13.990
90815SOL    HW174284   8.679   7.962  14.020
90815SOL    HW274285   8.548   7.969  13.945
90816SOL     OW74286   5.009   9.808  11.764
90816SOL    HW174287   5.048   9.895  11.749
90816SOL    HW274288   5.071   9.764  11.821
90817SOL     OW74289   5.573   2.290   7.533
90817SOL    HW174290   5.589   2.250   7.619
90817SOL    HW274291   5.526   2.371   7.552
90818SOL     OW74292  14.406  11.930   3.146
90818SOL    HW174293  14.385  11.879   3.225
90818SOL    HW274294  14.343  12.003   3.147
90819SOL     OW74295   4.962  14.790   1.759
90819SOL    HW174296   4.920  14.838   1.688
90819SOL    HW274297   4.939  14.840   1.838
90820SOL     OW74298   6.568   5.689  12.897
90820SOL    HW174299   6.559   5.678  12.991
90820SOL    HW274300   6.662   5.679  12.880
90821SOL     OW74301   4.537   3.147  13.213
90821SOL    HW174302   4.630   3.128  13.212
90821SOL    HW274303   4.494   3.062  13.208
90822SOL     OW74304  13.174  10.487   8.629
90822SOL    HW174305  13.227  10.517   8.555
90822SOL    HW274306  13.185  10.392   8.630
90823SOL     OW74307   2.274   3.831  11.949
90823SOL    HW174308   2.364   3.853  11.976
90823SOL    HW274309   2.231   3.916  11.937
90824SOL     OW74310   1.179   7.103   2.911
90824SOL    HW174311   1.258   7.048   2.912
90824SOL    HW274312   1.211   7.192   2.923
90825SOL     OW74313   5.040  13.852  10.162
90825SOL    HW174314   5.039  13.813  10.075
90825SOL    HW274315   4.973  13.803  10.211
90826SOL     OW74316  14.265  11.305  11.541
90826SOL    HW174317  14.203  11.368  11.579
90826SOL    HW274318  14.212  11.252  11.482
90827SOL     OW74319   3.189   6.228   5.969
90827SOL    HW174320   3.260   6.262   6.023
90827SOL    HW274321   3.203   6.133   5.970
90828SOL     OW74322   2.372   2.540   4.735
90828SOL    HW174323   2.295   2.542   4.680
90828SOL    HW274324   2.422   2.464   4.704
90829SOL     OW74325  10.614   5.769  10.794
90829SOL    HW174326  10.639   5.725  10.875
90829SOL    HW274327  10.552   5.710  10.752
90830SOL     OW74328  13.419  14.377  10.408
90830SOL    HW174329  13.441  14.312  10.476
90830SOL    HW274330  13.335  14.413  10.437
90831SOL     OW74331   2.008   0.508   4.777
90831SOL    HW174332   2.031   0.510   4.684
90831SOL    HW274333   2.066   0.442   4.814
90832SOL     OW74334   8.407   6.419   6.654
90832SOL    HW174335   8.320   6.382   6.643
90832SOL    HW274336   8.396   6.513   6.636
90833SOL     OW74337  12.353  11.067   5.552
90833SOL    HW174338  12.272  11.041   5.596
90833SOL    HW274339  12.412  10.992   5.563
90834SOL     OW74340  10.463  10.463  13.564
90834SOL    HW174341  10.477  10.550  13.525
90834SOL    HW274342  10.547  10.418  13.553
90835SOL     OW74343   2.253   7.251  12.169
90835SOL    HW174344   2.219   7.181  12.114
90835SOL    HW274345   2.306   7.305  12.110
90836SOL     OW74346   1.538  13.236   6.233
90836SOL    HW174347   1.490  13.159   6.203
90836SOL    HW274348   1.524  13.301   6.164
90837SOL     OW74349   0.240   9.732   6.253
90837SOL    HW174350   0.296   9.759   6.181
90837SOL    HW274351   0.165   9.690   6.210
90838SOL     OW74352   3.150   4.337   1.761
90838SOL    HW174353   3.143   4.376   1.673
90838SOL    HW274354   3.204   4.399   1.809
90839SOL     OW74355   9.770   0.143   4.129
90839SOL    HW174356   9.755   0.231   4.094
90839SOL    HW274357   9.852   0.150   4.177
90840SOL     OW74358   9.675   6.169   0.305
90840SOL    HW174359   9.763   6.206   0.300
90840SOL    HW274360   9.664   6.123   0.222
90841SOL     OW74361   3.168   7.091   1.679
90841SOL    HW174362   3.203   7.160   1.737
90841SOL    HW274363   3.245   7.044   1.648
90842SOL     OW74364   6.697  12.912   4.823
90842SOL    HW174365   6.725  13.003   4.816
90842SOL    HW274366   6.642  12.898   4.746
90843SOL     OW74367  11.767   3.102   2.710
90843SOL    HW174368  11.837   3.037   2.712
90843SOL    HW274369  11.810   3.182   2.680
90844SOL     OW74370  10.139   4.264   9.358
90844SOL    HW174371  10.101   4.314   9.285
90844SOL    HW274372  10.215   4.316   9.385
90845SOL     OW74373  11.840   3.361   5.778
90845SOL    HW174374  11.834   3.359   5.874
90845SOL    HW274375  11.934   3.370   5.761
90846SOL     OW74376   3.761  14.846  11.078
90846SOL    HW174377   3.666  14.845  11.084
90846SOL    HW274378   3.791  14.870  11.166
90847SOL     OW74379   6.719   1.639  14.278
90847SOL    HW174380   6.648   1.669  14.221
90847SOL    HW274381   6.730   1.546  14.256
90848SOL     OW74382   8.860  14.749  11.478
90848SOL    HW174383   8.895  14.730  11.565
90848SOL    HW274384   8.928  14.799  11.434
90849SOL     OW74385  11.216   6.285   2.944
90849SOL    HW174386  11.214   6.318   3.034
90849SOL    HW274387  11.288   6.222   2.943
90850SOL     OW74388  13.123   1.291  12.089
90850SOL    HW174389  13.175   1.212  12.105
90850SOL    HW274390  13.182   1.350  12.043
90851SOL     OW74391  11.298  12.473  13.185
90851SOL    HW174392  11.355  12.396  13.186
90851SOL    HW274393  11.343  12.536  13.128
90852SOL     OW74394  10.766   9.674  14.849
90852SOL    HW174395  10.817   9.642  14.774
90852SOL    HW274396  10.738   9.595   0.018
90853SOL     OW74397  10.421   9.466  13.667
90853SOL    HW174398  10.436   9.513  13.749
90853SOL    HW274399  10.508   9.459  13.627
90854SOL     OW74400   0.248  14.805   0.116
90854SOL    HW174401   0.339  14.837   0.122
90854SOL    HW274402   0.240  14.771   0.027
90855SOL     OW74403   7.562   2.228   2.142
90855SOL    HW174404   7.633   2.192   2.090
90855SOL    HW274405   7.492   2.246   2.079
90856SOL     OW74406   3.031  11.082  10.863
90856SOL    HW174407   2.983  10.999  10.871
90856SOL    HW274408   2.968  11.142  10.824
90857SOL     OW74409   9.415   7.730   0.711
90857SOL    HW174410   9.461   7.786   0.774
90857SOL    HW274411   9.485   7.680   0.669
90858SOL     OW74412   9.374   1.532  10.054
90858SOL    HW174413   9.415   1.513   9.970
90858SOL    HW274414   9.431   1.597  10.095
90859SOL     OW74415  10.837  12.092  11.482
90859SOL    HW174416  10.812  12.030  11.551
90859SOL    HW274417  10.909  12.143  11.521
90860SOL     OW74418  14.584   3.761  11.416
90860SOL    HW174419  14.537   3.826  11.363
90860SOL    HW274420  14.522   3.690  11.429
90861SOL     OW74421  12.080   3.985  13.839
90861SOL    HW174422  12.010   4.030  13.885
90861SOL    HW274423  12.119   4.052  13.784
90862SOL     OW74424  12.591   7.693  11.678
90862SOL    HW174425  12.638   7.775  11.694
90862SOL    HW274426  12.608   7.640  11.756
90863SOL     OW74427   9.316   1.771   2.073
90863SOL    HW174428   9.303   1.677   2.062
90863SOL    HW274429   9.384   1.778   2.140
90864SOL     OW74430  11.301  13.204   9.057
90864SOL    HW174431  11.217  13.183   9.016
90864SOL    HW274432  11.349  13.252   8.989
90865SOL     OW74433   8.905  12.982  11.956
90865SOL    HW174434   8.979  12.923  11.969
90865SOL    HW274435   8.938  13.068  11.981
90866SOL     OW74436  10.195  14.066   0.344
90866SOL    HW174437  10.167  14.017   0.267
90866SOL    HW274438  10.114  14.096   0.384
90867SOL     OW74439  13.288  10.252   1.236
90867SOL    HW174440  13.277  10.240   1.330
90867SOL    HW274441  13.242  10.178   1.197
90868SOL     OW74442  10.004   0.302  14.161
90868SOL    HW174443   9.969   0.226  14.207
90868SOL    HW274444   9.939   0.371  14.174
90869SOL     OW74445   3.115   1.554   6.461
90869SOL    HW174446   3.191   1.512   6.500
90869SOL    HW274447   3.147   1.640   6.434
90870SOL     OW74448   7.088  13.078  13.758
90870SOL    HW174449   7.177  13.046  13.775
90870SOL    HW274450   7.031  13.016  13.802
90871SOL     OW74451   3.721   8.015   9.175
90871SOL    HW174452   3.809   8.050   9.190
90871SOL    HW274453   3.667   8.058   9.242
90872SOL     OW74454   9.123  12.323   6.077
90872SOL    HW174455   9.156  12.408   6.107
90872SOL    HW274456   9.080  12.342   5.993
90873SOL     OW74457   4.699  14.301  14.529
90873SOL    HW174458   4.738  14.376  14.574
90873SOL    HW274459   4.616  14.287  14.574
90874SOL     OW74460   0.970  13.323  13.859
90874SOL    HW174461   0.968  13.326  13.955
90874SOL    HW274462   0.969  13.229  13.839
90875SOL     OW74463   6.242   6.628   8.050
90875SOL    HW174464   6.192   6.697   8.093
90875SOL    HW274465   6.287   6.671   7.977
90876SOL     OW74466   2.042   6.728   0.276
90876SOL    HW174467   2.119   6.747   0.330
90876SOL    HW274468   2.027   6.807   0.225
90877SOL     OW74469   1.105   3.484  12.220
90877SOL    HW174470   1.009   3.473  12.222
90877SOL    HW274471   1.135   3.450  12.304
90878SOL     OW74472   0.027   3.386  13.674
90878SOL    HW174473  14.857   3.360  13.595
90878SOL    HW274474   0.041   3.305  13.723
90879SOL     OW74475  13.422  11.144   6.700
90879SOL    HW174476  13.343  11.198   6.707
90879SOL    HW274477  13.403  11.067   6.753
90880SOL     OW74478   6.002   3.336   1.473
90880SOL    HW174479   5.937   3.374   1.531
90880SOL    HW274480   5.955   3.270   1.422
90881SOL     OW74481  13.429  12.573  12.649
90881SOL    HW174482  13.482  12.651  12.666
90881SOL    HW274483  13.349  12.586  12.701
90882SOL     OW74484   7.371  11.278  11.742
90882SOL    HW174485   7.286  11.284  11.785
90882SOL    HW274486   7.351  11.248  11.653
90883SOL     OW74487   3.621   0.478   1.611
90883SOL    HW174488   3.678   0.463   1.535
90883SOL    HW274489   3.533   0.459   1.579
90884SOL     OW74490   4.457   5.103  10.734
90884SOL    HW174491   4.392   5.089  10.665
90884SOL    HW274492   4.541   5.102  10.688
90885SOL     OW74493   0.524  11.223   3.500
90885SOL    HW174494   0.465  11.245   3.572
90885SOL    HW274495   0.488  11.142   3.464
90886SOL     OW74496   4.154  11.942  11.658
90886SOL    HW174497   4.102  11.987  11.723
90886SOL    HW274498   4.089  11.906  11.596
90887SOL     OW74499   8.176   2.941   5.199
90887SOL    HW174500   8.219   2.924   5.283
90887SOL    HW274501   8.194   3.033   5.182
90888SOL     OW74502  14.282   4.668  11.788
90888SOL    HW174503  14.304   4.649  11.696
90888SOL    HW274504  14.198   4.624  11.802
90889SOL     OW74505  11.863  10.355   2.110
90889SOL    HW174506  11.934  10.354   2.046
90889SOL    HW274507  11.890  10.419   2.175
90890SOL     OW74508   2.060  10.660   1.638
90890SOL    HW174509   2.097  10.745   1.614
90890SOL    HW274510   1.968  10.677   1.655
90891SOL     OW74511   2.896   1.978   7.660
90891SOL    HW174512   2.820   1.922   7.646
90891SOL    HW274513   2.862   2.068   7.651
90892SOL     OW74514  11.353   0.050   8.294
90892SOL    HW174515  11.366  14.833   8.278
90892SOL    HW274516  11.436   0.090   8.269
90893SOL     OW74517   7.762  10.718  12.074
90893SOL    HW174518   7.817  10.762  12.009
90893SOL    HW274519   7.823  10.664  12.124
90894SOL     OW74520   7.800   3.550   5.691
90894SOL    HW174521   7.884   3.580   5.658
90894SOL    HW274522   7.747   3.629   5.699
90895SOL     OW74523  12.858   1.052  13.991
90895SOL    HW174524  12.951   1.071  13.977
90895SOL    HW274525  12.832   1.110  14.063
90896SOL     OW74526   2.259   0.934   5.659
90896SOL    HW174527   2.198   0.978   5.600
90896SOL    HW274528   2.345   0.944   5.618
90897SOL     OW74529   9.665   5.272   5.751
90897SOL    HW174530   9.606   5.215   5.701
90897SOL    HW274531   9.638   5.360   5.727
90898SOL     OW74532   5.343  10.277   9.009
90898SOL    HW174533   5.425  10.264   8.961
90898SOL    HW274534   5.276  10.277   8.941
90899SOL     OW74535  14.140  13.367  10.650
90899SOL    HW174536  14.220  13.317  10.665
90899SOL    HW274537  14.142  13.389  10.556
90900SOL     OW74538   8.496   5.448   7.169
90900SOL    HW174539   8.437   5.438   7.094
90900SOL    HW274540   8.581   5.468   7.130
90901SOL     OW74541   3.459  14.044   8.505
90901SOL    HW174542   3.507  14.087   8.575
90901SOL    HW274543   3.521  13.980   8.469
90902SOL     OW74544   6.916   8.982   4.339
90902SOL    HW174545   6.914   9.070   4.379
90902SOL    HW274546   7.003   8.975   4.301
90903SOL     OW74547   8.935   0.502   1.984
90903SOL    HW174548   8.994   0.549   2.043
90903SOL    HW274549   8.881   0.571   1.945
90904SOL     OW74550   9.265  10.071  14.299
90904SOL    HW174551   9.260   9.979  14.272
90904SOL    HW274552   9.175  10.103  14.295
90905SOL     OW74553   2.237   9.484   0.451
90905SOL    HW174554   2.171   9.542   0.412
90905SOL    HW274555   2.314   9.494   0.394
90906SOL     OW74556   9.868   5.233  13.902
90906SOL    HW174557   9.920   5.164  13.862
90906SOL    HW274558   9.787   5.237  13.850
90907SOL     OW74559  14.054   6.903   9.492
90907SOL    HW174560  14.034   6.935   9.404
90907SOL    HW274561  13.968   6.886   9.531
90908SOL     OW74562   8.583  12.527  10.932
90908SOL    HW174563   8.653  12.496  10.990
90908SOL    HW274564   8.518  12.565  10.992
90909SOL     OW74565  14.792   0.182   1.588
90909SOL    HW174566  14.705   0.219   1.598
90909SOL    HW274567  14.837   0.203   1.670
90910SOL     OW74568   1.239   2.521  12.945
90910SOL    HW174569   1.252   2.570  12.863
90910SOL    HW274570   1.148   2.492  12.941
90911SOL     OW74571   9.674   7.715  10.065
90911SOL    HW174572   9.733   7.663  10.010
90911SOL    HW274573   9.707   7.805  10.058
90912SOL     OW74574   9.019   8.401  11.998
90912SOL    HW174575   9.025   8.403  12.094
90912SOL    HW274576   8.926   8.392  11.980
90913SOL     OW74577  11.938   5.726  14.124
90913SOL    HW174578  12.009   5.697  14.181
90913SOL    HW274579  11.946   5.672  14.045
90914SOL     OW74580   6.483   4.434   9.698
90914SOL    HW174581   6.557   4.374   9.697
90914SOL    HW274582   6.468   4.456   9.605
90915SOL     OW74583   3.614   6.984   0.769
90915SOL    HW174584   3.582   6.894   0.760
90915SOL    HW274585   3.537   7.034   0.797
90916SOL     OW74586  11.051  14.480   8.242
90916SOL    HW174587  10.964  14.440   8.242
90916SOL    HW274588  11.110  14.409   8.217
90917SOL     OW74589  11.561   0.629   5.582
90917SOL    HW174590  11.544   0.535   5.592
90917SOL    HW274591  11.483   0.671   5.619
90918SOL     OW74592   8.189  12.467   9.093
90918SOL    HW174593   8.136  12.437   9.167
90918SOL    HW274594   8.131  12.524   9.043
90919SOL     OW74595   4.769   6.555   6.519
90919SOL    HW174596   4.788   6.615   6.591
90919SOL    HW274597   4.844   6.495   6.518
90920SOL     OW74598   7.017   0.838   8.613
90920SOL    HW174599   7.086   0.852   8.549
90920SOL    HW274600   7.034   0.750   8.647
90921SOL     OW74601  10.298  11.018   4.665
90921SOL    HW174602  10.373  11.076   4.651
90921SOL    HW274603  10.304  10.993   4.757
90922SOL     OW74604   6.917   3.071   5.538
90922SOL    HW174605   6.877   2.987   5.515
90922SOL    HW274606   6.988   3.081   5.474
90923SOL     OW74607   9.764   6.336   2.261
90923SOL    HW174608   9.812   6.358   2.341
90923SOL    HW274609   9.764   6.240   2.259
90924SOL     OW74610   2.012   0.105   5.735
90924SOL    HW174611   1.999   0.068   5.822
90924SOL    HW274612   1.937   0.164   5.723
90925SOL     OW74613   0.190   7.636   8.566
90925SOL    HW174614   0.198   7.665   8.657
90925SOL    HW274615   0.274   7.658   8.526
90926SOL     OW74616   5.730   7.810   6.937
90926SOL    HW174617   5.750   7.756   6.861
90926SOL    HW274618   5.662   7.871   6.906
90927SOL     OW74619   5.426  13.613   4.832
90927SOL    HW174620   5.467  13.532   4.800
90927SOL    HW274621   5.469  13.630   4.916
90928SOL     OW74622  14.139  14.442  14.161
90928SOL    HW174623  14.160  14.486  14.079
90928SOL    HW274624  14.069  14.495  14.199
90929SOL     OW74625   5.621   4.725   0.416
90929SOL    HW174626   5.539   4.766   0.446
90929SOL    HW274627   5.597   4.635   0.398
90930SOL     OW74628   0.847   6.727   5.720
90930SOL    HW174629   0.892   6.736   5.636
90930SOL    HW274630   0.900   6.776   5.782
90931SOL     OW74631   0.814   5.712  13.979
90931SOL    HW174632   0.783   5.708  13.889
90931SOL    HW274633   0.771   5.790  14.016
90932SOL     OW74634   6.922  10.433   0.823
90932SOL    HW174635   6.896  10.358   0.877
90932SOL    HW274636   6.976  10.395   0.754
90933SOL     OW74637   2.812   9.656  12.849
90933SOL    HW174638   2.811   9.745  12.886
90933SOL    HW274639   2.731   9.616  12.882
90934SOL     OW74640   3.801  12.644  12.723
90934SOL    HW174641   3.765  12.561  12.694
90934SOL    HW274642   3.895  12.637  12.708
90935SOL     OW74643  13.041   6.060  13.267
90935SOL    HW174644  13.043   5.973  13.307
90935SOL    HW274645  13.090   6.115  13.328
90936SOL     OW74646   5.414   8.092   0.407
90936SOL    HW174647   5.445   8.010   0.369
90936SOL    HW274648   5.368   8.136   0.336
90937SOL     OW74649   7.590  14.234   9.212
90937SOL    HW174650   7.543  14.156   9.184
90937SOL    HW274651   7.543  14.265   9.289
90938SOL     OW74652  12.672  13.945  12.964
90938SOL    HW174653  12.660  13.967  12.871
90938SOL    HW274654  12.677  14.030  13.008
90939SOL     OW74655  11.750   1.665   5.326
90939SOL    HW174656  11.740   1.703   5.239
90939SOL    HW274657  11.690   1.590   5.326
90940SOL     OW74658   4.442   0.779   4.865
90940SOL    HW174659   4.515   0.717   4.858
90940SOL    HW274660   4.409   0.767   4.954
90941SOL     OW74661   5.613  11.554   7.457
90941SOL    HW174662   5.669  11.512   7.521
90941SOL    HW274663   5.661  11.546   7.374
90942SOL     OW74664  11.352  12.370   2.360
90942SOL    HW174665  11.316  12.296   2.408
90942SOL    HW274666  11.341  12.445   2.420
90943SOL     OW74667   0.139  13.603   8.470
90943SOL    HW174668   0.230  13.629   8.463
90943SOL    HW274669   0.136  13.543   8.545
90944SOL     OW74670   3.579   6.830   6.538
90944SOL    HW174671   3.657   6.802   6.491
90944SOL    HW274672   3.586   6.788   6.624
90945SOL     OW74673   0.781   7.149  10.211
90945SOL    HW174674   0.767   7.180  10.300
90945SOL    HW274675   0.863   7.191  10.184
90946SOL     OW74676   8.423   1.614   7.064
90946SOL    HW174677   8.336   1.601   7.026
90946SOL    HW274678   8.475   1.653   6.994
90947SOL     OW74679   0.999  14.013  13.029
90947SOL    HW174680   1.050  13.949  13.078
90947SOL    HW274681   1.045  14.096  13.040
90948SOL     OW74682   4.647   9.429   5.080
90948SOL    HW174683   4.735   9.435   5.116
90948SOL    HW274684   4.602   9.366   5.137
90949SOL     OW74685   2.762  11.069   8.369
90949SOL    HW174686   2.689  11.027   8.325
90949SOL    HW274687   2.722  11.131   8.430
90950SOL     OW74688  14.285  11.367   7.812
90950SOL    HW174689  14.233  11.442   7.782
90950SOL    HW274690  14.231  11.291   7.792
90951SOL     OW74691  11.826  10.076   1.199
90951SOL    HW174692  11.741  10.085   1.241
90951SOL    HW274693  11.851   9.985   1.213
90952SOL     OW74694   1.274   0.755   9.055
90952SOL    HW174695   1.344   0.750   9.120
90952SOL    HW274696   1.276   0.670   9.012
90953SOL     OW74697  10.312   4.999   5.627
90953SOL    HW174698  10.342   5.018   5.538
90953SOL    HW274699  10.224   5.037   5.631
90954SOL     OW74700   7.869   0.058  14.255
90954SOL    HW174701   7.883   0.151  14.242
90954SOL    HW274702   7.836   0.052  14.345
90955SOL     OW74703   7.382   0.636   2.868
90955SOL    HW174704   7.339   0.718   2.894
90955SOL    HW274705   7.408   0.596   2.951
90956SOL     OW74706  10.168  11.428  12.169
90956SOL    HW174707  10.177  11.523  12.172
90956SOL    HW274708  10.234  11.400  12.105
90957SOL     OW74709   1.200   7.941   4.898
90957SOL    HW174710   1.189   7.909   4.988
90957SOL    HW274711   1.284   7.985   4.899
90958SOL     OW74712  12.255  12.334   5.615
90958SOL    HW174713  12.233  12.407   5.557
90958SOL    HW274714  12.326  12.288   5.571
90959SOL     OW74715  11.267   6.067   5.271
90959SOL    HW174716  11.250   6.161   5.269
90959SOL    HW274717  11.298   6.049   5.360
90960SOL     OW74718   0.349   0.531   8.212
90960SOL    HW174719   0.316   0.486   8.134
90960SOL    HW274720   0.306   0.487   8.285
90961SOL     OW74721  13.344  13.289   4.332
90961SOL    HW174722  13.310  13.248   4.412
90961SOL    HW274723  13.400  13.223   4.293
90962SOL     OW74724   7.457   1.167  14.245
90962SOL    HW174725   7.448   1.084  14.198
90962SOL    HW274726   7.531   1.153  14.304
90963SOL     OW74727   8.757   9.762  11.013
90963SOL    HW174728   8.836   9.717  11.044
90963SOL    HW274729   8.725   9.809  11.089
90964SOL     OW74730   1.721  11.242  13.174
90964SOL    HW174731   1.796  11.196  13.211
90964SOL    HW274732   1.708  11.317  13.233
90965SOL     OW74733  11.725   2.597   7.164
90965SOL    HW174734  11.639   2.587   7.122
90965SOL    HW274735  11.756   2.508   7.178
90966SOL     OW74736   6.596  10.339   5.201
90966SOL    HW174737   6.568  10.272   5.264
90966SOL    HW274738   6.670  10.382   5.243
90967SOL     OW74739  13.828   3.432  10.055
90967SOL    HW174740  13.794   3.347  10.083
90967SOL    HW274741  13.814   3.489  10.131
90968SOL     OW74742   3.201  12.661   2.635
90968SOL    HW174743   3.248  12.583   2.605
90968SOL    HW274744   3.219  12.665   2.729
90969SOL     OW74745   2.077   1.723  10.922
90969SOL    HW174746   2.148   1.703  10.861
90969SOL    HW274747   2.118   1.724  11.008
90970SOL     OW74748   7.380   0.988   7.108
90970SOL    HW174749   7.419   1.008   7.023
90970SOL    HW274750   7.419   1.052   7.167
90971SOL     OW74751   1.667   8.220   7.726
90971SOL    HW174752   1.683   8.273   7.648
90971SOL    HW274753   1.671   8.282   7.799
90972SOL     OW74754   4.524  10.969  14.068
90972SOL    HW174755   4.525  11.065  14.070
90972SOL    HW274756   4.483  10.947  13.985
90973SOL     OW74757  10.017   0.965   4.763
90973SOL    HW174758   9.977   0.940   4.679
90973SOL    HW274759  10.046   0.882   4.801
90974SOL     OW74760   8.474   1.765   7.300
90974SOL    HW174761   8.471   1.689   7.357
90974SOL    HW274762   8.477   1.730   7.211
90975SOL     OW74763   0.417   0.402   8.889
90975SOL    HW174764   0.423   0.491   8.924
90975SOL    HW274765   0.330   0.372   8.913
90976SOL     OW74766  13.410  12.563  12.350
90976SOL    HW174767  13.431  12.593  12.438
90976SOL    HW274768  13.315  12.546  12.352
90977SOL     OW74769   4.564   2.260   1.449
90977SOL    HW174770   4.503   2.319   1.493
90977SOL    HW274771   4.635   2.317   1.419
90978SOL     OW74772   3.683   0.486   2.684
90978SOL    HW174773   3.595   0.507   2.653
90978SOL    HW274774   3.741   0.543   2.633
90979SOL     OW74775   0.454  11.926   5.002
90979SOL    HW174776   0.435  11.896   4.913
90979SOL    HW274777   0.440  12.020   4.999
90980SOL     OW74778   6.060   5.114   6.296
90980SOL    HW174779   6.110   5.098   6.216
90980SOL    HW274780   5.976   5.149   6.265
90981SOL     OW74781   3.448   5.267   0.572
90981SOL    HW174782   3.500   5.193   0.604
90981SOL    HW274783   3.381   5.227   0.517
90982SOL     OW74784  13.064  12.325   6.355
90982SOL    HW174785  12.998  12.256   6.361
90982SOL    HW274786  13.128  12.291   6.293
90983SOL     OW74787   1.594   7.185  14.272
90983SOL    HW174788   1.654   7.216  14.204
90983SOL    HW274789   1.646   7.123  14.322
90984SOL     OW74790   9.435   2.841  14.376
90984SOL    HW174791   9.471   2.905  14.437
90984SOL    HW274792   9.437   2.885  14.291
90985SOL     OW74793   5.542  11.569   6.984
90985SOL    HW174794   5.501  11.649   6.952
90985SOL    HW274795   5.500  11.498   6.936
90986SOL     OW74796   5.715   2.481   4.065
90986SOL    HW174797   5.654   2.495   4.137
90986SOL    HW274798   5.701   2.557   4.007
90987SOL     OW74799   4.099  10.744  11.935
90987SOL    HW174800   4.122  10.803  12.006
90987SOL    HW274801   4.007  10.765  11.915
90988SOL     OW74802   3.168   9.918   2.043
90988SOL    HW174803   3.184   9.828   2.073
90988SOL    HW274804   3.152   9.909   1.949
90989SOL     OW74805   8.805   3.275  12.986
90989SOL    HW174806   8.847   3.358  12.966
90989SOL    HW274807   8.754   3.293  13.065
90990SOL     OW74808  13.586   8.845  10.314
90990SOL    HW174809  13.496   8.812  10.319
90990SOL    HW274810  13.581   8.919  10.253
90991SOL     OW74811   1.778  11.232   6.436
90991SOL    HW174812   1.766  11.272   6.522
90991SOL    HW274813   1.872  11.239   6.419
90992SOL     OW74814  10.666   2.446  14.726
90992SOL    HW174815  10.674   2.372  14.666
90992SOL    HW274816  10.755   2.458  14.760
90993SOL     OW74817   0.900   8.890  14.688
90993SOL    HW174818   0.970   8.927  14.740
90993SOL    HW274819   0.868   8.815  14.739
90994SOL     OW74820   5.238   3.546  13.591
90994SOL    HW174821   5.213   3.532  13.682
90994SOL    HW274822   5.333   3.561  13.594
90995SOL     OW74823   4.915   3.284   6.845
90995SOL    HW174824   4.947   3.197   6.866
90995SOL    HW274825   4.993   3.339   6.840
90996SOL     OW74826  10.928   1.324  10.018
90996SOL    HW174827  10.946   1.397   9.958
90996SOL    HW274828  10.836   1.301  10.000
90997SOL     OW74829  14.733   1.482   0.341
90997SOL    HW174830  14.760   1.574   0.335
90997SOL    HW274831  14.807   1.438   0.382
90998SOL     OW74832   0.806   9.280   7.640
90998SOL    HW174833   0.762   9.342   7.698
90998SOL    HW274834   0.815   9.328   7.557
90999SOL     OW74835   0.522   2.545   2.542
90999SOL    HW174836   0.436   2.505   2.538
90999SOL    HW274837   0.545   2.544   2.635
91000SOL     OW74838   1.868   4.396   7.009
91000SOL    HW174839   1.915   4.347   6.942
91000SOL    HW274840   1.790   4.344   7.027
91001SOL     OW74841   8.169  10.225   4.092
91001SOL    HW174842   8.074  10.237   4.090
91001SOL    HW274843   8.187  10.168   4.018
91002SOL     OW74844   3.527   0.065   0.772
91002SOL    HW174845   3.591   0.075   0.842
91002SOL    HW274846   3.465   0.137   0.786
91003SOL     OW74847  13.003   5.900   8.527
91003SOL    HW174848  13.008   5.819   8.476
91003SOL    HW274849  12.932   5.885   8.589
91004SOL     OW74850   9.976   5.920   7.959
91004SOL    HW174851  10.009   5.857   7.895
91004SOL    HW274852  10.045   5.987   7.963
91005SOL     OW74853   0.558   3.490  12.882
91005SOL    HW174854   0.482   3.535  12.919
91005SOL    HW274855   0.632   3.526  12.931
91006SOL     OW74856   8.149   8.788  10.877
91006SOL    HW174857   8.075   8.764  10.821
91006SOL    HW274858   8.110   8.837  10.949
91007SOL     OW74859  11.898   5.080   4.628
91007SOL    HW174860  11.938   5.053   4.711
91007SOL    HW274861  11.892   4.999   4.577
91008SOL     OW74862   0.541  11.237   0.904
91008SOL    HW174863   0.464  11.190   0.871
91008SOL    HW274864   0.561  11.301   0.837
91009SOL     OW74865   4.536   3.204   5.122
91009SOL    HW174866   4.614   3.153   5.101
91009SOL    HW274867   4.566   3.295   5.124
91010SOL     OW74868   8.753  11.061   1.243
91010SOL    HW174869   8.731  11.075   1.151
91010SOL    HW274870   8.751  11.148   1.282
91011SOL     OW74871   6.474  12.935  14.518
91011SOL    HW174872   6.484  13.027  14.540
91011SOL    HW274873   6.562  12.898  14.529
91012SOL     OW74874  13.335  14.219   1.655
91012SOL    HW174875  13.370  14.308   1.655
91012SOL    HW274876  13.295  14.209   1.569
91013SOL     OW74877   9.473  13.510   2.511
91013SOL    HW174878   9.399  13.570   2.523
91013SOL    HW274879   9.544  13.549   2.562
91014SOL     OW74880   9.557  10.744  11.800
91014SOL    HW174881   9.545  10.754  11.895
91014SOL    HW274882   9.524  10.825  11.763
91015SOL     OW74883   5.971  13.920   3.797
91015SOL    HW174884   5.968  14.015   3.804
91015SOL    HW274885   6.004  13.902   3.709
91016SOL     OW74886   5.498  14.746  14.686
91016SOL    HW174887   5.582  14.729  14.644
91016SOL    HW274888   5.517  14.752  14.779
91017SOL     OW74889  11.443   1.884  14.632
91017SOL    HW174890  11.387   1.849  14.701
91017SOL    HW274891  11.462   1.973  14.660
91018SOL     OW74892   4.097   4.022  10.980
91018SOL    HW174893   4.104   4.114  10.953
91018SOL    HW274894   4.136   3.973  10.908
91019SOL     OW74895  13.583   2.532   8.822
91019SOL    HW174896  13.549   2.469   8.759
91019SOL    HW274897  13.672   2.502   8.842
91020SOL     OW74898  14.598   1.749   8.983
91020SOL    HW174899  14.535   1.796   9.037
91020SOL    HW274900  14.549   1.675   8.948
91021SOL     OW74901   0.800   8.970  11.842
91021SOL    HW174902   0.851   8.977  11.922
91021SOL    HW274903   0.812   8.880  11.813
91022SOL     OW74904   5.068  10.992   7.222
91022SOL    HW174905   5.130  10.990   7.295
91022SOL    HW274906   4.990  10.950   7.256
91023SOL     OW74907   9.138   9.225   2.436
91023SOL    HW174908   9.162   9.303   2.487
91023SOL    HW274909   9.208   9.163   2.453
91024SOL     OW74910   8.107   5.254   2.072
91024SOL    HW174911   8.051   5.233   2.147
91024SOL    HW274912   8.166   5.322   2.104
91025SOL     OW74913  11.929   1.974   1.249
91025SOL    HW174914  11.970   1.914   1.186
91025SOL    HW274915  11.969   1.951   1.333
91026SOL     OW74916  10.552   1.290   8.751
91026SOL    HW174917  10.520   1.284   8.661
91026SOL    HW274918  10.631   1.236   8.753
91027SOL     OW74919   1.031   4.779  13.711
91027SOL    HW174920   1.058   4.870  13.721
91027SOL    HW274921   0.963   4.781  13.644
91028SOL     OW74922   0.783   4.806  13.596
91028SOL    HW174923   0.750   4.778  13.681
91028SOL    HW274924   0.706   4.834  13.547
91029SOL     OW74925   0.603  11.299   1.567
91029SOL    HW174926   0.670  11.353   1.524
91029SOL    HW274927   0.637  11.285   1.655
91030SOL     OW74928   5.217   0.954  12.397
91030SOL    HW174929   5.290   0.915  12.446
91030SOL    HW274930   5.155   0.881  12.387
91031SOL     OW74931   0.509   3.516  13.677
91031SOL    HW174932   0.524   3.569  13.755
91031SOL    HW274933   0.583   3.455  13.674
91032SOL     OW74934   8.728  13.710  13.984
91032SOL    HW174935   8.771  13.753  14.058
91032SOL    HW274936   8.635  13.730  13.996
91033SOL     OW74937   8.696   0.908  13.650
91033SOL    HW174938   8.667   0.855  13.724
91033SOL    HW274939   8.755   0.973  13.689
91034SOL     OW74940   0.634   3.113   0.555
91034SOL    HW174941   0.601   3.035   0.599
91034SOL    HW274942   0.615   3.099   0.462
91035SOL     OW74943   6.714  12.319  10.167
91035SOL    HW174944   6.661  12.370  10.229
91035SOL    HW274945   6.804  12.335  10.194
91036SOL     OW74946  12.376   3.974  10.777
91036SOL    HW174947  12.388   4.061  10.816
91036SOL    HW274948  12.281   3.964  10.770
91037SOL     OW74949   9.431   5.986   7.227
91037SOL    HW174950   9.417   5.951   7.139
91037SOL    HW274951   9.388   5.924   7.285
91038SOL     OW74952   0.402   9.943   3.943
91038SOL    HW174953   0.401   9.848   3.933
91038SOL    HW274954   0.409   9.977   3.853
91039SOL     OW74955  11.871  12.725   1.373
91039SOL    HW174956  11.816  12.661   1.417
91039SOL    HW274957  11.837  12.810   1.403
91040SOL     OW74958   3.179  11.656   1.477
91040SOL    HW174959   3.158  11.629   1.387
91040SOL    HW274960   3.094  11.671   1.518
91041SOL     OW74961  13.532   3.629   2.322
91041SOL    HW174962  13.566   3.715   2.350
91041SOL    HW274963  13.610   3.581   2.294
91042SOL     OW74964   5.683  12.024   6.170
91042SOL    HW174965   5.634  11.942   6.162
91042SOL    HW274966   5.684  12.059   6.081
91043SOL     OW74967  12.791  13.558  11.077
91043SOL    HW174968  12.697  13.541  11.088
91043SOL    HW274969  12.810  13.533  10.987
91044SOL     OW74970   6.070   9.514  12.757
91044SOL    HW174971   6.063   9.600  12.799
91044SOL    HW274972   5.982   9.478  12.762
91045SOL     OW74973   7.711  14.636   5.575
91045SOL    HW174974   7.717  14.583   5.654
91045SOL    HW274975   7.630  14.605   5.532
91046SOL     OW74976   9.671   4.357   3.704
91046SOL    HW174977   9.736   4.416   3.743
91046SOL    HW274978   9.665   4.283   3.765
91047SOL     OW74979   7.930   7.545   8.708
91047SOL    HW174980   7.907   7.510   8.622
91047SOL    HW274981   8.026   7.545   8.709
91048SOL     OW74982   8.710  12.108   7.808
91048SOL    HW174983   8.690  12.021   7.843
91048SOL    HW274984   8.672  12.168   7.872
91049SOL     OW74985   1.877  10.581   9.909
91049SOL    HW174986   1.856  10.666   9.869
91049SOL    HW274987   1.882  10.521   9.834
91050SOL     OW74988   9.027   7.699   7.394
91050SOL    HW174989   9.112   7.739   7.414
91050SOL    HW274990   8.969   7.732   7.463
91051SOL     OW74991  11.284   1.939   4.831
91051SOL    HW174992  11.203   1.889   4.841
91051SOL    HW274993  11.259   2.030   4.846
91052SOL     OW74994   3.507   2.970   4.662
91052SOL    HW174995   3.524   2.946   4.571
91052SOL    HW274996   3.593   2.977   4.702
91053SOL     OW74997   7.857   3.594   0.310
91053SOL    HW174998   7.875   3.526   0.246
91053SOL    HW274999   7.848   3.548   0.393
91054SOL     OW75000  10.170  14.756  11.786
91054SOL    HW175001  10.223  14.796  11.855
91054SOL    HW275002  10.211  14.787  11.705
91055SOL     OW75003   2.191  10.043   9.785
91055SOL    HW175004   2.178  10.019   9.693
91055SOL    HW275005   2.112  10.092   9.808
91056SOL     OW75006   7.112   2.265   4.514
91056SOL    HW175007   7.111   2.226   4.426
91056SOL    HW275008   7.036   2.227   4.557
91057SOL     OW75009   6.967   0.238   5.468
91057SOL    HW175010   6.976   0.185   5.389
91057SOL    HW275011   6.924   0.319   5.439
91058SOL     OW75012   1.513  13.460   4.558
91058SOL    HW175013   1.507  13.369   4.585
91058SOL    HW275014   1.555  13.457   4.472
91059SOL     OW75015   4.886   7.810   7.239
91059SOL    HW175016   4.902   7.752   7.165
91059SOL    HW275017   4.791   7.814   7.246
91060SOL     OW75018   9.846   7.386   1.796
91060SOL    HW175019   9.907   7.320   1.830
91060SOL    HW275020   9.860   7.463   1.850
91061SOL     OW75021   7.327   0.505  13.723
91061SOL    HW175022   7.256   0.503  13.658
91061SOL    HW275023   7.355   0.597  13.724
91062SOL     OW75024   7.383   8.951  13.436
91062SOL    HW175025   7.437   8.897  13.378
91062SOL    HW275026   7.294   8.919  13.422
91063SOL     OW75027  13.044   6.014  12.987
91063SOL    HW175028  13.057   6.026  13.081
91063SOL    HW275029  13.087   6.089  12.947
91064SOL     OW75030   7.279   1.099  11.280
91064SOL    HW175031   7.195   1.056  11.297
91064SOL    HW275032   7.342   1.028  11.276
91065SOL     OW75033   8.334   8.898   6.716
91065SOL    HW175034   8.240   8.892   6.728
91065SOL    HW275035   8.367   8.810   6.735
91066SOL     OW75036  13.717   8.802  12.538
91066SOL    HW175037  13.740   8.851  12.617
91066SOL    HW275038  13.780   8.730  12.535
91067SOL     OW75039   0.400   1.165   9.362
91067SOL    HW175040   0.441   1.225   9.300
91067SOL    HW275041   0.377   1.088   9.310
91068SOL     OW75042   3.030   2.877   5.146
91068SOL    HW175043   2.952   2.822   5.135
91068SOL    HW275044   3.079   2.865   5.064
91069SOL     OW75045   4.113  14.277   7.404
91069SOL    HW175046   4.078  14.194   7.437
91069SOL    HW275047   4.035  14.330   7.385
91070SOL     OW75048   6.543   5.330  12.799
91070SOL    HW175049   6.482   5.391  12.839
91070SOL    HW275050   6.593   5.383  12.737
91071SOL     OW75051  13.209  12.035   9.392
91071SOL    HW175052  13.213  12.046   9.486
91071SOL    HW275053  13.252  11.951   9.375
91072SOL     OW75054   5.405  14.714   3.363
91072SOL    HW175055   5.411  14.647   3.294
91072SOL    HW275056   5.469  14.687   3.428
91073SOL     OW75057   1.256   3.534   5.949
91073SOL    HW175058   1.175   3.583   5.930
91073SOL    HW275059   1.319   3.567   5.885
91074SOL     OW75060   5.387   8.415   3.322
91074SOL    HW175061   5.437   8.493   3.295
91074SOL    HW275062   5.396   8.413   3.417
91075SOL     OW75063   5.858  10.832  11.063
91075SOL    HW175064   5.862  10.764  10.995
91075SOL    HW275065   5.901  10.793  11.139
91076SOL     OW75066   0.181   1.784   0.350
91076SOL    HW175067   0.199   1.857   0.291
91076SOL    HW275068   0.164   1.825   0.434
91077SOL     OW75069  13.311  12.603  11.143
91077SOL    HW175070  13.240  12.656  11.107
91077SOL    HW275071  13.306  12.520  11.095
91078SOL     OW75072  10.298  11.250   1.884
91078SOL    HW175073  10.296  11.319   1.951
91078SOL    HW275074  10.289  11.296   1.801
91079SOL     OW75075  10.028  12.059   6.383
91079SOL    HW175076  10.090  12.119   6.424
91079SOL    HW275077   9.969  12.115   6.332
91080SOL     OW75078   0.861   9.641   7.779
91080SOL    HW175079   0.805   9.582   7.831
91080SOL    HW275080   0.879   9.714   7.837
91081SOL     OW75081   6.137  10.729   9.111
91081SOL    HW175082   6.192  10.762   9.041
91081SOL    HW275083   6.197  10.712   9.183
91082SOL     OW75084   7.191   0.787   5.023
91082SOL    HW175085   7.211   0.693   5.022
91082SOL    HW275086   7.096   0.792   5.013
91083SOL     OW75087   3.522   5.926   1.915
91083SOL    HW175088   3.569   5.900   1.836
91083SOL    HW275089   3.438   5.959   1.883
91084SOL     OW75090   4.552   7.408   0.613
91084SOL    HW175091   4.645   7.417   0.635
91084SOL    HW275092   4.508   7.473   0.669
91085SOL     OW75093  12.879   5.948  14.637
91085SOL    HW175094  12.957   5.966  14.690
91085SOL    HW275095  12.847   5.863  14.668
91086SOL     OW75096   0.142   6.138   2.123
91086SOL    HW175097   0.047   6.132   2.116
91086SOL    HW275098   0.158   6.217   2.174
91087SOL     OW75099  13.498   5.025   6.803
91087SOL    HW175100  13.571   4.977   6.841
91087SOL    HW275101  13.439   4.957   6.770
91088SOL     OW75102  13.701  13.957   7.977
91088SOL    HW175103  13.763  13.946   7.904
91088SOL    HW275104  13.707  14.051   7.998
91089SOL     OW75105   2.516   9.612  11.709
91089SOL    HW175106   2.475   9.699  11.709
91089SOL    HW275107   2.605   9.628  11.679
91090SOL     OW75108   7.829   2.666  13.102
91090SOL    HW175109   7.902   2.612  13.073
91090SOL    HW275110   7.852   2.690  13.192
91091SOL     OW75111   3.126   7.448   6.146
91091SOL    HW175112   3.146   7.355   6.136
91091SOL    HW275113   3.034   7.456   6.121
91092SOL     OW75114  11.794   7.970  12.007
91092SOL    HW175115  11.806   8.010  12.093
91092SOL    HW275116  11.858   8.013  11.951
91093SOL     OW75117   2.738   4.325   1.012
91093SOL    HW175118   2.788   4.251   0.978
91093SOL    HW275119   2.804   4.383   1.049
91094SOL     OW75120   4.338   2.192   8.253
91094SOL    HW175121   4.345   2.279   8.291
91094SOL    HW275122   4.291   2.205   8.170
91095SOL     OW75123   5.761   6.475   6.797
91095SOL    HW175124   5.798   6.386   6.799
91095SOL    HW275125   5.699   6.476   6.870
91096SOL     OW75126  11.659   9.582   0.147
91096SOL    HW175127  11.612   9.508   0.109
91096SOL    HW275128  11.622   9.591   0.235
91097SOL     OW75129   0.804  11.523  13.098
91097SOL    HW175130   0.851  11.485  13.024
91097SOL    HW275131   0.845  11.485  13.175
91098SOL     OW75132  12.896  10.222   9.909
91098SOL    HW175133  12.902  10.288   9.978
91098SOL    HW275134  12.805  10.225   9.881
91099SOL     OW75135   2.983  10.311   7.875
91099SOL    HW175136   3.063  10.262   7.897
91099SOL    HW275137   2.990  10.327   7.781
91100SOL     OW75138   4.611  14.161   0.124
91100SOL    HW175139   4.587  14.153   0.217
91100SOL    HW275140   4.595  14.254   0.104
91101SOL     OW75141  13.515   8.215   4.522
91101SOL    HW175142  13.513   8.262   4.606
91101SOL    HW275143  13.497   8.124   4.545
91102SOL     OW75144   9.180   9.028   6.440
91102SOL    HW175145   9.167   9.109   6.392
91102SOL    HW275146   9.103   9.021   6.497
91103SOL     OW75147  12.021  10.762   4.881
91103SOL    HW175148  11.986  10.851   4.890
91103SOL    HW275149  12.106  10.774   4.839
91104SOL     OW75150   3.882   8.808   1.806
91104SOL    HW175151   3.863   8.719   1.776
91104SOL    HW275152   3.959   8.799   1.862
91105SOL     OW75153  10.741  13.919  10.617
91105SOL    HW175154  10.661  13.900  10.666
91105SOL    HW275155  10.712  13.930  10.527
91106SOL     OW75156  10.558   5.781   0.233
91106SOL    HW175157  10.478   5.822   0.266
91106SOL    HW275158  10.584   5.720   0.302
91107SOL     OW75159  11.498  14.688  12.772
91107SOL    HW175160  11.452  14.635  12.707
91107SOL    HW275161  11.544  14.624  12.827
91108SOL     OW75162   8.490   1.146   3.108
91108SOL    HW175163   8.455   1.235   3.097
91108SOL    HW275164   8.575   1.159   3.149
91109SOL     OW75165   3.800  12.106   1.808
91109SOL    HW175166   3.876  12.156   1.838
91109SOL    HW275167   3.761  12.160   1.739
91110SOL     OW75168  11.883   7.348   7.077
91110SOL    HW175169  11.930   7.268   7.056
91110SOL    HW275170  11.856   7.337   7.168
91111SOL     OW75171  12.880   1.947  11.086
91111SOL    HW175172  12.872   1.932  10.992
91111SOL    HW275173  12.969   1.981  11.098
91112SOL     OW75174  10.392   1.799   4.626
91112SOL    HW175175  10.308   1.845   4.629
91112SOL    HW275176  10.428   1.819   4.540
91113SOL     OW75177  14.740   5.559   0.008
91113SOL    HW175178  14.768   5.492  14.821
91113SOL    HW275179  14.667   5.519   0.054
91114SOL     OW75180  10.714   1.790  14.186
91114SOL    HW175181  10.656   1.865  14.174
91114SOL    HW275182  10.692   1.732  14.112
91115SOL     OW75183   2.149   5.244  14.119
91115SOL    HW175184   2.233   5.264  14.078
91115SOL    HW275185   2.139   5.150  14.109
91116SOL     OW75186   9.861   6.870  13.258
91116SOL    HW175187   9.919   6.888  13.332
91116SOL    HW275188   9.777   6.849  13.298
91117SOL     OW75189   2.912   5.829   1.125
91117SOL    HW175190   2.865   5.903   1.086
91117SOL    HW275191   2.980   5.870   1.179
91118SOL     OW75192  14.043  14.027   8.260
91118SOL    HW175193  14.119  14.064   8.215
91118SOL    HW275194  14.041  14.073   8.344
91119SOL     OW75195   1.018  12.370   8.016
91119SOL    HW175196   1.043  12.425   7.942
91119SOL    HW275197   1.015  12.282   7.980
91120SOL     OW75198  11.683   9.497  10.639
91120SOL    HW175199  11.625   9.421  10.648
91120SOL    HW275200  11.623   9.571  10.631
91121SOL     OW75201   2.291   5.832   1.741
91121SOL    HW175202   2.321   5.911   1.785
91121SOL    HW275203   2.339   5.829   1.658
91122SOL     OW75204   0.752   5.468   0.520
91122SOL    HW175205   0.776   5.464   0.427
91122SOL    HW275206   0.728   5.560   0.533
91123SOL     OW75207   5.032   3.273  13.971
91123SOL    HW175208   5.103   3.213  13.948
91123SOL    HW275209   5.071   3.334  14.033
91124SOL     OW75210   0.152   6.892  12.062
91124SOL    HW175211   0.062   6.905  12.091
91124SOL    HW275212   0.205   6.907  12.140
91125SOL     OW75213  14.274  11.134   9.375
91125SOL    HW175214  14.302  11.123   9.466
91125SOL    HW275215  14.228  11.053   9.354
91126SOL     OW75216  12.248  14.095   9.129
91126SOL    HW175217  12.217  14.179   9.162
91126SOL    HW275218  12.326  14.076   9.181
91127SOL     OW75219   2.649  10.569   8.167
91127SOL    HW175220   2.604  10.624   8.230
91127SOL    HW275221   2.741  10.574   8.193
91128SOL     OW75222   0.345   7.686  10.976
91128SOL    HW175223   0.408   7.756  10.958
91128SOL    HW275224   0.351   7.628  10.899
91129SOL     OW75225   1.324   8.368   7.565
91129SOL    HW175226   1.392   8.428   7.533
91129SOL    HW275227   1.370   8.306   7.621
91130SOL     OW75228   8.251  10.289   6.019
91130SOL    HW175229   8.333  10.290   6.070
91130SOL    HW275230   8.255  10.209   5.968
91131SOL     OW75231   6.914   4.695   4.815
91131SOL    HW175232   6.847   4.750   4.853
91131SOL    HW275233   6.944   4.743   4.738
91132SOL     OW75234   6.352  14.787   8.390
91132SOL    HW175235   6.423  14.750   8.337
91132SOL    HW275236   6.395  14.849   8.449
91133SOL     OW75237   6.594  12.517  11.536
91133SOL    HW175238   6.622  12.521  11.444
91133SOL    HW275239   6.528  12.586  11.543
91134SOL     OW75240   9.796   9.105  11.459
91134SOL    HW175241   9.777   9.045  11.386
91134SOL    HW275242   9.861   9.058  11.512
91135SOL     OW75243   1.186   3.975   6.316
91135SOL    HW175244   1.107   3.922   6.327
91135SOL    HW275245   1.176   4.046   6.380
91136SOL     OW75246   4.193  13.084   8.564
91136SOL    HW175247   4.219  13.117   8.478
91136SOL    HW275248   4.138  13.008   8.545
91137SOL     OW75249  11.840   1.963   2.363
91137SOL    HW175250  11.779   2.034   2.341
91137SOL    HW275251  11.831   1.951   2.457
91138SOL     OW75252   0.884  10.606   6.142
91138SOL    HW175253   0.826  10.548   6.191
91138SOL    HW275254   0.949  10.546   6.103
91139SOL     OW75255   8.969   7.245   9.792
91139SOL    HW175256   8.930   7.255   9.879
91139SOL    HW275257   9.061   7.226   9.810
91140SOL     OW75258   9.776  14.023   1.842
91140SOL    HW175259   9.704  13.964   1.862
91140SOL    HW275260   9.854  13.975   1.868
91141SOL     OW75261   8.424   3.746  11.539
91141SOL    HW175262   8.510   3.704  11.530
91141SOL    HW275263   8.403   3.776  11.451
91142SOL     OW75264  11.348   0.592  14.333
91142SOL    HW175265  11.403   0.517  14.354
91142SOL    HW275266  11.369   0.657  14.400
91143SOL     OW75267  11.344   9.468   1.101
91143SOL    HW175268  11.284   9.393   1.101
91143SOL    HW275269  11.332   9.508   1.015
91144SOL     OW75270   0.209  12.835  11.860
91144SOL    HW175271   0.200  12.791  11.776
91144SOL    HW275272   0.294  12.878  11.856
91145SOL     OW75273   7.784  12.517   0.938
91145SOL    HW175274   7.855  12.453   0.938
91145SOL    HW275275   7.734  12.499   1.018
91146SOL     OW75276   1.722   4.806   4.983
91146SOL    HW175277   1.683   4.790   5.069
91146SOL    HW275278   1.813   4.831   5.002
91147SOL     OW75279   3.138  14.335  11.722
91147SOL    HW175280   3.161  14.422  11.689
91147SOL    HW275281   3.050  14.346  11.758
91148SOL     OW75282   7.830   9.979   3.848
91148SOL    HW175283   7.762   9.912   3.842
91148SOL    HW275284   7.785  10.061   3.833
91149SOL     OW75285   1.601   0.816  10.581
91149SOL    HW175286   1.637   0.811  10.669
91149SOL    HW275287   1.668   0.862  10.530
91150SOL     OW75288   2.919   1.193   5.308
91150SOL    HW175289   2.832   1.231   5.296
91150SOL    HW275290   2.909   1.101   5.283
91151SOL     OW75291  10.582  12.467   7.693
91151SOL    HW175292  10.532  12.549   7.695
91151SOL    HW275293  10.575  12.433   7.782
91152SOL     OW75294   0.406   2.951   9.455
91152SOL    HW175295   0.475   2.981   9.514
91152SOL    HW275296   0.363   3.032   9.426
91153SOL     OW75297  14.533   2.279   3.391
91153SOL    HW175298  14.608   2.336   3.406
91153SOL    HW275299  14.522   2.232   3.473
91154SOL     OW75300  10.171   2.891   4.892
91154SOL    HW175301  10.233   2.894   4.965
91154SOL    HW275302  10.219   2.931   4.819
91155SOL     OW75303   8.667   2.351   0.439
91155SOL    HW175304   8.754   2.380   0.464
91155SOL    HW275305   8.608   2.416   0.478
91156SOL     OW75306   1.227  14.603  14.790
91156SOL    HW175307   1.315  14.630  14.818
91156SOL    HW275308   1.196  14.545  14.860
91157SOL     OW75309   7.500  11.848  13.377
91157SOL    HW175310   7.578  11.902  13.362
91157SOL    HW275311   7.471  11.823  13.289
91158SOL     OW75312   6.609  10.731  14.800
91158SOL    HW175313   6.655  10.811  14.827
91158SOL    HW275314   6.528  10.762  14.760
91159SOL     OW75315  11.329   4.009   4.586
91159SOL    HW175316  11.351   4.096   4.621
91159SOL    HW275317  11.379   4.002   4.505
91160SOL     OW75318   4.658   4.118  13.790
91160SOL    HW175319   4.630   4.186  13.728
91160SOL    HW275320   4.607   4.041  13.765
91161SOL     OW75321   9.056   6.062   2.788
91161SOL    HW175322   9.064   5.976   2.746
91161SOL    HW275323   9.098   6.122   2.726
91162SOL     OW75324   4.424   0.291  12.216
91162SOL    HW175325   4.513   0.264  12.193
91162SOL    HW275326   4.395   0.225  12.278
91163SOL     OW75327   2.688   5.830   3.198
91163SOL    HW175328   2.770   5.782   3.210
91163SOL    HW275329   2.646   5.788   3.124
91164SOL     OW75330   6.094  14.841  11.397
91164SOL    HW175331   6.040   0.043  11.402
91164SOL    HW275332   6.169  14.859  11.454
91165SOL     OW75333  10.814   4.958   4.460
91165SOL    HW175334  10.885   4.987   4.402
91165SOL    HW275335  10.818   5.018   4.534
91166SOL     OW75336   4.369   2.474   8.316
91166SOL    HW175337   4.372   2.486   8.221
91166SOL    HW275338   4.393   2.559   8.352
91167SOL     OW75339   1.784   3.009  13.437
91167SOL    HW175340   1.743   2.965  13.363
91167SOL    HW275341   1.715   3.017  13.502
91168SOL     OW75342  12.114   0.197   8.654
91168SOL    HW175343  12.176   0.247   8.600
91168SOL    HW275344  12.150   0.109   8.658
91169SOL     OW75345   5.000   4.037  12.709
91169SOL    HW175346   4.966   4.106  12.766
91169SOL    HW275347   4.985   3.956  12.758
91170SOL     OW75348  14.510   5.896   4.529
91170SOL    HW175349  14.458   5.973   4.505
91170SOL    HW275350  14.486   5.830   4.465
91171SOL     OW75351   7.483  11.274  14.614
91171SOL    HW175352   7.417  11.333  14.649
91171SOL    HW275353   7.478  11.196  14.670
91172SOL     OW75354   5.081   9.350   5.006
91172SOL    HW175355   5.141   9.283   5.037
91172SOL    HW275356   5.130   9.396   4.937
91173SOL     OW75357   7.259   2.623   0.880
91173SOL    HW175358   7.346   2.584   0.882
91173SOL    HW275359   7.275   2.716   0.864
91174SOL     OW75360  12.414  11.779   1.245
91174SOL    HW175361  12.478  11.725   1.200
91174SOL    HW275362  12.436  11.770   1.338
91175SOL     OW75363  11.233   3.833  14.282
91175SOL    HW175364  11.207   3.897  14.347
91175SOL    HW275365  11.166   3.765  14.286
91176SOL     OW75366   3.203   5.264   1.353
91176SOL    HW175367   3.271   5.325   1.327
91176SOL    HW275368   3.185   5.286   1.444
91177SOL     OW75369   8.012   0.793  12.109
91177SOL    HW175370   8.103   0.807  12.135
91177SOL    HW275371   7.964   0.865  12.149
91178SOL     OW75372   8.671  13.506   1.874
91178SOL    HW175373   8.645  13.415   1.890
91178SOL    HW275374   8.764  13.500   1.854
91179SOL     OW75375  14.188  12.720  13.839
91179SOL    HW175376  14.114  12.766  13.879
91179SOL    HW275377  14.162  12.628  13.838
91180SOL     OW75378   2.079   3.131  11.691
91180SOL    HW175379   2.143   3.160  11.756
91180SOL    HW275380   2.041   3.052  11.729
91181SOL     OW75381   2.075   4.093   2.290
91181SOL    HW175382   2.071   4.184   2.262
91181SOL    HW275383   2.162   4.064   2.265
91182SOL     OW75384   5.173   8.507  10.554
91182SOL    HW175385   5.158   8.596  10.585
91182SOL    HW275386   5.229   8.467  10.620
91183SOL     OW75387   4.568   6.094  12.136
91183SOL    HW175388   4.651   6.093  12.088
91183SOL    HW275389   4.576   6.023  12.199
91184SOL     OW75390  11.102   9.255   7.946
91184SOL    HW175391  11.187   9.268   7.904
91184SOL    HW275392  11.042   9.310   7.897
91185SOL     OW75393   8.276   7.139   0.776
91185SOL    HW175394   8.322   7.194   0.713
91185SOL    HW275395   8.342   7.077   0.807
91186SOL     OW75396   5.862   3.118  11.196
91186SOL    HW175397   5.789   3.147  11.141
91186SOL    HW275398   5.863   3.023  11.188
91187SOL     OW75399  10.872   3.665   8.699
91187SOL    HW175400  10.945   3.630   8.750
91187SOL    HW275401  10.899   3.755   8.678
91188SOL     OW75402   9.851   7.433  13.461
91188SOL    HW175403   9.823   7.522  13.480
91188SOL    HW275404   9.828   7.419  13.369
91189SOL     OW75405  12.836  10.263   5.460
91189SOL    HW175406  12.878  10.263   5.547
91189SOL    HW275407  12.909  10.267   5.399
91190SOL     OW75408   6.985   4.788   4.265
91190SOL    HW175409   6.893   4.764   4.281
91190SOL    HW275410   7.006   4.745   4.182
91191SOL     OW75411   6.162  10.473   3.739
91191SOL    HW175412   6.212  10.394   3.760
91191SOL    HW275413   6.207  10.511   3.664
91192SOL     OW75414   3.746   2.318   8.071
91192SOL    HW175415   3.739   2.390   8.134
91192SOL    HW275416   3.687   2.343   8.000
91193SOL     OW75417   7.739   0.775   4.404
91193SOL    HW175418   7.783   0.841   4.350
91193SOL    HW275419   7.646   0.793   4.394
91194SOL     OW75420   0.869  13.038   7.211
91194SOL    HW175421   0.933  13.105   7.235
91194SOL    HW275422   0.784  13.081   7.217
91195SOL     OW75423   4.390   1.495  13.554
91195SOL    HW175424   4.386   1.589  13.574
91195SOL    HW275425   4.416   1.454  13.636
91196SOL     OW75426  11.101  11.847   5.163
91196SOL    HW175427  11.097  11.771   5.222
91196SOL    HW275428  11.010  11.862   5.137
91197SOL     OW75429   6.178  13.222   9.996
91197SOL    HW175430   6.199  13.197   9.906
91197SOL    HW275431   6.107  13.285   9.988
91198SOL     OW75432   3.656   6.078   3.593
91198SOL    HW175433   3.562   6.082   3.614
91198SOL    HW275434   3.660   6.048   3.503
91199SOL     OW75435   6.148   8.439   4.044
91199SOL    HW175436   6.096   8.422   4.122
91199SOL    HW275437   6.091   8.491   3.987
91200SOL     OW75438   1.757   2.335   1.900
91200SOL    HW175439   1.770   2.333   1.806
91200SOL    HW275440   1.844   2.317   1.937
91201SOL     OW75441  14.152  11.100   3.924
91201SOL    HW175442  14.087  11.126   3.858
91201SOL    HW275443  14.135  11.158   3.998
91202SOL     OW75444   8.362  13.935  10.433
91202SOL    HW175445   8.270  13.914  10.418
91202SOL    HW275446   8.359  14.014  10.488
91203SOL     OW75447  13.780  12.106   9.749
91203SOL    HW175448  13.743  12.184   9.706
91203SOL    HW275449  13.711  12.041   9.744
91204SOL     OW75450  12.187   4.673   6.688
91204SOL    HW175451  12.146   4.679   6.602
91204SOL    HW275452  12.133   4.611   6.737
91205SOL     OW75453   9.561   9.082   5.230
91205SOL    HW175454   9.548   9.066   5.323
91205SOL    HW275455   9.490   9.035   5.186
91206SOL     OW75456   4.830   5.219   7.020
91206SOL    HW175457   4.762   5.264   6.970
91206SOL    HW275458   4.908   5.274   7.008
91207SOL     OW75459  10.526  13.900   0.183
91207SOL    HW175460  10.433  13.913   0.197
91207SOL    HW275461  10.532  13.812   0.144
91208SOL     OW75462   6.451   0.599   2.126
91208SOL    HW175463   6.498   0.679   2.106
91208SOL    HW275464   6.444   0.554   2.041
91209SOL     OW75465  10.278   8.726  13.036
91209SOL    HW175466  10.189   8.736  13.003
91209SOL    HW275467  10.283   8.784  13.112
91210SOL     OW75468   4.877  12.722   7.735
91210SOL    HW175469   4.805  12.721   7.672
91210SOL    HW275470   4.835  12.727   7.821
91211SOL     OW75471  11.967  14.459   2.903
91211SOL    HW175472  11.984  14.428   2.814
91211SOL    HW275473  11.920  14.541   2.891
91212SOL     OW75474   4.925   0.126   6.578
91212SOL    HW175475   4.939   0.033   6.597
91212SOL    HW275476   5.013   0.162   6.568
91213SOL     OW75477   8.689   0.336   9.301
91213SOL    HW175478   8.672   0.429   9.313
91213SOL    HW275479   8.684   0.322   9.207
91214SOL     OW75480   7.244   3.880   7.097
91214SOL    HW175481   7.252   3.793   7.058
91214SOL    HW275482   7.294   3.874   7.179
91215SOL     OW75483   3.905   0.724   9.745
91215SOL    HW175484   3.992   0.712   9.710
91215SOL    HW275485   3.852   0.654   9.706
91216SOL     OW75486   4.010   4.385   2.273
91216SOL    HW175487   4.103   4.407   2.270
91216SOL    HW275488   3.992   4.347   2.187
91217SOL     OW75489  14.241   1.030   9.093
91217SOL    HW175490  14.286   0.947   9.077
91217SOL    HW275491  14.310   1.090   9.119
91218SOL     OW75492  11.744   6.141   9.033
91218SOL    HW175493  11.823   6.091   9.009
91218SOL    HW275494  11.726   6.115   9.123
91219SOL     OW75495   9.413  11.874   7.640
91219SOL    HW175496   9.339  11.894   7.583
91219SOL    HW275497   9.387  11.907   7.726
91220SOL     OW75498   6.309   6.352  13.507
91220SOL    HW175499   6.251   6.391  13.442
91220SOL    HW275500   6.251   6.298  13.561
91221SOL     OW75501   7.688   0.655   3.078
91221SOL    HW175502   7.646   0.741   3.084
91221SOL    HW275503   7.677   0.616   3.164
91222SOL     OW75504   9.954   8.815  12.234
91222SOL    HW175505   9.859   8.803  12.232
91222SOL    HW275506   9.966   8.910  12.240
91223SOL     OW75507  11.500   5.365  13.657
91223SOL    HW175508  11.421   5.312  13.647
91223SOL    HW275509  11.478   5.429  13.724
91224SOL     OW75510  14.569   9.662   7.734
91224SOL    HW175511  14.633   9.661   7.662
91224SOL    HW275512  14.488   9.629   7.694
91225SOL     OW75513   7.120   5.626   1.984
91225SOL    HW175514   7.086   5.552   1.934
91225SOL    HW275515   7.084   5.703   1.940
91226SOL     OW75516  14.437   3.301   5.242
91226SOL    HW175517  14.435   3.349   5.160
91226SOL    HW275518  14.443   3.209   5.216
91227SOL     OW75519   1.629  14.143  11.930
91227SOL    HW175520   1.710  14.148  11.881
91227SOL    HW275521   1.602  14.234  11.942
91228SOL     OW75522  10.891   1.980  11.780
91228SOL    HW175523  10.862   1.990  11.870
91228SOL    HW275524  10.898   2.070  11.746
91229SOL     OW75525  11.303   5.678   6.001
91229SOL    HW175526  11.219   5.637   5.985
91229SOL    HW275527  11.327   5.720   5.918
91230SOL     OW75528   3.082   6.661  11.346
91230SOL    HW175529   3.089   6.672  11.251
91230SOL    HW275530   3.077   6.750  11.380
91231SOL     OW75531   0.312   9.066   0.768
91231SOL    HW175532   0.334   9.132   0.703
91231SOL    HW275533   0.344   9.103   0.851
91232SOL     OW75534  11.334   3.095  14.115
91232SOL    HW175535  11.253   3.128  14.152
91232SOL    HW275536  11.307   3.021  14.060
91233SOL     OW75537  13.412   5.534   2.646
91233SOL    HW175538  13.447   5.618   2.619
91233SOL    HW275539  13.327   5.554   2.683
91234SOL     OW75540  11.918  14.186  11.019
91234SOL    HW175541  11.844  14.148  10.972
91234SOL    HW275542  11.880  14.225  11.097
91235SOL     OW75543   5.375   4.249   8.610
91235SOL    HW175544   5.427   4.301   8.548
91235SOL    HW275545   5.425   4.253   8.691
91236SOL     OW75546   1.735   2.822   3.566
91236SOL    HW175547   1.706   2.836   3.476
91236SOL    HW275548   1.760   2.910   3.597
91237SOL     OW75549   8.094  12.070   9.838
91237SOL    HW175550   8.066  12.124   9.764
91237SOL    HW275551   8.155  12.125   9.887
91238SOL     OW75552   8.990   4.973  14.732
91238SOL    HW175553   9.080   4.983  14.701
91238SOL    HW275554   8.936   4.974  14.653
91239SOL     OW75555   4.846   8.300   0.776
91239SOL    HW175556   4.878   8.357   0.846
91239SOL    HW275557   4.877   8.212   0.801
91240SOL     OW75558  11.340   4.588  12.123
91240SOL    HW175559  11.308   4.616  12.037
91240SOL    HW275560  11.434   4.610  12.122
91241SOL     OW75561   3.161  12.920   5.553
91241SOL    HW175562   3.253  12.944   5.545
91241SOL    HW275563   3.123  12.989   5.608
91242SOL     OW75564  11.444   7.962   2.181
91242SOL    HW175565  11.403   7.876   2.173
91242SOL    HW275566  11.415   8.010   2.104
91243SOL     OW75567   2.526   8.652   7.066
91243SOL    HW175568   2.447   8.599   7.059
91243SOL    HW275569   2.598   8.589   7.067
91244SOL     OW75570   0.371   4.090   1.142
91244SOL    HW175571   0.296   4.039   1.113
91244SOL    HW275572   0.387   4.061   1.232
91245SOL     OW75573  10.433  11.652  13.120
91245SOL    HW175574  10.357  11.649  13.062
91245SOL    HW275575  10.413  11.590  13.190
91246SOL     OW75576   8.358  10.229   3.694
91246SOL    HW175577   8.358  10.179   3.612
91246SOL    HW275578   8.451  10.248   3.710
91247SOL     OW75579   1.113  10.593  13.096
91247SOL    HW175580   1.110  10.656  13.025
91247SOL    HW275581   1.177  10.629  13.158
91248SOL     OW75582   3.582  10.851  13.836
91248SOL    HW175583   3.633  10.771  13.829
91248SOL    HW275584   3.644  10.921  13.815
91249SOL     OW75585  10.278   0.084   3.894
91249SOL    HW175586  10.193   0.039   3.893
91249SOL    HW275587  10.255   0.177   3.889
91250SOL     OW75588  14.652   3.622   5.230
91250SOL    HW175589  14.663   3.579   5.315
91250SOL    HW275590  14.557   3.620   5.215
91251SOL     OW75591  12.951   1.944  12.799
91251SOL    HW175592  12.972   1.972  12.710
91251SOL    HW275593  12.953   2.025  12.850
91252SOL     OW75594   1.835  12.961   1.157
91252SOL    HW175595   1.786  12.879   1.159
91252SOL    HW275596   1.869  12.971   1.246
91253SOL     OW75597   9.787   7.100   6.354
91253SOL    HW175598   9.871   7.104   6.307
91253SOL    HW275599   9.740   7.027   6.314
91254SOL     OW75600  13.886   7.097   9.820
91254SOL    HW175601  13.947   7.155   9.864
91254SOL    HW275602  13.912   7.009   9.848
91255SOL     OW75603   0.895  11.348  10.666
91255SOL    HW175604   0.980  11.336  10.707
91255SOL    HW275605   0.861  11.430  10.703
91256SOL     OW75606   4.174  12.955   1.289
91256SOL    HW175607   4.141  13.045   1.298
91256SOL    HW275608   4.215  12.936   1.373
91257SOL     OW75609   3.820   0.022  10.664
91257SOL    HW175610   3.743   0.025  10.722
91257SOL    HW275611   3.868  14.821  10.694
91258SOL     OW75612  11.670  11.360   9.171
91258SOL    HW175613  11.653  11.422   9.241
91258SOL    HW275614  11.623  11.281   9.197
91259SOL     OW75615   0.809  11.037   3.875
91259SOL    HW175616   0.754  11.105   3.836
91259SOL    HW275617   0.840  10.985   3.801
91260SOL     OW75618   5.366   9.174  14.771
91260SOL    HW175619   5.426   9.249  14.765
91260SOL    HW275620   5.371   9.148  14.863
91261SOL     OW75621   0.030   3.870  14.757
91261SOL    HW175622   0.081   3.950  14.767
91261SOL    HW275623  14.866   3.856  14.843
91262SOL     OW75624  14.809   1.337   1.231
91262SOL    HW175625  14.721   1.298   1.233
91262SOL    HW275626  14.795   1.428   1.260
91263SOL     OW75627   1.556   6.680  11.300
91263SOL    HW175628   1.510   6.746  11.353
91263SOL    HW275629   1.648   6.694  11.321
91264SOL     OW75630   7.687   4.403   3.282
91264SOL    HW175631   7.687   4.498   3.291
91264SOL    HW275632   7.682   4.388   3.188
91265SOL     OW75633  13.210   4.593   5.775
91265SOL    HW175634  13.149   4.572   5.845
91265SOL    HW275635  13.262   4.513   5.764
91266SOL     OW75636   6.604   9.403   6.456
91266SOL    HW175637   6.578   9.370   6.369
91266SOL    HW275638   6.622   9.324   6.507
91267SOL     OW75639  14.058   9.975   1.693
91267SOL    HW175640  14.058  10.053   1.748
91267SOL    HW275641  14.118   9.996   1.622
91268SOL     OW75642   2.020  12.490  11.155
91268SOL    HW175643   1.995  12.579  11.179
91268SOL    HW275644   1.961  12.467  11.083
91269SOL     OW75645   7.252   1.576  12.625
91269SOL    HW175646   7.281   1.660  12.663
91269SOL    HW275647   7.194   1.539  12.691
91270SOL     OW75648  14.037  13.655   0.603
91270SOL    HW175649  13.953  13.618   0.576
91270SOL    HW275650  14.065  13.707   0.527
91271SOL     OW75651   9.270   4.260   8.787
91271SOL    HW175652   9.175   4.261   8.802
91271SOL    HW275653   9.279   4.265   8.692
91272SOL     OW75654  10.318  12.043   1.270
91272SOL    HW175655  10.251  11.979   1.245
91272SOL    HW275656  10.278  12.094   1.341
91273SOL     OW75657  10.021   3.287  11.087
91273SOL    HW175658   9.987   3.344  11.156
91273SOL    HW275659  10.041   3.347  11.015
91274SOL     OW75660   8.705   7.046   1.748
91274SOL    HW175661   8.709   7.030   1.842
91274SOL    HW275662   8.688   6.959   1.710
91275SOL     OW75663   4.121   4.228   9.861
91275SOL    HW175664   4.172   4.249   9.783
91275SOL    HW275665   4.187   4.206   9.927
91276SOL     OW75666   1.042   3.255  10.009
91276SOL    HW175667   1.046   3.177   9.954
91276SOL    HW275668   0.961   3.298   9.984
91277SOL     OW75669  11.568  11.358  12.406
91277SOL    HW175670  11.576  11.343  12.500
91277SOL    HW275671  11.629  11.430  12.388
91278SOL     OW75672   1.388   3.426   3.136
91278SOL    HW175673   1.298   3.392   3.132
91278SOL    HW275674   1.442   3.354   3.104
91279SOL     OW75675  12.569   0.090   9.987
91279SOL    HW175676  12.643   0.121  10.039
91279SOL    HW275677  12.557  14.875  10.012
91280SOL     OW75678  11.090   4.155   0.158
91280SOL    HW175679  11.002   4.144   0.194
91280SOL    HW275680  11.126   4.067   0.156
91281SOL     OW75681   8.946   1.266   0.434
91281SOL    HW175682   8.991   1.264   0.349
91281SOL    HW275683   9.004   1.217   0.492
91282SOL     OW75684  11.124   7.205   1.618
91282SOL    HW175685  11.045   7.258   1.614
91282SOL    HW275686  11.172   7.228   1.539
91283SOL     OW75687  10.641   1.402   7.283
91283SOL    HW175688  10.655   1.489   7.245
91283SOL    HW275689  10.571   1.364   7.230
91284SOL     OW75690  13.438   2.649  14.070
91284SOL    HW175691  13.390   2.656  13.988
91284SOL    HW275692  13.466   2.558  14.074
91285SOL     OW75693   2.150  14.790   4.564
91285SOL    HW175694   2.070  14.759   4.607
91285SOL    HW275695   2.153   0.007   4.584
91286SOL     OW75696  13.677   2.455  14.162
91286SOL    HW175697  13.602   2.404  14.131
91286SOL    HW275698  13.715   2.493  14.083
91287SOL     OW75699   5.675   2.704   1.307
91287SOL    HW175700   5.733   2.763   1.259
91287SOL    HW275701   5.628   2.761   1.368
91288SOL     OW75702  14.729   9.138   2.387
91288SOL    HW175703  14.670   9.079   2.339
91288SOL    HW275704  14.768   9.194   2.320
91289SOL     OW75705  12.810   0.003   3.721
91289SOL    HW175706  12.771   0.055   3.792
91289SOL    HW275707  12.752  14.804   3.712
91290SOL     OW75708   8.967   7.355   8.629
91290SOL    HW175709   9.033   7.408   8.585
91290SOL    HW275710   8.942   7.289   8.565
91291SOL     OW75711   9.971  14.107  11.972
91291SOL    HW175712   9.884  14.072  11.989
91291SOL    HW275713   9.964  14.150  11.887
91292SOL     OW75714  12.821   6.274   5.491
91292SOL    HW175715  12.879   6.265   5.416
91292SOL    HW275716  12.736   6.242   5.460
91293SOL     OW75717   1.635   6.448   2.906
91293SOL    HW175718   1.704   6.515   2.905
91293SOL    HW275719   1.633   6.416   2.816
91294SOL     OW75720   9.110   6.599   9.868
91294SOL    HW175721   9.187   6.623   9.817
91294SOL    HW275722   9.055   6.677   9.868
91295SOL     OW75723   0.368   4.728  14.383
91295SOL    HW175724   0.403   4.650  14.425
91295SOL    HW275725   0.441   4.791  14.384
91296SOL     OW75726  14.653   4.356   7.072
91296SOL    HW175727  14.615   4.296   7.136
91296SOL    HW275728  14.598   4.347   6.995
91297SOL     OW75729  13.940  10.414  11.898
91297SOL    HW175730  13.852  10.450  11.905
91297SOL    HW275731  13.948  10.385  11.807
91298SOL     OW75732   3.799  12.004  11.942
91298SOL    HW175733   3.734  12.053  11.992
91298SOL    HW275734   3.766  11.914  11.941
91299SOL     OW75735   8.596   4.471   0.544
91299SOL    HW175736   8.629   4.382   0.533
91299SOL    HW275737   8.555   4.492   0.460
91300SOL     OW75738   6.732   2.073  10.786
91300SOL    HW175739   6.731   2.064  10.690
91300SOL    HW275740   6.674   2.002  10.816
91301SOL     OW75741   3.665  12.461   0.985
91301SOL    HW175742   3.707  12.405   0.921
91301SOL    HW275743   3.733  12.523   1.011
91302SOL     OW75744   9.306   3.772  13.225
91302SOL    HW175745   9.257   3.701  13.184
91302SOL    HW275746   9.258   3.791  13.306
91303SOL     OW75747   2.458   6.325   8.846
91303SOL    HW175748   2.536   6.277   8.873
91303SOL    HW275749   2.385   6.271   8.879
91304SOL     OW75750   6.122   8.964   9.145
91304SOL    HW175751   6.046   8.965   9.204
91304SOL    HW275752   6.190   9.012   9.193
91305SOL     OW75753   4.139   9.296   4.767
91305SOL    HW175754   4.180   9.209   4.761
91305SOL    HW275755   4.103   9.300   4.855
91306SOL     OW75756   7.277   8.214   5.988
91306SOL    HW175757   7.205   8.205   6.051
91306SOL    HW275758   7.339   8.273   6.030
91307SOL     OW75759  10.952   0.215   2.566
91307SOL    HW175760  10.978   0.289   2.510
91307SOL    HW275761  10.857   0.209   2.555
91308SOL     OW75762   1.226  14.227  11.345
91308SOL    HW175763   1.289  14.210  11.275
91308SOL    HW275764   1.170  14.296  11.309
91309SOL     OW75765   4.700  11.012   1.127
91309SOL    HW175766   4.791  11.028   1.150
91309SOL    HW275767   4.650  11.068   1.187
91310SOL     OW75768   0.122  11.336   2.189
91310SOL    HW175769   0.166  11.421   2.187
91310SOL    HW275770   0.152  11.292   2.109
91311SOL     OW75771  10.771  14.379   7.920
91311SOL    HW175772  10.832  14.432   7.868
91311SOL    HW275773  10.748  14.434   7.994
91312SOL     OW75774   4.803   8.398   7.158
91312SOL    HW175775   4.799   8.304   7.177
91312SOL    HW275776   4.828   8.438   7.242
91313SOL     OW75777  12.234   8.002   7.980
91313SOL    HW175778  12.221   7.939   8.050
91313SOL    HW275779  12.305   7.965   7.927
91314SOL     OW75780  12.403   8.941   6.207
91314SOL    HW175781  12.418   8.986   6.291
91314SOL    HW275782  12.477   8.880   6.200
91315SOL     OW75783  14.011   5.498  12.964
91315SOL    HW175784  14.050   5.515  13.050
91315SOL    HW275785  13.952   5.571  12.950
91316SOL     OW75786  13.662   9.731  12.579
91316SOL    HW175787  13.723   9.666  12.613
91316SOL    HW275788  13.625   9.773  12.657
91317SOL     OW75789  14.511   7.627   2.176
91317SOL    HW175790  14.433   7.583   2.143
91317SOL    HW275791  14.528   7.697   2.112
91318SOL     OW75792   0.989  11.673   7.562
91318SOL    HW175793   0.998  11.578   7.550
91318SOL    HW275794   0.899  11.691   7.534
91319SOL     OW75795  10.837   5.847   5.765
91319SOL    HW175796  10.917   5.795   5.766
91319SOL    HW275797  10.842   5.897   5.683
91320SOL     OW75798  11.128   7.208   3.411
91320SOL    HW175799  11.180   7.141   3.368
91320SOL    HW275800  11.174   7.290   3.394
91321SOL     OW75801   1.049   7.925   3.348
91321SOL    HW175802   0.965   7.952   3.311
91321SOL    HW275803   1.029   7.845   3.397
91322SOL     OW75804  14.348   9.541   1.213
91322SOL    HW175805  14.343   9.467   1.153
91322SOL    HW275806  14.309   9.614   1.165
91323SOL     OW75807  12.773   1.214  14.224
91323SOL    HW175808  12.694   1.172  14.257
91323SOL    HW275809  12.833   1.216  14.298
91324SOL     OW75810   3.413   3.916   8.237
91324SOL    HW175811   3.443   3.838   8.189
91324SOL    HW275812   3.320   3.922   8.216
91325SOL     OW75813  14.166   3.457  13.370
91325SOL    HW175814  14.121   3.402  13.433
91325SOL    HW275815  14.127   3.544  13.381
91326SOL     OW75816   1.599   0.138   6.432
91326SOL    HW175817   1.575   0.046   6.444
91326SOL    HW275818   1.692   0.136   6.413
91327SOL     OW75819  12.898  12.445  11.525
91327SOL    HW175820  12.861  12.402  11.602
91327SOL    HW275821  12.826  12.450  11.463
91328SOL     OW75822   6.347   3.156  10.116
91328SOL    HW175823   6.281   3.182  10.180
91328SOL    HW275824   6.326   3.208  10.038
91329SOL     OW75825  11.586   7.565  10.072
91329SOL    HW175826  11.541   7.643  10.103
91329SOL    HW275827  11.533   7.534   9.999
91330SOL     OW75828   8.957  13.496  12.384
91330SOL    HW175829   9.007  13.447  12.449
91330SOL    HW275830   8.891  13.543  12.435
91331SOL     OW75831   9.579   5.033   8.752
91331SOL    HW175832   9.648   5.076   8.701
91331SOL    HW275833   9.550   4.960   8.696
91332SOL     OW75834   8.049   0.109   3.255
91332SOL    HW175835   8.117   0.049   3.286
91332SOL    HW275836   7.995   0.056   3.197
91333SOL     OW75837   1.973   2.060   7.798
91333SOL    HW175838   2.006   1.975   7.826
91333SOL    HW275839   2.004   2.070   7.708
91334SOL     OW75840   9.893   4.508   5.576
91334SOL    HW175841   9.903   4.584   5.633
91334SOL    HW275842   9.945   4.440   5.618
91335SOL     OW75843   8.961   4.365   9.119
91335SOL    HW175844   8.867   4.383   9.117
91335SOL    HW275845   8.981   4.328   9.033
91336SOL     OW75846   0.348   6.368  12.935
91336SOL    HW175847   0.383   6.346  13.021
91336SOL    HW275848   0.333   6.463  12.939
91337SOL     OW75849   0.492   5.478   6.429
91337SOL    HW175850   0.573   5.464   6.378
91337SOL    HW275851   0.517   5.542   6.496
91338SOL     OW75852   3.445   3.876   0.627
91338SOL    HW175853   3.453   3.971   0.637
91338SOL    HW275854   3.350   3.861   0.617
91339SOL     OW75855   0.623   0.158  14.495
91339SOL    HW175856   0.570   0.216  14.439
91339SOL    HW275857   0.690   0.123  14.437
91340SOL     OW75858  11.735   3.765   5.726
91340SOL    HW175859  11.761   3.699   5.663
91340SOL    HW275860  11.640   3.771   5.717
91341SOL     OW75861   0.542  10.774  11.264
91341SOL    HW175862   0.456  10.730  11.265
91341SOL    HW275863   0.601  10.711  11.305
91342SOL     OW75864  12.207  12.990   6.625
91342SOL    HW175865  12.232  12.992   6.533
91342SOL    HW275866  12.145  13.063   6.634
91343SOL     OW75867   3.988   2.360   4.112
91343SOL    HW175868   3.985   2.300   4.037
91343SOL    HW275869   3.927   2.322   4.175
91344SOL     OW75870  12.083   1.344   9.854
91344SOL    HW175871  12.109   1.300   9.936
91344SOL    HW275872  11.992   1.320   9.842
91345SOL     OW75873   0.219   2.321   5.366
91345SOL    HW175874   0.219   2.416   5.376
91345SOL    HW275875   0.151   2.291   5.427
91346SOL     OW75876  11.595   2.123   5.446
91346SOL    HW175877  11.597   2.143   5.540
91346SOL    HW275878  11.654   2.187   5.407
91347SOL     OW75879   3.088   3.572   5.992
91347SOL    HW175880   3.094   3.623   5.911
91347SOL    HW275881   3.027   3.621   6.047
91348SOL     OW75882   7.636   1.736   2.147
91348SOL    HW175883   7.629   1.793   2.224
91348SOL    HW275884   7.683   1.659   2.179
91349SOL     OW75885   4.323   4.096   5.696
91349SOL    HW175886   4.291   4.162   5.634
91349SOL    HW275887   4.357   4.026   5.640
91350SOL     OW75888  12.569   2.846   4.911
91350SOL    HW175889  12.550   2.767   4.962
91350SOL    HW275890  12.604   2.908   4.975
91351SOL     OW75891   7.894   8.232   7.632
91351SOL    HW175892   7.896   8.209   7.540
91351SOL    HW275893   7.968   8.291   7.644
91352SOL     OW75894   2.336   5.647  12.992
91352SOL    HW175895   2.347   5.695  12.910
91352SOL    HW275896   2.347   5.555  12.968
91353SOL     OW75897  10.327   3.495   4.180
91353SOL    HW175898  10.418   3.493   4.208
91353SOL    HW275899  10.322   3.570   4.121
91354SOL     OW75900  13.565   1.163   5.395
91354SOL    HW175901  13.570   1.071   5.372
91354SOL    HW275902  13.489   1.196   5.347
91355SOL     OW75903   5.113   5.747  13.860
91355SOL    HW175904   5.191   5.717  13.906
91355SOL    HW275905   5.147   5.788  13.780
91356SOL     OW75906   6.300   6.702   8.403
91356SOL    HW175907   6.229   6.752   8.362
91356SOL    HW275908   6.372   6.706   8.339
91357SOL     OW75909  14.438   4.897  11.687
91357SOL    HW175910  14.387   4.974  11.712
91357SOL    HW275911  14.406   4.827  11.746
91358SOL     OW75912   8.004  12.640   2.126
91358SOL    HW175913   7.943  12.569   2.103
91358SOL    HW275914   7.989  12.655   2.220
91359SOL     OW75915   6.853   9.707  13.924
91359SOL    HW175916   6.850   9.719  13.830
91359SOL    HW275917   6.913   9.775  13.955
91360SOL     OW75918  13.362   3.133   5.677
91360SOL    HW175919  13.397   3.221   5.660
91360SOL    HW275920  13.399   3.078   5.608
91361SOL     OW75921   7.029  11.357   6.012
91361SOL    HW175922   7.099  11.399   5.962
91361SOL    HW275923   7.043  11.263   5.999
91362SOL     OW75924  10.322  10.960   8.243
91362SOL    HW175925  10.274  10.943   8.162
91362SOL    HW275926  10.318  10.877   8.292
91363SOL     OW75927   4.348  10.873  13.833
91363SOL    HW175928   4.287  10.944  13.813
91363SOL    HW275929   4.324  10.803  13.773
91364SOL     OW75930   6.783   1.086   2.522
91364SOL    HW175931   6.689   1.091   2.538
91364SOL    HW275932   6.791   1.091   2.426
91365SOL     OW75933   6.220  13.527   5.082
91365SOL    HW175934   6.136  13.484   5.063
91365SOL    HW275935   6.268  13.523   5.000
91366SOL     OW75936   3.838   7.637  12.061
91366SOL    HW175937   3.887   7.719  12.073
91366SOL    HW275938   3.904   7.574  12.030
91367SOL     OW75939   7.211   2.861  10.989
91367SOL    HW175940   7.215   2.799  10.917
91367SOL    HW275941   7.148   2.823  11.050
91368SOL     OW75942  10.239   4.259  13.892
91368SOL    HW175943  10.174   4.229  13.828
91368SOL    HW275944  10.264   4.347  13.861
91369SOL     OW75945  10.840   6.307   8.199
91369SOL    HW175946  10.865   6.247   8.269
91369SOL    HW275947  10.772   6.261   8.150
91370SOL     OW75948   3.815   8.418   8.082
91370SOL    HW175949   3.727   8.446   8.058
91370SOL    HW275950   3.836   8.350   8.019
91371SOL     OW75951  14.063   1.945   8.349
91371SOL    HW175952  14.072   1.864   8.299
91371SOL    HW275953  14.153   1.971   8.370
91372SOL     OW75954  13.048  10.908   5.994
91372SOL    HW175955  12.995  10.987   5.979
91372SOL    HW275956  12.988  10.847   6.036
91373SOL     OW75957  10.158  14.019   9.407
91373SOL    HW175958  10.095  14.073   9.360
91373SOL    HW275959  10.109  13.984   9.481
91374SOL     OW75960  10.407   5.718   7.225
91374SOL    HW175961  10.430   5.639   7.175
91374SOL    HW275962  10.483   5.733   7.280
91375SOL     OW75963   7.859   6.499  12.946
91375SOL    HW175964   7.888   6.583  12.911
91375SOL    HW275965   7.764   6.501  12.936
91376SOL     OW75966   1.884  10.409   8.192
91376SOL    HW175967   1.829  10.395   8.269
91376SOL    HW275968   1.973  10.418   8.227
91377SOL     OW75969   7.988  10.272   5.743
91377SOL    HW175970   7.917  10.239   5.798
91377SOL    HW275971   8.052  10.202   5.741
91378SOL     OW75972  11.875  12.368   2.221
91378SOL    HW175973  11.905  12.419   2.145
91378SOL    HW275974  11.868  12.279   2.189
91379SOL     OW75975   8.023   9.509  13.746
91379SOL    HW175976   8.070   9.426  13.752
91379SOL    HW275977   8.087   9.572  13.712
91380SOL     OW75978   0.384  12.880  11.419
91380SOL    HW175979   0.297  12.916  11.406
91380SOL    HW275980   0.442  12.956  11.421
91381SOL     OW75981   0.406  13.761  12.974
91381SOL    HW175982   0.323  13.783  12.931
91381SOL    HW275983   0.400  13.802  13.061
91382SOL     OW75984   5.007  11.772   8.358
91382SOL    HW175985   5.014  11.867   8.361
91382SOL    HW275986   4.979  11.754   8.268
91383SOL     OW75987   5.858  10.675  13.357
91383SOL    HW175988   5.830  10.607  13.418
91383SOL    HW275989   5.780  10.695  13.305
91384SOL     OW75990   7.277   8.734  10.832
91384SOL    HW175991   7.182   8.747  10.827
91384SOL    HW275992   7.289   8.639  10.831
91385SOL     OW75993  11.149   5.952   8.517
91385SOL    HW175994  11.242   5.929   8.517
91385SOL    HW275995  11.144   6.034   8.566
91386SOL     OW75996   6.337  10.581   1.794
91386SOL    HW175997   6.334  10.545   1.883
91386SOL    HW275998   6.340  10.504   1.738
91387SOL     OW75999   4.269  13.116  14.782
91387SOL    HW176000   4.309  13.037  14.819
91387SOL    HW276001   4.298  13.117  14.691
91388SOL     OW76002  12.330   3.369  12.056
91388SOL    HW176003  12.271   3.295  12.048
91388SOL    HW276004  12.414   3.330  12.081
91389SOL     OW76005   4.937   8.010   0.589
91389SOL    HW176006   4.918   8.095   0.548
91389SOL    HW276007   5.022   7.985   0.554
91390SOL     OW76008  10.394   1.993   3.982
91390SOL    HW176009  10.439   1.957   3.906
91390SOL    HW276010  10.453   2.060   4.015
91391SOL     OW76011   9.416  13.300   3.397
91391SOL    HW176012   9.459  13.382   3.374
91391SOL    HW276013   9.481  13.232   3.378
91392SOL     OW76014  14.576  13.048   7.064
91392SOL    HW176015  14.631  13.009   6.997
91392SOL    HW276016  14.489  13.012   7.049
91393SOL     OW76017   3.064   2.643   2.514
91393SOL    HW176018   3.123   2.701   2.563
91393SOL    HW276019   2.987   2.635   2.570
91394SOL     OW76020  12.097   2.537   8.668
91394SOL    HW176021  12.190   2.561   8.672
91394SOL    HW276022  12.097   2.443   8.652
91395SOL     OW76023  11.696  10.687   6.666
91395SOL    HW176024  11.786  10.672   6.637
91395SOL    HW276025  11.699  10.676   6.761
91396SOL     OW76026   5.685   9.943   6.172
91396SOL    HW176027   5.779   9.955   6.191
91396SOL    HW276028   5.663   9.859   6.211
91397SOL     OW76029   7.755   2.793   8.787
91397SOL    HW176030   7.792   2.803   8.875
91397SOL    HW276031   7.762   2.880   8.749
91398SOL     OW76032   2.413  12.434   1.276
91398SOL    HW176033   2.337  12.455   1.329
91398SOL    HW276034   2.382  12.368   1.214
91399SOL     OW76035   9.133   8.979   7.169
91399SOL    HW176036   9.128   9.023   7.084
91399SOL    HW276037   9.227   8.964   7.182
91400SOL     OW76038   8.421  14.596  11.745
91400SOL    HW176039   8.449  14.548  11.667
91400SOL    HW276040   8.491  14.659  11.761
91401SOL     OW76041   0.119  10.795  11.062
91401SOL    HW176042   0.060  10.804  10.987
91401SOL    HW276043   0.091  10.715  11.106
91402SOL     OW76044  13.691   4.250  12.217
91402SOL    HW176045  13.650   4.222  12.299
91402SOL    HW276046  13.726   4.337  12.237
91403SOL     OW76047   7.397   1.309   4.213
91403SOL    HW176048   7.355   1.365   4.278
91403SOL    HW276049   7.418   1.368   4.140
91404SOL     OW76050   5.708  13.275  14.337
91404SOL    HW176051   5.644  13.298  14.270
91404SOL    HW276052   5.710  13.179  14.336
91405SOL     OW76053   8.707   3.497   8.582
91405SOL    HW176054   8.759   3.429   8.624
91405SOL    HW276055   8.763   3.528   8.510
91406SOL     OW76056   3.062   0.823  10.587
91406SOL    HW176057   2.985   0.823  10.530
91406SOL    HW276058   3.029   0.853  10.671
91407SOL     OW76059   2.022   9.085   8.556
91407SOL    HW176060   2.093   9.033   8.594
91407SOL    HW276061   2.000   9.039   8.475
91408SOL     OW76062   7.289  14.584   4.168
91408SOL    HW176063   7.350  14.622   4.232
91408SOL    HW276064   7.342  14.521   4.120
91409SOL     OW76065   8.973  10.998   1.741
91409SOL    HW176066   8.937  10.909   1.745
91409SOL    HW276067   9.015  11.002   1.655
91410SOL     OW76068   2.686  14.371   3.024
91410SOL    HW176069   2.680  14.281   2.990
91410SOL    HW276070   2.615  14.377   3.088
91411SOL     OW76071  11.679   5.807   5.411
91411SOL    HW176072  11.602   5.770   5.367
91411SOL    HW276073  11.655   5.808   5.504
91412SOL     OW76074   7.280  12.786  10.360
91412SOL    HW176075   7.298  12.709  10.307
91412SOL    HW276076   7.337  12.854  10.323
91413SOL     OW76077   6.618   1.220   3.207
91413SOL    HW176078   6.698   1.178   3.177
91413SOL    HW276079   6.621   1.211   3.302
91414SOL     OW76080   9.863   2.996   1.804
91414SOL    HW176081   9.828   3.031   1.886
91414SOL    HW276082   9.958   2.989   1.819
91415SOL     OW76083   3.770  10.197   5.316
91415SOL    HW176084   3.860  10.164   5.325
91415SOL    HW276085   3.720  10.147   5.381
91416SOL     OW76086   1.646  13.169   6.920
91416SOL    HW176087   1.699  13.221   6.861
91416SOL    HW276088   1.698  13.090   6.936
91417SOL     OW76089   8.472   3.792   2.654
91417SOL    HW176090   8.434   3.765   2.738
91417SOL    HW276091   8.420   3.746   2.588
91418SOL     OW76092  14.481  10.954  12.042
91418SOL    HW176093  14.494  10.878  11.984
91418SOL    HW276094  14.410  11.003  12.001
91419SOL     OW76095   9.232   6.905   6.709
91419SOL    HW176096   9.153   6.854   6.727
91419SOL    HW276097   9.244   6.958   6.788
91420SOL     OW76098   2.965  14.336  14.376
91420SOL    HW176099   2.872  14.312  14.376
91420SOL    HW276100   2.966  14.426  14.343
91421SOL     OW76101   5.442  13.883   5.586
91421SOL    HW176102   5.523  13.895   5.537
91421SOL    HW276103   5.379  13.939   5.541
91422SOL     OW76104   1.290   2.136   6.164
91422SOL    HW176105   1.264   2.163   6.252
91422SOL    HW276106   1.291   2.040   6.167
91423SOL     OW76107   4.471  12.077  12.533
91423SOL    HW176108   4.383  12.048  12.509
91423SOL    HW276109   4.462  12.170  12.550
91424SOL     OW76110   9.248   8.643   7.487
91424SOL    HW176111   9.264   8.549   7.492
91424SOL    HW276112   9.208   8.656   7.401
91425SOL     OW76113  13.361   5.723   9.499
91425SOL    HW176114  13.407   5.659   9.554
91425SOL    HW276115  13.328   5.788   9.561
91426SOL     OW76116   0.992   3.855   3.204
91426SOL    HW176117   0.935   3.899   3.141
91426SOL    HW276118   1.072   3.906   3.204
91427SOL     OW76119  14.720  13.615   1.547
91427SOL    HW176120  14.705  13.610   1.641
91427SOL    HW276121  14.674  13.539   1.511
91428SOL     OW76122   6.612   5.945  14.734
91428SOL    HW176123   6.546   5.980  14.674
91428SOL    HW276124   6.562   5.896  14.799
91429SOL     OW76125  12.256   0.705   6.437
91429SOL    HW176126  12.283   0.695   6.528
91429SOL    HW276127  12.173   0.752   6.441
91430SOL     OW76128   8.452  10.175  13.399
91430SOL    HW176129   8.411  10.152  13.482
91430SOL    HW276130   8.496  10.258  13.416
91431SOL     OW76131   4.223   5.247   9.723
91431SOL    HW176132   4.257   5.335   9.738
91431SOL    HW276133   4.284   5.208   9.661
91432SOL     OW76134  10.858   5.455   6.890
91432SOL    HW176135  10.838   5.520   6.957
91432SOL    HW276136  10.954   5.449   6.891
91433SOL     OW76137   5.136   0.015  14.692
91433SOL    HW176138   5.082  14.813  14.707
91433SOL    HW276139   5.129   0.065  14.773
91434SOL     OW76140  11.028  12.853  11.752
91434SOL    HW176141  11.028  12.858  11.657
91434SOL    HW276142  11.096  12.789  11.773
91435SOL     OW76143  11.390   6.360   1.611
91435SOL    HW176144  11.298   6.333   1.615
91435SOL    HW276145  11.402   6.391   1.521
91436SOL     OW76146  11.070   6.921   6.739
91436SOL    HW176147  11.026   6.973   6.672
91436SOL    HW276148  11.163   6.923   6.714
91437SOL     OW76149  14.182  13.340   0.536
91437SOL    HW176150  14.157  13.420   0.582
91437SOL    HW276151  14.124  13.336   0.461
91438SOL     OW76152   6.683   5.312  11.048
91438SOL    HW176153   6.707   5.404  11.055
91438SOL    HW276154   6.766   5.265  11.053
91439SOL     OW76155   1.199  10.401  14.791
91439SOL    HW176156   1.184  10.306  14.793
91439SOL    HW276157   1.143  10.435  14.861
91440SOL     OW76158   7.029   1.790   2.195
91440SOL    HW176159   6.991   1.864   2.241
91440SOL    HW276160   7.004   1.714   2.247
91441SOL     OW76161   0.492   0.615   5.293
91441SOL    HW176162   0.441   0.570   5.226
91441SOL    HW276163   0.433   0.684   5.325
91442SOL     OW76164  13.229   8.596   2.287
91442SOL    HW176165  13.324   8.609   2.280
91442SOL    HW276166  13.218   8.501   2.298
91443SOL     OW76167   2.555   1.118   9.027
91443SOL    HW176168   2.491   1.082   9.089
91443SOL    HW276169   2.629   1.144   9.083
91444SOL     OW76170   6.079   9.231   8.449
91444SOL    HW176171   6.105   9.313   8.407
91444SOL    HW276172   6.028   9.186   8.382
91445SOL     OW76173   0.815  12.130  13.007
91445SOL    HW176174   0.753  12.086  13.065
91445SOL    HW276175   0.829  12.068  12.935
91446SOL     OW76176   0.103  12.274   2.159
91446SOL    HW176177   0.117  12.360   2.118
91446SOL    HW276178   0.008  12.268   2.169
91447SOL     OW76179   2.400   1.650  10.334
91447SOL    HW176180   2.408   1.744  10.348
91447SOL    HW276181   2.356   1.642  10.249
91448SOL     OW76182   6.118   5.999   9.957
91448SOL    HW176183   6.113   5.916   9.909
91448SOL    HW276184   6.030   6.037   9.949
91449SOL     OW76185   4.750   3.344  14.407
91449SOL    HW176186   4.699   3.417  14.371
91449SOL    HW276187   4.820   3.387  14.457
91450SOL     OW76188   1.893  11.988   0.088
91450SOL    HW176189   1.866  12.055   0.025
91450SOL    HW276190   1.811  11.960   0.129
91451SOL     OW76191  14.321   0.616   6.441
91451SOL    HW176192  14.251   0.598   6.378
91451SOL    HW276193  14.294   0.569   6.520
91452SOL     OW76194  11.596  10.982  11.768
91452SOL    HW176195  11.523  10.925  11.745
91452SOL    HW276196  11.586  11.057  11.710
91453SOL     OW76197   9.989  10.452   0.173
91453SOL    HW176198   9.990  10.413   0.261
91453SOL    HW276199   9.944  10.535   0.184
91454SOL     OW76200  14.747   5.476  10.187
91454SOL    HW176201  14.822   5.532  10.206
91454SOL    HW276202  14.785   5.398  10.146
91455SOL     OW76203   9.969  11.108   1.650
91455SOL    HW176204   9.971  11.187   1.704
91455SOL    HW276205  10.056  11.106   1.608
91456SOL     OW76206   6.636   4.885  10.501
91456SOL    HW176207   6.686   4.955  10.458
91456SOL    HW276208   6.593   4.928  10.575
91457SOL     OW76209   6.543  14.232  14.573
91457SOL    HW176210   6.599  14.155  14.562
91457SOL    HW276211   6.545  14.251  14.667
91458SOL     OW76212   5.554   3.024   6.780
91458SOL    HW176213   5.648   3.040   6.777
91458SOL    HW276214   5.546   2.933   6.806
91459SOL     OW76215  12.372   9.640   6.447
91459SOL    HW176216  12.322   9.707   6.495
91459SOL    HW276217  12.462   9.653   6.475
91460SOL     OW76218   1.706   4.602   0.620
91460SOL    HW176219   1.714   4.527   0.679
91460SOL    HW276220   1.775   4.662   0.649
91461SOL     OW76221   3.583   8.502   7.957
91461SOL    HW176222   3.625   8.583   7.930
91461SOL    HW276223   3.494   8.527   7.981
91462SOL     OW76224   7.830  13.117   1.987
91462SOL    HW176225   7.841  13.150   1.898
91462SOL    HW276226   7.817  13.196   2.040
91463SOL     OW76227  14.607  12.000   9.167
91463SOL    HW176228  14.548  12.018   9.094
91463SOL    HW276229  14.550  11.999   9.244
91464SOL     OW76230   2.800   3.111   4.909
91464SOL    HW176231   2.801   3.123   5.004
91464SOL    HW276232   2.892   3.103   4.884
91465SOL     OW76233  12.147  13.535  13.182
91465SOL    HW176234  12.222  13.481  13.207
91465SOL    HW276235  12.132  13.514  13.090
91466SOL     OW76236  12.297   2.362   5.230
91466SOL    HW176237  12.275   2.390   5.141
91466SOL    HW276238  12.291   2.442   5.282
91467SOL     OW76239  12.600  13.044   0.970
91467SOL    HW176240  12.673  13.029   0.910
91467SOL    HW276241  12.583  12.958   1.009
91468SOL     OW76242   6.195   0.596  14.541
91468SOL    HW176243   6.111   0.553  14.524
91468SOL    HW276244   6.233   0.546  14.613
91469SOL     OW76245   0.190   4.860   1.579
91469SOL    HW176246   0.203   4.886   1.488
91469SOL    HW276247   0.164   4.768   1.574
91470SOL     OW76248   5.074   7.226   4.181
91470SOL    HW176249   5.013   7.194   4.247
91470SOL    HW276250   5.023   7.286   4.127
91471SOL     OW76251   3.587   9.235   4.775
91471SOL    HW176252   3.594   9.322   4.815
91471SOL    HW276253   3.634   9.177   4.835
91472SOL     OW76254  13.807  10.747   4.250
91472SOL    HW176255  13.773  10.825   4.293
91472SOL    HW276256  13.730  10.708   4.209
91473SOL     OW76257  10.580  10.195   3.548
91473SOL    HW176258  10.567  10.151   3.465
91473SOL    HW276259  10.506  10.168   3.602
91474SOL     OW76260  13.527  13.909   2.212
91474SOL    HW176261  13.533  13.923   2.307
91474SOL    HW276262  13.460  13.841   2.202
91475SOL     OW76263  13.578   1.210   0.860
91475SOL    HW176264  13.610   1.278   0.918
91475SOL    HW276265  13.656   1.163   0.831
91476SOL     OW76266  13.586   6.658  13.735
91476SOL    HW176267  13.571   6.563  13.730
91476SOL    HW276268  13.538   6.685  13.814
91477SOL     OW76269  11.682  13.166   9.404
91477SOL    HW176270  11.691  13.253   9.365
91477SOL    HW276271  11.765  13.152   9.450
91478SOL     OW76272   3.420  12.529   9.664
91478SOL    HW176273   3.484  12.480   9.613
91478SOL    HW276274   3.348  12.469   9.678
91479SOL     OW76275  13.977   4.246  12.903
91479SOL    HW176276  13.978   4.157  12.867
91479SOL    HW276277  14.069   4.267  12.919
91480SOL     OW76278  12.970  12.618  14.110
91480SOL    HW176279  12.976  12.583  14.199
91480SOL    HW276280  13.061  12.633  14.084
91481SOL     OW76281  12.807   5.707  13.146
91481SOL    HW176282  12.861   5.748  13.213
91481SOL    HW276283  12.834   5.748  13.064
91482SOL     OW76284  13.968   0.960   3.192
91482SOL    HW176285  14.002   0.955   3.103
91482SOL    HW276286  14.042   0.993   3.244
91483SOL     OW76287   9.097   4.703   4.039
91483SOL    HW176288   9.129   4.615   4.018
91483SOL    HW276289   9.167   4.744   4.089
91484SOL     OW76290  14.636   5.948   0.204
91484SOL    HW176291  14.586   5.867   0.216
91484SOL    HW276292  14.694   5.930   0.130
91485SOL     OW76293   1.819   8.261   2.806
91485SOL    HW176294   1.729   8.232   2.819
91485SOL    HW276295   1.872   8.182   2.818
91486SOL     OW76296  13.136  13.367  12.668
91486SOL    HW176297  13.042  13.356  12.654
91486SOL    HW276298  13.150  13.340  12.759
91487SOL     OW76299  14.032  11.170   6.113
91487SOL    HW176300  13.981  11.093   6.139
91487SOL    HW276301  14.061  11.208   6.195
91488SOL     OW76302  13.495   9.831  10.992
91488SOL    HW176303  13.581   9.874  10.985
91488SOL    HW276304  13.499   9.783  11.074
91489SOL     OW76305   4.971   1.427  11.525
91489SOL    HW176306   4.925   1.354  11.484
91489SOL    HW276307   4.983   1.490  11.454
91490SOL     OW76308   9.343   7.665   1.251
91490SOL    HW176309   9.343   7.582   1.203
91490SOL    HW276310   9.432   7.672   1.286
91491SOL     OW76311   6.850  13.902  12.300
91491SOL    HW176312   6.773  13.862  12.340
91491SOL    HW276313   6.815  13.949  12.224
91492SOL     OW76314   4.450   9.787   8.996
91492SOL    HW176315   4.541   9.804   8.971
91492SOL    HW276316   4.448   9.695   9.022
91493SOL     OW76317   9.745   1.354  11.524
91493SOL    HW176318   9.830   1.378  11.562
91493SOL    HW276319   9.700   1.437  11.513
91494SOL     OW76320  10.402  14.206  14.679
91494SOL    HW176321  10.441  14.293  14.669
91494SOL    HW276322  10.474  14.146  14.663
91495SOL     OW76323   1.908  12.137   8.756
91495SOL    HW176324   1.836  12.166   8.699
91495SOL    HW276325   1.982  12.127   8.696
91496SOL     OW76326   4.742   2.369   6.276
91496SOL    HW176327   4.667   2.369   6.217
91496SOL    HW276328   4.804   2.431   6.238
91497SOL     OW76329   3.031   1.285  14.069
91497SOL    HW176330   3.090   1.230  14.122
91497SOL    HW276331   3.043   1.373  14.104
91498SOL     OW76332   2.085  13.116   4.564
91498SOL    HW176333   2.094  13.021   4.559
91498SOL    HW276334   2.121  13.148   4.482
91499SOL     OW76335  13.712  12.683   4.646
91499SOL    HW176336  13.660  12.711   4.721
91499SOL    HW276337  13.799  12.719   4.662
91500SOL     OW76338  13.501  11.069  10.680
91500SOL    HW176339  13.406  11.068  10.673
91500SOL    HW276340  13.520  11.020  10.761
91501SOL     OW76341   1.483  11.681   8.225
91501SOL    HW176342   1.400  11.701   8.269
91501SOL    HW276343   1.456  11.646   8.139
91502SOL     OW76344   1.426   2.006   0.840
91502SOL    HW176345   1.337   2.039   0.852
91502SOL    HW276346   1.481   2.069   0.886
91503SOL     OW76347  14.330  13.639  13.775
91503SOL    HW176348  14.359  13.627  13.685
91503SOL    HW276349  14.362  13.561  13.821
91504SOL     OW76350   5.452   7.159   2.849
91504SOL    HW176351   5.424   7.135   2.938
91504SOL    HW276352   5.436   7.080   2.797
91505SOL     OW76353   3.480   8.680  10.915
91505SOL    HW176354   3.561   8.630  10.931
91505SOL    HW276355   3.501   8.769  10.944
91506SOL     OW76356   6.787  11.496  13.494
91506SOL    HW176357   6.714  11.477  13.553
91506SOL    HW276358   6.746  11.530  13.414
91507SOL     OW76359  10.522  12.742  13.097
91507SOL    HW176360  10.434  12.719  13.067
91507SOL    HW276361  10.544  12.821  13.048
91508SOL     OW76362  11.289  11.319   7.031
91508SOL    HW176363  11.222  11.261   7.067
91508SOL    HW276364  11.292  11.296   6.938
91509SOL     OW76365   1.664   1.934   4.661
91509SOL    HW176366   1.589   1.948   4.604
91509SOL    HW276367   1.671   1.839   4.669
91510SOL     OW76368   0.187   1.841   2.752
91510SOL    HW176369   0.127   1.862   2.680
91510SOL    HW276370   0.136   1.860   2.831
91511SOL     OW76371   6.925  14.621   2.350
91511SOL    HW176372   6.997  14.643   2.409
91511SOL    HW276373   6.872  14.559   2.400
91512SOL     OW76374   7.238   9.536   4.394
91512SOL    HW176375   7.165   9.583   4.353
91512SOL    HW276376   7.312   9.596   4.386
91513SOL     OW76377  11.848   3.948   6.942
91513SOL    HW176378  11.774   3.996   6.980
91513SOL    HW276379  11.925   3.999   6.969
91514SOL     OW76380   8.210   2.130   8.512
91514SOL    HW176381   8.263   2.209   8.501
91514SOL    HW276382   8.250   2.085   8.588
91515SOL     OW76383  12.092   9.960   6.389
91515SOL    HW176384  12.033  10.020   6.436
91515SOL    HW276385  12.050   9.874   6.397
91516SOL     OW76386   8.955   0.829   1.172
91516SOL    HW176387   8.877   0.848   1.118
91516SOL    HW276388   8.995   0.754   1.130
91517SOL     OW76389   0.671   2.830  11.344
91517SOL    HW176390   0.654   2.814  11.251
91517SOL    HW276391   0.592   2.875  11.375
91518SOL     OW76392   9.925   6.478   2.734
91518SOL    HW176393   9.989   6.466   2.804
91518SOL    HW276394   9.854   6.529   2.773
91519SOL     OW76395  12.454  11.324   4.558
91519SOL    HW176396  12.503  11.403   4.537
91519SOL    HW276397  12.375  11.329   4.504
91520SOL     OW76398   9.366   4.216   6.807
91520SOL    HW176399   9.447   4.251   6.769
91520SOL    HW276400   9.313   4.293   6.825
91521SOL     OW76401   6.494  10.374   3.994
91521SOL    HW176402   6.461  10.285   4.006
91521SOL    HW276403   6.583  10.372   4.027
91522SOL     OW76404   1.660   0.467   0.519
91522SOL    HW176405   1.625   0.418   0.593
91522SOL    HW276406   1.671   0.556   0.552
91523SOL     OW76407  13.647   6.662   5.233
91523SOL    HW176408  13.698   6.689   5.309
91523SOL    HW276409  13.617   6.744   5.193
91524SOL     OW76410   5.598   2.484   4.526
91524SOL    HW176411   5.518   2.491   4.474
91524SOL    HW276412   5.572   2.435   4.604
91525SOL     OW76413   6.681  11.783  11.132
91525SOL    HW176414   6.600  11.767  11.179
91525SOL    HW276415   6.685  11.714  11.066
91526SOL     OW76416  11.306  12.569   6.995
91526SOL    HW176417  11.248  12.629   6.948
91526SOL    HW276418  11.265  12.483   6.986
91527SOL     OW76419  11.910   8.476  13.418
91527SOL    HW176420  11.838   8.536  13.398
91527SOL    HW276421  11.907   8.466  13.513
91528SOL     OW76422   5.890  13.926  11.078
91528SOL    HW176423   5.845  13.998  11.122
91528SOL    HW276424   5.965  13.967  11.035
91529SOL     OW76425   3.305   6.349   9.269
91529SOL    HW176426   3.387   6.343   9.318
91529SOL    HW276427   3.330   6.339   9.178
91530SOL     OW76428  12.534   5.091  10.143
91530SOL    HW176429  12.462   5.043  10.184
91530SOL    HW276430  12.568   5.031  10.076
91531SOL     OW76431   4.579  14.446  13.286
91531SOL    HW176432   4.489  14.425  13.260
91531SOL    HW276433   4.604  14.375  13.346
91532SOL     OW76434   8.178   1.929   6.751
91532SOL    HW176435   8.202   1.945   6.660
91532SOL    HW276436   8.237   1.984   6.802
91533SOL     OW76437   1.425   9.454   6.890
91533SOL    HW176438   1.461   9.369   6.865
91533SOL    HW276439   1.468   9.474   6.973
91534SOL     OW76440   6.149   8.023   6.774
91534SOL    HW176441   6.063   8.062   6.793
91534SOL    HW276442   6.173   7.979   6.856
91535SOL     OW76443   8.541   5.897  11.159
91535SOL    HW176444   8.593   5.816  11.159
91535SOL    HW276445   8.604   5.965  11.135
91536SOL     OW76446  14.669  11.339  14.645
91536SOL    HW176447  14.698  11.298  14.564
91536SOL    HW276448  14.742  11.393  14.673
91537SOL     OW76449   8.974  12.717  10.487
91537SOL    HW176450   8.977  12.625  10.511
91537SOL    HW276451   9.049  12.756  10.532
91538SOL     OW76452  10.706  10.635   5.564
91538SOL    HW176453  10.770  10.631   5.492
91538SOL    HW276454  10.623  10.656   5.522
91539SOL     OW76455  11.635   9.059   4.175
91539SOL    HW176456  11.628   9.011   4.092
91539SOL    HW276457  11.545   9.076   4.201
91540SOL     OW76458  12.417   9.066   5.392
91540SOL    HW176459  12.446   9.103   5.309
91540SOL    HW276460  12.402   8.973   5.374
91541SOL     OW76461   2.521  10.143   8.693
91541SOL    HW176462   2.529  10.176   8.604
91541SOL    HW276463   2.609  10.112   8.716
91542SOL     OW76464   6.097  12.179  12.719
91542SOL    HW176465   6.066  12.092  12.741
91542SOL    HW276466   6.169  12.195  12.780
91543SOL     OW76467   9.442  11.149   6.190
91543SOL    HW176468   9.419  11.240   6.175
91543SOL    HW276469   9.527  11.152   6.234
91544SOL     OW76470   3.812  11.422   4.641
91544SOL    HW176471   3.741  11.414   4.705
91544SOL    HW276472   3.773  11.395   4.558
91545SOL     OW76473  11.894  13.298  12.195
91545SOL    HW176474  11.925  13.284  12.284
91545SOL    HW276475  11.974  13.296  12.141
91546SOL     OW76476   0.255  11.313  10.500
91546SOL    HW176477   0.191  11.292  10.431
91546SOL    HW276478   0.309  11.234  10.507
91547SOL     OW76479  14.238  11.964   7.654
91547SOL    HW176480  14.251  11.937   7.563
91547SOL    HW276481  14.182  12.041   7.648
91548SOL     OW76482   7.728  11.642  12.083
91548SOL    HW176483   7.791  11.572  12.103
91548SOL    HW276484   7.775  11.701  12.024
91549SOL     OW76485   6.381   5.913   0.482
91549SOL    HW176486   6.316   5.924   0.551
91549SOL    HW276487   6.373   5.822   0.454
91550SOL     OW76488   4.370   7.423   3.943
91550SOL    HW176489   4.353   7.418   4.038
91550SOL    HW276490   4.357   7.334   3.912
91551SOL     OW76491  11.362  12.957   0.851
91551SOL    HW176492  11.357  12.995   0.939
91551SOL    HW276493  11.383  13.031   0.794
91552SOL     OW76494   3.545  12.040  12.029
91552SOL    HW176495   3.451  12.055  12.018
91552SOL    HW276496   3.551  11.968  12.092
91553SOL     OW76497   8.102   4.344   3.681
91553SOL    HW176498   8.115   4.338   3.586
91553SOL    HW276499   8.008   4.355   3.691
91554SOL     OW76500  13.521   8.504   0.206
91554SOL    HW176501  13.495   8.548   0.287
91554SOL    HW276502  13.601   8.457   0.229
91555SOL     OW76503  13.203  14.025   8.455
91555SOL    HW176504  13.134  13.963   8.476
91555SOL    HW276505  13.265  13.975   8.402
91556SOL     OW76506   2.876  13.078  13.389
91556SOL    HW176507   2.872  13.163  13.432
91556SOL    HW276508   2.958  13.040  13.419
91557SOL     OW76509  13.146   3.522   2.661
91557SOL    HW176510  13.141   3.488   2.571
91557SOL    HW276511  13.170   3.614   2.650
91558SOL     OW76512   5.004   6.630  10.556
91558SOL    HW176513   4.981   6.594  10.642
91558SOL    HW276514   5.100   6.630  10.556
91559SOL     OW76515   7.245   0.459   7.957
91559SOL    HW176516   7.222   0.527   7.893
91559SOL    HW276517   7.236   0.377   7.909
91560SOL     OW76518   2.622  12.533   8.738
91560SOL    HW176519   2.641  12.445   8.771
91560SOL    HW276520   2.689  12.549   8.672
91561SOL     OW76521   3.080   5.072   9.588
91561SOL    HW176522   3.085   5.016   9.666
91561SOL    HW276523   2.987   5.072   9.564
91562SOL     OW76524   4.418   2.462  11.746
91562SOL    HW176525   4.362   2.534  11.718
91562SOL    HW276526   4.399   2.392  11.683
91563SOL     OW76527   6.244  12.717   2.323
91563SOL    HW176528   6.253  12.750   2.412
91563SOL    HW276529   6.334  12.699   2.295
91564SOL     OW76530   7.116   8.158   2.061
91564SOL    HW176531   7.155   8.173   2.147
91564SOL    HW276532   7.173   8.093   2.020
91565SOL     OW76533   7.811   9.783   5.954
91565SOL    HW176534   7.872   9.841   5.999
91565SOL    HW276535   7.800   9.822   5.867
91566SOL     OW76536  12.659   8.991   7.555
91566SOL    HW176537  12.695   8.969   7.641
91566SOL    HW276538  12.724   8.960   7.493
91567SOL     OW76539   9.797   4.925  14.475
91567SOL    HW176540   9.794   4.959  14.386
91567SOL    HW276541   9.733   4.979  14.523
91568SOL     OW76542   4.437  14.288   9.976
91568SOL    HW176543   4.373  14.351   9.944
91568SOL    HW276544   4.392  14.242  10.047
91569SOL     OW76545   3.425   4.454   9.401
91569SOL    HW176546   3.438   4.537   9.446
91569SOL    HW276547   3.427   4.388   9.470
91570SOL     OW76548   4.479   0.378   5.204
91570SOL    HW176549   4.397   0.411   5.239
91570SOL    HW276550   4.487   0.290   5.240
91571SOL     OW76551   1.100  14.225   8.535
91571SOL    HW176552   1.069  14.190   8.618
91571SOL    HW276553   1.142  14.150   8.492
91572SOL     OW76554   5.864   9.001   2.148
91572SOL    HW176555   5.958   9.018   2.145
91572SOL    HW276556   5.824   9.088   2.143
91573SOL     OW76557  13.030  11.432   8.716
91573SOL    HW176558  13.071  11.396   8.638
91573SOL    HW276559  12.945  11.389   8.721
91574SOL     OW76560   4.005   1.931   9.017
91574SOL    HW176561   4.017   1.927   9.112
91574SOL    HW276562   4.094   1.920   8.981
91575SOL     OW76563   7.187  14.396  14.870
91575SOL    HW176564   7.106  14.440   0.022
91575SOL    HW276565   7.242  14.393   0.072
91576SOL     OW76566   2.642   1.446   5.123
91576SOL    HW176567   2.652   1.457   5.029
91576SOL    HW276568   2.707   1.505   5.161
91577SOL     OW76569   5.404  11.698  11.861
91577SOL    HW176570   5.368  11.771  11.812
91577SOL    HW276571   5.438  11.737  11.942
91578SOL     OW76572   6.323  11.077   5.580
91578SOL    HW176573   6.276  11.124   5.649
91578SOL    HW276574   6.325  11.138   5.506
91579SOL     OW76575   1.718   3.794   0.994
91579SOL    HW176576   1.725   3.801   1.090
91579SOL    HW276577   1.736   3.883   0.963
91580SOL     OW76578  13.765  14.242   4.447
91580SOL    HW176579  13.826  14.201   4.509
91580SOL    HW276580  13.717  14.168   4.409
91581SOL     OW76581   3.401   5.302   7.477
91581SOL    HW176582   3.413   5.307   7.382
91581SOL    HW276583   3.419   5.211   7.499
91582SOL     OW76584  11.200   5.652   5.219
91582SOL    HW176585  11.131   5.590   5.195
91582SOL    HW276586  11.153   5.729   5.251
91583SOL     OW76587  14.285   4.087   7.260
91583SOL    HW176588  14.291   3.995   7.233
91583SOL    HW276589  14.199   4.094   7.301
91584SOL     OW76590   1.392   8.224   9.592
91584SOL    HW176591   1.476   8.229   9.547
91584SOL    HW276592   1.365   8.315   9.605
91585SOL     OW76593   9.942   0.575   7.222
91585SOL    HW176594   9.849   0.568   7.246
91585SOL    HW276595   9.943   0.554   7.128
91586SOL     OW76596   2.572  11.230  14.335
91586SOL    HW176597   2.531  11.204  14.417
91586SOL    HW276598   2.510  11.201  14.267
91587SOL     OW76599  11.073   8.768   1.587
91587SOL    HW176600  11.013   8.815   1.529
91587SOL    HW276601  11.040   8.785   1.675
91588SOL     OW76602  10.478   0.185   5.738
91588SOL    HW176603  10.556   0.228   5.703
91588SOL    HW276604  10.416   0.257   5.752
91589SOL     OW76605   2.316   8.964   5.654
91589SOL    HW176606   2.336   8.982   5.563
91589SOL    HW276607   2.267   8.881   5.652
91590SOL     OW76608   1.822   2.893  11.173
91590SOL    HW176609   1.859   2.955  11.111
91590SOL    HW276610   1.895   2.837  11.198
91591SOL     OW76611   7.802   7.251   4.145
91591SOL    HW176612   7.835   7.254   4.055
91591SOL    HW276613   7.709   7.229   4.136
91592SOL     OW76614  14.427  12.593   4.989
91592SOL    HW176615  14.383  12.508   4.995
91592SOL    HW276616  14.357  12.653   4.963
91593SOL     OW76617  13.246  14.859   7.592
91593SOL    HW176618  13.284  14.852   7.504
91593SOL    HW276619  13.153  14.873   7.576
91594SOL     OW76620   0.336  12.206   1.882
91594SOL    HW176621   0.380  12.285   1.851
91594SOL    HW276622   0.243  12.223   1.868
91595SOL     OW76623   5.161  13.012  13.112
91595SOL    HW176624   5.158  13.081  13.179
91595SOL    HW276625   5.225  12.949  13.145
91596SOL     OW76626  12.959   2.441   3.215
91596SOL    HW176627  13.037   2.497   3.206
91596SOL    HW276628  12.990   2.353   3.193
91597SOL     OW76629   6.566   0.606   4.587
91597SOL    HW176630   6.520   0.671   4.533
91597SOL    HW276631   6.542   0.629   4.677
91598SOL     OW76632   7.372  10.607  11.470
91598SOL    HW176633   7.318  10.673  11.426
91598SOL    HW276634   7.351  10.525  11.424
91599SOL     OW76635   8.307   5.532   1.146
91599SOL    HW176636   8.373   5.463   1.157
91599SOL    HW276637   8.242   5.514   1.214
91600SOL     OW76638   4.148   2.545   5.104
91600SOL    HW176639   4.067   2.548   5.155
91600SOL    HW276640   4.179   2.635   5.103
91601SOL     OW76641  12.857  14.812   7.051
91601SOL    HW176642  12.892   0.024   7.042
91601SOL    HW276643  12.787  14.807   6.986
91602SOL     OW76644   0.060  12.122  11.007
91602SOL    HW176645   0.067  12.030  11.035
91602SOL    HW276646   0.096  12.171  11.081
91603SOL     OW76647   1.694   8.779  14.393
91603SOL    HW176648   1.713   8.866  14.358
91603SOL    HW276649   1.765   8.724  14.360
91604SOL     OW76650  13.131   2.247  14.116
91604SOL    HW176651  13.084   2.191  14.054
91604SOL    HW276652  13.180   2.186  14.171
91605SOL     OW76653  12.886  14.731   5.032
91605SOL    HW176654  12.860  14.690   4.949
91605SOL    HW276655  12.844  14.817   5.030
91606SOL     OW76656  14.606   8.133  13.153
91606SOL    HW176657  14.553   8.130  13.233
91606SOL    HW276658  14.548   8.171  13.087
91607SOL     OW76659   0.623   8.230   7.027
91607SOL    HW176660   0.555   8.165   7.014
91607SOL    HW276661   0.639   8.230   7.122
91608SOL     OW76662   9.647   1.260   8.405
91608SOL    HW176663   9.601   1.302   8.332
91608SOL    HW276664   9.735   1.242   8.370
91609SOL     OW76665   6.168  12.648   1.077
91609SOL    HW176666   6.155  12.568   1.128
91609SOL    HW276667   6.199  12.712   1.142
91610SOL     OW76668   4.787  10.391   8.331
91610SOL    HW176669   4.727  10.328   8.292
91610SOL    HW276670   4.759  10.476   8.296
91611SOL     OW76671   3.729  11.774   5.213
91611SOL    HW176672   3.680  11.797   5.134
91611SOL    HW276673   3.782  11.852   5.232
91612SOL     OW76674  10.480   9.919   1.617
91612SOL    HW176675  10.451   9.908   1.526
91612SOL    HW276676  10.407   9.960   1.662
91613SOL     OW76677   2.215  14.612   5.236
91613SOL    HW176678   2.287  14.611   5.173
91613SOL    HW276679   2.256  14.591   5.320
91614SOL     OW76680   5.615  10.001   0.409
91614SOL    HW176681   5.688  10.042   0.361
91614SOL    HW276682   5.649   9.916   0.436
91615SOL     OW76683   7.384   3.984   8.778
91615SOL    HW176684   7.420   4.070   8.759
91615SOL    HW276685   7.432   3.924   8.720
91616SOL     OW76686   1.659  13.890   1.656
91616SOL    HW176687   1.709  13.910   1.576
91616SOL    HW276688   1.572  13.926   1.639
91617SOL     OW76689   9.326   1.772  10.472
91617SOL    HW176690   9.322   1.740  10.382
91617SOL    HW276691   9.241   1.747  10.509
91618SOL     OW76692  14.002   6.075   9.882
91618SOL    HW176693  14.080   6.040   9.840
91618SOL    HW276694  13.966   6.001   9.931
91619SOL     OW76695   3.969   2.872   8.763
91619SOL    HW176696   3.962   2.888   8.669
91619SOL    HW276697   4.052   2.911   8.788
91620SOL     OW76698  12.124   1.708   3.411
91620SOL    HW176699  12.111   1.691   3.504
91620SOL    HW276700  12.208   1.667   3.390
91621SOL     OW76701   6.302  14.138   4.141
91621SOL    HW176702   6.259  14.121   4.224
91621SOL    HW276703   6.374  14.075   4.137
91622SOL     OW76704   1.027   7.343   6.143
91622SOL    HW176705   1.070   7.395   6.075
91622SOL    HW276706   0.998   7.407   6.208
91623SOL     OW76707   2.698  10.637   9.998
91623SOL    HW176708   2.779  10.600  10.034
91623SOL    HW276709   2.720  10.727   9.977
91624SOL     OW76710   8.577   3.898   0.946
91624SOL    HW176711   8.643   3.857   1.001
91624SOL    HW276712   8.578   3.990   0.970
91625SOL     OW76713   0.372  13.745  10.936
91625SOL    HW176714   0.329  13.810  10.880
91625SOL    HW276715   0.366  13.663  10.887
91626SOL     OW76716   5.588   2.525   9.069
91626SOL    HW176717   5.519   2.561   9.125
91626SOL    HW276718   5.665   2.520   9.127
91627SOL     OW76719   5.427  13.393   0.087
91627SOL    HW176720   5.488  13.346   0.030
91627SOL    HW276721   5.448  13.486   0.073
91628SOL     OW76722   7.713   7.396   0.795
91628SOL    HW176723   7.702   7.402   0.890
91628SOL    HW276724   7.803   7.364   0.783
91629SOL     OW76725  13.577   9.782   4.430
91629SOL    HW176726  13.582   9.693   4.397
91629SOL    HW276727  13.560   9.836   4.353
91630SOL     OW76728   3.651   0.609   0.552
91630SOL    HW176729   3.647   0.577   0.462
91630SOL    HW276730   3.647   0.705   0.543
91631SOL     OW76731   4.101   1.232  11.092
91631SOL    HW176732   4.075   1.144  11.065
91631SOL    HW276733   4.092   1.232  11.188
91632SOL     OW76734   7.495   6.291   4.847
91632SOL    HW176735   7.482   6.350   4.772
91632SOL    HW276736   7.491   6.203   4.808
91633SOL     OW76737  14.720   0.607  13.999
91633SOL    HW176738  14.680   0.694  13.999
91633SOL    HW276739  14.769   0.603  14.082
91634SOL     OW76740  11.718  12.493   0.802
91634SOL    HW176741  11.718  12.513   0.895
91634SOL    HW276742  11.739  12.400   0.797
91635SOL     OW76743   5.619  12.491   5.681
91635SOL    HW176744   5.675  12.528   5.613
91635SOL    HW276745   5.536  12.475   5.636
91636SOL     OW76746   6.070  12.897   1.601
91636SOL    HW176747   6.029  12.962   1.544
91636SOL    HW276748   6.038  12.919   1.689
91637SOL     OW76749  14.603   6.859  14.102
91637SOL    HW176750  14.574   6.838  14.191
91637SOL    HW276751  14.647   6.944  14.111
91638SOL     OW76752   6.724   2.393   7.040
91638SOL    HW176753   6.814   2.423   7.034
91638SOL    HW276754   6.671   2.471   7.021
91639SOL     OW76755   4.328   2.224   3.176
91639SOL    HW176756   4.244   2.205   3.217
91639SOL    HW276757   4.366   2.138   3.156
91640SOL     OW76758   1.439   2.990   0.576
91640SOL    HW176759   1.398   2.981   0.490
91640SOL    HW276760   1.524   3.030   0.558
91641SOL     OW76761   8.249  13.498   1.960
91641SOL    HW176762   8.190  13.573   1.952
91641SOL    HW276763   8.217  13.451   2.037
91642SOL     OW76764   0.098   3.711   6.485
91642SOL    HW176765   0.024   3.771   6.491
91642SOL    HW276766   0.174   3.762   6.512
91643SOL     OW76767   3.010   1.780   8.526
91643SOL    HW176768   3.083   1.806   8.469
91643SOL    HW276769   3.046   1.712   8.582
91644SOL     OW76770   1.003   3.621  11.907
91644SOL    HW176771   0.990   3.530  11.933
91644SOL    HW276772   0.998   3.620  11.812
91645SOL     OW76773   4.365  12.844  12.217
91645SOL    HW176774   4.328  12.843  12.305
91645SOL    HW276775   4.415  12.763  12.211
91646SOL     OW76776   9.860   6.477   9.213
91646SOL    HW176777   9.851   6.571   9.230
91646SOL    HW276778   9.770   6.448   9.194
91647SOL     OW76779   9.117   9.107   6.886
91647SOL    HW176780   9.196   9.099   6.834
91647SOL    HW276781   9.074   9.186   6.853
91648SOL     OW76782  13.166  12.188   4.229
91648SOL    HW176783  13.164  12.273   4.273
91648SOL    HW276784  13.081  12.182   4.185
91649SOL     OW76785   3.444   8.107   1.765
91649SOL    HW176786   3.526   8.123   1.719
91649SOL    HW276787   3.461   8.030   1.819
91650SOL     OW76788  13.823   3.030   7.334
91650SOL    HW176789  13.872   3.012   7.254
91650SOL    HW276790  13.735   2.999   7.315
91651SOL     OW76791   7.022   7.525   6.858
91651SOL    HW176792   7.058   7.610   6.832
91651SOL    HW276793   7.043   7.467   6.785
91652SOL     OW76794   1.091   7.484  11.234
91652SOL    HW176795   1.185   7.471  11.245
91652SOL    HW276796   1.052   7.453  11.315
91653SOL     OW76797   4.993  12.862   6.336
91653SOL    HW176798   5.001  12.808   6.415
91653SOL    HW276799   5.008  12.952   6.366
91654SOL     OW76800  14.406   4.539   1.710
91654SOL    HW176801  14.327   4.590   1.727
91654SOL    HW276802  14.397   4.512   1.618
91655SOL     OW76803   5.737   1.324  13.134
91655SOL    HW176804   5.666   1.346  13.196
91655SOL    HW276805   5.697   1.338  13.048
91656SOL     OW76806  13.338   5.408  13.870
91656SOL    HW176807  13.260   5.400  13.816
91656SOL    HW276808  13.408   5.372  13.816
91657SOL     OW76809  12.847  10.593   2.550
91657SOL    HW176810  12.911  10.644   2.600
91657SOL    HW276811  12.846  10.634   2.464
91658SOL     OW76812   0.318   7.418   7.328
91658SOL    HW176813   0.326   7.511   7.348
91658SOL    HW276814   0.278   7.379   7.407
91659SOL     OW76815   1.002   0.576   2.798
91659SOL    HW176816   1.045   0.516   2.859
91659SOL    HW276817   0.987   0.523   2.720
91660SOL     OW76818   4.138   7.166   0.648
91660SOL    HW176819   4.225   7.129   0.661
91660SOL    HW276820   4.081   7.090   0.635
91661SOL     OW76821   2.422  11.625   4.160
91661SOL    HW176822   2.436  11.700   4.219
91661SOL    HW276823   2.482  11.641   4.087
91662SOL     OW76824  13.095   6.559   9.879
91662SOL    HW176825  13.048   6.620   9.936
91662SOL    HW276826  13.164   6.524   9.935
91663SOL     OW76827   4.003  12.803   2.306
91663SOL    HW176828   4.002  12.763   2.393
91663SOL    HW276829   4.007  12.897   2.323
91664SOL     OW76830   4.816   7.493  13.980
91664SOL    HW176831   4.848   7.500  14.069
91664SOL    HW276832   4.855   7.567  13.934
91665SOL     OW76833   1.614   8.232   5.329
91665SOL    HW176834   1.656   8.318   5.338
91665SOL    HW276835   1.544   8.232   5.394
91666SOL     OW76836   8.811  12.087  12.639
91666SOL    HW176837   8.810  12.079  12.735
91666SOL    HW276838   8.866  12.163  12.623
91667SOL     OW76839   4.150   2.997   9.420
91667SOL    HW176840   4.165   3.083   9.459
91667SOL    HW276841   4.145   2.937   9.494
91668SOL     OW76842  13.454  12.751   7.552
91668SOL    HW176843  13.371  12.710   7.577
91668SOL    HW276844  13.511  12.677   7.530
91669SOL     OW76845   6.284   6.851   3.577
91669SOL    HW176846   6.317   6.768   3.611
91669SOL    HW276847   6.192   6.853   3.603
91670SOL     OW76848  14.535   1.369   3.237
91670SOL    HW176849  14.459   1.333   3.192
91670SOL    HW276850  14.515   1.360   3.330
91671SOL     OW76851   4.219   3.825  10.469
91671SOL    HW176852   4.244   3.734  10.485
91671SOL    HW276853   4.131   3.820  10.433
91672SOL     OW76854   7.849   4.029   3.623
91672SOL    HW176855   7.862   3.943   3.664
91672SOL    HW276856   7.913   4.031   3.552
91673SOL     OW76857  11.815  10.367   2.812
91673SOL    HW176858  11.901  10.334   2.785
91673SOL    HW276859  11.756  10.292   2.801
91674SOL     OW76860  11.759   7.615   0.944
91674SOL    HW176861  11.820   7.609   0.871
91674SOL    HW276862  11.678   7.575   0.911
91675SOL     OW76863   0.395   5.490   3.658
91675SOL    HW176864   0.432   5.421   3.603
91675SOL    HW276865   0.462   5.557   3.661
91676SOL     OW76866   5.112   1.495  13.258
91676SOL    HW176867   5.176   1.432  13.290
91676SOL    HW276868   5.066   1.449  13.187
91677SOL     OW76869  12.282   1.943   8.939
91677SOL    HW176870  12.377   1.943   8.922
91677SOL    HW276871  12.273   1.892   9.020
91678SOL     OW76872   1.774  11.916   2.717
91678SOL    HW176873   1.829  11.970   2.659
91678SOL    HW276874   1.794  11.949   2.805
91679SOL     OW76875  14.689   8.424  10.032
91679SOL    HW176876  14.652   8.341  10.062
91679SOL    HW276877  14.732   8.402   9.949
91680SOL     OW76878  10.151  10.624   2.198
91680SOL    HW176879  10.219  10.558   2.213
91680SOL    HW276880  10.093  10.615   2.273
91681SOL     OW76881   2.016   7.767   2.168
91681SOL    HW176882   2.094   7.784   2.115
91681SOL    HW276883   1.953   7.730   2.106
91682SOL     OW76884   7.528   7.621   5.850
91682SOL    HW176885   7.436   7.637   5.868
91682SOL    HW276886   7.535   7.624   5.755
91683SOL     OW76887   6.216   5.897  14.694
91683SOL    HW176888   6.303   5.936  14.699
91683SOL    HW276889   6.160   5.966  14.657
91684SOL     OW76890  12.312   3.611   3.698
91684SOL    HW176891  12.281   3.674   3.632
91684SOL    HW276892  12.235   3.556   3.716
91685SOL     OW76893  10.394   0.357  12.418
91685SOL    HW176894  10.451   0.423  12.378
91685SOL    HW276895  10.362   0.306  12.344
91686SOL     OW76896   7.963   8.982   0.115
91686SOL    HW176897   7.886   8.933   0.088
91686SOL    HW276898   7.972   9.052   0.050
91687SOL     OW76899  13.809  13.620   3.596
91687SOL    HW176900  13.866  13.675   3.650
91687SOL    HW276901  13.855  13.537   3.590
91688SOL     OW76902   9.563   1.311  12.595
91688SOL    HW176903   9.488   1.276  12.546
91688SOL    HW276904   9.526   1.385  12.644
91689SOL     OW76905   8.619   7.196  10.897
91689SOL    HW176906   8.715   7.188  10.896
91689SOL    HW276907   8.588   7.116  10.854
91690SOL     OW76908  10.171  10.577   3.411
91690SOL    HW176909  10.077  10.564   3.423
91690SOL    HW276910  10.189  10.661   3.452
91691SOL     OW76911   6.277  12.010   5.759
91691SOL    HW176912   6.370  11.999   5.740
91691SOL    HW276913   6.271  12.097   5.798
91692SOL     OW76914   7.798  10.975   4.397
91692SOL    HW176915   7.767  11.040   4.334
91692SOL    HW276916   7.849  11.026   4.460
91693SOL     OW76917  11.235   3.879   9.171
91693SOL    HW176918  11.263   3.964   9.135
91693SOL    HW276919  11.190   3.836   9.099
91694SOL     OW76920  11.800   1.121   3.788
91694SOL    HW176921  11.711   1.114   3.823
91694SOL    HW276922  11.828   1.209   3.811
91695SOL     OW76923   7.573   7.142   3.390
91695SOL    HW176924   7.522   7.179   3.462
91695SOL    HW276925   7.655   7.191   3.391
91696SOL     OW76926  13.466   5.534  12.240
91696SOL    HW176927  13.424   5.451  12.262
91696SOL    HW276928  13.540   5.540  12.301
91697SOL     OW76929   5.678   0.511  13.820
91697SOL    HW176930   5.602   0.453  13.830
91697SOL    HW276931   5.694   0.545  13.907
91698SOL     OW76932   9.073   8.653  11.091
91698SOL    HW176933   9.118   8.589  11.146
91698SOL    HW276934   9.134   8.726  11.084
91699SOL     OW76935   5.720   4.407   0.011
91699SOL    HW176936   5.695   4.315   0.016
91699SOL    HW276937   5.807   4.411   0.052
91700SOL     OW76938  14.743   0.174   9.826
91700SOL    HW176939  14.701   0.088   9.826
91700SOL    HW276940  14.836   0.155   9.813
91701SOL     OW76941   4.737   2.823   1.182
91701SOL    HW176942   4.664   2.877   1.151
91701SOL    HW276943   4.774   2.871   1.256
91702SOL     OW76944   4.271  14.866   9.064
91702SOL    HW176945   4.303   0.060   9.120
91702SOL    HW276946   4.201  14.825   9.114
91703SOL     OW76947  13.716  13.454   6.520
91703SOL    HW176948  13.763  13.390   6.467
91703SOL    HW276949  13.627  13.418   6.528
91704SOL     OW76950  14.322  14.071  14.184
91704SOL    HW176951  14.237  14.107  14.208
91704SOL    HW276952  14.318  14.062  14.089
91705SOL     OW76953   1.150   8.002   2.140
91705SOL    HW176954   1.209   8.011   2.065
91705SOL    HW276955   1.099   8.083   2.140
91706SOL     OW76956   6.359  10.548   0.543
91706SOL    HW176957   6.304  10.615   0.501
91706SOL    HW276958   6.365  10.576   0.634
91707SOL     OW76959   6.764   2.600  13.196
91707SOL    HW176960   6.756   2.676  13.254
91707SOL    HW276961   6.857   2.599  13.172
91708SOL     OW76962   4.014   6.805   1.342
91708SOL    HW176963   3.920   6.817   1.332
91708SOL    HW276964   4.026   6.786   1.435
91709SOL     OW76965   8.870   6.144  13.912
91709SOL    HW176966   8.942   6.107  13.963
91709SOL    HW276967   8.803   6.076  13.911
91710SOL     OW76968   1.047   3.128   7.149
91710SOL    HW176969   1.049   3.034   7.133
91710SOL    HW276970   1.132   3.147   7.188
91711SOL     OW76971   0.445   8.822   1.569
91711SOL    HW176972   0.488   8.852   1.649
91711SOL    HW276973   0.466   8.888   1.504
91712SOL     OW76974  14.674  10.477   9.630
91712SOL    HW176975  14.706  10.427   9.705
91712SOL    HW276976  14.634  10.555   9.668
91713SOL     OW76977   9.443   7.186   1.036
91713SOL    HW176978   9.538   7.197   1.042
91713SOL    HW276979   9.420   7.132   1.111
91714SOL     OW76980  11.673   8.587   3.278
91714SOL    HW176981  11.712   8.524   3.339
91714SOL    HW276982  11.579   8.566   3.278
91715SOL     OW76983  14.167   1.915   4.616
91715SOL    HW176984  14.191   1.945   4.703
91715SOL    HW276985  14.232   1.847   4.595
91716SOL     OW76986  14.766   6.772   0.548
91716SOL    HW176987  14.769   6.831   0.623
91716SOL    HW276988  14.712   6.818   0.483
91717SOL     OW76989  11.752  12.959  11.154
91717SOL    HW176990  11.719  12.906  11.226
91717SOL    HW276991  11.684  12.952  11.087
91718SOL     OW76992   0.346   6.762   2.463
91718SOL    HW176993   0.339   6.730   2.373
91718SOL    HW276994   0.395   6.693   2.509
91719SOL     OW76995   2.242   8.261   0.251
91719SOL    HW176996   2.218   8.205   0.325
91719SOL    HW276997   2.310   8.318   0.286
91720SOL     OW76998  11.046   8.614   0.432
91720SOL    HW176999  11.114   8.620   0.498
91720SOL    HW277000  11.040   8.521   0.412
91721SOL     OW77001   3.652  10.499   1.838
91721SOL    HW177002   3.680  10.408   1.853
91721SOL    HW277003   3.597  10.494   1.760
91722SOL     OW77004   2.438   9.882  11.761
91722SOL    HW177005   2.516   9.931  11.735
91722SOL    HW277006   2.387   9.943  11.814
91723SOL     OW77007   0.461   2.853   2.641
91723SOL    HW177008   0.500   2.784   2.588
91723SOL    HW277009   0.478   2.933   2.591
91724SOL     OW77010   6.460   5.938   6.783
91724SOL    HW177011   6.526   5.912   6.719
91724SOL    HW277012   6.427   6.022   6.751
91725SOL     OW77013   0.657   1.374   0.565
91725SOL    HW177014   0.586   1.379   0.502
91725SOL    HW277015   0.635   1.438   0.632
91726SOL     OW77016   2.580   2.910   1.902
91726SOL    HW177017   2.644   2.975   1.874
91726SOL    HW277018   2.589   2.907   1.997
91727SOL     OW77019   6.795   2.577   5.369
91727SOL    HW177020   6.812   2.666   5.399
91727SOL    HW277021   6.710   2.581   5.326
91728SOL     OW77022  14.822   6.301   8.201
91728SOL    HW177023  14.744   6.341   8.240
91728SOL    HW277024  14.806   6.207   8.207
91729SOL     OW77025   0.286   6.579  10.554
91729SOL    HW177026   0.373   6.543  10.541
91729SOL    HW277027   0.269   6.632  10.476
91730SOL     OW77028  14.632   3.919  10.815
91730SOL    HW177029  14.656   3.925  10.907
91730SOL    HW277030  14.596   3.831  10.805
91731SOL     OW77031   8.996   3.934  11.328
91731SOL    HW177032   8.945   3.898  11.401
91731SOL    HW277033   9.004   4.027  11.348
91732SOL     OW77034   1.976   4.723  11.074
91732SOL    HW177035   2.041   4.663  11.037
91732SOL    HW277036   1.899   4.714  11.018
91733SOL     OW77037   9.282  12.706   8.915
91733SOL    HW177038   9.224  12.762   8.967
91733SOL    HW277039   9.365  12.754   8.911
91734SOL     OW77040   1.352   6.534   9.558
91734SOL    HW177041   1.427   6.477   9.539
91734SOL    HW277042   1.290   6.517   9.487
91735SOL     OW77043   8.998  11.550   2.335
91735SOL    HW177044   9.001  11.561   2.430
91735SOL    HW277045   8.913  11.586   2.310
91736SOL     OW77046   7.983   8.227   2.272
91736SOL    HW177047   8.057   8.178   2.307
91736SOL    HW277048   8.023   8.292   2.214
91737SOL     OW77049  11.460  13.163   6.513
91737SOL    HW177050  11.387  13.214   6.547
91737SOL    HW277051  11.427  13.074   6.506
91738SOL     OW77052  11.577   1.709  13.713
91738SOL    HW177053  11.507   1.709  13.648
91738SOL    HW277054  11.629   1.786  13.692
91739SOL     OW77055  12.173   7.768  13.713
91739SOL    HW177056  12.145   7.764  13.805
91739SOL    HW277057  12.120   7.701  13.670
91740SOL     OW77058   6.847   7.407   3.240
91740SOL    HW177059   6.908   7.414   3.168
91740SOL    HW277060   6.806   7.321   3.229
91741SOL     OW77061   7.611   3.728   0.563
91741SOL    HW177062   7.575   3.804   0.608
91741SOL    HW277063   7.706   3.741   0.568
91742SOL     OW77064   7.416  11.961   5.945
91742SOL    HW177065   7.336  11.908   5.939
91742SOL    HW277066   7.475  11.908   5.999
91743SOL     OW77067   2.051  14.491   9.053
91743SOL    HW177068   2.119  14.425   9.035
91743SOL    HW277069   2.003  14.456   9.128
91744SOL     OW77070   0.810   8.408   0.680
91744SOL    HW177071   0.715   8.409   0.669
91744SOL    HW277072   0.836   8.319   0.658
91745SOL     OW77073  14.236   6.967   8.742
91745SOL    HW177074  14.281   6.944   8.823
91745SOL    HW277075  14.305   7.004   8.686
91746SOL     OW77076   7.564   8.065   6.990
91746SOL    HW177077   7.611   7.996   7.037
91746SOL    HW277078   7.472   8.052   7.014
91747SOL     OW77079   4.072   7.434   4.999
91747SOL    HW177080   4.125   7.358   5.025
91747SOL    HW277081   4.136   7.498   4.967
91748SOL     OW77082   0.298   0.230  12.128
91748SOL    HW177083   0.338   0.143  12.129
91748SOL    HW277084   0.372   0.290  12.141
91749SOL     OW77085   2.193  11.481  12.697
91749SOL    HW177086   2.116  11.459  12.751
91749SOL    HW277087   2.268  11.454  12.750
91750SOL     OW77088   8.190   9.483   6.283
91750SOL    HW177089   8.178   9.569   6.324
91750SOL    HW277090   8.166   9.498   6.191
91751SOL     OW77091   8.925   9.154   1.769
91751SOL    HW177092   8.942   9.096   1.694
91751SOL    HW277093   8.985   9.123   1.837
91752SOL     OW77094   2.841  11.586   7.751
91752SOL    HW177095   2.756  11.631   7.749
91752SOL    HW277096   2.818  11.495   7.770
91753SOL     OW77097   3.798  14.154   0.831
91753SOL    HW177098   3.747  14.153   0.749
91753SOL    HW277099   3.761  14.083   0.883
91754SOL     OW77100   5.759  10.133   2.124
91754SOL    HW177101   5.790  10.221   2.100
91754SOL    HW277102   5.682  10.120   2.068
91755SOL     OW77103  11.942   1.972   1.610
91755SOL    HW177104  11.988   2.022   1.678
91755SOL    HW277105  11.916   1.891   1.653
91756SOL     OW77106  13.935  12.848   7.849
91756SOL    HW177107  13.902  12.850   7.939
91756SOL    HW277108  13.990  12.926   7.842
91757SOL     OW77109   8.125  11.261   5.967
91757SOL    HW177110   8.125  11.237   6.059
91757SOL    HW277111   8.217  11.273   5.944
91758SOL     OW77112  10.698  12.621  12.056
91758SOL    HW177113  10.631  12.621  11.988
91758SOL    HW277114  10.711  12.713  12.077
91759SOL     OW77115  11.407   8.219   1.728
91759SOL    HW177116  11.439   8.302   1.693
91759SOL    HW277117  11.323   8.206   1.685
91760SOL     OW77118   3.518   8.731   6.405
91760SOL    HW177119   3.440   8.744   6.351
91760SOL    HW277120   3.590   8.760   6.349
91761SOL     OW77121   7.322  12.937   4.077
91761SOL    HW177122   7.244  12.886   4.059
91761SOL    HW277123   7.392  12.871   4.086
91762SOL     OW77124   2.809   5.061   7.674
91762SOL    HW177125   2.816   5.122   7.747
91762SOL    HW277126   2.897   5.023   7.666
91763SOL     OW77127   4.594   2.856   7.792
91763SOL    HW177128   4.552   2.929   7.748
91763SOL    HW277129   4.535   2.782   7.778
91764SOL     OW77130  10.884  10.159   4.353
91764SOL    HW177131  10.827  10.215   4.300
91764SOL    HW277132  10.825  10.117   4.415
91765SOL     OW77133   2.298   6.147   8.098
91765SOL    HW177134   2.234   6.082   8.069
91765SOL    HW277135   2.249   6.203   8.159
91766SOL     OW77136  13.226   2.976   6.874
91766SOL    HW177137  13.290   2.911   6.900
91766SOL    HW277138  13.253   3.001   6.785
91767SOL     OW77139   8.813  12.134   4.241
91767SOL    HW177140   8.867  12.113   4.165
91767SOL    HW277141   8.829  12.226   4.257
91768SOL     OW77142  10.386   1.928   1.395
91768SOL    HW177143  10.445   1.959   1.464
91768SOL    HW277144  10.308   1.981   1.404
91769SOL     OW77145   6.267  10.805   1.976
91769SOL    HW177146   6.220  10.860   1.914
91769SOL    HW277147   6.302  10.733   1.922
91770SOL     OW77148  13.529   4.316   3.157
91770SOL    HW177149  13.541   4.224   3.132
91770SOL    HW277150  13.547   4.365   3.077
91771SOL     OW77151   7.546   8.059   6.724
91771SOL    HW177152   7.556   8.063   6.820
91771SOL    HW277153   7.540   8.151   6.698
91772SOL     OW77154  10.753   4.489   4.627
91772SOL    HW177155  10.666   4.525   4.639
91772SOL    HW277156  10.759   4.417   4.690
91773SOL     OW77157  11.222  10.015   8.024
91773SOL    HW177158  11.204   9.929   7.987
91773SOL    HW277159  11.181  10.076   7.963
91774SOL     OW77160   6.184  12.750   2.735
91774SOL    HW177161   6.187  12.656   2.715
91774SOL    HW277162   6.123  12.757   2.809
91775SOL     OW77163   5.466   6.948   1.146
91775SOL    HW177164   5.422   6.977   1.226
91775SOL    HW277165   5.557   6.936   1.172
91776SOL     OW77166   1.894   8.902   7.734
91776SOL    HW177167   1.925   8.846   7.805
91776SOL    HW277168   1.820   8.854   7.696
91777SOL     OW77169   8.955   3.259   1.549
91777SOL    HW177170   8.886   3.326   1.545
91777SOL    HW277171   8.943   3.208   1.469
91778SOL     OW77172   3.815  13.516  14.662
91778SOL    HW177173   3.827  13.430  14.703
91778SOL    HW277174   3.732  13.547  14.698
91779SOL     OW77175   9.116   2.639  10.233
91779SOL    HW177176   9.141   2.547  10.224
91779SOL    HW277177   9.021   2.637  10.245
91780SOL     OW77178  14.191  14.299   6.381
91780SOL    HW177179  14.099  14.276   6.393
91780SOL    HW277180  14.238  14.244   6.443
91781SOL     OW77181  13.816  12.061  12.652
91781SOL    HW177182  13.826  12.131  12.587
91781SOL    HW277183  13.903  12.052  12.690
91782SOL     OW77184   7.780   5.122   4.924
91782SOL    HW177185   7.736   5.039   4.945
91782SOL    HW277186   7.827   5.105   4.843
91783SOL     OW77187   3.701   9.233   0.644
91783SOL    HW177188   3.787   9.195   0.625
91783SOL    HW277189   3.652   9.162   0.685
91784SOL     OW77190   4.093  12.401   1.823
91784SOL    HW177191   4.041  12.397   1.742
91784SOL    HW277192   4.142  12.318   1.824
91785SOL     OW77193   0.988  12.669   0.931
91785SOL    HW177194   0.909  12.621   0.956
91785SOL    HW277195   0.964  12.713   0.850
91786SOL     OW77196   3.912   9.199  13.339
91786SOL    HW177197   3.850   9.141  13.294
91786SOL    HW277198   3.861   9.237  13.411
91787SOL     OW77199  13.371  11.639  11.691
91787SOL    HW177200  13.393  11.693  11.616
91787SOL    HW277201  13.408  11.685  11.767
91788SOL     OW77202   9.063   7.323   4.238
91788SOL    HW177203   8.972   7.316   4.267
91788SOL    HW277204   9.096   7.233   4.241
91789SOL     OW77205  12.294   5.335  12.458
91789SOL    HW177206  12.338   5.277  12.519
91789SOL    HW277207  12.319   5.303  12.371
91790SOL     OW77208   6.511   4.470   8.186
91790SOL    HW177209   6.472   4.557   8.176
91790SOL    HW277210   6.590   4.485   8.237
91791SOL     OW77211   9.380  12.825  12.861
91791SOL    HW177212   9.376  12.747  12.917
91791SOL    HW277213   9.379  12.899  12.922
91792SOL     OW77214   4.363   5.239   5.510
91792SOL    HW177215   4.309   5.316   5.529
91792SOL    HW277216   4.418   5.266   5.436
91793SOL     OW77217   9.261   3.599  12.604
91793SOL    HW177218   9.250   3.692  12.626
91793SOL    HW277219   9.354   3.591  12.584
91794SOL     OW77220  10.389  14.663   4.530
91794SOL    HW177221  10.449  14.697   4.463
91794SOL    HW277222  10.354  14.582   4.492
91795SOL     OW77223  14.488   3.390   4.988
91795SOL    HW177224  14.574   3.405   4.950
91795SOL    HW277225  14.442   3.336   4.924
91796SOL     OW77226  12.252  10.051  13.150
91796SOL    HW177227  12.274  10.003  13.070
91796SOL    HW277228  12.180  10.109  13.123
91797SOL     OW77229   3.738   2.379   1.558
91797SOL    HW177230   3.779   2.385   1.472
91797SOL    HW277231   3.761   2.462   1.601
91798SOL     OW77232  10.803   1.828   7.358
91798SOL    HW177233  10.745   1.888   7.405
91798SOL    HW277234  10.880   1.821   7.413
91799SOL     OW77235   3.465  10.313  13.302
91799SOL    HW177236   3.401  10.382  13.315
91799SOL    HW277237   3.524  10.347  13.235
91800SOL     OW77238   6.593   6.394   9.448
91800SOL    HW177239   6.616   6.430   9.533
91800SOL    HW277240   6.501   6.419   9.435
91801SOL     OW77241  13.791   6.562  14.534
91801SOL    HW177242  13.812   6.654  14.517
91801SOL    HW277243  13.732   6.538  14.462
91802SOL     OW77244   4.606   1.149   7.081
91802SOL    HW177245   4.545   1.136   7.153
91802SOL    HW277246   4.582   1.234   7.043
91803SOL     OW77247  12.441  13.909   6.468
91803SOL    HW177248  12.398  13.992   6.488
91803SOL    HW277249  12.513  13.933   6.410
91804SOL     OW77250  11.970   7.776   7.669
91804SOL    HW177251  11.996   7.861   7.705
91804SOL    HW277252  12.000   7.777   7.579
91805SOL     OW77253  12.393  14.697   7.980
91805SOL    HW177254  12.440  14.669   8.059
91805SOL    HW277255  12.303  14.711   8.010
91806SOL     OW77256   2.249  12.358  12.605
91806SOL    HW177257   2.160  12.389  12.617
91806SOL    HW277258   2.304  12.436  12.617
91807SOL     OW77259  14.476   8.066   2.334
91807SOL    HW177260  14.569   8.046   2.325
91807SOL    HW277261  14.432   8.006   2.275
91808SOL     OW77262  13.714   3.856   1.421
91808SOL    HW177263  13.761   3.928   1.462
91808SOL    HW277264  13.624   3.888   1.413
91809SOL     OW77265   1.781  14.459   0.582
91809SOL    HW177266   1.721  14.419   0.519
91809SOL    HW277267   1.814  14.385   0.635
91810SOL     OW77268   9.204   2.522  13.519
91810SOL    HW177269   9.269   2.451  13.520
91810SOL    HW277270   9.122   2.479  13.495
91811SOL     OW77271   7.916   7.124   0.320
91811SOL    HW177272   7.981   7.094   0.383
91811SOL    HW277273   7.849   7.056   0.319
91812SOL     OW77274   1.071   6.746   2.275
91812SOL    HW177275   1.085   6.764   2.368
91812SOL    HW277276   1.012   6.817   2.246
91813SOL     OW77277   7.249  12.685  12.929
91813SOL    HW177278   7.199  12.762  12.954
91813SOL    HW277279   7.336  12.699  12.965
91814SOL     OW77280   8.111  13.205  11.541
91814SOL    HW177281   8.149  13.146  11.606
91814SOL    HW277282   8.166  13.194  11.463
91815SOL     OW77283   2.039   5.018   5.513
91815SOL    HW177284   2.020   4.939   5.564
91815SOL    HW277285   2.105   4.990   5.449
91816SOL     OW77286   8.170   9.928  10.828
91816SOL    HW177287   8.211   9.899  10.746
91816SOL    HW277288   8.080   9.897  10.821
91817SOL     OW77289  12.591   7.790  12.198
91817SOL    HW177290  12.617   7.764  12.286
91817SOL    HW277291  12.624   7.720  12.142
91818SOL     OW77292   8.326  14.821   3.298
91818SOL    HW177293   8.421  14.821   3.315
91818SOL    HW277294   8.296  14.737   3.332
91819SOL     OW77295  12.990  14.171   1.495
91819SOL    HW177296  12.908  14.208   1.529
91819SOL    HW277297  13.044  14.247   1.475
91820SOL     OW77298  14.260  13.188  12.784
91820SOL    HW177299  14.315  13.218  12.856
91820SOL    HW277300  14.291  13.237  12.708
91821SOL     OW77301  10.898  10.186  10.148
91821SOL    HW177302  10.950  10.253  10.102
91821SOL    HW277303  10.822  10.234  10.180
91822SOL     OW77304   4.630   1.537  14.112
91822SOL    HW177305   4.543   1.501  14.128
91822SOL    HW277306   4.619   1.595  14.036
91823SOL     OW77307  13.591   7.916   7.292
91823SOL    HW177308  13.498   7.893   7.283
91823SOL    HW277309  13.620   7.932   7.202
91824SOL     OW77310  11.411   3.050  14.482
91824SOL    HW177311  11.381   3.091  14.563
91824SOL    HW277312  11.330   3.024  14.437
91825SOL     OW77313   8.048  11.448   8.716
91825SOL    HW177314   8.130  11.439   8.666
91825SOL    HW277315   7.991  11.380   8.680
91826SOL     OW77316   1.281  11.775   1.188
91826SOL    HW177317   1.269  11.870   1.185
91826SOL    HW277318   1.359  11.758   1.135
91827SOL     OW77319  14.875  13.248   5.303
91827SOL    HW177320  14.863  13.230   5.397
91827SOL    HW277321  14.832  13.175   5.259
91828SOL     OW77322   7.724  11.038   3.976
91828SOL    HW177323   7.766  10.978   4.037
91828SOL    HW277324   7.796  11.074   3.924
91829SOL     OW77325  10.109   3.513   9.328
91829SOL    HW177326  10.175   3.556   9.382
91829SOL    HW277327  10.155   3.491   9.247
91830SOL     OW77328  11.005   9.840  11.005
91830SOL    HW177329  10.973   9.923  11.040
91830SOL    HW277330  11.100   9.851  10.999
91831SOL     OW77331  10.012  10.492   6.737
91831SOL    HW177332   9.943  10.558   6.736
91831SOL    HW277333  10.087  10.534   6.697
91832SOL     OW77334  13.250   2.196   4.618
91832SOL    HW177335  13.225   2.217   4.708
91832SOL    HW277336  13.327   2.140   4.627
91833SOL     OW77337   8.886   1.361   1.998
91833SOL    HW177338   8.809   1.406   2.032
91833SOL    HW277339   8.871   1.268   2.019
91834SOL     OW77340   9.352  11.059   1.635
91834SOL    HW177341   9.384  10.973   1.661
91834SOL    HW277342   9.394  11.120   1.697
91835SOL     OW77343  11.188   8.996   6.305
91835SOL    HW177344  11.276   8.965   6.323
91835SOL    HW277345  11.141   8.985   6.387
91836SOL     OW77346   2.211   5.797   8.173
91836SOL    HW177347   2.186   5.705   8.174
91836SOL    HW277348   2.291   5.801   8.121
91837SOL     OW77349  12.788   4.692   0.762
91837SOL    HW177350  12.818   4.715   0.850
91837SOL    HW277351  12.772   4.598   0.766
91838SOL     OW77352  14.681  11.126   3.986
91838SOL    HW177353  14.589  11.104   3.998
91838SOL    HW277354  14.723  11.101   4.068
91839SOL     OW77355   3.369   5.608   6.388
91839SOL    HW177356   3.334   5.565   6.310
91839SOL    HW277357   3.427   5.676   6.354
91840SOL     OW77358   8.395   3.843   3.753
91840SOL    HW177359   8.320   3.783   3.750
91840SOL    HW277360   8.430   3.832   3.841
91841SOL     OW77361   2.099  11.940  10.768
91841SOL    HW177362   2.181  11.911  10.728
91841SOL    HW277363   2.038  11.948  10.695
91842SOL     OW77364   9.031   4.130   2.931
91842SOL    HW177365   9.037   4.038   2.907
91842SOL    HW277366   9.080   4.176   2.863
91843SOL     OW77367   2.015  11.493   4.525
91843SOL    HW177368   2.058  11.577   4.541
91843SOL    HW277369   2.065  11.430   4.578
91844SOL     OW77370  10.026   4.109  12.633
91844SOL    HW177371  10.072   4.191  12.654
91844SOL    HW277372   9.933   4.131  12.643
91845SOL     OW77373   1.479  11.556   3.990
91845SOL    HW177374   1.431  11.479   4.022
91845SOL    HW277375   1.504  11.532   3.900
91846SOL     OW77376  14.807   1.185  13.600
91846SOL    HW177377  14.816   1.248  13.529
91846SOL    HW277378  14.860   1.221  13.671
91847SOL     OW77379  13.746  10.649   5.838
91847SOL    HW177380  13.682  10.578   5.848
91847SOL    HW277381  13.717  10.717   5.898
91848SOL     OW77382   9.405   6.014  10.262
91848SOL    HW177383   9.334   6.075  10.282
91848SOL    HW277384   9.483   6.068  10.255
91849SOL     OW77385   2.376   6.965   7.794
91849SOL    HW177386   2.294   6.983   7.840
91849SOL    HW277387   2.420   7.051   7.789
91850SOL     OW77388  14.137  12.099  11.324
91850SOL    HW177389  14.129  12.011  11.287
91850SOL    HW277390  14.122  12.086  11.418
91851SOL     OW77391   3.756   2.699   4.582
91851SOL    HW177392   3.831   2.647   4.553
91851SOL    HW277393   3.746   2.766   4.515
91852SOL     OW77394  10.674  11.106   5.005
91852SOL    HW177395  10.642  11.152   5.083
91852SOL    HW277396  10.769  11.109   5.012
91853SOL     OW77397   4.481   7.658   4.206
91853SOL    HW177398   4.458   7.724   4.272
91853SOL    HW277399   4.565   7.624   4.235
91854SOL     OW77400  14.256   1.195   2.674
91854SOL    HW177401  14.172   1.238   2.690
91854SOL    HW277402  14.316   1.235   2.737
91855SOL     OW77403   1.774  13.297   7.772
91855SOL    HW177404   1.763  13.392   7.774
91855SOL    HW277405   1.803  13.278   7.683
91856SOL     OW77406   4.852   6.760  13.437
91856SOL    HW177407   4.760   6.788  13.442
91856SOL    HW277408   4.856   6.705  13.359
91857SOL     OW77409   8.846   7.185   4.018
91857SOL    HW177410   8.768   7.200   4.072
91857SOL    HW277411   8.816   7.200   3.929
91858SOL     OW77412  10.775   5.010  11.648
91858SOL    HW177413  10.783   4.962  11.730
91858SOL    HW277414  10.840   5.080  11.654
91859SOL     OW77415   5.506  10.626  14.579
91859SOL    HW177416   5.501  10.548  14.634
91859SOL    HW277417   5.561  10.600  14.506
91860SOL     OW77418  12.369   6.681  10.174
91860SOL    HW177419  12.320   6.748  10.222
91860SOL    HW277420  12.345   6.599  10.216
91861SOL     OW77421   9.691   7.407   6.743
91861SOL    HW177422   9.772   7.372   6.780
91861SOL    HW277423   9.704   7.403   6.648
91862SOL     OW77424  11.794   7.731   9.261
91862SOL    HW177425  11.722   7.691   9.213
91862SOL    HW277426  11.855   7.760   9.193
91863SOL     OW77427  11.320  14.562  11.011
91863SOL    HW177428  11.396  14.603  11.051
91863SOL    HW277429  11.354  14.486  10.964
91864SOL     OW77430   5.717   8.803   9.156
91864SOL    HW177431   5.727   8.797   9.062
91864SOL    HW277432   5.622   8.799   9.171
91865SOL     OW77433   6.278  12.600   4.875
91865SOL    HW177434   6.231  12.675   4.912
91865SOL    HW277435   6.217  12.563   4.811
91866SOL     OW77436   4.128  12.077   7.646
91866SOL    HW177437   4.108  12.165   7.675
91866SOL    HW277438   4.219  12.082   7.616
91867SOL     OW77439   1.507   2.262   8.889
91867SOL    HW177440   1.594   2.225   8.878
91867SOL    HW277441   1.452   2.215   8.825
91868SOL     OW77442   0.753   1.296   9.943
91868SOL    HW177443   0.707   1.338  10.016
91868SOL    HW277444   0.686   1.283   9.876
91869SOL     OW77445   7.342  12.010   8.803
91869SOL    HW177446   7.411  11.967   8.752
91869SOL    HW277447   7.388  12.074   8.857
91870SOL     OW77448  14.346  10.808   4.923
91870SOL    HW177449  14.384  10.893   4.945
91870SOL    HW277450  14.288  10.788   4.997
91871SOL     OW77451  10.727   1.005   7.244
91871SOL    HW177452  10.731   0.910   7.246
91871SOL    HW277453  10.634   1.026   7.249
91872SOL     OW77454   6.767  13.046   9.499
91872SOL    HW177455   6.845  13.005   9.463
91872SOL    HW277456   6.735  12.985   9.564
91873SOL     OW77457  11.140   5.155  13.390
91873SOL    HW177458  11.063   5.110  13.354
91873SOL    HW277459  11.153   5.229  13.331
91874SOL     OW77460   4.852  12.808   2.742
91874SOL    HW177461   4.916  12.863   2.788
91874SOL    HW277462   4.832  12.857   2.662
91875SOL     OW77463  14.247   8.203   0.920
91875SOL    HW177464  14.243   8.289   0.878
91875SOL    HW277465  14.158   8.190   0.953
91876SOL     OW77466   6.138   1.690  14.875
91876SOL    HW177467   6.137   1.661  14.784
91876SOL    HW277468   6.195   1.627   0.043
91877SOL     OW77469  11.628   6.812   9.107
91877SOL    HW177470  11.571   6.738   9.126
91877SOL    HW277471  11.625   6.866   9.186
91878SOL     OW77472   1.511  14.792  10.883
91878SOL    HW177473   1.418  14.776  10.869
91878SOL    HW277474   1.518  14.806  10.978
91879SOL     OW77475   1.208  11.542   5.974
91879SOL    HW177476   1.232  11.630   6.003
91879SOL    HW277477   1.287  11.489   5.990
91880SOL     OW77478   6.959  11.371  13.304
91880SOL    HW177479   6.912  11.335  13.229
91880SOL    HW277480   6.895  11.367  13.376
91881SOL     OW77481   0.649   2.815   0.688
91881SOL    HW177482   0.693   2.879   0.743
91881SOL    HW277483   0.626   2.744   0.747
91882SOL     OW77484   8.269   1.175   2.244
91882SOL    HW177485   8.326   1.132   2.308
91882SOL    HW277486   8.322   1.179   2.165
91883SOL     OW77487  13.108   8.938  12.600
91883SOL    HW177488  13.042   8.990  12.646
91883SOL    HW277489  13.131   8.991  12.523
91884SOL     OW77490   9.207   4.051   5.724
91884SOL    HW177491   9.139   3.989   5.752
91884SOL    HW277492   9.168   4.137   5.741
91885SOL     OW77493   2.984   2.629  11.871
91885SOL    HW177494   2.961   2.690  11.801
91885SOL    HW277495   3.003   2.546  11.827
91886SOL     OW77496   8.568   3.314  14.037
91886SOL    HW177497   8.549   3.316  13.943
91886SOL    HW277498   8.489   3.275  14.076
91887SOL     OW77499   7.177  13.252   8.569
91887SOL    HW177500   7.204  13.341   8.591
91887SOL    HW277501   7.120  13.262   8.493
91888SOL     OW77502   9.900   4.693   4.125
91888SOL    HW177503   9.931   4.762   4.067
91888SOL    HW277504   9.831   4.649   4.076
91889SOL     OW77505   3.031  11.737  10.165
91889SOL    HW177506   2.999  11.655  10.125
91889SOL    HW277507   3.048  11.713  10.257
91890SOL     OW77508   1.138   2.844   6.394
91890SOL    HW177509   1.142   2.816   6.485
91890SOL    HW277510   1.198   2.786   6.348
91891SOL     OW77511   0.158   4.146  10.093
91891SOL    HW177512   0.212   4.183  10.163
91891SOL    HW277513   0.102   4.083  10.137
91892SOL     OW77514   3.612  11.060   5.524
91892SOL    HW177515   3.700  11.097   5.516
91892SOL    HW277516   3.580  11.053   5.434
91893SOL     OW77517  10.623   6.674   1.782
91893SOL    HW177518  10.673   6.698   1.860
91893SOL    HW277519  10.639   6.746   1.721
91894SOL     OW77520   6.328   4.476  11.896
91894SOL    HW177521   6.363   4.431  11.819
91894SOL    HW277522   6.405   4.501  11.946
91895SOL     OW77523   8.486  12.475   7.133
91895SOL    HW177524   8.459  12.465   7.224
91895SOL    HW277525   8.476  12.387   7.095
91896SOL     OW77526  13.464  10.282  10.148
91896SOL    HW177527  13.403  10.223  10.192
91896SOL    HW277528  13.535  10.226  10.119
91897SOL     OW77529   7.361   2.757   3.864
91897SOL    HW177530   7.456   2.762   3.874
91897SOL    HW277531   7.343   2.665   3.845
91898SOL     OW77532   9.545   9.609   8.342
91898SOL    HW177533   9.624   9.655   8.315
91898SOL    HW277534   9.480   9.678   8.354
91899SOL     OW77535   7.971  12.721   4.454
91899SOL    HW177536   8.012  12.766   4.527
91899SOL    HW277537   7.945  12.636   4.489
91900SOL     OW77538   9.012  14.244  10.220
91900SOL    HW177539   9.079  14.263  10.154
91900SOL    HW277540   9.061  14.224  10.300
91901SOL     OW77541  12.688  11.919   0.413
91901SOL    HW177542  12.690  11.867   0.494
91901SOL    HW277543  12.762  11.980   0.422
91902SOL     OW77544   0.015  10.256   9.337
91902SOL    HW177545   0.062  10.174   9.355
91902SOL    HW277546   0.072  10.303   9.276
91903SOL     OW77547   5.323   7.309   3.963
91903SOL    HW177548   5.331   7.341   3.873
91903SOL    HW277549   5.265   7.371   4.006
91904SOL     OW77550   9.706   6.649  14.464
91904SOL    HW177551   9.763   6.724  14.449
91904SOL    HW277552   9.662   6.668  14.547
91905SOL     OW77553   8.535   0.956  10.213
91905SOL    HW177554   8.551   0.912  10.129
91905SOL    HW277555   8.482   0.894  10.263
91906SOL     OW77556  12.236   4.537  11.718
91906SOL    HW177557  12.301   4.479  11.680
91906SOL    HW277558  12.192   4.484  11.785
91907SOL     OW77559  14.269  12.383   4.156
91907SOL    HW177560  14.298  12.393   4.247
91907SOL    HW277561  14.349  12.395   4.104
91908SOL     OW77562  11.588  10.388   0.765
91908SOL    HW177563  11.614  10.459   0.824
91908SOL    HW277564  11.667  10.368   0.715
91909SOL     OW77565   9.883  13.621   1.684
91909SOL    HW177566   9.877  13.531   1.716
91909SOL    HW277567   9.948  13.663   1.740
91910SOL     OW77568   7.955   7.290   2.556
91910SOL    HW177569   7.946   7.238   2.636
91910SOL    HW277570   8.048   7.310   2.551
91911SOL     OW77571  12.184   6.415   3.589
91911SOL    HW177572  12.278   6.432   3.583
91911SOL    HW277573  12.143   6.491   3.548
91912SOL     OW77574  12.613   9.938  13.611
91912SOL    HW177575  12.633   9.947  13.518
91912SOL    HW277576  12.578   9.849  13.620
91913SOL     OW77577   0.341   1.146   0.003
91913SOL    HW177578   0.293   1.068   0.031
91913SOL    HW277579   0.433   1.125   0.018
91914SOL     OW77580   1.396   1.654   3.049
91914SOL    HW177581   1.488   1.637   3.073
91914SOL    HW277582   1.398   1.665   2.954
91915SOL     OW77583   8.282   6.349  14.790
91915SOL    HW177584   8.223   6.424  14.779
91915SOL    HW277585   8.370   6.385  14.779
91916SOL     OW77586   2.437   6.245   9.235
91916SOL    HW177587   2.527   6.275   9.223
91916SOL    HW277588   2.395   6.315   9.285
91917SOL     OW77589   7.516   2.195  11.512
91917SOL    HW177590   7.504   2.266  11.448
91917SOL    HW277591   7.602   2.211  11.550
91918SOL     OW77592   4.557  14.231  10.400
91918SOL    HW177593   4.496  14.295  10.361
91918SOL    HW277594   4.626  14.285  10.439
91919SOL     OW77595  13.577   0.969   6.106
91919SOL    HW177596  13.580   0.956   6.201
91919SOL    HW277597  13.662   0.938   6.075
91920SOL     OW77598   7.757   0.982  11.465
91920SOL    HW177599   7.849   0.960  11.476
91920SOL    HW277600   7.710   0.900  11.482
91921SOL     OW77601   5.586   9.557  10.358
91921SOL    HW177602   5.525   9.578  10.429
91921SOL    HW277603   5.657   9.509  10.400
91922SOL     OW77604   8.838   4.572   0.600
91922SOL    HW177605   8.826   4.662   0.570
91922SOL    HW277606   8.758   4.527   0.572
91923SOL     OW77607   4.299   9.478  10.567
91923SOL    HW177608   4.377   9.530  10.548
91923SOL    HW277609   4.252   9.528  10.633
91924SOL     OW77610   9.822   1.204   9.808
91924SOL    HW177611   9.811   1.253   9.727
91924SOL    HW277612   9.805   1.268   9.878
91925SOL     OW77613   8.962   6.741   5.917
91925SOL    HW177614   8.980   6.831   5.891
91925SOL    HW277615   8.868   6.737   5.930
91926SOL     OW77616  10.982  13.373  12.268
91926SOL    HW177617  11.046  13.347  12.334
91926SOL    HW277618  10.897  13.365  12.312
91927SOL     OW77619   8.773   3.290   4.743
91927SOL    HW177620   8.833   3.324   4.810
91927SOL    HW277621   8.690   3.277   4.790
91928SOL     OW77622   0.085   9.892  13.432
91928SOL    HW177623   0.124   9.843  13.359
91928SOL    HW277624   0.150   9.886  13.502
91929SOL     OW77625   8.691   6.492   6.973
91929SOL    HW177626   8.710   6.517   6.882
91929SOL    HW277627   8.608   6.535   6.993
91930SOL     OW77628  12.534   7.527   3.864
91930SOL    HW177629  12.552   7.620   3.875
91930SOL    HW277630  12.541   7.512   3.769
91931SOL     OW77631  13.561  11.717  14.365
91931SOL    HW177632  13.625  11.656  14.400
91931SOL    HW277633  13.480  11.666  14.360
91932SOL     OW77634  14.433   0.088   3.792
91932SOL    HW177635  14.445   0.109   3.884
91932SOL    HW277636  14.485   0.153   3.745
91933SOL     OW77637  11.176  13.568  11.411
91933SOL    HW177638  11.087  13.600  11.427
91933SOL    HW277639  11.197  13.515  11.488
91934SOL     OW77640   0.102  13.920   1.765
91934SOL    HW177641   0.090  13.921   1.670
91934SOL    HW277642   0.081  14.010   1.792
91935SOL     OW77643  13.387   8.078   9.335
91935SOL    HW177644  13.419   8.164   9.361
91935SOL    HW277645  13.305   8.097   9.289
91936SOL     OW77646   8.153   5.668   8.663
91936SOL    HW177647   8.186   5.594   8.715
91936SOL    HW277648   8.217   5.738   8.679
91937SOL     OW77649   1.427   5.294  10.198
91937SOL    HW177650   1.393   5.236  10.130
91937SOL    HW277651   1.365   5.287  10.270
91938SOL     OW77652   5.503   9.908  12.066
91938SOL    HW177653   5.444   9.882  11.996
91938SOL    HW277654   5.582   9.937  12.020
91939SOL     OW77655   7.128   6.043   3.313
91939SOL    HW177656   7.050   6.000   3.346
91939SOL    HW277657   7.190   6.041   3.386
91940SOL     OW77658   7.791   1.309   4.358
91940SOL    HW177659   7.810   1.278   4.446
91940SOL    HW277660   7.739   1.388   4.371
91941SOL     OW77661   9.645  13.557   4.587
91941SOL    HW177662   9.671  13.468   4.562
91941SOL    HW277663   9.651  13.557   4.683
91942SOL     OW77664  13.161   4.788   6.527
91942SOL    HW177665  13.224   4.775   6.456
91942SOL    HW277666  13.075   4.775   6.486
91943SOL     OW77667   3.453  12.750  14.502
91943SOL    HW177668   3.448  12.822  14.564
91943SOL    HW277669   3.406  12.782  14.424
91944SOL     OW77670   3.364   9.121   1.851
91944SOL    HW177671   3.432   9.069   1.809
91944SOL    HW277672   3.409   9.199   1.883
91945SOL     OW77673  12.892  10.087   3.678
91945SOL    HW177674  12.918  10.151   3.613
91945SOL    HW277675  12.948  10.011   3.662
91946SOL     OW77676   8.512  13.322   2.947
91946SOL    HW177677   8.422  13.354   2.952
91946SOL    HW277678   8.566  13.398   2.970
91947SOL     OW77679   9.736  10.950  12.093
91947SOL    HW177680   9.659  10.896  12.072
91947SOL    HW277681   9.730  10.964  12.187
91948SOL     OW77682   1.120  10.215   3.699
91948SOL    HW177683   1.130  10.218   3.794
91948SOL    HW277684   1.195  10.264   3.666
91949SOL     OW77685   3.648   2.649  11.209
91949SOL    HW177686   3.627   2.616  11.296
91949SOL    HW277687   3.572   2.624  11.156
91950SOL     OW77688  12.680   4.884   2.128
91950SOL    HW177689  12.714   4.843   2.207
91950SOL    HW277690  12.756   4.895   2.071
91951SOL     OW77691  11.875  10.225   9.708
91951SOL    HW177692  11.914  10.313   9.706
91951SOL    HW277693  11.860  10.204   9.616
91952SOL     OW77694   7.481   8.143   1.468
91952SOL    HW177695   7.452   8.066   1.420
91952SOL    HW277696   7.534   8.193   1.405
91953SOL     OW77697   9.991  11.570  13.235
91953SOL    HW177698   9.900  11.557  13.208
91953SOL    HW277699  10.008  11.662  13.218
91954SOL     OW77700  11.726   5.598   6.031
91954SOL    HW177701  11.803   5.571   6.081
91954SOL    HW277702  11.652   5.575   6.087
91955SOL     OW77703   5.175  14.813  10.193
91955SOL    HW177704   5.098  14.840  10.143
91955SOL    HW277705   5.203  14.732  10.152
91956SOL     OW77706   3.529  14.655  11.014
91956SOL    HW177707   3.492  14.742  11.027
91956SOL    HW277708   3.460  14.595  11.044
91957SOL     OW77709   6.648   4.434   0.073
91957SOL    HW177710   6.644   4.527   0.094
91957SOL    HW277711   6.636   4.431  14.855
91958SOL     OW77712  11.440   5.690   5.372
91958SOL    HW177713  11.365   5.694   5.312
91958SOL    HW277714  11.401   5.669   5.457
91959SOL     OW77715   9.511   1.200  13.331
91959SOL    HW177716   9.569   1.213  13.255
91959SOL    HW277717   9.430   1.165  13.294
91960SOL     OW77718   0.569   2.260  14.109
91960SOL    HW177719   0.638   2.283  14.171
91960SOL    HW277720   0.488   2.271  14.159
91961SOL     OW77721   9.593   4.487  10.886
91961SOL    HW177722   9.584   4.582  10.878
91961SOL    HW277723   9.521   4.461  10.944
91962SOL     OW77724   5.442   2.540   7.616
91962SOL    HW177725   5.465   2.591   7.539
91962SOL    HW277726   5.362   2.581   7.649
91963SOL     OW77727   9.029   1.916   8.003
91963SOL    HW177728   9.063   2.005   7.994
91963SOL    HW277729   8.966   1.921   8.074
91964SOL     OW77730  11.204   7.160   8.087
91964SOL    HW177731  11.143   7.116   8.027
91964SOL    HW277732  11.150   7.183   8.162
91965SOL     OW77733  12.590  10.565  14.489
91965SOL    HW177734  12.502  10.597  14.509
91965SOL    HW277735  12.631  10.638  14.442
91966SOL     OW77736  13.571   7.894   1.125
91966SOL    HW177737  13.643   7.834   1.142
91966SOL    HW277738  13.499   7.859   1.178
91967SOL     OW77739   7.771  12.910   4.653
91967SOL    HW177740   7.853  12.887   4.610
91967SOL    HW277741   7.773  13.006   4.659
91968SOL     OW77742   3.011   4.385   2.569
91968SOL    HW177743   3.016   4.378   2.665
91968SOL    HW277744   2.987   4.297   2.540
91969SOL     OW77745  10.198   5.542   1.039
91969SOL    HW177746  10.184   5.563   1.131
91969SOL    HW277747  10.120   5.492   1.014
91970SOL     OW77748   2.239   1.410  11.450
91970SOL    HW177749   2.207   1.355  11.522
91970SOL    HW277750   2.170   1.474  11.437
91971SOL     OW77751   2.007   7.908   6.075
91971SOL    HW177752   2.083   7.953   6.039
91971SOL    HW277753   1.991   7.835   6.015
91972SOL     OW77754   4.004   1.569   7.791
91972SOL    HW177755   3.914   1.542   7.770
91972SOL    HW277756   4.056   1.489   7.783
91973SOL     OW77757   4.963   1.502  12.094
91973SOL    HW177758   4.875   1.510  12.131
91973SOL    HW277759   4.991   1.593  12.079
91974SOL     OW77760  11.872  13.501   9.272
91974SOL    HW177761  11.783  13.528   9.298
91974SOL    HW277762  11.920  13.494   9.354
91975SOL     OW77763   8.013  14.530   1.506
91975SOL    HW177764   8.081  14.530   1.574
91975SOL    HW277765   7.933  14.503   1.552
91976SOL     OW77766  12.988   9.977  10.754
91976SOL    HW177767  13.050  10.048  10.766
91976SOL    HW277768  13.031   9.901  10.793
91977SOL     OW77769  11.545   2.097   6.983
91977SOL    HW177770  11.586   2.174   7.023
91977SOL    HW277771  11.579   2.096   6.894
91978SOL     OW77772   1.785  13.203   8.151
91978SOL    HW177773   1.692  13.222   8.135
91978SOL    HW277774   1.791  13.108   8.149
91979SOL     OW77775   2.002   4.395   4.857
91979SOL    HW177776   2.022   4.379   4.765
91979SOL    HW277777   1.906   4.396   4.861
91980SOL     OW77778  12.277  13.881  11.758
91980SOL    HW177779  12.362  13.874  11.800
91980SOL    HW277780  12.285  13.829  11.678
91981SOL     OW77781   5.520   5.131   9.199
91981SOL    HW177782   5.435   5.113   9.159
91981SOL    HW277783   5.583   5.120   9.128
91982SOL     OW77784  11.439   5.204   3.405
91982SOL    HW177785  11.488   5.257   3.342
91982SOL    HW277786  11.506   5.161   3.458
91983SOL     OW77787   4.531  14.221  13.467
91983SOL    HW177788   4.623  14.201  13.484
91983SOL    HW277789   4.483  14.152  13.514
91984SOL     OW77790   6.815   8.822   9.132
91984SOL    HW177791   6.829   8.747   9.190
91984SOL    HW277792   6.741   8.869   9.171
91985SOL     OW77793   1.343  10.400   7.045
91985SOL    HW177794   1.367  10.345   6.971
91985SOL    HW277795   1.263  10.359   7.080
91986SOL     OW77796   7.581   9.165   9.412
91986SOL    HW177797   7.543   9.080   9.436
91986SOL    HW277798   7.575   9.216   9.493
91987SOL     OW77799   2.773  10.604   2.327
91987SOL    HW177800   2.706  10.597   2.395
91987SOL    HW277801   2.849  10.642   2.372
91988SOL     OW77802   8.023   3.383   0.225
91988SOL    HW177803   7.956   3.315   0.220
91988SOL    HW277804   8.074   3.360   0.303
91989SOL     OW77805   9.115  11.877   9.565
91989SOL    HW177806   9.155  11.963   9.552
91989SOL    HW277807   9.133  11.830   9.483
91990SOL     OW77808   0.437   2.493  13.868
91990SOL    HW177809   0.402   2.561  13.810
91990SOL    HW277810   0.528   2.483  13.840
91991SOL     OW77811   7.765   2.827   2.818
91991SOL    HW177812   7.758   2.846   2.911
91991SOL    HW277813   7.745   2.910   2.775
91992SOL     OW77814   9.231   0.096   4.563
91992SOL    HW177815   9.279   0.031   4.513
91992SOL    HW277816   9.293   0.168   4.574
91993SOL     OW77817   8.394   4.963   9.898
91993SOL    HW177818   8.404   5.021   9.973
91993SOL    HW277819   8.462   4.897   9.909
91994SOL     OW77820   8.023   8.283   4.472
91994SOL    HW177821   7.989   8.369   4.444
91994SOL    HW277822   8.089   8.261   4.407
91995SOL     OW77823   7.417   3.961   6.149
91995SOL    HW177824   7.322   3.956   6.133
91995SOL    HW277825   7.427   3.931   6.239
91996SOL     OW77826  12.034   1.042   6.924
91996SOL    HW177827  12.113   1.001   6.888
91996SOL    HW277828  11.994   0.973   6.978
91997SOL     OW77829   4.437  14.083   5.499
91997SOL    HW177830   4.506  14.019   5.517
91997SOL    HW277831   4.429  14.132   5.581
91998SOL     OW77832   5.959   0.230  10.376
91998SOL    HW177833   5.958   0.143  10.416
91998SOL    HW277834   6.035   0.230  10.318
91999SOL     OW77835   6.736  11.876   1.901
91999SOL    HW177836   6.818  11.831   1.881
91999SOL    HW277837   6.734  11.879   1.997
92000SOL     OW77838  14.280   0.354   0.346
92000SOL    HW177839  14.351   0.341   0.408
92000SOL    HW277840  14.298   0.439   0.306
92001SOL     OW77841   6.234  12.664   0.548
92001SOL    HW177842   6.181  12.587   0.526
92001SOL    HW277843   6.285  12.638   0.625
92002SOL     OW77844   4.917   9.271  12.649
92002SOL    HW177845   4.837   9.283  12.699
92002SOL    HW277846   4.974   9.219  12.706
92003SOL     OW77847   9.624   9.737   3.124
92003SOL    HW177848   9.566   9.661   3.127
92003SOL    HW277849   9.711   9.701   3.107
92004SOL     OW77850   5.717   4.297   3.763
92004SOL    HW177851   5.749   4.208   3.748
92004SOL    HW277852   5.778   4.335   3.826
92005SOL     OW77853   5.392  10.653   5.106
92005SOL    HW177854   5.471  10.610   5.140
92005SOL    HW277855   5.384  10.620   5.016
92006SOL     OW77856  12.466   2.873   3.619
92006SOL    HW177857  12.437   2.782   3.630
92006SOL    HW277858  12.396   2.914   3.568
92007SOL     OW77859  14.607   2.034  11.489
92007SOL    HW177860  14.603   2.017  11.583
92007SOL    HW277861  14.687   1.989  11.460
92008SOL     OW77862   1.310   7.725   0.028
92008SOL    HW177863   1.329   7.640   0.069
92008SOL    HW277864   1.354   7.789   0.084
92009SOL     OW77865   4.040   7.658   2.083
92009SOL    HW177866   4.004   7.673   1.996
92009SOL    HW277867   4.024   7.740   2.131
92010SOL     OW77868   1.018  14.779   4.902
92010SOL    HW177869   1.111  14.774   4.878
92010SOL    HW277870   0.991  14.688   4.913
92011SOL     OW77871  10.986   5.046   1.448
92011SOL    HW177872  11.055   4.998   1.493
92011SOL    HW277873  11.022   5.133   1.432
92012SOL     OW77874  13.379   2.627   2.111
92012SOL    HW177875  13.329   2.701   2.147
92012SOL    HW277876  13.314   2.576   2.062
92013SOL     OW77877   2.023  12.101   5.777
92013SOL    HW177878   1.991  12.144   5.698
92013SOL    HW277879   2.119  12.107   5.769
92014SOL     OW77880  11.367   4.718   7.838
92014SOL    HW177881  11.317   4.798   7.824
92014SOL    HW277882  11.390   4.719   7.931
92015SOL     OW77883   6.468   4.633   5.379
92015SOL    HW177884   6.426   4.719   5.372
92015SOL    HW277885   6.417   4.576   5.323
92016SOL     OW77886   0.710   5.409   6.299
92016SOL    HW177887   0.798   5.400   6.335
92016SOL    HW277888   0.723   5.418   6.205
92017SOL     OW77889   1.830  10.827   1.026
92017SOL    HW177890   1.842  10.917   0.995
92017SOL    HW277891   1.832  10.834   1.122
92018SOL     OW77892   5.877   4.762   2.427
92018SOL    HW177893   5.891   4.670   2.449
92018SOL    HW277894   5.920   4.811   2.498
92019SOL     OW77895   1.948   8.174   0.728
92019SOL    HW177896   1.990   8.214   0.804
92019SOL    HW277897   1.970   8.081   0.736
92020SOL     OW77898   5.277  13.572   1.328
92020SOL    HW177899   5.196  13.612   1.298
92020SOL    HW277900   5.263  13.478   1.319
92021SOL     OW77901  13.931   3.809   4.309
92021SOL    HW177902  13.980   3.874   4.258
92021SOL    HW277903  13.866   3.861   4.357
92022SOL     OW77904  12.394   9.836   4.135
92022SOL    HW177905  12.353   9.822   4.220
92022SOL    HW277906  12.321   9.845   4.074
92023SOL     OW77907   7.105  10.515   1.432
92023SOL    HW177908   7.109  10.467   1.515
92023SOL    HW277909   7.015  10.548   1.429
92024SOL     OW77910   8.497   5.398  12.073
92024SOL    HW177911   8.472   5.442  11.992
92024SOL    HW277912   8.572   5.447  12.106
92025SOL     OW77913  11.928  10.020   7.213
92025SOL    HW177914  11.947  10.031   7.306
92025SOL    HW277915  11.849   9.965   7.211
92026SOL     OW77916   5.893   6.946  13.543
92026SOL    HW177917   5.987   6.947  13.524
92026SOL    HW277918   5.886   6.895  13.624
92027SOL     OW77919   7.457   5.787  12.822
92027SOL    HW177920   7.473   5.705  12.869
92027SOL    HW277921   7.433   5.850  12.890
92028SOL     OW77922   5.336   9.115   5.721
92028SOL    HW177923   5.419   9.089   5.760
92028SOL    HW277924   5.343   9.088   5.630
92029SOL     OW77925   9.893   9.185   6.536
92029SOL    HW177926   9.835   9.199   6.461
92029SOL    HW277927   9.917   9.274   6.564
92030SOL     OW77928   9.169   9.495   7.147
92030SOL    HW177929   9.255   9.467   7.178
92030SOL    HW277930   9.186   9.570   7.091
92031SOL     OW77931   5.533   0.167   5.681
92031SOL    HW177932   5.448   0.144   5.642
92031SOL    HW277933   5.596   0.118   5.627
92032SOL     OW77934  13.312   1.438   0.047
92032SOL    HW177935  13.270   1.506  14.871
92032SOL    HW277936  13.405   1.463   0.047
92033SOL     OW77937   2.617  12.303  11.719
92033SOL    HW177938   2.691  12.270  11.768
92033SOL    HW277939   2.572  12.363  11.779
92034SOL     OW77940   4.667  12.410   4.582
92034SOL    HW177941   4.573  12.413   4.563
92034SOL    HW277942   4.681  12.322   4.617
92035SOL     OW77943   8.790   1.989   1.964
92035SOL    HW177944   8.696   2.004   1.954
92035SOL    HW277945   8.829   2.036   1.890
92036SOL     OW77946   7.560   2.448  12.912
92036SOL    HW177947   7.582   2.355  12.908
92036SOL    HW277948   7.493   2.460  12.845
92037SOL     OW77949  10.426   4.333  14.070
92037SOL    HW177950  10.363   4.304  14.004
92037SOL    HW277951  10.468   4.252  14.099
92038SOL     OW77952  11.212  10.282  10.699
92038SOL    HW177953  11.153  10.207  10.693
92038SOL    HW277954  11.284  10.260  10.641
92039SOL     OW77955   8.726  14.739   5.723
92039SOL    HW177956   8.672  14.815   5.701
92039SOL    HW277957   8.799  14.742   5.661
92040SOL     OW77958  10.717  12.587   9.667
92040SOL    HW177959  10.743  12.604   9.758
92040SOL    HW277960  10.742  12.667   9.620
92041SOL     OW77961   2.199   3.418   4.762
92041SOL    HW177962   2.180   3.457   4.847
92041SOL    HW277963   2.247   3.338   4.782
92042SOL     OW77964  10.610  10.992   9.531
92042SOL    HW177965  10.650  10.986   9.617
92042SOL    HW277966  10.517  11.008   9.549
92043SOL     OW77967   2.240   4.322   4.169
92043SOL    HW177968   2.258   4.263   4.242
92043SOL    HW277969   2.200   4.267   4.102
92044SOL     OW77970  10.823  13.145   4.417
92044SOL    HW177971  10.750  13.184   4.370
92044SOL    HW277972  10.900  13.194   4.389
92045SOL     OW77973   1.932   5.193   9.522
92045SOL    HW177974   1.902   5.188   9.613
92045SOL    HW277975   1.940   5.286   9.504
92046SOL     OW77976   2.786  12.463   8.504
92046SOL    HW177977   2.812  12.517   8.429
92046SOL    HW277978   2.854  12.396   8.510
92047SOL     OW77979   7.138   3.607   1.026
92047SOL    HW177980   7.160   3.640   1.113
92047SOL    HW277981   7.221   3.607   0.979
92048SOL     OW77982   5.875   6.742  14.512
92048SOL    HW177983   5.813   6.685  14.468
92048SOL    HW277984   5.839   6.830  14.501
92049SOL     OW77985  13.179  13.911   7.989
92049SOL    HW177986  13.185  13.974   8.061
92049SOL    HW277987  13.263  13.921   7.943
92050SOL     OW77988   7.766   2.085   7.359
92050SOL    HW177989   7.824   2.033   7.415
92050SOL    HW277990   7.702   2.023   7.325
92051SOL     OW77991   2.108   6.458   0.833
92051SOL    HW177992   2.016   6.482   0.826
92051SOL    HW277993   2.155   6.541   0.841
92052SOL     OW77994   4.563   0.662  14.818
92052SOL    HW177995   4.537   0.685   0.031
92052SOL    HW277996   4.508   0.716  14.762
92053SOL     OW77997   9.947   8.154   7.332
92053SOL    HW177998   9.851   8.164   7.333
92053SOL    HW277999   9.974   8.188   7.247
92054SOL     OW78000  10.418  11.967   6.334
92054SOL    HW178001  10.510  11.947   6.351
92054SOL    HW278002  10.379  11.883   6.309
92055SOL     OW78003  11.967  11.853  10.737
92055SOL    HW178004  11.899  11.805  10.690
92055SOL    HW278005  11.971  11.811  10.823
92056SOL     OW78006  10.939   2.864   3.922
92056SOL    HW178007  10.878   2.807   3.875
92056SOL    HW278008  10.909   2.860   4.013
92057SOL     OW78009   3.087   2.686  10.713
92057SOL    HW178010   3.181   2.665  10.715
92057SOL    HW278011   3.083   2.781  10.722
92058SOL     OW78012   1.821   9.846   0.466
92058SOL    HW178013   1.872   9.876   0.541
92058SOL    HW278014   1.740   9.812   0.504
92059SOL     OW78015  11.952  13.384   3.692
92059SOL    HW178016  11.858  13.390   3.674
92059SOL    HW278017  11.985  13.472   3.678
92060SOL     OW78018   5.400   8.179   8.325
92060SOL    HW178019   5.319   8.128   8.334
92060SOL    HW278020   5.400   8.209   8.235
92061SOL     OW78021   8.329   0.994  13.010
92061SOL    HW178022   8.340   0.899  12.999
92061SOL    HW278023   8.235   1.005  13.024
92062SOL     OW78024   8.870   8.664   3.671
92062SOL    HW178025   8.934   8.672   3.742
92062SOL    HW278026   8.919   8.690   3.593
92063SOL     OW78027   0.795   5.060   7.907
92063SOL    HW178028   0.840   5.046   7.991
92063SOL    HW278029   0.788   5.155   7.899
92064SOL     OW78030   9.360   1.794   3.537
92064SOL    HW178031   9.310   1.775   3.616
92064SOL    HW278032   9.320   1.874   3.501
92065SOL     OW78033   1.573  10.453   2.783
92065SOL    HW178034   1.620  10.537   2.779
92065SOL    HW278035   1.508  10.466   2.852
92066SOL     OW78036  13.777   7.809   6.518
92066SOL    HW178037  13.727   7.727   6.514
92066SOL    HW278038  13.843   7.799   6.450
92067SOL     OW78039   0.077  10.298   6.599
92067SOL    HW178040   0.149  10.236   6.610
92067SOL    HW278041   0.005  10.246   6.563
92068SOL     OW78042   3.382   6.875   9.988
92068SOL    HW178043   3.451   6.940  10.003
92068SOL    HW278044   3.340   6.865  10.074
92069SOL     OW78045  12.389   0.024   9.597
92069SOL    HW178046  12.409   0.096   9.538
92069SOL    HW278047  12.460  14.837   9.583
92070SOL     OW78048   1.971  14.411   0.842
92070SOL    HW178049   2.041  14.405   0.776
92070SOL    HW278050   1.972  14.503   0.868
92071SOL     OW78051   2.882   1.598  10.373
92071SOL    HW178052   2.837   1.646  10.442
92071SOL    HW278053   2.968   1.640  10.366
92072SOL     OW78054   0.934  14.715   0.800
92072SOL    HW178055   0.857  14.758   0.764
92072SOL    HW278056   0.936  14.741   0.892
92073SOL     OW78057  13.959   1.966  10.574
92073SOL    HW178058  14.046   1.928  10.586
92073SOL    HW278059  13.914   1.904  10.517
92074SOL     OW78060   8.212  14.857   9.910
92074SOL    HW178061   8.118  14.874   9.901
92074SOL    HW278062   8.247   0.061   9.950
92075SOL     OW78063  14.543   6.256   9.242
92075SOL    HW178064  14.558   6.228   9.151
92075SOL    HW278065  14.460   6.304   9.239
92076SOL     OW78066   8.198  10.094   1.331
92076SOL    HW178067   8.212  10.185   1.304
92076SOL    HW278068   8.163  10.051   1.253
92077SOL     OW78069   1.557  10.483  10.468
92077SOL    HW178070   1.518  10.401  10.437
92077SOL    HW278071   1.651  10.464  10.474
92078SOL     OW78072   0.667  11.824   9.931
92078SOL    HW178073   0.666  11.747   9.989
92078SOL    HW278074   0.759  11.850   9.928
92079SOL     OW78075  10.756  14.030   7.196
92079SOL    HW178076  10.720  14.053   7.282
92079SOL    HW278077  10.688  13.976   7.156
92080SOL     OW78078   0.621  14.706   3.078
92080SOL    HW178079   0.613  14.621   3.123
92080SOL    HW278080   0.644  14.768   3.147
92081SOL     OW78081   0.395   7.615   1.296
92081SOL    HW178082   0.481   7.657   1.292
92081SOL    HW278083   0.397   7.563   1.376
92082SOL     OW78084   8.138  10.490   5.624
92082SOL    HW178085   8.073  10.556   5.601
92082SOL    HW278086   8.087  10.419   5.662
92083SOL     OW78087   2.684  12.344   5.282
92083SOL    HW178088   2.635  12.264   5.267
92083SOL    HW278089   2.754  12.319   5.342
92084SOL     OW78090   8.809   3.806   1.087
92084SOL    HW178091   8.764   3.806   1.172
92084SOL    HW278092   8.861   3.726   1.088
92085SOL     OW78093  10.754  14.281   0.940
92085SOL    HW178094  10.826  14.235   0.897
92085SOL    HW278095  10.751  14.244   1.028
92086SOL     OW78096   2.673   7.403   4.201
92086SOL    HW178097   2.752   7.384   4.252
92086SOL    HW278098   2.627   7.469   4.252
92087SOL     OW78099  14.636  13.103   9.411
92087SOL    HW178100  14.718  13.096   9.458
92087SOL    HW278101  14.628  13.021   9.362
92088SOL     OW78102   5.508  12.075   8.720
92088SOL    HW178103   5.542  12.118   8.799
92088SOL    HW278104   5.539  11.985   8.726
92089SOL     OW78105  10.333   4.895   6.303
92089SOL    HW178106  10.386   4.915   6.380
92089SOL    HW278107  10.316   4.801   6.308
92090SOL     OW78108   9.027   2.064   0.274
92090SOL    HW178109   8.996   2.074   0.184
92090SOL    HW278110   8.964   2.003   0.314
92091SOL     OW78111  10.242   8.383   5.673
92091SOL    HW178112  10.331   8.419   5.665
92091SOL    HW278113  10.241   8.340   5.758
92092SOL     OW78114  11.549   2.444  14.371
92092SOL    HW178115  11.620   2.508  14.374
92092SOL    HW278116  11.475   2.490  14.412
92093SOL     OW78117   4.670   3.012   8.095
92093SOL    HW178118   4.646   3.011   8.003
92093SOL    HW278119   4.765   3.022   8.095
92094SOL     OW78120   0.748   9.648  11.887
92094SOL    HW178121   0.790   9.649  11.973
92094SOL    HW278122   0.769   9.562  11.851
92095SOL     OW78123  12.768   3.950  10.547
92095SOL    HW178124  12.803   4.027  10.504
92095SOL    HW278125  12.744   3.980  10.635
92096SOL     OW78126   6.079  10.195   6.280
92096SOL    HW178127   6.013  10.141   6.236
92096SOL    HW278128   6.131  10.133   6.331
92097SOL     OW78129   6.736   4.725  10.015
92097SOL    HW178130   6.816   4.776  10.031
92097SOL    HW278131   6.734   4.713   9.920
92098SOL     OW78132  11.441   8.935  12.373
92098SOL    HW178133  11.496   8.908  12.446
92098SOL    HW278134  11.481   9.016  12.341
92099SOL     OW78135   9.410   7.684   4.698
92099SOL    HW178136   9.359   7.763   4.717
92099SOL    HW278137   9.445   7.657   4.783
92100SOL     OW78138   2.969   7.182  13.369
92100SOL    HW178139   3.006   7.227  13.293
92100SOL    HW278140   3.043   7.136  13.408
92101SOL     OW78141   4.332   2.321   4.339
92101SOL    HW178142   4.329   2.255   4.408
92101SOL    HW278143   4.306   2.274   4.260
92102SOL     OW78144  13.708   3.780   5.690
92102SOL    HW178145  13.756   3.755   5.611
92102SOL    HW278146  13.755   3.857   5.723
92103SOL     OW78147  10.514   4.813  12.207
92103SOL    HW178148  10.566   4.735  12.188
92103SOL    HW278149  10.564   4.859  12.274
92104SOL     OW78150   5.794  11.664   2.968
92104SOL    HW178151   5.774  11.717   3.045
92104SOL    HW278152   5.824  11.580   3.004
92105SOL     OW78153   5.050  10.504   7.424
92105SOL    HW178154   5.068  10.469   7.511
92105SOL    HW278155   5.045  10.598   7.436
92106SOL     OW78156   8.098   8.773   4.036
92106SOL    HW178157   8.017   8.729   4.063
92106SOL    HW278158   8.077   8.867   4.041
92107SOL     OW78159   3.523   6.166   3.965
92107SOL    HW178160   3.595   6.201   3.914
92107SOL    HW278161   3.562   6.142   4.049
92108SOL     OW78162   3.285  10.364   0.091
92108SOL    HW178163   3.199  10.395   0.120
92108SOL    HW278164   3.287  10.385  14.874
92109SOL     OW78165   5.533   3.221   6.401
92109SOL    HW178166   5.485   3.179   6.472
92109SOL    HW278167   5.625   3.214   6.427
92110SOL     OW78168   5.032   9.846   3.386
92110SOL    HW178169   4.946   9.883   3.407
92110SOL    HW278170   5.055   9.795   3.464
92111SOL     OW78171   1.089   5.981  13.560
92111SOL    HW178172   1.123   5.896  13.588
92111SOL    HW278173   0.996   5.965  13.543
92112SOL     OW78174   0.437  13.476  12.897
92112SOL    HW178175   0.463  13.483  12.806
92112SOL    HW278176   0.429  13.566  12.927
92113SOL     OW78177   2.389   1.954  14.425
92113SOL    HW178178   2.474   1.923  14.395
92113SOL    HW278179   2.409   2.032  14.477
92114SOL     OW78180   7.089  12.862  14.380
92114SOL    HW178181   7.013  12.886  14.328
92114SOL    HW278182   7.060  12.788  14.434
92115SOL     OW78183  11.030   3.261   1.784
92115SOL    HW178184  11.079   3.199   1.839
92115SOL    HW278185  11.077   3.344   1.793
92116SOL     OW78186  10.692   4.697  13.508
92116SOL    HW178187  10.741   4.619  13.483
92116SOL    HW278188  10.600   4.672  13.496
92117SOL     OW78189   4.832  10.006  14.742
92117SOL    HW178190   4.744   9.968  14.733
92117SOL    HW278191   4.886   9.934  14.774
92118SOL     OW78192   3.416   8.687  14.770
92118SOL    HW178193   3.396   8.776  14.800
92118SOL    HW278194   3.370   8.631  14.832
92119SOL     OW78195   2.223  12.635   4.611
92119SOL    HW178196   2.192  12.642   4.701
92119SOL    HW278197   2.163  12.574   4.569
92120SOL     OW78198  11.686   3.574   1.551
92120SOL    HW178199  11.632   3.569   1.631
92120SOL    HW278200  11.728   3.660   1.557
92121SOL     OW78201   9.641   5.433   5.306
92121SOL    HW178202   9.546   5.432   5.311
92121SOL    HW278203   9.662   5.376   5.233
92122SOL     OW78204   2.296   7.526   2.534
92122SOL    HW178205   2.283   7.567   2.619
92122SOL    HW278206   2.255   7.586   2.472
92123SOL     OW78207   5.504   5.681   9.028
92123SOL    HW178208   5.467   5.664   9.115
92123SOL    HW278209   5.596   5.701   9.044
92124SOL     OW78210  10.484  11.406  11.491
92124SOL    HW178211  10.451  11.495  11.481
92124SOL    HW278212  10.426  11.366  11.555
92125SOL     OW78213  14.429   2.887  12.804
92125SOL    HW178214  14.501   2.908  12.863
92125SOL    HW278215  14.459   2.916  12.718
92126SOL     OW78216   8.357  10.989   1.133
92126SOL    HW178217   8.446  10.969   1.163
92126SOL    HW278218   8.317  10.903   1.119
92127SOL     OW78219   6.924   4.168   4.724
92127SOL    HW178220   6.910   4.203   4.812
92127SOL    HW278221   6.849   4.111   4.709
92128SOL     OW78222  11.879   1.059  13.422
92128SOL    HW178223  11.818   1.076  13.494
92128SOL    HW278224  11.916   1.145  13.400
92129SOL     OW78225  14.559  11.891   1.820
92129SOL    HW178226  14.465  11.887   1.803
92129SOL    HW278227  14.567  11.886   1.915
92130SOL     OW78228   5.189   7.272   2.216
92130SOL    HW178229   5.165   7.193   2.167
92130SOL    HW278230   5.283   7.282   2.202
92131SOL     OW78231  10.758  13.477   0.563
92131SOL    HW178232  10.730  13.387   0.548
92131SOL    HW278233  10.690  13.514   0.619
92132SOL     OW78234  14.747  11.589   7.662
92132SOL    HW178235  14.726  11.610   7.754
92132SOL    HW278236  14.686  11.519   7.639
92133SOL     OW78237   2.574   0.529   9.724
92133SOL    HW178238   2.617   0.503   9.642
92133SOL    HW278239   2.595   0.621   9.735
92134SOL     OW78240   1.844   1.449   5.830
92134SOL    HW178241   1.919   1.495   5.868
92134SOL    HW278242   1.769   1.477   5.883
92135SOL     OW78243   9.893  11.273   6.225
92135SOL    HW178244   9.835  11.246   6.296
92135SOL    HW278245   9.835  11.315   6.161
92136SOL     OW78246   2.843   0.673   8.663
92136SOL    HW178247   2.881   0.755   8.695
92136SOL    HW278248   2.749   0.690   8.660
92137SOL     OW78249   9.053   8.943  12.921
92137SOL    HW178250   9.102   8.884  12.864
92137SOL    HW278251   9.067   9.030  12.884
92138SOL     OW78252   3.523   0.473   6.710
92138SOL    HW178253   3.540   0.440   6.799
92138SOL    HW278254   3.609   0.487   6.673
92139SOL     OW78255  13.234  10.388   0.248
92139SOL    HW178256  13.291  10.437   0.308
92139SOL    HW278257  13.186  10.327   0.304
92140SOL     OW78258  11.192   5.451  12.979
92140SOL    HW178259  11.231   5.520  12.925
92140SOL    HW278260  11.257   5.381  12.979
92141SOL     OW78261  10.300  13.086   1.939
92141SOL    HW178262  10.286  13.076   2.033
92141SOL    HW278263  10.357  13.013   1.915
92142SOL     OW78264   8.822   8.440   0.081
92142SOL    HW178265   8.749   8.502   0.083
92142SOL    HW278266   8.837   8.417   0.173
92143SOL     OW78267   4.722   1.912  12.301
92143SOL    HW178268   4.645   1.947  12.255
92143SOL    HW278269   4.797   1.946  12.251
92144SOL     OW78270  14.324   0.863   0.070
92144SOL    HW178271  14.396   0.886   0.011
92144SOL    HW278272  14.285   0.785   0.032
92145SOL     OW78273   1.586   3.473   2.587
92145SOL    HW178274   1.624   3.560   2.599
92145SOL    HW278275   1.649   3.426   2.533
92146SOL     OW78276   3.185  10.369   6.888
92146SOL    HW178277   3.199  10.450   6.838
92146SOL    HW278278   3.221  10.300   6.833
92147SOL     OW78279  13.269  12.985  12.314
92147SOL    HW178280  13.326  12.955  12.385
92147SOL    HW278281  13.319  12.969  12.234
92148SOL     OW78282  12.085   1.927   4.616
92148SOL    HW178283  12.077   1.845   4.666
92148SOL    HW278284  11.997   1.964   4.618
92149SOL     OW78285  13.604   3.523   5.084
92149SOL    HW178286  13.561   3.471   5.016
92149SOL    HW278287  13.631   3.603   5.040
92150SOL     OW78288   7.024   7.291   6.067
92150SOL    HW178289   7.011   7.375   6.111
92150SOL    HW278290   7.119   7.281   6.061
92151SOL     OW78291  14.318  14.399   9.983
92151SOL    HW178292  14.351  14.310   9.973
92151SOL    HW278293  14.228  14.395   9.952
92152SOL     OW78294  12.587   5.308  12.480
92152SOL    HW178295  12.674   5.350  12.485
92152SOL    HW278296  12.542   5.338  12.559
92153SOL     OW78297   8.033   2.237   0.019
92153SOL    HW178298   7.968   2.205  14.834
92153SOL    HW278299   8.115   2.240  14.845
92154SOL     OW78300   3.056   6.145   6.249
92154SOL    HW178301   3.048   6.211   6.180
92154SOL    HW278302   3.148   6.118   6.246
92155SOL     OW78303   1.975   0.314   8.942
92155SOL    HW178304   2.058   0.277   8.912
92155SOL    HW278305   1.939   0.248   9.002
92156SOL     OW78306  10.288   1.883   2.784
92156SOL    HW178307  10.333   1.966   2.766
92156SOL    HW278308  10.295   1.873   2.879
92157SOL     OW78309   6.068  12.838   6.803
92157SOL    HW178310   6.030  12.799   6.725
92157SOL    HW278311   6.149  12.789   6.818
92158SOL     OW78312   8.031  14.427   2.010
92158SOL    HW178313   8.066  14.376   2.084
92158SOL    HW278314   7.961  14.372   1.974
92159SOL     OW78315  11.360   2.592  14.026
92159SOL    HW178316  11.352   2.505  14.065
92159SOL    HW278317  11.416   2.641  14.087
92160SOL     OW78318  14.402   6.129  14.596
92160SOL    HW178319  14.399   6.196  14.527
92160SOL    HW278320  14.465   6.162  14.660
92161SOL     OW78321  12.904  13.749   8.246
92161SOL    HW178322  12.861  13.760   8.331
92161SOL    HW278323  12.916  13.655   8.237
92162SOL     OW78324   2.677  14.337   1.964
92162SOL    HW178325   2.662  14.337   1.870
92162SOL    HW278326   2.612  14.399   1.999
92163SOL     OW78327   0.421   5.423  10.469
92163SOL    HW178328   0.449   5.422  10.560
92163SOL    HW278329   0.466   5.348  10.429
92164SOL     OW78330   9.005   2.096   3.703
92164SOL    HW178331   9.067   2.147   3.652
92164SOL    HW278332   8.968   2.159   3.766
92165SOL     OW78333   6.331   0.991   2.650
92165SOL    HW178334   6.252   0.964   2.697
92165SOL    HW278335   6.340   1.084   2.670
92166SOL     OW78336   7.296   0.356   9.010
92166SOL    HW178337   7.343   0.308   9.078
92166SOL    HW278338   7.215   0.384   9.052
92167SOL     OW78339  14.576   0.142  14.467
92167SOL    HW178340  14.523   0.104  14.537
92167SOL    HW278341  14.517   0.205  14.425
92168SOL     OW78342  14.715   8.982  13.840
92168SOL    HW178343  14.807   8.965  13.863
92168SOL    HW278344  14.670   8.981  13.925
92169SOL     OW78345  14.144   6.519   6.570
92169SOL    HW178346  14.072   6.550   6.624
92169SOL    HW278347  14.109   6.441   6.527
92170SOL     OW78348   7.251  14.156   4.782
92170SOL    HW178349   7.245  14.132   4.690
92170SOL    HW278350   7.242  14.252   4.782
92171SOL     OW78351  13.074  13.456  10.550
92171SOL    HW178352  13.041  13.540  10.517
92171SOL    HW278353  13.001  13.396  10.540
92172SOL     OW78354   5.718   6.015  14.467
92172SOL    HW178355   5.722   6.106  14.496
92172SOL    HW278356   5.624   5.998  14.457
92173SOL     OW78357   4.245  12.694   3.605
92173SOL    HW178358   4.181  12.632   3.570
92173SOL    HW278359   4.198  12.777   3.608
92174SOL     OW78360   4.445  14.804   5.550
92174SOL    HW178361   4.489  14.756   5.480
92174SOL    HW278362   4.502  14.793   5.626
92175SOL     OW78363   2.507  13.978  13.558
92175SOL    HW178364   2.474  13.950  13.643
92175SOL    HW278365   2.498  14.073  13.559
92176SOL     OW78366   9.954   8.327   6.031
92176SOL    HW178367   9.953   8.326   6.127
92176SOL    HW278368  10.007   8.404   6.009
92177SOL     OW78369   7.947   2.886   8.999
92177SOL    HW178370   8.012   2.825   9.034
92177SOL    HW278371   7.915   2.933   9.076
92178SOL     OW78372  13.595  14.109   5.065
92178SOL    HW178373  13.673  14.069   5.105
92178SOL    HW278374  13.628  14.190   5.025
92179SOL     OW78375   7.375  10.740  11.191
92179SOL    HW178376   7.286  10.775  11.180
92179SOL    HW278377   7.381  10.670  11.125
92180SOL     OW78378   8.404   1.727   4.124
92180SOL    HW178379   8.469   1.759   4.186
92180SOL    HW278380   8.375   1.643   4.160
92181SOL     OW78381   9.645   5.186   9.496
92181SOL    HW178382   9.632   5.094   9.475
92181SOL    HW278383   9.557   5.218   9.519
92182SOL     OW78384  11.209   8.229  10.006
92182SOL    HW178385  11.217   8.172  10.083
92182SOL    HW278386  11.160   8.178   9.942
92183SOL     OW78387  11.348  14.017   6.465
92183SOL    HW178388  11.254  14.012   6.448
92183SOL    HW278389  11.365  14.110   6.478
92184SOL     OW78390   6.271   5.199   2.109
92184SOL    HW178391   6.362   5.229   2.107
92184SOL    HW278392   6.240   5.208   2.019
92185SOL     OW78393  14.257   5.650  11.366
92185SOL    HW178394  14.194   5.653  11.438
92185SOL    HW278395  14.336   5.612  11.404
92186SOL     OW78396   7.100   7.614   2.588
92186SOL    HW178397   7.188   7.601   2.624
92186SOL    HW278398   7.115   7.657   2.504
92187SOL     OW78399   2.850   2.376   2.405
92187SOL    HW178400   2.883   2.393   2.317
92187SOL    HW278401   2.770   2.429   2.411
92188SOL     OW78402   5.395   0.564  11.178
92188SOL    HW178403   5.364   0.615  11.253
92188SOL    HW278404   5.329   0.496  11.167
92189SOL     OW78405   7.970  13.150  14.705
92189SOL    HW178406   7.957  13.057  14.684
92189SOL    HW278407   7.891  13.174  14.754
92190SOL     OW78408   3.351   2.285   0.146
92190SOL    HW178409   3.285   2.326   0.090
92190SOL    HW278410   3.340   2.327   0.231
92191SOL     OW78411  12.439   9.884   0.287
92191SOL    HW178412  12.436   9.957   0.224
92191SOL    HW278413  12.402   9.810   0.239
92192SOL     OW78414  13.915   9.536  14.865
92192SOL    HW178415  13.968   9.461   0.015
92192SOL    HW278416  13.978   9.603  14.839
92193SOL     OW78417   7.378   4.595  14.869
92193SOL    HW178418   7.395   4.684   0.024
92193SOL    HW278419   7.449   4.543   0.029
92194SOL     OW78420  14.210  14.173   7.153
92194SOL    HW178421  14.191  14.079   7.151
92194SOL    HW278422  14.299  14.180   7.117
92195SOL     OW78423   2.062  11.717  14.475
92195SOL    HW178424   1.992  11.679  14.422
92195SOL    HW278425   2.087  11.648  14.536
92196SOL     OW78426   9.269  11.364   6.202
92196SOL    HW178427   9.264  11.441   6.259
92196SOL    HW278428   9.194  11.310   6.230
92197SOL     OW78429   3.105   2.560   0.314
92197SOL    HW178430   3.142   2.638   0.356
92197SOL    HW278431   3.175   2.495   0.320
92198SOL     OW78432  12.986  11.717   4.732
92198SOL    HW178433  13.060  11.673   4.774
92198SOL    HW278434  13.014  11.808   4.723
92199SOL     OW78435   5.322   6.528  10.362
92199SOL    HW178436   5.413   6.556  10.349
92199SOL    HW278437   5.328   6.435  10.383
92200SOL     OW78438   3.365  11.226   0.855
92200SOL    HW178439   3.449  11.188   0.833
92200SOL    HW278440   3.359  11.219   0.950
92201SOL     OW78441   8.023   4.796   2.225
92201SOL    HW178442   8.005   4.884   2.259
92201SOL    HW278443   7.984   4.796   2.137
92202SOL     OW78444   4.740   1.037   0.113
92202SOL    HW178445   4.680   0.985   0.165
92202SOL    HW278446   4.704   1.036   0.024
92203SOL     OW78447  11.211   0.541  13.667
92203SOL    HW178448  11.250   0.465  13.711
92203SOL    HW278449  11.227   0.525  13.574
92204SOL     OW78450   2.323   7.527   4.881
92204SOL    HW178451   2.241   7.569   4.858
92204SOL    HW278452   2.334   7.458   4.816
92205SOL     OW78453  12.003   8.311   3.929
92205SOL    HW178454  12.061   8.237   3.948
92205SOL    HW278455  11.925   8.294   3.982
92206SOL     OW78456   3.581   3.912   0.363
92206SOL    HW178457   3.608   3.853   0.292
92206SOL    HW278458   3.647   3.899   0.431
92207SOL     OW78459  11.468   7.148   7.559
92207SOL    HW178460  11.473   7.104   7.644
92207SOL    HW278461  11.452   7.077   7.497
92208SOL     OW78462  10.186  13.394   6.303
92208SOL    HW178463  10.139  13.328   6.353
92208SOL    HW278464  10.271  13.355   6.284
92209SOL     OW78465   6.725   0.899  10.606
92209SOL    HW178466   6.799   0.850  10.643
92209SOL    HW278467   6.734   0.888  10.512
92210SOL     OW78468   8.602  13.882   6.205
92210SOL    HW178469   8.674  13.863   6.266
92210SOL    HW278470   8.637  13.949   6.147
92211SOL     OW78471   9.995  10.224   1.527
92211SOL    HW178472   9.948  10.298   1.489
92211SOL    HW278473   9.928  10.155   1.535
92212SOL     OW78474   0.528   6.860   5.262
92212SOL    HW178475   0.614   6.900   5.255
92212SOL    HW278476   0.483   6.884   5.180
92213SOL     OW78477   7.997  14.486  10.490
92213SOL    HW178478   8.005  14.552  10.421
92213SOL    HW278479   7.936  14.421  10.455
92214SOL     OW78480   2.779   1.635   6.877
92214SOL    HW178481   2.744   1.628   6.788
92214SOL    HW278482   2.867   1.670   6.866
92215SOL     OW78483  10.198   7.420   1.642
92215SOL    HW178484  10.121   7.417   1.585
92215SOL    HW278485  10.172   7.370   1.719
92216SOL     OW78486   2.850  10.390   0.993
92216SOL    HW178487   2.941  10.364   0.976
92216SOL    HW278488   2.804  10.308   1.008
92217SOL     OW78489   4.935   0.720  13.074
92217SOL    HW178490   4.871   0.770  13.024
92217SOL    HW278491   4.977   0.785  13.132
92218SOL     OW78492   7.576  12.051   6.932
92218SOL    HW178493   7.556  11.966   6.894
92218SOL    HW278494   7.495  12.101   6.922
92219SOL     OW78495   3.450  11.728   3.155
92219SOL    HW178496   3.510  11.791   3.115
92219SOL    HW278497   3.503  11.683   3.221
92220SOL     OW78498  10.365   6.725   0.638
92220SOL    HW178499  10.409   6.678   0.709
92220SOL    HW278500  10.274   6.733   0.666
92221SOL     OW78501  12.078   5.981   8.583
92221SOL    HW178502  12.024   6.051   8.621
92221SOL    HW278503  12.019   5.906   8.577
92222SOL     OW78504   0.784   2.131   2.733
92222SOL    HW178505   0.727   2.162   2.802
92222SOL    HW278506   0.853   2.198   2.727
92223SOL     OW78507   8.836   8.712  13.127
92223SOL    HW178508   8.752   8.743  13.091
92223SOL    HW278509   8.891   8.790  13.131
92224SOL     OW78510   9.190   9.128  11.458
92224SOL    HW178511   9.182   9.034  11.443
92224SOL    HW278512   9.155   9.141  11.546
92225SOL     OW78513  13.629  11.497   0.943
92225SOL    HW178514  13.586  11.423   0.900
92225SOL    HW278515  13.565  11.568   0.937
92226SOL     OW78516  10.565   8.882  11.660
92226SOL    HW178517  10.609   8.947  11.605
92226SOL    HW278518  10.593   8.904  11.749
92227SOL     OW78519   3.446  12.668   0.434
92227SOL    HW178520   3.373  12.609   0.454
92227SOL    HW278521   3.524  12.623   0.465
92228SOL     OW78522   6.587   3.695  11.454
92228SOL    HW178523   6.562   3.753  11.526
92228SOL    HW278524   6.534   3.724  11.380
92229SOL     OW78525  12.999   4.439  10.652
92229SOL    HW178526  13.011   4.398  10.567
92229SOL    HW278527  12.955   4.522  10.634
92230SOL     OW78528  14.288  13.560   3.472
92230SOL    HW178529  14.366  13.614   3.454
92230SOL    HW278530  14.228  13.580   3.401
92231SOL     OW78531  14.063  11.488   6.580
92231SOL    HW178532  14.016  11.408   6.604
92231SOL    HW278533  14.032  11.508   6.491
92232SOL     OW78534   0.593   4.964  13.459
92232SOL    HW178535   0.595   4.955  13.364
92232SOL    HW278536   0.589   5.059  13.474
92233SOL     OW78537   4.579   6.871  10.182
92233SOL    HW178538   4.670   6.845  10.197
92233SOL    HW278539   4.573   6.882  10.087
92234SOL     OW78540   8.708   3.891   3.792
92234SOL    HW178541   8.750   3.826   3.848
92234SOL    HW278542   8.628   3.916   3.839
92235SOL     OW78543   0.523   3.714  14.578
92235SOL    HW178544   0.515   3.782  14.644
92235SOL    HW278545   0.545   3.635  14.626
92236SOL     OW78546   3.977  14.007   1.526
92236SOL    HW178547   4.040  13.935   1.526
92236SOL    HW278548   3.919  13.988   1.600
92237SOL     OW78549   5.179  14.862   7.799
92237SOL    HW178550   5.111  14.807   7.837
92237SOL    HW278551   5.132   0.063   7.767
92238SOL     OW78552  12.926   7.784   4.269
92238SOL    HW178553  12.900   7.697   4.240
92238SOL    HW278554  12.904   7.842   4.196
92239SOL     OW78555  11.667   6.001  11.237
92239SOL    HW178556  11.647   6.080  11.188
92239SOL    HW278557  11.625   5.931  11.188
92240SOL     OW78558   7.310   1.719   2.505
92240SOL    HW178559   7.394   1.677   2.486
92240SOL    HW278560   7.290   1.769   2.426
92241SOL     OW78561   8.023  14.737   4.499
92241SOL    HW178562   8.043  14.827   4.524
92241SOL    HW278563   8.053  14.729   4.409
92242SOL     OW78564   8.221  14.009   6.692
92242SOL    HW178565   8.306  13.966   6.682
92242SOL    HW278566   8.164  13.942   6.729
92243SOL     OW78567   9.845   7.954  12.669
92243SOL    HW178568   9.844   8.038  12.715
92243SOL    HW278569   9.936   7.941  12.643
92244SOL     OW78570  13.518   2.259   7.188
92244SOL    HW178571  13.596   2.312   7.174
92244SOL    HW278572  13.518   2.240   7.282
92245SOL     OW78573   0.241   0.199   1.256
92245SOL    HW178574   0.209   0.150   1.332
92245SOL    HW278575   0.176   0.268   1.243
92246SOL     OW78576  12.165  10.183  12.320
92246SOL    HW178577  12.246  10.235  12.322
92246SOL    HW278578  12.108  10.230  12.259
92247SOL     OW78579   3.039   6.630  12.549
92247SOL    HW178580   3.120   6.593  12.584
92247SOL    HW278581   2.973   6.612  12.616
92248SOL     OW78582  14.589  10.993  12.573
92248SOL    HW178583  14.570  11.073  12.621
92248SOL    HW278584  14.541  11.003  12.491
92249SOL     OW78585  11.087  10.262   6.519
92249SOL    HW178586  11.090  10.168   6.539
92249SOL    HW278587  11.025  10.298   6.582
92250SOL     OW78588  13.236   5.873  14.138
92250SOL    HW178589  13.193   5.852  14.055
92250SOL    HW278590  13.234   5.968  14.143
92251SOL     OW78591  10.604   9.247  14.546
92251SOL    HW178592  10.567   9.165  14.576
92251SOL    HW278593  10.657   9.224  14.470
92252SOL     OW78594   7.257  14.506  10.693
92252SOL    HW178595   7.274  14.419  10.655
92252SOL    HW278596   7.216  14.555  10.621
92253SOL     OW78597  14.377   2.468   3.218
92253SOL    HW178598  14.412   2.393   3.267
92253SOL    HW278599  14.367   2.537   3.284
92254SOL     OW78600   9.303  14.053  13.259
92254SOL    HW178601   9.363  13.995  13.305
92254SOL    HW278602   9.221  14.005  13.254
92255SOL     OW78603  10.927  13.476   5.005
92255SOL    HW178604  10.983  13.440   5.073
92255SOL    HW278605  10.989  13.509   4.939
92256SOL     OW78606   4.430   8.416  12.475
92256SOL    HW178607   4.391   8.419  12.562
92256SOL    HW278608   4.398   8.335  12.436
92257SOL     OW78609   1.008   7.678  10.453
92257SOL    HW178610   1.054   7.753  10.491
92257SOL    HW278611   1.019   7.608  10.518
92258SOL     OW78612   1.638   2.025  14.456
92258SOL    HW178613   1.561   1.978  14.486
92258SOL    HW278614   1.681   2.054  14.536
92259SOL     OW78615   5.786   5.734   6.167
92259SOL    HW178616   5.744   5.819   6.154
92259SOL    HW278617   5.868   5.754   6.211
92260SOL     OW78618   7.455  13.941  11.994
92260SOL    HW178619   7.393  13.891  11.941
92260SOL    HW278620   7.504  13.874  12.042
92261SOL     OW78621  10.509   5.382   9.023
92261SOL    HW178622  10.459   5.354   9.099
92261SOL    HW278623  10.528   5.302   8.975
92262SOL     OW78624  13.073   1.943   1.425
92262SOL    HW178625  13.054   1.903   1.340
92262SOL    HW278626  13.168   1.938   1.433
92263SOL     OW78627   6.465   4.716  13.638
92263SOL    HW178628   6.477   4.765  13.557
92263SOL    HW278629   6.497   4.628  13.617
92264SOL     OW78630  14.190   8.570  14.684
92264SOL    HW178631  14.259   8.533  14.740
92264SOL    HW278632  14.110   8.560  14.736
92265SOL     OW78633   5.297   2.691   8.544
92265SOL    HW178634   5.224   2.715   8.602
92265SOL    HW278635   5.311   2.598   8.562
92266SOL     OW78636   7.240  12.231  10.882
92266SOL    HW178637   7.331  12.217  10.910
92266SOL    HW278638   7.247  12.268  10.794
92267SOL     OW78639  12.570  11.619  12.061
92267SOL    HW178640  12.607  11.574  11.985
92267SOL    HW278641  12.517  11.552  12.105
92268SOL     OW78642  12.733  13.344   8.622
92268SOL    HW178643  12.768  13.356   8.710
92268SOL    HW278644  12.662  13.280   8.632
92269SOL     OW78645   1.352   6.183   2.681
92269SOL    HW178646   1.261   6.209   2.664
92269SOL    HW278647   1.404   6.252   2.640
92270SOL     OW78648  13.264  14.864   9.941
92270SOL    HW178649  13.238   0.020   9.855
92270SOL    HW278650  13.322   0.055   9.976
92271SOL     OW78651  12.638   2.826   5.347
92271SOL    HW178652  12.677   2.743   5.319
92271SOL    HW278653  12.654   2.829   5.441
92272SOL     OW78654   8.643  12.542   2.411
92272SOL    HW178655   8.726  12.511   2.374
92272SOL    HW278656   8.654  12.636   2.421
92273SOL     OW78657   0.227   0.510   1.890
92273SOL    HW178658   0.269   0.587   1.852
92273SOL    HW278659   0.207   0.536   1.980
92274SOL     OW78660   3.349  12.224   5.740
92274SOL    HW178661   3.360  12.319   5.735
92274SOL    HW278662   3.271  12.206   5.688
92275SOL     OW78663  10.920  14.237   2.978
92275SOL    HW178664  10.977  14.314   2.975
92275SOL    HW278665  10.882  14.232   2.890
92276SOL     OW78666   8.060  11.505   6.650
92276SOL    HW178667   8.039  11.412   6.636
92276SOL    HW278668   8.003  11.531   6.723
92277SOL     OW78669   5.410  10.938   1.312
92277SOL    HW178670   5.439  10.854   1.275
92277SOL    HW278671   5.487  10.973   1.356
92278SOL     OW78672   8.609  10.965   8.963
92278SOL    HW178673   8.553  10.894   8.996
92278SOL    HW278674   8.550  11.040   8.956
92279SOL     OW78675  14.851   0.865  14.566
92279SOL    HW178676  14.816   0.863  14.477
92279SOL    HW278677   0.046   0.929  14.562
92280SOL     OW78678   4.132  11.783  11.351
92280SOL    HW178679   4.066  11.781  11.420
92280SOL    HW278680   4.128  11.696  11.311
92281SOL     OW78681  10.140   2.837  12.445
92281SOL    HW178682  10.218   2.892  12.453
92281SOL    HW278683  10.161   2.774  12.377
92282SOL     OW78684   0.503   2.846   1.549
92282SOL    HW178685   0.426   2.802   1.585
92282SOL    HW278686   0.526   2.795   1.472
92283SOL     OW78687  13.900   2.794   5.621
92283SOL    HW178688  13.984   2.749   5.631
92283SOL    HW278689  13.836   2.735   5.663
92284SOL     OW78690   1.140   1.822   1.139
92284SOL    HW178691   1.191   1.820   1.219
92284SOL    HW278692   1.192   1.773   1.076
92285SOL     OW78693  14.415   0.342  14.722
92285SOL    HW178694  14.506   0.368  14.709
92285SOL    HW278695  14.395   0.365  14.812
92286SOL     OW78696   0.488   0.371   6.970
92286SOL    HW178697   0.497   0.286   6.926
92286SOL    HW278698   0.536   0.432   6.914
92287SOL     OW78699   9.636   1.639  11.435
92287SOL    HW178700   9.544   1.663  11.429
92287SOL    HW278701   9.662   1.668  11.523
92288SOL     OW78702   2.558  10.557   5.351
92288SOL    HW178703   2.591  10.647   5.355
92288SOL    HW278704   2.482  10.563   5.293
92289SOL     OW78705   2.107   6.968  10.664
92289SOL    HW178706   2.096   6.963  10.759
92289SOL    HW278707   2.149   7.053  10.650
92290SOL     OW78708   7.072   9.639  12.587
92290SOL    HW178709   7.084   9.546  12.568
92290SOL    HW278710   7.161   9.672  12.601
92291SOL     OW78711   1.608   0.252   3.766
92291SOL    HW178712   1.638   0.242   3.675
92291SOL    HW278713   1.548   0.326   3.763
92292SOL     OW78714   3.488   4.373   4.697
92292SOL    HW178715   3.433   4.404   4.625
92292SOL    HW278716   3.472   4.279   4.700
92293SOL     OW78717   7.321   5.724   6.964
92293SOL    HW178718   7.243   5.749   6.915
92293SOL    HW278719   7.393   5.735   6.902
92294SOL     OW78720  12.560   6.464  14.038
92294SOL    HW178721  12.617   6.458  13.961
92294SOL    HW278722  12.500   6.536  14.018
92295SOL     OW78723   8.369   3.783   1.095
92295SOL    HW178724   8.434   3.822   1.037
92295SOL    HW278725   8.313   3.856   1.122
92296SOL     OW78726   8.081  11.359  14.335
92296SOL    HW178727   8.057  11.442  14.294
92296SOL    HW278728   8.172  11.345  14.311
92297SOL     OW78729   0.058   3.364   3.011
92297SOL    HW178730   0.043   3.362   2.917
92297SOL    HW278731   0.150   3.388   3.020
92298SOL     OW78732  14.750  12.631   6.276
92298SOL    HW178733  14.817  12.699   6.286
92298SOL    HW278734  14.792  12.565   6.221
92299SOL     OW78735  10.254  13.802   2.164
92299SOL    HW178736  10.290  13.739   2.102
92299SOL    HW278737  10.176  13.760   2.199
92300SOL     OW78738   3.382   5.297   9.371
92300SOL    HW178739   3.389   5.372   9.313
92300SOL    HW278740   3.288   5.289   9.390
92301SOL     OW78741   4.153   1.436   4.660
92301SOL    HW178742   4.193   1.373   4.720
92301SOL    HW278743   4.227   1.487   4.627
92302SOL     OW78744   8.130   4.867   4.835
92302SOL    HW178745   8.171   4.781   4.827
92302SOL    HW278746   8.169   4.919   4.765
92303SOL     OW78747   8.916  13.510  14.093
92303SOL    HW178748   8.841  13.543  14.042
92303SOL    HW278749   8.981  13.580  14.086
92304SOL     OW78750  13.533  13.611   7.300
92304SOL    HW178751  13.506  13.554   7.372
92304SOL    HW278752  13.452  13.627   7.251
92305SOL     OW78753   9.107  13.070  13.868
92305SOL    HW178754   9.085  13.164  13.867
92305SOL    HW278755   9.199  13.066  13.843
92306SOL     OW78756  11.685  10.138   6.941
92306SOL    HW178757  11.751  10.092   6.889
92306SOL    HW278758  11.606  10.133   6.888
92307SOL     OW78759   1.512  13.290   9.849
92307SOL    HW178760   1.577  13.225   9.826
92307SOL    HW278761   1.532  13.366   9.794
92308SOL     OW78762  11.832   8.639   5.579
92308SOL    HW178763  11.864   8.683   5.658
92308SOL    HW278764  11.904   8.582   5.552
92309SOL     OW78765   3.152  13.919   9.126
92309SOL    HW178766   3.134  13.999   9.174
92309SOL    HW278767   3.138  13.942   9.034
92310SOL     OW78768   8.671   9.478  13.182
92310SOL    HW178769   8.618   9.521  13.249
92310SOL    HW278770   8.750   9.451  13.227
92311SOL     OW78771   8.796  14.052   2.963
92311SOL    HW178772   8.863  14.103   3.008
92311SOL    HW278773   8.788  14.092   2.877
92312SOL     OW78774   3.376   3.007  13.295
92312SOL    HW178775   3.296   2.954  13.295
92312SOL    HW278776   3.353   3.084  13.243
92313SOL     OW78777   5.353  14.698  11.840
92313SOL    HW178778   5.301  14.760  11.789
92313SOL    HW278779   5.376  14.746  11.920
92314SOL     OW78780   3.703  11.781   4.644
92314SOL    HW178781   3.736  11.869   4.625
92314SOL    HW278782   3.779  11.724   4.635
92315SOL     OW78783   0.726  12.031   5.656
92315SOL    HW178784   0.740  11.937   5.663
92315SOL    HW278785   0.803  12.064   5.610
92316SOL     OW78786   0.845   1.427   6.262
92316SOL    HW178787   0.810   1.494   6.203
92316SOL    HW278788   0.841   1.466   6.349
92317SOL     OW78789   2.986  13.045  12.977
92317SOL    HW178790   3.056  13.044  13.043
92317SOL    HW278791   2.929  13.118  13.003
92318SOL     OW78792   6.810  11.156   5.223
92318SOL    HW178793   6.897  11.176   5.189
92318SOL    HW278794   6.824  11.132   5.314
92319SOL     OW78795  12.971  14.025   1.880
92319SOL    HW178796  13.022  13.968   1.938
92319SOL    HW278797  12.889  13.978   1.865
92320SOL     OW78798  12.807  11.634  13.739
92320SOL    HW178799  12.801  11.705  13.803
92320SOL    HW278800  12.716  11.605  13.728
92321SOL     OW78801  14.600   6.828   3.197
92321SOL    HW178802  14.558   6.908   3.169
92321SOL    HW278803  14.679   6.857   3.242
92322SOL     OW78804   2.383   0.977   4.616
92322SOL    HW178805   2.365   0.883   4.622
92322SOL    HW278806   2.337   1.014   4.692
92323SOL     OW78807  10.238   8.751   4.651
92323SOL    HW178808  10.270   8.835   4.618
92323SOL    HW278809  10.167   8.774   4.711
92324SOL     OW78810  12.311  10.774   7.153
92324SOL    HW178811  12.255  10.827   7.210
92324SOL    HW278812  12.400  10.804   7.172
92325SOL     OW78813   1.275   1.798   1.382
92325SOL    HW178814   1.364   1.763   1.379
92325SOL    HW278815   1.281   1.876   1.436
92326SOL     OW78816  13.705  11.620   3.737
92326SOL    HW178817  13.674  11.657   3.655
92326SOL    HW278818  13.676  11.681   3.805
92327SOL     OW78819   2.099   1.117  11.532
92327SOL    HW178820   2.179   1.157  11.565
92327SOL    HW278821   2.046   1.190  11.500
92328SOL     OW78822   3.283   9.472  14.031
92328SOL    HW178823   3.206   9.498  14.080
92328SOL    HW278824   3.357   9.514  14.076
92329SOL     OW78825   0.378   9.417   3.858
92329SOL    HW178826   0.298   9.422   3.806
92329SOL    HW278827   0.417   9.333   3.834
92330SOL     OW78828   3.395   7.178  14.746
92330SOL    HW178829   3.434   7.243  14.805
92330SOL    HW278830   3.300   7.190  14.758
92331SOL     OW78831   4.542   5.033   6.157
92331SOL    HW178832   4.530   5.098   6.226
92331SOL    HW278833   4.629   5.051   6.121
92332SOL     OW78834   6.565   7.727   0.207
92332SOL    HW178835   6.478   7.764   0.191
92332SOL    HW278836   6.567   7.646   0.157
92333SOL     OW78837   5.695  13.861   5.480
92333SOL    HW178838   5.731  13.913   5.409
92333SOL    HW278839   5.769  13.811   5.513
92334SOL     OW78840  12.433   5.271  11.968
92334SOL    HW178841  12.448   5.187  12.012
92334SOL    HW278842  12.422   5.334  12.040
92335SOL     OW78843   0.602  12.766   5.507
92335SOL    HW178844   0.654  12.811   5.440
92335SOL    HW278845   0.513  12.766   5.471
92336SOL     OW78846  12.738  11.431  14.793
92336SOL    HW178847  12.670  11.497  14.801
92336SOL    HW278848  12.790  11.441  14.873
92337SOL     OW78849   0.888   3.300  13.506
92337SOL    HW178850   0.965   3.251  13.477
92337SOL    HW278851   0.899   3.386  13.466
92338SOL     OW78852   1.133   7.808   2.348
92338SOL    HW178853   1.059   7.839   2.400
92338SOL    HW278854   1.132   7.864   2.270
92339SOL     OW78855  12.242  13.813   3.269
92339SOL    HW178856  12.290  13.820   3.186
92339SOL    HW278857  12.150  13.823   3.245
92340SOL     OW78858   4.596  10.619   9.311
92340SOL    HW178859   4.625  10.531   9.285
92340SOL    HW278860   4.667  10.676   9.282
92341SOL     OW78861   5.666   5.966  11.420
92341SOL    HW178862   5.666   5.871  11.404
92341SOL    HW278863   5.636   6.003  11.337
92342SOL     OW78864  11.336   2.942   7.658
92342SOL    HW178865  11.244   2.952   7.633
92342SOL    HW278866  11.379   2.909   7.580
92343SOL     OW78867  14.593   4.464   7.428
92343SOL    HW178868  14.627   4.509   7.351
92343SOL    HW278869  14.578   4.374   7.399
92344SOL     OW78870  13.535   9.131   2.767
92344SOL    HW178871  13.625   9.103   2.784
92344SOL    HW278872  13.537   9.226   2.780
92345SOL     OW78873  11.184   1.455   3.205
92345SOL    HW178874  11.195   1.385   3.140
92345SOL    HW278875  11.090   1.462   3.217
92346SOL     OW78876   0.275   3.869  13.621
92346SOL    HW178877   0.222   3.885  13.699
92346SOL    HW278878   0.362   3.902  13.644
92347SOL     OW78879   8.572   6.638   8.283
92347SOL    HW178880   8.551   6.546   8.264
92347SOL    HW278881   8.579   6.641   8.379
92348SOL     OW78882   0.627   4.554   9.982
92348SOL    HW178883   0.555   4.494  10.000
92348SOL    HW278884   0.601   4.599   9.902
92349SOL     OW78885   8.722   7.000   2.030
92349SOL    HW178886   8.742   7.044   2.113
92349SOL    HW278887   8.629   7.017   2.016
92350SOL     OW78888   7.272  11.364   6.186
92350SOL    HW178889   7.300  11.389   6.098
92350SOL    HW278890   7.331  11.293   6.212
92351SOL     OW78891  10.863   5.886  12.279
92351SOL    HW178892  10.931   5.826  12.251
92351SOL    HW278893  10.836   5.931  12.199
92352SOL     OW78894   4.403   5.367   0.136
92352SOL    HW178895   4.388   5.313   0.059
92352SOL    HW278896   4.426   5.305   0.205
92353SOL     OW78897  14.453   5.568  12.345
92353SOL    HW178898  14.396   5.557  12.421
92353SOL    HW278899  14.541   5.569  12.382
92354SOL     OW78900   5.422   3.467   5.908
92354SOL    HW178901   5.332   3.493   5.926
92354SOL    HW278902   5.475   3.521   5.967
92355SOL     OW78903   8.465   9.343   7.517
92355SOL    HW178904   8.520   9.307   7.586
92355SOL    HW278905   8.484   9.289   7.441
92356SOL     OW78906   0.674  10.878   4.324
92356SOL    HW178907   0.664  10.890   4.230
92356SOL    HW278908   0.623  10.799   4.344
92357SOL     OW78909   1.165  14.603   7.711
92357SOL    HW178910   1.115  14.673   7.671
92357SOL    HW278911   1.207  14.558   7.638
92358SOL     OW78912   8.331   7.682   7.585
92358SOL    HW178913   8.380   7.689   7.667
92358SOL    HW278914   8.268   7.754   7.589
92359SOL     OW78915   1.298   7.290   1.833
92359SOL    HW178916   1.312   7.206   1.788
92359SOL    HW278917   1.375   7.300   1.889
92360SOL     OW78918  13.508  11.061   7.093
92360SOL    HW178919  13.470  11.144   7.123
92360SOL    HW278920  13.458  11.040   7.014
92361SOL     OW78921   2.304   7.445   7.867
92361SOL    HW178922   2.359   7.389   7.811
92361SOL    HW278923   2.216   7.408   7.859
92362SOL     OW78924   4.939   1.249   6.147
92362SOL    HW178925   4.920   1.304   6.222
92362SOL    HW278926   5.030   1.268   6.125
92363SOL     OW78927  13.998   5.499   4.903
92363SOL    HW178928  14.036   5.539   4.982
92363SOL    HW278929  13.914   5.542   4.893
92364SOL     OW78930   8.108   4.745   4.357
92364SOL    HW178931   8.119   4.650   4.353
92364SOL    HW278932   8.192   4.781   4.327
92365SOL     OW78933  10.302  12.927   8.647
92365SOL    HW178934  10.265  12.849   8.688
92365SOL    HW278935  10.312  12.903   8.555
92366SOL     OW78936   1.996   0.490   8.708
92366SOL    HW178937   1.986   0.404   8.666
92366SOL    HW278938   1.967   0.476   8.798
92367SOL     OW78939  10.133   9.197   7.421
92367SOL    HW178940  10.050   9.178   7.378
92367SOL    HW278941  10.124   9.286   7.454
92368SOL     OW78942  14.224   7.931   1.694
92368SOL    HW178943  14.313   7.897   1.700
92368SOL    HW278944  14.232   8.011   1.642
92369SOL     OW78945  12.341   2.714  14.146
92369SOL    HW178946  12.322   2.791  14.199
92369SOL    HW278947  12.407   2.666  14.196
92370SOL     OW78948   2.389   6.016   9.993
92370SOL    HW178949   2.296   6.000   9.981
92370SOL    HW278950   2.432   5.938   9.957
92371SOL     OW78951   5.544   8.732   4.527
92371SOL    HW178952   5.508   8.813   4.489
92371SOL    HW278953   5.468   8.675   4.539
92372SOL     OW78954   1.693  14.609   6.933
92372SOL    HW178955   1.752  14.622   6.859
92372SOL    HW278956   1.605  14.610   6.895
92373SOL     OW78957   6.007   5.921  14.305
92373SOL    HW178958   5.950   5.975  14.251
92373SOL    HW278959   5.970   5.833  14.299
92374SOL     OW78960  13.886   4.014   6.267
92374SOL    HW178961  13.836   3.960   6.329
92374SOL    HW278962  13.873   4.104   6.298
92375SOL     OW78963   6.269  12.890   2.070
92375SOL    HW178964   6.279  12.862   2.161
92375SOL    HW278965   6.340  12.846   2.024
92376SOL     OW78966   4.214   5.182  12.735
92376SOL    HW178967   4.203   5.110  12.797
92376SOL    HW278968   4.284   5.154  12.677
92377SOL     OW78969   2.696  10.659  11.984
92377SOL    HW178970   2.646  10.587  11.944
92377SOL    HW278971   2.781  10.656  11.940
92378SOL     OW78972   0.905   6.061   4.519
92378SOL    HW178973   0.838   6.096   4.578
92378SOL    HW278974   0.939   6.138   4.472
92379SOL     OW78975   9.537   2.949  14.145
92379SOL    HW178976   9.514   2.856  14.153
92379SOL    HW278977   9.623   2.948  14.103
92380SOL     OW78978   9.604   5.810  10.252
92380SOL    HW178979   9.682   5.801  10.305
92380SOL    HW278980   9.578   5.902  10.261
92381SOL     OW78981   0.087  10.280   4.611
92381SOL    HW178982   0.103  10.227   4.690
92381SOL    HW278983   0.123  10.227   4.539
92382SOL     OW78984   9.432  11.471  12.035
92382SOL    HW178985   9.341  11.502  12.040
92382SOL    HW278986   9.441  11.439  11.945
92383SOL     OW78987   0.591   2.771  11.621
92383SOL    HW178988   0.526   2.711  11.582
92383SOL    HW278989   0.634   2.810  11.545
92384SOL     OW78990   5.597   3.231   1.169
92384SOL    HW178991   5.598   3.154   1.111
92384SOL    HW278992   5.680   3.227   1.216
92385SOL     OW78993   8.294  13.036   2.755
92385SOL    HW178994   8.388  13.052   2.757
92385SOL    HW278995   8.255  13.123   2.746
92386SOL     OW78996  12.000  14.764   1.797
92386SOL    HW178997  11.926  14.762   1.859
92386SOL    HW278998  11.975  14.703   1.728
92387SOL     OW78999   4.876   7.606  11.269
92387SOL    HW179000   4.823   7.627  11.192
92387SOL    HW279001   4.877   7.510  11.270
92388SOL     OW79002   3.724   0.869   9.458
92388SOL    HW179003   3.706   0.916   9.540
92388SOL    HW279004   3.782   0.797   9.484
92389SOL     OW79005   3.301   4.867  13.661
92389SOL    HW179006   3.235   4.895  13.597
92389SOL    HW279007   3.284   4.922  13.738
92390SOL     OW79008  11.899   8.018  12.973
92390SOL    HW179009  11.877   8.087  12.910
92390SOL    HW279010  11.952   8.061  13.040
92391SOL     OW79011   6.072   1.165   5.205
92391SOL    HW179012   6.055   1.185   5.113
92391SOL    HW279013   6.161   1.130   5.206
92392SOL     OW79014  13.809   8.313   6.609
92392SOL    HW179015  13.738   8.307   6.673
92392SOL    HW279016  13.843   8.224   6.602
92393SOL     OW79017   8.184   6.247   7.673
92393SOL    HW179018   8.183   6.254   7.768
92393SOL    HW279019   8.181   6.337   7.641
92394SOL     OW79020   4.163   6.987   0.222
92394SOL    HW179021   4.146   7.081   0.223
92394SOL    HW279022   4.103   6.950   0.286
92395SOL     OW79023   2.650   0.754   4.877
92395SOL    HW179024   2.658   0.671   4.923
92395SOL    HW279025   2.570   0.746   4.825
92396SOL     OW79026  10.904  10.570   7.550
92396SOL    HW179027  10.968  10.500   7.539
92396SOL    HW279028  10.835  10.550   7.487
92397SOL     OW79029   1.871   3.462   4.775
92397SOL    HW179030   1.904   3.431   4.859
92397SOL    HW279031   1.929   3.423   4.710
92398SOL     OW79032   7.606  14.795   6.282
92398SOL    HW179033   7.530  14.737   6.278
92398SOL    HW279034   7.584  14.867   6.223
92399SOL     OW79035   1.689   2.055  12.210
92399SOL    HW179036   1.626   2.088  12.145
92399SOL    HW279037   1.743   1.992  12.162
92400SOL     OW79038  13.899   5.019   2.308
92400SOL    HW179039  13.922   5.042   2.398
92400SOL    HW279040  13.812   5.056   2.296
92401SOL     OW79041   8.803  10.629   9.121
92401SOL    HW179042   8.791  10.662   9.210
92401SOL    HW279043   8.845  10.544   9.132
92402SOL     OW79044  11.258   5.093   3.677
92402SOL    HW179045  11.177   5.057   3.715
92402SOL    HW279046  11.250   5.075   3.583
92403SOL     OW79047   9.812  10.829  10.985
92403SOL    HW179048   9.801  10.923  10.994
92403SOL    HW279049   9.873  10.819  10.912
92404SOL     OW79050   9.442  14.174   9.407
92404SOL    HW179051   9.416  14.162   9.498
92404SOL    HW279052   9.372  14.132   9.356
92405SOL     OW79053  12.512   8.781   2.077
92405SOL    HW179054  12.519   8.833   2.157
92405SOL    HW279055  12.537   8.842   2.007
92406SOL     OW79056   3.770   7.065   7.551
92406SOL    HW179057   3.815   6.987   7.519
92406SOL    HW279058   3.829   7.137   7.531
92407SOL     OW79059  12.598  10.657   9.157
92407SOL    HW179060  12.615  10.690   9.068
92407SOL    HW279061  12.596  10.736   9.211
92408SOL     OW79062   1.550   9.984   5.741
92408SOL    HW179063   1.605   9.911   5.771
92408SOL    HW279064   1.489   9.944   5.679
92409SOL     OW79065   0.741   1.469   8.860
92409SOL    HW179066   0.733   1.556   8.899
92409SOL    HW279067   0.685   1.472   8.782
92410SOL     OW79068   2.255   8.354   9.476
92410SOL    HW179069   2.214   8.276   9.437
92410SOL    HW279070   2.246   8.341   9.570
92411SOL     OW79071   3.206   9.081   5.951
92411SOL    HW179072   3.232   8.990   5.956
92411SOL    HW279073   3.203   9.112   6.041
92412SOL     OW79074   2.225  14.062  11.570
92412SOL    HW179075   2.161  14.105  11.513
92412SOL    HW279076   2.246  14.128  11.636
92413SOL     OW79077   3.758  14.487  13.230
92413SOL    HW179078   3.682  14.544  13.243
92413SOL    HW279079   3.726  14.415  13.176
92414SOL     OW79080  12.845  11.299  10.975
92414SOL    HW179081  12.840  11.306  10.879
92414SOL    HW279082  12.757  11.323  11.005
92415SOL     OW79083  11.101   6.404   9.414
92415SOL    HW179084  11.041   6.418   9.488
92415SOL    HW279085  11.146   6.323   9.435
92416SOL     OW79086   7.165   3.912   5.459
92416SOL    HW179087   7.173   3.817   5.446
92416SOL    HW279088   7.186   3.949   5.373
92417SOL     OW79089  14.009  10.604   0.932
92417SOL    HW179090  13.963  10.540   0.986
92417SOL    HW279091  14.027  10.678   0.991
92418SOL     OW79092   4.003   6.374   6.637
92418SOL    HW179093   3.968   6.312   6.573
92418SOL    HW279094   4.094   6.388   6.609
92419SOL     OW79095   6.351   7.275   3.577
92419SOL    HW179096   6.388   7.328   3.648
92419SOL    HW279097   6.418   7.275   3.509
92420SOL     OW79098   1.118  12.538  10.145
92420SOL    HW179099   1.160  12.537  10.059
92420SOL    HW279100   1.033  12.498  10.131
92421SOL     OW79101  12.506  12.335   9.332
92421SOL    HW179102  12.542  12.247   9.321
92421SOL    HW279103  12.577  12.394   9.304
92422SOL     OW79104  12.599   6.617   0.177
92422SOL    HW179105  12.531   6.550   0.179
92422SOL    HW279106  12.557   6.694   0.215
92423SOL     OW79107   3.166   5.411  14.230
92423SOL    HW179108   3.237   5.448  14.282
92423SOL    HW279109   3.184   5.317  14.230
92424SOL     OW79110   0.750   1.872   4.947
92424SOL    HW179111   0.659   1.883   4.918
92424SOL    HW279112   0.797   1.944   4.905
92425SOL     OW79113   2.719   4.945   4.642
92425SOL    HW179114   2.746   5.037   4.652
92425SOL    HW279115   2.798   4.899   4.614
92426SOL     OW79116  13.844   2.379   9.042
92426SOL    HW179117  13.848   2.303   8.984
92426SOL    HW279118  13.849   2.454   8.983
92427SOL     OW79119   9.807   2.782   0.563
92427SOL    HW179120   9.759   2.732   0.497
92427SOL    HW279121   9.873   2.722   0.596
92428SOL     OW79122   1.321   2.294  13.701
92428SOL    HW179123   1.339   2.322  13.611
92428SOL    HW279124   1.244   2.344  13.727
92429SOL     OW79125   8.101  11.274  13.084
92429SOL    HW179126   8.055  11.335  13.027
92429SOL    HW279127   8.042  11.199  13.091
92430SOL     OW79128  13.280   4.009   8.258
92430SOL    HW179129  13.228   3.934   8.227
92430SOL    HW279130  13.365   3.971   8.279
92431SOL     OW79131   7.812   2.922  13.488
92431SOL    HW179132   7.797   2.884  13.575
92431SOL    HW279133   7.879   2.989  13.502
92432SOL     OW79134  14.440  13.243   2.311
92432SOL    HW179135  14.482  13.300   2.246
92432SOL    HW279136  14.427  13.160   2.265
92433SOL     OW79137  13.049   4.897   2.380
92433SOL    HW179138  13.042   4.975   2.435
92433SOL    HW279139  13.102   4.836   2.431
92434SOL     OW79140   8.664   4.777   3.903
92434SOL    HW179141   8.604   4.851   3.893
92434SOL    HW279142   8.614   4.702   3.871
92435SOL     OW79143   7.338   9.031   8.030
92435SOL    HW179144   7.261   9.086   8.017
92435SOL    HW279145   7.305   8.954   8.075
92436SOL     OW79146   5.368  10.618   0.631
92436SOL    HW179147   5.398  10.640   0.543
92436SOL    HW279148   5.279  10.653   0.635
92437SOL     OW79149   7.394  14.713   5.673
92437SOL    HW179150   7.461  14.742   5.735
92437SOL    HW279151   7.312  14.726   5.720
92438SOL     OW79152   8.586   6.525   5.965
92438SOL    HW179153   8.636   6.445   5.945
92438SOL    HW279154   8.651   6.595   5.961
92439SOL     OW79155   8.724  14.390  13.378
92439SOL    HW179156   8.665  14.449  13.330
92439SOL    HW279157   8.689  14.303  13.362
92440SOL     OW79158   0.878   2.901   2.763
92440SOL    HW179159   0.867   2.965   2.833
92440SOL    HW279160   0.816   2.928   2.696
92441SOL     OW79161   4.359   1.797   7.624
92441SOL    HW179162   4.350   1.886   7.590
92441SOL    HW279163   4.321   1.801   7.712
92442SOL     OW79164  12.558   1.619   2.883
92442SOL    HW179165  12.575   1.527   2.862
92442SOL    HW279166  12.547   1.620   2.978
92443SOL     OW79167   5.150   8.241  14.142
92443SOL    HW179168   5.232   8.205  14.175
92443SOL    HW279169   5.091   8.242  14.217
92444SOL     OW79170   8.252   5.936   3.512
92444SOL    HW179171   8.306   5.863   3.543
92444SOL    HW279172   8.208   5.968   3.591
92445SOL     OW79173   7.812   7.887   5.678
92445SOL    HW179174   7.819   7.843   5.762
92445SOL    HW279175   7.776   7.821   5.619
92446SOL     OW79176  11.045   6.388   1.376
92446SOL    HW179177  10.979   6.438   1.425
92446SOL    HW279178  11.124   6.441   1.381
92447SOL     OW79179  11.442  11.399   3.763
92447SOL    HW179180  11.433  11.310   3.729
92447SOL    HW279181  11.386  11.400   3.841
92448SOL     OW79182   3.709   4.850   7.297
92448SOL    HW179183   3.768   4.909   7.250
92448SOL    HW279184   3.743   4.848   7.387
92449SOL     OW79185   5.227   0.811  10.305
92449SOL    HW179186   5.180   0.727  10.312
92449SOL    HW279187   5.319   0.786  10.295
92450SOL     OW79188  13.155  13.807   1.694
92450SOL    HW179189  13.113  13.770   1.771
92450SOL    HW279190  13.223  13.864   1.728
92451SOL     OW79191   6.180   1.013   0.572
92451SOL    HW179192   6.156   1.020   0.480
92451SOL    HW279193   6.204   0.922   0.584
92452SOL     OW79194  12.747   2.137   4.687
92452SOL    HW179195  12.738   2.154   4.593
92452SOL    HW279196  12.838   2.160   4.707
92453SOL     OW79197  12.632   1.650   4.270
92453SOL    HW179198  12.659   1.636   4.361
92453SOL    HW279199  12.539   1.628   4.268
92454SOL     OW79200   0.777   9.404   4.925
92454SOL    HW179201   0.739   9.492   4.916
92454SOL    HW279202   0.712   9.346   4.885
92455SOL     OW79203  11.731   9.326   6.666
92455SOL    HW179204  11.699   9.310   6.577
92455SOL    HW279205  11.772   9.413   6.662
92456SOL     OW79206  12.582  11.581   4.793
92456SOL    HW179207  12.676  11.568   4.804
92456SOL    HW279208  12.574  11.663   4.744
92457SOL     OW79209  13.772   5.423  10.219
92457SOL    HW179210  13.722   5.502  10.240
92457SOL    HW279211  13.707   5.362  10.185
92458SOL     OW79212   5.173   2.646   4.877
92458SOL    HW179213   5.182   2.644   4.972
92458SOL    HW279214   5.200   2.735   4.852
92459SOL     OW79215   5.230   5.503   1.067
92459SOL    HW179216   5.246   5.597   1.073
92459SOL    HW279217   5.262   5.479   0.980
92460SOL     OW79218   0.556   2.862  14.198
92460SOL    HW179219   0.541   2.771  14.169
92460SOL    HW279220   0.550   2.913  14.117
92461SOL     OW79221  10.716   7.395   9.454
92461SOL    HW179222  10.798   7.445   9.450
92461SOL    HW279223  10.649   7.462   9.467
92462SOL     OW79224   5.428   9.804  11.798
92462SOL    HW179225   5.514   9.830  11.764
92462SOL    HW279226   5.421   9.711  11.775
92463SOL     OW79227   9.865   0.128  14.329
92463SOL    HW179228   9.892   0.069  14.259
92463SOL    HW279229   9.770   0.120  14.333
92464SOL     OW79230  13.920   8.506   3.172
92464SOL    HW179231  13.887   8.423   3.137
92464SOL    HW279232  13.928   8.489   3.266
92465SOL     OW79233  12.420   9.857   0.772
92465SOL    HW179234  12.507   9.897   0.776
92465SOL    HW279235  12.437   9.767   0.745
92466SOL     OW79236  10.509   6.618   2.504
92466SOL    HW179237  10.598   6.625   2.469
92466SOL    HW279238  10.486   6.708   2.528
92467SOL     OW79239   2.543  13.151   5.637
92467SOL    HW179240   2.603  13.217   5.673
92467SOL    HW279241   2.575  13.068   5.671
92468SOL     OW79242   2.336  10.860   3.542
92468SOL    HW179243   2.367  10.772   3.522
92468SOL    HW279244   2.415  10.910   3.559
92469SOL     OW79245   5.749  12.364   5.256
92469SOL    HW179246   5.719  12.273   5.261
92469SOL    HW279247   5.844  12.358   5.261
92470SOL     OW79248   6.758   6.267   2.079
92470SOL    HW179249   6.818   6.297   2.148
92470SOL    HW279250   6.680   6.321   2.090
92471SOL     OW79251   4.543   6.481   2.506
92471SOL    HW179252   4.637   6.463   2.501
92471SOL    HW279253   4.535   6.574   2.485
92472SOL     OW79254  10.791   2.386  10.160
92472SOL    HW179255  10.789   2.428  10.246
92472SOL    HW279256  10.739   2.306  10.171
92473SOL     OW79257   4.035   4.329  12.145
92473SOL    HW179258   4.072   4.268  12.210
92473SOL    HW279259   4.101   4.397  12.136
92474SOL     OW79260  13.199   6.086   5.026
92474SOL    HW179261  13.252   6.105   4.948
92474SOL    HW279262  13.264   6.067   5.094
92475SOL     OW79263   8.782  10.864   5.201
92475SOL    HW179264   8.695  10.872   5.162
92475SOL    HW279265   8.767  10.872   5.295
92476SOL     OW79266  13.787   8.880  14.622
92476SOL    HW179267  13.708   8.896  14.674
92476SOL    HW279268  13.755   8.836  14.543
92477SOL     OW79269  12.370   8.317   8.549
92477SOL    HW179270  12.291   8.268   8.529
92477SOL    HW279271  12.432   8.293   8.480
92478SOL     OW79272  11.123   6.718   5.237
92478SOL    HW179273  11.061   6.667   5.185
92478SOL    HW279274  11.156   6.656   5.302
92479SOL     OW79275  10.517   1.959   1.633
92479SOL    HW179276  10.562   2.043   1.626
92479SOL    HW279277  10.523   1.936   1.725
92480SOL     OW79278  11.727  10.537   0.211
92480SOL    HW179279  11.778  10.458   0.196
92480SOL    HW279280  11.733  10.552   0.306
92481SOL     OW79281  11.353  11.255  12.259
92481SOL    HW179282  11.336  11.310  12.183
92481SOL    HW279283  11.424  11.300  12.306
92482SOL     OW79284   4.855   7.873   8.096
92482SOL    HW179285   4.871   7.779   8.107
92482SOL    HW279286   4.912   7.915   8.160
92483SOL     OW79287  10.916   8.612  12.281
92483SOL    HW179288  10.828   8.599  12.318
92483SOL    HW279289  10.939   8.526  12.245
92484SOL     OW79290  13.279   9.352   4.862
92484SOL    HW179291  13.351   9.397   4.906
92484SOL    HW279292  13.212   9.340   4.930
92485SOL     OW79293   6.858   2.056  10.045
92485SOL    HW179294   6.789   2.060   9.980
92485SOL    HW279295   6.939   2.054   9.995
92486SOL     OW79296   7.863   2.323  14.435
92486SOL    HW179297   7.771   2.303  14.454
92486SOL    HW279298   7.867   2.419  14.437
92487SOL     OW79299   5.836  14.617   7.745
92487SOL    HW179300   5.752  14.642   7.708
92487SOL    HW279301   5.878  14.566   7.675
92488SOL     OW79302   3.246   6.080  14.367
92488SOL    HW179303   3.209   6.003  14.324
92488SOL    HW279304   3.331   6.092  14.324
92489SOL     OW79305  10.520  11.693   6.711
92489SOL    HW179306  10.535  11.722   6.801
92489SOL    HW279307  10.605  11.704   6.669
92490SOL     OW79308   1.371   2.919  11.738
92490SOL    HW179309   1.311   2.862  11.690
92490SOL    HW279310   1.458   2.894  11.707
92491SOL     OW79311   3.723   2.510   8.704
92491SOL    HW179312   3.655   2.573   8.727
92491SOL    HW279313   3.676   2.429   8.685
92492SOL     OW79314   5.767  12.117   3.347
92492SOL    HW179315   5.706  12.068   3.293
92492SOL    HW279316   5.848  12.118   3.297
92493SOL     OW79317   6.241   7.809  14.022
92493SOL    HW179318   6.200   7.734  14.066
92493SOL    HW279319   6.271   7.866  14.093
92494SOL     OW79320   4.725   8.994  10.184
92494SOL    HW179321   4.701   9.060  10.118
92494SOL    HW279322   4.654   8.999  10.249
92495SOL     OW79323   0.302   6.236   8.048
92495SOL    HW179324   0.349   6.309   8.010
92495SOL    HW279325   0.367   6.190   8.101
92496SOL     OW79326   3.583  14.129   6.460
92496SOL    HW179327   3.559  14.087   6.542
92496SOL    HW279328   3.560  14.221   6.472
92497SOL     OW79329   4.273   7.000  14.224
92497SOL    HW179330   4.229   7.063  14.167
92497SOL    HW279331   4.209   6.981  14.292
92498SOL     OW79332   4.436   1.894   9.436
92498SOL    HW179333   4.381   1.903   9.358
92498SOL    HW279334   4.401   1.816   9.480
92499SOL     OW79335   0.573   2.007  11.481
92499SOL    HW179336   0.603   1.968  11.398
92499SOL    HW279337   0.507   1.947  11.514
92500SOL     OW79338  11.879  10.663  12.163
92500SOL    HW179339  11.840  10.650  12.250
92500SOL    HW279340  11.806  10.692  12.108
92501SOL     OW79341   9.194   8.128  14.118
92501SOL    HW179342   9.231   8.041  14.109
92501SOL    HW279343   9.149   8.126  14.203
92502SOL     OW79344   8.229   0.077  10.659
92502SOL    HW179345   8.265   0.061  10.746
92502SOL    HW279346   8.305   0.071  10.601
92503SOL     OW79347  12.065   0.395   3.258
92503SOL    HW179348  12.137   0.382   3.319
92503SOL    HW279349  12.037   0.307   3.234
92504SOL     OW79350   0.048  14.751   9.588
92504SOL    HW179351   0.098  14.761   9.507
92504SOL    HW279352   0.115  14.745   9.656
92505SOL     OW79353   8.090   9.519   6.872
92505SOL    HW179354   8.055   9.520   6.783
92505SOL    HW279355   8.176   9.477   6.864
92506SOL     OW79356   2.583   3.747   7.846
92506SOL    HW179357   2.630   3.816   7.799
92506SOL    HW279358   2.589   3.670   7.790
92507SOL     OW79359   1.433   2.285   5.253
92507SOL    HW179360   1.354   2.340   5.253
92507SOL    HW279361   1.401   2.199   5.227
92508SOL     OW79362   4.944  14.524   9.674
92508SOL    HW179363   4.994  14.557   9.749
92508SOL    HW279364   4.864  14.576   9.675
92509SOL     OW79365  12.936   0.057   4.386
92509SOL    HW179366  13.001   0.005   4.339
92509SOL    HW279367  12.951   0.147   4.357
92510SOL     OW79368  13.724   8.628   1.142
92510SOL    HW179369  13.790   8.697   1.136
92510SOL    HW279370  13.654   8.667   1.194
92511SOL     OW79371   8.037   1.787   2.310
92511SOL    HW179372   8.131   1.785   2.293
92511SOL    HW279373   8.020   1.707   2.360
92512SOL     OW79374   8.019  11.349  11.743
92512SOL    HW179375   7.997  11.442  11.740
92512SOL    HW279376   7.960  11.308  11.679
92513SOL     OW79377  10.166   8.072   0.535
92513SOL    HW179378  10.095   8.120   0.494
92513SOL    HW279379  10.235   8.070   0.470
92514SOL     OW79380   3.731   8.528   4.884
92514SOL    HW179381   3.707   8.568   4.968
92514SOL    HW279382   3.807   8.474   4.904
92515SOL     OW79383   3.468  13.514   8.291
92515SOL    HW179384   3.459  13.533   8.385
92515SOL    HW279385   3.383  13.478   8.266
92516SOL     OW79386   0.886   7.590  14.489
92516SOL    HW179387   0.923   7.558  14.407
92516SOL    HW279388   0.930   7.539  14.557
92517SOL     OW79389   2.630   2.721  11.035
92517SOL    HW179390   2.626   2.804  11.081
92517SOL    HW279391   2.573   2.733  10.959
92518SOL     OW79392   7.899   4.818   1.222
92518SOL    HW179393   7.867   4.740   1.176
92518SOL    HW279394   7.968   4.853   1.166
92519SOL     OW79395   8.348  12.991   9.937
92519SOL    HW179396   8.310  12.976   9.850
92519SOL    HW279397   8.310  12.922   9.992
92520SOL     OW79398  12.978   6.004   5.642
92520SOL    HW179399  12.903   5.952   5.670
92520SOL    HW279400  13.052   5.966   5.689
92521SOL     OW79401  14.719   6.305  11.823
92521SOL    HW179402  14.669   6.377  11.786
92521SOL    HW279403  14.704   6.312  11.918
92522SOL     OW79404  14.436   1.730   5.002
92522SOL    HW179405  14.417   1.709   5.094
92522SOL    HW279406  14.520   1.775   5.005
92523SOL     OW79407   8.973  14.021  13.012
92523SOL    HW179408   8.997  13.998  12.923
92523SOL    HW279409   9.006  14.110  13.024
92524SOL     OW79410  13.712   0.848   2.938
92524SOL    HW179411  13.792   0.828   2.888
92524SOL    HW279412  13.733   0.930   2.984
92525SOL     OW79413  11.161   1.189  13.487
92525SOL    HW179414  11.094   1.256  13.479
92525SOL    HW279415  11.225   1.210  13.419
92526SOL     OW79416   0.512   0.736   4.856
92526SOL    HW179417   0.452   0.729   4.930
92526SOL    HW279418   0.518   0.830   4.839
92527SOL     OW79419   8.041  14.618   6.383
92527SOL    HW179420   7.946  14.617   6.372
92527SOL    HW279421   8.056  14.678   6.457
92528SOL     OW79422   9.192   5.958   1.734
92528SOL    HW179423   9.225   6.002   1.656
92528SOL    HW279424   9.151   6.027   1.785
92529SOL     OW79425  14.020  12.606  14.647
92529SOL    HW179426  14.075  12.622  14.723
92529SOL    HW279427  13.958  12.679  14.646
92530SOL     OW79428   9.182  14.036   6.045
92530SOL    HW179429   9.222  14.105   5.991
92530SOL    HW279430   9.249  14.016   6.111
92531SOL     OW79431  12.749   7.801   0.088
92531SOL    HW179432  12.778   7.805   0.179
92531SOL    HW279433  12.655   7.786   0.093
92532SOL     OW79434  13.566  12.056  14.672
92532SOL    HW179435  13.638  12.104  14.713
92532SOL    HW279436  13.496  12.120  14.663
92533SOL     OW79437   7.625   4.174   8.899
92533SOL    HW179438   7.684   4.227   8.953
92533SOL    HW279439   7.644   4.084   8.925
92534SOL     OW79440   4.445   9.897  10.386
92534SOL    HW179441   4.450   9.844  10.465
92534SOL    HW279442   4.385   9.968  10.408
92535SOL     OW79443   9.942  12.530   0.773
92535SOL    HW179444   9.947  12.621   0.744
92535SOL    HW279445   9.959  12.534   0.867
92536SOL     OW79446  11.729  10.311   2.476
92536SOL    HW179447  11.775  10.395   2.477
92536SOL    HW279448  11.788  10.252   2.431
92537SOL     OW79449  12.653   4.251   8.207
92537SOL    HW179450  12.678   4.343   8.215
92537SOL    HW279451  12.558   4.251   8.216
92538SOL     OW79452   5.086   2.976  14.847
92538SOL    HW179453   5.097   2.893  14.801
92538SOL    HW279454   5.170   2.991   0.013
92539SOL     OW79455  10.655   5.527   6.413
92539SOL    HW179456  10.583   5.484   6.459
92539SOL    HW279457  10.636   5.621   6.419
92540SOL     OW79458   9.490   8.160   2.975
92540SOL    HW179459   9.530   8.163   3.062
92540SOL    HW279460   9.490   8.067   2.952
92541SOL     OW79461   1.543   3.256  12.735
92541SOL    HW179462   1.599   3.294  12.803
92541SOL    HW279463   1.545   3.320  12.664
92542SOL     OW79464   8.546  13.555   6.343
92542SOL    HW179465   8.451  13.565   6.354
92542SOL    HW279466   8.560  13.460   6.341
92543SOL     OW79467   2.421  13.171  13.452
92543SOL    HW179468   2.467  13.250  13.479
92543SOL    HW279469   2.479  13.099  13.476
92544SOL     OW79470   6.275   5.683  12.102
92544SOL    HW179471   6.311   5.681  12.191
92544SOL    HW279472   6.198   5.739  12.109
92545SOL     OW79473  11.355   1.116   0.702
92545SOL    HW179474  11.373   1.063   0.779
92545SOL    HW279475  11.385   1.062   0.628
92546SOL     OW79476   2.440  12.901   8.221
92546SOL    HW179477   2.440  12.996   8.229
92546SOL    HW279478   2.459  12.870   8.309
92547SOL     OW79479   3.674   0.722  13.387
92547SOL    HW179480   3.702   0.633  13.409
92547SOL    HW279481   3.579   0.722  13.401
92548SOL     OW79482   2.910  12.573   2.676
92548SOL    HW179483   2.994  12.619   2.672
92548SOL    HW279484   2.862  12.603   2.598
92549SOL     OW79485   6.363   3.514   5.760
92549SOL    HW179486   6.390   3.502   5.669
92549SOL    HW279487   6.363   3.609   5.772
92550SOL     OW79488   5.231   4.797   0.172
92550SOL    HW179489   5.168   4.863   0.203
92550SOL    HW279490   5.202   4.775   0.084
92551SOL     OW79491   2.968  12.683   9.811
92551SOL    HW179492   2.995  12.769   9.780
92551SOL    HW279493   2.932  12.639   9.734
92552SOL     OW79494   8.555   3.498   9.594
92552SOL    HW179495   8.513   3.439   9.657
92552SOL    HW279496   8.493   3.503   9.522
92553SOL     OW79497   5.599  12.061   2.621
92553SOL    HW179498   5.596  12.140   2.676
92553SOL    HW279499   5.507  12.033   2.615
92554SOL     OW79500  10.834   4.113   5.368
92554SOL    HW179501  10.836   4.135   5.461
92554SOL    HW279502  10.923   4.128   5.337
92555SOL     OW79503  12.094   9.324   8.017
92555SOL    HW179504  12.097   9.391   8.086
92555SOL    HW279505  12.185   9.317   7.988
92556SOL     OW79506   8.362   5.689   1.371
92556SOL    HW179507   8.272   5.673   1.400
92556SOL    HW279508   8.367   5.646   1.286
92557SOL     OW79509   8.190  13.774  14.037
92557SOL    HW179510   8.140  13.693  14.028
92557SOL    HW279511   8.133  13.832  14.088
92558SOL     OW79512   8.169   2.044   9.964
92558SOL    HW179513   8.224   1.979  10.007
92558SOL    HW279514   8.150   2.109  10.032
92559SOL     OW79515   8.309   2.448  10.243
92559SOL    HW179516   8.227   2.497  10.245
92559SOL    HW279517   8.351   2.474  10.161
92560SOL     OW79518   7.118  12.671   0.291
92560SOL    HW179519   7.139  12.593   0.343
92560SOL    HW279520   7.196  12.685   0.237
92561SOL     OW79521  13.570  11.055   1.858
92561SOL    HW179522  13.534  10.987   1.916
92561SOL    HW279523  13.650  11.084   1.903
92562SOL     OW79524   6.797   2.417   0.843
92562SOL    HW179525   6.889   2.423   0.818
92562SOL    HW279526   6.794   2.454   0.932
92563SOL     OW79527   0.528   8.925   4.893
92563SOL    HW179528   0.525   8.902   4.986
92563SOL    HW279529   0.506   8.844   4.848
92564SOL     OW79530  14.497   1.414  14.847
92564SOL    HW179531  14.484   1.425   0.064
92564SOL    HW279532  14.576   1.464  14.827
92565SOL     OW79533  11.331   2.187  10.111
92565SOL    HW179534  11.400   2.131  10.147
92565SOL    HW279535  11.272   2.202  10.185
92566SOL     OW79536   8.109   0.269  11.743
92566SOL    HW179537   8.108   0.205  11.814
92566SOL    HW279538   8.201   0.287  11.728
92567SOL     OW79539   8.654   0.196  13.771
92567SOL    HW179540   8.671   0.112  13.816
92567SOL    HW279541   8.635   0.257  13.842
92568SOL     OW79542   9.145   7.650   4.995
92568SOL    HW179543   9.176   7.721   5.050
92568SOL    HW279544   9.162   7.570   5.046
92569SOL     OW79545  14.780  11.730   1.601
92569SOL    HW179546  14.731  11.779   1.667
92569SOL    HW279547  14.766  11.638   1.624
92570SOL     OW79548  14.025   8.306   2.198
92570SOL    HW179549  14.008   8.400   2.212
92570SOL    HW279550  14.120   8.299   2.201
92571SOL     OW79551   3.186  14.296   2.960
92571SOL    HW179552   3.155  14.211   2.927
92571SOL    HW279553   3.181  14.287   3.055
92572SOL     OW79554   3.102   4.844   6.513
92572SOL    HW179555   3.153   4.911   6.558
92572SOL    HW279556   3.055   4.799   6.584
92573SOL     OW79557  12.478   4.204   9.870
92573SOL    HW179558  12.510   4.180   9.957
92573SOL    HW279559  12.543   4.167   9.810
92574SOL     OW79560  11.693   2.132   1.543
92574SOL    HW179561  11.784   2.106   1.535
92574SOL    HW279562  11.643   2.060   1.503
92575SOL     OW79563   2.977   8.757   9.492
92575SOL    HW179564   2.882   8.761   9.508
92575SOL    HW279565   3.008   8.845   9.514
92576SOL     OW79566  12.829   8.046   3.288
92576SOL    HW179567  12.821   8.140   3.270
92576SOL    HW279568  12.760   8.006   3.235
92577SOL     OW79569  14.223   3.338   0.539
92577SOL    HW179570  14.167   3.322   0.615
92577SOL    HW279571  14.305   3.296   0.560
92578SOL     OW79572   0.284   3.208  14.363
92578SOL    HW179573   0.308   3.280  14.421
92578SOL    HW279574   0.336   3.134  14.394
92579SOL     OW79575  11.487   6.419   8.378
92579SOL    HW179576  11.564   6.387   8.333
92579SOL    HW279577  11.444   6.477   8.315
92580SOL     OW79578  10.573   9.233   5.461
92580SOL    HW179579  10.640   9.284   5.415
92580SOL    HW279580  10.575   9.148   5.417
92581SOL     OW79581   3.290   9.214   6.203
92581SOL    HW179582   3.330   9.127   6.199
92581SOL    HW279583   3.365   9.274   6.197
92582SOL     OW79584  14.461   6.655  12.310
92582SOL    HW179585  14.387   6.597  12.329
92582SOL    HW279586  14.425   6.743  12.322
92583SOL     OW79587   9.968  14.070   0.127
92583SOL    HW179588  10.029  14.054   0.055
92583SOL    HW279589   9.899  14.005   0.114
92584SOL     OW79590   2.490   1.620   7.757
92584SOL    HW179591   2.398   1.633   7.735
92584SOL    HW279592   2.493   1.534   7.800
92585SOL     OW79593  11.345  14.779  14.714
92585SOL    HW179594  11.339  14.800  14.807
92585SOL    HW279595  11.426  14.820  14.685
92586SOL     OW79596  13.705   9.860   9.021
92586SOL    HW179597  13.629   9.865   8.964
92586SOL    HW279598  13.671   9.821   9.102
92587SOL     OW79599  11.296   1.318   9.197
92587SOL    HW179600  11.254   1.404   9.193
92587SOL    HW279601  11.296   1.287   9.107
92588SOL     OW79602  13.677  14.600   0.338
92588SOL    HW179603  13.722  14.610   0.422
92588SOL    HW279604  13.744  14.618   0.273
92589SOL     OW79605   9.420   7.758   2.539
92589SOL    HW179606   9.385   7.827   2.482
92589SOL    HW279607   9.352   7.691   2.540
92590SOL     OW79608   4.607   3.345  10.173
92590SOL    HW179609   4.552   3.352  10.095
92590SOL    HW279610   4.655   3.427  10.176
92591SOL     OW79611   1.384   9.235  12.570
92591SOL    HW179612   1.448   9.266  12.634
92591SOL    HW279613   1.307   9.213  12.622
92592SOL     OW79614   1.573   0.315  14.037
92592SOL    HW179615   1.634   0.383  14.010
92592SOL    HW279616   1.503   0.362  14.082
92593SOL     OW79617  12.069  11.033   4.339
92593SOL    HW179618  12.079  11.116   4.292
92593SOL    HW279619  11.984  11.040   4.382
92594SOL     OW79620   3.014   6.973   4.375
92594SOL    HW179621   3.031   7.042   4.439
92594SOL    HW279622   3.085   6.910   4.387
92595SOL     OW79623  14.202   8.065   1.945
92595SOL    HW179624  14.276   8.126   1.938
92595SOL    HW279625  14.211   8.008   1.869
92596SOL     OW79626   2.515  10.445   7.534
92596SOL    HW179627   2.584  10.504   7.502
92596SOL    HW279628   2.561  10.385   7.592
92597SOL     OW79629  11.762  11.722   0.371
92597SOL    HW179630  11.763  11.641   0.321
92597SOL    HW279631  11.813  11.784   0.318
92598SOL     OW79632   4.093   8.027   2.895
92598SOL    HW179633   4.053   7.948   2.858
92598SOL    HW279634   4.118   8.079   2.818
92599SOL     OW79635   2.047   0.433   5.768
92599SOL    HW179636   1.973   0.420   5.710
92599SOL    HW279637   2.058   0.528   5.772
92600SOL     OW79638   2.971   6.787   5.588
92600SOL    HW179639   2.949   6.859   5.529
92600SOL    HW279640   3.064   6.796   5.605
92601SOL     OW79641  11.504  12.387   8.685
92601SOL    HW179642  11.499  12.359   8.776
92601SOL    HW279643  11.430  12.343   8.642
92602SOL     OW79644   1.943  14.816  11.145
92602SOL    HW179645   1.959  14.722  11.137
92602SOL    HW279646   2.024  14.857  11.116
92603SOL     OW79647  10.289  10.784  12.460
92603SOL    HW179648  10.273  10.872  12.495
92603SOL    HW279649  10.285  10.727  12.537
92604SOL     OW79650   3.463  14.144   1.453
92604SOL    HW179651   3.420  14.098   1.526
92604SOL    HW279652   3.397  14.204   1.420
92605SOL     OW79653   4.001   6.811   3.164
92605SOL    HW179654   4.035   6.834   3.078
92605SOL    HW279655   4.013   6.891   3.216
92606SOL     OW79656   7.354   3.707   0.193
92606SOL    HW179657   7.394   3.786   0.156
92606SOL    HW279658   7.421   3.672   0.253
92607SOL     OW79659   4.503   1.586   9.910
92607SOL    HW179660   4.409   1.568   9.919
92607SOL    HW279661   4.543   1.499   9.909
92608SOL     OW79662   4.823   8.223   5.262
92608SOL    HW179663   4.800   8.130   5.263
92608SOL    HW279664   4.792   8.257   5.345
92609SOL     OW79665  13.819  13.903   0.604
92609SOL    HW179666  13.860  13.887   0.689
92609SOL    HW279667  13.885  13.875   0.540
92610SOL     OW79668   7.703  12.840   3.831
92610SOL    HW179669   7.734  12.829   3.741
92610SOL    HW279670   7.758  12.908   3.868
92611SOL     OW79671   2.115  11.938   2.130
92611SOL    HW179672   2.042  11.876   2.131
92611SOL    HW279673   2.181  11.895   2.076
92612SOL     OW79674   8.258   4.547   7.178
92612SOL    HW179675   8.212   4.517   7.099
92612SOL    HW279676   8.344   4.506   7.173
92613SOL     OW79677   7.512   9.913  14.718
92613SOL    HW179678   7.459   9.896  14.796
92613SOL    HW279679   7.594   9.868  14.734
92614SOL     OW79680   1.004   4.910   1.169
92614SOL    HW179681   0.944   4.902   1.095
92614SOL    HW279682   1.087   4.937   1.130
92615SOL     OW79683   4.582   7.434  10.509
92615SOL    HW179684   4.632   7.355  10.489
92615SOL    HW279685   4.585   7.486  10.429
92616SOL     OW79686  12.366   1.400  13.631
92616SOL    HW179687  12.426   1.361  13.567
92616SOL    HW279688  12.340   1.483  13.592
92617SOL     OW79689  13.899   7.825   3.219
92617SOL    HW179690  13.883   7.731   3.220
92617SOL    HW279691  13.832   7.860   3.160
92618SOL     OW79692   0.228  11.593   1.793
92618SOL    HW179693   0.203  11.574   1.703
92618SOL    HW279694   0.275  11.515   1.822
92619SOL     OW79695  12.415  11.487   5.279
92619SOL    HW179696  12.509  11.491   5.259
92619SOL    HW279697  12.394  11.393   5.276
92620SOL     OW79698   6.953   4.257  11.953
92620SOL    HW179699   6.930   4.348  11.934
92620SOL    HW279700   6.935   4.247  12.046
92621SOL     OW79701   7.363  11.051  10.730
92621SOL    HW179702   7.316  11.130  10.755
92621SOL    HW279703   7.450  11.082  10.703
92622SOL     OW79704   7.709  13.848   0.004
92622SOL    HW179705   7.675  13.893  14.803
92622SOL    HW279706   7.798  13.882   0.014
92623SOL     OW79707  11.465  14.423   1.986
92623SOL    HW179708  11.416  14.384   1.913
92623SOL    HW279709  11.526  14.355   2.014
92624SOL     OW79710   5.487   0.167   4.170
92624SOL    HW179711   5.563   0.110   4.155
92624SOL    HW279712   5.525   0.252   4.193
92625SOL     OW79713   5.733  12.786   5.038
92625SOL    HW179714   5.685  12.868   5.053
92625SOL    HW279715   5.808  12.791   5.098
92626SOL     OW79716  14.128  13.196   6.975
92626SOL    HW179717  14.034  13.212   6.987
92626SOL    HW279718  14.166  13.284   6.971
92627SOL     OW79719   9.227   1.635   7.622
92627SOL    HW179720   9.177   1.558   7.650
92627SOL    HW279721   9.248   1.681   7.703
92628SOL     OW79722   2.499  13.936   1.398
92628SOL    HW179723   2.532  13.890   1.320
92628SOL    HW279724   2.575  13.946   1.455
92629SOL     OW79725   7.664   0.625  14.791
92629SOL    HW179726   7.698   0.552  14.843
92629SOL    HW279727   7.705   0.614  14.705
92630SOL     OW79728  13.375   2.556   1.791
92630SOL    HW179729  13.448   2.613   1.768
92630SOL    HW279730  13.415   2.470   1.803
92631SOL     OW79731   0.840   9.674  14.495
92631SOL    HW179732   0.766   9.616  14.510
92631SOL    HW279733   0.914   9.632  14.540
92632SOL     OW79734  10.477  10.011  14.284
92632SOL    HW179735  10.407   9.956  14.320
92632SOL    HW279736  10.430  10.078  14.233
92633SOL     OW79737  10.431   4.213  10.921
92633SOL    HW179738  10.377   4.282  10.882
92633SOL    HW279739  10.517   4.225  10.880
92634SOL     OW79740   6.413  13.682   9.660
92634SOL    HW179741   6.457  13.646   9.583
92634SOL    HW279742   6.410  13.610   9.722
92635SOL     OW79743  11.897  12.635   1.694
92635SOL    HW179744  11.971  12.582   1.725
92635SOL    HW279745  11.873  12.595   1.610
92636SOL     OW79746  11.281  10.377   3.940
92636SOL    HW179747  11.220  10.360   3.869
92636SOL    HW279748  11.265  10.306   4.002
92637SOL     OW79749   2.962   7.447  11.183
92637SOL    HW179750   2.985   7.504  11.256
92637SOL    HW279751   3.023   7.471  11.114
92638SOL     OW79752   7.093  11.693   6.151
92638SOL    HW179753   7.078  11.762   6.216
92638SOL    HW279754   7.019  11.701   6.091
92639SOL     OW79755   2.475  12.494   7.633
92639SOL    HW179756   2.549  12.475   7.576
92639SOL    HW279757   2.449  12.584   7.611
92640SOL     OW79758   2.638   8.988   5.438
92640SOL    HW179759   2.621   9.019   5.349
92640SOL    HW279760   2.556   8.946   5.464
92641SOL     OW79761   0.625   2.939   3.162
92641SOL    HW179762   0.637   2.942   3.067
92641SOL    HW279763   0.569   3.014   3.181
92642SOL     OW79764   9.569   9.241  11.538
92642SOL    HW179765   9.560   9.317  11.481
92642SOL    HW279766   9.651   9.199  11.510
92643SOL     OW79767   8.595  11.952   4.186
92643SOL    HW179768   8.611  11.875   4.240
92643SOL    HW279769   8.658  12.017   4.216
92644SOL     OW79770   7.833   6.638   5.678
92644SOL    HW179771   7.751   6.591   5.663
92644SOL    HW279772   7.812   6.730   5.659
92645SOL     OW79773  14.711   4.480  14.155
92645SOL    HW179774  14.757   4.468  14.072
92645SOL    HW279775  14.764   4.545  14.202
92646SOL     OW79776  13.511   6.232  10.900
92646SOL    HW179777  13.603   6.219  10.921
92646SOL    HW279778  13.481   6.298  10.963
92647SOL     OW79779   0.957   3.437  13.221
92647SOL    HW179780   1.040   3.483  13.211
92647SOL    HW279781   0.971   3.352  13.181
92648SOL     OW79782   5.928   7.941   2.637
92648SOL    HW179783   5.936   7.848   2.617
92648SOL    HW279784   5.858   7.972   2.579
92649SOL     OW79785   5.282  10.482   8.372
92649SOL    HW179786   5.351  10.425   8.340
92649SOL    HW279787   5.203  10.452   8.326
92650SOL     OW79788   8.574   7.153  12.024
92650SOL    HW179789   8.575   7.202  11.941
92650SOL    HW279790   8.514   7.080  12.008
92651SOL     OW79791   5.271  11.612   5.768
92651SOL    HW179792   5.314  11.658   5.696
92651SOL    HW279793   5.292  11.665   5.846
92652SOL     OW79794   6.084   8.663   4.334
92652SOL    HW179795   6.149   8.660   4.405
92652SOL    HW279796   6.051   8.573   4.329
92653SOL     OW79797   9.401  10.456   4.485
92653SOL    HW179798   9.403  10.479   4.578
92653SOL    HW279799   9.493  10.456   4.459
92654SOL     OW79800   3.477  10.074   6.076
92654SOL    HW179801   3.393  10.089   6.120
92654SOL    HW279802   3.455  10.064   5.984
92655SOL     OW79803  12.998   3.698   7.213
92655SOL    HW179804  12.909   3.666   7.204
92655SOL    HW279805  13.024   3.672   7.302
92656SOL     OW79806   7.435  14.800   4.808
92656SOL    HW179807   7.431   0.018   4.824
92656SOL    HW279808   7.527  14.783   4.786
92657SOL     OW79809   9.327  13.588   1.198
92657SOL    HW179810   9.342  13.617   1.288
92657SOL    HW279811   9.277  13.507   1.208
92658SOL     OW79812  11.760   0.043   4.926
92658SOL    HW179813  11.848   0.078   4.938
92658SOL    HW279814  11.713   0.067   5.007
92659SOL     OW79815   9.399  11.456   5.965
92659SOL    HW179816   9.367  11.407   6.041
92659SOL    HW279817   9.341  11.430   5.893
92660SOL     OW79818  12.096  14.344   0.231
92660SOL    HW179819  12.096  14.260   0.186
92660SOL    HW279820  12.145  14.328   0.312
92661SOL     OW79821   4.497   5.037   9.270
92661SOL    HW179822   4.448   4.955   9.277
92661SOL    HW279823   4.583   5.012   9.236
92662SOL     OW79824   0.377   9.615   2.590
92662SOL    HW179825   0.336   9.701   2.587
92662SOL    HW279826   0.405   9.605   2.681
92663SOL     OW79827  10.364   7.007   0.805
92663SOL    HW179828  10.274   6.994   0.834
92663SOL    HW279829  10.417   6.960   0.869
92664SOL     OW79830  12.215  11.934  14.569
92664SOL    HW179831  12.294  11.881  14.580
92664SOL    HW279832  12.205  11.942  14.474
92665SOL     OW79833  11.041  13.169   7.659
92665SOL    HW179834  11.126  13.201   7.629
92665SOL    HW279835  11.013  13.231   7.726
92666SOL     OW79836   8.503   0.505   3.455
92666SOL    HW179837   8.446   0.582   3.453
92666SOL    HW279838   8.474   0.452   3.380
92667SOL     OW79839  12.426  11.455  12.222
92667SOL    HW179840  12.333  11.476  12.226
92667SOL    HW279841  12.431  11.377  12.167
92668SOL     OW79842  11.923  14.031   2.398
92668SOL    HW179843  11.931  14.101   2.333
92668SOL    HW279844  11.943  13.951   2.349
92669SOL     OW79845   0.632   1.997  12.151
92669SOL    HW179846   0.570   1.968  12.218
92669SOL    HW279847   0.718   1.989  12.193
92670SOL     OW79848   4.476   8.982  10.679
92670SOL    HW179849   4.438   9.067  10.658
92670SOL    HW279850   4.518   8.995  10.764
92671SOL     OW79851   7.836   5.208   4.538
92671SOL    HW179852   7.769   5.163   4.486
92671SOL    HW279853   7.861   5.145   4.605
92672SOL     OW79854   1.139   5.898   5.207
92672SOL    HW179855   1.185   5.816   5.192
92672SOL    HW279856   1.073   5.902   5.137
92673SOL     OW79857   2.186   4.087   4.320
92673SOL    HW179858   2.263   4.060   4.371
92673SOL    HW279859   2.115   4.033   4.353
92674SOL     OW79860  13.009   9.331   9.700
92674SOL    HW179861  12.947   9.297   9.635
92674SOL    HW279862  13.029   9.420   9.669
92675SOL     OW79863   8.199  13.192   9.378
92675SOL    HW179864   8.231  13.229   9.295
92675SOL    HW279865   8.148  13.115   9.352
92676SOL     OW79866   9.970   8.254  14.739
92676SOL    HW179867   9.944   8.265  14.831
92676SOL    HW279868  10.060   8.222  14.743
92677SOL     OW79869   7.078   5.941  14.119
92677SOL    HW179870   7.052   5.924  14.209
92677SOL    HW279871   7.147   5.877  14.101
92678SOL     OW79872   1.448   2.732  12.794
92678SOL    HW179873   1.482   2.805  12.744
92678SOL    HW279874   1.519   2.708  12.854
92679SOL     OW79875  14.456   2.423  10.248
92679SOL    HW179876  14.371   2.420  10.206
92679SOL    HW279877  14.471   2.515  10.268
92680SOL     OW79878   8.454   5.218  14.538
92680SOL    HW179879   8.437   5.225  14.632
92680SOL    HW279880   8.533   5.270  14.524
92681SOL     OW79881   5.789   8.927  14.135
92681SOL    HW179882   5.782   8.835  14.110
92681SOL    HW279883   5.730   8.935  14.211
92682SOL     OW79884   8.410   6.999   7.135
92682SOL    HW179885   8.363   6.921   7.104
92682SOL    HW279886   8.492   6.965   7.171
92683SOL     OW79887   5.562   8.310   4.126
92683SOL    HW179888   5.521   8.235   4.168
92683SOL    HW279889   5.606   8.357   4.197
92684SOL     OW79890  11.348   3.073   0.842
92684SOL    HW179891  11.361   3.106   0.753
92684SOL    HW279892  11.320   3.150   0.892
92685SOL     OW79893   3.079   4.225   9.940
92685SOL    HW179894   3.027   4.304   9.929
92685SOL    HW279895   3.116   4.208   9.854
92686SOL     OW79896  13.172   7.963   9.765
92686SOL    HW179897  13.222   7.899   9.815
92686SOL    HW279898  13.238   8.022   9.728
92687SOL     OW79899   8.132   0.713  13.466
92687SOL    HW179900   8.108   0.795  13.423
92687SOL    HW279901   8.140   0.737  13.559
92688SOL     OW79902  12.133   2.876   9.406
92688SOL    HW179903  12.055   2.930   9.388
92688SOL    HW279904  12.180   2.873   9.322
92689SOL     OW79905   5.845   8.278   6.107
92689SOL    HW179906   5.817   8.187   6.119
92689SOL    HW279907   5.932   8.282   6.148
92690SOL     OW79908   1.668   2.272  14.275
92690SOL    HW179909   1.688   2.184  14.309
92690SOL    HW279910   1.684   2.266  14.181
92691SOL     OW79911   8.351   2.623  13.656
92691SOL    HW179912   8.342   2.577  13.572
92691SOL    HW279913   8.432   2.587  13.693
92692SOL     OW79914  11.679   4.979   2.447
92692SOL    HW179915  11.696   4.998   2.539
92692SOL    HW279916  11.593   5.019   2.429
92693SOL     OW79917   3.824   8.303   1.909
92693SOL    HW179918   3.729   8.290   1.918
92693SOL    HW279919   3.857   8.219   1.878
92694SOL     OW79920  13.369   9.860  14.874
92694SOL    HW179921  13.304   9.913  14.827
92694SOL    HW279922  13.439   9.847  14.810
92695SOL     OW79923   2.930   6.224  12.396
92695SOL    HW179924   2.837   6.212  12.378
92695SOL    HW279925   2.946   6.317  12.376
92696SOL     OW79926   8.540  14.605   7.572
92696SOL    HW179927   8.520  14.649   7.655
92696SOL    HW279928   8.460  14.613   7.520
92697SOL     OW79929   6.831   0.356  12.096
92697SOL    HW179930   6.827   0.450  12.114
92697SOL    HW279931   6.924   0.335  12.101
92698SOL     OW79932   5.276   4.641   1.387
92698SOL    HW179933   5.255   4.587   1.464
92698SOL    HW279934   5.204   4.704   1.382
92699SOL     OW79935  12.779  13.438   4.928
92699SOL    HW179936  12.756  13.456   4.836
92699SOL    HW279937  12.808  13.523   4.962
92700SOL     OW79938  11.775   7.709   0.436
92700SOL    HW179939  11.764   7.624   0.395
92700SOL    HW279940  11.860   7.740   0.405
92701SOL     OW79941  14.037  11.072   8.963
92701SOL    HW179942  13.986  11.146   8.997
92701SOL    HW279943  13.971  11.006   8.941
92702SOL     OW79944   1.995  14.164   9.761
92702SOL    HW179945   1.938  14.098   9.802
92702SOL    HW279946   2.080  14.121   9.753
92703SOL     OW79947   0.350   9.966  12.963
92703SOL    HW179948   0.324   9.923  12.882
92703SOL    HW279949   0.396   9.898  13.013
92704SOL     OW79950   8.782   2.663  11.218
92704SOL    HW179951   8.828   2.659  11.134
92704SOL    HW279952   8.691   2.641  11.196
92705SOL     OW79953   8.965   1.791   6.270
92705SOL    HW179954   8.898   1.859   6.265
92705SOL    HW279955   8.970   1.755   6.182
92706SOL     OW79956   1.985   6.169  11.838
92706SOL    HW179957   1.974   6.230  11.911
92706SOL    HW279958   2.036   6.218  11.773
92707SOL     OW79959   7.921   0.277  12.751
92707SOL    HW179960   7.912   0.205  12.688
92707SOL    HW279961   7.862   0.345  12.717
92708SOL     OW79962   8.179  14.809   8.566
92708SOL    HW179963   8.161  14.857   8.647
92708SOL    HW279964   8.264  14.841   8.537
92709SOL     OW79965  10.444   8.224   2.139
92709SOL    HW179966  10.444   8.179   2.223
92709SOL    HW279967  10.418   8.314   2.160
92710SOL     OW79968  14.153  10.208  14.382
92710SOL    HW179969  14.088  10.276  14.366
92710SOL    HW279970  14.231  10.238  14.337
92711SOL     OW79971   3.064   3.724   7.594
92711SOL    HW179972   3.086   3.685   7.509
92711SOL    HW279973   2.973   3.753   7.584
92712SOL     OW79974   4.411   6.496   6.981
92712SOL    HW179975   4.397   6.585   7.013
92712SOL    HW279976   4.495   6.469   7.019
92713SOL     OW79977   7.853   0.509   8.972
92713SOL    HW179978   7.782   0.451   8.999
92713SOL    HW279979   7.811   0.594   8.960
92714SOL     OW79980   2.425   3.679  10.227
92714SOL    HW179981   2.389   3.745  10.168
92714SOL    HW279982   2.501   3.721  10.267
92715SOL     OW79983   2.251  12.689   8.101
92715SOL    HW179984   2.311  12.754   8.139
92715SOL    HW279985   2.166  12.734   8.099
92716SOL     OW79986   0.389  13.299   2.843
92716SOL    HW179987   0.393  13.280   2.936
92716SOL    HW279988   0.451  13.238   2.803
92717SOL     OW79989   7.024   6.385  14.542
92717SOL    HW179990   7.111   6.420  14.524
92717SOL    HW279991   7.004   6.332  14.464
92718SOL     OW79992   4.959  10.206   9.176
92718SOL    HW179993   5.019  10.249   9.115
92718SOL    HW279994   4.901  10.154   9.120
92719SOL     OW79995   3.499   7.612  13.211
92719SOL    HW179996   3.568   7.678  13.200
92719SOL    HW279997   3.502   7.591  13.305
92720SOL     OW79998  13.214   7.408   7.626
92720SOL    HW179999  13.309   7.403   7.624
92720SOL    HW280000  13.195   7.502   7.627
92721SOL     OW80001   0.677   5.942   0.782
92721SOL    HW180002   0.706   5.851   0.777
92721SOL    HW280003   0.741   5.990   0.729
92722SOL     OW80004  14.286   6.338   3.433
92722SOL    HW180005  14.254   6.379   3.514
92722SOL    HW280006  14.361   6.286   3.460
92723SOL     OW80007   5.561   1.440   7.482
92723SOL    HW180008   5.625   1.397   7.426
92723SOL    HW280009   5.563   1.532   7.455
92724SOL     OW80010   4.606   6.923  11.681
92724SOL    HW180011   4.686   6.944  11.632
92724SOL    HW280012   4.620   6.962  11.768
92725SOL     OW80013   4.112  10.590   0.401
92725SOL    HW180014   4.160  10.548   0.472
92725SOL    HW280015   4.166  10.665   0.376
92726SOL     OW80016   7.811   0.747   2.443
92726SOL    HW180017   7.793   0.837   2.419
92726SOL    HW280018   7.876   0.753   2.513
92727SOL     OW80019   5.094   1.649   1.835
92727SOL    HW180020   5.133   1.736   1.823
92727SOL    HW280021   5.036   1.659   1.910
92728SOL     OW80022   0.411   7.658   4.723
92728SOL    HW180023   0.381   7.608   4.647
92728SOL    HW280024   0.505   7.639   4.728
92729SOL     OW80025   9.226  13.018   8.553
92729SOL    HW180026   9.225  12.954   8.481
92729SOL    HW280027   9.304  12.994   8.604
92730SOL     OW80028   2.709   3.715   8.657
92730SOL    HW180029   2.671   3.656   8.723
92730SOL    HW280030   2.789   3.748   8.698
92731SOL     OW80031  11.164   2.497  12.251
92731SOL    HW180032  11.099   2.489  12.181
92731SOL    HW280033  11.147   2.422  12.308
92732SOL     OW80034  14.246   1.783  11.473
92732SOL    HW180035  14.214   1.864  11.513
92732SOL    HW280036  14.190   1.715  11.510
92733SOL     OW80037  10.224   2.066   7.486
92733SOL    HW180038  10.240   2.042   7.395
92733SOL    HW280039  10.284   2.011   7.536
92734SOL     OW80040   6.747   7.436   0.779
92734SOL    HW180041   6.716   7.349   0.805
92734SOL    HW280042   6.783   7.474   0.859
92735SOL     OW80043   1.579  12.158   2.547
92735SOL    HW180044   1.638  12.114   2.485
92735SOL    HW280045   1.501  12.104   2.548
92736SOL     OW80046   2.430   7.091  13.912
92736SOL    HW180047   2.514   7.058  13.879
92736SOL    HW280048   2.413   7.170  13.861
92737SOL     OW80049  10.559   9.916   6.433
92737SOL    HW180050  10.645   9.953   6.453
92737SOL    HW280051  10.578   9.831   6.394
92738SOL     OW80052   1.428   8.878  12.087
92738SOL    HW180053   1.402   8.787  12.074
92738SOL    HW280054   1.428   8.916  11.999
92739SOL     OW80055   6.655   5.912  13.805
92739SOL    HW180056   6.726   5.977  13.811
92739SOL    HW280057   6.604   5.940  13.728
92740SOL     OW80058   8.930   4.020   6.974
92740SOL    HW180059   8.861   4.085   6.959
92740SOL    HW280060   8.976   4.014   6.890
92741SOL     OW80061   2.297   2.124   8.762
92741SOL    HW180062   2.317   2.039   8.722
92741SOL    HW280063   2.327   2.188   8.698
92742SOL     OW80064   8.732   1.805   1.127
92742SOL    HW180065   8.756   1.740   1.062
92742SOL    HW280066   8.645   1.835   1.100
92743SOL     OW80067  10.854  12.923  13.194
92743SOL    HW180068  10.912  12.916  13.270
92743SOL    HW280069  10.881  13.005  13.151
92744SOL     OW80070   0.508   0.888  12.838
92744SOL    HW180071   0.460   0.905  12.757
92744SOL    HW280072   0.464   0.813  12.877
92745SOL     OW80073   2.765   1.594   1.990
92745SOL    HW180074   2.689   1.652   1.991
92745SOL    HW280075   2.817   1.621   2.065
92746SOL     OW80076   5.033   2.907   7.312
92746SOL    HW180077   5.018   2.993   7.274
92746SOL    HW280078   5.004   2.916   7.403
92747SOL     OW80079   9.864   6.048   3.108
92747SOL    HW180080   9.771   6.038   3.088
92747SOL    HW280081   9.878   5.993   3.185
92748SOL     OW80082  13.356   6.707   6.333
92748SOL    HW180083  13.325   6.627   6.375
92748SOL    HW280084  13.363   6.684   6.240
92749SOL     OW80085  11.957  14.840   3.977
92749SOL    HW180086  11.949   0.042   3.922
92749SOL    HW280087  11.939  14.767   3.917
92750SOL     OW80088   1.422   6.854   8.565
92750SOL    HW180089   1.417   6.821   8.655
92750SOL    HW280090   1.494   6.916   8.567
92751SOL     OW80091  10.745  12.635  10.464
92751SOL    HW180092  10.810  12.623  10.395
92751SOL    HW280093  10.723  12.546  10.490
92752SOL     OW80094  12.765  13.068   2.725
92752SOL    HW180095  12.836  13.069   2.790
92752SOL    HW280096  12.748  12.975   2.710
92753SOL     OW80097   9.503   6.210   6.213
92753SOL    HW180098   9.418   6.237   6.179
92753SOL    HW280099   9.516   6.264   6.290
92754SOL     OW80100  13.526  10.777   6.704
92754SOL    HW180101  13.442  10.736   6.727
92754SOL    HW280102  13.583  10.705   6.679
92755SOL     OW80103  12.221   6.173  13.318
92755SOL    HW180104  12.296   6.231  13.302
92755SOL    HW280105  12.258   6.085  13.314
92756SOL     OW80106   7.368   3.526   9.619
92756SOL    HW180107   7.304   3.483   9.676
92756SOL    HW280108   7.442   3.545   9.677
92757SOL     OW80109   3.760  14.876   2.238
92757SOL    HW180110   3.725   0.017   2.151
92757SOL    HW280111   3.694   0.036   2.298
92758SOL     OW80112   0.430   8.173   2.855
92758SOL    HW180113   0.459   8.104   2.796
92758SOL    HW280114   0.347   8.142   2.890
92759SOL     OW80115   2.329   6.669   8.133
92759SOL    HW180116   2.275   6.638   8.060
92759SOL    HW280117   2.407   6.612   8.131
92760SOL     OW80118   1.192  14.742   3.358
92760SOL    HW180119   1.263  14.721   3.418
92760SOL    HW280120   1.139  14.662   3.355
92761SOL     OW80121   1.000   6.448  12.527
92761SOL    HW180122   0.934   6.491  12.473
92761SOL    HW280123   0.954   6.372  12.564
92762SOL     OW80124   8.128  10.054   5.584
92762SOL    HW180125   8.134  10.122   5.518
92762SOL    HW280126   8.180   9.981   5.549
92763SOL     OW80127   3.551  14.517  12.809
92763SOL    HW180128   3.534  14.428  12.777
92763SOL    HW280129   3.633  14.509  12.858
92764SOL     OW80130   0.664   9.499  14.515
92764SOL    HW180131   0.608   9.453  14.577
92764SOL    HW280132   0.712   9.429  14.470
92765SOL     OW80133   8.370   2.273   8.932
92765SOL    HW180134   8.420   2.211   8.986
92765SOL    HW280135   8.279   2.246   8.943
92766SOL     OW80136   2.678  11.236   1.186
92766SOL    HW180137   2.636  11.266   1.105
92766SOL    HW280138   2.768  11.217   1.160
92767SOL     OW80139   9.926   5.058   8.951
92767SOL    HW180140   9.843   5.101   8.970
92767SOL    HW280141   9.961   5.103   8.874
92768SOL     OW80142   9.749   8.217   4.912
92768SOL    HW180143   9.752   8.312   4.898
92768SOL    HW280144   9.662   8.201   4.949
92769SOL     OW80145  10.625  13.110   1.470
92769SOL    HW180146  10.714  13.074   1.478
92769SOL    HW280147  10.602  13.096   1.378
92770SOL     OW80148   7.838   2.325   1.456
92770SOL    HW180149   7.821   2.357   1.545
92770SOL    HW280150   7.758   2.344   1.408
92771SOL     OW80151   3.336   8.610  13.330
92771SOL    HW180152   3.277   8.547  13.287
92771SOL    HW280153   3.321   8.597  13.424
92772SOL     OW80154   6.604   2.082   3.321
92772SOL    HW180155   6.624   2.014   3.257
92772SOL    HW280156   6.559   2.036   3.392
92773SOL     OW80157   7.457  14.298   7.024
92773SOL    HW180158   7.472  14.391   7.010
92773SOL    HW280159   7.541  14.264   7.054
92774SOL     OW80160  11.153  11.134   3.638
92774SOL    HW180161  11.184  11.047   3.614
92774SOL    HW280162  11.062  11.121   3.664
92775SOL     OW80163  13.206   5.889   6.215
92775SOL    HW180164  13.276   5.953   6.230
92775SOL    HW280165  13.126   5.940   6.229
92776SOL     OW80166   5.018   2.804   5.367
92776SOL    HW180167   4.964   2.775   5.441
92776SOL    HW280168   5.103   2.822   5.406
92777SOL     OW80169   5.839   2.327   0.476
92777SOL    HW180170   5.799   2.299   0.394
92777SOL    HW280171   5.778   2.393   0.510
92778SOL     OW80172   7.259   3.050   3.335
92778SOL    HW180173   7.272   2.991   3.410
92778SOL    HW280174   7.327   3.117   3.345
92779SOL     OW80175   6.033   8.823   0.318
92779SOL    HW180176   6.120   8.863   0.322
92779SOL    HW280177   6.048   8.737   0.279
92780SOL     OW80178  14.438  12.980   4.888
92780SOL    HW180179  14.416  12.978   4.982
92780SOL    HW280180  14.531  12.999   4.886
92781SOL     OW80181   8.706   9.758   8.431
92781SOL    HW180182   8.779   9.751   8.492
92781SOL    HW280183   8.628   9.756   8.486
92782SOL     OW80184  10.564   4.505   6.308
92782SOL    HW180185  10.533   4.426   6.264
92782SOL    HW280186  10.490   4.566   6.301
92783SOL     OW80187   2.961   9.487   2.579
92783SOL    HW180188   2.881   9.538   2.592
92783SOL    HW280189   2.958   9.460   2.487
92784SOL     OW80190   1.500   0.864   7.353
92784SOL    HW180191   1.458   0.943   7.387
92784SOL    HW280192   1.466   0.855   7.264
92785SOL     OW80193  12.486   7.836   8.414
92785SOL    HW180194  12.567   7.794   8.442
92785SOL    HW280195  12.487   7.921   8.458
92786SOL     OW80196   8.199  10.733  14.052
92786SOL    HW180197   8.270  10.711  13.991
92786SOL    HW280198   8.202  10.829  14.059
92787SOL     OW80199   7.140  11.510   3.977
92787SOL    HW180200   7.179  11.560   4.049
92787SOL    HW280201   7.215  11.480   3.925
92788SOL     OW80202   7.485   9.270  11.496
92788SOL    HW180203   7.433   9.351  11.488
92788SOL    HW280204   7.424   9.207  11.535
92789SOL     OW80205   8.241   4.151  12.560
92789SOL    HW180206   8.166   4.193  12.518
92789SOL    HW280207   8.309   4.149  12.492
92790SOL     OW80208   6.423   9.473   0.432
92790SOL    HW180209   6.339   9.491   0.473
92790SOL    HW280210   6.410   9.390   0.386
92791SOL     OW80211   0.901   5.537   6.701
92791SOL    HW180212   0.879   5.623   6.738
92791SOL    HW280213   0.927   5.484   6.777
92792SOL     OW80214  10.813  11.274   3.126
92792SOL    HW180215  10.727  11.267   3.085
92792SOL    HW280216  10.795  11.279   3.220
92793SOL     OW80217   6.389   9.480  13.489
92793SOL    HW180218   6.333   9.426  13.433
92793SOL    HW280219   6.475   9.439  13.485
92794SOL     OW80220   8.571  14.548  13.176
92794SOL    HW180221   8.602  14.596  13.099
92794SOL    HW280222   8.531  14.616  13.231
92795SOL     OW80223   7.777   4.958   1.675
92795SOL    HW180224   7.741   4.872   1.652
92795SOL    HW280225   7.817   4.989   1.594
92796SOL     OW80226   6.474   3.190   7.373
92796SOL    HW180227   6.492   3.235   7.291
92796SOL    HW280228   6.482   3.258   7.440
92797SOL     OW80229  12.934  11.439  12.297
92797SOL    HW180230  13.001  11.386  12.339
92797SOL    HW280231  12.980  11.485  12.227
92798SOL     OW80232   2.609   4.429  14.111
92798SOL    HW180233   2.549   4.400  14.179
92798SOL    HW280234   2.651   4.349  14.080
92799SOL     OW80235  13.011   6.572   9.611
92799SOL    HW180236  12.920   6.563   9.638
92799SOL    HW280237  13.059   6.587   9.692
92800SOL     OW80238   7.405  11.184   5.070
92800SOL    HW180239   7.425  11.095   5.040
92800SOL    HW280240   7.345  11.218   5.003
92801SOL     OW80241  11.652   3.506   6.483
92801SOL    HW180242  11.566   3.525   6.519
92801SOL    HW280243  11.702   3.587   6.495
92802SOL     OW80244  13.516   3.052  10.269
92802SOL    HW180245  13.501   2.987  10.337
92802SOL    HW280246  13.453   3.122  10.289
92803SOL     OW80247   9.332  13.140  13.057
92803SOL    HW180248   9.404  13.076  13.061
92803SOL    HW280249   9.341  13.191  13.138
92804SOL     OW80250   2.922  13.569   5.670
92804SOL    HW180251   2.954  13.655   5.694
92804SOL    HW280252   2.904  13.575   5.576
92805SOL     OW80253   2.024  13.724   4.000
92805SOL    HW180254   1.984  13.787   4.059
92805SOL    HW280255   1.999  13.753   3.912
92806SOL     OW80256   3.750   0.708  13.799
92806SOL    HW180257   3.725   0.788  13.753
92806SOL    HW280258   3.768   0.645  13.729
92807SOL     OW80259   4.871  11.072  10.027
92807SOL    HW180260   4.884  11.159  10.064
92807SOL    HW280261   4.845  11.088   9.936
92808SOL     OW80262   5.305   8.065  10.221
92808SOL    HW180263   5.354   8.002  10.168
92808SOL    HW280264   5.256   8.117  10.157
92809SOL     OW80265   8.986  12.564   9.857
92809SOL    HW180266   8.978  12.473   9.830
92809SOL    HW280267   9.074  12.591   9.830
92810SOL     OW80268  11.335   1.507  11.790
92810SOL    HW180269  11.322   1.475  11.701
92810SOL    HW280270  11.279   1.584  11.797
92811SOL     OW80271   0.961   6.367  10.225
92811SOL    HW180272   0.960   6.422  10.303
92811SOL    HW280273   0.882   6.314  10.231
92812SOL     OW80274   7.595   5.019   4.485
92812SOL    HW180275   7.571   4.936   4.525
92812SOL    HW280276   7.637   4.995   4.402
92813SOL     OW80277   9.966  10.497  10.816
92813SOL    HW180278   9.875  10.472  10.803
92813SOL    HW280279   9.963  10.568  10.880
92814SOL     OW80280   2.147   8.104   0.449
92814SOL    HW180281   2.170   8.038   0.514
92814SOL    HW280282   2.053   8.095   0.437
92815SOL     OW80283   9.955   9.539  12.071
92815SOL    HW180284  10.008   9.590  12.010
92815SOL    HW280285   9.876   9.518  12.021
92816SOL     OW80286   3.651  12.111   3.306
92816SOL    HW180287   3.556  12.103   3.318
92816SOL    HW280288   3.688  12.043   3.362
92817SOL     OW80289   1.693   7.574   2.663
92817SOL    HW180290   1.778   7.611   2.687
92817SOL    HW280291   1.694   7.571   2.567
92818SOL     OW80292   9.344   2.496   3.632
92818SOL    HW180293   9.389   2.572   3.669
92818SOL    HW280294   9.337   2.434   3.704
92819SOL     OW80295   5.498   6.267   0.506
92819SOL    HW180296   5.423   6.214   0.478
92819SOL    HW280297   5.497   6.261   0.602
92820SOL     OW80298   4.995  12.114  13.190
92820SOL    HW180299   5.027  12.121  13.280
92820SOL    HW280300   4.924  12.178  13.184
92821SOL     OW80301   0.500   6.191  12.464
92821SOL    HW180302   0.474   6.276  12.429
92821SOL    HW280303   0.421   6.137  12.455
92822SOL     OW80304  11.822  12.542   4.547
92822SOL    HW180305  11.841  12.458   4.590
92822SOL    HW280306  11.908  12.580   4.530
92823SOL     OW80307   6.971  13.561  14.398
92823SOL    HW180308   6.966  13.505  14.320
92823SOL    HW280309   7.063  13.562  14.421
92824SOL     OW80310   3.837   1.829   3.040
92824SOL    HW180311   3.822   1.788   2.955
92824SOL    HW280312   3.767   1.895   3.047
92825SOL     OW80313   2.247   9.168   4.986
92825SOL    HW180314   2.323   9.224   5.003
92825SOL    HW280315   2.228   9.182   4.893
92826SOL     OW80316  11.978  11.569   9.382
92826SOL    HW180317  12.026  11.513   9.321
92826SOL    HW280318  12.039  11.585   9.453
92827SOL     OW80319   6.809   1.215  10.527
92827SOL    HW180320   6.880   1.230  10.589
92827SOL    HW280321   6.730   1.240  10.575
92828SOL     OW80322  11.647   7.675   8.845
92828SOL    HW180323  11.556   7.703   8.833
92828SOL    HW280324  11.645   7.621   8.924
92829SOL     OW80325   9.347  13.014   1.854
92829SOL    HW180326   9.395  12.952   1.801
92829SOL    HW280327   9.409  13.043   1.921
92830SOL     OW80328   9.704   6.253  14.045
92830SOL    HW180329   9.717   6.321  14.111
92830SOL    HW280330   9.745   6.288  13.966
92831SOL     OW80331   5.356  11.407   9.103
92831SOL    HW180332   5.402  11.326   9.127
92831SOL    HW280333   5.424  11.463   9.066
92832SOL     OW80334  10.190   1.953  13.646
92832SOL    HW180335  10.267   1.918  13.600
92832SOL    HW280336  10.119   1.893  13.622
92833SOL     OW80337   3.189   6.266   6.568
92833SOL    HW180338   3.096   6.248   6.557
92833SOL    HW280339   3.232   6.212   6.503
92834SOL     OW80340  12.910   2.445   6.104
92834SOL    HW180341  12.835   2.500   6.127
92834SOL    HW280342  12.958   2.496   6.039
92835SOL     OW80343   9.498  10.431  11.905
92835SOL    HW180344   9.475  10.524  11.898
92835SOL    HW280345   9.417  10.385  11.882
92836SOL     OW80346   8.502   9.747  13.073
92836SOL    HW180347   8.480   9.816  13.136
92836SOL    HW280348   8.589   9.717  13.101
92837SOL     OW80349  13.828   7.870   8.038
92837SOL    HW180350  13.864   7.784   8.063
92837SOL    HW280351  13.809   7.913   8.122
92838SOL     OW80352   9.235   6.402  10.843
92838SOL    HW180353   9.170   6.356  10.790
92838SOL    HW280354   9.315   6.351  10.834
92839SOL     OW80355  13.725   2.915   1.645
92839SOL    HW180356  13.761   2.998   1.679
92839SOL    HW280357  13.667   2.942   1.573
92840SOL     OW80358   6.022   0.626   7.762
92840SOL    HW180359   6.000   0.706   7.810
92840SOL    HW280360   5.999   0.645   7.671
92841SOL     OW80361  12.964   1.875   7.451
92841SOL    HW180362  12.962   1.867   7.546
92841SOL    HW280363  12.913   1.954   7.432
92842SOL     OW80364   5.444   9.851   4.086
92842SOL    HW180365   5.529   9.818   4.056
92842SOL    HW280366   5.467   9.916   4.153
92843SOL     OW80367   1.013  12.005  11.952
92843SOL    HW180368   1.075  12.078  11.950
92843SOL    HW280369   0.980  12.004  12.042
92844SOL     OW80370   5.213  13.765   7.650
92844SOL    HW180371   5.136  13.709   7.645
92844SOL    HW280372   5.266  13.741   7.573
92845SOL     OW80373   7.788   2.607   0.637
92845SOL    HW180374   7.763   2.544   0.570
92845SOL    HW280375   7.756   2.691   0.604
92846SOL     OW80376   1.161   8.078   3.097
92846SOL    HW180377   1.135   8.023   3.171
92846SOL    HW280378   1.256   8.086   3.106
92847SOL     OW80379   8.062  11.791  11.495
92847SOL    HW180380   8.043  11.789  11.402
92847SOL    HW280381   8.008  11.721  11.532
92848SOL     OW80382   5.870   2.494  11.080
92848SOL    HW180383   5.791   2.544  11.057
92848SOL    HW280384   5.928   2.558  11.121
92849SOL     OW80385  12.323   2.931  14.642
92849SOL    HW180386  12.289   2.907  14.728
92849SOL    HW280387  12.298   3.022  14.630
92850SOL     OW80388   6.853   1.881   1.788
92850SOL    HW180389   6.774   1.925   1.819
92850SOL    HW280390   6.822   1.819   1.722
92851SOL     OW80391  14.570   8.534   3.847
92851SOL    HW180392  14.601   8.444   3.840
92851SOL    HW280393  14.643   8.582   3.887
92852SOL     OW80394   0.901   5.727  13.350
92852SOL    HW180395   0.883   5.748  13.258
92852SOL    HW280396   0.994   5.704  13.351
92853SOL     OW80397  11.607  10.417   3.509
92853SOL    HW180398  11.541  10.429   3.441
92853SOL    HW280399  11.557  10.395   3.587
92854SOL     OW80400   3.919   2.737   0.963
92854SOL    HW180401   3.867   2.779   0.894
92854SOL    HW280402   3.866   2.663   0.991
92855SOL     OW80403   4.914   9.335  13.608
92855SOL    HW180404   4.831   9.382  13.609
92855SOL    HW280405   4.891   9.244  13.628
92856SOL     OW80406  13.219   5.828   6.972
92856SOL    HW180407  13.220   5.923   6.961
92856SOL    HW280408  13.233   5.793   6.884
92857SOL     OW80409   6.931   1.513  11.026
92857SOL    HW180410   6.946   1.606  11.042
92857SOL    HW280411   7.000   1.469  11.075
92858SOL     OW80412   4.784   2.685   2.625
92858SOL    HW180413   4.877   2.704   2.616
92858SOL    HW280414   4.781   2.602   2.673
92859SOL     OW80415   0.533   1.198   8.435
92859SOL    HW180416   0.466   1.144   8.394
92859SOL    HW280417   0.588   1.227   8.362
92860SOL     OW80418   4.076  13.102   9.049
92860SOL    HW180419   4.104  13.177   9.102
92860SOL    HW280420   4.128  13.029   9.082
92861SOL     OW80421  11.329   8.078   5.500
92861SOL    HW180422  11.373   8.043   5.423
92861SOL    HW280423  11.390   8.063   5.572
92862SOL     OW80424   5.097  12.264   2.510
92862SOL    HW180425   5.007  12.256   2.540
92862SOL    HW280426   5.109  12.357   2.494
92863SOL     OW80427   1.882   7.165   1.948
92863SOL    HW180428   1.915   7.097   1.889
92863SOL    HW280429   1.877   7.244   1.894
92864SOL     OW80430   9.998  11.102   0.404
92864SOL    HW180431  10.075  11.152   0.430
92864SOL    HW280432   9.977  11.049   0.480
92865SOL     OW80433   5.132  12.404   6.293
92865SOL    HW180434   5.216  12.445   6.277
92865SOL    HW280435   5.071  12.476   6.305
92866SOL     OW80436  14.176   3.320   4.324
92866SOL    HW180437  14.116   3.376   4.275
92866SOL    HW280438  14.256   3.373   4.332
92867SOL     OW80439   9.742   6.571   3.943
92867SOL    HW180440   9.788   6.569   4.026
92867SOL    HW280441   9.713   6.662   3.934
92868SOL     OW80442   0.607   3.932   5.706
92868SOL    HW180443   0.643   4.013   5.670
92868SOL    HW280444   0.587   3.954   5.797
92869SOL     OW80445   1.165   8.103   6.385
92869SOL    HW180446   1.247   8.066   6.354
92869SOL    HW280447   1.189   8.154   6.462
92870SOL     OW80448   8.737  14.755   8.274
92870SOL    HW180449   8.809  14.721   8.328
92870SOL    HW280450   8.689  14.677   8.247
92871SOL     OW80451   8.636   5.614   7.806
92871SOL    HW180452   8.621   5.556   7.881
92871SOL    HW280453   8.666   5.556   7.736
92872SOL     OW80454   8.563   9.276   7.762
92872SOL    HW180455   8.497   9.253   7.827
92872SOL    HW280456   8.641   9.229   7.790
92873SOL     OW80457   1.305   7.752  10.283
92873SOL    HW180458   1.270   7.665  10.300
92873SOL    HW280459   1.260   7.780  10.203
92874SOL     OW80460   5.198   5.208   8.579
92874SOL    HW180461   5.277   5.154   8.572
92874SOL    HW280462   5.129   5.146   8.600
92875SOL     OW80463  11.817  12.983  12.912
92875SOL    HW180464  11.741  12.976  12.970
92875SOL    HW280465  11.780  12.983  12.824
92876SOL     OW80466   4.214   9.756   5.637
92876SOL    HW180467   4.237   9.800   5.555
92876SOL    HW280468   4.251   9.669   5.629
92877SOL     OW80469   2.013  10.650  10.200
92877SOL    HW180470   1.936  10.610  10.241
92877SOL    HW280471   2.028  10.597  10.121
92878SOL     OW80472   9.161   5.180   0.076
92878SOL    HW180473   9.210   5.254   0.113
92878SOL    HW280474   9.196   5.103   0.121
92879SOL     OW80475  11.640   1.684   7.180
92879SOL    HW180476  11.602   1.697   7.267
92879SOL    HW280477  11.579   1.729   7.121
92880SOL     OW80478   1.466  13.926   5.809
92880SOL    HW180479   1.546  13.975   5.792
92880SOL    HW280480   1.418  13.928   5.726
92881SOL     OW80481  10.096   1.548  13.423
92881SOL    HW180482  10.008   1.584  13.408
92881SOL    HW280483  10.082   1.455  13.440
92882SOL     OW80484   2.110  13.759   0.146
92882SOL    HW180485   2.025  13.715   0.151
92882SOL    HW280486   2.172  13.688   0.127
92883SOL     OW80487  13.011  12.582   5.204
92883SOL    HW180488  12.985  12.554   5.116
92883SOL    HW280489  13.100  12.550   5.214
92884SOL     OW80490  11.930   2.367  10.081
92884SOL    HW180491  11.932   2.449  10.032
92884SOL    HW280492  11.887   2.390  10.163
92885SOL     OW80493  10.996   5.448   3.251
92885SOL    HW180494  10.919   5.392   3.252
92885SOL    HW280495  11.039   5.431   3.335
92886SOL     OW80496  14.041   2.957   5.297
92886SOL    HW180497  14.069   2.894   5.230
92886SOL    HW280498  13.950   2.936   5.313
92887SOL     OW80499  14.725   3.941   9.883
92887SOL    HW180500  14.666   3.983   9.946
92887SOL    HW280501  14.778   3.882   9.935
92888SOL     OW80502   4.744  13.887  11.306
92888SOL    HW180503   4.831  13.865  11.339
92888SOL    HW280504   4.729  13.825  11.234
92889SOL     OW80505  12.539   3.221   7.393
92889SOL    HW180506  12.545   3.145   7.452
92889SOL    HW280507  12.540   3.183   7.305
92890SOL     OW80508   8.172   8.296  12.727
92890SOL    HW180509   8.159   8.391  12.719
92890SOL    HW280510   8.257   8.281  12.686
92891SOL     OW80511   8.670   9.379  14.289
92891SOL    HW180512   8.713   9.456  14.250
92891SOL    HW280513   8.737   9.341  14.347
92892SOL     OW80514   8.415   9.568   8.020
92892SOL    HW180515   8.418   9.476   8.046
92892SOL    HW280516   8.456   9.615   8.092
92893SOL     OW80517   7.745  14.583   4.132
92893SOL    HW180518   7.721  14.598   4.040
92893SOL    HW280519   7.686  14.513   4.161
92894SOL     OW80520  10.221   8.072  12.668
92894SOL    HW180521  10.179   8.154  12.696
92894SOL    HW280522  10.185   8.006  12.727
92895SOL     OW80523  13.224   2.234   7.913
92895SOL    HW180524  13.255   2.310   7.962
92895SOL    HW280525  13.290   2.167   7.928
92896SOL     OW80526   3.711   8.810   8.442
92896SOL    HW180527   3.629   8.815   8.491
92896SOL    HW280528   3.775   8.855   8.496
92897SOL     OW80529   3.431  12.938   3.137
92897SOL    HW180530   3.371  12.864   3.133
92897SOL    HW280531   3.517  12.898   3.149
92898SOL     OW80532  10.980   4.128   2.062
92898SOL    HW180533  10.944   4.199   2.008
92898SOL    HW280534  10.983   4.164   2.151
92899SOL     OW80535   4.383   3.940  14.422
92899SOL    HW180536   4.316   3.905  14.364
92899SOL    HW280537   4.409   3.866  14.477
92900SOL     OW80538   4.448   9.347   4.098
92900SOL    HW180539   4.473   9.404   4.025
92900SOL    HW280540   4.527   9.343   4.153
92901SOL     OW80541   5.185   3.846   6.983
92901SOL    HW180542   5.275   3.835   6.952
92901SOL    HW280543   5.160   3.933   6.951
92902SOL     OW80544  12.168  10.350   8.814
92902SOL    HW180545  12.242  10.289   8.807
92902SOL    HW280546  12.121  10.321   8.891
92903SOL     OW80547   3.214   0.930   2.784
92903SOL    HW180548   3.306   0.905   2.790
92903SOL    HW280549   3.215   1.026   2.790
92904SOL     OW80550   8.128   7.854   7.682
92904SOL    HW180551   8.170   7.911   7.746
92904SOL    HW280552   8.107   7.911   7.608
92905SOL     OW80553  12.744   4.217  11.423
92905SOL    HW180554  12.691   4.137  11.430
92905SOL    HW280555  12.828   4.193  11.462
92906SOL     OW80556  10.417   7.666  13.745
92906SOL    HW180557  10.456   7.599  13.688
92906SOL    HW280558  10.418   7.627  13.832
92907SOL     OW80559   5.337  13.909   3.903
92907SOL    HW180560   5.409  13.959   3.940
92907SOL    HW280561   5.295  13.969   3.841
92908SOL     OW80562  11.684  14.834   9.894
92908SOL    HW180563  11.747  14.763   9.882
92908SOL    HW280564  11.609  14.809   9.840
92909SOL     OW80565   2.277   4.344  11.751
92909SOL    HW180566   2.357   4.356  11.701
92909SOL    HW280567   2.207   4.353  11.686
92910SOL     OW80568   1.119  12.660  11.883
92910SOL    HW180569   1.127  12.684  11.791
92910SOL    HW280570   1.208  12.666  11.917
92911SOL     OW80571  11.586   4.430  11.964
92911SOL    HW180572  11.595   4.479  11.883
92911SOL    HW280573  11.667   4.380  11.971
92912SOL     OW80574   8.703   1.360   9.905
92912SOL    HW180575   8.770   1.419   9.939
92912SOL    HW280576   8.708   1.283   9.961
92913SOL     OW80577   9.179  10.376  10.826
92913SOL    HW180578   9.192  10.289  10.864
92913SOL    HW280579   9.175  10.361  10.732
92914SOL     OW80580   6.301  10.829   8.911
92914SOL    HW180581   6.312  10.911   8.863
92914SOL    HW280582   6.324  10.761   8.849
92915SOL     OW80583   0.987  10.151  14.842
92915SOL    HW180584   1.074  10.160   0.006
92915SOL    HW280585   0.990  10.067  14.797
92916SOL     OW80586  10.335   5.882  14.252
92916SOL    HW180587  10.363   5.865  14.343
92916SOL    HW280588  10.255   5.934  14.261
92917SOL     OW80589  13.889   2.127   8.929
92917SOL    HW180590  13.812   2.077   8.956
92917SOL    HW280591  13.928   2.074   8.858
92918SOL     OW80592  11.870   0.494  12.168
92918SOL    HW180593  11.844   0.409  12.133
92918SOL    HW280594  11.943   0.522  12.113
92919SOL     OW80595   7.501   3.960   2.439
92919SOL    HW180596   7.522   3.877   2.482
92919SOL    HW280597   7.496   3.938   2.346
92920SOL     OW80598   7.261  10.035  14.449
92920SOL    HW180599   7.241   9.963  14.509
92920SOL    HW280600   7.193  10.030  14.382
92921SOL     OW80601  10.448   4.101   7.133
92921SOL    HW180602  10.395   4.072   7.208
92921SOL    HW280603  10.533   4.060   7.146
92922SOL     OW80604   6.372  10.002   9.805
92922SOL    HW180605   6.306   9.983   9.738
92922SOL    HW280606   6.326   9.988   9.888
92923SOL     OW80607   3.596  10.763  14.860
92923SOL    HW180608   3.671  10.735   0.037
92923SOL    HW280609   3.629  10.764  14.770
92924SOL     OW80610   1.487   1.371  14.415
92924SOL    HW180611   1.521   1.461  14.414
92924SOL    HW280612   1.546   1.325  14.475
92925SOL     OW80613   4.488   0.163   2.183
92925SOL    HW180614   4.523   0.251   2.198
92925SOL    HW280615   4.420   0.174   2.117
92926SOL     OW80616   9.601   2.556   7.545
92926SOL    HW180617   9.665   2.596   7.487
92926SOL    HW280618   9.651   2.532   7.624
92927SOL     OW80619   5.787  14.776  13.199
92927SOL    HW180620   5.824  14.805  13.115
92927SOL    HW280621   5.850  14.713  13.233
92928SOL     OW80622   9.546   7.778   9.533
92928SOL    HW180623   9.625   7.761   9.482
92928SOL    HW280624   9.574   7.772   9.624
92929SOL     OW80625  11.561   8.913   9.503
92929SOL    HW180626  11.559   8.892   9.410
92929SOL    HW280627  11.532   8.834   9.547
92930SOL     OW80628   4.823  14.310  11.632
92930SOL    HW180629   4.812  14.365  11.709
92930SOL    HW280630   4.810  14.369  11.558
92931SOL     OW80631  14.355   1.707   9.810
92931SOL    HW180632  14.395   1.758   9.740
92931SOL    HW280633  14.264   1.736   9.812
92932SOL     OW80634   5.161   9.515   5.499
92932SOL    HW180635   5.163   9.447   5.432
92932SOL    HW280636   5.163   9.597   5.450
92933SOL     OW80637   1.832   6.845  14.857
92933SOL    HW180638   1.914   6.887  14.832
92933SOL    HW280639   1.802   6.801  14.777
92934SOL     OW80640  12.689   8.737   8.069
92934SOL    HW180641  12.748   8.697   8.005
92934SOL    HW280642  12.727   8.823   8.086
92935SOL     OW80643   8.335   5.644  12.979
92935SOL    HW180644   8.339   5.657  12.884
92935SOL    HW280645   8.257   5.692  13.006
92936SOL     OW80646  10.681   9.621  10.796
92936SOL    HW180647  10.686   9.664  10.882
92936SOL    HW280648  10.661   9.693  10.736
92937SOL     OW80649   7.301   5.527   1.640
92937SOL    HW180650   7.337   5.547   1.727
92937SOL    HW280651   7.267   5.438   1.649
92938SOL     OW80652   5.784   5.697   7.544
92938SOL    HW180653   5.780   5.695   7.449
92938SOL    HW280654   5.793   5.790   7.566
92939SOL     OW80655   0.567   7.071   1.846
92939SOL    HW180656   0.640   7.073   1.784
92939SOL    HW280657   0.489   7.078   1.791
92940SOL     OW80658  13.845  11.340   1.115
92940SOL    HW180659  13.792  11.405   1.068
92940SOL    HW280660  13.802  11.257   1.098
92941SOL     OW80661   5.165   8.381   1.085
92941SOL    HW180662   5.207   8.394   1.170
92941SOL    HW280663   5.144   8.288   1.082
92942SOL     OW80664   4.457   6.361  11.319
92942SOL    HW180665   4.378   6.334  11.273
92942SOL    HW280666   4.428   6.381  11.408
92943SOL     OW80667  14.078   5.026   9.434
92943SOL    HW180668  14.049   4.949   9.386
92943SOL    HW280669  14.096   4.993   9.522
92944SOL     OW80670  14.270   3.933   7.504
92944SOL    HW180671  14.287   3.844   7.473
92944SOL    HW280672  14.271   3.987   7.425
92945SOL     OW80673  12.368   6.864   4.291
92945SOL    HW180674  12.319   6.945   4.307
92945SOL    HW280675  12.446   6.872   4.346
92946SOL     OW80676   6.970   0.718   5.561
92946SOL    HW180677   7.039   0.668   5.606
92946SOL    HW280678   6.999   0.809   5.567
92947SOL     OW80679   7.361  10.500   3.829
92947SOL    HW180680   7.341  10.552   3.750
92947SOL    HW280681   7.391  10.565   3.893
92948SOL     OW80682   9.991   4.932   9.445
92948SOL    HW180683   9.986   4.868   9.374
92948SOL    HW280684   9.986   5.017   9.401
92949SOL     OW80685   1.721   6.834   7.864
92949SOL    HW180686   1.712   6.810   7.956
92949SOL    HW280687   1.715   6.930   7.864
92950SOL     OW80688  10.056  10.018  11.494
92950SOL    HW180689  10.039  10.104  11.533
92950SOL    HW280690  10.110  10.037  11.417
92951SOL     OW80691   3.520   1.561   4.346
92951SOL    HW180692   3.500   1.468   4.336
92951SOL    HW280693   3.436   1.605   4.338
92952SOL     OW80694   6.482  12.640   9.541
92952SOL    HW180695   6.526  12.634   9.625
92952SOL    HW280696   6.455  12.550   9.522
92953SOL     OW80697   2.526   5.184  10.516
92953SOL    HW180698   2.606   5.184  10.567
92953SOL    HW280699   2.537   5.113  10.453
92954SOL     OW80700   7.843   8.236   7.359
92954SOL    HW180701   7.851   8.271   7.270
92954SOL    HW280702   7.755   8.260   7.387
92955SOL     OW80703   0.361   9.319   4.339
92955SOL    HW180704   0.374   9.407   4.303
92955SOL    HW280705   0.279   9.326   4.388
92956SOL     OW80706   8.095  13.102  14.407
92956SOL    HW180707   8.078  13.099  14.502
92956SOL    HW280708   8.032  13.166  14.374
92957SOL     OW80709   9.043   6.906   0.511
92957SOL    HW180710   9.057   6.914   0.605
92957SOL    HW280711   9.102   6.971   0.472
92958SOL     OW80712   2.098   5.714   3.790
92958SOL    HW180713   2.032   5.648   3.813
92958SOL    HW280714   2.108   5.767   3.870
92959SOL     OW80715  14.658   9.990  13.856
92959SOL    HW180716  14.747  10.006  13.887
92959SOL    HW280717  14.669   9.968  13.763
92960SOL     OW80718   3.504  13.141  10.324
92960SOL    HW180719   3.510  13.196  10.402
92960SOL    HW280720   3.412  13.113  10.321
92961SOL     OW80721  13.967   1.996   1.832
92961SOL    HW180722  13.939   1.932   1.767
92961SOL    HW280723  14.035   1.952   1.882
92962SOL     OW80724   2.223   8.045  13.970
92962SOL    HW180725   2.141   8.078  13.932
92962SOL    HW280726   2.256   8.118  14.023
92963SOL     OW80727   5.398   1.941   6.366
92963SOL    HW180728   5.304   1.956   6.353
92963SOL    HW280729   5.417   1.862   6.316
92964SOL     OW80730  10.828   3.924   0.218
92964SOL    HW180731  10.867   3.956   0.299
92964SOL    HW280732  10.734   3.916   0.238
92965SOL     OW80733   1.161   2.789  12.112
92965SOL    HW180734   1.091   2.740  12.155
92965SOL    HW280735   1.139   2.785  12.019
92966SOL     OW80736   1.080   8.497   5.739
92966SOL    HW180737   1.115   8.445   5.667
92966SOL    HW280738   0.995   8.458   5.759
92967SOL     OW80739   3.361   4.954   2.959
92967SOL    HW180740   3.265   4.958   2.968
92967SOL    HW280741   3.392   5.035   3.000
92968SOL     OW80742  12.706   5.439   0.773
92968SOL    HW180743  12.680   5.347   0.780
92968SOL    HW280744  12.773   5.450   0.841
92969SOL     OW80745  13.332  14.807  12.508
92969SOL    HW180746  13.363  14.853  12.586
92969SOL    HW280747  13.385  14.727  12.506
92970SOL     OW80748   5.962  12.793  13.110
92970SOL    HW180749   5.885  12.755  13.067
92970SOL    HW280750   5.928  12.871  13.154
92971SOL     OW80751   7.907   5.323  14.727
92971SOL    HW180752   7.885   5.231  14.713
92971SOL    HW280753   7.826   5.362  14.762
92972SOL     OW80754  13.488   7.296   3.597
92972SOL    HW180755  13.520   7.294   3.688
92972SOL    HW280756  13.406   7.246   3.600
92973SOL     OW80757   2.585   9.306   3.358
92973SOL    HW180758   2.526   9.245   3.313
92973SOL    HW280759   2.646   9.336   3.290
92974SOL     OW80760   1.727   5.113   7.732
92974SOL    HW180761   1.675   5.132   7.654
92974SOL    HW280762   1.812   5.153   7.715
92975SOL     OW80763   1.907   8.567   9.495
92975SOL    HW180764   1.868   8.644   9.454
92975SOL    HW280765   1.919   8.505   9.424
92976SOL     OW80766   0.041   9.055   1.134
92976SOL    HW180767   0.130   9.025   1.151
92976SOL    HW280768  14.864   9.009   1.199
92977SOL     OW80769   0.504   2.707   3.801
92977SOL    HW180770   0.577   2.675   3.854
92977SOL    HW280771   0.495   2.642   3.731
92978SOL     OW80772  13.246   2.681   4.098
92978SOL    HW180773  13.157   2.705   4.072
92978SOL    HW280774  13.297   2.761   4.084
92979SOL     OW80775   0.501   3.446   3.415
92979SOL    HW180776   0.477   3.539   3.408
92979SOL    HW280777   0.583   3.438   3.366
92980SOL     OW80778  13.033   0.090   1.642
92980SOL    HW180779  13.095   0.107   1.713
92980SOL    HW280780  12.948   0.113   1.680
92981SOL     OW80781   6.598   7.032  14.805
92981SOL    HW180782   6.624   7.123  14.791
92981SOL    HW280783   6.678   6.981  14.794
92982SOL     OW80784  13.843   9.471   3.037
92982SOL    HW180785  13.853   9.383   3.072
92982SOL    HW280786  13.834   9.460   2.942
92983SOL     OW80787   8.977   6.958   8.766
92983SOL    HW180788   8.895   7.005   8.771
92983SOL    HW280789   8.988   6.937   8.673
92984SOL     OW80790   1.340  10.951   4.297
92984SOL    HW180791   1.294  10.923   4.218
92984SOL    HW280792   1.305  11.038   4.316
92985SOL     OW80793   2.773   5.568   9.251
92985SOL    HW180794   2.694   5.607   9.288
92985SOL    HW280795   2.761   5.474   9.262
92986SOL     OW80796   7.673  14.004   7.379
92986SOL    HW180797   7.733  13.964   7.442
92986SOL    HW280798   7.657  14.092   7.413
92987SOL     OW80799   2.530  12.436  11.974
92987SOL    HW180800   2.501  12.524  12.000
92987SOL    HW280801   2.552  12.392  12.056
92988SOL     OW80802  10.044   3.386   2.611
92988SOL    HW180803  10.063   3.443   2.536
92988SOL    HW280804  10.025   3.445   2.683
92989SOL     OW80805   2.351   0.010   3.032
92989SOL    HW180806   2.392   0.094   3.012
92989SOL    HW280807   2.350   0.007   3.128
92990SOL     OW80808   2.004   4.098   4.531
92990SOL    HW180809   1.936   4.142   4.582
92990SOL    HW280810   2.072   4.164   4.520
92991SOL     OW80811   5.954   3.794  12.567
92991SOL    HW180812   5.901   3.844  12.627
92991SOL    HW280813   5.909   3.801  12.483
92992SOL     OW80814   3.558  11.862   1.196
92992SOL    HW180815   3.621  11.866   1.124
92992SOL    HW280816   3.478  11.901   1.160
92993SOL     OW80817   9.349  13.364  14.809
92993SOL    HW180818   9.404  13.438  14.836
92993SOL    HW280819   9.347  13.368  14.714
92994SOL     OW80820   2.739   4.377   6.219
92994SOL    HW180821   2.827   4.392   6.254
92994SOL    HW280822   2.735   4.283   6.203
92995SOL     OW80823  11.280   1.588  13.063
92995SOL    HW180824  11.191   1.611  13.088
92995SOL    HW280825  11.319   1.553  13.143
92996SOL     OW80826   0.698   4.640   3.086
92996SOL    HW180827   0.724   4.556   3.125
92996SOL    HW280828   0.606   4.629   3.065
92997SOL     OW80829   6.216   9.686   8.170
92997SOL    HW180830   6.163   9.756   8.132
92997SOL    HW280831   6.287   9.732   8.215
92998SOL     OW80832  14.386   7.548   5.849
92998SOL    HW180833  14.481   7.544   5.834
92998SOL    HW280834  14.376   7.619   5.913
92999SOL     OW80835  14.482  14.374  11.067
92999SOL    HW180836  14.390  14.355  11.087
92999SOL    HW280837  14.527  14.365  11.151
93000SOL     OW80838   4.415   8.070   6.259
93000SOL    HW180839   4.406   7.997   6.320
93000SOL    HW280840   4.425   8.147   6.314
93001SOL     OW80841  11.637   9.468   3.645
93001SOL    HW180842  11.660   9.561   3.647
93001SOL    HW280843  11.706   9.425   3.696
93002SOL     OW80844   8.404  10.673   2.812
93002SOL    HW180845   8.384  10.597   2.867
93002SOL    HW280846   8.322  10.723   2.811
93003SOL     OW80847   6.871   1.417   7.269
93003SOL    HW180848   6.829   1.504   7.273
93003SOL    HW280849   6.879   1.399   7.175
93004SOL     OW80850   2.100   7.421   3.773
93004SOL    HW180851   2.007   7.411   3.793
93004SOL    HW280852   2.113   7.372   3.692
93005SOL     OW80853   2.953  10.652  11.899
93005SOL    HW180854   2.994  10.735  11.921
93005SOL    HW280855   2.964  10.645  11.804
93006SOL     OW80856   8.122   3.359  13.735
93006SOL    HW180857   8.066   3.430  13.766
93006SOL    HW280858   8.090   3.282  13.781
93007SOL     OW80859   0.228   1.516   0.214
93007SOL    HW180860   0.162   1.515   0.145
93007SOL    HW280861   0.227   1.605   0.247
93008SOL     OW80862   9.274   3.570   2.612
93008SOL    HW180863   9.241   3.540   2.527
93008SOL    HW280864   9.357   3.614   2.592
93009SOL     OW80865   0.890   5.551   5.198
93009SOL    HW180866   0.845   5.472   5.166
93009SOL    HW280867   0.939   5.582   5.123
93010SOL     OW80868   0.794  10.469  12.496
93010SOL    HW180869   0.741  10.452  12.575
93010SOL    HW280870   0.852  10.394  12.490
93011SOL     OW80871   3.525   5.046   6.897
93011SOL    HW180872   3.549   5.066   6.806
93011SOL    HW280873   3.438   5.085   6.907
93012SOL     OW80874  14.720   2.239  12.388
93012SOL    HW180875  14.635   2.218  12.428
93012SOL    HW280876  14.710   2.214  12.296
93013SOL     OW80877   7.627   5.302  13.092
93013SOL    HW180878   7.539   5.274  13.119
93013SOL    HW280879   7.645   5.379  13.145
93014SOL     OW80880   2.829   3.418   6.027
93014SOL    HW180881   2.826   3.389   6.119
93014SOL    HW280882   2.909   3.379   5.993
93015SOL     OW80883  11.709   5.811   1.263
93015SOL    HW180884  11.753   5.859   1.333
93015SOL    HW280885  11.695   5.876   1.194
93016SOL     OW80886  10.462  14.034   2.587
93016SOL    HW180887  10.519  14.062   2.515
93016SOL    HW280888  10.408  13.965   2.549
93017SOL     OW80889  12.863  11.395   8.107
93017SOL    HW180890  12.775  11.364   8.130
93017SOL    HW280891  12.918  11.317   8.112
93018SOL     OW80892   0.589   4.512   8.538
93018SOL    HW180893   0.543   4.567   8.475
93018SOL    HW280894   0.665   4.479   8.490
93019SOL     OW80895   5.195   4.853   9.790
93019SOL    HW180896   5.225   4.938   9.824
93019SOL    HW280897   5.150   4.875   9.708
93020SOL     OW80898  12.358   6.242   5.037
93020SOL    HW180899  12.442   6.216   5.000
93020SOL    HW280900  12.305   6.162   5.033
93021SOL     OW80901   4.558   0.375   9.814
93021SOL    HW180902   4.540   0.290   9.856
93021SOL    HW280903   4.492   0.382   9.745
93022SOL     OW80904   8.477   7.243   2.812
93022SOL    HW180905   8.484   7.332   2.776
93022SOL    HW280906   8.387   7.217   2.792
93023SOL     OW80907  11.729   3.135   5.090
93023SOL    HW180908  11.640   3.099   5.092
93023SOL    HW280909  11.740   3.176   5.176
93024SOL     OW80910  14.161   5.478  13.220
93024SOL    HW180911  14.151   5.463  13.314
93024SOL    HW280912  14.243   5.434  13.197
93025SOL     OW80913   1.116   4.488   2.412
93025SOL    HW180914   1.157   4.432   2.478
93025SOL    HW280915   1.037   4.523   2.455
93026SOL     OW80916  10.507   7.006   9.784
93026SOL    HW180917  10.484   7.048   9.867
93026SOL    HW280918  10.459   6.924   9.785
93027SOL     OW80919   9.697   6.039  11.936
93027SOL    HW180920   9.740   6.064  12.018
93027SOL    HW280921   9.750   6.080  11.868
93028SOL     OW80922   1.731   9.775   5.796
93028SOL    HW180923   1.776   9.767   5.880
93028SOL    HW280924   1.689   9.690   5.783
93029SOL     OW80925   3.304  14.714  14.537
93029SOL    HW180926   3.300  14.641  14.599
93029SOL    HW280927   3.281  14.676  14.452
93030SOL     OW80928  12.941  10.386   8.893
93030SOL    HW180929  12.931  10.401   8.799
93030SOL    HW280930  13.013  10.323   8.900
93031SOL     OW80931  11.926   5.159  12.072
93031SOL    HW180932  11.975   5.206  12.140
93031SOL    HW280933  11.993   5.116  12.019
93032SOL     OW80934   1.126   3.585  11.057
93032SOL    HW180935   1.177   3.630  10.990
93032SOL    HW280936   1.132   3.643  11.134
93033SOL     OW80937  14.358  12.990   2.214
93033SOL    HW180938  14.288  13.024   2.269
93033SOL    HW280939  14.379  12.904   2.252
93034SOL     OW80940  13.969   6.257   7.234
93034SOL    HW180941  13.894   6.203   7.257
93034SOL    HW280942  14.033   6.196   7.197
93035SOL     OW80943  10.823   6.317   4.308
93035SOL    HW180944  10.867   6.250   4.360
93035SOL    HW280945  10.849   6.298   4.217
93036SOL     OW80946   9.302   9.744   2.615
93036SOL    HW180947   9.376   9.773   2.668
93036SOL    HW280948   9.330   9.756   2.524
93037SOL     OW80949   8.477   6.546   5.394
93037SOL    HW180950   8.484   6.634   5.430
93037SOL    HW280951   8.478   6.558   5.299
93038SOL     OW80952   0.708   8.887   9.688
93038SOL    HW180953   0.710   8.954   9.756
93038SOL    HW280954   0.756   8.813   9.725
93039SOL     OW80955   0.884   5.582   2.318
93039SOL    HW180956   0.937   5.509   2.352
93039SOL    HW280957   0.940   5.659   2.329
93040SOL     OW80958   8.500  12.727   6.383
93040SOL    HW180959   8.538  12.738   6.470
93040SOL    HW280960   8.450  12.808   6.369
93041SOL     OW80961   8.551   6.001  12.880
93041SOL    HW180962   8.474   6.025  12.829
93041SOL    HW280963   8.518   5.941  12.947
93042SOL     OW80964  10.176   5.612   6.269
93042SOL    HW180965  10.248   5.552   6.290
93042SOL    HW280966  10.178   5.618   6.173
93043SOL     OW80967   0.694   3.576  10.962
93043SOL    HW180968   0.611   3.623  10.963
93043SOL    HW280969   0.757   3.639  10.928
93044SOL     OW80970   0.784   7.809  10.321
93044SOL    HW180971   0.822   7.879  10.374
93044SOL    HW280972   0.845   7.736  10.331
93045SOL     OW80973   2.973  12.659   7.232
93045SOL    HW180974   2.962  12.754   7.235
93045SOL    HW280975   2.917  12.626   7.301
93046SOL     OW80976  10.153   2.561   8.078
93046SOL    HW180977  10.063   2.576   8.105
93046SOL    HW280978  10.147   2.507   8.000
93047SOL     OW80979   3.085   3.766   6.507
93047SOL    HW180980   3.045   3.751   6.593
93047SOL    HW280981   3.167   3.810   6.527
93048SOL     OW80982  11.050  13.459  14.413
93048SOL    HW180983  11.064  13.418  14.327
93048SOL    HW280984  11.125  13.430  14.465
93049SOL     OW80985   8.014   0.222   3.683
93049SOL    HW180986   8.082   0.287   3.700
93049SOL    HW280987   7.932   0.270   3.692
93050SOL     OW80988   1.819   9.258   3.831
93050SOL    HW180989   1.850   9.300   3.910
93050SOL    HW280990   1.897   9.216   3.794
93051SOL     OW80991   9.122   9.049   1.966
93051SOL    HW180992   9.077   8.965   1.963
93051SOL    HW280993   9.170   9.048   2.049
93052SOL     OW80994   9.361   8.437   7.672
93052SOL    HW180995   9.433   8.442   7.735
93052SOL    HW280996   9.323   8.350   7.686
93053SOL     OW80997   7.530   0.950   5.555
93053SOL    HW180998   7.612   0.944   5.604
93053SOL    HW280999   7.492   1.034   5.582
93054SOL     OW81000   7.412  11.428  10.605
93054SOL    HW181001   7.415  11.523  10.617
93054SOL    HW281002   7.424  11.415  10.511
93055SOL     OW81003   7.642  12.105   1.993
93055SOL    HW181004   7.570  12.165   2.011
93055SOL    HW281005   7.701  12.154   1.936
93056SOL     OW81006   3.600   8.899   3.422
93056SOL    HW181007   3.661   8.943   3.362
93056SOL    HW281008   3.638   8.813   3.436
93057SOL     OW81009   0.184   9.082   7.432
93057SOL    HW181010   0.129   9.145   7.385
93057SOL    HW281011   0.127   9.007   7.449
93058SOL     OW81012   0.286   3.857  10.367
93058SOL    HW181013   0.353   3.897  10.421
93058SOL    HW281014   0.327   3.845  10.281
93059SOL     OW81015   5.440  12.536  12.394
93059SOL    HW181016   5.531  12.509  12.408
93059SOL    HW281017   5.391  12.454  12.391
93060SOL     OW81018   9.590   4.654   2.363
93060SOL    HW181019   9.538   4.613   2.294
93060SOL    HW281020   9.534   4.723   2.397
93061SOL     OW81021  11.736  11.610  12.385
93061SOL    HW181022  11.814  11.665  12.398
93061SOL    HW281023  11.667  11.672  12.363
93062SOL     OW81024   7.635  13.808   7.882
93062SOL    HW181025   7.604  13.776   7.798
93062SOL    HW281026   7.567  13.869   7.912
93063SOL     OW81027   6.025   4.513   5.026
93063SOL    HW181028   6.021   4.419   5.041
93063SOL    HW281029   6.031   4.552   5.113
93064SOL     OW81030   0.785  14.686   9.883
93064SOL    HW181031   0.830  14.619   9.832
93064SOL    HW281032   0.695  14.654   9.891
93065SOL     OW81033   6.040   4.719   0.840
93065SOL    HW181034   6.026   4.813   0.829
93065SOL    HW281035   6.015   4.681   0.756
93066SOL     OW81036  12.751   8.756  12.410
93066SOL    HW181037  12.680   8.696  12.388
93066SOL    HW281038  12.772   8.800  12.328
93067SOL     OW81039   9.703  12.912   1.685
93067SOL    HW181040   9.794  12.924   1.714
93067SOL    HW281041   9.686  12.819   1.696
93068SOL     OW81042   7.127   2.133   7.027
93068SOL    HW181043   7.108   2.048   7.066
93068SOL    HW281044   7.042   2.178   7.024
93069SOL     OW81045   2.738  10.785   3.464
93069SOL    HW181046   2.826  10.790   3.427
93069SOL    HW281047   2.747  10.724   3.537
93070SOL     OW81048   2.530   9.156   7.551
93070SOL    HW181049   2.542   9.070   7.591
93070SOL    HW281050   2.463   9.142   7.484
93071SOL     OW81051   2.330   8.813   6.215
93071SOL    HW181052   2.308   8.729   6.255
93071SOL    HW281053   2.420   8.830   6.242
93072SOL     OW81054   9.552   8.682   4.039
93072SOL    HW181055   9.474   8.703   3.988
93072SOL    HW281056   9.625   8.707   3.983
93073SOL     OW81057   2.371   1.390  10.419
93073SOL    HW181058   2.401   1.465  10.367
93073SOL    HW281059   2.451   1.350  10.451
93074SOL     OW81060  14.609   1.230  12.736
93074SOL    HW181061  14.629   1.322  12.716
93074SOL    HW281062  14.642   1.217  12.825
93075SOL     OW81063  11.062  10.181   0.219
93075SOL    HW181064  11.038  10.088   0.222
93075SOL    HW281065  11.001  10.223   0.280
93076SOL     OW81066   0.764   9.110  13.036
93076SOL    HW181067   0.688   9.116  13.093
93076SOL    HW281068   0.831   9.162  13.081
93077SOL     OW81069   7.982   9.842   5.150
93077SOL    HW181070   8.069   9.882   5.159
93077SOL    HW281071   7.980   9.812   5.059
93078SOL     OW81072  10.189   2.117   0.395
93078SOL    HW181073  10.133   2.113   0.317
93078SOL    HW281074  10.186   2.028   0.431
93079SOL     OW81075   6.533   3.016   0.607
93079SOL    HW181076   6.441   3.012   0.580
93079SOL    HW281077   6.580   3.042   0.528
93080SOL     OW81078   3.842   7.305   5.582
93080SOL    HW181079   3.829   7.396   5.557
93080SOL    HW281080   3.935   7.289   5.566
93081SOL     OW81081  13.169   3.126   0.203
93081SOL    HW181082  13.243   3.089   0.156
93081SOL    HW281083  13.174   3.088   0.291
93082SOL     OW81084   2.557  14.050   6.788
93082SOL    HW181085   2.648  14.041   6.760
93082SOL    HW281086   2.558  14.025   6.881
93083SOL     OW81087   0.275   5.962   1.852
93083SOL    HW181088   0.184   5.971   1.877
93083SOL    HW281089   0.288   5.868   1.844
93084SOL     OW81090   0.407   4.528   2.617
93084SOL    HW181091   0.409   4.623   2.621
93084SOL    HW281092   0.424   4.507   2.525
93085SOL     OW81093   3.600   3.417   9.082
93085SOL    HW181094   3.645   3.342   9.121
93085SOL    HW281095   3.615   3.409   8.988
93086SOL     OW81096   8.923   3.786   2.588
93086SOL    HW181097   9.001   3.810   2.538
93086SOL    HW281098   8.861   3.857   2.573
93087SOL     OW81099   6.811  13.401   4.997
93087SOL    HW181100   6.747  13.430   4.932
93087SOL    HW281101   6.819  13.475   5.058
93088SOL     OW81102  14.011   2.371   5.921
93088SOL    HW181103  13.995   2.310   5.849
93088SOL    HW281104  14.096   2.344   5.957
93089SOL     OW81105  13.319   9.208  12.358
93089SOL    HW181106  13.302   9.234  12.267
93089SOL    HW281107  13.401   9.253  12.381
93090SOL     OW81108  14.011   9.611  14.424
93090SOL    HW181109  13.942   9.553  14.391
93090SOL    HW281110  13.986   9.698  14.393
93091SOL     OW81111   3.780   1.540   1.134
93091SOL    HW181112   3.860   1.522   1.184
93091SOL    HW281113   3.805   1.609   1.073
93092SOL     OW81114   4.676  10.888   6.824
93092SOL    HW181115   4.772  10.886   6.833
93092SOL    HW281116   4.651  10.968   6.872
93093SOL     OW81117   8.157  11.218  14.020
93093SOL    HW181118   8.169  11.305  14.059
93093SOL    HW281119   8.068  11.221  13.984
93094SOL     OW81120   7.258   8.480   1.017
93094SOL    HW181121   7.324   8.411   1.009
93094SOL    HW281122   7.175   8.433   1.022
93095SOL     OW81123   7.774  13.583   1.533
93095SOL    HW181124   7.694  13.548   1.494
93095SOL    HW281125   7.838  13.513   1.523
93096SOL     OW81126   2.519   5.474  11.403
93096SOL    HW181127   2.530   5.470  11.308
93096SOL    HW281128   2.547   5.563  11.426
93097SOL     OW81129   3.286  14.352   1.373
93097SOL    HW181130   3.282  14.445   1.352
93097SOL    HW281131   3.214  14.313   1.324
93098SOL     OW81132  10.053   9.436  13.746
93098SOL    HW181133  10.089   9.499  13.808
93098SOL    HW281134  10.082   9.466  13.660
93099SOL     OW81135   7.465  10.522   5.681
93099SOL    HW181136   7.471  10.598   5.739
93099SOL    HW281137   7.435  10.558   5.597
93100SOL     OW81138   9.338   9.421   8.857
93100SOL    HW181139   9.296   9.337   8.878
93100SOL    HW281140   9.380   9.406   8.772
93101SOL     OW81141  14.845   1.360  10.111
93101SOL    HW181142  14.876   1.295  10.174
93101SOL    HW281143   0.041   1.371  10.050
93102SOL     OW81144  10.365   6.684   4.140
93102SOL    HW181145  10.299   6.722   4.082
93102SOL    HW281146  10.315   6.650   4.215
93103SOL     OW81147   2.439  14.807   4.447
93103SOL    HW181148   2.389  14.875   4.492
93103SOL    HW281149   2.378  14.734   4.440
93104SOL     OW81150   6.833  11.591   0.000
93104SOL    HW181151   6.759  11.545  14.838
93104SOL    HW281152   6.902  11.585  14.810
93105SOL     OW81153   3.084  14.546  14.600
93105SOL    HW181154   3.068  14.537  14.506
93105SOL    HW281155   3.156  14.486  14.618
93106SOL     OW81156   3.466  10.593   1.188
93106SOL    HW181157   3.493  10.676   1.228
93106SOL    HW281158   3.375  10.607   1.165
93107SOL     OW81159  10.197   0.089   2.098
93107SOL    HW181160  10.265   0.097   2.164
93107SOL    HW281161  10.235   0.126   2.019
93108SOL     OW81162   9.894   1.105   7.672
93108SOL    HW181163   9.911   1.072   7.761
93108SOL    HW281164   9.817   1.160   7.682
93109SOL     OW81165  12.413   4.175  12.712
93109SOL    HW181166  12.420   4.129  12.796
93109SOL    HW281167  12.496   4.158  12.668
93110SOL     OW81168   1.577   8.516   1.548
93110SOL    HW181169   1.671   8.535   1.556
93110SOL    HW281170   1.550   8.492   1.637
93111SOL     OW81171   9.976   9.223   0.222
93111SOL    HW181172  10.008   9.204   0.134
93111SOL    HW281173  10.014   9.154   0.277
93112SOL     OW81174   1.112   1.221   8.697
93112SOL    HW181175   1.199   1.248   8.725
93112SOL    HW281176   1.058   1.231   8.776
93113SOL     OW81177   2.325   4.751  13.146
93113SOL    HW181178   2.343   4.771  13.054
93113SOL    HW281179   2.272   4.672  13.144
93114SOL     OW81180   9.390  12.810  12.349
93114SOL    HW181181   9.312  12.861  12.373
93114SOL    HW281182   9.386  12.803  12.253
93115SOL     OW81183  13.352  13.299   0.306
93115SOL    HW181184  13.295  13.338   0.240
93115SOL    HW281185  13.291  13.262   0.371
93116SOL     OW81186   1.537   9.700  14.783
93116SOL    HW181187   1.603   9.632  14.787
93116SOL    HW281188   1.562   9.763  14.851
93117SOL     OW81189   8.092   5.070   8.385
93117SOL    HW181190   8.037   5.051   8.309
93117SOL    HW281191   8.072   5.000   8.447
93118SOL     OW81192   8.690   8.509  12.854
93118SOL    HW181193   8.611   8.458  12.874
93118SOL    HW281194   8.763   8.451  12.878
93119SOL     OW81195  14.336   0.008   8.581
93119SOL    HW181196  14.313  14.796   8.607
93119SOL    HW281197  14.276   0.028   8.508
93120SOL     OW81198  12.075   8.707  10.743
93120SOL    HW181199  11.991   8.714  10.788
93120SOL    HW281200  12.140   8.712  10.812
93121SOL     OW81201  14.636   6.365  12.074
93121SOL    HW181202  14.608   6.448  12.034
93121SOL    HW281203  14.554   6.321  12.096
93122SOL     OW81204   3.956   0.491  13.704
93122SOL    HW181205   3.996   0.555  13.763
93122SOL    HW281206   3.991   0.407  13.733
93123SOL     OW81207   1.735   1.025  11.142
93123SOL    HW181208   1.710   1.055  11.230
93123SOL    HW281209   1.653   1.024  11.093
93124SOL     OW81210  11.077   1.813   7.908
93124SOL    HW181211  11.010   1.857   7.960
93124SOL    HW281212  11.036   1.731   7.880
93125SOL     OW81213  12.706   1.246  12.152
93125SOL    HW181214  12.728   1.332  12.117
93125SOL    HW281215  12.645   1.263  12.223
93126SOL     OW81216   9.464  12.703   9.651
93126SOL    HW181217   9.512  12.636   9.699
93126SOL    HW281218   9.470  12.676   9.559
93127SOL     OW81219   7.077   8.302   5.602
93127SOL    HW181220   7.082   8.369   5.670
93127SOL    HW281221   7.130   8.230   5.634
93128SOL     OW81222   0.538   5.623   4.524
93128SOL    HW181223   0.563   5.603   4.614
93128SOL    HW281224   0.621   5.628   4.477
93129SOL     OW81225  14.093  14.512   0.303
93129SOL    HW181226  14.096  14.466   0.219
93129SOL    HW281227  14.056  14.448   0.364
93130SOL     OW81228   0.921   5.924   3.370
93130SOL    HW181229   0.963   5.851   3.414
93130SOL    HW281230   0.898   5.891   3.284
93131SOL     OW81231   0.978   7.197   2.717
93131SOL    HW181232   1.066   7.178   2.752
93131SOL    HW281233   0.954   7.117   2.670
93132SOL     OW81234  11.272   6.896   6.322
93132SOL    HW181235  11.274   6.962   6.253
93132SOL    HW281236  11.288   6.945   6.403
93133SOL     OW81237  12.132   7.964  12.241
93133SOL    HW181238  12.091   8.017  12.310
93133SOL    HW281239  12.085   7.881  12.245
93134SOL     OW81240   6.362   0.276  11.276
93134SOL    HW181241   6.367   0.208  11.344
93134SOL    HW281242   6.450   0.314  11.274
93135SOL     OW81243  13.677  10.881   6.495
93135SOL    HW181244  13.614  10.840   6.555
93135SOL    HW281245  13.622  10.922   6.428
93136SOL     OW81246  14.682  14.738   8.921
93136SOL    HW181247  14.639  14.823   8.918
93136SOL    HW281248  14.773  14.755   8.895
93137SOL     OW81249   1.393   9.275  10.074
93137SOL    HW181250   1.335   9.210  10.034
93137SOL    HW281251   1.468   9.225  10.103
93138SOL     OW81252  14.811  14.038   4.469
93138SOL    HW181253  14.730  14.014   4.515
93138SOL    HW281254  14.838  13.958   4.425
93139SOL     OW81255   8.362   2.478   5.316
93139SOL    HW181256   8.410   2.473   5.233
93139SOL    HW281257   8.395   2.404   5.367
93140SOL     OW81258   7.918   1.773   1.714
93140SOL    HW181259   7.996   1.824   1.732
93140SOL    HW281260   7.931   1.741   1.625
93141SOL     OW81261  11.125   7.432  11.839
93141SOL    HW181262  11.066   7.498  11.802
93141SOL    HW281263  11.206   7.480  11.859
93142SOL     OW81264  10.889   9.335   5.840
93142SOL    HW181265  10.815   9.337   5.779
93142SOL    HW281266  10.864   9.395   5.910
93143SOL     OW81267   6.423   7.771   1.043
93143SOL    HW181268   6.430   7.783   1.138
93143SOL    HW281269   6.382   7.851   1.011
93144SOL     OW81270  14.320   1.314  14.159
93144SOL    HW181271  14.412   1.295  14.139
93144SOL    HW281272  14.314   1.303  14.254
93145SOL     OW81273   4.987  10.763  13.715
93145SOL    HW181274   4.928  10.791  13.645
93145SOL    HW281275   4.977  10.668  13.718
93146SOL     OW81276   6.102   0.231   1.667
93146SOL    HW181277   6.185   0.192   1.640
93146SOL    HW281278   6.037   0.164   1.647
93147SOL     OW81279   8.204  11.626  12.076
93147SOL    HW181280   8.270  11.557  12.076
93147SOL    HW281281   8.121  11.580  12.088
93148SOL     OW81282   7.345   3.522   7.530
93148SOL    HW181283   7.360   3.544   7.438
93148SOL    HW281284   7.420   3.468   7.554
93149SOL     OW81285  14.416   4.012   5.824
93149SOL    HW181286  14.376   3.925   5.815
93149SOL    HW281287  14.347   4.073   5.798
93150SOL     OW81288  10.247  14.694   5.110
93150SOL    HW181289  10.198  14.742   5.176
93150SOL    HW281290  10.214  14.726   5.026
93151SOL     OW81291   8.336   2.717   0.446
93151SOL    HW181292   8.387   2.659   0.390
93151SOL    HW281293   8.329   2.799   0.397
93152SOL     OW81294   6.444   2.910   3.689
93152SOL    HW181295   6.413   2.919   3.779
93152SOL    HW281296   6.537   2.889   3.698
93153SOL     OW81297   6.768   7.530  12.003
93153SOL    HW181298   6.850   7.580  12.013
93153SOL    HW281299   6.735   7.522  12.093
93154SOL     OW81300  10.794   6.045  13.580
93154SOL    HW181301  10.794   6.079  13.670
93154SOL    HW281302  10.886   6.043  13.555
93155SOL     OW81303   5.224  13.249   0.653
93155SOL    HW181304   5.156  13.198   0.696
93155SOL    HW281305   5.283  13.275   0.723
93156SOL     OW81306  13.947  13.781   3.363
93156SOL    HW181307  13.937  13.803   3.456
93156SOL    HW281308  13.859  13.763   3.333
93157SOL     OW81309   6.298  10.863   1.360
93157SOL    HW181310   6.297  10.932   1.294
93157SOL    HW281311   6.383  10.871   1.402
93158SOL     OW81312   1.606  14.772   3.762
93158SOL    HW181313   1.626  14.679   3.773
93158SOL    HW281314   1.662  14.815   3.826
93159SOL     OW81315   4.302   5.458   0.632
93159SOL    HW181316   4.382   5.503   0.603
93159SOL    HW281317   4.304   5.374   0.585
93160SOL     OW81318  10.178  11.608   8.284
93160SOL    HW181319  10.122  11.551   8.232
93160SOL    HW281320  10.246  11.637   8.224
93161SOL     OW81321   6.885   1.467  12.691
93161SOL    HW181322   6.855   1.542  12.741
93161SOL    HW281323   6.826   1.396  12.717
93162SOL     OW81324  12.161  10.087   3.421
93162SOL    HW181325  12.163  10.154   3.489
93162SOL    HW281326  12.243  10.039   3.431
93163SOL     OW81327   2.458   9.734   4.632
93163SOL    HW181328   2.406   9.758   4.709
93163SOL    HW281329   2.415   9.779   4.559
93164SOL     OW81330  14.322   3.965   4.369
93164SOL    HW181331  14.258   4.036   4.367
93164SOL    HW281332  14.293   3.905   4.300
93165SOL     OW81333   2.162   4.234  12.699
93165SOL    HW181334   2.174   4.164  12.764
93165SOL    HW281335   2.223   4.212  12.629
93166SOL     OW81336   2.882   6.335   0.104
93166SOL    HW181337   2.869   6.323   0.198
93166SOL    HW281338   2.947   6.269   0.080
93167SOL     OW81339   6.492  11.636  10.464
93167SOL    HW181340   6.446  11.590  10.394
93167SOL    HW281341   6.582  11.644  10.433
93168SOL     OW81342   1.714  11.814   8.154
93168SOL    HW181343   1.791  11.758   8.150
93168SOL    HW281344   1.640  11.753   8.159
93169SOL     OW81345   8.810  13.166  11.317
93169SOL    HW181346   8.775  13.199  11.234
93169SOL    HW281347   8.736  13.123  11.359
93170SOL     OW81348   2.265   0.888   9.697
93170SOL    HW181349   2.173   0.913   9.702
93170SOL    HW281350   2.299   0.904   9.785
93171SOL     OW81351   4.549   0.975   3.855
93171SOL    HW181352   4.493   0.915   3.903
93171SOL    HW281353   4.610   1.009   3.920
93172SOL     OW81354   8.242   0.052  11.286
93172SOL    HW181355   8.229   0.143  11.259
93172SOL    HW281356   8.288   0.058  11.370
93173SOL     OW81357   8.182   7.009  10.786
93173SOL    HW181358   8.239   7.030  10.859
93173SOL    HW281359   8.240   6.971  10.720
93174SOL     OW81360   5.908  11.276  10.304
93174SOL    HW181361   5.954  11.197  10.276
93174SOL    HW281362   5.952  11.302  10.385
93175SOL     OW81363   6.256  10.376  12.280
93175SOL    HW181364   6.206  10.391  12.361
93175SOL    HW281365   6.197  10.323  12.226
93176SOL     OW81366   3.438  13.535   5.535
93176SOL    HW181367   3.394  13.620   5.540
93176SOL    HW281368   3.449  13.509   5.627
93177SOL     OW81369   4.420   3.080  11.615
93177SOL    HW181370   4.393   3.169  11.596
93177SOL    HW281371   4.451   3.046  11.531
93178SOL     OW81372   5.282   3.668   6.617
93178SOL    HW181373   5.297   3.599   6.682
93178SOL    HW281374   5.187   3.677   6.613
93179SOL     OW81375   9.011   5.789  10.345
93179SOL    HW181376   8.959   5.868  10.358
93179SOL    HW281377   9.099   5.812  10.376
93180SOL     OW81378   2.227   8.349  14.486
93180SOL    HW181379   2.263   8.410  14.551
93180SOL    HW281380   2.291   8.349  14.415
93181SOL     OW81381  12.723  10.088   7.622
93181SOL    HW181382  12.687  10.111   7.537
93181SOL    HW281383  12.807  10.132   7.627
93182SOL     OW81384   5.833   5.269   6.197
93182SOL    HW181385   5.773   5.318   6.253
93182SOL    HW281386   5.879   5.337   6.147
93183SOL     OW81387  13.652  13.534   9.512
93183SOL    HW181388  13.627  13.574   9.429
93183SOL    HW281389  13.733  13.580   9.537
93184SOL     OW81390   7.316   4.245  11.821
93184SOL    HW181391   7.324   4.340  11.811
93184SOL    HW281392   7.274   4.234  11.907
93185SOL     OW81393   8.503   0.293   1.964
93185SOL    HW181394   8.556   0.222   2.002
93185SOL    HW281395   8.528   0.295   1.872
93186SOL     OW81396   9.138  13.587   6.039
93186SOL    HW181397   9.226  13.559   6.016
93186SOL    HW281398   9.145  13.683   6.046
93187SOL     OW81399   7.904   6.993  11.188
93187SOL    HW181400   7.820   6.950  11.176
93187SOL    HW281401   7.914   7.049  11.111
93188SOL     OW81402   7.675   2.022   3.798
93188SOL    HW181403   7.714   2.101   3.836
93188SOL    HW281404   7.740   1.953   3.815
93189SOL     OW81405   8.453   1.083  14.470
93189SOL    HW181406   8.515   1.031  14.520
93189SOL    HW281407   8.425   1.152  14.531
93190SOL     OW81408   2.742   8.632  14.155
93190SOL    HW181409   2.649   8.609  14.161
93190SOL    HW281410   2.744   8.726  14.170
93191SOL     OW81411  12.848   2.290   6.485
93191SOL    HW181412  12.888   2.369   6.521
93191SOL    HW281413  12.895   2.275   6.403
93192SOL     OW81414   7.610   5.741   8.460
93192SOL    HW181415   7.562   5.763   8.540
93192SOL    HW281416   7.555   5.775   8.389
93193SOL     OW81417   1.793  10.245   7.419
93193SOL    HW181418   1.839  10.170   7.455
93193SOL    HW281419   1.754  10.213   7.338
93194SOL     OW81420  14.561  12.874   0.145
93194SOL    HW181421  14.654  12.853   0.136
93194SOL    HW281422  14.551  12.894   0.238
93195SOL     OW81423   7.826  10.420  11.893
93195SOL    HW181424   7.862  10.476  11.961
93195SOL    HW281425   7.740  10.394  11.926
93196SOL     OW81426  11.283   5.001  12.679
93196SOL    HW181427  11.266   4.907  12.684
93196SOL    HW281428  11.244   5.037  12.758
93197SOL     OW81429  11.067   4.632  12.184
93197SOL    HW181430  11.159   4.656  12.171
93197SOL    HW281431  11.041   4.680  12.263
93198SOL     OW81432   3.447  12.466   0.795
93198SOL    HW181433   3.441  12.561   0.803
93198SOL    HW281434   3.537  12.445   0.820
93199SOL     OW81435   0.347   9.226  13.339
93199SOL    HW181436   0.253   9.230  13.323
93199SOL    HW281437   0.357   9.164  13.411
93200SOL     OW81438   6.969   8.702  13.163
93200SOL    HW181439   6.889   8.678  13.211
93200SOL    HW281440   7.034   8.636  13.191
93201SOL     OW81441  13.051   1.568   6.334
93201SOL    HW181442  12.994   1.511   6.282
93201SOL    HW281443  13.132   1.519   6.344
93202SOL     OW81444   3.724   7.453   5.932
93202SOL    HW181445   3.704   7.538   5.970
93202SOL    HW281446   3.736   7.395   6.008
93203SOL     OW81447  14.399   4.359   9.273
93203SOL    HW181448  14.331   4.348   9.206
93203SOL    HW281449  14.361   4.321   9.352
93204SOL     OW81450   6.153  13.771  10.263
93204SOL    HW181451   6.058  13.781  10.270
93204SOL    HW281452   6.188  13.841  10.317
93205SOL     OW81453   3.943   2.816   2.655
93205SOL    HW181454   4.012   2.749   2.652
93205SOL    HW281455   3.899   2.810   2.570
93206SOL     OW81456   9.963   7.532  12.004
93206SOL    HW181457   9.994   7.620  11.983
93206SOL    HW281458   9.968   7.484  11.922
93207SOL     OW81459  11.908  11.927   8.788
93207SOL    HW181460  11.866  12.006   8.821
93207SOL    HW281461  11.836  11.865   8.775
93208SOL     OW81462   1.940  12.047   7.556
93208SOL    HW181463   1.869  12.104   7.526
93208SOL    HW281464   1.901  11.960   7.558
93209SOL     OW81465   9.721  12.532   4.048
93209SOL    HW181466   9.812  12.555   4.064
93209SOL    HW281467   9.674  12.568   4.123
93210SOL     OW81468  11.415   8.401   4.156
93210SOL    HW181469  11.367   8.415   4.075
93210SOL    HW281470  11.480   8.334   4.134
93211SOL     OW81471   9.420   6.844  12.796
93211SOL    HW181472   9.435   6.786  12.722
93211SOL    HW281473   9.386   6.924  12.758
93212SOL     OW81474   8.757   9.263  14.547
93212SOL    HW181475   8.684   9.210  14.579
93212SOL    HW281476   8.736   9.352  14.577
93213SOL     OW81477   7.209   3.201  14.651
93213SOL    HW181478   7.142   3.163  14.593
93213SOL    HW281479   7.252   3.268  14.597
93214SOL     OW81480   4.716   7.101   2.181
93214SOL    HW181481   4.765   7.151   2.245
93214SOL    HW281482   4.666   7.167   2.132
93215SOL     OW81483   2.873  10.048  10.336
93215SOL    HW181484   2.899  10.133  10.370
93215SOL    HW281485   2.780  10.058  10.316
93216SOL     OW81486   0.210   9.768  14.420
93216SOL    HW181487   0.294   9.727  14.398
93216SOL    HW281488   0.216   9.787  14.513
93217SOL     OW81489  14.400  10.378   1.712
93217SOL    HW181490  14.397  10.291   1.750
93217SOL    HW281491  14.475  10.421   1.754
93218SOL     OW81492  10.881  12.052   5.258
93218SOL    HW181493  10.860  11.980   5.199
93218SOL    HW281494  10.844  12.026   5.342
93219SOL     OW81495  13.270   0.309  14.453
93219SOL    HW181496  13.231   0.335  14.537
93219SOL    HW281497  13.228   0.367  14.389
93220SOL     OW81498   8.366  12.462   6.430
93220SOL    HW181499   8.351  12.388   6.371
93220SOL    HW281500   8.384  12.536   6.373
93221SOL     OW81501   1.668   5.364   0.749
93221SOL    HW181502   1.613   5.437   0.776
93221SOL    HW281503   1.755   5.386   0.782
93222SOL     OW81504   8.802   7.407   7.955
93222SOL    HW181505   8.893   7.414   7.983
93222SOL    HW281506   8.793   7.471   7.885
93223SOL     OW81507   0.887   2.225  11.412
93223SOL    HW181508   0.917   2.281  11.341
93223SOL    HW281509   0.795   2.249  11.424
93224SOL     OW81510   1.574   1.810   1.153
93224SOL    HW181511   1.535   1.895   1.133
93224SOL    HW281512   1.587   1.769   1.068
93225SOL     OW81513   8.807   3.403   0.322
93225SOL    HW181514   8.854   3.482   0.295
93225SOL    HW281515   8.868   3.359   0.381
93226SOL     OW81516   0.592   5.673   3.704
93226SOL    HW181517   0.674   5.714   3.677
93226SOL    HW281518   0.607   5.649   3.796
93227SOL     OW81519   6.089  13.255  13.727
93227SOL    HW181520   6.011  13.237  13.779
93227SOL    HW281521   6.162  13.228  13.783
93228SOL     OW81522  14.671   4.318  14.544
93228SOL    HW181523  14.676   4.229  14.579
93228SOL    HW281524  14.754   4.330  14.496
93229SOL     OW81525  11.210   4.850  10.758
93229SOL    HW181526  11.256   4.808  10.686
93229SOL    HW281527  11.274   4.853  10.829
93230SOL     OW81528   3.608   2.126   6.598
93230SOL    HW181529   3.694   2.117   6.638
93230SOL    HW281530   3.575   2.210   6.630
93231SOL     OW81531  12.480   2.420   9.937
93231SOL    HW181532  12.537   2.396   9.864
93231SOL    HW281533  12.456   2.337   9.977
93232SOL     OW81534  14.696   2.536   8.411
93232SOL    HW181535  14.786   2.526   8.380
93232SOL    HW281536  14.704   2.535   8.507
93233SOL     OW81537   0.747   7.768  14.846
93233SOL    HW181538   0.682   7.739   0.034
93233SOL    HW281539   0.718   7.731  14.763
93234SOL     OW81540  13.963  11.329   7.538
93234SOL    HW181541  14.015  11.303   7.462
93234SOL    HW281542  13.889  11.376   7.500
93235SOL     OW81543   6.071   2.407   7.843
93235SOL    HW181544   6.138   2.386   7.908
93235SOL    HW281545   6.033   2.323   7.819
93236SOL     OW81546  14.277   6.273   5.359
93236SOL    HW181547  14.305   6.340   5.297
93236SOL    HW281548  14.218   6.217   5.308
93237SOL     OW81549   7.164   8.596   4.809
93237SOL    HW181550   7.164   8.670   4.869
93237SOL    HW281551   7.257   8.572   4.801
93238SOL     OW81552  11.268   8.369   5.705
93238SOL    HW181553  11.254   8.346   5.613
93238SOL    HW281554  11.355   8.337   5.725
93239SOL     OW81555   6.099   8.790   4.603
93239SOL    HW181556   6.143   8.794   4.688
93239SOL    HW281557   6.048   8.709   4.606
93240SOL     OW81558   9.102   3.596  10.089
93240SOL    HW181559   9.187   3.634  10.069
93240SOL    HW281560   9.086   3.535  10.017
93241SOL     OW81561   7.306   0.376   4.009
93241SOL    HW181562   7.288   0.470   3.998
93241SOL    HW281563   7.328   0.367   4.102
93242SOL     OW81564  11.740  10.973  10.017
93242SOL    HW181565  11.790  10.895   9.994
93242SOL    HW281566  11.710  10.957  10.106
93243SOL     OW81567  13.288   9.354  12.798
93243SOL    HW181568  13.366   9.331  12.747
93243SOL    HW281569  13.283   9.450  12.791
93244SOL     OW81570   1.764   0.867   8.865
93244SOL    HW181571   1.813   0.791   8.832
93244SOL    HW281572   1.672   0.844   8.850
93245SOL     OW81573  14.535   8.934  13.402
93245SOL    HW181574  14.543   8.879  13.480
93245SOL    HW281575  14.467   8.998  13.425
93246SOL     OW81576   2.792   9.781   8.625
93246SOL    HW181577   2.785   9.749   8.715
93246SOL    HW281578   2.796   9.702   8.571
93247SOL     OW81579   1.941   7.918  10.566
93247SOL    HW181580   1.912   8.007  10.582
93247SOL    HW281581   1.879   7.863  10.615
93248SOL     OW81582  12.776   3.645  11.435
93248SOL    HW181583  12.717   3.640  11.510
93248SOL    HW281584  12.764   3.563  11.388
93249SOL     OW81585   8.505  13.016   9.630
93249SOL    HW181586   8.577  13.009   9.567
93249SOL    HW281587   8.548  13.017   9.716
93250SOL     OW81588  11.961  12.634  11.014
93250SOL    HW181589  11.965  12.720  11.057
93250SOL    HW281590  12.030  12.637  10.948
93251SOL     OW81591   7.099   4.807   0.760
93251SOL    HW181592   7.075   4.870   0.692
93251SOL    HW281593   7.135   4.732   0.713
93252SOL     OW81594   9.097   6.703  12.532
93252SOL    HW181595   9.060   6.614  12.530
93252SOL    HW281596   9.027   6.757  12.569
93253SOL     OW81597   0.677   4.139  12.568
93253SOL    HW181598   0.663   4.091  12.649
93253SOL    HW281599   0.590   4.156  12.534
93254SOL     OW81600   4.205   5.221   1.235
93254SOL    HW181601   4.199   5.126   1.228
93254SOL    HW281602   4.250   5.236   1.318
93255SOL     OW81603   9.656  13.223   8.362
93255SOL    HW181604   9.580  13.171   8.390
93255SOL    HW281605   9.708  13.163   8.310
93256SOL     OW81606  10.159   7.786  10.673
93256SOL    HW181607  10.141   7.782  10.767
93256SOL    HW281608  10.203   7.870  10.660
93257SOL     OW81609   0.861   6.299   0.742
93257SOL    HW181610   0.933   6.325   0.799
93257SOL    HW281611   0.782   6.329   0.788
93258SOL     OW81612  11.621   4.176   1.654
93258SOL    HW181613  11.573   4.212   1.729
93258SOL    HW281614  11.711   4.204   1.667
93259SOL     OW81615   1.965   7.294  13.259
93259SOL    HW181616   2.054   7.307  13.225
93259SOL    HW281617   1.953   7.199  13.257
93260SOL     OW81618   5.012   1.752  12.011
93260SOL    HW181619   4.970   1.834  11.985
93260SOL    HW281620   5.053   1.719  11.930
93261SOL     OW81621   8.968   8.966   2.605
93261SOL    HW181622   8.934   8.878   2.619
93261SOL    HW281623   8.891   9.019   2.583
93262SOL     OW81624  11.886   4.697   6.260
93262SOL    HW181625  11.792   4.679   6.270
93262SOL    HW281626  11.890   4.789   6.234
93263SOL     OW81627   9.243   3.063   5.247
93263SOL    HW181628   9.297   3.106   5.314
93263SOL    HW281629   9.217   3.133   5.188
93264SOL     OW81630  13.251   5.928   9.697
93264SOL    HW181631  13.268   5.952   9.788
93264SOL    HW281632  13.159   5.950   9.683
93265SOL     OW81633   6.083   0.755  11.837
93265SOL    HW181634   6.030   0.724  11.910
93265SOL    HW281635   6.047   0.841  11.816
93266SOL     OW81636  10.787  10.497   9.816
93266SOL    HW181637  10.726  10.464   9.750
93266SOL    HW281638  10.863  10.439   9.810
93267SOL     OW81639   8.853   6.732  13.958
93267SOL    HW181640   8.783   6.677  13.921
93267SOL    HW281641   8.835   6.819  13.924
93268SOL     OW81642   6.917   9.482   3.655
93268SOL    HW181643   6.866   9.463   3.734
93268SOL    HW281644   6.928   9.397   3.613
93269SOL     OW81645   5.648   3.081   9.111
93269SOL    HW181646   5.625   3.132   9.033
93269SOL    HW281647   5.732   3.041   9.089
93270SOL     OW81648   9.582   4.204   5.503
93270SOL    HW181649   9.598   4.299   5.508
93270SOL    HW281650   9.619   4.179   5.419
93271SOL     OW81651   5.134   7.325  11.145
93271SOL    HW181652   5.207   7.386  11.138
93271SOL    HW281653   5.155   7.271  11.222
93272SOL     OW81654   6.920  11.216   8.206
93272SOL    HW181655   6.982  11.268   8.155
93272SOL    HW281656   6.971  11.181   8.279
93273SOL     OW81657   6.493  13.310   6.774
93273SOL    HW181658   6.496  13.383   6.713
93273SOL    HW281659   6.401  13.286   6.778
93274SOL     OW81660  13.535  11.065  12.929
93274SOL    HW181661  13.566  10.975  12.945
93274SOL    HW281662  13.450  11.054  12.887
93275SOL     OW81663   6.185   4.525   3.311
93275SOL    HW181664   6.153   4.457   3.252
93275SOL    HW281665   6.118   4.594   3.306
93276SOL     OW81666   7.727   3.873  12.171
93276SOL    HW181667   7.746   3.853  12.079
93276SOL    HW281668   7.704   3.966  12.171
93277SOL     OW81669  14.464   7.222   4.090
93277SOL    HW181670  14.478   7.314   4.068
93277SOL    HW281671  14.457   7.221   4.185
93278SOL     OW81672   4.663   1.888   5.394
93278SOL    HW181673   4.606   1.835   5.339
93278SOL    HW281674   4.657   1.848   5.481
93279SOL     OW81675   5.799  11.717   8.427
93279SOL    HW181676   5.806  11.629   8.464
93279SOL    HW281677   5.872  11.766   8.466
93280SOL     OW81678  13.063  11.441   0.588
93280SOL    HW181679  13.017  11.516   0.551
93280SOL    HW281680  13.152  11.449   0.554
93281SOL     OW81681  12.145  13.409   9.181
93281SOL    HW181682  12.068  13.421   9.236
93281SOL    HW281683  12.170  13.498   9.156
93282SOL     OW81684   0.297   9.589   4.258
93282SOL    HW181685   0.266   9.620   4.343
93282SOL    HW281686   0.388   9.617   4.254
93283SOL     OW81687   1.157   9.381   3.541
93283SOL    HW181688   1.065   9.387   3.514
93283SOL    HW281689   1.155   9.329   3.622
93284SOL     OW81690   4.304   0.194   7.978
93284SOL    HW181691   4.376   0.135   7.955
93284SOL    HW281692   4.230   0.162   7.927
93285SOL     OW81693   9.973  14.078  10.924
93285SOL    HW181694   9.975  13.984  10.942
93285SOL    HW281695  10.026  14.088  10.844
93286SOL     OW81696  11.035  10.606   0.829
93286SOL    HW181697  11.105  10.671   0.820
93286SOL    HW281698  10.984  10.614   0.748
93287SOL     OW81699   5.170   6.850   3.817
93287SOL    HW181700   5.168   6.904   3.738
93287SOL    HW281701   5.168   6.760   3.785
93288SOL     OW81702   5.479   4.807  11.104
93288SOL    HW181703   5.451   4.752  11.177
93288SOL    HW281704   5.574   4.795  11.099
93289SOL     OW81705  12.043  12.561   8.192
93289SOL    HW181706  11.956  12.566   8.232
93289SOL    HW281707  12.026  12.541   8.100
93290SOL     OW81708  13.302   3.292   9.460
93290SOL    HW181709  13.239   3.237   9.413
93290SOL    HW281710  13.294   3.264   9.551
93291SOL     OW81711  11.137   2.950   8.523
93291SOL    HW181712  11.125   2.940   8.618
93291SOL    HW281713  11.107   2.866   8.487
93292SOL     OW81714   0.115  11.442  11.648
93292SOL    HW181715   0.165  11.361  11.656
93292SOL    HW281716   0.108  11.474  11.738
93293SOL     OW81717  13.226  10.117  13.036
93293SOL    HW181718  13.139  10.154  13.028
93293SOL    HW281719  13.271  10.143  12.955
93294SOL     OW81720  13.999  11.731   3.272
93294SOL    HW181721  13.905  11.716   3.283
93294SOL    HW281722  14.040  11.647   3.294
93295SOL     OW81723  11.520   3.845  12.854
93295SOL    HW181724  11.603   3.822  12.896
93295SOL    HW281725  11.484   3.914  12.909
93296SOL     OW81726   4.926   1.475   7.869
93296SOL    HW181727   4.871   1.489   7.792
93296SOL    HW281728   5.015   1.467   7.834
93297SOL     OW81729   5.272   2.983   0.179
93297SOL    HW181730   5.235   2.961   0.264
93297SOL    HW281731   5.338   2.915   0.163
93298SOL     OW81732   2.580   5.453  13.162
93298SOL    HW181733   2.513   5.490  13.220
93298SOL    HW281734   2.573   5.359  13.175
93299SOL     OW81735   4.125   1.343   0.248
93299SOL    HW181736   4.148   1.347   0.341
93299SOL    HW281737   4.080   1.426   0.232
93300SOL     OW81738  10.832   0.330  14.126
93300SOL    HW181739  10.778   0.252  14.114
93300SOL    HW281740  10.829   0.348  14.220
93301SOL     OW81741   5.865   4.071   5.172
93301SOL    HW181742   5.916   3.994   5.196
93301SOL    HW281743   5.788   4.067   5.228
93302SOL     OW81744  10.598  10.083  12.717
93302SOL    HW181745  10.566  10.166  12.754
93302SOL    HW281746  10.529  10.020  12.737
93303SOL     OW81747   5.618  12.095   5.248
93303SOL    HW181748   5.702  12.054   5.225
93303SOL    HW281749   5.563  12.022   5.276
93304SOL     OW81750   9.644   8.218  13.660
93304SOL    HW181751   9.619   8.305  13.630
93304SOL    HW281752   9.597   8.206  13.742
93305SOL     OW81753   9.698   6.032   2.754
93305SOL    HW181754   9.731   6.115   2.789
93305SOL    HW281755   9.689   5.976   2.831
93306SOL     OW81756   6.770   5.368   9.343
93306SOL    HW181757   6.691   5.411   9.375
93306SOL    HW281758   6.838   5.393   9.407
93307SOL     OW81759   8.462   9.470   6.493
93307SOL    HW181760   8.538   9.514   6.456
93307SOL    HW281761   8.410   9.445   6.416
93308SOL     OW81762   9.717   4.437   8.797
93308SOL    HW181763   9.715   4.347   8.828
93308SOL    HW281764   9.810   4.456   8.784
93309SOL     OW81765   4.048   0.634  12.993
93309SOL    HW181766   4.116   0.645  13.060
93309SOL    HW281767   3.969   0.671  13.032
93310SOL     OW81768   6.611  13.054   8.628
93310SOL    HW181769   6.596  12.969   8.588
93310SOL    HW281770   6.594  13.040   8.721
93311SOL     OW81771   5.128   2.082  11.053
93311SOL    HW181772   5.220   2.059  11.067
93311SOL    HW281773   5.104   2.036  10.972
93312SOL     OW81774   6.718   5.316   6.504
93312SOL    HW181775   6.731   5.222   6.522
93312SOL    HW281776   6.635   5.337   6.547
93313SOL     OW81777   7.944  14.615   1.243
93313SOL    HW181778   7.919  14.525   1.221
93313SOL    HW281779   8.007  14.605   1.314
93314SOL     OW81780   2.776   8.017   7.347
93314SOL    HW181781   2.711   7.955   7.315
93314SOL    HW281782   2.739   8.103   7.329
93315SOL     OW81783   4.346  13.777   5.624
93315SOL    HW181784   4.308  13.749   5.707
93315SOL    HW281785   4.285  13.843   5.590
93316SOL     OW81786   2.755  10.436   1.282
93316SOL    HW181787   2.822  10.476   1.337
93316SOL    HW281788   2.795  10.429   1.195
93317SOL     OW81789   8.478  11.643   5.322
93317SOL    HW181790   8.433  11.619   5.241
93317SOL    HW281791   8.529  11.720   5.300
93318SOL     OW81792   0.385  10.461   8.399
93318SOL    HW181793   0.314  10.397   8.397
93318SOL    HW281794   0.393  10.491   8.308
93319SOL     OW81795   7.015  13.228   0.373
93319SOL    HW181796   7.084  13.185   0.422
93319SOL    HW281797   6.950  13.253   0.439
93320SOL     OW81798  13.226  11.898   3.336
93320SOL    HW181799  13.159  11.865   3.396
93320SOL    HW281800  13.178  11.955   3.276
93321SOL     OW81801   6.559  12.145   6.615
93321SOL    HW181802   6.605  12.215   6.569
93321SOL    HW281803   6.502  12.106   6.549
93322SOL     OW81804   8.690  10.087   9.886
93322SOL    HW181805   8.665  10.077   9.978
93322SOL    HW281806   8.785  10.098   9.888
93323SOL     OW81807  14.812  10.874  10.403
93323SOL    HW181808  14.826  10.877  10.498
93323SOL    HW281809   0.015  10.914  10.367
93324SOL     OW81810  11.093   2.320   9.246
93324SOL    HW181811  10.997   2.314   9.242
93324SOL    HW281812  11.119   2.249   9.304
93325SOL     OW81813   9.835  10.328   5.381
93325SOL    HW181814   9.861  10.236   5.389
93325SOL    HW281815   9.869  10.370   5.459
93326SOL     OW81816   5.238   2.139  14.227
93326SOL    HW181817   5.253   2.224  14.268
93326SOL    HW281818   5.310   2.129  14.165
93327SOL     OW81819  11.754  12.790   4.663
93327SOL    HW181820  11.808  12.758   4.735
93327SOL    HW281821  11.746  12.715   4.604
93328SOL     OW81822   3.596   8.870   0.506
93328SOL    HW181823   3.565   8.796   0.453
93328SOL    HW281824   3.615   8.831   0.592
93329SOL     OW81825  12.354   3.270   5.542
93329SOL    HW181826  12.326   3.344   5.595
93329SOL    HW281827  12.275   3.217   5.531
93330SOL     OW81828   3.960  13.293  11.596
93330SOL    HW181829   4.017  13.237  11.648
93330SOL    HW281830   4.008  13.307  11.514
93331SOL     OW81831  10.019  13.847  14.559
93331SOL    HW181832  10.008  13.934  14.522
93331SOL    HW281833   9.968  13.849  14.640
93332SOL     OW81834  12.681   5.638   2.774
93332SOL    HW181835  12.627   5.709   2.808
93332SOL    HW281836  12.663   5.637   2.680
93333SOL     OW81837   5.558   7.414   6.317
93333SOL    HW181838   5.520   7.460   6.242
93333SOL    HW281839   5.513   7.451   6.393
93334SOL     OW81840   9.875  11.684   4.025
93334SOL    HW181841   9.874  11.772   4.063
93334SOL    HW281842   9.789  11.673   3.986
93335SOL     OW81843  12.406   3.490   7.496
93335SOL    HW181844  12.406   3.411   7.441
93335SOL    HW281845  12.492   3.489   7.538
93336SOL     OW81846  10.200  11.800   5.510
93336SOL    HW181847  10.213  11.709   5.486
93336SOL    HW281848  10.259  11.814   5.584
93337SOL     OW81849   8.565  12.754   5.944
93337SOL    HW181850   8.625  12.823   5.973
93337SOL    HW281851   8.621  12.678   5.930
93338SOL     OW81852   8.883   0.235   2.892
93338SOL    HW181853   8.862   0.302   2.957
93338SOL    HW281854   8.978   0.238   2.884
93339SOL     OW81855   4.692  13.126   7.136
93339SOL    HW181856   4.679  13.185   7.062
93339SOL    HW281857   4.786  13.124   7.150
93340SOL     OW81858   4.187  13.968   8.378
93340SOL    HW181859   4.235  13.959   8.461
93340SOL    HW281860   4.123  14.037   8.394
93341SOL     OW81861   6.213   2.882   6.311
93341SOL    HW181862   6.247   2.971   6.303
93341SOL    HW281863   6.285   2.833   6.352
93342SOL     OW81864   5.177  10.121   0.153
93342SOL    HW181865   5.256  10.078   0.187
93342SOL    HW281866   5.210  10.187   0.092
93343SOL     OW81867   6.160   0.049   6.961
93343SOL    HW181868   6.209   0.070   6.882
93343SOL    HW281869   6.071   0.080   6.943
93344SOL     OW81870   2.617  13.551   4.990
93344SOL    HW181871   2.675  13.484   5.026
93344SOL    HW281872   2.533  13.506   4.980
93345SOL     OW81873   6.030   7.010  14.128
93345SOL    HW181874   6.029   7.049  14.216
93345SOL    HW281875   6.097   7.060  14.082
93346SOL     OW81876   9.853   9.156   4.310
93346SOL    HW181877   9.856   9.119   4.222
93346SOL    HW281878   9.831   9.249   4.296
93347SOL     OW81879   0.541  10.232   2.030
93347SOL    HW181880   0.635  10.232   2.043
93347SOL    HW281881   0.504  10.222   2.118
93348SOL     OW81882   6.595   9.810  13.599
93348SOL    HW181883   6.553   9.754  13.664
93348SOL    HW281884   6.540   9.801  13.521
93349SOL     OW81885   4.776  14.725   2.695
93349SOL    HW181886   4.695  14.775   2.683
93349SOL    HW281887   4.844  14.777   2.653
93350SOL     OW81888  12.408   3.001  12.252
93350SOL    HW181889  12.470   2.960  12.191
93350SOL    HW281890  12.458   3.073  12.291
93351SOL     OW81891   6.732   4.720   4.289
93351SOL    HW181892   6.648   4.689   4.323
93351SOL    HW281893   6.727   4.815   4.295
93352SOL     OW81894  11.996   6.660   1.406
93352SOL    HW181895  11.905   6.645   1.430
93352SOL    HW281896  11.992   6.710   1.325
93353SOL     OW81897  14.525   9.533   0.419
93353SOL    HW181898  14.591   9.496   0.479
93353SOL    HW281899  14.554   9.623   0.403
93354SOL     OW81900  13.622   5.487   3.268
93354SOL    HW181901  13.564   5.412   3.272
93354SOL    HW281902  13.708   5.451   3.250
93355SOL     OW81903  13.140   4.346   7.517
93355SOL    HW181904  13.109   4.272   7.465
93355SOL    HW281905  13.128   4.319   7.608
93356SOL     OW81906   3.966   1.115   7.797
93356SOL    HW181907   4.002   1.202   7.779
93356SOL    HW281908   3.931   1.122   7.886
93357SOL     OW81909  13.478  11.332  13.009
93357SOL    HW181910  13.490  11.317  12.916
93357SOL    HW281911  13.419  11.262  13.037
93358SOL     OW81912  13.561   3.268  14.448
93358SOL    HW181913  13.477   3.295  14.410
93358SOL    HW281914  13.627   3.303  14.389
93359SOL     OW81915  12.752   0.738   4.708
93359SOL    HW181916  12.824   0.685   4.740
93359SOL    HW281917  12.795   0.811   4.662
93360SOL     OW81918   9.632   0.803   0.514
93360SOL    HW181919   9.549   0.770   0.479
93360SOL    HW281920   9.623   0.798   0.609
93361SOL     OW81921   4.234   7.945  12.639
93361SOL    HW181922   4.203   7.995  12.563
93361SOL    HW281923   4.328   7.939  12.626
93362SOL     OW81924   0.353   2.286   0.843
93362SOL    HW181925   0.258   2.299   0.849
93362SOL    HW281926   0.382   2.352   0.781
93363SOL     OW81927  14.285   4.618   8.610
93363SOL    HW181928  14.231   4.695   8.597
93363SOL    HW281929  14.374   4.648   8.591
93364SOL     OW81930   3.958   7.813   1.566
93364SOL    HW181931   3.865   7.815   1.588
93364SOL    HW281932   3.972   7.890   1.512
93365SOL     OW81933   6.101  10.617   1.428
93365SOL    HW181934   6.111  10.580   1.515
93365SOL    HW281935   6.016  10.586   1.398
93366SOL     OW81936   2.771  13.993  13.188
93366SOL    HW181937   2.789  13.926  13.254
93366SOL    HW281938   2.728  13.945  13.117
93367SOL     OW81939   7.890   1.481   4.799
93367SOL    HW181940   7.831   1.556   4.788
93367SOL    HW281941   7.937   1.500   4.881
93368SOL     OW81942  13.186  14.100   5.007
93368SOL    HW181943  13.147  14.149   5.079
93368SOL    HW281944  13.141  14.131   4.929
93369SOL     OW81945   1.552  12.658   2.640
93369SOL    HW181946   1.467  12.613   2.634
93369SOL    HW281947   1.542  12.717   2.714
93370SOL     OW81948   6.571  11.049   1.129
93370SOL    HW181949   6.638  11.031   1.195
93370SOL    HW281950   6.576  10.974   1.070
93371SOL     OW81951   9.358   0.394   7.352
93371SOL    HW181952   9.424   0.395   7.421
93371SOL    HW281953   9.328   0.485   7.346
93372SOL     OW81954   8.400   0.376   3.192
93372SOL    HW181955   8.392   0.287   3.158
93372SOL    HW281956   8.337   0.427   3.142
93373SOL     OW81957   2.603  13.628  11.244
93373SOL    HW181958   2.556  13.707  11.269
93373SOL    HW281959   2.689  13.636  11.285
93374SOL     OW81960   8.372  13.171   6.453
93374SOL    HW181961   8.444  13.207   6.401
93374SOL    HW281962   8.299  13.231   6.439
93375SOL     OW81963   2.473   1.293   7.603
93375SOL    HW181964   2.480   1.199   7.620
93375SOL    HW281965   2.381   1.313   7.618
93376SOL     OW81966  10.609   0.619  13.970
93376SOL    HW181967  10.619   0.700  13.919
93376SOL    HW281968  10.659   0.635  14.050
93377SOL     OW81969   9.464   4.090   1.929
93377SOL    HW181970   9.479   4.006   1.887
93377SOL    HW281971   9.379   4.119   1.895
93378SOL     OW81972   8.627   5.185   6.209
93378SOL    HW181973   8.611   5.278   6.228
93378SOL    HW281974   8.596   5.139   6.287
93379SOL     OW81975   1.847   1.655   4.325
93379SOL    HW181976   1.878   1.739   4.358
93379SOL    HW281977   1.906   1.635   4.252
93380SOL     OW81978   9.123  10.460   1.411
93380SOL    HW181979   9.033  10.491   1.421
93380SOL    HW281980   9.169  10.498   1.486
93381SOL     OW81981   8.587  11.532   8.550
93381SOL    HW181982   8.564  11.605   8.492
93381SOL    HW281983   8.588  11.455   8.493
93382SOL     OW81984   2.039   9.298   2.674
93382SOL    HW181985   1.985   9.310   2.595
93382SOL    HW281986   2.126   9.277   2.640
93383SOL     OW81987   3.620   4.647   5.566
93383SOL    HW181988   3.526   4.653   5.580
93383SOL    HW281989   3.649   4.581   5.628
93384SOL     OW81990   0.497   3.905  14.275
93384SOL    HW181991   0.423   3.878  14.329
93384SOL    HW281992   0.494   4.001  14.277
93385SOL     OW81993   7.123   4.549  11.203
93385SOL    HW181994   7.182   4.480  11.234
93385SOL    HW281995   7.068   4.507  11.137
93386SOL     OW81996   6.430  13.125   0.765
93386SOL    HW181997   6.421  13.061   0.835
93386SOL    HW281998   6.418  13.210   0.809
93387SOL     OW81999   2.305  10.816  14.397
93387SOL    HW182000   2.357  10.784  14.323
93387SOL    HW282001   2.214  10.806  14.369
93388SOL     OW82002   0.882   6.549  13.940
93388SOL    HW182003   0.916   6.620  13.994
93388SOL    HW282004   0.799   6.525  13.982
93389SOL     OW82005  11.618   6.856   9.678
93389SOL    HW182006  11.524   6.874   9.685
93389SOL    HW282007  11.657   6.942   9.662
93390SOL     OW82008  10.082  13.491  10.598
93390SOL    HW182009  10.015  13.548  10.636
93390SOL    HW282010  10.116  13.441  10.671
93391SOL     OW82011   3.621   2.947  14.463
93391SOL    HW182012   3.562   2.885  14.506
93391SOL    HW282013   3.708   2.926  14.498
93392SOL     OW82014   4.562   0.077  11.212
93392SOL    HW182015   4.514   0.152  11.246
93392SOL    HW282016   4.594   0.105  11.126
93393SOL     OW82017   8.700   9.712   8.165
93393SOL    HW182018   8.633   9.779   8.150
93393SOL    HW282019   8.710   9.709   8.260
93394SOL     OW82020   8.831   5.597   3.970
93394SOL    HW182021   8.812   5.690   3.971
93394SOL    HW282022   8.890   5.585   3.896
93395SOL     OW82023   6.621  11.198  11.938
93395SOL    HW182024   6.566  11.134  11.893
93395SOL    HW282025   6.560  11.266  11.967
93396SOL     OW82026   1.053   3.107   3.316
93396SOL    HW182027   1.018   3.128   3.402
93396SOL    HW282028   1.122   3.042   3.333
93397SOL     OW82029  11.585   8.287   0.271
93397SOL    HW182030  11.586   8.192   0.255
93397SOL    HW282031  11.516   8.299   0.336
93398SOL     OW82032   9.719  14.682   3.245
93398SOL    HW182033   9.717  14.658   3.338
93398SOL    HW282034   9.677  14.768   3.243
93399SOL     OW82035   7.188   7.644   5.310
93399SOL    HW182036   7.150   7.565   5.348
93399SOL    HW282037   7.226   7.615   5.227
93400SOL     OW82038   5.907  14.215   7.188
93400SOL    HW182039   5.979  14.250   7.240
93400SOL    HW282040   5.904  14.270   7.110
93401SOL     OW82041  12.676   1.732   9.474
93401SOL    HW182042  12.711   1.772   9.553
93401SOL    HW282043  12.600   1.683   9.503
93402SOL     OW82044   4.750   7.028   2.858
93402SOL    HW182045   4.727   6.943   2.895
93402SOL    HW282046   4.678   7.048   2.798
93403SOL     OW82047   1.276  12.310  14.146
93403SOL    HW182048   1.236  12.383  14.194
93403SOL    HW282049   1.219  12.298  14.070
93404SOL     OW82050   7.667   7.980  11.022
93404SOL    HW182051   7.657   7.952  10.931
93404SOL    HW282052   7.655   8.075  11.021
93405SOL     OW82053   9.016  13.341  14.842
93405SOL    HW182054   8.982  13.324  14.754
93405SOL    HW282055   9.100  13.295  14.845
93406SOL     OW82056   5.470   2.142   8.405
93406SOL    HW182057   5.528   2.105   8.472
93406SOL    HW282058   5.513   2.122   8.322
93407SOL     OW82059  14.425   8.051  10.839
93407SOL    HW182060  14.464   8.010  10.916
93407SOL    HW282061  14.499   8.089  10.792
93408SOL     OW82062   0.176   2.219  10.781
93408SOL    HW182063   0.169   2.183  10.693
93408SOL    HW282064   0.212   2.307  10.769
93409SOL     OW82065   3.748   0.960   6.165
93409SOL    HW182066   3.730   0.954   6.071
93409SOL    HW282067   3.695   1.034   6.195
93410SOL     OW82068   1.298   6.558   5.453
93410SOL    HW182069   1.283   6.597   5.367
93410SOL    HW282070   1.345   6.626   5.503
93411SOL     OW82071   2.152   1.086   1.309
93411SOL    HW182072   2.063   1.118   1.293
93411SOL    HW282073   2.203   1.166   1.325
93412SOL     OW82074   8.530   5.107   0.316
93412SOL    HW182075   8.604   5.166   0.327
93412SOL    HW282076   8.569   5.024   0.289
93413SOL     OW82077  10.248  11.871  12.543
93413SOL    HW182078  10.190  11.907  12.476
93413SOL    HW282079  10.303  11.944  12.569
93414SOL     OW82080   9.707  11.697  12.167
93414SOL    HW182081   9.712  11.767  12.232
93414SOL    HW282082   9.648  11.632  12.206
93415SOL     OW82083  11.693   2.520   7.453
93415SOL    HW182084  11.721   2.559   7.371
93415SOL    HW282085  11.646   2.440   7.428
93416SOL     OW82086   4.915   3.940   6.205
93416SOL    HW182087   4.837   3.898   6.168
93416SOL    HW282088   4.881   3.999   6.272
93417SOL     OW82089   2.238  14.044  13.932
93417SOL    HW182090   2.277  13.976  13.878
93417SOL    HW282091   2.161  14.072  13.882
93418SOL     OW82092   0.728  12.818   1.558
93418SOL    HW182093   0.703  12.738   1.511
93418SOL    HW282094   0.803  12.792   1.611
93419SOL     OW82095   4.660   3.895   2.328
93419SOL    HW182096   4.691   3.881   2.239
93419SOL    HW282097   4.603   3.820   2.346
93420SOL     OW82098   6.956   3.759   6.541
93420SOL    HW182099   6.920   3.764   6.452
93420SOL    HW282100   6.941   3.668   6.567
93421SOL     OW82101   1.787   3.118   7.636
93421SOL    HW182102   1.715   3.084   7.689
93421SOL    HW282103   1.784   3.213   7.649
93422SOL     OW82104  14.830   7.604   1.058
93422SOL    HW182105  14.754   7.551   1.033
93422SOL    HW282106  14.793   7.689   1.082
93423SOL     OW82107   1.895   2.066   6.909
93423SOL    HW182108   1.803   2.090   6.913
93423SOL    HW282109   1.942   2.147   6.928
93424SOL     OW82110   3.554   8.765   8.702
93424SOL    HW182111   3.645   8.746   8.724
93424SOL    HW282112   3.532   8.703   8.633
93425SOL     OW82113  13.407   9.030  14.476
93425SOL    HW182114  13.425   9.018  14.569
93425SOL    HW282115  13.337   9.096  14.473
93426SOL     OW82116   2.667   7.035   5.622
93426SOL    HW182117   2.672   7.061   5.530
93426SOL    HW282118   2.577   7.054   5.648
93427SOL     OW82119   2.864   0.620   2.095
93427SOL    HW182120   2.769   0.604   2.098
93427SOL    HW282121   2.889   0.597   2.006
93428SOL     OW82122   8.775   1.517   1.018
93428SOL    HW182123   8.827   1.441   1.043
93428SOL    HW282124   8.685   1.491   1.034
93429SOL     OW82125  13.457  12.310   6.459
93429SOL    HW182126  13.463  12.258   6.379
93429SOL    HW282127  13.532  12.370   6.454
93430SOL     OW82128   2.525  13.048   0.394
93430SOL    HW182129   2.486  12.988   0.458
93430SOL    HW282130   2.542  13.128   0.444
93431SOL     OW82131  13.121   8.370   6.625
93431SOL    HW182132  13.126   8.296   6.566
93431SOL    HW282133  13.212   8.396   6.640
93432SOL     OW82134  12.182  11.211   2.470
93432SOL    HW182135  12.231  11.226   2.551
93432SOL    HW282136  12.147  11.122   2.479
93433SOL     OW82137   8.868   9.232  13.050
93433SOL    HW182138   8.931   9.291  13.008
93433SOL    HW282139   8.810   9.204  12.979
93434SOL     OW82140  13.565  10.797  12.958
93434SOL    HW182141  13.523  10.750  12.886
93434SOL    HW282142  13.655  10.764  12.959
93435SOL     OW82143   0.489   2.347   6.773
93435SOL    HW182144   0.503   2.291   6.698
93435SOL    HW282145   0.407   2.393   6.754
93436SOL     OW82146   6.202   2.966   2.096
93436SOL    HW182147   6.257   3.033   2.055
93436SOL    HW282148   6.152   2.928   2.024
93437SOL     OW82149   8.761   5.455   5.060
93437SOL    HW182150   8.756   5.530   5.119
93437SOL    HW282151   8.854   5.449   5.036
93438SOL     OW82152  11.976   9.634  10.307
93438SOL    HW182153  11.918   9.558  10.305
93438SOL    HW282154  12.019   9.630  10.392
93439SOL     OW82155  12.656   7.455   5.411
93439SOL    HW182156  12.696   7.541   5.396
93439SOL    HW282157  12.595   7.444   5.338
93440SOL     OW82158  12.919   1.949   1.896
93440SOL    HW182159  12.845   1.888   1.898
93440SOL    HW282160  12.984   1.910   1.956
93441SOL     OW82161   0.688   0.648   9.481
93441SOL    HW182162   0.720   0.561   9.457
93441SOL    HW282163   0.701   0.654   9.575
93442SOL     OW82164   3.928  12.657   8.847
93442SOL    HW182165   3.974  12.740   8.829
93442SOL    HW282166   3.998  12.592   8.856
93443SOL     OW82167   2.416   2.102   6.215
93443SOL    HW182168   2.362   2.105   6.136
93443SOL    HW282169   2.481   2.033   6.198
93444SOL     OW82170   6.860  11.080   9.248
93444SOL    HW182171   6.847  11.173   9.230
93444SOL    HW282172   6.955  11.071   9.263
93445SOL     OW82173   7.501  10.514  12.589
93445SOL    HW182174   7.560  10.443  12.612
93445SOL    HW282175   7.444  10.476  12.522
93446SOL     OW82176   9.432   9.751   3.661
93446SOL    HW182177   9.345   9.730   3.696
93446SOL    HW282178   9.472   9.806   3.728
93447SOL     OW82179  13.343   9.298   7.460
93447SOL    HW182180  13.376   9.275   7.547
93447SOL    HW282181  13.404   9.254   7.399
93448SOL     OW82182  12.425  12.116  12.517
93448SOL    HW182183  12.424  12.094  12.424
93448SOL    HW282184  12.452  12.208  12.519
93449SOL     OW82185   9.945   3.827   6.792
93449SOL    HW182186  10.010   3.819   6.861
93449SOL    HW282187   9.960   3.914   6.755
93450SOL     OW82188   8.778   7.717   2.405
93450SOL    HW182189   8.742   7.643   2.454
93450SOL    HW282190   8.852   7.681   2.357
93451SOL     OW82191   8.328   5.453   7.392
93451SOL    HW182192   8.395   5.446   7.323
93451SOL    HW282193   8.270   5.523   7.362
93452SOL     OW82194   6.799   2.509   1.771
93452SOL    HW182195   6.894   2.522   1.766
93452SOL    HW282196   6.779   2.450   1.699
93453SOL     OW82197  11.921   3.286  13.751
93453SOL    HW182198  11.881   3.353  13.808
93453SOL    HW282199  12.001   3.328  13.718
93454SOL     OW82200   4.910  13.976  14.438
93454SOL    HW182201   5.005  13.973  14.451
93454SOL    HW282202   4.891  13.897  14.386
93455SOL     OW82203   3.727   6.123   1.560
93455SOL    HW182204   3.731   6.210   1.521
93455SOL    HW282205   3.706   6.065   1.487
93456SOL     OW82206   5.781  10.569   4.538
93456SOL    HW182207   5.858  10.520   4.511
93456SOL    HW282208   5.795  10.657   4.504
93457SOL     OW82209   7.693  11.999   4.035
93457SOL    HW182210   7.632  11.928   4.013
93457SOL    HW282211   7.641  12.059   4.090
93458SOL     OW82212  11.392   9.699   1.570
93458SOL    HW182213  11.441   9.774   1.606
93458SOL    HW282214  11.320   9.739   1.522
93459SOL     OW82215  13.153   1.502   0.287
93459SOL    HW182216  13.236   1.547   0.271
93459SOL    HW282217  13.122   1.478   0.199
93460SOL     OW82218  12.717   3.616   9.015
93460SOL    HW182219  12.772   3.641   8.941
93460SOL    HW282220  12.770   3.635   9.092
93461SOL     OW82221   2.411   4.136   8.446
93461SOL    HW182222   2.386   4.092   8.365
93461SOL    HW282223   2.398   4.229   8.428
93462SOL     OW82224   0.040   4.568   6.492
93462SOL    HW182225  14.825   4.583   6.516
93462SOL    HW282226   0.058   4.631   6.422
93463SOL     OW82227   6.215   3.463   6.665
93463SOL    HW182228   6.134   3.423   6.696
93463SOL    HW282229   6.221   3.437   6.573
93464SOL     OW82230   3.616   3.361   3.043
93464SOL    HW182231   3.521   3.368   3.039
93464SOL    HW282232   3.639   3.394   3.130
93465SOL     OW82233  11.122   4.921   5.725
93465SOL    HW182234  11.203   4.881   5.692
93465SOL    HW282235  11.133   4.921   5.820
93466SOL     OW82236  14.640   8.707   2.568
93466SOL    HW182237  14.572   8.772   2.549
93466SOL    HW282238  14.636   8.697   2.663
93467SOL     OW82239   1.856  11.247  10.017
93467SOL    HW182240   1.810  11.281  10.094
93467SOL    HW282241   1.947  11.237  10.046
93468SOL     OW82242   1.752   5.405   5.375
93468SOL    HW182243   1.833   5.399   5.426
93468SOL    HW282244   1.782   5.408   5.284
93469SOL     OW82245   2.261   5.026   1.406
93469SOL    HW182246   2.276   5.026   1.311
93469SOL    HW282247   2.331   5.081   1.441
93470SOL     OW82248  13.062   1.871  11.473
93470SOL    HW182249  13.108   1.935  11.418
93470SOL    HW282250  13.020   1.922  11.541
93471SOL     OW82251  10.468   2.674   8.589
93471SOL    HW182252  10.542   2.714   8.634
93471SOL    HW282253  10.502   2.592   8.555
93472SOL     OW82254   5.064   0.654   0.848
93472SOL    HW182255   5.133   0.707   0.808
93472SOL    HW282256   5.010   0.625   0.774
93473SOL     OW82257   0.253  12.509   3.709
93473SOL    HW182258   0.260  12.423   3.751
93473SOL    HW282259   0.183  12.499   3.645
93474SOL     OW82260  10.348   5.309   7.598
93474SOL    HW182261  10.263   5.273   7.572
93474SOL    HW282262  10.406   5.289   7.525
93475SOL     OW82263  11.901   1.773  11.102
93475SOL    HW182264  11.898   1.707  11.171
93475SOL    HW282265  11.820   1.760  11.052
93476SOL     OW82266   5.891   5.873  11.030
93476SOL    HW182267   5.918   5.801  11.087
93476SOL    HW282268   5.858   5.830  10.951
93477SOL     OW82269  14.598  14.485   0.373
93477SOL    HW182270  14.656  14.411   0.394
93477SOL    HW282271  14.658  14.556   0.348
93478SOL     OW82272  13.084   4.955   0.695
93478SOL    HW182273  13.116   4.911   0.616
93478SOL    HW282274  12.995   4.922   0.706
93479SOL     OW82275   9.607   6.827   6.717
93479SOL    HW182276   9.556   6.902   6.686
93479SOL    HW282277   9.644   6.856   6.800
93480SOL     OW82278  14.576  10.979   3.759
93480SOL    HW182279  14.609  11.032   3.832
93480SOL    HW282280  14.614  11.019   3.681
93481SOL     OW82281   2.174   9.774  12.070
93481SOL    HW182282   2.100   9.778  12.009
93481SOL    HW282283   2.148   9.707  12.134
93482SOL     OW82284   2.174   4.755   0.342
93482SOL    HW182285   2.142   4.756   0.432
93482SOL    HW282286   2.269   4.769   0.349
93483SOL     OW82287  12.400  10.061  13.769
93483SOL    HW182288  12.465   9.999  13.735
93483SOL    HW282289  12.437  10.091  13.852
93484SOL     OW82290  11.672   4.894   0.832
93484SOL    HW182291  11.652   4.888   0.925
93484SOL    HW282292  11.586   4.901   0.789
93485SOL     OW82293   5.580   0.889  10.503
93485SOL    HW182294   5.649   0.827  10.480
93485SOL    HW282295   5.502   0.835  10.517
93486SOL     OW82296   5.353   7.949   3.589
93486SOL    HW182297   5.376   7.871   3.538
93486SOL    HW282298   5.416   8.015   3.562
93487SOL     OW82299  10.186  13.754  10.502
93487SOL    HW182300  10.236  13.679  10.469
93487SOL    HW282301  10.103  13.716  10.532
93488SOL     OW82302   1.840  13.474   8.215
93488SOL    HW182303   1.836  13.378   8.214
93488SOL    HW282304   1.749  13.502   8.218
93489SOL     OW82305   3.756  12.634   1.354
93489SOL    HW182306   3.660  12.630   1.355
93489SOL    HW282307   3.784  12.555   1.401
93490SOL     OW82308   5.500   4.126   6.111
93490SOL    HW182309   5.405   4.121   6.121
93490SOL    HW282310   5.526   4.203   6.161
93491SOL     OW82311   3.173   4.006  12.660
93491SOL    HW182312   3.127   4.047  12.733
93491SOL    HW282313   3.245   4.067  12.640
93492SOL     OW82314   0.767  14.476  14.776
93492SOL    HW182315   0.823  14.554  14.777
93492SOL    HW282316   0.809  14.417  14.713
93493SOL     OW82317   1.200   8.037  13.486
93493SOL    HW182318   1.153   8.024  13.404
93493SOL    HW282319   1.133   8.028  13.554
93494SOL     OW82320  10.267   4.426   9.804
93494SOL    HW182321  10.305   4.366   9.867
93494SOL    HW282322  10.223   4.493   9.857
93495SOL     OW82323   8.239  13.526   5.087
93495SOL    HW182324   8.307  13.547   5.022
93495SOL    HW282325   8.158  13.557   5.047
93496SOL     OW82326  13.145   9.475   8.558
93496SOL    HW182327  13.192   9.557   8.550
93496SOL    HW282328  13.064   9.497   8.605
93497SOL     OW82329   2.904   6.823   9.904
93497SOL    HW182330   2.995   6.808   9.880
93497SOL    HW282331   2.871   6.885   9.840
93498SOL     OW82332   8.314  10.600   4.886
93498SOL    HW182333   8.336  10.692   4.874
93498SOL    HW282334   8.289  10.569   4.799
93499SOL     OW82335   4.527   1.468   2.663
93499SOL    HW182336   4.556   1.486   2.752
93499SOL    HW282337   4.479   1.386   2.669
93500SOL     OW82338   6.761   6.228   8.533
93500SOL    HW182339   6.814   6.148   8.524
93500SOL    HW282340   6.821   6.299   8.510
93501SOL     OW82341   1.312  12.589  13.251
93501SOL    HW182342   1.373  12.532  13.205
93501SOL    HW282343   1.321  12.674  13.209
93502SOL     OW82344   6.696   9.540   1.516
93502SOL    HW182345   6.753   9.561   1.591
93502SOL    HW282346   6.756   9.537   1.441
93503SOL     OW82347  13.528  12.845   8.524
93503SOL    HW182348  13.530  12.927   8.574
93503SOL    HW282349  13.580  12.784   8.576
93504SOL     OW82350  12.233   0.434   8.347
93504SOL    HW182351  12.246   0.356   8.401
93504SOL    HW282352  12.321   0.469   8.334
93505SOL     OW82353   6.387   2.478  11.759
93505SOL    HW182354   6.465   2.486  11.705
93505SOL    HW282355   6.316   2.460  11.697
93506SOL     OW82356   0.445   5.297   9.310
93506SOL    HW182357   0.484   5.342   9.236
93506SOL    HW282358   0.416   5.368   9.368
93507SOL     OW82359   5.895   2.643  11.429
93507SOL    HW182360   5.846   2.560  11.434
93507SOL    HW282361   5.874   2.678  11.343
93508SOL     OW82362   2.556   7.061   8.145
93508SOL    HW182363   2.534   6.978   8.187
93508SOL    HW282364   2.575   7.039   8.054
93509SOL     OW82365   0.538   7.662  14.171
93509SOL    HW182366   0.495   7.746  14.185
93509SOL    HW282367   0.625   7.673  14.208
93510SOL     OW82368   5.562  13.906   8.386
93510SOL    HW182369   5.484  13.943   8.345
93510SOL    HW282370   5.615  13.875   8.313
93511SOL     OW82371   9.254   1.936   4.300
93511SOL    HW182372   9.217   1.870   4.358
93511SOL    HW282373   9.336   1.898   4.270
93512SOL     OW82374   0.319   4.034  14.044
93512SOL    HW182375   0.249   4.017  13.981
93512SOL    HW282376   0.278   4.024  14.130
93513SOL     OW82377   7.124  10.555  14.550
93513SOL    HW182378   7.067  10.544  14.626
93513SOL    HW282379   7.084  10.500  14.482
93514SOL     OW82380   3.183   6.311  13.948
93514SOL    HW182381   3.106   6.321  13.891
93514SOL    HW282382   3.194   6.397  13.989
93515SOL     OW82383  12.166   2.157   9.639
93515SOL    HW182384  12.117   2.173   9.720
93515SOL    HW282385  12.130   2.220   9.577
93516SOL     OW82386   7.353   6.847   9.194
93516SOL    HW182387   7.316   6.880   9.112
93516SOL    HW282388   7.381   6.926   9.240
93517SOL     OW82389   3.584  13.491   9.463
93517SOL    HW182390   3.671  13.497   9.503
93517SOL    HW282391   3.584  13.556   9.394
93518SOL     OW82392   6.520  14.778   0.206
93518SOL    HW182393   6.467  14.851   0.239
93518SOL    HW282394   6.558  14.811   0.125
93519SOL     OW82395   0.671   9.819  11.506
93519SOL    HW182396   0.736   9.751  11.489
93519SOL    HW282397   0.669   9.872  11.427
93520SOL     OW82398  13.235   2.688  13.291
93520SOL    HW182399  13.172   2.681  13.219
93520SOL    HW282400  13.248   2.598  13.320
93521SOL     OW82401  14.777   3.948   3.322
93521SOL    HW182402  14.749   3.998   3.245
93521SOL    HW282403  14.863   3.913   3.298
93522SOL     OW82404   2.354   2.583   8.204
93522SOL    HW182405   2.335   2.652   8.267
93522SOL    HW282406   2.398   2.628   8.132
93523SOL     OW82407   8.061   9.006   0.967
93523SOL    HW182408   7.975   9.017   1.006
93523SOL    HW282409   8.103   9.092   0.976
93524SOL     OW82410   1.769   5.574  12.782
93524SOL    HW182411   1.676   5.576  12.763
93524SOL    HW282412   1.794   5.666  12.791
93525SOL     OW82413  13.050   9.806  12.733
93525SOL    HW182414  12.990   9.743  12.772
93525SOL    HW282415  13.021   9.814  12.642
93526SOL     OW82416   9.405  14.426   9.280
93526SOL    HW182417   9.443  14.354   9.330
93526SOL    HW282418   9.359  14.479   9.345
93527SOL     OW82419   0.987  13.057   9.591
93527SOL    HW182420   1.058  13.106   9.548
93527SOL    HW282421   1.031  13.006   9.659
93528SOL     OW82422  11.643   5.817   3.648
93528SOL    HW182423  11.555   5.805   3.612
93528SOL    HW282424  11.673   5.729   3.668
93529SOL     OW82425  11.064   9.383   0.360
93529SOL    HW182426  11.107   9.346   0.283
93529SOL    HW282427  11.054   9.476   0.339
93530SOL     OW82428   6.860   9.173   8.156
93530SOL    HW182429   6.856   9.111   8.229
93530SOL    HW282430   6.832   9.257   8.194
93531SOL     OW82431   7.617   2.997   7.611
93531SOL    HW182432   7.631   2.921   7.554
93531SOL    HW282433   7.605   2.960   7.698
93532SOL     OW82434  13.800   0.396   4.181
93532SOL    HW182435  13.786   0.361   4.093
93532SOL    HW282436  13.889   0.367   4.204
93533SOL     OW82437  10.607  13.281   8.453
93533SOL    HW182438  10.630  13.220   8.383
93533SOL    HW282439  10.533  13.331   8.419
93534SOL     OW82440   3.829   1.575   1.601
93534SOL    HW182441   3.879   1.532   1.532
93534SOL    HW282442   3.866   1.663   1.607
93535SOL     OW82443   4.623   3.469   6.463
93535SOL    HW182444   4.676   3.406   6.511
93535SOL    HW282445   4.533   3.454   6.493
93536SOL     OW82446   7.829   0.597   3.434
93536SOL    HW182447   7.885   0.592   3.512
93536SOL    HW282448   7.803   0.507   3.417
93537SOL     OW82449  11.653  13.374   7.276
93537SOL    HW182450  11.639  13.279   7.271
93537SOL    HW282451  11.737  13.383   7.321
93538SOL     OW82452  12.374   4.707   7.139
93538SOL    HW182453  12.470   4.706   7.149
93538SOL    HW282454  12.341   4.710   7.229
93539SOL     OW82455  14.765   6.245  10.226
93539SOL    HW182456  14.832   6.192  10.182
93539SOL    HW282457  14.683   6.200  10.207
93540SOL     OW82458   2.101   5.980   8.006
93540SOL    HW182459   2.018   5.981   7.957
93540SOL    HW282460   2.099   5.900   8.057
93541SOL     OW82461   7.568   8.902  11.901
93541SOL    HW182462   7.525   8.847  11.966
93541SOL    HW282463   7.650   8.858  11.883
93542SOL     OW82464   8.043  11.394   5.724
93542SOL    HW182465   8.053  11.328   5.794
93542SOL    HW282466   7.977  11.356   5.666
93543SOL     OW82467   9.060   8.914  10.074
93543SOL    HW182468   8.974   8.907  10.116
93543SOL    HW282469   9.050   8.866   9.992
93544SOL     OW82470   8.703   9.454  11.221
93544SOL    HW182471   8.781   9.496  11.257
93544SOL    HW282472   8.696   9.489  11.132
93545SOL     OW82473  11.872   4.897  12.226
93545SOL    HW182474  11.952   4.874  12.179
93545SOL    HW282475  11.844   4.980  12.188
93546SOL     OW82476   7.565   4.808  12.824
93546SOL    HW182477   7.516   4.872  12.877
93546SOL    HW282478   7.651   4.848  12.813
93547SOL     OW82479  11.926   2.390  14.542
93547SOL    HW182480  11.887   2.422  14.461
93547SOL    HW282481  12.000   2.337  14.513
93548SOL     OW82482   6.873   4.679   8.971
93548SOL    HW182483   6.845   4.760   9.014
93548SOL    HW282484   6.965   4.695   8.949
93549SOL     OW82485   7.963   3.943   9.359
93549SOL    HW182486   7.930   3.905   9.441
93549SOL    HW282487   7.894   4.004   9.332
93550SOL     OW82488   2.573   1.778   2.010
93550SOL    HW182489   2.569   1.844   2.079
93550SOL    HW282490   2.513   1.810   1.942
93551SOL     OW82491   3.915  13.786  13.663
93551SOL    HW182492   3.992  13.784  13.607
93551SOL    HW282493   3.928  13.714  13.725
93552SOL     OW82494   4.548  12.929   9.290
93552SOL    HW182495   4.615  12.983   9.248
93552SOL    HW282496   4.558  12.843   9.249
93553SOL     OW82497  13.325  11.782   1.246
93553SOL    HW182498  13.334  11.688   1.228
93553SOL    HW282499  13.292  11.820   1.165
93554SOL     OW82500   7.022   2.049   0.782
93554SOL    HW182501   7.053   2.118   0.723
93554SOL    HW282502   6.994   1.978   0.724
93555SOL     OW82503   2.438   3.194  12.682
93555SOL    HW182504   2.350   3.210  12.716
93555SOL    HW282505   2.437   3.233  12.594
93556SOL     OW82506  14.165   7.296   0.189
93556SOL    HW182507  14.155   7.376   0.240
93556SOL    HW282508  14.190   7.230   0.253
93557SOL     OW82509  10.176   2.736  13.093
93557SOL    HW182510  10.171   2.832  13.093
93557SOL    HW282511  10.171   2.711  13.001
93558SOL     OW82512  10.714  10.633   1.555
93558SOL    HW182513  10.785  10.589   1.508
93558SOL    HW282514  10.639  10.574   1.546
93559SOL     OW82515   3.972   1.185  11.350
93559SOL    HW182516   3.966   1.211  11.442
93559SOL    HW282517   3.885   1.201  11.315
93560SOL     OW82518   7.164   7.632   1.148
93560SOL    HW182519   7.194   7.585   1.226
93560SOL    HW282520   7.160   7.565   1.080
93561SOL     OW82521   6.025   1.750   4.782
93561SOL    HW182522   5.961   1.774   4.715
93561SOL    HW282523   5.987   1.784   4.864
93562SOL     OW82524   2.123   0.593  14.870
93562SOL    HW182525   2.057   0.536   0.032
93562SOL    HW282526   2.137   0.661   0.059
93563SOL     OW82527   1.844  14.813   0.991
93563SOL    HW182528   1.835  14.722   1.021
93563SOL    HW282529   1.921  14.846   1.038
93564SOL     OW82530   6.416   0.501   5.917
93564SOL    HW182531   6.419   0.564   5.989
93564SOL    HW282532   6.501   0.510   5.874
93565SOL     OW82533   0.761  11.861   4.772
93565SOL    HW182534   0.666  11.857   4.761
93565SOL    HW282535   0.795  11.787   4.721
93566SOL     OW82536   9.189   2.468   4.367
93566SOL    HW182537   9.228   2.496   4.450
93566SOL    HW282538   9.261   2.467   4.305
93567SOL     OW82539   8.747   6.911   3.880
93567SOL    HW182540   8.803   6.966   3.935
93567SOL    HW282541   8.724   6.836   3.935
93568SOL     OW82542  14.766   7.692  12.830
93568SOL    HW182543  14.754   7.726  12.919
93568SOL    HW282544  14.762   7.597  12.841
93569SOL     OW82545   9.798   0.483  13.677
93569SOL    HW182546   9.809   0.571  13.641
93569SOL    HW282547   9.860   0.479  13.750
93570SOL     OW82548  13.558   5.030  10.704
93570SOL    HW182549  13.505   5.096  10.659
93570SOL    HW282550  13.641   5.073  10.721
93571SOL     OW82551   2.728   9.369  10.803
93571SOL    HW182552   2.823   9.367  10.799
93571SOL    HW282553   2.709   9.421  10.881
93572SOL     OW82554   8.509   8.310   1.628
93572SOL    HW182555   8.434   8.254   1.648
93572SOL    HW282556   8.472   8.379   1.572
93573SOL     OW82557   0.698  13.231   6.802
93573SOL    HW182558   0.727  13.152   6.848
93573SOL    HW282559   0.604  13.236   6.819
93574SOL     OW82560  12.723   8.675   6.958
93574SOL    HW182561  12.671   8.621   6.898
93574SOL    HW282562  12.796   8.706   6.905
93575SOL     OW82563  14.074   9.561  11.976
93575SOL    HW182564  14.128   9.632  12.009
93575SOL    HW282565  14.071   9.498  12.048
93576SOL     OW82566   5.849  14.832  13.848
93576SOL    HW182567   5.841  14.833  13.943
93576SOL    HW282568   5.786   0.022  13.818
93577SOL     OW82569   0.791   1.751  11.560
93577SOL    HW182570   0.789   1.689  11.633
93577SOL    HW282571   0.808   1.836  11.602
93578SOL     OW82572   4.679   7.926   6.032
93578SOL    HW182573   4.726   7.847   6.004
93578SOL    HW282574   4.590   7.913   6.001
93579SOL     OW82575  14.030  11.506   3.429
93579SOL    HW182576  13.991  11.426   3.466
93579SOL    HW282577  14.016  11.572   3.497
93580SOL     OW82578   4.598   9.857   4.919
93580SOL    HW182579   4.567   9.898   4.838
93580SOL    HW282580   4.520   9.818   4.957
93581SOL     OW82581   6.649   0.808   8.559
93581SOL    HW182582   6.570   0.783   8.607
93581SOL    HW282583   6.698   0.863   8.621
93582SOL     OW82584   1.115   6.604   7.557
93582SOL    HW182585   1.038   6.660   7.566
93582SOL    HW282586   1.163   6.615   7.640
93583SOL     OW82587   8.681   5.998   1.378
93583SOL    HW182588   8.711   5.928   1.320
93583SOL    HW282589   8.623   6.051   1.323
93584SOL     OW82590   2.218   7.820   3.646
93584SOL    HW182591   2.241   7.764   3.719
93584SOL    HW282592   2.182   7.899   3.686
93585SOL     OW82593   1.467   6.413   6.527
93585SOL    HW182594   1.559   6.422   6.552
93585SOL    HW282595   1.465   6.336   6.470
93586SOL     OW82596   8.282   2.008   7.132
93586SOL    HW182597   8.259   2.097   7.161
93586SOL    HW282598   8.260   1.953   7.207
93587SOL     OW82599   3.836   7.655   3.411
93587SOL    HW182600   3.883   7.610   3.481
93587SOL    HW282601   3.745   7.630   3.424
93588SOL     OW82602   7.083   2.311   5.502
93588SOL    HW182603   7.105   2.388   5.554
93588SOL    HW282604   6.989   2.317   5.488
93589SOL     OW82605   6.410  12.735  10.513
93589SOL    HW182606   6.365  12.660  10.552
93589SOL    HW282607   6.484  12.752  10.572
93590SOL     OW82608  13.656  13.280   2.644
93590SOL    HW182609  13.579  13.257   2.592
93590SOL    HW282610  13.629  13.355   2.696
93591SOL     OW82611   0.675  11.825  14.483
93591SOL    HW182612   0.630  11.829  14.398
93591SOL    HW282613   0.619  11.875  14.542
93592SOL     OW82614  11.694  14.149   4.985
93592SOL    HW182615  11.654  14.074   5.027
93592SOL    HW282616  11.622  14.210   4.970
93593SOL     OW82617  12.238  11.961   7.718
93593SOL    HW182618  12.203  11.969   7.629
93593SOL    HW282619  12.201  12.035   7.765
93594SOL     OW82620   7.441   9.864   9.693
93594SOL    HW182621   7.410   9.892   9.779
93594SOL    HW282622   7.385   9.909   9.631
93595SOL     OW82623   9.277  13.110   3.245
93595SOL    HW182624   9.188  13.146   3.246
93595SOL    HW282625   9.324  13.160   3.311
93596SOL     OW82626   3.326  12.809  13.634
93596SOL    HW182627   3.315  12.798  13.728
93596SOL    HW282628   3.393  12.878  13.626
93597SOL     OW82629  13.514   9.995   3.955
93597SOL    HW182630  13.453  10.067   3.942
93597SOL    HW282631  13.592  10.021   3.906
93598SOL     OW82632   4.272  12.950   9.174
93598SOL    HW182633   4.273  12.866   9.219
93598SOL    HW282634   4.365  12.973   9.164
93599SOL     OW82635  10.360  13.506   5.929
93599SOL    HW182636  10.321  13.560   5.860
93599SOL    HW282637  10.443  13.550   5.950
93600SOL     OW82638   1.372   1.676   2.761
93600SOL    HW182639   1.435   1.656   2.692
93600SOL    HW282640   1.295   1.624   2.738
93601SOL     OW82641   6.391   4.099   1.341
93601SOL    HW182642   6.296   4.091   1.344
93601SOL    HW282643   6.413   4.101   1.248
93602SOL     OW82644   5.947   2.888  14.294
93602SOL    HW182645   5.944   2.836  14.213
93602SOL    HW282646   6.036   2.922  14.296
93603SOL     OW82647   4.551  11.575   9.782
93603SOL    HW182648   4.512  11.656   9.814
93603SOL    HW282649   4.476  11.515   9.770
93604SOL     OW82650   6.460   3.610   8.799
93604SOL    HW182651   6.539   3.584   8.753
93604SOL    HW282652   6.492   3.649   8.880
93605SOL     OW82653   9.435   9.631   6.545
93605SOL    HW182654   9.357   9.576   6.556
93605SOL    HW282655   9.401   9.721   6.540
93606SOL     OW82656   4.517   9.571   4.875
93606SOL    HW182657   4.583   9.567   4.944
93606SOL    HW282658   4.563   9.546   4.795
93607SOL     OW82659   1.571   3.725   2.324
93607SOL    HW182660   1.635   3.672   2.371
93607SOL    HW282661   1.585   3.814   2.355
93608SOL     OW82662   4.375   4.662  10.269
93608SOL    HW182663   4.434   4.594  10.235
93608SOL    HW282664   4.344   4.708  10.191
93609SOL     OW82665   8.685   9.050   3.297
93609SOL    HW182666   8.606   8.998   3.285
93609SOL    HW282667   8.695   9.059   3.391
93610SOL     OW82668   2.249  13.836  11.749
93610SOL    HW182669   2.209  13.769  11.694
93610SOL    HW282670   2.259  13.911  11.691
93611SOL     OW82671   6.484   7.761   9.227
93611SOL    HW182672   6.499   7.854   9.211
93611SOL    HW282673   6.417   7.736   9.163
93612SOL     OW82674  14.218   7.482   3.887
93612SOL    HW182675  14.185   7.516   3.970
93612SOL    HW282676  14.187   7.392   3.883
93613SOL     OW82677   6.985  12.568  13.657
93613SOL    HW182678   6.986  12.480  13.622
93613SOL    HW282679   6.892  12.592  13.660
93614SOL     OW82680   1.377   7.533   5.836
93614SOL    HW182681   1.397   7.624   5.857
93614SOL    HW282682   1.461   7.487   5.848
93615SOL     OW82683   1.657   4.708   9.250
93615SOL    HW182684   1.597   4.736   9.181
93615SOL    HW282685   1.727   4.773   9.249
93616SOL     OW82686   7.834   1.388   4.102
93616SOL    HW182687   7.818   1.306   4.055
93616SOL    HW282688   7.849   1.361   4.192
93617SOL     OW82689   6.750   5.843   7.543
93617SOL    HW182690   6.733   5.919   7.488
93617SOL    HW282691   6.812   5.790   7.492
93618SOL     OW82692  11.914  11.356   3.711
93618SOL    HW182693  11.871  11.437   3.739
93618SOL    HW282694  11.877  11.339   3.624
93619SOL     OW82695   3.169   3.772   0.585
93619SOL    HW182696   3.109   3.704   0.614
93619SOL    HW282697   3.120   3.822   0.519
93620SOL     OW82698   5.090   2.388   4.789
93620SOL    HW182699   5.102   2.479   4.817
93620SOL    HW282700   5.162   2.372   4.728
93621SOL     OW82701   0.851   3.288  10.508
93621SOL    HW182702   0.783   3.324  10.452
93621SOL    HW282703   0.804   3.235  10.573
93622SOL     OW82704  13.933   3.454   6.633
93622SOL    HW182705  13.927   3.362   6.609
93622SOL    HW282706  14.024   3.479   6.615
93623SOL     OW82707   1.269   5.716  11.130
93623SOL    HW182708   1.269   5.681  11.219
93623SOL    HW282709   1.329   5.791  11.133
93624SOL     OW82710   5.286   2.703  11.407
93624SOL    HW182711   5.233   2.628  11.380
93624SOL    HW282712   5.234   2.779  11.382
93625SOL     OW82713   5.847  14.840  14.147
93625SOL    HW182714   5.803   0.045  14.171
93625SOL    HW282715   5.886  14.809  14.229
93626SOL     OW82716   4.193  13.463   2.314
93626SOL    HW182717   4.165  13.417   2.236
93626SOL    HW282718   4.262  13.407   2.351
93627SOL     OW82719   8.029   4.922   0.071
93627SOL    HW182720   8.072   4.842   0.101
93627SOL    HW282721   7.935   4.900   0.069
93628SOL     OW82722  13.158   0.889  13.699
93628SOL    HW182723  13.125   0.900  13.789
93628SOL    HW282724  13.246   0.854  13.711
93629SOL     OW82725  12.169   5.820   6.003
93629SOL    HW182726  12.225   5.768   6.061
93629SOL    HW282727  12.121   5.878   6.062
93630SOL     OW82728   8.822   1.234  14.093
93630SOL    HW182729   8.771   1.265  14.018
93630SOL    HW282730   8.783   1.150  14.117
93631SOL     OW82731  11.262  11.382  14.283
93631SOL    HW182732  11.286  11.471  14.260
93631SOL    HW282733  11.168  11.378  14.271
93632SOL     OW82734   8.582   1.463   8.054
93632SOL    HW182735   8.643   1.537   8.046
93632SOL    HW282736   8.637   1.386   8.037
93633SOL     OW82737   9.916  12.532   4.510
93633SOL    HW182738   9.988  12.594   4.498
93633SOL    HW282739   9.861  12.572   4.577
93634SOL     OW82740  14.821   7.353   2.670
93634SOL    HW182741  14.843   7.260   2.671
93634SOL    HW282742   0.019   7.396   2.629
93635SOL     OW82743   6.468   0.227   0.062
93635SOL    HW182744   6.463   0.312   0.019
93635SOL    HW282745   6.545   0.185   0.023
93636SOL     OW82746   3.393  10.392  10.927
93636SOL    HW182747   3.420  10.474  10.968
93636SOL    HW282748   3.299  10.401  10.914
93637SOL     OW82749   7.917   7.275  12.037
93637SOL    HW182750   7.867   7.226  11.972
93637SOL    HW282751   7.870   7.358  12.046
93638SOL     OW82752  11.685   8.478   0.108
93638SOL    HW182753  11.629   8.415   0.153
93638SOL    HW282754  11.636   8.500   0.028
93639SOL     OW82755   3.647   9.123  11.181
93639SOL    HW182756   3.660   9.202  11.129
93639SOL    HW282757   3.730   9.111  11.227
93640SOL     OW82758   1.035   1.192   1.691
93640SOL    HW182759   0.997   1.139   1.621
93640SOL    HW282760   0.983   1.273   1.691
93641SOL     OW82761  13.625  10.592   6.973
93641SOL    HW182762  13.715  10.574   7.001
93641SOL    HW282763  13.615  10.686   6.983
93642SOL     OW82764   6.711   7.187  13.849
93642SOL    HW182765   6.771   7.260  13.833
93642SOL    HW282766   6.713   7.136  13.768
93643SOL     OW82767   0.642   5.736   1.140
93643SOL    HW182768   0.669   5.667   1.200
93643SOL    HW282769   0.568   5.778   1.184
93644SOL     OW82770  12.244   3.883  13.060
93644SOL    HW182771  12.311   3.822  13.091
93644SOL    HW282772  12.224   3.937  13.137
93645SOL     OW82773   5.637   2.514  12.223
93645SOL    HW182774   5.726   2.520  12.258
93645SOL    HW282775   5.646   2.460  12.144
93646SOL     OW82776  10.367   6.286   3.646
93646SOL    HW182777  10.362   6.382   3.645
93646SOL    HW282778  10.432   6.265   3.579
93647SOL     OW82779   0.241   4.820   9.753
93647SOL    HW182780   0.270   4.864   9.673
93647SOL    HW282781   0.252   4.885   9.822
93648SOL     OW82782   1.400   7.399   4.258
93648SOL    HW182783   1.463   7.456   4.214
93648SOL    HW282784   1.397   7.320   4.204
93649SOL     OW82785   6.057   0.636   1.171
93649SOL    HW182786   6.025   0.721   1.141
93649SOL    HW282787   6.131   0.657   1.229
93650SOL     OW82788   0.876   8.978   2.463
93650SOL    HW182789   0.955   8.949   2.416
93650SOL    HW282790   0.902   9.059   2.506
93651SOL     OW82791   7.557   8.698  10.578
93651SOL    HW182792   7.564   8.720  10.486
93651SOL    HW282793   7.514   8.774  10.619
93652SOL     OW82794  12.867   5.564   1.456
93652SOL    HW182795  12.923   5.561   1.534
93652SOL    HW282796  12.840   5.473   1.443
93653SOL     OW82797   4.058   3.625   0.915
93653SOL    HW182798   4.100   3.542   0.939
93653SOL    HW282799   4.121   3.666   0.855
93654SOL     OW82800   0.523  14.228   9.342
93654SOL    HW182801   0.592  14.207   9.406
93654SOL    HW282802   0.570  14.240   9.259
93655SOL     OW82803   2.077  12.509   0.320
93655SOL    HW182804   2.044  12.431   0.276
93655SOL    HW282805   2.160  12.482   0.358
93656SOL     OW82806  10.689   8.222  12.797
93656SOL    HW182807  10.612   8.165  12.795
93656SOL    HW282808  10.728   8.212  12.710
93657SOL     OW82809   5.650  14.175   2.543
93657SOL    HW182810   5.725  14.139   2.591
93657SOL    HW282811   5.686  14.252   2.498
93658SOL     OW82812  11.471   7.479   2.377
93658SOL    HW182813  11.452   7.453   2.287
93658SOL    HW282814  11.560   7.513   2.375
93659SOL     OW82815  10.096  13.136  11.663
93659SOL    HW182816  10.063  13.053  11.629
93659SOL    HW282817  10.109  13.119  11.757
93660SOL     OW82818   9.128   7.205   0.052
93660SOL    HW182819   9.067   7.256   0.106
93660SOL    HW282820   9.108   7.231  14.839
93661SOL     OW82821   4.886   5.216  14.154
93661SOL    HW182822   4.899   5.188  14.064
93661SOL    HW282823   4.923   5.305  14.157
93662SOL     OW82824   0.939   3.792   7.952
93662SOL    HW182825   0.880   3.816   7.880
93662SOL    HW282826   0.993   3.722   7.917
93663SOL     OW82827   4.694   1.548  13.800
93663SOL    HW182828   4.601   1.525  13.804
93663SOL    HW282829   4.721   1.526  13.711
93664SOL     OW82830   8.276  12.186  10.038
93664SOL    HW182831   8.365  12.166  10.008
93664SOL    HW282832   8.270  12.281  10.033
93665SOL     OW82833   1.555   2.250   4.441
93665SOL    HW182834   1.574   2.316   4.374
93665SOL    HW282835   1.599   2.283   4.519
93666SOL     OW82836   9.729   1.418  12.985
93666SOL    HW182837   9.755   1.412  12.892
93666SOL    HW282838   9.803   1.462  13.027
93667SOL     OW82839   5.208  10.996   6.403
93667SOL    HW182840   5.270  10.960   6.339
93667SOL    HW282841   5.255  10.995   6.486
93668SOL     OW82842   0.277  10.548   4.207
93668SOL    HW182843   0.183  10.568   4.209
93668SOL    HW282844   0.282  10.454   4.223
93669SOL     OW82845  12.326   7.505   1.088
93669SOL    HW182846  12.404   7.549   1.122
93669SOL    HW282847  12.300   7.445   1.159
93670SOL     OW82848  11.876   0.319   8.642
93670SOL    HW182849  11.910   0.408   8.643
93670SOL    HW282850  11.953   0.264   8.656
93671SOL     OW82851   1.110   0.206  10.009
93671SOL    HW182852   1.097   0.301  10.003
93671SOL    HW282853   1.026   0.169   9.984
93672SOL     OW82854   7.214   6.240  13.323
93672SOL    HW182855   7.274   6.313  13.338
93672SOL    HW282856   7.161   6.268  13.248
93673SOL     OW82857   6.176  11.714   3.139
93673SOL    HW182858   6.246  11.652   3.157
93673SOL    HW282859   6.217  11.781   3.084
93674SOL     OW82860   2.310   3.445   0.242
93674SOL    HW182861   2.264   3.492   0.312
93674SOL    HW282862   2.355   3.513   0.192
93675SOL     OW82863   9.634   6.396   1.746
93675SOL    HW182864   9.570   6.462   1.719
93675SOL    HW282865   9.616   6.382   1.839
93676SOL     OW82866   8.712   2.986   6.714
93676SOL    HW182867   8.753   2.908   6.752
93676SOL    HW282868   8.749   2.993   6.626
93677SOL     OW82869  10.564   6.429  14.020
93677SOL    HW182870  10.643   6.482  14.031
93677SOL    HW282871  10.596   6.340  14.010
93678SOL     OW82872   7.685   5.901   3.512
93678SOL    HW182873   7.651   5.956   3.441
93678SOL    HW282874   7.624   5.828   3.517
93679SOL     OW82875   3.958   0.268   1.885
93679SOL    HW182876   4.022   0.340   1.885
93679SOL    HW282877   4.005   0.194   1.847
93680SOL     OW82878   9.445  14.642   2.085
93680SOL    HW182879   9.372  14.675   2.139
93680SOL    HW282880   9.420  14.666   1.996
93681SOL     OW82881   8.031  11.395  13.621
93681SOL    HW182882   8.059  11.324  13.564
93681SOL    HW282883   8.111  11.426  13.662
93682SOL     OW82884  10.623   1.798  11.780
93682SOL    HW182885  10.549   1.772  11.835
93682SOL    HW282886  10.610   1.892  11.765
93683SOL     OW82887   4.461   9.871   7.834
93683SOL    HW182888   4.517   9.793   7.838
93683SOL    HW282889   4.431   9.884   7.924
93684SOL     OW82890   5.326   7.889   9.999
93684SOL    HW182891   5.376   7.894   9.917
93684SOL    HW282892   5.235   7.905   9.972
93685SOL     OW82893   4.717   1.127   4.017
93685SOL    HW182894   4.796   1.166   3.980
93685SOL    HW282895   4.660   1.202   4.034
93686SOL     OW82896  13.198  13.224   0.089
93686SOL    HW182897  13.145  13.208   0.011
93686SOL    HW282898  13.145  13.189   0.161
93687SOL     OW82899  14.389  10.781   7.513
93687SOL    HW182900  14.445  10.708   7.539
93687SOL    HW282901  14.414  10.852   7.572
93688SOL     OW82902   6.519   9.273  12.069
93688SOL    HW182903   6.555   9.284  11.981
93688SOL    HW282904   6.445   9.333  12.073
93689SOL     OW82905  11.479  12.964   8.655
93689SOL    HW182906  11.528  12.941   8.734
93689SOL    HW282907  11.480  13.060   8.654
93690SOL     OW82908  14.824   8.129  11.974
93690SOL    HW182909  14.772   8.180  11.913
93690SOL    HW282910   0.026   8.181  11.989
93691SOL     OW82911  13.293   0.797   7.284
93691SOL    HW182912  13.211   0.821   7.241
93691SOL    HW282913  13.269   0.780   7.375
93692SOL     OW82914  13.939   9.382   9.425
93692SOL    HW182915  14.024   9.358   9.387
93692SOL    HW282916  13.876   9.332   9.373
93693SOL     OW82917  14.876  10.690   2.202
93693SOL    HW182918   0.051  10.617   2.168
93693SOL    HW282919  14.812  10.650   2.261
93694SOL     OW82920  10.839   9.629   9.685
93694SOL    HW182921  10.771   9.642   9.618
93694SOL    HW282922  10.877   9.544   9.664
93695SOL     OW82923   2.883  11.298   7.862
93695SOL    HW182924   2.919  11.232   7.921
93695SOL    HW282925   2.959  11.332   7.815
93696SOL     OW82926  11.420   2.784   0.563
93696SOL    HW182927  11.426   2.868   0.518
93696SOL    HW282928  11.453   2.801   0.652
93697SOL     OW82929   7.813   0.921   2.226
93697SOL    HW182930   7.756   0.980   2.176
93697SOL    HW282931   7.876   0.979   2.269
93698SOL     OW82932   0.220   2.675  14.169
93698SOL    HW182933   0.235   2.769  14.158
93698SOL    HW282934   0.182   2.647  14.086
93699SOL     OW82935  11.962   3.109   9.616
93699SOL    HW182936  11.918   3.180   9.663
93699SOL    HW282937  11.904   3.034   9.626
93700SOL     OW82938  12.205   9.927   5.003
93700SOL    HW182939  12.147   9.859   4.969
93700SOL    HW282940  12.167  10.009   4.973
93701SOL     OW82941   1.759   6.422   8.387
93701SOL    HW182942   1.773   6.500   8.440
93701SOL    HW282943   1.746   6.351   8.450
93702SOL     OW82944   3.157   0.841   9.274
93702SOL    HW182945   3.108   0.789   9.210
93702SOL    HW282946   3.248   0.817   9.260
93703SOL     OW82947   6.948   6.378   2.262
93703SOL    HW182948   6.934   6.452   2.321
93703SOL    HW282949   7.024   6.333   2.297
93704SOL     OW82950  14.319  12.019  13.836
93704SOL    HW182951  14.308  11.953  13.768
93704SOL    HW282952  14.413  12.020  13.853
93705SOL     OW82953   5.591  12.523   9.955
93705SOL    HW182954   5.674  12.510   9.910
93705SOL    HW282955   5.613  12.575  10.032
93706SOL     OW82956  14.839   0.884  11.540
93706SOL    HW182957  14.803   0.967  11.570
93706SOL    HW282958  14.766   0.822  11.547
93707SOL     OW82959   0.079   5.874  13.022
93707SOL    HW182960   0.064   5.958  12.980
93707SOL    HW282961   0.158   5.840  12.980
93708SOL     OW82962   0.309  13.581   8.694
93708SOL    HW182963   0.349  13.514   8.749
93708SOL    HW282964   0.373  13.597   8.624
93709SOL     OW82965  12.053   5.404   0.599
93709SOL    HW182966  12.029   5.354   0.521
93709SOL    HW282967  11.993   5.372   0.667
93710SOL     OW82968   0.090   0.823   3.082
93710SOL    HW182969   0.036   0.880   3.136
93710SOL    HW282970   0.058   0.735   3.101
93711SOL     OW82971  14.860   6.912  13.383
93711SOL    HW182972  14.777   6.911  13.431
93711SOL    HW282973  14.856   6.835  13.326
93712SOL     OW82974   4.557  10.339   2.004
93712SOL    HW182975   4.649  10.354   2.026
93712SOL    HW282976   4.516  10.312   2.086
93713SOL     OW82977  10.568   9.004  14.642
93713SOL    HW182978  10.662   9.001  14.656
93713SOL    HW282979  10.553   8.950  14.565
93714SOL     OW82980   4.705  11.213   2.026
93714SOL    HW182981   4.682  11.295   1.982
93714SOL    HW282982   4.699  11.233   2.119
93715SOL     OW82983   4.609   3.742   1.452
93715SOL    HW182984   4.616   3.669   1.515
93715SOL    HW282985   4.630   3.703   1.368
93716SOL     OW82986   1.547   1.084   2.632
93716SOL    HW182987   1.551   1.177   2.654
93716SOL    HW282988   1.458   1.058   2.656
93717SOL     OW82989   8.665   9.068   6.407
93717SOL    HW182990   8.606   9.080   6.481
93717SOL    HW282991   8.637   8.985   6.368
93718SOL     OW82992  13.571  14.358  12.275
93718SOL    HW182993  13.606  14.401  12.198
93718SOL    HW282994  13.478  14.347  12.256
93719SOL     OW82995   1.171   6.986   1.958
93719SOL    HW182996   1.200   7.073   1.985
93719SOL    HW282997   1.178   6.933   2.038
93720SOL     OW82998   6.434   5.921   4.615
93720SOL    HW182999   6.423   5.984   4.686
93720SOL    HW283000   6.402   5.838   4.651
93721SOL     OW83001   7.985  11.240   3.565
93721SOL    HW183002   8.016  11.157   3.601
93721SOL    HW283003   7.889  11.231   3.565
93722SOL     OW83004  13.451   6.018   5.151
93722SOL    HW183005  13.451   5.927   5.121
93722SOL    HW283006  13.503   6.064   5.085
93723SOL     OW83007   2.520  13.118  13.156
93723SOL    HW183008   2.613  13.097  13.166
93723SOL    HW283009   2.480  13.086  13.236
93724SOL     OW83010   9.035   9.168  10.287
93724SOL    HW183011   9.007   9.113  10.214
93724SOL    HW283012   9.097   9.114  10.336
93725SOL     OW83013   8.105   6.791   1.575
93725SOL    HW183014   8.052   6.836   1.640
93725SOL    HW283015   8.098   6.845   1.496
93726SOL     OW83016  12.950   0.495  14.556
93726SOL    HW183017  13.002   0.548  14.494
93726SOL    HW283018  12.959   0.541  14.639
93727SOL     OW83019   1.123   7.879  11.774
93727SOL    HW183020   1.104   7.892  11.867
93727SOL    HW283021   1.110   7.786  11.759
93728SOL     OW83022  12.502   4.957   3.693
93728SOL    HW183023  12.521   4.987   3.604
93728SOL    HW283024  12.569   4.892   3.712
93729SOL     OW83025   3.994  10.072   3.065
93729SOL    HW183026   3.969  10.124   2.989
93729SOL    HW283027   3.945   9.990   3.055
93730SOL     OW83028   0.148   6.909  12.373
93730SOL    HW183029   0.241   6.885  12.369
93730SOL    HW283030   0.102   6.827  12.356
93731SOL     OW83031   4.742  10.454   3.786
93731SOL    HW183032   4.708  10.372   3.823
93731SOL    HW283033   4.759  10.433   3.694
93732SOL     OW83034   8.619   2.098   4.169
93732SOL    HW183035   8.533   2.092   4.210
93732SOL    HW283036   8.664   2.167   4.218
93733SOL     OW83037   3.174   1.782   9.528
93733SOL    HW183038   3.179   1.717   9.458
93733SOL    HW283039   3.093   1.759   9.575
93734SOL     OW83040   6.507   3.928   6.972
93734SOL    HW183041   6.439   3.973   6.922
93734SOL    HW283042   6.556   3.998   7.015
93735SOL     OW83043   2.771  14.750   4.324
93735SOL    HW183044   2.699  14.784   4.378
93735SOL    HW283045   2.757  14.656   4.322
93736SOL     OW83046   5.909   0.557   4.280
93736SOL    HW183047   5.931   0.559   4.186
93736SOL    HW283048   5.915   0.465   4.304
93737SOL     OW83049   5.027  12.040  10.722
93737SOL    HW183050   5.008  11.958  10.675
93737SOL    HW283051   5.113  12.067  10.689
93738SOL     OW83052   5.271   3.115  13.952
93738SOL    HW183053   5.333   3.111  14.026
93738SOL    HW283054   5.318   3.073  13.880
93739SOL     OW83055   8.095  12.190  13.582
93739SOL    HW183056   8.148  12.118  13.548
93739SOL    HW283057   8.156  12.263  13.587
93740SOL     OW83058  13.953   5.596  10.119
93740SOL    HW183059  13.905   5.676  10.098
93740SOL    HW283060  13.889   5.541  10.164
93741SOL     OW83061  11.955   9.775   9.415
93741SOL    HW183062  11.863   9.766   9.392
93741SOL    HW283063  11.962   9.736   9.502
93742SOL     OW83064   8.110   2.864   8.043
93742SOL    HW183065   8.085   2.843   8.133
93742SOL    HW283066   8.173   2.797   8.019
93743SOL     OW83067  13.161  12.665   8.767
93743SOL    HW183068  13.238  12.676   8.822
93743SOL    HW283069  13.181  12.589   8.712
93744SOL     OW83070   9.837   4.381   4.184
93744SOL    HW183071   9.871   4.402   4.270
93744SOL    HW283072   9.839   4.285   4.179
93745SOL     OW83073  14.378   8.909   4.176
93745SOL    HW183074  14.429   8.978   4.133
93745SOL    HW283075  14.353   8.947   4.260
93746SOL     OW83076   8.916   2.931   4.816
93746SOL    HW183077   8.961   2.871   4.875
93746SOL    HW283078   8.943   2.904   4.728
93747SOL     OW83079   4.006  13.148   6.622
93747SOL    HW183080   4.045  13.091   6.557
93747SOL    HW283081   3.912  13.135   6.613
93748SOL     OW83082   2.946   7.199   9.033
93748SOL    HW183083   2.904   7.274   8.991
93748SOL    HW283084   2.989   7.235   9.111
93749SOL     OW83085   4.558   7.850  14.131
93749SOL    HW183086   4.499   7.884  14.199
93749SOL    HW283087   4.610   7.783  14.176
93750SOL     OW83088  11.050  10.172  12.638
93750SOL    HW183089  11.014  10.195  12.553
93750SOL    HW283090  11.050  10.254  12.688
93751SOL     OW83091   7.923   3.716   4.330
93751SOL    HW183092   7.883   3.643   4.284
93751SOL    HW283093   7.877   3.793   4.299
93752SOL     OW83094   4.066   3.013  11.910
93752SOL    HW183095   3.991   3.063  11.879
93752SOL    HW283096   4.044   2.989  12.000
93753SOL     OW83097   2.635  14.111   3.183
93753SOL    HW183098   2.606  14.095   3.093
93753SOL    HW283099   2.581  14.183   3.214
93754SOL     OW83100   9.650   2.398   6.260
93754SOL    HW183101   9.610   2.484   6.271
93754SOL    HW283102   9.641   2.380   6.166
93755SOL     OW83103   2.273   2.710  11.012
93755SOL    HW183104   2.304   2.729  11.101
93755SOL    HW283105   2.189   2.755  11.005
93756SOL     OW83106   0.212  12.184   0.074
93756SOL    HW183107   0.149  12.168   0.003
93756SOL    HW283108   0.286  12.226   0.031
93757SOL     OW83109   0.449   9.541  13.794
93757SOL    HW183110   0.460   9.636  13.795
93757SOL    HW283111   0.503   9.510  13.866
93758SOL     OW83112   5.709   8.612  13.677
93758SOL    HW183113   5.781   8.669  13.704
93758SOL    HW283114   5.706   8.619  13.582
93759SOL     OW83115   1.622   8.000   0.601
93759SOL    HW183116   1.622   7.905   0.614
93759SOL    HW283117   1.708   8.019   0.564
93760SOL     OW83118   5.463   8.886   1.659
93760SOL    HW183119   5.478   8.978   1.679
93760SOL    HW283120   5.460   8.842   1.744
93761SOL     OW83121  12.891   5.898   8.850
93761SOL    HW183122  12.934   5.814   8.833
93761SOL    HW283123  12.837   5.913   8.772
93762SOL     OW83124  12.352   5.061   0.762
93762SOL    HW183125  12.276   5.023   0.718
93762SOL    HW283126  12.341   5.156   0.752
93763SOL     OW83127  10.031  10.176  10.503
93763SOL    HW183128  10.076  10.093  10.492
93763SOL    HW283129  10.101  10.242  10.498
93764SOL     OW83130   0.473  13.127  14.625
93764SOL    HW183131   0.498  13.120  14.533
93764SOL    HW283132   0.424  13.210  14.630
93765SOL     OW83133   7.200  13.196   9.030
93765SOL    HW183134   7.147  13.127   9.071
93765SOL    HW283135   7.137  13.267   9.015
93766SOL     OW83136  13.216   9.278  14.230
93766SOL    HW183137  13.232   9.357  14.282
93766SOL    HW283138  13.141   9.236  14.272
93767SOL     OW83139   8.223   7.856  13.679
93767SOL    HW183140   8.138   7.895  13.701
93767SOL    HW283141   8.255   7.911  13.607
93768SOL     OW83142   6.975  10.984  11.794
93768SOL    HW183143   6.932  10.996  11.878
93768SOL    HW283144   6.946  10.898  11.764
93769SOL     OW83145   2.329   2.649  12.020
93769SOL    HW183146   2.346   2.739  11.991
93769SOL    HW283147   2.236   2.648  12.041
93770SOL     OW83148  14.306   3.262   8.208
93770SOL    HW183149  14.308   3.169   8.230
93770SOL    HW283150  14.264   3.266   8.122
93771SOL     OW83151  10.639   8.289  13.847
93771SOL    HW183152  10.714   8.343  13.869
93771SOL    HW283153  10.629   8.299  13.752
93772SOL     OW83154   5.509   2.673   4.190
93772SOL    HW183155   5.427   2.677   4.141
93772SOL    HW283156   5.560   2.747   4.157
93773SOL     OW83157   7.665  10.141   8.473
93773SOL    HW183158   7.587  10.133   8.419
93773SOL    HW283159   7.685  10.235   8.473
93774SOL     OW83160  14.086   3.032   0.899
93774SOL    HW183161  14.101   2.940   0.877
93774SOL    HW283162  14.172   3.063   0.928
93775SOL     OW83163   1.282  12.113   9.569
93775SOL    HW183164   1.378  12.114   9.567
93775SOL    HW283165   1.258  12.045   9.506
93776SOL     OW83166   4.911   5.525   6.052
93776SOL    HW183167   4.857   5.474   6.113
93776SOL    HW283168   4.847   5.573   5.999
93777SOL     OW83169   0.231   5.628  13.387
93777SOL    HW183170   0.209   5.544  13.348
93777SOL    HW283171   0.216   5.617  13.481
93778SOL     OW83172   8.147   0.119   7.700
93778SOL    HW183173   8.234   0.093   7.669
93778SOL    HW283174   8.092   0.120   7.621
93779SOL     OW83175  12.836   1.393   8.997
93779SOL    HW183176  12.877   1.466   9.044
93779SOL    HW283177  12.750   1.384   9.037
93780SOL     OW83178  12.910   7.332  13.310
93780SOL    HW183179  12.982   7.372  13.359
93780SOL    HW283180  12.952   7.270  13.250
93781SOL     OW83181   8.686   7.357  10.364
93781SOL    HW183182   8.614   7.322  10.416
93781SOL    HW283183   8.721   7.429  10.416
93782SOL     OW83184   3.714   8.521   9.774
93782SOL    HW183185   3.754   8.608   9.769
93782SOL    HW283186   3.771   8.471   9.831
93783SOL     OW83187   0.148   6.507  14.221
93783SOL    HW183188   0.076   6.540  14.275
93783SOL    HW283189   0.132   6.545  14.134
93784SOL     OW83190  14.279  10.358   2.693
93784SOL    HW183191  14.199  10.308   2.706
93784SOL    HW283192  14.341  10.295   2.655
93785SOL     OW83193   4.645   5.882   7.686
93785SOL    HW183194   4.572   5.822   7.696
93785SOL    HW283195   4.655   5.893   7.591
93786SOL     OW83196   2.069   1.349   2.861
93786SOL    HW183197   2.000   1.395   2.814
93786SOL    HW283198   2.115   1.417   2.911
93787SOL     OW83199   9.512   0.436   5.974
93787SOL    HW183200   9.603   0.466   5.964
93787SOL    HW283201   9.468   0.464   5.894
93788SOL     OW83202  14.481  11.757   3.793
93788SOL    HW183203  14.441  11.755   3.879
93788SOL    HW283204  14.538  11.834   3.794
93789SOL     OW83205   1.658  14.361   4.273
93789SOL    HW183206   1.636  14.276   4.312
93789SOL    HW283207   1.582  14.381   4.218
93790SOL     OW83208  10.312  11.143   9.030
93790SOL    HW183209  10.386  11.134   8.971
93790SOL    HW283210  10.340  11.100   9.111
93791SOL     OW83211   5.760  13.678  11.782
93791SOL    HW183212   5.771  13.608  11.718
93791SOL    HW283213   5.689  13.647  11.839
93792SOL     OW83214   6.795   8.303   0.426
93792SOL    HW183215   6.860   8.272   0.363
93792SOL    HW283216   6.847   8.334   0.501
93793SOL     OW83217  12.335   0.785   4.686
93793SOL    HW183218  12.320   0.855   4.750
93793SOL    HW283219  12.312   0.824   4.602
93794SOL     OW83220   2.145  13.347  14.546
93794SOL    HW183221   2.113  13.394  14.469
93794SOL    HW283222   2.170  13.416  14.607
93795SOL     OW83223  12.842  12.102   3.247
93795SOL    HW183224  12.784  12.174   3.270
93795SOL    HW283225  12.789  12.043   3.194
93796SOL     OW83226   5.132   5.438   3.073
93796SOL    HW183227   5.068   5.508   3.062
93796SOL    HW283228   5.183   5.439   2.992
93797SOL     OW83229   8.304  12.761  14.866
93797SOL    HW183230   8.341  12.681   0.026
93797SOL    HW283231   8.248  12.795   0.060
93798SOL     OW83232   9.531   9.035   2.109
93798SOL    HW183233   9.584   9.077   2.041
93798SOL    HW283234   9.596   8.997   2.169
93799SOL     OW83235  13.077   6.498   8.447
93799SOL    HW183236  13.039   6.467   8.530
93799SOL    HW283237  13.065   6.592   8.449
93800SOL     OW83238   4.641  10.422   8.097
93800SOL    HW183239   4.605  10.511   8.097
93800SOL    HW283240   4.709  10.424   8.030
93801SOL     OW83241   0.519   2.825   4.135
93801SOL    HW183242   0.458   2.883   4.089
93801SOL    HW283243   0.573   2.885   4.188
93802SOL     OW83244   2.734   4.849   8.187
93802SOL    HW183245   2.749   4.763   8.227
93802SOL    HW283246   2.814   4.866   8.137
93803SOL     OW83247  10.278  12.177  13.019
93803SOL    HW183248  10.284  12.272  13.031
93803SOL    HW283249  10.349  12.141  13.072
93804SOL     OW83250   9.778  12.724  12.434
93804SOL    HW183251   9.832  12.791  12.393
93804SOL    HW283252   9.766  12.754  12.524
93805SOL     OW83253   9.857  12.968   3.922
93805SOL    HW183254   9.799  13.040   3.895
93805SOL    HW283255   9.828  12.893   3.869
93806SOL     OW83256  14.567   1.404  14.388
93806SOL    HW183257  14.524   1.450  14.315
93806SOL    HW283258  14.660   1.416  14.372
93807SOL     OW83259   9.878   0.180  13.220
93807SOL    HW183260   9.852   0.251  13.279
93807SOL    HW283261   9.948   0.217  13.167
93808SOL     OW83262  13.994  14.184   8.845
93808SOL    HW183263  14.004  14.104   8.792
93808SOL    HW283264  13.949  14.155   8.924
93809SOL     OW83265   9.325  11.016   7.087
93809SOL    HW183266   9.256  11.046   7.147
93809SOL    HW283267   9.279  11.003   7.004
93810SOL     OW83268   3.971   8.104  10.548
93810SOL    HW183269   4.054   8.058  10.534
93810SOL    HW283270   3.922   8.047  10.607
93811SOL     OW83271   1.045  14.639   5.980
93811SOL    HW183272   1.037  14.680   6.066
93811SOL    HW283273   1.010  14.551   5.992
93812SOL     OW83274  11.697  12.180   5.323
93812SOL    HW183275  11.718  12.263   5.366
93812SOL    HW283276  11.722  12.193   5.232
93813SOL     OW83277   7.598   2.186  12.939
93813SOL    HW183278   7.503   2.181  12.955
93813SOL    HW283279   7.620   2.100  12.901
93814SOL     OW83280   8.066  12.757  12.799
93814SOL    HW183281   8.076  12.714  12.715
93814SOL    HW283282   8.046  12.849  12.777
93815SOL     OW83283  14.271   8.248  14.760
93815SOL    HW183284  14.254   8.191  14.835
93815SOL    HW283285  14.187   8.289  14.741
93816SOL     OW83286  12.497   7.886   1.495
93816SOL    HW183287  12.527   7.847   1.577
93816SOL    HW283288  12.494   7.980   1.513
93817SOL     OW83289   8.226   6.622  11.589
93817SOL    HW183290   8.176   6.543  11.567
93817SOL    HW283291   8.162   6.694  11.579
93818SOL     OW83292   8.766  11.249  13.178
93818SOL    HW183293   8.796  11.247  13.269
93818SOL    HW283294   8.796  11.166  13.141
93819SOL     OW83295   4.201   1.448  13.008
93819SOL    HW183296   4.270   1.407  12.955
93819SOL    HW283297   4.124   1.449  12.952
93820SOL     OW83298  14.444   8.093   9.453
93820SOL    HW183299  14.360   8.126   9.423
93820SOL    HW283300  14.480   8.045   9.379
93821SOL     OW83301   1.071  12.972   5.844
93821SOL    HW183302   1.009  12.966   5.916
93821SOL    HW283303   1.028  13.027   5.779
93822SOL     OW83304   3.862   1.330  14.670
93822SOL    HW183305   3.817   1.373  14.596
93822SOL    HW283306   3.817   1.246  14.679
93823SOL     OW83307   4.189   8.992  12.127
93823SOL    HW183308   4.234   9.051  12.066
93823SOL    HW283309   4.161   8.919  12.073
93824SOL     OW83310   2.407   1.906  10.365
93824SOL    HW183311   2.488   1.946  10.336
93824SOL    HW283312   2.342   1.976  10.360
93825SOL     OW83313  10.161  14.506  14.353
93825SOL    HW183314  10.243  14.555  14.344
93825SOL    HW283315  10.131  14.524  14.442
93826SOL     OW83316  12.291   0.579   9.958
93826SOL    HW183317  12.340   0.562  10.038
93826SOL    HW283318  12.274   0.492   9.921
93827SOL     OW83319   2.116   5.535   1.009
93827SOL    HW183320   2.084   5.621   1.038
93827SOL    HW283321   2.195   5.520   1.061
93828SOL     OW83322  12.178   5.712  10.984
93828SOL    HW183323  12.213   5.800  10.998
93828SOL    HW283324  12.188   5.669  11.069
93829SOL     OW83325  12.205  14.482  13.299
93829SOL    HW183326  12.274  14.528  13.251
93829SOL    HW283327  12.150  14.551  13.335
93830SOL     OW83328  10.699   9.973  12.986
93830SOL    HW183329  10.729  10.063  12.979
93830SOL    HW283330  10.765   9.921  12.940
93831SOL     OW83331   1.822   3.265   6.577
93831SOL    HW183332   1.829   3.169   6.581
93831SOL    HW283333   1.783   3.283   6.492
93832SOL     OW83334   7.008   3.540   9.473
93832SOL    HW183335   7.081   3.600   9.459
93832SOL    HW283336   6.952   3.584   9.537
93833SOL     OW83337   4.962  14.689  12.863
93833SOL    HW183338   4.987  14.777  12.890
93833SOL    HW283339   5.014  14.672  12.784
93834SOL     OW83340  12.791   5.953  12.626
93834SOL    HW183341  12.839   6.036  12.625
93834SOL    HW283342  12.758   5.945  12.716
93835SOL     OW83343  12.292   6.604  10.986
93835SOL    HW183344  12.346   6.644  10.918
93835SOL    HW283345  12.345   6.610  11.065
93836SOL     OW83346  11.053  12.421   3.200
93836SOL    HW183347  11.128  12.441   3.255
93836SOL    HW283348  11.039  12.501   3.149
93837SOL     OW83349   4.210  11.042   1.934
93837SOL    HW183350   4.258  10.962   1.913
93837SOL    HW283351   4.144  11.015   1.998
93838SOL     OW83352   1.762   4.616  11.984
93838SOL    HW183353   1.799   4.548  11.928
93838SOL    HW283354   1.836   4.670  12.010
93839SOL     OW83355  11.159   8.757  13.381
93839SOL    HW183356  11.101   8.830  13.362
93839SOL    HW283357  11.181   8.720  13.296
93840SOL     OW83358   3.839   9.093   7.895
93840SOL    HW183359   3.793   9.060   7.972
93840SOL    HW283360   3.801   9.045   7.822
93841SOL     OW83361  13.011   2.328   7.481
93841SOL    HW183362  13.089   2.274   7.493
93841SOL    HW283363  13.045   2.416   7.467
93842SOL     OW83364   0.733   0.796  13.403
93842SOL    HW183365   0.650   0.759  13.374
93842SOL    HW283366   0.719   0.891  13.400
93843SOL     OW83367   6.684  13.507  10.631
93843SOL    HW183368   6.691  13.586  10.579
93843SOL    HW283369   6.766  13.502  10.680
93844SOL     OW83370   3.258  13.766  11.709
93844SOL    HW183371   3.173  13.755  11.666
93844SOL    HW283372   3.241  13.833  11.776
93845SOL     OW83373   2.367   1.642   6.064
93845SOL    HW183374   2.312   1.573   6.102
93845SOL    HW283375   2.306   1.713   6.042
93846SOL     OW83376  11.716  10.158   8.826
93846SOL    HW183377  11.801  10.114   8.822
93846SOL    HW283378  11.727  10.225   8.894
93847SOL     OW83379  11.546  11.391   3.508
93847SOL    HW183380  11.524  11.418   3.597
93847SOL    HW283381  11.637  11.364   3.512
93848SOL     OW83382  12.388   1.969  11.913
93848SOL    HW183383  12.457   1.971  11.979
93848SOL    HW283384  12.435   1.965  11.829
93849SOL     OW83385   8.170   9.653   3.658
93849SOL    HW183386   8.208   9.687   3.740
93849SOL    HW283387   8.226   9.690   3.590
93850SOL     OW83388   7.573   8.993   3.095
93850SOL    HW183389   7.569   8.936   3.171
93850SOL    HW283390   7.573   9.082   3.131
93851SOL     OW83391   3.985   2.616   9.482
93851SOL    HW183392   3.890   2.609   9.495
93851SOL    HW283393   3.996   2.612   9.387
93852SOL     OW83394   9.064   0.062  14.343
93852SOL    HW183395   9.026   0.082  14.258
93852SOL    HW283396   8.995   0.084  14.406
93853SOL     OW83397  12.208  13.984  12.646
93853SOL    HW183398  12.196  13.902  12.598
93853SOL    HW283399  12.248  13.958  12.729
93854SOL     OW83400   6.669   3.311   4.801
93854SOL    HW183401   6.745   3.260   4.829
93854SOL    HW283402   6.647   3.277   4.715
93855SOL     OW83403   8.904   2.048  13.715
93855SOL    HW183404   8.833   1.984  13.722
93855SOL    HW283405   8.943   2.031  13.629
93856SOL     OW83406  14.813   2.239  13.872
93856SOL    HW183407  14.822   2.179  13.798
93856SOL    HW283408  14.873   2.311  13.853
93857SOL     OW83409   9.313  12.605   6.683
93857SOL    HW183410   9.380  12.543   6.712
93857SOL    HW283411   9.288  12.574   6.596
93858SOL     OW83412  11.846   7.059   8.386
93858SOL    HW183413  11.765   7.054   8.437
93858SOL    HW283414  11.899   6.985   8.417
93859SOL     OW83415   6.494   0.273   3.830
93859SOL    HW183416   6.495   0.196   3.773
93859SOL    HW283417   6.427   0.254   3.895
93860SOL     OW83418  10.212   6.593  12.847
93860SOL    HW183419  10.221   6.603  12.752
93860SOL    HW283420  10.118   6.585  12.862
93861SOL     OW83421   4.042   1.075   6.526
93861SOL    HW183422   4.081   1.005   6.473
93861SOL    HW283423   3.959   1.039   6.556
93862SOL     OW83424  14.826   0.583   0.047
93862SOL    HW183425  14.778   0.661   0.019
93862SOL    HW283426   0.035   0.591   0.005
93863SOL     OW83427  13.587   0.528  13.183
93863SOL    HW183428  13.681   0.537  13.197
93863SOL    HW283429  13.565   0.444  13.222
93864SOL     OW83430  13.347   5.924   2.421
93864SOL    HW183431  13.331   6.004   2.369
93864SOL    HW283432  13.263   5.907   2.464
93865SOL     OW83433   7.331   2.020   6.853
93865SOL    HW183434   7.279   2.090   6.892
93865SOL    HW283435   7.358   2.055   6.768
93866SOL     OW83436   5.482   4.647   3.463
93866SOL    HW183437   5.425   4.719   3.491
93866SOL    HW283438   5.569   4.671   3.495
93867SOL     OW83439   1.953   7.350  11.407
93867SOL    HW183440   1.963   7.255  11.404
93867SOL    HW283441   2.042   7.382  11.421
93868SOL     OW83442  11.384   2.714   3.575
93868SOL    HW183443  11.340   2.681   3.653
93868SOL    HW283444  11.436   2.640   3.545
93869SOL     OW83445  13.933   0.514   6.911
93869SOL    HW183446  13.969   0.441   6.860
93869SOL    HW283447  13.841   0.516   6.887
93870SOL     OW83448   0.230  11.467  14.294
93870SOL    HW183449   0.189  11.505  14.217
93870SOL    HW283450   0.319  11.447  14.267
93871SOL     OW83451  10.183   8.488  13.873
93871SOL    HW183452  10.183   8.560  13.810
93871SOL    HW283453  10.159   8.529  13.956
93872SOL     OW83454   0.218   5.402  13.229
93872SOL    HW183455   0.310   5.375  13.228
93872SOL    HW283456   0.208   5.454  13.150
93873SOL     OW83457  10.329   0.287  10.885
93873SOL    HW183458  10.301   0.323  10.969
93873SOL    HW283459  10.384   0.356  10.847
93874SOL     OW83460   2.194   6.009   0.016
93874SOL    HW183461   2.220   6.098   0.040
93874SOL    HW283462   2.246   5.989  14.814
93875SOL     OW83463   4.729   9.898   9.422
93875SOL    HW183464   4.656   9.944   9.464
93875SOL    HW283465   4.780   9.861   9.494
93876SOL     OW83466   7.892  12.338   3.937
93876SOL    HW183467   7.885  12.418   3.989
93876SOL    HW283468   7.932  12.274   3.997
93877SOL     OW83469   1.204   4.223   7.187
93877SOL    HW183470   1.190   4.252   7.097
93877SOL    HW283471   1.217   4.304   7.236
93878SOL     OW83472  13.405   5.833  13.898
93878SOL    HW183473  13.421   5.739  13.912
93878SOL    HW283474  13.344   5.836  13.825
93879SOL     OW83475   0.225   2.707   8.816
93879SOL    HW183476   0.148   2.656   8.792
93879SOL    HW283477   0.191   2.773   8.876
93880SOL     OW83478  11.263  10.336   1.463
93880SOL    HW183479  11.352  10.369   1.471
93880SOL    HW283480  11.217  10.372   1.539
93881SOL     OW83481   7.409   1.926  14.256
93881SOL    HW183482   7.339   1.892  14.311
93881SOL    HW283483   7.415   1.865  14.183
93882SOL     OW83484   3.906   8.929   4.399
93882SOL    HW183485   3.837   8.877   4.358
93882SOL    HW283486   3.899   9.015   4.358
93883SOL     OW83487   7.520   8.310  14.725
93883SOL    HW183488   7.592   8.291  14.666
93883SOL    HW283489   7.562   8.323  14.810
93884SOL     OW83490  13.334   1.316   5.810
93884SOL    HW183491  13.382   1.260   5.871
93884SOL    HW283492  13.248   1.275   5.802
93885SOL     OW83493   7.313  11.367   8.521
93885SOL    HW183494   7.233  11.383   8.570
93885SOL    HW283495   7.382  11.409   8.573
93886SOL     OW83496   2.988   0.619   5.838
93886SOL    HW183497   3.013   0.591   5.750
93886SOL    HW283498   2.894   0.603   5.842
93887SOL     OW83499   7.351   3.333   3.837
93887SOL    HW183500   7.302   3.370   3.764
93887SOL    HW283501   7.424   3.287   3.797
93888SOL     OW83502   4.454   2.256  11.909
93888SOL    HW183503   4.460   2.331  11.850
93888SOL    HW283504   4.374   2.271  11.959
93889SOL     OW83505  10.638   2.231   3.172
93889SOL    HW183506  10.590   2.252   3.092
93889SOL    HW283507  10.708   2.297   3.174
93890SOL     OW83508   9.109  13.461  10.417
93890SOL    HW183509   9.101  13.541  10.364
93890SOL    HW283510   9.019  13.436  10.436
93891SOL     OW83511   5.165  14.686   5.041
93891SOL    HW183512   5.074  14.656   5.042
93891SOL    HW283513   5.212  14.621   5.093
93892SOL     OW83514   4.489   8.642   3.095
93892SOL    HW183515   4.396   8.626   3.081
93892SOL    HW283516   4.508   8.721   3.045
93893SOL     OW83517  14.149  13.102   2.357
93893SOL    HW183518  14.166  13.195   2.365
93893SOL    HW283519  14.095  13.081   2.433
93894SOL     OW83520  13.562   0.559   5.171
93894SOL    HW183521  13.643   0.609   5.167
93894SOL    HW283522  13.514   0.597   5.244
93895SOL     OW83523   8.812   5.631   5.240
93895SOL    HW183524   8.739   5.638   5.301
93895SOL    HW283525   8.890   5.641   5.295
93896SOL     OW83526   2.301  10.691   0.925
93896SOL    HW183527   2.285  10.727   0.837
93896SOL    HW283528   2.377  10.634   0.914
93897SOL     OW83529  11.495   0.284  14.058
93897SOL    HW183530  11.558   0.235  14.005
93897SOL    HW283531  11.421   0.299  13.999
93898SOL     OW83532   1.490   4.751  10.782
93898SOL    HW183533   1.414   4.792  10.825
93898SOL    HW283534   1.483   4.777  10.691
93899SOL     OW83535  11.511   2.803   5.715
93899SOL    HW183536  11.502   2.897   5.732
93899SOL    HW283537  11.486   2.762   5.798
93900SOL     OW83538   5.318   5.710   1.578
93900SOL    HW183539   5.300   5.766   1.653
93900SOL    HW283540   5.303   5.621   1.611
93901SOL     OW83541   6.413   1.867   9.412
93901SOL    HW183542   6.356   1.932   9.452
93901SOL    HW283543   6.357   1.822   9.349
93902SOL     OW83544  13.264   7.950   6.788
93902SOL    HW183545  13.203   8.024   6.791
93902SOL    HW283546  13.209   7.873   6.808
93903SOL     OW83547   9.504   8.124   6.787
93903SOL    HW183548   9.417   8.128   6.827
93903SOL    HW283549   9.550   8.200   6.823
93904SOL     OW83550   5.267   1.862   2.119
93904SOL    HW183551   5.267   1.947   2.163
93904SOL    HW283552   5.224   1.879   2.035
93905SOL     OW83553  11.460   3.698  14.403
93905SOL    HW183554  11.455   3.735  14.491
93905SOL    HW283555  11.381   3.729  14.359
93906SOL     OW83556   4.968   2.586   1.988
93906SOL    HW183557   4.908   2.545   1.926
93906SOL    HW283558   5.055   2.554   1.962
93907SOL     OW83559  11.755  11.748   2.068
93907SOL    HW183560  11.740  11.657   2.043
93907SOL    HW283561  11.848  11.762   2.051
93908SOL     OW83562   0.806  10.439  14.037
93908SOL    HW183563   0.822  10.483  13.954
93908SOL    HW283564   0.879  10.378  14.047
93909SOL     OW83565   8.334   6.672   3.210
93909SOL    HW183566   8.285   6.755   3.202
93909SOL    HW283567   8.411   6.695   3.261
93910SOL     OW83568   3.388   6.994  12.320
93910SOL    HW183569   3.439   6.961  12.394
93910SOL    HW283570   3.453   7.028  12.259
93911SOL     OW83571   4.794   6.226  10.295
93911SOL    HW183572   4.786   6.198  10.204
93911SOL    HW283573   4.819   6.318  10.290
93912SOL     OW83574   1.497   6.279  14.427
93912SOL    HW183575   1.416   6.229  14.430
93912SOL    HW283576   1.534   6.259  14.341
93913SOL     OW83577   1.967  11.905   0.616
93913SOL    HW183578   1.908  11.904   0.692
93913SOL    HW283579   2.054  11.895   0.653
93914SOL     OW83580  10.688   5.105  12.968
93914SOL    HW183581  10.775   5.134  12.941
93914SOL    HW283582  10.666   5.159  13.044
93915SOL     OW83583   8.376  10.568   0.694
93915SOL    HW183584   8.353  10.518   0.772
93915SOL    HW283585   8.302  10.626   0.679
93916SOL     OW83586   3.192   5.623   4.184
93916SOL    HW183587   3.164   5.597   4.272
93916SOL    HW283588   3.287   5.629   4.191
93917SOL     OW83589   2.359   5.729   0.453
93917SOL    HW183590   2.322   5.746   0.366
93917SOL    HW283591   2.338   5.807   0.504
93918SOL     OW83592   7.527   0.349   9.273
93918SOL    HW183593   7.544   0.378   9.363
93918SOL    HW283594   7.438   0.314   9.275
93919SOL     OW83595   2.244   4.139   9.208
93919SOL    HW183596   2.328   4.122   9.165
93919SOL    HW283597   2.189   4.176   9.139
93920SOL     OW83598   1.637   2.280   4.994
93920SOL    HW183599   1.566   2.312   4.938
93920SOL    HW283600   1.610   2.305   5.083
93921SOL     OW83601   8.758  12.382   6.415
93921SOL    HW183602   8.848  12.410   6.435
93921SOL    HW283603   8.710  12.394   6.498
93922SOL     OW83604   7.878   1.398   9.843
93922SOL    HW183605   7.844   1.484   9.818
93922SOL    HW283606   7.942   1.377   9.775
93923SOL     OW83607   9.457  11.031  14.171
93923SOL    HW183608   9.518  11.037  14.245
93923SOL    HW283609   9.473  11.110  14.120
93924SOL     OW83610  12.413   6.879   1.895
93924SOL    HW183611  12.494   6.867   1.846
93924SOL    HW283612  12.358   6.932   1.838
93925SOL     OW83613   3.979   4.188   9.215
93925SOL    HW183614   3.947   4.247   9.282
93925SOL    HW283615   3.977   4.240   9.134
93926SOL     OW83616   0.853  10.367  11.603
93926SOL    HW183617   0.848  10.278  11.566
93926SOL    HW283618   0.794  10.364  11.678
93927SOL     OW83619  10.438  11.588  11.895
93927SOL    HW183620  10.500  11.622  11.832
93927SOL    HW283621  10.352  11.608  11.858
93928SOL     OW83622   7.877   5.851   4.788
93928SOL    HW183623   7.786   5.877   4.801
93928SOL    HW283624   7.926   5.933   4.797
93929SOL     OW83625  13.769   5.638  14.018
93929SOL    HW183626  13.758   5.603  14.107
93929SOL    HW283627  13.684   5.623  13.976
93930SOL     OW83628  14.135   0.490   5.122
93930SOL    HW183629  14.069   0.490   5.192
93930SOL    HW283630  14.091   0.450   5.047
93931SOL     OW83631   0.294  14.604  12.691
93931SOL    HW183632   0.288  14.532  12.629
93931SOL    HW283633   0.221  14.590  12.752
93932SOL     OW83634   7.256   4.255  13.125
93932SOL    HW183635   7.213   4.290  13.203
93932SOL    HW283636   7.255   4.327  13.062
93933SOL     OW83637   7.649   3.829   9.122
93933SOL    HW183638   7.587   3.860   9.189
93933SOL    HW283639   7.617   3.742   9.099
93934SOL     OW83640   3.086   6.194  11.076
93934SOL    HW183641   3.082   6.220  10.984
93934SOL    HW283642   3.120   6.271  11.122
93935SOL     OW83643   2.290  10.009   1.411
93935SOL    HW183644   2.195  10.004   1.420
93935SOL    HW283645   2.315  10.083   1.467
93936SOL     OW83646   9.127   6.740   0.170
93936SOL    HW183647   9.036   6.724   0.142
93936SOL    HW283648   9.132   6.702   0.258
93937SOL     OW83649  13.151  10.744   7.835
93937SOL    HW183650  13.226  10.799   7.811
93937SOL    HW283651  13.077  10.805   7.839
93938SOL     OW83652  11.466   1.828   0.877
93938SOL    HW183653  11.380   1.804   0.842
93938SOL    HW283654  11.504   1.884   0.809
93939SOL     OW83655  10.011   5.305  11.474
93939SOL    HW183656   9.930   5.259  11.451
93939SOL    HW283657  10.065   5.239  11.517
93940SOL     OW83658   2.328  10.438   6.447
93940SOL    HW183659   2.418  10.448   6.478
93940SOL    HW283660   2.306  10.346   6.466
93941SOL     OW83661  13.325   7.981   7.764
93941SOL    HW183662  13.356   7.907   7.712
93941SOL    HW283663  13.280   8.037   7.701
93942SOL     OW83664  12.661   7.875  13.832
93942SOL    HW183665  12.732   7.842  13.777
93942SOL    HW283666  12.592   7.809  13.825
93943SOL     OW83667  10.998   8.777  12.061
93943SOL    HW183668  10.957   8.721  12.127
93943SOL    HW283669  10.996   8.724  11.981
93944SOL     OW83670   7.855  12.830   2.900
93944SOL    HW183671   7.916  12.862   2.833
93944SOL    HW283672   7.797  12.905   2.917
93945SOL     OW83673   8.910   2.592  13.832
93945SOL    HW183674   8.905   2.508  13.787
93945SOL    HW283675   8.885   2.656  13.766
93946SOL     OW83676   8.325   1.729   9.365
93946SOL    HW183677   8.389   1.697   9.302
93946SOL    HW283678   8.319   1.659   9.430
93947SOL     OW83679   0.187  13.749  10.113
93947SOL    HW183680   0.216  13.786  10.196
93947SOL    HW283681   0.146  13.822  10.067
93948SOL     OW83682   0.295  13.900   8.198
93948SOL    HW183683   0.316  13.825   8.143
93948SOL    HW283684   0.214  13.935   8.163
93949SOL     OW83685   3.783   7.112   4.640
93949SOL    HW183686   3.705   7.058   4.654
93949SOL    HW283687   3.796   7.113   4.546
93950SOL     OW83688  13.556   8.871   4.905
93950SOL    HW183689  13.540   8.834   4.818
93950SOL    HW283690  13.649   8.855   4.920
93951SOL     OW83691  13.609  11.831  11.859
93951SOL    HW183692  13.541  11.781  11.904
93951SOL    HW283693  13.649  11.884  11.928
93952SOL     OW83694  12.126  14.808  12.468
93952SOL    HW183695  12.217  14.832  12.453
93952SOL    HW283696  12.076  14.868  12.413
93953SOL     OW83697   6.339  11.474   5.950
93953SOL    HW183698   6.259  11.497   5.997
93953SOL    HW283699   6.373  11.397   5.996
93954SOL     OW83700   5.552  13.258   5.251
93954SOL    HW183701   5.485  13.289   5.191
93954SOL    HW283702   5.503  13.216   5.322
93955SOL     OW83703   2.395  10.973   0.694
93955SOL    HW183704   2.481  10.939   0.717
93955SOL    HW283705   2.410  11.066   0.677
93956SOL     OW83706   4.450   3.184   9.844
93956SOL    HW183707   4.482   3.125   9.776
93956SOL    HW283708   4.356   3.168   9.849
93957SOL     OW83709   5.855  11.692  14.604
93957SOL    HW183710   5.935  11.723  14.562
93957SOL    HW283711   5.836  11.609  14.561
93958SOL     OW83712   1.276   8.112  10.543
93958SOL    HW183713   1.349   8.113  10.605
93958SOL    HW283714   1.231   8.195  10.558
93959SOL     OW83715   6.953   6.764   4.785
93959SOL    HW183716   6.879   6.786   4.842
93959SOL    HW283717   7.020   6.829   4.807
93960SOL     OW83718  11.485  12.352  12.673
93960SOL    HW183719  11.577  12.381  12.674
93960SOL    HW283720  11.477  12.300  12.594
93961SOL     OW83721   7.867   3.648   3.821
93961SOL    HW183722   7.930   3.659   3.750
93961SOL    HW283723   7.888   3.564   3.860
93962SOL     OW83724  13.233  11.066   8.415
93962SOL    HW183725  13.218  10.987   8.362
93962SOL    HW283726  13.185  11.050   8.496
93963SOL     OW83727   1.965   5.573   4.145
93963SOL    HW183728   1.934   5.622   4.069
93963SOL    HW283729   2.048   5.615   4.168
93964SOL     OW83730   0.309  11.093   2.455
93964SOL    HW183731   0.250  11.152   2.407
93964SOL    HW283732   0.287  11.006   2.422
93965SOL     OW83733   7.470  13.747   4.330
93965SOL    HW183734   7.427  13.758   4.415
93965SOL    HW283735   7.508  13.659   4.332
93966SOL     OW83736   5.725   6.507  14.410
93966SOL    HW183737   5.746   6.418  14.439
93966SOL    HW283738   5.643   6.528  14.456
93967SOL     OW83739  13.792   6.959   8.965
93967SOL    HW183740  13.884   6.952   8.989
93967SOL    HW283741  13.747   6.976   9.047
93968SOL     OW83742  14.690   6.890   6.740
93968SOL    HW183743  14.753   6.941   6.688
93968SOL    HW283744  14.658   6.823   6.679
93969SOL     OW83745   5.107  11.798   6.542
93969SOL    HW183746   5.197  11.829   6.540
93969SOL    HW283747   5.059  11.865   6.591
93970SOL     OW83748   8.484   5.302   1.224
93970SOL    HW183749   8.543   5.340   1.289
93970SOL    HW283750   8.475   5.210   1.251
93971SOL     OW83751   9.155  11.428   5.451
93971SOL    HW183752   9.187  11.518   5.448
93971SOL    HW283753   9.097  11.421   5.375
93972SOL     OW83754  12.426  11.322  14.530
93972SOL    HW183755  12.458  11.365  14.451
93972SOL    HW283756  12.334  11.302  14.510
93973SOL     OW83757  11.487  14.073  11.885
93973SOL    HW183758  11.536  14.146  11.847
93973SOL    HW283759  11.488  14.006  11.816
93974SOL     OW83760  11.214   5.312   5.246
93974SOL    HW183761  11.291   5.263   5.274
93974SOL    HW283762  11.191   5.365   5.322
93975SOL     OW83763  14.173   3.152  13.302
93975SOL    HW183764  14.114   3.221  13.273
93975SOL    HW283765  14.150   3.076  13.247
93976SOL     OW83766   5.538  12.435   2.104
93976SOL    HW183767   5.547  12.371   2.033
93976SOL    HW283768   5.619  12.486   2.101
93977SOL     OW83769   6.248   7.344   4.044
93977SOL    HW183770   6.296   7.261   4.038
93977SOL    HW283771   6.191   7.333   4.120
93978SOL     OW83772   7.079   3.379   8.458
93978SOL    HW183773   7.095   3.338   8.373
93978SOL    HW283774   7.146   3.448   8.464
93979SOL     OW83775  10.154  13.115   1.726
93979SOL    HW183776  10.212  13.115   1.802
93979SOL    HW283777  10.202  13.161   1.658
93980SOL     OW83778  11.268   7.358   9.280
93980SOL    HW183779  11.251   7.422   9.211
93980SOL    HW283780  11.188   7.305   9.285
93981SOL     OW83781  14.118  10.851  12.443
93981SOL    HW183782  14.103  10.763  12.407
93981SOL    HW283783  14.195  10.883  12.397
93982SOL     OW83784  14.213  11.938  10.702
93982SOL    HW183785  14.291  11.885  10.722
93982SOL    HW283786  14.166  11.943  10.785
93983SOL     OW83787   4.778   0.785  12.447
93983SOL    HW183788   4.724   0.858  12.477
93983SOL    HW283789   4.716   0.723  12.409
93984SOL     OW83790  14.076   1.376  10.791
93984SOL    HW183791  14.086   1.313  10.863
93984SOL    HW283792  14.067   1.461  10.835
93985SOL     OW83793   1.144   8.139   8.852
93985SOL    HW183794   1.116   8.156   8.942
93985SOL    HW283795   1.222   8.193   8.841
93986SOL     OW83796   4.633   1.991   3.913
93986SOL    HW183797   4.655   1.905   3.878
93986SOL    HW283798   4.538   1.991   3.917
93987SOL     OW83799  10.255   1.395   8.647
93987SOL    HW183800  10.194   1.407   8.574
93987SOL    HW283801  10.340   1.423   8.612
93988SOL     OW83802  11.008  14.844   0.050
93988SOL    HW183803  11.022   0.042  14.867
93988SOL    HW283804  11.046  14.769   0.004
93989SOL     OW83805  13.209  12.305  11.050
93989SOL    HW183806  13.134  12.343  11.096
93989SOL    HW283807  13.270  12.281  11.120
93990SOL     OW83808  14.795   3.280  14.307
93990SOL    HW183809  14.809   3.227  14.229
93990SOL    HW283810  14.737   3.227  14.362
93991SOL     OW83811   1.110  12.906   9.871
93991SOL    HW183812   1.040  12.952   9.916
93991SOL    HW283813   1.164  12.976   9.834
93992SOL     OW83814   4.928   2.760   7.051
93992SOL    HW183815   4.955   2.777   7.141
93992SOL    HW283816   5.010   2.764   7.001
93993SOL     OW83817  13.781  13.580   2.066
93993SOL    HW183818  13.781  13.594   1.972
93993SOL    HW283819  13.798  13.486   2.076
93994SOL     OW83820  14.440   4.763  14.730
93994SOL    HW183821  14.382   4.696  14.696
93994SOL    HW283822  14.501   4.782  14.658
93995SOL     OW83823  11.944   0.233   6.043
93995SOL    HW183824  12.031   0.205   6.072
93995SOL    HW283825  11.891   0.233   6.123
93996SOL     OW83826   7.888   0.041  13.500
93996SOL    HW183827   7.960  14.857  13.520
93996SOL    HW283828   7.887   0.046  13.404
93997SOL     OW83829   4.296   0.697   6.694
93997SOL    HW183830   4.302   0.726   6.785
93997SOL    HW283831   4.364   0.747   6.648
93998SOL     OW83832   1.272   6.062   0.592
93998SOL    HW183833   1.185   6.085   0.558
93998SOL    HW283834   1.255   5.991   0.654
93999SOL     OW83835   6.896   4.329   1.398
93999SOL    HW183836   6.811   4.287   1.394
93999SOL    HW283837   6.887   4.407   1.343
94000SOL     OW83838   8.461   8.326   7.490
94000SOL    HW183839   8.401   8.381   7.440
94000SOL    HW283840   8.539   8.381   7.504
94001SOL     OW83841  10.008  10.013   7.916
94001SOL    HW183842  10.046   9.926   7.899
94001SOL    HW283843   9.991  10.048   7.829
94002SOL     OW83844  13.577  12.235  10.033
94002SOL    HW183845  13.512  12.212   9.966
94002SOL    HW283846  13.608  12.322  10.007
94003SOL     OW83847   7.094   5.807   8.038
94003SOL    HW183848   7.013   5.768   8.071
94003SOL    HW283849   7.164   5.752   8.074
94004SOL     OW83850   0.364   4.001   3.823
94004SOL    HW183851   0.294   4.046   3.775
94004SOL    HW283852   0.338   3.909   3.822
94005SOL     OW83853  12.887  12.163   4.502
94005SOL    HW183854  12.944  12.166   4.425
94005SOL    HW283855  12.824  12.233   4.489
94006SOL     OW83856   3.896   5.020  10.273
94006SOL    HW183857   3.888   4.925  10.264
94006SOL    HW283858   3.858   5.054  10.192
94007SOL     OW83859  10.792   2.131   1.548
94007SOL    HW183860  10.820   2.040   1.534
94007SOL    HW283861  10.781   2.166   1.460
94008SOL     OW83862   0.254   0.077   2.254
94008SOL    HW183863   0.249   0.068   2.349
94008SOL    HW283864   0.164   0.064   2.224
94009SOL     OW83865   1.339  13.022   1.116
94009SOL    HW183866   1.384  13.015   1.032
94009SOL    HW283867   1.275  12.951   1.115
94010SOL     OW83868   4.660   3.572   1.186
94010SOL    HW183869   4.728   3.639   1.189
94010SOL    HW283870   4.708   3.489   1.182
94011SOL     OW83871   9.669   9.279   6.236
94011SOL    HW183872   9.598   9.276   6.172
94011SOL    HW283873   9.714   9.361   6.218
94012SOL     OW83874  11.652   0.149   0.633
94012SOL    HW183875  11.710   0.074   0.622
94012SOL    HW283876  11.701   0.223   0.596
94013SOL     OW83877  12.215  14.272  11.876
94013SOL    HW183878  12.255  14.203  11.930
94013SOL    HW283879  12.122  14.251  11.876
94014SOL     OW83880   0.111   9.237   6.399
94014SOL    HW183881   0.054   9.161   6.410
94014SOL    HW283882   0.079   9.279   6.319
94015SOL     OW83883  12.423   9.906   8.978
94015SOL    HW183884  12.482   9.918   9.053
94015SOL    HW283885  12.479   9.869   8.910
94016SOL     OW83886   8.527  11.703   8.342
94016SOL    HW183887   8.533  11.797   8.356
94016SOL    HW283888   8.508  11.694   8.248
94017SOL     OW83889   2.750  12.080   6.882
94017SOL    HW183890   2.668  12.119   6.914
94017SOL    HW283891   2.788  12.148   6.826
94018SOL     OW83892   7.688   4.623   7.297
94018SOL    HW183893   7.636   4.547   7.271
94018SOL    HW283894   7.639   4.698   7.263
94019SOL     OW83895   8.209  12.291   2.141
94019SOL    HW183896   8.120  12.258   2.133
94019SOL    HW283897   8.215  12.360   2.075
94020SOL     OW83898  14.515   1.358   1.658
94020SOL    HW183899  14.609   1.344   1.663
94020SOL    HW283900  14.479   1.307   1.730
94021SOL     OW83901   3.939  14.658   4.696
94021SOL    HW183902   3.955  14.601   4.771
94021SOL    HW283903   3.846  14.682   4.703
94022SOL     OW83904  14.650   1.245   4.983
94022SOL    HW183905  14.591   1.211   4.916
94022SOL    HW283906  14.726   1.276   4.935
94023SOL     OW83907  14.794   0.551   5.917
94023SOL    HW183908  14.751   0.630   5.883
94023SOL    HW283909  14.789   0.488   5.845
94024SOL     OW83910   3.842   4.341   9.825
94024SOL    HW183911   3.854   4.433   9.800
94024SOL    HW283912   3.925   4.316   9.866
94025SOL     OW83913  12.944   1.473  12.208
94025SOL    HW183914  13.001   1.397  12.198
94025SOL    HW283915  12.897   1.479  12.125
94026SOL     OW83916   5.096   4.108   0.179
94026SOL    HW183917   5.148   4.061   0.114
94026SOL    HW283918   5.130   4.198   0.177
94027SOL     OW83919   0.146   4.193   3.420
94027SOL    HW183920   0.141   4.133   3.495
94027SOL    HW283921   0.231   4.236   3.431
94028SOL     OW83922   1.146   8.064   4.274
94028SOL    HW183923   1.231   8.103   4.297
94028SOL    HW283924   1.165   8.007   4.199
94029SOL     OW83925   1.999  13.619  12.887
94029SOL    HW183926   1.981  13.542  12.940
94029SOL    HW283927   1.915  13.640  12.846
94030SOL     OW83928  10.772   3.520   7.269
94030SOL    HW183929  10.775   3.443   7.326
94030SOL    HW283930  10.711   3.496   7.199
94031SOL     OW83931   4.269   3.839   1.708
94031SOL    HW183932   4.216   3.896   1.651
94031SOL    HW283933   4.235   3.751   1.692
94032SOL     OW83934   7.959   4.514   9.219
94032SOL    HW183935   7.916   4.561   9.291
94032SOL    HW283936   8.001   4.439   9.262
94033SOL     OW83937  11.929   6.103   9.862
94033SOL    HW183938  11.871   6.027   9.856
94033SOL    HW283939  11.945   6.129   9.772
94034SOL     OW83940   9.258   1.785   7.883
94034SOL    HW183941   9.322   1.854   7.904
94034SOL    HW283942   9.175   1.819   7.915
94035SOL     OW83943   2.855  11.120  14.351
94035SOL    HW183944   2.761  11.130  14.334
94035SOL    HW283945   2.860  11.050  14.416
94036SOL     OW83946   1.570   1.877  10.240
94036SOL    HW183947   1.597   1.965  10.266
94036SOL    HW283948   1.587   1.823  10.317
94037SOL     OW83949   1.277   6.476  13.431
94037SOL    HW183950   1.321   6.551  13.391
94037SOL    HW283951   1.285   6.492  13.525
94038SOL     OW83952   0.257   6.806   3.777
94038SOL    HW183953   0.186   6.803   3.842
94038SOL    HW283954   0.328   6.756   3.818
94039SOL     OW83955   0.844   1.555  10.361
94039SOL    HW183956   0.828   1.472  10.405
94039SOL    HW283957   0.931   1.546  10.323
94040SOL     OW83958   1.296   2.092  10.698
94040SOL    HW183959   1.268   2.033  10.769
94040SOL    HW283960   1.235   2.074  10.626
94041SOL     OW83961   1.080  10.724   8.759
94041SOL    HW183962   1.025  10.799   8.783
94041SOL    HW283963   1.027  10.647   8.782
94042SOL     OW83964   3.324   8.750   1.114
94042SOL    HW183965   3.401   8.753   1.171
94042SOL    HW283966   3.293   8.660   1.120
94043SOL     OW83967   2.767  10.815  12.541
94043SOL    HW183968   2.764  10.901  12.500
94043SOL    HW283969   2.826  10.764  12.485
94044SOL     OW83970  10.324   7.582   9.978
94044SOL    HW183971  10.395   7.519   9.982
94044SOL    HW283972  10.334   7.625   9.893
94045SOL     OW83973   0.525   7.229   8.586
94045SOL    HW183974   0.618   7.250   8.584
94045SOL    HW283975   0.488   7.285   8.654
94046SOL     OW83976  11.069   8.011   5.594
94046SOL    HW183977  11.054   7.949   5.523
94046SOL    HW283978  11.161   8.036   5.586
94047SOL     OW83979  12.948   5.628   2.344
94047SOL    HW183980  12.914   5.706   2.388
94047SOL    HW283981  12.872   5.589   2.301
94048SOL     OW83982   2.638  14.745   5.840
94048SOL    HW183983   2.584  14.678   5.883
94048SOL    HW283984   2.723  14.739   5.883
94049SOL     OW83985   0.005  10.362  13.138
94049SOL    HW183986   0.061  10.285  13.129
94049SOL    HW283987  14.839  10.371  13.052
94050SOL     OW83988   9.535   5.413   8.885
94050SOL    HW183989   9.624   5.379   8.897
94050SOL    HW283990   9.517   5.462   8.966
94051SOL     OW83991   3.135   9.175  11.796
94051SOL    HW183992   3.229   9.180  11.777
94051SOL    HW283993   3.126   9.213  11.884
94052SOL     OW83994   0.461   3.525  12.102
94052SOL    HW183995   0.398   3.524  12.030
94052SOL    HW283996   0.515   3.447  12.087
94053SOL     OW83997  11.773   0.466   9.532
94053SOL    HW183998  11.718   0.519   9.589
94053SOL    HW283999  11.741   0.377   9.544
94054SOL     OW84000   8.062  10.095  14.523
94054SOL    HW184001   8.102  10.170  14.568
94054SOL    HW284002   8.097  10.099  14.434
94055SOL     OW84003  11.302   5.628   3.087
94055SOL    HW184004  11.373   5.566   3.072
94055SOL    HW284005  11.231   5.598   3.030
94056SOL     OW84006   5.661   0.883  10.109
94056SOL    HW184007   5.650   0.910  10.019
94056SOL    HW284008   5.617   0.950  10.161
94057SOL     OW84009   0.770  13.416  10.730
94057SOL    HW184010   0.712  13.412  10.654
94057SOL    HW284011   0.732  13.354  10.793
94058SOL     OW84012  11.806   4.302   8.876
94058SOL    HW184013  11.794   4.207   8.872
94058SOL    HW284014  11.799   4.331   8.784
94059SOL     OW84015  14.698   9.638   7.967
94059SOL    HW184016  14.623   9.660   8.021
94059SOL    HW284017  14.666   9.643   7.877
94060SOL     OW84018   6.745   2.024  12.491
94060SOL    HW184019   6.752   1.939  12.535
94060SOL    HW284020   6.675   2.012  12.427
94061SOL     OW84021   8.301   9.547  11.376
94061SOL    HW184022   8.347   9.538  11.459
94061SOL    HW284023   8.295   9.642  11.362
94062SOL     OW84024   5.593   2.464   5.462
94062SOL    HW184025   5.603   2.393   5.399
94062SOL    HW284026   5.631   2.430   5.543
94063SOL     OW84027  12.113   0.647  10.401
94063SOL    HW184028  12.185   0.640  10.464
94063SOL    HW284029  12.120   0.736  10.368
94064SOL     OW84030   2.073  11.000   8.813
94064SOL    HW184031   1.984  11.031   8.831
94064SOL    HW284032   2.060  10.917   8.767
94065SOL     OW84033   6.866   1.717   9.236
94065SOL    HW184034   6.783   1.752   9.267
94065SOL    HW284035   6.888   1.770   9.159
94066SOL     OW84036   9.586   4.043   3.539
94066SOL    HW184037   9.497   4.078   3.531
94066SOL    HW284038   9.585   3.993   3.620
94067SOL     OW84039   7.412   1.849   5.555
94067SOL    HW184040   7.334   1.853   5.610
94067SOL    HW284041   7.456   1.933   5.570
94068SOL     OW84042   9.863   9.244  10.356
94068SOL    HW184043   9.953   9.263  10.380
94068SOL    HW284044   9.811   9.305  10.409
94069SOL     OW84045   9.953   5.886   4.298
94069SOL    HW184046  10.040   5.919   4.319
94069SOL    HW284047   9.963   5.791   4.299
94070SOL     OW84048  14.199  12.752   4.929
94070SOL    HW184049  14.247  12.771   4.849
94070SOL    HW284050  14.161  12.836   4.955
94071SOL     OW84051   3.110   1.086  10.452
94071SOL    HW184052   3.152   1.000  10.442
94071SOL    HW284053   3.054   1.094  10.375
94072SOL     OW84054   6.017   9.127   7.043
94072SOL    HW184055   5.957   9.202   7.038
94072SOL    HW284056   6.039   9.120   7.136
94073SOL     OW84057  11.299  14.872   1.321
94073SOL    HW184058  11.382  14.834   1.350
94073SOL    HW284059  11.241  14.861   1.396
94074SOL     OW84060   8.591  11.391   7.791
94074SOL    HW184061   8.500  11.388   7.764
94074SOL    HW284062   8.600  11.474   7.838
94075SOL     OW84063  10.600   4.164  13.179
94075SOL    HW184064  10.628   4.247  13.142
94075SOL    HW284065  10.537   4.188  13.247
94076SOL     OW84066   2.669   8.657  13.504
94076SOL    HW184067   2.609   8.627  13.572
94076SOL    HW284068   2.613   8.700  13.440
94077SOL     OW84069   3.207   5.640   1.238
94077SOL    HW184070   3.149   5.713   1.216
94077SOL    HW284071   3.293   5.680   1.249
94078SOL     OW84072   7.323   9.870   0.028
94078SOL    HW184073   7.302   9.959   0.055
94078SOL    HW284074   7.258   9.849  14.838
94079SOL     OW84075   4.442   5.304   4.673
94079SOL    HW184076   4.435   5.327   4.765
94079SOL    HW284077   4.411   5.214   4.668
94080SOL     OW84078   9.769   4.932   8.312
94080SOL    HW184079   9.804   4.978   8.388
94080SOL    HW284080   9.727   5.000   8.259
94081SOL     OW84081   7.944   9.892   1.685
94081SOL    HW184082   8.033   9.907   1.653
94081SOL    HW284083   7.946   9.922   1.776
94082SOL     OW84084   6.714   4.987   1.775
94082SOL    HW184085   6.673   4.920   1.720
94082SOL    HW284086   6.695   4.960   1.864
94083SOL     OW84087   9.734   1.389   0.324
94083SOL    HW184088   9.803   1.425   0.267
94083SOL    HW284089   9.781   1.333   0.386
94084SOL     OW84090   9.129  10.791   5.756
94084SOL    HW184091   9.078  10.713   5.777
94084SOL    HW284092   9.113  10.850   5.830
94085SOL     OW84093  14.585   0.704   4.372
94085SOL    HW184094  14.522   0.656   4.318
94085SOL    HW284095  14.644   0.637   4.406
94086SOL     OW84096   5.637   5.359  10.597
94086SOL    HW184097   5.582   5.339  10.521
94086SOL    HW284098   5.715   5.306  10.585
94087SOL     OW84099   4.052  12.720  10.772
94087SOL    HW184100   3.962  12.740  10.795
94087SOL    HW284101   4.095  12.805  10.766
94088SOL     OW84102  10.428  12.767  12.223
94088SOL    HW184103  10.406  12.674  12.225
94088SOL    HW284104  10.354  12.809  12.181
94089SOL     OW84105  12.616   2.113  14.760
94089SOL    HW184106  12.601   2.082  14.671
94089SOL    HW284107  12.549   2.070  14.812
94090SOL     OW84108   2.880   2.839   6.009
94090SOL    HW184109   2.967   2.838   5.969
94090SOL    HW284110   2.856   2.932   6.012
94091SOL     OW84111   1.485  13.829   9.619
94091SOL    HW184112   1.399  13.872   9.623
94091SOL    HW284113   1.519  13.837   9.708
94092SOL     OW84114   0.821  10.032   3.092
94092SOL    HW184115   0.900  10.036   3.146
94092SOL    HW284116   0.851   9.995   3.009
94093SOL     OW84117   1.652  10.015   4.344
94093SOL    HW184118   1.618   9.929   4.320
94093SOL    HW284119   1.635  10.022   4.438
94094SOL     OW84120   9.010   4.764   5.732
94094SOL    HW184121   9.028   4.850   5.770
94094SOL    HW284122   9.048   4.769   5.644
94095SOL     OW84123   2.903  12.798  12.228
94095SOL    HW184124   2.812  12.804  12.254
94095SOL    HW284125   2.943  12.880  12.258
94096SOL     OW84126  13.600   0.573   7.442
94096SOL    HW184127  13.609   0.515   7.518
94096SOL    HW284128  13.584   0.513   7.369
94097SOL     OW84129  10.780  10.487   6.534
94097SOL    HW184130  10.797  10.577   6.560
94097SOL    HW284131  10.814  10.434   6.606
94098SOL     OW84132  12.021  10.720   4.490
94098SOL    HW184133  12.046  10.811   4.476
94098SOL    HW284134  12.094  10.669   4.454
94099SOL     OW84135   7.441   8.263  13.654
94099SOL    HW184136   7.460   8.304  13.738
94099SOL    HW284137   7.453   8.169  13.669
94100SOL     OW84138  12.944   3.471   2.869
94100SOL    HW184139  13.012   3.502   2.809
94100SOL    HW284140  12.889   3.414   2.816
94101SOL     OW84141   2.643  10.878   1.388
94101SOL    HW184142   2.701  10.901   1.316
94101SOL    HW284143   2.697  10.885   1.466
94102SOL     OW84144   8.621  10.353   8.533
94102SOL    HW184145   8.654  10.395   8.453
94102SOL    HW284146   8.574  10.423   8.578
94103SOL     OW84147  10.187  10.009  14.174
94103SOL    HW184148  10.200  10.093  14.219
94103SOL    HW284149  10.200   9.943  14.241
94104SOL     OW84150   5.438   9.129   0.186
94104SOL    HW184151   5.447   9.036   0.207
94104SOL    HW284152   5.418   9.171   0.270
94105SOL     OW84153   0.144   7.674  14.308
94105SOL    HW184154   0.122   7.614  14.379
94105SOL    HW284155   0.061   7.689  14.262
94106SOL     OW84156   2.264   8.799   0.605
94106SOL    HW184157   2.227   8.872   0.656
94106SOL    HW284158   2.269   8.832   0.516
94107SOL     OW84159   3.253  11.446   8.385
94107SOL    HW184160   3.236  11.539   8.398
94107SOL    HW284161   3.329  11.444   8.326
94108SOL     OW84162   2.546   0.080  12.286
94108SOL    HW184163   2.629   0.054  12.247
94108SOL    HW284164   2.561   0.075  12.380
94109SOL     OW84165   1.865  10.744   6.087
94109SOL    HW184166   1.782  10.783   6.057
94109SOL    HW284167   1.924  10.818   6.099
94110SOL     OW84168   1.242   0.923   3.890
94110SOL    HW184169   1.299   0.884   3.957
94110SOL    HW284170   1.298   0.933   3.813
94111SOL     OW84171   2.952   5.265  13.768
94111SOL    HW184172   2.989   5.217  13.694
94111SOL    HW284173   2.872   5.216  13.790
94112SOL     OW84174   1.537   6.629   9.330
94112SOL    HW184175   1.442   6.635   9.330
94112SOL    HW284176   1.564   6.665   9.246
94113SOL     OW84177  13.817   0.841   1.460
94113SOL    HW184178  13.834   0.786   1.536
94113SOL    HW284179  13.903   0.856   1.421
94114SOL     OW84180   8.102   6.725   9.669
94114SOL    HW184181   8.169   6.776   9.715
94114SOL    HW284182   8.068   6.785   9.603
94115SOL     OW84183   1.759  14.095   4.950
94115SOL    HW184184   1.815  14.166   4.981
94115SOL    HW284185   1.715  14.131   4.873
94116SOL     OW84186   5.500   1.362   0.004
94116SOL    HW184187   5.425   1.303  14.868
94116SOL    HW284188   5.552   1.321   0.073
94117SOL     OW84189   8.122   6.910   0.404
94117SOL    HW184190   8.134   6.840   0.468
94117SOL    HW284191   8.199   6.966   0.416
94118SOL     OW84192   4.220   1.011   7.841
94118SOL    HW184193   4.127   1.022   7.823
94118SOL    HW284194   4.226   0.928   7.889
94119SOL     OW84195  10.566  14.642   5.103
94119SOL    HW184196  10.475  14.666   5.085
94119SOL    HW284197  10.589  14.693   5.180
94120SOL     OW84198   7.298  11.646   2.878
94120SOL    HW184199   7.283  11.558   2.845
94120SOL    HW284200   7.210  11.682   2.892
94121SOL     OW84201  14.850  11.174   1.226
94121SOL    HW184202   0.041  11.226   1.271
94121SOL    HW284203  14.819  11.112   1.292
94122SOL     OW84204   7.392   0.555   1.648
94122SOL    HW184205   7.458   0.524   1.710
94122SOL    HW284206   7.314   0.503   1.668
94123SOL     OW84207   3.755  14.752  11.408
94123SOL    HW184208   3.764  14.704  11.326
94123SOL    HW284209   3.763  14.844  11.383
94124SOL     OW84210  12.416   2.465   9.443
94124SOL    HW184211  12.372   2.441   9.361
94124SOL    HW284212  12.442   2.381   9.481
94125SOL     OW84213   7.952   8.395   7.121
94125SOL    HW184214   7.953   8.450   7.199
94125SOL    HW284215   8.015   8.326   7.139
94126SOL     OW84216  10.619   7.921  13.356
94126SOL    HW184217  10.676   7.844  13.363
94126SOL    HW284218  10.591   7.939  13.445
94127SOL     OW84219   5.744   7.423  13.632
94127SOL    HW184220   5.798   7.373  13.694
94127SOL    HW284221   5.686   7.359  13.593
94128SOL     OW84222  13.176   8.099   3.512
94128SOL    HW184223  13.143   8.137   3.593
94128SOL    HW284224  13.145   8.157   3.443
94129SOL     OW84225   3.687  12.225   9.855
94129SOL    HW184226   3.619  12.264   9.800
94129SOL    HW284227   3.675  12.266   9.941
94130SOL     OW84228   4.872   8.823  11.650
94130SOL    HW184229   4.780   8.810  11.630
94130SOL    HW284230   4.908   8.868  11.573
94131SOL     OW84231   8.045   4.453  11.153
94131SOL    HW184232   8.014   4.534  11.113
94131SOL    HW284233   8.117   4.480  11.209
94132SOL     OW84234   1.368   9.556   6.632
94132SOL    HW184235   1.289   9.502   6.637
94132SOL    HW284236   1.411   9.542   6.717
94133SOL     OW84237   2.310   3.033   5.343
94133SOL    HW184238   2.270   3.018   5.429
94133SOL    HW284239   2.331   2.946   5.310
94134SOL     OW84240   4.592  10.723  10.349
94134SOL    HW184241   4.650  10.652  10.323
94134SOL    HW284242   4.611  10.736  10.442
94135SOL     OW84243  10.238  13.026   2.222
94135SOL    HW184244  10.182  12.962   2.265
94135SOL    HW284245  10.320  13.023   2.271
94136SOL     OW84246   1.741   5.640   6.382
94136SOL    HW184247   1.776   5.668   6.466
94136SOL    HW284248   1.683   5.711   6.355
94137SOL     OW84249   0.901   9.593   6.300
94137SOL    HW184250   0.970   9.529   6.286
94137SOL    HW284251   0.850   9.558   6.374
94138SOL     OW84252  14.539   5.148   8.786
94138SOL    HW184253  14.491   5.096   8.723
94138SOL    HW284254  14.623   5.103   8.796
94139SOL     OW84255   4.067   5.415   2.043
94139SOL    HW184256   4.073   5.473   1.968
94139SOL    HW284257   4.106   5.333   2.013
94140SOL     OW84258  14.805   5.739  11.931
94140SOL    HW184259  14.870   5.767  11.995
94140SOL    HW284260  14.750   5.816  11.916
94141SOL     OW84261   2.852   9.455  11.940
94141SOL    HW184262   2.809   9.370  11.945
94141SOL    HW284263   2.868   9.480  12.031
94142SOL     OW84264   4.115   7.784   6.960
94142SOL    HW184265   4.082   7.872   6.979
94142SOL    HW284266   4.046   7.743   6.908
94143SOL     OW84267  12.131   7.746   4.960
94143SOL    HW184268  12.220   7.747   4.996
94143SOL    HW284269  12.131   7.814   4.893
94144SOL     OW84270   2.976   7.700  10.144
94144SOL    HW184271   3.028   7.625  10.114
94144SOL    HW284272   2.943   7.674  10.230
94145SOL     OW84273   2.982  10.216   4.640
94145SOL    HW184274   3.034  10.292   4.666
94145SOL    HW284275   2.995  10.153   4.711
94146SOL     OW84276   5.924  10.683  14.395
94146SOL    HW184277   5.897  10.727  14.314
94146SOL    HW284278   6.017  10.662  14.381
94147SOL     OW84279  11.174   4.199  11.372
94147SOL    HW184280  11.261   4.170  11.346
94147SOL    HW284281  11.182   4.222  11.464
94148SOL     OW84282   6.390   8.015   2.045
94148SOL    HW184283   6.366   7.964   2.122
94148SOL    HW284284   6.312   8.066   2.025
94149SOL     OW84285   8.988   4.856   3.267
94149SOL    HW184286   8.994   4.871   3.173
94149SOL    HW284287   8.942   4.932   3.302
94150SOL     OW84288   9.095  13.935   8.657
94150SOL    HW184289   9.173  13.881   8.672
94150SOL    HW284290   9.077  13.927   8.564
94151SOL     OW84291   9.458  12.823   9.263
94151SOL    HW184292   9.477  12.834   9.170
94151SOL    HW284293   9.483  12.906   9.303
94152SOL     OW84294   8.666   8.472   7.550
94152SOL    HW184295   8.714   8.530   7.492
94152SOL    HW284296   8.589   8.523   7.577
94153SOL     OW84297  14.073   9.006   4.387
94153SOL    HW184298  14.000   9.054   4.347
94153SOL    HW284299  14.047   8.994   4.478
94154SOL     OW84300   2.429   9.009   4.106
94154SOL    HW184301   2.411   9.050   4.191
94154SOL    HW284302   2.346   9.011   4.060
94155SOL     OW84303   3.540   5.127   9.883
94155SOL    HW184304   3.596   5.191   9.838
94155SOL    HW284305   3.451   5.149   9.855
94156SOL     OW84306   3.693   1.516   8.957
94156SOL    HW184307   3.642   1.568   8.895
94156SOL    HW284308   3.649   1.431   8.960
94157SOL     OW84309  12.118   2.262   8.579
94157SOL    HW184310  12.156   2.199   8.640
94157SOL    HW284311  12.075   2.208   8.513
94158SOL     OW84312   1.066   1.392   1.902
94158SOL    HW184313   1.078   1.325   1.969
94158SOL    HW284314   1.096   1.351   1.821
94159SOL     OW84315   8.471   3.214   7.592
94159SOL    HW184316   8.452   3.273   7.665
94159SOL    HW284317   8.398   3.152   7.593
94160SOL     OW84318   6.151   9.922   7.223
94160SOL    HW184319   6.064   9.943   7.189
94160SOL    HW284320   6.209   9.933   7.147
94161SOL     OW84321   1.783  13.421   6.262
94161SOL    HW184322   1.688  13.408   6.256
94161SOL    HW284323   1.809  13.450   6.174
94162SOL     OW84324  12.356   9.666   8.256
94162SOL    HW184325  12.427   9.669   8.192
94162SOL    HW284326  12.314   9.752   8.250
94163SOL     OW84327   7.635  12.478   5.202
94163SOL    HW184328   7.711  12.485   5.145
94163SOL    HW284329   7.647  12.395   5.248
94164SOL     OW84330  13.145   0.385   6.642
94164SOL    HW184331  13.215   0.329   6.608
94164SOL    HW284332  13.065   0.335   6.627
94165SOL     OW84333  14.192   0.203  14.660
94165SOL    HW184334  14.272   0.256  14.669
94165SOL    HW284335  14.204   0.132  14.723
94166SOL     OW84336   7.205  12.154   8.334
94166SOL    HW184337   7.241  12.236   8.368
94166SOL    HW284338   7.251  12.086   8.383
94167SOL     OW84339  12.654  11.835   9.806
94167SOL    HW184340  12.625  11.780   9.878
94167SOL    HW284341  12.675  11.919   9.846
94168SOL     OW84342  12.802   7.175   6.310
94168SOL    HW184343  12.835   7.189   6.221
94168SOL    HW284344  12.728   7.115   6.298
94169SOL     OW84345   8.240   3.390   4.029
94169SOL    HW184346   8.298   3.354   4.097
94169SOL    HW284347   8.298   3.409   3.955
94170SOL     OW84348   6.440  13.262   8.473
94170SOL    HW184349   6.416  13.268   8.565
94170SOL    HW284350   6.501  13.189   8.468
94171SOL     OW84351   7.410   0.440  11.105
94171SOL    HW184352   7.342   0.416  11.167
94171SOL    HW284353   7.379   0.521  11.065
94172SOL     OW84354   0.598   7.019   9.162
94172SOL    HW184355   0.682   6.976   9.148
94172SOL    HW284356   0.535   6.947   9.171
94173SOL     OW84357   0.410   7.428   3.689
94173SOL    HW184358   0.502   7.411   3.668
94173SOL    HW284359   0.398   7.387   3.774
94174SOL     OW84360  10.660   0.036   0.257
94174SOL    HW184361  10.598  14.844   0.281
94174SOL    HW284362  10.745   0.001   0.285
94175SOL     OW84363   0.809   6.517   1.118
94175SOL    HW184364   0.801   6.552   1.206
94175SOL    HW284365   0.836   6.592   1.065
94176SOL     OW84366   6.592   6.019  14.205
94176SOL    HW184367   6.602   5.924  14.201
94176SOL    HW284368   6.653   6.052  14.139
94177SOL     OW84369   9.166   1.765   4.480
94177SOL    HW184370   9.093   1.726   4.528
94177SOL    HW284371   9.242   1.750   4.537
94178SOL     OW84372  13.363   4.717   8.464
94178SOL    HW184373  13.364   4.622   8.471
94178SOL    HW284374  13.312   4.746   8.541
94179SOL     OW84375  11.587  10.237   2.723
94179SOL    HW184376  11.511  10.295   2.730
94179SOL    HW284377  11.632  10.267   2.644
94180SOL     OW84378  11.573   8.355   3.834
94180SOL    HW184379  11.598   8.277   3.884
94180SOL    HW284380  11.640   8.361   3.766
94181SOL     OW84381   2.917   7.674   7.564
94181SOL    HW184382   2.965   7.599   7.531
94181SOL    HW284383   2.984   7.740   7.582
94182SOL     OW84384   6.122  10.536  10.391
94182SOL    HW184385   6.040  10.584  10.405
94182SOL    HW284386   6.160  10.529  10.478
94183SOL     OW84387   0.208   5.546   0.050
94183SOL    HW184388   0.163   5.462   0.061
94183SOL    HW284389   0.235   5.570   0.139
94184SOL     OW84390   6.777   1.206   0.382
94184SOL    HW184391   6.796   1.276   0.444
94184SOL    HW284392   6.686   1.181   0.401
94185SOL     OW84393  11.826   8.939  14.841
94185SOL    HW184394  11.762   9.010  14.844
94185SOL    HW284395  11.804   8.890  14.762
94186SOL     OW84396   9.326   4.661   7.195
94186SOL    HW184397   9.276   4.677   7.275
94186SOL    HW284398   9.402   4.719   7.201
94187SOL     OW84399   1.683   6.078   8.911
94187SOL    HW184400   1.639   6.047   8.832
94187SOL    HW284401   1.621   6.142   8.948
94188SOL     OW84402   5.583   5.096  14.511
94188SOL    HW184403   5.502   5.118  14.464
94188SOL    HW284404   5.575   5.003  14.530
94189SOL     OW84405   1.010   7.648   3.743
94189SOL    HW184406   1.025   7.658   3.837
94189SOL    HW284407   0.915   7.641   3.735
94190SOL     OW84408  14.587   3.217   2.165
94190SOL    HW184409  14.512   3.236   2.221
94190SOL    HW284410  14.637   3.152   2.215
94191SOL     OW84411   7.494  14.278   6.669
94191SOL    HW184412   7.582  14.267   6.633
94191SOL    HW284413   7.476  14.197   6.715
94192SOL     OW84414  10.046   4.098   3.350
94192SOL    HW184415   9.963   4.143   3.362
94192SOL    HW284416  10.091   4.149   3.282
94193SOL     OW84417   4.396   2.271   2.725
94193SOL    HW184418   4.320   2.228   2.764
94193SOL    HW284419   4.455   2.286   2.798
94194SOL     OW84420   9.782   0.453   9.649
94194SOL    HW184421   9.732   0.503   9.713
94194SOL    HW284422   9.870   0.448   9.686
94195SOL     OW84423  13.115   7.200   7.750
94195SOL    HW184424  13.174   7.182   7.824
94195SOL    HW284425  13.141   7.287   7.719
94196SOL     OW84426   9.831  11.225  14.694
94196SOL    HW184427   9.902  11.231  14.758
94196SOL    HW284428   9.780  11.149  14.722
94197SOL     OW84429  13.471   0.755   3.006
94197SOL    HW184430  13.453   0.670   2.965
94197SOL    HW284431  13.558   0.780   2.975
94198SOL     OW84432   5.291  12.534   2.001
94198SOL    HW184433   5.322  12.619   1.972
94198SOL    HW284434   5.365  12.496   2.049
94199SOL     OW84435   6.293  13.615  12.660
94199SOL    HW184436   6.358  13.545  12.665
94199SOL    HW284437   6.250  13.602  12.576
94200SOL     OW84438   2.476   3.418   3.350
94200SOL    HW184439   2.538   3.373   3.407
94200SOL    HW284440   2.497   3.511   3.361
94201SOL     OW84441   9.463   5.392   3.796
94201SOL    HW184442   9.431   5.481   3.783
94201SOL    HW284443   9.386   5.337   3.782
94202SOL     OW84444   2.826  10.114   3.725
94202SOL    HW184445   2.793  10.093   3.638
94202SOL    HW284446   2.905  10.059   3.734
94203SOL     OW84447   6.110   3.225   4.918
94203SOL    HW184448   6.184   3.177   4.956
94203SOL    HW284449   6.035   3.199   4.971
94204SOL     OW84450  13.881  11.873  14.610
94204SOL    HW184451  13.794  11.881  14.649
94204SOL    HW284452  13.920  11.960  14.619
94205SOL     OW84453   1.020  14.796   6.203
94205SOL    HW184454   0.960  14.856   6.160
94205SOL    HW284455   1.043  14.839   6.285
94206SOL     OW84456  13.284   6.991  12.961
94206SOL    HW184457  13.378   7.008  12.963
94206SOL    HW284458  13.270   6.926  13.030
94207SOL     OW84459  14.059   5.286   9.390
94207SOL    HW184460  14.059   5.191   9.402
94207SOL    HW284461  14.053   5.321   9.479
94208SOL     OW84462   1.904   4.243  12.393
94208SOL    HW184463   1.899   4.222  12.487
94208SOL    HW284464   1.950   4.327  12.390
94209SOL     OW84465   9.582   5.367  11.767
94209SOL    HW184466   9.677   5.355  11.764
94209SOL    HW284467   9.559   5.352  11.858
94210SOL     OW84468   8.267  11.330   6.742
94210SOL    HW184469   8.262  11.426   6.740
94210SOL    HW284470   8.259  11.304   6.650
94211SOL     OW84471  14.425  14.696  13.547
94211SOL    HW184472  14.409  14.714  13.640
94211SOL    HW284473  14.340  14.711  13.505
94212SOL     OW84474   0.993   4.486   0.319
94212SOL    HW184475   1.010   4.452   0.232
94212SOL    HW284476   1.075   4.471   0.367
94213SOL     OW84477   5.826   7.112   5.419
94213SOL    HW184478   5.816   7.207   5.423
94213SOL    HW284479   5.808   7.083   5.508
94214SOL     OW84480   0.796   2.675   0.904
94214SOL    HW184481   0.835   2.651   0.987
94214SOL    HW284482   0.784   2.770   0.910
94215SOL     OW84483  13.807   4.953   3.187
94215SOL    HW184484  13.890   4.940   3.234
94215SOL    HW284485  13.832   4.950   3.095
94216SOL     OW84486   7.602   3.690   3.868
94216SOL    HW184487   7.694   3.661   3.868
94216SOL    HW284488   7.588   3.720   3.958
94217SOL     OW84489   4.681   8.282   0.040
94217SOL    HW184490   4.732   8.268   0.120
94217SOL    HW284491   4.590   8.276   0.068
94218SOL     OW84492  10.280  10.135   1.486
94218SOL    HW184493  10.211  10.188   1.526
94218SOL    HW284494  10.244  10.047   1.483
94219SOL     OW84495   2.859   7.438  10.292
94219SOL    HW184496   2.824   7.369  10.348
94219SOL    HW284497   2.861   7.399  10.204
94220SOL     OW84498   9.760   2.590   7.220
94220SOL    HW184499   9.799   2.607   7.134
94220SOL    HW284500   9.706   2.667   7.238
94221SOL     OW84501  11.705   6.786  12.208
94221SOL    HW184502  11.668   6.703  12.238
94221SOL    HW284503  11.763   6.813  12.278
94222SOL     OW84504   3.044   4.551   5.307
94222SOL    HW184505   3.037   4.488   5.235
94222SOL    HW284506   3.133   4.538   5.341
94223SOL     OW84507   6.025  13.067   4.743
94223SOL    HW184508   5.942  13.021   4.757
94223SOL    HW284509   6.077  13.008   4.688
94224SOL     OW84510  14.800  11.709   8.395
94224SOL    HW184511  14.789  11.616   8.414
94224SOL    HW284512   0.001  11.735   8.445
94225SOL     OW84513  13.149   6.037   0.670
94225SOL    HW184514  13.099   5.956   0.676
94225SOL    HW284515  13.123   6.087   0.747
94226SOL     OW84516   9.458   4.748   3.534
94226SOL    HW184517   9.408   4.763   3.614
94226SOL    HW284518   9.450   4.829   3.484
94227SOL     OW84519  13.665  14.144   1.750
94227SOL    HW184520  13.690  14.168   1.661
94227SOL    HW284521  13.673  14.049   1.752
94228SOL     OW84522   4.940   0.250   6.872
94228SOL    HW184523   4.853   0.269   6.908
94228SOL    HW284524   4.922   0.203   6.790
94229SOL     OW84525   7.256  13.902   0.318
94229SOL    HW184526   7.266  13.858   0.402
94229SOL    HW284527   7.249  13.995   0.340
94230SOL     OW84528   1.530   6.529  10.860
94230SOL    HW184529   1.544   6.468  10.932
94230SOL    HW284530   1.517   6.614  10.902
94231SOL     OW84531   1.415  10.945   1.794
94231SOL    HW184532   1.433  10.919   1.704
94231SOL    HW284533   1.454  11.032   1.802
94232SOL     OW84534  10.545  10.990   1.728
94232SOL    HW184535  10.593  10.907   1.720
94232SOL    HW284536  10.455  10.964   1.746
94233SOL     OW84537  13.277   4.394   0.266
94233SOL    HW184538  13.292   4.334   0.193
94233SOL    HW284539  13.215   4.458   0.232
94234SOL     OW84540   4.700   4.323   8.182
94234SOL    HW184541   4.659   4.406   8.157
94234SOL    HW284542   4.632   4.276   8.231
94235SOL     OW84543  10.361   5.575   8.169
94235SOL    HW184544  10.445   5.577   8.122
94235SOL    HW284545  10.375   5.514   8.241
94236SOL     OW84546   9.016   0.190  12.209
94236SOL    HW184547   8.925   0.162  12.223
94236SOL    HW284548   9.013   0.285  12.216
94237SOL     OW84549   4.496  12.954   9.544
94237SOL    HW184550   4.413  13.001   9.538
94237SOL    HW284551   4.521  12.938   9.453
94238SOL     OW84552  12.710  13.380   0.206
94238SOL    HW184553  12.703  13.304   0.148
94238SOL    HW284554  12.801  13.407   0.200
94239SOL     OW84555   6.309   0.052  14.561
94239SOL    HW184556   6.386   0.107  14.564
94239SOL    HW284557   6.343  14.839  14.558
94240SOL     OW84558   3.440   5.252   8.311
94240SOL    HW184559   3.388   5.323   8.349
94240SOL    HW284560   3.512   5.297   8.266
94241SOL     OW84561   7.786   0.030   7.900
94241SOL    HW184562   7.805   0.123   7.907
94241SOL    HW284563   7.739   0.021   7.816
94242SOL     OW84564   6.258   9.598   7.329
94242SOL    HW184565   6.307   9.624   7.251
94242SOL    HW284566   6.324   9.559   7.387
94243SOL     OW84567   0.723   0.679   2.571
94243SOL    HW184568   0.772   0.599   2.589
94243SOL    HW284569   0.746   0.738   2.642
94244SOL     OW84570  11.711   4.169   8.326
94244SOL    HW184571  11.696   4.155   8.233
94244SOL    HW284572  11.801   4.201   8.333
94245SOL     OW84573   4.461  13.033  14.237
94245SOL    HW184574   4.479  13.125  14.218
94245SOL    HW284575   4.489  13.021  14.328
94246SOL     OW84576   9.270   2.619  11.472
94246SOL    HW184577   9.199   2.660  11.421
94246SOL    HW284578   9.265   2.663  11.557
94247SOL     OW84579   6.494  12.185   9.285
94247SOL    HW184580   6.472  12.263   9.335
94247SOL    HW284581   6.522  12.121   9.350
94248SOL     OW84582   5.388   3.950   3.211
94248SOL    HW184583   5.396   4.013   3.140
94248SOL    HW284584   5.478   3.929   3.236
94249SOL     OW84585   1.542   2.046   7.299
94249SOL    HW184586   1.552   2.137   7.327
94249SOL    HW284587   1.525   2.051   7.205
94250SOL     OW84588   7.336   7.528   2.701
94250SOL    HW184589   7.386   7.467   2.647
94250SOL    HW284590   7.386   7.534   2.782
94251SOL     OW84591  13.560   7.678   0.311
94251SOL    HW184592  13.509   7.625   0.372
94251SOL    HW284593  13.611   7.736   0.367
94252SOL     OW84594   3.889  12.100   0.952
94252SOL    HW184595   3.815  12.132   1.004
94252SOL    HW284596   3.876  12.005   0.950
94253SOL     OW84597   4.520   5.018  13.281
94253SOL    HW184598   4.432   5.054  13.269
94253SOL    HW284599   4.519   4.980  13.369
94254SOL     OW84600  14.284  12.545  13.438
94254SOL    HW184601  14.200  12.569  13.477
94254SOL    HW284602  14.316  12.627  13.399
94255SOL     OW84603  11.042   0.961   6.294
94255SOL    HW184604  11.118   0.944   6.350
94255SOL    HW284605  11.070   0.933   6.207
94256SOL     OW84606   8.343   9.377   8.985
94256SOL    HW184607   8.385   9.440   9.043
94256SOL    HW284608   8.292   9.321   9.044
94257SOL     OW84609  10.851   2.539  10.621
94257SOL    HW184610  10.811   2.615  10.578
94257SOL    HW284611  10.889   2.574  10.701
94258SOL     OW84612   9.448   0.721   0.249
94258SOL    HW184613   9.483   0.805   0.221
94258SOL    HW284614   9.356   0.737   0.266
94259SOL     OW84615   6.935  14.603   0.869
94259SOL    HW184616   7.031  14.602   0.874
94259SOL    HW284617   6.908  14.515   0.895
94260SOL     OW84618   4.744   9.944   5.830
94260SOL    HW184619   4.722   9.933   5.923
94260SOL    HW284620   4.781   9.859   5.804
94261SOL     OW84621   2.996   0.077  14.000
94261SOL    HW184622   3.083   0.047  14.027
94261SOL    HW284623   2.972   0.142  14.066
94262SOL     OW84624  13.842   4.777   0.100
94262SOL    HW184625  13.843   4.872   0.114
94262SOL    HW284626  13.885   4.741   0.178
94263SOL     OW84627  10.820   1.039   5.229
94263SOL    HW184628  10.869   1.005   5.303
94263SOL    HW284629  10.815   1.134   5.243
94264SOL     OW84630   7.183   9.071   4.056
94264SOL    HW184631   7.276   9.045   4.054
94264SOL    HW284632   7.137   8.997   4.016
94265SOL     OW84633   3.211   8.656   5.683
94265SOL    HW184634   3.274   8.661   5.611
94265SOL    HW284635   3.131   8.696   5.648
94266SOL     OW84636   5.679   6.233  12.473
94266SOL    HW184637   5.746   6.299  12.489
94266SOL    HW284638   5.609   6.281  12.429
94267SOL     OW84639   4.561   8.997  14.815
94267SOL    HW184640   4.591   9.085  14.793
94267SOL    HW284641   4.469   8.996  14.790
94268SOL     OW84642   3.967   4.473   9.154
94268SOL    HW184643   3.928   4.460   9.240
94268SOL    HW284644   4.013   4.557   9.160
94269SOL     OW84645   7.708  13.765   4.132
94269SOL    HW184646   7.770  13.781   4.203
94269SOL    HW284647   7.622  13.776   4.173
94270SOL     OW84648  11.820   5.734   3.275
94270SOL    HW184649  11.732   5.722   3.237
94270SOL    HW284650  11.812   5.702   3.365
94271SOL     OW84651   7.902  13.138   4.996
94271SOL    HW184652   7.996  13.154   4.982
94271SOL    HW284653   7.898  13.046   5.022
94272SOL     OW84654  10.590  14.872   6.492
94272SOL    HW184655  10.679  14.837   6.496
94272SOL    HW284656  10.551  14.851   6.577
94273SOL     OW84657   4.059   2.261   8.019
94273SOL    HW184658   4.042   2.176   7.979
94273SOL    HW284659   3.980   2.279   8.071
94274SOL     OW84660   1.913   2.494   7.791
94274SOL    HW184661   1.919   2.534   7.878
94274SOL    HW284662   1.830   2.525   7.756
94275SOL     OW84663   3.785   5.794   5.482
94275SOL    HW184664   3.777   5.887   5.504
94275SOL    HW284665   3.871   5.769   5.516
94276SOL     OW84666   9.700   4.128   8.347
94276SOL    HW184667   9.683   4.211   8.390
94276SOL    HW284668   9.759   4.082   8.406
94277SOL     OW84669   9.310   3.285  10.635
94277SOL    HW184670   9.215   3.297  10.626
94277SOL    HW284671   9.321   3.243  10.720
94278SOL     OW84672  13.305  11.567  10.749
94278SOL    HW184673  13.377  11.598  10.694
94278SOL    HW284674  13.275  11.486  10.708
94279SOL     OW84675   8.578   5.419   2.146
94279SOL    HW184676   8.537   5.334   2.163
94279SOL    HW284677   8.672   5.401   2.147
94280SOL     OW84678   8.101   5.711   4.604
94280SOL    HW184679   8.113   5.794   4.558
94280SOL    HW284680   8.118   5.644   4.538
94281SOL     OW84681   6.359   8.848   0.673
94281SOL    HW184682   6.383   8.798   0.594
94281SOL    HW284683   6.342   8.781   0.739
94282SOL     OW84684  14.505   8.710   7.996
94282SOL    HW184685  14.458   8.794   7.986
94282SOL    HW284686  14.597   8.733   7.983
94283SOL     OW84687   9.390   7.001  14.440
94283SOL    HW184688   9.332   7.038  14.507
94283SOL    HW284689   9.414   6.915  14.473
94284SOL     OW84690   9.940   3.438   7.482
94284SOL    HW184691   9.920   3.349   7.454
94284SOL    HW284692   9.953   3.487   7.400
94285SOL     OW84693   2.032   3.289  11.117
94285SOL    HW184694   2.122   3.303  11.145
94285SOL    HW284695   1.980   3.298  11.196
94286SOL     OW84696   2.700   9.217   7.245
94286SOL    HW184697   2.627   9.168   7.283
94286SOL    HW284698   2.760   9.150   7.211
94287SOL     OW84699   3.839   5.091   9.014
94287SOL    HW184700   3.862   5.021   8.954
94287SOL    HW284701   3.836   5.170   8.960
94288SOL     OW84702   7.934   9.872  13.775
94288SOL    HW184703   8.013   9.821  13.757
94288SOL    HW284704   7.959   9.929  13.848
94289SOL     OW84705   0.970   6.154   0.982
94289SOL    HW184706   0.979   6.079   0.923
94289SOL    HW284707   0.876   6.167   0.990
94290SOL     OW84708   2.084   3.330  10.404
94290SOL    HW184709   2.093   3.262  10.337
94290SOL    HW284710   2.153   3.393  10.383
94291SOL     OW84711  11.414   9.350   1.794
94291SOL    HW184712  11.391   9.440   1.816
94291SOL    HW284713  11.493   9.359   1.739
94292SOL     OW84714   7.996   4.965   1.827
94292SOL    HW184715   8.025   5.056   1.828
94292SOL    HW284716   7.919   4.965   1.770
94293SOL     OW84717  12.916   2.611   0.392
94293SOL    HW184718  12.900   2.631   0.485
94293SOL    HW284719  12.954   2.691   0.357
94294SOL     OW84720   0.173   6.844   3.508
94294SOL    HW184721   0.106   6.905   3.539
94294SOL    HW284722   0.192   6.789   3.584
94295SOL     OW84723   9.539  13.791   4.706
94295SOL    HW184724   9.603  13.861   4.693
94295SOL    HW284725   9.580  13.713   4.669
94296SOL     OW84726  13.986   4.989   9.085
94296SOL    HW184727  13.922   5.053   9.118
94296SOL    HW284728  13.991   5.007   8.991
94297SOL     OW84729  10.723  12.870   5.361
94297SOL    HW184730  10.807  12.824   5.368
94297SOL    HW284731  10.692  12.876   5.452
94298SOL     OW84732   1.535   9.700   2.264
94298SOL    HW184733   1.529   9.789   2.230
94298SOL    HW284734   1.516   9.644   2.188
94299SOL     OW84735   1.100   3.198   8.317
94299SOL    HW184736   1.189   3.232   8.321
94299SOL    HW284737   1.056   3.239   8.392
94300SOL     OW84738   0.192  12.754  12.545
94300SOL    HW184739   0.273  12.730  12.590
94300SOL    HW284740   0.208  12.843  12.513
94301SOL     OW84741   4.886  11.553   1.481
94301SOL    HW184742   4.963  11.572   1.534
94301SOL    HW284743   4.815  11.545   1.544
94302SOL     OW84744  10.790   6.336  13.794
94302SOL    HW184745  10.827   6.312  13.879
94302SOL    HW284746  10.710   6.283  13.787
94303SOL     OW84747  14.779   7.096  12.989
94303SOL    HW184748  14.696   7.050  12.975
94303SOL    HW284749  14.760   7.157  13.061
94304SOL     OW84750   9.339   7.760  13.368
94304SOL    HW184751   9.318   7.833  13.427
94304SOL    HW284752   9.385   7.801  13.295
94305SOL     OW84753   2.125  13.976   5.444
94305SOL    HW184754   2.064  14.050   5.441
94305SOL    HW284755   2.148  13.959   5.353
94306SOL     OW84756  11.202   4.088  12.745
94306SOL    HW184757  11.182   4.157  12.808
94306SOL    HW284758  11.256   4.026  12.793
94307SOL     OW84759   9.496  13.322  12.677
94307SOL    HW184760   9.466  13.338  12.588
94307SOL    HW284761   9.417  13.301  12.726
94308SOL     OW84762  13.699   9.068  11.890
94308SOL    HW184763  13.649   9.051  11.811
94308SOL    HW284764  13.722   8.981  11.923
94309SOL     OW84765  11.672  11.486   4.581
94309SOL    HW184766  11.623  11.411   4.548
94309SOL    HW284767  11.737  11.448   4.640
94310SOL     OW84768   8.920  10.197   5.553
94310SOL    HW184769   9.014  10.199   5.570
94310SOL    HW284770   8.909  10.253   5.476
94311SOL     OW84771   8.061   6.186  11.602
94311SOL    HW184772   8.033   6.096  11.619
94311SOL    HW284773   8.146   6.193  11.645
94312SOL     OW84774   1.799   6.639   7.694
94312SOL    HW184775   1.837   6.657   7.608
94312SOL    HW284776   1.795   6.725   7.737
94313SOL     OW84777  11.772  11.829  11.093
94313SOL    HW184778  11.713  11.902  11.075
94313SOL    HW284779  11.721  11.770  11.149
94314SOL     OW84780  13.034  12.634  12.071
94314SOL    HW184781  12.990  12.641  12.156
94314SOL    HW284782  12.970  12.667  12.008
94315SOL     OW84783   4.187   7.817  11.866
94315SOL    HW184784   4.130   7.740  11.864
94315SOL    HW284785   4.173   7.860  11.781
94316SOL     OW84786   8.861   6.675   7.153
94316SOL    HW184787   8.936   6.616   7.148
94316SOL    HW284788   8.785   6.619   7.144
94317SOL     OW84789   7.728   9.045   3.980
94317SOL    HW184790   7.729   9.032   4.074
94317SOL    HW284791   7.753   8.960   3.943
94318SOL     OW84792   6.974   7.313   9.810
94318SOL    HW184793   7.029   7.297   9.887
94318SOL    HW284794   7.031   7.358   9.748
94319SOL     OW84795   2.132   7.823   8.591
94319SOL    HW184796   2.040   7.810   8.568
94319SOL    HW284797   2.134   7.907   8.637
94320SOL     OW84798   2.338  14.749   9.194
94320SOL    HW184799   2.326  14.657   9.169
94320SOL    HW284800   2.376  14.745   9.282
94321SOL     OW84801   8.772  10.343   1.296
94321SOL    HW184802   8.748  10.329   1.204
94321SOL    HW284803   8.834  10.273   1.316
94322SOL     OW84804   1.114   1.029   7.047
94322SOL    HW184805   1.126   1.095   6.979
94322SOL    HW284806   1.118   0.946   7.001
94323SOL     OW84807   6.478  12.418   1.986
94323SOL    HW184808   6.568  12.413   2.017
94323SOL    HW284809   6.426  12.380   2.056
94324SOL     OW84810  12.827   7.164  11.352
94324SOL    HW184811  12.784   7.164  11.438
94324SOL    HW284812  12.906   7.111  11.365
94325SOL     OW84813   9.386   7.182   3.836
94325SOL    HW184814   9.403   7.089   3.846
94325SOL    HW284815   9.301   7.196   3.877
94326SOL     OW84816  13.242  12.694  12.822
94326SOL    HW184817  13.205  12.773  12.863
94326SOL    HW284818  13.244  12.629  12.892
94327SOL     OW84819   1.301  12.682   2.322
94327SOL    HW184820   1.333  12.592   2.325
94327SOL    HW284821   1.378  12.735   2.304
94328SOL     OW84822   7.310  11.791  12.097
94328SOL    HW184823   7.264  11.873  12.110
94328SOL    HW284824   7.345  11.769  12.183
94329SOL     OW84825  12.020   0.929   2.341
94329SOL    HW184826  12.058   0.919   2.254
94329SOL    HW284827  11.957   1.000   2.332
94330SOL     OW84828  14.275   0.139  13.214
94330SOL    HW184829  14.280   0.199  13.139
94330SOL    HW284830  14.354   0.086  13.208
94331SOL     OW84831  14.361   9.914   5.756
94331SOL    HW184832  14.391   9.928   5.666
94331SOL    HW284833  14.413   9.975   5.808
94332SOL     OW84834   0.781  12.935   5.379
94332SOL    HW184835   0.763  12.873   5.308
94332SOL    HW284836   0.709  12.999   5.372
94333SOL     OW84837   2.193   3.746  11.037
94333SOL    HW184838   2.163   3.721  10.950
94333SOL    HW284839   2.152   3.831  11.053
94334SOL     OW84840   7.711   6.671  14.706
94334SOL    HW184841   7.731   6.640  14.618
94334SOL    HW284842   7.794   6.702  14.741
94335SOL     OW84843  13.720   0.242   2.289
94335SOL    HW184844  13.640   0.219   2.336
94335SOL    HW284845  13.786   0.181   2.322
94336SOL     OW84846  10.525  11.915   9.594
94336SOL    HW184847  10.468  11.840   9.581
94336SOL    HW284848  10.564  11.902   9.680
94337SOL     OW84849   6.818   8.724   6.212
94337SOL    HW184850   6.882   8.654   6.198
94337SOL    HW284851   6.750   8.684   6.267
94338SOL     OW84852   1.529   9.319  11.790
94338SOL    HW184853   1.550   9.298  11.881
94338SOL    HW284854   1.495   9.409  11.793
94339SOL     OW84855   7.891   6.640   0.476
94339SOL    HW184856   7.932   6.591   0.404
94339SOL    HW284857   7.798   6.644   0.453
94340SOL     OW84858   5.507   3.472  13.040
94340SOL    HW184859   5.482   3.527  13.114
94340SOL    HW284860   5.519   3.385  13.077
94341SOL     OW84861   0.501   9.987   8.678
94341SOL    HW184862   0.574   9.998   8.738
94341SOL    HW284863   0.470  10.076   8.661
94342SOL     OW84864  14.317  10.495   6.818
94342SOL    HW184865  14.242  10.440   6.842
94342SOL    HW284866  14.289  10.583   6.841
94343SOL     OW84867   7.175   4.409   7.781
94343SOL    HW184868   7.122   4.404   7.860
94343SOL    HW284869   7.126   4.470   7.724
94344SOL     OW84870   4.187   8.575   5.800
94344SOL    HW184871   4.277   8.597   5.824
94344SOL    HW284872   4.137   8.586   5.881
94345SOL     OW84873  11.607  10.993   7.971
94345SOL    HW184874  11.702  10.979   7.977
94345SOL    HW284875  11.592  11.012   7.878
94346SOL     OW84876  12.596   5.225   3.813
94346SOL    HW184877  12.536   5.175   3.758
94346SOL    HW284878  12.544   5.249   3.889
94347SOL     OW84879  14.297   5.050   8.948
94347SOL    HW184880  14.238   5.073   9.020
94347SOL    HW284881  14.284   5.119   8.883
94348SOL     OW84882   4.869  12.728   8.558
94348SOL    HW184883   4.791  12.689   8.518
94348SOL    HW284884   4.857  12.822   8.547
94349SOL     OW84885  11.955  13.019  12.337
94349SOL    HW184886  11.860  13.007  12.345
94349SOL    HW284887  11.973  13.015  12.243
94350SOL     OW84888   9.749  10.837   6.530
94350SOL    HW184889   9.763  10.804   6.442
94350SOL    HW284890   9.797  10.920   6.533
94351SOL     OW84891   6.323   2.087   8.704
94351SOL    HW184892   6.331   2.023   8.633
94351SOL    HW284893   6.328   2.035   8.784
94352SOL     OW84894   1.078   6.416   0.884
94352SOL    HW184895   1.063   6.448   0.973
94352SOL    HW284896   1.136   6.341   0.895
94353SOL     OW84897   2.553  10.149   3.810
94353SOL    HW184898   2.624  10.109   3.759
94353SOL    HW284899   2.477  10.092   3.794
94354SOL     OW84900   4.171  13.785   0.676
94354SOL    HW184901   4.243  13.749   0.726
94354SOL    HW284902   4.208  13.803   0.590
94355SOL     OW84903   9.110   4.685   2.018
94355SOL    HW184904   9.189   4.631   2.012
94355SOL    HW284905   9.138   4.772   1.989
94356SOL     OW84906  12.354   4.949   5.349
94356SOL    HW184907  12.346   5.007   5.425
94356SOL    HW284908  12.323   4.864   5.381
94357SOL     OW84909  11.929   5.992   3.430
94357SOL    HW184910  11.932   6.074   3.479
94357SOL    HW284911  11.837   5.982   3.405
94358SOL     OW84912   0.401  10.564   7.459
94358SOL    HW184913   0.438  10.475   7.455
94358SOL    HW284914   0.385  10.579   7.552
94359SOL     OW84915  10.582   9.449   9.639
94359SOL    HW184916  10.577   9.524   9.580
94359SOL    HW284917  10.501   9.400   9.623
94360SOL     OW84918   3.805  14.355   8.797
94360SOL    HW184919   3.870  14.291   8.827
94360SOL    HW284920   3.804  14.345   8.702
94361SOL     OW84921   8.390   7.667   4.508
94361SOL    HW184922   8.308   7.653   4.461
94361SOL    HW284923   8.432   7.740   4.462
94362SOL     OW84924   6.716   5.721   8.716
94362SOL    HW184925   6.621   5.736   8.722
94362SOL    HW284926   6.754   5.793   8.768
94363SOL     OW84927   5.871   0.588   5.740
94363SOL    HW184928   5.929   0.659   5.767
94363SOL    HW284929   5.894   0.515   5.798
94364SOL     OW84930   1.876   1.381  10.476
94364SOL    HW184931   1.935   1.316  10.515
94364SOL    HW284932   1.926   1.417  10.402
94365SOL     OW84933   0.548  12.093   7.941
94365SOL    HW184934   0.490  12.022   7.910
94365SOL    HW284935   0.610  12.106   7.869
94366SOL     OW84936   5.530   8.803   3.793
94366SOL    HW184937   5.603   8.865   3.793
94366SOL    HW284938   5.459   8.850   3.837
94367SOL     OW84939   2.440   6.234   6.085
94367SOL    HW184940   2.354   6.270   6.061
94367SOL    HW284941   2.421   6.149   6.124
94368SOL     OW84942   4.544   5.834  14.521
94368SOL    HW184943   4.562   5.778  14.597
94368SOL    HW284944   4.455   5.866  14.536
94369SOL     OW84945  14.162   4.899  13.692
94369SOL    HW184946  14.245   4.889  13.738
94369SOL    HW284947  14.117   4.816  13.706
94370SOL     OW84948   7.117   7.137  13.246
94370SOL    HW184949   7.052   7.195  13.205
94370SOL    HW284950   7.073   7.101  13.323
94371SOL     OW84951   5.278   3.548   5.026
94371SOL    HW184952   5.221   3.606   4.974
94371SOL    HW284953   5.268   3.580   5.116
94372SOL     OW84954   2.783  12.229   3.350
94372SOL    HW184955   2.793  12.167   3.278
94372SOL    HW284956   2.853  12.206   3.412
94373SOL     OW84957   6.099  14.855  11.732
94373SOL    HW184958   6.171   0.041  11.737
94373SOL    HW284959   6.051  14.867  11.814
94374SOL     OW84960  12.195  12.842   2.863
94374SOL    HW184961  12.189  12.827   2.768
94374SOL    HW284962  12.223  12.934   2.871
94375SOL     OW84963  10.617   3.194   3.023
94375SOL    HW184964  10.610   3.288   3.012
94375SOL    HW284965  10.532   3.167   3.057
94376SOL     OW84966   9.753   2.901   9.619
94376SOL    HW184967   9.760   2.947   9.702
94376SOL    HW284968   9.752   2.970   9.553
94377SOL     OW84969  13.005  10.191   7.616
94377SOL    HW184970  13.001  10.272   7.565
94377SOL    HW284971  13.055  10.131   7.561
94378SOL     OW84972   0.169  12.713  10.281
94378SOL    HW184973   0.200  12.804  10.285
94378SOL    HW284974   0.091  12.717  10.227
94379SOL     OW84975   3.678   2.898  10.604
94379SOL    HW184976   3.634   2.972  10.563
94379SOL    HW284977   3.692   2.926  10.695
94380SOL     OW84978   6.588  12.687  12.785
94380SOL    HW184979   6.532  12.638  12.725
94380SOL    HW284980   6.529  12.721  12.851
94381SOL     OW84981  13.040   3.864   8.669
94381SOL    HW184982  13.017   3.881   8.578
94381SOL    HW284983  12.958   3.833   8.709
94382SOL     OW84984  11.753   6.863   4.779
94382SOL    HW184985  11.690   6.935   4.777
94382SOL    HW284986  11.750   6.825   4.692
94383SOL     OW84987   9.104   9.300  14.104
94383SOL    HW184988   9.044   9.345  14.045
94383SOL    HW284989   9.053   9.283  14.183
94384SOL     OW84990   6.434   7.842   3.882
94384SOL    HW184991   6.502   7.909   3.884
94384SOL    HW284992   6.418   7.826   3.789
94385SOL     OW84993  12.442   0.922  11.566
94385SOL    HW184994  12.359   0.970  11.560
94385SOL    HW284995  12.508   0.989  11.581
94386SOL     OW84996   9.500   5.201   7.246
94386SOL    HW184997   9.570   5.235   7.190
94386SOL    HW284998   9.543   5.184   7.330
94387SOL     OW84999  12.908   2.783   8.453
94387SOL    HW185000  13.001   2.761   8.448
94387SOL    HW285001  12.900   2.835   8.533
94388SOL     OW85002  11.054  13.202  12.475
94388SOL    HW185003  11.056  13.134  12.542
94388SOL    HW285004  11.139  13.246  12.483
94389SOL     OW85005   3.838   4.633   2.299
94389SOL    HW185006   3.859   4.540   2.305
94389SOL    HW285007   3.854   4.656   2.207
94390SOL     OW85008  12.026  11.502  14.562
94390SOL    HW185009  12.098  11.515  14.623
94390SOL    HW285010  11.979  11.425  14.594
94391SOL     OW85011   0.327  14.281  13.631
94391SOL    HW185012   0.380  14.291  13.710
94391SOL    HW285013   0.371  14.212  13.581
94392SOL     OW85014   0.977   0.946   3.569
94392SOL    HW185015   0.960   1.019   3.509
94392SOL    HW285016   1.073   0.942   3.575
94393SOL     OW85017   1.933   0.258  11.659
94393SOL    HW185018   1.855   0.303  11.693
94393SOL    HW285019   1.972   0.321  11.598
94394SOL     OW85020   1.127   9.532   7.774
94394SOL    HW185021   1.044   9.544   7.728
94394SOL    HW285022   1.112   9.458   7.833
94395SOL     OW85023  13.032   2.347   8.187
94395SOL    HW185024  13.065   2.416   8.245
94395SOL    HW285025  13.064   2.372   8.100
94396SOL     OW85026  14.873   3.565   8.572
94396SOL    HW185027  14.836   3.535   8.489
94396SOL    HW285028   0.051   3.640   8.548
94397SOL     OW85029   3.839   0.799   7.089
94397SOL    HW185030   3.786   0.758   7.021
94397SOL    HW285031   3.927   0.805   7.052
94398SOL     OW85032  10.138  13.122  13.042
94398SOL    HW185033  10.168  13.122  12.951
94398SOL    HW285034  10.204  13.072  13.089
94399SOL     OW85035  11.231   5.700   9.393
94399SOL    HW185036  11.208   5.739   9.309
94399SOL    HW285037  11.304   5.641   9.373
94400SOL     OW85038   9.815   7.670   5.256
94400SOL    HW185039   9.812   7.613   5.179
94400SOL    HW285040   9.855   7.616   5.324
94401SOL     OW85041  14.295  10.244   4.224
94401SOL    HW185042  14.205  10.272   4.243
94401SOL    HW285043  14.288  10.150   4.211
94402SOL     OW85044   3.801   1.616   9.198
94402SOL    HW185045   3.764   1.557   9.132
94402SOL    HW285046   3.896   1.605   9.189
94403SOL     OW85047   4.665   5.325   8.696
94403SOL    HW185048   4.612   5.285   8.627
94403SOL    HW285049   4.753   5.333   8.658
94404SOL     OW85050  10.011   7.773  10.908
94404SOL    HW185051   9.946   7.834  10.942
94404SOL    HW285052   9.963   7.718  10.847
94405SOL     OW85053   9.696  14.309   5.854
94405SOL    HW185054   9.625  14.250   5.879
94405SOL    HW285055   9.656  14.368   5.790
94406SOL     OW85056  11.636   5.461   1.488
94406SOL    HW185057  11.616   5.444   1.396
94406SOL    HW285058  11.717   5.512   1.486
94407SOL     OW85059   8.995  14.685   5.959
94407SOL    HW185060   9.030  14.733   5.884
94407SOL    HW285061   8.949  14.752   6.010
94408SOL     OW85062   1.556   7.291   0.509
94408SOL    HW185063   1.574   7.201   0.482
94408SOL    HW285064   1.522   7.334   0.430
94409SOL     OW85065   3.957   1.210   5.110
94409SOL    HW185066   4.052   1.200   5.098
94409SOL    HW285067   3.931   1.131   5.158
94410SOL     OW85068   3.124   1.264  11.329
94410SOL    HW185069   3.030   1.255  11.346
94410SOL    HW285070   3.141   1.206  11.255
94411SOL     OW85071   6.665   2.647  10.549
94411SOL    HW185072   6.718   2.717  10.511
94411SOL    HW285073   6.574   2.677  10.538
94412SOL     OW85074   3.004   7.750   3.191
94412SOL    HW185075   3.064   7.772   3.263
94412SOL    HW285076   3.047   7.783   3.113
94413SOL     OW85077   9.506   2.067   5.189
94413SOL    HW185078   9.505   2.032   5.100
94413SOL    HW285079   9.576   2.133   5.187
94414SOL     OW85080   1.821  11.327   3.829
94414SOL    HW185081   1.827  11.255   3.765
94414SOL    HW285082   1.788  11.285   3.908
94415SOL     OW85083   0.446  11.323   5.707
94415SOL    HW185084   0.427  11.287   5.620
94415SOL    HW285085   0.381  11.282   5.764
94416SOL     OW85086   6.285   1.932   3.929
94416SOL    HW185087   6.270   1.896   3.842
94416SOL    HW285088   6.377   1.916   3.946
94417SOL     OW85089   9.440   7.574   2.289
94417SOL    HW185090   9.426   7.669   2.293
94417SOL    HW285091   9.413   7.550   2.200
94418SOL     OW85092   2.655   3.212  12.883
94418SOL    HW185093   2.666   3.117  12.897
94418SOL    HW285094   2.607   3.219  12.801
94419SOL     OW85095   9.982   6.435   7.727
94419SOL    HW185096   9.965   6.528   7.742
94419SOL    HW285097  10.008   6.401   7.812
94420SOL     OW85098   0.431  14.611   2.241
94420SOL    HW185099   0.422  14.616   2.336
94420SOL    HW285100   0.522  14.635   2.224
94421SOL     OW85101   9.352  12.328   0.124
94421SOL    HW185102   9.446  12.342   0.135
94421SOL    HW285103   9.316  12.328   0.213
94422SOL     OW85104   7.509  14.742   1.874
94422SOL    HW185105   7.514  14.805   1.802
94422SOL    HW285106   7.465  14.790   1.945
94423SOL     OW85107   2.267  14.856   6.124
94423SOL    HW185108   2.223   0.054   6.166
94423SOL    HW285109   2.203  14.823   6.060
94424SOL     OW85110   5.124  12.373  14.167
94424SOL    HW185111   5.150  12.434  14.236
94424SOL    HW285112   5.156  12.413  14.086
94425SOL     OW85113   5.474   6.782   9.509
94425SOL    HW185114   5.522   6.814   9.433
94425SOL    HW285115   5.458   6.860   9.563
94426SOL     OW85116  10.331   3.985  11.808
94426SOL    HW185117  10.265   4.021  11.749
94426SOL    HW285118  10.414   4.018  11.774
94427SOL     OW85119  13.173   8.764   6.575
94427SOL    HW185120  13.155   8.675   6.545
94427SOL    HW285121  13.127   8.820   6.512
94428SOL     OW85122   8.693   0.302   9.030
94428SOL    HW185123   8.730   0.388   9.010
94428SOL    HW285124   8.603   0.306   8.997
94429SOL     OW85125  13.003   8.771  10.175
94429SOL    HW185126  12.997   8.787  10.269
94429SOL    HW285127  13.009   8.858  10.136
94430SOL     OW85128   6.419   2.580   1.997
94430SOL    HW185129   6.467   2.662   2.007
94430SOL    HW285130   6.488   2.514   1.982
94431SOL     OW85131   0.480   3.769  10.757
94431SOL    HW185132   0.429   3.839  10.717
94431SOL    HW285133   0.529   3.812  10.827
94432SOL     OW85134  12.105   3.036   2.136
94432SOL    HW185135  12.069   3.037   2.048
94432SOL    HW285136  12.175   3.102   2.134
94433SOL     OW85137  14.650   0.372   9.647
94433SOL    HW185138  14.695   0.309   9.704
94433SOL    HW285139  14.619   0.320   9.573
94434SOL     OW85140   3.921  14.541   9.691
94434SOL    HW185141   3.925  14.448   9.669
94434SOL    HW285142   3.955  14.585   9.614
94435SOL     OW85143   9.808   4.149   8.677
94435SOL    HW185144   9.824   4.062   8.640
94435SOL    HW285145   9.718   4.169   8.654
94436SOL     OW85146   3.042  10.051   2.950
94436SOL    HW185147   3.041  10.004   2.866
94436SOL    HW285148   2.992  10.131   2.933
94437SOL     OW85149   0.715  10.907   6.140
94437SOL    HW185150   0.711  10.830   6.082
94437SOL    HW285151   0.760  10.876   6.218
94438SOL     OW85152   4.878   7.118   6.291
94438SOL    HW185153   4.845   7.030   6.312
94438SOL    HW285154   4.923   7.107   6.207
94439SOL     OW85155  11.912  10.484   7.783
94439SOL    HW185156  11.864  10.446   7.856
94439SOL    HW285157  12.003  10.485   7.811
94440SOL     OW85158  10.757  12.892   9.935
94440SOL    HW185159  10.827  12.949   9.901
94440SOL    HW285160  10.795  12.804   9.935
94441SOL     OW85161   3.184   1.668  12.868
94441SOL    HW185162   3.149   1.692  12.954
94441SOL    HW285163   3.132   1.592  12.842
94442SOL     OW85164  14.131  11.129   4.413
94442SOL    HW185165  14.182  11.077   4.475
94442SOL    HW285166  14.143  11.219   4.443
94443SOL     OW85167   9.102  12.830   8.700
94443SOL    HW185168   9.182  12.823   8.753
94443SOL    HW285169   9.123  12.897   8.635
94444SOL     OW85170   4.175  11.876   3.820
94444SOL    HW185171   4.191  11.783   3.808
94444SOL    HW285172   4.262  11.914   3.831
94445SOL     OW85173   7.096   2.626   1.933
94445SOL    HW185174   7.074   2.544   1.891
94445SOL    HW285175   7.075   2.613   2.026
94446SOL     OW85176   8.089   5.526  10.659
94446SOL    HW185177   8.014   5.582  10.638
94446SOL    HW285178   8.123   5.498  10.574
94447SOL     OW85179   9.377   0.382  11.700
94447SOL    HW185180   9.381   0.302  11.753
94447SOL    HW285181   9.465   0.419  11.707
94448SOL     OW85182   0.921   3.154   0.571
94448SOL    HW185183   0.826   3.156   0.584
94448SOL    HW285184   0.947   3.064   0.592
94449SOL     OW85185   7.069   1.641  10.680
94449SOL    HW185186   7.038   1.727  10.651
94449SOL    HW285187   7.027   1.579  10.621
94450SOL     OW85188  12.654  12.986   3.957
94450SOL    HW185189  12.749  12.992   3.945
94450SOL    HW285190  12.633  13.055   4.019
94451SOL     OW85191   1.848   6.023  13.115
94451SOL    HW185192   1.806   6.018  13.201
94451SOL    HW285193   1.783   5.987  13.055
94452SOL     OW85194   6.975   5.106   9.057
94452SOL    HW185195   7.006   5.097   8.967
94452SOL    HW285196   6.936   5.194   9.060
94453SOL     OW85197   9.070   4.308  10.401
94453SOL    HW185198   9.142   4.265  10.447
94453SOL    HW285199   9.054   4.389  10.451
94454SOL     OW85200  10.935   9.232   7.579
94454SOL    HW185201  11.031   9.236   7.579
94454SOL    HW285202  10.914   9.165   7.514
94455SOL     OW85203   4.495   5.093   5.728
94455SOL    HW185204   4.472   5.143   5.650
94455SOL    HW285205   4.489   5.002   5.700
94456SOL     OW85206  12.626   4.137   9.627
94456SOL    HW185207  12.707   4.184   9.606
94456SOL    HW285208  12.650   4.044   9.618
94457SOL     OW85209   2.525   4.803   2.480
94457SOL    HW185210   2.444   4.844   2.510
94457SOL    HW285211   2.563   4.866   2.419
94458SOL     OW85212   7.286   1.944  13.744
94458SOL    HW185213   7.379   1.922  13.736
94458SOL    HW285214   7.245   1.861  13.770
94459SOL     OW85215  10.856  12.396  12.642
94459SOL    HW185216  10.951  12.413  12.640
94459SOL    HW285217  10.841  12.357  12.729
94460SOL     OW85218  12.266   2.122  12.584
94460SOL    HW185219  12.285   2.118  12.491
94460SOL    HW285220  12.211   2.200  12.594
94461SOL     OW85221  11.532   0.734   7.797
94461SOL    HW185222  11.507   0.824   7.820
94461SOL    HW285223  11.451   0.684   7.804
94462SOL     OW85224   8.594   2.302   1.357
94462SOL    HW185225   8.667   2.277   1.414
94462SOL    HW285226   8.588   2.230   1.294
94463SOL     OW85227  14.647   1.091   1.175
94463SOL    HW185228  14.568   1.144   1.167
94463SOL    HW285229  14.683   1.089   1.086
94464SOL     OW85230   0.581   2.894  14.698
94464SOL    HW185231   0.502   2.936  14.664
94464SOL    HW285232   0.645   2.901  14.627
94465SOL     OW85233  13.800  10.803   0.513
94465SOL    HW185234  13.711  10.773   0.497
94465SOL    HW285235  13.850  10.769   0.439
94466SOL     OW85236  14.781   7.865   4.438
94466SOL    HW185237  14.871   7.854   4.468
94466SOL    HW285238  14.788   7.924   4.363
94467SOL     OW85239   6.593   5.230   7.551
94467SOL    HW185240   6.660   5.298   7.547
94467SOL    HW285241   6.633   5.160   7.603
94468SOL     OW85242   4.499  13.615   6.260
94468SOL    HW185243   4.564  13.682   6.239
94468SOL    HW285244   4.416  13.651   6.230
94469SOL     OW85245   5.085  11.262   3.646
94469SOL    HW185246   5.100  11.270   3.552
94469SOL    HW285247   5.035  11.341   3.669
94470SOL     OW85248  12.822   0.790   0.306
94470SOL    HW185249  12.811   0.736   0.384
94470SOL    HW285250  12.872   0.866   0.336
94471SOL     OW85251   7.921   4.544   0.309
94471SOL    HW185252   7.897   4.494   0.386
94471SOL    HW285253   7.907   4.636   0.333
94472SOL     OW85254  14.172   8.383   1.653
94472SOL    HW185255  14.188   8.439   1.729
94472SOL    HW285256  14.182   8.442   1.577
94473SOL     OW85257   1.996  12.392  11.469
94473SOL    HW185258   1.901  12.398  11.480
94473SOL    HW285259   2.010  12.399  11.375
94474SOL     OW85260  11.295   5.727   0.737
94474SOL    HW185261  11.334   5.796   0.683
94474SOL    HW285262  11.368   5.667   0.755
94475SOL     OW85263   1.667  11.339   8.046
94475SOL    HW185264   1.689  11.274   8.112
94475SOL    HW285265   1.726  11.412   8.064
94476SOL     OW85266  14.621   6.533  13.207
94476SOL    HW185267  14.692   6.597  13.205
94476SOL    HW285268  14.627   6.492  13.293
94477SOL     OW85269   6.968   1.172   6.647
94477SOL    HW185270   7.024   1.233   6.694
94477SOL    HW285271   6.915   1.228   6.590
94478SOL     OW85272   9.103  10.094   0.792
94478SOL    HW185273   9.044  10.085   0.867
94478SOL    HW285274   9.123  10.004   0.767
94479SOL     OW85275  14.019  12.895   7.387
94479SOL    HW185276  14.020  12.856   7.299
94479SOL    HW285277  13.996  12.986   7.371
94480SOL     OW85278   0.633   0.716   6.799
94480SOL    HW185279   0.654   0.736   6.708
94480SOL    HW285280   0.665   0.627   6.812
94481SOL     OW85281  10.959   4.286   3.410
94481SOL    HW185282  10.899   4.223   3.450
94481SOL    HW285283  10.969   4.355   3.476
94482SOL     OW85284   6.000   0.432   4.927
94482SOL    HW185285   5.907   0.406   4.922
94482SOL    HW285286   6.009   0.471   5.014
94483SOL     OW85287   8.753   5.865   4.829
94483SOL    HW185288   8.842   5.876   4.862
94483SOL    HW285289   8.761   5.803   4.757
94484SOL     OW85290   8.058   1.203  13.004
94484SOL    HW185291   8.032   1.214  13.095
94484SOL    HW285292   7.986   1.243  12.954
94485SOL     OW85293  14.254  13.955   3.940
94485SOL    HW185294  14.268  13.991   3.853
94485SOL    HW285295  14.302  13.872   3.941
94486SOL     OW85296   7.303   1.090   1.362
94486SOL    HW185297   7.364   1.095   1.289
94486SOL    HW285298   7.352   1.123   1.437
94487SOL     OW85299   6.888   2.880   2.801
94487SOL    HW185300   6.924   2.792   2.806
94487SOL    HW285301   6.817   2.873   2.737
94488SOL     OW85302   1.807   4.942   9.664
94488SOL    HW185303   1.881   4.947   9.725
94488SOL    HW285304   1.847   4.922   9.579
94489SOL     OW85305   2.184   6.628  11.414
94489SOL    HW185306   2.188   6.533  11.400
94489SOL    HW285307   2.270   6.660  11.386
94490SOL     OW85308  10.410  13.634   6.420
94490SOL    HW185309  10.466  13.605   6.493
94490SOL    HW285310  10.322  13.607   6.446
94491SOL     OW85311   7.047   4.310  11.084
94491SOL    HW185312   6.982   4.364  11.040
94491SOL    HW285313   7.050   4.229  11.033
94492SOL     OW85314   7.809  14.635   0.600
94492SOL    HW185315   7.751  14.664   0.670
94492SOL    HW285316   7.786  14.543   0.585
94493SOL     OW85317   0.215   3.567  11.981
94493SOL    HW185318   0.146   3.501  11.978
94493SOL    HW285319   0.184   3.633  12.044
94494SOL     OW85320  11.045   0.588   5.118
94494SOL    HW185321  10.998   0.625   5.192
94494SOL    HW285322  11.135   0.618   5.130
94495SOL     OW85323  13.097   5.390  13.196
94495SOL    HW185324  13.121   5.454  13.263
94495SOL    HW285325  13.158   5.407  13.124
94496SOL     OW85326  14.583  10.625   6.905
94496SOL    HW185327  14.598  10.530   6.899
94496SOL    HW285328  14.525  10.635   6.980
94497SOL     OW85329  14.262   7.457   1.150
94497SOL    HW185330  14.209   7.452   1.071
94497SOL    HW285331  14.302   7.544   1.147
94498SOL     OW85332  11.913  11.474   3.286
94498SOL    HW185333  12.008  11.463   3.298
94498SOL    HW285334  11.897  11.567   3.304
94499SOL     OW85335   3.481  12.682  10.632
94499SOL    HW185336   3.506  12.606  10.579
94499SOL    HW285337   3.527  12.668  10.715
94500SOL     OW85338  11.325   2.358  14.162
94500SOL    HW185339  11.287   2.420  14.224
94500SOL    HW285340  11.378   2.299  14.216
94501SOL     OW85341   8.300  14.020  12.660
94501SOL    HW185342   8.395  14.013  12.651
94501SOL    HW285343   8.266  14.003  12.572
94502SOL     OW85344  10.860   9.073   2.042
94502SOL    HW185345  10.886   9.164   2.028
94502SOL    HW285346  10.940   9.030   2.074
94503SOL     OW85347   4.631  11.542   7.320
94503SOL    HW185348   4.686  11.616   7.295
94503SOL    HW285349   4.689  11.467   7.317
94504SOL     OW85350   5.608  11.292   7.517
94504SOL    HW185351   5.551  11.370   7.520
94504SOL    HW285352   5.564  11.229   7.574
94505SOL     OW85353   6.382   5.854   1.418
94505SOL    HW185354   6.418   5.766   1.408
94505SOL    HW285355   6.396   5.875   1.510
94506SOL     OW85356   2.367   6.909   4.799
94506SOL    HW185357   2.337   6.858   4.724
94506SOL    HW285358   2.403   6.844   4.859
94507SOL     OW85359  14.564   7.127  13.722
94507SOL    HW185360  14.614   7.078  13.656
94507SOL    HW285361  14.519   7.195  13.672
94508SOL     OW85362  14.113   0.464   8.261
94508SOL    HW185363  14.109   0.445   8.355
94508SOL    HW285364  14.027   0.502   8.241
94509SOL     OW85365  12.520   2.727   4.663
94509SOL    HW185366  12.606   2.713   4.623
94509SOL    HW285367  12.537   2.783   4.738
94510SOL     OW85368  13.241   0.238   3.998
94510SOL    HW185369  13.227   0.332   4.011
94510SOL    HW285370  13.262   0.205   4.086
94511SOL     OW85371   5.958   7.088   8.892
94511SOL    HW185372   5.998   7.051   8.813
94511SOL    HW285373   5.932   7.011   8.943
94512SOL     OW85374   1.502  10.769   7.763
94512SOL    HW185375   1.469  10.818   7.839
94512SOL    HW285376   1.424  10.742   7.716
94513SOL     OW85377  12.273  13.142  13.062
94513SOL    HW185378  12.288  13.062  13.013
94513SOL    HW285379  12.178  13.157  13.055
94514SOL     OW85380   3.526  14.179   7.458
94514SOL    HW185381   3.535  14.192   7.552
94514SOL    HW285382   3.445  14.226   7.435
94515SOL     OW85383   8.332   3.785  11.291
94515SOL    HW185384   8.289   3.849  11.234
94515SOL    HW285385   8.310   3.700  11.253
94516SOL     OW85386  12.035   5.578   7.775
94516SOL    HW185387  12.105   5.532   7.821
94516SOL    HW285388  12.059   5.670   7.779
94517SOL     OW85389  13.879   4.885   1.286
94517SOL    HW185390  13.946   4.879   1.218
94517SOL    HW285391  13.923   4.856   1.366
94518SOL     OW85392   0.669  13.087   3.232
94518SOL    HW185393   0.729  13.021   3.269
94518SOL    HW285394   0.692  13.091   3.140
94519SOL     OW85395  13.929  13.336   1.932
94519SOL    HW185396  14.017  13.363   1.908
94519SOL    HW285397  13.933  13.240   1.938
94520SOL     OW85398  13.188   1.697   9.280
94520SOL    HW185399  13.212   1.643   9.204
94520SOL    HW285400  13.213   1.786   9.256
94521SOL     OW85401   7.691   5.057   7.271
94521SOL    HW185402   7.653   5.040   7.357
94521SOL    HW285403   7.634   5.125   7.233
94522SOL     OW85404   7.569   0.432  10.689
94522SOL    HW185405   7.582   0.520  10.725
94522SOL    HW285406   7.654   0.389  10.700
94523SOL     OW85407   9.465   1.027  14.546
94523SOL    HW185408   9.494   0.999  14.633
94523SOL    HW285409   9.505   1.113  14.534
94524SOL     OW85410   4.064   7.759   2.682
94524SOL    HW185411   3.980   7.805   2.680
94524SOL    HW285412   4.076   7.734   2.773
94525SOL     OW85413   2.793   1.258  14.453
94525SOL    HW185414   2.866   1.316  14.478
94525SOL    HW285415   2.766   1.216  14.535
94526SOL     OW85416   6.621   8.776   8.238
94526SOL    HW185417   6.578   8.859   8.260
94526SOL    HW285418   6.553   8.710   8.255
94527SOL     OW85419   1.847   6.275   0.477
94527SOL    HW185420   1.876   6.344   0.418
94527SOL    HW285421   1.796   6.216   0.422
94528SOL     OW85422   8.099   3.938   4.391
94528SOL    HW185423   8.113   3.977   4.305
94528SOL    HW285424   8.033   3.871   4.377
94529SOL     OW85425  14.269   0.572   7.670
94529SOL    HW185426  14.309   0.490   7.640
94529SOL    HW285427  14.189   0.580   7.619
94530SOL     OW85428  12.163   6.289   8.782
94530SOL    HW185429  12.236   6.234   8.810
94530SOL    HW285430  12.129   6.327   8.862
94531SOL     OW85431   6.014   2.347  10.875
94531SOL    HW185432   5.955   2.362  10.801
94531SOL    HW285433   5.967   2.383  10.950
94532SOL     OW85434  14.763  13.686   7.454
94532SOL    HW185435  14.708  13.669   7.530
94532SOL    HW285436  14.848  13.712   7.491
94533SOL     OW85437   9.057   0.179   8.749
94533SOL    HW185438   8.963   0.196   8.747
94533SOL    HW285439   9.074   0.127   8.670
94534SOL     OW85440  10.623   4.860  10.559
94534SOL    HW185441  10.711   4.893  10.574
94534SOL    HW285442  10.615   4.856  10.463
94535SOL     OW85443   3.210  11.870   3.499
94535SOL    HW185444   3.288  11.846   3.548
94535SOL    HW285445   3.159  11.924   3.559
94536SOL     OW85446   1.963   1.016  12.743
94536SOL    HW185447   1.945   1.110  12.749
94536SOL    HW285448   1.913   0.987  12.667
94537SOL     OW85449   7.373   5.161  10.434
94537SOL    HW185450   7.450   5.139  10.485
94537SOL    HW285451   7.318   5.211  10.494
94538SOL     OW85452   3.337  10.458  12.589
94538SOL    HW185453   3.413  10.401  12.595
94538SOL    HW285454   3.371  10.541  12.557
94539SOL     OW85455   4.867   2.987  12.870
94539SOL    HW185456   4.880   2.904  12.824
94539SOL    HW285457   4.871   3.054  12.802
94540SOL     OW85458  14.817   2.461  11.956
94540SOL    HW185459  14.826   2.423  11.869
94540SOL    HW285460  14.756   2.404  12.002
94541SOL     OW85461   0.932   0.147   7.496
94541SOL    HW185462   0.968   0.229   7.461
94541SOL    HW285463   0.859   0.126   7.437
94542SOL     OW85464  13.178   5.871  11.180
94542SOL    HW185465  13.091   5.856  11.143
94542SOL    HW285466  13.161   5.903  11.269
94543SOL     OW85467   7.431   6.585   2.896
94543SOL    HW185468   7.386   6.609   2.977
94543SOL    HW285469   7.476   6.665   2.869
94544SOL     OW85470   6.577   0.880  12.908
94544SOL    HW185471   6.654   0.846  12.864
94544SOL    HW285472   6.603   0.888  13.000
94545SOL     OW85473   5.222   9.430  14.050
94545SOL    HW185474   5.149   9.370  14.068
94545SOL    HW285475   5.255   9.403  13.964
94546SOL     OW85476  11.732  12.052   9.852
94546SOL    HW185477  11.779  12.033   9.934
94546SOL    HW285478  11.785  12.119   9.809
94547SOL     OW85479  13.118   7.854   7.913
94547SOL    HW185480  13.136   7.947   7.929
94547SOL    HW285481  13.191   7.808   7.954
94548SOL     OW85482  13.696  10.895  10.393
94548SOL    HW185483  13.611  10.879  10.435
94548SOL    HW285484  13.673  10.921  10.304
94549SOL     OW85485  12.871  13.379   3.417
94549SOL    HW185486  12.887  13.423   3.334
94549SOL    HW285487  12.955  13.340   3.441
94550SOL     OW85488   3.666  12.142   5.029
94550SOL    HW185489   3.677  12.051   5.002
94550SOL    HW285490   3.671  12.193   4.948
94551SOL     OW85491   9.532   8.221   6.079
94551SOL    HW185492   9.505   8.259   5.996
94551SOL    HW285493   9.452   8.181   6.114
94552SOL     OW85494   0.698   3.401   4.465
94552SOL    HW185495   0.700   3.488   4.505
94552SOL    HW285496   0.779   3.359   4.494
94553SOL     OW85497   6.096   7.996   1.104
94553SOL    HW185498   6.022   8.057   1.094
94553SOL    HW285499   6.097   7.976   1.198
94554SOL     OW85500   7.072  10.881  11.477
94554SOL    HW185501   7.046  10.953  11.419
94554SOL    HW285502   7.087  10.923  11.561
94555SOL     OW85503   7.810   1.169   6.421
94555SOL    HW185504   7.896   1.207   6.403
94555SOL    HW285505   7.761   1.239   6.465
94556SOL     OW85506   6.893  10.393   3.870
94556SOL    HW185507   6.951  10.444   3.925
94556SOL    HW285508   6.861  10.454   3.804
94557SOL     OW85509   9.287   4.074   0.811
94557SOL    HW185510   9.287   4.071   0.715
94557SOL    HW285511   9.318   3.987   0.838
94558SOL     OW85512   1.851  13.135   0.058
94558SOL    HW185513   1.928  13.161   0.008
94558SOL    HW285514   1.791  13.099  14.869
94559SOL     OW85515  12.193  14.525  12.512
94559SOL    HW185516  12.146  14.605  12.490
94559SOL    HW285517  12.275  14.555  12.550
94560SOL     OW85518   1.836   6.248  12.398
94560SOL    HW185519   1.811   6.243  12.306
94560SOL    HW285520   1.921   6.205  12.403
94561SOL     OW85521   1.581   3.986  11.365
94561SOL    HW185522   1.559   4.021  11.279
94561SOL    HW285523   1.580   3.891  11.353
94562SOL     OW85524  13.748  13.248   9.524
94562SOL    HW185525  13.730  13.341   9.538
94562SOL    HW285526  13.679  13.219   9.464
94563SOL     OW85527  13.334   3.412   8.274
94563SOL    HW185528  13.429   3.401   8.276
94563SOL    HW285529  13.312   3.423   8.182
94564SOL     OW85530   7.794   9.351   2.460
94564SOL    HW185531   7.866   9.342   2.522
94564SOL    HW285532   7.734   9.414   2.500
94565SOL     OW85533   9.052   0.041  12.489
94565SOL    HW185534   9.094  14.841  12.448
94565SOL    HW285535   8.965   0.044  12.448
94566SOL     OW85536   2.645  13.941  10.789
94566SOL    HW185537   2.703  13.907  10.721
94566SOL    HW285538   2.584  13.870  10.806
94567SOL     OW85539   0.050  13.166   9.222
94567SOL    HW185540   0.053  13.121   9.137
94567SOL    HW285541   0.104  13.244   9.208
94568SOL     OW85542   3.277  14.775   6.456
94568SOL    HW185543   3.344  14.806   6.396
94568SOL    HW285544   3.325  14.736   6.529
94569SOL     OW85545   6.392  11.299   0.323
94569SOL    HW185546   6.465  11.306   0.384
94569SOL    HW285547   6.369  11.206   0.323
94570SOL     OW85548   9.578  10.366   5.329
94570SOL    HW185549   9.674  10.367   5.332
94570SOL    HW285550   9.551  10.357   5.421
94571SOL     OW85551   7.814  10.766   2.140
94571SOL    HW185552   7.741  10.812   2.100
94571SOL    HW285553   7.883  10.832   2.148
94572SOL     OW85554   3.296   5.363   8.673
94572SOL    HW185555   3.334   5.368   8.586
94572SOL    HW285556   3.325   5.443   8.716
94573SOL     OW85557  12.332   6.300   0.992
94573SOL    HW185558  12.302   6.289   0.902
94573SOL    HW285559  12.387   6.379   0.989
94574SOL     OW85560  11.689   0.411  13.479
94574SOL    HW185561  11.707   0.495  13.439
94574SOL    HW285562  11.608   0.381  13.438
94575SOL     OW85563   4.216   0.182   1.078
94575SOL    HW185564   4.179   0.157   0.993
94575SOL    HW285565   4.211   0.102   1.130
94576SOL     OW85566  10.088   3.744  11.314
94576SOL    HW185567  10.164   3.800  11.300
94576SOL    HW285568  10.049   3.776  11.395
94577SOL     OW85569  12.442  11.740   2.250
94577SOL    HW185570  12.502  11.671   2.223
94577SOL    HW285571  12.365  11.728   2.195
94578SOL     OW85572   5.933   7.173   0.463
94578SOL    HW185573   5.934   7.252   0.516
94578SOL    HW285574   5.981   7.108   0.514
94579SOL     OW85575  10.437  14.696   4.783
94579SOL    HW185576  10.411  14.609   4.814
94579SOL    HW285577  10.423  14.692   4.688
94580SOL     OW85578   1.516   8.288  10.168
94580SOL    HW185579   1.498   8.196  10.187
94580SOL    HW285580   1.435   8.333  10.191
94581SOL     OW85581   5.501  14.091   5.948
94581SOL    HW185582   5.490  14.158   6.015
94581SOL    HW285583   5.470  14.010   5.989
94582SOL     OW85584   4.568  10.802   6.239
94582SOL    HW185585   4.575  10.729   6.301
94582SOL    HW285586   4.637  10.785   6.175
94583SOL     OW85587   8.898  13.797   4.525
94583SOL    HW185588   8.960  13.824   4.593
94583SOL    HW285589   8.815  13.839   4.550
94584SOL     OW85590  14.142  10.714   8.108
94584SOL    HW185591  14.166  10.723   8.016
94584SOL    HW285592  14.216  10.669   8.148
94585SOL     OW85593  11.004   2.391   7.546
94585SOL    HW185594  11.034   2.454   7.480
94585SOL    HW285595  11.009   2.439   7.628
94586SOL     OW85596   6.791   2.100   5.652
94586SOL    HW185597   6.769   2.018   5.609
94586SOL    HW285598   6.769   2.168   5.587
94587SOL     OW85599   2.695   3.383  12.425
94587SOL    HW185600   2.615   3.424  12.392
94587SOL    HW285601   2.752   3.457  12.449
94588SOL     OW85602   6.070   7.357  14.092
94588SOL    HW185603   6.118   7.317  14.020
94588SOL    HW285604   6.120   7.332  14.170
94589SOL     OW85605   3.395   4.067   9.354
94589SOL    HW185606   3.309   4.077   9.395
94589SOL    HW285607   3.415   3.974   9.360
94590SOL     OW85608   7.584   6.028   4.522
94590SOL    HW185609   7.590   6.120   4.495
94590SOL    HW285610   7.613   6.027   4.613
94591SOL     OW85611   7.888  14.786   9.858
94591SOL    HW185612   7.887  14.751   9.947
94591SOL    HW285613   7.814  14.847   9.855
94592SOL     OW85614   5.921  11.089   0.336
94592SOL    HW185615   5.958  11.176   0.348
94592SOL    HW285616   5.902  11.058   0.424
94593SOL     OW85617   7.317   3.988  11.760
94593SOL    HW185618   7.238   3.954  11.803
94593SOL    HW285619   7.319   4.081  11.783
94594SOL     OW85620   9.484   4.985   5.160
94594SOL    HW185621   9.490   4.956   5.251
94594SOL    HW285622   9.480   4.904   5.109
94595SOL     OW85623   5.237   0.386   0.747
94595SOL    HW185624   5.237   0.364   0.841
94595SOL    HW285625   5.171   0.454   0.738
94596SOL     OW85626  10.323  12.799   1.537
94596SOL    HW185627  10.314  12.774   1.629
94596SOL    HW285628  10.373  12.728   1.497
94597SOL     OW85629   1.064  10.925   6.822
94597SOL    HW185630   1.046  10.834   6.847
94597SOL    HW285631   0.994  10.947   6.761
94598SOL     OW85632   6.286   1.873  14.503
94598SOL    HW185633   6.303   1.962  14.472
94598SOL    HW285634   6.246   1.886  14.589
94599SOL     OW85635  13.156   2.599   6.815
94599SOL    HW185636  13.170   2.604   6.720
94599SOL    HW285637  13.149   2.691   6.842
94600SOL     OW85638   7.871   9.071   5.443
94600SOL    HW185639   7.957   9.071   5.401
94600SOL    HW285640   7.829   9.151   5.411
94601SOL     OW85641   4.803   4.462  10.792
94601SOL    HW185642   4.896   4.482  10.803
94601SOL    HW285643   4.772   4.443  10.880
94602SOL     OW85644  11.286  10.063  11.892
94602SOL    HW185645  11.289  10.116  11.971
94602SOL    HW285646  11.215  10.101  11.840
94603SOL     OW85647  10.870   4.038  12.064
94603SOL    HW185648  10.916   4.113  12.026
94603SOL    HW285649  10.785   4.073  12.092
94604SOL     OW85650   0.284  11.430  12.541
94604SOL    HW185651   0.367  11.390  12.514
94604SOL    HW285652   0.217  11.383  12.492
94605SOL     OW85653   0.749   7.957   8.656
94605SOL    HW185654   0.830   7.907   8.655
94605SOL    HW285655   0.760   8.018   8.730
94606SOL     OW85656  10.736  11.014   6.770
94606SOL    HW185657  10.769  10.935   6.727
94606SOL    HW285658  10.673  11.050   6.707
94607SOL     OW85659   9.892  14.841  12.372
94607SOL    HW185660   9.829  14.865  12.440
94607SOL    HW285661   9.862  14.756  12.340
94608SOL     OW85662   4.557   0.135   9.950
94608SOL    HW185663   4.630   0.098   9.900
94608SOL    HW285664   4.506   0.059   9.977
94609SOL     OW85665   6.658   4.808   3.817
94609SOL    HW185666   6.592   4.781   3.881
94609SOL    HW285667   6.678   4.899   3.840
94610SOL     OW85668   3.083   5.854   0.660
94610SOL    HW185669   3.134   5.904   0.724
94610SOL    HW285670   3.142   5.842   0.586
94611SOL     OW85671  13.793  12.353   2.822
94611SOL    HW185672  13.863  12.307   2.775
94611SOL    HW285673  13.749  12.404   2.754
94612SOL     OW85674  13.470  10.328   0.836
94612SOL    HW185675  13.543  10.267   0.846
94612SOL    HW285676  13.453  10.330   0.742
94613SOL     OW85677  14.358   5.136   9.902
94613SOL    HW185678  14.326   5.046   9.903
94613SOL    HW285679  14.414   5.141   9.824
94614SOL     OW85680  11.174  13.570   5.998
94614SOL    HW185681  11.130  13.490   5.967
94614SOL    HW285682  11.129  13.592   6.079
94615SOL     OW85683   8.965   2.610   9.223
94615SOL    HW185684   9.017   2.530   9.224
94615SOL    HW285685   8.936   2.619   9.132
94616SOL     OW85686   0.127  12.083   1.082
94616SOL    HW185687   0.179  12.035   1.018
94616SOL    HW285688   0.094  12.159   1.035
94617SOL     OW85689   2.423  13.572   8.560
94617SOL    HW185690   2.461  13.596   8.645
94617SOL    HW285691   2.328  13.579   8.573
94618SOL     OW85692   7.661   4.653   4.913
94618SOL    HW185693   7.679   4.734   4.961
94618SOL    HW285694   7.620   4.682   4.831
94619SOL     OW85695  12.775   1.082   3.299
94619SOL    HW185696  12.760   1.114   3.388
94619SOL    HW285697  12.845   1.018   3.307
94620SOL     OW85698   2.772   3.875   4.765
94620SOL    HW185699   2.795   3.793   4.722
94620SOL    HW285700   2.850   3.900   4.813
94621SOL     OW85701  14.035   3.994  12.827
94621SOL    HW185702  14.086   3.913  12.826
94621SOL    HW285703  13.994   3.998  12.740
94622SOL     OW85704   3.705   1.047  11.570
94622SOL    HW185705   3.621   1.081  11.602
94622SOL    HW285706   3.692   0.953  11.564
94623SOL     OW85707  10.062   7.158  13.722
94623SOL    HW185708  10.061   7.062  13.733
94623SOL    HW285709   9.982   7.177  13.673
94624SOL     OW85710  14.704  14.189   2.866
94624SOL    HW185711  14.693  14.192   2.961
94624SOL    HW285712  14.656  14.111   2.838
94625SOL     OW85713   1.969  10.598   0.972
94625SOL    HW185714   1.926  10.684   0.982
94625SOL    HW285715   2.058  10.611   1.004
94626SOL     OW85716   9.066   4.818   8.870
94626SOL    HW185717   9.084   4.781   8.783
94626SOL    HW285718   9.056   4.912   8.854
94627SOL     OW85719   5.848   7.652  13.518
94627SOL    HW185720   5.905   7.675  13.591
94627SOL    HW285721   5.802   7.573  13.546
94628SOL     OW85722   2.994  11.438   8.090
94628SOL    HW185723   2.924  11.457   8.152
94628SOL    HW285724   3.000  11.342   8.088
94629SOL     OW85725   9.794   9.427   9.013
94629SOL    HW185726   9.787   9.402   9.105
94629SOL    HW285727   9.863   9.494   9.012
94630SOL     OW85728   9.600  12.554  11.137
94630SOL    HW185729   9.670  12.582  11.078
94630SOL    HW285730   9.605  12.458  11.135
94631SOL     OW85731  11.753  10.218  11.686
94631SOL    HW185732  11.659  10.221  11.703
94631SOL    HW285733  11.786  10.150  11.744
94632SOL     OW85734  10.909   0.729   2.218
94632SOL    HW185735  10.890   0.807   2.166
94632SOL    HW285736  10.994   0.746   2.257
94633SOL     OW85737   1.991   9.949   6.224
94633SOL    HW185738   1.986   9.854   6.232
94633SOL    HW285739   1.909   9.975   6.181
94634SOL     OW85740   3.300  14.493   6.616
94634SOL    HW185741   3.225  14.459   6.665
94634SOL    HW285742   3.327  14.571   6.665
94635SOL     OW85743   4.419  12.240   1.317
94635SOL    HW185744   4.454  12.253   1.229
94635SOL    HW285745   4.468  12.166   1.353
94636SOL     OW85746   1.704   0.396   0.863
94636SOL    HW185747   1.646   0.398   0.940
94636SOL    HW285748   1.779   0.449   0.888
94637SOL     OW85749   1.994   5.079  12.154
94637SOL    HW185750   2.006   5.064  12.060
94637SOL    HW285751   1.905   5.049  12.172
94638SOL     OW85752   9.426   9.353   3.505
94638SOL    HW185753   9.512   9.310   3.501
94638SOL    HW285754   9.435   9.431   3.450
94639SOL     OW85755   9.424   9.161  10.925
94639SOL    HW185756   9.350   9.215  10.898
94639SOL    HW285757   9.432   9.177  11.019
94640SOL     OW85758  12.115   6.112   1.397
94640SOL    HW185759  12.165   6.159   1.463
94640SOL    HW285760  12.096   6.177   1.329
94641SOL     OW85761   9.853   1.121  11.111
94641SOL    HW185762   9.885   1.032  11.124
94641SOL    HW285763   9.823   1.123  11.020
94642SOL     OW85764   0.898   5.948   6.413
94642SOL    HW185765   0.855   5.874   6.372
94642SOL    HW285766   0.982   5.956   6.368
94643SOL     OW85767  11.341   8.307   9.574
94643SOL    HW185768  11.293   8.387   9.595
94643SOL    HW285769  11.415   8.306   9.634
94644SOL     OW85770   6.374   6.448  13.177
94644SOL    HW185771   6.317   6.523  13.165
94644SOL    HW285772   6.460   6.478  13.147
94645SOL     OW85773   9.683  11.043   2.442
94645SOL    HW185774   9.600  11.008   2.410
94645SOL    HW285775   9.742  10.967   2.445
94646SOL     OW85776   5.427   8.780  11.988
94646SOL    HW185777   5.509   8.734  12.006
94646SOL    HW285778   5.382   8.726  11.924
94647SOL     OW85779   4.024   5.382   2.714
94647SOL    HW185780   4.055   5.386   2.804
94647SOL    HW285781   4.092   5.426   2.663
94648SOL     OW85782  12.346   4.121  11.532
94648SOL    HW185783  12.304   4.040  11.561
94648SOL    HW285784  12.427   4.092  11.491
94649SOL     OW85785   8.846   6.771   8.337
94649SOL    HW185786   8.899   6.699   8.303
94649SOL    HW285787   8.759   6.733   8.351
94650SOL     OW85788  10.555  10.361  12.176
94650SOL    HW185789  10.493  10.342  12.106
94650SOL    HW285790  10.557  10.281  12.228
94651SOL     OW85791   4.984  12.141  14.449
94651SOL    HW185792   5.058  12.201  14.456
94651SOL    HW285793   4.953  12.130  14.539
94652SOL     OW85794   3.469  14.390   4.982
94652SOL    HW185795   3.377  14.400   4.957
94652SOL    HW285796   3.484  14.296   4.982
94653SOL     OW85797   6.488   5.089  12.698
94653SOL    HW185798   6.421   5.063  12.635
94653SOL    HW285799   6.477   5.184  12.706
94654SOL     OW85800   8.158  13.620   8.670
94654SOL    HW185801   8.142  13.527   8.658
94654SOL    HW285802   8.198  13.649   8.588
94655SOL     OW85803  14.778   4.974   0.626
94655SOL    HW185804  14.834   5.019   0.563
94655SOL    HW285805  14.827   4.896   0.650
94656SOL     OW85806   4.013   3.213  13.471
94656SOL    HW185807   3.976   3.153  13.407
94656SOL    HW285808   3.962   3.293  13.461
94657SOL     OW85809   5.727   0.251   6.680
94657SOL    HW185810   5.767   0.167   6.706
94657SOL    HW285811   5.795   0.316   6.696
94658SOL     OW85812  14.422   8.431   7.271
94658SOL    HW185813  14.461   8.365   7.215
94658SOL    HW285814  14.444   8.404   7.360
94659SOL     OW85815   4.526  14.812   8.124
94659SOL    HW185816   4.534  14.862   8.043
94659SOL    HW285817   4.510  14.722   8.096
94660SOL     OW85818  14.366  12.157  12.895
94660SOL    HW185819  14.326  12.089  12.948
94660SOL    HW285820  14.293  12.214  12.870
94661SOL     OW85821   9.591   1.872   2.208
94661SOL    HW185822   9.615   1.895   2.118
94661SOL    HW285823   9.592   1.955   2.255
94662SOL     OW85824   2.363   9.314  14.872
94662SOL    HW185825   2.441   9.363   0.023
94662SOL    HW285826   2.394   9.226  14.855
94663SOL     OW85827   5.163   4.531   8.781
94663SOL    HW185828   5.195   4.603   8.837
94663SOL    HW285829   5.199   4.452   8.822
94664SOL     OW85830  13.638   6.330   8.098
94664SOL    HW185831  13.546   6.354   8.099
94664SOL    HW285832  13.670   6.353   8.185
94665SOL     OW85833  14.375   0.983   5.202
94665SOL    HW185834  14.394   0.915   5.138
94665SOL    HW285835  14.302   0.949   5.253
94666SOL     OW85836   9.782   7.437   2.571
94666SOL    HW185837   9.727   7.423   2.648
94666SOL    HW285838   9.871   7.420   2.601
94667SOL     OW85839   8.722  12.997  13.963
94667SOL    HW185840   8.750  12.948  14.040
94667SOL    HW285841   8.766  13.082  13.971
94668SOL     OW85842   9.118  11.902   2.324
94668SOL    HW185843   9.043  11.891   2.382
94668SOL    HW285844   9.175  11.828   2.343
94669SOL     OW85845   4.499  12.146   1.670
94669SOL    HW185846   4.557  12.096   1.727
94669SOL    HW285847   4.537  12.234   1.668
94670SOL     OW85848   2.249  13.887   1.751
94670SOL    HW185849   2.238  13.796   1.781
94670SOL    HW285850   2.235  13.883   1.657
94671SOL     OW85851  13.048  12.926   2.515
94671SOL    HW185852  13.110  12.888   2.453
94671SOL    HW285853  12.963  12.891   2.487
94672SOL     OW85854   3.077   8.154   1.145
94672SOL    HW185855   3.089   8.188   1.234
94672SOL    HW285856   3.035   8.226   1.098
94673SOL     OW85857   9.611   7.673   2.723
94673SOL    HW185858   9.559   7.717   2.656
94673SOL    HW285859   9.587   7.580   2.714
94674SOL     OW85860   0.048   0.716   0.321
94674SOL    HW185861   0.048   0.812   0.313
94674SOL    HW285862   0.012   0.686   0.237
94675SOL     OW85863  11.710  13.418   3.494
94675SOL    HW185864  11.756  13.339   3.465
94675SOL    HW285865  11.642  13.431   3.427
94676SOL     OW85866   9.019   5.044  10.213
94676SOL    HW185867   9.066   5.036  10.130
94676SOL    HW285868   9.054   5.123  10.253
94677SOL     OW85869   0.827   5.003   0.385
94677SOL    HW185870   0.770   5.055   0.441
94677SOL    HW285871   0.806   4.912   0.409
94678SOL     OW85872   1.145   4.721  14.499
94678SOL    HW185873   1.228   4.765  14.515
94678SOL    HW285874   1.131   4.729  14.405
94679SOL     OW85875   1.020   6.595  11.034
94679SOL    HW185876   1.029   6.550  11.118
94679SOL    HW285877   1.108   6.629  11.016
94680SOL     OW85878   9.279   7.852   5.461
94680SOL    HW185879   9.226   7.931   5.463
94680SOL    HW285880   9.338   7.861   5.536
94681SOL     OW85881  10.769   8.830  13.123
94681SOL    HW185882  10.724   8.914  13.128
94681SOL    HW285883  10.715   8.777  13.065
94682SOL     OW85884   1.403  11.307   3.625
94682SOL    HW185885   1.307  11.307   3.630
94682SOL    HW285886   1.428  11.396   3.651
94683SOL     OW85887  11.255  11.190   9.972
94683SOL    HW185888  11.273  11.242  10.050
94683SOL    HW285889  11.340  11.154   9.946
94684SOL     OW85890   8.686   7.966   0.522
94684SOL    HW185891   8.685   7.970   0.618
94684SOL    HW285892   8.604   8.008   0.496
94685SOL     OW85893   6.865   1.603   7.795
94685SOL    HW185894   6.883   1.522   7.843
94685SOL    HW285895   6.951   1.633   7.764
94686SOL     OW85896  10.793   6.113   4.701
94686SOL    HW185897  10.742   6.185   4.739
94686SOL    HW285898  10.823   6.063   4.777
94687SOL     OW85899  12.343   9.684  13.098
94687SOL    HW185900  12.284   9.667  13.171
94687SOL    HW285901  12.336   9.607  13.042
94688SOL     OW85902   9.628   4.171   3.906
94688SOL    HW185903   9.605   4.083   3.875
94688SOL    HW285904   9.673   4.157   3.989
94689SOL     OW85905  13.718   0.430   8.419
94689SOL    HW185906  13.769   0.470   8.348
94689SOL    HW285907  13.663   0.365   8.376
94690SOL     OW85908  13.323   9.039  11.297
94690SOL    HW185909  13.317   9.005  11.386
94690SOL    HW285910  13.232   9.059  11.274
94691SOL     OW85911  14.657  11.086   9.585
94691SOL    HW185912  14.682  11.154   9.522
94691SOL    HW285913  14.734  11.030   9.591
94692SOL     OW85914   6.246   9.011   5.257
94692SOL    HW185915   6.176   9.075   5.265
94692SOL    HW285916   6.201   8.927   5.245
94693SOL     OW85917  13.994  10.060  14.164
94693SOL    HW185918  14.035  10.104  14.238
94693SOL    HW285919  14.036  10.098  14.087
94694SOL     OW85920   6.308  10.016  14.822
94694SOL    HW185921   6.345  10.013  14.734
94694SOL    HW285922   6.213  10.016  14.808
94695SOL     OW85923  10.266   4.184   5.699
94695SOL    HW185924  10.216   4.250   5.746
94695SOL    HW285925  10.332   4.233   5.650
94696SOL     OW85926   3.542  12.774   6.648
94696SOL    HW185927   3.530  12.803   6.558
94696SOL    HW285928   3.452  12.763   6.681
94697SOL     OW85929   2.665   7.895  13.753
94697SOL    HW185930   2.718   7.867  13.679
94697SOL    HW285931   2.581   7.921  13.714
94698SOL     OW85932   1.547   3.431   9.523
94698SOL    HW185933   1.622   3.490   9.516
94698SOL    HW285934   1.506   3.454   9.606
94699SOL     OW85935   0.838   3.174  11.213
94699SOL    HW185936   0.877   3.103  11.161
94699SOL    HW285937   0.816   3.241  11.149
94700SOL     OW85938   9.684   0.649   3.031
94700SOL    HW185939   9.745   0.687   3.094
94700SOL    HW285940   9.606   0.705   3.037
94701SOL     OW85941   5.907  11.416   5.705
94701SOL    HW185942   5.827  11.460   5.674
94701SOL    HW285943   5.978  11.458   5.655
94702SOL     OW85944  11.557   4.101   4.860
94702SOL    HW185945  11.481   4.141   4.819
94702SOL    HW285946  11.623   4.098   4.791
94703SOL     OW85947   6.445  13.778   7.847
94703SOL    HW185948   6.437  13.823   7.763
94703SOL    HW285949   6.365  13.726   7.854
94704SOL     OW85950   7.071   6.421   0.164
94704SOL    HW185951   7.047   6.514   0.170
94704SOL    HW285952   7.091   6.408   0.071
94705SOL     OW85953  13.419   4.223   1.153
94705SOL    HW185954  13.436   4.315   1.174
94705SOL    HW285955  13.504   4.181   1.164
94706SOL     OW85956  10.699   1.060  12.620
94706SOL    HW185957  10.721   1.020  12.536
94706SOL    HW285958  10.675   1.150  12.598
94707SOL     OW85959   6.768   4.638  11.447
94707SOL    HW185960   6.731   4.577  11.384
94707SOL    HW285961   6.817   4.583  11.508
94708SOL     OW85962  14.058  10.690   4.264
94708SOL    HW185963  13.967  10.716   4.249
94708SOL    HW285964  14.110  10.762   4.229
94709SOL     OW85965  11.144   3.870   9.722
94709SOL    HW185966  11.229   3.829   9.735
94709SOL    HW285967  11.081   3.804   9.753
94710SOL     OW85968   8.827   6.938  11.563
94710SOL    HW185969   8.893   6.993  11.520
94710SOL    HW285970   8.861   6.849  11.554
94711SOL     OW85971  12.219   4.217  13.728
94711SOL    HW185972  12.247   4.295  13.775
94711SOL    HW285973  12.300   4.180  13.693
94712SOL     OW85974  14.230   2.830   2.517
94712SOL    HW185975  14.188   2.898   2.570
94712SOL    HW285976  14.258   2.764   2.580
94713SOL     OW85977   8.027   2.645   0.809
94713SOL    HW185978   7.994   2.714   0.751
94713SOL    HW285979   7.976   2.568   0.786
94714SOL     OW85980   3.786   6.463   3.987
94714SOL    HW185981   3.774   6.377   3.945
94714SOL    HW285982   3.824   6.442   4.072
94715SOL     OW85983   0.441   4.492  11.898
94715SOL    HW185984   0.408   4.431  11.965
94715SOL    HW285985   0.432   4.578  11.938
94716SOL     OW85986  13.113  11.705   5.432
94716SOL    HW185987  13.067  11.669   5.508
94716SOL    HW285988  13.203  11.672   5.441
94717SOL     OW85989  11.138   7.168   2.689
94717SOL    HW185990  11.127   7.263   2.698
94717SOL    HW285991  11.077   7.143   2.620
94718SOL     OW85992   5.162  13.431   0.268
94718SOL    HW185993   5.112  13.380   0.204
94718SOL    HW285994   5.140  13.393   0.353
94719SOL     OW85995   7.608   0.047   4.537
94719SOL    HW185996   7.664  14.873   4.596
94719SOL    HW285997   7.626   0.010   4.450
94720SOL     OW85998   0.260   3.461   5.141
94720SOL    HW185999   0.253   3.431   5.232
94720SOL    HW286000   0.352   3.487   5.132
94721SOL     OW86001   1.599   4.902  11.156
94721SOL    HW186002   1.683   4.920  11.198
94721SOL    HW286003   1.620   4.898  11.063
94722SOL     OW86004  14.830   3.064   8.528
94722SOL    HW186005   0.024   2.999   8.524
94722SOL    HW286006  14.818   3.092   8.437
94723SOL     OW86007  12.743   9.614  10.677
94723SOL    HW186008  12.778   9.703  10.673
94723SOL    HW286009  12.707   9.607  10.765
94724SOL     OW86010   6.085   1.027   6.722
94724SOL    HW186011   6.041   0.996   6.801
94724SOL    HW286012   6.128   0.949   6.686
94725SOL     OW86013  11.284  12.735   0.124
94725SOL    HW186014  11.364  12.725   0.176
94725SOL    HW286015  11.246  12.647   0.120
94726SOL     OW86016   5.757  11.738   1.089
94726SOL    HW186017   5.721  11.802   1.028
94726SOL    HW286018   5.851  11.759   1.093
94727SOL     OW86019   8.521  11.198   3.151
94727SOL    HW186020   8.586  11.128   3.157
94727SOL    HW286021   8.548  11.250   3.075
94728SOL     OW86022   6.940   7.313   4.145
94728SOL    HW186023   6.915   7.240   4.201
94728SOL    HW286024   6.863   7.328   4.089
94729SOL     OW86025   1.494  10.632   5.100
94729SOL    HW186026   1.538  10.553   5.131
94729SOL    HW286027   1.431  10.653   5.169
94730SOL     OW86028   1.457  10.308  13.474
94730SOL    HW186029   1.508  10.380  13.436
94730SOL    HW286030   1.503  10.286  13.554
94731SOL     OW86031   6.643   7.582   3.835
94731SOL    HW186032   6.680   7.641   3.770
94731SOL    HW286033   6.606   7.639   3.902
94732SOL     OW86034   5.381  12.454   6.723
94732SOL    HW186035   5.322  12.419   6.790
94732SOL    HW286036   5.453  12.493   6.773
94733SOL     OW86037  13.656   0.795   4.822
94733SOL    HW186038  13.715   0.727   4.790
94733SOL    HW286039  13.626   0.840   4.744
94734SOL     OW86040  12.013   7.681   3.863
94734SOL    HW186041  12.057   7.599   3.883
94734SOL    HW286042  12.072   7.749   3.895
94735SOL     OW86043   3.800   4.584   9.537
94735SOL    HW186044   3.744   4.661   9.541
94735SOL    HW286045   3.847   4.584   9.621
94736SOL     OW86046   4.621   7.684   8.256
94736SOL    HW186047   4.569   7.697   8.177
94736SOL    HW286048   4.702   7.644   8.225
94737SOL     OW86049  13.166   1.539   8.768
94737SOL    HW186050  13.164   1.443   8.766
94737SOL    HW286051  13.109   1.565   8.696
94738SOL     OW86052   7.436   4.717   2.327
94738SOL    HW186053   7.352   4.714   2.282
94738SOL    HW286054   7.416   4.699   2.419
94739SOL     OW86055   9.112  11.791  13.717
94739SOL    HW186056   9.059  11.853  13.667
94739SOL    HW286057   9.202  11.820  13.704
94740SOL     OW86058   7.402  12.616   8.549
94740SOL    HW186059   7.398  12.679   8.620
94740SOL    HW286060   7.329  12.557   8.564
94741SOL     OW86061   5.281  10.412   9.214
94741SOL    HW186062   5.187  10.409   9.229
94741SOL    HW286063   5.295  10.351   9.141
94742SOL     OW86064  12.216   6.415   1.460
94742SOL    HW186065  12.151   6.484   1.476
94742SOL    HW286066  12.222   6.368   1.543
94743SOL     OW86067   2.251  13.383   8.102
94743SOL    HW186068   2.234  13.413   8.191
94743SOL    HW286069   2.164  13.362   8.067
94744SOL     OW86070   6.533  10.900   6.354
94744SOL    HW186071   6.497  10.984   6.381
94744SOL    HW286072   6.500  10.887   6.265
94745SOL     OW86073   7.313  13.776   4.778
94745SOL    HW186074   7.251  13.752   4.847
94745SOL    HW286075   7.260  13.817   4.710
94746SOL     OW86076   3.965  13.919   4.933
94746SOL    HW186077   3.980  13.825   4.943
94746SOL    HW286078   3.896  13.939   4.996
94747SOL     OW86079  10.130   7.918   4.792
94747SOL    HW186080  10.221   7.909   4.764
94747SOL    HW286081  10.092   7.831   4.779
94748SOL     OW86082   8.461   5.824  13.382
94748SOL    HW186083   8.409   5.899  13.353
94748SOL    HW286084   8.404   5.776  13.441
94749SOL     OW86085   9.233  13.820   8.073
94749SOL    HW186086   9.223  13.886   8.005
94749SOL    HW286087   9.299  13.856   8.133
94750SOL     OW86088   1.396   1.021  10.543
94750SOL    HW186089   1.434   0.949  10.593
94750SOL    HW286090   1.470   1.079  10.525
94751SOL     OW86091  11.896   5.768  10.925
94751SOL    HW186092  11.862   5.785  10.837
94751SOL    HW286093  11.966   5.704  10.911
94752SOL     OW86094  12.905  12.030  11.041
94752SOL    HW186095  12.917  11.940  11.011
94752SOL    HW286096  12.960  12.083  10.984
94753SOL     OW86097   1.813   4.776   5.993
94753SOL    HW186098   1.785   4.826   6.070
94753SOL    HW286099   1.892   4.731   6.021
94754SOL     OW86100  12.437  12.862  14.367
94754SOL    HW186101  12.430  12.955  14.390
94754SOL    HW286102  12.522  12.855  14.325
94755SOL     OW86103   7.820  13.149  13.245
94755SOL    HW186104   7.765  13.224  13.270
94755SOL    HW286105   7.810  13.087  13.317
94756SOL     OW86106  11.002  12.396   7.736
94756SOL    HW186107  10.961  12.315   7.704
94756SOL    HW286108  10.979  12.399   7.829
94757SOL     OW86109  11.677   5.681  13.312
94757SOL    HW186110  11.612   5.615  13.337
94757SOL    HW286111  11.624   5.753  13.277
94758SOL     OW86112   5.522   2.222  14.629
94758SOL    HW186113   5.584   2.230  14.701
94758SOL    HW286114   5.575   2.237  14.550
94759SOL     OW86115   2.723   2.923   9.982
94759SOL    HW186116   2.666   2.880   9.918
94759SOL    HW286117   2.802   2.870   9.983
94760SOL     OW86118   4.048  11.940   5.417
94760SOL    HW186119   3.985  11.935   5.490
94760SOL    HW286120   3.997  11.974   5.344
94761SOL     OW86121  10.955   6.093   8.004
94761SOL    HW186122  10.863   6.120   8.000
94761SOL    HW286123  10.964   6.054   8.091
94762SOL     OW86124  12.196   2.433   9.270
94762SOL    HW186125  12.205   2.338   9.272
94762SOL    HW286126  12.102   2.448   9.257
94763SOL     OW86127  10.283   3.461  11.368
94763SOL    HW186128  10.265   3.533  11.428
94763SOL    HW286129  10.235   3.387  11.404
94764SOL     OW86130  12.689   3.767   8.667
94764SOL    HW186131  12.608   3.765   8.718
94764SOL    HW286132  12.675   3.838   8.604
94765SOL     OW86133  12.284   9.529   4.238
94765SOL    HW186134  12.309   9.550   4.328
94765SOL    HW286135  12.304   9.436   4.228
94766SOL     OW86136   3.459   9.965   6.550
94766SOL    HW186137   3.383   9.972   6.492
94766SOL    HW286138   3.440   9.889   6.605
94767SOL     OW86139  10.891   0.410   4.666
94767SOL    HW186140  10.957   0.464   4.710
94767SOL    HW286141  10.825   0.394   4.733
94768SOL     OW86142   2.255  13.191  11.793
94768SOL    HW186143   2.323  13.248  11.758
94768SOL    HW286144   2.272  13.106  11.754
94769SOL     OW86145  14.812   5.250   4.889
94769SOL    HW186146  14.787   5.160   4.912
94769SOL    HW286147   0.023   5.241   4.849
94770SOL     OW86148  13.115   9.769  12.361
94770SOL    HW186149  13.098   9.780  12.267
94770SOL    HW286150  13.055   9.830  12.403
94771SOL     OW86151   2.578   3.622   9.723
94771SOL    HW186152   2.590   3.672   9.804
94771SOL    HW286153   2.608   3.534   9.744
94772SOL     OW86154  12.810  12.007   0.745
94772SOL    HW186155  12.806  12.101   0.764
94772SOL    HW286156  12.742  11.969   0.802
94773SOL     OW86157   5.816   8.816   5.124
94773SOL    HW186158   5.802   8.775   5.038
94773SOL    HW286159   5.794   8.748   5.187
94774SOL     OW86160  14.237   8.852   2.272
94774SOL    HW186161  14.302   8.783   2.287
94774SOL    HW286162  14.236   8.902   2.353
94775SOL     OW86163   9.503   5.000   3.211
94775SOL    HW186164   9.497   4.921   3.158
94775SOL    HW286165   9.460   4.977   3.293
94776SOL     OW86166   5.958  10.046   7.885
94776SOL    HW186167   5.953  10.023   7.977
94776SOL    HW286168   5.997  10.133   7.884
94777SOL     OW86169   3.401  10.678  10.049
94777SOL    HW186170   3.478  10.719  10.089
94777SOL    HW286171   3.380  10.606  10.108
94778SOL     OW86172   3.178   5.691  11.754
94778SOL    HW186173   3.219   5.638  11.823
94778SOL    HW286174   3.241   5.688  11.682
94779SOL     OW86175   5.778   3.164   0.060
94779SOL    HW186176   5.860   3.189   0.104
94779SOL    HW286177   5.726   3.123   0.129
94780SOL     OW86178   7.464  12.270   0.825
94780SOL    HW186179   7.533  12.270   0.759
94780SOL    HW286180   7.511  12.271   0.909
94781SOL     OW86181  14.716  12.260   4.437
94781SOL    HW186182  14.733  12.348   4.405
94781SOL    HW286183  14.628  12.264   4.474
94782SOL     OW86184   2.189   3.038   2.461
94782SOL    HW186185   2.102   3.066   2.489
94782SOL    HW286186   2.248   3.102   2.500
94783SOL     OW86187  10.251   4.820   4.760
94783SOL    HW186188  10.159   4.797   4.749
94783SOL    HW286189  10.279   4.848   4.673
94784SOL     OW86190   6.926   0.636  13.336
94784SOL    HW186191   6.862   0.597  13.277
94784SOL    HW286192   6.984   0.686  13.279
94785SOL     OW86193   4.642   5.522  11.608
94785SOL    HW186194   4.636   5.605  11.656
94785SOL    HW286195   4.688   5.464  11.668
94786SOL     OW86196   6.324   2.225   9.760
94786SOL    HW186197   6.359   2.141   9.791
94786SOL    HW286198   6.391   2.289   9.783
94787SOL     OW86199   5.257  12.158  14.220
94787SOL    HW186200   5.306  12.172  14.301
94787SOL    HW286201   5.204  12.238  14.210
94788SOL     OW86202   6.341   2.160  14.514
94788SOL    HW186203   6.315   2.219  14.585
94788SOL    HW286204   6.290   2.189  14.439
94789SOL     OW86205   2.061   5.773   5.175
94789SOL    HW186206   1.966   5.769   5.185
94789SOL    HW286207   2.076   5.769   5.080
94790SOL     OW86208   6.136   2.445   2.307
94790SOL    HW186209   6.177   2.518   2.262
94790SOL    HW286210   6.083   2.485   2.376
94791SOL     OW86211   0.457   9.180   3.793
94791SOL    HW186212   0.451   9.091   3.758
94791SOL    HW286213   0.482   9.169   3.885
94792SOL     OW86214   4.975  14.855   1.061
94792SOL    HW186215   4.893  14.856   1.011
94792SOL    HW286216   5.029  14.791   1.015
94793SOL     OW86217   3.894   9.397   0.874
94793SOL    HW186218   3.896   9.463   0.805
94793SOL    HW286219   3.961   9.425   0.936
94794SOL     OW86220  12.593   3.658   6.168
94794SOL    HW186221  12.551   3.736   6.202
94794SOL    HW286222  12.676   3.689   6.131
94795SOL     OW86223   0.282  10.750  14.035
94795SOL    HW186224   0.342  10.703  13.976
94795SOL    HW286225   0.334  10.824  14.067
94796SOL     OW86226   9.796  14.064   2.596
94796SOL    HW186227   9.715  14.015   2.581
94796SOL    HW286228   9.840  14.065   2.511
94797SOL     OW86229   3.222   0.225   8.235
94797SOL    HW186230   3.134   0.257   8.213
94797SOL    HW286231   3.269   0.225   8.152
94798SOL     OW86232   1.959   3.422   0.281
94798SOL    HW186233   2.040   3.381   0.251
94798SOL    HW286234   1.934   3.481   0.209
94799SOL     OW86235   9.493  11.331  13.647
94799SOL    HW186236   9.463  11.246  13.678
94799SOL    HW286237   9.523  11.377  13.726
94800SOL     OW86238  13.770   8.326  11.571
94800SOL    HW186239  13.843   8.386  11.558
94800SOL    HW286240  13.719   8.333  11.490
94801SOL     OW86241   0.031   8.414   1.589
94801SOL    HW186242   0.019   8.334   1.639
94801SOL    HW286243   0.126   8.424   1.581
94802SOL     OW86244   4.685   2.889  10.004
94802SOL    HW186245   4.600   2.930  10.015
94802SOL    HW286246   4.748   2.961  10.014
94803SOL     OW86247   7.053  14.006  14.008
94803SOL    HW186248   7.005  13.927  13.984
94803SOL    HW286249   6.987  14.061  14.051
94804SOL     OW86250  10.191   9.758  14.751
94804SOL    HW186251  10.188   9.779  14.844
94804SOL    HW286252  10.283   9.768  14.727
94805SOL     OW86253  10.174  14.166   4.550
94805SOL    HW186254  10.138  14.182   4.637
94805SOL    HW286255  10.247  14.107   4.565
94806SOL     OW86256   7.619  12.054  14.584
94806SOL    HW186257   7.692  12.098  14.629
94806SOL    HW286258   7.654  11.968  14.560
94807SOL     OW86259   6.350  12.613  12.090
94807SOL    HW186260   6.347  12.595  12.184
94807SOL    HW286261   6.265  12.583  12.058
94808SOL     OW86262   6.938   7.257  11.372
94808SOL    HW186263   6.999   7.283  11.441
94808SOL    HW286264   6.938   7.161  11.375
94809SOL     OW86265  10.244   1.511   3.090
94809SOL    HW186266  10.251   1.457   3.169
94809SOL    HW286267  10.250   1.448   3.018
94810SOL     OW86268   0.442  13.084   3.633
94810SOL    HW186269   0.513  13.040   3.679
94810SOL    HW286270   0.402  13.017   3.579
94811SOL     OW86271   5.167   7.146  12.288
94811SOL    HW186272   5.129   7.202  12.220
94811SOL    HW286273   5.093   7.120  12.342
94812SOL     OW86274   2.835  10.429   9.176
94812SOL    HW186275   2.863  10.338   9.170
94812SOL    HW286276   2.798  10.449   9.090
94813SOL     OW86277  13.621   2.648  14.356
94813SOL    HW186278  13.675   2.570  14.342
94813SOL    HW286279  13.580   2.665  14.272
94814SOL     OW86280   5.054   2.516   0.791
94814SOL    HW186281   5.021   2.464   0.864
94814SOL    HW286282   5.000   2.491   0.716
94815SOL     OW86283   1.570   7.832   3.845
94815SOL    HW186284   1.660   7.828   3.814
94815SOL    HW286285   1.517   7.818   3.766
94816SOL     OW86286  11.089   4.254  13.823
94816SOL    HW186287  11.010   4.283  13.868
94816SOL    HW286288  11.069   4.166  13.792
94817SOL     OW86289  11.923   5.963  14.420
94817SOL    HW186290  11.874   5.885  14.394
94817SOL    HW286291  12.015   5.939  14.405
94818SOL     OW86292   8.689   3.454   5.658
94818SOL    HW186293   8.702   3.370   5.613
94818SOL    HW286294   8.608   3.489   5.622
94819SOL     OW86295  11.843   0.531  14.475
94819SOL    HW186296  11.842   0.449  14.524
94819SOL    HW286297  11.880   0.508  14.390
94820SOL     OW86298  11.208   3.874  11.243
94820SOL    HW186299  11.254   3.808  11.191
94820SOL    HW286300  11.278   3.931  11.276
94821SOL     OW86301   3.398   6.122   1.541
94821SOL    HW186302   3.404   6.187   1.612
94821SOL    HW286303   3.404   6.174   1.461
94822SOL     OW86304  14.826  14.391  11.634
94822SOL    HW186305  14.845  14.477  11.672
94822SOL    HW286306   0.011  14.383  11.561
94823SOL     OW86307  13.563  13.608  10.514
94823SOL    HW186308  13.524  13.658  10.586
94823SOL    HW286309  13.489  13.560  10.476
94824SOL     OW86310  10.813  13.985   6.561
94824SOL    HW186311  10.727  13.944   6.554
94824SOL    HW286312  10.807  14.040   6.640
94825SOL     OW86313   9.607   7.612  13.462
94825SOL    HW186314   9.595   7.656  13.547
94825SOL    HW286315   9.518   7.585  13.437
94826SOL     OW86316   7.415   5.571   9.082
94826SOL    HW186317   7.457   5.556   8.998
94826SOL    HW286318   7.424   5.487   9.128
94827SOL     OW86319   3.597  11.606   4.077
94827SOL    HW186320   3.586  11.633   4.169
94827SOL    HW286321   3.565  11.516   4.074
94828SOL     OW86322   5.371   8.324   5.062
94828SOL    HW186323   5.347   8.251   5.004
94828SOL    HW286324   5.430   8.377   5.009
94829SOL     OW86325  13.299   9.047   9.622
94829SOL    HW186326  13.331   9.037   9.712
94829SOL    HW286327  13.377   9.068   9.571
94830SOL     OW86328   9.634   3.374  10.595
94830SOL    HW186329   9.690   3.434  10.544
94830SOL    HW286330   9.588   3.432  10.656
94831SOL     OW86331   1.307   2.327   5.793
94831SOL    HW186332   1.238   2.392   5.809
94831SOL    HW286333   1.368   2.371   5.733
94832SOL     OW86334  13.400   5.224  10.634
94832SOL    HW186335  13.365   5.246  10.720
94832SOL    HW286336  13.345   5.152  10.604
94833SOL     OW86337   6.388   6.649   5.614
94833SOL    HW186338   6.432   6.634   5.698
94833SOL    HW286339   6.338   6.730   5.628
94834SOL     OW86340   4.338  11.460   2.327
94834SOL    HW186341   4.307  11.544   2.364
94834SOL    HW286342   4.306  11.394   2.389
94835SOL     OW86343   9.408   4.851  10.295
94835SOL    HW186344   9.331   4.796  10.304
94835SOL    HW286345   9.458   4.837  10.376
94836SOL     OW86346   4.763  13.280  10.261
94836SOL    HW186347   4.725  13.196  10.235
94836SOL    HW286348   4.729  13.343  10.198
94837SOL     OW86349   7.058  14.351   6.596
94837SOL    HW186350   7.129  14.326   6.536
94837SOL    HW286351   7.099  14.354   6.682
94838SOL     OW86352   2.852   0.528  11.572
94838SOL    HW186353   2.937   0.543  11.614
94838SOL    HW286354   2.801   0.481  11.638
94839SOL     OW86355  10.937  10.063   9.075
94839SOL    HW186356  10.896  10.003   9.137
94839SOL    HW286357  10.885  10.055   8.995
94840SOL     OW86358   1.298   4.845   5.594
94840SOL    HW186359   1.385   4.825   5.629
94840SOL    HW286360   1.289   4.786   5.519
94841SOL     OW86361  10.097   2.016  11.851
94841SOL    HW186362  10.166   1.974  11.800
94841SOL    HW286363  10.070   1.950  11.915
94842SOL     OW86364   1.456  14.466  14.121
94842SOL    HW186365   1.518  14.506  14.060
94842SOL    HW286366   1.376  14.456  14.070
94843SOL     OW86367   8.663  11.950   7.534
94843SOL    HW186368   8.592  11.901   7.491
94843SOL    HW286369   8.619  12.020   7.581
94844SOL     OW86370   2.261   9.095   9.979
94844SOL    HW186371   2.249   9.021  10.039
94844SOL    HW286372   2.179   9.144   9.985
94845SOL     OW86373   1.646   5.473  11.469
94845SOL    HW186374   1.666   5.556  11.512
94845SOL    HW286375   1.551   5.468  11.468
94846SOL     OW86376  13.908   9.548   4.124
94846SOL    HW186377  13.908   9.625   4.066
94846SOL    HW286378  13.877   9.476   4.069
94847SOL     OW86379   3.998   7.256   1.600
94847SOL    HW186380   4.029   7.301   1.521
94847SOL    HW286381   4.072   7.256   1.659
94848SOL     OW86382   0.826   8.523   5.134
94848SOL    HW186383   0.749   8.495   5.183
94848SOL    HW286384   0.850   8.607   5.172
94849SOL     OW86385   5.306   3.870  10.198
94849SOL    HW186386   5.337   3.797  10.145
94849SOL    HW286387   5.363   3.943  10.174
94850SOL     OW86388   4.757   3.526   2.580
94850SOL    HW186389   4.733   3.605   2.627
94850SOL    HW286390   4.686   3.464   2.598
94851SOL     OW86391  14.467   1.933   9.454
94851SOL    HW186392  14.515   1.876   9.514
94851SOL    HW286393  14.522   1.938   9.376
94852SOL     OW86394  11.131   0.983   0.967
94852SOL    HW186395  11.126   0.929   0.888
94852SOL    HW286396  11.069   1.055   0.951
94853SOL     OW86397   6.168   0.835   1.647
94853SOL    HW186398   6.091   0.880   1.612
94853SOL    HW286399   6.156   0.744   1.619
94854SOL     OW86400   8.092   1.587  14.233
94854SOL    HW186401   8.149   1.526  14.280
94854SOL    HW286402   8.062   1.539  14.156
94855SOL     OW86403   6.068  10.388  11.160
94855SOL    HW186404   6.152  10.397  11.116
94855SOL    HW286405   6.006  10.370  11.089
94856SOL     OW86406  12.415  11.819   4.976
94856SOL    HW186407  12.510  11.803   4.975
94856SOL    HW286408  12.407  11.910   5.006
94857SOL     OW86409   3.647   9.435   1.727
94857SOL    HW186410   3.600   9.447   1.644
94857SOL    HW286411   3.661   9.524   1.758
94858SOL     OW86412   8.490   3.348   8.998
94858SOL    HW186413   8.506   3.353   8.903
94858SOL    HW286414   8.531   3.427   9.033
94859SOL     OW86415   5.725   6.214  12.085
94859SOL    HW186416   5.728   6.124  12.116
94859SOL    HW286417   5.632   6.236  12.083
94860SOL     OW86418  12.982   8.261  10.262
94860SOL    HW186419  12.953   8.350  10.285
94860SOL    HW286420  12.904   8.219  10.227
94861SOL     OW86421   6.161   1.538   2.540
94861SOL    HW186422   6.122   1.453   2.517
94861SOL    HW286423   6.206   1.521   2.623
94862SOL     OW86424   5.360   4.388   9.715
94862SOL    HW186425   5.411   4.465   9.693
94862SOL    HW286426   5.312   4.413   9.794
94863SOL     OW86427   0.022   5.170  14.760
94863SOL    HW186428  14.809   5.140  14.742
94863SOL    HW286429   0.017   5.266  14.752
94864SOL     OW86430   6.959   8.972   5.413
94864SOL    HW186431   6.980   9.047   5.356
94864SOL    HW286432   7.017   8.903   5.383
94865SOL     OW86433   5.960   2.870   5.690
94865SOL    HW186434   5.920   2.818   5.760
94865SOL    HW286435   6.033   2.915   5.731
94866SOL     OW86436   1.565   4.319   4.145
94866SOL    HW186437   1.637   4.275   4.100
94866SOL    HW286438   1.544   4.261   4.220
94867SOL     OW86439   2.298   4.166   1.232
94867SOL    HW186440   2.380   4.149   1.186
94867SOL    HW286441   2.267   4.080   1.259
94868SOL     OW86442   0.756  13.408   4.564
94868SOL    HW186443   0.846  13.392   4.592
94868SOL    HW286444   0.754  13.502   4.542
94869SOL     OW86445   3.889  12.824   1.513
94869SOL    HW186446   3.849  12.749   1.470
94869SOL    HW286447   3.983  12.805   1.513
94870SOL     OW86448   6.700   7.743   7.588
94870SOL    HW186449   6.739   7.660   7.616
94870SOL    HW286450   6.607   7.735   7.609
94871SOL     OW86451   2.646   5.104   9.370
94871SOL    HW186452   2.713   5.161   9.333
94871SOL    HW286453   2.615   5.051   9.297
94872SOL     OW86454   3.094   3.361  11.194
94872SOL    HW186455   3.029   3.293  11.175
94872SOL    HW286456   3.042   3.440  11.208
94873SOL     OW86457   9.385   2.113   6.603
94873SOL    HW186458   9.358   2.028   6.638
94873SOL    HW286459   9.330   2.177   6.648
94874SOL     OW86460   9.175   9.917  11.136
94874SOL    HW186461   9.141  10.006  11.146
94874SOL    HW286462   9.165   9.877  11.222
94875SOL     OW86463  10.058   2.706   6.231
94875SOL    HW186464  10.141   2.739   6.265
94875SOL    HW286465  10.073   2.612   6.220
94876SOL     OW86466   7.487   9.214   5.319
94876SOL    HW186467   7.466   9.242   5.230
94876SOL    HW286468   7.403   9.219   5.366
94877SOL     OW86469   3.779   9.615   7.192
94877SOL    HW186470   3.792   9.521   7.198
94877SOL    HW286471   3.863   9.653   7.217
94878SOL     OW86472   3.446  11.110   2.859
94878SOL    HW186473   3.542  11.115   2.864
94878SOL    HW286474   3.416  11.143   2.944
94879SOL     OW86475   1.766   6.097   1.377
94879SOL    HW186476   1.758   6.192   1.386
94879SOL    HW286477   1.723   6.062   1.455
94880SOL     OW86478   3.574   5.617  10.666
94880SOL    HW186479   3.481   5.609  10.644
94880SOL    HW286480   3.620   5.572  10.595
94881SOL     OW86481   7.498   9.542  10.357
94881SOL    HW186482   7.591   9.521  10.356
94881SOL    HW286483   7.465   9.503  10.438
94882SOL     OW86484   5.019  13.158   5.334
94882SOL    HW186485   5.083  13.158   5.405
94882SOL    HW286486   5.052  13.094   5.271
94883SOL     OW86487   4.649   2.183   0.785
94883SOL    HW186488   4.693   2.100   0.807
94883SOL    HW286489   4.562   2.174   0.823
94884SOL     OW86490  12.172  11.337   1.441
94884SOL    HW186491  12.129  11.422   1.451
94884SOL    HW286492  12.238  11.335   1.511
94885SOL     OW86493   3.705   3.472   0.019
94885SOL    HW186494   3.769   3.404  14.873
94885SOL    HW286495   3.750   3.554  14.875
94886SOL     OW86496  13.114  13.949   7.703
94886SOL    HW186497  13.059  13.881   7.663
94886SOL    HW286498  13.069  13.972   7.784
94887SOL     OW86499   5.220   2.987   3.531
94887SOL    HW186500   5.190   2.896   3.531
94887SOL    HW286501   5.314   2.981   3.544
94888SOL     OW86502   0.129   0.124   8.995
94888SOL    HW186503   0.087   0.120   9.081
94888SOL    HW286504   0.117   0.215   8.967
94889SOL     OW86505   8.108   4.250   8.236
94889SOL    HW186506   8.083   4.326   8.183
94889SOL    HW286507   8.033   4.235   8.293
94890SOL     OW86508   0.323  13.418   0.423
94890SOL    HW186509   0.259  13.447   0.359
94890SOL    HW286510   0.371  13.348   0.379
94891SOL     OW86511  12.818  13.215   1.846
94891SOL    HW186512  12.870  13.217   1.765
94891SOL    HW286513  12.821  13.124   1.874
94892SOL     OW86514   7.407   6.318   8.289
94892SOL    HW186515   7.436   6.238   8.334
94892SOL    HW286516   7.390   6.380   8.360
94893SOL     OW86517  13.105   3.976  10.735
94893SOL    HW186518  13.015   3.999  10.760
94893SOL    HW286519  13.098   3.941  10.647
94894SOL     OW86520   5.277  13.693  10.283
94894SOL    HW186521   5.303  13.747  10.359
94894SOL    HW286522   5.268  13.756  10.212
94895SOL     OW86523   7.239   4.106   2.235
94895SOL    HW186524   7.282   4.030   2.196
94895SOL    HW286525   7.214   4.160   2.160
94896SOL     OW86526   2.357   1.477   2.884
94896SOL    HW186527   2.430   1.416   2.874
94896SOL    HW286528   2.381   1.530   2.960
94897SOL     OW86529   7.188  13.667  10.047
94897SOL    HW186530   7.182  13.737   9.982
94897SOL    HW286531   7.182  13.587   9.996
94898SOL     OW86532  14.505   7.043  12.935
94898SOL    HW186533  14.442   7.082  12.874
94898SOL    HW286534  14.460   6.967  12.972
94899SOL     OW86535   0.825  13.851  11.914
94899SOL    HW186536   0.790  13.814  11.833
94899SOL    HW286537   0.880  13.781  11.951
94900SOL     OW86538   5.065   9.976  12.334
94900SOL    HW186539   5.035   9.962  12.424
94900SOL    HW286540   4.991   9.949  12.279
94901SOL     OW86541   7.029  13.335   5.754
94901SOL    HW186542   6.981  13.280   5.693
94901SOL    HW286543   7.108  13.360   5.707
94902SOL     OW86544  13.599  11.861  12.476
94902SOL    HW186545  13.607  11.951  12.444
94902SOL    HW286546  13.669  11.851  12.539
94903SOL     OW86547  12.328   0.492   0.872
94903SOL    HW186548  12.380   0.454   0.943
94903SOL    HW286549  12.242   0.509   0.911
94904SOL     OW86550   6.031   2.401  12.418
94904SOL    HW186551   5.970   2.472  12.397
94904SOL    HW286552   6.075   2.382  12.335
94905SOL     OW86553   8.106   7.390   1.801
94905SOL    HW186554   8.062   7.448   1.738
94905SOL    HW286555   8.139   7.449   1.868
94906SOL     OW86556  10.826   3.830   7.398
94906SOL    HW186557  10.826   3.796   7.308
94906SOL    HW286558  10.881   3.768   7.447
94907SOL     OW86559   5.969   8.838   8.429
94907SOL    HW186560   6.003   8.755   8.397
94907SOL    HW286561   5.898   8.860   8.368
94908SOL     OW86562   2.292   9.050  14.110
94908SOL    HW186563   2.293   8.968  14.158
94908SOL    HW286564   2.233   9.034  14.036
94909SOL     OW86565  14.546   9.486   4.670
94909SOL    HW186566  14.480   9.484   4.601
94909SOL    HW286567  14.570   9.579   4.677
94910SOL     OW86568  11.635   6.819   7.081
94910SOL    HW186569  11.683   6.738   7.098
94910SOL    HW286570  11.667   6.881   7.146
94911SOL     OW86571   8.748   0.650   5.847
94911SOL    HW186572   8.735   0.744   5.838
94911SOL    HW286573   8.659   0.614   5.851
94912SOL     OW86574  13.100   8.140   5.945
94912SOL    HW186575  13.131   8.051   5.957
94912SOL    HW286576  13.103   8.154   5.850
94913SOL     OW86577   0.369   3.484   1.413
94913SOL    HW186578   0.317   3.445   1.483
94913SOL    HW286579   0.457   3.447   1.425
94914SOL     OW86580  11.236   3.260   6.922
94914SOL    HW186581  11.274   3.175   6.901
94914SOL    HW286582  11.255   3.314   6.845
94915SOL     OW86583   3.663   2.453   7.826
94915SOL    HW186584   3.576   2.489   7.840
94915SOL    HW286585   3.650   2.379   7.768
94916SOL     OW86586  12.934  13.193   4.918
94916SOL    HW186587  12.944  13.182   4.823
94916SOL    HW286588  12.873  13.267   4.927
94917SOL     OW86589   4.047   4.826   6.106
94917SOL    HW186590   3.994   4.762   6.060
94917SOL    HW286591   4.099   4.869   6.037
94918SOL     OW86592   8.196   8.040   2.055
94918SOL    HW186593   8.122   8.069   2.002
94918SOL    HW286594   8.268   8.096   2.028
94919SOL     OW86595   4.617   9.834  12.812
94919SOL    HW186596   4.652   9.752  12.779
94919SOL    HW286597   4.685   9.868  12.870
94920SOL     OW86598   4.305   6.196   9.389
94920SOL    HW186599   4.388   6.238   9.413
94920SOL    HW286600   4.304   6.197   9.293
94921SOL     OW86601  11.022   8.928   3.935
94921SOL    HW186602  11.028   8.888   4.022
94921SOL    HW286603  11.110   8.961   3.918
94922SOL     OW86604  11.741   9.650   0.687
94922SOL    HW186605  11.800   9.575   0.678
94922SOL    HW286606  11.655   9.610   0.700
94923SOL     OW86607   0.072  12.096  14.328
94923SOL    HW186608   0.007  12.148  14.376
94923SOL    HW286609   0.027  12.072  14.247
94924SOL     OW86610   3.603   3.295   0.401
94924SOL    HW186611   3.544   3.321   0.471
94924SOL    HW286612   3.580   3.351   0.327
94925SOL     OW86613   6.072  11.952   3.529
94925SOL    HW186614   6.105  12.029   3.483
94925SOL    HW286615   6.091  11.969   3.621
94926SOL     OW86616   3.606   4.697  10.159
94926SOL    HW186617   3.623   4.608  10.127
94926SOL    HW286618   3.632   4.695  10.251
94927SOL     OW86619   4.780   3.151   9.580
94927SOL    HW186620   4.851   3.176   9.639
94927SOL    HW286621   4.740   3.074   9.622
94928SOL     OW86622  12.439   5.738   1.328
94928SOL    HW186623  12.382   5.808   1.297
94928SOL    HW286624  12.525   5.758   1.290
94929SOL     OW86625   3.452  12.020   5.363
94929SOL    HW186626   3.476  12.036   5.455
94929SOL    HW286627   3.492  12.093   5.315
94930SOL     OW86628   5.725   7.124  10.576
94930SOL    HW186629   5.788   7.052  10.581
94930SOL    HW286630   5.689   7.118  10.487
94931SOL     OW86631   4.970   4.330  14.728
94931SOL    HW186632   5.044   4.297  14.676
94931SOL    HW286633   4.989   4.301  14.817
94932SOL     OW86634   3.052   0.065  12.062
94932SOL    HW186635   2.988   0.120  12.108
94932SOL    HW286636   3.075  14.873  12.124
94933SOL     OW86637  12.066   3.954   9.073
94933SOL    HW186638  12.056   3.864   9.103
94933SOL    HW286639  12.029   4.007   9.144
94934SOL     OW86640   1.076   4.419   1.663
94934SOL    HW186641   1.162   4.457   1.646
94934SOL    HW286642   1.054   4.449   1.752
94935SOL     OW86643  14.714   1.923   4.257
94935SOL    HW186644  14.619   1.919   4.246
94935SOL    HW286645  14.729   1.995   4.319
94936SOL     OW86646  14.617   6.268  13.355
94936SOL    HW186647  14.604   6.173  13.359
94936SOL    HW286648  14.693   6.279  13.298
94937SOL     OW86649   9.214   6.695   5.840
94937SOL    HW186650   9.271   6.690   5.917
94937SOL    HW286651   9.125   6.690   5.875
94938SOL     OW86652  11.529   0.816  12.723
94938SOL    HW186653  11.450   0.785  12.678
94938SOL    HW286654  11.572   0.874  12.660
94939SOL     OW86655   0.495   1.693  14.062
94939SOL    HW186656   0.454   1.779  14.054
94939SOL    HW286657   0.465   1.658  14.146
94940SOL     OW86658   8.337  10.133   6.966
94940SOL    HW186659   8.394  10.056   6.965
94940SOL    HW286660   8.256  10.101   7.006
94941SOL     OW86661  11.480   9.498  10.985
94941SOL    HW186662  11.389   9.474  10.968
94941SOL    HW286663  11.529   9.417  10.970
94942SOL     OW86664   2.786  12.113   0.538
94942SOL    HW186665   2.864  12.083   0.490
94942SOL    HW286666   2.731  12.153   0.470
94943SOL     OW86667   0.983   9.016   5.692
94943SOL    HW186668   0.904   9.032   5.743
94943SOL    HW286669   1.008   8.926   5.715
94944SOL     OW86670   2.646   7.031   7.594
94944SOL    HW186671   2.726   7.010   7.643
94944SOL    HW286672   2.598   7.091   7.651
94945SOL     OW86673  13.182   0.230  10.873
94945SOL    HW186674  13.152   0.163  10.934
94945SOL    HW286675  13.147   0.312  10.908
94946SOL     OW86676   6.258   8.553   1.290
94946SOL    HW186677   6.226   8.484   1.232
94946SOL    HW286678   6.348   8.527   1.311
94947SOL     OW86679   9.491   9.461   7.857
94947SOL    HW186680   9.490   9.530   7.923
94947SOL    HW286681   9.399   9.441   7.842
94948SOL     OW86682  11.678  12.204  14.316
94948SOL    HW186683  11.659  12.288  14.358
94948SOL    HW286684  11.707  12.147  14.386
94949SOL     OW86685   5.472   3.217   7.674
94949SOL    HW186686   5.493   3.310   7.663
94949SOL    HW286687   5.435   3.212   7.762
94950SOL     OW86688  11.530   4.005   6.000
94950SOL    HW186689  11.605   4.028   5.945
94950SOL    HW286690  11.560   4.022   6.090
94951SOL     OW86691   7.145   4.150   0.736
94951SOL    HW186692   7.154   4.218   0.802
94951SOL    HW286693   7.130   4.069   0.786
94952SOL     OW86694   4.964   2.028   0.635
94952SOL    HW186695   4.924   2.035   0.721
94952SOL    HW286696   4.894   1.998   0.578
94953SOL     OW86697   1.190  12.211   6.994
94953SOL    HW186698   1.261  12.262   7.031
94953SOL    HW286699   1.131  12.276   6.956
94954SOL     OW86700   7.802   6.310  14.676
94954SOL    HW186701   7.862   6.254  14.626
94954SOL    HW286702   7.757   6.250  14.736
94955SOL     OW86703   2.487  12.422  14.006
94955SOL    HW186704   2.416  12.484  13.991
94955SOL    HW286705   2.567  12.473  13.994
94956SOL     OW86706   3.898   0.539  12.323
94956SOL    HW186707   3.807   0.569  12.325
94956SOL    HW286708   3.929   0.549  12.413
94957SOL     OW86709   9.407   5.900   4.115
94957SOL    HW186710   9.433   5.838   4.046
94957SOL    HW286711   9.485   5.908   4.170
94958SOL     OW86712   0.513   7.766   8.810
94958SOL    HW186713   0.583   7.721   8.856
94958SOL    HW286714   0.525   7.859   8.832
94959SOL     OW86715   4.210   2.434  12.338
94959SOL    HW186716   4.248   2.448  12.425
94959SOL    HW286717   4.117   2.451  12.349
94960SOL     OW86718   0.141   9.838   2.200
94960SOL    HW186719   0.197   9.857   2.126
94960SOL    HW286720   0.062   9.799   2.161
94961SOL     OW86721   1.429   7.898  13.351
94961SOL    HW186722   1.346   7.854  13.334
94961SOL    HW286723   1.410   7.959  13.422
94962SOL     OW86724   3.358   3.881   7.751
94962SOL    HW186725   3.279   3.845   7.793
94962SOL    HW286726   3.424   3.813   7.764
94963SOL     OW86727  10.437   0.848  12.469
94963SOL    HW186728  10.495   0.775  12.488
94963SOL    HW286729  10.484   0.900  12.403
94964SOL     OW86730  13.237   2.417   6.146
94964SOL    HW186731  13.226   2.511   6.159
94964SOL    HW286732  13.293   2.389   6.219
94965SOL     OW86733  12.616   1.858  13.607
94965SOL    HW186734  12.529   1.865  13.646
94965SOL    HW286735  12.675   1.899  13.671
94966SOL     OW86736   0.746   6.022   0.308
94966SOL    HW186737   0.837   5.996   0.292
94966SOL    HW286738   0.741   6.112   0.276
94967SOL     OW86739   0.019   4.758   1.225
94967SOL    HW186740  14.832   4.686   1.234
94967SOL    HW286741   0.094   4.717   1.182
94968SOL     OW86742   9.875  14.752   0.618
94968SOL    HW186743   9.898  14.829   0.669
94968SOL    HW286744   9.922  14.680   0.661
94969SOL     OW86745   2.082   6.255   7.560
94969SOL    HW186746   2.135   6.190   7.607
94969SOL    HW286747   2.143   6.326   7.541
94970SOL     OW86748  12.034   4.749   9.160
94970SOL    HW186749  12.117   4.745   9.113
94970SOL    HW286750  12.054   4.716   9.247
94971SOL     OW86751   1.564  13.563  13.420
94971SOL    HW186752   1.644  13.591  13.465
94971SOL    HW286753   1.572  13.600  13.332
94972SOL     OW86754   5.541   2.926   1.762
94972SOL    HW186755   5.513   2.860   1.699
94972SOL    HW286756   5.542   2.881   1.847
94973SOL     OW86757  11.819   2.404   2.296
94973SOL    HW186758  11.760   2.330   2.278
94973SOL    HW286759  11.904   2.375   2.263
94974SOL     OW86760   4.388  10.596  12.785
94974SOL    HW186761   4.364  10.503  12.789
94974SOL    HW286762   4.442  10.604  12.707
94975SOL     OW86763   1.778  10.447   2.202
94975SOL    HW186764   1.734  10.501   2.267
94975SOL    HW286765   1.843  10.506   2.163
94976SOL     OW86766   7.104   8.867   4.634
94976SOL    HW186767   7.030   8.903   4.682
94976SOL    HW286768   7.106   8.774   4.658
94977SOL     OW86769   0.171  12.725  14.025
94977SOL    HW186770   0.181  12.726  13.930
94977SOL    HW286771   0.219  12.802  14.055
94978SOL     OW86772  10.834  11.969   3.060
94978SOL    HW186773  10.887  12.012   3.127
94978SOL    HW286774  10.774  12.037   3.029
94979SOL     OW86775   9.309  14.086   3.760
94979SOL    HW186776   9.269  14.008   3.722
94979SOL    HW286777   9.244  14.155   3.748
94980SOL     OW86778   9.302   3.406   4.548
94980SOL    HW186779   9.332   3.400   4.457
94980SOL    HW286780   9.374   3.451   4.594
94981SOL     OW86781   0.012   2.871   4.637
94981SOL    HW186782  14.854   2.869   4.726
94981SOL    HW286783  14.835   2.936   4.592
94982SOL     OW86784   8.125   0.270  11.002
94982SOL    HW186785   8.064   0.203  10.972
94982SOL    HW286786   8.091   0.352  10.966
94983SOL     OW86787   6.769   4.135   8.898
94983SOL    HW186788   6.850   4.089   8.874
94983SOL    HW286789   6.759   4.119   8.991
94984SOL     OW86790   3.115   4.563  13.645
94984SOL    HW186791   3.189   4.505  13.664
94984SOL    HW286792   3.086   4.594  13.731
94985SOL     OW86793  14.242   9.413  10.004
94985SOL    HW186794  14.254   9.349   9.934
94985SOL    HW286795  14.326   9.458  10.011
94986SOL     OW86796   2.799  11.221  14.862
94986SOL    HW186797   2.771  11.275  14.788
94986SOL    HW286798   2.881  11.181  14.832
94987SOL     OW86799   6.918  10.728   3.438
94987SOL    HW186800   6.896  10.639   3.466
94987SOL    HW286801   6.880  10.736   3.351
94988SOL     OW86802  14.711   1.169  11.265
94988SOL    HW186803  14.762   1.087  11.268
94988SOL    HW286804  14.757   1.227  11.326
94989SOL     OW86805  12.712  10.977  12.579
94989SOL    HW186806  12.672  10.896  12.611
94989SOL    HW286807  12.660  11.047  12.618
94990SOL     OW86808  14.086   4.336   2.917
94990SOL    HW186809  14.134   4.284   2.853
94990SOL    HW286810  14.005   4.361   2.871
94991SOL     OW86811  10.171  13.116   8.052
94991SOL    HW186812  10.111  13.042   8.067
94991SOL    HW286813  10.249  13.094   8.101
94992SOL     OW86814   3.114   5.630  10.367
94992SOL    HW186815   3.096   5.601  10.278
94992SOL    HW286816   3.052   5.579  10.421
94993SOL     OW86817   3.175   7.319  12.897
94993SOL    HW186818   3.234   7.377  12.848
94993SOL    HW286819   3.225   7.238  12.908
94994SOL     OW86820  11.364  14.389  12.010
94994SOL    HW186821  11.406  14.448  12.073
94994SOL    HW286822  11.437  14.349  11.962
94995SOL     OW86823  12.213   4.785   8.580
94995SOL    HW186824  12.155   4.755   8.650
94995SOL    HW286825  12.173   4.867   8.549
94996SOL     OW86826   4.553   5.826  11.016
94996SOL    HW186827   4.589   5.739  10.997
94996SOL    HW286828   4.518   5.818  11.105
94997SOL     OW86829   1.027  10.833   5.948
94997SOL    HW186830   1.001  10.779   6.023
94997SOL    HW286831   0.945  10.861   5.908
94998SOL     OW86832  11.587   1.294   1.794
94998SOL    HW186833  11.664   1.330   1.838
94998SOL    HW286834  11.579   1.205   1.828
94999SOL     OW86835   2.832   7.471  13.109
94999SOL    HW186836   2.745   7.487  13.144
94999SOL    HW286837   2.826   7.495  13.017
95000SOL     OW86838   9.830  13.217   9.097
95000SOL    HW186839   9.923  13.243   9.092
95000SOL    HW286840   9.782  13.293   9.065
95001SOL     OW86841   4.149   9.107   1.113
95001SOL    HW186842   4.198   9.096   1.194
95001SOL    HW286843   4.117   9.198   1.116
95002SOL     OW86844   4.560  14.435  14.868
95002SOL    HW186845   4.642  14.463   0.031
95002SOL    HW286846   4.510  14.516  14.857
95003SOL     OW86847   5.111   9.433   3.780
95003SOL    HW186848   5.033   9.378   3.780
95003SOL    HW286849   5.112   9.475   3.866
95004SOL     OW86850  11.385   9.715   8.802
95004SOL    HW186851  11.420   9.741   8.717
95004SOL    HW286852  11.290   9.724   8.793
95005SOL     OW86853   8.799   7.353  13.722
95005SOL    HW186854   8.850   7.297  13.781
95005SOL    HW286855   8.823   7.442  13.747
95006SOL     OW86856   6.797   1.857   4.129
95006SOL    HW186857   6.886   1.833   4.158
95006SOL    HW286858   6.810   1.933   4.073
95007SOL     OW86859   5.393  14.123  12.204
95007SOL    HW186860   5.400  14.218  12.208
95007SOL    HW286861   5.477  14.094  12.170
95008SOL     OW86862   0.726   1.497   3.146
95008SOL    HW186863   0.716   1.590   3.166
95008SOL    HW286864   0.641   1.459   3.168
95009SOL     OW86865  14.175   9.952   2.707
95009SOL    HW186866  14.155   9.925   2.617
95009SOL    HW286867  14.270   9.948   2.713
95010SOL     OW86868   4.827   6.238   3.365
95010SOL    HW186869   4.801   6.295   3.293
95010SOL    HW286870   4.801   6.150   3.336
95011SOL     OW86871   9.497  13.324   0.739
95011SOL    HW186872   9.422  13.281   0.779
95011SOL    HW286873   9.480  13.418   0.749
95012SOL     OW86874   5.544   6.148  11.755
95012SOL    HW186875   5.606   6.210  11.716
95012SOL    HW286876   5.530   6.181  11.844
95013SOL     OW86877   6.087   5.137   4.164
95013SOL    HW186878   6.143   5.106   4.093
95013SOL    HW286879   6.102   5.231   4.167
95014SOL     OW86880   7.206   0.161   0.068
95014SOL    HW186881   7.251   0.244   0.051
95014SOL    HW286882   7.118   0.174   0.031
95015SOL     OW86883   6.295   5.909   8.581
95015SOL    HW186884   6.232   5.840   8.600
95015SOL    HW286885   6.252   5.963   8.515
95016SOL     OW86886  13.394  12.947  11.842
95016SOL    HW186887  13.395  12.879  11.774
95016SOL    HW286888  13.335  12.913  11.909
95017SOL     OW86889  13.168   7.112   1.614
95017SOL    HW186890  13.126   7.062   1.545
95017SOL    HW286891  13.098   7.134   1.675
95018SOL     OW86892   3.266   9.080  12.464
95018SOL    HW186893   3.192   9.052  12.412
95018SOL    HW286894   3.320   9.131  12.403
95019SOL     OW86895   2.529  12.163  12.600
95019SOL    HW186896   2.492  12.215  12.672
95019SOL    HW286897   2.459  12.159  12.535
95020SOL     OW86898   3.319  10.789   8.760
95020SOL    HW186899   3.322  10.867   8.816
95020SOL    HW286900   3.411  10.767   8.744
95021SOL     OW86901   4.238  11.888   7.366
95021SOL    HW186902   4.273  11.819   7.309
95021SOL    HW286903   4.189  11.840   7.433
95022SOL     OW86904  13.153   2.913  11.426
95022SOL    HW186905  13.127   2.835  11.475
95022SOL    HW286906  13.140   2.986  11.487
95023SOL     OW86907  12.429   7.003   9.125
95023SOL    HW186908  12.505   7.055   9.150
95023SOL    HW286909  12.361   7.067   9.105
95024SOL     OW86910  12.265   1.469   0.560
95024SOL    HW186911  12.288   1.557   0.589
95024SOL    HW286912  12.177   1.477   0.524
95025SOL     OW86913   8.563   4.874   7.091
95025SOL    HW186914   8.627   4.890   7.160
95025SOL    HW286915   8.485   4.842   7.138
95026SOL     OW86916  11.290   8.412   7.234
95026SOL    HW186917  11.206   8.376   7.204
95026SOL    HW286918  11.283   8.506   7.219
95027SOL     OW86919   0.271  13.961   2.222
95027SOL    HW186920   0.198  13.971   2.162
95027SOL    HW286921   0.344  13.930   2.168
95028SOL     OW86922  12.767   6.155  13.599
95028SOL    HW186923  12.761   6.089  13.668
95028SOL    HW286924  12.722   6.115  13.524
95029SOL     OW86925   6.092   3.478   4.123
95029SOL    HW186926   6.064   3.570   4.120
95029SOL    HW286927   6.145   3.467   4.045
95030SOL     OW86928  14.160   8.898   0.297
95030SOL    HW186929  14.233   8.958   0.305
95030SOL    HW286930  14.180   8.845   0.220
95031SOL     OW86931   4.241   6.104  14.152
95031SOL    HW186932   4.301   6.029  14.155
95031SOL    HW286933   4.290   6.174  14.195
95032SOL     OW86934  11.716   0.036  11.916
95032SOL    HW186935  11.626   0.063  11.897
95032SOL    HW286936  11.763   0.051  11.834
95033SOL     OW86937   2.401   2.739  10.131
95033SOL    HW186938   2.418   2.786  10.212
95033SOL    HW286939   2.486   2.704  10.105
95034SOL     OW86940   8.302   9.715   3.893
95034SOL    HW186941   8.313   9.784   3.959
95034SOL    HW286942   8.330   9.635   3.937
95035SOL     OW86943  13.942   8.499  11.486
95035SOL    HW186944  13.956   8.584  11.528
95035SOL    HW286945  14.031   8.469  11.465
95036SOL     OW86946  11.875   0.353   9.878
95036SOL    HW186947  11.783   0.328   9.885
95036SOL    HW286948  11.879   0.441   9.916
95037SOL     OW86949   2.313  10.052  10.037
95037SOL    HW186950   2.298   9.963  10.067
95037SOL    HW286951   2.274  10.055   9.949
95038SOL     OW86952   4.444   1.943   2.306
95038SOL    HW186953   4.426   1.862   2.355
95038SOL    HW286954   4.538   1.958   2.318
95039SOL     OW86955   9.839  12.354   8.912
95039SOL    HW186956   9.842  12.445   8.880
95039SOL    HW286957   9.855  12.301   8.834
95040SOL     OW86958   7.020  10.039   8.748
95040SOL    HW186959   6.987  10.121   8.711
95040SOL    HW286960   7.081  10.067   8.816
95041SOL     OW86961   0.792   4.572  11.430
95041SOL    HW186962   0.838   4.632  11.489
95041SOL    HW286963   0.806   4.608  11.343
95042SOL     OW86964  12.923   8.370   3.217
95042SOL    HW186965  12.890   8.453   3.183
95042SOL    HW286966  12.998   8.349   3.162
95043SOL     OW86967  14.550  12.813  14.641
95043SOL    HW186968  14.586  12.737  14.686
95043SOL    HW286969  14.457  12.811  14.662
95044SOL     OW86970   4.326   9.515   8.807
95044SOL    HW186971   4.360   9.489   8.892
95044SOL    HW286972   4.246   9.564   8.826
95045SOL     OW86973  12.594   5.003   6.214
95045SOL    HW186974  12.602   5.097   6.198
95045SOL    HW286975  12.520   4.995   6.275
95046SOL     OW86976  14.477  13.629   4.534
95046SOL    HW186977  14.473  13.590   4.447
95046SOL    HW286978  14.430  13.713   4.525
95047SOL     OW86979   9.221  14.481   0.853
95047SOL    HW186980   9.266  14.495   0.769
95047SOL    HW286981   9.291  14.486   0.918
95048SOL     OW86982   7.510   2.356   4.545
95048SOL    HW186983   7.452   2.315   4.480
95048SOL    HW286984   7.466   2.438   4.568
95049SOL     OW86985  12.706   9.323   7.687
95049SOL    HW186986  12.755   9.340   7.768
95049SOL    HW286987  12.755   9.370   7.619
95050SOL     OW86988   5.953   1.227   1.887
95050SOL    HW186989   5.874   1.231   1.832
95050SOL    HW286990   5.984   1.318   1.891
95051SOL     OW86991  14.196   7.228   7.582
95051SOL    HW186992  14.260   7.182   7.636
95051SOL    HW286993  14.188   7.176   7.503
95052SOL     OW86994   2.559   8.347   5.578
95052SOL    HW186995   2.510   8.411   5.629
95052SOL    HW286996   2.640   8.334   5.627
95053SOL     OW86997   9.325  12.449   4.790
95053SOL    HW186998   9.301  12.542   4.789
95053SOL    HW286999   9.420  12.449   4.804
95054SOL     OW87000  13.943  12.789   4.723
95054SOL    HW187001  13.953  12.869   4.774
95054SOL    HW287002  14.001  12.801   4.648
95055SOL     OW87003  10.347   4.566   1.823
95055SOL    HW187004  10.379   4.573   1.913
95055SOL    HW287005  10.347   4.656   1.791
95056SOL     OW87006   6.627   9.966   1.732
95056SOL    HW187007   6.582   9.890   1.769
95056SOL    HW287008   6.656   9.937   1.645
95057SOL     OW87009   9.556  12.754   3.249
95057SOL    HW187010   9.618  12.827   3.244
95057SOL    HW287011   9.481  12.782   3.196
95058SOL     OW87012   0.932   7.225   0.176
95058SOL    HW187013   0.991   7.252   0.246
95058SOL    HW287014   0.983   7.237   0.096
95059SOL     OW87015   9.988   2.496   2.159
95059SOL    HW187016   9.899   2.460   2.165
95059SOL    HW287017   9.994   2.531   2.071
95060SOL     OW87018   4.336  10.273  12.241
95060SOL    HW187019   4.338  10.367  12.258
95060SOL    HW287020   4.269  10.262  12.173
95061SOL     OW87021  10.970  11.304  11.666
95061SOL    HW187022  10.924  11.234  11.620
95061SOL    HW287023  10.900  11.363  11.695
95062SOL     OW87024  10.602  12.039   9.847
95062SOL    HW187025  10.519  12.050   9.894
95062SOL    HW287026  10.652  11.978   9.901
95063SOL     OW87027   3.206   3.657  11.814
95063SOL    HW187028   3.199   3.671  11.909
95063SOL    HW287029   3.117   3.671  11.782
95064SOL     OW87030   2.763   1.613   6.384
95064SOL    HW187031   2.673   1.637   6.362
95064SOL    HW287032   2.807   1.606   6.299
95065SOL     OW87033   9.373   3.701   0.881
95065SOL    HW187034   9.441   3.747   0.930
95065SOL    HW287035   9.421   3.649   0.817
95066SOL     OW87036   4.083   9.346  13.179
95066SOL    HW187037   4.009   9.300  13.219
95066SOL    HW287038   4.160   9.304  13.218
95067SOL     OW87039   6.121  13.224   8.991
95067SOL    HW187040   6.117  13.136   8.955
95067SOL    HW287041   6.183  13.217   9.064
95068SOL     OW87042  13.041  13.303   7.313
95068SOL    HW187043  13.032  13.246   7.237
95068SOL    HW287044  12.985  13.379   7.294
95069SOL     OW87045   7.497   3.429   5.273
95069SOL    HW187046   7.442   3.490   5.225
95069SOL    HW287047   7.436   3.372   5.319
95070SOL     OW87048   2.374  12.419   4.723
95070SOL    HW187049   2.307  12.355   4.745
95070SOL    HW287050   2.333  12.476   4.658
95071SOL     OW87051   3.024  12.806   1.657
95071SOL    HW187052   3.028  12.823   1.563
95071SOL    HW287053   2.997  12.889   1.695
95072SOL     OW87054  12.433  13.539   5.477
95072SOL    HW187055  12.371  13.552   5.405
95072SOL    HW287056  12.392  13.585   5.551
95073SOL     OW87057   6.106  14.361   7.744
95073SOL    HW187058   6.086  14.398   7.830
95073SOL    HW287059   6.032  14.303   7.725
95074SOL     OW87060  14.171   3.947  14.035
95074SOL    HW187061  14.168   4.034  13.996
95074SOL    HW287062  14.197   3.961  14.126
95075SOL     OW87063  12.687  13.095   9.620
95075SOL    HW187064  12.606  13.054   9.588
95075SOL    HW287065  12.757  13.047   9.577
95076SOL     OW87066   6.122  11.127  12.153
95076SOL    HW187067   6.073  11.046  12.163
95076SOL    HW287068   6.061  11.196  12.181
95077SOL     OW87069  13.985   9.203   7.803
95077SOL    HW187070  13.991   9.147   7.880
95077SOL    HW287071  14.032   9.155   7.734
95078SOL     OW87072  13.891   3.703   3.125
95078SOL    HW187073  13.857   3.751   3.050
95078SOL    HW287074  13.821   3.708   3.191
95079SOL     OW87075  13.244  12.498   2.603
95079SOL    HW187076  13.195  12.561   2.657
95079SOL    HW287077  13.329  12.539   2.591
95080SOL     OW87078  10.254   0.159  14.871
95080SOL    HW187079  10.299   0.183   0.075
95080SOL    HW287080  10.317   0.104  14.824
95081SOL     OW87081  10.473   9.276  10.567
95081SOL    HW187082  10.403   9.212  10.579
95081SOL    HW287083  10.428   9.355  10.535
95082SOL     OW87084  11.109   8.046  11.219
95082SOL    HW187085  11.084   8.122  11.167
95082SOL    HW287086  11.199   8.028  11.192
95083SOL     OW87087   9.545   6.115   9.685
95083SOL    HW187088   9.528   6.159   9.602
95083SOL    HW287089   9.545   6.021   9.664
95084SOL     OW87090   4.007   8.980  12.549
95084SOL    HW187091   4.102   8.975  12.548
95084SOL    HW287092   3.984   9.028  12.470
95085SOL     OW87093   6.439   5.670  12.555
95085SOL    HW187094   6.385   5.749  12.555
95085SOL    HW287095   6.450   5.648  12.463
95086SOL     OW87096  13.573  14.271   0.727
95086SOL    HW187097  13.640  14.219   0.681
95086SOL    HW287098  13.611  14.359   0.731
95087SOL     OW87099   0.882  10.254   4.955
95087SOL    HW187100   0.788  10.238   4.970
95087SOL    HW287101   0.904  10.323   5.017
95088SOL     OW87102  13.859   9.110   0.537
95088SOL    HW187103  13.843   9.087   0.445
95088SOL    HW287104  13.893   9.199   0.533
95089SOL     OW87105  11.555  14.426   4.623
95089SOL    HW187106  11.574  14.518   4.607
95089SOL    HW287107  11.592  14.380   4.548
95090SOL     OW87108   2.295   8.642  11.758
95090SOL    HW187109   2.338   8.576  11.813
95090SOL    HW287110   2.248   8.590  11.692
95091SOL     OW87111   7.448   1.808  14.016
95091SOL    HW187112   7.485   1.773  13.935
95091SOL    HW287113   7.474   1.900  14.017
95092SOL     OW87114   1.076   6.103   2.367
95092SOL    HW187115   1.041   6.143   2.287
95092SOL    HW287116   1.171   6.111   2.357
95093SOL     OW87117   0.518   9.284   9.504
95093SOL    HW187118   0.549   9.200   9.470
95093SOL    HW287119   0.428   9.267   9.534
95094SOL     OW87120   3.463  11.006   0.131
95094SOL    HW187121   3.506  10.925   0.103
95094SOL    HW287122   3.467  11.062   0.054
95095SOL     OW87123  10.429  14.121   7.107
95095SOL    HW187124  10.456  14.203   7.148
95095SOL    HW287125  10.510  14.078   7.082
95096SOL     OW87126   1.346  11.844   0.398
95096SOL    HW187127   1.323  11.754   0.377
95096SOL    HW287128   1.440  11.841   0.416
95097SOL     OW87129   0.617   0.978   3.003
95097SOL    HW187130   0.535   0.933   3.023
95097SOL    HW287131   0.630   0.965   2.909
95098SOL     OW87132   9.154   7.193   9.409
95098SOL    HW187133   9.068   7.204   9.369
95098SOL    HW287134   9.145   7.116   9.464
95099SOL     OW87135  11.689   4.294  11.014
95099SOL    HW187136  11.693   4.240  10.936
95099SOL    HW287137  11.762   4.356  11.004
95100SOL     OW87138   3.656   3.605  11.294
95100SOL    HW187139   3.712   3.542  11.249
95100SOL    HW287140   3.645   3.677  11.232
95101SOL     OW87141   4.225   0.360   9.861
95101SOL    HW187142   4.142   0.370   9.909
95101SOL    HW287143   4.292   0.361   9.929
95102SOL     OW87144   0.910   7.503   1.492
95102SOL    HW187145   0.924   7.590   1.528
95102SOL    HW287146   0.899   7.447   1.569
95103SOL     OW87147   2.913   3.870   1.294
95103SOL    HW187148   2.990   3.918   1.325
95103SOL    HW287149   2.943   3.827   1.214
95104SOL     OW87150   9.608  13.571   6.410
95104SOL    HW187151   9.556  13.493   6.390
95104SOL    HW287152   9.606  13.577   6.506
95105SOL     OW87153   1.025   4.777   7.580
95105SOL    HW187154   1.121   4.781   7.585
95105SOL    HW287155   0.995   4.845   7.639
95106SOL     OW87156   8.615  10.848   2.815
95106SOL    HW187157   8.690  10.788   2.824
95106SOL    HW287158   8.541  10.790   2.796
95107SOL     OW87159   2.145   9.781   5.621
95107SOL    HW187160   2.175   9.799   5.710
95107SOL    HW287161   2.124   9.687   5.622
95108SOL     OW87162   9.133   5.321   9.115
95108SOL    HW187163   9.140   5.260   9.188
95108SOL    HW287164   9.115   5.266   9.039
95109SOL     OW87165  13.891  12.290  13.078
95109SOL    HW187166  13.826  12.267  13.012
95109SOL    HW287167  13.864  12.377  13.108
95110SOL     OW87168   3.596   9.248  14.489
95110SOL    HW187169   3.520   9.306  14.477
95110SOL    HW287170   3.670   9.308  14.498
95111SOL     OW87171   6.406   1.171   3.022
95111SOL    HW187172   6.468   1.161   2.950
95111SOL    HW287173   6.461   1.191   3.098
95112SOL     OW87174  14.358   9.598   3.873
95112SOL    HW187175  14.333   9.690   3.865
95112SOL    HW287176  14.284   9.549   3.838
95113SOL     OW87177   5.932  13.126   8.309
95113SOL    HW187178   5.970  13.086   8.387
95113SOL    HW287179   5.966  13.216   8.310
95114SOL     OW87180  12.330   5.527  14.092
95114SOL    HW187181  12.248   5.516  14.140
95114SOL    HW287182  12.388   5.574  14.152
95115SOL     OW87183   5.188   8.323   4.503
95115SOL    HW187184   5.237   8.293   4.580
95115SOL    HW287185   5.221   8.270   4.431
95116SOL     OW87186  10.927   7.263  11.919
95116SOL    HW187187  10.953   7.178  11.954
95116SOL    HW287188  11.009   7.305  11.894
95117SOL     OW87189  10.455  11.470   2.805
95117SOL    HW187190  10.505  11.495   2.883
95117SOL    HW287191  10.405  11.394   2.833
95118SOL     OW87192   6.031   4.639  10.826
95118SOL    HW187193   6.085   4.668  10.752
95118SOL    HW287194   5.947   4.683  10.814
95119SOL     OW87195   9.276  14.458   1.646
95119SOL    HW187196   9.226  14.393   1.596
95119SOL    HW287197   9.343  14.408   1.692
95120SOL     OW87198  11.897   1.981   9.519
95120SOL    HW187199  11.893   2.024   9.434
95120SOL    HW287200  11.989   1.957   9.530
95121SOL     OW87201   9.051   7.032   1.262
95121SOL    HW187202   9.113   7.104   1.277
95121SOL    HW287203   8.971   7.061   1.305
95122SOL     OW87204  14.875   9.460   8.053
95122SOL    HW187205  14.807   9.410   8.098
95122SOL    HW287206  14.835   9.544   8.035
95123SOL     OW87207   3.021   9.304   8.827
95123SOL    HW187208   3.076   9.317   8.904
95123SOL    HW287209   3.026   9.388   8.780
95124SOL     OW87210  13.512   3.907   0.548
95124SOL    HW187211  13.483   3.827   0.593
95124SOL    HW287212  13.436   3.965   0.553
95125SOL     OW87213   0.005  12.359   1.390
95125SOL    HW187214   0.002  12.363   1.295
95125SOL    HW287215   0.033  12.446   1.417
95126SOL     OW87216   3.264   8.183   8.999
95126SOL    HW187217   3.313   8.251   9.044
95126SOL    HW287218   3.330   8.118   8.973
95127SOL     OW87219   5.638   0.512   4.712
95127SOL    HW187220   5.714   0.457   4.695
95127SOL    HW287221   5.655   0.548   4.800
95128SOL     OW87222   2.849   9.955  14.649
95128SOL    HW187223   2.785   9.998  14.705
95128SOL    HW287224   2.925  10.013  14.649
95129SOL     OW87225  11.088   9.810   7.252
95129SOL    HW187226  11.148   9.776   7.185
95129SOL    HW287227  11.023   9.741   7.263
95130SOL     OW87228   2.726   0.826   0.424
95130SOL    HW187229   2.652   0.874   0.387
95130SOL    HW287230   2.707   0.734   0.407
95131SOL     OW87231   2.643  12.167   9.815
95131SOL    HW187232   2.735  12.175   9.839
95131SOL    HW287233   2.602  12.125   9.890
95132SOL     OW87234   4.059   6.838  13.836
95132SOL    HW187235   3.974   6.880  13.820
95132SOL    HW287236   4.044   6.746  13.818
95133SOL     OW87237   4.173   8.871   8.039
95133SOL    HW187238   4.103   8.807   8.028
95133SOL    HW287239   4.193   8.869   8.133
95134SOL     OW87240  10.126   6.595   9.259
95134SOL    HW187241  10.190   6.533   9.223
95134SOL    HW287242  10.042   6.563   9.227
95135SOL     OW87243   4.292  10.730   8.749
95135SOL    HW187244   4.217  10.695   8.797
95135SOL    HW287245   4.323  10.803   8.803
95136SOL     OW87246   9.111   0.086   1.169
95136SOL    HW187247   9.136   0.073   1.077
95136SOL    HW287248   9.166   0.023   1.217
95137SOL     OW87249   7.924   0.085   3.937
95137SOL    HW187250   8.006   0.043   3.915
95137SOL    HW287251   7.888   0.113   3.853
95138SOL     OW87252  13.568  11.473   9.484
95138SOL    HW187253  13.553  11.378   9.489
95138SOL    HW287254  13.627  11.491   9.557
95139SOL     OW87255  14.583   6.198   0.178
95139SOL    HW187256  14.580   6.104   0.162
95139SOL    HW287257  14.673   6.216   0.202
95140SOL     OW87258   5.708   9.011   5.288
95140SOL    HW187259   5.748   8.977   5.208
95140SOL    HW287260   5.735   9.103   5.291
95141SOL     OW87261   1.335  11.407  10.228
95141SOL    HW187262   1.312  11.345  10.297
95141SOL    HW287263   1.277  11.384  10.155
95142SOL     OW87264   2.406   3.910   1.319
95142SOL    HW187265   2.495   3.878   1.326
95142SOL    HW287266   2.362   3.879   1.398
95143SOL     OW87267   8.881   2.871  13.458
95143SOL    HW187268   8.956   2.816  13.434
95143SOL    HW287269   8.912   2.961  13.444
95144SOL     OW87270   5.847   2.441   4.440
95144SOL    HW187271   5.753   2.452   4.450
95144SOL    HW287272   5.861   2.347   4.446
95145SOL     OW87273   7.825   3.457  11.752
95145SOL    HW187274   7.886   3.530  11.743
95145SOL    HW287275   7.815   3.445  11.846
95146SOL     OW87276   5.441   8.533  13.663
95146SOL    HW187277   5.409   8.479  13.735
95146SOL    HW287278   5.518   8.578  13.699
95147SOL     OW87279  10.410   2.710   7.783
95147SOL    HW187280  10.495   2.687   7.744
95147SOL    HW287281  10.409   2.664   7.867
95148SOL     OW87282   7.198   9.802  10.456
95148SOL    HW187283   7.149   9.831  10.533
95148SOL    HW287284   7.174   9.710  10.446
95149SOL     OW87285   3.138  14.678   0.238
95149SOL    HW187286   3.135  14.727   0.156
95149SOL    HW287287   3.089  14.731   0.300
95150SOL     OW87288   4.862   4.139   4.370
95150SOL    HW187289   4.815   4.211   4.413
95150SOL    HW287290   4.954   4.160   4.383
95151SOL     OW87291   9.513  12.496   1.225
95151SOL    HW187292   9.468  12.512   1.308
95151SOL    HW287293   9.589  12.553   1.227
95152SOL     OW87294   7.407   0.744   1.453
95152SOL    HW187295   7.402   0.665   1.507
95152SOL    HW287296   7.424   0.815   1.515
95153SOL     OW87297   8.608   8.084   6.693
95153SOL    HW187298   8.615   8.118   6.604
95153SOL    HW287299   8.620   7.990   6.684
95154SOL     OW87300   3.497  10.585   2.752
95154SOL    HW187301   3.503  10.650   2.822
95154SOL    HW287302   3.474  10.636   2.674
95155SOL     OW87303   4.739  12.008   8.079
95155SOL    HW187304   4.723  12.094   8.120
95155SOL    HW287305   4.823  12.018   8.035
95156SOL     OW87306   7.611   2.114   6.929
95156SOL    HW187307   7.539   2.116   6.992
95156SOL    HW287308   7.595   2.035   6.877
95157SOL     OW87309   8.181  14.609   4.872
95157SOL    HW187310   8.130  14.617   4.953
95157SOL    HW287311   8.160  14.688   4.823
95158SOL     OW87312  13.796   7.010   7.371
95158SOL    HW187313  13.790   6.926   7.325
95158SOL    HW287314  13.712   7.053   7.354
95159SOL     OW87315   4.397  12.071   0.277
95159SOL    HW187316   4.430  11.982   0.274
95159SOL    HW287317   4.462  12.122   0.229
95160SOL     OW87318   6.814   0.069   6.372
95160SOL    HW187319   6.836   0.096   6.461
95160SOL    HW287320   6.807   0.152   6.323
95161SOL     OW87321  12.690   9.563   6.685
95161SOL    HW187322  12.778   9.527   6.689
95161SOL    HW287323  12.676   9.582   6.592
95162SOL     OW87324   6.776   7.713   7.911
95162SOL    HW187325   6.826   7.686   7.988
95162SOL    HW287326   6.701   7.761   7.946
95163SOL     OW87327   0.222   3.725   7.413
95163SOL    HW187328   0.267   3.642   7.431
95163SOL    HW287329   0.218   3.769   7.498
95164SOL     OW87330   7.045  10.977   0.078
95164SOL    HW187331   7.071  10.940  14.870
95164SOL    HW287332   7.086  11.064   0.080
95165SOL     OW87333   6.906   0.041  13.231
95165SOL    HW187334   6.964   0.008  13.300
95165SOL    HW287335   6.951   0.017  13.150
95166SOL     OW87336  13.763   6.350  13.591
95166SOL    HW187337  13.672   6.359  13.621
95166SOL    HW287338  13.759   6.284  13.522
95167SOL     OW87339   3.139  12.022  13.149
95167SOL    HW187340   3.130  12.034  13.243
95167SOL    HW287341   3.212  11.961  13.139
95168SOL     OW87342   9.250   7.569   6.391
95168SOL    HW187343   9.326   7.615   6.355
95168SOL    HW287344   9.242   7.601   6.481
95169SOL     OW87345   3.988   5.856  10.554
95169SOL    HW187346   3.938   5.785  10.512
95169SOL    HW287347   4.024   5.816  10.633
95170SOL     OW87348   0.355   1.831   7.471
95170SOL    HW187349   0.332   1.787   7.389
95170SOL    HW287350   0.290   1.900   7.480
95171SOL     OW87351   9.194   2.082   2.599
95171SOL    HW187352   9.274   2.136   2.602
95171SOL    HW287353   9.125   2.141   2.631
95172SOL     OW87354  11.364   4.158   0.607
95172SOL    HW187355  11.359   4.138   0.514
95172SOL    HW287356  11.343   4.074   0.650
95173SOL     OW87357   8.528  10.967   9.635
95173SOL    HW187358   8.533  11.061   9.618
95173SOL    HW287359   8.482  10.932   9.559
95174SOL     OW87360   8.447  10.091   4.204
95174SOL    HW187361   8.539  10.107   4.186
95174SOL    HW287362   8.403  10.174   4.185
95175SOL     OW87363   5.536  13.309  12.535
95175SOL    HW187364   5.605  13.284  12.474
95175SOL    HW287365   5.522  13.402  12.518
95176SOL     OW87366   2.589   3.136  11.662
95176SOL    HW187367   2.619   3.090  11.741
95176SOL    HW287368   2.538   3.210  11.696
95177SOL     OW87369   2.953  11.852   2.277
95177SOL    HW187370   3.028  11.804   2.242
95177SOL    HW287371   2.990  11.935   2.307
95178SOL     OW87372   5.553   8.199  10.186
95178SOL    HW187373   5.497   8.151  10.247
95178SOL    HW287374   5.567   8.284  10.228
95179SOL     OW87375  10.337   1.126   7.768
95179SOL    HW187376  10.321   1.044   7.815
95179SOL    HW287377  10.389   1.178   7.829
95180SOL     OW87378  10.509   9.338   3.431
95180SOL    HW187379  10.451   9.267   3.404
95180SOL    HW287380  10.450   9.405   3.466
95181SOL     OW87381   8.233  10.093  12.725
95181SOL    HW187382   8.281  10.085  12.807
95181SOL    HW287383   8.205  10.004  12.704
95182SOL     OW87384   4.180  12.962  14.413
95182SOL    HW187385   4.132  13.043  14.397
95182SOL    HW287386   4.266  12.990  14.444
95183SOL     OW87387  10.379  13.509   2.437
95183SOL    HW187388  10.384  13.603   2.419
95183SOL    HW287389  10.433  13.496   2.514
95184SOL     OW87390  10.683   2.430   5.816
95184SOL    HW187391  10.774   2.455   5.828
95184SOL    HW287392  10.639   2.511   5.789
95185SOL     OW87393   1.952  11.554   3.931
95185SOL    HW187394   1.922  11.476   3.885
95185SOL    HW287395   2.048  11.550   3.923
95186SOL     OW87396   0.399   6.815   9.166
95186SOL    HW187397   0.383   6.818   9.072
95186SOL    HW287398   0.343   6.743   9.197
95187SOL     OW87399   7.126  11.080   3.910
95187SOL    HW187400   7.053  11.038   3.957
95187SOL    HW287401   7.138  11.163   3.955
95188SOL     OW87402  13.265   2.406  11.329
95188SOL    HW187403  13.265   2.338  11.262
95188SOL    HW287404  13.172   2.424  11.344
95189SOL     OW87405  10.110   9.674   8.405
95189SOL    HW187406  10.149   9.751   8.365
95189SOL    HW287407  10.024   9.666   8.362
95190SOL     OW87408   1.494   5.847   1.434
95190SOL    HW187409   1.402   5.840   1.409
95190SOL    HW287410   1.530   5.760   1.417
95191SOL     OW87411   4.916   5.680   0.051
95191SOL    HW187412   4.999   5.728   0.057
95191SOL    HW287413   4.942   5.588   0.050
95192SOL     OW87414   7.134   3.774   4.894
95192SOL    HW187415   7.101   3.821   4.971
95192SOL    HW287416   7.090   3.689   4.897
95193SOL     OW87417   6.550  12.170  13.632
95193SOL    HW187418   6.516  12.083  13.611
95193SOL    HW287419   6.471  12.223  13.649
95194SOL     OW87420  14.691   0.988  13.179
95194SOL    HW187421  14.763   0.982  13.241
95194SOL    HW287422  14.696   0.907  13.129
95195SOL     OW87423  12.226   6.516  11.279
95195SOL    HW187424  12.135   6.528  11.250
95195SOL    HW287425  12.234   6.422  11.297
95196SOL     OW87426   1.469  11.438   9.911
95196SOL    HW187427   1.539  11.406   9.854
95196SOL    HW287428   1.430  11.512   9.863
95197SOL     OW87429   5.707   3.150   2.951
95197SOL    HW187430   5.739   3.200   2.876
95197SOL    HW287431   5.613   3.168   2.955
95198SOL     OW87432  10.404  10.189   7.379
95198SOL    HW187433  10.418  10.266   7.434
95198SOL    HW287434  10.327  10.145   7.416
95199SOL     OW87435  10.839  12.247   1.533
95199SOL    HW187436  10.919  12.201   1.556
95199SOL    HW287437  10.808  12.286   1.615
95200SOL     OW87438   9.911   0.234   8.482
95200SOL    HW187439   9.889   0.194   8.398
95200SOL    HW287440   9.900   0.328   8.468
95201SOL     OW87441   7.695   1.537   6.329
95201SOL    HW187442   7.750   1.481   6.383
95201SOL    HW287443   7.671   1.483   6.254
95202SOL     OW87444  14.627   5.394   3.123
95202SOL    HW187445  14.604   5.461   3.188
95202SOL    HW287446  14.545   5.345   3.111
95203SOL     OW87447  14.850   0.720   4.645
95203SOL    HW187448   0.045   0.783   4.652
95203SOL    HW287449  14.864   0.678   4.560
95204SOL     OW87450   5.021   8.462  11.105
95204SOL    HW187451   5.092   8.461  11.170
95204SOL    HW287452   4.975   8.379  11.120
95205SOL     OW87453   5.333  14.809   7.162
95205SOL    HW187454   5.386   0.010   7.140
95205SOL    HW287455   5.248  14.845   7.188
95206SOL     OW87456   1.964   3.087  14.551
95206SOL    HW187457   1.915   3.119  14.475
95206SOL    HW287458   2.053   3.072  14.517
95207SOL     OW87459  14.195   0.458   5.674
95207SOL    HW187460  14.249   0.405   5.733
95207SOL    HW287461  14.178   0.538   5.723
95208SOL     OW87462  14.163   0.044   4.953
95208SOL    HW187463  14.201   0.102   5.019
95208SOL    HW287464  14.155   0.098   4.875
95209SOL     OW87465  11.117   7.778   5.748
95209SOL    HW187466  11.085   7.859   5.709
95209SOL    HW287467  11.116   7.715   5.676
95210SOL     OW87468  10.363   0.189   2.285
95210SOL    HW187469  10.458   0.189   2.271
95210SOL    HW287470  10.332   0.264   2.235
95211SOL     OW87471  12.956   7.154   7.294
95211SOL    HW187472  12.996   7.067   7.300
95211SOL    HW287473  12.884   7.151   7.358
95212SOL     OW87474  11.338   7.399  13.479
95212SOL    HW187475  11.338   7.305  13.495
95212SOL    HW287476  11.393   7.435  13.549
95213SOL     OW87477   7.251  11.464  14.215
95213SOL    HW187478   7.172  11.414  14.240
95213SOL    HW287479   7.305  11.400  14.168
95214SOL     OW87480   0.946   9.047   6.871
95214SOL    HW187481   0.981   9.016   6.787
95214SOL    HW287482   0.928   8.967   6.921
95215SOL     OW87483  11.207   1.416   9.790
95215SOL    HW187484  11.179   1.338   9.742
95215SOL    HW287485  11.280   1.450   9.738
95216SOL     OW87486   5.127   4.643   2.676
95216SOL    HW187487   5.221   4.655   2.688
95216SOL    HW287488   5.110   4.553   2.706
95217SOL     OW87489   5.623  13.578   8.025
95217SOL    HW187490   5.693  13.532   7.979
95217SOL    HW287491   5.550  13.516   8.024
95218SOL     OW87492  14.485   8.829   6.951
95218SOL    HW187493  14.572   8.821   6.988
95218SOL    HW287494  14.468   8.923   6.947
95219SOL     OW87495  13.511  14.847   3.859
95219SOL    HW187496  13.438  14.828   3.800
95219SOL    HW287497  13.475  14.836   3.947
95220SOL     OW87498  13.794   0.606   7.946
95220SOL    HW187499  13.845   0.545   7.893
95220SOL    HW287500  13.703   0.579   7.933
95221SOL     OW87501   8.621  12.203   9.056
95221SOL    HW187502   8.602  12.276   9.116
95221SOL    HW287503   8.699  12.232   9.008
95222SOL     OW87504   5.952   7.963   7.043
95222SOL    HW187505   5.914   7.902   6.980
95222SOL    HW287506   5.937   7.922   7.128
95223SOL     OW87507   2.636  13.657  12.947
95223SOL    HW187508   2.576  13.584  12.934
95223SOL    HW287509   2.711  13.620  12.993
95224SOL     OW87510   4.381  14.167   0.384
95224SOL    HW187511   4.385  14.248   0.434
95224SOL    HW287512   4.410  14.192   0.296
95225SOL     OW87513   3.664   2.859   6.520
95225SOL    HW187514   3.602   2.798   6.561
95225SOL    HW287515   3.709   2.807   6.454
95226SOL     OW87516   8.574   2.339   0.914
95226SOL    HW187517   8.615   2.308   0.995
95226SOL    HW287518   8.599   2.275   0.848
95227SOL     OW87519   9.183  13.849  11.364
95227SOL    HW187520   9.273  13.875  11.382
95227SOL    HW287521   9.131  13.928  11.375
95228SOL     OW87522   6.630  10.763  12.187
95228SOL    HW187523   6.722  10.777  12.168
95228SOL    HW287524   6.617  10.669  12.176
95229SOL     OW87525   2.884  10.980   0.588
95229SOL    HW187526   2.937  10.940   0.520
95229SOL    HW287527   2.944  11.041   0.632
95230SOL     OW87528  14.211   9.548  10.904
95230SOL    HW187529  14.123   9.587  10.903
95230SOL    HW287530  14.252   9.580  10.823
95231SOL     OW87531   5.402  12.733   9.818
95231SOL    HW187532   5.322  12.688   9.791
95231SOL    HW287533   5.458  12.663   9.852
95232SOL     OW87534   2.996   0.433   6.485
95232SOL    HW187535   2.902   0.417   6.490
95232SOL    HW287536   3.029   0.367   6.424
95233SOL     OW87537  11.439   3.839   4.015
95233SOL    HW187538  11.398   3.910   3.967
95233SOL    HW287539  11.369   3.802   4.069
95234SOL     OW87540   1.832   0.730  13.405
95234SOL    HW187541   1.887   0.674  13.460
95234SOL    HW287542   1.884   0.746  13.326
95235SOL     OW87543   8.860   7.723   0.057
95235SOL    HW187544   8.952   7.721   0.085
95235SOL    HW287545   8.842   7.817   0.045
95236SOL     OW87546   0.723   2.765   7.424
95236SOL    HW187547   0.807   2.727   7.451
95236SOL    HW287548   0.659   2.698   7.447
95237SOL     OW87549   4.343   8.866   2.067
95237SOL    HW187550   4.355   8.865   2.162
95237SOL    HW287551   4.431   8.870   2.031
95238SOL     OW87552  11.326   8.500   1.222
95238SOL    HW187553  11.277   8.512   1.303
95238SOL    HW287554  11.378   8.580   1.213
95239SOL     OW87555  12.470   5.020  12.732
95239SOL    HW187556  12.555   5.061  12.747
95239SOL    HW287557  12.436   5.065  12.655
95240SOL     OW87558   6.344  14.109   1.829
95240SOL    HW187559   6.277  14.177   1.839
95240SOL    HW287560   6.424  14.149   1.863
95241SOL     OW87561  13.322  10.975   7.686
95241SOL    HW187562  13.241  10.925   7.671
95241SOL    HW287563  13.391  10.919   7.651
95242SOL     OW87564   1.841   3.782   3.045
95242SOL    HW187565   1.760   3.736   3.024
95242SOL    HW287566   1.902   3.713   3.073
95243SOL     OW87567   0.036   5.062   6.489
95243SOL    HW187568   0.086   5.025   6.562
95243SOL    HW287569   0.081   5.030   6.411
95244SOL     OW87570  14.201   8.540   1.446
95244SOL    HW187571  14.138   8.611   1.454
95244SOL    HW287572  14.184   8.503   1.359
95245SOL     OW87573  10.555   6.595   6.663
95245SOL    HW187574  10.558   6.584   6.758
95245SOL    HW287575  10.646   6.609   6.638
95246SOL     OW87576   8.301  12.718   5.874
95246SOL    HW187577   8.394  12.727   5.896
95246SOL    HW287578   8.286  12.623   5.874
95247SOL     OW87579   3.967  12.143  10.490
95247SOL    HW187580   4.040  12.130  10.550
95247SOL    HW287581   3.889  12.141  10.546
95248SOL     OW87582   5.447   7.676   2.075
95248SOL    HW187583   5.408   7.615   2.012
95248SOL    HW287584   5.373   7.731   2.103
95249SOL     OW87585   3.502  14.551   9.426
95249SOL    HW187586   3.581  14.567   9.375
95249SOL    HW287587   3.528  14.567   9.516
95250SOL     OW87588  11.396   6.546   9.597
95250SOL    HW187589  11.412   6.631   9.556
95250SOL    HW287590  11.357   6.568   9.682
95251SOL     OW87591   5.201   7.549   1.079
95251SOL    HW187592   5.290   7.527   1.052
95251SOL    HW287593   5.171   7.471   1.127
95252SOL     OW87594   4.722  11.526   8.098
95252SOL    HW187595   4.694  11.473   8.172
95252SOL    HW287596   4.729  11.464   8.025
95253SOL     OW87597   8.071   9.569   9.766
95253SOL    HW187598   8.117   9.512   9.705
95253SOL    HW287599   7.992   9.595   9.719
95254SOL     OW87600   4.973  11.745  13.466
95254SOL    HW187601   5.022  11.766  13.386
95254SOL    HW287602   5.020  11.671  13.504
95255SOL     OW87603  13.075  14.465   7.994
95255SOL    HW187604  13.136  14.529   7.958
95255SOL    HW287605  13.009  14.518   8.040
95256SOL     OW87606   1.771   7.297  10.244
95256SOL    HW187607   1.849   7.241  10.246
95256SOL    HW287608   1.783   7.358  10.317
95257SOL     OW87609   6.841   8.105   8.204
95257SOL    HW187610   6.849   8.111   8.109
95257SOL    HW287611   6.789   8.027   8.219
95258SOL     OW87612  11.233   5.554   4.815
95258SOL    HW187613  11.144   5.562   4.849
95258SOL    HW287614  11.246   5.460   4.801
95259SOL     OW87615   5.000   4.023  11.827
95259SOL    HW187616   5.083   3.990  11.792
95259SOL    HW287617   4.934   3.962  11.795
95260SOL     OW87618   2.148   1.197  12.545
95260SOL    HW187619   2.113   1.253  12.475
95260SOL    HW287620   2.078   1.134  12.562
95261SOL     OW87621   6.131  10.864   8.103
95261SOL    HW187622   6.043  10.862   8.065
95261SOL    HW287623   6.116  10.875   8.197
95262SOL     OW87624   1.706   8.169   1.493
95262SOL    HW187625   1.618   8.140   1.471
95262SOL    HW287626   1.732   8.227   1.421
95263SOL     OW87627   6.295   4.006   0.929
95263SOL    HW187628   6.323   3.924   0.888
95263SOL    HW287629   6.200   4.007   0.918
95264SOL     OW87630   6.476   3.718   9.877
95264SOL    HW187631   6.400   3.749   9.828
95264SOL    HW287632   6.550   3.734   9.818
95265SOL     OW87633   5.204  13.637   2.561
95265SOL    HW187634   5.283  13.653   2.612
95265SOL    HW287635   5.195  13.715   2.505
95266SOL     OW87636  13.159   5.952   1.498
95266SOL    HW187637  13.198   6.038   1.479
95266SOL    HW287638  13.104   5.967   1.575
95267SOL     OW87639   4.432  11.602   6.696
95267SOL    HW187640   4.427  11.530   6.758
95267SOL    HW287641   4.369  11.667   6.729
95268SOL     OW87642   9.857  14.243   2.817
95268SOL    HW187643   9.840  14.190   2.895
95268SOL    HW287644   9.837  14.185   2.744
95269SOL     OW87645  14.690   1.740   5.395
95269SOL    HW187646  14.627   1.801   5.355
95269SOL    HW287647  14.637   1.667   5.425
95270SOL     OW87648  10.699   2.496   4.835
95270SOL    HW187649  10.793   2.507   4.822
95270SOL    HW287650  10.674   2.427   4.773
95271SOL     OW87651   7.560  13.120   5.183
95271SOL    HW187652   7.634  13.061   5.198
95271SOL    HW287653   7.511  13.078   5.112
95272SOL     OW87654   9.197   3.172  13.915
95272SOL    HW187655   9.244   3.217  13.845
95272SOL    HW287656   9.175   3.087  13.878
95273SOL     OW87657   2.387   5.351  10.959
95273SOL    HW187658   2.458   5.396  11.005
95273SOL    HW287659   2.420   5.263  10.943
95274SOL     OW87660   4.119   8.203  14.594
95274SOL    HW187661   4.049   8.264  14.569
95274SOL    HW287662   4.154   8.240  14.676
95275SOL     OW87663   8.080   0.533  10.394
95275SOL    HW187664   8.142   0.579  10.451
95275SOL    HW287665   8.122   0.448  10.377
95276SOL     OW87666   1.267   2.377   2.704
95276SOL    HW187667   1.268   2.312   2.774
95276SOL    HW287668   1.176   2.381   2.676
95277SOL     OW87669   7.465   4.176   9.414
95277SOL    HW187670   7.438   4.207   9.327
95277SOL    HW287671   7.542   4.227   9.435
95278SOL     OW87672   8.081  12.365   5.660
95278SOL    HW187673   8.033  12.379   5.741
95278SOL    HW287674   8.145  12.297   5.682
95279SOL     OW87675   9.434   0.097   0.709
95279SOL    HW187676   9.487   0.150   0.650
95279SOL    HW287677   9.364   0.063   0.653
95280SOL     OW87678  12.587   8.885   4.878
95280SOL    HW187679  12.517   8.832   4.838
95280SOL    HW287680  12.576   8.972   4.839
95281SOL     OW87681   9.898   6.851  12.335
95281SOL    HW187682   9.851   6.773  12.308
95281SOL    HW287683   9.890   6.851  12.431
95282SOL     OW87684   9.723   0.061   2.191
95282SOL    HW187685   9.769   0.137   2.225
95282SOL    HW287686   9.732  14.871   2.260
95283SOL     OW87687   8.849  14.467  10.397
95283SOL    HW187688   8.804  14.384  10.410
95283SOL    HW287689   8.810  14.504  10.318
95284SOL     OW87690   1.018   8.043  13.686
95284SOL    HW187691   1.038   7.998  13.768
95284SOL    HW287692   0.956   8.112  13.711
95285SOL     OW87693   0.600  14.671   1.752
95285SOL    HW187694   0.553  14.700   1.830
95285SOL    HW287695   0.531  14.658   1.687
95286SOL     OW87696   8.158  12.197   7.968
95286SOL    HW187697   8.163  12.102   7.966
95286SOL    HW287698   8.212  12.223   8.043
95287SOL     OW87699   7.726  12.679   0.214
95287SOL    HW187700   7.666  12.742   0.253
95287SOL    HW287701   7.717  12.693   0.120
95288SOL     OW87702   6.960  11.630  14.397
95288SOL    HW187703   6.907  11.709  14.391
95288SOL    HW287704   7.045  11.660  14.428
95289SOL     OW87705  10.643  11.026   3.994
95289SOL    HW187706  10.670  11.080   3.919
95289SOL    HW287707  10.579  11.080   4.040
95290SOL     OW87708   5.127   7.450  12.127
95290SOL    HW187709   5.216   7.428  12.101
95290SOL    HW287710   5.084   7.475  12.045
95291SOL     OW87711  11.598  11.740  12.987
95291SOL    HW187712  11.649  11.678  13.039
95291SOL    HW287713  11.653  11.757  12.910
95292SOL     OW87714   0.620   6.728  10.038
95292SOL    HW187715   0.672   6.648  10.028
95292SOL    HW287716   0.555   6.722   9.969
95293SOL     OW87717   8.042   0.802   0.404
95293SOL    HW187718   7.954   0.782   0.374
95293SOL    HW287719   8.068   0.879   0.354
95294SOL     OW87720   8.670   1.455  11.635
95294SOL    HW187721   8.674   1.511  11.557
95294SOL    HW287722   8.611   1.501  11.695
95295SOL     OW87723   9.467  14.402   0.407
95295SOL    HW187724   9.518  14.358   0.475
95295SOL    HW287725   9.495  14.361   0.326
95296SOL     OW87726   6.909   3.370   6.096
95296SOL    HW187727   7.001   3.366   6.069
95296SOL    HW287728   6.907   3.321   6.179
95297SOL     OW87729   4.728   8.546   3.195
95297SOL    HW187730   4.720   8.457   3.162
95297SOL    HW287731   4.664   8.596   3.145
95298SOL     OW87732  14.120  10.102   8.450
95298SOL    HW187733  14.135  10.084   8.543
95298SOL    HW287734  14.206  10.093   8.409
95299SOL     OW87735   9.927  10.981   4.729
95299SOL    HW187736   9.935  10.941   4.816
95299SOL    HW287737   9.938  10.909   4.668
95300SOL     OW87738   3.058  14.854  13.272
95300SOL    HW187739   3.144  14.836  13.234
95300SOL    HW287740   3.057  14.807  13.355
95301SOL     OW87741   7.577   7.043   9.446
95301SOL    HW187742   7.539   7.083   9.368
95301SOL    HW287743   7.542   6.954   9.447
95302SOL     OW87744   9.166   6.637   4.370
95302SOL    HW187745   9.128   6.611   4.454
95302SOL    HW287746   9.090   6.651   4.313
95303SOL     OW87747   1.086   3.379  11.709
95303SOL    HW187748   1.102   3.396  11.801
95303SOL    HW287749   0.991   3.383  11.699
95304SOL     OW87750   9.433  12.645   8.542
95304SOL    HW187751   9.371  12.574   8.525
95304SOL    HW287752   9.518  12.608   8.518
95305SOL     OW87753   7.777   2.825  10.891
95305SOL    HW187754   7.762   2.918  10.871
95305SOL    HW287755   7.721   2.778  10.828
95306SOL     OW87756  14.773   6.689   7.081
95306SOL    HW187757  14.725   6.768   7.056
95306SOL    HW287758  14.777   6.637   7.000
95307SOL     OW87759   0.333  14.679   3.103
95307SOL    HW187760   0.421  14.712   3.088
95307SOL    HW287761   0.307  14.717   3.187
95308SOL     OW87762  10.558   1.970   7.404
95308SOL    HW187763  10.546   2.061   7.378
95308SOL    HW287764  10.477   1.926   7.377
95309SOL     OW87765  10.543   4.234   8.244
95309SOL    HW187766  10.578   4.303   8.302
95309SOL    HW287767  10.449   4.234   8.262
95310SOL     OW87768   7.450  13.258  14.163
95310SOL    HW187769   7.498  13.332  14.200
95310SOL    HW287770   7.464  13.264  14.069
95311SOL     OW87771   5.779   2.498   9.271
95311SOL    HW187772   5.863   2.543   9.271
95311SOL    HW287773   5.800   2.407   9.293
95312SOL     OW87774   5.094   7.906  12.520
95312SOL    HW187775   5.156   7.876  12.453
95312SOL    HW287776   5.135   7.984  12.558
95313SOL     OW87777   5.532   1.640  12.763
95313SOL    HW187778   5.592   1.711  12.740
95313SOL    HW287779   5.533   1.582  12.687
95314SOL     OW87780   9.871   7.734   2.649
95314SOL    HW187781   9.906   7.699   2.568
95314SOL    HW287782   9.784   7.695   2.656
95315SOL     OW87783   1.335   4.704  11.110
95315SOL    HW187784   1.377   4.752  11.039
95315SOL    HW287785   1.405   4.650  11.147
95316SOL     OW87786   4.272   1.422  11.303
95316SOL    HW187787   4.341   1.415  11.236
95316SOL    HW287788   4.216   1.493  11.273
95317SOL     OW87789  13.436   8.782   8.575
95317SOL    HW187790  13.503   8.737   8.524
95317SOL    HW287791  13.418   8.862   8.525
95318SOL     OW87792   2.912   1.456  11.156
95318SOL    HW187793   2.925   1.401  11.232
95318SOL    HW287794   3.000   1.469  11.120
95319SOL     OW87795   6.597  12.334   8.833
95319SOL    HW187796   6.505  12.325   8.855
95319SOL    HW287797   6.597  12.374   8.746
95320SOL     OW87798   8.057   9.656  14.381
95320SOL    HW187799   8.038   9.562  14.391
95320SOL    HW287800   8.092   9.664  14.293
95321SOL     OW87801  12.342  11.109   0.690
95321SOL    HW187802  12.335  11.183   0.751
95321SOL    HW287803  12.340  11.148   0.603
95322SOL     OW87804   5.649   5.374   0.118
95322SOL    HW187805   5.640   5.304   0.183
95322SOL    HW287806   5.645   5.455   0.169
95323SOL     OW87807   3.272  13.125   2.367
95323SOL    HW187808   3.203  13.157   2.425
95323SOL    HW287809   3.274  13.030   2.383
95324SOL     OW87810  12.810  10.173  12.006
95324SOL    HW187811  12.839  10.154  11.916
95324SOL    HW287812  12.725  10.131  12.013
95325SOL     OW87813   5.994   3.705   9.141
95325SOL    HW187814   6.017   3.698   9.048
95325SOL    HW287815   5.921   3.644   9.152
95326SOL     OW87816   2.925   1.721   0.618
95326SOL    HW187817   2.962   1.755   0.699
95326SOL    HW287818   2.860   1.786   0.592
95327SOL     OW87819   7.867   6.508   8.942
95327SOL    HW187820   7.890   6.456   8.865
95327SOL    HW287821   7.774   6.529   8.931
95328SOL     OW87822   0.347   0.184   9.265
95328SOL    HW187823   0.408   0.237   9.317
95328SOL    HW287824   0.261   0.206   9.299
95329SOL     OW87825   3.564   4.156   7.696
95329SOL    HW187826   3.549   4.061   7.693
95329SOL    HW287827   3.527   4.188   7.613
95330SOL     OW87828   2.703   9.852  10.783
95330SOL    HW187829   2.668   9.905  10.712
95330SOL    HW287830   2.768   9.795  10.742
95331SOL     OW87831   4.505   0.169   6.465
95331SOL    HW187832   4.432   0.117   6.499
95331SOL    HW287833   4.568   0.105   6.432
95332SOL     OW87834   9.630  13.863   5.786
95332SOL    HW187835   9.568  13.790   5.777
95332SOL    HW287836   9.698  13.830   5.845
95333SOL     OW87837   3.542  13.071   9.643
95333SOL    HW187838   3.447  13.064   9.647
95333SOL    HW287839   3.560  13.121   9.564
95334SOL     OW87840  12.159   6.652   5.625
95334SOL    HW187841  12.196   6.700   5.550
95334SOL    HW287842  12.234   6.607   5.664
95335SOL     OW87843   8.572   5.892  14.615
95335SOL    HW187844   8.600   5.895  14.707
95335SOL    HW287845   8.487   5.936  14.615
95336SOL     OW87846   5.223   8.993   6.609
95336SOL    HW187847   5.290   9.062   6.606
95336SOL    HW287848   5.232   8.956   6.697
95337SOL     OW87849  13.719  12.651   7.382
95337SOL    HW187850  13.728  12.734   7.336
95337SOL    HW287851  13.636  12.615   7.352
95338SOL     OW87852   6.031  11.758   1.145
95338SOL    HW187853   6.101  11.743   1.081
95338SOL    HW287854   6.030  11.678   1.198
95339SOL     OW87855   4.030   6.903  10.719
95339SOL    HW187856   4.037   6.827  10.660
95339SOL    HW287857   4.118   6.940  10.720
95340SOL     OW87858  12.246   9.370   1.682
95340SOL    HW187859  12.196   9.288   1.686
95340SOL    HW287860  12.179   9.438   1.674
95341SOL     OW87861   2.425   4.527   2.880
95341SOL    HW187862   2.418   4.440   2.918
95341SOL    HW287863   2.413   4.514   2.786
95342SOL     OW87864   7.377   8.067   3.866
95342SOL    HW187865   7.394   8.022   3.948
95342SOL    HW287866   7.351   7.997   3.805
95343SOL     OW87867   6.683   6.625   8.361
95343SOL    HW187868   6.723   6.649   8.444
95343SOL    HW287869   6.623   6.697   8.340
95344SOL     OW87870   9.329   7.860   8.202
95344SOL    HW187871   9.423   7.876   8.215
95344SOL    HW287872   9.288   7.946   8.216
95345SOL     OW87873   0.718   1.983  10.213
95345SOL    HW187874   0.672   1.948  10.289
95345SOL    HW287875   0.796   2.026  10.250
95346SOL     OW87876   5.269  10.552   0.139
95346SOL    HW187877   5.175  10.565   0.131
95346SOL    HW287878   5.279  10.461   0.167
95347SOL     OW87879   1.434   1.993   4.548
95347SOL    HW187880   1.349   1.954   4.528
95347SOL    HW287881   1.431   2.080   4.507
95348SOL     OW87882  14.230   9.178   8.029
95348SOL    HW187883  14.162   9.112   8.041
95348SOL    HW287884  14.194   9.258   8.066
95349SOL     OW87885   3.032   0.191   2.906
95349SOL    HW187886   3.042   0.101   2.938
95349SOL    HW287887   2.942   0.215   2.931
95350SOL     OW87888   9.913   9.814  14.812
95350SOL    HW187889   9.844   9.838  14.750
95350SOL    HW287890   9.964   9.748  14.766
95351SOL     OW87891  12.971  13.474   6.408
95351SOL    HW187892  13.031  13.490   6.334
95351SOL    HW287893  12.893  13.525   6.387
95352SOL     OW87894   1.213   4.309   6.925
95352SOL    HW187895   1.270   4.379   6.957
95352SOL    HW287896   1.242   4.293   6.836
95353SOL     OW87897   6.625  12.508   4.158
95353SOL    HW187898   6.718  12.495   4.174
95353SOL    HW287899   6.608  12.597   4.188
95354SOL     OW87900   9.207  12.013   9.863
95354SOL    HW187901   9.153  11.981   9.935
95354SOL    HW287902   9.151  12.005   9.786
95355SOL     OW87903   7.111  10.290  14.228
95355SOL    HW187904   7.039  10.287  14.291
95355SOL    HW287905   7.107  10.205  14.183
95356SOL     OW87906  12.577   1.243   7.424
95356SOL    HW187907  12.565   1.207   7.336
95356SOL    HW287908  12.567   1.168   7.483
95357SOL     OW87909   7.229   9.635   9.084
95357SOL    HW187910   7.206   9.545   9.062
95357SOL    HW287911   7.317   9.647   9.049
95358SOL     OW87912   3.792   1.356   2.628
95358SOL    HW187913   3.706   1.392   2.609
95358SOL    HW287914   3.796   1.351   2.723
95359SOL     OW87915   8.804  14.410   9.571
95359SOL    HW187916   8.791  14.348   9.498
95359SOL    HW287917   8.871  14.470   9.539
95360SOL     OW87918  13.787   0.061  11.262
95360SOL    HW187919  13.756   0.150  11.247
95360SOL    HW287920  13.873   0.057  11.219
95361SOL     OW87921  12.555  14.445   2.650
95361SOL    HW187922  12.614  14.380   2.687
95361SOL    HW287923  12.555  14.517   2.714
95362SOL     OW87924   7.161  10.746   9.135
95362SOL    HW187925   7.212  10.739   9.216
95362SOL    HW287926   7.204  10.685   9.074
95363SOL     OW87927   5.474   9.461   9.694
95363SOL    HW187928   5.536   9.460   9.621
95363SOL    HW287929   5.421   9.539   9.679
95364SOL     OW87930  14.594   0.707  12.660
95364SOL    HW187931  14.528   0.722  12.593
95364SOL    HW287932  14.549   0.726  12.743
95365SOL     OW87933  11.576   4.518  10.084
95365SOL    HW187934  11.618   4.451  10.030
95365SOL    HW287935  11.639   4.590  10.086
95366SOL     OW87936   2.643   0.543   8.488
95366SOL    HW187937   2.604   0.622   8.526
95366SOL    HW287938   2.583   0.472   8.513
95367SOL     OW87939  10.225   5.237  12.246
95367SOL    HW187940  10.258   5.149  12.227
95367SOL    HW287941  10.303   5.291  12.256
95368SOL     OW87942   5.542  10.813  13.611
95368SOL    HW187943   5.543  10.894  13.662
95368SOL    HW287944   5.549  10.744  13.677
95369SOL     OW87945   2.162   7.019  13.834
95369SOL    HW187946   2.151   7.105  13.793
95369SOL    HW287947   2.255   7.015  13.856
95370SOL     OW87948   6.101   1.612   1.702
95370SOL    HW187949   6.082   1.532   1.652
95370SOL    HW287950   6.114   1.581   1.792
95371SOL     OW87951   8.163   1.466   3.386
95371SOL    HW187952   8.249   1.423   3.391
95371SOL    HW287953   8.104   1.405   3.429
95372SOL     OW87954   8.527   4.296   6.804
95372SOL    HW187955   8.518   4.389   6.785
95372SOL    HW287956   8.438   4.262   6.800
95373SOL     OW87957  11.143   5.355  11.322
95373SOL    HW187958  11.069   5.417  11.321
95373SOL    HW287959  11.102   5.269  11.332
95374SOL     OW87960   8.623   6.377  12.541
95374SOL    HW187961   8.674   6.457  12.551
95374SOL    HW287962   8.564   6.394  12.467
95375SOL     OW87963   3.626  10.619   0.540
95375SOL    HW187964   3.706  10.606   0.591
95375SOL    HW287965   3.612  10.713   0.539
95376SOL     OW87966   3.531   4.601  11.309
95376SOL    HW187967   3.601   4.658  11.276
95376SOL    HW287968   3.459   4.613  11.248
95377SOL     OW87969   3.543   9.429   8.383
95377SOL    HW187970   3.470   9.419   8.323
95377SOL    HW287971   3.564   9.523   8.381
95378SOL     OW87972   6.866  13.183  10.616
95378SOL    HW187973   6.775  13.210  10.600
95378SOL    HW287974   6.909  13.261  10.649
95379SOL     OW87975   5.374  11.340  14.843
95379SOL    HW187976   5.308  11.304   0.025
95379SOL    HW287977   5.395  11.426   0.003
95380SOL     OW87978   2.461   1.538  12.384
95380SOL    HW187979   2.413   1.595  12.444
95380SOL    HW287980   2.535   1.592  12.355
95381SOL     OW87981   9.957   5.381   4.582
95381SOL    HW187982   9.864   5.388   4.560
95381SOL    HW287983   9.966   5.294   4.621
95382SOL     OW87984  13.054  10.489   6.239
95382SOL    HW187985  13.137  10.442   6.240
95382SOL    HW287986  13.075  10.575   6.203
95383SOL     OW87987  11.175   7.405   6.434
95383SOL    HW187988  11.179   7.323   6.385
95383SOL    HW287989  11.112   7.459   6.386
95384SOL     OW87990  12.896  13.018  14.473
95384SOL    HW187991  12.949  13.093  14.445
95384SOL    HW287992  12.942  12.984  14.550
95385SOL     OW87993  13.592   6.845   4.148
95385SOL    HW187994  13.644   6.841   4.228
95385SOL    HW287995  13.563   6.755   4.134
95386SOL     OW87996  13.703   9.532   6.200
95386SOL    HW187997  13.730   9.538   6.292
95386SOL    HW287998  13.661   9.616   6.182
95387SOL     OW87999   3.881   3.534   8.479
95387SOL    HW188000   3.905   3.553   8.388
95387SOL    HW288001   3.948   3.473   8.509
95388SOL     OW88002  10.281   5.025   9.413
95388SOL    HW188003  10.301   5.045   9.504
95388SOL    HW288004  10.210   4.961   9.417
95389SOL     OW88005   9.471   2.210   8.546
95389SOL    HW188006   9.478   2.136   8.607
95389SOL    HW288007   9.378   2.214   8.524
95390SOL     OW88008   5.357  11.321   8.520
95390SOL    HW188009   5.415  11.306   8.594
95390SOL    HW288010   5.409  11.371   8.458
95391SOL     OW88011  14.836  11.917   9.074
95391SOL    HW188012  14.750  11.950   9.100
95391SOL    HW288013   0.011  11.995   9.056
95392SOL     OW88014   8.109   1.844   6.999
95392SOL    HW188015   8.112   1.874   6.908
95392SOL    HW288016   8.176   1.896   7.043
95393SOL     OW88017  12.425  12.739  13.049
95393SOL    HW188018  12.396  12.653  13.020
95393SOL    HW288019  12.364  12.763  13.118
95394SOL     OW88020  14.631   4.922  12.722
95394SOL    HW188021  14.605   4.925  12.814
95394SOL    HW288022  14.726   4.915  12.724
95395SOL     OW88023   9.723  13.121  12.699
95395SOL    HW188024   9.662  13.184  12.660
95395SOL    HW288025   9.809  13.144  12.661
95396SOL     OW88026   8.530   1.902  14.052
95396SOL    HW188027   8.486   1.937  13.975
95396SOL    HW288028   8.579   1.976  14.088
95397SOL     OW88029  13.369   9.810  11.974
95397SOL    HW188030  13.460   9.781  11.977
95397SOL    HW288031  13.374   9.901  11.944
95398SOL     OW88032  12.886  13.869  14.209
95398SOL    HW188033  12.833  13.802  14.167
95398SOL    HW288034  12.830  13.946  14.212
95399SOL     OW88035   1.394   8.062  10.278
95399SOL    HW188036   1.311   8.023  10.252
95399SOL    HW288037   1.392   8.062  10.374
95400SOL     OW88038  14.686  12.576  14.722
95400SOL    HW188039  14.708  12.572  14.629
95400SOL    HW288040  14.617  12.510  14.733
95401SOL     OW88041   2.626   6.992   9.018
95401SOL    HW188042   2.694   7.052   8.986
95401SOL    HW288043   2.587   7.038   9.092
95402SOL     OW88044   1.081   6.589   1.152
95402SOL    HW188045   0.997   6.623   1.182
95402SOL    HW288046   1.096   6.510   1.204
95403SOL     OW88047  14.304  11.700   0.747
95403SOL    HW188048  14.359  11.706   0.670
95403SOL    HW288049  14.325  11.777   0.799
95404SOL     OW88050   3.774   2.418   3.144
95404SOL    HW188051   3.681   2.394   3.143
95404SOL    HW288052   3.780   2.490   3.081
95405SOL     OW88053  13.713   7.238  11.284
95405SOL    HW188054  13.746   7.191  11.361
95405SOL    HW288055  13.640   7.185  11.253
95406SOL     OW88056  13.977   9.033   8.004
95406SOL    HW188057  14.004   8.989   8.084
95406SOL    HW288058  13.882   9.032   8.006
95407SOL     OW88059   7.948   1.690  11.422
95407SOL    HW188060   7.942   1.600  11.452
95407SOL    HW288061   7.884   1.697  11.351
95408SOL     OW88062   7.057  13.595   0.206
95408SOL    HW188063   7.147  13.623   0.222
95408SOL    HW288064   7.005  13.675   0.209
95409SOL     OW88065   3.778   9.399   1.216
95409SOL    HW188066   3.731   9.372   1.137
95409SOL    HW288067   3.839   9.466   1.185
95410SOL     OW88068   1.032   2.611   7.344
95410SOL    HW188069   1.120   2.586   7.314
95410SOL    HW288070   1.042   2.701   7.373
95411SOL     OW88071   6.193  12.855  14.504
95411SOL    HW188072   6.263  12.919  14.518
95411SOL    HW288073   6.237  12.771  14.499
95412SOL     OW88074   2.687   8.783   7.324
95412SOL    HW188075   2.774   8.780   7.284
95412SOL    HW288076   2.696   8.735   7.406
95413SOL     OW88077   7.483   6.818   7.727
95413SOL    HW188078   7.552   6.882   7.713
95413SOL    HW288079   7.529   6.737   7.750
95414SOL     OW88080  12.749   5.247   8.802
95414SOL    HW188081  12.734   5.341   8.796
95414SOL    HW288082  12.751   5.230   8.897
95415SOL     OW88083   0.450  11.591   5.728
95415SOL    HW188084   0.471  11.497   5.727
95415SOL    HW288085   0.513  11.629   5.667
95416SOL     OW88086   3.317   8.940   2.110
95416SOL    HW188087   3.406   8.945   2.076
95416SOL    HW288088   3.308   8.850   2.142
95417SOL     OW88089   0.286   1.302  14.038
95417SOL    HW188090   0.322   1.215  14.018
95417SOL    HW288091   0.353   1.363  14.007
95418SOL     OW88092  12.869   2.146  14.477
95418SOL    HW188093  12.818   2.116  14.401
95418SOL    HW288094  12.859   2.077  14.542
95419SOL     OW88095   2.778   2.863   6.397
95419SOL    HW188096   2.731   2.780   6.400
95419SOL    HW288097   2.714   2.928   6.426
95420SOL     OW88098   2.929   4.812   3.573
95420SOL    HW188099   2.845   4.774   3.600
95420SOL    HW288100   2.965   4.850   3.653
95421SOL     OW88101   1.548   3.662   8.478
95421SOL    HW188102   1.543   3.617   8.562
95421SOL    HW288103   1.552   3.592   8.413
95422SOL     OW88104   6.236  13.617  13.102
95422SOL    HW188105   6.285  13.582  13.176
95422SOL    HW288106   6.261  13.709  13.098
95423SOL     OW88107   2.425   1.241   0.669
95423SOL    HW188108   2.440   1.334   0.687
95423SOL    HW288109   2.332   1.229   0.683
95424SOL     OW88110   2.909  12.048  12.581
95424SOL    HW188111   2.979  11.983  12.588
95424SOL    HW288112   2.917  12.084  12.493
95425SOL     OW88113   1.196   3.748  10.832
95425SOL    HW188114   1.289   3.767  10.841
95425SOL    HW288115   1.157   3.830  10.802
95426SOL     OW88116   7.273   7.321   3.455
95426SOL    HW188117   7.334   7.306   3.383
95426SOL    HW288118   7.189   7.287   3.423
95427SOL     OW88119   8.337   5.579   5.308
95427SOL    HW188120   8.382   5.528   5.240
95427SOL    HW288121   8.350   5.670   5.282
95428SOL     OW88122   7.717  13.948  13.720
95428SOL    HW188123   7.765  14.019  13.676
95428SOL    HW288124   7.786  13.890  13.754
95429SOL     OW88125   0.719   6.137   4.969
95429SOL    HW188126   0.744   6.219   5.013
95429SOL    HW288127   0.721   6.158   4.876
95430SOL     OW88128  14.403   1.531   5.218
95430SOL    HW188129  14.424   1.438   5.224
95430SOL    HW288130  14.446   1.570   5.294
95431SOL     OW88131   9.550  11.484  12.274
95431SOL    HW188132   9.512  11.472  12.187
95431SOL    HW288133   9.474  11.483  12.333
95432SOL     OW88134   1.311  11.032   3.498
95432SOL    HW188135   1.390  10.984   3.470
95432SOL    HW288136   1.346  11.107   3.546
95433SOL     OW88137   6.000  11.315  12.864
95433SOL    HW188138   5.965  11.404  12.864
95433SOL    HW288139   6.083  11.322  12.817
95434SOL     OW88140   6.788   0.602   8.301
95434SOL    HW188141   6.845   0.558   8.238
95434SOL    HW288142   6.773   0.689   8.263
95435SOL     OW88143  11.187  12.096   9.445
95435SOL    HW188144  11.123  12.166   9.431
95435SOL    HW288145  11.136  12.016   9.440
95436SOL     OW88146   0.289   8.223   4.964
95436SOL    HW188147   0.235   8.250   4.889
95436SOL    HW288148   0.241   8.255   5.040
95437SOL     OW88149   6.951   1.291   5.444
95437SOL    HW188150   6.952   1.361   5.510
95437SOL    HW288151   7.040   1.256   5.444
95438SOL     OW88152   3.638   4.485   7.923
95438SOL    HW188153   3.696   4.421   7.882
95438SOL    HW288154   3.635   4.459   8.015
95439SOL     OW88155   1.741   3.392   7.728
95439SOL    HW188156   1.680   3.461   7.752
95439SOL    HW288157   1.817   3.406   7.784
95440SOL     OW88158   6.997   9.149  14.205
95440SOL    HW188159   6.904   9.155  14.184
95440SOL    HW288160   7.009   9.058  14.230
95441SOL     OW88161  13.078   4.907  12.852
95441SOL    HW188162  13.100   4.818  12.825
95441SOL    HW288163  13.161   4.954  12.850
95442SOL     OW88164  11.745   2.340   5.330
95442SOL    HW188165  11.706   2.349   5.243
95442SOL    HW288166  11.786   2.425   5.346
95443SOL     OW88167   5.390   8.497   2.630
95443SOL    HW188168   5.364   8.442   2.557
95443SOL    HW288169   5.339   8.464   2.704
95444SOL     OW88170   8.054  10.261  13.621
95444SOL    HW188171   8.097  10.342  13.595
95444SOL    HW288172   8.009  10.283  13.703
95445SOL     OW88173  11.842  10.872  13.934
95445SOL    HW188174  11.926  10.892  13.892
95445SOL    HW288175  11.862  10.798  13.992
95446SOL     OW88176   5.411   9.224   6.567
95446SOL    HW188177   5.419   9.265   6.481
95446SOL    HW288178   5.483   9.161   6.570
95447SOL     OW88179   1.984  11.328  10.355
95447SOL    HW188180   1.947  11.241  10.340
95447SOL    HW288181   2.003  11.331  10.449
95448SOL     OW88182   3.386   6.249   6.178
95448SOL    HW188183   3.344   6.319   6.227
95448SOL    HW288184   3.431   6.197   6.245
95449SOL     OW88185   8.153  14.511   3.150
95449SOL    HW188186   8.076  14.473   3.193
95449SOL    HW288187   8.129  14.516   3.058
95450SOL     OW88188   8.340   0.077   0.614
95450SOL    HW188189   8.396   0.035   0.679
95450SOL    HW288190   8.366   0.169   0.616
95451SOL     OW88191  12.116   7.631  11.545
95451SOL    HW188192  12.207   7.627  11.575
95451SOL    HW288193  12.073   7.557  11.587
95452SOL     OW88194   8.808  11.575  10.611
95452SOL    HW188195   8.856  11.494  10.592
95452SOL    HW288196   8.840  11.603  10.696
95453SOL     OW88197   8.543   1.698  10.470
95453SOL    HW188198   8.530   1.787  10.438
95453SOL    HW288199   8.461   1.653  10.450
95454SOL     OW88200   8.010  13.463   4.134
95454SOL    HW188201   8.040  13.376   4.160
95454SOL    HW288202   8.087  13.520   4.145
95455SOL     OW88203   2.611  12.670   0.144
95455SOL    HW188204   2.683  12.694   0.202
95455SOL    HW288205   2.534  12.712   0.182
95456SOL     OW88206  11.897   8.263  10.396
95456SOL    HW188207  11.874   8.271  10.488
95456SOL    HW288208  11.886   8.170  10.377
95457SOL     OW88209  13.261  11.649   3.751
95457SOL    HW188210  13.297  11.734   3.724
95457SOL    HW288211  13.316  11.622   3.825
95458SOL     OW88212   3.164  10.321   1.168
95458SOL    HW188213   3.250  10.285   1.190
95458SOL    HW288214   3.153  10.301   1.075
95459SOL     OW88215   1.644  11.245   5.563
95459SOL    HW188216   1.627  11.167   5.616
95459SOL    HW288217   1.591  11.313   5.605
95460SOL     OW88218  11.517   3.217  11.467
95460SOL    HW188219  11.556   3.268  11.539
95460SOL    HW288220  11.548   3.128  11.482
95461SOL     OW88221   8.246  14.449   0.474
95461SOL    HW188222   8.252  14.502   0.554
95461SOL    HW288223   8.338  14.438   0.447
95462SOL     OW88224   3.011  14.669   2.617
95462SOL    HW188225   3.017  14.600   2.684
95462SOL    HW288226   2.917  14.680   2.602
95463SOL     OW88227   9.246   7.241   2.367
95463SOL    HW188228   9.301   7.217   2.292
95463SOL    HW288229   9.187   7.167   2.378
95464SOL     OW88230   0.640   3.781   3.050
95464SOL    HW188231   0.700   3.770   2.977
95464SOL    HW288232   0.570   3.836   3.016
95465SOL     OW88233  10.914   7.330   5.053
95465SOL    HW188234  10.824   7.362   5.063
95465SOL    HW288235  10.907   7.236   5.065
95466SOL     OW88236   3.851   5.111  14.156
95466SOL    HW188237   3.803   5.166  14.095
95466SOL    HW288238   3.905   5.055  14.100
95467SOL     OW88239   6.658   1.471   9.952
95467SOL    HW188240   6.740   1.457   9.999
95467SOL    HW288241   6.602   1.518  10.014
95468SOL     OW88242   3.841   5.779   1.433
95468SOL    HW188243   3.781   5.755   1.503
95468SOL    HW288244   3.871   5.696   1.397
95469SOL     OW88245  11.367   8.452   7.758
95469SOL    HW188246  11.273   8.469   7.771
95469SOL    HW288247  11.371   8.363   7.723
95470SOL     OW88248  10.262  11.431  13.677
95470SOL    HW188249  10.190  11.463  13.622
95470SOL    HW288250  10.246  11.337  13.686
95471SOL     OW88251   7.671   3.024  14.409
95471SOL    HW188252   7.748   3.080  14.407
95471SOL    HW288253   7.691   2.956  14.473
95472SOL     OW88254   6.705   6.566  12.179
95472SOL    HW188255   6.623   6.580  12.130
95472SOL    HW288256   6.743   6.653  12.188
95473SOL     OW88257  10.068   1.054   0.862
95473SOL    HW188258  10.144   1.108   0.840
95473SOL    HW288259  10.034   1.091   0.943
95474SOL     OW88260   1.308   4.174   9.968
95474SOL    HW188261   1.293   4.212  10.055
95474SOL    HW288262   1.384   4.117   9.979
95475SOL     OW88263   1.547   5.576   0.862
95475SOL    HW188264   1.580   5.657   0.901
95475SOL    HW288265   1.452   5.581   0.875
95476SOL     OW88266  12.146   8.327   1.584
95476SOL    HW188267  12.064   8.280   1.596
95476SOL    HW288268  12.119   8.418   1.566
95477SOL     OW88269   3.287   5.865  10.412
95477SOL    HW188270   3.198   5.897  10.431
95477SOL    HW288271   3.281   5.770  10.422
95478SOL     OW88272   9.785   8.828   3.067
95478SOL    HW188273   9.705   8.865   3.105
95478SOL    HW288274   9.784   8.736   3.092
95479SOL     OW88275   4.702  13.238   2.642
95479SOL    HW188276   4.666  13.162   2.687
95479SOL    HW288277   4.677  13.312   2.697
95480SOL     OW88278   3.633   1.640  12.614
95480SOL    HW188279   3.547   1.680  12.603
95480SOL    HW288280   3.634   1.568  12.551
95481SOL     OW88281   5.063  13.801  10.849
95481SOL    HW188282   5.022  13.790  10.764
95481SOL    HW288283   5.018  13.738  10.906
95482SOL     OW88284   7.693   4.814   6.190
95482SOL    HW188285   7.651   4.878   6.133
95482SOL    HW288286   7.665   4.838   6.278
95483SOL     OW88287   3.715  14.618  14.426
95483SOL    HW188288   3.699  14.710  14.446
95483SOL    HW288289   3.763  14.619  14.344
95484SOL     OW88290  10.806   2.742   5.024
95484SOL    HW188291  10.880   2.688   4.997
95484SOL    HW288292  10.846   2.809   5.080
95485SOL     OW88293   1.486   0.420   4.010
95485SOL    HW188294   1.515   0.508   3.986
95485SOL    HW288295   1.550   0.391   4.076
95486SOL     OW88296   8.432   8.241  13.753
95486SOL    HW188297   8.343   8.230  13.784
95486SOL    HW288298   8.483   8.174  13.798
95487SOL     OW88299   4.896   8.934   7.888
95487SOL    HW188300   4.879   9.004   7.826
95487SOL    HW288301   4.940   8.977   7.962
95488SOL     OW88302  12.024  14.255   6.278
95488SOL    HW188303  12.080  14.178   6.284
95488SOL    HW288304  11.977  14.256   6.362
95489SOL     OW88305   8.975   3.153   5.005
95489SOL    HW188306   8.990   3.233   4.955
95489SOL    HW288307   8.949   3.088   4.939
95490SOL     OW88308   6.067   3.844   6.847
95490SOL    HW188309   6.027   3.757   6.849
95490SOL    HW288310   6.008   3.896   6.792
95491SOL     OW88311  11.796  10.578   4.532
95491SOL    HW188312  11.735  10.629   4.479
95491SOL    HW288313  11.875  10.632   4.536
95492SOL     OW88314   9.427   4.839   2.489
95492SOL    HW188315   9.362   4.884   2.435
95492SOL    HW288316   9.446   4.901   2.560
95493SOL     OW88317   4.266   2.869   0.183
95493SOL    HW188318   4.225   2.802   0.237
95493SOL    HW288319   4.227   2.952   0.213
95494SOL     OW88320  12.253   1.185   6.272
95494SOL    HW188321  12.345   1.186   6.246
95494SOL    HW288322  12.226   1.277   6.266
95495SOL     OW88323   4.975   9.996   2.541
95495SOL    HW188324   5.063   9.963   2.524
95495SOL    HW288325   4.950  10.040   2.460
95496SOL     OW88326   1.706   7.835   5.857
95496SOL    HW188327   1.622   7.800   5.885
95496SOL    HW288328   1.717   7.800   5.768
95497SOL     OW88329  10.178  11.533   6.627
95497SOL    HW188330  10.215  11.539   6.539
95497SOL    HW288331  10.106  11.597   6.627
95498SOL     OW88332   8.089   1.396   6.205
95498SOL    HW188333   8.071   1.325   6.266
95498SOL    HW288334   8.008   1.447   6.204
95499SOL     OW88335  10.986   8.033  13.857
95499SOL    HW188336  10.953   8.014  13.770
95499SOL    HW288337  11.015   7.948  13.890
95500SOL     OW88338   1.445  14.510  10.639
95500SOL    HW188339   1.414  14.597  10.615
95500SOL    HW288340   1.395  14.451  10.584
95501SOL     OW88341  13.065   8.482  13.634
95501SOL    HW188342  13.127   8.410  13.649
95501SOL    HW288343  13.067   8.496  13.539
95502SOL     OW88344   6.611   5.985   2.429
95502SOL    HW188345   6.567   5.989   2.514
95502SOL    HW288346   6.693   6.033   2.443
95503SOL     OW88347   1.672   0.332   4.562
95503SOL    HW188348   1.579   0.355   4.559
95503SOL    HW288349   1.712   0.400   4.617
95504SOL     OW88350  13.385   5.489   4.162
95504SOL    HW188351  13.394   5.548   4.237
95504SOL    HW288352  13.299   5.508   4.126
95505SOL     OW88353   3.182   7.108  11.964
95505SOL    HW188354   3.089   7.111  11.986
95505SOL    HW288355   3.216   7.033  12.013
95506SOL     OW88356  12.162  11.817   6.509
95506SOL    HW188357  12.175  11.882   6.440
95506SOL    HW288358  12.069  11.822   6.529
95507SOL     OW88359   3.032  13.496  10.789
95507SOL    HW188360   2.983  13.544  10.722
95507SOL    HW288361   2.994  13.525  10.872
95508SOL     OW88362   1.854  10.077  14.132
95508SOL    HW188363   1.869  10.148  14.070
95508SOL    HW288364   1.843   9.999  14.077
95509SOL     OW88365  10.435   6.160  10.890
95509SOL    HW188366  10.407   6.142  10.980
95509SOL    HW288367  10.502   6.093  10.872
95510SOL     OW88368  11.837  12.772   3.067
95510SOL    HW188369  11.897  12.762   3.142
95510SOL    HW288370  11.871  12.712   3.002
95511SOL     OW88371  13.182   3.533   5.293
95511SOL    HW188372  13.151   3.525   5.384
95511SOL    HW288373  13.114   3.585   5.250
95512SOL     OW88374  10.560   6.211  13.785
95512SOL    HW188375  10.555   6.117  13.802
95512SOL    HW288376  10.490   6.228  13.722
95513SOL     OW88377  12.489   0.565  10.891
95513SOL    HW188378  12.406   0.555  10.937
95513SOL    HW288379  12.475   0.524  10.806
95514SOL     OW88380   6.684   8.206   4.307
95514SOL    HW188381   6.730   8.122   4.318
95514SOL    HW288382   6.726   8.264   4.370
95515SOL     OW88383  12.683   1.350   9.414
95515SOL    HW188384  12.660   1.324   9.503
95515SOL    HW288385  12.777   1.336   9.408
95516SOL     OW88386  12.508   5.215   7.745
95516SOL    HW188387  12.515   5.278   7.673
95516SOL    HW288388  12.424   5.172   7.731
95517SOL     OW88389  12.022   4.086   2.123
95517SOL    HW188390  12.015   3.997   2.156
95517SOL    HW288391  12.070   4.077   2.040
95518SOL     OW88392   1.133   6.598   9.010
95518SOL    HW188393   1.047   6.614   9.050
95518SOL    HW288394   1.170   6.526   9.061
95519SOL     OW88395   1.738   1.536   5.401
95519SOL    HW188396   1.686   1.607   5.438
95519SOL    HW288397   1.802   1.514   5.469
95520SOL     OW88398  10.496   4.172   9.528
95520SOL    HW188399  10.452   4.254   9.507
95520SOL    HW288400  10.589   4.194   9.527
95521SOL     OW88401  13.785  13.213  13.472
95521SOL    HW188402  13.698  13.176  13.487
95521SOL    HW288403  13.800  13.268  13.549
95522SOL     OW88404  14.563   8.729  11.678
95522SOL    HW188405  14.521   8.650  11.713
95522SOL    HW288406  14.649   8.699  11.647
95523SOL     OW88407  11.190   7.715   1.605
95523SOL    HW188408  11.125   7.785   1.605
95523SOL    HW288409  11.186   7.678   1.693
95524SOL     OW88410   9.349   3.458  10.383
95524SOL    HW188411   9.271   3.509  10.404
95524SOL    HW288412   9.395   3.510  10.318
95525SOL     OW88413   0.120   2.738   9.557
95525SOL    HW188414   0.203   2.757   9.513
95525SOL    HW288415   0.067   2.815   9.542
95526SOL     OW88416   0.045  11.227   6.512
95526SOL    HW188417  14.871  11.207   6.433
95526SOL    HW288418   0.136  11.216   6.485
95527SOL     OW88419  13.620   7.946   9.671
95527SOL    HW188420  13.639   7.948   9.577
95527SOL    HW288421  13.544   8.003   9.681
95528SOL     OW88422   9.670   3.594   0.866
95528SOL    HW188423   9.680   3.646   0.945
95528SOL    HW288424   9.756   3.556   0.850
95529SOL     OW88425   4.080   8.921  10.765
95529SOL    HW188426   4.131   8.904  10.686
95529SOL    HW288427   4.124   8.997  10.804
95530SOL     OW88428  11.573   8.439   6.009
95530SOL    HW188429  11.531   8.401   6.086
95530SOL    HW288430  11.656   8.392   6.002
95531SOL     OW88431  11.750   2.890   9.642
95531SOL    HW188432  11.678   2.850   9.595
95531SOL    HW288433  11.811   2.818   9.661
95532SOL     OW88434   3.499   2.730   0.945
95532SOL    HW188435   3.530   2.818   0.926
95532SOL    HW288436   3.578   2.680   0.967
95533SOL     OW88437   8.925   5.723   8.088
95533SOL    HW188438   8.890   5.656   8.147
95533SOL    HW288439   8.910   5.688   8.001
95534SOL     OW88440   6.677  14.036   0.109
95534SOL    HW188441   6.729  14.018   0.187
95534SOL    HW288442   6.631  13.953   0.092
95535SOL     OW88443   4.457  11.382   6.854
95535SOL    HW188444   4.380  11.326   6.862
95535SOL    HW288445   4.512  11.358   6.928
95536SOL     OW88446   6.208  14.530   5.727
95536SOL    HW188447   6.137  14.509   5.788
95536SOL    HW288448   6.260  14.450   5.723
95537SOL     OW88449   6.211   2.707   8.942
95537SOL    HW188450   6.218   2.800   8.920
95537SOL    HW288451   6.165   2.706   9.026
95538SOL     OW88452  13.326  12.630  14.428
95538SOL    HW188453  13.397  12.694  14.427
95538SOL    HW288454  13.254  12.675  14.472
95539SOL     OW88455   4.338   9.375   8.344
95539SOL    HW188456   4.307   9.318   8.414
95539SOL    HW288457   4.259   9.420   8.313
95540SOL     OW88458   8.696  14.480   9.947
95540SOL    HW188459   8.638  14.531   9.891
95540SOL    HW288460   8.693  14.392   9.910
95541SOL     OW88461   1.211   8.580  14.427
95541SOL    HW188462   1.226   8.486  14.416
95541SOL    HW288463   1.298   8.617  14.440
95542SOL     OW88464   8.373   7.131   4.015
95542SOL    HW188465   8.351   7.122   4.107
95542SOL    HW288466   8.289   7.138   3.970
95543SOL     OW88467   1.977  11.459   9.872
95543SOL    HW188468   1.890  11.426   9.897
95543SOL    HW288469   2.012  11.496   9.953
95544SOL     OW88470   1.928   3.982  14.489
95544SOL    HW188471   1.907   3.965  14.397
95544SOL    HW288472   2.015   4.023  14.486
95545SOL     OW88473   4.906   4.108  12.088
95545SOL    HW188474   4.942   4.108  11.999
95545SOL    HW288475   4.866   4.022  12.098
95546SOL     OW88476   2.166   2.060  10.989
95546SOL    HW188477   2.243   2.014  11.023
95546SOL    HW288478   2.200   2.147  10.965
95547SOL     OW88479   2.680   8.659  11.993
95547SOL    HW188480   2.715   8.747  12.002
95547SOL    HW288481   2.740   8.604  12.043
95548SOL     OW88482   7.446  12.791  11.184
95548SOL    HW188483   7.442  12.887  11.187
95548SOL    HW288484   7.373  12.763  11.240
95549SOL     OW88485   3.888   4.354   0.367
95549SOL    HW188486   3.926   4.374   0.453
95549SOL    HW288487   3.942   4.402   0.305
95550SOL     OW88488   8.148   9.221   4.334
95550SOL    HW188489   8.090   9.167   4.281
95550SOL    HW288490   8.093   9.291   4.368
95551SOL     OW88491   9.438   8.674   9.744
95551SOL    HW188492   9.363   8.617   9.757
95551SOL    HW288493   9.456   8.711   9.830
95552SOL     OW88494   5.812   5.926  14.860
95552SOL    HW188495   5.802   6.019  14.841
95552SOL    HW288496   5.902   5.918   0.016
95553SOL     OW88497  11.964  10.594   7.142
95553SOL    HW188498  12.040  10.541   7.168
95553SOL    HW288499  11.947  10.651   7.217
95554SOL     OW88500   0.788   0.981   0.676
95554SOL    HW188501   0.771   1.034   0.754
95554SOL    HW288502   0.861   0.924   0.702
95555SOL     OW88503   2.983   0.591   9.910
95555SOL    HW188504   2.914   0.565   9.971
95555SOL    HW288505   3.029   0.509   9.890
95556SOL     OW88506   1.175   5.320   0.048
95556SOL    HW188507   1.126   5.396   0.018
95556SOL    HW288508   1.116   5.274   0.107
95557SOL     OW88509   8.460  13.960   4.970
95557SOL    HW188510   8.391  13.906   5.010
95557SOL    HW288511   8.541  13.912   4.988
95558SOL     OW88512   4.089   3.123   0.042
95558SOL    HW188513   4.183   3.134   0.030
95558SOL    HW288514   4.076   3.125   0.137
95559SOL     OW88515  13.174  12.442   7.387
95559SOL    HW188516  13.231  12.518   7.403
95559SOL    HW288517  13.093  12.479   7.354
95560SOL     OW88518   9.541   4.686   7.743
95560SOL    HW188519   9.582   4.614   7.694
95560SOL    HW288520   9.527   4.650   7.831
95561SOL     OW88521  10.074   0.321  13.072
95561SOL    HW188522  10.030   0.395  13.031
95561SOL    HW288523  10.134   0.289  13.005
95562SOL     OW88524  11.246   5.238   2.182
95562SOL    HW188525  11.259   5.143   2.188
95562SOL    HW288526  11.278   5.261   2.095
95563SOL     OW88527   4.644  14.313   0.471
95563SOL    HW188528   4.615  14.283   0.557
95563SOL    HW288529   4.722  14.260   0.452
95564SOL     OW88530   2.115   1.755   0.721
95564SOL    HW188531   2.061   1.689   0.765
95564SOL    HW288532   2.056   1.830   0.708
95565SOL     OW88533   9.600   9.690  10.658
95565SOL    HW188534   9.538   9.749  10.615
95565SOL    HW288535   9.685   9.713  10.621
95566SOL     OW88536   7.145   6.877   3.175
95566SOL    HW188537   7.110   6.858   3.262
95566SOL    HW288538   7.139   6.972   3.168
95567SOL     OW88539   4.429   2.581   4.778
95567SOL    HW188540   4.411   2.658   4.723
95567SOL    HW288541   4.354   2.524   4.764
95568SOL     OW88542  10.910   8.609   8.669
95568SOL    HW188543  10.840   8.648   8.722
95568SOL    HW288544  10.930   8.675   8.603
95569SOL     OW88545  13.832   3.287   6.237
95569SOL    HW188546  13.832   3.216   6.172
95569SOL    HW288547  13.756   3.269   6.293
95570SOL     OW88548   3.470   7.612  13.498
95570SOL    HW188549   3.496   7.669  13.571
95570SOL    HW288550   3.418   7.543  13.540
95571SOL     OW88551  11.762  12.040   8.455
95571SOL    HW188552  11.722  11.956   8.477
95571SOL    HW288553  11.697  12.085   8.402
95572SOL     OW88554  14.447  11.579   0.299
95572SOL    HW188555  14.493  11.596   0.217
95572SOL    HW288556  14.363  11.623   0.289
95573SOL     OW88557   2.849  14.051  14.471
95573SOL    HW188558   2.931  14.006  14.452
95573SOL    HW288559   2.850  14.062  14.566
95574SOL     OW88560  10.462  13.443  10.933
95574SOL    HW188561  10.547  13.462  10.892
95574SOL    HW288562  10.476  13.361  10.981
95575SOL     OW88563   9.718   4.629   0.113
95575SOL    HW188564   9.679   4.716   0.118
95575SOL    HW288565   9.644   4.570   0.102
95576SOL     OW88566   8.385  14.541   6.718
95576SOL    HW188567   8.348  14.517   6.634
95576SOL    HW288568   8.329  14.611   6.751
95577SOL     OW88569  13.621  12.157   4.513
95577SOL    HW188570  13.542  12.163   4.460
95577SOL    HW288571  13.651  12.248   4.523
95578SOL     OW88572   0.152  13.538  10.711
95578SOL    HW188573   0.126  13.623  10.674
95578SOL    HW288574   0.073  13.485  10.706
95579SOL     OW88575   1.496   2.116  11.384
95579SOL    HW188576   1.551   2.177  11.334
95579SOL    HW288577   1.540   2.108  11.468
95580SOL     OW88578   3.381   1.716   8.635
95580SOL    HW188579   3.467   1.695   8.671
95580SOL    HW288580   3.375   1.812   8.638
95581SOL     OW88581  12.754  13.796   8.467
95581SOL    HW188582  12.722  13.732   8.531
95581SOL    HW288583  12.685  13.862   8.462
95582SOL     OW88584  11.390  12.186   6.610
95582SOL    HW188585  11.298  12.160   6.604
95582SOL    HW288586  11.387  12.282   6.614
95583SOL     OW88587   6.879   9.509   5.240
95583SOL    HW188588   6.871   9.600   5.268
95583SOL    HW288589   6.808   9.464   5.285
95584SOL     OW88590   2.066   5.064   6.171
95584SOL    HW188591   2.011   4.995   6.134
95584SOL    HW288592   2.042   5.143   6.122
95585SOL     OW88593   6.302  14.802  13.934
95585SOL    HW188594   6.301  14.827  13.842
95585SOL    HW288595   6.394  14.780  13.951
95586SOL     OW88596   1.322  10.520   0.982
95586SOL    HW188597   1.292  10.608   0.958
95586SOL    HW288598   1.413  10.533   1.009
95587SOL     OW88599   0.483  10.067   0.300
95587SOL    HW188600   0.421  10.092   0.231
95587SOL    HW288601   0.555  10.025   0.253
95588SOL     OW88602  12.498   2.831   6.952
95588SOL    HW188603  12.524   2.742   6.930
95588SOL    HW288604  12.523   2.840   7.044
95589SOL     OW88605   9.358   8.147  11.287
95589SOL    HW188606   9.445   8.171  11.256
95589SOL    HW288607   9.362   8.161  11.382
95590SOL     OW88608  12.575  11.938  12.705
95590SOL    HW188609  12.617  12.002  12.763
95590SOL    HW288610  12.567  11.983  12.621
95591SOL     OW88611   2.886   0.674  12.574
95591SOL    HW188612   2.842   0.619  12.509
95591SOL    HW288613   2.816   0.699  12.635
95592SOL     OW88614  10.918   3.356   2.853
95592SOL    HW188615  10.906   3.325   2.943
95592SOL    HW288616  10.993   3.307   2.820
95593SOL     OW88617   1.685   5.330   9.898
95593SOL    HW188618   1.676   5.422   9.924
95593SOL    HW288619   1.629   5.282   9.960
95594SOL     OW88620   2.618   1.680   0.753
95594SOL    HW188621   2.617   1.775   0.746
95594SOL    HW288622   2.669   1.663   0.833
95595SOL     OW88623  10.688   3.882   2.381
95595SOL    HW188624  10.607   3.866   2.431
95595SOL    HW288625  10.690   3.811   2.316
95596SOL     OW88626  11.572  11.885  10.545
95596SOL    HW188627  11.576  11.931  10.629
95596SOL    HW288628  11.642  11.819  10.550
95597SOL     OW88629   0.274   4.208  14.448
95597SOL    HW188630   0.319   4.286  14.415
95597SOL    HW288631   0.299   4.202  14.540
95598SOL     OW88632   8.184  14.296   1.472
95598SOL    HW188633   8.168  14.388   1.451
95598SOL    HW288634   8.275  14.293   1.499
95599SOL     OW88635   7.192  11.614  11.948
95599SOL    HW188636   7.233  11.696  11.975
95599SOL    HW288637   7.101  11.622  11.976
95600SOL     OW88638  10.925   2.255   8.699
95600SOL    HW188639  10.849   2.197   8.713
95600SOL    HW288640  10.972   2.253   8.782
95601SOL     OW88641   0.862   0.027   2.235
95601SOL    HW188642   0.942  14.872   2.193
95601SOL    HW288643   0.887   0.113   2.270
95602SOL     OW88644   5.175  13.114   3.207
95602SOL    HW188645   5.083  13.092   3.224
95602SOL    HW288646   5.174  13.209   3.192
95603SOL     OW88647  12.257   9.523   1.390
95603SOL    HW188648  12.280   9.606   1.350
95603SOL    HW288649  12.339   9.489   1.425
95604SOL     OW88650   7.177  10.507   2.193
95604SOL    HW188651   7.143  10.477   2.109
95604SOL    HW288652   7.106  10.493   2.254
95605SOL     OW88653   0.007   1.440  13.501
95605SOL    HW188654  14.825   1.414  13.430
95605SOL    HW288655   0.076   1.490  13.458
95606SOL     OW88656   5.201  14.124   5.717
95606SOL    HW188657   5.296  14.117   5.712
95606SOL    HW288658   5.171  14.115   5.627
95607SOL     OW88659   0.428   5.943   2.653
95607SOL    HW188660   0.360   5.998   2.613
95607SOL    HW288661   0.492   5.930   2.584
95608SOL     OW88662   0.311   0.718   6.710
95608SOL    HW188663   0.325   0.778   6.636
95608SOL    HW288664   0.396   0.676   6.723
95609SOL     OW88665   6.148   9.072   6.387
95609SOL    HW188666   6.163   8.979   6.370
95609SOL    HW288667   6.235   9.108   6.402
95610SOL     OW88668   5.871   2.625   7.520
95610SOL    HW188669   5.807   2.693   7.541
95610SOL    HW288670   5.934   2.669   7.462
95611SOL     OW88671  13.691  14.669  10.438
95611SOL    HW188672  13.722  14.581  10.417
95611SOL    HW288673  13.670  14.666  10.531
95612SOL     OW88674   2.770   6.944   3.519
95612SOL    HW188675   2.691   6.992   3.497
95612SOL    HW288676   2.813   6.930   3.435
95613SOL     OW88677   0.365   3.525  10.046
95613SOL    HW188678   0.409   3.457   9.994
95613SOL    HW288679   0.359   3.487  10.134
95614SOL     OW88680   3.170  10.914   2.244
95614SOL    HW188681   3.128  10.852   2.184
95614SOL    HW288682   3.262  10.915   2.215
95615SOL     OW88683   6.962  14.441   6.334
95615SOL    HW188684   6.996  14.441   6.424
95615SOL    HW288685   6.877  14.398   6.341
95616SOL     OW88686   9.058  11.231   6.078
95616SOL    HW188687   8.982  11.201   6.029
95616SOL    HW288688   9.111  11.279   6.014
95617SOL     OW88689   1.845   3.030   4.343
95617SOL    HW188690   1.913   3.095   4.359
95617SOL    HW288691   1.891   2.946   4.340
95618SOL     OW88692  10.414   2.728   6.727
95618SOL    HW188693  10.420   2.675   6.806
95618SOL    HW288694  10.322   2.752   6.721
95619SOL     OW88695   3.476   2.435  13.865
95619SOL    HW188696   3.508   2.406  13.951
95619SOL    HW288697   3.530   2.386  13.802
95620SOL     OW88698   4.670   1.861  11.124
95620SOL    HW188699   4.699   1.951  11.107
95620SOL    HW288700   4.580   1.870  11.154
95621SOL     OW88701  13.534   6.905   5.126
95621SOL    HW188702  13.463   6.940   5.072
95621SOL    HW288703  13.614   6.929   5.079
95622SOL     OW88704   4.753   0.135   4.141
95622SOL    HW188705   4.844   0.106   4.143
95622SOL    HW288706   4.748   0.194   4.065
95623SOL     OW88707   3.072   4.620   1.303
95623SOL    HW188708   3.140   4.617   1.236
95623SOL    HW288709   2.993   4.647   1.257
95624SOL     OW88710   5.443   5.696   2.520
95624SOL    HW188711   5.411   5.759   2.455
95624SOL    HW288712   5.529   5.669   2.488
95625SOL     OW88713  10.690  10.909   1.459
95625SOL    HW188714  10.728  10.975   1.518
95625SOL    HW288715  10.722  10.825   1.493
95626SOL     OW88716  12.466   9.533   3.055
95626SOL    HW188717  12.484   9.580   3.136
95626SOL    HW288718  12.378   9.561   3.030
95627SOL     OW88719  14.690   3.199   6.143
95627SOL    HW188720  14.668   3.204   6.050
95627SOL    HW288721  14.606   3.184   6.187
95628SOL     OW88722   3.613   8.940  13.755
95628SOL    HW188723   3.698   8.933  13.799
95628SOL    HW288724   3.563   8.865  13.788
95629SOL     OW88725   0.340   5.332  13.811
95629SOL    HW188726   0.355   5.239  13.825
95629SOL    HW288727   0.252   5.338  13.776
95630SOL     OW88728  12.097  10.088   0.434
95630SOL    HW188729  12.102  10.180   0.411
95630SOL    HW288730  12.008  10.076   0.467
95631SOL     OW88731   4.105   9.624  10.407
95631SOL    HW188732   4.062   9.620  10.493
95631SOL    HW288733   4.185   9.573  10.417
95632SOL     OW88734   7.244  12.674  12.064
95632SOL    HW188735   7.306  12.603  12.048
95632SOL    HW288736   7.293  12.738  12.114
95633SOL     OW88737   3.969   5.436  10.331
95633SOL    HW188738   3.993   5.355  10.376
95633SOL    HW288739   4.048   5.461  10.282
95634SOL     OW88740  10.953   9.187   2.690
95634SOL    HW188741  10.957   9.152   2.779
95634SOL    HW288742  11.045   9.197   2.665
95635SOL     OW88743   5.813   3.607   8.679
95635SOL    HW188744   5.850   3.612   8.590
95635SOL    HW288745   5.739   3.668   8.677
95636SOL     OW88746   9.990   8.894  12.572
95636SOL    HW188747   9.959   8.855  12.491
95636SOL    HW288748   9.923   8.872  12.637
95637SOL     OW88749   2.109   9.640   9.613
95637SOL    HW188750   2.142   9.594   9.690
95637SOL    HW288751   2.187   9.674   9.570
95638SOL     OW88752   9.878   0.112   1.074
95638SOL    HW188753   9.861   0.110   1.168
95638SOL    HW288754   9.792   0.127   1.034
95639SOL     OW88755  10.779   8.538  11.070
95639SOL    HW188756  10.788   8.541  10.975
95639SOL    HW288757  10.741   8.623  11.093
95640SOL     OW88758  14.475   6.633   7.099
95640SOL    HW188759  14.404   6.692   7.073
95640SOL    HW288760  14.463   6.623   7.194
95641SOL     OW88761   1.203   3.348  12.439
95641SOL    HW188762   1.224   3.280  12.375
95641SOL    HW288763   1.224   3.308  12.523
95642SOL     OW88764  10.978   2.520   6.248
95642SOL    HW188765  10.933   2.594   6.207
95642SOL    HW288766  10.945   2.519   6.338
95643SOL     OW88767  14.519   7.826   1.984
95643SOL    HW188768  14.448   7.878   2.021
95643SOL    HW288769  14.490   7.806   1.895
95644SOL     OW88770  14.084  11.636   1.816
95644SOL    HW188771  14.004  11.599   1.853
95644SOL    HW288772  14.063  11.651   1.723
95645SOL     OW88773  12.650   3.162   7.777
95645SOL    HW188774  12.722   3.223   7.762
95645SOL    HW288775  12.660   3.097   7.707
95646SOL     OW88776  11.395  11.577  11.528
95646SOL    HW188777  11.337  11.546  11.459
95646SOL    HW288778  11.390  11.672  11.523
95647SOL     OW88779   1.092   3.374   0.594
95647SOL    HW188780   1.042   3.293   0.593
95647SOL    HW288781   1.070   3.415   0.678
95648SOL     OW88782   8.394   3.548   8.431
95648SOL    HW188783   8.487   3.571   8.426
95648SOL    HW288784   8.359   3.603   8.501
95649SOL     OW88785   3.130  14.134   9.302
95649SOL    HW188786   3.219  14.146   9.337
95649SOL    HW288787   3.076  14.115   9.379
95650SOL     OW88788  10.071   1.725  11.388
95650SOL    HW188789  10.112   1.746  11.304
95650SOL    HW288790  10.023   1.644  11.371
95651SOL     OW88791   5.394   7.959   7.105
95651SOL    HW188792   5.308   7.985   7.139
95651SOL    HW288793   5.374   7.911   7.024
95652SOL     OW88794  10.753   7.140   7.507
95652SOL    HW188795  10.774   7.047   7.509
95652SOL    HW288796  10.665   7.146   7.544
95653SOL     OW88797  11.085   7.532  10.728
95653SOL    HW188798  11.077   7.563  10.819
95653SOL    HW288799  11.075   7.611  10.675
95654SOL     OW88800  11.833   1.509  14.373
95654SOL    HW188801  11.829   1.469  14.286
95654SOL    HW288802  11.743   1.506  14.406
95655SOL     OW88803   0.409   3.127   5.662
95655SOL    HW188804   0.317   3.113   5.687
95655SOL    HW288805   0.436   3.045   5.623
95656SOL     OW88806  13.334   4.885   5.901
95656SOL    HW188807  13.335   4.955   5.966
95656SOL    HW288808  13.416   4.896   5.852
95657SOL     OW88809   6.121   7.625   6.380
95657SOL    HW188810   6.132   7.647   6.288
95657SOL    HW288811   6.027   7.613   6.391
95658SOL     OW88812   3.421   7.072   4.590
95658SOL    HW188813   3.504   7.025   4.587
95658SOL    HW288814   3.383   7.047   4.674
95659SOL     OW88815   7.257  13.585  12.041
95659SOL    HW188816   7.328  13.530  12.075
95659SOL    HW288817   7.192  13.523  12.008
95660SOL     OW88818  10.055   6.622   5.935
95660SOL    HW188819  10.031   6.657   6.021
95660SOL    HW288820   9.977   6.575   5.906
95661SOL     OW88821  11.243   9.250  12.153
95661SOL    HW188822  11.311   9.298  12.106
95661SOL    HW288823  11.174   9.236  12.088
95662SOL     OW88824   0.138   8.584   9.876
95662SOL    HW188825   0.091   8.507   9.842
95662SOL    HW288826   0.204   8.602   9.811
95663SOL     OW88827  14.808  12.550   3.091
95663SOL    HW188828  14.755  12.593   3.025
95663SOL    HW288829  14.761  12.469   3.111
95664SOL     OW88830   9.000   2.379   3.212
95664SOL    HW188831   8.931   2.407   3.153
95664SOL    HW288832   9.080   2.417   3.175
95665SOL     OW88833   3.164   9.293   8.098
95665SOL    HW188834   3.117   9.272   8.018
95665SOL    HW288835   3.227   9.222   8.109
95666SOL     OW88836  13.557   4.466   1.191
95666SOL    HW188837  13.646   4.432   1.202
95666SOL    HW288838  13.564   4.558   1.217
95667SOL     OW88839   0.858   3.873  12.651
95667SOL    HW188840   0.944   3.895  12.615
95667SOL    HW288841   0.815   3.824  12.581
95668SOL     OW88842   5.437  13.396   2.397
95668SOL    HW188843   5.444  13.457   2.324
95668SOL    HW288844   5.343  13.378   2.405
95669SOL     OW88845   7.247  10.875   2.423
95669SOL    HW188846   7.182  10.846   2.487
95669SOL    HW288847   7.233  10.820   2.347
95670SOL     OW88848   7.177   2.340  11.899
95670SOL    HW188849   7.179   2.343  11.804
95670SOL    HW288850   7.263   2.305  11.923
95671SOL     OW88851   5.728   0.034   4.504
95671SOL    HW188852   5.654   0.095   4.514
95671SOL    HW288853   5.791   0.062   4.570
95672SOL     OW88854   7.618   7.851   7.160
95672SOL    HW188855   7.675   7.871   7.235
95672SOL    HW288856   7.589   7.761   7.175
95673SOL     OW88857  11.148   0.546  11.331
95673SOL    HW188858  11.240   0.536  11.307
95673SOL    HW288859  11.115   0.457  11.340
95674SOL     OW88860  14.616  11.975  14.431
95674SOL    HW188861  14.538  11.960  14.377
95674SOL    HW288862  14.610  11.908  14.500
95675SOL     OW88863   8.610   1.337  13.309
95675SOL    HW188864   8.638   1.403  13.372
95675SOL    HW288865   8.624   1.253  13.354
95676SOL     OW88866   5.055   0.740   6.739
95676SOL    HW188867   5.002   0.717   6.815
95676SOL    HW288868   5.039   0.833   6.726
95677SOL     OW88869   4.591  14.607  11.676
95677SOL    HW188870   4.587  14.533  11.616
95677SOL    HW288871   4.516  14.595  11.735
95678SOL     OW88872   1.490   0.940   1.467
95678SOL    HW188873   1.472   0.846   1.460
95678SOL    HW288874   1.572   0.945   1.516
95679SOL     OW88875   8.703   5.446   4.743
95679SOL    HW188876   8.714   5.526   4.692
95679SOL    HW288877   8.751   5.463   4.824
95680SOL     OW88878   2.219  13.055  13.000
95680SOL    HW188879   2.215  13.101  13.084
95680SOL    HW288880   2.180  12.970  13.017
95681SOL     OW88881  11.255  14.324   5.919
95681SOL    HW188882  11.166  14.350   5.942
95681SOL    HW288883  11.262  14.234   5.950
95682SOL     OW88884   6.465   0.766  12.160
95682SOL    HW188885   6.527   0.814  12.215
95682SOL    HW288886   6.379   0.786  12.197
95683SOL     OW88887   3.774   6.290   0.801
95683SOL    HW188888   3.722   6.246   0.734
95683SOL    HW288889   3.715   6.355   0.839
95684SOL     OW88890   3.598   4.822   2.915
95684SOL    HW188891   3.583   4.763   2.989
95684SOL    HW288892   3.516   4.870   2.906
95685SOL     OW88893   6.122   4.669  10.224
95685SOL    HW188894   6.185   4.741  10.226
95685SOL    HW288895   6.037   4.712  10.226
95686SOL     OW88896   3.309  11.519  10.439
95686SOL    HW188897   3.240  11.584  10.424
95686SOL    HW288898   3.366  11.527  10.363
95687SOL     OW88899   6.895  10.354   9.352
95687SOL    HW188900   6.862  10.294   9.285
95687SOL    HW288901   6.896  10.439   9.309
95688SOL     OW88902   6.429  10.824   7.719
95688SOL    HW188903   6.501  10.814   7.780
95688SOL    HW288904   6.420  10.738   7.677
95689SOL     OW88905   6.651   0.799   2.061
95689SOL    HW188906   6.613   0.864   2.002
95689SOL    HW288907   6.740   0.829   2.076
95690SOL     OW88908   0.540   2.430  12.410
95690SOL    HW188909   0.598   2.470  12.475
95690SOL    HW288910   0.582   2.448  12.326
95691SOL     OW88911   8.302  12.849   9.693
95691SOL    HW188912   8.292  12.772   9.638
95691SOL    HW288913   8.372  12.900   9.651
95692SOL     OW88914  10.405   5.521   5.150
95692SOL    HW188915  10.361   5.518   5.235
95692SOL    HW288916  10.344   5.478   5.089
95693SOL     OW88917  12.277  13.672  11.992
95693SOL    HW188918  12.336  13.612  11.947
95693SOL    HW288919  12.225  13.712  11.923
95694SOL     OW88920   9.761   2.926  13.686
95694SOL    HW188921   9.779   2.859  13.620
95694SOL    HW288922   9.666   2.938  13.684
95695SOL     OW88923   1.481  11.843   3.220
95695SOL    HW188924   1.389  11.817   3.222
95695SOL    HW288925   1.497  11.869   3.129
95696SOL     OW88926   5.457   2.832  10.851
95696SOL    HW188927   5.422   2.856  10.936
95696SOL    HW288928   5.515   2.905  10.827
95697SOL     OW88929   5.028  12.406  13.317
95697SOL    HW188930   5.087  12.404  13.392
95697SOL    HW288931   5.064  12.473  13.259
95698SOL     OW88932   3.876   5.735   8.511
95698SOL    HW188933   3.830   5.781   8.581
95698SOL    HW288934   3.811   5.675   8.476
95699SOL     OW88935   4.277   7.424   8.314
95699SOL    HW188936   4.348   7.402   8.254
95699SOL    HW288937   4.289   7.364   8.388
95700SOL     OW88938   8.888   9.850   9.345
95700SOL    HW188939   8.915   9.837   9.436
95700SOL    HW288940   8.793   9.845   9.348
95701SOL     OW88941  12.235  10.740  14.314
95701SOL    HW188942  12.320  10.785  14.321
95701SOL    HW288943  12.225  10.723  14.220
95702SOL     OW88944  12.743  10.103  13.068
95702SOL    HW188945  12.693  10.038  13.117
95702SOL    HW288946  12.689  10.124  12.991
95703SOL     OW88947   8.368   9.152   4.805
95703SOL    HW188948   8.460   9.137   4.781
95703SOL    HW288949   8.370   9.160   4.901
95704SOL     OW88950   5.393   2.296   7.305
95704SOL    HW188951   5.400   2.377   7.254
95704SOL    HW288952   5.479   2.288   7.347
95705SOL     OW88953   1.696   3.324  10.776
95705SOL    HW188954   1.635   3.282  10.716
95705SOL    HW288955   1.646   3.394  10.818
95706SOL     OW88956   8.099   7.685   0.114
95706SOL    HW188957   8.113   7.591   0.103
95706SOL    HW288958   8.005   7.693   0.130
95707SOL     OW88959  11.896  11.316   4.422
95707SOL    HW188960  11.882  11.388   4.361
95707SOL    HW288961  11.836  11.248   4.392
95708SOL     OW88962  12.710   4.686   9.238
95708SOL    HW188963  12.676   4.623   9.302
95708SOL    HW288964  12.804   4.686   9.252
95709SOL     OW88965  12.304   3.446  14.581
95709SOL    HW188966  12.380   3.457  14.524
95709SOL    HW288967  12.235   3.412  14.523
95710SOL     OW88968   1.582   1.708  13.064
95710SOL    HW188969   1.582   1.661  12.981
95710SOL    HW288970   1.658   1.766  13.059
95711SOL     OW88971   9.309  14.755   6.514
95711SOL    HW188972   9.344  14.790   6.595
95711SOL    HW288973   9.302  14.830   6.455
95712SOL     OW88974  14.708  12.514   9.780
95712SOL    HW188975  14.702  12.473   9.866
95712SOL    HW288976  14.801  12.534   9.770
95713SOL     OW88977   6.290  12.601  12.446
95713SOL    HW188978   6.233  12.527  12.424
95713SOL    HW288979   6.355  12.564  12.505
95714SOL     OW88980   2.595   1.819  12.476
95714SOL    HW188981   2.515   1.800  12.524
95714SOL    HW288982   2.666   1.789  12.534
95715SOL     OW88983   2.977   3.094   2.910
95715SOL    HW188984   2.919   3.055   2.844
95715SOL    HW288985   2.964   3.040   2.988
95716SOL     OW88986   1.063   9.230  12.252
95716SOL    HW188987   1.139   9.213  12.196
95716SOL    HW288988   0.990   9.237  12.190
95717SOL     OW88989   0.922  14.553  10.135
95717SOL    HW188990   0.848  14.599  10.174
95717SOL    HW288991   0.897  14.541  10.043
95718SOL     OW88992   3.011  10.098   1.244
95718SOL    HW188993   2.939  10.101   1.180
95718SOL    HW288994   3.062  10.177   1.225
95719SOL     OW88995   0.454  10.230   3.665
95719SOL    HW188996   0.506  10.165   3.713
95719SOL    HW288997   0.388  10.179   3.619
95720SOL     OW88998   0.425   2.408   2.259
95720SOL    HW188999   0.518   2.427   2.263
95720SOL    HW289000   0.410   2.348   2.333
95721SOL     OW89001  12.995  10.774   3.247
95721SOL    HW189002  12.910  10.733   3.232
95721SOL    HW289003  12.975  10.849   3.304
95722SOL     OW89004   6.088   3.259  14.033
95722SOL    HW189005   6.104   3.165  14.024
95722SOL    HW289006   6.172   3.295  14.062
95723SOL     OW89007   9.131  11.468  10.745
95723SOL    HW189008   9.138  11.525  10.669
95723SOL    HW289009   9.215  11.422  10.747
95724SOL     OW89010  12.131   1.446   3.186
95724SOL    HW189011  12.152   1.507   3.258
95724SOL    HW289012  12.199   1.378   3.192
95725SOL     OW89013   5.907  13.907   8.694
95725SOL    HW189014   5.989  13.891   8.648
95725SOL    HW289015   5.863  13.974   8.642
95726SOL     OW89016   2.787   7.017   0.841
95726SOL    HW189017   2.707   6.988   0.796
95726SOL    HW289018   2.851   6.948   0.822
95727SOL     OW89019   3.945   8.700   0.867
95727SOL    HW189020   3.960   8.606   0.858
95727SOL    HW289021   4.001   8.740   0.800
95728SOL     OW89022   6.073   2.423   9.359
95728SOL    HW189023   6.016   2.348   9.343
95728SOL    HW289024   6.081   2.426   9.455
95729SOL     OW89025  10.414  12.669   5.019
95729SOL    HW189026  10.319  12.662   5.030
95729SOL    HW289027  10.449  12.594   5.067
95730SOL     OW89028   0.432   8.330   9.238
95730SOL    HW189029   0.517   8.326   9.280
95730SOL    HW289030   0.407   8.238   9.225
95731SOL     OW89031   6.173   3.777   1.218
95731SOL    HW189032   6.190   3.720   1.142
95731SOL    HW289033   6.089   3.819   1.197
95732SOL     OW89034   7.163   7.751   2.128
95732SOL    HW189035   7.185   7.666   2.089
95732SOL    HW289036   7.099   7.788   2.067
95733SOL     OW89037   8.480   4.568   2.806
95733SOL    HW189038   8.452   4.645   2.756
95733SOL    HW289039   8.488   4.499   2.740
95734SOL     OW89040   7.051   2.774   5.381
95734SOL    HW189041   7.098   2.858   5.381
95734SOL    HW289042   7.108   2.715   5.430
95735SOL     OW89043   5.877   8.997   9.283
95735SOL    HW189044   5.829   8.936   9.227
95735SOL    HW289045   5.863   8.964   9.372
95736SOL     OW89046   9.660  10.946   9.841
95736SOL    HW189047   9.660  10.965   9.747
95736SOL    HW289048   9.676  10.852   9.847
95737SOL     OW89049  13.290  10.851  11.112
95737SOL    HW189050  13.363  10.891  11.064
95737SOL    HW289051  13.319  10.848  11.202
95738SOL     OW89052   5.934  14.053   7.960
95738SOL    HW189053   5.996  14.099   8.018
95738SOL    HW289054   5.849  14.095   7.978
95739SOL     OW89055   2.498   4.315  12.975
95739SOL    HW189056   2.488   4.288  13.066
95739SOL    HW289057   2.578   4.368  12.975
95740SOL     OW89058   1.562   3.642   8.060
95740SOL    HW189059   1.495   3.652   7.993
95740SOL    HW289060   1.640   3.683   8.021
95741SOL     OW89061   0.283  14.480   1.692
95741SOL    HW189062   0.324  14.395   1.677
95741SOL    HW289063   0.251  14.475   1.783
95742SOL     OW89064   2.436   6.410  11.431
95742SOL    HW189065   2.454   6.324  11.470
95742SOL    HW289066   2.518   6.433  11.387
95743SOL     OW89067  10.458  13.179   5.626
95743SOL    HW189068  10.373  13.139   5.608
95743SOL    HW289069  10.521  13.107   5.613
95744SOL     OW89070   7.852   4.015   9.816
95744SOL    HW189071   7.921   4.069   9.855
95744SOL    HW289072   7.782   4.077   9.796
95745SOL     OW89073  12.357   4.445  12.106
95745SOL    HW189074  12.345   4.486  12.192
95745SOL    HW289075  12.439   4.482  12.073
95746SOL     OW89076  13.639   1.254   5.662
95746SOL    HW189077  13.632   1.236   5.569
95746SOL    HW289078  13.564   1.309   5.682
95747SOL     OW89079   6.485   1.245   1.991
95747SOL    HW189080   6.402   1.200   1.977
95747SOL    HW289081   6.495   1.301   1.913
95748SOL     OW89082  10.420  14.868   8.206
95748SOL    HW189083  10.329   0.013   8.228
95748SOL    HW289084  10.444  14.798   8.267
95749SOL     OW89085   0.710  13.445   9.348
95749SOL    HW189086   0.730  13.391   9.272
95749SOL    HW289087   0.654  13.514   9.315
95750SOL     OW89088   2.371   4.207  12.479
95750SOL    HW189089   2.440   4.196  12.545
95750SOL    HW289090   2.372   4.300  12.459
95751SOL     OW89091   7.649  11.152   6.635
95751SOL    HW189092   7.598  11.211   6.578
95751SOL    HW289093   7.707  11.106   6.575
95752SOL     OW89094  10.118  10.075   9.828
95752SOL    HW189095  10.176  10.094   9.754
95752SOL    HW289096  10.126   9.980   9.840
95753SOL     OW89097   6.459   2.850   7.755
95753SOL    HW189098   6.410   2.932   7.750
95753SOL    HW289099   6.484   2.844   7.847
95754SOL     OW89100  12.073   7.158  13.400
95754SOL    HW189101  12.087   7.076  13.353
95754SOL    HW289102  12.050   7.221  13.331
95755SOL     OW89103   4.392   1.962   4.841
95755SOL    HW189104   4.441   1.984   4.921
95755SOL    HW289105   4.455   1.917   4.785
95756SOL     OW89106  14.636   3.441   3.173
95756SOL    HW189107  14.645   3.437   3.077
95756SOL    HW289108  14.568   3.377   3.193
95757SOL     OW89109   0.399   6.366   5.079
95757SOL    HW189110   0.447   6.412   5.149
95757SOL    HW289111   0.323   6.422   5.062
95758SOL     OW89112  13.310   5.693  11.778
95758SOL    HW189113  13.291   5.725  11.689
95758SOL    HW289114  13.396   5.731  11.798
95759SOL     OW89115  12.607   4.898   7.261
95759SOL    HW189116  12.515   4.918   7.242
95759SOL    HW289117  12.618   4.921   7.353
95760SOL     OW89118  10.497  11.630   1.222
95760SOL    HW189119  10.576  11.684   1.220
95760SOL    HW289120  10.518  11.558   1.282
95761SOL     OW89121   1.746   2.325   8.547
95761SOL    HW189122   1.791   2.379   8.612
95761SOL    HW289123   1.779   2.236   8.563
95762SOL     OW89124   2.090   7.886  14.840
95762SOL    HW189125   2.008   7.919  14.804
95762SOL    HW289126   2.094   7.795  14.810
95763SOL     OW89127   7.743   1.840  13.548
95763SOL    HW189128   7.784   1.754  13.537
95763SOL    HW289129   7.720   1.867  13.459
95764SOL     OW89130   7.158  13.393   5.471
95764SOL    HW189131   7.200  13.465   5.423
95764SOL    HW289132   7.113  13.342   5.404
95765SOL     OW89133  12.757   2.406  14.362
95765SOL    HW189134  12.779   2.316  14.339
95765SOL    HW289135  12.683   2.398  14.422
95766SOL     OW89136   3.833   8.400   1.507
95766SOL    HW189137   3.908   8.355   1.469
95766SOL    HW289138   3.787   8.437   1.432
95767SOL     OW89139  11.307   0.636   5.221
95767SOL    HW189140  11.284   0.569   5.286
95767SOL    HW289141  11.291   0.719   5.265
95768SOL     OW89142   4.647  14.039   1.104
95768SOL    HW189143   4.565  14.087   1.091
95768SOL    HW289144   4.652  14.025   1.198
95769SOL     OW89145   2.372  13.491  10.864
95769SOL    HW189146   2.284  13.503  10.829
95769SOL    HW289147   2.364  13.416  10.924
95770SOL     OW89148  13.758   2.527   4.066
95770SOL    HW189149  13.838   2.535   4.014
95770SOL    HW289150  13.688   2.527   4.002
95771SOL     OW89151  10.598  11.662   4.871
95771SOL    HW189152  10.632  11.581   4.910
95771SOL    HW289153  10.519  11.681   4.920
95772SOL     OW89154   5.359   3.386  12.829
95772SOL    HW189155   5.417   3.430  12.891
95772SOL    HW289156   5.346   3.299  12.866
95773SOL     OW89157   9.288   9.701  10.346
95773SOL    HW189158   9.207   9.661  10.379
95773SOL    HW289159   9.264   9.792  10.330
95774SOL     OW89160   8.192  12.910   1.192
95774SOL    HW189161   8.103  12.942   1.206
95774SOL    HW289162   8.199  12.901   1.097
95775SOL     OW89163  14.549  10.499  10.445
95775SOL    HW189164  14.467  10.490  10.396
95775SOL    HW289165  14.613  10.527  10.379
95776SOL     OW89166   9.199   5.001   2.405
95776SOL    HW189167   9.124   5.023   2.461
95776SOL    HW289168   9.240   5.085   2.386
95777SOL     OW89169  10.763   6.897  10.802
95777SOL    HW189170  10.750   6.874  10.711
95777SOL    HW289171  10.741   6.990  10.807
95778SOL     OW89172   6.829   0.358   9.524
95778SOL    HW189173   6.792   0.311   9.599
95778SOL    HW289174   6.753   0.378   9.469
95779SOL     OW89175  12.733   9.665  11.708
95779SOL    HW189176  12.808   9.677  11.767
95779SOL    HW289177  12.672   9.734  11.732
95780SOL     OW89178   1.894   9.277   4.952
95780SOL    HW189179   1.974   9.327   4.937
95780SOL    HW289180   1.847   9.327   5.019
95781SOL     OW89181   7.947   8.522   1.540
95781SOL    HW189182   7.896   8.561   1.469
95781SOL    HW289183   7.886   8.461   1.583
95782SOL     OW89184   2.790   2.667   4.248
95782SOL    HW189185   2.714   2.722   4.230
95782SOL    HW289186   2.761   2.578   4.228
95783SOL     OW89187  11.405  12.263   5.755
95783SOL    HW189188  11.488  12.219   5.770
95783SOL    HW289189  11.369  12.221   5.676
95784SOL     OW89190   4.691   4.699  12.905
95784SOL    HW189191   4.629   4.740  12.966
95784SOL    HW289192   4.735   4.632  12.956
95785SOL     OW89193   9.055   3.520  13.461
95785SOL    HW189194   9.042   3.452  13.394
95785SOL    HW289195   9.091   3.473  13.536
95786SOL     OW89196   6.564   8.756   3.876
95786SOL    HW189197   6.636   8.745   3.937
95786SOL    HW289198   6.514   8.830   3.910
95787SOL     OW89199   0.205   6.970   5.273
95787SOL    HW189200   0.247   6.975   5.187
95787SOL    HW289201   0.119   6.931   5.256
95788SOL     OW89202   1.809   0.424   2.809
95788SOL    HW189203   1.795   0.374   2.889
95788SOL    HW289204   1.859   0.365   2.752
95789SOL     OW89205  11.473  10.539   9.559
95789SOL    HW189206  11.492  10.588   9.479
95789SOL    HW289207  11.433  10.458   9.528
95790SOL     OW89208   6.899   6.623   1.536
95790SOL    HW189209   6.979   6.674   1.524
95790SOL    HW289210   6.918   6.538   1.497
95791SOL     OW89211   8.226  13.591   6.193
95791SOL    HW189212   8.155  13.527   6.185
95791SOL    HW289213   8.215  13.649   6.118
95792SOL     OW89214   3.866  13.082   9.842
95792SOL    HW189215   3.954  13.113   9.820
95792SOL    HW289216   3.850  13.011   9.780
95793SOL     OW89217   7.222  14.662   6.706
95793SOL    HW189218   7.172  14.675   6.626
95793SOL    HW289219   7.262  14.748   6.723
95794SOL     OW89220  12.354  12.639  14.239
95794SOL    HW189221  12.369  12.728  14.271
95794SOL    HW289222  12.375  12.643  14.146
95795SOL     OW89223   6.785   1.333   7.788
95795SOL    HW189224   6.739   1.416   7.794
95795SOL    HW289225   6.739   1.285   7.719
95796SOL     OW89226  12.063   6.641   0.595
95796SOL    HW189227  12.001   6.584   0.549
95796SOL    HW289228  12.013   6.721   0.612
95797SOL     OW89229   2.448   8.511   1.613
95797SOL    HW189230   2.425   8.604   1.620
95797SOL    HW289231   2.445   8.479   1.703
95798SOL     OW89232   0.758   1.261   6.772
95798SOL    HW189233   0.699   1.189   6.752
95798SOL    HW289234   0.755   1.270   6.867
95799SOL     OW89235   4.696   0.212  13.132
95799SOL    HW189236   4.655   0.280  13.186
95799SOL    HW289237   4.653   0.131  13.157
95800SOL     OW89238  11.354   5.960   9.695
95800SOL    HW189239  11.292   5.923   9.758
95800SOL    HW289240  11.339   6.054   9.698
95801SOL     OW89241  14.523   1.590  11.882
95801SOL    HW189242  14.576   1.528  11.932
95801SOL    HW289243  14.505   1.546  11.799
95802SOL     OW89244   9.888  10.780   1.782
95802SOL    HW189245   9.847  10.694   1.779
95802SOL    HW289246   9.923  10.787   1.872
95803SOL     OW89247   0.860   9.430   1.193
95803SOL    HW189248   0.903   9.498   1.141
95803SOL    HW289249   0.809   9.380   1.129
95804SOL     OW89250   5.014   1.978  13.417
95804SOL    HW189251   5.036   1.897  13.372
95804SOL    HW289252   4.919   1.976  13.425
95805SOL     OW89253   6.755   8.655   9.910
95805SOL    HW189254   6.706   8.672   9.829
95805SOL    HW289255   6.777   8.742   9.943
95806SOL     OW89256   9.069  11.924   6.315
95806SOL    HW189257   8.987  11.941   6.361
95806SOL    HW289258   9.069  11.985   6.241
95807SOL     OW89259   6.560   1.958  12.306
95807SOL    HW189260   6.594   1.977  12.218
95807SOL    HW289261   6.544   1.863  12.306
95808SOL     OW89262   8.703  11.882  13.640
95808SOL    HW189263   8.640  11.953  13.633
95808SOL    HW289264   8.788  11.924  13.625
95809SOL     OW89265   5.725   3.505  11.044
95809SOL    HW189266   5.735   3.550  10.960
95809SOL    HW289267   5.644   3.540  11.081
95810SOL     OW89268   2.746   5.067   0.346
95810SOL    HW189269   2.746   5.134   0.415
95810SOL    HW289270   2.839   5.055   0.325
95811SOL     OW89271   6.150   3.412   2.689
95811SOL    HW189272   6.109   3.384   2.771
95811SOL    HW289273   6.079   3.454   2.640
95812SOL     OW89274   9.776  11.851   0.363
95812SOL    HW189275   9.839  11.806   0.419
95812SOL    HW289276   9.690  11.826   0.397
95813SOL     OW89277   6.681  12.971   5.610
95813SOL    HW189278   6.630  13.014   5.678
95813SOL    HW289279   6.671  12.877   5.629
95814SOL     OW89280  12.588   8.602   4.125
95814SOL    HW189281  12.624   8.630   4.041
95814SOL    HW289282  12.660   8.556   4.168
95815SOL     OW89283   0.062   8.945   0.720
95815SOL    HW189284   0.142   8.997   0.718
95815SOL    HW289285   0.091   8.857   0.745
95816SOL     OW89286   6.037  12.270   0.921
95816SOL    HW189287   5.999  12.280   1.008
95816SOL    HW289288   5.997  12.341   0.870
95817SOL     OW89289   6.012  11.398   7.566
95817SOL    HW189290   6.065  11.341   7.622
95817SOL    HW289291   6.076  11.450   7.518
95818SOL     OW89292  13.814   4.325  10.038
95818SOL    HW189293  13.722   4.345  10.024
95818SOL    HW289294  13.818   4.293  10.129
95819SOL     OW89295   6.655  10.228   7.672
95819SOL    HW189296   6.602  10.283   7.730
95819SOL    HW289297   6.623  10.139   7.688
95820SOL     OW89298   2.163   8.143  11.323
95820SOL    HW189299   2.117   8.138  11.407
95820SOL    HW289300   2.183   8.236  11.312
95821SOL     OW89301  14.801   8.774   7.876
95821SOL    HW189302  14.805   8.704   7.941
95821SOL    HW289303  14.834   8.851   7.922
95822SOL     OW89304   9.863   3.613   9.320
95822SOL    HW189305   9.875   3.675   9.392
95822SOL    HW289306   9.950   3.577   9.305
95823SOL     OW89307  12.251   6.639  13.131
95823SOL    HW189308  12.327   6.635  13.189
95823SOL    HW289309  12.256   6.725  13.089
95824SOL     OW89310   6.714   8.786  11.843
95824SOL    HW189311   6.750   8.854  11.786
95824SOL    HW289312   6.696   8.832  11.926
95825SOL     OW89313   4.403  10.515   6.399
95825SOL    HW189314   4.347  10.515   6.321
95825SOL    HW289315   4.346  10.482   6.468
95826SOL     OW89316  14.670   1.877   7.946
95826SOL    HW189317  14.627   1.927   7.877
95826SOL    HW289318  14.621   1.900   8.025
95827SOL     OW89319  13.754  10.102   4.806
95827SOL    HW189320  13.776  10.010   4.791
95827SOL    HW289321  13.708  10.103   4.890
95828SOL     OW89322   2.135   4.343   4.620
95828SOL    HW189323   2.204   4.409   4.609
95828SOL    HW289324   2.078   4.354   4.544
95829SOL     OW89325   7.706   0.971   4.654
95829SOL    HW189326   7.748   0.891   4.622
95829SOL    HW289327   7.620   0.971   4.612
95830SOL     OW89328  12.638  13.597   7.976
95830SOL    HW189329  12.678  13.673   8.019
95830SOL    HW289330  12.545  13.603   7.998
95831SOL     OW89331  10.881   0.539  13.214
95831SOL    HW189332  10.941   0.484  13.265
95831SOL    HW289333  10.924   0.548  13.128
95832SOL     OW89334  11.599   0.014  13.500
95832SOL    HW189335  11.691   0.028  13.524
95832SOL    HW289336  11.552   0.016  13.583
95833SOL     OW89337   9.159   7.823   4.790
95833SOL    HW189338   9.218   7.887   4.830
95833SOL    HW289339   9.143   7.759   4.859
95834SOL     OW89340  14.799  12.424   3.750
95834SOL    HW189341  14.776  12.508   3.790
95834SOL    HW289342  14.815  12.445   3.658
95835SOL     OW89343   4.922   6.729   5.597
95835SOL    HW189344   4.846   6.782   5.572
95835SOL    HW289345   4.901   6.641   5.564
95836SOL     OW89346  12.120  13.168   3.548
95836SOL    HW189347  12.080  13.239   3.599
95836SOL    HW289348  12.125  13.095   3.610
95837SOL     OW89349  10.616   7.662   2.608
95837SOL    HW189350  10.683   7.729   2.596
95837SOL    HW289351  10.608   7.620   2.523
95838SOL     OW89352   9.309   7.922   2.360
95838SOL    HW189353   9.228   7.938   2.409
95838SOL    HW289354   9.297   7.971   2.279
95839SOL     OW89355   9.724   6.808  10.183
95839SOL    HW189356   9.713   6.876  10.117
95839SOL    HW289357   9.701   6.850  10.266
95840SOL     OW89358  14.438   3.798  14.541
95840SOL    HW189359  14.385   3.876  14.554
95840SOL    HW289360  14.507   3.804  14.607
95841SOL     OW89361   4.369   3.311   6.440
95841SOL    HW189362   4.278   3.291   6.463
95841SOL    HW289363   4.371   3.406   6.427
95842SOL     OW89364   8.166   8.346   4.232
95842SOL    HW189365   8.195   8.418   4.176
95842SOL    HW289366   8.113   8.291   4.175
95843SOL     OW89367   1.029   1.479  13.827
95843SOL    HW189368   1.044   1.399  13.777
95843SOL    HW289369   1.110   1.492  13.876
95844SOL     OW89370  13.495   7.396   7.619
95844SOL    HW189371  13.544   7.344   7.682
95844SOL    HW289372  13.557   7.411   7.547
95845SOL     OW89373   1.486  10.882   0.131
95845SOL    HW189374   1.391  10.876   0.117
95845SOL    HW289375   1.524  10.837   0.056
95846SOL     OW89376   6.164   6.425  12.501
95846SOL    HW189377   6.073   6.431  12.475
95846SOL    HW289378   6.173   6.488  12.573
95847SOL     OW89379  13.900  14.697  12.836
95847SOL    HW189380  13.865  14.740  12.914
95847SOL    HW289381  13.831  14.705  12.770
95848SOL     OW89382   6.217  10.846  13.527
95848SOL    HW189383   6.279  10.887  13.588
95848SOL    HW289384   6.271  10.796  13.467
95849SOL     OW89385  13.487   4.996  14.849
95849SOL    HW189386  13.480   4.927   0.039
95849SOL    HW289387  13.409   4.985  14.795
95850SOL     OW89388  12.518  14.232   5.134
95850SOL    HW189389  12.580  14.302   5.117
95850SOL    HW289390  12.571  14.160   5.167
95851SOL     OW89391   4.110   2.600  13.396
95851SOL    HW189392   4.082   2.670  13.455
95851SOL    HW289393   4.031   2.575  13.348
95852SOL     OW89394   4.367   5.279  12.176
95852SOL    HW189395   4.392   5.324  12.256
95852SOL    HW289396   4.399   5.336  12.105
95853SOL     OW89397   7.387  12.834  12.202
95853SOL    HW189398   7.415  12.815  12.292
95853SOL    HW289399   7.436  12.913  12.179
95854SOL     OW89400   3.911  10.450   6.290
95854SOL    HW189401   3.933  10.378   6.349
95854SOL    HW289402   3.985  10.457   6.231
95855SOL     OW89403   6.347   2.734   5.769
95855SOL    HW189404   6.289   2.657   5.775
95855SOL    HW289405   6.399   2.730   5.849
95856SOL     OW89406  13.742   6.111   1.030
95856SOL    HW189407  13.725   6.025   0.990
95856SOL    HW289408  13.703   6.174   0.969
95857SOL     OW89409   3.383   9.801  12.229
95857SOL    HW189410   3.404   9.714  12.197
95857SOL    HW289411   3.331   9.840  12.159
95858SOL     OW89412   4.384  13.018   6.763
95858SOL    HW189413   4.472  13.052   6.774
95858SOL    HW289414   4.329  13.096   6.752
95859SOL     OW89415   5.132   1.379   9.127
95859SOL    HW189416   5.169   1.461   9.094
95859SOL    HW289417   5.182   1.361   9.207
95860SOL     OW89418   4.899   8.828  10.615
95860SOL    HW189419   4.993   8.818  10.604
95860SOL    HW289420   4.877   8.907  10.566
95861SOL     OW89421   4.091   0.712  10.947
95861SOL    HW189422   4.075   0.623  10.917
95861SOL    HW289423   4.112   0.703  11.040
95862SOL     OW89424   3.935   8.368  14.463
95862SOL    HW189425   3.866   8.413  14.512
95862SOL    HW289426   3.889   8.302  14.411
95863SOL     OW89427   3.988   8.311  11.908
95863SOL    HW189428   4.005   8.250  11.980
95863SOL    HW289429   3.928   8.264  11.850
95864SOL     OW89430  10.284   7.010   8.140
95864SOL    HW189431  10.273   6.984   8.048
95864SOL    HW289432  10.303   7.103   8.137
95865SOL     OW89433   8.901   4.175   1.990
95865SOL    HW189434   8.959   4.138   2.057
95865SOL    HW289435   8.918   4.270   1.994
95866SOL     OW89436  13.134  14.799   9.406
95866SOL    HW189437  13.210  14.741   9.410
95866SOL    HW289438  13.075  14.767   9.475
95867SOL     OW89439   0.289  14.382   1.402
95867SOL    HW189440   0.275  14.413   1.491
95867SOL    HW289441   0.209  14.407   1.355
95868SOL     OW89442   6.060   2.145   7.758
95868SOL    HW189443   6.088   2.057   7.784
95868SOL    HW289444   6.011   2.131   7.677
95869SOL     OW89445  12.522   4.543   6.338
95869SOL    HW189446  12.569   4.540   6.422
95869SOL    HW289447  12.454   4.609   6.351
95870SOL     OW89448   7.121  13.037   7.792
95870SOL    HW189449   7.199  13.001   7.836
95870SOL    HW289450   7.092  12.968   7.733
95871SOL     OW89451   1.517  10.715   0.373
95871SOL    HW189452   1.577  10.646   0.345
95871SOL    HW289453   1.515  10.776   0.299
95872SOL     OW89454   4.472   6.388   9.488
95872SOL    HW189455   4.544   6.384   9.552
95872SOL    HW289456   4.474   6.478   9.456
95873SOL     OW89457  14.293   5.142  11.809
95873SOL    HW189458  14.349   5.177  11.877
95873SOL    HW289459  14.219   5.203  11.804
95874SOL     OW89460  10.405   5.383   2.396
95874SOL    HW189461  10.332   5.337   2.439
95874SOL    HW289462  10.431   5.450   2.458
95875SOL     OW89463   8.417   1.253   0.927
95875SOL    HW189464   8.418   1.189   0.856
95875SOL    HW289465   8.330   1.244   0.967
95876SOL     OW89466   8.597  12.560  12.393
95876SOL    HW189467   8.587  12.653  12.417
95876SOL    HW289468   8.664  12.560  12.324
95877SOL     OW89469   8.579   2.301   7.977
95877SOL    HW189470   8.593   2.236   7.907
95877SOL    HW289471   8.494   2.278   8.014
95878SOL     OW89472   0.078   5.733   0.625
95878SOL    HW189473  14.872   5.778   0.604
95878SOL    HW289474   0.061   5.641   0.603
95879SOL     OW89475   8.732   4.182  10.184
95879SOL    HW189476   8.759   4.090  10.195
95879SOL    HW289477   8.637   4.180  10.196
95880SOL     OW89478   4.183  11.312   6.561
95880SOL    HW189479   4.140  11.229   6.539
95880SOL    HW289480   4.227  11.338   6.481
95881SOL     OW89481   9.065   7.554   3.984
95881SOL    HW189482   9.086   7.642   4.017
95881SOL    HW289483   9.056   7.500   4.063
95882SOL     OW89484   9.850   8.781   1.934
95882SOL    HW189485   9.761   8.747   1.928
95882SOL    HW289486   9.873   8.770   2.027
95883SOL     OW89487   7.612   5.688   9.276
95883SOL    HW189488   7.686   5.698   9.216
95883SOL    HW289489   7.535   5.692   9.219
95884SOL     OW89490   9.545   8.470   5.649
95884SOL    HW189491   9.523   8.396   5.592
95884SOL    HW289492   9.617   8.437   5.703
95885SOL     OW89493   8.639   6.238   5.525
95885SOL    HW189494   8.587   6.295   5.582
95885SOL    HW289495   8.576   6.206   5.460
95886SOL     OW89496  12.216   5.100   0.432
95886SOL    HW189497  12.225   5.158   0.357
95886SOL    HW289498  12.125   5.112   0.462
95887SOL     OW89499   8.436  11.756   6.195
95887SOL    HW189500   8.509  11.734   6.253
95887SOL    HW289501   8.455  11.845   6.165
95888SOL     OW89502   2.678   0.939   7.367
95888SOL    HW189503   2.630   1.021   7.352
95888SOL    HW289504   2.752   0.964   7.421
95889SOL     OW89505  12.198  12.997  12.450
95889SOL    HW189506  12.120  12.996  12.393
95889SOL    HW289507  12.189  13.077  12.502
95890SOL     OW89508   4.122   4.178   5.245
95890SOL    HW189509   4.164   4.251   5.199
95890SOL    HW289510   4.031   4.181   5.218
95891SOL     OW89511   4.829   9.609   9.517
95891SOL    HW189512   4.913   9.630   9.476
95891SOL    HW289513   4.841   9.521   9.554
95892SOL     OW89514   7.602   0.400   9.536
95892SOL    HW189515   7.568   0.461   9.601
95892SOL    HW289516   7.535   0.332   9.530
95893SOL     OW89517   1.287  14.546  13.378
95893SOL    HW189518   1.330  14.613  13.431
95893SOL    HW289519   1.214  14.516  13.431
95894SOL     OW89520  12.705   5.474   8.384
95894SOL    HW189521  12.632   5.457   8.444
95894SOL    HW289522  12.712   5.396   8.330
95895SOL     OW89523  11.245  11.221   4.188
95895SOL    HW189524  11.251  11.167   4.267
95895SOL    HW289525  11.326  11.204   4.141
95896SOL     OW89526  14.342   6.216   6.592
95896SOL    HW189527  14.250   6.218   6.619
95896SOL    HW289528  14.392   6.227   6.673
95897SOL     OW89529  11.180   6.330   7.528
95897SOL    HW189530  11.210   6.386   7.456
95897SOL    HW289531  11.183   6.386   7.605
95898SOL     OW89532  13.017   3.354  13.835
95898SOL    HW189533  13.071   3.387  13.907
95898SOL    HW289534  12.941   3.315  13.879
95899SOL     OW89535  11.512   6.033  14.781
95899SOL    HW189536  11.444   6.097  14.762
95899SOL    HW289537  11.582   6.052  14.719
95900SOL     OW89538   7.157   8.979   7.439
95900SOL    HW189539   7.243   8.942   7.460
95900SOL    HW289540   7.113   8.987   7.524
95901SOL     OW89541   3.870   1.750   3.858
95901SOL    HW189542   3.890   1.660   3.831
95901SOL    HW289543   3.950   1.779   3.903
95902SOL     OW89544  14.162   8.887   7.871
95902SOL    HW189545  14.102   8.954   7.903
95902SOL    HW289546  14.124   8.804   7.900
95903SOL     OW89547   0.329  12.600   2.542
95903SOL    HW189548   0.416  12.568   2.564
95903SOL    HW289549   0.301  12.545   2.469
95904SOL     OW89550   4.753   0.110   3.538
95904SOL    HW189551   4.702   0.185   3.569
95904SOL    HW289552   4.843   0.142   3.536
95905SOL     OW89553   5.396   3.497  14.006
95905SOL    HW189554   5.410   3.423  13.946
95905SOL    HW289555   5.473   3.495  14.063
95906SOL     OW89556  11.775   4.266  13.682
95906SOL    HW189557  11.757   4.175  13.707
95906SOL    HW289558  11.849   4.261  13.622
95907SOL     OW89559   8.706  12.220   5.070
95907SOL    HW189560   8.798  12.226   5.093
95907SOL    HW289561   8.701  12.256   4.981
95908SOL     OW89562   1.572   4.347   2.316
95908SOL    HW189563   1.615   4.414   2.264
95908SOL    HW289564   1.480   4.348   2.288
95909SOL     OW89565   2.893   8.259  11.404
95909SOL    HW189566   2.807   8.263  11.447
95909SOL    HW289567   2.884   8.314  11.327
95910SOL     OW89568   7.951   6.898   2.157
95910SOL    HW189569   7.934   6.948   2.237
95910SOL    HW289570   7.917   6.810   2.176
95911SOL     OW89571  14.807   1.602  13.756
95911SOL    HW189572  14.858   1.522  13.767
95911SOL    HW289573  14.865   1.661  13.708
95912SOL     OW89574   1.872   6.044   1.040
95912SOL    HW189575   1.915   6.129   1.053
95912SOL    HW289576   1.784   6.055   1.077
95913SOL     OW89577   9.815   6.575  13.085
95913SOL    HW189578   9.761   6.601  13.160
95913SOL    HW289579   9.896   6.626  13.096
95914SOL     OW89580   6.311   2.108  12.889
95914SOL    HW189581   6.341   2.164  12.960
95914SOL    HW289582   6.238   2.155  12.850
95915SOL     OW89583  10.445   2.991  11.695
95915SOL    HW189584  10.419   3.001  11.786
95915SOL    HW289585  10.373   2.942  11.654
95916SOL     OW89586   2.517   1.324   8.684
95916SOL    HW189587   2.448   1.328   8.751
95916SOL    HW289588   2.586   1.381   8.717
95917SOL     OW89589   8.586   8.334   9.931
95917SOL    HW189590   8.494   8.349   9.907
95917SOL    HW289591   8.598   8.239   9.921
95918SOL     OW89592  10.418   7.216   5.055
95918SOL    HW189593  10.483   7.177   5.113
95918SOL    HW289594  10.468   7.271   4.995
95919SOL     OW89595   7.121  13.275  12.127
95919SOL    HW189596   7.033  13.308  12.107
95919SOL    HW289597   7.158  13.251  12.042
95920SOL     OW89598  10.005   0.610  10.659
95920SOL    HW189599   9.942   0.664  10.611
95920SOL    HW289600   9.952   0.540  10.697
95921SOL     OW89601   2.210   9.529   6.115
95921SOL    HW189602   2.259   9.599   6.159
95921SOL    HW289603   2.241   9.530   6.025
95922SOL     OW89604   7.928   0.758  10.817
95922SOL    HW189605   8.013   0.755  10.774
95922SOL    HW289606   7.928   0.841  10.865
95923SOL     OW89607   6.546  12.190   5.924
95923SOL    HW189608   6.458  12.227   5.913
95923SOL    HW289609   6.604  12.263   5.902
95924SOL     OW89610  14.591  12.267  12.231
95924SOL    HW189611  14.666  12.323  12.250
95924SOL    HW289612  14.543  12.263  12.314
95925SOL     OW89613   4.088   1.650   5.908
95925SOL    HW189614   4.056   1.740   5.902
95925SOL    HW289615   4.090   1.619   5.817
95926SOL     OW89616   2.674   8.126  13.155
95926SOL    HW189617   2.601   8.064  13.150
95926SOL    HW289618   2.704   8.135  13.065
95927SOL     OW89619   9.113  11.397  12.817
95927SOL    HW189620   9.089  11.401  12.724
95927SOL    HW289621   9.207  11.380  12.817
95928SOL     OW89622   2.361   5.719   2.549
95928SOL    HW189623   2.346   5.781   2.478
95928SOL    HW289624   2.341   5.634   2.511
95929SOL     OW89625   4.164   2.713  14.116
95929SOL    HW189626   4.235   2.768  14.150
95929SOL    HW289627   4.135   2.758  14.036
95930SOL     OW89628   9.474   0.380   6.817
95930SOL    HW189629   9.391   0.336   6.799
95930SOL    HW289630   9.496   0.423   6.734
95931SOL     OW89631  13.272   7.901   6.479
95931SOL    HW189632  13.293   7.903   6.572
95931SOL    HW289633  13.355   7.880   6.436
95932SOL     OW89634  14.270  12.686  10.127
95932SOL    HW189635  14.365  12.686  10.137
95932SOL    HW289636  14.237  12.726  10.208
95933SOL     OW89637  10.735   7.236  14.466
95933SOL    HW189638  10.724   7.141  14.477
95933SOL    HW289639  10.773   7.247  14.379
95934SOL     OW89640   5.187  14.062  11.232
95934SOL    HW189641   5.172  14.097  11.320
95934SOL    HW289642   5.263  14.110  11.200
95935SOL     OW89643   2.865   5.816   5.250
95935SOL    HW189644   2.940   5.791   5.195
95935SOL    HW289645   2.901   5.878   5.313
95936SOL     OW89646   8.752   0.407   3.933
95936SOL    HW189647   8.680   0.358   3.971
95936SOL    HW289648   8.763   0.370   3.845
95937SOL     OW89649   4.527   9.264   6.237
95937SOL    HW189650   4.497   9.316   6.162
95937SOL    HW289651   4.541   9.328   6.307
95938SOL     OW89652   2.415   1.936  10.986
95938SOL    HW189653   2.446   1.889  11.063
95938SOL    HW289654   2.471   2.013  10.980
95939SOL     OW89655   8.534   1.866   0.397
95939SOL    HW189656   8.500   1.929   0.460
95939SOL    HW289657   8.509   1.901   0.311
95940SOL     OW89658   8.138   6.216   0.884
95940SOL    HW189659   8.166   6.244   0.971
95940SOL    HW289660   8.065   6.274   0.862
95941SOL     OW89661  10.004  10.916   6.362
95941SOL    HW189662  10.055  10.913   6.443
95941SOL    HW289663  10.003  10.825   6.331
95942SOL     OW89664   2.386   3.802   4.379
95942SOL    HW189665   2.428   3.799   4.293
95942SOL    HW289666   2.424   3.879   4.421
95943SOL     OW89667   8.591   0.149   5.604
95943SOL    HW189668   8.514   0.207   5.606
95943SOL    HW289669   8.646   0.180   5.676
95944SOL     OW89670   4.484  10.872   9.977
95944SOL    HW189671   4.473  10.899   9.886
95944SOL    HW289672   4.577  10.853   9.986
95945SOL     OW89673   3.917  14.869  11.741
95945SOL    HW189674   3.866  14.845  11.818
95945SOL    HW289675   3.989   0.047  11.776
95946SOL     OW89676  12.742  10.260   6.957
95946SOL    HW189677  12.779  10.297   6.877
95946SOL    HW289678  12.647  10.268   6.946
95947SOL     OW89679   0.412   1.140   6.612
95947SOL    HW189680   0.457   1.151   6.696
95947SOL    HW289681   0.453   1.205   6.554
95948SOL     OW89682  12.853   8.258   4.255
95948SOL    HW189683  12.939   8.295   4.232
95948SOL    HW289684  12.862   8.234   4.347
95949SOL     OW89685   4.500  14.507   6.786
95949SOL    HW189686   4.586  14.488   6.823
95949SOL    HW289687   4.501  14.468   6.699
95950SOL     OW89688  14.249   2.175   3.097
95950SOL    HW189689  14.303   2.128   3.161
95950SOL    HW289690  14.261   2.128   3.015
95951SOL     OW89691   2.304   2.356   1.459
95951SOL    HW189692   2.334   2.399   1.379
95951SOL    HW289693   2.294   2.264   1.434
95952SOL     OW89694   0.206   0.064   3.937
95952SOL    HW189695   0.226   0.069   4.031
95952SOL    HW289696   0.202   0.155   3.908
95953SOL     OW89697   9.728   0.427   0.654
95953SOL    HW189698   9.819   0.452   0.670
95953SOL    HW289699   9.676   0.498   0.691
95954SOL     OW89700   6.506   6.651   8.958
95954SOL    HW189701   6.500   6.571   8.905
95954SOL    HW289702   6.478   6.624   9.045
95955SOL     OW89703  10.837   9.722   2.775
95955SOL    HW189704  10.872   9.672   2.702
95955SOL    HW289705  10.761   9.768   2.738
95956SOL     OW89706   6.656   9.828   5.683
95956SOL    HW189707   6.562   9.810   5.692
95956SOL    HW289708   6.696   9.743   5.667
95957SOL     OW89709   5.520  13.048   4.786
95957SOL    HW189710   5.467  13.088   4.855
95957SOL    HW289711   5.597  13.015   4.830
95958SOL     OW89712  10.697   9.647   6.344
95958SOL    HW189713  10.700   9.572   6.285
95958SOL    HW289714  10.614   9.638   6.390
95959SOL     OW89715  12.465   0.245   1.737
95959SOL    HW189716  12.416   0.208   1.810
95959SOL    HW289717  12.438   0.336   1.733
95960SOL     OW89718   0.824   2.977  11.888
95960SOL    HW189719   0.918   2.991  11.903
95960SOL    HW289720   0.797   3.053  11.837
95961SOL     OW89721  12.579   6.408   6.974
95961SOL    HW189722  12.631   6.329   6.956
95961SOL    HW289723  12.544   6.395   7.062
95962SOL     OW89724   0.267  12.021  12.473
95962SOL    HW189725   0.310  12.076  12.408
95962SOL    HW289726   0.208  11.965  12.423
95963SOL     OW89727   5.707   0.978   1.437
95963SOL    HW189728   5.710   1.048   1.372
95963SOL    HW289729   5.771   1.005   1.504
95964SOL     OW89730   3.029   7.681   6.826
95964SOL    HW189731   2.990   7.610   6.877
95964SOL    HW289732   3.058   7.639   6.745
95965SOL     OW89733   3.682  10.902  11.622
95965SOL    HW189734   3.732  10.854  11.556
95965SOL    HW289735   3.618  10.839  11.655
95966SOL     OW89736   1.076  11.664   4.358
95966SOL    HW189737   1.003  11.625   4.310
95966SOL    HW289738   1.077  11.755   4.330
95967SOL     OW89739   0.341   9.672  12.967
95967SOL    HW189740   0.270   9.668  12.903
95967SOL    HW289741   0.370   9.581  12.976
95968SOL     OW89742   8.054   3.665   5.871
95968SOL    HW189743   7.992   3.613   5.921
95968SOL    HW289744   8.039   3.755   5.901
95969SOL     OW89745   3.295  11.412   4.578
95969SOL    HW189746   3.315  11.328   4.619
95969SOL    HW289747   3.371  11.467   4.598
95970SOL     OW89748  11.356   0.544   7.427
95970SOL    HW189749  11.299   0.496   7.487
95970SOL    HW289750  11.314   0.630   7.419
95971SOL     OW89751  13.894   1.772   6.404
95971SOL    HW189752  13.869   1.684   6.432
95971SOL    HW289753  13.880   1.772   6.310
95972SOL     OW89754  11.342  13.172   0.687
95972SOL    HW189755  11.354  13.193   0.594
95972SOL    HW289756  11.252  13.139   0.692
95973SOL     OW89757   4.108   4.280  14.287
95973SOL    HW189758   4.047   4.210  14.262
95973SOL    HW289759   4.194   4.240  14.279
95974SOL     OW89760   8.817  11.051   0.281
95974SOL    HW189761   8.763  11.089   0.211
95974SOL    HW289762   8.899  11.029   0.238
95975SOL     OW89763   3.155   7.346   8.038
95975SOL    HW189764   3.221   7.277   8.035
95975SOL    HW289765   3.150   7.371   8.130
95976SOL     OW89766   4.388  12.899  11.145
95976SOL    HW189767   4.404  12.919  11.053
95976SOL    HW289768   4.475  12.879  11.181
95977SOL     OW89769  14.660   7.836   4.105
95977SOL    HW189770  14.583   7.886   4.077
95977SOL    HW289771  14.730   7.901   4.111
95978SOL     OW89772  14.169  10.295   3.048
95978SOL    HW189773  14.127  10.222   3.094
95978SOL    HW289774  14.128  10.294   2.961
95979SOL     OW89775   8.290   8.606  14.395
95979SOL    HW189776   8.209   8.635  14.438
95979SOL    HW289777   8.358   8.620  14.461
95980SOL     OW89778  13.143   7.523   0.859
95980SOL    HW189779  13.207   7.554   0.923
95980SOL    HW289780  13.173   7.559   0.776
95981SOL     OW89781   7.393  13.057   6.647
95981SOL    HW189782   7.341  13.096   6.718
95981SOL    HW289783   7.462  13.008   6.692
95982SOL     OW89784   4.355  11.627  12.890
95982SOL    HW189785   4.291  11.647  12.822
95982SOL    HW289786   4.412  11.561  12.851
95983SOL     OW89787   7.424  12.038   1.560
95983SOL    HW189788   7.477  12.117   1.551
95983SOL    HW289789   7.336  12.065   1.535
95984SOL     OW89790   1.082  10.693  12.640
95984SOL    HW189791   1.002  10.685  12.692
95984SOL    HW289792   1.083  10.784  12.611
95985SOL     OW89793   1.314   1.199   7.740
95985SOL    HW189794   1.303   1.189   7.835
95985SOL    HW289795   1.408   1.214   7.728
95986SOL     OW89796   1.985  14.296  12.214
95986SOL    HW189797   1.916  14.362  12.203
95986SOL    HW289798   1.946  14.232  12.274
95987SOL     OW89799   7.091  10.201   6.767
95987SOL    HW189800   7.031  10.209   6.841
95987SOL    HW289801   7.178  10.215   6.806
95988SOL     OW89802   9.647  12.756   7.476
95988SOL    HW189803   9.719  12.799   7.523
95988SOL    HW289804   9.587  12.827   7.454
95989SOL     OW89805  14.823  11.104   0.942
95989SOL    HW189806  14.851  11.120   1.033
95989SOL    HW289807  14.851  11.182   0.895
95990SOL     OW89808   0.495   6.787   0.241
95990SOL    HW189809   0.551   6.767   0.315
95990SOL    HW289810   0.554   6.793   0.166
95991SOL     OW89811   4.423   4.072   9.649
95991SOL    HW189812   4.480   4.066   9.571
95991SOL    HW289813   4.465   4.138   9.704
95992SOL     OW89814   9.304   5.443   6.094
95992SOL    HW189815   9.234   5.391   6.056
95992SOL    HW289816   9.318   5.514   6.031
95993SOL     OW89817   0.019   5.964  14.732
95993SOL    HW189818  14.837   5.908  14.682
95993SOL    HW289819   0.002   5.941  14.823
95994SOL     OW89820  12.521   1.587   7.773
95994SOL    HW189821  12.435   1.626   7.788
95994SOL    HW289822  12.512   1.538   7.691
95995SOL     OW89823   2.743   5.152   5.500
95995SOL    HW189824   2.749   5.103   5.418
95995SOL    HW289825   2.714   5.239   5.473
95996SOL     OW89826   8.999   4.719   3.501
95996SOL    HW189827   9.002   4.775   3.423
95996SOL    HW289828   8.940   4.765   3.561
95997SOL     OW89829   2.884   3.597  11.510
95997SOL    HW189830   2.973   3.562  11.506
95997SOL    HW289831   2.854   3.597  11.419
95998SOL     OW89832   3.693   7.694   9.074
95998SOL    HW189833   3.682   7.738   9.159
95998SOL    HW289834   3.785   7.709   9.051
95999SOL     OW89835  11.902   3.621  10.440
95999SOL    HW189836  11.951   3.621  10.358
95999SOL    HW289837  11.946   3.555  10.494
96000SOL     OW89838   4.029  11.340  12.866
96000SOL    HW189839   4.026  11.429  12.902
96000SOL    HW289840   3.955  11.295  12.907
96001SOL     OW89841  10.096   0.029  10.960
96001SOL    HW189842  10.025  14.857  10.917
96001SOL    HW289843  10.084   0.011  11.053
96002SOL     OW89844   1.559   9.654  12.188
96002SOL    HW189845   1.541   9.589  12.256
96002SOL    HW289846   1.607   9.723  12.232
96003SOL     OW89847   8.984  11.115   0.587
96003SOL    HW189848   8.923  11.167   0.640
96003SOL    HW289849   8.942  11.109   0.502
96004SOL     OW89850  12.270   2.391   4.461
96004SOL    HW189851  12.320   2.461   4.419
96004SOL    HW289852  12.213   2.357   4.392
96005SOL     OW89853   8.070   6.666   9.117
96005SOL    HW189854   8.021   6.605   9.061
96005SOL    HW289855   8.158   6.630   9.120
96006SOL     OW89856  10.789  10.945  12.610
96006SOL    HW189857  10.727  10.944  12.682
96006SOL    HW289858  10.773  11.028  12.565
96007SOL     OW89859  12.306  10.228   2.166
96007SOL    HW189860  12.330  10.165   2.097
96007SOL    HW289861  12.246  10.180   2.222
96008SOL     OW89862   8.327  13.592   0.381
96008SOL    HW189863   8.235  13.571   0.365
96008SOL    HW289864   8.363  13.608   0.294
96009SOL     OW89865  11.919  10.728   4.156
96009SOL    HW189866  11.885  10.654   4.105
96009SOL    HW289867  11.975  10.775   4.095
96010SOL     OW89868  14.721   0.111  12.196
96010SOL    HW189869  14.669   0.178  12.152
96010SOL    HW289870  14.795   0.158  12.233
96011SOL     OW89871   6.369   9.750  13.438
96011SOL    HW189872   6.383   9.658  13.415
96011SOL    HW289873   6.275   9.758  13.450
96012SOL     OW89874   6.531   2.852  12.248
96012SOL    HW189875   6.625   2.860  12.232
96012SOL    HW289876   6.504   2.775  12.197
96013SOL     OW89877  12.004  13.968  10.274
96013SOL    HW189878  11.928  13.931  10.230
96013SOL    HW289879  12.066  13.987  10.204
96014SOL     OW89880   1.182  11.406   8.888
96014SOL    HW189881   1.117  11.363   8.833
96014SOL    HW289882   1.256  11.346   8.890
96015SOL     OW89883   1.532   1.480   7.760
96015SOL    HW189884   1.622   1.448   7.765
96015SOL    HW289885   1.539   1.563   7.714
96016SOL     OW89886   0.264  14.251  11.138
96016SOL    HW189887   0.189  14.222  11.190
96016SOL    HW289888   0.339  14.209  11.180
96017SOL     OW89889  13.066   6.532   7.191
96017SOL    HW189890  13.144   6.511   7.141
96017SOL    HW289891  12.994   6.525   7.128
96018SOL     OW89892  14.537  13.610   8.881
96018SOL    HW189893  14.596  13.629   8.808
96018SOL    HW289894  14.483  13.688   8.889
96019SOL     OW89895  11.178   4.065   3.192
96019SOL    HW189896  11.093   4.043   3.229
96019SOL    HW289897  11.168   4.154   3.158
96020SOL     OW89898   0.733   3.402   3.276
96020SOL    HW189899   0.809   3.453   3.305
96020SOL    HW289900   0.771   3.320   3.242
96021SOL     OW89901   4.615  13.410   7.628
96021SOL    HW189902   4.579  13.351   7.561
96021SOL    HW289903   4.560  13.488   7.624
96022SOL     OW89904   9.618   3.183   4.362
96022SOL    HW189905   9.618   3.240   4.439
96022SOL    HW289906   9.570   3.233   4.296
96023SOL     OW89907   1.604   2.535   5.177
96023SOL    HW189908   1.545   2.563   5.246
96023SOL    HW289909   1.546   2.506   5.106
96024SOL     OW89910   5.079   4.703   1.941
96024SOL    HW189911   5.034   4.631   1.896
96024SOL    HW289912   5.147   4.730   1.879
96025SOL     OW89913   3.487  10.462  12.113
96025SOL    HW189914   3.396  10.455  12.141
96025SOL    HW289915   3.504  10.556  12.106
96026SOL     OW89916  12.625  13.983  10.357
96026SOL    HW189917  12.683  13.959  10.284
96026SOL    HW289918  12.665  13.943  10.434
96027SOL     OW89919   1.960   7.722  11.974
96027SOL    HW189920   1.915   7.806  11.980
96027SOL    HW289921   1.907   7.670  11.913
96028SOL     OW89922   3.147   9.837   4.509
96028SOL    HW189923   3.229   9.857   4.464
96028SOL    HW289924   3.088   9.908   4.483
96029SOL     OW89925  12.801   9.162   3.026
96029SOL    HW189926  12.882   9.183   3.072
96029SOL    HW289927  12.744   9.127   3.093
96030SOL     OW89928  13.976   6.747   7.548
96030SOL    HW189929  14.058   6.792   7.526
96030SOL    HW289930  13.996   6.654   7.538
96031SOL     OW89931   8.554  14.064   4.720
96031SOL    HW189932   8.544  14.157   4.741
96031SOL    HW289933   8.535  14.019   4.802
96032SOL     OW89934  11.491   9.209   2.519
96032SOL    HW189935  11.451   9.132   2.478
96032SOL    HW289936  11.580   9.212   2.482
96033SOL     OW89937   4.429   6.690   2.997
96033SOL    HW189938   4.404   6.624   3.062
96033SOL    HW289939   4.398   6.653   2.914
96034SOL     OW89940   1.471   3.117  13.217
96034SOL    HW189941   1.431   3.130  13.131
96034SOL    HW289942   1.461   3.202  13.261
96035SOL     OW89943   9.888  11.475   6.870
96035SOL    HW189944   9.918  11.425   6.795
96035SOL    HW289945   9.865  11.561   6.835
96036SOL     OW89946   9.033   5.061  13.036
96036SOL    HW189947   8.953   5.087  12.990
96036SOL    HW289948   9.068   4.989  12.984
96037SOL     OW89949   6.359  14.271   5.672
96037SOL    HW189950   6.284  14.212   5.677
96037SOL    HW289951   6.434  14.214   5.653
96038SOL     OW89952  14.429   2.826   9.770
96038SOL    HW189953  14.489   2.869   9.831
96038SOL    HW289954  14.342   2.846   9.803
96039SOL     OW89955  13.566   4.302   8.999
96039SOL    HW189956  13.495   4.242   8.979
96039SOL    HW289957  13.581   4.350   8.918
96040SOL     OW89958   0.865   6.632  13.446
96040SOL    HW189959   0.908   6.577  13.511
96040SOL    HW289960   0.932   6.646  13.379
96041SOL     OW89961  10.677   2.162   1.807
96041SOL    HW189962  10.754   2.147   1.752
96041SOL    HW289963  10.649   2.251   1.786
96042SOL     OW89964  12.753   1.997  14.246
96042SOL    HW189965  12.817   1.944  14.294
96042SOL    HW289966  12.683   1.936  14.224
96043SOL     OW89967   5.900   5.644  14.282
96043SOL    HW189968   5.867   5.555  14.264
96043SOL    HW289969   5.974   5.654  14.221
96044SOL     OW89970  10.841  14.239   2.017
96044SOL    HW189971  10.808  14.269   2.101
96044SOL    HW289972  10.935  14.224   2.032
96045SOL     OW89973   2.019   2.661  12.338
96045SOL    HW189974   2.021   2.683  12.245
96045SOL    HW289975   2.111   2.663  12.365
96046SOL     OW89976  12.108   9.136   3.269
96046SOL    HW189977  12.200   9.158   3.286
96046SOL    HW289978  12.078   9.094   3.350
96047SOL     OW89979   7.214  10.597   1.192
96047SOL    HW189980   7.186  10.556   1.274
96047SOL    HW289981   7.302  10.631   1.211
96048SOL     OW89982   2.477   3.098  10.685
96048SOL    HW189983   2.558   3.144  10.663
96048SOL    HW289984   2.425   3.100  10.605
96049SOL     OW89985   7.633  11.568   6.501
96049SOL    HW189986   7.661  11.556   6.592
96049SOL    HW289987   7.610  11.661   6.495
96050SOL     OW89988  14.379  13.123  13.478
96050SOL    HW189989  14.287  13.140  13.495
96050SOL    HW289990  14.381  13.079  13.393
96051SOL     OW89991   0.502  11.041  11.365
96051SOL    HW189992   0.509  10.952  11.331
96051SOL    HW289993   0.410  11.065  11.353
96052SOL     OW89994  13.000   1.321  10.678
96052SOL    HW189995  12.971   1.409  10.656
96052SOL    HW289996  13.093   1.331  10.698
96053SOL     OW89997   3.588  12.477  13.674
96053SOL    HW189998   3.575  12.525  13.592
96053SOL    HW289999   3.630  12.540  13.732
96054SOL     OW90000  14.746   3.313   1.159
96054SOL    HW190001  14.705   3.387   1.205
96054SOL    HW290002  14.742   3.337   1.067
96055SOL     OW90003   1.074   2.891   0.536
96055SOL    HW190004   1.137   2.842   0.589
96055SOL    HW290005   1.029   2.824   0.485
96056SOL     OW90006  13.783  11.457  14.170
96056SOL    HW190007  13.875  11.432  14.169
96056SOL    HW290008  13.781  11.545  14.133
96057SOL     OW90009   7.087   2.045   7.726
96057SOL    HW190010   7.058   2.048   7.817
96057SOL    HW290011   7.008   2.064   7.675
96058SOL     OW90012  14.154   7.262  11.748
96058SOL    HW190013  14.103   7.336  11.781
96058SOL    HW290014  14.217   7.243  11.818
96059SOL     OW90015   0.335  13.900   3.909
96059SOL    HW190016   0.348  13.805   3.901
96059SOL    HW290017   0.415  13.938   3.872
96060SOL     OW90018   6.818   3.047  10.635
96060SOL    HW190019   6.737   3.086  10.667
96060SOL    HW290020   6.801   3.028  10.543
96061SOL     OW90021   7.934  12.605   6.992
96061SOL    HW190022   7.945  12.564   6.906
96061SOL    HW290023   7.915  12.696   6.973
96062SOL     OW90024   4.296   8.754  13.122
96062SOL    HW190025   4.273   8.740  13.030
96062SOL    HW290026   4.231   8.817  13.153
96063SOL     OW90027   7.420   4.258   7.695
96063SOL    HW190028   7.422   4.289   7.604
96063SOL    HW290029   7.327   4.249   7.715
96064SOL     OW90030  14.107   6.188   9.058
96064SOL    HW190031  14.022   6.146   9.055
96064SOL    HW290032  14.126   6.214   8.968
96065SOL     OW90033   3.087   3.916   4.670
96065SOL    HW190034   3.115   3.908   4.761
96065SOL    HW290035   3.115   4.003   4.644
96066SOL     OW90036   6.388   5.542   0.941
96066SOL    HW190037   6.399   5.615   0.880
96066SOL    HW290038   6.408   5.464   0.889
96067SOL     OW90039   0.008   1.926  13.860
96067SOL    HW190040   0.025   1.901  13.769
96067SOL    HW290041   0.037   1.850  13.912
96068SOL     OW90042  12.650   6.896   0.417
96068SOL    HW190043  12.571   6.888   0.364
96068SOL    HW290044  12.719   6.920   0.355
96069SOL     OW90045   1.132   0.563  11.771
96069SOL    HW190046   1.144   0.477  11.731
96069SOL    HW290047   1.155   0.550  11.864
96070SOL     OW90048  10.945  14.641   1.385
96070SOL    HW190049  10.881  14.692   1.434
96070SOL    HW290050  10.894  14.597   1.317
96071SOL     OW90051   2.556   8.726  11.754
96071SOL    HW190052   2.465   8.704  11.771
96071SOL    HW290053   2.604   8.690  11.829
96072SOL     OW90054   1.220  14.443   3.427
96072SOL    HW190055   1.128  14.427   3.404
96072SOL    HW290056   1.216  14.493   3.508
96073SOL     OW90057   6.590   5.229   1.041
96073SOL    HW190058   6.529   5.157   1.059
96073SOL    HW290059   6.578   5.247   0.948
96074SOL     OW90060   9.786   3.438   9.912
96074SOL    HW190061   9.744   3.522   9.929
96074SOL    HW290062   9.737   3.402   9.838
96075SOL     OW90063   2.008   6.154   8.461
96075SOL    HW190064   2.045   6.220   8.402
96075SOL    HW290065   1.998   6.200   8.545
96076SOL     OW90066  12.503   7.150   6.260
96076SOL    HW190067  12.516   7.056   6.243
96076SOL    HW290068  12.437   7.152   6.329
96077SOL     OW90069   7.507   5.104  11.629
96077SOL    HW190070   7.586   5.061  11.595
96077SOL    HW290071   7.540   5.181  11.676
96078SOL     OW90072  11.689  14.065   6.682
96078SOL    HW190073  11.736  14.031   6.606
96078SOL    HW290074  11.711  14.005   6.753
96079SOL     OW90075   5.738   5.376  11.851
96079SOL    HW190076   5.828   5.353  11.872
96079SOL    HW290077   5.735   5.375  11.755
96080SOL     OW90078  14.333   2.956   1.163
96080SOL    HW190079  14.270   2.889   1.190
96080SOL    HW290080  14.411   2.906   1.138
96081SOL     OW90081   4.020   2.056  13.599
96081SOL    HW190082   4.113   2.041  13.619
96081SOL    HW290083   4.021   2.091  13.510
96082SOL     OW90084   6.993  11.747   6.761
96082SOL    HW190085   7.000  11.714   6.851
96082SOL    HW290086   6.925  11.694   6.721
96083SOL     OW90087   8.920   4.913   4.035
96083SOL    HW190088   8.998   4.862   4.015
96083SOL    HW290089   8.851   4.873   3.983
96084SOL     OW90090   2.514   0.598  10.085
96084SOL    HW190091   2.581   0.540  10.050
96084SOL    HW290092   2.431   0.558  10.058
96085SOL     OW90093   4.581   6.874  12.053
96085SOL    HW190094   4.635   6.803  12.018
96085SOL    HW290095   4.623   6.953  12.020
96086SOL     OW90096   0.185   7.936   7.333
96086SOL    HW190097   0.276   7.964   7.345
96086SOL    HW290098   0.189   7.840   7.339
96087SOL     OW90099   4.147   1.648  14.850
96087SOL    HW190100   4.129   1.579  14.787
96087SOL    HW290101   4.155   1.727  14.798
96088SOL     OW90102   3.616   4.788  14.665
96088SOL    HW190103   3.649   4.870  14.627
96088SOL    HW290104   3.678   4.767  14.734
96089SOL     OW90105   8.742  12.114   8.698
96089SOL    HW190106   8.790  12.163   8.764
96089SOL    HW290107   8.785  12.135   8.616
96090SOL     OW90108   7.099   6.079   4.128
96090SOL    HW190109   7.061   6.167   4.134
96090SOL    HW290110   7.039   6.023   4.176
96091SOL     OW90111   5.394   1.176   6.573
96091SOL    HW190112   5.380   1.255   6.626
96091SOL    HW290113   5.463   1.128   6.619
96092SOL     OW90114  12.829   6.722   3.149
96092SOL    HW190115  12.912   6.770   3.152
96092SOL    HW290116  12.784   6.747   3.229
96093SOL     OW90117   9.026   3.362   4.847
96093SOL    HW190118   9.041   3.334   4.757
96093SOL    HW290119   9.082   3.439   4.857
96094SOL     OW90120  14.142   0.067   1.738
96094SOL    HW190121  14.059   0.033   1.702
96094SOL    HW290122  14.186  14.865   1.771
96095SOL     OW90123   8.228   3.931  14.568
96095SOL    HW190124   8.134   3.918  14.560
96095SOL    HW290125   8.253   3.881  14.646
96096SOL     OW90126  13.238   0.244  10.604
96096SOL    HW190127  13.217   0.231  10.696
96096SOL    HW290128  13.163   0.293  10.569
96097SOL     OW90129   2.025   3.498   9.495
96097SOL    HW190130   1.996   3.575   9.544
96097SOL    HW290131   2.084   3.533   9.428
96098SOL     OW90132  12.671  12.521   9.247
96098SOL    HW190133  12.689  12.599   9.194
96098SOL    HW290134  12.758  12.492   9.276
96099SOL     OW90135   4.113   9.236  14.369
96099SOL    HW190136   4.205   9.224  14.394
96099SOL    HW290137   4.093   9.326  14.392
96100SOL     OW90138  13.725   9.221   8.875
96100SOL    HW190139  13.761   9.134   8.855
96100SOL    HW290140  13.631   9.205   8.888
96101SOL     OW90141   0.625   4.937   9.345
96101SOL    HW190142   0.666   4.952   9.431
96101SOL    HW290143   0.665   4.855   9.315
96102SOL     OW90144  14.491   8.819   4.855
96102SOL    HW190145  14.517   8.834   4.946
96102SOL    HW290146  14.491   8.723   4.847
96103SOL     OW90147   9.982   7.333  11.097
96103SOL    HW190148   9.996   7.333  11.192
96103SOL    HW290149   9.888   7.345  11.087
96104SOL     OW90150   7.307  11.598   0.685
96104SOL    HW190151   7.374  11.659   0.718
96104SOL    HW290152   7.250  11.652   0.631
96105SOL     OW90153  10.236   3.287   4.358
96105SOL    HW190154  10.317   3.317   4.316
96105SOL    HW290155  10.256   3.198   4.388
96106SOL     OW90156   0.849  14.314   4.576
96106SOL    HW190157   0.814  14.403   4.567
96106SOL    HW290158   0.942  14.323   4.555
96107SOL     OW90159   4.824   4.573   2.097
96107SOL    HW190160   4.849   4.533   2.013
96107SOL    HW290161   4.906   4.601   2.136
96108SOL     OW90162   9.295   0.443  13.711
96108SOL    HW190163   9.367   0.490  13.754
96108SOL    HW290164   9.330   0.420  13.625
96109SOL     OW90165  12.491   1.674  12.145
96109SOL    HW190166  12.467   1.739  12.080
96109SOL    HW290167  12.523   1.725  12.220
96110SOL     OW90168   1.225   6.682  10.385
96110SOL    HW190169   1.217   6.691  10.480
96110SOL    HW290170   1.271   6.599  10.373
96111SOL     OW90171   3.056   5.461   5.275
96111SOL    HW190172   2.969   5.468   5.238
96111SOL    HW290173   3.084   5.552   5.288
96112SOL     OW90174  12.546  10.843   7.263
96112SOL    HW190175  12.566  10.932   7.292
96112SOL    HW290176  12.600  10.831   7.184
96113SOL     OW90177   5.765   8.963  13.418
96113SOL    HW190178   5.706   8.928  13.352
96113SOL    HW290179   5.716   8.956  13.500
96114SOL     OW90180  11.497   0.291   4.172
96114SOL    HW190181  11.452   0.375   4.168
96114SOL    HW290182  11.570   0.304   4.232
96115SOL     OW90183   1.075  14.596  13.537
96115SOL    HW190184   1.063  14.684  13.502
96115SOL    HW290185   1.019  14.593  13.614
96116SOL     OW90186  14.505   0.590   0.022
96116SOL    HW190187  14.440   0.632  14.842
96116SOL    HW290188  14.536   0.660   0.080
96117SOL     OW90189   1.269  11.155   8.831
96117SOL    HW190190   1.277  11.111   8.916
96117SOL    HW290191   1.357  11.155   8.795
96118SOL     OW90192  12.965  11.904   9.828
96118SOL    HW190193  13.058  11.922   9.814
96118SOL    HW290194  12.926  11.908   9.741
96119SOL     OW90195   2.364   8.474   0.067
96119SOL    HW190196   2.366   8.386   0.029
96119SOL    HW290197   2.392   8.462   0.158
96120SOL     OW90198  12.252  11.806   9.888
96120SOL    HW190199  12.314  11.742   9.924
96120SOL    HW290200  12.171  11.756   9.876
96121SOL     OW90201   1.102   5.369   5.046
96121SOL    HW190202   1.146   5.424   4.981
96121SOL    HW290203   1.011   5.366   5.018
96122SOL     OW90204   7.184  12.809   2.343
96122SOL    HW190205   7.126  12.865   2.394
96122SOL    HW290206   7.266  12.858   2.338
96123SOL     OW90207   0.543   7.618  12.609
96123SOL    HW190208   0.563   7.699  12.562
96123SOL    HW290209   0.515   7.557  12.542
96124SOL     OW90210   0.184   1.299   9.975
96124SOL    HW190211   0.252   1.240  10.007
96124SOL    HW290212   0.138   1.249   9.908
96125SOL     OW90213   8.158   7.043  13.776
96125SOL    HW190214   8.125   6.967  13.825
96125SOL    HW290215   8.250   7.049  13.801
96126SOL     OW90216   3.228   7.293   1.007
96126SOL    HW190217   3.222   7.230   1.078
96126SOL    HW290218   3.155   7.272   0.949
96127SOL     OW90219  12.235   6.881   2.623
96127SOL    HW190220  12.260   6.966   2.660
96127SOL    HW290221  12.275   6.880   2.536
96128SOL     OW90222   9.223   2.234   9.492
96128SOL    HW190223   9.196   2.147   9.461
96128SOL    HW290224   9.286   2.216   9.561
96129SOL     OW90225   8.475   5.246   4.709
96129SOL    HW190226   8.532   5.321   4.724
96129SOL    HW290227   8.424   5.239   4.790
96130SOL     OW90228   4.418  10.322   3.710
96130SOL    HW190229   4.383  10.246   3.665
96130SOL    HW290230   4.419  10.391   3.644
96131SOL     OW90231   0.170   0.409  11.780
96131SOL    HW190232   0.241   0.470  11.764
96131SOL    HW290233   0.093   0.465  11.795
96132SOL     OW90234  14.533   7.828  13.368
96132SOL    HW190235  14.535   7.924  13.372
96132SOL    HW290236  14.505   7.808  13.279
96133SOL     OW90237  12.532   0.652   8.401
96133SOL    HW190238  12.574   0.661   8.316
96133SOL    HW290239  12.462   0.718   8.401
96134SOL     OW90240  12.074   5.655  10.238
96134SOL    HW190241  12.159   5.663  10.193
96134SOL    HW290242  12.010   5.678  10.171
96135SOL     OW90243   4.192   9.586   9.852
96135SOL    HW190244   4.221   9.495   9.857
96135SOL    HW290245   4.262   9.636   9.893
96136SOL     OW90246   7.051  10.916   6.661
96136SOL    HW190247   7.141  10.911   6.628
96136SOL    HW290248   7.005  10.972   6.598
96137SOL     OW90249  10.984   2.582   9.712
96137SOL    HW190250  10.955   2.516   9.649
96137SOL    HW290251  10.939   2.558   9.793
96138SOL     OW90252   5.629   0.452   2.217
96138SOL    HW190253   5.682   0.469   2.140
96138SOL    HW290254   5.581   0.533   2.233
96139SOL     OW90255   8.225  10.278  11.248
96139SOL    HW190256   8.131  10.296  11.245
96139SOL    HW290257   8.241  10.224  11.171
96140SOL     OW90258   3.648  10.812   7.816
96140SOL    HW190259   3.682  10.730   7.852
96140SOL    HW290260   3.709  10.879   7.846
96141SOL     OW90261   1.569  10.170  12.583
96141SOL    HW190262   1.561  10.078  12.610
96141SOL    HW290263   1.536  10.172  12.494
96142SOL     OW90264   2.906   9.174   4.777
96142SOL    HW190265   2.914   9.246   4.716
96142SOL    HW290266   2.991   9.129   4.772
96143SOL     OW90267   3.340  10.054   2.540
96143SOL    HW190268   3.360  10.019   2.626
96143SOL    HW290269   3.290   9.985   2.496
96144SOL     OW90270   8.718   1.557   9.296
96144SOL    HW190271   8.806   1.520   9.285
96144SOL    HW290272   8.725   1.610   9.376
96145SOL     OW90273   5.240  11.153   9.488
96145SOL    HW190274   5.294  11.117   9.417
96145SOL    HW290275   5.212  11.076   9.537
96146SOL     OW90276   9.983   7.737   3.959
96146SOL    HW190277   9.938   7.760   3.878
96146SOL    HW290278   9.999   7.643   3.953
96147SOL     OW90279  14.838   9.615  13.716
96147SOL    HW190280   0.023   9.541  13.718
96147SOL    HW290281   0.015   9.691  13.741
96148SOL     OW90282   2.939  13.284  13.169
96148SOL    HW190283   3.031  13.303  13.149
96148SOL    HW290284   2.942  13.222  13.242
96149SOL     OW90285   2.158   7.132   9.679
96149SOL    HW190286   2.214   7.121   9.602
96149SOL    HW290287   2.126   7.044   9.699
96150SOL     OW90288  11.305   1.681   0.157
96150SOL    HW190289  11.301   1.731   0.076
96150SOL    HW290290  11.393   1.696   0.192
96151SOL     OW90291   8.151   4.277  10.598
96151SOL    HW190292   8.086   4.275  10.667
96151SOL    HW290293   8.210   4.349  10.622
96152SOL     OW90294  14.762   6.273   3.801
96152SOL    HW190295  14.838   6.251   3.856
96152SOL    HW290296  14.723   6.350   3.844
96153SOL     OW90297  11.494  11.736   5.796
96153SOL    HW190298  11.573  11.684   5.805
96153SOL    HW290299  11.430  11.695   5.854
96154SOL     OW90300  13.778   4.783   8.133
96154SOL    HW190301  13.840   4.779   8.061
96154SOL    HW290302  13.821   4.836   8.200
96155SOL     OW90303   4.947   4.285   7.093
96155SOL    HW190304   4.910   4.254   7.175
96155SOL    HW290305   4.989   4.368   7.114
96156SOL     OW90306   0.488  12.056   7.127
96156SOL    HW190307   0.577  12.028   7.109
96156SOL    HW290308   0.497  12.132   7.184
96157SOL     OW90309   7.116  12.929  12.945
96157SOL    HW190310   7.069  13.000  12.902
96157SOL    HW290311   7.159  12.970  13.020
96158SOL     OW90312  13.485   1.039  11.155
96158SOL    HW190313  13.499   1.127  11.189
96158SOL    HW290314  13.433   1.052  11.075
96159SOL     OW90315  11.873   3.287  11.036
96159SOL    HW190316  11.804   3.222  11.048
96159SOL    HW290317  11.827   3.367  11.012
96160SOL     OW90318   3.684   9.444  11.286
96160SOL    HW190319   3.650   9.445  11.197
96160SOL    HW290320   3.717   9.533  11.301
96161SOL     OW90321   0.519  14.634   5.435
96161SOL    HW190322   0.479  14.708   5.481
96161SOL    HW290323   0.505  14.560   5.493
96162SOL     OW90324   6.673   6.482   7.227
96162SOL    HW190325   6.745   6.445   7.278
96162SOL    HW290326   6.619   6.407   7.204
96163SOL     OW90327   4.357  13.315   2.050
96163SOL    HW190328   4.337  13.232   2.093
96163SOL    HW290329   4.406  13.290   1.972
96164SOL     OW90330   3.550  11.505  13.728
96164SOL    HW190331   3.510  11.418  13.718
96164SOL    HW290332   3.607  11.497  13.804
96165SOL     OW90333   0.929  13.502   3.982
96165SOL    HW190334   0.930  13.436   3.913
96165SOL    HW290335   0.845  13.490   4.026
96166SOL     OW90336  10.096  11.540  14.733
96166SOL    HW190337  10.080  11.618  14.679
96166SOL    HW290338  10.096  11.574  14.823
96167SOL     OW90339   2.312   7.912   9.168
96167SOL    HW190340   2.218   7.922   9.154
96167SOL    HW290341   2.349   7.914   9.079
96168SOL     OW90342   3.221  12.804   5.301
96168SOL    HW190343   3.225  12.873   5.367
96168SOL    HW290344   3.140  12.822   5.253
96169SOL     OW90345   7.684   1.572  13.282
96169SOL    HW190346   7.671   1.662  13.311
96169SOL    HW290347   7.610   1.555  13.223
96170SOL     OW90348   9.763   2.897   1.213
96170SOL    HW190349   9.740   2.810   1.182
96170SOL    HW290350   9.722   2.904   1.299
96171SOL     OW90351   3.428   6.380   5.555
96171SOL    HW190352   3.388   6.466   5.555
96171SOL    HW290353   3.512   6.392   5.600
96172SOL     OW90354   0.647   0.396   2.052
96172SOL    HW190355   0.574   0.382   1.993
96172SOL    HW290356   0.607   0.402   2.139
96173SOL     OW90357  13.594   4.379   8.732
96173SOL    HW190358  13.504   4.406   8.750
96173SOL    HW290359  13.614   4.418   8.647
96174SOL     OW90360   5.120  14.452   0.325
96174SOL    HW190361   5.047  14.504   0.358
96174SOL    HW290362   5.127  14.379   0.386
96175SOL     OW90363  12.078  14.458   2.422
96175SOL    HW190364  12.144  14.432   2.357
96175SOL    HW290365  12.022  14.520   2.376
96176SOL     OW90366  14.412   5.686   9.478
96176SOL    HW190367  14.336   5.689   9.536
96176SOL    HW290368  14.487   5.697   9.537
96177SOL     OW90369   8.533   9.378   1.635
96177SOL    HW190370   8.448   9.363   1.677
96177SOL    HW290371   8.598   9.353   1.700
96178SOL     OW90372   3.262   0.782   0.973
96178SOL    HW190373   3.291   0.830   0.895
96178SOL    HW290374   3.250   0.692   0.942
96179SOL     OW90375   1.659  10.631   4.463
96179SOL    HW190376   1.691  10.544   4.439
96179SOL    HW290377   1.718  10.692   4.418
96180SOL     OW90378   3.433   5.816   2.168
96180SOL    HW190379   3.476   5.731   2.170
96180SOL    HW290380   3.465   5.859   2.089
96181SOL     OW90381   4.158   8.576   7.093
96181SOL    HW190382   4.248   8.583   7.124
96181SOL    HW290383   4.110   8.643   7.141
96182SOL     OW90384   6.211   4.001  12.644
96182SOL    HW190385   6.190   3.913  12.612
96182SOL    HW290386   6.129   4.049  12.636
96183SOL     OW90387  14.717   8.905   8.965
96183SOL    HW190388  14.808   8.877   8.954
96183SOL    HW290389  14.682   8.846   9.032
96184SOL     OW90390   0.111  13.146   3.444
96184SOL    HW190391   0.073  13.126   3.530
96184SOL    HW290392   0.156  13.230   3.457
96185SOL     OW90393   2.455  11.805   5.118
96185SOL    HW190394   2.422  11.720   5.146
96185SOL    HW290395   2.378  11.862   5.118
96186SOL     OW90396  11.010   7.497   6.205
96186SOL    HW190397  10.935   7.517   6.261
96186SOL    HW290398  10.996   7.551   6.127
96187SOL     OW90399   9.277  12.939  12.647
96187SOL    HW190400   9.358  12.984  12.624
96187SOL    HW290401   9.303  12.873  12.710
96188SOL     OW90402  13.805  11.484  12.925
96188SOL    HW190403  13.741  11.536  12.974
96188SOL    HW290404  13.795  11.395  12.958
96189SOL     OW90405   2.935  13.298   2.119
96189SOL    HW190406   3.025  13.327   2.136
96189SOL    HW290407   2.900  13.364   2.059
96190SOL     OW90408   3.450   0.238   2.403
96190SOL    HW190409   3.426   0.210   2.491
96190SOL    HW290410   3.417   0.169   2.346
96191SOL     OW90411  10.553  14.610   8.778
96191SOL    HW190412  10.489  14.628   8.848
96191SOL    HW290413  10.635  14.595   8.824
96192SOL     OW90414   5.450  10.533   1.644
96192SOL    HW190415   5.385  10.486   1.591
96192SOL    HW290416   5.399  10.598   1.692
96193SOL     OW90417  14.366   1.515   4.162
96193SOL    HW190418  14.395   1.476   4.079
96193SOL    HW290419  14.317   1.593   4.136
96194SOL     OW90420   4.462   4.300   4.806
96194SOL    HW190421   4.432   4.352   4.731
96194SOL    HW290422   4.470   4.211   4.771
96195SOL     OW90423  10.735   3.246   0.459
96195SOL    HW190424  10.642   3.255   0.478
96195SOL    HW290425  10.765   3.336   0.443
96196SOL     OW90426   6.363  13.452   9.838
96196SOL    HW190427   6.320  13.471   9.922
96196SOL    HW290428   6.411  13.372   9.853
96197SOL     OW90429   1.799   2.265   8.160
96197SOL    HW190430   1.881   2.313   8.173
96197SOL    HW290431   1.824   2.173   8.165
96198SOL     OW90432  10.072   2.658   1.941
96198SOL    HW190433  10.168   2.660   1.939
96198SOL    HW290434  10.046   2.745   1.911
96199SOL     OW90435  12.730   5.535   3.013
96199SOL    HW190436  12.686   5.543   2.928
96199SOL    HW290437  12.808   5.482   2.994
96200SOL     OW90438  13.030   9.176   2.377
96200SOL    HW190439  13.116   9.149   2.408
96200SOL    HW290440  13.030   9.155   2.283
96201SOL     OW90441   1.978  10.199   9.918
96201SOL    HW190442   1.955  10.292   9.915
96201SOL    HW290443   2.011  10.185  10.007
96202SOL     OW90444   0.039   5.988  10.508
96202SOL    HW190445   0.133   5.984  10.491
96202SOL    HW290446   0.000   6.008  10.423
96203SOL     OW90447   8.935   0.936   5.330
96203SOL    HW190448   8.877   0.924   5.255
96203SOL    HW290449   8.879   0.917   5.406
96204SOL     OW90450   6.288   0.866  10.178
96204SOL    HW190451   6.334   0.864  10.094
96204SOL    HW290452   6.250   0.953  10.183
96205SOL     OW90453   7.387  11.668  14.327
96205SOL    HW190454   7.344  11.600  14.275
96205SOL    HW290455   7.394  11.743  14.268
96206SOL     OW90456   4.395   4.386  12.347
96206SOL    HW190457   4.491   4.384  12.345
96206SOL    HW290458   4.372   4.347  12.431
96207SOL     OW90459   6.424   0.722  13.296
96207SOL    HW190460   6.517   0.729  13.317
96207SOL    HW290461   6.417   0.648  13.236
96208SOL     OW90462  11.525   4.566   0.638
96208SOL    HW190463  11.467   4.496   0.669
96208SOL    HW290464  11.572   4.528   0.564
96209SOL     OW90465  12.011  12.892  11.137
96209SOL    HW190466  12.052  12.853  11.214
96209SOL    HW290467  11.926  12.923  11.168
96210SOL     OW90468   9.128  12.298   9.780
96210SOL    HW190469   9.193  12.340   9.724
96210SOL    HW290470   9.173  12.221   9.815
96211SOL     OW90471   2.068   4.907   0.998
96211SOL    HW190472   2.018   4.848   1.055
96211SOL    HW290473   2.012   4.984   0.987
96212SOL     OW90474   0.678   9.384   0.680
96212SOL    HW190475   0.671   9.295   0.714
96212SOL    HW290476   0.641   9.439   0.749
96213SOL     OW90477   8.516   3.877  10.196
96213SOL    HW190478   8.479   3.791  10.214
96213SOL    HW290479   8.444   3.927  10.158
96214SOL     OW90480  12.908  14.083   2.459
96214SOL    HW190481  12.952  14.062   2.542
96214SOL    HW290482  12.971  14.060   2.391
96215SOL     OW90483   4.399  13.919   6.234
96215SOL    HW190484   4.332  13.976   6.197
96215SOL    HW290485   4.448  13.887   6.159
96216SOL     OW90486   0.509   4.693  10.526
96216SOL    HW190487   0.550   4.764  10.577
96216SOL    HW290488   0.578   4.665  10.465
96217SOL     OW90489   2.297   2.293   9.019
96217SOL    HW190490   2.317   2.226   8.954
96217SOL    HW290491   2.285   2.373   8.968
96218SOL     OW90492   3.943   4.865  10.957
96218SOL    HW190493   3.868   4.823  10.915
96218SOL    HW290494   3.910   4.950  10.987
96219SOL     OW90495   2.639   2.360   6.527
96219SOL    HW190496   2.563   2.345   6.471
96219SOL    HW290497   2.602   2.381   6.613
96220SOL     OW90498   0.829   6.316   9.814
96220SOL    HW190499   0.916   6.292   9.846
96220SOL    HW290500   0.846   6.360   9.731
96221SOL     OW90501  12.065   6.425   9.008
96221SOL    HW190502  11.971   6.444   9.016
96221SOL    HW290503  12.090   6.395   9.095
96222SOL     OW90504   7.874   3.236  11.576
96222SOL    HW190505   7.856   3.312  11.631
96222SOL    HW290506   7.946   3.264  11.519
96223SOL     OW90507   3.412   1.848   3.601
96223SOL    HW190508   3.434   1.926   3.651
96223SOL    HW290509   3.332   1.815   3.642
96224SOL     OW90510   6.570  12.284  12.750
96224SOL    HW190511   6.606  12.294  12.839
96224SOL    HW290512   6.577  12.190  12.732
96225SOL     OW90513   6.270   2.700   4.698
96225SOL    HW190514   6.264   2.637   4.626
96225SOL    HW290515   6.345   2.670   4.750
96226SOL     OW90516  13.307  13.232  10.098
96226SOL    HW190517  13.276  13.196  10.181
96226SOL    HW290518  13.402  13.227  10.104
96227SOL     OW90519   4.418   3.621   9.386
96227SOL    HW190520   4.476   3.572   9.327
96227SOL    HW290521   4.339   3.637   9.335
96228SOL     OW90522   6.525   2.867  10.898
96228SOL    HW190523   6.597   2.817  10.860
96228SOL    HW290524   6.532   2.853  10.992
96229SOL     OW90525  10.307   5.914  11.382
96229SOL    HW190526  10.272   5.858  11.452
96229SOL    HW290527  10.370   5.971  11.426
96230SOL     OW90528   6.255   5.227   9.560
96230SOL    HW190529   6.260   5.299   9.624
96230SOL    HW290530   6.182   5.252   9.503
96231SOL     OW90531   0.985   1.238  11.553
96231SOL    HW190532   0.905   1.291  11.551
96231SOL    HW290533   1.020   1.242  11.464
96232SOL     OW90534   1.438   9.510  13.354
96232SOL    HW190535   1.343   9.521  13.341
96232SOL    HW290536   1.478   9.567  13.288
96233SOL     OW90537   6.354  12.018   7.720
96233SOL    HW190538   6.426  11.992   7.663
96233SOL    HW290539   6.331  12.106   7.691
96234SOL     OW90540  13.230   0.306  12.936
96234SOL    HW190541  13.255   0.287  12.845
96234SOL    HW290542  13.154   0.363  12.928
96235SOL     OW90543   9.775  10.618  10.114
96235SOL    HW190544   9.782  10.528  10.146
96235SOL    HW290545   9.692  10.650  10.150
96236SOL     OW90546   4.737   4.041   7.836
96236SOL    HW190547   4.742   4.057   7.930
96236SOL    HW290548   4.828   4.025   7.810
96237SOL     OW90549  10.503   7.080   9.468
96237SOL    HW190550  10.544   7.063   9.553
96237SOL    HW290551  10.424   7.130   9.490
96238SOL     OW90552  10.125   8.191   4.347
96238SOL    HW190553  10.053   8.160   4.292
96238SOL    HW290554  10.085   8.204   4.433
96239SOL     OW90555   9.674   1.128   3.629
96239SOL    HW190556   9.637   1.113   3.716
96239SOL    HW290557   9.669   1.223   3.617
96240SOL     OW90558   0.369   6.298  11.048
96240SOL    HW190559   0.391   6.329  10.960
96240SOL    HW290560   0.452   6.297  11.095
96241SOL     OW90561   8.122   5.467  14.670
96241SOL    HW190562   8.155   5.422  14.592
96241SOL    HW290563   8.041   5.420  14.692
96242SOL     OW90564   4.172   8.220   3.373
96242SOL    HW190565   4.186   8.127   3.359
96242SOL    HW290566   4.255   8.253   3.405
96243SOL     OW90567   0.484  14.760  13.095
96243SOL    HW190568   0.400  14.762  13.050
96243SOL    HW290569   0.545  14.724  13.030
96244SOL     OW90570   9.892   7.763   8.405
96244SOL    HW190571   9.954   7.693   8.426
96244SOL    HW290572   9.911   7.831   8.470
96245SOL     OW90573   6.012  14.642   9.974
96245SOL    HW190574   6.000  14.709  10.041
96245SOL    HW290575   5.969  14.678   9.896
96246SOL     OW90576   8.853   7.624   2.830
96246SOL    HW190577   8.944   7.622   2.861
96246SOL    HW290578   8.809   7.687   2.887
96247SOL     OW90579   7.908  11.645  11.687
96247SOL    HW190580   7.874  11.654  11.776
96247SOL    HW290581   7.832  11.658  11.631
96248SOL     OW90582   9.803   2.247   9.796
96248SOL    HW190583   9.844   2.176   9.846
96248SOL    HW290584   9.877   2.300   9.766
96249SOL     OW90585   4.603   6.929   1.110
96249SOL    HW190586   4.599   6.912   1.015
96249SOL    HW290587   4.657   6.858   1.144
96250SOL     OW90588   1.412   4.049   3.438
96250SOL    HW190589   1.468   4.094   3.374
96250SOL    HW290590   1.374   4.119   3.490
96251SOL     OW90591   8.470   9.389   0.430
96251SOL    HW190592   8.392   9.430   0.467
96251SOL    HW290593   8.534   9.391   0.500
96252SOL     OW90594   0.752   9.012  11.592
96252SOL    HW190595   0.834   8.997  11.544
96252SOL    HW290596   0.779   9.032  11.681
96253SOL     OW90597  13.826   1.097   0.774
96253SOL    HW190598  13.779   1.021   0.740
96253SOL    HW290599  13.874   1.063   0.850
96254SOL     OW90600   2.521   2.549  14.615
96254SOL    HW190601   2.497   2.487  14.684
96254SOL    HW290602   2.563   2.496  14.548
96255SOL     OW90603   3.807   4.690  14.835
96255SOL    HW190604   3.805   4.597  14.855
96255SOL    HW290605   3.893   4.705  14.797
96256SOL     OW90606  12.978   6.600  13.808
96256SOL    HW190607  12.995   6.551  13.727
96256SOL    HW290608  12.883   6.610  13.810
96257SOL     OW90609   1.280   5.442  10.958
96257SOL    HW190610   1.236   5.525  10.977
96257SOL    HW290611   1.290   5.401  11.044
96258SOL     OW90612   2.776  10.987   4.410
96258SOL    HW190613   2.774  11.070   4.457
96258SOL    HW290614   2.701  10.938   4.443
96259SOL     OW90615  13.349  11.532   6.886
96259SOL    HW190616  13.271  11.553   6.938
96259SOL    HW290617  13.423  11.555   6.942
96260SOL     OW90618  12.973   8.941  12.109
96260SOL    HW190619  13.044   9.004  12.093
96260SOL    HW290620  12.969   8.889  12.029
96261SOL     OW90621  14.460  12.193   2.076
96261SOL    HW190622  14.477  12.103   2.051
96261SOL    HW290623  14.388  12.221   2.019
96262SOL     OW90624   1.250   0.570  14.499
96262SOL    HW190625   1.331   0.605  14.538
96262SOL    HW290626   1.233   0.628  14.425
96263SOL     OW90627  10.932  14.666   5.199
96263SOL    HW190628  10.975  14.642   5.117
96263SOL    HW290629  10.869  14.596   5.215
96264SOL     OW90630   1.383   9.504   8.192
96264SOL    HW190631   1.431   9.436   8.145
96264SOL    HW290632   1.433   9.517   8.273
96265SOL     OW90633   4.335   5.498   8.589
96265SOL    HW190634   4.416   5.524   8.545
96265SOL    HW290635   4.337   5.544   8.672
96266SOL     OW90636   5.169  12.259   0.705
96266SOL    HW190637   5.113  12.267   0.782
96266SOL    HW290638   5.242  12.203   0.734
96267SOL     OW90639   8.838  13.091   2.713
96267SOL    HW190640   8.891  13.012   2.716
96267SOL    HW290641   8.850  13.131   2.799
96268SOL     OW90642  13.909  12.971  11.398
96268SOL    HW190643  13.847  12.954  11.326
96268SOL    HW290644  13.901  13.065  11.415
96269SOL     OW90645  11.797   1.271   5.742
96269SOL    HW190646  11.723   1.330   5.728
96269SOL    HW290647  11.757   1.185   5.758
96270SOL     OW90648   9.173   7.047  10.786
96270SOL    HW190649   9.209   7.003  10.863
96270SOL    HW290650   9.146   6.975  10.728
96271SOL     OW90651   0.338   4.848  13.545
96271SOL    HW190652   0.332   4.756  13.573
96271SOL    HW290653   0.429   4.859  13.517
96272SOL     OW90654  14.314   0.646   3.925
96272SOL    HW190655  14.255   0.572   3.940
96272SOL    HW290656  14.273   0.696   3.854
96273SOL     OW90657   8.800  12.191   3.158
96273SOL    HW190658   8.738  12.234   3.099
96273SOL    HW290659   8.758  12.195   3.244
96274SOL     OW90660   5.378   2.788  12.936
96274SOL    HW190661   5.307   2.808  12.874
96274SOL    HW290662   5.334   2.751  13.012
96275SOL     OW90663   8.069   1.285   5.348
96275SOL    HW190664   8.089   1.370   5.308
96275SOL    HW290665   8.080   1.300   5.442
96276SOL     OW90666   0.709   5.476  12.849
96276SOL    HW190667   0.733   5.569  12.844
96276SOL    HW290668   0.735   5.450  12.938
96277SOL     OW90669   8.468   8.680  10.400
96277SOL    HW190670   8.449   8.590  10.427
96277SOL    HW290671   8.560   8.693  10.426
96278SOL     OW90672   1.902   2.835  11.714
96278SOL    HW190673   1.951   2.878  11.785
96278SOL    HW290674   1.958   2.761  11.688
96279SOL     OW90675   9.384  13.749  11.724
96279SOL    HW190676   9.430  13.701  11.655
96279SOL    HW290677   9.350  13.682  11.782
96280SOL     OW90678   9.707  11.190   6.397
96280SOL    HW190679   9.633  11.205   6.456
96280SOL    HW290680   9.774  11.149   6.452
96281SOL     OW90681  13.204   0.183   0.187
96281SOL    HW190682  13.229   0.123   0.116
96281SOL    HW290683  13.270   0.168   0.255
96282SOL     OW90684   6.071   4.329  14.325
96282SOL    HW190685   6.166   4.341  14.324
96282SOL    HW290686   6.055   4.260  14.261
96283SOL     OW90687   6.862   6.266  10.820
96283SOL    HW190688   6.907   6.341  10.781
96283SOL    HW290689   6.769   6.288  10.812
96284SOL     OW90690  13.814   6.363  12.436
96284SOL    HW190691  13.874   6.298  12.401
96284SOL    HW290692  13.817   6.351  12.530
96285SOL     OW90693   6.694   7.283  14.848
96285SOL    HW190694   6.779   7.251  14.818
96285SOL    HW290695   6.700   7.284   0.067
96286SOL     OW90696   0.831  13.260   3.845
96286SOL    HW190697   0.739  13.284   3.835
96286SOL    HW290698   0.840  13.177   3.798
96287SOL     OW90699   5.120   7.740  10.614
96287SOL    HW190700   5.084   7.664  10.568
96287SOL    HW290701   5.166   7.789  10.546
96288SOL     OW90702  11.299  12.995   1.371
96288SOL    HW190703  11.302  13.048   1.291
96288SOL    HW290704  11.377  13.021   1.420
96289SOL     OW90705  14.347  12.029   4.350
96289SOL    HW190706  14.353  12.044   4.255
96289SOL    HW290707  14.311  12.111   4.385
96290SOL     OW90708   1.380   6.650   5.855
96290SOL    HW190709   1.459   6.700   5.830
96290SOL    HW290710   1.308   6.709   5.833
96291SOL     OW90711  10.013  14.204   4.049
96291SOL    HW190712  10.074  14.134   4.029
96291SOL    HW290713   9.969  14.221   3.965
96292SOL     OW90714   4.005   3.320   1.982
96292SOL    HW190715   4.027   3.295   1.892
96292SOL    HW290716   3.909   3.319   1.984
96293SOL     OW90717   0.623   1.189  11.712
96293SOL    HW190718   0.614   1.255  11.644
96293SOL    HW290719   0.569   1.116  11.682
96294SOL     OW90720  11.869   8.339   3.170
96294SOL    HW190721  11.954   8.321   3.130
96294SOL    HW290722  11.879   8.425   3.210
96295SOL     OW90723   0.649  11.528   7.539
96295SOL    HW190724   0.698  11.543   7.619
96295SOL    HW290725   0.616  11.438   7.547
96296SOL     OW90726  12.190   5.781   2.403
96296SOL    HW190727  12.231   5.829   2.475
96296SOL    HW290728  12.174   5.694   2.439
96297SOL     OW90729  12.212  14.523  12.003
96297SOL    HW190730  12.239  14.438  11.967
96297SOL    HW290731  12.172  14.502  12.088
96298SOL     OW90732   3.067  11.373   4.432
96298SOL    HW190733   3.019  11.455   4.433
96298SOL    HW290734   3.148  11.392   4.479
96299SOL     OW90735  14.806  14.841  11.929
96299SOL    HW190736  14.873   0.028  11.901
96299SOL    HW290737  14.780  14.872  12.016
96300SOL     OW90738   2.942  11.455   2.201
96300SOL    HW190739   2.905  11.368   2.188
96300SOL    HW290740   2.888  11.512   2.145
96301SOL     OW90741   2.848  14.635   4.943
96301SOL    HW190742   2.873  14.588   4.863
96301SOL    HW290743   2.873  14.576   5.014
96302SOL     OW90744   9.630   2.304   6.011
96302SOL    HW190745   9.629   2.210   5.989
96302SOL    HW290746   9.672   2.346   5.936
96303SOL     OW90747   1.314  13.680   0.829
96303SOL    HW190748   1.343  13.689   0.739
96303SOL    HW290749   1.252  13.752   0.842
96304SOL     OW90750  10.149   0.556   0.200
96304SOL    HW190751  10.201   0.533   0.276
96304SOL    HW290752  10.085   0.620   0.232
96305SOL     OW90753  14.820   4.082   5.147
96305SOL    HW190754  14.851   4.005   5.195
96305SOL    HW290755   0.023   4.134   5.131
96306SOL     OW90756  10.628   9.688   9.460
96306SOL    HW190757  10.569   9.763   9.459
96306SOL    HW290758  10.651   9.673   9.369
96307SOL     OW90759   5.775   6.968   3.551
96307SOL    HW190760   5.728   6.885   3.552
96307SOL    HW290761   5.849   6.955   3.610
96308SOL     OW90762  13.294   9.976   9.636
96308SOL    HW190763  13.203  10.004   9.637
96308SOL    HW290764  13.343  10.053   9.607
96309SOL     OW90765   0.036   3.244   2.010
96309SOL    HW190766   0.029   3.151   2.031
96309SOL    HW290767   0.125   3.254   1.977
96310SOL     OW90768   9.496   0.671   6.181
96310SOL    HW190769   9.512   0.735   6.251
96310SOL    HW290770   9.565   0.606   6.192
96311SOL     OW90771  14.708   7.010   2.394
96311SOL    HW190772  14.689   6.965   2.476
96311SOL    HW290773  14.652   7.088   2.396
96312SOL     OW90774   3.914   9.668   5.260
96312SOL    HW190775   3.943   9.592   5.311
96312SOL    HW290776   3.947   9.652   5.172
96313SOL     OW90777   3.707  11.197   3.352
96313SOL    HW190778   3.783  11.247   3.382
96313SOL    HW290779   3.738  11.107   3.348
96314SOL     OW90780   1.258   5.286  10.708
96314SOL    HW190781   1.287   5.339  10.782
96314SOL    HW290782   1.185   5.235  10.741
96315SOL     OW90783   0.833  10.285   2.092
96315SOL    HW190784   0.792  10.342   2.158
96315SOL    HW290785   0.927  10.292   2.110
96316SOL     OW90786  10.284   0.358   5.441
96316SOL    HW190787  10.220   0.430   5.445
96316SOL    HW290788  10.359   0.395   5.393
96317SOL     OW90789   8.077  12.609   5.178
96317SOL    HW190790   8.101  12.559   5.256
96317SOL    HW290791   8.064  12.698   5.209
96318SOL     OW90792   2.989   0.804   7.379
96318SOL    HW190793   2.968   0.897   7.377
96318SOL    HW290794   3.021   0.784   7.291
96319SOL     OW90795   5.040   5.553  10.973
96319SOL    HW190796   5.091   5.524  11.048
96319SOL    HW290797   5.026   5.475  10.921
96320SOL     OW90798   9.972   8.474   5.023
96320SOL    HW190799  10.043   8.427   5.067
96320SOL    HW290800   9.894   8.456   5.075
96321SOL     OW90801   1.448   7.264   9.838
96321SOL    HW190802   1.400   7.344   9.814
96321SOL    HW290803   1.474   7.278   9.929
96322SOL     OW90804   7.329   2.968   7.957
96322SOL    HW190805   7.387   2.927   8.021
96322SOL    HW290806   7.315   2.901   7.890
96323SOL     OW90807   4.409   8.129  12.276
96323SOL    HW190808   4.313   8.127  12.279
96323SOL    HW290809   4.432   8.071  12.203
96324SOL     OW90810   5.559  13.356  13.841
96324SOL    HW190811   5.519  13.269  13.842
96324SOL    HW290812   5.530  13.395  13.758
96325SOL     OW90813   8.461   8.160   5.841
96325SOL    HW190814   8.537   8.107   5.868
96325SOL    HW290815   8.444   8.133   5.751
96326SOL     OW90816   6.335   3.846   2.185
96326SOL    HW190817   6.367   3.863   2.097
96326SOL    HW290818   6.341   3.751   2.195
96327SOL     OW90819   2.029   8.523  13.474
96327SOL    HW190820   2.079   8.595  13.434
96327SOL    HW290821   2.093   8.454  13.488
96328SOL     OW90822   5.361   3.446   8.824
96328SOL    HW190823   5.297   3.413   8.887
96328SOL    HW290824   5.315   3.515   8.776
96329SOL     OW90825   9.594   3.559  14.819
96329SOL    HW190826   9.596   3.502   0.020
96329SOL    HW290827   9.537   3.512  14.757
96330SOL     OW90828  12.304   2.655   0.598
96330SOL    HW190829  12.210   2.667   0.609
96330SOL    HW290830  12.312   2.568   0.558
96331SOL     OW90831   7.631   3.360  14.142
96331SOL    HW190832   7.547   3.403  14.124
96331SOL    HW290833   7.670   3.413  14.212
96332SOL     OW90834   3.505   1.603   7.357
96332SOL    HW190835   3.549   1.625   7.439
96332SOL    HW290836   3.498   1.687   7.311
96333SOL     OW90837   3.100   1.659   8.892
96333SOL    HW190838   3.111   1.625   8.803
96333SOL    HW290839   3.183   1.637   8.936
96334SOL     OW90840  10.394   9.120   3.355
96334SOL    HW190841  10.378   9.083   3.268
96334SOL    HW290842  10.341   9.066   3.414
96335SOL     OW90843  12.143  12.678   3.064
96335SOL    HW190844  12.157  12.753   3.007
96335SOL    HW290845  12.093  12.616   3.010
96336SOL     OW90846   8.276   3.588  12.001
96336SOL    HW190847   8.232   3.643  12.066
96336SOL    HW290848   8.337   3.647  11.957
96337SOL     OW90849   9.047   1.312   1.314
96337SOL    HW190850   9.005   1.226   1.320
96337SOL    HW290851   9.079   1.329   1.403
96338SOL     OW90852   8.696   2.913   9.884
96338SOL    HW190853   8.605   2.932   9.861
96338SOL    HW290854   8.702   2.933   9.978
96339SOL     OW90855   1.091   9.468  12.996
96339SOL    HW190856   1.186   9.451  12.998
96339SOL    HW290857   1.072   9.481  12.903
96340SOL     OW90858  11.523  10.413   1.563
96340SOL    HW190859  11.562  10.470   1.497
96340SOL    HW290860  11.596  10.362   1.597
96341SOL     OW90861   5.360   8.333  12.833
96341SOL    HW190862   5.435   8.359  12.886
96341SOL    HW290863   5.387   8.351  12.742
96342SOL     OW90864   2.319  12.332   0.079
96342SOL    HW190865   2.336  12.426   0.074
96342SOL    HW290866   2.227  12.326   0.104
96343SOL     OW90867   0.007   9.376   6.622
96343SOL    HW190868   0.024   9.324   6.544
96343SOL    HW290869   0.091   9.378   6.669
96344SOL     OW90870  13.199   0.430  13.530
96344SOL    HW190871  13.201   0.361  13.597
96344SOL    HW290872  13.160   0.505  13.575
96345SOL     OW90873  14.040   0.383  11.946
96345SOL    HW190874  14.012   0.474  11.942
96345SOL    HW290875  14.102   0.373  11.874
96346SOL     OW90876  10.071   7.509   2.618
96346SOL    HW190877  10.083   7.560   2.698
96346SOL    HW290878  10.137   7.544   2.558
96347SOL     OW90879  13.444   9.036   3.324
96347SOL    HW190880  13.418   8.944   3.321
96347SOL    HW290881  13.538   9.034   3.340
96348SOL     OW90882   0.205   6.281   8.343
96348SOL    HW190883   0.237   6.199   8.305
96348SOL    HW290884   0.139   6.312   8.281
96349SOL     OW90885   4.390   3.097   8.101
96349SOL    HW190886   4.336   3.020   8.117
96349SOL    HW290887   4.479   3.067   8.118
96350SOL     OW90888   5.449   6.407   8.054
96350SOL    HW190889   5.464   6.366   8.139
96350SOL    HW290890   5.532   6.447   8.031
96351SOL     OW90891   9.349  11.647   5.418
96351SOL    HW190892   9.376  11.689   5.499
96351SOL    HW290893   9.429  11.609   5.382
96352SOL     OW90894  12.630   4.594  13.108
96352SOL    HW190895  12.578   4.662  13.065
96352SOL    HW290896  12.617   4.516  13.053
96353SOL     OW90897   9.820   5.261   5.009
96353SOL    HW190898   9.905   5.267   5.053
96353SOL    HW290899   9.781   5.181   5.045
96354SOL     OW90900   7.646  14.818  12.843
96354SOL    HW190901   7.622  14.737  12.797
96354SOL    HW290902   7.723  14.794  12.895
96355SOL     OW90903   1.999   4.090   6.545
96355SOL    HW190904   2.087   4.052   6.545
96355SOL    HW290905   2.001   4.156   6.475
96356SOL     OW90906   3.514   9.539  13.555
96356SOL    HW190907   3.564   9.488  13.491
96356SOL    HW290908   3.423   9.523  13.533
96357SOL     OW90909  11.617  13.607   9.379
96357SOL    HW190910  11.534  13.630   9.421
96357SOL    HW290911  11.608  13.515   9.357
96358SOL     OW90912  13.804  13.124  10.921
96358SOL    HW190913  13.852  13.158  10.997
96358SOL    HW290914  13.712  13.122  10.949
96359SOL     OW90915   9.674   4.119  13.349
96359SOL    HW190916   9.757   4.073  13.368
96359SOL    HW290917   9.675   4.133  13.255
96360SOL     OW90918   3.163   9.400   9.064
96360SOL    HW190919   3.149   9.356   9.148
96360SOL    HW290920   3.253   9.379   9.040
96361SOL     OW90921   4.602   3.440   5.888
96361SOL    HW190922   4.537   3.425   5.957
96361SOL    HW290923   4.554   3.483   5.818
96362SOL     OW90924  11.677   1.666   4.048
96362SOL    HW190925  11.613   1.658   3.978
96362SOL    HW290926  11.647   1.604   4.115
96363SOL     OW90927   8.230  13.417   4.612
96363SOL    HW190928   8.291  13.434   4.540
96363SOL    HW290929   8.282  13.434   4.691
96364SOL     OW90930   0.702  12.957  12.336
96364SOL    HW190931   0.760  12.898  12.384
96364SOL    HW290932   0.626  12.969  12.393
96365SOL     OW90933  12.011   5.420   3.755
96365SOL    HW190934  12.001   5.367   3.834
96365SOL    HW290935  12.009   5.356   3.683
96366SOL     OW90936  11.920   1.523   6.088
96366SOL    HW190937  11.921   1.475   6.006
96366SOL    HW290938  11.836   1.499   6.129
96367SOL     OW90939   6.105  10.953   1.830
96367SOL    HW190940   6.110  10.947   1.735
96367SOL    HW290941   6.018  10.990   1.847
96368SOL     OW90942   6.957  11.491  11.519
96368SOL    HW190943   6.966  11.398  11.539
96368SOL    HW290944   6.863  11.507  11.521
96369SOL     OW90945  13.467   5.794  10.248
96369SOL    HW190946  13.467   5.874  10.301
96369SOL    HW290947  13.393   5.805  10.188
96370SOL     OW90948   2.686  10.546   1.529
96370SOL    HW190949   2.692  10.546   1.434
96370SOL    HW290950   2.724  10.630   1.555
96371SOL     OW90951  11.674   5.450   6.971
96371SOL    HW190952  11.753   5.496   6.999
96371SOL    HW290953  11.616   5.519   6.940
96372SOL     OW90954   8.993   8.104  12.972
96372SOL    HW190955   8.911   8.101  13.021
96372SOL    HW290956   9.061   8.109  13.039
96373SOL     OW90957  13.989   2.436  10.289
96373SOL    HW190958  14.037   2.420  10.208
96373SOL    HW290959  14.034   2.382  10.355
96374SOL     OW90960  14.195   7.044   5.379
96374SOL    HW190961  14.153   6.964   5.349
96374SOL    HW290962  14.196   7.101   5.301
96375SOL     OW90963   1.481  10.904   8.766
96375SOL    HW190964   1.523  10.947   8.691
96375SOL    HW290965   1.392  10.886   8.736
96376SOL     OW90966   1.844   3.707  12.691
96376SOL    HW190967   1.782   3.778  12.677
96376SOL    HW290968   1.895   3.734  12.767
96377SOL     OW90969   8.292  14.104   2.612
96377SOL    HW190970   8.295  14.187   2.566
96377SOL    HW290971   8.335  14.042   2.554
96378SOL     OW90972  10.378  10.245   3.125
96378SOL    HW190973  10.337  10.188   3.189
96378SOL    HW290974  10.443  10.190   3.081
96379SOL     OW90975   0.546   7.846   7.404
96379SOL    HW190976   0.522   7.930   7.442
96379SOL    HW290977   0.622   7.817   7.454
96380SOL     OW90978   9.686   7.121  14.592
96380SOL    HW190979   9.747   7.101  14.663
96380SOL    HW290980   9.611   7.064  14.608
96381SOL     OW90981   9.739  11.979  14.741
96381SOL    HW190982   9.780  12.058  14.775
96381SOL    HW290983   9.649  11.982  14.772
96382SOL     OW90984   9.870  11.823  10.448
96382SOL    HW190985   9.813  11.807  10.373
96382SOL    HW290986   9.831  11.772  10.519
96383SOL     OW90987   9.539  10.825  10.899
96383SOL    HW190988   9.564  10.894  10.960
96383SOL    HW290989   9.622  10.788  10.869
96384SOL     OW90990  14.668  14.106   3.151
96384SOL    HW190991  14.753  14.068   3.174
96384SOL    HW290992  14.609  14.030   3.148
96385SOL     OW90993   7.299   3.260   0.350
96385SOL    HW190994   7.263   3.331   0.296
96385SOL    HW290995   7.360   3.215   0.292
96386SOL     OW90996  11.201   4.159   5.580
96386SOL    HW190997  11.199   4.180   5.673
96386SOL    HW290998  11.121   4.108   5.565
96387SOL     OW90999  13.709   8.362   8.308
96387SOL    HW191000  13.790   8.393   8.349
96387SOL    HW291001  13.731   8.354   8.215
96388SOL     OW91002   3.033   1.298  13.127
96388SOL    HW191003   3.082   1.215  13.127
96388SOL    HW291004   3.090   1.359  13.173
96389SOL     OW91005   7.221   3.654   5.418
96389SOL    HW191006   7.239   3.608   5.500
96389SOL    HW291007   7.303   3.650   5.370
96390SOL     OW91008   2.865  14.689   6.231
96390SOL    HW191009   2.852  14.753   6.301
96390SOL    HW291010   2.903  14.613   6.275
96391SOL     OW91011   9.255  14.777   2.718
96391SOL    HW191012   9.277  14.690   2.750
96391SOL    HW291013   9.334  14.829   2.732
96392SOL     OW91014   8.984   8.453   8.346
96392SOL    HW191015   8.935   8.533   8.366
96392SOL    HW291016   9.074   8.483   8.335
96393SOL     OW91017  12.720   3.507   2.170
96393SOL    HW191018  12.775   3.550   2.104
96393SOL    HW291019  12.673   3.579   2.213
96394SOL     OW91020   0.291   3.311   3.329
96394SOL    HW191021   0.218   3.303   3.391
96394SOL    HW291022   0.354   3.369   3.373
96395SOL     OW91023   0.688   5.186  14.360
96395SOL    HW191024   0.595   5.209  14.360
96395SOL    HW291025   0.715   5.198  14.269
96396SOL     OW91026   8.493   4.949   5.453
96396SOL    HW191027   8.515   4.939   5.545
96396SOL    HW291028   8.493   4.859   5.419
96397SOL     OW91029  10.906   8.692  10.133
96397SOL    HW191030  10.899   8.719  10.224
96397SOL    HW291031  10.821   8.651  10.113
96398SOL     OW91032   8.936   2.136   9.817
96398SOL    HW191033   8.884   2.170   9.890
96398SOL    HW291034   8.937   2.208   9.754
96399SOL     OW91035   2.479  10.448   6.159
96399SOL    HW191036   2.537  10.499   6.216
96399SOL    HW291037   2.407  10.508   6.139
96400SOL     OW91038   6.783  10.843   7.639
96400SOL    HW191039   6.728  10.880   7.569
96400SOL    HW291040   6.817  10.919   7.685
96401SOL     OW91041   6.321  11.900   8.499
96401SOL    HW191042   6.267  11.950   8.560
96401SOL    HW291043   6.400  11.878   8.548
96402SOL     OW91044   2.904   5.015  10.869
96402SOL    HW191045   2.959   5.093  10.863
96402SOL    HW291046   2.966   4.942  10.861
96403SOL     OW91047  13.650   5.273  11.876
96403SOL    HW191048  13.648   5.361  11.912
96403SOL    HW291049  13.717   5.228  11.928
96404SOL     OW91050   2.867  13.666   1.590
96404SOL    HW191051   2.928  13.619   1.534
96404SOL    HW291052   2.898  13.650   1.679
96405SOL     OW91053  12.433   5.158  11.293
96405SOL    HW191054  12.471   5.073  11.269
96405SOL    HW291055  12.430   5.207  11.210
96406SOL     OW91056   3.892   4.084  12.691
96406SOL    HW191057   3.872   4.083  12.784
96406SOL    HW291058   3.822   4.033  12.651
96407SOL     OW91059   5.920   6.338   5.696
96407SOL    HW191060   5.922   6.283   5.618
96407SOL    HW291061   6.004   6.320   5.740
96408SOL     OW91062  10.525   4.481  12.428
96408SOL    HW191063  10.572   4.532  12.363
96408SOL    HW291064  10.459   4.433  12.378
96409SOL     OW91065   3.575  11.426   7.212
96409SOL    HW191066   3.648  11.386   7.166
96409SOL    HW291067   3.563  11.373   7.290
96410SOL     OW91068   9.618  12.115  10.653
96410SOL    HW191069   9.631  12.100  10.559
96410SOL    HW291070   9.526  12.141  10.661
96411SOL     OW91071   1.027   9.654   7.111
96411SOL    HW191072   1.025   9.747   7.132
96411SOL    HW291073   1.044   9.650   7.017
96412SOL     OW91074   6.104   6.477  13.337
96412SOL    HW191075   6.087   6.451  13.247
96412SOL    HW291076   6.022   6.460  13.383
96413SOL     OW91077   5.488  13.752   3.264
96413SOL    HW191078   5.475  13.660   3.289
96413SOL    HW291079   5.405  13.795   3.285
96414SOL     OW91080   2.553   9.362  11.620
96414SOL    HW191081   2.518   9.296  11.680
96414SOL    HW291082   2.529   9.446  11.660
96415SOL     OW91083   0.318  11.165   8.018
96415SOL    HW191084   0.361  11.222   8.082
96415SOL    HW291085   0.242  11.130   8.065
96416SOL     OW91086  11.994   7.290   8.710
96416SOL    HW191087  12.031   7.216   8.661
96416SOL    HW291088  12.031   7.368   8.667
96417SOL     OW91089   8.469   2.731  10.110
96417SOL    HW191090   8.529   2.657  10.110
96417SOL    HW291091   8.521   2.805  10.142
96418SOL     OW91092   2.546   7.237   2.609
96418SOL    HW191093   2.488   7.180   2.557
96418SOL    HW291094   2.575   7.304   2.547
96419SOL     OW91095  13.634  13.966   4.391
96419SOL    HW191096  13.539  13.961   4.404
96419SOL    HW291097  13.671  13.952   4.478
96420SOL     OW91098  13.222   4.203   1.939
96420SOL    HW191099  13.221   4.107   1.935
96420SOL    HW291100  13.309   4.225   1.972
96421SOL     OW91101   0.532  14.574   8.810
96421SOL    HW191102   0.473  14.511   8.853
96421SOL    HW291103   0.509  14.658   8.848
96422SOL     OW91104   9.300  11.646   8.757
96422SOL    HW191105   9.358  11.569   8.751
96422SOL    HW291106   9.214  11.613   8.731
96423SOL     OW91107   0.225   5.264   8.302
96423SOL    HW191108   0.302   5.248   8.246
96423SOL    HW291109   0.250   5.228   8.387
96424SOL     OW91110   6.613  14.208   3.516
96424SOL    HW191111   6.563  14.126   3.518
96424SOL    HW291112   6.582  14.256   3.593
96425SOL     OW91113   9.106   2.939   6.002
96425SOL    HW191114   9.066   2.948   5.916
96425SOL    HW291115   9.171   3.010   6.005
96426SOL     OW91116   2.746   0.900   2.002
96426SOL    HW191117   2.775   0.879   1.914
96426SOL    HW291118   2.801   0.974   2.029
96427SOL     OW91119   7.539   8.011  11.773
96427SOL    HW191120   7.554   7.977  11.861
96427SOL    HW291121   7.468   7.957  11.738
96428SOL     OW91122   1.970   3.906  10.359
96428SOL    HW191123   1.977   3.967  10.286
96428SOL    HW291124   1.939   3.959  10.433
96429SOL     OW91125   5.689  14.747  12.663
96429SOL    HW191126   5.706  14.838  12.639
96429SOL    HW291127   5.745  14.695  12.604
96430SOL     OW91128   1.197   7.199   5.544
96430SOL    HW191129   1.146   7.231   5.469
96430SOL    HW291130   1.131   7.169   5.607
96431SOL     OW91131   2.680   6.403   9.230
96431SOL    HW191132   2.738   6.478   9.239
96431SOL    HW291133   2.712   6.355   9.154
96432SOL     OW91134   3.534   9.079   8.621
96432SOL    HW191135   3.475   9.112   8.689
96432SOL    HW291136   3.594   9.021   8.668
96433SOL     OW91137  12.543   3.314  13.607
96433SOL    HW191138  12.558   3.329  13.701
96433SOL    HW291139  12.629   3.288  13.574
96434SOL     OW91140   6.489   3.578  10.104
96434SOL    HW191141   6.478   3.637  10.029
96434SOL    HW291142   6.557   3.517  10.077
96435SOL     OW91143   7.747  12.008   7.888
96435SOL    HW191144   7.756  12.059   7.969
96435SOL    HW291145   7.835  12.006   7.851
96436SOL     OW91146   6.022   0.057   5.624
96436SOL    HW191147   6.107   0.015   5.631
96436SOL    HW291148   5.969   0.016   5.692
96437SOL     OW91149  11.718   3.740   6.172
96437SOL    HW191150  11.721   3.767   6.264
96437SOL    HW291151  11.752   3.651   6.173
96438SOL     OW91152   0.854   8.154   9.918
96438SOL    HW191153   0.922   8.167   9.983
96438SOL    HW291154   0.773   8.148   9.968
96439SOL     OW91155   7.660  13.603  13.504
96439SOL    HW191156   7.636  13.690  13.471
96439SOL    HW291157   7.603  13.590  13.580
96440SOL     OW91158  13.430   6.102   6.165
96440SOL    HW191159  13.372   6.158   6.216
96440SOL    HW291160  13.517   6.120   6.199
96441SOL     OW91161   9.648  12.651  11.502
96441SOL    HW191162   9.582  12.597  11.546
96441SOL    HW291163   9.602  12.733  11.481
96442SOL     OW91164   7.101   5.724   4.237
96442SOL    HW191165   7.138   5.638   4.221
96442SOL    HW291166   7.021   5.727   4.184
96443SOL     OW91167   9.461  10.208   6.577
96443SOL    HW191168   9.462  10.300   6.605
96443SOL    HW291169   9.426  10.210   6.488
96444SOL     OW91170   0.901  12.333   6.671
96444SOL    HW191171   0.922  12.248   6.634
96444SOL    HW291172   0.807  12.344   6.654
96445SOL     OW91173  11.806   4.891   9.298
96445SOL    HW191174  11.875   4.871   9.234
96445SOL    HW291175  11.821   4.830   9.370
96446SOL     OW91176  12.642   7.981   3.478
96446SOL    HW191177  12.711   8.005   3.417
96446SOL    HW291178  12.579   8.053   3.473
96447SOL     OW91179   7.525  12.572   3.342
96447SOL    HW191180   7.529  12.647   3.282
96447SOL    HW291181   7.560  12.499   3.291
96448SOL     OW91182   0.970   9.871   4.462
96448SOL    HW191183   1.060   9.853   4.491
96448SOL    HW291184   0.915   9.826   4.526
96449SOL     OW91185   3.099   0.177  12.937
96449SOL    HW191186   3.049   0.237  12.881
96449SOL    HW291187   3.099   0.220  13.022
96450SOL     OW91188  10.756   7.553  14.131
96450SOL    HW191189  10.843   7.561  14.169
96450SOL    HW291190  10.698   7.596  14.195
96451SOL     OW91191   5.034   4.592   1.642
96451SOL    HW191192   5.014   4.673   1.689
96451SOL    HW291193   4.950   4.547   1.633
96452SOL     OW91194   8.751   9.112   8.719
96452SOL    HW191195   8.813   9.101   8.792
96452SOL    HW291196   8.708   9.026   8.712
96453SOL     OW91197   5.406   4.556   1.637
96453SOL    HW191198   5.479   4.607   1.602
96453SOL    HW291199   5.426   4.545   1.729
96454SOL     OW91200  10.853   4.601   1.269
96454SOL    HW191201  10.939   4.563   1.285
96454SOL    HW291202  10.818   4.550   1.196
96455SOL     OW91203   8.932  11.032  12.500
96455SOL    HW191204   8.918  10.940  12.480
96455SOL    HW291205   8.857  11.056  12.555
96456SOL     OW91206   5.226  14.092  12.427
96456SOL    HW191207   5.295  14.058  12.370
96456SOL    HW291208   5.146  14.048  12.396
96457SOL     OW91209   1.757   4.767   8.124
96457SOL    HW191210   1.780   4.844   8.176
96457SOL    HW291211   1.726   4.802   8.041
96458SOL     OW91212   2.429   2.242  10.801
96458SOL    HW191213   2.492   2.198  10.858
96458SOL    HW291214   2.426   2.332  10.834
96459SOL     OW91215   7.251   4.264  12.137
96459SOL    HW191216   7.196   4.341  12.149
96459SOL    HW291217   7.341   4.296  12.144
96460SOL     OW91218  10.602   1.671   7.257
96460SOL    HW191219  10.526   1.728   7.273
96460SOL    HW291220  10.672   1.710   7.310
96461SOL     OW91221  14.875   6.020   8.948
96461SOL    HW191222  14.824   6.001   8.869
96461SOL    HW291223  14.819   5.992   9.020
96462SOL     OW91224   6.782  12.281   0.268
96462SOL    HW191225   6.725  12.352   0.297
96462SOL    HW291226   6.734  12.238   0.197
96463SOL     OW91227   2.201   7.704  10.784
96463SOL    HW191228   2.235   7.718  10.872
96463SOL    HW291229   2.126   7.646  10.796
96464SOL     OW91230   1.647  11.182  12.803
96464SOL    HW191231   1.689  11.252  12.853
96464SOL    HW291232   1.715  11.115  12.794
96465SOL     OW91233  13.382   0.257   4.550
96465SOL    HW191234  13.338   0.342   4.557
96465SOL    HW291235  13.458   0.274   4.495
96466SOL     OW91236   2.287   1.420   9.667
96466SOL    HW191237   2.362   1.473   9.641
96466SOL    HW291238   2.229   1.481   9.712
96467SOL     OW91239  11.360   4.270  14.510
96467SOL    HW191240  11.332   4.320  14.434
96467SOL    HW291241  11.330   4.322  14.585
96468SOL     OW91242  10.931   1.402  13.452
96468SOL    HW191243  10.840   1.420  13.478
96468SOL    HW291244  10.945   1.459  13.376
96469SOL     OW91245   7.748  10.956  12.273
96469SOL    HW191246   7.718  10.865  12.274
96469SOL    HW291247   7.769  10.973  12.181
96470SOL     OW91248   1.702   9.555   7.715
96470SOL    HW191249   1.627   9.517   7.761
96470SOL    HW291250   1.774   9.496   7.734
96471SOL     OW91251   3.501   6.233   7.005
96471SOL    HW191252   3.499   6.306   7.068
96471SOL    HW291253   3.423   6.248   6.951
96472SOL     OW91254   2.766  11.710   7.101
96472SOL    HW191255   2.703  11.780   7.120
96472SOL    HW291256   2.834  11.720   7.167
96473SOL     OW91257  10.714   2.115  14.135
96473SOL    HW191258  10.636   2.121  14.190
96473SOL    HW291259  10.762   2.197  14.151
96474SOL     OW91260   2.908   0.994   5.951
96474SOL    HW191261   2.863   0.913   5.977
96474SOL    HW291262   2.842   1.063   5.962
96475SOL     OW91263   0.467  13.193   7.895
96475SOL    HW191264   0.467  13.166   7.987
96475SOL    HW291265   0.548  13.244   7.885
96476SOL     OW91266   7.277   2.166  11.649
96476SOL    HW191267   7.362   2.182  11.610
96476SOL    HW291268   7.251   2.080  11.614
96477SOL     OW91269  13.234   7.568  11.110
96477SOL    HW191270  13.295   7.562  11.036
96477SOL    HW291271  13.289   7.552  11.187
96478SOL     OW91272   7.890  10.474   8.844
96478SOL    HW191273   7.958  10.444   8.785
96478SOL    HW291274   7.910  10.433   8.928
96479SOL     OW91275  12.587   3.711   4.475
96479SOL    HW191276  12.642   3.666   4.411
96479SOL    HW291277  12.646   3.731   4.548
96480SOL     OW91278   6.785   1.544   9.509
96480SOL    HW191279   6.707   1.592   9.484
96480SOL    HW291280   6.825   1.518   9.426
96481SOL     OW91281   1.034   1.984   1.510
96481SOL    HW191282   0.965   1.934   1.466
96481SOL    HW291283   0.998   2.002   1.597
96482SOL     OW91284   1.703   7.890   1.936
96482SOL    HW191285   1.626   7.842   1.965
96482SOL    HW291286   1.750   7.910   2.017
96483SOL     OW91287   3.672   2.812   9.845
96483SOL    HW191288   3.654   2.893   9.894
96483SOL    HW291289   3.745   2.772   9.892
96484SOL     OW91290   6.316  13.195   3.278
96484SOL    HW191291   6.330  13.223   3.368
96484SOL    HW291292   6.383  13.243   3.228
96485SOL     OW91293  10.048  10.025  14.497
96485SOL    HW191294   9.967   9.984  14.468
96485SOL    HW291295  10.048  10.112  14.456
96486SOL     OW91296   1.863   8.836   5.513
96486SOL    HW191297   1.944   8.786   5.504
96486SOL    HW291298   1.890   8.927   5.511
96487SOL     OW91299  12.635   6.770  14.830
96487SOL    HW191300  12.626   6.698   0.015
96487SOL    HW291301  12.669   6.842   0.006
96488SOL     OW91302   7.936  14.339   6.138
96488SOL    HW191303   7.916  14.246   6.128
96488SOL    HW291304   8.016  14.351   6.086
96489SOL     OW91305   2.012  12.605   5.346
96489SOL    HW191306   2.058  12.689   5.347
96489SOL    HW291307   2.066  12.547   5.400
96490SOL     OW91308  10.818   5.887  12.911
96490SOL    HW191309  10.787   5.844  12.991
96490SOL    HW291310  10.765   5.967  12.905
96491SOL     OW91311   9.237  11.197  11.742
96491SOL    HW191312   9.157  11.248  11.754
96491SOL    HW291313   9.307  11.255  11.773
96492SOL     OW91314  13.176  14.191   8.000
96492SOL    HW191315  13.148  14.282   8.006
96492SOL    HW291316  13.256  14.194   7.947
96493SOL     OW91317   7.357   0.937   2.758
96493SOL    HW191318   7.282   0.890   2.723
96493SOL    HW291319   7.432   0.901   2.711
96494SOL     OW91320   4.492  12.917   1.492
96494SOL    HW191321   4.432  12.846   1.467
96494SOL    HW291322   4.463  12.992   1.439
96495SOL     OW91323   2.439   4.923   0.108
96495SOL    HW191324   2.529   4.934   0.077
96495SOL    HW291325   2.449   4.882   0.194
96496SOL     OW91326   6.228   9.745   0.364
96496SOL    HW191327   6.307   9.743   0.310
96496SOL    HW291328   6.228   9.833   0.403
96497SOL     OW91329   9.859   3.130   6.934
96497SOL    HW191330   9.869   3.166   7.023
96497SOL    HW291331   9.819   3.044   6.948
96498SOL     OW91332   1.877  12.996  12.422
96498SOL    HW191333   1.946  12.941  12.458
96498SOL    HW291334   1.800  12.975  12.475
96499SOL     OW91335   9.143   8.857  11.445
96499SOL    HW191336   9.199   8.799  11.497
96499SOL    HW291337   9.060   8.809  11.437
96500SOL     OW91338   5.838  13.769   5.881
96500SOL    HW191339   5.914  13.732   5.925
96500SOL    HW291340   5.801  13.830   5.945
96501SOL     OW91341   1.354   2.995   2.716
96501SOL    HW191342   1.397   3.079   2.729
96501SOL    HW291343   1.361   2.951   2.801
96502SOL     OW91344   9.459   5.862   1.817
96502SOL    HW191345   9.386   5.914   1.851
96502SOL    HW291346   9.422   5.775   1.803
96503SOL     OW91347  12.418   6.433  10.332
96503SOL    HW191348  12.426   6.496  10.403
96503SOL    HW291349  12.480   6.363  10.354
96504SOL     OW91350  12.841   8.571   8.336
96504SOL    HW191351  12.914   8.539   8.285
96504SOL    HW291352  12.766   8.518   8.308
96505SOL     OW91353   6.172   2.000   7.079
96505SOL    HW191354   6.198   1.909   7.096
96505SOL    HW291355   6.254   2.049   7.081
96506SOL     OW91356  11.456  13.419  14.447
96506SOL    HW191357  11.535  13.456  14.407
96506SOL    HW291358  11.410  13.494  14.483
96507SOL     OW91359   9.462  13.447   9.070
96507SOL    HW191360   9.372  13.476   9.085
96507SOL    HW291361   9.516  13.510   9.117
96508SOL     OW91362   4.246  11.534   7.437
96508SOL    HW191363   4.175  11.598   7.438
96508SOL    HW291364   4.326  11.586   7.429
96509SOL     OW91365   3.095  14.381  12.372
96509SOL    HW191366   3.017  14.382  12.316
96509SOL    HW291367   3.147  14.455  12.341
96510SOL     OW91368   6.923   1.960   2.418
96510SOL    HW191369   6.981   2.034   2.400
96510SOL    HW291370   6.905   1.965   2.512
96511SOL     OW91371  11.653   0.587   8.027
96511SOL    HW191372  11.659   0.649   8.100
96511SOL    HW291373  11.595   0.630   7.964
96512SOL     OW91374   1.285  10.591   1.760
96512SOL    HW191375   1.263  10.614   1.670
96512SOL    HW291376   1.264  10.669   1.811
96513SOL     OW91377  13.570  10.105   9.164
96513SOL    HW191378  13.653  10.093   9.117
96513SOL    HW291379  13.587  10.069   9.252
96514SOL     OW91380   5.548   3.367   4.355
96514SOL    HW191381   5.524   3.297   4.416
96514SOL    HW291382   5.591   3.322   4.283
96515SOL     OW91383   6.014   0.669   6.346
96515SOL    HW191384   6.059   0.673   6.261
96515SOL    HW291385   5.926   0.703   6.328
96516SOL     OW91386  13.395   8.585   4.969
96516SOL    HW191387  13.337   8.566   4.895
96516SOL    HW291388  13.372   8.674   4.995
96517SOL     OW91389  10.665   7.390   4.455
96517SOL    HW191390  10.605   7.351   4.391
96517SOL    HW291391  10.658   7.484   4.438
96518SOL     OW91392   2.883  12.528   1.551
96518SOL    HW191393   2.958  12.543   1.609
96518SOL    HW291394   2.919  12.534   1.463
96519SOL     OW91395  12.020   4.744   0.051
96519SOL    HW191396  12.013   4.732   0.146
96519SOL    HW291397  11.958   4.682   0.014
96520SOL     OW91398  12.368   5.929   8.600
96520SOL    HW191399  12.278   5.961   8.605
96520SOL    HW291400  12.417   5.983   8.662
96521SOL     OW91401   9.516  14.634   3.873
96521SOL    HW191402   9.477  14.571   3.812
96521SOL    HW291403   9.449  14.645   3.941
96522SOL     OW91404  14.868   6.972  11.267
96522SOL    HW191405   0.055   6.911  11.303
96522SOL    HW291406   0.021   6.987  11.177
96523SOL     OW91407   3.879  13.090   3.956
96523SOL    HW191408   3.805  13.033   3.937
96523SOL    HW291409   3.856  13.174   3.916
96524SOL     OW91410   0.455   3.026  10.456
96524SOL    HW191411   0.511   3.081  10.512
96524SOL    HW291412   0.451   2.942  10.502
96525SOL     OW91413   4.023  14.550  10.504
96525SOL    HW191414   4.042  14.510  10.420
96525SOL    HW291415   4.068  14.634  10.502
96526SOL     OW91416   7.552   6.622  11.279
96526SOL    HW191417   7.568   6.558  11.350
96526SOL    HW291418   7.561   6.571  11.199
96527SOL     OW91419   4.727   8.496  13.498
96527SOL    HW191420   4.708   8.548  13.420
96527SOL    HW291421   4.641   8.471  13.532
96528SOL     OW91422   5.361   7.841  11.449
96528SOL    HW191423   5.341   7.758  11.494
96528SOL    HW291424   5.281   7.893  11.459
96529SOL     OW91425   2.827   4.828  10.548
96529SOL    HW191426   2.747   4.776  10.542
96529SOL    HW291427   2.891   4.770  10.590
96530SOL     OW91428   5.037  10.503  10.168
96530SOL    HW191429   5.123  10.546  10.161
96530SOL    HW291430   5.033  10.445  10.092
96531SOL     OW91431  10.377   4.819  10.925
96531SOL    HW191432  10.342   4.834  10.837
96531SOL    HW291433  10.403   4.727  10.925
96532SOL     OW91434   2.831   0.990   1.425
96532SOL    HW191435   2.913   1.029   1.396
96532SOL    HW291436   2.763   1.040   1.378
96533SOL     OW91437   5.014   5.206   1.742
96533SOL    HW191438   4.921   5.225   1.732
96533SOL    HW291439   5.022   5.173   1.831
96534SOL     OW91440   7.021   4.268   8.878
96534SOL    HW191441   6.933   4.304   8.886
96534SOL    HW291442   7.031   4.211   8.955
96535SOL     OW91443   7.488  13.206   6.434
96535SOL    HW191444   7.419  13.238   6.377
96535SOL    HW291445   7.446  13.139   6.488
96536SOL     OW91446   8.125   1.281   4.939
96536SOL    HW191447   8.178   1.360   4.926
96536SOL    HW291448   8.120   1.241   4.853
96537SOL     OW91449   8.721   3.149   5.263
96537SOL    HW191450   8.743   3.192   5.180
96537SOL    HW291451   8.641   3.100   5.243
96538SOL     OW91452   9.963   7.141  10.751
96538SOL    HW191453   9.870   7.135  10.730
96538SOL    HW291454  10.001   7.194  10.681
96539SOL     OW91455   1.256   2.075   7.573
96539SOL    HW191456   1.209   2.155   7.596
96539SOL    HW291457   1.217   2.047   7.491
96540SOL     OW91458   0.733  10.846   3.594
96540SOL    HW191459   0.685  10.790   3.534
96540SOL    HW291460   0.811  10.874   3.545
96541SOL     OW91461   9.883  10.547  10.415
96541SOL    HW191462   9.832  10.581  10.341
96541SOL    HW291463   9.831  10.474  10.449
96542SOL     OW91464   2.233  13.212   4.995
96542SOL    HW191465   2.236  13.228   4.900
96542SOL    HW291466   2.195  13.292   5.031
96543SOL     OW91467   8.178   5.670   7.879
96543SOL    HW191468   8.166   5.636   7.968
96543SOL    HW291469   8.159   5.764   7.887
96544SOL     OW91470   1.999   8.371   0.564
96544SOL    HW191471   2.054   8.310   0.515
96544SOL    HW291472   1.932   8.316   0.604
96545SOL     OW91473   2.997   9.626   9.636
96545SOL    HW191474   2.929   9.666   9.582
96545SOL    HW291475   3.063   9.594   9.574
96546SOL     OW91476  10.822   0.415  12.616
96546SOL    HW191477  10.848   0.488  12.561
96546SOL    HW291478  10.752   0.450  12.671
96547SOL     OW91479  12.401   1.281   8.673
96547SOL    HW191480  12.313   1.282   8.637
96547SOL    HW291481  12.453   1.331   8.610
96548SOL     OW91482  10.459   2.571  14.138
96548SOL    HW191483  10.414   2.540  14.217
96548SOL    HW291484  10.399   2.635  14.100
96549SOL     OW91485  14.430   9.950   1.714
96549SOL    HW191486  14.379  10.031   1.717
96549SOL    HW291487  14.442   9.932   1.621
96550SOL     OW91488   1.651  14.497  13.114
96550SOL    HW191489   1.644  14.415  13.065
96550SOL    HW291490   1.732  14.488  13.164
96551SOL     OW91491   4.826   5.454   5.703
96551SOL    HW191492   4.889   5.501   5.649
96551SOL    HW291493   4.757   5.519   5.720
96552SOL     OW91494  12.039  12.078   2.008
96552SOL    HW191495  11.955  12.116   2.034
96552SOL    HW291496  12.085  12.062   2.090
96553SOL     OW91497   2.470  14.494   0.589
96553SOL    HW191498   2.387  14.535   0.614
96553SOL    HW291499   2.470  14.410   0.635
96554SOL     OW91500   4.444  11.417  11.033
96554SOL    HW191501   4.500  11.488  11.002
96554SOL    HW291502   4.356  11.440  11.002
96555SOL     OW91503   2.216   9.798  12.768
96555SOL    HW191504   2.287   9.847  12.810
96555SOL    HW291505   2.195   9.849  12.690
96556SOL     OW91506   7.704   6.995   7.803
96556SOL    HW191507   7.761   6.990   7.880
96556SOL    HW291508   7.671   7.085   7.804
96557SOL     OW91509  13.617  12.366  13.310
96557SOL    HW191510  13.600  12.297  13.245
96557SOL    HW291511  13.685  12.420  13.271
96558SOL     OW91512   3.300   8.574   7.244
96558SOL    HW191513   3.224   8.545   7.193
96558SOL    HW291514   3.363   8.603   7.178
96559SOL     OW91515   4.482   6.615  13.773
96559SOL    HW191516   4.552   6.623  13.708
96559SOL    HW291517   4.426   6.691  13.758
96560SOL     OW91518   7.633  13.700  10.321
96560SOL    HW191519   7.629  13.796  10.321
96560SOL    HW291520   7.565  13.674  10.384
96561SOL     OW91521   8.402   7.605   2.118
96561SOL    HW191522   8.397   7.584   2.024
96561SOL    HW291523   8.316   7.644   2.137
96562SOL     OW91524   0.688  11.982   6.016
96562SOL    HW191525   0.694  11.889   6.040
96562SOL    HW291526   0.778  12.014   6.019
96563SOL     OW91527   3.064   4.937   5.578
96563SOL    HW191528   2.991   4.883   5.548
96563SOL    HW291529   3.022   5.017   5.611
96564SOL     OW91530  14.380  12.027   8.517
96564SOL    HW191531  14.459  11.975   8.528
96564SOL    HW291532  14.339  11.992   8.438
96565SOL     OW91533   5.907  13.780  13.644
96565SOL    HW191534   5.948  13.716  13.702
96565SOL    HW291535   5.957  13.773  13.562
96566SOL     OW91536   5.960  11.896   6.286
96566SOL    HW191537   5.961  11.822   6.347
96566SOL    HW291538   5.905  11.961   6.329
96567SOL     OW91539   3.705   6.740  10.361
96567SOL    HW191540   3.691   6.780  10.275
96567SOL    HW291541   3.695   6.812  10.422
96568SOL     OW91542   6.327  13.817   3.456
96568SOL    HW191543   6.398  13.841   3.397
96568SOL    HW291544   6.325  13.721   3.453
96569SOL     OW91545  14.215   7.769   9.246
96569SOL    HW191546  14.243   7.765   9.155
96569SOL    HW291547  14.123   7.741   9.245
96570SOL     OW91548  14.856  12.474   6.086
96570SOL    HW191549  14.830  12.401   6.029
96570SOL    HW291550   0.042  12.524   6.033
96571SOL     OW91551   4.336  13.490  14.812
96571SOL    HW191552   4.400  13.536  14.757
96571SOL    HW291553   4.291  13.559  14.860
96572SOL     OW91554   7.294   1.285   8.062
96572SOL    HW191555   7.242   1.260   8.139
96572SOL    HW291556   7.346   1.359   8.092
96573SOL     OW91557   7.741   2.704   2.562
96573SOL    HW191558   7.829   2.731   2.536
96573SOL    HW291559   7.688   2.784   2.553
96574SOL     OW91560  14.108   7.600   2.735
96574SOL    HW191561  14.015   7.618   2.725
96574SOL    HW291562  14.148   7.632   2.654
96575SOL     OW91563   9.919  10.979   0.177
96575SOL    HW191564   9.836  11.022   0.159
96575SOL    HW291565   9.954  11.025   0.254
96576SOL     OW91566   6.804   0.975   8.690
96576SOL    HW191567   6.885   0.936   8.657
96576SOL    HW291568   6.832   1.054   8.736
96577SOL     OW91569   1.448   2.038  14.244
96577SOL    HW191570   1.410   2.124  14.261
96577SOL    HW291571   1.500   2.019  14.322
96578SOL     OW91572   5.200   2.429  14.573
96578SOL    HW191573   5.109   2.436  14.602
96578SOL    HW291574   5.204   2.481  14.493
96579SOL     OW91575   4.706   5.228  12.042
96579SOL    HW191576   4.785   5.178  12.023
96579SOL    HW291577   4.687   5.209  12.134
96580SOL     OW91578   8.637  11.635   3.576
96580SOL    HW191579   8.648  11.686   3.657
96580SOL    HW291580   8.543  11.623   3.568
96581SOL     OW91581  10.315  10.648   3.788
96581SOL    HW191582  10.382  10.716   3.793
96581SOL    HW291583  10.363  10.568   3.764
96582SOL     OW91584  11.294   7.301   1.434
96582SOL    HW191585  11.306   7.257   1.350
96582SOL    HW291586  11.346   7.381   1.427
96583SOL     OW91587  11.483   0.915  11.043
96583SOL    HW191588  11.521   0.918  10.955
96583SOL    HW291589  11.401   0.963  11.036
96584SOL     OW91590   0.680  10.143   2.722
96584SOL    HW191591   0.726  10.141   2.638
96584SOL    HW291592   0.729  10.083   2.777
96585SOL     OW91593  12.301   5.262   0.232
96585SOL    HW191594  12.268   5.351   0.236
96585SOL    HW291595  12.320   5.247   0.139
96586SOL     OW91596   6.366   1.279   8.879
96586SOL    HW191597   6.319   1.272   8.796
96586SOL    HW291598   6.366   1.373   8.899
96587SOL     OW91599  12.011   8.399   1.245
96587SOL    HW191600  12.099   8.436   1.237
96587SOL    HW291601  11.957   8.452   1.187
96588SOL     OW91602  13.788   6.042   5.702
96588SOL    HW191603  13.718   6.010   5.645
96588SOL    HW291604  13.820   6.121   5.658
96589SOL     OW91605   9.241   8.576   3.087
96589SOL    HW191606   9.241   8.554   2.994
96589SOL    HW291607   9.196   8.660   3.092
96590SOL     OW91608   4.047   3.158   8.561
96590SOL    HW191609   4.069   3.237   8.512
96590SOL    HW291610   4.114   3.094   8.534
96591SOL     OW91611   8.423   1.927   8.214
96591SOL    HW191612   8.479   1.939   8.291
96591SOL    HW291613   8.334   1.935   8.248
96592SOL     OW91614   7.576   0.787   2.675
96592SOL    HW191615   7.578   0.785   2.580
96592SOL    HW291616   7.592   0.697   2.702
96593SOL     OW91617  13.555   8.734  12.321
96593SOL    HW191618  13.516   8.821  12.307
96593SOL    HW291619  13.611   8.745  12.398
96594SOL     OW91620  10.367   6.583  10.832
96594SOL    HW191621  10.298   6.620  10.887
96594SOL    HW291622  10.429   6.544  10.894
96595SOL     OW91623  10.638  14.811   2.939
96595SOL    HW191624  10.618  14.836   3.029
96595SOL    HW291625  10.681  14.726   2.947
96596SOL     OW91626  14.683   6.208   4.820
96596SOL    HW191627  14.773   6.231   4.799
96596SOL    HW291628  14.688   6.156   4.900
96597SOL     OW91629  10.832   2.845  12.507
96597SOL    HW191630  10.892   2.919  12.510
96597SOL    HW291631  10.886   2.770  12.532
96598SOL     OW91632   5.384  13.676   6.710
96598SOL    HW191633   5.465  13.707   6.751
96598SOL    HW291634   5.364  13.594   6.756
96599SOL     OW91635   8.521   9.728   4.306
96599SOL    HW191636   8.540   9.643   4.268
96599SOL    HW291637   8.595   9.783   4.280
96600SOL     OW91638  12.672  12.258   3.988
96600SOL    HW191639  12.687  12.325   3.920
96600SOL    HW291640  12.607  12.298   4.046
96601SOL     OW91641  10.461   9.565  11.030
96601SOL    HW191642  10.487   9.581  10.939
96601SOL    HW291643  10.377   9.610  11.039
96602SOL     OW91644   8.538   4.757   0.777
96602SOL    HW191645   8.455   4.800   0.758
96602SOL    HW291646   8.516   4.664   0.784
96603SOL     OW91647   9.579  12.880   2.760
96603SOL    HW191648   9.590  12.943   2.689
96603SOL    HW291649   9.514  12.818   2.727
96604SOL     OW91650   7.424   7.055   0.954
96604SOL    HW191651   7.366   7.127   0.930
96604SOL    HW291652   7.495   7.060   0.889
96605SOL     OW91653   9.369   3.331   1.627
96605SOL    HW191654   9.401   3.267   1.691
96605SOL    HW291655   9.380   3.287   1.543
96606SOL     OW91656   5.031   5.185  12.493
96606SOL    HW191657   4.979   5.121  12.542
96606SOL    HW291658   5.023   5.157  12.402
96607SOL     OW91659  11.098   2.979  12.614
96607SOL    HW191660  11.167   2.915  12.595
96607SOL    HW291661  11.124   3.057  12.566
96608SOL     OW91662  10.991  10.697  14.441
96608SOL    HW191663  10.928  10.639  14.482
96608SOL    HW291664  11.055  10.638  14.400
96609SOL     OW91665   4.725   5.614  11.110
96609SOL    HW191666   4.698   5.536  11.158
96609SOL    HW291667   4.757   5.673  11.178
96610SOL     OW91668   8.627   7.559   9.605
96610SOL    HW191669   8.573   7.494   9.649
96610SOL    HW291670   8.712   7.518   9.596
96611SOL     OW91671   3.104   0.467   4.543
96611SOL    HW191672   3.188   0.433   4.575
96611SOL    HW291673   3.127   0.519   4.466
96612SOL     OW91674  14.198  10.807   7.850
96612SOL    HW191675  14.110  10.803   7.815
96612SOL    HW291676  14.230  10.894   7.826
96613SOL     OW91677   0.790   5.526   1.253
96613SOL    HW191678   0.776   5.485   1.338
96613SOL    HW291679   0.786   5.454   1.190
96614SOL     OW91680   4.800  10.321  11.997
96614SOL    HW191681   4.711  10.327  12.032
96614SOL    HW291682   4.852  10.375  12.056
96615SOL     OW91683  13.187  14.188  14.282
96615SOL    HW191684  13.119  14.250  14.257
96615SOL    HW291685  13.139  14.115  14.321
96616SOL     OW91686  14.443   8.071   5.335
96616SOL    HW191687  14.475   8.024   5.259
96616SOL    HW291688  14.347   8.069   5.326
96617SOL     OW91689   9.392   3.172   4.871
96617SOL    HW191690   9.406   3.093   4.923
96617SOL    HW291691   9.336   3.144   4.798
96618SOL     OW91692  13.915   3.447   4.514
96618SOL    HW191693  13.939   3.537   4.539
96618SOL    HW291694  13.972   3.427   4.440
96619SOL     OW91695  12.675   3.056   0.237
96619SOL    HW191696  12.757   3.009   0.223
96619SOL    HW291697  12.683   3.094   0.324
96620SOL     OW91698  11.873  10.672  13.330
96620SOL    HW191699  11.812  10.598  13.328
96620SOL    HW291700  11.903  10.682  13.240
96621SOL     OW91701   3.760  13.067  11.522
96621SOL    HW191702   3.804  12.991  11.483
96621SOL    HW291703   3.831  13.128  11.542
96622SOL     OW91704  11.019   9.923   0.419
96622SOL    HW191705  10.925   9.942   0.417
96622SOL    HW291706  11.024   9.833   0.451
96623SOL     OW91707   3.246   7.157   8.775
96623SOL    HW191708   3.216   7.235   8.821
96623SOL    HW291709   3.166   7.113   8.748
96624SOL     OW91710  10.326  13.010  14.575
96624SOL    HW191711  10.313  13.105  14.566
96624SOL    HW291712  10.413  12.994  14.539
96625SOL     OW91713  13.542   3.102  11.363
96625SOL    HW191714  13.528   3.011  11.390
96625SOL    HW291715  13.577   3.095  11.274
96626SOL     OW91716  13.478  10.337  12.860
96626SOL    HW191717  13.508  10.248  12.879
96626SOL    HW291718  13.385  10.328  12.843
96627SOL     OW91719   0.179   6.642   6.642
96627SOL    HW191720   0.207   6.644   6.550
96627SOL    HW291721   0.203   6.729   6.676
96628SOL     OW91722   3.582   7.569  10.884
96628SOL    HW191723   3.514   7.520  10.837
96628SOL    HW291724   3.613   7.634  10.821
96629SOL     OW91725   5.273  10.567  12.961
96629SOL    HW191726   5.334  10.524  13.022
96629SOL    HW291727   5.288  10.660  12.975
96630SOL     OW91728   9.513  12.406  10.894
96630SOL    HW191729   9.597  12.451  10.902
96630SOL    HW291730   9.527  12.320  10.933
96631SOL     OW91731   3.754  14.309   3.548
96631SOL    HW191732   3.711  14.224   3.539
96631SOL    HW291733   3.787  14.329   3.460
96632SOL     OW91734   9.717  11.700  10.677
96632SOL    HW191735   9.697  11.756  10.752
96632SOL    HW291736   9.640  11.645  10.666
96633SOL     OW91737   2.545  11.826   1.396
96633SOL    HW191738   2.527  11.918   1.415
96633SOL    HW291739   2.631  11.827   1.354
96634SOL     OW91740  13.946   1.599   7.245
96634SOL    HW191741  14.033   1.629   7.216
96634SOL    HW291742  13.960   1.508   7.271
96635SOL     OW91743  10.714   9.165  12.279
96635SOL    HW191744  10.739   9.166  12.371
96635SOL    HW291745  10.798   9.158  12.232
96636SOL     OW91746  10.525   9.834   7.425
96636SOL    HW191747  10.538   9.741   7.446
96636SOL    HW291748  10.547   9.880   7.506
96637SOL     OW91749  14.464   8.292   0.530
96637SOL    HW191750  14.396   8.245   0.481
96637SOL    HW291751  14.547   8.255   0.498
96638SOL     OW91752   9.467   0.195   9.317
96638SOL    HW191753   9.478   0.197   9.222
96638SOL    HW291754   9.551   0.224   9.352
96639SOL     OW91755   0.840   9.526  13.534
96639SOL    HW191756   0.774   9.493  13.474
96639SOL    HW291757   0.807   9.611  13.563
96640SOL     OW91758  13.382  10.844  13.598
96640SOL    HW191759  13.468  10.865  13.634
96640SOL    HW291760  13.367  10.911  13.530
96641SOL     OW91761   6.369  10.552   7.215
96641SOL    HW191762   6.461  10.546   7.241
96641SOL    HW291763   6.368  10.524   7.124
96642SOL     OW91764  13.130   3.430  12.286
96642SOL    HW191765  13.069   3.384  12.344
96642SOL    HW291766  13.123   3.386  12.202
96643SOL     OW91767   6.941   0.351   4.583
96643SOL    HW191768   6.975   0.388   4.665
96643SOL    HW291769   7.011   0.293   4.552
96644SOL     OW91770   6.468   6.396   8.046
96644SOL    HW191771   6.523   6.473   8.034
96644SOL    HW291772   6.480   6.344   7.967
96645SOL     OW91773   6.820   7.105   0.671
96645SOL    HW191774   6.753   7.062   0.725
96645SOL    HW291775   6.776   7.182   0.635
96646SOL     OW91776   8.113  13.760   7.326
96646SOL    HW191777   8.182  13.769   7.391
96646SOL    HW291778   8.092  13.667   7.326
96647SOL     OW91779   1.053  12.932   7.528
96647SOL    HW191780   1.027  13.024   7.535
96647SOL    HW291781   0.973  12.886   7.503
96648SOL     OW91782  14.645  14.696   9.624
96648SOL    HW191783  14.614  14.718   9.712
96648SOL    HW291784  14.733  14.731   9.620
96649SOL     OW91785  10.352   1.585   9.669
96649SOL    HW191786  10.293   1.558   9.739
96649SOL    HW291787  10.387   1.504   9.634
96650SOL     OW91788  14.269   9.747   8.756
96650SOL    HW191789  14.335   9.694   8.711
96650SOL    HW291790  14.248   9.696   8.834
96651SOL     OW91791   9.015   2.166   6.555
96651SOL    HW191792   9.048   2.169   6.465
96651SOL    HW291793   8.965   2.085   6.559
96652SOL     OW91794   0.814   9.269   2.080
96652SOL    HW191795   0.887   9.272   2.140
96652SOL    HW291796   0.851   9.233   1.999
96653SOL     OW91797   0.156   0.842  13.136
96653SOL    HW191798   0.230   0.900  13.120
96653SOL    HW291799   0.119   0.871  13.219
96654SOL     OW91800   9.861  12.496   7.113
96654SOL    HW191801   9.873  12.561   7.044
96654SOL    HW291802   9.823  12.420   7.069
96655SOL     OW91803   8.258  12.777  11.116
96655SOL    HW191804   8.290  12.689  11.100
96655SOL    HW291805   8.169  12.764  11.149
96656SOL     OW91806   3.035  14.192   1.345
96656SOL    HW191807   2.951  14.234   1.362
96656SOL    HW291808   3.047  14.132   1.419
96657SOL     OW91809   7.843  12.795  12.025
96657SOL    HW191810   7.877  12.774  11.939
96657SOL    HW291811   7.750  12.769  12.021
96658SOL     OW91812   6.073   1.556  13.032
96658SOL    HW191813   6.037   1.644  13.036
96658SOL    HW291814   6.042   1.513  13.112
96659SOL     OW91815   1.011   9.881  12.601
96659SOL    HW191816   0.986   9.956  12.655
96659SOL    HW291817   1.097   9.854  12.635
96660SOL     OW91818  13.500   2.877  13.678
96660SOL    HW191819  13.515   2.797  13.728
96660SOL    HW291820  13.532   2.858  13.590
96661SOL     OW91821   2.866   7.202   5.863
96661SOL    HW191822   2.800   7.150   5.818
96661SOL    HW291823   2.935   7.215   5.798
96662SOL     OW91824  13.916   4.416   3.928
96662SOL    HW191825  13.888   4.329   3.955
96662SOL    HW291826  13.936   4.406   3.835
96663SOL     OW91827  14.502   9.910   6.773
96663SOL    HW191828  14.412   9.881   6.764
96663SOL    HW291829  14.537   9.860   6.846
96664SOL     OW91830   3.773  11.905   8.821
96664SOL    HW191831   3.768  11.887   8.728
96664SOL    HW291832   3.748  11.997   8.829
96665SOL     OW91833   9.432  10.649  10.049
96665SOL    HW191834   9.413  10.693  10.132
96665SOL    HW291835   9.377  10.571  10.050
96666SOL     OW91836   6.744   7.219   6.702
96666SOL    HW191837   6.776   7.191   6.788
96666SOL    HW291838   6.778   7.308   6.691
96667SOL     OW91839  13.767   0.714  10.730
96667SOL    HW191840  13.754   0.720  10.825
96667SOL    HW291841  13.798   0.801  10.705
96668SOL     OW91842   2.291   7.564   8.965
96668SOL    HW191843   2.281   7.491   8.905
96668SOL    HW291844   2.366   7.540   9.020
96669SOL     OW91845  13.796   3.052   0.240
96669SOL    HW191846  13.701   3.058   0.250
96669SOL    HW291847  13.819   3.123   0.180
96670SOL     OW91848   2.065   6.654   5.156
96670SOL    HW191849   2.093   6.594   5.226
96670SOL    HW291850   2.140   6.712   5.144
96671SOL     OW91851   8.163   7.296   2.107
96671SOL    HW191852   8.231   7.305   2.041
96671SOL    HW291853   8.189   7.219   2.158
96672SOL     OW91854  10.558  12.869   9.414
96672SOL    HW191855  10.542  12.775   9.424
96672SOL    HW291856  10.514  12.893   9.333
96673SOL     OW91857  11.424  12.663  12.811
96673SOL    HW191858  11.383  12.695  12.892
96673SOL    HW291859  11.371  12.588  12.786
96674SOL     OW91860  14.277   5.130  14.683
96674SOL    HW191861  14.230   5.047  14.682
96674SOL    HW291862  14.322   5.133  14.598
96675SOL     OW91863  11.514   9.571  11.827
96675SOL    HW191864  11.477   9.522  11.754
96675SOL    HW291865  11.608   9.572  11.810
96676SOL     OW91866   4.738   0.776   6.695
96676SOL    HW191867   4.762   0.800   6.784
96676SOL    HW291868   4.758   0.854   6.643
96677SOL     OW91869   2.990   0.032  14.385
96677SOL    HW191870   2.901   0.038  14.349
96677SOL    HW291871   3.046   0.019  14.309
96678SOL     OW91872  13.232   0.379   9.891
96678SOL    HW191873  13.310   0.348   9.938
96678SOL    HW291874  13.249   0.472   9.876
96679SOL     OW91875   5.258   0.177   7.384
96679SOL    HW191876   5.210   0.243   7.334
96679SOL    HW291877   5.303   0.226   7.452
96680SOL     OW91878  13.995   0.598  13.608
96680SOL    HW191879  13.900   0.608  13.613
96680SOL    HW291880  14.011   0.505  13.623
96681SOL     OW91881   6.552  11.127   2.770
96681SOL    HW191882   6.609  11.166   2.703
96681SOL    HW291883   6.598  11.047   2.796
96682SOL     OW91884   5.223   1.832   3.581
96682SOL    HW191885   5.130   1.853   3.573
96682SOL    HW291886   5.261   1.854   3.496
96683SOL     OW91887  10.552   3.241   3.385
96683SOL    HW191888  10.532   3.333   3.404
96683SOL    HW291889  10.647   3.236   3.389
96684SOL     OW91890   4.915  13.471   4.730
96684SOL    HW191891   4.854  13.396   4.735
96684SOL    HW291892   4.998  13.436   4.761
96685SOL     OW91893   8.666  10.315   9.708
96685SOL    HW191894   8.712  10.247   9.659
96685SOL    HW291895   8.649  10.276   9.794
96686SOL     OW91896   8.731   2.836   5.025
96686SOL    HW191897   8.806   2.826   5.084
96686SOL    HW291898   8.768   2.866   4.943
96687SOL     OW91899   8.125  10.935   7.938
96687SOL    HW191900   8.070  10.882   7.881
96687SOL    HW291901   8.079  10.935   8.022
96688SOL     OW91902   8.957   5.469   6.599
96688SOL    HW191903   9.023   5.503   6.659
96688SOL    HW291904   8.995   5.481   6.512
96689SOL     OW91905   0.801   6.933   4.779
96689SOL    HW191906   0.807   6.890   4.864
96689SOL    HW291907   0.839   6.870   4.718
96690SOL     OW91908  12.425   7.568   3.068
96690SOL    HW191909  12.367   7.635   3.032
96690SOL    HW291910  12.431   7.501   3.000
96691SOL     OW91911   6.387   3.581   3.519
96691SOL    HW191912   6.398   3.513   3.585
96691SOL    HW291913   6.329   3.645   3.561
96692SOL     OW91914   5.727   2.293  12.026
96692SOL    HW191915   5.720   2.224  12.091
96692SOL    HW291916   5.818   2.320  12.029
96693SOL     OW91917  11.008   2.158   2.982
96693SOL    HW191918  10.966   2.220   3.042
96693SOL    HW291919  10.939   2.098   2.957
96694SOL     OW91920   6.901   1.372   0.829
96694SOL    HW191921   6.835   1.317   0.787
96694SOL    HW291922   6.851   1.445   0.866
96695SOL     OW91923   5.390   5.270  13.105
96695SOL    HW191924   5.436   5.305  13.029
96695SOL    HW291925   5.460   5.241  13.164
96696SOL     OW91926   2.229  11.419  12.228
96696SOL    HW191927   2.162  11.363  12.188
96696SOL    HW291928   2.234  11.388  12.319
96697SOL     OW91929  11.014   9.004   6.514
96697SOL    HW191930  10.935   8.955   6.492
96697SOL    HW291931  10.985   9.094   6.525
96698SOL     OW91932   5.776  12.012  11.832
96698SOL    HW191933   5.730  12.065  11.898
96698SOL    HW291934   5.795  11.930  11.876
96699SOL     OW91935  11.997  12.663   3.753
96699SOL    HW191936  12.032  12.723   3.818
96699SOL    HW291937  11.965  12.719   3.682
96700SOL     OW91938   9.508  12.074   0.305
96700SOL    HW191939   9.546  12.013   0.368
96700SOL    HW291940   9.583  12.121   0.268
96701SOL     OW91941  10.728   1.005  12.333
96701SOL    HW191942  10.670   0.994  12.257
96701SOL    HW291943  10.787   1.076  12.308
96702SOL     OW91944   2.849   4.737  13.935
96702SOL    HW191945   2.921   4.677  13.956
96702SOL    HW291946   2.888   4.824  13.942
96703SOL     OW91947   0.433   7.870   3.698
96703SOL    HW191948   0.498   7.841   3.635
96703SOL    HW291949   0.417   7.962   3.677
96704SOL     OW91950  11.310   5.539   6.594
96704SOL    HW191951  11.345   5.580   6.673
96704SOL    HW291952  11.368   5.568   6.524
96705SOL     OW91953   4.605  11.112  13.411
96705SOL    HW191954   4.556  11.177  13.360
96705SOL    HW291955   4.694  11.116  13.376
96706SOL     OW91956   6.538   2.047   7.099
96706SOL    HW191957   6.584   2.040   7.015
96706SOL    HW291958   6.460   2.099   7.079
96707SOL     OW91959   4.539   6.087   6.912
96707SOL    HW191960   4.624   6.045   6.929
96707SOL    HW291961   4.510   6.049   6.829
96708SOL     OW91962   2.095   0.443   4.539
96708SOL    HW191963   2.038   0.430   4.463
96708SOL    HW291964   2.160   0.507   4.510
96709SOL     OW91965   1.697   0.905   2.741
96709SOL    HW191966   1.785   0.942   2.754
96709SOL    HW291967   1.647   0.976   2.701
96710SOL     OW91968   6.409   1.988   9.907
96710SOL    HW191969   6.395   1.899   9.874
96710SOL    HW291970   6.499   2.008   9.884
96711SOL     OW91971   4.409   0.880  11.912
96711SOL    HW191972   4.452   0.959  11.879
96711SOL    HW291973   4.347   0.855  11.844
96712SOL     OW91974   7.045  14.699   4.468
96712SOL    HW191975   7.081  14.759   4.403
96712SOL    HW291976   7.121  14.666   4.516
96713SOL     OW91977  12.791  14.085  14.031
96713SOL    HW191978  12.826  14.170  14.007
96713SOL    HW291979  12.837  14.023  13.975
96714SOL     OW91980   9.969   6.272   0.568
96714SOL    HW191981   9.991   6.325   0.645
96714SOL    HW291982   9.879   6.242   0.584
96715SOL     OW91983   4.999   9.461   8.610
96715SOL    HW191984   5.033   9.437   8.524
96715SOL    HW291985   5.050   9.538   8.635
96716SOL     OW91986   6.473  11.149  12.536
96716SOL    HW191987   6.456  11.137  12.443
96716SOL    HW291988   6.568  11.147  12.544
96717SOL     OW91989   1.006   8.105   5.824
96717SOL    HW191990   1.084   8.071   5.782
96717SOL    HW291991   0.946   8.030   5.829
96718SOL     OW91992  12.199   6.329   9.212
96718SOL    HW191993  12.224   6.243   9.179
96718SOL    HW291994  12.155   6.311   9.295
96719SOL     OW91995  10.767   3.224  10.984
96719SOL    HW191996  10.751   3.251  11.074
96719SOL    HW291997  10.860   3.242  10.970
96720SOL     OW91998   9.282   0.395   5.110
96720SOL    HW191999   9.294   0.448   5.031
96720SOL    HW292000   9.314   0.450   5.181
96721SOL     OW92001   0.495   3.184   1.799
96721SOL    HW192002   0.578   3.162   1.756
96721SOL    HW292003   0.482   3.276   1.779
96722SOL     OW92004  10.018   7.816   1.520
96722SOL    HW192005  10.045   7.878   1.453
96722SOL    HW292006  10.089   7.817   1.584
96723SOL     OW92007  12.203   2.661   2.811
96723SOL    HW192008  12.160   2.705   2.885
96723SOL    HW292009  12.275   2.612   2.851
96724SOL     OW92010   4.774   0.070   9.796
96724SOL    HW192011   4.827   0.140   9.757
96724SOL    HW292012   4.839   0.011   9.835
96725SOL     OW92013   1.271   5.886  10.678
96725SOL    HW192014   1.194   5.835  10.703
96725SOL    HW292015   1.245   5.977  10.691
96726SOL     OW92016   0.024   6.585   2.296
96726SOL    HW192017  14.826   6.599   2.236
96726SOL    HW292018   0.059   6.673   2.310
96727SOL     OW92019   8.605   5.847   7.204
96727SOL    HW192020   8.662   5.917   7.238
96727SOL    HW292021   8.636   5.834   7.114
96728SOL     OW92022  12.753   9.677  14.645
96728SOL    HW192023  12.839   9.695  14.682
96728SOL    HW292024  12.758   9.710  14.555
96729SOL     OW92025   1.804  11.585   3.043
96729SOL    HW192026   1.802  11.612   2.952
96729SOL    HW292027   1.850  11.501   3.043
96730SOL     OW92028   5.967   6.367  11.172
96730SOL    HW192029   5.928   6.280  11.172
96730SOL    HW292030   6.059   6.352  11.194
96731SOL     OW92031   3.525   7.096  10.046
96731SOL    HW192032   3.433   7.121  10.045
96731SOL    HW292033   3.569   7.162   9.992
96732SOL     OW92034   2.073   3.839   6.196
96732SOL    HW192035   2.168   3.851   6.196
96732SOL    HW292036   2.049   3.844   6.289
96733SOL     OW92037  14.002   2.330   8.231
96733SOL    HW192038  13.953   2.270   8.287
96733SOL    HW292039  14.066   2.371   8.289
96734SOL     OW92040   0.762  12.322  11.673
96734SOL    HW192041   0.777  12.384  11.602
96734SOL    HW292042   0.846  12.316  11.719
96735SOL     OW92043   1.363   0.159   0.876
96735SOL    HW192044   1.336   0.197   0.959
96735SOL    HW292045   1.360   0.064   0.890
96736SOL     OW92046   6.158   4.469   4.245
96736SOL    HW192047   6.109   4.535   4.196
96736SOL    HW292048   6.163   4.505   4.334
96737SOL     OW92049   6.150   6.633   1.857
96737SOL    HW192050   6.142   6.726   1.878
96737SOL    HW292051   6.234   6.626   1.812
96738SOL     OW92052   0.544   5.243   6.777
96738SOL    HW192053   0.489   5.170   6.806
96738SOL    HW292054   0.481   5.311   6.753
96739SOL     OW92055  11.067  10.506   4.422
96739SOL    HW192056  11.091  10.598   4.415
96739SOL    HW292057  11.149  10.461   4.442
96740SOL     OW92058  14.065  10.870   6.365
96740SOL    HW192059  14.098  10.940   6.421
96740SOL    HW292060  14.143  10.823   6.336
96741SOL     OW92061   3.022   0.025   4.864
96741SOL    HW192062   3.005   0.115   4.891
96741SOL    HW292063   2.990   0.020   4.774
96742SOL     OW92064   5.652  10.010   1.624
96742SOL    HW192065   5.577  10.040   1.572
96742SOL    HW292066   5.636  10.046   1.712
96743SOL     OW92067  10.874   2.586  13.166
96743SOL    HW192068  10.860   2.545  13.081
96743SOL    HW292069  10.805   2.550  13.222
96744SOL     OW92070   7.235   4.837   5.656
96744SOL    HW192071   7.189   4.868   5.734
96744SOL    HW292072   7.303   4.903   5.641
96745SOL     OW92073   8.590   9.332   0.006
96745SOL    HW192074   8.573   9.264  14.817
96745SOL    HW292075   8.675   9.369  14.858
96746SOL     OW92076   3.127   9.741  10.999
96746SOL    HW192077   3.055   9.693  11.039
96746SOL    HW292078   3.152   9.806  11.066
96747SOL     OW92079   6.399   3.125   2.012
96747SOL    HW192080   6.409   3.181   2.089
96747SOL    HW292081   6.487   3.123   1.973
96748SOL     OW92082   3.051  12.281   9.615
96748SOL    HW192083   3.093  12.271   9.700
96748SOL    HW292084   3.123  12.304   9.555
96749SOL     OW92085  11.551   1.434  14.437
96749SOL    HW192086  11.518   1.388  14.514
96749SOL    HW292087  11.525   1.525  14.450
96750SOL     OW92088   8.530   2.722  11.396
96750SOL    HW192089   8.512   2.808  11.357
96750SOL    HW292090   8.476   2.719  11.475
96751SOL     OW92091   3.340   0.413   9.771
96751SOL    HW192092   3.266   0.381   9.823
96751SOL    HW292093   3.351   0.346   9.702
96752SOL     OW92094   8.346   9.249  14.541
96752SOL    HW192095   8.324   9.231  14.632
96752SOL    HW292096   8.385   9.337  14.544
96753SOL     OW92097   3.652   5.642   6.544
96753SOL    HW192098   3.666   5.636   6.450
96753SOL    HW292099   3.577   5.584   6.561
96754SOL     OW92100   8.254  14.344  14.490
96754SOL    HW192101   8.234  14.435  14.509
96754SOL    HW292102   8.187  14.294  14.535
96755SOL     OW92103   9.732   2.957  11.891
96755SOL    HW192104   9.755   3.050  11.895
96755SOL    HW292105   9.667   2.946  11.960
96756SOL     OW92106  14.575   1.107   8.679
96756SOL    HW192107  14.637   1.176   8.701
96756SOL    HW292108  14.515   1.148   8.617
96757SOL     OW92109   7.567   7.164   5.562
96757SOL    HW192110   7.539   7.193   5.476
96757SOL    HW292111   7.572   7.068   5.555
96758SOL     OW92112  11.340  14.684   3.224
96758SOL    HW192113  11.313  14.725   3.142
96758SOL    HW292114  11.302  14.740   3.292
96759SOL     OW92115  13.649  13.573   8.418
96759SOL    HW192116  13.570  13.625   8.434
96759SOL    HW292117  13.678  13.600   8.330
96760SOL     OW92118   7.936   8.123   5.208
96760SOL    HW192119   7.868   8.070   5.249
96760SOL    HW292120   7.891   8.201   5.175
96761SOL     OW92121  12.605   6.090   6.971
96761SOL    HW192122  12.523   6.110   6.927
96761SOL    HW292123  12.659   6.048   6.904
96762SOL     OW92124   0.804   0.674   1.217
96762SOL    HW192125   0.723   0.653   1.262
96762SOL    HW292126   0.804   0.770   1.211
96763SOL     OW92127   2.079   1.792   7.959
96763SOL    HW192128   2.092   1.701   7.934
96763SOL    HW292129   2.011   1.789   8.026
96764SOL     OW92130   0.471  10.661   4.400
96764SOL    HW192131   0.403  10.622   4.346
96764SOL    HW292132   0.430  10.672   4.486
96765SOL     OW92133  13.376   4.779   3.979
96765SOL    HW192134  13.326   4.829   4.044
96765SOL    HW292135  13.441   4.841   3.946
96766SOL     OW92136   9.406   4.621   4.328
96766SOL    HW192137   9.486   4.608   4.276
96766SOL    HW292138   9.407   4.715   4.350
96767SOL     OW92139   2.437   4.297   3.038
96767SOL    HW192140   2.401   4.234   3.100
96767SOL    HW292141   2.462   4.244   2.962
96768SOL     OW92142   3.728   9.978   6.291
96768SOL    HW192143   3.740  10.002   6.200
96768SOL    HW292144   3.653   9.919   6.291
96769SOL     OW92145   8.467   2.788  13.900
96769SOL    HW192146   8.439   2.799  13.991
96769SOL    HW292147   8.393   2.820  13.848
96770SOL     OW92148  11.180   9.978   7.596
96770SOL    HW192149  11.219   9.900   7.556
96770SOL    HW292150  11.127  10.017   7.527
96771SOL     OW92151   6.476   9.782   0.663
96771SOL    HW192152   6.389   9.770   0.701
96771SOL    HW292153   6.519   9.697   0.672
96772SOL     OW92154   3.337  14.783   4.132
96772SOL    HW192155   3.393  14.725   4.184
96772SOL    HW292156   3.306  14.849   4.194
96773SOL     OW92157   1.645   1.500  13.855
96773SOL    HW192158   1.637   1.594  13.842
96773SOL    HW292159   1.578   1.461  13.799
96774SOL     OW92160  11.094   5.160   6.452
96774SOL    HW192161  11.154   5.173   6.379
96774SOL    HW292162  11.048   5.078   6.431
96775SOL     OW92163   9.681  11.968   2.344
96775SOL    HW192164   9.724  11.985   2.260
96775SOL    HW292165   9.587  11.976   2.326
96776SOL     OW92166   7.869   4.238  11.681
96776SOL    HW192167   7.797   4.301  11.678
96776SOL    HW292168   7.948   4.292  11.684
96777SOL     OW92169   4.956   2.501  13.948
96777SOL    HW192170   5.035   2.451  13.963
96777SOL    HW292171   4.910   2.500  14.032
96778SOL     OW92172  13.402  14.824  10.795
96778SOL    HW192173  13.474  14.792  10.741
96778SOL    HW292174  13.326  14.824  10.737
96779SOL     OW92175  10.651  13.982   0.511
96779SOL    HW192176  10.570  13.941   0.479
96779SOL    HW292177  10.721  13.939   0.462
96780SOL     OW92178  14.747   7.283  12.271
96780SOL    HW192179  14.678   7.225  12.304
96780SOL    HW292180  14.788   7.318  12.350
96781SOL     OW92181   4.737   9.524   1.597
96781SOL    HW192182   4.718   9.446   1.544
96781SOL    HW292183   4.769   9.588   1.534
96782SOL     OW92184  13.238   6.494  13.095
96782SOL    HW192185  13.283   6.481  13.178
96782SOL    HW292186  13.148   6.466  13.112
96783SOL     OW92187   2.790   9.962   7.421
96783SOL    HW192188   2.715  10.015   7.448
96783SOL    HW292189   2.840  10.020   7.363
96784SOL     OW92190  13.681   9.502   0.285
96784SOL    HW192191  13.690   9.407   0.270
96784SOL    HW292192  13.654   9.537   0.200
96785SOL     OW92193   3.384  13.272   4.724
96785SOL    HW192194   3.315  13.237   4.668
96785SOL    HW292195   3.364  13.365   4.731
96786SOL     OW92196   5.218   3.255   8.027
96786SOL    HW192197   5.227   3.294   8.114
96786SOL    HW292198   5.305   3.263   7.987
96787SOL     OW92199   2.645   9.478  13.714
96787SOL    HW192200   2.693   9.558  13.691
96787SOL    HW292201   2.713   9.411  13.723
96788SOL     OW92202   0.653  10.741   0.652
96788SOL    HW192203   0.696  10.656   0.666
96788SOL    HW292204   0.709  10.804   0.697
96789SOL     OW92205   7.551  10.346  11.957
96789SOL    HW192206   7.496  10.406  11.907
96789SOL    HW292207   7.527  10.259  11.926
96790SOL     OW92208   9.670   6.990  13.452
96790SOL    HW192209   9.594   6.950  13.492
96790SOL    HW292210   9.634   7.051  13.388
96791SOL     OW92211   1.559   3.990   3.900
96791SOL    HW192212   1.479   4.005   3.850
96791SOL    HW292213   1.567   3.895   3.905
96792SOL     OW92214  11.604  11.759   4.979
96792SOL    HW192215  11.593  11.849   5.010
96792SOL    HW292216  11.516  11.731   4.954
96793SOL     OW92217   7.717   4.478  14.159
96793SOL    HW192218   7.758   4.482  14.072
96793SOL    HW292219   7.704   4.569  14.183
96794SOL     OW92220  13.853  13.744   6.194
96794SOL    HW192221  13.940  13.783   6.191
96794SOL    HW292222  13.814  13.766   6.109
96795SOL     OW92223   1.138  11.589   0.697
96795SOL    HW192224   1.174  11.669   0.734
96795SOL    HW292225   1.136  11.528   0.771
96796SOL     OW92226   3.262  11.742   1.884
96796SOL    HW192227   3.308  11.685   1.945
96796SOL    HW292228   3.312  11.823   1.884
96797SOL     OW92229   5.747   9.216   9.588
96797SOL    HW192230   5.702   9.203   9.671
96797SOL    HW292231   5.677   9.216   9.523
96798SOL     OW92232  13.834   2.634  13.160
96798SOL    HW192233  13.885   2.554  13.148
96798SOL    HW292234  13.856   2.689  13.084
96799SOL     OW92235   3.876   5.127  12.010
96799SOL    HW192236   3.945   5.185  12.044
96799SOL    HW292237   3.800   5.147  12.065
96800SOL     OW92238   5.665   0.604   6.590
96800SOL    HW192239   5.649   0.694   6.619
96800SOL    HW292240   5.578   0.567   6.576
96801SOL     OW92241   7.056  14.655  11.648
96801SOL    HW192242   6.984  14.659  11.585
96801SOL    HW292243   7.126  14.609  11.600
96802SOL     OW92244   3.489   8.056  12.083
96802SOL    HW192245   3.463   8.109  12.007
96802SOL    HW292246   3.412   8.054  12.139
96803SOL     OW92247  10.942   4.647   4.349
96803SOL    HW192248  10.985   4.726   4.383
96803SOL    HW292249  10.997   4.575   4.378
96804SOL     OW92250  14.325   7.449   7.143
96804SOL    HW192251  14.367   7.365   7.123
96804SOL    HW292252  14.393   7.499   7.188
96805SOL     OW92253   5.673   1.196   1.264
96805SOL    HW192254   5.637   1.217   1.178
96805SOL    HW292255   5.632   1.260   1.323
96806SOL     OW92256   5.978  12.820   5.233
96806SOL    HW192257   5.984  12.735   5.277
96806SOL    HW292258   6.043  12.816   5.163
96807SOL     OW92259   4.452   4.479   0.869
96807SOL    HW192260   4.456   4.406   0.931
96807SOL    HW292261   4.527   4.465   0.812
96808SOL     OW92262   6.547  12.991  13.071
96808SOL    HW192263   6.536  13.082  13.100
96808SOL    HW292264   6.554  12.941  13.152
96809SOL     OW92265   5.599   8.106  13.667
96809SOL    HW192266   5.694   8.115  13.671
96809SOL    HW292267   5.570   8.184  13.619
96810SOL     OW92268   2.118   1.606  12.664
96810SOL    HW192269   2.094   1.698  12.661
96810SOL    HW292270   2.077   1.568  12.586
96811SOL     OW92271  10.353   6.718   5.643
96811SOL    HW192272  10.363   6.765   5.560
96811SOL    HW292273  10.277   6.759   5.685
96812SOL     OW92274   8.198   6.119   1.575
96812SOL    HW192275   8.265   6.068   1.621
96812SOL    HW292276   8.231   6.125   1.485
96813SOL     OW92277   3.146   0.427   1.957
96813SOL    HW192278   3.226   0.397   2.000
96813SOL    HW292279   3.092   0.348   1.950
96814SOL     OW92280   4.954   0.437   7.462
96814SOL    HW192281   4.939   0.431   7.367
96814SOL    HW292282   5.023   0.503   7.471
96815SOL     OW92283  13.578   8.387   6.200
96815SOL    HW192284  13.535   8.361   6.281
96815SOL    HW292285  13.556   8.480   6.189
96816SOL     OW92286   0.767   4.590   1.637
96816SOL    HW192287   0.843   4.625   1.591
96816SOL    HW292288   0.721   4.538   1.572
96817SOL     OW92289   3.735  10.639   2.608
96817SOL    HW192290   3.661  10.595   2.651
96817SOL    HW292291   3.767  10.575   2.545
96818SOL     OW92292   7.776   5.665   7.027
96818SOL    HW192293   7.724   5.720   7.085
96818SOL    HW292294   7.742   5.682   6.939
96819SOL     OW92295   6.791   9.552  13.565
96819SOL    HW192296   6.840   9.634  13.571
96819SOL    HW292297   6.704   9.574  13.596
96820SOL     OW92298   5.597  13.395  14.541
96820SOL    HW192299   5.576  13.483  14.512
96820SOL    HW292300   5.637  13.353  14.464
96821SOL     OW92301  10.378   0.166   6.474
96821SOL    HW192302  10.334   0.115   6.406
96821SOL    HW292303  10.422   0.100   6.528
96822SOL     OW92304   1.656  13.781   2.048
96822SOL    HW192305   1.609  13.822   1.975
96822SOL    HW292306   1.587  13.755   2.109
96823SOL     OW92307   8.370   4.600  12.703
96823SOL    HW192308   8.373   4.596  12.607
96823SOL    HW292309   8.372   4.508  12.730
96824SOL     OW92310   5.471  10.694  11.267
96824SOL    HW192311   5.509  10.703  11.355
96824SOL    HW292312   5.514  10.616  11.231
96825SOL     OW92313   2.812   5.983   9.616
96825SOL    HW192314   2.789   6.071   9.647
96825SOL    HW292315   2.905   5.974   9.636
96826SOL     OW92316  13.287   0.825   2.398
96826SOL    HW192317  13.332   0.881   2.335
96826SOL    HW292318  13.277   0.742   2.353
96827SOL     OW92319   3.967  13.941  11.846
96827SOL    HW192320   3.875  13.943  11.820
96827SOL    HW292321   4.015  13.929  11.764
96828SOL     OW92322  12.071   9.816  14.308
96828SOL    HW192323  12.078   9.836  14.215
96828SOL    HW292324  11.978   9.808  14.324
96829SOL     OW92325   1.959   0.671   3.736
96829SOL    HW192326   1.941   0.660   3.643
96829SOL    HW292327   1.915   0.752   3.760
96830SOL     OW92328   1.049   9.748   7.979
96830SOL    HW192329   1.118   9.810   7.956
96830SOL    HW292330   1.076   9.666   7.937
96831SOL     OW92331   8.369  10.469  11.584
96831SOL    HW192332   8.339  10.380  11.566
96831SOL    HW292333   8.389  10.505  11.498
96832SOL     OW92334   0.721   1.584   9.368
96832SOL    HW192335   0.683   1.670   9.385
96832SOL    HW292336   0.671   1.550   9.293
96833SOL     OW92337   4.904  12.002   1.872
96833SOL    HW192338   4.890  12.084   1.919
96833SOL    HW292339   4.968  12.023   1.805
96834SOL     OW92340   8.078   3.793   1.331
96834SOL    HW192341   8.050   3.785   1.423
96834SOL    HW292342   8.141   3.865   1.332
96835SOL     OW92343  10.923   3.227   4.365
96835SOL    HW192344  11.009   3.198   4.397
96835SOL    HW292345  10.891   3.286   4.433
96836SOL     OW92346   0.140  11.810   2.688
96836SOL    HW192347   0.110  11.799   2.779
96836SOL    HW292348   0.060  11.808   2.636
96837SOL     OW92349   0.758   0.575  14.437
96837SOL    HW192350   0.776   0.669  14.435
96837SOL    HW292351   0.783   0.548  14.525
96838SOL     OW92352   0.702   5.777   5.202
96838SOL    HW192353   0.768   5.709   5.199
96838SOL    HW292354   0.749   5.856   5.229
96839SOL     OW92355  13.187   0.590   5.577
96839SOL    HW192356  13.242   0.666   5.559
96839SOL    HW292357  13.236   0.516   5.540
96840SOL     OW92358   4.587  12.752   3.521
96840SOL    HW192359   4.491  12.755   3.524
96840SOL    HW292360   4.614  12.838   3.554
96841SOL     OW92361  13.909  10.919   2.771
96841SOL    HW192362  13.895  10.941   2.863
96841SOL    HW292363  13.873  10.993   2.722
96842SOL     OW92364  12.989   7.199   9.553
96842SOL    HW192365  12.965   7.265   9.618
96842SOL    HW292366  13.015   7.250   9.476
96843SOL     OW92367  14.439  13.528   4.267
96843SOL    HW192368  14.477  13.604   4.224
96843SOL    HW292369  14.486  13.453   4.230
96844SOL     OW92370  11.178   5.997   1.374
96844SOL    HW192371  11.177   6.001   1.469
96844SOL    HW292372  11.245   5.932   1.353
96845SOL     OW92373  13.766   7.618  11.718
96845SOL    HW192374  13.854   7.635  11.752
96845SOL    HW292375  13.707   7.641  11.790
96846SOL     OW92376  10.563   5.013  10.825
96846SOL    HW192377  10.511   5.060  10.891
96846SOL    HW292378  10.598   4.938  10.873
96847SOL     OW92379   7.295   7.896   9.947
96847SOL    HW192380   7.233   7.954   9.991
96847SOL    HW292381   7.296   7.925   9.856
96848SOL     OW92382   2.879   5.933  10.009
96848SOL    HW192383   2.818   5.958  10.078
96848SOL    HW292384   2.909   6.016   9.972
96849SOL     OW92385   4.128  11.054  12.900
96849SOL    HW192386   4.103  11.147  12.900
96849SOL    HW292387   4.118  11.026  12.991
96850SOL     OW92388   8.722   3.766  11.817
96850SOL    HW192389   8.723   3.684  11.768
96850SOL    HW292390   8.777   3.826  11.765
96851SOL     OW92391   2.051  10.680   8.012
96851SOL    HW192392   2.040  10.699   7.919
96851SOL    HW292393   1.963  10.687   8.048
96852SOL     OW92394   2.932   2.949  14.401
96852SOL    HW192395   3.007   2.903  14.439
96852SOL    HW292396   2.879   2.975  14.476
96853SOL     OW92397   6.751  12.987   2.384
96853SOL    HW192398   6.813  13.001   2.456
96853SOL    HW292399   6.753  12.893   2.367
96854SOL     OW92400   3.471   8.201   6.824
96854SOL    HW192401   3.437   8.125   6.777
96854SOL    HW292402   3.491   8.265   6.756
96855SOL     OW92403  12.000   2.297   8.031
96855SOL    HW192404  12.068   2.236   8.002
96855SOL    HW292405  11.965   2.334   7.950
96856SOL     OW92406   4.347   5.326   2.326
96856SOL    HW192407   4.364   5.292   2.414
96856SOL    HW292408   4.377   5.417   2.329
96857SOL     OW92409   1.089   9.648   9.711
96857SOL    HW192410   1.023   9.603   9.763
96857SOL    HW292411   1.171   9.604   9.733
96858SOL     OW92412  14.871   0.278   3.201
96858SOL    HW192413  14.846   0.305   3.289
96858SOL    HW292414  14.794   0.232   3.167
96859SOL     OW92415  14.862   8.786  12.546
96859SOL    HW192416  14.780   8.793  12.496
96859SOL    HW292417  14.838   8.737  12.624
96860SOL     OW92418  14.749   0.261   7.691
96860SOL    HW192419  14.691   0.283   7.764
96860SOL    HW292420  14.746   0.339   7.635
96861SOL     OW92421  11.590   3.284   3.330
96861SOL    HW192422  11.544   3.254   3.252
96861SOL    HW292423  11.536   3.252   3.403
96862SOL     OW92424  10.900   9.032   7.342
96862SOL    HW192425  10.931   9.008   7.254
96862SOL    HW292426  10.816   8.988   7.350
96863SOL     OW92427  11.400   8.133   8.243
96863SOL    HW192428  11.398   8.056   8.185
96863SOL    HW292429  11.316   8.176   8.228
96864SOL     OW92430   6.483  14.700   5.303
96864SOL    HW192431   6.400  14.748   5.312
96864SOL    HW292432   6.503  14.705   5.209
96865SOL     OW92433   7.696   6.424   0.222
96865SOL    HW192434   7.700   6.357   0.290
96865SOL    HW292435   7.788   6.449   0.207
96866SOL     OW92436   0.179   6.700  14.496
96866SOL    HW192437   0.189   6.774  14.555
96866SOL    HW292438   0.154   6.627  14.553
96867SOL     OW92439   3.152   8.966   6.535
96867SOL    HW192440   3.106   8.947   6.454
96867SOL    HW292441   3.148   8.885   6.586
96868SOL     OW92442  12.371   7.895   2.465
96868SOL    HW192443  12.321   7.967   2.425
96868SOL    HW292444  12.446   7.883   2.406
96869SOL     OW92445  10.007   9.779  13.690
96869SOL    HW192446  10.099   9.775  13.718
96869SOL    HW292447   9.992   9.697  13.643
96870SOL     OW92448   2.484   4.678   6.076
96870SOL    HW192449   2.483   4.768   6.044
96870SOL    HW292450   2.504   4.686   6.169
96871SOL     OW92451   0.240  12.914   5.949
96871SOL    HW192452   0.287  12.865   6.016
96871SOL    HW292453   0.228  13.001   5.986
96872SOL     OW92454  12.350   8.488   6.504
96872SOL    HW192455  12.272   8.435   6.492
96872SOL    HW292456  12.406   8.436   6.561
96873SOL     OW92457  11.555  13.256   3.143
96873SOL    HW192458  11.524  13.235   3.055
96873SOL    HW292459  11.650  13.263   3.134
96874SOL     OW92460  13.613  12.383  10.886
96874SOL    HW192461  13.636  12.290  10.882
96874SOL    HW292462  13.556  12.390  10.962
96875SOL     OW92463  11.187  12.679   9.557
96875SOL    HW192464  11.128  12.722   9.496
96875SOL    HW292465  11.156  12.705   9.644
96876SOL     OW92466   1.934   0.748   3.460
96876SOL    HW192467   1.952   0.842   3.455
96876SOL    HW292468   1.863   0.734   3.397
96877SOL     OW92469   7.193   2.242   3.153
96877SOL    HW192470   7.112   2.293   3.142
96877SOL    HW292471   7.197   2.186   3.075
96878SOL     OW92472   5.909   3.384   5.907
96878SOL    HW192473   5.965   3.377   5.984
96878SOL    HW292474   5.883   3.294   5.888
96879SOL     OW92475  13.097   7.274   8.621
96879SOL    HW192476  13.024   7.213   8.608
96879SOL    HW292477  13.055   7.359   8.632
96880SOL     OW92478   5.603   5.787   2.918
96880SOL    HW192479   5.642   5.820   2.999
96880SOL    HW292480   5.592   5.864   2.863
96881SOL     OW92481   8.300   9.295   8.704
96881SOL    HW192482   8.352   9.309   8.783
96881SOL    HW292483   8.295   9.382   8.663
96882SOL     OW92484   0.541  12.308   7.229
96882SOL    HW192485   0.563  12.362   7.305
96882SOL    HW292486   0.598  12.341   7.159
96883SOL     OW92487   9.257   0.533   0.810
96883SOL    HW192488   9.278   0.493   0.726
96883SOL    HW292489   9.318   0.493   0.872
96884SOL     OW92490   5.784   4.731   9.837
96884SOL    HW192491   5.725   4.748   9.764
96884SOL    HW292492   5.854   4.677   9.799
96885SOL     OW92493  13.300   9.032   2.845
96885SOL    HW192494  13.384   9.070   2.821
96885SOL    HW292495  13.319   8.980   2.923
96886SOL     OW92496  14.477  14.174   9.254
96886SOL    HW192497  14.559  14.217   9.231
96886SOL    HW292498  14.455  14.122   9.178
96887SOL     OW92499   4.091   7.728   5.100
96887SOL    HW192500   4.010   7.684   5.074
96887SOL    HW292501   4.080   7.818   5.069
96888SOL     OW92502   9.941  14.467  13.631
96888SOL    HW192503   9.900  14.528  13.570
96888SOL    HW292504   9.995  14.522  13.688
96889SOL     OW92505   4.311   9.160  13.882
96889SOL    HW192506   4.255   9.220  13.932
96889SOL    HW292507   4.305   9.077  13.931
96890SOL     OW92508  10.253   8.413   0.326
96890SOL    HW192509  10.280   8.335   0.278
96890SOL    HW292510  10.189   8.381   0.390
96891SOL     OW92511  13.784   1.948  13.174
96891SOL    HW192512  13.773   1.879  13.239
96891SOL    HW292513  13.696   1.961  13.138
96892SOL     OW92514   9.280   2.049   3.463
96892SOL    HW192515   9.204   2.107   3.458
96892SOL    HW292516   9.351   2.105   3.493
96893SOL     OW92517   1.129  10.339   2.074
96893SOL    HW192518   1.176  10.389   2.141
96893SOL    HW292519   1.104  10.258   2.118
96894SOL     OW92520  13.796   6.155  11.882
96894SOL    HW192521  13.890   6.172  11.880
96894SOL    HW292522  13.758   6.223  11.826
96895SOL     OW92523   7.518  13.322  13.912
96895SOL    HW192524   7.544  13.283  13.829
96895SOL    HW292525   7.456  13.390  13.889
96896SOL     OW92526  14.769  12.465  12.261
96896SOL    HW192527  14.806  12.497  12.344
96896SOL    HW292528  14.846  12.435  12.212
96897SOL     OW92529  11.271   0.663   3.245
96897SOL    HW192530  11.209   0.687   3.314
96897SOL    HW292531  11.259   0.569   3.233
96898SOL     OW92532  14.634   6.951  13.539
96898SOL    HW192533  14.592   6.949  13.453
96898SOL    HW292534  14.609   6.867  13.579
96899SOL     OW92535  14.697   6.516   4.507
96899SOL    HW192536  14.628   6.481   4.451
96899SOL    HW292537  14.779   6.485   4.467
96900SOL     OW92538  12.029   4.314  12.268
96900SOL    HW192539  11.940   4.281  12.259
96900SOL    HW292540  12.018   4.409  12.280
96901SOL     OW92541   2.707   7.271   0.867
96901SOL    HW192542   2.737   7.180   0.864
96901SOL    HW292543   2.745   7.310   0.788
96902SOL     OW92544   2.284   1.080   0.373
96902SOL    HW192545   2.374   1.068   0.344
96902SOL    HW292546   2.277   1.027   0.453
96903SOL     OW92547   1.107   2.615   6.953
96903SOL    HW192548   1.149   2.574   6.877
96903SOL    HW292549   1.020   2.575   6.957
96904SOL     OW92550   0.429  12.656  11.046
96904SOL    HW192551   0.441  12.598  10.970
96904SOL    HW292552   0.334  12.658  11.059
96905SOL     OW92553   6.304  14.180  13.245
96905SOL    HW192554   6.277  14.190  13.153
96905SOL    HW292555   6.221  14.168  13.292
96906SOL     OW92556   9.132   9.202  12.072
96906SOL    HW192557   9.046   9.181  12.037
96906SOL    HW292558   9.142   9.144  12.147
96907SOL     OW92559   2.479   6.183   6.598
96907SOL    HW192560   2.531   6.205   6.676
96907SOL    HW292561   2.432   6.264   6.578
96908SOL     OW92562   9.469  12.001   1.689
96908SOL    HW192563   9.463  12.068   1.621
96908SOL    HW292564   9.419  11.927   1.654
96909SOL     OW92565   9.447   1.875   6.394
96909SOL    HW192566   9.360   1.846   6.421
96909SOL    HW292567   9.472   1.941   6.458
96910SOL     OW92568  12.072   0.335   6.882
96910SOL    HW192569  12.059   0.303   6.793
96910SOL    HW292570  12.055   0.429   6.876
96911SOL     OW92571   7.626   5.428  11.158
96911SOL    HW192572   7.556   5.431  11.224
96911SOL    HW292573   7.633   5.518  11.126
96912SOL     OW92574  10.896   8.397   5.533
96912SOL    HW192575  10.929   8.485   5.521
96912SOL    HW292576  10.907   8.355   5.448
96913SOL     OW92577   8.276   7.908  11.971
96913SOL    HW192578   8.191   7.925  12.011
96913SOL    HW292579   8.255   7.878  11.882
96914SOL     OW92580  10.727  11.245   7.501
96914SOL    HW192581  10.678  11.322   7.530
96914SOL    HW292582  10.796  11.280   7.444
96915SOL     OW92583  11.034   3.226  11.011
96915SOL    HW192584  11.051   3.223  11.105
96915SOL    HW292585  11.094   3.294  10.978
96916SOL     OW92586   3.400  11.618   0.955
96916SOL    HW192587   3.408  11.601   0.861
96916SOL    HW292588   3.473  11.571   0.994
96917SOL     OW92589   2.612  14.454  11.184
96917SOL    HW192590   2.653  14.465  11.098
96917SOL    HW292591   2.629  14.363  11.207
96918SOL     OW92592  14.188   5.904   6.334
96918SOL    HW192593  14.188   5.999   6.329
96918SOL    HW292594  14.217   5.875   6.247
96919SOL     OW92595   4.465   3.967   7.724
96919SOL    HW192596   4.457   3.891   7.781
96919SOL    HW292597   4.549   4.005   7.746
96920SOL     OW92598   1.527   0.403   8.894
96920SOL    HW192599   1.553   0.390   8.803
96920SOL    HW292600   1.607   0.430   8.938
96921SOL     OW92601   2.349   0.046   2.308
96921SOL    HW192602   2.374   0.136   2.288
96921SOL    HW292603   2.306   0.051   2.393
96922SOL     OW92604  14.125  11.978   1.503
96922SOL    HW192605  14.138  11.898   1.453
96922SOL    HW292606  14.212  12.004   1.531
96923SOL     OW92607   2.305   1.945  12.747
96923SOL    HW192608   2.367   2.015  12.770
96923SOL    HW292609   2.359   1.879  12.704
96924SOL     OW92610   2.168   1.542   4.452
96924SOL    HW192611   2.097   1.546   4.516
96924SOL    HW292612   2.198   1.633   4.444
96925SOL     OW92613   7.643   1.924   2.347
96925SOL    HW192614   7.660   1.936   2.441
96925SOL    HW292615   7.702   1.986   2.304
96926SOL     OW92616  14.512   7.889   9.200
96926SOL    HW192617  14.557   7.876   9.117
96926SOL    HW292618  14.420   7.872   9.180
96927SOL     OW92619   2.285   6.323   9.474
96927SOL    HW192620   2.229   6.247   9.490
96927SOL    HW292621   2.287   6.369   9.558
96928SOL     OW92622   2.962   6.699  10.149
96928SOL    HW192623   3.038   6.641  10.137
96928SOL    HW292624   2.952   6.742  10.064
96929SOL     OW92625   5.691   0.803   4.109
96929SOL    HW192626   5.705   0.769   4.021
96929SOL    HW292627   5.597   0.816   4.116
96930SOL     OW92628   0.891  10.981   7.438
96930SOL    HW192629   0.892  10.899   7.389
96930SOL    HW292630   0.974  10.981   7.486
96931SOL     OW92631  12.433   0.227  10.203
96931SOL    HW192632  12.508   0.223  10.143
96931SOL    HW292633  12.363   0.181  10.156
96932SOL     OW92634   0.584   2.123   9.474
96932SOL    HW192635   0.589   2.218   9.468
96932SOL    HW292636   0.572   2.105   9.567
96933SOL     OW92637   3.130  13.456   9.810
96933SOL    HW192638   3.184  13.514   9.864
96933SOL    HW292639   3.188  13.383   9.787
96934SOL     OW92640   5.108   6.433   0.188
96934SOL    HW192641   5.017   6.408   0.174
96934SOL    HW292642   5.105   6.527   0.206
96935SOL     OW92643   9.030   9.656  10.867
96935SOL    HW192644   9.016   9.633  10.775
96935SOL    HW292645   9.123   9.679  10.872
96936SOL     OW92646   1.804   9.161   8.670
96936SOL    HW192647   1.888   9.148   8.627
96936SOL    HW292648   1.795   9.256   8.678
96937SOL     OW92649  12.764   2.793   9.953
96937SOL    HW192650  12.680   2.775   9.910
96937SOL    HW292651  12.828   2.740   9.905
96938SOL     OW92652   9.985   2.474  13.485
96938SOL    HW192653  10.039   2.487  13.406
96938SOL    HW292654  10.032   2.520  13.554
96939SOL     OW92655   3.589   1.794   5.813
96939SOL    HW192656   3.533   1.820   5.886
96939SOL    HW292657   3.653   1.733   5.851
96940SOL     OW92658   2.672   3.392  14.782
96940SOL    HW192659   2.745   3.442  14.746
96940SOL    HW292660   2.685   3.395   0.001
96941SOL     OW92661   7.780   4.228   6.542
96941SOL    HW192662   7.686   4.216   6.524
96941SOL    HW292663   7.786   4.231   6.637
96942SOL     OW92664   2.462   4.033   0.670
96942SOL    HW192665   2.529   4.008   0.606
96942SOL    HW292666   2.497   4.110   0.714
96943SOL     OW92667   7.936  10.737  13.161
96943SOL    HW192668   7.935  10.661  13.219
96943SOL    HW292669   7.868  10.718  13.096
96944SOL     OW92670   4.220   8.861   5.175
96944SOL    HW192671   4.191   8.819   5.094
96944SOL    HW292672   4.315   8.853   5.173
96945SOL     OW92673   3.225   4.582  11.960
96945SOL    HW192674   3.146   4.586  12.014
96945SOL    HW292675   3.292   4.546  12.018
96946SOL     OW92676   1.424   7.634  13.516
96946SOL    HW192677   1.339   7.621  13.474
96946SOL    HW292678   1.472   7.691  13.456
96947SOL     OW92679   1.603   6.130   5.886
96947SOL    HW192680   1.651   6.213   5.880
96947SOL    HW292681   1.591   6.102   5.795
96948SOL     OW92682  11.035   8.915  12.948
96948SOL    HW192683  10.971   8.933  13.017
96948SOL    HW292684  10.993   8.945  12.868
96949SOL     OW92685   6.670   4.508   1.739
96949SOL    HW192686   6.607   4.439   1.758
96949SOL    HW292687   6.640   4.583   1.791
96950SOL     OW92688   3.147   5.530   0.387
96950SOL    HW192689   3.077   5.466   0.371
96950SOL    HW292690   3.199   5.528   0.306
96951SOL     OW92691  11.295   5.180  10.484
96951SOL    HW192692  11.290   5.117  10.413
96951SOL    HW292693  11.359   5.245  10.454
96952SOL     OW92694   6.976  11.355  12.996
96952SOL    HW192695   7.058  11.360  13.046
96952SOL    HW292696   6.984  11.274  12.945
96953SOL     OW92697   0.622   4.495   0.302
96953SOL    HW192698   0.707   4.477   0.344
96953SOL    HW292699   0.610   4.590   0.314
96954SOL     OW92700   0.006   2.167  14.228
96954SOL    HW192701   0.064   2.131  14.295
96954SOL    HW292702   0.024   2.261  14.229
96955SOL     OW92703   4.728  13.276  12.768
96955SOL    HW192704   4.791  13.286  12.839
96955SOL    HW292705   4.710  13.365  12.739
96956SOL     OW92706   6.836   0.353   7.342
96956SOL    HW192707   6.802   0.442   7.351
96956SOL    HW292708   6.774   0.310   7.284
96957SOL     OW92709   8.525   7.947   4.107
96957SOL    HW192710   8.570   7.878   4.058
96957SOL    HW292711   8.589   7.977   4.172
96958SOL     OW92712  10.910  11.369   7.753
96958SOL    HW192713  10.833  11.426   7.753
96958SOL    HW292714  10.983  11.427   7.730
96959SOL     OW92715  13.924   5.611  11.381
96959SOL    HW192716  13.912   5.696  11.337
96959SOL    HW292717  13.912   5.631  11.474
96960SOL     OW92718  10.789   5.482   7.253
96960SOL    HW192719  10.874   5.497   7.295
96960SOL    HW292720  10.775   5.387   7.260
96961SOL     OW92721   3.948   1.868   5.833
96961SOL    HW192722   3.881   1.870   5.765
96961SOL    HW292723   4.019   1.922   5.798
96962SOL     OW92724   9.574  12.075   6.858
96962SOL    HW192725   9.513  12.012   6.896
96962SOL    HW292726   9.578  12.051   6.766
96963SOL     OW92727   6.815   6.569  14.423
96963SOL    HW192728   6.861   6.586  14.340
96963SOL    HW292729   6.884   6.537  14.481
96964SOL     OW92730  12.089   1.973  11.158
96964SOL    HW192731  12.159   1.943  11.101
96964SOL    HW292732  12.010   1.932  11.124
96965SOL     OW92733   6.862  12.836   1.261
96965SOL    HW192734   6.851  12.879   1.176
96965SOL    HW292735   6.835  12.903   1.325
96966SOL     OW92736  12.211   4.253  12.541
96966SOL    HW192737  12.231   4.222  12.452
96966SOL    HW292738  12.277   4.212  12.596
96967SOL     OW92739  12.762   8.851  10.789
96967SOL    HW192740  12.852   8.847  10.819
96967SOL    HW292741  12.763   8.809  10.703
96968SOL     OW92742   4.551   6.042   9.876
96968SOL    HW192743   4.573   6.036   9.783
96968SOL    HW292744   4.514   6.130   9.886
96969SOL     OW92745   6.349   7.418  12.624
96969SOL    HW192746   6.400   7.445  12.548
96969SOL    HW292747   6.318   7.500  12.662
96970SOL     OW92748   2.688   8.913   2.688
96970SOL    HW192749   2.715   8.909   2.597
96970SOL    HW292750   2.692   8.822   2.718
96971SOL     OW92751   7.175  10.864   0.639
96971SOL    HW192752   7.089  10.829   0.617
96971SOL    HW292753   7.157  10.943   0.690
96972SOL     OW92754  14.404   1.236  13.418
96972SOL    HW192755  14.348   1.158  13.423
96972SOL    HW292756  14.395   1.265  13.327
96973SOL     OW92757  13.779   8.439   8.876
96973SOL    HW192758  13.741   8.360   8.915
96973SOL    HW292759  13.712   8.470   8.815
96974SOL     OW92760  11.324  13.464   8.595
96974SOL    HW192761  11.258  13.529   8.620
96974SOL    HW292762  11.312  13.451   8.501
96975SOL     OW92763   0.769   0.090  14.745
96975SOL    HW192764   0.771   0.001  14.710
96975SOL    HW292765   0.765   0.146  14.667
96976SOL     OW92766  11.395   4.968   4.826
96976SOL    HW192767  11.480   5.012   4.813
96976SOL    HW292768  11.332   5.023   4.780
96977SOL     OW92769  10.742  10.511  13.355
96977SOL    HW192770  10.719  10.466  13.274
96977SOL    HW292771  10.660  10.550  13.385
96978SOL     OW92772  12.198  11.195  13.270
96978SOL    HW192773  12.266  11.184  13.203
96978SOL    HW292774  12.123  11.230  13.223
96979SOL     OW92775  10.855   3.791   6.396
96979SOL    HW192776  10.843   3.885   6.384
96979SOL    HW292777  10.912   3.783   6.472
96980SOL     OW92778  12.135   6.661   4.392
96980SOL    HW192779  12.201   6.593   4.407
96980SOL    HW292780  12.180   6.725   4.336
96981SOL     OW92781   1.412   2.860  12.208
96981SOL    HW192782   1.418   2.851  12.303
96981SOL    HW292783   1.320   2.842  12.188
96982SOL     OW92784   2.983   4.916   8.625
96982SOL    HW192785   2.902   4.967   8.634
96982SOL    HW292786   3.027   4.927   8.709
96983SOL     OW92787   0.872  11.926  11.707
96983SOL    HW192788   0.919  11.961  11.783
96983SOL    HW292789   0.871  11.832  11.721
96984SOL     OW92790   0.025   6.169   9.919
96984SOL    HW192791   0.026   6.076   9.896
96984SOL    HW292792  14.810   6.188   9.939
96985SOL     OW92793   6.011   1.668  14.048
96985SOL    HW192794   5.939   1.668  14.112
96985SOL    HW292795   6.047   1.756  14.053
96986SOL     OW92796   3.058   9.824   0.716
96986SOL    HW192797   3.040   9.801   0.808
96986SOL    HW292798   3.150   9.799   0.703
96987SOL     OW92799  11.878   9.127   7.481
96987SOL    HW192800  11.943   9.110   7.550
96987SOL    HW292801  11.842   9.212   7.504
96988SOL     OW92802  12.904  11.215   4.958
96988SOL    HW192803  12.946  11.145   4.909
96988SOL    HW292804  12.836  11.172   5.010
96989SOL     OW92805  11.712   7.038   4.064
96989SOL    HW192806  11.714   7.066   4.155
96989SOL    HW292807  11.673   7.111   4.017
96990SOL     OW92808  11.949  11.748   4.873
96990SOL    HW192809  11.951  11.773   4.965
96990SOL    HW292810  12.031  11.780   4.837
96991SOL     OW92811   3.012  13.531   4.938
96991SOL    HW192812   3.086  13.572   4.982
96991SOL    HW292813   3.019  13.561   4.847
96992SOL     OW92814   5.113   4.849   0.527
96992SOL    HW192815   5.029   4.816   0.495
96992SOL    HW292816   5.098   4.943   0.540
96993SOL     OW92817  12.618   5.694   3.833
96993SOL    HW192818  12.537   5.646   3.818
96993SOL    HW292819  12.678   5.664   3.764
96994SOL     OW92820  14.040   4.999   5.819
96994SOL    HW192821  14.098   4.923   5.827
96994SOL    HW292822  13.956   4.961   5.792
96995SOL     OW92823   5.789   2.705   8.314
96995SOL    HW192824   5.742   2.622   8.324
96995SOL    HW292825   5.874   2.690   8.356
96996SOL     OW92826   6.874  14.757   8.103
96996SOL    HW192827   6.843  14.675   8.063
96996SOL    HW292828   6.857  14.824   8.037
96997SOL     OW92829   3.879   0.130   8.960
96997SOL    HW192830   3.861   0.041   8.929
96997SOL    HW292831   3.899   0.179   8.881
96998SOL     OW92832  14.186   1.482   3.824
96998SOL    HW192833  14.237   1.503   3.745
96998SOL    HW292834  14.246   1.431   3.878
96999SOL     OW92835   4.417   4.275   1.266
96999SOL    HW192836   4.421   4.211   1.337
96999SOL    HW292837   4.390   4.224   1.189
97000SOL     OW92838  11.892   6.056   3.733
97000SOL    HW192839  11.906   6.133   3.678
97000SOL    HW292840  11.979   6.015   3.738
97001SOL     OW92841   4.281   8.561   7.999
97001SOL    HW192842   4.363   8.596   8.033
97001SOL    HW292843   4.255   8.494   8.063
97002SOL     OW92844   7.315   0.860   9.854
97002SOL    HW192845   7.231   0.837   9.814
97002SOL    HW292846   7.337   0.945   9.816
97003SOL     OW92847   4.667   9.632  12.325
97003SOL    HW192848   4.599   9.630  12.393
97003SOL    HW292849   4.724   9.558  12.345
97004SOL     OW92850  11.188   2.189  10.656
97004SOL    HW192851  11.222   2.270  10.694
97004SOL    HW292852  11.179   2.129  10.730
97005SOL     OW92853   8.166   4.881   7.443
97005SOL    HW192854   8.115   4.893   7.363
97005SOL    HW292855   8.115   4.820   7.495
97006SOL     OW92856   5.291  13.102   7.773
97006SOL    HW192857   5.249  13.026   7.732
97006SOL    HW292858   5.364  13.065   7.822
97007SOL     OW92859   8.634  13.442   0.058
97007SOL    HW192860   8.593  13.356   0.070
97007SOL    HW292861   8.619  13.462  14.842
97008SOL     OW92862   2.463   4.150   5.003
97008SOL    HW192863   2.370   4.137   4.984
97008SOL    HW292864   2.470   4.138   5.098
97009SOL     OW92865   8.438  12.343   2.432
97009SOL    HW192866   8.423  12.300   2.348
97009SOL    HW292867   8.501  12.412   2.413
97010SOL     OW92868   2.940   7.308   5.466
97010SOL    HW192869   2.887   7.299   5.387
97010SOL    HW292870   3.025   7.272   5.441
97011SOL     OW92871  11.232   0.516   1.535
97011SOL    HW192872  11.211   0.427   1.564
97011SOL    HW292873  11.152   0.547   1.494
97012SOL     OW92874   9.233   7.136  14.054
97012SOL    HW192875   9.183   7.163  14.131
97012SOL    HW292876   9.304   7.082  14.090
97013SOL     OW92877   5.554   5.409   4.088
97013SOL    HW192878   5.550   5.483   4.148
97013SOL    HW292879   5.647   5.399   4.067
97014SOL     OW92880   9.379  11.833   3.074
97014SOL    HW192881   9.295  11.788   3.078
97014SOL    HW292882   9.399  11.855   3.165
97015SOL     OW92883   3.116  14.848   0.022
97015SOL    HW192884   3.115   0.067   0.023
97015SOL    HW292885   3.053  14.824  14.831
97016SOL     OW92886   2.170   5.735  11.621
97016SOL    HW192887   2.155   5.671  11.691
97016SOL    HW292888   2.121   5.812  11.648
97017SOL     OW92889   7.599   4.395   5.300
97017SOL    HW192890   7.556   4.431   5.223
97017SOL    HW292891   7.571   4.303   5.303
97018SOL     OW92892   2.221   8.006  11.099
97018SOL    HW192893   2.303   8.045  11.069
97018SOL    HW292894   2.198   8.055  11.178
97019SOL     OW92895  14.834   9.634   6.395
97019SOL    HW192896   0.012   9.630   6.474
97019SOL    HW292897  14.769   9.565   6.407
97020SOL     OW92898   1.049  14.682  11.409
97020SOL    HW192899   1.040  14.588  11.392
97020SOL    HW292900   1.046  14.722  11.322
97021SOL     OW92901  10.170   9.476   7.468
97021SOL    HW192902  10.088   9.468   7.516
97021SOL    HW292903  10.200   9.565   7.486
97022SOL     OW92904   8.340  14.102  14.761
97022SOL    HW192905   8.418  14.155  14.777
97022SOL    HW292906   8.279  14.128  14.829
97023SOL     OW92907  12.114   4.970  13.719
97023SOL    HW192908  12.119   4.879  13.691
97023SOL    HW292909  12.028   5.000  13.690
97024SOL     OW92910  12.341  11.418   2.784
97024SOL    HW192911  12.348  11.472   2.706
97024SOL    HW292912  12.368  11.331   2.755
97025SOL     OW92913   9.374  11.685  12.495
97025SOL    HW192914   9.340  11.740  12.565
97025SOL    HW292915   9.447  11.636  12.535
97026SOL     OW92916   5.918  13.537   6.867
97026SOL    HW192917   5.971  13.508   6.941
97026SOL    HW292918   5.830  13.547   6.902
97027SOL     OW92919   4.756   8.090   4.289
97027SOL    HW192920   4.682   8.029   4.296
97027SOL    HW292921   4.734   8.147   4.216
97028SOL     OW92922   2.384   0.604  11.609
97028SOL    HW192923   2.367   0.685  11.658
97028SOL    HW292924   2.368   0.628  11.518
97029SOL     OW92925  12.019   8.346  12.418
97029SOL    HW192926  12.053   8.257  12.427
97029SOL    HW292927  11.946   8.339  12.357
97030SOL     OW92928   4.669  12.332  14.475
97030SOL    HW192929   4.693  12.240  14.460
97030SOL    HW292930   4.585  12.328  14.520
97031SOL     OW92931   6.756   2.200   1.609
97031SOL    HW192932   6.818   2.211   1.681
97031SOL    HW292933   6.671   2.220   1.648
97032SOL     OW92934   3.060   6.007  13.050
97032SOL    HW192935   2.980   5.962  13.020
97032SOL    HW292936   3.043   6.099  13.034
97033SOL     OW92937   7.434   9.432  11.970
97033SOL    HW192938   7.374   9.413  11.898
97033SOL    HW292939   7.519   9.401  11.939
97034SOL     OW92940   2.659   7.590   8.788
97034SOL    HW192941   2.728   7.612   8.726
97034SOL    HW292942   2.582   7.636   8.755
97035SOL     OW92943  13.155  10.563   0.862
97035SOL    HW192944  13.150  10.658   0.876
97035SOL    HW292945  13.224  10.534   0.921
97036SOL     OW92946   4.465  13.710   5.084
97036SOL    HW192947   4.531  13.652   5.121
97036SOL    HW292948   4.390  13.653   5.068
97037SOL     OW92949  12.010   6.398   5.021
97037SOL    HW192950  11.937   6.389   4.960
97037SOL    HW292951  12.049   6.483   4.999
97038SOL     OW92952   6.706   4.220   0.800
97038SOL    HW192953   6.617   4.212   0.766
97038SOL    HW292954   6.756   4.153   0.754
97039SOL     OW92955   8.268  14.389  10.256
97039SOL    HW192956   8.187  14.339  10.253
97039SOL    HW292957   8.338  14.324  10.248
97040SOL     OW92958  12.471   9.367   6.554
97040SOL    HW192959  12.462   9.432   6.485
97040SOL    HW292960  12.527   9.409   6.620
97041SOL     OW92961  14.222  12.702  14.218
97041SOL    HW192962  14.234  12.658  14.302
97041SOL    HW292963  14.278  12.653  14.157
97042SOL     OW92964   3.498   2.110   9.188
97042SOL    HW192965   3.569   2.046   9.191
97042SOL    HW292966   3.488   2.130   9.095
97043SOL     OW92967   4.801  14.601   5.317
97043SOL    HW192968   4.801  14.622   5.411
97043SOL    HW292969   4.879  14.646   5.284
97044SOL     OW92970  13.012   6.695  12.853
97044SOL    HW192971  13.079   6.680  12.785
97044SOL    HW292972  13.000   6.789  12.855
97045SOL     OW92973   1.090   1.258   6.818
97045SOL    HW192974   1.063   1.189   6.756
97045SOL    HW292975   1.017   1.319   6.819
97046SOL     OW92976   2.291   2.144   1.243
97046SOL    HW192977   2.310   2.233   1.212
97046SOL    HW292978   2.255   2.099   1.166
97047SOL     OW92979   0.089   3.651   7.202
97047SOL    HW192980   0.137   3.569   7.201
97047SOL    HW292981   0.142   3.710   7.256
97048SOL     OW92982  10.269  10.500   6.306
97048SOL    HW192983  10.346  10.532   6.353
97048SOL    HW292984  10.261  10.409   6.332
97049SOL     OW92985   6.035   8.443  13.716
97049SOL    HW192986   6.009   8.419  13.627
97049SOL    HW292987   6.129   8.459  13.710
97050SOL     OW92988   8.422   3.443   7.790
97050SOL    HW192989   8.347   3.491   7.825
97050SOL    HW292990   8.491   3.459   7.855
97051SOL     OW92991   2.170   2.385   4.976
97051SOL    HW192992   2.079   2.372   5.001
97051SOL    HW292993   2.171   2.373   4.881
97052SOL     OW92994   5.332   0.474  11.605
97052SOL    HW192995   5.287   0.441  11.527
97052SOL    HW292996   5.422   0.445  11.595
97053SOL     OW92997   5.067   8.913  11.428
97053SOL    HW192998   5.031   8.925  11.340
97053SOL    HW292999   5.060   8.819  11.444
97054SOL     OW93000   7.966   4.009  11.068
97054SOL    HW193001   7.909   3.959  11.010
97054SOL    HW293002   7.908   4.073  11.110
97055SOL     OW93003  12.854   0.311   2.776
97055SOL    HW193004  12.927   0.278   2.724
97055SOL    HW293005  12.777   0.270   2.737
97056SOL     OW93006   6.038   8.267   3.088
97056SOL    HW193007   6.070   8.250   3.177
97056SOL    HW293008   5.963   8.325   3.101
97057SOL     OW93009   6.299   5.900  14.344
97057SOL    HW193010   6.204   5.902  14.343
97057SOL    HW293011   6.326   5.971  14.287
97058SOL     OW93012   0.459  12.106   0.791
97058SOL    HW193013   0.490  12.047   0.722
97058SOL    HW293014   0.364  12.104   0.784
97059SOL     OW93015   2.981   1.477   1.479
97059SOL    HW193016   3.060   1.428   1.457
97059SOL    HW293017   3.001   1.521   1.561
97060SOL     OW93018  13.554  12.693   5.644
97060SOL    HW193019  13.551  12.772   5.697
97060SOL    HW293020  13.637  12.651   5.667
97061SOL     OW93021   6.185  14.412   2.295
97061SOL    HW193022   6.235  14.370   2.225
97061SOL    HW293023   6.105  14.444   2.252
97062SOL     OW93024   6.751   5.847  10.624
97062SOL    HW193025   6.829   5.807  10.662
97062SOL    HW293026   6.703   5.775  10.584
97063SOL     OW93027   3.670  12.169   0.235
97063SOL    HW193028   3.664  12.211   0.149
97063SOL    HW293029   3.700  12.080   0.215
97064SOL     OW93030  14.620   5.436   6.475
97064SOL    HW193031  14.669   5.502   6.524
97064SOL    HW293032  14.562   5.486   6.418
97065SOL     OW93033   0.264  10.220  11.696
97065SOL    HW193034   0.206  10.296  11.689
97065SOL    HW293035   0.334  10.238  11.633
97066SOL     OW93036   6.213   6.174   1.055
97066SOL    HW193037   6.297   6.215   1.034
97066SOL    HW293038   6.237   6.087   1.088
97067SOL     OW93039  10.497   1.783   6.065
97067SOL    HW193040  10.516   1.867   6.107
97067SOL    HW293041  10.471   1.806   5.976
97068SOL     OW93042   5.364  14.567  14.537
97068SOL    HW193043   5.314  14.529  14.609
97068SOL    HW293044   5.398  14.650  14.572
97069SOL     OW93045   3.901   0.832  14.709
97069SOL    HW193046   3.955   0.858  14.783
97069SOL    HW293047   3.857   0.752  14.737
97070SOL     OW93048  10.237  12.971   3.386
97070SOL    HW193049  10.173  12.902   3.404
97070SOL    HW293050  10.319  12.924   3.371
97071SOL     OW93051   8.531  13.128   9.212
97071SOL    HW193052   8.482  13.059   9.257
97071SOL    HW293053   8.600  13.081   9.165
97072SOL     OW93054   5.316   2.220   2.703
97072SOL    HW193055   5.317   2.307   2.662
97072SOL    HW293056   5.404   2.210   2.740
97073SOL     OW93057  12.901  14.848   2.150
97073SOL    HW193058  12.979  14.871   2.201
97073SOL    HW293059  12.903  14.753   2.144
97074SOL     OW93060   8.073   0.865   3.392
97074SOL    HW193061   7.984   0.850   3.362
97074SOL    HW293062   8.063   0.910   3.476
97075SOL     OW93063  11.596   8.403   7.530
97075SOL    HW193064  11.581   8.413   7.436
97075SOL    HW293065  11.578   8.490   7.566
97076SOL     OW93066   0.578   5.737   8.505
97076SOL    HW193067   0.577   5.724   8.600
97076SOL    HW293068   0.574   5.832   8.494
97077SOL     OW93069   8.261   6.091   8.538
97077SOL    HW193070   8.178   6.057   8.504
97077SOL    HW293071   8.298   6.017   8.587
97078SOL     OW93072   4.657  13.918   7.663
97078SOL    HW193073   4.669  14.007   7.698
97078SOL    HW293074   4.745  13.890   7.637
97079SOL     OW93075   0.135  14.105   1.298
97079SOL    HW193076   0.067  14.133   1.359
97079SOL    HW293077   0.087  14.081   1.218
97080SOL     OW93078  13.533   8.424   4.717
97080SOL    HW193079  13.446   8.465   4.722
97080SOL    HW293080  13.562   8.418   4.808
97081SOL     OW93081  13.145   3.851   9.317
97081SOL    HW193082  13.125   3.934   9.361
97081SOL    HW293083  13.078   3.791   9.348
97082SOL     OW93084  10.244   5.013   8.573
97082SOL    HW193085  10.251   5.081   8.639
97082SOL    HW293086  10.284   5.051   8.494
97083SOL     OW93087  10.228   2.595   3.790
97083SOL    HW193088  10.299   2.642   3.834
97083SOL    HW293089  10.165   2.577   3.860
97084SOL     OW93090   9.530  14.182  12.659
97084SOL    HW193091   9.572  14.175  12.745
97084SOL    HW293092   9.535  14.093  12.623
97085SOL     OW93093  12.778   7.758  13.226
97085SOL    HW193094  12.790   7.813  13.304
97085SOL    HW293095  12.688   7.727  13.232
97086SOL     OW93096  13.154   5.566   4.034
97086SOL    HW193097  13.127   5.605   3.951
97086SOL    HW293098  13.073   5.555   4.083
97087SOL     OW93099   2.926  10.554  10.983
97087SOL    HW193100   2.898  10.471  11.022
97087SOL    HW293101   2.874  10.563  10.904
97088SOL     OW93102   7.034   0.586   8.744
97088SOL    HW193103   6.948   0.571   8.704
97088SOL    HW293104   7.095   0.541   8.685
97089SOL     OW93105   3.852   9.668   2.381
97089SOL    HW193106   3.781   9.657   2.318
97089SOL    HW293107   3.850   9.589   2.434
97090SOL     OW93108   9.804   6.886  14.394
97090SOL    HW193109   9.805   6.980  14.412
97090SOL    HW293110   9.758   6.878  14.311
97091SOL     OW93111   8.571   5.976   9.818
97091SOL    HW193112   8.495   6.031   9.839
97091SOL    HW293113   8.535   5.888   9.808
97092SOL     OW93114   8.273   4.147   0.548
97092SOL    HW193115   8.245   4.224   0.499
97092SOL    HW293116   8.218   4.146   0.626
97093SOL     OW93117   6.982   0.290   2.759
97093SOL    HW193118   6.951   0.304   2.670
97093SOL    HW293119   7.065   0.338   2.763
97094SOL     OW93120  13.277   4.590  13.275
97094SOL    HW193121  13.247   4.680  13.266
97094SOL    HW293122  13.362   4.596  13.317
97095SOL     OW93123  14.815   0.337   3.453
97095SOL    HW193124  14.815   0.422   3.496
97095SOL    HW293125  14.812   0.273   3.525
97096SOL     OW93126   9.180   7.831  12.251
97096SOL    HW193127   9.197   7.766  12.183
97096SOL    HW293128   9.189   7.915  12.206
97097SOL     OW93129  13.057   6.553  14.403
97097SOL    HW193130  12.998   6.478  14.414
97097SOL    HW293131  13.100   6.539  14.319
97098SOL     OW93132   8.462  13.856   3.803
97098SOL    HW193133   8.444  13.764   3.783
97098SOL    HW293134   8.401  13.905   3.748
97099SOL     OW93135   6.011  14.430  13.459
97099SOL    HW193136   6.056  14.456  13.539
97099SOL    HW293137   6.038  14.339  13.444
97100SOL     OW93138  11.444  14.319  14.512
97100SOL    HW193139  11.362  14.318  14.560
97100SOL    HW293140  11.418  14.318  14.420
97101SOL     OW93141  14.559   0.933   2.623
97101SOL    HW193142  14.466   0.949   2.610
97101SOL    HW293143  14.600   0.956   2.539
97102SOL     OW93144   7.876  10.950   2.833
97102SOL    HW193145   7.944  11.003   2.791
97102SOL    HW293146   7.808  10.941   2.767
97103SOL     OW93147   9.387  13.506   3.947
97103SOL    HW193148   9.457  13.477   4.005
97103SOL    HW293149   9.397  13.601   3.942
97104SOL     OW93150   1.727   6.432   6.640
97104SOL    HW193151   1.791   6.390   6.582
97104SOL    HW293152   1.757   6.523   6.647
97105SOL     OW93153   2.776   7.658   6.530
97105SOL    HW193154   2.704   7.625   6.476
97105SOL    HW293155   2.736   7.678   6.615
97106SOL     OW93156   0.628   9.471  12.753
97106SOL    HW193157   0.645   9.376  12.757
97106SOL    HW293158   0.665   9.505  12.835
97107SOL     OW93159  12.916   5.807   3.317
97107SOL    HW193160  12.907   5.719   3.354
97107SOL    HW293161  13.004   5.836   3.344
97108SOL     OW93162   5.492  11.953   5.838
97108SOL    HW193163   5.528  11.866   5.856
97108SOL    HW293164   5.398  11.939   5.827
97109SOL     OW93165  13.026  10.130   0.231
97109SOL    HW193166  13.116  10.110   0.204
97109SOL    HW293167  13.021  10.099   0.321
97110SOL     OW93168  14.243   4.331  11.678
97110SOL    HW193169  14.326   4.356  11.720
97110SOL    HW293170  14.268   4.307  11.588
97111SOL     OW93171   9.738   0.585  10.498
97111SOL    HW193172   9.681   0.606  10.424
97111SOL    HW293173   9.682   0.535  10.558
97112SOL     OW93174   8.561   2.032  14.581
97112SOL    HW193175   8.646   2.064  14.613
97112SOL    HW293176   8.559   2.059  14.489
97113SOL     OW93177  13.865  14.476  12.416
97113SOL    HW193178  13.827  14.448  12.499
97113SOL    HW293179  13.958  14.452  12.423
97114SOL     OW93180  11.270  11.441   4.681
97114SOL    HW193181  11.331  11.512   4.700
97114SOL    HW293182  11.291  11.373   4.746
97115SOL     OW93183  13.898   3.510   9.517
97115SOL    HW193184  13.851   3.444   9.467
97115SOL    HW293185  13.903   3.586   9.459
97116SOL     OW93186  14.405   8.147   8.851
97116SOL    HW193187  14.362   8.125   8.933
97116SOL    HW293188  14.408   8.065   8.803
97117SOL     OW93189   0.740   2.003  10.514
97117SOL    HW193190   0.645   1.989  10.510
97117SOL    HW293191   0.778   1.916  10.502
97118SOL     OW93192   1.394   0.194   8.113
97118SOL    HW193193   1.323   0.135   8.138
97118SOL    HW293194   1.360   0.282   8.128
97119SOL     OW93195   0.905  11.065  13.995
97119SOL    HW193196   0.967  11.112  14.052
97119SOL    HW293197   0.959  10.998  13.952
97120SOL     OW93198  12.892   6.107   1.613
97120SOL    HW193199  12.845   6.053   1.677
97120SOL    HW293200  12.863   6.196   1.630
97121SOL     OW93201   3.496  14.598  13.279
97121SOL    HW193202   3.461  14.618  13.366
97121SOL    HW293203   3.456  14.664  13.222
97122SOL     OW93204  14.657   7.359   6.642
97122SOL    HW193205  14.619   7.360   6.555
97122SOL    HW293206  14.615   7.284   6.685
97123SOL     OW93207   8.851   2.182  12.464
97123SOL    HW193208   8.764   2.151  12.437
97123SOL    HW293209   8.855   2.271  12.428
97124SOL     OW93210   3.243   7.857   2.712
97124SOL    HW193211   3.322   7.862   2.659
97124SOL    HW293212   3.195   7.782   2.676
97125SOL     OW93213   9.496   8.223   0.601
97125SOL    HW193214   9.483   8.245   0.509
97125SOL    HW293215   9.426   8.270   0.647
97126SOL     OW93216   0.987   4.993   7.731
97126SOL    HW193217   1.051   5.005   7.802
97126SOL    HW293218   0.902   4.996   7.775
97127SOL     OW93219   0.849   6.260   1.896
97127SOL    HW193220   0.939   6.271   1.865
97127SOL    HW293221   0.803   6.338   1.864
97128SOL     OW93222   1.364   3.540   1.621
97128SOL    HW193223   1.294   3.514   1.561
97128SOL    HW293224   1.441   3.552   1.565
97129SOL     OW93225  14.409   6.536   8.226
97129SOL    HW193226  14.317   6.560   8.242
97129SOL    HW293227  14.417   6.449   8.264
97130SOL     OW93228   4.178  10.495  13.762
97130SOL    HW193229   4.218  10.439  13.829
97130SOL    HW293230   4.096  10.525  13.801
97131SOL     OW93231   0.558  10.807   9.344
97131SOL    HW193232   0.562  10.903   9.340
97131SOL    HW293233   0.478  10.785   9.296
97132SOL     OW93234  14.287  14.757   0.488
97132SOL    HW193235  14.274  14.820   0.417
97132SOL    HW293236  14.211  14.769   0.545
97133SOL     OW93237  12.124  13.466   8.802
97133SOL    HW193238  12.216  13.441   8.811
97133SOL    HW293239  12.084  13.395   8.752
97134SOL     OW93240  13.137   8.512   1.303
97134SOL    HW193241  13.157   8.456   1.379
97134SOL    HW293242  13.088   8.585   1.340
97135SOL     OW93243  12.880  14.166   6.393
97135SOL    HW193244  12.798  14.160   6.442
97135SOL    HW293245  12.944  14.197   6.457
97136SOL     OW93246   1.873   2.177  13.074
97136SOL    HW193247   1.912   2.123  13.143
97136SOL    HW293248   1.780   2.178  13.094
97137SOL     OW93249   7.172   8.370   1.717
97137SOL    HW193250   7.136   8.390   1.631
97137SOL    HW293251   7.204   8.454   1.751
97138SOL     OW93252   8.499   1.478   1.035
97138SOL    HW193253   8.475   1.397   0.989
97138SOL    HW293254   8.442   1.479   1.111
97139SOL     OW93255   1.053   8.833   4.259
97139SOL    HW193256   0.981   8.769   4.256
97139SOL    HW293257   1.111   8.806   4.188
97140SOL     OW93258  14.730   4.755  14.293
97140SOL    HW193259  14.710   4.802  14.213
97140SOL    HW293260  14.825   4.759  14.301
97141SOL     OW93261  13.922   9.803  12.807
97141SOL    HW193262  13.904   9.872  12.743
97141SOL    HW293263  13.991   9.839  12.862
97142SOL     OW93264   4.324   9.585  11.855
97142SOL    HW193265   4.306   9.502  11.900
97142SOL    HW293266   4.249   9.640  11.876
97143SOL     OW93267   5.423   7.704   2.633
97143SOL    HW193268   5.337   7.705   2.590
97143SOL    HW293269   5.406   7.662   2.718
97144SOL     OW93270  11.817   6.883   0.264
97144SOL    HW193271  11.877   6.813   0.240
97144SOL    HW293272  11.796   6.927   0.182
97145SOL     OW93273   4.672   5.116   2.135
97145SOL    HW193274   4.727   5.039   2.121
97145SOL    HW293275   4.586   5.090   2.102
97146SOL     OW93276   8.018   2.327   2.188
97146SOL    HW193277   7.967   2.400   2.223
97146SOL    HW293278   8.054   2.360   2.106
97147SOL     OW93279  14.578   8.987  12.524
97147SOL    HW193280  14.554   9.024  12.609
97147SOL    HW293281  14.645   9.047  12.490
97148SOL     OW93282   0.577   0.645  12.149
97148SOL    HW193283   0.575   0.674  12.058
97148SOL    HW293284   0.585   0.549  12.143
97149SOL     OW93285  12.857  11.518   4.556
97149SOL    HW193286  12.901  11.512   4.471
97149SOL    HW293287  12.915  11.574   4.609
97150SOL     OW93288   5.331  11.661  13.929
97150SOL    HW193289   5.310  11.574  13.895
97150SOL    HW293290   5.258  11.716  13.901
97151SOL     OW93291   5.620   5.388   6.979
97151SOL    HW193292   5.614   5.430   7.065
97151SOL    HW293293   5.538   5.412   6.935
97152SOL     OW93294   6.388  11.590  10.219
97152SOL    HW193295   6.466  11.579  10.165
97152SOL    HW293296   6.333  11.515  10.198
97153SOL     OW93297   4.577  14.158   6.241
97153SOL    HW193298   4.641  14.116   6.183
97153SOL    HW293299   4.628  14.221   6.292
97154SOL     OW93300   2.981   3.334   8.139
97154SOL    HW193301   2.933   3.255   8.112
97154SOL    HW293302   2.928   3.407   8.106
97155SOL     OW93303   3.360  13.971  14.834
97155SOL    HW193304   3.371  14.066  14.842
97155SOL    HW293305   3.421  13.946  14.765
97156SOL     OW93306  14.009  12.461   3.014
97156SOL    HW193307  14.083  12.412   2.977
97156SOL    HW293308  13.934  12.434   2.962
97157SOL     OW93309   7.146   0.722   1.343
97157SOL    HW193310   7.218   0.729   1.406
97157SOL    HW293311   7.184   0.748   1.260
97158SOL     OW93312   3.829  11.881   4.023
97158SOL    HW193313   3.882  11.801   4.031
97158SOL    HW293314   3.804  11.902   4.113
97159SOL     OW93315   6.382  10.892   5.252
97159SOL    HW193316   6.437  10.814   5.247
97159SOL    HW293317   6.399  10.939   5.170
97160SOL     OW93318   7.373   2.019  14.527
97160SOL    HW193319   7.311   2.075  14.481
97160SOL    HW293320   7.367   2.047  14.619
97161SOL     OW93321   3.888   8.918  11.321
97161SOL    HW193322   3.892   9.014  11.319
97161SOL    HW293323   3.963   8.889  11.270
97162SOL     OW93324   8.566   8.863  11.569
97162SOL    HW193325   8.485   8.854  11.520
97162SOL    HW293326   8.545   8.925  11.639
97163SOL     OW93327  12.543  11.979   6.140
97163SOL    HW193328  12.590  11.918   6.197
97163SOL    HW293329  12.490  11.923   6.083
97164SOL     OW93330   0.779   3.545   7.077
97164SOL    HW193331   0.798   3.463   7.031
97164SOL    HW293332   0.865   3.586   7.089
97165SOL     OW93333  13.690   6.084   8.621
97165SOL    HW193334  13.737   6.165   8.603
97165SOL    HW293335  13.747   6.036   8.681
97166SOL     OW93336   5.096   3.437   6.512
97166SOL    HW193337   5.034   3.504   6.484
97166SOL    HW293338   5.138   3.407   6.432
97167SOL     OW93339   2.303   7.007   4.145
97167SOL    HW193340   2.319   7.032   4.236
97167SOL    HW293341   2.278   7.089   4.102
97168SOL     OW93342  12.301   7.098   8.278
97168SOL    HW193343  12.209   7.121   8.264
97168SOL    HW293344  12.298   7.023   8.337
97169SOL     OW93345  13.693  10.816   1.307
97169SOL    HW193346  13.689  10.721   1.306
97169SOL    HW293347  13.743  10.839   1.228
97170SOL     OW93348  10.380   2.226  14.118
97170SOL    HW193349  10.306   2.188  14.071
97170SOL    HW293350  10.356   2.220  14.210
97171SOL     OW93351   4.362   8.362   3.119
97171SOL    HW193352   4.267   8.370   3.133
97171SOL    HW293353   4.379   8.418   3.043
97172SOL     OW93354  13.110   9.516   2.209
97172SOL    HW193355  13.019   9.501   2.234
97172SOL    HW293356  13.113   9.494   2.116
97173SOL     OW93357   6.897   3.158   4.869
97173SOL    HW193358   6.943   3.169   4.786
97173SOL    HW293359   6.965   3.130   4.930
97174SOL     OW93360   2.056  14.167   5.227
97174SOL    HW193361   2.057  14.077   5.195
97174SOL    HW293362   1.967  14.198   5.209
97175SOL     OW93363   5.889  11.360   8.144
97175SOL    HW193364   5.855  11.433   8.093
97175SOL    HW293365   5.962  11.398   8.193
97176SOL     OW93366  14.278   4.477  10.610
97176SOL    HW193367  14.270   4.424  10.689
97176SOL    HW293368  14.281   4.413  10.539
97177SOL     OW93369   6.034   2.148  10.483
97177SOL    HW193370   6.056   2.104  10.401
97177SOL    HW293371   6.118   2.158  10.528
97178SOL     OW93372  12.970   9.650   4.780
97178SOL    HW193373  12.899   9.715   4.784
97178SOL    HW293374  12.978   9.631   4.686
97179SOL     OW93375   1.751   8.820   3.451
97179SOL    HW193376   1.697   8.777   3.518
97179SOL    HW293377   1.715   8.908   3.444
97180SOL     OW93378  11.500   8.438   2.388
97180SOL    HW193379  11.432   8.458   2.324
97180SOL    HW293380  11.461   8.458   2.473
97181SOL     OW93381   4.394   7.923   2.978
97181SOL    HW193382   4.391   7.867   3.055
97181SOL    HW293383   4.303   7.929   2.948
97182SOL     OW93384  10.945  11.604   1.366
97182SOL    HW193385  10.901  11.522   1.344
97182SOL    HW293386  10.942  11.608   1.461
97183SOL     OW93387  10.851   9.884   3.810
97183SOL    HW193388  10.760   9.915   3.809
97183SOL    HW293389  10.855   9.826   3.886
97184SOL     OW93390  10.368  10.092   8.230
97184SOL    HW193391  10.337  10.175   8.265
97184SOL    HW293392  10.463  10.098   8.235
97185SOL     OW93393   2.198  10.163   2.780
97185SOL    HW193394   2.137  10.090   2.791
97185SOL    HW293395   2.146  10.241   2.795
97186SOL     OW93396   1.848   8.613   1.251
97186SOL    HW193397   1.924   8.666   1.272
97186SOL    HW293398   1.825   8.637   1.162
97187SOL     OW93399  12.854   9.126   4.866
97187SOL    HW193400  12.783   9.067   4.841
97187SOL    HW293401  12.928   9.098   4.812
97188SOL     OW93402   8.211   6.537  13.553
97188SOL    HW193403   8.294   6.562  13.512
97188SOL    HW293404   8.237   6.499  13.637
97189SOL     OW93405  12.914   0.499   5.564
97189SOL    HW193406  12.867   0.564   5.511
97189SOL    HW293407  13.002   0.535   5.574
97190SOL     OW93408  10.941  11.911  14.061
97190SOL    HW193409  10.905  11.822  14.056
97190SOL    HW293410  10.879  11.964  14.011
97191SOL     OW93411   0.307  14.705  11.104
97191SOL    HW193412   0.389  14.697  11.154
97191SOL    HW293413   0.333  14.751  11.024
97192SOL     OW93414   9.579  13.215  14.619
97192SOL    HW193415   9.590  13.122  14.600
97192SOL    HW293416   9.490  13.235  14.591
97193SOL     OW93417   3.774   9.411   4.118
97193SOL    HW193418   3.726   9.475   4.065
97193SOL    HW293419   3.865   9.441   4.115
97194SOL     OW93420   7.483   7.954  13.575
97194SOL    HW193421   7.568   7.932  13.613
97194SOL    HW293422   7.505   7.997  13.492
97195SOL     OW93423  14.668   7.810  10.530
97195SOL    HW193424  14.613   7.740  10.493
97195SOL    HW293425  14.688   7.866  10.455
97196SOL     OW93426   5.087  11.215   0.948
97196SOL    HW193427   5.049  11.198   0.862
97196SOL    HW293428   5.150  11.145   0.961
97197SOL     OW93429  14.706  10.685  10.836
97197SOL    HW193430  14.660  10.603  10.856
97197SOL    HW293431  14.640  10.753  10.851
97198SOL     OW93432   5.549  11.359   4.672
97198SOL    HW193433   5.573  11.448   4.698
97198SOL    HW293434   5.554  11.359   4.577
97199SOL     OW93435   1.114  13.289  10.860
97199SOL    HW193436   1.059  13.214  10.839
97199SOL    HW293437   1.202  13.252  10.867
97200SOL     OW93438   1.209   2.391   7.673
97200SOL    HW193439   1.124   2.365   7.636
97200SOL    HW293440   1.189   2.468   7.727
97201SOL     OW93441   4.429  11.286   0.959
97201SOL    HW193442   4.439  11.379   0.936
97201SOL    HW293443   4.519  11.254   0.967
97202SOL     OW93444   8.685   2.682   6.995
97202SOL    HW193445   8.738   2.712   6.921
97202SOL    HW293446   8.597   2.714   6.975
97203SOL     OW93447   7.423  10.969   5.623
97203SOL    HW193448   7.451  10.907   5.690
97203SOL    HW293449   7.328  10.959   5.620
97204SOL     OW93450   3.319   2.940   8.284
97204SOL    HW193451   3.412   2.925   8.270
97204SOL    HW293452   3.315   2.991   8.365
97205SOL     OW93453   3.821  11.483   9.899
97205SOL    HW193454   3.794  11.574   9.909
97205SOL    HW293455   3.761  11.447   9.833
97206SOL     OW93456  13.830  11.547   1.857
97206SOL    HW193457  13.819  11.593   1.940
97206SOL    HW293458  13.742  11.545   1.819
97207SOL     OW93459   9.570   7.467   1.113
97207SOL    HW193460   9.656   7.441   1.146
97207SOL    HW293461   9.549   7.548   1.160
97208SOL     OW93462   0.577   6.192  14.455
97208SOL    HW193463   0.546   6.282  14.468
97208SOL    HW293464   0.587   6.158  14.544
97209SOL     OW93465  14.208  11.713   0.363
97209SOL    HW193466  14.166  11.751   0.440
97209SOL    HW293467  14.153  11.740   0.290
97210SOL     OW93468   4.998   1.604  10.555
97210SOL    HW193469   5.019   1.678  10.612
97210SOL    HW293470   4.933   1.553  10.604
97211SOL     OW93471  11.759   4.389   8.559
97211SOL    HW193472  11.826   4.352   8.501
97211SOL    HW293473  11.682   4.335   8.542
97212SOL     OW93474  12.242   3.396   3.086
97212SOL    HW193475  12.292   3.451   3.025
97212SOL    HW293476  12.294   3.397   3.167
97213SOL     OW93477  10.055  10.655   9.900
97213SOL    HW193478  10.051  10.566   9.935
97213SOL    HW293479  10.149  10.673   9.890
97214SOL     OW93480   0.290  10.902  14.394
97214SOL    HW193481   0.294  10.990  14.355
97214SOL    HW293482   0.371  10.894  14.444
97215SOL     OW93483  10.147  12.197   9.588
97215SOL    HW193484  10.081  12.231   9.529
97215SOL    HW293485  10.223  12.252   9.575
97216SOL     OW93486  12.775   9.064   8.749
97216SOL    HW193487  12.683   9.059   8.773
97216SOL    HW293488  12.803   8.973   8.737
97217SOL     OW93489   5.749  12.068  14.299
97217SOL    HW193490   5.791  12.097  14.380
97217SOL    HW293491   5.658  12.052  14.324
97218SOL     OW93492   5.144   1.429   0.075
97218SOL    HW193493   5.129   1.412   0.168
97218SOL    HW293494   5.134   1.344   0.032
97219SOL     OW93495   5.579   1.618   4.939
97219SOL    HW193496   5.620   1.640   5.023
97219SOL    HW293497   5.638   1.554   4.899
97220SOL     OW93498  13.394  12.839   1.666
97220SOL    HW193499  13.311  12.879   1.642
97220SOL    HW293500  13.428  12.894   1.736
97221SOL     OW93501   4.387   6.275   8.744
97221SOL    HW193502   4.357   6.317   8.825
97221SOL    HW293503   4.412   6.348   8.688
97222SOL     OW93504   8.483  14.003   9.032
97222SOL    HW193505   8.543  14.073   9.007
97222SOL    HW293506   8.482  14.006   9.128
97223SOL     OW93507  10.394   8.024   6.255
97223SOL    HW193508  10.355   7.965   6.319
97223SOL    HW293509  10.423   8.099   6.305
97224SOL     OW93510  12.064  13.012   8.311
97224SOL    HW193511  12.118  13.065   8.251
97224SOL    HW293512  12.104  12.925   8.309
97225SOL     OW93513   0.351   8.581  11.497
97225SOL    HW193514   0.388   8.512  11.441
97225SOL    HW293515   0.405   8.658  11.478
97226SOL     OW93516   5.847   9.374   4.553
97226SOL    HW193517   5.814   9.285   4.565
97226SOL    HW293518   5.816   9.422   4.630
97227SOL     OW93519  14.213   9.324   5.722
97227SOL    HW193520  14.287   9.382   5.705
97227SOL    HW293521  14.248   9.236   5.713
97228SOL     OW93522   2.550   1.952   0.675
97228SOL    HW193523   2.470   1.910   0.644
97228SOL    HW293524   2.525   2.042   0.693
97229SOL     OW93525  10.142   3.464   2.089
97229SOL    HW193526  10.174   3.461   1.999
97229SOL    HW293527  10.221   3.469   2.142
97230SOL     OW93528   2.933   5.686   3.249
97230SOL    HW193529   2.957   5.758   3.308
97230SOL    HW293530   3.016   5.647   3.224
97231SOL     OW93531   9.474   5.833  13.868
97231SOL    HW193532   9.490   5.916  13.912
97231SOL    HW293533   9.426   5.856  13.788
97232SOL     OW93534   8.640  12.111  11.202
97232SOL    HW193535   8.672  12.089  11.289
97232SOL    HW293536   8.687  12.052  11.143
97233SOL     OW93537  11.218   9.314   8.635
97233SOL    HW193538  11.299   9.364   8.626
97233SOL    HW293539  11.168   9.362   8.701
97234SOL     OW93540   9.372   2.705  10.111
97234SOL    HW193541   9.352   2.663  10.195
97234SOL    HW293542   9.311   2.664  10.049
97235SOL     OW93543   2.439   9.350   9.583
97235SOL    HW193544   2.490   9.408   9.640
97235SOL    HW293545   2.403   9.409   9.516
97236SOL     OW93546   2.303   1.160  10.825
97236SOL    HW193547   2.375   1.114  10.869
97236SOL    HW293548   2.319   1.252  10.845
97237SOL     OW93549  13.958   6.481  13.712
97237SOL    HW193550  13.881   6.433  13.683
97237SOL    HW293551  13.938   6.507  13.802
97238SOL     OW93552   4.395   0.136   2.478
97238SOL    HW193553   4.391   0.221   2.433
97238SOL    HW293554   4.313   0.093   2.455
97239SOL     OW93555  12.118   8.202   8.551
97239SOL    HW193556  12.027   8.221   8.526
97239SOL    HW293557  12.110   8.163   8.638
97240SOL     OW93558   9.545   9.339   7.435
97240SOL    HW193559   9.583   9.353   7.522
97240SOL    HW293560   9.617   9.306   7.382
97241SOL     OW93561  11.480   5.529   9.374
97241SOL    HW193562  11.550   5.463   9.367
97241SOL    HW293563  11.512   5.591   9.439
97242SOL     OW93564  14.838   4.004  10.681
97242SOL    HW193565  14.833   3.931  10.621
97242SOL    HW293566  14.759   3.997  10.735
97243SOL     OW93567  12.270   4.678   7.388
97243SOL    HW193568  12.238   4.625   7.461
97243SOL    HW293569  12.210   4.752   7.383
97244SOL     OW93570  11.573  10.182   7.341
97244SOL    HW193571  11.656  10.226   7.323
97244SOL    HW293572  11.588  10.091   7.314
97245SOL     OW93573   9.728   6.184   6.048
97245SOL    HW193574   9.769   6.099   6.062
97245SOL    HW293575   9.651   6.182   6.104
97246SOL     OW93576   3.367   7.920   4.255
97246SOL    HW193577   3.391   8.012   4.262
97246SOL    HW293578   3.445   7.878   4.219
97247SOL     OW93579   8.143  12.094  10.959
97247SOL    HW193580   8.178  12.012  10.924
97247SOL    HW293581   8.163  12.159  10.891
97248SOL     OW93582   0.795  13.440   8.489
97248SOL    HW193583   0.855  13.419   8.418
97248SOL    HW293584   0.784  13.535   8.484
97249SOL     OW93585   3.609  11.742   6.339
97249SOL    HW193586   3.661  11.675   6.384
97249SOL    HW293587   3.545  11.771   6.405
97250SOL     OW93588   8.311   6.037   2.745
97250SOL    HW193589   8.273   6.071   2.664
97250SOL    HW293590   8.406   6.041   2.730
97251SOL     OW93591   9.448   5.741   3.428
97251SOL    HW193592   9.520   5.713   3.371
97251SOL    HW293593   9.447   5.836   3.420
97252SOL     OW93594  12.701  13.758   8.962
97252SOL    HW193595  12.638  13.830   8.974
97252SOL    HW293596  12.648  13.685   8.931
97253SOL     OW93597   7.954  11.012  12.752
97253SOL    HW193598   7.895  10.952  12.705
97253SOL    HW293599   7.979  10.963  12.831
97254SOL     OW93600   8.167   7.117   3.834
97254SOL    HW193601   8.132   7.207   3.839
97254SOL    HW293602   8.099   7.067   3.789
97255SOL     OW93603   9.826  10.725  12.585
97255SOL    HW193604   9.856  10.815  12.572
97255SOL    HW293605   9.757  10.732  12.651
97256SOL     OW93606   4.934   6.830  13.923
97256SOL    HW193607   4.854   6.785  13.896
97256SOL    HW293608   4.906   6.920  13.942
97257SOL     OW93609   6.966   8.284   1.874
97257SOL    HW193610   7.014   8.234   1.939
97257SOL    HW293611   7.029   8.301   1.804
97258SOL     OW93612   6.483   4.109   7.610
97258SOL    HW193613   6.529   4.075   7.686
97258SOL    HW293614   6.410   4.159   7.646
97259SOL     OW93615  13.153   3.861   3.620
97259SOL    HW193616  13.064   3.830   3.602
97259SOL    HW293617  13.159   3.860   3.716
97260SOL     OW93618   7.501   3.946  12.495
97260SOL    HW193619   7.460   4.019  12.449
97260SOL    HW293620   7.462   3.867  12.456
97261SOL     OW93621   2.055   8.282   0.035
97261SOL    HW193622   2.072   8.221  14.840
97261SOL    HW293623   2.116   8.256   0.104
97262SOL     OW93624   0.284  12.984  10.581
97262SOL    HW193625   0.208  13.010  10.634
97262SOL    HW293626   0.359  13.018  10.629
97263SOL     OW93627   0.228   6.081   3.709
97263SOL    HW193628   0.301   6.035   3.667
97263SOL    HW293629   0.226   6.167   3.668
97264SOL     OW93630  11.684   3.273  10.799
97264SOL    HW193631  11.636   3.190  10.793
97264SOL    HW293632  11.771   3.253  10.765
97265SOL     OW93633   4.423   3.212   0.649
97265SOL    HW193634   4.404   3.298   0.613
97265SOL    HW293635   4.449   3.228   0.739
97266SOL     OW93636   0.096   8.146   3.839
97266SOL    HW193637   0.152   8.147   3.916
97266SOL    HW293638   0.081   8.053   3.821
97267SOL     OW93639   7.646   0.770  14.181
97267SOL    HW193640   7.553   0.791  14.177
97267SOL    HW293641   7.669   0.746  14.091
97268SOL     OW93642   7.858   7.329   4.405
97268SOL    HW193643   7.917   7.401   4.383
97268SOL    HW293644   7.835   7.290   4.321
97269SOL     OW93645   7.126   5.935  14.602
97269SOL    HW193646   7.072   5.857  14.614
97269SOL    HW293647   7.215   5.906  14.623
97270SOL     OW93648   5.540  13.705   5.067
97270SOL    HW193649   5.568  13.649   5.140
97270SOL    HW293650   5.622  13.734   5.027
97271SOL     OW93651  14.301   4.568   4.744
97271SOL    HW193652  14.338   4.509   4.810
97271SOL    HW293653  14.250   4.632   4.794
97272SOL     OW93654  10.582   0.758   7.794
97272SOL    HW193655  10.549   0.719   7.713
97272SOL    HW293656  10.603   0.682   7.849
97273SOL     OW93657  12.764  11.926   1.345
97273SOL    HW193658  12.810  11.893   1.268
97273SOL    HW293659  12.802  12.012   1.362
97274SOL     OW93660   1.531  10.217  13.207
97274SOL    HW193661   1.462  10.234  13.271
97274SOL    HW293662   1.514  10.280  13.137
97275SOL     OW93663   0.250   3.010   4.989
97275SOL    HW193664   0.239   3.035   5.080
97275SOL    HW293665   0.167   3.034   4.947
97276SOL     OW93666   4.907   2.019   3.383
97276SOL    HW193667   4.856   2.066   3.316
97276SOL    HW293668   4.884   2.062   3.465
97277SOL     OW93669   0.570   3.371   1.003
97277SOL    HW193670   0.523   3.413   0.931
97277SOL    HW293671   0.628   3.439   1.037
97278SOL     OW93672  14.623   4.843   5.129
97278SOL    HW193673  14.648   4.870   5.217
97278SOL    HW293674  14.527   4.842   5.130
97279SOL     OW93675   4.922   2.721  13.726
97279SOL    HW193676   4.940   2.665  13.801
97279SOL    HW293677   4.953   2.807  13.752
97280SOL     OW93678   5.061  12.038   6.667
97280SOL    HW193679   5.052  12.114   6.610
97280SOL    HW293680   5.145  12.051   6.711
97281SOL     OW93681  11.424   1.414   9.631
97281SOL    HW193682  11.464   1.490   9.588
97281SOL    HW293683  11.491   1.345   9.625
97282SOL     OW93684   7.374   1.687  11.284
97282SOL    HW193685   7.382   1.620  11.215
97282SOL    HW293686   7.369   1.769  11.236
97283SOL     OW93687   0.456   4.597   5.617
97283SOL    HW193688   0.380   4.588   5.674
97283SOL    HW293689   0.525   4.630   5.674
97284SOL     OW93690   9.450   8.018  11.721
97284SOL    HW193691   9.460   8.018  11.816
97284SOL    HW293692   9.454   7.926  11.696
97285SOL     OW93693   1.389   8.959   2.110
97285SOL    HW193694   1.457   9.026   2.109
97285SOL    HW293695   1.413   8.902   2.184
97286SOL     OW93696  12.003   6.065   0.675
97286SOL    HW193697  11.981   6.012   0.752
97286SOL    HW293698  12.087   6.029   0.645
97287SOL     OW93699   4.353   9.189   3.178
97287SOL    HW193700   4.409   9.223   3.248
97287SOL    HW293701   4.295   9.261   3.155
97288SOL     OW93702  13.148   2.867   2.998
97288SOL    HW193703  13.203   2.881   2.921
97288SOL    HW293704  13.165   2.944   3.054
97289SOL     OW93705  13.519   5.163   2.492
97289SOL    HW193706  13.501   5.255   2.472
97289SOL    HW293707  13.596   5.142   2.440
97290SOL     OW93708  14.746   2.098   2.155
97290SOL    HW193709  14.782   2.170   2.207
97290SOL    HW293710  14.703   2.042   2.219
97291SOL     OW93711   3.361  13.024  12.558
97291SOL    HW193712   3.266  13.026  12.566
97291SOL    HW293713   3.393  13.042  12.646
97292SOL     OW93714   6.880  13.053   1.444
97292SOL    HW193715   6.921  13.067   1.359
97292SOL    HW293716   6.953  13.038   1.505
97293SOL     OW93717   8.469   6.828   6.178
97293SOL    HW193718   8.467   6.854   6.270
97293SOL    HW293719   8.430   6.741   6.176
97294SOL     OW93720  11.440   4.363   1.302
97294SOL    HW193721  11.389   4.428   1.252
97294SOL    HW293722  11.436   4.284   1.248
97295SOL     OW93723   0.171  13.139  13.386
97295SOL    HW193724   0.143  13.052  13.356
97295SOL    HW293725   0.107  13.199  13.350
97296SOL     OW93726   5.337   7.901  14.868
97296SOL    HW193727   5.316   7.885  14.776
97296SOL    HW293728   5.327   7.995   0.003
97297SOL     OW93729   4.962   3.930  10.692
97297SOL    HW193730   4.995   3.894  10.610
97297SOL    HW293731   4.873   3.896  10.700
97298SOL     OW93732   7.681   2.288   5.705
97298SOL    HW193733   7.726   2.355   5.654
97298SOL    HW293734   7.742   2.266   5.775
97299SOL     OW93735   1.607  11.291  13.762
97299SOL    HW193736   1.519  11.322  13.745
97299SOL    HW293737   1.605  11.257  13.851
97300SOL     OW93738   1.491   5.480   3.780
97300SOL    HW193739   1.482   5.544   3.710
97300SOL    HW293740   1.487   5.532   3.861
97301SOL     OW93741   1.997  10.067   2.569
97301SOL    HW193742   1.970  10.148   2.526
97301SOL    HW293743   1.970  10.077   2.660
97302SOL     OW93744   7.154   4.096   6.481
97302SOL    HW193745   7.091   4.169   6.487
97302SOL    HW293746   7.215   4.123   6.413
97303SOL     OW93747   6.829   7.365  12.283
97303SOL    HW193748   6.751   7.418  12.271
97303SOL    HW293749   6.863   7.391  12.369
97304SOL     OW93750   2.735   3.564   2.418
97304SOL    HW193751   2.735   3.608   2.332
97304SOL    HW293752   2.739   3.636   2.481
97305SOL     OW93753  11.363  14.242   7.264
97305SOL    HW193754  11.425  14.173   7.242
97305SOL    HW293755  11.337  14.222   7.354
97306SOL     OW93756  11.711   4.091  11.870
97306SOL    HW193757  11.641   4.139  11.826
97306SOL    HW293758  11.735   4.147  11.944
97307SOL     OW93759   7.355   7.574  13.839
97307SOL    HW193760   7.386   7.592  13.750
97307SOL    HW293761   7.435   7.573  13.892
97308SOL     OW93762   3.538  13.089   0.564
97308SOL    HW193763   3.570  13.058   0.649
97308SOL    HW293764   3.517  13.010   0.515
97309SOL     OW93765  10.674  13.111   7.409
97309SOL    HW193766  10.751  13.092   7.357
97309SOL    HW293767  10.697  13.081   7.497
97310SOL     OW93768   5.182   0.297   9.793
97310SOL    HW193769   5.262   0.250   9.814
97310SOL    HW293770   5.212   0.373   9.743
97311SOL     OW93771   0.980   9.344  14.761
97311SOL    HW193772   0.928   9.355  14.840
97311SOL    HW293773   1.006   9.252  14.762
97312SOL     OW93774   5.697   1.158   2.387
97312SOL    HW193775   5.711   1.192   2.476
97312SOL    HW293776   5.770   1.099   2.372
97313SOL     OW93777   2.093   8.146  14.660
97313SOL    HW193778   2.137   8.063  14.641
97313SOL    HW293779   2.128   8.207  14.595
97314SOL     OW93780   4.045  14.709   3.110
97314SOL    HW193781   4.048  14.730   3.203
97314SOL    HW293782   3.976  14.764   3.075
97315SOL     OW93783   2.106  11.387  10.631
97315SOL    HW193784   2.060  11.392  10.715
97315SOL    HW293785   2.086  11.470  10.588
97316SOL     OW93786  14.664  10.761   4.031
97316SOL    HW193787  14.576  10.764   3.994
97316SOL    HW293788  14.665  10.831   4.096
97317SOL     OW93789   7.978   3.574   2.931
97317SOL    HW193790   7.901   3.630   2.942
97317SOL    HW293791   7.964   3.503   2.993
97318SOL     OW93792  13.227   4.480  12.530
97318SOL    HW193793  13.263   4.568  12.534
97318SOL    HW293794  13.142   4.486  12.573
97319SOL     OW93795   5.158  14.191   1.395
97319SOL    HW193796   5.243  14.157   1.425
97319SOL    HW293797   5.108  14.113   1.371
97320SOL     OW93798   7.358   0.955   1.006
97320SOL    HW193799   7.405   0.918   0.931
97320SOL    HW293800   7.427   0.978   1.069
97321SOL     OW93801   1.012  12.943   1.546
97321SOL    HW193802   0.952  12.927   1.619
97321SOL    HW293803   1.090  12.980   1.587
97322SOL     OW93804   3.783   7.842  12.364
97322SOL    HW193805   3.804   7.749  12.356
97322SOL    HW293806   3.845   7.876  12.429
97323SOL     OW93807  13.591  13.259  10.141
97323SOL    HW193808  13.661  13.197  10.161
97323SOL    HW293809  13.607  13.333  10.199
97324SOL     OW93810  12.166  11.312   4.505
97324SOL    HW193811  12.071  11.308   4.497
97324SOL    HW293812  12.187  11.244   4.569
97325SOL     OW93813  13.839   1.748   9.159
97325SOL    HW193814  13.848   1.708   9.072
97325SOL    HW293815  13.837   1.673   9.219
97326SOL     OW93816   4.515  12.112  13.972
97326SOL    HW193817   4.596  12.062  13.964
97326SOL    HW293818   4.478  12.112  13.884
97327SOL     OW93819  13.796  11.598   2.791
97327SOL    HW193820  13.748  11.530   2.840
97327SOL    HW293821  13.872  11.617   2.846
97328SOL     OW93822   4.705  12.392   0.873
97328SOL    HW193823   4.695  12.298   0.855
97328SOL    HW293824   4.634  12.412   0.935
97329SOL     OW93825  10.155  13.514   5.379
97329SOL    HW193826  10.200  13.511   5.295
97329SOL    HW293827  10.099  13.592   5.374
97330SOL     OW93828   5.967   4.943   0.334
97330SOL    HW193829   5.884   4.942   0.382
97330SOL    HW293830   5.942   4.968   0.245
97331SOL     OW93831  13.208  12.911   0.314
97331SOL    HW193832  13.244  12.895   0.401
97331SOL    HW293833  13.276  12.882   0.254
97332SOL     OW93834   9.193   7.811  12.782
97332SOL    HW193835   9.161   7.748  12.717
97332SOL    HW293836   9.282   7.781  12.802
97333SOL     OW93837  13.708  10.564   2.863
97333SOL    HW193838  13.637  10.628   2.855
97333SOL    HW293839  13.779  10.613   2.906
97334SOL     OW93840   6.104  12.751  10.148
97334SOL    HW193841   6.068  12.839  10.147
97334SOL    HW293842   6.122  12.734  10.240
97335SOL     OW93843   8.458  14.788  13.336
97335SOL    HW193844   8.465  14.859  13.272
97335SOL    HW293845   8.546  14.779  13.372
97336SOL     OW93846  12.022   4.593  12.075
97336SOL    HW193847  11.955   4.568  12.140
97336SOL    HW293848  11.972   4.636  12.005
97337SOL     OW93849  12.809  14.071   4.903
97337SOL    HW193850  12.718  14.074   4.875
97337SOL    HW293851  12.805  14.076   4.999
97338SOL     OW93852   5.777   1.099   9.488
97338SOL    HW193853   5.789   1.193   9.497
97338SOL    HW293854   5.782   1.066   9.578
97339SOL     OW93855   1.592   4.354   3.119
97339SOL    HW193856   1.571   4.446   3.105
97339SOL    HW293857   1.637   4.327   3.039
97340SOL     OW93858   4.454   7.908  12.873
97340SOL    HW193859   4.504   7.895  12.793
97340SOL    HW293860   4.488   7.843  12.934
97341SOL     OW93861  12.495  11.332   9.394
97341SOL    HW193862  12.497  11.426   9.410
97341SOL    HW293863  12.587  11.306   9.389
97342SOL     OW93864  13.962   1.765  13.468
97342SOL    HW193865  13.941   1.722  13.385
97342SOL    HW293866  14.048   1.730  13.492
97343SOL     OW93867   4.915  11.866   2.811
97343SOL    HW193868   4.845  11.801   2.817
97343SOL    HW293869   4.994  11.814   2.794
97344SOL     OW93870  13.924   4.736   9.431
97344SOL    HW193871  13.991   4.671   9.412
97344SOL    HW293872  13.844   4.700   9.394
97345SOL     OW93873   0.737   3.588  14.079
97345SOL    HW193874   0.693   3.551  14.156
97345SOL    HW293875   0.666   3.616  14.022
97346SOL     OW93876   5.968  12.775  14.681
97346SOL    HW193877   6.034  12.816  14.626
97346SOL    HW293878   5.887  12.823  14.662
97347SOL     OW93879   0.534   3.182   4.367
97347SOL    HW193880   0.585   3.252   4.407
97347SOL    HW293881   0.598   3.125   4.326
97348SOL     OW93882   3.240   6.038   1.879
97348SOL    HW193883   3.260   6.121   1.836
97348SOL    HW293884   3.213   6.063   1.968
97349SOL     OW93885   5.951   8.818  11.616
97349SOL    HW193886   5.940   8.837  11.709
97349SOL    HW293887   6.021   8.753  11.613
97350SOL     OW93888   8.169  11.991   0.433
97350SOL    HW193889   8.150  12.083   0.448
97350SOL    HW293890   8.256  11.991   0.393
97351SOL     OW93891   8.451   1.241   6.699
97351SOL    HW193892   8.368   1.214   6.659
97351SOL    HW293893   8.476   1.320   6.650
97352SOL     OW93894   0.042   3.942   9.246
97352SOL    HW193895   0.032   4.032   9.214
97352SOL    HW293896   0.133   3.919   9.224
97353SOL     OW93897  11.058  12.856   1.718
97353SOL    HW193898  10.990  12.921   1.736
97353SOL    HW293899  11.085  12.826   1.805
97354SOL     OW93900   8.414   2.615   8.410
97354SOL    HW193901   8.443   2.674   8.480
97354SOL    HW293902   8.416   2.668   8.331
97355SOL     OW93903   0.676   4.900   5.636
97355SOL    HW193904   0.686   4.844   5.713
97355SOL    HW293905   0.762   4.940   5.624
97356SOL     OW93906   8.905   2.414   1.104
97356SOL    HW193907   8.977   2.356   1.078
97356SOL    HW293908   8.913   2.490   1.046
97357SOL     OW93909   5.577  14.660   7.671
97357SOL    HW193910   5.534  14.724   7.728
97357SOL    HW293911   5.544  14.680   7.584
97358SOL     OW93912  13.114   6.643   9.232
97358SOL    HW193913  13.113   6.654   9.137
97358SOL    HW293914  13.178   6.572   9.247
97359SOL     OW93915   2.975   9.925   7.633
97359SOL    HW193916   2.927   9.895   7.711
97359SOL    HW293917   2.910   9.921   7.563
97360SOL     OW93918  13.531   1.111  10.498
97360SOL    HW193919  13.610   1.066  10.469
97360SOL    HW293920  13.517   1.078  10.587
97361SOL     OW93921  12.394  10.989   5.148
97361SOL    HW193922  12.377  10.899   5.177
97361SOL    HW293923  12.356  11.043   5.217
97362SOL     OW93924   9.329   5.682   5.973
97362SOL    HW193925   9.264   5.752   5.967
97362SOL    HW293926   9.369   5.693   6.060
97363SOL     OW93927   2.352   0.616   3.168
97363SOL    HW193928   2.304   0.552   3.222
97363SOL    HW293929   2.330   0.592   3.078
97364SOL     OW93930   3.619   3.826   8.905
97364SOL    HW193931   3.628   3.921   8.912
97364SOL    HW293932   3.709   3.794   8.892
97365SOL     OW93933   4.775   9.898   3.476
97365SOL    HW193934   4.764   9.981   3.522
97365SOL    HW293935   4.714   9.838   3.520
97366SOL     OW93936  10.767   6.992  10.109
97366SOL    HW193937  10.723   7.011  10.192
97366SOL    HW293938  10.859   7.008  10.128
97367SOL     OW93939   6.398  12.999  11.264
97367SOL    HW193940   6.475  13.045  11.231
97367SOL    HW293941   6.422  12.907  11.260
97368SOL     OW93942   4.796   9.197   3.254
97368SOL    HW193943   4.885   9.222   3.230
97368SOL    HW293944   4.777   9.120   3.200
97369SOL     OW93945   5.879   5.178  13.692
97369SOL    HW193946   5.831   5.174  13.775
97369SOL    HW293947   5.819   5.221  13.631
97370SOL     OW93948   3.975   1.504  13.711
97370SOL    HW193949   4.024   1.578  13.677
97370SOL    HW293950   3.891   1.541  13.738
97371SOL     OW93951   5.437  11.392   0.768
97371SOL    HW193952   5.500  11.402   0.839
97371SOL    HW293953   5.490  11.401   0.688
97372SOL     OW93954   4.317   8.032  10.269
97372SOL    HW193955   4.409   8.018  10.293
97372SOL    HW293956   4.318   8.050  10.175
97373SOL     OW93957   2.027   0.172  10.888
97373SOL    HW193958   1.980   0.235  10.832
97373SOL    HW293959   2.086   0.226  10.940
97374SOL     OW93960   1.093  11.004   2.149
97374SOL    HW193961   1.077  11.005   2.244
97374SOL    HW293962   1.029  10.941   2.115
97375SOL     OW93963  14.068   8.436   5.090
97375SOL    HW193964  14.145   8.419   5.144
97375SOL    HW293965  13.996   8.442   5.152
97376SOL     OW93966  11.264  10.719  12.714
97376SOL    HW193967  11.214  10.774  12.774
97376SOL    HW293968  11.204  10.703  12.641
97377SOL     OW93969  13.628   4.189   6.455
97377SOL    HW193970  13.558   4.227   6.509
97377SOL    HW293971  13.708   4.207   6.505
97378SOL     OW93972   5.953  11.422   2.570
97378SOL    HW193973   6.023  11.388   2.514
97378SOL    HW293974   5.973  11.387   2.657
97379SOL     OW93975   4.461  10.304   3.995
97379SOL    HW193976   4.378  10.264   4.020
97379SOL    HW293977   4.447  10.334   3.905
97380SOL     OW93978  12.484   4.044   3.911
97380SOL    HW193979  12.422   4.018   3.979
97380SOL    HW293980  12.454   3.999   3.832
97381SOL     OW93981  14.420  10.312  13.577
97381SOL    HW193982  14.467  10.234  13.548
97381SOL    HW293983  14.442  10.321  13.670
97382SOL     OW93984  14.265   0.497  14.113
97382SOL    HW193985  14.263   0.452  14.029
97382SOL    HW293986  14.196   0.456  14.165
97383SOL     OW93987   4.986   2.016   2.126
97383SOL    HW193988   4.901   2.056   2.108
97383SOL    HW293989   5.049   2.074   2.082
97384SOL     OW93990   7.237   8.118   0.451
97384SOL    HW193991   7.171   8.184   0.434
97384SOL    HW293992   7.191   8.034   0.441
97385SOL     OW93993   4.978   4.614   5.309
97385SOL    HW193994   4.896   4.575   5.280
97385SOL    HW293995   4.954   4.702   5.338
97386SOL     OW93996  12.400   0.682  11.420
97386SOL    HW193997  12.424   0.754  11.478
97386SOL    HW293998  12.459   0.611  11.444
97387SOL     OW93999   0.830  11.404   8.674
97387SOL    HW194000   0.911  11.355   8.691
97387SOL    HW294001   0.765  11.364   8.732
97388SOL     OW94002   0.002   2.898   8.248
97388SOL    HW194003   0.076   2.838   8.235
97388SOL    HW294004  14.834   2.900   8.163
97389SOL     OW94005   6.918   8.479   2.160
97389SOL    HW194006   6.876   8.538   2.098
97389SOL    HW294007   6.996   8.526   2.189
97390SOL     OW94008  13.171   8.066  10.262
97390SOL    HW194009  13.115   8.143  10.259
97390SOL    HW294010  13.165   8.036  10.353
97391SOL     OW94011   5.081   9.318  10.964
97391SOL    HW194012   5.048   9.263  10.893
97391SOL    HW294013   5.174   9.298  10.968
97392SOL     OW94014   2.120  13.103   2.076
97392SOL    HW194015   2.114  13.199   2.077
97392SOL    HW294016   2.039  13.075   2.035
97393SOL     OW94017   0.902   3.188  14.620
97393SOL    HW194018   0.885   3.282  14.609
97393SOL    HW294019   0.915   3.156  14.530
97394SOL     OW94020  11.280  10.460  10.939
97394SOL    HW194021  11.325  10.375  10.946
97394SOL    HW294022  11.235  10.456  10.854
97395SOL     OW94023   1.835   3.655   3.940
97395SOL    HW194024   1.851   3.677   4.032
97395SOL    HW294025   1.921   3.655   3.899
97396SOL     OW94026  12.209   8.924   2.820
97396SOL    HW194027  12.264   8.997   2.793
97396SOL    HW294028  12.260   8.846   2.797
97397SOL     OW94029  13.210  14.860   3.827
97397SOL    HW194030  13.183   0.059   3.880
97397SOL    HW294031  13.202  14.785   3.886
97398SOL     OW94032   7.984   6.084   4.678
97398SOL    HW194033   8.056   6.146   4.663
97398SOL    HW294034   7.970   6.043   4.593
97399SOL     OW94035   4.685   0.056   1.927
97399SOL    HW194036   4.675   0.145   1.892
97399SOL    HW294037   4.639   0.001   1.864
97400SOL     OW94038  11.819  13.141   8.968
97400SOL    HW194039  11.882  13.163   8.899
97400SOL    HW294040  11.854  13.062   9.009
97401SOL     OW94041  10.024   0.370   2.642
97401SOL    HW194042   9.988   0.432   2.579
97401SOL    HW294043  10.064   0.301   2.588
97402SOL     OW94044   8.913  11.328   1.699
97402SOL    HW194045   8.974  11.267   1.741
97402SOL    HW294046   8.915  11.405   1.755
97403SOL     OW94047  11.916   9.404   5.048
97403SOL    HW194048  11.853   9.475   5.039
97403SOL    HW294049  11.921   9.389   5.143
97404SOL     OW94050   0.705  13.302   5.329
97404SOL    HW194051   0.663  13.218   5.306
97404SOL    HW294052   0.700  13.306   5.425
97405SOL     OW94053   5.680  11.671   4.399
97405SOL    HW194054   5.695  11.751   4.348
97405SOL    HW294055   5.646  11.702   4.483
97406SOL     OW94056   3.035   5.980   9.346
97406SOL    HW194057   3.041   5.947   9.435
97406SOL    HW294058   3.035   5.901   9.291
97407SOL     OW94059   9.089   9.100   2.840
97407SOL    HW194060   9.021   9.048   2.798
97407SOL    HW294061   9.061   9.191   2.827
97408SOL     OW94062   3.651  10.348   8.325
97408SOL    HW194063   3.559  10.371   8.333
97408SOL    HW294064   3.666  10.283   8.394
97409SOL     OW94065  10.032   8.059  14.227
97409SOL    HW194066  10.115   8.023  14.196
97409SOL    HW294067   9.999   8.111  14.154
97410SOL     OW94068   3.536  14.371   1.238
97410SOL    HW194069   3.462  14.339   1.290
97410SOL    HW294070   3.542  14.309   1.165
97411SOL     OW94071  12.407   8.082   2.676
97411SOL    HW194072  12.382   7.999   2.636
97411SOL    HW294073  12.501   8.071   2.696
97412SOL     OW94074   3.679   4.041   4.278
97412SOL    HW194075   3.629   4.061   4.198
97412SOL    HW294076   3.746   3.980   4.249
97413SOL     OW94077   5.139   6.528   9.653
97413SOL    HW194078   5.104   6.445   9.619
97413SOL    HW294079   5.135   6.587   9.578
97414SOL     OW94080   6.196  10.804  10.540
97414SOL    HW194081   6.142  10.880  10.519
97414SOL    HW294082   6.190  10.796  10.635
97415SOL     OW94083  13.940   0.545   5.321
97415SOL    HW194084  13.863   0.492   5.343
97415SOL    HW294085  13.904   0.625   5.283
97416SOL     OW94086   5.772   1.047   3.941
97416SOL    HW194087   5.686   1.035   3.981
97416SOL    HW294088   5.833   1.046   4.015
97417SOL     OW94089   1.546   3.941  13.051
97417SOL    HW194090   1.523   4.028  13.017
97417SOL    HW294091   1.584   3.895  12.976
97418SOL     OW94092  11.073   7.792  14.861
97418SOL    HW194093  11.018   7.860  14.821
97418SOL    HW294094  11.089   7.730  14.790
97419SOL     OW94095   2.917   3.988   8.494
97419SOL    HW194096   2.984   4.054   8.477
97419SOL    HW294097   2.834   4.032   8.476
97420SOL     OW94098   8.474   2.953  14.705
97420SOL    HW194099   8.495   2.910  14.622
97420SOL    HW294100   8.530   3.031  14.707
97421SOL     OW94101   8.772   4.640   6.539
97421SOL    HW194102   8.866   4.633   6.526
97421SOL    HW294103   8.754   4.733   6.535
97422SOL     OW94104   1.624   5.618   0.500
97422SOL    HW194105   1.571   5.685   0.456
97422SOL    HW294106   1.560   5.551   0.526
97423SOL     OW94107   5.366   1.383   1.941
97423SOL    HW194108   5.350   1.419   2.029
97423SOL    HW294109   5.443   1.431   1.909
97424SOL     OW94110   9.951   5.844   2.964
97424SOL    HW194111   9.891   5.779   2.998
97424SOL    HW294112   9.921   5.927   3.001
97425SOL     OW94113   0.896  11.803  13.344
97425SOL    HW194114   0.981  11.772  13.378
97425SOL    HW294115   0.919  11.871  13.281
97426SOL     OW94116   7.965  13.471  14.343
97426SOL    HW194117   7.890  13.528  14.363
97426SOL    HW294118   8.005  13.454  14.429
97427SOL     OW94119   8.770  11.627  11.028
97427SOL    HW194120   8.723  11.601  11.107
97427SOL    HW294121   8.836  11.559  11.015
97428SOL     OW94122  10.135   2.260   7.634
97428SOL    HW194123  10.183   2.189   7.590
97428SOL    HW294124  10.049   2.260   7.592
97429SOL     OW94125   9.409   3.701   7.302
97429SOL    HW194126   9.401   3.779   7.357
97429SOL    HW294127   9.502   3.678   7.306
97430SOL     OW94128  11.459   8.217   4.844
97430SOL    HW194129  11.451   8.308   4.817
97430SOL    HW294130  11.549   8.193   4.820
97431SOL     OW94131   6.859   8.928   3.532
97431SOL    HW194132   6.873   8.834   3.535
97431SOL    HW294133   6.836   8.952   3.622
97432SOL     OW94134   7.682   5.577  11.530
97432SOL    HW194135   7.651   5.657  11.572
97432SOL    HW294136   7.697   5.602  11.439
97433SOL     OW94137  11.392   7.738   0.410
97433SOL    HW194138  11.444   7.818   0.404
97433SOL    HW294139  11.442   7.681   0.468
97434SOL     OW94140  14.838  14.473   1.449
97434SOL    HW194141  14.774  14.544   1.447
97434SOL    HW294142  14.853  14.452   1.357
97435SOL     OW94143   5.679  13.853   2.187
97435SOL    HW194144   5.730  13.778   2.158
97435SOL    HW294145   5.613  13.865   2.118
97436SOL     OW94146   8.022   0.693   1.433
97436SOL    HW194147   8.009   0.669   1.525
97436SOL    HW294148   8.094   0.638   1.403
97437SOL     OW94149   5.099   4.254   4.431
97437SOL    HW194150   5.058   4.337   4.406
97437SOL    HW294151   5.193   4.271   4.425
97438SOL     OW94152   4.315   1.479   0.725
97438SOL    HW194153   4.297   1.461   0.817
97438SOL    HW294154   4.352   1.568   0.725
97439SOL     OW94155   3.025   1.704   2.129
97439SOL    HW194156   3.025   1.779   2.189
97439SOL    HW294157   3.010   1.743   2.043
97440SOL     OW94158   1.591   2.482   4.277
97440SOL    HW194159   1.618   2.420   4.209
97440SOL    HW294160   1.506   2.514   4.248
97441SOL     OW94161   4.396  13.425   1.016
97441SOL    HW194162   4.359  13.414   1.104
97441SOL    HW294163   4.323  13.410   0.957
97442SOL     OW94164  13.800   1.841   0.510
97442SOL    HW194165  13.800   1.867   0.418
97442SOL    HW294166  13.707   1.834   0.533
97443SOL     OW94167   4.598   4.531   6.998
97443SOL    HW194168   4.577   4.438   7.007
97443SOL    HW294169   4.519   4.569   6.960
97444SOL     OW94170   5.265  12.677   8.613
97444SOL    HW194171   5.325  12.746   8.587
97444SOL    HW294172   5.305  12.636   8.689
97445SOL     OW94173   9.558   5.510  10.589
97445SOL    HW194174   9.495   5.485  10.521
97445SOL    HW294175   9.638   5.532  10.541
97446SOL     OW94176  10.977  12.710   6.106
97446SOL    HW194177  10.981  12.682   6.014
97446SOL    HW294178  10.943  12.800   6.101
97447SOL     OW94179   7.628   6.547   7.307
97447SOL    HW194180   7.587   6.627   7.272
97447SOL    HW294181   7.663   6.573   7.392
97448SOL     OW94182  13.904  11.096   7.334
97448SOL    HW194183  13.883  11.005   7.313
97448SOL    HW294184  13.826  11.128   7.379
97449SOL     OW94185  11.076   7.378   2.219
97449SOL    HW194186  11.044   7.372   2.128
97449SOL    HW294187  11.150   7.318   2.222
97450SOL     OW94188  14.808   4.865   9.907
97450SOL    HW194189   0.006   4.913   9.943
97450SOL    HW294190  14.810   4.780   9.951
97451SOL     OW94191   2.049   4.421  12.127
97451SOL    HW194192   2.003   4.455  12.050
97451SOL    HW294193   2.139   4.408  12.096
97452SOL     OW94194  13.458  10.972  12.578
97452SOL    HW194195  13.498  10.927  12.652
97452SOL    HW294196  13.364  10.955  12.587
97453SOL     OW94197   9.211   1.248   3.067
97453SOL    HW194198   9.250   1.167   3.099
97453SOL    HW294199   9.123   1.249   3.105
97454SOL     OW94200  11.179   4.023   4.155
97454SOL    HW194201  11.182   4.108   4.199
97454SOL    HW294202  11.097   4.025   4.106
97455SOL     OW94203   7.364   2.298   1.995
97455SOL    HW194204   7.405   2.336   1.918
97455SOL    HW294205   7.313   2.369   2.033
97456SOL     OW94206   7.927   4.261   5.533
97456SOL    HW194207   8.008   4.274   5.582
97456SOL    HW294208   7.859   4.299   5.588
97457SOL     OW94209  10.609  14.745   0.582
97457SOL    HW194210  10.664  14.771   0.655
97457SOL    HW294211  10.661  14.678   0.536
97458SOL     OW94212   2.198  14.098  10.064
97458SOL    HW194213   2.236  14.100  10.152
97458SOL    HW294214   2.268  14.128  10.007
97459SOL     OW94215   9.584  10.507  14.595
97459SOL    HW194216   9.646  10.566  14.637
97459SOL    HW294217   9.617  10.420  14.615
97460SOL     OW94218   7.102  12.234   7.299
97460SOL    HW194219   7.165  12.210   7.368
97460SOL    HW294220   7.065  12.317   7.328
97461SOL     OW94221  14.875  14.862   2.671
97461SOL    HW194222  14.812   0.047   2.708
97461SOL    HW294223   0.048  14.829   2.746
97462SOL     OW94224  12.778   2.362   8.376
97462SOL    HW194225  12.761   2.342   8.284
97462SOL    HW294226  12.773   2.458   8.381
97463SOL     OW94227   3.847   7.948   5.441
97463SOL    HW194228   3.939   7.969   5.450
97463SOL    HW294229   3.803   8.033   5.438
97464SOL     OW94230   7.182   1.828   0.447
97464SOL    HW194231   7.276   1.817   0.460
97464SOL    HW294232   7.172   1.920   0.422
97465SOL     OW94233   6.837  14.666   5.852
97465SOL    HW194234   6.755  14.661   5.802
97465SOL    HW294235   6.816  14.628   5.937
97466SOL     OW94236   3.131  11.174   8.331
97466SOL    HW194237   3.147  11.269   8.332
97466SOL    HW294238   3.212  11.136   8.364
97467SOL     OW94239  10.369   7.676   2.137
97467SOL    HW194240  10.445   7.690   2.194
97467SOL    HW294241  10.358   7.581   2.134
97468SOL     OW94242   7.192   9.181  11.366
97468SOL    HW194243   7.177   9.109  11.427
97468SOL    HW294244   7.105   9.206  11.334
97469SOL     OW94245   3.385   4.539   3.583
97469SOL    HW194246   3.466   4.490   3.595
97469SOL    HW294247   3.372   4.541   3.488
97470SOL     OW94248   2.496  12.573  12.450
97470SOL    HW194249   2.471  12.598  12.539
97470SOL    HW294250   2.580  12.528  12.461
97471SOL     OW94251   0.689  11.811   2.157
97471SOL    HW194252   0.650  11.871   2.220
97471SOL    HW294253   0.617  11.784   2.100
97472SOL     OW94254  12.410  10.918   4.523
97472SOL    HW194255  12.431  10.932   4.431
97472SOL    HW294256  12.323  10.957   4.534
97473SOL     OW94257  10.466   0.059  14.716
97473SOL    HW194258  10.558   0.074  14.741
97473SOL    HW294259  10.456   0.105  14.632
97474SOL     OW94260  14.446   8.235   2.549
97474SOL    HW194261  14.478   8.173   2.483
97474SOL    HW294262  14.500   8.216   2.627
97475SOL     OW94263   2.277  13.639  11.282
97475SOL    HW194264   2.202  13.697  11.271
97475SOL    HW294265   2.246  13.569  11.340
97476SOL     OW94266   3.152  10.040   5.413
97476SOL    HW194267   3.207  10.001   5.481
97476SOL    HW294268   3.072   9.987   5.415
97477SOL     OW94269   4.438  11.776   5.303
97477SOL    HW194270   4.372  11.708   5.314
97477SOL    HW294271   4.434  11.827   5.384
97478SOL     OW94272   2.127  13.665   4.320
97478SOL    HW194273   2.112  13.688   4.412
97478SOL    HW294274   2.044  13.687   4.276
97479SOL     OW94275  11.557   4.437   7.844
97479SOL    HW194276  11.539   4.473   7.757
97479SOL    HW294277  11.472   4.406   7.875
97480SOL     OW94278   7.748   7.609   7.523
97480SOL    HW194279   7.656   7.628   7.505
97480SOL    HW294280   7.769   7.533   7.469
97481SOL     OW94281  13.048   0.837   1.080
97481SOL    HW194282  13.016   0.845   1.170
97481SOL    HW294283  12.988   0.892   1.029
97482SOL     OW94284   9.668  10.582   2.175
97482SOL    HW194285   9.667  10.592   2.271
97482SOL    HW294286   9.654  10.670   2.141
97483SOL     OW94287   9.618   5.604   6.330
97483SOL    HW194288   9.656   5.516   6.333
97483SOL    HW294289   9.681   5.656   6.280
97484SOL     OW94290  10.912  13.327   7.893
97484SOL    HW194291  10.961  13.379   7.829
97484SOL    HW294292  10.824  13.365   7.894
97485SOL     OW94293   6.342   4.798   4.584
97485SOL    HW194294   6.394   4.856   4.529
97485SOL    HW294295   6.263   4.780   4.533
97486SOL     OW94296  13.768   9.852   5.051
97486SOL    HW194297  13.847   9.897   5.022
97486SOL    HW294298  13.752   9.887   5.139
97487SOL     OW94299   7.577  10.921   0.556
97487SOL    HW194300   7.623  10.914   0.640
97487SOL    HW294301   7.528  11.003   0.562
97488SOL     OW94302  10.855  14.509   5.720
97488SOL    HW194303  10.818  14.435   5.769
97488SOL    HW294304  10.854  14.582   5.783
97489SOL     OW94305  14.692   9.828   6.261
97489SOL    HW194306  14.636   9.876   6.322
97489SOL    HW294307  14.741   9.767   6.316
97490SOL     OW94308   7.996   0.232  11.490
97490SOL    HW194309   8.023   0.272  11.573
97490SOL    HW294310   8.026   0.141  11.497
97491SOL     OW94311   7.899  13.226   7.577
97491SOL    HW194312   7.993  13.209   7.571
97491SOL    HW294313   7.860  13.165   7.514
97492SOL     OW94314   7.525   6.821  10.877
97492SOL    HW194315   7.469   6.830  10.800
97492SOL    HW294316   7.582   6.747  10.857
97493SOL     OW94317  14.015   0.561  11.057
97493SOL    HW194318  14.016   0.488  11.118
97493SOL    HW294319  14.108   0.578  11.039
97494SOL     OW94320   8.088   6.297  13.111
97494SOL    HW194321   8.124   6.228  13.055
97494SOL    HW294322   8.122   6.378  13.073
97495SOL     OW94323   4.158   4.515  10.485
97495SOL    HW194324   4.091   4.537  10.550
97495SOL    HW294325   4.201   4.598  10.465
97496SOL     OW94326   3.358   8.657   5.466
97496SOL    HW194327   3.352   8.561   5.467
97496SOL    HW294328   3.444   8.675   5.428
97497SOL     OW94329   3.079   9.763   2.962
97497SOL    HW194330   3.070   9.857   2.945
97497SOL    HW294331   3.162   9.740   2.921
97498SOL     OW94332  13.452   0.823  11.700
97498SOL    HW194333  13.386   0.758  11.678
97498SOL    HW294334  13.511   0.778  11.761
97499SOL     OW94335   4.050   4.960  12.916
97499SOL    HW194336   3.989   5.033  12.909
97499SOL    HW294337   4.092   4.972  13.002
97500SOL     OW94338   2.793  11.159  12.792
97500SOL    HW194339   2.806  11.153  12.886
97500SOL    HW294340   2.872  11.201  12.759
97501SOL     OW94341  14.007  11.303   9.150
97501SOL    HW194342  14.001  11.398   9.155
97501SOL    HW294343  14.085  11.281   9.202
97502SOL     OW94344   9.100   1.744   9.119
97502SOL    HW194345   9.107   1.668   9.061
97502SOL    HW294346   9.074   1.815   9.061
97503SOL     OW94347  10.487   7.546   8.222
97503SOL    HW194348  10.510   7.471   8.166
97503SOL    HW294349  10.419   7.513   8.280
97504SOL     OW94350   1.111  12.488  10.441
97504SOL    HW194351   1.136  12.472  10.350
97504SOL    HW294352   1.017  12.466  10.443
97505SOL     OW94353   0.353  14.468   9.381
97505SOL    HW194354   0.393  14.505   9.459
97505SOL    HW294355   0.394  14.382   9.372
97506SOL     OW94356   8.505  14.830   6.726
97506SOL    HW194357   8.543   0.041   6.725
97506SOL    HW294358   8.437  14.831   6.658
97507SOL     OW94359   3.219   3.574   4.986
97507SOL    HW194360   3.231   3.602   5.077
97507SOL    HW294361   3.275   3.634   4.936
97508SOL     OW94362  14.821   6.643   7.602
97508SOL    HW194363  14.825   6.631   7.507
97508SOL    HW294364  14.738   6.687   7.617
97509SOL     OW94365  14.026   9.166  13.799
97509SOL    HW194366  14.089   9.110  13.755
97509SOL    HW294367  14.065   9.187  13.883
97510SOL     OW94368   4.480  12.608   5.580
97510SOL    HW194369   4.537  12.558   5.640
97510SOL    HW294370   4.475  12.553   5.501
97511SOL     OW94371   6.372   4.933   7.443
97511SOL    HW194372   6.439   4.875   7.406
97511SOL    HW294373   6.335   4.884   7.516
97512SOL     OW94374   1.388   4.395   9.786
97512SOL    HW194375   1.424   4.321   9.736
97512SOL    HW294376   1.368   4.358   9.872
97513SOL     OW94377   6.195  12.933  14.092
97513SOL    HW194378   6.123  12.955  14.151
97513SOL    HW294379   6.208  13.012  14.039
97514SOL     OW94380   2.334   7.645   6.133
97514SOL    HW194381   2.319   7.552   6.115
97514SOL    HW294382   2.253   7.675   6.174
97515SOL     OW94383  13.759  12.395   8.676
97515SOL    HW194384  13.754  12.300   8.666
97515SOL    HW294385  13.712  12.430   8.600
97516SOL     OW94386   2.018   6.392   4.201
97516SOL    HW194387   2.020   6.422   4.110
97516SOL    HW294388   2.110   6.389   4.227
97517SOL     OW94389  12.193  11.766  13.087
97517SOL    HW194390  12.275  11.810  13.065
97517SOL    HW294391  12.206  11.676  13.058
97518SOL     OW94392  14.334   7.170   8.303
97518SOL    HW194393  14.392   7.105   8.344
97518SOL    HW294394  14.364   7.173   8.212
97519SOL     OW94395   8.172  14.225   0.723
97519SOL    HW194396   8.234  14.169   0.770
97519SOL    HW294397   8.200  14.222   0.632
97520SOL     OW94398   0.366   5.605   7.213
97520SOL    HW194399   0.437   5.667   7.228
97520SOL    HW294400   0.405   5.519   7.227
97521SOL     OW94401  14.871  10.368   1.001
97521SOL    HW194402  14.782  10.392   1.027
97521SOL    HW294403   0.028  10.446   0.957
97522SOL     OW94404   4.578   9.375  11.960
97522SOL    HW194405   4.489   9.353  11.988
97522SOL    HW294406   4.621   9.290  11.949
97523SOL     OW94407   5.223   4.052   4.220
97523SOL    HW194408   5.220   4.079   4.312
97523SOL    HW294409   5.133   4.029   4.199
97524SOL     OW94410   9.816   2.164   9.348
97524SOL    HW194411   9.827   2.225   9.276
97524SOL    HW294412   9.767   2.213   9.414
97525SOL     OW94413   2.722   4.647  12.063
97525SOL    HW194414   2.760   4.614  11.982
97525SOL    HW294415   2.677   4.728  12.037
97526SOL     OW94416   2.024   5.593   7.792
97526SOL    HW194417   1.955   5.659   7.786
97526SOL    HW294418   2.023   5.550   7.707
97527SOL     OW94419  11.631  13.894   0.576
97527SOL    HW194420  11.697  13.870   0.512
97527SOL    HW294421  11.578  13.814   0.587
97528SOL     OW94422   3.478   3.767   7.473
97528SOL    HW194423   3.417   3.824   7.520
97528SOL    HW294424   3.556   3.820   7.460
97529SOL     OW94425  13.720   1.041  14.281
97529SOL    HW194426  13.649   0.988  14.317
97529SOL    HW294427  13.743   1.101  14.352
97530SOL     OW94428   7.131   3.293  10.621
97530SOL    HW194429   7.193   3.366  10.621
97530SOL    HW294430   7.127   3.265  10.530
97531SOL     OW94431   2.766   9.738   7.547
97531SOL    HW194432   2.774   9.811   7.486
97531SOL    HW294433   2.674   9.738   7.572
97532SOL     OW94434   1.963  13.948   4.180
97532SOL    HW194435   1.880  13.964   4.134
97532SOL    HW294436   1.976  14.028   4.232
97533SOL     OW94437  14.368  10.567   1.452
97533SOL    HW194438  14.448  10.533   1.492
97533SOL    HW294439  14.299  10.510   1.484
97534SOL     OW94440  12.679   6.156  13.124
97534SOL    HW194441  12.683   6.099  13.047
97534SOL    HW294442  12.681   6.245  13.087
97535SOL     OW94443  14.274  11.247   2.452
97535SOL    HW194444  14.261  11.322   2.394
97535SOL    HW294445  14.353  11.269   2.502
97536SOL     OW94446  10.993   6.308   0.503
97536SOL    HW194447  11.002   6.262   0.587
97536SOL    HW294448  11.063   6.271   0.449
97537SOL     OW94449   1.924  12.920   1.985
97537SOL    HW194450   1.845  12.874   1.957
97537SOL    HW294451   1.991  12.852   1.993
97538SOL     OW94452  13.289  14.419   7.318
97538SOL    HW194453  13.331  14.413   7.404
97538SOL    HW294454  13.355  14.385   7.257
97539SOL     OW94455   5.508   4.442  10.995
97539SOL    HW194456   5.503   4.382  11.070
97539SOL    HW294457   5.490   4.387  10.919
97540SOL     OW94458  10.047   5.340  11.947
97540SOL    HW194459  10.049   5.391  12.028
97540SOL    HW294460  10.100   5.263  11.967
97541SOL     OW94461   6.843  11.478   7.789
97541SOL    HW194462   6.908  11.505   7.853
97541SOL    HW294463   6.825  11.387   7.810
97542SOL     OW94464   3.923  10.006   8.384
97542SOL    HW194465   3.925  10.049   8.298
97542SOL    HW294466   3.904   9.914   8.364
97543SOL     OW94467   7.118   9.224   8.068
97543SOL    HW194468   7.101   9.318   8.078
97543SOL    HW294469   7.038   9.182   8.102
97544SOL     OW94470   1.191   4.589   8.864
97544SOL    HW194471   1.114   4.559   8.814
97544SOL    HW294472   1.218   4.512   8.914
97545SOL     OW94473   1.075   5.943   9.833
97545SOL    HW194474   1.118   5.965   9.915
97545SOL    HW294475   1.124   5.991   9.766
97546SOL     OW94476   3.513  13.048  12.775
97546SOL    HW194477   3.597  13.002  12.773
97546SOL    HW294478   3.488  13.050  12.867
97547SOL     OW94479   6.704   2.014  11.673
97547SOL    HW194480   6.649   2.084  11.707
97547SOL    HW294481   6.770   2.000  11.741
97548SOL     OW94482   5.871   5.359   8.773
97548SOL    HW194483   5.875   5.445   8.815
97548SOL    HW294484   5.778   5.337   8.772
97549SOL     OW94485  13.672  11.529   4.703
97549SOL    HW194486  13.680  11.446   4.750
97549SOL    HW294487  13.760  11.566   4.705
97550SOL     OW94488   4.792   2.598   5.393
97550SOL    HW194489   4.838   2.535   5.449
97550SOL    HW294490   4.780   2.551   5.310
97551SOL     OW94491   6.649  10.085   5.589
97551SOL    HW194492   6.667   9.995   5.614
97551SOL    HW294493   6.722  10.110   5.532
97552SOL     OW94494   1.832   7.818  11.686
97552SOL    HW194495   1.792   7.755  11.746
97552SOL    HW294496   1.815   7.903  11.727
97553SOL     OW94497  11.913   0.314  13.366
97553SOL    HW194498  11.892   0.331  13.274
97553SOL    HW294499  11.843   0.357  13.415
97554SOL     OW94500   1.028   8.538  11.296
97554SOL    HW194501   0.980   8.458  11.316
97554SOL    HW294502   1.098   8.510  11.237
97555SOL     OW94503   0.182   5.976   6.703
97555SOL    HW194504   0.167   5.949   6.613
97555SOL    HW294505   0.098   5.961   6.747
97556SOL     OW94506   1.110  10.144   6.829
97556SOL    HW194507   1.150  10.161   6.744
97556SOL    HW294508   1.145  10.059   6.856
97557SOL     OW94509   1.074   9.883   2.346
97557SOL    HW194510   1.005   9.826   2.380
97557SOL    HW294511   1.155   9.835   2.360
97558SOL     OW94512   2.031   0.651  11.434
97558SOL    HW194513   2.113   0.660  11.384
97558SOL    HW294514   1.996   0.740  11.438
97559SOL     OW94515   7.628   4.736   9.563
97559SOL    HW194516   7.583   4.782   9.634
97559SOL    HW294517   7.598   4.781   9.484
97560SOL     OW94518   7.821   2.767   0.278
97560SOL    HW194519   7.865   2.801   0.200
97560SOL    HW294520   7.892   2.753   0.341
97561SOL     OW94521  12.487  10.775   2.924
97561SOL    HW194522  12.510  10.691   2.885
97561SOL    HW294523  12.568  10.825   2.924
97562SOL     OW94524   3.803   6.638  13.855
97562SOL    HW194525   3.804   6.719  13.906
97562SOL    HW294526   3.740   6.583  13.900
97563SOL     OW94527   9.736  10.314  11.771
97563SOL    HW194528   9.670  10.360  11.822
97563SOL    HW294529   9.796  10.277  11.836
97564SOL     OW94530  14.267   6.952   5.951
97564SOL    HW194531  14.288   7.029   5.898
97564SOL    HW294532  14.313   6.880   5.907
97565SOL     OW94533  12.781   2.001  12.442
97565SOL    HW194534  12.733   2.081  12.421
97565SOL    HW294535  12.872   2.029  12.447
97566SOL     OW94536   6.321   0.431  13.131
97566SOL    HW194537   6.306   0.411  13.223
97566SOL    HW294538   6.241   0.475  13.102
97567SOL     OW94539  13.670   3.317  14.732
97567SOL    HW194540  13.653   3.249  14.667
97567SOL    HW294541  13.732   3.376  14.690
97568SOL     OW94542   0.824   0.501   0.130
97568SOL    HW194543   0.900   0.537   0.176
97568SOL    HW294544   0.860   0.438   0.068
97569SOL     OW94545  10.617   5.616   2.808
97569SOL    HW194546  10.575   5.701   2.819
97569SOL    HW294547  10.550   5.553   2.836
97570SOL     OW94548   4.936   5.910   2.426
97570SOL    HW194549   5.009   5.911   2.364
97570SOL    HW294550   4.979   5.912   2.512
97571SOL     OW94551   5.460   6.090  13.001
97571SOL    HW194552   5.534   6.091  13.061
97571SOL    HW294553   5.470   6.009  12.951
97572SOL     OW94554   0.540  12.893  10.894
97572SOL    HW194555   0.484  12.816  10.885
97572SOL    HW294556   0.599  12.872  10.966
97573SOL     OW94557   5.133  10.837   4.554
97573SOL    HW194558   5.199  10.825   4.486
97573SOL    HW294559   5.089  10.918   4.531
97574SOL     OW94560  12.733   7.110   8.433
97574SOL    HW194561  12.689   7.181   8.386
97574SOL    HW294562  12.823   7.112   8.400
97575SOL     OW94563   6.913  12.047   6.647
97575SOL    HW194564   6.866  11.995   6.582
97575SOL    HW294565   6.967  11.983   6.694
97576SOL     OW94566   5.075   8.943   3.310
97576SOL    HW194567   5.012   8.958   3.240
97576SOL    HW294568   5.115   8.858   3.289
97577SOL     OW94569   2.831   3.615  13.151
97577SOL    HW194570   2.764   3.612  13.219
97577SOL    HW294571   2.848   3.523  13.130
97578SOL     OW94572   8.708  13.030  13.513
97578SOL    HW194573   8.652  13.105  13.535
97578SOL    HW294574   8.656  12.979  13.450
97579SOL     OW94575   0.469  10.230  11.290
97579SOL    HW194576   0.435  10.142  11.269
97579SOL    HW294577   0.445  10.243  11.382
97580SOL     OW94578   7.369   3.466  10.681
97580SOL    HW194579   7.439   3.432  10.625
97580SOL    HW294580   7.391   3.558  10.695
97581SOL     OW94581  10.775   7.299   1.831
97581SOL    HW194582  10.720   7.225   1.803
97581SOL    HW294583  10.713   7.364   1.862
97582SOL     OW94584   3.719   6.702   8.718
97582SOL    HW194585   3.813   6.699   8.704
97582SOL    HW294586   3.709   6.714   8.812
97583SOL     OW94587   0.502   2.102   5.978
97583SOL    HW194588   0.473   2.057   5.898
97583SOL    HW294589   0.451   2.183   5.979
97584SOL     OW94590  13.357   3.368   5.166
97584SOL    HW194591  13.283   3.428   5.182
97584SOL    HW294592  13.419   3.389   5.236
97585SOL     OW94593   9.159  13.498   6.828
97585SOL    HW194594   9.084  13.442   6.847
97585SOL    HW294595   9.233  13.454   6.869
97586SOL     OW94596   4.881   1.526   3.156
97586SOL    HW194597   4.869   1.452   3.216
97586SOL    HW294598   4.886   1.603   3.212
97587SOL     OW94599   8.664   3.871   0.535
97587SOL    HW194600   8.752   3.842   0.557
97587SOL    HW294601   8.675   3.961   0.502
97588SOL     OW94602   7.810   6.513   4.846
97588SOL    HW194603   7.749   6.481   4.912
97588SOL    HW294604   7.757   6.527   4.768
97589SOL     OW94605  12.386   9.639  11.078
97589SOL    HW194606  12.401   9.551  11.113
97589SOL    HW294607  12.340   9.624  10.995
97590SOL     OW94608  11.193   1.689   5.482
97590SOL    HW194609  11.185   1.696   5.578
97590SOL    HW294610  11.225   1.600   5.467
97591SOL     OW94611   2.725   7.883  11.169
97591SOL    HW194612   2.660   7.951  11.188
97591SOL    HW294613   2.802   7.909  11.220
97592SOL     OW94614   5.345  13.674   6.022
97592SOL    HW194615   5.311  13.719   5.945
97592SOL    HW294616   5.358  13.584   5.993
97593SOL     OW94617  13.315   0.728   4.684
97593SOL    HW194618  13.289   0.777   4.606
97593SOL    HW294619  13.283   0.780   4.757
97594SOL     OW94620  14.827   1.581  12.941
97594SOL    HW194621  14.836   1.674  12.924
97594SOL    HW294622  14.786   1.546  12.861
97595SOL     OW94623  13.236   3.298   3.309
97595SOL    HW194624  13.326   3.323   3.288
97595SOL    HW294625  13.187   3.381   3.306
97596SOL     OW94626   1.314   8.064   7.017
97596SOL    HW194627   1.407   8.046   7.029
97596SOL    HW294628   1.272   8.032   7.097
97597SOL     OW94629   9.208   3.533  13.148
97597SOL    HW194630   9.185   3.453  13.195
97597SOL    HW294631   9.171   3.522  13.061
97598SOL     OW94632  12.275   2.502   3.287
97598SOL    HW194633  12.322   2.431   3.331
97598SOL    HW294634  12.235   2.461   3.211
97599SOL     OW94635  13.180  12.504   4.968
97599SOL    HW194636  13.207  12.586   4.926
97599SOL    HW294637  13.208  12.436   4.907
97600SOL     OW94638   2.952   3.785   4.478
97600SOL    HW194639   3.015   3.827   4.536
97600SOL    HW294640   2.903   3.726   4.534
97601SOL     OW94641   2.426   7.131   9.996
97601SOL    HW194642   2.469   7.109  10.079
97601SOL    HW294643   2.463   7.070   9.933
97602SOL     OW94644  11.225   0.171   9.283
97602SOL    HW194645  11.297   0.147   9.341
97602SOL    HW294646  11.263   0.168   9.195
97603SOL     OW94647   4.541   9.801   6.021
97603SOL    HW194648   4.495   9.861   5.962
97603SOL    HW294649   4.537   9.716   5.976
97604SOL     OW94650   2.550  12.851   5.274
97604SOL    HW194651   2.580  12.786   5.338
97604SOL    HW294652   2.586  12.933   5.306
97605SOL     OW94653  12.230  12.043  13.015
97605SOL    HW194654  12.168  11.990  13.064
97605SOL    HW294655  12.208  12.027  12.923
97606SOL     OW94656   1.716  14.284  13.846
97606SOL    HW194657   1.644  14.337  13.810
97606SOL    HW294658   1.705  14.198  13.805
97607SOL     OW94659   3.565  12.588   7.465
97607SOL    HW194660   3.638  12.599   7.526
97607SOL    HW294661   3.492  12.635   7.506
97608SOL     OW94662  12.272   9.566   4.505
97608SOL    HW194663  12.323   9.595   4.581
97608SOL    HW294664  12.220   9.493   4.537
97609SOL     OW94665   6.711  12.215  11.514
97609SOL    HW194666   6.684  12.151  11.579
97609SOL    HW294667   6.639  12.218  11.451
97610SOL     OW94668   7.904   2.078   6.818
97610SOL    HW194669   7.827   2.076   6.876
97610SOL    HW294670   7.978   2.085   6.877
97611SOL     OW94671   9.384   7.519  13.327
97611SOL    HW194672   9.347   7.606  13.339
97611SOL    HW294673   9.366   7.473  13.409
97612SOL     OW94674   1.085  10.741   3.235
97612SOL    HW194675   1.093  10.659   3.285
97612SOL    HW294676   1.011  10.786   3.276
97613SOL     OW94677   2.005   9.129   6.727
97613SOL    HW194678   2.043   9.077   6.797
97613SOL    HW294679   2.038   9.217   6.741
97614SOL     OW94680   0.628  11.484  12.145
97614SOL    HW194681   0.548  11.526  12.177
97614SOL    HW294682   0.597  11.410  12.093
97615SOL     OW94683   3.276   9.311   7.567
97615SOL    HW194684   3.217   9.277   7.499
97615SOL    HW294685   3.330   9.376   7.522
97616SOL     OW94686   6.035   5.399   4.233
97616SOL    HW194687   6.003   5.410   4.143
97616SOL    HW294688   5.983   5.462   4.284
97617SOL     OW94689   6.130   1.475  13.892
97617SOL    HW194690   6.096   1.555  13.932
97617SOL    HW294691   6.224   1.477  13.910
97618SOL     OW94692   6.472   4.293   0.687
97618SOL    HW194693   6.509   4.350   0.619
97618SOL    HW294694   6.395   4.340   0.718
97619SOL     OW94695   3.209   3.019  11.477
97619SOL    HW194696   3.297   2.982  11.471
97619SOL    HW294697   3.219   3.108  11.442
97620SOL     OW94698   1.418   6.639   2.627
97620SOL    HW194699   1.454   6.630   2.715
97620SOL    HW294700   1.450   6.562   2.580
97621SOL     OW94701   2.172  12.564  12.033
97621SOL    HW194702   2.138  12.479  12.005
97621SOL    HW294703   2.230  12.591  11.962
97622SOL     OW94704   3.991  10.476  12.732
97622SOL    HW194705   3.985  10.420  12.655
97622SOL    HW294706   4.082  10.466  12.762
97623SOL     OW94707   7.982   4.946  12.257
97623SOL    HW194708   8.031   4.865  12.270
97623SOL    HW294709   8.006   5.001  12.332
97624SOL     OW94710  10.788   3.171  12.556
97624SOL    HW194711  10.801   3.230  12.631
97624SOL    HW294712  10.762   3.088  12.595
97625SOL     OW94713   6.101  12.411   8.640
97625SOL    HW194714   6.087  12.403   8.546
97625SOL    HW294715   6.054  12.336   8.678
97626SOL     OW94716   0.538   5.229   1.493
97626SOL    HW194717   0.445   5.209   1.499
97626SOL    HW294718   0.563   5.258   1.581
97627SOL     OW94719   8.312   7.808  11.697
97627SOL    HW194720   8.363   7.881  11.663
97627SOL    HW294721   8.295   7.752  11.621
97628SOL     OW94722  10.477  11.830   2.905
97628SOL    HW194723  10.408  11.891   2.930
97628SOL    HW294724  10.486  11.772   2.980
97629SOL     OW94725   2.868   5.571   1.298
97629SOL    HW194726   2.937   5.541   1.239
97629SOL    HW294727   2.901   5.654   1.333
97630SOL     OW94728   0.418   1.471   6.669
97630SOL    HW194729   0.495   1.424   6.637
97630SOL    HW294730   0.364   1.484   6.591
97631SOL     OW94731   5.055   5.876  12.731
97631SOL    HW194732   5.122   5.925  12.684
97631SOL    HW294733   5.083   5.784  12.724
97632SOL     OW94734   0.140   1.130   3.369
97632SOL    HW194735   0.157   1.113   3.462
97632SOL    HW294736   0.089   1.211   3.369
97633SOL     OW94737  12.540   5.216   1.409
97633SOL    HW194738  12.474   5.227   1.477
97633SOL    HW294739  12.598   5.147   1.444
97634SOL     OW94740   0.167  13.880  12.349
97634SOL    HW194741   0.088  13.896  12.298
97634SOL    HW294742   0.238  13.915  12.295
97635SOL     OW94743   6.585  11.921  10.906
97635SOL    HW194744   6.628  11.878  10.980
97635SOL    HW294745   6.551  11.849  10.854
97636SOL     OW94746   7.523  13.120   1.030
97636SOL    HW194747   7.447  13.069   1.060
97636SOL    HW294748   7.552  13.074   0.951
97637SOL     OW94749   1.679   5.593  13.155
97637SOL    HW194750   1.661   5.503  13.126
97637SOL    HW294751   1.678   5.588  13.250
97638SOL     OW94752  10.351   7.393  14.548
97638SOL    HW194753  10.299   7.318  14.574
97638SOL    HW294754  10.366   7.441  14.630
97639SOL     OW94755  14.837  11.288   9.456
97639SOL    HW194756   0.025  11.222   9.431
97639SOL    HW294757   0.000  11.372   9.430
97640SOL     OW94758  13.278  12.182  11.282
97640SOL    HW194759  13.324  12.143  11.357
97640SOL    HW294760  13.191  12.143  11.284
97641SOL     OW94761  12.646  14.658   2.499
97641SOL    HW194762  12.592  14.582   2.520
97641SOL    HW294763  12.601  14.732   2.540
97642SOL     OW94764  14.497  12.085  13.352
97642SOL    HW194765  14.483  12.002  13.305
97642SOL    HW294766  14.490  12.152  13.284
97643SOL     OW94767   4.750   1.735  11.779
97643SOL    HW194768   4.766   1.807  11.841
97643SOL    HW294769   4.820   1.672  11.797
97644SOL     OW94770   0.392   9.187  10.384
97644SOL    HW194771   0.307   9.228  10.399
97644SOL    HW294772   0.432   9.239  10.314
97645SOL     OW94773  14.212   1.867  10.550
97645SOL    HW194774  14.257   1.785  10.571
97645SOL    HW294775  14.261   1.935  10.596
97646SOL     OW94776   1.576   0.615   9.349
97646SOL    HW194777   1.618   0.561   9.282
97646SOL    HW294778   1.575   0.703   9.311
97647SOL     OW94779   9.206   2.614  14.822
97647SOL    HW194780   9.300   2.610  14.806
97647SOL    HW294781   9.182   2.524  14.845
97648SOL     OW94782  14.672   2.077   5.901
97648SOL    HW194783  14.739   2.123   5.952
97648SOL    HW294784  14.710   1.992   5.882
97649SOL     OW94785  13.253   0.460   2.390
97649SOL    HW194786  13.242   0.402   2.314
97649SOL    HW294787  13.171   0.509   2.394
97650SOL     OW94788  12.312  13.642   2.054
97650SOL    HW194789  12.389  13.595   2.084
97650SOL    HW294790  12.297  13.709   2.121
97651SOL     OW94791  13.443   1.200   6.004
97651SOL    HW194792  13.479   1.112   6.019
97651SOL    HW294793  13.470   1.251   6.081
97652SOL     OW94794   4.515  12.609   5.047
97652SOL    HW194795   4.579  12.572   5.108
97652SOL    HW294796   4.451  12.653   5.103
97653SOL     OW94797   6.539   7.380   5.697
97653SOL    HW194798   6.512   7.298   5.654
97653SOL    HW294799   6.572   7.352   5.782
97654SOL     OW94800   3.468   6.319  14.826
97654SOL    HW194801   3.471   6.412  14.804
97654SOL    HW294802   3.500   6.274  14.747
97655SOL     OW94803  12.837  12.915   9.499
97655SOL    HW194804  12.793  12.898   9.415
97655SOL    HW294805  12.877  12.831   9.522
97656SOL     OW94806   0.452   3.484  10.487
97656SOL    HW194807   0.529   3.524  10.446
97656SOL    HW294808   0.407   3.557  10.530
97657SOL     OW94809  12.764   8.228   0.306
97657SOL    HW194810  12.697   8.292   0.330
97657SOL    HW294811  12.781   8.179   0.387
97658SOL     OW94812   0.655  13.854  14.220
97658SOL    HW194813   0.642  13.947  14.201
97658SOL    HW294814   0.658  13.850  14.316
97659SOL     OW94815   4.319   8.470   6.569
97659SOL    HW194816   4.280   8.495   6.652
97659SOL    HW294817   4.410   8.501   6.575
97660SOL     OW94818   9.189  13.467   0.582
97660SOL    HW194819   9.139  13.455   0.501
97660SOL    HW294820   9.261  13.525   0.557
97661SOL     OW94821   2.523   5.680   3.947
97661SOL    HW194822   2.457   5.731   3.994
97661SOL    HW294823   2.544   5.732   3.870
97662SOL     OW94824   4.306   8.737   8.781
97662SOL    HW194825   4.398   8.710   8.778
97662SOL    HW294826   4.265   8.675   8.842
97663SOL     OW94827  14.050   8.324  13.979
97663SOL    HW194828  14.128   8.288  13.935
97663SOL    HW294829  14.038   8.410  13.939
97664SOL     OW94830  14.195  14.365   9.701
97664SOL    HW194831  14.221  14.452   9.728
97664SOL    HW294832  14.105  14.356   9.732
97665SOL     OW94833  10.989   4.739   7.530
97665SOL    HW194834  11.003   4.645   7.517
97665SOL    HW294835  10.898   4.745   7.560
97666SOL     OW94836   1.471   3.767   7.085
97666SOL    HW194837   1.453   3.861   7.074
97666SOL    HW294838   1.411   3.724   7.024
97667SOL     OW94839   2.513  11.904   2.420
97667SOL    HW194840   2.449  11.967   2.454
97667SOL    HW294841   2.582  11.902   2.486
97668SOL     OW94842  14.803   0.306   0.434
97668SOL    HW194843  14.786   0.396   0.459
97668SOL    HW294844  14.818   0.310   0.339
97669SOL     OW94845   8.427  12.901   0.657
97669SOL    HW194846   8.438  12.880   0.750
97669SOL    HW294847   8.506  12.949   0.633
97670SOL     OW94848  10.156  14.331   2.377
97670SOL    HW194849  10.087  14.395   2.357
97670SOL    HW294850  10.227  14.384   2.413
97671SOL     OW94851   9.414   1.088   8.958
97671SOL    HW194852   9.430   1.101   9.051
97671SOL    HW294853   9.336   1.032   8.955
97672SOL     OW94854  13.734  13.201   6.133
97672SOL    HW194855  13.677  13.277   6.130
97672SOL    HW294856  13.716  13.153   6.053
97673SOL     OW94857   5.320   5.171   4.847
97673SOL    HW194858   5.320   5.224   4.927
97673SOL    HW294859   5.229   5.148   4.833
97674SOL     OW94860   4.674   6.175   7.333
97674SOL    HW194861   4.628   6.187   7.416
97674SOL    HW294862   4.764   6.157   7.358
97675SOL     OW94863   0.417   4.583  13.637
97675SOL    HW194864   0.495   4.594  13.583
97675SOL    HW294865   0.375   4.504  13.604
97676SOL     OW94866  13.747   0.786   5.076
97676SOL    HW194867  13.691   0.772   5.000
97676SOL    HW294868  13.814   0.847   5.046
97677SOL     OW94869   1.261   9.970  13.821
97677SOL    HW194870   1.253   9.875  13.824
97677SOL    HW294871   1.351   9.986  13.793
97678SOL     OW94872   0.551   0.332  12.160
97678SOL    HW194873   0.554   0.295  12.248
97678SOL    HW294874   0.617   0.282  12.111
97679SOL     OW94875  12.068  12.533   5.490
97679SOL    HW194876  12.024  12.502   5.410
97679SOL    HW294877  12.063  12.628   5.485
97680SOL     OW94878  13.543  11.675  13.616
97680SOL    HW194879  13.563  11.672  13.710
97680SOL    HW294880  13.624  11.706  13.575
97681SOL     OW94881  12.436  10.202   4.122
97681SOL    HW194882  12.345  10.200   4.091
97681SOL    HW294883  12.478  10.269   4.067
97682SOL     OW94884   9.297   2.930   2.658
97682SOL    HW194885   9.311   2.988   2.583
97682SOL    HW294886   9.384   2.894   2.677
97683SOL     OW94887  13.708   1.064   1.136
97683SOL    HW194888  13.636   1.002   1.137
97683SOL    HW294889  13.784   1.012   1.110
97684SOL     OW94890  11.814   9.989  10.128
97684SOL    HW194891  11.910   9.992  10.127
97684SOL    HW294892  11.789   9.988  10.036
97685SOL     OW94893  12.433   7.288   8.484
97685SOL    HW194894  12.404   7.379   8.494
97685SOL    HW294895  12.396   7.260   8.400
97686SOL     OW94896   9.027   2.796  10.789
97686SOL    HW194897   9.091   2.742  10.744
97686SOL    HW294898   9.069   2.819  10.872
97687SOL     OW94899  12.150   4.095   1.895
97687SOL    HW194900  12.230   4.147   1.887
97687SOL    HW294901  12.143   4.050   1.810
97688SOL     OW94902  13.987   6.693  12.630
97688SOL    HW194903  14.036   6.669  12.709
97688SOL    HW294904  13.897   6.668  12.650
97689SOL     OW94905  13.765   2.908  10.434
97689SOL    HW194906  13.806   2.838  10.383
97689SOL    HW294907  13.833   2.937  10.494
97690SOL     OW94908   3.618  13.110   5.936
97690SOL    HW194909   3.640  13.153   6.018
97690SOL    HW294910   3.607  13.181   5.873
97691SOL     OW94911   9.009   7.626   2.268
97691SOL    HW194912   8.990   7.553   2.208
97691SOL    HW294913   9.068   7.683   2.218
97692SOL     OW94914   9.803   6.756   8.222
97692SOL    HW194915   9.825   6.685   8.283
97692SOL    HW294916   9.784   6.831   8.278
97693SOL     OW94917   2.090   8.174   8.228
97693SOL    HW194918   2.087   8.142   8.138
97693SOL    HW294919   2.152   8.247   8.226
97694SOL     OW94920  12.787   5.276   1.691
97694SOL    HW194921  12.742   5.360   1.695
97694SOL    HW294922  12.722   5.213   1.723
97695SOL     OW94923  14.535   4.191   8.666
97695SOL    HW194924  14.520   4.144   8.584
97695SOL    HW294925  14.625   4.168   8.690
97696SOL     OW94926   4.028   9.572   4.368
97696SOL    HW194927   4.122   9.577   4.385
97696SOL    HW294928   4.023   9.556   4.273
97697SOL     OW94929  14.154   3.651   0.318
97697SOL    HW194930  14.190   3.714   0.381
97697SOL    HW294931  14.170   3.691   0.232
97698SOL     OW94932  14.175  10.744   6.890
97698SOL    HW194933  14.240  10.815   6.884
97698SOL    HW294934  14.091  10.790   6.896
97699SOL     OW94935   1.136  14.317   4.833
97699SOL    HW194936   1.043  14.333   4.850
97699SOL    HW294937   1.146  14.329   4.738
97700SOL     OW94938  12.456  13.751   1.838
97700SOL    HW194939  12.401  13.696   1.782
97700SOL    HW294940  12.429  13.730   1.927
97701SOL     OW94941   3.984   5.451   7.975
97701SOL    HW194942   4.014   5.429   8.062
97701SOL    HW294943   3.932   5.376   7.947
97702SOL     OW94944  12.259  11.773   7.397
97702SOL    HW194945  12.293  11.752   7.310
97702SOL    HW294946  12.205  11.697   7.419
97703SOL     OW94947   7.901   1.229   8.572
97703SOL    HW194948   7.865   1.313   8.600
97703SOL    HW294949   7.939   1.191   8.651
97704SOL     OW94950   9.114  13.509   8.609
97704SOL    HW194951   9.191  13.454   8.624
97704SOL    HW294952   9.128  13.547   8.523
97705SOL     OW94953   2.651   6.921   1.821
97705SOL    HW194954   2.742   6.900   1.798
97705SOL    HW294955   2.600   6.851   1.782
97706SOL     OW94956   2.483  14.350   5.279
97706SOL    HW194957   2.481  14.441   5.250
97706SOL    HW294958   2.546  14.308   5.221
97707SOL     OW94959  14.785  14.727  10.880
97707SOL    HW194960  14.708  14.671  10.874
97707SOL    HW294961  14.858  14.671  10.852
97708SOL     OW94962   2.363   0.374   9.772
97708SOL    HW194963   2.426   0.446   9.766
97708SOL    HW294964   2.353   0.343   9.682
97709SOL     OW94965   2.693  11.196  10.542
97709SOL    HW194966   2.623  11.166  10.483
97709SOL    HW294967   2.754  11.123  10.547
97710SOL     OW94968   6.471  11.459   8.770
97710SOL    HW194969   6.493  11.455   8.677
97710SOL    HW294970   6.550  11.494   8.812
97711SOL     OW94971  13.826   2.902  11.297
97711SOL    HW194972  13.770   2.972  11.263
97711SOL    HW294973  13.834   2.840  11.224
97712SOL     OW94974   1.957  10.066   8.940
97712SOL    HW194975   2.017  10.110   8.879
97712SOL    HW294976   2.000   9.982   8.959
97713SOL     OW94977  12.233  10.206   1.671
97713SOL    HW194978  12.268  10.252   1.747
97713SOL    HW294979  12.236  10.270   1.600
97714SOL     OW94980  12.997   7.403   9.794
97714SOL    HW194981  13.020   7.493   9.813
97714SOL    HW294982  13.076   7.353   9.814
97715SOL     OW94983   9.015   8.952   3.336
97715SOL    HW194984   8.961   9.009   3.390
97715SOL    HW294985   8.955   8.885   3.303
97716SOL     OW94986   2.852   8.251   3.763
97716SOL    HW194987   2.881   8.331   3.807
97716SOL    HW294988   2.902   8.181   3.804
97717SOL     OW94989   5.044  10.736   6.653
97717SOL    HW194990   4.987  10.791   6.600
97717SOL    HW294991   4.990  10.660   6.676
97718SOL     OW94992   3.857  14.786   8.353
97718SOL    HW194993   3.859  14.700   8.312
97718SOL    HW294994   3.940  14.793   8.400
97719SOL     OW94995   8.111   9.268   9.424
97719SOL    HW194996   8.042   9.214   9.464
97719SOL    HW294997   8.158   9.306   9.499
97720SOL     OW94998   9.068   6.500   2.122
97720SOL    HW194999   9.143   6.467   2.171
97720SOL    HW295000   8.994   6.447   2.153
97721SOL     OW95001  13.907   1.051   4.740
97721SOL    HW195002  13.981   1.041   4.679
97721SOL    HW295003  13.904   1.145   4.758
97722SOL     OW95004   1.153   2.042  11.356
97722SOL    HW195005   1.118   2.121  11.313
97722SOL    HW295006   1.171   2.071  11.445
97723SOL     OW95007  10.487  13.408   2.186
97723SOL    HW195008  10.485  13.474   2.255
97723SOL    HW295009  10.398  13.409   2.150
97724SOL     OW95010   5.149   5.029  13.046
97724SOL    HW195011   5.148   5.112  13.094
97724SOL    HW295012   5.158   4.963  13.114
97725SOL     OW95013   5.718   7.411   2.039
97725SOL    HW195014   5.768   7.492   2.037
97725SOL    HW295015   5.649   7.424   1.974
97726SOL     OW95016  10.258  11.281  14.083
97726SOL    HW195017  10.300  11.367  14.093
97726SOL    HW295018  10.167  11.302  14.059
97727SOL     OW95019   0.798   2.956   5.070
97727SOL    HW195020   0.849   3.018   5.019
97727SOL    HW295021   0.862   2.893   5.103
97728SOL     OW95022  13.747  14.349   5.465
97728SOL    HW195023  13.689  14.418   5.498
97728SOL    HW295024  13.717  14.269   5.508
97729SOL     OW95025   7.238   5.124  13.509
97729SOL    HW195026   7.149   5.094  13.489
97729SOL    HW295027   7.242   5.126  13.605
97730SOL     OW95028   3.097   3.909   7.867
97730SOL    HW195029   3.064   3.969   7.801
97730SOL    HW295030   3.024   3.850   7.886
97731SOL     OW95031   1.704   8.485   6.267
97731SOL    HW195032   1.641   8.540   6.221
97731SOL    HW295033   1.717   8.410   6.210
97732SOL     OW95034   0.013  10.101   1.080
97732SOL    HW195035   0.022  10.190   1.046
97732SOL    HW295036  14.796  10.091   1.099
97733SOL     OW95037  14.508   5.376  13.439
97733SOL    HW195038  14.432   5.335  13.481
97733SOL    HW295039  14.575   5.378  13.507
97734SOL     OW95040   2.958   9.285   0.215
97734SOL    HW195041   3.011   9.226   0.269
97734SOL    HW295042   2.902   9.330   0.278
97735SOL     OW95043   8.633   5.437   7.503
97735SOL    HW195044   8.538   5.431   7.494
97735SOL    HW295045   8.652   5.530   7.490
97736SOL     OW95046   1.740   0.444  13.167
97736SOL    HW195047   1.663   0.448  13.224
97736SOL    HW295048   1.776   0.533  13.169
97737SOL     OW95049   3.379   4.809   3.646
97737SOL    HW195050   3.448   4.804   3.580
97737SOL    HW295051   3.385   4.726   3.693
97738SOL     OW95052   6.467   5.520  14.401
97738SOL    HW195053   6.406   5.487  14.334
97738SOL    HW295054   6.414   5.577  14.456
97739SOL     OW95055  13.759  10.035  11.768
97739SOL    HW195056  13.833  10.046  11.707
97739SOL    HW295057  13.793  10.064  11.852
97740SOL     OW95058  12.189  10.709   6.038
97740SOL    HW195059  12.208  10.719   5.945
97740SOL    HW295060  12.178  10.798   6.071
97741SOL     OW95061  13.601   0.600   9.937
97741SOL    HW195062  13.542   0.537   9.979
97741SOL    HW295063  13.569   0.608   9.847
97742SOL     OW95064   9.624   0.142   9.857
97742SOL    HW195065   9.612   0.065   9.912
97742SOL    HW295066   9.544   0.147   9.805
97743SOL     OW95067  10.067  12.316   7.048
97743SOL    HW195068  10.025  12.379   7.106
97743SOL    HW295069  10.047  12.230   7.086
97744SOL     OW95070  11.589   2.158  10.585
97744SOL    HW195071  11.571   2.221  10.515
97744SOL    HW295072  11.558   2.075  10.550
97745SOL     OW95073   3.750  12.916   0.658
97745SOL    HW195074   3.783  12.880   0.576
97745SOL    HW295075   3.828  12.941   0.707
97746SOL     OW95076   9.096   7.547  10.812
97746SOL    HW195077   9.016   7.600  10.816
97746SOL    HW295078   9.066   7.459  10.790
97747SOL     OW95079  11.666   7.436  10.376
97747SOL    HW195080  11.625   7.469  10.297
97747SOL    HW295081  11.602   7.375  10.413
97748SOL     OW95082  14.874   9.800  10.506
97748SOL    HW195083   0.069   9.862  10.522
97748SOL    HW295084  14.839   9.782  10.594
97749SOL     OW95085   3.987  10.366   8.594
97749SOL    HW195086   3.901  10.369   8.552
97749SOL    HW295087   4.050  10.370   8.522
97750SOL     OW95088   2.916  12.405   3.879
97750SOL    HW195089   2.997  12.443   3.912
97750SOL    HW295090   2.869  12.377   3.958
97751SOL     OW95091  11.826   5.289   3.975
97751SOL    HW195092  11.842   5.298   4.069
97751SOL    HW295093  11.848   5.198   3.956
97752SOL     OW95094   2.442   2.176   0.584
97752SOL    HW195095   2.356   2.215   0.569
97752SOL    HW295096   2.460   2.126   0.504
97753SOL     OW95097   8.673  11.537   8.988
97753SOL    HW195098   8.727  11.608   8.952
97753SOL    HW295099   8.648  11.484   8.912
97754SOL     OW95100   4.531   8.293   0.963
97754SOL    HW195101   4.616   8.302   1.007
97754SOL    HW295102   4.469   8.337   1.021
97755SOL     OW95103   8.483   6.062  12.285
97755SOL    HW195104   8.445   6.043  12.371
97755SOL    HW295105   8.535   5.984  12.264
97756SOL     OW95106   2.817   3.565   3.862
97756SOL    HW195107   2.893   3.520   3.826
97756SOL    HW295108   2.752   3.496   3.876
97757SOL     OW95109  12.371  14.815   9.159
97757SOL    HW195110  12.413  14.868   9.091
97757SOL    HW295111  12.443  14.786   9.214
97758SOL     OW95112   9.681   7.510  12.380
97758SOL    HW195113   9.733   7.445  12.428
97758SOL    HW295114   9.689   7.485  12.288
97759SOL     OW95115   7.545   5.180  10.693
97759SOL    HW195116   7.553   5.256  10.749
97759SOL    HW295117   7.635   5.145  10.686
97760SOL     OW95118  10.129   6.379  14.569
97760SOL    HW195119  10.136   6.370  14.664
97760SOL    HW295120  10.140   6.290  14.535
97761SOL     OW95121   2.545  13.845   8.053
97761SOL    HW195122   2.590  13.904   8.113
97761SOL    HW295123   2.610  13.778   8.031
97762SOL     OW95124   2.135  13.915   6.011
97762SOL    HW195125   2.043  13.894   5.999
97762SOL    HW295126   2.164  13.856   6.081
97763SOL     OW95127  14.316   2.866  10.171
97763SOL    HW195128  14.228   2.849  10.205
97763SOL    HW295129  14.309   2.948  10.123
97764SOL     OW95130   2.543   6.990  14.839
97764SOL    HW195131   2.529   7.026  14.751
97764SOL    HW295132   2.480   6.918  14.846
97765SOL     OW95133  10.438   3.762  10.955
97765SOL    HW195134  10.361   3.806  10.916
97765SOL    HW295135  10.412   3.743  11.045
97766SOL     OW95136  10.480  14.378  14.449
97766SOL    HW195137  10.561  14.351  14.493
97766SOL    HW295138  10.471  14.471  14.470
97767SOL     OW95139   5.260   5.387  10.814
97767SOL    HW195140   5.167   5.408  10.809
97767SOL    HW295141   5.304   5.468  10.787
97768SOL     OW95142   9.102   4.232   0.106
97768SOL    HW195143   9.100   4.136   0.102
97768SOL    HW295144   9.040   4.254   0.176
97769SOL     OW95145  14.489  12.073   6.362
97769SOL    HW195146  14.521  12.006   6.302
97769SOL    HW295147  14.418  12.030   6.411
97770SOL     OW95148  10.013  12.844   4.423
97770SOL    HW195149   9.934  12.887   4.389
97770SOL    HW295150  10.021  12.878   4.513
97771SOL     OW95151  13.721   3.161   1.345
97771SOL    HW195152  13.664   3.124   1.413
97771SOL    HW295153  13.716   3.098   1.273
97772SOL     OW95154  13.020   0.062   7.882
97772SOL    HW195155  13.059  14.850   7.884
97772SOL    HW295156  13.049   0.102   7.964
97773SOL     OW95157   9.077  11.283  12.550
97773SOL    HW195158   9.046  11.200  12.515
97773SOL    HW295159   9.115  11.329  12.475
97774SOL     OW95160   9.371   5.382   2.657
97774SOL    HW195161   9.453   5.416   2.694
97774SOL    HW295162   9.343   5.449   2.594
97775SOL     OW95163   3.484   0.924   6.941
97775SOL    HW195164   3.521   0.935   7.029
97775SOL    HW295165   3.454   1.011   6.916
97776SOL     OW95166   4.300   6.671   4.654
97776SOL    HW195167   4.267   6.626   4.576
97776SOL    HW295168   4.323   6.758   4.623
97777SOL     OW95169   8.296  14.201  11.000
97777SOL    HW195170   8.308  14.280  10.949
97777SOL    HW295171   8.374  14.148  10.983
97778SOL     OW95172   7.398   7.791  10.329
97778SOL    HW195173   7.412   7.885  10.339
97778SOL    HW295174   7.467   7.762  10.269
97779SOL     OW95175  11.653   4.331   7.367
97779SOL    HW195176  11.623   4.421   7.375
97779SOL    HW295177  11.580   4.278   7.400
97780SOL     OW95178   0.780   3.909  14.303
97780SOL    HW195179   0.813   3.914  14.213
97780SOL    HW295180   0.687   3.885  14.292
97781SOL     OW95181   1.065  11.429  13.295
97781SOL    HW195182   1.055  11.379  13.376
97781SOL    HW295183   1.142  11.484  13.310
97782SOL     OW95184  13.130   0.630   8.210
97782SOL    HW195185  13.217   0.652   8.242
97782SOL    HW295186  13.100   0.708   8.164
97783SOL     OW95187   7.421   2.628   6.771
97783SOL    HW195188   7.470   2.664   6.844
97783SOL    HW295189   7.395   2.704   6.719
97784SOL     OW95190  14.474   0.347   2.344
97784SOL    HW195191  14.489   0.414   2.278
97784SOL    HW295192  14.559   0.305   2.356
97785SOL     OW95193   2.523   5.831   0.995
97785SOL    HW195194   2.513   5.827   0.900
97785SOL    HW295195   2.574   5.910   1.011
97786SOL     OW95196  11.251   8.783   2.315
97786SOL    HW195197  11.156   8.787   2.301
97786SOL    HW295198  11.276   8.697   2.282
97787SOL     OW95199   9.102   8.699   2.292
97787SOL    HW195200   9.028   8.742   2.249
97787SOL    HW295201   9.071   8.680   2.380
97788SOL     OW95202  11.226   8.852   5.116
97788SOL    HW195203  11.279   8.879   5.191
97788SOL    HW295204  11.136   8.858   5.148
97789SOL     OW95205   4.478   3.931  10.848
97789SOL    HW195206   4.564   3.901  10.877
97789SOL    HW295207   4.482   4.027  10.855
97790SOL     OW95208  13.350  14.766  13.882
97790SOL    HW195209  13.300  14.840  13.850
97790SOL    HW295210  13.337  14.767  13.977
97791SOL     OW95211   8.955   4.443  11.271
97791SOL    HW195212   8.960   4.347  11.266
97791SOL    HW295213   8.882   4.466  11.213
97792SOL     OW95214   6.056   2.379   0.808
97792SOL    HW195215   6.123   2.334   0.757
97792SOL    HW295216   5.974   2.333   0.787
97793SOL     OW95217   4.278   3.831   9.708
97793SOL    HW195218   4.330   3.907   9.681
97793SOL    HW295219   4.190   3.867   9.722
97794SOL     OW95220  10.394   4.739   3.188
97794SOL    HW195221  10.361   4.805   3.127
97794SOL    HW295222  10.471   4.780   3.228
97795SOL     OW95223   5.917  10.385  11.994
97795SOL    HW195224   5.920  10.479  12.015
97795SOL    HW295225   5.937  10.341  12.077
97796SOL     OW95226   4.997   4.502   3.409
97796SOL    HW195227   4.986   4.419   3.454
97796SOL    HW295228   5.092   4.517   3.408
97797SOL     OW95229   8.219  13.772   0.067
97797SOL    HW195230   8.312  13.794   0.064
97797SOL    HW295231   8.215  13.681   0.037
97798SOL     OW95232   2.278   2.649  14.200
97798SOL    HW195233   2.303   2.655  14.292
97798SOL    HW295234   2.341   2.587  14.162
97799SOL     OW95235   4.975  10.211   1.536
97799SOL    HW195236   5.005  10.262   1.612
97799SOL    HW295237   5.055  10.175   1.498
97800SOL     OW95238  11.002  12.578   5.877
97800SOL    HW195239  10.996  12.615   5.789
97800SOL    HW295240  11.083  12.527   5.875
97801SOL     OW95241   6.975   7.809  13.270
97801SOL    HW195242   6.973   7.754  13.349
97801SOL    HW295243   7.048   7.775  13.219
97802SOL     OW95244  14.470  11.515   9.448
97802SOL    HW195245  14.384  11.556   9.453
97802SOL    HW295246  14.514  11.541   9.529
97803SOL     OW95247   8.526   7.584  11.781
97803SOL    HW195248   8.554   7.618  11.866
97803SOL    HW295249   8.577   7.634  11.718
97804SOL     OW95250  10.575  14.484  14.124
97804SOL    HW195251  10.646  14.424  14.148
97804SOL    HW295252  10.539  14.513  14.208
97805SOL     OW95253   1.691   8.394   7.528
97805SOL    HW195254   1.637   8.468   7.499
97805SOL    HW295255   1.699   8.338   7.451
97806SOL     OW95256   3.106  13.283   3.010
97806SOL    HW195257   3.125  13.230   2.933
97806SOL    HW295258   3.188  13.284   3.059
97807SOL     OW95259  13.912  14.339   2.462
97807SOL    HW195260  14.003  14.315   2.445
97807SOL    HW295261  13.863  14.299   2.390
97808SOL     OW95262   6.888  10.373  14.728
97808SOL    HW195263   6.844  10.296  14.691
97808SOL    HW295264   6.837  10.447  14.694
97809SOL     OW95265  10.645   3.288  13.113
97809SOL    HW195266  10.564   3.340  13.105
97809SOL    HW295267  10.668   3.295  13.205
97810SOL     OW95268   0.040  10.986   4.468
97810SOL    HW195269   0.044  10.913   4.531
97810SOL    HW295270   0.027  11.064   4.523
97811SOL     OW95271  13.880   6.366   2.208
97811SOL    HW195272  13.945   6.362   2.279
97811SOL    HW295273  13.885   6.456   2.177
97812SOL     OW95274   3.263   2.974   1.650
97812SOL    HW195275   3.252   2.945   1.741
97812SOL    HW295276   3.178   2.955   1.609
97813SOL     OW95277  11.126   5.583   3.902
97813SOL    HW195278  11.111   5.489   3.892
97813SOL    HW295279  11.221   5.590   3.916
97814SOL     OW95280  14.759  14.313   1.648
97814SOL    HW195281  14.793  14.368   1.577
97814SOL    HW295282  14.683  14.361   1.681
97815SOL     OW95283   6.456   3.393   3.701
97815SOL    HW195284   6.485   3.444   3.777
97815SOL    HW295285   6.381   3.343   3.732
97816SOL     OW95286   0.912   7.907   1.797
97816SOL    HW195287   0.997   7.951   1.795
97816SOL    HW295288   0.932   7.816   1.819
97817SOL     OW95289  13.916  12.718  11.976
97817SOL    HW195290  13.953  12.667  12.048
97817SOL    HW295291  13.829  12.743  12.007
97818SOL     OW95292   1.522   1.482   2.222
97818SOL    HW195293   1.535   1.400   2.174
97818SOL    HW295294   1.427   1.492   2.229
97819SOL     OW95295  12.580   3.831   5.803
97819SOL    HW195296  12.503   3.879   5.770
97819SOL    HW295297  12.546   3.745   5.826
97820SOL     OW95298   8.071   3.658   2.668
97820SOL    HW195299   8.015   3.584   2.693
97820SOL    HW295300   8.043   3.729   2.726
97821SOL     OW95301  14.310   2.771   2.252
97821SOL    HW195302  14.284   2.785   2.343
97821SOL    HW295303  14.261   2.837   2.203
97822SOL     OW95304  11.258   4.391   0.661
97822SOL    HW195305  11.167   4.373   0.685
97822SOL    HW295306  11.290   4.308   0.626
97823SOL     OW95307   9.192   5.427   8.673
97823SOL    HW195308   9.240   5.348   8.698
97823SOL    HW295309   9.228   5.495   8.730
97824SOL     OW95310   5.913   4.301  12.921
97824SOL    HW195311   5.843   4.238  12.906
97824SOL    HW295312   5.868   4.383  12.938
97825SOL     OW95313   1.580   2.080  13.096
97825SOL    HW195314   1.610   2.003  13.048
97825SOL    HW295315   1.530   2.131  13.032
97826SOL     OW95316   2.671  13.893   2.277
97826SOL    HW195317   2.645  13.947   2.202
97826SOL    HW295318   2.731  13.949   2.326
97827SOL     OW95319   6.897   5.260   6.952
97827SOL    HW195320   6.960   5.223   6.890
97827SOL    HW295321   6.841   5.316   6.899
97828SOL     OW95322  10.647  12.674   4.735
97828SOL    HW195323  10.638  12.644   4.644
97828SOL    HW295324  10.693  12.757   4.729
97829SOL     OW95325   7.385   3.333  12.576
97829SOL    HW195326   7.324   3.406  12.567
97829SOL    HW295327   7.427   3.326  12.491
97830SOL     OW95328  10.131  14.424  12.549
97830SOL    HW195329  10.056  14.375  12.584
97830SOL    HW295330  10.118  14.514  12.581
97831SOL     OW95331   6.926   1.531   4.277
97831SOL    HW195332   6.887   1.564   4.358
97831SOL    HW295333   6.852   1.525   4.216
97832SOL     OW95334   9.568   6.250   3.103
97832SOL    HW195335   9.531   6.329   3.144
97832SOL    HW295336   9.602   6.198   3.175
97833SOL     OW95337   5.076   2.678   3.800
97833SOL    HW195338   5.144   2.731   3.842
97833SOL    HW295339   5.122   2.635   3.727
97834SOL     OW95340  10.554   8.152  10.619
97834SOL    HW195341  10.567   8.074  10.673
97834SOL    HW295342  10.506   8.120  10.542
97835SOL     OW95343  14.135   1.979   5.524
97835SOL    HW195344  14.070   1.969   5.594
97835SOL    HW295345  14.164   1.890   5.504
97836SOL     OW95346   7.382   2.437   3.214
97836SOL    HW195347   7.417   2.472   3.132
97836SOL    HW295348   7.322   2.368   3.187
97837SOL     OW95349   0.587   8.874   0.066
97837SOL    HW195350   0.593   8.816   0.142
97837SOL    HW295351   0.512   8.841   0.017
97838SOL     OW95352  12.361  10.100   7.148
97838SOL    HW195353  12.311  10.032   7.102
97838SOL    HW295354  12.301  10.132   7.215
97839SOL     OW95355  11.913   1.382   3.369
97839SOL    HW195356  11.979   1.317   3.348
97839SOL    HW295357  11.913   1.441   3.294
97840SOL     OW95358   4.724   2.480   5.668
97840SOL    HW195359   4.783   2.433   5.609
97840SOL    HW295360   4.752   2.572   5.661
97841SOL     OW95361   5.482  14.685   6.782
97841SOL    HW195362   5.415  14.750   6.758
97841SOL    HW295363   5.532  14.671   6.702
97842SOL     OW95364  13.638  11.796   6.295
97842SOL    HW195365  13.544  11.811   6.286
97842SOL    HW295366  13.646  11.715   6.344
97843SOL     OW95367   3.041  11.179  12.434
97843SOL    HW195368   2.964  11.133  12.401
97843SOL    HW295369   3.086  11.210  12.355
97844SOL     OW95370  14.101   9.092   9.060
97844SOL    HW195371  14.052   9.172   9.043
97844SOL    HW295372  14.193   9.118   9.052
97845SOL     OW95373  13.421   7.990  12.932
97845SOL    HW195374  13.345   7.977  12.876
97845SOL    HW295375  13.465   7.904  12.934
97846SOL     OW95376  12.470   3.313  11.575
97846SOL    HW195377  12.557   3.329  11.612
97846SOL    HW295378  12.435   3.241  11.628
97847SOL     OW95379   6.405  11.220   1.884
97847SOL    HW195380   6.447  11.184   1.962
97847SOL    HW295381   6.415  11.151   1.818
97848SOL     OW95382   8.424   9.359   2.902
97848SOL    HW195383   8.349   9.351   2.961
97848SOL    HW295384   8.423   9.450   2.873
97849SOL     OW95385  11.491  12.505   0.621
97849SOL    HW195386  11.548  12.499   0.697
97849SOL    HW295387  11.516  12.586   0.578
97850SOL     OW95388  13.279   8.607   3.533
97850SOL    HW195389  13.208   8.601   3.469
97850SOL    HW295390  13.277   8.524   3.581
97851SOL     OW95391   3.645  13.822  10.236
97851SOL    HW195392   3.577  13.793  10.297
97851SOL    HW295393   3.603  13.892  10.186
97852SOL     OW95394   4.012   7.105   3.902
97852SOL    HW195395   4.071   7.033   3.925
97852SOL    HW295396   4.022   7.168   3.974
97853SOL     OW95397   9.573  14.536   2.736
97853SOL    HW195398   9.649  14.502   2.784
97853SOL    HW295399   9.534  14.600   2.796
97854SOL     OW95400  11.343   3.419   3.805
97854SOL    HW195401  11.310   3.331   3.825
97854SOL    HW295402  11.264   3.471   3.791
97855SOL     OW95403  14.065  13.578  11.000
97855SOL    HW195404  14.032  13.636  11.068
97855SOL    HW295405  14.003  13.588  10.928
97856SOL     OW95406  13.712   2.394   4.314
97856SOL    HW195407  13.721   2.438   4.230
97856SOL    HW295408  13.757   2.310   4.301
97857SOL     OW95409   2.092  11.529  10.127
97857SOL    HW195410   2.107  11.623  10.137
97857SOL    HW295411   2.178  11.489  10.139
97858SOL     OW95412   5.820   6.501   1.082
97858SOL    HW195413   5.901   6.490   1.131
97858SOL    HW295414   5.817   6.426   1.022
97859SOL     OW95415   6.979   3.098   2.653
97859SOL    HW195416   6.965   3.018   2.703
97859SOL    HW295417   6.903   3.104   2.595
97860SOL     OW95418   0.027  10.905   2.727
97860SOL    HW195419  14.817  10.940   2.749
97860SOL    HW295420   0.035  10.826   2.780
97861SOL     OW95421  12.621   1.057   5.396
97861SOL    HW195422  12.645   1.089   5.483
97861SOL    HW295423  12.536   1.097   5.379
97862SOL     OW95424   4.905   2.998  12.545
97862SOL    HW195425   4.828   2.985  12.490
97862SOL    HW295426   4.883   3.076  12.598
97863SOL     OW95427  13.974   5.957   6.615
97863SOL    HW195428  13.893   5.975   6.568
97863SOL    HW295429  13.994   5.866   6.596
97864SOL     OW95430   4.928   7.729  13.037
97864SOL    HW195431   4.939   7.649  13.088
97864SOL    HW295432   4.974   7.796  13.087
97865SOL     OW95433  11.301  14.663   1.164
97865SOL    HW195434  11.280  14.729   1.231
97865SOL    HW295435  11.285  14.707   1.081
97866SOL     OW95436   7.603  10.684   0.709
97866SOL    HW195437   7.508  10.669   0.709
97866SOL    HW295438   7.619  10.738   0.632
97867SOL     OW95439   9.729   3.475   5.356
97867SOL    HW195440   9.801   3.528   5.324
97867SOL    HW295441   9.770   3.413   5.417
97868SOL     OW95442   0.174  14.789   0.384
97868SOL    HW195443   0.197  14.778   0.292
97868SOL    HW295444   0.253  14.827   0.424
97869SOL     OW95445  14.060   2.500  12.763
97869SOL    HW195446  14.055   2.416  12.808
97869SOL    HW295447  14.152   2.509  12.739
97870SOL     OW95448  12.193  13.210   8.141
97870SOL    HW195449  12.207  13.305   8.142
97870SOL    HW295450  12.280  13.173   8.131
97871SOL     OW95451   2.923   9.488  12.211
97871SOL    HW195452   2.991   9.554  12.200
97871SOL    HW295453   2.869   9.521  12.283
97872SOL     OW95454  13.074   4.861   3.215
97872SOL    HW195455  13.103   4.794   3.277
97872SOL    HW295456  13.063   4.814   3.132
97873SOL     OW95457   0.689  10.490   1.258
97873SOL    HW195458   0.736  10.568   1.288
97873SOL    HW295459   0.730  10.418   1.306
97874SOL     OW95460  10.102   7.886  12.882
97874SOL    HW195461  10.069   7.800  12.909
97874SOL    HW295462  10.146   7.921  12.959
97875SOL     OW95463   2.892   1.237   8.263
97875SOL    HW195464   2.835   1.271   8.331
97875SOL    HW295465   2.860   1.148   8.247
97876SOL     OW95466   0.880   2.802   6.300
97876SOL    HW195467   0.842   2.890   6.292
97876SOL    HW295468   0.970   2.817   6.330
97877SOL     OW95469   3.420  11.616  13.219
97877SOL    HW195470   3.469  11.623  13.300
97877SOL    HW295471   3.397  11.707  13.197
97878SOL     OW95472   6.728  14.706  10.677
97878SOL    HW195473   6.801  14.700  10.738
97878SOL    HW295474   6.758  14.658  10.600
97879SOL     OW95475   4.281   1.318  10.235
97879SOL    HW195476   4.374   1.322  10.256
97879SOL    HW295477   4.242   1.391  10.284
97880SOL     OW95478   9.439   9.611   5.018
97880SOL    HW195479   9.372   9.550   4.987
97880SOL    HW295480   9.476   9.569   5.096
97881SOL     OW95481   5.194   2.622   7.193
97881SOL    HW195482   5.179   2.585   7.281
97881SOL    HW295483   5.134   2.573   7.136
97882SOL     OW95484   0.732   2.393  13.775
97882SOL    HW195485   0.701   2.391  13.684
97882SOL    HW295486   0.726   2.301  13.804
97883SOL     OW95487  11.441  10.248  10.911
97883SOL    HW195488  11.429  10.197  10.991
97883SOL    HW295489  11.453  10.183  10.842
97884SOL     OW95490  13.553   5.820  11.749
97884SOL    HW195491  13.645   5.831  11.772
97884SOL    HW295492  13.522   5.908  11.729
97885SOL     OW95493   2.256   3.381  11.222
97885SOL    HW195494   2.222   3.448  11.281
97885SOL    HW295495   2.344   3.362  11.256
97886SOL     OW95496  12.390   2.629   3.658
97886SOL    HW195497  12.413   2.558   3.717
97886SOL    HW295498  12.298   2.614   3.637
97887SOL     OW95499   5.710   1.428   3.165
97887SOL    HW195500   5.672   1.365   3.225
97887SOL    HW295501   5.646   1.499   3.161
97888SOL     OW95502   1.926   4.766  10.580
97888SOL    HW195503   1.975   4.763  10.663
97888SOL    HW295504   1.913   4.859  10.564
97889SOL     OW95505   2.505   3.692   3.358
97889SOL    HW195506   2.482   3.692   3.450
97889SOL    HW295507   2.600   3.680   3.357
97890SOL     OW95508  13.777  14.123   2.267
97890SOL    HW195509  13.724  14.104   2.189
97890SOL    HW295510  13.861  14.081   2.250
97891SOL     OW95511   3.617  14.686  14.875
97891SOL    HW195512   3.568  14.654   0.075
97891SOL    HW295513   3.588  14.776  14.865
97892SOL     OW95514  11.229  14.615   4.310
97892SOL    HW195515  11.295  14.550   4.286
97892SOL    HW295516  11.269  14.700   4.288
97893SOL     OW95517  12.204   8.903   3.127
97893SOL    HW195518  12.166   8.989   3.146
97893SOL    HW295519  12.280   8.921   3.071
97894SOL     OW95520   2.312   2.872  11.871
97894SOL    HW195521   2.267   2.957  11.869
97894SOL    HW295522   2.320   2.848  11.779
97895SOL     OW95523   9.438   1.401  11.289
97895SOL    HW195524   9.498   1.471  11.264
97895SOL    HW295525   9.490   1.321  11.282
97896SOL     OW95526   7.147  14.612  13.934
97896SOL    HW195527   7.196  14.687  13.969
97896SOL    HW295528   7.082  14.592  14.001
97897SOL     OW95529  10.992   9.555   1.819
97897SOL    HW195530  11.083   9.569   1.843
97897SOL    HW295531  10.962   9.640   1.787
97898SOL     OW95532   5.280  13.115   2.510
97898SOL    HW195533   5.217  13.186   2.499
97898SOL    HW295534   5.271  13.089   2.601
97899SOL     OW95535  13.336   5.994   0.458
97899SOL    HW195536  13.265   6.020   0.517
97899SOL    HW295537  13.415   6.000   0.511
97900SOL     OW95538   3.317   6.156   7.724
97900SOL    HW195539   3.336   6.066   7.750
97900SOL    HW295540   3.403   6.198   7.718
97901SOL     OW95541  14.025   7.582   6.537
97901SOL    HW195542  13.989   7.600   6.624
97901SOL    HW295543  14.033   7.669   6.496
97902SOL     OW95544  12.227  14.024  11.986
97902SOL    HW195545  12.234  13.974  11.905
97902SOL    HW295546  12.190  13.963  12.050
97903SOL     OW95547  12.195   1.024  11.534
97903SOL    HW195548  12.125   1.079  11.569
97903SOL    HW295549  12.150   0.958  11.481
97904SOL     OW95550   7.231   4.267   4.759
97904SOL    HW195551   7.191   4.347   4.793
97904SOL    HW295552   7.160   4.203   4.760
97905SOL     OW95553   5.744   3.574   0.691
97905SOL    HW195554   5.665   3.627   0.700
97905SOL    HW295555   5.712   3.487   0.669
97906SOL     OW95556   3.819   8.900   6.035
97906SOL    HW195557   3.760   8.932   5.967
97906SOL    HW295558   3.867   8.977   6.064
97907SOL     OW95559   1.430  12.980  13.348
97907SOL    HW195560   1.433  12.974  13.443
97907SOL    HW295561   1.519  12.956  13.320
97908SOL     OW95562   3.956   2.452   6.639
97908SOL    HW195563   4.032   2.394   6.636
97908SOL    HW295564   3.992   2.535   6.672
97909SOL     OW95565   5.227   4.866  12.234
97909SOL    HW195566   5.309   4.859  12.184
97909SOL    HW295567   5.255   4.866  12.326
97910SOL     OW95568  10.913   9.502  10.513
97910SOL    HW195569  10.857   9.568  10.472
97910SOL    HW295570  10.857   9.424  10.518
97911SOL     OW95571   3.254   0.978  14.014
97911SOL    HW195572   3.348   0.978  14.033
97911SOL    HW295573   3.247   0.924  13.935
97912SOL     OW95574   3.534   6.780   0.479
97912SOL    HW195575   3.455   6.726   0.488
97912SOL    HW295576   3.513   6.860   0.528
97913SOL     OW95577   6.329   0.403   9.303
97913SOL    HW195578   6.234   0.394   9.306
97913SOL    HW295579   6.355   0.356   9.223
97914SOL     OW95580   8.817   7.517   3.804
97914SOL    HW195581   8.830   7.601   3.760
97914SOL    HW295582   8.889   7.513   3.868
97915SOL     OW95583  10.426   0.605   6.055
97915SOL    HW195584  10.378   0.549   6.116
97915SOL    HW295585  10.515   0.609   6.091
97916SOL     OW95586   1.874   7.397   8.768
97916SOL    HW195587   1.878   7.304   8.792
97916SOL    HW295588   1.806   7.400   8.700
97917SOL     OW95589   4.236  11.601  14.511
97917SOL    HW195590   4.211  11.539  14.580
97917SOL    HW295591   4.166  11.592  14.446
97918SOL     OW95592   8.075   0.525  11.653
97918SOL    HW195593   8.082   0.446  11.707
97918SOL    HW295594   8.046   0.593  11.714
97919SOL     OW95595   8.845   8.259   6.510
97919SOL    HW195596   8.787   8.183   6.501
97919SOL    HW295597   8.787   8.330   6.538
97920SOL     OW95598   9.993  12.396  10.924
97920SOL    HW195599   9.932  12.328  10.896
97920SOL    HW295600   9.990  12.461  10.854
97921SOL     OW95601   3.938   3.425  13.816
97921SOL    HW195602   3.938   3.337  13.778
97921SOL    HW295603   3.892   3.416  13.900
97922SOL     OW95604   7.013  14.431  12.820
97922SOL    HW195605   6.948  14.379  12.771
97922SOL    HW295606   7.094  14.381  12.811
97923SOL     OW95607   7.001   5.237   2.101
97923SOL    HW195608   6.969   5.171   2.041
97923SOL    HW295609   7.096   5.236   2.090
97924SOL     OW95610  13.615   5.240  10.481
97924SOL    HW195611  13.556   5.217  10.409
97924SOL    HW295612  13.565   5.218  10.560
97925SOL     OW95613   8.108   6.042  10.678
97925SOL    HW195614   8.096   6.051  10.584
97925SOL    HW295615   8.188   6.091  10.697
97926SOL     OW95616   4.018   9.091   4.598
97926SOL    HW195617   3.956   9.026   4.567
97926SOL    HW295618   3.985   9.175   4.566
97927SOL     OW95619   2.338  12.519   6.125
97927SOL    HW195620   2.374  12.471   6.050
97927SOL    HW295621   2.317  12.605   6.091
97928SOL     OW95622   5.262   3.642  12.715
97928SOL    HW195623   5.201   3.614  12.647
97928SOL    HW295624   5.311   3.562  12.736
97929SOL     OW95625  13.266   7.848   1.636
97929SOL    HW195626  13.291   7.924   1.689
97929SOL    HW295627  13.314   7.775   1.676
97930SOL     OW95628  12.970  11.646   2.680
97930SOL    HW195629  13.019  11.571   2.714
97930SOL    HW295630  12.961  11.629   2.586
97931SOL     OW95631  11.267   4.465   4.561
97931SOL    HW195632  11.299   4.548   4.597
97931SOL    HW295633  11.182   4.486   4.523
97932SOL     OW95634   4.571   2.529  12.128
97932SOL    HW195635   4.635   2.467  12.161
97932SOL    HW295636   4.611   2.566  12.050
97933SOL     OW95637   5.464  14.268  14.287
97933SOL    HW195638   5.557  14.283  14.273
97933SOL    HW295639   5.424  14.354  14.273
97934SOL     OW95640   4.732   1.864   7.220
97934SOL    HW195641   4.637   1.874   7.233
97934SOL    HW295642   4.770   1.873   7.307
97935SOL     OW95643   6.151   5.685   2.966
97935SOL    HW195644   6.076   5.743   2.953
97935SOL    HW295645   6.216   5.740   3.011
97936SOL     OW95646  14.377  12.236   3.532
97936SOL    HW195647  14.297  12.205   3.490
97936SOL    HW295648  14.391  12.323   3.494
97937SOL     OW95649  13.079  14.861   1.188
97937SOL    HW195650  13.091   0.008   1.280
97937SOL    HW295651  13.167  14.864   1.151
97938SOL     OW95652   7.172   0.599  11.438
97938SOL    HW195653   7.243   0.661  11.455
97938SOL    HW295654   7.179   0.534  11.508
97939SOL     OW95655   4.415   1.108   4.375
97939SOL    HW195656   4.403   1.202   4.365
97939SOL    HW295657   4.507   1.097   4.398
97940SOL     OW95658  14.159   4.230   1.767
97940SOL    HW195659  14.186   4.163   1.830
97940SOL    HW295660  14.073   4.259   1.798
97941SOL     OW95661   3.787  14.110   6.820
97941SOL    HW195662   3.837  14.029   6.808
97941SOL    HW295663   3.765  14.111   6.913
97942SOL     OW95664  12.971   6.401   8.671
97942SOL    HW195665  12.884   6.423   8.705
97942SOL    HW295666  12.994   6.319   8.716
97943SOL     OW95667   0.076  12.492  13.853
97943SOL    HW195668   0.130  12.532  13.785
97943SOL    HW295669  14.867  12.535  13.845
97944SOL     OW95670   6.911   2.713  12.852
97944SOL    HW195671   6.914   2.617  12.846
97944SOL    HW295672   6.943   2.744  12.768
97945SOL     OW95673  10.718   2.113   5.318
97945SOL    HW195674  10.678   2.193   5.351
97945SOL    HW295675  10.782   2.088   5.385
97946SOL     OW95676   6.041  12.574  13.289
97946SOL    HW195677   6.073  12.639  13.226
97946SOL    HW295678   6.001  12.626  13.359
97947SOL     OW95679  10.230  13.515  10.308
97947SOL    HW195680  10.142  13.481  10.328
97947SOL    HW295681  10.285  13.482  10.379
97948SOL     OW95682   3.329   4.377  10.001
97948SOL    HW195683   3.342   4.439   9.929
97948SOL    HW295684   3.243   4.339   9.985
97949SOL     OW95685  12.392  10.947   4.874
97949SOL    HW195686  12.379  10.961   4.967
97949SOL    HW295687  12.467  11.002   4.851
97950SOL     OW95688   2.426   5.731   6.272
97950SOL    HW195689   2.493   5.776   6.323
97950SOL    HW295690   2.460   5.643   6.259
97951SOL     OW95691   9.127   2.222  12.176
97951SOL    HW195692   9.050   2.276  12.160
97951SOL    HW295693   9.131   2.164  12.099
97952SOL     OW95694   6.151   1.273   8.705
97952SOL    HW195695   6.152   1.290   8.611
97952SOL    HW295696   6.077   1.213   8.718
97953SOL     OW95697  14.469  13.123  14.558
97953SOL    HW195698  14.539  13.074  14.514
97953SOL    HW295699  14.501  13.135  14.648
97954SOL     OW95700   8.712   5.328  14.489
97954SOL    HW195701   8.710   5.421  14.513
97954SOL    HW295702   8.802   5.312  14.464
97955SOL     OW95703   0.367  10.868   6.996
97955SOL    HW195704   0.454  10.900   7.020
97955SOL    HW295705   0.312  10.946   6.995
97956SOL     OW95706   2.601   4.776   9.877
97956SOL    HW195707   2.629   4.750   9.789
97956SOL    HW295708   2.615   4.871   9.879
97957SOL     OW95709   3.179   5.705   2.241
97957SOL    HW195710   3.264   5.747   2.228
97957SOL    HW295711   3.175   5.638   2.173
97958SOL     OW95712  10.459   7.691   6.064
97958SOL    HW195713  10.405   7.701   6.143
97958SOL    HW295714  10.403   7.641   6.004
97959SOL     OW95715   0.521   7.450   0.181
97959SOL    HW195716   0.563   7.413   0.103
97959SOL    HW295717   0.428   7.431   0.169
97960SOL     OW95718  14.820   2.024   3.640
97960SOL    HW195719  14.744   2.011   3.583
97960SOL    HW295720  14.860   2.105   3.608
97961SOL     OW95721   9.761  13.964   4.684
97961SOL    HW195722   9.848  13.925   4.698
97961SOL    HW295723   9.761  14.042   4.740
97962SOL     OW95724   6.705   4.423   2.682
97962SOL    HW195725   6.716   4.334   2.648
97962SOL    HW295726   6.788   4.444   2.723
97963SOL     OW95727   7.470   2.314  12.012
97963SOL    HW195728   7.452   2.401  12.047
97963SOL    HW295729   7.553   2.324  11.965
97964SOL     OW95730   2.100  10.167   8.687
97964SOL    HW195731   2.041  10.132   8.620
97964SOL    HW295732   2.069  10.257   8.701
97965SOL     OW95733   9.911   7.450   3.825
97965SOL    HW195734   9.978   7.469   3.760
97965SOL    HW295735   9.839   7.412   3.775
97966SOL     OW95736   0.155   1.521   3.674
97966SOL    HW195737   0.079   1.475   3.638
97966SOL    HW295738   0.123   1.610   3.689
97967SOL     OW95739   1.196   2.638   8.127
97967SOL    HW195740   1.253   2.574   8.084
97967SOL    HW295741   1.208   2.719   8.078
97968SOL     OW95742  12.702   9.623   2.701
97968SOL    HW195743  12.773   9.687   2.716
97968SOL    HW295744  12.702   9.570   2.781
97969SOL     OW95745  13.157  11.543  12.172
97969SOL    HW195746  13.168  11.632  12.140
97969SOL    HW295747  13.246  11.509  12.181
97970SOL     OW95748  12.394   2.126  10.518
97970SOL    HW195749  12.433   2.210  10.496
97970SOL    HW295750  12.432   2.064  10.456
97971SOL     OW95751   4.737   7.359  12.759
97971SOL    HW195752   4.789   7.322  12.688
97971SOL    HW295753   4.796   7.421  12.802
97972SOL     OW95754   9.387   4.592   0.808
97972SOL    HW195755   9.432   4.511   0.782
97972SOL    HW295756   9.320   4.563   0.870
97973SOL     OW95757   8.817   2.737   7.732
97973SOL    HW195758   8.849   2.811   7.681
97973SOL    HW295759   8.768   2.684   7.670
97974SOL     OW95760   2.787  14.445   1.016
97974SOL    HW195761   2.738  14.401   1.085
97974SOL    HW295762   2.726  14.508   0.978
97975SOL     OW95763   0.085  10.978   6.833
97975SOL    HW195764   0.025  10.931   6.892
97975SOL    HW295765   0.132  11.038   6.891
97976SOL     OW95766   8.224   1.133   9.953
97976SOL    HW195767   8.144   1.086   9.975
97976SOL    HW295768   8.218   1.146   9.858
97977SOL     OW95769   0.133   5.041  12.218
97977SOL    HW195770   0.110   5.030  12.126
97977SOL    HW295771   0.050   5.061  12.261
97978SOL     OW95772  12.954  11.820   7.535
97978SOL    HW195773  12.970  11.736   7.492
97978SOL    HW295774  12.899  11.797   7.611
97979SOL     OW95775  10.054  12.158  13.912
97979SOL    HW195776  10.057  12.066  13.938
97979SOL    HW295777  10.072  12.158  13.818
97980SOL     OW95778   7.415   3.794   4.863
97980SOL    HW195779   7.325   3.798   4.832
97980SOL    HW295780   7.464   3.757   4.789
97981SOL     OW95781   7.135   1.326  12.788
97981SOL    HW195782   7.126   1.247  12.842
97981SOL    HW295783   7.047   1.342  12.754
97982SOL     OW95784  13.090   3.181   1.878
97982SOL    HW195785  13.016   3.139   1.921
97982SOL    HW295786  13.081   3.156   1.786
97983SOL     OW95787  13.162   2.426  13.869
97983SOL    HW195788  13.202   2.391  13.948
97983SOL    HW295789  13.197   2.515  13.861
97984SOL     OW95790   7.098   0.337   4.209
97984SOL    HW195791   7.091   0.406   4.143
97984SOL    HW295792   7.021   0.349   4.265
97985SOL     OW95793   8.176   2.848   1.838
97985SOL    HW195794   8.223   2.859   1.921
97985SOL    HW295795   8.149   2.937   1.814
97986SOL     OW95796  12.365   3.848   2.143
97986SOL    HW195797  12.376   3.793   2.220
97986SOL    HW295798  12.385   3.790   2.069
97987SOL     OW95799   9.226   3.204  13.011
97987SOL    HW195800   9.168   3.176  12.941
97987SOL    HW295801   9.283   3.269  12.970
97988SOL     OW95802   1.081   5.528  12.767
97988SOL    HW195803   1.090   5.461  12.700
97988SOL    HW295804   1.006   5.500  12.820
97989SOL     OW95805   5.374  11.541   3.571
97989SOL    HW195806   5.376  11.445   3.575
97989SOL    HW295807   5.448  11.563   3.514
97990SOL     OW95808   9.218   8.452  13.453
97990SOL    HW195809   9.257   8.370  13.482
97990SOL    HW295810   9.292   8.512  13.445
97991SOL     OW95811  11.696  12.749   8.501
97991SOL    HW195812  11.764  12.717   8.561
97991SOL    HW295813  11.646  12.812   8.552
97992SOL     OW95814   1.717  14.006   4.132
97992SOL    HW195815   1.667  14.016   4.214
97992SOL    HW295816   1.667  14.056   4.068
97993SOL     OW95817   7.368  14.727   8.749
97993SOL    HW195818   7.385  14.807   8.799
97993SOL    HW295819   7.273  14.716   8.754
97994SOL     OW95820   2.387  10.513  12.578
97994SOL    HW195821   2.422  10.543  12.494
97994SOL    HW295822   2.396  10.588  12.637
97995SOL     OW95823   5.488  13.490   0.503
97995SOL    HW195824   5.580  13.511   0.519
97995SOL    HW295825   5.491  13.414   0.444
97996SOL     OW95826   5.949   2.690   4.016
97996SOL    HW195827   5.908   2.777   4.019
97996SOL    HW295828   5.926   2.656   3.930
97997SOL     OW95829  12.105   5.543   2.492
97997SOL    HW195830  12.035   5.557   2.557
97997SOL    HW295831  12.064   5.489   2.424
97998SOL     OW95832  13.767   6.058   9.516
97998SOL    HW195833  13.775   6.149   9.545
97998SOL    HW295834  13.709   6.017   9.580
97999SOL     OW95835  14.547   6.644   9.534
97999SOL    HW195836  14.495   6.723   9.522
97999SOL    HW295837  14.629   6.674   9.571
98000SOL     OW95838  10.442   8.488   6.617
98000SOL    HW195839  10.528   8.531   6.615
98000SOL    HW295840  10.447   8.422   6.547
98001SOL     OW95841  10.796   0.996   0.359
98001SOL    HW195842  10.740   1.069   0.331
98001SOL    HW295843  10.804   0.941   0.281
98002SOL     OW95844  12.378   8.054   5.419
98002SOL    HW195845  12.427   7.981   5.381
98002SOL    HW295846  12.353   8.023   5.506
98003SOL     OW95847   3.026   8.749   0.016
98003SOL    HW195848   2.958   8.724  14.830
98003SOL    HW295849   3.078   8.670   0.029
98004SOL     OW95850   9.370  13.246   4.295
98004SOL    HW195851   9.451  13.218   4.252
98004SOL    HW295852   9.390  13.331   4.332
98005SOL     OW95853  13.244   6.913   6.063
98005SOL    HW195854  13.267   6.994   6.110
98005SOL    HW295855  13.326   6.885   6.023
98006SOL     OW95856   9.144   3.581   6.217
98006SOL    HW195857   9.108   3.613   6.300
98006SOL    HW295858   9.184   3.658   6.177
98007SOL     OW95859   8.945   1.125   3.454
98007SOL    HW195860   8.996   1.123   3.535
98007SOL    HW295861   8.862   1.165   3.478
98008SOL     OW95862   3.822   8.757   7.518
98008SOL    HW195863   3.789   8.847   7.517
98008SOL    HW295864   3.790   8.718   7.437
98009SOL     OW95865  13.396   4.898  13.977
98009SOL    HW195866  13.389   4.937  13.890
98009SOL    HW295867  13.306   4.898  14.010
98010SOL     OW95868   7.905  10.237   4.326
98010SOL    HW195869   7.968  10.168   4.345
98010SOL    HW295870   7.858  10.206   4.248
98011SOL     OW95871   1.233   0.326  12.491
98011SOL    HW195872   1.159   0.266  12.475
98011SOL    HW295873   1.304   0.290  12.438
98012SOL     OW95874  13.602  14.705   8.706
98012SOL    HW195875  13.657  14.639   8.664
98012SOL    HW295876  13.515  14.693   8.668
98013SOL     OW95877  14.507   5.792  14.281
98013SOL    HW195878  14.505   5.726  14.351
98013SOL    HW295879  14.552   5.867  14.320
98014SOL     OW95880  11.793   9.343   3.867
98014SOL    HW195881  11.786   9.283   3.941
98014SOL    HW295882  11.771   9.429   3.905
98015SOL     OW95883   0.922  10.025   8.400
98015SOL    HW195884   1.003  10.075   8.396
98015SOL    HW295885   0.944   9.947   8.450
98016SOL     OW95886   2.613   2.963  11.172
98016SOL    HW195887   2.621   2.998  11.261
98016SOL    HW295888   2.569   3.033  11.123
98017SOL     OW95889   9.773   4.541  11.720
98017SOL    HW195890   9.796   4.509  11.807
98017SOL    HW295891   9.743   4.463  11.673
98018SOL     OW95892  10.862   0.254   1.920
98018SOL    HW195893  10.800   0.305   1.971
98018SOL    HW295894  10.902   0.194   1.983
98019SOL     OW95895   8.362   1.417  10.028
98019SOL    HW195896   8.412   1.394  10.107
98019SOL    HW295897   8.339   1.333   9.989
98020SOL     OW95898   4.441  12.040  13.683
98020SOL    HW195899   4.383  12.059  13.609
98020SOL    HW295900   4.447  11.944  13.684
98021SOL     OW95901   2.169  12.227   6.302
98021SOL    HW195902   2.108  12.179   6.246
98021SOL    HW295903   2.120  12.243   6.383
98022SOL     OW95904   9.990   1.962   9.792
98022SOL    HW195905  10.069   1.912   9.771
98022SOL    HW295906   9.990   2.034   9.729
98023SOL     OW95907   4.331   4.672  10.795
98023SOL    HW195908   4.364   4.753  10.834
98023SOL    HW295909   4.300   4.698  10.708
98024SOL     OW95910   7.192   2.002   3.016
98024SOL    HW195911   7.218   2.050   2.938
98024SOL    HW295912   7.255   1.930   3.023
98025SOL     OW95913   9.502   8.501   3.139
98025SOL    HW195914   9.509   8.410   3.167
98025SOL    HW295915   9.411   8.524   3.154
98026SOL     OW95916   8.625   0.462   7.138
98026SOL    HW195917   8.560   0.493   7.201
98026SOL    HW295918   8.630   0.368   7.152
98027SOL     OW95919   7.662   3.293   3.569
98027SOL    HW195920   7.645   3.387   3.580
98027SOL    HW295921   7.575   3.253   3.573
98028SOL     OW95922  12.542   1.328   9.039
98028SOL    HW195923  12.453   1.312   9.008
98028SOL    HW295924  12.533   1.401   9.101
98029SOL     OW95925   5.956   3.287   7.903
98029SOL    HW195926   6.010   3.225   7.953
98029SOL    HW295927   5.877   3.238   7.881
98030SOL     OW95928   8.059   4.453   8.056
98030SOL    HW195929   8.002   4.401   7.999
98030SOL    HW295930   8.008   4.532   8.076
98031SOL     OW95931  12.998   9.336  12.191
98031SOL    HW195932  13.009   9.289  12.108
98031SOL    HW295933  13.087   9.349  12.223
98032SOL     OW95934   6.656  12.425  11.790
98032SOL    HW195935   6.637  12.438  11.698
98032SOL    HW295936   6.737  12.373  11.791
98033SOL     OW95937   2.535   1.818   7.950
98033SOL    HW195938   2.545   1.747   7.886
98033SOL    HW295939   2.495   1.775   8.026
98034SOL     OW95940  10.600  10.164   4.195
98034SOL    HW195941  10.540  10.094   4.170
98034SOL    HW295942  10.563  10.198   4.277
98035SOL     OW95943   4.595   8.999   2.201
98035SOL    HW195944   4.638   9.044   2.273
98035SOL    HW295945   4.555   9.069   2.149
98036SOL     OW95946   2.154   5.273   7.306
98036SOL    HW195947   2.185   5.363   7.317
98036SOL    HW295948   2.199   5.224   7.375
98037SOL     OW95949   4.348  14.654   8.713
98037SOL    HW195950   4.425  14.597   8.702
98037SOL    HW295951   4.376  14.739   8.682
98038SOL     OW95952  10.423   7.652   3.293
98038SOL    HW195953  10.439   7.667   3.386
98038SOL    HW295954  10.506   7.615   3.261
98039SOL     OW95955   2.368   9.726   2.238
98039SOL    HW195956   2.387   9.819   2.226
98039SOL    HW295957   2.448   9.690   2.277
98040SOL     OW95958   7.289  14.029   8.122
98040SOL    HW195959   7.280  14.106   8.178
98040SOL    HW295960   7.199  13.999   8.107
98041SOL     OW95961  10.734  13.880   6.279
98041SOL    HW195962  10.741  13.954   6.218
98041SOL    HW295963  10.645  13.885   6.313
98042SOL     OW95964   8.730   1.701   0.239
98042SOL    HW195965   8.659   1.753   0.203
98042SOL    HW295966   8.694   1.662   0.319
98043SOL     OW95967   4.461   7.726  12.180
98043SOL    HW195968   4.495   7.815  12.168
98043SOL    HW295969   4.530   7.679  12.226
98044SOL     OW95970   0.348   3.705  14.136
98044SOL    HW195971   0.305   3.670  14.214
98044SOL    HW295972   0.401   3.778  14.168
98045SOL     OW95973   4.234   1.235   6.672
98045SOL    HW195974   4.290   1.282   6.610
98045SOL    HW295975   4.178   1.180   6.617
98046SOL     OW95976  11.924   9.351   3.486
98046SOL    HW195977  12.005   9.356   3.536
98046SOL    HW295978  11.888   9.439   3.489
98047SOL     OW95979   0.417   5.791   6.755
98047SOL    HW195980   0.420   5.761   6.846
98047SOL    HW295981   0.337   5.844   6.750
98048SOL     OW95982  12.703   2.263  10.138
98048SOL    HW195983  12.725   2.317  10.061
98048SOL    HW295984  12.715   2.322  10.212
98049SOL     OW95985   3.921   9.000   8.921
98049SOL    HW195986   3.937   8.956   8.838
98049SOL    HW295987   3.953   9.089   8.908
98050SOL     OW95988   2.415  13.214   8.991
98050SOL    HW195989   2.381  13.263   8.916
98050SOL    HW295990   2.338  13.195   9.044
98051SOL     OW95991   0.407   3.785  10.124
98051SOL    HW195992   0.366   3.703  10.097
98051SOL    HW295993   0.501   3.766  10.121
98052SOL     OW95994   8.983   5.353   4.431
98052SOL    HW195995   8.985   5.443   4.462
98052SOL    HW295996   9.065   5.315   4.463
98053SOL     OW95997   8.669   0.704   2.645
98053SOL    HW195998   8.607   0.737   2.711
98053SOL    HW295999   8.734   0.655   2.696
98054SOL     OW96000   4.818   5.037   7.493
98054SOL    HW196001   4.828   5.123   7.533
98054SOL    HW296002   4.777   5.054   7.408
98055SOL     OW96003   8.710  12.878  10.888
98055SOL    HW196004   8.617  12.886  10.866
98055SOL    HW296005   8.711  12.815  10.961
98056SOL     OW96006   9.058   7.255  10.991
98056SOL    HW196007   9.153   7.261  10.981
98056SOL    HW296008   9.035   7.333  11.043
98057SOL     OW96009   8.987   8.866   0.759
98057SOL    HW196010   9.004   8.860   0.665
98057SOL    HW296011   8.899   8.830   0.769
98058SOL     OW96012   0.980   3.135   0.902
98058SOL    HW196013   0.989   3.219   0.858
98058SOL    HW296014   1.051   3.081   0.866
98059SOL     OW96015  13.937   0.246   5.039
98059SOL    HW196016  13.919   0.229   5.132
98059SOL    HW296017  13.894   0.330   5.021
98060SOL     OW96018   7.859   8.954   1.283
98060SOL    HW196019   7.792   9.013   1.247
98060SOL    HW296020   7.858   8.879   1.224
98061SOL     OW96021   3.376  12.591   5.370
98061SOL    HW196022   3.361  12.581   5.464
98061SOL    HW296023   3.306  12.649   5.340
98062SOL     OW96024  13.151   6.242   1.813
98062SOL    HW196025  13.179   6.334   1.809
98062SOL    HW296026  13.133   6.219   1.722
98063SOL     OW96027   3.870   1.294  13.056
98063SOL    HW196028   3.884   1.324  13.146
98063SOL    HW296029   3.909   1.363  13.002
98064SOL     OW96030  13.179  10.972   9.554
98064SOL    HW196031  13.249  10.983   9.618
98064SOL    HW296032  13.127  10.900   9.588
98065SOL     OW96033   3.359   3.663  13.315
98065SOL    HW196034   3.454   3.656  13.315
98065SOL    HW296035   3.337   3.687  13.225
98066SOL     OW96036   8.605  13.171   3.178
98066SOL    HW196037   8.582  13.224   3.254
98066SOL    HW296038   8.566  13.216   3.104
98067SOL     OW96039   4.017   9.526  12.214
98067SOL    HW196040   4.039   9.437  12.243
98067SOL    HW296041   3.956   9.512  12.142
98068SOL     OW96042   6.108  13.087   2.721
98068SOL    HW196043   6.108  13.063   2.629
98068SOL    HW296044   6.017  13.077   2.748
98069SOL     OW96045   0.180   5.217   4.749
98069SOL    HW196046   0.179   5.190   4.657
98069SOL    HW296047   0.219   5.305   4.747
98070SOL     OW96048   8.223   5.937  11.693
98070SOL    HW196049   8.232   5.890  11.776
98070SOL    HW296050   8.287   5.896  11.635
98071SOL     OW96051   9.676   0.762  13.935
98071SOL    HW196052   9.766   0.759  13.968
98071SOL    HW296053   9.683   0.796  13.847
98072SOL     OW96054  13.357  10.699   8.054
98072SOL    HW196055  13.432  10.646   8.079
98072SOL    HW296056  13.310  10.645   7.989
98073SOL     OW96057  11.137  10.304   3.728
98073SOL    HW196058  11.102  10.215   3.733
98073SOL    HW296059  11.067  10.356   3.690
98074SOL     OW96060   1.214  14.679   4.359
98074SOL    HW196061   1.127  14.641   4.349
98074SOL    HW296062   1.198  14.767   4.393
98075SOL     OW96063  14.781  13.834  11.565
98075SOL    HW196064  14.741  13.808  11.482
98075SOL    HW296065  14.859  13.883  11.540
98076SOL     OW96066  10.777   8.878   2.891
98076SOL    HW196067  10.697   8.911   2.851
98076SOL    HW296068  10.815   8.821   2.825
98077SOL     OW96069   5.009   9.494   0.460
98077SOL    HW196070   4.966   9.564   0.509
98077SOL    HW296071   5.017   9.422   0.523
98078SOL     OW96072   5.536  11.206   3.298
98078SOL    HW196073   5.613  11.260   3.314
98078SOL    HW296074   5.571  11.119   3.277
98079SOL     OW96075  10.958   1.420   9.282
98079SOL    HW196076  10.983   1.442   9.192
98079SOL    HW296077  10.864   1.434   9.285
98080SOL     OW96078   8.004  12.962   2.699
98080SOL    HW196079   8.092  12.991   2.725
98080SOL    HW296080   7.976  13.024   2.632
98081SOL     OW96081   4.279  11.907   6.613
98081SOL    HW196082   4.280  11.903   6.709
98081SOL    HW296083   4.196  11.867   6.588
98082SOL     OW96084  11.730   9.909  14.337
98082SOL    HW196085  11.766   9.969  14.401
98082SOL    HW296086  11.650   9.875  14.377
98083SOL     OW96087   3.764   5.260   4.344
98083SOL    HW196088   3.733   5.189   4.400
98083SOL    HW296089   3.758   5.339   4.398
98084SOL     OW96090   4.442   7.429   7.637
98084SOL    HW196091   4.534   7.440   7.660
98084SOL    HW296092   4.434   7.469   7.551
98085SOL     OW96093   4.525  11.653  10.635
98085SOL    HW196094   4.588  11.696  10.694
98085SOL    HW296095   4.573  11.643  10.553
98086SOL     OW96096  14.182   0.007   7.737
98086SOL    HW196097  14.122   0.037   7.668
98086SOL    HW296098  14.125  14.867   7.812
98087SOL     OW96099   7.192   8.811   8.586
98087SOL    HW196100   7.258   8.784   8.522
98087SOL    HW296101   7.213   8.903   8.605
98088SOL     OW96102   2.337  12.992   1.235
98088SOL    HW196103   2.310  13.057   1.171
98088SOL    HW296104   2.318  13.031   1.320
98089SOL     OW96105   4.790  10.892   4.808
98089SOL    HW196106   4.814  10.975   4.765
98089SOL    HW296107   4.695  10.890   4.804
98090SOL     OW96108  13.013  12.390   3.678
98090SOL    HW196109  13.074  12.316   3.668
98090SOL    HW296110  13.049  12.459   3.622
98091SOL     OW96111   0.867   6.817   4.540
98091SOL    HW196112   0.802   6.747   4.539
98091SOL    HW296113   0.943   6.781   4.493
98092SOL     OW96114   3.776   9.687  13.639
98092SOL    HW196115   3.735   9.606  13.607
98092SOL    HW296116   3.868   9.678  13.616
98093SOL     OW96117  10.070   9.612  12.695
98093SOL    HW196118  10.099   9.574  12.778
98093SOL    HW296119  10.129   9.574  12.630
98094SOL     OW96120   3.800  13.287  12.152
98094SOL    HW196121   3.751  13.251  12.078
98094SOL    HW296122   3.845  13.363  12.116
98095SOL     OW96123   9.184   4.604   9.151
98095SOL    HW196124   9.137   4.521   9.148
98095SOL    HW296125   9.223   4.613   9.064
98096SOL     OW96126   3.198  12.264   5.440
98096SOL    HW196127   3.284  12.302   5.452
98096SOL    HW296128   3.209  12.172   5.464
98097SOL     OW96129  11.206  14.823  14.484
98097SOL    HW196130  11.274  14.805  14.548
98097SOL    HW296131  11.160   0.024  14.518
98098SOL     OW96132   1.667   1.097   6.137
98098SOL    HW196133   1.743   1.133   6.184
98098SOL    HW296134   1.699   1.013   6.103
98099SOL     OW96135   2.439   6.664   6.506
98099SOL    HW196136   2.362   6.720   6.513
98099SOL    HW296137   2.487   6.698   6.431
98100SOL     OW96138   5.807   5.519   9.300
98100SOL    HW196139   5.724   5.553   9.333
98100SOL    HW296140   5.853   5.595   9.266
98101SOL     OW96141   4.152   1.093  10.140
98101SOL    HW196142   4.199   1.174  10.161
98101SOL    HW296143   4.217   1.024  10.151
98102SOL     OW96144  12.257   9.154   2.645
98102SOL    HW196145  12.335   9.209   2.645
98102SOL    HW296146  12.277   9.084   2.584
98103SOL     OW96147   0.098   6.141   5.746
98103SOL    HW196148   0.181   6.184   5.725
98103SOL    HW296149   0.036   6.177   5.683
98104SOL     OW96150  11.222   9.507  11.207
98104SOL    HW196151  11.223   9.500  11.111
98104SOL    HW296152  11.314   9.502  11.232
98105SOL     OW96153   7.341   2.082   4.363
98105SOL    HW196154   7.256   2.126   4.368
98105SOL    HW296155   7.320   1.989   4.360
98106SOL     OW96156   3.602   2.530   5.234
98106SOL    HW196157   3.563   2.595   5.176
98106SOL    HW296158   3.604   2.573   5.320
98107SOL     OW96159   1.709   4.012   3.003
98107SOL    HW196160   1.772   4.082   3.022
98107SOL    HW296161   1.760   3.932   3.005
98108SOL     OW96162  10.040   4.086   6.707
98108SOL    HW196163  10.119   4.114   6.753
98108SOL    HW296164  10.066   4.081   6.615
98109SOL     OW96165  10.774   4.860   0.234
98109SOL    HW196166  10.690   4.837   0.274
98109SOL    HW296167  10.776   4.810   0.152
98110SOL     OW96168   6.822   9.652   3.999
98110SOL    HW196169   6.814   9.645   4.094
98110SOL    HW296170   6.916   9.648   3.982
98111SOL     OW96171   5.390   3.786   2.979
98111SOL    HW196172   5.466   3.730   2.999
98111SOL    HW296173   5.364   3.821   3.064
98112SOL     OW96174   3.011  13.243   1.460
98112SOL    HW196175   3.033  13.333   1.436
98112SOL    HW296176   3.082  13.191   1.424
98113SOL     OW96177   9.230   8.356   0.607
98113SOL    HW196178   9.250   8.271   0.567
98113SOL    HW296179   9.141   8.347   0.640
98114SOL     OW96180  13.594   7.666  14.862
98114SOL    HW196181  13.569   7.726   0.057
98114SOL    HW296182  13.614   7.584   0.030
98115SOL     OW96183   6.194   4.255   3.928
98115SOL    HW196184   6.222   4.219   4.012
98115SOL    HW296185   6.271   4.249   3.872
98116SOL     OW96186  14.563   2.738   2.135
98116SOL    HW196187  14.591   2.822   2.098
98116SOL    HW296188  14.472   2.751   2.159
98117SOL     OW96189  13.096   2.713   5.440
98117SOL    HW196190  13.031   2.782   5.427
98117SOL    HW296191  13.179   2.754   5.417
98118SOL     OW96192  12.190   7.532   7.311
98118SOL    HW196193  12.247   7.458   7.287
98118SOL    HW296194  12.189   7.531   7.406
98119SOL     OW96195  14.657   7.851  12.417
98119SOL    HW196196  14.737   7.811  12.453
98119SOL    HW296197  14.659   7.941  12.449
98120SOL     OW96198   9.907  10.581   1.102
98120SOL    HW196199   9.957  10.645   1.052
98120SOL    HW296200   9.846  10.633   1.154
98121SOL     OW96201   3.018   2.926   1.561
98121SOL    HW196202   3.014   2.892   1.472
98121SOL    HW296203   2.928   2.922   1.593
98122SOL     OW96204   9.838  13.049  14.835
98122SOL    HW196205   9.821  13.132  14.791
98122SOL    HW296206   9.768  12.991  14.806
98123SOL     OW96207   7.470   6.651  12.261
98123SOL    HW196208   7.416   6.691  12.192
98123SOL    HW296209   7.488   6.563  12.228
98124SOL     OW96210   1.125   5.655   2.690
98124SOL    HW196211   1.167   5.622   2.611
98124SOL    HW296212   1.162   5.742   2.703
98125SOL     OW96213  13.113   8.677   1.762
98125SOL    HW196214  13.170   8.741   1.805
98125SOL    HW296215  13.025   8.699   1.792
98126SOL     OW96216   0.914   2.263  11.716
98126SOL    HW196217   0.880   2.208  11.645
98126SOL    HW296218   0.933   2.347  11.675
98127SOL     OW96219   0.308  14.751   8.605
98127SOL    HW196220   0.361  14.783   8.678
98127SOL    HW296221   0.235  14.706   8.646
98128SOL     OW96222   3.600   2.580   0.309
98128SOL    HW196223   3.608   2.659   0.255
98128SOL    HW296224   3.658   2.517   0.267
98129SOL     OW96225  11.483   8.111  13.982
98129SOL    HW196226  11.439   8.138  14.062
98129SOL    HW296227  11.492   8.191  13.931
98130SOL     OW96228   7.941   6.887   3.877
98130SOL    HW196229   7.977   6.937   3.950
98130SOL    HW296230   8.016   6.840   3.840
98131SOL     OW96231   5.973  11.644  13.088
98131SOL    HW196232   5.941  11.725  13.129
98131SOL    HW296233   5.958  11.576  13.153
98132SOL     OW96234   5.965  13.474   1.498
98132SOL    HW196235   6.034  13.420   1.459
98132SOL    HW296236   5.945  13.431   1.581
98133SOL     OW96237   3.926  10.931  12.266
98133SOL    HW196238   3.881  10.960  12.345
98133SOL    HW296239   3.905  10.997  12.200
98134SOL     OW96240   9.720  11.185   9.079
98134SOL    HW196241   9.650  11.130   9.113
98134SOL    HW296242   9.766  11.216   9.157
98135SOL     OW96243   6.039   5.815   2.705
98135SOL    HW196244   6.002   5.813   2.793
98135SOL    HW296245   6.105   5.884   2.708
98136SOL     OW96246   5.670   6.542   8.028
98136SOL    HW196247   5.678   6.630   7.989
98136SOL    HW296248   5.703   6.483   7.960
98137SOL     OW96249  13.574  14.761  14.376
98137SOL    HW196250  13.629  14.794  14.305
98137SOL    HW296251  13.596  14.669  14.384
98138SOL     OW96252  14.701   2.591  11.454
98138SOL    HW196253  14.643   2.515  11.448
98138SOL    HW296254  14.670   2.650  11.385
98139SOL     OW96255   8.488   1.770   4.599
98139SOL    HW196256   8.418   1.787   4.535
98139SOL    HW296257   8.568   1.791   4.552
98140SOL     OW96258   3.257  12.730   6.342
98140SOL    HW196259   3.274  12.770   6.427
98140SOL    HW296260   3.275  12.800   6.279
98141SOL     OW96261  12.858   6.752   1.386
98141SOL    HW196262  12.858   6.657   1.390
98141SOL    HW296263  12.861   6.772   1.292
98142SOL     OW96264   0.304  10.590   7.228
98142SOL    HW196265   0.330  10.564   7.317
98142SOL    HW296266   0.212  10.616   7.238
98143SOL     OW96267   3.297   1.872  10.302
98143SOL    HW196268   3.252   1.857  10.219
98143SOL    HW296269   3.235   1.843  10.369
98144SOL     OW96270  14.244   3.699   4.212
98144SOL    HW196271  14.323   3.730   4.167
98144SOL    HW296272  14.274   3.628   4.267
98145SOL     OW96273   9.213   6.460   1.109
98145SOL    HW196274   9.164   6.496   1.182
98145SOL    HW296275   9.305   6.463   1.137
98146SOL     OW96276   9.807   6.368  13.840
98146SOL    HW196277   9.845   6.455  13.835
98146SOL    HW296278   9.717   6.379  13.809
98147SOL     OW96279   6.276  12.479  13.398
98147SOL    HW196280   6.181  12.477  13.383
98147SOL    HW296281   6.301  12.569  13.378
98148SOL     OW96282  11.974   0.613   0.313
98148SOL    HW196283  11.955   0.599   0.220
98148SOL    HW296284  11.888   0.613   0.355
98149SOL     OW96285   1.431   2.702   3.949
98149SOL    HW196286   1.423   2.673   4.040
98149SOL    HW296287   1.456   2.794   3.955
98150SOL     OW96288   4.746   0.984   6.507
98150SOL    HW196289   4.728   1.071   6.542
98150SOL    HW296290   4.748   0.996   6.412
98151SOL     OW96291   5.142   4.423   5.072
98151SOL    HW196292   5.132   4.331   5.045
98151SOL    HW296293   5.113   4.424   5.163
98152SOL     OW96294   9.134   4.207   9.254
98152SOL    HW196295   9.160   4.241   9.340
98152SOL    HW296296   9.069   4.269   9.223
98153SOL     OW96297   0.127  12.033   7.737
98153SOL    HW196298   0.097  11.971   7.671
98153SOL    HW296299   0.081  12.008   7.817
98154SOL     OW96300  12.543   0.687   4.544
98154SOL    HW196301  12.465   0.698   4.598
98154SOL    HW296302  12.613   0.664   4.605
98155SOL     OW96303  11.589  14.195   1.031
98155SOL    HW196304  11.646  14.129   0.991
98155SOL    HW296305  11.638  14.277   1.024
98156SOL     OW96306   4.541   0.667  13.085
98156SOL    HW196307   4.518   0.757  13.059
98156SOL    HW296308   4.582   0.630  13.007
98157SOL     OW96309   3.796   4.328  14.474
98157SOL    HW196310   3.743   4.308  14.551
98157SOL    HW296311   3.795   4.247  14.422
98158SOL     OW96312   7.527  14.599   8.206
98158SOL    HW196313   7.503  14.660   8.276
98158SOL    HW296314   7.610  14.633   8.173
98159SOL     OW96315   0.773  11.012  12.262
98159SOL    HW196316   0.863  11.021  12.232
98159SOL    HW296317   0.760  11.088  12.320
98160SOL     OW96318   2.803  13.161   2.555
98160SOL    HW196319   2.716  13.194   2.578
98160SOL    HW296320   2.826  13.101   2.626
98161SOL     OW96321   8.344   0.611   2.674
98161SOL    HW196322   8.371   0.563   2.596
98161SOL    HW296323   8.326   0.543   2.739
98162SOL     OW96324   1.619  12.907   7.611
98162SOL    HW196325   1.638  12.820   7.646
98162SOL    HW296326   1.644  12.967   7.681
98163SOL     OW96327  13.557   5.211   0.134
98163SOL    HW196328  13.467   5.227   0.161
98163SOL    HW296329  13.550   5.145   0.065
98164SOL     OW96330   8.131   0.877   5.260
98164SOL    HW196331   8.059   0.826   5.225
98164SOL    HW296332   8.205   0.856   5.203
98165SOL     OW96333  10.340   5.839  14.535
98165SOL    HW196334  10.405   5.844  14.605
98165SOL    HW296335  10.312   5.747  14.535
98166SOL     OW96336   5.319  12.566   6.434
98166SOL    HW196337   5.385  12.523   6.489
98166SOL    HW296338   5.235  12.539   6.471
98167SOL     OW96339  12.540   3.590   9.775
98167SOL    HW196340  12.498   3.663   9.729
98167SOL    HW296341  12.631   3.593   9.747
98168SOL     OW96342  12.231  13.746  12.900
98168SOL    HW196343  12.143  13.775  12.875
98168SOL    HW296344  12.236  13.656  12.868
98169SOL     OW96345  11.078  14.567  14.695
98169SOL    HW196346  10.992  14.554  14.654
98169SOL    HW296347  11.132  14.605  14.626
98170SOL     OW96348  10.662   8.362  11.509
98170SOL    HW196349  10.677   8.393  11.420
98170SOL    HW296350  10.576   8.320  11.505
98171SOL     OW96351   0.185   7.689   0.939
98171SOL    HW196352   0.098   7.650   0.949
98171SOL    HW296353   0.200   7.737   1.021
98172SOL     OW96354  13.089  10.775  13.137
98172SOL    HW196355  13.169  10.724  13.126
98172SOL    HW296356  13.103  10.824  13.218
98173SOL     OW96357  12.428   7.974   6.174
98173SOL    HW196358  12.512   7.947   6.210
98173SOL    HW296359  12.440   7.974   6.080
98174SOL     OW96360   3.147   7.786   2.969
98174SOL    HW196361   3.174   7.843   2.897
98174SOL    HW296362   3.193   7.703   2.953
98175SOL     OW96363   3.507   9.321   7.903
98175SOL    HW196364   3.438   9.256   7.917
98175SOL    HW296365   3.581   9.289   7.956
98176SOL     OW96366   3.515   7.739   0.159
98176SOL    HW196367   3.480   7.656   0.190
98176SOL    HW296368   3.459   7.763   0.085
98177SOL     OW96369   5.109  13.438   6.328
98177SOL    HW196370   5.074  13.441   6.417
98177SOL    HW296371   5.032  13.446   6.271
98178SOL     OW96372  10.149   6.361   0.319
98178SOL    HW196373  10.216   6.415   0.276
98178SOL    HW296374  10.158   6.381   0.412
98179SOL     OW96375   0.350  13.046   9.219
98179SOL    HW196376   0.411  13.114   9.248
98179SOL    HW296377   0.306  13.084   9.143
98180SOL     OW96378   8.026   3.606   9.089
98180SOL    HW196379   7.959   3.564   9.034
98180SOL    HW296380   8.000   3.698   9.092
98181SOL     OW96381   5.004   9.473   5.709
98181SOL    HW196382   5.050   9.482   5.626
98181SOL    HW296383   5.055   9.527   5.770
98182SOL     OW96384   6.415  14.139  14.320
98182SOL    HW196385   6.353  14.091  14.374
98182SOL    HW296386   6.464  14.193  14.383
98183SOL     OW96387   9.843   8.098   5.472
98183SOL    HW196388   9.824   8.123   5.562
98183SOL    HW296389   9.935   8.071   5.474
98184SOL     OW96390  14.495   2.311   5.866
98184SOL    HW196391  14.406   2.311   5.901
98184SOL    HW296392  14.529   2.224   5.886
98185SOL     OW96393   6.095   2.015   4.440
98185SOL    HW196394   6.172   2.071   4.444
98185SOL    HW296395   6.036   2.050   4.506
98186SOL     OW96396   8.449  10.894   4.368
98186SOL    HW196397   8.453  10.980   4.326
98186SOL    HW296398   8.488  10.835   4.304
98187SOL     OW96399   6.123   6.996  12.943
98187SOL    HW196400   6.078   7.078  12.923
98187SOL    HW296401   6.093   6.972  13.030
98188SOL     OW96402   6.396  10.611   3.931
98188SOL    HW196403   6.409  10.517   3.944
98188SOL    HW296404   6.423  10.626   3.841
98189SOL     OW96405   8.915  10.637  12.364
98189SOL    HW196406   8.912  10.697  12.290
98189SOL    HW296407   9.006  10.606  12.365
98190SOL     OW96408  11.652  12.120   3.606
98190SOL    HW196409  11.687  12.041   3.647
98190SOL    HW296410  11.680  12.192   3.663
98191SOL     OW96411   2.371   5.901   7.853
98191SOL    HW196412   2.402   5.930   7.938
98191SOL    HW296413   2.330   5.816   7.869
98192SOL     OW96414   4.124   4.108  13.155
98192SOL    HW196415   4.183   4.184  13.152
98192SOL    HW296416   4.171   4.043  13.206
98193SOL     OW96417   4.812   5.413  12.632
98193SOL    HW196418   4.879   5.431  12.566
98193SOL    HW296419   4.730   5.412  12.584
98194SOL     OW96420  13.265  10.972   1.718
98194SOL    HW196421  13.347  10.945   1.677
98194SOL    HW296422  13.274  10.945   1.809
98195SOL     OW96423   8.117   7.784   7.168
98195SOL    HW196424   8.075   7.715   7.220
98195SOL    HW296425   8.154   7.844   7.234
98196SOL     OW96426  12.001   0.979   7.672
98196SOL    HW196427  11.982   1.024   7.590
98196SOL    HW296428  11.928   1.000   7.730
98197SOL     OW96429  13.267   3.092  10.397
98197SOL    HW196430  13.214   3.081  10.476
98197SOL    HW296431  13.214   3.055  10.327
98198SOL     OW96432   0.505  13.237   9.374
98198SOL    HW196433   0.579  13.295   9.392
98198SOL    HW296434   0.431  13.277   9.419
98199SOL     OW96435   1.510   7.580   6.437
98199SOL    HW196436   1.498   7.564   6.531
98199SOL    HW296437   1.509   7.493   6.398
98200SOL     OW96438  14.013   3.593   8.378
98200SOL    HW196439  14.083   3.527   8.383
98200SOL    HW296440  13.978   3.583   8.290
98201SOL     OW96441   1.566   4.258   3.365
98201SOL    HW196442   1.560   4.271   3.270
98201SOL    HW296443   1.503   4.321   3.401
98202SOL     OW96444   0.344  14.840   3.369
98202SOL    HW196445   0.266  14.793   3.398
98202SOL    HW296446   0.314   0.052   3.350
98203SOL     OW96447  14.598  12.740   5.473
98203SOL    HW196448  14.545  12.710   5.547
98203SOL    HW296449  14.541  12.729   5.397
98204SOL     OW96450   3.866   5.791   3.976
98204SOL    HW196451   3.953   5.822   4.000
98204SOL    HW296452   3.814   5.798   4.056
98205SOL     OW96453   6.365   0.544   4.279
98205SOL    HW196454   6.447   0.496   4.270
98205SOL    HW296455   6.388   0.623   4.327
98206SOL     OW96456   3.277   5.186   9.812
98206SOL    HW196457   3.228   5.104   9.802
98206SOL    HW296458   3.218   5.253   9.778
98207SOL     OW96459   1.698   5.446  14.453
98207SOL    HW196460   1.681   5.515  14.517
98207SOL    HW296461   1.663   5.366  14.492
98208SOL     OW96462   9.242  14.733   2.244
98208SOL    HW196463   9.161  14.719   2.194
98208SOL    HW296464   9.212  14.767   2.329
98209SOL     OW96465   4.417   4.661   6.839
98209SOL    HW196466   4.416   4.597   6.768
98209SOL    HW296467   4.326   4.686   6.850
98210SOL     OW96468   4.850   9.997   8.050
98210SOL    HW196469   4.778  10.035   8.100
98210SOL    HW296470   4.814   9.985   7.962
98211SOL     OW96471   9.999   9.621   7.003
98211SOL    HW196472   9.937   9.548   6.998
98211SOL    HW296473  10.039   9.613   7.089
98212SOL     OW96474  12.908  12.621  10.527
98212SOL    HW196475  12.946  12.627  10.439
98212SOL    HW296476  12.907  12.711  10.559
98213SOL     OW96477   7.956   0.168   4.567
98213SOL    HW196478   7.873   0.205   4.597
98213SOL    HW296479   7.936   0.131   4.481
98214SOL     OW96480   4.873   8.307   6.391
98214SOL    HW196481   4.813   8.232   6.384
98214SOL    HW296482   4.950   8.271   6.435
98215SOL     OW96483   8.132  11.456   2.213
98215SOL    HW196484   8.192  11.422   2.278
98215SOL    HW296485   8.094  11.535   2.253
98216SOL     OW96486  12.535   1.235  14.043
98216SOL    HW196487  12.519   1.238  14.137
98216SOL    HW296488  12.538   1.327  14.017
98217SOL     OW96489   4.529   1.230   4.978
98217SOL    HW196490   4.577   1.185   5.048
98217SOL    HW296491   4.513   1.162   4.913
98218SOL     OW96492   5.156   8.774   3.781
98218SOL    HW196493   5.095   8.706   3.752
98218SOL    HW296494   5.175   8.825   3.702
98219SOL     OW96495  12.180  14.655   5.726
98219SOL    HW196496  12.105  14.694   5.681
98219SOL    HW296497  12.249  14.652   5.660
98220SOL     OW96498   0.306   5.525  11.554
98220SOL    HW196499   0.253   5.513  11.633
98220SOL    HW296500   0.242   5.532  11.483
98221SOL     OW96501  13.563  10.714  13.830
98221SOL    HW196502  13.497  10.653  13.863
98221SOL    HW296503  13.618  10.660  13.773
98222SOL     OW96504   4.565   7.056   6.661
98222SOL    HW196505   4.521   7.135   6.690
98222SOL    HW296506   4.655   7.065   6.693
98223SOL     OW96507   5.503   8.641   3.217
98223SOL    HW196508   5.482   8.616   3.127
98223SOL    HW296509   5.595   8.666   3.214
98224SOL     OW96510   0.500   9.509   9.214
98224SOL    HW196511   0.436   9.461   9.162
98224SOL    HW296512   0.452   9.536   9.293
98225SOL     OW96513  14.311  11.007   5.168
98225SOL    HW196514  14.252  10.931   5.167
98225SOL    HW296515  14.381  10.982   5.228
98226SOL     OW96516   9.560   6.431  10.937
98226SOL    HW196517   9.598   6.351  10.900
98226SOL    HW296518   9.530   6.480  10.861
98227SOL     OW96519   8.310   0.236   3.417
98227SOL    HW196520   8.273   0.318   3.383
98227SOL    HW296521   8.351   0.195   3.341
98228SOL     OW96522   6.178  12.181   4.381
98228SOL    HW196523   6.219  12.165   4.296
98228SOL    HW296524   6.244  12.152   4.445
98229SOL     OW96525   7.269   0.249   4.845
98229SOL    HW196526   7.219   0.171   4.821
98229SOL    HW296527   7.338   0.255   4.779
98230SOL     OW96528   2.254  12.282  10.328
98230SOL    HW196529   2.266  12.221  10.401
98230SOL    HW296530   2.209  12.231  10.261
98231SOL     OW96531   7.910   0.248   4.935
98231SOL    HW196532   7.901   0.265   4.841
98231SOL    HW296533   7.978   0.309   4.964
98232SOL     OW96534  13.564   3.270   8.013
98232SOL    HW196535  13.477   3.308   7.998
98232SOL    HW296536  13.625   3.335   7.978
98233SOL     OW96537   0.646   8.336  12.073
98233SOL    HW196538   0.603   8.399  12.016
98233SOL    HW296539   0.590   8.331  12.151
98234SOL     OW96540  12.676   9.751  10.334
98234SOL    HW196541  12.768   9.726  10.335
98234SOL    HW296542  12.674   9.836  10.290
98235SOL     OW96543  12.908   1.716  11.698
98235SOL    HW196544  12.961   1.648  11.655
98235SOL    HW296545  12.960   1.796  11.690
98236SOL     OW96546   0.820   7.328  11.232
98236SOL    HW196547   0.770   7.399  11.193
98236SOL    HW296548   0.881   7.301  11.163
98237SOL     OW96549  12.146   0.485   7.785
98237SOL    HW196550  12.059   0.511   7.754
98237SOL    HW296551  12.190   0.568   7.805
98238SOL     OW96552   4.534   7.601  11.375
98238SOL    HW196553   4.457   7.636  11.420
98238SOL    HW296554   4.590   7.677  11.359
98239SOL     OW96555   8.527   7.148  14.095
98239SOL    HW196556   8.536   7.242  14.080
98239SOL    HW296557   8.501   7.113  14.010
98240SOL     OW96558  10.515   7.240   9.071
98240SOL    HW196559  10.489   7.281   8.989
98240SOL    HW296560  10.471   7.155   9.072
98241SOL     OW96561   3.036   7.158   6.954
98241SOL    HW196562   3.002   7.191   7.038
98241SOL    HW296563   3.130   7.176   6.957
98242SOL     OW96564  12.477  12.453  12.902
98242SOL    HW196565  12.563  12.493  12.915
98242SOL    HW296566  12.450  12.482  12.815
98243SOL     OW96567   7.652   9.637   3.007
98243SOL    HW196568   7.623   9.548   2.989
98243SOL    HW296569   7.593   9.669   3.075
98244SOL     OW96570   7.272  13.347   9.956
98244SOL    HW196571   7.323  13.357   9.876
98244SOL    HW296572   7.183  13.371   9.931
98245SOL     OW96573  12.425   2.592  12.877
98245SOL    HW196574  12.441   2.684  12.854
98245SOL    HW296575  12.500   2.567  12.930
98246SOL     OW96576   8.946   3.838   6.259
98246SOL    HW196577   8.872   3.810   6.205
98246SOL    HW296578   8.938   3.787   6.340
98247SOL     OW96579  12.185  12.497   7.069
98247SOL    HW196580  12.103  12.468   7.109
98247SOL    HW296581  12.162  12.576   7.021
98248SOL     OW96582  10.945  11.127   1.220
98248SOL    HW196583  10.956  11.059   1.287
98248SOL    HW296584  10.854  11.155   1.229
98249SOL     OW96585   1.301   1.784  11.769
98249SOL    HW196586   1.216   1.754  11.737
98249SOL    HW296587   1.280   1.849  11.836
98250SOL     OW96588   6.186   9.817   2.782
98250SOL    HW196589   6.218   9.727   2.783
98250SOL    HW296590   6.090   9.809   2.781
98251SOL     OW96591   5.579  13.448   6.431
98251SOL    HW196592   5.629  13.504   6.371
98251SOL    HW296593   5.529  13.509   6.485
98252SOL     OW96594  11.325  10.083   9.248
98252SOL    HW196595  11.397  10.062   9.188
98252SOL    HW296596  11.365  10.140   9.314
98253SOL     OW96597   2.655   3.977  11.579
98253SOL    HW196598   2.659   3.890  11.539
98253SOL    HW296599   2.746   3.995  11.604
98254SOL     OW96600   7.253   5.785  10.730
98254SOL    HW196601   7.324   5.820  10.784
98254SOL    HW296602   7.280   5.804  10.640
98255SOL     OW96603   8.978   9.072   0.288
98255SOL    HW196604   9.041   9.143   0.276
98255SOL    HW296605   8.913   9.085   0.219
98256SOL     OW96606   7.956  12.856  10.982
98256SOL    HW196607   7.946  12.784  10.920
98256SOL    HW296608   7.873  12.859  11.029
98257SOL     OW96609  13.924   4.697   4.293
98257SOL    HW196610  14.005   4.746   4.282
98257SOL    HW296611  13.861   4.762   4.323
98258SOL     OW96612   7.878   9.558  13.510
98258SOL    HW196613   7.824   9.633  13.536
98258SOL    HW296614   7.914   9.525  13.592
98259SOL     OW96615   9.489  11.333   3.354
98259SOL    HW196616   9.444  11.329   3.438
98259SOL    HW296617   9.455  11.411   3.311
98260SOL     OW96618   2.124   2.297   6.744
98260SOL    HW196619   2.182   2.364   6.781
98260SOL    HW296620   2.088   2.338   6.666
98261SOL     OW96621  10.832  10.457  13.814
98261SOL    HW196622  10.855  10.451  13.907
98261SOL    HW296623  10.744  10.493  13.814
98262SOL     OW96624   3.696  11.184  12.282
98262SOL    HW196625   3.721  11.132  12.359
98262SOL    HW296626   3.613  11.225  12.307
98263SOL     OW96627   0.275  11.781   9.422
98263SOL    HW196628   0.183  11.797   9.403
98263SOL    HW296629   0.298  11.848   9.487
98264SOL     OW96630   5.861   0.361  13.701
98264SOL    HW196631   5.930   0.403  13.752
98264SOL    HW296632   5.780   0.390  13.742
98265SOL     OW96633   2.531  14.794   5.614
98265SOL    HW196634   2.567  14.777   5.700
98265SOL    HW296635   2.588  14.747   5.554
98266SOL     OW96636  12.875   2.721   6.858
98266SOL    HW196637  12.897   2.629   6.876
98266SOL    HW296638  12.813   2.717   6.785
98267SOL     OW96639  14.494   8.565  10.380
98267SOL    HW196640  14.410   8.610  10.388
98267SOL    HW296641  14.485   8.488  10.436
98268SOL     OW96642  11.520   7.783   3.332
98268SOL    HW196643  11.560   7.847   3.273
98268SOL    HW296644  11.536   7.817   3.420
98269SOL     OW96645  13.081  14.628   3.311
98269SOL    HW196646  13.063  14.668   3.396
98269SOL    HW296647  13.053  14.537   3.321
98270SOL     OW96648   3.508  12.328  12.402
98270SOL    HW196649   3.537  12.419  12.403
98270SOL    HW296650   3.472  12.313  12.489
98271SOL     OW96651   6.782  13.474  12.911
98271SOL    HW196652   6.812  13.504  12.996
98271SOL    HW296653   6.698  13.430  12.929
98272SOL     OW96654   0.397  13.338  11.296
98272SOL    HW196655   0.400  13.423  11.253
98272SOL    HW296656   0.401  13.275  11.224
98273SOL     OW96657   3.986  14.390   5.996
98273SOL    HW196658   3.905  14.347   5.967
98273SOL    HW296659   4.016  14.439   5.919
98274SOL     OW96660  12.116  11.571   0.706
98274SOL    HW196661  12.146  11.614   0.626
98274SOL    HW296662  12.128  11.636   0.774
98275SOL     OW96663   5.292  13.970   8.984
98275SOL    HW196664   5.279  13.886   9.029
98275SOL    HW296665   5.232  13.967   8.910
98276SOL     OW96666  11.080   9.014  14.706
98276SOL    HW196667  11.124   9.099  14.705
98276SOL    HW296668  10.993   9.032  14.669
98277SOL     OW96669  13.619   4.168  10.621
98277SOL    HW196670  13.674   4.089  10.621
98277SOL    HW296671  13.565   4.160  10.543
98278SOL     OW96672   0.774   6.519   9.997
98278SOL    HW196673   0.773   6.475   9.912
98278SOL    HW296674   0.798   6.450  10.059
98279SOL     OW96675   1.471   9.913   1.635
98279SOL    HW196676   1.453   9.915   1.541
98279SOL    HW296677   1.507   9.826   1.651
98280SOL     OW96678   4.254   0.812  12.324
98280SOL    HW196679   4.231   0.878  12.259
98280SOL    HW296680   4.345   0.791  12.306
98281SOL     OW96681   5.721   5.696   2.440
98281SOL    HW196682   5.746   5.787   2.429
98281SOL    HW296683   5.787   5.660   2.500
98282SOL     OW96684   1.787  13.448  11.808
98282SOL    HW196685   1.725  13.396  11.860
98282SOL    HW296686   1.863  13.459  11.865
98283SOL     OW96687  13.894  11.637   0.318
98283SOL    HW196688  13.949  11.561   0.337
98283SOL    HW296689  13.860  11.620   0.230
98284SOL     OW96690  10.223  11.647  11.019
98284SOL    HW196691  10.307  11.632  10.975
98284SOL    HW296692  10.170  11.694  10.955
98285SOL     OW96693   8.435  10.739   9.028
98285SOL    HW196694   8.455  10.658   9.075
98285SOL    HW296695   8.410  10.801   9.097
98286SOL     OW96696   7.925   3.574   6.525
98286SOL    HW196697   7.848   3.628   6.508
98286SOL    HW296698   7.895   3.484   6.512
98287SOL     OW96699   5.582  13.736   0.170
98287SOL    HW196700   5.562  13.707   0.081
98287SOL    HW296701   5.523  13.685   0.226
98288SOL     OW96702   6.935   0.980   8.131
98288SOL    HW196703   6.985   0.899   8.138
98288SOL    HW296704   6.909   1.000   8.221
98289SOL     OW96705   3.920   7.947   8.246
98289SOL    HW196706   3.893   8.003   8.319
98289SOL    HW296707   4.015   7.946   8.250
98290SOL     OW96708   0.280   0.820   9.789
98290SOL    HW196709   0.311   0.869   9.713
98290SOL    HW296710   0.361   0.787   9.830
98291SOL     OW96711  10.190   4.474   7.532
98291SOL    HW196712  10.186   4.448   7.624
98291SOL    HW296713  10.112   4.528   7.519
98292SOL     OW96714  13.958  12.148   2.742
98292SOL    HW196715  13.962  12.097   2.661
98292SOL    HW296716  13.933  12.084   2.809
98293SOL     OW96717   7.764   2.413   6.956
98293SOL    HW196718   7.701   2.375   7.017
98293SOL    HW296719   7.828   2.343   6.942
98294SOL     OW96720   4.793   8.908  13.043
98294SOL    HW196721   4.839   8.843  13.095
98294SOL    HW296722   4.707   8.916  13.084
98295SOL     OW96723  11.487  11.840  14.286
98295SOL    HW196724  11.555  11.832  14.219
98295SOL    HW296725  11.406  11.813  14.241
98296SOL     OW96726  14.487   9.432  14.290
98296SOL    HW196727  14.540   9.466  14.218
98296SOL    HW296728  14.411   9.490  14.294
98297SOL     OW96729   1.432   3.631   5.766
98297SOL    HW196730   1.394   3.673   5.689
98297SOL    HW296731   1.526   3.624   5.745
98298SOL     OW96732  14.374  10.268   5.843
98298SOL    HW196733  14.392  10.208   5.916
98298SOL    HW296734  14.451  10.260   5.786
98299SOL     OW96735   2.556   2.585  11.291
98299SOL    HW196736   2.631   2.609  11.345
98299SOL    HW296737   2.581   2.613  11.203
98300SOL     OW96738   4.655  11.079   0.864
98300SOL    HW196739   4.622  11.003   0.816
98300SOL    HW296740   4.672  11.046   0.952
98301SOL     OW96741   7.850   2.748   7.353
98301SOL    HW196742   7.853   2.691   7.277
98301SOL    HW296743   7.906   2.706   7.418
98302SOL     OW96744   6.145  14.537  11.885
98302SOL    HW196745   6.119  14.619  11.928
98302SOL    HW296746   6.190  14.564  11.806
98303SOL     OW96747   4.382   8.197   9.018
98303SOL    HW196748   4.433   8.116   9.017
98303SOL    HW296749   4.392   8.233   8.930
98304SOL     OW96750   2.065  12.925  10.516
98304SOL    HW196751   2.129  12.961  10.455
98304SOL    HW296752   2.037  12.843  10.476
98305SOL     OW96753   1.854   4.072  12.191
98305SOL    HW196754   1.772   4.104  12.154
98305SOL    HW296755   1.882   4.140  12.252
98306SOL     OW96756   1.281   2.963   7.049
98306SOL    HW196757   1.191   2.932   7.040
98306SOL    HW296758   1.280   3.016   7.128
98307SOL     OW96759  10.352   3.041   2.494
98307SOL    HW196760  10.341   3.133   2.514
98307SOL    HW296761  10.311   2.995   2.567
98308SOL     OW96762  12.041   3.728   0.626
98308SOL    HW196763  12.058   3.678   0.706
98308SOL    HW296764  12.072   3.670   0.555
98309SOL     OW96765   2.704   6.302   1.801
98309SOL    HW196766   2.631   6.245   1.823
98309SOL    HW296767   2.694   6.319   1.707
98310SOL     OW96768   5.796   9.850  11.393
98310SOL    HW196769   5.734   9.778  11.408
98310SOL    HW296770   5.876   9.807  11.363
98311SOL     OW96771   2.256  14.508   9.947
98311SOL    HW196772   2.162  14.509   9.965
98311SOL    HW296773   2.275  14.597   9.918
98312SOL     OW96774   9.423  11.600  10.626
98312SOL    HW196775   9.452  11.584  10.537
98312SOL    HW296776   9.420  11.513  10.667
98313SOL     OW96777   6.966   9.474   2.685
98313SOL    HW196778   6.978   9.524   2.766
98313SOL    HW296779   6.980   9.538   2.615
98314SOL     OW96780   4.147   8.133   4.807
98314SOL    HW196781   4.093   8.170   4.738
98314SOL    HW296782   4.175   8.209   4.859
98315SOL     OW96783   2.155   9.371   6.710
98315SOL    HW196784   2.192   9.401   6.793
98315SOL    HW296785   2.136   9.451   6.662
98316SOL     OW96786   0.196   5.292  11.339
98316SOL    HW196787   0.286   5.293  11.309
98316SOL    HW296788   0.159   5.212  11.303
98317SOL     OW96789   4.410  12.123   3.735
98317SOL    HW196790   4.442  12.208   3.704
98317SOL    HW296791   4.383  12.138   3.825
98318SOL     OW96792  10.101  14.716   9.957
98318SOL    HW196793  10.122  14.623   9.950
98318SOL    HW296794  10.005  14.719   9.957
98319SOL     OW96795   3.218  11.015   7.941
98319SOL    HW196796   3.249  10.926   7.956
98319SOL    HW296797   3.175  11.012   7.856
98320SOL     OW96798   3.321  10.430   2.175
98320SOL    HW196799   3.367  10.501   2.130
98320SOL    HW296800   3.390  10.367   2.197
98321SOL     OW96801   2.853  12.946   2.720
98321SOL    HW196802   2.823  12.948   2.811
98321SOL    HW296803   2.824  12.862   2.686
98322SOL     OW96804   7.449   8.922  10.727
98322SOL    HW196805   7.434   9.001  10.779
98322SOL    HW296806   7.396   8.854  10.770
98323SOL     OW96807  10.832   4.154   5.639
98323SOL    HW196808  10.875   4.213   5.701
98323SOL    HW296809  10.838   4.068   5.680
98324SOL     OW96810   6.918  10.727   4.483
98324SOL    HW196811   6.896  10.718   4.390
98324SOL    HW296812   6.973  10.652   4.502
98325SOL     OW96813   4.223   2.846  12.545
98325SOL    HW196814   4.292   2.782  12.562
98325SOL    HW296815   4.143   2.805  12.578
98326SOL     OW96816  14.150   7.370   6.456
98326SOL    HW196817  14.202   7.326   6.524
98326SOL    HW296818  14.117   7.449   6.499
98327SOL     OW96819   2.446   2.709   4.514
98327SOL    HW196820   2.402   2.655   4.579
98327SOL    HW296821   2.491   2.776   4.565
98328SOL     OW96822   3.341   3.640   5.754
98328SOL    HW196823   3.301   3.715   5.798
98328SOL    HW296824   3.266   3.586   5.727
98329SOL     OW96825   7.193  14.867   2.295
98329SOL    HW196826   7.112  14.863   2.245
98329SOL    HW296827   7.166  14.869   2.386
98330SOL     OW96828   1.959  11.597  14.001
98330SOL    HW196829   1.897  11.665  14.027
98330SOL    HW296830   1.946  11.587  13.907
98331SOL     OW96831   7.540   7.967  14.812
98331SOL    HW196832   7.611   8.013  14.767
98331SOL    HW296833   7.569   7.961   0.026
98332SOL     OW96834  14.581   4.517  10.996
98332SOL    HW196835  14.578   4.584  11.063
98332SOL    HW296836  14.501   4.530  10.945
98333SOL     OW96837   3.871   2.889   9.226
98333SOL    HW196838   3.939   2.836   9.267
98333SOL    HW296839   3.789   2.849   9.254
98334SOL     OW96840   3.995   6.097   4.016
98334SOL    HW196841   3.901   6.111   4.024
98334SOL    HW296842   4.029   6.110   4.104
98335SOL     OW96843   4.779  10.520   4.885
98335SOL    HW196844   4.724  10.517   4.963
98335SOL    HW296845   4.723  10.487   4.815
98336SOL     OW96846   4.898   9.841   9.719
98336SOL    HW196847   4.881   9.933   9.738
98336SOL    HW296848   4.817   9.796   9.743
98337SOL     OW96849   8.226   3.955  11.827
98337SOL    HW196850   8.136   3.946  11.794
98337SOL    HW296851   8.273   3.883  11.784
98338SOL     OW96852  12.554   9.722  11.423
98338SOL    HW196853  12.576   9.631  11.404
98338SOL    HW296854  12.535   9.723  11.517
98339SOL     OW96855   3.594   2.559  13.384
98339SOL    HW196856   3.536   2.536  13.457
98339SOL    HW296857   3.600   2.654  13.387
98340SOL     OW96858   4.731  13.868   3.858
98340SOL    HW196859   4.771  13.820   3.786
98340SOL    HW296860   4.735  13.960   3.831
98341SOL     OW96861  10.830   3.872   5.716
98341SOL    HW196862  10.895   3.818   5.672
98341SOL    HW296863  10.768   3.809   5.755
98342SOL     OW96864   6.860   6.125   7.464
98342SOL    HW196865   6.768   6.128   7.437
98342SOL    HW296866   6.857   6.126   7.560
98343SOL     OW96867   4.347   4.872  11.672
98343SOL    HW196868   4.263   4.832  11.647
98343SOL    HW296869   4.326   4.929  11.745
98344SOL     OW96870   9.236   0.054  13.043
98344SOL    HW196871   9.217   0.008  13.125
98344SOL    HW296872   9.149   0.070  13.005
98345SOL     OW96873   4.531   7.131  12.605
98345SOL    HW196874   4.473   7.138  12.681
98345SOL    HW296875   4.515   7.211  12.555
98346SOL     OW96876   0.543  12.684  10.235
98346SOL    HW196877   0.515  12.664  10.146
98346SOL    HW296878   0.465  12.720  10.277
98347SOL     OW96879  13.667   7.239   4.870
98347SOL    HW196880  13.704   7.152   4.859
98347SOL    HW296881  13.635   7.240   4.960
98348SOL     OW96882  10.313  11.357   5.710
98348SOL    HW196883  10.348  11.270   5.689
98348SOL    HW296884  10.218  11.347   5.706
98349SOL     OW96885  14.675   3.516   5.882
98349SOL    HW196886  14.624   3.438   5.860
98349SOL    HW296887  14.632   3.587   5.835
98350SOL     OW96888   9.874   7.409   8.013
98350SOL    HW196889   9.897   7.462   8.090
98350SOL    HW296890   9.936   7.436   7.946
98351SOL     OW96891  10.375   6.294   9.788
98351SOL    HW196892  10.400   6.264   9.875
98351SOL    HW296893  10.403   6.386   9.785
98352SOL     OW96894   2.566  12.346   1.874
98352SOL    HW196895   2.598  12.258   1.893
98352SOL    HW296896   2.612  12.371   1.794
98353SOL     OW96897  11.518  11.323   2.838
98353SOL    HW196898  11.573  11.396   2.809
98353SOL    HW296899  11.552  11.300   2.924
98354SOL     OW96900  14.327   4.424   0.588
98354SOL    HW196901  14.325   4.498   0.649
98354SOL    HW296902  14.273   4.356   0.631
98355SOL     OW96903  14.597   3.801  10.179
98355SOL    HW196904  14.570   3.888  10.150
98355SOL    HW296905  14.557   3.790  10.265
98356SOL     OW96906   4.433   2.739   3.032
98356SOL    HW196907   4.343   2.769   3.043
98356SOL    HW296908   4.434   2.652   3.072
98357SOL     OW96909  14.394   9.430   8.390
98357SOL    HW196910  14.402   9.344   8.432
98357SOL    HW296911  14.301   9.452   8.398
98358SOL     OW96912   1.308  13.282  11.719
98358SOL    HW196913   1.277  13.373  11.722
98358SOL    HW296914   1.398  13.289  11.689
98359SOL     OW96915   9.451  13.645   5.769
98359SOL    HW196916   9.440  13.650   5.674
98359SOL    HW296917   9.377  13.695   5.805
98360SOL     OW96918   5.839  12.283   8.328
98360SOL    HW196919   5.842  12.213   8.393
98360SOL    HW296920   5.773  12.255   8.265
98361SOL     OW96921  13.906   8.265  13.413
98361SOL    HW196922  13.851   8.202  13.368
98361SOL    HW296923  13.862   8.349  13.400
98362SOL     OW96924   9.471   9.342   1.946
98362SOL    HW196925   9.376   9.347   1.958
98362SOL    HW296926   9.487   9.254   1.913
98363SOL     OW96927  11.527   7.993   0.781
98363SOL    HW196928  11.560   7.957   0.864
98363SOL    HW296929  11.519   8.087   0.797
98364SOL     OW96930   5.461   1.979   3.667
98364SOL    HW196931   5.383   1.930   3.693
98364SOL    HW296932   5.497   1.928   3.594
98365SOL     OW96933   2.221   1.202  12.977
98365SOL    HW196934   2.156   1.151  13.024
98365SOL    HW296935   2.304   1.179  13.017
98366SOL     OW96936   5.008   7.616   4.279
98366SOL    HW196937   4.958   7.583   4.353
98366SOL    HW296938   4.979   7.563   4.205
98367SOL     OW96939  14.465   3.197   6.292
98367SOL    HW196940  14.407   3.271   6.308
98367SOL    HW296941  14.410   3.120   6.305
98368SOL     OW96942   9.456   7.801  11.466
98368SOL    HW196943   9.542   7.795  11.425
98368SOL    HW296944   9.418   7.881  11.429
98369SOL     OW96945  13.021   3.017   4.151
98369SOL    HW196946  13.055   2.953   4.089
98369SOL    HW296947  12.929   3.027   4.127
98370SOL     OW96948  11.611   1.605   8.151
98370SOL    HW196949  11.545   1.604   8.082
98370SOL    HW296950  11.574   1.662   8.219
98371SOL     OW96951  13.261   4.895   8.912
98371SOL    HW196952  13.259   4.990   8.897
98371SOL    HW296953  13.178   4.877   8.957
98372SOL     OW96954   2.422  14.043   1.002
98372SOL    HW196955   2.366  13.970   1.025
98372SOL    HW296956   2.470  14.013   0.924
98373SOL     OW96957   8.802  10.735   7.771
98373SOL    HW196958   8.886  10.726   7.727
98373SOL    HW296959   8.791  10.830   7.783
98374SOL     OW96960  10.377   5.638  10.523
98374SOL    HW196961  10.451   5.582  10.544
98374SOL    HW296962  10.359   5.685  10.605
98375SOL     OW96963   5.288   5.971   1.781
98375SOL    HW196964   5.199   5.997   1.757
98375SOL    HW296965   5.343   6.044   1.750
98376SOL     OW96966   4.141  14.148  12.224
98376SOL    HW196967   4.110  14.239  12.227
98376SOL    HW296968   4.202  14.142  12.297
98377SOL     OW96969  14.543   4.969   6.378
98377SOL    HW196970  14.603   5.021   6.431
98377SOL    HW296971  14.570   4.985   6.288
98378SOL     OW96972   2.003   5.486   6.931
98378SOL    HW196973   1.988   5.440   6.849
98378SOL    HW296974   1.921   5.474   6.981
98379SOL     OW96975   0.041   8.001   3.031
98379SOL    HW196976   0.084   8.030   3.111
98379SOL    HW296977  14.835   7.962   3.060
98380SOL     OW96978   5.998   8.844   5.345
98380SOL    HW196979   5.972   8.897   5.420
98380SOL    HW296980   5.927   8.854   5.282
98381SOL     OW96981   3.184   4.531  12.865
98381SOL    HW196982   3.125   4.477  12.919
98381SOL    HW296983   3.140   4.616  12.859
98382SOL     OW96984   9.222  11.626   5.021
98382SOL    HW196985   9.149  11.656   4.966
98382SOL    HW296986   9.209  11.532   5.030
98383SOL     OW96987   5.756   1.037  14.616
98383SOL    HW196988   5.727   1.113  14.667
98383SOL    HW296989   5.802   1.075  14.541
98384SOL     OW96990   2.843   3.586   0.386
98384SOL    HW196991   2.855   3.681   0.381
98384SOL    HW296992   2.922   3.554   0.430
98385SOL     OW96993   1.331   2.576  11.144
98385SOL    HW196994   1.354   2.485  11.126
98385SOL    HW296995   1.398   2.606  11.206
98386SOL     OW96996   7.998  14.670   8.280
98386SOL    HW196997   7.997  14.612   8.204
98386SOL    HW296998   8.080  14.720   8.270
98387SOL     OW96999   8.048   0.798   0.684
98387SOL    HW197000   8.100   0.873   0.712
98387SOL    HW297001   8.069   0.788   0.591
98388SOL     OW97002   0.570  12.565  13.037
98388SOL    HW197003   0.476  12.568  13.023
98388SOL    HW297004   0.590  12.646  13.084
98389SOL     OW97005   9.357   1.041  14.267
98389SOL    HW197006   9.375   1.050  14.361
98389SOL    HW297007   9.423   0.979  14.236
98390SOL     OW97008  11.893   2.043  12.742
98390SOL    HW197009  11.856   2.075  12.659
98390SOL    HW297010  11.942   2.117  12.777
98391SOL     OW97011   6.810   1.417   6.987
98391SOL    HW197012   6.740   1.360   6.957
98391SOL    HW297013   6.766   1.499   7.009
98392SOL     OW97014   9.819   9.498   3.594
98392SOL    HW197015   9.913   9.515   3.602
98392SOL    HW297016   9.780   9.583   3.576
98393SOL     OW97017  11.246   4.784   5.168
98393SOL    HW197018  11.201   4.817   5.090
98393SOL    HW297019  11.330   4.753   5.136
98394SOL     OW97020   4.454   4.752  11.418
98394SOL    HW197021   4.426   4.710  11.499
98394SOL    HW297022   4.456   4.845  11.439
98395SOL     OW97023   9.106   9.413   7.465
98395SOL    HW197024   9.023   9.391   7.507
98395SOL    HW297025   9.095   9.387   7.374
98396SOL     OW97026   0.114   1.257  10.378
98396SOL    HW197027   0.157   1.334  10.416
98396SOL    HW297028   0.049   1.231  10.443
98397SOL     OW97029   1.737   1.043   4.163
98397SOL    HW197030   1.677   0.968   4.163
98397SOL    HW297031   1.688   1.112   4.118
98398SOL     OW97032   3.270   6.511   3.230
98398SOL    HW197033   3.345   6.520   3.172
98398SOL    HW297034   3.303   6.537   3.316
98399SOL     OW97035   8.189  13.788   8.162
98399SOL    HW197036   8.189  13.876   8.125
98399SOL    HW297037   8.190  13.730   8.087
98400SOL     OW97038   2.066   7.309   9.084
98400SOL    HW197039   2.037   7.392   9.046
98400SOL    HW297040   2.011   7.243   9.041
98401SOL     OW97041   0.082   7.588  10.687
98401SOL    HW197042  14.863   7.591  10.692
98401SOL    HW297043   0.110   7.677  10.709
98402SOL     OW97044   0.963  14.039  14.434
98402SOL    HW197045   0.897  14.107  14.421
98402SOL    HW297046   1.046  14.080  14.410
98403SOL     OW97047  11.236  14.122   7.484
98403SOL    HW197048  11.141  14.129   7.490
98403SOL    HW297049  11.253  14.031   7.462
98404SOL     OW97050   7.585  10.976   7.325
98404SOL    HW197051   7.633  10.963   7.244
98404SOL    HW297052   7.493  10.967   7.301
98405SOL     OW97053   7.236  12.586  12.646
98405SOL    HW197054   7.246  12.657  12.709
98405SOL    HW297055   7.191  12.627  12.572
98406SOL     OW97056   3.007   4.961   8.138
98406SOL    HW197057   3.101   4.945   8.140
98406SOL    HW297058   2.990   5.013   8.217
98407SOL     OW97059   8.072  11.823  10.668
98407SOL    HW197060   8.104  11.889  10.730
98407SOL    HW297061   8.111  11.741  10.697
98408SOL     OW97062   6.306  14.028  14.551
98408SOL    HW197063   6.297  13.942  14.593
98408SOL    HW297064   6.238  14.082  14.591
98409SOL     OW97065  12.435  10.866  10.452
98409SOL    HW197066  12.356  10.911  10.479
98409SOL    HW297067  12.404  10.786  10.409
98410SOL     OW97068   3.531   2.270   5.269
98410SOL    HW197069   3.559   2.350   5.226
98410SOL    HW297070   3.525   2.294   5.362
98411SOL     OW97071  11.545   6.635   1.769
98411SOL    HW197072  11.544   6.724   1.735
98411SOL    HW297073  11.455   6.620   1.799
98412SOL     OW97074   6.561   7.514   3.011
98412SOL    HW197075   6.618   7.534   3.085
98412SOL    HW297076   6.601   7.560   2.937
98413SOL     OW97077   8.613   4.924   2.205
98413SOL    HW197078   8.646   4.881   2.126
98413SOL    HW297079   8.677   4.901   2.273
98414SOL     OW97080  11.967  11.920   2.386
98414SOL    HW197081  11.921  11.993   2.426
98414SOL    HW297082  11.900  11.855   2.369
98415SOL     OW97083   2.312   7.584   0.082
98415SOL    HW197084   2.333   7.543  14.874
98415SOL    HW297085   2.266   7.516   0.130
98416SOL     OW97086   7.223   1.199  14.391
98416SOL    HW197087   7.303   1.181  14.341
98416SOL    HW297088   7.173   1.258  14.336
98417SOL     OW97089   7.753   1.194  14.052
98417SOL    HW197090   7.756   1.147  14.135
98417SOL    HW297091   7.845   1.208  14.029
98418SOL     OW97092   1.042  14.726   2.907
98418SOL    HW197093   1.046  14.769   2.821
98418SOL    HW297094   1.032  14.798   2.969
98419SOL     OW97095  12.967  13.543   2.242
98419SOL    HW197096  12.994  13.526   2.333
98419SOL    HW297097  12.913  13.621   2.247
98420SOL     OW97098   1.417   7.330   7.436
98420SOL    HW197099   1.438   7.348   7.345
98420SOL    HW297100   1.501   7.337   7.482
98421SOL     OW97101   1.861   2.157  11.296
98421SOL    HW197102   1.868   2.095  11.368
98421SOL    HW297103   1.897   2.110  11.220
98422SOL     OW97104   9.276  12.104   3.776
98422SOL    HW197105   9.239  12.048   3.707
98422SOL    HW297106   9.200  12.128   3.830
98423SOL     OW97107   8.234   0.148   2.019
98423SOL    HW197108   8.320   0.190   2.015
98423SOL    HW297109   8.252   0.055   2.005
98424SOL     OW97110   3.346   7.018   4.326
98424SOL    HW197111   3.292   6.941   4.344
98424SOL    HW297112   3.378   7.046   4.411
98425SOL     OW97113  10.921  11.676   7.532
98425SOL    HW197114  10.942  11.645   7.444
98425SOL    HW297115  10.981  11.749   7.547
98426SOL     OW97116   3.743   3.082   6.964
98426SOL    HW197117   3.810   3.034   6.916
98426SOL    HW297118   3.760   3.174   6.945
98427SOL     OW97119   0.136   8.000  12.476
98427SOL    HW197120   0.144   7.986  12.382
98427SOL    HW297121   0.124   7.911  12.512
98428SOL     OW97122   1.302   4.333   5.377
98428SOL    HW197123   1.311   4.356   5.284
98428SOL    HW297124   1.249   4.253   5.377
98429SOL     OW97125   0.266  11.911   3.542
98429SOL    HW197126   0.335  11.894   3.606
98429SOL    HW297127   0.201  11.844   3.558
98430SOL     OW97128   3.378   6.935  14.614
98430SOL    HW197129   3.356   6.907  14.703
98430SOL    HW297130   3.407   7.026  14.624
98431SOL     OW97131  12.086   8.578   3.969
98431SOL    HW197132  12.074   8.483   3.965
98431SOL    HW297133  12.164   8.591   4.022
98432SOL     OW97134   0.053   0.730   5.143
98432SOL    HW197135   0.013   0.816   5.155
98432SOL    HW297136  14.855   0.670   5.139
98433SOL     OW97137  11.550   8.486   3.560
98433SOL    HW197138  11.535   8.466   3.652
98433SOL    HW297139  11.550   8.400   3.516
98434SOL     OW97140   2.135   2.583   4.571
98434SOL    HW197141   2.081   2.640   4.626
98434SOL    HW297142   2.096   2.497   4.581
98435SOL     OW97143   2.252  11.952   1.114
98435SOL    HW197144   2.163  11.956   1.081
98435SOL    HW297145   2.302  11.909   1.044
98436SOL     OW97146   6.935   9.214   1.058
98436SOL    HW197147   6.924   9.208   0.963
98436SOL    HW297148   7.014   9.267   1.069
98437SOL     OW97149   8.817   1.536  12.798
98437SOL    HW197150   8.807   1.568  12.708
98437SOL    HW297151   8.761   1.594  12.850
98438SOL     OW97152  13.154   3.736   9.877
98438SOL    HW197153  13.243   3.731   9.912
98438SOL    HW297154  13.165   3.747   9.783
98439SOL     OW97155  11.117  14.168   2.048
98439SOL    HW197156  11.184  14.236   2.052
98439SOL    HW297157  11.163  14.087   2.072
98440SOL     OW97158  14.764   2.388   9.544
98440SOL    HW197159  14.701   2.451   9.508
98440SOL    HW297160  14.709   2.319   9.582
98441SOL     OW97161   2.111  12.532   6.330
98441SOL    HW197162   2.199  12.503   6.353
98441SOL    HW297163   2.088  12.480   6.253
98442SOL     OW97164   8.263   6.876   1.083
98442SOL    HW197165   8.233   6.846   0.997
98442SOL    HW297166   8.310   6.801   1.119
98443SOL     OW97167   0.818   9.774   0.293
98443SOL    HW197168   0.788   9.831   0.222
98443SOL    HW297169   0.833   9.833   0.366
98444SOL     OW97170   0.559   0.438  10.244
98444SOL    HW197171   0.633   0.393  10.205
98444SOL    HW297172   0.484   0.382  10.224
98445SOL     OW97173   7.924   6.842   5.358
98445SOL    HW197174   7.919   6.849   5.263
98445SOL    HW297175   8.014   6.869   5.379
98446SOL     OW97176   0.441  14.298  10.046
98446SOL    HW197177   0.487  14.299   9.962
98446SOL    HW297178   0.439  14.390  10.073
98447SOL     OW97179   2.840   6.269   9.507
98447SOL    HW197180   2.761   6.268   9.454
98447SOL    HW297181   2.912   6.264   9.444
98448SOL     OW97182  10.416   9.521   1.955
98448SOL    HW197183  10.474   9.543   2.028
98448SOL    HW297184  10.473   9.528   1.878
98449SOL     OW97185   8.821  13.263  12.551
98449SOL    HW197186   8.845  13.240  12.641
98449SOL    HW297187   8.758  13.335  12.561
98450SOL     OW97188   8.944   5.573   1.340
98450SOL    HW197189   9.015   5.635   1.353
98450SOL    HW297190   8.865   5.624   1.354
98451SOL     OW97191   7.162  14.160  12.541
98451SOL    HW197192   7.083  14.105  12.546
98451SOL    HW297193   7.224  14.109  12.489
98452SOL     OW97194   9.990  13.889   7.606
98452SOL    HW197195   9.954  13.974   7.631
98452SOL    HW297196  10.016  13.900   7.514
98453SOL     OW97197   6.076  10.558   8.107
98453SOL    HW197198   6.149  10.512   8.148
98453SOL    HW297199   6.080  10.647   8.144
98454SOL     OW97200   5.003  13.689   3.788
98454SOL    HW197201   5.046  13.710   3.871
98454SOL    HW297202   5.070  13.641   3.739
98455SOL     OW97203   8.207   3.025   9.629
98455SOL    HW197204   8.127   3.028   9.682
98455SOL    HW297205   8.179   2.989   9.545
98456SOL     OW97206   0.784  11.427   0.153
98456SOL    HW197207   0.871  11.460   0.133
98456SOL    HW297208   0.729  11.506   0.160
98457SOL     OW97209   2.721   0.606   8.102
98457SOL    HW197210   2.756   0.692   8.078
98457SOL    HW297211   2.695   0.615   8.194
98458SOL     OW97212  12.398  13.508   5.868
98458SOL    HW197213  12.388  13.565   5.791
98458SOL    HW297214  12.492  13.492   5.873
98459SOL     OW97215   2.297   9.771   4.107
98459SOL    HW197216   2.382   9.743   4.074
98459SOL    HW297217   2.263   9.830   4.040
98460SOL     OW97218   9.657   2.567  10.347
98460SOL    HW197219   9.655   2.519  10.264
98460SOL    HW297220   9.717   2.517  10.402
98461SOL     OW97221   2.747   4.413  11.345
98461SOL    HW197222   2.783   4.356  11.413
98461SOL    HW297223   2.793   4.386  11.266
98462SOL     OW97224   8.025  14.141   6.833
98462SOL    HW197225   8.098  14.096   6.791
98462SOL    HW297226   8.009  14.218   6.777
98463SOL     OW97227  13.700  14.525  14.381
98463SOL    HW197228  13.635  14.481  14.325
98463SOL    HW297229  13.680  14.495  14.469
98464SOL     OW97230  11.681   3.299  12.170
98464SOL    HW197231  11.715   3.213  12.146
98464SOL    HW297232  11.756   3.358  12.163
98465SOL     OW97233   9.468   0.714   2.154
98465SOL    HW197234   9.523   0.721   2.076
98465SOL    HW297235   9.378   0.713   2.120
98466SOL     OW97236   0.791  10.509   0.730
98466SOL    HW197237   0.833  10.481   0.811
98466SOL    HW297238   0.863  10.541   0.675
98467SOL     OW97239   6.169   1.210   3.107
98467SOL    HW197240   6.242   1.216   3.045
98467SOL    HW297241   6.184   1.129   3.155
98468SOL     OW97242  12.933   3.537   3.489
98468SOL    HW197243  12.848   3.550   3.446
98468SOL    HW297244  12.996   3.541   3.418
98469SOL     OW97245   9.568   6.284   3.453
98469SOL    HW197246   9.564   6.336   3.373
98469SOL    HW297247   9.582   6.348   3.523
98470SOL     OW97248   8.958   4.187   5.797
98470SOL    HW197249   8.940   4.255   5.732
98470SOL    HW297250   8.917   4.108   5.761
98471SOL     OW97251   7.436   7.300   5.833
98471SOL    HW197252   7.512   7.329   5.783
98471SOL    HW297253   7.444   7.204   5.835
98472SOL     OW97254  14.073   1.301   2.328
98472SOL    HW197255  14.029   1.267   2.405
98472SOL    HW297256  14.160   1.261   2.330
98473SOL     OW97257   0.689   2.414  12.800
98473SOL    HW197258   0.602   2.449  12.778
98473SOL    HW297259   0.672   2.324  12.827
98474SOL     OW97260   1.348   1.028   0.660
98474SOL    HW197261   1.429   1.079   0.670
98474SOL    HW297262   1.319   1.047   0.571
98475SOL     OW97263  14.721  12.295   0.943
98475SOL    HW197264  14.739  12.202   0.929
98475SOL    HW297265  14.635  12.297   0.986
98476SOL     OW97266   4.568   1.152   3.544
98476SOL    HW197267   4.540   1.077   3.491
98476SOL    HW297268   4.643   1.120   3.593
98477SOL     OW97269   6.943   9.967   1.450
98477SOL    HW197270   6.979   9.907   1.385
98477SOL    HW297271   6.863   9.923   1.482
98478SOL     OW97272   8.581  14.219   4.015
98478SOL    HW197273   8.642  14.205   4.087
98478SOL    HW297274   8.636  14.248   3.942
98479SOL     OW97275   6.033   0.080  14.553
98479SOL    HW197276   6.014   0.051  14.464
98479SOL    HW297277   6.124   0.056  14.569
98480SOL     OW97278   9.832  12.824   3.573
98480SOL    HW197279   9.869  12.802   3.488
98480SOL    HW297280   9.754  12.769   3.580
98481SOL     OW97281   6.778   3.956   5.098
98481SOL    HW197282   6.762   3.986   5.187
98481SOL    HW297283   6.720   3.880   5.087
98482SOL     OW97284  10.731   9.440   4.213
98482SOL    HW197285  10.678   9.368   4.180
98482SOL    HW297286  10.670   9.495   4.262
98483SOL     OW97287   2.795   6.667   6.086
98483SOL    HW197288   2.813   6.606   6.014
98483SOL    HW297289   2.858   6.642   6.154
98484SOL     OW97290  11.631   1.133   0.002
98484SOL    HW197291  11.584   1.085  14.810
98484SOL    HW297292  11.588   1.218   0.004
98485SOL     OW97293   5.627   5.743  14.738
98485SOL    HW197294   5.668   5.819  14.779
98485SOL    HW297295   5.647   5.752  14.645
98486SOL     OW97296  13.738  13.482  12.965
98486SOL    HW197297  13.675  13.510  12.898
98486SOL    HW297298  13.697  13.406  13.006
98487SOL     OW97299   7.288   0.215  10.120
98487SOL    HW197300   7.264   0.211  10.028
98487SOL    HW297301   7.261   0.302  10.149
98488SOL     OW97302  10.809  10.540   3.190
98488SOL    HW197303  10.761  10.459   3.174
98488SOL    HW297304  10.888  10.533   3.138
98489SOL     OW97305  14.209   0.854   5.360
98489SOL    HW197306  14.119   0.883   5.350
98489SOL    HW297307  14.204   0.759   5.356
98490SOL     OW97308   8.653  11.944  13.127
98490SOL    HW197309   8.702  11.888  13.068
98490SOL    HW297310   8.662  11.904  13.213
98491SOL     OW97311   2.415   6.700   7.614
98491SOL    HW197312   2.499   6.659   7.594
98491SOL    HW297313   2.435   6.761   7.686
98492SOL     OW97314  10.822   2.944   4.669
98492SOL    HW197315  10.862   2.858   4.672
98492SOL    HW297316  10.730   2.928   4.649
98493SOL     OW97317   2.533   1.384   3.523
98493SOL    HW197318   2.564   1.335   3.599
98493SOL    HW297319   2.593   1.358   3.453
98494SOL     OW97320   2.779  14.699  13.128
98494SOL    HW197321   2.756  14.698  13.036
98494SOL    HW297322   2.783  14.791  13.151
98495SOL     OW97323  14.647  14.493   0.104
98495SOL    HW197324  14.629  14.464   0.194
98495SOL    HW297325  14.568  14.541   0.078
98496SOL     OW97326   9.668  12.544   5.065
98496SOL    HW197327   9.684  12.635   5.088
98496SOL    HW297328   9.726  12.494   5.122
98497SOL     OW97329   2.422  13.400  11.759
98497SOL    HW197330   2.476  13.414  11.681
98497SOL    HW297331   2.484  13.368  11.825
98498SOL     OW97332  12.146   3.558   0.254
98498SOL    HW197333  12.229   3.518   0.280
98498SOL    HW297334  12.087   3.541   0.327
98499SOL     OW97335   4.238   5.115   8.497
98499SOL    HW197336   4.199   5.124   8.584
98499SOL    HW297337   4.332   5.113   8.513
98500SOL     OW97338  14.268  14.140  11.538
98500SOL    HW197339  14.303  14.137  11.449
98500SOL    HW297340  14.241  14.230  11.551
98501SOL     OW97341   6.947  12.316  11.427
98501SOL    HW197342   7.026  12.287  11.472
98501SOL    HW297343   6.875  12.281  11.479
98502SOL     OW97344   4.137  13.875   9.512
98502SOL    HW197345   4.172  13.863   9.424
98502SOL    HW297346   4.171  13.800   9.561
98503SOL     OW97347   6.852   8.658   0.156
98503SOL    HW197348   6.784   8.644   0.222
98503SOL    HW297349   6.912   8.721   0.196
98504SOL     OW97350  13.019   0.867   8.083
98504SOL    HW197351  12.983   0.874   7.994
98504SOL    HW297352  12.993   0.949   8.125
98505SOL     OW97353   3.969   4.551   2.995
98505SOL    HW197354   3.881   4.549   3.033
98505SOL    HW297355   4.026   4.514   3.063
98506SOL     OW97356  10.386  14.585   2.292
98506SOL    HW197357  10.376  14.558   2.383
98506SOL    HW297358  10.475  14.619   2.287
98507SOL     OW97359   8.436   5.154   0.994
98507SOL    HW197360   8.414   5.227   0.935
98507SOL    HW297361   8.448   5.196   1.079
98508SOL     OW97362  14.164   7.607   4.142
98508SOL    HW197363  14.203   7.560   4.215
98508SOL    HW297364  14.101   7.666   4.183
98509SOL     OW97365   8.503   0.212  10.878
98509SOL    HW197366   8.557   0.219  10.799
98509SOL    HW297367   8.464   0.125  10.871
98510SOL     OW97368   5.304   0.670   4.424
98510SOL    HW197369   5.364   0.598   4.444
98510SOL    HW297370   5.220   0.641   4.460
98511SOL     OW97371   6.606  10.672   1.409
98511SOL    HW197372   6.579  10.593   1.456
98511SOL    HW297373   6.702  10.667   1.407
98512SOL     OW97374   4.982  12.648  11.256
98512SOL    HW197375   5.004  12.555  11.250
98512SOL    HW297376   5.066  12.693  11.243
98513SOL     OW97377   2.966  14.315   9.119
98513SOL    HW197378   3.002  14.273   9.197
98513SOL    HW297379   2.956  14.244   9.056
98514SOL     OW97380  13.099   8.637   8.442
98514SOL    HW197381  13.009   8.614   8.423
98514SOL    HW297382  13.096   8.672   8.532
98515SOL     OW97383  10.271   5.122   0.888
98515SOL    HW197384  10.187   5.100   0.848
98515SOL    HW297385  10.326   5.151   0.814
98516SOL     OW97386  14.695  12.202  14.503
98516SOL    HW197387  14.661  12.118  14.475
98516SOL    HW297388  14.618  12.253  14.528
98517SOL     OW97389   2.094  12.999  13.589
98517SOL    HW197390   2.163  13.043  13.637
98517SOL    HW297391   2.102  12.907  13.614
98518SOL     OW97392   8.008  10.878   4.597
98518SOL    HW197393   7.990  10.817   4.526
98518SOL    HW297394   7.967  10.961   4.570
98519SOL     OW97395  14.488  10.469   2.289
98519SOL    HW197396  14.425  10.485   2.359
98519SOL    HW297397  14.523  10.556   2.268
98520SOL     OW97398   6.416  10.615   4.986
98520SOL    HW197399   6.496  10.620   4.933
98520SOL    HW297400   6.362  10.687   4.953
98521SOL     OW97401  12.076   4.388  13.314
98521SOL    HW197402  12.137   4.405  13.243
98521SOL    HW297403  12.006   4.452  13.301
98522SOL     OW97404  11.614  14.186   8.583
98522SOL    HW197405  11.547  14.196   8.515
98522SOL    HW297406  11.656  14.272   8.588
98523SOL     OW97407  12.499  11.044   8.293
98523SOL    HW197408  12.494  11.096   8.213
98523SOL    HW297409  12.453  11.097   8.358
98524SOL     OW97410  13.418   5.289   6.826
98524SOL    HW197411  13.465   5.306   6.745
98524SOL    HW297412  13.450   5.204   6.856
98525SOL     OW97413  13.667   4.055   1.165
98525SOL    HW197414  13.725   3.983   1.191
98525SOL    HW297415  13.710   4.094   1.089
98526SOL     OW97416  12.261  14.317   7.942
98526SOL    HW197417  12.298  14.306   8.029
98526SOL    HW297418  12.239  14.228   7.914
98527SOL     OW97419   2.986   1.961  11.635
98527SOL    HW197420   2.907   2.014  11.631
98527SOL    HW297421   2.998   1.943  11.728
98528SOL     OW97422   3.653   4.237   5.331
98528SOL    HW197423   3.657   4.187   5.413
98528SOL    HW297424   3.576   4.293   5.342
98529SOL     OW97425   9.009   0.905   1.867
98529SOL    HW197426   8.970   0.960   1.935
98529SOL    HW297427   8.948   0.832   1.857
98530SOL     OW97428   4.224   6.679   9.247
98530SOL    HW197429   4.301   6.684   9.303
98530SOL    HW297430   4.248   6.730   9.169
98531SOL     OW97431  10.898   5.240   5.344
98531SOL    HW197432  10.877   5.200   5.428
98531SOL    HW297433  10.967   5.185   5.307
98532SOL     OW97434   3.801  10.179   1.466
98532SOL    HW197435   3.736  10.118   1.502
98532SOL    HW297436   3.750  10.255   1.438
98533SOL     OW97437   9.359   2.444   7.605
98533SOL    HW197438   9.448   2.458   7.574
98533SOL    HW297439   9.323   2.377   7.548
98534SOL     OW97440   8.087   2.871   6.513
98534SOL    HW197441   8.016   2.912   6.563
98534SOL    HW297442   8.048   2.852   6.427
98535SOL     OW97443   2.103   8.424   7.767
98535SOL    HW197444   2.192   8.458   7.767
98535SOL    HW297445   2.111   8.333   7.739
98536SOL     OW97446   5.247   0.099   5.566
98536SOL    HW197447   5.228   0.193   5.566
98536SOL    HW297448   5.259   0.076   5.474
98537SOL     OW97449  12.521  12.895   6.982
98537SOL    HW197450  12.430  12.916   6.963
98537SOL    HW297451  12.530  12.802   6.962
98538SOL     OW97452   9.568   1.644   4.084
98538SOL    HW197453   9.602   1.558   4.111
98538SOL    HW297454   9.514   1.625   4.008
98539SOL     OW97455   2.729   1.815   4.607
98539SOL    HW197456   2.778   1.890   4.574
98539SOL    HW297457   2.765   1.799   4.695
98540SOL     OW97458   1.217  10.197  12.465
98540SOL    HW197459   1.189  10.287  12.480
98540SOL    HW297460   1.302  10.206  12.421
98541SOL     OW97461  12.061   9.138   1.695
98541SOL    HW197462  12.020   9.063   1.738
98541SOL    HW297463  11.998   9.209   1.706
98542SOL     OW97464   0.107  13.894   1.485
98542SOL    HW197465   0.093  13.808   1.444
98542SOL    HW297466   0.150  13.946   1.418
98543SOL     OW97467  13.284   6.595  13.571
98543SOL    HW197468  13.273   6.684  13.605
98543SOL    HW297469  13.262   6.538  13.644
98544SOL     OW97470   9.710   2.022  10.787
98544SOL    HW197471   9.724   1.930  10.811
98544SOL    HW297472   9.781   2.042  10.727
98545SOL     OW97473  10.529  14.602   6.987
98545SOL    HW197474  10.605  14.546   7.000
98545SOL    HW297475  10.486  14.605   7.072
98546SOL     OW97476  11.845   2.879   3.107
98546SOL    HW197477  11.857   2.974   3.094
98546SOL    HW297478  11.796   2.872   3.188
98547SOL     OW97479   1.619   0.198  13.023
98547SOL    HW197480   1.681   0.261  13.060
98547SOL    HW297481   1.539   0.249  13.009
98548SOL     OW97482   6.903   1.634   5.893
98548SOL    HW197483   6.925   1.722   5.923
98548SOL    HW297484   6.896   1.582   5.973
98549SOL     OW97485   6.771   6.156  11.285
98549SOL    HW197486   6.752   6.215  11.213
98549SOL    HW297487   6.842   6.198  11.333
98550SOL     OW97488  12.689  10.387   0.329
98550SOL    HW197489  12.754  10.318   0.341
98550SOL    HW297490  12.651  10.399   0.415
98551SOL     OW97491   3.154   3.908  13.743
98551SOL    HW197492   3.192   3.986  13.782
98551SOL    HW297493   3.179   3.913  13.650
98552SOL     OW97494   7.661   5.515  14.692
98552SOL    HW197495   7.604   5.439  14.704
98552SOL    HW297496   7.698   5.503  14.605
98553SOL     OW97497   6.998   9.218   3.035
98553SOL    HW197498   7.005   9.196   3.129
98553SOL    HW297499   6.970   9.136   2.994
98554SOL     OW97500  11.829   9.489  13.364
98554SOL    HW197501  11.786   9.533  13.291
98554SOL    HW297502  11.881   9.557  13.407
98555SOL     OW97503   7.288   9.576   5.960
98555SOL    HW197504   7.383   9.567   5.949
98555SOL    HW297505   7.269   9.532   6.043
98556SOL     OW97506   8.107  13.265   2.792
98556SOL    HW197507   8.057  13.228   2.865
98556SOL    HW297508   8.043  13.276   2.722
98557SOL     OW97509   3.208  11.857   6.097
98557SOL    HW197510   3.144  11.789   6.077
98557SOL    HW297511   3.194  11.924   6.031
98558SOL     OW97512   9.185  12.609  12.698
98558SOL    HW197513   9.157  12.631  12.787
98558SOL    HW297514   9.164  12.516  12.689
98559SOL     OW97515   8.677  12.235   2.251
98559SOL    HW197516   8.613  12.171   2.220
98559SOL    HW297517   8.659  12.314   2.200
98560SOL     OW97518  10.241  14.017   8.398
98560SOL    HW197519  10.271  14.019   8.489
98560SOL    HW297520  10.226  14.109   8.375
98561SOL     OW97521   5.696  14.842   2.824
98561SOL    HW197522   5.762  14.807   2.765
98561SOL    HW297523   5.723   0.056   2.839
98562SOL     OW97524   8.555  11.537  10.246
98562SOL    HW197525   8.585  11.463  10.300
98562SOL    HW297526   8.461  11.521  10.235
98563SOL     OW97527   1.939  11.279   2.181
98563SOL    HW197528   1.984  11.327   2.250
98563SOL    HW297529   2.005  11.268   2.112
98564SOL     OW97530   6.324   0.647   9.084
98564SOL    HW197531   6.242   0.622   9.043
98564SOL    HW297532   6.313   0.625   9.176
98565SOL     OW97533   3.836   8.505   6.498
98565SOL    HW197534   3.881   8.527   6.416
98565SOL    HW297535   3.791   8.423   6.479
98566SOL     OW97536   0.514  11.422   2.854
98566SOL    HW197537   0.447  11.432   2.922
98566SOL    HW297538   0.488  11.486   2.787
98567SOL     OW97539   0.738   5.145   6.515
98567SOL    HW197540   0.654   5.102   6.534
98567SOL    HW297541   0.737   5.225   6.567
98568SOL     OW97542   7.621  13.688   4.933
98568SOL    HW197543   7.559  13.644   4.992
98568SOL    HW297544   7.680  13.736   4.991
98569SOL     OW97545   1.122   8.113   8.442
98569SOL    HW197546   1.153   8.080   8.358
98569SOL    HW297547   1.154   8.203   8.446
98570SOL     OW97548  13.737   0.876   7.848
98570SOL    HW197549  13.790   0.800   7.870
98570SOL    HW297550  13.669   0.877   7.915
98571SOL     OW97551   9.558  13.383  12.346
98571SOL    HW197552   9.503  13.317  12.305
98571SOL    HW297553   9.646  13.345  12.344
98572SOL     OW97554   8.140   4.818   3.283
98572SOL    HW197555   8.105   4.730   3.296
98572SOL    HW297556   8.068   4.876   3.307
98573SOL     OW97557   1.068   5.962   4.736
98573SOL    HW197558   1.145   5.905   4.745
98573SOL    HW297559   1.045   5.957   4.644
98574SOL     OW97560   2.097  12.661   8.732
98574SOL    HW197561   2.119  12.584   8.784
98574SOL    HW297562   2.010  12.641   8.696
98575SOL     OW97563   8.860  12.721   3.283
98575SOL    HW197564   8.916  12.650   3.250
98575SOL    HW297565   8.771  12.686   3.277
98576SOL     OW97566   0.006   0.736   7.034
98576SOL    HW197567  14.850   0.685   7.108
98576SOL    HW297568   0.094   0.764   7.061
98577SOL     OW97569   6.272   8.415   7.723
98577SOL    HW197570   6.184   8.431   7.758
98577SOL    HW297571   6.256   8.371   7.639
98578SOL     OW97572  11.849   8.218   8.476
98578SOL    HW197573  11.809   8.146   8.428
98578SOL    HW297574  11.778   8.281   8.487
98579SOL     OW97575   6.073   4.614   5.292
98579SOL    HW197576   5.982   4.639   5.278
98579SOL    HW297577   6.107   4.677   5.354
98580SOL     OW97578  12.140   6.727  11.482
98580SOL    HW197579  12.200   6.658  11.455
98580SOL    HW297580  12.193   6.807  11.477
98581SOL     OW97581  10.810  12.121   8.378
98581SOL    HW197582  10.892  12.167   8.392
98581SOL    HW297583  10.816  12.043   8.434
98582SOL     OW97584   4.137   3.626   3.446
98582SOL    HW197585   4.102   3.647   3.360
98582SOL    HW297586   4.191   3.701   3.469
98583SOL     OW97587  11.075  11.823   1.279
98583SOL    HW197588  11.155  11.822   1.225
98583SOL    HW297589  11.054  11.730   1.292
98584SOL     OW97590  13.927   5.499   9.823
98584SOL    HW197591  13.952   5.499   9.915
98584SOL    HW297592  13.854   5.438   9.818
98585SOL     OW97593   9.272   8.841   2.701
98585SOL    HW197594   9.213   8.906   2.663
98585SOL    HW297595   9.303   8.881   2.783
98586SOL     OW97596  13.790  10.176   5.365
98586SOL    HW197597  13.782  10.188   5.460
98586SOL    HW297598  13.816  10.085   5.354
98587SOL     OW97599  11.249   0.498  12.185
98587SOL    HW197600  11.216   0.538  12.105
98587SOL    HW297601  11.322   0.443  12.156
98588SOL     OW97602   9.148  12.952  11.587
98588SOL    HW197603   9.150  12.869  11.540
98588SOL    HW297604   9.110  13.015  11.525
98589SOL     OW97605  12.878   1.902  10.806
98589SOL    HW197606  12.821   1.902  10.728
98589SOL    HW297607  12.916   1.990  10.808
98590SOL     OW97608  14.346   0.922   8.722
98590SOL    HW197609  14.405   0.846   8.724
98590SOL    HW297610  14.393   0.988   8.671
98591SOL     OW97611  10.897  12.384  11.274
98591SOL    HW197612  10.832  12.383  11.203
98591SOL    HW297613  10.981  12.384  11.228
98592SOL     OW97614   9.511   5.419  10.136
98592SOL    HW197615   9.431   5.372  10.112
98592SOL    HW297616   9.582   5.369  10.095
98593SOL     OW97617   2.188   9.448   5.163
98593SOL    HW197618   2.245   9.524   5.177
98593SOL    HW297619   2.101   9.479   5.187
98594SOL     OW97620  11.563  13.451   8.491
98594SOL    HW197621  11.587  13.362   8.516
98594SOL    HW297622  11.480  13.468   8.536
98595SOL     OW97623  10.408   8.279   9.806
98595SOL    HW197624  10.383   8.241   9.890
98595SOL    HW297625  10.503   8.265   9.801
98596SOL     OW97626   9.937   1.588   3.346
98596SOL    HW197627   9.939   1.545   3.432
98596SOL    HW297628   9.930   1.516   3.284
98597SOL     OW97629   2.768   2.599   6.454
98597SOL    HW197630   2.778   2.602   6.359
98597SOL    HW297631   2.720   2.518   6.471
98598SOL     OW97632   3.228   3.590  10.723
98598SOL    HW197633   3.137   3.614  10.706
98598SOL    HW297634   3.230   3.495  10.712
98599SOL     OW97635  12.932  10.543  12.991
98599SOL    HW197636  12.914  10.492  13.069
98599SOL    HW297637  12.954  10.630  13.023
98600SOL     OW97638   2.002   1.064  13.080
98600SOL    HW197639   1.954   1.092  13.002
98600SOL    HW297640   1.936   1.059  13.149
98601SOL     OW97641   0.583  14.368  12.019
98601SOL    HW197642   0.597  14.437  12.084
98601SOL    HW297643   0.604  14.287  12.065
98602SOL     OW97644  12.312  12.298  10.401
98602SOL    HW197645  12.295  12.236  10.330
98602SOL    HW297646  12.297  12.384  10.361
98603SOL     OW97647   2.149  13.328   1.153
98603SOL    HW197648   2.091  13.394   1.117
98603SOL    HW297649   2.127  13.248   1.106
98604SOL     OW97650   3.526   2.766  13.044
98604SOL    HW197651   3.445   2.761  13.096
98604SOL    HW297652   3.577   2.835  13.086
98605SOL     OW97653   8.724   9.666   1.867
98605SOL    HW197654   8.801   9.722   1.865
98605SOL    HW297655   8.725   9.620   1.784
98606SOL     OW97656   2.279   0.195   2.770
98606SOL    HW197657   2.357   0.242   2.800
98606SOL    HW297658   2.209   0.226   2.826
98607SOL     OW97659   2.813   6.018   8.416
98607SOL    HW197660   2.877   6.085   8.391
98607SOL    HW297661   2.833   6.000   8.508
98608SOL     OW97662  10.167   2.034  12.174
98608SOL    HW197663  10.179   1.940  12.165
98608SOL    HW297664  10.130   2.046  12.262
98609SOL     OW97665   9.647   5.087   9.033
98609SOL    HW197666   9.646   5.095   8.938
98609SOL    HW297667   9.568   5.132   9.063
98610SOL     OW97668  12.643  12.548   7.298
98610SOL    HW197669  12.639  12.493   7.376
98610SOL    HW297670  12.553  12.555   7.268
98611SOL     OW97671   9.321   6.396   9.886
98611SOL    HW197672   9.372   6.427   9.811
98611SOL    HW297673   9.265   6.470   9.909
98612SOL     OW97674   7.620   1.816   6.998
98612SOL    HW197675   7.707   1.855   7.006
98612SOL    HW297676   7.625   1.762   6.920
98613SOL     OW97677   5.950  12.630   6.025
98613SOL    HW197678   5.959  12.568   5.953
98613SOL    HW297679   5.869  12.605   6.069
98614SOL     OW97680   1.774   1.308  10.044
98614SOL    HW197681   1.735   1.346   9.965
98614SOL    HW297682   1.801   1.384  10.096
98615SOL     OW97683   5.544   3.628   9.473
98615SOL    HW197684   5.572   3.551   9.423
98615SOL    HW297685   5.506   3.592   9.554
98616SOL     OW97686   3.712   4.947   4.133
98616SOL    HW197687   3.684   5.021   4.079
98616SOL    HW297688   3.787   4.910   4.086
98617SOL     OW97689   3.373  14.559  10.657
98617SOL    HW197690   3.327  14.634  10.621
98617SOL    HW297691   3.428  14.595  10.727
98618SOL     OW97692  14.230   4.795   3.547
98618SOL    HW197693  14.231   4.793   3.643
98618SOL    HW297694  14.273   4.877   3.524
98619SOL     OW97695  10.231   6.845   8.618
98619SOL    HW197696  10.306   6.879   8.666
98619SOL    HW297697  10.258   6.848   8.526
98620SOL     OW97698   7.719   3.894  10.943
98620SOL    HW197699   7.678   3.945  11.012
98620SOL    HW297700   7.686   3.805  10.956
98621SOL     OW97701   0.276   7.933   9.067
98621SOL    HW197702   0.342   7.945   8.998
98621SOL    HW297703   0.326   7.932   9.148
98622SOL     OW97704   5.099   7.009   2.141
98622SOL    HW197705   5.178   6.956   2.137
98622SOL    HW297706   5.035   6.960   2.089
98623SOL     OW97707  14.423   5.335   4.762
98623SOL    HW197708  14.401   5.312   4.852
98623SOL    HW297709  14.352   5.392   4.733
98624SOL     OW97710   4.858  12.516  11.850
98624SOL    HW197711   4.931  12.570  11.881
98624SOL    HW297712   4.879  12.497  11.759
98625SOL     OW97713   3.244   6.916   6.846
98625SOL    HW197714   3.288   6.834   6.865
98625SOL    HW297715   3.275   6.976   6.914
98626SOL     OW97716   4.052   9.363   7.509
98626SOL    HW197717   3.992   9.437   7.517
98626SOL    HW297718   4.001   9.288   7.540
98627SOL     OW97719  13.689  13.027  12.512
98627SOL    HW197720  13.752  12.962  12.481
98627SOL    HW297721  13.739  13.110  12.513
98628SOL     OW97722   8.530  11.763  10.721
98628SOL    HW197723   8.582  11.755  10.641
98628SOL    HW297724   8.539  11.679  10.765
98629SOL     OW97725  11.230   0.241  11.691
98629SOL    HW197726  11.205   0.327  11.655
98629SOL    HW297727  11.210   0.247  11.784
98630SOL     OW97728  12.131   8.176   7.242
98630SOL    HW197729  12.067   8.209   7.305
98630SOL    HW297730  12.102   8.087   7.222
98631SOL     OW97731   8.598  12.849   1.513
98631SOL    HW197732   8.680  12.840   1.562
98631SOL    HW297733   8.544  12.906   1.568
98632SOL     OW97734  14.873  10.615   2.736
98632SOL    HW197735  14.859  10.587   2.646
98632SOL    HW297736   0.071  10.563   2.767
98633SOL     OW97737   4.001  11.626   7.344
98633SOL    HW197738   4.055  11.658   7.272
98633SOL    HW297739   3.936  11.570   7.303
98634SOL     OW97740   2.949   9.367  10.112
98634SOL    HW197741   2.900   9.448  10.105
98634SOL    HW297742   3.015   9.373  10.042
98635SOL     OW97743   7.698  14.549   3.624
98635SOL    HW197744   7.676  14.513   3.710
98635SOL    HW297745   7.785  14.515   3.605
98636SOL     OW97746   9.692  10.462   0.217
98636SOL    HW197747   9.734  10.538   0.259
98636SOL    HW297748   9.605  10.459   0.257
98637SOL     OW97749   6.877  11.405   9.285
98637SOL    HW197750   6.968  11.377   9.273
98637SOL    HW297751   6.857  11.384   9.376
98638SOL     OW97752  12.004   2.318  12.130
98638SOL    HW197753  12.053   2.240  12.103
98638SOL    HW297754  12.015   2.379  12.058
98639SOL     OW97755   0.904   0.939   1.553
98639SOL    HW197756   0.879   0.894   1.634
98639SOL    HW297757   0.964   0.878   1.509
98640SOL     OW97758   9.807  13.537  14.392
98640SOL    HW197759   9.806  13.449  14.430
98640SOL    HW297760   9.898  13.549  14.365
98641SOL     OW97761   7.999   0.172  10.393
98641SOL    HW197762   8.036   0.224  10.464
98641SOL    HW297763   7.904   0.184  10.400
98642SOL     OW97764   5.391   0.147   9.136
98642SOL    HW197765   5.327   0.169   9.204
98642SOL    HW297766   5.339   0.105   9.067
98643SOL     OW97767   0.393  13.093   4.530
98643SOL    HW197768   0.444  13.157   4.480
98643SOL    HW297769   0.339  13.146   4.588
98644SOL     OW97770   4.646   9.312   7.446
98644SOL    HW197771   4.608   9.226   7.428
98644SOL    HW297772   4.728   9.313   7.396
98645SOL     OW97773   4.653   1.771   0.330
98645SOL    HW197774   4.693   1.727   0.256
98645SOL    HW297775   4.673   1.715   0.405
98646SOL     OW97776   0.480   3.464   7.229
98646SOL    HW197777   0.543   3.536   7.242
98646SOL    HW297778   0.514   3.417   7.152
98647SOL     OW97779   1.630   5.588   1.650
98647SOL    HW197780   1.685   5.627   1.718
98647SOL    HW297781   1.540   5.607   1.678
98648SOL     OW97782  13.990  12.849   6.825
98648SOL    HW197783  14.056  12.880   6.764
98648SOL    HW297784  13.916  12.822   6.770
98649SOL     OW97785  13.255   9.678  11.301
98649SOL    HW197786  13.265   9.592  11.259
98649SOL    HW297787  13.221   9.734  11.232
98650SOL     OW97788  10.647   0.639   6.789
98650SOL    HW197789  10.718   0.625   6.726
98650SOL    HW297790  10.679   0.598   6.869
98651SOL     OW97791   7.796  12.901  10.002
98651SOL    HW197792   7.737  12.973  10.021
98651SOL    HW297793   7.774  12.834  10.068
98652SOL     OW97794   2.177  10.261  11.119
98652SOL    HW197795   2.140  10.175  11.140
98652SOL    HW297796   2.242  10.275  11.187
98653SOL     OW97797   2.047   4.769   5.682
98653SOL    HW197798   2.002   4.685   5.687
98653SOL    HW297799   2.118   4.763   5.746
98654SOL     OW97800  11.204   8.704   9.839
98654SOL    HW197801  11.210   8.764   9.914
98654SOL    HW297802  11.198   8.762   9.763
98655SOL     OW97803  14.257  11.695   9.418
98655SOL    HW197804  14.237  11.752   9.344
98655SOL    HW297805  14.258  11.753   9.494
98656SOL     OW97806   5.398   0.292   5.200
98656SOL    HW197807   5.489   0.300   5.171
98656SOL    HW297808   5.358   0.375   5.175
98657SOL     OW97809   1.723   6.866   7.040
98657SOL    HW197810   1.811   6.901   7.054
98657SOL    HW297811   1.671   6.900   7.113
98658SOL     OW97812   2.229   8.494  13.759
98658SOL    HW197813   2.231   8.434  13.684
98658SOL    HW297814   2.285   8.452  13.824
98659SOL     OW97815  10.497   7.038   4.426
98659SOL    HW197816  10.512   6.952   4.387
98659SOL    HW297817  10.530   7.100   4.361
98660SOL     OW97818   1.795   9.145   2.524
98660SOL    HW197819   1.711   9.119   2.561
98660SOL    HW297820   1.850   9.067   2.531
98661SOL     OW97821   6.585   2.743   4.811
98661SOL    HW197822   6.673   2.717   4.785
98661SOL    HW297823   6.598   2.823   4.862
98662SOL     OW97824   0.043   3.686  12.210
98662SOL    HW197825  14.827   3.659  12.216
98662SOL    HW297826   0.086   3.642  12.284
98663SOL     OW97827   0.659   9.586  13.206
98663SOL    HW197828   0.646   9.504  13.253
98663SOL    HW297829   0.715   9.639  13.263
98664SOL     OW97830   4.668  14.597  14.612
98664SOL    HW197831   4.650  14.690  14.624
98664SOL    HW297832   4.714  14.571  14.691
98665SOL     OW97833  13.351   0.691   5.297
98665SOL    HW197834  13.340   0.756   5.228
98665SOL    HW297835  13.263   0.677   5.331
98666SOL     OW97836   0.839  14.566  11.760
98666SOL    HW197837   0.743  14.564  11.769
98666SOL    HW297838   0.868  14.482  11.795
98667SOL     OW97839   3.178  12.515   0.199
98667SOL    HW197840   3.178  12.601   0.157
98667SOL    HW297841   3.200  12.532   0.290
98668SOL     OW97842  11.813   1.509   4.748
98668SOL    HW197843  11.738   1.450   4.753
98668SOL    HW297844  11.791   1.571   4.680
98669SOL     OW97845   6.415  11.723   8.944
98669SOL    HW197846   6.428  11.673   8.864
98669SOL    HW297847   6.320  11.717   8.961
98670SOL     OW97848   0.348   3.853   8.295
98670SOL    HW197849   0.330   3.906   8.217
98670SOL    HW297850   0.430   3.808   8.274
98671SOL     OW97851   8.015   0.314   1.935
98671SOL    HW197852   7.933   0.265   1.937
98671SOL    HW297853   8.076   0.261   1.985
98672SOL     OW97854  12.446  11.209   6.188
98672SOL    HW197855  12.449  11.305   6.182
98672SOL    HW297856  12.437  11.192   6.282
98673SOL     OW97857  12.975   9.198  11.233
98673SOL    HW197858  12.951   9.261  11.165
98673SOL    HW297859  13.003   9.121  11.184
98674SOL     OW97860  14.226  12.859  12.263
98674SOL    HW197861  14.175  12.934  12.232
98674SOL    HW297862  14.248  12.811  12.183
98675SOL     OW97863   3.140   0.617   1.748
98675SOL    HW197864   3.178   0.580   1.827
98675SOL    HW297865   3.185   0.701   1.736
98676SOL     OW97866   2.088   8.804  10.973
98676SOL    HW197867   2.130   8.891  10.977
98676SOL    HW297868   2.060   8.796  10.882
98677SOL     OW97869   8.693  13.689   0.420
98677SOL    HW197870   8.734  13.621   0.366
98677SOL    HW297871   8.661  13.642   0.497
98678SOL     OW97872   1.146   0.730   7.177
98678SOL    HW197873   1.198   0.654   7.202
98678SOL    HW297874   1.071   0.692   7.131
98679SOL     OW97875  12.906   0.006  13.618
98679SOL    HW197876  12.902   0.076  13.553
98679SOL    HW297877  12.999  14.858  13.621
98680SOL     OW97878   4.987  12.857   4.674
98680SOL    HW197879   4.898  12.892   4.666
98680SOL    HW297880   5.016  12.884   4.761
98681SOL     OW97881  12.328   6.405   6.676
98681SOL    HW197882  12.318   6.496   6.705
98681SOL    HW297883  12.387   6.411   6.601
98682SOL     OW97884   4.257   5.246  14.770
98682SOL    HW197885   4.295   5.329  14.740
98682SOL    HW297886   4.178   5.272  14.818
98683SOL     OW97887   3.792  11.054   6.542
98683SOL    HW197888   3.804  11.080   6.451
98683SOL    HW297889   3.752  10.967   6.537
98684SOL     OW97890   1.644   1.014  14.854
98684SOL    HW197891   1.688   1.082   0.029
98684SOL    HW297892   1.636   0.940   0.038
98685SOL     OW97893   7.538  12.816  12.450
98685SOL    HW197894   7.617  12.834  12.398
98685SOL    HW297895   7.504  12.903  12.473
98686SOL     OW97896   9.197   8.011   0.981
98686SOL    HW197897   9.162   8.048   1.062
98686SOL    HW297898   9.291   8.006   0.996
98687SOL     OW97899   3.948  11.615   8.807
98687SOL    HW197900   3.904  11.676   8.748
98687SOL    HW297901   3.882  11.593   8.872
98688SOL     OW97902  11.552  14.800  10.359
98688SOL    HW197903  11.630  14.749  10.380
98688SOL    HW297904  11.575   0.014  10.382
98689SOL     OW97905   8.579   2.638   4.494
98689SOL    HW197906   8.502   2.582   4.498
98689SOL    HW297907   8.649   2.584   4.531
98690SOL     OW97908  13.776   1.791   3.780
98690SOL    HW197909  13.691   1.748   3.776
98690SOL    HW297910  13.819   1.753   3.856
98691SOL     OW97911   0.751  10.981  11.510
98691SOL    HW197912   0.662  10.997  11.478
98691SOL    HW297913   0.749  11.007  11.602
98692SOL     OW97914   0.517   0.310  11.753
98692SOL    HW197915   0.481   0.380  11.699
98692SOL    HW297916   0.441   0.276  11.801
98693SOL     OW97917  12.963  12.578  14.683
98693SOL    HW197918  12.907  12.639  14.634
98693SOL    HW297919  12.943  12.492  14.645
98694SOL     OW97920   3.675   3.373   8.008
98694SOL    HW197921   3.582   3.385   8.027
98694SOL    HW297922   3.720   3.418   8.080
98695SOL     OW97923   3.811   0.288   6.322
98695SOL    HW197924   3.720   0.301   6.293
98695SOL    HW297925   3.814   0.333   6.407
98696SOL     OW97926   6.162   0.419   6.258
98696SOL    HW197927   6.233   0.437   6.319
98696SOL    HW297928   6.158   0.496   6.202
98697SOL     OW97929   9.178   9.167   3.689
98697SOL    HW197930   9.109   9.207   3.636
98697SOL    HW297931   9.153   9.075   3.694
98698SOL     OW97932   5.163  11.095   9.109
98698SOL    HW197933   5.093  11.157   9.132
98698SOL    HW297934   5.144  11.017   9.160
98699SOL     OW97935   3.943   3.558   0.553
98699SOL    HW197936   3.894   3.577   0.633
98699SOL    HW297937   3.911   3.622   0.490
98700SOL     OW97938   1.528   2.990   1.047
98700SOL    HW197939   1.506   2.904   1.011
98700SOL    HW297940   1.544   2.974   1.140
98701SOL     OW97941   3.183   7.090   3.217
98701SOL    HW197942   3.112   7.153   3.231
98701SOL    HW297943   3.218   7.073   3.304
98702SOL     OW97944  14.201   8.443   4.337
98702SOL    HW197945  14.219   8.419   4.428
98702SOL    HW297946  14.269   8.507   4.315
98703SOL     OW97947   1.096   0.335   7.211
98703SOL    HW197948   1.184   0.348   7.175
98703SOL    HW297949   1.040   0.329   7.134
98704SOL     OW97950   8.359   5.245   5.867
98704SOL    HW197951   8.418   5.188   5.916
98704SOL    HW297952   8.390   5.239   5.776
98705SOL     OW97953   5.077   4.148  10.425
98705SOL    HW197954   5.124   4.193  10.496
98705SOL    HW297955   4.985   4.161  10.446
98706SOL     OW97956   2.982   8.484   3.854
98706SOL    HW197957   3.008   8.571   3.882
98706SOL    HW297958   3.052   8.455   3.795
98707SOL     OW97959  14.858   2.081  13.069
98707SOL    HW197960   0.059   2.134  13.049
98707SOL    HW297961  14.789   2.145  13.087
98708SOL     OW97962  11.521   3.485   2.704
98708SOL    HW197963  11.494   3.563   2.657
98708SOL    HW297964  11.536   3.514   2.793
98709SOL     OW97965  11.547   1.068  10.580
98709SOL    HW197966  11.481   1.045  10.514
98709SOL    HW297967  11.577   1.155  10.554
98710SOL     OW97968   7.053   0.892  13.262
98710SOL    HW197969   7.121   0.929  13.206
98710SOL    HW297970   7.017   0.968  13.309
98711SOL     OW97971   5.585   8.024  12.463
98711SOL    HW197972   5.623   8.102  12.423
98711SOL    HW297973   5.518   7.996  12.401
98712SOL     OW97974  10.549   4.344  13.584
98712SOL    HW197975  10.557   4.352  13.679
98712SOL    HW297976  10.533   4.434  13.554
98713SOL     OW97977  14.521   1.215  14.659
98713SOL    HW197978  14.558   1.269  14.589
98713SOL    HW297979  14.525   1.271  14.737
98714SOL     OW97980   7.577   6.308   1.482
98714SOL    HW197981   7.595   6.319   1.576
98714SOL    HW297982   7.482   6.295   1.477
98715SOL     OW97983  11.267   6.172  13.363
98715SOL    HW197984  11.310   6.109  13.421
98715SOL    HW297985  11.321   6.251  13.370
98716SOL     OW97986   4.491   4.757   5.542
98716SOL    HW197987   4.490   4.683   5.481
98716SOL    HW297988   4.574   4.800   5.525
98717SOL     OW97989   6.986  12.034   1.918
98717SOL    HW197990   7.063  12.064   1.967
98717SOL    HW297991   6.920  12.101   1.934
98718SOL     OW97992   7.998   8.540  12.473
98718SOL    HW197993   7.926   8.477  12.466
98718SOL    HW297994   8.077   8.487  12.469
98719SOL     OW97995   9.276  11.076  12.311
98719SOL    HW197996   9.229  11.138  12.366
98719SOL    HW297997   9.273  11.115  12.223
98720SOL     OW97998   1.644   8.184  11.939
98720SOL    HW197999   1.566   8.237  11.952
98720SOL    HW298000   1.631   8.107  11.995
98721SOL     OW98001   6.092   8.639   6.594
98721SOL    HW198002   6.180   8.606   6.581
98721SOL    HW298003   6.080   8.705   6.525
98722SOL     OW98004   9.619  12.906   1.401
98722SOL    HW198005   9.657  12.943   1.481
98722SOL    HW298006   9.694  12.896   1.342
98723SOL     OW98007   5.378   3.696  11.762
98723SOL    HW198008   5.322   3.723  11.835
98723SOL    HW298009   5.455   3.658  11.804
98724SOL     OW98010   5.351   8.781  12.467
98724SOL    HW198011   5.433   8.733  12.466
98724SOL    HW298012   5.317   8.770  12.556
98725SOL     OW98013  10.440   6.828   0.398
98725SOL    HW198014  10.438   6.779   0.480
98725SOL    HW298015  10.526   6.810   0.361
98726SOL     OW98016   9.829  12.433  11.481
98726SOL    HW198017   9.806  12.525  11.491
98726SOL    HW298018   9.888  12.431  11.406
98727SOL     OW98019   3.825  13.647   7.520
98727SOL    HW198020   3.851  13.670   7.609
98727SOL    HW298021   3.823  13.730   7.473
98728SOL     OW98022   0.398   1.943   8.551
98728SOL    HW198023   0.433   2.030   8.573
98728SOL    HW298024   0.445   1.883   8.609
98729SOL     OW98025   9.023   4.584   9.807
98729SOL    HW198026   8.972   4.588   9.888
98729SOL    HW298027   9.111   4.559   9.835
98730SOL     OW98028   3.063  10.908   7.208
98730SOL    HW198029   3.116  10.972   7.161
98730SOL    HW298030   3.051  10.837   7.145
98731SOL     OW98031  14.609   0.271   5.752
98731SOL    HW198032  14.651   0.195   5.711
98731SOL    HW298033  14.587   0.329   5.679
98732SOL     OW98034   3.153   9.673  14.535
98732SOL    HW198035   3.168   9.591  14.582
98732SOL    HW298036   3.120   9.734  14.601
98733SOL     OW98037   9.912   5.203   0.096
98733SOL    HW198038   9.835   5.245   0.136
98733SOL    HW298039   9.977   5.272   0.090
98734SOL     OW98040   3.911   5.589   4.253
98734SOL    HW198041   3.853   5.527   4.208
98734SOL    HW298042   3.995   5.543   4.258
98735SOL     OW98043   7.288   3.989   9.051
98735SOL    HW198044   7.228   4.064   9.062
98735SOL    HW298045   7.322   4.000   8.962
98736SOL     OW98046  12.961   2.739   7.467
98736SOL    HW198047  13.031   2.674   7.478
98736SOL    HW298048  12.951   2.748   7.373
98737SOL     OW98049   0.655   6.082   3.168
98737SOL    HW198050   0.719   6.107   3.102
98737SOL    HW298051   0.619   5.999   3.136
98738SOL     OW98052   2.500   0.084  11.343
98738SOL    HW198053   2.487   0.173  11.312
98738SOL    HW298054   2.430   0.033  11.302
98739SOL     OW98055  10.110   2.751   0.888
98739SOL    HW198056  10.033   2.738   0.943
98739SOL    HW298057  10.104   2.680   0.823
98740SOL     OW98058  10.778   8.094  14.013
98740SOL    HW198059  10.733   8.149  13.950
98740SOL    HW298060  10.862   8.073  13.972
98741SOL     OW98061  10.450   3.012   6.490
98741SOL    HW198062  10.489   3.035   6.575
98741SOL    HW298063  10.419   2.922   6.502
98742SOL     OW98064   3.081  10.381   3.779
98742SOL    HW198065   3.002  10.366   3.832
98742SOL    HW298066   3.122  10.457   3.819
98743SOL     OW98067  14.647   6.153   6.699
98743SOL    HW198068  14.578   6.195   6.750
98743SOL    HW298069  14.697   6.103   6.764
98744SOL     OW98070   8.464   9.915   5.938
98744SOL    HW198071   8.510   9.887   5.859
98744SOL    HW298072   8.463   9.837   5.994
98745SOL     OW98073  12.160   6.691  13.478
98745SOL    HW198074  12.138   6.738  13.558
98745SOL    HW298075  12.089   6.712  13.417
98746SOL     OW98076   0.615   7.501  12.038
98746SOL    HW198077   0.623   7.587  12.078
98746SOL    HW298078   0.551   7.513  11.968
98747SOL     OW98079   9.885   2.664  10.819
98747SOL    HW198080   9.832   2.586  10.801
98747SOL    HW298081   9.883   2.673  10.914
98748SOL     OW98082   4.655   9.952  10.649
98748SOL    HW198083   4.576  10.004  10.637
98748SOL    HW298084   4.726  10.016  10.655
98749SOL     OW98085   1.399   7.900  14.271
98749SOL    HW198086   1.362   7.812  14.283
98749SOL    HW298087   1.468   7.906  14.338
98750SOL     OW98088  11.279   9.301   5.522
98750SOL    HW198089  11.189   9.332   5.533
98750SOL    HW298090  11.302   9.266   5.608
98751SOL     OW98091   2.640   1.979  12.941
98751SOL    HW198092   2.651   2.030  13.021
98751SOL    HW298093   2.626   2.045  12.873
98752SOL     OW98094   4.833   0.924   1.009
98752SOL    HW198095   4.873   0.993   0.956
98752SOL    HW298096   4.906   0.866   1.031
98753SOL     OW98097   8.470   6.463   7.349
98753SOL    HW198098   8.425   6.538   7.310
98753SOL    HW298099   8.406   6.392   7.345
98754SOL     OW98100   7.405   0.710  10.766
98754SOL    HW198101   7.490   0.684  10.804
98754SOL    HW298102   7.427   0.781  10.706
98755SOL     OW98103   7.631   4.564  10.671
98755SOL    HW198104   7.539   4.541  10.685
98755SOL    HW298105   7.640   4.571  10.576
98756SOL     OW98106  11.501   2.021   0.053
98756SOL    HW198107  11.419   2.070   0.050
98756SOL    HW298108  11.487   1.956   0.122
98757SOL     OW98109  11.427  11.909   4.204
98757SOL    HW198110  11.509  11.900   4.252
98757SOL    HW298111  11.368  11.953   4.265
98758SOL     OW98112  13.732   3.652   1.610
98758SOL    HW198113  13.785   3.572   1.616
98758SOL    HW298114  13.726   3.669   1.516
98759SOL     OW98115  11.644   8.038   4.370
98759SOL    HW198116  11.737   8.015   4.368
98759SOL    HW298117  11.599   7.955   4.385
98760SOL     OW98118  13.027   1.687   7.230
98760SOL    HW198119  12.982   1.757   7.278
98760SOL    HW298120  13.119   1.697   7.254
98761SOL     OW98121  11.199   3.984   5.029
98761SOL    HW198122  11.287   3.993   5.065
98761SOL    HW298123  11.206   3.912   4.966
98762SOL     OW98124  13.425   5.331   8.071
98762SOL    HW198125  13.481   5.360   8.000
98762SOL    HW298126  13.336   5.339   8.037
98763SOL     OW98127   3.844   5.639  10.470
98763SOL    HW198128   3.897   5.568  10.435
98763SOL    HW298129   3.754   5.617  10.445
98764SOL     OW98130   2.028   4.173   0.206
98764SOL    HW198131   2.010   4.239   0.273
98764SOL    HW298132   1.945   4.164   0.159
98765SOL     OW98133  13.108   6.081  14.826
98765SOL    HW198134  13.142   6.158  14.780
98765SOL    HW298135  13.156   6.007  14.788
98766SOL     OW98136   2.317   8.937   8.069
98766SOL    HW198137   2.308   8.944   7.974
98766SOL    HW298138   2.390   8.875   8.081
98767SOL     OW98139   6.839   1.679  10.186
98767SOL    HW198140   6.830   1.584  10.192
98767SOL    HW298141   6.883   1.694  10.103
98768SOL     OW98142   6.453  10.796  14.126
98768SOL    HW198143   6.542  10.803  14.160
98768SOL    HW298144   6.431  10.703  14.135
98769SOL     OW98145   4.072   5.931   1.352
98769SOL    HW198146   3.978   5.920   1.364
98769SOL    HW298147   4.081   6.011   1.300
98770SOL     OW98148  14.340   2.186   7.895
98770SOL    HW198149  14.320   2.191   7.988
98770SOL    HW298150  14.404   2.255   7.881
98771SOL     OW98151  14.370  13.143   4.655
98771SOL    HW198152  14.384  13.097   4.739
98771SOL    HW298153  14.434  13.104   4.596
98772SOL     OW98154   4.550   2.916   2.724
98772SOL    HW198155   4.479   2.856   2.701
98772SOL    HW298156   4.629   2.862   2.722
98773SOL     OW98157   6.054  12.235   3.641
98773SOL    HW198158   6.044  12.329   3.623
98773SOL    HW298159   6.142  12.227   3.677
98774SOL     OW98160   1.533   1.609  11.069
98774SOL    HW198161   1.563   1.675  11.132
98774SOL    HW298162   1.554   1.647  10.984
98775SOL     OW98163  11.452  14.233   2.764
98775SOL    HW198164  11.409  14.225   2.679
98775SOL    HW298165  11.536  14.188   2.753
98776SOL     OW98166   6.473  14.713   4.241
98776SOL    HW198167   6.534  14.676   4.306
98776SOL    HW298168   6.404  14.647   4.235
98777SOL     OW98169   2.782   5.011   3.828
98777SOL    HW198170   2.780   5.084   3.890
98777SOL    HW298171   2.873   4.980   3.830
98778SOL     OW98172  11.298   8.768   6.042
98778SOL    HW198173  11.247   8.836   6.000
98778SOL    HW298174  11.266   8.766   6.133
98779SOL     OW98175   6.832  13.291   3.103
98779SOL    HW198176   6.908  13.343   3.127
98779SOL    HW298177   6.781  13.347   3.044
98780SOL     OW98178   2.478   6.464   8.013
98780SOL    HW198179   2.456   6.450   7.921
98780SOL    HW298180   2.502   6.377   8.046
98781SOL     OW98181  10.318   5.353   6.410
98781SOL    HW198182  10.231   5.362   6.448
98781SOL    HW298183  10.375   5.404   6.469
98782SOL     OW98184  14.378  13.831  11.269
98782SOL    HW198185  14.431  13.764  11.312
98782SOL    HW298186  14.375  13.804  11.177
98783SOL     OW98187   7.877   2.508   1.157
98783SOL    HW198188   7.957   2.503   1.210
98783SOL    HW298189   7.869   2.601   1.135
98784SOL     OW98190   7.053   5.386   7.647
98784SOL    HW198191   7.055   5.452   7.716
98784SOL    HW298192   7.125   5.411   7.588
98785SOL     OW98193  12.175   4.666  11.479
98785SOL    HW198194  12.267   4.675  11.455
98785SOL    HW298195  12.177   4.626  11.566
98786SOL     OW98196   0.931   4.118   3.827
98786SOL    HW198197   0.837   4.108   3.815
98786SOL    HW298198   0.961   4.163   3.748
98787SOL     OW98199  14.009  10.322   4.158
98787SOL    HW198200  13.970  10.368   4.232
98787SOL    HW298201  14.028  10.391   4.094
98788SOL     OW98202   8.781  10.365  14.295
98788SOL    HW198203   8.813  10.453  14.277
98788SOL    HW298204   8.743  10.336  14.212
98789SOL     OW98205  12.790   5.797   0.408
98789SOL    HW198206  12.862   5.859   0.406
98789SOL    HW298207  12.749   5.805   0.322
98790SOL     OW98208  14.483  13.310  14.109
98790SOL    HW198209  14.438  13.352  14.182
98790SOL    HW298210  14.468  13.216  14.123
98791SOL     OW98211  10.114   4.295  14.709
98791SOL    HW198212  10.019   4.283  14.717
98791SOL    HW298213  10.123   4.371  14.651
98792SOL     OW98214  11.290   6.027   2.176
98792SOL    HW198215  11.368   6.030   2.231
98792SOL    HW298216  11.307   5.957   2.114
98793SOL     OW98217   7.635   4.631  13.034
98793SOL    HW198218   7.601   4.669  12.952
98793SOL    HW298219   7.640   4.537  13.016
98794SOL     OW98220  10.108   2.515   2.536
98794SOL    HW198221  10.018   2.544   2.524
98794SOL    HW298222  10.158   2.597   2.543
98795SOL     OW98223   8.627  12.849  14.407
98795SOL    HW198224   8.560  12.816  14.468
98795SOL    HW298225   8.625  12.787  14.334
98796SOL     OW98226   4.755   8.530   9.310
98796SOL    HW198227   4.799   8.450   9.340
98796SOL    HW298228   4.784   8.597   9.372
98797SOL     OW98229  12.325   9.315   6.330
98797SOL    HW198230  12.376   9.321   6.411
98797SOL    HW298231  12.323   9.404   6.296
98798SOL     OW98232  12.263   1.971   1.856
98798SOL    HW198233  12.353   1.981   1.888
98798SOL    HW298234  12.265   2.004   1.767
98799SOL     OW98235   3.311   3.538   7.961
98799SOL    HW198236   3.330   3.444   7.960
98799SOL    HW298237   3.240   3.549   7.898
98800SOL     OW98238   8.548  14.077   6.383
98800SOL    HW198239   8.576  14.008   6.323
98800SOL    HW298240   8.629  14.119   6.410
98801SOL     OW98241   2.578   7.711   8.435
98801SOL    HW198242   2.489   7.745   8.429
98801SOL    HW298243   2.568   7.616   8.428
98802SOL     OW98244   7.846  10.623   1.714
98802SOL    HW198245   7.828  10.699   1.769
98802SOL    HW298246   7.938  10.633   1.688
98803SOL     OW98247   8.911   1.242  10.311
98803SOL    HW198248   8.832   1.215  10.359
98803SOL    HW298249   8.976   1.176  10.334
98804SOL     OW98250   9.843  13.281  14.470
98804SOL    HW198251   9.934  13.264  14.492
98804SOL    HW298252   9.795  13.268  14.552
98805SOL     OW98253  11.481   4.333  12.927
98805SOL    HW198254  11.576   4.328  12.925
98805SOL    HW298255  11.458   4.384  12.849
98806SOL     OW98256  13.606   6.069   0.571
98806SOL    HW198257  13.684   6.124   0.581
98806SOL    HW298258  13.551   6.093   0.646
98807SOL     OW98259  13.164   2.468   2.895
98807SOL    HW198260  13.120   2.385   2.880
98807SOL    HW298261  13.200   2.492   2.809
98808SOL     OW98262   5.831   2.881   8.749
98808SOL    HW198263   5.917   2.886   8.706
98808SOL    HW298264   5.798   2.794   8.726
98809SOL     OW98265  13.096   0.347  14.242
98809SOL    HW198266  13.093   0.258  14.279
98809SOL    HW298267  13.025   0.349  14.178
98810SOL     OW98268   3.459   2.773  10.426
98810SOL    HW198269   3.492   2.862  10.443
98810SOL    HW298270   3.513   2.716  10.480
98811SOL     OW98271   3.921   3.441  10.229
98811SOL    HW198272   3.954   3.445  10.319
98811SOL    HW298273   3.996   3.468  10.175
98812SOL     OW98274   5.149   7.118   5.516
98812SOL    HW198275   5.136   7.046   5.578
98812SOL    HW298276   5.236   7.152   5.537
98813SOL     OW98277   5.179  13.047  10.003
98813SOL    HW198278   5.195  13.130   9.959
98813SOL    HW298279   5.181  13.069  10.096
98814SOL     OW98280   1.039   6.289   3.748
98814SOL    HW198281   1.022   6.379   3.774
98814SOL    HW298282   0.956   6.257   3.713
98815SOL     OW98283  13.607   6.782   7.027
98815SOL    HW198284  13.666   6.844   6.984
98815SOL    HW298285  13.643   6.772   7.115
98816SOL     OW98286  11.780   9.303   4.143
98816SOL    HW198287  11.732   9.228   4.179
98816SOL    HW298288  11.756   9.376   4.200
98817SOL     OW98289   9.164   6.185  10.313
98817SOL    HW198290   9.094   6.192  10.379
98817SOL    HW298291   9.124   6.216  10.232
98818SOL     OW98292   6.747   2.680  10.826
98818SOL    HW198293   6.684   2.657  10.757
98818SOL    HW298294   6.805   2.604  10.831
98819SOL     OW98295   2.550   1.915  13.587
98819SOL    HW198296   2.554   1.844  13.523
98819SOL    HW298297   2.485   1.887  13.651
98820SOL     OW98298   3.121   2.772   8.257
98820SOL    HW198299   3.077   2.801   8.336
98820SOL    HW298300   3.193   2.834   8.245
98821SOL     OW98301   5.219   1.985   9.954
98821SOL    HW198302   5.243   1.935   9.876
98821SOL    HW298303   5.300   2.028   9.981
98822SOL     OW98304   8.234  13.367   5.306
98822SOL    HW198305   8.291  13.399   5.376
98822SOL    HW298306   8.256  13.424   5.231
98823SOL     OW98307  13.052   6.562  10.457
98823SOL    HW198308  12.978   6.584  10.513
98823SOL    HW298309  13.012   6.525  10.378
98824SOL     OW98310   2.160   9.514  12.974
98824SOL    HW198311   2.197   9.431  13.003
98824SOL    HW298312   2.232   9.577  12.983
98825SOL     OW98313  14.135  10.834  11.853
98825SOL    HW198314  14.116  10.786  11.934
98825SOL    HW298315  14.102  10.922  11.870
98826SOL     OW98316   3.449  12.842  13.205
98826SOL    HW198317   3.515  12.865  13.270
98826SOL    HW298318   3.481  12.761  13.165
98827SOL     OW98319  14.780   1.815  12.835
98827SOL    HW198320  14.731   1.867  12.770
98827SOL    HW298321  14.731   1.827  12.916
98828SOL     OW98322  12.352  13.385  14.764
98828SOL    HW198323  12.345  13.427  14.850
98828SOL    HW298324  12.267  13.401  14.723
98829SOL     OW98325   7.646  10.181   9.338
98829SOL    HW198326   7.551  10.186   9.329
98829SOL    HW298327   7.667  10.248   9.403
98830SOL     OW98328   4.181   3.182  11.060
98830SOL    HW198329   4.247   3.156  10.996
98830SOL    HW298330   4.132   3.102  11.078
98831SOL     OW98331   0.921  10.769   5.609
98831SOL    HW198332   1.015  10.785   5.621
98831SOL    HW298333   0.878  10.838   5.659
98832SOL     OW98334   7.951  10.206   1.944
98832SOL    HW198335   7.910  10.218   1.858
98832SOL    HW298336   8.035  10.165   1.925
98833SOL     OW98337  11.802  12.514   6.833
98833SOL    HW198338  11.727  12.510   6.892
98833SOL    HW298339  11.768  12.487   6.748
98834SOL     OW98340   0.452   5.007   6.466
98834SOL    HW198341   0.400   5.051   6.400
98834SOL    HW298342   0.526   4.970   6.418
98835SOL     OW98343  14.200   2.268   3.625
98835SOL    HW198344  14.120   2.215   3.636
98835SOL    HW298345  14.177   2.331   3.557
98836SOL     OW98346   7.337  11.529   2.001
98836SOL    HW198347   7.385  11.573   2.071
98836SOL    HW298348   7.261  11.490   2.045
98837SOL     OW98349   9.610  11.336  14.310
98837SOL    HW198350   9.697  11.312  14.278
98837SOL    HW298351   9.624  11.361  14.401
98838SOL     OW98352  14.415   6.982   5.657
98838SOL    HW198353  14.405   7.077   5.648
98838SOL    HW298354  14.462   6.970   5.739
98839SOL     OW98355   6.054   7.582  13.298
98839SOL    HW198356   5.990   7.565  13.366
98839SOL    HW298357   6.132   7.533  13.326
98840SOL     OW98358  12.431   9.375  14.542
98840SOL    HW198359  12.353   9.422  14.511
98840SOL    HW298360  12.493   9.382  14.470
98841SOL     OW98361   4.883   4.967  13.501
98841SOL    HW198362   4.848   4.887  13.462
98841SOL    HW298363   4.965   4.939  13.543
98842SOL     OW98364   2.743   5.247   2.756
98842SOL    HW198365   2.830   5.214   2.732
98842SOL    HW298366   2.699   5.173   2.796
98843SOL     OW98367   6.514   5.689  10.915
98843SOL    HW198368   6.440   5.676  10.974
98843SOL    HW298369   6.496   5.633  10.840
98844SOL     OW98370  13.614   5.950  13.650
98844SOL    HW198371  13.540   5.896  13.622
98844SOL    HW298372  13.576   6.037  13.662
98845SOL     OW98373   7.614   0.334  12.876
98845SOL    HW198374   7.608   0.281  12.797
98845SOL    HW298375   7.604   0.272  12.948
98846SOL     OW98376   2.775  11.254   0.660
98846SOL    HW198377   2.803  11.212   0.742
98846SOL    HW298378   2.813  11.199   0.591
98847SOL     OW98379  14.389   7.604   5.547
98847SOL    HW198380  14.380   7.562   5.633
98847SOL    HW298381  14.473   7.651   5.553
98848SOL     OW98382   4.079   1.681   9.168
98848SOL    HW198383   4.091   1.655   9.077
98848SOL    HW298384   4.135   1.758   9.178
98849SOL     OW98385  10.559  11.344  11.832
98849SOL    HW198386  10.501  11.325  11.758
98849SOL    HW298387  10.513  11.411  11.883
98850SOL     OW98388   5.308  14.049   7.799
98850SOL    HW198389   5.388  14.051   7.746
98850SOL    HW298390   5.295  13.956   7.818
98851SOL     OW98391   9.800   2.708   4.349
98851SOL    HW198392   9.849   2.771   4.296
98851SOL    HW298393   9.837   2.717   4.437
98852SOL     OW98394   4.825   4.532   9.896
98852SOL    HW198395   4.918   4.547   9.883
98852SOL    HW298396   4.795   4.607   9.948
98853SOL     OW98397   8.440   1.666  14.509
98853SOL    HW198398   8.432   1.716  14.427
98853SOL    HW298399   8.364   1.608  14.509
98854SOL     OW98400   9.423   5.048   0.342
98854SOL    HW198401   9.401   5.014   0.429
98854SOL    HW298402   9.517   5.066   0.346
98855SOL     OW98403   7.758  12.161   9.998
98855SOL    HW198404   7.784  12.071   9.976
98855SOL    HW298405   7.672  12.170   9.958
98856SOL     OW98406   8.289   9.687  11.015
98856SOL    HW198407   8.338   9.619  10.968
98856SOL    HW298408   8.198   9.657  11.013
98857SOL     OW98409   6.954  13.021   6.636
98857SOL    HW198410   6.999  13.057   6.559
98857SOL    HW298411   6.893  13.089   6.663
98858SOL     OW98412   1.420  13.234  13.846
98858SOL    HW198413   1.368  13.209  13.770
98858SOL    HW298414   1.394  13.172  13.915
98859SOL     OW98415   9.082   8.668   8.081
98859SOL    HW198416   9.138   8.624   8.145
98859SOL    HW298417   9.030   8.597   8.043
98860SOL     OW98418   5.045  10.398   0.720
98860SOL    HW198419   5.073  10.486   0.744
98860SOL    HW298420   5.124  10.357   0.683
98861SOL     OW98421  11.193  12.334   1.400
98861SOL    HW198422  11.282  12.368   1.391
98861SOL    HW298423  11.202  12.258   1.457
98862SOL     OW98424   3.537  12.355  10.525
98862SOL    HW198425   3.521  12.335  10.433
98862SOL    HW298426   3.603  12.291  10.553
98863SOL     OW98427   1.731   9.896   2.495
98863SOL    HW198428   1.786   9.934   2.427
98863SOL    HW298429   1.789   9.889   2.571
98864SOL     OW98430   2.499   3.463  10.853
98864SOL    HW198431   2.492   3.416  10.770
98864SOL    HW298432   2.471   3.552  10.833
98865SOL     OW98433  13.893  13.095   5.627
98865SOL    HW198434  13.810  13.077   5.581
98865SOL    HW298435  13.902  13.022   5.689
98866SOL     OW98436   5.402   2.379   3.889
98866SOL    HW198437   5.424   2.287   3.904
98866SOL    HW298438   5.354   2.405   3.968
98867SOL     OW98439   8.604   8.374   8.532
98867SOL    HW198440   8.604   8.395   8.438
98867SOL    HW298441   8.681   8.319   8.544
98868SOL     OW98442   8.302  14.040   8.067
98868SOL    HW198443   8.385  13.996   8.084
98868SOL    HW298444   8.298  14.048   7.972
98869SOL     OW98445   3.199   7.809  12.454
98869SOL    HW198446   3.165   7.725  12.422
98869SOL    HW298447   3.287   7.788  12.485
98870SOL     OW98448   7.105   0.905  11.974
98870SOL    HW198449   7.075   0.918  11.884
98870SOL    HW298450   7.156   0.824  11.971
98871SOL     OW98451   9.984   1.581  14.454
98871SOL    HW198452  10.017   1.518  14.390
98871SOL    HW298453   9.971   1.661  14.403
98872SOL     OW98454   2.203   7.183   3.929
98872SOL    HW198455   2.171   7.262   3.885
98872SOL    HW298456   2.153   7.111   3.889
98873SOL     OW98457   1.576   4.767  10.263
98873SOL    HW198458   1.621   4.851  10.267
98873SOL    HW298459   1.517   4.774  10.188
98874SOL     OW98460  11.083  13.834   2.883
98874SOL    HW198461  11.084  13.774   2.809
98874SOL    HW298462  11.166  13.817   2.929
98875SOL     OW98463  14.121  11.954  10.979
98875SOL    HW198464  14.067  11.941  11.057
98875SOL    HW298465  14.200  11.998  11.011
98876SOL     OW98466  12.524   7.721  10.263
98876SOL    HW198467  12.611   7.688  10.286
98876SOL    HW298468  12.534   7.816  10.266
98877SOL     OW98469   4.443  14.150   7.285
98877SOL    HW198470   4.417  14.058   7.283
98877SOL    HW298471   4.363  14.198   7.266
98878SOL     OW98472   1.557   5.773  12.154
98878SOL    HW198473   1.631   5.717  12.129
98878SOL    HW298474   1.513   5.792  12.071
98879SOL     OW98475  13.349   6.272  10.435
98879SOL    HW198476  13.369   6.289  10.526
98879SOL    HW298477  13.422   6.309  10.386
98880SOL     OW98478   3.156   5.461   3.423
98880SOL    HW198479   3.182   5.439   3.333
98880SOL    HW298480   3.210   5.404   3.478
98881SOL     OW98481   9.892   4.150   6.933
98881SOL    HW198482   9.893   4.141   7.029
98881SOL    HW298483   9.983   4.138   6.907
98882SOL     OW98484  10.511  12.924  10.792
98882SOL    HW198485  10.579  12.908  10.727
98882SOL    HW298486  10.454  12.847  10.786
98883SOL     OW98487  13.906  14.690   0.877
98883SOL    HW198488  13.944  14.607   0.906
98883SOL    HW298489  13.839  14.710   0.942
98884SOL     OW98490   4.949  12.824   4.406
98884SOL    HW198491   4.990  12.749   4.363
98884SOL    HW298492   4.982  12.821   4.496
98885SOL     OW98493   7.970   6.060   8.143
98885SOL    HW198494   8.048   6.024   8.184
98885SOL    HW298495   8.001   6.138   8.097
98886SOL     OW98496  10.260  13.282  11.211
98886SOL    HW198497  10.349  13.275  11.177
98886SOL    HW298498  10.259  13.227  11.289
98887SOL     OW98499  10.014  14.144  10.410
98887SOL    HW198500  10.081  14.204  10.375
98887SOL    HW298501  10.021  14.066  10.355
98888SOL     OW98502   0.316   7.746   2.738
98888SOL    HW198503   0.279   7.834   2.727
98888SOL    HW298504   0.239   7.688   2.741
98889SOL     OW98505  12.923   1.155   9.106
98889SOL    HW198506  13.005   1.180   9.147
98889SOL    HW298507  12.890   1.236   9.066
98890SOL     OW98508   4.215  13.079   7.248
98890SOL    HW198509   4.297  13.046   7.211
98890SOL    HW298510   4.219  13.174   7.236
98891SOL     OW98511   2.323  10.847   5.380
98891SOL    HW198512   2.330  10.801   5.464
98891SOL    HW298513   2.256  10.913   5.394
98892SOL     OW98514   4.299   7.059   9.385
98892SOL    HW198515   4.394   7.061   9.372
98892SOL    HW298516   4.281   6.974   9.424
98893SOL     OW98517   3.256   9.990   6.389
98893SOL    HW198518   3.227  10.025   6.305
98893SOL    HW298519   3.176   9.959   6.431
98894SOL     OW98520  13.102   6.482  12.048
98894SOL    HW198521  13.145   6.397  12.042
98894SOL    HW298522  13.072   6.487  12.139
98895SOL     OW98523   3.168  10.316  10.038
98895SOL    HW198524   3.073  10.312  10.024
98895SOL    HW298525   3.204  10.333   9.951
98896SOL     OW98526   5.641   9.471   9.050
98896SOL    HW198527   5.577   9.422   8.998
98896SOL    HW298528   5.623   9.445   9.141
98897SOL     OW98529   8.060   8.033  10.403
98897SOL    HW198530   8.150   8.029  10.370
98897SOL    HW298531   8.021   7.951  10.374
98898SOL     OW98532   0.813  10.045  10.213
98898SOL    HW198533   0.893  10.004  10.246
98898SOL    HW298534   0.790   9.995  10.135
98899SOL     OW98535  14.079   7.280  11.479
98899SOL    HW198536  14.148   7.250  11.420
98899SOL    HW298537  14.123   7.293  11.563
98900SOL     OW98538   6.047   4.968  14.726
98900SOL    HW198539   6.076   4.916  14.651
98900SOL    HW298540   5.998   5.040  14.688
98901SOL     OW98541  10.519   2.619   3.174
98901SOL    HW198542  10.459   2.544   3.175
98901SOL    HW298543  10.461   2.695   3.165
98902SOL     OW98544   2.919   6.612  10.989
98902SOL    HW198545   2.915   6.619  10.894
98902SOL    HW298546   2.922   6.518  11.006
98903SOL     OW98547   9.338  10.588  14.686
98903SOL    HW198548   9.417  10.551  14.648
98903SOL    HW298549   9.322  10.536  14.765
98904SOL     OW98550   0.614   0.994   6.747
98904SOL    HW198551   0.661   0.912   6.757
98904SOL    HW298552   0.570   1.007   6.831
98905SOL     OW98553  11.536   9.302   8.775
98905SOL    HW198554  11.536   9.215   8.816
98905SOL    HW298555  11.593   9.292   8.699
98906SOL     OW98556  10.419   5.974   6.354
98906SOL    HW198557  10.343   5.928   6.320
98906SOL    HW298558  10.444   6.034   6.283
98907SOL     OW98559  10.112  14.739  11.400
98907SOL    HW198560  10.134  14.713  11.310
98907SOL    HW298561  10.189  14.786  11.430
98908SOL     OW98562  10.207   9.440   8.486
98908SOL    HW198563  10.187   9.391   8.406
98908SOL    HW298564  10.174   9.528   8.469
98909SOL     OW98565   5.969  13.631   1.880
98909SOL    HW198566   6.022  13.559   1.914
98909SOL    HW298567   5.967  13.617   1.785
98910SOL     OW98568   7.843   0.366  13.190
98910SOL    HW198569   7.836   0.302  13.119
98910SOL    HW298570   7.763   0.353  13.241
98911SOL     OW98571   6.396   0.429   8.566
98911SOL    HW198572   6.449   0.459   8.641
98911SOL    HW298573   6.435   0.474   8.491
98912SOL     OW98574   7.691   4.210   4.614
98912SOL    HW198575   7.623   4.262   4.656
98912SOL    HW298576   7.693   4.128   4.663
98913SOL     OW98577   7.594  11.927   4.917
98913SOL    HW198578   7.531  11.862   4.948
98913SOL    HW298579   7.614  11.980   4.995
98914SOL     OW98580   0.316  10.376  14.157
98914SOL    HW198581   0.284  10.456  14.198
98914SOL    HW298582   0.408  10.395  14.137
98915SOL     OW98583   2.914   2.285   2.698
98915SOL    HW198584   2.893   2.321   2.612
98915SOL    HW298585   2.988   2.338   2.728
98916SOL     OW98586  13.405  11.130  10.408
98916SOL    HW198587  13.340  11.067  10.377
98916SOL    HW298588  13.438  11.092  10.490
98917SOL     OW98589   4.022   9.802  13.797
98917SOL    HW198590   4.074   9.725  13.776
98917SOL    HW298591   4.004   9.843  13.713
98918SOL     OW98592  12.943   5.878   9.911
98918SOL    HW198593  12.958   5.801   9.965
98918SOL    HW298594  12.918   5.947   9.973
98919SOL     OW98595  12.639   0.954   4.413
98919SOL    HW198596  12.590   0.880   4.448
98919SOL    HW298597  12.585   1.030   4.433
98920SOL     OW98598   6.978   4.193   0.181
98920SOL    HW198599   6.958   4.194   0.087
98920SOL    HW298600   6.893   4.197   0.223
98921SOL     OW98601   7.997   7.787   9.917
98921SOL    HW198602   7.970   7.878   9.921
98921SOL    HW298603   7.929   7.739   9.965
98922SOL     OW98604   1.419  12.276  14.654
98922SOL    HW198605   1.354  12.228  14.706
98922SOL    HW298606   1.498  12.277  14.708
98923SOL     OW98607  14.468   3.594   6.401
98923SOL    HW198608  14.542   3.622   6.348
98923SOL    HW298609  14.430   3.521   6.353
98924SOL     OW98610   3.088  10.570   5.143
98924SOL    HW198611   3.168  10.599   5.189
98924SOL    HW298612   3.091  10.475   5.149
98925SOL     OW98613   7.300   8.639   7.823
98925SOL    HW198614   7.291   8.658   7.916
98925SOL    HW298615   7.327   8.722   7.784
98926SOL     OW98616   9.388   5.884   8.610
98926SOL    HW198617   9.467   5.916   8.567
98926SOL    HW298618   9.366   5.952   8.673
98927SOL     OW98619   0.870  13.552   2.434
98927SOL    HW198620   0.866  13.607   2.356
98927SOL    HW298621   0.844  13.465   2.403
98928SOL     OW98622   1.490   3.737  10.505
98928SOL    HW198623   1.499   3.815  10.451
98928SOL    HW298624   1.410   3.752  10.556
98929SOL     OW98625  13.732   3.293   9.419
98929SOL    HW198626  13.728   3.245   9.337
98929SOL    HW298627  13.654   3.348   9.419
98930SOL     OW98628   8.909   4.652   4.261
98930SOL    HW198629   8.984   4.702   4.227
98930SOL    HW298630   8.920   4.565   4.224
98931SOL     OW98631  10.875   5.646   2.094
98931SOL    HW198632  10.795   5.593   2.100
98931SOL    HW298633  10.946   5.586   2.118
98932SOL     OW98634   9.124   0.728   9.358
98932SOL    HW198635   9.203   0.674   9.358
98932SOL    HW298636   9.099   0.734   9.265
98933SOL     OW98637   2.756  11.848   2.547
98933SOL    HW198638   2.819  11.904   2.502
98933SOL    HW298639   2.807  11.804   2.616
98934SOL     OW98640  10.969   2.496  10.891
98934SOL    HW198641  11.031   2.433  10.854
98934SOL    HW298642  11.021   2.574  10.907
98935SOL     OW98643  13.594   5.030  12.066
98935SOL    HW198644  13.637   5.053  12.149
98935SOL    HW298645  13.580   4.936  12.072
98936SOL     OW98646   4.559  14.801   6.825
98936SOL    HW198647   4.486  14.741   6.814
98936SOL    HW298648   4.601  14.806   6.739
98937SOL     OW98649   6.103   0.441   0.212
98937SOL    HW198650   6.042   0.367   0.205
98937SOL    HW298651   6.095   0.486   0.128
98938SOL     OW98652  12.261   1.526   3.695
98938SOL    HW198653  12.309   1.590   3.747
98938SOL    HW298654  12.243   1.454   3.755
98939SOL     OW98655   5.962  11.394   9.301
98939SOL    HW198656   6.041  11.357   9.340
98939SOL    HW298657   5.897  11.324   9.309
98940SOL     OW98658  11.877   0.950   0.457
98940SOL    HW198659  11.951   0.892   0.474
98940SOL    HW298660  11.897   0.990   0.372
98941SOL     OW98661   0.403   5.462   1.716
98941SOL    HW198662   0.486   5.424   1.747
98941SOL    HW298663   0.335   5.409   1.757
98942SOL     OW98664  10.558   8.148   9.075
98942SOL    HW198665  10.554   8.064   9.120
98942SOL    HW298666  10.472   8.158   9.035
98943SOL     OW98667   4.414  11.035   5.365
98943SOL    HW198668   4.421  10.948   5.405
98943SOL    HW298669   4.331  11.069   5.397
98944SOL     OW98670   2.273   6.166  12.148
98944SOL    HW198671   2.341   6.122  12.198
98944SOL    HW298672   2.290   6.143  12.057
98945SOL     OW98673   3.075  11.736   9.155
98945SOL    HW198674   3.038  11.741   9.244
98945SOL    HW298675   3.085  11.643   9.139
98946SOL     OW98676   2.497   3.124   3.769
98946SOL    HW198677   2.551   3.177   3.827
98946SOL    HW298678   2.501   3.168   3.684
98947SOL     OW98679   4.518   2.047   4.328
98947SOL    HW198680   4.565   2.123   4.294
98947SOL    HW298681   4.441   2.083   4.371
98948SOL     OW98682   4.091  12.995  13.284
98948SOL    HW198683   4.124  12.917  13.327
98948SOL    HW298684   4.147  13.005  13.207
98949SOL     OW98685  14.584   1.808   1.585
98949SOL    HW198686  14.546   1.784   1.500
98949SOL    HW298687  14.560   1.737   1.643
98950SOL     OW98688   0.236   5.837   4.844
98950SOL    HW198689   0.198   5.904   4.787
98950SOL    HW298690   0.178   5.762   4.836
98951SOL     OW98691  12.202   2.369  13.533
98951SOL    HW198692  12.212   2.276  13.512
98951SOL    HW298693  12.131   2.372  13.597
98952SOL     OW98694   9.904  12.110  10.455
98952SOL    HW198695   9.891  12.016  10.473
98952SOL    HW298696   9.982  12.113  10.400
98953SOL     OW98697   7.604   4.817   7.170
98953SOL    HW198698   7.569   4.811   7.081
98953SOL    HW298699   7.648   4.902   7.173
98954SOL     OW98700   4.495   9.585  14.169
98954SOL    HW198701   4.584   9.619  14.171
98954SOL    HW298702   4.445   9.650  14.120
98955SOL     OW98703   0.725   4.102   4.602
98955SOL    HW198704   0.738   4.194   4.579
98955SOL    HW298705   0.774   4.053   4.537
98956SOL     OW98706  10.162   0.403  10.569
98956SOL    HW198707  10.107   0.480  10.586
98956SOL    HW298708  10.134   0.339  10.635
98957SOL     OW98709  12.071  12.811   5.938
98957SOL    HW198710  12.153  12.768   5.965
98957SOL    HW298711  12.059  12.784   5.847
98958SOL     OW98712  13.095   7.927   0.313
98958SOL    HW198713  13.108   7.845   0.265
98958SOL    HW298714  13.166   7.929   0.378
98959SOL     OW98715  11.075  11.553  10.340
98959SOL    HW198716  11.080  11.598  10.425
98959SOL    HW298717  10.983  11.533  10.329
98960SOL     OW98718   2.132   8.392  12.405
98960SOL    HW198719   2.212   8.344  12.385
98960SOL    HW298720   2.072   8.325  12.438
98961SOL     OW98721   7.547   8.343   0.948
98961SOL    HW198722   7.559   8.256   0.909
98961SOL    HW298723   7.577   8.404   0.881
98962SOL     OW98724   9.907   2.881   8.056
98962SOL    HW198725  10.002   2.881   8.068
98962SOL    HW298726   9.893   2.935   7.978
98963SOL     OW98727   0.977  13.686   4.181
98963SOL    HW198728   0.958  13.625   4.110
98963SOL    HW298729   1.048  13.644   4.230
98964SOL     OW98730   0.096   8.811   3.732
98964SOL    HW198731   0.038   8.887   3.739
98964SOL    HW298732   0.070   8.769   3.650
98965SOL     OW98733   3.960  14.442   3.320
98965SOL    HW198734   3.952  14.524   3.272
98965SOL    HW298735   4.048  14.445   3.358
98966SOL     OW98736   5.346   0.525   8.674
98966SOL    HW198737   5.382   0.581   8.605
98966SOL    HW298738   5.269   0.573   8.705
98967SOL     OW98739   8.301   8.536   3.680
98967SOL    HW198740   8.266   8.624   3.689
98967SOL    HW298741   8.242   8.481   3.732
98968SOL     OW98742   0.669   1.567  14.308
98968SOL    HW198743   0.701   1.587  14.396
98968SOL    HW298744   0.747   1.539  14.261
98969SOL     OW98745  11.172   0.026  13.709
98969SOL    HW198746  11.266   0.043  13.698
98969SOL    HW298747  11.151   0.063  13.795
98970SOL     OW98748   5.457   5.143  12.781
98970SOL    HW198749   5.438   5.096  12.863
98970SOL    HW298750   5.372   5.160  12.743
98971SOL     OW98751   4.205  14.435   2.349
98971SOL    HW198752   4.263  14.366   2.318
98971SOL    HW298753   4.190  14.414   2.441
98972SOL     OW98754  12.514   5.270  12.979
98972SOL    HW198755  12.532   5.364  12.986
98972SOL    HW298756  12.590   5.228  13.020
98973SOL     OW98757   1.354  13.017   6.179
98973SOL    HW198758   1.290  13.003   6.248
98973SOL    HW298759   1.356  12.934   6.131
98974SOL     OW98760   1.955   4.589   8.166
98974SOL    HW198761   2.019   4.614   8.099
98974SOL    HW298762   1.894   4.663   8.171
98975SOL     OW98763   6.467   4.710   2.302
98975SOL    HW198764   6.480   4.640   2.366
98975SOL    HW298765   6.373   4.708   2.283
98976SOL     OW98766  13.063  11.971   5.334
98976SOL    HW198767  13.056  11.878   5.357
98976SOL    HW298768  13.152  11.980   5.299
98977SOL     OW98769   2.550   4.847  13.312
98977SOL    HW198770   2.600   4.903  13.253
98977SOL    HW298771   2.478   4.814  13.259
98978SOL     OW98772   6.110   5.254   0.151
98978SOL    HW198773   6.186   5.312   0.147
98978SOL    HW298774   6.120   5.207   0.234
98979SOL     OW98775   7.187   9.232  13.866
98979SOL    HW198776   7.184   9.324  13.837
98979SOL    HW298777   7.222   9.236  13.955
98980SOL     OW98778  14.016   5.731   6.166
98980SOL    HW198779  13.958   5.781   6.225
98980SOL    HW298780  13.962   5.658   6.136
98981SOL     OW98781  11.661   6.633   8.172
98981SOL    HW198782  11.728   6.661   8.110
98981SOL    HW298783  11.584   6.617   8.117
98982SOL     OW98784  12.447  11.134  11.155
98982SOL    HW198785  12.421  11.112  11.244
98982SOL    HW298786  12.387  11.086  11.099
98983SOL     OW98787   6.896   2.606   2.852
98983SOL    HW198788   6.812   2.594   2.895
98983SOL    HW298789   6.954   2.543   2.896
98984SOL     OW98790  14.604   2.902   0.148
98984SOL    HW198791  14.642   2.916   0.234
98984SOL    HW298792  14.567   2.987   0.124
98985SOL     OW98793  11.077   2.549  13.984
98985SOL    HW198794  11.046   2.639  13.969
98985SOL    HW298795  11.164   2.560  14.023
98986SOL     OW98796  14.245   2.587   3.778
98986SOL    HW198797  14.174   2.531   3.745
98986SOL    HW298798  14.242   2.576   3.873
98987SOL     OW98799   4.332  10.861  12.453
98987SOL    HW198800   4.407  10.884  12.509
98987SOL    HW298801   4.355  10.897  12.367
98988SOL     OW98802  14.567   5.521   8.361
98988SOL    HW198803  14.642   5.580   8.372
98988SOL    HW298804  14.563   5.472   8.442
98989SOL     OW98805  14.441   3.400  13.343
98989SOL    HW198806  14.353   3.437  13.347
98989SOL    HW298807  14.496   3.467  13.385
98990SOL     OW98808  10.439  12.235  11.923
98990SOL    HW198809  10.416  12.322  11.956
98990SOL    HW298810  10.505  12.252  11.856
98991SOL     OW98811  13.647   5.217  11.359
98991SOL    HW198812  13.641   5.125  11.385
98991SOL    HW298813  13.692   5.215  11.275
98992SOL     OW98814   9.238   6.323   8.047
98992SOL    HW198815   9.228   6.332   8.142
98992SOL    HW298816   9.216   6.231   8.029
98993SOL     OW98817   9.620   0.436   4.724
98993SOL    HW198818   9.653   0.360   4.771
98993SOL    HW298819   9.580   0.491   4.791
98994SOL     OW98820   5.617   9.883   9.521
98994SOL    HW198821   5.612   9.968   9.564
98994SOL    HW298822   5.526   9.854   9.515
98995SOL     OW98823   0.931   6.694   2.751
98995SOL    HW198824   1.020   6.683   2.717
98995SOL    HW298825   0.896   6.605   2.758
98996SOL     OW98826   0.226   1.838   1.655
98996SOL    HW198827   0.266   1.902   1.596
98996SOL    HW298828   0.133   1.862   1.657
98997SOL     OW98829   1.457   6.980  10.010
98997SOL    HW198830   1.536   6.989  10.062
98997SOL    HW298831   1.390   6.951  10.072
98998SOL     OW98832   5.360   8.156  13.489
98998SOL    HW198833   5.431   8.218  13.508
98998SOL    HW298834   5.350   8.160  13.394
98999SOL     OW98835  12.295   5.065   6.065
98999SOL    HW198836  12.256   4.981   6.041
98999SOL    HW298837  12.309   5.058   6.160
99000SOL     OW98838   9.034   6.581   8.991
99000SOL    HW198839   9.058   6.574   8.899
99000SOL    HW298840   9.017   6.674   9.005
99001SOL     OW98841   5.754   8.669   5.386
99001SOL    HW198842   5.711   8.611   5.449
99001SOL    HW298843   5.815   8.720   5.439
99002SOL     OW98844   8.937   1.871  14.013
99002SOL    HW198845   8.964   1.780  14.010
99002SOL    HW298846   8.919   1.894  13.922
99003SOL     OW98847   3.966   8.096   8.520
99003SOL    HW198848   3.874   8.079   8.498
99003SOL    HW298849   3.991   8.021   8.574
99004SOL     OW98850   3.874   1.275  10.052
99004SOL    HW198851   3.854   1.237   9.967
99004SOL    HW298852   3.823   1.356  10.055
99005SOL     OW98853  14.528   3.747  14.090
99005SOL    HW198854  14.459   3.747  14.023
99005SOL    HW298855  14.520   3.833  14.132
99006SOL     OW98856   9.877   2.909  13.104
99006SOL    HW198857   9.972   2.915  13.109
99006SOL    HW298858   9.847   2.920  13.194
99007SOL     OW98859  10.912   8.056   8.486
99007SOL    HW198860  10.856   8.124   8.524
99007SOL    HW298861  10.974   8.105   8.431
99008SOL     OW98862   0.892  13.251   0.538
99008SOL    HW198863   0.797  13.261   0.528
99008SOL    HW298864   0.917  13.186   0.473
99009SOL     OW98865   7.292   2.166   2.321
99009SOL    HW198866   7.359   2.156   2.253
99009SOL    HW298867   7.220   2.212   2.278
99010SOL     OW98868   2.085   0.642  10.080
99010SOL    HW198869   2.152   0.689  10.128
99010SOL    HW298870   2.111   0.650   9.988
99011SOL     OW98871   5.247   1.283   6.199
99011SOL    HW198872   5.249   1.216   6.131
99011SOL    HW298873   5.334   1.278   6.240
99012SOL     OW98874   7.255   5.337   5.797
99012SOL    HW198875   7.338   5.384   5.789
99012SOL    HW298876   7.203   5.370   5.724
99013SOL     OW98877  14.795  12.913  10.451
99013SOL    HW198878  14.733  12.969  10.497
99013SOL    HW298879  14.755  12.898  10.365
99014SOL     OW98880  13.700  12.571  11.196
99014SOL    HW198881  13.721  12.592  11.105
99014SOL    HW298882  13.750  12.634  11.247
99015SOL     OW98883  13.858  14.599   2.123
99015SOL    HW198884  13.844  14.613   2.217
99015SOL    HW298885  13.952  14.609   2.111
99016SOL     OW98886   6.602  11.263  12.926
99016SOL    HW198887   6.549  11.301  12.855
99016SOL    HW298888   6.664  11.206  12.881
99017SOL     OW98889   2.017   7.778   1.752
99017SOL    HW198890   1.968   7.819   1.680
99017SOL    HW298891   2.033   7.850   1.813
99018SOL     OW98892  12.693   4.441  12.316
99018SOL    HW198893  12.693   4.356  12.360
99018SOL    HW298894  12.784   4.469  12.317
99019SOL     OW98895   0.681  12.985  10.526
99019SOL    HW198896   0.755  12.974  10.466
99019SOL    HW298897   0.682  12.905  10.580
99020SOL     OW98898   8.781  11.839   6.850
99020SOL    HW198899   8.759  11.792   6.931
99020SOL    HW298900   8.871  11.812   6.831
99021SOL     OW98901   4.791   4.900  14.763
99021SOL    HW198902   4.827   4.971  14.817
99021SOL    HW298903   4.697   4.920  14.758
99022SOL     OW98904   0.263  11.979   5.898
99022SOL    HW198905   0.334  12.016   5.847
99022SOL    HW298906   0.290  11.889   5.916
99023SOL     OW98907  11.096   1.559   6.645
99023SOL    HW198908  11.030   1.628   6.641
99023SOL    HW298909  11.126   1.559   6.736
99024SOL     OW98910   7.637   2.055  10.567
99024SOL    HW198911   7.587   2.104  10.501
99024SOL    HW298912   7.652   1.970  10.527
99025SOL     OW98913   2.646  12.766   8.097
99025SOL    HW198914   2.688  12.791   8.179
99025SOL    HW298915   2.555  12.794   8.107
99026SOL     OW98916  12.688  11.952   1.724
99026SOL    HW198917  12.648  11.978   1.641
99026SOL    HW298918  12.672  11.858   1.730
99027SOL     OW98919   8.977   0.809  12.559
99027SOL    HW198920   8.970   0.726  12.606
99027SOL    HW298921   9.070   0.817  12.539
99028SOL     OW98922   2.238  12.769  12.181
99028SOL    HW198923   2.180  12.845  12.176
99028SOL    HW298924   2.202  12.707  12.118
99029SOL     OW98925   6.253   7.562   6.057
99029SOL    HW198926   6.183   7.627   6.060
99029SOL    HW298927   6.332   7.613   6.037
99030SOL     OW98928   3.836  10.033   0.781
99030SOL    HW198929   3.824  10.010   0.873
99030SOL    HW298930   3.910  10.093   0.780
99031SOL     OW98931  12.222   6.967   6.694
99031SOL    HW198932  12.172   7.030   6.642
99031SOL    HW298933  12.304   7.012   6.715
99032SOL     OW98934  14.779   5.087   9.342
99032SOL    HW198935  14.812   5.156   9.285
99032SOL    HW298936  14.743   5.021   9.282
99033SOL     OW98937  12.759   1.893   3.854
99033SOL    HW198938  12.718   1.897   3.940
99033SOL    HW298939  12.708   1.952   3.799
99034SOL     OW98940   8.251   5.632   9.637
99034SOL    HW198941   8.171   5.614   9.687
99034SOL    HW298942   8.265   5.553   9.585
99035SOL     OW98943  12.454  14.836  11.049
99035SOL    HW198944  12.421  14.759  11.094
99035SOL    HW298945  12.420  14.829  10.960
99036SOL     OW98946  14.195   4.174   0.675
99036SOL    HW198947  14.109   4.215   0.671
99036SOL    HW298948  14.217   4.172   0.769
99037SOL     OW98949   4.458   1.652  10.754
99037SOL    HW198950   4.505   1.642  10.837
99037SOL    HW298951   4.413   1.569  10.741
99038SOL     OW98952  12.553   4.094   8.802
99038SOL    HW198953  12.648   4.098   8.809
99038SOL    HW298954  12.528   4.017   8.854
99039SOL     OW98955  14.561  14.566   5.788
99039SOL    HW198956  14.654  14.559   5.766
99039SOL    HW298957  14.521  14.486   5.753
99040SOL     OW98958   6.611   0.378   7.127
99040SOL    HW198959   6.615   0.316   7.200
99040SOL    HW298960   6.585   0.325   7.051
99041SOL     OW98961   6.372   7.320   7.195
99041SOL    HW198962   6.330   7.378   7.258
99041SOL    HW298963   6.395   7.378   7.122
99042SOL     OW98964  10.886   5.504  11.351
99042SOL    HW198965  10.792   5.488  11.353
99042SOL    HW298966  10.894   5.596  11.324
99043SOL     OW98967   0.907   2.419   4.369
99043SOL    HW198968   0.822   2.458   4.387
99043SOL    HW298969   0.888   2.329   4.342
99044SOL     OW98970  12.756   8.471   5.365
99044SOL    HW198971  12.811   8.546   5.344
99044SOL    HW298972  12.666   8.503   5.350
99045SOL     OW98973   7.332   8.440   9.390
99045SOL    HW198974   7.354   8.517   9.336
99045SOL    HW298975   7.356   8.466   9.479
99046SOL     OW98976   2.913   4.154   4.950
99046SOL    HW198977   2.864   4.078   4.980
99046SOL    HW298978   2.848   4.224   4.945
99047SOL     OW98979   7.451   9.573   1.998
99047SOL    HW198980   7.491   9.660   2.001
99047SOL    HW298981   7.369   9.585   1.951
99048SOL     OW98982  11.212   8.365  11.245
99048SOL    HW198983  11.193   8.332  11.157
99048SOL    HW298984  11.129   8.398  11.278
99049SOL     OW98985  10.535   4.767   5.570
99049SOL    HW198986  10.584   4.837   5.613
99049SOL    HW298987  10.449   4.769   5.612
99050SOL     OW98988   2.526   1.497   7.001
99050SOL    HW198989   2.521   1.418   6.947
99050SOL    HW298990   2.602   1.544   6.968
99051SOL     OW98991   5.574   6.872  14.570
99051SOL    HW198992   5.539   6.915  14.648
99051SOL    HW298993   5.504   6.879  14.505
99052SOL     OW98994   6.883  14.347   8.146
99052SOL    HW198995   6.921  14.391   8.223
99052SOL    HW298996   6.852  14.263   8.179
99053SOL     OW98997   0.078  14.289   2.835
99053SOL    HW198998   0.085  14.351   2.907
99053SOL    HW298999  14.874  14.240   2.853
99054SOL     OW99000   3.312  10.375   9.771
99054SOL    HW199001   3.380  10.326   9.726
99054SOL    HW299002   3.312  10.461   9.728
99055SOL     OW99003  12.169   2.329   1.747
99055SOL    HW199004  12.130   2.268   1.809
99055SOL    HW299005  12.216   2.392   1.801
99056SOL     OW99006   2.231   6.751  13.759
99056SOL    HW199007   2.159   6.792  13.806
99056SOL    HW299008   2.190   6.708  13.684
99057SOL     OW99009   8.719   9.252   2.892
99057SOL    HW199010   8.814   9.258   2.900
99057SOL    HW299011   8.688   9.341   2.909
99058SOL     OW99012   3.838   0.717  13.156
99058SOL    HW199013   3.774   0.706  13.226
99058SOL    HW299014   3.895   0.788  13.186
99059SOL     OW99015  13.335   4.810   3.693
99059SOL    HW199016  13.308   4.869   3.763
99059SOL    HW299017  13.316   4.722   3.728
99060SOL     OW99018  14.818   1.809   9.755
99060SOL    HW199019  14.819   1.901   9.728
99060SOL    HW299020  14.797   1.811   9.848
99061SOL     OW99021   4.679   6.821   4.532
99061SOL    HW199022   4.635   6.876   4.597
99061SOL    HW299023   4.703   6.742   4.580
99062SOL     OW99024  12.223   1.585   8.710
99062SOL    HW199025  12.215   1.539   8.627
99062SOL    HW299026  12.318   1.591   8.726
99063SOL     OW99027   0.346   3.887   4.621
99063SOL    HW199028   0.429   3.857   4.583
99063SOL    HW299029   0.363   3.977   4.648
99064SOL     OW99030   7.546  11.867   1.890
99064SOL    HW199031   7.558  11.958   1.916
99064SOL    HW299032   7.593  11.858   1.807
99065SOL     OW99033   9.029  13.017  10.723
99065SOL    HW199034   8.981  13.092  10.687
99065SOL    HW299035   9.089  12.991  10.654
99066SOL     OW99036  14.858  11.011  11.409
99066SOL    HW199037  14.826  11.058  11.331
99066SOL    HW299038  14.844  11.073  11.481
99067SOL     OW99039  14.631   9.629   2.365
99067SOL    HW199040  14.665   9.661   2.282
99067SOL    HW299041  14.592   9.706   2.406
99068SOL     OW99042  11.179   0.757  11.690
99068SOL    HW199043  11.117   0.823  11.659
99068SOL    HW299044  11.261   0.805  11.701
99069SOL     OW99045   4.091  14.590  12.795
99069SOL    HW199046   4.039  14.665  12.765
99069SOL    HW299047   4.149  14.570  12.721
99070SOL     OW99048   0.217  13.054   0.702
99070SOL    HW199049   0.228  13.057   0.607
99070SOL    HW299050   0.162  13.130   0.722
99071SOL     OW99051   6.967   1.153   2.719
99071SOL    HW199052   6.917   1.111   2.789
99071SOL    HW299053   6.924   1.127   2.638
99072SOL     OW99054  12.116   9.543  11.956
99072SOL    HW199055  12.139   9.541  11.863
99072SOL    HW299056  12.167   9.472  11.995
99073SOL     OW99057  14.450   5.596  11.804
99073SOL    HW199058  14.467   5.689  11.788
99073SOL    HW299059  14.437   5.590  11.898
99074SOL     OW99060   4.151   4.817  14.210
99074SOL    HW199061   4.082   4.767  14.252
99074SOL    HW299062   4.108   4.861  14.137
99075SOL     OW99063   2.905   1.727   7.502
99075SOL    HW199064   2.827   1.772   7.533
99075SOL    HW299065   2.882   1.634   7.506
99076SOL     OW99066   4.397   7.690   8.446
99076SOL    HW199067   4.470   7.702   8.386
99076SOL    HW299068   4.342   7.624   8.404
99077SOL     OW99069   2.892   0.559   0.609
99077SOL    HW199070   2.812   0.606   0.634
99077SOL    HW299071   2.865   0.469   0.596
99078SOL     OW99072   0.647  12.366  11.212
99078SOL    HW199073   0.573  12.306  11.207
99078SOL    HW299074   0.708  12.335  11.145
99079SOL     OW99075   0.744   9.184   0.400
99079SOL    HW199076   0.816   9.167   0.460
99079SOL    HW299077   0.772   9.147   0.316
99080SOL     OW99078   3.165   4.477   5.015
99080SOL    HW199079   3.121   4.561   5.020
99080SOL    HW299080   3.098   4.415   4.987
99081SOL     OW99081  12.259  11.041   2.067
99081SOL    HW199082  12.226  11.018   1.980
99081SOL    HW299083  12.194  11.102   2.102
99082SOL     OW99084   6.135  14.150   3.584
99082SOL    HW199085   6.110  14.059   3.569
99082SOL    HW299086   6.154  14.184   3.496
99083SOL     OW99087  12.797  14.101   5.186
99083SOL    HW199088  12.884  14.138   5.172
99083SOL    HW299089  12.771  14.132   5.273
99084SOL     OW99090   7.405   2.482   3.723
99084SOL    HW199091   7.500   2.472   3.732
99084SOL    HW299092   7.384   2.437   3.641
99085SOL     OW99093   8.890   9.538  12.597
99085SOL    HW199094   8.796   9.533  12.614
99085SOL    HW299095   8.907   9.630  12.577
99086SOL     OW99096  13.307   6.799  11.475
99086SOL    HW199097  13.216   6.785  11.502
99086SOL    HW299098  13.346   6.847  11.547
99087SOL     OW99099  12.925  13.383  14.611
99087SOL    HW199100  12.857  13.444  14.639
99087SOL    HW299101  12.962  13.422  14.531
99088SOL     OW99102   8.433  12.828  14.592
99088SOL    HW199103   8.466  12.791  14.674
99088SOL    HW299104   8.394  12.911  14.617
99089SOL     OW99105  14.705   2.161   6.345
99089SOL    HW199106  14.638   2.207   6.295
99089SOL    HW299107  14.663   2.078   6.371
99090SOL     OW99108   3.939  10.634   1.534
99090SOL    HW199109   3.938  10.726   1.560
99090SOL    HW299110   3.998  10.591   1.596
99091SOL     OW99111   7.075  11.573  13.509
99091SOL    HW199112   7.062  11.600  13.418
99091SOL    HW299113   6.989  11.540  13.537
99092SOL     OW99114   2.087   5.199  12.967
99092SOL    HW199115   2.026   5.247  12.909
99092SOL    HW299116   2.039   5.191  13.049
99093SOL     OW99117  11.564   4.848   1.099
99093SOL    HW199118  11.574   4.908   1.173
99093SOL    HW299119  11.474   4.861   1.069
99094SOL     OW99120   9.402   8.908   1.298
99094SOL    HW199121   9.437   8.854   1.369
99094SOL    HW299122   9.453   8.884   1.221
99095SOL     OW99123  13.264   2.201  11.572
99095SOL    HW199124  13.180   2.244  11.559
99095SOL    HW299125  13.322   2.239  11.506
99096SOL     OW99126  10.071  12.951   3.687
99096SOL    HW199127  10.069  12.865   3.730
99096SOL    HW299128   9.983  12.962   3.651
99097SOL     OW99129   2.760   0.158   4.272
99097SOL    HW199130   2.678   0.145   4.223
99097SOL    HW299131   2.784   0.071   4.303
99098SOL     OW99132  13.709   1.121   8.584
99098SOL    HW199133  13.781   1.183   8.599
99098SOL    HW299134  13.753   1.038   8.566
99099SOL     OW99135   2.991   7.071   8.388
99099SOL    HW199136   2.902   7.036   8.377
99099SOL    HW299137   3.047   6.994   8.385
99100SOL     OW99138  11.485   3.992   9.701
99100SOL    HW199139  11.443   3.978   9.616
99100SOL    HW299140  11.449   4.076   9.731
99101SOL     OW99141  10.500   1.467   3.809
99101SOL    HW199142  10.559   1.416   3.865
99101SOL    HW299143  10.505   1.423   3.724
99102SOL     OW99144  14.759  14.232  10.569
99102SOL    HW199145  14.666  14.252  10.557
99102SOL    HW299146  14.775  14.156  10.514
99103SOL     OW99147  11.767   2.402   8.147
99103SOL    HW199148  11.750   2.467   8.079
99103SOL    HW299149  11.841   2.351   8.113
99104SOL     OW99150   0.271  12.279   6.684
99104SOL    HW199151   0.192  12.317   6.723
99104SOL    HW299152   0.326  12.258   6.760
99105SOL     OW99153  12.578   8.714  14.670
99105SOL    HW199154  12.575   8.782  14.602
99105SOL    HW299155  12.664   8.673  14.659
99106SOL     OW99156   6.539   8.579   5.972
99106SOL    HW199157   6.600   8.531   6.028
99106SOL    HW299158   6.453   8.545   5.996
99107SOL     OW99159  13.279   7.125   4.647
99107SOL    HW199160  13.320   7.100   4.564
99107SOL    HW299161  13.202   7.175   4.621
99108SOL     OW99162   2.356   0.410  12.882
99108SOL    HW199163   2.366   0.364  12.965
99108SOL    HW299164   2.290   0.360  12.834
99109SOL     OW99165   2.009   3.348   1.123
99109SOL    HW199166   2.103   3.361   1.109
99109SOL    HW299167   1.976   3.435   1.148
99110SOL     OW99168   2.621   4.804   2.093
99110SOL    HW199169   2.697   4.747   2.105
99110SOL    HW299170   2.646   4.886   2.136
99111SOL     OW99171   1.957   4.832  10.286
99111SOL    HW199172   1.869   4.868  10.282
99111SOL    HW299173   1.944   4.741  10.315
99112SOL     OW99174   1.121   9.262   2.907
99112SOL    HW199175   1.076   9.331   2.955
99112SOL    HW299176   1.188   9.231   2.967
99113SOL     OW99177   2.117   3.246   3.235
99113SOL    HW199178   2.114   3.310   3.307
99113SOL    HW299179   2.029   3.210   3.232
99114SOL     OW99180  13.022  10.648   9.924
99114SOL    HW199181  13.100  10.688   9.963
99114SOL    HW299182  13.012  10.565   9.970
99115SOL     OW99183  11.342   5.407   8.652
99115SOL    HW199184  11.324   5.408   8.558
99115SOL    HW299185  11.295   5.483   8.686
99116SOL     OW99186   7.639   6.165   5.843
99116SOL    HW199187   7.641   6.213   5.760
99116SOL    HW299188   7.586   6.087   5.824
99117SOL     OW99189   0.182   6.782   4.345
99117SOL    HW199190   0.119   6.761   4.277
99117SOL    HW299191   0.144   6.748   4.426
99118SOL     OW99192  11.722   3.816   8.269
99118SOL    HW199193  11.803   3.839   8.314
99118SOL    HW299194  11.712   3.882   8.201
99119SOL     OW99195   1.845  10.811   5.815
99119SOL    HW199196   1.896  10.796   5.894
99119SOL    HW299197   1.908  10.805   5.743
99120SOL     OW99198   0.083  13.029   1.502
99120SOL    HW199199   0.166  12.988   1.478
99120SOL    HW299200   0.022  12.956   1.512
99121SOL     OW99201   0.431  10.217  13.009
99121SOL    HW199202   0.418  10.123  12.997
99121SOL    HW299203   0.526  10.227  13.016
99122SOL     OW99204   2.448   4.138  14.166
99122SOL    HW199205   2.436   4.162  14.258
99122SOL    HW299206   2.486   4.050  14.170
99123SOL     OW99207  13.834   7.232  10.683
99123SOL    HW199208  13.760   7.291  10.669
99123SOL    HW299209  13.904   7.288  10.717
99124SOL     OW99210   3.315  14.200   6.795
99124SOL    HW199211   3.368  14.252   6.856
99124SOL    HW299212   3.379  14.155   6.740
99125SOL     OW99213   2.954   3.351   1.219
99125SOL    HW199214   2.903   3.425   1.185
99125SOL    HW299215   2.904   3.320   1.294
99126SOL     OW99216   9.905  12.684   6.855
99126SOL    HW199217   9.940  12.764   6.895
99126SOL    HW299218   9.982  12.633   6.832
99127SOL     OW99219  11.933   0.371   3.864
99127SOL    HW199220  11.923   0.315   3.787
99127SOL    HW299221  11.846   0.409   3.877
99128SOL     OW99222   0.541   1.730   1.361
99128SOL    HW199223   0.488   1.672   1.414
99128SOL    HW299224   0.630   1.720   1.396
99129SOL     OW99225  11.350   3.773   1.483
99129SOL    HW199226  11.312   3.696   1.525
99129SOL    HW299227  11.334   3.845   1.545
99130SOL     OW99228   8.175   5.301   7.159
99130SOL    HW199229   8.225   5.222   7.176
99130SOL    HW299230   8.092   5.287   7.205
99131SOL     OW99231   8.712   9.028  13.389
99131SOL    HW199232   8.782   9.093  13.400
99131SOL    HW299233   8.636   9.068  13.432
99132SOL     OW99234  14.672   5.651   2.096
99132SOL    HW199235  14.761   5.614   2.097
99132SOL    HW299236  14.642   5.640   2.006
99133SOL     OW99237  10.770   9.888   8.619
99133SOL    HW199238  10.699   9.836   8.582
99133SOL    HW299239  10.813   9.928   8.544
99134SOL     OW99240   7.395   3.163   7.655
99134SOL    HW199241   7.472   3.107   7.658
99134SOL    HW299242   7.323   3.104   7.629
99135SOL     OW99243   1.658   1.612   8.673
99135SOL    HW199244   1.731   1.554   8.693
99135SOL    HW299245   1.606   1.564   8.609
99136SOL     OW99246   8.941  12.403   1.028
99136SOL    HW199247   8.978  12.315   1.031
99136SOL    HW299248   8.970  12.444   1.110
99137SOL     OW99249  10.155  10.944   3.989
99137SOL    HW199250  10.163  11.028   4.034
99137SOL    HW299251  10.173  10.878   4.057
99138SOL     OW99252   3.526   6.284  14.306
99138SOL    HW199253   3.537   6.259  14.214
99138SOL    HW299254   3.484   6.370  14.303
99139SOL     OW99255   3.630   9.114   5.525
99139SOL    HW199256   3.609   9.086   5.614
99139SOL    HW299257   3.568   9.184   5.507
99140SOL     OW99258   4.198   1.118  14.554
99140SOL    HW199259   4.196   1.179  14.480
99140SOL    HW299260   4.195   1.031  14.513
99141SOL     OW99261   8.727  10.979  10.080
99141SOL    HW199262   8.707  10.937   9.996
99141SOL    HW299263   8.697  11.069  10.070
99142SOL     OW99264   5.947   5.847   2.955
99142SOL    HW199265   5.881   5.807   3.013
99142SOL    HW299266   5.966   5.931   2.996
99143SOL     OW99267   5.237   5.853  13.056
99143SOL    HW199268   5.234   5.932  13.110
99143SOL    HW299269   5.288   5.879  12.979
99144SOL     OW99270   7.236   8.196   9.569
99144SOL    HW199271   7.179   8.149   9.508
99144SOL    HW299272   7.176   8.230   9.636
99145SOL     OW99273   5.754   3.468  10.600
99145SOL    HW199274   5.818   3.507  10.659
99145SOL    HW299275   5.785   3.379  10.586
99146SOL     OW99276  14.078   7.915  12.404
99146SOL    HW199277  14.049   7.854  12.472
99146SOL    HW299278  14.147   7.868  12.358
99147SOL     OW99279   3.078  11.997   2.794
99147SOL    HW199280   3.163  11.988   2.837
99147SOL    HW299281   3.033  12.065   2.843
99148SOL     OW99282   5.522  10.982  14.789
99148SOL    HW199283   5.558  11.009  14.704
99148SOL    HW299284   5.588  10.922  14.825
99149SOL     OW99285  12.202   1.172   0.411
99149SOL    HW199286  12.225   1.250   0.461
99149SOL    HW299287  12.247   1.101   0.458
99150SOL     OW99288   8.514   8.559  13.136
99150SOL    HW199289   8.513   8.645  13.178
99150SOL    HW299290   8.545   8.576  13.047
99151SOL     OW99291   9.638   3.334   5.752
99151SOL    HW199292   9.619   3.297   5.666
99151SOL    HW299293   9.589   3.279   5.814
99152SOL     OW99294   2.202   2.987  12.644
99152SOL    HW199295   2.131   3.022  12.697
99152SOL    HW299296   2.174   3.004  12.554
99153SOL     OW99297   1.236   1.171   1.247
99153SOL    HW199298   1.143   1.194   1.246
99153SOL    HW299299   1.238   1.077   1.227
99154SOL     OW99300  11.061  11.056   5.983
99154SOL    HW199301  11.019  11.138   5.957
99154SOL    HW299302  11.054  11.000   5.905
99155SOL     OW99303   8.275  10.698  14.803
99155SOL    HW199304   8.216  10.743  14.743
99155SOL    HW299305   8.227  10.695   0.010
99156SOL     OW99306  12.554  13.038   4.892
99156SOL    HW199307  12.468  13.052   4.852
99156SOL    HW299308  12.578  13.124   4.927
99157SOL     OW99309   9.005  10.441   0.847
99157SOL    HW199310   8.922  10.399   0.829
99157SOL    HW299311   8.994  10.481   0.934
99158SOL     OW99312   5.649   5.786  14.139
99158SOL    HW199313   5.663   5.697  14.171
99158SOL    HW299314   5.737   5.823  14.132
99159SOL     OW99315   5.761   8.703  11.967
99159SOL    HW199316   5.752   8.617  11.926
99159SOL    HW299317   5.850   8.705  12.000
99160SOL     OW99318   2.824   1.100   0.549
99160SOL    HW199319   2.858   1.013   0.529
99160SOL    HW299320   2.729   1.092   0.539
99161SOL     OW99321   8.272   5.055  13.309
99161SOL    HW199322   8.308   5.089  13.227
99161SOL    HW299323   8.314   4.970  13.320
99162SOL     OW99324   6.402   6.412   6.429
99162SOL    HW199325   6.487   6.455   6.419
99162SOL    HW299326   6.340   6.473   6.389
99163SOL     OW99327   6.473   5.379  13.283
99163SOL    HW199328   6.456   5.467  13.250
99163SOL    HW299329   6.563   5.360  13.256
99164SOL     OW99330   9.157   1.650  11.883
99164SOL    HW199331   9.171   1.582  11.816
99164SOL    HW299332   9.156   1.732  11.833
99165SOL     OW99333  10.153  12.398  14.010
99165SOL    HW199334  10.111  12.312  14.003
99165SOL    HW299335  10.081  12.461  14.001
99166SOL     OW99336   3.581  10.810  10.597
99166SOL    HW199337   3.537  10.852  10.523
99166SOL    HW299338   3.510  10.772  10.649
99167SOL     OW99339  14.304  14.383   8.615
99167SOL    HW199340  14.273  14.337   8.693
99167SOL    HW299341  14.224  14.412   8.571
99168SOL     OW99342   4.017  14.606  13.243
99168SOL    HW199343   4.027  14.613  13.337
99168SOL    HW299344   3.925  14.583  13.229
99169SOL     OW99345  11.434   9.812   9.064
99169SOL    HW199346  11.425   9.780   8.974
99169SOL    HW299347  11.494   9.886   9.057
99170SOL     OW99348  14.395  11.156  10.344
99170SOL    HW199349  14.475  11.110  10.319
99170SOL    HW299350  14.346  11.166  10.262
99171SOL     OW99351   3.480   3.836  14.415
99171SOL    HW199352   3.478   3.742  14.435
99171SOL    HW299353   3.571   3.852  14.389
99172SOL     OW99354  12.661   5.919   8.316
99172SOL    HW199355  12.689   5.942   8.228
99172SOL    HW299356  12.659   6.002   8.363
99173SOL     OW99357  13.936   4.574   8.426
99173SOL    HW199358  13.923   4.525   8.345
99173SOL    HW299359  13.937   4.666   8.399
99174SOL     OW99360  10.258  10.885   0.318
99174SOL    HW199361  10.186  10.921   0.371
99174SOL    HW299362  10.337  10.905   0.367
99175SOL     OW99363  13.835  13.821   8.906
99175SOL    HW199364  13.852  13.747   8.848
99175SOL    HW299365  13.741  13.819   8.922
99176SOL     OW99366   7.484   5.280   3.779
99176SOL    HW199367   7.404   5.330   3.764
99176SOL    HW299368   7.454   5.190   3.791
99177SOL     OW99369   6.090   5.295   7.304
99177SOL    HW199370   6.027   5.250   7.249
99177SOL    HW299371   6.102   5.380   7.262
99178SOL     OW99372   3.931   2.246   5.282
99178SOL    HW199373   3.988   2.314   5.319
99178SOL    HW299374   3.946   2.251   5.188
99179SOL     OW99375   3.386   1.623   2.407
99179SOL    HW199376   3.418   1.701   2.361
99179SOL    HW299377   3.462   1.565   2.412
99180SOL     OW99378  10.080   9.315   5.674
99180SOL    HW199379  10.123   9.244   5.626
99180SOL    HW299380  10.093   9.393   5.620
99181SOL     OW99381   1.074   4.490   6.268
99181SOL    HW199382   1.004   4.556   6.260
99181SOL    HW299383   1.048   4.437   6.343
99182SOL     OW99384  10.311  11.851   6.597
99182SOL    HW199385  10.317  11.878   6.506
99182SOL    HW299386  10.384  11.791   6.610
99183SOL     OW99387   2.361  12.274   5.368
99183SOL    HW199388   2.295  12.223   5.415
99183SOL    HW299389   2.428  12.293   5.433
99184SOL     OW99390  11.340   9.697   0.198
99184SOL    HW199391  11.366   9.788   0.185
99184SOL    HW299392  11.404   9.663   0.261
99185SOL     OW99393   2.305   1.836   4.723
99185SOL    HW199394   2.229   1.813   4.777
99185SOL    HW299395   2.336   1.919   4.760
99186SOL     OW99396   1.715  10.824   9.795
99186SOL    HW199397   1.634  10.798   9.751
99186SOL    HW299398   1.785  10.794   9.737
99187SOL     OW99399   4.344   4.206   4.318
99187SOL    HW199400   4.406   4.207   4.390
99187SOL    HW299401   4.304   4.119   4.322
99188SOL     OW99402   6.655   0.886  13.184
99188SOL    HW199403   6.661   0.852  13.273
99188SOL    HW299404   6.665   0.981  13.193
99189SOL     OW99405  10.064   2.623   4.148
99189SOL    HW199406  10.098   2.625   4.237
99189SOL    HW299407  10.085   2.709   4.112
99190SOL     OW99408   4.194   8.768   8.544
99190SOL    HW199409   4.205   8.859   8.516
99190SOL    HW299410   4.232   8.765   8.631
99191SOL     OW99411  12.418   9.635   0.128
99191SOL    HW199412  12.438   9.623   0.035
99191SOL    HW299413  12.333   9.594   0.140
99192SOL     OW99414   9.794   8.195   8.067
99192SOL    HW199415   9.790   8.103   8.041
99192SOL    HW299416   9.807   8.243   7.985
99193SOL     OW99417   2.394   0.772   5.878
99193SOL    HW199418   2.412   0.859   5.842
99193SOL    HW299419   2.478   0.727   5.875
99194SOL     OW99420   2.396   6.443   5.180
99194SOL    HW199421   2.373   6.455   5.272
99194SOL    HW299422   2.381   6.529   5.140
99195SOL     OW99423   4.238   7.676  13.850
99195SOL    HW199424   4.275   7.726  13.777
99195SOL    HW299425   4.265   7.724  13.928
99196SOL     OW99426  14.476  13.058   1.494
99196SOL    HW199427  14.564  13.080   1.525
99196SOL    HW299428  14.466  12.965   1.516
99197SOL     OW99429   0.467   4.409  12.275
99197SOL    HW199430   0.550   4.371  12.247
99197SOL    HW299431   0.478   4.503  12.265
99198SOL     OW99432   4.226   5.725   1.309
99198SOL    HW199433   4.176   5.804   1.332
99198SOL    HW299434   4.205   5.709   1.217
99199SOL     OW99435  12.288   2.155   0.256
99199SOL    HW199436  12.334   2.120   0.333
99199SOL    HW299437  12.205   2.188   0.290
99200SOL     OW99438  10.355  13.986  14.452
99200SOL    HW199439  10.304  13.967  14.374
99200SOL    HW299440  10.294  14.030  14.511
99201SOL     OW99441   6.084   6.099   5.531
99201SOL    HW199442   6.111   6.181   5.490
99201SOL    HW299443   6.085   6.117   5.625
99202SOL     OW99444  11.057   3.250   5.582
99202SOL    HW199445  11.092   3.310   5.516
99202SOL    HW299446  11.021   3.307   5.650
99203SOL     OW99447   3.242   5.602   0.805
99203SOL    HW199448   3.223   5.687   0.843
99203SOL    HW299449   3.182   5.542   0.848
99204SOL     OW99450   8.823   5.949   8.414
99204SOL    HW199451   8.905   5.925   8.457
99204SOL    HW299452   8.846   5.959   8.321
99205SOL     OW99453  12.637   8.406  13.260
99205SOL    HW199454  12.666   8.327  13.306
99205SOL    HW299455  12.644   8.383  13.167
99206SOL     OW99456   1.666   7.035  10.174
99206SOL    HW199457   1.749   7.001  10.210
99206SOL    HW299458   1.680   7.130  10.167
99207SOL     OW99459   0.959   3.429   1.141
99207SOL    HW199460   0.957   3.346   1.188
99207SOL    HW299461   1.000   3.490   1.202
99208SOL     OW99462   1.739   1.214   0.168
99208SOL    HW199463   1.767   1.217   0.260
99208SOL    HW299464   1.706   1.301   0.150
99209SOL     OW99465   1.469   8.012   5.000
99209SOL    HW199466   1.501   8.062   5.075
99209SOL    HW299467   1.547   7.998   4.946
99210SOL     OW99468  14.775   2.510   1.301
99210SOL    HW199469  14.789   2.469   1.386
99210SOL    HW299470  14.680   2.507   1.289
99211SOL     OW99471   7.407  11.995   2.234
99211SOL    HW199472   7.497  11.961   2.228
99211SOL    HW299473   7.373  11.957   2.315
99212SOL     OW99474  14.317  14.742  11.922
99212SOL    HW199475  14.350  14.653  11.926
99212SOL    HW299476  14.394  14.797  11.936
99213SOL     OW99477   7.578   8.701   2.292
99213SOL    HW199478   7.533   8.769   2.342
99213SOL    HW299479   7.671   8.719   2.304
99214SOL     OW99480   2.121   0.475   2.564
99214SOL    HW199481   2.051   0.456   2.626
99214SOL    HW299482   2.182   0.531   2.612
99215SOL     OW99483   7.939   7.193   3.047
99215SOL    HW199484   7.852   7.156   3.062
99215SOL    HW299485   7.960   7.170   2.957
99216SOL     OW99486  10.821  11.274  13.288
99216SOL    HW199487  10.899  11.296  13.339
99216SOL    HW299488  10.805  11.181  13.307
99217SOL     OW99489   9.482   0.846   3.050
99217SOL    HW199490   9.446   0.878   3.133
99217SOL    HW299491   9.503   0.925   3.001
99218SOL     OW99492   5.384   3.143   1.742
99218SOL    HW199493   5.370   3.169   1.833
99218SOL    HW299494   5.448   3.072   1.747
99219SOL     OW99495   0.981   2.268   7.569
99219SOL    HW199496   0.979   2.231   7.481
99219SOL    HW299497   0.928   2.348   7.563
99220SOL     OW99498   6.879   1.148  14.044
99220SOL    HW199499   6.885   1.066  13.996
99220SOL    HW299500   6.968   1.183  14.043
99221SOL     OW99501   1.182   0.139   1.847
99221SOL    HW199502   1.156   0.051   1.875
99221SOL    HW299503   1.272   0.149   1.878
99222SOL     OW99504   5.653  13.894  12.360
99222SOL    HW199505   5.599  13.876  12.283
99222SOL    HW299506   5.590  13.926  12.426
99223SOL     OW99507   6.860   4.276  10.487
99223SOL    HW199508   6.905   4.217  10.548
99223SOL    HW299509   6.875   4.363  10.524
99224SOL     OW99510   4.957   2.320  14.779
99224SOL    HW199511   4.995   2.271  14.851
99224SOL    HW299512   4.874   2.276  14.760
99225SOL     OW99513  13.656  10.388   3.323
99225SOL    HW199514  13.711  10.309   3.324
99225SOL    HW299515  13.599  10.375   3.248
99226SOL     OW99516   2.850  10.221  11.368
99226SOL    HW199517   2.784  10.222  11.437
99226SOL    HW299518   2.921  10.274  11.403
99227SOL     OW99519  11.064  10.081   4.683
99227SOL    HW199520  11.140  10.025   4.702
99227SOL    HW299521  10.988  10.026   4.704
99228SOL     OW99522   2.016   8.368   1.694
99228SOL    HW199523   2.069   8.368   1.614
99228SOL    HW299524   2.081   8.371   1.765
99229SOL     OW99525   9.589   6.850   7.574
99229SOL    HW199526   9.592   6.778   7.636
99229SOL    HW299527   9.597   6.929   7.627
99230SOL     OW99528   8.118  12.690   2.703
99230SOL    HW199529   8.108  12.728   2.615
99230SOL    HW299530   8.075  12.753   2.761
99231SOL     OW99531   8.598  12.534   9.769
99231SOL    HW199532   8.666  12.602   9.757
99231SOL    HW299533   8.636  12.474   9.833
99232SOL     OW99534  11.713   2.251   9.164
99232SOL    HW199535  11.674   2.168   9.137
99232SOL    HW299536  11.646   2.291   9.219
99233SOL     OW99537  10.911  11.429   2.214
99233SOL    HW199538  10.994  11.400   2.252
99233SOL    HW299539  10.849  11.360   2.238
99234SOL     OW99540   3.781  10.504   6.802
99234SOL    HW199541   3.720  10.509   6.728
99234SOL    HW299542   3.826  10.589   6.801
99235SOL     OW99543   9.638  11.502   6.646
99235SOL    HW199544   9.715  11.476   6.595
99235SOL    HW299545   9.574  11.528   6.580
99236SOL     OW99546   8.572  12.996   7.186
99236SOL    HW199547   8.553  13.025   7.275
99236SOL    HW299548   8.664  12.968   7.190
99237SOL     OW99549  12.104  12.304   6.179
99237SOL    HW199550  12.061  12.220   6.162
99237SOL    HW299551  12.078  12.360   6.107
99238SOL     OW99552   2.578  12.221   1.019
99238SOL    HW199553   2.629  12.300   1.036
99238SOL    HW299554   2.587  12.170   1.099
99239SOL     OW99555  13.678   5.067   6.206
99239SOL    HW199556  13.615   5.059   6.278
99239SOL    HW299557  13.714   5.155   6.216
99240SOL     OW99558  11.307  11.374  10.726
99240SOL    HW199559  11.309  11.303  10.790
99240SOL    HW299560  11.282  11.452  10.777
99241SOL     OW99561  11.160   7.863   9.399
99241SOL    HW199562  11.166   7.958   9.411
99241SOL    HW299563  11.074   7.849   9.359
99242SOL     OW99564   0.704   0.366   4.559
99242SOL    HW199565   0.634   0.394   4.618
99242SOL    HW299566   0.699   0.426   4.485
99243SOL     OW99567  12.467   2.016   1.101
99243SOL    HW199568  12.536   2.025   1.166
99243SOL    HW299569  12.408   2.090   1.118
99244SOL     OW99570   6.208   2.294   8.853
99244SOL    HW199571   6.238   2.238   8.782
99244SOL    HW299572   6.161   2.235   8.911
99245SOL     OW99573   3.922   6.234  11.122
99245SOL    HW199574   3.878   6.174  11.061
99245SOL    HW299575   3.995   6.182  11.157
99246SOL     OW99576   6.462  11.722   2.899
99246SOL    HW199577   6.433  11.742   2.987
99246SOL    HW299578   6.418  11.787   2.844
99247SOL     OW99579   9.030   5.717   5.408
99247SOL    HW199580   9.092   5.657   5.449
99247SOL    HW299581   9.067   5.804   5.425
99248SOL     OW99582  12.530  13.721   1.491
99248SOL    HW199583  12.618  13.733   1.527
99248SOL    HW299584  12.539  13.647   1.431
99249SOL     OW99585  11.085   3.212   7.800
99249SOL    HW199586  11.103   3.132   7.849
99249SOL    HW299587  11.103   3.283   7.862
99250SOL     OW99588   3.322  12.604  10.946
99250SOL    HW199589   3.311  12.699  10.950
99250SOL    HW299590   3.415  12.591  10.931
99251SOL     OW99591  12.051  12.853   5.059
99251SOL    HW199592  12.146  12.850   5.070
99251SOL    HW299593  12.017  12.875   5.146
99252SOL     OW99594   9.017   5.840  10.809
99252SOL    HW199595   9.000   5.892  10.730
99252SOL    HW299596   8.944   5.862  10.868
99253SOL     OW99597  13.069   0.093  14.356
99253SOL    HW199598  13.021   0.021  14.395
99253SOL    HW299599  13.154   0.092  14.400
99254SOL     OW99600   1.413   8.492  11.500
99254SOL    HW199601   1.415   8.553  11.426
99254SOL    HW299602   1.474   8.422  11.475
99255SOL     OW99603   6.088   6.589   2.991
99255SOL    HW199604   6.039   6.623   3.066
99255SOL    HW299605   6.026   6.590   2.919
99256SOL     OW99606  12.826  12.887   0.249
99256SOL    HW199607  12.784  12.958   0.201
99256SOL    HW299608  12.868  12.930   0.323
99257SOL     OW99609   4.647   8.699   4.023
99257SOL    HW199610   4.654   8.795   4.021
99257SOL    HW299611   4.651   8.672   3.931
99258SOL     OW99612   8.874   3.487  13.706
99258SOL    HW199613   8.858   3.402  13.667
99258SOL    HW299614   8.883   3.547  13.632
99259SOL     OW99615   6.765   6.827  12.241
99259SOL    HW199616   6.721   6.911  12.256
99259SOL    HW299617   6.803   6.804  12.326
99260SOL     OW99618   9.625  12.308  13.094
99260SOL    HW199619   9.532  12.306  13.072
99260SOL    HW299620   9.633  12.382  13.155
99261SOL     OW99621   8.054  10.823  14.620
99261SOL    HW199622   8.008  10.759  14.567
99261SOL    HW299623   8.086  10.888  14.557
99262SOL     OW99624   4.628   8.247   5.846
99262SOL    HW199625   4.619   8.171   5.902
99262SOL    HW299626   4.540   8.284   5.839
99263SOL     OW99627  14.756   7.510  11.046
99263SOL    HW199628  14.695   7.478  11.112
99263SOL    HW299629  14.709   7.580  11.001
99264SOL     OW99630   4.872   3.288   6.139
99264SOL    HW199631   4.870   3.375   6.099
99264SOL    HW299632   4.869   3.228   6.064
99265SOL     OW99633  14.640   8.690   2.845
99265SOL    HW199634  14.549   8.679   2.818
99265SOL    HW299635  14.638   8.762   2.908
99266SOL     OW99636   5.035   0.511   5.246
99266SOL    HW199637   4.996   0.526   5.160
99266SOL    HW299638   5.122   0.549   5.240
99267SOL     OW99639   1.605   6.509   5.057
99267SOL    HW199640   1.664   6.434   5.067
99267SOL    HW299641   1.530   6.474   5.008
99268SOL     OW99642  11.698   5.581  14.145
99268SOL    HW199643  11.675   5.547  14.232
99268SOL    HW299644  11.782   5.625  14.157
99269SOL     OW99645   9.556   0.986  14.802
99269SOL    HW199646   9.635   0.940  14.829
99269SOL    HW299647   9.507   1.000   0.007
99270SOL     OW99648   6.800   1.362   6.516
99270SOL    HW199649   6.778   1.335   6.427
99270SOL    HW299650   6.716   1.387   6.554
99271SOL     OW99651   7.621   0.074   9.366
99271SOL    HW199652   7.599   0.156   9.323
99271SOL    HW299653   7.538   0.025   9.368
99272SOL     OW99654   3.261  10.952   6.463
99272SOL    HW199655   3.274  11.023   6.400
99272SOL    HW299656   3.176  10.915   6.440
99273SOL     OW99657  14.241  14.322  12.666
99273SOL    HW199658  14.193  14.302  12.586
99273SOL    HW299659  14.180  14.372  12.719
99274SOL     OW99660   6.582   4.438   7.280
99274SOL    HW199661   6.669   4.478   7.283
99274SOL    HW299662   6.536   4.475   7.356
99275SOL     OW99663  12.357  10.953  13.750
99275SOL    HW199664  12.372  10.955  13.656
99275SOL    HW299665  12.431  10.904  13.785
99276SOL     OW99666   3.991   9.786   0.265
99276SOL    HW199667   4.032   9.783   0.351
99276SOL    HW299668   3.910   9.836   0.279
99277SOL     OW99669   6.047   0.555  10.781
99277SOL    HW199670   6.011   0.499  10.712
99277SOL    HW299671   6.000   0.638  10.771
99278SOL     OW99672  13.846  14.283  10.615
99278SOL    HW199673  13.889  14.198  10.610
99278SOL    HW299674  13.897  14.331  10.680
99279SOL     OW99675   0.084  14.114  11.262
99279SOL    HW199676  14.865  14.111  11.252
99279SOL    HW299677   0.099  14.076  11.349
99280SOL     OW99678   1.038   8.612   3.897
99280SOL    HW199679   1.012   8.647   3.811
99280SOL    HW299680   1.040   8.517   3.884
99281SOL     OW99681   4.491  10.255   0.663
99281SOL    HW199682   4.459  10.283   0.749
99281SOL    HW299683   4.417  10.209   0.624
99282SOL     OW99684   3.177   0.201   0.207
99282SOL    HW199685   3.211   0.277   0.159
99282SOL    HW299686   3.087   0.227   0.231
99283SOL     OW99687   8.905   4.479  12.482
99283SOL    HW199688   8.875   4.396  12.445
99283SOL    HW299689   8.846   4.496  12.556
99284SOL     OW99690   6.112  13.686   1.175
99284SOL    HW199691   6.084  13.708   1.264
99284SOL    HW299692   6.127  13.771   1.133
99285SOL     OW99693   2.562  10.384   5.541
99285SOL    HW199694   2.562  10.453   5.475
99285SOL    HW299695   2.540  10.428   5.623
99286SOL     OW99696  14.818  11.999   0.887
99286SOL    HW199697   0.031  11.998   0.853
99286SOL    HW299698  14.823  11.952   0.970
99287SOL     OW99699  11.812   1.678   8.575
99287SOL    HW199700  11.797   1.766   8.543
99287SOL    HW299701  11.825   1.625   8.496
99288SOL     OW99702   4.960   4.515  13.133
99288SOL    HW199703   4.981   4.436  13.083
99288SOL    HW299704   5.012   4.584  13.091
99289SOL     OW99705   6.784   1.719   5.400
99289SOL    HW199706   6.874   1.719   5.434
99289SOL    HW299707   6.748   1.635   5.428
99290SOL     OW99708   5.100  12.310   4.525
99290SOL    HW199709   5.152  12.390   4.538
99290SOL    HW299710   5.122  12.282   4.436
99291SOL     OW99711   2.757  13.270  12.386
99291SOL    HW199712   2.789  13.327  12.456
99291SOL    HW299713   2.664  13.291  12.377
99292SOL     OW99714   8.790   8.467  13.749
99292SOL    HW199715   8.778   8.394  13.810
99292SOL    HW299716   8.877   8.454  13.712
99293SOL     OW99717   6.301  14.741  13.152
99293SOL    HW199718   6.258  14.766  13.234
99293SOL    HW299719   6.252  14.788  13.085
99294SOL     OW99720   0.964   5.874   4.339
99294SOL    HW199721   1.031   5.906   4.278
99294SOL    HW299722   0.950   5.947   4.399
99295SOL     OW99723  12.658  11.273   2.053
99295SOL    HW199724  12.729  11.210   2.063
99295SOL    HW299725  12.626  11.259   1.964
99296SOL     OW99726   4.473   6.775   6.854
99296SOL    HW199727   4.510   6.844   6.798
99296SOL    HW299728   4.542   6.709   6.860
99297SOL     OW99729   9.629   6.406   4.288
99297SOL    HW199730   9.699   6.461   4.253
99297SOL    HW299731   9.645   6.320   4.250
99298SOL     OW99732  11.974  12.794   4.806
99298SOL    HW199733  11.984  12.829   4.895
99298SOL    HW299734  12.050  12.736   4.795
99299SOL     OW99735   0.244  13.704   9.408
99299SOL    HW199736   0.232  13.778   9.348
99299SOL    HW299737   0.223  13.627   9.355
99300SOL     OW99738   6.720   9.822   9.679
99300SOL    HW199739   6.642   9.773   9.706
99300SOL    HW299740   6.733   9.886   9.749
99301SOL     OW99741   3.745   0.793  14.298
99301SOL    HW199742   3.782   0.766  14.214
99301SOL    HW299743   3.798   0.868  14.326
99302SOL     OW99744   9.630  14.597   9.671
99302SOL    HW199745   9.608  14.554   9.753
99302SOL    HW299746   9.557  14.658   9.656
99303SOL     OW99747   4.519   2.564  13.892
99303SOL    HW199748   4.457   2.493  13.906
99303SOL    HW299749   4.465   2.637  13.861
99304SOL     OW99750   8.126  12.497   1.171
99304SOL    HW199751   8.184  12.527   1.241
99304SOL    HW299752   8.041  12.535   1.192
99305SOL     OW99753  11.440  11.098   0.737
99305SOL    HW199754  11.493  11.030   0.779
99305SOL    HW299755  11.496  11.132   0.668
99306SOL     OW99756   5.085   9.172   7.135
99306SOL    HW199757   5.013   9.228   7.162
99306SOL    HW299758   5.147   9.230   7.091
99307SOL     OW99759   3.204  10.631   1.112
99307SOL    HW199760   3.182  10.544   1.077
99307SOL    HW299761   3.132  10.687   1.082
99308SOL     OW99762   1.602   2.879  10.259
99308SOL    HW199763   1.565   2.961  10.228
99308SOL    HW299764   1.538   2.846  10.322
99309SOL     OW99765  10.253  11.971  14.202
99309SOL    HW199766  10.273  11.939  14.290
99309SOL    HW299767  10.312  12.045  14.189
99310SOL     OW99768  12.989  10.878   0.527
99310SOL    HW199769  12.912  10.824   0.506
99310SOL    HW299770  12.980  10.955   0.471
99311SOL     OW99771   7.827   1.594  14.022
99311SOL    HW199772   7.773   1.571  13.946
99311SOL    HW299773   7.917   1.576  13.994
99312SOL     OW99774   2.785   0.816  10.470
99312SOL    HW199775   2.702   0.822  10.516
99312SOL    HW299776   2.762   0.785  10.382
99313SOL     OW99777   2.479   4.688   8.483
99313SOL    HW199778   2.550   4.625   8.474
99313SOL    HW299779   2.520   4.773   8.469
99314SOL     OW99780   9.237  13.340   0.197
99314SOL    HW199781   9.265  13.361   0.108
99314SOL    HW299782   9.271  13.252   0.214
99315SOL     OW99783   7.408   2.557  10.934
99315SOL    HW199784   7.392   2.471  10.971
99315SOL    HW299785   7.321   2.589  10.908
99316SOL     OW99786  12.628   6.044   8.060
99316SOL    HW199787  12.539   6.073   8.079
99316SOL    HW299788  12.631   6.037   7.965
99317SOL     OW99789   1.270   8.650   1.116
99317SOL    HW199790   1.303   8.695   1.194
99317SOL    HW299791   1.220   8.717   1.069
99318SOL     OW99792   4.467   7.140  13.425
99318SOL    HW199793   4.433   7.217  13.379
99318SOL    HW299794   4.429   7.146  13.513
99319SOL     OW99795   6.574   2.307  12.746
99319SOL    HW199796   6.543   2.218  12.731
99319SOL    HW299797   6.568   2.349  12.660
99320SOL     OW99798   3.509   3.044   9.039
99320SOL    HW199799   3.554   2.962   9.021
99320SOL    HW299800   3.469   3.068   8.956
99321SOL     OW99801   5.563  14.732  11.090
99321SOL    HW199802   5.529  14.768  11.172
99321SOL    HW299803   5.499  14.667  11.063
99322SOL     OW99804   7.030  10.417   1.962
99322SOL    HW199805   7.069  10.424   1.875
99322SOL    HW299806   6.957  10.356   1.951
99323SOL     OW99807   8.715   2.925   3.399
99323SOL    HW199808   8.669   2.854   3.443
99323SOL    HW299809   8.649   2.994   3.391
99324SOL     OW99810   2.514   9.573   6.743
99324SOL    HW199811   2.526   9.523   6.824
99324SOL    HW299812   2.582   9.541   6.684
99325SOL     OW99813  11.085  11.683  10.612
99325SOL    HW199814  11.088  11.675  10.707
99325SOL    HW299815  11.143  11.756  10.592
99326SOL     OW99816   7.832  12.685   8.796
99326SOL    HW199817   7.783  12.641   8.727
99326SOL    HW299818   7.914  12.636   8.803
99327SOL     OW99819   3.749   8.633   7.746
99327SOL    HW199820   3.768   8.671   7.660
99327SOL    HW299821   3.740   8.539   7.730
99328SOL     OW99822   3.533   5.713  12.360
99328SOL    HW199823   3.551   5.772  12.288
99328SOL    HW299824   3.577   5.752  12.436
99329SOL     OW99825  11.802   3.377   7.248
99329SOL    HW199826  11.828   3.432   7.322
99329SOL    HW299827  11.740   3.314   7.284
99330SOL     OW99828   4.693   2.888   2.009
99330SOL    HW199829   4.717   2.975   2.042
99330SOL    HW299830   4.759   2.829   2.047
99331SOL     OW99831   3.195  14.068   4.609
99331SOL    HW199832   3.275  14.054   4.558
99331SOL    HW299833   3.152  14.143   4.568
99332SOL     OW99834  12.637  12.267   8.919
99332SOL    HW199835  12.571  12.325   8.883
99332SOL    HW299836  12.709  12.324   8.944
99333SOL     OW99837   6.862   1.911   8.193
99333SOL    HW199838   6.825   1.905   8.281
99333SOL    HW299839   6.795   1.875   8.135
99334SOL     OW99840   9.609   4.727  11.244
99334SOL    HW199841   9.531   4.725  11.300
99334SOL    HW299842   9.576   4.748  11.157
99335SOL     OW99843  13.596   1.476  14.173
99335SOL    HW199844  13.505   1.497  14.192
99335SOL    HW299845  13.642   1.488  14.256
99336SOL     OW99846  13.125   1.320   5.058
99336SOL    HW199847  13.065   1.359   5.121
99336SOL    HW299848  13.105   1.226   5.062
99337SOL     OW99849   2.471   8.218  12.100
99337SOL    HW199850   2.440   8.210  12.190
99337SOL    HW299851   2.400   8.183  12.047
99338SOL     OW99852  10.787   7.417   8.638
99338SOL    HW199853  10.853   7.487   8.637
99338SOL    HW299854  10.708   7.459   8.671
99339SOL     OW99855  12.997  11.411   1.788
99339SOL    HW199856  13.033  11.325   1.809
99339SOL    HW299857  12.951  11.438   1.868
99340SOL     OW99858  14.144   0.827  14.229
99340SOL    HW199859  14.134   0.833  14.324
99340SOL    HW299860  14.054   0.825  14.196
99341SOL     OW99861  12.125   1.834  11.403
99341SOL    HW199862  12.146   1.892  11.475
99341SOL    HW299863  12.102   1.892  11.331
99342SOL     OW99864   4.711   8.365   3.893
99342SOL    HW199865   4.652   8.292   3.877
99342SOL    HW299866   4.718   8.371   3.988
99343SOL     OW99867  11.597   1.343   4.779
99343SOL    HW199868  11.512   1.300   4.781
99343SOL    HW299869  11.659   1.277   4.810
99344SOL     OW99870  12.753   0.685   5.410
99344SOL    HW199871  12.680   0.718   5.462
99344SOL    HW299872  12.721   0.686   5.320
99345SOL     OW99873  10.786   6.226  11.037
99345SOL    HW199874  10.851   6.191  11.098
99345SOL    HW299875  10.808   6.185  10.953
99346SOL     OW99876   7.496   2.478   6.096
99346SOL    HW199877   7.573   2.509   6.048
99346SOL    HW299878   7.454   2.416   6.036
99347SOL     OW99879   3.077   9.323  12.015
99347SOL    HW199880   3.033   9.379  11.950
99347SOL    HW299881   3.118   9.385  12.076
99348SOL     OW99882  11.157   9.480   7.377
99348SOL    HW199883  11.229   9.494   7.316
99348SOL    HW299884  11.115   9.399   7.347
99349SOL     OW99885  12.205  12.056   5.288
99349SOL    HW199886  12.149  12.102   5.224
99349SOL    HW299887  12.166  11.969   5.295
99350SOL     OW99888  10.663   8.385   3.006
99350SOL    HW199889  10.571   8.360   3.003
99350SOL    HW299890  10.664   8.466   3.057
99351SOL     OW99891   8.316  14.042   4.617
99351SOL    HW199892   8.406  14.047   4.647
99351SOL    HW299893   8.264  14.070   4.692
99352SOL     OW99894   9.434   2.249   9.177
99352SOL    HW199895   9.412   2.307   9.250
99352SOL    HW299896   9.403   2.295   9.099
99353SOL     OW99897  10.679   9.957   1.001
99353SOL    HW199898  10.705   9.890   0.938
99353SOL    HW299899  10.673  10.037   0.950
99354SOL     OW99900   2.880   0.132   5.556
99354SOL    HW199901   2.973   0.113   5.572
99354SOL    HW299902   2.871   0.126   5.461
99355SOL     OW99903   4.748  11.308  12.691
99355SOL    HW199904   4.758  11.216  12.667
99355SOL    HW299905   4.756  11.309  12.787
99356SOL     OW99906  11.375   5.216   7.184
99356SOL    HW199907  11.331   5.152   7.127
99356SOL    HW299908  11.346   5.194   7.272
99357SOL     OW99909   9.678  11.772   6.272
99357SOL    HW199910   9.673  11.746   6.180
99357SOL    HW299911   9.592  11.809   6.292
99358SOL     OW99912   6.208  10.357   7.500
99358SOL    HW199913   6.143  10.350   7.570
99358SOL    HW299914   6.228  10.266   7.476
99359SOL     OW99915   3.021   4.161  12.835
99359SOL    HW199916   3.084   4.206  12.893
99359SOL    HW299917   3.026   4.210  12.753
99360SOL     OW99918  14.227   6.997   1.161
99360SOL    HW199919  14.270   6.993   1.247
99360SOL    HW299920  14.161   6.927   1.165
99361SOL     OW99921   3.446   3.274   7.000
99361SOL    HW199922   3.466   3.187   6.966
99361SOL    HW299923   3.403   3.319   6.928
99362SOL     OW99924   6.945  13.474   6.704
99362SOL    HW199925   6.894  13.543   6.745
99362SOL    HW299926   6.989  13.429   6.776
99363SOL     OW99927   0.850  12.078   9.798
99363SOL    HW199928   0.871  12.168   9.775
99363SOL    HW299929   0.764  12.062   9.760
99364SOL     OW99930  14.557   6.613   9.175
99364SOL    HW199931  14.515   6.547   9.230
99364SOL    HW299932  14.516   6.695   9.201
99365SOL     OW99933  11.814  14.170   3.483
99365SOL    HW199934  11.872  14.195   3.555
99365SOL    HW299935  11.862  14.193   3.403
99366SOL     OW99936   4.036   5.952  13.817
99366SOL    HW199937   4.080   6.019  13.870
99366SOL    HW299938   3.985   6.001  13.753
99367SOL     OW99939   3.281  10.251   3.297
99367SOL    HW199940   3.278  10.347   3.298
99367SOL    HW299941   3.276  10.229   3.204
99368SOL     OW99942   8.791   1.383   6.162
99368SOL    HW199943   8.766   1.453   6.223
99368SOL    HW299944   8.747   1.406   6.080
99369SOL     OW99945  12.342   4.316   3.306
99369SOL    HW199946  12.349   4.245   3.369
99369SOL    HW299947  12.426   4.362   3.311
99370SOL     OW99948   7.458   9.112  10.538
99370SOL    HW199949   7.473   9.038  10.597
99370SOL    HW299950   7.422   9.072  10.459
99371SOL     OW99951   7.751   8.624   0.395
99371SOL    HW199952   7.691   8.695   0.418
99371SOL    HW299953   7.774   8.640   0.304
99372SOL     OW99954   3.355  10.614   5.598
99372SOL    HW199955   3.444  10.647   5.609
99372SOL    HW299956   3.299  10.684   5.633
99373SOL     OW99957   8.658   6.775   1.683
99373SOL    HW199958   8.597   6.707   1.713
99373SOL    HW299959   8.695   6.740   1.602
99374SOL     OW99960   5.673   7.987   2.303
99374SOL    HW199961   5.755   8.032   2.319
99374SOL    HW299962   5.654   7.942   2.386
99375SOL     OW99963   4.716   1.319   1.600
99375SOL    HW199964   4.646   1.265   1.637
99375SOL    HW299965   4.777   1.257   1.561
99376SOL     OW99966   1.579   7.729  14.443
99376SOL    HW199967   1.616   7.674  14.373
99376SOL    HW299968   1.583   7.674  14.521
99377SOL     OW99969   6.717   2.069  11.228
99377SOL    HW199970   6.667   1.990  11.207
99377SOL    HW299971   6.800   2.059  11.181
99378SOL     OW99972   1.790  13.615  14.759
99378SOL    HW199973   1.766  13.692  14.810
99378SOL    HW299974   1.807  13.548  14.825
99379SOL     OW99975   9.624   4.514   5.784
99379SOL    HW199976   9.652   4.536   5.695
99379SOL    HW299977   9.672   4.433   5.805
99380SOL     OW99978   0.734   8.027  14.741
99380SOL    HW199979   0.759   8.009  14.651
99380SOL    HW299980   0.750   7.945  14.788
99381SOL     OW99981   0.397   5.185   0.669
99381SOL    HW199982   0.367   5.181   0.760
99381SOL    HW299983   0.403   5.279   0.650
99382SOL     OW99984  12.549   5.001   3.422
99382SOL    HW199985  12.576   5.055   3.348
99382SOL    HW299986  12.594   4.918   3.409
99383SOL     OW99987   1.349   4.012   8.031
99383SOL    HW199988   1.320   3.933   8.076
99383SOL    HW299989   1.409   3.981   7.963
99384SOL     OW99990   8.471   9.537   9.992
99384SOL    HW199991   8.528   9.612  10.011
99384SOL    HW299992   8.521   9.484   9.929
99385SOL     OW99993   8.216   4.274   6.711
99385SOL    HW199994   8.172   4.338   6.655
99385SOL    HW299995   8.226   4.197   6.656
99386SOL     OW99996   3.122  13.281   9.047
99386SOL    HW199997   3.111  13.198   9.094
99386SOL    HW299998   3.192  13.327   9.093
99387SOL     OW99999   8.934   0.458   9.707
99387SOL    HW1    0   8.839   0.445   9.705
99387SOL    HW2    1   8.963   0.418   9.789
99388SOL     OW    2   7.570  11.852   6.127
99388SOL    HW1    3   7.654  11.807   6.114
99388SOL    HW2    4   7.516  11.789   6.174
99389SOL     OW    5  13.132   7.272   2.829
99389SOL    HW1    6  13.075   7.348   2.821
99389SOL    HW2    7  13.126   7.229   2.744
99390SOL     OW    8  13.193   8.885   7.232
99390SOL    HW1    9  13.102   8.885   7.200
99390SOL    HW2   10  13.195   8.953   7.298
99391SOL     OW   11  14.067  14.008  11.660
99391SOL    HW1   12  14.075  14.007  11.756
99391SOL    HW2   13  14.143  14.059  11.631
99392SOL     OW   14   3.393   2.959   7.881
99392SOL    HW1   15   3.418   2.897   7.949
99392SOL    HW2   16   3.392   3.044   7.926
99393SOL     OW   17   1.553  12.937   1.339
99393SOL    HW1   18   1.538  13.022   1.380
99393SOL    HW2   19   1.508  12.942   1.255
99394SOL     OW   20   5.791   1.565   4.285
99394SOL    HW1   21   5.696   1.573   4.276
99394SOL    HW2   22   5.825   1.646   4.247
99395SOL     OW   23   3.074   7.443   1.492
99395SOL    HW1   24   3.132   7.367   1.497
99395SOL    HW2   25   3.127   7.516   1.525
99396SOL     OW   26  13.974   9.207   2.430
99396SOL    HW1   27  14.039   9.201   2.360
99396SOL    HW2   28  14.026   9.223   2.509
99397SOL     OW   29  11.089  14.184   7.863
99397SOL    HW1   30  11.016  14.153   7.916
99397SOL    HW2   31  11.050  14.245   7.801
99398SOL     OW   32   2.600  12.725  13.592
99398SOL    HW1   33   2.560  12.685  13.514
99398SOL    HW2   34   2.571  12.816  13.590
99399SOL     OW   35  12.097   0.313   1.267
99399SOL    HW1   36  12.032   0.312   1.196
99399SOL    HW2   37  12.142   0.229   1.259
99400SOL     OW   38   7.457  12.322  14.642
99400SOL    HW1   39   7.516  12.255  14.606
99400SOL    HW2   40   7.464  12.311  14.736
99401SOL     OW   41   1.595   4.404   8.900
99401SOL    HW1   42   1.559   4.315   8.905
99401SOL    HW2   43   1.619   4.425   8.991
99402SOL     OW   44   3.382   1.910   3.311
99402SOL    HW1   45   3.393   1.928   3.404
99402SOL    HW2   46   3.458   1.856   3.288
99403SOL     OW   47   3.090   9.429   7.015
99403SOL    HW1   48   3.178   9.467   7.010
99403SOL    HW2   49   3.105   9.339   7.045
99404SOL     OW   50  13.247   0.708  12.081
99404SOL    HW1   51  13.239   0.675  11.992
99404SOL    HW2   52  13.326   0.762  12.080
99405SOL     OW   53   5.296   3.616   0.941
99405SOL    HW1   54   5.303   3.525   0.969
99405SOL    HW2   55   5.352   3.664   1.002
99406SOL     OW   56   3.291   6.687   5.854
99406SOL    HW1   57   3.265   6.774   5.885
99406SOL    HW2   58   3.297   6.635   5.934
99407SOL     OW   59   5.265   8.248  13.096
99407SOL    HW1   60   5.278   8.310  13.024
99407SOL    HW2   61   5.223   8.299  13.165
99408SOL     OW   62   7.933  12.550  11.699
99408SOL    HW1   63   7.846  12.513  11.686
99408SOL    HW2   64   7.991  12.474  11.700
99409SOL     OW   65   9.351  14.009  12.036
99409SOL    HW1   66   9.429  14.038  11.989
99409SOL    HW2   67   9.359  13.913  12.037
99410SOL     OW   68   8.323  12.407  12.892
99410SOL    HW1   69   8.350  12.317  12.872
99410SOL    HW2   70   8.228  12.402  12.901
99411SOL     OW   71   8.352  14.077   1.149
99411SOL    HW1   72   8.342  14.172   1.153
99411SOL    HW2   73   8.441  14.061   1.180
99412SOL     OW   74   1.717   0.408   9.580
99412SOL    HW1   75   1.723   0.502   9.595
99412SOL    HW2   76   1.692   0.371   9.665
99413SOL     OW   77   8.866   4.213  13.951
99413SOL    HW1   78   8.839   4.157  14.024
99413SOL    HW2   79   8.944   4.171  13.916
99414SOL     OW   80   5.466   9.724   2.275
99414SOL    HW1   81   5.416   9.647   2.246
99414SOL    HW2   82   5.473   9.779   2.197
99415SOL     OW   83   5.773   7.858   1.651
99415SOL    HW1   84   5.712   7.888   1.718
99415SOL    HW2   85   5.845   7.817   1.699
99416SOL     OW   86  14.004   8.988   8.447
99416SOL    HW1   87  13.946   9.042   8.501
99416SOL    HW2   88  14.019   8.910   8.499
99417SOL     OW   89  11.918   8.249  13.217
99417SOL    HW1   90  11.850   8.285  13.160
99417SOL    HW2   91  11.932   8.317  13.283
99418SOL     OW   92  13.797  14.416  10.102
99418SOL    HW1   93  13.834  14.410  10.190
99418SOL    HW2   94  13.776  14.326  10.079
99419SOL     OW   95   1.453  11.428   1.279
99419SOL    HW1   96   1.393  11.364   1.317
99419SOL    HW2   97   1.426  11.512   1.316
99420SOL     OW   98   3.224   2.769  13.664
99420SOL    HW1   99   3.129   2.783  13.668
99420SOL    HW2  100   3.261   2.856  13.667
99421SOL     OW  101   1.971  10.345   4.957
99421SOL    HW1  102   2.016  10.426   4.982
99421SOL    HW2  103   1.919  10.322   5.033
99422SOL     OW  104  13.017   2.747  10.533
99422SOL    HW1  105  13.041   2.832  10.570
99422SOL    HW2  106  12.965   2.705  10.602
99423SOL     OW  107   7.930   2.222   8.488
99423SOL    HW1  108   8.019   2.220   8.523
99423SOL    HW2  109   7.879   2.263   8.558
99424SOL     OW  110   0.945  13.056  13.810
99424SOL    HW1  111   0.916  12.996  13.879
99424SOL    HW2  112   0.890  13.035  13.735
99425SOL     OW  113   9.069   7.440  14.304
99425SOL    HW1  114   9.099   7.464  14.392
99425SOL    HW2  115   9.063   7.523  14.257
99426SOL     OW  116   1.823  12.397   8.884
99426SOL    HW1  117   1.888  12.464   8.905
99426SOL    HW2  118   1.818  12.398   8.788
99427SOL     OW  119  11.271   1.172   1.425
99427SOL    HW1  120  11.290   1.112   1.497
99427SOL    HW2  121  11.282   1.118   1.346
99428SOL     OW  122   9.587   6.557   4.522
99428SOL    HW1  123   9.646   6.503   4.575
99428SOL    HW2  124   9.580   6.510   4.439
99429SOL     OW  125   3.245   9.548   1.185
99429SOL    HW1  126   3.281   9.523   1.101
99429SOL    HW2  127   3.188   9.475   1.210
99430SOL     OW  128   8.895  13.918   7.541
99430SOL    HW1  129   8.962  13.850   7.543
99430SOL    HW2  130   8.813  13.871   7.526
99431SOL     OW  131   6.730   0.607   3.703
99431SOL    HW1  132   6.734   0.676   3.769
99431SOL    HW2  133   6.740   0.654   3.620
99432SOL     OW  134  10.379   1.810  13.512
99432SOL    HW1  135  10.468   1.838  13.494
99432SOL    HW2  136  10.349   1.770  13.430
99433SOL     OW  137  12.464   7.538  13.386
99433SOL    HW1  138  12.487   7.629  13.406
99433SOL    HW2  139  12.538   7.487  13.420
99434SOL     OW  140  12.552   3.209   5.387
99434SOL    HW1  141  12.522   3.128   5.346
99434SOL    HW2  142  12.483   3.233   5.448
99435SOL     OW  143   5.506   6.408  10.051
99435SOL    HW1  144   5.422   6.429  10.009
99435SOL    HW2  145   5.523   6.483  10.109
99436SOL     OW  146   9.244   4.766   1.532
99436SOL    HW1  147   9.317   4.804   1.482
99436SOL    HW2  148   9.254   4.671   1.520
99437SOL     OW  149   4.053   9.802   7.005
99437SOL    HW1  150   4.085   9.874   6.950
99437SOL    HW2  151   4.066   9.833   7.094
99438SOL     OW  152  11.969   4.255   8.407
99438SOL    HW1  153  12.054   4.273   8.367
99438SOL    HW2  154  11.989   4.198   8.481
99439SOL     OW  155   7.944  11.556   9.241
99439SOL    HW1  156   7.983  11.544   9.154
99439SOL    HW2  157   7.954  11.649   9.259
99440SOL     OW  158   0.569  14.473  13.317
99440SOL    HW1  159   0.523  14.547  13.278
99440SOL    HW2  160   0.581  14.411  13.245
99441SOL     OW  161   4.103  12.216   1.520
99441SOL    HW1  162   4.139  12.130   1.542
99441SOL    HW2  163   4.089  12.213   1.425
99442SOL     OW  164  13.503  10.244   9.803
99442SOL    HW1  165  13.423  10.292   9.826
99442SOL    HW2  166  13.538  10.214   9.886
99443SOL     OW  167   4.313   9.960   6.903
99443SOL    HW1  168   4.310  10.013   6.824
99443SOL    HW2  169   4.387   9.900   6.889
99444SOL     OW  170   1.357  14.738  10.495
99444SOL    HW1  171   1.367  14.726  10.401
99444SOL    HW2  172   1.403  14.819  10.514
99445SOL     OW  173  11.679   2.536   3.857
99445SOL    HW1  174  11.710   2.466   3.915
99445SOL    HW2  175  11.756   2.558   3.804
99446SOL     OW  176   1.126   8.936  11.095
99446SOL    HW1  177   1.060   8.995  11.059
99446SOL    HW2  178   1.178   8.909  11.020
99447SOL     OW  179  11.140   5.969  12.878
99447SOL    HW1  180  11.142   6.001  12.969
99447SOL    HW2  181  11.047   5.959  12.858
99448SOL     OW  182  13.811   2.734   9.374
99448SOL    HW1  183  13.753   2.809   9.368
99448SOL    HW2  184  13.891   2.769   9.415
99449SOL     OW  185   4.655   5.037   3.786
99449SOL    HW1  186   4.606   4.957   3.768
99449SOL    HW2  187   4.636   5.056   3.878
99450SOL     OW  188   3.893   0.632   2.540
99450SOL    HW1  189   3.895   0.689   2.617
99450SOL    HW2  190   3.950   0.674   2.476
99451SOL     OW  191  14.823   3.627  14.169
99451SOL    HW1  192  14.824   3.532  14.174
99451SOL    HW2  193  14.731   3.651  14.175
99452SOL     OW  194   6.729   4.545   5.361
99452SOL    HW1  195   6.643   4.585   5.368
99452SOL    HW2  196   6.754   4.523   5.451
99453SOL     OW  197  13.159   0.596   4.341
99453SOL    HW1  198  13.213   0.549   4.279
99453SOL    HW2  199  13.073   0.602   4.299
99454SOL     OW  200   3.372  12.084   4.798
99454SOL    HW1  201   3.332  12.096   4.712
99454SOL    HW2  202   3.460  12.122   4.788
99455SOL     OW  203  13.669   6.368  14.680
99455SOL    HW1  204  13.709   6.290  14.641
99455SOL    HW2  205  13.714   6.442  14.639
99456SOL     OW  206  14.154  10.169  12.032
99456SOL    HW1  207  14.207  10.216  12.097
99456SOL    HW2  208  14.073  10.148  12.079
99457SOL     OW  209  11.375   1.788   1.677
99457SOL    HW1  210  11.287   1.755   1.693
99457SOL    HW2  211  11.381   1.797   1.582
99458SOL     OW  212   4.269  14.258  12.808
99458SOL    HW1  213   4.265  14.338  12.755
99458SOL    HW2  214   4.183  14.253  12.849
99459SOL     OW  215  10.101   3.200  14.334
99459SOL    HW1  216  10.132   3.286  14.364
99459SOL    HW2  217  10.017   3.218  14.292
99460SOL     OW  218   2.758   5.927   0.550
99460SOL    HW1  219   2.841   5.974   0.546
99460SOL    HW2  220   2.720   5.937   0.463
99461SOL     OW  221   0.818   1.312  13.299
99461SOL    HW1  222   0.847   1.232  13.255
99461SOL    HW2  223   0.896   1.368  13.301
99462SOL     OW  224  13.694  12.345   9.597
99462SOL    HW1  225  13.774  12.369   9.645
99462SOL    HW2  226  13.669  12.424   9.550
99463SOL     OW  227   9.821  10.938   7.306
99463SOL    HW1  228   9.759  10.986   7.249
99463SOL    HW2  229   9.795  10.847   7.298
99464SOL     OW  230   7.310   1.651  13.539
99464SOL    HW1  231   7.288   1.639  13.447
99464SOL    HW2  232   7.226   1.651  13.584
99465SOL     OW  233   5.992   6.673  12.536
99465SOL    HW1  234   6.043   6.743  12.576
99465SOL    HW2  235   5.969   6.706  12.449
99466SOL     OW  236   4.895  12.396   0.611
99466SOL    HW1  237   4.975  12.342   0.608
99466SOL    HW2  238   4.876  12.403   0.705
99467SOL     OW  239   3.919   3.837   1.200
99467SOL    HW1  240   3.843   3.782   1.182
99467SOL    HW2  241   3.908   3.866   1.291
99468SOL     OW  242   8.150   5.600   0.887
99468SOL    HW1  243   8.242   5.614   0.910
99468SOL    HW2  244   8.124   5.522   0.936
99469SOL     OW  245  13.908   9.206  12.564
99469SOL    HW1  246  13.932   9.244  12.648
99469SOL    HW2  247  13.946   9.118  12.566
99470SOL     OW  248  12.961   7.365  14.726
99470SOL    HW1  249  13.046   7.360  14.682
99470SOL    HW2  250  12.905   7.303  14.677
99471SOL     OW  251   7.985  13.293   4.544
99471SOL    HW1  252   8.070  13.336   4.544
99471SOL    HW2  253   7.924  13.361   4.515
99472SOL     OW  254   5.168  13.083  14.269
99472SOL    HW1  255   5.123  13.127  14.196
99472SOL    HW2  256   5.218  13.152  14.311
99473SOL     OW  257  10.079   0.680   3.664
99473SOL    HW1  258  10.003   0.673   3.723
99473SOL    HW2  259  10.113   0.591   3.658
99474SOL     OW  260   0.634  12.050   2.251
99474SOL    HW1  261   0.560  12.041   2.311
99474SOL    HW2  262   0.609  12.121   2.192
99475SOL     OW  263  14.139   1.165   5.771
99475SOL    HW1  264  14.123   1.235   5.707
99475SOL    HW2  265  14.197   1.105   5.725
99476SOL     OW  266   2.846   5.545   6.228
99476SOL    HW1  267   2.784   5.488   6.275
99476SOL    HW2  268   2.897   5.485   6.174
99477SOL     OW  269   6.043  14.716  13.667
99477SOL    HW1  270   6.027  14.755  13.753
99477SOL    HW2  271   5.959  14.723  13.622
99478SOL     OW  272   9.584  14.565   1.164
99478SOL    HW1  273   9.611  14.575   1.255
99478SOL    HW2  274   9.648  14.505   1.126
99479SOL     OW  275  14.327   8.590   8.805
99479SOL    HW1  276  14.399   8.592   8.867
99479SOL    HW2  277  14.344   8.664   8.746
99480SOL     OW  278  10.142   2.214   1.325
99480SOL    HW1  279  10.101   2.295   1.295
99480SOL    HW2  280  10.236   2.232   1.322
99481SOL     OW  281  11.392   6.046  13.574
99481SOL    HW1  282  11.483   6.015  13.583
99481SOL    HW2  283  11.384   6.117  13.636
99482SOL     OW  284   3.752  13.555   6.137
99482SOL    HW1  285   3.665  13.534   6.102
99482SOL    HW2  286   3.736  13.577   6.229
99483SOL     OW  287   1.284  10.569   8.369
99483SOL    HW1  288   1.305  10.645   8.422
99483SOL    HW2  289   1.226  10.516   8.425
99484SOL     OW  290   6.638  11.500  11.706
99484SOL    HW1  291   6.644  11.535  11.617
99484SOL    HW2  292   6.544  11.486  11.720
99485SOL     OW  293  14.055   9.133   2.908
99485SOL    HW1  294  13.977   9.135   2.965
99485SOL    HW2  295  14.103   9.055   2.937
99486SOL     OW  296  13.178   5.456   4.467
99486SOL    HW1  297  13.187   5.436   4.560
99486SOL    HW2  298  13.262   5.497   4.444
99487SOL     OW  299   8.849   2.695  13.052
99487SOL    HW1  300   8.920   2.742  13.008
99487SOL    HW2  301   8.829   2.749  13.129
99488SOL     OW  302  12.623   9.960   4.068
99488SOL    HW1  303  12.547   9.914   4.103
99488SOL    HW2  304  12.587  10.040   4.029
99489SOL     OW  305  12.125  12.726   1.477
99489SOL    HW1  306  12.057  12.741   1.412
99489SOL    HW2  307  12.085  12.752   1.560
99490SOL     OW  308   6.359  12.110  12.249
99490SOL    HW1  309   6.329  12.022  12.273
99490SOL    HW2  310   6.437  12.124  12.303
99491SOL     OW  311   4.069  11.796   4.686
99491SOL    HW1  312   4.093  11.870   4.742
99491SOL    HW2  313   4.085  11.826   4.597
99492SOL     OW  314  13.757   6.303   8.923
99492SOL    HW1  315  13.810   6.383   8.927
99492SOL    HW2  316  13.692   6.315   8.992
99493SOL     OW  317   8.712   4.477  12.705
99493SOL    HW1  318   8.625   4.439  12.695
99493SOL    HW2  319   8.706   4.529  12.786
99494SOL     OW  320   3.213  14.733   4.981
99494SOL    HW1  321   3.264  14.750   4.902
99494SOL    HW2  322   3.129  14.774   4.965
99495SOL     OW  323  12.416   7.738   4.996
99495SOL    HW1  324  12.498   7.763   4.955
99495SOL    HW2  325  12.412   7.643   4.987
99496SOL     OW  326   1.948   6.889   4.171
99496SOL    HW1  327   1.885   6.846   4.228
99496SOL    HW2  328   1.988   6.819   4.120
99497SOL     OW  329   6.499   2.889   6.530
99497SOL    HW1  330   6.448   2.888   6.450
99497SOL    HW2  331   6.541   2.803   6.533
99498SOL     OW  332   4.676   6.579  11.445
99498SOL    HW1  333   4.591   6.551  11.413
99498SOL    HW2  334   4.656   6.642  11.514
99499SOL     OW  335   2.862  12.694   6.380
99499SOL    HW1  336   2.863  12.706   6.285
99499SOL    HW2  337   2.934  12.635   6.398
99500SOL     OW  338   1.168   7.230   0.016
99500SOL    HW1  339   1.210   7.164  14.837
99500SOL    HW2  340   1.202   7.212   0.104
99501SOL     OW  341   2.907   7.075  13.004
99501SOL    HW1  342   2.975   7.009  13.019
99501SOL    HW2  343   2.925   7.143  13.068
99502SOL     OW  344  11.648   9.291  11.473
99502SOL    HW1  345  11.628   9.284  11.567
99502SOL    HW2  346  11.724   9.349  11.469
99503SOL     OW  347  11.466   2.825   4.601
99503SOL    HW1  348  11.434   2.915   4.593
99503SOL    HW2  349  11.560   2.832   4.586
99504SOL     OW  350  14.023  11.645   3.653
99504SOL    HW1  351  14.027  11.722   3.709
99504SOL    HW2  352  14.009  11.572   3.713
99505SOL     OW  353  14.282   3.839   4.829
99505SOL    HW1  354  14.373   3.809   4.829
99505SOL    HW2  355  14.276   3.896   4.906
99506SOL     OW  356   0.880   2.483  13.987
99506SOL    HW1  357   0.821   2.433  13.930
99506SOL    HW2  358   0.918   2.417  14.045
99507SOL     OW  359  11.334  10.059   8.740
99507SOL    HW1  360  11.340  10.153   8.724
99507SOL    HW2  361  11.278  10.051   8.817
99508SOL     OW  362   7.851   1.089   8.166
99508SOL    HW1  363   7.758   1.071   8.179
99508SOL    HW2  364   7.882   1.119   8.251
99509SOL     OW  365   7.633  13.865   9.289
99509SOL    HW1  366   7.614  13.785   9.239
99509SOL    HW2  367   7.571  13.929   9.255
99510SOL     OW  368   9.976   4.192   1.256
99510SOL    HW1  369   9.881   4.190   1.248
99510SOL    HW2  370   9.996   4.124   1.321
99511SOL     OW  371   3.210   3.473  14.464
99511SOL    HW1  372   3.294   3.494  14.424
99511SOL    HW2  373   3.202   3.534  14.537
99512SOL     OW  374   1.297   3.078   9.571
99512SOL    HW1  375   1.334   2.993   9.545
99512SOL    HW2  376   1.224   3.091   9.510
99513SOL     OW  377   2.393   8.390   6.655
99513SOL    HW1  378   2.444   8.350   6.726
99513SOL    HW2  379   2.418   8.340   6.577
99514SOL     OW  380   0.024   6.748  10.953
99514SOL    HW1  381   0.098   6.703  10.912
99514SOL    HW2  382   0.041   6.841  10.938
99515SOL     OW  383   4.338  14.293   6.306
99515SOL    HW1  384   4.391  14.221   6.271
99515SOL    HW2  385   4.364  14.369   6.255
99516SOL     OW  386   3.647  14.318   5.507
99516SOL    HW1  387   3.610  14.404   5.489
99516SOL    HW2  388   3.742  14.331   5.501
99517SOL     OW  389   7.691  14.497   6.627
99517SOL    HW1  390   7.734  14.533   6.549
99517SOL    HW2  391   7.600  14.525   6.619
99518SOL     OW  392   1.744   6.859  11.058
99518SOL    HW1  393   1.752   6.950  11.086
99518SOL    HW2  394   1.734   6.810  11.139
99519SOL     OW  395   7.684  13.266   0.781
99519SOL    HW1  396   7.627  13.189   0.782
99519SOL    HW2  397   7.722  13.268   0.869
99520SOL     OW  398   1.707   8.741  11.854
99520SOL    HW1  399   1.670   8.829  11.858
99520SOL    HW2  400   1.801   8.754  11.847
99521SOL     OW  401  11.781   5.531   3.659
99521SOL    HW1  402  11.841   5.476   3.710
99521SOL    HW2  403  11.837   5.580   3.600
99522SOL     OW  404  10.285  10.856  13.734
99522SOL    HW1  405  10.353  10.850  13.801
99522SOL    HW2  406  10.312  10.929  13.679
99523SOL     OW  407   8.058   0.706   3.894
99523SOL    HW1  408   7.996   0.639   3.923
99523SOL    HW2  409   8.126   0.706   3.962
99524SOL     OW  410  12.199  12.230  13.395
99524SOL    HW1  411  12.105  12.225  13.416
99524SOL    HW2  412  12.241  12.179  13.464
99525SOL     OW  413   1.324  10.022   0.156
99525SOL    HW1  414   1.398  10.080   0.140
99525SOL    HW2  415   1.271  10.068   0.221
99526SOL     OW  416   0.451   9.113   6.794
99526SOL    HW1  417   0.473   9.183   6.732
99526SOL    HW2  418   0.442   9.158   6.878
99527SOL     OW  419   9.984  10.311   7.251
99527SOL    HW1  420  10.026  10.290   7.167
99527SOL    HW2  421   9.897  10.342   7.226
99528SOL     OW  422   8.271   2.060   4.380
99528SOL    HW1  423   8.252   2.145   4.340
99528SOL    HW2  424   8.321   2.081   4.459
99529SOL     OW  425   1.026   8.216  10.120
99529SOL    HW1  426   1.064   8.128  10.126
99529SOL    HW2  427   0.957   8.217  10.186
99530SOL     OW  428   5.021   9.350   3.369
99530SOL    HW1  429   5.074   9.319   3.442
99530SOL    HW2  430   5.047   9.442   3.358
99531SOL     OW  431   8.251   9.891   4.901
99531SOL    HW1  432   8.337   9.857   4.927
99531SOL    HW2  433   8.197   9.885   4.979
99532SOL     OW  434   1.052  11.116   8.078
99532SOL    HW1  435   1.038  11.184   8.143
99532SOL    HW2  436   1.122  11.150   8.022
99533SOL     OW  437   4.556   4.903   6.790
99533SOL    HW1  438   4.476   4.861   6.822
99533SOL    HW2  439   4.607   4.832   6.753
99534SOL     OW  440  11.533  10.268   9.636
99534SOL    HW1  441  11.541  10.276   9.731
99534SOL    HW2  442  11.589  10.336   9.601
99535SOL     OW  443   7.601   0.624   1.286
99535SOL    HW1  444   7.532   0.658   1.343
99535SOL    HW2  445   7.638   0.550   1.334
99536SOL     OW  446  11.366   5.804   4.792
99536SOL    HW1  447  11.330   5.875   4.845
99536SOL    HW2  448  11.291   5.746   4.776
99537SOL     OW  449   5.651  12.500   3.773
99537SOL    HW1  450   5.589  12.568   3.744
99537SOL    HW2  451   5.693  12.538   3.851
99538SOL     OW  452   8.278   9.153   0.480
99538SOL    HW1  453   8.200   9.142   0.535
99538SOL    HW2  454   8.281   9.247   0.463
99539SOL     OW  455   9.225   6.289  13.465
99539SOL    HW1  456   9.218   6.285  13.369
99539SOL    HW2  457   9.145   6.246  13.496
99540SOL     OW  458   2.136   6.732   3.138
99540SOL    HW1  459   2.062   6.744   3.198
99540SOL    HW2  460   2.186   6.813   3.145
99541SOL     OW  461  11.720   6.247   7.294
99541SOL    HW1  462  11.806   6.272   7.326
99541SOL    HW2  463  11.685   6.189   7.362
99542SOL     OW  464  13.065   6.915   1.918
99542SOL    HW1  465  13.145   6.934   1.968
99542SOL    HW2  466  13.063   6.819   1.911
99543SOL     OW  467   2.698  11.305  14.072
99543SOL    HW1  468   2.650  11.259  14.141
99543SOL    HW2  469   2.758  11.364  14.120
99544SOL     OW  470  11.876   5.620  14.423
99544SOL    HW1  471  11.863   5.529  14.396
99544SOL    HW2  472  11.955   5.648  14.377
99545SOL     OW  473   0.227   0.371   8.405
99545SOL    HW1  474   0.134   0.388   8.422
99545SOL    HW2  475   0.233   0.276   8.397
99546SOL     OW  476   4.321   4.850  14.599
99546SOL    HW1  477   4.373   4.879  14.524
99546SOL    HW2  478   4.325   4.754  14.596
99547SOL     OW  479   9.960  13.519  13.782
99547SOL    HW1  480   9.950  13.424  13.783
99547SOL    HW2  481   9.954  13.542  13.689
99548SOL     OW  482  12.486  14.330  14.101
99548SOL    HW1  483  12.530  14.246  14.106
99548SOL    HW2  484  12.396  14.312  14.126
99549SOL     OW  485   5.024   9.591   6.524
99549SOL    HW1  486   5.117   9.567   6.521
99549SOL    HW2  487   4.980   9.520   6.476
99550SOL     OW  488   5.666  10.539   8.623
99550SOL    HW1  489   5.591  10.554   8.680
99550SOL    HW2  490   5.692  10.627   8.594
99551SOL     OW  491  11.587   6.547  12.272
99551SOL    HW1  492  11.498   6.580  12.262
99551SOL    HW2  493  11.603   6.497  12.192
99552SOL     OW  494   0.715  14.384  12.422
99552SOL    HW1  495   0.687  14.346  12.339
99552SOL    HW2  496   0.742  14.310  12.475
99553SOL     OW  497   7.011  12.761   6.163
99553SOL    HW1  498   6.957  12.731   6.237
99553SOL    HW2  499   6.974  12.846   6.140
99554SOL     OW  500   0.561   2.432   7.736
99554SOL    HW1  501   0.511   2.351   7.724
99554SOL    HW2  502   0.576   2.437   7.831
99555SOL     OW  503   3.690  11.554   1.057
99555SOL    HW1  504   3.749  11.486   1.089
99555SOL    HW2  505   3.724  11.635   1.096
99556SOL     OW  506  14.413   4.199   0.060
99556SOL    HW1  507  14.378   4.275   0.106
99556SOL    HW2  508  14.428   4.134   0.129
99557SOL     OW  509   7.462   1.215  11.437
99557SOL    HW1  510   7.457   1.143  11.499
99557SOL    HW2  511   7.378   1.211  11.389
99558SOL     OW  512   2.942   5.794   8.294
99558SOL    HW1  513   2.906   5.859   8.354
99558SOL    HW2  514   2.869   5.770   8.237
99559SOL     OW  515   2.220   5.227  11.752
99559SOL    HW1  516   2.259   5.301  11.705
99559SOL    HW2  517   2.292   5.193  11.806
99560SOL     OW  518   3.241   5.659   3.589
99560SOL    HW1  519   3.186   5.604   3.535
99560SOL    HW2  520   3.206   5.649   3.678
99561SOL     OW  521  12.755   8.289  10.497
99561SOL    HW1  522  12.752   8.194  10.501
99561SOL    HW2  523  12.669   8.317  10.530
99562SOL     OW  524   4.000   2.194   4.755
99562SOL    HW1  525   3.919   2.188   4.703
99562SOL    HW2  526   4.053   2.120   4.725
99563SOL     OW  527  14.083   2.811   1.230
99563SOL    HW1  528  14.030   2.874   1.181
99563SOL    HW2  529  14.067   2.727   1.186
99564SOL     OW  530   9.042   3.960   0.633
99564SOL    HW1  531   8.977   3.895   0.608
99564SOL    HW2  532   9.047   3.953   0.729
99565SOL     OW  533   7.625   2.338   2.575
99565SOL    HW1  534   7.708   2.297   2.603
99565SOL    HW2  535   7.587   2.371   2.656
99566SOL     OW  536  14.636  10.791   5.063
99566SOL    HW1  537  14.704  10.751   5.009
99566SOL    HW2  538  14.560  10.735   5.052
99567SOL     OW  539   1.666   9.321  14.645
99567SOL    HW1  540   1.668   9.397  14.703
99567SOL    HW2  541   1.758   9.307  14.620
99568SOL     OW  542  14.534  13.072   8.856
99568SOL    HW1  543  14.608  13.131   8.873
99568SOL    HW2  544  14.490  13.064   8.940
99569SOL     OW  545   6.416  11.405   4.278
99569SOL    HW1  546   6.367  11.333   4.318
99569SOL    HW2  547   6.461  11.447   4.352
99570SOL     OW  548   2.354  11.026   3.944
99570SOL    HW1  549   2.279  11.078   3.973
99570SOL    HW2  550   2.424  11.048   4.006
99571SOL     OW  551   9.007   0.231   6.633
99571SOL    HW1  552   8.958   0.277   6.701
99571SOL    HW2  553   8.954   0.153   6.614
99572SOL     OW  554  12.456  11.997  11.865
99572SOL    HW1  555  12.378  12.000  11.809
99572SOL    HW2  556  12.422  11.988  11.954
99573SOL     OW  557  14.583   4.414   0.527
99573SOL    HW1  558  14.591   4.468   0.448
99573SOL    HW2  559  14.488   4.411   0.543
99574SOL     OW  560  10.318   7.575  11.234
99574SOL    HW1  561  10.336   7.647  11.173
99574SOL    HW2  562  10.265   7.615  11.303
99575SOL     OW  563  10.932   5.166  10.914
99575SOL    HW1  564  10.883   5.088  10.890
99575SOL    HW2  565  11.010   5.163  10.859
99576SOL     OW  566   9.203  13.308   1.996
99576SOL    HW1  567   9.257  13.387   1.993
99576SOL    HW2  568   9.231  13.264   2.076
99577SOL     OW  569  13.061   7.002   5.137
99577SOL    HW1  570  12.999   6.935   5.107
99577SOL    HW2  571  13.090   6.971   5.223
99578SOL     OW  572  11.639  10.355   9.380
99578SOL    HW1  573  11.636  10.449   9.362
99578SOL    HW2  574  11.553  10.322   9.355
99579SOL     OW  575  14.258   0.664  10.982
99579SOL    HW1  576  14.331   0.686  11.041
99579SOL    HW2  577  14.258   0.734  10.917
99580SOL     OW  578  10.315   4.223  11.316
99580SOL    HW1  579  10.362   4.229  11.233
99580SOL    HW2  580  10.223   4.234  11.292
99581SOL     OW  581   0.906   1.318  11.836
99581SOL    HW1  582   0.933   1.266  11.760
99581SOL    HW2  583   0.839   1.264  11.878
99582SOL     OW  584   0.777  11.566   3.532
99582SOL    HW1  585   0.766  11.655   3.567
99582SOL    HW2  586   0.814  11.516   3.605
99583SOL     OW  587   5.945  12.626  11.093
99583SOL    HW1  588   5.998  12.564  11.143
99583SOL    HW2  589   5.986  12.628  11.007
99584SOL     OW  590   6.776   2.372   4.190
99584SOL    HW1  591   6.853   2.427   4.203
99584SOL    HW2  592   6.805   2.305   4.128
99585SOL     OW  593   5.724  13.807   8.190
99585SOL    HW1  594   5.708  13.752   8.114
99585SOL    HW2  595   5.818  13.822   8.189
99586SOL     OW  596   7.319   2.512   6.460
99586SOL    HW1  597   7.349   2.545   6.545
99586SOL    HW2  598   7.369   2.432   6.445
99587SOL     OW  599   9.037  11.927  11.818
99587SOL    HW1  600   8.949  11.923  11.857
99587SOL    HW2  601   9.090  11.974  11.883
99588SOL     OW  602  14.278   8.313   7.995
99588SOL    HW1  603  14.255   8.405   7.988
99588SOL    HW2  604  14.284   8.297   8.089
99589SOL     OW  605  14.050   2.541   5.644
99589SOL    HW1  606  13.977   2.507   5.697
99589SOL    HW2  607  14.091   2.463   5.607
99590SOL     OW  608   5.900   9.892   3.329
99590SOL    HW1  609   5.841   9.929   3.394
99590SOL    HW2  610   5.979   9.869   3.378
99591SOL     OW  611   0.488   9.579   8.583
99591SOL    HW1  612   0.531   9.531   8.655
99591SOL    HW2  613   0.499   9.522   8.507
99592SOL     OW  614   1.504   2.586   4.700
99592SOL    HW1  615   1.560   2.662   4.711
99592SOL    HW2  616   1.416   2.622   4.690
99593SOL     OW  617   0.763   1.276   5.220
99593SOL    HW1  618   0.815   1.197   5.208
99593SOL    HW2  619   0.690   1.248   5.276
99594SOL     OW  620  13.375  10.554   2.191
99594SOL    HW1  621  13.394  10.552   2.285
99594SOL    HW2  622  13.330  10.472   2.174
99595SOL     OW  623   8.938   5.659  11.440
99595SOL    HW1  624   8.876   5.587  11.456
99595SOL    HW2  625   9.023   5.623  11.466
99596SOL     OW  626  12.290   9.901   1.546
99596SOL    HW1  627  12.326   9.813   1.537
99596SOL    HW2  628  12.203   9.896   1.507
99597SOL     OW  629   6.611   1.762   3.717
99597SOL    HW1  630   6.666   1.838   3.700
99597SOL    HW2  631   6.641   1.696   3.655
99598SOL     OW  632  10.730   7.589   7.743
99598SOL    HW1  633  10.690   7.668   7.706
99598SOL    HW2  634  10.800   7.566   7.682
99599SOL     OW  635   2.483   0.710   4.393
99599SOL    HW1  636   2.519   0.714   4.481
99599SOL    HW2  637   2.389   0.695   4.407
99600SOL     OW  638   6.061  14.757  12.031
99600SOL    HW1  639   5.970  14.786  12.021
99600SOL    HW2  640   6.110  14.836  12.051
99601SOL     OW  641   3.421   1.310   6.990
99601SOL    HW1  642   3.340   1.278   7.028
99601SOL    HW2  643   3.483   1.311   7.063
99602SOL     OW  644   3.440   4.738   6.488
99602SOL    HW1  645   3.473   4.766   6.403
99602SOL    HW2  646   3.362   4.793   6.503
99603SOL     OW  647  13.949   3.975   1.007
99603SOL    HW1  648  14.044   3.964   1.010
99603SOL    HW2  649  13.915   3.898   1.053
99604SOL     OW  650   0.506   7.165  10.530
99604SOL    HW1  651   0.597   7.188  10.514
99604SOL    HW2  652   0.485   7.102  10.461
99605SOL     OW  653  12.510  10.266   2.908
99605SOL    HW1  654  12.553  10.188   2.944
99605SOL    HW2  655  12.499  10.245   2.815
99606SOL     OW  656  14.809  11.616   1.939
99606SOL    HW1  657  14.872  11.640   1.871
99606SOL    HW2  658  14.762  11.541   1.901
99607SOL     OW  659   1.586   9.322   2.371
99607SOL    HW1  660   1.627   9.405   2.394
99607SOL    HW2  661   1.626   9.257   2.429
99608SOL     OW  662  11.522   9.618   0.392
99608SOL    HW1  663  11.491   9.529   0.404
99608SOL    HW2  664  11.496   9.664   0.472
99609SOL     OW  665   6.806  13.836   2.220
99609SOL    HW1  666   6.744  13.890   2.171
99609SOL    HW2  667   6.892  13.863   2.187
99610SOL     OW  668  10.165   9.046   1.083
99610SOL    HW1  669  10.202   9.131   1.059
99610SOL    HW2  670  10.206   9.026   1.167
99611SOL     OW  671   2.917   5.457   4.252
99611SOL    HW1  672   2.863   5.519   4.205
99611SOL    HW2  673   2.950   5.506   4.328
99612SOL     OW  674   7.167  10.174   8.924
99612SOL    HW1  675   7.256  10.198   8.896
99612SOL    HW2  676   7.142  10.243   8.985
99613SOL     OW  677   0.079   3.302  10.412
99613SOL    HW1  678   0.137   3.230  10.389
99613SOL    HW2  679   0.102   3.372  10.351
99614SOL     OW  680   3.662   4.867   5.349
99614SOL    HW1  681   3.706   4.952   5.346
99614SOL    HW2  682   3.687   4.830   5.433
99615SOL     OW  683  10.250   1.474  14.745
99615SOL    HW1  684  10.187   1.422  14.795
99615SOL    HW2  685  10.278   1.543  14.804
99616SOL     OW  686  14.048   8.828   6.570
99616SOL    HW1  687  13.985   8.871   6.513
99616SOL    HW2  688  14.003   8.821   6.654
99617SOL     OW  689   5.247   7.821   2.147
99617SOL    HW1  690   5.228   7.842   2.238
99617SOL    HW2  691   5.161   7.798   2.110
99618SOL     OW  692  10.393   0.484  12.935
99618SOL    HW1  693  10.435   0.462  13.018
99618SOL    HW2  694  10.316   0.534  12.960
99619SOL     OW  695  12.903  13.951  13.234
99619SOL    HW1  696  12.835  13.961  13.300
99619SOL    HW2  697  12.974  14.008  13.264
99620SOL     OW  698   1.574   4.935   4.422
99620SOL    HW1  699   1.507   4.938   4.355
99620SOL    HW2  700   1.560   5.013   4.475
99621SOL     OW  701   0.302   9.281   7.631
99621SOL    HW1  702   0.268   9.193   7.620
99621SOL    HW2  703   0.235   9.327   7.682
99622SOL     OW  704   6.270   6.703   4.397
99622SOL    HW1  705   6.187   6.734   4.431
99622SOL    HW2  706   6.336   6.740   4.455
99623SOL     OW  707   8.248   8.083   5.169
99623SOL    HW1  708   8.259   8.003   5.118
99623SOL    HW2  709   8.155   8.085   5.192
99624SOL     OW  710  10.738   4.215   6.827
99624SOL    HW1  711  10.805   4.149   6.808
99624SOL    HW2  712  10.788   4.295   6.843
99625SOL     OW  713  12.306  11.945   4.163
99625SOL    HW1  714  12.223  11.901   4.148
99625SOL    HW2  715  12.312  11.953   4.258
99626SOL     OW  716  13.532   9.079  10.459
99626SOL    HW1  717  13.607   9.135  10.479
99626SOL    HW2  718  13.569   9.005  10.412
99627SOL     OW  719  13.610   4.496  14.007
99627SOL    HW1  720  13.690   4.480  14.057
99627SOL    HW2  721  13.552   4.542  14.068
99628SOL     OW  722  14.204  10.128  13.246
99628SOL    HW1  723  14.239  10.215  13.228
99628SOL    HW2  724  14.259  10.094  13.317
99629SOL     OW  725   2.315  11.531  11.098
99629SOL    HW1  726   2.301  11.626  11.101
99629SOL    HW2  727   2.349  11.510  11.185
99630SOL     OW  728   0.704   1.051   2.418
99630SOL    HW1  729   0.724   1.026   2.508
99630SOL    HW2  730   0.608   1.055   2.414
99631SOL     OW  731   4.857   4.123   8.076
99631SOL    HW1  732   4.798   4.197   8.089
99631SOL    HW2  733   4.930   4.159   8.026
99632SOL     OW  734   0.155   3.804   9.700
99632SOL    HW1  735   0.220   3.841   9.640
99632SOL    HW2  736   0.171   3.849   9.782
99633SOL     OW  737  12.094   2.894   6.435
99633SOL    HW1  738  12.102   2.969   6.494
99633SOL    HW2  739  12.001   2.873   6.435
99634SOL     OW  740   7.804   7.334   2.319
99634SOL    HW1  741   7.844   7.395   2.257
99634SOL    HW2  742   7.860   7.338   2.396
99635SOL     OW  743  10.558   9.645   1.364
99635SOL    HW1  744  10.603   9.594   1.431
99635SOL    HW2  745  10.467   9.613   1.368
99636SOL     OW  746   5.772   1.600   5.859
99636SOL    HW1  747   5.705   1.599   5.790
99636SOL    HW2  748   5.855   1.592   5.812
99637SOL     OW  749   2.286   9.529  10.903
99637SOL    HW1  750   2.282   9.516  10.998
99637SOL    HW2  751   2.320   9.618  10.892
99638SOL     OW  752   5.761   6.202  10.473
99638SOL    HW1  753   5.697   6.269  10.447
99638SOL    HW2  754   5.844   6.232  10.436
99639SOL     OW  755   7.859  10.338   2.330
99639SOL    HW1  756   7.907  10.286   2.395
99639SOL    HW2  757   7.770  10.304   2.333
99640SOL     OW  758   4.710   6.778   2.943
99640SOL    HW1  759   4.762   6.712   2.989
99640SOL    HW2  760   4.619   6.750   2.954
99641SOL     OW  761   5.181   5.601  12.730
99641SOL    HW1  762   5.217   5.515  12.750
99641SOL    HW2  763   5.252   5.648  12.687
99642SOL     OW  764  11.388   3.663   0.714
99642SOL    HW1  765  11.341   3.660   0.797
99642SOL    HW2  766  11.476   3.632   0.736
99643SOL     OW  767  14.721  10.016  12.517
99643SOL    HW1  768  14.634   9.992  12.547
99643SOL    HW2  769  14.780   9.970  12.576
99644SOL     OW  770  14.285  11.705   8.770
99644SOL    HW1  771  14.219  11.735   8.708
99644SOL    HW2  772  14.318  11.623   8.732
99645SOL     OW  773  10.638   0.801   7.447
99645SOL    HW1  774  10.629   0.852   7.528
99645SOL    HW2  775  10.574   0.731   7.456
99646SOL     OW  776  13.469   1.850   3.061
99646SOL    HW1  777  13.536   1.899   3.109
99646SOL    HW2  778  13.406   1.825   3.128
99647SOL     OW  779   7.681  14.873   3.201
99647SOL    HW1  780   7.754  14.829   3.245
99647SOL    HW2  781   7.654  14.812   3.132
99648SOL     OW  782   0.366  10.533  12.549
99648SOL    HW1  783   0.327  10.503  12.631
99648SOL    HW2  784   0.402  10.454  12.509
99649SOL     OW  785  13.741   4.146   0.894
99649SOL    HW1  786  13.808   4.080   0.913
99649SOL    HW2  787  13.752   4.166   0.801
99650SOL     OW  788   3.149  13.284   7.953
99650SOL    HW1  789   3.073  13.226   7.957
99650SOL    HW2  790   3.224  13.225   7.950
99651SOL     OW  791   7.991   5.164  14.422
99651SOL    HW1  792   7.930   5.131  14.488
99651SOL    HW2  793   8.050   5.092  14.404
99652SOL     OW  794   6.819   9.801   6.587
99652SOL    HW1  795   6.759   9.794   6.661
99652SOL    HW2  796   6.818   9.714   6.547
99653SOL     OW  797   3.084   3.566   4.723
99653SOL    HW1  798   3.101   3.553   4.816
99653SOL    HW2  799   3.171   3.563   4.682
99654SOL     OW  800  14.836   0.598   7.783
99654SOL    HW1  801  14.766   0.552   7.736
99654SOL    HW2  802  14.803   0.687   7.794
99655SOL     OW  803  12.557   1.116   8.843
99655SOL    HW1  804  12.513   1.168   8.775
99655SOL    HW2  805  12.579   1.180   8.911
99656SOL     OW  806   1.485   5.783  10.465
99656SOL    HW1  807   1.413   5.799  10.405
99656SOL    HW2  808   1.446   5.785  10.552
99657SOL     OW  809  13.123   0.216   9.307
99657SOL    HW1  810  13.146   0.124   9.317
99657SOL    HW2  811  13.055   0.231   9.373
99658SOL     OW  812  10.334  11.389   5.312
99658SOL    HW1  813  10.259  11.383   5.252
99658SOL    HW2  814  10.315  11.465   5.367
99659SOL     OW  815   7.981  13.122   3.198
99659SOL    HW1  816   8.073  13.132   3.219
99659SOL    HW2  817   7.941  13.206   3.220
99660SOL     OW  818  10.359   9.220  13.303
99660SOL    HW1  819  10.385   9.301  13.345
99660SOL    HW2  820  10.268   9.235  13.278
99661SOL     OW  821  14.160   8.884   7.180
99661SOL    HW1  822  14.189   8.796   7.159
99661SOL    HW2  823  14.117   8.876   7.265
99662SOL     OW  824  13.628   5.982   1.269
99662SOL    HW1  825  13.542   5.947   1.247
99662SOL    HW2  826  13.647   6.045   1.199
99663SOL     OW  827   4.755   5.726   5.882
99663SOL    HW1  828   4.660   5.714   5.872
99663SOL    HW2  829   4.769   5.819   5.864
99664SOL     OW  830   5.053   7.785   0.753
99664SOL    HW1  831   5.018   7.848   0.689
99664SOL    HW2  832   5.140   7.819   0.774
99665SOL     OW  833  10.607  14.067   3.506
99665SOL    HW1  834  10.553  14.096   3.579
99665SOL    HW2  835  10.586  14.128   3.435
99666SOL     OW  836   5.627   0.081  13.422
99666SOL    HW1  837   5.640   0.175  13.415
99666SOL    HW2  838   5.665   0.045  13.342
99667SOL     OW  839   7.873   3.240   7.206
99667SOL    HW1  840   7.880   3.335   7.203
99667SOL    HW2  841   7.963   3.209   7.195
99668SOL     OW  842   8.726  13.481  10.965
99668SOL    HW1  843   8.758  13.525  11.043
99668SOL    HW2  844   8.700  13.394  10.995
99669SOL     OW  845   6.811   2.755   9.372
99669SOL    HW1  846   6.798   2.674   9.324
99669SOL    HW2  847   6.885   2.736   9.431
99670SOL     OW  848  10.922  11.078   3.739
99670SOL    HW1  849  10.844  11.127   3.767
99670SOL    HW2  850  10.936  11.013   3.808
99671SOL     OW  851   7.269   2.603   1.427
99671SOL    HW1  852   7.175   2.611   1.413
99671SOL    HW2  853   7.298   2.542   1.359
99672SOL     OW  854   8.918  14.136  13.521
99672SOL    HW1  855   8.928  14.042  13.507
99672SOL    HW2  856   9.008  14.171  13.516
99673SOL     OW  857   1.914  11.283   6.743
99673SOL    HW1  858   1.903  11.193   6.712
99673SOL    HW2  859   1.924  11.274   6.838
99674SOL     OW  860   7.142  14.324  11.256
99674SOL    HW1  861   7.053  14.301  11.230
99674SOL    HW2  862   7.133  14.356  11.346
99675SOL     OW  863   1.323   0.351  13.562
99675SOL    HW1  864   1.362   0.412  13.625
99675SOL    HW2  865   1.234   0.384  13.550
99676SOL     OW  866   4.474   3.791   4.247
99676SOL    HW1  867   4.551   3.777   4.302
99676SOL    HW2  868   4.484   3.880   4.213
99677SOL     OW  869   2.487  12.156  10.045
99677SOL    HW1  870   2.505  12.231  10.101
99677SOL    HW2  871   2.420  12.106  10.091
99678SOL     OW  872   6.026  10.736  11.252
99678SOL    HW1  873   6.102  10.795  11.250
99678SOL    HW2  874   6.029  10.698  11.340
99679SOL     OW  875  14.722   7.720  12.167
99679SOL    HW1  876  14.674   7.781  12.223
99679SOL    HW2  877  14.675   7.637  12.175
99680SOL     OW  878  10.004   4.811  12.807
99680SOL    HW1  879  10.079   4.839  12.754
99680SOL    HW2  880   9.994   4.879  12.874
99681SOL     OW  881  14.016   0.886   1.894
99681SOL    HW1  882  13.933   0.913   1.854
99681SOL    HW2  883  14.078   0.881   1.821
99682SOL     OW  884   0.647   7.698  14.597
99682SOL    HW1  885   0.718   7.654  14.549
99682SOL    HW2  886   0.585   7.725  14.529
99683SOL     OW  887  14.593   4.792  12.071
99683SOL    HW1  888  14.590   4.856  12.000
99683SOL    HW2  889  14.654   4.724  12.041
99684SOL     OW  890   0.554   0.628   2.295
99684SOL    HW1  891   0.542   0.700   2.233
99684SOL    HW2  892   0.642   0.642   2.331
99685SOL     OW  893  12.305   8.147  11.109
99685SOL    HW1  894  12.396   8.137  11.082
99685SOL    HW2  895  12.310   8.181  11.198
99686SOL     OW  896   7.128  10.052   9.881
99686SOL    HW1  897   7.218  10.084   9.871
99686SOL    HW2  898   7.102  10.082   9.969
99687SOL     OW  899  14.032  10.504   1.963
99687SOL    HW1  900  14.098  10.573   1.970
99687SOL    HW2  901  14.083  10.423   1.959
99688SOL     OW  902   3.042   0.259  12.303
99688SOL    HW1  903   3.066   0.263  12.395
99688SOL    HW2  904   2.955   0.299  12.299
99689SOL     OW  905   9.370   5.643   7.600
99689SOL    HW1  906   9.316   5.588   7.544
99689SOL    HW2  907   9.438   5.676   7.541
99690SOL     OW  908   7.890  13.554   9.540
99690SOL    HW1  909   7.826  13.544   9.610
99690SOL    HW2  910   7.860  13.630   9.490
99691SOL     OW  911  14.413   3.866   6.556
99691SOL    HW1  912  14.408   3.770   6.561
99691SOL    HW2  913  14.384   3.895   6.642
99692SOL     OW  914   1.664   2.296   7.027
99692SOL    HW1  915   1.745   2.343   7.051
99692SOL    HW2  916   1.596   2.364   7.029
99693SOL     OW  917   4.503   3.912  13.999
99693SOL    HW1  918   4.546   3.958  14.071
99693SOL    HW2  919   4.419   3.955  13.990
99694SOL     OW  920   0.231   9.004   8.398
99694SOL    HW1  921   0.325   9.007   8.414
99694SOL    HW2  922   0.193   9.064   8.463
99695SOL     OW  923   1.375   3.299   7.007
99695SOL    HW1  924   1.470   3.304   7.017
99695SOL    HW2  925   1.343   3.287   7.096
99696SOL     OW  926  13.647   8.041  12.453
99696SOL    HW1  927  13.730   8.036  12.406
99696SOL    HW2  928  13.588   8.087  12.393
99697SOL     OW  929   9.238   5.608   5.608
99697SOL    HW1  930   9.253   5.515   5.628
99697SOL    HW2  931   9.312   5.653   5.647
99698SOL     OW  932   0.132   8.433   0.571
99698SOL    HW1  933   0.179   8.413   0.652
99698SOL    HW2  934   0.046   8.393   0.582
99699SOL     OW  935   0.662   9.312  12.357
99699SOL    HW1  936   0.741   9.353  12.393
99699SOL    HW2  937   0.666   9.331  12.264
99700SOL     OW  938   1.335  12.642   8.204
99700SOL    HW1  939   1.360  12.552   8.227
99700SOL    HW2  940   1.276  12.632   8.130
99701SOL     OW  941   2.075   2.573   3.955
99701SOL    HW1  942   2.000   2.588   4.012
99701SOL    HW2  943   2.046   2.600   3.869
99702SOL     OW  944   8.978   1.189  14.373
99702SOL    HW1  945   8.950   1.227  14.289
99702SOL    HW2  946   9.022   1.108  14.349
99703SOL     OW  947  10.187   6.231   7.799
99703SOL    HW1  948  10.237   6.149   7.794
99703SOL    HW2  949  10.096   6.204   7.788
99704SOL     OW  950   7.880  12.025  11.426
99704SOL    HW1  951   7.950  12.050  11.366
99704SOL    HW2  952   7.871  11.931  11.416
99705SOL     OW  953   6.134   4.519  12.660
99705SOL    HW1  954   6.052   4.541  12.617
99705SOL    HW2  955   6.134   4.572  12.740
99706SOL     OW  956  14.151  11.981   7.925
99706SOL    HW1  957  14.153  12.071   7.957
99706SOL    HW2  958  14.206  11.982   7.847
99707SOL     OW  959  10.842   1.558  14.316
99707SOL    HW1  960  10.794   1.615  14.256
99707SOL    HW2  961  10.934   1.573  14.295
99708SOL     OW  962   5.749  14.496  13.826
99708SOL    HW1  963   5.756  14.416  13.775
99708SOL    HW2  964   5.713  14.561  13.764
99709SOL     OW  965   8.800   2.074  14.153
99709SOL    HW1  966   8.845   2.149  14.115
99709SOL    HW2  967   8.860   2.001  14.142
99710SOL     OW  968   7.983   6.331   4.461
99710SOL    HW1  969   7.997   6.393   4.533
99710SOL    HW2  970   7.978   6.387   4.383
99711SOL     OW  971   9.142   0.627  12.740
99711SOL    HW1  972   9.145   0.537  12.771
99711SOL    HW2  973   9.234   0.649  12.722
99712SOL     OW  974   2.862   2.942   7.045
99712SOL    HW1  975   2.871   2.848   7.031
99712SOL    HW2  976   2.771   2.961   7.025
99713SOL     OW  977  12.673   0.613   1.335
99713SOL    HW1  978  12.608   0.683   1.328
99713SOL    HW2  979  12.647   0.564   1.413
99714SOL     OW  980  14.144   5.482   3.690
99714SOL    HW1  981  14.187   5.563   3.660
99714SOL    HW2  982  14.052   5.506   3.698
99715SOL     OW  983   7.403   0.363   8.322
99715SOL    HW1  984   7.449   0.280   8.335
99715SOL    HW2  985   7.421   0.413   8.401
99716SOL     OW  986  13.766  10.373  11.172
99716SOL    HW1  987  13.757  10.438  11.242
99716SOL    HW2  988  13.736  10.291  11.211
99717SOL     OW  989   1.385   6.377   4.868
99717SOL    HW1  990   1.368   6.366   4.962
99717SOL    HW2  991   1.311   6.333   4.825
99718SOL     OW  992  10.229   5.928  10.543
99718SOL    HW1  993  10.163   5.863  10.520
99718SOL    HW2  994  10.277   5.889  10.616
99719SOL     OW  995  12.742   0.307  14.767
99719SOL    HW1  996  12.766   0.288  14.858
99719SOL    HW2  997  12.725   0.401  14.766
99720SOL     OW  998   9.719   3.593   8.618
99720SOL    HW1  999   9.810   3.600   8.646
99720SOL    HW2 1000   9.720   3.526   8.549
99721SOL     OW 1001   3.634   9.322   2.210
99721SOL    HW1 1002   3.619   9.350   2.300
99721SOL    HW2 1003   3.678   9.238   2.217
99722SOL     OW 1004   8.724   5.294  12.973
99722SOL    HW1 1005   8.783   5.231  12.931
99722SOL    HW2 1006   8.714   5.365  12.910
99723SOL     OW 1007   9.386   1.867   8.238
99723SOL    HW1 1008   9.445   1.862   8.313
99723SOL    HW2 1009   9.298   1.867   8.276
99724SOL     OW 1010  13.933   7.574   3.963
99724SOL    HW1 1011  14.011   7.594   4.014
99724SOL    HW2 1012  13.860   7.589   4.023
99725SOL     OW 1013  11.391  10.550   8.470
99725SOL    HW1 1014  11.374  10.638   8.436
99725SOL    HW2 1015  11.476  10.558   8.514
99726SOL     OW 1016   6.589   5.083   6.878
99726SOL    HW1 1017   6.504   5.095   6.920
99726SOL    HW2 1018   6.619   5.172   6.860
99727SOL     OW 1019   9.780   6.547   3.147
99727SOL    HW1 1020   9.854   6.604   3.125
99727SOL    HW2 1021   9.820   6.467   3.180
99728SOL     OW 1022   9.494   6.235   9.431
99728SOL    HW1 1023   9.446   6.295   9.374
99728SOL    HW2 1024   9.533   6.171   9.371
99729SOL     OW 1025   8.670  11.909   9.917
99729SOL    HW1 1026   8.755  11.864   9.917
99729SOL    HW2 1027   8.681  11.980   9.854
99730SOL     OW 1028   3.948   4.577   1.068
99730SOL    HW1 1029   4.008   4.602   0.998
99730SOL    HW2 1030   3.980   4.491   1.098
99731SOL     OW 1031  13.539   8.478  13.788
99731SOL    HW1 1032  13.508   8.557  13.830
99731SOL    HW2 1033  13.556   8.503  13.697
99732SOL     OW 1034   8.988   5.248   0.956
99732SOL    HW1 1035   8.976   5.174   0.898
99732SOL    HW2 1036   8.900   5.284   0.968
99733SOL     OW 1037   2.183   5.425   9.189
99733SOL    HW1 1038   2.227   5.403   9.271
99733SOL    HW2 1039   2.239   5.388   9.121
99734SOL     OW 1040  13.081   2.801  12.544
99734SOL    HW1 1041  13.175   2.818  12.548
99734SOL    HW2 1042  13.040   2.882  12.574
99735SOL     OW 1043  13.867   2.591   9.766
99735SOL    HW1 1044  13.828   2.524   9.822
99735SOL    HW2 1045  13.840   2.674   9.806
99736SOL     OW 1046  12.752   0.776  12.159
99736SOL    HW1 1047  12.835   0.755  12.202
99736SOL    HW2 1048  12.767   0.862  12.120
99737SOL     OW 1049   1.006   7.491  13.875
99737SOL    HW1 1050   1.001   7.395  13.867
99737SOL    HW2 1051   1.004   7.507  13.969
99738SOL     OW 1052  10.799  12.300  13.618
99738SOL    HW1 1053  10.775  12.367  13.554
99738SOL    HW2 1054  10.721  12.290  13.673
99739SOL     OW 1055   3.360  14.298  12.420
99739SOL    HW1 1056   3.370  14.204  12.438
99739SOL    HW2 1057   3.266  14.313  12.429
99740SOL     OW 1058   5.893   4.302   8.682
99740SOL    HW1 1059   5.948   4.336   8.753
99740SOL    HW2 1060   5.889   4.208   8.699
99741SOL     OW 1061   5.033  11.587   0.328
99741SOL    HW1 1062   5.013  11.493   0.332
99741SOL    HW2 1063   4.986  11.618   0.251
99742SOL     OW 1064   7.975   1.774   0.216
99742SOL    HW1 1065   7.986   1.704   0.151
99742SOL    HW2 1066   8.064   1.798   0.242
99743SOL     OW 1067   6.624  13.944   7.025
99743SOL    HW1 1068   6.682  13.936   6.949
99743SOL    HW2 1069   6.583  13.858   7.033
99744SOL     OW 1070   0.817   4.055   5.108
99744SOL    HW1 1071   0.746   4.066   5.171
99744SOL    HW2 1072   0.774   4.054   5.023
99745SOL     OW 1073   2.246   9.559   0.733
99745SOL    HW1 1074   2.250   9.652   0.751
99745SOL    HW2 1075   2.239   9.553   0.638
99746SOL     OW 1076  13.213  11.091   6.283
99746SOL    HW1 1077  13.194  11.184   6.274
99746SOL    HW2 1078  13.270  11.071   6.210
99747SOL     OW 1079   0.873   2.670   0.167
99747SOL    HW1 1080   0.881   2.676   0.262
99747SOL    HW2 1081   0.784   2.702   0.148
99748SOL     OW 1082   9.664  11.347   4.492
99748SOL    HW1 1083   9.593  11.404   4.523
99748SOL    HW2 1084   9.718  11.331   4.570
99749SOL     OW 1085   3.105  13.057   3.655
99749SOL    HW1 1086   3.126  12.977   3.606
99749SOL    HW2 1087   3.131  13.038   3.745
99750SOL     OW 1088  12.336  10.359  12.858
99750SOL    HW1 1089  12.378  10.381  12.775
99750SOL    HW2 1090  12.343  10.439  12.910
99751SOL     OW 1091   3.661   4.567   8.745
99751SOL    HW1 1092   3.645   4.481   8.706
99751SOL    HW2 1093   3.671   4.549   8.839
99752SOL     OW 1094   3.366   6.931   1.585
99752SOL    HW1 1095   3.427   6.922   1.658
99752SOL    HW2 1096   3.398   6.868   1.519
99753SOL     OW 1097   9.664   7.345   8.273
99753SOL    HW1 1098   9.666   7.315   8.182
99753SOL    HW2 1099   9.694   7.436   8.269
99754SOL     OW 1100   1.792   6.992   4.486
99754SOL    HW1 1101   1.802   7.014   4.579
99754SOL    HW2 1102   1.861   7.042   4.442
99755SOL     OW 1103   0.942   0.886  13.605
99755SOL    HW1 1104   1.007   0.820  13.628
99755SOL    HW2 1105   0.870   0.836  13.566
99756SOL     OW 1106  14.507  11.886   5.985
99756SOL    HW1 1107  14.542  11.874   5.897
99756SOL    HW2 1108  14.421  11.925   5.972
99757SOL     OW 1109  13.405   9.937  14.178
99757SOL    HW1 1110  13.410   9.908  14.087
99757SOL    HW2 1111  13.375  10.028  14.172
99758SOL     OW 1112  11.943  14.811  10.656
99758SOL    HW1 1113  11.945  14.716  10.658
99758SOL    HW2 1114  11.888  14.832  10.580
99759SOL     OW 1115   4.030  10.455   2.007
99759SOL    HW1 1116   4.086  10.524   2.044
99759SOL    HW2 1117   3.991  10.496   1.930
99760SOL     OW 1118   8.836  12.263  12.262
99760SOL    HW1 1119   8.745  12.282  12.285
99760SOL    HW2 1120   8.830  12.216  12.179
99761SOL     OW 1121   6.183   1.563  11.408
99761SOL    HW1 1122   6.237   1.497  11.452
99761SOL    HW2 1123   6.132   1.604  11.478
99762SOL     OW 1124  13.767  13.704   3.078
99762SOL    HW1 1125  13.763  13.649   3.156
99762SOL    HW2 1126  13.769  13.793   3.112
99763SOL     OW 1127  10.231   8.547  10.095
99763SOL    HW1 1128  10.181   8.470  10.067
99763SOL    HW2 1129  10.276   8.519  10.175
99764SOL     OW 1130  14.480  12.383   3.981
99764SOL    HW1 1131  14.554  12.426   4.025
99764SOL    HW2 1132  14.465  12.437   3.904
99765SOL     OW 1133   1.854   0.874   8.445
99765SOL    HW1 1134   1.858   0.824   8.527
99765SOL    HW2 1135   1.878   0.963   8.471
99766SOL     OW 1136   7.176  13.530  14.716
99766SOL    HW1 1137   7.130  13.446  14.724
99766SOL    HW2 1138   7.227  13.521  14.636
99767SOL     OW 1139   9.826   8.423   7.111
99767SOL    HW1 1140   9.901   8.415   7.052
99767SOL    HW2 1141   9.849   8.493   7.171
99768SOL     OW 1142  10.746   4.454   8.823
99768SOL    HW1 1143  10.809   4.526   8.833
99768SOL    HW2 1144  10.666   4.497   8.792
99769SOL     OW 1145   3.168  13.849   0.307
99769SOL    HW1 1146   3.259  13.820   0.303
99769SOL    HW2 1147   3.163  13.902   0.386
99770SOL     OW 1148   1.254   9.120   6.911
99770SOL    HW1 1149   1.188   9.088   6.850
99770SOL    HW2 1150   1.206   9.134   6.993
99771SOL     OW 1151   8.238   8.790   2.884
99771SOL    HW1 1152   8.268   8.847   2.813
99771SOL    HW2 1153   8.151   8.823   2.907
99772SOL     OW 1154   3.205   3.594   9.978
99772SOL    HW1 1155   3.230   3.510   9.941
99772SOL    HW2 1156   3.288   3.642   9.987
99773SOL     OW 1157   1.156  11.601  11.722
99773SOL    HW1 1158   1.063  11.604  11.701
99773SOL    HW2 1159   1.160  11.618  11.816
99774SOL     OW 1160   4.635   3.420   4.128
99774SOL    HW1 1161   4.668   3.498   4.172
99774SOL    HW2 1162   4.542   3.438   4.114
99775SOL     OW 1163   2.266   5.815   0.203
99775SOL    HW1 1164   2.256   5.867   0.124
99775SOL    HW2 1165   2.195   5.845   0.260
99776SOL     OW 1166   6.921  11.717  13.748
99776SOL    HW1 1167   6.932  11.706  13.842
99776SOL    HW2 1168   6.826  11.710  13.734
99777SOL     OW 1169  13.223  10.980   4.347
99777SOL    HW1 1170  13.225  10.980   4.443
99777SOL    HW2 1171  13.315  10.984   4.321
99778SOL     OW 1172   8.153   4.977  11.899
99778SOL    HW1 1173   8.153   5.064  11.939
99778SOL    HW2 1174   8.244   4.961  11.875
99779SOL     OW 1175   2.632  11.400   9.550
99779SOL    HW1 1176   2.586  11.484   9.552
99779SOL    HW2 1177   2.567  11.338   9.517
99780SOL     OW 1178  11.278  14.211   2.952
99780SOL    HW1 1179  11.354  14.179   2.904
99780SOL    HW2 1180  11.217  14.137   2.952
99781SOL     OW 1181  12.682   7.746  14.346
99781SOL    HW1 1182  12.690   7.671  14.286
99781SOL    HW2 1183  12.664   7.820  14.289
99782SOL     OW 1184   1.277   9.617   3.624
99782SOL    HW1 1185   1.210   9.550   3.606
99782SOL    HW2 1186   1.306   9.598   3.713
99783SOL     OW 1187   3.354  12.054   6.470
99783SOL    HW1 1188   3.378  12.085   6.383
99783SOL    HW2 1189   3.382  11.962   6.471
99784SOL     OW 1190   8.213  12.410  11.460
99784SOL    HW1 1191   8.180  12.364  11.537
99784SOL    HW2 1192   8.290  12.359  11.434
99785SOL     OW 1193   9.483   2.024  13.169
99785SOL    HW1 1194   9.452   1.947  13.122
99785SOL    HW2 1195   9.505   2.087  13.101
99786SOL     OW 1196   1.601   8.560   6.523
99786SOL    HW1 1197   1.611   8.640   6.574
99786SOL    HW2 1198   1.645   8.579   6.440
99787SOL     OW 1199   7.890   6.676  10.551
99787SOL    HW1 1200   7.872   6.583  10.559
99787SOL    HW2 1201   7.955   6.694  10.619
99788SOL     OW 1202   9.123   8.132   6.564
99788SOL    HW1 1203   9.158   8.072   6.497
99788SOL    HW2 1204   9.046   8.171   6.523
99789SOL     OW 1205   6.942   9.681   7.913
99789SOL    HW1 1206   6.853   9.714   7.902
99789SOL    HW2 1207   6.993   9.726   7.845
99790SOL     OW 1208  14.717   3.971   0.607
99790SOL    HW1 1209  14.793   3.941   0.557
99790SOL    HW2 1210  14.727   4.066   0.611
99791SOL     OW 1211   7.901   0.820  10.553
99791SOL    HW1 1212   7.959   0.779  10.489
99791SOL    HW2 1213   7.923   0.778  10.636
99792SOL     OW 1214   1.483  14.086  14.439
99792SOL    HW1 1215   1.468  14.050  14.352
99792SOL    HW2 1216   1.456  14.178  14.433
99793SOL     OW 1217  13.884   5.246   0.645
99793SOL    HW1 1218  13.834   5.167   0.663
99793SOL    HW2 1219  13.975   5.217   0.645
99794SOL     OW 1220   2.213  12.050  14.202
99794SOL    HW1 1221   2.239  11.979  14.261
99794SOL    HW2 1222   2.204  12.008  14.116
99795SOL     OW 1223   1.552   5.140   9.745
99795SOL    HW1 1224   1.601   5.214   9.781
99795SOL    HW2 1225   1.609   5.105   9.677
99796SOL     OW 1226   6.477   1.296   9.942
99796SOL    HW1 1227   6.539   1.363   9.914
99796SOL    HW2 1228   6.477   1.301  10.038
99797SOL     OW 1229   1.908   9.934   4.399
99797SOL    HW1 1230   1.886   9.846   4.429
99797SOL    HW2 1231   1.824   9.978   4.389
99798SOL     OW 1232   9.549   7.511   3.650
99798SOL    HW1 1233   9.604   7.445   3.692
99798SOL    HW2 1234   9.468   7.465   3.630
99799SOL     OW 1235   0.170   5.207   9.770
99799SOL    HW1 1236   0.124   5.151   9.707
99799SOL    HW2 1237   0.188   5.287   9.721
99800SOL     OW 1238  13.693  13.875  12.870
99800SOL    HW1 1239  13.688  13.891  12.964
99800SOL    HW2 1240  13.783  13.848  12.855
99801SOL     OW 1241   1.393   4.487  12.708
99801SOL    HW1 1242   1.367   4.435  12.785
99801SOL    HW2 1243   1.487   4.473  12.701
99802SOL     OW 1244  11.926   7.313   1.975
99802SOL    HW1 1245  11.866   7.360   2.033
99802SOL    HW2 1246  11.872   7.286   1.901
99803SOL     OW 1247  11.410   2.669   8.097
99803SOL    HW1 1248  11.375   2.605   8.159
99803SOL    HW2 1249  11.501   2.641   8.083
99804SOL     OW 1250   2.685   8.302   4.078
99804SOL    HW1 1251   2.701   8.330   4.168
99804SOL    HW2 1252   2.692   8.383   4.027
99805SOL     OW 1253  11.352  10.074   5.004
99805SOL    HW1 1254  11.406  10.151   5.019
99805SOL    HW2 1255  11.265  10.100   5.033
99806SOL     OW 1256   3.549   2.010   2.153
99806SOL    HW1 1257   3.564   1.995   2.060
99806SOL    HW2 1258   3.632   1.986   2.195
99807SOL     OW 1259   3.439   4.573   5.222
99807SOL    HW1 1260   3.437   4.551   5.129
99807SOL    HW2 1261   3.448   4.488   5.267
99808SOL     OW 1262   2.433   9.396   1.764
99808SOL    HW1 1263   2.529   9.402   1.768
99808SOL    HW2 1264   2.404   9.487   1.758
99809SOL     OW 1265  13.937  13.507   4.548
99809SOL    HW1 1266  13.949  13.579   4.609
99809SOL    HW2 1267  14.025  13.490   4.513
99810SOL     OW 1268   6.300  10.998   9.186
99810SOL    HW1 1269   6.367  10.947   9.141
99810SOL    HW2 1270   6.234  11.017   9.119
99811SOL     OW 1271  11.492   2.469   8.932
99811SOL    HW1 1272  11.465   2.556   8.960
99811SOL    HW2 1273  11.427   2.410   8.970
99812SOL     OW 1274   9.090   9.991  14.648
99812SOL    HW1 1275   9.093   9.936  14.570
99812SOL    HW2 1276   9.007   9.968  14.691
99813SOL     OW 1277   1.210   9.526   6.229
99813SOL    HW1 1278   1.290   9.525   6.282
99813SOL    HW2 1279   1.182   9.618   6.231
99814SOL     OW 1280   8.198   3.013  14.106
99814SOL    HW1 1281   8.147   3.020  14.187
99814SOL    HW2 1282   8.189   2.921  14.081
99815SOL     OW 1283   1.164  13.635   5.240
99815SOL    HW1 1284   1.098  13.662   5.177
99815SOL    HW2 1285   1.236  13.697   5.228
99816SOL     OW 1286  11.739   3.668  13.795
99816SOL    HW1 1287  11.720   3.747  13.845
99816SOL    HW2 1288  11.830   3.679  13.767
99817SOL     OW 1289   4.165  11.525  13.080
99817SOL    HW1 1290   4.116  11.606  13.072
99817SOL    HW2 1291   4.211  11.515  12.997
99818SOL     OW 1292   7.844  14.185   8.080
99818SOL    HW1 1293   7.790  14.263   8.094
99818SOL    HW2 1294   7.900  14.207   8.006
99819SOL     OW 1295   8.704   4.907  12.784
99819SOL    HW1 1296   8.683   4.835  12.724
99819SOL    HW2 1297   8.630   4.967  12.778
99820SOL     OW 1298  10.632   0.188   2.278
99820SOL    HW1 1299  10.631   0.264   2.336
99820SOL    HW2 1300  10.718   0.191   2.236
99821SOL     OW 1301   6.061   6.459   1.647
99821SOL    HW1 1302   6.013   6.465   1.564
99821SOL    HW2 1303   6.063   6.549   1.680
99822SOL     OW 1304   6.391  11.627   2.295
99822SOL    HW1 1305   6.396  11.702   2.236
99822SOL    HW2 1306   6.416  11.552   2.241
99823SOL     OW 1307   5.281  14.789  11.086
99823SOL    HW1 1308   5.203  14.825  11.044
99823SOL    HW2 1309   5.325  14.865  11.124
99824SOL     OW 1310   1.916  12.965  13.000
99824SOL    HW1 1311   1.894  12.920  12.918
99824SOL    HW2 1312   1.979  12.907  13.043
99825SOL     OW 1313   8.744   8.035   4.294
99825SOL    HW1 1314   8.737   8.111   4.351
99825SOL    HW2 1315   8.837   8.014   4.292
99826SOL     OW 1316   5.112   3.673   8.452
99826SOL    HW1 1317   5.179   3.656   8.386
99826SOL    HW2 1318   5.065   3.590   8.461
99827SOL     OW 1319  11.220   5.961   7.959
99827SOL    HW1 1320  11.190   5.880   7.918
99827SOL    HW2 1321  11.152   6.025   7.939
99828SOL     OW 1322  10.952  12.799   4.660
99828SOL    HW1 1323  10.879  12.860   4.653
99828SOL    HW2 1324  11.025  12.852   4.692
99829SOL     OW 1325   7.720   8.328   4.417
99829SOL    HW1 1326   7.639   8.361   4.379
99829SOL    HW2 1327   7.779   8.404   4.419
99830SOL     OW 1328  13.807   4.028   2.373
99830SOL    HW1 1329  13.839   3.943   2.403
99830SOL    HW2 1330  13.882   4.069   2.330
99831SOL     OW 1331   1.424   6.016   7.639
99831SOL    HW1 1332   1.452   6.096   7.682
99831SOL    HW2 1333   1.341   5.994   7.681
99832SOL     OW 1334   6.849  13.066   2.975
99832SOL    HW1 1335   6.850  13.137   3.038
99832SOL    HW2 1336   6.776  13.011   3.002
99833SOL     OW 1337   4.246   0.367   8.595
99833SOL    HW1 1338   4.171   0.356   8.536
99833SOL    HW2 1339   4.233   0.299   8.662
99834SOL     OW 1340  11.512   8.638  11.901
99834SOL    HW1 1341  11.448   8.696  11.941
99834SOL    HW2 1342  11.478   8.550  11.919
99835SOL     OW 1343  12.752   8.839  14.240
99835SOL    HW1 1344  12.819   8.887  14.191
99835SOL    HW2 1345  12.733   8.895  14.315
99836SOL     OW 1346   6.788   0.442   2.525
99836SOL    HW1 1347   6.812   0.521   2.573
99836SOL    HW2 1348   6.696   0.456   2.502
99837SOL     OW 1349   0.467   2.805  14.440
99837SOL    HW1 1350   0.506   2.837  14.359
99837SOL    HW2 1351   0.483   2.710  14.439
99838SOL     OW 1352   7.181  10.631   4.209
99838SOL    HW1 1353   7.261  10.610   4.257
99838SOL    HW2 1354   7.203  10.615   4.117
99839SOL     OW 1355   7.909   6.303   2.006
99839SOL    HW1 1356   7.916   6.283   1.912
99839SOL    HW2 1357   8.000   6.306   2.036
99840SOL     OW 1358   0.005  12.000   1.322
99840SOL    HW1 1359  14.821  11.938   1.283
99840SOL    HW2 1360   0.039  12.050   1.248
99841SOL     OW 1361  11.185   0.930   7.776
99841SOL    HW1 1362  11.172   1.002   7.838
99841SOL    HW2 1363  11.183   0.851   7.831
99842SOL     OW 1364  10.424  12.166  14.242
99842SOL    HW1 1365  10.484  12.160  14.316
99842SOL    HW2 1366  10.480  12.163  14.165
99843SOL     OW 1367  12.441   9.906   3.011
99843SOL    HW1 1368  12.370   9.845   3.034
99843SOL    HW2 1369  12.520   9.852   3.011
99844SOL     OW 1370   2.726   0.357   5.584
99844SOL    HW1 1371   2.755   0.268   5.562
99844SOL    HW2 1372   2.633   0.347   5.605
99845SOL     OW 1373  10.465  13.620   8.967
99845SOL    HW1 1374  10.460  13.526   8.951
99845SOL    HW2 1375  10.559  13.639   8.971
99846SOL     OW 1376   3.046   9.927   2.670
99846SOL    HW1 1377   3.092   9.843   2.683
99846SOL    HW2 1378   3.005   9.919   2.584
99847SOL     OW 1379  10.302   2.023  10.308
99847SOL    HW1 1380  10.260   2.069  10.235
99847SOL    HW2 1381  10.267   1.934  10.304
99848SOL     OW 1382  12.068  10.191   1.300
99848SOL    HW1 1383  12.011  10.148   1.236
99848SOL    HW2 1384  12.052  10.143   1.382
99849SOL     OW 1385   9.965  12.476   8.573
99849SOL    HW1 1386   9.927  12.392   8.545
99849SOL    HW2 1387  10.008  12.510   8.494
99850SOL     OW 1388  13.984   0.473   2.412
99850SOL    HW1 1389  14.059   0.513   2.369
99850SOL    HW2 1390  13.911   0.533   2.393
99851SOL     OW 1391   1.935   0.409  14.064
99851SOL    HW1 1392   1.955   0.319  14.090
99851SOL    HW2 1393   1.910   0.453  14.145
99852SOL     OW 1394   1.253   3.748   5.230
99852SOL    HW1 1395   1.302   3.743   5.312
99852SOL    HW2 1396   1.162   3.737   5.256
99853SOL     OW 1397  13.365  13.243  14.644
99853SOL    HW1 1398  13.351  13.185  14.719
99853SOL    HW2 1399  13.456  13.271  14.651
99854SOL     OW 1400   8.942  14.435   7.258
99854SOL    HW1 1401   8.942  14.512   7.201
99854SOL    HW2 1402   8.862  14.442   7.309
99855SOL     OW 1403  10.951   9.771   8.230
99855SOL    HW1 1404  10.963   9.686   8.188
99855SOL    HW2 1405  10.975   9.756   8.322
99856SOL     OW 1406   0.100  11.179  14.384
99856SOL    HW1 1407   0.061  11.141  14.305
99856SOL    HW2 1408   0.193  11.188  14.362
99857SOL     OW 1409   7.831   7.769  12.795
99857SOL    HW1 1410   7.797   7.831  12.731
99857SOL    HW2 1411   7.886   7.822  12.853
99858SOL     OW 1412   6.501  14.038   0.921
99858SOL    HW1 1413   6.429  14.044   0.858
99858SOL    HW2 1414   6.466  14.076   1.002
99859SOL     OW 1415   3.055  10.264   0.394
99859SOL    HW1 1416   3.112  10.193   0.364
99859SOL    HW2 1417   3.006  10.226   0.467
99860SOL     OW 1418   8.905   1.400  12.345
99860SOL    HW1 1419   8.980   1.359  12.389
99860SOL    HW2 1420   8.909   1.492  12.371
99861SOL     OW 1421   4.124   1.446   3.491
99861SOL    HW1 1422   4.212   1.477   3.468
99861SOL    HW2 1423   4.124   1.354   3.466
99862SOL     OW 1424   0.053  11.808  14.420
99862SOL    HW1 1425   0.143  11.794  14.450
99862SOL    HW2 1426   0.052  11.899  14.391
99863SOL     OW 1427  11.703  12.795   5.264
99863SOL    HW1 1428  11.752  12.770   5.186
99863SOL    HW2 1429  11.663  12.713   5.295
99864SOL     OW 1430  10.600  10.825   5.761
99864SOL    HW1 1431  10.506  10.820   5.747
99864SOL    HW2 1432  10.636  10.752   5.709
99865SOL     OW 1433   2.817   4.947   2.931
99865SOL    HW1 1434   2.768   4.986   3.004
99865SOL    HW2 1435   2.753   4.890   2.887
99866SOL     OW 1436  10.973   8.561   5.075
99866SOL    HW1 1437  10.998   8.623   5.007
99866SOL    HW2 1438  10.882   8.539   5.056
99867SOL     OW 1439   0.426   3.135  11.746
99867SOL    HW1 1440   0.343   3.181  11.756
99867SOL    HW2 1441   0.416   3.083  11.667
99868SOL     OW 1442   8.564   4.164   9.728
99868SOL    HW1 1443   8.617   4.098   9.774
99868SOL    HW2 1444   8.620   4.193   9.656
99869SOL     OW 1445   8.180  10.921   8.754
99869SOL    HW1 1446   8.145  10.855   8.694
99869SOL    HW2 1447   8.199  10.874   8.835
99870SOL     OW 1448   2.876   8.344   4.822
99870SOL    HW1 1449   2.891   8.266   4.875
99870SOL    HW2 1450   2.781   8.347   4.810
99871SOL     OW 1451   2.247   3.412   2.702
99871SOL    HW1 1452   2.238   3.349   2.773
99871SOL    HW2 1453   2.201   3.490   2.734
99872SOL     OW 1454  11.962  11.969   7.900
99872SOL    HW1 1455  11.906  11.900   7.864
99872SOL    HW2 1456  11.976  11.943   7.991
99873SOL     OW 1457  13.706   6.039  11.557
99873SOL    HW1 1458  13.726   6.121  11.511
99873SOL    HW2 1459  13.623   6.056  11.602
99874SOL     OW 1460   4.101  11.291   8.042
99874SOL    HW1 1461   4.127  11.201   8.061
99874SOL    HW2 1462   4.182  11.342   8.052
99875SOL     OW 1463  11.988   6.612   8.804
99875SOL    HW1 1464  11.953   6.527   8.776
99875SOL    HW2 1465  12.037   6.593   8.884
99876SOL     OW 1466   9.281  14.196   5.819
99876SOL    HW1 1467   9.272  14.291   5.824
99876SOL    HW2 1468   9.235  14.172   5.739
99877SOL     OW 1469   3.662  12.201   1.589
99877SOL    HW1 1470   3.656  12.125   1.530
99877SOL    HW2 1471   3.570  12.226   1.604
99878SOL     OW 1472   6.263  13.117   4.248
99878SOL    HW1 1473   6.344  13.066   4.239
99878SOL    HW2 1474   6.200  13.054   4.284
99879SOL     OW 1475  12.847  12.570  13.804
99879SOL    HW1 1476  12.762  12.610  13.824
99879SOL    HW2 1477  12.909  12.618  13.858
99880SOL     OW 1478   4.114   0.187  14.616
99880SOL    HW1 1479   4.139   0.223  14.532
99880SOL    HW2 1480   4.072   0.103  14.595
99881SOL     OW 1481   5.463   2.514  11.499
99881SOL    HW1 1482   5.433   2.592  11.452
99881SOL    HW2 1483   5.556   2.508  11.479
99882SOL     OW 1484   2.447   2.611   9.824
99882SOL    HW1 1485   2.435   2.522   9.790
99882SOL    HW2 1486   2.522   2.604   9.883
99883SOL     OW 1487   2.319   0.367   6.372
99883SOL    HW1 1488   2.252   0.300   6.359
99883SOL    HW2 1489   2.362   0.375   6.287
99884SOL     OW 1490   5.175  14.347   7.565
99884SOL    HW1 1491   5.135  14.434   7.566
99884SOL    HW2 1492   5.145  14.305   7.645
99885SOL     OW 1493  11.575   8.192   4.154
99885SOL    HW1 1494  11.613   8.150   4.232
99885SOL    HW2 1495  11.491   8.147   4.141
99886SOL     OW 1496   3.742  11.564  10.881
99886SOL    HW1 1497   3.779  11.585  10.967
99886SOL    HW2 1498   3.648  11.561  10.894
99887SOL     OW 1499   0.333   5.295   2.431
99887SOL    HW1 1500   0.342   5.361   2.500
99887SOL    HW2 1501   0.422   5.282   2.399
99888SOL     OW 1502   6.745   6.712   3.387
99888SOL    HW1 1503   6.814   6.687   3.448
99888SOL    HW2 1504   6.756   6.806   3.375
99889SOL     OW 1505   6.728  11.565   9.118
99889SOL    HW1 1506   6.798  11.523   9.168
99889SOL    HW2 1507   6.737  11.658   9.139
99890SOL     OW 1508   9.195   8.166  10.150
99890SOL    HW1 1509   9.225   8.179  10.240
99890SOL    HW2 1510   9.275   8.176  10.097
99891SOL     OW 1511  10.908  11.257   7.281
99891SOL    HW1 1512  10.916  11.311   7.203
99891SOL    HW2 1513  10.994  11.214   7.290
99892SOL     OW 1514   7.758  14.630   3.089
99892SOL    HW1 1515   7.756  14.543   3.128
99892SOL    HW2 1516   7.700  14.625   3.014
99893SOL     OW 1517   0.035   3.610  10.603
99893SOL    HW1 1518  14.855   3.543  10.643
99893SOL    HW2 1519   0.124   3.580  10.621
99894SOL     OW 1520  12.612   1.205   3.927
99894SOL    HW1 1521  12.579   1.158   4.004
99894SOL    HW2 1522  12.690   1.156   3.900
99895SOL     OW 1523   3.863  12.480   9.409
99895SOL    HW1 1524   3.917  12.409   9.443
99895SOL    HW2 1525   3.909  12.560   9.435
99896SOL     OW 1526   7.932  13.918   7.849
99896SOL    HW1 1527   7.859  13.971   7.816
99896SOL    HW2 1528   7.930  13.929   7.944
99897SOL     OW 1529   3.622   9.361  13.359
99897SOL    HW1 1530   3.644   9.442  13.311
99897SOL    HW2 1531   3.611   9.295  13.291
99898SOL     OW 1532   3.366   5.687  14.739
99898SOL    HW1 1533   3.293   5.627  14.726
99898SOL    HW2 1534   3.380   5.727  14.654
99899SOL     OW 1535   9.333  14.710   1.850
99899SOL    HW1 1536   9.237  14.702   1.855
99899SOL    HW2 1537   9.353  14.692   1.758
99900SOL     OW 1538   4.918  14.077   3.604
99900SOL    HW1 1539   4.962  14.116   3.528
99900SOL    HW2 1540   4.852  14.141   3.629
99901SOL     OW 1541   4.441   2.951   8.615
99901SOL    HW1 1542   4.460   3.044   8.612
99901SOL    HW2 1543   4.417   2.929   8.525
99902SOL     OW 1544   4.740   0.071   5.962
99902SOL    HW1 1545   4.700   0.158   5.956
99902SOL    HW2 1546   4.834   0.087   5.955
99903SOL     OW 1547  14.649  13.452   2.866
99903SOL    HW1 1548  14.581  13.463   2.799
99903SOL    HW2 1549  14.611  13.491   2.944
99904SOL     OW 1550   8.432  11.864  10.097
99904SOL    HW1 1551   8.492  11.910  10.039
99904SOL    HW2 1552   8.473  11.871  10.184
99905SOL     OW 1553   7.143  14.558   3.394
99905SOL    HW1 1554   7.217  14.499   3.376
99905SOL    HW2 1555   7.093  14.513   3.462
99906SOL     OW 1556   4.975  10.363   4.981
99906SOL    HW1 1557   4.935  10.418   4.915
99906SOL    HW2 1558   4.937  10.276   4.967
99907SOL     OW 1559   6.920  12.127   3.019
99907SOL    HW1 1560   6.909  12.182   3.096
99907SOL    HW2 1561   7.005  12.154   2.982
99908SOL     OW 1562  14.847   8.050   7.472
99908SOL    HW1 1563   0.049   8.009   7.437
99908SOL    HW2 1564  14.819   8.111   7.404
99909SOL     OW 1565   3.424   0.418  12.502
99909SOL    HW1 1566   3.491   0.483  12.481
99909SOL    HW2 1567   3.474   0.344  12.538
99910SOL     OW 1568  14.001  12.579   3.592
99910SOL    HW1 1569  14.058  12.605   3.519
99910SOL    HW2 1570  13.994  12.484   3.583
99911SOL     OW 1571   7.469   0.571   8.563
99911SOL    HW1 1572   7.560   0.556   8.586
99911SOL    HW2 1573   7.450   0.659   8.596
99912SOL     OW 1574   3.282   2.952   3.812
99912SOL    HW1 1575   3.199   2.983   3.848
99912SOL    HW2 1576   3.304   2.875   3.866
99913SOL     OW 1577   1.977   8.206   8.733
99913SOL    HW1 1578   1.988   8.217   8.639
99913SOL    HW2 1579   2.051   8.252   8.771
99914SOL     OW 1580  12.007   3.264   9.303
99914SOL    HW1 1581  11.951   3.189   9.323
99914SOL    HW2 1582  12.003   3.272   9.207
99915SOL     OW 1583   8.197  11.805   2.258
99915SOL    HW1 1584   8.228  11.837   2.173
99915SOL    HW2 1585   8.262  11.837   2.321
99916SOL     OW 1586   8.600  10.779  12.048
99916SOL    HW1 1587   8.583  10.874  12.052
99916SOL    HW2 1588   8.619  10.763  11.955
99917SOL     OW 1589  12.090   5.599  11.984
99917SOL    HW1 1590  12.128   5.525  11.938
99917SOL    HW2 1591  12.045   5.560  12.059
99918SOL     OW 1592   3.252   2.240   7.708
99918SOL    HW1 1593   3.327   2.185   7.730
99918SOL    HW2 1594   3.284   2.300   7.641
99919SOL     OW 1595   5.723   5.015   1.626
99919SOL    HW1 1596   5.721   5.089   1.565
99919SOL    HW2 1597   5.810   4.978   1.616
99920SOL     OW 1598   6.975   7.642   6.483
99920SOL    HW1 1599   6.894   7.601   6.515
99920SOL    HW2 1600   7.030   7.568   6.458
99921SOL     OW 1601   7.116  13.487  12.923
99921SOL    HW1 1602   7.032  13.530  12.907
99921SOL    HW2 1603   7.118  13.472  13.018
99922SOL     OW 1604   7.329  12.324  10.066
99922SOL    HW1 1605   7.394  12.260  10.038
99922SOL    HW2 1606   7.245  12.281  10.053
99923SOL     OW 1607   9.167   8.747   3.564
99923SOL    HW1 1608   9.170   8.673   3.503
99923SOL    HW2 1609   9.242   8.801   3.540
99924SOL     OW 1610   9.921   4.895   4.901
99924SOL    HW1 1611   9.985   4.894   4.972
99924SOL    HW2 1612   9.959   4.837   4.835
99925SOL     OW 1613  11.830   0.674   9.380
99925SOL    HW1 1614  11.798   0.596   9.426
99925SOL    HW2 1615  11.909   0.699   9.427
99926SOL     OW 1616   7.027  13.145   4.781
99926SOL    HW1 1617   7.046  13.051   4.792
99926SOL    HW2 1618   6.936  13.154   4.810
99927SOL     OW 1619   6.877  12.555  11.555
99927SOL    HW1 1620   6.913  12.483  11.504
99927SOL    HW2 1621   6.785  12.532  11.569
99928SOL     OW 1622  14.727   4.355   0.980
99928SOL    HW1 1623  14.757   4.444   0.962
99928SOL    HW2 1624  14.650   4.366   1.036
99929SOL     OW 1625  11.722   0.556   0.388
99929SOL    HW1 1626  11.667   0.609   0.446
99929SOL    HW2 1627  11.665   0.531   0.316
99930SOL     OW 1628  13.560   5.226   9.718
99930SOL    HW1 1629  13.558   5.177   9.636
99930SOL    HW2 1630  13.482   5.199   9.765
99931SOL     OW 1631   1.484   0.048   4.484
99931SOL    HW1 1632   1.438   0.011   4.409
99931SOL    HW2 1633   1.463   0.141   4.481
99932SOL     OW 1634  13.779   7.923   4.736
99932SOL    HW1 1635  13.758   7.904   4.827
99932SOL    HW2 1636  13.818   8.011   4.738
99933SOL     OW 1637  13.115   2.794  14.644
99933SOL    HW1 1638  13.096   2.775  14.552
99933SOL    HW2 1639  13.186   2.733  14.666
99934SOL     OW 1640   2.842   1.484   3.746
99934SOL    HW1 1641   2.920   1.484   3.690
99934SOL    HW2 1642   2.778   1.535   3.698
99935SOL     OW 1643   5.952  13.539   2.314
99935SOL    HW1 1644   6.007  13.556   2.390
99935SOL    HW2 1645   5.961  13.617   2.260
99936SOL     OW 1646  12.384   6.447  12.965
99936SOL    HW1 1647  12.451   6.384  12.994
99936SOL    HW2 1648  12.353   6.488  13.046
99937SOL     OW 1649  10.626   7.542  13.615
99937SOL    HW1 1650  10.704   7.586  13.649
99937SOL    HW2 1651  10.636   7.451  13.642
99938SOL     OW 1652  11.691   3.880   6.403
99938SOL    HW1 1653  11.668   3.953   6.346
99938SOL    HW2 1654  11.776   3.904   6.440
99939SOL     OW 1655  10.708   9.707  10.120
99939SOL    HW1 1656  10.663   9.710  10.035
99939SOL    HW2 1657  10.774   9.776  10.115
99940SOL     OW 1658  11.418   1.152  11.721
99940SOL    HW1 1659  11.334   1.190  11.749
99940SOL    HW2 1660  11.462   1.223  11.674
99941SOL     OW 1661  11.405  13.749   6.514
99941SOL    HW1 1662  11.328  13.700   6.485
99941SOL    HW2 1663  11.382  13.841   6.499
99942SOL     OW 1664   7.418  13.574   0.962
99942SOL    HW1 1665   7.394  13.649   1.017
99942SOL    HW2 1666   7.357  13.505   0.987
99943SOL     OW 1667   5.726   3.747   8.173
99943SOL    HW1 1668   5.760   3.684   8.110
99943SOL    HW2 1669   5.804   3.777   8.220
99944SOL     OW 1670   8.160  10.322  14.711
99944SOL    HW1 1671   8.141  10.319  14.805
99944SOL    HW2 1672   8.252  10.350  14.707
99945SOL     OW 1673   4.422   9.632  13.412
99945SOL    HW1 1674   4.443   9.658  13.322
99945SOL    HW2 1675   4.379   9.709  13.449
99946SOL     OW 1676  11.115  11.794  12.258
99946SOL    HW1 1677  11.028  11.757  12.273
99946SOL    HW2 1678  11.159  11.785  12.343
99947SOL     OW 1679   2.065   8.109  11.582
99947SOL    HW1 1680   2.061   8.199  11.613
99947SOL    HW2 1681   2.013   8.059  11.645
99948SOL     OW 1682   7.600   9.463  14.302
99948SOL    HW1 1683   7.676   9.413  14.332
99948SOL    HW2 1684   7.591   9.440  14.210
99949SOL     OW 1685  13.010   6.517   4.761
99949SOL    HW1 1686  12.973   6.466   4.833
99949SOL    HW2 1687  12.968   6.481   4.682
99950SOL     OW 1688  14.311   7.306  11.032
99950SOL    HW1 1689  14.291   7.240  11.099
99950SOL    HW2 1690  14.339   7.382  11.083
99951SOL     OW 1691   3.968   8.133   9.177
99951SOL    HW1 1692   3.963   8.225   9.150
99951SOL    HW2 1693   4.029   8.093   9.115
99952SOL     OW 1694   7.693   9.048   4.260
99952SOL    HW1 1695   7.631   8.994   4.309
99952SOL    HW2 1696   7.744   9.093   4.327
99953SOL     OW 1697   8.608   8.252   3.517
99953SOL    HW1 1698   8.657   8.231   3.596
99953SOL    HW2 1699   8.517   8.231   3.538
99954SOL     OW 1700  14.329   9.246   9.052
99954SOL    HW1 1701  14.384   9.203   8.987
99954SOL    HW2 1702  14.310   9.332   9.015
99955SOL     OW 1703  14.122   8.704   5.794
99955SOL    HW1 1704  14.051   8.652   5.756
99955SOL    HW2 1705  14.081   8.751   5.868
99956SOL     OW 1706   0.773   7.881   4.528
99956SOL    HW1 1707   0.780   7.833   4.445
99956SOL    HW2 1708   0.859   7.920   4.540
99957SOL     OW 1709   9.490   5.569   9.110
99957SOL    HW1 1710   9.530   5.538   9.191
99957SOL    HW2 1711   9.489   5.665   9.119
99958SOL     OW 1712   0.839   9.444   5.192
99958SOL    HW1 1713   0.782   9.378   5.151
99958SOL    HW2 1714   0.865   9.404   5.275
99959SOL     OW 1715   0.104   2.445  13.620
99959SOL    HW1 1716   0.049   2.524  13.624
99959SOL    HW2 1717   0.169   2.464  13.552
99960SOL     OW 1718  10.537   2.057  11.715
99960SOL    HW1 1719  10.455   2.008  11.713
99960SOL    HW2 1720  10.510   2.149  11.705
99961SOL     OW 1721   4.862  13.231   6.001
99961SOL    HW1 1722   4.864  13.232   6.097
99961SOL    HW2 1723   4.776  13.266   5.978
99962SOL     OW 1724   2.838   1.958   1.643
99962SOL    HW1 1725   2.917   1.962   1.695
99962SOL    HW2 1726   2.828   2.046   1.605
99963SOL     OW 1727  12.039   0.446   9.588
99963SOL    HW1 1728  11.949   0.447   9.555
99963SOL    HW2 1729  12.049   0.360   9.628
99964SOL     OW 1730   1.053  14.441  12.473
99964SOL    HW1 1731   1.000  14.382  12.527
99964SOL    HW2 1732   1.143  14.410  12.485
99965SOL     OW 1733  14.689  13.467   6.078
99965SOL    HW1 1734  14.724  13.391   6.125
99965SOL    HW2 1735  14.676  13.437   5.989
99966SOL     OW 1736   1.057   3.060  13.999
99966SOL    HW1 1737   1.017   2.973  13.994
99966SOL    HW2 1738   1.134   3.049  14.054
99967SOL     OW 1739   0.150  13.915   0.146
99967SOL    HW1 1740   0.185  13.945   0.062
99967SOL    HW2 1741   0.076  13.972   0.164
99968SOL     OW 1742   0.510   0.058   4.717
99968SOL    HW1 1743   0.533   0.143   4.754
99968SOL    HW2 1744   0.594   0.020   4.690
99969SOL     OW 1745   5.047  14.383  10.548
99969SOL    HW1 1746   5.065  14.475  10.531
99969SOL    HW2 1747   5.068  14.371  10.641
99970SOL     OW 1748   8.287  10.556  10.931
99970SOL    HW1 1749   8.231  10.479  10.920
99970SOL    HW2 1750   8.281  10.602  10.848
99971SOL     OW 1751   8.688   8.381  10.266
99971SOL    HW1 1752   8.769   8.379  10.213
99971SOL    HW2 1753   8.714   8.424  10.347
99972SOL     OW 1754   2.990  10.677   3.606
99972SOL    HW1 1755   3.041  10.758   3.607
99972SOL    HW2 1756   2.984  10.650   3.697
99973SOL     OW 1757   7.230  12.228   0.699
99973SOL    HW1 1758   7.190  12.224   0.785
99973SOL    HW2 1759   7.325  12.224   0.715
99974SOL     OW 1760   1.522  12.429   4.548
99974SOL    HW1 1761   1.545  12.347   4.591
99974SOL    HW2 1762   1.490  12.486   4.618
99975SOL     OW 1763  13.196   5.643  14.265
99975SOL    HW1 1764  13.205   5.571  14.204
99975SOL    HW2 1765  13.206   5.722  14.211
99976SOL     OW 1766   9.309   5.337   5.630
99976SOL    HW1 1767   9.223   5.295   5.624
99976SOL    HW2 1768   9.354   5.289   5.700
99977SOL     OW 1769   6.053   5.528   0.492
99977SOL    HW1 1770   6.023   5.451   0.542
99977SOL    HW2 1771   6.135   5.554   0.534
99978SOL     OW 1772  14.715   6.469   6.410
99978SOL    HW1 1773  14.756   6.437   6.490
99978SOL    HW2 1774  14.638   6.412   6.398
99979SOL     OW 1775   5.359  10.998   4.833
99979SOL    HW1 1776   5.265  10.994   4.814
99979SOL    HW2 1777   5.395  11.056   4.766
99980SOL     OW 1778  10.924   7.917   9.287
99980SOL    HW1 1779  10.939   7.980   9.357
99980SOL    HW2 1780  10.887   7.969   9.215
99981SOL     OW 1781   4.611   6.915   0.836
99981SOL    HW1 1782   4.655   6.994   0.805
99981SOL    HW2 1783   4.674   6.844   0.822
99982SOL     OW 1784   0.104   9.515   5.358
99982SOL    HW1 1785   0.163   9.493   5.286
99982SOL    HW2 1786   0.124   9.606   5.378
99983SOL     OW 1787   9.833   2.940  13.358
99983SOL    HW1 1788   9.794   2.857  13.384
99983SOL    HW2 1789   9.893   2.961  13.430
99984SOL     OW 1790  10.138  10.161  11.807
99984SOL    HW1 1791  10.189  10.092  11.849
99984SOL    HW2 1792  10.198  10.196  11.740
99985SOL     OW 1793   4.698   6.799   9.874
99985SOL    HW1 1794   4.713   6.739   9.800
99985SOL    HW2 1795   4.786   6.827   9.900
99986SOL     OW 1796   7.306   5.378   8.265
99986SOL    HW1 1797   7.281   5.383   8.173
99986SOL    HW2 1798   7.235   5.420   8.313
99987SOL     OW 1799  12.907  13.987   3.336
99987SOL    HW1 1800  12.876  13.977   3.246
99987SOL    HW2 1801  13.003  13.984   3.329
99988SOL     OW 1802  14.012  13.996   2.191
99988SOL    HW1 1803  14.043  14.004   2.101
99988SOL    HW2 1804  14.082  14.035   2.244
99989SOL     OW 1805   7.816   3.786   3.379
99989SOL    HW1 1806   7.749   3.770   3.446
99989SOL    HW2 1807   7.766   3.809   3.301
99990SOL     OW 1808   1.137   7.799  11.454
99990SOL    HW1 1809   1.226   7.770  11.472
99990SOL    HW2 1810   1.083   7.722  11.473
99991SOL     OW 1811  12.564  11.673   0.014
99991SOL    HW1 1812  12.515  11.601   0.055
99991SOL    HW2 1813  12.624  11.702   0.083
99992SOL     OW 1814  13.663  13.718   8.182
99992SOL    HW1 1815  13.748  13.744   8.218
99992SOL    HW2 1816  13.644  13.783   8.116
99993SOL     OW 1817  10.477   0.624  10.494
99993SOL    HW1 1818  10.386   0.629  10.523
99993SOL    HW2 1819  10.515   0.553  10.546
99994SOL     OW 1820  10.020   2.332  14.708
99994SOL    HW1 1821  10.102   2.288  14.689
99994SOL    HW2 1822   9.954   2.284  14.658
99995SOL     OW 1823   9.486   1.255   0.808
99995SOL    HW1 1824   9.547   1.191   0.770
99995SOL    HW2 1825   9.448   1.210   0.883
99996SOL     OW 1826   2.853   6.645  13.954
99996SOL    HW1 1827   2.925   6.708  13.963
99996SOL    HW2 1828   2.775   6.694  13.980
99997SOL     OW 1829   1.369   6.788   8.837
99997SOL    HW1 1830   1.290   6.841   8.844
99997SOL    HW2 1831   1.389   6.761   8.926
99998SOL     OW 1832   8.006  11.592  14.218
99998SOL    HW1 1833   7.998  11.573  14.125
99998SOL    HW2 1834   7.991  11.687  14.225
99999SOL     OW 1835   3.967  11.796  11.565
99999SOL    HW1 1836   3.900  11.819  11.500
99999SOL    HW2 1837   3.920  11.748  11.632
    0SOL     OW 1838   0.079   1.432   6.918
    0SOL    HW1 1839   0.120   1.518   6.934
    0SOL    HW2 1840   0.032   1.443   6.835
    1SOL     OW 1841  11.567   9.056  10.427
    1SOL    HW1 1842  11.538   9.147  10.426
    1SOL    HW2 1843  11.566   9.031  10.519
    2SOL     OW 1844   1.083   7.068   7.167
    2SOL    HW1 1845   1.131   7.107   7.241
    2SOL    HW2 1846   1.008   7.026   7.208
    3SOL     OW 1847   5.751  12.960  11.663
    3SOL    HW1 1848   5.785  12.879  11.626
    3SOL    HW2 1849   5.683  12.988  11.602
    4SOL     OW 1850  11.038  12.116   7.985
    4SOL    HW1 1851  11.101  12.181   7.954
    4SOL    HW2 1852  11.059  12.105   8.078
    5SOL     OW 1853   3.145  13.107  13.683
    5SOL    HW1 1854   3.111  13.047  13.749
    5SOL    HW2 1855   3.117  13.069  13.599
    6SOL     OW 1856   2.053   7.657   1.309
    6SOL    HW1 1857   2.107   7.665   1.388
    6SOL    HW2 1858   2.095   7.587   1.259
    7SOL     OW 1859  10.020   7.943   1.255
    7SOL    HW1 1860  10.108   7.980   1.262
    7SOL    HW2 1861  10.013   7.914   1.164
    8SOL     OW 1862   9.594  11.822   7.943
    8SOL    HW1 1863   9.512  11.870   7.927
    8SOL    HW2 1864   9.642  11.827   7.861
    9SOL     OW 1865  11.483   4.716   4.442
    9SOL    HW1 1866  11.520   4.804   4.433
    9SOL    HW2 1867  11.506   4.689   4.530
   10SOL     OW 1868   4.061   1.691   1.821
   10SOL    HW1 1869   4.125   1.623   1.802
   10SOL    HW2 1870   4.090   1.730   1.904
   11SOL     OW 1871   5.439   8.517   8.744
   11SOL    HW1 1872   5.348   8.542   8.727
   11SOL    HW2 1873   5.433   8.426   8.773
   12SOL     OW 1874   0.920  13.792   9.755
   12SOL    HW1 1875   0.851  13.802   9.689
   12SOL    HW2 1876   0.997  13.832   9.715
   13SOL     OW 1877   5.342   4.939   8.992
   13SOL    HW1 1878   5.421   4.892   8.965
   13SOL    HW2 1879   5.301   4.881   9.057
   14SOL     OW 1880  10.957  10.717  12.676
   14SOL    HW1 1881  10.917  10.640  12.635
   14SOL    HW2 1882  10.910  10.791  12.637
   15SOL     OW 1883   5.425   9.708   6.476
   15SOL    HW1 1884   5.393   9.713   6.386
   15SOL    HW2 1885   5.513   9.670   6.469
   16SOL     OW 1886   7.032  11.039   3.167
   16SOL    HW1 1887   7.112  11.020   3.117
   16SOL    HW2 1888   7.064  11.067   3.253
   17SOL     OW 1889  10.658  11.809   6.243
   17SOL    HW1 1890  10.688  11.749   6.174
   17SOL    HW2 1891  10.707  11.890   6.226
   18SOL     OW 1892   9.475  11.208   6.569
   18SOL    HW1 1893   9.380  11.219   6.571
   18SOL    HW2 1894   9.507  11.263   6.640
   19SOL     OW 1895   9.956  13.766   0.373
   19SOL    HW1 1896  10.037  13.728   0.339
   19SOL    HW2 1897   9.919  13.698   0.430
   20SOL     OW 1898   2.342   3.980   8.220
   20SOL    HW1 1899   2.436   3.966   8.205
   20SOL    HW2 1900   2.313   3.901   8.266
   21SOL     OW 1901  13.947   3.083   9.029
   21SOL    HW1 1902  14.041   3.070   9.044
   21SOL    HW2 1903  13.943   3.145   8.957
   22SOL     OW 1904   6.479  13.543   9.031
   22SOL    HW1 1905   6.559  13.544   9.084
   22SOL    HW2 1906   6.421  13.607   9.073
   23SOL     OW 1907  12.860   8.340  13.785
   23SOL    HW1 1908  12.932   8.363  13.726
   23SOL    HW2 1909  12.890   8.366  13.872
   24SOL     OW 1910  12.557   3.837   9.423
   24SOL    HW1 1911  12.537   3.747   9.397
   24SOL    HW2 1912  12.490   3.890   9.379
   25SOL     OW 1913   4.983   9.617   8.153
   25SOL    HW1 1914   4.921   9.587   8.086
   25SOL    HW2 1915   4.969   9.557   8.227
   26SOL     OW 1916   2.980   6.364   9.042
   26SOL    HW1 1917   2.955   6.317   9.121
   26SOL    HW2 1918   3.050   6.423   9.070
   27SOL     OW 1919   3.726   2.089   0.646
   27SOL    HW1 1920   3.700   2.001   0.674
   27SOL    HW2 1921   3.654   2.119   0.591
   28SOL     OW 1922   6.135   5.027   2.858
   28SOL    HW1 1923   6.159   5.107   2.810
   28SOL    HW2 1924   6.217   4.978   2.865
   29SOL     OW 1925  11.165   4.322   7.525
   29SOL    HW1 1926  11.178   4.394   7.588
   29SOL    HW2 1927  11.154   4.245   7.580
   30SOL     OW 1928  13.312  13.621  12.157
   30SOL    HW1 1929  13.367  13.611  12.079
   30SOL    HW2 1930  13.374  13.621  12.229
   31SOL     OW 1931   7.437   5.546   6.635
   31SOL    HW1 1932   7.360   5.588   6.597
   31SOL    HW2 1933   7.511   5.585   6.589
   32SOL     OW 1934   2.606  14.347  13.274
   32SOL    HW1 1935   2.518  14.382  13.257
   32SOL    HW2 1936   2.592  14.253  13.283
   33SOL     OW 1937  12.451  10.685  10.780
   33SOL    HW1 1938  12.367  10.674  10.826
   33SOL    HW2 1939  12.473  10.777  10.792
   34SOL     OW 1940   0.668  14.121  13.790
   34SOL    HW1 1941   0.622  14.040  13.810
   34SOL    HW2 1942   0.598  14.184  13.772
   35SOL     OW 1943   0.450   7.722   8.534
   35SOL    HW1 1944   0.512   7.657   8.503
   35SOL    HW2 1945   0.477   7.739   8.624
   36SOL     OW 1946  12.226   3.178   4.306
   36SOL    HW1 1947  12.272   3.209   4.228
   36SOL    HW2 1948  12.181   3.098   4.277
   37SOL     OW 1949  10.789   4.236   6.092
   37SOL    HW1 1950  10.699   4.251   6.065
   37SOL    HW2 1951  10.834   4.318   6.069
   38SOL     OW 1952   7.979   5.258   3.678
   38SOL    HW1 1953   7.973   5.344   3.721
   38SOL    HW2 1954   7.888   5.230   3.669
   39SOL     OW 1955  10.819   0.890   7.857
   39SOL    HW1 1956  10.834   0.945   7.781
   39SOL    HW2 1957  10.744   0.836   7.833
   40SOL     OW 1958  12.982  14.388   6.101
   40SOL    HW1 1959  12.990  14.475   6.063
   40SOL    HW2 1960  13.071  14.364   6.126
   41SOL     OW 1961   4.861   4.588   8.719
   41SOL    HW1 1962   4.865   4.539   8.637
   41SOL    HW2 1963   4.950   4.586   8.753
   42SOL     OW 1964  11.237   6.026  10.923
   42SOL    HW1 1965  11.212   6.118  10.915
   42SOL    HW2 1966  11.317   6.019  10.870
   43SOL     OW 1967   9.656   1.811  12.492
   43SOL    HW1 1968   9.698   1.726  12.508
   43SOL    HW2 1969   9.704   1.872  12.547
   44SOL     OW 1970  10.089   3.537   2.395
   44SOL    HW1 1971  10.158   3.470   2.392
   44SOL    HW2 1972  10.041   3.525   2.314
   45SOL     OW 1973  10.949   9.613  11.662
   45SOL    HW1 1974  10.934   9.535  11.716
   45SOL    HW2 1975  11.042   9.609  11.639
   46SOL     OW 1976  12.216   0.564  10.958
   46SOL    HW1 1977  12.160   0.542  10.883
   46SOL    HW2 1978  12.223   0.481  11.006
   47SOL     OW 1979  11.613  14.462   2.834
   47SOL    HW1 1980  11.555  14.393   2.803
   47SOL    HW2 1981  11.594  14.537   2.777
   48SOL     OW 1982   2.010   0.726   6.235
   48SOL    HW1 1983   2.039   0.755   6.322
   48SOL    HW2 1984   2.001   0.631   6.243
   49SOL     OW 1985  13.307   2.227   1.783
   49SOL    HW1 1986  13.332   2.138   1.759
   49SOL    HW2 1987  13.344   2.282   1.715
   50SOL     OW 1988   9.557  11.509  12.621
   50SOL    HW1 1989   9.638  11.547  12.587
   50SOL    HW2 1990   9.580  11.418  12.642
   51SOL     OW 1991   4.570  13.001  10.630
   51SOL    HW1 1992   4.540  12.913  10.605
   51SOL    HW2 1993   4.644  13.019  10.573
   52SOL     OW 1994  12.866   5.904   2.746
   52SOL    HW1 1995  12.934   5.941   2.802
   52SOL    HW2 1996  12.834   5.827   2.794
   53SOL     OW 1997   5.860   2.936   1.451
   53SOL    HW1 1998   5.860   2.879   1.374
   53SOL    HW2 1999   5.914   2.890   1.514
   54SOL     OW 2000  12.239   3.684   1.706
   54SOL    HW1 2001  12.293   3.692   1.627
   54SOL    HW2 2002  12.216   3.591   1.710
   55SOL     OW 2003   5.418  12.364   5.987
   55SOL    HW1 2004   5.466  12.290   5.950
   55SOL    HW2 2005   5.415  12.347   6.081
   56SOL     OW 2006  10.680   8.218   4.949
   56SOL    HW1 2007  10.697   8.151   4.883
   56SOL    HW2 2008  10.640   8.169   5.022
   57SOL     OW 2009   9.584   1.873   1.039
   57SOL    HW1 2010   9.577   1.937   0.968
   57SOL    HW2 2011   9.655   1.906   1.094
   58SOL     OW 2012   3.693  13.803   1.396
   58SOL    HW1 2013   3.762  13.783   1.334
   58SOL    HW2 2014   3.710  13.745   1.471
   59SOL     OW 2015  11.468   5.946  12.291
   59SOL    HW1 2016  11.497   5.898  12.369
   59SOL    HW2 2017  11.457   6.036  12.322
   60SOL     OW 2018   3.076  14.714  11.680
   60SOL    HW1 2019   3.170  14.714  11.663
   60SOL    HW2 2020   3.068  14.696  11.774
   61SOL     OW 2021  14.710  12.695   8.648
   61SOL    HW1 2022  14.697  12.682   8.554
   61SOL    HW2 2023  14.629  12.664   8.688
   62SOL     OW 2024  10.190   2.100  10.547
   62SOL    HW1 2025  10.250   2.171  10.569
   62SOL    HW2 2026  10.212   2.077  10.456
   63SOL     OW 2027   6.865   4.516   7.745
   63SOL    HW1 2028   6.846   4.588   7.806
   63SOL    HW2 2029   6.825   4.439   7.786
   64SOL     OW 2030   1.383   0.324   9.705
   64SOL    HW1 2031   1.385   0.404   9.758
   64SOL    HW2 2032   1.371   0.356   9.615
   65SOL     OW 2033   8.335   3.234  11.925
   65SOL    HW1 2034   8.291   3.184  11.993
   65SOL    HW2 2035   8.389   3.169  11.878
   66SOL     OW 2036  14.004   9.859  14.762
   66SOL    HW1 2037  13.985   9.873  14.855
   66SOL    HW2 2038  14.096   9.883  14.753
   67SOL     OW 2039  14.625  12.209   7.141
   67SOL    HW1 2040  14.715  12.180   7.154
   67SOL    HW2 2041  14.612  12.277   7.206
   68SOL     OW 2042   7.188  12.138   9.456
   68SOL    HW1 2043   7.216  12.142   9.364
   68SOL    HW2 2044   7.155  12.225   9.475
   69SOL     OW 2045   6.033   6.286   0.357
   69SOL    HW1 2046   6.124   6.316   0.368
   69SOL    HW2 2047   5.998   6.341   0.287
   70SOL     OW 2048   0.132  12.555   2.084
   70SOL    HW1 2049   0.090  12.631   2.124
   70SOL    HW2 2050   0.138  12.578   1.991
   71SOL     OW 2051   4.248   7.632   3.355
   71SOL    HW1 2052   4.167   7.583   3.340
   71SOL    HW2 2053   4.305   7.570   3.401
   72SOL     OW 2054   1.319   9.791   2.404
   72SOL    HW1 2055   1.352   9.860   2.460
   72SOL    HW2 2056   1.395   9.761   2.355
   73SOL     OW 2057   2.314   5.186  14.465
   73SOL    HW1 2058   2.353   5.146  14.388
   73SOL    HW2 2059   2.254   5.119  14.500
   74SOL     OW 2060   5.268  11.513   7.272
   74SOL    HW1 2061   5.173  11.523   7.267
   74SOL    HW2 2062   5.288  11.512   7.366
   75SOL     OW 2063  14.233   4.688   7.800
   75SOL    HW1 2064  14.289   4.612   7.816
   75SOL    HW2 2065  14.293   4.758   7.774
   76SOL     OW 2066   9.681  13.261   5.919
   76SOL    HW1 2067   9.626  13.289   5.992
   76SOL    HW2 2068   9.619  13.239   5.850
   77SOL     OW 2069   3.679   0.399   7.273
   77SOL    HW1 2070   3.654   0.389   7.181
   77SOL    HW2 2071   3.750   0.463   7.272
   78SOL     OW 2072   0.291  12.469  10.347
   78SOL    HW1 2073   0.255  12.548  10.306
   78SOL    HW2 2074   0.224  12.442  10.410
   79SOL     OW 2075   0.736   1.359   1.294
   79SOL    HW1 2076   0.658   1.374   1.240
   79SOL    HW2 2077   0.708   1.381   1.383
   80SOL     OW 2078  11.205   6.832   2.480
   80SOL    HW1 2079  11.275   6.769   2.462
   80SOL    HW2 2080  11.130   6.778   2.505
   81SOL     OW 2081  12.976   7.880   3.627
   81SOL    HW1 2082  13.008   7.946   3.565
   81SOL    HW2 2083  13.032   7.804   3.611
   82SOL     OW 2084   0.245   8.761  12.435
   82SOL    HW1 2085   0.164   8.798  12.471
   82SOL    HW2 2086   0.235   8.666  12.445
   83SOL     OW 2087  11.709  12.715   9.553
   83SOL    HW1 2088  11.737  12.799   9.519
   83SOL    HW2 2089  11.669  12.670   9.479
   84SOL     OW 2090   4.556  13.010   9.797
   84SOL    HW1 2091   4.644  12.991   9.827
   84SOL    HW2 2092   4.549  12.968   9.711
   85SOL     OW 2093  12.255   0.358   5.914
   85SOL    HW1 2094  12.239   0.282   5.858
   85SOL    HW2 2095  12.178   0.413   5.902
   86SOL     OW 2096   6.817   8.023   4.434
   86SOL    HW1 2097   6.752   8.067   4.489
   86SOL    HW2 2098   6.784   7.933   4.427
   87SOL     OW 2099   9.855  12.203   8.540
   87SOL    HW1 2100   9.857  12.172   8.630
   87SOL    HW2 2101   9.771  12.173   8.506
   88SOL     OW 2102   0.760   5.734  13.604
   88SOL    HW1 2103   0.694   5.667  13.590
   88SOL    HW2 2104   0.826   5.718  13.537
   89SOL     OW 2105  14.332   5.140   6.368
   89SOL    HW1 2106  14.385   5.064   6.393
   89SOL    HW2 2107  14.323   5.132   6.273
   90SOL     OW 2108   8.490   0.831   3.957
   90SOL    HW1 2109   8.451   0.743   3.957
   90SOL    HW2 2110   8.467   0.867   3.871
   91SOL     OW 2111   1.102  11.184   5.239
   91SOL    HW1 2112   1.153  11.120   5.190
   91SOL    HW2 2113   1.074  11.248   5.175
   92SOL     OW 2114   2.573   9.644   4.955
   92SOL    HW1 2115   2.595   9.607   4.869
   92SOL    HW2 2116   2.642   9.708   4.972
   93SOL     OW 2117  14.695  11.381   1.191
   93SOL    HW1 2118  14.733  11.296   1.168
   93SOL    HW2 2119  14.771  11.439   1.202
   94SOL     OW 2120   3.000  12.567  13.994
   94SOL    HW1 2121   2.990  12.494  14.055
   94SOL    HW2 2122   2.992  12.646  14.049
   95SOL     OW 2123  10.899  13.350   7.051
   95SOL    HW1 2124  10.882  13.418   7.116
   95SOL    HW2 2125  10.995  13.341   7.051
   96SOL     OW 2126  11.779   4.500   6.787
   96SOL    HW1 2127  11.860   4.518   6.835
   96SOL    HW2 2128  11.758   4.583   6.744
   97SOL     OW 2129  11.352   2.372   5.388
   97SOL    HW1 2130  11.438   2.334   5.408
   97SOL    HW2 2131  11.372   2.446   5.330
   98SOL     OW 2132  12.867   1.990   3.210
   98SOL    HW1 2133  12.887   2.062   3.149
   98SOL    HW2 2134  12.893   1.911   3.164
   99SOL     OW 2135   3.286   1.425   8.094
   99SOL    HW1 2136   3.234   1.427   8.014
   99SOL    HW2 2137   3.260   1.344   8.138
  100SOL     OW 2138   2.879   6.810  12.092
  100SOL    HW1 2139   2.795   6.855  12.086
  100SOL    HW2 2140   2.919   6.845  12.172
  101SOL     OW 2141   1.319   9.375   9.082
  101SOL    HW1 2142   1.229   9.352   9.062
  101SOL    HW2 2143   1.369   9.296   9.062
  102SOL     OW 2144   6.551   3.661   6.399
  102SOL    HW1 2145   6.485   3.692   6.461
  102SOL    HW2 2146   6.573   3.573   6.429
  103SOL     OW 2147   4.009   6.199  14.688
  103SOL    HW1 2148   4.070   6.198  14.615
  103SOL    HW2 2149   4.008   6.290  14.717
  104SOL     OW 2150   7.808   9.997   4.684
  104SOL    HW1 2151   7.888   9.969   4.640
  104SOL    HW2 2152   7.813  10.093   4.686
  105SOL     OW 2153   5.663   5.130  11.600
  105SOL    HW1 2154   5.658   5.224  11.620
  105SOL    HW2 2155   5.720   5.125  11.522
  106SOL     OW 2156   6.733   5.563  13.740
  106SOL    HW1 2157   6.763   5.619  13.669
  106SOL    HW2 2158   6.777   5.597  13.818
  107SOL     OW 2159  13.930   6.830   9.216
  107SOL    HW1 2160  13.988   6.814   9.142
  107SOL    HW2 2161  13.935   6.750   9.268
  108SOL     OW 2162   4.801  12.497   2.133
  108SOL    HW1 2163   4.892  12.526   2.136
  108SOL    HW2 2164   4.789  12.450   2.216
  109SOL     OW 2165   5.949  11.925   2.327
  109SOL    HW1 2166   5.899  11.987   2.274
  109SOL    HW2 2167   5.883  11.872   2.371
  110SOL     OW 2168   4.802  11.028   7.940
  110SOL    HW1 2169   4.768  10.966   7.875
  110SOL    HW2 2170   4.861  11.084   7.891
  111SOL     OW 2171  11.532   5.772  10.395
  111SOL    HW1 2172  11.476   5.714  10.446
  111SOL    HW2 2173  11.542   5.850  10.450
  112SOL     OW 2174   3.062  13.511   1.379
  112SOL    HW1 2175   3.054  13.484   1.288
  112SOL    HW2 2176   3.130  13.578   1.379
  113SOL     OW 2177   4.010   5.397  11.180
  113SOL    HW1 2178   4.025   5.323  11.121
  113SOL    HW2 2179   3.998   5.357  11.266
  114SOL     OW 2180   6.963  11.201  11.540
  114SOL    HW1 2181   6.910  11.151  11.602
  114SOL    HW2 2182   6.948  11.158  11.456
  115SOL     OW 2183  13.650   2.167   6.897
  115SOL    HW1 2184  13.673   2.096   6.836
  115SOL    HW2 2185  13.722   2.229   6.890
  116SOL     OW 2186   0.916   3.151   4.919
  116SOL    HW1 2187   0.999   3.197   4.908
  116SOL    HW2 2188   0.850   3.217   4.900
  117SOL     OW 2189   0.840   1.716   7.507
  117SOL    HW1 2190   0.927   1.709   7.467
  117SOL    HW2 2191   0.808   1.626   7.511
  118SOL     OW 2192   2.370   3.795   4.736
  118SOL    HW1 2193   2.298   3.779   4.676
  118SOL    HW2 2194   2.432   3.724   4.720
  119SOL     OW 2195  13.687   9.291   2.403
  119SOL    HW1 2196  13.776   9.255   2.395
  119SOL    HW2 2197  13.693   9.378   2.365
  120SOL     OW 2198   9.602   2.382  13.476
  120SOL    HW1 2199   9.619   2.463  13.524
  120SOL    HW2 2200   9.545   2.332  13.534
  121SOL     OW 2201   6.775  11.447  12.245
  121SOL    HW1 2202   6.819  11.438  12.330
  121SOL    HW2 2203   6.847  11.456  12.182
  122SOL     OW 2204  14.031   9.330   0.569
  122SOL    HW1 2205  14.106   9.325   0.628
  122SOL    HW2 2206  14.068   9.357   0.485
  123SOL     OW 2207   4.008   4.627   7.342
  123SOL    HW1 2208   3.958   4.646   7.422
  123SOL    HW2 2209   4.068   4.556   7.368
  124SOL     OW 2210  14.420  13.692  12.714
  124SOL    HW1 2211  14.387  13.767  12.763
  124SOL    HW2 2212  14.513  13.690  12.734
  125SOL     OW 2213   4.249   9.282   9.615
  125SOL    HW1 2214   4.203   9.199   9.625
  125SOL    HW2 2215   4.248   9.321   9.702
  126SOL     OW 2216   8.394   2.697   2.816
  126SOL    HW1 2217   8.416   2.788   2.797
  126SOL    HW2 2218   8.313   2.681   2.766
  127SOL     OW 2219  11.370  10.071   3.530
  127SOL    HW1 2220  11.395  10.018   3.606
  127SOL    HW2 2221  11.451  10.114   3.504
  128SOL     OW 2222   2.704   1.695  12.268
  128SOL    HW1 2223   2.798   1.703  12.285
  128SOL    HW2 2224   2.662   1.735  12.344
  129SOL     OW 2225   0.411   2.863   4.801
  129SOL    HW1 2226   0.345   2.925   4.832
  129SOL    HW2 2227   0.377   2.777   4.827
  130SOL     OW 2228  11.903  10.268  13.724
  130SOL    HW1 2229  11.980  10.326  13.721
  130SOL    HW2 2230  11.831  10.323  13.694
  131SOL     OW 2231   0.580   2.435  10.610
  131SOL    HW1 2232   0.670   2.469  10.606
  131SOL    HW2 2233   0.561   2.407  10.521
  132SOL     OW 2234   6.799   4.474  12.492
  132SOL    HW1 2235   6.890   4.503  12.503
  132SOL    HW2 2236   6.805   4.407  12.424
  133SOL     OW 2237   8.932  10.549   7.216
  133SOL    HW1 2238   8.960  10.512   7.301
  133SOL    HW2 2239   9.001  10.613   7.195
  134SOL     OW 2240   6.780  10.595  14.627
  134SOL    HW1 2241   6.735  10.639  14.700
  134SOL    HW2 2242   6.799  10.665  14.565
  135SOL     OW 2243  14.153  13.166   5.727
  135SOL    HW1 2244  14.121  13.077   5.711
  135SOL    HW2 2245  14.182  13.198   5.642
  136SOL     OW 2246  11.213  10.861   1.156
  136SOL    HW1 2247  11.150  10.792   1.135
  136SOL    HW2 2248  11.220  10.913   1.075
  137SOL     OW 2249   4.320  14.293   8.039
  137SOL    HW1 2250   4.335  14.236   7.964
  137SOL    HW2 2251   4.224  14.299   8.046
  138SOL     OW 2252   0.468   5.374   3.039
  138SOL    HW1 2253   0.387   5.402   3.081
  138SOL    HW2 2254   0.521   5.339   3.111
  139SOL     OW 2255   6.074   2.845   1.899
  139SOL    HW1 2256   5.989   2.851   1.856
  139SOL    HW2 2257   6.130   2.800   1.836
  140SOL     OW 2258  12.035   1.483   0.369
  140SOL    HW1 2259  12.018   1.423   0.297
  140SOL    HW2 2260  11.983   1.561   0.348
  141SOL     OW 2261   4.433   4.957   6.546
  141SOL    HW1 2262   4.434   4.951   6.642
  141SOL    HW2 2263   4.368   4.893   6.519
  142SOL     OW 2264   8.817  12.606   4.764
  142SOL    HW1 2265   8.851  12.618   4.675
  142SOL    HW2 2266   8.891  12.570   4.813
  143SOL     OW 2267  12.164  13.454  12.901
  143SOL    HW1 2268  12.258  13.461  12.883
  143SOL    HW2 2269  12.125  13.427  12.818
  144SOL     OW 2270   2.083   7.356  12.353
  144SOL    HW1 2271   2.136   7.299  12.298
  144SOL    HW2 2272   2.039   7.415  12.292
  145SOL     OW 2273   3.843   3.925  14.533
  145SOL    HW1 2274   3.819   3.975  14.611
  145SOL    HW2 2275   3.852   3.990  14.464
  146SOL     OW 2276   6.124  10.372   2.468
  146SOL    HW1 2277   6.037  10.402   2.495
  146SOL    HW2 2278   6.126  10.279   2.491
  147SOL     OW 2279   8.631   8.694   9.240
  147SOL    HW1 2280   8.673   8.651   9.315
  147SOL    HW2 2281   8.559   8.744   9.279
  148SOL     OW 2282  14.172   5.160   8.495
  148SOL    HW1 2283  14.161   5.068   8.519
  148SOL    HW2 2284  14.089   5.201   8.519
  149SOL     OW 2285   2.475   7.961  14.023
  149SOL    HW1 2286   2.476   7.878  14.071
  149SOL    HW2 2287   2.386   7.968  13.988
  150SOL     OW 2288   4.145  10.833   4.360
  150SOL    HW1 2289   4.078  10.778   4.319
  150SOL    HW2 2290   4.150  10.801   4.451
  151SOL     OW 2291   6.701   8.345  11.365
  151SOL    HW1 2292   6.701   8.390  11.449
  151SOL    HW2 2293   6.687   8.414  11.300
  152SOL     OW 2294  11.121   5.396   6.857
  152SOL    HW1 2295  11.128   5.307   6.891
  152SOL    HW2 2296  11.102   5.385   6.764
  153SOL     OW 2297  11.121  13.146   8.635
  153SOL    HW1 2298  11.194  13.153   8.574
  153SOL    HW2 2299  11.048  13.191   8.592
  154SOL     OW 2300   6.137   5.606   3.844
  154SOL    HW1 2301   6.174   5.673   3.788
  154SOL    HW2 2302   6.140   5.526   3.791
  155SOL     OW 2303  12.837   5.199  11.147
  155SOL    HW1 2304  12.833   5.280  11.199
  155SOL    HW2 2305  12.916   5.154  11.179
  156SOL     OW 2306   6.241  10.084   1.857
  156SOL    HW1 2307   6.184  10.112   1.929
  156SOL    HW2 2308   6.195  10.009   1.818
  157SOL     OW 2309   9.654   4.515   6.280
  157SOL    HW1 2310   9.583   4.576   6.263
  157SOL    HW2 2311   9.632   4.437   6.228
  158SOL     OW 2312   2.905   8.305   6.742
  158SOL    HW1 2313   2.910   8.273   6.833
  158SOL    HW2 2314   2.945   8.392   6.745
  159SOL     OW 2315  13.824  13.139   8.781
  159SOL    HW1 2316  13.878  13.060   8.784
  159SOL    HW2 2317  13.876  13.202   8.731
  160SOL     OW 2318  13.489  11.300   0.830
  160SOL    HW1 2319  13.533  11.215   0.834
  160SOL    HW2 2320  13.399  11.283   0.857
  161SOL     OW 2321   3.398  14.436   2.113
  161SOL    HW1 2322   3.366  14.346   2.099
  161SOL    HW2 2323   3.491  14.425   2.132
  162SOL     OW 2324  11.305   3.522  13.504
  162SOL    HW1 2325  11.216   3.492  13.485
  162SOL    HW2 2326  11.311   3.518  13.600
  163SOL     OW 2327   8.978   9.723  13.636
  163SOL    HW1 2328   8.921   9.678  13.699
  163SOL    HW2 2329   8.929   9.801  13.611
  164SOL     OW 2330   7.515   1.023   7.553
  164SOL    HW1 2331   7.575   1.035   7.479
  164SOL    HW2 2332   7.495   1.112   7.582
  165SOL     OW 2333   6.281   2.815   6.868
  165SOL    HW1 2334   6.278   2.728   6.829
  165SOL    HW2 2335   6.300   2.799   6.960
  166SOL     OW 2336   6.265   4.271   7.424
  166SOL    HW1 2337   6.276   4.262   7.330
  166SOL    HW2 2338   6.200   4.204   7.447
  167SOL     OW 2339   3.840   5.735   0.903
  167SOL    HW1 2340   3.844   5.681   0.982
  167SOL    HW2 2341   3.792   5.681   0.840
  168SOL     OW 2342   9.550   7.421   3.024
  168SOL    HW1 2343   9.501   7.494   3.061
  168SOL    HW2 2344   9.630   7.461   2.990
  169SOL     OW 2345   8.049  12.884   4.022
  169SOL    HW1 2346   8.112  12.850   3.957
  169SOL    HW2 2347   8.037  12.811   4.083
  170SOL     OW 2348   3.701  12.693   9.191
  170SOL    HW1 2349   3.739  12.767   9.143
  170SOL    HW2 2350   3.755  12.684   9.269
  171SOL     OW 2351   6.756  11.831   7.030
  171SOL    HW1 2352   6.799  11.910   6.997
  171SOL    HW2 2353   6.723  11.855   7.116
  172SOL     OW 2354   7.519   5.992   0.166
  172SOL    HW1 2355   7.515   6.037   0.250
  172SOL    HW2 2356   7.435   5.947   0.158
  173SOL     OW 2357   0.062   6.796   9.239
  173SOL    HW1 2358   0.008   6.729   9.197
  173SOL    HW2 2359   0.098   6.753   9.317
  174SOL     OW 2360  12.390  10.154   0.181
  174SOL    HW1 2361  12.450  10.131   0.110
  174SOL    HW2 2362  12.302  10.142   0.143
  175SOL     OW 2363  13.508   7.535   3.219
  175SOL    HW1 2364  13.552   7.470   3.274
  175SOL    HW2 2365  13.474   7.599   3.282
  176SOL     OW 2366   9.045  13.684  14.392
  176SOL    HW1 2367   9.123  13.703  14.445
  176SOL    HW2 2368   9.080  13.652  14.309
  177SOL     OW 2369   0.065   4.566   4.160
  177SOL    HW1 2370   0.035   4.626   4.228
  177SOL    HW2 2371   0.161   4.564   4.171
  178SOL     OW 2372   9.764   8.528  10.990
  178SOL    HW1 2373   9.686   8.581  11.007
  178SOL    HW2 2374   9.817   8.538  11.068
  179SOL     OW 2375  12.975  10.917   1.890
  179SOL    HW1 2376  13.030  10.856   1.939
  179SOL    HW2 2377  13.036  10.980   1.853
  180SOL     OW 2378   7.607   9.139  13.880
  180SOL    HW1 2379   7.545   9.067  13.883
  180SOL    HW2 2380   7.693   9.096  13.873
  181SOL     OW 2381   9.125  10.807   9.869
  181SOL    HW1 2382   9.075  10.738   9.912
  181SOL    HW2 2383   9.067  10.883   9.871
  182SOL     OW 2384   4.770  14.509  14.106
  182SOL    HW1 2385   4.734  14.507  14.195
  182SOL    HW2 2386   4.757  14.599  14.076
  183SOL     OW 2387  10.039   5.096   5.617
  183SOL    HW1 2388   9.954   5.083   5.576
  183SOL    HW2 2389  10.023   5.083   5.711
  184SOL     OW 2390   8.670  11.632  11.974
  184SOL    HW1 2391   8.615  11.573  11.921
  184SOL    HW2 2392   8.630  11.629  12.061
  185SOL     OW 2393  11.118   2.214  13.730
  185SOL    HW1 2394  11.157   2.185  13.813
  185SOL    HW2 2395  11.051   2.277  13.756
  186SOL     OW 2396   5.248  11.676   7.071
  186SOL    HW1 2397   5.291  11.618   7.133
  186SOL    HW2 2398   5.167  11.632   7.048
  187SOL     OW 2399   5.029   4.125   1.785
  187SOL    HW1 2400   5.050   4.217   1.766
  187SOL    HW2 2401   5.097   4.098   1.847
  188SOL     OW 2402   2.960  10.714   6.124
  188SOL    HW1 2403   3.024  10.723   6.052
  188SOL    HW2 2404   3.013  10.687   6.199
  189SOL     OW 2405   1.550   7.956   1.106
  189SOL    HW1 2406   1.528   8.045   1.080
  189SOL    HW2 2407   1.645   7.957   1.116
  190SOL     OW 2408   6.979  13.400   0.812
  190SOL    HW1 2409   7.062  13.352   0.804
  190SOL    HW2 2410   6.930  13.377   0.733
  191SOL     OW 2411  13.233  10.072   3.207
  191SOL    HW1 2412  13.316  10.024   3.211
  191SOL    HW2 2413  13.254  10.158   3.243
  192SOL     OW 2414   3.687   4.173   1.434
  192SOL    HW1 2415   3.599   4.147   1.406
  192SOL    HW2 2416   3.735   4.189   1.353
  193SOL     OW 2417   0.779   1.404   4.553
  193SOL    HW1 2418   0.692   1.365   4.562
  193SOL    HW2 2419   0.836   1.349   4.606
  194SOL     OW 2420   2.323   7.408   7.084
  194SOL    HW1 2421   2.278   7.474   7.138
  194SOL    HW2 2422   2.326   7.330   7.140
  195SOL     OW 2423   7.385  14.606   7.065
  195SOL    HW1 2424   7.450  14.590   6.997
  195SOL    HW2 2425   7.402  14.696   7.092
  196SOL     OW 2426   8.672   4.846   5.075
  196SOL    HW1 2427   8.730   4.918   5.097
  196SOL    HW2 2428   8.628   4.874   4.994
  197SOL     OW 2429  10.647   4.724   1.061
  197SOL    HW1 2430  10.686   4.808   1.036
  197SOL    HW2 2431  10.705   4.658   1.020
  198SOL     OW 2432  13.127   0.534  10.285
  198SOL    HW1 2433  13.078   0.520  10.365
  198SOL    HW2 2434  13.153   0.626  10.288
  199SOL     OW 2435   6.551   6.426   8.696
  199SOL    HW1 2436   6.611   6.496   8.672
  199SOL    HW2 2437   6.561   6.361   8.627
  200SOL     OW 2438  12.455   6.625  10.536
  200SOL    HW1 2439  12.461   6.621  10.631
  200SOL    HW2 2440  12.445   6.719  10.516
  201SOL     OW 2441  14.520  11.890  10.810
  201SOL    HW1 2442  14.479  11.830  10.872
  201SOL    HW2 2443  14.572  11.950  10.864
  202SOL     OW 2444   6.853  13.675   3.863
  202SOL    HW1 2445   6.918  13.697   3.796
  202SOL    HW2 2446   6.875  13.730   3.938
  203SOL     OW 2447   1.016   1.968  12.953
  203SOL    HW1 2448   0.986   1.976  12.862
  203SOL    HW2 2449   1.054   1.881  12.959
  204SOL     OW 2450   9.644   9.267   1.290
  204SOL    HW1 2451   9.633   9.318   1.209
  204SOL    HW2 2452   9.556   9.242   1.315
  205SOL     OW 2453   8.252  10.789   2.303
  205SOL    HW1 2454   8.292  10.752   2.225
  205SOL    HW2 2455   8.271  10.726   2.373
  206SOL     OW 2456  11.186   9.658  12.732
  206SOL    HW1 2457  11.097   9.626  12.722
  206SOL    HW2 2458  11.183   9.748  12.699
  207SOL     OW 2459   1.595   3.883  12.626
  207SOL    HW1 2460   1.573   3.976  12.617
  207SOL    HW2 2461   1.519   3.845  12.670
  208SOL     OW 2462   1.701   1.316   8.229
  208SOL    HW1 2463   1.650   1.260   8.171
  208SOL    HW2 2464   1.764   1.360   8.171
  209SOL     OW 2465  12.890   0.880   7.791
  209SOL    HW1 2466  12.904   0.920   7.705
  209SOL    HW2 2467  12.837   0.802   7.773
  210SOL     OW 2468  12.955   9.780  11.269
  210SOL    HW1 2469  12.976   9.699  11.222
  210SOL    HW2 2470  12.962   9.756  11.362
  211SOL     OW 2471  11.847   9.730   0.003
  211SOL    HW1 2472  11.841   9.818   0.040
  211SOL    HW2 2473  11.788   9.677   0.057
  212SOL     OW 2474   1.468  12.574   0.268
  212SOL    HW1 2475   1.373  12.564   0.263
  212SOL    HW2 2476   1.495  12.514   0.338
  213SOL     OW 2477   6.317   1.380  12.256
  213SOL    HW1 2478   6.305   1.285  12.251
  213SOL    HW2 2479   6.247   1.410  12.314
  214SOL     OW 2480   1.311   7.359  10.588
  214SOL    HW1 2481   1.284   7.268  10.589
  214SOL    HW2 2482   1.404   7.357  10.610
  215SOL     OW 2483   9.755   5.734   5.216
  215SOL    HW1 2484   9.671   5.733   5.172
  215SOL    HW2 2485   9.735   5.760   5.306
  216SOL     OW 2486   7.601  14.631  14.425
  216SOL    HW1 2487   7.544  14.699  14.462
  216SOL    HW2 2488   7.547  14.586  14.360
  217SOL     OW 2489  12.592  14.289   3.338
  217SOL    HW1 2490  12.554  14.201   3.343
  217SOL    HW2 2491  12.595  14.308   3.244
  218SOL     OW 2492  14.080   6.170   6.755
  218SOL    HW1 2493  14.038   6.151   6.839
  218SOL    HW2 2494  14.058   6.095   6.700
  219SOL     OW 2495   3.998  14.638   5.222
  219SOL    HW1 2496   3.992  14.707   5.288
  219SOL    HW2 2497   3.921  14.583   5.238
  220SOL     OW 2498   8.141   4.635   0.158
  220SOL    HW1 2499   8.075   4.589   0.210
  220SOL    HW2 2500   8.141   4.590   0.074
  221SOL     OW 2501   4.710   9.587  12.773
  221SOL    HW1 2502   4.780   9.614  12.833
  221SOL    HW2 2503   4.695   9.495  12.795
  222SOL     OW 2504  12.887   0.900   9.103
  222SOL    HW1 2505  12.895   0.996   9.104
  222SOL    HW2 2506  12.956   0.870   9.163
  223SOL     OW 2507   2.449   0.463  10.825
  223SOL    HW1 2508   2.421   0.529  10.762
  223SOL    HW2 2509   2.473   0.387  10.772
  224SOL     OW 2510  11.337   6.588  13.130
  224SOL    HW1 2511  11.378   6.548  13.053
  224SOL    HW2 2512  11.349   6.682  13.117
  225SOL     OW 2513  13.442   3.951   2.911
  225SOL    HW1 2514  13.359   3.998   2.900
  225SOL    HW2 2515  13.494   3.975   2.834
  226SOL     OW 2516   0.328   3.025   9.007
  226SOL    HW1 2517   0.423   3.014   9.005
  226SOL    HW2 2518   0.304   3.044   8.917
  227SOL     OW 2519   3.454   5.870   1.282
  227SOL    HW1 2520   3.429   5.864   1.374
  227SOL    HW2 2521   3.530   5.812   1.274
  228SOL     OW 2522   5.803   9.570   6.052
  228SOL    HW1 2523   5.869   9.612   5.998
  228SOL    HW2 2524   5.793   9.482   6.015
  229SOL     OW 2525   0.974   7.114  14.598
  229SOL    HW1 2526   0.951   7.074  14.515
  229SOL    HW2 2527   0.979   7.041  14.660
  230SOL     OW 2528   5.919   7.935   0.255
  230SOL    HW1 2529   5.991   7.986   0.292
  230SOL    HW2 2530   5.841   7.990   0.266
  231SOL     OW 2531   9.749   3.801   5.160
  231SOL    HW1 2532   9.731   3.754   5.079
  231SOL    HW2 2533   9.791   3.736   5.217
  232SOL     OW 2534  13.980  14.245   9.247
  232SOL    HW1 2535  13.941  14.256   9.334
  232SOL    HW2 2536  13.937  14.168   9.210
  233SOL     OW 2537   3.662   9.550   1.429
  233SOL    HW1 2538   3.744   9.568   1.474
  233SOL    HW2 2539   3.685   9.482   1.365
  234SOL     OW 2540  11.520   2.493   3.504
  234SOL    HW1 2541  11.542   2.409   3.543
  234SOL    HW2 2542  11.456   2.473   3.436
  235SOL     OW 2543   7.794  14.669   8.449
  235SOL    HW1 2544   7.872  14.653   8.396
  235SOL    HW2 2545   7.771  14.760   8.431
  236SOL     OW 2546  14.442  11.998   1.568
  236SOL    HW1 2547  14.447  11.902   1.576
  236SOL    HW2 2548  14.507  12.019   1.501
  237SOL     OW 2549   8.825   8.508   2.911
  237SOL    HW1 2550   8.869   8.423   2.900
  237SOL    HW2 2551   8.773   8.498   2.990
  238SOL     OW 2552   3.426  10.026   2.007
  238SOL    HW1 2553   3.385  10.056   1.927
  238SOL    HW2 2554   3.354   9.995   2.061
  239SOL     OW 2555   9.390   6.465   0.450
  239SOL    HW1 2556   9.485   6.470   0.441
  239SOL    HW2 2557   9.374   6.494   0.540
  240SOL     OW 2558   8.014   5.332   2.602
  240SOL    HW1 2559   7.952   5.396   2.637
  240SOL    HW2 2560   8.006   5.257   2.660
  241SOL     OW 2561   9.030   4.830  12.301
  241SOL    HW1 2562   9.025   4.923  12.279
  241SOL    HW2 2563   8.963   4.818  12.368
  242SOL     OW 2564   0.163   3.812  10.871
  242SOL    HW1 2565   0.156   3.774  10.783
  242SOL    HW2 2566   0.097   3.767  10.922
  243SOL     OW 2567   5.626  11.829  14.526
  243SOL    HW1 2568   5.713  11.812  14.562
  243SOL    HW2 2569   5.581  11.745  14.530
  244SOL     OW 2570   6.165   9.330   3.801
  244SOL    HW1 2571   6.097   9.311   3.866
  244SOL    HW2 2572   6.212   9.247   3.792
  245SOL     OW 2573  12.681   6.215   4.439
  245SOL    HW1 2574  12.655   6.155   4.509
  245SOL    HW2 2575  12.712   6.159   4.368
  246SOL     OW 2576   8.269   3.864   7.317
  246SOL    HW1 2577   8.322   3.881   7.240
  246SOL    HW2 2578   8.227   3.779   7.300
  247SOL     OW 2579   5.317  10.917  14.241
  247SOL    HW1 2580   5.352  11.002  14.266
  247SOL    HW2 2581   5.331  10.861  14.318
  248SOL     OW 2582   3.086   7.208   3.831
  248SOL    HW1 2583   3.177   7.201   3.800
  248SOL    HW2 2584   3.075   7.130   3.886
  249SOL     OW 2585   8.785  10.737   3.308
  249SOL    HW1 2586   8.836  10.740   3.389
  249SOL    HW2 2587   8.800  10.649   3.273
  250SOL     OW 2588  11.093   9.852   2.790
  250SOL    HW1 2589  11.005   9.817   2.785
  250SOL    HW2 2590  11.150   9.777   2.772
  251SOL     OW 2591   9.169   8.792  12.734
  251SOL    HW1 2592   9.124   8.784  12.651
  251SOL    HW2 2593   9.262   8.785  12.712
  252SOL     OW 2594   6.048   4.107   7.425
  252SOL    HW1 2595   6.048   4.082   7.332
  252SOL    HW2 2596   5.964   4.151   7.437
  253SOL     OW 2597   5.156   4.842   5.893
  253SOL    HW1 2598   5.137   4.928   5.856
  253SOL    HW2 2599   5.245   4.850   5.929
  254SOL     OW 2600   1.031   4.979  12.564
  254SOL    HW1 2601   0.967   4.908  12.569
  254SOL    HW2 2602   1.023   5.012  12.475
  255SOL     OW 2603  12.805   7.359  10.560
  255SOL    HW1 2604  12.842   7.279  10.597
  255SOL    HW2 2605  12.835   7.428  10.618
  256SOL     OW 2606  14.622   4.120   8.381
  256SOL    HW1 2607  14.580   4.044   8.340
  256SOL    HW2 2608  14.606   4.192   8.320
  257SOL     OW 2609   8.635   1.818  12.806
  257SOL    HW1 2610   8.570   1.784  12.744
  257SOL    HW2 2611   8.651   1.907  12.777
  258SOL     OW 2612   0.142   4.014   0.272
  258SOL    HW1 2613   0.090   4.070   0.330
  258SOL    HW2 2614   0.210   3.978   0.329
  259SOL     OW 2615   9.296  10.783   2.042
  259SOL    HW1 2616   9.294  10.733   2.123
  259SOL    HW2 2617   9.204  10.799   2.020
  260SOL     OW 2618   1.997   3.179   2.614
  260SOL    HW1 2619   1.918   3.139   2.651
  260SOL    HW2 2620   2.002   3.264   2.657
  261SOL     OW 2621  13.496   7.678   7.065
  261SOL    HW1 2622  13.551   7.621   7.011
  261SOL    HW2 2623  13.513   7.766   7.032
  262SOL     OW 2624   1.768  11.706   1.298
  262SOL    HW1 2625   1.696  11.673   1.351
  262SOL    HW2 2626   1.834  11.636   1.300
  263SOL     OW 2627  10.240   6.855   4.700
  263SOL    HW1 2628  10.205   6.769   4.724
  263SOL    HW2 2629  10.327   6.858   4.741
  264SOL     OW 2630   9.883   4.202   3.062
  264SOL    HW1 2631   9.833   4.273   3.020
  264SOL    HW2 2632   9.974   4.231   3.056
  265SOL     OW 2633  12.708   2.954   4.567
  265SOL    HW1 2634  12.665   3.004   4.637
  265SOL    HW2 2635  12.786   2.918   4.608
  266SOL     OW 2636  13.490   9.084  11.667
  266SOL    HW1 2637  13.411   9.040  11.636
  266SOL    HW2 2638  13.554   9.070  11.598
  267SOL     OW 2639   8.178   8.226   7.192
  267SOL    HW1 2640   8.241   8.158   7.213
  267SOL    HW2 2641   8.161   8.215   7.099
  268SOL     OW 2642  12.501  13.304  13.465
  268SOL    HW1 2643  12.582  13.282  13.512
  268SOL    HW2 2644  12.477  13.223  13.420
  269SOL     OW 2645  13.421   3.500   1.437
  269SOL    HW1 2646  13.327   3.511   1.450
  269SOL    HW2 2647  13.460   3.528   1.520
  270SOL     OW 2648  11.330   3.269  13.361
  270SOL    HW1 2649  11.286   3.337  13.311
  270SOL    HW2 2650  11.286   3.269  13.446
  271SOL     OW 2651   7.967  11.447   5.453
  271SOL    HW1 2652   7.911  11.507   5.504
  271SOL    HW2 2653   7.911  11.371   5.437
  272SOL     OW 2654  10.032  11.179   2.858
  272SOL    HW1 2655   9.972  11.223   2.798
  272SOL    HW2 2656   9.977  11.152   2.932
  273SOL     OW 2657  12.914  11.668   8.788
  273SOL    HW1 2658  12.963  11.691   8.709
  273SOL    HW2 2659  12.919  11.573   8.793
  274SOL     OW 2660   1.233  13.747  12.511
  274SOL    HW1 2661   1.317  13.732  12.469
  274SOL    HW2 2662   1.253  13.751  12.605
  275SOL     OW 2663   4.097  12.230   0.025
  275SOL    HW1 2664   4.100  12.320  14.869
  275SOL    HW2 2665   4.044  12.183  14.837
  276SOL     OW 2666   5.643  10.759   6.299
  276SOL    HW1 2667   5.733  10.737   6.321
  276SOL    HW2 2668   5.620  10.699   6.229
  277SOL     OW 2669   9.288  12.852  13.247
  277SOL    HW1 2670   9.369  12.890  13.213
  277SOL    HW2 2671   9.222  12.920  13.233
  278SOL     OW 2672   0.885   6.667   4.191
  278SOL    HW1 2673   0.944   6.660   4.266
  278SOL    HW2 2674   0.941   6.655   4.115
  279SOL     OW 2675   3.324  13.118   5.715
  279SOL    HW1 2676   3.411  13.156   5.710
  279SOL    HW2 2677   3.286  13.154   5.795
  280SOL     OW 2678   9.771  12.448   6.637
  280SOL    HW1 2679   9.795  12.530   6.593
  280SOL    HW2 2680   9.711  12.405   6.576
  281SOL     OW 2681   2.866   1.957   8.652
  281SOL    HW1 2682   2.842   1.994   8.567
  281SOL    HW2 2683   2.929   1.888   8.631
  282SOL     OW 2684   7.523   0.261   7.507
  282SOL    HW1 2685   7.477   0.324   7.563
  282SOL    HW2 2686   7.453   0.209   7.467
  283SOL     OW 2687   0.645   9.329   8.162
  283SOL    HW1 2688   0.611   9.240   8.149
  283SOL    HW2 2689   0.615   9.353   8.249
  284SOL     OW 2690   6.692   1.404   8.253
  284SOL    HW1 2691   6.694   1.315   8.288
  284SOL    HW2 2692   6.781   1.421   8.222
  285SOL     OW 2693   3.196  12.501   3.598
  285SOL    HW1 2694   3.194  12.586   3.641
  285SOL    HW2 2695   3.183  12.520   3.505
  286SOL     OW 2696   0.172   4.396  11.196
  286SOL    HW1 2697   0.195   4.458  11.127
  286SOL    HW2 2698   0.256   4.358  11.222
  287SOL     OW 2699   1.878  12.172   9.047
  287SOL    HW1 2700   1.907  12.136   8.963
  287SOL    HW2 2701   1.817  12.242   9.022
  288SOL     OW 2702   1.938   3.587  11.148
  288SOL    HW1 2703   2.013   3.640  11.121
  288SOL    HW2 2704   1.965   3.497  11.133
  289SOL     OW 2705   0.576   3.073   9.662
  289SOL    HW1 2706   0.503   3.134   9.665
  289SOL    HW2 2707   0.635   3.111   9.596
  290SOL     OW 2708  11.835   7.369   0.807
  290SOL    HW1 2709  11.756   7.370   0.753
  290SOL    HW2 2710  11.886   7.444   0.777
  291SOL     OW 2711   8.571  10.589   2.606
  291SOL    HW1 2712   8.506  10.589   2.536
  291SOL    HW2 2713   8.532  10.643   2.675
  292SOL     OW 2714   4.251   0.285   7.607
  292SOL    HW1 2715   4.218   0.262   7.521
  292SOL    HW2 2716   4.180   0.336   7.647
  293SOL     OW 2717  13.031   9.592  11.110
  293SOL    HW1 2718  13.121   9.557  11.114
  293SOL    HW2 2719  12.977   9.515  11.091
  294SOL     OW 2720   4.599   1.445   6.948
  294SOL    HW1 2721   4.692   1.422   6.955
  294SOL    HW2 2722   4.578   1.486   7.032
  295SOL     OW 2723   4.856   0.142   7.421
  295SOL    HW1 2724   4.837   0.111   7.510
  295SOL    HW2 2725   4.900   0.226   7.433
  296SOL     OW 2726   7.658  11.814   9.763
  296SOL    HW1 2727   7.715  11.751   9.719
  296SOL    HW2 2728   7.717  11.866   9.817
  297SOL     OW 2729  14.500   2.516  12.299
  297SOL    HW1 2730  14.425   2.574  12.288
  297SOL    HW2 2731  14.493   2.483  12.388
  298SOL     OW 2732  13.586   2.214   4.695
  298SOL    HW1 2733  13.560   2.145   4.757
  298SOL    HW2 2734  13.540   2.292   4.727
  299SOL     OW 2735   4.464   1.849   9.868
  299SOL    HW1 2736   4.397   1.832   9.934
  299SOL    HW2 2737   4.490   1.762   9.839
  300SOL     OW 2738   8.942   0.005   0.342
  300SOL    HW1 2739   9.013  14.833   0.385
  300SOL    HW2 2740   8.983   0.087   0.315
  301SOL     OW 2741   8.169  13.083   7.835
  301SOL    HW1 2742   8.144  13.122   7.919
  301SOL    HW2 2743   8.098  13.024   7.814
  302SOL     OW 2744  13.682  13.299   1.638
  302SOL    HW1 2745  13.673  13.320   1.731
  302SOL    HW2 2746  13.750  13.231   1.636
  303SOL     OW 2747  14.150   5.901   4.096
  303SOL    HW1 2748  14.128   5.815   4.062
  303SOL    HW2 2749  14.231   5.925   4.050
  304SOL     OW 2750   8.224   9.052   9.680
  304SOL    HW1 2751   8.232   8.971   9.730
  304SOL    HW2 2752   8.270   9.117   9.732
  305SOL     OW 2753   9.486   9.557   6.197
  305SOL    HW1 2754   9.472   9.494   6.267
  305SOL    HW2 2755   9.449   9.516   6.119
  306SOL     OW 2756  10.118   7.142   9.031
  306SOL    HW1 2757  10.158   7.134   8.945
  306SOL    HW2 2758  10.120   7.236   9.050
  307SOL     OW 2759  13.032   0.596  13.662
  307SOL    HW1 2760  13.087   0.649  13.719
  307SOL    HW2 2761  12.947   0.640  13.664
  308SOL     OW 2762   6.859   5.230   4.195
  308SOL    HW1 2763   6.775   5.255   4.234
  308SOL    HW2 2764   6.897   5.313   4.166
  309SOL     OW 2765  14.279   9.320   7.747
  309SOL    HW1 2766  14.204   9.378   7.763
  309SOL    HW2 2767  14.278   9.259   7.821
  310SOL     OW 2768   4.525   6.618   3.428
  310SOL    HW1 2769   4.581   6.560   3.480
  310SOL    HW2 2770   4.503   6.567   3.351
  311SOL     OW 2771   7.303   0.780  11.055
  311SOL    HW1 2772   7.345   0.827  11.127
  311SOL    HW2 2773   7.323   0.832  10.977
  312SOL     OW 2774   4.879   8.541   6.933
  312SOL    HW1 2775   4.869   8.516   7.025
  312SOL    HW2 2776   4.972   8.557   6.922
  313SOL     OW 2777   1.912   7.143   8.877
  313SOL    HW1 2778   1.909   7.053   8.909
  313SOL    HW2 2779   1.989   7.146   8.820
  314SOL     OW 2780  10.005   3.426   6.068
  314SOL    HW1 2781   9.980   3.335   6.080
  314SOL    HW2 2782  10.034   3.431   5.977
  315SOL     OW 2783  10.800  11.656   2.158
  315SOL    HW1 2784  10.834  11.570   2.183
  315SOL    HW2 2785  10.845  11.718   2.216
  316SOL     OW 2786   8.771   7.854   7.000
  316SOL    HW1 2787   8.850   7.816   7.038
  316SOL    HW2 2788   8.798   7.880   6.912
  317SOL     OW 2789  12.066   8.493   0.892
  317SOL    HW1 2790  12.155   8.476   0.923
  317SOL    HW2 2791  12.050   8.427   0.825
  318SOL     OW 2792   5.082   3.860   8.755
  318SOL    HW1 2793   5.020   3.836   8.823
  318SOL    HW2 2794   5.027   3.899   8.686
  319SOL     OW 2795   6.195   9.714   9.792
  319SOL    HW1 2796   6.198   9.670   9.707
  319SOL    HW2 2797   6.140   9.658   9.846
  320SOL     OW 2798  10.168   2.323   2.293
  320SOL    HW1 2799  10.101   2.362   2.238
  320SOL    HW2 2800  10.158   2.367   2.378
  321SOL     OW 2801   8.906   9.307   1.502
  321SOL    HW1 2802   8.902   9.255   1.583
  321SOL    HW2 2803   8.993   9.346   1.503
  322SOL     OW 2804   1.086   5.153   8.534
  322SOL    HW1 2805   0.999   5.141   8.496
  322SOL    HW2 2806   1.120   5.231   8.491
  323SOL     OW 2807   6.055   5.784   8.804
  323SOL    HW1 2808   6.044   5.840   8.881
  323SOL    HW2 2809   5.984   5.721   8.810
  324SOL     OW 2810   4.655   1.492   2.935
  324SOL    HW1 2811   4.728   1.470   2.992
  324SOL    HW2 2812   4.669   1.584   2.911
  325SOL     OW 2813  12.678   9.345   2.579
  325SOL    HW1 2814  12.586   9.371   2.589
  325SOL    HW2 2815  12.723   9.426   2.556
  326SOL     OW 2816   7.408   9.541  11.027
  326SOL    HW1 2817   7.426   9.490  11.107
  326SOL    HW2 2818   7.474   9.611  11.028
  327SOL     OW 2819   3.666  12.249   1.135
  327SOL    HW1 2820   3.666  12.322   1.074
  327SOL    HW2 2821   3.626  12.177   1.086
  328SOL     OW 2822  13.749  10.518  10.439
  328SOL    HW1 2823  13.661  10.486  10.423
  328SOL    HW2 2824  13.764  10.502  10.532
  329SOL     OW 2825   8.875   6.250   6.097
  329SOL    HW1 2826   8.935   6.260   6.023
  329SOL    HW2 2827   8.861   6.340   6.129
  330SOL     OW 2828  13.310   3.253   0.837
  330SOL    HW1 2829  13.384   3.207   0.798
  330SOL    HW2 2830  13.238   3.190   0.830
  331SOL     OW 2831   8.455  10.714   6.915
  331SOL    HW1 2832   8.527  10.657   6.942
  331SOL    HW2 2833   8.462  10.718   6.819
  332SOL     OW 2834  14.059   3.231   8.040
  332SOL    HW1 2835  14.049   3.325   8.023
  332SOL    HW2 2836  13.971   3.202   8.065
  333SOL     OW 2837   3.521   4.516   0.068
  333SOL    HW1 2838   3.428   4.509   0.090
  333SOL    HW2 2839   3.522   4.553  14.856
  334SOL     OW 2840   2.040   9.689   8.429
  334SOL    HW1 2841   2.059   9.780   8.453
  334SOL    HW2 2842   2.070   9.681   8.338
  335SOL     OW 2843   6.147   4.456  10.421
  335SOL    HW1 2844   6.148   4.366  10.389
  335SOL    HW2 2845   6.147   4.510  10.342
  336SOL     OW 2846   0.524   5.314   4.055
  336SOL    HW1 2847   0.538   5.289   3.964
  336SOL    HW2 2848   0.521   5.232   4.103
  337SOL     OW 2849  10.571  14.783  13.465
  337SOL    HW1 2850  10.478  14.792  13.484
  337SOL    HW2 2851  10.604  14.872  13.460
  338SOL     OW 2852   0.848   4.223  11.446
  338SOL    HW1 2853   0.828   4.131  11.460
  338SOL    HW2 2854   0.859   4.259  11.534
  339SOL     OW 2855   2.092   2.947   1.906
  339SOL    HW1 2856   2.070   3.004   1.833
  339SOL    HW2 2857   2.184   2.924   1.891
  340SOL     OW 2858   6.610   2.775   2.031
  340SOL    HW1 2859   6.705   2.785   2.038
  340SOL    HW2 2860   6.574   2.854   2.071
  341SOL     OW 2861   6.725   5.295  14.666
  341SOL    HW1 2862   6.742   5.326  14.577
  341SOL    HW2 2863   6.646   5.242  14.659
  342SOL     OW 2864   5.090   2.940  10.112
  342SOL    HW1 2865   5.021   2.998  10.079
  342SOL    HW2 2866   5.155   2.999  10.150
  343SOL     OW 2867   5.779  11.646  13.332
  343SOL    HW1 2868   5.777  11.626  13.426
  343SOL    HW2 2869   5.730  11.728  13.325
  344SOL     OW 2870   9.293  14.549  10.465
  344SOL    HW1 2871   9.273  14.617  10.401
  344SOL    HW2 2872   9.307  14.596  10.547
  345SOL     OW 2873   3.313   3.071   8.554
  345SOL    HW1 2874   3.241   3.103   8.608
  345SOL    HW2 2875   3.326   2.981   8.583
  346SOL     OW 2876  14.293   5.960  10.922
  346SOL    HW1 2877  14.340   5.965  11.005
  346SOL    HW2 2878  14.204   5.986  10.944
  347SOL     OW 2879   5.423   9.442  11.399
  347SOL    HW1 2880   5.495   9.390  11.363
  347SOL    HW2 2881   5.377   9.382  11.458
  348SOL     OW 2882  11.502   7.263   7.307
  348SOL    HW1 2883  11.504   7.235   7.399
  348SOL    HW2 2884  11.423   7.222   7.271
  349SOL     OW 2885  10.180   0.799   7.279
  349SOL    HW1 2886  10.092   0.796   7.241
  349SOL    HW2 2887  10.236   0.759   7.213
  350SOL     OW 2888   5.811  12.457  12.088
  350SOL    HW1 2889   5.875  12.395  12.054
  350SOL    HW2 2890   5.760  12.407  12.151
  351SOL     OW 2891   1.775   7.990   8.746
  351SOL    HW1 2892   1.843   8.057   8.745
  351SOL    HW2 2893   1.693   8.039   8.752
  352SOL     OW 2894   4.800   2.710   9.844
  352SOL    HW1 2895   4.740   2.719   9.918
  352SOL    HW2 2896   4.886   2.696   9.884
  353SOL     OW 2897  10.830   5.112  13.569
  353SOL    HW1 2898  10.744   5.152  13.556
  353SOL    HW2 2899  10.867   5.105  13.482
  354SOL     OW 2900  11.143  13.982   5.876
  354SOL    HW1 2901  11.054  14.008   5.899
  354SOL    HW2 2902  11.137  13.950   5.786
  355SOL     OW 2903   2.488   8.388   3.769
  355SOL    HW1 2904   2.535   8.432   3.840
  355SOL    HW2 2905   2.400   8.373   3.803
  356SOL     OW 2906   4.064  11.080   6.510
  356SOL    HW1 2907   4.095  11.018   6.575
  356SOL    HW2 2908   3.974  11.100   6.537
  357SOL     OW 2909   9.729   1.077   3.217
  357SOL    HW1 2910   9.637   1.089   3.239
  357SOL    HW2 2911   9.764   1.165   3.209
  358SOL     OW 2912   0.437   1.787   5.595
  358SOL    HW1 2913   0.483   1.777   5.511
  358SOL    HW2 2914   0.344   1.779   5.573
  359SOL     OW 2915   6.296   2.737   2.589
  359SOL    HW1 2916   6.375   2.701   2.549
  359SOL    HW2 2917   6.292   2.696   2.675
  360SOL     OW 2918   9.484   4.609   2.631
  360SOL    HW1 2919   9.470   4.675   2.563
  360SOL    HW2 2920   9.548   4.550   2.593
  361SOL     OW 2921  14.644   2.153   5.268
  361SOL    HW1 2922  14.631   2.129   5.360
  361SOL    HW2 2923  14.728   2.114   5.244
  362SOL     OW 2924   5.191  12.231  11.788
  362SOL    HW1 2925   5.282  12.224  11.758
  362SOL    HW2 2926   5.175  12.325  11.795
  363SOL     OW 2927   4.813  12.703   1.692
  363SOL    HW1 2928   4.852  12.770   1.636
  363SOL    HW2 2929   4.884  12.674   1.749
  364SOL     OW 2930   2.776  13.376   2.861
  364SOL    HW1 2931   2.820  13.427   2.929
  364SOL    HW2 2932   2.725  13.439   2.811
  365SOL     OW 2933  14.242  14.650   9.205
  365SOL    HW1 2934  14.273  14.560   9.215
  365SOL    HW2 2935  14.164  14.643   9.149
  366SOL     OW 2936   9.011   6.671  13.559
  366SOL    HW1 2937   9.052   6.732  13.498
  366SOL    HW2 2938   9.075   6.662  13.630
  367SOL     OW 2939  10.556   1.135   1.384
  367SOL    HW1 2940  10.555   1.183   1.467
  367SOL    HW2 2941  10.618   1.064   1.398
  368SOL     OW 2942  10.234  12.219   0.983
  368SOL    HW1 2943  10.307  12.176   1.027
  368SOL    HW2 2944  10.157  12.169   1.009
  369SOL     OW 2945  10.021   9.612   5.276
  369SOL    HW1 2946   9.955   9.649   5.218
  369SOL    HW2 2947  10.043   9.527   5.237
  370SOL     OW 2948   3.709   8.120   6.980
  370SOL    HW1 2949   3.649   8.142   6.909
  370SOL    HW2 2950   3.665   8.051   7.029
  371SOL     OW 2951  10.618   5.605   6.762
  371SOL    HW1 2952  10.681   5.553   6.812
  371SOL    HW2 2953  10.654   5.694   6.764
  372SOL     OW 2954   6.190   4.014   8.647
  372SOL    HW1 2955   6.257   4.004   8.579
  372SOL    HW2 2956   6.113   3.972   8.611
  373SOL     OW 2957   8.176   9.478  13.052
  373SOL    HW1 2958   8.119   9.464  13.128
  373SOL    HW2 2959   8.231   9.400  13.048
  374SOL     OW 2960   6.644   9.170   5.081
  374SOL    HW1 2961   6.557   9.199   5.109
  374SOL    HW2 2962   6.677   9.120   5.156
  375SOL     OW 2963   0.439   3.712   1.306
  375SOL    HW1 2964   0.410   3.693   1.217
  375SOL    HW2 2965   0.434   3.627   1.352
  376SOL     OW 2966   0.063   1.862   5.457
  376SOL    HW1 2967  14.854   1.822   5.441
  376SOL    HW2 2968   0.098   1.814   5.533
  377SOL     OW 2969   6.830  10.194  12.020
  377SOL    HW1 2970   6.766  10.124  12.008
  377SOL    HW2 2971   6.791  10.270  11.977
  378SOL     OW 2972  10.878   4.498   4.114
  378SOL    HW1 2973  10.881   4.564   4.183
  378SOL    HW2 2974  10.837   4.422   4.154
  379SOL     OW 2975   3.272  12.011   4.539
  379SOL    HW1 2976   3.363  12.018   4.511
  379SOL    HW2 2977   3.222  12.020   4.458
  380SOL     OW 2978  10.951   7.626  12.647
  380SOL    HW1 2979  11.006   7.675  12.707
  380SOL    HW2 2980  10.874   7.603  12.699
  381SOL     OW 2981   2.098  13.668   4.597
  381SOL    HW1 2982   2.070  13.756   4.623
  381SOL    HW2 2983   2.044  13.609   4.650
  382SOL     OW 2984  11.482  11.157   4.114
  382SOL    HW1 2985  11.466  11.077   4.065
  382SOL    HW2 2986  11.577  11.171   4.108
  383SOL     OW 2987  14.127   4.708   5.767
  383SOL    HW1 2988  14.076   4.664   5.835
  383SOL    HW2 2989  14.071   4.706   5.689
  384SOL     OW 2990   2.489   8.748   8.004
  384SOL    HW1 2991   2.522   8.709   7.923
  384SOL    HW2 2992   2.505   8.681   8.071
  385SOL     OW 2993   6.023   5.377  10.898
  385SOL    HW1 2994   5.967   5.443  10.859
  385SOL    HW2 2995   6.075   5.343  10.825
  386SOL     OW 2996   9.807   6.161   4.953
  386SOL    HW1 2997   9.863   6.101   5.002
  386SOL    HW2 2998   9.799   6.238   5.010
  387SOL     OW 2999   9.683  11.384   1.483
  387SOL    HW1 3000   9.655  11.299   1.450
  387SOL    HW2 3001   9.714  11.367   1.572
  388SOL     OW 3002  14.443  10.872   9.267
  388SOL    HW1 3003  14.474  10.900   9.353
  388SOL    HW2 3004  14.348  10.884   9.270
  389SOL     OW 3005   0.089   0.047  14.435
  389SOL    HW1 3006   0.093   0.037  14.530
  389SOL    HW2 3007   0.075   0.141  14.421
  390SOL     OW 3008   2.549   2.081   0.319
  390SOL    HW1 3009   2.634   2.070   0.277
  390SOL    HW2 3010   2.486   2.053   0.252
  391SOL     OW 3011   4.242   3.750   4.499
  391SOL    HW1 3012   4.220   3.841   4.519
  391SOL    HW2 3013   4.324   3.734   4.545
  392SOL     OW 3014   1.983   2.234  12.836
  392SOL    HW1 3015   2.008   2.325  12.853
  392SOL    HW2 3016   1.952   2.201  12.920
  393SOL     OW 3017  10.811   1.893   1.415
  393SOL    HW1 3018  10.891   1.883   1.364
  393SOL    HW2 3019  10.752   1.827   1.379
  394SOL     OW 3020  11.785   0.204   9.190
  394SOL    HW1 3021  11.749   0.287   9.159
  394SOL    HW2 3022  11.879   0.217   9.193
  395SOL     OW 3023   4.696   4.868   4.472
  395SOL    HW1 3024   4.700   4.957   4.508
  395SOL    HW2 3025   4.730   4.813   4.542
  396SOL     OW 3026  14.226   1.839   4.298
  396SOL    HW1 3027  14.167   1.806   4.366
  396SOL    HW2 3028  14.208   1.783   4.222
  397SOL     OW 3029   3.802   0.063   0.908
  397SOL    HW1 3030   3.892   0.093   0.916
  397SOL    HW2 3031   3.809  14.844   0.900
  398SOL     OW 3032   3.684   3.076   1.331
  398SOL    HW1 3033   3.598   3.043   1.357
  398SOL    HW2 3034   3.734   3.078   1.413
  399SOL     OW 3035   1.857   3.798   6.832
  399SOL    HW1 3036   1.931   3.764   6.882
  399SOL    HW2 3037   1.817   3.863   6.890
  400SOL     OW 3038   7.936   9.994   6.806
  400SOL    HW1 3039   7.884  10.057   6.857
  400SOL    HW2 3040   7.920   9.910   6.848
  401SOL     OW 3041  10.836   7.558   7.473
  401SOL    HW1 3042  10.920   7.514   7.484
  401SOL    HW2 3043  10.856   7.637   7.422
  402SOL     OW 3044   0.660  13.280   7.520
  402SOL    HW1 3045   0.573  13.301   7.554
  402SOL    HW2 3046   0.715  13.353   7.548
  403SOL     OW 3047  12.589  12.509  10.387
  403SOL    HW1 3048  12.552  12.494  10.300
  403SOL    HW2 3049  12.662  12.448  10.393
  404SOL     OW 3050   1.403   6.547   3.295
  404SOL    HW1 3051   1.489   6.545   3.336
  404SOL    HW2 3052   1.342   6.531   3.367
  405SOL     OW 3053   2.531  12.778  13.255
  405SOL    HW1 3054   2.485  12.697  13.237
  405SOL    HW2 3055   2.621  12.761  13.228
  406SOL     OW 3056   9.843   3.492   7.129
  406SOL    HW1 3057   9.904   3.564   7.142
  406SOL    HW2 3058   9.791   3.517   7.053
  407SOL     OW 3059  10.544  11.246   9.726
  407SOL    HW1 3060  10.627  11.212   9.759
  407SOL    HW2 3061  10.485  11.245   9.802
  408SOL     OW 3062   3.046   2.524  13.047
  408SOL    HW1 3063   3.106   2.459  13.012
  408SOL    HW2 3064   3.020   2.489  13.132
  409SOL     OW 3065  11.284   3.885   6.658
  409SOL    HW1 3066  11.253   3.934   6.734
  409SOL    HW2 3067  11.302   3.951   6.592
  410SOL     OW 3068  10.042  13.838  11.224
  410SOL    HW1 3069  10.095  13.760  11.206
  410SOL    HW2 3070   9.952  13.810  11.211
  411SOL     OW 3071   3.013  13.530   6.740
  411SOL    HW1 3072   2.944  13.501   6.681
  411SOL    HW2 3073   2.988  13.496   6.826
  412SOL     OW 3074   4.300  11.597   2.948
  412SOL    HW1 3075   4.275  11.647   3.026
  412SOL    HW2 3076   4.362  11.653   2.902
  413SOL     OW 3077   0.614   0.161   8.446
  413SOL    HW1 3078   0.548   0.177   8.513
  413SOL    HW2 3079   0.574   0.097   8.387
  414SOL     OW 3080   9.967   6.637   7.060
  414SOL    HW1 3081  10.059   6.663   7.069
  414SOL    HW2 3082   9.966   6.546   7.088
  415SOL     OW 3083   6.553  10.552  12.023
  415SOL    HW1 3084   6.508  10.484  11.973
  415SOL    HW2 3085   6.578  10.617  11.958
  416SOL     OW 3086  10.085   6.179   6.276
  416SOL    HW1 3087  10.040   6.207   6.196
  416SOL    HW2 3088  10.150   6.248   6.291
  417SOL     OW 3089   3.382   0.294  12.887
  417SOL    HW1 3090   3.343   0.225  12.940
  417SOL    HW2 3091   3.460   0.254  12.848
  418SOL     OW 3092  10.170   9.536   5.490
  418SOL    HW1 3093  10.117   9.561   5.414
  418SOL    HW2 3094  10.251   9.501   5.453
  419SOL     OW 3095   1.275   0.234   6.042
  419SOL    HW1 3096   1.206   0.204   5.982
  419SOL    HW2 3097   1.283   0.328   6.024
  420SOL     OW 3098  11.316   9.992   5.646
  420SOL    HW1 3099  11.294   9.939   5.723
  420SOL    HW2 3100  11.352   9.929   5.583
  421SOL     OW 3101  11.553  13.745   0.204
  421SOL    HW1 3102  11.532  13.838   0.208
  421SOL    HW2 3103  11.618  13.732   0.274
  422SOL     OW 3104  10.451   2.104   0.870
  422SOL    HW1 3105  10.444   2.100   0.775
  422SOL    HW2 3106  10.513   2.035   0.893
  423SOL     OW 3107  11.302  14.373  14.167
  423SOL    HW1 3108  11.216  14.346  14.198
  423SOL    HW2 3109  11.327  14.445  14.225
  424SOL     OW 3110   7.097   4.497   4.756
  424SOL    HW1 3111   7.080   4.518   4.664
  424SOL    HW2 3112   7.019   4.528   4.802
  425SOL     OW 3113   5.801   7.742   5.643
  425SOL    HW1 3114   5.841   7.655   5.635
  425SOL    HW2 3115   5.728   7.729   5.705
  426SOL     OW 3116   7.932   7.946  12.425
  426SOL    HW1 3117   7.950   7.966  12.517
  426SOL    HW2 3118   7.894   8.027  12.390
  427SOL     OW 3119   9.435  11.646   6.175
  427SOL    HW1 3120   9.385  11.724   6.150
  427SOL    HW2 3121   9.406  11.579   6.114
  428SOL     OW 3122   5.435  13.896   6.136
  428SOL    HW1 3123   5.375  13.825   6.112
  428SOL    HW2 3124   5.521  13.853   6.140
  429SOL     OW 3125   7.227   6.162   2.628
  429SOL    HW1 3126   7.142   6.195   2.599
  429SOL    HW2 3127   7.291   6.204   2.570
  430SOL     OW 3128   6.035  11.477  13.950
  430SOL    HW1 3129   6.077  11.391  13.951
  430SOL    HW2 3130   6.018  11.496  14.042
  431SOL     OW 3131   8.733  14.798  11.103
  431SOL    HW1 3132   8.737   0.017  11.089
  431SOL    HW2 3133   8.738  14.761  11.015
  432SOL     OW 3134   6.061   4.175   2.213
  432SOL    HW1 3135   6.076   4.117   2.287
  432SOL    HW2 3136   6.148   4.191   2.176
  433SOL     OW 3137   7.653   8.477  14.060
  433SOL    HW1 3138   7.608   8.481  14.144
  433SOL    HW2 3139   7.702   8.560  14.055
  434SOL     OW 3140  11.531  10.221   6.626
  434SOL    HW1 3141  11.481  10.207   6.706
  434SOL    HW2 3142  11.615  10.256   6.656
  435SOL     OW 3143   7.906  14.136   1.366
  435SOL    HW1 3144   7.998  14.161   1.354
  435SOL    HW2 3145   7.902  14.044   1.338
  436SOL     OW 3146   3.486   3.064  12.216
  436SOL    HW1 3147   3.391   3.076  12.227
  436SOL    HW2 3148   3.512   3.136  12.158
  437SOL     OW 3149  14.244  12.736   1.159
  437SOL    HW1 3150  14.285  12.727   1.245
  437SOL    HW2 3151  14.224  12.829   1.151
  438SOL     OW 3152  13.523   2.347   7.933
  438SOL    HW1 3153  13.496   2.307   7.850
  438SOL    HW2 3154  13.571   2.426   7.906
  439SOL     OW 3155  14.775  14.229   8.550
  439SOL    HW1 3156  14.810  14.158   8.604
  439SOL    HW2 3157  14.716  14.277   8.608
  440SOL     OW 3158  11.949   5.847   9.235
  440SOL    HW1 3159  11.992   5.912   9.291
  440SOL    HW2 3160  11.885   5.805   9.292
  441SOL     OW 3161  11.796   4.847   0.570
  441SOL    HW1 3162  11.770   4.783   0.504
  441SOL    HW2 3163  11.721   4.852   0.630
  442SOL     OW 3164   8.716   1.513  10.649
  442SOL    HW1 3165   8.685   1.588  10.597
  442SOL    HW2 3166   8.675   1.437  10.608
  443SOL     OW 3167  13.238   3.777   2.557
  443SOL    HW1 3168  13.299   3.821   2.617
  443SOL    HW2 3169  13.181   3.847   2.526
  444SOL     OW 3170   3.781   9.256   9.265
  444SOL    HW1 3171   3.818   9.335   9.305
  444SOL    HW2 3172   3.857   9.210   9.229
  445SOL     OW 3173  12.333  14.616   8.505
  445SOL    HW1 3174  12.304  14.591   8.417
  445SOL    HW2 3175  12.390  14.545   8.532
  446SOL     OW 3176  10.136   5.301  12.729
  446SOL    HW1 3177  10.069   5.357  12.768
  446SOL    HW2 3178  10.218   5.329  12.770
  447SOL     OW 3179  11.353  12.919   5.009
  447SOL    HW1 3180  11.346  13.000   4.958
  447SOL    HW2 3181  11.311  12.940   5.092
  448SOL     OW 3182   7.369  10.103   6.606
  448SOL    HW1 3183   7.311  10.040   6.564
  448SOL    HW2 3184   7.455  10.062   6.604
  449SOL     OW 3185   6.260   5.323  12.377
  449SOL    HW1 3186   6.207   5.275  12.313
  449SOL    HW2 3187   6.274   5.409  12.336
  450SOL     OW 3188   5.576  13.617   1.267
  450SOL    HW1 3189   5.641  13.546   1.269
  450SOL    HW2 3190   5.498  13.579   1.308
  451SOL     OW 3191   0.176   6.105  11.926
  451SOL    HW1 3192   0.153   6.191  11.889
  451SOL    HW2 3193   0.117   6.044  11.881
  452SOL     OW 3194   9.719   9.262   9.910
  452SOL    HW1 3195   9.664   9.195   9.869
  452SOL    HW2 3196   9.761   9.217   9.983
  453SOL     OW 3197   5.866  12.292  13.549
  453SOL    HW1 3198   5.777  12.267  13.572
  453SOL    HW2 3199   5.864  12.303  13.454
  454SOL     OW 3200   6.716   3.474  11.068
  454SOL    HW1 3201   6.787   3.440  11.014
  454SOL    HW2 3202   6.747   3.465  11.158
  455SOL     OW 3203  12.805   8.008   8.702
  455SOL    HW1 3204  12.898   8.022   8.685
  455SOL    HW2 3205  12.797   8.014   8.797
  456SOL     OW 3206   0.733   7.973  11.210
  456SOL    HW1 3207   0.811   7.918  11.201
  456SOL    HW2 3208   0.752   8.050  11.158
  457SOL     OW 3209  14.300  14.139   5.391
  457SOL    HW1 3210  14.336  14.072   5.449
  457SOL    HW2 3211  14.290  14.216   5.447
  458SOL     OW 3212  13.174   8.063  10.759
  458SOL    HW1 3213  13.231   8.107  10.822
  458SOL    HW2 3214  13.087   8.068  10.797
  459SOL     OW 3215  12.171  13.724   8.427
  459SOL    HW1 3216  12.149  13.698   8.516
  459SOL    HW2 3217  12.094  13.702   8.375
  460SOL     OW 3218   8.375   2.696  11.604
  460SOL    HW1 3219   8.374   2.767  11.667
  460SOL    HW2 3220   8.293   2.649  11.617
  461SOL     OW 3221   3.570   4.655   3.123
  461SOL    HW1 3222   3.595   4.708   3.199
  461SOL    HW2 3223   3.639   4.590   3.116
  462SOL     OW 3224   2.898   8.473   5.269
  462SOL    HW1 3225   2.864   8.391   5.306
  462SOL    HW2 3226   2.871   8.540   5.332
  463SOL     OW 3227  13.318  10.993   8.038
  463SOL    HW1 3228  13.358  10.936   7.972
  463SOL    HW2 3229  13.313  10.938   8.116
  464SOL     OW 3230  14.748  12.865   0.804
  464SOL    HW1 3231  14.701  12.949   0.796
  464SOL    HW2 3232  14.781  12.849   0.715
  465SOL     OW 3233  12.384   0.074  12.028
  465SOL    HW1 3234  12.464   0.036  12.065
  465SOL    HW2 3235  12.317   0.056  12.093
  466SOL     OW 3236   3.799  11.935   4.299
  466SOL    HW1 3237   3.725  11.991   4.275
  466SOL    HW2 3238   3.856  11.991   4.351
  467SOL     OW 3239   9.605  10.153  11.374
  467SOL    HW1 3240   9.647  10.239  11.379
  467SOL    HW2 3241   9.595  10.126  11.465
  468SOL     OW 3242   7.126   3.427   8.799
  468SOL    HW1 3243   7.041   3.384   8.791
  468SOL    HW2 3244   7.134   3.479   8.719
  469SOL     OW 3245  14.304   5.300  10.605
  469SOL    HW1 3246  14.242   5.350  10.553
  469SOL    HW2 3247  14.367   5.265  10.542
  470SOL     OW 3248   2.683   9.049   8.142
  470SOL    HW1 3249   2.686   8.953   8.152
  470SOL    HW2 3250   2.772   9.078   8.163
  471SOL     OW 3251   4.234   9.892   2.341
  471SOL    HW1 3252   4.254   9.949   2.267
  471SOL    HW2 3253   4.162   9.837   2.310
  472SOL     OW 3254   5.700  11.899   8.971
  472SOL    HW1 3255   5.636  11.892   9.041
  472SOL    HW2 3256   5.658  11.857   8.896
  473SOL     OW 3257   8.189   8.119   7.599
  473SOL    HW1 3258   8.283   8.119   7.580
  473SOL    HW2 3259   8.164   8.211   7.595
  474SOL     OW 3260   9.306   3.881   9.725
  474SOL    HW1 3261   9.385   3.936   9.728
  474SOL    HW2 3262   9.240   3.937   9.685
  475SOL     OW 3263   2.366   7.239   4.567
  475SOL    HW1 3264   2.446   7.290   4.552
  475SOL    HW2 3265   2.296   7.304   4.570
  476SOL     OW 3266   6.461  13.921   4.517
  476SOL    HW1 3267   6.495  13.968   4.594
  476SOL    HW2 3268   6.463  13.987   4.448
  477SOL     OW 3269   1.298   1.756  13.323
  477SOL    HW1 3270   1.294   1.709  13.240
  477SOL    HW2 3271   1.335   1.692  13.385
  478SOL     OW 3272   3.934  11.245   9.246
  478SOL    HW1 3273   3.864  11.235   9.310
  478SOL    HW2 3274   3.952  11.339   9.245
  479SOL     OW 3275  12.622   9.475  12.581
  479SOL    HW1 3276  12.650   9.383  12.584
  479SOL    HW2 3277  12.637   9.502  12.491
  480SOL     OW 3278   6.029   7.932  12.879
  480SOL    HW1 3279   5.964   7.999  12.899
  480SOL    HW2 3280   6.002   7.896  12.795
  481SOL     OW 3281   7.802   4.135  14.856
  481SOL    HW1 3282   7.850   4.078   0.040
  481SOL    HW2 3283   7.777   4.211   0.034
  482SOL     OW 3284   5.925  13.096   1.450
  482SOL    HW1 3285   5.939  13.073   1.358
  482SOL    HW2 3286   5.849  13.155   1.448
  483SOL     OW 3287   9.745   9.514   7.296
  483SOL    HW1 3288   9.670   9.514   7.235
  483SOL    HW2 3289   9.809   9.457   7.254
  484SOL     OW 3290   0.802   0.500  11.958
  484SOL    HW1 3291   0.733   0.552  11.917
  484SOL    HW2 3292   0.822   0.432  11.894
  485SOL     OW 3293   0.614   2.635   0.465
  485SOL    HW1 3294   0.567   2.716   0.484
  485SOL    HW2 3295   0.632   2.638   0.371
  486SOL     OW 3296  13.764  12.917   2.213
  486SOL    HW1 3297  13.768  12.829   2.177
  486SOL    HW2 3298  13.671  12.931   2.232
  487SOL     OW 3299  11.166   1.262   6.027
  487SOL    HW1 3300  11.165   1.352   5.995
  487SOL    HW2 3301  11.159   1.270   6.122
  488SOL     OW 3302   8.964   0.530   2.663
  488SOL    HW1 3303   8.898   0.492   2.606
  488SOL    HW2 3304   9.039   0.545   2.606
  489SOL     OW 3305   2.850  12.246   2.571
  489SOL    HW1 3306   2.786  12.230   2.501
  489SOL    HW2 3307   2.870  12.339   2.565
  490SOL     OW 3308   1.848   5.277  12.414
  490SOL    HW1 3309   1.917   5.312  12.471
  490SOL    HW2 3310   1.876   5.302  12.326
  491SOL     OW 3311  12.746  12.228  12.770
  491SOL    HW1 3312  12.661  12.230  12.815
  491SOL    HW2 3313  12.747  12.309  12.719
  492SOL     OW 3314  10.514   4.585   6.649
  492SOL    HW1 3315  10.551   4.523   6.586
  492SOL    HW2 3316  10.570   4.662   6.642
  493SOL     OW 3317   0.045   9.208  10.222
  493SOL    HW1 3318   0.073   9.120  10.247
  493SOL    HW2 3319   0.125   9.251  10.192
  494SOL     OW 3320   8.483   4.063  14.539
  494SOL    HW1 3321   8.435   4.008  14.476
  494SOL    HW2 3322   8.551   4.006  14.574
  495SOL     OW 3323   1.462  14.441   2.579
  495SOL    HW1 3324   1.458  14.437   2.674
  495SOL    HW2 3325   1.468  14.535   2.559
  496SOL     OW 3326  13.629   0.560  11.431
  496SOL    HW1 3327  13.704   0.568  11.490
  496SOL    HW2 3328  13.553   0.554  11.489
  497SOL     OW 3329   0.854   0.585  10.902
  497SOL    HW1 3330   0.788   0.649  10.875
  497SOL    HW2 3331   0.806   0.521  10.955
  498SOL     OW 3332  13.509   6.033   6.914
  498SOL    HW1 3333  13.464   5.999   6.992
  498SOL    HW2 3334  13.571   5.964   6.890
  499SOL     OW 3335   1.395   8.294   8.926
  499SOL    HW1 3336   1.385   8.388   8.911
  499SOL    HW2 3337   1.433   8.287   9.013
  500SOL     OW 3338   4.133  13.979  11.620
  500SOL    HW1 3339   4.134  14.052  11.558
  500SOL    HW2 3340   4.154  13.902  11.566
  501SOL     OW 3341   0.690   2.151  12.887
  501SOL    HW1 3342   0.649   2.086  12.829
  501SOL    HW2 3343   0.722   2.100  12.961
  502SOL     OW 3344   0.200   2.209  13.352
  502SOL    HW1 3345   0.202   2.113  13.357
  502SOL    HW2 3346   0.260   2.238  13.420
  503SOL     OW 3347  14.614  14.840   1.654
  503SOL    HW1 3348  14.703  14.857   1.625
  503SOL    HW2 3349  14.564  14.824   1.574
  504SOL     OW 3350   9.003   1.241   5.944
  504SOL    HW1 3351   9.017   1.227   5.850
  504SOL    HW2 3352   8.923   1.193   5.964
  505SOL     OW 3353   4.853   2.092   5.320
  505SOL    HW1 3354   4.818   2.170   5.277
  505SOL    HW2 3355   4.777   2.039   5.340
  506SOL     OW 3356  12.945   6.165   2.299
  506SOL    HW1 3357  12.907   6.212   2.373
  506SOL    HW2 3358  13.009   6.106   2.339
  507SOL     OW 3359  14.354   6.306   6.156
  507SOL    HW1 3360  14.305   6.244   6.101
  507SOL    HW2 3361  14.403   6.360   6.094
  508SOL     OW 3362   4.492   2.061   2.560
  508SOL    HW1 3363   4.432   2.113   2.614
  508SOL    HW2 3364   4.440   2.035   2.485
  509SOL     OW 3365   6.790   9.115  12.628
  509SOL    HW1 3366   6.695   9.100  12.621
  509SOL    HW2 3367   6.824   9.032  12.664
  510SOL     OW 3368   6.442  12.069   2.032
  510SOL    HW1 3369   6.527  12.031   2.054
  510SOL    HW2 3370   6.451  12.162   2.054
  511SOL     OW 3371  14.309  10.915   0.901
  511SOL    HW1 3372  14.320  10.870   0.817
  511SOL    HW2 3373  14.397  10.916   0.939
  512SOL     OW 3374   0.042   8.301   5.676
  512SOL    HW1 3375   0.105   8.234   5.648
  512SOL    HW2 3376  14.859   8.256   5.735
  513SOL     OW 3377   3.665   1.668   2.625
  513SOL    HW1 3378   3.595   1.638   2.683
  513SOL    HW2 3379   3.642   1.632   2.540
  514SOL     OW 3380   3.235  11.489  10.702
  514SOL    HW1 3381   3.256  11.505  10.610
  514SOL    HW2 3382   3.266  11.400  10.718
  515SOL     OW 3383  10.383  10.287   0.164
  515SOL    HW1 3384  10.433  10.206   0.170
  515SOL    HW2 3385  10.438  10.345   0.111
  516SOL     OW 3386  12.578   9.929   9.201
  516SOL    HW1 3387  12.571   9.852   9.258
  516SOL    HW2 3388  12.664   9.920   9.160
  517SOL     OW 3389  14.241  10.981   1.926
  517SOL    HW1 3390  14.239  10.886   1.936
  517SOL    HW2 3391  14.181  10.999   1.854
  518SOL     OW 3392  13.940   4.997   6.465
  518SOL    HW1 3393  13.978   5.084   6.472
  518SOL    HW2 3394  13.861   5.000   6.520
  519SOL     OW 3395   0.563   1.898   7.039
  519SOL    HW1 3396   0.548   1.984   7.078
  519SOL    HW2 3397   0.655   1.879   7.059
  520SOL     OW 3398   1.532   8.707   5.018
  520SOL    HW1 3399   1.576   8.706   4.932
  520SOL    HW2 3400   1.589   8.761   5.072
  521SOL     OW 3401  11.894   5.589   2.685
  521SOL    HW1 3402  11.809   5.597   2.641
  521SOL    HW2 3403  11.873   5.579   2.778
  522SOL     OW 3404  11.337   1.392  12.036
  522SOL    HW1 3405  11.330   1.450  11.961
  522SOL    HW2 3406  11.272   1.323  12.019
  523SOL     OW 3407   6.293   5.627   0.581
  523SOL    HW1 3408   6.374   5.659   0.621
  523SOL    HW2 3409   6.320   5.549   0.532
  524SOL     OW 3410   4.282   6.988   4.336
  524SOL    HW1 3411   4.340   7.016   4.265
  524SOL    HW2 3412   4.199   7.033   4.318
  525SOL     OW 3413  13.380   0.340  12.032
  525SOL    HW1 3414  13.473   0.328  12.014
  525SOL    HW2 3415  13.340   0.352  11.946
  526SOL     OW 3416   2.178  13.684  12.161
  526SOL    HW1 3417   2.123  13.739  12.105
  526SOL    HW2 3418   2.261  13.732  12.167
  527SOL     OW 3419   2.808  10.377  12.188
  527SOL    HW1 3420   2.735  10.415  12.138
  527SOL    HW2 3421   2.765  10.324  12.255
  528SOL     OW 3422   1.378  13.028   6.715
  528SOL    HW1 3423   1.332  13.015   6.798
  528SOL    HW2 3424   1.399  13.122   6.714
  529SOL     OW 3425  12.245   2.870   4.021
  529SOL    HW1 3426  12.277   2.922   3.947
  529SOL    HW2 3427  12.317   2.810   4.041
  530SOL     OW 3428   4.543  10.599   8.841
  530SOL    HW1 3429   4.494  10.516   8.835
  530SOL    HW2 3430   4.480  10.666   8.816
  531SOL     OW 3431  10.621  12.186   0.164
  531SOL    HW1 3432  10.630  12.093   0.181
  531SOL    HW2 3433  10.711  12.219   0.163
  532SOL     OW 3434  10.822   9.015  10.539
  532SOL    HW1 3435  10.810   9.105  10.509
  532SOL    HW2 3436  10.737   8.990  10.574
  533SOL     OW 3437   3.523   0.477   8.926
  533SOL    HW1 3438   3.440   0.480   8.974
  533SOL    HW2 3439   3.527   0.388   8.890
  534SOL     OW 3440   7.632   0.868  14.485
  534SOL    HW1 3441   7.550   0.818  14.475
  534SOL    HW2 3442   7.700   0.801  14.489
  535SOL     OW 3443   7.617  10.204  13.845
  535SOL    HW1 3444   7.528  10.214  13.812
  535SOL    HW2 3445   7.632  10.282  13.898
  536SOL     OW 3446   1.823  13.489  12.223
  536SOL    HW1 3447   1.879  13.524  12.293
  536SOL    HW2 3448   1.788  13.408  12.258
  537SOL     OW 3449  11.139  10.127   8.415
  537SOL    HW1 3450  11.189  10.167   8.343
  537SOL    HW2 3451  11.129  10.198   8.479
  538SOL     OW 3452   5.462  12.517  10.855
  538SOL    HW1 3453   5.407  12.532  10.779
  538SOL    HW2 3454   5.551  12.532  10.823
  539SOL     OW 3455   7.766   4.892   0.126
  539SOL    HW1 3456   7.762   4.839   0.046
  539SOL    HW2 3457   7.730   4.977   0.101
  540SOL     OW 3458   8.206   0.178   6.503
  540SOL    HW1 3459   8.136   0.118   6.528
  540SOL    HW2 3460   8.280   0.121   6.483
  541SOL     OW 3461   8.058   7.317  13.381
  541SOL    HW1 3462   8.020   7.405  13.375
  541SOL    HW2 3463   8.066   7.301  13.475
  542SOL     OW 3464   9.864   5.625   6.188
  542SOL    HW1 3465   9.936   5.573   6.223
  542SOL    HW2 3466   9.882   5.630   6.094
  543SOL     OW 3467  12.880  14.374   8.642
  543SOL    HW1 3468  12.954  14.354   8.584
  543SOL    HW2 3469  12.848  14.288   8.670
  544SOL     OW 3470  10.454  12.697  11.941
  544SOL    HW1 3471  10.421  12.782  11.969
  544SOL    HW2 3472  10.457  12.703  11.845
  545SOL     OW 3473   4.801   9.914  12.228
  545SOL    HW1 3474   4.739   9.956  12.169
  545SOL    HW2 3475   4.747   9.857  12.283
  546SOL     OW 3476   8.707  13.972   5.851
  546SOL    HW1 3477   8.788  13.932   5.882
  546SOL    HW2 3478   8.711  13.964   5.756
  547SOL     OW 3479  13.080  10.309  10.358
  547SOL    HW1 3480  13.079  10.249  10.433
  547SOL    HW2 3481  13.073  10.396  10.397
  548SOL     OW 3482   2.979  10.735  12.179
  548SOL    HW1 3483   3.012  10.822  12.159
  548SOL    HW2 3484   2.958  10.697  12.094
  549SOL     OW 3485   1.442  13.578   6.999
  549SOL    HW1 3486   1.451  13.485   7.020
  549SOL    HW2 3487   1.442  13.622   7.084
  550SOL     OW 3488   6.370   6.331   2.964
  550SOL    HW1 3489   6.400   6.397   2.901
  550SOL    HW2 3490   6.427   6.344   3.040
  551SOL     OW 3491   4.885   8.909  10.866
  551SOL    HW1 3492   4.979   8.918  10.879
  551SOL    HW2 3493   4.875   8.899  10.771
  552SOL     OW 3494   8.740   9.060  10.370
  552SOL    HW1 3495   8.781   9.141  10.400
  552SOL    HW2 3496   8.650   9.066  10.402
  553SOL     OW 3497   0.009   5.756   9.314
  553SOL    HW1 3498   0.052   5.671   9.326
  553SOL    HW2 3499  14.795   5.736   9.292
  554SOL     OW 3500  12.598   6.468   6.113
  554SOL    HW1 3501  12.660   6.397   6.129
  554SOL    HW2 3502  12.513   6.435   6.142
  555SOL     OW 3503   3.954   5.102   1.095
  555SOL    HW1 3504   4.008   5.156   1.153
  555SOL    HW2 3505   4.016   5.068   1.030
  556SOL     OW 3506   2.661  14.064   5.880
  556SOL    HW1 3507   2.725  14.109   5.936
  556SOL    HW2 3508   2.701  13.979   5.863
  557SOL     OW 3509   9.939  11.634   3.030
  557SOL    HW1 3510   9.945  11.608   2.938
  557SOL    HW2 3511   9.879  11.570   3.068
  558SOL     OW 3512   7.002  13.245  10.356
  558SOL    HW1 3513   7.023  13.338  10.364
  558SOL    HW2 3514   7.079  13.200  10.390
  559SOL     OW 3515  12.495   6.500   0.890
  559SOL    HW1 3516  12.588   6.516   0.880
  559SOL    HW2 3517  12.454   6.586   0.886
  560SOL     OW 3518  11.250   2.261   4.208
  560SOL    HW1 3519  11.157   2.242   4.199
  560SOL    HW2 3520  11.293   2.201   4.147
  561SOL     OW 3521  13.513   5.566   1.602
  561SOL    HW1 3522  13.575   5.618   1.653
  561SOL    HW2 3523  13.478   5.627   1.537
  562SOL     OW 3524   1.948   2.941   9.659
  562SOL    HW1 3525   1.983   2.983   9.581
  562SOL    HW2 3526   1.893   3.009   9.699
  563SOL     OW 3527   0.835   3.953  13.995
  563SOL    HW1 3528   0.873   3.882  13.943
  563SOL    HW2 3529   0.752   3.973  13.952
  564SOL     OW 3530   0.461   8.265   4.591
  564SOL    HW1 3531   0.449   8.170   4.581
  564SOL    HW2 3532   0.551   8.274   4.623
  565SOL     OW 3533   1.941  14.522  11.131
  565SOL    HW1 3534   1.894  14.449  11.173
  565SOL    HW2 3535   1.920  14.514  11.038
  566SOL     OW 3536  10.068   8.962  11.334
  566SOL    HW1 3537  10.143   8.913  11.369
  566SOL    HW2 3538  10.053   9.032  11.397
  567SOL     OW 3539   5.969   1.027   4.137
  567SOL    HW1 3540   5.997   1.113   4.107
  567SOL    HW2 3541   6.020   1.012   4.217
  568SOL     OW 3542  12.457  13.496  12.882
  568SOL    HW1 3543  12.486  13.573  12.931
  568SOL    HW2 3544  12.530  13.476  12.824
  569SOL     OW 3545   5.682  11.123  14.427
  569SOL    HW1 3546   5.688  11.029  14.442
  569SOL    HW2 3547   5.642  11.157  14.508
  570SOL     OW 3548  11.858   6.628   9.690
  570SOL    HW1 3549  11.929   6.689   9.711
  570SOL    HW2 3550  11.780   6.683   9.682
  571SOL     OW 3551   5.647   9.061   6.530
  571SOL    HW1 3552   5.714   9.076   6.463
  571SOL    HW2 3553   5.697   9.058   6.612
  572SOL     OW 3554   8.348   0.067   6.087
  572SOL    HW1 3555   8.284   0.037   6.151
  572SOL    HW2 3556   8.417   0.000   6.088
  573SOL     OW 3557   2.136   5.382   0.445
  573SOL    HW1 3558   2.152   5.442   0.518
  573SOL    HW2 3559   2.125   5.296   0.486
  574SOL     OW 3560   5.714   3.878   7.301
  574SOL    HW1 3561   5.693   3.790   7.331
  574SOL    HW2 3562   5.798   3.898   7.343
  575SOL     OW 3563   2.880   7.232   5.195
  575SOL    HW1 3564   2.939   7.303   5.170
  575SOL    HW2 3565   2.862   7.186   5.112
  576SOL     OW 3566  13.262  10.679  11.977
  576SOL    HW1 3567  13.224  10.591  11.981
  576SOL    HW2 3568  13.192  10.736  12.008
  577SOL     OW 3569  14.871  13.401  12.206
  577SOL    HW1 3570  14.876  13.453  12.126
  577SOL    HW2 3571   0.051  13.326  12.189
  578SOL     OW 3572  10.560   4.393   9.047
  578SOL    HW1 3573  10.597   4.440   8.973
  578SOL    HW2 3574  10.587   4.443   9.124
  579SOL     OW 3575   5.409   1.531  10.109
  579SOL    HW1 3576   5.372   1.454  10.152
  579SOL    HW2 3577   5.340   1.561  10.050
  580SOL     OW 3578  14.243   9.332   6.501
  580SOL    HW1 3579  14.214   9.410   6.548
  580SOL    HW2 3580  14.207   9.342   6.413
  581SOL     OW 3581   7.851  14.364   1.789
  581SOL    HW1 3582   7.825  14.277   1.756
  581SOL    HW2 3583   7.944  14.370   1.771
  582SOL     OW 3584  11.712   6.319   9.738
  582SOL    HW1 3585  11.795   6.302   9.693
  582SOL    HW2 3586  11.738   6.348   9.826
  583SOL     OW 3587  13.288   3.046   7.202
  583SOL    HW1 3588  13.262   3.127   7.246
  583SOL    HW2 3589  13.270   3.063   7.109
  584SOL     OW 3590   7.314   0.472   5.010
  584SOL    HW1 3591   7.264   0.429   5.079
  584SOL    HW2 3592   7.330   0.403   4.946
  585SOL     OW 3593  12.055  11.142  10.826
  585SOL    HW1 3594  12.124  11.084  10.792
  585SOL    HW2 3595  11.974  11.094  10.811
  586SOL     OW 3596   8.030   8.853  13.806
  586SOL    HW1 3597   7.966   8.830  13.738
  586SOL    HW2 3598   8.062   8.770  13.838
  587SOL     OW 3599   0.993   9.452  10.418
  587SOL    HW1 3600   0.927   9.385  10.436
  587SOL    HW2 3601   0.945   9.535  10.423
  588SOL     OW 3602   8.850  14.148   4.431
  588SOL    HW1 3603   8.778  14.209   4.446
  588SOL    HW2 3604   8.829  14.105   4.348
  589SOL     OW 3605  13.306   5.777   6.711
  589SOL    HW1 3606  13.313   5.718   6.636
  589SOL    HW2 3607  13.396   5.809   6.724
  590SOL     OW 3608   2.523  10.436  13.670
  590SOL    HW1 3609   2.449  10.493  13.692
  590SOL    HW2 3610   2.547  10.396  13.754
  591SOL     OW 3611   2.066   6.895   8.739
  591SOL    HW1 3612   2.110   6.980   8.745
  591SOL    HW2 3613   2.067   6.874   8.646
  592SOL     OW 3614   7.169  14.348   1.073
  592SOL    HW1 3615   7.258  14.353   1.109
  592SOL    HW2 3616   7.163  14.421   1.012
  593SOL     OW 3617   7.616   0.529   4.165
  593SOL    HW1 3618   7.592   0.573   4.083
  593SOL    HW2 3619   7.650   0.444   4.137
  594SOL     OW 3620   7.641   2.168  10.017
  594SOL    HW1 3621   7.706   2.130   9.958
  594SOL    HW2 3622   7.611   2.094  10.070
  595SOL     OW 3623   5.576   8.680   7.076
  595SOL    HW1 3624   5.638   8.724   7.134
  595SOL    HW2 3625   5.555   8.745   7.009
  596SOL     OW 3626   2.617  13.808  13.372
  596SOL    HW1 3627   2.578  13.864  13.439
  596SOL    HW2 3628   2.567  13.827  13.293
  597SOL     OW 3629  12.636   4.606   8.702
  597SOL    HW1 3630  12.610   4.689   8.660
  597SOL    HW2 3631  12.664   4.632   8.790
  598SOL     OW 3632   3.684   4.310   6.510
  598SOL    HW1 3633   3.695   4.372   6.582
  598SOL    HW2 3634   3.638   4.359   6.442
  599SOL     OW 3635   3.506  11.906   3.937
  599SOL    HW1 3636   3.466  11.850   3.871
  599SOL    HW2 3637   3.569  11.850   3.982
  600SOL     OW 3638   7.474   3.683  10.790
  600SOL    HW1 3639   7.480   3.777  10.807
  600SOL    HW2 3640   7.451   3.644  10.874
  601SOL     OW 3641   7.405   3.425   4.097
  601SOL    HW1 3642   7.377   3.414   4.006
  601SOL    HW2 3643   7.408   3.519   4.111
  602SOL     OW 3644  10.134   1.992   2.430
  602SOL    HW1 3645  10.225   2.022   2.435
  602SOL    HW2 3646  10.082   2.064   2.466
  603SOL     OW 3647  12.264  13.583   5.259
  603SOL    HW1 3648  12.278  13.661   5.204
  603SOL    HW2 3649  12.188  13.606   5.313
  604SOL     OW 3650   5.357  13.292  14.366
  604SOL    HW1 3651   5.346  13.340  14.284
  604SOL    HW2 3652   5.366  13.361  14.433
  605SOL     OW 3653   5.002   9.809   7.603
  605SOL    HW1 3654   5.047   9.758   7.670
  605SOL    HW2 3655   5.067   9.820   7.534
  606SOL     OW 3656   9.112   0.620   5.274
  606SOL    HW1 3657   9.027   0.602   5.232
  606SOL    HW2 3658   9.142   0.701   5.235
  607SOL     OW 3659   6.632  13.457   1.211
  607SOL    HW1 3660   6.640  13.383   1.272
  607SOL    HW2 3661   6.703  13.443   1.148
  608SOL     OW 3662  12.351   8.009   8.928
  608SOL    HW1 3663  12.338   7.933   8.984
  608SOL    HW2 3664  12.445   8.025   8.931
  609SOL     OW 3665   7.949   5.588  13.149
  609SOL    HW1 3666   7.928   5.544  13.231
  609SOL    HW2 3667   7.972   5.516  13.089
  610SOL     OW 3668  12.123  10.393   0.417
  610SOL    HW1 3669  12.141  10.487   0.418
  610SOL    HW2 3670  12.209  10.352   0.405
  611SOL     OW 3671   1.515   9.011  14.846
  611SOL    HW1 3672   1.459   9.077  14.806
  611SOL    HW2 3673   1.497   8.931  14.798
  612SOL     OW 3674   4.171   9.575  11.619
  612SOL    HW1 3675   4.190   9.655  11.571
  612SOL    HW2 3676   4.218   9.584  11.702
  613SOL     OW 3677   0.826   1.160  13.623
  613SOL    HW1 3678   0.836   1.065  13.621
  613SOL    HW2 3679   0.916   1.194  13.616
  614SOL     OW 3680  11.071   5.934   2.311
  614SOL    HW1 3681  11.043   5.994   2.380
  614SOL    HW2 3682  11.147   5.976   2.272
  615SOL     OW 3683  14.370  13.511   3.031
  615SOL    HW1 3684  14.416  13.567   3.093
  615SOL    HW2 3685  14.324  13.447   3.086
  616SOL     OW 3686  13.480   1.829  14.831
  616SOL    HW1 3687  13.402   1.861  14.876
  616SOL    HW2 3688  13.513   1.905  14.783
  617SOL     OW 3689   3.243   5.273  10.464
  617SOL    HW1 3690   3.294   5.198  10.493
  617SOL    HW2 3691   3.165   5.236  10.424
  618SOL     OW 3692  10.097  13.301   9.072
  618SOL    HW1 3693  10.161  13.348   9.126
  618SOL    HW2 3694  10.130  13.310   8.982
  619SOL     OW 3695  12.336   4.921   3.107
  619SOL    HW1 3696  12.299   4.860   3.171
  619SOL    HW2 3697  12.430   4.901   3.106
  620SOL     OW 3698   1.529  14.192   1.267
  620SOL    HW1 3699   1.618  14.212   1.240
  620SOL    HW2 3700   1.502  14.268   1.320
  621SOL     OW 3701   9.363   6.080   8.413
  621SOL    HW1 3702   9.410   6.004   8.377
  621SOL    HW2 3703   9.431   6.147   8.424
  622SOL     OW 3704   4.110   0.383   4.192
  622SOL    HW1 3705   4.154   0.300   4.211
  622SOL    HW2 3706   4.182   0.445   4.177
  623SOL     OW 3707  11.220   1.027  10.961
  623SOL    HW1 3708  11.230   0.932  10.955
  623SOL    HW2 3709  11.152   1.041  11.026
  624SOL     OW 3710   7.985   9.465  13.261
  624SOL    HW1 3711   7.931   9.504  13.191
  624SOL    HW2 3712   7.941   9.491  13.342
  625SOL     OW 3713  14.100   8.114  11.873
  625SOL    HW1 3714  14.040   8.058  11.921
  625SOL    HW2 3715  14.075   8.105  11.781
  626SOL     OW 3716   8.838   6.726  10.596
  626SOL    HW1 3717   8.770   6.785  10.564
  626SOL    HW2 3718   8.821   6.643  10.551
  627SOL     OW 3719   8.718   8.249   0.462
  627SOL    HW1 3720   8.779   8.322   0.449
  627SOL    HW2 3721   8.763   8.190   0.522
  628SOL     OW 3722   2.810  11.364   9.348
  628SOL    HW1 3723   2.758  11.400   9.421
  628SOL    HW2 3724   2.756  11.293   9.313
  629SOL     OW 3725  13.321   0.667   2.189
  629SOL    HW1 3726  13.272   0.653   2.108
  629SOL    HW2 3727  13.407   0.630   2.172
  630SOL     OW 3728   2.287  10.387  14.223
  630SOL    HW1 3729   2.245  10.339  14.294
  630SOL    HW2 3730   2.221  10.452  14.197
  631SOL     OW 3731   3.507   9.654   8.867
  631SOL    HW1 3732   3.444   9.609   8.811
  631SOL    HW2 3733   3.592   9.639   8.825
  632SOL     OW 3734   7.733   8.880   0.014
  632SOL    HW1 3735   7.768   8.835  14.814
  632SOL    HW2 3736   7.652   8.920  14.860
  633SOL     OW 3737   9.343   6.965  11.341
  633SOL    HW1 3738   9.386   6.940  11.422
  633SOL    HW2 3739   9.322   7.058  11.352
  634SOL     OW 3740   7.109  12.751  11.755
  634SOL    HW1 3741   7.087  12.711  11.839
  634SOL    HW2 3742   7.146  12.679  11.704
  635SOL     OW 3743  12.782   3.343  14.751
  635SOL    HW1 3744  12.818   3.258  14.775
  635SOL    HW2 3745  12.718   3.361  14.820
  636SOL     OW 3746   8.536   8.966   0.948
  636SOL    HW1 3747   8.608   8.907   0.971
  636SOL    HW2 3748   8.487   8.918   0.881
  637SOL     OW 3749  11.244   6.391   6.166
  637SOL    HW1 3750  11.272   6.408   6.076
  637SOL    HW2 3751  11.149   6.381   6.160
  638SOL     OW 3752  11.896  14.414   7.667
  638SOL    HW1 3753  11.928  14.485   7.611
  638SOL    HW2 3754  11.946  14.422   7.748
  639SOL     OW 3755  13.935  11.889  11.146
  639SOL    HW1 3756  13.953  11.795  11.144
  639SOL    HW2 3757  13.856  11.897  11.200
  640SOL     OW 3758   3.746   1.460   9.846
  640SOL    HW1 3759   3.743   1.551   9.874
  640SOL    HW2 3760   3.837   1.446   9.819
  641SOL     OW 3761  10.833  10.210   7.608
  641SOL    HW1 3762  10.872  10.214   7.695
  641SOL    HW2 3763  10.838  10.300   7.575
  642SOL     OW 3764   6.834   2.640   4.834
  642SOL    HW1 3765   6.910   2.621   4.888
  642SOL    HW2 3766   6.785   2.557   4.831
  643SOL     OW 3767   3.630   1.001   3.385
  643SOL    HW1 3768   3.562   1.022   3.320
  643SOL    HW2 3769   3.581   0.985   3.466
  644SOL     OW 3770   4.518   7.098   9.800
  644SOL    HW1 3771   4.601   7.142   9.820
  644SOL    HW2 3772   4.459   7.169   9.773
  645SOL     OW 3773   1.839   7.823   4.981
  645SOL    HW1 3774   1.898   7.879   5.032
  645SOL    HW2 3775   1.848   7.853   4.891
  646SOL     OW 3776  10.999  14.306   4.589
  646SOL    HW1 3777  10.914  14.331   4.624
  646SOL    HW2 3778  11.043  14.389   4.569
  647SOL     OW 3779   1.274   8.065   9.246
  647SOL    HW1 3780   1.248   8.086   9.336
  647SOL    HW2 3781   1.333   8.136   9.221
  648SOL     OW 3782   5.384   9.737   4.805
  648SOL    HW1 3783   5.325   9.803   4.770
  648SOL    HW2 3784   5.471   9.763   4.773
  649SOL     OW 3785   0.704   1.699   3.591
  649SOL    HW1 3786   0.675   1.621   3.638
  649SOL    HW2 3787   0.653   1.770   3.630
  650SOL     OW 3788  10.394  10.025   0.921
  650SOL    HW1 3789  10.305  10.052   0.942
  650SOL    HW2 3790  10.450  10.091   0.961
  651SOL     OW 3791   0.730   8.908  13.253
  651SOL    HW1 3792   0.775   8.824  13.265
  651SOL    HW2 3793   0.642   8.894  13.288
  652SOL     OW 3794  14.018  14.341   7.039
  652SOL    HW1 3795  13.952  14.276   7.018
  652SOL    HW2 3796  14.097  14.290   7.059
  653SOL     OW 3797   3.393   8.232  11.375
  653SOL    HW1 3798   3.436   8.239  11.460
  653SOL    HW2 3799   3.323   8.296  11.378
  654SOL     OW 3800  14.621  14.507  10.882
  654SOL    HW1 3801  14.583  14.446  10.945
  654SOL    HW2 3802  14.547  14.536  10.830
  655SOL     OW 3803   5.779  11.310  12.694
  655SOL    HW1 3804   5.808  11.391  12.737
  655SOL    HW2 3805   5.835  11.242  12.732
  656SOL     OW 3806   7.117   6.863  13.033
  656SOL    HW1 3807   7.118   6.919  13.111
  656SOL    HW2 3808   7.210   6.844  13.016
  657SOL     OW 3809   3.158   8.806   3.570
  657SOL    HW1 3810   3.250   8.831   3.579
  657SOL    HW2 3811   3.109   8.884   3.597
  658SOL     OW 3812   1.805  13.253   3.785
  658SOL    HW1 3813   1.875  13.226   3.844
  658SOL    HW2 3814   1.848  13.306   3.718
  659SOL     OW 3815  13.817   4.041  13.854
  659SOL    HW1 3816  13.766   4.082  13.923
  659SOL    HW2 3817  13.767   4.058  13.774
  660SOL     OW 3818   8.530   1.424   5.542
  660SOL    HW1 3819   8.604   1.483   5.556
  660SOL    HW2 3820   8.536   1.361   5.614
  661SOL     OW 3821   2.449  10.774   7.948
  661SOL    HW1 3822   2.459  10.686   7.911
  661SOL    HW2 3823   2.538  10.809   7.950
  662SOL     OW 3824  10.243  11.648  11.698
  662SOL    HW1 3825  10.148  11.635  11.704
  662SOL    HW2 3826  10.258  11.732  11.742
  663SOL     OW 3827   9.717   9.696   8.044
  663SOL    HW1 3828   9.622   9.694   8.027
  663SOL    HW2 3829   9.743   9.784   8.017
  664SOL     OW 3830  12.046   4.427   2.114
  664SOL    HW1 3831  12.001   4.347   2.139
  664SOL    HW2 3832  12.103   4.401   2.042
  665SOL     OW 3833   6.278   4.385   0.068
  665SOL    HW1 3834   6.298   4.341   0.150
  665SOL    HW2 3835   6.312   4.327   0.000
  666SOL     OW 3836  10.760  11.844  13.221
  666SOL    HW1 3837  10.748  11.801  13.136
  666SOL    HW2 3838  10.774  11.936  13.199
  667SOL     OW 3839   9.196   5.018  11.195
  667SOL    HW1 3840   9.137   4.999  11.123
  667SOL    HW2 3841   9.280   5.037  11.153
  668SOL     OW 3842   4.489   1.591  14.432
  668SOL    HW1 3843   4.457   1.522  14.490
  668SOL    HW2 3844   4.449   1.572  14.348
  669SOL     OW 3845   5.797  11.453   9.070
  669SOL    HW1 3846   5.843  11.438   9.153
  669SOL    HW2 3847   5.839  11.393   9.009
  670SOL     OW 3848   7.930   7.936   4.677
  670SOL    HW1 3849   7.914   7.947   4.771
  670SOL    HW2 3850   8.021   7.962   4.665
  671SOL     OW 3851  14.559   2.222   3.662
  671SOL    HW1 3852  14.627   2.202   3.726
  671SOL    HW2 3853  14.519   2.304   3.694
  672SOL     OW 3854   2.354  14.572   7.172
  672SOL    HW1 3855   2.405  14.496   7.198
  672SOL    HW2 3856   2.389  14.644   7.225
  673SOL     OW 3857   9.824  13.151  14.182
  673SOL    HW1 3858   9.882  13.169  14.109
  673SOL    HW2 3859   9.844  13.219  14.246
  674SOL     OW 3860   0.530  14.857  12.495
  674SOL    HW1 3861   0.488  14.775  12.468
  674SOL    HW2 3862   0.613  14.858  12.447
  675SOL     OW 3863   8.038   1.562  11.191
  675SOL    HW1 3864   7.952   1.533  11.159
  675SOL    HW2 3865   8.017   1.635  11.250
  676SOL     OW 3866  13.751   8.640  11.327
  676SOL    HW1 3867  13.811   8.583  11.374
  676SOL    HW2 3868  13.801   8.720  11.310
  677SOL     OW 3869  14.628   4.721  13.157
  677SOL    HW1 3870  14.600   4.808  13.184
  677SOL    HW2 3871  14.551   4.683  13.115
  678SOL     OW 3872  12.774   5.023   4.625
  678SOL    HW1 3873  12.849   5.081   4.609
  678SOL    HW2 3874  12.722   5.071   4.690
  679SOL     OW 3875   5.639   0.342  13.487
  679SOL    HW1 3876   5.700   0.356  13.561
  679SOL    HW2 3877   5.581   0.418  13.490
  680SOL     OW 3878   6.417   9.880   0.194
  680SOL    HW1 3879   6.504   9.915   0.211
  680SOL    HW2 3880   6.376   9.944   0.136
  681SOL     OW 3881   5.362  12.754   4.042
  681SOL    HW1 3882   5.280  12.788   4.006
  681SOL    HW2 3883   5.345  12.662   4.058
  682SOL     OW 3884  14.754  10.078   5.994
  682SOL    HW1 3885  14.666  10.057   6.022
  682SOL    HW2 3886  14.783  10.147   6.053
  683SOL     OW 3887  14.137   6.274   9.317
  683SOL    HW1 3888  14.133   6.254   9.223
  683SOL    HW2 3889  14.048   6.301   9.339
  684SOL     OW 3890   5.435   7.484   5.820
  684SOL    HW1 3891   5.458   7.402   5.864
  684SOL    HW2 3892   5.340   7.491   5.832
  685SOL     OW 3893   5.024  10.843   2.941
  685SOL    HW1 3894   5.091  10.820   2.876
  685SOL    HW2 3895   4.951  10.785   2.922
  686SOL     OW 3896  11.799   5.990   0.469
  686SOL    HW1 3897  11.860   5.965   0.539
  686SOL    HW2 3898  11.812   5.923   0.402
  687SOL     OW 3899   4.372  13.937   2.529
  687SOL    HW1 3900   4.339  13.849   2.546
  687SOL    HW2 3901   4.313  13.973   2.463
  688SOL     OW 3902   9.999   6.838   9.843
  688SOL    HW1 3903   9.911   6.876   9.842
  688SOL    HW2 3904  10.026   6.837   9.751
  689SOL     OW 3905   9.561   1.519  13.675
  689SOL    HW1 3906   9.637   1.507  13.731
  689SOL    HW2 3907   9.581   1.468  13.596
  690SOL     OW 3908  11.867   1.810  10.742
  690SOL    HW1 3909  11.878   1.815  10.647
  690SOL    HW2 3910  11.885   1.719  10.764
  691SOL     OW 3911   8.958   1.518   1.789
  691SOL    HW1 3912   8.932   1.458   1.859
  691SOL    HW2 3913   8.922   1.478   1.709
  692SOL     OW 3914   8.197  14.486   7.879
  692SOL    HW1 3915   8.247  14.431   7.939
  692SOL    HW2 3916   8.257  14.557   7.855
  693SOL     OW 3917  12.315   9.416  13.816
  693SOL    HW1 3918  12.286   9.500  13.782
  693SOL    HW2 3919  12.236   9.361  13.816
  694SOL     OW 3920  14.354  10.616   9.267
  694SOL    HW1 3921  14.379  10.701   9.304
  694SOL    HW2 3922  14.310  10.638   9.185
  695SOL     OW 3923  11.660   4.756   3.719
  695SOL    HW1 3924  11.604   4.713   3.654
  695SOL    HW2 3925  11.685   4.839   3.678
  696SOL     OW 3926   8.225   7.222   6.608
  696SOL    HW1 3927   8.139   7.262   6.622
  696SOL    HW2 3928   8.282   7.266   6.671
  697SOL     OW 3929   3.407   2.502   7.889
  697SOL    HW1 3930   3.398   2.582   7.940
  697SOL    HW2 3931   3.348   2.515   7.814
  698SOL     OW 3932   8.753   4.743   6.078
  698SOL    HW1 3933   8.821   4.706   6.133
  698SOL    HW2 3934   8.768   4.838   6.081
  699SOL     OW 3935  10.817   8.188   7.591
  699SOL    HW1 3936  10.838   8.110   7.538
  699SOL    HW2 3937  10.758   8.239   7.536
  700SOL     OW 3938   0.637   9.961   5.183
  700SOL    HW1 3939   0.633   9.874   5.142
  700SOL    HW2 3940   0.626  10.022   5.111
  701SOL     OW 3941   4.299   1.321   8.693
  701SOL    HW1 3942   4.212   1.282   8.692
  701SOL    HW2 3943   4.286   1.409   8.657
  702SOL     OW 3944   0.321   9.533   4.870
  702SOL    HW1 3945   0.249   9.472   4.885
  702SOL    HW2 3946   0.351   9.513   4.781
  703SOL     OW 3947   9.096   2.123  10.100
  703SOL    HW1 3948   9.102   2.058  10.030
  703SOL    HW2 3949   9.003   2.126  10.122
  704SOL     OW 3950   3.783   4.070   8.955
  704SOL    HW1 3951   3.842   4.139   8.926
  704SOL    HW2 3952   3.828   3.988   8.933
  705SOL     OW 3953   3.387   3.780   3.248
  705SOL    HW1 3954   3.441   3.848   3.208
  705SOL    HW2 3955   3.300   3.793   3.209
  706SOL     OW 3956   7.261   0.822  13.439
  706SOL    HW1 3957   7.179   0.832  13.390
  706SOL    HW2 3958   7.327   0.806  13.372
  707SOL     OW 3959   2.276   2.890  13.580
  707SOL    HW1 3960   2.231   2.967  13.546
  707SOL    HW2 3961   2.229   2.867  13.659
  708SOL     OW 3962   2.174   2.032   9.990
  708SOL    HW1 3963   2.258   2.068  10.019
  708SOL    HW2 3964   2.161   1.954  10.044
  709SOL     OW 3965   2.597   7.588   6.038
  709SOL    HW1 3966   2.624   7.551   5.954
  709SOL    HW2 3967   2.501   7.577   6.038
  710SOL     OW 3968   7.691   4.509   2.375
  710SOL    HW1 3969   7.615   4.466   2.336
  710SOL    HW2 3970   7.682   4.493   2.469
  711SOL     OW 3971  13.802   6.588   4.900
  711SOL    HW1 3972  13.811   6.510   4.956
  711SOL    HW2 3973  13.857   6.569   4.824
  712SOL     OW 3974   1.727   7.124   3.878
  712SOL    HW1 3975   1.653   7.131   3.819
  712SOL    HW2 3976   1.704   7.053   3.938
  713SOL     OW 3977   7.172   1.500   8.977
  713SOL    HW1 3978   7.182   1.505   9.072
  713SOL    HW2 3979   7.208   1.583   8.945
  714SOL     OW 3980  12.555   9.174   9.552
  714SOL    HW1 3981  12.499   9.202   9.479
  714SOL    HW2 3982  12.635   9.226   9.542
  715SOL     OW 3983   6.155  11.568  12.249
  715SOL    HW1 3984   6.117  11.481  12.237
  715SOL    HW2 3985   6.180  11.571  12.341
  716SOL     OW 3986  13.943   7.597   6.806
  716SOL    HW1 3987  13.978   7.685   6.820
  716SOL    HW2 3988  13.936   7.560   6.893
  717SOL     OW 3989  11.006   1.786  12.030
  717SOL    HW1 3990  10.995   1.791  12.125
  717SOL    HW2 3991  11.044   1.871  12.007
  718SOL     OW 3992   0.192   4.404   6.140
  718SOL    HW1 3993   0.280   4.375   6.166
  718SOL    HW2 3994   0.133   4.363   6.203
  719SOL     OW 3995   8.295   8.357   9.956
  719SOL    HW1 3996   8.291   8.262   9.948
  719SOL    HW2 3997   8.233   8.378  10.026
  720SOL     OW 3998   1.498  12.251   3.496
  720SOL    HW1 3999   1.575  12.251   3.552
  720SOL    HW2 4000   1.519  12.314   3.427
  721SOL     OW 4001  11.428   6.269  10.019
  721SOL    HW1 4002  11.500   6.211   9.998
  721SOL    HW2 4003  11.368   6.216  10.072
  722SOL     OW 4004   0.787   8.659   7.644
  722SOL    HW1 4005   0.827   8.578   7.675
  722SOL    HW2 4006   0.695   8.651   7.668
  723SOL     OW 4007   8.087   5.162   0.228
  723SOL    HW1 4008   8.100   5.076   0.189
  723SOL    HW2 4009   7.996   5.184   0.208
  724SOL     OW 4010   6.613   7.490  14.416
  724SOL    HW1 4011   6.598   7.502  14.322
  724SOL    HW2 4012   6.582   7.402  14.435
  725SOL     OW 4013   4.508   4.557   6.233
  725SOL    HW1 4014   4.598   4.590   6.235
  725SOL    HW2 4015   4.455   4.634   6.211
  726SOL     OW 4016   2.260   0.245   9.979
  726SOL    HW1 4017   2.282   0.287   9.895
  726SOL    HW2 4018   2.183   0.192   9.960
  727SOL     OW 4019  10.805  12.673   2.834
  727SOL    HW1 4020  10.794  12.744   2.770
  727SOL    HW2 4021  10.716  12.644   2.853
  728SOL     OW 4022   4.067  14.603   8.647
  728SOL    HW1 4023   4.056  14.577   8.555
  728SOL    HW2 4024   4.162  14.609   8.658
  729SOL     OW 4025   6.358  10.574  11.603
  729SOL    HW1 4026   6.384  10.563  11.512
  729SOL    HW2 4027   6.389  10.495  11.647
  730SOL     OW 4028   4.436   4.184  10.992
  730SOL    HW1 4029   4.463   4.261  11.043
  730SOL    HW2 4030   4.397   4.125  11.056
  731SOL     OW 4031   1.320   0.306  10.739
  731SOL    HW1 4032   1.406   0.305  10.782
  731SOL    HW2 4033   1.306   0.398  10.717
  732SOL     OW 4034   7.040   5.669   1.280
  732SOL    HW1 4035   6.958   5.658   1.233
  732SOL    HW2 4036   7.034   5.607   1.353
  733SOL     OW 4037  12.560   7.655   0.704
  733SOL    HW1 4038  12.517   7.581   0.747
  733SOL    HW2 4039  12.650   7.652   0.736
  734SOL     OW 4040   5.553   0.151   7.073
  734SOL    HW1 4041   5.609   0.171   7.148
  734SOL    HW2 4042   5.604   0.088   7.022
  735SOL     OW 4043   9.773  14.861   1.320
  735SOL    HW1 4044   9.832  14.785   1.314
  735SOL    HW2 4045   9.719  14.855   1.242
  736SOL     OW 4046   2.672   5.618  10.517
  736SOL    HW1 4047   2.627   5.665  10.587
  736SOL    HW2 4048   2.717   5.545  10.562
  737SOL     OW 4049   0.804  11.120   0.686
  737SOL    HW1 4050   0.745  11.175   0.634
  737SOL    HW2 4051   0.833  11.051   0.626
  738SOL     OW 4052   5.111   1.761   6.173
  738SOL    HW1 4053   5.103   1.679   6.222
  738SOL    HW2 4054   5.033   1.811   6.197
  739SOL     OW 4055   6.083  13.963   7.499
  739SOL    HW1 4056   6.118  14.052   7.497
  739SOL    HW2 4057   6.057  13.949   7.590
  740SOL     OW 4058   2.559   5.880   0.706
  740SOL    HW1 4059   2.542   5.796   0.664
  740SOL    HW2 4060   2.645   5.907   0.674
  741SOL     OW 4061   7.272  11.172  11.510
  741SOL    HW1 4062   7.181  11.200  11.496
  741SOL    HW2 4063   7.317  11.195  11.429
  742SOL     OW 4064   8.196   3.717   4.703
  742SOL    HW1 4065   8.232   3.805   4.717
  742SOL    HW2 4066   8.106   3.722   4.734
  743SOL     OW 4067   2.292   3.415   1.120
  743SOL    HW1 4068   2.286   3.468   1.041
  743SOL    HW2 4069   2.365   3.454   1.169
  744SOL     OW 4070  12.058  12.142  10.420
  744SOL    HW1 4071  11.986  12.155  10.483
  744SOL    HW2 4072  12.122  12.090  10.468
  745SOL     OW 4073   8.497   8.696   2.340
  745SOL    HW1 4074   8.553   8.771   2.359
  745SOL    HW2 4075   8.434   8.729   2.276
  746SOL     OW 4076  11.632   1.198  10.304
  746SOL    HW1 4077  11.551   1.243  10.328
  746SOL    HW2 4078  11.604   1.112  10.274
  747SOL     OW 4079   5.846   1.197  12.253
  747SOL    HW1 4080   5.828   1.145  12.332
  747SOL    HW2 4081   5.935   1.230  12.266
  748SOL     OW 4082  12.176   7.047   3.120
  748SOL    HW1 4083  12.115   6.975   3.100
  748SOL    HW2 4084  12.149   7.078   3.206
  749SOL     OW 4085   6.807   6.359   3.356
  749SOL    HW1 4086   6.793   6.303   3.432
  749SOL    HW2 4087   6.832   6.444   3.393
  750SOL     OW 4088   3.574   8.237   5.077
  750SOL    HW1 4089   3.486   8.233   5.041
  750SOL    HW2 4090   3.610   8.320   5.046
  751SOL     OW 4091   0.108   0.548   9.800
  751SOL    HW1 4092   0.143   0.637   9.804
  751SOL    HW2 4093   0.107   0.518   9.892
  752SOL     OW 4094   8.234  13.678  11.420
  752SOL    HW1 4095   8.211  13.762  11.379
  752SOL    HW2 4096   8.320  13.657  11.384
  753SOL     OW 4097   8.360   3.291   0.703
  753SOL    HW1 4098   8.440   3.267   0.656
  753SOL    HW2 4099   8.382   3.372   0.749
  754SOL     OW 4100   0.171   0.654   1.274
  754SOL    HW1 4101   0.251   0.687   1.317
  754SOL    HW2 4102   0.186   0.671   1.181
  755SOL     OW 4103   2.547  10.311  10.882
  755SOL    HW1 4104   2.461  10.290  10.847
  755SOL    HW2 4105   2.558  10.252  10.957
  756SOL     OW 4106   8.100   0.270   1.684
  756SOL    HW1 4107   8.100   0.176   1.665
  756SOL    HW2 4108   8.062   0.276   1.772
  757SOL     OW 4109   2.348   2.613  13.549
  757SOL    HW1 4110   2.410   2.599  13.620
  757SOL    HW2 4111   2.347   2.708  13.536
  758SOL     OW 4112  11.176  13.811   0.176
  758SOL    HW1 4113  11.092  13.791   0.135
  758SOL    HW2 4114  11.236  13.823   0.102
  759SOL     OW 4115  12.259   1.819   7.521
  759SOL    HW1 4116  12.279   1.848   7.432
  759SOL    HW2 4117  12.332   1.852   7.574
  760SOL     OW 4118  13.667  13.017   6.354
  760SOL    HW1 4119  13.691  13.074   6.281
  760SOL    HW2 4120  13.736  13.032   6.419
  761SOL     OW 4121   5.982   8.401  13.439
  761SOL    HW1 4122   5.948   8.313  13.424
  761SOL    HW2 4123   5.961   8.449  13.359
  762SOL     OW 4124   4.966   8.964   5.136
  762SOL    HW1 4125   4.877   8.986   5.109
  762SOL    HW2 4126   4.997   9.043   5.180
  763SOL     OW 4127   3.218   7.400   8.992
  763SOL    HW1 4128   3.194   7.422   9.082
  763SOL    HW2 4129   3.149   7.438   8.938
  764SOL     OW 4130   5.657   9.777  14.560
  764SOL    HW1 4131   5.669   9.688  14.527
  764SOL    HW2 4132   5.606   9.821  14.492
  765SOL     OW 4133  11.316   7.365   4.160
  765SOL    HW1 4134  11.296   7.287   4.211
  765SOL    HW2 4135  11.393   7.402   4.203
  766SOL     OW 4136   3.205   8.699   8.290
  766SOL    HW1 4137   3.148   8.651   8.230
  766SOL    HW2 4138   3.148   8.721   8.364
  767SOL     OW 4139  14.524   8.109   0.916
  767SOL    HW1 4140  14.565   8.180   0.966
  767SOL    HW2 4141  14.431   8.130   0.916
  768SOL     OW 4142   2.641  11.729  10.902
  768SOL    HW1 4143   2.566  11.691  10.947
  768SOL    HW2 4144   2.704  11.747  10.971
  769SOL     OW 4145   6.286  13.798  14.317
  769SOL    HW1 4146   6.266  13.823  14.226
  769SOL    HW2 4147   6.244  13.866  14.370
  770SOL     OW 4148   4.488   7.925   7.047
  770SOL    HW1 4149   4.524   7.945   6.961
  770SOL    HW2 4150   4.437   8.002   7.071
  771SOL     OW 4151   2.563   1.320  11.968
  771SOL    HW1 4152   2.630   1.287  11.908
  771SOL    HW2 4153   2.601   1.307  12.055
  772SOL     OW 4154  12.944   6.012   6.123
  772SOL    HW1 4155  12.877   5.979   6.063
  772SOL    HW2 4156  12.961   6.101   6.093
  773SOL     OW 4157   4.341   3.757   2.105
  773SOL    HW1 4158   4.245   3.761   2.104
  773SOL    HW2 4159   4.366   3.797   2.188
  774SOL     OW 4160   2.899   6.371   1.594
  774SOL    HW1 4161   2.877   6.386   1.686
  774SOL    HW2 4162   2.931   6.281   1.592
  775SOL     OW 4163  11.003   7.271  14.702
  775SOL    HW1 4164  11.083   7.218  14.696
  775SOL    HW2 4165  10.940   7.225  14.647
  776SOL     OW 4166   1.401   9.977   9.899
  776SOL    HW1 4167   1.372  10.067   9.881
  776SOL    HW2 4168   1.447   9.950   9.820
  777SOL     OW 4169   2.746   8.713   0.321
  777SOL    HW1 4170   2.668   8.703   0.266
  777SOL    HW2 4171   2.811   8.655   0.282
  778SOL     OW 4172   4.695  14.846   4.956
  778SOL    HW1 4173   4.619   0.027   4.946
  778SOL    HW2 4174   4.686  14.782   4.886
  779SOL     OW 4175  11.010  12.441  13.782
  779SOL    HW1 4176  11.081  12.378  13.771
  779SOL    HW2 4177  10.940  12.409  13.725
  780SOL     OW 4178   5.858  13.445   9.075
  780SOL    HW1 4179   5.832  13.391   9.001
  780SOL    HW2 4180   5.907  13.385   9.132
  781SOL     OW 4181   3.257   2.198   8.652
  781SOL    HW1 4182   3.230   2.210   8.743
  781SOL    HW2 4183   3.177   2.210   8.601
  782SOL     OW 4184   2.754   8.490   3.178
  782SOL    HW1 4185   2.752   8.495   3.274
  782SOL    HW2 4186   2.688   8.425   3.155
  783SOL     OW 4187   9.264   3.969  14.153
  783SOL    HW1 4188   9.265   4.065  14.150
  783SOL    HW2 4189   9.274   3.947  14.245
  784SOL     OW 4190   3.952  13.961   1.240
  784SOL    HW1 4191   4.047  13.963   1.225
  784SOL    HW2 4192   3.940  13.997   1.327
  785SOL     OW 4193   4.954   1.927  11.527
  785SOL    HW1 4194   4.941   2.006  11.475
  785SOL    HW2 4195   4.875   1.875  11.512
  786SOL     OW 4196  14.356  13.459  11.889
  786SOL    HW1 4197  14.406  13.479  11.809
  786SOL    HW2 4198  14.265  13.456  11.860
  787SOL     OW 4199   8.363   5.070   1.312
  787SOL    HW1 4200   8.288   5.130   1.320
  787SOL    HW2 4201   8.347   5.002   1.377
  788SOL     OW 4202  14.042  14.792   5.988
  788SOL    HW1 4203  14.119  14.750   6.026
  788SOL    HW2 4204  14.027  14.869   6.042
  789SOL     OW 4205  10.987   5.592   8.425
  789SOL    HW1 4206  10.995   5.570   8.332
  789SOL    HW2 4207  10.920   5.660   8.428
  790SOL     OW 4208   9.349   8.136   1.803
  790SOL    HW1 4209   9.312   8.058   1.763
  790SOL    HW2 4210   9.274   8.191   1.824
  791SOL     OW 4211   1.478   0.730   4.531
  791SOL    HW1 4212   1.563   0.687   4.524
  791SOL    HW2 4213   1.415   0.658   4.528
  792SOL     OW 4214   3.304   2.678   0.775
  792SOL    HW1 4215   3.365   2.691   0.848
  792SOL    HW2 4216   3.347   2.719   0.700
  793SOL     OW 4217   4.089   7.216  10.765
  793SOL    HW1 4218   4.132   7.161  10.831
  793SOL    HW2 4219   4.111   7.306  10.790
  794SOL     OW 4220  12.067  11.838   1.464
  794SOL    HW1 4221  11.995  11.886   1.506
  794SOL    HW2 4222  12.126  11.907   1.431
  795SOL     OW 4223  11.095   4.717   8.918
  795SOL    HW1 4224  11.123   4.662   8.991
  795SOL    HW2 4225  11.168   4.779   8.905
  796SOL     OW 4226   4.543  10.873   5.573
  796SOL    HW1 4227   4.570  10.792   5.617
  796SOL    HW2 4228   4.489  10.918   5.639
  797SOL     OW 4229  11.486   0.420   7.220
  797SOL    HW1 4230  11.432   0.446   7.295
  797SOL    HW2 4231  11.551   0.361   7.258
  798SOL     OW 4232  14.580   1.364   8.109
  798SOL    HW1 4233  14.573   1.459   8.101
  798SOL    HW2 4234  14.490   1.334   8.119
  799SOL     OW 4235   8.572   8.667  11.281
  799SOL    HW1 4236   8.482   8.683  11.309
  799SOL    HW2 4237   8.592   8.738  11.219
  800SOL     OW 4238  13.412   1.646  14.269
  800SOL    HW1 4239  13.401   1.707  14.196
  800SOL    HW2 4240  13.434   1.702  14.343
  801SOL     OW 4241   7.173   8.725   0.272
  801SOL    HW1 4242   7.223   8.650   0.304
  801SOL    HW2 4243   7.238   8.778   0.225
  802SOL     OW 4244   7.406   6.455   2.263
  802SOL    HW1 4245   7.466   6.478   2.192
  802SOL    HW2 4246   7.337   6.521   2.258
  803SOL     OW 4247   0.761  13.752  11.154
  803SOL    HW1 4248   0.766  13.752  11.249
  803SOL    HW2 4249   0.689  13.813  11.134
  804SOL     OW 4250   1.111   0.083   6.381
  804SOL    HW1 4251   1.035   0.120   6.426
  804SOL    HW2 4252   1.184   0.136   6.410
  805SOL     OW 4253   4.652   7.514   7.209
  805SOL    HW1 4254   4.646   7.456   7.134
  805SOL    HW2 4255   4.740   7.553   7.202
  806SOL     OW 4256   6.617  13.459   8.299
  806SOL    HW1 4257   6.576  13.447   8.214
  806SOL    HW2 4258   6.574  13.395   8.356
  807SOL     OW 4259  14.280  14.801   2.166
  807SOL    HW1 4260  14.318  14.722   2.203
  807SOL    HW2 4261  14.300  14.870   2.230
  808SOL     OW 4262   4.356   0.680   0.260
  808SOL    HW1 4263   4.295   0.624   0.212
  808SOL    HW2 4264   4.302   0.725   0.325
  809SOL     OW 4265  12.613  14.836  11.676
  809SOL    HW1 4266  12.562  14.765  11.716
  809SOL    HW2 4267  12.635  14.802  11.589
  810SOL     OW 4268  13.592   2.898   2.038
  810SOL    HW1 4269  13.584   2.822   1.980
  810SOL    HW2 4270  13.549   2.870   2.119
  811SOL     OW 4271   4.496   0.780   6.545
  811SOL    HW1 4272   4.527   0.793   6.455
  811SOL    HW2 4273   4.577   0.779   6.597
  812SOL     OW 4274   4.357   3.634  14.628
  812SOL    HW1 4275   4.325   3.587  14.552
  812SOL    HW2 4276   4.291   3.701  14.645
  813SOL     OW 4277   2.783   7.375   2.674
  813SOL    HW1 4278   2.695   7.403   2.649
  813SOL    HW2 4279   2.841   7.423   2.616
  814SOL     OW 4280   1.861  13.988   0.628
  814SOL    HW1 4281   1.887  13.955   0.542
  814SOL    HW2 4282   1.939  13.977   0.683
  815SOL     OW 4283   2.684  13.894   0.207
  815SOL    HW1 4284   2.719  13.826   0.264
  815SOL    HW2 4285   2.615  13.850   0.157
  816SOL     OW 4286   8.380   2.522   7.786
  816SOL    HW1 4287   8.360   2.571   7.706
  816SOL    HW2 4288   8.455   2.467   7.762
  817SOL     OW 4289   4.325   3.477   0.835
  817SOL    HW1 4290   4.292   3.523   0.758
  817SOL    HW2 4291   4.373   3.545   0.884
  818SOL     OW 4292   0.684  12.988   5.778
  818SOL    HW1 4293   0.738  12.973   5.856
  818SOL    HW2 4294   0.655  12.901   5.752
  819SOL     OW 4295   2.981   6.311   4.330
  819SOL    HW1 4296   3.047   6.314   4.400
  819SOL    HW2 4297   2.925   6.386   4.348
  820SOL     OW 4298   3.840   1.651   4.579
  820SOL    HW1 4299   3.934   1.655   4.565
  820SOL    HW2 4300   3.814   1.566   4.543
  821SOL     OW 4301   4.075  12.395   5.545
  821SOL    HW1 4302   4.105  12.437   5.465
  821SOL    HW2 4303   4.121  12.441   5.615
  822SOL     OW 4304   8.697   3.857   2.233
  822SOL    HW1 4305   8.649   3.776   2.215
  822SOL    HW2 4306   8.786   3.839   2.201
  823SOL     OW 4307   8.556   4.772   3.009
  823SOL    HW1 4308   8.569   4.747   2.917
  823SOL    HW2 4309   8.640   4.808   3.037
  824SOL     OW 4310  14.027  11.675   3.977
  824SOL    HW1 4311  13.939  11.670   3.939
  824SOL    HW2 4312  14.013  11.683   4.071
  825SOL     OW 4313   9.519   4.200   8.948
  825SOL    HW1 4314   9.494   4.285   8.985
  825SOL    HW2 4315   9.437   4.156   8.930
  826SOL     OW 4316   1.929   4.196   3.047
  826SOL    HW1 4317   2.007   4.206   2.993
  826SOL    HW2 4318   1.933   4.269   3.109
  827SOL     OW 4319   2.125  14.057   8.014
  827SOL    HW1 4320   2.087  14.109   7.944
  827SOL    HW2 4321   2.050  14.021   8.061
  828SOL     OW 4322   6.294  11.066   8.318
  828SOL    HW1 4323   6.259  10.977   8.310
  828SOL    HW2 4324   6.341  11.066   8.401
  829SOL     OW 4325   0.713   5.194  10.602
  829SOL    HW1 4326   0.780   5.221  10.539
  829SOL    HW2 4327   0.631   5.199  10.554
  830SOL     OW 4328   0.564  10.337   0.032
  830SOL    HW1 4329   0.626  10.268   0.057
  830SOL    HW2 4330   0.482  10.291   0.016
  831SOL     OW 4331   7.196   2.268  12.740
  831SOL    HW1 4332   7.169   2.185  12.778
  831SOL    HW2 4333   7.126   2.290  12.678
  832SOL     OW 4334   8.164   1.166   1.815
  832SOL    HW1 4335   8.221   1.141   1.742
  832SOL    HW2 4336   8.183   1.259   1.829
  833SOL     OW 4337   0.938   5.102   4.880
  833SOL    HW1 4338   0.991   5.060   4.812
  833SOL    HW2 4339   0.853   5.057   4.876
  834SOL     OW 4340   5.641  14.558  12.882
  834SOL    HW1 4341   5.668  14.629  12.823
  834SOL    HW2 4342   5.721  14.507  12.896
  835SOL     OW 4343   4.292   0.573   4.151
  835SOL    HW1 4344   4.306   0.661   4.188
  835SOL    HW2 4345   4.370   0.557   4.097
  836SOL     OW 4346   9.860   0.261  10.363
  836SOL    HW1 4347   9.875   0.267  10.458
  836SOL    HW2 4348   9.928   0.201  10.332
  837SOL     OW 4349   9.564   1.593   1.210
  837SOL    HW1 4350   9.484   1.619   1.165
  837SOL    HW2 4351   9.632   1.651   1.175
  838SOL     OW 4352   6.535   9.067   3.610
  838SOL    HW1 4353   6.534   9.038   3.519
  838SOL    HW2 4354   6.582   8.999   3.657
  839SOL     OW 4355  14.682   0.991   4.334
  839SOL    HW1 4356  14.684   0.895   4.333
  839SOL    HW2 4357  14.766   1.016   4.371
  840SOL     OW 4358  13.077   8.260   2.988
  840SOL    HW1 4359  13.152   8.318   2.989
  840SOL    HW2 4360  13.104   8.185   3.042
  841SOL     OW 4361   9.174   5.268  11.863
  841SOL    HW1 4362   9.079   5.256  11.875
  841SOL    HW2 4363   9.194   5.347  11.913
  842SOL     OW 4364  13.562   5.022  13.181
  842SOL    HW1 4365  13.513   4.959  13.234
  842SOL    HW2 4366  13.653   5.008  13.205
  843SOL     OW 4367   0.076   4.215   1.603
  843SOL    HW1 4368   0.143   4.227   1.670
  843SOL    HW2 4369   0.080   4.122   1.581
  844SOL     OW 4370  12.159   7.712   1.037
  844SOL    HW1 4371  12.202   7.627   1.051
  844SOL    HW2 4372  12.183   7.736   0.947
  845SOL     OW 4373   2.871   4.428  13.899
  845SOL    HW1 4374   2.948   4.483  13.913
  845SOL    HW2 4375   2.905   4.338  13.905
  846SOL     OW 4376  12.207   6.435   7.549
  846SOL    HW1 4377  12.276   6.457   7.487
  846SOL    HW2 4378  12.177   6.520   7.582
  847SOL     OW 4379   4.549   4.140  14.571
  847SOL    HW1 4380   4.460   4.162  14.597
  847SOL    HW2 4381   4.539   4.070  14.507
  848SOL     OW 4382  10.863  14.094  14.407
  848SOL    HW1 4383  10.822  14.029  14.350
  848SOL    HW2 4384  10.957  14.084  14.392
  849SOL     OW 4385   9.637  14.362  14.840
  849SOL    HW1 4386   9.563  14.341   0.019
  849SOL    HW2 4387   9.604  14.352  14.751
  850SOL     OW 4388   8.734  14.856  10.257
  850SOL    HW1 4389   8.641  14.869  10.240
  850SOL    HW2 4390   8.745   0.002  10.350
  851SOL     OW 4391   7.135   0.025  12.764
  851SOL    HW1 4392   7.156  14.850  12.842
  851SOL    HW2 4393   7.210   0.084  12.754
  852SOL     OW 4394  12.397   4.767   0.147
  852SOL    HW1 4395  12.337   4.795   0.217
  852SOL    HW2 4396  12.357   4.800   0.067
  853SOL     OW 4397   0.956  14.058   0.258
  853SOL    HW1 4398   0.964  14.153   0.262
  853SOL    HW2 4399   0.914  14.034   0.340
  854SOL     OW 4400  14.825   1.967   5.184
  854SOL    HW1 4401   0.030   2.007   5.151
  854SOL    HW2 4402  14.854   1.889   5.231
  855SOL     OW 4403   2.985   6.077   0.536
  855SOL    HW1 4404   3.035   6.008   0.580
  855SOL    HW2 4405   3.043   6.109   0.467
  856SOL     OW 4406   4.757   4.892  11.203
  856SOL    HW1 4407   4.742   4.933  11.288
  856SOL    HW2 4408   4.795   4.962  11.149
  857SOL     OW 4409   5.632  12.287  11.444
  857SOL    HW1 4410   5.687  12.331  11.379
  857SOL    HW2 4411   5.669  12.314  11.528
  858SOL     OW 4412   8.466  12.671   2.639
  858SOL    HW1 4413   8.507  12.614   2.574
  858SOL    HW2 4414   8.540  12.715   2.681
  859SOL     OW 4415  14.543  12.449  14.377
  859SOL    HW1 4416  14.518  12.371  14.326
  859SOL    HW2 4417  14.544  12.520  14.312
  860SOL     OW 4418  10.156   1.439  13.072
  860SOL    HW1 4419  10.158   1.534  13.083
  860SOL    HW2 4420  10.177   1.404  13.159
  861SOL     OW 4421   6.169   3.224   7.209
  861SOL    HW1 4422   6.193   3.309   7.247
  861SOL    HW2 4423   6.253   3.185   7.183
  862SOL     OW 4424   8.120   9.828  14.603
  862SOL    HW1 4425   8.086   9.775  14.530
  862SOL    HW2 4426   8.092   9.917  14.581
  863SOL     OW 4427   4.466   1.417  13.790
  863SOL    HW1 4428   4.507   1.345  13.838
  863SOL    HW2 4429   4.392   1.443  13.845
  864SOL     OW 4430   5.439   2.596  13.538
  864SOL    HW1 4431   5.394   2.615  13.621
  864SOL    HW2 4432   5.444   2.500  13.536
  865SOL     OW 4433   6.698   2.243   9.031
  865SOL    HW1 4434   6.618   2.190   9.032
  865SOL    HW2 4435   6.689   2.299   8.954
  866SOL     OW 4436   4.038  14.548   9.186
  866SOL    HW1 4437   4.018  14.600   9.264
  866SOL    HW2 4438   3.966  14.568   9.126
  867SOL     OW 4439   2.114   6.520   6.427
  867SOL    HW1 4440   2.208   6.530   6.410
  867SOL    HW2 4441   2.103   6.428   6.447
  868SOL     OW 4442   5.468  14.227   7.512
  868SOL    HW1 4443   5.489  14.161   7.579
  868SOL    HW2 4444   5.390  14.271   7.546
  869SOL     OW 4445   2.452   2.266   2.729
  869SOL    HW1 4446   2.525   2.216   2.693
  869SOL    HW2 4447   2.436   2.335   2.665
  870SOL     OW 4448   8.855  11.802   7.682
  870SOL    HW1 4449   8.834  11.721   7.635
  870SOL    HW2 4450   8.793  11.866   7.647
  871SOL     OW 4451   4.005   9.921   5.230
  871SOL    HW1 4452   3.973   9.845   5.279
  871SOL    HW2 4453   4.021   9.888   5.141
  872SOL     OW 4454   0.234   7.587   7.008
  872SOL    HW1 4455   0.186   7.621   7.083
  872SOL    HW2 4456   0.253   7.664   6.955
  873SOL     OW 4457   0.089   2.190   2.504
  873SOL    HW1 4458   0.087   2.122   2.436
  873SOL    HW2 4459   0.160   2.163   2.563
  874SOL     OW 4460   2.550  12.335  11.455
  874SOL    HW1 4461   2.580  12.426  11.458
  874SOL    HW2 4462   2.553  12.306  11.546
  875SOL     OW 4463   3.326  11.990  14.790
  875SOL    HW1 4464   3.322  12.003  14.696
  875SOL    HW2 4465   3.420  11.980  14.809
  876SOL     OW 4466   6.428  13.947  10.106
  876SOL    HW1 4467   6.333  13.953  10.098
  876SOL    HW2 4468   6.462  13.981  10.024
  877SOL     OW 4469   5.582   4.127   4.731
  877SOL    HW1 4470   5.576   4.051   4.789
  877SOL    HW2 4471   5.646   4.101   4.665
  878SOL     OW 4472   4.427   8.328   0.163
  878SOL    HW1 4473   4.455   8.342   0.254
  878SOL    HW2 4474   4.429   8.415   0.124
  879SOL     OW 4475  12.020  11.195   6.383
  879SOL    HW1 4476  12.050  11.130   6.447
  879SOL    HW2 4477  11.925  11.188   6.385
  880SOL     OW 4478  12.796  12.661   9.040
  880SOL    HW1 4479  12.878  12.709   9.044
  880SOL    HW2 4480  12.756  12.689   8.957
  881SOL     OW 4481   9.926   4.745   9.959
  881SOL    HW1 4482   9.966   4.829   9.982
  881SOL    HW2 4483   9.871   4.765   9.883
  882SOL     OW 4484   8.029   8.656   6.686
  882SOL    HW1 4485   7.966   8.603   6.735
  882SOL    HW2 4486   8.110   8.605   6.688
  883SOL     OW 4487   1.554  11.771   5.862
  883SOL    HW1 4488   1.629  11.712   5.870
  883SOL    HW2 4489   1.499  11.749   5.937
  884SOL     OW 4490   6.906   4.870   6.506
  884SOL    HW1 4491   6.989   4.911   6.531
  884SOL    HW2 4492   6.901   4.792   6.561
  885SOL     OW 4493  10.989   8.772  10.689
  885SOL    HW1 4494  10.940   8.854  10.675
  885SOL    HW2 4495  11.076   8.801  10.716
  886SOL     OW 4496  10.039   8.387  12.975
  886SOL    HW1 4497  10.017   8.452  13.041
  886SOL    HW2 4498  10.135   8.383  12.977
  887SOL     OW 4499  13.446  12.807   5.967
  887SOL    HW1 4500  13.499  12.849   5.900
  887SOL    HW2 4501  13.507  12.788   6.038
  888SOL     OW 4502   2.446   8.360   1.397
  888SOL    HW1 4503   2.488   8.278   1.424
  888SOL    HW2 4504   2.457   8.418   1.473
  889SOL     OW 4505   6.694   4.308   0.480
  889SOL    HW1 4506   6.624   4.365   0.448
  889SOL    HW2 4507   6.716   4.253   0.404
  890SOL     OW 4508   5.913   0.742  14.612
  890SOL    HW1 4509   5.823   0.745  14.644
  890SOL    HW2 4510   5.919   0.814  14.549
  891SOL     OW 4511   4.097  11.504  10.060
  891SOL    HW1 4512   4.008  11.494  10.095
  891SOL    HW2 4513   4.106  11.431   9.998
  892SOL     OW 4514   6.350   1.281   0.910
  892SOL    HW1 4515   6.357   1.185   0.912
  892SOL    HW2 4516   6.380   1.305   0.822
  893SOL     OW 4517   3.804   0.169   8.334
  893SOL    HW1 4518   3.780   0.177   8.426
  893SOL    HW2 4519   3.826   0.076   8.323
  894SOL     OW 4520   6.095   8.791   2.739
  894SOL    HW1 4521   6.001   8.774   2.736
  894SOL    HW2 4522   6.123   8.785   2.648
  895SOL     OW 4523  12.841   3.113   1.245
  895SOL    HW1 4524  12.874   3.111   1.335
  895SOL    HW2 4525  12.769   3.176   1.247
  896SOL     OW 4526  11.337  10.210   1.105
  896SOL    HW1 4527  11.301  10.255   1.029
  896SOL    HW2 4528  11.265  10.157   1.138
  897SOL     OW 4529   0.399   3.316  10.291
  897SOL    HW1 4530   0.375   3.355  10.375
  897SOL    HW2 4531   0.370   3.225  10.297
  898SOL     OW 4532   7.400  10.048   4.429
  898SOL    HW1 4533   7.453  10.069   4.352
  898SOL    HW2 4534   7.452  10.077   4.503
  899SOL     OW 4535   0.253  12.879   4.825
  899SOL    HW1 4536   0.172  12.885   4.876
  899SOL    HW2 4537   0.224  12.879   4.734
  900SOL     OW 4538   2.004   0.140  10.030
  900SOL    HW1 4539   1.934   0.180  10.081
  900SOL    HW2 4540   2.029   0.062  10.080
  901SOL     OW 4541   8.549   7.706  12.047
  901SOL    HW1 4542   8.590   7.785  12.081
  901SOL    HW2 4543   8.460   7.708  12.082
  902SOL     OW 4544   5.330  10.593   4.822
  902SOL    HW1 4545   5.338  10.498   4.834
  902SOL    HW2 4546   5.253  10.604   4.767
  903SOL     OW 4547  11.800   6.192  13.030
  903SOL    HW1 4548  11.881   6.168  13.074
  903SOL    HW2 4549  11.732   6.181  13.096
  904SOL     OW 4550   8.547  14.336   4.743
  904SOL    HW1 4551   8.577  14.387   4.818
  904SOL    HW2 4552   8.455  14.362   4.732
  905SOL     OW 4553   7.841   6.252  10.171
  905SOL    HW1 4554   7.781   6.295  10.110
  905SOL    HW2 4555   7.862   6.169  10.128
  906SOL     OW 4556   3.772   7.184  12.302
  906SOL    HW1 4557   3.738   7.232  12.378
  906SOL    HW2 4558   3.817   7.108  12.340
  907SOL     OW 4559   0.146   3.036   4.266
  907SOL    HW1 4560   0.158   2.943   4.285
  907SOL    HW2 4561   0.058   3.043   4.230
  908SOL     OW 4562  12.954   2.611  13.737
  908SOL    HW1 4563  12.994   2.525  13.721
  908SOL    HW2 4564  12.976   2.630  13.829
  909SOL     OW 4565   2.198  11.823  10.091
  909SOL    HW1 4566   2.209  11.911  10.056
  909SOL    HW2 4567   2.287  11.790  10.102
  910SOL     OW 4568   2.376   1.302   8.949
  910SOL    HW1 4569   2.434   1.228   8.963
  910SOL    HW2 4570   2.293   1.275   8.988
  911SOL     OW 4571  11.041  12.948   5.661
  911SOL    HW1 4572  11.012  13.010   5.595
  911SOL    HW2 4573  11.124  12.983   5.693
  912SOL     OW 4574  12.556  12.806   2.281
  912SOL    HW1 4575  12.528  12.734   2.338
  912SOL    HW2 4576  12.651  12.800   2.280
  913SOL     OW 4577  10.532   0.563  12.297
  913SOL    HW1 4578  10.515   0.643  12.248
  913SOL    HW2 4579  10.592   0.590  12.367
  914SOL     OW 4580  12.578  10.846   9.705
  914SOL    HW1 4581  12.662  10.804   9.725
  914SOL    HW2 4582  12.569  10.838   9.610
  915SOL     OW 4583   7.984   6.340   6.602
  915SOL    HW1 4584   7.922   6.385   6.545
  915SOL    HW2 4585   7.963   6.371   6.690
  916SOL     OW 4586   8.016   6.255   4.983
  916SOL    HW1 4587   8.093   6.200   4.999
  916SOL    HW2 4588   8.030   6.291   4.895
  917SOL     OW 4589   2.051   5.768   7.361
  917SOL    HW1 4590   2.060   5.862   7.345
  917SOL    HW2 4591   2.134   5.743   7.402
  918SOL     OW 4592  11.449   1.088   2.088
  918SOL    HW1 4593  11.409   1.158   2.035
  918SOL    HW2 4594  11.543   1.094   2.069
  919SOL     OW 4595  13.314   9.363   2.995
  919SOL    HW1 4596  13.276   9.354   3.083
  919SOL    HW2 4597  13.238   9.369   2.937
  920SOL     OW 4598   6.573  14.219   6.183
  920SOL    HW1 4599   6.586  14.227   6.277
  920SOL    HW2 4600   6.604  14.131   6.161
  921SOL     OW 4601  12.850   5.110  13.762
  921SOL    HW1 4602  12.858   5.179  13.696
  921SOL    HW2 4603  12.891   5.146  13.840
  922SOL     OW 4604   6.720   7.806   2.129
  922SOL    HW1 4605   6.670   7.797   2.210
  922SOL    HW2 4606   6.732   7.901   2.118
  923SOL     OW 4607  14.199  13.996   9.008
  923SOL    HW1 4608  14.161  14.083   8.998
  923SOL    HW2 4609  14.216  13.988   9.102
  924SOL     OW 4610   4.063   0.199  11.482
  924SOL    HW1 4611   4.062   0.211  11.387
  924SOL    HW2 4612   3.984   0.244  11.513
  925SOL     OW 4613  14.823  13.199   3.883
  925SOL    HW1 4614  14.738  13.240   3.899
  925SOL    HW2 4615  14.848  13.162   3.967
  926SOL     OW 4616   0.494  10.413   2.503
  926SOL    HW1 4617   0.467  10.504   2.498
  926SOL    HW2 4618   0.544  10.407   2.584
  927SOL     OW 4619   1.936   2.519  11.865
  927SOL    HW1 4620   1.949   2.545  11.774
  927SOL    HW2 4621   1.842   2.528  11.879
  928SOL     OW 4622   8.920   9.613   7.035
  928SOL    HW1 4623   9.005   9.572   7.053
  928SOL    HW2 4624   8.862   9.539   7.014
  929SOL     OW 4625   0.347  12.247  13.181
  929SOL    HW1 4626   0.362  12.191  13.105
  929SOL    HW2 4627   0.430  12.246  13.229
  930SOL     OW 4628   6.660   8.986   4.461
  930SOL    HW1 4629   6.610   8.939   4.394
  930SOL    HW2 4630   6.749   8.987   4.428
  931SOL     OW 4631   2.240   4.360   6.339
  931SOL    HW1 4632   2.276   4.274   6.317
  931SOL    HW2 4633   2.255   4.413   6.260
  932SOL     OW 4634   9.612   9.407  11.327
  932SOL    HW1 4635   9.691   9.434  11.280
  932SOL    HW2 4636   9.547   9.473  11.301
  933SOL     OW 4637   1.553   7.807   7.242
  933SOL    HW1 4638   1.541   7.902   7.242
  933SOL    HW2 4639   1.483   7.774   7.186
  934SOL     OW 4640  11.096  11.719   5.993
  934SOL    HW1 4641  11.050  11.643   5.957
  934SOL    HW2 4642  11.180  11.720   5.947
  935SOL     OW 4643  14.302   3.479   2.253
  935SOL    HW1 4644  14.386   3.525   2.260
  935SOL    HW2 4645  14.255   3.503   2.333
  936SOL     OW 4646  12.891   2.763   2.965
  936SOL    HW1 4647  12.987   2.766   2.968
  936SOL    HW2 4648  12.871   2.733   2.876
  937SOL     OW 4649   3.401  10.831   2.161
  937SOL    HW1 4650   3.443  10.756   2.119
  937SOL    HW2 4651   3.473  10.890   2.182
  938SOL     OW 4652   4.927   6.539  10.798
  938SOL    HW1 4653   4.848   6.540  10.853
  938SOL    HW2 4654   4.928   6.452  10.758
  939SOL     OW 4655   3.093   4.273  13.969
  939SOL    HW1 4656   3.143   4.194  13.947
  939SOL    HW2 4657   3.159   4.340  13.985
  940SOL     OW 4658  10.949  10.701   0.601
  940SOL    HW1 4659  10.972  10.794   0.596
  940SOL    HW2 4660  10.862  10.696   0.561
  941SOL     OW 4661   4.377   4.426  10.611
  941SOL    HW1 4662   4.444   4.487  10.583
  941SOL    HW2 4663   4.301   4.445  10.556
  942SOL     OW 4664   1.911  10.486   7.295
  942SOL    HW1 4665   1.978  10.535   7.343
  942SOL    HW2 4666   1.870  10.431   7.362
  943SOL     OW 4667  12.596  12.181   0.041
  943SOL    HW1 4668  12.528  12.244   0.018
  943SOL    HW2 4669  12.556  12.125   0.107
  944SOL     OW 4670  14.524   7.359   7.350
  944SOL    HW1 4671  14.561   7.356   7.439
  944SOL    HW2 4672  14.493   7.449   7.341
  945SOL     OW 4673  11.896   9.042   0.375
  945SOL    HW1 4674  11.984   9.017   0.405
  945SOL    HW2 4675  11.867   9.108   0.438
  946SOL     OW 4676  14.241   6.353  10.829
  946SOL    HW1 4677  14.231   6.335  10.736
  946SOL    HW2 4678  14.327   6.318  10.852
  947SOL     OW 4679   8.240   9.770   7.500
  947SOL    HW1 4680   8.270   9.681   7.521
  947SOL    HW2 4681   8.159   9.780   7.551
  948SOL     OW 4682  10.868   8.202   5.348
  948SOL    HW1 4683  10.884   8.109   5.332
  948SOL    HW2 4684  10.801   8.205   5.416
  949SOL     OW 4685  12.963   3.187   7.982
  949SOL    HW1 4686  12.981   3.139   8.063
  949SOL    HW2 4687  12.881   3.233   7.999
  950SOL     OW 4688   9.286   7.809  14.650
  950SOL    HW1 4689   9.376   7.790  14.621
  950SOL    HW2 4690   9.264   7.736  14.709
  951SOL     OW 4691  12.122  10.640   9.492
  951SOL    HW1 4692  12.201  10.621   9.443
  951SOL    HW2 4693  12.063  10.681   9.429
  952SOL     OW 4694  12.373  12.559   0.674
  952SOL    HW1 4695  12.365  12.570   0.579
  952SOL    HW2 4696  12.464  12.529   0.686
  953SOL     OW 4697   3.708  13.142  11.949
  953SOL    HW1 4698   3.663  13.060  11.930
  953SOL    HW2 4699   3.801  13.120  11.945
  954SOL     OW 4700   4.684   2.689  10.207
  954SOL    HW1 4701   4.778   2.678  10.221
  954SOL    HW2 4702   4.677   2.745  10.130
  955SOL     OW 4703   7.057  10.535  12.314
  955SOL    HW1 4704   6.962  10.529  12.303
  955SOL    HW2 4705   7.074  10.627  12.333
  956SOL     OW 4706   3.466  13.316  13.923
  956SOL    HW1 4707   3.402  13.313  13.852
  956SOL    HW2 4708   3.483  13.225  13.944
  957SOL     OW 4709  12.305   9.562  12.455
  957SOL    HW1 4710  12.348   9.640  12.418
  957SOL    HW2 4711  12.344   9.489  12.407
  958SOL     OW 4712   7.933  13.137  10.460
  958SOL    HW1 4713   8.004  13.092  10.415
  958SOL    HW2 4714   7.973  13.214  10.499
  959SOL     OW 4715   5.506   2.264   3.549
  959SOL    HW1 4716   5.445   2.227   3.485
  959SOL    HW2 4717   5.478   2.226   3.632
  960SOL     OW 4718   0.637   8.102   2.286
  960SOL    HW1 4719   0.644   8.116   2.191
  960SOL    HW2 4720   0.716   8.142   2.321
  961SOL     OW 4721   9.687  14.088   1.307
  961SOL    HW1 4722   9.618  14.150   1.332
  961SOL    HW2 4723   9.727  14.126   1.229
  962SOL     OW 4724   5.478   1.830   0.447
  962SOL    HW1 4725   5.441   1.743   0.433
  962SOL    HW2 4726   5.422   1.889   0.396
  963SOL     OW 4727   8.431   7.150   5.541
  963SOL    HW1 4728   8.507   7.208   5.538
  963SOL    HW2 4729   8.406   7.148   5.633
  964SOL     OW 4730  11.924   6.096   2.959
  964SOL    HW1 4731  11.914   6.007   2.924
  964SOL    HW2 4732  11.836   6.135   2.951
  965SOL     OW 4733   8.904   2.590   6.032
  965SOL    HW1 4734   8.864   2.614   6.115
  965SOL    HW2 4735   8.872   2.656   5.970
  966SOL     OW 4736  13.129   1.209  10.977
  966SOL    HW1 4737  13.205   1.262  10.953
  966SOL    HW2 4738  13.062   1.274  11.001
  967SOL     OW 4739   7.616   2.960   5.901
  967SOL    HW1 4740   7.576   2.878   5.871
  967SOL    HW2 4741   7.682   2.980   5.835
  968SOL     OW 4742   2.511   2.085   3.912
  968SOL    HW1 4743   2.499   2.048   3.825
  968SOL    HW2 4744   2.536   2.176   3.897
  969SOL     OW 4745   0.928   7.944   9.215
  969SOL    HW1 4746   0.931   8.002   9.291
  969SOL    HW2 4747   0.857   7.979   9.161
  970SOL     OW 4748   8.694   3.080   9.088
  970SOL    HW1 4749   8.656   3.150   9.141
  970SOL    HW2 4750   8.711   3.009   9.150
  971SOL     OW 4751   0.772  13.001   6.946
  971SOL    HW1 4752   0.812  12.992   7.032
  971SOL    HW2 4753   0.820  12.941   6.889
  972SOL     OW 4754   3.472   3.913   2.941
  972SOL    HW1 4755   3.538   3.980   2.958
  972SOL    HW2 4756   3.458   3.918   2.846
  973SOL     OW 4757  10.874   5.875  14.294
  973SOL    HW1 4758  10.934   5.815  14.338
  973SOL    HW2 4759  10.800   5.820  14.269
  974SOL     OW 4760   9.619  14.771   0.551
  974SOL    HW1 4761   9.571  14.821   0.616
  974SOL    HW2 4762   9.709  14.767   0.585
  975SOL     OW 4763  10.417   7.902   5.774
  975SOL    HW1 4764  10.354   7.834   5.797
  975SOL    HW2 4765  10.428   7.952   5.855
  976SOL     OW 4766   8.348   2.509   9.567
  976SOL    HW1 4767   8.402   2.585   9.591
  976SOL    HW2 4768   8.411   2.445   9.533
  977SOL     OW 4769   6.603   3.665  13.294
  977SOL    HW1 4770   6.545   3.600  13.333
  977SOL    HW2 4771   6.677   3.614  13.261
  978SOL     OW 4772  11.113   1.517  14.299
  978SOL    HW1 4773  11.193   1.522  14.246
  978SOL    HW2 4774  11.145   1.507  14.389
  979SOL     OW 4775   6.393  10.430   5.785
  979SOL    HW1 4776   6.384  10.344   5.825
  979SOL    HW2 4777   6.480  10.428   5.743
  980SOL     OW 4778   3.149   8.281  13.895
  980SOL    HW1 4779   3.128   8.334  13.972
  980SOL    HW2 4780   3.069   8.283  13.843
  981SOL     OW 4781   9.366  13.057   4.508
  981SOL    HW1 4782   9.377  13.113   4.585
  981SOL    HW2 4783   9.382  13.116   4.433
  982SOL     OW 4784  14.127   1.627   7.613
  982SOL    HW1 4785  14.083   1.648   7.695
  982SOL    HW2 4786  14.071   1.560   7.573
  983SOL     OW 4787   7.917  10.869  11.906
  983SOL    HW1 4788   8.008  10.845  11.888
  983SOL    HW2 4789   7.874  10.862  11.821
  984SOL     OW 4790   3.860   4.077  13.335
  984SOL    HW1 4791   3.900   4.162  13.354
  984SOL    HW2 4792   3.807   4.093  13.257
  985SOL     OW 4793   3.242   8.293   7.685
  985SOL    HW1 4794   3.255   8.198   7.685
  985SOL    HW2 4795   3.325   8.328   7.719
  986SOL     OW 4796   4.925   3.290  13.715
  986SOL    HW1 4797   4.880   3.374  13.706
  986SOL    HW2 4798   4.967   3.294  13.802
  987SOL     OW 4799   0.775   7.739   4.304
  987SOL    HW1 4800   0.692   7.718   4.263
  987SOL    HW2 4801   0.820   7.654   4.312
  988SOL     OW 4802  11.665   7.717   7.234
  988SOL    HW1 4803  11.606   7.675   7.172
  988SOL    HW2 4804  11.615   7.790   7.271
  989SOL     OW 4805  10.118   5.706   2.491
  989SOL    HW1 4806  10.193   5.764   2.505
  989SOL    HW2 4807  10.062   5.721   2.567
  990SOL     OW 4808  14.500   0.972  12.337
  990SOL    HW1 4809  14.595   0.974  12.324
  990SOL    HW2 4810  14.481   0.883  12.367
  991SOL     OW 4811   6.904   6.317   1.569
  991SOL    HW1 4812   6.881   6.277   1.653
  991SOL    HW2 4813   6.887   6.247   1.505
  992SOL     OW 4814  12.552   9.082  14.235
  992SOL    HW1 4815  12.488   9.117  14.173
  992SOL    HW2 4816  12.631   9.069  14.183
  993SOL     OW 4817  11.973   0.956   4.671
  993SOL    HW1 4818  11.937   0.940   4.584
  993SOL    HW2 4819  11.971   0.871   4.715
  994SOL     OW 4820  11.398  11.682   1.953
  994SOL    HW1 4821  11.354  11.665   2.037
  994SOL    HW2 4822  11.474  11.624   1.954
  995SOL     OW 4823   8.667   4.288   4.844
  995SOL    HW1 4824   8.601   4.351   4.814
  995SOL    HW2 4825   8.621   4.205   4.848
  996SOL     OW 4826  10.162   1.720  12.893
  996SOL    HW1 4827  10.079   1.741  12.852
  996SOL    HW2 4828  10.185   1.634  12.859
  997SOL     OW 4829   4.497   7.811   7.523
  997SOL    HW1 4830   4.491   7.721   7.490
  997SOL    HW2 4831   4.505   7.801   7.618
  998SOL     OW 4832   1.482  11.117   0.847
  998SOL    HW1 4833   1.576  11.124   0.834
  998SOL    HW2 4834   1.446  11.198   0.813
  999SOL     OW 4835  10.258   0.824   5.582
  999SOL    HW1 4836  10.291   0.823   5.671
  999SOL    HW2 4837  10.324   0.871   5.531
 1000SOL     OW 4838   5.983   9.030  10.062
 1000SOL    HW1 4839   5.964   8.980  10.141
 1000SOL    HW2 4840   6.028   8.969  10.004
 1001SOL     OW 4841  10.236  11.040   2.562
 1001SOL    HW1 4842  10.224  11.028   2.468
 1001SOL    HW2 4843  10.288  10.964   2.590
 1002SOL     OW 4844   0.688   5.156   3.044
 1002SOL    HW1 4845   0.627   5.088   3.075
 1002SOL    HW2 4846   0.771   5.109   3.031
 1003SOL     OW 4847   2.991   4.623  14.765
 1003SOL    HW1 4848   3.067   4.647  14.818
 1003SOL    HW2 4849   2.975   4.699  14.709
 1004SOL     OW 4850  12.729   7.734   8.532
 1004SOL    HW1 4851  12.797   7.792   8.497
 1004SOL    HW2 4852  12.766   7.701   8.614
 1005SOL     OW 4853   2.498  11.822   9.936
 1005SOL    HW1 4854   2.457  11.750   9.888
 1005SOL    HW2 4855   2.546  11.779  10.006
 1006SOL     OW 4856   6.875   3.484   2.542
 1006SOL    HW1 4857   6.880   3.474   2.637
 1006SOL    HW2 4858   6.783   3.508   2.525
 1007SOL     OW 4859   9.374   0.615   2.373
 1007SOL    HW1 4860   9.404   0.646   2.458
 1007SOL    HW2 4861   9.414   0.676   2.310
 1008SOL     OW 4862   1.451   7.187   2.528
 1008SOL    HW1 4863   1.445   7.267   2.581
 1008SOL    HW2 4864   1.535   7.148   2.553
 1009SOL     OW 4865   9.787  12.978   9.945
 1009SOL    HW1 4866   9.829  12.899   9.978
 1009SOL    HW2 4867   9.735  12.949   9.870
 1010SOL     OW 4868  11.476  12.716   2.082
 1010SOL    HW1 4869  11.396  12.696   2.034
 1010SOL    HW2 4870  11.547  12.693   2.022
 1011SOL     OW 4871  13.957   3.256  11.975
 1011SOL    HW1 4872  14.019   3.261  11.902
 1011SOL    HW2 4873  13.928   3.165  11.976
 1012SOL     OW 4874   7.349  12.097   1.839
 1012SOL    HW1 4875   7.409  12.170   1.856
 1012SOL    HW2 4876   7.371  12.069   1.750
 1013SOL     OW 4877   9.655   9.534   1.848
 1013SOL    HW1 4878   9.578   9.485   1.878
 1013SOL    HW2 4879   9.709   9.469   1.804
 1014SOL     OW 4880   9.199   0.910   8.956
 1014SOL    HW1 4881   9.142   0.874   9.024
 1014SOL    HW2 4882   9.141   0.966   8.904
 1015SOL     OW 4883  11.026   0.852  10.686
 1015SOL    HW1 4884  10.958   0.790  10.661
 1015SOL    HW2 4885  11.066   0.814  10.764
 1016SOL     OW 4886  14.023   4.835   7.965
 1016SOL    HW1 4887  14.078   4.764   7.934
 1016SOL    HW2 4888  14.082   4.892   8.015
 1017SOL     OW 4889  11.702  10.148  14.132
 1017SOL    HW1 4890  11.660  10.219  14.083
 1017SOL    HW2 4891  11.740  10.091  14.065
 1018SOL     OW 4892   2.257   4.222   7.263
 1018SOL    HW1 4893   2.341   4.209   7.308
 1018SOL    HW2 4894   2.209   4.140   7.277
 1019SOL     OW 4895  14.479  14.183   5.195
 1019SOL    HW1 4896  14.499  14.277   5.197
 1019SOL    HW2 4897  14.424  14.170   5.272
 1020SOL     OW 4898   1.294   1.813   7.914
 1020SOL    HW1 4899   1.355   1.879   7.882
 1020SOL    HW2 4900   1.208   1.846   7.889
 1021SOL     OW 4901   3.265   0.741  14.325
 1021SOL    HW1 4902   3.174   0.747  14.355
 1021SOL    HW2 4903   3.258   0.729  14.230
 1022SOL     OW 4904   4.382  12.812   4.102
 1022SOL    HW1 4905   4.377  12.769   4.017
 1022SOL    HW2 4906   4.292  12.838   4.122
 1023SOL     OW 4907   6.419   9.211   3.983
 1023SOL    HW1 4908   6.372   9.171   3.910
 1023SOL    HW2 4909   6.357   9.273   4.021
 1024SOL     OW 4910   0.239   5.099  10.262
 1024SOL    HW1 4911   0.163   5.140  10.303
 1024SOL    HW2 4912   0.294   5.071  10.335
 1025SOL     OW 4913   3.884   2.906  10.393
 1025SOL    HW1 4914   3.946   2.890  10.464
 1025SOL    HW2 4915   3.875   3.001  10.390
 1026SOL     OW 4916   3.864  12.036   6.408
 1026SOL    HW1 4917   3.799  12.019   6.476
 1026SOL    HW2 4918   3.814  12.038   6.327
 1027SOL     OW 4919   3.117   1.002   1.023
 1027SOL    HW1 4920   3.049   0.990   0.956
 1027SOL    HW2 4921   3.169   0.921   1.020
 1028SOL     OW 4922   9.738   3.018   8.238
 1028SOL    HW1 4923   9.785   2.966   8.173
 1028SOL    HW2 4924   9.806   3.069   8.282
 1029SOL     OW 4925  13.171   5.063   0.149
 1029SOL    HW1 4926  13.191   5.028   0.062
 1029SOL    HW2 4927  13.093   5.015   0.177
 1030SOL     OW 4928   4.505   5.085   1.259
 1030SOL    HW1 4929   4.503   5.076   1.164
 1030SOL    HW2 4930   4.449   5.014   1.291
 1031SOL     OW 4931   5.181  13.376  12.150
 1031SOL    HW1 4932   5.111  13.396  12.089
 1031SOL    HW2 4933   5.145  13.307  12.207
 1032SOL     OW 4934  14.315  10.034   1.172
 1032SOL    HW1 4935  14.387  10.030   1.110
 1032SOL    HW2 4936  14.267   9.952   1.160
 1033SOL     OW 4937  13.646   3.457   4.003
 1033SOL    HW1 4938  13.681   3.540   4.035
 1033SOL    HW2 4939  13.612   3.414   4.082
 1034SOL     OW 4940   0.887  11.616  10.774
 1034SOL    HW1 4941   0.855  11.643  10.860
 1034SOL    HW2 4942   0.975  11.583  10.792
 1035SOL     OW 4943   2.554   5.453   7.929
 1035SOL    HW1 4944   2.580   5.482   7.841
 1035SOL    HW2 4945   2.459   5.461   7.930
 1036SOL     OW 4946  10.121  10.879  12.847
 1036SOL    HW1 4947  10.081  10.965  12.834
 1036SOL    HW2 4948  10.054  10.827  12.891
 1037SOL     OW 4949   6.715   0.938   4.809
 1037SOL    HW1 4950   6.746   0.904   4.725
 1037SOL    HW2 4951   6.629   0.898   4.821
 1038SOL     OW 4952   3.252  10.072  14.709
 1038SOL    HW1 4953   3.175  10.091  14.763
 1038SOL    HW2 4954   3.219  10.072  14.619
 1039SOL     OW 4955   7.457  13.616   0.688
 1039SOL    HW1 4956   7.523  13.556   0.654
 1039SOL    HW2 4957   7.460  13.605   0.783
 1040SOL     OW 4958   3.409   6.874   4.027
 1040SOL    HW1 4959   3.469   6.948   4.033
 1040SOL    HW2 4960   3.408   6.852   3.934
 1041SOL     OW 4961  14.837   4.921  13.182
 1041SOL    HW1 4962  14.819   4.956  13.269
 1041SOL    HW2 4963  14.783   4.842  13.177
 1042SOL     OW 4964   8.057   0.023   8.791
 1042SOL    HW1 4965   7.996  14.834   8.756
 1042SOL    HW2 4966   8.001   0.091   8.827
 1043SOL     OW 4967   9.744   2.630  12.682
 1043SOL    HW1 4968   9.806   2.679  12.629
 1043SOL    HW2 4969   9.731   2.685  12.760
 1044SOL     OW 4970  13.349   1.986   1.333
 1044SOL    HW1 4971  13.428   2.034   1.309
 1044SOL    HW2 4972  13.280   2.025   1.280
 1045SOL     OW 4973  11.272  12.226  14.019
 1045SOL    HW1 4974  11.256  12.208  13.926
 1045SOL    HW2 4975  11.249  12.145  14.064
 1046SOL     OW 4976   7.186   5.342   2.437
 1046SOL    HW1 4977   7.217   5.383   2.356
 1046SOL    HW2 4978   7.247   5.270   2.451
 1047SOL     OW 4979   9.823  11.268   2.003
 1047SOL    HW1 4980   9.895  11.207   1.988
 1047SOL    HW2 4981   9.817  11.276   2.098
 1048SOL     OW 4982   6.868   8.396  10.354
 1048SOL    HW1 4983   6.839   8.375  10.265
 1048SOL    HW2 4984   6.963   8.387  10.350
 1049SOL     OW 4985   1.203   9.474  14.186
 1049SOL    HW1 4986   1.111   9.455  14.169
 1049SOL    HW2 4987   1.204   9.566  14.209
 1050SOL     OW 4988   5.859   6.293  14.534
 1050SOL    HW1 4989   5.921   6.229  14.501
 1050SOL    HW2 4990   5.912   6.350  14.591
 1051SOL     OW 4991   0.097   6.346  10.503
 1051SOL    HW1 4992   0.143   6.426  10.527
 1051SOL    HW2 4993   0.027   6.375  10.445
 1052SOL     OW 4994  13.885   1.873   7.956
 1052SOL    HW1 4995  13.815   1.889   7.894
 1052SOL    HW2 4996  13.841   1.842   8.035
 1053SOL     OW 4997   2.998   2.259  12.230
 1053SOL    HW1 4998   2.991   2.288  12.139
 1053SOL    HW2 4999   2.951   2.175  12.232
 1054SOL     OW 5000   2.312   7.050   4.403
 1054SOL    HW1 5001   2.325   7.118   4.468
 1054SOL    HW2 5002   2.389   6.993   4.411
 1055SOL     OW 5003   1.239   8.900   5.868
 1055SOL    HW1 5004   1.194   8.972   5.825
 1055SOL    HW2 5005   1.268   8.843   5.797
 1056SOL     OW 5006  11.923   5.908   5.280
 1056SOL    HW1 5007  11.870   5.851   5.335
 1056SOL    HW2 5008  12.014   5.886   5.302
 1057SOL     OW 5009  11.429   5.392   5.752
 1057SOL    HW1 5010  11.360   5.388   5.818
 1057SOL    HW2 5011  11.397   5.453   5.686
 1058SOL     OW 5012  13.869   0.072   0.204
 1058SOL    HW1 5013  13.902   0.117   0.126
 1058SOL    HW2 5014  13.867  14.856   0.180
 1059SOL     OW 5015  11.479   0.111   3.940
 1059SOL    HW1 5016  11.524   0.161   3.872
 1059SOL    HW2 5017  11.476   0.169   4.016
 1060SOL     OW 5018   1.008   4.508   1.914
 1060SOL    HW1 5019   1.001   4.505   2.009
 1060SOL    HW2 5020   0.990   4.599   1.891
 1061SOL     OW 5021   9.896  13.424   2.536
 1061SOL    HW1 5022   9.930  13.401   2.623
 1061SOL    HW2 5023   9.855  13.510   2.548
 1062SOL     OW 5024   3.732  14.376   7.046
 1062SOL    HW1 5025   3.744  14.315   7.118
 1062SOL    HW2 5026   3.821  14.400   7.019
 1063SOL     OW 5027   7.926   7.643   3.697
 1063SOL    HW1 5028   7.987   7.591   3.646
 1063SOL    HW2 5029   7.940   7.615   3.787
 1064SOL     OW 5030   1.528   7.553   5.080
 1064SOL    HW1 5031   1.441   7.586   5.059
 1064SOL    HW2 5032   1.548   7.591   5.166
 1065SOL     OW 5033   4.498  14.631   0.240
 1065SOL    HW1 5034   4.411  14.599   0.264
 1065SOL    HW2 5035   4.484  14.682   0.160
 1066SOL     OW 5036   7.041   2.822   0.197
 1066SOL    HW1 5037   7.062   2.914   0.215
 1066SOL    HW2 5038   7.126   2.781   0.181
 1067SOL     OW 5039   4.519   7.753   0.323
 1067SOL    HW1 5040   4.568   7.834   0.337
 1067SOL    HW2 5041   4.582   7.683   0.342
 1068SOL     OW 5042   7.935   1.451  12.178
 1068SOL    HW1 5043   7.993   1.399  12.122
 1068SOL    HW2 5044   7.923   1.533  12.130
 1069SOL     OW 5045   6.294   5.211   8.646
 1069SOL    HW1 5046   6.228   5.224   8.578
 1069SOL    HW2 5047   6.272   5.276   8.713
 1070SOL     OW 5048   6.955  14.847  11.816
 1070SOL    HW1 5049   7.002  14.785  11.760
 1070SOL    HW2 5050   6.981  14.823  11.905
 1071SOL     OW 5051   9.749   0.505   6.172
 1071SOL    HW1 5052   9.818   0.467   6.118
 1071SOL    HW2 5053   9.703   0.430   6.209
 1072SOL     OW 5054   4.643  13.634  10.725
 1072SOL    HW1 5055   4.717  13.582  10.755
 1072SOL    HW2 5056   4.679  13.720  10.707
 1073SOL     OW 5057   7.900  10.757   0.510
 1073SOL    HW1 5058   7.863  10.671   0.489
 1073SOL    HW2 5059   7.877  10.773   0.601
 1074SOL     OW 5060  12.007   7.938   1.778
 1074SOL    HW1 5061  12.094   7.901   1.797
 1074SOL    HW2 5062  11.995   7.925   1.684
 1075SOL     OW 5063  10.671   3.506   7.731
 1075SOL    HW1 5064  10.662   3.601   7.731
 1075SOL    HW2 5065  10.583   3.473   7.748
 1076SOL     OW 5066   2.845   5.273   3.221
 1076SOL    HW1 5067   2.798   5.309   3.296
 1076SOL    HW2 5068   2.876   5.187   3.250
 1077SOL     OW 5069   5.585   9.486  12.642
 1077SOL    HW1 5070   5.613   9.454  12.557
 1077SOL    HW2 5071   5.490   9.471  12.644
 1078SOL     OW 5072  10.825  13.183   3.770
 1078SOL    HW1 5073  10.761  13.116   3.748
 1078SOL    HW2 5074  10.880  13.143   3.838
 1079SOL     OW 5075   7.265   4.035  12.265
 1079SOL    HW1 5076   7.263   4.103  12.198
 1079SOL    HW2 5077   7.188   4.053  12.320
 1080SOL     OW 5078   4.842   6.873   6.953
 1080SOL    HW1 5079   4.768   6.917   6.995
 1080SOL    HW2 5080   4.913   6.937   6.956
 1081SOL     OW 5081   5.232   5.688   9.324
 1081SOL    HW1 5082   5.277   5.772   9.329
 1081SOL    HW2 5083   5.163   5.701   9.258
 1082SOL     OW 5084   4.775   4.425   1.598
 1082SOL    HW1 5085   4.688   4.463   1.588
 1082SOL    HW2 5086   4.767   4.338   1.559
 1083SOL     OW 5087  11.566  13.079   1.344
 1083SOL    HW1 5088  11.574  13.057   1.251
 1083SOL    HW2 5089  11.538  13.170   1.345
 1084SOL     OW 5090   1.464  10.893  11.079
 1084SOL    HW1 5091   1.465  10.977  11.124
 1084SOL    HW2 5092   1.512  10.834  11.138
 1085SOL     OW 5093   3.983   7.178   2.515
 1085SOL    HW1 5094   4.058   7.229   2.545
 1085SOL    HW2 5095   4.022   7.105   2.467
 1086SOL     OW 5096  11.115  12.561   9.988
 1086SOL    HW1 5097  11.145  12.651  10.003
 1086SOL    HW2 5098  11.194  12.514   9.959
 1087SOL     OW 5099  11.024  11.036   0.974
 1087SOL    HW1 5100  10.996  11.055   1.063
 1087SOL    HW2 5101  11.042  11.122   0.936
 1088SOL     OW 5102   3.887   7.351   7.939
 1088SOL    HW1 5103   3.978   7.363   7.910
 1088SOL    HW2 5104   3.841   7.321   7.860
 1089SOL     OW 5105  14.799   5.667   7.711
 1089SOL    HW1 5106  14.781   5.573   7.701
 1089SOL    HW2 5107  14.712   5.707   7.720
 1090SOL     OW 5108   4.315   2.570  14.675
 1090SOL    HW1 5109   4.292   2.570  14.582
 1090SOL    HW2 5110   4.340   2.661  14.694
 1091SOL     OW 5111   0.596  13.336   8.641
 1091SOL    HW1 5112   0.667  13.376   8.590
 1091SOL    HW2 5113   0.524  13.329   8.579
 1092SOL     OW 5114   5.014   5.696  12.975
 1092SOL    HW1 5115   5.091   5.750  12.990
 1092SOL    HW2 5116   5.036   5.644  12.898
 1093SOL     OW 5117  10.797   9.570  12.088
 1093SOL    HW1 5118  10.893   9.563  12.086
 1093SOL    HW2 5119  10.769   9.529  12.006
 1094SOL     OW 5120   0.840  12.306  12.106
 1094SOL    HW1 5121   0.837  12.383  12.049
 1094SOL    HW2 5122   0.749  12.279  12.115
 1095SOL     OW 5123  13.853   4.845   8.720
 1095SOL    HW1 5124  13.842   4.880   8.632
 1095SOL    HW2 5125  13.777   4.788   8.733
 1096SOL     OW 5126  14.501   5.894   9.003
 1096SOL    HW1 5127  14.491   5.823   9.065
 1096SOL    HW2 5128  14.418   5.896   8.955
 1097SOL     OW 5129   9.466   7.815  10.229
 1097SOL    HW1 5130   9.493   7.876  10.298
 1097SOL    HW2 5131   9.547   7.784  10.190
 1098SOL     OW 5132   1.155  13.099  11.845
 1098SOL    HW1 5133   1.207  13.170  11.807
 1098SOL    HW2 5134   1.066  13.133  11.847
 1099SOL     OW 5135  11.660   9.014   0.248
 1099SOL    HW1 5136  11.633   8.935   0.203
 1099SOL    HW2 5137  11.752   8.999   0.270
 1100SOL     OW 5138   4.211  10.106   7.125
 1100SOL    HW1 5139   4.238  10.053   7.050
 1100SOL    HW2 5140   4.215  10.045   7.199
 1101SOL     OW 5141   1.068  11.611   2.920
 1101SOL    HW1 5142   1.054  11.573   3.007
 1101SOL    HW2 5143   1.086  11.704   2.937
 1102SOL     OW 5144  13.262  10.204  12.768
 1102SOL    HW1 5145  13.308  10.137  12.716
 1102SOL    HW2 5146  13.174  10.207  12.730
 1103SOL     OW 5147  10.783   2.920   3.152
 1103SOL    HW1 5148  10.865   2.946   3.194
 1103SOL    HW2 5149  10.796   2.938   3.059
 1104SOL     OW 5150  14.530   0.827  10.142
 1104SOL    HW1 5151  14.464   0.866  10.199
 1104SOL    HW2 5152  14.521   0.874  10.059
 1105SOL     OW 5153   7.675   8.644  11.767
 1105SOL    HW1 5154   7.644   8.588  11.696
 1105SOL    HW2 5155   7.716   8.583  11.829
 1106SOL     OW 5156   4.350  13.002   5.430
 1106SOL    HW1 5157   4.431  12.982   5.384
 1106SOL    HW2 5158   4.320  13.084   5.392
 1107SOL     OW 5159   4.922   3.686   0.634
 1107SOL    HW1 5160   4.863   3.657   0.704
 1107SOL    HW2 5161   4.973   3.756   0.674
 1108SOL     OW 5162   8.566   6.801   2.653
 1108SOL    HW1 5163   8.613   6.718   2.655
 1108SOL    HW2 5164   8.476   6.779   2.674
 1109SOL     OW 5165  11.609   8.727   2.196
 1109SOL    HW1 5166  11.631   8.732   2.103
 1109SOL    HW2 5167  11.633   8.638   2.221
 1110SOL     OW 5168  12.609   7.628   2.455
 1110SOL    HW1 5169  12.579   7.697   2.395
 1110SOL    HW2 5170  12.664   7.674   2.518
 1111SOL     OW 5171  14.114  11.790   8.579
 1111SOL    HW1 5172  14.026  11.779   8.542
 1111SOL    HW2 5173  14.167  11.821   8.505
 1112SOL     OW 5174  11.290   3.332   0.348
 1112SOL    HW1 5175  11.301   3.353   0.441
 1112SOL    HW2 5176  11.198   3.307   0.340
 1113SOL     OW 5177   8.959   8.099  11.060
 1113SOL    HW1 5178   8.887   8.150  11.023
 1113SOL    HW2 5179   9.038   8.138  11.023
 1114SOL     OW 5180   9.274  13.816   5.916
 1114SOL    HW1 5181   9.294  13.860   5.833
 1114SOL    HW2 5182   9.205  13.869   5.955
 1115SOL     OW 5183   9.413   3.114   2.073
 1115SOL    HW1 5184   9.329   3.145   2.038
 1115SOL    HW2 5185   9.467   3.193   2.079
 1116SOL     OW 5186  13.136   5.418   3.549
 1116SOL    HW1 5187  13.088   5.424   3.632
 1116SOL    HW2 5188  13.208   5.358   3.567
 1117SOL     OW 5189   5.208   6.788   1.091
 1117SOL    HW1 5190   5.174   6.824   1.173
 1117SOL    HW2 5191   5.302   6.806   1.093
 1118SOL     OW 5192   0.621   4.062   9.955
 1118SOL    HW1 5193   0.712   4.091   9.962
 1118SOL    HW2 5194   0.627   3.967   9.950
 1119SOL     OW 5195   9.781   9.564  13.966
 1119SOL    HW1 5196   9.850   9.590  14.026
 1119SOL    HW2 5197   9.752   9.645  13.924
 1120SOL     OW 5198  13.658   8.502   7.641
 1120SOL    HW1 5199  13.654   8.502   7.546
 1120SOL    HW2 5200  13.724   8.437   7.663
 1121SOL     OW 5201   1.578  12.551   4.047
 1121SOL    HW1 5202   1.647  12.572   3.984
 1121SOL    HW2 5203   1.621  12.496   4.112
 1122SOL     OW 5204   0.515   3.664   7.667
 1122SOL    HW1 5205   0.597   3.664   7.717
 1122SOL    HW2 5206   0.543   3.653   7.576
 1123SOL     OW 5207   2.093   4.036   8.296
 1123SOL    HW1 5208   2.101   4.122   8.336
 1123SOL    HW2 5209   2.181   4.017   8.263
 1124SOL     OW 5210   0.001  14.863   2.236
 1124SOL    HW1 5211   0.003  14.809   2.315
 1124SOL    HW2 5212  14.785   0.008   2.224
 1125SOL     OW 5213  14.322  13.506  10.053
 1125SOL    HW1 5214  14.281  13.420  10.043
 1125SOL    HW2 5215  14.278  13.561   9.988
 1126SOL     OW 5216   0.032   6.560  12.924
 1126SOL    HW1 5217  14.820   6.579  12.891
 1126SOL    HW2 5218   0.023   6.474  12.966
 1127SOL     OW 5219   3.512   0.282  10.385
 1127SOL    HW1 5220   3.443   0.215  10.378
 1127SOL    HW2 5221   3.551   0.268  10.471
 1128SOL     OW 5222  13.355   3.382   4.489
 1128SOL    HW1 5223  13.406   3.325   4.431
 1128SOL    HW2 5224  13.420   3.440   4.529
 1129SOL     OW 5225   6.288  14.853   2.881
 1129SOL    HW1 5226   6.380  14.828   2.873
 1129SOL    HW2 5227   6.247  14.780   2.928
 1130SOL     OW 5228   9.105   0.567   1.564
 1130SOL    HW1 5229   9.146   0.622   1.631
 1130SOL    HW2 5230   9.020   0.609   1.547
 1131SOL     OW 5231   8.748  10.809   5.486
 1131SOL    HW1 5232   8.824  10.823   5.543
 1131SOL    HW2 5233   8.675  10.797   5.547
 1132SOL     OW 5234   9.773   2.983   5.303
 1132SOL    HW1 5235   9.859   2.957   5.270
 1132SOL    HW2 5236   9.732   2.901   5.331
 1133SOL     OW 5237  13.258  10.623   9.547
 1133SOL    HW1 5238  13.180  10.618   9.492
 1133SOL    HW2 5239  13.250  10.549   9.607
 1134SOL     OW 5240  12.064   8.980  10.503
 1134SOL    HW1 5241  12.118   8.903  10.483
 1134SOL    HW2 5242  11.980   8.961  10.460
 1135SOL     OW 5243   5.085   6.478  13.754
 1135SOL    HW1 5244   5.095   6.571  13.733
 1135SOL    HW2 5245   5.150   6.462  13.823
 1136SOL     OW 5246  13.534  13.312   5.740
 1136SOL    HW1 5247  13.566  13.401   5.731
 1136SOL    HW2 5248  13.474  13.300   5.665
 1137SOL     OW 5249  12.803  10.044   5.993
 1137SOL    HW1 5250  12.740  10.014   5.928
 1137SOL    HW2 5251  12.888  10.017   5.957
 1138SOL     OW 5252  12.696  13.153  10.739
 1138SOL    HW1 5253  12.619  13.140  10.683
 1138SOL    HW2 5254  12.667  13.127  10.826
 1139SOL     OW 5255   5.472  13.028   0.776
 1139SOL    HW1 5256   5.523  13.002   0.699
 1139SOL    HW2 5257   5.382  13.005   0.754
 1140SOL     OW 5258  13.984   8.881   7.408
 1140SOL    HW1 5259  13.982   8.929   7.491
 1140SOL    HW2 5260  13.994   8.789   7.434
 1141SOL     OW 5261   9.483   3.418   4.813
 1141SOL    HW1 5262   9.445   3.332   4.831
 1141SOL    HW2 5263   9.537   3.437   4.890
 1142SOL     OW 5264  10.901  10.323   7.865
 1142SOL    HW1 5265  10.995  10.312   7.881
 1142SOL    HW2 5266  10.894  10.408   7.822
 1143SOL     OW 5267   1.434   5.270   7.745
 1143SOL    HW1 5268   1.404   5.298   7.831
 1143SOL    HW2 5269   1.443   5.351   7.695
 1144SOL     OW 5270  12.587   8.551   3.628
 1144SOL    HW1 5271  12.552   8.507   3.705
 1144SOL    HW2 5272  12.606   8.641   3.657
 1145SOL     OW 5273   7.391   2.751   3.045
 1145SOL    HW1 5274   7.352   2.715   2.965
 1145SOL    HW2 5275   7.319   2.795   3.089
 1146SOL     OW 5276   1.883   1.122   8.814
 1146SOL    HW1 5277   1.830   1.044   8.831
 1146SOL    HW2 5278   1.974   1.093   8.825
 1147SOL     OW 5279  11.821   0.773   2.463
 1147SOL    HW1 5280  11.894   0.805   2.409
 1147SOL    HW2 5281  11.862   0.716   2.528
 1148SOL     OW 5282  11.501   5.525   7.707
 1148SOL    HW1 5283  11.586   5.565   7.721
 1148SOL    HW2 5284  11.477   5.549   7.618
 1149SOL     OW 5285   8.030   5.370   0.719
 1149SOL    HW1 5286   8.048   5.460   0.692
 1149SOL    HW2 5287   7.936   5.367   0.735
 1150SOL     OW 5288   8.951   2.486  10.566
 1150SOL    HW1 5289   9.045   2.493  10.580
 1150SOL    HW2 5290   8.928   2.399  10.599
 1151SOL     OW 5291   5.527  10.058  11.537
 1151SOL    HW1 5292   5.542   9.967  11.564
 1151SOL    HW2 5293   5.613  10.100  11.544
 1152SOL     OW 5294   5.449  10.298   1.240
 1152SOL    HW1 5295   5.495  10.239   1.181
 1152SOL    HW2 5296   5.399  10.356   1.182
 1153SOL     OW 5297   5.739  14.325   3.144
 1153SOL    HW1 5298   5.791  14.261   3.194
 1153SOL    HW2 5299   5.670  14.272   3.104
 1154SOL     OW 5300   6.867   8.870   0.981
 1154SOL    HW1 5301   6.931   8.799   0.980
 1154SOL    HW2 5302   6.913   8.942   1.025
 1155SOL     OW 5303   1.116   9.499  12.266
 1155SOL    HW1 5304   1.140   9.501  12.358
 1155SOL    HW2 5305   1.108   9.406  12.245
 1156SOL     OW 5306   8.154   3.100  12.151
 1156SOL    HW1 5307   8.088   3.061  12.209
 1156SOL    HW2 5308   8.116   3.184  12.125
 1157SOL     OW 5309  12.221  10.685  14.042
 1157SOL    HW1 5310  12.209  10.591  14.027
 1157SOL    HW2 5311  12.248  10.719  13.957
 1158SOL     OW 5312   2.117  13.377  12.749
 1158SOL    HW1 5313   2.116  13.445  12.816
 1158SOL    HW2 5314   2.204  13.337  12.757
 1159SOL     OW 5315  12.564   1.948   1.684
 1159SOL    HW1 5316  12.570   1.864   1.638
 1159SOL    HW2 5317  12.608   2.010   1.626
 1160SOL     OW 5318   1.517   3.182   9.450
 1160SOL    HW1 5319   1.527   3.274   9.474
 1160SOL    HW2 5320   1.460   3.146   9.517
 1161SOL     OW 5321  12.600  13.777   4.865
 1161SOL    HW1 5322  12.613  13.807   4.776
 1161SOL    HW2 5323  12.532  13.834   4.901
 1162SOL     OW 5324   3.828   4.179   7.710
 1162SOL    HW1 5325   3.734   4.165   7.715
 1162SOL    HW2 5326   3.839   4.258   7.658
 1163SOL     OW 5327   7.669   5.990  11.065
 1163SOL    HW1 5328   7.626   6.049  11.126
 1163SOL    HW2 5329   7.759   5.983  11.097
 1164SOL     OW 5330   8.172  11.992  12.770
 1164SOL    HW1 5331   8.092  12.025  12.729
 1164SOL    HW2 5332   8.142  11.930  12.836
 1165SOL     OW 5333  10.459   7.782   8.979
 1165SOL    HW1 5334  10.413   7.859   8.946
 1165SOL    HW2 5335  10.390   7.726   9.012
 1166SOL     OW 5336   2.769   8.184  10.635
 1166SOL    HW1 5337   2.769   8.199  10.540
 1166SOL    HW2 5338   2.760   8.271  10.673
 1167SOL     OW 5339  13.293   6.550   0.378
 1167SOL    HW1 5340  13.263   6.624   0.324
 1167SOL    HW2 5341  13.220   6.488   0.376
 1168SOL     OW 5342   7.377   7.061   1.210
 1168SOL    HW1 5343   7.457   7.037   1.257
 1168SOL    HW2 5344   7.403   7.061   1.118
 1169SOL     OW 5345   8.527   3.505   2.245
 1169SOL    HW1 5346   8.435   3.482   2.258
 1169SOL    HW2 5347   8.530   3.546   2.158
 1170SOL     OW 5348   5.000   2.188   0.360
 1170SOL    HW1 5349   4.966   2.099   0.357
 1170SOL    HW2 5350   4.959   2.233   0.286
 1171SOL     OW 5351   1.909  13.871   4.873
 1171SOL    HW1 5352   1.949  13.878   4.786
 1171SOL    HW2 5353   1.875  13.959   4.891
 1172SOL     OW 5354   2.045   1.343  11.101
 1172SOL    HW1 5355   2.027   1.344  11.007
 1172SOL    HW2 5356   1.986   1.408  11.138
 1173SOL     OW 5357  12.092   7.876   1.254
 1173SOL    HW1 5358  12.115   7.816   1.184
 1173SOL    HW2 5359  12.084   7.961   1.211
 1174SOL     OW 5360   9.511   8.261   9.033
 1174SOL    HW1 5361   9.516   8.291   8.942
 1174SOL    HW2 5362   9.418   8.269   9.056
 1175SOL     OW 5363   1.569  10.926   3.183
 1175SOL    HW1 5364   1.601  10.924   3.273
 1175SOL    HW2 5365   1.493  10.867   3.184
 1176SOL     OW 5366   7.683  10.506   2.518
 1176SOL    HW1 5367   7.591  10.496   2.543
 1176SOL    HW2 5368   7.685  10.489   2.424
 1177SOL     OW 5369   8.503   1.698   2.450
 1177SOL    HW1 5370   8.516   1.723   2.359
 1177SOL    HW2 5371   8.567   1.751   2.498
 1178SOL     OW 5372   7.259   7.426   9.202
 1178SOL    HW1 5373   7.206   7.461   9.130
 1178SOL    HW2 5374   7.235   7.479   9.278
 1179SOL     OW 5375   6.752   4.955   2.248
 1179SOL    HW1 5376   6.766   4.927   2.339
 1179SOL    HW2 5377   6.832   4.928   2.202
 1180SOL     OW 5378   9.829  11.212  14.251
 1180SOL    HW1 5379   9.859  11.147  14.315
 1180SOL    HW2 5380   9.853  11.175  14.166
 1181SOL     OW 5381   6.379   0.177  14.175
 1181SOL    HW1 5382   6.312   0.185  14.107
 1181SOL    HW2 5383   6.352   0.102  14.228
 1182SOL     OW 5384   5.236   2.275  10.308
 1182SOL    HW1 5385   5.142   2.294  10.305
 1182SOL    HW2 5386   5.242   2.181  10.293
 1183SOL     OW 5387  11.993   1.876   1.889
 1183SOL    HW1 5388  12.088   1.887   1.897
 1183SOL    HW2 5389  11.980   1.781   1.892
 1184SOL     OW 5390   8.268  14.787   8.243
 1184SOL    HW1 5391   8.326  14.818   8.313
 1184SOL    HW2 5392   8.323  14.790   8.165
 1185SOL     OW 5393   1.225  13.320   1.539
 1185SOL    HW1 5394   1.279  13.382   1.588
 1185SOL    HW2 5395   1.284  13.287   1.470
 1186SOL     OW 5396  13.018   5.390   6.331
 1186SOL    HW1 5397  12.987   5.401   6.421
 1186SOL    HW2 5398  13.042   5.478   6.303
 1187SOL     OW 5399   3.418  13.326   0.359
 1187SOL    HW1 5400   3.444  13.381   0.432
 1187SOL    HW2 5401   3.391  13.387   0.291
 1188SOL     OW 5402   2.211   9.715  13.746
 1188SOL    HW1 5403   2.252   9.763  13.818
 1188SOL    HW2 5404   2.153   9.779  13.704
 1189SOL     OW 5405   5.305   3.853   0.549
 1189SOL    HW1 5406   5.324   3.769   0.592
 1189SOL    HW2 5407   5.380   3.908   0.572
 1190SOL     OW 5408  11.978   8.684   2.936
 1190SOL    HW1 5409  11.908   8.684   3.001
 1190SOL    HW2 5410  12.033   8.759   2.960
 1191SOL     OW 5411   7.225   8.298   6.691
 1191SOL    HW1 5412   7.288   8.370   6.695
 1191SOL    HW2 5413   7.166   8.321   6.619
 1192SOL     OW 5414  14.642   4.694   5.853
 1192SOL    HW1 5415  14.654   4.626   5.920
 1192SOL    HW2 5416  14.552   4.681   5.821
 1193SOL     OW 5417  10.136   9.176  13.928
 1193SOL    HW1 5418  10.068   9.242  13.914
 1193SOL    HW2 5419  10.189   9.179  13.849
 1194SOL     OW 5420  12.242   1.057   6.597
 1194SOL    HW1 5421  12.259   1.147   6.625
 1194SOL    HW2 5422  12.283   1.051   6.511
 1195SOL     OW 5423   8.655  13.395  14.421
 1195SOL    HW1 5424   8.631  13.303  14.416
 1195SOL    HW2 5425   8.610  13.436  14.346
 1196SOL     OW 5426  14.314  13.951   2.465
 1196SOL    HW1 5427  14.402  13.933   2.497
 1196SOL    HW2 5428  14.265  13.870   2.481
 1197SOL     OW 5429   5.872   3.868  14.395
 1197SOL    HW1 5430   5.830   3.814  14.328
 1197SOL    HW2 5431   5.818   3.855  14.473
 1198SOL     OW 5432   4.143   6.901   8.645
 1198SOL    HW1 5433   4.127   6.869   8.557
 1198SOL    HW2 5434   4.056   6.922   8.679
 1199SOL     OW 5435   6.256   7.901  13.770
 1199SOL    HW1 5436   6.341   7.879  13.731
 1199SOL    HW2 5437   6.263   7.872  13.861
 1200SOL     OW 5438   8.976   2.930  11.743
 1200SOL    HW1 5439   9.062   2.971  11.755
 1200SOL    HW2 5440   8.914   3.003  11.749
 1201SOL     OW 5441  14.271   8.782   5.035
 1201SOL    HW1 5442  14.239   8.715   4.974
 1201SOL    HW2 5443  14.359   8.753   5.058
 1202SOL     OW 5444  11.119   4.031   9.472
 1202SOL    HW1 5445  11.113   4.011   9.565
 1202SOL    HW2 5446  11.211   4.013   9.450
 1203SOL     OW 5447  10.789   7.373   2.821
 1203SOL    HW1 5448  10.759   7.300   2.875
 1203SOL    HW2 5449  10.817   7.440   2.885
 1204SOL     OW 5450  11.320   0.669   4.757
 1204SOL    HW1 5451  11.347   0.597   4.814
 1204SOL    HW2 5452  11.337   0.636   4.668
 1205SOL     OW 5453   2.714   5.859   1.832
 1205SOL    HW1 5454   2.795   5.902   1.859
 1205SOL    HW2 5455   2.741   5.770   1.808
 1206SOL     OW 5456   0.104   1.239   0.973
 1206SOL    HW1 5457   0.107   1.298   1.048
 1206SOL    HW2 5458   0.012   1.242   0.944
 1207SOL     OW 5459   8.404  11.145  14.366
 1207SOL    HW1 5460   8.446  11.062  14.389
 1207SOL    HW2 5461   8.412  11.199  14.445
 1208SOL     OW 5462   5.549   2.169  12.231
 1208SOL    HW1 5463   5.471   2.210  12.266
 1208SOL    HW2 5464   5.521   2.081  12.206
 1209SOL     OW 5465   0.372  10.358   4.743
 1209SOL    HW1 5466   0.309  10.288   4.761
 1209SOL    HW2 5467   0.423  10.324   4.669
 1210SOL     OW 5468   8.721   8.686   4.365
 1210SOL    HW1 5469   8.761   8.600   4.376
 1210SOL    HW2 5470   8.639   8.669   4.320
 1211SOL     OW 5471   9.308  13.829   8.975
 1211SOL    HW1 5472   9.397  13.826   8.938
 1211SOL    HW2 5473   9.264  13.752   8.940
 1212SOL     OW 5474   1.279   7.174   9.182
 1212SOL    HW1 5475   1.257   7.259   9.220
 1212SOL    HW2 5476   1.369   7.157   9.213
 1213SOL     OW 5477   7.124   7.268   7.664
 1213SOL    HW1 5478   7.175   7.200   7.707
 1213SOL    HW2 5479   7.070   7.306   7.733
 1214SOL     OW 5480  13.139  11.576   0.242
 1214SOL    HW1 5481  13.076  11.505   0.256
 1214SOL    HW2 5482  13.106  11.648   0.297
 1215SOL     OW 5483  13.284   1.966   2.195
 1215SOL    HW1 5484  13.291   2.059   2.177
 1215SOL    HW2 5485  13.374   1.933   2.189
 1216SOL     OW 5486   5.765   4.575   6.986
 1216SOL    HW1 5487   5.752   4.629   6.908
 1216SOL    HW2 5488   5.677   4.560   7.020
 1217SOL     OW 5489  11.587   7.277  11.846
 1217SOL    HW1 5490  11.568   7.195  11.800
 1217SOL    HW2 5491  11.650   7.322  11.790
 1218SOL     OW 5492   8.743  13.539   8.000
 1218SOL    HW1 5493   8.674  13.522   8.064
 1218SOL    HW2 5494   8.812  13.582   8.051
 1219SOL     OW 5495   1.832   0.908   9.113
 1219SOL    HW1 5496   1.816   0.910   9.018
 1219SOL    HW2 5497   1.875   0.991   9.132
 1220SOL     OW 5498   0.766   4.837   5.892
 1220SOL    HW1 5499   0.843   4.793   5.929
 1220SOL    HW2 5500   0.773   4.928   5.923
 1221SOL     OW 5501  12.858   5.171   7.451
 1221SOL    HW1 5502  12.813   5.094   7.486
 1221SOL    HW2 5503  12.823   5.244   7.502
 1222SOL     OW 5504   4.138   7.357   7.822
 1222SOL    HW1 5505   4.152   7.292   7.753
 1222SOL    HW2 5506   4.208   7.421   7.808
 1223SOL     OW 5507   5.680   4.643  10.118
 1223SOL    HW1 5508   5.721   4.692  10.047
 1223SOL    HW2 5509   5.642   4.566  10.075
 1224SOL     OW 5510  11.299  12.009  12.262
 1224SOL    HW1 5511  11.227  11.956  12.228
 1224SOL    HW2 5512  11.357  12.021  12.187
 1225SOL     OW 5513  13.217  13.864   8.741
 1225SOL    HW1 5514  13.303  13.886   8.704
 1225SOL    HW2 5515  13.154  13.906   8.683
 1226SOL     OW 5516  11.109   7.569   9.884
 1226SOL    HW1 5517  11.163   7.542   9.810
 1226SOL    HW2 5518  11.053   7.637   9.848
 1227SOL     OW 5519   8.726  10.744   2.444
 1227SOL    HW1 5520   8.688  10.692   2.515
 1227SOL    HW2 5521   8.772  10.815   2.489
 1228SOL     OW 5522  10.485   5.562   3.660
 1228SOL    HW1 5523  10.425   5.572   3.586
 1228SOL    HW2 5524  10.535   5.644   3.662
 1229SOL     OW 5525   8.822   4.838   4.774
 1229SOL    HW1 5526   8.741   4.789   4.764
 1229SOL    HW2 5527   8.885   4.793   4.718
 1230SOL     OW 5528  12.777   8.522  14.624
 1230SOL    HW1 5529  12.797   8.429  14.634
 1230SOL    HW2 5530  12.854   8.567  14.658
 1231SOL     OW 5531   2.803   4.276   0.573
 1231SOL    HW1 5532   2.897   4.272   0.592
 1231SOL    HW2 5533   2.795   4.239   0.485
 1232SOL     OW 5534  14.160  14.612   2.658
 1232SOL    HW1 5535  14.136  14.579   2.744
 1232SOL    HW2 5536  14.188  14.702   2.673
 1233SOL     OW 5537   4.376   4.155  13.373
 1233SOL    HW1 5538   4.341   4.219  13.312
 1233SOL    HW2 5539   4.374   4.072  13.326
 1234SOL     OW 5540   9.864   8.509   4.386
 1234SOL    HW1 5541   9.774   8.521   4.358
 1234SOL    HW2 5542   9.860   8.436   4.448
 1235SOL     OW 5543   4.610   5.879  12.317
 1235SOL    HW1 5544   4.600   5.852  12.408
 1235SOL    HW2 5545   4.610   5.797  12.267
 1236SOL     OW 5546  11.816  13.103  10.696
 1236SOL    HW1 5547  11.861  13.090  10.780
 1236SOL    HW2 5548  11.794  13.015  10.667
 1237SOL     OW 5549   5.237  11.173  11.515
 1237SOL    HW1 5550   5.328  11.186  11.542
 1237SOL    HW2 5551   5.239  11.094  11.462
 1238SOL     OW 5552   3.354   0.769   2.359
 1238SOL    HW1 5553   3.447   0.791   2.352
 1238SOL    HW2 5554   3.325   0.757   2.268
 1239SOL     OW 5555   4.643   2.960  13.461
 1239SOL    HW1 5556   4.573   2.978  13.399
 1239SOL    HW2 5557   4.625   3.017  13.535
 1240SOL     OW 5558  13.254   0.867   9.072
 1240SOL    HW1 5559  13.338   0.823   9.081
 1240SOL    HW2 5560  13.194   0.814   9.125
 1241SOL     OW 5561   7.609   4.565   0.844
 1241SOL    HW1 5562   7.529   4.618   0.836
 1241SOL    HW2 5563   7.680   4.628   0.843
 1242SOL     OW 5564  11.759   5.223  14.758
 1242SOL    HW1 5565  11.687   5.191  14.704
 1242SOL    HW2 5566  11.765   5.159  14.829
 1243SOL     OW 5567   0.393   7.035  10.314
 1243SOL    HW1 5568   0.329   6.967  10.295
 1243SOL    HW2 5569   0.461   7.025  10.247
 1244SOL     OW 5570   4.310   9.857   4.922
 1244SOL    HW1 5571   4.318   9.952   4.929
 1244SOL    HW2 5572   4.328   9.838   4.830
 1245SOL     OW 5573   6.880  14.233  10.597
 1245SOL    HW1 5574   6.902  14.294  10.527
 1245SOL    HW2 5575   6.820  14.283  10.653
 1246SOL     OW 5576  10.558  11.833   3.772
 1246SOL    HW1 5577  10.539  11.785   3.853
 1246SOL    HW2 5578  10.653  11.844   3.772
 1247SOL     OW 5579   5.953  12.990   6.367
 1247SOL    HW1 5580   5.995  13.065   6.410
 1247SOL    HW2 5581   5.907  13.028   6.292
 1248SOL     OW 5582   8.574   8.193   2.128
 1248SOL    HW1 5583   8.586   8.109   2.084
 1248SOL    HW2 5584   8.555   8.255   2.057
 1249SOL     OW 5585   2.220   0.738   4.164
 1249SOL    HW1 5586   2.262   0.821   4.188
 1249SOL    HW2 5587   2.229   0.733   4.069
 1250SOL     OW 5588   6.407   0.664   7.683
 1250SOL    HW1 5589   6.352   0.596   7.644
 1250SOL    HW2 5590   6.452   0.704   7.608
 1251SOL     OW 5591   4.949   4.800  14.544
 1251SOL    HW1 5592   4.875   4.836  14.593
 1251SOL    HW2 5593   4.914   4.722  14.502
 1252SOL     OW 5594   9.093   5.942  13.528
 1252SOL    HW1 5595   9.065   5.880  13.594
 1252SOL    HW2 5596   9.057   5.909  13.446
 1253SOL     OW 5597   5.466   9.028   3.634
 1253SOL    HW1 5598   5.382   9.014   3.589
 1253SOL    HW2 5599   5.446   9.011   3.726
 1254SOL     OW 5600  14.652   3.258  11.922
 1254SOL    HW1 5601  14.628   3.168  11.898
 1254SOL    HW2 5602  14.724   3.247  11.984
 1255SOL     OW 5603  10.728   5.679  14.498
 1255SOL    HW1 5604  10.736   5.706  14.407
 1255SOL    HW2 5605  10.648   5.626  14.500
 1256SOL     OW 5606   9.597  13.917   9.033
 1256SOL    HW1 5607   9.616  14.001   8.992
 1256SOL    HW2 5608   9.646  13.853   8.980
 1257SOL     OW 5609  13.890   5.618   1.577
 1257SOL    HW1 5610  13.812   5.668   1.602
 1257SOL    HW2 5611  13.964   5.671   1.607
 1258SOL     OW 5612  14.246   2.501  14.063
 1258SOL    HW1 5613  14.310   2.430  14.051
 1258SOL    HW2 5614  14.245   2.546  13.978
 1259SOL     OW 5615   8.207   4.481   4.363
 1259SOL    HW1 5616   8.241   4.428   4.435
 1259SOL    HW2 5617   8.266   4.463   4.290
 1260SOL     OW 5618   4.966  10.626  12.657
 1260SOL    HW1 5619   5.052  10.588  12.675
 1260SOL    HW2 5620   4.914  10.604  12.734
 1261SOL     OW 5621  11.124   7.714   0.413
 1261SOL    HW1 5622  11.218   7.727   0.400
 1261SOL    HW2 5623  11.083   7.774   0.351
 1262SOL     OW 5624  12.239  14.554  10.598
 1262SOL    HW1 5625  12.225  14.459  10.604
 1262SOL    HW2 5626  12.325  14.563  10.557
 1263SOL     OW 5627  11.499   3.907   0.355
 1263SOL    HW1 5628  11.543   3.939   0.434
 1263SOL    HW2 5629  11.451   3.830   0.385
 1264SOL     OW 5630   7.192   7.442   6.386
 1264SOL    HW1 5631   7.230   7.355   6.368
 1264SOL    HW2 5632   7.226   7.498   6.316
 1265SOL     OW 5633  10.027  11.382   8.254
 1265SOL    HW1 5634  10.028  11.317   8.324
 1265SOL    HW2 5635   9.938  11.379   8.220
 1266SOL     OW 5636  12.195   8.195   4.562
 1266SOL    HW1 5637  12.287   8.219   4.548
 1266SOL    HW2 5638  12.160   8.182   4.474
 1267SOL     OW 5639  10.321  11.042  12.650
 1267SOL    HW1 5640  10.399  11.009  12.694
 1267SOL    HW2 5641  10.254  11.043  12.717
 1268SOL     OW 5642  10.928  10.133   5.257
 1268SOL    HW1 5643  10.880  10.216   5.257
 1268SOL    HW2 5644  10.878  10.077   5.317
 1269SOL     OW 5645  13.812  14.310   0.073
 1269SOL    HW1 5646  13.717  14.295   0.071
 1269SOL    HW2 5647  13.838  14.311  14.857
 1270SOL     OW 5648  10.645   0.414   1.173
 1270SOL    HW1 5649  10.569   0.366   1.138
 1270SOL    HW2 5650  10.606   0.487   1.221
 1271SOL     OW 5651   9.461   6.909   5.233
 1271SOL    HW1 5652   9.547   6.949   5.227
 1271SOL    HW2 5653   9.406   6.959   5.172
 1272SOL     OW 5654   7.260   4.665   6.026
 1272SOL    HW1 5655   7.338   4.679   5.973
 1272SOL    HW2 5656   7.280   4.704   6.111
 1273SOL     OW 5657   5.721   0.973   9.263
 1273SOL    HW1 5658   5.773   1.024   9.325
 1273SOL    HW2 5659   5.654   0.930   9.317
 1274SOL     OW 5660  14.130   5.851  13.991
 1274SOL    HW1 5661  14.131   5.946  13.998
 1274SOL    HW2 5662  14.166   5.820  14.074
 1275SOL     OW 5663  13.900   0.363   1.326
 1275SOL    HW1 5664  13.867   0.276   1.351
 1275SOL    HW2 5665  13.853   0.423   1.385
 1276SOL     OW 5666   2.031   3.369   8.319
 1276SOL    HW1 5667   2.020   3.457   8.284
 1276SOL    HW2 5668   1.958   3.319   8.281
 1277SOL     OW 5669   6.839   1.896   7.084
 1277SOL    HW1 5670   6.884   1.954   7.145
 1277SOL    HW2 5671   6.899   1.887   7.010
 1278SOL     OW 5672  10.114   2.042   3.999
 1278SOL    HW1 5673  10.200   2.000   4.004
 1278SOL    HW2 5674  10.132   2.128   3.960
 1279SOL     OW 5675  12.952  14.573  10.156
 1279SOL    HW1 5676  12.950  14.524  10.074
 1279SOL    HW2 5677  13.019  14.640  10.143
 1280SOL     OW 5678  11.066   0.629   3.451
 1280SOL    HW1 5679  11.061   0.547   3.500
 1280SOL    HW2 5680  10.974   0.654   3.439
 1281SOL     OW 5681  11.439   7.393   8.863
 1281SOL    HW1 5682  11.482   7.403   8.948
 1281SOL    HW2 5683  11.427   7.299   8.853
 1282SOL     OW 5684   6.428  12.895   5.109
 1282SOL    HW1 5685   6.395  12.810   5.140
 1282SOL    HW2 5686   6.399  12.900   5.018
 1283SOL     OW 5687   0.681  13.383   3.224
 1283SOL    HW1 5688   0.758  13.384   3.282
 1283SOL    HW2 5689   0.662  13.290   3.211
 1284SOL     OW 5690   7.220   5.276  14.821
 1284SOL    HW1 5691   7.244   5.315  14.737
 1284SOL    HW2 5692   7.127   5.254  14.811
 1285SOL     OW 5693   5.201   5.389  14.283
 1285SOL    HW1 5694   5.170   5.331  14.214
 1285SOL    HW2 5695   5.292   5.406  14.261
 1286SOL     OW 5696  13.325   3.852   2.248
 1286SOL    HW1 5697  13.307   3.896   2.331
 1286SOL    HW2 5698  13.386   3.781   2.272
 1287SOL     OW 5699   7.581   4.760  11.557
 1287SOL    HW1 5700   7.675   4.744  11.570
 1287SOL    HW2 5701   7.576   4.855  11.543
 1288SOL     OW 5702   9.691   8.862  12.271
 1288SOL    HW1 5703   9.705   8.954  12.248
 1288SOL    HW2 5704   9.665   8.864  12.363
 1289SOL     OW 5705   6.643   9.466   7.772
 1289SOL    HW1 5706   6.693   9.429   7.845
 1289SOL    HW2 5707   6.552   9.455   7.798
 1290SOL     OW 5708   0.750  12.384  13.985
 1290SOL    HW1 5709   0.731  12.413  13.896
 1290SOL    HW2 5710   0.841  12.355  13.982
 1291SOL     OW 5711  10.915   9.551  10.046
 1291SOL    HW1 5712  10.898   9.457  10.051
 1291SOL    HW2 5713  10.837   9.592  10.083
 1292SOL     OW 5714   9.951   7.117  12.584
 1292SOL    HW1 5715   9.929   7.025  12.600
 1292SOL    HW2 5716   9.933   7.160  12.668
 1293SOL     OW 5717   5.980   5.792   8.517
 1293SOL    HW1 5718   5.896   5.839   8.522
 1293SOL    HW2 5719   6.008   5.784   8.608
 1294SOL     OW 5720   9.110   2.806   7.487
 1294SOL    HW1 5721   9.202   2.826   7.499
 1294SOL    HW2 5722   9.109   2.721   7.443
 1295SOL     OW 5723   9.997   4.217   5.046
 1295SOL    HW1 5724   9.928   4.153   5.065
 1295SOL    HW2 5725   9.981   4.288   5.109
 1296SOL     OW 5726  13.201   0.454   3.055
 1296SOL    HW1 5727  13.183   0.372   3.101
 1296SOL    HW2 5728  13.286   0.482   3.088
 1297SOL     OW 5729   7.479   8.134   1.724
 1297SOL    HW1 5730   7.479   8.224   1.759
 1297SOL    HW2 5731   7.475   8.145   1.629
 1298SOL     OW 5732   1.713   4.950   1.254
 1298SOL    HW1 5733   1.647   4.975   1.189
 1298SOL    HW2 5734   1.769   5.027   1.262
 1299SOL     OW 5735   9.873   6.688   1.407
 1299SOL    HW1 5736   9.958   6.730   1.413
 1299SOL    HW2 5737   9.883   6.605   1.452
 1300SOL     OW 5738  14.659  13.776  12.798
 1300SOL    HW1 5739  14.714  13.801  12.724
 1300SOL    HW2 5740  14.641  13.858  12.844
 1301SOL     OW 5741   5.757   0.541   3.809
 1301SOL    HW1 5742   5.667   0.568   3.826
 1301SOL    HW2 5743   5.755   0.446   3.815
 1302SOL     OW 5744  13.304   6.405   6.131
 1302SOL    HW1 5745  13.279   6.381   6.041
 1302SOL    HW2 5746  13.367   6.476   6.120
 1303SOL     OW 5747  13.436   8.897  13.678
 1303SOL    HW1 5748  13.442   8.967  13.743
 1303SOL    HW2 5749  13.469   8.936  13.597
 1304SOL     OW 5750   6.223   2.560  11.052
 1304SOL    HW1 5751   6.185   2.535  10.968
 1304SOL    HW2 5752   6.241   2.654  11.044
 1305SOL     OW 5753   2.276  13.244   2.524
 1305SOL    HW1 5754   2.189  13.249   2.485
 1305SOL    HW2 5755   2.289  13.152   2.543
 1306SOL     OW 5756   4.310  13.949   8.887
 1306SOL    HW1 5757   4.238  13.938   8.824
 1306SOL    HW2 5758   4.296  13.879   8.951
 1307SOL     OW 5759   4.594  12.580   1.800
 1307SOL    HW1 5760   4.654  12.632   1.746
 1307SOL    HW2 5761   4.613  12.606   1.890
 1308SOL     OW 5762   2.685   3.005   6.157
 1308SOL    HW1 5763   2.651   3.088   6.191
 1308SOL    HW2 5764   2.733   2.967   6.231
 1309SOL     OW 5765   3.972   9.799  12.407
 1309SOL    HW1 5766   4.057   9.843  12.399
 1309SOL    HW2 5767   3.973   9.761  12.495
 1310SOL     OW 5768   9.942   3.202  13.887
 1310SOL    HW1 5769   9.947   3.272  13.952
 1310SOL    HW2 5770  10.022   3.151  13.902
 1311SOL     OW 5771   2.585   1.294  10.589
 1311SOL    HW1 5772   2.640   1.363  10.625
 1311SOL    HW2 5773   2.645   1.239  10.539
 1312SOL     OW 5774  11.995  12.175   0.308
 1312SOL    HW1 5775  12.047  12.255   0.312
 1312SOL    HW2 5776  11.946  12.174   0.391
 1313SOL     OW 5777   0.428   8.136   3.619
 1313SOL    HW1 5778   0.363   8.179   3.564
 1313SOL    HW2 5779   0.405   8.161   3.709
 1314SOL     OW 5780  12.768   8.081  11.610
 1314SOL    HW1 5781  12.784   7.987  11.610
 1314SOL    HW2 5782  12.855   8.121  11.616
 1315SOL     OW 5783   0.721   1.304   8.242
 1315SOL    HW1 5784   0.769   1.377   8.204
 1315SOL    HW2 5785   0.788   1.248   8.281
 1316SOL     OW 5786  10.234   2.542   3.212
 1316SOL    HW1 5787  10.147   2.552   3.250
 1316SOL    HW2 5788  10.286   2.501   3.281
 1317SOL     OW 5789   4.177   6.472  14.413
 1317SOL    HW1 5790   4.128   6.517  14.482
 1317SOL    HW2 5791   4.176   6.380  14.439
 1318SOL     OW 5792   1.575   7.156   4.674
 1318SOL    HW1 5793   1.655   7.131   4.720
 1318SOL    HW2 5794   1.606   7.195   4.592
 1319SOL     OW 5795   0.149  13.179  12.142
 1319SOL    HW1 5796   0.156  13.112  12.211
 1319SOL    HW2 5797   0.237  13.216  12.136
 1320SOL     OW 5798  11.924  12.372   8.497
 1320SOL    HW1 5799  11.961  12.292   8.461
 1320SOL    HW2 5800  11.875  12.344   8.574
 1321SOL     OW 5801   7.081  14.031   4.929
 1321SOL    HW1 5802   7.117  14.045   5.017
 1321SOL    HW2 5803   7.150  14.061   4.870
 1322SOL     OW 5804   0.707   9.858   9.370
 1322SOL    HW1 5805   0.751   9.863   9.286
 1322SOL    HW2 5806   0.617   9.887   9.352
 1323SOL     OW 5807   9.514   6.338  12.834
 1323SOL    HW1 5808   9.430   6.383  12.835
 1323SOL    HW2 5809   9.535   6.324  12.926
 1324SOL     OW 5810   0.003   7.848   8.488
 1324SOL    HW1 5811   0.044   7.762   8.479
 1324SOL    HW2 5812   0.037   7.882   8.570
 1325SOL     OW 5813   8.867   9.577  14.264
 1325SOL    HW1 5814   8.958   9.554  14.284
 1325SOL    HW2 5815   8.864   9.672  14.272
 1326SOL     OW 5816   9.880   0.607   8.695
 1326SOL    HW1 5817   9.786   0.594   8.689
 1326SOL    HW2 5818   9.893   0.652   8.778
 1327SOL     OW 5819  14.615  12.439  12.007
 1327SOL    HW1 5820  14.710  12.429  12.003
 1327SOL    HW2 5821  14.588  12.380  12.077
 1328SOL     OW 5822   3.296   0.844   1.996
 1328SOL    HW1 5823   3.218   0.804   2.034
 1328SOL    HW2 5824   3.367   0.784   2.020
 1329SOL     OW 5825   5.749   4.565   2.772
 1329SOL    HW1 5826   5.826   4.607   2.811
 1329SOL    HW2 5827   5.786   4.496   2.717
 1330SOL     OW 5828   7.032  10.815   8.830
 1330SOL    HW1 5829   7.087  10.793   8.905
 1330SOL    HW2 5830   7.093  10.834   8.760
 1331SOL     OW 5831   4.351   3.416   5.088
 1331SOL    HW1 5832   4.406   3.340   5.068
 1331SOL    HW2 5833   4.412   3.483   5.117
 1332SOL     OW 5834   3.514  14.787   2.081
 1332SOL    HW1 5835   3.561  14.855   2.033
 1332SOL    HW2 5836   3.470  14.736   2.012
 1333SOL     OW 5837   6.278  12.436   5.428
 1333SOL    HW1 5838   6.318  12.454   5.513
 1333SOL    HW2 5839   6.351  12.411   5.372
 1334SOL     OW 5840   6.465   4.313  10.475
 1334SOL    HW1 5841   6.521   4.390  10.476
 1334SOL    HW2 5842   6.418   4.318  10.392
 1335SOL     OW 5843  11.114  13.822   5.021
 1335SOL    HW1 5844  11.040  13.795   4.966
 1335SOL    HW2 5845  11.142  13.741   5.065
 1336SOL     OW 5846   5.002  14.675   0.185
 1336SOL    HW1 5847   5.075  14.614   0.187
 1336SOL    HW2 5848   5.008  14.723   0.267
 1337SOL     OW 5849  12.197   1.083   4.619
 1337SOL    HW1 5850  12.224   1.030   4.544
 1337SOL    HW2 5851  12.112   1.047   4.646
 1338SOL     OW 5852   7.895   4.674   8.696
 1338SOL    HW1 5853   7.815   4.649   8.742
 1338SOL    HW2 5854   7.887   4.633   8.610
 1339SOL     OW 5855   0.070   7.224  11.584
 1339SOL    HW1 5856   0.144   7.225  11.645
 1339SOL    HW2 5857   0.098   7.166  11.513
 1340SOL     OW 5858   6.883   5.639   8.506
 1340SOL    HW1 5859   6.825   5.612   8.434
 1340SOL    HW2 5860   6.825   5.646   8.582
 1341SOL     OW 5861  12.828   4.314   6.246
 1341SOL    HW1 5862  12.913   4.270   6.251
 1341SOL    HW2 5863  12.790   4.304   6.334
 1342SOL     OW 5864   4.259  10.339  13.958
 1342SOL    HW1 5865   4.329  10.296  14.008
 1342SOL    HW2 5866   4.216  10.268  13.912
 1343SOL     OW 5867   2.482  14.282   8.361
 1343SOL    HW1 5868   2.412  14.300   8.424
 1343SOL    HW2 5869   2.515  14.368   8.336
 1344SOL     OW 5870   4.532   8.718   7.784
 1344SOL    HW1 5871   4.545   8.771   7.706
 1344SOL    HW2 5872   4.438   8.718   7.798
 1345SOL     OW 5873   5.729   6.550   3.272
 1345SOL    HW1 5874   5.677   6.497   3.212
 1345SOL    HW2 5875   5.665   6.604   3.319
 1346SOL     OW 5876   0.110   6.948   4.829
 1346SOL    HW1 5877   0.063   6.881   4.877
 1346SOL    HW2 5878   0.097   7.028   4.880
 1347SOL     OW 5879   6.451   2.590   7.334
 1347SOL    HW1 5880   6.417   2.516   7.385
 1347SOL    HW2 5881   6.499   2.643   7.397
 1348SOL     OW 5882   8.803  10.766   1.999
 1348SOL    HW1 5883   8.740  10.758   1.927
 1348SOL    HW2 5884   8.756  10.735   2.076
 1349SOL     OW 5885   3.699   0.252  12.891
 1349SOL    HW1 5886   3.769   0.311  12.919
 1349SOL    HW2 5887   3.693   0.187  12.960
 1350SOL     OW 5888   6.436   5.439   0.449
 1350SOL    HW1 5889   6.443   5.401   0.362
 1350SOL    HW2 5890   6.416   5.365   0.506
 1351SOL     OW 5891  12.053   8.027  13.632
 1351SOL    HW1 5892  12.110   8.101  13.612
 1351SOL    HW2 5893  12.113   7.954  13.651
 1352SOL     OW 5894   1.701  11.957   9.077
 1352SOL    HW1 5895   1.757  12.034   9.069
 1352SOL    HW2 5896   1.617  11.991   9.106
 1353SOL     OW 5897  11.681   5.452   2.180
 1353SOL    HW1 5898  11.727   5.523   2.136
 1353SOL    HW2 5899  11.589   5.474   2.172
 1354SOL     OW 5900  12.246   2.216   7.930
 1354SOL    HW1 5901  12.252   2.197   8.023
 1354SOL    HW2 5902  12.337   2.229   7.902
 1355SOL     OW 5903   4.657  11.398   8.388
 1355SOL    HW1 5904   4.733  11.424   8.440
 1355SOL    HW2 5905   4.667  11.303   8.378
 1356SOL     OW 5906  13.524   6.074  12.177
 1356SOL    HW1 5907  13.533   6.144  12.113
 1356SOL    HW2 5908  13.443   6.029  12.152
 1357SOL     OW 5909   4.620   2.847   8.802
 1357SOL    HW1 5910   4.534   2.848   8.759
 1357SOL    HW2 5911   4.681   2.875   8.734
 1358SOL     OW 5912  13.056   7.127  13.799
 1358SOL    HW1 5913  12.991   7.059  13.813
 1358SOL    HW2 5914  13.023   7.202  13.848
 1359SOL     OW 5915  11.971  14.539   6.456
 1359SOL    HW1 5916  11.887  14.584   6.441
 1359SOL    HW2 5917  11.946  14.450   6.479
 1360SOL     OW 5918   8.864  13.453   6.044
 1360SOL    HW1 5919   8.807  13.507   5.989
 1360SOL    HW2 5920   8.953  13.470   6.012
 1361SOL     OW 5921   1.446  11.784  12.879
 1361SOL    HW1 5922   1.422  11.849  12.813
 1361SOL    HW2 5923   1.364  11.743  12.904
 1362SOL     OW 5924  12.381   6.030   2.613
 1362SOL    HW1 5925  12.457   6.066   2.568
 1362SOL    HW2 5926  12.310   6.092   2.595
 1363SOL     OW 5927   7.131  12.854   1.316
 1363SOL    HW1 5928   7.152  12.888   1.403
 1363SOL    HW2 5929   7.040  12.881   1.301
 1364SOL     OW 5930  13.787   1.371   4.496
 1364SOL    HW1 5931  13.811   1.283   4.525
 1364SOL    HW2 5932  13.764   1.417   4.577
 1365SOL     OW 5933   5.313  13.844   1.820
 1365SOL    HW1 5934   5.311  13.812   1.730
 1365SOL    HW2 5935   5.233  13.895   1.830
 1366SOL     OW 5936   7.916  12.492   9.701
 1366SOL    HW1 5937   7.831  12.465   9.666
 1366SOL    HW2 5938   7.902  12.583   9.730
 1367SOL     OW 5939  11.566   5.873   5.692
 1367SOL    HW1 5940  11.597   5.785   5.713
 1367SOL    HW2 5941  11.643   5.929   5.702
 1368SOL     OW 5942   0.863  12.446  11.372
 1368SOL    HW1 5943   0.888  12.522  11.318
 1368SOL    HW2 5944   0.781  12.416  11.334
 1369SOL     OW 5945   2.522  12.976   2.959
 1369SOL    HW1 5946   2.616  12.958   2.956
 1369SOL    HW2 5947   2.482  12.892   2.982
 1370SOL     OW 5948   7.622   6.178  13.506
 1370SOL    HW1 5949   7.640   6.118  13.579
 1370SOL    HW2 5950   7.620   6.265  13.546
 1371SOL     OW 5951   6.436  11.684   3.542
 1371SOL    HW1 5952   6.408  11.759   3.490
 1371SOL    HW2 5953   6.531  11.683   3.533
 1372SOL     OW 5954   2.807  12.339  11.302
 1372SOL    HW1 5955   2.801  12.350  11.397
 1372SOL    HW2 5956   2.834  12.248  11.290
 1373SOL     OW 5957  11.247   8.147   8.894
 1373SOL    HW1 5958  11.280   8.139   8.804
 1373SOL    HW2 5959  11.290   8.077   8.942
 1374SOL     OW 5960   8.876  14.438  12.330
 1374SOL    HW1 5961   8.790  14.429  12.370
 1374SOL    HW2 5962   8.858  14.455  12.237
 1375SOL     OW 5963   3.345  13.865   9.829
 1375SOL    HW1 5964   3.270  13.844   9.884
 1375SOL    HW2 5965   3.346  13.796   9.762
 1376SOL     OW 5966   3.627   1.232   8.957
 1376SOL    HW1 5967   3.679   1.182   8.894
 1376SOL    HW2 5968   3.573   1.167   9.001
 1377SOL     OW 5969   3.538   8.802   9.636
 1377SOL    HW1 5970   3.448   8.818   9.664
 1377SOL    HW2 5971   3.529   8.756   9.553
 1378SOL     OW 5972  11.698   1.612  10.533
 1378SOL    HW1 5973  11.625   1.672  10.521
 1378SOL    HW2 5974  11.671   1.555  10.605
 1379SOL     OW 5975   3.820  10.460   9.631
 1379SOL    HW1 5976   3.807  10.368   9.607
 1379SOL    HW2 5977   3.901  10.461   9.681
 1380SOL     OW 5978  14.714   8.968   3.778
 1380SOL    HW1 5979  14.635   9.018   3.761
 1380SOL    HW2 5980  14.730   8.978   3.872
 1381SOL     OW 5981  13.302   2.163   2.433
 1381SOL    HW1 5982  13.245   2.158   2.509
 1381SOL    HW2 5983  13.390   2.169   2.469
 1382SOL     OW 5984   5.086   1.307   2.497
 1382SOL    HW1 5985   5.120   1.378   2.442
 1382SOL    HW2 5986   5.077   1.346   2.584
 1383SOL     OW 5987   4.944   6.807   2.749
 1383SOL    HW1 5988   4.906   6.820   2.836
 1383SOL    HW2 5989   4.970   6.715   2.747
 1384SOL     OW 5990   0.087  14.244  13.803
 1384SOL    HW1 5991   0.167  14.256  13.752
 1384SOL    HW2 5992   0.033  14.320  13.781
 1385SOL     OW 5993   0.845   0.202   3.738
 1385SOL    HW1 5994   0.800   0.269   3.790
 1385SOL    HW2 5995   0.858   0.243   3.652
 1386SOL     OW 5996   4.828   1.350  13.973
 1386SOL    HW1 5997   4.781   1.429  14.000
 1386SOL    HW2 5998   4.915   1.360  14.012
 1387SOL     OW 5999   9.897  13.258   1.155
 1387SOL    HW1 6000   9.843  13.252   1.076
 1387SOL    HW2 6001   9.840  13.230   1.226
 1388SOL     OW 6002  10.868  13.812  11.585
 1388SOL    HW1 6003  10.827  13.893  11.615
 1388SOL    HW2 6004  10.890  13.765  11.666
 1389SOL     OW 6005   8.401   1.786   8.560
 1389SOL    HW1 6006   8.407   1.729   8.484
 1389SOL    HW2 6007   8.367   1.730   8.630
 1390SOL     OW 6008   2.896   3.005   7.700
 1390SOL    HW1 6009   2.933   3.055   7.773
 1390SOL    HW2 6010   2.972   2.972   7.653
 1391SOL     OW 6011   6.902  12.069  12.280
 1391SOL    HW1 6012   6.897  12.014  12.358
 1391SOL    HW2 6013   6.922  12.156  12.314
 1392SOL     OW 6014  10.331  13.450   3.136
 1392SOL    HW1 6015  10.267  13.464   3.206
 1392SOL    HW2 6016  10.384  13.376   3.167
 1393SOL     OW 6017   4.748   4.217   7.280
 1393SOL    HW1 6018   4.662   4.210   7.239
 1393SOL    HW2 6019   4.738   4.171   7.364
 1394SOL     OW 6020   5.915   2.525   3.767
 1394SOL    HW1 6021   5.912   2.441   3.814
 1394SOL    HW2 6022   5.837   2.524   3.712
 1395SOL     OW 6023   3.944  10.172   0.459
 1395SOL    HW1 6024   3.937  10.157   0.365
 1395SOL    HW2 6025   3.916  10.089   0.498
 1396SOL     OW 6026   3.226   6.024   3.466
 1396SOL    HW1 6027   3.291   5.994   3.403
 1396SOL    HW2 6028   3.277   6.072   3.531
 1397SOL     OW 6029  10.313   8.754   3.681
 1397SOL    HW1 6030  10.277   8.777   3.767
 1397SOL    HW2 6031  10.406   8.738   3.698
 1398SOL     OW 6032  14.162  12.387   3.878
 1398SOL    HW1 6033  14.177  12.397   3.972
 1398SOL    HW2 6034  14.069  12.369   3.870
 1399SOL     OW 6035   8.230  11.864   4.250
 1399SOL    HW1 6036   8.306  11.918   4.228
 1399SOL    HW2 6037   8.199  11.831   4.165
 1400SOL     OW 6038  13.332   7.157   8.333
 1400SOL    HW1 6039  13.380   7.141   8.414
 1400SOL    HW2 6040  13.335   7.074   8.286
 1401SOL     OW 6041  13.286   2.085  14.545
 1401SOL    HW1 6042  13.246   1.999  14.552
 1401SOL    HW2 6043  13.212   2.146  14.541
 1402SOL     OW 6044   4.117  11.104  10.459
 1402SOL    HW1 6045   4.102  11.197  10.440
 1402SOL    HW2 6046   4.030  11.068  10.473
 1403SOL     OW 6047   0.217   0.238  11.572
 1403SOL    HW1 6048   0.190   0.290  11.648
 1403SOL    HW2 6049   0.289   0.287  11.533
 1404SOL     OW 6050   5.290  13.791  14.592
 1404SOL    HW1 6051   5.280  13.866  14.533
 1404SOL    HW2 6052   5.384  13.786  14.608
 1405SOL     OW 6053  13.075   8.406   4.198
 1405SOL    HW1 6054  13.126   8.362   4.266
 1405SOL    HW2 6055  13.067   8.497   4.229
 1406SOL     OW 6056  14.449   7.122   4.646
 1406SOL    HW1 6057  14.479   7.042   4.689
 1406SOL    HW2 6058  14.448   7.188   4.714
 1407SOL     OW 6059   3.726  11.693  11.981
 1407SOL    HW1 6060   3.728  11.753  12.055
 1407SOL    HW2 6061   3.786  11.623  12.005
 1408SOL     OW 6062  14.301  12.354   0.106
 1408SOL    HW1 6063  14.376  12.295   0.114
 1408SOL    HW2 6064  14.228  12.306   0.147
 1409SOL     OW 6065   1.257   8.813   9.752
 1409SOL    HW1 6066   1.268   8.751   9.825
 1409SOL    HW2 6067   1.334   8.798   9.697
 1410SOL     OW 6068  10.679   0.426   4.830
 1410SOL    HW1 6069  10.635   0.368   4.891
 1410SOL    HW2 6070  10.728   0.487   4.885
 1411SOL     OW 6071   4.464   2.027  13.254
 1411SOL    HW1 6072   4.376   2.028  13.292
 1411SOL    HW2 6073   4.501   2.111  13.278
 1412SOL     OW 6074  12.606   7.792   5.920
 1412SOL    HW1 6075  12.546   7.718   5.907
 1412SOL    HW2 6076  12.658   7.767   5.996
 1413SOL     OW 6077   8.348   1.484   3.638
 1413SOL    HW1 6078   8.414   1.534   3.687
 1413SOL    HW2 6079   8.270   1.539   3.640
 1414SOL     OW 6080   9.913   3.127   8.420
 1414SOL    HW1 6081   9.885   3.089   8.504
 1414SOL    HW2 6082  10.008   3.131   8.426
 1415SOL     OW 6083   6.639   2.907   4.033
 1415SOL    HW1 6084   6.645   2.916   4.128
 1415SOL    HW2 6085   6.564   2.850   4.019
 1416SOL     OW 6086   9.888  11.489  11.380
 1416SOL    HW1 6087   9.919  11.444  11.301
 1416SOL    HW2 6088   9.885  11.581  11.356
 1417SOL     OW 6089   7.510   2.773   8.413
 1417SOL    HW1 6090   7.462   2.766   8.495
 1417SOL    HW2 6091   7.578   2.706   8.419
 1418SOL     OW 6092   1.408   3.370   1.853
 1418SOL    HW1 6093   1.395   3.427   1.777
 1418SOL    HW2 6094   1.451   3.427   1.918
 1419SOL     OW 6095   8.902   7.594  11.896
 1419SOL    HW1 6096   8.862   7.588  11.983
 1419SOL    HW2 6097   8.891   7.685  11.871
 1420SOL     OW 6098   3.570   3.070   2.893
 1420SOL    HW1 6099   3.479   3.056   2.868
 1420SOL    HW2 6100   3.573   3.160   2.925
 1421SOL     OW 6101  11.307  13.458   0.925
 1421SOL    HW1 6102  11.232  13.414   0.884
 1421SOL    HW2 6103  11.377  13.452   0.860
 1422SOL     OW 6104   7.256   1.986   8.704
 1422SOL    HW1 6105   7.224   2.070   8.670
 1422SOL    HW2 6106   7.334   1.968   8.651
 1423SOL     OW 6107   3.879   7.206   8.187
 1423SOL    HW1 6108   3.915   7.129   8.144
 1423SOL    HW2 6109   3.870   7.271   8.117
 1424SOL     OW 6110  10.534  13.271   3.352
 1424SOL    HW1 6111  10.553  13.219   3.430
 1424SOL    HW2 6112  10.558  13.360   3.376
 1425SOL     OW 6113   9.987   3.624   1.841
 1425SOL    HW1 6114   9.989   3.639   1.936
 1425SOL    HW2 6115   9.963   3.532   1.832
 1426SOL     OW 6116   3.667   6.246  11.354
 1426SOL    HW1 6117   3.692   6.156  11.334
 1426SOL    HW2 6118   3.665   6.290  11.269
 1427SOL     OW 6119   9.320  10.368  11.502
 1427SOL    HW1 6120   9.396  10.314  11.481
 1427SOL    HW2 6121   9.320  10.373  11.598
 1428SOL     OW 6122  13.687   5.502  12.377
 1428SOL    HW1 6123  13.725   5.427  12.331
 1428SOL    HW2 6124  13.725   5.498  12.465
 1429SOL     OW 6125  12.364  10.366  11.521
 1429SOL    HW1 6126  12.272  10.362  11.546
 1429SOL    HW2 6127  12.401  10.285  11.557
 1430SOL     OW 6128   6.173   0.162  13.992
 1430SOL    HW1 6129   6.205   0.078  13.958
 1430SOL    HW2 6130   6.165   0.218  13.915
 1431SOL     OW 6131   7.284   2.836  14.141
 1431SOL    HW1 6132   7.329   2.854  14.058
 1431SOL    HW2 6133   7.354   2.828  14.205
 1432SOL     OW 6134  12.759   9.895   2.307
 1432SOL    HW1 6135  12.678   9.946   2.306
 1432SOL    HW2 6136  12.821   9.949   2.356
 1433SOL     OW 6137  13.981  13.333   8.624
 1433SOL    HW1 6138  14.069  13.337   8.588
 1433SOL    HW2 6139  13.923  13.340   8.548
 1434SOL     OW 6140   5.115  12.100   2.848
 1434SOL    HW1 6141   5.121  12.137   2.936
 1434SOL    HW2 6142   5.057  12.025   2.858
 1435SOL     OW 6143  13.017   9.816  13.024
 1435SOL    HW1 6144  13.076   9.742  13.032
 1435SOL    HW2 6145  13.052   9.882  13.083
 1436SOL     OW 6146   3.101   4.882   0.740
 1436SOL    HW1 6147   3.116   4.940   0.814
 1436SOL    HW2 6148   3.125   4.933   0.663
 1437SOL     OW 6149  14.660   3.042   9.660
 1437SOL    HW1 6150  14.636   2.950   9.670
 1437SOL    HW2 6151  14.663   3.076   9.750
 1438SOL     OW 6152   6.497   6.307   2.685
 1438SOL    HW1 6153   6.488   6.396   2.719
 1438SOL    HW2 6154   6.544   6.260   2.753
 1439SOL     OW 6155  13.356   9.894   1.372
 1439SOL    HW1 6156  13.330   9.830   1.305
 1439SOL    HW2 6157  13.443   9.923   1.345
 1440SOL     OW 6158   9.917   3.569  13.455
 1440SOL    HW1 6159   9.837   3.622  13.454
 1440SOL    HW2 6160   9.950   3.574  13.365
 1441SOL     OW 6161  13.273   0.374  13.799
 1441SOL    HW1 6162  13.235   0.398  13.883
 1441SOL    HW2 6163  13.356   0.422  13.795
 1442SOL     OW 6164   6.915  11.760   2.518
 1442SOL    HW1 6165   6.833  11.796   2.482
 1442SOL    HW2 6166   6.890  11.674   2.552
 1443SOL     OW 6167  11.399   6.843  13.025
 1443SOL    HW1 6168  11.366   6.879  12.942
 1443SOL    HW2 6169  11.494   6.846  13.016
 1444SOL     OW 6170   6.461   0.427  10.410
 1444SOL    HW1 6171   6.460   0.429  10.506
 1444SOL    HW2 6172   6.534   0.482  10.385
 1445SOL     OW 6173   3.150   0.132   5.606
 1445SOL    HW1 6174   3.155   0.149   5.700
 1445SOL    HW2 6175   3.157   0.218   5.565
 1446SOL     OW 6176  12.134   5.210   3.222
 1446SOL    HW1 6177  12.226   5.200   3.244
 1446SOL    HW2 6178  12.128   5.180   3.131
 1447SOL     OW 6179   5.362  10.498   4.283
 1447SOL    HW1 6180   5.296  10.433   4.307
 1447SOL    HW2 6181   5.367  10.492   4.188
 1448SOL     OW 6182  11.632  14.371   3.443
 1448SOL    HW1 6183  11.614  14.392   3.535
 1448SOL    HW2 6184  11.675  14.286   3.445
 1449SOL     OW 6185   8.454   9.353  11.217
 1449SOL    HW1 6186   8.549   9.362  11.217
 1449SOL    HW2 6187   8.421   9.440  11.240
 1450SOL     OW 6188  14.596   1.869   5.668
 1450SOL    HW1 6189  14.508   1.830   5.667
 1450SOL    HW2 6190  14.654   1.796   5.648
 1451SOL     OW 6191   3.318   9.858   9.632
 1451SOL    HW1 6192   3.277   9.855   9.545
 1451SOL    HW2 6193   3.394   9.800   9.623
 1452SOL     OW 6194   2.483  11.190   8.090
 1452SOL    HW1 6195   2.477  11.171   7.996
 1452SOL    HW2 6196   2.542  11.265   8.095
 1453SOL     OW 6197  13.080   6.459   0.722
 1453SOL    HW1 6198  13.042   6.525   0.663
 1453SOL    HW2 6199  13.100   6.384   0.665
 1454SOL     OW 6200  11.815   5.729   1.816
 1454SOL    HW1 6201  11.805   5.665   1.745
 1454SOL    HW2 6202  11.756   5.800   1.792
 1455SOL     OW 6203   9.816  11.922  14.109
 1455SOL    HW1 6204   9.780  11.839  14.139
 1455SOL    HW2 6205   9.893  11.898  14.057
 1456SOL     OW 6206   0.555  11.995   1.451
 1456SOL    HW1 6207   0.496  11.920   1.446
 1456SOL    HW2 6208   0.621  11.969   1.515
 1457SOL     OW 6209  12.411  11.383   4.992
 1457SOL    HW1 6210  12.478  11.426   4.938
 1457SOL    HW2 6211  12.442  11.395   5.082
 1458SOL     OW 6212   9.332   7.455  10.978
 1458SOL    HW1 6213   9.315   7.549  10.965
 1458SOL    HW2 6214   9.381   7.429  10.899
 1459SOL     OW 6215   3.581   2.039   1.876
 1459SOL    HW1 6216   3.603   1.974   1.810
 1459SOL    HW2 6217   3.532   2.106   1.828
 1460SOL     OW 6218  10.606  14.585   5.557
 1460SOL    HW1 6219  10.536  14.562   5.619
 1460SOL    HW2 6220  10.687  14.570   5.606
 1461SOL     OW 6221   1.192   0.586  14.835
 1461SOL    HW1 6222   1.265   0.534  14.803
 1461SOL    HW2 6223   1.224   0.624   0.040
 1462SOL     OW 6224   0.572  13.898  11.035
 1462SOL    HW1 6225   0.516  13.824  11.011
 1462SOL    HW2 6226   0.636  13.904  10.964
 1463SOL     OW 6227  10.171   6.103   9.295
 1463SOL    HW1 6228  10.138   6.014   9.310
 1463SOL    HW2 6229  10.265   6.092   9.281
 1464SOL     OW 6230  10.126   0.936  14.563
 1464SOL    HW1 6231  10.083   0.857  14.532
 1464SOL    HW2 6232  10.154   0.915  14.651
 1465SOL     OW 6233  11.927   4.111   5.589
 1465SOL    HW1 6234  11.923   4.169   5.665
 1465SOL    HW2 6235  11.843   4.122   5.545
 1466SOL     OW 6236   1.825   7.126  13.529
 1466SOL    HW1 6237   1.812   7.200  13.469
 1466SOL    HW2 6238   1.745   7.075  13.521
 1467SOL     OW 6239   4.286   9.798   3.895
 1467SOL    HW1 6240   4.200   9.789   3.935
 1467SOL    HW2 6241   4.294   9.719   3.840
 1468SOL     OW 6242   1.729   3.313   6.297
 1468SOL    HW1 6243   1.732   3.407   6.278
 1468SOL    HW2 6244   1.680   3.276   6.223
 1469SOL     OW 6245  14.857  14.336  10.831
 1469SOL    HW1 6246  14.782  14.390  10.855
 1469SOL    HW2 6247  14.842  14.314  10.739
 1470SOL     OW 6248   2.440   5.148   2.539
 1470SOL    HW1 6249   2.481   5.097   2.470
 1470SOL    HW2 6250   2.494   5.227   2.546
 1471SOL     OW 6251   1.464   4.522   3.499
 1471SOL    HW1 6252   1.384   4.574   3.491
 1471SOL    HW2 6253   1.533   4.578   3.463
 1472SOL     OW 6254   6.501   7.233  11.660
 1472SOL    HW1 6255   6.548   7.159  11.620
 1472SOL    HW2 6256   6.508   7.218  11.754
 1473SOL     OW 6257   4.746   5.341  10.232
 1473SOL    HW1 6258   4.811   5.406  10.206
 1473SOL    HW2 6259   4.664   5.373  10.194
 1474SOL     OW 6260   5.784   4.172   2.222
 1474SOL    HW1 6261   5.759   4.127   2.141
 1474SOL    HW2 6262   5.880   4.175   2.220
 1475SOL     OW 6263   0.663   1.748   3.207
 1475SOL    HW1 6264   0.624   1.833   3.184
 1475SOL    HW2 6265   0.680   1.755   3.301
 1476SOL     OW 6266   2.239   3.910  14.533
 1476SOL    HW1 6267   2.242   3.999  14.570
 1476SOL    HW2 6268   2.161   3.870  14.573
 1477SOL     OW 6269   6.269   2.563  14.156
 1477SOL    HW1 6270   6.250   2.656  14.151
 1477SOL    HW2 6271   6.357   2.554  14.118
 1478SOL     OW 6272  14.616   8.276   4.549
 1478SOL    HW1 6273  14.662   8.196   4.525
 1478SOL    HW2 6274  14.667   8.346   4.508
 1479SOL     OW 6275   9.388   4.024   2.487
 1479SOL    HW1 6276   9.463   4.027   2.427
 1479SOL    HW2 6277   9.410   4.088   2.555
 1480SOL     OW 6278   9.435   6.846  13.496
 1480SOL    HW1 6279   9.479   6.782  13.440
 1480SOL    HW2 6280   9.343   6.818  13.496
 1481SOL     OW 6281   0.515  14.062  12.494
 1481SOL    HW1 6282   0.598  14.054  12.541
 1481SOL    HW2 6283   0.482  13.972  12.488
 1482SOL     OW 6284  14.462   1.054  11.067
 1482SOL    HW1 6285  14.465   0.959  11.079
 1482SOL    HW2 6286  14.549   1.085  11.091
 1483SOL     OW 6287   7.161   8.925  14.794
 1483SOL    HW1 6288   7.080   8.960  14.758
 1483SOL    HW2 6289   7.152   8.830  14.784
 1484SOL     OW 6290   1.033   6.448   7.066
 1484SOL    HW1 6291   1.010   6.531   7.107
 1484SOL    HW2 6292   1.127   6.456   7.046
 1485SOL     OW 6293  13.018  10.737   2.905
 1485SOL    HW1 6294  13.036  10.763   2.815
 1485SOL    HW2 6295  13.025  10.817   2.956
 1486SOL     OW 6296   2.850   2.572  11.114
 1486SOL    HW1 6297   2.786   2.612  11.055
 1486SOL    HW2 6298   2.910   2.643  11.137
 1487SOL     OW 6299  13.252   7.627  10.194
 1487SOL    HW1 6300  13.254   7.667  10.107
 1487SOL    HW2 6301  13.295   7.692  10.251
 1488SOL     OW 6302   6.629   3.997  11.160
 1488SOL    HW1 6303   6.596   4.054  11.230
 1488SOL    HW2 6304   6.602   4.041  11.079
 1489SOL     OW 6305   0.436   1.282   5.089
 1489SOL    HW1 6306   0.486   1.333   5.025
 1489SOL    HW2 6307   0.479   1.300   5.173
 1490SOL     OW 6308  14.083  13.377  12.970
 1490SOL    HW1 6309  14.044  13.450  12.923
 1490SOL    HW2 6310  14.177  13.384  12.953
 1491SOL     OW 6311   4.653   7.521   2.911
 1491SOL    HW1 6312   4.605   7.482   2.985
 1491SOL    HW2 6313   4.744   7.520   2.940
 1492SOL     OW 6314   5.397  10.001   0.255
 1492SOL    HW1 6315   5.478  10.020   0.303
 1492SOL    HW2 6316   5.425   9.943   0.184
 1493SOL     OW 6317   0.615   3.956   2.504
 1493SOL    HW1 6318   0.562   4.033   2.521
 1493SOL    HW2 6319   0.676   3.982   2.435
 1494SOL     OW 6320  14.206   7.961   2.416
 1494SOL    HW1 6321  14.130   8.019   2.406
 1494SOL    HW2 6322  14.282   8.019   2.403
 1495SOL     OW 6323   5.444   8.312   5.960
 1495SOL    HW1 6324   5.521   8.367   5.944
 1495SOL    HW2 6325   5.461   8.232   5.911
 1496SOL     OW 6326   8.703   5.071   7.564
 1496SOL    HW1 6327   8.752   5.037   7.489
 1496SOL    HW2 6328   8.618   5.028   7.558
 1497SOL     OW 6329  11.486   3.071   2.633
 1497SOL    HW1 6330  11.580   3.087   2.639
 1497SOL    HW2 6331  11.479   2.983   2.596
 1498SOL     OW 6332   4.011  10.911   0.984
 1498SOL    HW1 6333   4.054  10.826   0.986
 1498SOL    HW2 6334   3.921  10.893   0.957
 1499SOL     OW 6335  14.800   6.599  14.328
 1499SOL    HW1 6336  14.712   6.637  14.327
 1499SOL    HW2 6337  14.847   6.651  14.394
 1500SOL     OW 6338   4.480   1.296   6.241
 1500SOL    HW1 6339   4.394   1.328   6.214
 1500SOL    HW2 6340   4.529   1.375   6.264
 1501SOL     OW 6341   1.554   1.774   5.420
 1501SOL    HW1 6342   1.568   1.867   5.438
 1501SOL    HW2 6343   1.461   1.766   5.402
 1502SOL     OW 6344   5.745  10.189   7.245
 1502SOL    HW1 6345   5.769  10.266   7.297
 1502SOL    HW2 6346   5.753  10.116   7.306
 1503SOL     OW 6347   2.950  11.669   9.855
 1503SOL    HW1 6348   2.887  11.729   9.815
 1503SOL    HW2 6349   2.909  11.583   9.848
 1504SOL     OW 6350   0.809  12.964   7.953
 1504SOL    HW1 6351   0.764  12.881   7.935
 1504SOL    HW2 6352   0.810  13.009   7.869
 1505SOL     OW 6353   9.607  13.379  10.770
 1505SOL    HW1 6354   9.647  13.314  10.828
 1505SOL    HW2 6355   9.537  13.417  10.822
 1506SOL     OW 6356   0.249   4.577  10.982
 1506SOL    HW1 6357   0.173   4.621  10.943
 1506SOL    HW2 6358   0.313   4.572  10.911
 1507SOL     OW 6359   9.609   4.514   3.438
 1507SOL    HW1 6360   9.542   4.582   3.444
 1507SOL    HW2 6361   9.589   4.454   3.510
 1508SOL     OW 6362  11.443  13.858   7.812
 1508SOL    HW1 6363  11.475  13.943   7.781
 1508SOL    HW2 6364  11.515  13.821   7.862
 1509SOL     OW 6365   4.104   4.645   0.846
 1509SOL    HW1 6366   4.152   4.589   0.785
 1509SOL    HW2 6367   4.113   4.733   0.809
 1510SOL     OW 6368   2.912   4.847   7.924
 1510SOL    HW1 6369   2.896   4.762   7.965
 1510SOL    HW2 6370   2.929   4.907   7.996
 1511SOL     OW 6371  12.945   2.826   4.650
 1511SOL    HW1 6372  13.021   2.825   4.709
 1511SOL    HW2 6373  12.982   2.828   4.562
 1512SOL     OW 6374  13.771   0.974   1.752
 1512SOL    HW1 6375  13.775   1.041   1.683
 1512SOL    HW2 6376  13.713   1.011   1.818
 1513SOL     OW 6377   0.609  12.693   2.086
 1513SOL    HW1 6378   0.554  12.666   2.012
 1513SOL    HW2 6379   0.638  12.782   2.063
 1514SOL     OW 6380   9.481   3.648   8.765
 1514SOL    HW1 6381   9.436   3.701   8.700
 1514SOL    HW2 6382   9.559   3.614   8.720
 1515SOL     OW 6383   2.096  11.859   8.880
 1515SOL    HW1 6384   2.116  11.765   8.877
 1515SOL    HW2 6385   2.102  11.888   8.790
 1516SOL     OW 6386  12.852   7.157   2.614
 1516SOL    HW1 6387  12.758   7.140   2.625
 1516SOL    HW2 6388  12.881   7.186   2.701
 1517SOL     OW 6389   3.692  13.257   5.243
 1517SOL    HW1 6390   3.729  13.168   5.242
 1517SOL    HW2 6391   3.626  13.256   5.173
 1518SOL     OW 6392   0.119   7.326   1.692
 1518SOL    HW1 6393   0.030   7.291   1.695
 1518SOL    HW2 6394   0.108   7.421   1.688
 1519SOL     OW 6395   5.524  10.680   0.885
 1519SOL    HW1 6396   5.454  10.695   0.821
 1519SOL    HW2 6397   5.534  10.585   0.888
 1520SOL     OW 6398  14.486   5.345  10.811
 1520SOL    HW1 6399  14.562   5.311  10.763
 1520SOL    HW2 6400  14.416   5.348  10.746
 1521SOL     OW 6401   4.162   0.431   4.871
 1521SOL    HW1 6402   4.174   0.517   4.911
 1521SOL    HW2 6403   4.212   0.371   4.927
 1522SOL     OW 6404   5.339   7.152  10.948
 1522SOL    HW1 6405   5.254   7.129  10.985
 1522SOL    HW2 6406   5.392   7.073  10.958
 1523SOL     OW 6407   0.747   7.154  14.329
 1523SOL    HW1 6408   0.721   7.212  14.402
 1523SOL    HW2 6409   0.787   7.213  14.265
 1524SOL     OW 6410   5.972   9.017   5.575
 1524SOL    HW1 6411   5.999   9.072   5.502
 1524SOL    HW2 6412   5.884   9.047   5.598
 1525SOL     OW 6413   5.211  11.938  11.456
 1525SOL    HW1 6414   5.259  11.867  11.413
 1525SOL    HW2 6415   5.273  12.011  11.457
 1526SOL     OW 6416   1.496   4.536   8.653
 1526SOL    HW1 6417   1.523   4.476   8.721
 1526SOL    HW2 6418   1.422   4.584   8.691
 1527SOL     OW 6419   8.823   7.991   0.015
 1527SOL    HW1 6420   8.796   8.043  14.815
 1527SOL    HW2 6421   8.895   8.041   0.054
 1528SOL     OW 6422  14.412   4.425   8.789
 1528SOL    HW1 6423  14.438   4.350   8.736
 1528SOL    HW2 6424  14.345   4.470   8.737
 1529SOL     OW 6425  13.629  13.934   2.459
 1529SOL    HW1 6426  13.669  13.904   2.541
 1529SOL    HW2 6427  13.697  13.987   2.417
 1530SOL     OW 6428  14.109  11.528  14.255
 1530SOL    HW1 6429  14.054  11.602  14.283
 1530SOL    HW2 6430  14.104  11.466  14.327
 1531SOL     OW 6431  11.667   2.297   1.048
 1531SOL    HW1 6432  11.641   2.253   0.967
 1531SOL    HW2 6433  11.740   2.353   1.022
 1532SOL     OW 6434   4.155   5.827   4.981
 1532SOL    HW1 6435   4.228   5.816   4.920
 1532SOL    HW2 6436   4.102   5.748   4.971
 1533SOL     OW 6437  11.839  13.906   2.612
 1533SOL    HW1 6438  11.872  13.947   2.532
 1533SOL    HW2 6439  11.818  13.816   2.586
 1534SOL     OW 6440   9.561   7.980  12.573
 1534SOL    HW1 6441   9.647   7.956  12.608
 1534SOL    HW2 6442   9.546   7.917  12.502
 1535SOL     OW 6443  14.555   1.861  14.684
 1535SOL    HW1 6444  14.541   1.782  14.631
 1535SOL    HW2 6445  14.469   1.881  14.721
 1536SOL     OW 6446   9.645   3.605   1.952
 1536SOL    HW1 6447   9.670   3.694   1.924
 1536SOL    HW2 6448   9.726   3.566   1.983
 1537SOL     OW 6449   6.839   2.652  14.705
 1537SOL    HW1 6450   6.884   2.708  14.769
 1537SOL    HW2 6451   6.758   2.700  14.685
 1538SOL     OW 6452   8.875   3.553  12.156
 1538SOL    HW1 6453   8.930   3.576  12.081
 1538SOL    HW2 6454   8.937   3.539  12.227
 1539SOL     OW 6455   5.129   5.288   2.695
 1539SOL    HW1 6456   5.115   5.276   2.601
 1539SOL    HW2 6457   5.067   5.356   2.720
 1540SOL     OW 6458  14.295   1.965  12.628
 1540SOL    HW1 6459  14.227   1.901  12.604
 1540SOL    HW2 6460  14.351   1.918  12.689
 1541SOL     OW 6461   5.600   0.572   5.749
 1541SOL    HW1 6462   5.693   0.591   5.760
 1541SOL    HW2 6463   5.592   0.541   5.658
 1542SOL     OW 6464   0.638   0.637   1.658
 1542SOL    HW1 6465   0.585   0.558   1.645
 1542SOL    HW2 6466   0.592   0.706   1.610
 1543SOL     OW 6467  12.513  14.408  10.091
 1543SOL    HW1 6468  12.491  14.355  10.015
 1543SOL    HW2 6469  12.590  14.366  10.129
 1544SOL     OW 6470   5.068   9.864   7.188
 1544SOL    HW1 6471   5.109   9.908   7.113
 1544SOL    HW2 6472   5.049   9.776   7.157
 1545SOL     OW 6473   8.325   1.983   1.469
 1545SOL    HW1 6474   8.327   2.006   1.562
 1545SOL    HW2 6475   8.244   2.022   1.437
 1546SOL     OW 6476   8.375   5.408   2.655
 1546SOL    HW1 6477   8.366   5.315   2.678
 1546SOL    HW2 6478   8.307   5.452   2.705
 1547SOL     OW 6479   7.426   7.660   6.500
 1547SOL    HW1 6480   7.426   7.564   6.501
 1547SOL    HW2 6481   7.455   7.684   6.588
 1548SOL     OW 6482   4.332   6.815  13.879
 1548SOL    HW1 6483   4.241   6.785  13.871
 1548SOL    HW2 6484   4.331   6.876  13.953
 1549SOL     OW 6485   9.174   7.583  12.041
 1549SOL    HW1 6486   9.082   7.557  12.028
 1549SOL    HW2 6487   9.186   7.658  11.983
 1550SOL     OW 6488   1.002   5.988   8.604
 1550SOL    HW1 6489   1.093   6.012   8.618
 1550SOL    HW2 6490   0.959   6.006   8.687
 1551SOL     OW 6491  12.015   3.541   7.092
 1551SOL    HW1 6492  12.046   3.525   7.181
 1551SOL    HW2 6493  12.045   3.630   7.073
 1552SOL     OW 6494   4.986  11.806   2.063
 1552SOL    HW1 6495   4.958  11.855   1.986
 1552SOL    HW2 6496   4.906  11.791   2.112
 1553SOL     OW 6497   4.362   0.304   9.633
 1553SOL    HW1 6498   4.311   0.335   9.708
 1553SOL    HW2 6499   4.299   0.299   9.562
 1554SOL     OW 6500   6.938   5.591   0.649
 1554SOL    HW1 6501   6.980   5.629   0.725
 1554SOL    HW2 6502   6.855   5.557   0.682
 1555SOL     OW 6503   5.448   6.960  14.825
 1555SOL    HW1 6504   5.396   6.998  14.755
 1555SOL    HW2 6505   5.455   7.029   0.015
 1556SOL     OW 6506  11.288  10.373   6.368
 1556SOL    HW1 6507  11.212  10.339   6.416
 1556SOL    HW2 6508  11.353  10.389   6.436
 1557SOL     OW 6509   3.113  11.076  14.501
 1557SOL    HW1 6510   3.194  11.045  14.542
 1557SOL    HW2 6511   3.105  11.024  14.421
 1558SOL     OW 6512   6.432  10.842   5.947
 1558SOL    HW1 6513   6.373  10.917   5.937
 1558SOL    HW2 6514   6.380  10.777   5.994
 1559SOL     OW 6515  14.682  12.960   6.034
 1559SOL    HW1 6516  14.619  12.938   5.965
 1559SOL    HW2 6517  14.748  13.014   5.990
 1560SOL     OW 6518  13.517   4.373   4.291
 1560SOL    HW1 6519  13.497   4.301   4.232
 1560SOL    HW2 6520  13.534   4.331   4.375
 1561SOL     OW 6521  13.475   9.540  10.010
 1561SOL    HW1 6522  13.556   9.581   9.981
 1561SOL    HW2 6523  13.428   9.518   9.930
 1562SOL     OW 6524   5.612   0.814  13.043
 1562SOL    HW1 6525   5.630   0.740  12.985
 1562SOL    HW2 6526   5.677   0.880  13.020
 1563SOL     OW 6527   8.387   4.572  11.913
 1563SOL    HW1 6528   8.296   4.550  11.891
 1563SOL    HW2 6529   8.426   4.488  11.937
 1564SOL     OW 6530   4.157   9.655   9.557
 1564SOL    HW1 6531   4.197   9.623   9.638
 1564SOL    HW2 6532   4.090   9.717   9.585
 1565SOL     OW 6533  13.046   7.374   9.246
 1565SOL    HW1 6534  12.981   7.371   9.175
 1565SOL    HW2 6535  13.007   7.432   9.311
 1566SOL     OW 6536   3.968   2.048  10.588
 1566SOL    HW1 6537   4.035   2.040  10.520
 1566SOL    HW2 6538   3.969   1.964  10.633
 1567SOL     OW 6539  12.333  11.004   9.969
 1567SOL    HW1 6540  12.243  11.023   9.944
 1567SOL    HW2 6541  12.328  10.923  10.020
 1568SOL     OW 6542  10.196   6.325  10.826
 1568SOL    HW1 6543  10.221   6.384  10.755
 1568SOL    HW2 6544  10.276   6.278  10.848
 1569SOL     OW 6545   4.385  12.523   8.907
 1569SOL    HW1 6546   4.373  12.530   8.812
 1569SOL    HW2 6547   4.314  12.467   8.937
 1570SOL     OW 6548   0.495   0.963  13.546
 1570SOL    HW1 6549   0.492   0.871  13.521
 1570SOL    HW2 6550   0.545   1.005  13.476
 1571SOL     OW 6551   4.428   7.667   5.935
 1571SOL    HW1 6552   4.440   7.760   5.919
 1571SOL    HW2 6553   4.348   7.644   5.889
 1572SOL     OW 6554   0.937   2.572   2.276
 1572SOL    HW1 6555   0.957   2.573   2.183
 1572SOL    HW2 6556   1.023   2.574   2.319
 1573SOL     OW 6557   6.180   0.440  10.128
 1573SOL    HW1 6558   6.195   0.349  10.153
 1573SOL    HW2 6559   6.166   0.486  10.211
 1574SOL     OW 6560  10.328  11.481   8.854
 1574SOL    HW1 6561  10.391  11.464   8.784
 1574SOL    HW2 6562  10.363  11.557   8.900
 1575SOL     OW 6563  11.272  11.024  10.301
 1575SOL    HW1 6564  11.315  10.974  10.231
 1575SOL    HW2 6565  11.216  11.085  10.254
 1576SOL     OW 6566  14.047   4.799   1.079
 1576SOL    HW1 6567  14.132   4.828   1.044
 1576SOL    HW2 6568  14.018   4.731   1.018
 1577SOL     OW 6569   4.752   5.634  12.786
 1577SOL    HW1 6570   4.773   5.707  12.727
 1577SOL    HW2 6571   4.775   5.555  12.736
 1578SOL     OW 6572  14.866   3.165   7.613
 1578SOL    HW1 6573   0.064   3.107   7.603
 1578SOL    HW2 6574  14.790   3.110   7.594
 1579SOL     OW 6575   8.400  11.793   5.817
 1579SOL    HW1 6576   8.485  11.756   5.842
 1579SOL    HW2 6577   8.377  11.749   5.735
 1580SOL     OW 6578   9.053   0.104   6.958
 1580SOL    HW1 6579   9.008   0.172   6.908
 1580SOL    HW2 6580   9.129   0.149   6.996
 1581SOL     OW 6581   4.825   5.114   0.075
 1581SOL    HW1 6582   4.890   5.164   0.025
 1581SOL    HW2 6583   4.868   5.095   0.158
 1582SOL     OW 6584   5.895  13.291   0.452
 1582SOL    HW1 6585   5.940  13.263   0.531
 1582SOL    HW2 6586   5.822  13.230   0.443
 1583SOL     OW 6587  10.877  14.833  10.521
 1583SOL    HW1 6588  10.945  14.836  10.588
 1583SOL    HW2 6589  10.912  14.777  10.453
 1584SOL     OW 6590   6.190  14.669   2.398
 1584SOL    HW1 6591   6.208  14.578   2.376
 1584SOL    HW2 6592   6.185  14.670   2.494
 1585SOL     OW 6593   3.900   2.437  14.714
 1585SOL    HW1 6594   3.977   2.472  14.760
 1585SOL    HW2 6595   3.915   2.459  14.622
 1586SOL     OW 6596  12.696   0.792  13.339
 1586SOL    HW1 6597  12.671   0.765  13.251
 1586SOL    HW2 6598  12.657   0.726  13.396
 1587SOL     OW 6599   5.375   6.256  10.389
 1587SOL    HW1 6600   5.283   6.232  10.392
 1587SOL    HW2 6601   5.406   6.225  10.304
 1588SOL     OW 6602   3.884  12.415  10.797
 1588SOL    HW1 6603   3.921  12.441  10.881
 1588SOL    HW2 6604   3.959  12.412  10.737
 1589SOL     OW 6605   5.743   4.567  12.964
 1589SOL    HW1 6606   5.763   4.655  12.995
 1589SOL    HW2 6607   5.648   4.564  12.960
 1590SOL     OW 6608   6.787  12.544   4.616
 1590SOL    HW1 6609   6.849  12.507   4.678
 1590SOL    HW2 6610   6.708  12.490   4.625
 1591SOL     OW 6611   0.436   2.053  13.605
 1591SOL    HW1 6612   0.420   2.147  13.602
 1591SOL    HW2 6613   0.401   2.020  13.522
 1592SOL     OW 6614  10.295   8.823   7.216
 1592SOL    HW1 6615  10.227   8.865   7.268
 1592SOL    HW2 6616  10.368   8.885   7.217
 1593SOL     OW 6617  14.855   1.496   1.844
 1593SOL    HW1 6618  14.783   1.550   1.877
 1593SOL    HW2 6619  14.866   1.427   1.909
 1594SOL     OW 6620   2.704  10.629  13.701
 1594SOL    HW1 6621   2.635  10.565  13.684
 1594SOL    HW2 6622   2.785  10.580  13.684
 1595SOL     OW 6623  10.207  10.096   6.898
 1595SOL    HW1 6624  10.142  10.158   6.931
 1595SOL    HW2 6625  10.270  10.086   6.969
 1596SOL     OW 6626  11.723  12.476   4.087
 1596SOL    HW1 6627  11.818  12.489   4.078
 1596SOL    HW2 6628  11.715  12.403   4.149
 1597SOL     OW 6629   7.584  13.401  10.106
 1597SOL    HW1 6630   7.598  13.483  10.060
 1597SOL    HW2 6631   7.494  13.406  10.138
 1598SOL     OW 6632   3.015  11.147  13.920
 1598SOL    HW1 6633   3.084  11.149  13.986
 1598SOL    HW2 6634   3.009  11.237  13.887
 1599SOL     OW 6635   7.467   6.260   1.992
 1599SOL    HW1 6636   7.385   6.227   1.955
 1599SOL    HW2 6637   7.452   6.354   2.001
 1600SOL     OW 6638   0.520   5.464  10.141
 1600SOL    HW1 6639   0.509   5.515  10.061
 1600SOL    HW2 6640   0.467   5.385  10.126
 1601SOL     OW 6641  10.847   3.787   4.173
 1601SOL    HW1 6642  10.754   3.804   4.155
 1601SOL    HW2 6643  10.846   3.706   4.224
 1602SOL     OW 6644  14.118   9.369  14.104
 1602SOL    HW1 6645  14.207   9.343  14.082
 1602SOL    HW2 6646  14.107   9.454  14.062
 1603SOL     OW 6647  13.564   4.958   5.752
 1603SOL    HW1 6648  13.646   4.910   5.762
 1603SOL    HW2 6649  13.590   5.042   5.715
 1604SOL     OW 6650  14.785   4.924  10.826
 1604SOL    HW1 6651  14.846   4.867  10.873
 1604SOL    HW2 6652  14.802   5.011  10.860
 1605SOL     OW 6653   8.962  11.457  13.221
 1605SOL    HW1 6654   8.901  11.392  13.186
 1605SOL    HW2 6655   8.925  11.482  13.306
 1606SOL     OW 6656  14.671   7.956   9.591
 1606SOL    HW1 6657  14.614   7.999   9.527
 1606SOL    HW2 6658  14.695   7.873   9.550
 1607SOL     OW 6659  13.443   6.734  13.941
 1607SOL    HW1 6660  13.348   6.721  13.943
 1607SOL    HW2 6661  13.454   6.829  13.948
 1608SOL     OW 6662   6.651   6.480   1.897
 1608SOL    HW1 6663   6.692   6.503   1.980
 1608SOL    HW2 6664   6.607   6.397   1.914
 1609SOL     OW 6665   2.504  11.847   3.079
 1609SOL    HW1 6666   2.594  11.818   3.075
 1609SOL    HW2 6667   2.490  11.895   2.997
 1610SOL     OW 6668   6.747   6.798   9.698
 1610SOL    HW1 6669   6.811   6.869   9.696
 1610SOL    HW2 6670   6.760   6.752   9.615
 1611SOL     OW 6671   4.013  13.181   4.358
 1611SOL    HW1 6672   3.945  13.141   4.305
 1611SOL    HW2 6673   4.094  13.138   4.330
 1612SOL     OW 6674  14.529   4.956   8.295
 1612SOL    HW1 6675  14.491   4.990   8.214
 1612SOL    HW2 6676  14.604   4.904   8.267
 1613SOL     OW 6677   0.905  14.165   8.751
 1613SOL    HW1 6678   0.887  14.078   8.788
 1613SOL    HW2 6679   0.818  14.202   8.736
 1614SOL     OW 6680   2.296  10.605  10.185
 1614SOL    HW1 6681   2.213  10.651  10.195
 1614SOL    HW2 6682   2.273  10.522  10.144
 1615SOL     OW 6683  14.859  14.266   8.967
 1615SOL    HW1 6684  14.839  14.346   8.919
 1615SOL    HW2 6685  14.775  14.220   8.974
 1616SOL     OW 6686   4.122  10.446   9.187
 1616SOL    HW1 6687   4.099  10.486   9.271
 1616SOL    HW2 6688   4.057  10.377   9.174
 1617SOL     OW 6689   6.022   9.723   7.450
 1617SOL    HW1 6690   6.097   9.681   7.407
 1617SOL    HW2 6691   6.036   9.817   7.435
 1618SOL     OW 6692   4.779   3.284  14.746
 1618SOL    HW1 6693   4.687   3.266  14.726
 1618SOL    HW2 6694   4.802   3.357  14.688
 1619SOL     OW 6695  13.180   5.556   5.734
 1619SOL    HW1 6696  13.223   5.502   5.667
 1619SOL    HW2 6697  13.252   5.596   5.782
 1620SOL     OW 6698   3.629  10.129  11.325
 1620SOL    HW1 6699   3.665  10.120  11.237
 1620SOL    HW2 6700   3.550  10.074  11.325
 1621SOL     OW 6701   6.783   4.777   9.759
 1621SOL    HW1 6702   6.846   4.718   9.718
 1621SOL    HW2 6703   6.700   4.759   9.714
 1622SOL     OW 6704   3.895  12.120  13.407
 1622SOL    HW1 6705   3.836  12.183  13.367
 1622SOL    HW2 6706   3.848  12.089  13.485
 1623SOL     OW 6707  11.955   0.450   1.447
 1623SOL    HW1 6708  12.018   0.471   1.516
 1623SOL    HW2 6709  12.006   0.401   1.382
 1624SOL     OW 6710   5.705   6.749   0.529
 1624SOL    HW1 6711   5.642   6.686   0.495
 1624SOL    HW2 6712   5.697   6.825   0.472
 1625SOL     OW 6713  14.657  10.951  14.467
 1625SOL    HW1 6714  14.570  10.911  14.467
 1625SOL    HW2 6715  14.643  11.038  14.428
 1626SOL     OW 6716   5.231   4.181   2.421
 1626SOL    HW1 6717   5.256   4.270   2.448
 1626SOL    HW2 6718   5.266   4.172   2.333
 1627SOL     OW 6719  10.982   5.159   4.902
 1627SOL    HW1 6720  10.918   5.222   4.869
 1627SOL    HW2 6721  10.933   5.102   4.960
 1628SOL     OW 6722  13.547  12.477   3.072
 1628SOL    HW1 6723  13.582  12.513   2.991
 1628SOL    HW2 6724  13.550  12.550   3.134
 1629SOL     OW 6725  10.769   9.016   2.550
 1629SOL    HW1 6726  10.821   9.077   2.602
 1629SOL    HW2 6727  10.775   8.933   2.596
 1630SOL     OW 6728   0.690   2.153   7.974
 1630SOL    HW1 6729   0.605   2.190   7.998
 1630SOL    HW2 6730   0.753   2.224   7.989
 1631SOL     OW 6731  10.914   7.734   6.659
 1631SOL    HW1 6732  10.869   7.737   6.743
 1631SOL    HW2 6733  10.972   7.658   6.666
 1632SOL     OW 6734   9.891  14.805  14.806
 1632SOL    HW1 6735   9.851  14.719  14.820
 1632SOL    HW2 6736   9.829  14.851  14.749
 1633SOL     OW 6737  12.268   3.783  13.953
 1633SOL    HW1 6738  12.279   3.779  14.048
 1633SOL    HW2 6739  12.189   3.835  13.940
 1634SOL     OW 6740   2.500   9.186   7.014
 1634SOL    HW1 6741   2.411   9.175   7.049
 1634SOL    HW2 6742   2.507   9.121   6.944
 1635SOL     OW 6743   4.363  14.427  10.322
 1635SOL    HW1 6744   4.384  14.501  10.379
 1635SOL    HW2 6745   4.389  14.455  10.234
 1636SOL     OW 6746   3.509   3.919   9.620
 1636SOL    HW1 6747   3.519   4.007   9.583
 1636SOL    HW2 6748   3.457   3.871   9.556
 1637SOL     OW 6749   3.191   6.544  14.122
 1637SOL    HW1 6750   3.235   6.510  14.199
 1637SOL    HW2 6751   3.118   6.596  14.157
 1638SOL     OW 6752   0.138   1.497   7.608
 1638SOL    HW1 6753   0.192   1.570   7.638
 1638SOL    HW2 6754   0.081   1.476   7.682
 1639SOL     OW 6755   1.297  11.162   4.808
 1639SOL    HW1 6756   1.256  11.138   4.724
 1639SOL    HW2 6757   1.324  11.253   4.796
 1640SOL     OW 6758   4.193   7.605   5.810
 1640SOL    HW1 6759   4.248   7.528   5.795
 1640SOL    HW2 6760   4.129   7.603   5.739
 1641SOL     OW 6761  11.409   7.078   5.574
 1641SOL    HW1 6762  11.373   7.020   5.507
 1641SOL    HW2 6763  11.391   7.034   5.656
 1642SOL     OW 6764   7.541   5.710   0.031
 1642SOL    HW1 6765   7.551   5.775   0.101
 1642SOL    HW2 6766   7.578   5.753  14.830
 1643SOL     OW 6767   9.518   6.663   7.763
 1643SOL    HW1 6768   9.427   6.674   7.788
 1643SOL    HW2 6769   9.531   6.568   7.760
 1644SOL     OW 6770  12.722  14.545   4.547
 1644SOL    HW1 6771  12.745  14.464   4.593
 1644SOL    HW2 6772  12.647  14.579   4.595
 1645SOL     OW 6773  13.323   1.863   0.434
 1645SOL    HW1 6774  13.255   1.908   0.384
 1645SOL    HW2 6775  13.276   1.820   0.505
 1646SOL     OW 6776  10.421   2.455  10.294
 1646SOL    HW1 6777  10.510   2.473  10.327
 1646SOL    HW2 6778  10.379   2.405  10.364
 1647SOL     OW 6779   0.705  13.055   9.194
 1647SOL    HW1 6780   0.672  13.136   9.233
 1647SOL    HW2 6781   0.754  13.084   9.117
 1648SOL     OW 6782   1.572  13.642  11.338
 1648SOL    HW1 6783   1.535  13.644  11.426
 1648SOL    HW2 6784   1.501  13.668  11.280
 1649SOL     OW 6785   2.793   2.706   5.118
 1649SOL    HW1 6786   2.767   2.661   5.038
 1649SOL    HW2 6787   2.717   2.758   5.142
 1650SOL     OW 6788  12.389  11.674   2.508
 1650SOL    HW1 6789  12.408  11.671   2.414
 1650SOL    HW2 6790  12.298  11.702   2.513
 1651SOL     OW 6791  10.046   7.417   3.593
 1651SOL    HW1 6792  10.105   7.400   3.519
 1651SOL    HW2 6793   9.974   7.355   3.579
 1652SOL     OW 6794   8.466   0.759  12.179
 1652SOL    HW1 6795   8.426   0.705  12.247
 1652SOL    HW2 6796   8.510   0.829  12.228
 1653SOL     OW 6797  14.725  12.979   9.714
 1653SOL    HW1 6798  14.771  12.916   9.770
 1653SOL    HW2 6799  14.790  13.005   9.649
 1654SOL     OW 6800   5.619   1.131  13.858
 1654SOL    HW1 6801   5.701   1.087  13.880
 1654SOL    HW2 6802   5.645   1.205  13.803
 1655SOL     OW 6803   5.373   2.509   4.384
 1655SOL    HW1 6804   5.428   2.504   4.305
 1655SOL    HW2 6805   5.363   2.603   4.401
 1656SOL     OW 6806   8.447   0.067  10.463
 1656SOL    HW1 6807   8.489   0.117  10.393
 1656SOL    HW2 6808   8.474  14.853  10.447
 1657SOL     OW 6809  13.855   5.072  10.757
 1657SOL    HW1 6810  13.898   5.155  10.779
 1657SOL    HW2 6811  13.899   5.007  10.811
 1658SOL     OW 6812   0.064  14.762   3.762
 1658SOL    HW1 6813  14.849  14.781   3.783
 1658SOL    HW2 6814   0.113  14.829   3.809
 1659SOL     OW 6815   3.218  14.632   8.885
 1659SOL    HW1 6816   3.250  14.586   8.962
 1659SOL    HW2 6817   3.296  14.673   8.848
 1660SOL     OW 6818  11.925  12.009   5.814
 1660SOL    HW1 6819  11.893  11.987   5.726
 1660SOL    HW2 6820  11.969  12.093   5.804
 1661SOL     OW 6821  11.162  12.327   7.005
 1661SOL    HW1 6822  11.082  12.298   6.961
 1661SOL    HW2 6823  11.219  12.250   7.003
 1662SOL     OW 6824   8.965   3.819   8.018
 1662SOL    HW1 6825   9.006   3.757   7.957
 1662SOL    HW2 6826   8.948   3.897   7.965
 1663SOL     OW 6827   0.592   4.878  12.808
 1663SOL    HW1 6828   0.616   4.971  12.812
 1663SOL    HW2 6829   0.655   4.839  12.748
 1664SOL     OW 6830   7.252   6.356   7.963
 1664SOL    HW1 6831   7.262   6.387   8.053
 1664SOL    HW2 6832   7.235   6.262   7.971
 1665SOL     OW 6833   4.511   3.272   0.885
 1665SOL    HW1 6834   4.517   3.205   0.953
 1665SOL    HW2 6835   4.434   3.323   0.909
 1666SOL     OW 6836   3.470   5.828  12.022
 1666SOL    HW1 6837   3.456   5.878  12.102
 1666SOL    HW2 6838   3.490   5.894  11.956
 1667SOL     OW 6839   0.234   3.244  11.926
 1667SOL    HW1 6840   0.323   3.220  11.953
 1667SOL    HW2 6841   0.182   3.166  11.946
 1668SOL     OW 6842   7.153   4.249  12.578
 1668SOL    HW1 6843   7.110   4.303  12.645
 1668SOL    HW2 6844   7.228   4.210  12.623
 1669SOL     OW 6845   2.539   3.334   8.178
 1669SOL    HW1 6846   2.545   3.359   8.271
 1669SOL    HW2 6847   2.600   3.261   8.169
 1670SOL     OW 6848   0.763   3.479   8.371
 1670SOL    HW1 6849   0.697   3.532   8.415
 1670SOL    HW2 6850   0.778   3.525   8.288
 1671SOL     OW 6851  13.742   7.971   7.795
 1671SOL    HW1 6852  13.676   7.913   7.758
 1671SOL    HW2 6853  13.771   7.927   7.875
 1672SOL     OW 6854   1.526  14.478   6.092
 1672SOL    HW1 6855   1.553  14.465   6.183
 1672SOL    HW2 6856   1.433  14.458   6.091
 1673SOL     OW 6857  14.729   5.143   1.338
 1673SOL    HW1 6858  14.819   5.160   1.309
 1673SOL    HW2 6859  14.679   5.216   1.302
 1674SOL     OW 6860  14.030  12.921   8.481
 1674SOL    HW1 6861  13.949  12.910   8.531
 1674SOL    HW2 6862  14.095  12.948   8.545
 1675SOL     OW 6863  10.998   6.088  14.380
 1675SOL    HW1 6864  11.003   6.075  14.475
 1675SOL    HW2 6865  10.943   6.016  14.350
 1676SOL     OW 6866   1.725   8.108  13.621
 1676SOL    HW1 6867   1.725   8.164  13.544
 1676SOL    HW2 6868   1.637   8.072  13.625
 1677SOL     OW 6869   7.964   1.285   8.025
 1677SOL    HW1 6870   8.017   1.339   8.084
 1677SOL    HW2 6871   7.921   1.222   8.083
 1678SOL     OW 6872   0.515   9.297   5.084
 1678SOL    HW1 6873   0.536   9.217   5.036
 1678SOL    HW2 6874   0.485   9.358   5.017
 1679SOL     OW 6875   0.739   0.457   8.202
 1679SOL    HW1 6876   0.736   0.543   8.160
 1679SOL    HW2 6877   0.713   0.396   8.133
 1680SOL     OW 6878   8.597   5.115   8.589
 1680SOL    HW1 6879   8.508   5.104   8.623
 1680SOL    HW2 6880   8.616   5.033   8.544
 1681SOL     OW 6881   8.408   2.149  11.741
 1681SOL    HW1 6882   8.315   2.137  11.760
 1681SOL    HW2 6883   8.414   2.142  11.645
 1682SOL     OW 6884  14.388   0.511   3.554
 1682SOL    HW1 6885  14.467   0.565   3.553
 1682SOL    HW2 6886  14.322   0.565   3.598
 1683SOL     OW 6887  14.024   6.159  13.524
 1683SOL    HW1 6888  14.010   6.238  13.472
 1683SOL    HW2 6889  14.059   6.095  13.462
 1684SOL     OW 6890   7.867  10.250  11.610
 1684SOL    HW1 6891   7.779  10.251  11.571
 1684SOL    HW2 6892   7.866  10.176  11.670
 1685SOL     OW 6893  12.987   8.288   6.242
 1685SOL    HW1 6894  13.079   8.311   6.242
 1685SOL    HW2 6895  12.986   8.193   6.254
 1686SOL     OW 6896  11.275   3.279   1.429
 1686SOL    HW1 6897  11.360   3.318   1.408
 1686SOL    HW2 6898  11.290   3.185   1.421
 1687SOL     OW 6899   8.774  12.356  12.959
 1687SOL    HW1 6900   8.832  12.361  13.034
 1687SOL    HW2 6901   8.750  12.263  12.953
 1688SOL     OW 6902   6.097  10.622   2.051
 1688SOL    HW1 6903   6.139  10.707   2.038
 1688SOL    HW2 6904   6.168  10.558   2.044
 1689SOL     OW 6905  14.345   4.216   5.416
 1689SOL    HW1 6906  14.337   4.311   5.402
 1689SOL    HW2 6907  14.429   4.193   5.378
 1690SOL     OW 6908  10.480  14.049   8.137
 1690SOL    HW1 6909  10.496  14.103   8.214
 1690SOL    HW2 6910  10.404  13.996   8.161
 1691SOL     OW 6911   2.092  11.831   9.502
 1691SOL    HW1 6912   2.015  11.888   9.504
 1691SOL    HW2 6913   2.084  11.777   9.581
 1692SOL     OW 6914   0.699  14.665   2.247
 1692SOL    HW1 6915   0.749  14.744   2.266
 1692SOL    HW2 6916   0.762  14.605   2.206
 1693SOL     OW 6917  12.369   8.223   5.086
 1693SOL    HW1 6918  12.293   8.278   5.105
 1693SOL    HW2 6919  12.337   8.134   5.099
 1694SOL     OW 6920   8.493   8.758   5.240
 1694SOL    HW1 6921   8.448   8.776   5.158
 1694SOL    HW2 6922   8.471   8.666   5.260
 1695SOL     OW 6923   9.482  12.776  10.813
 1695SOL    HW1 6924   9.427  12.700  10.793
 1695SOL    HW2 6925   9.427  12.832  10.867
 1696SOL     OW 6926   1.095   8.303   7.760
 1696SOL    HW1 6927   1.121   8.310   7.852
 1696SOL    HW2 6928   1.135   8.380   7.718
 1697SOL     OW 6929   6.933   5.993   2.883
 1697SOL    HW1 6930   6.915   5.948   2.966
 1697SOL    HW2 6931   6.949   6.084   2.908
 1698SOL     OW 6932   3.221   4.025   4.192
 1698SOL    HW1 6933   3.174   4.092   4.142
 1698SOL    HW2 6934   3.214   4.054   4.283
 1699SOL     OW 6935   5.135   9.819  10.572
 1699SOL    HW1 6936   5.206   9.855  10.518
 1699SOL    HW2 6937   5.149   9.858  10.658
 1700SOL     OW 6938   8.735   2.904   0.128
 1700SOL    HW1 6939   8.762   2.871   0.042
 1700SOL    HW2 6940   8.797   2.864   0.189
 1701SOL     OW 6941   3.560   6.456   0.871
 1701SOL    HW1 6942   3.568   6.543   0.832
 1701SOL    HW2 6943   3.479   6.459   0.922
 1702SOL     OW 6944   3.362  12.032   1.871
 1702SOL    HW1 6945   3.407  12.058   1.951
 1702SOL    HW2 6946   3.272  12.012   1.900
 1703SOL     OW 6947   9.223   1.130  13.305
 1703SOL    HW1 6948   9.132   1.155  13.289
 1703SOL    HW2 6949   9.222   1.035  13.305
 1704SOL     OW 6950   3.186  13.062   4.976
 1704SOL    HW1 6951   3.174  13.148   5.015
 1704SOL    HW2 6952   3.223  13.079   4.889
 1705SOL     OW 6953   3.127   6.173   5.597
 1705SOL    HW1 6954   3.148   6.190   5.505
 1705SOL    HW2 6955   3.152   6.253   5.643
 1706SOL     OW 6956  11.004   7.563  14.232
 1706SOL    HW1 6957  11.028   7.517  14.312
 1706SOL    HW2 6958  11.077   7.623  14.216
 1707SOL     OW 6959   8.618  11.688  10.461
 1707SOL    HW1 6960   8.699  11.651  10.498
 1707SOL    HW2 6961   8.596  11.631  10.388
 1708SOL     OW 6962   6.284   4.635  14.758
 1708SOL    HW1 6963   6.282   4.540  14.751
 1708SOL    HW2 6964   6.269   4.652  14.852
 1709SOL     OW 6965  13.555   2.532   1.372
 1709SOL    HW1 6966  13.505   2.592   1.426
 1709SOL    HW2 6967  13.632   2.510   1.425
 1710SOL     OW 6968  10.187  14.458   7.223
 1710SOL    HW1 6969  10.259  14.520   7.231
 1710SOL    HW2 6970  10.110  14.511   7.207
 1711SOL     OW 6971  14.806   6.703  13.677
 1711SOL    HW1 6972  14.845   6.791  13.684
 1711SOL    HW2 6973  14.779   6.682  13.766
 1712SOL     OW 6974   5.845   2.039   1.093
 1712SOL    HW1 6975   5.777   1.972   1.089
 1712SOL    HW2 6976   5.803   2.113   1.138
 1713SOL     OW 6977   8.567  10.724   7.937
 1713SOL    HW1 6978   8.654  10.718   7.898
 1713SOL    HW2 6979   8.512  10.759   7.867
 1714SOL     OW 6980   9.545   4.371   1.117
 1714SOL    HW1 6981   9.513   4.316   1.045
 1714SOL    HW2 6982   9.483   4.356   1.188
 1715SOL     OW 6983   7.125   4.124   3.137
 1715SOL    HW1 6984   7.098   4.216   3.131
 1715SOL    HW2 6985   7.172   4.118   3.220
 1716SOL     OW 6986  11.099  13.577   3.656
 1716SOL    HW1 6987  11.038  13.636   3.699
 1716SOL    HW2 6988  11.045  13.503   3.628
 1717SOL     OW 6989   4.215   0.350  13.518
 1717SOL    HW1 6990   4.200   0.279  13.455
 1717SOL    HW2 6991   4.164   0.325  13.595
 1718SOL     OW 6992   4.119  10.631  14.036
 1718SOL    HW1 6993   4.077  10.678  13.963
 1718SOL    HW2 6994   4.212  10.642  14.020
 1719SOL     OW 6995  12.698  10.884   4.529
 1719SOL    HW1 6996  12.736  10.877   4.616
 1719SOL    HW2 6997  12.604  10.875   4.544
 1720SOL     OW 6998   3.378   2.844   2.416
 1720SOL    HW1 6999   3.454   2.899   2.434
 1720SOL    HW2 7000   3.350   2.813   2.502
 1721SOL     OW 7001   5.536  11.336   2.456
 1721SOL    HW1 7002   5.578  11.254   2.432
 1721SOL    HW2 7003   5.606  11.401   2.455
 1722SOL     OW 7004  14.498  12.595  12.516
 1722SOL    HW1 7005  14.577  12.646  12.534
 1722SOL    HW2 7006  14.504  12.574  12.423
 1723SOL     OW 7007   7.844   5.222  10.619
 1723SOL    HW1 7008   7.924   5.212  10.569
 1723SOL    HW2 7009   7.813   5.310  10.598
 1724SOL     OW 7010  10.532   3.000   1.968
 1724SOL    HW1 7011  10.522   2.921   1.914
 1724SOL    HW2 7012  10.498   2.974   2.054
 1725SOL     OW 7013  10.241   2.473   2.960
 1725SOL    HW1 7014  10.234   2.491   3.054
 1725SOL    HW2 7015  10.298   2.541   2.926
 1726SOL     OW 7016   0.726   2.123   6.151
 1726SOL    HW1 7017   0.656   2.119   6.086
 1726SOL    HW2 7018   0.794   2.177   6.110
 1727SOL     OW 7019  10.578   9.283   8.627
 1727SOL    HW1 7020  10.523   9.334   8.688
 1727SOL    HW2 7021  10.519   9.261   8.555
 1728SOL     OW 7022  13.728  14.420   6.266
 1728SOL    HW1 7023  13.652  14.413   6.323
 1728SOL    HW2 7024  13.781  14.490   6.303
 1729SOL     OW 7025  10.888   9.355  11.771
 1729SOL    HW1 7026  10.879   9.330  11.679
 1729SOL    HW2 7027  10.798   9.370  11.800
 1730SOL     OW 7028   1.320   3.367   8.775
 1730SOL    HW1 7029   1.238   3.361   8.725
 1730SOL    HW2 7030   1.342   3.276   8.794
 1731SOL     OW 7031   1.943   7.250   8.049
 1731SOL    HW1 7032   1.866   7.210   8.090
 1731SOL    HW2 7033   2.006   7.260   8.121
 1732SOL     OW 7034   6.885   3.768   7.017
 1732SOL    HW1 7035   6.793   3.750   6.997
 1732SOL    HW2 7036   6.883   3.806   7.105
 1733SOL     OW 7037   6.150   0.613  13.555
 1733SOL    HW1 7038   6.130   0.607  13.648
 1733SOL    HW2 7039   6.212   0.542  13.538
 1734SOL     OW 7040  13.674   5.062   8.867
 1734SOL    HW1 7041  13.648   5.005   8.794
 1734SOL    HW2 7042  13.769   5.067   8.860
 1735SOL     OW 7043   8.333   4.531  10.604
 1735SOL    HW1 7044   8.283   4.602  10.564
 1735SOL    HW2 7045   8.387   4.575  10.670
 1736SOL     OW 7046  13.850   7.749   4.963
 1736SOL    HW1 7047  13.855   7.706   4.878
 1736SOL    HW2 7048  13.896   7.689   5.022
 1737SOL     OW 7049   7.242   4.056   8.166
 1737SOL    HW1 7050   7.253   4.079   8.074
 1737SOL    HW2 7051   7.297   3.978   8.178
 1738SOL     OW 7052   4.926   9.445  10.687
 1738SOL    HW1 7053   5.014   9.483  10.685
 1738SOL    HW2 7054   4.878   9.497  10.752
 1739SOL     OW 7055   9.563   9.530   9.523
 1739SOL    HW1 7056   9.537   9.491   9.606
 1739SOL    HW2 7057   9.542   9.623   9.533
 1740SOL     OW 7058   7.555   7.004  11.915
 1740SOL    HW1 7059   7.629   7.055  11.883
 1740SOL    HW2 7060   7.524   7.051  11.992
 1741SOL     OW 7061  12.786   3.507   1.327
 1741SOL    HW1 7062  12.775   3.584   1.383
 1741SOL    HW2 7063  12.865   3.465   1.359
 1742SOL     OW 7064   2.399   5.813  11.813
 1742SOL    HW1 7065   2.319   5.808  11.762
 1742SOL    HW2 7066   2.463   5.853  11.755
 1743SOL     OW 7067  10.304   5.311   2.785
 1743SOL    HW1 7068  10.298   5.392   2.836
 1743SOL    HW2 7069  10.223   5.309   2.734
 1744SOL     OW 7070   7.470   3.970  10.263
 1744SOL    HW1 7071   7.520   3.940  10.339
 1744SOL    HW2 7072   7.405   4.029  10.300
 1745SOL     OW 7073   9.054   6.878  10.628
 1745SOL    HW1 7074   8.965   6.843  10.632
 1745SOL    HW2 7075   9.105   6.809  10.587
 1746SOL     OW 7076  13.812   5.476   7.387
 1746SOL    HW1 7077  13.829   5.439   7.301
 1746SOL    HW2 7078  13.716   5.486   7.391
 1747SOL     OW 7079   3.217  13.304  12.297
 1747SOL    HW1 7080   3.218  13.368  12.369
 1747SOL    HW2 7081   3.177  13.351  12.224
 1748SOL     OW 7082   6.217   0.413   7.761
 1748SOL    HW1 7083   6.179   0.495   7.792
 1748SOL    HW2 7084   6.239   0.430   7.669
 1749SOL     OW 7085   3.978   3.224   9.049
 1749SOL    HW1 7086   3.966   3.258   9.138
 1749SOL    HW2 7087   3.911   3.156   9.040
 1750SOL     OW 7088   7.068   0.210   7.457
 1750SOL    HW1 7089   6.995   0.251   7.410
 1750SOL    HW2 7090   7.034   0.125   7.485
 1751SOL     OW 7091   5.855   3.684   6.570
 1751SOL    HW1 7092   5.901   3.743   6.510
 1751SOL    HW2 7093   5.793   3.740   6.616
 1752SOL     OW 7094   4.907   2.370   6.643
 1752SOL    HW1 7095   4.842   2.342   6.579
 1752SOL    HW2 7096   4.888   2.320   6.722
 1753SOL     OW 7097   4.832   9.879  14.001
 1753SOL    HW1 7098   4.919   9.916  13.990
 1753SOL    HW2 7099   4.803   9.859  13.913
 1754SOL     OW 7100   9.858  14.067   2.317
 1754SOL    HW1 7101   9.886  14.154   2.286
 1754SOL    HW2 7102   9.809  14.031   2.244
 1755SOL     OW 7103  14.246  14.362  11.204
 1755SOL    HW1 7104  14.194  14.441  11.190
 1755SOL    HW2 7105  14.195  14.292  11.164
 1756SOL     OW 7106   9.945   0.367   8.858
 1756SOL    HW1 7107   9.945   0.454   8.818
 1756SOL    HW2 7108  10.031   0.360   8.901
 1757SOL     OW 7109   3.919   3.995   7.523
 1757SOL    HW1 7110   3.900   4.032   7.609
 1757SOL    HW2 7111   3.986   4.053   7.486
 1758SOL     OW 7112   3.906  13.291   2.864
 1758SOL    HW1 7113   3.963  13.367   2.872
 1758SOL    HW2 7114   3.875  13.274   2.953
 1759SOL     OW 7115   3.208  10.822   2.941
 1759SOL    HW1 7116   3.171  10.905   2.911
 1759SOL    HW2 7117   3.132  10.772   2.971
 1760SOL     OW 7118   5.716   0.199   7.283
 1760SOL    HW1 7119   5.763   0.116   7.298
 1760SOL    HW2 7120   5.764   0.263   7.334
 1761SOL     OW 7121   6.427   7.011   2.556
 1761SOL    HW1 7122   6.517   6.978   2.544
 1761SOL    HW2 7123   6.390   6.954   2.623
 1762SOL     OW 7124   6.445  13.782  10.554
 1762SOL    HW1 7125   6.383  13.711  10.572
 1762SOL    HW2 7126   6.463  13.775  10.460
 1763SOL     OW 7127   9.970   1.950   1.130
 1763SOL    HW1 7128   9.999   2.009   1.200
 1763SOL    HW2 7129  10.038   1.884   1.125
 1764SOL     OW 7130   2.026   6.287   9.053
 1764SOL    HW1 7131   2.085   6.355   9.084
 1764SOL    HW2 7132   1.989   6.322   8.972
 1765SOL     OW 7133   2.279   2.705  14.833
 1765SOL    HW1 7134   2.228   2.736   0.031
 1765SOL    HW2 7135   2.215   2.664  14.775
 1766SOL     OW 7136   9.644   7.721   8.897
 1766SOL    HW1 7137   9.574   7.748   8.958
 1766SOL    HW2 7138   9.601   7.658   8.839
 1767SOL     OW 7139  11.843  14.577  14.701
 1767SOL    HW1 7140  11.863  14.514  14.632
 1767SOL    HW2 7141  11.925  14.587  14.749
 1768SOL     OW 7142  14.098   5.053   0.603
 1768SOL    HW1 7143  14.073   4.961   0.605
 1768SOL    HW2 7144  14.175   5.058   0.660
 1769SOL     OW 7145   7.382   2.723  13.209
 1769SOL    HW1 7146   7.454   2.785  13.215
 1769SOL    HW2 7147   7.340   2.727  13.295
 1770SOL     OW 7148  12.415   4.076   1.505
 1770SOL    HW1 7149  12.341   4.136   1.509
 1770SOL    HW2 7150  12.385   4.005   1.447
 1771SOL     OW 7151   4.349   6.516  12.451
 1771SOL    HW1 7152   4.273   6.511  12.394
 1771SOL    HW2 7153   4.378   6.426  12.461
 1772SOL     OW 7154   1.179   9.671   7.390
 1772SOL    HW1 7155   1.091   9.701   7.367
 1772SOL    HW2 7156   1.184   9.678   7.485
 1773SOL     OW 7157   8.225   2.796  10.206
 1773SOL    HW1 7158   8.314   2.783  10.172
 1773SOL    HW2 7159   8.231   2.769  10.298
 1774SOL     OW 7160   2.098  11.650   1.540
 1774SOL    HW1 7161   2.136  11.577   1.589
 1774SOL    HW2 7162   2.173  11.690   1.495
 1775SOL     OW 7163  13.793  14.059   5.239
 1775SOL    HW1 7164  13.752  14.092   5.319
 1775SOL    HW2 7165  13.887  14.063   5.257
 1776SOL     OW 7166   9.829  12.605   2.013
 1776SOL    HW1 7167   9.889  12.667   2.053
 1776SOL    HW2 7168   9.797  12.551   2.086
 1777SOL     OW 7169  13.135  12.435   4.006
 1777SOL    HW1 7170  13.123  12.348   3.967
 1777SOL    HW2 7171  13.172  12.488   3.936
 1778SOL     OW 7172   4.481   8.859   5.220
 1778SOL    HW1 7173   4.571   8.840   5.195
 1778SOL    HW2 7174   4.486   8.879   5.313
 1779SOL     OW 7175  14.326  13.929   7.386
 1779SOL    HW1 7176  14.244  13.909   7.341
 1779SOL    HW2 7177  14.387  13.953   7.315
 1780SOL     OW 7178  11.232   0.924  11.384
 1780SOL    HW1 7179  11.181   1.005  11.390
 1780SOL    HW2 7180  11.280   0.920  11.466
 1781SOL     OW 7181   4.439   1.446   5.118
 1781SOL    HW1 7182   4.464   1.358   5.090
 1781SOL    HW2 7183   4.402   1.487   5.040
 1782SOL     OW 7184   6.104   9.843  13.509
 1782SOL    HW1 7185   6.128   9.920  13.456
 1782SOL    HW2 7186   6.059   9.880  13.585
 1783SOL     OW 7187  12.235  14.781  11.383
 1783SOL    HW1 7188  12.195  14.705  11.425
 1783SOL    HW2 7189  12.280  14.745  11.306
 1784SOL     OW 7190   0.644   3.269  12.419
 1784SOL    HW1 7191   0.584   3.207  12.377
 1784SOL    HW2 7192   0.588   3.327  12.470
 1785SOL     OW 7193  14.294   6.841  12.873
 1785SOL    HW1 7194  14.199   6.836  12.889
 1785SOL    HW2 7195  14.305   6.921  12.821
 1786SOL     OW 7196  12.954   3.877  10.197
 1786SOL    HW1 7197  12.904   3.958  10.210
 1786SOL    HW2 7198  12.894   3.820  10.150
 1787SOL     OW 7199  13.268   6.176   7.082
 1787SOL    HW1 7200  13.225   6.147   7.001
 1787SOL    HW2 7201  13.319   6.252   7.056
 1788SOL     OW 7202   1.606   1.550   9.681
 1788SOL    HW1 7203   1.535   1.515   9.735
 1788SOL    HW2 7204   1.685   1.511   9.718
 1789SOL     OW 7205  10.180   1.751  11.137
 1789SOL    HW1 7206  10.140   1.703  11.064
 1789SOL    HW2 7207  10.156   1.842  11.121
 1790SOL     OW 7208   7.143   2.722   8.111
 1790SOL    HW1 7209   7.166   2.787   8.178
 1790SOL    HW2 7210   7.118   2.645   8.162
 1791SOL     OW 7211   7.673  10.234   3.877
 1791SOL    HW1 7212   7.648  10.286   3.953
 1791SOL    HW2 7213   7.665  10.294   3.803
 1792SOL     OW 7214  11.595   4.110   2.108
 1792SOL    HW1 7215  11.519   4.160   2.076
 1792SOL    HW2 7216  11.670   4.165   2.088
 1793SOL     OW 7217   1.049   7.491  10.631
 1793SOL    HW1 7218   1.119   7.429  10.614
 1793SOL    HW2 7219   1.076   7.537  10.711
 1794SOL     OW 7220   4.905  14.535  11.472
 1794SOL    HW1 7221   4.903  14.569  11.562
 1794SOL    HW2 7222   4.994  14.555  11.442
 1795SOL     OW 7223   2.526  10.150   5.412
 1795SOL    HW1 7224   2.445  10.155   5.363
 1795SOL    HW2 7225   2.537  10.237   5.451
 1796SOL     OW 7226   1.941   8.323  13.060
 1796SOL    HW1 7227   1.918   8.230  13.054
 1796SOL    HW2 7228   2.037   8.324  13.062
 1797SOL     OW 7229   2.019   1.579   8.244
 1797SOL    HW1 7230   2.026   1.497   8.291
 1797SOL    HW2 7231   1.928   1.607   8.256
 1798SOL     OW 7232  11.747   1.001   1.210
 1798SOL    HW1 7233  11.678   1.057   1.245
 1798SOL    HW2 7234  11.759   0.932   1.275
 1799SOL     OW 7235   6.539  12.107   0.370
 1799SOL    HW1 7236   6.559  12.135   0.281
 1799SOL    HW2 7237   6.518  12.188   0.417
 1800SOL     OW 7238   1.705   0.659   6.364
 1800SOL    HW1 7239   1.755   0.709   6.429
 1800SOL    HW2 7240   1.618   0.649   6.404
 1801SOL     OW 7241   9.116  11.203   9.552
 1801SOL    HW1 7242   9.088  11.294   9.560
 1801SOL    HW2 7243   9.056  11.154   9.608
 1802SOL     OW 7244  14.639   5.195   1.004
 1802SOL    HW1 7245  14.655   5.229   1.092
 1802SOL    HW2 7246  14.664   5.103   1.009
 1803SOL     OW 7247   1.570  12.718  12.205
 1803SOL    HW1 7248   1.554  12.800  12.251
 1803SOL    HW2 7249   1.665  12.716  12.191
 1804SOL     OW 7250   3.309   0.135  13.537
 1804SOL    HW1 7251   3.272   0.127  13.625
 1804SOL    HW2 7252   3.316   0.044  13.506
 1805SOL     OW 7253  13.099   5.375  10.819
 1805SOL    HW1 7254  13.073   5.294  10.777
 1805SOL    HW2 7255  13.039   5.441  10.784
 1806SOL     OW 7256   5.733   5.524   7.197
 1806SOL    HW1 7257   5.762   5.611   7.221
 1806SOL    HW2 7258   5.673   5.497   7.267
 1807SOL     OW 7259   3.020   8.105  13.334
 1807SOL    HW1 7260   2.996   8.183  13.283
 1807SOL    HW2 7261   3.078   8.138  13.403
 1808SOL     OW 7262  13.321   2.623   9.779
 1808SOL    HW1 7263  13.298   2.661   9.864
 1808SOL    HW2 7264  13.401   2.669   9.753
 1809SOL     OW 7265   4.275   8.115   0.377
 1809SOL    HW1 7266   4.342   8.090   0.313
 1809SOL    HW2 7267   4.324   8.160   0.446
 1810SOL     OW 7268  13.445  14.814   3.138
 1810SOL    HW1 7269  13.358  14.775   3.129
 1810SOL    HW2 7270  13.429   0.028   3.165
 1811SOL     OW 7271   2.682   9.730   3.545
 1811SOL    HW1 7272   2.636   9.721   3.461
 1811SOL    HW2 7273   2.703   9.641   3.571
 1812SOL     OW 7274   4.197   1.676   2.251
 1812SOL    HW1 7275   4.212   1.739   2.180
 1812SOL    HW2 7276   4.266   1.695   2.315
 1813SOL     OW 7277   0.598  11.145  10.127
 1813SOL    HW1 7278   0.584  11.095  10.208
 1813SOL    HW2 7279   0.689  11.127  10.103
 1814SOL     OW 7280  10.042   4.581  14.589
 1814SOL    HW1 7281  10.137   4.594  14.596
 1814SOL    HW2 7282  10.009   4.602  14.677
 1815SOL     OW 7283  12.078   5.458   9.588
 1815SOL    HW1 7284  12.072   5.553   9.592
 1815SOL    HW2 7285  12.165   5.438   9.622
 1816SOL     OW 7286   5.239   6.810  10.860
 1816SOL    HW1 7287   5.235   6.729  10.910
 1816SOL    HW2 7288   5.301   6.791  10.789
 1817SOL     OW 7289   4.492   8.897   5.738
 1817SOL    HW1 7290   4.442   8.823   5.772
 1817SOL    HW2 7291   4.454   8.914   5.651
 1818SOL     OW 7292  12.012  11.622  13.268
 1818SOL    HW1 7293  12.047  11.697  13.221
 1818SOL    HW2 7294  11.940  11.658  13.320
 1819SOL     OW 7295  10.094   4.723  14.180
 1819SOL    HW1 7296  10.051   4.648  14.221
 1819SOL    HW2 7297  10.145   4.686  14.108
 1820SOL     OW 7298   6.216   3.095   3.137
 1820SOL    HW1 7299   6.218   3.062   3.227
 1820SOL    HW2 7300   6.249   3.185   3.143
 1821SOL     OW 7301   1.709   4.579   1.256
 1821SOL    HW1 7302   1.629   4.587   1.307
 1821SOL    HW2 7303   1.680   4.540   1.173
 1822SOL     OW 7304  14.757   2.530   1.849
 1822SOL    HW1 7305  14.746   2.436   1.833
 1822SOL    HW2 7306  14.718   2.544   1.935
 1823SOL     OW 7307   0.781   5.416   7.547
 1823SOL    HW1 7308   0.704   5.373   7.584
 1823SOL    HW2 7309   0.817   5.351   7.485
 1824SOL     OW 7310  13.162  10.931   5.006
 1824SOL    HW1 7311  13.150  10.922   4.912
 1824SOL    HW2 7312  13.090  10.880   5.044
 1825SOL     OW 7313   3.868   6.251   0.469
 1825SOL    HW1 7314   3.961   6.263   0.488
 1825SOL    HW2 7315   3.834   6.340   0.459
 1826SOL     OW 7316   5.170   4.770   9.166
 1826SOL    HW1 7317   5.183   4.749   9.259
 1826SOL    HW2 7318   5.147   4.686   9.126
 1827SOL     OW 7319   4.190  11.815   0.533
 1827SOL    HW1 7320   4.242  11.766   0.469
 1827SOL    HW2 7321   4.207  11.907   0.512
 1828SOL     OW 7322  13.575   4.726   0.157
 1828SOL    HW1 7323  13.666   4.757   0.152
 1828SOL    HW2 7324  13.538   4.774   0.230
 1829SOL     OW 7325   7.566   4.324   8.498
 1829SOL    HW1 7326   7.575   4.230   8.487
 1829SOL    HW2 7327   7.598   4.342   8.586
 1830SOL     OW 7328  12.402   3.059   0.311
 1830SOL    HW1 7329  12.492   3.087   0.329
 1830SOL    HW2 7330  12.348   3.119   0.362
 1831SOL     OW 7331   2.082   3.261   9.602
 1831SOL    HW1 7332   2.045   3.336   9.554
 1831SOL    HW2 7333   2.067   3.282   9.694
 1832SOL     OW 7334  13.094   6.604   5.573
 1832SOL    HW1 7335  13.013   6.637   5.533
 1832SOL    HW2 7336  13.138   6.683   5.605
 1833SOL     OW 7337  10.364  11.634  11.447
 1833SOL    HW1 7338  10.338  11.651  11.537
 1833SOL    HW2 7339  10.284  11.648  11.396
 1834SOL     OW 7340   7.519  11.957  10.177
 1834SOL    HW1 7341   7.578  11.924  10.245
 1834SOL    HW2 7342   7.503  12.048  10.201
 1835SOL     OW 7343  10.315  12.997  13.230
 1835SOL    HW1 7344  10.399  13.039  13.211
 1835SOL    HW2 7345  10.338  12.919  13.280
 1836SOL     OW 7346   1.037   2.242  10.943
 1836SOL    HW1 7347   1.022   2.157  10.902
 1836SOL    HW2 7348   0.949   2.275  10.961
 1837SOL     OW 7349  12.027  11.409   7.652
 1837SOL    HW1 7350  11.960  11.476   7.639
 1837SOL    HW2 7351  12.102  11.457   7.686
 1838SOL     OW 7352  12.624   4.796  10.841
 1838SOL    HW1 7353  12.661   4.876  10.879
 1838SOL    HW2 7354  12.549   4.826  10.791
 1839SOL     OW 7355  11.179   3.318  14.474
 1839SOL    HW1 7356  11.204   3.358  14.390
 1839SOL    HW2 7357  11.252   3.260  14.495
 1840SOL     OW 7358   2.799   4.609   2.154
 1840SOL    HW1 7359   2.778   4.516   2.148
 1840SOL    HW2 7360   2.845   4.618   2.237
 1841SOL     OW 7361   8.003   5.120   3.204
 1841SOL    HW1 7362   8.001   5.094   3.296
 1841SOL    HW2 7363   7.978   5.041   3.156
 1842SOL     OW 7364  13.334  12.996  12.952
 1842SOL    HW1 7365  13.333  13.064  13.020
 1842SOL    HW2 7366  13.308  13.043  12.872
 1843SOL     OW 7367  11.245   0.386   2.095
 1843SOL    HW1 7368  11.197   0.448   2.042
 1843SOL    HW2 7369  11.337   0.401   2.073
 1844SOL     OW 7370  14.038   5.310  10.790
 1844SOL    HW1 7371  14.093   5.340  10.862
 1844SOL    HW2 7372  14.086   5.236  10.752
 1845SOL     OW 7373  13.007  14.102   7.335
 1845SOL    HW1 7374  13.006  14.128   7.427
 1845SOL    HW2 7375  13.002  14.184   7.287
 1846SOL     OW 7376   5.701  14.697   1.097
 1846SOL    HW1 7377   5.783  14.717   1.052
 1846SOL    HW2 7378   5.713  14.608   1.132
 1847SOL     OW 7379  11.056   2.716   3.334
 1847SOL    HW1 7380  11.120   2.725   3.264
 1847SOL    HW2 7381  10.974   2.692   3.290
 1848SOL     OW 7382  10.903  12.628   6.354
 1848SOL    HW1 7383  10.927  12.648   6.264
 1848SOL    HW2 7384  10.949  12.695   6.406
 1849SOL     OW 7385   4.809   2.055   6.592
 1849SOL    HW1 7386   4.887   2.059   6.537
 1849SOL    HW2 7387   4.752   2.124   6.558
 1850SOL     OW 7388   5.597   9.166   3.439
 1850SOL    HW1 7389   5.609   9.106   3.365
 1850SOL    HW2 7390   5.572   9.109   3.512
 1851SOL     OW 7391   3.205   8.564   3.452
 1851SOL    HW1 7392   3.287   8.581   3.405
 1851SOL    HW2 7393   3.163   8.649   3.459
 1852SOL     OW 7394  14.372   1.456  12.879
 1852SOL    HW1 7395  14.287   1.460  12.922
 1852SOL    HW2 7396  14.390   1.362  12.870
 1853SOL     OW 7397  13.155   2.405   8.785
 1853SOL    HW1 7398  13.102   2.482   8.803
 1853SOL    HW2 7399  13.095   2.343   8.744
 1854SOL     OW 7400   5.791   5.449   2.953
 1854SOL    HW1 7401   5.830   5.384   2.896
 1854SOL    HW2 7402   5.720   5.487   2.901
 1855SOL     OW 7403   3.100  11.468   9.093
 1855SOL    HW1 7404   3.132  11.399   9.152
 1855SOL    HW2 7405   3.085  11.424   9.010
 1856SOL     OW 7406   7.210  11.870   8.058
 1856SOL    HW1 7407   7.196  11.965   8.061
 1856SOL    HW2 7408   7.128  11.832   8.090
 1857SOL     OW 7409   1.167  10.631  10.269
 1857SOL    HW1 7410   1.157  10.725  10.280
 1857SOL    HW2 7411   1.235  10.620  10.203
 1858SOL     OW 7412  13.264  10.290   2.072
 1858SOL    HW1 7413  13.231  10.244   2.149
 1858SOL    HW2 7414  13.185  10.312   2.022
 1859SOL     OW 7415   9.077   8.602   2.560
 1859SOL    HW1 7416   8.995   8.644   2.587
 1859SOL    HW2 7417   9.091   8.533   2.624
 1860SOL     OW 7418  10.396  11.246   6.294
 1860SOL    HW1 7419  10.332  11.255   6.222
 1860SOL    HW2 7420  10.472  11.205   6.253
 1861SOL     OW 7421   8.827   3.950   4.562
 1861SOL    HW1 7422   8.837   4.040   4.591
 1861SOL    HW2 7423   8.804   3.901   4.641
 1862SOL     OW 7424   8.903   8.010   4.704
 1862SOL    HW1 7425   8.843   7.936   4.711
 1862SOL    HW2 7426   8.989   7.970   4.690
 1863SOL     OW 7427  13.507  12.278   0.537
 1863SOL    HW1 7428  13.433  12.247   0.588
 1863SOL    HW2 7429  13.576  12.213   0.552
 1864SOL     OW 7430   6.227   1.990   4.798
 1864SOL    HW1 7431   6.165   1.927   4.761
 1864SOL    HW2 7432   6.283   2.015   4.724
 1865SOL     OW 7433  11.556   3.058   9.702
 1865SOL    HW1 7434  11.630   2.999   9.687
 1865SOL    HW2 7435  11.487   3.002   9.737
 1866SOL     OW 7436  12.771   4.591  14.538
 1866SOL    HW1 7437  12.696   4.643  14.569
 1866SOL    HW2 7438  12.763   4.507  14.583
 1867SOL     OW 7439  13.143   9.244   4.350
 1867SOL    HW1 7440  13.065   9.192   4.331
 1867SOL    HW2 7441  13.134   9.268   4.442
 1868SOL     OW 7442   2.577   6.071   0.338
 1868SOL    HW1 7443   2.491   6.098   0.369
 1868SOL    HW2 7444   2.560   6.015   0.263
 1869SOL     OW 7445   4.032  12.030   2.420
 1869SOL    HW1 7446   4.095  11.995   2.357
 1869SOL    HW2 7447   4.063  12.119   2.438
 1870SOL     OW 7448   3.787  13.135   9.107
 1870SOL    HW1 7449   3.839  13.158   9.030
 1870SOL    HW2 7450   3.831  13.059   9.145
 1871SOL     OW 7451   8.857   3.159  11.833
 1871SOL    HW1 7452   8.856   3.254  11.821
 1871SOL    HW2 7453   8.887   3.146  11.923
 1872SOL     OW 7454   1.774  13.142   8.794
 1872SOL    HW1 7455   1.855  13.093   8.813
 1872SOL    HW2 7456   1.735  13.096   8.721
 1873SOL     OW 7457  12.207   2.158   3.001
 1873SOL    HW1 7458  12.272   2.177   3.069
 1873SOL    HW2 7459  12.250   2.095   2.944
 1874SOL     OW 7460  11.305   3.649   5.184
 1874SOL    HW1 7461  11.386   3.600   5.197
 1874SOL    HW2 7462  11.283   3.636   5.092
 1875SOL     OW 7463   9.689   2.313   4.099
 1875SOL    HW1 7464   9.735   2.324   4.183
 1875SOL    HW2 7465   9.721   2.230   4.065
 1876SOL     OW 7466  11.618  10.321   9.036
 1876SOL    HW1 7467  11.541  10.351   9.084
 1876SOL    HW2 7468  11.678  10.396   9.035
 1877SOL     OW 7469   1.968   8.304   8.459
 1877SOL    HW1 7470   2.012   8.271   8.380
 1877SOL    HW2 7471   2.022   8.378   8.487
 1878SOL     OW 7472   0.048  11.022  14.633
 1878SOL    HW1 7473   0.045  11.060  14.546
 1878SOL    HW2 7474  14.835  10.989  14.648
 1879SOL     OW 7475   4.483   0.859  12.182
 1879SOL    HW1 7476   4.462   0.877  12.090
 1879SOL    HW2 7477   4.539   0.932  12.209
 1880SOL     OW 7478   9.096  13.330  12.539
 1880SOL    HW1 7479   9.079  13.255  12.596
 1880SOL    HW2 7480   9.135  13.291  12.461
 1881SOL     OW 7481   0.333  10.890   3.750
 1881SOL    HW1 7482   0.410  10.850   3.789
 1881SOL    HW2 7483   0.365  10.928   3.668
 1882SOL     OW 7484   6.293  11.939  14.286
 1882SOL    HW1 7485   6.315  12.018  14.237
 1882SOL    HW2 7486   6.335  11.951  14.371
 1883SOL     OW 7487   8.484  12.647   6.922
 1883SOL    HW1 7488   8.484  12.576   6.985
 1883SOL    HW2 7489   8.425  12.713   6.959
 1884SOL     OW 7490   6.644   5.497   6.297
 1884SOL    HW1 7491   6.647   5.458   6.210
 1884SOL    HW2 7492   6.678   5.429   6.355
 1885SOL     OW 7493   9.003   7.944   9.207
 1885SOL    HW1 7494   8.925   7.952   9.153
 1885SOL    HW2 7495   8.989   8.008   9.277
 1886SOL     OW 7496   7.126   7.753   6.662
 1886SOL    HW1 7497   7.214   7.764   6.625
 1886SOL    HW2 7498   7.076   7.712   6.591
 1887SOL     OW 7499   2.128   7.137   6.566
 1887SOL    HW1 7500   2.082   7.213   6.530
 1887SOL    HW2 7501   2.059   7.081   6.601
 1888SOL     OW 7502   1.732  10.723   8.750
 1888SOL    HW1 7503   1.693  10.793   8.803
 1888SOL    HW2 7504   1.690  10.643   8.780
 1889SOL     OW 7505   9.588  13.560   8.546
 1889SOL    HW1 7506   9.547  13.595   8.466
 1889SOL    HW2 7507   9.681  13.564   8.528
 1890SOL     OW 7508  13.561   2.621  13.773
 1890SOL    HW1 7509  13.627   2.579  13.829
 1890SOL    HW2 7510  13.539   2.554  13.708
 1891SOL     OW 7511   2.954  10.803   5.044
 1891SOL    HW1 7512   3.033  10.851   5.070
 1891SOL    HW2 7513   2.981  10.711   5.047
 1892SOL     OW 7514   7.639  14.740   6.879
 1892SOL    HW1 7515   7.596  14.663   6.842
 1892SOL    HW2 7516   7.617  14.811   6.819
 1893SOL     OW 7517   4.498   8.542  10.236
 1893SOL    HW1 7518   4.456   8.514  10.317
 1893SOL    HW2 7519   4.589   8.559  10.261
 1894SOL     OW 7520   3.705   8.644  10.642
 1894SOL    HW1 7521   3.732   8.727  10.680
 1894SOL    HW2 7522   3.652   8.603  10.710
 1895SOL     OW 7523   9.645  11.262  12.780
 1895SOL    HW1 7524   9.619  11.199  12.712
 1895SOL    HW2 7525   9.567  11.271  12.835
 1896SOL     OW 7526  10.064   0.503   7.475
 1896SOL    HW1 7527  10.141   0.558   7.494
 1896SOL    HW2 7528  10.059   0.502   7.379
 1897SOL     OW 7529   6.971   4.738   5.900
 1897SOL    HW1 7530   6.893   4.700   5.941
 1897SOL    HW2 7531   7.044   4.704   5.952
 1898SOL     OW 7532   1.301   6.282  12.721
 1898SOL    HW1 7533   1.344   6.237  12.793
 1898SOL    HW2 7534   1.213   6.244  12.717
 1899SOL     OW 7535   8.420   7.962  10.992
 1899SOL    HW1 7536   8.433   7.932  10.902
 1899SOL    HW2 7537   8.473   8.041  10.998
 1900SOL     OW 7538   4.069  14.788  10.945
 1900SOL    HW1 7539   4.031  14.740  10.871
 1900SOL    HW2 7540   4.058  14.730  11.020
 1901SOL     OW 7541   3.756   9.441  12.322
 1901SOL    HW1 7542   3.767   9.534  12.304
 1901SOL    HW2 7543   3.805   9.397  12.253
 1902SOL     OW 7544   3.040   9.958  10.656
 1902SOL    HW1 7545   2.988   9.963  10.575
 1902SOL    HW2 7546   3.003   9.883  10.703
 1903SOL     OW 7547   8.635   9.884  11.256
 1903SOL    HW1 7548   8.582   9.881  11.336
 1903SOL    HW2 7549   8.717   9.926  11.282
 1904SOL     OW 7550  11.248   6.794  11.994
 1904SOL    HW1 7551  11.238   6.790  12.089
 1904SOL    HW2 7552  11.329   6.844  11.980
 1905SOL     OW 7553  13.839   4.971   7.807
 1905SOL    HW1 7554  13.911   4.914   7.834
 1905SOL    HW2 7555  13.766   4.911   7.792
 1906SOL     OW 7556   5.302   5.765   1.000
 1906SOL    HW1 7557   5.286   5.790   0.909
 1906SOL    HW2 7558   5.335   5.844   1.042
 1907SOL     OW 7559  14.052   3.395   8.971
 1907SOL    HW1 7560  14.096   3.476   8.945
 1907SOL    HW2 7561  14.014   3.362   8.889
 1908SOL     OW 7562  13.036  13.308   7.718
 1908SOL    HW1 7563  12.972  13.322   7.787
 1908SOL    HW2 7564  13.116  13.280   7.764
 1909SOL     OW 7565  10.659   9.463  11.868
 1909SOL    HW1 7566  10.641   9.534  11.805
 1909SOL    HW2 7567  10.574   9.444  11.908
 1910SOL     OW 7568   8.609   8.831   2.854
 1910SOL    HW1 7569   8.694   8.789   2.838
 1910SOL    HW2 7570   8.561   8.769   2.909
 1911SOL     OW 7571  10.493   9.981  13.932
 1911SOL    HW1 7572  10.528   9.976  13.843
 1911SOL    HW2 7573  10.544  10.050  13.974
 1912SOL     OW 7574  12.291  12.547  10.313
 1912SOL    HW1 7575  12.291  12.628  10.363
 1912SOL    HW2 7576  12.376  12.545  10.270
 1913SOL     OW 7577   8.844   9.161   0.078
 1913SOL    HW1 7578   8.796   9.240   0.052
 1913SOL    HW2 7579   8.858   9.114  14.872
 1914SOL     OW 7580   9.679   9.269   3.518
 1914SOL    HW1 7581   9.731   9.349   3.530
 1914SOL    HW2 7582   9.678   9.229   3.605
 1915SOL     OW 7583   2.990   6.078   0.184
 1915SOL    HW1 7584   3.062   6.032   0.140
 1915SOL    HW2 7585   2.914   6.063   0.128
 1916SOL     OW 7586  13.043   6.963  12.553
 1916SOL    HW1 7587  13.002   7.039  12.593
 1916SOL    HW2 7588  13.128   6.956  12.596
 1917SOL     OW 7589   8.559   1.678  10.810
 1917SOL    HW1 7590   8.576   1.591  10.775
 1917SOL    HW2 7591   8.646   1.717  10.821
 1918SOL     OW 7592   8.425  12.168  13.114
 1918SOL    HW1 7593   8.493  12.100  13.123
 1918SOL    HW2 7594   8.404  12.169  13.021
 1919SOL     OW 7595  14.472   5.163  14.182
 1919SOL    HW1 7596  14.529   5.128  14.114
 1919SOL    HW2 7597  14.401   5.206  14.133
 1920SOL     OW 7598   2.334   5.775  14.429
 1920SOL    HW1 7599   2.278   5.705  14.396
 1920SOL    HW2 7600   2.283   5.855  14.415
 1921SOL     OW 7601  11.865   0.132  11.706
 1921SOL    HW1 7602  11.874   0.228  11.713
 1921SOL    HW2 7603  11.916   0.109  11.629
 1922SOL     OW 7604  14.803   0.584   5.504
 1922SOL    HW1 7605  14.738   0.653   5.492
 1922SOL    HW2 7606  14.770   0.511   5.451
 1923SOL     OW 7607  12.436  12.109  10.570
 1923SOL    HW1 7608  12.346  12.094  10.598
 1923SOL    HW2 7609  12.429  12.168  10.495
 1924SOL     OW 7610   7.359   4.505  14.585
 1924SOL    HW1 7611   7.356   4.547  14.671
 1924SOL    HW2 7612   7.407   4.566  14.529
 1925SOL     OW 7613   8.784   5.356   8.614
 1925SOL    HW1 7614   8.763   5.385   8.525
 1925SOL    HW2 7615   8.754   5.265   8.617
 1926SOL     OW 7616   1.996  10.106  12.683
 1926SOL    HW1 7617   1.948  10.052  12.746
 1926SOL    HW2 7618   1.940  10.182  12.669
 1927SOL     OW 7619   5.485   3.958   4.170
 1927SOL    HW1 7620   5.481   3.867   4.200
 1927SOL    HW2 7621   5.394   3.982   4.155
 1928SOL     OW 7622   4.067  13.463   9.853
 1928SOL    HW1 7623   4.131  13.422   9.912
 1928SOL    HW2 7624   4.116  13.533   9.810
 1929SOL     OW 7625   1.534   2.213   8.316
 1929SOL    HW1 7626   1.455   2.238   8.267
 1929SOL    HW2 7627   1.605   2.256   8.268
 1930SOL     OW 7628  14.733   8.483   5.136
 1930SOL    HW1 7629  14.791   8.555   5.160
 1930SOL    HW2 7630  14.665   8.483   5.203
 1931SOL     OW 7631  14.434   6.128  13.948
 1931SOL    HW1 7632  14.364   6.122  14.012
 1931SOL    HW2 7633  14.392   6.161  13.869
 1932SOL     OW 7634   7.729  13.289   8.457
 1932SOL    HW1 7635   7.649  13.237   8.453
 1932SOL    HW2 7636   7.699  13.379   8.465
 1933SOL     OW 7637   3.645   1.714   7.568
 1933SOL    HW1 7638   3.593   1.789   7.596
 1933SOL    HW2 7639   3.735   1.748   7.561
 1934SOL     OW 7640   2.814  11.988   7.730
 1934SOL    HW1 7641   2.875  12.036   7.674
 1934SOL    HW2 7642   2.727  12.022   7.707
 1935SOL     OW 7643  10.829  12.863  13.676
 1935SOL    HW1 7644  10.880  12.797  13.723
 1935SOL    HW2 7645  10.782  12.911  13.745
 1936SOL     OW 7646  13.417  12.281   4.863
 1936SOL    HW1 7647  13.427  12.187   4.873
 1936SOL    HW2 7648  13.420  12.315   4.953
 1937SOL     OW 7649  13.930   2.916   6.674
 1937SOL    HW1 7650  13.914   2.826   6.646
 1937SOL    HW2 7651  14.025   2.927   6.665
 1938SOL     OW 7652   1.900   3.702  14.255
 1938SOL    HW1 7653   1.961   3.729  14.186
 1938SOL    HW2 7654   1.829   3.766  14.250
 1939SOL     OW 7655   0.728   7.428   0.604
 1939SOL    HW1 7656   0.815   7.442   0.641
 1939SOL    HW2 7657   0.668   7.466   0.669
 1940SOL     OW 7658  10.028  11.295   0.020
 1940SOL    HW1 7659  10.057  11.318   0.108
 1940SOL    HW2 7660  10.047  11.373  14.844
 1941SOL     OW 7661   1.341   0.857  12.423
 1941SOL    HW1 7662   1.247   0.854  12.404
 1941SOL    HW2 7663   1.363   0.767  12.447
 1942SOL     OW 7664  11.611  13.474   5.207
 1942SOL    HW1 7665  11.703  13.484   5.186
 1942SOL    HW2 7666  11.607  13.479   5.303
 1943SOL     OW 7667  11.517   2.390  13.878
 1943SOL    HW1 7668  11.451   2.455  13.902
 1943SOL    HW2 7669  11.505   2.378  13.784
 1944SOL     OW 7670   7.401  12.932   5.060
 1944SOL    HW1 7671   7.414  12.839   5.077
 1944SOL    HW2 7672   7.306  12.945   5.068
 1945SOL     OW 7673  12.192   3.935   0.854
 1945SOL    HW1 7674  12.132   3.866   0.880
 1945SOL    HW2 7675  12.259   3.891   0.801
 1946SOL     OW 7676   7.829  10.726   6.742
 1946SOL    HW1 7677   7.831  10.636   6.775
 1946SOL    HW2 7678   7.753  10.765   6.786
 1947SOL     OW 7679  13.362   1.503  12.315
 1947SOL    HW1 7680  13.328   1.469  12.232
 1947SOL    HW2 7681  13.373   1.426  12.370
 1948SOL     OW 7682   5.033   8.563   9.157
 1948SOL    HW1 7683   5.094   8.630   9.126
 1948SOL    HW2 7684   4.972   8.611   9.213
 1949SOL     OW 7685   3.009  11.805  11.982
 1949SOL    HW1 7686   2.926  11.807  12.030
 1949SOL    HW2 7687   2.997  11.737  11.916
 1950SOL     OW 7688  13.384   2.721   1.492
 1950SOL    HW1 7689  13.387   2.787   1.561
 1950SOL    HW2 7690  13.294   2.687   1.496
 1951SOL     OW 7691   8.212   5.881   7.240
 1951SOL    HW1 7692   8.213   5.881   7.336
 1951SOL    HW2 7693   8.198   5.789   7.216
 1952SOL     OW 7694   8.838  14.232   9.343
 1952SOL    HW1 7695   8.817  14.291   9.271
 1952SOL    HW2 7696   8.926  14.201   9.324
 1953SOL     OW 7697  13.622   1.328   6.187
 1953SOL    HW1 7698  13.713   1.339   6.159
 1953SOL    HW2 7699  13.596   1.416   6.215
 1954SOL     OW 7700   6.062  13.744   6.252
 1954SOL    HW1 7701   6.039  13.832   6.280
 1954SOL    HW2 7702   6.056  13.746   6.157
 1955SOL     OW 7703   8.146   4.905  12.577
 1955SOL    HW1 7704   8.066   4.956  12.568
 1955SOL    HW2 7705   8.210   4.967  12.611
 1956SOL     OW 7706  13.780   8.080   3.735
 1956SOL    HW1 7707  13.689   8.090   3.705
 1956SOL    HW2 7708  13.774   8.024   3.812
 1957SOL     OW 7709  12.948   3.116   2.110
 1957SOL    HW1 7710  12.877   3.159   2.158
 1957SOL    HW2 7711  12.927   3.023   2.116
 1958SOL     OW 7712  13.436  12.348   7.645
 1958SOL    HW1 7713  13.363  12.409   7.652
 1958SOL    HW2 7714  13.459  12.327   7.735
 1959SOL     OW 7715   7.566   9.276   6.558
 1959SOL    HW1 7716   7.558   9.343   6.489
 1959SOL    HW2 7717   7.483   9.281   6.605
 1960SOL     OW 7718  12.554   0.547   8.054
 1960SOL    HW1 7719  12.552   0.626   8.000
 1960SOL    HW2 7720  12.621   0.492   8.012
 1961SOL     OW 7721   5.518  11.790  12.104
 1961SOL    HW1 7722   5.607  11.782  12.071
 1961SOL    HW2 7723   5.515  11.734  12.181
 1962SOL     OW 7724  11.579   4.952   3.466
 1962SOL    HW1 7725  11.567   4.997   3.550
 1962SOL    HW2 7726  11.672   4.929   3.464
 1963SOL     OW 7727  11.305  10.044  14.126
 1963SOL    HW1 7728  11.232  10.106  14.123
 1963SOL    HW2 7729  11.383  10.099  14.113
 1964SOL     OW 7730   4.481  11.608   6.426
 1964SOL    HW1 7731   4.462  11.586   6.517
 1964SOL    HW2 7732   4.574  11.588   6.415
 1965SOL     OW 7733   8.056   5.241   1.808
 1965SOL    HW1 7734   8.017   5.328   1.803
 1965SOL    HW2 7735   8.063   5.222   1.901
 1966SOL     OW 7736   8.497  14.579   7.053
 1966SOL    HW1 7737   8.422  14.625   7.014
 1966SOL    HW2 7738   8.554  14.560   6.979
 1967SOL     OW 7739  11.059   5.429   3.537
 1967SOL    HW1 7740  11.092   5.370   3.605
 1967SOL    HW2 7741  10.978   5.465   3.573
 1968SOL     OW 7742  11.644   8.622  13.761
 1968SOL    HW1 7743  11.569   8.579  13.720
 1968SOL    HW2 7744  11.714   8.557  13.759
 1969SOL     OW 7745  12.972  13.486   8.295
 1969SOL    HW1 7746  12.967  13.400   8.338
 1969SOL    HW2 7747  12.974  13.549   8.366
 1970SOL     OW 7748  14.515   6.158   7.919
 1970SOL    HW1 7749  14.599   6.167   7.874
 1970SOL    HW2 7750  14.507   6.239   7.970
 1971SOL     OW 7751   0.570  10.831  13.301
 1971SOL    HW1 7752   0.510  10.865  13.234
 1971SOL    HW2 7753   0.550  10.884  13.379
 1972SOL     OW 7754   7.468   6.499   9.818
 1972SOL    HW1 7755   7.476   6.437   9.746
 1972SOL    HW2 7756   7.474   6.585   9.776
 1973SOL     OW 7757  14.272   3.107   4.957
 1973SOL    HW1 7758  14.197   3.057   4.925
 1973SOL    HW2 7759  14.255   3.197   4.928
 1974SOL     OW 7760  11.515   6.537   8.998
 1974SOL    HW1 7761  11.474   6.581   8.924
 1974SOL    HW2 7762  11.604   6.517   8.969
 1975SOL     OW 7763  13.806  14.876  13.035
 1975SOL    HW1 7764  13.814   0.050  12.954
 1975SOL    HW2 7765  13.871   0.038  13.094
 1976SOL     OW 7766  11.451   8.340  11.904
 1976SOL    HW1 7767  11.497   8.256  11.899
 1976SOL    HW2 7768  11.415   8.353  11.816
 1977SOL     OW 7769   1.199   8.274   6.896
 1977SOL    HW1 7770   1.233   8.354   6.935
 1977SOL    HW2 7771   1.241   8.203   6.945
 1978SOL     OW 7772   4.958  14.608   2.285
 1978SOL    HW1 7773   4.878  14.642   2.243
 1978SOL    HW2 7774   5.015  14.684   2.291
 1979SOL     OW 7775   0.214   2.146   3.996
 1979SOL    HW1 7776   0.199   2.220   4.055
 1979SOL    HW2 7777   0.270   2.182   3.928
 1980SOL     OW 7778   8.491  14.472  10.711
 1980SOL    HW1 7779   8.452  14.455  10.626
 1980SOL    HW2 7780   8.420  14.455  10.774
 1981SOL     OW 7781  11.125  10.997  10.530
 1981SOL    HW1 7782  11.179  10.989  10.451
 1981SOL    HW2 7783  11.182  10.966  10.600
 1982SOL     OW 7784  11.509   9.659   7.866
 1982SOL    HW1 7785  11.593   9.704   7.859
 1982SOL    HW2 7786  11.520   9.580   7.813
 1983SOL     OW 7787   9.469  12.916   7.767
 1983SOL    HW1 7788   9.405  12.912   7.697
 1983SOL    HW2 7789   9.487  13.009   7.778
 1984SOL     OW 7790   6.054  13.045   9.578
 1984SOL    HW1 7791   6.100  13.092   9.647
 1984SOL    HW2 7792   5.972  13.093   9.566
 1985SOL     OW 7793   9.618   8.058   1.779
 1985SOL    HW1 7794   9.617   7.974   1.733
 1985SOL    HW2 7795   9.527   8.088   1.776
 1986SOL     OW 7796   4.086   8.982   0.467
 1986SOL    HW1 7797   4.132   8.920   0.411
 1986SOL    HW2 7798   3.997   8.986   0.432
 1987SOL     OW 7799   3.901   0.339   3.574
 1987SOL    HW1 7800   3.846   0.415   3.556
 1987SOL    HW2 7801   3.841   0.276   3.613
 1988SOL     OW 7802  11.955   2.853   6.956
 1988SOL    HW1 7803  12.011   2.879   7.029
 1988SOL    HW2 7804  11.965   2.923   6.892
 1989SOL     OW 7805  10.220   3.667   0.788
 1989SOL    HW1 7806  10.157   3.694   0.722
 1989SOL    HW2 7807  10.288   3.734   0.786
 1990SOL     OW 7808  13.453   2.715   3.202
 1990SOL    HW1 7809  13.445   2.688   3.111
 1990SOL    HW2 7810  13.546   2.702   3.223
 1991SOL     OW 7811  10.850   6.237  14.030
 1991SOL    HW1 7812  10.851   6.149  13.993
 1991SOL    HW2 7813  10.787   6.232  14.102
 1992SOL     OW 7814   0.861   4.424   7.983
 1992SOL    HW1 7815   0.907   4.446   8.064
 1992SOL    HW2 7816   0.904   4.477   7.916
 1993SOL     OW 7817  14.754   8.820   5.349
 1993SOL    HW1 7818  14.792   8.871   5.278
 1993SOL    HW2 7819  14.825   8.761   5.377
 1994SOL     OW 7820   6.324  13.496   2.630
 1994SOL    HW1 7821   6.324  13.402   2.614
 1994SOL    HW2 7822   6.394  13.510   2.694
 1995SOL     OW 7823  11.165  12.510   3.709
 1995SOL    HW1 7824  11.194  12.446   3.774
 1995SOL    HW2 7825  11.245  12.545   3.671
 1996SOL     OW 7826   4.555   1.145  12.833
 1996SOL    HW1 7827   4.492   1.131  12.763
 1996SOL    HW2 7828   4.536   1.076  12.897
 1997SOL     OW 7829  12.580   0.606   6.788
 1997SOL    HW1 7830  12.565   0.533   6.848
 1997SOL    HW2 7831  12.662   0.584   6.743
 1998SOL     OW 7832   0.581  10.820   5.715
 1998SOL    HW1 7833   0.575  10.726   5.698
 1998SOL    HW2 7834   0.588  10.860   5.629
 1999SOL     OW 7835  14.456   2.899  14.196
 1999SOL    HW1 7836  14.466   2.992  14.175
 1999SOL    HW2 7837  14.471   2.854  14.113
 2000SOL     OW 7838  14.593   3.218   8.487
 2000SOL    HW1 7839  14.667   3.211   8.427
 2000SOL    HW2 7840  14.622   3.175   8.567
 2001SOL     OW 7841   1.657   1.781   9.521
 2001SOL    HW1 7842   1.592   1.851   9.529
 2001SOL    HW2 7843   1.633   1.719   9.590
 2002SOL     OW 7844   4.207   9.605  14.567
 2002SOL    HW1 7845   4.117   9.615  14.537
 2002SOL    HW2 7846   4.243   9.535  14.513
 2003SOL     OW 7847  14.830   7.043   3.602
 2003SOL    HW1 7848   0.009   7.090   3.665
 2003SOL    HW2 7849  14.741   7.068   3.626
 2004SOL     OW 7850  10.394   6.138   0.193
 2004SOL    HW1 7851  10.415   6.227   0.163
 2004SOL    HW2 7852  10.361   6.094   0.115
 2005SOL     OW 7853  13.818  14.062  10.943
 2005SOL    HW1 7854  13.809  14.149  10.981
 2005SOL    HW2 7855  13.911  14.040  10.954
 2006SOL     OW 7856  13.779   2.503  13.864
 2006SOL    HW1 7857  13.770   2.496  13.769
 2006SOL    HW2 7858  13.866   2.467  13.882
 2007SOL     OW 7859  13.718   4.552   5.617
 2007SOL    HW1 7860  13.718   4.459   5.596
 2007SOL    HW2 7861  13.637   4.586   5.580
 2008SOL     OW 7862  10.347   3.359   8.423
 2008SOL    HW1 7863  10.294   3.328   8.497
 2008SOL    HW2 7864  10.429   3.387   8.463
 2009SOL     OW 7865   2.192  11.926  13.968
 2009SOL    HW1 7866   2.205  11.849  13.912
 2009SOL    HW2 7867   2.157  11.993  13.909
 2010SOL     OW 7868   5.545   4.253   3.316
 2010SOL    HW1 7869   5.539   4.186   3.384
 2010SOL    HW2 7870   5.458   4.294   3.315
 2011SOL     OW 7871  10.754   3.996  11.275
 2011SOL    HW1 7872  10.676   3.995  11.219
 2011SOL    HW2 7873  10.722   3.978  11.363
 2012SOL     OW 7874   3.365  14.312  14.152
 2012SOL    HW1 7875   3.450  14.319  14.195
 2012SOL    HW2 7876   3.386  14.311  14.059
 2013SOL     OW 7877  12.292   5.863   9.470
 2013SOL    HW1 7878  12.348   5.915   9.412
 2013SOL    HW2 7879  12.339   5.780   9.480
 2014SOL     OW 7880  11.065  11.907   4.500
 2014SOL    HW1 7881  10.992  11.848   4.483
 2014SOL    HW2 7882  11.116  11.863   4.568
 2015SOL     OW 7883   2.453  12.060   1.562
 2015SOL    HW1 7884   2.477  12.152   1.566
 2015SOL    HW2 7885   2.364  12.060   1.527
 2016SOL     OW 7886  10.454  10.804   4.492
 2016SOL    HW1 7887  10.540  10.830   4.458
 2016SOL    HW2 7888  10.464  10.808   4.587
 2017SOL     OW 7889   0.937  10.749   2.542
 2017SOL    HW1 7890   0.896  10.691   2.607
 2017SOL    HW2 7891   0.973  10.821   2.594
 2018SOL     OW 7892   8.537  10.523   3.998
 2018SOL    HW1 7893   8.484  10.471   4.058
 2018SOL    HW2 7894   8.473  10.574   3.948
 2019SOL     OW 7895   2.533   2.714   1.280
 2019SOL    HW1 7896   2.466   2.689   1.216
 2019SOL    HW2 7897   2.546   2.808   1.265
 2020SOL     OW 7898  10.360   5.199  14.051
 2020SOL    HW1 7899  10.276   5.195  14.096
 2020SOL    HW2 7900  10.424   5.212  14.122
 2021SOL     OW 7901   3.344   7.157  11.740
 2021SOL    HW1 7902   3.406   7.227  11.764
 2021SOL    HW2 7903   3.296   7.139  11.821
 2022SOL     OW 7904   2.500   8.762   2.312
 2022SOL    HW1 7905   2.406   8.782   2.310
 2022SOL    HW2 7906   2.510   8.703   2.387
 2023SOL     OW 7907  10.378   2.903  10.282
 2023SOL    HW1 7908  10.359   2.810  10.279
 2023SOL    HW2 7909  10.333   2.939  10.205
 2024SOL     OW 7910   0.932  14.222  12.146
 2024SOL    HW1 7911   0.964  14.135  12.120
 2024SOL    HW2 7912   0.892  14.208  12.232
 2025SOL     OW 7913   4.119  11.536   6.709
 2025SOL    HW1 7914   4.159  11.457   6.673
 2025SOL    HW2 7915   4.107  11.593   6.634
 2026SOL     OW 7916   1.481   3.464   4.089
 2026SOL    HW1 7917   1.450   3.403   4.022
 2026SOL    HW2 7918   1.402   3.497   4.130
 2027SOL     OW 7919  13.668   2.597  12.586
 2027SOL    HW1 7920  13.598   2.602  12.521
 2027SOL    HW2 7921  13.732   2.538  12.546
 2028SOL     OW 7922  14.410  14.549   9.531
 2028SOL    HW1 7923  14.328  14.593   9.555
 2028SOL    HW2 7924  14.479  14.608   9.564
 2029SOL     OW 7925   6.443   4.681   9.825
 2029SOL    HW1 7926   6.467   4.719   9.740
 2029SOL    HW2 7927   6.456   4.587   9.813
 2030SOL     OW 7928  11.888  13.551   5.202
 2030SOL    HW1 7929  11.962  13.520   5.254
 2030SOL    HW2 7930  11.923  13.560   5.113
 2031SOL     OW 7931   7.938   2.515   3.349
 2031SOL    HW1 7932   8.012   2.480   3.399
 2031SOL    HW2 7933   7.903   2.440   3.301
 2032SOL     OW 7934  14.772   4.575  10.627
 2032SOL    HW1 7935  14.687   4.597  10.665
 2032SOL    HW2 7936  14.781   4.634  10.552
 2033SOL     OW 7937   4.089   6.794   2.376
 2033SOL    HW1 7938   3.999   6.764   2.365
 2033SOL    HW2 7939   4.137   6.716   2.403
 2034SOL     OW 7940   1.915   5.550   7.550
 2034SOL    HW1 7941   1.842   5.505   7.508
 2034SOL    HW2 7942   1.943   5.615   7.485
 2035SOL     OW 7943   5.134   2.394   6.203
 2035SOL    HW1 7944   5.088   2.332   6.147
 2035SOL    HW2 7945   5.072   2.467   6.213
 2036SOL     OW 7946   8.768   8.765   0.933
 2036SOL    HW1 7947   8.829   8.831   0.966
 2036SOL    HW2 7948   8.816   8.683   0.939
 2037SOL     OW 7949   9.113   8.880   5.821
 2037SOL    HW1 7950   9.067   8.848   5.898
 2037SOL    HW2 7951   9.170   8.808   5.795
 2038SOL     OW 7952   4.464   7.191  14.130
 2038SOL    HW1 7953   4.397   7.175  14.197
 2038SOL    HW2 7954   4.547   7.169  14.173
 2039SOL     OW 7955   7.157   3.892   6.684
 2039SOL    HW1 7956   7.153   3.964   6.622
 2039SOL    HW2 7957   7.089   3.832   6.655
 2040SOL     OW 7958  11.397  14.731   3.984
 2040SOL    HW1 7959  11.426  14.818   3.957
 2040SOL    HW2 7960  11.393  14.737   4.080
 2041SOL     OW 7961  14.552   3.692   2.707
 2041SOL    HW1 7962  14.571   3.633   2.634
 2041SOL    HW2 7963  14.540   3.778   2.666
 2042SOL     OW 7964   5.185   3.128   0.813
 2042SOL    HW1 7965   5.250   3.062   0.835
 2042SOL    HW2 7966   5.133   3.138   0.893
 2043SOL     OW 7967  13.188   8.755   0.869
 2043SOL    HW1 7968  13.119   8.711   0.919
 2043SOL    HW2 7969  13.248   8.789   0.935
 2044SOL     OW 7970   0.635   4.695   9.219
 2044SOL    HW1 7971   0.549   4.668   9.252
 2044SOL    HW2 7972   0.694   4.624   9.245
 2045SOL     OW 7973   5.791  14.226   5.101
 2045SOL    HW1 7974   5.777  14.265   5.187
 2045SOL    HW2 7975   5.886  14.219   5.093
 2046SOL     OW 7976   7.224  11.283   1.606
 2046SOL    HW1 7977   7.134  11.254   1.595
 2046SOL    HW2 7978   7.273  11.236   1.539
 2047SOL     OW 7979   2.564   6.069   8.328
 2047SOL    HW1 7980   2.499   6.106   8.388
 2047SOL    HW2 7981   2.644   6.063   8.381
 2048SOL     OW 7982   6.087   6.107   8.006
 2048SOL    HW1 7983   6.141   6.133   8.081
 2048SOL    HW2 7984   5.997   6.125   8.033
 2049SOL     OW 7985   9.178   9.718  12.406
 2049SOL    HW1 7986   9.194   9.645  12.345
 2049SOL    HW2 7987   9.223   9.691  12.486
 2050SOL     OW 7988   7.699   3.679  11.174
 2050SOL    HW1 7989   7.747   3.760  11.191
 2050SOL    HW2 7990   7.712   3.626  11.253
 2051SOL     OW 7991   1.795  10.017  12.085
 2051SOL    HW1 7992   1.795  10.100  12.133
 2051SOL    HW2 7993   1.803  10.043  11.993
 2052SOL     OW 7994  11.349   4.022   1.702
 2052SOL    HW1 7995  11.408   3.968   1.755
 2052SOL    HW2 7996  11.366   4.111   1.731
 2053SOL     OW 7997   7.871   1.572   3.135
 2053SOL    HW1 7998   7.815   1.647   3.158
 2053SOL    HW2 7999   7.959   1.598   3.161
 2054SOL     OW 8000  11.498   6.174   0.956
 2054SOL    HW1 8001  11.415   6.153   0.999
 2054SOL    HW2 8002  11.474   6.212   0.872
 2055SOL     OW 8003   8.215   1.936   9.236
 2055SOL    HW1 8004   8.200   1.916   9.144
 2055SOL    HW2 8005   8.236   1.852   9.276
 2056SOL     OW 8006   3.432   9.087   6.772
 2056SOL    HW1 8007   3.524   9.059   6.774
 2056SOL    HW2 8008   3.427   9.149   6.700
 2057SOL     OW 8009   7.321   7.701  12.523
 2057SOL    HW1 8010   7.409   7.667  12.538
 2057SOL    HW2 8011   7.323   7.733  12.432
 2058SOL     OW 8012  13.454   0.526   1.372
 2058SOL    HW1 8013  13.464   0.484   1.286
 2058SOL    HW2 8014  13.446   0.619   1.353
 2059SOL     OW 8015   8.313  13.214  13.117
 2059SOL    HW1 8016   8.311  13.143  13.053
 2059SOL    HW2 8017   8.221  13.234  13.133
 2060SOL     OW 8018   9.173  12.307   3.927
 2060SOL    HW1 8019   9.170  12.375   3.994
 2060SOL    HW2 8020   9.234  12.340   3.861
 2061SOL     OW 8021   2.762   5.391   8.315
 2061SOL    HW1 8022   2.812   5.341   8.250
 2061SOL    HW2 8023   2.671   5.369   8.298
 2062SOL     OW 8024  13.708   0.642   0.038
 2062SOL    HW1 8025  13.635   0.604   0.086
 2062SOL    HW2 8026  13.670   0.717  14.868
 2063SOL     OW 8027   2.977   2.096   7.401
 2063SOL    HW1 8028   2.891   2.056   7.390
 2063SOL    HW2 8029   2.963   2.167   7.464
 2064SOL     OW 8030   4.309   7.430  11.532
 2064SOL    HW1 8031   4.273   7.482  11.460
 2064SOL    HW2 8032   4.318   7.491  11.604
 2065SOL     OW 8033   5.427   8.582  14.680
 2065SOL    HW1 8034   5.479   8.509  14.714
 2065SOL    HW2 8035   5.430   8.571  14.585
 2066SOL     OW 8036  10.090   6.410   3.484
 2066SOL    HW1 8037  10.185   6.416   3.479
 2066SOL    HW2 8038  10.068   6.443   3.571
 2067SOL     OW 8039  10.451  12.485   7.199
 2067SOL    HW1 8040  10.467  12.447   7.285
 2067SOL    HW2 8041  10.403  12.566   7.218
 2068SOL     OW 8042   9.812   1.688  11.218
 2068SOL    HW1 8043   9.760   1.683  11.298
 2068SOL    HW2 8044   9.875   1.616  11.225
 2069SOL     OW 8045   8.611  14.339   4.457
 2069SOL    HW1 8046   8.531  14.353   4.408
 2069SOL    HW2 8047   8.583  14.334   4.549
 2070SOL     OW 8048  14.565  12.573   1.175
 2070SOL    HW1 8049  14.558  12.498   1.233
 2070SOL    HW2 8050  14.516  12.547   1.097
 2071SOL     OW 8051  10.735   9.446   6.628
 2071SOL    HW1 8052  10.654   9.459   6.578
 2071SOL    HW2 8053  10.788   9.523   6.609
 2072SOL     OW 8054   0.443  11.826   3.759
 2072SOL    HW1 8055   0.471  11.905   3.805
 2072SOL    HW2 8056   0.491  11.755   3.801
 2073SOL     OW 8057   1.205  11.345   8.456
 2073SOL    HW1 8058   1.162  11.280   8.511
 2073SOL    HW2 8059   1.246  11.405   8.518
 2074SOL     OW 8060   1.046   1.160   9.371
 2074SOL    HW1 8061   1.010   1.249   9.368
 2074SOL    HW2 8062   1.109   1.157   9.299
 2075SOL     OW 8063   0.296   3.073   2.946
 2075SOL    HW1 8064   0.273   3.064   3.038
 2075SOL    HW2 8065   0.381   3.116   2.946
 2076SOL     OW 8066   5.226   0.376   9.484
 2076SOL    HW1 8067   5.241   0.454   9.537
 2076SOL    HW2 8068   5.182   0.409   9.406
 2077SOL     OW 8069   3.064   7.557  14.810
 2077SOL    HW1 8070   3.125   7.619  14.850
 2077SOL    HW2 8071   2.986   7.561  14.864
 2078SOL     OW 8072   1.312   6.743   4.732
 2078SOL    HW1 8073   1.294   6.788   4.649
 2078SOL    HW2 8074   1.398   6.704   4.720
 2079SOL     OW 8075   4.060   1.456   7.502
 2079SOL    HW1 8076   4.032   1.375   7.546
 2079SOL    HW2 8077   4.071   1.430   7.411
 2080SOL     OW 8078   4.016   0.188   1.482
 2080SOL    HW1 8079   4.045   0.170   1.571
 2080SOL    HW2 8080   3.940   0.131   1.470
 2081SOL     OW 8081   8.402   0.054   2.838
 2081SOL    HW1 8082   8.480   0.108   2.826
 2081SOL    HW2 8083   8.420  14.851   2.787
 2082SOL     OW 8084   6.903   5.805  12.264
 2082SOL    HW1 8085   6.954   5.881  12.289
 2082SOL    HW2 8086   6.884   5.817  12.171
 2083SOL     OW 8087   1.491  13.148  12.987
 2083SOL    HW1 8088   1.574  13.189  13.010
 2083SOL    HW2 8089   1.514  13.057  12.966
 2084SOL     OW 8090   2.487   4.429   5.702
 2084SOL    HW1 8091   2.453   4.449   5.615
 2084SOL    HW2 8092   2.573   4.470   5.703
 2085SOL     OW 8093  12.755   3.334   8.945
 2085SOL    HW1 8094  12.806   3.339   8.864
 2085SOL    HW2 8095  12.748   3.424   8.975
 2086SOL     OW 8096   8.900   6.065   3.164
 2086SOL    HW1 8097   8.821   6.032   3.208
 2086SOL    HW2 8098   8.895   6.160   3.176
 2087SOL     OW 8099   8.615   0.909  13.243
 2087SOL    HW1 8100   8.598   0.975  13.311
 2087SOL    HW2 8101   8.685   0.948  13.190
 2088SOL     OW 8102   3.647   5.816  14.453
 2088SOL    HW1 8103   3.716   5.750  14.456
 2088SOL    HW2 8104   3.666   5.874  14.527
 2089SOL     OW 8105  12.796   9.078   9.745
 2089SOL    HW1 8106  12.881   9.034   9.736
 2089SOL    HW2 8107  12.775   9.109   9.657
 2090SOL     OW 8108  12.982   8.485   6.946
 2090SOL    HW1 8109  12.972   8.556   6.882
 2090SOL    HW2 8110  12.961   8.526   7.030
 2091SOL     OW 8111   2.802  12.425   1.008
 2091SOL    HW1 8112   2.836  12.357   1.066
 2091SOL    HW2 8113   2.795  12.382   0.923
 2092SOL     OW 8114  13.722   5.360   2.042
 2092SOL    HW1 8115  13.817   5.362   2.031
 2092SOL    HW2 8116  13.688   5.335   1.956
 2093SOL     OW 8117   9.210   3.428   9.713
 2093SOL    HW1 8118   9.189   3.517   9.686
 2093SOL    HW2 8119   9.128   3.395   9.750
 2094SOL     OW 8120   4.152   6.910   0.820
 2094SOL    HW1 8121   4.148   6.938   0.912
 2094SOL    HW2 8122   4.227   6.852   0.816
 2095SOL     OW 8123   9.564  12.546   5.534
 2095SOL    HW1 8124   9.630  12.484   5.563
 2095SOL    HW2 8125   9.489  12.530   5.591
 2096SOL     OW 8126   2.224  13.387   2.897
 2096SOL    HW1 8127   2.201  13.416   2.809
 2096SOL    HW2 8128   2.318  13.367   2.892
 2097SOL     OW 8129   2.813  10.315  11.112
 2097SOL    HW1 8130   2.851  10.295  11.197
 2097SOL    HW2 8131   2.787  10.230  11.077
 2098SOL     OW 8132   9.776  14.405   9.935
 2098SOL    HW1 8133   9.837  14.478   9.948
 2098SOL    HW2 8134   9.690  14.447   9.930
 2099SOL     OW 8135  12.302  14.484   7.086
 2099SOL    HW1 8136  12.208  14.499   7.094
 2099SOL    HW2 8137  12.342  14.570   7.103
 2100SOL     OW 8138   1.109   3.186   2.770
 2100SOL    HW1 8139   1.035   3.134   2.738
 2100SOL    HW2 8140   1.165   3.124   2.815
 2101SOL     OW 8141   2.676   4.900   9.151
 2101SOL    HW1 8142   2.630   4.834   9.099
 2101SOL    HW2 8143   2.763   4.864   9.164
 2102SOL     OW 8144   6.726  11.996   4.258
 2102SOL    HW1 8145   6.652  11.970   4.313
 2102SOL    HW2 8146   6.803  11.983   4.313
 2103SOL     OW 8147  12.897   4.543  11.002
 2103SOL    HW1 8148  12.978   4.594  11.000
 2103SOL    HW2 8149  12.883   4.523  11.094
 2104SOL     OW 8150  11.270   3.708   4.212
 2104SOL    HW1 8151  11.208   3.766   4.256
 2104SOL    HW2 8152  11.215   3.650   4.158
 2105SOL     OW 8153   6.399   0.410  12.118
 2105SOL    HW1 8154   6.398   0.320  12.149
 2105SOL    HW2 8155   6.371   0.404  12.027
 2106SOL     OW 8156   2.141   6.278  11.646
 2106SOL    HW1 8157   2.177   6.341  11.708
 2106SOL    HW2 8158   2.216   6.246  11.598
 2107SOL     OW 8159   1.289   4.735   0.031
 2107SOL    HW1 8160   1.213   4.794   0.031
 2107SOL    HW2 8161   1.293   4.701   0.120
 2108SOL     OW 8162   6.497   5.245   9.318
 2108SOL    HW1 8163   6.540   5.295   9.388
 2108SOL    HW2 8164   6.404   5.257   9.334
 2109SOL     OW 8165   2.192  10.581   6.297
 2109SOL    HW1 8166   2.239  10.606   6.217
 2109SOL    HW2 8167   2.250  10.519   6.341
 2110SOL     OW 8168   4.749  14.549  12.099
 2110SOL    HW1 8169   4.691  14.618  12.067
 2110SOL    HW2 8170   4.827  14.555  12.044
 2111SOL     OW 8171  10.709   8.005   8.281
 2111SOL    HW1 8172  10.697   7.918   8.320
 2111SOL    HW2 8173  10.790   8.037   8.319
 2112SOL     OW 8174   1.255   4.207   0.443
 2112SOL    HW1 8175   1.313   4.198   0.519
 2112SOL    HW2 8176   1.268   4.128   0.392
 2113SOL     OW 8177   3.076   9.218   5.421
 2113SOL    HW1 8178   3.159   9.188   5.459
 2113SOL    HW2 8179   3.009   9.162   5.462
 2114SOL     OW 8180   7.135   5.396   4.222
 2114SOL    HW1 8181   7.222   5.362   4.201
 2114SOL    HW2 8182   7.132   5.398   4.318
 2115SOL     OW 8183  14.647   7.884   0.833
 2115SOL    HW1 8184  14.629   7.803   0.881
 2115SOL    HW2 8185  14.586   7.948   0.869
 2116SOL     OW 8186   1.042   1.178  14.258
 2116SOL    HW1 8187   0.955   1.173  14.220
 2116SOL    HW2 8188   1.034   1.243  14.328
 2117SOL     OW 8189  12.655   9.547  13.849
 2117SOL    HW1 8190  12.734   9.539  13.796
 2117SOL    HW2 8191  12.636   9.458  13.879
 2118SOL     OW 8192   7.824  14.666   9.347
 2118SOL    HW1 8193   7.794  14.591   9.398
 2118SOL    HW2 8194   7.743  14.713   9.324
 2119SOL     OW 8195   3.656   1.708   5.213
 2119SOL    HW1 8196   3.691   1.621   5.192
 2119SOL    HW2 8197   3.715   1.769   5.169
 2120SOL     OW 8198  13.613  10.875   9.457
 2120SOL    HW1 8199  13.624  10.784   9.428
 2120SOL    HW2 8200  13.629  10.872   9.551
 2121SOL     OW 8201   2.291   3.988   8.719
 2121SOL    HW1 8202   2.260   4.045   8.790
 2121SOL    HW2 8203   2.238   4.014   8.644
 2122SOL     OW 8204  14.281   4.906  14.089
 2122SOL    HW1 8205  14.317   4.972  14.148
 2122SOL    HW2 8206  14.342   4.832  14.095
 2123SOL     OW 8207  10.151  12.665  13.718
 2123SOL    HW1 8208  10.192  12.616  13.789
 2123SOL    HW2 8209  10.152  12.605  13.644
 2124SOL     OW 8210  14.065   9.266   4.854
 2124SOL    HW1 8211  14.056   9.337   4.917
 2124SOL    HW2 8212  14.142   9.217   4.883
 2125SOL     OW 8213   9.210   6.618   8.475
 2125SOL    HW1 8214   9.278   6.631   8.409
 2125SOL    HW2 8215   9.130   6.648   8.433
 2126SOL     OW 8216   3.113   1.774  10.121
 2126SOL    HW1 8217   3.147   1.696  10.078
 2126SOL    HW2 8218   3.018   1.769  10.110
 2127SOL     OW 8219  11.915   8.946   8.792
 2127SOL    HW1 8220  11.942   9.036   8.812
 2127SOL    HW2 8221  11.976   8.916   8.725
 2128SOL     OW 8222  12.015  10.131   4.526
 2128SOL    HW1 8223  12.031  10.196   4.457
 2128SOL    HW2 8224  11.952  10.173   4.584
 2129SOL     OW 8225   8.799   6.655   8.750
 2129SOL    HW1 8226   8.772   6.728   8.806
 2129SOL    HW2 8227   8.765   6.678   8.664
 2130SOL     OW 8228   3.614   1.748   1.978
 2130SOL    HW1 8229   3.627   1.809   1.906
 2130SOL    HW2 8230   3.643   1.664   1.944
 2131SOL     OW 8231  12.964  13.539   0.203
 2131SOL    HW1 8232  13.051  13.550   0.163
 2131SOL    HW2 8233  12.910  13.606   0.162
 2132SOL     OW 8234   3.550   6.850   8.259
 2132SOL    HW1 8235   3.459   6.868   8.283
 2132SOL    HW2 8236   3.549   6.845   8.164
 2133SOL     OW 8237   0.344   2.065   2.354
 2133SOL    HW1 8238   0.292   2.031   2.281
 2133SOL    HW2 8239   0.421   2.007   2.357
 2134SOL     OW 8240   1.185   7.741  10.025
 2134SOL    HW1 8241   1.118   7.700   9.971
 2134SOL    HW2 8242   1.268   7.715   9.985
 2135SOL     OW 8243   1.219  13.061   6.475
 2135SOL    HW1 8244   1.270  13.052   6.556
 2135SOL    HW2 8245   1.131  13.031   6.498
 2136SOL     OW 8246   7.989   5.484   3.844
 2136SOL    HW1 8247   8.065   5.481   3.902
 2136SOL    HW2 8248   7.987   5.574   3.811
 2137SOL     OW 8249   2.125   1.064   3.996
 2137SOL    HW1 8250   2.106   1.073   4.089
 2137SOL    HW2 8251   2.170   0.979   3.989
 2138SOL     OW 8252   0.611   9.753  10.983
 2138SOL    HW1 8253   0.549   9.709  11.041
 2138SOL    HW2 8254   0.593   9.846  10.995
 2139SOL     OW 8255  13.764   1.548   0.211
 2139SOL    HW1 8256  13.822   1.474   0.228
 2139SOL    HW2 8257  13.800   1.590   0.133
 2140SOL     OW 8258   4.696  13.879   3.380
 2140SOL    HW1 8259   4.622  13.940   3.378
 2140SOL    HW2 8260   4.705  13.856   3.473
 2141SOL     OW 8261   8.275  13.715  11.968
 2141SOL    HW1 8262   8.257  13.709  11.874
 2141SOL    HW2 8263   8.211  13.777  12.001
 2142SOL     OW 8264   4.678   2.174   1.131
 2142SOL    HW1 8265   4.620   2.247   1.110
 2142SOL    HW2 8266   4.647   2.142   1.216
 2143SOL     OW 8267   5.808   5.571   6.879
 2143SOL    HW1 8268   5.750   5.529   6.943
 2143SOL    HW2 8269   5.784   5.530   6.796
 2144SOL     OW 8270   7.659   7.729  14.283
 2144SOL    HW1 8271   7.619   7.678  14.213
 2144SOL    HW2 8272   7.737   7.680  14.308
 2145SOL     OW 8273   6.824  14.535   7.966
 2145SOL    HW1 8274   6.745  14.499   7.925
 2145SOL    HW2 8275   6.844  14.473   8.037
 2146SOL     OW 8276   6.647   8.015   6.856
 2146SOL    HW1 8277   6.659   8.020   6.762
 2146SOL    HW2 8278   6.601   7.933   6.871
 2147SOL     OW 8279   9.784   3.465   2.995
 2147SOL    HW1 8280   9.753   3.418   2.918
 2147SOL    HW2 8281   9.727   3.436   3.066
 2148SOL     OW 8282   0.085   1.703  14.057
 2148SOL    HW1 8283   0.155   1.640  14.040
 2148SOL    HW2 8284   0.005   1.655  14.038
 2149SOL     OW 8285   3.901   0.738   0.777
 2149SOL    HW1 8286   3.910   0.643   0.769
 2149SOL    HW2 8287   3.806   0.754   0.776
 2150SOL     OW 8288   4.082  10.369   8.345
 2150SOL    HW1 8289   4.137  10.291   8.332
 2150SOL    HW2 8290   4.048  10.389   8.258
 2151SOL     OW 8291   7.668   4.190  10.626
 2151SOL    HW1 8292   7.739   4.248  10.653
 2151SOL    HW2 8293   7.636   4.228  10.544
 2152SOL     OW 8294  11.595  12.744   7.005
 2152SOL    HW1 8295  11.566  12.697   6.927
 2152SOL    HW2 8296  11.549  12.703   7.077
 2153SOL     OW 8297   7.226   3.927  12.616
 2153SOL    HW1 8298   7.262   3.852  12.664
 2153SOL    HW2 8299   7.255   4.003  12.665
 2154SOL     OW 8300   0.731   0.804   8.228
 2154SOL    HW1 8301   0.648   0.798   8.180
 2154SOL    HW2 8302   0.793   0.754   8.175
 2155SOL     OW 8303   7.819   5.895   1.368
 2155SOL    HW1 8304   7.860   5.854   1.444
 2155SOL    HW2 8305   7.792   5.982   1.399
 2156SOL     OW 8306   1.639   0.838  11.620
 2156SOL    HW1 8307   1.670   0.755  11.658
 2156SOL    HW2 8308   1.579   0.873  11.686
 2157SOL     OW 8309  13.175   9.651  11.681
 2157SOL    HW1 8310  13.113   9.707  11.728
 2157SOL    HW2 8311  13.224   9.711  11.625
 2158SOL     OW 8312  13.635   4.288   5.257
 2158SOL    HW1 8313  13.577   4.212   5.249
 2158SOL    HW2 8314  13.712   4.256   5.304
 2159SOL     OW 8315  13.876   8.925  10.375
 2159SOL    HW1 8316  13.877   9.011  10.333
 2159SOL    HW2 8317  13.862   8.863  10.303
 2160SOL     OW 8318   3.725   2.092   9.970
 2160SOL    HW1 8319   3.723   2.178  10.012
 2160SOL    HW2 8320   3.653   2.093   9.908
 2161SOL     OW 8321   5.629   9.815   5.273
 2161SOL    HW1 8322   5.685   9.843   5.201
 2161SOL    HW2 8323   5.582   9.739   5.237
 2162SOL     OW 8324   9.527   7.403   2.710
 2162SOL    HW1 8325   9.473   7.376   2.784
 2162SOL    HW2 8326   9.486   7.363   2.633
 2163SOL     OW 8327   7.062   8.120   3.513
 2163SOL    HW1 8328   7.118   8.151   3.442
 2163SOL    HW2 8329   7.119   8.122   3.590
 2164SOL     OW 8330   4.077   5.160   0.232
 2164SOL    HW1 8331   4.118   5.079   0.264
 2164SOL    HW2 8332   4.052   5.207   0.312
 2165SOL     OW 8333   0.366  10.375  10.689
 2165SOL    HW1 8334   0.420  10.437  10.737
 2165SOL    HW2 8335   0.428  10.310  10.655
 2166SOL     OW 8336  13.920   1.303   7.061
 2166SOL    HW1 8337  13.966   1.335   6.983
 2166SOL    HW2 8338  13.935   1.208   7.060
 2167SOL     OW 8339   2.464   1.218   9.378
 2167SOL    HW1 8340   2.542   1.170   9.405
 2167SOL    HW2 8341   2.412   1.154   9.329
 2168SOL     OW 8342  14.239  10.849   5.703
 2168SOL    HW1 8343  14.154  10.806   5.714
 2168SOL    HW2 8344  14.289  10.821   5.780
 2169SOL     OW 8345   3.607   2.813  12.147
 2169SOL    HW1 8346   3.645   2.885  12.198
 2169SOL    HW2 8347   3.516   2.809  12.177
 2170SOL     OW 8348   0.064  13.314  12.445
 2170SOL    HW1 8349   0.043  13.375  12.374
 2170SOL    HW2 8350   0.019  13.349  12.521
 2171SOL     OW 8351  11.560   8.841  11.448
 2171SOL    HW1 8352  11.565   8.764  11.503
 2171SOL    HW2 8353  11.479   8.884  11.474
 2172SOL     OW 8354   4.527   2.688   1.446
 2172SOL    HW1 8355   4.616   2.722   1.456
 2172SOL    HW2 8356   4.511   2.692   1.352
 2173SOL     OW 8357   7.947   7.803   2.233
 2173SOL    HW1 8358   7.925   7.822   2.324
 2173SOL    HW2 8359   7.862   7.786   2.191
 2174SOL     OW 8360   3.430   1.596   5.716
 2174SOL    HW1 8361   3.469   1.510   5.731
 2174SOL    HW2 8362   3.489   1.657   5.761
 2175SOL     OW 8363  13.665   7.642   1.420
 2175SOL    HW1 8364  13.716   7.663   1.498
 2175SOL    HW2 8365  13.661   7.547   1.419
 2176SOL     OW 8366   9.715   9.513   1.429
 2176SOL    HW1 8367   9.714   9.421   1.400
 2176SOL    HW2 8368   9.747   9.562   1.354
 2177SOL     OW 8369   1.229   7.090   7.931
 2177SOL    HW1 8370   1.232   7.107   8.025
 2177SOL    HW2 8371   1.309   7.130   7.898
 2178SOL     OW 8372  14.084  14.406  13.346
 2178SOL    HW1 8373  14.108  14.475  13.284
 2178SOL    HW2 8374  14.106  14.325  13.301
 2179SOL     OW 8375  12.260   0.102   0.191
 2179SOL    HW1 8376  12.300   0.016   0.177
 2179SOL    HW2 8377  12.194   0.109   0.122
 2180SOL     OW 8378   2.633   4.062  10.000
 2180SOL    HW1 8379   2.641   4.006   9.923
 2180SOL    HW2 8380   2.641   4.151   9.966
 2181SOL     OW 8381  11.634   0.073   6.053
 2181SOL    HW1 8382  11.723   0.101   6.074
 2181SOL    HW2 8383  11.631  14.857   6.078
 2182SOL     OW 8384  11.173   5.823   9.150
 2182SOL    HW1 8385  11.119   5.767   9.095
 2182SOL    HW2 8386  11.146   5.912   9.126
 2183SOL     OW 8387   4.627   9.240  10.054
 2183SOL    HW1 8388   4.611   9.332  10.031
 2183SOL    HW2 8389   4.721   9.236  10.072
 2184SOL     OW 8390  12.954   7.346  13.927
 2184SOL    HW1 8391  13.040   7.387  13.940
 2184SOL    HW2 8392  12.896   7.418  13.906
 2185SOL     OW 8393   4.185   6.447   2.962
 2185SOL    HW1 8394   4.234   6.475   2.884
 2185SOL    HW2 8395   4.189   6.351   2.959
 2186SOL     OW 8396  14.505   6.525   5.721
 2186SOL    HW1 8397  14.576   6.539   5.784
 2186SOL    HW2 8398  14.455   6.607   5.723
 2187SOL     OW 8399   1.556   4.505  10.888
 2187SOL    HW1 8400   1.518   4.574  10.833
 2187SOL    HW2 8401   1.599   4.447  10.826
 2188SOL     OW 8402   7.781   5.794  12.338
 2188SOL    HW1 8403   7.690   5.772  12.322
 2188SOL    HW2 8404   7.806   5.850  12.265
 2189SOL     OW 8405   6.585  10.269  13.477
 2189SOL    HW1 8406   6.639  10.344  13.448
 2189SOL    HW2 8407   6.497  10.290  13.447
 2190SOL     OW 8408   7.508   6.140  14.553
 2190SOL    HW1 8409   7.487   6.143  14.647
 2190SOL    HW2 8410   7.424   6.128  14.510
 2191SOL     OW 8411  11.720   7.002   1.093
 2191SOL    HW1 8412  11.669   7.080   1.070
 2191SOL    HW2 8413  11.692   6.935   1.031
 2192SOL     OW 8414  10.226  10.334   5.111
 2192SOL    HW1 8415  10.202  10.336   5.203
 2192SOL    HW2 8416  10.176  10.261   5.074
 2193SOL     OW 8417   5.406   7.185   5.530
 2193SOL    HW1 8418   5.424   7.273   5.497
 2193SOL    HW2 8419   5.464   7.176   5.606
 2194SOL     OW 8420   8.735  13.199   1.604
 2194SOL    HW1 8421   8.735  13.109   1.572
 2194SOL    HW2 8422   8.777  13.250   1.534
 2195SOL     OW 8423   0.709   4.866   7.530
 2195SOL    HW1 8424   0.781   4.895   7.474
 2195SOL    HW2 8425   0.692   4.776   7.502
 2196SOL     OW 8426  10.668  12.163   2.954
 2196SOL    HW1 8427  10.694  12.254   2.969
 2196SOL    HW2 8428  10.599  12.169   2.888
 2197SOL     OW 8429  13.384   5.799  12.367
 2197SOL    HW1 8430  13.341   5.728  12.414
 2197SOL    HW2 8431  13.348   5.796  12.279
 2198SOL     OW 8432   9.650   0.733   3.688
 2198SOL    HW1 8433   9.596   0.750   3.765
 2198SOL    HW2 8434   9.600   0.669   3.637
 2199SOL     OW 8435   4.998  13.095   4.857
 2199SOL    HW1 8436   5.043  13.178   4.874
 2199SOL    HW2 8437   4.906  13.119   4.846
 2200SOL     OW 8438  11.668   7.352   6.899
 2200SOL    HW1 8439  11.730   7.340   6.970
 2200SOL    HW2 8440  11.681   7.442   6.870
 2201SOL     OW 8441   3.717   2.661   4.245
 2201SOL    HW1 8442   3.657   2.717   4.196
 2201SOL    HW2 8443   3.801   2.668   4.199
 2202SOL     OW 8444   3.078   5.592   8.123
 2202SOL    HW1 8445   3.040   5.631   8.201
 2202SOL    HW2 8446   3.172   5.606   8.132
 2203SOL     OW 8447  13.762   3.802  14.873
 2203SOL    HW1 8448  13.842   3.850   0.014
 2203SOL    HW2 8449  13.759   3.792  14.778
 2204SOL     OW 8450   0.076  14.373   6.952
 2204SOL    HW1 8451   0.014  14.428   6.904
 2204SOL    HW2 8452   0.158  14.381   6.904
 2205SOL     OW 8453   7.148  11.984   4.341
 2205SOL    HW1 8454   7.186  11.972   4.255
 2205SOL    HW2 8455   7.218  11.963   4.402
 2206SOL     OW 8456   6.438   3.743   5.900
 2206SOL    HW1 8457   6.475   3.831   5.900
 2206SOL    HW2 8458   6.411   3.728   5.991
 2207SOL     OW 8459  13.841   0.066  14.632
 2207SOL    HW1 8460  13.910   0.065  14.566
 2207SOL    HW2 8461  13.876   0.119  14.704
 2208SOL     OW 8462   8.810   2.126  14.668
 2208SOL    HW1 8463   8.833   2.143  14.759
 2208SOL    HW2 8464   8.894   2.123  14.621
 2209SOL     OW 8465  13.544   3.244   9.024
 2209SOL    HW1 8466  13.534   3.337   9.046
 2209SOL    HW2 8467  13.475   3.200   9.072
 2210SOL     OW 8468   1.485  14.279   3.030
 2210SOL    HW1 8469   1.429  14.352   3.057
 2210SOL    HW2 8470   1.459  14.261   2.940
 2211SOL     OW 8471   7.242   1.454   2.255
 2211SOL    HW1 8472   7.163   1.489   2.297
 2211SOL    HW2 8473   7.237   1.486   2.165
 2212SOL     OW 8474   4.256   8.507   8.945
 2212SOL    HW1 8475   4.171   8.486   8.905
 2212SOL    HW2 8476   4.313   8.435   8.920
 2213SOL     OW 8477   6.096   4.600  13.650
 2213SOL    HW1 8478   6.124   4.668  13.712
 2213SOL    HW2 8479   6.145   4.618  13.570
 2214SOL     OW 8480   3.828   2.678  11.008
 2214SOL    HW1 8481   3.872   2.760  11.032
 2214SOL    HW2 8482   3.775   2.656  11.084
 2215SOL     OW 8483   6.844   8.306   4.533
 2215SOL    HW1 8484   6.927   8.304   4.580
 2215SOL    HW2 8485   6.778   8.290   4.601
 2216SOL     OW 8486   0.822  13.376  12.961
 2216SOL    HW1 8487   0.839  13.297  12.909
 2216SOL    HW2 8488   0.818  13.446  12.897
 2217SOL     OW 8489   9.474   3.922   0.293
 2217SOL    HW1 8490   9.426   3.857   0.242
 2217SOL    HW2 8491   9.566   3.898   0.281
 2218SOL     OW 8492   6.723   7.792  13.464
 2218SOL    HW1 8493   6.766   7.724  13.517
 2218SOL    HW2 8494   6.793   7.851  13.438
 2219SOL     OW 8495   1.987  10.800   7.744
 2219SOL    HW1 8496   1.972  10.888   7.779
 2219SOL    HW2 8497   1.910  10.783   7.689
 2220SOL     OW 8498   9.085  10.474  13.524
 2220SOL    HW1 8499   9.094  10.570  13.528
 2220SOL    HW2 8500   9.115  10.444  13.610
 2221SOL     OW 8501   1.473   9.885   8.407
 2221SOL    HW1 8502   1.392   9.841   8.380
 2221SOL    HW2 8503   1.524   9.894   8.327
 2222SOL     OW 8504   1.382   6.588   9.827
 2222SOL    HW1 8505   1.312   6.604   9.891
 2222SOL    HW2 8506   1.337   6.586   9.743
 2223SOL     OW 8507   7.152  11.406   4.396
 2223SOL    HW1 8508   7.081  11.344   4.413
 2223SOL    HW2 8509   7.107  11.486   4.369
 2224SOL     OW 8510   1.880   4.349   7.423
 2224SOL    HW1 8511   1.896   4.298   7.343
 2224SOL    HW2 8512   1.859   4.437   7.392
 2225SOL     OW 8513   1.578   5.749   8.540
 2225SOL    HW1 8514   1.499   5.703   8.570
 2225SOL    HW2 8515   1.623   5.685   8.485
 2226SOL     OW 8516  11.241  10.064  10.004
 2226SOL    HW1 8517  11.292  10.082   9.925
 2226SOL    HW2 8518  11.279   9.985  10.040
 2227SOL     OW 8519   8.005   6.172  12.031
 2227SOL    HW1 8520   8.070   6.109  12.060
 2227SOL    HW2 8521   8.051   6.226  11.966
 2228SOL     OW 8522   1.155   6.568   0.367
 2228SOL    HW1 8523   1.228   6.630   0.361
 2228SOL    HW2 8524   1.108   6.594   0.447
 2229SOL     OW 8525  11.703   1.283   4.187
 2229SOL    HW1 8526  11.617   1.306   4.150
 2229SOL    HW2 8527  11.711   1.339   4.265
 2230SOL     OW 8528   0.393   7.293   9.854
 2230SOL    HW1 8529   0.315   7.241   9.835
 2230SOL    HW2 8530   0.397   7.296   9.950
 2231SOL     OW 8531   2.790   7.747   9.011
 2231SOL    HW1 8532   2.796   7.719   8.920
 2231SOL    HW2 8533   2.863   7.807   9.022
 2232SOL     OW 8534   7.864   6.477   4.204
 2232SOL    HW1 8535   7.892   6.548   4.146
 2232SOL    HW2 8536   7.902   6.398   4.166
 2233SOL     OW 8537  11.888   5.486  10.863
 2233SOL    HW1 8538  11.821   5.547  10.893
 2233SOL    HW2 8539  11.926   5.450  10.943
 2234SOL     OW 8540  12.339   4.231   7.650
 2234SOL    HW1 8541  12.388   4.204   7.728
 2234SOL    HW2 8542  12.367   4.321   7.634
 2235SOL     OW 8543   5.868  13.662   7.269
 2235SOL    HW1 8544   5.898  13.749   7.244
 2235SOL    HW2 8545   5.778  13.675   7.299
 2236SOL     OW 8546  13.782  11.704  10.619
 2236SOL    HW1 8547  13.816  11.764  10.686
 2236SOL    HW2 8548  13.775  11.758  10.540
 2237SOL     OW 8549   1.551   9.081   3.801
 2237SOL    HW1 8550   1.612   9.121   3.862
 2237SOL    HW2 8551   1.539   8.992   3.834
 2238SOL     OW 8552  11.659   2.716   5.201
 2238SOL    HW1 8553  11.575   2.754   5.176
 2238SOL    HW2 8554  11.702   2.696   5.117
 2239SOL     OW 8555   0.121   5.061  11.232
 2239SOL    HW1 8556   0.162   4.975  11.242
 2239SOL    HW2 8557   0.156   5.094  11.149
 2240SOL     OW 8558   0.732   3.235   6.058
 2240SOL    HW1 8559   0.660   3.245   5.996
 2240SOL    HW2 8560   0.811   3.250   6.005
 2241SOL     OW 8561   0.605   1.329   4.838
 2241SOL    HW1 8562   0.569   1.266   4.776
 2241SOL    HW2 8563   0.688   1.291   4.865
 2242SOL     OW 8564   7.406   6.461   8.531
 2242SOL    HW1 8565   7.392   6.545   8.486
 2242SOL    HW2 8566   7.391   6.480   8.623
 2243SOL     OW 8567   6.494  10.434   0.341
 2243SOL    HW1 8568   6.446  10.474   0.414
 2243SOL    HW2 8569   6.432  10.373   0.302
 2244SOL     OW 8570   2.520   8.878   9.035
 2244SOL    HW1 8571   2.471   8.898   8.955
 2244SOL    HW2 8572   2.612   8.878   9.007
 2245SOL     OW 8573   7.854   1.876   7.109
 2245SOL    HW1 8574   7.859   1.929   7.188
 2245SOL    HW2 8575   7.939   1.888   7.067
 2246SOL     OW 8576   7.505   8.856   8.992
 2246SOL    HW1 8577   7.586   8.805   8.999
 2246SOL    HW2 8578   7.524   8.923   8.926
 2247SOL     OW 8579  11.431   7.879   9.608
 2247SOL    HW1 8580  11.512   7.920   9.578
 2247SOL    HW2 8581  11.398   7.832   9.531
 2248SOL     OW 8582   8.861   0.174   3.782
 2248SOL    HW1 8583   8.799   0.132   3.842
 2248SOL    HW2 8584   8.946   0.163   3.825
 2249SOL     OW 8585   1.094  13.611  14.119
 2249SOL    HW1 8586   1.089  13.704  14.097
 2249SOL    HW2 8587   1.056  13.605  14.206
 2250SOL     OW 8588   9.970   9.617   8.893
 2250SOL    HW1 8589   9.933   9.659   8.816
 2250SOL    HW2 8590   9.990   9.690   8.953
 2251SOL     OW 8591  14.066   1.591  10.978
 2251SOL    HW1 8592  14.072   1.684  10.955
 2251SOL    HW2 8593  14.151   1.571  11.017
 2252SOL     OW 8594  13.876   5.032  14.132
 2252SOL    HW1 8595  13.905   5.120  14.110
 2252SOL    HW2 8596  13.801   5.016  14.075
 2253SOL     OW 8597   7.821  10.769   8.340
 2253SOL    HW1 8598   7.856  10.681   8.352
 2253SOL    HW2 8599   7.726  10.755   8.334
 2254SOL     OW 8600   0.580   9.830   3.056
 2254SOL    HW1 8601   0.598   9.924   3.055
 2254SOL    HW2 8602   0.625   9.798   3.134
 2255SOL     OW 8603   2.172   6.064  11.365
 2255SOL    HW1 8604   2.236   6.025  11.306
 2255SOL    HW2 8605   2.119   5.990  11.395
 2256SOL     OW 8606   5.030   2.563   6.521
 2256SOL    HW1 8607   5.083   2.605   6.588
 2256SOL    HW2 8608   5.005   2.479   6.560
 2257SOL     OW 8609   6.414   0.841   9.511
 2257SOL    HW1 8610   6.434   0.796   9.593
 2257SOL    HW2 8611   6.324   0.871   9.522
 2258SOL     OW 8612   2.533   0.327   2.796
 2258SOL    HW1 8613   2.512   0.420   2.803
 2258SOL    HW2 8614   2.597   0.322   2.725
 2259SOL     OW 8615  12.078   7.505   9.020
 2259SOL    HW1 8616  12.149   7.442   9.003
 2259SOL    HW2 8617  11.999   7.461   8.989
 2260SOL     OW 8618   5.325   8.402   1.296
 2260SOL    HW1 8619   5.336   8.309   1.318
 2260SOL    HW2 8620   5.368   8.448   1.368
 2261SOL     OW 8621   5.543   7.489   0.291
 2261SOL    HW1 8622   5.562   7.425   0.361
 2261SOL    HW2 8623   5.610   7.557   0.303
 2262SOL     OW 8624   1.607   3.626   7.775
 2262SOL    HW1 8625   1.580   3.717   7.763
 2262SOL    HW2 8626   1.532   3.584   7.818
 2263SOL     OW 8627   5.996  11.034   7.263
 2263SOL    HW1 8628   6.087  11.047   7.291
 2263SOL    HW2 8629   5.956  10.987   7.336
 2264SOL     OW 8630   3.477   2.224   3.465
 2264SOL    HW1 8631   3.397   2.209   3.517
 2264SOL    HW2 8632   3.548   2.214   3.528
 2265SOL     OW 8633   7.564  10.911  12.896
 2265SOL    HW1 8634   7.562  10.867  12.811
 2265SOL    HW2 8635   7.481  10.888  12.937
 2266SOL     OW 8636  11.997   0.763  14.323
 2266SOL    HW1 8637  11.955   0.743  14.407
 2266SOL    HW2 8638  12.050   0.686  14.304
 2267SOL     OW 8639   8.522  12.330   7.366
 2267SOL    HW1 8640   8.460  12.293   7.429
 2267SOL    HW2 8641   8.566  12.254   7.328
 2268SOL     OW 8642   6.539   5.265  11.321
 2268SOL    HW1 8643   6.533   5.290  11.229
 2268SOL    HW2 8644   6.585   5.182  11.320
 2269SOL     OW 8645   2.676   2.921   3.274
 2269SOL    HW1 8646   2.677   2.827   3.292
 2269SOL    HW2 8647   2.754   2.937   3.221
 2270SOL     OW 8648   0.283   9.648   7.583
 2270SOL    HW1 8649   0.267   9.575   7.523
 2270SOL    HW2 8650   0.300   9.722   7.525
 2271SOL     OW 8651  13.940  11.526  13.513
 2271SOL    HW1 8652  13.965  11.434  13.523
 2271SOL    HW2 8653  13.899  11.549  13.596
 2272SOL     OW 8654  13.450   6.105  11.381
 2272SOL    HW1 8655  13.486   6.060  11.305
 2272SOL    HW2 8656  13.501   6.186  11.388
 2273SOL     OW 8657   4.269   6.381   2.266
 2273SOL    HW1 8658   4.289   6.300   2.219
 2273SOL    HW2 8659   4.355   6.417   2.290
 2274SOL     OW 8660   3.357   8.229   6.120
 2274SOL    HW1 8661   3.294   8.288   6.162
 2274SOL    HW2 8662   3.394   8.179   6.193
 2275SOL     OW 8663  11.224   0.677   6.226
 2275SOL    HW1 8664  11.287   0.749   6.234
 2275SOL    HW2 8665  11.274   0.606   6.186
 2276SOL     OW 8666   2.310   0.593   5.010
 2276SOL    HW1 8667   2.371   0.571   5.081
 2276SOL    HW2 8668   2.262   0.669   5.043
 2277SOL     OW 8669  12.421   6.744  13.503
 2277SOL    HW1 8670  12.325   6.746  13.505
 2277SOL    HW2 8671  12.447   6.801  13.575
 2278SOL     OW 8672   4.416   9.936   8.287
 2278SOL    HW1 8673   4.437   9.857   8.337
 2278SOL    HW2 8674   4.364   9.904   8.213
 2279SOL     OW 8675   5.734   2.573   7.067
 2279SOL    HW1 8676   5.649   2.532   7.079
 2279SOL    HW2 8677   5.741   2.635   7.139
 2280SOL     OW 8678   4.353   9.257  14.687
 2280SOL    HW1 8679   4.347   9.223  14.598
 2280SOL    HW2 8680   4.293   9.202  14.738
 2281SOL     OW 8681  13.335  10.456  11.648
 2281SOL    HW1 8682  13.243  10.482  11.654
 2281SOL    HW2 8683  13.376  10.497  11.725
 2282SOL     OW 8684  13.970  12.550  10.792
 2282SOL    HW1 8685  14.042  12.536  10.853
 2282SOL    HW2 8686  13.991  12.494  10.717
 2283SOL     OW 8687   6.520   1.449   7.815
 2283SOL    HW1 8688   6.541   1.519   7.876
 2283SOL    HW2 8689   6.460   1.488   7.752
 2284SOL     OW 8690   9.605  11.393   0.028
 2284SOL    HW1 8691   9.700  11.404   0.037
 2284SOL    HW2 8692   9.579  11.459  14.840
 2285SOL     OW 8693  13.418  14.799  11.728
 2285SOL    HW1 8694  13.465  14.823  11.808
 2285SOL    HW2 8695  13.326  14.819  11.748
 2286SOL     OW 8696  10.897   4.380  10.827
 2286SOL    HW1 8697  10.888   4.376  10.732
 2286SOL    HW2 8698  10.898   4.473  10.847
 2287SOL     OW 8699   0.236  12.013  11.388
 2287SOL    HW1 8700   0.173  12.025  11.459
 2287SOL    HW2 8701   0.287  11.936  11.415
 2288SOL     OW 8702   9.312  11.274   4.619
 2288SOL    HW1 8703   9.332  11.329   4.543
 2288SOL    HW2 8704   9.387  11.216   4.627
 2289SOL     OW 8705   3.605  11.284  12.778
 2289SOL    HW1 8706   3.646  11.208  12.819
 2289SOL    HW2 8707   3.581  11.340  12.852
 2290SOL     OW 8708   2.795   3.080  14.659
 2290SOL    HW1 8709   2.841   3.161  14.639
 2290SOL    HW2 8710   2.790   3.078  14.755
 2291SOL     OW 8711  10.489  12.269   2.750
 2291SOL    HW1 8712  10.402  12.264   2.789
 2291SOL    HW2 8713  10.483  12.215   2.671
 2292SOL     OW 8714  12.467   0.091   4.908
 2292SOL    HW1 8715  12.457   0.034   4.985
 2292SOL    HW2 8716  12.416   0.047   4.840
 2293SOL     OW 8717   7.425   9.163   2.790
 2293SOL    HW1 8718   7.371   9.196   2.862
 2293SOL    HW2 8719   7.387   9.204   2.712
 2294SOL     OW 8720   1.331   5.070   1.266
 2294SOL    HW1 8721   1.389   5.102   1.335
 2294SOL    HW2 8722   1.246   5.059   1.309
 2295SOL     OW 8723  10.208  14.556   1.216
 2295SOL    HW1 8724  10.239  14.638   1.253
 2295SOL    HW2 8725  10.235  14.559   1.124
 2296SOL     OW 8726   4.654  10.423  12.759
 2296SOL    HW1 8727   4.601  10.394  12.684
 2296SOL    HW2 8728   4.731  10.366  12.757
 2297SOL     OW 8729  12.261   5.988   5.078
 2297SOL    HW1 8730  12.256   5.939   5.161
 2297SOL    HW2 8731  12.173   6.025   5.068
 2298SOL     OW 8732   1.834  10.153  13.758
 2298SOL    HW1 8733   1.863  10.116  13.674
 2298SOL    HW2 8734   1.813  10.078  13.812
 2299SOL     OW 8735  14.302   0.449   9.298
 2299SOL    HW1 8736  14.338   0.538   9.298
 2299SOL    HW2 8737  14.225   0.455   9.242
 2300SOL     OW 8738  13.237   6.383   4.334
 2300SOL    HW1 8739  13.211   6.409   4.422
 2300SOL    HW2 8740  13.331   6.402   4.331
 2301SOL     OW 8741   5.539   1.055   6.182
 2301SOL    HW1 8742   5.529   1.078   6.089
 2301SOL    HW2 8743   5.507   0.965   6.188
 2302SOL     OW 8744  14.380  11.772  13.330
 2302SOL    HW1 8745  14.297  11.729  13.354
 2302SOL    HW2 8746  14.440  11.749  13.401
 2303SOL     OW 8747  12.316   8.908   9.493
 2303SOL    HW1 8748  12.296   8.816   9.477
 2303SOL    HW2 8749  12.391   8.906   9.553
 2304SOL     OW 8750   6.365   1.037   7.456
 2304SOL    HW1 8751   6.281   1.038   7.500
 2304SOL    HW2 8752   6.380   1.128   7.430
 2305SOL     OW 8753   9.067   2.294   4.555
 2305SOL    HW1 8754   9.092   2.214   4.508
 2305SOL    HW2 8755   9.085   2.365   4.494
 2306SOL     OW 8756  10.755   5.449  12.575
 2306SOL    HW1 8757  10.724   5.531  12.537
 2306SOL    HW2 8758  10.806   5.475  12.652
 2307SOL     OW 8759  14.312  13.208   4.279
 2307SOL    HW1 8760  14.403  13.230   4.260
 2307SOL    HW2 8761  14.265  13.229   4.198
 2308SOL     OW 8762   9.216   9.346  11.265
 2308SOL    HW1 8763   9.196   9.265  11.313
 2308SOL    HW2 8764   9.142   9.356  11.205
 2309SOL     OW 8765   9.577   5.784  11.813
 2309SOL    HW1 8766   9.653   5.728  11.828
 2309SOL    HW2 8767   9.598   5.865  11.861
 2310SOL     OW 8768   7.382   8.805   4.951
 2310SOL    HW1 8769   7.336   8.788   5.033
 2310SOL    HW2 8770   7.475   8.800   4.974
 2311SOL     OW 8771  13.406   4.570  12.951
 2311SOL    HW1 8772  13.313   4.586  12.968
 2311SOL    HW2 8773  13.416   4.475  12.958
 2312SOL     OW 8774   7.760   5.651  11.981
 2312SOL    HW1 8775   7.763   5.558  11.960
 2312SOL    HW2 8776   7.846   5.684  11.954
 2313SOL     OW 8777   4.993   7.148   2.760
 2313SOL    HW1 8778   4.909   7.155   2.807
 2313SOL    HW2 8779   4.997   7.057   2.732
 2314SOL     OW 8780   4.085  11.471  12.609
 2314SOL    HW1 8781   4.100  11.394  12.664
 2314SOL    HW2 8782   3.994  11.462  12.580
 2315SOL     OW 8783  13.472   7.045  14.855
 2315SOL    HW1 8784  13.510   7.129  14.828
 2315SOL    HW2 8785  13.379   7.064  14.869
 2316SOL     OW 8786  12.289   7.841   3.365
 2316SOL    HW1 8787  12.374   7.796   3.369
 2316SOL    HW2 8788  12.228   7.780   3.407
 2317SOL     OW 8789   6.358  10.256  14.548
 2317SOL    HW1 8790   6.338  10.293  14.633
 2317SOL    HW2 8791   6.430  10.195  14.564
 2318SOL     OW 8792  13.773  14.091   8.632
 2318SOL    HW1 8793  13.740  14.155   8.696
 2318SOL    HW2 8794  13.729  14.010   8.655
 2319SOL     OW 8795   3.658   7.374   7.715
 2319SOL    HW1 8796   3.643   7.287   7.752
 2319SOL    HW2 8797   3.744   7.368   7.674
 2320SOL     OW 8798   4.891   7.531   4.490
 2320SOL    HW1 8799   4.863   7.598   4.552
 2320SOL    HW2 8800   4.944   7.470   4.542
 2321SOL     OW 8801   6.470  12.613  10.260
 2321SOL    HW1 8802   6.447  12.670  10.334
 2321SOL    HW2 8803   6.473  12.525  10.298
 2322SOL     OW 8804   6.343   2.098  14.226
 2322SOL    HW1 8805   6.411   2.091  14.292
 2322SOL    HW2 8806   6.376   2.162  14.163
 2323SOL     OW 8807  10.030   6.529  14.013
 2323SOL    HW1 8808  10.060   6.618  14.032
 2323SOL    HW2 8809   9.937   6.530  14.035
 2324SOL     OW 8810  10.580  11.091   5.858
 2324SOL    HW1 8811  10.648  11.130   5.803
 2324SOL    HW2 8812  10.595  10.996   5.851
 2325SOL     OW 8813  12.523  11.769   4.146
 2325SOL    HW1 8814  12.458  11.832   4.116
 2325SOL    HW2 8815  12.472  11.697   4.183
 2326SOL     OW 8816   5.540   2.830   2.030
 2326SOL    HW1 8817   5.634   2.841   2.047
 2326SOL    HW2 8818   5.520   2.741   2.060
 2327SOL     OW 8819  10.064  10.646   2.745
 2327SOL    HW1 8820  10.099  10.734   2.729
 2327SOL    HW2 8821  10.140  10.596   2.776
 2328SOL     OW 8822   2.313  10.590  13.736
 2328SOL    HW1 8823   2.218  10.600  13.746
 2328SOL    HW2 8824   2.347  10.600  13.825
 2329SOL     OW 8825   0.885   4.630  11.174
 2329SOL    HW1 8826   0.837   4.680  11.108
 2329SOL    HW2 8827   0.937   4.567  11.123
 2330SOL     OW 8828  11.925   2.197  10.516
 2330SOL    HW1 8829  11.954   2.198  10.607
 2330SOL    HW2 8830  11.908   2.105  10.497
 2331SOL     OW 8831   0.622   0.745   3.776
 2331SOL    HW1 8832   0.716   0.728   3.775
 2331SOL    HW2 8833   0.593   0.719   3.863
 2332SOL     OW 8834   1.391   8.254   5.737
 2332SOL    HW1 8835   1.433   8.325   5.786
 2332SOL    HW2 8836   1.312   8.294   5.701
 2333SOL     OW 8837   5.998   3.280   4.373
 2333SOL    HW1 8838   6.053   3.206   4.348
 2333SOL    HW2 8839   5.995   3.335   4.295
 2334SOL     OW 8840   3.360   8.559  11.829
 2334SOL    HW1 8841   3.272   8.591  11.849
 2334SOL    HW2 8842   3.349   8.466  11.813
 2335SOL     OW 8843   0.989  11.052   2.466
 2335SOL    HW1 8844   0.913  11.007   2.503
 2335SOL    HW2 8845   0.981  11.142   2.498
 2336SOL     OW 8846   6.633   6.040  13.247
 2336SOL    HW1 8847   6.687   6.060  13.323
 2336SOL    HW2 8848   6.544   6.061  13.275
 2337SOL     OW 8849   3.267   0.431  14.638
 2337SOL    HW1 8850   3.325   0.450  14.564
 2337SOL    HW2 8851   3.216   0.356  14.610
 2338SOL     OW 8852   7.295   5.171  14.393
 2338SOL    HW1 8853   7.202   5.161  14.372
 2338SOL    HW2 8854   7.327   5.082  14.406
 2339SOL     OW 8855   3.108  11.307   6.378
 2339SOL    HW1 8856   3.033  11.263   6.337
 2339SOL    HW2 8857   3.184  11.277   6.328
 2340SOL     OW 8858   2.132   3.967   0.391
 2340SOL    HW1 8859   2.200   4.023   0.429
 2340SOL    HW2 8860   2.087   4.023   0.328
 2341SOL     OW 8861   9.589   3.463  13.969
 2341SOL    HW1 8862   9.610   3.554  13.991
 2341SOL    HW2 8863   9.654   3.437  13.904
 2342SOL     OW 8864   5.867  11.130  12.003
 2342SOL    HW1 8865   5.810  11.059  12.034
 2342SOL    HW2 8866   5.954  11.107  12.034
 2343SOL     OW 8867  12.695   4.747   8.346
 2343SOL    HW1 8868  12.650   4.668   8.315
 2343SOL    HW2 8869  12.642   4.776   8.421
 2344SOL     OW 8870   9.213   0.857  11.770
 2344SOL    HW1 8871   9.187   0.800  11.698
 2344SOL    HW2 8872   9.251   0.797  11.834
 2345SOL     OW 8873  11.485   8.710  12.243
 2345SOL    HW1 8874  11.449   8.782  12.295
 2345SOL    HW2 8875  11.413   8.682  12.187
 2346SOL     OW 8876  11.075   0.912   9.380
 2346SOL    HW1 8877  11.062   0.821   9.407
 2346SOL    HW2 8878  11.165   0.932   9.405
 2347SOL     OW 8879  14.653   5.677   5.040
 2347SOL    HW1 8880  14.604   5.636   5.112
 2347SOL    HW2 8881  14.645   5.616   4.967
 2348SOL     OW 8882  10.812  10.133   0.083
 2348SOL    HW1 8883  10.741  10.164   0.139
 2348SOL    HW2 8884  10.891  10.175   0.118
 2349SOL     OW 8885  11.941   3.635   1.843
 2349SOL    HW1 8886  11.990   3.575   1.787
 2349SOL    HW2 8887  12.007   3.673   1.901
 2350SOL     OW 8888  14.519   1.388   0.593
 2350SOL    HW1 8889  14.480   1.304   0.570
 2350SOL    HW2 8890  14.613   1.369   0.600
 2351SOL     OW 8891   5.584  10.549   2.216
 2351SOL    HW1 8892   5.581  10.473   2.274
 2351SOL    HW2 8893   5.598  10.623   2.274
 2352SOL     OW 8894   4.203   5.120  14.436
 2352SOL    HW1 8895   4.235   5.135  14.525
 2352SOL    HW2 8896   4.121   5.170  14.432
 2353SOL     OW 8897   3.345   3.498   3.969
 2353SOL    HW1 8898   3.412   3.566   3.975
 2353SOL    HW2 8899   3.288   3.526   3.898
 2354SOL     OW 8900  13.852   7.888   8.501
 2354SOL    HW1 8901  13.789   7.958   8.488
 2354SOL    HW2 8902  13.800   7.808   8.503
 2355SOL     OW 8903   1.159   9.552  13.317
 2355SOL    HW1 8904   1.134   9.637  13.354
 2355SOL    HW2 8905   1.122   9.488  13.378
 2356SOL     OW 8906   7.202   4.912   8.475
 2356SOL    HW1 8907   7.118   4.925   8.519
 2356SOL    HW2 8908   7.210   4.987   8.416
 2357SOL     OW 8909  11.412  13.666   5.889
 2357SOL    HW1 8910  11.330  13.659   5.938
 2357SOL    HW2 8911  11.400  13.742   5.833
 2358SOL     OW 8912   4.683  10.943   2.353
 2358SOL    HW1 8913   4.753  11.006   2.334
 2358SOL    HW2 8914   4.714  10.861   2.315
 2359SOL     OW 8915   9.049   8.596  12.916
 2359SOL    HW1 8916   9.048   8.645  12.834
 2359SOL    HW2 8917   8.974   8.630  12.965
 2360SOL     OW 8918   3.774   5.291   0.509
 2360SOL    HW1 8919   3.831   5.359   0.473
 2360SOL    HW2 8920   3.757   5.232   0.436
 2361SOL     OW 8921   9.949   2.842   2.482
 2361SOL    HW1 8922   9.986   2.840   2.394
 2361SOL    HW2 8923   9.975   2.927   2.517
 2362SOL     OW 8924   6.185   0.208   3.479
 2362SOL    HW1 8925   6.182   0.303   3.492
 2362SOL    HW2 8926   6.252   0.195   3.411
 2363SOL     OW 8927   6.878   6.272  10.485
 2363SOL    HW1 8928   6.924   6.192  10.460
 2363SOL    HW2 8929   6.812   6.243  10.548
 2364SOL     OW 8930   5.429   0.059   2.287
 2364SOL    HW1 8931   5.498   0.089   2.229
 2364SOL    HW2 8932   5.416   0.131   2.349
 2365SOL     OW 8933   6.028   4.979   8.199
 2365SOL    HW1 8934   6.029   5.064   8.155
 2365SOL    HW2 8935   5.950   4.936   8.163
 2366SOL     OW 8936   4.534  14.637   5.360
 2366SOL    HW1 8937   4.624  14.613   5.342
 2366SOL    HW2 8938   4.505  14.576   5.428
 2367SOL     OW 8939  11.700   5.601  11.802
 2367SOL    HW1 8940  11.665   5.596  11.713
 2367SOL    HW2 8941  11.795   5.597  11.791
 2368SOL     OW 8942   0.615   9.687   8.870
 2368SOL    HW1 8943   0.531   9.723   8.898
 2368SOL    HW2 8944   0.655   9.653   8.950
 2369SOL     OW 8945   2.155  10.782   9.016
 2369SOL    HW1 8946   2.175  10.742   9.101
 2369SOL    HW2 8947   2.078  10.836   9.033
 2370SOL     OW 8948   5.119   2.824   9.330
 2370SOL    HW1 8949   5.102   2.849   9.239
 2370SOL    HW2 8950   5.162   2.739   9.324
 2371SOL     OW 8951   8.480   0.077   4.492
 2371SOL    HW1 8952   8.454   0.133   4.565
 2371SOL    HW2 8953   8.575   0.085   4.489
 2372SOL     OW 8954   7.681   3.058  11.426
 2372SOL    HW1 8955   7.676   2.979  11.481
 2372SOL    HW2 8956   7.743   3.115  11.472
 2373SOL     OW 8957  10.662   6.042  14.447
 2373SOL    HW1 8958  10.729   5.977  14.427
 2373SOL    HW2 8959  10.701   6.096  14.516
 2374SOL     OW 8960   9.737   2.830  12.890
 2374SOL    HW1 8961   9.740   2.867  12.978
 2374SOL    HW2 8962   9.811   2.870  12.844
 2375SOL     OW 8963  10.993  14.497   3.234
 2375SOL    HW1 8964  10.981  14.555   3.158
 2375SOL    HW2 8965  11.068  14.442   3.210
 2376SOL     OW 8966   1.844   2.077  10.475
 2376SOL    HW1 8967   1.813   2.096  10.563
 2376SOL    HW2 8968   1.767   2.085  10.420
 2377SOL     OW 8969   2.629   3.563   5.896
 2377SOL    HW1 8970   2.689   3.497   5.930
 2377SOL    HW2 8971   2.630   3.633   5.961
 2378SOL     OW 8972   6.386   7.022  12.856
 2378SOL    HW1 8973   6.372   7.065  12.772
 2378SOL    HW2 8974   6.298   7.013  12.893
 2379SOL     OW 8975  12.909   4.615   8.544
 2379SOL    HW1 8976  12.952   4.562   8.477
 2379SOL    HW2 8977  12.839   4.660   8.497
 2380SOL     OW 8978   2.908   4.981   4.287
 2380SOL    HW1 8979   2.917   4.889   4.261
 2380SOL    HW2 8980   2.987   5.023   4.252
 2381SOL     OW 8981   4.932   2.990  10.702
 2381SOL    HW1 8982   4.864   2.958  10.762
 2381SOL    HW2 8983   4.917   3.085  10.698
 2382SOL     OW 8984   7.903  11.158  14.303
 2382SOL    HW1 8985   7.890  11.156  14.398
 2382SOL    HW2 8986   7.960  11.233  14.288
 2383SOL     OW 8987   7.033   7.265   0.693
 2383SOL    HW1 8988   7.008   7.273   0.601
 2383SOL    HW2 8989   6.981   7.191   0.725
 2384SOL     OW 8990   3.719  14.322  10.545
 2384SOL    HW1 8991   3.657  14.248  10.545
 2384SOL    HW2 8992   3.663  14.399  10.533
 2385SOL     OW 8993  13.189   3.396   8.526
 2385SOL    HW1 8994  13.249   3.445   8.580
 2385SOL    HW2 8995  13.237   3.378   8.445
 2386SOL     OW 8996  11.522   9.723  11.343
 2386SOL    HW1 8997  11.460   9.788  11.312
 2386SOL    HW2 8998  11.569   9.765  11.415
 2387SOL     OW 8999   3.590   8.907   2.428
 2387SOL    HW1 9000   3.636   8.988   2.452
 2387SOL    HW2 9001   3.544   8.881   2.508
 2388SOL     OW 9002   7.813   5.865  14.428
 2388SOL    HW1 9003   7.907   5.869  14.410
 2388SOL    HW2 9004   7.776   5.822  14.351
 2389SOL     OW 9005   7.901   3.288   1.685
 2389SOL    HW1 9006   7.813   3.263   1.710
 2389SOL    HW2 9007   7.893   3.320   1.595
 2390SOL     OW 9008   4.084   1.856   9.701
 2390SOL    HW1 9009   4.038   1.915   9.761
 2390SOL    HW2 9010   4.111   1.911   9.628
 2391SOL     OW 9011   6.281   1.701   2.386
 2391SOL    HW1 9012   6.200   1.722   2.340
 2391SOL    HW2 9013   6.253   1.642   2.456
 2392SOL     OW 9014   5.377   0.790  13.780
 2392SOL    HW1 9015   5.288   0.767  13.806
 2392SOL    HW2 9016   5.390   0.745  13.697
 2393SOL     OW 9017  13.858   1.534   8.574
 2393SOL    HW1 9018  13.779   1.553   8.624
 2393SOL    HW2 9019  13.833   1.545   8.483
 2394SOL     OW 9020   3.747  14.618   1.895
 2394SOL    HW1 9021   3.774  14.561   1.966
 2394SOL    HW2 9022   3.665  14.580   1.863
 2395SOL     OW 9023   2.419  13.186   6.134
 2395SOL    HW1 9024   2.466  13.269   6.123
 2395SOL    HW2 9025   2.470  13.138   6.199
 2396SOL     OW 9026  14.394   5.903   1.923
 2396SOL    HW1 9027  14.434   5.903   1.836
 2396SOL    HW2 9028  14.358   5.991   1.933
 2397SOL     OW 9029  12.681   9.582   6.406
 2397SOL    HW1 9030  12.766   9.539   6.408
 2397SOL    HW2 9031  12.671   9.609   6.314
 2398SOL     OW 9032   5.347   2.778   2.815
 2398SOL    HW1 9033   5.336   2.871   2.796
 2398SOL    HW2 9034   5.275   2.757   2.874
 2399SOL     OW 9035   5.553   4.047   1.808
 2399SOL    HW1 9036   5.483   4.070   1.747
 2399SOL    HW2 9037   5.632   4.043   1.754
 2400SOL     OW 9038   5.014   3.923   7.505
 2400SOL    HW1 9039   5.088   3.878   7.546
 2400SOL    HW2 9040   5.047   3.950   7.419
 2401SOL     OW 9041  11.483   3.677   7.458
 2401SOL    HW1 9042  11.515   3.732   7.387
 2401SOL    HW2 9043  11.403   3.637   7.424
 2402SOL     OW 9044   6.724  11.270   2.615
 2402SOL    HW1 9045   6.682  11.338   2.562
 2402SOL    HW2 9046   6.817  11.276   2.593
 2403SOL     OW 9047   1.955  14.526   5.241
 2403SOL    HW1 9048   1.962  14.478   5.323
 2403SOL    HW2 9049   2.044  14.555   5.222
 2404SOL     OW 9050   5.411   4.124   9.630
 2404SOL    HW1 9051   5.402   4.218   9.646
 2404SOL    HW2 9052   5.420   4.117   9.535
 2405SOL     OW 9053   5.606   5.416   6.610
 2405SOL    HW1 9054   5.657   5.335   6.618
 2405SOL    HW2 9055   5.577   5.435   6.699
 2406SOL     OW 9056   3.724   2.346  12.383
 2406SOL    HW1 9057   3.680   2.391  12.311
 2406SOL    HW2 9058   3.719   2.253  12.360
 2407SOL     OW 9059   3.220   4.088   8.016
 2407SOL    HW1 9060   3.212   4.155   7.948
 2407SOL    HW2 9061   3.207   4.006   7.969
 2408SOL     OW 9062   4.474   2.468   5.201
 2408SOL    HW1 9063   4.397   2.431   5.158
 2408SOL    HW2 9064   4.507   2.533   5.139
 2409SOL     OW 9065  11.718   6.693   2.593
 2409SOL    HW1 9066  11.789   6.682   2.531
 2409SOL    HW2 9067  11.662   6.760   2.554
 2410SOL     OW 9068   4.488  14.749   1.071
 2410SOL    HW1 9069   4.421  14.730   1.006
 2410SOL    HW2 9070   4.473  14.686   1.141
 2411SOL     OW 9071  12.611   0.750   0.118
 2411SOL    HW1 9072  12.546   0.713   0.176
 2411SOL    HW2 9073  12.692   0.750   0.169
 2412SOL     OW 9074   0.422  10.941   3.466
 2412SOL    HW1 9075   0.363  10.899   3.404
 2412SOL    HW2 9076   0.484  10.873   3.490
 2413SOL     OW 9077   1.520   9.830  12.938
 2413SOL    HW1 9078   1.430   9.809  12.963
 2413SOL    HW2 9079   1.552   9.887  13.007
 2414SOL     OW 9080   7.705   3.561  13.230
 2414SOL    HW1 9081   7.705   3.489  13.294
 2414SOL    HW2 9082   7.651   3.629  13.270
 2415SOL     OW 9083   7.623   6.575   7.791
 2415SOL    HW1 9084   7.694   6.546   7.733
 2415SOL    HW2 9085   7.664   6.578   7.878
 2416SOL     OW 9086   1.120   0.392  14.195
 2416SOL    HW1 9087   1.031   0.429  14.188
 2416SOL    HW2 9088   1.106   0.299  14.210
 2417SOL     OW 9089   9.077   3.810   4.940
 2417SOL    HW1 9090   9.127   3.741   4.898
 2417SOL    HW2 9091   9.122   3.891   4.915
 2418SOL     OW 9092   8.116   0.223  14.671
 2418SOL    HW1 9093   8.202   0.249  14.637
 2418SOL    HW2 9094   8.132   0.139  14.714
 2419SOL     OW 9095   9.685   7.394   5.715
 2419SOL    HW1 9096   9.642   7.476   5.693
 2419SOL    HW2 9097   9.625   7.352   5.777
 2420SOL     OW 9098   2.381  12.949  11.157
 2420SOL    HW1 9099   2.447  13.000  11.109
 2420SOL    HW2 9100   2.322  13.014  11.194
 2421SOL     OW 9101   5.208   9.938  10.829
 2421SOL    HW1 9102   5.194   9.877  10.901
 2421SOL    HW2 9103   5.145  10.008  10.844
 2422SOL     OW 9104   4.708  14.656   9.735
 2422SOL    HW1 9105   4.684  14.748   9.750
 2422SOL    HW2 9106   4.624  14.612   9.721
 2423SOL     OW 9107  13.795   1.760  11.396
 2423SOL    HW1 9108  13.829   1.740  11.483
 2423SOL    HW2 9109  13.717   1.706  11.387
 2424SOL     OW 9110   9.071   1.023  10.342
 2424SOL    HW1 9111   8.991   0.976  10.364
 2424SOL    HW2 9112   9.140   0.957  10.349
 2425SOL     OW 9113  12.497  11.935   8.374
 2425SOL    HW1 9114  12.587  11.937   8.342
 2425SOL    HW2 9115  12.447  11.900   8.300
 2426SOL     OW 9116   7.650   6.651   1.239
 2426SOL    HW1 9117   7.709   6.622   1.308
 2426SOL    HW2 9118   7.565   6.615   1.263
 2427SOL     OW 9119  14.371   9.294   3.494
 2427SOL    HW1 9120  14.338   9.382   3.515
 2427SOL    HW2 9121  14.442   9.310   3.432
 2428SOL     OW 9122   2.893   3.545   5.702
 2428SOL    HW1 9123   2.854   3.467   5.744
 2428SOL    HW2 9124   2.986   3.538   5.722
 2429SOL     OW 9125   7.298  12.002  12.822
 2429SOL    HW1 9126   7.235  11.995  12.894
 2429SOL    HW2 9127   7.347  11.920  12.826
 2430SOL     OW 9128   3.253  14.520   5.558
 2430SOL    HW1 9129   3.263  14.429   5.589
 2430SOL    HW2 9130   3.208  14.512   5.475
 2431SOL     OW 9131   2.768   7.276  13.784
 2431SOL    HW1 9132   2.815   7.348  13.827
 2431SOL    HW2 9133   2.729   7.317  13.706
 2432SOL     OW 9134   0.405   0.012   0.461
 2432SOL    HW1 9135   0.452   0.001   0.378
 2432SOL    HW2 9136   0.440   0.092   0.499
 2433SOL     OW 9137  12.768   0.297   7.345
 2433SOL    HW1 9138  12.850   0.303   7.296
 2433SOL    HW2 9139  12.727   0.383   7.331
 2434SOL     OW 9140   8.031   5.029   3.985
 2434SOL    HW1 9141   8.049   4.979   3.906
 2434SOL    HW2 9142   8.090   5.104   3.981
 2435SOL     OW 9143   0.668   4.264  12.155
 2435SOL    HW1 9144   0.702   4.316  12.082
 2435SOL    HW2 9145   0.746   4.226  12.196
 2436SOL     OW 9146   1.385  13.080   5.250
 2436SOL    HW1 9147   1.316  13.033   5.297
 2436SOL    HW2 9148   1.351  13.089   5.161
 2437SOL     OW 9149   4.189  13.321   8.696
 2437SOL    HW1 9150   4.201  13.233   8.661
 2437SOL    HW2 9151   4.258  13.373   8.656
 2438SOL     OW 9152  13.841  10.709  12.926
 2438SOL    HW1 9153  13.897  10.660  12.986
 2438SOL    HW2 9154  13.895  10.720  12.847
 2439SOL     OW 9155   6.164   6.765   4.873
 2439SOL    HW1 9156   6.076   6.765   4.837
 2439SOL    HW2 9157   6.160   6.702   4.946
 2440SOL     OW 9158  11.902   9.915  11.388
 2440SOL    HW1 9159  11.826   9.951  11.341
 2440SOL    HW2 9160  11.967   9.900  11.320
 2441SOL     OW 9161   9.952   3.906   1.046
 2441SOL    HW1 9162   9.931   3.814   1.060
 2441SOL    HW2 9163  10.047   3.907   1.035
 2442SOL     OW 9164   4.644   7.704   6.925
 2442SOL    HW1 9165   4.581   7.730   6.993
 2442SOL    HW2 9166   4.710   7.654   6.972
 2443SOL     OW 9167  12.900   4.750   6.466
 2443SOL    HW1 9168  12.837   4.787   6.403
 2443SOL    HW2 9169  12.877   4.792   6.549
 2444SOL     OW 9170   6.750   6.360  13.292
 2444SOL    HW1 9171   6.698   6.407  13.227
 2444SOL    HW2 9172   6.691   6.293  13.327
 2445SOL     OW 9173  14.484   4.796   8.531
 2445SOL    HW1 9174  14.454   4.865   8.472
 2445SOL    HW2 9175  14.452   4.823   8.617
 2446SOL     OW 9176   7.595   0.276   7.225
 2446SOL    HW1 9177   7.542   0.283   7.305
 2446SOL    HW2 9178   7.682   0.254   7.256
 2447SOL     OW 9179   9.340   8.059   9.501
 2447SOL    HW1 9180   9.410   7.995   9.488
 2447SOL    HW2 9181   9.267   8.026   9.448
 2448SOL     OW 9182  10.897   9.805   1.730
 2448SOL    HW1 9183  10.834   9.818   1.659
 2448SOL    HW2 9184  10.956   9.881   1.723
 2449SOL     OW 9185  13.823  10.200   0.404
 2449SOL    HW1 9186  13.807  10.156   0.487
 2449SOL    HW2 9187  13.797  10.290   0.419
 2450SOL     OW 9188  14.111   4.482  14.815
 2450SOL    HW1 9189  14.122   4.546   0.009
 2450SOL    HW2 9190  14.034   4.514  14.767
 2451SOL     OW 9191   1.748   0.111   4.422
 2451SOL    HW1 9192   1.720   0.187   4.473
 2451SOL    HW2 9193   1.674   0.050   4.428
 2452SOL     OW 9194   4.867   8.575   1.647
 2452SOL    HW1 9195   4.819   8.613   1.719
 2452SOL    HW2 9196   4.957   8.569   1.678
 2453SOL     OW 9197   5.244   0.611  12.008
 2453SOL    HW1 9198   5.155   0.635  11.982
 2453SOL    HW2 9199   5.235   0.579  12.097
 2454SOL     OW 9200   8.893  12.959   0.279
 2454SOL    HW1 9201   8.870  13.043   0.241
 2454SOL    HW2 9202   8.844  12.895   0.227
 2455SOL     OW 9203  12.611  12.360   5.770
 2455SOL    HW1 9204  12.666  12.434   5.795
 2455SOL    HW2 9205  12.604  12.308   5.849
 2456SOL     OW 9206  13.997   5.478  12.299
 2456SOL    HW1 9207  13.927   5.422  12.334
 2456SOL    HW2 9208  13.952   5.536  12.238
 2457SOL     OW 9209   2.800   3.050   1.026
 2457SOL    HW1 9210   2.773   2.971   1.072
 2457SOL    HW2 9211   2.718   3.096   1.007
 2458SOL     OW 9212   1.712   8.370  13.176
 2458SOL    HW1 9213   1.655   8.304  13.135
 2458SOL    HW2 9214   1.789   8.373  13.119
 2459SOL     OW 9215   1.987   3.868   3.700
 2459SOL    HW1 9216   2.061   3.878   3.760
 2459SOL    HW2 9217   1.915   3.914   3.743
 2460SOL     OW 9218  12.289   1.472   3.421
 2460SOL    HW1 9219  12.262   1.505   3.507
 2460SOL    HW2 9220  12.375   1.433   3.437
 2461SOL     OW 9221  13.171   7.979   4.873
 2461SOL    HW1 9222  13.182   7.885   4.858
 2461SOL    HW2 9223  13.175   7.988   4.968
 2462SOL     OW 9224   9.042   7.822   0.281
 2462SOL    HW1 9225   9.108   7.874   0.237
 2462SOL    HW2 9226   8.983   7.886   0.321
 2463SOL     OW 9227   5.634   8.159   9.428
 2463SOL    HW1 9228   5.686   8.101   9.483
 2463SOL    HW2 9229   5.595   8.101   9.362
 2464SOL     OW 9230  12.657   4.129   1.362
 2464SOL    HW1 9231  12.621   4.198   1.305
 2464SOL    HW2 9232  12.594   4.121   1.433
 2465SOL     OW 9233   4.919   6.619   9.427
 2465SOL    HW1 9234   4.931   6.529   9.398
 2465SOL    HW2 9235   4.985   6.669   9.379
 2466SOL     OW 9236   3.731   8.711  13.150
 2466SOL    HW1 9237   3.638   8.732  13.157
 2466SOL    HW2 9238   3.736   8.649  13.077
 2467SOL     OW 9239   8.265  10.417   6.868
 2467SOL    HW1 9240   8.175  10.417   6.902
 2467SOL    HW2 9241   8.308  10.345   6.914
 2468SOL     OW 9242   7.838   0.340  10.693
 2468SOL    HW1 9243   7.824   0.274  10.761
 2468SOL    HW2 9244   7.932   0.338  10.676
 2469SOL     OW 9245  12.961  13.712  10.473
 2469SOL    HW1 9246  12.948  13.806  10.458
 2469SOL    HW2 9247  12.873  13.678  10.486
 2470SOL     OW 9248   0.517   1.137   1.822
 2470SOL    HW1 9249   0.465   1.180   1.755
 2470SOL    HW2 9250   0.549   1.208   1.877
 2471SOL     OW 9251   2.074   9.570  12.206
 2471SOL    HW1 9252   2.115   9.554  12.291
 2471SOL    HW2 9253   1.985   9.535  12.216
 2472SOL     OW 9254   5.274  11.154   2.722
 2472SOL    HW1 9255   5.224  11.076   2.702
 2472SOL    HW2 9256   5.270  11.207   2.642
 2473SOL     OW 9257  12.137  10.220   5.543
 2473SOL    HW1 9258  12.204  10.196   5.607
 2473SOL    HW2 9259  12.054  10.204   5.589
 2474SOL     OW 9260   8.326  12.591  10.558
 2474SOL    HW1 9261   8.305  12.633  10.641
 2474SOL    HW2 9262   8.417  12.615  10.541
 2475SOL     OW 9263   2.111  13.378   8.381
 2475SOL    HW1 9264   2.028  13.348   8.418
 2475SOL    HW2 9265   2.128  13.460   8.427
 2476SOL     OW 9266   4.490   0.182   1.386
 2476SOL    HW1 9267   4.408   0.135   1.371
 2476SOL    HW2 9268   4.552   0.142   1.325
 2477SOL     OW 9269   3.629  10.268   7.249
 2477SOL    HW1 9270   3.666  10.194   7.201
 2477SOL    HW2 9271   3.638  10.342   7.189
 2478SOL     OW 9272  11.843   8.866  12.424
 2478SOL    HW1 9273  11.828   8.959  12.405
 2478SOL    HW2 9274  11.915   8.865  12.486
 2479SOL     OW 9275   4.411   4.226  11.666
 2479SOL    HW1 9276   4.389   4.272  11.585
 2479SOL    HW2 9277   4.458   4.147  11.638
 2480SOL     OW 9278   8.131   0.399   6.704
 2480SOL    HW1 9279   8.143   0.336   6.633
 2480SOL    HW2 9280   8.045   0.438   6.687
 2481SOL     OW 9281   6.747  14.263   5.119
 2481SOL    HW1 9282   6.727  14.347   5.160
 2481SOL    HW2 9283   6.827  14.278   5.070
 2482SOL     OW 9284  12.357   8.465   4.466
 2482SOL    HW1 9285  12.389   8.538   4.412
 2482SOL    HW2 9286  12.435   8.414   4.487
 2483SOL     OW 9287  14.268   9.631   6.322
 2483SOL    HW1 9288  14.340   9.583   6.282
 2483SOL    HW2 9289  14.256   9.708   6.266
 2484SOL     OW 9290  12.255  10.322   3.123
 2484SOL    HW1 9291  12.302  10.288   3.048
 2484SOL    HW2 9292  12.164  10.331   3.093
 2485SOL     OW 9293   6.131   8.973   0.846
 2485SOL    HW1 9294   6.211   8.924   0.832
 2485SOL    HW2 9295   6.066   8.932   0.789
 2486SOL     OW 9296   8.308   2.905   5.441
 2486SOL    HW1 9297   8.377   2.972   5.446
 2486SOL    HW2 9298   8.347   2.828   5.482
 2487SOL     OW 9299   1.453   7.987   1.473
 2487SOL    HW1 9300   1.370   7.974   1.519
 2487SOL    HW2 9301   1.513   7.924   1.514
 2488SOL     OW 9302   4.129  11.741   7.115
 2488SOL    HW1 9303   4.118  11.819   7.062
 2488SOL    HW2 9304   4.148  11.671   7.052
 2489SOL     OW 9305   0.456  11.435   6.417
 2489SOL    HW1 9306   0.538  11.396   6.448
 2489SOL    HW2 9307   0.420  11.479   6.493
 2490SOL     OW 9308  12.839  11.748  11.816
 2490SOL    HW1 9309  12.847  11.672  11.758
 2490SOL    HW2 9310  12.747  11.747  11.843
 2491SOL     OW 9311   1.651  11.170   3.547
 2491SOL    HW1 9312   1.735  11.216   3.542
 2491SOL    HW2 9313   1.588  11.238   3.568
 2492SOL     OW 9314  12.148  11.044   0.285
 2492SOL    HW1 9315  12.078  11.059   0.349
 2492SOL    HW2 9316  12.110  10.984   0.222
 2493SOL     OW 9317   3.250  10.522   4.539
 2493SOL    HW1 9318   3.315  10.473   4.588
 2493SOL    HW2 9319   3.174  10.527   4.598
 2494SOL     OW 9320   9.954   6.987   7.464
 2494SOL    HW1 9321   9.950   6.913   7.404
 2494SOL    HW2 9322   9.876   7.039   7.443
 2495SOL     OW 9323   1.198  13.068  10.315
 2495SOL    HW1 9324   1.149  12.997  10.356
 2495SOL    HW2 9325   1.131  13.124  10.277
 2496SOL     OW 9326  14.428  11.979   1.214
 2496SOL    HW1 9327  14.437  11.898   1.265
 2496SOL    HW2 9328  14.359  11.960   1.151
 2497SOL     OW 9329   4.598   6.855  13.349
 2497SOL    HW1 9330   4.617   6.908  13.271
 2497SOL    HW2 9331   4.564   6.918  13.413
 2498SOL     OW 9332  11.065   1.631   6.212
 2498SOL    HW1 9333  11.137   1.598   6.266
 2498SOL    HW2 9334  11.068   1.726   6.223
 2499SOL     OW 9335   9.979   8.194   1.639
 2499SOL    HW1 9336  10.069   8.222   1.657
 2499SOL    HW2 9337   9.950   8.153   1.721
 2500SOL     OW 9338   3.408   3.057  10.173
 2500SOL    HW1 9339   3.334   3.117  10.183
 2500SOL    HW2 9340   3.375   2.987  10.116
 2501SOL     OW 9341  12.532   8.536   2.227
 2501SOL    HW1 9342  12.515   8.621   2.185
 2501SOL    HW2 9343  12.573   8.559   2.310
 2502SOL     OW 9344   1.334   3.249   5.329
 2502SOL    HW1 9345   1.360   3.164   5.294
 2502SOL    HW2 9346   1.329   3.236   5.423
 2503SOL     OW 9347   2.309  11.722   3.244
 2503SOL    HW1 9348   2.222  11.728   3.205
 2503SOL    HW2 9349   2.369  11.752   3.176
 2504SOL     OW 9350   4.625  14.493   2.711
 2504SOL    HW1 9351   4.674  14.570   2.681
 2504SOL    HW2 9352   4.586  14.520   2.794
 2505SOL     OW 9353  10.907   4.889  11.451
 2505SOL    HW1 9354  10.928   4.795  11.456
 2505SOL    HW2 9355  10.844   4.903  11.521
 2506SOL     OW 9356   3.294   2.097   1.100
 2506SOL    HW1 9357   3.252   2.173   1.141
 2506SOL    HW2 9358   3.230   2.027   1.110
 2507SOL     OW 9359   0.209   5.300   7.190
 2507SOL    HW1 9360   0.140   5.362   7.168
 2507SOL    HW2 9361   0.286   5.355   7.207
 2508SOL     OW 9362   3.625  14.128   5.055
 2508SOL    HW1 9363   3.565  14.115   5.129
 2508SOL    HW2 9364   3.640  14.040   5.020
 2509SOL     OW 9365   8.006   7.369   4.875
 2509SOL    HW1 9366   8.000   7.379   4.970
 2509SOL    HW2 9367   8.049   7.449   4.844
 2510SOL     OW 9368  12.409   3.023   6.752
 2510SOL    HW1 9369  12.433   2.963   6.823
 2510SOL    HW2 9370  12.491   3.040   6.706
 2511SOL     OW 9371   9.501  14.726   2.910
 2511SOL    HW1 9372   9.464  14.676   2.983
 2511SOL    HW2 9373   9.487  14.817   2.933
 2512SOL     OW 9374   5.937   8.380  12.304
 2512SOL    HW1 9375   6.004   8.448  12.307
 2512SOL    HW2 9376   5.984   8.300  12.280
 2513SOL     OW 9377   6.702  14.254  13.398
 2513SOL    HW1 9378   6.627  14.287  13.349
 2513SOL    HW2 9379   6.765  14.326  13.397
 2514SOL     OW 9380  10.812   6.279  13.381
 2514SOL    HW1 9381  10.735   6.263  13.327
 2514SOL    HW2 9382  10.803   6.216  13.453
 2515SOL     OW 9383  10.721   4.170   0.092
 2515SOL    HW1 9384  10.774   4.113   0.147
 2515SOL    HW2 9385  10.631   4.150   0.117
 2516SOL     OW 9386   8.255  14.446  11.388
 2516SOL    HW1 9387   8.200  14.374  11.418
 2516SOL    HW2 9388   8.327  14.449  11.450
 2517SOL     OW 9389   5.214   8.366  14.599
 2517SOL    HW1 9390   5.174   8.290  14.557
 2517SOL    HW2 9391   5.279   8.396  14.535
 2518SOL     OW 9392   0.721   6.372   1.635
 2518SOL    HW1 9393   0.632   6.341   1.651
 2518SOL    HW2 9394   0.740   6.347   1.545
 2519SOL     OW 9395   9.531   4.168  12.600
 2519SOL    HW1 9396   9.621   4.199  12.601
 2519SOL    HW2 9397   9.536   4.079  12.564
 2520SOL     OW 9398   5.167   8.114   2.581
 2520SOL    HW1 9399   5.118   8.084   2.658
 2520SOL    HW2 9400   5.138   8.056   2.510
 2521SOL     OW 9401   9.372  11.850   1.339
 2521SOL    HW1 9402   9.376  11.886   1.427
 2521SOL    HW2 9403   9.446  11.889   1.292
 2522SOL     OW 9404  13.734   2.732   3.301
 2522SOL    HW1 9405  13.685   2.807   3.333
 2522SOL    HW2 9406  13.736   2.744   3.206
 2523SOL     OW 9407   6.766   8.968   6.347
 2523SOL    HW1 9408   6.780   8.900   6.282
 2523SOL    HW2 9409   6.854   8.997   6.372
 2524SOL     OW 9410  13.619   9.128  10.803
 2524SOL    HW1 9411  13.611   9.040  10.767
 2524SOL    HW2 9412  13.598   9.118  10.896
 2525SOL     OW 9413   6.396  13.796   7.540
 2525SOL    HW1 9414   6.312  13.752   7.530
 2525SOL    HW2 9415   6.420  13.823   7.452
 2526SOL     OW 9416  11.375   3.885   1.023
 2526SOL    HW1 9417  11.388   3.879   1.118
 2526SOL    HW2 9418  11.370   3.794   0.994
 2527SOL     OW 9419   8.675   0.064   0.412
 2527SOL    HW1 9420   8.770   0.060   0.399
 2527SOL    HW2 9421   8.642  14.860   0.372
 2528SOL     OW 9422  13.966  11.773  14.336
 2528SOL    HW1 9423  13.945  11.797  14.246
 2528SOL    HW2 9424  13.909  11.828  14.390
 2529SOL     OW 9425  14.568  12.683   8.388
 2529SOL    HW1 9426  14.473  12.692   8.376
 2529SOL    HW2 9427  14.606  12.720   8.308
 2530SOL     OW 9428   6.781  10.527   7.950
 2530SOL    HW1 9429   6.862  10.565   7.916
 2530SOL    HW2 9430   6.721  10.602   7.957
 2531SOL     OW 9431   9.038   9.099   0.885
 2531SOL    HW1 9432   9.011   9.014   0.851
 2531SOL    HW2 9433   9.133   9.099   0.875
 2532SOL     OW 9434   5.494   5.409  14.517
 2532SOL    HW1 9435   5.446   5.484  14.551
 2532SOL    HW2 9436   5.585   5.425  14.543
 2533SOL     OW 9437   5.234   6.008  12.524
 2533SOL    HW1 9438   5.321   6.047  12.529
 2533SOL    HW2 9439   5.240   5.943  12.455
 2534SOL     OW 9440   8.604   9.121  14.715
 2534SOL    HW1 9441   8.684   9.068  14.717
 2534SOL    HW2 9442   8.534   9.057  14.701
 2535SOL     OW 9443  10.430   5.060   1.107
 2535SOL    HW1 9444  10.370   5.089   1.038
 2535SOL    HW2 9445  10.422   5.127   1.175
 2536SOL     OW 9446  12.440   6.303   7.186
 2536SOL    HW1 9447  12.449   6.320   7.279
 2536SOL    HW2 9448  12.484   6.219   7.172
 2537SOL     OW 9449  10.246  13.316   6.709
 2537SOL    HW1 9450  10.259  13.262   6.787
 2537SOL    HW2 9451  10.334  13.324   6.671
 2538SOL     OW 9452  11.835   4.535  12.263
 2538SOL    HW1 9453  11.742   4.556  12.253
 2538SOL    HW2 9454  11.855   4.560  12.353
 2539SOL     OW 9455  10.181   3.453   9.727
 2539SOL    HW1 9456  10.095   3.491   9.706
 2539SOL    HW2 9457  10.240   3.528   9.732
 2540SOL     OW 9458   2.821   9.310   4.171
 2540SOL    HW1 9459   2.825   9.217   4.193
 2540SOL    HW2 9460   2.729   9.334   4.188
 2541SOL     OW 9461   3.204  11.575   9.741
 2541SOL    HW1 9462   3.213  11.484   9.767
 2541SOL    HW2 9463   3.134  11.610   9.796
 2542SOL     OW 9464   4.509   8.243   5.486
 2542SOL    HW1 9465   4.514   8.282   5.399
 2542SOL    HW2 9466   4.550   8.308   5.544
 2543SOL     OW 9467   9.382   6.504  10.269
 2543SOL    HW1 9468   9.463   6.535  10.227
 2543SOL    HW2 9469   9.325   6.580  10.269
 2544SOL     OW 9470  10.499   1.419  10.779
 2544SOL    HW1 9471  10.543   1.335  10.795
 2544SOL    HW2 9472  10.534   1.448  10.694
 2545SOL     OW 9473   6.667   7.747  14.012
 2545SOL    HW1 9474   6.641   7.825  13.963
 2545SOL    HW2 9475   6.735   7.779  14.072
 2546SOL     OW 9476   4.503   0.144   4.860
 2546SOL    HW1 9477   4.460   0.225   4.885
 2546SOL    HW2 9478   4.434   0.091   4.821
 2547SOL     OW 9479  10.752  10.017   4.542
 2547SOL    HW1 9480  10.676   9.966   4.514
 2547SOL    HW2 9481  10.787   9.968   4.617
 2548SOL     OW 9482   5.552   7.756   0.089
 2548SOL    HW1 9483   5.488   7.800   0.034
 2548SOL    HW2 9484   5.538   7.794   0.176
 2549SOL     OW 9485   2.379   2.100   9.498
 2549SOL    HW1 9486   2.300   2.062   9.537
 2549SOL    HW2 9487   2.376   2.193   9.523
 2550SOL     OW 9488   8.941   9.143   9.554
 2550SOL    HW1 9489   8.950   9.213   9.489
 2550SOL    HW2 9490   9.016   9.085   9.538
 2551SOL     OW 9491   5.767   9.549   4.746
 2551SOL    HW1 9492   5.741   9.536   4.838
 2551SOL    HW2 9493   5.721   9.629   4.720
 2552SOL     OW 9494   7.992   2.261   5.664
 2552SOL    HW1 9495   7.945   2.215   5.594
 2552SOL    HW2 9496   7.983   2.353   5.641
 2553SOL     OW 9497  10.023  12.912   5.260
 2553SOL    HW1 9498   9.973  12.994   5.258
 2553SOL    HW2 9499  10.018  12.883   5.351
 2554SOL     OW 9500  13.822   7.840  13.636
 2554SOL    HW1 9501  13.730   7.832  13.612
 2554SOL    HW2 9502  13.838   7.934  13.642
 2555SOL     OW 9503   8.932   5.792  13.358
 2555SOL    HW1 9504   8.954   5.731  13.287
 2555SOL    HW2 9505   8.878   5.741  13.417
 2556SOL     OW 9506   3.503  12.737   7.776
 2556SOL    HW1 9507   3.447  12.772   7.708
 2556SOL    HW2 9508   3.443  12.694   7.838
 2557SOL     OW 9509  13.436   9.647   7.746
 2557SOL    HW1 9510  13.441   9.742   7.736
 2557SOL    HW2 9511  13.450   9.613   7.658
 2558SOL     OW 9512   3.528  13.037  13.572
 2558SOL    HW1 9513   3.561  12.979  13.503
 2558SOL    HW2 9514   3.563  13.124  13.549
 2559SOL     OW 9515  12.375  10.488   5.269
 2559SOL    HW1 9516  12.420  10.481   5.185
 2559SOL    HW2 9517  12.319  10.411   5.273
 2560SOL     OW 9518   2.319   4.657   3.639
 2560SOL    HW1 9519   2.323   4.737   3.691
 2560SOL    HW2 9520   2.232   4.657   3.601
 2561SOL     OW 9521   5.894   8.248   0.136
 2561SOL    HW1 9522   5.826   8.247   0.203
 2561SOL    HW2 9523   5.975   8.232   0.184
 2562SOL     OW 9524  14.350   9.521   5.076
 2562SOL    HW1 9525  14.348   9.605   5.029
 2562SOL    HW2 9526  14.380   9.458   5.010
 2563SOL     OW 9527   3.005  13.213  14.738
 2563SOL    HW1 9528   2.930  13.230  14.681
 2563SOL    HW2 9529   3.081  13.237  14.684
 2564SOL     OW 9530   6.007   2.718  14.043
 2564SOL    HW1 9531   5.952   2.763  13.979
 2564SOL    HW2 9532   6.090   2.702  13.997
 2565SOL     OW 9533   8.533   7.961   7.845
 2565SOL    HW1 9534   8.492   7.965   7.758
 2565SOL    HW2 9535   8.465   7.989   7.905
 2566SOL     OW 9536  10.315  13.353  13.524
 2566SOL    HW1 9537  10.362  13.269  13.527
 2566SOL    HW2 9538  10.309  13.380  13.615
 2567SOL     OW 9539  11.637  12.065  11.054
 2567SOL    HW1 9540  11.690  12.145  11.055
 2567SOL    HW2 9541  11.571  12.079  11.122
 2568SOL     OW 9542   6.472  10.336  11.671
 2568SOL    HW1 9543   6.383  10.308  11.653
 2568SOL    HW2 9544   6.526  10.279  11.617
 2569SOL     OW 9545  14.668  11.640   0.051
 2569SOL    HW1 9546  14.713  11.652  14.843
 2569SOL    HW2 9547  14.621  11.557   0.042
 2570SOL     OW 9548   9.704   2.631   5.285
 2570SOL    HW1 9549   9.676   2.578   5.360
 2570SOL    HW2 9550   9.800   2.631   5.290
 2571SOL     OW 9551   3.317  11.581   5.675
 2571SOL    HW1 9552   3.316  11.490   5.647
 2571SOL    HW2 9553   3.225  11.609   5.669
 2572SOL     OW 9554   5.798   6.270   6.527
 2572SOL    HW1 9555   5.725   6.251   6.468
 2572SOL    HW2 9556   5.783   6.213   6.603
 2573SOL     OW 9557  14.497  11.266   9.307
 2573SOL    HW1 9558  14.413  11.223   9.325
 2573SOL    HW2 9559  14.503  11.337   9.371
 2574SOL     OW 9560   0.823  14.783  12.634
 2574SOL    HW1 9561   0.912  14.815  12.622
 2574SOL    HW2 9562   0.790  14.770  12.545
 2575SOL     OW 9563   5.366   8.829   0.956
 2575SOL    HW1 9564   5.391   8.804   1.044
 2575SOL    HW2 9565   5.442   8.875   0.921
 2576SOL     OW 9566  11.290   5.112   0.198
 2576SOL    HW1 9567  11.297   5.156   0.113
 2576SOL    HW2 9568  11.247   5.175   0.255
 2577SOL     OW 9569   3.705  11.149   7.894
 2577SOL    HW1 9570   3.615  11.160   7.924
 2577SOL    HW2 9571   3.754  11.214   7.944
 2578SOL     OW 9572   5.411  11.790   6.448
 2578SOL    HW1 9573   5.434  11.864   6.392
 2578SOL    HW2 9574   5.399  11.717   6.388
 2579SOL     OW 9575   8.934  10.109   1.356
 2579SOL    HW1 9576   8.940  10.029   1.409
 2579SOL    HW2 9577   9.020  10.116   1.315
 2580SOL     OW 9578  11.806  10.061   4.371
 2580SOL    HW1 9579  11.736  10.052   4.435
 2580SOL    HW2 9580  11.887  10.060   4.424
 2581SOL     OW 9581   8.241   1.291   7.235
 2581SOL    HW1 9582   8.172   1.272   7.171
 2581SOL    HW2 9583   8.198   1.346   7.300
 2582SOL     OW 9584   1.527   0.224   5.090
 2582SOL    HW1 9585   1.593   0.175   5.042
 2582SOL    HW2 9586   1.536   0.194   5.181
 2583SOL     OW 9587   0.512  14.075   2.661
 2583SOL    HW1 9588   0.455  14.008   2.621
 2583SOL    HW2 9589   0.451  14.135   2.703
 2584SOL     OW 9590   1.032   2.275   2.357
 2584SOL    HW1 9591   0.946   2.303   2.327
 2584SOL    HW2 9592   1.091   2.296   2.284
 2585SOL     OW 9593   0.687   8.154   7.752
 2585SOL    HW1 9594   0.759   8.198   7.707
 2585SOL    HW2 9595   0.686   8.192   7.840
 2586SOL     OW 9596   9.757   2.671   1.547
 2586SOL    HW1 9597   9.764   2.766   1.555
 2586SOL    HW2 9598   9.814   2.637   1.616
 2587SOL     OW 9599   0.706   3.648  11.869
 2587SOL    HW1 9600   0.644   3.679  11.936
 2587SOL    HW2 9601   0.769   3.719  11.860
 2588SOL     OW 9602   4.857   5.049  10.860
 2588SOL    HW1 9603   4.815   4.976  10.814
 2588SOL    HW2 9604   4.936   5.011  10.899
 2589SOL     OW 9605   3.283   9.417   4.126
 2589SOL    HW1 9606   3.270   9.467   4.045
 2589SOL    HW2 9607   3.196   9.406   4.163
 2590SOL     OW 9608   9.944   8.910  14.156
 2590SOL    HW1 9609  10.013   8.887  14.095
 2590SOL    HW2 9610   9.870   8.934  14.101
 2591SOL     OW 9611   6.163   8.168   0.025
 2591SOL    HW1 9612   6.127   8.082   0.045
 2591SOL    HW2 9613   6.196   8.160  14.811
 2592SOL     OW 9614  11.428   9.201   5.733
 2592SOL    HW1 9615  11.432   9.200   5.829
 2592SOL    HW2 9616  11.498   9.261   5.707
 2593SOL     OW 9617   2.531  13.680   3.297
 2593SOL    HW1 9618   2.565  13.625   3.227
 2593SOL    HW2 9619   2.579  13.653   3.375
 2594SOL     OW 9620   3.088   4.568   6.801
 2594SOL    HW1 9621   3.121   4.632   6.864
 2594SOL    HW2 9622   2.993   4.576   6.806
 2595SOL     OW 9623   7.629  14.008   2.250
 2595SOL    HW1 9624   7.587  14.083   2.208
 2595SOL    HW2 9625   7.593  14.006   2.338
 2596SOL     OW 9626   7.434   9.819   5.031
 2596SOL    HW1 9627   7.528   9.831   5.013
 2596SOL    HW2 9628   7.420   9.725   5.022
 2597SOL     OW 9629   6.309  12.172   1.248
 2597SOL    HW1 9630   6.380  12.189   1.311
 2597SOL    HW2 9631   6.345  12.109   1.187
 2598SOL     OW 9632  13.795   6.286   5.999
 2598SOL    HW1 9633  13.761   6.362   6.046
 2598SOL    HW2 9634  13.890   6.298   6.001
 2599SOL     OW 9635  13.917   7.871  11.468
 2599SOL    HW1 9636  13.841   7.831  11.510
 2599SOL    HW2 9637  13.937   7.947  11.523
 2600SOL     OW 9638  14.342  10.962   2.386
 2600SOL    HW1 9639  14.349  11.043   2.334
 2600SOL    HW2 9640  14.270  10.979   2.447
 2601SOL     OW 9641   4.440   2.965   0.537
 2601SOL    HW1 9642   4.509   2.977   0.472
 2601SOL    HW2 9643   4.442   3.045   0.590
 2602SOL     OW 9644  14.360   0.854   3.093
 2602SOL    HW1 9645  14.393   0.944   3.092
 2602SOL    HW2 9646  14.433   0.801   3.060
 2603SOL     OW 9647  10.349  10.833  10.555
 2603SOL    HW1 9648  10.391  10.748  10.551
 2603SOL    HW2 9649  10.336  10.850  10.648
 2604SOL     OW 9650   8.936   8.495   6.945
 2604SOL    HW1 9651   8.914   8.517   6.854
 2604SOL    HW2 9652   8.984   8.572   6.977
 2605SOL     OW 9653  10.528   0.676   5.524
 2605SOL    HW1 9654  10.485   0.739   5.465
 2605SOL    HW2 9655  10.482   0.594   5.507
 2606SOL     OW 9656   6.880   3.848   1.123
 2606SOL    HW1 9657   6.907   3.765   1.165
 2606SOL    HW2 9658   6.822   3.889   1.186
 2607SOL     OW 9659   3.686   8.280   5.858
 2607SOL    HW1 9660   3.718   8.204   5.905
 2607SOL    HW2 9661   3.726   8.274   5.771
 2608SOL     OW 9662   9.266  14.617   6.981
 2608SOL    HW1 9663   9.173  14.638   6.995
 2608SOL    HW2 9664   9.265  14.545   6.918
 2609SOL     OW 9665   0.912   4.413  10.002
 2609SOL    HW1 9666   0.949   4.339   9.953
 2609SOL    HW2 9667   0.818   4.407   9.986
 2610SOL     OW 9668   6.156   7.198   7.961
 2610SOL    HW1 9669   6.072   7.159   7.981
 2610SOL    HW2 9670   6.221   7.133   7.989
 2611SOL     OW 9671  14.604   6.767   1.938
 2611SOL    HW1 9672  14.665   6.719   1.882
 2611SOL    HW2 9673  14.596   6.853   1.897
 2612SOL     OW 9674   9.335   4.841   6.875
 2612SOL    HW1 9675   9.258   4.854   6.930
 2612SOL    HW2 9676   9.313   4.765   6.821
 2613SOL     OW 9677  13.511   0.593  12.922
 2613SOL    HW1 9678  13.509   0.538  13.000
 2613SOL    HW2 9679  13.603   0.593  12.895
 2614SOL     OW 9680  10.728   4.017   8.241
 2614SOL    HW1 9681  10.656   4.080   8.237
 2614SOL    HW2 9682  10.756   4.018   8.333
 2615SOL     OW 9683  13.080   0.454  11.111
 2615SOL    HW1 9684  13.072   0.548  11.129
 2615SOL    HW2 9685  13.018   0.439  11.039
 2616SOL     OW 9686   3.517   8.922  12.507
 2616SOL    HW1 9687   3.530   8.865  12.582
 2616SOL    HW2 9688   3.422   8.938  12.505
 2617SOL     OW 9689   5.196   0.464   3.391
 2617SOL    HW1 9690   5.183   0.521   3.468
 2617SOL    HW2 9691   5.276   0.416   3.411
 2618SOL     OW 9692   8.815   7.063  10.161
 2618SOL    HW1 9693   8.841   7.084  10.250
 2618SOL    HW2 9694   8.843   7.139  10.109
 2619SOL     OW 9695   8.918   7.646   4.203
 2619SOL    HW1 9696   8.888   7.659   4.293
 2619SOL    HW2 9697   8.846   7.598   4.161
 2620SOL     OW 9698  12.202  11.871  14.238
 2620SOL    HW1 9699  12.138  11.851  14.170
 2620SOL    HW2 9700  12.274  11.810  14.222
 2621SOL     OW 9701   0.105   5.382   5.311
 2621SOL    HW1 9702   0.114   5.343   5.224
 2621SOL    HW2 9703   0.018   5.355   5.340
 2622SOL     OW 9704   8.703  13.927  10.217
 2622SOL    HW1 9705   8.689  13.899  10.307
 2622SOL    HW2 9706   8.721  14.020  10.223
 2623SOL     OW 9707   0.887   6.841  10.938
 2623SOL    HW1 9708   0.926   6.761  10.974
 2623SOL    HW2 9709   0.798   6.814  10.912
 2624SOL     OW 9710  10.482   4.718   1.297
 2624SOL    HW1 9711  10.525   4.717   1.212
 2624SOL    HW2 9712  10.415   4.786   1.289
 2625SOL     OW 9713   8.051   3.130  11.779
 2625SOL    HW1 9714   8.003   3.161  11.703
 2625SOL    HW2 9715   8.101   3.206  11.809
 2626SOL     OW 9716   0.500   9.886   2.052
 2626SOL    HW1 9717   0.500   9.794   2.027
 2626SOL    HW2 9718   0.583   9.920   2.018
 2627SOL     OW 9719   6.478   4.294   1.790
 2627SOL    HW1 9720   6.458   4.360   1.856
 2627SOL    HW2 9721   6.395   4.281   1.744
 2628SOL     OW 9722   7.442   1.618   0.125
 2628SOL    HW1 9723   7.362   1.669   0.137
 2628SOL    HW2 9724   7.499   1.675   0.073
 2629SOL     OW 9725   7.010  10.266  11.376
 2629SOL    HW1 9726   6.996  10.343  11.432
 2629SOL    HW2 9727   6.928  10.257  11.326
 2630SOL     OW 9728   6.121   1.331  10.734
 2630SOL    HW1 9729   6.112   1.303  10.825
 2630SOL    HW2 9730   6.101   1.425  10.736
 2631SOL     OW 9731  10.513   8.107   3.624
 2631SOL    HW1 9732  10.430   8.140   3.655
 2631SOL    HW2 9733  10.502   8.099   3.529
 2632SOL     OW 9734   4.286  10.915  11.227
 2632SOL    HW1 9735   4.306  11.008  11.239
 2632SOL    HW2 9736   4.365  10.879  11.186
 2633SOL     OW 9737   9.378  11.957   2.593
 2633SOL    HW1 9738   9.352  11.874   2.555
 2633SOL    HW2 9739   9.365  11.946   2.687
 2634SOL     OW 9740   9.905   3.943   3.759
 2634SOL    HW1 9741   9.984   3.996   3.773
 2634SOL    HW2 9742   9.850   3.995   3.702
 2635SOL     OW 9743   4.524   7.951   4.349
 2635SOL    HW1 9744   4.477   8.007   4.411
 2635SOL    HW2 9745   4.575   7.891   4.404
 2636SOL     OW 9746  11.051   2.215   6.145
 2636SOL    HW1 9747  10.968   2.206   6.100
 2636SOL    HW2 9748  11.117   2.213   6.075
 2637SOL     OW 9749   0.378   4.977  12.124
 2637SOL    HW1 9750   0.297   4.996  12.170
 2637SOL    HW2 9751   0.403   5.059  12.083
 2638SOL     OW 9752   8.774   4.057   5.107
 2638SOL    HW1 9753   8.853   4.112   5.105
 2638SOL    HW2 9754   8.710   4.106   5.055
 2639SOL     OW 9755   0.874   9.069   5.224
 2639SOL    HW1 9756   0.950   9.104   5.179
 2639SOL    HW2 9757   0.889   9.090   5.317
 2640SOL     OW 9758   2.105   3.627  11.403
 2640SOL    HW1 9759   2.026   3.595  11.447
 2640SOL    HW2 9760   2.088   3.720  11.389
 2641SOL     OW 9761   2.718  12.464   9.874
 2641SOL    HW1 9762   2.712  12.369   9.865
 2641SOL    HW2 9763   2.784  12.490   9.811
 2642SOL     OW 9764   6.473   1.099   5.388
 2642SOL    HW1 9765   6.551   1.154   5.399
 2642SOL    HW2 9766   6.407   1.142   5.442
 2643SOL     OW 9767  14.738   6.226   1.748
 2643SOL    HW1 9768  14.691   6.298   1.790
 2643SOL    HW2 9769  14.711   6.230   1.657
 2644SOL     OW 9770   5.579  13.004   5.070
 2644SOL    HW1 9771   5.494  12.974   5.103
 2644SOL    HW2 9772   5.582  13.097   5.092
 2645SOL     OW 9773   5.355   1.757   3.330
 2645SOL    HW1 9774   5.318   1.693   3.270
 2645SOL    HW2 9775   5.340   1.842   3.287
 2646SOL     OW 9776   3.879  14.296  11.021
 2646SOL    HW1 9777   3.892  14.318  10.929
 2646SOL    HW2 9778   3.944  14.228  11.040
 2647SOL     OW 9779  14.681   9.588   3.351
 2647SOL    HW1 9780  14.606   9.647   3.362
 2647SOL    HW2 9781  14.736   9.632   3.287
 2648SOL     OW 9782   0.012   2.868  10.652
 2648SOL    HW1 9783  14.802   2.905  10.631
 2648SOL    HW2 9784   0.010   2.852  10.746
 2649SOL     OW 9785  14.553  12.557   2.278
 2649SOL    HW1 9786  14.608  12.582   2.204
 2649SOL    HW2 9787  14.471  12.604   2.265
 2650SOL     OW 9788   9.383  10.515   4.835
 2650SOL    HW1 9789   9.306  10.498   4.781
 2650SOL    HW2 9790   9.349  10.529   4.923
 2651SOL     OW 9791  10.070  11.987  13.050
 2651SOL    HW1 9792  10.123  12.064  13.071
 2651SOL    HW2 9793  10.062  11.939  13.132
 2652SOL     OW 9794  14.092  13.050   4.010
 2652SOL    HW1 9795  14.063  13.073   3.921
 2652SOL    HW2 9796  14.015  13.010   4.050
 2653SOL     OW 9797   2.085  13.889  10.928
 2653SOL    HW1 9798   2.169  13.928  10.955
 2653SOL    HW2 9799   2.023  13.962  10.929
 2654SOL     OW 9800   5.949  11.325   2.816
 2654SOL    HW1 9801   5.950  11.239   2.857
 2654SOL    HW2 9802   5.944  11.387   2.888
 2655SOL     OW 9803   2.265   2.803  11.297
 2655SOL    HW1 9804   2.180   2.777  11.332
 2655SOL    HW2 9805   2.323   2.729  11.317
 2656SOL     OW 9806   2.019   4.596  11.468
 2656SOL    HW1 9807   2.039   4.554  11.552
 2656SOL    HW2 9808   1.929   4.570  11.449
 2657SOL     OW 9809   7.750   7.650   2.068
 2657SOL    HW1 9810   7.825   7.612   2.022
 2657SOL    HW2 9811   7.740   7.597   2.147
 2658SOL     OW 9812   2.477   4.232   8.794
 2658SOL    HW1 9813   2.447   4.323   8.794
 2658SOL    HW2 9814   2.449   4.198   8.709
 2659SOL     OW 9815   4.306  10.379   2.688
 2659SOL    HW1 9816   4.365  10.339   2.624
 2659SOL    HW2 9817   4.311  10.473   2.671
 2660SOL     OW 9818   1.865   6.234   2.756
 2660SOL    HW1 9819   1.945   6.185   2.739
 2660SOL    HW2 9820   1.860   6.239   2.851
 2661SOL     OW 9821   9.714   0.381   2.944
 2661SOL    HW1 9822   9.723   0.472   2.970
 2661SOL    HW2 9823   9.709   0.383   2.848
 2662SOL     OW 9824   5.233  11.819   3.223
 2662SOL    HW1 9825   5.205  11.760   3.293
 2662SOL    HW2 9826   5.299  11.769   3.174
 2663SOL     OW 9827  11.639   6.630   3.788
 2663SOL    HW1 9828  11.638   6.682   3.707
 2663SOL    HW2 9829  11.689   6.682   3.850
 2664SOL     OW 9830  14.323   4.065   8.133
 2664SOL    HW1 9831  14.235   4.087   8.165
 2664SOL    HW2 9832  14.315   4.070   8.038
 2665SOL     OW 9833   3.185  10.180  12.866
 2665SOL    HW1 9834   3.158  10.095  12.831
 2665SOL    HW2 9835   3.105  10.219  12.900
 2666SOL     OW 9836  12.781   9.688   7.159
 2666SOL    HW1 9837  12.874   9.695   7.140
 2666SOL    HW2 9838  12.767   9.749   7.231
 2667SOL     OW 9839  12.818   5.271   8.209
 2667SOL    HW1 9840  12.903   5.315   8.206
 2667SOL    HW2 9841  12.783   5.278   8.120
 2668SOL     OW 9842   5.843  13.067   5.233
 2668SOL    HW1 9843   5.832  13.069   5.329
 2668SOL    HW2 9844   5.915  13.006   5.218
 2669SOL     OW 9845  11.896   1.988  13.587
 2669SOL    HW1 9846  11.812   1.997  13.633
 2669SOL    HW2 9847  11.874   1.945  13.505
 2670SOL     OW 9848   6.020   4.490   7.466
 2670SOL    HW1 9849   6.044   4.512   7.376
 2670SOL    HW2 9850   5.928   4.516   7.473
 2671SOL     OW 9851   4.419   2.293  10.875
 2671SOL    HW1 9852   4.351   2.267  10.936
 2671SOL    HW2 9853   4.472   2.357  10.923
 2672SOL     OW 9854   6.415   4.536   2.590
 2672SOL    HW1 9855   6.472   4.477   2.638
 2672SOL    HW2 9856   6.405   4.495   2.504
 2673SOL     OW 9857   6.191   4.299   6.212
 2673SOL    HW1 9858   6.275   4.271   6.175
 2673SOL    HW2 9859   6.158   4.363   6.149
 2674SOL     OW 9860   8.106   2.365  13.782
 2674SOL    HW1 9861   8.053   2.420  13.725
 2674SOL    HW2 9862   8.043   2.323  13.840
 2675SOL     OW 9863  10.911   3.465   9.938
 2675SOL    HW1 9864  10.902   3.536  10.002
 2675SOL    HW2 9865  10.852   3.397   9.969
 2676SOL     OW 9866  13.921   4.983  11.525
 2676SOL    HW1 9867  13.936   4.894  11.557
 2676SOL    HW2 9868  13.864   5.023  11.592
 2677SOL     OW 9869   1.699   2.148  12.675
 2677SOL    HW1 9870   1.706   2.240  12.651
 2677SOL    HW2 9871   1.786   2.125  12.706
 2678SOL     OW 9872   6.243  10.761  10.844
 2678SOL    HW1 9873   6.172  10.716  10.890
 2678SOL    HW2 9874   6.263  10.837  10.899
 2679SOL     OW 9875   2.258   7.408   6.676
 2679SOL    HW1 9876   2.324   7.338   6.678
 2679SOL    HW2 9877   2.299   7.478   6.625
 2680SOL     OW 9878   1.369  14.107   2.838
 2680SOL    HW1 9879   1.313  14.052   2.784
 2680SOL    HW2 9880   1.334  14.196   2.826
 2681SOL     OW 9881   0.569  12.281   1.412
 2681SOL    HW1 9882   0.480  12.309   1.388
 2681SOL    HW2 9883   0.565  12.185   1.412
 2682SOL     OW 9884   2.084   1.966   0.405
 2682SOL    HW1 9885   2.038   2.005   0.331
 2682SOL    HW2 9886   2.071   2.027   0.477
 2683SOL     OW 9887   1.481   4.026  14.182
 2683SOL    HW1 9888   1.429   4.016  14.102
 2683SOL    HW2 9889   1.417   4.031  14.252
 2684SOL     OW 9890   5.760   9.561   5.437
 2684SOL    HW1 9891   5.745   9.652   5.464
 2684SOL    HW2 9892   5.807   9.568   5.354
 2685SOL     OW 9893   3.788   2.138  12.671
 2685SOL    HW1 9894   3.809   2.088  12.592
 2685SOL    HW2 9895   3.858   2.203  12.677
 2686SOL     OW 9896  10.366   9.474   8.685
 2686SOL    HW1 9897  10.304   9.457   8.614
 2686SOL    HW2 9898  10.315   9.466   8.765
 2687SOL     OW 9899   8.699   3.048   4.632
 2687SOL    HW1 9900   8.738   3.000   4.705
 2687SOL    HW2 9901   8.718   3.140   4.652
 2688SOL     OW 9902   0.966   3.611   3.360
 2688SOL    HW1 9903   0.970   3.681   3.294
 2688SOL    HW2 9904   0.946   3.656   3.442
 2689SOL     OW 9905   3.130   0.667   6.527
 2689SOL    HW1 9906   3.073   0.592   6.544
 2689SOL    HW2 9907   3.145   0.665   6.432
 2690SOL     OW 9908   9.175   8.655   7.212
 2690SOL    HW1 9909   9.129   8.608   7.142
 2690SOL    HW2 9910   9.169   8.747   7.185
 2691SOL     OW 9911   2.248   3.724   8.531
 2691SOL    HW1 9912   2.260   3.732   8.437
 2691SOL    HW2 9913   2.264   3.812   8.565
 2692SOL     OW 9914   1.036  10.876   5.107
 2692SOL    HW1 9915   1.076  10.818   5.171
 2692SOL    HW2 9916   1.107  10.933   5.078
 2693SOL     OW 9917   6.116   3.280  10.205
 2693SOL    HW1 9918   6.054   3.266  10.134
 2693SOL    HW2 9919   6.111   3.374  10.223
 2694SOL     OW 9920   2.936   0.134   8.785
 2694SOL    HW1 9921   3.018   0.087   8.801
 2694SOL    HW2 9922   2.946   0.170   8.696
 2695SOL     OW 9923  14.746   5.843  11.300
 2695SOL    HW1 9924  14.658   5.814  11.279
 2695SOL    HW2 9925  14.735   5.902  11.375
 2696SOL     OW 9926  10.327   0.404   7.776
 2696SOL    HW1 9927  10.389   0.333   7.797
 2696SOL    HW2 9928  10.244   0.375   7.815
 2697SOL     OW 9929   4.933  14.850   8.206
 2697SOL    HW1 9930   4.943  14.759   8.233
 2697SOL    HW2 9931   4.906   0.020   8.285
 2698SOL     OW 9932   2.558   8.899  12.777
 2698SOL    HW1 9933   2.548   8.830  12.843
 2698SOL    HW2 9934   2.501   8.970  12.808
 2699SOL     OW 9935  11.690   4.457  13.160
 2699SOL    HW1 9936  11.737   4.450  13.243
 2699SOL    HW2 9937  11.597   4.446  13.184
 2700SOL     OW 9938   6.275   2.550   7.762
 2700SOL    HW1 9939   6.200   2.503   7.798
 2700SOL    HW2 9940   6.320   2.585   7.838
 2701SOL     OW 9941  11.609  14.705   8.962
 2701SOL    HW1 9942  11.576  14.661   8.883
 2701SOL    HW2 9943  11.616  14.636   9.027
 2702SOL     OW 9944   9.158  10.001   7.258
 2702SOL    HW1 9945   9.233  10.031   7.207
 2702SOL    HW2 9946   9.082  10.023   7.205
 2703SOL     OW 9947  13.066   9.803  13.510
 2703SOL    HW1 9948  13.116   9.721  13.502
 2703SOL    HW2 9949  13.100   9.859  13.440
 2704SOL     OW 9950  11.607   4.901  11.210
 2704SOL    HW1 9951  11.700   4.926  11.210
 2704SOL    HW2 9952  11.602   4.826  11.268
 2705SOL     OW 9953  13.417   0.936   4.228
 2705SOL    HW1 9954  13.424   1.009   4.290
 2705SOL    HW2 9955  13.454   0.971   4.147
 2706SOL     OW 9956   1.642   0.205   8.249
 2706SOL    HW1 9957   1.665   0.293   8.218
 2706SOL    HW2 9958   1.554   0.191   8.215
 2707SOL     OW 9959   7.661   8.989   5.220
 2707SOL    HW1 9960   7.625   9.051   5.283
 2707SOL    HW2 9961   7.603   8.912   5.227
 2708SOL     OW 9962   5.337   9.076   9.633
 2708SOL    HW1 9963   5.243   9.059   9.641
 2708SOL    HW2 9964   5.376   8.990   9.619
 2709SOL     OW 9965  13.679   3.682  11.373
 2709SOL    HW1 9966  13.760   3.704  11.418
 2709SOL    HW2 9967  13.670   3.587  11.382
 2710SOL     OW 9968   7.348  12.222   3.545
 2710SOL    HW1 9969   7.441  12.231   3.565
 2710SOL    HW2 9970   7.332  12.290   3.479
 2711SOL     OW 9971   3.569   9.051   0.769
 2711SOL    HW1 9972   3.476   9.048   0.789
 2711SOL    HW2 9973   3.586   8.968   0.723
 2712SOL     OW 9974   0.351  13.241   3.902
 2712SOL    HW1 9975   0.368  13.219   3.994
 2712SOL    HW2 9976   0.387  13.167   3.853
 2713SOL     OW 9977   8.389   9.049   8.212
 2713SOL    HW1 9978   8.401   8.958   8.237
 2713SOL    HW2 9979   8.294   9.060   8.206
 2714SOL     OW 9980   6.205   8.879   5.876
 2714SOL    HW1 9981   6.137   8.824   5.836
 2714SOL    HW2 9982   6.253   8.819   5.933
 2715SOL     OW 9983   0.000  12.268  14.732
 2715SOL    HW1 9984  14.851  12.360  14.728
 2715SOL    HW2 9985  14.819  12.225  14.669
 2716SOL     OW 9986   4.869   2.152  11.362
 2716SOL    HW1 9987   4.859   2.110  11.277
 2716SOL    HW2 9988   4.939   2.216  11.349
 2717SOL     OW 9989   4.025   6.775  10.477
 2717SOL    HW1 9990   4.030   6.700  10.536
 2717SOL    HW2 9991   3.942   6.765  10.432
 2718SOL     OW 9992  13.481   2.548   2.354
 2718SOL    HW1 9993  13.542   2.476   2.338
 2718SOL    HW2 9994  13.446   2.570   2.268
 2719SOL     OW 9995  10.912   4.830  13.601
 2719SOL    HW1 9996  10.830   4.796  13.568
 2719SOL    HW2 9997  10.900   4.925  13.600
 2720SOL     OW 9998   3.654   4.589   0.958
 2720SOL    HW1 9999   3.666   4.522   1.026
 2720SOL    HW210000   3.733   4.644   0.965
 2721SOL     OW10001  14.096   8.619   6.166
 2721SOL    HW110002  14.020   8.672   6.143
 2721SOL    HW210003  14.072   8.530   6.140
 2722SOL     OW10004   6.865   6.847   7.819
 2722SOL    HW110005   6.871   6.797   7.737
 2722SOL    HW210006   6.790   6.904   7.807
 2723SOL     OW10007  13.439   4.638   2.492
 2723SOL    HW110008  13.503   4.640   2.420
 2723SOL    HW210009  13.378   4.709   2.471
 2724SOL     OW10010  12.279  12.102   6.692
 2724SOL    HW110011  12.280  12.081   6.599
 2724SOL    HW210012  12.336  12.178   6.701
 2725SOL     OW10013   8.513   5.518  13.419
 2725SOL    HW110014   8.544   5.532  13.330
 2725SOL    HW210015   8.426   5.481  13.409
 2726SOL     OW10016   7.937   0.836   0.931
 2726SOL    HW110017   7.973   0.805   0.848
 2726SOL    HW210018   7.930   0.757   0.985
 2727SOL     OW10019   5.889   6.205   7.716
 2727SOL    HW110020   5.837   6.269   7.764
 2727SOL    HW210021   5.973   6.247   7.704
 2728SOL     OW10022  13.314  10.098   9.132
 2728SOL    HW110023  13.315  10.002   9.138
 2728SOL    HW210024  13.405  10.123   9.150
 2729SOL     OW10025   9.074  14.715   9.005
 2729SOL    HW110026   9.080  14.803   9.042
 2729SOL    HW210027   9.070  14.657   9.080
 2730SOL     OW10028  13.420   0.273   5.264
 2730SOL    HW110029  13.406   0.360   5.227
 2730SOL    HW210030  13.475   0.228   5.200
 2731SOL     OW10031   7.483   3.541   8.290
 2731SOL    HW110032   7.416   3.604   8.319
 2731SOL    HW210033   7.451   3.457   8.322
 2732SOL     OW10034   9.835  14.455   1.477
 2732SOL    HW110035   9.841  14.359   1.480
 2732SOL    HW210036   9.773  14.476   1.548
 2733SOL     OW10037   3.932   3.703  12.577
 2733SOL    HW110038   3.957   3.623  12.624
 2733SOL    HW210039   3.937   3.679  12.485
 2734SOL     OW10040   2.063  12.245  10.711
 2734SOL    HW110041   2.014  12.212  10.786
 2734SOL    HW210042   2.119  12.172  10.685
 2735SOL     OW10043   3.295   2.070   5.568
 2735SOL    HW110044   3.313   1.977   5.554
 2735SOL    HW210045   3.351   2.115   5.505
 2736SOL     OW10046   1.612  10.080   8.541
 2736SOL    HW110047   1.551  10.046   8.475
 2736SOL    HW210048   1.556  10.124   8.605
 2737SOL     OW10049   1.392   4.220   9.356
 2737SOL    HW110050   1.369   4.146   9.413
 2737SOL    HW210051   1.361   4.193   9.270
 2738SOL     OW10052   7.376   0.698   3.652
 2738SOL    HW110053   7.330   0.615   3.645
 2738SOL    HW210054   7.317   0.755   3.701
 2739SOL     OW10055  14.113   9.286   4.152
 2739SOL    HW110056  14.060   9.364   4.131
 2739SOL    HW210057  14.056   9.234   4.209
 2740SOL     OW10058   7.132   8.979  13.629
 2740SOL    HW110059   7.192   9.052  13.639
 2740SOL    HW210060   7.111   8.977  13.535
 2741SOL     OW10061   4.516   0.429  13.258
 2741SOL    HW110062   4.556   0.456  13.341
 2741SOL    HW210063   4.524   0.507  13.202
 2742SOL     OW10064   8.563  12.022   5.184
 2742SOL    HW110065   8.627  11.953   5.164
 2742SOL    HW210066   8.606  12.103   5.156
 2743SOL     OW10067  14.608   7.459   0.997
 2743SOL    HW110068  14.552   7.534   1.013
 2743SOL    HW210069  14.562   7.385   1.036
 2744SOL     OW10070   7.335  10.754   2.781
 2744SOL    HW110071   7.295  10.672   2.750
 2744SOL    HW210072   7.264  10.817   2.782
 2745SOL     OW10073   8.701   5.020   8.071
 2745SOL    HW110074   8.614   5.042   8.039
 2745SOL    HW210075   8.686   4.962   8.145
 2746SOL     OW10076   7.746   3.238   4.613
 2746SOL    HW110077   7.659   3.231   4.574
 2746SOL    HW210078   7.774   3.327   4.592
 2747SOL     OW10079   6.126   1.981  13.506
 2747SOL    HW110080   6.083   1.928  13.439
 2747SOL    HW210081   6.101   1.940  13.589
 2748SOL     OW10082   0.670   0.620   7.285
 2748SOL    HW110083   0.751   0.601   7.334
 2748SOL    HW210084   0.615   0.667   7.347
 2749SOL     OW10085   8.690  12.784   2.698
 2749SOL    HW110086   8.695  12.829   2.782
 2749SOL    HW210087   8.772  12.808   2.653
 2750SOL     OW10088   4.379  12.696   2.837
 2750SOL    HW110089   4.396  12.668   2.927
 2750SOL    HW210090   4.290  12.666   2.818
 2751SOL     OW10091   7.353  13.581   2.456
 2751SOL    HW110092   7.327  13.540   2.373
 2751SOL    HW210093   7.342  13.675   2.440
 2752SOL     OW10094  11.415   2.687  13.686
 2752SOL    HW110095  11.464   2.769  13.690
 2752SOL    HW210096  11.482   2.619  13.676
 2753SOL     OW10097   5.099   7.928   5.440
 2753SOL    HW110098   5.056   7.885   5.514
 2753SOL    HW210099   5.189   7.896   5.443
 2754SOL     OW10100  12.043  12.244   3.511
 2754SOL    HW110101  12.087  12.289   3.583
 2754SOL    HW210102  12.100  12.259   3.435
 2755SOL     OW10103   5.943  11.013   4.592
 2755SOL    HW110104   6.001  10.960   4.538
 2755SOL    HW210105   5.910  10.952   4.658
 2756SOL     OW10106   5.832   8.185   2.413
 2756SOL    HW110107   5.811   8.212   2.502
 2756SOL    HW210108   5.859   8.266   2.370
 2757SOL     OW10109   7.091  11.451   6.608
 2757SOL    HW110110   7.151  11.387   6.646
 2757SOL    HW210111   7.145  11.528   6.591
 2758SOL     OW10112  10.143  13.550   7.165
 2758SOL    HW110113  10.142  13.645   7.175
 2758SOL    HW210114  10.172  13.535   7.075
 2759SOL     OW10115   2.739  11.120   5.813
 2759SOL    HW110116   2.742  11.027   5.790
 2759SOL    HW210117   2.742  11.166   5.729
 2760SOL     OW10118  13.999   1.439   8.125
 2760SOL    HW110119  14.023   1.386   8.049
 2760SOL    HW210120  14.067   1.419   8.190
 2761SOL     OW10121   6.973  10.684  13.169
 2761SOL    HW110122   7.025  10.604  13.181
 2761SOL    HW210123   7.011  10.725  13.092
 2762SOL     OW10124   7.490   4.395  12.166
 2762SOL    HW110125   7.501   4.478  12.213
 2762SOL    HW210126   7.519   4.414  12.077
 2763SOL     OW10127  11.841   9.160   7.103
 2763SOL    HW110128  11.785   9.163   7.025
 2763SOL    HW210129  11.927   9.136   7.069
 2764SOL     OW10130  12.549   7.221   4.299
 2764SOL    HW110131  12.629   7.272   4.285
 2764SOL    HW210132  12.577   7.147   4.353
 2765SOL     OW10133  13.479   3.591  11.119
 2765SOL    HW110134  13.411   3.656  11.103
 2765SOL    HW210135  13.502   3.604  11.211
 2766SOL     OW10136  13.797  11.963   8.949
 2766SOL    HW110137  13.783  11.939   9.040
 2766SOL    HW210138  13.889  11.946   8.932
 2767SOL     OW10139   2.728  12.544  13.953
 2767SOL    HW110140   2.706  12.637  13.948
 2767SOL    HW210141   2.811  12.541  14.001
 2768SOL     OW10142   8.105  14.502  12.254
 2768SOL    HW110143   8.086  14.419  12.298
 2768SOL    HW210144   8.114  14.565  12.325
 2769SOL     OW10145   8.012   5.641  11.857
 2769SOL    HW110146   8.074   5.693  11.807
 2769SOL    HW210147   7.962   5.592  11.792
 2770SOL     OW10148   8.334  11.703   1.590
 2770SOL    HW110149   8.312  11.640   1.522
 2770SOL    HW210150   8.426  11.685   1.610
 2771SOL     OW10151  11.370  13.900   4.775
 2771SOL    HW110152  11.345  13.809   4.756
 2771SOL    HW210153  11.287  13.944   4.793
 2772SOL     OW10154   0.762  10.633   1.699
 2772SOL    HW110155   0.821  10.561   1.678
 2772SOL    HW210156   0.820  10.708   1.713
 2773SOL     OW10157   4.495   3.325  10.422
 2773SOL    HW110158   4.549   3.268  10.475
 2773SOL    HW210159   4.536   3.324  10.335
 2774SOL     OW10160  12.079   1.165   8.872
 2774SOL    HW110161  11.986   1.166   8.897
 2774SOL    HW210162  12.108   1.076   8.892
 2775SOL     OW10163   1.037   5.521  14.573
 2775SOL    HW110164   1.075   5.438  14.547
 2775SOL    HW210165   0.985   5.549  14.498
 2776SOL     OW10166  10.169  11.489   2.565
 2776SOL    HW110167  10.121  11.441   2.498
 2776SOL    HW210168  10.214  11.421   2.616
 2777SOL     OW10169   0.635  14.745   2.788
 2777SOL    HW110170   0.651  14.732   2.881
 2777SOL    HW210171   0.584  14.669   2.761
 2778SOL     OW10172   7.653   8.279   4.688
 2778SOL    HW110173   7.727   8.308   4.741
 2778SOL    HW210174   7.689   8.274   4.599
 2779SOL     OW10175   3.416   1.541   3.325
 2779SOL    HW110176   3.471   1.618   3.308
 2779SOL    HW210177   3.347   1.574   3.383
 2780SOL     OW10178  10.018   1.247   4.644
 2780SOL    HW110179   9.959   1.226   4.572
 2780SOL    HW210180  10.033   1.163   4.687
 2781SOL     OW10181   5.643  14.108  13.206
 2781SOL    HW110182   5.561  14.134  13.247
 2781SOL    HW210183   5.708  14.170  13.240
 2782SOL     OW10184   0.027  10.958  12.492
 2782SOL    HW110185   0.042  10.956  12.586
 2782SOL    HW210186  14.824  11.011  12.481
 2783SOL     OW10187  11.019  14.347   6.445
 2783SOL    HW110188  11.020  14.254   6.468
 2783SOL    HW210189  11.106  14.379   6.469
 2784SOL     OW10190   3.666   8.033   2.891
 2784SOL    HW110191   3.607   7.963   2.918
 2784SOL    HW210192   3.613   8.087   2.832
 2785SOL     OW10193  13.913   0.645   3.336
 2785SOL    HW110194  13.864   0.628   3.256
 2785SOL    HW210195  13.998   0.605   3.321
 2786SOL     OW10196  10.728   7.426  12.765
 2786SOL    HW110197  10.691   7.373  12.695
 2786SOL    HW210198  10.698   7.385  12.846
 2787SOL     OW10199  10.846   4.706  12.885
 2787SOL    HW110200  10.867   4.738  12.972
 2787SOL    HW210201  10.914   4.641  12.866
 2788SOL     OW10202   2.128   9.475  13.425
 2788SOL    HW110203   2.084   9.428  13.496
 2788SOL    HW210204   2.210   9.505  13.463
 2789SOL     OW10205  10.825  10.873  12.324
 2789SOL    HW110206  10.731  10.860  12.308
 2789SOL    HW210207  10.828  10.933  12.398
 2790SOL     OW10208  10.959   3.646  11.220
 2790SOL    HW110209  10.952   3.734  11.256
 2790SOL    HW210210  10.937   3.656  11.127
 2791SOL     OW10211   0.070   4.977   3.885
 2791SOL    HW110212   0.125   5.014   3.954
 2791SOL    HW210213  14.858   4.982   3.920
 2792SOL     OW10214   5.113  11.979   5.495
 2792SOL    HW110215   5.117  11.885   5.479
 2792SOL    HW210216   5.141  12.019   5.412
 2793SOL     OW10217  14.399   9.181   2.034
 2793SOL    HW110218  14.424   9.274   2.034
 2793SOL    HW210219  14.418   9.151   1.945
 2794SOL     OW10220   7.113  10.342   3.632
 2794SOL    HW110221   7.203  10.308   3.631
 2794SOL    HW210222   7.119  10.423   3.683
 2795SOL     OW10223   4.913   4.880  11.616
 2795SOL    HW110224   4.851   4.903  11.547
 2795SOL    HW210225   4.869   4.811  11.666
 2796SOL     OW10226   1.815   9.483  11.923
 2796SOL    HW110227   1.823   9.560  11.980
 2796SOL    HW210228   1.761   9.422  11.973
 2797SOL     OW10229  10.137  11.085   3.363
 2797SOL    HW110230  10.143  11.159   3.423
 2797SOL    HW210231  10.124  11.009   3.419
 2798SOL     OW10232   6.494   6.170   3.904
 2798SOL    HW110233   6.483   6.251   3.954
 2798SOL    HW210234   6.416   6.119   3.922
 2799SOL     OW10235   3.075  12.913  13.491
 2799SOL    HW110236   3.154  12.876  13.528
 2799SOL    HW210237   3.024  12.837  13.462
 2800SOL     OW10238   9.679   3.804  14.818
 2800SOL    HW110239   9.620   3.832  14.747
 2800SOL    HW210240   9.672   3.709  14.818
 2801SOL     OW10241  10.162   9.788   3.545
 2801SOL    HW110242  10.070   9.792   3.572
 2801SOL    HW210243  10.211   9.807   3.625
 2802SOL     OW10244   4.577   5.577   8.772
 2802SOL    HW110245   4.536   5.556   8.855
 2802SOL    HW210246   4.600   5.492   8.734
 2803SOL     OW10247   9.570   3.592   4.196
 2803SOL    HW110248   9.606   3.594   4.107
 2803SOL    HW210249   9.613   3.665   4.240
 2804SOL     OW10250  10.542   9.900   6.736
 2804SOL    HW110251  10.485   9.891   6.659
 2804SOL    HW210252  10.482   9.921   6.807
 2805SOL     OW10253   8.421   6.188   4.668
 2805SOL    HW110254   8.463   6.126   4.728
 2805SOL    HW210255   8.391   6.259   4.725
 2806SOL     OW10256  13.333   5.975  12.554
 2806SOL    HW110257  13.396   5.905  12.539
 2806SOL    HW210258  13.247   5.934  12.543
 2807SOL     OW10259  11.349   7.554  11.925
 2807SOL    HW110260  11.359   7.525  12.016
 2807SOL    HW210261  11.417   7.620  11.914
 2808SOL     OW10262   2.353  11.794   0.928
 2808SOL    HW110263   2.314  11.707   0.933
 2808SOL    HW210264   2.443  11.778   0.899
 2809SOL     OW10265   2.458  14.135   6.506
 2809SOL    HW110266   2.469  14.082   6.585
 2809SOL    HW210267   2.454  14.071   6.435
 2810SOL     OW10268  13.224   0.380   8.200
 2810SOL    HW110269  13.180   0.465   8.207
 2810SOL    HW210270  13.309   0.393   8.242
 2811SOL     OW10271   6.318  13.587   6.932
 2811SOL    HW110272   6.243  13.530   6.949
 2811SOL    HW210273   6.341  13.569   6.841
 2812SOL     OW10274  12.154   1.940   6.848
 2812SOL    HW110275  12.129   1.900   6.765
 2812SOL    HW210276  12.195   2.023   6.824
 2813SOL     OW10277   7.766  13.289   4.031
 2813SOL    HW110278   7.679  13.268   4.066
 2813SOL    HW210279   7.815  13.320   4.107
 2814SOL     OW10280   3.799   1.240  12.561
 2814SOL    HW110281   3.861   1.179  12.523
 2814SOL    HW210282   3.803   1.224  12.655
 2815SOL     OW10283  10.775   4.826   0.794
 2815SOL    HW110284  10.763   4.880   0.871
 2815SOL    HW210285  10.725   4.870   0.725
 2816SOL     OW10286  14.256  13.989  12.370
 2816SOL    HW110287  14.328  14.029  12.420
 2816SOL    HW210288  14.201  14.063  12.345
 2817SOL     OW10289   4.833   1.148  14.253
 2817SOL    HW110290   4.781   1.150  14.172
 2817SOL    HW210291   4.841   1.055  14.273
 2818SOL     OW10292   4.458   4.266   8.973
 2818SOL    HW110293   4.516   4.314   8.914
 2818SOL    HW210294   4.371   4.301   8.954
 2819SOL     OW10295   2.010   8.694   3.503
 2819SOL    HW110296   1.929   8.744   3.508
 2819SOL    HW210297   2.076   8.750   3.544
 2820SOL     OW10298   6.986   1.087   7.876
 2820SOL    HW110299   6.970   1.058   7.966
 2820SOL    HW210300   6.920   1.154   7.861
 2821SOL     OW10301   6.023   3.867   1.954
 2821SOL    HW110302   5.996   3.867   2.045
 2821SOL    HW210303   5.950   3.826   1.907
 2822SOL     OW10304   2.411  11.534  13.660
 2822SOL    HW110305   2.379  11.520  13.571
 2822SOL    HW210306   2.459  11.617  13.655
 2823SOL     OW10307  14.376   9.678   2.935
 2823SOL    HW110308  14.293   9.633   2.953
 2823SOL    HW210309  14.438   9.607   2.917
 2824SOL     OW10310   2.900   8.504  12.124
 2824SOL    HW110311   2.866   8.474  12.208
 2824SOL    HW210312   2.964   8.437  12.099
 2825SOL     OW10313  10.971   0.435   8.358
 2825SOL    HW110314  10.948   0.448   8.266
 2825SOL    HW210315  10.889   0.443   8.405
 2826SOL     OW10316   5.766   3.180   9.723
 2826SOL    HW110317   5.841   3.122   9.729
 2826SOL    HW210318   5.699   3.139   9.778
 2827SOL     OW10319  13.235   1.706  13.526
 2827SOL    HW110320  13.278   1.723  13.609
 2827SOL    HW210321  13.232   1.611  13.519
 2828SOL     OW10322  13.179   7.686   4.855
 2828SOL    HW110323  13.237   7.670   4.929
 2828SOL    HW210324  13.172   7.602   4.810
 2829SOL     OW10325   0.592   6.038  12.706
 2829SOL    HW110326   0.681   6.015  12.682
 2829SOL    HW210327   0.558   6.086  12.630
 2830SOL     OW10328   4.438   6.650   0.681
 2830SOL    HW110329   4.423   6.707   0.606
 2830SOL    HW210330   4.391   6.692   0.753
 2831SOL     OW10331  11.072  12.286   8.819
 2831SOL    HW110332  11.048  12.377   8.799
 2831SOL    HW210333  11.000  12.254   8.874
 2832SOL     OW10334  12.931   7.452   3.446
 2832SOL    HW110335  12.919   7.359   3.423
 2832SOL    HW210336  12.964   7.450   3.535
 2833SOL     OW10337   0.387   7.744   5.484
 2833SOL    HW110338   0.441   7.747   5.562
 2833SOL    HW210339   0.427   7.677   5.428
 2834SOL     OW10340  10.409   0.300  12.136
 2834SOL    HW110341  10.495   0.259  12.131
 2834SOL    HW210342  10.415   0.376  12.078
 2835SOL     OW10343   9.139   4.096   7.330
 2835SOL    HW110344   9.156   4.139   7.246
 2835SOL    HW210345   9.200   4.023   7.332
 2836SOL     OW10346   9.139  12.805   7.934
 2836SOL    HW110347   9.131  12.768   8.022
 2836SOL    HW210348   9.232  12.823   7.923
 2837SOL     OW10349   4.775  14.446  13.066
 2837SOL    HW110350   4.690  14.409  13.089
 2837SOL    HW210351   4.795  14.506  13.137
 2838SOL     OW10352   1.832  13.841   9.170
 2838SOL    HW110353   1.793  13.924   9.143
 2838SOL    HW210354   1.927  13.856   9.165
 2839SOL     OW10355  10.142   9.344   6.015
 2839SOL    HW110356  10.092   9.321   5.936
 2839SOL    HW210357  10.165   9.260   6.055
 2840SOL     OW10358  13.899   3.888   3.693
 2840SOL    HW110359  13.953   3.962   3.667
 2840SOL    HW210360  13.962   3.821   3.722
 2841SOL     OW10361   3.340  11.058   4.237
 2841SOL    HW110362   3.270  11.118   4.210
 2841SOL    HW210363   3.342  11.065   4.332
 2842SOL     OW10364  14.813  12.943   8.537
 2842SOL    HW110365  14.830  12.900   8.453
 2842SOL    HW210366  14.779  12.873   8.593
 2843SOL     OW10367   1.173  10.614   8.121
 2843SOL    HW110368   1.227  10.597   8.197
 2843SOL    HW210369   1.153  10.707   8.125
 2844SOL     OW10370  11.903  14.705   9.809
 2844SOL    HW110371  11.986  14.667   9.837
 2844SOL    HW210372  11.928  14.777   9.751
 2845SOL     OW10373  13.291   8.358   0.702
 2845SOL    HW110374  13.336   8.407   0.771
 2845SOL    HW210375  13.201   8.390   0.705
 2846SOL     OW10376   5.541   2.527   8.148
 2846SOL    HW110377   5.580   2.446   8.182
 2846SOL    HW210378   5.565   2.527   8.055
 2847SOL     OW10379  12.471   9.897  14.504
 2847SOL    HW110380  12.426   9.831  14.452
 2847SOL    HW210381  12.456   9.871  14.595
 2848SOL     OW10382  10.869   1.836   1.824
 2848SOL    HW110383  10.781   1.860   1.796
 2848SOL    HW210384  10.897   1.770   1.761
 2849SOL     OW10385  12.953  12.174   8.223
 2849SOL    HW110386  13.028  12.125   8.190
 2849SOL    HW210387  12.948  12.251   8.166
 2850SOL     OW10388   5.490   9.989   6.505
 2850SOL    HW110389   5.470   9.911   6.556
 2850SOL    HW210390   5.443   9.976   6.423
 2851SOL     OW10391  10.405  12.137   9.478
 2851SOL    HW110392  10.448  12.083   9.544
 2851SOL    HW210393  10.376  12.215   9.525
 2852SOL     OW10394   7.462   3.502   1.976
 2852SOL    HW110395   7.417   3.546   2.048
 2852SOL    HW210396   7.396   3.497   1.907
 2853SOL     OW10397   4.336  13.010   3.832
 2853SOL    HW110398   4.254  12.960   3.830
 2853SOL    HW210399   4.313  13.091   3.878
 2854SOL     OW10400   1.260   7.048  11.018
 2854SOL    HW110401   1.247   6.953  11.017
 2854SOL    HW210402   1.322   7.065  10.948
 2855SOL     OW10403   2.493  14.270   5.789
 2855SOL    HW110404   2.542  14.188   5.782
 2855SOL    HW210405   2.406  14.249   5.754
 2856SOL     OW10406   6.722  12.415   9.434
 2856SOL    HW110407   6.745  12.373   9.351
 2856SOL    HW210408   6.693  12.503   9.409
 2857SOL     OW10409   4.742  10.589   1.598
 2857SOL    HW110410   4.761  10.513   1.652
 2857SOL    HW210411   4.785  10.662   1.643
 2858SOL     OW10412  14.708   4.564   3.474
 2858SOL    HW110413  14.631   4.542   3.526
 2858SOL    HW210414  14.714   4.494   3.409
 2859SOL     OW10415   6.801   1.124   2.253
 2859SOL    HW110416   6.795   1.138   2.159
 2859SOL    HW210417   6.741   1.189   2.290
 2860SOL     OW10418   7.441   9.364  13.205
 2860SOL    HW110419   7.525   9.326  13.180
 2860SOL    HW210420   7.426   9.433  13.140
 2861SOL     OW10421   9.391  10.131   3.404
 2861SOL    HW110422   9.340  10.199   3.361
 2861SOL    HW210423   9.482  10.151   3.381
 2862SOL     OW10424  13.091   3.903  10.449
 2862SOL    HW110425  13.142   3.980  10.427
 2862SOL    HW210426  13.040   3.884  10.370
 2863SOL     OW10427  10.240  10.388   1.297
 2863SOL    HW110428  10.247  10.444   1.375
 2863SOL    HW210429  10.310  10.418   1.240
 2864SOL     OW10430   1.004   5.371  13.903
 2864SOL    HW110431   0.917   5.330  13.910
 2864SOL    HW210432   1.048   5.346  13.985
 2865SOL     OW10433   9.581  13.581   9.335
 2865SOL    HW110434   9.491  13.548   9.325
 2865SOL    HW210435   9.590  13.598   9.429
 2866SOL     OW10436   0.234  10.645   8.555
 2866SOL    HW110437   0.256  10.660   8.647
 2866SOL    HW210438   0.310  10.599   8.519
 2867SOL     OW10439  13.259   6.857  13.649
 2867SOL    HW110440  13.244   6.845  13.742
 2867SOL    HW210441  13.325   6.926  13.644
 2868SOL     OW10442   2.156  13.426  11.436
 2868SOL    HW110443   2.189  13.338  11.419
 2868SOL    HW210444   2.084  13.414  11.498
 2869SOL     OW10445  11.329   9.864  11.617
 2869SOL    HW110446  11.394   9.899  11.678
 2869SOL    HW210447  11.250   9.915  11.635
 2870SOL     OW10448  13.037   5.400   6.044
 2870SOL    HW110449  12.946   5.425   6.031
 2870SOL    HW210450  13.034   5.337   6.116
 2871SOL     OW10451   8.597   7.382   2.187
 2871SOL    HW110452   8.533   7.453   2.191
 2871SOL    HW210453   8.624   7.379   2.095
 2872SOL     OW10454   0.592   0.719   4.553
 2872SOL    HW110455   0.507   0.698   4.592
 2872SOL    HW210456   0.656   0.693   4.620
 2873SOL     OW10457   6.636   6.185  13.016
 2873SOL    HW110458   6.636   6.138  13.100
 2873SOL    HW210459   6.648   6.277  13.039
 2874SOL     OW10460   2.743   7.529   4.825
 2874SOL    HW110461   2.669   7.482   4.861
 2874SOL    HW210462   2.762   7.597   4.890
 2875SOL     OW10463   3.660  10.504   6.175
 2875SOL    HW110464   3.691  10.460   6.095
 2875SOL    HW210465   3.731  10.492   6.238
 2876SOL     OW10466   3.580   9.948  11.991
 2876SOL    HW110467   3.604   9.941  12.084
 2876SOL    HW210468   3.654   9.993  11.950
 2877SOL     OW10469  13.289   7.220   2.382
 2877SOL    HW110470  13.375   7.206   2.421
 2877SOL    HW210471  13.271   7.140   2.333
 2878SOL     OW10472   0.474   9.383   3.145
 2878SOL    HW110473   0.396   9.429   3.113
 2878SOL    HW210474   0.439   9.313   3.200
 2879SOL     OW10475   8.700  12.854   2.964
 2879SOL    HW110476   8.713  12.948   2.978
 2879SOL    HW210477   8.625  12.833   3.020
 2880SOL     OW10478  11.293   0.786  12.592
 2880SOL    HW110479  11.308   0.704  12.544
 2880SOL    HW210480  11.273   0.850  12.524
 2881SOL     OW10481  14.716   0.163   2.793
 2881SOL    HW110482  14.628   0.125   2.793
 2881SOL    HW210483  14.706   0.248   2.835
 2882SOL     OW10484  10.676   8.643   4.986
 2882SOL    HW110485  10.587   8.629   4.954
 2882SOL    HW210486  10.732   8.626   4.910
 2883SOL     OW10487   5.663   2.172   0.293
 2883SOL    HW110488   5.631   2.109   0.230
 2883SOL    HW210489   5.729   2.223   0.245
 2884SOL     OW10490   6.236  12.073  11.664
 2884SOL    HW110491   6.265  12.163  11.672
 2884SOL    HW210492   6.305  12.021  11.705
 2885SOL     OW10493  10.485  13.341  12.604
 2885SOL    HW110494  10.549  13.409  12.626
 2885SOL    HW210495  10.445  13.372  12.523
 2886SOL     OW10496   7.105   6.527  13.058
 2886SOL    HW110497   7.168   6.474  13.008
 2886SOL    HW210498   7.096   6.607  13.006
 2887SOL     OW10499  13.850  14.857   9.828
 2887SOL    HW110500  13.904   0.030   9.889
 2887SOL    HW210501  13.794  14.803   9.884
 2888SOL     OW10502   0.839   5.764  14.549
 2888SOL    HW110503   0.778   5.830  14.516
 2888SOL    HW210504   0.817   5.685  14.499
 2889SOL     OW10505   1.363  10.659   6.947
 2889SOL    HW110506   1.285  10.702   6.983
 2889SOL    HW210507   1.361  10.571   6.984
 2890SOL     OW10508  14.119   3.290   2.241
 2890SOL    HW110509  14.126   3.253   2.329
 2890SOL    HW210510  14.195   3.347   2.232
 2891SOL     OW10511   5.135   1.593   5.826
 2891SOL    HW110512   5.080   1.560   5.755
 2891SOL    HW210513   5.074   1.636   5.886
 2892SOL     OW10514   1.980   5.248  14.772
 2892SOL    HW110515   1.992   5.343  14.772
 2892SOL    HW210516   2.056   5.214  14.819
 2893SOL     OW10517   8.923   3.671   5.591
 2893SOL    HW110518   8.847   3.721   5.562
 2893SOL    HW210519   8.899   3.580   5.574
 2894SOL     OW10520  11.753  10.256   1.583
 2894SOL    HW110521  11.833  10.210   1.558
 2894SOL    HW210522  11.722  10.212   1.662
 2895SOL     OW10523  12.806   6.956   9.312
 2895SOL    HW110524  12.883   6.921   9.358
 2895SOL    HW210525  12.837   6.972   9.223
 2896SOL     OW10526   3.716   5.966   7.196
 2896SOL    HW110527   3.622   5.952   7.192
 2896SOL    HW210528   3.748   5.937   7.110
 2897SOL     OW10529   6.689  11.759   5.041
 2897SOL    HW110530   6.671  11.836   5.095
 2897SOL    HW210531   6.778  11.732   5.067
 2898SOL     OW10532   8.363   3.621  14.243
 2898SOL    HW110533   8.418   3.544  14.258
 2898SOL    HW210534   8.363   3.632  14.147
 2899SOL     OW10535   5.212   1.597   9.625
 2899SOL    HW110536   5.200   1.596   9.530
 2899SOL    HW210537   5.213   1.690   9.648
 2900SOL     OW10538   9.267  11.800   8.421
 2900SOL    HW110539   9.292  11.709   8.433
 2900SOL    HW210540   9.174  11.803   8.446
 2901SOL     OW10541   5.855  14.207  12.419
 2901SOL    HW110542   5.860  14.133  12.480
 2901SOL    HW210543   5.778  14.256  12.446
 2902SOL     OW10544   1.484   2.013   6.490
 2902SOL    HW110545   1.546   2.086   6.493
 2902SOL    HW210546   1.401   2.050   6.520
 2903SOL     OW10547  11.497  14.079  10.925
 2903SOL    HW110548  11.513  14.132  10.848
 2903SOL    HW210549  11.502  14.141  10.998
 2904SOL     OW10550   0.419   1.010   2.465
 2904SOL    HW110551   0.404   1.036   2.556
 2904SOL    HW210552   0.365   1.070   2.414
 2905SOL     OW10553  11.883  11.357   8.715
 2905SOL    HW110554  11.878  11.443   8.757
 2905SOL    HW210555  11.915  11.376   8.626
 2906SOL     OW10556   4.001  11.933  12.681
 2906SOL    HW110557   4.008  12.026  12.700
 2906SOL    HW210558   3.908  11.917  12.669
 2907SOL     OW10559  11.582   7.788   0.186
 2907SOL    HW110560  11.541   7.736   0.255
 2907SOL    HW210561  11.552   7.748   0.104
 2908SOL     OW10562   6.204   0.899  12.217
 2908SOL    HW110563   6.165   0.931  12.298
 2908SOL    HW210564   6.208   0.977  12.161
 2909SOL     OW10565   7.306   6.520   9.454
 2909SOL    HW110566   7.283   6.497   9.543
 2909SOL    HW210567   7.254   6.598   9.435
 2910SOL     OW10568   2.227   7.212   1.921
 2910SOL    HW110569   2.220   7.263   2.001
 2910SOL    HW210570   2.260   7.127   1.949
 2911SOL     OW10571   5.559  13.904   8.651
 2911SOL    HW110572   5.594  13.828   8.698
 2911SOL    HW210573   5.580  13.888   8.559
 2912SOL     OW10574  11.581   5.017   1.309
 2912SOL    HW110575  11.531   5.082   1.359
 2912SOL    HW210576  11.672   5.049   1.313
 2913SOL     OW10577   7.394   1.928  10.812
 2913SOL    HW110578   7.382   1.843  10.771
 2913SOL    HW210579   7.469   1.916  10.871
 2914SOL     OW10580  11.819   1.950  10.466
 2914SOL    HW110581  11.725   1.941  10.448
 2914SOL    HW210582  11.859   1.880  10.413
 2915SOL     OW10583   0.461   3.018  11.487
 2915SOL    HW110584   0.402   3.092  11.472
 2915SOL    HW210585   0.545   3.048  11.452
 2916SOL     OW10586   6.650   9.328   3.625
 2916SOL    HW110587   6.690   9.340   3.711
 2916SOL    HW210588   6.626   9.236   3.622
 2917SOL     OW10589  11.654   2.408  10.763
 2917SOL    HW110590  11.646   2.335  10.702
 2917SOL    HW210591  11.613   2.482  10.718
 2918SOL     OW10592  12.022   8.510   6.941
 2918SOL    HW110593  12.113   8.521   6.971
 2918SOL    HW210594  11.980   8.593   6.962
 2919SOL     OW10595  11.489  13.702   5.057
 2919SOL    HW110596  11.451  13.651   4.986
 2919SOL    HW210597  11.518  13.636   5.121
 2920SOL     OW10598   2.294   4.050  13.141
 2920SOL    HW110599   2.358   4.119  13.152
 2920SOL    HW210600   2.229   4.086  13.080
 2921SOL     OW10601   7.991   7.993   9.170
 2921SOL    HW110602   7.973   8.044   9.091
 2921SOL    HW210603   7.908   7.992   9.217
 2922SOL     OW10604   2.815  11.561   1.780
 2922SOL    HW110605   2.848  11.610   1.855
 2922SOL    HW210606   2.783  11.479   1.817
 2923SOL     OW10607   0.871  13.898   2.746
 2923SOL    HW110608   0.898  13.806   2.740
 2923SOL    HW210609   0.855  13.925   2.656
 2924SOL     OW10610   2.424   6.883   3.082
 2924SOL    HW110611   2.410   6.848   2.995
 2924SOL    HW210612   2.520   6.891   3.090
 2925SOL     OW10613   0.839   8.705   8.671
 2925SOL    HW110614   0.837   8.655   8.752
 2925SOL    HW210615   0.912   8.766   8.681
 2926SOL     OW10616   9.975   6.124  10.837
 2926SOL    HW110617   9.942   6.126  10.747
 2926SOL    HW210618  10.028   6.203  10.844
 2927SOL     OW10619   2.828   8.155  12.937
 2927SOL    HW110620   2.780   8.094  12.881
 2927SOL    HW210621   2.900   8.104  12.972
 2928SOL     OW10622   9.073  13.725  11.042
 2928SOL    HW110623   9.031  13.802  11.080
 2928SOL    HW210624   9.167  13.744  11.048
 2929SOL     OW10625  10.318   9.307   9.586
 2929SOL    HW110626  10.321   9.247   9.511
 2929SOL    HW210627  10.272   9.259   9.654
 2930SOL     OW10628   2.445   8.840   1.589
 2930SOL    HW110629   2.482   8.806   1.671
 2930SOL    HW210630   2.422   8.931   1.609
 2931SOL     OW10631   4.671   9.565  11.255
 2931SOL    HW110632   4.725   9.589  11.331
 2931SOL    HW210633   4.596   9.625  11.260
 2932SOL     OW10634   1.513   2.188   3.865
 2932SOL    HW110635   1.525   2.276   3.828
 2932SOL    HW210636   1.420   2.171   3.857
 2933SOL     OW10637   3.953   4.390   1.301
 2933SOL    HW110638   3.864   4.420   1.286
 2933SOL    HW210639   3.953   4.299   1.271
 2934SOL     OW10640  14.352   3.571   6.048
 2934SOL    HW110641  14.362   3.505   5.979
 2934SOL    HW210642  14.435   3.568   6.096
 2935SOL     OW10643   1.783   7.044  10.662
 2935SOL    HW110644   1.754   6.969  10.610
 2935SOL    HW210645   1.869   7.019  10.695
 2936SOL     OW10646   1.554  12.290   5.123
 2936SOL    HW110647   1.555  12.291   5.219
 2936SOL    HW210648   1.562  12.383   5.099
 2937SOL     OW10649   2.534   2.309   1.018
 2937SOL    HW110650   2.440   2.294   1.012
 2937SOL    HW210651   2.561   2.331   0.929
 2938SOL     OW10652   2.049   3.748   9.912
 2938SOL    HW110653   2.103   3.712   9.983
 2938SOL    HW210654   2.110   3.801   9.861
 2939SOL     OW10655  14.295   8.506   6.702
 2939SOL    HW110656  14.330   8.518   6.613
 2939SOL    HW210657  14.231   8.435   6.693
 2940SOL     OW10658   1.237  12.340   8.267
 2940SOL    HW110659   1.291  12.367   8.193
 2940SOL    HW210660   1.148  12.364   8.242
 2941SOL     OW10661   3.188  12.461   3.919
 2941SOL    HW110662   3.188  12.436   3.827
 2941SOL    HW210663   3.194  12.556   3.919
 2942SOL     OW10664   7.154   7.981   1.519
 2942SOL    HW110665   7.128   7.893   1.548
 2942SOL    HW210666   7.234   7.967   1.469
 2943SOL     OW10667   3.708  13.826  13.496
 2943SOL    HW110668   3.704  13.921  13.509
 2943SOL    HW210669   3.770  13.796  13.563
 2944SOL     OW10670  13.773   4.379   3.282
 2944SOL    HW110671  13.680   4.355   3.279
 2944SOL    HW210672  13.779   4.455   3.224
 2945SOL     OW10673  12.748  14.696  12.374
 2945SOL    HW110674  12.722  14.731  12.459
 2945SOL    HW210675  12.787  14.611  12.394
 2946SOL     OW10676   7.095  14.413  14.182
 2946SOL    HW110677   7.132  14.377  14.101
 2946SOL    HW210678   7.033  14.347  14.211
 2947SOL     OW10679   2.774   1.225   3.430
 2947SOL    HW110680   2.747   1.161   3.495
 2947SOL    HW210681   2.777   1.177   3.347
 2948SOL     OW10682   5.612   3.601  10.213
 2948SOL    HW110683   5.703   3.630  10.207
 2948SOL    HW210684   5.571   3.663  10.273
 2949SOL     OW10685  13.356   2.225   9.221
 2949SOL    HW110686  13.309   2.305   9.195
 2949SOL    HW210687  13.439   2.230   9.173
 2950SOL     OW10688  13.080  12.754   5.748
 2950SOL    HW110689  13.041  12.817   5.688
 2950SOL    HW210690  13.009  12.731   5.808
 2951SOL     OW10691   2.216  13.714   5.357
 2951SOL    HW110692   2.174  13.703   5.442
 2951SOL    HW210693   2.187  13.800   5.327
 2952SOL     OW10694  14.045   9.288   5.971
 2952SOL    HW110695  14.020   9.380   5.964
 2952SOL    HW210696  14.106   9.275   5.899
 2953SOL     OW10697   5.396   5.013   0.556
 2953SOL    HW110698   5.325   4.960   0.518
 2953SOL    HW210699   5.458   4.949   0.590
 2954SOL     OW10700   0.369   1.859   4.219
 2954SOL    HW110701   0.338   1.896   4.302
 2954SOL    HW210702   0.301   1.883   4.156
 2955SOL     OW10703   0.275   7.286   3.358
 2955SOL    HW110704   0.196   7.325   3.322
 2955SOL    HW210705   0.346   7.317   3.302
 2956SOL     OW10706   7.292   0.599   2.605
 2956SOL    HW110707   7.348   0.621   2.680
 2956SOL    HW210708   7.222   0.664   2.607
 2957SOL     OW10709  13.511   8.802   4.644
 2957SOL    HW110710  13.553   8.887   4.629
 2957SOL    HW210711  13.567   8.739   4.597
 2958SOL     OW10712   1.092  14.859   7.659
 2958SOL    HW110713   1.050   0.050   7.605
 2958SOL    HW210714   1.023  14.832   7.720
 2959SOL     OW10715   5.086   1.207   1.314
 2959SOL    HW110716   5.008   1.242   1.357
 2959SOL    HW210717   5.069   1.113   1.307
 2960SOL     OW10718   3.591   4.221   3.129
 2960SOL    HW110719   3.539   4.221   3.209
 2960SOL    HW210720   3.526   4.213   3.059
 2961SOL     OW10721   8.764   8.487   4.721
 2961SOL    HW110722   8.769   8.553   4.790
 2961SOL    HW210723   8.768   8.403   4.768
 2962SOL     OW10724   8.837   0.299   0.544
 2962SOL    HW110725   8.788   0.258   0.615
 2962SOL    HW210726   8.788   0.276   0.465
 2963SOL     OW10727   6.081   9.890   8.925
 2963SOL    HW110728   6.022   9.878   9.000
 2963SOL    HW210729   6.029   9.862   8.850
 2964SOL     OW10730   5.026  14.493   1.404
 2964SOL    HW110731   5.041  14.403   1.373
 2964SOL    HW210732   4.977  14.482   1.485
 2965SOL     OW10733   7.773   4.503   7.678
 2965SOL    HW110734   7.810   4.432   7.625
 2965SOL    HW210735   7.775   4.470   7.767
 2966SOL     OW10736  13.695  13.024  14.410
 2966SOL    HW110737  13.778  13.062  14.440
 2966SOL    HW210738  13.667  13.082  14.339
 2967SOL     OW10739  14.800  13.517   3.179
 2967SOL    HW110740  14.750  13.581   3.128
 2967SOL    HW210741  14.847  13.570   3.244
 2968SOL     OW10742   5.091   0.001   0.776
 2968SOL    HW110743   5.128   0.031   0.693
 2968SOL    HW210744   5.091   0.079   0.832
 2969SOL     OW10745   8.100   6.764   0.169
 2969SOL    HW110746   8.114   6.787   0.260
 2969SOL    HW210747   8.101   6.848   0.122
 2970SOL     OW10748  13.573   1.479  10.049
 2970SOL    HW110749  13.629   1.430  10.109
 2970SOL    HW210750  13.604   1.455   9.962
 2971SOL     OW10751   0.515   7.220   3.872
 2971SOL    HW110752   0.584   7.164   3.836
 2971SOL    HW210753   0.434   7.185   3.833
 2972SOL     OW10754   5.789   3.495   4.446
 2972SOL    HW110755   5.761   3.428   4.384
 2972SOL    HW210756   5.801   3.449   4.528
 2973SOL     OW10757  11.522   1.687   5.543
 2973SOL    HW110758  11.525   1.731   5.458
 2973SOL    HW210759  11.465   1.743   5.596
 2974SOL     OW10760   2.596  13.245   4.764
 2974SOL    HW110761   2.664  13.300   4.724
 2974SOL    HW210762   2.541  13.306   4.812
 2975SOL     OW10763   9.116  14.154   5.109
 2975SOL    HW110764   9.127  14.080   5.170
 2975SOL    HW210765   9.036  14.197   5.138
 2976SOL     OW10766  11.910   4.379   3.275
 2976SOL    HW110767  11.818   4.403   3.265
 2976SOL    HW210768  11.941   4.431   3.349
 2977SOL     OW10769  11.525   9.887   1.716
 2977SOL    HW110770  11.490   9.911   1.801
 2977SOL    HW210771  11.589   9.819   1.734
 2978SOL     OW10772  14.816   8.458  14.184
 2978SOL    HW110773  14.784   8.374  14.151
 2978SOL    HW210774  14.824   8.513  14.105
 2979SOL     OW10775   2.975   2.500   9.298
 2979SOL    HW110776   2.981   2.406   9.280
 2979SOL    HW210777   3.065   2.526   9.317
 2980SOL     OW10778   3.627  11.894   9.697
 2980SOL    HW110779   3.551  11.946   9.723
 2980SOL    HW210780   3.640  11.832   9.769
 2981SOL     OW10781   5.462   2.650   4.754
 2981SOL    HW110782   5.394   2.582   4.748
 2981SOL    HW210783   5.528   2.624   4.689
 2982SOL     OW10784   9.833   7.306   9.386
 2982SOL    HW110785   9.782   7.342   9.459
 2982SOL    HW210786   9.784   7.331   9.308
 2983SOL     OW10787   4.177   2.506  12.697
 2983SOL    HW110788   4.257   2.473  12.658
 2983SOL    HW210789   4.198   2.513  12.791
 2984SOL     OW10790  13.813  10.955   9.265
 2984SOL    HW110791  13.750  10.928   9.332
 2984SOL    HW210792  13.890  10.981   9.315
 2985SOL     OW10793   5.441  11.877   3.505
 2985SOL    HW110794   5.354  11.887   3.543
 2985SOL    HW210795   5.500  11.870   3.580
 2986SOL     OW10796   9.487  10.814   9.494
 2986SOL    HW110797   9.393  10.833   9.504
 2986SOL    HW210798   9.530  10.896   9.519
 2987SOL     OW10799  14.426   0.442  10.819
 2987SOL    HW110800  14.335   0.416  10.807
 2987SOL    HW210801  14.427   0.486  10.904
 2988SOL     OW10802   6.449   1.086   5.741
 2988SOL    HW110803   6.417   0.995   5.745
 2988SOL    HW210804   6.407   1.122   5.663
 2989SOL     OW10805   2.998  12.549  13.730
 2989SOL    HW110806   2.912  12.591  13.720
 2989SOL    HW210807   3.014  12.550  13.824
 2990SOL     OW10808   6.819   4.743  12.182
 2990SOL    HW110809   6.724   4.739  12.189
 2990SOL    HW210810   6.836   4.741  12.087
 2991SOL     OW10811   5.787   0.841   4.807
 2991SOL    HW110812   5.840   0.783   4.753
 2991SOL    HW210813   5.733   0.889   4.744
 2992SOL     OW10814  13.838   6.564   3.137
 2992SOL    HW110815  13.790   6.491   3.099
 2992SOL    HW210816  13.924   6.561   3.094
 2993SOL     OW10817   3.040  13.175  12.083
 2993SOL    HW110818   2.997  13.148  12.001
 2993SOL    HW210819   3.093  13.250  12.057
 2994SOL     OW10820   2.617   1.946   8.785
 2994SOL    HW110821   2.702   1.960   8.742
 2994SOL    HW210822   2.594   2.032   8.820
 2995SOL     OW10823   8.673   5.432   3.409
 2995SOL    HW110824   8.602   5.373   3.384
 2995SOL    HW210825   8.751   5.377   3.409
 2996SOL     OW10826   7.723   5.545   5.677
 2996SOL    HW110827   7.761   5.629   5.651
 2996SOL    HW210828   7.764   5.526   5.761
 2997SOL     OW10829   2.428   7.388  10.211
 2997SOL    HW110830   2.341   7.367  10.178
 2997SOL    HW210831   2.440   7.480  10.190
 2998SOL     OW10832  13.347   7.348  12.972
 2998SOL    HW110833  13.410   7.420  12.974
 2998SOL    HW210834  13.379   7.285  13.036
 2999SOL     OW10835   1.894   3.125   3.344
 2999SOL    HW110836   1.887   3.086   3.431
 2999SOL    HW210837   1.805   3.156   3.326
 3000SOL     OW10838   9.572  11.875  11.987
 3000SOL    HW110839   9.605  11.833  12.066
 3000SOL    HW210840   9.644  11.932  11.959
 3001SOL     OW10841  13.708  13.075   1.242
 3001SOL    HW110842  13.651  13.070   1.318
 3001SOL    HW210843  13.654  13.044   1.169
 3002SOL     OW10844   6.563  11.676   3.955
 3002SOL    HW110845   6.637  11.736   3.958
 3002SOL    HW210846   6.514  11.695   4.035
 3003SOL     OW10847   2.505  14.647   3.100
 3003SOL    HW110848   2.574  14.674   3.039
 3003SOL    HW210849   2.445  14.722   3.102
 3004SOL     OW10850  10.358   1.830   7.261
 3004SOL    HW110851  10.270   1.793   7.271
 3004SOL    HW210852  10.361   1.861   7.170
 3005SOL     OW10853  12.616  12.289  14.268
 3005SOL    HW110854  12.542  12.230  14.279
 3005SOL    HW210855  12.683  12.256  14.328
 3006SOL     OW10856   5.303   8.308   2.441
 3006SOL    HW110857   5.246   8.252   2.494
 3006SOL    HW210858   5.310   8.262   2.357
 3007SOL     OW10859   3.072   9.050   2.071
 3007SOL    HW110860   3.157   9.029   2.111
 3007SOL    HW210861   3.059   8.982   2.006
 3008SOL     OW10862  13.606   6.444   1.575
 3008SOL    HW110863  13.583   6.360   1.535
 3008SOL    HW210864  13.534   6.502   1.552
 3009SOL     OW10865   2.969   2.450   9.754
 3009SOL    HW110866   2.897   2.403   9.712
 3009SOL    HW210867   3.047   2.421   9.707
 3010SOL     OW10868   1.266   4.476   4.214
 3010SOL    HW110869   1.225   4.405   4.165
 3010SOL    HW210870   1.304   4.433   4.291
 3011SOL     OW10871  10.833  10.100  13.354
 3011SOL    HW110872  10.908  10.043  13.338
 3011SOL    HW210873  10.860  10.154  13.428
 3012SOL     OW10874   2.588   8.140   1.496
 3012SOL    HW110875   2.630   8.127   1.581
 3012SOL    HW210876   2.653   8.113   1.432
 3013SOL     OW10877   9.556   7.020   2.878
 3013SOL    HW110878   9.560   7.055   2.967
 3013SOL    HW210879   9.636   7.051   2.836
 3014SOL     OW10880   3.776   0.900   4.259
 3014SOL    HW110881   3.761   0.806   4.254
 3014SOL    HW210882   3.854   0.909   4.314
 3015SOL     OW10883  11.216   0.346   5.343
 3015SOL    HW110884  11.213   0.425   5.397
 3015SOL    HW210885  11.125   0.330   5.319
 3016SOL     OW10886   5.615  12.365   1.489
 3016SOL    HW110887   5.677  12.294   1.509
 3016SOL    HW210888   5.622  12.378   1.395
 3017SOL     OW10889   8.092   0.617  11.260
 3017SOL    HW110890   8.114   0.622  11.353
 3017SOL    HW210891   8.038   0.539  11.252
 3018SOL     OW10892  11.942   7.999   5.571
 3018SOL    HW110893  11.913   7.912   5.598
 3018SOL    HW210894  12.018   8.017   5.626
 3019SOL     OW10895  12.187   5.750  11.593
 3019SOL    HW110896  12.167   5.790  11.509
 3019SOL    HW210897  12.117   5.687  11.608
 3020SOL     OW10898  14.074   6.727  12.393
 3020SOL    HW110899  14.042   6.717  12.483
 3020SOL    HW210900  14.104   6.639  12.369
 3021SOL     OW10901   3.883   6.695  12.665
 3021SOL    HW110902   3.854   6.734  12.582
 3021SOL    HW210903   3.924   6.613  12.639
 3022SOL     OW10904   8.492  14.239   8.351
 3022SOL    HW110905   8.466  14.323   8.389
 3022SOL    HW210906   8.497  14.256   8.257
 3023SOL     OW10907   8.459   6.227   5.063
 3023SOL    HW110908   8.416   6.256   4.983
 3023SOL    HW210909   8.490   6.138   5.043
 3024SOL     OW10910   1.885   4.418   3.192
 3024SOL    HW110911   1.866   4.496   3.139
 3024SOL    HW210912   1.848   4.438   3.278
 3025SOL     OW10913   5.015  14.648   5.612
 3025SOL    HW110914   4.935  14.595   5.618
 3025SOL    HW210915   5.004  14.716   5.678
 3026SOL     OW10916  10.742   9.481   8.050
 3026SOL    HW110917  10.733   9.522   7.964
 3026SOL    HW210918  10.694   9.398   8.041
 3027SOL     OW10919   7.504   3.207   3.301
 3027SOL    HW110920   7.568   3.181   3.367
 3027SOL    HW210921   7.556   3.235   3.226
 3028SOL     OW10922   8.818   3.014   2.099
 3028SOL    HW110923   8.726   3.019   2.125
 3028SOL    HW210924   8.844   2.924   2.122
 3029SOL     OW10925  10.462   6.466  12.289
 3029SOL    HW110926  10.530   6.495  12.228
 3029SOL    HW210927  10.389   6.526  12.273
 3030SOL     OW10928   8.111   2.531   6.921
 3030SOL    HW110929   8.165   2.561   6.994
 3030SOL    HW210930   8.053   2.604   6.901
 3031SOL     OW10931   7.891   4.077   8.755
 3031SOL    HW110932   7.867   3.994   8.795
 3031SOL    HW210933   7.810   4.109   8.715
 3032SOL     OW10934   1.845   1.178   9.214
 3032SOL    HW110935   1.877   1.268   9.226
 3032SOL    HW210936   1.753   1.189   9.190
 3033SOL     OW10937  10.371   3.459   9.147
 3033SOL    HW110938  10.454   3.456   9.099
 3033SOL    HW210939  10.397   3.470   9.239
 3034SOL     OW10940   4.264   6.313   6.280
 3034SOL    HW110941   4.254   6.334   6.187
 3034SOL    HW210942   4.264   6.398   6.324
 3035SOL     OW10943   7.636  12.905  11.736
 3035SOL    HW110944   7.568  12.949  11.787
 3035SOL    HW210945   7.626  12.812  11.760
 3036SOL     OW10946  11.960  10.457  10.281
 3036SOL    HW110947  11.923  10.448  10.369
 3036SOL    HW210948  11.891  10.501  10.231
 3037SOL     OW10949  14.636   5.842  10.259
 3037SOL    HW110950  14.728   5.819  10.265
 3037SOL    HW210951  14.596   5.768  10.213
 3038SOL     OW10952   5.597   3.530  11.559
 3038SOL    HW110953   5.667   3.568  11.612
 3038SOL    HW210954   5.619   3.553  11.469
 3039SOL     OW10955   6.056   2.920  10.743
 3039SOL    HW110956   6.078   2.878  10.660
 3039SOL    HW210957   6.078   3.012  10.730
 3040SOL     OW10958   0.886   2.795  10.798
 3040SOL    HW110959   0.820   2.730  10.820
 3040SOL    HW210960   0.960   2.744  10.764
 3041SOL     OW10961   2.207  11.901  13.483
 3041SOL    HW110962   2.287  11.854  13.505
 3041SOL    HW210963   2.212  11.982  13.534
 3042SOL     OW10964   5.518  10.344   6.776
 3042SOL    HW110965   5.573  10.307   6.846
 3042SOL    HW210966   5.537  10.289   6.700
 3043SOL     OW10967   8.740   3.389  13.361
 3043SOL    HW110968   8.677   3.378  13.290
 3043SOL    HW210969   8.701   3.345  13.436
 3044SOL     OW10970   2.279  10.734  11.501
 3044SOL    HW110971   2.288  10.779  11.417
 3044SOL    HW210972   2.305  10.644  11.483
 3045SOL     OW10973  14.796  13.749   1.127
 3045SOL    HW110974  14.757  13.680   1.073
 3045SOL    HW210975  14.722  13.803   1.155
 3046SOL     OW10976  11.399   5.314   4.758
 3046SOL    HW110977  11.413   5.313   4.663
 3046SOL    HW210978  11.476   5.271   4.794
 3047SOL     OW10979   5.962   2.906   0.683
 3047SOL    HW110980   5.941   2.840   0.618
 3047SOL    HW210981   5.933   2.869   0.767
 3048SOL     OW10982  14.857   3.505   8.855
 3048SOL    HW110983  14.849   3.557   8.775
 3048SOL    HW210984  14.797   3.431   8.842
 3049SOL     OW10985   8.591   4.627  14.481
 3049SOL    HW110986   8.534   4.648  14.407
 3049SOL    HW210987   8.587   4.705  14.537
 3050SOL     OW10988   3.009  10.613  12.671
 3050SOL    HW110989   3.066  10.548  12.714
 3050SOL    HW210990   2.998  10.580  12.582
 3051SOL     OW10991   1.645   4.423   1.934
 3051SOL    HW110992   1.560   4.398   1.899
 3051SOL    HW210993   1.692   4.340   1.944
 3052SOL     OW10994   3.745   0.070   1.982
 3052SOL    HW110995   3.767   0.028   1.899
 3052SOL    HW210996   3.797   0.150   1.983
 3053SOL     OW10997   3.731  11.876   2.830
 3053SOL    HW110998   3.724  11.872   2.925
 3053SOL    HW210999   3.824  11.884   2.813
 3054SOL     OW11000  12.006   2.037   0.592
 3054SOL    HW111001  12.020   2.105   0.658
 3054SOL    HW211002  11.912   2.038   0.576
 3055SOL     OW11003  10.342  10.921   9.246
 3055SOL    HW111004  10.323  10.836   9.207
 3055SOL    HW211005  10.257  10.954   9.276
 3056SOL     OW11006  13.939  14.000  10.456
 3056SOL    HW111007  13.856  13.989  10.502
 3056SOL    HW211008  14.006  13.982  10.522
 3057SOL     OW11009   0.966  10.245  14.122
 3057SOL    HW111010   0.986  10.227  14.214
 3057SOL    HW211011   1.034  10.199  14.074
 3058SOL     OW11012   9.020   4.272   8.419
 3058SOL    HW111013   9.016   4.184   8.456
 3058SOL    HW211014   9.113   4.285   8.400
 3059SOL     OW11015   1.268   1.870   6.150
 3059SOL    HW111016   1.216   1.877   6.070
 3059SOL    HW211017   1.244   1.785   6.187
 3060SOL     OW11018  10.637   6.318  11.795
 3060SOL    HW111019  10.598   6.394  11.838
 3060SOL    HW211020  10.595   6.315  11.709
 3061SOL     OW11021   3.676   2.335   0.246
 3061SOL    HW111022   3.743   2.320   0.179
 3061SOL    HW211023   3.685   2.261   0.306
 3062SOL     OW11024   7.774   2.263   9.175
 3062SOL    HW111025   7.741   2.319   9.105
 3062SOL    HW211026   7.719   2.284   9.250
 3063SOL     OW11027   8.258  12.854   3.437
 3063SOL    HW111028   8.218  12.768   3.432
 3063SOL    HW211029   8.347  12.837   3.467
 3064SOL     OW11030   7.469  13.527  11.623
 3064SOL    HW111031   7.563  13.507  11.619
 3064SOL    HW211032   7.457  13.570  11.707
 3065SOL     OW11033   4.936   0.009  10.074
 3065SOL    HW111034   4.911   0.084  10.128
 3065SOL    HW211035   4.867  14.821  10.089
 3066SOL     OW11036  14.599  13.417   5.225
 3066SOL    HW111037  14.656  13.484   5.262
 3066SOL    HW211038  14.604  13.344   5.287
 3067SOL     OW11039   0.095   3.133   0.722
 3067SOL    HW111040   0.065   3.096   0.639
 3067SOL    HW211041   0.040   3.090   0.788
 3068SOL     OW11042  11.979   1.783   9.939
 3068SOL    HW111043  11.972   1.766   9.846
 3068SOL    HW211044  12.026   1.707   9.974
 3069SOL     OW11045   3.240   2.231  11.924
 3069SOL    HW111046   3.271   2.195  11.841
 3069SOL    HW211047   3.298   2.305  11.941
 3070SOL     OW11048  10.016  11.145   7.942
 3070SOL    HW111049  10.100  11.150   7.988
 3070SOL    HW211050   9.961  11.090   7.999
 3071SOL     OW11051  12.096   2.373  12.516
 3071SOL    HW111052  12.044   2.410  12.446
 3071SOL    HW211053  12.151   2.445  12.546
 3072SOL     OW11054   1.317  14.266   9.482
 3072SOL    HW111055   1.257  14.341   9.477
 3072SOL    HW211056   1.404  14.306   9.480
 3073SOL     OW11057   4.564   0.696   3.531
 3073SOL    HW111058   4.495   0.634   3.507
 3073SOL    HW211059   4.517   0.769   3.573
 3074SOL     OW11060   3.831   3.192  10.589
 3074SOL    HW111061   3.867   3.267  10.540
 3074SOL    HW211062   3.770   3.151  10.528
 3075SOL     OW11063   4.708  11.914  13.908
 3075SOL    HW111064   4.642  11.866  13.857
 3075SOL    HW211065   4.784  11.856  13.910
 3076SOL     OW11066   2.337   3.145   8.459
 3076SOL    HW111067   2.306   3.222   8.507
 3076SOL    HW211068   2.432   3.146   8.470
 3077SOL     OW11069   9.654  13.256   7.459
 3077SOL    HW111070   9.683  13.166   7.449
 3077SOL    HW211071   9.564  13.256   7.425
 3078SOL     OW11072   7.741  13.161   6.346
 3078SOL    HW111073   7.652  13.192   6.365
 3078SOL    HW211074   7.769  13.118   6.427
 3079SOL     OW11075  12.427   9.644  11.671
 3079SOL    HW111076  12.445   9.667  11.762
 3079SOL    HW211077  12.342   9.600  11.673
 3080SOL     OW11078   3.424   2.474   1.084
 3080SOL    HW111079   3.328   2.470   1.091
 3080SOL    HW211080   3.441   2.564   1.055
 3081SOL     OW11081  14.654  10.168  11.360
 3081SOL    HW111082  14.625  10.097  11.418
 3081SOL    HW211083  14.574  10.196  11.315
 3082SOL     OW11084   1.151   2.623  14.675
 3082SOL    HW111085   1.113   2.632  14.587
 3082SOL    HW211086   1.087   2.662  14.733
 3083SOL     OW11087   9.710   9.787   6.893
 3083SOL    HW111088   9.789   9.800   6.944
 3083SOL    HW211089   9.670   9.874   6.887
 3084SOL     OW11090   0.842  12.578  13.434
 3084SOL    HW111091   0.896  12.601  13.358
 3084SOL    HW211092   0.753  12.599  13.407
 3085SOL     OW11093  13.926   8.087   8.215
 3085SOL    HW111094  13.830   8.082   8.217
 3085SOL    HW211095  13.947   8.107   8.123
 3086SOL     OW11096  12.160  11.370   6.717
 3086SOL    HW111097  12.154  11.420   6.636
 3086SOL    HW211098  12.075  11.381   6.759
 3087SOL     OW11099   8.716  12.218  14.591
 3087SOL    HW111100   8.795  12.187  14.636
 3087SOL    HW211101   8.667  12.138  14.572
 3088SOL     OW11102   7.021   1.751   9.459
 3088SOL    HW111103   7.088   1.816   9.438
 3088SOL    HW211104   6.966   1.747   9.381
 3089SOL     OW11105   4.673   5.614   2.103
 3089SOL    HW111106   4.605   5.591   2.166
 3089SOL    HW211107   4.753   5.579   2.140
 3090SOL     OW11108   9.020  11.306   3.900
 3090SOL    HW111109   9.036  11.373   3.966
 3090SOL    HW211110   8.991  11.355   3.823
 3091SOL     OW11111   5.043  12.434  12.879
 3091SOL    HW111112   5.007  12.516  12.914
 3091SOL    HW211113   4.972  12.397  12.827
 3092SOL     OW11114  14.264   7.174  13.422
 3092SOL    HW111115  14.221   7.243  13.372
 3092SOL    HW211116  14.236   7.093  13.379
 3093SOL     OW11117  11.528   4.859  11.811
 3093SOL    HW111118  11.599   4.886  11.869
 3093SOL    HW211119  11.537   4.916  11.734
 3094SOL     OW11120   8.585   8.561   1.378
 3094SOL    HW111121   8.650   8.531   1.442
 3094SOL    HW211122   8.502   8.557   1.425
 3095SOL     OW11123   0.076  12.584   4.634
 3095SOL    HW111124   0.086  12.509   4.693
 3095SOL    HW211125   0.012  12.640   4.678
 3096SOL     OW11126   6.078   9.469   4.845
 3096SOL    HW111127   6.116   9.534   4.904
 3096SOL    HW211128   6.037   9.521   4.776
 3097SOL     OW11129   2.545   2.271  14.137
 3097SOL    HW111130   2.631   2.277  14.096
 3097SOL    HW211131   2.483   2.281  14.064
 3098SOL     OW11132  10.542   0.261   1.749
 3098SOL    HW111133  10.476   0.275   1.817
 3098SOL    HW211134  10.495   0.275   1.667
 3099SOL     OW11135   9.130   6.331  14.283
 3099SOL    HW111136   9.195   6.377  14.335
 3099SOL    HW211137   9.116   6.386  14.207
 3100SOL     OW11138   8.931   3.188  10.431
 3100SOL    HW111139   8.858   3.205  10.373
 3100SOL    HW211140   8.926   3.094  10.450
 3101SOL     OW11141   0.318   9.546   9.463
 3101SOL    HW111142   0.247   9.504   9.414
 3101SOL    HW211143   0.339   9.484   9.533
 3102SOL     OW11144  14.679   2.693   5.649
 3102SOL    HW111145  14.750   2.686   5.585
 3102SOL    HW211146  14.599   2.690   5.597
 3103SOL     OW11147   0.026   5.664   4.804
 3103SOL    HW111148  14.838   5.598   4.829
 3103SOL    HW211149  14.853   5.728   4.752
 3104SOL     OW11150   3.046   5.605   4.452
 3104SOL    HW111151   2.981   5.659   4.498
 3104SOL    HW211152   3.093   5.560   4.522
 3105SOL     OW11153  11.707   3.097  11.103
 3105SOL    HW111154  11.679   3.029  11.041
 3105SOL    HW211155  11.628   3.148  11.119
 3106SOL     OW11156   4.162   4.118   9.563
 3106SOL    HW111157   4.242   4.070   9.540
 3106SOL    HW211158   4.132   4.076   9.644
 3107SOL     OW11159   5.187  13.248   8.206
 3107SOL    HW111160   5.131  13.202   8.143
 3107SOL    HW211161   5.267  13.269   8.158
 3108SOL     OW11162   6.861  14.028   4.567
 3108SOL    HW111163   6.823  13.996   4.649
 3108SOL    HW211164   6.897  14.114   4.590
 3109SOL     OW11165  12.327  13.726  13.267
 3109SOL    HW111166  12.387  13.660  13.303
 3109SOL    HW211167  12.250  13.675  13.241
 3110SOL     OW11168  13.733  11.814   1.617
 3110SOL    HW111169  13.757  11.888   1.673
 3110SOL    HW211170  13.652  11.841   1.574
 3111SOL     OW11171   7.272   2.570  12.940
 3111SOL    HW111172   7.296   2.496  12.996
 3111SOL    HW211173   7.318   2.645  12.979
 3112SOL     OW11174   8.582   6.750   5.191
 3112SOL    HW111175   8.630   6.779   5.268
 3112SOL    HW211176   8.501   6.802   5.191
 3113SOL     OW11177   3.624   0.969   4.471
 3113SOL    HW111178   3.649   0.936   4.384
 3113SOL    HW211179   3.698   1.025   4.496
 3114SOL     OW11180   2.319  14.166   3.923
 3114SOL    HW111181   2.353  14.106   3.856
 3114SOL    HW211182   2.238  14.201   3.884
 3115SOL     OW11183   6.368   3.272   0.095
 3115SOL    HW111184   6.376   3.188   0.140
 3115SOL    HW211185   6.457   3.293   0.068
 3116SOL     OW11186   5.904  11.120   5.312
 3116SOL    HW111187   5.996  11.114   5.289
 3116SOL    HW211188   5.886  11.041   5.363
 3117SOL     OW11189   4.810  11.043   4.582
 3117SOL    HW111190   4.767  11.116   4.538
 3117SOL    HW211191   4.901  11.047   4.554
 3118SOL     OW11192   8.336   7.027  12.004
 3118SOL    HW111193   8.268   7.017  12.071
 3118SOL    HW211194   8.306   7.099  11.950
 3119SOL     OW11195   5.036  10.434   8.195
 3119SOL    HW111196   5.033  10.354   8.141
 3119SOL    HW211197   4.957  10.429   8.249
 3120SOL     OW11198   9.743   4.930  13.215
 3120SOL    HW111199   9.681   4.878  13.266
 3120SOL    HW211200   9.693   5.006  13.187
 3121SOL     OW11201   9.472   9.012   9.431
 3121SOL    HW111202   9.462   8.920   9.455
 3121SOL    HW211203   9.565   9.030   9.446
 3122SOL     OW11204   3.723   3.156   9.231
 3122SOL    HW111205   3.659   3.161   9.302
 3122SOL    HW211206   3.739   3.063   9.219
 3123SOL     OW11207   1.521   8.430   3.359
 3123SOL    HW111208   1.574   8.489   3.412
 3123SOL    HW211209   1.481   8.486   3.293
 3124SOL     OW11210   9.152   5.974   0.875
 3124SOL    HW111211   9.192   6.054   0.907
 3124SOL    HW211212   9.188   5.962   0.787
 3125SOL     OW11213   3.190   7.215   2.690
 3125SOL    HW111214   3.103   7.201   2.727
 3125SOL    HW211215   3.241   7.140   2.719
 3126SOL     OW11216   6.528   3.603   1.590
 3126SOL    HW111217   6.451   3.546   1.591
 3126SOL    HW211218   6.493   3.690   1.611
 3127SOL     OW11219   0.171  14.820   2.909
 3127SOL    HW111220   0.246  14.792   2.962
 3127SOL    HW211221   0.095  14.806   2.965
 3128SOL     OW11222   9.943   8.018   3.124
 3128SOL    HW111223   9.937   8.085   3.192
 3128SOL    HW211224   9.994   7.947   3.164
 3129SOL     OW11225  10.594  13.003   1.213
 3129SOL    HW111226  10.607  12.915   1.178
 3129SOL    HW211227  10.500  13.008   1.231
 3130SOL     OW11228   0.674   8.451  14.848
 3130SOL    HW111229   0.692   8.400   0.051
 3130SOL    HW211230   0.597   8.409  14.810
 3131SOL     OW11231   1.976   3.879  11.406
 3131SOL    HW111232   1.948   3.970  11.398
 3131SOL    HW211233   1.895   3.830  11.422
 3132SOL     OW11234   1.116   9.431   0.767
 3132SOL    HW111235   1.048   9.407   0.704
 3132SOL    HW211236   1.154   9.512   0.732
 3133SOL     OW11237   2.181   8.023   2.493
 3133SOL    HW111238   2.267   8.020   2.534
 3133SOL    HW211239   2.185   8.098   2.434
 3134SOL     OW11240   9.731   4.748  12.297
 3134SOL    HW111241   9.776   4.741  12.382
 3134SOL    HW211242   9.712   4.841  12.288
 3135SOL     OW11243   0.001   5.175   8.158
 3135SOL    HW111244   0.018   5.185   8.064
 3135SOL    HW211245   0.073   5.222   8.200
 3136SOL     OW11246   6.504   6.209   6.262
 3136SOL    HW111247   6.461   6.130   6.296
 3136SOL    HW211248   6.461   6.280   6.308
 3137SOL     OW11249   8.191   2.703  10.453
 3137SOL    HW111250   8.098   2.710  10.475
 3137SOL    HW211251   8.230   2.658  10.527
 3138SOL     OW11252   3.915   7.294   4.150
 3138SOL    HW111253   3.938   7.294   4.243
 3138SOL    HW211254   3.979   7.353   4.109
 3139SOL     OW11255   5.426   6.076   2.886
 3139SOL    HW111256   5.448   6.033   2.804
 3139SOL    HW211257   5.334   6.057   2.900
 3140SOL     OW11258   5.637  12.763  10.927
 3140SOL    HW111259   5.701  12.695  10.908
 3140SOL    HW211260   5.562  12.717  10.965
 3141SOL     OW11261   7.523   6.029   8.023
 3141SOL    HW111262   7.544   6.077   7.943
 3141SOL    HW211263   7.429   6.038   8.033
 3142SOL     OW11264   2.581  12.249   6.458
 3142SOL    HW111265   2.524  12.324   6.441
 3142SOL    HW211266   2.602  12.254   6.551
 3143SOL     OW11267   5.650   1.848   1.047
 3143SOL    HW111268   5.560   1.878   1.046
 3143SOL    HW211269   5.644   1.753   1.035
 3144SOL     OW11270  11.141  14.145   3.665
 3144SOL    HW111271  11.227  14.124   3.627
 3144SOL    HW211272  11.106  14.214   3.609
 3145SOL     OW11273   5.836   1.646  12.117
 3145SOL    HW111274   5.764   1.688  12.072
 3145SOL    HW211275   5.825   1.553  12.098
 3146SOL     OW11276   7.969   5.822  14.840
 3146SOL    HW111277   7.876   5.809  14.857
 3146SOL    HW211278   7.984   5.915  14.858
 3147SOL     OW11279   4.580   8.502   2.396
 3147SOL    HW111280   4.558   8.577   2.451
 3147SOL    HW211281   4.583   8.428   2.456
 3148SOL     OW11282  12.219  10.805   2.225
 3148SOL    HW111283  12.230  10.890   2.183
 3148SOL    HW211284  12.303  10.788   2.268
 3149SOL     OW11285   6.706   4.745   0.456
 3149SOL    HW111286   6.733   4.833   0.483
 3149SOL    HW211287   6.766   4.687   0.503
 3150SOL     OW11288   2.612   9.804   4.141
 3150SOL    HW111289   2.571   9.890   4.151
 3150SOL    HW211290   2.689   9.806   4.198
 3151SOL     OW11291  14.812  14.094  10.336
 3151SOL    HW111292  14.836  14.047  10.256
 3151SOL    HW211293  14.744  14.155  10.307
 3152SOL     OW11294  11.799   0.805   9.748
 3152SOL    HW111295  11.894   0.809   9.758
 3152SOL    HW211296  11.775   0.889   9.709
 3153SOL     OW11297   0.887   5.929   7.067
 3153SOL    HW111298   0.830   6.000   7.097
 3153SOL    HW211299   0.974   5.952   7.100
 3154SOL     OW11300   5.084  14.128   2.306
 3154SOL    HW111301   5.036  14.128   2.224
 3154SOL    HW211302   5.017  14.137   2.374
 3155SOL     OW11303   0.976   0.229  12.404
 3155SOL    HW111304   0.960   0.147  12.358
 3155SOL    HW211305   0.953   0.297  12.341
 3156SOL     OW11306   2.059   9.008   2.785
 3156SOL    HW111307   1.979   8.980   2.741
 3156SOL    HW211308   2.075   9.096   2.753
 3157SOL     OW11309  13.991   0.719   1.022
 3157SOL    HW111310  14.064   0.667   0.988
 3157SOL    HW211311  13.928   0.654   1.055
 3158SOL     OW11312   5.595  10.270   2.755
 3158SOL    HW111313   5.653  10.344   2.768
 3158SOL    HW211314   5.628  10.202   2.814
 3159SOL     OW11315   2.092   5.830   2.338
 3159SOL    HW111316   2.053   5.895   2.279
 3159SOL    HW211317   2.183   5.860   2.349
 3160SOL     OW11318  11.871  12.302   6.433
 3160SOL    HW111319  11.833  12.308   6.346
 3160SOL    HW211320  11.956  12.261   6.420
 3161SOL     OW11321  13.408   9.854  10.504
 3161SOL    HW111322  13.490   9.805  10.493
 3161SOL    HW211323  13.430   9.922  10.568
 3162SOL     OW11324   4.914  12.441  11.526
 3162SOL    HW111325   4.825  12.474  11.530
 3162SOL    HW211326   4.915  12.382  11.451
 3163SOL     OW11327   4.270   4.608   7.127
 3163SOL    HW111328   4.215   4.678   7.162
 3163SOL    HW211329   4.218   4.570   7.056
 3164SOL     OW11330   0.478   4.567   6.838
 3164SOL    HW111331   0.403   4.550   6.896
 3164SOL    HW211332   0.446   4.548   6.750
 3165SOL     OW11333  13.622   4.619   4.226
 3165SOL    HW111334  13.598   4.531   4.255
 3165SOL    HW211335  13.601   4.676   4.301
 3166SOL     OW11336   0.606   9.007  11.010
 3166SOL    HW111337   0.639   8.994  10.921
 3166SOL    HW211338   0.512   9.021  10.999
 3167SOL     OW11339   6.029   3.585  12.709
 3167SOL    HW111340   6.018   3.653  12.643
 3167SOL    HW211341   5.984   3.508  12.673
 3168SOL     OW11342   2.097   2.785   0.169
 3168SOL    HW111343   2.032   2.834   0.118
 3168SOL    HW211344   2.085   2.816   0.259
 3169SOL     OW11345   4.934   5.436   0.183
 3169SOL    HW111346   5.015   5.407   0.224
 3169SOL    HW211347   4.873   5.448   0.256
 3170SOL     OW11348   9.954   4.106   6.126
 3170SOL    HW111349   9.874   4.159   6.123
 3170SOL    HW211350   9.923   4.016   6.121
 3171SOL     OW11351   1.162   5.685  13.291
 3171SOL    HW111352   1.136   5.724  13.208
 3171SOL    HW211353   1.246   5.727  13.311
 3172SOL     OW11354   6.826   3.875   1.900
 3172SOL    HW111355   6.849   3.967   1.912
 3172SOL    HW211356   6.736   3.869   1.931
 3173SOL     OW11357  10.545   5.005   2.611
 3173SOL    HW111358  10.465   5.055   2.595
 3173SOL    HW211359  10.515   4.918   2.637
 3174SOL     OW11360   1.136   6.427   8.597
 3174SOL    HW111361   1.124   6.518   8.571
 3174SOL    HW211362   1.050   6.401   8.632
 3175SOL     OW11363  10.251  11.057   5.539
 3175SOL    HW111364  10.173  11.078   5.488
 3175SOL    HW211365  10.310  11.014   5.478
 3176SOL     OW11366  12.157   6.252  13.751
 3176SOL    HW111367  12.227   6.197  13.789
 3176SOL    HW211368  12.203   6.311  13.692
 3177SOL     OW11369   9.630   6.611   2.447
 3177SOL    HW111370   9.593   6.598   2.360
 3177SOL    HW211371   9.595   6.696   2.476
 3178SOL     OW11372  14.332  11.604  11.517
 3178SOL    HW111373  14.357  11.563  11.434
 3178SOL    HW211374  14.292  11.533  11.567
 3179SOL     OW11375  14.749   8.030   7.855
 3179SOL    HW111376  14.697   8.079   7.920
 3179SOL    HW211377  14.839   8.057   7.872
 3180SOL     OW11378  11.895  14.345   3.271
 3180SOL    HW111379  11.954  14.411   3.235
 3180SOL    HW211380  11.822  14.342   3.210
 3181SOL     OW11381   9.944   3.637   5.305
 3181SOL    HW111382  10.039   3.630   5.298
 3181SOL    HW211383   9.928   3.671   5.393
 3182SOL     OW11384   0.854   8.647  13.228
 3182SOL    HW111385   0.801   8.600  13.163
 3182SOL    HW211386   0.940   8.606  13.223
 3183SOL     OW11387   5.016  13.210   2.691
 3183SOL    HW111388   4.966  13.195   2.611
 3183SOL    HW211389   5.043  13.302   2.686
 3184SOL     OW11390   0.212   2.061  10.288
 3184SOL    HW111391   0.194   2.088  10.198
 3184SOL    HW211392   0.201   1.966  10.288
 3185SOL     OW11393   2.665   2.437   5.901
 3185SOL    HW111394   2.703   2.383   5.831
 3185SOL    HW211395   2.669   2.381   5.978
 3186SOL     OW11396   5.852  11.635   9.378
 3186SOL    HW111397   5.916  11.568   9.353
 3186SOL    HW211398   5.769  11.604   9.341
 3187SOL     OW11399   1.513   4.641   4.888
 3187SOL    HW111400   1.605   4.645   4.862
 3187SOL    HW211401   1.515   4.639   4.984
 3188SOL     OW11402   7.969   1.407  14.609
 3188SOL    HW111403   7.935   1.348  14.676
 3188SOL    HW211404   7.896   1.420  14.548
 3189SOL     OW11405   4.391   9.377   6.003
 3189SOL    HW111406   4.413   9.383   5.910
 3189SOL    HW211407   4.343   9.458   6.021
 3190SOL     OW11408  10.139   2.888   1.821
 3190SOL    HW111409  10.211   2.893   1.758
 3190SOL    HW211410  10.178   2.919   1.903
 3191SOL     OW11411   6.581   9.935   4.991
 3191SOL    HW111412   6.587  10.014   4.937
 3191SOL    HW211413   6.590   9.967   5.081
 3192SOL     OW11414   3.989  11.117   0.076
 3192SOL    HW111415   3.930  11.151   0.009
 3192SOL    HW211416   4.052  11.188   0.091
 3193SOL     OW11417  12.577   3.030   6.084
 3193SOL    HW111418  12.588   2.947   6.037
 3193SOL    HW211419  12.543   3.005   6.170
 3194SOL     OW11420   6.489   6.326  10.041
 3194SOL    HW111421   6.428   6.391  10.009
 3194SOL    HW211422   6.434   6.253  10.069
 3195SOL     OW11423   4.496   2.138   9.831
 3195SOL    HW111424   4.591   2.148   9.835
 3195SOL    HW211425   4.481   2.046   9.851
 3196SOL     OW11426   3.547  12.677   6.147
 3196SOL    HW111427   3.548  12.583   6.165
 3196SOL    HW211428   3.512  12.716   6.227
 3197SOL     OW11429   3.165   1.570   8.630
 3197SOL    HW111430   3.176   1.486   8.586
 3197SOL    HW211431   3.248   1.616   8.617
 3198SOL     OW11432   2.682   3.405  10.137
 3198SOL    HW111433   2.681   3.396  10.232
 3198SOL    HW211434   2.626   3.333  10.106
 3199SOL     OW11435   9.255   4.693  14.512
 3199SOL    HW111436   9.303   4.675  14.431
 3199SOL    HW211437   9.316   4.668  14.581
 3200SOL     OW11438   1.429   6.308   5.481
 3200SOL    HW111439   1.380   6.321   5.562
 3200SOL    HW211440   1.414   6.389   5.430
 3201SOL     OW11441   2.366   5.796  14.731
 3201SOL    HW111442   2.296   5.740  14.764
 3201SOL    HW211443   2.359   5.790  14.636
 3202SOL     OW11444  13.755   3.098   2.532
 3202SOL    HW111445  13.818   3.159   2.570
 3202SOL    HW211446  13.746   3.028   2.597
 3203SOL     OW11447   2.426   4.441   5.160
 3203SOL    HW111448   2.498   4.406   5.213
 3203SOL    HW211449   2.463   4.455   5.073
 3204SOL     OW11450   3.908   7.323   7.626
 3204SOL    HW111451   3.966   7.387   7.668
 3204SOL    HW211452   3.934   7.322   7.534
 3205SOL     OW11453   4.807  12.557  12.665
 3205SOL    HW111454   4.864  12.577  12.740
 3205SOL    HW211455   4.818  12.463  12.652
 3206SOL     OW11456   8.821   7.759   5.984
 3206SOL    HW111457   8.868   7.717   5.912
 3206SOL    HW211458   8.852   7.713   6.062
 3207SOL     OW11459  11.324   3.347   5.495
 3207SOL    HW111460  11.266   3.393   5.434
 3207SOL    HW211461  11.348   3.412   5.560
 3208SOL     OW11462  14.292   4.003   6.252
 3208SOL    HW111463  14.247   3.950   6.317
 3208SOL    HW211464  14.376   3.958   6.240
 3209SOL     OW11465   8.018  12.775  11.820
 3209SOL    HW111466   8.112  12.771  11.838
 3209SOL    HW211467   7.994  12.687  11.792
 3210SOL     OW11468   0.032   2.453   3.338
 3210SOL    HW111469   0.104   2.396   3.311
 3210SOL    HW211470   0.032   2.524   3.274
 3211SOL     OW11471   5.036   8.267   8.346
 3211SOL    HW111472   5.099   8.247   8.415
 3211SOL    HW211473   4.993   8.184   8.328
 3212SOL     OW11474   3.253   0.836  13.779
 3212SOL    HW111475   3.296   0.750  13.773
 3212SOL    HW211476   3.308   0.893  13.725
 3213SOL     OW11477   0.172   6.281   7.770
 3213SOL    HW111478   0.122   6.221   7.714
 3213SOL    HW211479   0.217   6.223   7.832
 3214SOL     OW11480   6.076   2.436   4.009
 3214SOL    HW111481   5.998   2.431   4.064
 3214SOL    HW211482   6.077   2.526   3.977
 3215SOL     OW11483   1.323   9.092   5.485
 3215SOL    HW111484   1.409   9.057   5.507
 3215SOL    HW211485   1.287   9.030   5.422
 3216SOL     OW11486   0.463   5.775  13.883
 3216SOL    HW111487   0.436   5.862  13.853
 3216SOL    HW211488   0.552   5.787  13.914
 3217SOL     OW11489  12.408   4.995  14.083
 3217SOL    HW111490  12.398   5.031  13.995
 3217SOL    HW211491  12.488   4.943  14.079
 3218SOL     OW11492  13.099  14.251   1.831
 3218SOL    HW111493  13.164  14.234   1.763
 3218SOL    HW211494  13.057  14.167   1.846
 3219SOL     OW11495  11.560   2.237   3.824
 3219SOL    HW111496  11.593   2.321   3.854
 3219SOL    HW211497  11.591   2.229   3.734
 3220SOL     OW11498  11.104   2.075   3.627
 3220SOL    HW111499  11.086   1.985   3.653
 3220SOL    HW211500  11.067   2.128   3.698
 3221SOL     OW11501   9.607   5.508   5.646
 3221SOL    HW111502   9.533   5.559   5.680
 3221SOL    HW211503   9.637   5.558   5.569
 3222SOL     OW11504   7.022   6.747  10.288
 3222SOL    HW111505   6.974   6.726  10.368
 3222SOL    HW211506   6.968   6.711  10.217
 3223SOL     OW11507  14.563   7.581  13.486
 3223SOL    HW111508  14.643   7.577  13.539
 3223SOL    HW211509  14.556   7.673  13.461
 3224SOL     OW11510  13.991  14.077   9.823
 3224SOL    HW111511  14.059  14.063   9.757
 3224SOL    HW211512  14.040  14.096   9.903
 3225SOL     OW11513   4.753  14.756  13.967
 3225SOL    HW111514   4.816  14.797  14.027
 3225SOL    HW211515   4.793  14.764  13.881
 3226SOL     OW11516   3.605   3.725   4.683
 3226SOL    HW111517   3.624   3.761   4.596
 3226SOL    HW211518   3.669   3.766   4.741
 3227SOL     OW11519   5.735  10.859  10.076
 3227SOL    HW111520   5.646  10.893  10.079
 3227SOL    HW211521   5.732  10.787  10.014
 3228SOL     OW11522  14.219  10.514   0.771
 3228SOL    HW111523  14.261  10.599   0.754
 3228SOL    HW211524  14.157  10.532   0.841
 3229SOL     OW11525   9.966   7.708   9.648
 3229SOL    HW111526  10.033   7.759   9.694
 3229SOL    HW211527  10.007   7.623   9.635
 3230SOL     OW11528   4.848   8.897  11.136
 3230SOL    HW111529   4.842   8.920  11.043
 3230SOL    HW211530   4.891   8.972  11.177
 3231SOL     OW11531  14.855   8.197   5.928
 3231SOL    HW111532   0.048   8.154   5.978
 3231SOL    HW211533  14.853   8.286   5.961
 3232SOL     OW11534  11.714   5.213  10.599
 3232SOL    HW111535  11.633   5.263  10.611
 3232SOL    HW211536  11.698   5.131  10.646
 3233SOL     OW11537  11.002  11.976  10.513
 3233SOL    HW111538  11.008  11.981  10.418
 3233SOL    HW211539  11.089  11.947  10.541
 3234SOL     OW11540   4.140   6.272   0.423
 3234SOL    HW111541   4.186   6.234   0.498
 3234SOL    HW211542   4.195   6.251   0.348
 3235SOL     OW11543   0.945  11.535  10.442
 3235SOL    HW111544   0.926  11.442  10.453
 3235SOL    HW211545   0.993  11.540  10.359
 3236SOL     OW11546  12.736  12.328   3.410
 3236SOL    HW111547  12.787  12.319   3.491
 3236SOL    HW211548  12.649  12.355   3.439
 3237SOL     OW11549  10.104   8.576  14.364
 3237SOL    HW111550  10.075   8.488  14.385
 3237SOL    HW211551  10.198   8.567  14.346
 3238SOL     OW11552   5.056   9.954   8.630
 3238SOL    HW111553   5.060  10.040   8.590
 3238SOL    HW211554   4.964   9.929   8.626
 3239SOL     OW11555   9.389  13.939   9.246
 3239SOL    HW111556   9.380  13.885   9.167
 3239SOL    HW211557   9.478  13.973   9.241
 3240SOL     OW11558  14.779   0.317   2.122
 3240SOL    HW111559  14.730   0.239   2.150
 3240SOL    HW211560  14.737   0.343   2.040
 3241SOL     OW11561   7.372   6.270  11.346
 3241SOL    HW111562   7.327   6.294  11.427
 3241SOL    HW211563   7.315   6.205  11.306
 3242SOL     OW11564   3.566   3.352   3.688
 3242SOL    HW111565   3.561   3.286   3.757
 3242SOL    HW211566   3.651   3.394   3.701
 3243SOL     OW11567   0.429   8.103   3.309
 3243SOL    HW111568   0.454   8.168   3.243
 3243SOL    HW211569   0.510   8.084   3.356
 3244SOL     OW11570   8.978   7.341   8.897
 3244SOL    HW111571   8.973   7.346   8.801
 3244SOL    HW211572   8.889   7.316   8.924
 3245SOL     OW11573   8.648   4.255   2.091
 3245SOL    HW111574   8.632   4.349   2.093
 3245SOL    HW211575   8.739   4.246   2.062
 3246SOL     OW11576   3.676  10.394  11.890
 3246SOL    HW111577   3.646  10.408  11.980
 3246SOL    HW211578   3.608  10.339  11.851
 3247SOL     OW11579   7.673   6.472  14.041
 3247SOL    HW111580   7.745   6.533  14.025
 3247SOL    HW211581   7.692   6.434  14.127
 3248SOL     OW11582   6.202   4.970  11.609
 3248SOL    HW111583   6.271   4.912  11.642
 3248SOL    HW211584   6.241   5.057  11.612
 3249SOL     OW11585   0.494  14.810   9.983
 3249SOL    HW111586   0.411  14.834  10.025
 3249SOL    HW211587   0.533   0.018   9.958
 3250SOL     OW11588  13.032   5.019   1.324
 3250SOL    HW111589  13.093   5.062   1.264
 3250SOL    HW211590  13.034   5.072   1.403
 3251SOL     OW11591   8.283   3.531  12.448
 3251SOL    HW111592   8.317   3.520  12.537
 3251SOL    HW211593   8.264   3.442  12.418
 3252SOL     OW11594   5.364   3.383   7.108
 3252SOL    HW111595   5.330   3.305   7.150
 3252SOL    HW211596   5.383   3.355   7.018
 3253SOL     OW11597  12.553   4.977   6.601
 3253SOL    HW111598  12.487   4.977   6.670
 3253SOL    HW211599  12.595   5.062   6.608
 3254SOL     OW11600  12.001   4.488   5.390
 3254SOL    HW111601  11.920   4.455   5.350
 3254SOL    HW211602  11.972   4.549   5.458
 3255SOL     OW11603   2.863   0.942  10.767
 3255SOL    HW111604   2.822   1.024  10.793
 3255SOL    HW211605   2.799   0.899  10.710
 3256SOL     OW11606  12.958   6.677  10.798
 3256SOL    HW111607  13.027   6.739  10.821
 3256SOL    HW211608  12.920   6.712  10.717
 3257SOL     OW11609   7.006   1.292   6.206
 3257SOL    HW111610   7.098   1.264   6.205
 3257SOL    HW211611   6.957   1.213   6.225
 3258SOL     OW11612   9.463   3.279  13.354
 3258SOL    HW111613   9.542   3.227  13.340
 3258SOL    HW211614   9.405   3.255  13.282
 3259SOL     OW11615   1.899   8.533   6.613
 3259SOL    HW111616   1.924   8.624   6.597
 3259SOL    HW211617   1.955   8.482   6.554
 3260SOL     OW11618   6.969   4.439   2.792
 3260SOL    HW111619   6.998   4.348   2.797
 3260SOL    HW211620   7.049   4.491   2.801
 3261SOL     OW11621   3.107   7.651  12.752
 3261SOL    HW111622   3.050   7.673  12.678
 3261SOL    HW211623   3.160   7.578  12.721
 3262SOL     OW11624   6.246   3.992   9.391
 3262SOL    HW111625   6.311   4.012   9.458
 3262SOL    HW211626   6.291   3.933   9.330
 3263SOL     OW11627   2.325  13.021   5.529
 3263SOL    HW111628   2.354  13.066   5.450
 3263SOL    HW211629   2.388  13.046   5.596
 3264SOL     OW11630   1.672   4.273   8.596
 3264SOL    HW111631   1.579   4.294   8.592
 3264SOL    HW211632   1.717   4.354   8.573
 3265SOL     OW11633   3.983  13.901   2.901
 3265SOL    HW111634   4.051  13.878   2.965
 3265SOL    HW211635   3.987  13.996   2.894
 3266SOL     OW11636  13.373   5.061   4.545
 3266SOL    HW111637  13.311   5.026   4.609
 3266SOL    HW211638  13.396   4.986   4.490
 3267SOL     OW11639  12.644  12.002   8.806
 3267SOL    HW111640  12.624  11.992   8.713
 3267SOL    HW211641  12.621  12.092   8.827
 3268SOL     OW11642   6.072   4.780   6.225
 3268SOL    HW111643   6.080   4.855   6.167
 3268SOL    HW211644   6.145   4.789   6.287
 3269SOL     OW11645   1.038   5.687   8.638
 3269SOL    HW111646   1.032   5.780   8.619
 3269SOL    HW211647   1.128   5.674   8.667
 3270SOL     OW11648   4.700   4.201  13.094
 3270SOL    HW111649   4.610   4.233  13.081
 3270SOL    HW211650   4.689   4.114  13.132
 3271SOL     OW11651   2.517   9.615   8.635
 3271SOL    HW111652   2.561   9.696   8.608
 3271SOL    HW211653   2.475   9.583   8.555
 3272SOL     OW11654   6.584   8.495   7.265
 3272SOL    HW111655   6.602   8.450   7.347
 3272SOL    HW211656   6.509   8.448   7.227
 3273SOL     OW11657  14.286   7.743   1.161
 3273SOL    HW111658  14.216   7.795   1.123
 3273SOL    HW211659  14.255   7.721   1.249
 3274SOL     OW11660   4.937   9.128  11.279
 3274SOL    HW111661   5.018   9.115  11.328
 3274SOL    HW211662   4.947   9.216  11.241
 3275SOL     OW11663   4.448  14.606   3.667
 3275SOL    HW111664   4.407  14.646   3.744
 3275SOL    HW211665   4.384  14.615   3.597
 3276SOL     OW11666   8.990  14.278  14.862
 3276SOL    HW111667   9.034  14.361   0.002
 3276SOL    HW211668   8.920  14.275   0.050
 3277SOL     OW11669  12.292   9.106  11.412
 3277SOL    HW111670  12.268   9.026  11.458
 3277SOL    HW211671  12.211   9.137  11.372
 3278SOL     OW11672   3.184   4.271  12.503
 3278SOL    HW111673   3.244   4.246  12.573
 3278SOL    HW211674   3.213   4.358  12.476
 3279SOL     OW11675  13.389   9.588   5.897
 3279SOL    HW111676  13.398   9.593   5.802
 3279SOL    HW211677  13.462   9.534   5.926
 3280SOL     OW11678  14.778   8.029   9.295
 3280SOL    HW111679  14.798   7.964   9.362
 3280SOL    HW211680  14.775   7.979   9.214
 3281SOL     OW11681  11.838   7.876   3.991
 3281SOL    HW111682  11.835   7.808   4.059
 3281SOL    HW211683  11.867   7.830   3.913
 3282SOL     OW11684   3.719   2.112   5.443
 3282SOL    HW111685   3.641   2.153   5.479
 3282SOL    HW211686   3.756   2.178   5.384
 3283SOL     OW11687  12.786   7.125   6.876
 3283SOL    HW111688  12.881   7.113   6.882
 3283SOL    HW211689  12.773   7.180   6.799
 3284SOL     OW11690   8.170   6.790   6.428
 3284SOL    HW111691   8.139   6.813   6.340
 3284SOL    HW211692   8.211   6.704   6.417
 3285SOL     OW11693   2.492  14.646  11.567
 3285SOL    HW111694   2.564  14.641  11.503
 3285SOL    HW211695   2.485  14.740  11.587
 3286SOL     OW11696   2.043  11.699   9.724
 3286SOL    HW111697   2.039  11.608   9.755
 3286SOL    HW211698   1.962  11.739   9.758
 3287SOL     OW11699   7.091  11.241  11.800
 3287SOL    HW111700   7.011  11.293  11.801
 3287SOL    HW211701   7.062  11.151  11.785
 3288SOL     OW11702   5.719  12.691  13.307
 3288SOL    HW111703   5.764  12.659  13.385
 3288SOL    HW211704   5.719  12.786  13.317
 3289SOL     OW11705  12.440   7.547   0.279
 3289SOL    HW111706  12.384   7.581   0.349
 3289SOL    HW211707  12.511   7.503   0.325
 3290SOL     OW11708   7.697  11.711   5.183
 3290SOL    HW111709   7.722  11.618   5.182
 3290SOL    HW211710   7.623  11.716   5.121
 3291SOL     OW11711   9.018   3.274  10.033
 3291SOL    HW111712   9.002   3.305   9.945
 3291SOL    HW211713   9.102   3.311  10.058
 3292SOL     OW11714  14.492   2.984  12.568
 3292SOL    HW111715  14.511   3.077  12.583
 3292SOL    HW211716  14.556   2.957  12.502
 3293SOL     OW11717   2.843   5.814   4.540
 3293SOL    HW111718   2.806   5.818   4.628
 3293SOL    HW211719   2.876   5.902   4.523
 3294SOL     OW11720   5.399   5.292   1.688
 3294SOL    HW111721   5.482   5.265   1.728
 3294SOL    HW211722   5.382   5.379   1.725
 3295SOL     OW11723   4.518   0.363  13.718
 3295SOL    HW111724   4.462   0.299  13.673
 3295SOL    HW211725   4.549   0.421  13.649
 3296SOL     OW11726  13.195  10.865   4.736
 3296SOL    HW111727  13.223  10.788   4.687
 3296SOL    HW211728  13.241  10.938   4.695
 3297SOL     OW11729   5.603   8.183   0.610
 3297SOL    HW111730   5.605   8.120   0.682
 3297SOL    HW211731   5.547   8.142   0.543
 3298SOL     OW11732   4.184   1.731  13.021
 3298SOL    HW111733   4.197   1.638  13.040
 3298SOL    HW211734   4.268   1.772  13.040
 3299SOL     OW11735  11.386   5.639   1.676
 3299SOL    HW111736  11.347   5.677   1.755
 3299SOL    HW211737  11.445   5.571   1.708
 3300SOL     OW11738   1.462   4.705  12.875
 3300SOL    HW111739   1.434   4.630  12.824
 3300SOL    HW211740   1.558   4.699  12.876
 3301SOL     OW11741  14.086   7.618  14.332
 3301SOL    HW111742  14.167   7.667  14.347
 3301SOL    HW211743  14.112   7.526  14.335
 3302SOL     OW11744   1.994  12.500   3.849
 3302SOL    HW111745   1.926  12.454   3.899
 3302SOL    HW211746   2.076  12.463   3.881
 3303SOL     OW11747   9.291   8.945   9.766
 3303SOL    HW111748   9.278   8.980   9.678
 3303SOL    HW211749   9.376   8.979   9.793
 3304SOL     OW11750  14.495  11.411  10.417
 3304SOL    HW111751  14.541  11.346  10.470
 3304SOL    HW211752  14.446  11.360  10.353
 3305SOL     OW11753  14.639   5.247   8.259
 3305SOL    HW111754  14.645   5.342   8.261
 3305SOL    HW211755  14.722   5.219   8.218
 3306SOL     OW11756  10.299  10.201   0.567
 3306SOL    HW111757  10.366  10.267   0.552
 3306SOL    HW211758  10.347  10.118   0.566
 3307SOL     OW11759   3.925   9.711   6.788
 3307SOL    HW111760   3.830   9.702   6.794
 3307SOL    HW211761   3.953   9.737   6.875
 3308SOL     OW11762   4.039   0.527  11.335
 3308SOL    HW111763   3.995   0.469  11.273
 3308SOL    HW211764   4.101   0.576  11.281
 3309SOL     OW11765   8.102  10.374   2.150
 3309SOL    HW111766   8.045  10.305   2.116
 3309SOL    HW211767   8.042  10.441   2.184
 3310SOL     OW11768   1.612   7.586  14.679
 3310SOL    HW111769   1.565   7.508  14.707
 3310SOL    HW211770   1.612   7.643  14.756
 3311SOL     OW11771   4.755  11.863  14.170
 3311SOL    HW111772   4.758  11.907  14.085
 3311SOL    HW211773   4.841  11.877  14.208
 3312SOL     OW11774   7.478  14.681  10.736
 3312SOL    HW111775   7.439  14.765  10.762
 3312SOL    HW211776   7.405  14.619  10.738
 3313SOL     OW11777   4.898   1.572   5.338
 3313SOL    HW111778   4.951   1.555   5.260
 3313SOL    HW211779   4.910   1.665   5.356
 3314SOL     OW11780   7.601  10.752  11.352
 3314SOL    HW111781   7.528  10.781  11.297
 3314SOL    HW211782   7.561  10.698  11.419
 3315SOL     OW11783  10.914  12.502  11.855
 3315SOL    HW111784  10.855  12.536  11.787
 3315SOL    HW211785  10.865  12.511  11.936
 3316SOL     OW11786   3.602  11.070   1.850
 3316SOL    HW111787   3.674  11.017   1.816
 3316SOL    HW211788   3.579  11.129   1.778
 3317SOL     OW11789   0.761  11.340   8.152
 3317SOL    HW111790   0.801  11.405   8.093
 3317SOL    HW211791   0.777  11.375   8.240
 3318SOL     OW11792  12.843   5.352   2.498
 3318SOL    HW111793  12.762   5.344   2.549
 3318SOL    HW211794  12.813   5.358   2.407
 3319SOL     OW11795   7.751   1.372   7.058
 3319SOL    HW111796   7.739   1.345   6.966
 3319SOL    HW211797   7.822   1.316   7.089
 3320SOL     OW11798   6.409  12.013   8.958
 3320SOL    HW111799   6.319  12.021   8.991
 3320SOL    HW211800   6.411  11.929   8.912
 3321SOL     OW11801  14.016  12.058  13.622
 3321SOL    HW111802  14.067  12.104  13.555
 3321SOL    HW211803  13.942  12.115  13.639
 3322SOL     OW11804   0.813   9.359   0.108
 3322SOL    HW111805   0.723   9.330   0.122
 3322SOL    HW211806   0.858   9.336   0.189
 3323SOL     OW11807   5.517  12.068   6.383
 3323SOL    HW111808   5.584  12.053   6.317
 3323SOL    HW211809   5.565  12.072   6.466
 3324SOL     OW11810   2.685   7.744   5.738
 3324SOL    HW111811   2.672   7.793   5.657
 3324SOL    HW211812   2.722   7.808   5.799
 3325SOL     OW11813  11.289  11.685   7.473
 3325SOL    HW111814  11.323  11.748   7.410
 3325SOL    HW211815  11.217  11.731   7.516
 3326SOL     OW11816   7.506  12.399  12.822
 3326SOL    HW111817   7.468  12.334  12.763
 3326SOL    HW211818   7.490  12.483  12.779
 3327SOL     OW11819  13.517  13.381   0.617
 3327SOL    HW111820  13.515  13.475   0.602
 3327SOL    HW211821  13.605  13.363   0.649
 3328SOL     OW11822   0.604   1.062   5.879
 3328SOL    HW111823   0.677   1.025   5.831
 3328SOL    HW211824   0.529   1.007   5.856
 3329SOL     OW11825   2.961  10.021   5.099
 3329SOL    HW111826   2.961   9.937   5.144
 3329SOL    HW211827   2.901  10.075   5.149
 3330SOL     OW11828   5.464  12.039   8.056
 3330SOL    HW111829   5.369  12.042   8.047
 3330SOL    HW211830   5.493  11.978   7.988
 3331SOL     OW11831   3.703   0.336   3.762
 3331SOL    HW111832   3.636   0.348   3.694
 3331SOL    HW211833   3.724   0.424   3.791
 3332SOL     OW11834  12.435  14.194   0.067
 3332SOL    HW111835  12.488  14.238   0.001
 3332SOL    HW211836  12.459  14.237   0.149
 3333SOL     OW11837  13.207   7.840   3.976
 3333SOL    HW111838  13.136   7.823   3.915
 3333SOL    HW211839  13.216   7.758   4.025
 3334SOL     OW11840   9.069   1.127   5.705
 3334SOL    HW111841   9.156   1.088   5.702
 3334SOL    HW211842   9.053   1.157   5.616
 3335SOL     OW11843   6.300  12.213  11.165
 3335SOL    HW111844   6.283  12.137  11.109
 3335SOL    HW211845   6.395  12.213  11.177
 3336SOL     OW11846   8.128   5.255  10.217
 3336SOL    HW111847   8.088   5.316  10.154
 3336SOL    HW211848   8.193   5.207  10.165
 3337SOL     OW11849   2.048  14.332   8.211
 3337SOL    HW111850   2.033  14.272   8.284
 3337SOL    HW211851   2.114  14.288   8.158
 3338SOL     OW11852   9.736  10.535  14.835
 3338SOL    HW111853   9.730  10.517   0.053
 3338SOL    HW211854   9.776  10.457  14.799
 3339SOL     OW11855   5.825  14.157   9.930
 3339SOL    HW111856   5.854  14.106   9.854
 3339SOL    HW211857   5.801  14.091   9.995
 3340SOL     OW11858   0.322   4.359   3.599
 3340SOL    HW111859   0.231   4.385   3.584
 3340SOL    HW211860   0.333   4.363   3.694
 3341SOL     OW11861   1.415   2.501   4.963
 3341SOL    HW111862   1.433   2.528   4.874
 3341SOL    HW211863   1.351   2.430   4.954
 3342SOL     OW11864   4.973   4.051   3.230
 3342SOL    HW111865   5.013   3.964   3.228
 3342SOL    HW211866   5.037   4.108   3.187
 3343SOL     OW11867  11.452   2.429   7.681
 3343SOL    HW111868  11.444   2.353   7.739
 3343SOL    HW211869  11.396   2.496   7.720
 3344SOL     OW11870  13.225   2.728  13.588
 3344SOL    HW111871  13.160   2.658  13.582
 3344SOL    HW211872  13.276   2.722  13.507
 3345SOL     OW11873  13.502  12.705  12.153
 3345SOL    HW111874  13.453  12.671  12.228
 3345SOL    HW211875  13.585  12.734  12.191
 3346SOL     OW11876   1.034   2.827  14.860
 3346SOL    HW111877   1.035   2.898  14.796
 3346SOL    HW211878   0.943   2.823   0.014
 3347SOL     OW11879  14.318  13.711  11.024
 3347SOL    HW111880  14.232  13.685  10.992
 3347SOL    HW211881  14.367  13.736  10.945
 3348SOL     OW11882  14.206   7.038   7.153
 3348SOL    HW111883  14.192   7.117   7.101
 3348SOL    HW211884  14.160   7.055   7.236
 3349SOL     OW11885   9.572   1.090   2.119
 3349SOL    HW111886   9.534   1.099   2.206
 3349SOL    HW211887   9.639   1.159   2.114
 3350SOL     OW11888   8.929   2.760  11.489
 3350SOL    HW111889   8.840   2.731  11.474
 3350SOL    HW211890   8.927   2.800  11.576
 3351SOL     OW11891  10.615  10.032  10.159
 3351SOL    HW111892  10.698   9.985  10.163
 3351SOL    HW211893  10.639  10.125  10.157
 3352SOL     OW11894   1.074   1.418  12.223
 3352SOL    HW111895   1.023   1.481  12.273
 3352SOL    HW211896   1.087   1.460  12.138
 3353SOL     OW11897   2.615  11.804   4.416
 3353SOL    HW111898   2.645  11.732   4.471
 3353SOL    HW211899   2.532  11.831   4.455
 3354SOL     OW11900   9.414  10.966   2.436
 3354SOL    HW111901   9.343  10.954   2.498
 3354SOL    HW211902   9.455  10.880   2.428
 3355SOL     OW11903  10.861  13.724   3.340
 3355SOL    HW111904  10.870  13.813   3.375
 3355SOL    HW211905  10.947  13.704   3.304
 3356SOL     OW11906   0.262   0.588   4.653
 3356SOL    HW111907   0.265   0.524   4.583
 3356SOL    HW211908   0.276   0.672   4.610
 3357SOL     OW11909  14.542  10.484  11.911
 3357SOL    HW111910  14.456  10.486  11.868
 3357SOL    HW211911  14.577  10.397  11.890
 3358SOL     OW11912   2.433   3.731   1.771
 3358SOL    HW111913   2.436   3.715   1.866
 3358SOL    HW211914   2.516   3.775   1.753
 3359SOL     OW11915   5.759   3.444  12.492
 3359SOL    HW111916   5.848   3.409  12.501
 3359SOL    HW211917   5.718   3.428  12.577
 3360SOL     OW11918   8.166   9.231   7.646
 3360SOL    HW111919   8.151   9.229   7.740
 3360SOL    HW211920   8.248   9.183   7.634
 3361SOL     OW11921   3.236  14.222   8.916
 3361SOL    HW111922   3.166  14.162   8.943
 3361SOL    HW211923   3.243  14.211   8.822
 3362SOL     OW11924   9.398  14.347   6.150
 3362SOL    HW111925   9.329  14.351   6.216
 3362SOL    HW211926   9.371  14.410   6.083
 3363SOL     OW11927   7.567   8.740  10.324
 3363SOL    HW111928   7.637   8.805  10.324
 3363SOL    HW211929   7.561   8.711  10.233
 3364SOL     OW11930  11.682   9.638   8.176
 3364SOL    HW111931  11.617   9.700   8.142
 3364SOL    HW211932  11.662   9.556   8.131
 3365SOL     OW11933  14.393   0.087   5.633
 3365SOL    HW111934  14.303   0.071   5.662
 3365SOL    HW211935  14.447   0.035   5.692
 3366SOL     OW11936   9.948  11.591  10.846
 3366SOL    HW111937   9.973  11.672  10.891
 3366SOL    HW211938   9.878  11.618  10.786
 3367SOL     OW11939   1.519  11.600   0.645
 3367SOL    HW111940   1.572  11.627   0.569
 3367SOL    HW211941   1.577  11.543   0.695
 3368SOL     OW11942   1.554   6.170  11.955
 3368SOL    HW111943   1.594   6.248  11.916
 3368SOL    HW211944   1.545   6.109  11.882
 3369SOL     OW11945   5.588  10.151   8.980
 3369SOL    HW111946   5.610  10.061   9.004
 3369SOL    HW211947   5.599  10.201   9.060
 3370SOL     OW11948   5.110   2.186   1.254
 3370SOL    HW111949   5.180   2.224   1.200
 3370SOL    HW211950   5.077   2.259   1.306
 3371SOL     OW11951   7.003  12.086  10.965
 3371SOL    HW111952   7.055  12.165  10.951
 3371SOL    HW211953   7.067  12.018  10.983
 3372SOL     OW11954   6.380   9.706   9.231
 3372SOL    HW111955   6.343   9.706   9.143
 3372SOL    HW211956   6.374   9.798   9.259
 3373SOL     OW11957   0.583  10.870  14.760
 3373SOL    HW111958   0.593  10.779  14.785
 3373SOL    HW211959   0.513  10.870  14.694
 3374SOL     OW11960   3.060  10.400   2.945
 3374SOL    HW111961   3.102  10.449   2.874
 3374SOL    HW211962   3.056  10.462   3.018
 3375SOL     OW11963  13.022  11.982   4.682
 3375SOL    HW111964  13.030  12.060   4.738
 3375SOL    HW211965  12.940  11.995   4.635
 3376SOL     OW11966   8.104  11.328   0.788
 3376SOL    HW111967   8.120  11.387   0.862
 3376SOL    HW211968   8.028  11.366   0.743
 3377SOL     OW11969  10.460   7.458   9.517
 3377SOL    HW111970  10.397   7.396   9.554
 3377SOL    HW211971  10.455   7.443   9.422
 3378SOL     OW11972   6.040   5.423  13.401
 3378SOL    HW111973   6.000   5.498  13.358
 3378SOL    HW211974   6.018   5.433  13.493
 3379SOL     OW11975   9.470   9.470   5.917
 3379SOL    HW111976   9.427   9.544   5.874
 3379SOL    HW211977   9.563   9.492   5.916
 3380SOL     OW11978  11.528   0.516   3.256
 3380SOL    HW111979  11.440   0.508   3.221
 3380SOL    HW211980  11.571   0.434   3.231
 3381SOL     OW11981  12.183   5.070   2.952
 3381SOL    HW111982  12.236   5.012   3.007
 3381SOL    HW211983  12.203   5.043   2.862
 3382SOL     OW11984  13.067   8.265   1.058
 3382SOL    HW111985  13.087   8.353   1.025
 3382SOL    HW211986  13.011   8.280   1.134
 3383SOL     OW11987   1.650   8.093  13.981
 3383SOL    HW111988   1.562   8.112  14.015
 3383SOL    HW211989   1.640   8.011  13.934
 3384SOL     OW11990   2.684  11.351   8.047
 3384SOL    HW111991   2.770  11.350   8.006
 3384SOL    HW211992   2.699  11.388   8.134
 3385SOL     OW11993   9.792   7.105   0.545
 3385SOL    HW111994   9.882   7.073   0.550
 3385SOL    HW211995   9.798   7.199   0.564
 3386SOL     OW11996  12.834   8.422   9.197
 3386SOL    HW111997  12.820   8.362   9.124
 3386SOL    HW211998  12.857   8.366   9.271
 3387SOL     OW11999   7.282  11.617   7.028
 3387SOL    HW112000   7.362  11.631   7.079
 3387SOL    HW212001   7.257  11.526   7.045
 3388SOL     OW12002   3.941   6.750   7.952
 3388SOL    HW112003   4.026   6.714   7.925
 3388SOL    HW212004   3.938   6.736   8.047
 3389SOL     OW12005   7.939  10.678   5.589
 3389SOL    HW112006   7.940  10.772   5.610
 3389SOL    HW212007   7.850  10.660   5.561
 3390SOL     OW12008   8.653   1.526   3.182
 3390SOL    HW112009   8.653   1.431   3.189
 3390SOL    HW212010   8.743   1.549   3.160
 3391SOL     OW12011   6.615   5.873   9.951
 3391SOL    HW112012   6.680   5.944   9.944
 3391SOL    HW212013   6.664   5.794   9.931
 3392SOL     OW12014   5.093   4.917  10.918
 3392SOL    HW112015   5.186   4.915  10.897
 3392SOL    HW212016   5.085   4.858  10.993
 3393SOL     OW12017   6.255   4.297   1.647
 3393SOL    HW112018   6.215   4.261   1.568
 3393SOL    HW212019   6.197   4.270   1.718
 3394SOL     OW12020   0.038  10.002  13.966
 3394SOL    HW112021   0.099   9.938  13.930
 3394SOL    HW212022   0.090  10.052  14.028
 3395SOL     OW12023  14.394  13.539   0.944
 3395SOL    HW112024  14.472  13.513   0.894
 3395SOL    HW212025  14.374  13.463   0.999
 3396SOL     OW12026  14.160   2.809  10.552
 3396SOL    HW112027  14.079   2.858  10.564
 3396SOL    HW212028  14.165   2.751  10.628
 3397SOL     OW12029   2.811  11.172   7.186
 3397SOL    HW112030   2.779  11.250   7.141
 3397SOL    HW212031   2.815  11.198   7.278
 3398SOL     OW12032  10.681   2.917  10.026
 3398SOL    HW112033  10.696   2.978   9.954
 3398SOL    HW212034  10.731   2.839  10.002
 3399SOL     OW12035   1.938   7.973   2.630
 3399SOL    HW112036   2.020   7.991   2.584
 3399SOL    HW212037   1.957   7.994   2.722
 3400SOL     OW12038  11.676   5.124   9.214
 3400SOL    HW112039  11.725   5.043   9.231
 3400SOL    HW212040  11.728   5.170   9.148
 3401SOL     OW12041   7.433   1.797   5.981
 3401SOL    HW112042   7.346   1.784   6.019
 3401SOL    HW212043   7.427   1.880   5.934
 3402SOL     OW12044   2.306   9.496   6.492
 3402SOL    HW112045   2.360   9.536   6.560
 3402SOL    HW212046   2.329   9.543   6.412
 3403SOL     OW12047   3.005  12.118  12.335
 3403SOL    HW112048   3.061  12.050  12.297
 3403SOL    HW212049   3.049  12.200  12.314
 3404SOL     OW12050   6.718   7.213   6.406
 3404SOL    HW112051   6.651   7.159   6.364
 3404SOL    HW212052   6.681   7.235   6.492
 3405SOL     OW12053   9.995   6.595  11.710
 3405SOL    HW112054   9.958   6.539  11.641
 3405SOL    HW212055   9.919   6.638  11.750
 3406SOL     OW12056  11.661   7.532   9.076
 3406SOL    HW112057  11.644   7.501   9.165
 3406SOL    HW212058  11.702   7.457   9.031
 3407SOL     OW12059  10.596   7.211   4.227
 3407SOL    HW112060  10.544   7.279   4.185
 3407SOL    HW212061  10.666   7.191   4.164
 3408SOL     OW12062   7.657  13.515  10.604
 3408SOL    HW112063   7.747  13.536  10.578
 3408SOL    HW212064   7.613  13.492  10.522
 3409SOL     OW12065  11.597   8.891   1.270
 3409SOL    HW112066  11.626   8.822   1.330
 3409SOL    HW212067  11.598   8.971   1.324
 3410SOL     OW12068   4.429   7.154   3.839
 3410SOL    HW112069   4.409   7.061   3.848
 3410SOL    HW212070   4.429   7.170   3.745
 3411SOL     OW12071   9.025   7.749  13.600
 3411SOL    HW112072   8.993   7.771  13.688
 3411SOL    HW212073   8.949   7.760  13.543
 3412SOL     OW12074   8.681  10.858  10.422
 3412SOL    HW112075   8.638  10.843  10.506
 3412SOL    HW212076   8.759  10.802  10.425
 3413SOL     OW12077   0.345   6.627  11.095
 3413SOL    HW112078   0.323   6.671  11.013
 3413SOL    HW212079   0.272   6.567  11.110
 3414SOL     OW12080   6.821   0.713   2.916
 3414SOL    HW112081   6.807   0.784   2.853
 3414SOL    HW212082   6.751   0.651   2.897
 3415SOL     OW12083  13.264   4.990   3.473
 3415SOL    HW112084  13.208   4.915   3.490
 3415SOL    HW212085  13.353   4.955   3.477
 3416SOL     OW12086  14.491   0.340   0.503
 3416SOL    HW112087  14.552   0.268   0.517
 3416SOL    HW212088  14.533   0.416   0.544
 3417SOL     OW12089   2.738   3.948   2.139
 3417SOL    HW112090   2.645   3.969   2.142
 3417SOL    HW212091   2.742   3.861   2.099
 3418SOL     OW12092   0.500   7.399   2.185
 3418SOL    HW112093   0.574   7.350   2.149
 3418SOL    HW212094   0.437   7.405   2.113
 3419SOL     OW12095   5.598   7.423   3.024
 3419SOL    HW112096   5.645   7.361   2.968
 3419SOL    HW212097   5.555   7.369   3.090
 3420SOL     OW12098   7.536  11.174  11.065
 3420SOL    HW112099   7.521  11.082  11.044
 3420SOL    HW212100   7.621  11.194  11.026
 3421SOL     OW12101  14.079   4.678  11.176
 3421SOL    HW112102  14.019   4.749  11.194
 3421SOL    HW212103  14.163   4.707  11.211
 3422SOL     OW12104   5.422   5.556   1.876
 3422SOL    HW112105   5.433   5.651   1.875
 3422SOL    HW212106   5.425   5.532   1.968
 3423SOL     OW12107  11.692   6.385  10.312
 3423SOL    HW112108  11.704   6.412  10.221
 3423SOL    HW212109  11.617   6.325  10.309
 3424SOL     OW12110   2.700  10.056  14.367
 3424SOL    HW112111   2.766  10.115  14.331
 3424SOL    HW212112   2.743   9.972  14.373
 3425SOL     OW12113   3.207  12.493   0.462
 3425SOL    HW112114   3.166  12.541   0.534
 3425SOL    HW212115   3.266  12.432   0.505
 3426SOL     OW12116   8.526   6.578   2.006
 3426SOL    HW112117   8.561   6.562   1.919
 3426SOL    HW212118   8.504   6.671   2.007
 3427SOL     OW12119   4.615   9.872   2.574
 3427SOL    HW112120   4.674   9.824   2.633
 3427SOL    HW212121   4.645   9.849   2.486
 3428SOL     OW12122   4.834   4.739   2.936
 3428SOL    HW112123   4.890   4.760   2.862
 3428SOL    HW212124   4.893   4.739   3.011
 3429SOL     OW12125  12.415  10.710  11.150
 3429SOL    HW112126  12.384  10.622  11.127
 3429SOL    HW212127  12.385  10.766  11.079
 3430SOL     OW12128   6.215  14.031  10.297
 3430SOL    HW112129   6.172  14.098  10.244
 3430SOL    HW212130   6.216  14.067  10.385
 3431SOL     OW12131   2.311  10.240   1.537
 3431SOL    HW112132   2.228  10.239   1.585
 3431SOL    HW212133   2.309  10.322   1.488
 3432SOL     OW12134   9.235   2.930  11.248
 3432SOL    HW112135   9.312   2.876  11.226
 3432SOL    HW212136   9.260   2.974  11.329
 3433SOL     OW12137   1.620  14.333   9.721
 3433SOL    HW112138   1.705  14.375   9.733
 3433SOL    HW212139   1.603  14.338   9.627
 3434SOL     OW12140  14.831   9.623   7.300
 3434SOL    HW112141  14.779   9.543   7.305
 3434SOL    HW212142   0.015   9.607   7.227
 3435SOL     OW12143  11.454  14.841  10.683
 3435SOL    HW112144  11.361  14.842  10.663
 3435SOL    HW212145  11.459  14.864  10.776
 3436SOL     OW12146   7.380  12.999   9.114
 3436SOL    HW112147   7.424  12.962   9.038
 3436SOL    HW212148   7.314  13.058   9.077
 3437SOL     OW12149   8.147  11.228   1.302
 3437SOL    HW112150   8.105  11.189   1.226
 3437SOL    HW212151   8.122  11.320   1.299
 3438SOL     OW12152  10.169  11.295   7.314
 3438SOL    HW112153  10.150  11.208   7.350
 3438SOL    HW212154  10.115  11.300   7.235
 3439SOL     OW12155   9.186   5.451   9.460
 3439SOL    HW112156   9.215   5.498   9.382
 3439SOL    HW212157   9.109   5.403   9.430
 3440SOL     OW12158   4.475   4.747   8.002
 3440SOL    HW112159   4.399   4.729   7.947
 3440SOL    HW212160   4.550   4.722   7.948
 3441SOL     OW12161  11.116   1.173   7.985
 3441SOL    HW112162  11.092   1.146   8.074
 3441SOL    HW212163  11.211   1.189   7.989
 3442SOL     OW12164   0.578   7.343  13.433
 3442SOL    HW112165   0.609   7.329  13.343
 3442SOL    HW212166   0.490   7.304  13.433
 3443SOL     OW12167   6.443   9.306   6.700
 3443SOL    HW112168   6.479   9.242   6.638
 3443SOL    HW212169   6.349   9.304   6.685
 3444SOL     OW12170   0.178  13.185   1.094
 3444SOL    HW112171   0.167  13.224   1.180
 3444SOL    HW212172   0.092  13.149   1.072
 3445SOL     OW12173   9.431  10.064   7.317
 3445SOL    HW112174   9.365  10.070   7.387
 3445SOL    HW212175   9.510  10.100   7.357
 3446SOL     OW12176  11.210   7.756  14.195
 3446SOL    HW112177  11.242   7.817  14.262
 3446SOL    HW212178  11.280   7.692  14.185
 3447SOL     OW12179  10.801   8.940   9.270
 3447SOL    HW112180  10.808   8.847   9.290
 3447SOL    HW212181  10.891   8.972   9.270
 3448SOL     OW12182   5.753   4.991  12.364
 3448SOL    HW112183   5.746   5.072  12.312
 3448SOL    HW212184   5.747   5.021  12.455
 3449SOL     OW12185  14.866   2.315  11.009
 3449SOL    HW112186   0.023   2.245  10.953
 3449SOL    HW212187   0.066   2.342  11.061
 3450SOL     OW12188  10.060  13.237   3.237
 3450SOL    HW112189  10.093  13.164   3.290
 3450SOL    HW212190   9.965  13.225   3.238
 3451SOL     OW12191   1.001   9.246   0.284
 3451SOL    HW112192   1.078   9.192   0.266
 3451SOL    HW212193   1.037   9.327   0.320
 3452SOL     OW12194   6.369   6.250   5.637
 3452SOL    HW112195   6.310   6.177   5.659
 3452SOL    HW212196   6.313   6.312   5.590
 3453SOL     OW12197  10.272   7.031   1.540
 3453SOL    HW112198  10.315   7.053   1.623
 3453SOL    HW212199  10.341   7.038   1.475
 3454SOL     OW12200   9.433   9.664   8.612
 3454SOL    HW112201   9.350   9.618   8.598
 3454SOL    HW212202   9.490   9.632   8.542
 3455SOL     OW12203   6.125   2.964   7.871
 3455SOL    HW112204   6.125   3.026   7.945
 3455SOL    HW212205   6.169   2.886   7.905
 3456SOL     OW12206   0.191   4.081   6.634
 3456SOL    HW112207   0.167   4.131   6.712
 3456SOL    HW212208   0.135   4.115   6.565
 3457SOL     OW12209   2.826  10.094   6.809
 3457SOL    HW112210   2.794  10.039   6.881
 3457SOL    HW212211   2.868  10.032   6.749
 3458SOL     OW12212  10.062   3.675   4.918
 3458SOL    HW112213  10.073   3.732   4.995
 3458SOL    HW212214  10.139   3.693   4.864
 3459SOL     OW12215   1.169  14.365  12.055
 3459SOL    HW112216   1.111  14.348  11.981
 3459SOL    HW212217   1.180  14.460  12.056
 3460SOL     OW12218   7.579   1.411   5.873
 3460SOL    HW112219   7.640   1.359   5.822
 3460SOL    HW212220   7.624   1.495   5.886
 3461SOL     OW12221  14.275   5.243   4.387
 3461SOL    HW112222  14.325   5.312   4.344
 3461SOL    HW212223  14.211   5.216   4.321
 3462SOL     OW12224   3.023  11.223   4.722
 3462SOL    HW112225   3.037  11.312   4.691
 3462SOL    HW212226   2.931  11.220   4.748
 3463SOL     OW12227  12.016   0.516   7.415
 3463SOL    HW112228  12.100   0.520   7.461
 3463SOL    HW212229  12.039   0.509   7.323
 3464SOL     OW12230  13.895   6.753   3.886
 3464SOL    HW112231  13.852   6.818   3.830
 3464SOL    HW212232  13.824   6.695   3.915
 3465SOL     OW12233  12.532   1.843  14.136
 3465SOL    HW112234  12.505   1.898  14.062
 3465SOL    HW212235  12.498   1.887  14.213
 3466SOL     OW12236   9.415   9.375  12.642
 3466SOL    HW112237   9.420   9.459  12.688
 3466SOL    HW212238   9.492   9.326  12.674
 3467SOL     OW12239   0.363   0.130   6.045
 3467SOL    HW112240   0.318   0.212   6.024
 3467SOL    HW212241   0.329   0.105   6.131
 3468SOL     OW12242   9.436  13.800   2.168
 3468SOL    HW112243   9.364  13.800   2.231
 3468SOL    HW212244   9.508  13.756   2.214
 3469SOL     OW12245   9.175   7.718   3.623
 3469SOL    HW112246   9.261   7.741   3.657
 3469SOL    HW212247   9.165   7.625   3.644
 3470SOL     OW12248  10.200  10.998  11.412
 3470SOL    HW112249  10.269  11.057  11.383
 3470SOL    HW212250  10.126  11.056  11.430
 3471SOL     OW12251   0.164   8.738   6.762
 3471SOL    HW112252   0.164   8.831   6.741
 3471SOL    HW212253   0.252   8.721   6.797
 3472SOL     OW12254   2.349   6.020   3.858
 3472SOL    HW112255   2.441   6.024   3.886
 3472SOL    HW212256   2.307   5.964   3.923
 3473SOL     OW12257   3.744  12.816  11.690
 3473SOL    HW112258   3.739  12.887  11.626
 3473SOL    HW212259   3.787  12.745  11.644
 3474SOL     OW12260   4.341   7.913  13.979
 3474SOL    HW112261   4.307   7.997  14.010
 3474SOL    HW212262   4.418   7.897  14.033
 3475SOL     OW12263   6.369   4.259   1.029
 3475SOL    HW112264   6.334   4.190   0.973
 3475SOL    HW212265   6.292   4.312   1.052
 3476SOL     OW12266   0.315   9.437   8.823
 3476SOL    HW112267   0.315   9.518   8.873
 3476SOL    HW212268   0.405   9.426   8.794
 3477SOL     OW12269   0.295   5.493   5.499
 3477SOL    HW112270   0.376   5.442   5.498
 3477SOL    HW212271   0.232   5.439   5.451
 3478SOL     OW12272   1.702  10.542  12.262
 3478SOL    HW112273   1.649  10.598  12.319
 3478SOL    HW212274   1.762  10.603  12.218
 3479SOL     OW12275   8.628   3.116   6.930
 3479SOL    HW112276   8.638   3.067   6.849
 3479SOL    HW212277   8.560   3.181   6.910
 3480SOL     OW12278  12.634  11.155   5.061
 3480SOL    HW112279  12.647  11.160   4.966
 3480SOL    HW212280  12.549  11.112   5.072
 3481SOL     OW12281  13.770   3.869   1.760
 3481SOL    HW112282  13.782   3.937   1.693
 3481SOL    HW212283  13.761   3.788   1.710
 3482SOL     OW12284   4.359   1.139   9.770
 3482SOL    HW112285   4.420   1.073   9.737
 3482SOL    HW212286   4.281   1.090   9.795
 3483SOL     OW12287   4.450   0.691   6.090
 3483SOL    HW112288   4.501   0.730   6.161
 3483SOL    HW212289   4.506   0.621   6.057
 3484SOL     OW12290   1.491   3.346   2.263
 3484SOL    HW112291   1.514   3.408   2.193
 3484SOL    HW212292   1.573   3.333   2.311
 3485SOL     OW12293  12.037  13.917   8.993
 3485SOL    HW112294  12.015  13.858   9.065
 3485SOL    HW212295  12.050  14.002   9.035
 3486SOL     OW12296  12.299   3.890  11.241
 3486SOL    HW112297  12.230   3.848  11.293
 3486SOL    HW212298  12.278   3.868  11.151
 3487SOL     OW12299   0.284   1.479   6.209
 3487SOL    HW112300   0.257   1.481   6.117
 3487SOL    HW212301   0.329   1.395   6.218
 3488SOL     OW12302   1.707   3.563  12.152
 3488SOL    HW112303   1.629   3.507  12.153
 3488SOL    HW212304   1.767   3.521  12.091
 3489SOL     OW12305   5.384  10.308   9.441
 3489SOL    HW112306   5.332  10.362   9.381
 3489SOL    HW212307   5.461  10.284   9.390
 3490SOL     OW12308   7.689   4.471  12.550
 3490SOL    HW112309   7.594   4.464  12.564
 3490SOL    HW212310   7.711   4.396  12.495
 3491SOL     OW12311  14.300   4.726  12.331
 3491SOL    HW112312  14.390   4.758  12.328
 3491SOL    HW212313  14.262   4.768  12.408
 3492SOL     OW12314  10.622   4.856   8.367
 3492SOL    HW112315  10.672   4.775   8.379
 3492SOL    HW212316  10.635   4.879   8.276
 3493SOL     OW12317   0.211  13.897   5.339
 3493SOL    HW112318   0.236  13.892   5.247
 3493SOL    HW212319   0.244  13.815   5.377
 3494SOL     OW12320   4.477  10.907   4.779
 3494SOL    HW112321   4.481  10.993   4.820
 3494SOL    HW212322   4.415  10.858   4.833
 3495SOL     OW12323   9.103  10.296   8.305
 3495SOL    HW112324   9.013  10.326   8.289
 3495SOL    HW212325   9.124  10.329   8.392
 3496SOL     OW12326  14.168   5.874   1.233
 3496SOL    HW112327  14.203   5.948   1.282
 3496SOL    HW212328  14.092   5.908   1.186
 3497SOL     OW12329  10.061   8.328   4.602
 3497SOL    HW112330  10.045   8.251   4.656
 3497SOL    HW212331  10.138   8.370   4.643
 3498SOL     OW12332  14.390   1.474   9.139
 3498SOL    HW112333  14.406   1.512   9.053
 3498SOL    HW212334  14.295   1.463   9.144
 3499SOL     OW12335   1.699  14.042  10.117
 3499SOL    HW112336   1.764  14.037  10.047
 3499SOL    HW212337   1.683  13.951  10.142
 3500SOL     OW12338  12.641  13.989   6.270
 3500SOL    HW112339  12.729  14.016   6.295
 3500SOL    HW212340  12.654  13.933   6.193
 3501SOL     OW12341   3.198  11.372   2.792
 3501SOL    HW112342   3.264  11.331   2.736
 3501SOL    HW212343   3.244  11.444   2.835
 3502SOL     OW12344  14.314  13.325  13.873
 3502SOL    HW112345  14.285  13.236  13.854
 3502SOL    HW212346  14.372  13.316  13.949
 3503SOL     OW12347   4.224   6.061   5.336
 3503SOL    HW112348   4.314   6.044   5.364
 3503SOL    HW212349   4.217   6.019   5.251
 3504SOL     OW12350   3.904   4.749   6.338
 3504SOL    HW112351   3.973   4.775   6.276
 3504SOL    HW212352   3.940   4.673   6.383
 3505SOL     OW12353   9.135   7.001   1.644
 3505SOL    HW112354   9.199   7.073   1.639
 3505SOL    HW212355   9.051   7.043   1.625
 3506SOL     OW12356   8.008   7.493   9.944
 3506SOL    HW112357   7.914   7.489   9.924
 3506SOL    HW212358   8.012   7.532  10.032
 3507SOL     OW12359   7.482  10.631   4.763
 3507SOL    HW112360   7.551  10.689   4.731
 3507SOL    HW212361   7.404  10.688   4.768
 3508SOL     OW12362   5.784   4.795  11.302
 3508SOL    HW112363   5.818   4.709  11.279
 3508SOL    HW212364   5.848   4.831  11.363
 3509SOL     OW12365   0.513   2.202   3.296
 3509SOL    HW112366   0.587   2.258   3.275
 3509SOL    HW212367   0.466   2.191   3.213
 3510SOL     OW12368  14.632   7.276   5.256
 3510SOL    HW112369  14.683   7.303   5.333
 3510SOL    HW212370  14.592   7.193   5.282
 3511SOL     OW12371   7.440  14.202   2.148
 3511SOL    HW112372   7.399  14.168   2.069
 3511SOL    HW212373   7.416  14.295   2.149
 3512SOL     OW12374  14.143   1.047   0.145
 3512SOL    HW112375  14.123   1.018   0.234
 3512SOL    HW212376  14.216   0.991   0.118
 3513SOL     OW12377  10.529  13.654   4.641
 3513SOL    HW112378  10.573  13.575   4.612
 3513SOL    HW212379  10.456  13.623   4.694
 3514SOL     OW12380  13.228   8.846  14.169
 3514SOL    HW112381  13.250   8.933  14.136
 3514SOL    HW212382  13.192   8.800  14.093
 3515SOL     OW12383   0.944  13.051  14.862
 3515SOL    HW112384   0.880  13.083  14.798
 3515SOL    HW212385   0.973  12.967  14.826
 3516SOL     OW12386   6.701   2.663   1.066
 3516SOL    HW112387   6.724   2.670   0.974
 3516SOL    HW212388   6.729   2.746   1.104
 3517SOL     OW12389   4.819  13.423   0.286
 3517SOL    HW112390   4.894  13.404   0.229
 3517SOL    HW212391   4.835  13.372   0.365
 3518SOL     OW12392  14.591   9.299   6.003
 3518SOL    HW112393  14.588   9.320   5.910
 3518SOL    HW212394  14.551   9.212   6.010
 3519SOL     OW12395   4.021   1.315  14.118
 3519SOL    HW112396   4.045   1.391  14.172
 3519SOL    HW212397   3.935   1.338  14.082
 3520SOL     OW12398   0.074   0.470   2.287
 3520SOL    HW112399   0.159   0.427   2.300
 3520SOL    HW212400   0.028   0.413   2.226
 3521SOL     OW12401   0.921   1.575  10.919
 3521SOL    HW112402   0.960   1.548  10.836
 3521SOL    HW212403   0.971   1.653  10.944
 3522SOL     OW12404   2.200   0.684  13.003
 3522SOL    HW112405   2.168   0.653  13.088
 3522SOL    HW212406   2.251   0.611  12.968
 3523SOL     OW12407   1.649  12.377   4.812
 3523SOL    HW112408   1.569  12.328   4.826
 3523SOL    HW212409   1.637  12.458   4.861
 3524SOL     OW12410   5.435  12.619   2.352
 3524SOL    HW112411   5.380  12.626   2.274
 3524SOL    HW212412   5.486  12.700   2.353
 3525SOL     OW12413   2.679   9.915  11.204
 3525SOL    HW112414   2.636   9.830  11.190
 3525SOL    HW212415   2.629   9.956  11.274
 3526SOL     OW12416  11.304  12.083  12.787
 3526SOL    HW112417  11.301  11.994  12.753
 3526SOL    HW212418  11.395  12.096  12.813
 3527SOL     OW12419  12.218   2.457  12.255
 3527SOL    HW112420  12.145   2.505  12.215
 3527SOL    HW212421  12.193   2.365  12.246
 3528SOL     OW12422  11.859  10.076   2.128
 3528SOL    HW112423  11.825  10.159   2.095
 3528SOL    HW212424  11.785  10.015   2.121
 3529SOL     OW12425   3.186   0.084  11.812
 3529SOL    HW112426   3.121   0.055  11.876
 3529SOL    HW212427   3.230   0.004  11.784
 3530SOL     OW12428   5.096   9.048   9.664
 3530SOL    HW112429   5.097   9.044   9.760
 3530SOL    HW212430   5.005   9.027   9.641
 3531SOL     OW12431   7.649   4.183   9.736
 3531SOL    HW112432   7.657   4.254   9.672
 3531SOL    HW212433   7.601   4.221   9.809
 3532SOL     OW12434   7.598   9.968  12.067
 3532SOL    HW112435   7.546   9.890  12.051
 3532SOL    HW212436   7.563  10.033  12.007
 3533SOL     OW12437  13.460  13.483   9.699
 3533SOL    HW112438  13.497  13.429   9.769
 3533SOL    HW212439  13.536  13.511   9.648
 3534SOL     OW12440  12.240   6.334  14.705
 3534SOL    HW112441  12.169   6.321  14.768
 3534SOL    HW212442  12.314   6.287  14.743
 3535SOL     OW12443  10.195  13.531   7.577
 3535SOL    HW112444  10.266  13.588   7.549
 3535SOL    HW212445  10.234  13.478   7.647
 3536SOL     OW12446   1.009   3.420   1.850
 3536SOL    HW112447   0.967   3.501   1.820
 3536SOL    HW212448   0.951   3.387   1.919
 3537SOL     OW12449   0.726   9.525   4.081
 3537SOL    HW112450   0.754   9.530   3.990
 3537SOL    HW212451   0.714   9.431   4.098
 3538SOL     OW12452  12.123   0.741   9.236
 3538SOL    HW112453  12.070   0.762   9.313
 3538SOL    HW212454  12.212   0.767   9.261
 3539SOL     OW12455   9.739   6.898  14.138
 3539SOL    HW112456   9.807   6.921  14.075
 3539SOL    HW212457   9.663   6.875  14.085
 3540SOL     OW12458  12.796   4.647   4.877
 3540SOL    HW112459  12.748   4.565   4.865
 3540SOL    HW212460  12.732   4.708   4.913
 3541SOL     OW12461   8.938  14.582   2.097
 3541SOL    HW112462   8.970  14.672   2.109
 3541SOL    HW212463   9.015  14.527   2.115
 3542SOL     OW12464   7.557   5.771   1.217
 3542SOL    HW112465   7.498   5.736   1.284
 3542SOL    HW212466   7.609   5.837   1.262
 3543SOL     OW12467   7.130  12.502   8.575
 3543SOL    HW112468   7.104  12.591   8.596
 3543SOL    HW212469   7.064  12.472   8.512
 3544SOL     OW12470   8.741   6.767   4.516
 3544SOL    HW112471   8.729   6.703   4.446
 3544SOL    HW212472   8.680   6.739   4.585
 3545SOL     OW12473   3.243   8.255   8.193
 3545SOL    HW112474   3.263   8.198   8.267
 3545SOL    HW212475   3.325   8.261   8.145
 3546SOL     OW12476   0.768   8.504   2.233
 3546SOL    HW112477   0.809   8.454   2.163
 3546SOL    HW212478   0.687   8.456   2.252
 3547SOL     OW12479  13.471  14.184   9.654
 3547SOL    HW112480  13.411  14.113   9.677
 3547SOL    HW212481  13.511  14.210   9.736
 3548SOL     OW12482   5.761  11.362   3.320
 3548SOL    HW112483   5.700  11.435   3.333
 3548SOL    HW212484   5.822  11.368   3.394
 3549SOL     OW12485  14.264   3.775   2.613
 3549SOL    HW112486  14.268   3.688   2.573
 3549SOL    HW212487  14.280   3.836   2.541
 3550SOL     OW12488   2.294  14.128  11.252
 3550SOL    HW112489   2.199  14.116  11.253
 3550SOL    HW212490   2.329  14.044  11.221
 3551SOL     OW12491   2.378   1.424   4.586
 3551SOL    HW112492   2.441   1.496   4.596
 3551SOL    HW212493   2.303   1.464   4.543
 3552SOL     OW12494  14.681   9.778  13.441
 3552SOL    HW112495  14.766   9.818  13.421
 3552SOL    HW212496  14.632   9.847  13.486
 3553SOL     OW12497  11.236  14.734  12.270
 3553SOL    HW112498  11.213  14.714  12.361
 3553SOL    HW212499  11.318  14.688  12.255
 3554SOL     OW12500   3.945   5.859   2.971
 3554SOL    HW112501   4.017   5.826   3.025
 3554SOL    HW212502   3.982   5.865   2.883
 3555SOL     OW12503   6.082  14.299   4.812
 3555SOL    HW112504   6.033  14.375   4.843
 3555SOL    HW212505   6.054  14.287   4.722
 3556SOL     OW12506   1.775   9.941   0.205
 3556SOL    HW112507   1.848  10.001   0.191
 3556SOL    HW212508   1.786   9.910   0.295
 3557SOL     OW12509   3.961  10.100   2.233
 3557SOL    HW112510   3.995  10.022   2.278
 3557SOL    HW212511   4.011  10.173   2.270
 3558SOL     OW12512   5.453   5.993   9.834
 3558SOL    HW112513   5.498   6.005   9.750
 3558SOL    HW212514   5.524   5.996   9.899
 3559SOL     OW12515   5.690  12.002   1.423
 3559SOL    HW112516   5.659  12.023   1.335
 3559SOL    HW212517   5.715  11.909   1.418
 3560SOL     OW12518   4.561   0.740   2.267
 3560SOL    HW112519   4.553   0.651   2.302
 3560SOL    HW212520   4.516   0.795   2.331
 3561SOL     OW12521  13.301  10.886   3.659
 3561SOL    HW112522  13.370  10.931   3.610
 3561SOL    HW212523  13.224  10.942   3.648
 3562SOL     OW12524   6.184   0.946   9.632
 3562SOL    HW112525   6.150   0.905   9.711
 3562SOL    HW212526   6.224   1.028   9.662
 3563SOL     OW12527   2.762   4.584  10.021
 3563SOL    HW112528   2.774   4.629  10.105
 3563SOL    HW212529   2.702   4.640   9.972
 3564SOL     OW12530  14.192   6.500   9.972
 3564SOL    HW112531  14.098   6.487   9.957
 3564SOL    HW212532  14.198   6.533  10.061
 3565SOL     OW12533  13.645   2.611   6.158
 3565SOL    HW112534  13.602   2.696   6.146
 3565SOL    HW212535  13.736   2.627   6.134
 3566SOL     OW12536   0.266  11.922   3.096
 3566SOL    HW112537   0.300  11.940   3.009
 3566SOL    HW212538   0.278  11.828   3.108
 3567SOL     OW12539  11.082  12.948  10.051
 3567SOL    HW112540  11.041  12.911  10.129
 3567SOL    HW212541  11.142  12.879  10.021
 3568SOL     OW12542  13.969  11.650   1.549
 3568SOL    HW112543  13.898  11.713   1.561
 3568SOL    HW212544  13.948  11.607   1.466
 3569SOL     OW12545   7.543   4.806   3.575
 3569SOL    HW112546   7.480   4.876   3.561
 3569SOL    HW212547   7.624   4.851   3.600
 3570SOL     OW12548   5.047  12.104  13.578
 3570SOL    HW112549   4.953  12.109  13.564
 3570SOL    HW212550   5.057  12.069  13.666
 3571SOL     OW12551   1.905  11.384   1.509
 3571SOL    HW112552   1.989  11.428   1.492
 3571SOL    HW212553   1.875  11.356   1.423
 3572SOL     OW12554   8.645  13.256   0.368
 3572SOL    HW112555   8.607  13.189   0.311
 3572SOL    HW212556   8.689  13.207   0.437
 3573SOL     OW12557   3.727   4.458   5.705
 3573SOL    HW112558   3.745   4.374   5.747
 3573SOL    HW212559   3.812   4.484   5.669
 3574SOL     OW12560  11.452  11.863   8.308
 3574SOL    HW112561  11.421  11.944   8.268
 3574SOL    HW212562  11.371  11.816   8.332
 3575SOL     OW12563   7.358  11.006   1.286
 3575SOL    HW112564   7.268  11.004   1.254
 3575SOL    HW212565   7.349  11.016   1.381
 3576SOL     OW12566  12.938   7.941   2.245
 3576SOL    HW112567  12.914   8.033   2.239
 3576SOL    HW212568  12.878   7.896   2.185
 3577SOL     OW12569  11.887   5.434  13.057
 3577SOL    HW112570  11.949   5.457  13.126
 3577SOL    HW212571  11.916   5.349  13.025
 3578SOL     OW12572   0.265   0.286  14.733
 3578SOL    HW112573   0.307   0.323  14.655
 3578SOL    HW212574   0.338   0.255  14.786
 3579SOL     OW12575  11.597   6.629  11.728
 3579SOL    HW112576  11.526   6.593  11.782
 3579SOL    HW212577  11.646   6.685  11.788
 3580SOL     OW12578   9.356   1.722  13.582
 3580SOL    HW112579   9.363   1.739  13.488
 3580SOL    HW212580   9.411   1.645  13.597
 3581SOL     OW12581   9.753   7.526  11.648
 3581SOL    HW112582   9.691   7.471  11.695
 3581SOL    HW212583   9.831   7.528  11.704
 3582SOL     OW12584   5.174   6.321   2.079
 3582SOL    HW112585   5.159   6.326   1.985
 3582SOL    HW212586   5.095   6.360   2.118
 3583SOL     OW12587   1.377   2.375  11.381
 3583SOL    HW112588   1.429   2.296  11.396
 3583SOL    HW212589   1.420   2.442  11.435
 3584SOL     OW12590   8.087   8.275  11.674
 3584SOL    HW112591   8.047   8.242  11.593
 3584SOL    HW212592   8.020   8.329  11.714
 3585SOL     OW12593  10.976   5.353   8.787
 3585SOL    HW112594  10.960   5.261   8.807
 3585SOL    HW212595  11.042   5.380   8.852
 3586SOL     OW12596  11.471   2.800   9.786
 3586SOL    HW112597  11.405   2.733   9.797
 3586SOL    HW212598  11.543   2.756   9.741
 3587SOL     OW12599  14.454   9.190   0.478
 3587SOL    HW112600  14.470   9.142   0.560
 3587SOL    HW212601  14.518   9.261   0.479
 3588SOL     OW12602  13.896  10.410   4.408
 3588SOL    HW112603  13.892  10.346   4.478
 3588SOL    HW212604  13.899  10.495   4.453
 3589SOL     OW12605   6.570  10.967   1.441
 3589SOL    HW112606   6.593  10.877   1.416
 3589SOL    HW212607   6.644  11.020   1.412
 3590SOL     OW12608  10.777   1.893  10.035
 3590SOL    HW112609  10.693   1.895  10.081
 3590SOL    HW212610  10.765   1.828   9.965
 3591SOL     OW12611  13.303   5.304   0.153
 3591SOL    HW112612  13.260   5.220   0.168
 3591SOL    HW212613  13.324   5.336   0.241
 3592SOL     OW12614  12.499   4.950   2.655
 3592SOL    HW112615  12.495   5.011   2.582
 3592SOL    HW212616  12.575   4.978   2.706
 3593SOL     OW12617   8.546   8.330   6.899
 3593SOL    HW112618   8.550   8.240   6.931
 3593SOL    HW212619   8.481   8.373   6.954
 3594SOL     OW12620  12.813   9.626   8.515
 3594SOL    HW112621  12.718   9.618   8.505
 3594SOL    HW212622  12.847   9.539   8.496
 3595SOL     OW12623   1.188  10.267   0.960
 3595SOL    HW112624   1.220  10.356   0.973
 3595SOL    HW212625   1.249  10.228   0.898
 3596SOL     OW12626   0.990   1.675   3.547
 3596SOL    HW112627   1.013   1.671   3.640
 3596SOL    HW212628   0.894   1.673   3.546
 3597SOL     OW12629  11.767   3.292  11.680
 3597SOL    HW112630  11.679   3.301  11.718
 3597SOL    HW212631  11.804   3.215  11.723
 3598SOL     OW12632  11.791   1.714   8.901
 3598SOL    HW112633  11.820   1.665   8.978
 3598SOL    HW212634  11.869   1.761   8.872
 3599SOL     OW12635  12.777  11.061  11.388
 3599SOL    HW112636  12.789  10.966  11.391
 3599SOL    HW212637  12.758  11.080  11.297
 3600SOL     OW12638   5.495   7.479  12.659
 3600SOL    HW112639   5.560   7.517  12.718
 3600SOL    HW212640   5.421   7.456  12.716
 3601SOL     OW12641   4.612  10.452   1.065
 3601SOL    HW112642   4.581  10.363   1.051
 3601SOL    HW212643   4.653  10.451   1.151
 3602SOL     OW12644  10.206   8.929   6.604
 3602SOL    HW112645  10.126   8.879   6.621
 3602SOL    HW212646  10.268   8.864   6.571
 3603SOL     OW12647  10.014   2.709  11.376
 3603SOL    HW112648   9.936   2.760  11.398
 3603SOL    HW212649  10.078   2.775  11.350
 3604SOL     OW12650   6.165   2.163   4.993
 3604SOL    HW112651   6.182   2.255   4.974
 3604SOL    HW212652   6.197   2.117   4.915
 3605SOL     OW12653   5.241  12.334   4.940
 3605SOL    HW112654   5.269  12.419   4.906
 3605SOL    HW212655   5.322  12.285   4.950
 3606SOL     OW12656   4.971   1.805  11.137
 3606SOL    HW112657   4.887   1.841  11.164
 3606SOL    HW212658   5.032   1.878  11.145
 3607SOL     OW12659  14.280   3.313  14.118
 3607SOL    HW112660  14.202   3.266  14.088
 3607SOL    HW212661  14.309   3.266  14.196
 3608SOL     OW12662   0.744   2.915  14.471
 3608SOL    HW112663   0.816   2.977  14.482
 3608SOL    HW212664   0.682   2.960  14.414
 3609SOL     OW12665   4.634  10.452   4.678
 3609SOL    HW112666   4.575  10.527   4.673
 3609SOL    HW212667   4.649  10.426   4.587
 3610SOL     OW12668  11.477  12.560   8.008
 3610SOL    HW112669  11.572  12.572   8.004
 3610SOL    HW212670  11.448  12.625   8.071
 3611SOL     OW12671  11.435   4.693  13.408
 3611SOL    HW112672  11.379   4.763  13.374
 3611SOL    HW212673  11.386   4.659  13.483
 3612SOL     OW12674  11.420  14.872  11.733
 3612SOL    HW112675  11.369   0.076  11.720
 3612SOL    HW212676  11.500   0.009  11.682
 3613SOL     OW12677  12.109   8.766   8.864
 3613SOL    HW112678  12.066   8.755   8.779
 3613SOL    HW212679  12.112   8.678   8.901
 3614SOL     OW12680   7.195   3.767   7.562
 3614SOL    HW112681   7.117   3.714   7.550
 3614SOL    HW212682   7.265   3.716   7.520
 3615SOL     OW12683  11.015  13.654  13.600
 3615SOL    HW112684  11.035  13.743  13.570
 3615SOL    HW212685  11.050  13.597  13.532
 3616SOL     OW12686  13.013   8.496  11.034
 3616SOL    HW112687  13.104   8.519  11.013
 3616SOL    HW212688  12.961   8.542  10.968
 3617SOL     OW12689  10.622   1.606   0.716
 3617SOL    HW112690  10.630   1.588   0.623
 3617SOL    HW212691  10.655   1.527   0.759
 3618SOL     OW12692  13.762   0.695   4.374
 3618SOL    HW112693  13.855   0.673   4.379
 3618SOL    HW212694  13.750   0.765   4.438
 3619SOL     OW12695   6.362   8.147   0.328
 3619SOL    HW112696   6.293   8.202   0.293
 3619SOL    HW212697   6.316   8.077   0.374
 3620SOL     OW12698   8.786   9.142   2.562
 3620SOL    HW112699   8.713   9.171   2.616
 3620SOL    HW212700   8.829   9.222   2.534
 3621SOL     OW12701   9.795  13.579  10.634
 3621SOL    HW112702   9.731  13.574  10.705
 3621SOL    HW212703   9.841  13.661  10.649
 3622SOL     OW12704  12.345   5.187   3.412
 3622SOL    HW112705  12.407   5.116   3.427
 3622SOL    HW212706  12.262   5.154   3.447
 3623SOL     OW12707   5.498   0.088   8.752
 3623SOL    HW112708   5.545   0.166   8.722
 3623SOL    HW212709   5.461   0.051   8.672
 3624SOL     OW12710  13.272   2.518   2.531
 3624SOL    HW112711  13.227   2.434   2.538
 3624SOL    HW212712  13.343   2.502   2.469
 3625SOL     OW12713  11.809  12.882   7.192
 3625SOL    HW112714  11.742  12.833   7.143
 3625SOL    HW212715  11.878  12.900   7.128
 3626SOL     OW12716   1.016   2.190  12.728
 3626SOL    HW112717   0.955   2.144  12.670
 3626SOL    HW212718   0.963   2.259  12.769
 3627SOL     OW12719   6.003  11.876   8.480
 3627SOL    HW112720   6.009  11.892   8.575
 3627SOL    HW212721   6.014  11.962   8.440
 3628SOL     OW12722   8.325  10.807   9.467
 3628SOL    HW112723   8.350  10.724   9.428
 3628SOL    HW212724   8.256  10.785   9.530
 3629SOL     OW12725  14.078   4.107   7.403
 3629SOL    HW112726  14.076   4.090   7.497
 3629SOL    HW212727  13.987   4.111   7.377
 3630SOL     OW12728   8.574   0.701   7.636
 3630SOL    HW112729   8.653   0.734   7.593
 3630SOL    HW212730   8.503   0.725   7.577
 3631SOL     OW12731  10.196  13.268   5.973
 3631SOL    HW112732  10.224  13.359   5.965
 3631SOL    HW212733  10.113  13.272   6.020
 3632SOL     OW12734   2.156  10.428   4.153
 3632SOL    HW112735   2.214  10.444   4.078
 3632SOL    HW212736   2.068  10.432   4.116
 3633SOL     OW12737  11.086   9.703   1.067
 3633SOL    HW112738  11.059   9.635   1.005
 3633SOL    HW212739  11.065   9.668   1.153
 3634SOL     OW12740  10.767   8.109   0.216
 3634SOL    HW112741  10.819   8.144   0.143
 3634SOL    HW212742  10.682   8.089   0.177
 3635SOL     OW12743  12.148   0.975   9.783
 3635SOL    HW112744  12.117   0.885   9.780
 3635SOL    HW212745  12.221   0.974   9.845
 3636SOL     OW12746   8.675   7.325   0.022
 3636SOL    HW112747   8.658   7.237  14.866
 3636SOL    HW212748   8.737   7.313   0.094
 3637SOL     OW12749   3.505  14.538   8.542
 3637SOL    HW112750   3.549  14.475   8.486
 3637SOL    HW212751   3.469  14.603   8.482
 3638SOL     OW12752  12.301   0.109   7.265
 3638SOL    HW112753  12.220   0.067   7.235
 3638SOL    HW212754  12.276   0.157   7.344
 3639SOL     OW12755   6.741   1.509   4.085
 3639SOL    HW112756   6.654   1.545   4.102
 3639SOL    HW212757   6.753   1.520   3.990
 3640SOL     OW12758   5.726  14.206   7.987
 3640SOL    HW112759   5.645  14.180   8.030
 3640SOL    HW212760   5.698  14.249   7.906
 3641SOL     OW12761   5.744   1.816  11.883
 3641SOL    HW112762   5.798   1.892  11.862
 3641SOL    HW212763   5.698   1.797  11.801
 3642SOL     OW12764  10.696   0.880   9.226
 3642SOL    HW112765  10.628   0.929   9.272
 3642SOL    HW212766  10.759   0.946   9.198
 3643SOL     OW12767   4.116   0.557   0.149
 3643SOL    HW112768   4.103   0.485   0.087
 3643SOL    HW212769   4.038   0.612   0.138
 3644SOL     OW12770   7.708   4.136   2.494
 3644SOL    HW112771   7.768   4.076   2.538
 3644SOL    HW212772   7.643   4.078   2.454
 3645SOL     OW12773  11.657   0.227   9.618
 3645SOL    HW112774  11.577   0.191   9.579
 3645SOL    HW212775  11.636   0.236   9.711
 3646SOL     OW12776  10.899   3.439   6.282
 3646SOL    HW112777  10.826   3.391   6.322
 3646SOL    HW212778  10.890   3.423   6.188
 3647SOL     OW12779   9.540  11.986  11.278
 3647SOL    HW112780   9.467  11.928  11.301
 3647SOL    HW212781   9.561  12.031  11.359
 3648SOL     OW12782   3.442  11.729   3.725
 3648SOL    HW112783   3.486  11.695   3.647
 3648SOL    HW212784   3.412  11.651   3.772
 3649SOL     OW12785  13.564   2.629  10.234
 3649SOL    HW112786  13.565   2.688  10.309
 3649SOL    HW212787  13.543   2.684  10.159
 3650SOL     OW12788   6.566  13.192   9.590
 3650SOL    HW112789   6.514  13.122   9.552
 3650SOL    HW212790   6.654  13.179   9.555
 3651SOL     OW12791   5.386   3.422   6.755
 3651SOL    HW112792   5.395   3.335   6.715
 3651SOL    HW212793   5.474   3.459   6.752
 3652SOL     OW12794  11.984  12.422  10.080
 3652SOL    HW112795  11.991  12.419   9.985
 3652SOL    HW212796  11.894  12.395  10.098
 3653SOL     OW12797  12.189   6.179   2.481
 3653SOL    HW112798  12.204   6.214   2.393
 3653SOL    HW212799  12.096   6.194   2.497
 3654SOL     OW12800  11.028   0.428   7.321
 3654SOL    HW112801  11.061   0.344   7.290
 3654SOL    HW212802  10.933   0.417   7.324
 3655SOL     OW12803  13.211   2.456   4.893
 3655SOL    HW112804  13.192   2.536   4.942
 3655SOL    HW212805  13.133   2.402   4.901
 3656SOL     OW12806   9.191   3.572   2.893
 3656SOL    HW112807   9.204   3.590   2.800
 3656SOL    HW212808   9.161   3.655   2.930
 3657SOL     OW12809  11.304  14.288  13.031
 3657SOL    HW112810  11.210  14.300  13.015
 3657SOL    HW212811  11.330  14.368  13.078
 3658SOL     OW12812   5.885   2.071   1.436
 3658SOL    HW112813   5.828   2.122   1.378
 3658SOL    HW212814   5.877   1.981   1.405
 3659SOL     OW12815   7.103   6.980   4.490
 3659SOL    HW112816   7.084   6.889   4.467
 3659SOL    HW212817   7.151   7.015   4.415
 3660SOL     OW12818  14.357   4.343   0.280
 3660SOL    HW112819  14.378   4.285   0.353
 3660SOL    HW212820  14.262   4.341   0.275
 3661SOL     OW12821  12.832   7.831   0.370
 3661SOL    HW112822  12.923   7.862   0.362
 3661SOL    HW212823  12.841   7.741   0.402
 3662SOL     OW12824   6.089  12.690   8.956
 3662SOL    HW112825   6.007  12.683   8.907
 3662SOL    HW212826   6.111  12.599   8.978
 3663SOL     OW12827  11.297   5.582   6.964
 3663SOL    HW112828  11.340   5.625   6.890
 3663SOL    HW212829  11.242   5.515   6.923
 3664SOL     OW12830   0.795   1.262   2.664
 3664SOL    HW112831   0.860   1.278   2.596
 3664SOL    HW212832   0.809   1.333   2.728
 3665SOL     OW12833   9.686   1.632   7.026
 3665SOL    HW112834   9.625   1.702   7.002
 3665SOL    HW212835   9.650   1.553   6.985
 3666SOL     OW12836   1.752  11.361   4.547
 3666SOL    HW112837   1.825  11.401   4.501
 3666SOL    HW212838   1.730  11.283   4.495
 3667SOL     OW12839   3.205   2.229   6.757
 3667SOL    HW112840   3.257   2.227   6.677
 3667SOL    HW212841   3.180   2.321   6.768
 3668SOL     OW12842   4.743  14.218   8.714
 3668SOL    HW112843   4.722  14.183   8.627
 3668SOL    HW212844   4.836  14.241   8.708
 3669SOL     OW12845   3.912   5.436   8.490
 3669SOL    HW112846   3.955   5.392   8.563
 3669SOL    HW212847   3.959   5.519   8.481
 3670SOL     OW12848  12.890   5.810   9.097
 3670SOL    HW112849  12.888   5.852   9.011
 3670SOL    HW212850  12.883   5.882   9.160
 3671SOL     OW12851   8.010   5.892  14.099
 3671SOL    HW112852   7.926   5.939  14.098
 3671SOL    HW212853   8.045   5.908  14.187
 3672SOL     OW12854  11.872  13.809   7.668
 3672SOL    HW112855  11.873  13.895   7.626
 3672SOL    HW212856  11.787  13.772   7.644
 3673SOL     OW12857  12.829   9.214   6.386
 3673SOL    HW112858  12.789   9.286   6.337
 3673SOL    HW212859  12.916   9.204   6.348
 3674SOL     OW12860   7.625   7.382   1.721
 3674SOL    HW112861   7.710   7.337   1.721
 3674SOL    HW212862   7.563   7.316   1.691
 3675SOL     OW12863  13.491   5.441   3.698
 3675SOL    HW112864  13.463   5.356   3.663
 3675SOL    HW212865  13.458   5.504   3.634
 3676SOL     OW12866   7.579   3.641   4.996
 3676SOL    HW112867   7.600   3.674   5.083
 3676SOL    HW212868   7.504   3.694   4.967
 3677SOL     OW12869  12.899   9.617  12.167
 3677SOL    HW112870  12.908   9.522  12.162
 3677SOL    HW212871  12.904   9.646  12.076
 3678SOL     OW12872  12.908   4.186  11.055
 3678SOL    HW112873  12.838   4.223  11.109
 3678SOL    HW212874  12.876   4.195  10.965
 3679SOL     OW12875  14.435   5.864  11.716
 3679SOL    HW112876  14.467   5.954  11.723
 3679SOL    HW212877  14.347   5.873  11.679
 3680SOL     OW12878   2.736   6.057   0.990
 3680SOL    HW112879   2.796   6.122   1.026
 3680SOL    HW212880   2.688   6.104   0.921
 3681SOL     OW12881   7.902   1.640   8.457
 3681SOL    HW112882   7.972   1.687   8.504
 3681SOL    HW212883   7.871   1.703   8.392
 3682SOL     OW12884  13.428  12.546   0.593
 3682SOL    HW112885  13.427  12.467   0.538
 3682SOL    HW212886  13.433  12.512   0.682
 3683SOL     OW12887   1.815  13.521   2.336
 3683SOL    HW112888   1.740  13.503   2.280
 3683SOL    HW212889   1.882  13.459   2.306
 3684SOL     OW12890  13.241  10.208   6.441
 3684SOL    HW112891  13.269  10.117   6.434
 3684SOL    HW212892  13.153  10.203   6.478
 3685SOL     OW12893   2.794   2.242   0.143
 3685SOL    HW112894   2.779   2.148   0.152
 3685SOL    HW212895   2.805   2.273   0.233
 3686SOL     OW12896   8.988  14.522   4.714
 3686SOL    HW112897   9.055  14.551   4.653
 3686SOL    HW212898   8.906  14.560   4.680
 3687SOL     OW12899  12.292   8.256   2.867
 3687SOL    HW112900  12.322   8.187   2.808
 3687SOL    HW212901  12.367   8.273   2.924
 3688SOL     OW12902   9.471   3.561  10.708
 3688SOL    HW112903   9.470   3.603  10.794
 3688SOL    HW212904   9.399   3.602  10.661
 3689SOL     OW12905   7.955   8.600   8.147
 3689SOL    HW112906   7.929   8.509   8.134
 3689SOL    HW212907   7.883   8.651   8.110
 3690SOL     OW12908   5.944  10.986   4.106
 3690SOL    HW112909   5.913  10.897   4.126
 3690SOL    HW212910   5.944  10.990   4.011
 3691SOL     OW12911   3.573   6.085   8.561
 3691SOL    HW112912   3.526   6.059   8.482
 3691SOL    HW212913   3.652   6.128   8.528
 3692SOL     OW12914  10.163  14.706   4.268
 3692SOL    HW112915  10.247  14.749   4.250
 3692SOL    HW212916  10.178  14.615   4.243
 3693SOL     OW12917   9.861   3.846  11.455
 3693SOL    HW112918   9.822   3.925  11.493
 3693SOL    HW212919   9.864   3.783  11.528
 3694SOL     OW12920   9.888   3.287   8.672
 3694SOL    HW112921   9.842   3.217   8.719
 3694SOL    HW212922   9.818   3.336   8.629
 3695SOL     OW12923  14.601  13.033  12.648
 3695SOL    HW112924  14.610  12.969  12.718
 3695SOL    HW212925  14.510  13.026  12.620
 3696SOL     OW12926  12.676   1.429   0.630
 3696SOL    HW112927  12.747   1.463   0.576
 3696SOL    HW212928  12.597   1.464   0.590
 3697SOL     OW12929   8.780   7.899   2.202
 3697SOL    HW112930   8.792   7.858   2.287
 3697SOL    HW212931   8.686   7.896   2.186
 3698SOL     OW12932  12.385   1.626   9.925
 3698SOL    HW112933  12.360   1.605  10.015
 3698SOL    HW212934  12.393   1.541   9.882
 3699SOL     OW12935  12.975  10.024   7.386
 3699SOL    HW112936  12.972  10.067   7.301
 3699SOL    HW212937  12.894   9.974   7.391
 3700SOL     OW12938  12.858  10.592   1.911
 3700SOL    HW112939  12.795  10.654   1.945
 3700SOL    HW212940  12.857  10.605   1.816
 3701SOL     OW12941   4.383   9.064   0.586
 3701SOL    HW112942   4.443   8.990   0.579
 3701SOL    HW212943   4.313   9.045   0.523
 3702SOL     OW12944   2.901   4.962  14.153
 3702SOL    HW112945   2.948   4.884  14.181
 3702SOL    HW212946   2.810   4.946  14.179
 3703SOL     OW12947   4.206   0.583   2.396
 3703SOL    HW112948   4.223   0.536   2.315
 3703SOL    HW212949   4.126   0.633   2.379
 3704SOL     OW12950   3.336  14.852   2.295
 3704SOL    HW112951   3.297  14.790   2.358
 3704SOL    HW212952   3.406  14.802   2.253
 3705SOL     OW12953   4.511   8.843   6.494
 3705SOL    HW112954   4.586   8.845   6.434
 3705SOL    HW212955   4.545   8.802   6.573
 3706SOL     OW12956   0.460   8.114  11.055
 3706SOL    HW112957   0.381   8.125  11.001
 3706SOL    HW212958   0.506   8.041  11.014
 3707SOL     OW12959   4.424   1.851  13.043
 3707SOL    HW112960   4.475   1.770  13.046
 3707SOL    HW212961   4.462   1.906  13.112
 3708SOL     OW12962   3.702   6.935   5.767
 3708SOL    HW112963   3.791   6.945   5.801
 3708SOL    HW212964   3.680   6.844   5.786
 3709SOL     OW12965  14.013   0.760  12.617
 3709SOL    HW112966  14.103   0.726  12.617
 3709SOL    HW212967  13.984   0.751  12.708
 3710SOL     OW12968   6.915   9.205  10.233
 3710SOL    HW112969   6.968   9.131  10.265
 3710SOL    HW212970   6.912   9.193  10.138
 3711SOL     OW12971  10.249  12.918   4.267
 3711SOL    HW112972  10.198  12.901   4.188
 3711SOL    HW212973  10.201  12.874   4.337
 3712SOL     OW12974   8.357   2.214   8.114
 3712SOL    HW112975   8.265   2.215   8.086
 3712SOL    HW212976   8.367   2.131   8.161
 3713SOL     OW12977   6.469   8.682   5.664
 3713SOL    HW112978   6.519   8.764   5.661
 3713SOL    HW212979   6.482   8.650   5.754
 3714SOL     OW12980  14.370   5.792   1.040
 3714SOL    HW112981  14.368   5.877   0.998
 3714SOL    HW212982  14.302   5.741   0.996
 3715SOL     OW12983   1.759  14.873   5.929
 3715SOL    HW112984   1.682  14.819   5.912
 3715SOL    HW212985   1.726   0.086   5.926
 3716SOL     OW12986  12.261  11.436  11.412
 3716SOL    HW112987  12.210  11.363  11.375
 3716SOL    HW212988  12.199  11.508  11.420
 3717SOL     OW12989  14.240   9.964  11.181
 3717SOL    HW112990  14.150   9.933  11.190
 3717SOL    HW212991  14.276   9.959  11.269
 3718SOL     OW12992   2.361   7.629   3.299
 3718SOL    HW112993   2.452   7.625   3.328
 3718SOL    HW212994   2.332   7.538   3.297
 3719SOL     OW12995   3.272   3.111   6.784
 3719SOL    HW112996   3.198   3.101   6.844
 3719SOL    HW212997   3.285   3.206   6.778
 3720SOL     OW12998   7.881   2.448   0.179
 3720SOL    HW112999   7.925   2.368   0.150
 3720SOL    HW213000   7.914   2.516   0.120
 3721SOL     OW13001   7.342  13.070   5.719
 3721SOL    HW113002   7.263  13.016   5.705
 3721SOL    HW213003   7.394  13.020   5.781
 3722SOL     OW13004   9.424  13.326  13.274
 3722SOL    HW113005   9.369  13.316  13.352
 3722SOL    HW213006   9.508  13.287  13.299
 3723SOL     OW13007   0.984  12.183   1.945
 3723SOL    HW113008   0.918  12.202   1.879
 3723SOL    HW213009   0.951  12.106   1.990
 3724SOL     OW13010  12.284   8.535   9.592
 3724SOL    HW113011  12.357   8.579   9.548
 3724SOL    HW213012  12.286   8.445   9.558
 3725SOL     OW13013  11.501   6.951  12.006
 3725SOL    HW113014  11.465   7.010  11.939
 3725SOL    HW213015  11.554   7.007  12.062
 3726SOL     OW13016   7.801  13.614   6.584
 3726SOL    HW113017   7.847  13.609   6.667
 3726SOL    HW213018   7.723  13.560   6.596
 3727SOL     OW13019  14.547   3.248   7.563
 3727SOL    HW113020  14.578   3.310   7.498
 3727SOL    HW213021  14.572   3.162   7.529
 3728SOL     OW13022  12.168   8.312  10.443
 3728SOL    HW113023  12.080   8.300  10.409
 3728SOL    HW213024  12.156   8.334  10.535
 3729SOL     OW13025   8.031   2.857  10.991
 3729SOL    HW113026   7.943   2.855  10.954
 3729SOL    HW213027   8.019   2.880  11.082
 3730SOL     OW13028   2.162   0.643   6.009
 3730SOL    HW113029   2.110   0.694   6.071
 3730SOL    HW213030   2.230   0.703   5.978
 3731SOL     OW13031   1.557  13.590  11.999
 3731SOL    HW113032   1.631  13.632  11.955
 3731SOL    HW213033   1.565  13.498  11.976
 3732SOL     OW13034  12.090   1.694  13.079
 3732SOL    HW113035  12.129   1.643  13.151
 3732SOL    HW213036  12.083   1.783  13.113
 3733SOL     OW13037  12.264   0.823   0.282
 3733SOL    HW113038  12.321   0.746   0.276
 3733SOL    HW213039  12.228   0.819   0.371
 3734SOL     OW13040   3.874   0.549  10.148
 3734SOL    HW113041   3.932   0.573  10.221
 3734SOL    HW213042   3.786   0.570  10.180
 3735SOL     OW13043  12.071   0.463  13.946
 3735SOL    HW113044  12.111   0.548  13.930
 3735SOL    HW213045  11.977   0.478  13.940
 3736SOL     OW13046  11.537   0.804   2.983
 3736SOL    HW113047  11.559   0.777   3.073
 3736SOL    HW213048  11.525   0.722   2.936
 3737SOL     OW13049   4.412   6.864  12.836
 3737SOL    HW113050   4.403   6.853  12.742
 3737SOL    HW213051   4.447   6.780  12.867
 3738SOL     OW13052   5.654   9.759  12.972
 3738SOL    HW113053   5.638   9.818  12.899
 3738SOL    HW213054   5.673   9.674  12.931
 3739SOL     OW13055   2.674  14.645  11.378
 3739SOL    HW113056   2.660  14.733  11.342
 3739SOL    HW213057   2.652  14.586  11.306
 3740SOL     OW13058   5.638  10.867  10.539
 3740SOL    HW113059   5.640  10.792  10.479
 3740SOL    HW213060   5.556  10.857  10.587
 3741SOL     OW13061  14.124  11.827   6.526
 3741SOL    HW113062  14.040  11.825   6.570
 3741SOL    HW213063  14.179  11.884   6.579
 3742SOL     OW13064   1.071  11.765  10.152
 3742SOL    HW113065   1.111  11.811  10.225
 3742SOL    HW213066   1.030  11.833  10.099
 3743SOL     OW13067  12.812   0.840  11.332
 3743SOL    HW113068  12.732   0.793  11.355
 3743SOL    HW213069  12.847   0.870  11.416
 3744SOL     OW13070   7.532  12.385   1.255
 3744SOL    HW113071   7.437  12.394   1.255
 3744SOL    HW213072   7.557  12.389   1.347
 3745SOL     OW13073   9.637   0.207  10.223
 3745SOL    HW113074   9.570   0.254  10.272
 3745SOL    HW213075   9.716   0.217  10.276
 3746SOL     OW13076   2.937   4.787   5.210
 3746SOL    HW113077   3.023   4.825   5.189
 3746SOL    HW213078   2.958   4.704   5.253
 3747SOL     OW13079   0.185   1.887   1.072
 3747SOL    HW113080   0.229   1.962   1.112
 3747SOL    HW213081   0.177   1.823   1.142
 3748SOL     OW13082  11.098   9.101  13.763
 3748SOL    HW113083  11.054   9.022  13.732
 3748SOL    HW213084  11.060   9.171  13.710
 3749SOL     OW13085  13.033   3.968   0.917
 3749SOL    HW113086  13.103   4.032   0.924
 3749SOL    HW213087  13.010   3.947   1.008
 3750SOL     OW13088  13.187  12.636   3.834
 3750SOL    HW113089  13.099  12.652   3.802
 3750SOL    HW213090  13.190  12.681   3.919
 3751SOL     OW13091  14.527   5.361   9.547
 3751SOL    HW113092  14.444   5.407   9.536
 3751SOL    HW213093  14.503   5.272   9.572
 3752SOL     OW13094   2.256   0.038   8.527
 3752SOL    HW113095   2.262   0.018   8.620
 3752SOL    HW213096   2.298   0.124   8.518
 3753SOL     OW13097   3.746  12.924  10.395
 3753SOL    HW113098   3.821  12.984  10.392
 3753SOL    HW213099   3.670  12.982  10.399
 3754SOL     OW13100   4.795   8.358   5.521
 3754SOL    HW113101   4.810   8.343   5.614
 3754SOL    HW213102   4.722   8.420   5.518
 3755SOL     OW13103  10.044   0.232   4.200
 3755SOL    HW113104  10.069   0.304   4.257
 3755SOL    HW213105  10.124   0.207   4.156
 3756SOL     OW13106   6.681   2.847   2.590
 3756SOL    HW113107   6.711   2.789   2.520
 3756SOL    HW213108   6.650   2.926   2.546
 3757SOL     OW13109   4.926   1.142   0.351
 3757SOL    HW113110   4.871   1.201   0.401
 3757SOL    HW213111   4.900   1.155   0.260
 3758SOL     OW13112  12.556   7.902   4.793
 3758SOL    HW113113  12.651   7.892   4.792
 3758SOL    HW213114  12.541   7.993   4.817
 3759SOL     OW13115   1.230   5.284   2.698
 3759SOL    HW113116   1.148   5.331   2.713
 3759SOL    HW213117   1.297   5.338   2.742
 3760SOL     OW13118   6.032   4.116   3.138
 3760SOL    HW113119   5.965   4.126   3.206
 3760SOL    HW213120   6.045   4.204   3.104
 3761SOL     OW13121  11.561   3.328   9.199
 3761SOL    HW113122  11.601   3.315   9.285
 3761SOL    HW213123  11.610   3.270   9.140
 3762SOL     OW13124   3.211   6.019  10.872
 3762SOL    HW113125   3.120   6.039  10.851
 3762SOL    HW213126   3.232   5.946  10.814
 3763SOL     OW13127   6.692   3.718  13.553
 3763SOL    HW113128   6.665   3.663  13.480
 3763SOL    HW213129   6.679   3.807  13.522
 3764SOL     OW13130   7.298   1.102   5.783
 3764SOL    HW113131   7.370   1.160   5.758
 3764SOL    HW213132   7.337   1.039   5.843
 3765SOL     OW13133  12.703   6.338   7.986
 3765SOL    HW113134  12.681   6.285   8.063
 3765SOL    HW213135  12.798   6.330   7.978
 3766SOL     OW13136  12.219  11.776   7.911
 3766SOL    HW113137  12.232  11.822   7.829
 3766SOL    HW213138  12.168  11.836   7.965
 3767SOL     OW13139  11.076   0.608  10.095
 3767SOL    HW113140  10.983   0.603  10.118
 3767SOL    HW213141  11.092   0.529  10.044
 3768SOL     OW13142  14.860   3.988   7.789
 3768SOL    HW113143  14.783   3.933   7.804
 3768SOL    HW213144  14.875   4.032   7.872
 3769SOL     OW13145   1.810   8.845   9.446
 3769SOL    HW113146   1.879   8.898   9.405
 3769SOL    HW213147   1.741   8.842   9.380
 3770SOL     OW13148  14.288  13.602  13.336
 3770SOL    HW113149  14.343  13.630  13.410
 3770SOL    HW213150  14.199  13.621  13.366
 3771SOL     OW13151   2.373   4.070   1.872
 3771SOL    HW113152   2.321   4.145   1.844
 3771SOL    HW213153   2.456   4.079   1.825
 3772SOL     OW13154   8.565   9.391   4.404
 3772SOL    HW113155   8.590   9.459   4.467
 3772SOL    HW213156   8.609   9.417   4.323
 3773SOL     OW13157  13.103   5.382  12.371
 3773SOL    HW113158  13.149   5.345  12.446
 3773SOL    HW213159  13.146   5.466  12.355
 3774SOL     OW13160   6.739  10.196   9.185
 3774SOL    HW113161   6.653  10.158   9.169
 3774SOL    HW213162   6.799  10.121   9.188
 3775SOL     OW13163   5.250   0.677  11.374
 3775SOL    HW113164   5.175   0.725  11.340
 3775SOL    HW213165   5.281   0.730  11.447
 3776SOL     OW13166   9.450   2.550   5.903
 3776SOL    HW113167   9.365   2.549   5.948
 3776SOL    HW213168   9.502   2.483   5.948
 3777SOL     OW13169  13.420   2.409   5.256
 3777SOL    HW113170  13.342   2.438   5.304
 3777SOL    HW213171  13.470   2.488   5.241
 3778SOL     OW13172   1.830   7.265   9.883
 3778SOL    HW113173   1.900   7.317   9.924
 3778SOL    HW213174   1.782   7.227   9.956
 3779SOL     OW13175   1.104   9.230  10.666
 3779SOL    HW113176   1.050   9.212  10.589
 3779SOL    HW213177   1.117   9.324  10.665
 3780SOL     OW13178   5.368  10.124   8.454
 3780SOL    HW113179   5.385  10.094   8.544
 3780SOL    HW213180   5.421  10.066   8.399
 3781SOL     OW13181  10.229   4.975   6.073
 3781SOL    HW113182  10.280   4.949   6.149
 3781SOL    HW213183  10.246   5.069   6.064
 3782SOL     OW13184   5.100  14.117  10.699
 3782SOL    HW113185   5.186  14.147  10.668
 3782SOL    HW213186   5.111  14.108  10.794
 3783SOL     OW13187   2.969  12.296   4.818
 3783SOL    HW113188   2.900  12.281   4.883
 3783SOL    HW213189   2.955  12.386   4.789
 3784SOL     OW13190  10.372   6.079   1.018
 3784SOL    HW113191  10.412   6.111   0.938
 3784SOL    HW213192  10.433   6.013   1.051
 3785SOL     OW13193   6.603   6.161   1.143
 3785SOL    HW113194   6.566   6.091   1.089
 3785SOL    HW213195   6.544   6.168   1.218
 3786SOL     OW13196   1.252  11.114  13.719
 3786SOL    HW113197   1.319  11.075  13.775
 3786SOL    HW213198   1.252  11.207  13.743
 3787SOL     OW13199   1.398   8.153   3.631
 3787SOL    HW113200   1.336   8.156   3.558
 3787SOL    HW213201   1.475   8.201   3.599
 3788SOL     OW13202   9.826   8.326  10.613
 3788SOL    HW113203   9.891   8.292  10.552
 3788SOL    HW213204   9.771   8.384  10.560
 3789SOL     OW13205   9.022   2.712   3.074
 3789SOL    HW113206   8.984   2.691   3.159
 3789SOL    HW213207   8.956   2.684   3.010
 3790SOL     OW13208   0.320   6.876   1.472
 3790SOL    HW113209   0.277   6.790   1.478
 3790SOL    HW213210   0.396   6.860   1.417
 3791SOL     OW13211  12.128  14.669   4.859
 3791SOL    HW113212  12.149  14.586   4.902
 3791SOL    HW213213  12.037  14.658   4.831
 3792SOL     OW13214  13.186  11.592   6.098
 3792SOL    HW113215  13.189  11.520   6.035
 3792SOL    HW213216  13.206  11.551   6.182
 3793SOL     OW13217  14.329   9.185  11.156
 3793SOL    HW113218  14.253   9.235  11.125
 3793SOL    HW213219  14.356   9.229  11.236
 3794SOL     OW13220   9.139  13.860   4.255
 3794SOL    HW113221   9.177  13.883   4.340
 3794SOL    HW213222   9.183  13.918   4.193
 3795SOL     OW13223  14.205   3.115   5.450
 3795SOL    HW113224  14.134   3.052   5.433
 3795SOL    HW213225  14.265   3.068   5.507
 3796SOL     OW13226  10.770  13.691   2.670
 3796SOL    HW113227  10.707  13.712   2.600
 3796SOL    HW213228  10.729  13.724   2.750
 3797SOL     OW13229   8.639   8.690  14.464
 3797SOL    HW113230   8.626   8.779  14.430
 3797SOL    HW213231   8.729   8.669  14.441
 3798SOL     OW13232   6.621   7.590   8.151
 3798SOL    HW113233   6.630   7.583   8.246
 3798SOL    HW213234   6.703   7.631   8.121
 3799SOL     OW13235  10.929   6.087   5.385
 3799SOL    HW113236  10.916   6.126   5.471
 3799SOL    HW213237  10.906   6.156   5.323
 3800SOL     OW13238  11.350   8.646   7.045
 3800SOL    HW113239  11.388   8.734   7.044
 3800SOL    HW213240  11.410   8.594   6.991
 3801SOL     OW13241   8.501   3.587   1.267
 3801SOL    HW113242   8.485   3.505   1.219
 3801SOL    HW213243   8.456   3.653   1.215
 3802SOL     OW13244   3.458   3.284  12.879
 3802SOL    HW113245   3.439   3.191  12.894
 3802SOL    HW213246   3.527   3.304  12.943
 3803SOL     OW13247   7.251   6.495  11.615
 3803SOL    HW113248   7.189   6.506  11.543
 3803SOL    HW213249   7.247   6.578  11.663
 3804SOL     OW13250  13.699   6.443   5.682
 3804SOL    HW113251  13.702   6.382   5.608
 3804SOL    HW213252  13.609   6.477   5.680
 3805SOL     OW13253   7.112   8.256   5.344
 3805SOL    HW113254   7.083   8.301   5.423
 3805SOL    HW213255   7.207   8.269   5.342
 3806SOL     OW13256   5.994   1.651   3.817
 3806SOL    HW113257   6.007   1.628   3.909
 3806SOL    HW213258   5.899   1.650   3.805
 3807SOL     OW13259   0.291   0.670  11.761
 3807SOL    HW113260   0.247   0.744  11.720
 3807SOL    HW213261   0.305   0.698  11.852
 3808SOL     OW13262   5.442   2.992   4.253
 3808SOL    HW113263   5.375   2.923   4.250
 3808SOL    HW213264   5.478   2.987   4.341
 3809SOL     OW13265   9.889  14.076  14.192
 3809SOL    HW113266   9.860  14.113  14.275
 3809SOL    HW213267   9.947  14.142  14.154
 3810SOL     OW13268   0.931   3.776  11.287
 3810SOL    HW113269   0.914   3.682  11.277
 3810SOL    HW213270   0.889   3.799  11.370
 3811SOL     OW13271   6.989   3.325   5.275
 3811SOL    HW113272   6.900   3.329   5.309
 3811SOL    HW213273   6.989   3.383   5.199
 3812SOL     OW13274   1.950   7.713  12.598
 3812SOL    HW113275   1.951   7.618  12.612
 3812SOL    HW213276   1.903   7.724  12.515
 3813SOL     OW13277   7.658   7.333  12.811
 3813SOL    HW113278   7.663   7.262  12.874
 3813SOL    HW213279   7.726   7.395  12.839
 3814SOL     OW13280  10.664   6.314   1.016
 3814SOL    HW113281  10.568   6.317   1.018
 3814SOL    HW213282  10.685   6.232   0.972
 3815SOL     OW13283  14.321   7.764   8.999
 3815SOL    HW113284  14.301   7.685   8.950
 3815SOL    HW213285  14.322   7.833   8.933
 3816SOL     OW13286   1.106   0.871   7.481
 3816SOL    HW113287   1.069   0.945   7.433
 3816SOL    HW213288   1.063   0.794   7.443
 3817SOL     OW13289   2.631   8.734   1.188
 3817SOL    HW113290   2.675   8.818   1.201
 3817SOL    HW213291   2.586   8.743   1.104
 3818SOL     OW13292  14.461   2.159  12.526
 3818SOL    HW113293  14.393   2.096  12.547
 3818SOL    HW213294  14.438   2.237  12.577
 3819SOL     OW13295  11.649   4.332  13.396
 3819SOL    HW113296  11.588   4.405  13.387
 3819SOL    HW213297  11.660   4.321  13.491
 3820SOL     OW13298   5.945  13.214  11.288
 3820SOL    HW113299   5.993  13.133  11.305
 3820SOL    HW213300   5.903  13.199  11.203
 3821SOL     OW13301   0.145   4.321  12.641
 3821SOL    HW113302   0.153   4.235  12.600
 3821SOL    HW213303   0.154   4.383  12.568
 3822SOL     OW13304   8.816   2.752   5.837
 3822SOL    HW113305   8.898   2.800   5.852
 3822SOL    HW213306   8.759   2.815   5.794
 3823SOL     OW13307   1.499   6.362   2.549
 3823SOL    HW113308   1.439   6.402   2.486
 3823SOL    HW213309   1.586   6.374   2.511
 3824SOL     OW13310   4.839   7.911  10.760
 3824SOL    HW113311   4.836   8.003  10.785
 3824SOL    HW213312   4.868   7.911  10.669
 3825SOL     OW13313   3.866  12.486  12.978
 3825SOL    HW113314   3.822  12.549  12.920
 3825SOL    HW213315   3.805  12.413  12.985
 3826SOL     OW13316  11.718   9.938  13.353
 3826SOL    HW113317  11.691   9.950  13.444
 3826SOL    HW213318  11.808   9.904  13.360
 3827SOL     OW13319  11.076  11.857  11.359
 3827SOL    HW113320  11.095  11.883  11.449
 3827SOL    HW213321  10.980  11.859  11.353
 3828SOL     OW13322   2.759   6.478   7.885
 3828SOL    HW113323   2.684   6.480   7.944
 3828SOL    HW213324   2.806   6.398   7.908
 3829SOL     OW13325   7.639   8.329   2.091
 3829SOL    HW113326   7.677   8.416   2.079
 3829SOL    HW213327   7.551   8.336   2.054
 3830SOL     OW13328  13.422  13.961   4.921
 3830SOL    HW113329  13.351  14.020   4.946
 3830SOL    HW213330  13.501  14.003   4.956
 3831SOL     OW13331   0.438   0.324   2.551
 3831SOL    HW113332   0.375   0.293   2.616
 3831SOL    HW213333   0.384   0.354   2.478
 3832SOL     OW13334  12.422   9.371   9.087
 3832SOL    HW113335  12.339   9.324   9.081
 3832SOL    HW213336  12.409   9.434   9.158
 3833SOL     OW13337   6.464   9.246   5.937
 3833SOL    HW113338   6.532   9.188   5.902
 3833SOL    HW213339   6.402   9.186   5.980
 3834SOL     OW13340  11.555  12.883   6.585
 3834SOL    HW113341  11.463  12.902   6.569
 3834SOL    HW213342  11.554  12.807   6.643
 3835SOL     OW13343  11.401   9.156   7.298
 3835SOL    HW113344  11.478   9.118   7.255
 3835SOL    HW213345  11.437   9.218   7.360
 3836SOL     OW13346   8.773  13.963   5.147
 3836SOL    HW113347   8.807  14.020   5.077
 3836SOL    HW213348   8.724  13.895   5.101
 3837SOL     OW13349  12.406   8.277   4.125
 3837SOL    HW113350  12.332   8.326   4.160
 3837SOL    HW213351  12.383   8.260   4.034
 3838SOL     OW13352  11.464   5.479   6.090
 3838SOL    HW113353  11.399   5.408   6.099
 3838SOL    HW213354  11.414   5.553   6.057
 3839SOL     OW13355   8.163   8.947   8.402
 3839SOL    HW113356   8.196   8.934   8.491
 3839SOL    HW213357   8.174   9.040   8.386
 3840SOL     OW13358   0.925   2.352   0.443
 3840SOL    HW113359   0.971   2.294   0.504
 3840SOL    HW213360   0.833   2.348   0.471
 3841SOL     OW13361  11.017   5.584  14.659
 3841SOL    HW113362  11.051   5.636  14.587
 3841SOL    HW213363  10.960   5.644  14.707
 3842SOL     OW13364  10.845   5.900  14.678
 3842SOL    HW113365  10.809   5.829  14.624
 3842SOL    HW213366  10.790   5.901  14.756
 3843SOL     OW13367  11.049   7.829   3.315
 3843SOL    HW113368  11.069   7.898   3.252
 3843SOL    HW213369  11.061   7.870   3.401
 3844SOL     OW13370   7.627   3.292   9.128
 3844SOL    HW113371   7.554   3.289   9.191
 3844SOL    HW213372   7.655   3.200   9.121
 3845SOL     OW13373  10.719   5.558   1.444
 3845SOL    HW113374  10.728   5.652   1.459
 3845SOL    HW213375  10.650   5.531   1.506
 3846SOL     OW13376   2.640   7.905   1.078
 3846SOL    HW113377   2.565   7.922   1.135
 3846SOL    HW213378   2.608   7.841   1.015
 3847SOL     OW13379   2.166   3.487  14.731
 3847SOL    HW113380   2.121   3.403  14.719
 3847SOL    HW213381   2.259   3.466  14.720
 3848SOL     OW13382   0.801  11.302   4.618
 3848SOL    HW113383   0.793  11.383   4.569
 3848SOL    HW213384   0.811  11.234   4.551
 3849SOL     OW13385   7.661  13.478   7.388
 3849SOL    HW113386   7.647  13.386   7.365
 3849SOL    HW213387   7.691  13.475   7.479
 3850SOL     OW13388   7.590  12.445   9.375
 3850SOL    HW113389   7.503  12.486   9.367
 3850SOL    HW213390   7.651  12.515   9.352
 3851SOL     OW13391   8.999   1.700  10.976
 3851SOL    HW113392   8.996   1.740  11.063
 3851SOL    HW213393   8.942   1.624  10.982
 3852SOL     OW13394   3.502   5.520   5.236
 3852SOL    HW113395   3.584   5.476   5.215
 3852SOL    HW213396   3.491   5.507   5.330
 3853SOL     OW13397  14.440  11.038   7.325
 3853SOL    HW113398  14.479  11.068   7.243
 3853SOL    HW213399  14.514  11.002   7.375
 3854SOL     OW13400  10.783  12.034   7.923
 3854SOL    HW113401  10.869  12.069   7.947
 3854SOL    HW213402  10.802  11.947   7.885
 3855SOL     OW13403  11.931   5.446   2.286
 3855SOL    HW113404  11.996   5.378   2.268
 3855SOL    HW213405  11.847   5.404   2.266
 3856SOL     OW13406   7.868   7.311   9.294
 3856SOL    HW113407   7.836   7.276   9.378
 3856SOL    HW213408   7.909   7.236   9.251
 3857SOL     OW13409   7.258   6.078   5.890
 3857SOL    HW113410   7.166   6.080   5.862
 3857SOL    HW213411   7.297   6.156   5.850
 3858SOL     OW13412   1.184   9.856   3.676
 3858SOL    HW113413   1.142   9.868   3.591
 3858SOL    HW213414   1.222   9.768   3.673
 3859SOL     OW13415   4.800   0.779  11.575
 3859SOL    HW113416   4.760   0.807  11.493
 3859SOL    HW213417   4.728   0.783  11.639
 3860SOL     OW13418  10.323  13.409   1.886
 3860SOL    HW113419  10.379  13.335   1.912
 3860SOL    HW213420  10.275  13.377   1.809
 3861SOL     OW13421   6.196   7.735  11.006
 3861SOL    HW113422   6.204   7.815  11.059
 3861SOL    HW213423   6.234   7.759  10.922
 3862SOL     OW13424   0.147  12.525   7.209
 3862SOL    HW113425   0.221  12.509   7.267
 3862SOL    HW213426   0.070  12.508   7.263
 3863SOL     OW13427  13.788  13.633   7.208
 3863SOL    HW113428  13.696  13.620   7.231
 3863SOL    HW213429  13.786  13.657   7.115
 3864SOL     OW13430   0.442   3.451   2.447
 3864SOL    HW113431   0.375   3.436   2.514
 3864SOL    HW213432   0.393   3.454   2.365
 3865SOL     OW13433  12.426  14.640   5.585
 3865SOL    HW113434  12.416  14.603   5.497
 3865SOL    HW213435  12.497  14.589   5.624
 3866SOL     OW13436   5.934  12.550   2.830
 3866SOL    HW113437   5.967  12.622   2.884
 3866SOL    HW213438   5.982  12.473   2.861
 3867SOL     OW13439   9.344   5.735   0.709
 3867SOL    HW113440   9.429   5.717   0.750
 3867SOL    HW213441   9.345   5.828   0.690
 3868SOL     OW13442   4.784  13.156  11.749
 3868SOL    HW113443   4.829  13.239  11.729
 3868SOL    HW213444   4.732  13.176  11.826
 3869SOL     OW13445   6.545  12.730  11.154
 3869SOL    HW113446   6.521  12.680  11.076
 3869SOL    HW213447   6.572  12.815  11.119
 3870SOL     OW13448  12.814   9.220   5.906
 3870SOL    HW113449  12.786   9.248   5.994
 3870SOL    HW213450  12.811   9.300   5.854
 3871SOL     OW13451  10.008  10.674   6.270
 3871SOL    HW113452  10.072  10.603   6.265
 3871SOL    HW213453   9.940  10.649   6.208
 3872SOL     OW13454   7.339   8.504   3.666
 3872SOL    HW113455   7.399   8.564   3.711
 3872SOL    HW213456   7.304   8.556   3.593
 3873SOL     OW13457   4.171  11.731  12.714
 3873SOL    HW113458   4.120  11.804  12.679
 3873SOL    HW213459   4.145  11.657  12.660
 3874SOL     OW13460   5.437  13.417  13.321
 3874SOL    HW113461   5.400  13.447  13.238
 3874SOL    HW213462   5.531  13.412  13.305
 3875SOL     OW13463  13.918  12.452   9.119
 3875SOL    HW113464  13.906  12.387   9.189
 3875SOL    HW213465  13.993  12.420   9.070
 3876SOL     OW13466   4.710   0.246   8.926
 3876SOL    HW113467   4.806   0.242   8.931
 3876SOL    HW213468   4.682   0.164   8.968
 3877SOL     OW13469  14.762  13.562   6.349
 3877SOL    HW113470  14.741  13.518   6.266
 3877SOL    HW213471  14.851  13.595   6.337
 3878SOL     OW13472  14.604  12.868  11.858
 3878SOL    HW113473  14.665  12.885  11.786
 3878SOL    HW213474  14.659  12.866  11.936
 3879SOL     OW13475   4.255   9.287   6.472
 3879SOL    HW113476   4.242   9.274   6.566
 3879SOL    HW213477   4.289   9.203   6.441
 3880SOL     OW13478   1.776  13.603  10.546
 3880SOL    HW113479   1.799  13.678  10.601
 3880SOL    HW213480   1.809  13.627  10.459
 3881SOL     OW13481  12.719  14.519   3.449
 3881SOL    HW113482  12.799  14.472   3.472
 3881SOL    HW213483  12.656  14.450   3.430
 3882SOL     OW13484   3.724   7.771  13.196
 3882SOL    HW113485   3.809   7.803  13.167
 3882SOL    HW213486   3.743   7.690  13.243
 3883SOL     OW13487  13.641  11.278  10.281
 3883SOL    HW113488  13.700  11.205  10.261
 3883SOL    HW213489  13.556  11.237  10.299
 3884SOL     OW13490   2.511  14.240  13.714
 3884SOL    HW113491   2.538  14.199  13.796
 3884SOL    HW213492   2.434  14.190  13.686
 3885SOL     OW13493  11.992   1.158   1.086
 3885SOL    HW113494  12.016   1.069   1.112
 3885SOL    HW213495  11.898   1.164   1.103
 3886SOL     OW13496  14.462   5.512  11.544
 3886SOL    HW113497  14.469   5.569  11.620
 3886SOL    HW213498  14.553   5.491  11.521
 3887SOL     OW13499   4.313  11.184   1.705
 3887SOL    HW113500   4.228  11.201   1.665
 3887SOL    HW213501   4.293  11.160   1.795
 3888SOL     OW13502   8.552  12.240  12.221
 3888SOL    HW113503   8.484  12.242  12.289
 3888SOL    HW213504   8.545  12.325  12.178
 3889SOL     OW13505  11.527  10.892  13.098
 3889SOL    HW113506  11.515  10.952  13.172
 3889SOL    HW213507  11.596  10.933  13.045
 3890SOL     OW13508   3.372   0.489   5.750
 3890SOL    HW113509   3.341   0.399   5.739
 3890SOL    HW213510   3.426   0.506   5.673
 3891SOL     OW13511   5.119  11.663   6.775
 3891SOL    HW113512   5.213  11.665   6.794
 3891SOL    HW213513   5.111  11.708   6.691
 3892SOL     OW13514  11.168   8.536   2.772
 3892SOL    HW113515  11.173   8.621   2.727
 3892SOL    HW213516  11.134   8.558   2.859
 3893SOL     OW13517   9.362   2.971   0.038
 3893SOL    HW113518   9.287   2.973   0.098
 3893SOL    HW213519   9.434   3.007   0.090
 3894SOL     OW13520   5.032   1.312   2.911
 3894SOL    HW113521   4.989   1.227   2.900
 3894SOL    HW213522   4.984   1.371   2.851
 3895SOL     OW13523  12.106  14.120   3.297
 3895SOL    HW113524  12.110  14.163   3.211
 3895SOL    HW213525  12.043  14.172   3.347
 3896SOL     OW13526   2.153   2.833  13.067
 3896SOL    HW113527   2.197   2.914  13.044
 3896SOL    HW213528   2.221   2.765  13.061
 3897SOL     OW13529   8.664   5.403   1.417
 3897SOL    HW113530   8.586   5.403   1.472
 3897SOL    HW213531   8.706   5.487   1.434
 3898SOL     OW13532  13.557   3.713  14.601
 3898SOL    HW113533  13.508   3.701  14.520
 3898SOL    HW213534  13.518   3.651  14.663
 3899SOL     OW13535   2.783  14.231   7.651
 3899SOL    HW113536   2.857  14.274   7.693
 3899SOL    HW213537   2.733  14.302   7.612
 3900SOL     OW13538   0.873   4.205   2.168
 3900SOL    HW113539   0.879   4.123   2.218
 3900SOL    HW213540   0.779   4.221   2.161
 3901SOL     OW13541  10.376   3.579   8.767
 3901SOL    HW113542  10.353   3.511   8.831
 3901SOL    HW213543  10.469   3.563   8.749
 3902SOL     OW13544   0.489   2.795   9.804
 3902SOL    HW113545   0.563   2.846   9.771
 3902SOL    HW213546   0.517   2.704   9.795
 3903SOL     OW13547   2.048   2.447   6.517
 3903SOL    HW113548   1.978   2.509   6.539
 3903SOL    HW213549   2.116   2.501   6.477
 3904SOL     OW13550   8.578   7.262  10.005
 3904SOL    HW113551   8.627   7.239   9.926
 3904SOL    HW213552   8.591   7.188  10.064
 3905SOL     OW13553   4.775  12.852  12.423
 3905SOL    HW113554   4.851  12.862  12.481
 3905SOL    HW213555   4.740  12.941  12.413
 3906SOL     OW13556   5.574   9.796   7.478
 3906SOL    HW113557   5.487   9.809   7.516
 3906SOL    HW213558   5.571   9.709   7.439
 3907SOL     OW13559   3.882   1.905   7.821
 3907SOL    HW113560   3.890   1.845   7.748
 3907SOL    HW213561   3.799   1.951   7.806
 3908SOL     OW13562   7.115   9.266   7.665
 3908SOL    HW113563   7.071   9.182   7.683
 3908SOL    HW213564   7.208   9.245   7.671
 3909SOL     OW13565  11.343  11.903  11.555
 3909SOL    HW113566  11.270  11.897  11.617
 3909SOL    HW213567  11.341  11.994  11.525
 3910SOL     OW13568   8.089  12.312   1.559
 3910SOL    HW113569   8.075  12.331   1.652
 3910SOL    HW213570   8.085  12.397   1.516
 3911SOL     OW13571   2.725   4.888  11.008
 3911SOL    HW113572   2.731   4.801  10.968
 3911SOL    HW213573   2.794   4.939  10.964
 3912SOL     OW13574  13.604  11.246   9.825
 3912SOL    HW113575  13.638  11.201   9.903
 3912SOL    HW213576  13.556  11.321   9.861
 3913SOL     OW13577   3.050   0.738  10.252
 3913SOL    HW113578   2.969   0.696  10.279
 3913SOL    HW213579   3.024   0.795  10.179
 3914SOL     OW13580   6.482  12.498  12.612
 3914SOL    HW113581   6.529  12.436  12.667
 3914SOL    HW213582   6.533  12.503  12.532
 3915SOL     OW13583   8.850   2.147  10.624
 3915SOL    HW113584   8.841   2.196  10.543
 3915SOL    HW213585   8.772   2.092  10.628
 3916SOL     OW13586   9.576  10.838   4.188
 3916SOL    HW113587   9.668  10.817   4.203
 3916SOL    HW213588   9.558  10.806   4.100
 3917SOL     OW13589   0.267  13.159   8.832
 3917SOL    HW113590   0.293  13.096   8.764
 3917SOL    HW213591   0.313  13.239   8.809
 3918SOL     OW13592   8.492   8.829   0.251
 3918SOL    HW113593   8.547   8.893   0.297
 3918SOL    HW213594   8.421   8.880   0.215
 3919SOL     OW13595   2.829  10.906  13.849
 3919SOL    HW113596   2.880  10.987  13.840
 3919SOL    HW213597   2.871  10.844  13.790
 3920SOL     OW13598   4.631  11.622   2.455
 3920SOL    HW113599   4.714  11.631   2.408
 3920SOL    HW213600   4.568  11.598   2.387
 3921SOL     OW13601   3.438   7.339  10.792
 3921SOL    HW113602   3.449   7.259  10.843
 3921SOL    HW213603   3.469   7.317  10.705
 3922SOL     OW13604  14.699   0.274   5.160
 3922SOL    HW113605  14.782   0.313   5.131
 3922SOL    HW213606  14.699   0.186   5.123
 3923SOL     OW13607  11.398  11.821  12.713
 3923SOL    HW113608  11.368  11.761  12.782
 3923SOL    HW213609  11.390  11.770  12.632
 3924SOL     OW13610   4.220   5.755  14.345
 3924SOL    HW113611   4.289   5.793  14.291
 3924SOL    HW213612   4.265   5.693  14.403
 3925SOL     OW13613  10.741   6.163  14.665
 3925SOL    HW113614  10.787   6.119  14.736
 3925SOL    HW213615  10.801   6.232  14.637
 3926SOL     OW13616   8.350  12.555   4.992
 3926SOL    HW113617   8.424  12.553   4.932
 3926SOL    HW213618   8.310  12.468   4.985
 3927SOL     OW13619   1.572  12.957  11.319
 3927SOL    HW113620   1.639  12.913  11.267
 3927SOL    HW213621   1.504  12.892  11.332
 3928SOL     OW13622   1.986   9.414  11.433
 3928SOL    HW113623   1.971   9.411  11.528
 3928SOL    HW213624   1.907   9.375  11.395
 3929SOL     OW13625   3.717   1.191  13.416
 3929SOL    HW113626   3.801   1.186  13.370
 3929SOL    HW213627   3.717   1.278  13.455
 3930SOL     OW13628   6.555  10.442  14.461
 3930SOL    HW113629   6.600  10.476  14.538
 3930SOL    HW213630   6.484  10.388  14.497
 3931SOL     OW13631   3.794   9.025   8.163
 3931SOL    HW113632   3.871   9.014   8.219
 3931SOL    HW213633   3.725   9.056   8.223
 3932SOL     OW13634  14.697   5.763  13.054
 3932SOL    HW113635  14.712   5.693  13.118
 3932SOL    HW213636  14.785   5.782  13.020
 3933SOL     OW13637   2.597   5.201   2.118
 3933SOL    HW113638   2.650   5.237   2.047
 3933SOL    HW213639   2.509   5.192   2.080
 3934SOL     OW13640   9.765   6.918  11.116
 3934SOL    HW113641   9.777   6.844  11.057
 3934SOL    HW213642   9.689   6.964  11.083
 3935SOL     OW13643   4.779   0.100   4.550
 3935SOL    HW113644   4.703   0.145   4.514
 3935SOL    HW213645   4.743   0.029   4.603
 3936SOL     OW13646   1.441   4.093   5.236
 3936SOL    HW113647   1.362   4.067   5.282
 3936SOL    HW213648   1.493   4.140   5.302
 3937SOL     OW13649  12.047   2.795   0.027
 3937SOL    HW113650  12.142   2.794   0.012
 3937SOL    HW213651  12.012   2.732  14.841
 3938SOL     OW13652   6.879   5.111  11.001
 3938SOL    HW113653   6.885   5.028  11.049
 3938SOL    HW213654   6.852   5.084  10.913
 3939SOL     OW13655   4.183  12.868   7.443
 3939SOL    HW113656   4.154  12.945   7.394
 3939SOL    HW213657   4.194  12.800   7.377
 3940SOL     OW13658   8.423   7.443   4.221
 3940SOL    HW113659   8.424   7.358   4.176
 3940SOL    HW213660   8.455   7.423   4.309
 3941SOL     OW13661   3.860   4.002   3.339
 3941SOL    HW113662   3.824   3.913   3.348
 3941SOL    HW213663   3.810   4.054   3.401
 3942SOL     OW13664  12.435   0.823   1.700
 3942SOL    HW113665  12.479   0.908   1.707
 3942SOL    HW213666  12.497   0.767   1.653
 3943SOL     OW13667  14.213   6.137   1.362
 3943SOL    HW113668  14.258   6.213   1.326
 3943SOL    HW213669  14.264   6.112   1.439
 3944SOL     OW13670   8.296   7.772  12.968
 3944SOL    HW113671   8.297   7.808  12.879
 3944SOL    HW213672   8.382   7.794  13.004
 3945SOL     OW13673   0.036   0.986  13.364
 3945SOL    HW113674   0.001   0.934  13.437
 3945SOL    HW213675   0.100   1.044  13.405
 3946SOL     OW13676   9.069  14.340   4.512
 3946SOL    HW113677   9.012  14.413   4.490
 3946SOL    HW213678   9.032  14.265   4.465
 3947SOL     OW13679   7.858   4.437   8.522
 3947SOL    HW113680   7.813   4.438   8.437
 3947SOL    HW213681   7.912   4.358   8.520
 3948SOL     OW13682   8.895   5.843   4.452
 3948SOL    HW113683   8.944   5.777   4.403
 3948SOL    HW213684   8.834   5.879   4.387
 3949SOL     OW13685   5.541   5.293   4.634
 3949SOL    HW113686   5.527   5.224   4.569
 3949SOL    HW213687   5.586   5.363   4.586
 3950SOL     OW13688   3.606   0.641  10.233
 3950SOL    HW113689   3.548   0.571  10.202
 3950SOL    HW213690   3.598   0.710  10.167
 3951SOL     OW13691  11.872  13.935  10.751
 3951SOL    HW113692  11.779  13.949  10.733
 3951SOL    HW213693  11.917  13.994  10.691
 3952SOL     OW13694  12.783  13.438   4.125
 3952SOL    HW113695  12.752  13.526   4.150
 3952SOL    HW213696  12.833  13.452   4.045
 3953SOL     OW13697   9.055  11.272   8.610
 3953SOL    HW113698   9.111  11.258   8.687
 3953SOL    HW213699   9.116  11.273   8.536
 3954SOL     OW13700   0.864  11.647  11.670
 3954SOL    HW113701   0.884  11.614  11.583
 3954SOL    HW213702   0.769  11.648  11.674
 3955SOL     OW13703   5.582   5.294   0.483
 3955SOL    HW113704   5.550   5.241   0.556
 3955SOL    HW213705   5.577   5.236   0.407
 3956SOL     OW13706   5.747  14.831   3.710
 3956SOL    HW113707   5.689   0.030   3.723
 3956SOL    HW213708   5.810  14.861   3.643
 3957SOL     OW13709   7.007   4.379   8.001
 3957SOL    HW113710   6.966   4.293   7.996
 3957SOL    HW213711   7.080   4.368   8.062
 3958SOL     OW13712   7.710  12.865  11.363
 3958SOL    HW113713   7.727  12.955  11.392
 3958SOL    HW213714   7.622  12.846  11.397
 3959SOL     OW13715   0.664   3.482   9.140
 3959SOL    HW113716   0.612   3.413   9.099
 3959SOL    HW213717   0.647   3.559   9.086
 3960SOL     OW13718  11.773  13.340   7.877
 3960SOL    HW113719  11.832  13.414   7.890
 3960SOL    HW213720  11.810  13.292   7.804
 3961SOL     OW13721   8.420  13.359  12.000
 3961SOL    HW113722   8.337  13.339  11.958
 3961SOL    HW213723   8.486  13.316  11.945
 3962SOL     OW13724   0.907   8.226  14.848
 3962SOL    HW113725   0.856   8.300   0.003
 3962SOL    HW213726   0.843   8.156  14.836
 3963SOL     OW13727   0.023   8.217   4.555
 3963SOL    HW113728  14.871   8.164   4.630
 3963SOL    HW213729   0.068   8.292   4.595
 3964SOL     OW13730  10.308  12.420   5.833
 3964SOL    HW113731  10.229  12.366   5.837
 3964SOL    HW213732  10.373  12.370   5.882
 3965SOL     OW13733  12.499   0.314   8.205
 3965SOL    HW113734  12.524   0.391   8.153
 3965SOL    HW213735  12.535   0.240   8.157
 3966SOL     OW13736   6.763  11.612   5.331
 3966SOL    HW113737   6.716  11.530   5.321
 3966SOL    HW213738   6.696  11.674   5.361
 3967SOL     OW13739   2.713  11.787  14.722
 3967SOL    HW113740   2.635  11.799  14.667
 3967SOL    HW213741   2.689  11.823  14.807
 3968SOL     OW13742   6.576  12.964   8.898
 3968SOL    HW113743   6.538  13.044   8.934
 3968SOL    HW213744   6.661  12.956   8.942
 3969SOL     OW13745   7.565   2.398   1.793
 3969SOL    HW113746   7.637   2.417   1.853
 3969SOL    HW213747   7.605   2.347   1.723
 3970SOL     OW13748   3.577  13.514   6.681
 3970SOL    HW113749   3.664  13.506   6.720
 3970SOL    HW213750   3.544  13.599   6.711
 3971SOL     OW13751   6.187   4.634   9.943
 3971SOL    HW113752   6.154   4.619  10.032
 3971SOL    HW213753   6.276   4.667   9.956
 3972SOL     OW13754   4.920  12.641   6.819
 3972SOL    HW113755   4.949  12.618   6.907
 3972SOL    HW213756   4.847  12.581   6.801
 3973SOL     OW13757   5.431  11.708  13.344
 3973SOL    HW113758   5.376  11.776  13.383
 3973SOL    HW213759   5.520  11.741  13.353
 3974SOL     OW13760   5.528   7.677  10.310
 3974SOL    HW113761   5.457   7.663  10.248
 3974SOL    HW213762   5.538   7.772  10.313
 3975SOL     OW13763  10.057  12.170  13.380
 3975SOL    HW113764  10.043  12.091  13.432
 3975SOL    HW213765   9.980  12.177  13.323
 3976SOL     OW13766   0.086   7.365   1.206
 3976SOL    HW113767   0.063   7.457   1.194
 3976SOL    HW213768   0.159   7.350   1.146
 3977SOL     OW13769  13.381  12.415   1.871
 3977SOL    HW113770  13.421  12.369   1.946
 3977SOL    HW213771  13.452  12.425   1.808
 3978SOL     OW13772   1.347   9.842   5.580
 3978SOL    HW113773   1.360   9.899   5.504
 3978SOL    HW213774   1.258   9.808   5.569
 3979SOL     OW13775   7.596   8.176  10.687
 3979SOL    HW113776   7.502   8.175  10.704
 3979SOL    HW213777   7.617   8.269  10.677
 3980SOL     OW13778  13.990  13.442   9.726
 3980SOL    HW113779  13.944  13.432   9.810
 3980SOL    HW213780  14.042  13.363   9.717
 3981SOL     OW13781  12.440  10.342  12.484
 3981SOL    HW113782  12.387  10.376  12.412
 3981SOL    HW213783  12.463  10.419  12.536
 3982SOL     OW13784  12.744   9.231   3.775
 3982SOL    HW113785  12.789   9.310   3.804
 3982SOL    HW213786  12.700   9.257   3.694
 3983SOL     OW13787   7.895  14.697   6.028
 3983SOL    HW113788   7.814  14.648   6.043
 3983SOL    HW213789   7.954  14.634   5.987
 3984SOL     OW13790   4.921  13.171   9.375
 3984SOL    HW113791   5.013  13.161   9.349
 3984SOL    HW213792   4.918  13.141   9.466
 3985SOL     OW13793   7.397   7.160   9.234
 3985SOL    HW113794   7.434   7.157   9.146
 3985SOL    HW213795   7.331   7.230   9.230
 3986SOL     OW13796  10.929   6.176  10.062
 3986SOL    HW113797  10.848   6.193  10.014
 3986SOL    HW213798  10.946   6.083  10.050
 3987SOL     OW13799  12.755   4.958   0.302
 3987SOL    HW113800  12.778   5.048   0.326
 3987SOL    HW213801  12.689   4.933   0.367
 3988SOL     OW13802   8.931   6.491   8.020
 3988SOL    HW113803   8.943   6.544   8.099
 3988SOL    HW213804   8.919   6.402   8.053
 3989SOL     OW13805   0.773   1.857  13.440
 3989SOL    HW113806   0.849   1.799  13.444
 3989SOL    HW213807   0.809   1.945  13.441
 3990SOL     OW13808  12.976   4.565   8.822
 3990SOL    HW113809  12.952   4.604   8.738
 3990SOL    HW213810  12.971   4.471   8.807
 3991SOL     OW13811  14.847   8.840   9.306
 3991SOL    HW113812   0.015   8.921   9.278
 3991SOL    HW213813   0.021   8.811   9.382
 3992SOL     OW13814   3.603  10.316   2.764
 3992SOL    HW113815   3.572  10.282   2.680
 3992SOL    HW213816   3.563  10.404   2.770
 3993SOL     OW13817  14.533   4.577  14.371
 3993SOL    HW113818  14.560   4.486  14.358
 3993SOL    HW213819  14.604   4.628  14.332
 3994SOL     OW13820   3.288   1.965   6.660
 3994SOL    HW113821   3.356   1.987   6.724
 3994SOL    HW213822   3.291   2.037   6.597
 3995SOL     OW13823   4.816   6.130  11.657
 3995SOL    HW113824   4.729   6.108  11.623
 3995SOL    HW213825   4.844   6.205  11.604
 3996SOL     OW13826   8.688   1.238   5.710
 3996SOL    HW113827   8.748   1.214   5.640
 3996SOL    HW213828   8.638   1.159   5.728
 3997SOL     OW13829  13.426   8.525  11.654
 3997SOL    HW113830  13.463   8.448  11.698
 3997SOL    HW213831  13.502   8.580  11.635
 3998SOL     OW13832   8.082  11.100   7.359
 3998SOL    HW113833   8.048  11.076   7.445
 3998SOL    HW213834   8.064  11.023   7.304
 3999SOL     OW13835   4.370  11.873  10.210
 3999SOL    HW113836   4.327  11.899  10.128
 3999SOL    HW213837   4.388  11.779  10.199
 4000SOL     OW13838   2.507   5.640   5.588
 4000SOL    HW113839   2.438   5.694   5.627
 4000SOL    HW213840   2.588   5.687   5.607
 4001SOL     OW13841   1.365   1.144  12.428
 4001SOL    HW113842   1.280   1.173  12.394
 4001SOL    HW213843   1.356   1.049  12.436
 4002SOL     OW13844   9.592   9.984  12.359
 4002SOL    HW113845   9.536   9.916  12.395
 4002SOL    HW213846   9.554  10.004  12.273
 4003SOL     OW13847   2.060   5.011  11.842
 4003SOL    HW113848   2.107   5.091  11.816
 4003SOL    HW213849   2.063   4.955  11.764
 4004SOL     OW13850   3.594   2.829  13.383
 4004SOL    HW113851   3.506   2.866  13.380
 4004SOL    HW213852   3.646   2.886  13.326
 4005SOL     OW13853   8.021   1.043   2.346
 4005SOL    HW113854   8.052   1.018   2.434
 4005SOL    HW213855   8.086   1.106   2.315
 4006SOL     OW13856   8.985   5.273  11.424
 4006SOL    HW113857   9.033   5.192  11.439
 4006SOL    HW213858   8.961   5.304  11.512
 4007SOL     OW13859   9.412   0.599  10.737
 4007SOL    HW113860   9.392   0.575  10.828
 4007SOL    HW213861   9.414   0.694  10.737
 4008SOL     OW13862  10.822  14.005  12.299
 4008SOL    HW113863  10.802  14.098  12.299
 4008SOL    HW213864  10.772  13.969  12.372
 4009SOL     OW13865   8.352   2.529   4.394
 4009SOL    HW113866   8.318   2.455   4.343
 4009SOL    HW213867   8.302   2.604   4.363
 4010SOL     OW13868   1.942   9.814   9.795
 4010SOL    HW113869   1.859   9.802   9.748
 4010SOL    HW213870   2.009   9.792   9.730
 4011SOL     OW13871   9.413   9.525   3.166
 4011SOL    HW113872   9.453   9.560   3.246
 4011SOL    HW213873   9.410   9.431   3.180
 4012SOL     OW13874   4.656  13.399   6.270
 4012SOL    HW113875   4.636  13.311   6.302
 4012SOL    HW213876   4.581  13.452   6.299
 4013SOL     OW13877   7.404   7.905   1.376
 4013SOL    HW113878   7.459   7.827   1.376
 4013SOL    HW213879   7.357   7.901   1.292
 4014SOL     OW13880  11.243   3.811   2.825
 4014SOL    HW113881  11.221   3.795   2.917
 4014SOL    HW213882  11.331   3.847   2.827
 4015SOL     OW13883   5.338  13.124  14.598
 4015SOL    HW113884   5.361  13.191  14.534
 4015SOL    HW213885   5.346  13.041  14.551
 4016SOL     OW13886  10.780   7.458  11.749
 4016SOL    HW113887  10.692   7.448  11.785
 4016SOL    HW213888  10.804   7.370  11.719
 4017SOL     OW13889   2.350  10.903  13.264
 4017SOL    HW113890   2.412  10.928  13.333
 4017SOL    HW213891   2.381  10.818  13.234
 4018SOL     OW13892   1.877   6.407   4.452
 4018SOL    HW113893   1.925   6.376   4.375
 4018SOL    HW213894   1.900   6.344   4.521
 4019SOL     OW13895  13.632   0.351   3.509
 4019SOL    HW113896  13.544   0.337   3.545
 4019SOL    HW213897  13.683   0.382   3.583
 4020SOL     OW13898  13.969   1.952   8.745
 4020SOL    HW113899  13.914   2.001   8.685
 4020SOL    HW213900  14.003   1.879   8.693
 4021SOL     OW13901   9.019  12.623  12.316
 4021SOL    HW113902   9.055  12.702  12.356
 4021SOL    HW213903   9.089  12.558  12.322
 4022SOL     OW13904   6.946   6.487  14.094
 4022SOL    HW113905   6.972   6.574  14.122
 4022SOL    HW213906   6.987   6.427  14.156
 4023SOL     OW13907   7.017   5.204   9.994
 4023SOL    HW113908   7.061   5.188  10.077
 4023SOL    HW213909   7.072   5.162   9.929
 4024SOL     OW13910  13.967  12.622   7.250
 4024SOL    HW113911  13.892  12.642   7.306
 4024SOL    HW213912  14.035  12.594   7.311
 4025SOL     OW13913  12.527  13.825  11.881
 4025SOL    HW113914  12.515  13.856  11.970
 4025SOL    HW213915  12.619  13.844  11.861
 4026SOL     OW13916  11.317  11.319   8.768
 4026SOL    HW113917  11.389  11.313   8.705
 4026SOL    HW213918  11.336  11.397   8.819
 4027SOL     OW13919   9.552   5.508   8.478
 4027SOL    HW113920   9.575   5.578   8.416
 4027SOL    HW213921   9.501   5.552   8.546
 4028SOL     OW13922   5.633   6.941   0.340
 4028SOL    HW113923   5.690   7.010   0.304
 4028SOL    HW213924   5.614   6.884   0.266
 4029SOL     OW13925   1.220   7.795  12.923
 4029SOL    HW113926   1.295   7.811  12.865
 4029SOL    HW213927   1.219   7.871  12.982
 4030SOL     OW13928  12.121  10.881   3.162
 4030SOL    HW113929  12.100  10.888   3.255
 4030SOL    HW213930  12.216  10.898   3.158
 4031SOL     OW13931   6.781  10.975   8.013
 4031SOL    HW113932   6.846  11.003   7.948
 4031SOL    HW213933   6.751  11.056   8.054
 4032SOL     OW13934   2.147   8.794   8.248
 4032SOL    HW113935   2.179   8.746   8.324
 4032SOL    HW213936   2.225   8.812   8.196
 4033SOL     OW13937   3.793   3.643   6.301
 4033SOL    HW113938   3.819   3.704   6.370
 4033SOL    HW213939   3.751   3.699   6.235
 4034SOL     OW13940   6.962  12.582   3.288
 4034SOL    HW113941   6.977  12.597   3.381
 4034SOL    HW213942   7.001  12.658   3.245
 4035SOL     OW13943  12.073  12.957   1.951
 4035SOL    HW113944  12.087  12.939   1.858
 4035SOL    HW213945  12.041  12.874   1.986
 4036SOL     OW13946   5.901  12.949   1.199
 4036SOL    HW113947   5.857  12.865   1.188
 4036SOL    HW213948   5.960  12.955   1.124
 4037SOL     OW13949   3.512  13.545   1.247
 4037SOL    HW113950   3.569  13.553   1.170
 4037SOL    HW213951   3.480  13.455   1.244
 4038SOL     OW13952   3.278  11.345  11.164
 4038SOL    HW113953   3.240  11.421  11.120
 4038SOL    HW213954   3.338  11.307  11.099
 4039SOL     OW13955   9.005   8.244   0.278
 4039SOL    HW113956   8.979   8.336   0.280
 4039SOL    HW213957   9.086   8.243   0.227
 4040SOL     OW13958   6.853   2.278  10.493
 4040SOL    HW113959   6.780   2.307  10.439
 4040SOL    HW213960   6.820   2.199  10.536
 4041SOL     OW13961   2.946   9.569  10.783
 4041SOL    HW113962   2.998   9.568  10.863
 4041SOL    HW213963   2.977   9.492  10.734
 4042SOL     OW13964   5.338   8.184   3.152
 4042SOL    HW113965   5.321   8.105   3.203
 4042SOL    HW213966   5.365   8.249   3.218
 4043SOL     OW13967  11.474   1.543   3.895
 4043SOL    HW113968  11.550   1.501   3.855
 4043SOL    HW213969  11.405   1.534   3.830
 4044SOL     OW13970   1.221   9.406   5.918
 4044SOL    HW113971   1.231   9.341   5.987
 4044SOL    HW213972   1.228   9.356   5.836
 4045SOL     OW13973   4.508  10.844  12.761
 4045SOL    HW113974   4.596  10.837  12.798
 4045SOL    HW213975   4.462  10.767  12.794
 4046SOL     OW13976   0.734   5.530  11.060
 4046SOL    HW113977   0.706   5.540  11.151
 4046SOL    HW213978   0.817   5.482  11.066
 4047SOL     OW13979   8.569   7.816   6.646
 4047SOL    HW113980   8.547   7.832   6.555
 4047SOL    HW213981   8.499   7.760   6.679
 4048SOL     OW13982   4.114   0.029   2.046
 4048SOL    HW113983   4.094  14.842   1.977
 4048SOL    HW213984   4.109  14.855   2.127
 4049SOL     OW13985   2.705  14.652   2.557
 4049SOL    HW113986   2.742  14.737   2.530
 4049SOL    HW213987   2.693  14.604   2.476
 4050SOL     OW13988   7.875   3.298  14.037
 4050SOL    HW113989   7.782   3.303  14.060
 4050SOL    HW213990   7.887   3.365  13.969
 4051SOL     OW13991   5.935  10.741   5.358
 4051SOL    HW113992   5.953  10.647   5.370
 4051SOL    HW213993   6.017  10.785   5.378
 4052SOL     OW13994   4.245   1.487   1.747
 4052SOL    HW113995   4.334   1.509   1.720
 4052SOL    HW213996   4.254   1.407   1.799
 4053SOL     OW13997   3.193  10.462  12.809
 4053SOL    HW113998   3.251  10.453  12.733
 4053SOL    HW213999   3.182  10.372  12.841
 4054SOL     OW14000   3.301  13.941  11.480
 4054SOL    HW114001   3.341  13.927  11.566
 4054SOL    HW214002   3.215  13.977  11.499
 4055SOL     OW14003   9.912   0.981  12.797
 4055SOL    HW114004   9.882   1.016  12.713
 4055SOL    HW214005   9.984   1.039  12.822
 4056SOL     OW14006   2.946   1.916   3.218
 4056SOL    HW114007   3.019   1.979   3.220
 4056SOL    HW214008   2.868   1.970   3.212
 4057SOL     OW14009  11.381   2.951   8.114
 4057SOL    HW114010  11.407   2.976   8.025
 4057SOL    HW214011  11.384   2.855   8.114
 4058SOL     OW14012  13.779   6.958  12.298
 4058SOL    HW114013  13.728   7.009  12.234
 4058SOL    HW214014  13.726   6.880  12.314
 4059SOL     OW14015   0.792  12.038   3.949
 4059SOL    HW114016   0.843  11.997   3.879
 4059SOL    HW214017   0.791  12.131   3.927
 4060SOL     OW14018   9.198   6.875   8.150
 4060SOL    HW114019   9.199   6.877   8.055
 4060SOL    HW214020   9.113   6.911   8.175
 4061SOL     OW14021   3.221   1.295   9.853
 4061SOL    HW114022   3.194   1.204   9.852
 4061SOL    HW214023   3.273   1.306   9.773
 4062SOL     OW14024   9.525   2.437  11.707
 4062SOL    HW114025   9.541   2.521  11.751
 4062SOL    HW214026   9.544   2.455  11.615
 4063SOL     OW14027  14.170   5.515   3.376
 4063SOL    HW114028  14.229   5.585   3.347
 4063SOL    HW214029  14.087   5.560   3.391
 4064SOL     OW14030   8.905   8.532   0.935
 4064SOL    HW114031   8.979   8.538   0.995
 4064SOL    HW214032   8.938   8.483   0.860
 4065SOL     OW14033   4.356   2.209  14.766
 4065SOL    HW114034   4.342   2.198  14.672
 4065SOL    HW214035   4.404   2.130  14.792
 4066SOL     OW14036   4.909  12.626   0.464
 4066SOL    HW114037   4.922  12.546   0.515
 4066SOL    HW214038   4.995  12.667   0.460
 4067SOL     OW14039   9.850  13.323   9.732
 4067SOL    HW114040   9.903  13.382   9.679
 4067SOL    HW214041   9.913  13.264   9.773
 4068SOL     OW14042   8.665   6.791  12.980
 4068SOL    HW114043   8.707   6.759  13.060
 4068SOL    HW214044   8.696   6.734  12.911
 4069SOL     OW14045   4.098   9.849   6.390
 4069SOL    HW114046   4.185   9.884   6.372
 4069SOL    HW214047   4.070   9.895   6.470
 4070SOL     OW14048   5.284  13.573   3.831
 4070SOL    HW114049   5.254  13.647   3.883
 4070SOL    HW214050   5.259  13.496   3.882
 4071SOL     OW14051   7.909  13.036   1.672
 4071SOL    HW114052   7.839  13.099   1.688
 4071SOL    HW214053   7.865  12.951   1.675
 4072SOL     OW14054   3.459   2.684   1.585
 4072SOL    HW114055   3.538   2.634   1.603
 4072SOL    HW214056   3.464   2.759   1.644
 4073SOL     OW14057   0.901   4.786   9.562
 4073SOL    HW114058   0.989   4.790   9.599
 4073SOL    HW214059   0.844   4.778   9.638
 4074SOL     OW14060   1.972   5.301   6.057
 4074SOL    HW114061   1.966   5.371   6.122
 4074SOL    HW214062   2.027   5.337   5.988
 4075SOL     OW14063  12.866   2.353   0.216
 4075SOL    HW114064  12.838   2.346   0.125
 4075SOL    HW214065  12.807   2.418   0.255
 4076SOL     OW14066  11.210   3.535   1.538
 4076SOL    HW114067  11.219   3.444   1.510
 4076SOL    HW214068  11.255   3.538   1.622
 4077SOL     OW14069  10.838   1.712   8.893
 4077SOL    HW114070  10.765   1.708   8.832
 4077SOL    HW214071  10.798   1.707   8.980
 4078SOL     OW14072   4.302   0.858  14.831
 4078SOL    HW114073   4.232   0.827   0.012
 4078SOL    HW214074   4.352   0.919   0.007
 4079SOL     OW14075   8.351  14.808   6.480
 4079SOL    HW114076   8.431  14.782   6.434
 4079SOL    HW214077   8.280  14.775   6.425
 4080SOL     OW14078  14.687   6.985   0.380
 4080SOL    HW114079  14.750   6.984   0.307
 4080SOL    HW214080  14.685   7.077   0.408
 4081SOL     OW14081   8.741   5.151   9.480
 4081SOL    HW114082   8.695   5.158   9.564
 4081SOL    HW214083   8.677   5.184   9.416
 4082SOL     OW14084   5.474   4.292   5.525
 4082SOL    HW114085   5.437   4.285   5.437
 4082SOL    HW214086   5.567   4.312   5.510
 4083SOL     OW14087   8.994   8.055   6.005
 4083SOL    HW114088   9.067   8.113   6.025
 4083SOL    HW214089   8.940   8.105   5.945
 4084SOL     OW14090   1.672   1.909   3.890
 4084SOL    HW114091   1.661   1.996   3.852
 4084SOL    HW214092   1.680   1.851   3.814
 4085SOL     OW14093   2.197   1.607   8.931
 4085SOL    HW114094   2.115   1.571   8.965
 4085SOL    HW214095   2.232   1.660   9.003
 4086SOL     OW14096   2.092  12.539   7.634
 4086SOL    HW114097   2.076  12.535   7.729
 4086SOL    HW214098   2.065  12.453   7.602
 4087SOL     OW14099   1.246   6.885  12.923
 4087SOL    HW114100   1.326   6.929  12.950
 4087SOL    HW214101   1.275   6.815  12.864
 4088SOL     OW14102   7.734   8.969   5.799
 4088SOL    HW114103   7.828   8.988   5.801
 4088SOL    HW214104   7.705   9.001   5.714
 4089SOL     OW14105  10.697  12.803  14.846
 4089SOL    HW114106  10.784  12.812  14.808
 4089SOL    HW214107  10.637  12.812  14.772
 4090SOL     OW14108  13.030   1.916   4.857
 4090SOL    HW114109  13.059   1.874   4.938
 4090SOL    HW214110  12.941   1.883   4.844
 4091SOL     OW14111  13.562  14.383   7.181
 4091SOL    HW114112  13.579  14.292   7.204
 4091SOL    HW214113  13.629  14.434   7.227
 4092SOL     OW14114  10.403  13.090  13.556
 4092SOL    HW114115  10.471  13.044  13.507
 4092SOL    HW214116  10.360  13.022  13.607
 4093SOL     OW14117   5.150   2.278  13.852
 4093SOL    HW114118   5.122   2.245  13.767
 4093SOL    HW214119   5.075   2.264  13.909
 4094SOL     OW14120   4.778  14.217   6.433
 4094SOL    HW114121   4.828  14.235   6.354
 4094SOL    HW214122   4.809  14.131   6.462
 4095SOL     OW14123  14.844   7.978  12.847
 4095SOL    HW114124  14.850   7.901  12.790
 4095SOL    HW214125  14.785   7.950  12.918
 4096SOL     OW14126   1.587  10.922   3.468
 4096SOL    HW114127   1.626  11.007   3.487
 4096SOL    HW214128   1.590  10.875   3.551
 4097SOL     OW14129   1.408   5.218   3.781
 4097SOL    HW114130   1.377   5.218   3.690
 4097SOL    HW214131   1.472   5.289   3.785
 4098SOL     OW14132  13.744   0.260   1.641
 4098SOL    HW114133  13.804   0.214   1.583
 4098SOL    HW214134  13.657   0.236   1.610
 4099SOL     OW14135   2.691   7.942   3.572
 4099SOL    HW114136   2.612   7.889   3.579
 4099SOL    HW214137   2.662   8.031   3.594
 4100SOL     OW14138   8.356   4.399  14.843
 4100SOL    HW114139   8.273   4.358  14.868
 4100SOL    HW214140   8.373   4.366  14.754
 4101SOL     OW14141  10.406   6.064  11.172
 4101SOL    HW114142  10.358   6.017  11.239
 4101SOL    HW214143  10.496   6.035  11.182
 4102SOL     OW14144  11.891  11.804   6.558
 4102SOL    HW114145  11.824  11.735   6.552
 4102SOL    HW214146  11.849  11.873   6.609
 4103SOL     OW14147   6.344  13.300   8.737
 4103SOL    HW114148   6.345  13.205   8.750
 4103SOL    HW214149   6.366  13.336   8.823
 4104SOL     OW14150   8.500   8.617  12.232
 4104SOL    HW114151   8.584   8.636  12.272
 4104SOL    HW214152   8.435   8.646  12.296
 4105SOL     OW14153   0.979   2.349  13.227
 4105SOL    HW114154   1.005   2.316  13.141
 4105SOL    HW214155   1.040   2.422  13.244
 4106SOL     OW14156   6.340   2.174   4.313
 4106SOL    HW114157   6.291   2.166   4.232
 4106SOL    HW214158   6.430   2.150   4.290
 4107SOL     OW14159   9.145   7.118  12.544
 4107SOL    HW114160   9.241   7.114  12.540
 4107SOL    HW214161   9.122   7.189  12.484
 4108SOL     OW14162   1.751   0.432  12.509
 4108SOL    HW114163   1.706   0.375  12.447
 4108SOL    HW214164   1.793   0.498  12.454
 4109SOL     OW14165   5.334   5.684   2.907
 4109SOL    HW114166   5.422   5.690   2.871
 4109SOL    HW214167   5.347   5.661   2.999
 4110SOL     OW14168  14.852  13.741   4.591
 4110SOL    HW114169  14.789  13.722   4.660
 4110SOL    HW214170   0.054  13.691   4.614
 4111SOL     OW14171   3.289  13.012  14.864
 4111SOL    HW114172   3.231  12.965   0.047
 4111SOL    HW214173   3.340  13.070   0.043
 4112SOL     OW14174   5.427   5.541  12.260
 4112SOL    HW114175   5.391   5.502  12.180
 4112SOL    HW214176   5.373   5.617  12.277
 4113SOL     OW14177   1.942  10.149  13.444
 4113SOL    HW114178   1.866  10.092  13.455
 4113SOL    HW214179   1.912  10.217  13.384
 4114SOL     OW14180   8.029   9.252   7.114
 4114SOL    HW114181   8.100   9.263   7.050
 4114SOL    HW214182   7.962   9.202   7.068
 4115SOL     OW14183  12.518   2.772   0.372
 4115SOL    HW114184  12.491   2.857   0.339
 4115SOL    HW214185  12.445   2.713   0.351
 4116SOL     OW14186   5.116  14.471   9.444
 4116SOL    HW114187   5.043  14.496   9.500
 4116SOL    HW214188   5.192  14.515   9.483
 4117SOL     OW14189   3.912   6.032  10.909
 4117SOL    HW114190   3.873   5.955  10.949
 4117SOL    HW214191   3.852   6.055  10.838
 4118SOL     OW14192  14.263  13.626   6.186
 4118SOL    HW114193  14.337  13.565   6.190
 4118SOL    HW214194  14.186  13.570   6.180
 4119SOL     OW14195  14.139   4.029   5.368
 4119SOL    HW114196  14.200   4.101   5.381
 4119SOL    HW214197  14.171   3.984   5.290
 4120SOL     OW14198   5.557  12.606   0.162
 4120SOL    HW114199   5.529  12.693   0.191
 4120SOL    HW214200   5.576  12.558   0.242
 4121SOL     OW14201   5.286  11.926  13.468
 4121SOL    HW114202   5.193  11.948  13.462
 4121SOL    HW214203   5.329  11.992  13.413
 4122SOL     OW14204   5.197  14.678   9.014
 4122SOL    HW114205   5.137  14.647   9.082
 4122SOL    HW214206   5.258  14.605   9.000
 4123SOL     OW14207   6.174  10.656  12.533
 4123SOL    HW114208   6.226  10.585  12.572
 4123SOL    HW214209   6.131  10.698  12.607
 4124SOL     OW14210   3.005  10.811   4.763
 4124SOL    HW114211   2.958  10.769   4.691
 4124SOL    HW214212   2.963  10.777   4.842
 4125SOL     OW14213  14.683   3.581  12.255
 4125SOL    HW114214  14.654   3.492  12.273
 4125SOL    HW214215  14.615   3.618  12.199
 4126SOL     OW14216   7.288   5.880   4.081
 4126SOL    HW114217   7.194   5.893   4.077
 4126SOL    HW214218   7.312   5.902   4.171
 4127SOL     OW14219   1.607  11.838  10.852
 4127SOL    HW114220   1.602  11.930  10.875
 4127SOL    HW214221   1.519  11.804  10.867
 4128SOL     OW14222  11.685   6.646   4.935
 4128SOL    HW114223  11.700   6.737   4.908
 4128SOL    HW214224  11.722   6.594   4.863
 4129SOL     OW14225  14.073   7.478  11.906
 4129SOL    HW114226  14.157   7.522  11.918
 4129SOL    HW214227  14.009   7.548  11.898
 4130SOL     OW14228  12.531   3.031  14.049
 4130SOL    HW114229  12.548   3.001  14.138
 4130SOL    HW214230  12.618   3.047  14.012
 4131SOL     OW14231   3.388  13.026  12.013
 4131SOL    HW114232   3.380  13.031  12.109
 4131SOL    HW214233   3.306  12.984  11.985
 4132SOL     OW14234   1.606   5.533   5.106
 4132SOL    HW114235   1.600   5.439   5.089
 4132SOL    HW214236   1.587   5.574   5.021
 4133SOL     OW14237   6.092   6.099   6.568
 4133SOL    HW114238   6.051   6.099   6.482
 4133SOL    HW214239   6.037   6.042   6.622
 4134SOL     OW14240  14.520   3.669   9.814
 4134SOL    HW114241  14.548   3.717   9.735
 4134SOL    HW214242  14.595   3.677   9.874
 4135SOL     OW14243   8.956   6.222   6.991
 4135SOL    HW114244   9.021   6.282   7.029
 4135SOL    HW214245   8.937   6.260   6.905
 4136SOL     OW14246  13.062   8.404   4.585
 4136SOL    HW114247  12.986   8.346   4.571
 4136SOL    HW214248  13.128   8.347   4.625
 4137SOL     OW14249   3.947   6.640   1.827
 4137SOL    HW114250   3.949   6.552   1.864
 4137SOL    HW214251   4.004   6.691   1.884
 4138SOL     OW14252   5.873   5.367   8.222
 4138SOL    HW114253   5.921   5.385   8.302
 4138SOL    HW214254   5.811   5.440   8.214
 4139SOL     OW14255   7.104   6.798   5.165
 4139SOL    HW114256   7.092   6.719   5.218
 4139SOL    HW214257   7.016   6.835   5.157
 4140SOL     OW14258  12.495   0.837  10.710
 4140SOL    HW114259  12.544   0.779  10.653
 4140SOL    HW214260  12.561   0.889  10.755
 4141SOL     OW14261   7.531   2.730   9.641
 4141SOL    HW114262   7.507   2.823   9.650
 4141SOL    HW214263   7.627   2.730   9.638
 4142SOL     OW14264   4.922   7.623   2.405
 4142SOL    HW114265   4.926   7.572   2.324
 4142SOL    HW214266   4.875   7.568   2.466
 4143SOL     OW14267   8.544   1.415  10.317
 4143SOL    HW114268   8.548   1.334  10.265
 4143SOL    HW214269   8.533   1.384  10.407
 4144SOL     OW14270  13.307  13.442  10.436
 4144SOL    HW114271  13.347  13.379  10.496
 4144SOL    HW214272  13.217  13.452  10.469
 4145SOL     OW14273   5.359   4.198   7.504
 4145SOL    HW114274   5.401   4.280   7.530
 4145SOL    HW214275   5.409   4.169   7.428
 4146SOL     OW14276  11.801   5.971   6.889
 4146SOL    HW114277  11.745   6.008   6.821
 4146SOL    HW214278  11.886   6.012   6.876
 4147SOL     OW14279   0.380   9.575  10.179
 4147SOL    HW114280   0.412   9.647  10.235
 4147SOL    HW214281   0.291   9.601  10.156
 4148SOL     OW14282  11.040   6.648  12.943
 4148SOL    HW114283  11.048   6.659  12.848
 4148SOL    HW214284  11.074   6.730  12.980
 4149SOL     OW14285   7.156   9.765   7.737
 4149SOL    HW114286   7.249   9.784   7.744
 4149SOL    HW214287   7.151   9.669   7.729
 4150SOL     OW14288   0.907   8.186   2.374
 4150SOL    HW114289   0.962   8.123   2.421
 4150SOL    HW214290   0.966   8.258   2.351
 4151SOL     OW14291   1.495   4.337   3.802
 4151SOL    HW114292   1.445   4.256   3.806
 4151SOL    HW214293   1.459   4.384   3.726
 4152SOL     OW14294  10.767  11.969  11.049
 4152SOL    HW114295  10.804  11.953  10.962
 4152SOL    HW214296  10.687  11.918  11.051
 4153SOL     OW14297  12.490   4.644  14.443
 4153SOL    HW114298  12.427   4.662  14.373
 4153SOL    HW214299  12.506   4.550  14.438
 4154SOL     OW14300   9.606  13.689  10.805
 4154SOL    HW114301   9.610  13.781  10.832
 4154SOL    HW214302   9.538  13.687  10.738
 4155SOL     OW14303   6.671   2.119   1.994
 4155SOL    HW114304   6.597   2.079   1.946
 4155SOL    HW214305   6.658   2.091   2.084
 4156SOL     OW14306   4.957  14.604  11.068
 4156SOL    HW114307   5.002  14.651  10.997
 4156SOL    HW214308   5.015  14.531  11.089
 4157SOL     OW14309  13.333   7.428   8.863
 4157SOL    HW114310  13.328   7.396   8.953
 4157SOL    HW214311  13.319   7.523   8.870
 4158SOL     OW14312   9.653  12.911   9.675
 4158SOL    HW114313   9.709  12.922   9.598
 4158SOL    HW214314   9.583  12.853   9.646
 4159SOL     OW14315   6.674  14.394   4.083
 4159SOL    HW114316   6.580  14.387   4.100
 4159SOL    HW214317   6.708  14.443   4.158
 4160SOL     OW14318   1.213   0.441  11.994
 4160SOL    HW114319   1.201   0.352  12.027
 4160SOL    HW214320   1.253   0.488  12.066
 4161SOL     OW14321   1.787   8.003   7.879
 4161SOL    HW114322   1.754   8.068   7.817
 4161SOL    HW214323   1.743   8.024   7.961
 4162SOL     OW14324   2.204   2.841   6.258
 4162SOL    HW114325   2.131   2.858   6.198
 4162SOL    HW214326   2.280   2.832   6.202
 4163SOL     OW14327  13.699  12.253   1.153
 4163SOL    HW114328  13.624  12.311   1.168
 4163SOL    HW214329  13.681  12.177   1.208
 4164SOL     OW14330  14.498   8.362   7.520
 4164SOL    HW114331  14.553   8.294   7.560
 4164SOL    HW214332  14.501   8.434   7.582
 4165SOL     OW14333  10.444   6.969   1.338
 4165SOL    HW114334  10.540   6.967   1.338
 4165SOL    HW214335  10.421   6.981   1.245
 4166SOL     OW14336   7.137   8.362   0.354
 4166SOL    HW114337   7.188   8.443   0.346
 4166SOL    HW214338   7.143   8.322   0.267
 4167SOL     OW14339   6.289   1.723   9.226
 4167SOL    HW114340   6.283   1.629   9.243
 4167SOL    HW214341   6.231   1.738   9.151
 4168SOL     OW14342   7.392  10.276   3.577
 4168SOL    HW114343   7.444  10.207   3.536
 4168SOL    HW214344   7.447  10.307   3.650
 4169SOL     OW14345  11.852   7.495   1.164
 4169SOL    HW114346  11.831   7.526   1.076
 4169SOL    HW214347  11.844   7.573   1.219
 4170SOL     OW14348   3.700  14.395  11.607
 4170SOL    HW114349   3.754  14.457  11.657
 4170SOL    HW214350   3.634  14.450  11.565
 4171SOL     OW14351   8.964   8.832   0.169
 4171SOL    HW114352   8.872   8.854   0.187
 4171SOL    HW214353   9.014   8.899   0.214
 4172SOL     OW14354   3.485   5.313   3.934
 4172SOL    HW114355   3.499   5.395   3.981
 4172SOL    HW214356   3.424   5.335   3.864
 4173SOL     OW14357   7.502   1.583  13.097
 4173SOL    HW114358   7.518   1.547  13.010
 4173SOL    HW214359   7.475   1.673  13.081
 4174SOL     OW14360   2.119  13.839   2.436
 4174SOL    HW114361   2.131  13.825   2.530
 4174SOL    HW214362   2.204  13.822   2.398
 4175SOL     OW14363  12.408  12.922   9.591
 4175SOL    HW114364  12.453  12.953   9.512
 4175SOL    HW214365  12.345  12.858   9.559
 4176SOL     OW14366  10.034   7.298  13.052
 4176SOL    HW114367  10.076   7.227  13.101
 4176SOL    HW214368  10.102   7.365  13.045
 4177SOL     OW14369   1.969   5.210  10.142
 4177SOL    HW114370   1.893   5.269  10.137
 4177SOL    HW214371   1.942   5.132  10.093
 4178SOL     OW14372   2.759   8.639   2.729
 4178SOL    HW114373   2.818   8.567   2.752
 4178SOL    HW214374   2.718   8.664   2.812
 4179SOL     OW14375   9.221   7.603  14.805
 4179SOL    HW114376   9.293   7.574  14.860
 4179SOL    HW214377   9.142   7.579  14.853
 4180SOL     OW14378   0.813   7.139   4.147
 4180SOL    HW114379   0.803   7.117   4.239
 4180SOL    HW214380   0.798   7.056   4.101
 4181SOL     OW14381  14.449  10.416   0.653
 4181SOL    HW114382  14.510  10.457   0.714
 4181SOL    HW214383  14.367  10.409   0.701
 4182SOL     OW14384   4.064   5.944  14.442
 4182SOL    HW114385   4.021   5.904  14.517
 4182SOL    HW214386   4.119   5.875  14.405
 4183SOL     OW14387   8.051   6.907   3.176
 4183SOL    HW114388   8.117   6.940   3.238
 4183SOL    HW214389   7.971   6.900   3.228
 4184SOL     OW14390   7.630   5.008  13.216
 4184SOL    HW114391   7.658   4.937  13.275
 4184SOL    HW214392   7.655   5.088  13.261
 4185SOL     OW14393  12.702   4.409  14.732
 4185SOL    HW114394  12.636   4.431  14.799
 4185SOL    HW214395  12.683   4.318  14.709
 4186SOL     OW14396  12.824   1.201   0.714
 4186SOL    HW114397  12.899   1.219   0.658
 4186SOL    HW214398  12.778   1.285   0.722
 4187SOL     OW14399   1.900   5.204   7.216
 4187SOL    HW114400   1.860   5.284   7.181
 4187SOL    HW214401   1.968   5.236   7.275
 4188SOL     OW14402   5.485  12.323   7.743
 4188SOL    HW114403   5.443  12.240   7.718
 4188SOL    HW214404   5.558  12.298   7.798
 4189SOL     OW14405  12.209  12.856   2.289
 4189SOL    HW114406  12.291  12.835   2.245
 4189SOL    HW214407  12.141  12.817   2.233
 4190SOL     OW14408   3.803   7.939   3.384
 4190SOL    HW114409   3.860   7.868   3.353
 4190SOL    HW214410   3.716   7.915   3.352
 4191SOL     OW14411   2.556   7.847   2.854
 4191SOL    HW114412   2.492   7.828   2.922
 4191SOL    HW214413   2.603   7.764   2.841
 4192SOL     OW14414  10.769   6.760   6.535
 4192SOL    HW114415  10.852   6.739   6.578
 4192SOL    HW214416  10.779   6.851   6.508
 4193SOL     OW14417   2.929  13.120   4.553
 4193SOL    HW114418   2.889  13.205   4.571
 4193SOL    HW214419   2.898  13.064   4.624
 4194SOL     OW14420  12.075   3.532   6.821
 4194SOL    HW114421  12.083   3.618   6.863
 4194SOL    HW214422  12.047   3.473   6.891
 4195SOL     OW14423  12.708  13.488   7.187
 4195SOL    HW114424  12.794  13.528   7.203
 4195SOL    HW214425  12.722  13.394   7.201
 4196SOL     OW14426   5.620   7.968   5.404
 4196SOL    HW114427   5.712   7.963   5.430
 4196SOL    HW214428   5.621   8.009   5.318
 4197SOL     OW14429   7.310   6.424  12.921
 4197SOL    HW114430   7.402   6.415  12.947
 4197SOL    HW214431   7.311   6.495  12.856
 4198SOL     OW14432  11.556   0.266  13.259
 4198SOL    HW114433  11.599   0.328  13.199
 4198SOL    HW214434  11.607   0.186  13.252
 4199SOL     OW14435   2.157  14.452   6.002
 4199SOL    HW114436   2.179  14.360   5.983
 4199SOL    HW214437   2.237  14.488   6.039
 4200SOL     OW14438   7.424   0.674   9.022
 4200SOL    HW114439   7.441   0.617   8.947
 4200SOL    HW214440   7.351   0.730   8.994
 4201SOL     OW14441  11.034   7.875   8.673
 4201SOL    HW114442  11.025   7.940   8.604
 4201SOL    HW214443  10.984   7.910   8.746
 4202SOL     OW14444  14.120   8.842   3.989
 4202SOL    HW114445  14.202   8.863   4.035
 4202SOL    HW214446  14.079   8.927   3.974
 4203SOL     OW14447  10.025  10.588  13.908
 4203SOL    HW114448  10.044  10.600  13.815
 4203SOL    HW214449   9.933  10.564  13.911
 4204SOL     OW14450   6.911   6.534   6.011
 4204SOL    HW114451   6.867   6.563   5.931
 4204SOL    HW214452   6.845   6.545   6.080
 4205SOL     OW14453   5.444  12.972   9.943
 4205SOL    HW114454   5.358  13.002   9.972
 4205SOL    HW214455   5.430  12.881   9.916
 4206SOL     OW14456   9.832   0.167   8.028
 4206SOL    HW114457   9.798   0.255   8.012
 4206SOL    HW214458   9.768   0.109   7.987
 4207SOL     OW14459   2.170   5.897   8.767
 4207SOL    HW114460   2.098   5.958   8.752
 4207SOL    HW214461   2.248   5.953   8.774
 4208SOL     OW14462   6.382  11.148  13.801
 4208SOL    HW114463   6.357  11.181  13.714
 4208SOL    HW214464   6.436  11.071  13.782
 4209SOL     OW14465   3.763   0.492  14.216
 4209SOL    HW114466   3.804   0.561  14.164
 4209SOL    HW214467   3.676   0.481  14.178
 4210SOL     OW14468  12.880  13.261  12.563
 4210SOL    HW114469  12.869  13.222  12.476
 4210SOL    HW214470  12.814  13.218  12.617
 4211SOL     OW14471  11.901   5.727   8.626
 4211SOL    HW114472  11.863   5.698   8.544
 4211SOL    HW214473  11.961   5.657   8.651
 4212SOL     OW14474  14.148  14.259  13.918
 4212SOL    HW114475  14.085  14.211  13.865
 4212SOL    HW214476  14.212  14.194  13.946
 4213SOL     OW14477   8.152   7.436  10.808
 4213SOL    HW114478   8.160   7.386  10.889
 4213SOL    HW214479   8.175   7.374  10.739
 4214SOL     OW14480   7.064   7.771   4.373
 4214SOL    HW114481   7.106   7.690   4.400
 4214SOL    HW214482   6.983   7.774   4.423
 4215SOL     OW14483  11.176   6.467  13.743
 4215SOL    HW114484  11.113   6.428  13.682
 4215SOL    HW214485  11.127   6.478  13.824
 4216SOL     OW14486   6.895   9.740   6.265
 4216SOL    HW114487   6.877   9.682   6.340
 4216SOL    HW214488   6.880   9.828   6.299
 4217SOL     OW14489   5.377   2.590  11.090
 4217SOL    HW114490   5.310   2.577  11.157
 4217SOL    HW214491   5.442   2.522  11.107
 4218SOL     OW14492   1.202  11.552  13.548
 4218SOL    HW114493   1.188  11.554  13.643
 4218SOL    HW214494   1.248  11.634  13.529
 4219SOL     OW14495  13.877  10.885   1.894
 4219SOL    HW114496  13.878  10.822   1.822
 4219SOL    HW214497  13.949  10.945   1.875
 4220SOL     OW14498   0.965  12.622   0.587
 4220SOL    HW114499   1.021  12.615   0.510
 4220SOL    HW214500   0.965  12.534   0.626
 4221SOL     OW14501   5.427   6.632   1.264
 4221SOL    HW114502   5.487   6.599   1.198
 4221SOL    HW214503   5.354   6.569   1.264
 4222SOL     OW14504   1.910   1.256   6.310
 4222SOL    HW114505   1.940   1.343   6.287
 4222SOL    HW214506   1.966   1.230   6.384
 4223SOL     OW14507   1.312   9.040  10.706
 4223SOL    HW114508   1.390   9.095  10.708
 4223SOL    HW214509   1.240   9.101  10.688
 4224SOL     OW14510   7.211   2.207  10.601
 4224SOL    HW114511   7.162   2.163  10.531
 4224SOL    HW214512   7.297   2.165  10.601
 4225SOL     OW14513  12.867  14.299   3.817
 4225SOL    HW114514  12.827  14.213   3.805
 4225SOL    HW214515  12.805  14.347   3.871
 4226SOL     OW14516  10.905   8.128  12.983
 4226SOL    HW114517  10.856   8.200  12.942
 4226SOL    HW214518  10.843   8.090  13.046
 4227SOL     OW14519  14.658  12.660   1.802
 4227SOL    HW114520  14.678  12.700   1.887
 4227SOL    HW214521  14.695  12.572   1.808
 4228SOL     OW14522   2.917   3.983   9.336
 4228SOL    HW114523   2.843   3.960   9.280
 4228SOL    HW214524   2.876   4.016   9.416
 4229SOL     OW14525   1.332  12.366  10.854
 4229SOL    HW114526   1.256  12.400  10.902
 4229SOL    HW214527   1.302  12.360  10.763
 4230SOL     OW14528   6.408   5.981   7.726
 4230SOL    HW114529   6.330   5.951   7.772
 4230SOL    HW214530   6.379   6.001   7.637
 4231SOL     OW14531   2.176  10.121  13.856
 4231SOL    HW114532   2.257  10.152  13.896
 4231SOL    HW214533   2.167  10.171  13.775
 4232SOL     OW14534  11.729   4.669   5.982
 4232SOL    HW114535  11.646   4.676   5.936
 4232SOL    HW214536  11.734   4.578   6.010
 4233SOL     OW14537  13.300  10.900   0.470
 4233SOL    HW114538  13.212  10.936   0.455
 4233SOL    HW214539  13.306  10.890   0.565
 4234SOL     OW14540   7.977  14.689   2.074
 4234SOL    HW114541   8.024  14.606   2.080
 4234SOL    HW214542   7.890  14.666   2.043
 4235SOL     OW14543   4.783   2.025  13.003
 4235SOL    HW114544   4.787   2.112  12.964
 4235SOL    HW214545   4.691   1.999  12.996
 4236SOL     OW14546   7.130   1.023   0.919
 4236SOL    HW114547   7.072   0.949   0.936
 4236SOL    HW214548   7.217   0.990   0.941
 4237SOL     OW14549   6.495   6.643   2.524
 4237SOL    HW114550   6.535   6.720   2.482
 4237SOL    HW214551   6.402   6.665   2.531
 4238SOL     OW14552   4.193  10.593   7.847
 4238SOL    HW114553   4.264  10.545   7.805
 4238SOL    HW214554   4.114  10.543   7.824
 4239SOL     OW14555   3.964   6.892   6.698
 4239SOL    HW114556   4.021   6.903   6.623
 4239SOL    HW214557   3.970   6.799   6.720
 4240SOL     OW14558   8.796   8.762   0.410
 4240SOL    HW114559   8.759   8.849   0.397
 4240SOL    HW214560   8.738   8.703   0.362
 4241SOL     OW14561   7.779   5.397  11.923
 4241SOL    HW114562   7.726   5.382  11.845
 4241SOL    HW214563   7.819   5.312  11.943
 4242SOL     OW14564   2.508   7.782   3.641
 4242SOL    HW114565   2.477   7.704   3.687
 4242SOL    HW214566   2.428   7.825   3.610
 4243SOL     OW14567   4.484  14.531   9.755
 4243SOL    HW114568   4.472  14.494   9.667
 4243SOL    HW214569   4.421  14.483   9.810
 4244SOL     OW14570   0.607   6.662   0.765
 4244SOL    HW114571   0.598   6.752   0.796
 4244SOL    HW214572   0.641   6.671   0.676
 4245SOL     OW14573  12.154   4.135   5.737
 4245SOL    HW114574  12.096   4.099   5.671
 4245SOL    HW214575  12.205   4.202   5.690
 4246SOL     OW14576  14.149   7.985   6.313
 4246SOL    HW114577  14.240   7.991   6.285
 4246SOL    HW214578  14.122   8.075   6.329
 4247SOL     OW14579  12.115   1.538   5.723
 4247SOL    HW114580  12.094   1.523   5.631
 4247SOL    HW214581  12.083   1.460   5.768
 4248SOL     OW14582  12.541  10.092  12.011
 4248SOL    HW114583  12.454  10.124  11.991
 4248SOL    HW214584  12.542  10.080  12.106
 4249SOL     OW14585   6.495   6.479  11.353
 4249SOL    HW114586   6.537   6.446  11.274
 4249SOL    HW214587   6.518   6.416  11.421
 4250SOL     OW14588   5.091   5.754  14.438
 4250SOL    HW114589   5.106   5.734  14.531
 4250SOL    HW214590   5.029   5.686  14.409
 4251SOL     OW14591   6.989  14.685   1.353
 4251SOL    HW114592   7.024  14.720   1.435
 4251SOL    HW214593   7.030  14.738   1.285
 4252SOL     OW14594   0.629   5.910  14.414
 4252SOL    HW114595   0.626   6.006  14.419
 4252SOL    HW214596   0.538   5.883  14.424
 4253SOL     OW14597   9.677   2.517  13.695
 4253SOL    HW114598   9.751   2.536  13.753
 4253SOL    HW214599   9.604   2.501  13.755
 4254SOL     OW14600   6.084  13.324   4.663
 4254SOL    HW114601   6.092  13.314   4.568
 4254SOL    HW214602   6.113  13.240   4.698
 4255SOL     OW14603   3.816   8.212   8.814
 4255SOL    HW114604   3.909   8.189   8.816
 4255SOL    HW214605   3.774   8.147   8.870
 4256SOL     OW14606   4.789   4.197  12.558
 4256SOL    HW114607   4.865   4.142  12.577
 4256SOL    HW214608   4.799   4.273  12.617
 4257SOL     OW14609  12.950  10.592   7.677
 4257SOL    HW114610  13.000  10.641   7.743
 4257SOL    HW214611  12.870  10.566   7.722
 4258SOL     OW14612  12.952   3.687   4.960
 4258SOL    HW114613  13.033   3.679   4.909
 4258SOL    HW214614  12.924   3.777   4.945
 4259SOL     OW14615  10.541  12.973   0.680
 4259SOL    HW114616  10.520  12.996   0.589
 4259SOL    HW214617  10.594  12.893   0.672
 4260SOL     OW14618   1.114  11.888   4.192
 4260SOL    HW114619   1.067  11.971   4.199
 4260SOL    HW214620   1.140  11.882   4.101
 4261SOL     OW14621  12.753   6.433   2.129
 4261SOL    HW114622  12.759   6.415   2.222
 4261SOL    HW214623  12.828   6.388   2.090
 4262SOL     OW14624   7.794  10.025  12.967
 4262SOL    HW114625   7.709   9.982  12.952
 4262SOL    HW214626   7.773  10.118  12.976
 4263SOL     OW14627   2.561   5.622   3.009
 4263SOL    HW114628   2.645   5.591   2.975
 4263SOL    HW214629   2.519   5.544   3.046
 4264SOL     OW14630   4.855  13.474   4.193
 4264SOL    HW114631   4.906  13.454   4.271
 4264SOL    HW214632   4.772  13.508   4.226
 4265SOL     OW14633   7.351   2.839   4.210
 4265SOL    HW114634   7.358   2.933   4.224
 4265SOL    HW214635   7.366   2.827   4.116
 4266SOL     OW14636   1.356   8.915   7.348
 4266SOL    HW114637   1.265   8.926   7.318
 4266SOL    HW214638   1.395   9.002   7.341
 4267SOL     OW14639   4.148   3.148   3.535
 4267SOL    HW114640   4.146   3.143   3.440
 4267SOL    HW214641   4.068   3.105   3.564
 4268SOL     OW14642  10.365   8.451  14.854
 4268SOL    HW114643  10.418   8.374  14.871
 4268SOL    HW214644  10.398   8.485  14.770
 4269SOL     OW14645  13.373   5.675   5.331
 4269SOL    HW114646  13.452   5.668   5.277
 4269SOL    HW214647  13.344   5.584   5.341
 4270SOL     OW14648   4.103   6.144   0.717
 4270SOL    HW114649   4.180   6.124   0.664
 4270SOL    HW214650   4.095   6.239   0.712
 4271SOL     OW14651   5.140   3.269   8.618
 4271SOL    HW114652   5.164   3.306   8.703
 4271SOL    HW214653   5.223   3.245   8.577
 4272SOL     OW14654  12.473  11.465   7.213
 4272SOL    HW114655  12.433  11.551   7.197
 4272SOL    HW214656  12.567  11.480   7.203
 4273SOL     OW14657   3.407  12.037   9.789
 4273SOL    HW114658   3.341  11.969   9.778
 4273SOL    HW214659   3.395  12.069   9.878
 4274SOL     OW14660   9.791   6.181   1.720
 4274SOL    HW114661   9.738   6.259   1.732
 4274SOL    HW214662   9.831   6.166   1.806
 4275SOL     OW14663   1.804   7.156   0.615
 4275SOL    HW114664   1.763   7.202   0.688
 4275SOL    HW214665   1.733   7.106   0.575
 4276SOL     OW14666   9.342   5.807   2.940
 4276SOL    HW114667   9.307   5.760   2.864
 4276SOL    HW214668   9.268   5.858   2.972
 4277SOL     OW14669  14.120   6.494   6.203
 4277SOL    HW114670  14.211   6.471   6.185
 4277SOL    HW214671  14.119   6.590   6.205
 4278SOL     OW14672   1.674   4.376  12.738
 4278SOL    HW114673   1.734   4.421  12.679
 4278SOL    HW214674   1.708   4.396  12.826
 4279SOL     OW14675   0.305   4.611   3.382
 4279SOL    HW114676   0.224   4.592   3.428
 4279SOL    HW214677   0.374   4.574   3.437
 4280SOL     OW14678   9.215   2.263   7.431
 4280SOL    HW114679   9.153   2.277   7.359
 4280SOL    HW214680   9.278   2.200   7.396
 4281SOL     OW14681  12.857  11.103   5.875
 4281SOL    HW114682  12.776  11.060   5.904
 4281SOL    HW214683  12.840  11.125   5.783
 4282SOL     OW14684  13.671  12.271  12.912
 4282SOL    HW114685  13.618  12.344  12.882
 4282SOL    HW214686  13.608  12.208  12.945
 4283SOL     OW14687  10.347   1.518  11.259
 4283SOL    HW114688  10.413   1.537  11.192
 4283SOL    HW214689  10.298   1.600  11.268
 4284SOL     OW14690   6.922  11.863   9.268
 4284SOL    HW114691   6.900  11.935   9.208
 4284SOL    HW214692   6.977  11.805   9.216
 4285SOL     OW14693   0.027  11.924  14.720
 4285SOL    HW114694   0.099  11.874  14.758
 4285SOL    HW214695   0.070  11.984  14.659
 4286SOL     OW14696   5.105   2.993  13.106
 4286SOL    HW114697   5.024   2.979  13.058
 4286SOL    HW214698   5.144   2.906  13.113
 4287SOL     OW14699  14.589  11.207  14.358
 4287SOL    HW114700  14.606  11.222  14.265
 4287SOL    HW214701  14.508  11.256  14.375
 4288SOL     OW14702   2.510   9.374   8.783
 4288SOL    HW114703   2.441   9.328   8.735
 4288SOL    HW214704   2.530   9.451   8.730
 4289SOL     OW14705  10.502   3.973   6.208
 4289SOL    HW114706  10.411   3.999   6.222
 4289SOL    HW214707  10.514   3.975   6.113
 4290SOL     OW14708   4.294  13.267  12.737
 4290SOL    HW114709   4.325  13.190  12.689
 4290SOL    HW214710   4.327  13.342  12.688
 4291SOL     OW14711   6.755   0.092  13.691
 4291SOL    HW114712   6.747   0.143  13.771
 4291SOL    HW214713   6.849   0.096  13.669
 4292SOL     OW14714   7.256  11.911   2.751
 4292SOL    HW114715   7.309  11.965   2.810
 4292SOL    HW214716   7.271  11.821   2.782
 4293SOL     OW14717   3.978   7.733   9.314
 4293SOL    HW114718   3.991   7.648   9.271
 4293SOL    HW214719   4.065   7.773   9.315
 4294SOL     OW14720  10.549   1.074   8.213
 4294SOL    HW114721  10.482   1.121   8.263
 4294SOL    HW214722  10.613   1.047   8.279
 4295SOL     OW14723   5.467   8.159   6.318
 4295SOL    HW114724   5.507   8.140   6.233
 4295SOL    HW214725   5.381   8.118   6.314
 4296SOL     OW14726  10.454   4.541   4.606
 4296SOL    HW114727  10.441   4.607   4.538
 4296SOL    HW214728  10.366   4.521   4.637
 4297SOL     OW14729  10.141   9.761  11.559
 4297SOL    HW114730  10.133   9.839  11.504
 4297SOL    HW214731  10.235   9.743  11.562
 4298SOL     OW14732  10.928   8.749   7.816
 4298SOL    HW114733  10.851   8.703   7.783
 4298SOL    HW214734  10.907   8.842   7.807
 4299SOL     OW14735  12.903  12.838   1.458
 4299SOL    HW114736  12.886  12.811   1.548
 4299SOL    HW214737  12.918  12.756   1.411
 4300SOL     OW14738  14.682   4.438   5.547
 4300SOL    HW114739  14.597   4.469   5.578
 4300SOL    HW214740  14.666   4.347   5.522
 4301SOL     OW14741  11.481   7.512   9.503
 4301SOL    HW114742  11.524   7.474   9.426
 4301SOL    HW214743  11.450   7.597   9.472
 4302SOL     OW14744  11.884   3.099  11.818
 4302SOL    HW114745  11.852   3.013  11.788
 4302SOL    HW214746  11.888   3.091  11.913
 4303SOL     OW14747   4.208  11.516   0.357
 4303SOL    HW114748   4.258  11.597   0.343
 4303SOL    HW214749   4.275  11.451   0.379
 4304SOL     OW14750  12.294  11.371   0.759
 4304SOL    HW114751  12.266  11.440   0.819
 4304SOL    HW214752  12.347  11.416   0.694
 4305SOL     OW14753   6.602   5.859   4.402
 4305SOL    HW114754   6.569   5.771   4.386
 4305SOL    HW214755   6.553   5.889   4.479
 4306SOL     OW14756  10.683   3.253   7.864
 4306SOL    HW114757  10.589   3.242   7.880
 4306SOL    HW214758  10.694   3.347   7.853
 4307SOL     OW14759   5.903   8.220  14.506
 4307SOL    HW114760   5.887   8.218  14.601
 4307SOL    HW214761   5.961   8.296  14.494
 4308SOL     OW14762   8.293  11.157  12.303
 4308SOL    HW114763   8.302  11.183  12.394
 4308SOL    HW214764   8.358  11.208  12.256
 4309SOL     OW14765   8.032   6.408   7.854
 4309SOL    HW114766   7.970   6.351   7.898
 4309SOL    HW214767   7.997   6.496   7.866
 4310SOL     OW14768  14.482   3.570  14.295
 4310SOL    HW114769  14.437   3.628  14.356
 4310SOL    HW214770  14.487   3.619  14.213
 4311SOL     OW14771  10.186   8.091  13.765
 4311SOL    HW114772  10.214   8.013  13.718
 4311SOL    HW214773  10.095   8.104  13.741
 4312SOL     OW14774   1.921  12.109   9.876
 4312SOL    HW114775   1.861  12.132   9.947
 4312SOL    HW214776   1.893  12.164   9.803
 4313SOL     OW14777  11.395   6.054   6.832
 4313SOL    HW114778  11.328   6.027   6.894
 4313SOL    HW214779  11.349   6.108   6.768
 4314SOL     OW14780   8.277   9.382   4.976
 4314SOL    HW114781   8.184   9.387   4.956
 4314SOL    HW214782   8.321   9.415   4.898
 4315SOL     OW14783   7.140   6.969   8.632
 4315SOL    HW114784   7.045   6.981   8.639
 4315SOL    HW214785   7.164   7.023   8.556
 4316SOL     OW14786   1.744  13.935   9.487
 4316SOL    HW114787   1.801  13.865   9.455
 4316SOL    HW214788   1.688  13.892   9.551
 4317SOL     OW14789   9.763   1.630  14.214
 4317SOL    HW114790   9.691   1.629  14.277
 4317SOL    HW214791   9.830   1.686  14.255
 4318SOL     OW14792   8.592  10.553  10.431
 4318SOL    HW114793   8.609  10.507  10.513
 4318SOL    HW214794   8.497  10.566  10.430
 4319SOL     OW14795   8.274  13.215   3.974
 4319SOL    HW114796   8.298  13.304   3.947
 4319SOL    HW214797   8.282  13.163   3.894
 4320SOL     OW14798   2.962  12.470   9.182
 4320SOL    HW114799   3.026  12.536   9.210
 4320SOL    HW214800   3.015  12.401   9.142
 4321SOL     OW14801   7.519  13.960   2.502
 4321SOL    HW114802   7.439  13.931   2.546
 4321SOL    HW214803   7.580  13.887   2.513
 4322SOL     OW14804   1.292  12.553   1.966
 4322SOL    HW114805   1.328  12.613   1.900
 4322SOL    HW214806   1.208  12.525   1.930
 4323SOL     OW14807  11.923  13.989   7.867
 4323SOL    HW114808  11.934  13.910   7.813
 4323SOL    HW214809  11.879  13.957   7.946
 4324SOL     OW14810  12.102   8.920   8.529
 4324SOL    HW114811  12.033   8.856   8.512
 4324SOL    HW214812  12.178   8.867   8.555
 4325SOL     OW14813   1.156   5.388   9.841
 4325SOL    HW114814   1.160   5.295   9.818
 4325SOL    HW214815   1.193   5.433   9.764
 4326SOL     OW14816   0.878   2.545   0.679
 4326SOL    HW114817   0.832   2.603   0.741
 4326SOL    HW214818   0.852   2.457   0.706
 4327SOL     OW14819  13.382  11.180   9.187
 4327SOL    HW114820  13.365  11.115   9.255
 4327SOL    HW214821  13.473  11.166   9.162
 4328SOL     OW14822  12.540   2.095   0.811
 4328SOL    HW114823  12.499   2.084   0.897
 4328SOL    HW214824  12.553   2.189   0.803
 4329SOL     OW14825  10.341   9.464  11.311
 4329SOL    HW114826  10.329   9.497  11.222
 4329SOL    HW214827  10.252   9.456  11.346
 4330SOL     OW14828   1.881  14.624  12.022
 4330SOL    HW114829   1.977  14.614  12.023
 4330SOL    HW214830   1.852  14.573  12.098
 4331SOL     OW14831   7.912   6.599   9.926
 4331SOL    HW114832   7.854   6.524   9.916
 4331SOL    HW214833   7.933   6.626   9.837
 4332SOL     OW14834  12.075   9.662  10.959
 4332SOL    HW114835  12.020   9.589  10.984
 4332SOL    HW214836  12.015   9.727  10.922
 4333SOL     OW14837  13.326   6.012   4.121
 4333SOL    HW114838  13.416   5.981   4.122
 4333SOL    HW214839  13.311   6.046   4.209
 4334SOL     OW14840  13.003  11.126   4.526
 4334SOL    HW114841  12.909  11.141   4.531
 4334SOL    HW214842  13.031  11.174   4.448
 4335SOL     OW14843  10.070   3.542  11.027
 4335SOL    HW114844  10.019   3.590  10.961
 4335SOL    HW214845  10.086   3.607  11.095
 4336SOL     OW14846  11.629   1.815   8.309
 4336SOL    HW114847  11.589   1.900   8.326
 4336SOL    HW214848  11.709   1.836   8.261
 4337SOL     OW14849  13.893   3.221   8.465
 4337SOL    HW114850  13.874   3.134   8.428
 4337SOL    HW214851  13.973   3.249   8.419
 4338SOL     OW14852  12.705   6.958   6.156
 4338SOL    HW114853  12.704   6.863   6.148
 4338SOL    HW214854  12.788   6.977   6.200
 4339SOL     OW14855  12.918   8.721  12.611
 4339SOL    HW114856  12.853   8.733  12.542
 4339SOL    HW214857  12.990   8.778  12.586
 4340SOL     OW14858   0.378  11.480   4.520
 4340SOL    HW114859   0.314  11.440   4.461
 4340SOL    HW214860   0.422  11.406   4.562
 4341SOL     OW14861   5.790   7.620  14.637
 4341SOL    HW114862   5.714   7.563  14.644
 4341SOL    HW214863   5.755   7.705  14.611
 4342SOL     OW14864   9.711   6.224   0.577
 4342SOL    HW114865   9.670   6.299   0.621
 4342SOL    HW214866   9.703   6.244   0.484
 4343SOL     OW14867  13.065   6.198  13.522
 4343SOL    HW114868  12.978   6.161  13.532
 4343SOL    HW214869  13.117   6.157  13.591
 4344SOL     OW14870   4.225  11.811   9.020
 4344SOL    HW114871   4.283  11.740   8.991
 4344SOL    HW214872   4.199  11.855   8.939
 4345SOL     OW14873  13.549  12.633  11.554
 4345SOL    HW114874  13.572  12.541  11.567
 4345SOL    HW214875  13.629  12.681  11.576
 4346SOL     OW14876   8.070   1.586  12.885
 4346SOL    HW114877   8.137   1.549  12.827
 4346SOL    HW214878   8.049   1.671  12.845
 4347SOL     OW14879   8.321   4.902   0.563
 4347SOL    HW114880   8.252   4.936   0.506
 4347SOL    HW214881   8.321   4.961   0.638
 4348SOL     OW14882   9.909  10.233  11.952
 4348SOL    HW114883   9.986  10.212  11.899
 4348SOL    HW214884   9.945  10.260  12.037
 4349SOL     OW14885   1.795   1.448   2.278
 4349SOL    HW114886   1.701   1.467   2.275
 4349SOL    HW214887   1.808   1.382   2.209
 4350SOL     OW14888  14.777  12.546   8.877
 4350SOL    HW114889  14.724  12.622   8.901
 4350SOL    HW214890  14.756  12.480   8.943
 4351SOL     OW14891   4.656   6.226  14.543
 4351SOL    HW114892   4.669   6.248  14.451
 4351SOL    HW214893   4.719   6.155  14.559
 4352SOL     OW14894   2.348   8.318  12.719
 4352SOL    HW114895   2.403   8.363  12.655
 4352SOL    HW214896   2.321   8.237  12.674
 4353SOL     OW14897   6.285   9.839   8.420
 4353SOL    HW114898   6.257   9.924   8.453
 4353SOL    HW214899   6.268   9.778   8.492
 4354SOL     OW14900   1.181   3.952   1.415
 4354SOL    HW114901   1.215   3.900   1.488
 4354SOL    HW214902   1.147   4.031   1.456
 4355SOL     OW14903   8.608   9.001   7.444
 4355SOL    HW114904   8.557   9.042   7.374
 4355SOL    HW214905   8.699   9.012   7.416
 4356SOL     OW14906  11.750  14.430  10.728
 4356SOL    HW114907  11.783  14.488  10.660
 4356SOL    HW214908  11.665  14.467  10.752
 4357SOL     OW14909   4.666  11.544   4.681
 4357SOL    HW114910   4.738  11.576   4.736
 4357SOL    HW214911   4.589  11.592   4.713
 4358SOL     OW14912   4.765  11.762  13.643
 4358SOL    HW114913   4.820  11.742  13.568
 4358SOL    HW214914   4.744  11.855  13.633
 4359SOL     OW14915   5.052   9.738   4.640
 4359SOL    HW114916   5.041   9.731   4.734
 4359SOL    HW214917   5.023   9.827   4.618
 4360SOL     OW14918   0.507   9.150  13.129
 4360SOL    HW114919   0.457   9.160  13.210
 4360SOL    HW214920   0.468   9.074  13.086
 4361SOL     OW14921   5.950   1.519   0.781
 4361SOL    HW114922   6.028   1.515   0.837
 4361SOL    HW214923   5.947   1.433   0.739
 4362SOL     OW14924   1.666   9.916   3.020
 4362SOL    HW114925   1.607   9.861   3.072
 4362SOL    HW214926   1.723   9.854   2.974
 4363SOL     OW14927   8.088   2.497  14.108
 4363SOL    HW114928   8.100   2.559  14.180
 4363SOL    HW214929   8.089   2.411  14.150
 4364SOL     OW14930  12.733  13.548  14.738
 4364SOL    HW114931  12.652  13.576  14.697
 4364SOL    HW214932  12.736  13.594  14.822
 4365SOL     OW14933   9.991   8.178   9.359
 4365SOL    HW114934   9.967   8.088   9.338
 4365SOL    HW214935  10.071   8.195   9.310
 4366SOL     OW14936   5.832   2.813   1.748
 4366SOL    HW114937   5.742   2.798   1.777
 4366SOL    HW214938   5.853   2.738   1.693
 4367SOL     OW14939   5.662   4.074   8.959
 4367SOL    HW114940   5.710   4.111   9.033
 4367SOL    HW214941   5.714   3.998   8.932
 4368SOL     OW14942   9.323   2.461   6.465
 4368SOL    HW114943   9.239   2.467   6.510
 4368SOL    HW214944   9.317   2.380   6.413
 4369SOL     OW14945   7.252   7.540   1.424
 4369SOL    HW114946   7.266   7.446   1.411
 4369SOL    HW214947   7.313   7.563   1.494
 4370SOL     OW14948   7.076   9.845  11.827
 4370SOL    HW114949   7.113   9.921  11.871
 4370SOL    HW214950   6.982   9.852  11.841
 4371SOL     OW14951  12.348   5.896   3.501
 4371SOL    HW114952  12.341   5.985   3.536
 4371SOL    HW214953  12.407   5.904   3.426
 4372SOL     OW14954   9.999  14.534   2.324
 4372SOL    HW114955  10.017  14.592   2.250
 4372SOL    HW214956   9.989  14.594   2.399
 4373SOL     OW14957   7.096   9.883   4.139
 4373SOL    HW114958   7.025   9.946   4.147
 4373SOL    HW214959   7.071   9.811   4.196
 4374SOL     OW14960   6.549   7.002   0.632
 4374SOL    HW114961   6.575   6.968   0.547
 4374SOL    HW214962   6.502   7.083   0.612
 4375SOL     OW14963   7.850   3.123   2.431
 4375SOL    HW114964   7.785   3.078   2.378
 4375SOL    HW214965   7.816   3.212   2.441
 4376SOL     OW14966   9.822  13.204   4.383
 4376SOL    HW114967   9.847  13.268   4.317
 4376SOL    HW214968   9.895  13.142   4.387
 4377SOL     OW14969   3.892   5.951   1.062
 4377SOL    HW114970   3.821   6.014   1.048
 4377SOL    HW214971   3.870   5.877   1.005
 4378SOL     OW14972   0.490   6.551   1.425
 4378SOL    HW114973   0.426   6.518   1.488
 4378SOL    HW214974   0.539   6.474   1.397
 4379SOL     OW14975  12.132   5.081   9.708
 4379SOL    HW114976  12.044   5.073   9.672
 4379SOL    HW214977  12.185   5.020   9.656
 4380SOL     OW14978  12.039   3.305   9.039
 4380SOL    HW114979  11.945   3.301   9.055
 4380SOL    HW214980  12.048   3.307   8.944
 4381SOL     OW14981   5.057   0.213   4.351
 4381SOL    HW114982   5.152   0.201   4.346
 4381SOL    HW214983   5.036   0.200   4.443
 4382SOL     OW14984   1.102   3.975   4.011
 4382SOL    HW114985   1.170   3.914   3.982
 4382SOL    HW214986   1.062   4.008   3.930
 4383SOL     OW14987   1.514   2.536   2.707
 4383SOL    HW114988   1.424   2.507   2.692
 4383SOL    HW214989   1.527   2.524   2.801
 4384SOL     OW14990   3.618  14.860   5.395
 4384SOL    HW114991   3.528   0.007   5.418
 4384SOL    HW214992   3.643  14.795   5.460
 4385SOL     OW14993  11.198   7.176   4.322
 4385SOL    HW114994  11.171   7.089   4.291
 4385SOL    HW214995  11.129   7.234   4.291
 4386SOL     OW14996  13.796   1.318   7.334
 4386SOL    HW114997  13.738   1.385   7.296
 4386SOL    HW214998  13.861   1.301   7.267
 4387SOL     OW14999   0.054   1.478  11.857
 4387SOL    HW115000   0.097   1.560  11.879
 4387SOL    HW215001   0.125   1.418  11.835
 4388SOL     OW15002   2.291   1.184   2.767
 4388SOL    HW115003   2.325   1.241   2.698
 4388SOL    HW215004   2.247   1.243   2.828
 4389SOL     OW15005   8.393  12.618   5.281
 4389SOL    HW115006   8.334  12.569   5.338
 4389SOL    HW215007   8.362  12.600   5.192
 4390SOL     OW15008  13.600  12.028  13.478
 4390SOL    HW115009  13.604  11.935  13.500
 4390SOL    HW215010  13.680  12.045  13.429
 4391SOL     OW15011   7.912   3.461   3.212
 4391SOL    HW115012   7.982   3.449   3.277
 4391SOL    HW215013   7.876   3.547   3.232
 4392SOL     OW15014   1.646  11.795   9.688
 4392SOL    HW115015   1.714  11.818   9.751
 4392SOL    HW215016   1.565  11.795   9.739
 4393SOL     OW15017   1.507   6.639  13.389
 4393SOL    HW115018   1.536   6.577  13.457
 4393SOL    HW215019   1.574   6.708  13.390
 4394SOL     OW15020  13.159   1.636  10.236
 4394SOL    HW115021  13.157   1.560  10.178
 4394SOL    HW215022  13.117   1.706  10.185
 4395SOL     OW15023  10.061  11.137  11.830
 4395SOL    HW115024  10.102  11.072  11.774
 4395SOL    HW215025   9.973  11.104  11.846
 4396SOL     OW15026   7.192  11.884   7.035
 4396SOL    HW115027   7.205  11.790   7.027
 4396SOL    HW215028   7.171  11.898   7.128
 4397SOL     OW15029  11.290  10.902   8.633
 4397SOL    HW115030  11.372  10.857   8.650
 4397SOL    HW215031  11.260  10.933   8.718
 4398SOL     OW15032  13.488   1.947   0.238
 4398SOL    HW115033  13.438   1.911   0.311
 4398SOL    HW215034  13.431   2.013   0.200
 4399SOL     OW15035   1.040   2.278  14.110
 4399SOL    HW115036   1.037   2.277  14.206
 4399SOL    HW215037   1.035   2.186  14.085
 4400SOL     OW15038   5.610  10.362   0.260
 4400SOL    HW115039   5.626  10.456   0.248
 4400SOL    HW215040   5.518  10.357   0.285
 4401SOL     OW15041   4.201   9.149  10.881
 4401SOL    HW115042   4.191   9.222  10.942
 4401SOL    HW215043   4.243   9.188  10.804
 4402SOL     OW15044   9.982   2.016  14.672
 4402SOL    HW115045  10.004   1.953  14.740
 4402SOL    HW215046   9.890   2.001  14.653
 4403SOL     OW15047  12.174   9.856   0.090
 4403SOL    HW115048  12.124   9.866   0.009
 4403SOL    HW215049  12.111   9.819   0.153
 4404SOL     OW15050   8.121   5.149  11.403
 4404SOL    HW115051   8.155   5.084  11.464
 4404SOL    HW215052   8.151   5.233  11.438
 4405SOL     OW15053   1.028   5.539   0.273
 4405SOL    HW115054   0.942   5.524   0.233
 4405SOL    HW215055   1.010   5.598   0.346
 4406SOL     OW15056   8.269   0.244   0.186
 4406SOL    HW115057   8.278   0.177   0.253
 4406SOL    HW215058   8.344   0.230   0.128
 4407SOL     OW15059   4.672   9.220   0.487
 4407SOL    HW115060   4.598   9.166   0.461
 4407SOL    HW215061   4.692   9.272   0.409
 4408SOL     OW15062   9.398   5.426   1.198
 4408SOL    HW115063   9.451   5.469   1.131
 4408SOL    HW215064   9.308   5.430   1.165
 4409SOL     OW15065  12.640   6.463   5.126
 4409SOL    HW115066  12.614   6.391   5.182
 4409SOL    HW215067  12.607   6.541   5.170
 4410SOL     OW15068  13.415   7.437   2.783
 4410SOL    HW115069  13.377   7.446   2.696
 4410SOL    HW215070  13.352   7.478   2.842
 4411SOL     OW15071  13.299   0.305   1.447
 4411SOL    HW115072  13.331   0.395   1.439
 4411SOL    HW215073  13.373   0.257   1.486
 4412SOL     OW15074   8.655  11.884   0.995
 4412SOL    HW115075   8.606  11.893   1.077
 4412SOL    HW215076   8.731  11.831   1.018
 4413SOL     OW15077   6.477  10.625   9.708
 4413SOL    HW115078   6.536  10.634   9.784
 4413SOL    HW215079   6.407  10.688   9.724
 4414SOL     OW15080   8.807  10.110   2.002
 4414SOL    HW115081   8.895  10.149   1.999
 4414SOL    HW215082   8.796  10.072   1.915
 4415SOL     OW15083   3.141   9.734   9.846
 4415SOL    HW115084   3.188   9.780   9.777
 4415SOL    HW215085   3.071   9.687   9.801
 4416SOL     OW15086   4.028  10.798   3.334
 4416SOL    HW115087   4.103  10.843   3.294
 4416SOL    HW215088   4.036  10.816   3.427
 4417SOL     OW15089   3.178   8.276  13.475
 4417SOL    HW115090   3.149   8.361  13.508
 4417SOL    HW215091   3.274   8.282  13.475
 4418SOL     OW15092   8.907  13.315  14.615
 4418SOL    HW115093   8.965  13.262  14.561
 4418SOL    HW215094   8.892  13.395  14.564
 4419SOL     OW15095  14.204   9.275   1.424
 4419SOL    HW115096  14.283   9.273   1.479
 4419SOL    HW215097  14.138   9.316   1.480
 4420SOL     OW15098   4.942   4.416  12.723
 4420SOL    HW115099   4.969   4.470  12.649
 4420SOL    HW215100   4.853   4.446  12.744
 4421SOL     OW15101  12.238   1.207   1.955
 4421SOL    HW115102  12.256   1.135   2.016
 4421SOL    HW215103  12.289   1.185   1.877
 4422SOL     OW15104   6.950   9.733   7.152
 4422SOL    HW115105   7.005   9.674   7.205
 4422SOL    HW215106   6.948   9.692   7.065
 4423SOL     OW15107   8.073   1.493   7.344
 4423SOL    HW115108   7.991   1.534   7.371
 4423SOL    HW215109   8.106   1.550   7.275
 4424SOL     OW15110  13.548  10.872   8.917
 4424SOL    HW115111  13.519  10.781   8.916
 4424SOL    HW215112  13.477  10.921   8.876
 4425SOL     OW15113  14.317  10.729  12.689
 4425SOL    HW115114  14.381  10.769  12.631
 4425SOL    HW215115  14.336  10.766  12.775
 4426SOL     OW15116  13.071   8.783   3.989
 4426SOL    HW115117  13.157   8.779   4.030
 4426SOL    HW215118  13.086   8.825   3.904
 4427SOL     OW15119  11.602  12.648   9.795
 4427SOL    HW115120  11.566  12.560   9.784
 4427SOL    HW215121  11.646  12.667   9.712
 4428SOL     OW15122   0.839  10.090   7.043
 4428SOL    HW115123   0.835  10.161   7.106
 4428SOL    HW215124   0.747  10.068   7.025
 4429SOL     OW15125  11.533  14.689   0.713
 4429SOL    HW115126  11.531  14.597   0.741
 4429SOL    HW215127  11.567  14.737   0.788
 4430SOL     OW15128   8.501   1.500   8.901
 4430SOL    HW115129   8.529   1.568   8.962
 4430SOL    HW215130   8.575   1.487   8.843
 4431SOL     OW15131   3.782   5.850   0.491
 4431SOL    HW115132   3.775   5.936   0.448
 4431SOL    HW215133   3.839   5.865   0.565
 4432SOL     OW15134   0.963   1.577  14.170
 4432SOL    HW115135   1.048   1.600  14.208
 4432SOL    HW215136   0.972   1.596  14.077
 4433SOL     OW15137   9.297   3.395   3.833
 4433SOL    HW115138   9.296   3.318   3.777
 4433SOL    HW215139   9.222   3.383   3.892
 4434SOL     OW15140  14.223   5.479   2.069
 4434SOL    HW115141  14.295   5.420   2.091
 4434SOL    HW215142  14.256   5.566   2.089
 4435SOL     OW15143   3.935   0.548   3.309
 4435SOL    HW115144   3.899   0.494   3.240
 4435SOL    HW215145   3.858   0.584   3.354
 4436SOL     OW15146   8.521   9.510  12.136
 4436SOL    HW115147   8.604   9.490  12.179
 4436SOL    HW215148   8.461   9.533  12.207
 4437SOL     OW15149   8.738  13.004   1.317
 4437SOL    HW115150   8.670  13.046   1.265
 4437SOL    HW215151   8.697  12.925   1.351
 4438SOL     OW15152  12.025   6.003   9.481
 4438SOL    HW115153  12.116   5.983   9.501
 4438SOL    HW215154  12.005   6.081   9.533
 4439SOL     OW15155  10.083   0.884  13.821
 4439SOL    HW115156  10.049   0.818  13.881
 4439SOL    HW215157  10.174   0.898  13.849
 4440SOL     OW15158   0.993   5.569   6.159
 4440SOL    HW115159   0.969   5.658   6.184
 4440SOL    HW215160   1.021   5.528   6.240
 4441SOL     OW15161   7.234   5.865   1.346
 4441SOL    HW115162   7.256   5.941   1.293
 4441SOL    HW215163   7.162   5.823   1.300
 4442SOL     OW15164  13.773   4.822   1.597
 4442SOL    HW115165  13.808   4.862   1.677
 4442SOL    HW215166  13.697   4.876   1.575
 4443SOL     OW15167  14.127   9.826   7.994
 4443SOL    HW115168  14.096   9.783   7.915
 4443SOL    HW215169  14.159   9.911   7.964
 4444SOL     OW15170  14.411   3.769  10.485
 4444SOL    HW115171  14.357   3.772  10.406
 4444SOL    HW215172  14.373   3.698  10.537
 4445SOL     OW15173   3.684   9.884  12.655
 4445SOL    HW115174   3.637   9.853  12.577
 4445SOL    HW215175   3.755   9.938  12.621
 4446SOL     OW15176   5.037   4.522  10.493
 4446SOL    HW115177   5.087   4.544  10.414
 4446SOL    HW215178   4.949   4.557  10.476
 4447SOL     OW15179  12.873   5.807   1.303
 4447SOL    HW115180  12.782   5.791   1.280
 4447SOL    HW215181  12.900   5.728   1.349
 4448SOL     OW15182   6.762   0.157  14.611
 4448SOL    HW115183   6.815   0.077  14.614
 4448SOL    HW215184   6.816   0.223  14.654
 4449SOL     OW15185   8.694   7.683  11.567
 4449SOL    HW115186   8.700   7.774  11.597
 4449SOL    HW215187   8.784   7.650  11.571
 4450SOL     OW15188   4.422  11.228  10.659
 4450SOL    HW115189   4.384  11.302  10.611
 4450SOL    HW215190   4.478  11.184  10.596
 4451SOL     OW15191   1.919   4.230   1.592
 4451SOL    HW115192   1.952   4.280   1.517
 4451SOL    HW215193   1.936   4.287   1.668
 4452SOL     OW15194  10.220   1.662  11.612
 4452SOL    HW115195  10.159   1.671  11.539
 4452SOL    HW215196  10.170   1.618  11.681
 4453SOL     OW15197   8.482   8.631   4.273
 4453SOL    HW115198   8.445   8.618   4.186
 4453SOL    HW215199   8.460   8.550   4.320
 4454SOL     OW15200  12.994   0.156   7.012
 4454SOL    HW115201  12.929   0.201   6.957
 4454SOL    HW215202  13.015   0.219   7.081
 4455SOL     OW15203   0.675   7.998   9.739
 4455SOL    HW115204   0.658   7.914   9.781
 4455SOL    HW215205   0.768   8.015   9.754
 4456SOL     OW15206  12.768   7.164  14.672
 4456SOL    HW115207  12.713   7.131  14.601
 4456SOL    HW215208  12.723   7.242  14.704
 4457SOL     OW15209   4.294   3.299  13.458
 4457SOL    HW115210   4.209   3.255  13.462
 4457SOL    HW215211   4.278   3.376  13.404
 4458SOL     OW15212   6.137  10.031   7.667
 4458SOL    HW115213   6.077  10.018   7.740
 4458SOL    HW215214   6.197  10.099   7.697
 4459SOL     OW15215   0.996  10.712   4.331
 4459SOL    HW115216   0.908  10.678   4.350
 4459SOL    HW215217   1.048  10.688   4.407
 4460SOL     OW15218  11.831   0.711   5.099
 4460SOL    HW115219  11.854   0.627   5.137
 4460SOL    HW215220  11.747   0.733   5.138
 4461SOL     OW15221   9.095   9.186   4.646
 4461SOL    HW115222   9.091   9.198   4.551
 4461SOL    HW215223   9.003   9.191   4.674
 4462SOL     OW15224   7.175   4.755  10.952
 4462SOL    HW115225   7.192   4.715  11.037
 4462SOL    HW215226   7.241   4.824  10.944
 4463SOL     OW15227  13.775   4.791   7.506
 4463SOL    HW115228  13.837   4.718   7.500
 4463SOL    HW215229  13.733   4.778   7.592
 4464SOL     OW15230   4.390   0.630   9.696
 4464SOL    HW115231   4.464   0.593   9.647
 4464SOL    HW215232   4.429   0.662   9.777
 4465SOL     OW15233   1.973   0.498   7.880
 4465SOL    HW115234   1.897   0.556   7.878
 4465SOL    HW215235   1.995   0.484   7.788
 4466SOL     OW15236  14.212  12.693  13.196
 4466SOL    HW115237  14.180  12.730  13.114
 4466SOL    HW215238  14.298  12.657  13.174
 4467SOL     OW15239   2.761  11.152   2.675
 4467SOL    HW115240   2.837  11.095   2.669
 4467SOL    HW215241   2.798  11.240   2.686
 4468SOL     OW15242   0.541   5.935   0.004
 4468SOL    HW115243   0.547   5.851  14.835
 4468SOL    HW215244   0.450   5.939   0.035
 4469SOL     OW15245  14.134  13.064  10.298
 4469SOL    HW115246  14.154  13.071  10.392
 4469SOL    HW215247  14.065  12.998  10.294
 4470SOL     OW15248   0.193   7.524   3.566
 4470SOL    HW115249   0.128   7.455   3.560
 4470SOL    HW215250   0.274   7.479   3.591
 4471SOL     OW15251  10.109   0.859  13.491
 4471SOL    HW115252  10.140   0.772  13.519
 4471SOL    HW215253  10.081   0.901  13.572
 4472SOL     OW15254   5.365   1.222  12.809
 4472SOL    HW115255   5.363   1.310  12.846
 4472SOL    HW215256   5.284   1.181  12.839
 4473SOL     OW15257   6.124   1.963  14.260
 4473SOL    HW115258   6.209   2.003  14.243
 4473SOL    HW215259   6.067   1.997  14.191
 4474SOL     OW15260  13.785  11.933   7.892
 4474SOL    HW115261  13.787  12.027   7.907
 4474SOL    HW215262  13.810  11.922   7.800
 4475SOL     OW15263  10.569   4.630  10.688
 4475SOL    HW115264  10.593   4.710  10.641
 4475SOL    HW215265  10.620   4.634  10.769
 4476SOL     OW15266   4.327  14.860   4.746
 4476SOL    HW115267   4.284  14.839   4.828
 4476SOL    HW215268   4.286  14.803   4.681
 4477SOL     OW15269  10.621   7.827   7.626
 4477SOL    HW115270  10.617   7.793   7.536
 4477SOL    HW215271  10.558   7.899   7.627
 4478SOL     OW15272  10.955   0.147   7.825
 4478SOL    HW115273  11.024   0.196   7.780
 4478SOL    HW215274  10.899   0.115   7.754
 4479SOL     OW15275  12.828   9.193   2.762
 4479SOL    HW115276  12.798   9.181   2.852
 4479SOL    HW215277  12.803   9.282   2.740
 4480SOL     OW15278  14.473   5.869  12.344
 4480SOL    HW115279  14.560   5.897  12.318
 4480SOL    HW215280  14.459   5.786  12.299
 4481SOL     OW15281   1.331   1.759   2.407
 4481SOL    HW115282   1.353   1.846   2.440
 4481SOL    HW215283   1.259   1.730   2.462
 4482SOL     OW15284   5.979   9.509  12.160
 4482SOL    HW115285   5.962   9.430  12.211
 4482SOL    HW215286   5.934   9.579  12.208
 4483SOL     OW15287   4.701   6.168   0.064
 4483SOL    HW115288   4.716   6.095   0.004
 4483SOL    HW215289   4.716   6.131   0.151
 4484SOL     OW15290   6.595   7.996  13.878
 4484SOL    HW115291   6.548   7.938  13.818
 4484SOL    HW215292   6.556   8.082  13.864
 4485SOL     OW15293   9.449  10.493   6.684
 4485SOL    HW115294   9.518  10.482   6.750
 4485SOL    HW215295   9.461  10.582   6.652
 4486SOL     OW15296   4.113  14.196  11.925
 4486SOL    HW115297   4.082  14.217  11.837
 4486SOL    HW215298   4.206  14.221  11.924
 4487SOL     OW15299   8.224  11.643   4.032
 4487SOL    HW115300   8.279  11.569   4.005
 4487SOL    HW215301   8.193  11.618   4.119
 4488SOL     OW15302  14.301   3.476   3.838
 4488SOL    HW115303  14.224   3.481   3.895
 4488SOL    HW215304  14.330   3.567   3.828
 4489SOL     OW15305   6.006   1.879  11.574
 4489SOL    HW115306   6.070   1.924  11.629
 4489SOL    HW215307   5.976   1.806  11.628
 4490SOL     OW15308   9.822  13.363   6.838
 4490SOL    HW115309   9.736  13.364   6.878
 4490SOL    HW215310   9.864  13.284   6.872
 4491SOL     OW15311   4.969   3.003   6.852
 4491SOL    HW115312   5.016   3.029   6.931
 4491SOL    HW215313   4.998   2.914   6.834
 4492SOL     OW15314   4.207   3.568   0.598
 4492SOL    HW115315   4.236   3.612   0.518
 4492SOL    HW215316   4.118   3.540   0.578
 4493SOL     OW15317   5.023  13.968   1.262
 4493SOL    HW115318   4.999  13.994   1.173
 4493SOL    HW215319   5.011  13.873   1.263
 4494SOL     OW15320   7.490   2.194  10.780
 4494SOL    HW115321   7.573   2.191  10.732
 4494SOL    HW215322   7.451   2.107  10.767
 4495SOL     OW15323   9.651   8.331   1.174
 4495SOL    HW115324   9.715   8.295   1.236
 4495SOL    HW215325   9.665   8.425   1.176
 4496SOL     OW15326   6.728   0.048   8.563
 4496SOL    HW115327   6.780  14.845   8.572
 4496SOL    HW215328   6.647   0.018   8.520
 4497SOL     OW15329   7.958  13.181   2.527
 4497SOL    HW115330   7.863  13.192   2.531
 4497SOL    HW215331   7.985  13.226   2.447
 4498SOL     OW15332  14.138   5.430   7.715
 4498SOL    HW115333  14.117   5.437   7.622
 4498SOL    HW215334  14.066   5.474   7.759
 4499SOL     OW15335   0.817  11.964  14.257
 4499SOL    HW115336   0.797  12.048  14.298
 4499SOL    HW215337   0.820  11.902  14.329
 4500SOL     OW15338  10.667  14.423  14.757
 4500SOL    HW115339  10.652  14.497  14.816
 4500SOL    HW215340  10.701  14.354  14.814
 4501SOL     OW15341   0.187   2.627   0.318
 4501SOL    HW115342   0.108   2.599   0.272
 4501SOL    HW215343   0.258   2.602   0.260
 4502SOL     OW15344   4.751   7.273  10.830
 4502SOL    HW115345   4.803   7.259  10.909
 4502SOL    HW215346   4.776   7.202  10.771
 4503SOL     OW15347   7.969   3.788  11.275
 4503SOL    HW115348   7.968   3.861  11.337
 4503SOL    HW215349   8.052   3.796  11.229
 4504SOL     OW15350   0.857   1.428   2.848
 4504SOL    HW115351   0.938   1.424   2.899
 4504SOL    HW215352   0.792   1.462   2.910
 4505SOL     OW15353   5.678  12.413   1.234
 4505SOL    HW115354   5.649  12.505   1.238
 4505SOL    HW215355   5.659  12.386   1.144
 4506SOL     OW15356  10.599   5.276   0.680
 4506SOL    HW115357  10.650   5.345   0.722
 4506SOL    HW215358  10.626   5.279   0.588
 4507SOL     OW15359  10.986   0.581   5.655
 4507SOL    HW115360  11.013   0.503   5.702
 4507SOL    HW215361  10.934   0.630   5.719
 4508SOL     OW15362   8.718   2.401  14.428
 4508SOL    HW115363   8.737   2.434  14.340
 4508SOL    HW215364   8.652   2.334  14.414
 4509SOL     OW15365   5.561   0.333   5.897
 4509SOL    HW115366   5.523   0.279   5.828
 4509SOL    HW215367   5.588   0.413   5.852
 4510SOL     OW15368   2.344   2.008  12.121
 4510SOL    HW115369   2.323   1.940  12.057
 4510SOL    HW215370   2.343   2.089  12.071
 4511SOL     OW15371   6.856   3.584  13.931
 4511SOL    HW115372   6.914   3.584  13.855
 4511SOL    HW215373   6.837   3.491  13.946
 4512SOL     OW15374   5.293   5.618   9.581
 4512SOL    HW115375   5.210   5.662   9.598
 4512SOL    HW215376   5.306   5.627   9.487
 4513SOL     OW15377   0.815  12.566   5.586
 4513SOL    HW115378   0.845  12.597   5.672
 4513SOL    HW215379   0.759  12.636   5.554
 4514SOL     OW15380   6.862   3.183   7.230
 4514SOL    HW115381   6.781   3.222   7.263
 4514SOL    HW215382   6.842   3.091   7.217
 4515SOL     OW15383   6.356   4.819   1.367
 4515SOL    HW115384   6.272   4.798   1.327
 4515SOL    HW215385   6.398   4.734   1.382
 4516SOL     OW15386   4.701   4.475  12.608
 4516SOL    HW115387   4.628   4.536  12.620
 4516SOL    HW215388   4.688   4.437  12.521
 4517SOL     OW15389   7.483   4.388   6.065
 4517SOL    HW115390   7.454   4.328   5.997
 4517SOL    HW215391   7.491   4.473   6.021
 4518SOL     OW15392  10.394   6.289  12.473
 4518SOL    HW115393  10.438   6.336  12.402
 4518SOL    HW215394  10.438   6.319  12.553
 4519SOL     OW15395   5.123   0.019  12.944
 4519SOL    HW115396   5.217   0.017  12.960
 4519SOL    HW215397   5.097   0.109  12.960
 4520SOL     OW15398   6.267   6.292   9.743
 4520SOL    HW115399   6.295   6.204   9.771
 4520SOL    HW215400   6.177   6.299   9.775
 4521SOL     OW15401   5.726  10.173  11.859
 4521SOL    HW115402   5.738  10.263  11.887
 4521SOL    HW215403   5.769  10.168  11.773
 4522SOL     OW15404  14.577   7.562  10.454
 4522SOL    HW115405  14.585   7.568  10.549
 4522SOL    HW215406  14.484   7.576  10.436
 4523SOL     OW15407  11.608   5.514   4.301
 4523SOL    HW115408  11.642   5.538   4.214
 4523SOL    HW215409  11.548   5.585   4.324
 4524SOL     OW15410  13.083   3.244  13.583
 4524SOL    HW115411  13.176   3.222  13.584
 4524SOL    HW215412  13.060   3.258  13.675
 4525SOL     OW15413   7.762   5.608  12.547
 4525SOL    HW115414   7.714   5.629  12.627
 4525SOL    HW215415   7.756   5.687  12.494
 4526SOL     OW15416   2.787  14.236  12.971
 4526SOL    HW115417   2.763  14.210  13.060
 4526SOL    HW215418   2.881  14.254  12.976
 4527SOL     OW15419  11.131   8.398   8.666
 4527SOL    HW115420  11.071   8.472   8.664
 4527SOL    HW215421  11.206   8.429   8.717
 4528SOL     OW15422   4.256   8.615   6.151
 4528SOL    HW115423   4.229   8.707   6.153
 4528SOL    HW215424   4.351   8.617   6.167
 4529SOL     OW15425  12.850  12.992  11.183
 4529SOL    HW115426  12.946  12.994  11.177
 4529SOL    HW215427  12.826  13.083  11.202
 4530SOL     OW15428   3.015   4.019   3.513
 4530SOL    HW115429   3.056   4.097   3.549
 4530SOL    HW215430   3.039   3.949   3.574
 4531SOL     OW15431   4.571  14.032  11.937
 4531SOL    HW115432   4.629  13.977  11.885
 4531SOL    HW215433   4.499  14.054  11.877
 4532SOL     OW15434   0.644  13.725   4.831
 4532SOL    HW115435   0.626  13.809   4.873
 4532SOL    HW215436   0.708  13.746   4.763
 4533SOL     OW15437   7.864   7.278   7.133
 4533SOL    HW115438   7.865   7.193   7.177
 4533SOL    HW215439   7.936   7.273   7.070
 4534SOL     OW15440   8.053   4.353   2.129
 4534SOL    HW115441   7.971   4.396   2.103
 4534SOL    HW215442   8.065   4.377   2.220
 4535SOL     OW15443   1.429  13.047  11.944
 4535SOL    HW115444   1.434  13.024  11.851
 4535SOL    HW215445   1.342  13.085  11.954
 4536SOL     OW15446  13.083  13.135   9.760
 4536SOL    HW115447  13.018  13.133   9.831
 4536SOL    HW215448  13.159  13.090   9.796
 4537SOL     OW15449   3.074  13.608   0.328
 4537SOL    HW115450   3.085  13.701   0.306
 4537SOL    HW215451   3.131  13.594   0.404
 4538SOL     OW15452   4.544   4.736   7.535
 4538SOL    HW115453   4.509   4.744   7.447
 4538SOL    HW215454   4.550   4.827   7.566
 4539SOL     OW15455   9.809  12.069  13.714
 4539SOL    HW115456   9.777  12.090  13.801
 4539SOL    HW215457   9.787  12.145  13.660
 4540SOL     OW15458   5.344  10.765   1.736
 4540SOL    HW115459   5.318  10.849   1.700
 4540SOL    HW215460   5.423  10.783   1.786
 4541SOL     OW15461   8.179   7.815   0.608
 4541SOL    HW115462   8.249   7.880   0.616
 4541SOL    HW215463   8.131   7.821   0.690
 4542SOL     OW15464   1.382   2.671   1.820
 4542SOL    HW115465   1.361   2.706   1.906
 4542SOL    HW215466   1.348   2.581   1.821
 4543SOL     OW15467   2.775   9.329  14.766
 4543SOL    HW115468   2.724   9.366  14.838
 4543SOL    HW215469   2.851   9.386  14.759
 4544SOL     OW15470  13.293   5.131  11.360
 4544SOL    HW115471  13.384   5.114  11.335
 4544SOL    HW215472  13.285   5.226  11.359
 4545SOL     OW15473   2.924   6.318   2.654
 4545SOL    HW115474   3.014   6.314   2.687
 4545SOL    HW215475   2.889   6.231   2.671
 4546SOL     OW15476   3.659  14.025   7.053
 4546SOL    HW115477   3.568  14.021   7.083
 4546SOL    HW215478   3.702  13.951   7.097
 4547SOL     OW15479   8.195  10.687   3.556
 4547SOL    HW115480   8.247  10.759   3.521
 4547SOL    HW215481   8.219  10.612   3.501
 4548SOL     OW15482   5.421  14.099   1.731
 4548SOL    HW115483   5.346  14.044   1.754
 4548SOL    HW215484   5.426  14.093   1.636
 4549SOL     OW15485  10.042  13.025  10.997
 4549SOL    HW115486  10.056  13.119  11.011
 4549SOL    HW215487  10.075  13.009  10.909
 4550SOL     OW15488   5.087   8.226  11.587
 4550SOL    HW115489   5.140   8.226  11.507
 4550SOL    HW215490   5.005   8.269  11.561
 4551SOL     OW15491   5.498   6.512   4.894
 4551SOL    HW115492   5.498   6.417   4.902
 4551SOL    HW215493   5.408   6.534   4.871
 4552SOL     OW15494   1.018   6.746  11.892
 4552SOL    HW115495   0.960   6.786  11.957
 4552SOL    HW215496   0.966   6.745  11.811
 4553SOL     OW15497  11.580  13.829   2.893
 4553SOL    HW115498  11.626  13.817   2.975
 4553SOL    HW215499  11.618  13.908   2.855
 4554SOL     OW15500  12.632  11.500   1.119
 4554SOL    HW115501  12.598  11.410   1.129
 4554SOL    HW215502  12.661  11.504   1.028
 4555SOL     OW15503   7.197   2.471  10.572
 4555SOL    HW115504   7.205   2.376  10.564
 4555SOL    HW215505   7.113   2.484  10.617
 4556SOL     OW15506   1.428   4.682   0.696
 4556SOL    HW115507   1.398   4.744   0.630
 4556SOL    HW215508   1.522   4.675   0.682
 4557SOL     OW15509   8.826   9.772  10.354
 4557SOL    HW115510   8.730   9.782  10.358
 4557SOL    HW215511   8.846   9.779  10.261
 4558SOL     OW15512   6.530   7.164   3.856
 4558SOL    HW115513   6.585   7.115   3.795
 4558SOL    HW215514   6.446   7.172   3.812
 4559SOL     OW15515   7.596   1.275   0.883
 4559SOL    HW115516   7.620   1.186   0.907
 4559SOL    HW215517   7.648   1.293   0.804
 4560SOL     OW15518   3.241  10.988  14.080
 4560SOL    HW115519   3.285  10.930  14.017
 4560SOL    HW215520   3.187  10.930  14.133
 4561SOL     OW15521   4.438  12.200   2.355
 4561SOL    HW115522   4.371  12.229   2.293
 4561SOL    HW215523   4.477  12.281   2.388
 4562SOL     OW15524  12.636  11.021   1.444
 4562SOL    HW115525  12.684  10.990   1.521
 4562SOL    HW215526  12.693  11.087   1.405
 4563SOL     OW15527   7.308  11.405  14.748
 4563SOL    HW115528   7.232  11.410  14.691
 4563SOL    HW215529   7.337  11.496  14.758
 4564SOL     OW15530   6.202   7.312  14.328
 4564SOL    HW115531   6.142   7.246  14.365
 4564SOL    HW215532   6.270   7.322  14.395
 4565SOL     OW15533   7.501   7.821  12.040
 4565SOL    HW115534   7.437   7.830  12.111
 4565SOL    HW215535   7.498   7.728  12.016
 4566SOL     OW15536   3.459   4.067  14.616
 4566SOL    HW115537   3.409   4.126  14.560
 4566SOL    HW215538   3.496   4.003  14.555
 4567SOL     OW15539   2.834  12.824  12.886
 4567SOL    HW115540   2.876  12.908  12.905
 4567SOL    HW215541   2.773  12.844  12.815
 4568SOL     OW15542  11.187   8.450   8.402
 4568SOL    HW115543  11.205   8.442   8.495
 4568SOL    HW215544  11.149   8.366   8.377
 4569SOL     OW15545   8.752   0.978  12.608
 4569SOL    HW115546   8.828   0.927  12.579
 4569SOL    HW215547   8.758   1.060  12.559
 4570SOL     OW15548  12.349   4.249  13.292
 4570SOL    HW115549  12.294   4.173  13.311
 4570SOL    HW215550  12.405   4.259  13.369
 4571SOL     OW15551   3.750   1.794   0.680
 4571SOL    HW115552   3.716   1.775   0.593
 4571SOL    HW215553   3.677   1.774   0.739
 4572SOL     OW15554   8.387   0.492  14.492
 4572SOL    HW115555   8.381   0.398  14.472
 4572SOL    HW215556   8.479   0.506  14.514
 4573SOL     OW15557   4.422  12.222   5.594
 4573SOL    HW115558   4.359  12.276   5.642
 4573SOL    HW215559   4.461  12.165   5.660
 4574SOL     OW15560   1.228  14.849  10.791
 4574SOL    HW115561   1.250   0.052  10.839
 4574SOL    HW215562   1.132  14.845  10.793
 4575SOL     OW15563   5.636   1.541   2.431
 4575SOL    HW115564   5.604   1.624   2.394
 4575SOL    HW215565   5.646   1.484   2.355
 4576SOL     OW15566  12.839   0.919   6.846
 4576SOL    HW115567  12.922   0.951   6.881
 4576SOL    HW215568  12.865   0.858   6.776
 4577SOL     OW15569  11.990   8.374   0.506
 4577SOL    HW115570  12.060   8.349   0.445
 4577SOL    HW215571  11.995   8.469   0.512
 4578SOL     OW15572  14.247   8.537   5.402
 4578SOL    HW115573  14.316   8.475   5.426
 4578SOL    HW215574  14.171   8.509   5.453
 4579SOL     OW15575   8.470   3.326   6.169
 4579SOL    HW115576   8.394   3.384   6.179
 4579SOL    HW215577   8.476   3.311   6.074
 4580SOL     OW15578   0.687   8.577   8.489
 4580SOL    HW115579   0.606   8.628   8.496
 4580SOL    HW215580   0.742   8.612   8.559
 4581SOL     OW15581   4.114   0.959   8.284
 4581SOL    HW115582   4.074   1.037   8.247
 4581SOL    HW215583   4.143   0.986   8.371
 4582SOL     OW15584   7.235  13.039  13.174
 4582SOL    HW115585   7.217  13.121  13.220
 4582SOL    HW215586   7.177  12.975  13.216
 4583SOL     OW15587   9.808   1.695   5.961
 4583SOL    HW115588   9.734   1.715   5.904
 4583SOL    HW215589   9.771   1.642   6.031
 4584SOL     OW15590  11.241   2.456   9.583
 4584SOL    HW115591  11.291   2.388   9.627
 4584SOL    HW215592  11.192   2.499   9.653
 4585SOL     OW15593   0.697   1.276  11.235
 4585SOL    HW115594   0.733   1.342  11.175
 4585SOL    HW215595   0.603   1.272  11.213
 4586SOL     OW15596   9.023   4.572  11.530
 4586SOL    HW115597   9.002   4.537  11.443
 4586SOL    HW215598   8.969   4.650  11.538
 4587SOL     OW15599  14.187   1.489   8.752
 4587SOL    HW115600  14.221   1.403   8.778
 4587SOL    HW215601  14.097   1.490   8.787
 4588SOL     OW15602   2.452   2.307  11.687
 4588SOL    HW115603   2.507   2.296  11.765
 4588SOL    HW215604   2.383   2.367  11.714
 4589SOL     OW15605   8.152   7.604   4.804
 4589SOL    HW115606   8.130   7.692   4.776
 4589SOL    HW215607   8.245   7.607   4.823
 4590SOL     OW15608   9.880  11.575   1.001
 4590SOL    HW115609   9.852  11.653   0.954
 4590SOL    HW215610   9.937  11.608   1.071
 4591SOL     OW15611   6.174   9.398  10.977
 4591SOL    HW115612   6.157   9.311  10.942
 4591SOL    HW215613   6.268   9.411  10.966
 4592SOL     OW15614   6.664  10.952   7.125
 4592SOL    HW115615   6.656  10.871   7.075
 4592SOL    HW215616   6.704  11.014   7.064
 4593SOL     OW15617  14.412   0.829   9.011
 4593SOL    HW115618  14.500   0.841   9.045
 4593SOL    HW215619  14.425   0.816   8.917
 4594SOL     OW15620   7.795   4.028   5.102
 4594SOL    HW115621   7.792   4.118   5.068
 4594SOL    HW215622   7.703   4.005   5.114
 4595SOL     OW15623   1.725   9.050   0.714
 4595SOL    HW115624   1.813   9.024   0.685
 4595SOL    HW215625   1.737   9.137   0.751
 4596SOL     OW15626   2.720   2.841  10.497
 4596SOL    HW115627   2.716   2.867  10.589
 4596SOL    HW215628   2.802   2.792  10.489
 4597SOL     OW15629   0.113  11.772   3.935
 4597SOL    HW115630   0.151  11.685   3.952
 4597SOL    HW215631   0.166  11.808   3.864
 4598SOL     OW15632  10.329  10.785   6.117
 4598SOL    HW115633  10.233  10.795   6.120
 4598SOL    HW215634  10.353  10.756   6.205
 4599SOL     OW15635   3.274   8.662   2.128
 4599SOL    HW115636   3.187   8.683   2.096
 4599SOL    HW215637   3.272   8.685   2.221
 4600SOL     OW15638   6.418  12.053   6.392
 4600SOL    HW115639   6.454  11.978   6.345
 4600SOL    HW215640   6.338  12.020   6.432
 4601SOL     OW15641   3.895   4.444   7.178
 4601SOL    HW115642   3.925   4.513   7.237
 4601SOL    HW215643   3.873   4.371   7.236
 4602SOL     OW15644  10.785   2.603   3.244
 4602SOL    HW115645  10.829   2.631   3.164
 4602SOL    HW215646  10.692   2.599   3.220
 4603SOL     OW15647  14.776  13.095   4.780
 4603SOL    HW115648  14.730  13.143   4.850
 4603SOL    HW215649  14.756  13.145   4.700
 4604SOL     OW15650   2.400   1.498   2.040
 4604SOL    HW115651   2.461   1.569   2.060
 4604SOL    HW215652   2.371   1.516   1.950
 4605SOL     OW15653  10.309   2.961   7.051
 4605SOL    HW115654  10.221   2.932   7.030
 4605SOL    HW215655  10.333   3.019   6.979
 4606SOL     OW15656   3.320   9.155   8.426
 4606SOL    HW115657   3.361   9.216   8.487
 4606SOL    HW215658   3.240   9.126   8.472
 4607SOL     OW15659  13.526  13.388  13.235
 4607SOL    HW115660  13.554  13.478  13.218
 4607SOL    HW215661  13.460  13.396  13.305
 4608SOL     OW15662  11.199   9.142   9.755
 4608SOL    HW115663  11.246   9.135   9.838
 4608SOL    HW215664  11.221   9.229   9.722
 4609SOL     OW15665   3.072   3.070  12.311
 4609SOL    HW115666   2.993   3.096  12.357
 4609SOL    HW215667   3.102   2.992  12.357
 4610SOL     OW15668   6.661  11.043   4.541
 4610SOL    HW115669   6.695  10.997   4.464
 4610SOL    HW215670   6.607  10.978   4.586
 4611SOL     OW15671  10.427   3.441  13.126
 4611SOL    HW115672  10.423   3.473  13.216
 4611SOL    HW215673  10.380   3.508  13.075
 4612SOL     OW15674  13.037  12.776   6.275
 4612SOL    HW115675  13.064  12.685   6.260
 4612SOL    HW215676  12.946  12.770   6.306
 4613SOL     OW15677   3.938  10.219   9.011
 4613SOL    HW115678   3.966  10.294   8.958
 4613SOL    HW215679   4.018  10.171   9.030
 4614SOL     OW15680   3.413   5.112  10.593
 4614SOL    HW115681   3.468   5.054  10.540
 4614SOL    HW215682   3.460   5.121  10.676
 4615SOL     OW15683   5.267   2.230   0.438
 4615SOL    HW115684   5.291   2.165   0.504
 4615SOL    HW215685   5.176   2.210   0.417
 4616SOL     OW15686   0.808  13.168   1.762
 4616SOL    HW115687   0.806  13.170   1.667
 4616SOL    HW215688   0.849  13.251   1.787
 4617SOL     OW15689   5.403   4.268   7.134
 4617SOL    HW115690   5.382   4.259   7.040
 4617SOL    HW215691   5.466   4.340   7.138
 4618SOL     OW15692  11.102   7.752  11.656
 4618SOL    HW115693  11.170   7.730  11.592
 4618SOL    HW215694  11.075   7.840  11.631
 4619SOL     OW15695   7.200   1.161   5.470
 4619SOL    HW115696   7.243   1.090   5.422
 4619SOL    HW215697   7.271   1.209   5.512
 4620SOL     OW15698  11.722  12.249   7.345
 4620SOL    HW115699  11.814  12.273   7.358
 4620SOL    HW215700  11.722  12.200   7.263
 4621SOL     OW15701  11.366   8.087  10.776
 4621SOL    HW115702  11.398   8.071  10.687
 4621SOL    HW215703  11.329   8.003  10.803
 4622SOL     OW15704   6.794   6.520   2.755
 4622SOL    HW115705   6.824   6.490   2.841
 4622SOL    HW215706   6.796   6.616   2.761
 4623SOL     OW15707   9.044   1.905   4.757
 4623SOL    HW115708   9.017   1.897   4.849
 4623SOL    HW215709   9.117   1.968   4.759
 4624SOL     OW15710   2.600  11.680   7.755
 4624SOL    HW115711   2.594  11.735   7.834
 4624SOL    HW215712   2.568  11.736   7.684
 4625SOL     OW15713   3.418   7.505   7.724
 4625SOL    HW115714   3.483   7.480   7.790
 4625SOL    HW215715   3.470   7.547   7.655
 4626SOL     OW15716   3.478  12.608   7.005
 4626SOL    HW115717   3.520  12.690   6.977
 4626SOL    HW215718   3.483  12.611   7.101
 4627SOL     OW15719   1.199   3.661   0.706
 4627SOL    HW115720   1.227   3.581   0.751
 4627SOL    HW215721   1.211   3.730   0.771
 4628SOL     OW15722   0.229   1.445  10.574
 4628SOL    HW115723   0.185   1.373  10.620
 4628SOL    HW215724   0.294   1.477  10.638
 4629SOL     OW15725  12.808   0.703   1.859
 4629SOL    HW115726  12.834   0.795   1.871
 4629SOL    HW215727  12.729   0.694   1.913
 4630SOL     OW15728   1.122  12.816  12.354
 4630SOL    HW115729   1.097  12.791  12.265
 4630SOL    HW215730   1.129  12.911  12.352
 4631SOL     OW15731  14.055   2.452  10.550
 4631SOL    HW115732  13.987   2.386  10.562
 4631SOL    HW215733  14.007   2.532  10.527
 4632SOL     OW15734   4.388   6.374  13.528
 4632SOL    HW115735   4.296   6.366  13.553
 4632SOL    HW215736   4.410   6.466  13.547
 4633SOL     OW15737   9.698   4.574   3.179
 4633SOL    HW115738   9.641   4.641   3.143
 4633SOL    HW215739   9.653   4.545   3.259
 4634SOL     OW15740   7.638   6.764  12.073
 4634SOL    HW115741   7.603   6.761  12.162
 4634SOL    HW215742   7.610   6.849  12.039
 4635SOL     OW15743   1.615   5.285   4.365
 4635SOL    HW115744   1.573   5.277   4.451
 4635SOL    HW215745   1.703   5.316   4.385
 4636SOL     OW15746   2.209   8.749   9.824
 4636SOL    HW115747   2.202   8.830   9.775
 4636SOL    HW215748   2.124   8.706   9.814
 4637SOL     OW15749   0.714   8.265   9.317
 4637SOL    HW115750   0.700   8.179   9.357
 4637SOL    HW215751   0.782   8.306   9.371
 4638SOL     OW15752  14.056   4.715   7.318
 4638SOL    HW115753  14.038   4.707   7.411
 4638SOL    HW215754  14.150   4.732   7.313
 4639SOL     OW15755   1.160   8.618   4.805
 4639SOL    HW115756   1.078   8.577   4.829
 4639SOL    HW215757   1.217   8.545   4.779
 4640SOL     OW15758  12.531   5.276   6.123
 4640SOL    HW115759  12.451   5.260   6.173
 4640SOL    HW215760  12.513   5.357   6.075
 4641SOL     OW15761   8.327   2.282  13.623
 4641SOL    HW115762   8.409   2.266  13.670
 4641SOL    HW215763   8.261   2.286  13.693
 4642SOL     OW15764  13.523  11.787   4.749
 4642SOL    HW115765  13.568  11.703   4.762
 4642SOL    HW215766  13.538  11.809   4.657
 4643SOL     OW15767  10.897   1.584   3.698
 4643SOL    HW115768  10.908   1.490   3.708
 4643SOL    HW215769  10.888   1.617   3.788
 4644SOL     OW15770   3.689  10.424   1.427
 4644SOL    HW115771   3.642  10.482   1.487
 4644SOL    HW215772   3.750  10.481   1.381
 4645SOL     OW15773   8.184   1.975  14.392
 4645SOL    HW115774   8.093   2.004  14.383
 4645SOL    HW215775   8.178   1.890  14.434
 4646SOL     OW15776  14.359   7.898   8.724
 4646SOL    HW115777  14.276   7.868   8.688
 4646SOL    HW215778  14.426   7.852   8.673
 4647SOL     OW15779   2.531   9.643   5.882
 4647SOL    HW115780   2.440   9.614   5.887
 4647SOL    HW215781   2.540   9.676   5.793
 4648SOL     OW15782   9.749   6.445   9.954
 4648SOL    HW115783   9.829   6.484   9.991
 4648SOL    HW215784   9.777   6.408   9.871
 4649SOL     OW15785  11.944  13.522   7.974
 4649SOL    HW115786  12.029  13.508   7.932
 4649SOL    HW215787  11.955  13.489   8.063
 4650SOL     OW15788   7.682   1.643   9.079
 4650SOL    HW115789   7.681   1.563   9.026
 4650SOL    HW215790   7.650   1.711   9.021
 4651SOL     OW15791   2.821  12.450   2.900
 4651SOL    HW115792   2.783  12.521   2.952
 4651SOL    HW215793   2.839  12.490   2.815
 4652SOL     OW15794  12.263   1.579  11.682
 4652SOL    HW115795  12.274   1.495  11.727
 4652SOL    HW215796  12.215   1.634  11.744
 4653SOL     OW15797   5.171   2.724   3.000
 4653SOL    HW115798   5.085   2.743   3.037
 4653SOL    HW215799   5.233   2.752   3.067
 4654SOL     OW15800   0.524  11.941   0.574
 4654SOL    HW115801   0.448  11.949   0.516
 4654SOL    HW215802   0.578  12.017   0.552
 4655SOL     OW15803   0.303   7.418   3.947
 4655SOL    HW115804   0.359   7.357   3.995
 4655SOL    HW215805   0.285   7.488   4.010
 4656SOL     OW15806   8.137   3.381   7.675
 4656SOL    HW115807   8.149   3.388   7.770
 4656SOL    HW215808   8.162   3.291   7.655
 4657SOL     OW15809   5.731   6.684   1.943
 4657SOL    HW115810   5.648   6.645   1.971
 4657SOL    HW215811   5.793   6.612   1.947
 4658SOL     OW15812  12.346   4.674   0.601
 4658SOL    HW115813  12.298   4.711   0.526
 4658SOL    HW215814  12.426   4.638   0.563
 4659SOL     OW15815   7.288   8.714  13.850
 4659SOL    HW115816   7.208   8.733  13.802
 4659SOL    HW215817   7.265   8.638  13.905
 4660SOL     OW15818  11.982   0.739   8.802
 4660SOL    HW115819  11.890   0.759   8.791
 4660SOL    HW215820  12.018   0.813   8.851
 4661SOL     OW15821   4.024   6.585  10.664
 4661SOL    HW115822   3.965   6.515  10.689
 4661SOL    HW215823   4.111   6.555  10.691
 4662SOL     OW15824  12.165   6.961  12.298
 4662SOL    HW115825  12.250   6.917  12.304
 4662SOL    HW215826  12.138   6.948  12.207
 4663SOL     OW15827   8.885  13.170   0.545
 4663SOL    HW115828   8.892  13.221   0.626
 4663SOL    HW215829   8.972  13.173   0.506
 4664SOL     OW15830   7.427  13.270   0.137
 4664SOL    HW115831   7.334  13.290   0.146
 4664SOL    HW215832   7.447  13.288   0.045
 4665SOL     OW15833  12.420  12.987   2.121
 4665SOL    HW115834  12.437  13.056   2.184
 4665SOL    HW215835  12.472  12.912   2.151
 4666SOL     OW15836   8.832   9.339   3.533
 4666SOL    HW115837   8.852   9.255   3.491
 4666SOL    HW215838   8.742   9.330   3.562
 4667SOL     OW15839  11.974   5.905  12.677
 4667SOL    HW115840  11.898   5.963  12.681
 4667SOL    HW215841  11.940   5.824  12.637
 4668SOL     OW15842   2.667   3.772   8.381
 4668SOL    HW115843   2.625   3.686   8.375
 4668SOL    HW215844   2.670   3.791   8.474
 4669SOL     OW15845   4.014   4.707   5.262
 4669SOL    HW115846   3.923   4.687   5.242
 4669SOL    HW215847   4.041   4.768   5.194
 4670SOL     OW15848   7.775   5.370   6.518
 4670SOL    HW115849   7.803   5.334   6.434
 4670SOL    HW215850   7.699   5.424   6.496
 4671SOL     OW15851   3.880  12.845   9.060
 4671SOL    HW115852   3.935  12.904   9.008
 4671SOL    HW215853   3.923  12.760   9.053
 4672SOL     OW15854   9.152  10.763   0.552
 4672SOL    HW115855   9.171  10.670   0.547
 4672SOL    HW215856   9.070  10.774   0.505
 4673SOL     OW15857  10.245   2.669  10.231
 4673SOL    HW115858  10.305   2.597  10.254
 4673SOL    HW215859  10.269   2.692  10.141
 4674SOL     OW15860  12.332   2.515   9.057
 4674SOL    HW115861  12.290   2.496   9.141
 4674SOL    HW215862  12.367   2.603   9.067
 4675SOL     OW15863   9.663   2.071   6.533
 4675SOL    HW115864   9.672   2.081   6.438
 4675SOL    HW215865   9.584   2.120   6.556
 4676SOL     OW15866   9.995  13.514   8.807
 4676SOL    HW115867  10.068  13.576   8.815
 4676SOL    HW215868   9.994  13.491   8.714
 4677SOL     OW15869   4.748   1.891   8.725
 4677SOL    HW115870   4.675   1.950   8.741
 4677SOL    HW215871   4.825   1.941   8.751
 4678SOL     OW15872  13.818   2.587   4.770
 4678SOL    HW115873  13.820   2.682   4.780
 4678SOL    HW215874  13.822   2.573   4.675
 4679SOL     OW15875   3.428  13.552  12.370
 4679SOL    HW115876   3.395  13.557  12.460
 4679SOL    HW215877   3.521  13.530  12.380
 4680SOL     OW15878   8.425   1.641   7.901
 4680SOL    HW115879   8.480   1.569   7.935
 4680SOL    HW215880   8.381   1.603   7.825
 4681SOL     OW15881  12.344  10.073   8.002
 4681SOL    HW115882  12.415  10.124   7.963
 4681SOL    HW215883  12.288  10.138   8.044
 4682SOL     OW15884  10.872   2.456   2.861
 4682SOL    HW115885  10.911   2.464   2.948
 4682SOL    HW215886  10.810   2.529   2.856
 4683SOL     OW15887  14.107  11.564   0.912
 4683SOL    HW115888  14.152  11.631   0.860
 4683SOL    HW215889  14.014  11.581   0.899
 4684SOL     OW15890  12.013   3.779  10.010
 4684SOL    HW115891  11.945   3.836   9.974
 4684SOL    HW215892  12.029   3.813  10.098
 4685SOL     OW15893  11.794  10.509  11.342
 4685SOL    HW115894  11.767  10.435  11.287
 4685SOL    HW215895  11.885  10.525  11.317
 4686SOL     OW15896  10.220  14.652  11.169
 4686SOL    HW115897  10.218  14.644  11.074
 4686SOL    HW215898  10.280  14.582  11.197
 4687SOL     OW15899  13.345  14.317   5.457
 4687SOL    HW115900  13.393  14.366   5.524
 4687SOL    HW215901  13.412  14.266   5.412
 4688SOL     OW15902  10.061   7.464  12.238
 4688SOL    HW115903  10.035   7.487  12.149
 4688SOL    HW215904  10.027   7.536  12.292
 4689SOL     OW15905  12.377  12.761  12.439
 4689SOL    HW115906  12.319  12.837  12.430
 4689SOL    HW215907  12.319  12.686  12.424
 4690SOL     OW15908   8.570   7.965  11.450
 4690SOL    HW115909   8.479   7.966  11.422
 4690SOL    HW215910   8.611   7.898  11.396
 4691SOL     OW15911   1.239  10.508   2.654
 4691SOL    HW115912   1.202  10.527   2.741
 4691SOL    HW215913   1.289  10.587   2.633
 4692SOL     OW15914   9.063  10.723   6.608
 4692SOL    HW115915   9.061  10.793   6.543
 4692SOL    HW215916   9.141  10.740   6.660
 4693SOL     OW15917   9.189   1.696  10.772
 4693SOL    HW115918   9.133   1.686  10.849
 4693SOL    HW215919   9.128   1.701  10.698
 4694SOL     OW15920   4.443  12.186  10.496
 4694SOL    HW115921   4.379  12.139  10.550
 4694SOL    HW215922   4.487  12.117  10.446
 4695SOL     OW15923  10.476  14.745   6.763
 4695SOL    HW115924  10.383  14.766   6.767
 4695SOL    HW215925  10.500  14.723   6.853
 4696SOL     OW15926   3.199  12.667   2.912
 4696SOL    HW115927   3.178  12.579   2.943
 4696SOL    HW215928   3.239  12.710   2.988
 4697SOL     OW15929   0.621   6.549  10.304
 4697SOL    HW115930   0.681   6.620  10.282
 4697SOL    HW215931   0.582   6.523  10.221
 4698SOL     OW15932   9.818  11.175   5.612
 4698SOL    HW115933   9.856  11.134   5.535
 4698SOL    HW215934   9.775  11.104   5.659
 4699SOL     OW15935   4.252   2.227  11.118
 4699SOL    HW115936   4.185   2.200  11.055
 4699SOL    HW215937   4.209   2.224  11.203
 4700SOL     OW15938   0.268   4.137   2.875
 4700SOL    HW115939   0.250   4.230   2.861
 4700SOL    HW215940   0.338   4.116   2.813
 4701SOL     OW15941   8.802   5.169  10.038
 4701SOL    HW115942   8.730   5.219  10.077
 4701SOL    HW215943   8.869   5.167  10.107
 4702SOL     OW15944   9.383   9.155   7.627
 4702SOL    HW115945   9.408   9.154   7.720
 4702SOL    HW215946   9.445   9.215   7.586
 4703SOL     OW15947   5.404   7.720   3.469
 4703SOL    HW115948   5.499   7.717   3.480
 4703SOL    HW215949   5.384   7.645   3.413
 4704SOL     OW15950   0.696  12.667   0.689
 4704SOL    HW115951   0.610  12.684   0.651
 4704SOL    HW215952   0.750  12.642   0.614
 4705SOL     OW15953   9.968   4.117   4.101
 4705SOL    HW115954  10.017   4.039   4.127
 4705SOL    HW215955  10.032   4.172   4.056
 4706SOL     OW15956  13.523  13.707   8.752
 4706SOL    HW115957  13.604  13.676   8.710
 4706SOL    HW215958  13.515  13.798   8.723
 4707SOL     OW15959  10.828   9.436  13.117
 4707SOL    HW115960  10.844   9.518  13.070
 4707SOL    HW215961  10.867   9.368  13.062
 4708SOL     OW15962  11.096  11.642   6.601
 4708SOL    HW115963  11.016  11.674   6.560
 4708SOL    HW215964  11.080  11.548   6.615
 4709SOL     OW15965   2.224   7.466  11.937
 4709SOL    HW115966   2.241   7.525  11.863
 4709SOL    HW215967   2.307   7.419  11.949
 4710SOL     OW15968  13.514  11.032   5.810
 4710SOL    HW115969  13.531  11.122   5.779
 4710SOL    HW215970  13.601  10.993   5.818
 4711SOL     OW15971   5.802  10.716  10.791
 4711SOL    HW115972   5.714  10.709  10.826
 4711SOL    HW215973   5.835  10.626  10.788
 4712SOL     OW15974   9.468  14.183   1.173
 4712SOL    HW115975   9.539  14.166   1.111
 4712SOL    HW215976   9.414  14.104   1.169
 4713SOL     OW15977   1.811   2.504   3.824
 4713SOL    HW115978   1.801   2.538   3.912
 4713SOL    HW215979   1.868   2.567   3.780
 4714SOL     OW15980  12.635  14.396   3.025
 4714SOL    HW115981  12.711  14.451   3.041
 4714SOL    HW215982  12.670  14.316   2.985
 4715SOL     OW15983  12.860   9.913   6.958
 4715SOL    HW115984  12.796   9.844   6.940
 4715SOL    HW215985  12.820   9.967   7.026
 4716SOL     OW15986   2.967   3.304  13.351
 4716SOL    HW115987   2.899   3.237  13.340
 4716SOL    HW215988   2.931   3.363  13.418
 4717SOL     OW15989  11.910   2.588   3.713
 4717SOL    HW115990  11.870   2.661   3.666
 4717SOL    HW215991  12.004   2.597   3.698
 4718SOL     OW15992   3.556   3.545   6.035
 4718SOL    HW115993   3.559   3.626   5.984
 4718SOL    HW215994   3.620   3.488   5.993
 4719SOL     OW15995   3.846  11.039   5.182
 4719SOL    HW115996   3.863  10.991   5.263
 4719SOL    HW215997   3.933  11.057   5.147
 4720SOL     OW15998  13.112   3.977   2.456
 4720SOL    HW115999  13.088   3.913   2.389
 4720SOL    HW216000  13.037   4.037   2.459
 4721SOL     OW16001   2.826  11.257  10.768
 4721SOL    HW116002   2.853  11.346  10.745
 4721SOL    HW216003   2.774  11.228  10.693
 4722SOL     OW16004  11.080   1.849   3.271
 4722SOL    HW116005  11.055   1.855   3.179
 4722SOL    HW216006  11.033   1.773   3.304
 4723SOL     OW16007   6.111  11.394   0.276
 4723SOL    HW116008   6.190  11.341   0.270
 4723SOL    HW216009   6.135  11.467   0.333
 4724SOL     OW16010   8.103  12.052   5.171
 4724SOL    HW116011   8.174  12.011   5.121
 4724SOL    HW216012   8.025  12.002   5.147
 4725SOL     OW16013   0.385  14.110   7.675
 4725SOL    HW116014   0.292  14.107   7.696
 4725SOL    HW216015   0.425  14.155   7.749
 4726SOL     OW16016  11.874   5.082  13.634
 4726SOL    HW116017  11.791   5.096  13.680
 4726SOL    HW216018  11.863   5.128  13.551
 4727SOL     OW16019  13.931   5.616  10.408
 4727SOL    HW116020  14.007   5.586  10.359
 4727SOL    HW216021  13.901   5.694  10.360
 4728SOL     OW16022   6.316  11.730   1.688
 4728SOL    HW116023   6.333  11.687   1.772
 4728SOL    HW216024   6.333  11.823   1.705
 4729SOL     OW16025   5.898   9.533   1.508
 4729SOL    HW116026   5.845   9.609   1.532
 4729SOL    HW216027   5.904   9.536   1.413
 4730SOL     OW16028  12.399   1.049   8.228
 4730SOL    HW116029  12.490   1.068   8.252
 4730SOL    HW216030  12.380   0.966   8.273
 4731SOL     OW16031  11.276   5.100   9.604
 4731SOL    HW116032  11.319   5.092   9.519
 4731SOL    HW216033  11.293   5.017   9.647
 4732SOL     OW16034   6.475   1.958   1.011
 4732SOL    HW116035   6.542   1.968   0.943
 4732SOL    HW216036   6.525   1.944   1.092
 4733SOL     OW16037  11.645   5.304   5.918
 4733SOL    HW116038  11.629   5.369   5.986
 4733SOL    HW216039  11.580   5.324   5.850
 4734SOL     OW16040  14.463   6.774  14.576
 4734SOL    HW116041  14.419   6.831  14.640
 4734SOL    HW216042  14.420   6.690  14.585
 4735SOL     OW16043   6.449  10.676   8.281
 4735SOL    HW116044   6.488  10.739   8.340
 4735SOL    HW216045   6.516  10.609   8.270
 4736SOL     OW16046   6.613  12.296   7.261
 4736SOL    HW116047   6.687  12.337   7.216
 4736SOL    HW216048   6.595  12.216   7.211
 4737SOL     OW16049   3.235   4.243   0.081
 4737SOL    HW116050   3.214   4.299   0.007
 4737SOL    HW216051   3.266   4.304   0.149
 4738SOL     OW16052   8.229  10.677   4.113
 4738SOL    HW116053   8.208  10.770   4.111
 4738SOL    HW216054   8.233  10.652   4.020
 4739SOL     OW16055   2.603  14.429   4.854
 4739SOL    HW116056   2.611  14.511   4.806
 4739SOL    HW216057   2.675  14.375   4.823
 4740SOL     OW16058  12.393  14.641  13.152
 4740SOL    HW116059  12.486  14.645  13.128
 4740SOL    HW216060  12.355  14.718  13.111
 4741SOL     OW16061   2.390   6.782  13.988
 4741SOL    HW116062   2.343   6.809  14.067
 4741SOL    HW216063   2.321   6.768  13.923
 4742SOL     OW16064   5.808   7.453   4.692
 4742SOL    HW116065   5.763   7.430   4.611
 4742SOL    HW216066   5.769   7.397   4.758
 4743SOL     OW16067  12.755   1.876   1.032
 4743SOL    HW116068  12.732   1.939   1.100
 4743SOL    HW216069  12.802   1.927   0.967
 4744SOL     OW16070   1.211   9.939  10.848
 4744SOL    HW116071   1.277   9.980  10.793
 4744SOL    HW216072   1.147   9.904  10.786
 4745SOL     OW16073  10.586   7.780   4.843
 4745SOL    HW116074  10.548   7.692   4.836
 4745SOL    HW216075  10.540   7.820   4.917
 4746SOL     OW16076   1.482  12.142  11.760
 4746SOL    HW116077   1.419  12.069  11.761
 4746SOL    HW216078   1.540  12.124  11.834
 4747SOL     OW16079   5.045  13.892  14.718
 4747SOL    HW116080   5.116  13.834  14.690
 4747SOL    HW216081   4.997  13.912  14.638
 4748SOL     OW16082  12.041   9.370   4.082
 4748SOL    HW116083  11.954   9.329   4.085
 4748SOL    HW216084  12.025   9.460   4.111
 4749SOL     OW16085   6.048   0.813   8.670
 4749SOL    HW116086   6.042   0.878   8.741
 4749SOL    HW216087   5.959   0.809   8.634
 4750SOL     OW16088   6.019  12.242   6.119
 4750SOL    HW116089   6.055  12.319   6.164
 4750SOL    HW216090   5.976  12.191   6.188
 4751SOL     OW16091   3.669  10.221  10.833
 4751SOL    HW116092   3.715  10.297  10.797
 4751SOL    HW216093   3.585  10.257  10.864
 4752SOL     OW16094   6.265   9.826   1.642
 4752SOL    HW116095   6.246   9.746   1.691
 4752SOL    HW216096   6.359   9.824   1.628
 4753SOL     OW16097   6.286   8.406   6.103
 4753SOL    HW116098   6.379   8.383   6.106
 4753SOL    HW216099   6.259   8.385   6.013
 4754SOL     OW16100   8.506   4.026   2.150
 4754SOL    HW116101   8.579   3.966   2.166
 4754SOL    HW216102   8.546   4.112   2.138
 4755SOL     OW16103   3.523   2.503   7.277
 4755SOL    HW116104   3.468   2.532   7.204
 4755SOL    HW216105   3.462   2.487   7.348
 4756SOL     OW16106   5.526   4.074   6.843
 4756SOL    HW116107   5.581   4.073   6.921
 4756SOL    HW216108   5.491   3.985   6.836
 4757SOL     OW16109   4.484   2.616   7.729
 4757SOL    HW116110   4.546   2.545   7.712
 4757SOL    HW216111   4.416   2.605   7.662
 4758SOL     OW16112   4.087   3.621   1.306
 4758SOL    HW116113   4.179   3.608   1.282
 4758SOL    HW216114   4.051   3.672   1.233
 4759SOL     OW16115  13.899   3.785   7.269
 4759SOL    HW116116  13.969   3.818   7.213
 4759SOL    HW216117  13.822   3.781   7.212
 4760SOL     OW16118  12.146   9.939   7.085
 4760SOL    HW116119  12.177   9.863   7.135
 4760SOL    HW216120  12.055   9.950   7.113
 4761SOL     OW16121  10.681   2.039   4.397
 4761SOL    HW116122  10.611   1.998   4.447
 4761SOL    HW216123  10.686   1.989   4.316
 4762SOL     OW16124   8.517  14.752   7.277
 4762SOL    HW116125   8.533  14.687   7.209
 4762SOL    HW216126   8.456  14.709   7.338
 4763SOL     OW16127   8.542   7.674   7.095
 4763SOL    HW116128   8.579   7.599   7.141
 4763SOL    HW216129   8.615   7.735   7.086
 4764SOL     OW16130   8.760   3.248  10.230
 4764SOL    HW116131   8.826   3.262  10.162
 4764SOL    HW216132   8.717   3.333  10.239
 4765SOL     OW16133   3.827   5.132  11.025
 4765SOL    HW116134   3.896   5.196  11.006
 4765SOL    HW216135   3.805   5.147  11.117
 4766SOL     OW16136   3.583  14.076  12.279
 4766SOL    HW116137   3.588  13.984  12.305
 4766SOL    HW216138   3.641  14.121  12.340
 4767SOL     OW16139   4.053  13.563   2.703
 4767SOL    HW116140   3.999  13.636   2.673
 4767SOL    HW216141   4.015  13.486   2.660
 4768SOL     OW16142   2.989   9.533  14.856
 4768SOL    HW116143   2.980   9.536   0.075
 4768SOL    HW216144   3.012   9.622  14.831
 4769SOL     OW16145  14.835  14.473  13.751
 4769SOL    HW116146  14.850  14.547  13.693
 4769SOL    HW216147  14.830  14.511  13.838
 4770SOL     OW16148  14.699   8.240  14.583
 4770SOL    HW116149  14.637   8.244  14.511
 4770SOL    HW216150  14.785   8.239  14.541
 4771SOL     OW16151   7.446   1.568   6.742
 4771SOL    HW116152   7.356   1.593   6.719
 4771SOL    HW216153   7.441   1.544   6.834
 4772SOL     OW16154   1.560  13.193   1.496
 4772SOL    HW116155   1.547  13.242   1.577
 4772SOL    HW216156   1.621  13.246   1.445
 4773SOL     OW16157   2.609  14.464   9.688
 4773SOL    HW116158   2.616  14.390   9.626
 4773SOL    HW216159   2.659  14.534   9.648
 4774SOL     OW16160   4.157   0.366   0.729
 4774SOL    HW116161   4.127   0.376   0.639
 4774SOL    HW216162   4.218   0.439   0.742
 4775SOL     OW16163  11.623   8.751   5.717
 4775SOL    HW116164  11.542   8.710   5.748
 4775SOL    HW216165  11.693   8.707   5.764
 4776SOL     OW16166   2.429  13.040   7.685
 4776SOL    HW116167   2.355  13.052   7.626
 4776SOL    HW216168   2.398  12.977   7.751
 4777SOL     OW16169   6.361  12.378   9.790
 4777SOL    HW116170   6.381  12.289   9.762
 4777SOL    HW216171   6.447  12.417   9.807
 4778SOL     OW16172   6.950   2.643   9.576
 4778SOL    HW116173   6.989   2.664   9.661
 4778SOL    HW216174   6.868   2.597   9.599
 4779SOL     OW16175   3.429  11.144  12.033
 4779SOL    HW116176   3.421  11.212  11.965
 4779SOL    HW216177   3.454  11.192  12.112
 4780SOL     OW16178   1.408   1.889  14.513
 4780SOL    HW116179   1.338   1.899  14.449
 4780SOL    HW216180   1.434   1.797  14.506
 4781SOL     OW16181   8.146   8.447   2.117
 4781SOL    HW116182   8.156   8.496   2.035
 4781SOL    HW216183   8.236   8.438   2.150
 4782SOL     OW16184   0.812   1.392   5.817
 4782SOL    HW116185   0.745   1.366   5.880
 4782SOL    HW216186   0.835   1.481   5.843
 4783SOL     OW16187   2.873   5.381   3.522
 4783SOL    HW116188   2.873   5.286   3.518
 4783SOL    HW216189   2.961   5.407   3.497
 4784SOL     OW16190  14.554   2.015   8.754
 4784SOL    HW116191  14.538   2.051   8.841
 4784SOL    HW216192  14.482   1.953   8.740
 4785SOL     OW16193  13.188   9.398   0.757
 4785SOL    HW116194  13.206   9.370   0.667
 4785SOL    HW216195  13.239   9.338   0.812
 4786SOL     OW16196  13.936   3.821   6.947
 4786SOL    HW116197  13.876   3.762   6.902
 4786SOL    HW216198  13.894   3.908   6.940
 4787SOL     OW16199  14.630   7.559   5.748
 4787SOL    HW116200  14.625   7.632   5.686
 4787SOL    HW216201  14.714   7.518   5.728
 4788SOL     OW16202   4.285  14.018   2.943
 4788SOL    HW116203   4.298  13.924   2.959
 4788SOL    HW216204   4.241  14.050   3.021
 4789SOL     OW16205  12.830  13.625  11.787
 4789SOL    HW116206  12.901  13.658  11.843
 4789SOL    HW216207  12.781  13.565  11.844
 4790SOL     OW16208   4.420  13.068   1.879
 4790SOL    HW116209   4.485  13.023   1.826
 4790SOL    HW216210   4.361  12.999   1.909
 4791SOL     OW16211   5.438   8.207   8.692
 4791SOL    HW116212   5.366   8.173   8.639
 4791SOL    HW216213   5.478   8.130   8.731
 4792SOL     OW16214   9.090   1.705   1.214
 4792SOL    HW116215   9.141   1.635   1.173
 4792SOL    HW216216   9.030   1.660   1.273
 4793SOL     OW16217   0.401   3.807   1.739
 4793SOL    HW116218   0.461   3.739   1.707
 4793SOL    HW216219   0.435   3.830   1.826
 4794SOL     OW16220   3.136   9.196   7.165
 4794SOL    HW116221   3.122   9.245   7.246
 4794SOL    HW216222   3.057   9.143   7.156
 4795SOL     OW16223  14.423   6.622  12.667
 4795SOL    HW116224  14.416   6.530  12.692
 4795SOL    HW216225  14.355   6.666  12.716
 4796SOL     OW16226   3.702   6.366   7.435
 4796SOL    HW116227   3.796   6.351   7.447
 4796SOL    HW216228   3.696   6.405   7.348
 4797SOL     OW16229  10.173   3.432   3.245
 4797SOL    HW116230  10.078   3.421   3.247
 4797SOL    HW216231  10.185   3.523   3.215
 4798SOL     OW16232  13.576  11.683   3.506
 4798SOL    HW116233  13.520  11.611   3.476
 4798SOL    HW216234  13.632  11.702   3.430
 4799SOL     OW16235  12.348   5.011  10.761
 4799SOL    HW116236  12.295   5.091  10.766
 4799SOL    HW216237  12.311   4.954  10.827
 4800SOL     OW16238   5.500   5.062   3.529
 4800SOL    HW116239   5.592   5.062   3.502
 4800SOL    HW216240   5.487   5.147   3.572
 4801SOL     OW16241  12.764   0.351  12.525
 4801SOL    HW116242  12.763   0.421  12.591
 4801SOL    HW216243  12.851   0.355  12.487
 4802SOL     OW16244   6.388   8.789   2.030
 4802SOL    HW116245   6.455   8.840   2.076
 4802SOL    HW216246   6.428   8.703   2.017
 4803SOL     OW16247   0.036  10.426   1.294
 4803SOL    HW116248   0.120  10.394   1.327
 4803SOL    HW216249   0.028  10.387   1.207
 4804SOL     OW16250   7.564  11.259   6.183
 4804SOL    HW116251   7.642  11.209   6.205
 4804SOL    HW216252   7.536  11.223   6.098
 4805SOL     OW16253  12.035  14.458  12.212
 4805SOL    HW116254  12.070  14.437  12.298
 4805SOL    HW216255  11.956  14.509  12.230
 4806SOL     OW16256   7.153  10.909  14.430
 4806SOL    HW116257   7.196  10.995  14.428
 4806SOL    HW216258   7.150  10.881  14.339
 4807SOL     OW16259   8.584   4.262  11.386
 4807SOL    HW116260   8.615   4.323  11.453
 4807SOL    HW216261   8.522   4.313  11.334
 4808SOL     OW16262  13.499   6.433   5.255
 4808SOL    HW116263  13.544   6.517   5.256
 4808SOL    HW216264  13.535   6.385   5.330
 4809SOL     OW16265   8.167   6.016  12.172
 4809SOL    HW116266   8.136   5.964  12.246
 4809SOL    HW216267   8.247   6.058  12.203
 4810SOL     OW16268   9.091   5.243  10.366
 4810SOL    HW116269   9.058   5.333  10.374
 4810SOL    HW216270   9.152   5.233  10.439
 4811SOL     OW16271   5.285   9.718   5.078
 4811SOL    HW116272   5.205   9.668   5.063
 4811SOL    HW216273   5.316   9.739   4.990
 4812SOL     OW16274   6.330  12.088   4.572
 4812SOL    HW116275   6.249  12.096   4.623
 4812SOL    HW216276   6.371  12.008   4.604
 4813SOL     OW16277  10.073   0.024   1.717
 4813SOL    HW116278  10.061   0.042   1.811
 4813SOL    HW216279   9.997  14.848   1.693
 4814SOL     OW16280   5.973   2.996  13.549
 4814SOL    HW116281   6.024   3.051  13.489
 4814SOL    HW216282   5.965   3.050  13.629
 4815SOL     OW16283  10.166   9.209   9.790
 4815SOL    HW116284  10.080   9.233   9.756
 4815SOL    HW216285  10.177   9.263   9.868
 4816SOL     OW16286  12.566  11.123   5.967
 4816SOL    HW116287  12.510  11.178   5.912
 4816SOL    HW216288  12.552  11.155   6.056
 4817SOL     OW16289   9.213   1.695  12.140
 4817SOL    HW116290   9.199   1.678  12.047
 4817SOL    HW216291   9.129   1.730  12.171
 4818SOL     OW16292  10.941   2.963   1.584
 4818SOL    HW116293  10.854   2.996   1.604
 4818SOL    HW216294  10.976   2.935   1.668
 4819SOL     OW16295   3.189   9.726   9.373
 4819SOL    HW116296   3.264   9.719   9.313
 4819SOL    HW216297   3.175   9.636   9.403
 4820SOL     OW16298   1.258  11.655   8.877
 4820SOL    HW116299   1.351  11.680   8.878
 4820SOL    HW216300   1.258  11.561   8.893
 4821SOL     OW16301   7.366   4.616   6.911
 4821SOL    HW116302   7.455   4.606   6.878
 4821SOL    HW216303   7.347   4.532   6.954
 4822SOL     OW16304   5.213   2.010  12.153
 4822SOL    HW116305   5.277   1.941  12.167
 4822SOL    HW216306   5.224   2.069  12.228
 4823SOL     OW16307   5.982  10.818   5.112
 4823SOL    HW116308   5.974  10.801   5.206
 4823SOL    HW216309   6.037  10.896   5.106
 4824SOL     OW16310  14.330   8.580   5.928
 4824SOL    HW116311  14.397   8.645   5.951
 4824SOL    HW216312  14.261   8.631   5.885
 4825SOL     OW16313   4.892   8.605   5.046
 4825SOL    HW116314   4.986   8.588   5.055
 4825SOL    HW216315   4.880   8.623   4.952
 4826SOL     OW16316   4.160   2.010   8.754
 4826SOL    HW116317   4.085   2.062   8.782
 4826SOL    HW216318   4.188   2.050   8.672
 4827SOL     OW16319   2.303   7.589  13.288
 4827SOL    HW116320   2.307   7.656  13.219
 4827SOL    HW216321   2.257   7.516  13.248
 4828SOL     OW16322  11.784   1.819  11.464
 4828SOL    HW116323  11.846   1.793  11.533
 4828SOL    HW216324  11.785   1.747  11.401
 4829SOL     OW16325   7.751   5.672   7.754
 4829SOL    HW116326   7.762   5.718   7.838
 4829SOL    HW216327   7.660   5.642   7.755
 4830SOL     OW16328   4.472  10.053  10.902
 4830SOL    HW116329   4.427  10.070  10.820
 4830SOL    HW216330   4.556  10.098  10.893
 4831SOL     OW16331   3.328   3.899   5.262
 4831SOL    HW116332   3.244   3.945   5.261
 4831SOL    HW216333   3.392   3.965   5.236
 4832SOL     OW16334  12.856   5.297  13.177
 4832SOL    HW116335  12.951   5.314  13.175
 4832SOL    HW216336  12.817   5.383  13.164
 4833SOL     OW16337   6.356   0.099   3.648
 4833SOL    HW116338   6.407   0.080   3.570
 4833SOL    HW216339   6.270   0.125   3.614
 4834SOL     OW16340   1.449  14.153   6.432
 4834SOL    HW116341   1.536  14.163   6.472
 4834SOL    HW216342   1.449  14.064   6.397
 4835SOL     OW16343  11.452  14.620  11.792
 4835SOL    HW116344  11.432  14.713  11.797
 4835SOL    HW216345  11.397  14.587  11.720
 4836SOL     OW16346   2.496  13.646  13.587
 4836SOL    HW116347   2.470  13.643  13.495
 4836SOL    HW216348   2.442  13.715  13.625
 4837SOL     OW16349   1.127   2.084   9.725
 4837SOL    HW116350   1.139   2.012   9.664
 4837SOL    HW216351   1.039   2.071   9.762
 4838SOL     OW16352   9.057   9.497   0.126
 4838SOL    HW116353   9.085   9.432   0.190
 4838SOL    HW216354   9.117   9.570   0.138
 4839SOL     OW16355  13.200   5.797   1.277
 4839SOL    HW116356  13.191   5.703   1.292
 4839SOL    HW216357  13.165   5.838   1.356
 4840SOL     OW16358  11.426  14.078   0.656
 4840SOL    HW116359  11.363  14.012   0.627
 4840SOL    HW216360  11.508  14.030   0.669
 4841SOL     OW16361   3.862  13.670  11.485
 4841SOL    HW116362   3.806  13.749  11.488
 4841SOL    HW216363   3.864  13.639  11.575
 4842SOL     OW16364   0.555  10.475  11.191
 4842SOL    HW116365   0.467  10.495  11.159
 4842SOL    HW216366   0.567  10.382  11.171
 4843SOL     OW16367   8.334   6.400   4.860
 4843SOL    HW116368   8.247   6.437   4.871
 4843SOL    HW216369   8.393   6.476   4.869
 4844SOL     OW16370  14.825   2.681   4.959
 4844SOL    HW116371  14.820   2.673   5.054
 4844SOL    HW216372  14.747   2.732   4.935
 4845SOL     OW16373  12.673  10.789   1.300
 4845SOL    HW116374  12.663  10.859   1.365
 4845SOL    HW216375  12.615  10.815   1.228
 4846SOL     OW16376  13.981   0.007   2.563
 4846SOL    HW116377  13.993   0.086   2.511
 4846SOL    HW216378  14.052   0.010   2.627
 4847SOL     OW16379   9.016   0.284   4.370
 4847SOL    HW116380   9.110   0.296   4.357
 4847SOL    HW216381   9.000   0.306   4.461
 4848SOL     OW16382  14.635  14.021  12.930
 4848SOL    HW116383  14.629  14.117  12.924
 4848SOL    HW216384  14.704  14.005  12.995
 4849SOL     OW16385   1.205   2.921   4.007
 4849SOL    HW116386   1.218   2.952   4.097
 4849SOL    HW216387   1.225   2.828   4.011
 4850SOL     OW16388  11.572  10.899  12.226
 4850SOL    HW116389  11.533  10.943  12.303
 4850SOL    HW216390  11.505  10.837  12.198
 4851SOL     OW16391   9.194   4.843  12.930
 4851SOL    HW116392   9.247   4.802  12.998
 4851SOL    HW216393   9.136   4.773  12.899
 4852SOL     OW16394   5.058  13.857   1.509
 4852SOL    HW116395   4.968  13.825   1.516
 4852SOL    HW216396   5.061  13.900   1.423
 4853SOL     OW16397   3.404   2.536   4.238
 4853SOL    HW116398   3.355   2.455   4.233
 4853SOL    HW216399   3.429   2.555   4.148
 4854SOL     OW16400   4.123   0.355   1.277
 4854SOL    HW116401   4.123   0.287   1.209
 4854SOL    HW216402   4.084   0.312   1.353
 4855SOL     OW16403   4.715  13.912   0.127
 4855SOL    HW116404   4.675  13.998   0.131
 4855SOL    HW216405   4.642  13.851   0.116
 4856SOL     OW16406   9.164   9.328   1.657
 4856SOL    HW116407   9.188   9.248   1.703
 4856SOL    HW216408   9.213   9.323   1.575
 4857SOL     OW16409  13.052   1.149  10.143
 4857SOL    HW116410  13.105   1.136  10.222
 4857SOL    HW216411  13.010   1.234  10.157
 4858SOL     OW16412   0.126  10.505  10.175
 4858SOL    HW116413   0.190  10.561  10.132
 4858SOL    HW216414   0.166  10.483  10.260
 4859SOL     OW16415   0.971  13.867  11.432
 4859SOL    HW116416   0.943  13.921  11.506
 4859SOL    HW216417   0.971  13.927  11.358
 4860SOL     OW16418   7.954   5.217   5.088
 4860SOL    HW116419   8.027   5.155   5.085
 4860SOL    HW216420   7.894   5.186   5.020
 4861SOL     OW16421  10.096  13.410   1.350
 4861SOL    HW116422  10.191  13.410   1.362
 4861SOL    HW216423  10.082  13.354   1.274
 4862SOL     OW16424   7.126   0.922  12.434
 4862SOL    HW116425   7.139   1.008  12.474
 4862SOL    HW216426   7.152   0.860  12.502
 4863SOL     OW16427  14.610  12.446  11.477
 4863SOL    HW116428  14.577  12.395  11.403
 4863SOL    HW216429  14.611  12.384  11.550
 4864SOL     OW16430   4.326  13.019  13.534
 4864SOL    HW116431   4.378  13.031  13.455
 4864SOL    HW216432   4.385  12.976  13.596
 4865SOL     OW16433   9.040   9.267   7.233
 4865SOL    HW116434   9.113   9.226   7.279
 4865SOL    HW216435   9.081   9.333   7.177
 4866SOL     OW16436   6.162   5.204  14.105
 4866SOL    HW116437   6.237   5.168  14.059
 4866SOL    HW216438   6.111   5.127  14.132
 4867SOL     OW16439  10.052   0.167  11.435
 4867SOL    HW116440  10.063   0.259  11.460
 4867SOL    HW216441  10.118   0.121  11.486
 4868SOL     OW16442   8.154   0.311   7.897
 4868SOL    HW116443   8.158   0.240   7.832
 4868SOL    HW216444   8.095   0.278   7.965
 4869SOL     OW16445   4.518   8.650   6.169
 4869SOL    HW116446   4.580   8.590   6.210
 4869SOL    HW216447   4.553   8.737   6.188
 4870SOL     OW16448  10.696  12.190   3.753
 4870SOL    HW116449  10.732  12.123   3.811
 4870SOL    HW216450  10.762  12.259   3.754
 4871SOL     OW16451  14.361  13.676  10.480
 4871SOL    HW116452  14.375  13.697  10.387
 4871SOL    HW216453  14.341  13.582  10.480
 4872SOL     OW16454  13.911   7.256   1.524
 4872SOL    HW116455  13.987   7.280   1.471
 4872SOL    HW216456  13.895   7.164   1.503
 4873SOL     OW16457   2.721  14.671   1.751
 4873SOL    HW116458   2.663  14.596   1.767
 4873SOL    HW216459   2.670  14.747   1.778
 4874SOL     OW16460   8.251   4.311   1.808
 4874SOL    HW116461   8.223   4.328   1.898
 4874SOL    HW216462   8.347   4.306   1.814
 4875SOL     OW16463   0.018  11.237  13.350
 4875SOL    HW116464  14.815  11.273  13.390
 4875SOL    HW216465   0.076  11.312  13.339
 4876SOL     OW16466   0.088   0.469   3.891
 4876SOL    HW116467   0.018   0.457   3.827
 4876SOL    HW216468   0.162   0.418   3.857
 4877SOL     OW16469   2.247   1.450  13.810
 4877SOL    HW116470   2.266   1.414  13.724
 4877SOL    HW216471   2.317   1.416  13.866
 4878SOL     OW16472   2.975   1.898  13.819
 4878SOL    HW116473   2.914   1.827  13.840
 4878SOL    HW216474   2.964   1.911  13.724
 4879SOL     OW16475   6.174   8.060  12.642
 4879SOL    HW116476   6.139   8.142  12.607
 4879SOL    HW216477   6.118   7.992  12.605
 4880SOL     OW16478   7.442   8.984   7.451
 4880SOL    HW116479   7.440   9.007   7.358
 4880SOL    HW216480   7.528   8.947   7.465
 4881SOL     OW16481   2.810   1.874   5.676
 4881SOL    HW116482   2.905   1.868   5.668
 4881SOL    HW216483   2.778   1.785   5.660
 4882SOL     OW16484   0.395   4.400  13.307
 4882SOL    HW116485   0.431   4.489  13.300
 4882SOL    HW216486   0.311   4.404  13.260
 4883SOL     OW16487  12.005  11.726   5.165
 4883SOL    HW116488  12.100  11.712   5.164
 4883SOL    HW216489  11.972  11.666   5.232
 4884SOL     OW16490   7.453   4.764   4.407
 4884SOL    HW116491   7.463   4.741   4.315
 4884SOL    HW216492   7.359   4.770   4.421
 4885SOL     OW16493   9.309  10.199   8.166
 4885SOL    HW116494   9.235  10.219   8.222
 4885SOL    HW216495   9.271  10.188   8.078
 4886SOL     OW16496  12.826   7.603   2.221
 4886SOL    HW116497  12.781   7.670   2.169
 4886SOL    HW216498  12.850   7.648   2.302
 4887SOL     OW16499   6.050  14.266   3.141
 4887SOL    HW116500   6.038  14.313   3.059
 4887SOL    HW216501   6.054  14.334   3.208
 4888SOL     OW16502   6.065  10.202  11.371
 4888SOL    HW116503   6.081  10.129  11.311
 4888SOL    HW216504   6.045  10.276  11.313
 4889SOL     OW16505  14.486   5.822  12.636
 4889SOL    HW116506  14.446   5.819  12.549
 4889SOL    HW216507  14.579   5.837  12.619
 4890SOL     OW16508  11.188   5.023   1.207
 4890SOL    HW116509  11.197   5.073   1.288
 4890SOL    HW216510  11.110   4.969   1.222
 4891SOL     OW16511   3.334   9.654   8.034
 4891SOL    HW116512   3.368   9.626   7.949
 4891SOL    HW216513   3.272   9.724   8.014
 4892SOL     OW16514   5.851  14.831   0.599
 4892SOL    HW116515   5.777  14.787   0.558
 4892SOL    HW216516   5.923  14.768   0.593
 4893SOL     OW16517   3.367   0.230   2.664
 4893SOL    HW116518   3.331   0.314   2.692
 4893SOL    HW216519   3.297   0.167   2.681
 4894SOL     OW16520  14.159  10.442   1.631
 4894SOL    HW116521  14.115  10.362   1.601
 4894SOL    HW216522  14.245  10.413   1.661
 4895SOL     OW16523  12.084   0.502   2.420
 4895SOL    HW116524  12.144   0.575   2.402
 4895SOL    HW216525  12.141   0.431   2.449
 4896SOL     OW16526   3.415   0.309   8.466
 4896SOL    HW116527   3.392   0.267   8.549
 4896SOL    HW216528   3.331   0.322   8.422
 4897SOL     OW16529   2.777   8.361  12.680
 4897SOL    HW116530   2.868   8.349  12.650
 4897SOL    HW216531   2.786   8.403  12.766
 4898SOL     OW16532   5.370   2.719   0.159
 4898SOL    HW116533   5.321   2.637   0.158
 4898SOL    HW216534   5.456   2.697   0.123
 4899SOL     OW16535   8.018   1.888   2.937
 4899SOL    HW116536   8.036   1.931   3.021
 4899SOL    HW216537   7.934   1.924   2.909
 4900SOL     OW16538   9.609   3.914   5.934
 4900SOL    HW116539   9.555   3.919   5.855
 4900SOL    HW216540   9.573   3.982   5.992
 4901SOL     OW16541   4.068   4.159  14.632
 4901SOL    HW116542   3.998   4.199  14.581
 4901SOL    HW216543   4.034   4.159  14.722
 4902SOL     OW16544   9.970   8.648   6.856
 4902SOL    HW116545  10.044   8.705   6.879
 4902SOL    HW216546   9.999   8.560   6.881
 4903SOL     OW16547   3.036   4.942  10.100
 4903SOL    HW116548   2.996   4.870  10.147
 4903SOL    HW216549   2.971   5.012  10.102
 4904SOL     OW16550   0.256   6.709   0.102
 4904SOL    HW116551   0.251   6.614   0.106
 4904SOL    HW216552   0.330   6.732   0.160
 4905SOL     OW16553   8.324  11.276   0.656
 4905SOL    HW116554   8.355  11.186   0.671
 4905SOL    HW216555   8.250  11.286   0.715
 4906SOL     OW16556  13.005   6.688   4.491
 4906SOL    HW116557  13.073   6.670   4.556
 4906SOL    HW216558  13.053   6.694   4.408
 4907SOL     OW16559   1.784   2.641  13.589
 4907SOL    HW116560   1.772   2.640  13.684
 4907SOL    HW216561   1.873   2.607  13.576
 4908SOL     OW16562   5.688  12.974  10.607
 4908SOL    HW116563   5.711  12.981  10.515
 4908SOL    HW216564   5.607  13.024  10.616
 4909SOL     OW16565   9.560   7.171   3.133
 4909SOL    HW116566   9.496   7.188   3.203
 4909SOL    HW216567   9.553   7.246   3.075
 4910SOL     OW16568   9.957  10.330   1.227
 4910SOL    HW116569   9.939  10.421   1.205
 4910SOL    HW216570  10.046  10.331   1.263
 4911SOL     OW16571   4.412   8.444   8.538
 4911SOL    HW116572   4.457   8.402   8.465
 4911SOL    HW216573   4.337   8.488   8.498
 4912SOL     OW16574   9.553   0.761  11.127
 4912SOL    HW116575   9.616   0.788  11.194
 4912SOL    HW216576   9.467   0.770  11.170
 4913SOL     OW16577   2.041   3.701  11.914
 4913SOL    HW116578   1.988   3.775  11.945
 4913SOL    HW216579   2.129   3.720  11.947
 4914SOL     OW16580   8.168  12.784   8.477
 4914SOL    HW116581   8.096  12.844   8.463
 4914SOL    HW216582   8.212  12.816   8.556
 4915SOL     OW16583   4.408   4.252   7.427
 4915SOL    HW116584   4.447   4.167   7.410
 4915SOL    HW216585   4.411   4.297   7.342
 4916SOL     OW16586   1.545   0.875   7.906
 4916SOL    HW116587   1.531   0.938   7.977
 4916SOL    HW216588   1.457   0.858   7.872
 4917SOL     OW16589  11.681   9.322   1.379
 4917SOL    HW116590  11.628   9.396   1.353
 4917SOL    HW216591  11.704   9.278   1.297
 4918SOL     OW16592   4.443   3.050   2.086
 4918SOL    HW116593   4.372   3.056   2.022
 4918SOL    HW216594   4.520   3.030   2.034
 4919SOL     OW16595   7.580   8.565   7.068
 4919SOL    HW116596   7.562   8.471   7.070
 4919SOL    HW216597   7.551   8.597   7.153
 4920SOL     OW16598   7.188   1.377   7.071
 4920SOL    HW116599   7.251   1.434   7.115
 4920SOL    HW216600   7.191   1.295   7.120
 4921SOL     OW16601   1.513   7.122   9.363
 4921SOL    HW116602   1.530   7.062   9.435
 4921SOL    HW216603   1.532   7.209   9.400
 4922SOL     OW16604  12.776  11.868   3.088
 4922SOL    HW116605  12.790  11.786   3.136
 4922SOL    HW216606  12.836  11.863   3.014
 4923SOL     OW16607   2.419   3.752  11.184
 4923SOL    HW116608   2.397   3.788  11.270
 4923SOL    HW216609   2.344   3.775  11.129
 4924SOL     OW16610   8.536   5.530  13.126
 4924SOL    HW116611   8.617   5.504  13.083
 4924SOL    HW216612   8.480   5.562  13.055
 4925SOL     OW16613   8.358   1.257  12.080
 4925SOL    HW116614   8.399   1.171  12.065
 4925SOL    HW216615   8.267   1.244  12.054
 4926SOL     OW16616  10.861   4.317  10.231
 4926SOL    HW116617  10.935   4.262  10.205
 4926SOL    HW216618  10.793   4.255  10.258
 4927SOL     OW16619   0.637  11.305  13.888
 4927SOL    HW116620   0.632  11.241  13.959
 4927SOL    HW216621   0.592  11.382  13.922
 4928SOL     OW16622   2.322   1.426  12.806
 4928SOL    HW116623   2.249   1.478  12.773
 4928SOL    HW216624   2.286   1.339  12.821
 4929SOL     OW16625   9.687  14.583   8.571
 4929SOL    HW116626   9.727  14.568   8.656
 4929SOL    HW216627   9.715  14.672   8.547
 4930SOL     OW16628  12.849   4.494  13.927
 4930SOL    HW116629  12.758   4.513  13.902
 4930SOL    HW216630  12.852   4.510  14.021
 4931SOL     OW16631  14.162   4.568   2.082
 4931SOL    HW116632  14.201   4.643   2.127
 4931SOL    HW216633  14.078   4.599   2.050
 4932SOL     OW16634   8.945   1.242   2.844
 4932SOL    HW116635   8.922   1.321   2.894
 4932SOL    HW216636   8.903   1.255   2.759
 4933SOL     OW16637   8.782   3.579   3.320
 4933SOL    HW116638   8.797   3.607   3.410
 4933SOL    HW216639   8.861   3.530   3.296
 4934SOL     OW16640  14.291  12.748   7.672
 4934SOL    HW116641  14.206  12.706   7.682
 4934SOL    HW216642  14.276  12.818   7.609
 4935SOL     OW16643   7.604  12.256  14.032
 4935SOL    HW116644   7.541  12.209  13.977
 4935SOL    HW216645   7.575  12.347  14.031
 4936SOL     OW16646  13.871   1.726   8.861
 4936SOL    HW116647  13.779   1.752   8.852
 4936SOL    HW216648  13.920   1.808   8.852
 4937SOL     OW16649  13.076  11.915  14.665
 4937SOL    HW116650  13.091  11.945  14.576
 4937SOL    HW216651  13.121  11.980  14.720
 4938SOL     OW16652   7.198   6.631   2.204
 4938SOL    HW116653   7.127   6.678   2.161
 4938SOL    HW216654   7.186   6.649   2.297
 4939SOL     OW16655   2.381   9.064   1.717
 4939SOL    HW116656   2.365   9.046   1.809
 4939SOL    HW216657   2.412   9.154   1.714
 4940SOL     OW16658  14.096   6.360  13.333
 4940SOL    HW116659  14.180   6.402  13.350
 4940SOL    HW216660  14.031   6.429  13.347
 4941SOL     OW16661  11.175  10.361   3.136
 4941SOL    HW116662  11.237  10.353   3.064
 4941SOL    HW216663  11.107  10.419   3.103
 4942SOL     OW16664  13.507   9.567   3.474
 4942SOL    HW116665  13.448   9.496   3.497
 4942SOL    HW216666  13.565   9.530   3.408
 4943SOL     OW16667   0.707   1.451   3.809
 4943SOL    HW116668   0.801   1.460   3.799
 4943SOL    HW216669   0.688   1.360   3.785
 4944SOL     OW16670   9.625   8.238  10.969
 4944SOL    HW116671   9.677   8.318  10.955
 4944SOL    HW216672   9.647   8.210  11.058
 4945SOL     OW16673   4.439  13.287  10.378
 4945SOL    HW116674   4.438  13.356  10.445
 4945SOL    HW216675   4.425  13.334  10.296
 4946SOL     OW16676   6.294   1.181   1.665
 4946SOL    HW116677   6.383   1.185   1.629
 4946SOL    HW216678   6.238   1.175   1.588
 4947SOL     OW16679   3.483  13.728   3.747
 4947SOL    HW116680   3.557  13.777   3.784
 4947SOL    HW216681   3.460  13.664   3.814
 4948SOL     OW16682   3.912  12.396   3.339
 4948SOL    HW116683   3.894  12.304   3.318
 4948SOL    HW216684   3.881  12.406   3.429
 4949SOL     OW16685   1.649   0.080   3.153
 4949SOL    HW116686   1.602   0.154   3.191
 4949SOL    HW216687   1.594   0.004   3.172
 4950SOL     OW16688   8.242   8.614  10.228
 4950SOL    HW116689   8.315   8.607  10.290
 4950SOL    HW216690   8.252   8.701  10.190
 4951SOL     OW16691  12.166  11.900   6.180
 4951SOL    HW116692  12.251  11.941   6.195
 4951SOL    HW216693  12.160  11.892   6.085
 4952SOL     OW16694   4.591  12.993   2.289
 4952SOL    HW116695   4.534  12.916   2.281
 4952SOL    HW216696   4.548  13.048   2.353
 4953SOL     OW16697   5.338   0.660   9.266
 4953SOL    HW116698   5.309   0.694   9.182
 4953SOL    HW216699   5.266   0.605   9.296
 4954SOL     OW16700   2.302   2.313   1.759
 4954SOL    HW116701   2.363   2.240   1.772
 4954SOL    HW216702   2.296   2.322   1.663
 4955SOL     OW16703   8.837   4.885   9.946
 4955SOL    HW116704   8.825   4.955  10.011
 4955SOL    HW216705   8.874   4.812   9.996
 4956SOL     OW16706   1.074  10.211   0.538
 4956SOL    HW116707   1.009  10.205   0.609
 4956SOL    HW216708   1.139  10.274   0.570
 4957SOL     OW16709  12.593   4.242   0.778
 4957SOL    HW116710  12.667   4.182   0.776
 4957SOL    HW216711  12.540   4.212   0.852
 4958SOL     OW16712   9.767  10.057   1.482
 4958SOL    HW116713   9.766  10.019   1.393
 4958SOL    HW216714   9.736  10.146   1.470
 4959SOL     OW16715   8.160   3.163   8.118
 4959SOL    HW116716   8.133   3.074   8.096
 4959SOL    HW216717   8.136   3.173   8.210
 4960SOL     OW16718  10.902  12.069   7.028
 4960SOL    HW116719  10.952  12.047   7.107
 4960SOL    HW216720  10.811  12.062   7.056
 4961SOL     OW16721  12.814   2.375  13.574
 4961SOL    HW116722  12.807   2.422  13.491
 4961SOL    HW216723  12.746   2.308  13.570
 4962SOL     OW16724  14.295   1.852   2.288
 4962SOL    HW116725  14.369   1.866   2.346
 4962SOL    HW216726  14.282   1.937   2.245
 4963SOL     OW16727   9.464   8.012  13.268
 4963SOL    HW116728   9.490   7.970  13.186
 4963SOL    HW216729   9.533   7.989  13.330
 4964SOL     OW16730   2.244   7.362   3.249
 4964SOL    HW116731   2.279   7.273   3.251
 4964SOL    HW216732   2.150   7.350   3.234
 4965SOL     OW16733   1.770   4.886  13.379
 4965SOL    HW116734   1.687   4.849  13.407
 4965SOL    HW216735   1.756   4.981  13.380
 4966SOL     OW16736   3.749   6.599   2.143
 4966SOL    HW116737   3.827   6.545   2.150
 4966SOL    HW216738   3.766   6.674   2.201
 4967SOL     OW16739   8.534   5.184   3.028
 4967SOL    HW116740   8.498   5.107   3.074
 4967SOL    HW216741   8.559   5.151   2.942
 4968SOL     OW16742  11.632   5.499   5.038
 4968SOL    HW116743  11.722   5.527   5.019
 4968SOL    HW216744  11.583   5.581   5.045
 4969SOL     OW16745   2.796   3.007   2.747
 4969SOL    HW116746   2.721   2.952   2.767
 4969SOL    HW216747   2.766   3.064   2.676
 4970SOL     OW16748   8.938   8.857  13.838
 4970SOL    HW116749   8.978   8.909  13.908
 4970SOL    HW216750   9.012   8.818  13.792
 4971SOL     OW16751   0.118   3.308   9.784
 4971SOL    HW116752   0.096   3.337   9.695
 4971SOL    HW216753   0.088   3.379   9.841
 4972SOL     OW16754   6.808  14.038   6.578
 4972SOL    HW116755   6.718  14.028   6.546
 4972SOL    HW216756   6.863  14.023   6.501
 4973SOL     OW16757   1.754   9.598   8.047
 4973SOL    HW116758   1.837   9.603   8.002
 4973SOL    HW216759   1.704   9.674   8.016
 4974SOL     OW16760  10.702   6.205   6.315
 4974SOL    HW116761  10.629   6.158   6.274
 4974SOL    HW216762  10.731   6.266   6.248
 4975SOL     OW16763   1.992   3.547   7.511
 4975SOL    HW116764   1.914   3.591   7.477
 4975SOL    HW216765   2.037   3.515   7.433
 4976SOL     OW16766   4.580   3.381  11.601
 4976SOL    HW116767   4.496   3.343  11.574
 4976SOL    HW216768   4.646   3.334  11.551
 4977SOL     OW16769   7.375  12.538   6.795
 4977SOL    HW116770   7.465  12.508   6.806
 4977SOL    HW216771   7.372  12.621   6.842
 4978SOL     OW16772  14.075  13.920  11.199
 4978SOL    HW116773  14.047  13.969  11.276
 4978SOL    HW216774  14.029  13.836  11.206
 4979SOL     OW16775   4.777   7.859   1.487
 4979SOL    HW116776   4.827   7.893   1.561
 4979SOL    HW216777   4.737   7.936   1.448
 4980SOL     OW16778   7.031  12.005   2.675
 4980SOL    HW116779   7.050  12.099   2.681
 4980SOL    HW216780   7.110  11.962   2.708
 4981SOL     OW16781   7.962   2.837  12.544
 4981SOL    HW116782   7.990   2.801  12.628
 4981SOL    HW216783   7.870   2.812  12.537
 4982SOL     OW16784   2.972  11.679   6.539
 4982SOL    HW116785   2.885  11.694   6.503
 4982SOL    HW216786   2.978  11.737   6.614
 4983SOL     OW16787   5.731   7.583   2.794
 4983SOL    HW116788   5.759   7.505   2.843
 4983SOL    HW216789   5.690   7.549   2.715
 4984SOL     OW16790   6.692  13.935   1.575
 4984SOL    HW116791   6.664  13.853   1.534
 4984SOL    HW216792   6.771  13.912   1.623
 4985SOL     OW16793   3.819  13.108   1.020
 4985SOL    HW116794   3.874  13.170   1.067
 4985SOL    HW216795   3.770  13.063   1.089
 4986SOL     OW16796   6.037   0.505  14.813
 4986SOL    HW116797   5.959   0.552  14.844
 4986SOL    HW216798   6.084   0.569  14.760
 4987SOL     OW16799  11.657  14.021   7.577
 4987SOL    HW116800  11.664  14.089   7.644
 4987SOL    HW216801  11.739  14.029   7.527
 4988SOL     OW16802   2.395   4.049  10.775
 4988SOL    HW116803   2.395   4.121  10.837
 4988SOL    HW216804   2.326   3.990  10.807
 4989SOL     OW16805  10.112   5.599   7.042
 4989SOL    HW116806  10.065   5.674   7.079
 4989SOL    HW216807  10.050   5.562   6.978
 4990SOL     OW16808   4.607   9.978  11.142
 4990SOL    HW116809   4.652   9.903  11.104
 4990SOL    HW216810   4.535   9.996  11.081
 4991SOL     OW16811   6.984   0.849   3.286
 4991SOL    HW116812   7.010   0.927   3.334
 4991SOL    HW216813   7.057   0.788   3.296
 4992SOL     OW16814  14.083   0.064  10.788
 4992SOL    HW116815  14.013   0.099  10.733
 4992SOL    HW216816  14.149   0.034  10.725
 4993SOL     OW16817   9.777   6.308   3.956
 4993SOL    HW116818   9.735   6.385   3.920
 4993SOL    HW216819   9.715   6.275   4.021
 4994SOL     OW16820   4.147  14.323   5.077
 4994SOL    HW116821   4.180  14.397   5.026
 4994SOL    HW216822   4.226  14.277   5.106
 4995SOL     OW16823   9.376   9.372  10.293
 4995SOL    HW116824   9.412   9.307  10.354
 4995SOL    HW216825   9.366   9.324  10.211
 4996SOL     OW16826   0.385   4.648   1.923
 4996SOL    HW116827   0.470   4.605   1.913
 4996SOL    HW216828   0.384   4.678   2.014
 4997SOL     OW16829   9.498  14.130   5.556
 4997SOL    HW116830   9.584  14.169   5.570
 4997SOL    HW216831   9.502  14.046   5.601
 4998SOL     OW16832  10.684  12.694   3.835
 4998SOL    HW116833  10.778  12.685   3.817
 4998SOL    HW216834  10.679  12.757   3.907
 4999SOL     OW16835   7.029   6.080  14.394
 4999SOL    HW116836   7.048   6.030  14.474
 4999SOL    HW216837   6.938   6.107  14.404
 5000SOL     OW16838   4.763   6.363   8.023
 5000SOL    HW116839   4.791   6.401   8.106
 5000SOL    HW216840   4.844   6.329   7.985
 5001SOL     OW16841   5.050   0.746   7.713
 5001SOL    HW116842   5.015   0.722   7.798
 5001SOL    HW216843   5.047   0.842   7.712
 5002SOL     OW16844  13.438  13.265   1.319
 5002SOL    HW116845  13.382  13.189   1.306
 5002SOL    HW216846  13.434  13.283   1.413
 5003SOL     OW16847   8.703   2.832  12.431
 5003SOL    HW116848   8.703   2.917  12.387
 5003SOL    HW216849   8.663   2.773  12.368
 5004SOL     OW16850  12.489  12.346   6.164
 5004SOL    HW116851  12.453  12.420   6.115
 5004SOL    HW216852  12.561  12.314   6.111
 5005SOL     OW16853   9.543   5.654   1.579
 5005SOL    HW116854   9.592   5.607   1.512
 5005SOL    HW216855   9.470   5.596   1.602
 5006SOL     OW16856   4.124  10.133   4.215
 5006SOL    HW116857   4.193  10.192   4.244
 5006SOL    HW216858   4.162  10.045   4.222
 5007SOL     OW16859   5.486   2.294  11.900
 5007SOL    HW116860   5.453   2.238  11.970
 5007SOL    HW216861   5.581   2.298  11.915
 5008SOL     OW16862  10.466  11.874  10.987
 5008SOL    HW116863  10.459  11.961  10.948
 5008SOL    HW216864  10.456  11.813  10.914
 5009SOL     OW16865   6.880   2.800   8.039
 5009SOL    HW116866   6.827   2.725   8.012
 5009SOL    HW216867   6.968   2.765   8.052
 5010SOL     OW16868   1.322   8.986   0.704
 5010SOL    HW116869   1.373   8.922   0.754
 5010SOL    HW216870   1.232   8.956   0.712
 5011SOL     OW16871   2.114  13.368   2.150
 5011SOL    HW116872   2.079  13.349   2.238
 5011SOL    HW216873   2.173  13.442   2.163
 5012SOL     OW16874   5.678   1.679   2.028
 5012SOL    HW116875   5.610   1.671   2.096
 5012SOL    HW216876   5.631   1.667   1.946
 5013SOL     OW16877  13.049   2.120  12.618
 5013SOL    HW116878  13.102   2.146  12.543
 5013SOL    HW216879  13.001   2.200  12.641
 5014SOL     OW16880  10.183  10.327   3.568
 5014SOL    HW116881  10.174  10.397   3.503
 5014SOL    HW216882  10.209  10.373   3.648
 5015SOL     OW16883  14.433   0.553   8.145
 5015SOL    HW116884  14.392   0.634   8.176
 5015SOL    HW216885  14.383   0.529   8.067
 5016SOL     OW16886  10.956   5.937   4.568
 5016SOL    HW116887  10.989   6.001   4.505
 5016SOL    HW216888  10.898   5.987   4.625
 5017SOL     OW16889   5.722   4.033   8.491
 5017SOL    HW116890   5.779   4.100   8.452
 5017SOL    HW216891   5.645   4.031   8.433
 5018SOL     OW16892  10.683  12.590  10.789
 5018SOL    HW116893  10.687  12.496  10.770
 5018SOL    HW216894  10.590  12.607  10.805
 5019SOL     OW16895   5.142   8.856   4.932
 5019SOL    HW116896   5.100   8.885   5.012
 5019SOL    HW216897   5.073   8.813   4.882
 5020SOL     OW16898   4.589   3.458   1.504
 5020SOL    HW116899   4.682   3.476   1.490
 5020SOL    HW216900   4.557   3.434   1.417
 5021SOL     OW16901   6.606  10.079   9.914
 5021SOL    HW116902   6.541  10.048   9.852
 5021SOL    HW216903   6.688  10.038   9.886
 5022SOL     OW16904   1.250   6.128   8.579
 5022SOL    HW116905   1.267   6.221   8.568
 5022SOL    HW216906   1.266   6.090   8.493
 5023SOL     OW16907   8.130   9.129   7.359
 5023SOL    HW116908   8.085   9.178   7.427
 5023SOL    HW216909   8.130   9.187   7.282
 5024SOL     OW16910   2.015  14.826   7.334
 5024SOL    HW116911   1.932  14.836   7.380
 5024SOL    HW216912   2.073  14.782   7.396
 5025SOL     OW16913   9.645   6.061   0.007
 5025SOL    HW116914   9.708   6.100  14.823
 5025SOL    HW216915   9.560   6.091  14.852
 5026SOL     OW16916  11.657   0.874   3.593
 5026SOL    HW116917  11.631   0.964   3.612
 5026SOL    HW216918  11.731   0.857   3.651
 5027SOL     OW16919   9.059  13.391  13.326
 5027SOL    HW116920   9.129  13.348  13.376
 5027SOL    HW216921   8.985  13.331  13.332
 5028SOL     OW16922   4.363   1.673   4.856
 5028SOL    HW116923   4.362   1.639   4.767
 5028SOL    HW216924   4.376   1.767   4.845
 5029SOL     OW16925   5.133  11.150   0.525
 5029SOL    HW116926   5.152  11.234   0.566
 5029SOL    HW216927   5.078  11.104   0.588
 5030SOL     OW16928  13.455   1.565  10.849
 5030SOL    HW116929  13.419   1.631  10.789
 5030SOL    HW216930  13.407   1.577  10.930
 5031SOL     OW16931  11.505   1.275  11.454
 5031SOL    HW116932  11.440   1.291  11.385
 5031SOL    HW216933  11.523   1.181  11.449
 5032SOL     OW16934  13.620   8.370  13.263
 5032SOL    HW116935  13.619   8.307  13.192
 5032SOL    HW216936  13.536   8.359  13.307
 5033SOL     OW16937  14.297   7.070  12.736
 5033SOL    HW116938  14.220   7.127  12.747
 5033SOL    HW216939  14.328   7.090  12.648
 5034SOL     OW16940   0.706   2.610   1.253
 5034SOL    HW116941   0.711   2.533   1.196
 5034SOL    HW216942   0.791   2.615   1.295
 5035SOL     OW16943  11.712   4.653   0.344
 5035SOL    HW116944  11.730   4.568   0.384
 5035SOL    HW216945  11.640   4.635   0.282
 5036SOL     OW16946   8.029   1.614   9.669
 5036SOL    HW116947   8.075   1.602   9.752
 5036SOL    HW216948   8.092   1.589   9.602
 5037SOL     OW16949   3.899  10.983  14.301
 5037SOL    HW116950   3.859  10.905  14.263
 5037SOL    HW216951   3.981  10.952  14.340
 5038SOL     OW16952   7.792  13.367   8.055
 5038SOL    HW116953   7.829  13.441   8.008
 5038SOL    HW216954   7.701  13.391   8.070
 5039SOL     OW16955  11.969  10.340  12.214
 5039SOL    HW116956  11.912  10.263  12.215
 5039SOL    HW216957  11.911  10.413  12.190
 5040SOL     OW16958  12.570   5.265   4.251
 5040SOL    HW116959  12.645   5.234   4.200
 5040SOL    HW216960  12.565   5.205   4.326
 5041SOL     OW16961  13.806   9.972   3.806
 5041SOL    HW116962  13.738   9.987   3.741
 5041SOL    HW216963  13.843  10.058   3.823
 5042SOL     OW16964   8.659  12.852   8.720
 5042SOL    HW116965   8.734  12.838   8.778
 5042SOL    HW216966   8.650  12.947   8.714
 5043SOL     OW16967   0.998   5.131  10.145
 5043SOL    HW116968   1.048   5.212  10.148
 5043SOL    HW216969   0.918   5.154  10.098
 5044SOL     OW16970   4.010   6.192  12.307
 5044SOL    HW116971   4.046   6.179  12.395
 5044SOL    HW216972   4.013   6.287  12.294
 5045SOL     OW16973   3.519   2.897   5.548
 5045SOL    HW116974   3.441   2.934   5.589
 5045SOL    HW216975   3.555   2.969   5.496
 5046SOL     OW16976   7.606  12.491   6.318
 5046SOL    HW116977   7.544  12.513   6.388
 5046SOL    HW216978   7.551  12.466   6.244
 5047SOL     OW16979   7.656  13.431   4.711
 5047SOL    HW116980   7.573  13.456   4.671
 5047SOL    HW216981   7.634  13.408   4.801
 5048SOL     OW16982  12.853   4.259   0.520
 5048SOL    HW116983  12.796   4.189   0.553
 5048SOL    HW216984  12.891   4.223   0.440
 5049SOL     OW16985   6.139  13.340   8.449
 5049SOL    HW116986   6.100  13.329   8.536
 5049SOL    HW216987   6.229  13.310   8.460
 5050SOL     OW16988   0.898  13.753   7.610
 5050SOL    HW116989   0.912  13.747   7.515
 5050SOL    HW216990   0.944  13.833   7.636
 5051SOL     OW16991   1.264  12.847   5.056
 5051SOL    HW116992   1.266  12.837   4.960
 5051SOL    HW216993   1.224  12.933   5.070
 5052SOL     OW16994   5.452  11.695   2.992
 5052SOL    HW116995   5.532  11.741   2.966
 5052SOL    HW216996   5.483  11.625   3.050
 5053SOL     OW16997   4.884   4.958  13.018
 5053SOL    HW116998   4.980   4.958  13.015
 5053SOL    HW216999   4.857   4.983  12.930
 5054SOL     OW17000  12.185   4.163   0.974
 5054SOL    HW117001  12.201   4.082   0.926
 5054SOL    HW217002  12.099   4.150   1.015
 5055SOL     OW17003   1.446   4.584  13.940
 5055SOL    HW117004   1.526   4.613  13.985
 5055SOL    HW217005   1.442   4.490  13.956
 5056SOL     OW17006  11.000   0.102  10.810
 5056SOL    HW117007  11.022   0.165  10.879
 5056SOL    HW217008  10.959   0.154  10.742
 5057SOL     OW17009  11.235   8.500   3.662
 5057SOL    HW117010  11.229   8.595   3.652
 5057SOL    HW217011  11.238   8.466   3.573
 5058SOL     OW17012   7.353   1.546   8.142
 5058SOL    HW117013   7.447   1.547   8.122
 5058SOL    HW217014   7.322   1.632   8.114
 5059SOL     OW17015   4.914  10.839   0.703
 5059SOL    HW117016   4.862  10.759   0.707
 5059SOL    HW217017   4.991  10.816   0.651
 5060SOL     OW17018  14.188  10.317   6.138
 5060SOL    HW117019  14.252  10.364   6.191
 5060SOL    HW217020  14.177  10.371   6.060
 5061SOL     OW17021   4.758   2.440   9.027
 5061SOL    HW117022   4.742   2.464   9.118
 5061SOL    HW217023   4.837   2.385   9.029
 5062SOL     OW17024   1.559  11.679  13.496
 5062SOL    HW117025   1.475  11.721  13.474
 5062SOL    HW217026   1.584  11.719  13.579
 5063SOL     OW17027   8.956   8.478   5.127
 5063SOL    HW117028   8.877   8.509   5.082
 5063SOL    HW217029   9.024   8.540   5.099
 5064SOL     OW17030   9.799  13.588  13.514
 5064SOL    HW117031   9.712  13.552  13.500
 5064SOL    HW217032   9.849  13.561  13.437
 5065SOL     OW17033   9.132  12.663   0.004
 5065SOL    HW117034   9.053  12.699  14.839
 5065SOL    HW217035   9.124  12.569  14.869
 5066SOL     OW17036   7.714  14.422   9.048
 5066SOL    HW117037   7.767  14.359   8.999
 5066SOL    HW217038   7.657  14.368   9.103
 5067SOL     OW17039   9.590  13.906  12.624
 5067SOL    HW117040   9.499  13.879  12.638
 5067SOL    HW217041   9.642  13.833  12.656
 5068SOL     OW17042  10.377  12.874   9.763
 5068SOL    HW117043  10.410  12.903   9.849
 5068SOL    HW217044  10.409  12.784   9.754
 5069SOL     OW17045   1.157  13.216   0.002
 5069SOL    HW117046   1.080  13.159  14.873
 5069SOL    HW217047   1.124  13.303  14.853
 5070SOL     OW17048   7.542   4.432   7.152
 5070SOL    HW117049   7.576   4.392   7.072
 5070SOL    HW217050   7.448   4.416   7.149
 5071SOL     OW17051  11.528   2.838  10.219
 5071SOL    HW117052  11.557   2.913  10.271
 5071SOL    HW217053  11.501   2.875  10.135
 5072SOL     OW17054   3.359   7.547  14.754
 5072SOL    HW117055   3.275   7.501  14.751
 5072SOL    HW217056   3.416   7.491  14.807
 5073SOL     OW17057   1.652  13.020   6.013
 5073SOL    HW117058   1.657  13.058   6.100
 5073SOL    HW217059   1.663  13.094   5.954
 5074SOL     OW17060   9.108   4.530  10.988
 5074SOL    HW117061   9.049   4.469  10.944
 5074SOL    HW217062   9.050   4.597  11.025
 5075SOL     OW17063   8.422   9.719   3.556
 5075SOL    HW117064   8.417   9.795   3.614
 5075SOL    HW217065   8.515   9.698   3.550
 5076SOL     OW17066  11.276  10.586  11.678
 5076SOL    HW117067  11.204  10.551  11.626
 5076SOL    HW217068  11.290  10.521  11.747
 5077SOL     OW17069   5.188   4.404   9.946
 5077SOL    HW117070   5.129   4.369  10.013
 5077SOL    HW217071   5.134   4.461   9.893
 5078SOL     OW17072  10.922  12.975   6.056
 5078SOL    HW117073  10.887  12.941   5.974
 5078SOL    HW217074  10.992  13.034   6.029
 5079SOL     OW17075   6.458  12.532  13.093
 5079SOL    HW117076   6.402  12.605  13.070
 5079SOL    HW217077   6.432  12.510  13.183
 5080SOL     OW17078   8.928   2.997   2.827
 5080SOL    HW117079   9.011   3.002   2.780
 5080SOL    HW217080   8.888   2.916   2.796
 5081SOL     OW17081   1.221  11.809   8.011
 5081SOL    HW117082   1.182  11.770   8.089
 5081SOL    HW217083   1.180  11.763   7.938
 5082SOL     OW17084  14.119   7.482   0.404
 5082SOL    HW117085  14.206   7.503   0.438
 5082SOL    HW217086  14.067   7.560   0.421
 5083SOL     OW17087   5.999   5.114   9.515
 5083SOL    HW117088   5.921   5.141   9.467
 5083SOL    HW217089   5.997   5.019   9.512
 5084SOL     OW17090   7.613   5.252   2.550
 5084SOL    HW117091   7.588   5.255   2.642
 5084SOL    HW217092   7.651   5.339   2.533
 5085SOL     OW17093   9.849  12.579  12.830
 5085SOL    HW117094   9.917  12.602  12.766
 5085SOL    HW217095   9.770  12.570  12.778
 5086SOL     OW17096   1.665   8.792   5.277
 5086SOL    HW117097   1.595   8.851   5.305
 5086SOL    HW217098   1.745   8.845   5.283
 5087SOL     OW17099   4.830  11.324   5.535
 5087SOL    HW117100   4.755  11.285   5.490
 5087SOL    HW217101   4.887  11.249   5.555
 5088SOL     OW17102   9.417  10.871   8.966
 5088SOL    HW117103   9.410  10.918   8.882
 5088SOL    HW217104   9.435  10.780   8.941
 5089SOL     OW17105  12.409  10.430  11.912
 5089SOL    HW117106  12.323  10.390  11.923
 5089SOL    HW217107  12.392  10.524  11.915
 5090SOL     OW17108   0.664   0.428   0.370
 5090SOL    HW117109   0.709   0.454   0.290
 5090SOL    HW217110   0.695   0.490   0.436
 5091SOL     OW17111   5.652   9.124   7.019
 5091SOL    HW117112   5.563   9.149   7.040
 5091SOL    HW217113   5.681   9.188   6.954
 5092SOL     OW17114   4.015   4.770   1.256
 5092SOL    HW117115   4.037   4.858   1.227
 5092SOL    HW217116   4.009   4.718   1.176
 5093SOL     OW17117   9.256  12.615  12.070
 5093SOL    HW117118   9.309  12.581  12.143
 5093SOL    HW217119   9.188  12.549  12.058
 5094SOL     OW17120   0.814   3.842   7.712
 5094SOL    HW117121   0.734   3.883   7.679
 5094SOL    HW217122   0.854   3.801   7.635
 5095SOL     OW17123   9.241   5.261   3.725
 5095SOL    HW117124   9.252   5.283   3.633
 5095SOL    HW217125   9.207   5.172   3.725
 5096SOL     OW17126   0.097   5.727   2.143
 5096SOL    HW117127   0.181   5.749   2.101
 5096SOL    HW217128   0.111   5.641   2.183
 5097SOL     OW17129  11.014   1.087   6.677
 5097SOL    HW117130  10.957   1.012   6.660
 5097SOL    HW217131  10.987   1.152   6.612
 5098SOL     OW17132   2.894  14.122   9.906
 5098SOL    HW117133   2.882  14.196   9.965
 5098SOL    HW217134   2.973  14.144   9.856
 5099SOL     OW17135  12.358  14.312   1.797
 5099SOL    HW117136  12.375  14.233   1.848
 5099SOL    HW217137  12.437  14.326   1.746
 5100SOL     OW17138  11.152  13.634   2.707
 5100SOL    HW117139  11.111  13.567   2.652
 5100SOL    HW217140  11.220  13.672   2.652
 5101SOL     OW17141   6.722   5.181   3.711
 5101SOL    HW117142   6.670   5.261   3.717
 5101SOL    HW217143   6.657   5.110   3.706
 5102SOL     OW17144   2.923  12.580  10.275
 5102SOL    HW117145   3.016  12.581  10.299
 5102SOL    HW217146   2.879  12.624  10.348
 5103SOL     OW17147   2.211   0.693   4.425
 5103SOL    HW117148   2.162   0.772   4.446
 5103SOL    HW217149   2.205   0.686   4.329
 5104SOL     OW17150  12.104   5.165   5.645
 5104SOL    HW117151  12.195   5.168   5.616
 5104SOL    HW217152  12.099   5.087   5.700
 5105SOL     OW17153   7.650   2.431   9.844
 5105SOL    HW117154   7.590   2.451   9.772
 5105SOL    HW217155   7.681   2.342   9.826
 5106SOL     OW17156   7.287   1.810  11.532
 5106SOL    HW117157   7.299   1.762  11.451
 5106SOL    HW217158   7.374   1.813  11.572
 5107SOL     OW17159  12.117  12.735  11.976
 5107SOL    HW117160  12.202  12.693  11.991
 5107SOL    HW217161  12.113  12.749  11.882
 5108SOL     OW17162   1.390  10.057  14.536
 5108SOL    HW117163   1.356  10.074  14.449
 5108SOL    HW217164   1.419   9.966  14.533
 5109SOL     OW17165   4.548   0.387   9.087
 5109SOL    HW117166   4.587   0.355   9.006
 5109SOL    HW217167   4.599   0.465   9.108
 5110SOL     OW17168  11.493   6.949   2.002
 5110SOL    HW117169  11.567   6.962   1.943
 5110SOL    HW217170  11.532   6.923   2.085
 5111SOL     OW17171   1.562   5.056  11.669
 5111SOL    HW117172   1.507   5.044  11.591
 5111SOL    HW217173   1.566   4.969  11.708
 5112SOL     OW17174  12.383   7.412  14.614
 5112SOL    HW117175  12.323   7.343  14.587
 5112SOL    HW217176  12.328   7.478  14.655
 5113SOL     OW17177   0.051   1.301   2.017
 5113SOL    HW117178  14.865   1.229   2.023
 5113SOL    HW217179   0.128   1.263   1.976
 5114SOL     OW17180  10.869   0.039  14.500
 5114SOL    HW117181  10.811   0.060  14.573
 5114SOL    HW217182  10.916   0.121  14.483
 5115SOL     OW17183   6.104   9.846   1.005
 5115SOL    HW117184   6.068   9.923   0.962
 5115SOL    HW217185   6.114   9.873   1.097
 5116SOL     OW17186   3.529  14.234  12.054
 5116SOL    HW117187   3.590  14.198  11.989
 5116SOL    HW217188   3.552  14.189  12.135
 5117SOL     OW17189   0.599   4.624   5.923
 5117SOL    HW117190   0.525   4.679   5.951
 5117SOL    HW217191   0.672   4.685   5.913
 5118SOL     OW17192  12.460  12.418   7.072
 5118SOL    HW117193  12.453  12.381   6.984
 5118SOL    HW217194  12.373  12.453   7.091
 5119SOL     OW17195  14.164   1.774   9.465
 5119SOL    HW117196  14.085   1.802   9.418
 5119SOL    HW217197  14.215   1.727   9.399
 5120SOL     OW17198  12.587  12.950  10.487
 5120SOL    HW117199  12.497  12.919  10.477
 5120SOL    HW217200  12.616  12.967  10.397
 5121SOL     OW17201   9.981  10.263   6.935
 5121SOL    HW117202   9.887  10.271   6.956
 5121SOL    HW217203   9.999  10.338   6.878
 5122SOL     OW17204   9.769  11.824   1.291
 5122SOL    HW117205   9.714  11.783   1.357
 5122SOL    HW217206   9.838  11.868   1.341
 5123SOL     OW17207  10.928  11.332   6.080
 5123SOL    HW117208  10.948  11.371   6.165
 5123SOL    HW217209  10.878  11.253   6.101
 5124SOL     OW17210  11.823  13.484  11.814
 5124SOL    HW117211  11.870  13.566  11.829
 5124SOL    HW217212  11.851  13.455  11.727
 5125SOL     OW17213  11.291   0.230   7.406
 5125SOL    HW117214  11.198   0.214   7.385
 5125SOL    HW217215  11.338   0.168   7.350
 5126SOL     OW17216   0.340   5.241   6.546
 5126SOL    HW117217   0.421   5.287   6.524
 5126SOL    HW217218   0.368   5.151   6.564
 5127SOL     OW17219   8.670   8.038   5.174
 5127SOL    HW117220   8.747   8.005   5.128
 5127SOL    HW217221   8.597   8.016   5.117
 5128SOL     OW17222   1.416   6.651  14.460
 5128SOL    HW117223   1.389   6.607  14.541
 5128SOL    HW217224   1.405   6.744  14.479
 5129SOL     OW17225  12.352  10.219   1.321
 5129SOL    HW117226  12.399  10.149   1.366
 5129SOL    HW217227  12.260  10.195   1.329
 5130SOL     OW17228  13.509   9.761   4.992
 5130SOL    HW117229  13.533   9.765   4.900
 5130SOL    HW217230  13.587   9.790   5.039
 5131SOL     OW17231   2.557  12.108   6.237
 5131SOL    HW117232   2.645  12.131   6.208
 5131SOL    HW217233   2.546  12.155   6.320
 5132SOL     OW17234   3.956   3.715  11.793
 5132SOL    HW117235   4.030   3.735  11.736
 5132SOL    HW217236   3.927   3.801  11.825
 5133SOL     OW17237   8.433  11.809   0.303
 5133SOL    HW117238   8.437  11.857   0.386
 5133SOL    HW217239   8.514  11.760   0.299
 5134SOL     OW17240   1.611  12.831   9.616
 5134SOL    HW117241   1.625  12.737   9.622
 5134SOL    HW217242   1.678  12.862   9.555
 5135SOL     OW17243   7.679   0.503   6.629
 5135SOL    HW117244   7.619   0.522   6.557
 5135SOL    HW217245   7.710   0.588   6.657
 5136SOL     OW17246   5.239  14.409  10.749
 5136SOL    HW117247   5.283  14.427  10.666
 5136SOL    HW217248   5.257  14.317  10.766
 5137SOL     OW17249   7.307   5.459   9.468
 5137SOL    HW117250   7.231   5.430   9.519
 5137SOL    HW217251   7.311   5.397   9.394
 5138SOL     OW17252   5.133   3.123  14.566
 5138SOL    HW117253   5.110   3.214  14.584
 5138SOL    HW217254   5.104   3.075  14.643
 5139SOL     OW17255   3.164  10.672   8.282
 5139SOL    HW117256   3.191  10.671   8.374
 5139SOL    HW217257   3.201  10.592   8.245
 5140SOL     OW17258  13.923  12.084   6.488
 5140SOL    HW117259  13.931  11.994   6.523
 5140SOL    HW217260  13.874  12.074   6.407
 5141SOL     OW17261  13.834   5.908   5.069
 5141SOL    HW117262  13.835   6.003   5.085
 5141SOL    HW217263  13.927   5.884   5.068
 5142SOL     OW17264   5.917   8.922   3.618
 5142SOL    HW117265   5.997   8.971   3.598
 5142SOL    HW217266   5.943   8.830   3.613
 5143SOL     OW17267  11.966   2.272  12.885
 5143SOL    HW117268  11.933   2.361  12.873
 5143SOL    HW217269  12.058   2.283  12.907
 5144SOL     OW17270  11.414   7.710   6.255
 5144SOL    HW117271  11.329   7.736   6.217
 5144SOL    HW217272  11.451   7.651   6.190
 5145SOL     OW17273   2.515   8.754   5.531
 5145SOL    HW117274   2.474   8.676   5.493
 5145SOL    HW217275   2.498   8.747   5.625
 5146SOL     OW17276  10.863   5.641   2.938
 5146SOL    HW117277  10.790   5.598   2.892
 5146SOL    HW217278  10.855   5.733   2.913
 5147SOL     OW17279  14.273  12.202  11.790
 5147SOL    HW117280  14.181  12.222  11.777
 5147SOL    HW217281  14.291  12.129  11.731
 5148SOL     OW17282   3.200  10.198  13.810
 5148SOL    HW117283   3.252  10.221  13.733
 5148SOL    HW217284   3.258  10.141  13.861
 5149SOL     OW17285   1.393   6.668   6.483
 5149SOL    HW117286   1.418   6.582   6.517
 5149SOL    HW217287   1.470   6.722   6.496
 5150SOL     OW17288  13.553  13.382   9.166
 5150SOL    HW117289  13.529  13.317   9.232
 5150SOL    HW217290  13.594  13.331   9.096
 5151SOL     OW17291  12.464   9.050   0.969
 5151SOL    HW117292  12.556   9.056   0.944
 5151SOL    HW217293  12.431   9.139   0.962
 5152SOL     OW17294   9.457   2.705  14.094
 5152SOL    HW117295   9.498   2.640  14.037
 5152SOL    HW217296   9.363   2.696  14.077
 5153SOL     OW17297   9.509  14.184   1.641
 5153SOL    HW117298   9.596  14.159   1.671
 5153SOL    HW217299   9.522  14.211   1.550
 5154SOL     OW17300   6.452   5.485   8.047
 5154SOL    HW117301   6.426   5.515   7.960
 5154SOL    HW217302   6.437   5.560   8.104
 5155SOL     OW17303  14.456   0.298   9.473
 5155SOL    HW117304  14.389   0.347   9.424
 5155SOL    HW217305  14.494   0.239   9.408
 5156SOL     OW17306   1.499   9.798  11.538
 5156SOL    HW117307   1.529   9.747  11.613
 5156SOL    HW217308   1.453   9.872  11.576
 5157SOL     OW17309   8.786   3.726   1.924
 5157SOL    HW117310   8.780   3.813   1.886
 5157SOL    HW217311   8.865   3.728   1.978
 5158SOL     OW17312   2.655   1.626   6.655
 5158SOL    HW117313   2.576   1.582   6.626
 5158SOL    HW217314   2.708   1.636   6.576
 5159SOL     OW17315  13.769   5.386   4.392
 5159SOL    HW117316  13.696   5.328   4.373
 5159SOL    HW217317  13.815   5.395   4.308
 5160SOL     OW17318  13.416   7.991   3.551
 5160SOL    HW117319  13.331   8.032   3.534
 5160SOL    HW217320  13.458   8.048   3.616
 5161SOL     OW17321   0.528   7.174   5.862
 5161SOL    HW117322   0.542   7.265   5.886
 5161SOL    HW217323   0.475   7.178   5.783
 5162SOL     OW17324  13.301   1.238   1.139
 5162SOL    HW117325  13.339   1.312   1.186
 5162SOL    HW217326  13.307   1.263   1.046
 5163SOL     OW17327  10.894   1.777   4.292
 5163SOL    HW117328  10.822   1.824   4.250
 5163SOL    HW217329  10.973   1.819   4.257
 5164SOL     OW17330   6.194   5.255   9.265
 5164SOL    HW117331   6.157   5.180   9.218
 5164SOL    HW217332   6.224   5.314   9.196
 5165SOL     OW17333   5.226  11.757   7.813
 5165SOL    HW117334   5.222  11.793   7.901
 5165SOL    HW217335   5.140  11.716   7.800
 5166SOL     OW17336   5.443   2.935   3.668
 5166SOL    HW117337   5.517   2.891   3.626
 5166SOL    HW217338   5.478   3.018   3.700
 5167SOL     OW17339  11.637   2.837   2.065
 5167SOL    HW117340  11.676   2.761   2.109
 5167SOL    HW217341  11.668   2.912   2.116
 5168SOL     OW17342   5.730   4.900  13.950
 5168SOL    HW117343   5.740   4.859  13.864
 5168SOL    HW217344   5.711   4.827  14.009
 5169SOL     OW17345   4.394   0.857  11.373
 5169SOL    HW117346   4.325   0.893  11.429
 5169SOL    HW217347   4.437   0.935  11.336
 5170SOL     OW17348   4.739   9.124   6.986
 5170SOL    HW117349   4.740   9.133   6.891
 5170SOL    HW217350   4.806   9.058   7.005
 5171SOL     OW17351   5.177   9.870   9.116
 5171SOL    HW117352   5.130   9.916   9.047
 5171SOL    HW217353   5.269   9.891   9.100
 5172SOL     OW17354  12.923   5.833  11.101
 5172SOL    HW117355  12.867   5.760  11.129
 5172SOL    HW217356  12.910   5.839  11.007
 5173SOL     OW17357   0.837  14.060   0.528
 5173SOL    HW117358   0.880  14.136   0.568
 5173SOL    HW217359   0.854  13.988   0.588
 5174SOL     OW17360   6.112   2.853   1.131
 5174SOL    HW117361   6.199   2.820   1.108
 5174SOL    HW217362   6.126   2.943   1.158
 5175SOL     OW17363  14.446   5.651   3.887
 5175SOL    HW117364  14.518   5.641   3.825
 5175SOL    HW217365  14.488   5.663   3.972
 5176SOL     OW17366   6.273   4.896   6.989
 5176SOL    HW117367   6.195   4.855   6.952
 5176SOL    HW217368   6.276   4.866   7.080
 5177SOL     OW17369   8.615   4.465   4.278
 5177SOL    HW117370   8.651   4.553   4.269
 5177SOL    HW217371   8.539   4.465   4.219
 5178SOL     OW17372  12.319   2.639   5.336
 5178SOL    HW117373  12.252   2.686   5.287
 5178SOL    HW217374  12.314   2.676   5.424
 5179SOL     OW17375   2.696  13.506   6.592
 5179SOL    HW117376   2.768  13.529   6.532
 5179SOL    HW217377   2.646  13.588   6.602
 5180SOL     OW17378  11.201   2.207   4.823
 5180SOL    HW117379  11.225   2.274   4.887
 5180SOL    HW217380  11.111   2.229   4.798
 5181SOL     OW17381   2.983  11.901  10.857
 5181SOL    HW117382   2.941  11.982  10.886
 5181SOL    HW217383   3.015  11.920  10.769
 5182SOL     OW17384  12.162   5.838   7.743
 5182SOL    HW117385  12.219   5.850   7.819
 5182SOL    HW217386  12.210   5.879   7.671
 5183SOL     OW17387   2.648   6.871  14.249
 5183SOL    HW117388   2.621   6.846  14.160
 5183SOL    HW217389   2.725   6.926  14.236
 5184SOL     OW17390  12.355  11.853   2.888
 5184SOL    HW117391  12.332  11.931   2.837
 5184SOL    HW217392  12.282  11.793   2.875
 5185SOL     OW17393  13.441   6.895   5.399
 5185SOL    HW117394  13.414   6.815   5.443
 5185SOL    HW217395  13.438   6.874   5.306
 5186SOL     OW17396   3.208  13.939  13.918
 5186SOL    HW117397   3.217  14.033  13.904
 5186SOL    HW217398   3.120  13.918  13.887
 5187SOL     OW17399  11.277  13.879   7.340
 5187SOL    HW117400  11.285  13.918   7.253
 5187SOL    HW217401  11.344  13.810   7.342
 5188SOL     OW17402   2.546   5.901   0.124
 5188SOL    HW117403   2.555   5.806   0.126
 5188SOL    HW217404   2.454   5.916   0.105
 5189SOL     OW17405  13.106  11.931  13.763
 5189SOL    HW117406  13.178  11.899  13.818
 5189SOL    HW217407  13.103  12.025  13.781
 5190SOL     OW17408   8.262   1.434   1.864
 5190SOL    HW117409   8.207   1.509   1.886
 5190SOL    HW217410   8.329   1.470   1.805
 5191SOL     OW17411   3.581   4.899   1.687
 5191SOL    HW117412   3.553   4.979   1.642
 5191SOL    HW217413   3.532   4.829   1.645
 5192SOL     OW17414  13.374  12.166   9.844
 5192SOL    HW117415  13.352  12.073   9.849
 5192SOL    HW217416  13.375  12.186   9.751
 5193SOL     OW17417   7.646   1.673   2.584
 5193SOL    HW117418   7.575   1.641   2.528
 5193SOL    HW217419   7.644   1.615   2.660
 5194SOL     OW17420   3.744   7.263  13.011
 5194SOL    HW117421   3.650   7.282  13.022
 5194SOL    HW217422   3.747   7.184  12.957
 5195SOL     OW17423   7.111  11.879   4.859
 5195SOL    HW117424   7.167  11.957   4.860
 5195SOL    HW217425   7.118  11.845   4.770
 5196SOL     OW17426   7.040  13.736   6.920
 5196SOL    HW117427   7.046  13.641   6.909
 5196SOL    HW217428   6.998  13.748   7.005
 5197SOL     OW17429   4.420   1.679  11.471
 5197SOL    HW117430   4.343   1.631  11.502
 5197SOL    HW217431   4.399   1.705  11.382
 5198SOL     OW17432   1.120   8.390   5.227
 5198SOL    HW117433   1.071   8.455   5.277
 5198SOL    HW217434   1.184   8.441   5.177
 5199SOL     OW17435   9.890   5.548   9.215
 5199SOL    HW117436   9.825   5.478   9.217
 5199SOL    HW217437   9.894   5.573   9.122
 5200SOL     OW17438  11.499   5.695   9.605
 5200SOL    HW117439  11.430   5.652   9.656
 5200SOL    HW217440  11.497   5.786   9.634
 5201SOL     OW17441   0.146   2.232   1.627
 5201SOL    HW117442   0.230   2.190   1.608
 5201SOL    HW217443   0.136   2.224   1.722
 5202SOL     OW17444  10.646  11.673   4.308
 5202SOL    HW117445  10.619  11.608   4.243
 5202SOL    HW217446  10.566  11.718   4.332
 5203SOL     OW17447   2.341  14.767   0.788
 5203SOL    HW117448   2.300  14.706   0.727
 5203SOL    HW217449   2.291  14.757   0.869
 5204SOL     OW17450   2.549   8.053   3.978
 5204SOL    HW117451   2.598   8.135   3.989
 5204SOL    HW217452   2.615   7.984   3.986
 5205SOL     OW17453  14.286   9.891   3.873
 5205SOL    HW117454  14.206   9.935   3.901
 5205SOL    HW217455  14.296   9.917   3.781
 5206SOL     OW17456   3.640  11.990  14.243
 5206SOL    HW117457   3.663  11.998  14.335
 5206SOL    HW217458   3.598  11.904  14.235
 5207SOL     OW17459  14.206   3.659  14.537
 5207SOL    HW117460  14.155   3.715  14.478
 5207SOL    HW217461  14.288   3.707  14.549
 5208SOL     OW17462   0.126   8.441  12.443
 5208SOL    HW117463   0.033   8.447  12.426
 5208SOL    HW217464   0.167   8.453  12.357
 5209SOL     OW17465  12.929   3.429   4.802
 5209SOL    HW117466  12.908   3.346   4.845
 5209SOL    HW217467  12.899   3.496   4.863
 5210SOL     OW17468   2.274   1.449   0.471
 5210SOL    HW117469   2.305   1.360   0.455
 5210SOL    HW217470   2.297   1.466   0.563
 5211SOL     OW17471   7.132   6.770  13.445
 5211SOL    HW117472   7.188   6.754  13.521
 5211SOL    HW217473   7.181   6.833  13.391
 5212SOL     OW17474  14.756   3.675   5.594
 5212SOL    HW117475  14.778   3.588   5.561
 5212SOL    HW217476  14.665   3.689   5.565
 5213SOL     OW17477   0.250  11.788   9.772
 5213SOL    HW117478   0.341  11.761   9.762
 5213SOL    HW217479   0.256  11.881   9.797
 5214SOL     OW17480   8.860   0.721   2.253
 5214SOL    HW117481   8.876   0.813   2.272
 5214SOL    HW217482   8.946   0.687   2.226
 5215SOL     OW17483   4.202   6.832   9.785
 5215SOL    HW117484   4.274   6.841   9.848
 5215SOL    HW217485   4.124   6.821   9.840
 5216SOL     OW17486  14.073   5.707   6.502
 5216SOL    HW117487  14.122   5.753   6.434
 5216SOL    HW217488  14.099   5.615   6.492
 5217SOL     OW17489   3.685  14.404   6.007
 5217SOL    HW117490   3.683  14.443   6.094
 5217SOL    HW217491   3.695  14.478   5.947
 5218SOL     OW17492   2.773   4.214   4.643
 5218SOL    HW117493   2.791   4.290   4.699
 5218SOL    HW217494   2.725   4.153   4.699
 5219SOL     OW17495   5.944   8.262   6.480
 5219SOL    HW117496   5.876   8.196   6.492
 5219SOL    HW217497   5.920   8.332   6.540
 5220SOL     OW17498   4.056   9.959   3.680
 5220SOL    HW117499   4.115   9.898   3.723
 5220SOL    HW217500   3.996   9.988   3.749
 5221SOL     OW17501  12.828   9.707   1.793
 5221SOL    HW117502  12.861   9.794   1.770
 5221SOL    HW217503  12.812   9.712   1.887
 5222SOL     OW17504   8.224   6.906   9.355
 5222SOL    HW117505   8.271   6.827   9.380
 5222SOL    HW217506   8.132   6.879   9.354
 5223SOL     OW17507   1.828   4.018   4.376
 5223SOL    HW117508   1.892   4.059   4.435
 5223SOL    HW217509   1.755   4.079   4.372
 5224SOL     OW17510   3.181   4.143   8.441
 5224SOL    HW117511   3.243   4.216   8.445
 5224SOL    HW217512   3.211   4.082   8.509
 5225SOL     OW17513   2.048  13.575   9.310
 5225SOL    HW117514   2.119  13.632   9.280
 5225SOL    HW217515   2.035  13.512   9.239
 5226SOL     OW17516   4.199   0.072   8.783
 5226SOL    HW117517   4.205   0.053   8.876
 5226SOL    HW217518   4.289   0.065   8.751
 5227SOL     OW17519  12.881   4.114   2.577
 5227SOL    HW117520  12.842   4.098   2.663
 5227SOL    HW217521  12.806   4.128   2.519
 5228SOL     OW17522   5.365   3.275   2.001
 5228SOL    HW117523   5.332   3.299   2.088
 5228SOL    HW217524   5.460   3.273   2.011
 5229SOL     OW17525  14.675   0.698  13.097
 5229SOL    HW117526  14.716   0.705  13.010
 5229SOL    HW217527  14.615   0.625  13.089
 5230SOL     OW17528   5.510  14.419   4.540
 5230SOL    HW117529   5.512  14.392   4.449
 5230SOL    HW217530   5.434  14.478   4.546
 5231SOL     OW17531  11.030   7.721   7.804
 5231SOL    HW117532  10.952   7.700   7.856
 5231SOL    HW217533  11.089   7.764   7.866
 5232SOL     OW17534   8.027   7.530   7.667
 5232SOL    HW117535   7.971   7.535   7.590
 5232SOL    HW217536   8.096   7.594   7.650
 5233SOL     OW17537   1.390   6.216  13.538
 5233SOL    HW117538   1.371   6.303  13.504
 5233SOL    HW217539   1.383   6.226  13.633
 5234SOL     OW17540  13.258   1.189   5.461
 5234SOL    HW117541  13.292   1.216   5.376
 5234SOL    HW217542  13.217   1.104   5.445
 5235SOL     OW17543   0.439   0.917   3.718
 5235SOL    HW117544   0.494   0.841   3.738
 5235SOL    HW217545   0.500   0.983   3.685
 5236SOL     OW17546  10.167   0.831   3.182
 5236SOL    HW117547  10.107   0.830   3.257
 5236SOL    HW217548  10.254   0.834   3.221
 5237SOL     OW17549  10.743  12.070   1.268
 5237SOL    HW117550  10.821  12.124   1.254
 5237SOL    HW217551  10.708  12.100   1.352
 5238SOL     OW17552   2.032   7.436   7.811
 5238SOL    HW117553   2.052   7.523   7.846
 5238SOL    HW217554   1.980   7.394   7.879
 5239SOL     OW17555  10.610   1.941  12.130
 5239SOL    HW117556  10.674   1.989  12.077
 5239SOL    HW217557  10.530   1.942  12.077
 5240SOL     OW17558   0.496  13.454   4.685
 5240SOL    HW117559   0.470  13.461   4.777
 5240SOL    HW217560   0.591  13.443   4.688
 5241SOL     OW17561   3.872   3.902   4.092
 5241SOL    HW117562   3.955   3.891   4.045
 5241SOL    HW217563   3.807   3.914   4.023
 5242SOL     OW17564   8.684   9.635   3.548
 5242SOL    HW117565   8.769   9.622   3.506
 5242SOL    HW217566   8.696   9.600   3.636
 5243SOL     OW17567   4.690  11.225  14.533
 5243SOL    HW117568   4.664  11.270  14.613
 5243SOL    HW217569   4.679  11.290  14.463
 5244SOL     OW17570  11.759   9.389  13.057
 5244SOL    HW117571  11.750   9.294  13.043
 5244SOL    HW217572  11.672   9.425  13.039
 5245SOL     OW17573   0.458   7.442   3.177
 5245SOL    HW117574   0.507   7.398   3.108
 5245SOL    HW217575   0.418   7.518   3.134
 5246SOL     OW17576   4.673   2.405   2.211
 5246SOL    HW117577   4.656   2.374   2.300
 5246SOL    HW217578   4.586   2.415   2.172
 5247SOL     OW17579   9.737   8.678  13.885
 5247SOL    HW117580   9.827   8.679  13.855
 5247SOL    HW217581   9.738   8.618  13.961
 5248SOL     OW17582   7.009   2.539  13.084
 5248SOL    HW117583   7.090   2.557  13.035
 5248SOL    HW217584   6.968   2.467  13.035
 5249SOL     OW17585   6.199   5.257   2.676
 5249SOL    HW117586   6.239   5.300   2.600
 5249SOL    HW217587   6.162   5.329   2.727
 5250SOL     OW17588   3.639   4.591   3.748
 5250SOL    HW117589   3.640   4.566   3.655
 5250SOL    HW217590   3.688   4.673   3.751
 5251SOL     OW17591   6.077   2.938   9.951
 5251SOL    HW117592   6.018   2.921   9.877
 5251SOL    HW217593   6.156   2.888   9.931
 5252SOL     OW17594   8.420   3.949   5.940
 5252SOL    HW117595   8.412   3.866   5.987
 5252SOL    HW217596   8.343   3.952   5.883
 5253SOL     OW17597  10.882  10.351  14.346
 5253SOL    HW117598  10.861  10.400  14.424
 5253SOL    HW217599  10.798  10.323  14.311
 5254SOL     OW17600  12.761   5.621  11.145
 5254SOL    HW117601  12.722   5.596  11.061
 5254SOL    HW217602  12.687   5.637  11.203
 5255SOL     OW17603   3.685  10.372   7.535
 5255SOL    HW117604   3.644  10.323   7.464
 5255SOL    HW217605   3.732  10.306   7.586
 5256SOL     OW17606   2.927   8.542   1.122
 5256SOL    HW117607   2.924   8.635   1.102
 5256SOL    HW217608   2.835   8.515   1.123
 5257SOL     OW17609   0.141  11.884  11.887
 5257SOL    HW117610   0.142  11.958  11.947
 5257SOL    HW217611   0.233  11.863  11.872
 5258SOL     OW17612   3.105   7.303   9.239
 5258SOL    HW117613   3.148   7.237   9.293
 5258SOL    HW217614   3.054   7.356   9.300
 5259SOL     OW17615   3.153   6.785   8.706
 5259SOL    HW117616   3.233   6.832   8.731
 5259SOL    HW217617   3.164   6.768   8.613
 5260SOL     OW17618   9.656   2.747   6.596
 5260SOL    HW117619   9.633   2.675   6.538
 5260SOL    HW217620   9.747   2.769   6.573
 5261SOL     OW17621   0.547   1.367  13.123
 5261SOL    HW117622   0.628   1.345  13.169
 5261SOL    HW217623   0.542   1.305  13.050
 5262SOL     OW17624   4.075   4.876   7.234
 5262SOL    HW117625   4.014   4.939   7.272
 5262SOL    HW217626   4.045   4.791   7.267
 5263SOL     OW17627  13.811   0.787  13.370
 5263SOL    HW117628  13.808   0.691  13.366
 5263SOL    HW217629  13.891   0.810  13.323
 5264SOL     OW17630   1.779   6.159  12.140
 5264SOL    HW117631   1.710   6.149  12.075
 5264SOL    HW217632   1.758   6.093  12.207
 5265SOL     OW17633   2.701   3.319   1.361
 5265SOL    HW117634   2.706   3.271   1.444
 5265SOL    HW217635   2.625   3.282   1.316
 5266SOL     OW17636  10.590   2.968  10.448
 5266SOL    HW117637  10.661   2.979  10.384
 5266SOL    HW217638  10.520   2.926  10.399
 5267SOL     OW17639   8.955  10.536  11.724
 5267SOL    HW117640   8.938  10.502  11.811
 5267SOL    HW217641   8.870  10.565  11.692
 5268SOL     OW17642  12.086   5.645   2.186
 5268SOL    HW117643  12.108   5.719   2.242
 5268SOL    HW217644  12.024   5.593   2.237
 5269SOL     OW17645   7.763   8.570   1.270
 5269SOL    HW117646   7.757   8.474   1.274
 5269SOL    HW217647   7.703   8.600   1.338
 5270SOL     OW17648   9.079   6.464   9.575
 5270SOL    HW117649   8.998   6.470   9.523
 5270SOL    HW217650   9.112   6.553   9.577
 5271SOL     OW17651   5.217   9.512   4.850
 5271SOL    HW117652   5.298   9.559   4.832
 5271SOL    HW217653   5.173   9.506   4.766
 5272SOL     OW17654   8.057   1.352   2.204
 5272SOL    HW117655   8.051   1.377   2.112
 5272SOL    HW217656   8.116   1.277   2.205
 5273SOL     OW17657   3.996  10.589   7.064
 5273SOL    HW117658   4.020  10.497   7.051
 5273SOL    HW217659   3.984  10.598   7.158
 5274SOL     OW17660  11.336   5.223  14.828
 5274SOL    HW117661  11.280   5.270  14.767
 5274SOL    HW217662  11.392   5.290  14.866
 5275SOL     OW17663   7.096  10.829  14.715
 5275SOL    HW117664   7.112  10.843  14.622
 5275SOL    HW217665   7.118  10.737  14.730
 5276SOL     OW17666  14.245   7.014  10.169
 5276SOL    HW117667  14.334   7.046  10.156
 5276SOL    HW217668  14.196   7.090  10.201
 5277SOL     OW17669   6.896   2.360   5.763
 5277SOL    HW117670   6.896   2.289   5.699
 5277SOL    HW217671   6.950   2.327   5.835
 5278SOL     OW17672  12.197  12.018  11.722
 5278SOL    HW117673  12.106  11.989  11.721
 5278SOL    HW217674  12.194  12.106  11.760
 5279SOL     OW17675   8.606  10.342   3.797
 5279SOL    HW117676   8.644  10.271   3.848
 5279SOL    HW217677   8.565  10.399   3.862
 5280SOL     OW17678   5.388  12.237  13.947
 5280SOL    HW117679   5.419  12.308  14.004
 5280SOL    HW217680   5.455  12.169  13.955
 5281SOL     OW17681  13.955   8.539  13.839
 5281SOL    HW117682  13.969   8.623  13.883
 5281SOL    HW217683  13.963   8.558  13.746
 5282SOL     OW17684   9.437   3.183   5.440
 5282SOL    HW117685   9.533   3.176   5.437
 5282SOL    HW217686   9.415   3.156   5.529
 5283SOL     OW17687   0.707   3.181   2.917
 5283SOL    HW117688   0.746   3.192   3.004
 5283SOL    HW217689   0.739   3.256   2.867
 5284SOL     OW17690   4.632   6.308   7.103
 5284SOL    HW117691   4.633   6.223   7.059
 5284SOL    HW217692   4.642   6.287   7.196
 5285SOL     OW17693  11.369   6.032  12.618
 5285SOL    HW117694  11.315   6.013  12.694
 5285SOL    HW217695  11.311   6.079  12.558
 5286SOL     OW17696   1.728   0.361   8.055
 5286SOL    HW117697   1.778   0.315   7.988
 5286SOL    HW217698   1.694   0.439   8.011
 5287SOL     OW17699   5.889   5.991  10.679
 5287SOL    HW117700   5.984   5.982  10.678
 5287SOL    HW217701   5.869   6.027  10.765
 5288SOL     OW17702   9.666   5.478   0.450
 5288SOL    HW117703   9.624   5.563   0.434
 5288SOL    HW217704   9.750   5.501   0.490
 5289SOL     OW17705  12.105   6.801   8.126
 5289SOL    HW117706  12.172   6.733   8.121
 5289SOL    HW217707  12.022   6.752   8.128
 5290SOL     OW17708  10.500   1.889  10.489
 5290SOL    HW117709  10.411   1.868  10.519
 5290SOL    HW217710  10.556   1.860  10.561
 5291SOL     OW17711  14.289   2.272   9.408
 5291SOL    HW117712  14.206   2.318   9.415
 5291SOL    HW217713  14.276   2.191   9.458
 5292SOL     OW17714  13.850  13.225   6.956
 5292SOL    HW117715  13.770  13.229   7.008
 5292SOL    HW217716  13.821  13.214   6.866
 5293SOL     OW17717  14.715   6.328   5.981
 5293SOL    HW117718  14.802   6.316   6.020
 5293SOL    HW217719  14.714   6.418   5.951
 5294SOL     OW17720   6.594   1.130  14.431
 5294SOL    HW117721   6.525   1.190  14.400
 5294SOL    HW217722   6.616   1.161  14.518
 5295SOL     OW17723   6.558   3.592  12.577
 5295SOL    HW117724   6.600   3.676  12.561
 5295SOL    HW217725   6.468   3.614  12.603
 5296SOL     OW17726   9.348   7.587   9.204
 5296SOL    HW117727   9.341   7.533   9.283
 5296SOL    HW217728   9.272   7.563   9.151
 5297SOL     OW17729   1.525  12.958  12.365
 5297SOL    HW117730   1.583  13.033  12.379
 5297SOL    HW217731   1.523  12.913  12.450
 5298SOL     OW17732   3.069   9.674  13.319
 5298SOL    HW117733   3.093   9.641  13.405
 5298SOL    HW217734   3.122   9.622  13.258
 5299SOL     OW17735   1.905   8.603   8.423
 5299SOL    HW117736   1.996   8.613   8.452
 5299SOL    HW217737   1.852   8.635   8.497
 5300SOL     OW17738   4.369   2.714   3.469
 5300SOL    HW117739   4.447   2.710   3.414
 5300SOL    HW217740   4.402   2.713   3.559
 5301SOL     OW17741   0.879   2.670  13.745
 5301SOL    HW117742   0.821   2.595  13.759
 5301SOL    HW217743   0.951   2.657  13.807
 5302SOL     OW17744   0.693   7.954   6.863
 5302SOL    HW117745   0.684   7.969   6.957
 5302SOL    HW217746   0.754   7.881   6.856
 5303SOL     OW17747   4.093   8.269   5.204
 5303SOL    HW117748   4.129   8.238   5.288
 5303SOL    HW217749   4.141   8.350   5.186
 5304SOL     OW17750  11.414   4.035  13.980
 5304SOL    HW117751  11.488   4.059  14.036
 5304SOL    HW217752  11.433   4.077  13.896
 5305SOL     OW17753   9.453   4.127   4.843
 5305SOL    HW117754   9.526   4.182   4.814
 5305SOL    HW217755   9.481   4.092   4.928
 5306SOL     OW17756   9.445   6.149  13.577
 5306SOL    HW117757   9.511   6.197  13.626
 5306SOL    HW217758   9.381   6.215  13.550
 5307SOL     OW17759   2.358  12.405   6.384
 5307SOL    HW117760   2.377  12.452   6.303
 5307SOL    HW217761   2.306  12.330   6.357
 5308SOL     OW17762  14.593   7.121   3.761
 5308SOL    HW117763  14.585   7.124   3.666
 5308SOL    HW217764  14.545   7.198   3.792
 5309SOL     OW17765   7.731  11.248   7.931
 5309SOL    HW117766   7.660  11.311   7.918
 5309SOL    HW217767   7.737  11.200   7.848
 5310SOL     OW17768   3.744  11.117   8.532
 5310SOL    HW117769   3.694  11.197   8.519
 5310SOL    HW217770   3.834  11.142   8.512
 5311SOL     OW17771  11.480   7.714  14.142
 5311SOL    HW117772  11.509   7.781  14.081
 5311SOL    HW217773  11.560   7.669  14.168
 5312SOL     OW17774   9.346   1.569   3.360
 5312SOL    HW117775   9.394   1.631   3.414
 5312SOL    HW217776   9.263   1.555   3.407
 5313SOL     OW17777   9.517   3.338   8.257
 5313SOL    HW117778   9.538   3.263   8.202
 5313SOL    HW217779   9.422   3.348   8.249
 5314SOL     OW17780  13.929   9.307   6.452
 5314SOL    HW117781  13.995   9.300   6.383
 5314SOL    HW217782  13.913   9.217   6.479
 5315SOL     OW17783   5.648   8.596  13.426
 5315SOL    HW117784   5.684   8.570  13.341
 5315SOL    HW217785   5.586   8.666  13.405
 5316SOL     OW17786  12.338   2.056   7.278
 5316SOL    HW117787  12.428   2.073   7.251
 5316SOL    HW217788  12.301   2.142   7.295
 5317SOL     OW17789   4.741   9.324   8.505
 5317SOL    HW117790   4.726   9.261   8.576
 5317SOL    HW217791   4.734   9.409   8.547
 5318SOL     OW17792   2.530   9.663   7.765
 5318SOL    HW117793   2.454   9.688   7.712
 5318SOL    HW217794   2.508   9.691   7.853
 5319SOL     OW17795   6.236  14.165   9.494
 5319SOL    HW117796   6.153  14.173   9.446
 5319SOL    HW217797   6.298  14.217   9.443
 5320SOL     OW17798   4.767   3.787   7.056
 5320SOL    HW117799   4.794   3.763   7.145
 5320SOL    HW217800   4.789   3.711   7.002
 5321SOL     OW17801   5.265   9.980   3.264
 5321SOL    HW117802   5.343   9.925   3.255
 5321SOL    HW217803   5.197   9.920   3.296
 5322SOL     OW17804  13.569  14.231  12.516
 5322SOL    HW117805  13.611  14.303  12.562
 5322SOL    HW217806  13.551  14.265  12.429
 5323SOL     OW17807  13.402   3.643   9.969
 5323SOL    HW117808  13.391   3.616  10.060
 5323SOL    HW217809  13.421   3.562   9.922
 5324SOL     OW17810   8.421   4.460   5.389
 5324SOL    HW117811   8.327   4.479   5.394
 5324SOL    HW217812   8.461   4.525   5.447
 5325SOL     OW17813   4.438   8.178  12.892
 5325SOL    HW117814   4.454   8.089  12.859
 5325SOL    HW217815   4.440   8.169  12.987
 5326SOL     OW17816   8.026   4.151   3.954
 5326SOL    HW117817   7.938   4.118   3.940
 5326SOL    HW217818   8.075   4.124   3.876
 5327SOL     OW17819   9.661   1.744  10.600
 5327SOL    HW117820   9.713   1.669  10.630
 5327SOL    HW217821   9.638   1.791  10.680
 5328SOL     OW17822   9.256   0.440  10.549
 5328SOL    HW117823   9.189   0.508  10.540
 5328SOL    HW217824   9.307   0.469  10.625
 5329SOL     OW17825  13.820  14.747   8.908
 5329SOL    HW117826  13.744  14.732   8.851
 5329SOL    HW217827  13.827  14.842   8.914
 5330SOL     OW17828  11.418   7.599   5.489
 5330SOL    HW117829  11.390   7.517   5.531
 5330SOL    HW217830  11.456   7.650   5.561
 5331SOL     OW17831   7.058   3.175   7.030
 5331SOL    HW117832   7.004   3.185   7.109
 5331SOL    HW217833   7.065   3.264   6.995
 5332SOL     OW17834   6.343   4.850   8.597
 5332SOL    HW117835   6.335   4.756   8.581
 5332SOL    HW217836   6.386   4.885   8.519
 5333SOL     OW17837   8.543  11.585  12.208
 5333SOL    HW117838   8.598  11.644  12.260
 5333SOL    HW217839   8.457  11.591  12.248
 5334SOL     OW17840   2.871   0.686   7.584
 5334SOL    HW117841   2.816   0.617   7.549
 5334SOL    HW217842   2.910   0.728   7.507
 5335SOL     OW17843   6.592   8.271   5.429
 5335SOL    HW117844   6.650   8.342   5.401
 5335SOL    HW217845   6.511   8.316   5.456
 5336SOL     OW17846  10.572  10.137   4.706
 5336SOL    HW117847  10.631  10.158   4.634
 5336SOL    HW217848  10.504  10.082   4.666
 5337SOL     OW17849   7.755   6.136  14.426
 5337SOL    HW117850   7.782   6.044  14.426
 5337SOL    HW217851   7.701   6.145  14.505
 5338SOL     OW17852  12.608   4.339   1.763
 5338SOL    HW117853  12.685   4.325   1.708
 5338SOL    HW217854  12.571   4.421   1.732
 5339SOL     OW17855   8.177  13.171   5.742
 5339SOL    HW117856   8.162  13.094   5.797
 5339SOL    HW217857   8.173  13.138   5.652
 5340SOL     OW17858  12.687   7.023   7.994
 5340SOL    HW117859  12.663   7.094   8.053
 5340SOL    HW217860  12.604   6.981   7.971
 5341SOL     OW17861  11.744   8.644   4.259
 5341SOL    HW117862  11.664   8.635   4.311
 5341SOL    HW217863  11.762   8.555   4.229
 5342SOL     OW17864   0.840   3.358  11.008
 5342SOL    HW117865   0.813   3.448  10.988
 5342SOL    HW217866   0.803   3.305  10.937
 5343SOL     OW17867   0.699  12.946   2.099
 5343SOL    HW117868   0.794  12.937   2.096
 5343SOL    HW217869   0.680  13.026   2.050
 5344SOL     OW17870   7.404   5.866   6.472
 5344SOL    HW117871   7.402   5.953   6.431
 5344SOL    HW217872   7.491   5.832   6.450
 5345SOL     OW17873   4.523   8.387   4.476
 5345SOL    HW117874   4.542   8.391   4.382
 5345SOL    HW217875   4.430   8.364   4.480
 5346SOL     OW17876   5.955  10.988   6.985
 5346SOL    HW117877   5.958  11.003   7.079
 5346SOL    HW217878   6.037  10.943   6.965
 5347SOL     OW17879   7.446   2.934   1.691
 5347SOL    HW117880   7.402   2.853   1.716
 5347SOL    HW217881   7.534   2.927   1.729
 5348SOL     OW17882  12.134   6.508   0.842
 5348SOL    HW117883  12.109   6.566   0.771
 5348SOL    HW217884  12.177   6.434   0.799
 5349SOL     OW17885  14.316  13.159   9.554
 5349SOL    HW117886  14.234  13.179   9.600
 5349SOL    HW217887  14.293  13.091   9.491
 5350SOL     OW17888   9.647   2.799   0.224
 5350SOL    HW117889   9.593   2.878   0.231
 5350SOL    HW217890   9.621   2.744   0.297
 5351SOL     OW17891   2.405   6.990   5.751
 5351SOL    HW117892   2.383   6.924   5.684
 5351SOL    HW217893   2.362   7.069   5.720
 5352SOL     OW17894   1.257  12.175  11.367
 5352SOL    HW117895   1.302  12.097  11.400
 5352SOL    HW217896   1.327  12.239  11.355
 5353SOL     OW17897   7.358   4.741   9.830
 5353SOL    HW117898   7.434   4.798   9.819
 5353SOL    HW217899   7.291   4.780   9.774
 5354SOL     OW17900   0.328   7.906  11.403
 5354SOL    HW117901   0.364   7.972  11.463
 5354SOL    HW217902   0.281   7.845  11.460
 5355SOL     OW17903   3.270   9.856   1.133
 5355SOL    HW117904   3.305   9.919   1.070
 5355SOL    HW217905   3.334   9.785   1.134
 5356SOL     OW17906   1.263   7.656   4.018
 5356SOL    HW117907   1.313   7.595   3.965
 5356SOL    HW217908   1.186   7.606   4.046
 5357SOL     OW17909  11.794   7.605  14.719
 5357SOL    HW117910  11.790   7.651  14.802
 5357SOL    HW217911  11.713   7.629  14.673
 5358SOL     OW17912   2.655   0.350   8.005
 5358SOL    HW117913   2.563   0.343   8.031
 5358SOL    HW217914   2.678   0.440   8.025
 5359SOL     OW17915   2.804  14.168  11.878
 5359SOL    HW117916   2.712  14.168  11.904
 5359SOL    HW217917   2.837  14.083  11.906
 5360SOL     OW17918   7.770   5.858   5.779
 5360SOL    HW117919   7.821   5.889   5.853
 5360SOL    HW217920   7.680   5.854   5.811
 5361SOL     OW17921   0.440  11.777   6.402
 5361SOL    HW117922   0.387  11.853   6.378
 5361SOL    HW217923   0.382  11.725   6.458
 5362SOL     OW17924  10.012  10.821  10.478
 5362SOL    HW117925  10.047  10.734  10.494
 5362SOL    HW217926  10.067  10.857  10.409
 5363SOL     OW17927   4.031  11.848   2.841
 5363SOL    HW117928   4.019  11.753   2.847
 5363SOL    HW217929   4.036  11.866   2.747
 5364SOL     OW17930   8.035   1.230  11.442
 5364SOL    HW117931   8.120   1.274  11.447
 5364SOL    HW217932   8.031   1.195  11.353
 5365SOL     OW17933  11.838   2.856   6.405
 5365SOL    HW117934  11.765   2.818   6.454
 5365SOL    HW217935  11.807   2.943   6.379
 5366SOL     OW17936  13.466   9.312   4.486
 5366SOL    HW117937  13.501   9.268   4.564
 5366SOL    HW217938  13.498   9.259   4.413
 5367SOL     OW17939  10.095  10.684   3.049
 5367SOL    HW117940  10.076  10.734   2.970
 5367SOL    HW217941  10.127  10.600   3.017
 5368SOL     OW17942  10.795   0.289   7.979
 5368SOL    HW117943  10.843   0.250   7.906
 5368SOL    HW217944  10.735   0.220   8.008
 5369SOL     OW17945  10.485  14.428   0.215
 5369SOL    HW117946  10.470  14.360   0.281
 5369SOL    HW217947  10.564  14.400   0.169
 5370SOL     OW17948   9.800   2.890   0.020
 5370SOL    HW117949   9.754   2.862   0.099
 5370SOL    HW217950   9.818   2.809  14.849
 5371SOL     OW17951   3.036  11.769   4.466
 5371SOL    HW117952   3.126  11.737   4.456
 5371SOL    HW217953   2.983  11.712   4.411
 5372SOL     OW17954   9.927   5.667   3.476
 5372SOL    HW117955   9.931   5.573   3.460
 5372SOL    HW217956  10.009   5.687   3.522
 5373SOL     OW17957  14.439   1.896  14.129
 5373SOL    HW117958  14.530   1.918  14.110
 5373SOL    HW217959  14.424   1.930  14.218
 5374SOL     OW17960  11.676   7.860  14.509
 5374SOL    HW117961  11.642   7.774  14.483
 5374SOL    HW217962  11.769   7.845  14.525
 5375SOL     OW17963  14.744   3.435   3.887
 5375SOL    HW117964  14.835   3.406   3.889
 5375SOL    HW217965  14.697   3.365   3.841
 5376SOL     OW17966   6.785   4.847  13.589
 5376SOL    HW117967   6.733   4.926  13.579
 5376SOL    HW217968   6.821   4.831  13.501
 5377SOL     OW17969   0.325   2.448   1.374
 5377SOL    HW117970   0.361   2.536   1.388
 5377SOL    HW217971   0.325   2.408   1.461
 5378SOL     OW17972  10.729  13.022   5.144
 5378SOL    HW117973  10.707  12.977   5.225
 5378SOL    HW217974  10.730  12.953   5.077
 5379SOL     OW17975  13.903   4.033  11.562
 5379SOL    HW117976  13.854   3.968  11.613
 5379SOL    HW217977  13.970   4.065  11.623
 5380SOL     OW17978   7.901   5.507   1.610
 5380SOL    HW117979   7.873   5.419   1.587
 5380SOL    HW217980   7.822   5.561   1.597
 5381SOL     OW17981  10.915  14.464   0.553
 5381SOL    HW117982  10.909  14.498   0.642
 5381SOL    HW217983  10.880  14.375   0.559
 5382SOL     OW17984   9.988   8.022   7.922
 5382SOL    HW117985  10.066   7.975   7.952
 5382SOL    HW217986   9.917   7.957   7.928
 5383SOL     OW17987   7.934   8.592   7.305
 5383SOL    HW117988   7.884   8.594   7.387
 5383SOL    HW217989   7.965   8.681   7.293
 5384SOL     OW17990   6.067  11.584   4.206
 5384SOL    HW117991   6.049  11.609   4.115
 5384SOL    HW217992   6.124  11.508   4.199
 5385SOL     OW17993  14.340   0.530   5.916
 5385SOL    HW117994  14.400   0.457   5.902
 5385SOL    HW217995  14.382   0.584   5.984
 5386SOL     OW17996  10.670  13.357   9.178
 5386SOL    HW117997  10.649  13.287   9.117
 5386SOL    HW217998  10.755  13.333   9.216
 5387SOL     OW17999   0.931   8.448   1.336
 5387SOL    HW118000   1.009   8.504   1.335
 5387SOL    HW218001   0.952   8.376   1.276
 5388SOL     OW18002  10.986   8.858  13.635
 5388SOL    HW118003  11.053   8.802  13.596
 5388SOL    HW218004  10.940   8.801  13.697
 5389SOL     OW18005   6.402  11.948   3.435
 5389SOL    HW118006   6.331  12.001   3.399
 5389SOL    HW218007   6.459  12.012   3.478
 5390SOL     OW18008  10.418  12.567  14.706
 5390SOL    HW118009  10.329  12.534  14.716
 5390SOL    HW218010  10.473  12.490  14.721
 5391SOL     OW18011  10.920  14.375  12.579
 5391SOL    HW118012  10.912  14.426  12.499
 5391SOL    HW218013  10.834  14.379  12.620
 5392SOL     OW18014  12.973   5.691   6.633
 5392SOL    HW118015  12.987   5.596   6.627
 5392SOL    HW218016  13.061   5.728   6.638
 5393SOL     OW18017   6.517  13.312  12.489
 5393SOL    HW118018   6.552  13.381  12.546
 5393SOL    HW218019   6.426  13.301  12.517
 5394SOL     OW18020   7.442   7.878   3.460
 5394SOL    HW118021   7.504   7.942   3.427
 5394SOL    HW218022   7.495   7.813   3.506
 5395SOL     OW18023   6.960   4.639   3.274
 5395SOL    HW118024   6.899   4.670   3.207
 5395SOL    HW218025   6.939   4.691   3.352
 5396SOL     OW18026  11.450  12.169   4.120
 5396SOL    HW118027  11.370  12.215   4.146
 5396SOL    HW218028  11.436  12.079   4.148
 5397SOL     OW18029   4.446  11.369   2.872
 5397SOL    HW118030   4.511  11.371   2.942
 5397SOL    HW218031   4.400  11.453   2.880
 5398SOL     OW18032   4.348   6.373   0.029
 5398SOL    HW118033   4.389   6.359  14.820
 5398SOL    HW218034   4.291   6.449   0.016
 5399SOL     OW18035   4.943   1.769   3.267
 5399SOL    HW118036   4.958   1.845   3.322
 5399SOL    HW218037   4.989   1.788   3.186
 5400SOL     OW18038   0.598   4.291  10.268
 5400SOL    HW118039   0.537   4.334  10.327
 5400SOL    HW218040   0.674   4.272  10.323
 5401SOL     OW18041   7.619  12.184  13.743
 5401SOL    HW118042   7.697  12.234  13.767
 5401SOL    HW218043   7.636  12.155  13.654
 5402SOL     OW18044  11.423   3.956   2.299
 5402SOL    HW118045  11.357   3.900   2.258
 5402SOL    HW218046  11.464   4.002   2.226
 5403SOL     OW18047   6.510   9.172   1.565
 5403SOL    HW118048   6.423   9.135   1.550
 5403SOL    HW218049   6.569   9.097   1.555
 5404SOL     OW18050   0.345  13.930  12.155
 5404SOL    HW118051   0.416  13.880  12.116
 5404SOL    HW218052   0.306  13.979  12.083
 5405SOL     OW18053   4.430  10.869   2.176
 5405SOL    HW118054   4.505  10.876   2.236
 5405SOL    HW218055   4.461  10.812   2.106
 5406SOL     OW18056  12.603   7.960  14.172
 5406SOL    HW118057  12.617   8.047  14.211
 5406SOL    HW218058  12.567   7.978  14.085
 5407SOL     OW18059   6.752   0.756   9.765
 5407SOL    HW118060   6.812   0.720   9.699
 5407SOL    HW218061   6.749   0.689   9.833
 5408SOL     OW18062   4.551  12.103   8.609
 5408SOL    HW118063   4.560  12.055   8.526
 5408SOL    HW218064   4.529  12.192   8.583
 5409SOL     OW18065   2.547   2.732  14.805
 5409SOL    HW118066   2.576   2.716  14.715
 5409SOL    HW218067   2.453   2.718  14.804
 5410SOL     OW18068  10.539  12.252   6.390
 5410SOL    HW118069  10.582  12.168   6.374
 5410SOL    HW218070  10.606  12.317   6.369
 5411SOL     OW18071  14.619   6.429  14.461
 5411SOL    HW118072  14.681   6.481  14.410
 5411SOL    HW218073  14.662   6.345  14.473
 5412SOL     OW18074   2.152  14.602   1.474
 5412SOL    HW118075   2.210  14.676   1.457
 5412SOL    HW218076   2.208  14.525   1.464
 5413SOL     OW18077  14.151   3.005   2.798
 5413SOL    HW118078  14.219   3.016   2.865
 5413SOL    HW218079  14.096   3.083   2.806
 5414SOL     OW18080   5.263   4.228   6.265
 5414SOL    HW118081   5.181   4.269   6.235
 5414SOL    HW218082   5.286   4.275   6.344
 5415SOL     OW18083  14.508  12.685   6.725
 5415SOL    HW118084  14.513  12.763   6.671
 5415SOL    HW218085  14.574  12.626   6.689
 5416SOL     OW18086   4.593   7.210   1.670
 5416SOL    HW118087   4.519   7.217   1.610
 5416SOL    HW218088   4.669   7.199   1.614
 5417SOL     OW18089  13.716   7.638  14.622
 5417SOL    HW118090  13.693   7.650  14.714
 5417SOL    HW218091  13.733   7.726  14.590
 5418SOL     OW18092   7.566   1.373   6.153
 5418SOL    HW118093   7.585   1.407   6.065
 5418SOL    HW218094   7.499   1.307   6.138
 5419SOL     OW18095   0.607  12.875  14.400
 5419SOL    HW118096   0.696  12.901  14.423
 5419SOL    HW218097   0.559  12.957  14.392
 5420SOL     OW18098   6.217  11.542   1.245
 5420SOL    HW118099   6.207  11.469   1.307
 5420SOL    HW218100   6.264  11.608   1.295
 5421SOL     OW18101  14.087   7.434   7.460
 5421SOL    HW118102  14.143   7.365   7.494
 5421SOL    HW218103  14.020   7.446   7.528
 5422SOL     OW18104   6.939   6.762  14.227
 5422SOL    HW118105   6.889   6.820  14.285
 5422SOL    HW218106   6.998   6.820  14.179
 5423SOL     OW18107   5.996   3.963   2.439
 5423SOL    HW118108   5.915   3.912   2.437
 5423SOL    HW218109   6.062   3.900   2.467
 5424SOL     OW18110   9.168   7.701   2.812
 5424SOL    HW118111   9.154   7.725   2.720
 5424SOL    HW218112   9.174   7.606   2.811
 5425SOL     OW18113   3.235  12.670   4.262
 5425SOL    HW118114   3.158  12.705   4.218
 5425SOL    HW218115   3.247  12.583   4.224
 5426SOL     OW18116  11.662   0.032  13.097
 5426SOL    HW118117  11.743  14.858  13.098
 5426SOL    HW218118  11.599  14.854  13.145
 5427SOL     OW18119   3.672  11.903   6.904
 5427SOL    HW118120   3.650  11.834   6.965
 5427SOL    HW218121   3.727  11.861   6.838
 5428SOL     OW18122  14.830   9.236   0.134
 5428SOL    HW118123   0.027   9.243   0.196
 5428SOL    HW218124  14.859   9.171   0.070
 5429SOL     OW18125  11.576   2.816   7.834
 5429SOL    HW118126  11.554   2.909   7.843
 5429SOL    HW218127  11.552   2.794   7.745
 5430SOL     OW18128   6.684   8.920   2.717
 5430SOL    HW118129   6.733   8.840   2.737
 5430SOL    HW218130   6.629   8.896   2.642
 5431SOL     OW18131   8.836   7.100   5.305
 5431SOL    HW118132   8.829   7.146   5.221
 5431SOL    HW218133   8.818   7.168   5.371
 5432SOL     OW18134  14.619  11.735   9.315
 5432SOL    HW118135  14.552  11.668   9.303
 5432SOL    HW218136  14.571  11.817   9.326
 5433SOL     OW18137   9.558   1.321  14.162
 5433SOL    HW118138   9.602   1.238  14.178
 5433SOL    HW218139   9.551   1.361  14.249
 5434SOL     OW18140  12.678   0.562  13.992
 5434SOL    HW118141  12.772   0.575  13.983
 5434SOL    HW218142  12.650   0.528  13.907
 5435SOL     OW18143  10.406  10.683   7.502
 5435SOL    HW118144  10.424  10.590   7.513
 5435SOL    HW218145  10.441  10.703   7.415
 5436SOL     OW18146  13.308  10.136   7.092
 5436SOL    HW118147  13.348  10.146   7.006
 5436SOL    HW218148  13.291  10.225   7.122
 5437SOL     OW18149   4.552  10.595   8.407
 5437SOL    HW118150   4.490  10.665   8.392
 5437SOL    HW218151   4.619  10.633   8.464
 5438SOL     OW18152   3.097   4.582  10.936
 5438SOL    HW118153   3.085   4.501  10.886
 5438SOL    HW218154   3.088   4.555  11.027
 5439SOL     OW18155   5.796  10.217  12.575
 5439SOL    HW118156   5.868  10.164  12.543
 5439SOL    HW218157   5.719  10.160  12.569
 5440SOL     OW18158   5.784  11.484  13.829
 5440SOL    HW118159   5.723  11.428  13.877
 5440SOL    HW218160   5.860  11.494  13.887
 5441SOL     OW18161  10.467  13.664   5.479
 5441SOL    HW118162  10.525  13.588   5.483
 5441SOL    HW218163  10.525  13.738   5.461
 5442SOL     OW18164   5.782  13.377   5.734
 5442SOL    HW118165   5.760  13.426   5.813
 5442SOL    HW218166   5.860  13.420   5.699
 5443SOL     OW18167   3.643  13.898   4.343
 5443SOL    HW118168   3.583  13.855   4.282
 5443SOL    HW218169   3.730  13.870   4.314
 5444SOL     OW18170   3.972  14.698  14.721
 5444SOL    HW118171   3.988  14.743  14.637
 5444SOL    HW218172   3.896  14.642  14.704
 5445SOL     OW18173  11.000   3.981   8.117
 5445SOL    HW118174  10.916   3.978   8.164
 5445SOL    HW218175  10.992   3.912   8.051
 5446SOL     OW18176  12.618  10.878  10.123
 5446SOL    HW118177  12.700  10.877  10.173
 5446SOL    HW218178  12.606  10.970  10.100
 5447SOL     OW18179   2.060   9.593   0.302
 5447SOL    HW118180   2.076   9.511   0.255
 5447SOL    HW218181   1.975   9.623   0.271
 5448SOL     OW18182   4.393   2.976   7.314
 5448SOL    HW118183   4.366   3.025   7.236
 5448SOL    HW218184   4.405   2.886   7.282
 5449SOL     OW18185  11.939   4.002   2.712
 5449SOL    HW118186  11.935   3.979   2.805
 5449SOL    HW218187  12.002   4.073   2.708
 5450SOL     OW18188   1.293  14.625   0.200
 5450SOL    HW118189   1.263  14.534   0.192
 5450SOL    HW218190   1.297  14.640   0.295
 5451SOL     OW18191   5.435   6.541   9.664
 5451SOL    HW118192   5.340   6.528   9.661
 5451SOL    HW218193   5.450   6.619   9.610
 5452SOL     OW18194   1.226  12.152  14.783
 5452SOL    HW118195   1.171  12.202  14.724
 5452SOL    HW218196   1.173  12.140  14.862
 5453SOL     OW18197   4.848   5.678   7.985
 5453SOL    HW118198   4.912   5.723   7.929
 5453SOL    HW218199   4.840   5.590   7.947
 5454SOL     OW18200   5.136   3.028   3.022
 5454SOL    HW118201   5.055   2.978   3.033
 5454SOL    HW218202   5.109   3.120   3.029
 5455SOL     OW18203  12.730   4.439   2.480
 5455SOL    HW118204  12.693   4.355   2.451
 5455SOL    HW218205  12.821   4.418   2.504
 5456SOL     OW18206   8.538   4.730   7.438
 5456SOL    HW118207   8.606   4.663   7.446
 5456SOL    HW218208   8.580   4.801   7.391
 5457SOL     OW18209   2.090   7.533   3.441
 5457SOL    HW118210   2.184   7.521   3.443
 5457SOL    HW218211   2.070   7.582   3.521
 5458SOL     OW18212   0.047   6.589   8.458
 5458SOL    HW118213   0.091   6.607   8.375
 5458SOL    HW218214  14.833   6.568   8.433
 5459SOL     OW18215  12.747  13.250   1.455
 5459SOL    HW118216  12.655  13.261   1.433
 5459SOL    HW218217  12.794  13.299   1.388
 5460SOL     OW18218   9.233   1.090   9.412
 5460SOL    HW118219   9.220   1.113   9.504
 5460SOL    HW218220   9.185   1.008   9.401
 5461SOL     OW18221   4.093  11.791   1.020
 5461SOL    HW118222   4.122  11.699   1.026
 5461SOL    HW218223   4.174  11.842   1.026
 5462SOL     OW18224   3.124  14.515  14.011
 5462SOL    HW118225   3.042  14.519  13.961
 5462SOL    HW218226   3.185  14.569  13.961
 5463SOL     OW18227   9.718   9.552   5.881
 5463SOL    HW118228   9.714   9.614   5.808
 5463SOL    HW218229   9.781   9.591   5.942
 5464SOL     OW18230  13.991  12.092   0.990
 5464SOL    HW118231  14.035  12.057   0.912
 5464SOL    HW218232  14.033  12.177   1.004
 5465SOL     OW18233  14.024  10.353  13.167
 5465SOL    HW118234  13.937  10.325  13.139
 5465SOL    HW218235  14.052  10.414  13.099
 5466SOL     OW18236   8.803   8.188   8.586
 5466SOL    HW118237   8.844   8.141   8.659
 5466SOL    HW218238   8.739   8.127   8.551
 5467SOL     OW18239  13.765   1.438   9.835
 5467SOL    HW118240  13.768   1.533   9.825
 5467SOL    HW218241  13.857   1.413   9.850
 5468SOL     OW18242   5.787  14.537   0.806
 5468SOL    HW118243   5.804  14.520   0.899
 5468SOL    HW218244   5.871  14.526   0.763
 5469SOL     OW18245   2.550   7.101   3.404
 5469SOL    HW118246   2.571   7.116   3.312
 5469SOL    HW218247   2.459   7.129   3.412
 5470SOL     OW18248   6.024  11.549   5.305
 5470SOL    HW118249   6.116  11.526   5.291
 5470SOL    HW218250   6.002  11.607   5.232
 5471SOL     OW18251  12.754   4.234   4.165
 5471SOL    HW118252  12.695   4.205   4.235
 5471SOL    HW218253  12.819   4.164   4.157
 5472SOL     OW18254   4.766  12.821  13.250
 5472SOL    HW118255   4.850  12.790  13.282
 5472SOL    HW218256   4.788  12.897  13.195
 5473SOL     OW18257  12.839   9.269   3.391
 5473SOL    HW118258  12.771   9.293   3.455
 5473SOL    HW218259  12.799   9.200   3.339
 5474SOL     OW18260   7.515   3.914  12.941
 5474SOL    HW118261   7.558   3.999  12.927
 5474SOL    HW218262   7.582   3.860  12.983
 5475SOL     OW18263   6.168   5.817  13.897
 5475SOL    HW118264   6.205   5.733  13.868
 5475SOL    HW218265   6.239   5.880  13.885
 5476SOL     OW18266   7.060   7.051   7.897
 5476SOL    HW118267   6.990   7.007   7.848
 5476SOL    HW218268   7.028   7.053   7.988
 5477SOL     OW18269   3.337  11.478   3.362
 5477SOL    HW118270   3.404  11.499   3.297
 5477SOL    HW218271   3.385  11.479   3.445
 5478SOL     OW18272   1.298  12.345  10.190
 5478SOL    HW118273   1.237  12.412  10.160
 5478SOL    HW218274   1.255  12.262  10.167
 5479SOL     OW18275  11.058   7.136   8.316
 5479SOL    HW118276  10.984   7.076   8.315
 5479SOL    HW218277  11.063   7.166   8.407
 5480SOL     OW18278   7.555  13.669  13.790
 5480SOL    HW118279   7.536  13.735  13.856
 5480SOL    HW218280   7.647  13.647  13.803
 5481SOL     OW18281   4.360   3.131  10.647
 5481SOL    HW118282   4.318   3.217  10.655
 5481SOL    HW218283   4.365   3.117  10.552
 5482SOL     OW18284  12.927   8.576   7.929
 5482SOL    HW118285  12.957   8.564   8.019
 5482SOL    HW218286  13.008   8.586   7.878
 5483SOL     OW18287   4.937  10.475  13.763
 5483SOL    HW118288   4.921  10.433  13.678
 5483SOL    HW218289   4.896  10.415  13.826
 5484SOL     OW18290   2.803   0.019   8.066
 5484SOL    HW118291   2.868   0.083   8.096
 5484SOL    HW218292   2.721   0.047   8.107
 5485SOL     OW18293   3.561   4.710   5.865
 5485SOL    HW118294   3.545   4.678   5.954
 5485SOL    HW218295   3.571   4.631   5.812
 5486SOL     OW18296   9.451   5.494   4.517
 5486SOL    HW118297   9.423   5.442   4.592
 5486SOL    HW218298   9.406   5.578   4.528
 5487SOL     OW18299   3.116   5.880   4.740
 5487SOL    HW118300   3.195   5.908   4.785
 5487SOL    HW218301   3.081   5.809   4.794
 5488SOL     OW18302   5.129  13.788   4.006
 5488SOL    HW118303   5.060  13.843   4.044
 5488SOL    HW218304   5.204  13.846   3.996
 5489SOL     OW18305  13.212   6.489   7.587
 5489SOL    HW118306  13.261   6.513   7.665
 5489SOL    HW218307  13.143   6.556   7.580
 5490SOL     OW18308   5.267  12.586   0.021
 5490SOL    HW118309   5.283  12.577   0.116
 5490SOL    HW218310   5.220  12.506  14.874
 5491SOL     OW18311   0.077  10.047   7.329
 5491SOL    HW118312   0.046   9.978   7.270
 5491SOL    HW218313   0.101  10.119   7.271
 5492SOL     OW18314   0.040   1.000   2.582
 5492SOL    HW118315   0.085   0.920   2.608
 5492SOL    HW218316  14.858   0.974   2.511
 5493SOL     OW18317   0.373  13.201   3.098
 5493SOL    HW118318   0.297  13.233   3.146
 5493SOL    HW218319   0.351  13.110   3.077
 5494SOL     OW18320   1.323  12.859  13.132
 5494SOL    HW118321   1.381  12.854  13.056
 5494SOL    HW218322   1.369  12.915  13.194
 5495SOL     OW18323   7.920   8.845   1.557
 5495SOL    HW118324   7.841   8.791   1.551
 5495SOL    HW218325   7.914   8.906   1.483
 5496SOL     OW18326   9.415   2.571   8.965
 5496SOL    HW118327   9.424   2.532   8.878
 5496SOL    HW218328   9.325   2.601   8.969
 5497SOL     OW18329   0.321   8.970   9.984
 5497SOL    HW118330   0.372   8.931  10.055
 5497SOL    HW218331   0.230   8.946  10.003
 5498SOL     OW18332  12.432   8.636   8.088
 5498SOL    HW118333  12.361   8.687   8.129
 5498SOL    HW218334  12.510   8.691   8.099
 5499SOL     OW18335   2.326  11.169  12.079
 5499SOL    HW118336   2.305  11.161  12.172
 5499SOL    HW218337   2.252  11.215  12.041
 5500SOL     OW18338   6.574   0.296  13.557
 5500SOL    HW118339   6.640   0.259  13.616
 5500SOL    HW218340   6.612   0.286  13.469
 5501SOL     OW18341   0.489  14.708   1.998
 5501SOL    HW118342   0.502  14.779   2.061
 5501SOL    HW218343   0.423  14.652   2.038
 5502SOL     OW18344   7.158   3.550  12.159
 5502SOL    HW118345   7.146   3.644  12.147
 5502SOL    HW218346   7.159   3.514  12.071
 5503SOL     OW18347  11.471   1.571  10.199
 5503SOL    HW118348  11.537   1.568  10.130
 5503SOL    HW218349  11.484   1.490  10.248
 5504SOL     OW18350   6.509  11.539  12.284
 5504SOL    HW118351   6.601  11.516  12.274
 5504SOL    HW218352   6.506  11.594  12.363
 5505SOL     OW18353  14.053   7.837  13.824
 5505SOL    HW118354  14.068   7.919  13.777
 5505SOL    HW218355  13.980   7.796  13.779
 5506SOL     OW18356   4.783  10.260  11.459
 5506SOL    HW118357   4.824  10.344  11.439
 5506SOL    HW218358   4.804  10.244  11.551
 5507SOL     OW18359   7.244   0.117  11.599
 5507SOL    HW118360   7.280   0.132  11.687
 5507SOL    HW218361   7.232   0.023  11.593
 5508SOL     OW18362   9.282  14.510   2.809
 5508SOL    HW118363   9.366  14.487   2.769
 5508SOL    HW218364   9.297  14.499   2.903
 5509SOL     OW18365   2.617  11.996   5.889
 5509SOL    HW118366   2.679  11.923   5.895
 5509SOL    HW218367   2.643  12.055   5.960
 5510SOL     OW18368  13.908   4.348   0.529
 5510SOL    HW118369  13.836   4.329   0.470
 5510SOL    HW218370  13.870   4.403   0.598
 5511SOL     OW18371   2.229   7.202  13.564
 5511SOL    HW118372   2.304   7.208  13.623
 5511SOL    HW218373   2.195   7.291  13.559
 5512SOL     OW18374   0.274   8.727   1.382
 5512SOL    HW118375   0.292   8.637   1.355
 5512SOL    HW218376   0.323   8.737   1.464
 5513SOL     OW18377  11.885  13.466   4.907
 5513SOL    HW118378  11.939  13.407   4.960
 5513SOL    HW218379  11.870  13.418   4.826
 5514SOL     OW18380  13.501   9.295  11.147
 5514SOL    HW118381  13.487   9.292  11.242
 5514SOL    HW218382  13.582   9.247  11.134
 5515SOL     OW18383   0.380   1.939  12.545
 5515SOL    HW118384   0.393   2.029  12.514
 5515SOL    HW218385   0.364   1.949  12.639
 5516SOL     OW18386   5.046  12.742  12.334
 5516SOL    HW118387   4.982  12.810  12.354
 5516SOL    HW218388   5.119  12.759  12.394
 5517SOL     OW18389  12.098   9.192  12.331
 5517SOL    HW118390  12.135   9.108  12.356
 5517SOL    HW218391  12.075   9.234  12.414
 5518SOL     OW18392  11.965   7.305  13.204
 5518SOL    HW118393  12.038   7.281  13.147
 5518SOL    HW218394  11.898   7.339  13.144
 5519SOL     OW18395   2.739  13.157   7.380
 5519SOL    HW118396   2.668  13.100   7.351
 5519SOL    HW218397   2.719  13.242   7.341
 5520SOL     OW18398  12.751  14.588  13.884
 5520SOL    HW118399  12.786  14.590  13.795
 5520SOL    HW218400  12.766  14.677  13.917
 5521SOL     OW18401  13.027  12.895  12.814
 5521SOL    HW118402  13.071  12.897  12.729
 5521SOL    HW218403  13.012  12.987  12.836
 5522SOL     OW18404   5.630  12.764  11.847
 5522SOL    HW118405   5.631  12.858  11.866
 5522SOL    HW218406   5.689  12.754  11.773
 5523SOL     OW18407   9.720   4.263   0.834
 5523SOL    HW118408   9.811   4.293   0.841
 5523SOL    HW218409   9.673   4.340   0.802
 5524SOL     OW18410  10.766   1.976  13.611
 5524SOL    HW118411  10.861   1.987  13.612
 5524SOL    HW218412  10.735   2.031  13.683
 5525SOL     OW18413   2.729   5.782   7.957
 5525SOL    HW118414   2.753   5.736   7.877
 5525SOL    HW218415   2.726   5.714   8.024
 5526SOL     OW18416   4.820   6.777   6.681
 5526SOL    HW118417   4.905   6.780   6.637
 5526SOL    HW218418   4.822   6.851   6.743
 5527SOL     OW18419   7.457  12.430  12.273
 5527SOL    HW118420   7.364  12.437  12.254
 5527SOL    HW218421   7.464  12.440  12.368
 5528SOL     OW18422   1.190  14.377   0.121
 5528SOL    HW118423   1.113  14.323   0.139
 5528SOL    HW218424   1.263  14.316   0.122
 5529SOL     OW18425   0.193   0.560   7.959
 5529SOL    HW118426   0.107   0.563   7.919
 5529SOL    HW218427   0.175   0.563   8.053
 5530SOL     OW18428  14.347   5.757   7.036
 5530SOL    HW118429  14.351   5.682   7.096
 5530SOL    HW218430  14.437   5.791   7.034
 5531SOL     OW18431   4.718   8.118  10.420
 5531SOL    HW118432   4.725   8.177  10.345
 5531SOL    HW218433   4.694   8.174  10.493
 5532SOL     OW18434   1.455  11.551   2.212
 5532SOL    HW118435   1.403  11.491   2.265
 5532SOL    HW218436   1.546  11.527   2.230
 5533SOL     OW18437   7.016   3.093  11.767
 5533SOL    HW118438   7.073   3.033  11.718
 5533SOL    HW218439   6.943   3.038  11.797
 5534SOL     OW18440   8.929   6.211   6.608
 5534SOL    HW118441   8.843   6.253   6.607
 5534SOL    HW218442   8.911   6.121   6.634
 5535SOL     OW18443   6.797  13.348   6.478
 5535SOL    HW118444   6.825  13.410   6.545
 5535SOL    HW218445   6.873  13.339   6.421
 5536SOL     OW18446   5.085  10.799  11.881
 5536SOL    HW118447   5.055  10.800  11.790
 5536SOL    HW218448   5.120  10.887  11.896
 5537SOL     OW18449   0.081  11.759   1.196
 5537SOL    HW118450   0.130  11.677   1.193
 5537SOL    HW218451  14.867  11.734   1.179
 5538SOL     OW18452  10.076   0.590  12.384
 5538SOL    HW118453  10.104   0.624  12.469
 5538SOL    HW218454  10.079   0.666  12.326
 5539SOL     OW18455  10.642   3.359  12.377
 5539SOL    HW118456  10.702   3.302  12.424
 5539SOL    HW218457  10.649   3.331  12.285
 5540SOL     OW18458   9.958   7.871  13.797
 5540SOL    HW118459  10.030   7.832  13.748
 5540SOL    HW218460   9.938   7.952  13.751
 5541SOL     OW18461  14.592  12.026  13.865
 5541SOL    HW118462  14.626  12.035  13.776
 5541SOL    HW218463  14.612  11.935  13.889
 5542SOL     OW18464   1.635  14.277  12.964
 5542SOL    HW118465   1.669  14.246  13.048
 5542SOL    HW218466   1.707  14.266  12.903
 5543SOL     OW18467   8.042  10.470   2.956
 5543SOL    HW118468   8.004  10.557   2.964
 5543SOL    HW218469   7.975  10.418   2.910
 5544SOL     OW18470  12.384   3.433   0.317
 5544SOL    HW118471  12.448   3.472   0.377
 5544SOL    HW218472  12.342   3.365   0.369
 5545SOL     OW18473  12.043  13.632   5.851
 5545SOL    HW118474  11.995  13.710   5.822
 5545SOL    HW218475  11.975  13.564   5.857
 5546SOL     OW18476   2.373   2.612   0.252
 5546SOL    HW118477   2.374   2.653   0.165
 5546SOL    HW218478   2.361   2.685   0.313
 5547SOL     OW18479   6.505  13.332  11.311
 5547SOL    HW118480   6.535  13.249  11.346
 5547SOL    HW218481   6.416  13.342  11.346
 5548SOL     OW18482   5.662   5.114  12.595
 5548SOL    HW118483   5.665   5.209  12.583
 5548SOL    HW218484   5.588   5.099  12.653
 5549SOL     OW18485  14.542   6.577   6.836
 5549SOL    HW118486  14.637   6.581   6.845
 5549SOL    HW218487  14.509   6.586   6.925
 5550SOL     OW18488  14.118   5.693  14.604
 5550SOL    HW118489  14.206   5.730  14.599
 5550SOL    HW218490  14.132   5.598  14.599
 5551SOL     OW18491   8.467   0.327   0.674
 5551SOL    HW118492   8.500   0.239   0.692
 5551SOL    HW218493   8.524   0.384   0.725
 5552SOL     OW18494   4.434  12.696   1.162
 5552SOL    HW118495   4.384  12.662   1.088
 5552SOL    HW218496   4.374  12.693   1.236
 5553SOL     OW18497  10.367   2.412   6.281
 5553SOL    HW118498  10.371   2.400   6.376
 5553SOL    HW218499  10.280   2.379   6.256
 5554SOL     OW18500  12.593   2.481   3.140
 5554SOL    HW118501  12.526   2.479   3.208
 5554SOL    HW218502  12.657   2.545   3.171
 5555SOL     OW18503  11.513   6.524  10.983
 5555SOL    HW118504  11.544   6.549  11.070
 5555SOL    HW218505  11.417   6.522  10.992
 5556SOL     OW18506  12.458   8.375   5.765
 5556SOL    HW118507  12.538   8.354   5.719
 5556SOL    HW218508  12.447   8.304   5.829
 5557SOL     OW18509  10.360   7.661  11.966
 5557SOL    HW118510  10.422   7.603  11.923
 5557SOL    HW218511  10.300   7.688  11.896
 5558SOL     OW18512   4.448  13.184   9.316
 5558SOL    HW118513   4.461  13.090   9.304
 5558SOL    HW218514   4.499  13.206   9.394
 5559SOL     OW18515   2.322   6.366  10.118
 5559SOL    HW118516   2.300   6.458  10.104
 5559SOL    HW218517   2.238   6.324  10.136
 5560SOL     OW18518   0.600  14.554   9.214
 5560SOL    HW118519   0.620  14.644   9.189
 5560SOL    HW218520   0.513  14.558   9.252
 5561SOL     OW18521   1.029  10.136   9.343
 5561SOL    HW118522   1.123  10.120   9.342
 5561SOL    HW218523   0.990  10.051   9.361
 5562SOL     OW18524  11.831  14.442   9.035
 5562SOL    HW118525  11.822  14.347   9.032
 5562SOL    HW218526  11.877  14.464   8.953
 5563SOL     OW18527  10.560   4.350   4.789
 5563SOL    HW118528  10.538   4.433   4.747
 5563SOL    HW218529  10.574   4.373   4.881
 5564SOL     OW18530   3.636   4.789   2.419
 5564SOL    HW118531   3.672   4.825   2.500
 5564SOL    HW218532   3.713   4.765   2.367
 5565SOL     OW18533   1.691   2.797   5.131
 5565SOL    HW118534   1.628   2.815   5.201
 5565SOL    HW218535   1.694   2.702   5.125
 5566SOL     OW18536  10.555   6.088   9.673
 5566SOL    HW118537  10.586   6.097   9.583
 5566SOL    HW218538  10.491   6.158   9.683
 5567SOL     OW18539   0.110   0.127   6.255
 5567SOL    HW118540   0.028   0.175   6.247
 5567SOL    HW218541   0.106   0.062   6.185
 5568SOL     OW18542   1.006   0.774   8.313
 5568SOL    HW118543   0.931   0.828   8.337
 5568SOL    HW218544   1.001   0.699   8.372
 5569SOL     OW18545   8.720  10.585   2.188
 5569SOL    HW118546   8.693  10.572   2.279
 5569SOL    HW218547   8.691  10.505   2.143
 5570SOL     OW18548  14.758  12.124  11.915
 5570SOL    HW118549  14.738  12.031  11.927
 5570SOL    HW218550  14.672  12.167  11.916
 5571SOL     OW18551  13.456  12.196   9.561
 5571SOL    HW118552  13.477  12.104   9.551
 5571SOL    HW218553  13.541  12.240   9.564
 5572SOL     OW18554   3.293   9.543   3.868
 5572SOL    HW118555   3.277   9.552   3.774
 5572SOL    HW218556   3.360   9.475   3.875
 5573SOL     OW18557  13.539   6.777  10.129
 5573SOL    HW118558  13.479   6.851  10.140
 5573SOL    HW218559  13.622   6.816  10.102
 5574SOL     OW18560  12.284  10.661   2.496
 5574SOL    HW118561  12.215  10.698   2.551
 5574SOL    HW218562  12.348  10.731   2.487
 5575SOL     OW18563  10.425   8.850  10.409
 5575SOL    HW118564  10.348   8.892  10.371
 5575SOL    HW218565  10.483   8.922  10.433
 5576SOL     OW18566   7.772  11.973  11.680
 5576SOL    HW118567   7.840  11.998  11.616
 5576SOL    HW218568   7.725  12.054  11.698
 5577SOL     OW18569   1.750  13.253   1.249
 5577SOL    HW118570   1.764  13.274   1.157
 5577SOL    HW218571   1.807  13.178   1.265
 5578SOL     OW18572   0.751   0.867  10.731
 5578SOL    HW118573   0.706   0.918  10.664
 5578SOL    HW218574   0.789   0.932  10.791
 5579SOL     OW18575   2.281   5.287  12.409
 5579SOL    HW118576   2.241   5.201  12.394
 5579SOL    HW218577   2.322   5.310  12.326
 5580SOL     OW18578   6.722  13.168   7.456
 5580SOL    HW118579   6.807  13.126   7.441
 5580SOL    HW218580   6.742  13.261   7.463
 5581SOL     OW18581   7.495  14.262  10.047
 5581SOL    HW118582   7.452  14.310   9.976
 5581SOL    HW218583   7.497  14.171  10.015
 5582SOL     OW18584  13.276  14.049   0.511
 5582SOL    HW118585  13.254  13.993   0.437
 5582SOL    HW218586  13.294  13.989   0.583
 5583SOL     OW18587  11.106   7.396  11.429
 5583SOL    HW118588  11.053   7.414  11.351
 5583SOL    HW218589  11.046   7.411  11.503
 5584SOL     OW18590   7.917   8.059   8.291
 5584SOL    HW118591   7.918   8.023   8.203
 5584SOL    HW218592   7.945   7.987   8.348
 5585SOL     OW18593   9.142   6.691  10.230
 5585SOL    HW118594   9.133   6.772  10.179
 5585SOL    HW218595   9.055   6.651  10.227
 5586SOL     OW18596  12.529   9.651   0.633
 5586SOL    HW118597  12.558   9.561   0.616
 5586SOL    HW218598  12.556   9.700   0.555
 5587SOL     OW18599  14.791  12.546   7.380
 5587SOL    HW118600  14.720  12.488   7.352
 5587SOL    HW218601  14.849  12.489   7.431
 5588SOL     OW18602   1.389   8.671   4.338
 5588SOL    HW118603   1.424   8.604   4.279
 5588SOL    HW218604   1.309   8.701   4.295
 5589SOL     OW18605   5.832   5.411   3.986
 5589SOL    HW118606   5.816   5.495   3.942
 5589SOL    HW218607   5.856   5.351   3.915
 5590SOL     OW18608  10.874   7.924   5.246
 5590SOL    HW118609  10.828   7.854   5.293
 5590SOL    HW218610  10.877   7.893   5.155
 5591SOL     OW18611   9.118   9.978   0.199
 5591SOL    HW118612   9.027   9.975   0.168
 5591SOL    HW218613   9.112  10.019   0.286
 5592SOL     OW18614   1.918   7.650   5.970
 5592SOL    HW118615   1.846   7.705   5.939
 5592SOL    HW218616   1.879   7.563   5.980
 5593SOL     OW18617   6.410   8.773  14.528
 5593SOL    HW118618   6.450   8.694  14.565
 5593SOL    HW218619   6.358   8.810  14.599
 5594SOL     OW18620  13.218   5.687   0.556
 5594SOL    HW118621  13.295   5.653   0.511
 5594SOL    HW218622  13.144   5.661   0.500
 5595SOL     OW18623   0.882  12.631   3.420
 5595SOL    HW118624   0.897  12.596   3.332
 5595SOL    HW218625   0.962  12.609   3.468
 5596SOL     OW18626  10.370   2.070  13.241
 5596SOL    HW118627  10.453   2.023  13.235
 5596SOL    HW218628  10.380   2.144  13.181
 5597SOL     OW18629   9.426   0.319  10.362
 5597SOL    HW118630   9.381   0.309  10.278
 5597SOL    HW218631   9.358   0.343  10.424
 5598SOL     OW18632   9.966   7.497   5.438
 5598SOL    HW118633  10.052   7.458   5.421
 5598SOL    HW218634   9.984   7.569   5.498
 5599SOL     OW18635   7.995  13.128  12.974
 5599SOL    HW118636   7.951  13.107  13.056
 5599SOL    HW218637   7.949  13.077  12.907
 5600SOL     OW18638  14.582  12.170  13.083
 5600SOL    HW118639  14.585  12.249  13.137
 5600SOL    HW218640  14.494  12.169  13.047
 5601SOL     OW18641   0.298   2.355  11.450
 5601SOL    HW118642   0.240   2.375  11.524
 5601SOL    HW218643   0.258   2.279  11.408
 5602SOL     OW18644  12.651  14.518   1.929
 5602SOL    HW118645  12.687  14.541   2.015
 5602SOL    HW218646  12.687  14.432   1.910
 5603SOL     OW18647   1.805   4.385   3.456
 5603SOL    HW118648   1.735   4.324   3.432
 5603SOL    HW218649   1.779   4.418   3.542
 5604SOL     OW18650   6.106   0.087  12.332
 5604SOL    HW118651   6.098   0.179  12.358
 5604SOL    HW218652   6.180   0.054  12.382
 5605SOL     OW18653  11.140   1.141   7.275
 5605SOL    HW118654  11.152   1.230   7.311
 5605SOL    HW218655  11.117   1.088   7.351
 5606SOL     OW18656   7.543   9.734   6.410
 5606SOL    HW118657   7.629   9.761   6.444
 5606SOL    HW218658   7.562   9.661   6.352
 5607SOL     OW18659   3.780   9.437  11.749
 5607SOL    HW118660   3.722   9.406  11.680
 5607SOL    HW218661   3.838   9.363  11.766
 5608SOL     OW18662   0.818   0.287  11.777
 5608SOL    HW118663   0.869   0.217  11.737
 5608SOL    HW218664   0.727   0.265  11.759
 5609SOL     OW18665   7.265   3.906  14.488
 5609SOL    HW118666   7.270   3.933  14.579
 5609SOL    HW218667   7.356   3.901  14.459
 5610SOL     OW18668  13.501  14.373   6.380
 5610SOL    HW118669  13.466  14.322   6.453
 5610SOL    HW218670  13.430  14.376   6.316
 5611SOL     OW18671   0.934   5.733   0.479
 5611SOL    HW118672   0.986   5.717   0.558
 5611SOL    HW218673   0.855   5.777   0.509
 5612SOL     OW18674   9.341   1.753   8.744
 5612SOL    HW118675   9.353   1.727   8.836
 5612SOL    HW218676   9.314   1.672   8.700
 5613SOL     OW18677   4.198   6.518   1.654
 5613SOL    HW118678   4.147   6.454   1.705
 5613SOL    HW218679   4.146   6.598   1.658
 5614SOL     OW18680   4.231  12.536  13.856
 5614SOL    HW118681   4.279  12.516  13.936
 5614SOL    HW218682   4.237  12.455  13.804
 5615SOL     OW18683   5.796  14.067  13.461
 5615SOL    HW118684   5.820  14.023  13.379
 5615SOL    HW218685   5.755  13.998  13.513
 5616SOL     OW18686  14.765   7.472  13.836
 5616SOL    HW118687  14.680   7.443  13.867
 5616SOL    HW218688  14.748   7.503  13.747
 5617SOL     OW18689   5.795   6.643   3.752
 5617SOL    HW118690   5.767   6.553   3.772
 5617SOL    HW218691   5.742   6.698   3.809
 5618SOL     OW18692   7.423  12.268   8.902
 5618SOL    HW118693   7.466  12.340   8.856
 5618SOL    HW218694   7.330  12.294   8.905
 5619SOL     OW18695  12.441  13.056   9.066
 5619SOL    HW118696  12.407  13.130   9.115
 5619SOL    HW218697  12.502  13.095   9.003
 5620SOL     OW18698   9.804   3.156  14.192
 5620SOL    HW118699   9.832   3.084  14.248
 5620SOL    HW218700   9.712   3.170  14.215
 5621SOL     OW18701  11.808   5.663   9.732
 5621SOL    HW118702  11.740   5.611   9.775
 5621SOL    HW218703  11.890   5.630   9.768
 5622SOL     OW18704   7.689  12.890   9.187
 5622SOL    HW118705   7.630  12.899   9.112
 5622SOL    HW218706   7.703  12.980   9.217
 5623SOL     OW18707   4.093   6.329  12.899
 5623SOL    HW118708   4.157   6.259  12.917
 5623SOL    HW218709   4.123   6.367  12.817
 5624SOL     OW18710  10.909  12.235   0.244
 5624SOL    HW118711  10.994  12.280   0.238
 5624SOL    HW218712  10.914  12.188   0.327
 5625SOL     OW18713  10.951   3.832   7.901
 5625SOL    HW118714  10.951   3.903   7.837
 5625SOL    HW218715  10.860   3.826   7.929
 5626SOL     OW18716   1.895  13.251   6.051
 5626SOL    HW118717   1.820  13.270   5.995
 5626SOL    HW218718   1.960  13.211   5.993
 5627SOL     OW18719   6.866   3.759   9.549
 5627SOL    HW118720   6.850   3.814   9.473
 5627SOL    HW218721   6.780   3.723   9.571
 5628SOL     OW18722   7.119  14.552  13.478
 5628SOL    HW118723   7.199  14.503  13.498
 5628SOL    HW218724   7.076  14.500  13.410
 5629SOL     OW18725   0.366   8.106   9.766
 5629SOL    HW118726   0.287   8.125   9.816
 5629SOL    HW218727   0.350   8.145   9.680
 5630SOL     OW18728  10.463   3.461  13.664
 5630SOL    HW118729  10.443   3.417  13.581
 5630SOL    HW218730  10.378   3.477  13.704
 5631SOL     OW18731  14.701   1.958  14.089
 5631SOL    HW118732  14.758   1.942  14.013
 5631SOL    HW218733  14.725   2.046  14.118
 5632SOL     OW18734   8.391   3.558   1.536
 5632SOL    HW118735   8.427   3.573   1.448
 5632SOL    HW218736   8.377   3.464   1.541
 5633SOL     OW18737   3.004   6.479   8.432
 5633SOL    HW118738   3.053   6.443   8.358
 5633SOL    HW218739   3.032   6.571   8.437
 5634SOL     OW18740   0.577  10.947   0.842
 5634SOL    HW118741   0.662  10.989   0.850
 5634SOL    HW218742   0.519  11.015   0.809
 5635SOL     OW18743  12.480   2.972   5.719
 5635SOL    HW118744  12.449   2.887   5.752
 5635SOL    HW218745  12.448   2.976   5.629
 5636SOL     OW18746   9.532  11.477   5.318
 5636SOL    HW118747   9.530  11.392   5.274
 5636SOL    HW218748   9.567  11.458   5.405
 5637SOL     OW18749   8.767   6.829   3.448
 5637SOL    HW118750   8.792   6.893   3.515
 5637SOL    HW218751   8.711   6.878   3.388
 5638SOL     OW18752  14.846   5.235  13.369
 5638SOL    HW118753  14.844   5.305  13.434
 5638SOL    HW218754   0.051   5.251  13.320
 5639SOL     OW18755   9.081  12.235   3.151
 5639SOL    HW118756   9.117  12.205   3.235
 5639SOL    HW218757   8.986  12.236   3.164
 5640SOL     OW18758   4.376   3.245   8.984
 5640SOL    HW118759   4.367   3.196   9.065
 5640SOL    HW218760   4.287   3.274   8.962
 5641SOL     OW18761   2.287   6.058   7.600
 5641SOL    HW118762   2.286   5.970   7.561
 5641SOL    HW218763   2.265   6.043   7.692
 5642SOL     OW18764   7.617   6.432  11.084
 5642SOL    HW118765   7.601   6.423  10.990
 5642SOL    HW218766   7.636   6.342  11.113
 5643SOL     OW18767   7.173   3.026   5.363
 5643SOL    HW118768   7.134   3.068   5.287
 5643SOL    HW218769   7.267   3.045   5.355
 5644SOL     OW18770   6.178   1.490  10.391
 5644SOL    HW118771   6.083   1.482  10.403
 5644SOL    HW218772   6.190   1.577  10.354
 5645SOL     OW18773   1.842   1.607  10.954
 5645SOL    HW118774   1.804   1.566  10.876
 5645SOL    HW218775   1.927   1.640  10.926
 5646SOL     OW18776   4.978   2.965  11.645
 5646SOL    HW118777   5.000   3.028  11.714
 5646SOL    HW218778   4.884   2.952  11.654
 5647SOL     OW18779  13.934   4.385   3.666
 5647SOL    HW118780  13.958   4.339   3.585
 5647SOL    HW218781  13.894   4.466   3.635
 5648SOL     OW18782   5.502   0.589  14.784
 5648SOL    HW118783   5.415   0.624  14.800
 5648SOL    HW218784   5.562   0.660  14.807
 5649SOL     OW18785   0.109   5.398   6.594
 5649SOL    HW118786   0.180   5.334   6.589
 5649SOL    HW218787   0.060   5.373   6.672
 5650SOL     OW18788  12.130   6.454   3.069
 5650SOL    HW118789  12.044   6.491   3.046
 5650SOL    HW218790  12.191   6.526   3.055
 5651SOL     OW18791   6.830   8.470   5.667
 5651SOL    HW118792   6.816   8.529   5.592
 5651SOL    HW218793   6.880   8.397   5.631
 5652SOL     OW18794   5.523  12.615  12.682
 5652SOL    HW118795   5.494  12.698  12.721
 5652SOL    HW218796   5.491  12.618  12.592
 5653SOL     OW18797   9.013  10.324   3.069
 5653SOL    HW118798   9.038  10.415   3.084
 5653SOL    HW218799   9.009  10.316   2.974
 5654SOL     OW18800   5.188  11.391  13.850
 5654SOL    HW118801   5.262  11.377  13.791
 5654SOL    HW218802   5.161  11.303  13.876
 5655SOL     OW18803   0.128   6.400  12.487
 5655SOL    HW118804   0.182   6.431  12.560
 5655SOL    HW218805   0.053   6.358  12.528
 5656SOL     OW18806   4.832   9.871   1.648
 5656SOL    HW118807   4.921   9.866   1.614
 5656SOL    HW218808   4.778   9.825   1.583
 5657SOL     OW18809  11.328   9.399   4.951
 5657SOL    HW118810  11.354   9.429   4.864
 5657SOL    HW218811  11.263   9.331   4.935
 5658SOL     OW18812   5.395   1.725  13.028
 5658SOL    HW118813   5.468   1.715  12.967
 5658SOL    HW218814   5.437   1.731  13.114
 5659SOL     OW18815  14.243   8.955   6.816
 5659SOL    HW118816  14.202   9.031   6.859
 5659SOL    HW218817  14.172   8.917   6.764
 5660SOL     OW18818   1.384  14.128   1.857
 5660SOL    HW118819   1.354  14.154   1.770
 5660SOL    HW218820   1.345  14.192   1.916
 5661SOL     OW18821   7.423  11.754   5.589
 5661SOL    HW118822   7.382  11.667   5.585
 5661SOL    HW218823   7.354  11.814   5.560
 5662SOL     OW18824   4.725   5.350   4.197
 5662SOL    HW118825   4.815   5.380   4.209
 5662SOL    HW218826   4.697   5.321   4.283
 5663SOL     OW18827  10.564  11.501   6.523
 5663SOL    HW118828  10.541  11.560   6.595
 5663SOL    HW218829  10.488  11.503   6.465
 5664SOL     OW18830  14.144  11.149   2.146
 5664SOL    HW118831  14.148  11.213   2.075
 5664SOL    HW218832  14.189  11.072   2.111
 5665SOL     OW18833   1.553  12.887  12.932
 5665SOL    HW118834   1.522  12.850  12.849
 5665SOL    HW218835   1.581  12.811  12.983
 5666SOL     OW18836  11.791   0.374   3.114
 5666SOL    HW118837  11.807   0.418   3.031
 5666SOL    HW218838  11.807   0.441   3.181
 5667SOL     OW18839   0.164   9.407   9.305
 5667SOL    HW118840   0.199   9.371   9.223
 5667SOL    HW218841   0.120   9.334   9.347
 5668SOL     OW18842   7.779   4.814  12.103
 5668SOL    HW118843   7.822   4.850  12.181
 5668SOL    HW218844   7.694   4.858  12.101
 5669SOL     OW18845   2.766   4.393  12.957
 5669SOL    HW118846   2.783   4.427  12.869
 5669SOL    HW218847   2.853   4.376  12.993
 5670SOL     OW18848   2.629  12.699  14.603
 5670SOL    HW118849   2.544  12.669  14.636
 5670SOL    HW218850   2.691  12.677  14.673
 5671SOL     OW18851   5.403   1.688   7.063
 5671SOL    HW118852   5.426   1.613   7.117
 5671SOL    HW218853   5.416   1.764   7.120
 5672SOL     OW18854   0.650  11.280   3.844
 5672SOL    HW118855   0.645  11.340   3.918
 5672SOL    HW218856   0.560  11.270   3.814
 5673SOL     OW18857  13.681  13.353   3.570
 5673SOL    HW118858  13.641  13.383   3.652
 5673SOL    HW218859  13.775  13.353   3.588
 5674SOL     OW18860  10.821   3.132   6.251
 5674SOL    HW118861  10.834   3.136   6.156
 5674SOL    HW218862  10.773   3.212   6.271
 5675SOL     OW18863  10.048   2.736   2.250
 5675SOL    HW118864  10.135   2.718   2.286
 5675SOL    HW218865  10.030   2.661   2.193
 5676SOL     OW18866   2.843  14.313   3.637
 5676SOL    HW118867   2.825  14.384   3.575
 5676SOL    HW218868   2.758  14.293   3.676
 5677SOL     OW18869   7.443   3.859   1.657
 5677SOL    HW118870   7.375   3.796   1.635
 5677SOL    HW218871   7.480   3.886   1.573
 5678SOL     OW18872   5.312   2.584  12.102
 5678SOL    HW118873   5.372   2.588  12.176
 5678SOL    HW218874   5.367   2.601  12.025
 5679SOL     OW18875   6.743   8.524   1.601
 5679SOL    HW118876   6.670   8.489   1.652
 5679SOL    HW218877   6.752   8.464   1.527
 5680SOL     OW18878  10.882   4.636   8.065
 5680SOL    HW118879  10.790   4.632   8.092
 5680SOL    HW218880  10.883   4.597   7.977
 5681SOL     OW18881  12.762  14.001   7.803
 5681SOL    HW118882  12.842  14.048   7.826
 5681SOL    HW218883  12.744  13.946   7.879
 5682SOL     OW18884   3.797   7.562   5.406
 5682SOL    HW118885   3.757   7.637   5.364
 5682SOL    HW218886   3.814   7.500   5.335
 5683SOL     OW18887  10.954   1.347   4.102
 5683SOL    HW118888  10.938   1.420   4.163
 5683SOL    HW218889  10.997   1.388   4.027
 5684SOL     OW18890  12.510   9.357   1.768
 5684SOL    HW118891  12.526   9.353   1.863
 5684SOL    HW218892  12.415   9.352   1.760
 5685SOL     OW18893   8.071  12.078   2.651
 5685SOL    HW118894   8.063  11.986   2.676
 5685SOL    HW218895   8.001  12.122   2.700
 5686SOL     OW18896   9.328  11.770   1.960
 5686SOL    HW118897   9.244  11.808   1.938
 5686SOL    HW218898   9.392  11.837   1.938
 5687SOL     OW18899   0.227   0.223  11.222
 5687SOL    HW118900   0.177   0.228  11.140
 5687SOL    HW218901   0.168   0.263  11.287
 5688SOL     OW18902   8.355  12.701   8.711
 5688SOL    HW118903   8.432  12.730   8.663
 5688SOL    HW218904   8.314  12.782   8.743
 5689SOL     OW18905   6.328  13.522   5.328
 5689SOL    HW118906   6.414  13.561   5.311
 5689SOL    HW218907   6.295  13.499   5.242
 5690SOL     OW18908   9.112   2.448   5.671
 5690SOL    HW118909   9.054   2.438   5.747
 5690SOL    HW218910   9.106   2.541   5.649
 5691SOL     OW18911   1.003  10.547   5.825
 5691SOL    HW118912   0.951  10.614   5.779
 5691SOL    HW218913   1.091  10.584   5.828
 5692SOL     OW18914   3.932   0.939  14.431
 5692SOL    HW118915   4.002   0.884  14.468
 5692SOL    HW218916   3.887   0.975  14.508
 5693SOL     OW18917  14.700  14.567   6.423
 5693SOL    HW118918  14.721  14.605   6.338
 5693SOL    HW218919  14.772  14.506   6.441
 5694SOL     OW18920  10.376   3.185   6.915
 5694SOL    HW118921  10.389   3.237   6.835
 5694SOL    HW218922  10.326   3.242   6.973
 5695SOL     OW18923   4.312   6.091   7.991
 5695SOL    HW118924   4.248   6.157   7.967
 5695SOL    HW218925   4.260   6.024   8.037
 5696SOL     OW18926   2.693  13.252  10.075
 5696SOL    HW118927   2.629  13.297  10.020
 5696SOL    HW218928   2.644  13.185  10.121
 5697SOL     OW18929   8.831   3.430   9.505
 5697SOL    HW118930   8.739   3.454   9.513
 5697SOL    HW218931   8.876   3.514   9.493
 5698SOL     OW18932  11.763   2.923  13.789
 5698SOL    HW118933  11.813   2.864  13.845
 5698SOL    HW218934  11.804   2.915  13.703
 5699SOL     OW18935   6.615   3.804  14.275
 5699SOL    HW118936   6.624   3.897  14.254
 5699SOL    HW218937   6.568   3.803  14.358
 5700SOL     OW18938   7.448   0.115   5.644
 5700SOL    HW118939   7.391   0.041   5.661
 5700SOL    HW218940   7.532   0.075   5.619
 5701SOL     OW18941  14.066   3.154  14.089
 5701SOL    HW118942  13.978   3.153  14.050
 5701SOL    HW218943  14.059   3.094  14.164
 5702SOL     OW18944   3.284   9.785   4.011
 5702SOL    HW118945   3.371   9.769   4.048
 5702SOL    HW218946   3.258   9.702   3.973
 5703SOL     OW18947  10.155  11.341   1.301
 5703SOL    HW118948  10.078  11.392   1.328
 5703SOL    HW218949  10.178  11.377   1.215
 5704SOL     OW18950  10.557   0.465   3.516
 5704SOL    HW118951  10.484   0.514   3.478
 5704SOL    HW218952  10.603   0.428   3.441
 5705SOL     OW18953   2.790   1.017   6.311
 5705SOL    HW118954   2.792   0.944   6.249
 5705SOL    HW218955   2.759   1.091   6.259
 5706SOL     OW18956  14.246   1.922   4.872
 5706SOL    HW118957  14.181   1.929   4.942
 5706SOL    HW218958  14.293   1.841   4.892
 5707SOL     OW18959   6.289   1.610   2.902
 5707SOL    HW118960   6.339   1.595   2.982
 5707SOL    HW218961   6.205   1.644   2.933
 5708SOL     OW18962   4.225   3.994  12.435
 5708SOL    HW118963   4.215   3.947  12.518
 5708SOL    HW218964   4.246   3.925  12.372
 5709SOL     OW18965  11.702  12.152   0.049
 5709SOL    HW118966  11.728  12.244   0.054
 5709SOL    HW218967  11.771  12.110  14.874
 5710SOL     OW18968   1.617   3.525  13.268
 5710SOL    HW118969   1.707   3.492  13.272
 5710SOL    HW218970   1.626   3.620  13.270
 5711SOL     OW18971  11.972   3.525   0.466
 5711SOL    HW118972  11.888   3.568   0.481
 5711SOL    HW218973  11.951   3.431   0.466
 5712SOL     OW18974   6.433   0.176   7.604
 5712SOL    HW118975   6.376   0.154   7.677
 5712SOL    HW218976   6.381   0.238   7.552
 5713SOL     OW18977   0.322  12.723  10.694
 5713SOL    HW118978   0.310  12.813  10.665
 5713SOL    HW218979   0.260  12.712  10.766
 5714SOL     OW18980   7.750   7.078   0.566
 5714SOL    HW118981   7.756   6.984   0.583
 5714SOL    HW218982   7.826   7.116   0.610
 5715SOL     OW18983   3.034   6.658   4.812
 5715SOL    HW118984   3.006   6.695   4.728
 5715SOL    HW218985   3.124   6.630   4.797
 5716SOL     OW18986   5.618   1.405  12.896
 5716SOL    HW118987   5.671   1.482  12.876
 5716SOL    HW218988   5.527   1.436  12.887
 5717SOL     OW18989   4.934   2.824   3.597
 5717SOL    HW118990   5.023   2.805   3.625
 5717SOL    HW218991   4.895   2.873   3.669
 5718SOL     OW18992   4.262  14.366   7.189
 5718SOL    HW118993   4.215  14.355   7.271
 5718SOL    HW218994   4.329  14.431   7.208
 5719SOL     OW18995  12.877   5.968   1.067
 5719SOL    HW118996  12.783   5.967   1.048
 5719SOL    HW218997  12.883   5.945   1.160
 5720SOL     OW18998  11.005  11.717   6.265
 5720SOL    HW118999  11.013  11.794   6.321
 5720SOL    HW219000  11.032  11.748   6.178
 5721SOL     OW19001  12.708  11.727  14.076
 5721SOL    HW119002  12.764  11.672  14.131
 5721SOL    HW219003  12.766  11.756  14.005
 5722SOL     OW19004  13.367   8.816  11.088
 5722SOL    HW119005  13.297   8.876  11.115
 5722SOL    HW219006  13.354   8.804  10.994
 5723SOL     OW19007   8.850   9.044   5.420
 5723SOL    HW119008   8.878   9.025   5.510
 5723SOL    HW219009   8.784   8.977   5.402
 5724SOL     OW19010   6.466  11.033   1.693
 5724SOL    HW119011   6.482  11.025   1.599
 5724SOL    HW219012   6.462  10.943   1.725
 5725SOL     OW19013  10.408   2.726  11.654
 5725SOL    HW119014  10.328   2.674  11.644
 5725SOL    HW219015  10.437   2.707  11.743
 5726SOL     OW19016   6.258   9.917   4.226
 5726SOL    HW119017   6.182   9.970   4.252
 5726SOL    HW219018   6.222   9.853   4.165
 5727SOL     OW19019   4.004   9.888   9.649
 5727SOL    HW119020   3.939   9.876   9.580
 5727SOL    HW219021   3.952   9.917   9.725
 5728SOL     OW19022   5.111   1.513   8.107
 5728SOL    HW119023   5.080   1.485   8.021
 5728SOL    HW219024   5.171   1.586   8.088
 5729SOL     OW19025   9.409   0.538  12.356
 5729SOL    HW119026   9.440   0.448  12.344
 5729SOL    HW219027   9.485   0.592  12.335
 5730SOL     OW19028   2.465   6.814   3.702
 5730SOL    HW119029   2.510   6.891   3.737
 5730SOL    HW219030   2.528   6.742   3.713
 5731SOL     OW19031  10.865   1.081   1.348
 5731SOL    HW119032  10.930   1.138   1.307
 5731SOL    HW219033  10.887   0.993   1.318
 5732SOL     OW19034   9.499   2.460   3.938
 5732SOL    HW119035   9.545   2.520   3.878
 5732SOL    HW219036   9.569   2.419   3.988
 5733SOL     OW19037   1.945   3.787  13.732
 5733SOL    HW119038   1.985   3.805  13.817
 5733SOL    HW219039   2.007   3.728  13.688
 5734SOL     OW19040   9.957   1.719   7.056
 5734SOL    HW119041   9.951   1.803   7.011
 5734SOL    HW219042   9.867   1.693   7.071
 5735SOL     OW19043  13.292   1.695  11.540
 5735SOL    HW119044  13.204   1.721  11.513
 5735SOL    HW219045  13.325   1.772  11.588
 5736SOL     OW19046   1.747   8.003   6.114
 5736SOL    HW119047   1.708   7.972   6.032
 5736SOL    HW219048   1.835   7.965   6.114
 5737SOL     OW19049   1.720   8.108   3.885
 5737SOL    HW119050   1.770   8.033   3.853
 5737SOL    HW219051   1.631   8.093   3.851
 5738SOL     OW19052  12.258   6.829  14.238
 5738SOL    HW119053  12.264   6.748  14.288
 5738SOL    HW219054  12.174   6.868  14.264
 5739SOL     OW19055   0.110   0.921   5.624
 5739SOL    HW119056   0.123   0.864   5.549
 5739SOL    HW219057   0.137   0.869   5.700
 5740SOL     OW19058   7.286   2.401   2.815
 5740SOL    HW119059   7.229   2.474   2.839
 5740SOL    HW219060   7.362   2.442   2.773
 5741SOL     OW19061   0.705   4.245   9.480
 5741SOL    HW119062   0.795   4.259   9.449
 5741SOL    HW219063   0.702   4.153   9.504
 5742SOL     OW19064  13.225   8.852   1.997
 5742SOL    HW119065  13.295   8.911   2.027
 5742SOL    HW219066  13.162   8.850   2.069
 5743SOL     OW19067   5.952   0.482  10.518
 5743SOL    HW119068   5.920   0.392  10.508
 5743SOL    HW219069   6.031   0.486  10.464
 5744SOL     OW19070   4.359  10.924   1.381
 5744SOL    HW119071   4.318  10.838   1.392
 5744SOL    HW219072   4.375  10.930   1.287
 5745SOL     OW19073   2.143  11.682   6.255
 5745SOL    HW119074   2.231  11.718   6.266
 5745SOL    HW219075   2.147  11.633   6.173
 5746SOL     OW19076   3.014   3.680  13.361
 5746SOL    HW119077   3.081   3.718  13.303
 5746SOL    HW219078   2.950   3.643  13.301
 5747SOL     OW19079   1.538   0.386  13.329
 5747SOL    HW119080   1.476   0.345  13.269
 5747SOL    HW219081   1.544   0.325  13.403
 5748SOL     OW19082  14.722   8.584  12.698
 5748SOL    HW119083  14.783   8.510  12.699
 5748SOL    HW219084  14.638   8.546  12.673
 5749SOL     OW19085  11.833  12.502  13.100
 5749SOL    HW119086  11.883  12.441  13.045
 5749SOL    HW219087  11.872  12.494  13.187
 5750SOL     OW19088   0.589   5.520   8.700
 5750SOL    HW119089   0.678   5.488   8.716
 5750SOL    HW219090   0.532   5.457   8.744
 5751SOL     OW19091  13.431   2.455   2.762
 5751SOL    HW119092  13.523   2.459   2.735
 5751SOL    HW219093  13.381   2.459   2.681
 5752SOL     OW19094   5.428   2.088  12.493
 5752SOL    HW119095   5.467   2.014  12.445
 5752SOL    HW219096   5.493   2.158  12.485
 5753SOL     OW19097   0.368  11.996   5.410
 5753SOL    HW119098   0.393  11.923   5.354
 5753SOL    HW219099   0.423  12.069   5.382
 5754SOL     OW19100  11.103   1.341  13.825
 5754SOL    HW119101  11.122   1.286  13.749
 5754SOL    HW219102  11.169   1.411  13.821
 5755SOL     OW19103  12.136  11.399   0.220
 5755SOL    HW119104  12.084  11.368   0.146
 5755SOL    HW219105  12.073  11.441   0.278
 5756SOL     OW19106   7.265   2.137   2.804
 5756SOL    HW119107   7.269   2.232   2.814
 5756SOL    HW219108   7.221   2.124   2.719
 5757SOL     OW19109  14.260   7.813   6.551
 5757SOL    HW119110  14.274   7.841   6.461
 5757SOL    HW219111  14.277   7.719   6.550
 5758SOL     OW19112   3.677  13.870  11.152
 5758SOL    HW119113   3.694  13.964  11.139
 5758SOL    HW219114   3.633  13.866  11.237
 5759SOL     OW19115   6.376  10.333  14.822
 5759SOL    HW119116   6.334  10.400  14.875
 5759SOL    HW219117   6.377  10.255   0.001
 5760SOL     OW19118   3.823   5.852   7.472
 5760SOL    HW119119   3.743   5.892   7.436
 5760SOL    HW219120   3.864   5.810   7.397
 5761SOL     OW19121   8.257  10.367   1.609
 5761SOL    HW119122   8.166  10.362   1.579
 5761SOL    HW219123   8.307  10.320   1.542
 5762SOL     OW19124  13.636   2.068   2.085
 5762SOL    HW119125  13.651   2.067   1.990
 5762SOL    HW219126  13.619   1.977   2.107
 5763SOL     OW19127   9.184   0.214   3.420
 5763SOL    HW119128   9.092   0.231   3.442
 5763SOL    HW219129   9.216   0.297   3.383
 5764SOL     OW19130  11.401   6.402  12.580
 5764SOL    HW119131  11.339   6.334  12.553
 5764SOL    HW219132  11.359   6.484  12.552
 5765SOL     OW19133   8.947   1.218  13.331
 5765SOL    HW119134   8.870   1.255  13.289
 5765SOL    HW219135   8.995   1.293  13.365
 5766SOL     OW19136   5.707   3.933   5.404
 5766SOL    HW119137   5.696   3.839   5.391
 5766SOL    HW219138   5.727   3.942   5.497
 5767SOL     OW19139   5.995  12.410   3.965
 5767SOL    HW119140   5.953  12.396   4.050
 5767SOL    HW219141   5.957  12.344   3.908
 5768SOL     OW19142  12.185   5.883   2.720
 5768SOL    HW119143  12.278   5.904   2.718
 5768SOL    HW219144  12.141   5.965   2.697
 5769SOL     OW19145   3.823  14.272  13.443
 5769SOL    HW119146   3.864  14.272  13.530
 5769SOL    HW219147   3.823  14.364  13.417
 5770SOL     OW19148   0.563   6.625  13.082
 5770SOL    HW119149   0.634   6.567  13.052
 5770SOL    HW219150   0.498   6.621  13.012
 5771SOL     OW19151   8.088  11.159  12.543
 5771SOL    HW119152   8.035  11.123  12.614
 5771SOL    HW219153   8.048  11.123  12.464
 5772SOL     OW19154   3.390  10.049   5.219
 5772SOL    HW119155   3.341  10.024   5.141
 5772SOL    HW219156   3.327  10.044   5.291
 5773SOL     OW19157   8.236  10.268  14.337
 5773SOL    HW119158   8.289  10.327  14.284
 5773SOL    HW219159   8.248  10.182  14.296
 5774SOL     OW19160  10.298  12.803   0.789
 5774SOL    HW119161  10.334  12.736   0.731
 5774SOL    HW219162  10.356  12.879   0.778
 5775SOL     OW19163  11.269   9.927  14.774
 5775SOL    HW119164  11.220   9.892  14.700
 5775SOL    HW219165  11.361   9.917  14.748
 5776SOL     OW19166   7.036   7.477   9.029
 5776SOL    HW119167   7.004   7.515   9.111
 5776SOL    HW219168   7.017   7.384   9.037
 5777SOL     OW19169   1.366   9.215   7.508
 5777SOL    HW119170   1.448   9.185   7.548
 5777SOL    HW219171   1.327   9.271   7.575
 5778SOL     OW19172   2.728  14.597  10.080
 5778SOL    HW119173   2.707  14.624  10.169
 5778SOL    HW219174   2.654  14.542  10.053
 5779SOL     OW19175   9.035   4.493   5.346
 5779SOL    HW119176   9.036   4.572   5.291
 5779SOL    HW219177   9.088   4.516   5.422
 5780SOL     OW19178  12.687   0.130   1.108
 5780SOL    HW119179  12.617   0.134   1.174
 5780SOL    HW219180  12.758   0.181   1.147
 5781SOL     OW19181  10.297   4.038   1.955
 5781SOL    HW119182  10.204   4.022   1.973
 5781SOL    HW219183  10.338   3.952   1.961
 5782SOL     OW19184   9.775  13.742   7.358
 5782SOL    HW119185   9.835  13.667   7.359
 5782SOL    HW219186   9.746  13.750   7.448
 5783SOL     OW19187   6.790   3.562   9.866
 5783SOL    HW119188   6.776   3.656   9.855
 5783SOL    HW219189   6.885   3.554   9.875
 5784SOL     OW19190   0.067   1.513   8.876
 5784SOL    HW119191   0.099   1.592   8.918
 5784SOL    HW219192   0.053   1.452   8.948
 5785SOL     OW19193  13.831  13.322  10.402
 5785SOL    HW119194  13.838  13.265  10.326
 5785SOL    HW219195  13.780  13.397  10.370
 5786SOL     OW19196  12.688   1.721   9.154
 5786SOL    HW119197  12.782   1.724   9.137
 5786SOL    HW219198  12.678   1.750   9.245
 5787SOL     OW19199   2.428  12.550  12.720
 5787SOL    HW119200   2.477  12.484  12.769
 5787SOL    HW219201   2.398  12.611  12.787
 5788SOL     OW19202  12.535   7.091  14.506
 5788SOL    HW119203  12.459   7.087  14.564
 5788SOL    HW219204  12.527   7.175  14.461
 5789SOL     OW19205   7.991  10.227  13.220
 5789SOL    HW119206   7.950  10.228  13.134
 5789SOL    HW219207   8.082  10.250  13.204
 5790SOL     OW19208   4.768   2.158   2.096
 5790SOL    HW119209   4.749   2.251   2.082
 5790SOL    HW219210   4.753   2.118   2.011
 5791SOL     OW19211  14.612   5.910   2.410
 5791SOL    HW119212  14.684   5.848   2.414
 5791SOL    HW219213  14.612   5.941   2.319
 5792SOL     OW19214  12.069   9.023   6.989
 5792SOL    HW119215  12.140   8.959   6.981
 5792SOL    HW219216  12.103   9.102   6.947
 5793SOL     OW19217  12.843  14.608   4.809
 5793SOL    HW119218  12.905  14.537   4.790
 5793SOL    HW219219  12.841  14.661   4.729
 5794SOL     OW19220  10.639   7.272   5.411
 5794SOL    HW119221  10.644   7.333   5.338
 5794SOL    HW219222  10.602   7.192   5.374
 5795SOL     OW19223   4.311   4.595  13.285
 5795SOL    HW119224   4.229   4.627  13.324
 5795SOL    HW219225   4.350   4.673  13.245
 5796SOL     OW19226  11.220   1.841   0.728
 5796SOL    HW119227  11.249   1.793   0.650
 5796SOL    HW219228  11.129   1.862   0.710
 5797SOL     OW19229   0.917   7.618   5.695
 5797SOL    HW119230   0.877   7.549   5.642
 5797SOL    HW219231   1.006   7.626   5.660
 5798SOL     OW19232  10.882   7.893  11.106
 5798SOL    HW119233  10.823   7.931  11.171
 5798SOL    HW219234  10.970   7.921  11.134
 5799SOL     OW19235  12.028   1.486   4.106
 5799SOL    HW119236  12.100   1.443   4.152
 5799SOL    HW219237  12.052   1.579   4.104
 5800SOL     OW19238   2.157  14.223   3.691
 5800SOL    HW119239   2.163  14.284   3.617
 5800SOL    HW219240   2.135  14.139   3.651
 5801SOL     OW19241   8.566  14.036  11.937
 5801SOL    HW119242   8.528  13.962  11.891
 5801SOL    HW219243   8.550  14.111  11.879
 5802SOL     OW19244   0.885  10.493  13.791
 5802SOL    HW119245   0.974  10.456  13.791
 5802SOL    HW219246   0.878  10.537  13.706
 5803SOL     OW19247  13.220  10.658   0.349
 5803SOL    HW119248  13.210  10.744   0.391
 5803SOL    HW219249  13.256  10.602   0.418
 5804SOL     OW19250   5.478   9.589  10.125
 5804SOL    HW119251   5.528   9.578  10.206
 5804SOL    HW219252   5.517   9.526  10.064
 5805SOL     OW19253  12.633   1.070   0.592
 5805SOL    HW119254  12.708   1.104   0.640
 5805SOL    HW219255  12.558   1.122   0.622
 5806SOL     OW19256   0.325  10.990   8.942
 5806SOL    HW119257   0.250  11.048   8.953
 5806SOL    HW219258   0.401  11.042   8.968
 5807SOL     OW19259  14.303   8.564   2.028
 5807SOL    HW119260  14.227   8.554   1.972
 5807SOL    HW219261  14.281   8.515   2.107
 5808SOL     OW19262  10.791   1.985  14.411
 5808SOL    HW119263  10.731   2.001  14.338
 5808SOL    HW219264  10.755   1.908  14.455
 5809SOL     OW19265   1.381   9.620   5.985
 5809SOL    HW119266   1.325   9.553   5.946
 5809SOL    HW219267   1.333   9.648   6.063
 5810SOL     OW19268  13.191  13.149   3.811
 5810SOL    HW119269  13.281  13.152   3.844
 5810SOL    HW219270  13.181  13.061   3.776
 5811SOL     OW19271   6.054   5.258   3.413
 5811SOL    HW119272   6.011   5.174   3.430
 5811SOL    HW219273   5.985   5.312   3.373
 5812SOL     OW19274   5.744   4.401   3.187
 5812SOL    HW119275   5.707   4.486   3.212
 5812SOL    HW219276   5.719   4.343   3.259
 5813SOL     OW19277   8.790   7.915  10.830
 5813SOL    HW119278   8.776   7.925  10.924
 5813SOL    HW219279   8.732   7.980  10.790
 5814SOL     OW19280  14.684   8.866  14.369
 5814SOL    HW119281  14.646   8.779  14.380
 5814SOL    HW219282  14.763   8.864  14.423
 5815SOL     OW19283   3.742   8.525   8.557
 5815SOL    HW119284   3.687   8.519   8.479
 5815SOL    HW219285   3.831   8.535   8.522
 5816SOL     OW19286   2.745  11.897   3.558
 5816SOL    HW119287   2.791  11.867   3.636
 5816SOL    HW219288   2.812  11.899   3.490
 5817SOL     OW19289   7.983   5.870  10.832
 5817SOL    HW119290   8.045   5.879  10.905
 5817SOL    HW219291   8.030   5.905  10.756
 5818SOL     OW19292  11.278  12.141   5.512
 5818SOL    HW119293  11.204  12.200   5.527
 5818SOL    HW219294  11.265  12.111   5.422
 5819SOL     OW19295   1.293   0.420   2.787
 5819SOL    HW119296   1.264   0.510   2.767
 5819SOL    HW219297   1.379   0.414   2.746
 5820SOL     OW19298   8.623  11.405   9.275
 5820SOL    HW119299   8.584  11.488   9.303
 5820SOL    HW219300   8.653  11.421   9.185
 5821SOL     OW19301   4.247   0.002  14.281
 5821SOL    HW119302   4.251   0.097  14.292
 5821SOL    HW219303   4.207  14.866  14.195
 5822SOL     OW19304   6.711  10.330  13.859
 5822SOL    HW119305   6.734  10.422  13.854
 5822SOL    HW219306   6.615  10.328  13.857
 5823SOL     OW19307   1.323   6.813   8.298
 5823SOL    HW119308   1.233   6.821   8.330
 5823SOL    HW219309   1.377   6.842   8.372
 5824SOL     OW19310   8.632   1.445   8.369
 5824SOL    HW119311   8.690   1.488   8.432
 5824SOL    HW219312   8.665   1.472   8.284
 5825SOL     OW19313  11.338   5.026  10.259
 5825SOL    HW119314  11.301   5.041  10.172
 5825SOL    HW219315  11.334   4.931  10.270
 5826SOL     OW19316   0.729   2.491   8.832
 5826SOL    HW119317   0.654   2.468   8.776
 5826SOL    HW219318   0.701   2.569   8.879
 5827SOL     OW19319   8.921   5.384  13.261
 5827SOL    HW119320   8.867   5.324  13.209
 5827SOL    HW219321   8.911   5.352  13.351
 5828SOL     OW19322   3.993   1.981  12.306
 5828SOL    HW119323   4.010   2.075  12.302
 5828SOL    HW219324   3.960   1.958  12.220
 5829SOL     OW19325  11.624   9.494  13.829
 5829SOL    HW119326  11.676   9.573  13.844
 5829SOL    HW219327  11.688   9.427  13.805
 5830SOL     OW19328   5.552  10.070   4.242
 5830SOL    HW119329   5.486  10.114   4.188
 5830SOL    HW219330   5.623  10.134   4.251
 5831SOL     OW19331   5.903   4.971   7.170
 5831SOL    HW119332   5.882   5.064   7.163
 5831SOL    HW219333   5.968   4.967   7.240
 5832SOL     OW19334   1.679   7.429   9.236
 5832SOL    HW119335   1.692   7.347   9.188
 5832SOL    HW219336   1.634   7.403   9.316
 5833SOL     OW19337  10.386  13.023   2.672
 5833SOL    HW119338  10.444  13.032   2.596
 5833SOL    HW219339  10.444  12.997   2.743
 5834SOL     OW19340   4.705  14.607   8.498
 5834SOL    HW119341   4.640  14.654   8.445
 5834SOL    HW219342   4.759  14.676   8.536
 5835SOL     OW19343   7.423   3.550   4.618
 5835SOL    HW119344   7.412   3.503   4.701
 5835SOL    HW219345   7.358   3.511   4.560
 5836SOL     OW19346  12.996   3.344   0.649
 5836SOL    HW119347  12.935   3.417   0.663
 5836SOL    HW219348  13.000   3.334   0.554
 5837SOL     OW19349   6.574   4.583  10.238
 5837SOL    HW119350   6.646   4.635  10.202
 5837SOL    HW219351   6.569   4.506  10.180
 5838SOL     OW19352   6.711   4.013   4.668
 5838SOL    HW119353   6.745   3.929   4.697
 5838SOL    HW219354   6.678   3.997   4.580
 5839SOL     OW19355   1.332  10.691   7.560
 5839SOL    HW119356   1.369  10.648   7.483
 5839SOL    HW219357   1.294  10.772   7.526
 5840SOL     OW19358   1.411  13.999   7.954
 5840SOL    HW119359   1.330  13.998   7.903
 5840SOL    HW219360   1.391  13.948   8.032
 5841SOL     OW19361   2.560   4.780  14.729
 5841SOL    HW119362   2.609   4.704  14.763
 5841SOL    HW219363   2.503   4.805  14.802
 5842SOL     OW19364   9.976   5.513  12.856
 5842SOL    HW119365   9.988   5.565  12.776
 5842SOL    HW219366  10.036   5.553  12.919
 5843SOL     OW19367  14.110   6.109  13.998
 5843SOL    HW119368  14.052   6.134  13.927
 5843SOL    HW219369  14.161   6.188  14.018
 5844SOL     OW19370   3.819  11.291  13.041
 5844SOL    HW119371   3.802  11.381  13.070
 5844SOL    HW219372   3.767  11.237  13.100
 5845SOL     OW19373   1.204  10.026   1.211
 5845SOL    HW119374   1.274  10.089   1.195
 5845SOL    HW219375   1.156  10.060   1.287
 5846SOL     OW19376   0.868  10.885   0.522
 5846SOL    HW119377   0.887  10.900   0.430
 5846SOL    HW219378   0.792  10.826   0.521
 5847SOL     OW19379   8.165  12.661   9.893
 5847SOL    HW119380   8.211  12.696   9.816
 5847SOL    HW219381   8.076  12.695   9.885
 5848SOL     OW19382   5.088   4.539  10.761
 5848SOL    HW119383   5.064   4.517  10.671
 5848SOL    HW219384   5.182   4.556  10.757
 5849SOL     OW19385   6.535   4.567  10.731
 5849SOL    HW119386   6.510   4.574  10.639
 5849SOL    HW219387   6.451   4.558  10.777
 5850SOL     OW19388  12.291  11.760  11.106
 5850SOL    HW119389  12.217  11.779  11.164
 5850SOL    HW219390  12.270  11.675  11.068
 5851SOL     OW19391   1.036   8.905   3.709
 5851SOL    HW119392   1.061   8.818   3.676
 5851SOL    HW219393   1.028   8.958   3.630
 5852SOL     OW19394   6.857   1.260  12.070
 5852SOL    HW119395   6.822   1.171  12.060
 5852SOL    HW219396   6.847   1.279  12.163
 5853SOL     OW19397  11.569   1.712   2.533
 5853SOL    HW119398  11.527   1.701   2.447
 5853SOL    HW219399  11.659   1.683   2.519
 5854SOL     OW19400   6.939   4.104  11.728
 5854SOL    HW119401   6.942   4.169  11.657
 5854SOL    HW219402   6.947   4.155  11.808
 5855SOL     OW19403  12.653   0.989   7.568
 5855SOL    HW119404  12.646   0.895   7.551
 5855SOL    HW219405  12.563   1.021   7.560
 5856SOL     OW19406   4.391   0.406   6.361
 5856SOL    HW119407   4.447   0.479   6.387
 5856SOL    HW219408   4.411   0.337   6.424
 5857SOL     OW19409  13.648   3.320   8.711
 5857SOL    HW119410  13.656   3.245   8.770
 5857SOL    HW219411  13.690   3.292   8.630
 5858SOL     OW19412  11.864  11.156  13.777
 5858SOL    HW119413  11.859  11.083  13.715
 5858SOL    HW219414  11.939  11.207  13.747
 5859SOL     OW19415  13.933   8.170   4.693
 5859SOL    HW119416  13.984   8.222   4.631
 5859SOL    HW219417  13.874   8.233   4.734
 5860SOL     OW19418  13.911   2.360   6.380
 5860SOL    HW119419  13.956   2.298   6.437
 5860SOL    HW219420  13.832   2.384   6.428
 5861SOL     OW19421  13.055  13.061   1.900
 5861SOL    HW119422  13.071  13.094   1.989
 5861SOL    HW219423  13.097  13.126   1.843
 5862SOL     OW19424   5.254   9.460   2.599
 5862SOL    HW119425   5.244   9.552   2.627
 5862SOL    HW219426   5.298   9.417   2.673
 5863SOL     OW19427   9.982   4.532   3.639
 5863SOL    HW119428   9.974   4.490   3.725
 5863SOL    HW219429   9.896   4.570   3.622
 5864SOL     OW19430   7.768   4.587  11.286
 5864SOL    HW119431   7.805   4.619  11.204
 5864SOL    HW219432   7.691   4.536  11.260
 5865SOL     OW19433  10.176  14.271  13.692
 5865SOL    HW119434  10.104  14.315  13.738
 5865SOL    HW219435  10.199  14.331  13.621
 5866SOL     OW19436  13.258   5.800   3.130
 5866SOL    HW119437  13.265   5.852   3.050
 5866SOL    HW219438  13.334   5.742   3.128
 5867SOL     OW19439  14.766  11.674  13.713
 5867SOL    HW119440  14.815  11.619  13.653
 5867SOL    HW219441  14.792  11.764  13.690
 5868SOL     OW19442   2.323   7.725   7.814
 5868SOL    HW119443   2.316   7.631   7.799
 5868SOL    HW219444   2.357   7.733   7.903
 5869SOL     OW19445  14.711   4.899  10.533
 5869SOL    HW119446  14.745   4.900  10.623
 5869SOL    HW219447  14.620   4.928  10.541
 5870SOL     OW19448  13.901   2.935   2.106
 5870SOL    HW119449  13.843   2.899   2.173
 5870SOL    HW219450  13.986   2.943   2.151
 5871SOL     OW19451  13.753   2.779   6.894
 5871SOL    HW119452  13.675   2.827   6.866
 5871SOL    HW219453  13.826   2.836   6.868
 5872SOL     OW19454   4.264   0.359  14.091
 5872SOL    HW119455   4.261   0.413  14.169
 5872SOL    HW219456   4.340   0.392  14.042
 5873SOL     OW19457  12.952  11.098  13.169
 5873SOL    HW119458  12.935  11.160  13.239
 5873SOL    HW219459  13.014  11.036  13.206
 5874SOL     OW19460   2.411   7.768   1.764
 5874SOL    HW119461   2.408   7.860   1.738
 5874SOL    HW219462   2.496   7.737   1.730
 5875SOL     OW19463   9.170   2.710   2.750
 5875SOL    HW119464   9.205   2.790   2.711
 5875SOL    HW219465   9.237   2.683   2.812
 5876SOL     OW19466   4.972  12.586   5.773
 5876SOL    HW119467   5.028  12.558   5.846
 5876SOL    HW219468   4.963  12.680   5.785
 5877SOL     OW19469   7.636   0.886  10.185
 5877SOL    HW119470   7.708   0.936  10.221
 5877SOL    HW219471   7.628   0.810  10.243
 5878SOL     OW19472   6.949  12.679  13.952
 5878SOL    HW119473   6.900  12.597  13.950
 5878SOL    HW219474   7.003  12.676  13.872
 5879SOL     OW19475   9.227  10.357  13.309
 5879SOL    HW119476   9.252  10.433  13.258
 5879SOL    HW219477   9.187  10.394  13.388
 5880SOL     OW19478   0.116   6.351  11.774
 5880SOL    HW119479   0.021   6.356  11.791
 5880SOL    HW219480   0.123   6.352  11.679
 5881SOL     OW19481   6.942  12.148   8.479
 5881SOL    HW119482   7.003  12.100   8.423
 5881SOL    HW219483   6.913  12.221   8.425
 5882SOL     OW19484   9.776   4.952   0.307
 5882SOL    HW119485   9.868   4.924   0.303
 5882SOL    HW219486   9.737   4.916   0.227
 5883SOL     OW19487   7.900   9.032   0.408
 5883SOL    HW119488   7.919   9.011   0.317
 5883SOL    HW219489   7.819   8.984   0.427
 5884SOL     OW19490  11.347   1.234   4.737
 5884SOL    HW119491  11.344   1.148   4.777
 5884SOL    HW219492  11.261   1.272   4.755
 5885SOL     OW19493   9.249   5.346   7.235
 5885SOL    HW119494   9.282   5.396   7.161
 5885SOL    HW219495   9.309   5.271   7.243
 5886SOL     OW19496   3.224   2.810  10.248
 5886SOL    HW119497   3.217   2.747  10.176
 5886SOL    HW219498   3.281   2.766  10.312
 5887SOL     OW19499   9.794  10.006   7.675
 5887SOL    HW119500   9.787   9.989   7.769
 5887SOL    HW219501   9.872  10.060   7.666
 5888SOL     OW19502  10.584   0.833   1.439
 5888SOL    HW119503  10.565   0.791   1.523
 5888SOL    HW219504  10.506   0.817   1.385
 5889SOL     OW19505   4.372  13.651   0.799
 5889SOL    HW119506   4.346  13.559   0.785
 5889SOL    HW219507   4.455  13.660   0.753
 5890SOL     OW19508   6.985   7.002   2.692
 5890SOL    HW119509   7.048   6.971   2.626
 5890SOL    HW219510   6.950   7.083   2.655
 5891SOL     OW19511   2.994  12.163  11.107
 5891SOL    HW119512   2.936  12.194  11.038
 5891SOL    HW219513   3.082  12.176  11.071
 5892SOL     OW19514  10.936  11.348   2.799
 5892SOL    HW119515  11.021  11.305   2.807
 5892SOL    HW219516  10.875  11.276   2.782
 5893SOL     OW19517  11.273  13.444  10.555
 5893SOL    HW119518  11.302  13.391  10.480
 5893SOL    HW219519  11.239  13.381  10.618
 5894SOL     OW19520   6.322   4.691  12.373
 5894SOL    HW119521   6.413   4.718  12.361
 5894SOL    HW219522   6.279   4.716  12.291
 5895SOL     OW19523  10.977  10.435   3.500
 5895SOL    HW119524  11.030  10.385   3.438
 5895SOL    HW219525  10.913  10.371   3.534
 5896SOL     OW19526   6.243  13.205   0.423
 5896SOL    HW119527   6.195  13.224   0.505
 5896SOL    HW219528   6.212  13.118   0.397
 5897SOL     OW19529   3.972   1.702   4.237
 5897SOL    HW119530   3.943   1.793   4.229
 5897SOL    HW219531   3.893   1.654   4.263
 5898SOL     OW19532   7.075   9.983  14.260
 5898SOL    HW119533   6.984   9.955  14.269
 5898SOL    HW219534   7.103   9.944  14.177
 5899SOL     OW19535   3.441  11.104  14.195
 5899SOL    HW119536   3.366  11.063  14.153
 5899SOL    HW219537   3.515  11.047  14.174
 5900SOL     OW19538  14.535   8.837   4.606
 5900SOL    HW119539  14.580   8.920   4.594
 5900SOL    HW219540  14.510   8.836   4.699
 5901SOL     OW19541   3.024   4.961   0.227
 5901SOL    HW119542   3.040   4.873   0.259
 5901SOL    HW219543   3.100   5.011   0.255
 5902SOL     OW19544   8.223   7.851   9.071
 5902SOL    HW119545   8.272   7.910   9.013
 5902SOL    HW219546   8.145   7.901   9.096
 5903SOL     OW19547  11.810   7.175   5.192
 5903SOL    HW119548  11.717   7.153   5.191
 5903SOL    HW219549  11.854   7.092   5.174
 5904SOL     OW19550  14.439   6.659   0.543
 5904SOL    HW119551  14.485   6.605   0.478
 5904SOL    HW219552  14.470   6.627   0.627
 5905SOL     OW19553  11.171   4.240   4.918
 5905SOL    HW119554  11.183   4.149   4.947
 5905SOL    HW219555  11.077   4.256   4.930
 5906SOL     OW19556   8.428   8.068   0.528
 5906SOL    HW119557   8.333   8.078   0.532
 5906SOL    HW219558   8.460   8.109   0.607
 5907SOL     OW19559   1.263  12.605  14.154
 5907SOL    HW119560   1.294  12.629  14.241
 5907SOL    HW219561   1.271  12.686  14.103
 5908SOL     OW19562  11.274   2.111   7.643
 5908SOL    HW119563  11.306   2.025   7.615
 5908SOL    HW219564  11.295   2.115   7.736
 5909SOL     OW19565   5.180  14.014  10.945
 5909SOL    HW119566   5.143  14.035  11.031
 5909SOL    HW219567   5.139  13.932  10.920
 5910SOL     OW19568   6.220   4.999  13.028
 5910SOL    HW119569   6.246   5.090  13.015
 5910SOL    HW219570   6.213   4.962  12.940
 5911SOL     OW19571  10.492   4.121   0.459
 5911SOL    HW119572  10.473   4.214   0.471
 5911SOL    HW219573  10.495   4.109   0.364
 5912SOL     OW19574   8.811   2.857   4.019
 5912SOL    HW119575   8.888   2.807   3.994
 5912SOL    HW219576   8.763   2.870   3.937
 5913SOL     OW19577   8.995  10.814   3.867
 5913SOL    HW119578   9.001  10.902   3.830
 5913SOL    HW219579   9.008  10.756   3.792
 5914SOL     OW19580   5.689   9.078   5.578
 5914SOL    HW119581   5.661   9.163   5.544
 5914SOL    HW219582   5.659   9.015   5.512
 5915SOL     OW19583  10.599   6.283   4.002
 5915SOL    HW119584  10.682   6.242   4.027
 5915SOL    HW219585  10.622   6.339   3.927
 5916SOL     OW19586  12.730   0.774   6.514
 5916SOL    HW119587  12.656   0.741   6.463
 5916SOL    HW219588  12.749   0.705   6.577
 5917SOL     OW19589   8.529   1.341  10.581
 5917SOL    HW119590   8.460   1.365  10.644
 5917SOL    HW219591   8.554   1.252  10.607
 5918SOL     OW19592   4.491   2.590   4.324
 5918SOL    HW119593   4.500   2.601   4.229
 5918SOL    HW219594   4.463   2.499   4.335
 5919SOL     OW19595   1.378   3.268   7.537
 5919SOL    HW119596   1.417   3.281   7.623
 5919SOL    HW219597   1.446   3.293   7.475
 5920SOL     OW19598   7.413   6.092   6.882
 5920SOL    HW119599   7.340   6.112   6.940
 5920SOL    HW219600   7.401   6.151   6.807
 5921SOL     OW19601  14.379   9.503   8.882
 5921SOL    HW119602  14.291   9.465   8.870
 5921SOL    HW219603  14.422   9.489   8.798
 5922SOL     OW19604   5.645   8.660  11.485
 5922SOL    HW119605   5.733   8.645  11.450
 5922SOL    HW219606   5.658   8.716  11.561
 5923SOL     OW19607   8.775   0.106   1.234
 5923SOL    HW119608   8.738   0.062   1.158
 5923SOL    HW219609   8.867   0.079   1.234
 5924SOL     OW19610   2.949   1.352  10.813
 5924SOL    HW119611   2.866   1.304  10.821
 5924SOL    HW219612   2.959   1.398  10.896
 5925SOL     OW19613  13.066   0.510  12.972
 5925SOL    HW119614  13.088   0.491  13.063
 5925SOL    HW219615  13.054   0.605  12.969
 5926SOL     OW19616   8.412   3.270   1.516
 5926SOL    HW119617   8.500   3.234   1.526
 5926SOL    HW219618   8.356   3.210   1.566
 5927SOL     OW19619   7.313  11.027   1.544
 5927SOL    HW119620   7.231  10.996   1.582
 5927SOL    HW219621   7.381  10.993   1.602
 5928SOL     OW19622   6.192   7.232   2.979
 5928SOL    HW119623   6.154   7.317   3.005
 5928SOL    HW219624   6.118   7.172   2.980
 5929SOL     OW19625   0.304   7.950   6.943
 5929SOL    HW119626   0.362   8.019   6.913
 5929SOL    HW219627   0.350   7.911   7.018
 5930SOL     OW19628   4.326   0.728   5.549
 5930SOL    HW119629   4.356   0.638   5.532
 5930SOL    HW219630   4.407   0.776   5.570
 5931SOL     OW19631   7.040  12.461   7.462
 5931SOL    HW119632   6.948  12.486   7.465
 5931SOL    HW219633   7.087  12.544   7.473
 5932SOL     OW19634   1.569   7.028  13.357
 5932SOL    HW119635   1.500   6.977  13.401
 5932SOL    HW219636   1.594   6.974  13.282
 5933SOL     OW19637  11.395  13.831   6.822
 5933SOL    HW119638  11.446  13.832   6.741
 5933SOL    HW219639  11.412  13.744   6.859
 5934SOL     OW19640   3.256   0.452   4.910
 5934SOL    HW119641   3.165   0.446   4.881
 5934SOL    HW219642   3.297   0.513   4.849
 5935SOL     OW19643   3.661   2.867  10.882
 5935SOL    HW119644   3.697   2.918  10.955
 5935SOL    HW219645   3.698   2.780  10.893
 5936SOL     OW19646   3.546  13.990   5.917
 5936SOL    HW119647   3.561  14.002   6.011
 5936SOL    HW219648   3.530  14.078   5.884
 5937SOL     OW19649   3.261   6.827  10.233
 5937SOL    HW119650   3.238   6.883  10.307
 5937SOL    HW219651   3.312   6.756  10.272
 5938SOL     OW19652   6.793   8.936  13.044
 5938SOL    HW119653   6.818   8.846  13.066
 5938SOL    HW219654   6.761   8.931  12.954
 5939SOL     OW19655  14.210  10.141  12.332
 5939SOL    HW119656  14.256  10.213  12.375
 5939SOL    HW219657  14.275  10.072  12.325
 5940SOL     OW19658   3.629  13.704   8.170
 5940SOL    HW119659   3.575  13.626   8.182
 5940SOL    HW219660   3.693  13.679   8.103
 5941SOL     OW19661  10.307   7.098   4.597
 5941SOL    HW119662  10.377   7.076   4.536
 5941SOL    HW219663  10.274   7.013   4.627
 5942SOL     OW19664   7.229  10.114   5.539
 5942SOL    HW119665   7.300  10.060   5.505
 5942SOL    HW219666   7.156  10.054   5.552
 5943SOL     OW19667  13.495   8.664  12.809
 5943SOL    HW119668  13.442   8.641  12.886
 5943SOL    HW219669  13.511   8.758  12.819
 5944SOL     OW19670  14.360   9.023   5.363
 5944SOL    HW119671  14.368   9.115   5.387
 5944SOL    HW219672  14.317   8.982   5.438
 5945SOL     OW19673  11.067   0.309  11.396
 5945SOL    HW119674  11.056   0.230  11.449
 5945SOL    HW219675  11.118   0.279  11.320
 5946SOL     OW19676  13.411   4.284  12.948
 5946SOL    HW119677  13.367   4.221  12.891
 5946SOL    HW219678  13.396   4.250  13.036
 5947SOL     OW19679   1.937  10.424   9.655
 5947SOL    HW119680   2.030  10.406   9.643
 5947SOL    HW219681   1.893  10.350   9.614
 5948SOL     OW19682   8.041   4.076   1.973
 5948SOL    HW119683   8.005   4.020   2.042
 5948SOL    HW219684   8.082   4.148   2.020
 5949SOL     OW19685  12.890   4.836  10.467
 5949SOL    HW119686  12.962   4.774  10.451
 5949SOL    HW219687  12.850   4.806  10.548
 5950SOL     OW19688   9.407   0.407   6.553
 5950SOL    HW119689   9.367   0.339   6.606
 5950SOL    HW219690   9.440   0.361   6.476
 5951SOL     OW19691  11.019   2.225   2.025
 5951SOL    HW119692  11.092   2.212   2.086
 5951SOL    HW219693  11.047   2.182   1.944
 5952SOL     OW19694   6.906   8.427  14.287
 5952SOL    HW119695   6.957   8.468  14.218
 5952SOL    HW219696   6.841   8.494  14.312
 5953SOL     OW19697   0.536   9.253   7.773
 5953SOL    HW119698   0.469   9.261   7.705
 5953SOL    HW219699   0.584   9.174   7.750
 5954SOL     OW19700   6.829   5.349   9.070
 5954SOL    HW119701   6.818   5.428   9.017
 5954SOL    HW219702   6.811   5.378   9.160
 5955SOL     OW19703  12.108   9.588   6.875
 5955SOL    HW119704  12.173   9.584   6.946
 5955SOL    HW219705  12.094   9.497   6.851
 5956SOL     OW19706   2.043  12.295   6.615
 5956SOL    HW119707   2.116  12.345   6.653
 5956SOL    HW219708   1.971  12.358   6.610
 5957SOL     OW19709   2.426   5.322   0.430
 5957SOL    HW119710   2.463   5.348   0.515
 5957SOL    HW219711   2.332   5.341   0.438
 5958SOL     OW19712   6.474  11.812   3.192
 5958SOL    HW119713   6.542  11.770   3.245
 5958SOL    HW219714   6.425  11.866   3.255
 5959SOL     OW19715   6.380  14.334   1.048
 5959SOL    HW119716   6.341  14.248   1.066
 5959SOL    HW219717   6.465  14.331   1.092
 5960SOL     OW19718   8.930   7.168   7.376
 5960SOL    HW119719   8.836   7.187   7.372
 5960SOL    HW219720   8.971   7.255   7.376
 5961SOL     OW19721   7.681  14.419   3.896
 5961SOL    HW119722   7.607  14.360   3.912
 5961SOL    HW219723   7.752  14.384   3.949
 5962SOL     OW19724  12.797   4.682   8.055
 5962SOL    HW119725  12.888   4.686   8.027
 5962SOL    HW219726  12.787   4.758   8.114
 5963SOL     OW19727   7.065   6.475  12.142
 5963SOL    HW119728   6.970   6.477  12.128
 5963SOL    HW219729   7.079   6.532  12.218
 5964SOL     OW19730   4.938  14.136  10.357
 5964SOL    HW119731   4.980  14.209  10.403
 5964SOL    HW219732   4.973  14.058  10.398
 5965SOL     OW19733   6.687   3.673   0.991
 5965SOL    HW119734   6.687   3.710   1.079
 5965SOL    HW219735   6.761   3.714   0.947
 5966SOL     OW19736   0.332   9.970   1.422
 5966SOL    HW119737   0.387  10.019   1.360
 5966SOL    HW219738   0.243   9.987   1.393
 5967SOL     OW19739   6.107   2.887   1.573
 5967SOL    HW119740   6.157   2.839   1.639
 5967SOL    HW219741   6.115   2.833   1.494
 5968SOL     OW19742   3.072   1.926   2.269
 5968SOL    HW119743   3.117   1.900   2.349
 5968SOL    HW219744   3.142   1.952   2.209
 5969SOL     OW19745   2.230   7.240   0.951
 5969SOL    HW119746   2.136   7.244   0.932
 5969SOL    HW219747   2.241   7.290   1.031
 5970SOL     OW19748  13.121   7.846  13.793
 5970SOL    HW119749  13.177   7.923  13.785
 5970SOL    HW219750  13.061   7.867  13.864
 5971SOL     OW19751  14.594   1.630   3.748
 5971SOL    HW119752  14.644   1.652   3.827
 5971SOL    HW219753  14.657   1.583   3.693
 5972SOL     OW19754  12.278   6.500   0.513
 5972SOL    HW119755  12.333   6.578   0.508
 5972SOL    HW219756  12.191   6.533   0.534
 5973SOL     OW19757  12.556   1.321  12.799
 5973SOL    HW119758  12.505   1.398  12.770
 5973SOL    HW219759  12.647   1.351  12.798
 5974SOL     OW19760  11.079   7.301   8.538
 5974SOL    HW119761  11.075   7.391   8.571
 5974SOL    HW219762  11.085   7.248   8.617
 5975SOL     OW19763   0.509   0.677   7.041
 5975SOL    HW119764   0.570   0.721   6.983
 5975SOL    HW219765   0.554   0.673   7.125
 5976SOL     OW19766   6.817  12.431  13.940
 5976SOL    HW119767   6.833  12.390  13.855
 5976SOL    HW219768   6.854  12.369  14.003
 5977SOL     OW19769  11.119   7.659   1.901
 5977SOL    HW119770  11.024   7.655   1.915
 5977SOL    HW219771  11.141   7.751   1.910
 5978SOL     OW19772   8.266  14.487  13.535
 5978SOL    HW119773   8.359  14.500  13.553
 5978SOL    HW219774   8.240  14.564  13.485
 5979SOL     OW19775   5.291   7.533   1.908
 5979SOL    HW119776   5.241   7.608   1.874
 5979SOL    HW219777   5.259   7.458   1.858
 5980SOL     OW19778   9.757  12.621   4.757
 5980SOL    HW119779   9.844  12.628   4.795
 5980SOL    HW219780   9.721  12.540   4.793
 5981SOL     OW19781  11.684   9.604  12.172
 5981SOL    HW119782  11.640   9.532  12.217
 5981SOL    HW219783  11.755   9.562  12.124
 5982SOL     OW19784   8.488  13.989   9.663
 5982SOL    HW119785   8.474  13.934   9.586
 5982SOL    HW219786   8.465  14.077   9.633
 5983SOL     OW19787   7.181   5.149   8.349
 5983SOL    HW119788   7.102   5.201   8.364
 5983SOL    HW219789   7.244   5.211   8.313
 5984SOL     OW19790   6.480   7.173  11.929
 5984SOL    HW119791   6.470   7.243  11.993
 5984SOL    HW219792   6.550   7.118  11.964
 5985SOL     OW19793   7.866  10.123   2.747
 5985SOL    HW119794   7.848  10.216   2.732
 5985SOL    HW219795   7.780  10.082   2.753
 5986SOL     OW19796   6.570   2.448  11.506
 5986SOL    HW119797   6.550   2.502  11.430
 5986SOL    HW219798   6.660   2.471  11.530
 5987SOL     OW19799  13.326   8.692   5.342
 5987SOL    HW119800  13.324   8.740   5.260
 5987SOL    HW219801  13.263   8.738   5.398
 5988SOL     OW19802   8.799  14.408   9.138
 5988SOL    HW119803   8.796  14.500   9.163
 5988SOL    HW219804   8.857  14.406   9.062
 5989SOL     OW19805   0.781  13.429   5.991
 5989SOL    HW119806   0.866  13.412   5.950
 5989SOL    HW219807   0.745  13.342   6.008
 5990SOL     OW19808   5.697   5.512  14.085
 5990SOL    HW119809   5.771   5.453  14.093
 5990SOL    HW219810   5.682   5.519  13.990
 5991SOL     OW19811  13.559  14.360   1.035
 5991SOL    HW119812  13.570  14.281   0.983
 5991SOL    HW219813  13.569  14.432   0.973
 5992SOL     OW19814   4.982   5.175   3.062
 5992SOL    HW119815   4.940   5.169   3.148
 5992SOL    HW219816   5.026   5.260   3.063
 5993SOL     OW19817   5.661   9.722   0.301
 5993SOL    HW119818   5.681   9.711   0.208
 5993SOL    HW219819   5.675   9.636   0.339
 5994SOL     OW19820  10.908   2.345   5.146
 5994SOL    HW119821  10.970   2.274   5.159
 5994SOL    HW219822  10.888   2.377   5.234
 5995SOL     OW19823  13.829   6.766   8.593
 5995SOL    HW119824  13.889   6.756   8.518
 5995SOL    HW219825  13.858   6.699   8.655
 5996SOL     OW19826   9.699   7.967  13.414
 5996SOL    HW119827   9.789   7.937  13.428
 5996SOL    HW219828   9.647   7.917  13.477
 5997SOL     OW19829   9.553   9.773   2.748
 5997SOL    HW119830   9.574   9.842   2.811
 5997SOL    HW219831   9.577   9.691   2.793
 5998SOL     OW19832   2.015   2.076   5.999
 5998SOL    HW119833   2.068   2.132   5.943
 5998SOL    HW219834   1.987   2.133   6.071
 5999SOL     OW19835   2.562  13.016   2.308
 5999SOL    HW119836   2.639  13.067   2.335
 5999SOL    HW219837   2.503  13.081   2.270
 6000SOL     OW19838  11.742   8.528   8.828
 6000SOL    HW119839  11.686   8.454   8.805
 6000SOL    HW219840  11.687   8.605   8.816
 6001SOL     OW19841   0.802   1.959  14.776
 6001SOL    HW119842   0.800   1.865  14.795
 6001SOL    HW219843   0.754   2.000  14.848
 6002SOL     OW19844   3.295   6.585   0.117
 6002SOL    HW119845   3.319   6.568   0.026
 6002SOL    HW219846   3.285   6.498   0.155
 6003SOL     OW19847   9.999  14.372  14.611
 6003SOL    HW119848   9.930  14.376  14.544
 6003SOL    HW219849   9.984  14.449  14.666
 6004SOL     OW19850   5.220  12.488  10.369
 6004SOL    HW119851   5.149  12.533  10.324
 6004SOL    HW219852   5.294  12.494  10.309
 6005SOL     OW19853   6.399   6.092  14.588
 6005SOL    HW119854   6.343   6.112  14.514
 6005SOL    HW219855   6.414   6.176  14.632
 6006SOL     OW19856   9.299  13.896  14.230
 6006SOL    HW119857   9.295  13.956  14.304
 6006SOL    HW219858   9.326  13.812  14.269
 6007SOL     OW19859   8.964   1.004   3.730
 6007SOL    HW119860   8.985   0.983   3.821
 6007SOL    HW219861   9.045   1.038   3.694
 6008SOL     OW19862  11.133   3.493  14.675
 6008SOL    HW119863  11.152   3.443  14.755
 6008SOL    HW219864  11.153   3.434  14.603
 6009SOL     OW19865   1.101  11.884   2.887
 6009SOL    HW119866   1.087  11.952   2.953
 6009SOL    HW219867   1.062  11.921   2.807
 6010SOL     OW19868   8.348   8.323   5.050
 6010SOL    HW119869   8.316   8.238   5.081
 6010SOL    HW219870   8.332   8.383   5.123
 6011SOL     OW19871   0.646   5.909  14.112
 6011SOL    HW119872   0.611   5.993  14.083
 6011SOL    HW219873   0.619   5.902  14.204
 6012SOL     OW19874   4.116   8.436   7.732
 6012SOL    HW119875   4.209   8.419   7.751
 6012SOL    HW219876   4.118   8.496   7.658
 6013SOL     OW19877   6.728   9.556  11.980
 6013SOL    HW119878   6.757   9.477  11.934
 6013SOL    HW219879   6.642   9.575  11.944
 6014SOL     OW19880   9.850   6.452   8.243
 6014SOL    HW119881   9.898   6.371   8.222
 6014SOL    HW219882   9.917   6.521   8.241
 6015SOL     OW19883   5.045   0.542  14.390
 6015SOL    HW119884   5.116   0.566  14.449
 6015SOL    HW219885   4.977   0.505  14.446
 6016SOL     OW19886   9.434  13.979  13.709
 6016SOL    HW119887   9.470  14.045  13.768
 6016SOL    HW219888   9.511  13.938  13.669
 6017SOL     OW19889   9.771   0.923  10.351
 6017SOL    HW119890   9.766   0.942  10.257
 6017SOL    HW219891   9.686   0.950  10.385
 6018SOL     OW19892  10.999   0.312  12.823
 6018SOL    HW119893  11.007   0.229  12.775
 6018SOL    HW219894  10.932   0.360  12.775
 6019SOL     OW19895   9.046  13.208   2.358
 6019SOL    HW119896   9.122  13.249   2.399
 6019SOL    HW219897   9.016  13.273   2.294
 6020SOL     OW19898   8.026   7.904   3.069
 6020SOL    HW119899   7.992   7.988   3.099
 6020SOL    HW219900   8.064   7.923   2.983
 6021SOL     OW19901   7.738  13.647  10.836
 6021SOL    HW119902   7.692  13.731  10.830
 6021SOL    HW219903   7.698  13.592  10.768
 6022SOL     OW19904  12.168   7.657  14.484
 6022SOL    HW119905  12.262   7.661  14.465
 6022SOL    HW219906  12.161   7.593  14.555
 6023SOL     OW19907   8.702   6.753   7.877
 6023SOL    HW119908   8.748   6.746   7.793
 6023SOL    HW219909   8.623   6.701   7.866
 6024SOL     OW19910   0.604   3.392   0.078
 6024SOL    HW119911   0.686   3.344   0.069
 6024SOL    HW219912   0.561   3.353   0.154
 6025SOL     OW19913   0.059   7.353  10.859
 6025SOL    HW119914   0.118   7.423  10.830
 6025SOL    HW219915  14.872   7.397  10.915
 6026SOL     OW19916  10.454   6.034   2.047
 6026SOL    HW119917  10.478   5.951   2.087
 6026SOL    HW219918  10.537   6.079   2.034
 6027SOL     OW19919   8.588   6.550  10.794
 6027SOL    HW119920   8.668   6.589  10.759
 6027SOL    HW219921   8.546   6.621  10.842
 6028SOL     OW19922   1.313  11.874  11.812
 6028SOL    HW119923   1.222  11.903  11.822
 6028SOL    HW219924   1.313  11.825  11.729
 6029SOL     OW19925   7.945   7.592  10.878
 6029SOL    HW119926   7.904   7.526  10.933
 6029SOL    HW219927   8.010   7.543  10.828
 6030SOL     OW19928   2.533   4.789   8.783
 6030SOL    HW119929   2.546   4.848   8.709
 6030SOL    HW219930   2.449   4.746   8.765
 6031SOL     OW19931   1.530   8.200   2.783
 6031SOL    HW119932   1.487   8.275   2.742
 6031SOL    HW219933   1.463   8.132   2.785
 6032SOL     OW19934  11.604   9.710   5.875
 6032SOL    HW119935  11.676   9.726   5.936
 6032SOL    HW219936  11.640   9.733   5.789
 6033SOL     OW19937   7.276  13.696   6.348
 6033SOL    HW119938   7.366  13.670   6.363
 6033SOL    HW219939   7.282  13.765   6.282
 6034SOL     OW19940   1.081   5.799   2.358
 6034SOL    HW119941   1.161   5.763   2.397
 6034SOL    HW219942   1.066   5.880   2.406
 6035SOL     OW19943  13.797  11.829  10.363
 6035SOL    HW119944  13.708  11.864  10.364
 6035SOL    HW219945  13.852  11.906  10.347
 6036SOL     OW19946   9.088  10.050   0.468
 6036SOL    HW119947   9.175  10.073   0.499
 6036SOL    HW219948   9.039  10.132   0.469
 6037SOL     OW19949  12.682  11.992  10.427
 6037SOL    HW119950  12.634  12.063  10.469
 6037SOL    HW219951  12.774  12.019  10.431
 6038SOL     OW19952  14.629  10.920  13.890
 6038SOL    HW119953  14.711  10.878  13.918
 6038SOL    HW219954  14.645  10.946  13.799
 6039SOL     OW19955   3.282   5.252   0.990
 6039SOL    HW119956   3.362   5.304   0.982
 6039SOL    HW219957   3.216   5.314   1.018
 6040SOL     OW19958  11.516   4.602   0.115
 6040SOL    HW119959  11.434   4.637   0.082
 6040SOL    HW219960  11.540   4.533   0.052
 6041SOL     OW19961  11.470  10.612   3.017
 6041SOL    HW119962  11.490  10.530   3.062
 6041SOL    HW219963  11.388  10.642   3.057
 6042SOL     OW19964   0.836   4.943  12.989
 6042SOL    HW119965   0.893   5.010  12.952
 6042SOL    HW219966   0.896   4.880  13.029
 6043SOL     OW19967   4.771  14.739   2.110
 6043SOL    HW119968   4.681  14.711   2.125
 6043SOL    HW219969   4.762  14.814   2.051
 6044SOL     OW19970   7.440  13.183  12.463
 6044SOL    HW119971   7.397  13.190  12.548
 6044SOL    HW219972   7.440  13.272  12.428
 6045SOL     OW19973  10.801  11.834  11.297
 6045SOL    HW119974  10.801  11.895  11.224
 6045SOL    HW219975  10.715  11.847  11.338
 6046SOL     OW19976  10.348   4.560   2.995
 6046SOL    HW119977  10.364   4.639   3.047
 6046SOL    HW219978  10.434   4.538   2.959
 6047SOL     OW19979  11.038  14.194  14.137
 6047SOL    HW119980  11.041  14.246  14.057
 6047SOL    HW219981  11.102  14.125  14.123
 6048SOL     OW19982   6.496   3.127   8.323
 6048SOL    HW119983   6.512   3.033   8.314
 6048SOL    HW219984   6.534   3.150   8.408
 6049SOL     OW19985  12.672   0.309   4.183
 6049SOL    HW119986  12.579   0.290   4.196
 6049SOL    HW219987  12.696   0.361   4.261
 6050SOL     OW19988   4.059   5.247   4.531
 6050SOL    HW119989   4.098   5.305   4.596
 6050SOL    HW219990   3.974   5.286   4.513
 6051SOL     OW19991   2.804  13.371   4.625
 6051SOL    HW119992   2.851  13.421   4.691
 6051SOL    HW219993   2.745  13.434   4.584
 6052SOL     OW19994  14.202   3.309   7.639
 6052SOL    HW119995  14.276   3.337   7.693
 6052SOL    HW219996  14.240   3.247   7.577
 6053SOL     OW19997   1.339  11.619   6.802
 6053SOL    HW119998   1.300  11.581   6.881
 6053SOL    HW219999   1.432  11.628   6.823
 6054SOL     OW20000  14.029   9.376   8.105
 6054SOL    HW120001  13.941   9.339   8.098
 6054SOL    HW220002  14.032   9.416   8.192
 6055SOL     OW20003  11.895   6.978   8.746
 6055SOL    HW120004  11.978   6.930   8.751
 6055SOL    HW220005  11.917   7.058   8.699
 6056SOL     OW20006   4.904  11.896   5.187
 6056SOL    HW120007   4.865  11.968   5.235
 6056SOL    HW220008   4.837  11.828   5.185
 6057SOL     OW20009   3.202  14.178  11.087
 6057SOL    HW120010   3.234  14.127  11.012
 6057SOL    HW220011   3.192  14.114  11.157
 6058SOL     OW20012   6.085   5.207  12.181
 6058SOL    HW120013   5.994   5.229  12.201
 6058SOL    HW220014   6.124   5.288  12.151
 6059SOL     OW20015   8.244   6.146   0.108
 6059SOL    HW120016   8.276   6.218   0.054
 6059SOL    HW220017   8.160   6.123   0.069
 6060SOL     OW20018  11.402  13.680   7.578
 6060SOL    HW120019  11.432  13.591   7.598
 6060SOL    HW220020  11.425  13.731   7.656
 6061SOL     OW20021  10.246  12.049   4.322
 6061SOL    HW120022  10.301  12.041   4.244
 6061SOL    HW220023  10.241  12.143   4.338
 6062SOL     OW20024   0.303   1.720   7.209
 6062SOL    HW120025   0.288   1.633   7.245
 6062SOL    HW220026   0.356   1.705   7.131
 6063SOL     OW20027  13.607  13.285   4.069
 6063SOL    HW120028  13.681  13.273   4.128
 6063SOL    HW220029  13.533  13.248   4.116
 6064SOL     OW20030   1.439  11.155  10.749
 6064SOL    HW120031   1.514  11.208  10.775
 6064SOL    HW220032   1.396  11.207  10.681
 6065SOL     OW20033   6.656   2.042  13.183
 6065SOL    HW120034   6.560   2.038  13.178
 6065SOL    HW220035   6.674   2.093  13.262
 6066SOL     OW20036   0.382   4.609   5.250
 6066SOL    HW120037   0.399   4.661   5.172
 6066SOL    HW220038   0.465   4.609   5.298
 6067SOL     OW20039   6.714  13.404   5.660
 6067SOL    HW120040   6.623  13.427   5.642
 6067SOL    HW220041   6.715  13.383   5.753
 6068SOL     OW20042   5.300   7.521   1.404
 6068SOL    HW120043   5.368   7.529   1.471
 6068SOL    HW220044   5.320   7.439   1.359
 6069SOL     OW20045  10.161   4.495  10.532
 6069SOL    HW120046  10.140   4.588  10.528
 6069SOL    HW220047  10.221   4.486  10.606
 6070SOL     OW20048   0.544   7.952   4.030
 6070SOL    HW120049   0.529   7.882   3.967
 6070SOL    HW220050   0.639   7.962   4.033
 6071SOL     OW20051  13.575  10.189  14.757
 6071SOL    HW120052  13.542  10.194  14.667
 6071SOL    HW220053  13.498  10.206  14.812
 6072SOL     OW20054   1.943   1.355  14.585
 6072SOL    HW120055   2.010   1.301  14.542
 6072SOL    HW220056   1.898   1.399  14.512
 6073SOL     OW20057  11.553   0.404   5.309
 6073SOL    HW120058  11.488   0.345   5.271
 6073SOL    HW220059  11.539   0.398   5.403
 6074SOL     OW20060  10.232  12.171   3.148
 6074SOL    HW120061  10.162  12.181   3.212
 6074SOL    HW220062  10.254  12.078   3.150
 6075SOL     OW20063   7.391  12.546   0.197
 6075SOL    HW120064   7.471  12.494   0.201
 6075SOL    HW220065   7.418  12.634   0.222
 6076SOL     OW20066  11.848   0.862   3.809
 6076SOL    HW120067  11.858   0.957   3.806
 6076SOL    HW220068  11.786   0.847   3.881
 6077SOL     OW20069   1.936  12.076   2.589
 6077SOL    HW120070   1.964  12.108   2.503
 6077SOL    HW220071   2.012  12.028   2.622
 6078SOL     OW20072  12.820   1.591   1.782
 6078SOL    HW120073  12.886   1.522   1.772
 6078SOL    HW220074  12.817   1.633   1.696
 6079SOL     OW20075  11.308   4.631  12.956
 6079SOL    HW120076  11.292   4.553  13.010
 6079SOL    HW220077  11.403   4.643  12.959
 6080SOL     OW20078   2.443  12.579   2.676
 6080SOL    HW120079   2.530  12.602   2.642
 6080SOL    HW220080   2.422  12.649   2.737
 6081SOL     OW20081   6.890   6.151   0.074
 6081SOL    HW120082   6.806   6.190   0.101
 6081SOL    HW220083   6.885   6.060   0.103
 6082SOL     OW20084   3.818   2.128   2.035
 6082SOL    HW120085   3.816   2.068   2.109
 6082SOL    HW220086   3.735   2.112   1.989
 6083SOL     OW20087   8.319   9.892  12.145
 6083SOL    HW120088   8.379   9.866  12.215
 6083SOL    HW220089   8.366   9.869  12.065
 6084SOL     OW20090   6.937  14.874   7.563
 6084SOL    HW120091   6.857   0.043   7.590
 6084SOL    HW220092   6.930  14.788   7.604
 6085SOL     OW20093  14.360  10.494   6.255
 6085SOL    HW120094  14.317  10.578   6.271
 6085SOL    HW220095  14.440  10.497   6.308
 6086SOL     OW20096   3.982  11.887  14.308
 6086SOL    HW120097   4.037  11.956  14.270
 6086SOL    HW220098   3.998  11.811  14.252
 6087SOL     OW20099  11.567   3.477  10.599
 6087SOL    HW120100  11.623   3.428  10.659
 6087SOL    HW220101  11.553   3.561  10.642
 6088SOL     OW20102   0.884  11.625  14.236
 6088SOL    HW120103   0.961  11.659  14.281
 6088SOL    HW220104   0.824  11.599  14.306
 6089SOL     OW20105   8.310   2.140   5.425
 6089SOL    HW120106   8.378   2.116   5.489
 6089SOL    HW220107   8.237   2.081   5.444
 6090SOL     OW20108   5.589  11.132   5.494
 6090SOL    HW120109   5.514  11.091   5.452
 6090SOL    HW220110   5.622  11.194   5.429
 6091SOL     OW20111   5.746   3.825  14.646
 6091SOL    HW120112   5.678   3.887  14.619
 6091SOL    HW220113   5.796   3.873  14.713
 6092SOL     OW20114   4.759  10.457   7.308
 6092SOL    HW120115   4.747  10.507   7.388
 6092SOL    HW220116   4.854  10.447   7.299
 6093SOL     OW20117   3.345   8.478   9.524
 6093SOL    HW120118   3.256   8.497   9.555
 6093SOL    HW220119   3.338   8.392   9.482
 6094SOL     OW20120   8.954   3.316   6.969
 6094SOL    HW120121   8.875   3.366   6.947
 6094SOL    HW220122   8.976   3.271   6.887
 6095SOL     OW20123  10.032   0.481  11.068
 6095SOL    HW120124   9.940   0.481  11.041
 6095SOL    HW220125  10.044   0.397  11.113
 6096SOL     OW20126   0.010   5.226   4.498
 6096SOL    HW120127   0.072   5.155   4.481
 6096SOL    HW220128  14.808   5.182   4.530
 6097SOL     OW20129  10.698   1.549   5.185
 6097SOL    HW120130  10.666   1.602   5.112
 6097SOL    HW220131  10.638   1.475   5.189
 6098SOL     OW20132  14.037  12.084   0.232
 6098SOL    HW120133  13.952  12.044   0.215
 6098SOL    HW220134  14.027  12.175   0.204
 6099SOL     OW20135   9.756   1.736  10.965
 6099SOL    HW120136   9.663   1.753  10.955
 6099SOL    HW220137   9.772   1.745  11.059
 6100SOL     OW20138   3.928   3.587   5.982
 6100SOL    HW120139   3.952   3.520   5.919
 6100SOL    HW220140   4.008   3.603   6.033
 6101SOL     OW20141   1.508  10.182   3.077
 6101SOL    HW120142   1.594  10.150   3.049
 6101SOL    HW220143   1.493  10.260   3.024
 6102SOL     OW20144   0.481   5.714  13.404
 6102SOL    HW120145   0.395   5.672  13.413
 6102SOL    HW220146   0.472   5.797  13.451
 6103SOL     OW20147   1.869   5.767  13.320
 6103SOL    HW120148   1.812   5.838  13.349
 6103SOL    HW220149   1.818   5.721  13.253
 6104SOL     OW20150   2.173   8.587   1.020
 6104SOL    HW120151   2.156   8.591   0.926
 6104SOL    HW220152   2.253   8.535   1.027
 6105SOL     OW20153   6.595  11.889   1.669
 6105SOL    HW120154   6.509  11.916   1.702
 6105SOL    HW220155   6.648  11.875   1.747
 6106SOL     OW20156  13.062  13.447  13.442
 6106SOL    HW120157  13.036  13.488  13.359
 6106SOL    HW220158  12.980  13.426  13.486
 6107SOL     OW20159   6.029   1.748   2.304
 6107SOL    HW120160   5.948   1.796   2.324
 6107SOL    HW220161   6.000   1.672   2.253
 6108SOL     OW20162   5.436   7.457  11.392
 6108SOL    HW120163   5.422   7.423  11.304
 6108SOL    HW220164   5.484   7.388  11.437
 6109SOL     OW20165  10.096   7.780  11.891
 6109SOL    HW120166  10.004   7.796  11.868
 6109SOL    HW220167  10.117   7.851  11.952
 6110SOL     OW20168  14.630   0.001   4.401
 6110SOL    HW120169  14.648  14.828   4.321
 6110SOL    HW220170  14.667  14.824   4.471
 6111SOL     OW20171  12.386   0.672   5.800
 6111SOL    HW120172  12.402   0.611   5.872
 6111SOL    HW220173  12.317   0.631   5.747
 6112SOL     OW20174   8.684   0.461   8.668
 6112SOL    HW120175   8.755   0.522   8.650
 6112SOL    HW220176   8.620   0.512   8.718
 6113SOL     OW20177   8.349   3.517   5.811
 6113SOL    HW120178   8.296   3.449   5.852
 6113SOL    HW220179   8.363   3.581   5.881
 6114SOL     OW20180   5.238  10.295   3.655
 6114SOL    HW120181   5.158  10.343   3.636
 6114SOL    HW220182   5.213  10.203   3.645
 6115SOL     OW20183   7.738  13.615   5.914
 6115SOL    HW120184   7.734  13.520   5.921
 6115SOL    HW220185   7.657  13.639   5.868
 6116SOL     OW20186  12.484   6.783  11.504
 6116SOL    HW120187  12.576   6.764  11.520
 6116SOL    HW220188  12.483   6.874  11.474
 6117SOL     OW20189  13.840   7.869   7.178
 6117SOL    HW120190  13.795   7.829   7.253
 6117SOL    HW220191  13.932   7.866   7.201
 6118SOL     OW20192   5.888   2.787   6.924
 6118SOL    HW120193   5.919   2.843   6.995
 6118SOL    HW220194   5.906   2.698   6.953
 6119SOL     OW20195   9.262   8.765   0.728
 6119SOL    HW120196   9.170   8.784   0.747
 6119SOL    HW220197   9.298   8.737   0.811
 6120SOL     OW20198   8.818   2.650   6.275
 6120SOL    HW120199   8.738   2.650   6.327
 6120SOL    HW220200   8.886   2.681   6.336
 6121SOL     OW20201   8.472   2.253   6.755
 6121SOL    HW120202   8.472   2.170   6.802
 6121SOL    HW220203   8.381   2.269   6.734
 6122SOL     OW20204   9.489   9.490   2.353
 6122SOL    HW120205   9.543   9.444   2.289
 6122SOL    HW220206   9.465   9.422   2.417
 6123SOL     OW20207  14.493   7.517   4.079
 6123SOL    HW120208  14.540   7.552   4.154
 6123SOL    HW220209  14.412   7.567   4.075
 6124SOL     OW20210   9.026  14.733   7.062
 6124SOL    HW120211   9.059  14.816   7.028
 6124SOL    HW220212   9.019  14.747   7.157
 6125SOL     OW20213   4.824   2.036   4.445
 6125SOL    HW120214   4.799   2.095   4.516
 6125SOL    HW220215   4.747   2.030   4.390
 6126SOL     OW20216   6.183   2.988   5.812
 6126SOL    HW120217   6.250   3.044   5.851
 6126SOL    HW220218   6.229   2.907   5.791
 6127SOL     OW20219   8.593  14.400   6.505
 6127SOL    HW120220   8.536  14.459   6.555
 6127SOL    HW220221   8.677  14.402   6.551
 6128SOL     OW20222   3.436   8.403   5.909
 6128SOL    HW120223   3.515   8.350   5.912
 6128SOL    HW220224   3.385   8.374   5.984
 6129SOL     OW20225  10.052   6.315   2.009
 6129SOL    HW120226  10.084   6.325   2.099
 6129SOL    HW220227   9.984   6.248   2.014
 6130SOL     OW20228  14.216   6.494   0.387
 6130SOL    HW120229  14.222   6.557   0.459
 6130SOL    HW220230  14.297   6.507   0.338
 6131SOL     OW20231   3.779  14.632  12.902
 6131SOL    HW120232   3.837  14.558  12.919
 6131SOL    HW220233   3.834  14.697  12.859
 6132SOL     OW20234   1.445  11.317   0.031
 6132SOL    HW120235   1.514  11.254   0.051
 6132SOL    HW220236   1.366  11.263   0.024
 6133SOL     OW20237   9.591   8.609   0.699
 6133SOL    HW120238   9.543   8.637   0.620
 6133SOL    HW220239   9.681   8.639   0.683
 6134SOL     OW20240   7.096   0.622   0.010
 6134SOL    HW120241   7.132   0.609   0.097
 6134SOL    HW220242   7.022   0.562   0.005
 6135SOL     OW20243  11.038   7.444   1.302
 6135SOL    HW120244  11.128   7.471   1.286
 6135SOL    HW220245  11.021   7.471   1.393
 6136SOL     OW20246   2.721   1.595   1.464
 6136SOL    HW120247   2.707   1.613   1.556
 6136SOL    HW220248   2.816   1.604   1.452
 6137SOL     OW20249   0.867   7.970   3.119
 6137SOL    HW120250   0.878   8.065   3.120
 6137SOL    HW220251   0.848   7.950   3.028
 6138SOL     OW20252   1.561   2.752   3.020
 6138SOL    HW120253   1.489   2.722   3.075
 6138SOL    HW220254   1.618   2.675   3.012
 6139SOL     OW20255   5.865   0.108   5.160
 6139SOL    HW120256   5.815   0.114   5.079
 6139SOL    HW220257   5.832   0.029   5.203
 6140SOL     OW20258  13.127  12.872  10.354
 6140SOL    HW120259  13.098  12.956  10.318
 6140SOL    HW220260  13.068  12.808  10.314
 6141SOL     OW20261  14.229   1.392   8.278
 6141SOL    HW120262  14.254   1.421   8.190
 6141SOL    HW220263  14.298   1.426   8.335
 6142SOL     OW20264   2.338   8.968   9.203
 6142SOL    HW120265   2.421   8.930   9.173
 6142SOL    HW220266   2.326   8.933   9.291
 6143SOL     OW20267   5.846   0.845  12.721
 6143SOL    HW120268   5.797   0.767  12.749
 6143SOL    HW220269   5.830   0.910  12.789
 6144SOL     OW20270  13.827  12.219  14.134
 6144SOL    HW120271  13.734  12.198  14.140
 6144SOL    HW220272  13.863  12.194  14.219
 6145SOL     OW20273  11.384  13.653   9.493
 6145SOL    HW120274  11.299  13.663   9.451
 6145SOL    HW220275  11.371  13.583   9.557
 6146SOL     OW20276   8.294   8.369  10.467
 6146SOL    HW120277   8.341   8.308  10.524
 6146SOL    HW220278   8.330   8.353  10.380
 6147SOL     OW20279   7.086   2.137   4.276
 6147SOL    HW120280   7.095   2.119   4.183
 6147SOL    HW220281   7.041   2.060   4.312
 6148SOL     OW20282   5.438  13.133  10.592
 6148SOL    HW120283   5.485  13.211  10.622
 6148SOL    HW220284   5.402  13.158  10.507
 6149SOL     OW20285   9.740  14.460   7.585
 6149SOL    HW120286   9.787  14.517   7.525
 6149SOL    HW220287   9.804  14.437   7.653
 6150SOL     OW20288  14.247   2.430   1.277
 6150SOL    HW120289  14.251   2.463   1.367
 6150SOL    HW220290  14.270   2.337   1.285
 6151SOL     OW20291   3.704   2.955  13.162
 6151SOL    HW120292   3.674   3.029  13.215
 6151SOL    HW220293   3.756   2.995  13.092
 6152SOL     OW20294   9.249   1.482   4.364
 6152SOL    HW120295   9.234   1.576   4.371
 6152SOL    HW220296   9.343   1.472   4.375
 6153SOL     OW20297   2.132   6.666  13.054
 6153SOL    HW120298   2.111   6.612  13.129
 6153SOL    HW220299   2.075   6.634  12.984
 6154SOL     OW20300   9.405   5.263   9.559
 6154SOL    HW120301   9.365   5.338   9.516
 6154SOL    HW220302   9.372   5.267   9.649
 6155SOL     OW20303  12.728  10.346   6.702
 6155SOL    HW120304  12.670  10.271   6.692
 6155SOL    HW220305  12.786  10.342   6.626
 6156SOL     OW20306  11.362   0.089   9.010
 6156SOL    HW120307  11.453   0.114   8.994
 6156SOL    HW220308  11.321   0.094   8.924
 6157SOL     OW20309   4.459   3.365   1.246
 6157SOL    HW120310   4.472   3.436   1.182
 6157SOL    HW220311   4.365   3.366   1.264
 6158SOL     OW20312   9.159   0.125  10.227
 6158SOL    HW120313   9.230   0.143  10.165
 6158SOL    HW220314   9.094   0.077  10.175
 6159SOL     OW20315   6.513  10.154   8.592
 6159SOL    HW120316   6.555  10.214   8.531
 6159SOL    HW220317   6.582  10.093   8.617
 6160SOL     OW20318   9.660  11.252   0.774
 6160SOL    HW120319   9.703  11.267   0.858
 6160SOL    HW220320   9.585  11.196   0.795
 6161SOL     OW20321  12.586   2.447  14.040
 6161SOL    HW120322  12.575   2.497  13.959
 6161SOL    HW220323  12.511   2.388  14.043
 6162SOL     OW20324   0.556   1.150  13.734
 6162SOL    HW120325   0.538   1.088  13.664
 6162SOL    HW220326   0.645   1.182  13.716
 6163SOL     OW20327  13.157   5.946  11.839
 6163SOL    HW120328  13.151   5.868  11.784
 6163SOL    HW220329  13.121   6.016  11.784
 6164SOL     OW20330   3.989  14.568   0.265
 6164SOL    HW120331   4.067  14.618   0.291
 6164SOL    HW220332   3.945  14.624   0.202
 6165SOL     OW20333   3.546   5.251  12.865
 6165SOL    HW120334   3.535   5.179  12.927
 6165SOL    HW220335   3.465   5.302  12.873
 6166SOL     OW20336   1.552  11.586  12.453
 6166SOL    HW120337   1.564  11.663  12.398
 6166SOL    HW220338   1.627  11.586  12.512
 6167SOL     OW20339   5.636   7.432   1.608
 6167SOL    HW120340   5.629   7.483   1.526
 6167SOL    HW220341   5.591   7.486   1.673
 6168SOL     OW20342   4.188   4.130   6.225
 6168SOL    HW120343   4.147   4.216   6.217
 6168SOL    HW220344   4.160   4.098   6.311
 6169SOL     OW20345   8.780   1.975   6.547
 6169SOL    HW120346   8.689   1.974   6.577
 6169SOL    HW220347   8.774   1.946   6.455
 6170SOL     OW20348  13.758   6.520   7.367
 6170SOL    HW120349  13.740   6.431   7.397
 6170SOL    HW220350  13.849   6.535   7.389
 6171SOL     OW20351   0.719  13.490   2.672
 6171SOL    HW120352   0.758  13.486   2.585
 6171SOL    HW220353   0.793  13.485   2.732
 6172SOL     OW20354   0.919   2.098   8.420
 6172SOL    HW120355   0.854   2.032   8.394
 6172SOL    HW220356   0.994   2.047   8.452
 6173SOL     OW20357   7.406   4.581   7.846
 6173SOL    HW120358   7.453   4.574   7.763
 6173SOL    HW220359   7.347   4.505   7.846
 6174SOL     OW20360   8.700   3.124   5.988
 6174SOL    HW120361   8.657   3.062   6.046
 6174SOL    HW220362   8.629   3.162   5.936
 6175SOL     OW20363   5.276  14.318   1.149
 6175SOL    HW120364   5.263  14.253   1.079
 6175SOL    HW220365   5.219  14.287   1.220
 6176SOL     OW20366   5.431   8.417   6.392
 6176SOL    HW120367   5.470   8.329   6.398
 6176SOL    HW220368   5.496   8.468   6.342
 6177SOL     OW20369   1.835  12.817   5.931
 6177SOL    HW120370   1.758  12.871   5.944
 6177SOL    HW220371   1.882  12.859   5.858
 6178SOL     OW20372   5.045   6.712  13.646
 6178SOL    HW120373   5.073   6.801  13.669
 6178SOL    HW220374   4.968   6.725  13.590
 6179SOL     OW20375  11.340  10.798   8.323
 6179SOL    HW120376  11.288  10.769   8.248
 6179SOL    HW220377  11.278  10.846   8.378
 6180SOL     OW20378  12.514   8.156   4.854
 6180SOL    HW120379  12.588   8.196   4.899
 6180SOL    HW220380  12.440   8.166   4.913
 6181SOL     OW20381  11.266  13.232   9.312
 6181SOL    HW120382  11.255  13.327   9.320
 6181SOL    HW220383  11.268  13.216   9.218
 6182SOL     OW20384   3.509   7.830  12.434
 6182SOL    HW120385   3.481   7.903  12.488
 6182SOL    HW220386   3.598   7.854  12.406
 6183SOL     OW20387   0.682   0.854  13.860
 6183SOL    HW120388   0.682   0.865  13.955
 6183SOL    HW220389   0.591   0.869  13.833
 6184SOL     OW20390   2.958  10.609  10.054
 6184SOL    HW120391   3.030  10.667  10.079
 6184SOL    HW220392   2.984  10.575   9.968
 6185SOL     OW20393   7.241  10.231   4.926
 6185SOL    HW120394   7.161  10.259   4.880
 6185SOL    HW220395   7.222  10.247   5.019
 6186SOL     OW20396   7.211   6.659   1.288
 6186SOL    HW120397   7.202   6.735   1.231
 6186SOL    HW220398   7.153   6.593   1.249
 6187SOL     OW20399  10.312   8.560  10.362
 6187SOL    HW120400  10.217   8.550  10.376
 6187SOL    HW220401  10.327   8.654  10.371
 6188SOL     OW20402  14.049   3.865  12.150
 6188SOL    HW120403  14.034   3.782  12.105
 6188SOL    HW220404  14.000   3.858  12.232
 6189SOL     OW20405   2.464   3.713  10.777
 6189SOL    HW120406   2.508   3.769  10.840
 6189SOL    HW220407   2.395   3.768  10.739
 6190SOL     OW20408  10.503   3.819  14.178
 6190SOL    HW120409  10.471   3.732  14.152
 6190SOL    HW220410  10.495   3.820  14.274
 6191SOL     OW20411   9.170   4.125   9.663
 6191SOL    HW120412   9.137   4.181   9.733
 6191SOL    HW220413   9.190   4.185   9.591
 6192SOL     OW20414   3.578  10.159   9.366
 6192SOL    HW120415   3.672  10.150   9.352
 6192SOL    HW220416   3.552  10.233   9.311
 6193SOL     OW20417  10.734  10.087   6.775
 6193SOL    HW120418  10.663  10.036   6.736
 6193SOL    HW220419  10.695  10.174   6.787
 6194SOL     OW20420  12.523   4.695   9.865
 6194SOL    HW120421  12.552   4.778   9.904
 6194SOL    HW220422  12.589   4.676   9.798
 6195SOL     OW20423  10.932   5.819   0.373
 6195SOL    HW120424  10.850   5.858   0.405
 6195SOL    HW220425  10.913   5.726   0.366
 6196SOL     OW20426   3.803  14.663   6.967
 6196SOL    HW120427   3.857  14.723   7.019
 6196SOL    HW220428   3.860  14.588   6.951
 6197SOL     OW20429  11.650  12.808  11.339
 6197SOL    HW120430  11.558  12.834  11.330
 6197SOL    HW220431  11.653  12.757  11.421
 6198SOL     OW20432   0.879   6.033   3.995
 6198SOL    HW120433   0.846   6.123   3.992
 6198SOL    HW220434   0.928   6.028   4.078
 6199SOL     OW20435   7.381   6.255   0.521
 6199SOL    HW120436   7.365   6.343   0.486
 6199SOL    HW220437   7.458   6.224   0.473
 6200SOL     OW20438   1.779   6.249   5.055
 6200SOL    HW120439   1.782   6.154   5.064
 6200SOL    HW220440   1.799   6.282   5.143
 6201SOL     OW20441  13.915   4.025   3.154
 6201SOL    HW120442  13.875   4.019   3.241
 6201SOL    HW220443  14.000   4.067   3.170
 6202SOL     OW20444  10.274   1.584  13.660
 6202SOL    HW120445  10.335   1.653  13.635
 6202SOL    HW220446  10.227   1.563  13.579
 6203SOL     OW20447  14.285  11.312  13.951
 6203SOL    HW120448  14.353  11.252  13.981
 6203SOL    HW220449  14.333  11.384  13.910
 6204SOL     OW20450  10.092   3.131   5.331
 6204SOL    HW120451  10.164   3.168   5.281
 6204SOL    HW220452  10.045   3.076   5.268
 6205SOL     OW20453   7.831   1.106   0.802
 6205SOL    HW120454   7.907   1.152   0.767
 6205SOL    HW220455   7.868   1.031   0.848
 6206SOL     OW20456   1.275   2.913  13.003
 6206SOL    HW120457   1.238   2.875  12.923
 6206SOL    HW220458   1.292   3.004  12.981
 6207SOL     OW20459   5.966   3.904   1.103
 6207SOL    HW120460   5.885   3.869   1.068
 6207SOL    HW220461   6.025   3.908   1.028
 6208SOL     OW20462   0.385  13.882   6.705
 6208SOL    HW120463   0.401  13.790   6.684
 6208SOL    HW220464   0.366  13.923   6.621
 6209SOL     OW20465   9.716   1.038   3.940
 6209SOL    HW120466   9.757   0.977   3.878
 6209SOL    HW220467   9.627   1.050   3.906
 6210SOL     OW20468   8.499  13.702   9.005
 6210SOL    HW120469   8.404  13.703   8.993
 6210SOL    HW220470   8.524  13.795   9.001
 6211SOL     OW20471   8.430   4.975   3.170
 6211SOL    HW120472   8.454   4.904   3.111
 6211SOL    HW220473   8.394   4.931   3.247
 6212SOL     OW20474  13.512  11.500   4.237
 6212SOL    HW120475  13.549  11.442   4.303
 6212SOL    HW220476  13.483  11.577   4.286
 6213SOL     OW20477   1.055  14.492  12.785
 6213SOL    HW120478   1.015  14.511  12.870
 6213SOL    HW220479   0.987  14.445  12.737
 6214SOL     OW20480   1.032   5.366   2.426
 6214SOL    HW120481   1.111   5.313   2.424
 6214SOL    HW220482   0.988   5.341   2.507
 6215SOL     OW20483   8.889   6.785   9.521
 6215SOL    HW120484   8.907   6.865   9.571
 6215SOL    HW220485   8.800   6.799   9.487
 6216SOL     OW20486  10.489  11.382   6.852
 6216SOL    HW120487  10.471  11.317   6.920
 6216SOL    HW220488  10.461  11.465   6.891
 6217SOL     OW20489  14.196   7.001   6.400
 6217SOL    HW120490  14.254   7.064   6.441
 6217SOL    HW220491  14.226   6.916   6.433
 6218SOL     OW20492   1.926   8.952   8.321
 6218SOL    HW120493   1.926   9.008   8.243
 6218SOL    HW220494   1.981   8.878   8.296
 6219SOL     OW20495   6.579   8.755   1.450
 6219SOL    HW120496   6.640   8.713   1.511
 6219SOL    HW220497   6.532   8.682   1.410
 6220SOL     OW20498   0.162  10.126  13.158
 6220SOL    HW120499   0.185  10.150  13.248
 6220SOL    HW220500   0.243  10.088  13.122
 6221SOL     OW20501  13.763   6.168   5.148
 6221SOL    HW120502  13.711   6.207   5.077
 6221SOL    HW220503  13.706   6.172   5.224
 6222SOL     OW20504   7.422   5.810  14.090
 6222SOL    HW120505   7.465   5.834  14.172
 6222SOL    HW220506   7.440   5.884  14.031
 6223SOL     OW20507   4.172   1.081   7.379
 6223SOL    HW120508   4.116   1.110   7.308
 6223SOL    HW220509   4.125   1.008   7.419
 6224SOL     OW20510   4.857   8.323   0.286
 6224SOL    HW120511   4.841   8.264   0.360
 6224SOL    HW220512   4.880   8.407   0.326
 6225SOL     OW20513   1.853  10.407  13.631
 6225SOL    HW120514   1.947  10.421  13.625
 6225SOL    HW220515   1.844  10.336  13.695
 6226SOL     OW20516  13.688   6.067   6.522
 6226SOL    HW120517  13.711   6.090   6.432
 6226SOL    HW220518  13.689   6.150   6.569
 6227SOL     OW20519  10.046   5.223   3.268
 6227SOL    HW120520  10.088   5.192   3.348
 6227SOL    HW220521  10.078   5.164   3.200
 6228SOL     OW20522   1.436   5.007   1.670
 6228SOL    HW120523   1.421   5.058   1.590
 6228SOL    HW220524   1.505   4.946   1.646
 6229SOL     OW20525   0.187   1.682   2.502
 6229SOL    HW120526   0.252   1.653   2.566
 6229SOL    HW220527   0.234   1.686   2.419
 6230SOL     OW20528   2.045   4.847   3.269
 6230SOL    HW120529   2.057   4.937   3.300
 6230SOL    HW220530   2.007   4.801   3.344
 6231SOL     OW20531   4.528   7.984  12.072
 6231SOL    HW120532   4.505   7.907  12.021
 6231SOL    HW220533   4.606   8.019  12.029
 6232SOL     OW20534   8.553   0.757   6.059
 6232SOL    HW120535   8.644   0.758   6.089
 6232SOL    HW220536   8.537   0.667   6.032
 6233SOL     OW20537   1.219   0.346   0.735
 6233SOL    HW120538   1.273   0.276   0.772
 6233SOL    HW220539   1.240   0.346   0.642
 6234SOL     OW20540   1.951  13.460  11.227
 6234SOL    HW120541   1.980  13.378  11.187
 6234SOL    HW220542   1.947  13.441  11.320
 6235SOL     OW20543   1.450   2.618   7.314
 6235SOL    HW120544   1.426   2.702   7.355
 6235SOL    HW220545   1.546   2.622   7.308
 6236SOL     OW20546   8.487  14.837  10.151
 6236SOL    HW120547   8.478   0.043  10.104
 6236SOL    HW220548   8.468  14.770  10.086
 6237SOL     OW20549  13.181  12.359   8.007
 6237SOL    HW120550  13.166  12.410   8.086
 6237SOL    HW220551  13.275  12.364   7.992
 6238SOL     OW20552  11.915   7.356  11.500
 6238SOL    HW120553  11.836   7.361  11.446
 6238SOL    HW220554  11.963   7.280  11.466
 6239SOL     OW20555   5.520   9.730   0.682
 6239SOL    HW120556   5.488   9.726   0.592
 6239SOL    HW220557   5.463   9.793   0.726
 6240SOL     OW20558  12.089   0.470  10.165
 6240SOL    HW120559  12.093   0.545  10.225
 6240SOL    HW220560  12.140   0.497  10.088
 6241SOL     OW20561  13.019   4.736   1.265
 6241SOL    HW120562  13.077   4.689   1.325
 6241SOL    HW220563  13.016   4.825   1.299
 6242SOL     OW20564   7.785   7.889   7.396
 6242SOL    HW120565   7.799   7.801   7.431
 6242SOL    HW220566   7.872   7.930   7.400
 6243SOL     OW20567   3.291   6.097   4.069
 6243SOL    HW120568   3.361   6.127   4.011
 6243SOL    HW220569   3.210   6.128   4.028
 6244SOL     OW20570  11.296   2.455   5.696
 6244SOL    HW120571  11.313   2.460   5.602
 6244SOL    HW220572  11.380   2.432   5.735
 6245SOL     OW20573  10.100   3.876   4.482
 6245SOL    HW120574  10.006   3.885   4.499
 6245SOL    HW220575  10.112   3.784   4.458
 6246SOL     OW20576   8.891  10.279  11.912
 6246SOL    HW120577   8.940  10.230  11.846
 6246SOL    HW220578   8.804  10.241  11.912
 6247SOL     OW20579  14.267   3.502   6.811
 6247SOL    HW120580  14.285   3.569   6.876
 6247SOL    HW220581  14.332   3.433   6.829
 6248SOL     OW20582   1.621   2.246   9.351
 6248SOL    HW120583   1.615   2.312   9.281
 6248SOL    HW220584   1.650   2.295   9.428
 6249SOL     OW20585  13.772  11.840  11.618
 6249SOL    HW120586  13.697  11.838  11.676
 6249SOL    HW220587  13.844  11.806  11.670
 6250SOL     OW20588  13.717  10.800   4.871
 6250SOL    HW120589  13.642  10.741   4.868
 6250SOL    HW220590  13.770  10.775   4.795
 6251SOL     OW20591   6.333  11.721   3.808
 6251SOL    HW120592   6.414  11.735   3.858
 6251SOL    HW220593   6.361  11.725   3.716
 6252SOL     OW20594   8.325  12.016  13.521
 6252SOL    HW120595   8.386  11.960  13.473
 6252SOL    HW220596   8.376  12.093  13.544
 6253SOL     OW20597   8.440  10.485   1.340
 6253SOL    HW120598   8.446  10.402   1.388
 6253SOL    HW220599   8.347  10.493   1.317
 6254SOL     OW20600   6.255   9.717   0.002
 6254SOL    HW120601   6.299   9.750  14.800
 6254SOL    HW220602   6.313   9.742   0.074
 6255SOL     OW20603   3.767   8.184  12.485
 6255SOL    HW120604   3.781   8.270  12.446
 6255SOL    HW220605   3.808   8.123  12.425
 6256SOL     OW20606   1.823  13.863   8.855
 6256SOL    HW120607   1.768  13.818   8.919
 6256SOL    HW220608   1.799  13.824   8.771
 6257SOL     OW20609   3.742   1.468   7.770
 6257SOL    HW120610   3.653   1.501   7.759
 6257SOL    HW220611   3.756   1.410   7.695
 6258SOL     OW20612   9.740   6.219   6.405
 6258SOL    HW120613   9.802   6.166   6.354
 6258SOL    HW220614   9.708   6.160   6.473
 6259SOL     OW20615  14.267   1.068  11.761
 6259SOL    HW120616  14.266   1.108  11.848
 6259SOL    HW220617  14.341   1.007  11.764
 6260SOL     OW20618  14.753   1.465   5.119
 6260SOL    HW120619  14.689   1.400   5.089
 6260SOL    HW220620  14.760   1.449   5.213
 6261SOL     OW20621  11.213  10.337   0.882
 6261SOL    HW120622  11.281  10.328   0.815
 6261SOL    HW220623  11.162  10.413   0.854
 6262SOL     OW20624   3.884  13.851   8.436
 6262SOL    HW120625   3.860  13.914   8.504
 6262SOL    HW220626   3.942  13.789   8.479
 6263SOL     OW20627   0.235   0.611  10.488
 6263SOL    HW120628   0.286   0.549  10.541
 6263SOL    HW220629   0.300   0.657  10.435
 6264SOL     OW20630  14.452   6.813   8.082
 6264SOL    HW120631  14.433   6.720   8.094
 6264SOL    HW220632  14.437   6.852   8.168
 6265SOL     OW20633  14.225  11.234  12.421
 6265SOL    HW120634  14.189  11.225  12.509
 6265SOL    HW220635  14.317  11.258  12.435
 6266SOL     OW20636   9.286  10.218   0.635
 6266SOL    HW120637   9.306  10.309   0.656
 6266SOL    HW220638   9.199  10.203   0.672
 6267SOL     OW20639  12.563   7.066  13.458
 6267SOL    HW120640  12.592   7.042  13.546
 6267SOL    HW220641  12.474   7.099  13.471
 6268SOL     OW20642   6.539  12.924   1.361
 6268SOL    HW120643   6.545  12.987   1.289
 6268SOL    HW220644   6.477  12.964   1.422
 6269SOL     OW20645   3.573   1.616  14.026
 6269SOL    HW120646   3.495   1.562  14.014
 6269SOL    HW220647   3.563   1.653  14.114
 6270SOL     OW20648  10.605   5.564   8.840
 6270SOL    HW120649  10.547   5.508   8.893
 6270SOL    HW220650  10.683   5.510   8.826
 6271SOL     OW20651   7.597   1.205   3.343
 6271SOL    HW120652   7.528   1.271   3.346
 6271SOL    HW220653   7.561   1.130   3.390
 6272SOL     OW20654   3.946   0.822   8.625
 6272SOL    HW120655   3.963   0.757   8.557
 6272SOL    HW220656   3.868   0.790   8.671
 6273SOL     OW20657   8.336  10.694   6.006
 6273SOL    HW120658   8.282  10.721   6.080
 6273SOL    HW220659   8.294  10.615   5.974
 6274SOL     OW20660  10.524   7.759  10.112
 6274SOL    HW120661  10.449   7.733  10.059
 6274SOL    HW220662  10.497   7.739  10.202
 6275SOL     OW20663   0.513   0.113  12.756
 6275SOL    HW120664   0.523   0.098  12.662
 6275SOL    HW220665   0.473   0.032  12.790
 6276SOL     OW20666   2.030   0.635  13.589
 6276SOL    HW120667   2.023   0.580  13.667
 6276SOL    HW220668   2.099   0.593  13.537
 6277SOL     OW20669  12.712   6.730   2.197
 6277SOL    HW120670  12.802   6.732   2.163
 6277SOL    HW220671  12.691   6.637   2.205
 6278SOL     OW20672   7.017   8.069   4.281
 6278SOL    HW120673   6.949   8.048   4.346
 6278SOL    HW220674   7.073   7.992   4.280
 6279SOL     OW20675  14.632   7.070  14.655
 6279SOL    HW120676  14.558   7.046  14.599
 6279SOL    HW220677  14.684   6.990  14.662
 6280SOL     OW20678   8.671  13.782   4.974
 6280SOL    HW120679   8.629  13.702   5.006
 6280SOL    HW220680   8.744  13.752   4.920
 6281SOL     OW20681   1.433   0.178  11.691
 6281SOL    HW120682   1.519   0.202  11.657
 6281SOL    HW220683   1.400   0.112  11.629
 6282SOL     OW20684   4.785   0.561  13.308
 6282SOL    HW120685   4.868   0.570  13.355
 6282SOL    HW220686   4.787   0.631  13.243
 6283SOL     OW20687  14.126  10.919   9.254
 6283SOL    HW120688  14.095  10.851   9.314
 6283SOL    HW220689  14.054  10.932   9.193
 6284SOL     OW20690   6.825  10.313   8.128
 6284SOL    HW120691   6.902  10.260   8.106
 6284SOL    HW220692   6.830  10.388   8.069
 6285SOL     OW20693   7.402   1.248   9.283
 6285SOL    HW120694   7.464   1.176   9.296
 6285SOL    HW220695   7.358   1.226   9.201
 6286SOL     OW20696  13.528   6.991   3.062
 6286SOL    HW120697  13.572   7.075   3.073
 6286SOL    HW220698  13.592   6.926   3.092
 6287SOL     OW20699  13.390  12.344   3.470
 6287SOL    HW120700  13.427  12.419   3.422
 6287SOL    HW220701  13.350  12.384   3.547
 6288SOL     OW20702   5.987   2.872   6.138
 6288SOL    HW120703   6.068   2.892   6.185
 6288SOL    HW220704   5.937   2.817   6.199
 6289SOL     OW20705  13.131   3.267  14.654
 6289SOL    HW120706  13.060   3.329  14.670
 6289SOL    HW220707  13.107   3.189  14.705
 6290SOL     OW20708  11.924   8.071   3.054
 6290SOL    HW120709  11.894   8.069   2.963
 6290SOL    HW220710  11.980   8.149   3.058
 6291SOL     OW20711   3.646   7.998  14.407
 6291SOL    HW120712   3.631   7.974  14.498
 6291SOL    HW220713   3.704   7.929  14.373
 6292SOL     OW20714  14.184  12.417   5.780
 6292SOL    HW120715  14.149  12.499   5.746
 6292SOL    HW220716  14.147  12.349   5.723
 6293SOL     OW20717  10.423   2.786   3.914
 6293SOL    HW120718  10.485   2.752   3.978
 6293SOL    HW220719  10.475   2.844   3.858
 6294SOL     OW20720  12.788   5.598   1.799
 6294SOL    HW120721  12.753   5.552   1.874
 6294SOL    HW220722  12.726   5.580   1.728
 6295SOL     OW20723   1.710   8.931   1.727
 6295SOL    HW120724   1.726   8.845   1.766
 6295SOL    HW220725   1.782   8.985   1.758
 6296SOL     OW20726   2.643   9.478  10.575
 6296SOL    HW120727   2.581   9.408  10.599
 6296SOL    HW220728   2.710   9.475  10.643
 6297SOL     OW20729   0.381   0.841   7.623
 6297SOL    HW120730   0.401   0.914   7.682
 6297SOL    HW220731   0.362   0.767   7.680
 6298SOL     OW20732   2.136   3.618   2.935
 6298SOL    HW120733   2.123   3.573   3.018
 6298SOL    HW220734   2.146   3.710   2.958
 6299SOL     OW20735  10.622   5.011   0.645
 6299SOL    HW120736  10.551   4.953   0.672
 6299SOL    HW220737  10.597   5.097   0.679
 6300SOL     OW20738   1.308   7.229  13.483
 6300SOL    HW120739   1.391   7.244  13.528
 6300SOL    HW220740   1.307   7.134  13.468
 6301SOL     OW20741   3.445  14.537   7.790
 6301SOL    HW120742   3.445  14.589   7.709
 6301SOL    HW220743   3.458  14.600   7.860
 6302SOL     OW20744   1.001   2.753  10.368
 6302SOL    HW120745   1.042   2.839  10.372
 6302SOL    HW220746   0.999   2.723  10.458
 6303SOL     OW20747  10.828   7.629   0.367
 6303SOL    HW120748  10.824   7.653   0.275
 6303SOL    HW220749  10.881   7.697   0.408
 6304SOL     OW20750   1.203   4.332   4.925
 6304SOL    HW120751   1.232   4.242   4.937
 6304SOL    HW220752   1.227   4.376   5.007
 6305SOL     OW20753  12.147  14.656   3.351
 6305SOL    HW120754  12.056  14.666   3.380
 6305SOL    HW220755  12.159  14.561   3.343
 6306SOL     OW20756  11.965   2.705   5.790
 6306SOL    HW120757  11.997   2.702   5.880
 6306SOL    HW220758  12.044   2.699   5.736
 6307SOL     OW20759   9.451   8.222  10.034
 6307SOL    HW120760   9.504   8.192  10.108
 6307SOL    HW220761   9.479   8.167   9.960
 6308SOL     OW20762   1.257   8.634   8.380
 6308SOL    HW120763   1.218   8.700   8.323
 6308SOL    HW220764   1.350   8.636   8.360
 6309SOL     OW20765   3.609   5.933   8.103
 6309SOL    HW120766   3.697   5.937   8.066
 6309SOL    HW220767   3.557   5.889   8.035
 6310SOL     OW20768  10.568   7.214  11.502
 6310SOL    HW120769  10.662   7.226  11.519
 6310SOL    HW220770  10.536   7.302  11.483
 6311SOL     OW20771  10.710  14.174   5.729
 6311SOL    HW120772  10.656  14.219   5.795
 6311SOL    HW220773  10.712  14.083   5.758
 6312SOL     OW20774   2.258   0.853  10.167
 6312SOL    HW120775   2.348   0.825  10.150
 6312SOL    HW220776   2.265   0.945  10.189
 6313SOL     OW20777  14.372  12.356   9.101
 6313SOL    HW120778  14.410  12.353   9.189
 6313SOL    HW220779  14.444  12.334   9.042
 6314SOL     OW20780  11.350   8.145   8.638
 6314SOL    HW120781  11.416   8.077   8.624
 6314SOL    HW220782  11.307   8.154   8.553
 6315SOL     OW20783  13.579   3.774  13.016
 6315SOL    HW120784  13.602   3.866  13.027
 6315SOL    HW220785  13.651   3.737  12.965
 6316SOL     OW20786  11.804   2.177   9.691
 6316SOL    HW120787  11.748   2.220   9.627
 6316SOL    HW220788  11.807   2.086   9.663
 6317SOL     OW20789   3.102  14.413   0.125
 6317SOL    HW120790   3.178  14.415   0.184
 6317SOL    HW220791   3.033  14.460   0.173
 6318SOL     OW20792   9.369   1.813   0.119
 6318SOL    HW120793   9.414   1.897   0.106
 6318SOL    HW220794   9.276   1.835   0.123
 6319SOL     OW20795  10.849   7.758   2.388
 6319SOL    HW120796  10.916   7.763   2.320
 6319SOL    HW220797  10.885   7.696   2.452
 6320SOL     OW20798   2.427  14.069   9.497
 6320SOL    HW120799   2.435  14.065   9.402
 6320SOL    HW220800   2.339  14.101   9.513
 6321SOL     OW20801   9.850   4.080  14.828
 6321SOL    HW120802   9.770   4.118  14.865
 6321SOL    HW220803   9.832   3.986  14.824
 6322SOL     OW20804  12.603   7.413   6.268
 6322SOL    HW120805  12.580   7.321   6.280
 6322SOL    HW220806  12.697   7.417   6.286
 6323SOL     OW20807   4.910  11.391  13.229
 6323SOL    HW120808   4.848  11.431  13.290
 6323SOL    HW220809   4.994  11.432  13.250
 6324SOL     OW20810   9.292   3.408   9.156
 6324SOL    HW120811   9.201   3.435   9.164
 6324SOL    HW220812   9.294   3.318   9.189
 6325SOL     OW20813   6.306   9.370   8.101
 6325SOL    HW120814   6.228   9.398   8.053
 6325SOL    HW220815   6.316   9.277   8.078
 6326SOL     OW20816   9.352   7.651   0.326
 6326SOL    HW120817   9.302   7.629   0.247
 6326SOL    HW220818   9.359   7.747   0.324
 6327SOL     OW20819   8.117   8.628  13.034
 6327SOL    HW120820   8.138   8.651  13.125
 6327SOL    HW220821   8.048   8.563  13.041
 6328SOL     OW20822   1.403   2.395   8.517
 6328SOL    HW120823   1.314   2.364   8.498
 6328SOL    HW220824   1.460   2.327   8.481
 6329SOL     OW20825   7.014  11.797   7.725
 6329SOL    HW120826   6.952  11.861   7.759
 6329SOL    HW220827   6.960  11.734   7.677
 6330SOL     OW20828  13.056   2.633  13.092
 6330SOL    HW120829  13.098   2.567  13.036
 6330SOL    HW220830  12.968   2.642  13.056
 6331SOL     OW20831  13.510  13.862   7.015
 6331SOL    HW120832  13.571  13.916   6.967
 6331SOL    HW220833  13.445  13.923   7.050
 6332SOL     OW20834   7.224  14.742   9.625
 6332SOL    HW120835   7.136  14.751   9.661
 6332SOL    HW220836   7.232  14.649   9.602
 6333SOL     OW20837  12.827  12.368   5.501
 6333SOL    HW120838  12.856  12.316   5.576
 6333SOL    HW220839  12.812  12.456   5.537
 6334SOL     OW20840   4.017   3.738   6.777
 6334SOL    HW120841   3.997   3.665   6.835
 6334SOL    HW220842   3.938   3.749   6.724
 6335SOL     OW20843  14.831  11.271   1.818
 6335SOL    HW120844   0.030  11.252   1.874
 6335SOL    HW220845  14.755  11.262   1.875
 6336SOL     OW20846   2.771   1.699  11.250
 6336SOL    HW120847   2.791   1.610  11.221
 6336SOL    HW220848   2.815   1.755  11.187
 6337SOL     OW20849  14.123   0.177   7.182
 6337SOL    HW120850  14.219   0.175   7.187
 6337SOL    HW220851  14.101   0.270   7.177
 6338SOL     OW20852   9.964  11.056  14.482
 6338SOL    HW120853  10.043  11.103  14.452
 6338SOL    HW220854   9.943  11.097  14.566
 6339SOL     OW20855   7.419   5.359   6.358
 6339SOL    HW120856   7.464   5.290   6.310
 6339SOL    HW220857   7.356   5.312   6.414
 6340SOL     OW20858   2.853  14.868   2.072
 6340SOL    HW120859   2.781  14.827   2.025
 6340SOL    HW220860   2.901  14.795   2.112
 6341SOL     OW20861   2.765  11.877   1.235
 6341SOL    HW120862   2.779  11.904   1.144
 6341SOL    HW220863   2.853  11.862   1.270
 6342SOL     OW20864   1.535   5.488   7.578
 6342SOL    HW120865   1.601   5.452   7.519
 6342SOL    HW220866   1.553   5.582   7.579
 6343SOL     OW20867   3.949   4.383   5.413
 6343SOL    HW120868   3.929   4.332   5.334
 6343SOL    HW220869   3.911   4.469   5.396
 6344SOL     OW20870   8.682   3.292  13.614
 6344SOL    HW120871   8.646   3.205  13.630
 6344SOL    HW220872   8.654   3.344  13.690
 6345SOL     OW20873  11.290   5.840   5.789
 6345SOL    HW120874  11.374   5.887   5.791
 6345SOL    HW220875  11.226   5.907   5.767
 6346SOL     OW20876  10.597   5.025  14.575
 6346SOL    HW120877  10.622   5.023  14.668
 6346SOL    HW220878  10.533   4.954  14.567
 6347SOL     OW20879  11.048   0.452  13.987
 6347SOL    HW120880  10.994   0.430  14.063
 6347SOL    HW220881  11.056   0.548  13.990
 6348SOL     OW20882  13.184   2.123   1.167
 6348SOL    HW120883  13.172   2.215   1.145
 6348SOL    HW220884  13.192   2.078   1.083
 6349SOL     OW20885   1.338  13.263   9.149
 6349SOL    HW120886   1.243  13.254   9.160
 6349SOL    HW220887   1.366  13.177   9.116
 6350SOL     OW20888   0.891  11.165  11.134
 6350SOL    HW120889   0.907  11.072  11.144
 6350SOL    HW220890   0.904  11.202  11.222
 6351SOL     OW20891  14.075   3.489   3.286
 6351SOL    HW120892  14.151   3.492   3.227
 6351SOL    HW220893  14.032   3.573   3.274
 6352SOL     OW20894   2.838   0.076   3.977
 6352SOL    HW120895   2.747   0.102   3.965
 6352SOL    HW220896   2.870   0.131   4.048
 6353SOL     OW20897   7.754   4.222   0.689
 6353SOL    HW120898   7.784   4.167   0.761
 6353SOL    HW220899   7.668   4.252   0.715
 6354SOL     OW20900   7.541   9.774   9.450
 6354SOL    HW120901   7.515   9.812   9.533
 6354SOL    HW220902   7.463   9.779   9.395
 6355SOL     OW20903  12.641   6.663  12.616
 6355SOL    HW120904  12.705   6.594  12.633
 6355SOL    HW220905  12.581   6.625  12.552
 6356SOL     OW20906   3.426  13.185   6.460
 6356SOL    HW120907   3.486  13.260   6.461
 6356SOL    HW220908   3.371  13.197   6.538
 6357SOL     OW20909  14.468   1.175   9.158
 6357SOL    HW120910  14.485   1.269   9.157
 6357SOL    HW220911  14.551   1.135   9.133
 6358SOL     OW20912  13.719   0.307   2.570
 6358SOL    HW120913  13.758   0.327   2.485
 6358SOL    HW220914  13.628   0.333   2.562
 6359SOL     OW20915   5.054  14.482   2.511
 6359SOL    HW120916   5.123  14.439   2.460
 6359SOL    HW220917   5.011  14.540   2.449
 6360SOL     OW20918  11.547   7.571  12.978
 6360SOL    HW120919  11.478   7.546  13.040
 6360SOL    HW220920  11.580   7.655  13.012
 6361SOL     OW20921  10.765  13.939  11.224
 6361SOL    HW120922  10.738  13.974  11.139
 6361SOL    HW220923  10.771  14.016  11.280
 6362SOL     OW20924   4.174   5.046   5.662
 6362SOL    HW120925   4.241   5.098   5.618
 6362SOL    HW220926   4.109   5.027   5.594
 6363SOL     OW20927  10.360   1.475  12.863
 6363SOL    HW120928  10.376   1.398  12.808
 6363SOL    HW220929  10.314   1.441  12.940
 6364SOL     OW20930   5.710   2.456   1.453
 6364SOL    HW120931   5.699   2.543   1.415
 6364SOL    HW220932   5.802   2.453   1.478
 6365SOL     OW20933   7.006   2.492   4.308
 6365SOL    HW120934   6.995   2.459   4.397
 6365SOL    HW220935   7.063   2.568   4.317
 6366SOL     OW20936  11.887   4.581  11.452
 6366SOL    HW120937  11.977   4.604  11.476
 6366SOL    HW220938  11.861   4.516  11.518
 6367SOL     OW20939   8.679   9.116  10.840
 6367SOL    HW120940   8.599   9.158  10.873
 6367SOL    HW220941   8.723   9.082  10.918
 6368SOL     OW20942  11.820  12.649   7.775
 6368SOL    HW120943  11.790  12.576   7.829
 6368SOL    HW220944  11.874  12.608   7.708
 6369SOL     OW20945   9.871  11.754   2.637
 6369SOL    HW120946   9.908  11.702   2.707
 6369SOL    HW220947   9.810  11.813   2.681
 6370SOL     OW20948   8.156   4.957   3.648
 6370SOL    HW120949   8.091   5.024   3.625
 6370SOL    HW220950   8.210   4.948   3.569
 6371SOL     OW20951  12.235   1.023  10.630
 6371SOL    HW120952  12.220   1.107  10.587
 6371SOL    HW220953  12.320   1.033  10.673
 6372SOL     OW20954   2.442   6.195  11.145
 6372SOL    HW120955   2.471   6.129  11.207
 6372SOL    HW220956   2.519   6.214  11.092
 6373SOL     OW20957   0.431   6.118   8.258
 6373SOL    HW120958   0.483   6.047   8.222
 6373SOL    HW220959   0.489   6.163   8.319
 6374SOL     OW20960  14.325   7.354  10.507
 6374SOL    HW120961  14.318   7.449  10.510
 6374SOL    HW220962  14.301   7.325  10.595
 6375SOL     OW20963   5.904   2.685  10.048
 6375SOL    HW120964   5.839   2.703  10.115
 6375SOL    HW220965   5.863   2.711   9.966
 6376SOL     OW20966  14.225   9.334  12.940
 6376SOL    HW120967  14.261   9.392  13.007
 6376SOL    HW220968  14.301   9.306  12.889
 6377SOL     OW20969   3.431   1.365  11.011
 6377SOL    HW120970   3.466   1.280  10.985
 6377SOL    HW220971   3.440   1.420  10.933
 6378SOL     OW20972  12.750  10.985   8.107
 6378SOL    HW120973  12.712  10.953   8.189
 6378SOL    HW220974  12.809  11.056   8.134
 6379SOL     OW20975   8.106   3.783  14.139
 6379SOL    HW120976   8.171   3.835  14.093
 6379SOL    HW220977   8.121   3.693  14.110
 6380SOL     OW20978   5.931  10.848   9.001
 6380SOL    HW120979   6.012  10.812   9.036
 6380SOL    HW220980   5.946  10.856   8.907
 6381SOL     OW20981   2.234   6.927   5.163
 6381SOL    HW120982   2.313   6.974   5.136
 6381SOL    HW220983   2.234   6.933   5.259
 6382SOL     OW20984   6.444   9.789   2.634
 6382SOL    HW120985   6.373   9.823   2.689
 6382SOL    HW220986   6.400   9.752   2.558
 6383SOL     OW20987  14.266   4.224   3.853
 6383SOL    HW120988  14.207   4.193   3.784
 6383SOL    HW220989  14.240   4.175   3.931
 6384SOL     OW20990   4.024   6.990   4.697
 6384SOL    HW120991   3.944   7.040   4.678
 6384SOL    HW220992   4.088   7.057   4.721
 6385SOL     OW20993   3.843  14.082  10.269
 6385SOL    HW120994   3.898  14.005  10.262
 6385SOL    HW220995   3.766  14.052  10.318
 6386SOL     OW20996  11.361   4.234   4.728
 6386SOL    HW120997  11.301   4.245   4.802
 6386SOL    HW220998  11.329   4.295   4.662
 6387SOL     OW20999  12.116  14.477   6.150
 6387SOL    HW121000  12.093  14.387   6.172
 6387SOL    HW221001  12.085  14.528   6.225
 6388SOL     OW21002   6.704  11.978  11.636
 6388SOL    HW121003   6.724  11.904  11.693
 6388SOL    HW221004   6.751  11.960  11.555
 6389SOL     OW21005  13.664   9.610   7.248
 6389SOL    HW121006  13.632   9.700   7.250
 6389SOL    HW221007  13.713   9.604   7.166
 6390SOL     OW21008   3.628   8.770   7.091
 6390SOL    HW121009   3.705   8.810   7.050
 6390SOL    HW221010   3.565   8.763   7.020
 6391SOL     OW21011  12.485  11.444  12.929
 6391SOL    HW121012  12.405  11.494  12.912
 6391SOL    HW221013  12.468  11.358  12.891
 6392SOL     OW21014  14.468   0.953   8.317
 6392SOL    HW121015  14.491   0.866   8.349
 6392SOL    HW221016  14.392   0.938   8.261
 6393SOL     OW21017   0.505   8.335   0.833
 6393SOL    HW121018   0.495   8.400   0.763
 6393SOL    HW221019   0.531   8.255   0.787
 6394SOL     OW21020  14.832   2.987  14.192
 6394SOL    HW121021   0.041   3.013  14.158
 6394SOL    HW221022  14.849   2.960  14.282
 6395SOL     OW21023   1.254   9.713  12.146
 6395SOL    HW121024   1.177   9.769  12.130
 6395SOL    HW221025   1.218   9.634  12.184
 6396SOL     OW21026   2.969   2.951  11.777
 6396SOL    HW121027   2.949   2.986  11.864
 6396SOL    HW221028   3.064   2.943  11.775
 6397SOL     OW21029   9.975  13.241  13.753
 6397SOL    HW121030  10.012  13.198  13.831
 6397SOL    HW221031   9.944  13.169  13.698
 6398SOL     OW21032  13.796  12.510  13.915
 6398SOL    HW121033  13.722  12.563  13.886
 6398SOL    HW221034  13.766  12.466  13.994
 6399SOL     OW21035   9.668   9.915   5.778
 6399SOL    HW121036   9.705   9.939   5.863
 6399SOL    HW221037   9.743   9.892   5.724
 6400SOL     OW21038   6.722   5.447   3.234
 6400SOL    HW121039   6.780   5.467   3.160
 6400SOL    HW221040   6.645   5.501   3.219
 6401SOL     OW21041   2.096  14.258  14.732
 6401SOL    HW121042   2.044  14.186  14.767
 6401SOL    HW221043   2.117  14.312  14.808
 6402SOL     OW21044   5.115   1.538   5.150
 6402SOL    HW121045   5.135   1.602   5.082
 6402SOL    HW221046   5.066   1.469   5.105
 6403SOL     OW21047  12.857   2.663   0.928
 6403SOL    HW121048  12.764   2.646   0.943
 6403SOL    HW221049  12.879   2.732   0.990
 6404SOL     OW21050  12.599  13.831   2.116
 6404SOL    HW121051  12.526  13.808   2.173
 6404SOL    HW221052  12.652  13.752   2.111
 6405SOL     OW21053   3.597   2.682  13.882
 6405SOL    HW121054   3.521   2.625  13.887
 6405SOL    HW221055   3.612   2.694  13.788
 6406SOL     OW21056  12.608   1.934  14.551
 6406SOL    HW121057  12.660   1.880  14.493
 6406SOL    HW221058  12.590   1.878  14.627
 6407SOL     OW21059  10.248  11.203  12.432
 6407SOL    HW121060  10.266  11.162  12.517
 6407SOL    HW221061  10.203  11.285  12.454
 6408SOL     OW21062   7.190  14.858   0.765
 6408SOL    HW121063   7.152  14.791   0.709
 6408SOL    HW221064   7.284  14.853   0.747
 6409SOL     OW21065   6.402   9.288  12.567
 6409SOL    HW121066   6.465   9.216  12.564
 6409SOL    HW221067   6.409   9.331  12.482
 6410SOL     OW21068  11.387   7.381  11.675
 6410SOL    HW121069  11.293   7.381  11.692
 6410SOL    HW221070  11.426   7.355  11.759
 6411SOL     OW21071   7.592   2.054  13.622
 6411SOL    HW121072   7.608   2.130  13.566
 6411SOL    HW221073   7.669   1.998  13.609
 6412SOL     OW21074  12.478   9.718  12.291
 6412SOL    HW121075  12.491   9.720  12.197
 6412SOL    HW221076  12.565   9.704  12.327
 6413SOL     OW21077  13.338   7.476   2.512
 6413SOL    HW121078  13.246   7.495   2.528
 6413SOL    HW221079  13.343   7.380   2.511
 6414SOL     OW21080   7.868  13.421  13.609
 6414SOL    HW121081   7.807  13.465  13.550
 6414SOL    HW221082   7.829  13.429  13.695
 6415SOL     OW21083   4.370   6.195  10.303
 6415SOL    HW121084   4.403   6.106  10.314
 6415SOL    HW221085   4.326   6.195  10.218
 6416SOL     OW21086   3.633   1.837   1.709
 6416SOL    HW121087   3.563   1.775   1.690
 6416SOL    HW221088   3.695   1.827   1.637
 6417SOL     OW21089   0.811  11.780  13.011
 6417SOL    HW121090   0.746  11.812  12.950
 6417SOL    HW221091   0.770  11.706  13.055
 6418SOL     OW21092  13.836   2.941   1.147
 6418SOL    HW121093  13.768   2.906   1.204
 6418SOL    HW221094  13.849   2.873   1.081
 6419SOL     OW21095   5.551   1.278  11.479
 6419SOL    HW121096   5.565   1.316  11.392
 6419SOL    HW221097   5.470   1.227  11.469
 6420SOL     OW21098  12.314   5.011  11.594
 6420SOL    HW121099  12.349   4.925  11.570
 6420SOL    HW221100  12.392   5.063  11.615
 6421SOL     OW21101   4.819  10.272   0.793
 6421SOL    HW121102   4.796  10.210   0.724
 6421SOL    HW221103   4.897  10.318   0.759
 6422SOL     OW21104   5.753   8.972   3.808
 6422SOL    HW121105   5.809   8.951   3.734
 6422SOL    HW221106   5.798   8.932   3.883
 6423SOL     OW21107  10.928  14.581   1.037
 6423SOL    HW121108  11.019  14.561   1.062
 6423SOL    HW221109  10.875  14.528   1.097
 6424SOL     OW21110  13.742  11.693   3.275
 6424SOL    HW121111  13.769  11.607   3.244
 6424SOL    HW221112  13.679  11.723   3.209
 6425SOL     OW21113  12.686   6.385  10.248
 6425SOL    HW121114  12.641   6.304  10.225
 6425SOL    HW221115  12.644   6.451  10.192
 6426SOL     OW21116   4.103   7.110  13.695
 6426SOL    HW121117   4.079   7.156  13.614
 6426SOL    HW221118   4.087   7.018  13.675
 6427SOL     OW21119  11.275  12.098   7.530
 6427SOL    HW121120  11.238  12.083   7.443
 6427SOL    HW221121  11.369  12.082   7.519
 6428SOL     OW21122   1.206   5.247   1.056
 6428SOL    HW121123   1.283   5.259   1.112
 6428SOL    HW221124   1.211   5.156   1.028
 6429SOL     OW21125   6.539  12.552   4.775
 6429SOL    HW121126   6.527  12.477   4.717
 6429SOL    HW221127   6.460  12.554   4.828
 6430SOL     OW21128   9.557  12.960   2.404
 6430SOL    HW121129   9.537  12.959   2.310
 6430SOL    HW221130   9.473  12.973   2.447
 6431SOL     OW21131   0.599   7.694   2.278
 6431SOL    HW121132   0.580   7.607   2.313
 6431SOL    HW221133   0.680   7.683   2.229
 6432SOL     OW21134  12.712   5.515   2.237
 6432SOL    HW121135  12.748   5.503   2.149
 6432SOL    HW221136  12.618   5.504   2.227
 6433SOL     OW21137   9.420   2.653   5.472
 6433SOL    HW121138   9.352   2.711   5.506
 6433SOL    HW221139   9.501   2.703   5.483
 6434SOL     OW21140   1.485   5.593  12.801
 6434SOL    HW121141   1.434   5.670  12.824
 6434SOL    HW221142   1.431   5.547  12.737
 6435SOL     OW21143  10.054  12.021   0.952
 6435SOL    HW121144  10.017  11.937   0.978
 6435SOL    HW221145  10.106  12.002   0.874
 6436SOL     OW21146   3.766  10.835   4.535
 6436SOL    HW121147   3.782  10.871   4.622
 6436SOL    HW221148   3.828  10.762   4.527
 6437SOL     OW21149  12.878   4.714  13.493
 6437SOL    HW121150  12.845   4.736  13.580
 6437SOL    HW221151  12.934   4.637  13.508
 6438SOL     OW21152  11.035   2.039   1.814
 6438SOL    HW121153  11.047   1.986   1.735
 6438SOL    HW221154  10.970   1.992   1.865
 6439SOL     OW21155  12.703   7.636   9.579
 6439SOL    HW121156  12.677   7.643   9.671
 6439SOL    HW221157  12.668   7.715   9.538
 6440SOL     OW21158  13.084   1.245   5.733
 6440SOL    HW121159  13.046   1.284   5.654
 6440SOL    HW221160  13.041   1.291   5.805
 6441SOL     OW21161   0.939  12.313   9.677
 6441SOL    HW121162   1.009  12.337   9.616
 6441SOL    HW221163   0.955  12.368   9.754
 6442SOL     OW21164   7.798  13.218   9.062
 6442SOL    HW121165   7.717  13.194   9.107
 6442SOL    HW221166   7.784  13.192   8.971
 6443SOL     OW21167   1.646   0.068   3.979
 6443SOL    HW121168   1.617   0.123   4.051
 6443SOL    HW221169   1.618   0.115   3.900
 6444SOL     OW21170   8.040   2.051   6.101
 6444SOL    HW121171   8.006   1.967   6.069
 6444SOL    HW221172   8.022   2.050   6.195
 6445SOL     OW21173   9.217   7.163  10.033
 6445SOL    HW121174   9.290   7.199   9.984
 6445SOL    HW221175   9.158   7.237  10.046
 6446SOL     OW21176   2.861   3.612  12.417
 6446SOL    HW121177   2.830   3.679  12.478
 6446SOL    HW221178   2.924   3.659  12.361
 6447SOL     OW21179  11.049  12.573   6.832
 6447SOL    HW121180  11.020  12.543   6.746
 6447SOL    HW221181  10.974  12.559   6.889
 6448SOL     OW21182   1.690   9.710   8.583
 6448SOL    HW121183   1.686   9.655   8.661
 6448SOL    HW221184   1.763   9.770   8.600
 6449SOL     OW21185  10.896   2.079  11.422
 6449SOL    HW121186  10.833   2.039  11.362
 6449SOL    HW221187  10.841   2.125  11.486
 6450SOL     OW21188   1.850  12.426   7.107
 6450SOL    HW121189   1.861  12.483   7.183
 6450SOL    HW221190   1.921  12.450   7.048
 6451SOL     OW21191   4.235   0.597   6.243
 6451SOL    HW121192   4.291   0.629   6.172
 6451SOL    HW221193   4.293   0.542   6.296
 6452SOL     OW21194   0.316   4.599   4.265
 6452SOL    HW121195   0.304   4.583   4.358
 6452SOL    HW221196   0.410   4.586   4.250
 6453SOL     OW21197  14.163  14.301   2.685
 6453SOL    HW121198  14.256  14.324   2.686
 6453SOL    HW221199  14.123  14.360   2.749
 6454SOL     OW21200   1.099   6.456   3.256
 6454SOL    HW121201   1.072   6.369   3.224
 6454SOL    HW221202   1.138   6.439   3.342
 6455SOL     OW21203   3.674   0.956  12.142
 6455SOL    HW121204   3.702   1.044  12.118
 6455SOL    HW221205   3.673   0.956  12.238
 6456SOL     OW21206   5.494   1.198  12.280
 6456SOL    HW121207   5.558   1.137  12.243
 6456SOL    HW221208   5.506   1.189  12.375
 6457SOL     OW21209   6.595   6.035   9.060
 6457SOL    HW121210   6.509   6.006   9.031
 6457SOL    HW221211   6.577   6.091   9.136
 6458SOL     OW21212  10.077   2.960   6.783
 6458SOL    HW121213  10.059   2.872   6.751
 6458SOL    HW221214  10.026   2.966   6.864
 6459SOL     OW21215   9.464   2.444  10.688
 6459SOL    HW121216   9.532   2.453  10.755
 6459SOL    HW221217   9.476   2.356  10.654
 6460SOL     OW21218   6.843   3.274   1.786
 6460SOL    HW121219   6.788   3.244   1.859
 6460SOL    HW221220   6.814   3.364   1.769
 6461SOL     OW21221   2.681   9.728   0.585
 6461SOL    HW121222   2.764   9.738   0.539
 6461SOL    HW221223   2.673   9.634   0.599
 6462SOL     OW21224   5.846   4.504   9.434
 6462SOL    HW121225   5.883   4.564   9.369
 6462SOL    HW221226   5.902   4.515   9.511
 6463SOL     OW21227  11.777   5.924  12.419
 6463SOL    HW121228  11.800   6.008  12.459
 6463SOL    HW221229  11.689   5.905  12.451
 6464SOL     OW21230   8.790   7.584   8.434
 6464SOL    HW121231   8.706   7.622   8.462
 6464SOL    HW221232   8.770   7.545   8.348
 6465SOL     OW21233  14.672  13.139   2.694
 6465SOL    HW121234  14.715  13.121   2.610
 6465SOL    HW221235  14.598  13.195   2.672
 6466SOL     OW21236  13.748   1.266   2.342
 6466SOL    HW121237  13.785   1.341   2.295
 6466SOL    HW221238  13.720   1.303   2.426
 6467SOL     OW21239   4.165  13.951   5.572
 6467SOL    HW121240   4.136  13.948   5.664
 6467SOL    HW221241   4.111  14.019   5.533
 6468SOL     OW21242  12.179   2.041   4.058
 6468SOL    HW121243  12.191   2.077   3.970
 6468SOL    HW221244  12.258   2.066   4.105
 6469SOL     OW21245   2.745   8.522   5.872
 6469SOL    HW121246   2.817   8.515   5.935
 6469SOL    HW221247   2.673   8.473   5.913
 6470SOL     OW21248   8.843   8.725   2.231
 6470SOL    HW121249   8.777   8.661   2.255
 6470SOL    HW221250   8.807   8.809   2.260
 6471SOL     OW21251  13.858   3.855  12.364
 6471SOL    HW121252  13.790   3.921  12.374
 6471SOL    HW221253  13.813   3.771  12.379
 6472SOL     OW21254  14.677   5.765   6.992
 6472SOL    HW121255  14.720   5.689   6.954
 6472SOL    HW221256  14.673   5.746   7.086
 6473SOL     OW21257   4.304   5.052  10.517
 6473SOL    HW121258   4.277   5.138  10.485
 6473SOL    HW221259   4.342   5.009  10.440
 6474SOL     OW21260   7.968  14.193   2.734
 6474SOL    HW121261   7.987  14.122   2.673
 6474SOL    HW221262   7.988  14.273   2.686
 6475SOL     OW21263  14.730   0.263   4.392
 6475SOL    HW121264  14.699   0.315   4.317
 6475SOL    HW221265  14.696   0.175   4.375
 6476SOL     OW21266   3.827   6.540  11.380
 6476SOL    HW121267   3.849   6.456  11.420
 6476SOL    HW221268   3.910   6.570  11.342
 6477SOL     OW21269   4.935  14.784   4.424
 6477SOL    HW121270   4.898  14.868   4.449
 6477SOL    HW221271   4.922  14.729   4.502
 6478SOL     OW21272  10.311   1.709  12.414
 6478SOL    HW121273  10.217   1.722  12.415
 6478SOL    HW221274  10.332   1.682  12.325
 6479SOL     OW21275   5.729   5.477  10.226
 6479SOL    HW121276   5.789   5.403  10.230
 6479SOL    HW221277   5.764   5.532  10.156
 6480SOL     OW21278   2.727   7.925   8.477
 6480SOL    HW121279   2.755   7.942   8.387
 6480SOL    HW221280   2.658   7.859   8.468
 6481SOL     OW21281   7.678   6.209  12.412
 6481SOL    HW121282   7.752   6.257  12.375
 6481SOL    HW221283   7.700   6.198  12.505
 6482SOL     OW21284   3.284  14.203   5.324
 6482SOL    HW121285   3.202  14.164   5.296
 6482SOL    HW221286   3.271  14.297   5.313
 6483SOL     OW21287  12.572   6.108   2.451
 6483SOL    HW121288  12.645   6.096   2.512
 6483SOL    HW221289  12.545   6.199   2.463
 6484SOL     OW21290   6.829  14.562   0.544
 6484SOL    HW121291   6.744  14.556   0.501
 6484SOL    HW221292   6.850  14.472   0.568
 6485SOL     OW21293   6.131  13.931  13.085
 6485SOL    HW121294   6.077  13.937  13.163
 6485SOL    HW221295   6.088  13.988  13.021
 6486SOL     OW21296   3.608   7.816  10.325
 6486SOL    HW121297   3.685   7.867  10.300
 6486SOL    HW221298   3.578   7.855  10.407
 6487SOL     OW21299   6.470   4.037   3.024
 6487SOL    HW121300   6.465   4.126   3.060
 6487SOL    HW221301   6.535   4.043   2.955
 6488SOL     OW21302   0.576  13.588  12.352
 6488SOL    HW121303   0.580  13.640  12.272
 6488SOL    HW221304   0.595  13.499  12.325
 6489SOL     OW21305   0.064  10.156   8.107
 6489SOL    HW121306   0.003  10.090   8.140
 6489SOL    HW221307   0.132  10.105   8.063
 6490SOL     OW21308   9.548   0.215  12.517
 6490SOL    HW121309   9.575   0.139  12.569
 6490SOL    HW221310   9.590   0.290  12.560
 6491SOL     OW21311   1.194   2.426   3.763
 6491SOL    HW121312   1.202   2.331   3.754
 6491SOL    HW221313   1.278   2.460   3.733
 6492SOL     OW21314  12.854   4.731   1.018
 6492SOL    HW121315  12.808   4.648   1.028
 6492SOL    HW221316  12.899   4.743   1.102
 6493SOL     OW21317   7.870   7.198   8.462
 6493SOL    HW121318   7.835   7.281   8.431
 6493SOL    HW221319   7.916   7.162   8.385
 6494SOL     OW21320  11.200  12.281   0.842
 6494SOL    HW121321  11.275  12.307   0.896
 6494SOL    HW221322  11.124  12.317   0.888
 6495SOL     OW21323   7.949   6.063   0.342
 6495SOL    HW121324   7.983   6.153   0.337
 6495SOL    HW221325   7.977   6.031   0.428
 6496SOL     OW21326  11.349   1.334   8.046
 6496SOL    HW121327  11.343   1.313   8.139
 6496SOL    HW221328  11.364   1.428   8.043
 6497SOL     OW21329  12.936   4.484   6.481
 6497SOL    HW121330  12.972   4.485   6.392
 6497SOL    HW221331  12.924   4.576   6.503
 6498SOL     OW21332   2.747   0.786  10.145
 6498SOL    HW121333   2.789   0.782  10.059
 6498SOL    HW221334   2.665   0.738  10.134
 6499SOL     OW21335   5.892   9.175   6.309
 6499SOL    HW121336   5.963   9.119   6.342
 6499SOL    HW221337   5.924   9.264   6.321
 6500SOL     OW21338   2.008   4.603   0.996
 6500SOL    HW121339   2.018   4.510   1.017
 6500SOL    HW221340   2.031   4.649   1.076
 6501SOL     OW21341   1.680   5.967   9.416
 6501SOL    HW121342   1.653   5.880   9.388
 6501SOL    HW221343   1.775   5.961   9.427
 6502SOL     OW21344   3.278   2.717   7.787
 6502SOL    HW121345   3.298   2.809   7.767
 6502SOL    HW221346   3.232   2.720   7.870
 6503SOL     OW21347   4.155   3.238   9.948
 6503SOL    HW121348   4.107   3.156   9.959
 6503SOL    HW221349   4.207   3.246  10.028
 6504SOL     OW21350   8.540   7.314   8.003
 6504SOL    HW121351   8.621   7.356   7.975
 6504SOL    HW221352   8.492   7.383   8.049
 6505SOL     OW21353   7.887   8.919   9.953
 6505SOL    HW121354   7.861   8.934   9.862
 6505SOL    HW221355   7.982   8.925   9.952
 6506SOL     OW21356   7.001   1.004  11.303
 6506SOL    HW121357   6.909   1.024  11.287
 6506SOL    HW221358   6.999   0.939  11.373
 6507SOL     OW21359  12.283   1.062   3.970
 6507SOL    HW121360  12.341   0.998   3.929
 6507SOL    HW221361  12.199   1.017   3.979
 6508SOL     OW21362  13.817   6.039   0.016
 6508SOL    HW121363  13.904   6.001   0.004
 6508SOL    HW221364  13.795   6.077  14.807
 6509SOL     OW21365   8.863  12.728   6.473
 6509SOL    HW121366   8.872  12.823   6.473
 6509SOL    HW221367   8.810  12.709   6.395
 6510SOL     OW21368   3.348   0.805   3.943
 6510SOL    HW121369   3.274   0.748   3.964
 6510SOL    HW221370   3.308   0.891   3.928
 6511SOL     OW21371   7.660  13.157  13.005
 6511SOL    HW121372   7.719  13.181  12.933
 6511SOL    HW221373   7.716  13.161  13.083
 6512SOL     OW21374   0.413  11.286   0.510
 6512SOL    HW121375   0.434  11.357   0.570
 6512SOL    HW221376   0.333  11.315   0.465
 6513SOL     OW21377  11.103   5.759  12.173
 6513SOL    HW121378  11.095   5.664  12.174
 6513SOL    HW221379  11.194   5.774  12.147
 6514SOL     OW21380  14.512   6.890  13.313
 6514SOL    HW121381  14.433   6.941  13.290
 6514SOL    HW221382  14.536   6.847  13.231
 6515SOL     OW21383   4.933  14.607   8.320
 6515SOL    HW121384   4.940  14.515   8.344
 6515SOL    HW221385   4.877  14.645   8.388
 6516SOL     OW21386   1.653   4.694   7.354
 6516SOL    HW121387   1.624   4.760   7.292
 6516SOL    HW221388   1.745   4.679   7.332
 6517SOL     OW21389  12.756  11.391   0.613
 6517SOL    HW121390  12.843  11.408   0.577
 6517SOL    HW221391  12.756  11.297   0.631
 6518SOL     OW21392   9.870  14.734   9.568
 6518SOL    HW121393   9.795  14.773   9.522
 6518SOL    HW221394   9.830  14.681   9.637
 6519SOL     OW21395   9.539  10.457   6.339
 6519SOL    HW121396   9.582  10.472   6.423
 6519SOL    HW221397   9.523  10.545   6.304
 6520SOL     OW21398  13.711   6.184  13.896
 6520SOL    HW121399  13.717   6.089  13.904
 6520SOL    HW221400  13.783   6.208  13.838
 6521SOL     OW21401  10.302   7.929   9.267
 6521SOL    HW121402  10.323   8.015   9.304
 6521SOL    HW221403  10.305   7.870   9.343
 6522SOL     OW21404  11.978   4.188  11.446
 6522SOL    HW121405  12.040   4.214  11.514
 6522SOL    HW221406  11.929   4.267  11.426
 6523SOL     OW21407   4.659   4.739   0.391
 6523SOL    HW121408   4.586   4.725   0.331
 6523SOL    HW221409   4.738   4.723   0.338
 6524SOL     OW21410  13.657   1.579   0.803
 6524SOL    HW121411  13.692   1.502   0.758
 6524SOL    HW221412  13.627   1.636   0.732
 6525SOL     OW21413  12.784   9.991   0.171
 6525SOL    HW121414  12.760  10.046   0.096
 6525SOL    HW221415  12.869  10.023   0.199
 6526SOL     OW21416  10.845  12.824   8.826
 6526SOL    HW121417  10.793  12.903   8.811
 6526SOL    HW221418  10.902  12.818   8.749
 6527SOL     OW21419   0.799   6.631  12.381
 6527SOL    HW121420   0.856   6.704  12.408
 6527SOL    HW221421   0.714   6.652  12.418
 6528SOL     OW21422   8.595   4.869   9.179
 6528SOL    HW121423   8.571   4.858   9.271
 6528SOL    HW221424   8.677   4.822   9.170
 6529SOL     OW21425   1.010   8.412   2.665
 6529SOL    HW121426   0.940   8.349   2.680
 6529SOL    HW221427   0.987   8.487   2.720
 6530SOL     OW21428  12.639  10.105   1.049
 6530SOL    HW121429  12.636  10.014   1.080
 6530SOL    HW221430  12.733  10.124   1.041
 6531SOL     OW21431   0.466   1.208   5.639
 6531SOL    HW121432   0.484   1.152   5.715
 6531SOL    HW221433   0.370   1.208   5.633
 6532SOL     OW21434  12.041   8.061   3.631
 6532SOL    HW121435  12.037   8.133   3.568
 6532SOL    HW221436  12.133   8.055   3.655
 6533SOL     OW21437  13.424   6.556  10.187
 6533SOL    HW121438  13.373   6.588  10.261
 6533SOL    HW221439  13.462   6.635  10.148
 6534SOL     OW21440  11.769   0.047   3.378
 6534SOL    HW121441  11.735  14.841   3.341
 6534SOL    HW221442  11.691   0.100   3.395
 6535SOL     OW21443   2.670   3.046   7.435
 6535SOL    HW121444   2.760   3.058   7.406
 6535SOL    HW221445   2.621   3.028   7.354
 6536SOL     OW21446   2.699  12.267   8.805
 6536SOL    HW121447   2.636  12.195   8.809
 6536SOL    HW221448   2.735  12.273   8.893
 6537SOL     OW21449   0.270   7.717   4.110
 6537SOL    HW121450   0.291   7.754   4.024
 6537SOL    HW221451   0.320   7.771   4.172
 6538SOL     OW21452   4.882   3.701  12.631
 6538SOL    HW121453   4.931   3.670  12.555
 6538SOL    HW221454   4.947   3.712  12.700
 6539SOL     OW21455   5.929   3.310  14.356
 6539SOL    HW121456   5.997   3.265  14.406
 6539SOL    HW221457   5.870   3.240  14.329
 6540SOL     OW21458   5.435  11.455   2.741
 6540SOL    HW121459   5.470  11.416   2.661
 6540SOL    HW221460   5.421  11.547   2.718
 6541SOL     OW21461  13.516   9.480   7.992
 6541SOL    HW121462  13.509   9.541   7.918
 6541SOL    HW221463  13.603   9.496   8.028
 6542SOL     OW21464  13.909   2.915   3.499
 6542SOL    HW121465  13.975   2.848   3.480
 6542SOL    HW221466  13.827   2.880   3.464
 6543SOL     OW21467   6.387   6.213   8.463
 6543SOL    HW121468   6.398   6.178   8.552
 6543SOL    HW221469   6.293   6.205   8.446
 6544SOL     OW21470   8.972   7.790   3.021
 6544SOL    HW121471   9.057   7.833   3.016
 6544SOL    HW221472   8.930   7.828   3.099
 6545SOL     OW21473   1.692   7.039   6.402
 6545SOL    HW121474   1.611   7.089   6.404
 6545SOL    HW221475   1.736   7.063   6.484
 6546SOL     OW21476  11.078   3.334   6.000
 6546SOL    HW121477  11.138   3.408   5.996
 6546SOL    HW221478  11.123   3.265   5.950
 6547SOL     OW21479   9.864   3.872   6.051
 6547SOL    HW121480   9.778   3.879   6.009
 6547SOL    HW221481   9.901   3.791   6.016
 6548SOL     OW21482  12.260  11.714   4.558
 6548SOL    HW121483  12.268  11.663   4.639
 6548SOL    HW221484  12.283  11.652   4.489
 6549SOL     OW21485   7.362   9.388  13.709
 6549SOL    HW121486   7.363   9.294  13.691
 6549SOL    HW221487   7.454   9.413  13.713
 6550SOL     OW21488   9.917  10.746   5.441
 6550SOL    HW121489   9.899  10.664   5.488
 6550SOL    HW221490  10.004  10.734   5.403
 6551SOL     OW21491   4.206   6.515   9.880
 6551SOL    HW121492   4.172   6.603   9.892
 6551SOL    HW221493   4.253   6.518   9.797
 6552SOL     OW21494   5.002  10.302   6.859
 6552SOL    HW121495   4.974  10.317   6.949
 6552SOL    HW221496   5.098  10.303   6.864
 6553SOL     OW21497   4.086   2.809  10.609
 6553SOL    HW121498   4.041   2.733  10.571
 6553SOL    HW221499   4.175   2.778  10.627
 6554SOL     OW21500   2.020   2.203  13.573
 6554SOL    HW121501   2.103   2.165  13.545
 6554SOL    HW221502   1.962   2.128  13.586
 6555SOL     OW21503   1.489   2.050   4.161
 6555SOL    HW121504   1.528   2.132   4.129
 6555SOL    HW221505   1.428   2.078   4.229
 6556SOL     OW21506   7.006   8.402   0.582
 6556SOL    HW121507   7.030   8.492   0.601
 6556SOL    HW221508   7.060   8.378   0.507
 6557SOL     OW21509   4.101   3.690   7.319
 6557SOL    HW121510   4.129   3.778   7.344
 6557SOL    HW221511   4.144   3.674   7.234
 6558SOL     OW21512   3.562  14.743  11.610
 6558SOL    HW121513   3.614  14.731  11.531
 6558SOL    HW221514   3.615  14.799  11.666
 6559SOL     OW21515   6.881   2.842   3.918
 6559SOL    HW121516   6.932   2.783   3.973
 6559SOL    HW221517   6.802   2.861   3.970
 6560SOL     OW21518   8.181   1.628   9.048
 6560SOL    HW121519   8.234   1.550   9.063
 6560SOL    HW221520   8.103   1.615   9.103
 6561SOL     OW21521  12.546   6.647   8.617
 6561SOL    HW121522  12.466   6.641   8.565
 6561SOL    HW221523  12.585   6.731   8.591
 6562SOL     OW21524   5.062  11.700  10.413
 6562SOL    HW121525   5.131  11.733  10.471
 6562SOL    HW221526   5.044  11.772  10.353
 6563SOL     OW21527  13.940   0.534   6.013
 6563SOL    HW121528  13.988   0.457   6.042
 6563SOL    HW221529  13.980   0.557   5.929
 6564SOL     OW21530   8.909   7.481   7.144
 6564SOL    HW121531   8.889   7.558   7.092
 6564SOL    HW221532   8.999   7.458   7.120
 6565SOL     OW21533   3.726   3.512   2.251
 6565SOL    HW121534   3.693   3.593   2.290
 6565SOL    HW221535   3.819   3.511   2.273
 6566SOL     OW21536   1.709   1.102   1.871
 6566SOL    HW121537   1.803   1.101   1.893
 6566SOL    HW221538   1.676   1.182   1.911
 6567SOL     OW21539   4.053  10.814  14.714
 6567SOL    HW121540   4.058  10.838  14.807
 6567SOL    HW221541   4.122  10.866  14.672
 6568SOL     OW21542   6.297  11.028  14.102
 6568SOL    HW121543   6.234  11.003  14.169
 6568SOL    HW221544   6.338  10.946  14.075
 6569SOL     OW21545  14.789   5.227  11.622
 6569SOL    HW121546  14.818   5.173  11.548
 6569SOL    HW221547  14.849   5.203  11.693
 6570SOL     OW21548   6.220  14.317  10.116
 6570SOL    HW121549   6.159  14.303  10.043
 6570SOL    HW221550   6.264  14.400  10.094
 6571SOL     OW21551  11.580  13.078   8.342
 6571SOL    HW121552  11.645  13.066   8.272
 6571SOL    HW221553  11.499  13.042   8.307
 6572SOL     OW21554   4.523   0.652  14.311
 6572SOL    HW121555   4.508   0.702  14.231
 6572SOL    HW221556   4.558   0.717  14.373
 6573SOL     OW21557   2.880   8.653   1.798
 6573SOL    HW121558   2.964   8.630   1.837
 6573SOL    HW221559   2.840   8.713   1.860
 6574SOL     OW21560   2.253  10.194   6.982
 6574SOL    HW121561   2.239  10.287   6.998
 6574SOL    HW221562   2.272  10.188   6.888
 6575SOL     OW21563  11.695   4.647  13.400
 6575SOL    HW121564  11.605   4.680  13.410
 6575SOL    HW221565  11.722   4.679  13.314
 6576SOL     OW21566  14.070   1.678   1.705
 6576SOL    HW121567  14.126   1.607   1.673
 6576SOL    HW221568  14.105   1.757   1.662
 6577SOL     OW21569   2.975   9.519   1.968
 6577SOL    HW121570   3.036   9.528   1.895
 6577SOL    HW221571   2.955   9.426   1.972
 6578SOL     OW21572  10.605   3.341  14.509
 6578SOL    HW121573  10.657   3.364  14.586
 6578SOL    HW221574  10.663   3.357  14.435
 6579SOL     OW21575  13.939   6.243   3.018
 6579SOL    HW121576  13.904   6.156   3.040
 6579SOL    HW221577  14.008   6.259   3.083
 6580SOL     OW21578   0.887   4.596  11.789
 6580SOL    HW121579   0.794   4.617  11.802
 6580SOL    HW221580   0.911   4.641  11.709
 6581SOL     OW21581   5.955   0.345   3.661
 6581SOL    HW121582   5.913   0.387   3.585
 6581SOL    HW221583   6.001   0.416   3.704
 6582SOL     OW21584   3.209  14.734   6.967
 6582SOL    HW121585   3.301  14.707   6.973
 6582SOL    HW221586   3.167  14.688   7.040
 6583SOL     OW21587  12.067  12.418   1.728
 6583SOL    HW121588  12.152  12.375   1.743
 6583SOL    HW221589  12.003  12.350   1.746
 6584SOL     OW21590   2.983  11.510  14.703
 6584SOL    HW121591   2.932  11.429  14.695
 6584SOL    HW221592   3.070  11.486  14.672
 6585SOL     OW21593  10.347   8.369   6.345
 6585SOL    HW121594  10.280   8.319   6.392
 6585SOL    HW221595  10.419   8.307   6.333
 6586SOL     OW21596  14.115   1.450   9.125
 6586SOL    HW121597  14.093   1.434   9.034
 6586SOL    HW221598  14.031   1.471   9.167
 6587SOL     OW21599  11.880   1.665  14.046
 6587SOL    HW121600  11.866   1.668  13.951
 6587SOL    HW221601  11.861   1.575  14.070
 6588SOL     OW21602  10.576  12.760   7.978
 6588SOL    HW121603  10.540  12.803   7.901
 6588SOL    HW221604  10.668  12.744   7.956
 6589SOL     OW21605   9.895   9.422  10.815
 6589SOL    HW121606   9.828   9.421  10.747
 6589SOL    HW221607   9.866   9.355  10.878
 6590SOL     OW21608   3.178   3.489   9.323
 6590SOL    HW121609   3.129   3.571   9.324
 6590SOL    HW221610   3.137   3.435   9.391
 6591SOL     OW21611   9.530  10.547  10.593
 6591SOL    HW121612   9.476  10.608  10.644
 6591SOL    HW221613   9.619  10.561  10.627
 6592SOL     OW21614   7.544   7.173   9.776
 6592SOL    HW121615   7.539   7.154   9.869
 6592SOL    HW221616   7.477   7.117   9.736
 6593SOL     OW21617  14.523   2.082   1.712
 6593SOL    HW121618  14.559   2.042   1.633
 6593SOL    HW221619  14.595   2.134   1.748
 6594SOL     OW21620   7.242   0.722   6.447
 6594SOL    HW121621   7.184   0.648   6.431
 6594SOL    HW221622   7.188   0.786   6.495
 6595SOL     OW21623   1.438  13.405   7.338
 6595SOL    HW121624   1.526  13.416   7.373
 6595SOL    HW221625   1.451  13.391   7.244
 6596SOL     OW21626  11.460  10.563   6.872
 6596SOL    HW121627  11.513  10.642   6.873
 6596SOL    HW221628  11.508  10.500   6.925
 6597SOL     OW21629   6.287  13.567  13.853
 6597SOL    HW121630   6.268  13.638  13.915
 6597SOL    HW221631   6.205  13.555  13.805
 6598SOL     OW21632  12.031  12.229   7.316
 6598SOL    HW121633  12.028  12.145   7.362
 6598SOL    HW221634  12.088  12.214   7.241
 6599SOL     OW21635   0.875   5.325   3.556
 6599SOL    HW121636   0.869   5.398   3.617
 6599SOL    HW221637   0.948   5.273   3.588
 6600SOL     OW21638   1.564   3.084   9.841
 6600SOL    HW121639   1.631   3.029   9.881
 6600SOL    HW221640   1.598   3.104   9.754
 6601SOL     OW21641  10.834  10.840   7.185
 6601SOL    HW121642  10.908  10.836   7.246
 6601SOL    HW221643  10.836  10.929   7.150
 6602SOL     OW21644  12.579  13.337   9.312
 6602SOL    HW121645  12.565  13.410   9.251
 6602SOL    HW221646  12.513  13.272   9.286
 6603SOL     OW21647  12.709   5.777   7.123
 6603SOL    HW121648  12.717   5.769   7.028
 6603SOL    HW221649  12.730   5.869   7.140
 6604SOL     OW21650   6.309   1.235   5.557
 6604SOL    HW121651   6.357   1.316   5.540
 6604SOL    HW221652   6.217   1.259   5.545
 6605SOL     OW21653   9.570  13.499   0.240
 6605SOL    HW121654   9.664  13.511   0.253
 6605SOL    HW221655   9.555  13.407   0.262
 6606SOL     OW21656  12.115   1.726  10.583
 6606SOL    HW121657  12.180   1.795  10.596
 6606SOL    HW221658  12.083   1.707  10.672
 6607SOL     OW21659  14.640   9.726   5.486
 6607SOL    HW121660  14.618   9.708   5.394
 6607SOL    HW221661  14.560   9.765   5.522
 6608SOL     OW21662   1.822  12.632   6.402
 6608SOL    HW121663   1.873  12.712   6.412
 6608SOL    HW221664   1.864  12.585   6.331
 6609SOL     OW21665   2.714   1.458   8.806
 6609SOL    HW121666   2.755   1.499   8.883
 6609SOL    HW221667   2.726   1.522   8.736
 6610SOL     OW21668   3.167   7.889  10.162
 6610SOL    HW121669   3.145   7.945  10.237
 6610SOL    HW221670   3.099   7.822  10.161
 6611SOL     OW21671   1.536   1.542   5.909
 6611SOL    HW121672   1.517   1.449   5.895
 6611SOL    HW221673   1.580   1.570   5.829
 6612SOL     OW21674  12.457   7.252   5.972
 6612SOL    HW121675  12.495   7.206   5.898
 6612SOL    HW221676  12.519   7.238   6.044
 6613SOL     OW21677   5.496   7.264   5.970
 6613SOL    HW121678   5.423   7.251   6.032
 6613SOL    HW221679   5.574   7.242   6.020
 6614SOL     OW21680   1.199  12.789  14.504
 6614SOL    HW121681   1.257  12.723  14.466
 6614SOL    HW221682   1.259  12.850  14.549
 6615SOL     OW21683   7.616   4.118  12.688
 6615SOL    HW121684   7.657   4.056  12.628
 6615SOL    HW221685   7.682   4.135  12.756
 6616SOL     OW21686   8.097   7.382   3.752
 6616SOL    HW121687   8.181   7.409   3.790
 6616SOL    HW221688   8.103   7.408   3.660
 6617SOL     OW21689   9.095   6.805   9.345
 6617SOL    HW121690   9.131   6.789   9.432
 6617SOL    HW221691   9.001   6.795   9.356
 6618SOL     OW21692  14.476  14.293  14.626
 6618SOL    HW121693  14.473  14.257  14.538
 6618SOL    HW221694  14.555  14.347  14.628
 6619SOL     OW21695   6.562   1.412   7.514
 6619SOL    HW121696   6.584   1.503   7.494
 6619SOL    HW221697   6.514   1.416   7.597
 6620SOL     OW21698  11.708  10.916   1.985
 6620SOL    HW121699  11.734  10.978   1.917
 6620SOL    HW221700  11.791  10.888   2.024
 6621SOL     OW21701   1.924   7.162  12.465
 6621SOL    HW121702   1.950   7.245  12.424
 6621SOL    HW221703   2.004   7.109  12.461
 6622SOL     OW21704   7.852  11.636   8.667
 6622SOL    HW121705   7.896  11.552   8.677
 6622SOL    HW221706   7.905  11.698   8.719
 6623SOL     OW21707   6.098  13.472  11.271
 6623SOL    HW121708   6.164  13.457  11.339
 6623SOL    HW221709   6.024  13.417  11.297
 6624SOL     OW21710   3.984   3.833  13.333
 6624SOL    HW121711   4.026   3.832  13.419
 6624SOL    HW221712   3.945   3.920  13.327
 6625SOL     OW21713   2.918   6.217   8.183
 6625SOL    HW121714   2.921   6.142   8.125
 6625SOL    HW221715   2.978   6.281   8.144
 6626SOL     OW21716   3.339  10.744  11.652
 6626SOL    HW121717   3.319  10.785  11.568
 6626SOL    HW221718   3.359  10.653  11.630
 6627SOL     OW21719   2.541  12.055  10.506
 6627SOL    HW121720   2.620  12.080  10.458
 6627SOL    HW221721   2.574  12.024  10.591
 6628SOL     OW21722   5.651   4.325   1.934
 6628SOL    HW121723   5.720   4.262   1.954
 6628SOL    HW221724   5.643   4.324   1.839
 6629SOL     OW21725  12.853  10.547  14.639
 6629SOL    HW121726  12.772  10.538  14.589
 6629SOL    HW221727  12.826  10.585  14.723
 6630SOL     OW21728  12.910   7.139  12.714
 6630SOL    HW121729  12.865   7.216  12.679
 6630SOL    HW221730  12.984   7.175  12.762
 6631SOL     OW21731  10.936   3.242   1.531
 6631SOL    HW121732  10.964   3.151   1.521
 6631SOL    HW221733  10.959   3.265   1.621
 6632SOL     OW21734   7.287   7.015   5.255
 6632SOL    HW121735   7.229   6.941   5.274
 6632SOL    HW221736   7.373   6.976   5.243
 6633SOL     OW21737   8.894   2.386   8.059
 6633SOL    HW121738   8.842   2.455   8.017
 6633SOL    HW221739   8.942   2.344   7.987
 6634SOL     OW21740   4.588  13.637   5.717
 6634SOL    HW121741   4.522  13.684   5.666
 6634SOL    HW221742   4.620  13.569   5.659
 6635SOL     OW21743   8.765   6.032  13.517
 6635SOL    HW121744   8.783   5.954  13.466
 6635SOL    HW221745   8.698   6.006  13.579
 6636SOL     OW21746  12.712  11.094  11.116
 6636SOL    HW121747  12.620  11.121  11.120
 6636SOL    HW221748  12.752  11.155  11.053
 6637SOL     OW21749   9.077   2.369   0.762
 6637SOL    HW121750   9.062   2.331   0.848
 6637SOL    HW221751   8.992   2.364   0.718
 6638SOL     OW21752   9.141  13.436   4.056
 6638SOL    HW121753   9.162  13.367   4.119
 6638SOL    HW221754   9.223  13.453   4.010
 6639SOL     OW21755  14.358  10.340   7.277
 6639SOL    HW121756  14.321  10.306   7.195
 6639SOL    HW221757  14.452  10.335   7.264
 6640SOL     OW21758   3.767   0.257  10.555
 6640SOL    HW121759   3.799   0.172  10.587
 6640SOL    HW221760   3.772   0.315  10.631
 6641SOL     OW21761  12.306   1.081   9.186
 6641SOL    HW121762  12.387   1.105   9.141
 6641SOL    HW221763  12.335   1.035   9.265
 6642SOL     OW21764   5.495   1.225   9.429
 6642SOL    HW121765   5.582   1.187   9.416
 6642SOL    HW221766   5.435   1.160   9.391
 6643SOL     OW21767   7.231   0.344  12.413
 6643SOL    HW121768   7.276   0.264  12.388
 6643SOL    HW221769   7.299   0.411  12.414
 6644SOL     OW21770  11.250   0.868   0.286
 6644SOL    HW121771  11.245   0.882   0.192
 6644SOL    HW221772  11.229   0.954   0.324
 6645SOL     OW21773  13.750   8.125   5.016
 6645SOL    HW121774  13.789   8.205   4.982
 6645SOL    HW221775  13.707   8.151   5.098
 6646SOL     OW21776   3.459  11.261  10.989
 6646SOL    HW121777   3.408  11.185  10.962
 6646SOL    HW221778   3.524  11.272  10.919
 6647SOL     OW21779  14.492  13.365  11.466
 6647SOL    HW121780  14.550  13.297  11.500
 6647SOL    HW221781  14.499  13.437  11.529
 6648SOL     OW21782   6.012  13.632   4.442
 6648SOL    HW121783   6.013  13.669   4.530
 6648SOL    HW221784   6.090  13.668   4.400
 6649SOL     OW21785   5.264  14.334   2.323
 6649SOL    HW121786   5.226  14.249   2.301
 6649SOL    HW221787   5.237  14.392   2.251
 6650SOL     OW21788   6.678   9.596  14.822
 6650SOL    HW121789   6.638   9.520  14.781
 6650SOL    HW221790   6.620   9.618   0.018
 6651SOL     OW21791   7.740   1.770   0.978
 6651SOL    HW121792   7.702   1.856   0.963
 6651SOL    HW221793   7.769   1.740   0.892
 6652SOL     OW21794   5.487  14.558   9.253
 6652SOL    HW121795   5.534  14.642   9.255
 6652SOL    HW221796   5.481  14.535   9.161
 6653SOL     OW21797   0.244  11.935  13.838
 6653SOL    HW121798   0.230  11.880  13.761
 6653SOL    HW221799   0.157  11.966  13.862
 6654SOL     OW21800  10.231   4.065   6.177
 6654SOL    HW121801  10.247   4.005   6.104
 6654SOL    HW221802  10.137   4.081   6.174
 6655SOL     OW21803   7.369   5.078  11.375
 6655SOL    HW121804   7.428   5.146  11.408
 6655SOL    HW221805   7.317   5.052  11.451
 6656SOL     OW21806   5.928   7.122  10.819
 6656SOL    HW121807   6.001   7.110  10.880
 6656SOL    HW221808   5.920   7.039  10.774
 6657SOL     OW21809   2.485   8.101   6.215
 6657SOL    HW121810   2.487   8.006   6.231
 6657SOL    HW221811   2.462   8.109   6.123
 6658SOL     OW21812   4.183  10.817  10.106
 6658SOL    HW121813   4.142  10.823  10.193
 6658SOL    HW221814   4.200  10.908  10.082
 6659SOL     OW21815   8.136   9.002  12.781
 6659SOL    HW121816   8.111   9.038  12.695
 6659SOL    HW221817   8.151   9.080  12.835
 6660SOL     OW21818   3.348  12.737   3.696
 6660SOL    HW121819   3.330  12.740   3.789
 6660SOL    HW221820   3.272  12.780   3.655
 6661SOL     OW21821   7.682   3.411   4.903
 6661SOL    HW121822   7.636   3.491   4.927
 6661SOL    HW221823   7.622   3.368   4.841
 6662SOL     OW21824  14.134   0.419  10.809
 6662SOL    HW121825  14.110   0.503  10.848
 6662SOL    HW221826  14.065   0.401  10.745
 6663SOL     OW21827   2.577  10.970   3.564
 6663SOL    HW121828   2.645  10.991   3.628
 6663SOL    HW221829   2.612  10.895   3.516
 6664SOL     OW21830  14.409   3.394   5.813
 6664SOL    HW121831  14.463   3.319   5.836
 6664SOL    HW221832  14.374   3.374   5.727
 6665SOL     OW21833   0.174   9.433   8.389
 6665SOL    HW121834   0.131   9.519   8.385
 6665SOL    HW221835   0.103   9.370   8.381
 6666SOL     OW21836  13.106  10.491   1.683
 6666SOL    HW121837  13.190  10.479   1.638
 6666SOL    HW221838  13.042  10.501   1.612
 6667SOL     OW21839   6.177   9.202  10.377
 6667SOL    HW121840   6.175   9.115  10.417
 6667SOL    HW221841   6.249   9.198  10.314
 6668SOL     OW21842   2.963   1.621   8.315
 6668SOL    HW121843   2.964   1.685   8.387
 6668SOL    HW221844   3.016   1.662   8.246
 6669SOL     OW21845  11.714  12.982   9.709
 6669SOL    HW121846  11.634  12.933   9.691
 6669SOL    HW221847  11.740  12.955   9.797
 6670SOL     OW21848   6.514  10.352   2.983
 6670SOL    HW121849   6.512  10.424   2.920
 6670SOL    HW221850   6.601  10.314   2.974
 6671SOL     OW21851   5.350   0.430  13.558
 6671SOL    HW121852   5.364   0.473  13.474
 6671SOL    HW221853   5.256   0.408  13.558
 6672SOL     OW21854   6.419   9.100   1.870
 6672SOL    HW121855   6.456   9.104   1.959
 6672SOL    HW221856   6.480   9.045   1.821
 6673SOL     OW21857  10.852   3.653   9.504
 6673SOL    HW121858  10.942   3.674   9.477
 6673SOL    HW221859  10.843   3.560   9.485
 6674SOL     OW21860   0.628   9.919   4.127
 6674SOL    HW121861   0.578   9.988   4.171
 6674SOL    HW221862   0.586   9.909   4.042
 6675SOL     OW21863  12.383   4.214   1.812
 6675SOL    HW121864  12.464   4.262   1.796
 6675SOL    HW221865  12.402   4.124   1.786
 6676SOL     OW21866   5.010   5.189  10.352
 6676SOL    HW121867   5.007   5.107  10.402
 6676SOL    HW221868   4.920   5.202  10.322
 6677SOL     OW21869   6.051   5.713   6.257
 6677SOL    HW121870   6.094   5.642   6.306
 6677SOL    HW221871   6.117   5.741   6.194
 6678SOL     OW21872   9.315   5.805   7.370
 6678SOL    HW121873   9.238   5.754   7.346
 6678SOL    HW221874   9.283   5.867   7.436
 6679SOL     OW21875   6.819   1.219   5.926
 6679SOL    HW121876   6.911   1.244   5.927
 6679SOL    HW221877   6.772   1.295   5.958
 6680SOL     OW21878  13.876  12.048   1.220
 6680SOL    HW121879  13.916  12.089   1.143
 6680SOL    HW221880  13.887  11.954   1.205
 6681SOL     OW21881   3.909   1.625  12.400
 6681SOL    HW121882   3.902   1.542  12.448
 6681SOL    HW221883   3.845   1.617  12.330
 6682SOL     OW21884   9.797   8.528  13.525
 6682SOL    HW121885   9.805   8.552  13.618
 6682SOL    HW221886   9.791   8.612  13.479
 6683SOL     OW21887   9.624   6.005  11.367
 6683SOL    HW121888   9.606   5.926  11.317
 6683SOL    HW221889   9.576   5.994  11.448
 6684SOL     OW21890   1.142   8.922   8.189
 6684SOL    HW121891   1.149   8.852   8.125
 6684SOL    HW221892   1.056   8.909   8.230
 6685SOL     OW21893   0.112   3.555   0.615
 6685SOL    HW121894   0.161   3.622   0.663
 6685SOL    HW221895   0.159   3.473   0.634
 6686SOL     OW21896  10.899   5.981   9.381
 6686SOL    HW121897  10.865   5.902   9.423
 6686SOL    HW221898  10.985   5.993   9.420
 6687SOL     OW21899  10.073  11.208  10.604
 6687SOL    HW121900  10.159  11.167  10.617
 6687SOL    HW221901  10.061  11.262  10.682
 6688SOL     OW21902  14.196  13.997   9.294
 6688SOL    HW121903  14.170  14.077   9.339
 6688SOL    HW221904  14.133  13.931   9.325
 6689SOL     OW21905   0.748   4.947  14.644
 6689SOL    HW121906   0.843   4.939  14.642
 6689SOL    HW221907   0.732   5.027  14.695
 6690SOL     OW21908   5.346   9.069   2.428
 6690SOL    HW121909   5.411   9.047   2.494
 6690SOL    HW221910   5.392   9.058   2.345
 6691SOL     OW21911  10.971  11.307   1.631
 6691SOL    HW121912  10.952  11.333   1.721
 6691SOL    HW221913  11.010  11.385   1.591
 6692SOL     OW21914  13.776  10.701   9.043
 6692SOL    HW121915  13.792  10.775   9.102
 6692SOL    HW221916  13.759  10.741   8.958
 6693SOL     OW21917   9.259  10.210   9.644
 6693SOL    HW121918   9.268  10.297   9.604
 6693SOL    HW221919   9.260  10.228   9.738
 6694SOL     OW21920  10.980  12.786   4.220
 6694SOL    HW121921  11.059  12.840   4.213
 6694SOL    HW221922  10.995  12.713   4.160
 6695SOL     OW21923   4.558   3.943   5.904
 6695SOL    HW121924   4.502   3.934   5.827
 6695SOL    HW221925   4.507   3.997   5.965
 6696SOL     OW21926  14.601  11.831  12.718
 6696SOL    HW121927  14.650  11.852  12.797
 6696SOL    HW221928  14.667  11.803  12.655
 6697SOL     OW21929  11.939   2.775   4.384
 6697SOL    HW121930  11.855   2.812   4.357
 6697SOL    HW221931  11.916   2.690   4.423
 6698SOL     OW21932   2.095   8.550   4.412
 6698SOL    HW121933   2.157   8.609   4.368
 6698SOL    HW221934   2.118   8.463   4.381
 6699SOL     OW21935  10.161   8.423  11.639
 6699SOL    HW121936  10.069   8.448  11.629
 6699SOL    HW221937  10.191   8.471  11.715
 6700SOL     OW21938   9.972   6.572  12.416
 6700SOL    HW121939   9.952   6.571  12.510
 6700SOL    HW221940  10.007   6.660  12.400
 6701SOL     OW21941   5.761  13.320   8.466
 6701SOL    HW121942   5.821  13.259   8.424
 6701SOL    HW221943   5.745  13.388   8.400
 6702SOL     OW21944  14.493  12.286   9.744
 6702SOL    HW121945  14.505  12.380   9.730
 6702SOL    HW221946  14.427  12.280   9.813
 6703SOL     OW21947   5.108   6.917  13.360
 6703SOL    HW121948   5.055   6.879  13.430
 6703SOL    HW221949   5.158   6.987  13.402
 6704SOL     OW21950  12.835   5.331   3.736
 6704SOL    HW121951  12.815   5.390   3.663
 6704SOL    HW221952  12.750   5.298   3.766
 6705SOL     OW21953   4.371   9.053   4.100
 6705SOL    HW121954   4.347   9.145   4.099
 6705SOL    HW221955   4.347   9.020   4.013
 6706SOL     OW21956   7.725   8.281   2.351
 6706SOL    HW121957   7.817   8.259   2.339
 6706SOL    HW221958   7.692   8.296   2.263
 6707SOL     OW21959  14.715   0.897   2.400
 6707SOL    HW121960  14.673   0.884   2.315
 6707SOL    HW221961  14.745   0.810   2.425
 6708SOL     OW21962  12.610   4.695   4.393
 6708SOL    HW121963  12.628   4.746   4.471
 6708SOL    HW221964  12.516   4.675   4.397
 6709SOL     OW21965  11.969  13.092  10.911
 6709SOL    HW121966  12.045  13.059  10.864
 6709SOL    HW221967  11.951  13.026  10.978
 6710SOL     OW21968   7.616   0.038   3.972
 6710SOL    HW121969   7.660   0.046   3.888
 6710SOL    HW221970   7.592  14.822   3.979
 6711SOL     OW21971   1.446   2.629   5.741
 6711SOL    HW121972   1.530   2.618   5.785
 6711SOL    HW221973   1.398   2.691   5.796
 6712SOL     OW21974  10.083   9.366   5.193
 6712SOL    HW121975  10.170   9.326   5.200
 6712SOL    HW221976  10.046   9.330   5.112
 6713SOL     OW21977   9.728   7.373   6.465
 6713SOL    HW121978   9.784   7.424   6.407
 6713SOL    HW221979   9.739   7.283   6.435
 6714SOL     OW21980   3.129   4.120   1.885
 6714SOL    HW121981   3.223   4.110   1.868
 6714SOL    HW221982   3.106   4.202   1.841
 6715SOL     OW21983   3.164   9.502   8.448
 6715SOL    HW121984   3.221   9.474   8.376
 6715SOL    HW221985   3.224   9.517   8.522
 6716SOL     OW21986   2.104   4.638   8.779
 6716SOL    HW121987   2.171   4.697   8.814
 6716SOL    HW221988   2.027   4.655   8.832
 6717SOL     OW21989   2.215   3.897   9.739
 6717SOL    HW121990   2.268   3.960   9.788
 6717SOL    HW221991   2.254   3.895   9.652
 6718SOL     OW21992   6.586  10.944   7.433
 6718SOL    HW121993   6.493  10.924   7.416
 6718SOL    HW221994   6.616  10.985   7.352
 6719SOL     OW21995   7.440  11.180  12.834
 6719SOL    HW121996   7.462  11.099  12.882
 6719SOL    HW221997   7.351  11.200  12.862
 6720SOL     OW21998   3.161  12.149  10.289
 6720SOL    HW121999   3.100  12.167  10.360
 6720SOL    HW222000   3.140  12.215  10.223
 6721SOL     OW22001   5.000   8.348   2.574
 6721SOL    HW122002   5.058   8.272   2.579
 6721SOL    HW222003   4.956   8.340   2.489
 6722SOL     OW22004   5.792   3.724   1.881
 6722SOL    HW122005   5.835   3.664   1.942
 6722SOL    HW222006   5.703   3.689   1.872
 6723SOL     OW22007   0.942  14.672   4.321
 6723SOL    HW122008   0.941  14.640   4.230
 6723SOL    HW222009   0.950  14.767   4.312
 6724SOL     OW22010   0.123   7.176  13.957
 6724SOL    HW122011   0.159   7.230  14.027
 6724SOL    HW222012   0.048   7.226  13.924
 6725SOL     OW22013   8.454  13.636   0.134
 6725SOL    HW122014   8.518  13.566   0.149
 6725SOL    HW222015   8.493  13.690   0.065
 6726SOL     OW22016   6.946   2.453  11.917
 6726SOL    HW122017   6.963   2.540  11.882
 6726SOL    HW222018   7.022   2.401  11.890
 6727SOL     OW22019   7.739  14.868   3.723
 6727SOL    HW122020   7.654   0.017   3.685
 6727SOL    HW222021   7.733  14.774   3.735
 6728SOL     OW22022   5.033   4.491   4.244
 6728SOL    HW122023   5.035   4.585   4.263
 6728SOL    HW222024   5.112   4.476   4.193
 6729SOL     OW22025   3.013  11.204   5.641
 6729SOL    HW122026   3.086  11.157   5.683
 6729SOL    HW222027   3.001  11.159   5.557
 6730SOL     OW22028   0.498   9.859   1.010
 6730SOL    HW122029   0.447   9.932   0.975
 6730SOL    HW222030   0.586   9.895   1.023
 6731SOL     OW22031   8.566   2.195  14.352
 6731SOL    HW122032   8.487   2.226  14.308
 6731SOL    HW222033   8.611   2.141  14.287
 6732SOL     OW22034   4.090   5.031   1.473
 6732SOL    HW122035   4.109   4.963   1.539
 6732SOL    HW222036   4.160   5.095   1.485
 6733SOL     OW22037   0.056   0.990   9.454
 6733SOL    HW122038   0.025   0.900   9.451
 6733SOL    HW222039   0.133   0.988   9.510
 6734SOL     OW22040  14.120   7.994   5.277
 6734SOL    HW122041  14.032   7.978   5.244
 6734SOL    HW222042  14.147   7.911   5.316
 6735SOL     OW22043   0.310  10.905   4.883
 6735SOL    HW122044   0.318  10.849   4.961
 6735SOL    HW222045   0.219  10.935   4.884
 6736SOL     OW22046   3.242   3.294  13.235
 6736SOL    HW122047   3.170   3.314  13.296
 6736SOL    HW222048   3.320   3.293  13.290
 6737SOL     OW22049  11.615   2.214   3.558
 6737SOL    HW122050  11.525   2.195   3.532
 6737SOL    HW222051  11.669   2.170   3.492
 6738SOL     OW22052  10.324   3.925   5.755
 6738SOL    HW122053  10.264   3.898   5.825
 6738SOL    HW222054  10.304   4.018   5.741
 6739SOL     OW22055  11.844  11.870   9.647
 6739SOL    HW122056  11.806  11.791   9.608
 6739SOL    HW222057  11.769  11.923   9.674
 6740SOL     OW22058  10.712   5.731   4.887
 6740SOL    HW122059  10.805   5.747   4.906
 6740SOL    HW222060  10.702   5.637   4.895
 6741SOL     OW22061   0.532  11.256  11.549
 6741SOL    HW122062   0.600  11.321  11.534
 6741SOL    HW222063   0.538  11.197  11.474
 6742SOL     OW22064   0.068  11.422  14.547
 6742SOL    HW122065   0.043  11.340  14.506
 6742SOL    HW222066   0.119  11.468  14.480
 6743SOL     OW22067  14.726   5.137   3.176
 6743SOL    HW122068  14.708   5.231   3.175
 6743SOL    HW222069  14.669   5.103   3.245
 6744SOL     OW22070  12.122   5.950   4.153
 6744SOL    HW122071  12.048   6.008   4.131
 6744SOL    HW222072  12.101   5.916   4.240
 6745SOL     OW22073   9.838  11.323   2.723
 6745SOL    HW122074   9.783  11.366   2.788
 6745SOL    HW222075   9.778  11.266   2.675
 6746SOL     OW22076   5.931   7.381   8.816
 6746SOL    HW122077   5.922   7.303   8.871
 6746SOL    HW222078   5.870   7.444   8.854
 6747SOL     OW22079   3.816   2.412   0.606
 6747SOL    HW122080   3.886   2.419   0.671
 6747SOL    HW222081   3.789   2.320   0.610
 6748SOL     OW22082  12.868   6.194   6.774
 6748SOL    HW122083  12.819   6.136   6.832
 6748SOL    HW222084  12.803   6.226   6.712
 6749SOL     OW22085   3.184  11.887   9.730
 6749SOL    HW122086   3.185  11.793   9.713
 6749SOL    HW222087   3.140  11.924   9.654
 6750SOL     OW22088   5.890  11.733   1.929
 6750SOL    HW122089   5.845  11.811   1.896
 6750SOL    HW222090   5.835  11.703   2.002
 6751SOL     OW22091   4.218   7.734   6.536
 6751SOL    HW122092   4.248   7.823   6.520
 6751SOL    HW222093   4.126   7.735   6.508
 6752SOL     OW22094   0.596   9.519   0.921
 6752SOL    HW122095   0.598   9.432   0.962
 6752SOL    HW222096   0.505   9.530   0.893
 6753SOL     OW22097  13.788   4.025  13.437
 6753SOL    HW122098  13.775   4.081  13.514
 6753SOL    HW222099  13.779   3.936  13.471
 6754SOL     OW22100  10.467   2.576   7.251
 6754SOL    HW122101  10.492   2.490   7.285
 6754SOL    HW222102  10.529   2.637   7.291
 6755SOL     OW22103   0.070  12.229   1.869
 6755SOL    HW122104   0.026  12.228   1.954
 6755SOL    HW222105   0.018  12.171   1.814
 6756SOL     OW22106   0.770  14.269   3.467
 6756SOL    HW122107   0.760  14.173   3.470
 6756SOL    HW222108   0.822  14.290   3.544
 6757SOL     OW22109   1.406   5.326   8.955
 6757SOL    HW122110   1.394   5.242   8.911
 6757SOL    HW222111   1.353   5.319   9.034
 6758SOL     OW22112   4.391   9.902  14.315
 6758SOL    HW122113   4.438   9.913  14.232
 6758SOL    HW222114   4.459   9.887  14.380
 6759SOL     OW22115   5.902  10.353  14.339
 6759SOL    HW122116   5.975  10.292  14.327
 6759SOL    HW222117   5.895  10.400  14.255
 6760SOL     OW22118   2.649   2.798  13.737
 6760SOL    HW122119   2.669   2.723  13.681
 6760SOL    HW222120   2.625   2.867  13.675
 6761SOL     OW22121   6.400  11.501   6.269
 6761SOL    HW122122   6.370  11.535   6.185
 6761SOL    HW222123   6.357  11.416   6.278
 6762SOL     OW22124  12.704  14.606   0.699
 6762SOL    HW122125  12.724  14.679   0.758
 6762SOL    HW222126  12.775  14.606   0.635
 6763SOL     OW22127   1.856   9.401  11.006
 6763SOL    HW122128   1.944   9.367  11.025
 6763SOL    HW222129   1.844   9.472  11.070
 6764SOL     OW22130   3.539   9.858   0.882
 6764SOL    HW122131   3.596   9.819   0.816
 6764SOL    HW222132   3.541   9.796   0.955
 6765SOL     OW22133   9.734  10.274   5.864
 6765SOL    HW122134   9.731  10.370   5.859
 6765SOL    HW222135   9.814  10.255   5.912
 6766SOL     OW22136  12.920  13.578  14.345
 6766SOL    HW122137  12.976  13.656  14.343
 6766SOL    HW222138  12.836  13.609  14.379
 6767SOL     OW22139  10.951  12.017   4.795
 6767SOL    HW122140  10.898  12.052   4.866
 6767SOL    HW222141  10.918  12.061   4.717
 6768SOL     OW22142  14.227   6.681  12.053
 6768SOL    HW122143  14.186   6.676  11.967
 6768SOL    HW222144  14.187   6.610  12.103
 6769SOL     OW22145   1.088  10.889  10.272
 6769SOL    HW122146   1.003  10.902  10.314
 6769SOL    HW222147   1.129  10.975  10.273
 6770SOL     OW22148   7.491   7.408  10.267
 6770SOL    HW122149   7.407   7.413  10.312
 6770SOL    HW222150   7.545   7.474  10.310
 6771SOL     OW22151   1.454   0.169   1.902
 6771SOL    HW122152   1.527   0.107   1.905
 6771SOL    HW222153   1.472   0.231   1.972
 6772SOL     OW22154   3.885   8.591   3.931
 6772SOL    HW122155   3.903   8.549   3.846
 6772SOL    HW222156   3.804   8.641   3.917
 6773SOL     OW22157   4.567  14.860  14.222
 6773SOL    HW122158   4.526  14.867  14.136
 6773SOL    HW222159   4.661  14.864  14.203
 6774SOL     OW22160  13.494  10.914  10.905
 6774SOL    HW122161  13.501  10.823  10.877
 6774SOL    HW222162  13.579  10.934  10.943
 6775SOL     OW22163   1.336   5.682   8.725
 6775SOL    HW122164   1.410   5.623   8.740
 6775SOL    HW222165   1.322   5.724   8.810
 6776SOL     OW22166   7.041   6.350   9.982
 6776SOL    HW122167   7.067   6.287   9.914
 6776SOL    HW222168   6.945   6.349   9.979
 6777SOL     OW22169   7.272  11.158  14.453
 6777SOL    HW122170   7.346  11.183  14.509
 6777SOL    HW222171   7.200  11.212  14.485
 6778SOL     OW22172   4.402   7.652   5.193
 6778SOL    HW122173   4.416   7.703   5.272
 6778SOL    HW222174   4.317   7.609   5.206
 6779SOL     OW22175   9.449   2.033   0.518
 6779SOL    HW122176   9.390   2.006   0.447
 6779SOL    HW222177   9.418   2.119   0.545
 6780SOL     OW22178   2.529   2.580   1.824
 6780SOL    HW122179   2.458   2.590   1.761
 6780SOL    HW222180   2.554   2.488   1.818
 6781SOL     OW22181   4.584   3.536   6.181
 6781SOL    HW122182   4.505   3.482   6.178
 6781SOL    HW222183   4.616   3.526   6.271
 6782SOL     OW22184  12.748   9.384   4.758
 6782SOL    HW122185  12.747   9.438   4.838
 6782SOL    HW222186  12.785   9.301   4.787
 6783SOL     OW22187   9.846   6.233  11.782
 6783SOL    HW122188   9.873   6.300  11.844
 6783SOL    HW222189   9.792   6.280  11.718
 6784SOL     OW22190  11.341  11.265   7.775
 6784SOL    HW122191  11.355  11.175   7.745
 6784SOL    HW222192  11.333  11.317   7.695
 6785SOL     OW22193   1.749   9.156   1.469
 6785SOL    HW122194   1.776   9.085   1.528
 6785SOL    HW222195   1.697   9.112   1.402
 6786SOL     OW22196  12.247   2.768  12.288
 6786SOL    HW122197  12.298   2.839  12.250
 6786SOL    HW222198  12.294   2.688  12.261
 6787SOL     OW22199   7.235   0.394  13.957
 6787SOL    HW122200   7.282   0.420  13.878
 6787SOL    HW222201   7.195   0.309  13.935
 6788SOL     OW22202   0.507  11.013   7.877
 6788SOL    HW122203   0.444  11.054   7.936
 6788SOL    HW222204   0.590  11.056   7.899
 6789SOL     OW22205  11.616  11.607   2.307
 6789SOL    HW122206  11.557  11.582   2.378
 6789SOL    HW222207  11.571  11.577   2.228
 6790SOL     OW22208   4.477  12.338   7.610
 6790SOL    HW122209   4.539  12.345   7.682
 6790SOL    HW222210   4.418  12.412   7.622
 6791SOL     OW22211   5.912   8.027   7.351
 6791SOL    HW122212   5.951   8.020   7.438
 6791SOL    HW222213   5.887   7.938   7.329
 6792SOL     OW22214   0.541   1.723   5.823
 6792SOL    HW122215   0.625   1.761   5.800
 6792SOL    HW222216   0.481   1.752   5.754
 6793SOL     OW22217   3.249  11.187   3.343
 6793SOL    HW122218   3.237  11.281   3.329
 6793SOL    HW222219   3.161  11.151   3.336
 6794SOL     OW22220  10.501  14.871   1.909
 6794SOL    HW122221  10.577  14.836   1.863
 6794SOL    HW222222  10.475   0.071   1.857
 6795SOL     OW22223   9.742   6.924   4.213
 6795SOL    HW122224   9.752   7.015   4.243
 6795SOL    HW222225   9.692   6.881   4.282
 6796SOL     OW22226  11.787  13.003   2.110
 6796SOL    HW122227  11.749  12.996   2.023
 6796SOL    HW222228  11.728  12.953   2.166
 6797SOL     OW22229   6.463  13.211  13.192
 6797SOL    HW122230   6.491  13.205  13.283
 6797SOL    HW222231   6.376  13.172  13.190
 6798SOL     OW22232   9.950   5.730   2.716
 6798SOL    HW122233   9.954   5.783   2.796
 6798SOL    HW222234   9.858   5.706   2.707
 6799SOL     OW22235   5.596   2.499   0.482
 6799SOL    HW122236   5.564   2.449   0.406
 6799SOL    HW222237   5.530   2.567   0.495
 6800SOL     OW22238   4.205  11.691   2.465
 6800SOL    HW122239   4.272  11.757   2.480
 6800SOL    HW222240   4.123  11.740   2.462
 6801SOL     OW22241   4.792   6.672  10.136
 6801SOL    HW122242   4.792   6.606  10.205
 6801SOL    HW222243   4.713   6.654  10.086
 6802SOL     OW22244   1.140  10.615   2.403
 6802SOL    HW122245   1.137  10.562   2.482
 6802SOL    HW222246   1.076  10.685   2.418
 6803SOL     OW22247   5.348   8.498   4.776
 6803SOL    HW122248   5.376   8.422   4.725
 6803SOL    HW222249   5.427   8.526   4.822
 6804SOL     OW22250  12.391  14.761   8.239
 6804SOL    HW122251  12.465  14.814   8.206
 6804SOL    HW222252  12.315  14.798   8.195
 6805SOL     OW22253   2.471   6.837   2.577
 6805SOL    HW122254   2.551   6.889   2.589
 6805SOL    HW222255   2.401   6.892   2.613
 6806SOL     OW22256  10.366   9.501  10.454
 6806SOL    HW122257  10.413   9.551  10.522
 6806SOL    HW222258  10.395   9.541  10.372
 6807SOL     OW22259   3.202  12.530  12.536
 6807SOL    HW122260   3.124  12.563  12.579
 6807SOL    HW222261   3.233  12.603  12.482
 6808SOL     OW22262  12.179  14.870  10.490
 6808SOL    HW122263  12.104   0.053  10.489
 6808SOL    HW222264  12.158  14.806  10.558
 6809SOL     OW22265  13.128   8.551  10.043
 6809SOL    HW122266  13.042   8.520  10.015
 6809SOL    HW222267  13.111   8.638  10.080
 6810SOL     OW22268   9.451  11.872  13.938
 6810SOL    HW122269   9.418  11.922  14.013
 6810SOL    HW222270   9.538  11.909  13.921
 6811SOL     OW22271   5.508  10.270  13.485
 6811SOL    HW122272   5.494  10.363  13.502
 6811SOL    HW222273   5.423  10.230  13.503
 6812SOL     OW22274   8.345   5.316   0.230
 6812SOL    HW122275   8.385   5.254   0.292
 6812SOL    HW222276   8.257   5.281   0.214
 6813SOL     OW22277   2.717   0.023   7.306
 6813SOL    HW122278   2.786   0.078   7.269
 6813SOL    HW222279   2.697   0.062   7.391
 6814SOL     OW22280   5.167   9.409   9.267
 6814SOL    HW122281   5.169   9.337   9.330
 6814SOL    HW222282   5.218   9.479   9.308
 6815SOL     OW22283  11.216   3.596   1.854
 6815SOL    HW122284  11.199   3.607   1.948
 6815SOL    HW222285  11.299   3.548   1.850
 6816SOL     OW22286   6.495   5.203   4.312
 6816SOL    HW122287   6.432   5.270   4.286
 6816SOL    HW222288   6.565   5.251   4.356
 6817SOL     OW22289   4.157  13.863  12.897
 6817SOL    HW122290   4.062  13.854  12.889
 6817SOL    HW222291   4.179  13.813  12.975
 6818SOL     OW22292  11.977  10.911   2.088
 6818SOL    HW122293  11.973  11.006   2.099
 6818SOL    HW222294  12.024  10.879   2.165
 6819SOL     OW22295   6.856   0.304   8.470
 6819SOL    HW122296   6.760   0.297   8.464
 6819SOL    HW222297   6.887   0.216   8.450
 6820SOL     OW22298   1.606  11.767   8.453
 6820SOL    HW122299   1.675  11.707   8.480
 6820SOL    HW222300   1.579  11.734   8.367
 6821SOL     OW22301   0.868  11.514   1.774
 6821SOL    HW122302   0.801  11.475   1.829
 6821SOL    HW222303   0.820  11.568   1.712
 6822SOL     OW22304  10.016   1.643  10.945
 6822SOL    HW122305   9.937   1.685  10.979
 6822SOL    HW222306   9.996   1.550  10.945
 6823SOL     OW22307   8.560   9.150   4.523
 6823SOL    HW122308   8.569   9.230   4.471
 6823SOL    HW222309   8.471   9.120   4.504
 6824SOL     OW22310   4.123   7.480   4.045
 6824SOL    HW122311   4.098   7.565   4.083
 6824SOL    HW222312   4.129   7.496   3.951
 6825SOL     OW22313   4.802   3.922   4.193
 6825SOL    HW122314   4.807   3.994   4.256
 6825SOL    HW222315   4.748   3.956   4.122
 6826SOL     OW22316   8.581   6.880   9.133
 6826SOL    HW122317   8.538   6.956   9.171
 6826SOL    HW222318   8.514   6.840   9.077
 6827SOL     OW22319   8.177  12.572   1.455
 6827SOL    HW122320   8.257  12.624   1.463
 6827SOL    HW222321   8.107  12.631   1.484
 6828SOL     OW22322  12.220   3.557   7.683
 6828SOL    HW122323  12.178   3.631   7.639
 6828SOL    HW222324  12.286   3.526   7.621
 6829SOL     OW22325   6.146  11.568   2.878
 6829SOL    HW122326   6.097  11.632   2.825
 6829SOL    HW222327   6.133  11.596   2.968
 6830SOL     OW22328  11.844  14.825  10.937
 6830SOL    HW122329  11.761  14.795  10.974
 6830SOL    HW222330  11.823  14.851  10.848
 6831SOL     OW22331   3.680   1.570   3.025
 6831SOL    HW122332   3.723   1.508   3.083
 6831SOL    HW222333   3.739   1.578   2.950
 6832SOL     OW22334   5.419   1.797   9.268
 6832SOL    HW122335   5.342   1.760   9.311
 6832SOL    HW222336   5.388   1.824   9.182
 6833SOL     OW22337   7.304  12.628   2.933
 6833SOL    HW122338   7.223  12.672   2.906
 6833SOL    HW222339   7.331  12.673   3.013
 6834SOL     OW22340   5.839  13.807   4.027
 6834SOL    HW122341   5.925  13.801   3.986
 6834SOL    HW222342   5.777  13.810   3.954
 6835SOL     OW22343   1.446  13.489  13.813
 6835SOL    HW122344   1.358  13.483  13.776
 6835SOL    HW222345   1.472  13.398  13.830
 6836SOL     OW22346   4.261  14.387   8.483
 6836SOL    HW122347   4.339  14.414   8.433
 6836SOL    HW222348   4.290  14.389   8.574
 6837SOL     OW22349  14.102   0.911   2.415
 6837SOL    HW122350  14.009   0.903   2.438
 6837SOL    HW222351  14.102   0.949   2.327
 6838SOL     OW22352  10.661   9.091  11.532
 6838SOL    HW122353  10.630   9.094  11.441
 6838SOL    HW222354  10.728   9.159  11.537
 6839SOL     OW22355   6.369  12.434   7.250
 6839SOL    HW122356   6.445  12.381   7.275
 6839SOL    HW222357   6.316  12.375   7.196
 6840SOL     OW22358   2.639   9.460   9.726
 6840SOL    HW122359   2.645   9.373   9.766
 6840SOL    HW222360   2.680   9.518   9.790
 6841SOL     OW22361   4.821   1.394  11.117
 6841SOL    HW122362   4.852   1.336  11.187
 6841SOL    HW222363   4.815   1.480  11.158
 6842SOL     OW22364   9.698   7.741   9.764
 6842SOL    HW122365   9.737   7.803   9.826
 6842SOL    HW222366   9.754   7.745   9.687
 6843SOL     OW22367  11.312   8.068  13.679
 6843SOL    HW122368  11.402   8.051  13.652
 6843SOL    HW222369  11.271   7.982  13.683
 6844SOL     OW22370  11.424  12.826   9.743
 6844SOL    HW122371  11.413  12.808   9.650
 6844SOL    HW222372  11.474  12.751   9.776
 6845SOL     OW22373   1.537   7.561  13.740
 6845SOL    HW122374   1.472   7.594  13.801
 6845SOL    HW222375   1.501   7.580  13.653
 6846SOL     OW22376   0.045   6.344   9.333
 6846SOL    HW122377   0.028   6.370   9.243
 6846SOL    HW222378   0.127   6.295   9.329
 6847SOL     OW22379   8.514   9.470  11.848
 6847SOL    HW122380   8.462   9.390  11.836
 6847SOL    HW222381   8.535   9.472  11.941
 6848SOL     OW22382  10.182   5.909  10.930
 6848SOL    HW122383  10.134   5.984  10.896
 6848SOL    HW222384  10.167   5.911  11.024
 6849SOL     OW22385   6.185   1.897   5.143
 6849SOL    HW122386   6.238   1.935   5.213
 6849SOL    HW222387   6.185   1.964   5.074
 6850SOL     OW22388   6.106   0.918   8.903
 6850SOL    HW122389   6.089   0.894   8.994
 6850SOL    HW222390   6.200   0.934   8.899
 6851SOL     OW22391   5.035  13.103   0.820
 6851SOL    HW122392   4.955  13.151   0.800
 6851SOL    HW222393   5.089  13.164   0.870
 6852SOL     OW22394  10.264   6.777   2.118
 6852SOL    HW122395  10.357   6.756   2.114
 6852SOL    HW222396  10.227   6.711   2.176
 6853SOL     OW22397   9.682   6.466   8.899
 6853SOL    HW122398   9.660   6.416   8.978
 6853SOL    HW222399   9.652   6.555   8.918
 6854SOL     OW22400   0.778   8.517   3.605
 6854SOL    HW122401   0.785   8.612   3.614
 6854SOL    HW222402   0.717   8.505   3.532
 6855SOL     OW22403   8.010   0.194   2.648
 6855SOL    HW122404   7.916   0.213   2.661
 6855SOL    HW222405   8.039   0.159   2.732
 6856SOL     OW22406  12.664   5.111   8.351
 6856SOL    HW122407  12.589   5.142   8.301
 6856SOL    HW222408  12.739   5.160   8.316
 6857SOL     OW22409   8.836   5.939   2.562
 6857SOL    HW122410   8.821   6.015   2.506
 6857SOL    HW222411   8.757   5.885   2.552
 6858SOL     OW22412  14.382   1.160   8.484
 6858SOL    HW122413  14.315   1.199   8.428
 6858SOL    HW222414  14.410   1.082   8.435
 6859SOL     OW22415   3.205  12.899   9.521
 6859SOL    HW122416   3.268  12.937   9.460
 6859SOL    HW222417   3.257  12.875   9.597
 6860SOL     OW22418  11.141  13.160   4.420
 6860SOL    HW122419  11.149  13.119   4.334
 6860SOL    HW222420  11.222  13.137   4.465
 6861SOL     OW22421  11.723  11.498   9.446
 6861SOL    HW122422  11.816  11.520   9.438
 6861SOL    HW222423  11.722  11.405   9.471
 6862SOL     OW22424   4.882  13.161   6.779
 6862SOL    HW122425   4.828  13.233   6.811
 6862SOL    HW222426   4.961  13.164   6.832
 6863SOL     OW22427   6.606  12.650   1.409
 6863SOL    HW122428   6.621  12.729   1.357
 6863SOL    HW222429   6.653  12.581   1.361
 6864SOL     OW22430  13.211  14.183   8.890
 6864SOL    HW122431  13.278  14.228   8.837
 6864SOL    HW222432  13.261  14.129   8.950
 6865SOL     OW22433   3.177   1.569   6.993
 6865SOL    HW122434   3.235   1.499   6.962
 6865SOL    HW222435   3.194   1.642   6.933
 6866SOL     OW22436   6.769   2.100   7.662
 6866SOL    HW122437   6.787   2.014   7.623
 6866SOL    HW222438   6.706   2.141   7.603
 6867SOL     OW22439   2.929   6.892   3.255
 6867SOL    HW122440   2.974   6.817   3.295
 6867SOL    HW222441   2.995   6.931   3.197
 6868SOL     OW22442   0.083   1.001   4.352
 6868SOL    HW122443   0.063   0.940   4.281
 6868SOL    HW222444   0.165   0.968   4.390
 6869SOL     OW22445   1.562  10.649   8.153
 6869SOL    HW122446   1.556  10.580   8.219
 6869SOL    HW222447   1.606  10.607   8.079
 6870SOL     OW22448   0.300  13.432   1.602
 6870SOL    HW122449   0.218  13.471   1.571
 6870SOL    HW222450   0.273  13.357   1.655
 6871SOL     OW22451  14.662   4.576   1.423
 6871SOL    HW122452  14.697   4.663   1.438
 6871SOL    HW222453  14.738   4.522   1.403
 6872SOL     OW22454  13.029  10.036   9.675
 6872SOL    HW122455  12.985  10.026   9.760
 6872SOL    HW222456  12.963  10.011   9.611
 6873SOL     OW22457   3.926   4.074  10.174
 6873SOL    HW122458   3.863   4.006  10.197
 6873SOL    HW222459   4.001   4.057  10.231
 6874SOL     OW22460   3.660  14.585   6.753
 6874SOL    HW122461   3.708  14.621   6.827
 6874SOL    HW222462   3.690  14.494   6.746
 6875SOL     OW22463  12.136  11.156   2.993
 6875SOL    HW122464  12.058  11.143   2.938
 6875SOL    HW222465  12.189  11.078   2.979
 6876SOL     OW22466   7.054   9.636   2.448
 6876SOL    HW122467   7.135   9.672   2.484
 6876SOL    HW222468   7.030   9.697   2.378
 6877SOL     OW22469   1.776   0.294  11.355
 6877SOL    HW122470   1.766   0.370  11.411
 6877SOL    HW222471   1.852   0.314  11.300
 6878SOL     OW22472  10.645   1.190  10.857
 6878SOL    HW122473  10.700   1.136  10.801
 6878SOL    HW222474  10.705   1.226  10.923
 6879SOL     OW22475   7.330  12.939   1.127
 6879SOL    HW122476   7.277  12.961   1.203
 6879SOL    HW222477   7.373  12.857   1.150
 6880SOL     OW22478   6.762   9.914  11.489
 6880SOL    HW122479   6.851   9.946  11.478
 6880SOL    HW222480   6.754   9.843  11.426
 6881SOL     OW22481   3.250  12.848   2.467
 6881SOL    HW122482   3.250  12.790   2.543
 6881SOL    HW222483   3.163  12.889   2.468
 6882SOL     OW22484   9.112   1.421   7.732
 6882SOL    HW122485   9.113   1.326   7.745
 6882SOL    HW222486   9.034   1.437   7.679
 6883SOL     OW22487  13.434   3.438  13.413
 6883SOL    HW122488  13.365   3.444  13.348
 6883SOL    HW222489  13.511   3.476  13.370
 6884SOL     OW22490  13.830   2.426  12.446
 6884SOL    HW122491  13.814   2.437  12.353
 6884SOL    HW222492  13.922   2.402  12.452
 6885SOL     OW22493   6.835   6.266   9.397
 6885SOL    HW122494   6.894   6.341   9.386
 6885SOL    HW222495   6.750   6.305   9.414
 6886SOL     OW22496  11.767   6.230   0.774
 6886SOL    HW122497  11.843   6.184   0.737
 6886SOL    HW222498  11.802   6.314   0.803
 6887SOL     OW22499   2.092   5.054  14.310
 6887SOL    HW122500   2.049   5.092  14.386
 6887SOL    HW222501   2.135   5.128  14.267
 6888SOL     OW22502  10.181   0.877   2.435
 6888SOL    HW122503  10.118   0.905   2.369
 6888SOL    HW222504  10.127   0.854   2.511
 6889SOL     OW22505  12.198   8.603   5.853
 6889SOL    HW122506  12.250   8.609   5.932
 6889SOL    HW222507  12.197   8.692   5.818
 6890SOL     OW22508   7.490  14.508  10.442
 6890SOL    HW122509   7.505  14.509  10.347
 6890SOL    HW222510   7.423  14.574  10.457
 6891SOL     OW22511   2.065   4.950   3.850
 6891SOL    HW122512   2.122   4.891   3.899
 6891SOL    HW222513   2.101   4.951   3.762
 6892SOL     OW22514   4.803   3.448   2.257
 6892SOL    HW122515   4.793   3.451   2.352
 6892SOL    HW222516   4.723   3.406   2.226
 6893SOL     OW22517  12.443   6.422  11.642
 6893SOL    HW122518  12.390   6.373  11.579
 6893SOL    HW222519  12.416   6.389  11.728
 6894SOL     OW22520   8.295   0.177   1.219
 6894SOL    HW122521   8.375   0.169   1.166
 6894SOL    HW222522   8.224   0.156   1.159
 6895SOL     OW22523  11.669   4.363  12.560
 6895SOL    HW122524  11.724   4.309  12.616
 6895SOL    HW222525  11.652   4.442  12.612
 6896SOL     OW22526  10.136  13.199   9.575
 6896SOL    HW122527  10.225  13.162   9.570
 6896SOL    HW222528  10.128  13.228   9.666
 6897SOL     OW22529  12.040   2.343   6.017
 6897SOL    HW122530  11.958   2.386   6.044
 6897SOL    HW222531  12.107   2.380   6.074
 6898SOL     OW22532   8.760  14.753   4.405
 6898SOL    HW122533   8.672  14.770   4.370
 6898SOL    HW222534   8.745  14.737   4.498
 6899SOL     OW22535  13.927   8.849  13.784
 6899SOL    HW122536  13.833   8.827  13.781
 6899SOL    HW222537  13.929   8.945  13.785
 6900SOL     OW22538   3.492  12.987   4.828
 6900SOL    HW122539   3.406  12.951   4.807
 6900SOL    HW222540   3.490  12.999   4.923
 6901SOL     OW22541   2.683  10.835  13.478
 6901SOL    HW122542   2.708  10.920  13.514
 6901SOL    HW222543   2.732  10.772  13.532
 6902SOL     OW22544   1.009  12.401   0.701
 6902SOL    HW122545   0.963  12.331   0.747
 6902SOL    HW222546   1.099  12.370   0.692
 6903SOL     OW22547  12.918  14.798  13.307
 6903SOL    HW122548  12.891  14.707  13.321
 6903SOL    HW222549  12.854  14.849  13.356
 6904SOL     OW22550  12.230   7.411   7.934
 6904SOL    HW122551  12.138   7.438   7.940
 6904SOL    HW222552  12.228   7.334   7.877
 6905SOL     OW22553   2.926   2.983  11.502
 6905SOL    HW122554   3.017   3.007  11.484
 6905SOL    HW222555   2.926   2.962  11.596
 6906SOL     OW22556  10.799   5.238   3.843
 6906SOL    HW122557  10.889   5.225   3.873
 6906SOL    HW222558  10.764   5.307   3.900
 6907SOL     OW22559   1.363   1.086   7.367
 6907SOL    HW122560   1.340   1.133   7.447
 6907SOL    HW222561   1.362   1.152   7.298
 6908SOL     OW22562  13.906   3.201   7.018
 6908SOL    HW122563  13.822   3.242   7.039
 6908SOL    HW222564  13.891   3.107   7.028
 6909SOL     OW22565   8.199   6.501  14.423
 6909SOL    HW122566   8.185   6.530  14.513
 6909SOL    HW222567   8.191   6.406  14.428
 6910SOL     OW22568   7.301   1.786   8.046
 6910SOL    HW122569   7.210   1.815   8.041
 6910SOL    HW222570   7.322   1.758   7.957
 6911SOL     OW22571   7.825  10.044   7.093
 6911SOL    HW122572   7.770   9.965   7.099
 6911SOL    HW222573   7.880  10.041   7.171
 6912SOL     OW22574   6.987   1.929   4.406
 6912SOL    HW122575   7.047   1.882   4.465
 6912SOL    HW222576   6.941   1.990   4.464
 6913SOL     OW22577   9.316   6.471  14.051
 6913SOL    HW122578   9.256   6.543  14.029
 6913SOL    HW222579   9.376   6.509  14.115
 6914SOL     OW22580   3.254   4.553   4.612
 6914SOL    HW122581   3.176   4.604   4.591
 6914SOL    HW222582   3.314   4.617   4.652
 6915SOL     OW22583  12.814   2.389   5.288
 6915SOL    HW122584  12.862   2.313   5.320
 6915SOL    HW222585  12.729   2.355   5.261
 6916SOL     OW22586  12.095  10.720  10.327
 6916SOL    HW122587  12.044  10.683  10.256
 6916SOL    HW222588  12.102  10.650  10.392
 6917SOL     OW22589  10.948  12.756   7.271
 6917SOL    HW122590  11.032  12.796   7.289
 6917SOL    HW222591  10.963  12.662   7.282
 6918SOL     OW22592   3.271  10.506   6.610
 6918SOL    HW122593   3.314  10.424   6.586
 6918SOL    HW222594   3.326  10.544   6.678
 6919SOL     OW22595   3.324   3.907   0.152
 6919SOL    HW122596   3.396   3.925   0.091
 6919SOL    HW222597   3.339   3.967   0.225
 6920SOL     OW22598  10.968   2.682   4.658
 6920SOL    HW122599  10.951   2.643   4.744
 6920SOL    HW222600  11.061   2.668   4.642
 6921SOL     OW22601  14.770  14.025  14.199
 6921SOL    HW122602  14.771  13.942  14.246
 6921SOL    HW222603  14.774  14.001  14.107
 6922SOL     OW22604   1.247   6.799   9.363
 6922SOL    HW122605   1.227   6.706   9.373
 6922SOL    HW222606   1.276   6.828   9.449
 6923SOL     OW22607  11.752   9.132  12.978
 6923SOL    HW122608  11.755   9.043  13.013
 6923SOL    HW222609  11.726   9.121  12.886
 6924SOL     OW22610   7.760   0.696  11.553
 6924SOL    HW122611   7.749   0.607  11.519
 6924SOL    HW222612   7.695   0.703  11.623
 6925SOL     OW22613  11.501   3.988   4.367
 6925SOL    HW122614  11.581   4.001   4.418
 6925SOL    HW222615  11.494   4.068   4.315
 6926SOL     OW22616   1.074   8.191   9.116
 6926SOL    HW122617   1.140   8.153   9.174
 6926SOL    HW222618   0.991   8.162   9.153
 6927SOL     OW22619   7.041   6.044  12.379
 6927SOL    HW122620   7.094   6.106  12.329
 6927SOL    HW222621   6.981   6.098  12.430
 6928SOL     OW22622   8.813   6.215   1.093
 6928SOL    HW122623   8.781   6.233   1.005
 6928SOL    HW222624   8.877   6.144   1.081
 6929SOL     OW22625   8.474   3.050   0.890
 6929SOL    HW122626   8.471   3.140   0.922
 6929SOL    HW222627   8.487   2.997   0.968
 6930SOL     OW22628  11.083  11.481   1.912
 6930SOL    HW122629  11.167  11.500   1.870
 6930SOL    HW222630  11.049  11.567   1.938
 6931SOL     OW22631   0.682   2.438   1.024
 6931SOL    HW122632   0.772   2.411   1.042
 6931SOL    HW222633   0.689   2.502   0.954
 6932SOL     OW22634   2.291  13.234   3.976
 6932SOL    HW122635   2.249  13.314   3.944
 6932SOL    HW222636   2.312  13.253   4.067
 6933SOL     OW22637   5.177  11.388   6.754
 6933SOL    HW122638   5.271  11.401   6.738
 6933SOL    HW222639   5.140  11.476   6.751
 6934SOL     OW22640   0.885   9.363   4.668
 6934SOL    HW122641   0.820   9.354   4.737
 6934SOL    HW222642   0.948   9.293   4.685
 6935SOL     OW22643   2.696   5.994  10.725
 6935SOL    HW122644   2.643   6.023  10.651
 6935SOL    HW222645   2.634   5.982  10.796
 6936SOL     OW22646   8.050  12.189   4.100
 6936SOL    HW122647   8.048  12.094   4.087
 6936SOL    HW222648   8.051  12.201   4.195
 6937SOL     OW22649   6.623  11.471  10.075
 6937SOL    HW122650   6.708  11.506  10.102
 6937SOL    HW222651   6.605  11.514   9.991
 6938SOL     OW22652  13.210   9.627   3.271
 6938SOL    HW122653  13.231   9.586   3.355
 6938SOL    HW222654  13.294   9.661   3.240
 6939SOL     OW22655   6.991   5.194   3.777
 6939SOL    HW122656   6.903   5.184   3.741
 6939SOL    HW222657   6.978   5.202   3.871
 6940SOL     OW22658   3.109  12.532  10.753
 6940SOL    HW122659   3.027  12.565  10.790
 6940SOL    HW222660   3.175  12.549  10.820
 6941SOL     OW22661   9.866   4.462   7.754
 6941SOL    HW122662   9.878   4.527   7.823
 6941SOL    HW222663   9.914   4.385   7.784
 6942SOL     OW22664  13.885   3.759   2.323
 6942SOL    HW122665  13.969   3.758   2.278
 6942SOL    HW222666  13.830   3.699   2.274
 6943SOL     OW22667   1.480   6.533   0.570
 6943SOL    HW122668   1.434   6.474   0.510
 6943SOL    HW222669   1.415   6.555   0.637
 6944SOL     OW22670  12.125   7.620   5.518
 6944SOL    HW122671  12.119   7.597   5.611
 6944SOL    HW222672  12.147   7.537   5.475
 6945SOL     OW22673   7.642   9.877   0.418
 6945SOL    HW122674   7.552   9.883   0.450
 6945SOL    HW222675   7.693   9.853   0.495
 6946SOL     OW22676   2.478   7.814  11.690
 6946SOL    HW122677   2.391   7.796  11.654
 6946SOL    HW222678   2.471   7.903  11.725
 6947SOL     OW22679   8.641   7.393   4.716
 6947SOL    HW122680   8.637   7.434   4.802
 6947SOL    HW222681   8.629   7.299   4.733
 6948SOL     OW22682   5.179   8.213  10.009
 6948SOL    HW122683   5.234   8.218   9.931
 6948SOL    HW222684   5.095   8.178   9.978
 6949SOL     OW22685   6.558   8.144   5.161
 6949SOL    HW122686   6.571   8.167   5.253
 6949SOL    HW222687   6.540   8.228   5.119
 6950SOL     OW22688  11.611   2.112   6.729
 6950SOL    HW122689  11.520   2.117   6.700
 6950SOL    HW222690  11.660   2.161   6.663
 6951SOL     OW22691   0.546  10.044   6.415
 6951SOL    HW122692   0.637  10.021   6.434
 6951SOL    HW222693   0.527  10.116   6.475
 6952SOL     OW22694  12.401   2.504   2.903
 6952SOL    HW122695  12.451   2.438   2.856
 6952SOL    HW222696  12.454   2.525   2.980
 6953SOL     OW22697  10.498  11.337   4.391
 6953SOL    HW122698  10.583  11.298   4.413
 6953SOL    HW222699  10.466  11.373   4.474
 6954SOL     OW22700   9.142  14.440   5.006
 6954SOL    HW122701   9.096  14.523   4.988
 6954SOL    HW222702   9.077  14.373   4.989
 6955SOL     OW22703   9.809  12.751  11.310
 6955SOL    HW122704   9.739  12.699  11.349
 6955SOL    HW222705   9.805  12.730  11.216
 6956SOL     OW22706  13.097   3.571   8.078
 6956SOL    HW122707  13.093   3.542   8.170
 6956SOL    HW222708  13.014   3.540   8.040
 6957SOL     OW22709   8.576  10.609  10.861
 6957SOL    HW122710   8.632  10.637  10.933
 6957SOL    HW222711   8.497  10.575  10.904
 6958SOL     OW22712   0.297   6.766   8.869
 6958SOL    HW122713   0.241   6.802   8.800
 6958SOL    HW222714   0.354   6.704   8.824
 6959SOL     OW22715   9.360   8.783  14.134
 6959SOL    HW122716   9.439   8.829  14.107
 6959SOL    HW222717   9.357   8.792  14.229
 6960SOL     OW22718  12.611   3.156  10.496
 6960SOL    HW122719  12.609   3.168  10.591
 6960SOL    HW222720  12.702   3.177  10.472
 6961SOL     OW22721   7.906  10.795   0.190
 6961SOL    HW122722   7.815  10.807   0.161
 6961SOL    HW222723   7.900  10.799   0.286
 6962SOL     OW22724  11.325   0.066   7.073
 6962SOL    HW122725  11.322   0.044   6.980
 6962SOL    HW222726  11.236   0.095   7.093
 6963SOL     OW22727   6.788  14.527  14.299
 6963SOL    HW122728   6.744  14.558  14.219
 6963SOL    HW222729   6.877  14.561  14.292
 6964SOL     OW22730  10.649  13.254   2.364
 6964SOL    HW122731  10.557  13.274   2.346
 6964SOL    HW222732  10.695  13.337   2.348
 6965SOL     OW22733   6.335  12.554  11.768
 6965SOL    HW122734   6.276  12.630  11.773
 6965SOL    HW222735   6.399  12.569  11.837
 6966SOL     OW22736   5.040  11.423  10.340
 6966SOL    HW122737   5.114  11.409  10.399
 6966SOL    HW222738   5.019  11.516  10.349
 6967SOL     OW22739   0.926   6.009   5.485
 6967SOL    HW122740   0.914   5.996   5.391
 6967SOL    HW222741   0.838   6.007   5.521
 6968SOL     OW22742   1.125   2.355   1.298
 6968SOL    HW122743   1.123   2.261   1.280
 6968SOL    HW222744   1.214   2.382   1.277
 6969SOL     OW22745   4.090   6.873  11.105
 6969SOL    HW122746   4.114   6.955  11.063
 6969SOL    HW222747   4.004   6.851  11.067
 6970SOL     OW22748  14.355   1.729   8.050
 6970SOL    HW122749  14.328   1.641   8.023
 6970SOL    HW222750  14.355   1.780   7.970
 6971SOL     OW22751  10.010   3.161   6.592
 6971SOL    HW122752  10.043   3.240   6.635
 6971SOL    HW222753  10.045   3.089   6.644
 6972SOL     OW22754  10.050   3.514  11.598
 6972SOL    HW122755  10.108   3.586  11.623
 6972SOL    HW222756   9.966   3.536  11.638
 6973SOL     OW22757   7.622   8.835  14.412
 6973SOL    HW122758   7.557   8.793  14.467
 6973SOL    HW222759   7.612   8.929  14.428
 6974SOL     OW22760   1.681   5.841  13.933
 6974SOL    HW122761   1.759   5.879  13.893
 6974SOL    HW222762   1.698   5.747  13.935
 6975SOL     OW22763   9.471   4.716  12.726
 6975SOL    HW122764   9.486   4.628  12.692
 6975SOL    HW222765   9.384   4.739  12.694
 6976SOL     OW22766   7.325   2.524   2.155
 6976SOL    HW122767   7.391   2.504   2.222
 6976SOL    HW222768   7.372   2.576   2.090
 6977SOL     OW22769   5.431   5.054  11.313
 6977SOL    HW122770   5.422   5.017  11.401
 6977SOL    HW222771   5.470   4.984  11.261
 6978SOL     OW22772  14.402   3.739  13.171
 6978SOL    HW122773  14.442   3.804  13.113
 6978SOL    HW222774  14.308   3.756  13.166
 6979SOL     OW22775   2.734   2.868   1.622
 6979SOL    HW122776   2.734   2.786   1.573
 6979SOL    HW222777   2.644   2.877   1.655
 6980SOL     OW22778   1.151  10.050   8.968
 6980SOL    HW122779   1.142  10.145   8.974
 6980SOL    HW222780   1.074  10.022   8.918
 6981SOL     OW22781   0.122   4.582   8.611
 6981SOL    HW122782   0.067   4.660   8.619
 6981SOL    HW222783   0.062   4.515   8.578
 6982SOL     OW22784   2.674   0.467   3.655
 6982SOL    HW122785   2.594   0.466   3.707
 6982SOL    HW222786   2.735   0.521   3.706
 6983SOL     OW22787   6.320   8.129  14.670
 6983SOL    HW122788   6.357   8.058  14.723
 6983SOL    HW222789   6.267   8.084  14.603
 6984SOL     OW22790   8.904   0.515   5.645
 6984SOL    HW122791   8.874   0.547   5.730
 6984SOL    HW222792   8.924   0.422   5.660
 6985SOL     OW22793  14.084  11.111   5.703
 6985SOL    HW122794  14.158  11.051   5.713
 6985SOL    HW222795  14.095  11.174   5.775
 6986SOL     OW22796  14.230   7.156  12.202
 6986SOL    HW122797  14.158   7.097  12.180
 6986SOL    HW222798  14.274   7.172  12.119
 6987SOL     OW22799   3.117   9.851   1.345
 6987SOL    HW122800   3.164   9.819   1.268
 6987SOL    HW222801   3.099   9.943   1.326
 6988SOL     OW22802   3.758   7.380  11.007
 6988SOL    HW122803   3.705   7.447  10.965
 6988SOL    HW222804   3.767   7.311  10.942
 6989SOL     OW22805  10.542  10.219  14.577
 6989SOL    HW122806  10.620  10.244  14.626
 6989SOL    HW222807  10.510  10.140  14.622
 6990SOL     OW22808   9.078   5.800   8.794
 6990SOL    HW122809   9.060   5.746   8.717
 6990SOL    HW222810   9.092   5.888   8.760
 6991SOL     OW22811  11.720   3.301   6.656
 6991SOL    HW122812  11.703   3.356   6.580
 6991SOL    HW222813  11.713   3.360   6.731
 6992SOL     OW22814  11.425   4.059  11.310
 6992SOL    HW122815  11.485   3.994  11.273
 6992SOL    HW222816  11.457   4.143  11.276
 6993SOL     OW22817   5.032   9.977   4.484
 6993SOL    HW122818   4.983  10.050   4.447
 6993SOL    HW222819   5.087   9.947   4.412
 6994SOL     OW22820  12.634  13.607   8.629
 6994SOL    HW122821  12.577  13.589   8.704
 6994SOL    HW222822  12.684  13.527   8.616
 6995SOL     OW22823  10.927   7.920   7.593
 6995SOL    HW122824  10.879   7.866   7.529
 6995SOL    HW222825  10.967   7.857   7.652
 6996SOL     OW22826   5.704   8.440  12.154
 6996SOL    HW122827   5.790   8.418  12.190
 6996SOL    HW222828   5.720   8.457  12.061
 6997SOL     OW22829   4.746  13.049   1.460
 6997SOL    HW122830   4.666  13.005   1.488
 6997SOL    HW222831   4.817  13.000   1.501
 6998SOL     OW22832  14.255   5.435  12.172
 6998SOL    HW122833  14.160   5.426  12.180
 6998SOL    HW222834  14.285   5.458  12.259
 6999SOL     OW22835   9.825   5.383  13.085
 6999SOL    HW122836   9.901   5.402  13.140
 6999SOL    HW222837   9.842   5.431  13.004
 7000SOL     OW22838  14.539   3.053   2.806
 7000SOL    HW122839  14.538   2.965   2.768
 7000SOL    HW222840  14.484   3.045   2.884
 7001SOL     OW22841   4.490   6.645   9.429
 7001SOL    HW122842   4.475   6.719   9.487
 7001SOL    HW222843   4.583   6.649   9.408
 7002SOL     OW22844   3.123   8.972   0.702
 7002SOL    HW122845   3.192   8.932   0.755
 7002SOL    HW222846   3.053   8.906   0.699
 7003SOL     OW22847   0.755   7.155  11.590
 7003SOL    HW122848   0.721   7.145  11.501
 7003SOL    HW222849   0.689   7.115  11.646
 7004SOL     OW22850  11.943   6.976   4.479
 7004SOL    HW122851  11.966   6.886   4.454
 7004SOL    HW222852  11.996   6.992   4.558
 7005SOL     OW22853   8.549  10.979   6.462
 7005SOL    HW122854   8.476  10.977   6.400
 7005SOL    HW222855   8.610  10.914   6.430
 7006SOL     OW22856  13.682  10.616   8.115
 7006SOL    HW122857  13.713  10.535   8.074
 7006SOL    HW222858  13.712  10.610   8.206
 7007SOL     OW22859   9.758  12.627   1.176
 7007SOL    HW122860   9.810  12.661   1.249
 7007SOL    HW222861   9.768  12.692   1.107
 7008SOL     OW22862   0.890   9.575   4.520
 7008SOL    HW122863   0.888   9.488   4.561
 7008SOL    HW222864   0.907   9.558   4.428
 7009SOL     OW22865   6.527   9.488   4.501
 7009SOL    HW122866   6.485   9.537   4.430
 7009SOL    HW222867   6.457   9.431   4.535
 7010SOL     OW22868   5.607   8.978   0.497
 7010SOL    HW122869   5.678   9.024   0.452
 7010SOL    HW222870   5.629   8.886   0.489
 7011SOL     OW22871   9.977  10.844   4.380
 7011SOL    HW122872  10.056  10.836   4.433
 7011SOL    HW222873   9.994  10.789   4.304
 7012SOL     OW22874   3.540   2.130   6.168
 7012SOL    HW122875   3.590   2.108   6.089
 7012SOL    HW222876   3.607   2.151   6.233
 7013SOL     OW22877   4.249  11.289   3.313
 7013SOL    HW122878   4.236  11.195   3.319
 7013SOL    HW222879   4.266  11.317   3.403
 7014SOL     OW22880   0.913  11.699  12.342
 7014SOL    HW122881   0.968  11.675  12.416
 7014SOL    HW222882   0.920  11.625  12.281
 7015SOL     OW22883  14.165  12.244   9.521
 7015SOL    HW122884  14.188  12.324   9.474
 7015SOL    HW222885  14.183  12.264   9.613
 7016SOL     OW22886  12.950   8.459   1.724
 7016SOL    HW122887  13.020   8.509   1.764
 7016SOL    HW222888  12.974   8.367   1.740
 7017SOL     OW22889   6.942   5.016   6.107
 7017SOL    HW122890   6.891   5.096   6.119
 7017SOL    HW222891   6.928   4.992   6.015
 7018SOL     OW22892   1.041   2.740   7.732
 7018SOL    HW122893   1.098   2.779   7.798
 7018SOL    HW222894   0.971   2.698   7.783
 7019SOL     OW22895  13.483  11.216  11.026
 7019SOL    HW122896  13.427  11.151  10.984
 7019SOL    HW222897  13.441  11.300  11.007
 7020SOL     OW22898   3.303   2.377   6.288
 7020SOL    HW122899   3.363   2.443   6.324
 7020SOL    HW222900   3.217   2.419   6.293
 7021SOL     OW22901   1.872   9.412   3.078
 7021SOL    HW122902   1.953   9.373   3.047
 7021SOL    HW222903   1.806   9.384   3.015
 7022SOL     OW22904   2.039   1.075   5.524
 7022SOL    HW122905   2.056   1.028   5.443
 7022SOL    HW222906   2.021   1.165   5.496
 7023SOL     OW22907   5.866   2.031   6.721
 7023SOL    HW122908   5.881   2.085   6.643
 7023SOL    HW222909   5.868   1.941   6.689
 7024SOL     OW22910  11.516  10.764  10.143
 7024SOL    HW122911  11.577  10.769  10.217
 7024SOL    HW222912  11.551  10.694  10.088
 7025SOL     OW22913   0.092  14.030   6.251
 7025SOL    HW122914   0.057  14.117   6.268
 7025SOL    HW222915   0.150  14.042   6.175
 7026SOL     OW22916   1.758   4.980   3.429
 7026SOL    HW122917   1.792   5.046   3.369
 7026SOL    HW222918   1.775   5.015   3.516
 7027SOL     OW22919   0.151   6.324   4.750
 7027SOL    HW122920   0.245   6.312   4.766
 7027SOL    HW222921   0.126   6.398   4.805
 7028SOL     OW22922   8.647   5.865  10.041
 7028SOL    HW122923   8.639   5.900   9.952
 7028SOL    HW222924   8.740   5.843  10.050
 7029SOL     OW22925   8.584  11.760   2.512
 7029SOL    HW122926   8.547  11.696   2.573
 7029SOL    HW222927   8.648  11.711   2.462
 7030SOL     OW22928   4.229   7.453  12.423
 7030SOL    HW122929   4.227   7.493  12.336
 7030SOL    HW222930   4.309   7.400  12.423
 7031SOL     OW22931  12.944   4.568   5.695
 7031SOL    HW122932  12.873   4.611   5.743
 7031SOL    HW222933  13.021   4.620   5.714
 7032SOL     OW22934   1.629   9.891  12.667
 7032SOL    HW122935   1.684   9.813  12.680
 7032SOL    HW222936   1.573   9.892  12.745
 7033SOL     OW22937  11.944   6.137   1.649
 7033SOL    HW122938  12.033   6.147   1.614
 7033SOL    HW222939  11.921   6.046   1.632
 7034SOL     OW22940   5.716   6.176   2.780
 7034SOL    HW122941   5.643   6.138   2.829
 7034SOL    HW222942   5.794   6.157   2.832
 7035SOL     OW22943   2.329   3.449  10.317
 7035SOL    HW122944   2.391   3.382  10.288
 7035SOL    HW222945   2.378   3.531  10.311
 7036SOL     OW22946   1.560   4.723   5.640
 7036SOL    HW122947   1.634   4.783   5.650
 7036SOL    HW222948   1.575   4.655   5.706
 7037SOL     OW22949  14.302  10.695   7.273
 7037SOL    HW122950  14.325  10.734   7.357
 7037SOL    HW222951  14.382  10.653   7.242
 7038SOL     OW22952   2.168  10.274   2.189
 7038SOL    HW122953   2.217  10.285   2.107
 7038SOL    HW222954   2.230  10.297   2.257
 7039SOL     OW22955   4.475  13.515   9.506
 7039SOL    HW122956   4.415  13.485   9.438
 7039SOL    HW222957   4.537  13.442   9.516
 7040SOL     OW22958   5.199   2.677  10.327
 7040SOL    HW122959   5.195   2.770  10.345
 7040SOL    HW222960   5.212   2.636  10.413
 7041SOL     OW22961   8.163   7.140   7.425
 7041SOL    HW122962   8.171   7.046   7.439
 7041SOL    HW222963   8.244   7.177   7.461
 7042SOL     OW22964   5.556  10.135  14.331
 7042SOL    HW122965   5.640  10.132  14.376
 7042SOL    HW222966   5.538  10.044  14.307
 7043SOL     OW22967   7.979   2.580   5.088
 7043SOL    HW122968   7.992   2.504   5.031
 7043SOL    HW222969   8.034   2.563   5.164
 7044SOL     OW22970   5.247   3.733   5.250
 7044SOL    HW122971   5.156   3.745   5.222
 7044SOL    HW222972   5.285   3.821   5.247
 7045SOL     OW22973   3.274   3.275  11.374
 7045SOL    HW122974   3.236   3.268  11.286
 7045SOL    HW222975   3.223   3.343  11.417
 7046SOL     OW22976   4.292  12.105   6.919
 7046SOL    HW122977   4.242  12.131   6.841
 7046SOL    HW222978   4.323  12.188   6.955
 7047SOL     OW22979   5.547   9.029  10.031
 7047SOL    HW122980   5.588   8.948  10.002
 7047SOL    HW222981   5.457   9.023   9.999
 7048SOL     OW22982   4.949   0.712   9.152
 7048SOL    HW122983   5.000   0.779   9.107
 7048SOL    HW222984   4.871   0.758   9.182
 7049SOL     OW22985  13.113   8.019   5.356
 7049SOL    HW122986  13.155   7.971   5.286
 7049SOL    HW222987  13.094   8.105   5.318
 7050SOL     OW22988   8.613  12.640  14.244
 7050SOL    HW122989   8.630  12.658  14.152
 7050SOL    HW222990   8.677  12.573  14.268
 7051SOL     OW22991  11.336   7.991   1.135
 7051SOL    HW122992  11.410   8.050   1.151
 7051SOL    HW222993  11.302   8.018   1.050
 7052SOL     OW22994  10.006   4.451   1.242
 7052SOL    HW122995  10.022   4.359   1.264
 7052SOL    HW222996   9.922   4.451   1.197
 7053SOL     OW22997   6.683   9.653  12.555
 7053SOL    HW122998   6.708   9.561  12.561
 7053SOL    HW222999   6.727   9.695  12.629
 7054SOL     OW23000  14.687   2.856   4.148
 7054SOL    HW123001  14.774   2.817   4.139
 7054SOL    HW223002  14.704   2.950   4.153
 7055SOL     OW23003   2.037  13.224  11.095
 7055SOL    HW123004   1.957  13.222  11.042
 7055SOL    HW223005   2.108  13.234  11.031
 7056SOL     OW23006   6.566  12.044   0.832
 7056SOL    HW123007   6.571  12.139   0.844
 7056SOL    HW223008   6.623  12.027   0.757
 7057SOL     OW23009   0.363   5.777   9.541
 7057SOL    HW123010   0.410   5.693   9.539
 7057SOL    HW223011   0.293   5.763   9.606
 7058SOL     OW23012   0.464   8.415   5.082
 7058SOL    HW123013   0.412   8.487   5.045
 7058SOL    HW223014   0.432   8.337   5.037
 7059SOL     OW23015   9.382   4.711   0.026
 7059SOL    HW123016   9.324   4.635   0.027
 7059SOL    HW223017   9.442   4.694  14.830
 7060SOL     OW23018   9.398   1.124   5.832
 7060SOL    HW123019   9.485   1.090   5.853
 7060SOL    HW223020   9.348   1.112   5.913
 7061SOL     OW23021   3.799   8.833   9.711
 7061SOL    HW123022   3.713   8.806   9.679
 7061SOL    HW223023   3.841   8.872   9.634
 7062SOL     OW23024   7.277  13.890   2.668
 7062SOL    HW123025   7.219  13.905   2.743
 7062SOL    HW223026   7.219  13.886   2.593
 7063SOL     OW23027   0.985   0.527   0.741
 7063SOL    HW123028   1.071   0.489   0.723
 7063SOL    HW223029   0.975   0.595   0.674
 7064SOL     OW23030   8.252  12.240   1.322
 7064SOL    HW123031   8.253  12.147   1.300
 7064SOL    HW223032   8.174  12.253   1.374
 7065SOL     OW23033   8.014   7.143   0.689
 7065SOL    HW123034   8.107   7.129   0.706
 7065SOL    HW223035   8.009   7.229   0.647
 7066SOL     OW23036   3.411   6.880   3.567
 7066SOL    HW123037   3.422   6.835   3.651
 7066SOL    HW223038   3.493   6.863   3.520
 7067SOL     OW23039   0.890   7.654  11.136
 7067SOL    HW123040   0.919   7.744  11.149
 7067SOL    HW223041   0.963   7.600  11.167
 7068SOL     OW23042   7.295  10.242  10.734
 7068SOL    HW123043   7.354  10.316  10.741
 7068SOL    HW223044   7.344  10.168  10.769
 7069SOL     OW23045   3.215   5.987  13.298
 7069SOL    HW123046   3.168   6.025  13.224
 7069SOL    HW223047   3.152   5.987  13.370
 7070SOL     OW23048   1.758   4.790   1.462
 7070SOL    HW123049   1.847   4.814   1.486
 7070SOL    HW223050   1.738   4.844   1.385
 7071SOL     OW23051   3.834   1.907   0.249
 7071SOL    HW123052   3.851   1.997   0.274
 7071SOL    HW223053   3.814   1.910   0.156
 7072SOL     OW23054   7.069  12.940  11.549
 7072SOL    HW123055   6.995  12.897  11.505
 7072SOL    HW223056   7.083  12.888  11.628
 7073SOL     OW23057   8.169  14.222   9.080
 7073SOL    HW123058   8.078  14.241   9.058
 7073SOL    HW223059   8.218  14.245   9.001
 7074SOL     OW23060  10.651   0.665  12.509
 7074SOL    HW123061  10.619   0.616  12.585
 7074SOL    HW223062  10.745   0.670  12.521
 7075SOL     OW23063   9.772   7.744  12.827
 7075SOL    HW123064   9.814   7.793  12.755
 7075SOL    HW223065   9.835   7.749  12.898
 7076SOL     OW23066   0.068   9.288  12.772
 7076SOL    HW123067   0.035   9.329  12.852
 7076SOL    HW223068   0.161   9.272  12.791
 7077SOL     OW23069   5.596  14.668  13.690
 7077SOL    HW123070   5.554  14.650  13.606
 7077SOL    HW223071   5.583  14.762  13.704
 7078SOL     OW23072   9.607   5.750   0.433
 7078SOL    HW123073   9.635   5.804   0.507
 7078SOL    HW223074   9.617   5.808   0.357
 7079SOL     OW23075   4.232   2.117   4.159
 7079SOL    HW123076   4.304   2.057   4.138
 7079SOL    HW223077   4.172   2.110   4.085
 7080SOL     OW23078   2.543   3.290   6.137
 7080SOL    HW123079   2.502   3.358   6.191
 7080SOL    HW223080   2.637   3.306   6.144
 7081SOL     OW23081   1.857   4.556  10.432
 7081SOL    HW123082   1.941   4.516  10.412
 7081SOL    HW223083   1.876   4.615  10.505
 7082SOL     OW23084  10.374   4.600  14.822
 7082SOL    HW123085  10.368   4.696  14.822
 7082SOL    HW223086  10.351   4.575  14.733
 7083SOL     OW23087   7.204  12.332  12.504
 7083SOL    HW123088   7.281  12.291  12.545
 7083SOL    HW223089   7.189  12.411  12.556
 7084SOL     OW23090   3.303  11.054  10.917
 7084SOL    HW123091   3.310  10.971  10.964
 7084SOL    HW223092   3.211  11.079  10.926
 7085SOL     OW23093   8.499   0.896   8.570
 7085SOL    HW123094   8.472   0.946   8.494
 7085SOL    HW223095   8.432   0.914   8.636
 7086SOL     OW23096   9.908   6.324  14.230
 7086SOL    HW123097   9.885   6.231  14.239
 7086SOL    HW223098   9.973   6.326  14.160
 7087SOL     OW23099  13.551   8.334   7.911
 7087SOL    HW123100  13.504   8.408   7.948
 7087SOL    HW223101  13.560   8.355   7.818
 7088SOL     OW23102  11.204   5.424   6.332
 7088SOL    HW123103  11.248   5.340   6.327
 7088SOL    HW223104  11.274   5.488   6.348
 7089SOL     OW23105   0.332   6.915   9.797
 7089SOL    HW123106   0.242   6.910   9.828
 7089SOL    HW223107   0.377   6.844   9.842
 7090SOL     OW23108  14.047   1.423   5.331
 7090SOL    HW123109  14.031   1.371   5.252
 7090SOL    HW223110  14.095   1.500   5.300
 7091SOL     OW23111  14.421   2.816   3.777
 7091SOL    HW123112  14.363   2.740   3.783
 7091SOL    HW223113  14.366   2.891   3.801
 7092SOL     OW23114   4.282   7.023   1.582
 7092SOL    HW123115   4.287   7.118   1.573
 7092SOL    HW223116   4.211   7.008   1.644
 7093SOL     OW23117   4.276   0.831   0.693
 7093SOL    HW123118   4.235   0.896   0.636
 7093SOL    HW223119   4.271   0.870   0.781
 7094SOL     OW23120  14.403   3.796   0.124
 7094SOL    HW123121  14.335   3.854   0.158
 7094SOL    HW223122  14.448   3.765   0.202
 7095SOL     OW23123   4.662   8.766  14.560
 7095SOL    HW123124   4.654   8.748  14.466
 7095SOL    HW223125   4.698   8.685  14.597
 7096SOL     OW23126   7.946   3.719  11.714
 7096SOL    HW123127   8.040   3.700  11.714
 7096SOL    HW223128   7.940   3.810  11.687
 7097SOL     OW23129   8.117   3.073   1.472
 7097SOL    HW123130   8.123   3.101   1.564
 7097SOL    HW223131   8.148   2.983   1.472
 7098SOL     OW23132   9.968   8.592  13.165
 7098SOL    HW123133  10.030   8.656  13.201
 7098SOL    HW223134   9.884   8.616  13.205
 7099SOL     OW23135  10.892  10.916   0.235
 7099SOL    HW123136  10.983  10.893   0.215
 7099SOL    HW223137  10.897  10.992   0.292
 7100SOL     OW23138   2.527  11.755   8.859
 7100SOL    HW123139   2.463  11.716   8.918
 7100SOL    HW223140   2.508  11.714   8.774
 7101SOL     OW23141   6.991   6.881   9.052
 7101SOL    HW123142   6.945   6.963   9.070
 7101SOL    HW223143   6.935   6.813   9.091
 7102SOL     OW23144   2.004   3.362  13.717
 7102SOL    HW123145   1.936   3.314  13.764
 7102SOL    HW223146   2.086   3.329  13.752
 7103SOL     OW23147   2.255  14.167   9.183
 7103SOL    HW123148   2.201  14.091   9.206
 7103SOL    HW223149   2.243  14.228   9.256
 7104SOL     OW23150  14.492  13.460  13.232
 7104SOL    HW123151  14.471  13.443  13.140
 7104SOL    HW223152  14.414  13.503  13.267
 7105SOL     OW23153   4.459   1.656   4.137
 7105SOL    HW123154   4.536   1.700   4.172
 7105SOL    HW223155   4.493   1.579   4.092
 7106SOL     OW23156  11.504   3.866   8.919
 7106SOL    HW123157  11.436   3.919   8.876
 7106SOL    HW223158  11.465   3.778   8.925
 7107SOL     OW23159   9.467   3.231   7.654
 7107SOL    HW123160   9.524   3.307   7.647
 7107SOL    HW223161   9.388   3.256   7.606
 7108SOL     OW23162   8.526   2.673   7.243
 7108SOL    HW123163   8.541   2.765   7.220
 7108SOL    HW223164   8.445   2.650   7.199
 7109SOL     OW23165   8.673   3.347   6.667
 7109SOL    HW123166   8.586   3.308   6.674
 7109SOL    HW223167   8.707   3.346   6.756
 7110SOL     OW23168   5.176   0.452  11.057
 7110SOL    HW123169   5.224   0.421  10.981
 7110SOL    HW223170   5.171   0.547  11.045
 7111SOL     OW23171  12.767   8.178  10.893
 7111SOL    HW123172  12.762   8.251  10.831
 7111SOL    HW223173  12.835   8.204  10.955
 7112SOL     OW23174   9.346   6.001   0.669
 7112SOL    HW123175   9.374   6.045   0.589
 7112SOL    HW223176   9.380   6.056   0.740
 7113SOL     OW23177  11.582  12.998   2.469
 7113SOL    HW123178  11.646  13.068   2.479
 7113SOL    HW223179  11.622  12.937   2.407
 7114SOL     OW23180  10.687   8.468   9.844
 7114SOL    HW123181  10.767   8.421   9.823
 7114SOL    HW223182  10.684   8.540   9.781
 7115SOL     OW23183  11.360   6.459   6.860
 7115SOL    HW123184  11.281   6.409   6.838
 7115SOL    HW223185  11.404   6.473   6.776
 7116SOL     OW23186   8.462   6.765   3.441
 7116SOL    HW123187   8.556   6.781   3.429
 7116SOL    HW223188   8.457   6.688   3.497
 7117SOL     OW23189   6.966   1.163   7.518
 7117SOL    HW123190   6.894   1.156   7.580
 7117SOL    HW223191   6.942   1.105   7.446
 7118SOL     OW23192   5.920   6.244  13.715
 7118SOL    HW123193   5.973   6.205  13.785
 7118SOL    HW223194   5.894   6.329  13.749
 7119SOL     OW23195   5.882   8.650   9.331
 7119SOL    HW123196   5.822   8.723   9.344
 7119SOL    HW223197   5.969   8.690   9.331
 7120SOL     OW23198   6.424   1.501  12.715
 7120SOL    HW123199   6.450   1.510  12.806
 7120SOL    HW223200   6.429   1.589  12.679
 7121SOL     OW23201   2.086   0.362  10.177
 7121SOL    HW123202   2.089   0.281  10.126
 7121SOL    HW223203   2.087   0.432  10.112
 7122SOL     OW23204   9.245   7.566   1.585
 7122SOL    HW123205   9.183   7.590   1.654
 7122SOL    HW223206   9.192   7.555   1.507
 7123SOL     OW23207   6.703  12.854  12.107
 7123SOL    HW123208   6.768  12.923  12.121
 7123SOL    HW223209   6.620  12.901  12.097
 7124SOL     OW23210   2.307   6.467   4.192
 7124SOL    HW123211   2.293   6.510   4.108
 7124SOL    HW223212   2.358   6.389   4.171
 7125SOL     OW23213  13.132   6.971   3.712
 7125SOL    HW123214  13.066   6.946   3.777
 7125SOL    HW223215  13.157   6.889   3.670
 7126SOL     OW23216   4.153  12.887   6.074
 7126SOL    HW123217   4.237  12.881   6.118
 7126SOL    HW223218   4.142  12.980   6.054
 7127SOL     OW23219   1.176  13.503   7.752
 7127SOL    HW123220   1.213  13.506   7.664
 7127SOL    HW223221   1.221  13.573   7.800
 7128SOL     OW23222   8.758  12.722  11.110
 7128SOL    HW123223   8.699  12.702  11.183
 7128SOL    HW223224   8.840  12.679  11.134
 7129SOL     OW23225   0.165  12.362   5.369
 7129SOL    HW123226   0.256  12.363   5.398
 7129SOL    HW223227   0.116  12.327   5.443
 7130SOL     OW23228  10.953   9.631   0.370
 7130SOL    HW123229  10.863   9.614   0.340
 7130SOL    HW223230  10.995   9.673   0.294
 7131SOL     OW23231   2.162   3.050   6.662
 7131SOL    HW123232   2.129   3.035   6.751
 7131SOL    HW223233   2.256   3.060   6.673
 7132SOL     OW23234   5.819   6.938  13.210
 7132SOL    HW123235   5.914   6.929  13.205
 7132SOL    HW223236   5.800   7.015  13.156
 7133SOL     OW23237   7.091   6.962  10.591
 7133SOL    HW123238   7.018   6.901  10.590
 7133SOL    HW223239   7.158   6.921  10.536
 7134SOL     OW23240   4.127  13.688  12.499
 7134SOL    HW123241   4.084  13.662  12.581
 7134SOL    HW223242   4.220  13.682  12.518
 7135SOL     OW23243   1.918  14.092   1.359
 7135SOL    HW123244   1.973  14.029   1.406
 7135SOL    HW223245   1.833  14.048   1.350
 7136SOL     OW23246  11.467   8.494   4.396
 7136SOL    HW123247  11.442   8.468   4.308
 7136SOL    HW223248  11.492   8.413   4.440
 7137SOL     OW23249  14.836   8.770   3.456
 7137SOL    HW123250  14.844   8.679   3.483
 7137SOL    HW223251  14.778   8.809   3.522
 7138SOL     OW23252  13.560   5.678   8.814
 7138SOL    HW123253  13.556   5.740   8.741
 7138SOL    HW223254  13.585   5.732   8.889
 7139SOL     OW23255  12.728   8.659  11.470
 7139SOL    HW123256  12.741   8.651  11.375
 7139SOL    HW223257  12.680   8.580  11.494
 7140SOL     OW23258  12.536  10.862   6.252
 7140SOL    HW123259  12.578  10.794   6.199
 7140SOL    HW223260  12.518  10.933   6.191
 7141SOL     OW23261   2.113  13.782  10.660
 7141SOL    HW123262   2.114  13.863  10.609
 7141SOL    HW223263   2.092  13.810  10.749
 7142SOL     OW23264   7.423   3.532   8.639
 7142SOL    HW123265   7.494   3.477   8.674
 7142SOL    HW223266   7.396   3.487   8.559
 7143SOL     OW23267   4.470   1.749  11.815
 7143SOL    HW123268   4.454   1.790  11.901
 7143SOL    HW223269   4.566   1.749  11.807
 7144SOL     OW23270  14.564   5.443  11.063
 7144SOL    HW123271  14.549   5.418  10.972
 7144SOL    HW223272  14.484   5.417  11.109
 7145SOL     OW23273   0.900   3.989   2.331
 7145SOL    HW123274   0.895   4.060   2.396
 7145SOL    HW223275   0.963   3.928   2.367
 7146SOL     OW23276   8.909   4.695  12.873
 7146SOL    HW123277   8.880   4.652  12.953
 7146SOL    HW223278   8.846   4.766  12.860
 7147SOL     OW23279  12.846  14.876  14.544
 7147SOL    HW123280  12.850   0.081  14.495
 7147SOL    HW223281  12.786  14.820  14.495
 7148SOL     OW23282   2.212  11.254   5.618
 7148SOL    HW123283   2.118  11.262   5.633
 7148SOL    HW223284   2.224  11.278   5.526
 7149SOL     OW23285   8.831  14.032  10.847
 7149SOL    HW123286   8.746  13.989  10.838
 7149SOL    HW223287   8.811  14.125  10.848
 7150SOL     OW23288   5.443   5.932   1.408
 7150SOL    HW123289   5.413   5.850   1.447
 7150SOL    HW223290   5.538   5.933   1.423
 7151SOL     OW23291   6.335   3.213   5.893
 7151SOL    HW123292   6.325   3.299   5.853
 7151SOL    HW223293   6.427   3.208   5.917
 7152SOL     OW23294   9.165  13.276   4.856
 7152SOL    HW123295   9.151  13.313   4.769
 7152SOL    HW223296   9.141  13.184   4.846
 7153SOL     OW23297  10.581   9.797   2.729
 7153SOL    HW123298  10.535   9.802   2.812
 7153SOL    HW223299  10.536   9.861   2.673
 7154SOL     OW23300   1.673   1.114  11.408
 7154SOL    HW123301   1.614   1.173  11.363
 7154SOL    HW223302   1.617   1.042  11.439
 7155SOL     OW23303   6.039   2.504  13.322
 7155SOL    HW123304   6.061   2.480  13.232
 7155SOL    HW223305   6.038   2.600  13.322
 7156SOL     OW23306  11.629  11.248   5.028
 7156SOL    HW123307  11.583  11.216   4.950
 7156SOL    HW223308  11.661  11.335   5.003
 7157SOL     OW23309   8.037  14.216  11.072
 7157SOL    HW123310   7.994  14.289  11.027
 7157SOL    HW223311   8.130  14.229  11.053
 7158SOL     OW23312   6.073   2.105   1.925
 7158SOL    HW123313   6.080   2.037   1.858
 7158SOL    HW223314   6.071   2.057   2.008
 7159SOL     OW23315  10.524   1.039   7.586
 7159SOL    HW123316  10.490   1.035   7.497
 7159SOL    HW223317  10.450   1.067   7.639
 7160SOL     OW23318  14.166  12.532   7.079
 7160SOL    HW123319  14.088  12.545   7.132
 7160SOL    HW223320  14.175  12.438   7.071
 7161SOL     OW23321   9.576  10.381  10.100
 7161SOL    HW123322   9.614  10.321  10.164
 7161SOL    HW223323   9.554  10.459  10.151
 7162SOL     OW23324  14.553  13.929  10.050
 7162SOL    HW123325  14.630  13.980  10.076
 7162SOL    HW223326  14.540  13.951   9.958
 7163SOL     OW23327   6.302  10.884  14.701
 7163SOL    HW123328   6.379  10.937  14.681
 7163SOL    HW223329   6.234  10.915  14.641
 7164SOL     OW23330   1.877   5.530   2.188
 7164SOL    HW123331   1.868   5.619   2.153
 7164SOL    HW223332   1.878   5.474   2.111
 7165SOL     OW23333  12.992   9.728   6.053
 7165SOL    HW123334  12.963   9.798   6.112
 7165SOL    HW223335  12.926   9.726   5.984
 7166SOL     OW23336   5.506  11.098   7.684
 7166SOL    HW123337   5.525  11.012   7.648
 7166SOL    HW223338   5.461  11.080   7.766
 7167SOL     OW23339   2.822   3.128   3.632
 7167SOL    HW123340   2.755   3.159   3.571
 7167SOL    HW223341   2.837   3.037   3.607
 7168SOL     OW23342  13.026  12.859  11.621
 7168SOL    HW123343  13.084  12.811  11.680
 7168SOL    HW223344  13.084  12.902  11.559
 7169SOL     OW23345   5.819   4.672   5.251
 7169SOL    HW123346   5.766   4.593   5.252
 7169SOL    HW223347   5.763   4.740   5.287
 7170SOL     OW23348  11.980  12.909  13.489
 7170SOL    HW123349  11.918  12.893  13.418
 7170SOL    HW223350  11.967  13.002  13.510
 7171SOL     OW23351   1.456   8.829   0.176
 7171SOL    HW123352   1.455   8.858   0.267
 7171SOL    HW223353   1.499   8.900   0.129
 7172SOL     OW23354  14.442   9.833  13.890
 7172SOL    HW123355  14.530   9.868  13.905
 7172SOL    HW223356  14.452   9.776  13.814
 7173SOL     OW23357   1.222   0.800   5.892
 7173SOL    HW123358   1.252   0.885   5.925
 7173SOL    HW223359   1.282   0.779   5.820
 7174SOL     OW23360   0.601  14.156   4.491
 7174SOL    HW123361   0.676  14.215   4.500
 7174SOL    HW223362   0.576  14.135   4.582
 7175SOL     OW23363  12.963   9.469   6.356
 7175SOL    HW123364  13.012   9.476   6.274
 7175SOL    HW223365  13.030   9.461   6.424
 7176SOL     OW23366   2.968   4.483   4.732
 7176SOL    HW123367   2.920   4.560   4.763
 7176SOL    HW223368   3.057   4.515   4.716
 7177SOL     OW23369  11.831  11.698   3.975
 7177SOL    HW123370  11.798  11.650   3.899
 7177SOL    HW223371  11.752  11.726   4.022
 7178SOL     OW23372   3.445   4.018   9.894
 7178SOL    HW123373   3.527   4.036   9.940
 7178SOL    HW223374   3.468   4.022   9.801
 7179SOL     OW23375  14.786   8.619   8.098
 7179SOL    HW123376  14.831   8.676   8.160
 7179SOL    HW223377  14.791   8.532   8.136
 7180SOL     OW23378  12.540   6.458   7.720
 7180SOL    HW123379  12.583   6.399   7.782
 7180SOL    HW223380  12.593   6.538   7.723
 7181SOL     OW23381   2.395  10.685   2.253
 7181SOL    HW123382   2.453  10.761   2.254
 7181SOL    HW223383   2.416  10.639   2.172
 7182SOL     OW23384  14.020  11.104  13.288
 7182SOL    HW123385  14.075  11.031  13.318
 7182SOL    HW223386  13.960  11.064  13.225
 7183SOL     OW23387   1.663  11.789   1.943
 7183SOL    HW123388   1.728  11.858   1.956
 7183SOL    HW223389   1.589  11.815   1.999
 7184SOL     OW23390   3.383   5.011   3.996
 7184SOL    HW123391   3.315   5.035   3.933
 7184SOL    HW223392   3.462   5.052   3.962
 7185SOL     OW23393   9.093  13.140   1.006
 7185SOL    HW123394   9.051  13.085   0.940
 7185SOL    HW223395   9.179  13.160   0.969
 7186SOL     OW23396   2.084   2.519   1.066
 7186SOL    HW123397   2.099   2.435   1.023
 7186SOL    HW223398   2.044   2.574   0.999
 7187SOL     OW23399  11.772  13.206   2.862
 7187SOL    HW123400  11.849  13.244   2.905
 7187SOL    HW223401  11.742  13.137   2.922
 7188SOL     OW23402   3.140  11.997   7.385
 7188SOL    HW123403   3.046  11.999   7.367
 7188SOL    HW223404   3.180  12.042   7.311
 7189SOL     OW23405   5.185  13.965  13.580
 7189SOL    HW123406   5.094  13.937  13.595
 7189SOL    HW223407   5.213  13.917  13.503
 7190SOL     OW23408  12.330  11.218  12.099
 7190SOL    HW123409  12.312  11.175  12.182
 7190SOL    HW223410  12.378  11.154  12.047
 7191SOL     OW23411   2.213  11.132  10.997
 7191SOL    HW123412   2.157  11.062  11.030
 7191SOL    HW223413   2.205  11.127  10.902
 7192SOL     OW23414   1.490   7.598   4.542
 7192SOL    HW123415   1.480   7.693   4.541
 7192SOL    HW223416   1.441   7.570   4.619
 7193SOL     OW23417   3.700   7.944  13.504
 7193SOL    HW123418   3.774   8.004  13.513
 7193SOL    HW223419   3.740   7.857  13.496
 7194SOL     OW23420   4.080   1.366  10.833
 7194SOL    HW123421   4.006   1.335  10.780
 7194SOL    HW223422   4.097   1.295  10.894
 7195SOL     OW23423   4.652   7.441  13.349
 7195SOL    HW123424   4.655   7.400  13.435
 7195SOL    HW223425   4.734   7.413  13.307
 7196SOL     OW23426  14.784  13.689   4.922
 7196SOL    HW123427  14.711  13.630   4.902
 7196SOL    HW223428  14.745  13.775   4.930
 7197SOL     OW23429  13.760  12.568  13.173
 7197SOL    HW123430  13.797  12.639  13.225
 7197SOL    HW223431  13.807  12.572  13.089
 7198SOL     OW23432   4.085   9.595   6.239
 7198SOL    HW123433   4.053   9.524   6.296
 7198SOL    HW223434   4.068   9.675   6.289
 7199SOL     OW23435  12.009  12.449   7.959
 7199SOL    HW123436  11.918  12.462   7.934
 7199SOL    HW223437  12.042  12.382   7.900
 7200SOL     OW23438  12.982  12.663   0.416
 7200SOL    HW123439  13.020  12.745   0.387
 7200SOL    HW223440  12.976  12.610   0.336
 7201SOL     OW23441   4.020  11.654   3.334
 7201SOL    HW123442   4.004  11.560   3.341
 7201SOL    HW223443   4.049  11.679   3.422
 7202SOL     OW23444  10.491  10.937   3.329
 7202SOL    HW123445  10.444  10.949   3.247
 7202SOL    HW223446  10.480  10.844   3.349
 7203SOL     OW23447  13.222   3.413   6.474
 7203SOL    HW123448  13.305   3.457   6.458
 7203SOL    HW223449  13.202   3.369   6.391
 7204SOL     OW23450  10.554  12.279   9.101
 7204SOL    HW123451  10.585  12.215   9.166
 7204SOL    HW223452  10.485  12.234   9.053
 7205SOL     OW23453   5.123   2.370  13.500
 7205SOL    HW123454   5.031   2.396  13.508
 7205SOL    HW223455   5.123   2.307  13.428
 7206SOL     OW23456  14.303   0.903   6.394
 7206SOL    HW123457  14.320   0.809   6.398
 7206SOL    HW223458  14.209   0.911   6.405
 7207SOL     OW23459  11.790   2.655   1.844
 7207SOL    HW123460  11.882   2.679   1.828
 7207SOL    HW223461  11.776   2.676   1.936
 7208SOL     OW23462   7.971   7.484   2.154
 7208SOL    HW123463   8.031   7.410   2.155
 7208SOL    HW223464   8.014   7.551   2.207
 7209SOL     OW23465  12.033  13.591   6.761
 7209SOL    HW123466  11.986  13.511   6.784
 7209SOL    HW223467  12.123  13.564   6.746
 7210SOL     OW23468   8.815   9.930  13.531
 7210SOL    HW123469   8.747   9.955  13.593
 7210SOL    HW223470   8.836  10.010  13.484
 7211SOL     OW23471   4.145   2.050   7.738
 7211SOL    HW123472   4.106   1.967   7.765
 7211SOL    HW223473   4.222   2.060   7.794
 7212SOL     OW23474   8.380   1.088   2.519
 7212SOL    HW123475   8.430   1.152   2.570
 7212SOL    HW223476   8.447   1.037   2.474
 7213SOL     OW23477   0.870  14.134  12.405
 7213SOL    HW123478   0.839  14.043  12.407
 7213SOL    HW223479   0.890  14.154  12.496
 7214SOL     OW23480  11.850   6.131  14.055
 7214SOL    HW123481  11.800   6.129  14.136
 7214SOL    HW223482  11.784   6.123  13.985
 7215SOL     OW23483  13.342  11.522   1.216
 7215SOL    HW123484  13.404  11.468   1.265
 7215SOL    HW223485  13.256  11.490   1.243
 7216SOL     OW23486  14.444   5.977   9.912
 7216SOL    HW123487  14.391   5.914   9.863
 7216SOL    HW223488  14.465   6.046   9.848
 7217SOL     OW23489   1.090  11.943  14.071
 7217SOL    HW123490   1.012  11.940  14.127
 7217SOL    HW223491   1.055  11.959  13.984
 7218SOL     OW23492  14.433   2.987   7.753
 7218SOL    HW123493  14.371   3.033   7.809
 7218SOL    HW223494  14.383   2.912   7.720
 7219SOL     OW23495   7.327   8.161   8.094
 7219SOL    HW123496   7.292   8.201   8.015
 7219SOL    HW223497   7.254   8.160   8.155
 7220SOL     OW23498   1.622   2.504  14.419
 7220SOL    HW123499   1.644   2.436  14.355
 7220SOL    HW223500   1.549   2.551  14.380
 7221SOL     OW23501   1.250  13.706   9.864
 7221SOL    HW123502   1.176  13.651   9.888
 7221SOL    HW223503   1.267  13.686   9.772
 7222SOL     OW23504  13.012   1.824   1.190
 7222SOL    HW123505  12.934   1.829   1.135
 7222SOL    HW223506  13.073   1.768   1.141
 7223SOL     OW23507   6.667   9.407   6.816
 7223SOL    HW123508   6.624   9.416   6.901
 7223SOL    HW223509   6.602   9.366   6.760
 7224SOL     OW23510  12.414   1.985  10.040
 7224SOL    HW123511  12.328   1.976   9.999
 7224SOL    HW223512  12.400   2.049  10.110
 7225SOL     OW23513  13.225   6.229  12.089
 7225SOL    HW123514  13.222   6.155  12.150
 7225SOL    HW223515  13.317   6.254  12.085
 7226SOL     OW23516  10.386  13.903   9.287
 7226SOL    HW123517  10.307  13.951   9.314
 7226SOL    HW223518  10.458  13.962   9.307
 7227SOL     OW23519  14.620   3.957   6.008
 7227SOL    HW123520  14.699   4.012   6.007
 7227SOL    HW223521  14.576   3.977   5.925
 7228SOL     OW23522   6.916   1.999   2.688
 7228SOL    HW123523   6.995   2.054   2.696
 7228SOL    HW223524   6.899   1.969   2.777
 7229SOL     OW23525   1.883   7.834   5.385
 7229SOL    HW123526   1.890   7.863   5.476
 7229SOL    HW223527   1.875   7.739   5.391
 7230SOL     OW23528  14.209   2.474   2.448
 7230SOL    HW123529  14.158   2.521   2.513
 7230SOL    HW223530  14.258   2.408   2.499
 7231SOL     OW23531   9.079  11.526   0.783
 7231SOL    HW123532   9.116  11.475   0.855
 7231SOL    HW223533   9.108  11.616   0.801
 7232SOL     OW23534   5.225  11.503   5.050
 7232SOL    HW123535   5.242  11.445   4.975
 7232SOL    HW223536   5.138  11.477   5.081
 7233SOL     OW23537   9.176   2.470  14.350
 7233SOL    HW123538   9.119   2.533  14.307
 7233SOL    HW223539   9.257   2.518  14.366
 7234SOL     OW23540  10.769   8.655  14.173
 7234SOL    HW123541  10.724   8.603  14.107
 7234SOL    HW223542  10.737   8.744  14.160
 7235SOL     OW23543   4.739   2.040  13.438
 7235SOL    HW123544   4.719   2.077  13.353
 7235SOL    HW223545   4.694   2.097  13.501
 7236SOL     OW23546   9.409   3.612  11.315
 7236SOL    HW123547   9.362   3.690  11.288
 7236SOL    HW223548   9.487   3.610  11.259
 7237SOL     OW23549   7.877  14.512   4.936
 7237SOL    HW123550   7.803  14.524   4.995
 7237SOL    HW223551   7.845  14.542   4.850
 7238SOL     OW23552  11.838   0.322  10.834
 7238SOL    HW123553  11.826   0.291  10.924
 7238SOL    HW223554  11.777   0.271  10.782
 7239SOL     OW23555   2.747   0.479  10.065
 7239SOL    HW123556   2.722   0.389  10.042
 7239SOL    HW223557   2.784   0.471  10.153
 7240SOL     OW23558   7.805   7.974   3.819
 7240SOL    HW123559   7.774   7.927   3.896
 7240SOL    HW223560   7.882   7.924   3.790
 7241SOL     OW23561   7.189   6.606   7.557
 7241SOL    HW123562   7.265   6.626   7.612
 7241SOL    HW223563   7.187   6.510   7.553
 7242SOL     OW23564   5.348  12.754  11.816
 7242SOL    HW123565   5.437  12.786  11.832
 7242SOL    HW223566   5.294  12.801  11.879
 7243SOL     OW23567  11.187   4.421  11.667
 7243SOL    HW123568  11.232   4.386  11.744
 7243SOL    HW223569  11.097   4.388  11.675
 7244SOL     OW23570  13.669   2.602   7.377
 7244SOL    HW123571  13.685   2.666   7.307
 7244SOL    HW223572  13.695   2.518   7.338
 7245SOL     OW23573   9.112  10.218   4.750
 7245SOL    HW123574   9.154  10.156   4.810
 7245SOL    HW223575   9.020  10.219   4.779
 7246SOL     OW23576  13.196   0.121  12.076
 7246SOL    HW123577  13.199   0.101  12.169
 7246SOL    HW223578  13.282   0.159  12.057
 7247SOL     OW23579  13.372  14.494   1.167
 7247SOL    HW123580  13.449  14.443   1.141
 7247SOL    HW223581  13.323  14.507   1.086
 7248SOL     OW23582   0.894  10.734   1.015
 7248SOL    HW123583   0.922  10.644   0.996
 7248SOL    HW223584   0.934  10.786   0.946
 7249SOL     OW23585   7.541  10.668   6.981
 7249SOL    HW123586   7.559  10.574   6.983
 7249SOL    HW223587   7.477  10.678   6.911
 7250SOL     OW23588   5.174   5.407   9.350
 7250SOL    HW123589   5.112   5.415   9.278
 7250SOL    HW223590   5.203   5.497   9.366
 7251SOL     OW23591   0.103   0.189   7.793
 7251SOL    HW123592   0.123   0.107   7.749
 7251SOL    HW223593   0.014   0.211   7.764
 7252SOL     OW23594   6.615  13.805  12.429
 7252SOL    HW123595   6.657  13.739  12.484
 7252SOL    HW223596   6.570  13.755  12.361
 7253SOL     OW23597   0.114   1.210   3.742
 7253SOL    HW123598   0.025   1.186   3.766
 7253SOL    HW223599   0.137   1.282   3.801
 7254SOL     OW23600   5.364   9.057   1.915
 7254SOL    HW123601   5.434   9.077   1.976
 7254SOL    HW223602   5.304   9.132   1.920
 7255SOL     OW23603   8.150  10.101   0.124
 7255SOL    HW123604   8.160  10.196   0.118
 7255SOL    HW223605   8.113  10.075   0.040
 7256SOL     OW23606   1.873   7.273   7.405
 7256SOL    HW123607   1.928   7.277   7.483
 7256SOL    HW223608   1.934   7.253   7.334
 7257SOL     OW23609   4.263  10.035   9.856
 7257SOL    HW123610   4.298   9.991   9.934
 7257SOL    HW223611   4.337  10.082   9.819
 7258SOL     OW23612   9.498   2.150   1.980
 7258SOL    HW123613   9.403   2.141   1.977
 7258SOL    HW223614   9.527   2.123   1.893
 7259SOL     OW23615   4.214   0.839   2.716
 7259SOL    HW123616   4.178   0.752   2.736
 7259SOL    HW223617   4.306   0.822   2.694
 7260SOL     OW23618   1.542  12.799   2.234
 7260SOL    HW123619   1.535  12.719   2.182
 7260SOL    HW223620   1.628  12.793   2.276
 7261SOL     OW23621   7.162   6.938  11.336
 7261SOL    HW123622   7.251   6.952  11.367
 7261SOL    HW223623   7.157   6.986  11.253
 7262SOL     OW23624  11.056   9.100   9.312
 7262SOL    HW123625  11.075   9.027   9.252
 7262SOL    HW223626  11.142   9.127   9.344
 7263SOL     OW23627   2.840  12.194  10.893
 7263SOL    HW123628   2.827  12.285  10.868
 7263SOL    HW223629   2.756  12.152  10.874
 7264SOL     OW23630   1.344   0.434   9.436
 7264SOL    HW123631   1.387   0.361   9.392
 7264SOL    HW223632   1.396   0.511   9.412
 7265SOL     OW23633   4.490   7.377  12.433
 7265SOL    HW123634   4.556   7.367  12.364
 7265SOL    HW223635   4.495   7.469  12.457
 7266SOL     OW23636  13.288   1.952   9.152
 7266SOL    HW123637  13.321   2.041   9.164
 7266SOL    HW223638  13.271   1.946   9.058
 7267SOL     OW23639   9.606   5.092   1.288
 7267SOL    HW123640   9.511   5.102   1.286
 7267SOL    HW223641   9.636   5.156   1.353
 7268SOL     OW23642   1.362   3.987   3.732
 7268SOL    HW123643   1.298   4.058   3.724
 7268SOL    HW223644   1.362   3.945   3.646
 7269SOL     OW23645   5.549   6.775   4.120
 7269SOL    HW123646   5.561   6.681   4.136
 7269SOL    HW223647   5.580   6.817   4.200
 7270SOL     OW23648   1.062  11.249   8.673
 7270SOL    HW123649   0.994  11.197   8.716
 7270SOL    HW223650   1.144  11.205   8.696
 7271SOL     OW23651   6.690   3.484   3.117
 7271SOL    HW123652   6.632   3.524   3.052
 7271SOL    HW223653   6.759   3.549   3.130
 7272SOL     OW23654   8.967  10.175   9.910
 7272SOL    HW123655   9.060  10.172   9.933
 7272SOL    HW223656   8.961  10.246   9.846
 7273SOL     OW23657   1.327   1.651  12.365
 7273SOL    HW123658   1.332   1.685  12.275
 7273SOL    HW223659   1.317   1.556  12.354
 7274SOL     OW23660   6.290   0.429  14.730
 7274SOL    HW123661   6.363   0.371  14.706
 7274SOL    HW223662   6.216   0.370  14.742
 7275SOL     OW23663  14.839   0.821  13.552
 7275SOL    HW123664  14.771   0.819  13.620
 7275SOL    HW223665  14.807   0.761  13.485
 7276SOL     OW23666   1.441   5.966   6.986
 7276SOL    HW123667   1.387   5.891   7.012
 7276SOL    HW223668   1.524   5.927   6.959
 7277SOL     OW23669  13.381   0.333  13.209
 7277SOL    HW123670  13.310   0.397  13.212
 7277SOL    HW223671  13.387   0.309  13.116
 7278SOL     OW23672   5.365   8.579   2.971
 7278SOL    HW123673   5.427   8.603   2.902
 7278SOL    HW223674   5.331   8.493   2.944
 7279SOL     OW23675   1.387   6.098   6.049
 7279SOL    HW123676   1.468   6.125   6.007
 7279SOL    HW223677   1.413   6.030   6.111
 7280SOL     OW23678  10.686  10.858  13.777
 7280SOL    HW123679  10.689  10.952  13.762
 7280SOL    HW223680  10.612  10.845  13.836
 7281SOL     OW23681  13.040  10.241  11.396
 7281SOL    HW123682  13.024  10.163  11.449
 7281SOL    HW223683  13.135  10.256  11.403
 7282SOL     OW23684  12.276  12.121   7.154
 7282SOL    HW123685  12.217  12.106   7.079
 7282SOL    HW223686  12.362  12.134   7.114
 7283SOL     OW23687   3.062  11.916   0.735
 7283SOL    HW123688   3.064  12.001   0.690
 7283SOL    HW223689   3.021  11.857   0.673
 7284SOL     OW23690   0.317  10.478   3.137
 7284SOL    HW123691   0.226  10.493   3.114
 7284SOL    HW223692   0.314  10.446   3.227
 7285SOL     OW23693  13.057  11.615   9.473
 7285SOL    HW123694  13.144  11.604   9.510
 7285SOL    HW223695  13.013  11.531   9.489
 7286SOL     OW23696   9.216   6.941   2.197
 7286SOL    HW123697   9.134   6.900   2.169
 7286SOL    HW223698   9.204   6.957   2.290
 7287SOL     OW23699   0.627   7.006  13.431
 7287SOL    HW123700   0.599   6.994  13.522
 7287SOL    HW223701   0.644   6.917  13.399
 7288SOL     OW23702   3.759  14.145   0.541
 7288SOL    HW123703   3.780  14.052   0.531
 7288SOL    HW223704   3.757  14.179   0.452
 7289SOL     OW23705   5.275  12.935   7.226
 7289SOL    HW123706   5.314  12.850   7.245
 7289SOL    HW223707   5.284  12.985   7.307
 7290SOL     OW23708   0.926  14.470  13.297
 7290SOL    HW123709   0.994  14.471  13.365
 7290SOL    HW223710   0.886  14.556  13.303
 7291SOL     OW23711  11.571   0.809   9.951
 7291SOL    HW123712  11.662   0.817   9.921
 7291SOL    HW223713  11.560   0.716   9.970
 7292SOL     OW23714   0.023   4.632   6.130
 7292SOL    HW123715   0.070   4.549   6.120
 7292SOL    HW223716  14.809   4.612   6.104
 7293SOL     OW23717   0.832   3.568  12.368
 7293SOL    HW123718   0.781   3.640  12.407
 7293SOL    HW223719   0.766   3.510  12.330
 7294SOL     OW23720   3.110   1.768   7.697
 7294SOL    HW123721   3.035   1.807   7.652
 7294SOL    HW223722   3.136   1.696   7.640
 7295SOL     OW23723   1.879   1.370  13.830
 7295SOL    HW123724   1.787   1.398  13.828
 7295SOL    HW223725   1.917   1.409  13.751
 7296SOL     OW23726   1.114   1.170   9.681
 7296SOL    HW123727   1.161   1.213   9.609
 7296SOL    HW223728   1.070   1.096   9.640
 7297SOL     OW23729   5.665   0.391   5.116
 7297SOL    HW123730   5.689   0.413   5.206
 7297SOL    HW223731   5.703   0.460   5.062
 7298SOL     OW23732   2.421   1.109   6.969
 7298SOL    HW123733   2.438   1.195   6.930
 7298SOL    HW223734   2.502   1.060   6.958
 7299SOL     OW23735  14.748   4.574  12.383
 7299SOL    HW123736  14.837   4.553  12.411
 7299SOL    HW223737  14.715   4.493  12.345
 7300SOL     OW23738  12.897   6.066   7.594
 7300SOL    HW123739  12.893   6.066   7.690
 7300SOL    HW223740  12.984   6.032   7.574
 7301SOL     OW23741  13.465   1.904   6.080
 7301SOL    HW123742  13.495   1.931   5.994
 7301SOL    HW223743  13.456   1.808   6.074
 7302SOL     OW23744  13.995   2.024   6.864
 7302SOL    HW123745  13.968   1.964   6.795
 7302SOL    HW223746  14.078   1.988   6.896
 7303SOL     OW23747  12.161   2.961   1.671
 7303SOL    HW123748  12.206   2.877   1.656
 7303SOL    HW223749  12.229   3.027   1.659
 7304SOL     OW23750  11.136   9.159   5.279
 7304SOL    HW123751  11.220   9.133   5.242
 7304SOL    HW223752  11.145   9.144   5.373
 7305SOL     OW23753   4.352  11.198  11.234
 7305SOL    HW123754   4.401  11.209  11.316
 7305SOL    HW223755   4.341  11.287  11.201
 7306SOL     OW23756   0.452   5.068   1.265
 7306SOL    HW123757   0.387   5.138   1.254
 7306SOL    HW223758   0.498   5.091   1.345
 7307SOL     OW23759  12.422   4.419   5.284
 7307SOL    HW123760  12.487   4.429   5.214
 7307SOL    HW223761  12.338   4.430   5.239
 7308SOL     OW23762  11.305   7.330   5.573
 7308SOL    HW123763  11.274   7.334   5.483
 7308SOL    HW223764  11.330   7.238   5.585
 7309SOL     OW23765  13.247   8.046  13.936
 7309SOL    HW123766  13.283   8.133  13.924
 7309SOL    HW223767  13.307   8.003  13.996
 7310SOL     OW23768  13.371   4.728  11.270
 7310SOL    HW123769  13.439   4.662  11.261
 7310SOL    HW223770  13.403   4.804  11.221
 7311SOL     OW23771  10.438   0.827  13.326
 7311SOL    HW123772  10.369   0.870  13.274
 7311SOL    HW223773  10.510   0.814  13.264
 7312SOL     OW23774   4.756   8.310  10.253
 7312SOL    HW123775   4.751   8.397  10.293
 7312SOL    HW223776   4.748   8.326  10.159
 7313SOL     OW23777  12.264   1.737   5.475
 7313SOL    HW123778  12.317   1.769   5.548
 7313SOL    HW223779  12.176   1.770   5.493
 7314SOL     OW23780   4.400   6.194  14.645
 7314SOL    HW123781   4.473   6.215  14.586
 7314SOL    HW223782   4.427   6.114  14.689
 7315SOL     OW23783  11.731   8.297   1.639
 7315SOL    HW123784  11.649   8.315   1.595
 7315SOL    HW223785  11.756   8.379   1.681
 7316SOL     OW23786   9.640  13.822  13.588
 7316SOL    HW123787   9.573  13.756  13.567
 7316SOL    HW223788   9.723  13.780  13.562
 7317SOL     OW23789   6.572   6.959   6.971
 7317SOL    HW123790   6.630   6.911   6.912
 7317SOL    HW223791   6.620   6.964   7.053
 7318SOL     OW23792   9.161  12.514   2.079
 7318SOL    HW123793   9.090  12.577   2.064
 7318SOL    HW223794   9.155  12.453   2.006
 7319SOL     OW23795  10.548   7.452  11.907
 7319SOL    HW123796  10.509   7.366  11.892
 7319SOL    HW223797  10.611   7.438  11.978
 7320SOL     OW23798   9.144  13.356   1.242
 7320SOL    HW123799   9.222  13.307   1.218
 7320SOL    HW223800   9.073  13.291   1.237
 7321SOL     OW23801  12.858  11.586   5.054
 7321SOL    HW123802  12.927  11.532   5.092
 7321SOL    HW223803  12.855  11.561   4.962
 7322SOL     OW23804   1.932   6.543  13.540
 7322SOL    HW123805   1.886   6.459  13.537
 7322SOL    HW223806   2.024   6.521  13.524
 7323SOL     OW23807   4.846   1.294   0.103
 7323SOL    HW123808   4.787   1.219   0.111
 7323SOL    HW223809   4.911   1.266   0.038
 7324SOL     OW23810  11.424   9.811   3.436
 7324SOL    HW123811  11.345   9.770   3.470
 7324SOL    HW223812  11.403   9.904   3.431
 7325SOL     OW23813  12.255   0.587   9.478
 7325SOL    HW123814  12.279   0.566   9.388
 7325SOL    HW223815  12.173   0.540   9.493
 7326SOL     OW23816  12.657   4.714   0.176
 7326SOL    HW123817  12.685   4.805   0.164
 7326SOL    HW223818  12.564   4.720   0.195
 7327SOL     OW23819   1.521   7.265  13.653
 7327SOL    HW123820   1.535   7.176  13.687
 7327SOL    HW223821   1.527   7.321  13.730
 7328SOL     OW23822   0.146   2.152  10.037
 7328SOL    HW123823   0.075   2.132   9.976
 7328SOL    HW223824   0.218   2.181   9.983
 7329SOL     OW23825   8.702   3.138   7.299
 7329SOL    HW123826   8.716   3.044   7.293
 7329SOL    HW223827   8.790   3.175   7.306
 7330SOL     OW23828   9.075   3.728   8.355
 7330SOL    HW123829   9.121   3.647   8.379
 7330SOL    HW223830   9.139   3.797   8.369
 7331SOL     OW23831  12.786   3.763   3.884
 7331SOL    HW123832  12.826   3.684   3.921
 7331SOL    HW223833  12.748   3.808   3.960
 7332SOL     OW23834  13.350   8.341   9.024
 7332SOL    HW123835  13.295   8.382   9.090
 7332SOL    HW223836  13.416   8.294   9.075
 7333SOL     OW23837  13.151   5.695  14.586
 7333SOL    HW123838  13.225   5.653  14.541
 7333SOL    HW223839  13.104   5.622  14.627
 7334SOL     OW23840   6.645   1.505   3.608
 7334SOL    HW123841   6.686   1.489   3.523
 7334SOL    HW223842   6.661   1.424   3.657
 7335SOL     OW23843   8.559  12.393   8.240
 7335SOL    HW123844   8.585  12.485   8.240
 7335SOL    HW223845   8.544  12.372   8.332
 7336SOL     OW23846   8.233  10.433  12.663
 7336SOL    HW123847   8.222  10.341  12.643
 7336SOL    HW223848   8.214  10.478  12.581
 7337SOL     OW23849   6.996   5.737   0.881
 7337SOL    HW123850   6.924   5.764   0.937
 7337SOL    HW223851   7.048   5.816   0.869
 7338SOL     OW23852  14.608   3.907   2.012
 7338SOL    HW123853  14.582   3.929   1.922
 7338SOL    HW223854  14.683   3.848   2.001
 7339SOL     OW23855   9.828   6.932   2.416
 7339SOL    HW123856   9.795   6.853   2.373
 7339SOL    HW223857   9.749   6.978   2.445
 7340SOL     OW23858   6.526   8.548   2.022
 7340SOL    HW123859   6.541   8.457   1.997
 7340SOL    HW223860   6.569   8.556   2.107
 7341SOL     OW23861   8.451   7.668   1.630
 7341SOL    HW123862   8.414   7.588   1.592
 7341SOL    HW223863   8.545   7.649   1.637
 7342SOL     OW23864   5.812   2.532   6.095
 7342SOL    HW123865   5.725   2.573   6.085
 7342SOL    HW223866   5.838   2.553   6.185
 7343SOL     OW23867   4.448   8.575  11.648
 7343SOL    HW123868   4.359   8.593  11.617
 7343SOL    HW223869   4.440   8.574  11.744
 7344SOL     OW23870  11.835   7.408   4.663
 7344SOL    HW123871  11.929   7.408   4.643
 7344SOL    HW223872  11.818   7.495   4.699
 7345SOL     OW23873   2.517   4.525   0.462
 7345SOL    HW123874   2.453   4.454   0.458
 7345SOL    HW223875   2.477   4.591   0.519
 7346SOL     OW23876   0.479  11.415  11.018
 7346SOL    HW123877   0.490  11.346  10.953
 7346SOL    HW223878   0.512  11.377  11.099
 7347SOL     OW23879   9.777  11.629   0.056
 7347SOL    HW123880   9.820  11.713   0.071
 7347SOL    HW223881   9.773  11.588   0.143
 7348SOL     OW23882  10.443   7.806  14.257
 7348SOL    HW123883  10.408   7.800  14.168
 7348SOL    HW223884  10.429   7.719  14.294
 7349SOL     OW23885  13.258  13.178   4.579
 7349SOL    HW123886  13.233  13.235   4.653
 7349SOL    HW223887  13.295  13.100   4.621
 7350SOL     OW23888  13.823   6.553   1.053
 7350SOL    HW123889  13.896   6.544   0.992
 7350SOL    HW223890  13.749   6.579   0.998
 7351SOL     OW23891  12.267  11.928  13.411
 7351SOL    HW123892  12.239  11.903  13.323
 7351SOL    HW223893  12.353  11.886  13.422
 7352SOL     OW23894   4.493  10.779  11.433
 7352SOL    HW123895   4.400  10.780  11.411
 7352SOL    HW223896   4.533  10.835  11.367
 7353SOL     OW23897   0.214  13.001   6.969
 7353SOL    HW123898   0.304  12.985   6.998
 7353SOL    HW223899   0.224  13.047   6.885
 7354SOL     OW23900   3.191  10.294  11.319
 7354SOL    HW123901   3.285  10.310  11.313
 7354SOL    HW223902   3.158  10.367  11.371
 7355SOL     OW23903   7.653  14.452   2.387
 7355SOL    HW123904   7.726  14.456   2.324
 7355SOL    HW223905   7.682  14.387   2.452
 7356SOL     OW23906  14.657   9.382   6.318
 7356SOL    HW123907  14.572   9.409   6.283
 7356SOL    HW223908  14.636   9.314   6.382
 7357SOL     OW23909   1.062   9.762   6.103
 7357SOL    HW123910   0.982   9.749   6.154
 7357SOL    HW223911   1.131   9.777   6.168
 7358SOL     OW23912   8.956  12.173   5.156
 7358SOL    HW123913   9.048  12.146   5.158
 7358SOL    HW223914   8.948  12.235   5.228
 7359SOL     OW23915   9.877   4.410   4.485
 7359SOL    HW123916   9.930   4.332   4.503
 7359SOL    HW223917   9.915   4.478   4.542
 7360SOL     OW23918   5.719   6.930   1.238
 7360SOL    HW123919   5.771   6.896   1.311
 7360SOL    HW223920   5.784   6.946   1.169
 7361SOL     OW23921   7.592   7.897  13.882
 7361SOL    HW123922   7.510   7.918  13.837
 7361SOL    HW223923   7.564   7.861  13.966
 7362SOL     OW23924  10.710   3.483  13.774
 7362SOL    HW123925  10.723   3.413  13.837
 7362SOL    HW223926  10.626   3.464  13.733
 7363SOL     OW23927  12.955  14.065  12.989
 7363SOL    HW123928  12.882  14.050  12.928
 7363SOL    HW223929  12.919  14.042  13.075
 7364SOL     OW23930   5.623   8.495   9.881
 7364SOL    HW123931   5.661   8.428   9.824
 7364SOL    HW223932   5.639   8.462   9.970
 7365SOL     OW23933   1.779  12.712  14.076
 7365SOL    HW123934   1.812  12.634  14.121
 7365SOL    HW223935   1.858  12.762  14.054
 7366SOL     OW23936  13.389  12.464   5.567
 7366SOL    HW123937  13.416  12.556   5.569
 7366SOL    HW223938  13.463  12.418   5.527
 7367SOL     OW23939  12.594   3.004  14.601
 7367SOL    HW123940  12.612   3.086  14.647
 7367SOL    HW223941  12.499   2.995  14.605
 7368SOL     OW23942   3.366   4.547   3.311
 7368SOL    HW123943   3.404   4.531   3.224
 7368SOL    HW223944   3.289   4.490   3.314
 7369SOL     OW23945  11.618   3.948   0.588
 7369SOL    HW123946  11.594   3.993   0.669
 7369SOL    HW223947  11.706   3.980   0.568
 7370SOL     OW23948   2.286  12.725   7.608
 7370SOL    HW123949   2.206  12.672   7.607
 7370SOL    HW223950   2.291  12.759   7.697
 7371SOL     OW23951   0.609   5.206   2.438
 7371SOL    HW123952   0.666   5.279   2.462
 7371SOL    HW223953   0.612   5.148   2.515
 7372SOL     OW23954   0.093  13.141   5.562
 7372SOL    HW123955   0.111  13.208   5.629
 7372SOL    HW223956   0.180  13.109   5.537
 7373SOL     OW23957  12.241   5.905   6.753
 7373SOL    HW123958  12.322   5.874   6.793
 7373SOL    HW223959  12.236   5.858   6.670
 7374SOL     OW23960   6.114  13.980   9.946
 7374SOL    HW123961   6.090  14.020   9.863
 7374SOL    HW223962   6.097  14.048  10.012
 7375SOL     OW23963  13.710   6.969   9.301
 7375SOL    HW123964  13.726   6.994   9.392
 7375SOL    HW223965  13.785   6.915   9.277
 7376SOL     OW23966   6.860  11.156  14.549
 7376SOL    HW123967   6.804  11.201  14.485
 7376SOL    HW223968   6.865  11.066  14.517
 7377SOL     OW23969   7.726  11.973   0.982
 7377SOL    HW123970   7.776  11.971   0.900
 7377SOL    HW223971   7.635  11.968   0.955
 7378SOL     OW23972  12.997   7.227   4.932
 7378SOL    HW123973  12.910   7.266   4.926
 7378SOL    HW223974  12.998   7.183   5.017
 7379SOL     OW23975  12.900   9.247   9.937
 7379SOL    HW123976  12.916   9.313   9.869
 7379SOL    HW223977  12.859   9.174   9.891
 7380SOL     OW23978   8.021   1.087   0.319
 7380SOL    HW123979   7.935   1.096   0.360
 7380SOL    HW223980   8.002   1.058   0.230
 7381SOL     OW23981   7.108   6.751   7.336
 7381SOL    HW123982   7.076   6.686   7.274
 7381SOL    HW223983   7.154   6.701   7.402
 7382SOL     OW23984   4.124   6.727   7.096
 7382SOL    HW123985   4.084   6.806   7.060
 7382SOL    HW223986   4.217   6.748   7.104
 7383SOL     OW23987   8.583  13.266   8.453
 7383SOL    HW123988   8.503  13.300   8.414
 7383SOL    HW223989   8.597  13.182   8.410
 7384SOL     OW23990   8.183   3.078   0.781
 7384SOL    HW123991   8.169   3.079   0.876
 7384SOL    HW223992   8.238   3.155   0.764
 7385SOL     OW23993  12.509   6.706   5.217
 7385SOL    HW123994  12.457   6.757   5.279
 7385SOL    HW223995  12.550   6.771   5.160
 7386SOL     OW23996   5.161  13.372   3.989
 7386SOL    HW123997   5.168  13.286   4.030
 7386SOL    HW223998   5.067  13.385   3.974
 7387SOL     OW23999  11.843   7.499  10.108
 7387SOL    HW124000  11.880   7.553  10.177
 7387SOL    HW224001  11.748   7.516  10.112
 7388SOL     OW24002   0.649   1.156   8.031
 7388SOL    HW124003   0.739   1.124   8.028
 7388SOL    HW224004   0.647   1.215   8.107
 7389SOL     OW24005   2.602   1.062   0.873
 7389SOL    HW124006   2.571   1.037   0.786
 7389SOL    HW224007   2.638   1.150   0.862
 7390SOL     OW24008   4.786   6.600   2.233
 7390SOL    HW124009   4.700   6.627   2.201
 7390SOL    HW224010   4.806   6.660   2.304
 7391SOL     OW24011   8.569  11.998   9.368
 7391SOL    HW124012   8.643  12.056   9.349
 7391SOL    HW224013   8.550  12.013   9.460
 7392SOL     OW24014  11.399   7.613   7.499
 7392SOL    HW124015  11.417   7.525   7.533
 7392SOL    HW224016  11.409   7.671   7.575
 7393SOL     OW24017  10.233   3.749  13.898
 7393SOL    HW124018  10.248   3.793  13.982
 7393SOL    HW224019  10.139   3.732  13.897
 7394SOL     OW24020   4.911  13.827   9.352
 7394SOL    HW124021   4.959  13.749   9.324
 7394SOL    HW224022   4.820  13.798   9.360
 7395SOL     OW24023   8.429   9.480  14.380
 7395SOL    HW124024   8.357   9.427  14.345
 7395SOL    HW224025   8.505   9.454  14.328
 7396SOL     OW24026  14.371   5.923   6.565
 7396SOL    HW124027  14.323   5.875   6.498
 7396SOL    HW224028  14.365   6.015   6.537
 7397SOL     OW24029  12.315   1.027   3.415
 7397SOL    HW124030  12.260   1.105   3.405
 7397SOL    HW224031  12.309   0.983   3.330
 7398SOL     OW24032  12.158  12.044  14.814
 7398SOL    HW124033  12.232  12.019  14.869
 7398SOL    HW224034  12.174  12.000  14.731
 7399SOL     OW24035  13.233   0.471   2.694
 7399SOL    HW124036  13.291   0.548   2.693
 7399SOL    HW224037  13.208   0.458   2.603
 7400SOL     OW24038   8.962   6.148  14.388
 7400SOL    HW124039   9.030   6.089  14.422
 7400SOL    HW224040   9.011   6.222  14.352
 7401SOL     OW24041  11.554   2.676  12.665
 7401SOL    HW124042  11.509   2.604  12.709
 7401SOL    HW224043  11.613   2.634  12.604
 7402SOL     OW24044   2.375   8.374   1.085
 7402SOL    HW124045   2.422   8.300   1.046
 7402SOL    HW224046   2.373   8.354   1.179
 7403SOL     OW24047  11.136   0.398   3.680
 7403SOL    HW124048  11.139   0.338   3.754
 7403SOL    HW224049  11.097   0.478   3.715
 7404SOL     OW24050   9.154  11.880   7.072
 7404SOL    HW124051   9.225  11.928   7.114
 7404SOL    HW224052   9.191  11.793   7.055
 7405SOL     OW24053   0.118   4.538  14.004
 7405SOL    HW124054   0.119   4.448  14.037
 7405SOL    HW224055   0.103   4.528  13.910
 7406SOL     OW24056   9.858  13.884   1.556
 7406SOL    HW124057   9.791  13.932   1.604
 7406SOL    HW224058   9.871  13.803   1.605
 7407SOL     OW24059   1.423   1.807   1.804
 7407SOL    HW124060   1.456   1.738   1.746
 7407SOL    HW224061   1.495   1.870   1.810
 7408SOL     OW24062   6.280   0.166   5.217
 7408SOL    HW124063   6.266   0.247   5.168
 7408SOL    HW224064   6.351   0.187   5.277
 7409SOL     OW24065   2.960   3.430  14.261
 7409SOL    HW124066   2.883   3.469  14.301
 7409SOL    HW224067   3.034   3.467  14.309
 7410SOL     OW24068   1.300  13.707  12.097
 7410SOL    HW124069   1.243  13.632  12.080
 7410SOL    HW224070   1.386  13.679  12.066
 7411SOL     OW24071  10.754  13.510   2.283
 7411SOL    HW124072  10.735  13.534   2.192
 7411SOL    HW224073  10.843  13.476   2.281
 7412SOL     OW24074  13.477  12.601   7.299
 7412SOL    HW124075  13.438  12.686   7.281
 7412SOL    HW224076  13.472  12.555   7.215
 7413SOL     OW24077  10.159   0.800   1.740
 7413SOL    HW124078  10.085   0.772   1.686
 7413SOL    HW224079  10.210   0.856   1.682
 7414SOL     OW24080   4.517  13.362   6.762
 7414SOL    HW124081   4.521  13.431   6.695
 7414SOL    HW224082   4.438  13.313   6.742
 7415SOL     OW24083  10.663   2.515   1.061
 7415SOL    HW124084  10.725   2.589   1.060
 7415SOL    HW224085  10.690   2.460   0.988
 7416SOL     OW24086   9.543  10.807   0.339
 7416SOL    HW124087   9.524  10.713   0.328
 7416SOL    HW224088   9.597  10.811   0.418
 7417SOL     OW24089   9.464   4.264   9.313
 7417SOL    HW124090   9.463   4.327   9.241
 7417SOL    HW224091   9.392   4.291   9.369
 7418SOL     OW24092   2.744   9.207   9.804
 7418SOL    HW124093   2.770   9.137   9.865
 7418SOL    HW224094   2.739   9.164   9.719
 7419SOL     OW24095  14.394   0.052  10.021
 7419SOL    HW124096  14.350   0.134  10.046
 7419SOL    HW224097  14.358   0.031   9.934
 7420SOL     OW24098  14.797   2.545   9.984
 7420SOL    HW124099  14.860   2.541   9.911
 7420SOL    HW224100  14.711   2.545   9.941
 7421SOL     OW24101  11.012   5.617  10.499
 7421SOL    HW124102  10.984   5.693  10.550
 7421SOL    HW224103  10.999   5.543  10.558
 7422SOL     OW24104   4.775   7.261   4.571
 7422SOL    HW124105   4.735   7.279   4.656
 7422SOL    HW224106   4.864   7.294   4.579
 7423SOL     OW24107   3.783   5.717   2.114
 7423SOL    HW124108   3.828   5.683   2.037
 7423SOL    HW224109   3.692   5.687   2.104
 7424SOL     OW24110   5.478   8.030   5.839
 7424SOL    HW124111   5.412   8.000   5.902
 7424SOL    HW224112   5.459   7.981   5.759
 7425SOL     OW24113   0.994  12.778  12.112
 7425SOL    HW124114   0.950  12.851  12.069
 7425SOL    HW224115   1.038  12.732  12.041
 7426SOL     OW24116   9.203   6.306   8.315
 7426SOL    HW124117   9.133   6.320   8.378
 7426SOL    HW224118   9.227   6.213   8.325
 7427SOL     OW24119   5.175   1.153   7.346
 7427SOL    HW124120   5.178   1.058   7.360
 7427SOL    HW224121   5.255   1.173   7.298
 7428SOL     OW24122  12.743  13.758   3.422
 7428SOL    HW124123  12.742  13.733   3.329
 7428SOL    HW224124  12.787  13.843   3.423
 7429SOL     OW24125   9.778   6.348  10.243
 7429SOL    HW124126   9.864   6.389  10.234
 7429SOL    HW224127   9.735   6.365  10.159
 7430SOL     OW24128   9.372   4.738   5.099
 7430SOL    HW124129   9.304   4.760   5.035
 7430SOL    HW224130   9.416   4.662   5.061
 7431SOL     OW24131  14.312  12.476   1.093
 7431SOL    HW124132  14.288  12.566   1.113
 7431SOL    HW224133  14.232  12.438   1.056
 7432SOL     OW24134   1.354  13.603   1.414
 7432SOL    HW124135   1.361  13.563   1.501
 7432SOL    HW224136   1.429  13.569   1.366
 7433SOL     OW24137  10.860  11.744   4.456
 7433SOL    HW124138  10.799  11.715   4.388
 7433SOL    HW224139  10.804  11.766   4.530
 7434SOL     OW24140  13.352   1.834  12.013
 7434SOL    HW124141  13.305   1.918  12.016
 7434SOL    HW224142  13.295   1.777  11.962
 7435SOL     OW24143  10.761  11.210   1.861
 7435SOL    HW124144  10.689  11.179   1.915
 7435SOL    HW224145  10.840  11.182   1.907
 7436SOL     OW24146   6.460   2.134   9.289
 7436SOL    HW124147   6.404   2.203   9.326
 7436SOL    HW224148   6.545   2.147   9.330
 7437SOL     OW24149  14.139   7.007   1.562
 7437SOL    HW124150  14.214   6.959   1.598
 7437SOL    HW224151  14.130   7.083   1.620
 7438SOL     OW24152   7.220   9.004   4.369
 7438SOL    HW124153   7.191   9.002   4.461
 7438SOL    HW224154   7.315   9.009   4.374
 7439SOL     OW24155   6.940   8.634   1.760
 7439SOL    HW124156   6.893   8.652   1.842
 7439SOL    HW224157   6.878   8.581   1.709
 7440SOL     OW24158   9.685   1.920   9.410
 7440SOL    HW124159   9.593   1.948   9.415
 7440SOL    HW224160   9.733   2.001   9.390
 7441SOL     OW24161  12.403  13.473  11.307
 7441SOL    HW124162  12.391  13.457  11.400
 7441SOL    HW224163  12.316  13.498  11.275
 7442SOL     OW24164   3.088   4.039   7.184
 7442SOL    HW124165   3.060   4.055   7.094
 7442SOL    HW224166   3.106   4.126   7.220
 7443SOL     OW24167   7.641  14.614  11.943
 7443SOL    HW124168   7.721  14.658  11.912
 7443SOL    HW224169   7.610  14.565  11.866
 7444SOL     OW24170   8.058  13.874  12.151
 7444SOL    HW124171   7.997  13.859  12.078
 7444SOL    HW224172   8.030  13.958  12.188
 7445SOL     OW24173  10.930   4.887   1.238
 7445SOL    HW124174  10.905   4.795   1.241
 7445SOL    HW224175  10.925   4.917   1.329
 7446SOL     OW24176  10.380   5.652   8.668
 7446SOL    HW124177  10.457   5.599   8.644
 7446SOL    HW224178  10.315   5.587   8.696
 7447SOL     OW24179  13.827   8.960  14.077
 7447SOL    HW124180  13.737   8.947  14.108
 7447SOL    HW224181  13.849   9.049  14.102
 7448SOL     OW24182   5.597  10.780   1.854
 7448SOL    HW124183   5.607  10.874   1.873
 7448SOL    HW224184   5.682  10.742   1.876
 7449SOL     OW24185   1.995   5.883   6.270
 7449SOL    HW124186   2.002   5.965   6.220
 7449SOL    HW224187   1.914   5.892   6.320
 7450SOL     OW24188   1.678   7.324   3.619
 7450SOL    HW124189   1.607   7.278   3.664
 7450SOL    HW224190   1.747   7.258   3.610
 7451SOL     OW24191   1.069  13.205   3.467
 7451SOL    HW124192   1.103  13.150   3.537
 7451SOL    HW224193   0.977  13.181   3.460
 7452SOL     OW24194  12.437   5.284  10.718
 7452SOL    HW124195  12.454   5.199  10.759
 7452SOL    HW224196  12.405   5.339  10.789
 7453SOL     OW24197   3.055   0.543   5.591
 7453SOL    HW124198   3.082   0.598   5.519
 7453SOL    HW224199   3.118   0.471   5.592
 7454SOL     OW24200   9.781   6.345   4.781
 7454SOL    HW124201   9.798   6.264   4.829
 7454SOL    HW224202   9.865   6.367   4.740
 7455SOL     OW24203   3.185  12.251   9.849
 7455SOL    HW124204   3.256  12.190   9.869
 7455SOL    HW224205   3.124  12.243   9.922
 7456SOL     OW24206   1.369   7.691  11.565
 7456SOL    HW124207   1.463   7.690  11.546
 7456SOL    HW224208   1.350   7.603  11.598
 7457SOL     OW24209  12.090  10.131   2.298
 7457SOL    HW124210  12.033  10.080   2.240
 7457SOL    HW224211  12.037  10.206   2.323
 7458SOL     OW24212   3.873  14.200   3.169
 7458SOL    HW124213   3.945  14.138   3.181
 7458SOL    HW224214   3.903  14.280   3.213
 7459SOL     OW24215   0.215  10.315   2.193
 7459SOL    HW124216   0.309  10.303   2.176
 7459SOL    HW224217   0.200  10.266   2.274
 7460SOL     OW24218  10.856  10.423   4.252
 7460SOL    HW124219  10.912  10.408   4.328
 7460SOL    HW224220  10.855  10.518   4.241
 7461SOL     OW24221  12.177  11.204   5.980
 7461SOL    HW124222  12.234  11.234   5.909
 7461SOL    HW224223  12.093  11.187   5.937
 7462SOL     OW24224  10.905  13.550   3.095
 7462SOL    HW124225  10.933  13.469   3.139
 7462SOL    HW224226  10.829  13.580   3.146
 7463SOL     OW24227   0.690   5.884   5.927
 7463SOL    HW124228   0.727   5.849   5.846
 7463SOL    HW224229   0.614   5.828   5.945
 7464SOL     OW24230   3.257   4.400   4.403
 7464SOL    HW124231   3.188   4.437   4.348
 7464SOL    HW224232   3.274   4.466   4.469
 7465SOL     OW24233   3.485   1.045   9.139
 7465SOL    HW124234   3.557   1.079   9.191
 7465SOL    HW224235   3.469   0.957   9.175
 7466SOL     OW24236  10.238   7.468   6.767
 7466SOL    HW124237  10.152   7.498   6.796
 7466SOL    HW224238  10.245   7.379   6.800
 7467SOL     OW24239   0.604  11.210   9.801
 7467SOL    HW124240   0.544  11.284   9.808
 7467SOL    HW224241   0.619  11.182   9.891
 7468SOL     OW24242   3.440  14.723   7.981
 7468SOL    HW124243   3.493  14.727   8.061
 7468SOL    HW224244   3.410  14.812   7.968
 7469SOL     OW24245   9.505   1.310  11.000
 7469SOL    HW124246   9.589   1.278  10.967
 7469SOL    HW224247   9.471   1.366  10.930
 7470SOL     OW24248  11.254  12.450  12.783
 7470SOL    HW124249  11.215  12.376  12.830
 7470SOL    HW224250  11.316  12.410  12.722
 7471SOL     OW24251  10.879   2.412  13.535
 7471SOL    HW124252  10.960   2.458  13.514
 7471SOL    HW224253  10.885   2.395  13.629
 7472SOL     OW24254  10.711   2.510  13.753
 7472SOL    HW124255  10.647   2.448  13.718
 7472SOL    HW224256  10.707   2.584  13.692
 7473SOL     OW24257   6.609  14.028  13.531
 7473SOL    HW124258   6.624  14.114  13.492
 7473SOL    HW224259   6.627  14.040  13.624
 7474SOL     OW24260   0.306   9.112  12.418
 7474SOL    HW124261   0.294   9.052  12.344
 7474SOL    HW224262   0.252   9.075  12.488
 7475SOL     OW24263  13.060  13.086   4.431
 7475SOL    HW124264  13.120  13.134   4.487
 7475SOL    HW224265  13.009  13.032   4.492
 7476SOL     OW24266  14.160   3.557   0.793
 7476SOL    HW124267  14.101   3.516   0.856
 7476SOL    HW224268  14.102   3.602   0.732
 7477SOL     OW24269  13.581   2.377   1.857
 7477SOL    HW124270  13.568   2.288   1.889
 7477SOL    HW224271  13.666   2.374   1.811
 7478SOL     OW24272  11.411   6.547   4.975
 7478SOL    HW124273  11.494   6.593   4.960
 7478SOL    HW224274  11.436   6.456   4.992
 7479SOL     OW24275   4.941   5.652   3.665
 7479SOL    HW124276   5.000   5.728   3.667
 7479SOL    HW224277   4.960   5.610   3.581
 7480SOL     OW24278   3.896   1.404   3.206
 7480SOL    HW124279   3.920   1.394   3.298
 7480SOL    HW224280   3.977   1.431   3.163
 7481SOL     OW24281   9.580   7.595  14.166
 7481SOL    HW124282   9.540   7.509  14.150
 7481SOL    HW224283   9.665   7.574  14.205
 7482SOL     OW24284  14.785  12.707  13.284
 7482SOL    HW124285  14.764  12.779  13.343
 7482SOL    HW224286  14.787  12.629  13.341
 7483SOL     OW24287   0.620   5.265   3.797
 7483SOL    HW124288   0.595   5.242   3.707
 7483SOL    HW224289   0.647   5.357   3.791
 7484SOL     OW24290  12.581  12.186   3.681
 7484SOL    HW124291  12.518  12.237   3.631
 7484SOL    HW224292  12.655  12.246   3.693
 7485SOL     OW24293  11.963  11.651  12.160
 7485SOL    HW124294  12.003  11.723  12.112
 7485SOL    HW224295  11.918  11.599  12.093
 7486SOL     OW24296  13.882   5.118  12.026
 7486SOL    HW124297  13.961   5.085  12.070
 7486SOL    HW224298  13.879   5.071  11.943
 7487SOL     OW24299   2.143   3.887   4.597
 7487SOL    HW124300   2.108   3.962   4.549
 7487SOL    HW224301   2.065   3.841   4.629
 7488SOL     OW24302  12.427  12.603   5.646
 7488SOL    HW124303  12.517  12.636   5.646
 7488SOL    HW224304  12.425  12.540   5.573
 7489SOL     OW24305  12.556   4.409   6.951
 7489SOL    HW124306  12.552   4.488   7.005
 7489SOL    HW224307  12.633   4.422   6.896
 7490SOL     OW24308   2.644   0.967   6.844
 7490SOL    HW124309   2.706   0.960   6.917
 7490SOL    HW224310   2.695   1.003   6.772
 7491SOL     OW24311   0.472   1.079   0.280
 7491SOL    HW124312   0.377   1.074   0.290
 7491SOL    HW224313   0.507   1.067   0.368
 7492SOL     OW24314   0.779   9.085  12.233
 7492SOL    HW124315   0.813   9.046  12.314
 7492SOL    HW224316   0.707   9.140  12.262
 7493SOL     OW24317   2.088  14.029  10.536
 7493SOL    HW124318   2.068  14.116  10.571
 7493SOL    HW224319   2.020  14.013  10.470
 7494SOL     OW24320  10.593   8.441   0.886
 7494SOL    HW124321  10.502   8.412   0.894
 7494SOL    HW224322  10.640   8.391   0.952
 7495SOL     OW24323   5.798   5.637  12.417
 7495SOL    HW124324   5.830   5.558  12.460
 7495SOL    HW224325   5.756   5.605  12.337
 7496SOL     OW24326   4.222   7.283  13.850
 7496SOL    HW124327   4.176   7.224  13.790
 7496SOL    HW224328   4.288   7.325  13.795
 7497SOL     OW24329   9.861   9.203  12.890
 7497SOL    HW124330   9.814   9.231  12.969
 7497SOL    HW224331   9.950   9.186  12.919
 7498SOL     OW24332   4.195   9.156   6.739
 7498SOL    HW124333   4.277   9.108   6.729
 7498SOL    HW224334   4.128   9.088   6.748
 7499SOL     OW24335   4.473   6.730   2.449
 7499SOL    HW124336   4.407   6.777   2.500
 7499SOL    HW224337   4.426   6.702   2.370
 7500SOL     OW24338   7.960  12.199   2.160
 7500SOL    HW124339   8.000  12.148   2.230
 7500SOL    HW224340   7.936  12.134   2.093
 7501SOL     OW24341   8.539   7.350   9.324
 7501SOL    HW124342   8.455   7.339   9.279
 7501SOL    HW224343   8.542   7.442   9.347
 7502SOL     OW24344   6.116  13.351   7.315
 7502SOL    HW124345   6.065  13.276   7.286
 7502SOL    HW224346   6.095  13.361   7.408
 7503SOL     OW24347   4.792   0.090   0.251
 7503SOL    HW124348   4.712   0.108   0.300
 7503SOL    HW224349   4.763   0.037   0.177
 7504SOL     OW24350   9.231  13.401   5.507
 7504SOL    HW124351   9.161  13.377   5.446
 7504SOL    HW224352   9.300  13.338   5.490
 7505SOL     OW24353   2.983   7.980   1.731
 7505SOL    HW124354   2.984   7.962   1.825
 7505SOL    HW224355   3.043   8.054   1.720
 7506SOL     OW24356   9.251  11.512  13.250
 7506SOL    HW124357   9.162  11.501  13.216
 7506SOL    HW224358   9.247  11.592  13.303
 7507SOL     OW24359   9.171  13.591   1.807
 7507SOL    HW124360   9.227  13.651   1.856
 7507SOL    HW224361   9.223  13.566   1.731
 7508SOL     OW24362   6.277  14.049  12.567
 7508SOL    HW124363   6.253  13.974  12.512
 7508SOL    HW224364   6.372  14.047  12.570
 7509SOL     OW24365   2.957   2.887   9.447
 7509SOL    HW124366   2.999   2.811   9.487
 7509SOL    HW224367   2.879   2.852   9.404
 7510SOL     OW24368  13.315   5.785   7.236
 7510SOL    HW124369  13.261   5.784   7.157
 7510SOL    HW224370  13.348   5.696   7.244
 7511SOL     OW24371   8.213  11.599   8.404
 7511SOL    HW124372   8.199  11.505   8.414
 7511SOL    HW224373   8.149  11.626   8.338
 7512SOL     OW24374   5.904  13.973  12.264
 7512SOL    HW124375   5.879  14.065  12.279
 7512SOL    HW224376   5.830  13.923  12.297
 7513SOL     OW24377   2.022  13.832   3.737
 7513SOL    HW124378   1.972  13.750   3.733
 7513SOL    HW224379   2.013  13.870   3.650
 7514SOL     OW24380  10.025   5.541  12.158
 7514SOL    HW124381  10.102   5.561  12.212
 7514SOL    HW224382   9.992   5.627  12.132
 7515SOL     OW24383  10.374  12.588   3.537
 7515SOL    HW124384  10.442  12.575   3.471
 7515SOL    HW224385  10.291  12.580   3.490
 7516SOL     OW24386  13.551  11.893   6.758
 7516SOL    HW124387  13.550  11.907   6.664
 7516SOL    HW224388  13.471  11.934   6.790
 7517SOL     OW24389   8.385  13.393   4.883
 7517SOL    HW124390   8.430  13.356   4.959
 7517SOL    HW224391   8.455  13.433   4.831
 7518SOL     OW24392   5.660   1.889   4.124
 7518SOL    HW124393   5.610   1.902   4.044
 7518SOL    HW224394   5.605   1.832   4.178
 7519SOL     OW24395   3.928   7.331   1.984
 7519SOL    HW124396   3.957   7.322   2.074
 7519SOL    HW224397   3.929   7.425   1.967
 7520SOL     OW24398   0.944  11.257  10.345
 7520SOL    HW124399   0.918  11.165  10.341
 7520SOL    HW224400   0.942  11.287  10.255
 7521SOL     OW24401   7.296   3.086  11.084
 7521SOL    HW124402   7.250   3.012  11.044
 7521SOL    HW224403   7.279   3.160  11.025
 7522SOL     OW24404   1.552  10.552   5.614
 7522SOL    HW124405   1.570  10.636   5.572
 7522SOL    HW224406   1.542  10.491   5.541
 7523SOL     OW24407  12.738   1.764   1.995
 7523SOL    HW124408  12.756   1.678   1.957
 7523SOL    HW224409  12.792   1.768   2.074
 7524SOL     OW24410   4.550   7.831   7.805
 7524SOL    HW124411   4.645   7.838   7.812
 7524SOL    HW224412   4.526   7.763   7.867
 7525SOL     OW24413  10.325   6.649   5.915
 7525SOL    HW124414  10.232   6.624   5.919
 7525SOL    HW224415  10.347   6.642   5.822
 7526SOL     OW24416   7.573   9.445   3.652
 7526SOL    HW124417   7.630   9.510   3.692
 7526SOL    HW224418   7.589   9.365   3.703
 7527SOL     OW24419   8.422  11.981   8.085
 7527SOL    HW124420   8.335  11.940   8.076
 7527SOL    HW224421   8.432  11.994   8.179
 7528SOL     OW24422   8.528  10.755   1.860
 7528SOL    HW124423   8.506  10.761   1.767
 7528SOL    HW224424   8.474  10.683   1.893
 7529SOL     OW24425   5.950   1.654   4.503
 7529SOL    HW124426   5.942   1.719   4.433
 7529SOL    HW224427   5.860   1.633   4.528
 7530SOL     OW24428   1.088  13.801   4.550
 7530SOL    HW124429   1.146  13.726   4.540
 7530SOL    HW224430   1.106  13.856   4.474
 7531SOL     OW24431   4.405   8.488  10.519
 7531SOL    HW124432   4.384   8.576  10.551
 7531SOL    HW224433   4.480   8.460  10.573
 7532SOL     OW24434   8.086  13.226   1.161
 7532SOL    HW124435   8.148  13.274   1.216
 7532SOL    HW224436   8.136  13.201   1.083
 7533SOL     OW24437   8.954   8.930   1.617
 7533SOL    HW124438   9.000   8.906   1.536
 7533SOL    HW224439   8.863   8.940   1.590
 7534SOL     OW24440  11.078  13.307  13.903
 7534SOL    HW124441  10.988  13.328  13.876
 7534SOL    HW224442  11.113  13.256  13.831
 7535SOL     OW24443  14.495   5.231   6.763
 7535SOL    HW124444  14.537   5.222   6.678
 7535SOL    HW224445  14.505   5.324   6.785
 7536SOL     OW24446  11.084  11.656  13.550
 7536SOL    HW124447  11.163  11.622  13.509
 7536SOL    HW224448  11.020  11.659  13.479
 7537SOL     OW24449   9.035  11.948   7.827
 7537SOL    HW124450   8.968  11.894   7.785
 7537SOL    HW224451   9.105  11.954   7.763
 7538SOL     OW24452   0.156  11.537  13.988
 7538SOL    HW124453   0.098  11.611  14.009
 7538SOL    HW224454   0.100  11.476  13.939
 7539SOL     OW24455  10.617  10.387  13.145
 7539SOL    HW124456  10.548  10.454  13.137
 7539SOL    HW224457  10.575  10.316  13.193
 7540SOL     OW24458   2.921   3.100  12.019
 7540SOL    HW124459   2.833   3.069  11.999
 7540SOL    HW224460   2.932   3.085  12.113
 7541SOL     OW24461   4.296  11.440   3.576
 7541SOL    HW124462   4.333  11.391   3.649
 7541SOL    HW224463   4.227  11.494   3.615
 7542SOL     OW24464   5.692   4.966   1.937
 7542SOL    HW124465   5.785   4.942   1.937
 7542SOL    HW224466   5.651   4.903   1.996
 7543SOL     OW24467   9.484   4.560   8.719
 7543SOL    HW124468   9.433   4.517   8.788
 7543SOL    HW224469   9.575   4.537   8.738
 7544SOL     OW24470   9.236   1.970  11.881
 7544SOL    HW124471   9.329   1.964  11.860
 7544SOL    HW224472   9.223   2.060  11.911
 7545SOL     OW24473  12.662   8.190  10.118
 7545SOL    HW124474  12.706   8.265  10.079
 7545SOL    HW224475  12.599   8.229  10.179
 7546SOL     OW24476   4.687  11.559   0.744
 7546SOL    HW124477   4.708  11.504   0.820
 7546SOL    HW224478   4.766  11.555   0.690
 7547SOL     OW24479  12.672   7.908   2.893
 7547SOL    HW124480  12.731   7.982   2.877
 7547SOL    HW224481  12.658   7.908   2.988
 7548SOL     OW24482   4.641  10.498   6.291
 7548SOL    HW124483   4.558  10.487   6.337
 7548SOL    HW224484   4.692  10.420   6.314
 7549SOL     OW24485   5.879  12.831  12.182
 7549SOL    HW124486   5.885  12.800  12.273
 7549SOL    HW224487   5.947  12.898  12.176
 7550SOL     OW24488   1.559  10.373   6.475
 7550SOL    HW124489   1.480  10.356   6.425
 7550SOL    HW224490   1.618  10.417   6.414
 7551SOL     OW24491   6.247   8.876  10.773
 7551SOL    HW124492   6.294   8.953  10.803
 7551SOL    HW224493   6.273   8.806  10.833
 7552SOL     OW24494   0.520   5.053  11.638
 7552SOL    HW124495   0.585   5.115  11.607
 7552SOL    HW224496   0.476   5.024  11.558
 7553SOL     OW24497   3.768  10.197   3.646
 7553SOL    HW124498   3.684  10.152   3.642
 7553SOL    HW224499   3.790  10.215   3.555
 7554SOL     OW24500   9.943   3.821  10.898
 7554SOL    HW124501   9.925   3.848  10.988
 7554SOL    HW224502   9.884   3.747  10.884
 7555SOL     OW24503   9.377   1.889   6.109
 7555SOL    HW124504   9.440   1.894   6.182
 7555SOL    HW224505   9.345   1.799   6.111
 7556SOL     OW24506   0.527   1.423   8.649
 7556SOL    HW124507   0.519   1.341   8.601
 7556SOL    HW224508   0.476   1.411   8.729
 7557SOL     OW24509   5.577  14.648   8.337
 7557SOL    HW124510   5.636  14.611   8.404
 7557SOL    HW224511   5.492  14.652   8.380
 7558SOL     OW24512   0.032   3.835  12.629
 7558SOL    HW124513  14.860   3.897  12.684
 7558SOL    HW224514  14.844   3.801  12.568
 7559SOL     OW24515  13.947   5.378   2.228
 7559SOL    HW124516  13.961   5.412   2.139
 7559SOL    HW224517  14.013   5.422   2.281
 7560SOL     OW24518  12.877   9.432   3.180
 7560SOL    HW124519  12.847   9.415   3.269
 7560SOL    HW224520  12.941   9.363   3.162
 7561SOL     OW24521   3.986  13.753   0.867
 7561SOL    HW124522   4.061  13.772   0.811
 7561SOL    HW224523   3.991  13.659   0.883
 7562SOL     OW24524  13.670   2.793   4.221
 7562SOL    HW124525  13.733   2.851   4.178
 7562SOL    HW224526  13.670   2.714   4.167
 7563SOL     OW24527   3.743   7.841  13.822
 7563SOL    HW124528   3.678   7.877  13.762
 7563SOL    HW224529   3.751   7.749  13.797
 7564SOL     OW24530   9.218   6.907  12.983
 7564SOL    HW124531   9.242   6.856  12.906
 7564SOL    HW224532   9.126   6.885  12.997
 7565SOL     OW24533   7.807   8.740  13.682
 7565SOL    HW124534   7.753   8.792  13.741
 7565SOL    HW224535   7.812   8.654  13.724
 7566SOL     OW24536  14.619   2.411  14.500
 7566SOL    HW124537  14.640   2.342  14.438
 7566SOL    HW224538  14.584   2.365  14.576
 7567SOL     OW24539   4.510   8.603  13.101
 7567SOL    HW124540   4.440   8.665  13.121
 7567SOL    HW224541   4.494   8.577  13.010
 7568SOL     OW24542   8.634   2.412  10.431
 7568SOL    HW124543   8.620   2.413  10.526
 7568SOL    HW224544   8.722   2.376  10.420
 7569SOL     OW24545   7.546   3.528  12.760
 7569SOL    HW124546   7.639   3.554  12.760
 7569SOL    HW224547   7.526   3.514  12.667
 7570SOL     OW24548   8.869   2.882   1.081
 7570SOL    HW124549   8.800   2.933   1.039
 7570SOL    HW224550   8.846   2.791   1.062
 7571SOL     OW24551  11.095   3.007   9.789
 7571SOL    HW124552  11.139   2.925   9.770
 7571SOL    HW224553  11.100   3.057   9.707
 7572SOL     OW24554   8.984  11.655  14.435
 7572SOL    HW124555   8.957  11.583  14.378
 7572SOL    HW224556   8.904  11.707  14.448
 7573SOL     OW24557  12.864   5.412   6.919
 7573SOL    HW124558  12.938   5.465   6.890
 7573SOL    HW224559  12.870   5.411   7.014
 7574SOL     OW24560   5.337   9.242   0.403
 7574SOL    HW124561   5.249   9.219   0.371
 7574SOL    HW224562   5.353   9.182   0.476
 7575SOL     OW24563   6.863   0.552  12.674
 7575SOL    HW124564   6.841   0.501  12.752
 7575SOL    HW224565   6.838   0.496  12.601
 7576SOL     OW24566  10.704   6.706  10.296
 7576SOL    HW124567  10.789   6.678  10.262
 7576SOL    HW224568  10.641   6.646  10.255
 7577SOL     OW24569   0.525   8.231   9.935
 7577SOL    HW124570   0.479   8.201   9.857
 7577SOL    HW224571   0.457   8.270   9.990
 7578SOL     OW24572   6.137   1.407   6.546
 7578SOL    HW124573   6.167   1.378   6.460
 7578SOL    HW224574   6.180   1.491   6.560
 7579SOL     OW24575   2.202   9.324   2.457
 7579SOL    HW124576   2.254   9.286   2.385
 7579SOL    HW224577   2.171   9.407   2.421
 7580SOL     OW24578  14.801   0.486   6.847
 7580SOL    HW124579  14.808   0.574   6.885
 7580SOL    HW224580  14.706   0.470   6.844
 7581SOL     OW24581  12.346  10.807  11.434
 7581SOL    HW124582  12.418  10.776  11.490
 7581SOL    HW224583  12.380  10.799  11.345
 7582SOL     OW24584   9.055  11.490  11.022
 7582SOL    HW124585   9.081  11.501  10.931
 7582SOL    HW224586   9.004  11.409  11.024
 7583SOL     OW24587   2.277   6.517  14.410
 7583SOL    HW124588   2.206   6.551  14.464
 7583SOL    HW224589   2.237   6.447  14.358
 7584SOL     OW24590   3.968   5.604   6.126
 7584SOL    HW124591   4.062   5.624   6.133
 7584SOL    HW224592   3.963   5.509   6.138
 7585SOL     OW24593   2.612   9.159   5.213
 7585SOL    HW124594   2.695   9.199   5.238
 7585SOL    HW224595   2.565   9.229   5.168
 7586SOL     OW24596   2.725   6.769   5.399
 7586SOL    HW124597   2.697   6.680   5.375
 7586SOL    HW224598   2.801   6.755   5.455
 7587SOL     OW24599  14.068   5.965  12.113
 7587SOL    HW124600  13.977   5.969  12.142
 7587SOL    HW224601  14.119   5.991  12.189
 7588SOL     OW24602   6.053   9.245   9.961
 7588SOL    HW124603   6.149   9.249   9.961
 7588SOL    HW224604   6.033   9.167  10.013
 7589SOL     OW24605   8.531   2.009   8.456
 7589SOL    HW124606   8.505   1.925   8.495
 7589SOL    HW224607   8.514   2.073   8.524
 7590SOL     OW24608  13.486   6.075   3.297
 7590SOL    HW124609  13.527   6.091   3.382
 7590SOL    HW224610  13.554   6.095   3.233
 7591SOL     OW24611  13.473  10.045   4.777
 7591SOL    HW124612  13.494   9.954   4.756
 7591SOL    HW224613  13.530  10.097   4.721
 7592SOL     OW24614   3.399   8.867   7.753
 7592SOL    HW124615   3.357   8.951   7.733
 7592SOL    HW224616   3.355   8.804   7.694
 7593SOL     OW24617  12.699   1.365   0.077
 7593SOL    HW124618  12.726   1.433   0.139
 7593SOL    HW224619  12.628   1.319   0.121
 7594SOL     OW24620   6.630   8.928   0.831
 7594SOL    HW124621   6.719   8.923   0.866
 7594SOL    HW224622   6.622   8.849   0.776
 7595SOL     OW24623  10.837   4.066   0.748
 7595SOL    HW124624  10.812   4.067   0.841
 7595SOL    HW224625  10.906   4.001   0.743
 7596SOL     OW24626  10.721   0.972   0.948
 7596SOL    HW124627  10.662   0.939   1.016
 7596SOL    HW224628  10.770   0.895   0.920
 7597SOL     OW24629   4.722  13.048   3.074
 7597SOL    HW124630   4.672  13.120   3.110
 7597SOL    HW224631   4.788  13.090   3.019
 7598SOL     OW24632   4.856   2.636   0.997
 7598SOL    HW124633   4.878   2.557   1.048
 7598SOL    HW224634   4.796   2.685   1.054
 7599SOL     OW24635  10.357   1.296   1.518
 7599SOL    HW124636  10.404   1.352   1.580
 7599SOL    HW224637  10.274   1.340   1.504
 7600SOL     OW24638   7.789   9.150   4.542
 7600SOL    HW124639   7.837   9.072   4.570
 7600SOL    HW224640   7.857   9.216   4.526
 7601SOL     OW24641   8.242   3.463   6.140
 7601SOL    HW124642   8.204   3.379   6.114
 7601SOL    HW224643   8.188   3.492   6.214
 7602SOL     OW24644   1.400   2.410   6.211
 7602SOL    HW124645   1.319   2.452   6.182
 7602SOL    HW224646   1.394   2.321   6.177
 7603SOL     OW24647   1.341   9.010  14.191
 7603SOL    HW124648   1.302   8.944  14.249
 7603SOL    HW224649   1.333   9.092  14.240
 7604SOL     OW24650   0.722   6.684   8.847
 7604SOL    HW124651   0.635   6.673   8.809
 7604SOL    HW224652   0.782   6.644   8.783
 7605SOL     OW24653   0.286   3.426   8.400
 7605SOL    HW124654   0.230   3.406   8.475
 7605SOL    HW224655   0.347   3.493   8.433
 7606SOL     OW24656   8.318   1.738  12.197
 7606SOL    HW124657   8.339   1.650  12.165
 7606SOL    HW224658   8.403   1.778  12.216
 7607SOL     OW24659   6.699  12.668   3.249
 7607SOL    HW124660   6.706  12.677   3.344
 7607SOL    HW224661   6.758  12.596   3.228
 7608SOL     OW24662  13.864   3.886   8.729
 7608SOL    HW124663  13.826   3.973   8.731
 7608SOL    HW224664  13.846   3.854   8.640
 7609SOL     OW24665   6.825   7.570  12.982
 7609SOL    HW124666   6.773   7.572  12.901
 7609SOL    HW224667   6.781   7.630  13.041
 7610SOL     OW24668   7.867   6.951   0.867
 7610SOL    HW124669   7.910   7.035   0.849
 7610SOL    HW224670   7.806   6.971   0.938
 7611SOL     OW24671   8.999  12.320  14.431
 7611SOL    HW124672   9.090  12.348  14.442
 7611SOL    HW224673   9.002  12.225  14.437
 7612SOL     OW24674   7.336   8.107  11.945
 7612SOL    HW124675   7.420   8.103  11.990
 7612SOL    HW224676   7.274   8.065  12.005
 7613SOL     OW24677   2.324   6.720   1.380
 7613SOL    HW124678   2.281   6.771   1.311
 7613SOL    HW224679   2.341   6.783   1.450
 7614SOL     OW24680   1.857   3.039   8.487
 7614SOL    HW124681   1.861   3.091   8.568
 7614SOL    HW224682   1.949   3.022   8.466
 7615SOL     OW24683   0.792   7.755  10.905
 7615SOL    HW124684   0.825   7.706  10.980
 7615SOL    HW224685   0.702   7.777  10.928
 7616SOL     OW24686  13.763  10.378   9.378
 7616SOL    HW124687  13.806  10.293   9.369
 7616SOL    HW224688  13.749  10.388   9.473
 7617SOL     OW24689   6.953   0.275   6.218
 7617SOL    HW124690   6.926   0.367   6.228
 7617SOL    HW224691   6.951   0.259   6.124
 7618SOL     OW24692   9.212   3.766   1.550
 7618SOL    HW124693   9.271   3.722   1.611
 7618SOL    HW224694   9.209   3.708   1.474
 7619SOL     OW24695   7.432   7.064   8.148
 7619SOL    HW124696   7.342   7.048   8.177
 7619SOL    HW224697   7.423   7.088   8.056
 7620SOL     OW24698   2.014   6.493   2.987
 7620SOL    HW124699   1.962   6.422   3.024
 7620SOL    HW224700   2.101   6.481   3.024
 7621SOL     OW24701  11.706   6.559  14.788
 7621SOL    HW124702  11.683   6.526  14.875
 7621SOL    HW224703  11.730   6.480  14.739
 7622SOL     OW24704  11.818   1.202  12.176
 7622SOL    HW124705  11.852   1.113  12.171
 7622SOL    HW224706  11.739   1.201  12.121
 7623SOL     OW24707  11.966   2.891  14.497
 7623SOL    HW124708  11.902   2.906  14.566
 7623SOL    HW224709  11.946   2.803  14.464
 7624SOL     OW24710   6.381   0.708   6.136
 7624SOL    HW124711   6.460   0.704   6.190
 7624SOL    HW224712   6.329   0.777   6.176
 7625SOL     OW24713   7.489   6.813   8.413
 7625SOL    HW124714   7.435   6.760   8.355
 7625SOL    HW224715   7.444   6.897   8.419
 7626SOL     OW24716  13.152   4.009   5.110
 7626SOL    HW124717  13.097   4.084   5.086
 7626SOL    HW224718  13.237   4.027   5.070
 7627SOL     OW24719  12.212   0.261   8.933
 7627SOL    HW124720  12.167   0.254   8.848
 7627SOL    HW224721  12.305   0.266   8.910
 7628SOL     OW24722  12.654   1.345   5.227
 7628SOL    HW124723  12.594   1.335   5.300
 7628SOL    HW224724  12.658   1.440   5.212
 7629SOL     OW24725   0.987   5.877   0.234
 7629SOL    HW124726   0.937   5.827   0.169
 7629SOL    HW224727   0.992   5.820   0.310
 7630SOL     OW24728   8.668  11.898   6.635
 7630SOL    HW124729   8.684  11.870   6.725
 7630SOL    HW224730   8.622  11.982   6.644
 7631SOL     OW24731   1.629   2.563   0.210
 7631SOL    HW124732   1.680   2.482   0.210
 7631SOL    HW224733   1.615   2.584   0.302
 7632SOL     OW24734   3.004   2.850   8.497
 7632SOL    HW124735   3.087   2.850   8.545
 7632SOL    HW224736   2.943   2.804   8.555
 7633SOL     OW24737   3.587  10.147   0.211
 7633SOL    HW124738   3.629  10.193   0.139
 7633SOL    HW224739   3.602  10.203   0.287
 7634SOL     OW24740   8.797   6.667  12.254
 7634SOL    HW124741   8.856   6.742  12.259
 7634SOL    HW224742   8.716   6.703  12.219
 7635SOL     OW24743  13.057   9.237   3.146
 7635SOL    HW124744  13.148   9.268   3.141
 7635SOL    HW224745  13.065   9.146   3.173
 7636SOL     OW24746   2.804   7.594   7.223
 7636SOL    HW124747   2.796   7.551   7.138
 7636SOL    HW224748   2.765   7.681   7.210
 7637SOL     OW24749   7.856   8.949   3.089
 7637SOL    HW124750   7.765   8.966   3.067
 7637SOL    HW224751   7.891   8.905   3.011
 7638SOL     OW24752   7.733   1.028  12.821
 7638SOL    HW124753   7.703   1.045  12.732
 7638SOL    HW224754   7.828   1.021  12.813
 7639SOL     OW24755   5.248   7.425  13.080
 7639SOL    HW124756   5.311   7.489  13.111
 7639SOL    HW224757   5.296   7.373  13.015
 7640SOL     OW24758  10.147   1.442   3.671
 7640SOL    HW124759  10.176   1.524   3.631
 7640SOL    HW224760  10.165   1.453   3.764
 7641SOL     OW24761   2.237  11.664   4.606
 7641SOL    HW124762   2.229  11.645   4.700
 7641SOL    HW224763   2.293  11.741   4.603
 7642SOL     OW24764   1.768   5.897   0.212
 7642SOL    HW124765   1.845   5.905   0.156
 7642SOL    HW224766   1.803   5.868   0.297
 7643SOL     OW24767   5.218  10.627   6.011
 7643SOL    HW124768   5.185  10.632   6.101
 7643SOL    HW224769   5.307  10.593   6.019
 7644SOL     OW24770   1.628   7.177   6.754
 7644SOL    HW124771   1.571   7.147   6.825
 7644SOL    HW224772   1.568   7.197   6.682
 7645SOL     OW24773   0.036   6.063   2.955
 7645SOL    HW124774  14.868   5.999   2.898
 7645SOL    HW224775   0.037   6.144   2.903
 7646SOL     OW24776  13.619   5.580   5.654
 7646SOL    HW124777  13.667   5.600   5.734
 7646SOL    HW224778  13.683   5.540   5.596
 7647SOL     OW24779   8.731   2.939  11.223
 7647SOL    HW124780   8.758   2.847  11.215
 7647SOL    HW224781   8.813   2.988  11.223
 7648SOL     OW24782  13.155   6.089  13.784
 7648SOL    HW124783  13.236   6.113  13.828
 7648SOL    HW224784  13.087   6.138  13.831
 7649SOL     OW24785  14.393   2.197  10.422
 7649SOL    HW124786  14.360   2.142  10.351
 7649SOL    HW224787  14.397   2.285  10.384
 7650SOL     OW24788   6.664   2.334  10.796
 7650SOL    HW124789   6.704   2.247  10.804
 7650SOL    HW224790   6.614   2.330  10.715
 7651SOL     OW24791  12.127   5.185   1.813
 7651SOL    HW124792  12.068   5.164   1.740
 7651SOL    HW224793  12.069   5.215   1.883
 7652SOL     OW24794  12.139  10.529   6.404
 7652SOL    HW124795  12.116  10.622   6.393
 7652SOL    HW224796  12.190  10.508   6.326
 7653SOL     OW24797   0.554  13.634   6.278
 7653SOL    HW124798   0.495  13.560   6.266
 7653SOL    HW224799   0.641  13.594   6.283
 7654SOL     OW24800   6.576  13.292   3.763
 7654SOL    HW124801   6.587  13.199   3.780
 7654SOL    HW224802   6.652  13.334   3.804
 7655SOL     OW24803  11.322  11.153  10.877
 7655SOL    HW124804  11.293  11.102  10.801
 7655SOL    HW224805  11.249  11.146  10.938
 7656SOL     OW24806  12.366   2.076   0.015
 7656SOL    HW124807  12.348   2.114   0.100
 7656SOL    HW224808  12.283   2.078  14.845
 7657SOL     OW24809   9.046   1.885   2.797
 7657SOL    HW124810   8.980   1.864   2.730
 7657SOL    HW224811   9.124   1.909   2.747
 7658SOL     OW24812   4.021  12.277   9.881
 7658SOL    HW124813   3.979  12.199   9.917
 7658SOL    HW224814   3.951  12.343   9.881
 7659SOL     OW24815   0.649   3.245   8.257
 7659SOL    HW124816   0.695   3.306   8.314
 7659SOL    HW224817   0.690   3.160   8.276
 7660SOL     OW24818   7.598  14.716   2.524
 7660SOL    HW124819   7.510  14.752   2.535
 7660SOL    HW224820   7.585  14.630   2.484
 7661SOL     OW24821   1.029   8.440   2.400
 7661SOL    HW124822   1.025   8.436   2.495
 7661SOL    HW224823   0.957   8.500   2.376
 7662SOL     OW24824   0.645   2.937  10.826
 7662SOL    HW124825   0.728   2.893  10.843
 7662SOL    HW224826   0.592   2.871  10.780
 7663SOL     OW24827   9.650  10.979   0.135
 7663SOL    HW124828   9.594  10.932   0.197
 7663SOL    HW224829   9.600  10.980   0.054
 7664SOL     OW24830   0.177  14.157   7.367
 7664SOL    HW124831   0.150  14.170   7.458
 7664SOL    HW224832   0.171  14.244   7.327
 7665SOL     OW24833   7.602  14.060   8.540
 7665SOL    HW124834   7.544  14.128   8.507
 7665SOL    HW224835   7.633  14.014   8.462
 7666SOL     OW24836   3.608   8.503   8.303
 7666SOL    HW124837   3.602   8.435   8.236
 7666SOL    HW224838   3.637   8.581   8.256
 7667SOL     OW24839   6.336   2.431   7.526
 7667SOL    HW124840   6.252   2.394   7.499
 7667SOL    HW224841   6.321   2.463   7.615
 7668SOL     OW24842   9.423  12.018   2.318
 7668SOL    HW124843   9.346  12.057   2.277
 7668SOL    HW224844   9.397  12.005   2.409
 7669SOL     OW24845   8.446  12.122   9.597
 7669SOL    HW124846   8.394  12.195   9.631
 7669SOL    HW224847   8.381  12.063   9.558
 7670SOL     OW24848   1.901   1.860   2.573
 7670SOL    HW124849   1.931   1.818   2.493
 7670SOL    HW224850   1.923   1.953   2.562
 7671SOL     OW24851  10.998   8.227  11.030
 7671SOL    HW124852  10.936   8.175  10.979
 7671SOL    HW224853  11.024   8.298  10.971
 7672SOL     OW24854   4.393   8.350  13.212
 7672SOL    HW124855   4.442   8.429  13.191
 7672SOL    HW224856   4.452   8.278  13.189
 7673SOL     OW24857   6.797   4.886   9.095
 7673SOL    HW124858   6.872   4.940   9.070
 7673SOL    HW224859   6.729   4.949   9.118
 7674SOL     OW24860   8.376  14.327   7.476
 7674SOL    HW124861   8.410  14.380   7.403
 7674SOL    HW224862   8.377  14.238   7.442
 7675SOL     OW24863   1.968   6.580   7.082
 7675SOL    HW124864   1.873   6.570   7.079
 7675SOL    HW224865   1.989   6.633   7.006
 7676SOL     OW24866   1.492  12.860   8.809
 7676SOL    HW124867   1.577  12.891   8.777
 7676SOL    HW224868   1.465  12.793   8.747
 7677SOL     OW24869   6.832  10.492   7.461
 7677SOL    HW124870   6.787  10.516   7.542
 7677SOL    HW224871   6.812  10.400   7.448
 7678SOL     OW24872  10.489   9.157   6.485
 7678SOL    HW124873  10.478   9.082   6.426
 7678SOL    HW224874  10.474   9.121   6.572
 7679SOL     OW24875   5.443  10.721   1.158
 7679SOL    HW124876   5.478  10.728   1.069
 7679SOL    HW224877   5.366  10.664   1.149
 7680SOL     OW24878   7.111   8.080   8.312
 7680SOL    HW124879   7.021   8.103   8.286
 7680SOL    HW224880   7.119   7.987   8.291
 7681SOL     OW24881   3.026   7.456  10.781
 7681SOL    HW124882   3.037   7.537  10.733
 7681SOL    HW224883   3.068   7.472  10.866
 7682SOL     OW24884   1.889  11.563   0.586
 7682SOL    HW124885   1.985  11.568   0.588
 7682SOL    HW224886   1.860  11.627   0.651
 7683SOL     OW24887   4.413  11.792   5.682
 7683SOL    HW124888   4.399  11.827   5.593
 7683SOL    HW224889   4.343  11.831   5.734
 7684SOL     OW24890   4.898  14.642   5.023
 7684SOL    HW124891   4.836  14.715   5.024
 7684SOL    HW224892   4.847  14.567   5.054
 7685SOL     OW24893   4.949   9.879  13.726
 7685SOL    HW124894   4.990   9.896  13.641
 7685SOL    HW224895   4.942   9.784  13.730
 7686SOL     OW24896   5.853   6.970  11.487
 7686SOL    HW124897   5.874   6.904  11.422
 7686SOL    HW224898   5.787   7.025  11.445
 7687SOL     OW24899   0.266   7.169   4.572
 7687SOL    HW124900   0.218   7.242   4.612
 7687SOL    HW224901   0.222   7.155   4.488
 7688SOL     OW24902   7.255   0.203  13.203
 7688SOL    HW124903   7.276   0.115  13.172
 7688SOL    HW224904   7.244   0.254  13.123
 7689SOL     OW24905  11.515  13.852  12.585
 7689SOL    HW124906  11.591  13.906  12.564
 7689SOL    HW224907  11.439  13.905  12.560
 7690SOL     OW24908   8.892  13.899  11.196
 7690SOL    HW124909   8.918  13.848  11.273
 7690SOL    HW224910   8.812  13.856  11.165
 7691SOL     OW24911   3.371   7.526   1.648
 7691SOL    HW124912   3.343   7.613   1.675
 7691SOL    HW224913   3.466   7.531   1.643
 7692SOL     OW24914   1.548   3.312   9.079
 7692SOL    HW124915   1.471   3.329   9.132
 7692SOL    HW224916   1.576   3.224   9.104
 7693SOL     OW24917   5.024   7.366   4.647
 7693SOL    HW124918   5.017   7.368   4.742
 7693SOL    HW224919   5.106   7.320   4.629
 7694SOL     OW24920   4.629   0.547   9.573
 7694SOL    HW124921   4.652   0.513   9.487
 7694SOL    HW224922   4.657   0.480   9.634
 7695SOL     OW24923  11.633   3.095  13.958
 7695SOL    HW124924  11.686   3.056  13.888
 7695SOL    HW224925  11.627   3.026  14.024
 7696SOL     OW24926  10.869   4.954  10.616
 7696SOL    HW124927  10.925   4.928  10.542
 7696SOL    HW224928  10.913   4.918  10.693
 7697SOL     OW24929  10.167   2.840   8.089
 7697SOL    HW124930  10.169   2.747   8.110
 7697SOL    HW224931  10.205   2.883   8.165
 7698SOL     OW24932  12.579   5.507   1.623
 7698SOL    HW124933  12.590   5.549   1.538
 7698SOL    HW224934  12.485   5.511   1.639
 7699SOL     OW24935   3.745  11.222   2.059
 7699SOL    HW124936   3.700  11.196   1.978
 7699SOL    HW224937   3.674  11.246   2.118
 7700SOL     OW24938   2.917  11.434   8.587
 7700SOL    HW124939   2.939  11.364   8.649
 7700SOL    HW224940   2.822  11.443   8.594
 7701SOL     OW24941   8.093  12.679  10.393
 7701SOL    HW124942   8.151  12.653  10.465
 7701SOL    HW224943   8.094  12.605  10.333
 7702SOL     OW24944  14.308   5.368   6.558
 7702SOL    HW124945  14.392   5.407   6.583
 7702SOL    HW224946  14.331   5.292   6.504
 7703SOL     OW24947   7.199  10.178   3.145
 7703SOL    HW124948   7.104  10.179   3.130
 7703SOL    HW224949   7.208  10.177   3.240
 7704SOL     OW24950   9.081  11.846   1.919
 7704SOL    HW124951   9.038  11.856   1.835
 7704SOL    HW224952   9.014  11.868   1.984
 7705SOL     OW24953   6.117  13.317   8.144
 7705SOL    HW124954   6.178  13.246   8.129
 7705SOL    HW224955   6.132  13.344   8.235
 7706SOL     OW24956  10.908   4.002   6.759
 7706SOL    HW124957  11.001   3.984   6.772
 7706SOL    HW224958  10.894   3.989   6.665
 7707SOL     OW24959   7.254   1.067   5.044
 7707SOL    HW124960   7.215   1.103   5.124
 7707SOL    HW224961   7.247   0.972   5.054
 7708SOL     OW24962   3.881  12.281   6.818
 7708SOL    HW124963   3.833  12.360   6.796
 7708SOL    HW224964   3.838  12.248   6.897
 7709SOL     OW24965   8.506  12.596   3.488
 7709SOL    HW124966   8.538  12.521   3.538
 7709SOL    HW224967   8.418  12.570   3.459
 7710SOL     OW24968   6.961  12.127   0.884
 7710SOL    HW124969   6.907  12.194   0.842
 7710SOL    HW224970   6.926  12.044   0.851
 7711SOL     OW24971   0.173  12.408  11.773
 7711SOL    HW124972   0.212  12.321  11.770
 7711SOL    HW224973   0.184  12.443  11.684
 7712SOL     OW24974   6.007  10.076   0.912
 7712SOL    HW124975   6.096  10.087   0.881
 7712SOL    HW224976   5.968  10.164   0.905
 7713SOL     OW24977  12.034  10.132   8.445
 7713SOL    HW124978  12.010  10.173   8.528
 7713SOL    HW224979  12.005  10.041   8.454
 7714SOL     OW24980   5.712  12.337   7.924
 7714SOL    HW124981   5.807  12.347   7.917
 7714SOL    HW224982   5.699  12.290   8.007
 7715SOL     OW24983  13.439   3.581   7.170
 7715SOL    HW124984  13.383   3.649   7.208
 7715SOL    HW224985  13.525   3.596   7.208
 7716SOL     OW24986  14.184   9.368   3.251
 7716SOL    HW124987  14.222   9.281   3.238
 7716SOL    HW224988  14.242   9.428   3.206
 7717SOL     OW24989  11.523   3.814   1.279
 7717SOL    HW124990  11.467   3.773   1.345
 7717SOL    HW224991  11.578   3.875   1.328
 7718SOL     OW24992  12.320   1.030   2.973
 7718SOL    HW124993  12.326   1.092   3.046
 7718SOL    HW224994  12.231   1.041   2.940
 7719SOL     OW24995   0.882  11.373  11.905
 7719SOL    HW124996   0.787  11.367  11.916
 7719SOL    HW224997   0.903  11.463  11.933
 7720SOL     OW24998  10.175   0.049   8.296
 7720SOL    HW124999  10.187   0.143   8.282
 7720SOL    HW225000  10.084   0.032   8.272
 7721SOL     OW25001   3.192   9.839   6.977
 7721SOL    HW125002   3.194   9.898   7.052
 7721SOL    HW225003   3.107   9.794   6.984
 7722SOL     OW25004   6.945   1.490   9.736
 7722SOL    HW125005   6.869   1.516   9.683
 7722SOL    HW225006   7.019   1.501   9.676
 7723SOL     OW25007   5.931   7.511  12.792
 7723SOL    HW125008   5.985   7.548  12.862
 7723SOL    HW225009   5.855   7.569  12.787
 7724SOL     OW25010   1.197   2.267  11.558
 7724SOL    HW125011   1.281   2.287  11.517
 7724SOL    HW225012   1.137   2.333  11.522
 7725SOL     OW25013   1.816   8.665   7.345
 7725SOL    HW125014   1.884   8.720   7.382
 7725SOL    HW225015   1.806   8.695   7.254
 7726SOL     OW25016   6.147   8.305   9.101
 7726SOL    HW125017   6.110   8.252   9.172
 7726SOL    HW225018   6.135   8.396   9.131
 7727SOL     OW25019  12.265   2.630  13.426
 7727SOL    HW125020  12.219   2.703  13.468
 7727SOL    HW225021  12.240   2.553  13.478
 7728SOL     OW25022   6.419   3.897  13.695
 7728SOL    HW125023   6.357   3.824  13.696
 7728SOL    HW225024   6.500   3.861  13.731
 7729SOL     OW25025  11.154   4.402  10.092
 7729SOL    HW125026  11.197   4.472  10.042
 7729SOL    HW225027  11.089   4.366  10.031
 7730SOL     OW25028  10.752   2.711  13.542
 7730SOL    HW125029  10.752   2.795  13.495
 7730SOL    HW225030  10.824   2.662  13.502
 7731SOL     OW25031   1.630   7.291   4.416
 7731SOL    HW125032   1.648   7.258   4.328
 7731SOL    HW225033   1.543   7.331   4.409
 7732SOL     OW25034   2.273  10.367  10.862
 7732SOL    HW125035   2.289  10.455  10.898
 7732SOL    HW225036   2.217  10.325  10.927
 7733SOL     OW25037  12.085  13.580   6.349
 7733SOL    HW125038  12.068  13.487   6.342
 7733SOL    HW225039  12.181  13.588   6.342
 7734SOL     OW25040   3.443   9.397   3.262
 7734SOL    HW125041   3.368   9.347   3.229
 7734SOL    HW225042   3.473   9.348   3.338
 7735SOL     OW25043  13.833  11.942  12.289
 7735SOL    HW125044  13.920  11.903  12.285
 7735SOL    HW225045  13.772  11.868  12.282
 7736SOL     OW25046  13.760   1.559   1.059
 7736SOL    HW125047  13.728   1.595   0.976
 7736SOL    HW225048  13.783   1.468   1.038
 7737SOL     OW25049   5.937   1.086   3.199
 7737SOL    HW125050   5.912   1.073   3.107
 7737SOL    HW225051   6.001   1.157   3.197
 7738SOL     OW25052   4.734   3.827  10.904
 7738SOL    HW125053   4.797   3.762  10.874
 7738SOL    HW225054   4.752   3.837  10.998
 7739SOL     OW25055   6.612   7.688   0.768
 7739SOL    HW125056   6.667   7.739   0.708
 7739SOL    HW225057   6.653   7.601   0.769
 7740SOL     OW25058   0.743  14.031   9.419
 7740SOL    HW125059   0.812  14.058   9.359
 7740SOL    HW225060   0.723  13.941   9.395
 7741SOL     OW25061  13.551   6.070   7.756
 7741SOL    HW125062  13.551   6.069   7.660
 7741SOL    HW225063  13.619   6.008   7.781
 7742SOL     OW25064   3.769   9.707  10.139
 7742SOL    HW125065   3.722   9.631  10.174
 7742SOL    HW225066   3.854   9.705  10.183
 7743SOL     OW25067  13.915   7.031   5.186
 7743SOL    HW125068  13.866   7.012   5.267
 7743SOL    HW225069  13.910   6.949   5.136
 7744SOL     OW25070   2.934   0.875   4.045
 7744SOL    HW125071   3.002   0.888   4.111
 7744SOL    HW225072   2.906   0.785   4.057
 7745SOL     OW25073   8.190  14.431   5.292
 7745SOL    HW125074   8.164  14.402   5.380
 7745SOL    HW225075   8.284  14.416   5.289
 7746SOL     OW25076   8.611   5.856   0.378
 7746SOL    HW125077   8.564   5.934   0.348
 7746SOL    HW225078   8.679   5.890   0.437
 7747SOL     OW25079   5.693   2.664   2.694
 7747SOL    HW125080   5.787   2.652   2.693
 7747SOL    HW225081   5.681   2.758   2.677
 7748SOL     OW25082   7.095   7.057   1.529
 7748SOL    HW125083   7.115   6.965   1.545
 7748SOL    HW225084   7.000   7.064   1.539
 7749SOL     OW25085   4.203   7.714   0.035
 7749SOL    HW125086   4.262   7.763   0.092
 7749SOL    HW225087   4.139   7.779   0.005
 7750SOL     OW25088  11.516   7.384   7.607
 7750SOL    HW125089  11.506   7.290   7.592
 7750SOL    HW225090  11.559   7.390   7.693
 7751SOL     OW25091   8.106  10.726   1.733
 7751SOL    HW125092   8.193  10.763   1.749
 7751SOL    HW225093   8.101  10.718   1.638
 7752SOL     OW25094   1.374   8.942  14.584
 7752SOL    HW125095   1.443   8.974  14.525
 7752SOL    HW225096   1.296   8.993  14.559
 7753SOL     OW25097   7.929  11.389  11.111
 7753SOL    HW125098   7.971  11.320  11.162
 7753SOL    HW225099   7.864  11.343  11.058
 7754SOL     OW25100  12.250  12.363   8.723
 7754SOL    HW125101  12.248  12.353   8.818
 7754SOL    HW225102  12.212  12.282   8.689
 7755SOL     OW25103   5.946  13.444  10.313
 7755SOL    HW125104   5.903  13.390  10.380
 7755SOL    HW225105   6.039  13.423  10.321
 7756SOL     OW25106  11.783   8.381   4.198
 7756SOL    HW125107  11.712   8.320   4.176
 7756SOL    HW225108  11.838   8.333   4.260
 7757SOL     OW25109   5.813  12.598  10.220
 7757SOL    HW125110   5.872  12.570  10.149
 7757SOL    HW225111   5.757  12.664  10.180
 7758SOL     OW25112  11.452   1.610   4.881
 7758SOL    HW125113  11.491   1.535   4.836
 7758SOL    HW225114  11.372   1.628   4.833
 7759SOL     OW25115   4.664  11.750   5.180
 7759SOL    HW125116   4.572  11.758   5.203
 7759SOL    HW225117   4.683  11.657   5.186
 7760SOL     OW25118   5.464   6.373  10.601
 7760SOL    HW125119   5.436   6.321  10.676
 7760SOL    HW225120   5.434   6.324  10.525
 7761SOL     OW25121   7.609   4.960   8.889
 7761SOL    HW125122   7.666   5.011   8.832
 7761SOL    HW225123   7.537   4.931   8.833
 7762SOL     OW25124  13.288  14.584   3.920
 7762SOL    HW125125  13.333  14.627   3.993
 7762SOL    HW225126  13.219  14.532   3.961
 7763SOL     OW25127  11.606   4.065  14.210
 7763SOL    HW125128  11.667   4.003  14.249
 7763SOL    HW225129  11.560   4.104  14.284
 7764SOL     OW25130   5.296   6.949   5.883
 7764SOL    HW125131   5.241   6.961   5.806
 7764SOL    HW225132   5.239   6.972   5.957
 7765SOL     OW25133   4.514   7.186  12.083
 7765SOL    HW125134   4.494   7.107  12.033
 7765SOL    HW225135   4.453   7.252  12.048
 7766SOL     OW25136   6.177   8.621   0.177
 7766SOL    HW125137   6.157   8.536   0.215
 7766SOL    HW225138   6.255   8.606   0.123
 7767SOL     OW25139   9.370   0.413   1.020
 7767SOL    HW125140   9.307   0.401   1.091
 7767SOL    HW225141   9.443   0.460   1.060
 7768SOL     OW25142   5.842   9.886   4.028
 7768SOL    HW125143   5.852   9.837   4.109
 7768SOL    HW225144   5.752   9.871   4.001
 7769SOL     OW25145   2.608  11.754   5.701
 7769SOL    HW125146   2.576  11.825   5.757
 7769SOL    HW225147   2.529  11.719   5.659
 7770SOL     OW25148   5.498  14.428   6.921
 7770SOL    HW125149   5.484  14.522   6.918
 7770SOL    HW225150   5.575  14.413   6.867
 7771SOL     OW25151   5.392  10.464  13.185
 7771SOL    HW125152   5.335  10.450  13.260
 7771SOL    HW225153   5.471  10.503  13.221
 7772SOL     OW25154  14.115  10.745   1.619
 7772SOL    HW125155  14.126  10.654   1.649
 7772SOL    HW225156  14.197  10.788   1.644
 7773SOL     OW25157   7.562   1.743   4.132
 7773SOL    HW125158   7.531   1.703   4.213
 7773SOL    HW225159   7.541   1.836   4.140
 7774SOL     OW25160   1.241  12.032  10.131
 7774SOL    HW125161   1.218  12.062  10.043
 7774SOL    HW225162   1.314  11.971  10.119
 7775SOL     OW25163   6.007   6.468  13.084
 7775SOL    HW125164   5.989   6.425  13.000
 7775SOL    HW225165   5.924   6.464  13.131
 7776SOL     OW25166   1.235  10.094  12.157
 7776SOL    HW125167   1.238  10.182  12.118
 7776SOL    HW225168   1.323  10.080  12.191
 7777SOL     OW25169  14.440   3.327   0.858
 7777SOL    HW125170  14.408   3.298   0.944
 7777SOL    HW225171  14.449   3.422   0.867
 7778SOL     OW25172   4.998   0.206   7.732
 7778SOL    HW125173   5.058   0.247   7.670
 7778SOL    HW225174   5.038   0.220   7.818
 7779SOL     OW25175   6.954  14.842   5.023
 7779SOL    HW125176   6.954  14.875   4.933
 7779SOL    HW225177   6.998  14.757   5.017
 7780SOL     OW25178  11.715   2.609   5.851
 7780SOL    HW125179  11.675   2.695   5.838
 7780SOL    HW225180  11.808   2.623   5.830
 7781SOL     OW25181   0.525  11.730   2.422
 7781SOL    HW125182   0.456  11.758   2.361
 7781SOL    HW225183   0.556  11.647   2.387
 7782SOL     OW25184  12.181   3.616   8.709
 7782SOL    HW125185  12.136   3.564   8.642
 7782SOL    HW225186  12.120   3.686   8.730
 7783SOL     OW25187  11.331   9.956   0.906
 7783SOL    HW125188  11.321   9.975   0.999
 7783SOL    HW225189  11.394  10.022   0.876
 7784SOL     OW25190   1.865   3.656   6.187
 7784SOL    HW125191   1.827   3.639   6.273
 7784SOL    HW225192   1.959   3.661   6.202
 7785SOL     OW25193  11.290   3.328   9.130
 7785SOL    HW125194  11.380   3.340   9.158
 7785SOL    HW225195  11.294   3.325   9.034
 7786SOL     OW25196   2.647  11.274   8.502
 7786SOL    HW125197   2.558  11.269   8.466
 7786SOL    HW225198   2.644  11.220   8.581
 7787SOL     OW25199   5.467   7.399   2.607
 7787SOL    HW125200   5.442   7.307   2.608
 7787SOL    HW225201   5.390   7.445   2.640
 7788SOL     OW25202  10.424   9.421   8.181
 7788SOL    HW125203  10.422   9.511   8.151
 7788SOL    HW225204  10.501   9.415   8.237
 7789SOL     OW25205   0.225  13.227  10.145
 7789SOL    HW125206   0.183  13.154  10.191
 7789SOL    HW225207   0.154  13.291  10.133
 7790SOL     OW25208   2.319   1.938   4.078
 7790SOL    HW125209   2.383   1.977   4.019
 7790SOL    HW225210   2.371   1.890   4.142
 7791SOL     OW25211   2.379  11.135  13.024
 7791SOL    HW125212   2.458  11.082  13.037
 7791SOL    HW225213   2.307  11.072  13.029
 7792SOL     OW25214   2.140  13.662  12.631
 7792SOL    HW125215   2.077  13.647  12.702
 7792SOL    HW225216   2.216  13.609  12.655
 7793SOL     OW25217   8.769   2.411   9.284
 7793SOL    HW125218   8.791   2.502   9.304
 7793SOL    HW225219   8.780   2.404   9.189
 7794SOL     OW25220   9.186  12.931  10.517
 7794SOL    HW125221   9.273  12.930  10.557
 7794SOL    HW225222   9.203  12.938  10.423
 7795SOL     OW25223   7.199   8.632   1.805
 7795SOL    HW125224   7.104   8.639   1.790
 7795SOL    HW225225   7.222   8.716   1.846
 7796SOL     OW25226  14.491   5.185   9.232
 7796SOL    HW125227  14.435   5.146   9.165
 7796SOL    HW225228  14.431   5.238   9.285
 7797SOL     OW25229   9.086   3.074   7.646
 7797SOL    HW125230   9.142   3.006   7.683
 7797SOL    HW225231   9.082   3.055   7.552
 7798SOL     OW25232   9.849  10.501   4.827
 7798SOL    HW125233   9.768  10.535   4.788
 7798SOL    HW225234   9.883  10.440   4.762
 7799SOL     OW25235  11.741   8.063   3.606
 7799SOL    HW125236  11.828   8.076   3.567
 7799SOL    HW225237  11.756   8.068   3.701
 7800SOL     OW25238   5.150  13.329   2.112
 7800SOL    HW125239   5.194  13.347   2.195
 7800SOL    HW225240   5.056  13.334   2.132
 7801SOL     OW25241  14.748   8.157   1.957
 7801SOL    HW125242  14.776   8.163   1.866
 7801SOL    HW225243  14.754   8.247   1.990
 7802SOL     OW25244   4.388   4.304   6.949
 7802SOL    HW125245   4.410   4.211   6.960
 7802SOL    HW225246   4.367   4.313   6.856
 7803SOL     OW25247   1.839   7.999   1.101
 7803SOL    HW125248   1.884   7.951   1.171
 7803SOL    HW225249   1.856   8.091   1.120
 7804SOL     OW25250   7.917   4.910   3.033
 7804SOL    HW125251   7.979   4.863   2.977
 7804SOL    HW225252   7.833   4.870   3.014
 7805SOL     OW25253   2.960  13.362   3.815
 7805SOL    HW125254   2.898  13.416   3.766
 7805SOL    HW225255   2.906  13.305   3.869
 7806SOL     OW25256  13.544   2.421   5.564
 7806SOL    HW125257  13.528   2.389   5.652
 7806SOL    HW225258  13.459   2.455   5.535
 7807SOL     OW25259   4.192   5.107   0.928
 7807SOL    HW125260   4.231   5.066   1.006
 7807SOL    HW225261   4.224   5.197   0.930
 7808SOL     OW25262   5.575   4.831   8.912
 7808SOL    HW125263   5.609   4.804   8.827
 7808SOL    HW225264   5.633   4.902   8.940
 7809SOL     OW25265   1.033  13.548   6.562
 7809SOL    HW125266   1.066  13.473   6.513
 7809SOL    HW225267   1.093  13.556   6.636
 7810SOL     OW25268   6.247   9.154   8.636
 7810SOL    HW125269   6.186   9.182   8.567
 7810SOL    HW225270   6.278   9.068   8.607
 7811SOL     OW25271   3.009   0.872  11.342
 7811SOL    HW125272   2.942   0.913  11.286
 7811SOL    HW225273   2.988   0.779  11.341
 7812SOL     OW25274  12.661   7.467   2.729
 7812SOL    HW125275  12.673   7.538   2.792
 7812SOL    HW225276  12.571   7.478   2.699
 7813SOL     OW25277  10.966   6.250  12.317
 7813SOL    HW125278  10.896   6.190  12.344
 7813SOL    HW225279  10.941   6.278  12.229
 7814SOL     OW25280   0.297   2.817   0.090
 7814SOL    HW125281   0.320   2.809  14.874
 7814SOL    HW225282   0.230   2.751   0.104
 7815SOL     OW25283   1.104  10.574   3.449
 7815SOL    HW125284   1.199  10.580   3.458
 7815SOL    HW225285   1.070  10.599   3.535
 7816SOL     OW25286   7.483  11.950   0.869
 7816SOL    HW125287   7.405  11.995   0.902
 7816SOL    HW225288   7.518  12.009   0.802
 7817SOL     OW25289   6.986   9.423  13.723
 7817SOL    HW125290   6.911   9.467  13.684
 7817SOL    HW225291   7.033   9.385  13.648
 7818SOL     OW25292   4.613   2.104   7.830
 7818SOL    HW125293   4.612   2.047   7.753
 7818SOL    HW225294   4.656   2.052   7.898
 7819SOL     OW25295   1.682   7.524  14.272
 7819SOL    HW125296   1.774   7.531  14.247
 7819SOL    HW225297   1.671   7.433  14.298
 7820SOL     OW25298   0.376  11.380   8.764
 7820SOL    HW125299   0.375  11.474   8.747
 7820SOL    HW225300   0.295  11.348   8.726
 7821SOL     OW25301   1.477   3.800  12.286
 7821SOL    HW125302   1.462   3.706  12.281
 7821SOL    HW225303   1.454   3.833  12.200
 7822SOL     OW25304   0.427  12.680   3.336
 7822SOL    HW125305   0.451  12.763   3.295
 7822SOL    HW225306   0.346  12.653   3.292
 7823SOL     OW25307   2.330   0.178   1.194
 7823SOL    HW125308   2.395   0.227   1.244
 7823SOL    HW225309   2.368   0.170   1.107
 7824SOL     OW25310  10.964   4.510   6.577
 7824SOL    HW125311  11.038   4.450   6.582
 7824SOL    HW225312  10.889   4.455   6.554
 7825SOL     OW25313   6.460  13.421   4.234
 7825SOL    HW125314   6.531  13.364   4.263
 7825SOL    HW225315   6.412  13.369   4.169
 7826SOL     OW25316   7.025   8.441   1.499
 7826SOL    HW125317   7.103   8.395   1.466
 7826SOL    HW225318   6.952   8.396   1.457
 7827SOL     OW25319   7.964   6.659   7.044
 7827SOL    HW125320   7.941   6.742   7.003
 7827SOL    HW225321   8.001   6.685   7.129
 7828SOL     OW25322   7.514   3.950   1.409
 7828SOL    HW125323   7.603   3.918   1.423
 7828SOL    HW225324   7.485   3.906   1.329
 7829SOL     OW25325   4.413   4.744   0.780
 7829SOL    HW125326   4.403   4.811   0.848
 7829SOL    HW225327   4.391   4.662   0.824
 7830SOL     OW25328   4.590  11.258   5.411
 7830SOL    HW125329   4.548  11.176   5.383
 7830SOL    HW225330   4.537  11.289   5.484
 7831SOL     OW25331   1.856  13.726   6.915
 7831SOL    HW125332   1.892  13.791   6.855
 7831SOL    HW225333   1.891  13.643   6.884
 7832SOL     OW25334   7.653  11.810   5.442
 7832SOL    HW125335   7.561  11.806   5.466
 7832SOL    HW225336   7.658  11.768   5.356
 7833SOL     OW25337  10.410   5.825   8.447
 7833SOL    HW125338  10.332   5.877   8.429
 7833SOL    HW225339  10.383   5.765   8.517
 7834SOL     OW25340  14.566   7.597   3.643
 7834SOL    HW125341  14.618   7.657   3.590
 7834SOL    HW225342  14.619   7.581   3.721
 7835SOL     OW25343  13.208  13.731  11.722
 7835SOL    HW125344  13.184  13.710  11.632
 7835SOL    HW225345  13.209  13.827  11.724
 7836SOL     OW25346   9.679   3.638   5.649
 7836SOL    HW125347   9.622   3.658   5.723
 7836SOL    HW225348   9.639   3.561   5.608
 7837SOL     OW25349  12.632  10.688   0.324
 7837SOL    HW125350  12.642  10.605   0.277
 7837SOL    HW225351  12.541  10.714   0.307
 7838SOL     OW25352   4.040   6.389   2.606
 7838SOL    HW125353   3.968   6.368   2.547
 7838SOL    HW225354   3.997   6.405   2.691
 7839SOL     OW25355  11.778   8.155   5.421
 7839SOL    HW125356  11.838   8.122   5.488
 7839SOL    HW225357  11.762   8.246   5.446
 7840SOL     OW25358  12.341   5.072  13.818
 7840SOL    HW125359  12.326   5.166  13.827
 7840SOL    HW225360  12.259   5.037  13.783
 7841SOL     OW25361   4.016  10.442   2.905
 7841SOL    HW125362   4.102  10.400   2.907
 7841SOL    HW225363   4.024  10.518   2.963
 7842SOL     OW25364   1.014  12.410  13.847
 7842SOL    HW125365   1.015  12.457  13.930
 7842SOL    HW225366   1.097  12.362  13.846
 7843SOL     OW25367   1.716   9.478   5.810
 7843SOL    HW125368   1.795   9.443   5.770
 7843SOL    HW225369   1.648   9.414   5.789
 7844SOL     OW25370   5.559  12.615   3.084
 7844SOL    HW125371   5.478  12.597   3.035
 7844SOL    HW225372   5.606  12.677   3.029
 7845SOL     OW25373  14.688   5.681   6.588
 7845SOL    HW125374  14.609   5.684   6.642
 7845SOL    HW225375  14.675   5.749   6.522
 7846SOL     OW25376   5.392   7.757  13.578
 7846SOL    HW125377   5.439   7.802  13.508
 7846SOL    HW225378   5.300   7.762  13.552
 7847SOL     OW25379   7.275   9.299   7.055
 7847SOL    HW125380   7.306   9.383   7.088
 7847SOL    HW225381   7.205   9.274   7.115
 7848SOL     OW25382  11.545   2.907   5.415
 7848SOL    HW125383  11.531   2.890   5.508
 7848SOL    HW225384  11.581   2.825   5.381
 7849SOL     OW25385   4.376  13.278   5.340
 7849SOL    HW125386   4.459  13.274   5.388
 7849SOL    HW225387   4.318  13.329   5.397
 7850SOL     OW25388   0.428   0.212   8.650
 7850SOL    HW125389   0.407   0.142   8.712
 7850SOL    HW225390   0.455   0.286   8.704
 7851SOL     OW25391   1.943   2.255  12.058
 7851SOL    HW125392   1.907   2.307  11.986
 7851SOL    HW225393   2.036   2.248  12.038
 7852SOL     OW25394   7.108   9.940  13.680
 7852SOL    HW125395   7.100   9.993  13.600
 7852SOL    HW225396   7.195   9.901  13.674
 7853SOL     OW25397   4.399   7.274   8.846
 7853SOL    HW125398   4.339   7.272   8.921
 7853SOL    HW225399   4.380   7.194   8.797
 7854SOL     OW25400   6.661  10.839   4.945
 7854SOL    HW125401   6.618  10.828   5.030
 7854SOL    HW225402   6.714  10.760   4.935
 7855SOL     OW25403   0.622   6.643   7.865
 7855SOL    HW125404   0.566   6.631   7.788
 7855SOL    HW225405   0.637   6.738   7.869
 7856SOL     OW25406  10.890   7.515  10.182
 7856SOL    HW125407  10.953   7.459  10.137
 7856SOL    HW225408  10.869   7.468  10.263
 7857SOL     OW25409   8.687   4.125   3.641
 7857SOL    HW125410   8.687   4.082   3.726
 7857SOL    HW225411   8.623   4.077   3.589
 7858SOL     OW25412  13.512  10.150   1.719
 7858SOL    HW125413  13.500  10.216   1.787
 7858SOL    HW225414  13.425  10.113   1.706
 7859SOL     OW25415   5.912   7.792   0.568
 7859SOL    HW125416   6.001   7.825   0.559
 7859SOL    HW225417   5.865   7.861   0.614
 7860SOL     OW25418   8.194   7.969   0.208
 7860SOL    HW125419   8.264   8.017   0.165
 7860SOL    HW225420   8.176   7.895   0.150
 7861SOL     OW25421   7.938   7.941  12.984
 7861SOL    HW125422   7.951   8.021  12.932
 7861SOL    HW225423   8.010   7.941  13.047
 7862SOL     OW25424  10.662   5.286  13.218
 7862SOL    HW125425  10.611   5.248  13.290
 7862SOL    HW225426  10.753   5.282  13.249
 7863SOL     OW25427   6.045   2.454  10.493
 7863SOL    HW125428   6.004   2.515  10.554
 7863SOL    HW225429   5.988   2.377  10.494
 7864SOL     OW25430   7.604   0.678  10.393
 7864SOL    HW125431   7.678   0.633  10.433
 7864SOL    HW225432   7.540   0.609  10.376
 7865SOL     OW25433   0.729   5.894  11.936
 7865SOL    HW125434   0.656   5.944  11.974
 7865SOL    HW225435   0.802   5.956  11.934
 7866SOL     OW25436   9.397   9.663   6.834
 7866SOL    HW125437   9.383   9.573   6.862
 7866SOL    HW225438   9.479   9.660   6.784
 7867SOL     OW25439   4.784  10.215   8.617
 7867SOL    HW125440   4.852  10.266   8.573
 7867SOL    HW225441   4.792  10.127   8.580
 7868SOL     OW25442  10.708   8.121  13.190
 7868SOL    HW125443  10.671   8.042  13.230
 7868SOL    HW225444  10.799   8.122  13.217
 7869SOL     OW25445  10.500  13.451   2.727
 7869SOL    HW125446  10.547  13.368   2.734
 7869SOL    HW225447  10.567  13.517   2.743
 7870SOL     OW25448   5.976   1.240   9.683
 7870SOL    HW125449   5.922   1.162   9.696
 7870SOL    HW225450   6.064   1.214   9.712
 7871SOL     OW25451   1.710   6.123  14.513
 7871SOL    HW125452   1.619   6.153  14.519
 7871SOL    HW225453   1.715   6.050  14.573
 7872SOL     OW25454   2.026  11.082  14.509
 7872SOL    HW125455   1.982  11.105  14.591
 7872SOL    HW225456   2.085  11.011  14.532
 7873SOL     OW25457   9.416   8.916  10.760
 7873SOL    HW125458   9.413   9.008  10.786
 7873SOL    HW225459   9.494   8.881  10.802
 7874SOL     OW25460  13.090   5.918  10.515
 7874SOL    HW125461  13.101   5.957  10.428
 7874SOL    HW225462  13.178   5.895  10.542
 7875SOL     OW25463   2.368   9.423   4.725
 7875SOL    HW125464   2.460   9.408   4.748
 7875SOL    HW225465   2.369   9.501   4.671
 7876SOL     OW25466   4.143  13.612  12.198
 7876SOL    HW125467   4.107  13.590  12.284
 7876SOL    HW225468   4.237  13.599  12.207
 7877SOL     OW25469  13.206   8.211   4.377
 7877SOL    HW125470  13.179   8.128   4.418
 7877SOL    HW225471  13.302   8.207   4.377
 7878SOL     OW25472   2.721  14.067   1.218
 7878SOL    HW125473   2.665  13.997   1.185
 7878SOL    HW225474   2.802  14.022   1.245
 7879SOL     OW25475   9.638  13.395   4.036
 7879SOL    HW125476   9.726  13.430   4.032
 7879SOL    HW225477   9.641  13.328   4.105
 7880SOL     OW25478  13.055  12.961  12.121
 7880SOL    HW125479  13.127  13.006  12.165
 7880SOL    HW225480  13.099  12.898  12.063
 7881SOL     OW25481   3.770   9.417  13.857
 7881SOL    HW125482   3.682   9.392  13.884
 7881SOL    HW225483   3.776   9.511  13.876
 7882SOL     OW25484   9.704   4.109   1.277
 7882SOL    HW125485   9.622   4.084   1.319
 7882SOL    HW225486   9.682   4.120   1.184
 7883SOL     OW25487   0.996  14.871   5.169
 7883SOL    HW125488   0.949  14.825   5.238
 7883SOL    HW225489   0.990  14.813   5.093
 7884SOL     OW25490   3.953   8.710  12.465
 7884SOL    HW125491   3.899   8.722  12.387
 7884SOL    HW225492   3.960   8.798  12.502
 7885SOL     OW25493   9.432   7.784   3.816
 7885SOL    HW125494   9.512   7.745   3.851
 7885SOL    HW225495   9.462   7.834   3.739
 7886SOL     OW25496   3.801   0.698  10.846
 7886SOL    HW125497   3.743   0.769  10.820
 7886SOL    HW225498   3.887   0.738  10.853
 7887SOL     OW25499  14.689  13.387   7.024
 7887SOL    HW125500  14.705  13.296   7.050
 7887SOL    HW225501  14.758  13.437   7.068
 7888SOL     OW25502  10.254   7.781  11.005
 7888SOL    HW125503  10.268   7.868  10.970
 7888SOL    HW225504  10.160   7.765  10.994
 7889SOL     OW25505   4.370   0.174   3.628
 7889SOL    HW125506   4.320   0.250   3.658
 7889SOL    HW225507   4.447   0.211   3.585
 7890SOL     OW25508   5.720   5.962  12.892
 7890SOL    HW125509   5.709   6.047  12.850
 7890SOL    HW225510   5.796   5.924  12.849
 7891SOL     OW25511  14.156   4.654   1.697
 7891SOL    HW125512  14.118   4.699   1.621
 7891SOL    HW225513  14.126   4.705   1.772
 7892SOL     OW25514  11.881   2.026   6.397
 7892SOL    HW125515  11.872   2.022   6.302
 7892SOL    HW225516  11.868   1.936   6.426
 7893SOL     OW25517   7.296  13.019   6.114
 7893SOL    HW125518   7.266  13.109   6.107
 7893SOL    HW225519   7.286  12.983   6.026
 7894SOL     OW25520   6.711  11.676   3.592
 7894SOL    HW125521   6.753  11.713   3.670
 7894SOL    HW225522   6.740  11.585   3.591
 7895SOL     OW25523   0.924  13.742   5.999
 7895SOL    HW125524   0.963  13.830   5.999
 7895SOL    HW225525   0.921  13.718   5.906
 7896SOL     OW25526   3.854   7.708   1.201
 7896SOL    HW125527   3.885   7.626   1.241
 7896SOL    HW225528   3.763   7.715   1.230
 7897SOL     OW25529  10.539   1.193   4.312
 7897SOL    HW125530  10.629   1.180   4.282
 7897SOL    HW225531  10.494   1.111   4.291
 7898SOL     OW25532   3.982   5.103  10.005
 7898SOL    HW125533   3.960   5.154   9.927
 7898SOL    HW225534   3.968   5.012   9.978
 7899SOL     OW25535   7.082  14.261  14.486
 7899SOL    HW125536   7.059  14.215  14.405
 7899SOL    HW225537   7.061  14.198  14.555
 7900SOL     OW25538   5.262  12.824   0.338
 7900SOL    HW125539   5.236  12.880   0.265
 7900SOL    HW225540   5.351  12.795   0.315
 7901SOL     OW25541   3.234   4.669   2.295
 7901SOL    HW125542   3.190   4.730   2.354
 7901SOL    HW225543   3.287   4.725   2.238
 7902SOL     OW25544  12.288   3.819  14.724
 7902SOL    HW125545  12.211   3.787  14.676
 7902SOL    HW225546  12.253   3.885  14.784
 7903SOL     OW25547  14.209  11.900   8.341
 7903SOL    HW125548  14.150  11.942   8.278
 7903SOL    HW225549  14.243  11.823   8.294
 7904SOL     OW25550  11.600   9.004   1.987
 7904SOL    HW125551  11.548   8.939   2.034
 7904SOL    HW225552  11.566   9.088   2.015
 7905SOL     OW25553   9.161   1.091   7.201
 7905SOL    HW125554   9.066   1.098   7.208
 7905SOL    HW225555   9.182   1.003   7.233
 7906SOL     OW25556   7.155  11.034  13.780
 7906SOL    HW125557   7.139  11.083  13.700
 7906SOL    HW225558   7.127  10.945  13.760
 7907SOL     OW25559   9.607   4.531   6.533
 7907SOL    HW125560   9.642   4.606   6.582
 7907SOL    HW225561   9.664   4.523   6.457
 7908SOL     OW25562   5.396   9.136  12.198
 7908SOL    HW125563   5.381   9.086  12.278
 7908SOL    HW225564   5.475   9.187  12.215
 7909SOL     OW25565   7.912   1.214  11.708
 7909SOL    HW125566   7.822   1.222  11.677
 7909SOL    HW225567   7.965   1.212  11.628
 7910SOL     OW25568  10.681   1.169   6.619
 7910SOL    HW125569  10.754   1.227   6.598
 7910SOL    HW225570  10.609   1.202   6.566
 7911SOL     OW25571   3.000  10.597   1.429
 7911SOL    HW125572   3.092  10.578   1.412
 7911SOL    HW225573   2.991  10.593   1.524
 7912SOL     OW25574   3.832   3.485   4.602
 7912SOL    HW125575   3.804   3.504   4.512
 7912SOL    HW225576   3.756   3.507   4.655
 7913SOL     OW25577   0.621   2.514   7.142
 7913SOL    HW125578   0.538   2.469   7.154
 7913SOL    HW225579   0.661   2.513   7.229
 7914SOL     OW25580   3.751   3.692  10.842
 7914SOL    HW125581   3.718   3.738  10.764
 7914SOL    HW225582   3.749   3.758  10.911
 7915SOL     OW25583  11.185   0.579  12.434
 7915SOL    HW125584  11.192   0.551  12.342
 7915SOL    HW225585  11.207   0.501  12.484
 7916SOL     OW25586  14.379   6.495  13.898
 7916SOL    HW125587  14.359   6.588  13.894
 7916SOL    HW225588  14.399   6.470  13.808
 7917SOL     OW25589  12.152   4.925   5.747
 7917SOL    HW125590  12.098   4.865   5.798
 7917SOL    HW225591  12.242   4.902   5.768
 7918SOL     OW25592   3.551   0.718   7.324
 7918SOL    HW125593   3.554   0.636   7.374
 7918SOL    HW225594   3.515   0.692   7.239
 7919SOL     OW25595  13.647  14.014   8.248
 7919SOL    HW125596  13.702  13.936   8.255
 7919SOL    HW225597  13.679  14.059   8.170
 7920SOL     OW25598   6.596   6.946  12.006
 7920SOL    HW125599   6.588   6.906  11.920
 7920SOL    HW225600   6.560   6.880  12.066
 7921SOL     OW25601   5.404   4.896   2.853
 7921SOL    HW125602   5.462   4.943   2.913
 7921SOL    HW225603   5.317   4.905   2.892
 7922SOL     OW25604   3.417  10.252  14.530
 7922SOL    HW125605   3.341  10.202  14.500
 7922SOL    HW225606   3.470  10.264  14.452
 7923SOL     OW25607   4.793   1.289   4.812
 7923SOL    HW125608   4.705   1.273   4.846
 7923SOL    HW225609   4.818   1.374   4.850
 7924SOL     OW25610  10.719  12.361  12.225
 7924SOL    HW125611  10.789  12.317  12.177
 7924SOL    HW225612  10.688  12.429  12.165
 7925SOL     OW25613   3.761  12.820  13.029
 7925SOL    HW125614   3.847  12.781  13.014
 7925SOL    HW225615   3.729  12.842  12.941
 7926SOL     OW25616  10.536   4.959  10.302
 7926SOL    HW125617  10.508   5.049  10.322
 7926SOL    HW225618  10.477   4.932  10.231
 7927SOL     OW25619   0.185  11.379   4.725
 7927SOL    HW125620   0.203  11.370   4.632
 7927SOL    HW225621   0.270  11.367   4.768
 7928SOL     OW25622   3.972  13.957   8.975
 7928SOL    HW125623   4.014  13.873   8.994
 7928SOL    HW225624   3.970  14.002   9.059
 7929SOL     OW25625   8.837   8.095   0.720
 7929SOL    HW125626   8.917   8.048   0.695
 7929SOL    HW225627   8.814   8.059   0.806
 7930SOL     OW25628   9.600  14.178   6.170
 7930SOL    HW125629   9.591  14.135   6.085
 7930SOL    HW225630   9.531  14.245   6.170
 7931SOL     OW25631  13.985   5.209   1.494
 7931SOL    HW125632  14.012   5.289   1.449
 7931SOL    HW225633  13.910   5.178   1.444
 7932SOL     OW25634   7.860   0.686   4.113
 7932SOL    HW125635   7.767   0.668   4.129
 7932SOL    HW225636   7.906   0.635   4.180
 7933SOL     OW25637   6.182   9.713   8.656
 7933SOL    HW125638   6.146   9.633   8.696
 7933SOL    HW225639   6.108   9.774   8.655
 7934SOL     OW25640   7.709   1.835   0.546
 7934SOL    HW125641   7.794   1.801   0.575
 7934SOL    HW225642   7.645   1.778   0.588
 7935SOL     OW25643  10.306   3.864   8.101
 7935SOL    HW125644  10.221   3.853   8.061
 7935SOL    HW225645  10.289   3.914   8.181
 7936SOL     OW25646   4.622   0.898   9.515
 7936SOL    HW125647   4.685   0.891   9.587
 7936SOL    HW225648   4.537   0.898   9.558
 7937SOL     OW25649   3.637   3.047   8.760
 7937SOL    HW125650   3.694   3.041   8.836
 7937SOL    HW225651   3.614   3.140   8.754
 7938NA      NA25652   5.376  10.058  11.356
 7939NA      NA25653   5.119   6.742   4.261
 7940NA      NA25654   5.698   5.987  10.552
 7941NA      NA25655   6.332   6.504   4.519
 7942NA      NA25656   6.581   8.210   0.384
 7943NA      NA25657   7.477   8.465  11.197
 7944NA      NA25658   3.386  11.390   7.055
 7945NA      NA25659   9.424   3.235  10.431
 7946NA      NA25660  11.260  14.187  11.943
 7947NA      NA25661   9.214  14.186   6.928
 7948NA      NA25662   1.909   6.124   7.471
 7949NA      NA25663   7.286  10.981   9.859
 7950NA      NA25664  12.668  12.052   3.856
 7951NA      NA25665   5.016   8.672  11.769
 7952NA      NA25666   5.017   6.769  10.159
 7953NA      NA25667   4.102   6.379   4.955
 7954NA      NA25668   6.677   7.019  11.237
 7955NA      NA25669   3.363   6.316   8.174
 7956NA      NA25670   6.534   7.155   7.236
 7957NA      NA25671   5.779   6.656   6.621
 7958NA      NA25672   7.590   4.148  14.442
 7959NA      NA25673   5.116   5.621   6.073
 7960NA      NA25674   0.360  14.169   1.253
 7961NA      NA25675   4.231   7.930   4.732
 7962NA      NA25676   6.645   7.191  10.031
 7963NA      NA25677   5.398   7.226   7.481
 7964NA      NA25678   4.045  14.023  12.045
 7965NA      NA25679   4.290   8.771   0.920
 7966NA      NA25680   5.540   5.106   4.791
 7967NA      NA25681   4.078   6.134   3.805
 7968NA      NA25682   5.884   7.443   4.131
 7969NA      NA25683   4.501   7.707   8.651
 7970NA      NA25684   6.355   6.338   6.855
 7971NA      NA25685   9.736  13.393  13.046
 7972NA      NA25686   6.908   7.959  13.071
 7973NA      NA25687  14.329  12.702   6.143
 7974NA      NA25688   7.660   1.998   0.375
 7975NA      NA25689   7.152   7.248  10.947
 7976NA      NA25690   4.529   9.032  12.459
 7977NA      NA25691   3.966   0.565  12.016
 7978NA      NA25692   6.428   4.913   2.430
 7979NA      NA25693   5.390   5.045   7.065
 7980NA      NA25694   6.389   7.541   7.759
 7981NA      NA25695   7.532   7.643   8.944
 7982NA      NA25696   6.481   6.260   8.249
 7983NA      NA25697   5.838   7.325  10.643
 7984NA      NA25698   4.507   6.068   8.772
 7985NA      NA25699   4.511   7.214   0.467
 7986NA      NA25700   6.495   7.469  11.592
 7987NA      NA25701   6.429   4.688   4.798
 7988NA      NA25702   5.226   8.088  10.437
 7989NA      NA25703   6.617  13.523   0.240
 7990NA      NA25704   5.217   8.928   6.360
 7991NA      NA25705   6.551   8.598  10.531
 7992NA      NA25706   3.631   8.175  12.682
 7993NA      NA25707   0.819   1.658   4.996
 7994NA      NA25708   3.307  13.362   3.332
 7995NA      NA25709  13.317   3.839   5.884
 7996NA      NA25710   1.651   7.616   9.046
 7997NA      NA25711   6.834   7.713  10.156
 7998NA      NA25712   1.258   1.109  10.125
 7999NA      NA25713   7.931   0.699   2.177
  14.87634  14.87634  14.87634
